G6Pncore-PETIM in water
198855
    1aaa     N1    1   4.993   5.228   7.796 -0.0562 -0.0007 -0.1244
    1aaa     C1    2   5.114   5.237   7.887  0.0789 -0.1815 -0.1327
    1aaa     H1    3   5.102   5.157   7.961  0.5999  0.6377  0.8681
    1aaa     H2    4   5.206   5.216   7.830  2.3638 -1.9366  3.7329
    1aaa     C2    5   4.972   5.097   7.738 -0.0988  0.5408  0.5150
    1aaa     H3    6   4.942   5.104   7.633  1.3984  0.3823  0.0678
    1aaa     H4    7   5.066   5.042   7.738 -0.3675  0.0036 -1.4061
    1aaa     C3    8   4.971   5.344   7.707 -0.5807  0.0727 -0.1753
    1aaa     H5    9   4.991   5.441   7.755 -2.1064  0.2417  0.1877
    1aaa     H6   10   5.021   5.330   7.610 -0.0652  1.3663 -0.1231
    1aaa     C4   11   4.816   5.349   7.674  0.0295 -0.1357  0.5158
    1aaa     H7   12   4.780   5.259   7.622  2.8696 -0.7593 -0.5922
    1aaa     H8   13   4.758   5.358   7.766 -1.4854  1.3275 -0.5318
    1aaa     C5   14   5.128   5.371   7.960 -0.8074  0.3898 -0.4328
    1aaa     H9   15   5.168   5.449   7.894 -1.1796  0.3040 -0.7679
    1aaa    H10   16   5.032   5.403   8.003 -0.7048  0.3917 -0.2045
    1aaa     C6   17   4.857   5.012   7.817 -0.9111 -0.5807  0.4198
    1aaa    H11   18   4.859   5.021   7.927  0.0474  1.8458  0.2691
    1aaa    H12   19   4.770   5.074   7.796  0.4783  2.2078  2.2072
    1aaa     C7   20   4.837   4.867   7.760 -0.2721 -0.0135 -0.5402
    1aaa    H13   21   4.730   4.841   7.763  0.4303 -3.1746  0.8381
    1aaa    H14   22   4.864   4.853   7.655 -0.7174 -0.3304 -0.6168
    1aaa     C8   23   4.799   5.478   7.582  0.5272 -0.4871  0.4708
    1aaa    H15   24   4.859   5.563   7.619  0.4288  0.0207 -0.5157
    1aaa    H16   25   4.839   5.463   7.481  0.0640  0.6516  0.1043
    1aaa     C9   26   5.231   5.362   8.077  0.2190  0.1724  0.4655
    1aaa    H17   27   5.217   5.267   8.130  1.0635 -0.6881 -0.8005
    1aaa    H18   28   5.331   5.358   8.032 -0.2386  4.1705 -1.3948
    2bbb     N1   29   5.001   4.451   7.551 -0.1939  0.2707 -0.2241
    2bbb     C1   30   4.934   4.319   7.582 -0.0558  0.8998 -0.2291
    2bbb     H1   31   4.972   4.249   7.506 -1.4148 -1.3723  1.0761
    2bbb     H2   32   4.827   4.324   7.558 -0.2103 -0.9610 -0.0672
    2bbb     C2   33   4.967   4.501   7.417 -0.8118  0.2389 -0.0211
    2bbb     H3   34   5.016   4.600   7.415 -1.2916  0.4693 -0.4507
    2bbb     H4   35   4.860   4.525   7.415 -0.8838 -0.1485 -0.8817
    2bbb     C3   36   4.995   4.551   7.658 -0.0244  0.8023  0.7972
    2bbb     H5   37   5.039   4.647   7.628  0.2633  0.5568  0.4281
    2bbb     H6   38   5.063   4.515   7.736  0.0224 -2.9000 -0.7873
    2bbb     C4   39   4.857   4.580   7.719  0.1806 -0.3535 -0.3870
    2bbb     H7   40   4.802   4.487   7.739 -1.9893  0.8799 -0.2635
    2bbb     H8   41   4.788   4.630   7.650  0.4358 -1.7701 -1.7123
    2bbb     C5   42   4.949   4.255   7.724 -0.3093  0.4024  0.0318
    2bbb     H9   43   4.904   4.325   7.796  2.6645  0.2256  2.2673
    2bbb    H10   44   5.055   4.246   7.752 -0.2223 -0.8165 -0.6399
    2bbb     C6   45   5.011   4.415   7.296 -0.9324 -0.5681  0.8687
    2bbb    H11   46   4.943   4.328   7.300 -2.1676  0.3792  1.1551
    2bbb    H12   47   5.113   4.374   7.297 -0.3999  0.6944  0.0509
    2bbb     C7   48   4.859   4.645   7.855 -0.5860 -1.0918 -0.2869
    2bbb    H13   49   4.925   4.588   7.922 -0.1164 -2.5174 -1.9219
    2bbb    H14   50   4.754   4.665   7.880 -0.9742 -0.0485 -2.5524
    2bbb     C8   51   4.990   4.491   7.164  0.1242 -0.2254 -0.2861
    2bbb    H15   52   4.884   4.517   7.152 -0.6972 -2.0749  2.2449
    2bbb    H16   53   5.006   4.432   7.073  1.5160 -0.7827  0.2936
    2bbb     C9   54   4.897   4.113   7.738  0.1057  0.1979  0.2074
    2bbb    H17   55   4.966   4.044   7.688  1.3577  0.6446  1.2565
    2bbb    H18   56   4.795   4.109   7.696  0.3394 -0.7904 -0.3032
    2bbb     O1   57   4.916   4.775   7.832 -0.0450 -0.5894  0.2315
    3bbb     N1   58   4.310   5.818   7.395  0.4477 -0.0741  0.1441
    3bbb     C1   59   4.208   5.729   7.340 -1.1604  0.1484  0.4575
    3bbb     H1   60   4.119   5.783   7.306  0.6784  1.1349 -3.3386
    3bbb     H2   61   4.169   5.646   7.401  1.1456 -1.5691 -0.2562
    3bbb     C2   62   4.251   5.879   7.516  0.1217 -0.9701 -0.1088
    3bbb     H3   63   4.258   5.809   7.601 -0.2711 -1.9156 -0.8382
    3bbb     H4   64   4.146   5.906   7.502  0.7881  0.7818 -2.1648
    3bbb     C3   65   4.445   5.786   7.406 -0.2516 -0.2175  0.2166
    3bbb     H5   66   4.507   5.876   7.415  0.3474 -0.4992 -0.8718
    3bbb     H6   67   4.488   5.745   7.314 -0.1331 -1.0421  0.6316
    3bbb     C4   68   4.477   5.664   7.504 -0.1799  0.8734  0.3127
    3bbb     H7   69   4.422   5.575   7.471  0.4947  0.0176  1.4164
    3bbb     H8   70   4.455   5.680   7.610  3.2283 -3.0327  1.8863
    3bbb     C5   71   4.260   5.673   7.203 -0.2633 -0.2328  0.1897
    3bbb     H9   72   4.347   5.607   7.213 -1.0486 -1.2365  0.5725
    3bbb    H10   73   4.292   5.753   7.135  1.2699 -1.1513 -0.2186
    3bbb     C6   74   4.316   6.007   7.559 -0.0430 -0.6102 -0.4717
    3bbb    H11   75   4.325   6.080   7.478 -0.4443 -0.4340 -0.3633
    3bbb    H12   76   4.416   5.985   7.596  0.3826  1.7450 -0.0787
    3bbb     C7   77   4.625   5.625   7.496  0.6168 -0.0158 -0.6220
    3bbb    H13   78   4.678   5.715   7.528  1.9284 -0.6401 -0.9946
    3bbb    H14   79   4.659   5.608   7.393  0.3906  0.5203 -0.7878
    3bbb     C8   80   4.238   6.077   7.675  0.8404 -0.3630  0.1612
    3bbb    H15   81   4.201   6.002   7.746 -0.1789  0.6668  0.7673
    3bbb    H16   82   4.149   6.131   7.640  0.3545 -2.0794 -1.3485
    3bbb     C9   83   4.150   5.599   7.122 -0.6676 -0.0087 -0.3518
    3bbb    H17   84   4.075   5.674   7.094 -0.2028  0.6409  0.0970
    3bbb    H18   85   4.101   5.528   7.190  0.8222 -0.3661  0.3890
    3bbb     O1   86   4.661   5.516   7.577  0.1752 -0.7362 -0.1529
    4bbb     N1   87   5.348   5.794   8.463 -0.5653  0.5147  0.5926
    4bbb     C1   88   5.409   5.919   8.409 -0.6188  0.7083  0.5310
    4bbb     H1   89   5.396   5.916   8.300  1.1495 -0.4373  0.2969
    4bbb     H2   90   5.517   5.909   8.426 -0.3349 -0.3359 -1.5237
    4bbb     C2   91   5.367   5.763   8.608  0.1181  0.0657 -0.3127
    4bbb     H3   92   5.291   5.691   8.641  0.1643  0.5968  1.0231
    4bbb     H4   93   5.336   5.851   8.666 -0.2749  0.2714 -0.8237
    4bbb     C3   94   5.367   5.679   8.370  0.3794 -0.7657  0.2285
    4bbb     H5   95   5.473   5.652   8.362  0.3206 -1.2845  1.1197
    4bbb     H6   96   5.336   5.709   8.269 -1.0773 -0.1962  0.8030
    4bbb     C4   97   5.288   5.548   8.407 -0.6746 -0.4695 -0.1957
    4bbb     H7   98   5.182   5.571   8.422 -0.2165  0.2620  2.2402
    4bbb     H8   99   5.318   5.499   8.500 -3.5676 -0.8268  0.6411
    4bbb     C5  100   5.350   6.046   8.470  0.0179 -0.3203  0.6213
    4bbb     H9  101   5.396   6.137   8.431 -0.8308  0.0944  0.5790
    4bbb    H10  102   5.370   6.041   8.578 -0.9032 -0.2598  0.8032
    4bbb     C6  103   5.501   5.713   8.661  0.0502  0.5202  0.6349
    4bbb    H11  104   5.570   5.798   8.665  2.8578 -1.6215  1.5077
    4bbb    H12  105   5.545   5.633   8.600  0.5162  0.0015  1.6206
    4bbb     C7  106   5.300   5.434   8.302 -0.5297 -0.4884 -0.3570
    4bbb    H13  107   5.270   5.339   8.348  1.1917 -1.7065 -1.6079
    4bbb    H14  108   5.407   5.421   8.281 -0.9382  0.7366 -4.0237
    4bbb     C8  109   5.489   5.665   8.802  0.8370 -0.0229 -0.1251
    4bbb    H15  110   5.410   5.590   8.813  0.6592  0.2880  0.8715
    4bbb    H16  111   5.453   5.749   8.863 -0.2636 -0.2995 -0.3593
    4bbb     C9  112   5.198   6.050   8.441 -0.1197 -0.3933 -0.0863
    4bbb    H17  113   5.148   5.987   8.515  1.6694 -2.5132 -0.5469
    4bbb    H18  114   5.168   6.004   8.345 -1.5634  1.1277 -0.4056
    4bbb     O1  115   5.229   5.470   8.173 -0.0065 -0.6918 -0.0115
    5bbb     N1  116   5.006   5.034   7.215 -0.2359 -0.1514  0.0079
    5bbb     C1  117   4.872   5.090   7.256  0.0973 -1.0101 -0.0861
    5bbb     H1  118   4.845   5.055   7.356  0.5837 -1.4147 -0.0950
    5bbb     H2  119   4.799   5.038   7.192 -1.6585  1.0186  0.1726
    5bbb     C2  120   5.131   5.091   7.266 -0.0796 -0.4110 -0.2446
    5bbb     H3  121   5.114   5.199   7.275  0.1356 -0.5398  3.0866
    5bbb     H4  122   5.214   5.070   7.197  1.3343 -0.2809  1.3417
    5bbb     C3  123   5.002   4.888   7.194 -0.1562 -0.2843 -0.1732
    5bbb     H5  124   4.912   4.864   7.137  0.1417  2.1125 -1.7806
    5bbb     H6  125   5.003   4.831   7.288  0.1270 -0.7155 -0.4287
    5bbb     C4  126   5.113   4.834   7.102 -0.1446  0.2004  0.2113
    5bbb     H7  127   5.205   4.826   7.161  0.8007 -1.1583 -1.3408
    5bbb     H8  128   5.132   4.903   7.019  0.0537  1.3692  1.1943
    5bbb     C5  129   4.856   5.244   7.244  0.2622  0.1331 -0.4578
    5bbb     H9  130   4.872   5.263   7.137 -4.0244 -1.5394 -1.6050
    5bbb    H10  131   4.932   5.297   7.303  0.7705  0.9357 -1.7943
    5bbb     C6  132   5.176   5.053   7.400 -0.3206 -0.1389  0.3331
    5bbb    H11  133   5.181   4.946   7.424 -0.7317 -0.0029  1.0758
    5bbb    H12  134   5.087   5.088   7.454 -1.8220 -2.8824 -0.1474
    5bbb     C7  135   5.077   4.693   7.056  0.1299  0.7040 -0.5312
    5bbb    H13  136   5.146   4.664   6.975  0.3536  2.0798 -0.8624
    5bbb    H14  137   4.975   4.695   7.017 -0.1503  0.7985  0.1869
    5bbb     C8  138   5.302   5.132   7.441 -0.9835  0.1098  0.1616
    5bbb    H15  139   5.324   5.110   7.546  0.3607 -0.8428 -0.2853
    5bbb    H16  140   5.298   5.241   7.444  1.9523  0.2938  0.1225
    5bbb     C9  141   4.710   5.289   7.282 -0.1817 -0.6435  0.0655
    5bbb    H17  142   4.695   5.390   7.243 -2.3299 -0.8925  0.1498
    5bbb    H18  143   4.692   5.272   7.389 -1.0055 -1.0854 -0.1387
    5bbb     O1  144   5.081   4.605   7.171 -0.3583  0.0527 -0.0273
    6bbb     N1  145   5.015   3.835   8.279 -0.0413  0.3989  0.1955
    6bbb     C1  146   5.107   3.719   8.314  0.0283 -0.1538  0.0328
    6bbb     H1  147   5.191   3.766   8.367 -1.9649  1.4589  1.9410
    6bbb     H2  148   5.139   3.682   8.216 -1.6698  1.5033 -1.2360
    6bbb     C2  149   4.962   3.917   8.391 -0.7338  0.1598  0.1623
    6bbb     H3  150   4.899   3.853   8.454 -0.2585 -0.7568 -0.2550
    6bbb     H4  151   4.885   3.986   8.354 -0.3060  0.5534  0.0113
    6bbb     C3  152   5.064   3.901   8.161 -0.0035 -0.2079 -0.0635
    6bbb     H5  153   5.088   3.824   8.086 -3.5685 -2.6745  1.0898
    6bbb     H6  154   5.148   3.969   8.182 -1.0032  0.6153  1.3826
    6bbb     C4  155   4.954   3.982   8.088  0.9529 -0.1300 -0.4375
    6bbb     H7  156   4.929   4.065   8.156 -3.1643 -2.3397  1.1243
    6bbb     H8  157   4.871   3.915   8.062 -0.0147  1.2449 -1.0187
    6bbb     C5  158   5.052   3.623   8.422  0.2835  0.3669 -0.7374
    6bbb     H9  159   4.968   3.567   8.377 -0.4251  2.8249 -2.7009
    6bbb    H10  160   5.022   3.679   8.511  3.2244 -1.0260  1.3062
    6bbb     C6  161   5.067   3.989   8.470  0.1530  0.0358  0.4509
    6bbb    H11  162   5.124   4.058   8.407 -1.2018  2.2988  1.5644
    6bbb    H12  163   5.136   3.922   8.523 -0.2225  0.5553  1.6458
    6bbb     C7  164   4.995   4.039   7.950 -0.3661  0.1899 -0.5871
    6bbb    H13  165   5.046   3.961   7.892 -1.0347 -0.4367 -0.3463
    6bbb    H14  166   5.062   4.124   7.968  0.8992 -0.2935 -2.6633
    6bbb     C8  167   5.002   4.089   8.568  0.5114  0.7397 -0.3857
    6bbb    H15  168   4.916   4.035   8.608  0.8905 -0.5638 -1.2661
    6bbb    H16  169   4.971   4.182   8.518 -2.4429  0.8486  1.4421
    6bbb     C9  170   5.163   3.528   8.464 -0.3854  0.8516 -0.0193
    6bbb    H17  171   5.203   3.482   8.373  0.6683  1.9810 -0.1348
    6bbb    H18  172   5.134   3.457   8.543  4.3696 -0.5377  0.7743
    6bbb     O1  173   4.873   4.082   7.879 -0.1158  0.0360  0.5170
    7bbb     N1  174   4.432   6.466   8.110  0.3701 -0.2263 -0.7680
    7bbb     C1  175   4.386   6.518   8.242  0.1184  0.1797  0.0096
    7bbb     H1  176   4.283   6.554   8.224  0.1662  0.9383  1.1932
    7bbb     H2  177   4.430   6.616   8.265 -1.0544  0.4756  1.1376
    7bbb     C2  178   4.575   6.452   8.098 -0.2242 -0.3303 -0.1222
    7bbb     H3  179   4.604   6.412   8.001  0.2852  4.4360 -2.2167
    7bbb     H4  180   4.607   6.384   8.178 -2.0125  0.7708  1.6734
    7bbb     C3  181   4.354   6.354   8.054  0.1124 -0.2278  0.0503
    7bbb     H5  182   4.246   6.365   8.067 -0.1816 -3.2454  0.7472
    7bbb     H6  183   4.384   6.265   8.112  1.9645  0.2898 -0.0327
    7bbb     C4  184   4.372   6.327   7.906 -1.5883 -0.1776  0.2704
    7bbb     H7  185   4.471   6.282   7.893 -0.5716  1.5157  1.6599
    7bbb     H8  186   4.389   6.427   7.864  0.0837 -0.0080  1.2540
    7bbb     C5  187   4.403   6.410   8.357  0.3471  0.2498 -0.4814
    7bbb     H9  188   4.510   6.391   8.375  0.1966  0.9681  1.4028
    7bbb    H10  189   4.364   6.308   8.342  1.1273  0.0137 -0.9581
    7bbb     C6  190   4.654   6.586   8.110  0.6565  0.2531  0.1909
    7bbb    H11  191   4.759   6.558   8.096  0.0310 -1.7955 -0.8402
    7bbb    H12  192   4.645   6.619   8.214  1.0052 -1.1864  0.7019
    7bbb     C7  193   4.267   6.245   7.838  0.0950  0.0572  0.0066
    7bbb    H13  194   4.194   6.309   7.787  0.3124 -1.1580 -1.9004
    7bbb    H14  195   4.213   6.183   7.911 -1.9503  0.0026 -1.4694
    7bbb     C8  196   4.615   6.698   8.004  0.7790 -0.4946  0.3021
    7bbb    H15  197   4.583   6.787   8.061 -1.1978 -0.5971 -0.5566
    7bbb    H16  198   4.527   6.663   7.948 -0.1486  0.8890  0.8406
    7bbb     C9  199   4.348   6.455   8.498  0.1652  0.4290 -0.0846
    7bbb    H17  200   4.412   6.538   8.529  1.1359 -0.1509 -0.4581
    7bbb    H18  201   4.381   6.381   8.572  0.8059  1.6503  0.8874
    7bbb     O1  202   4.323   6.172   7.732 -0.3626 -1.0291 -0.5127
    8bbb     N1  203   4.390   5.371   6.649  0.4320  0.3961 -0.3910
    8bbb     C1  204   4.314   5.308   6.543 -0.5187 -0.5206  0.0773
    8bbb     H1  205   4.262   5.384   6.483 -1.7095  0.5966  2.4018
    8bbb     H2  206   4.242   5.232   6.579 -0.5754 -1.4460 -1.8251
    8bbb     C2  207   4.477   5.278   6.727  0.4074 -0.4348  0.4924
    8bbb     H3  208   4.561   5.241   6.667  1.7301  1.4051  1.1367
    8bbb     H4  209   4.421   5.192   6.765 -1.1097  0.4669  0.3887
    8bbb     C3  210   4.297   5.447   6.727  0.6865  0.1055  0.5027
    8bbb     H5  211   4.236   5.509   6.659  2.5827 -0.8446 -2.2555
    8bbb     H6  212   4.357   5.520   6.782  2.4613 -0.4247 -0.6556
    8bbb     C4  213   4.202   5.368   6.826 -0.4216 -0.3196 -0.0395
    8bbb     H7  214   4.253   5.294   6.890  0.2742  0.0603 -0.1542
    8bbb     H8  215   4.135   5.304   6.767  1.0506 -0.9081 -1.1179
    8bbb     C5  216   4.409   5.245   6.438  0.1028 -0.4874  0.2873
    8bbb     H9  217   4.501   5.205   6.483  1.7017  0.6987 -1.7767
    8bbb    H10  218   4.438   5.320   6.364 -1.0971  0.3645  0.6312
    8bbb     C6  219   4.544   5.343   6.848 -0.1748 -0.5204 -0.0931
    8bbb    H11  220   4.468   5.375   6.921 -0.9328  1.1385 -1.5308
    8bbb    H12  221   4.604   5.429   6.818  0.8868 -1.4232 -0.6111
    8bbb     C7  222   4.120   5.452   6.924 -1.0888 -0.4888  0.2306
    8bbb    H13  223   4.053   5.384   6.979 -0.0478 -1.6992  0.0595
    8bbb    H14  224   4.057   5.521   6.866 -0.0392 -0.9850 -1.5738
    8bbb     C8  225   4.632   5.239   6.924 -0.2862 -0.0226 -0.3702
    8bbb    H15  226   4.553   5.174   6.964 -0.1631 -0.6740 -1.1466
    8bbb    H16  227   4.684   5.293   7.003 -3.3075  1.0528  1.0563
    8bbb     C9  228   4.334   5.133   6.362 -0.3130  0.9425  0.1822
    8bbb    H17  229   4.282   5.063   6.429  1.4439 -1.3208 -0.6794
    8bbb    H18  230   4.405   5.083   6.296 -0.5321  0.4661  0.3054
    8bbb     O1  231   4.211   5.528   7.012  0.2511 -0.1164 -0.3454
    9bbb     N1  232   5.932   5.419   9.167  0.3070  0.1319 -0.1807
    9bbb     C1  233   5.933   5.363   9.307 -0.4235  0.4991 -0.3104
    9bbb     H1  234   5.923   5.435   9.389  0.6275 -1.9435  2.1366
    9bbb     H2  235   6.025   5.304   9.312 -0.5323  0.3993  0.7977
    9bbb     C2  236   6.056   5.493   9.126 -0.0200 -0.1062 -0.0274
    9bbb     H3  237   6.053   5.505   9.018  0.4804  0.0536 -0.0274
    9bbb     H4  238   6.139   5.426   9.151  1.6580  2.2019  0.9421
    9bbb     C3  239   5.804   5.489   9.143 -0.6082 -0.3037 -0.2549
    9bbb     H5  240   5.803   5.594   9.177  0.5670 -0.1970 -0.5072
    9bbb     H6  241   5.718   5.433   9.182 -2.3674 -0.5260 -4.0144
    9bbb     C4  242   5.766   5.500   8.987  0.0023 -0.1973  0.3427
    9bbb     H7  243   5.760   5.399   8.945 -2.9968  0.3514 -0.7997
    9bbb     H8  244   5.841   5.559   8.934 -0.4407 -1.1808 -1.4562
    9bbb     C5  245   5.823   5.257   9.341 -0.1796  0.8940  0.3199
    9bbb     H9  246   5.820   5.189   9.255 -1.0820  1.0473  0.2290
    9bbb    H10  247   5.728   5.310   9.349 -0.5867  0.1557  0.4765
    9bbb     C6  248   6.078   5.628   9.194  0.3256  0.3660  0.2537
    9bbb    H11  249   6.083   5.618   9.303 -0.4476 -0.0115  0.2607
    9bbb    H12  250   5.993   5.692   9.165 -0.6949 -1.7465 -1.7776
    9bbb     C7  251   5.635   5.573   8.972  0.0470  0.3526  0.1357
    9bbb    H13  252   5.613   5.649   9.047 -1.0129  0.7335 -0.5416
    9bbb    H14  253   5.563   5.493   8.993  0.6831  0.0068  1.0879
    9bbb     C8  254   6.208   5.690   9.146  0.3688  0.2748  0.1848
    9bbb    H15  255   6.222   5.787   9.193  1.1559 -0.2534  1.0712
    9bbb    H16  256   6.201   5.691   9.036  0.7338  0.5893  0.1630
    9bbb     C9  257   5.848   5.173   9.466  0.1446  0.5805 -0.1976
    9bbb    H17  258   5.958   5.164   9.471  0.4170  2.5132 -1.6032
    9bbb    H18  259   5.822   5.068   9.444  2.9153 -0.0198 -1.0693
    9bbb     O1  260   5.623   5.618   8.839 -0.3118 -0.4859  0.6884
   10bbb     N1  261   4.862   6.565   8.384  0.2005  0.1385  0.2497
   10bbb     C1  262   4.810   6.607   8.514 -0.5595  0.9478 -0.2030
   10bbb     H1  263   4.870   6.686   8.560  0.1113 -0.1613  0.8870
   10bbb     H2  264   4.802   6.521   8.581  1.7078  0.2630 -0.7402
   10bbb     C2  265   4.967   6.660   8.340  0.4027  0.6708 -0.3855
   10bbb     H3  266   5.049   6.654   8.413  0.8076  2.3524 -0.6538
   10bbb     H4  267   4.928   6.763   8.338  0.6196  0.7386 -2.0309
   10bbb     C3  268   4.876   6.415   8.375 -0.6715  0.6349 -0.0379
   10bbb     H5  269   4.900   6.399   8.269  1.4268  0.6231  0.4036
   10bbb     H6  270   4.782   6.367   8.405 -0.3928 -0.6389 -1.0657
   10bbb     C4  271   4.995   6.361   8.451 -0.2239 -0.1200 -0.0596
   10bbb     H7  272   4.999   6.378   8.559  2.9316 -1.1221  0.0766
   10bbb     H8  273   5.086   6.413   8.419 -0.8416  1.6136  0.8719
   10bbb     C5  274   4.673   6.672   8.500  0.1932  0.3898  0.4592
   10bbb     H9  275   4.606   6.601   8.450 -2.1979  2.6009  0.3366
   10bbb    H10  276   4.668   6.752   8.426 -1.6448  0.2595  0.3926
   10bbb     C6  277   5.020   6.626   8.200 -0.0093  0.2868  0.1406
   10bbb    H11  278   4.940   6.658   8.132  1.3294 -2.1051 -2.7812
   10bbb    H12  279   5.048   6.522   8.180 -0.8930  0.4383 -2.2596
   10bbb     C7  280   5.018   6.215   8.417  0.8959 -0.1559 -0.2622
   10bbb    H13  281   5.017   6.189   8.310  1.4448 -2.3629  0.2150
   10bbb    H14  282   4.954   6.149   8.477  1.1046 -0.0089  0.1215
   10bbb     C8  283   5.150   6.711   8.155  1.0217 -0.0016  0.4178
   10bbb    H15  284   5.165   6.688   8.049 -1.3636  0.9672 -0.1909
   10bbb    H16  285   5.237   6.679   8.213 -0.1381 -3.2652  0.6003
   10bbb     C9  286   4.617   6.724   8.634 -0.0832 -0.4802  0.4999
   10bbb    H17  287   4.684   6.803   8.669 -1.2186  1.4441 -1.4143
   10bbb    H18  288   4.620   6.638   8.702 -0.5415 -2.2717 -1.6079
   10bbb     O1  289   5.152   6.182   8.455 -0.2047  0.0610  0.3747
   11bbb     N1  290   5.828   5.041   7.187  0.2893  0.2044 -0.2550
   11bbb     C1  291   5.833   5.138   7.079 -0.4035  0.6949  0.6093
   11bbb     H1  292   5.937   5.130   7.044 -0.6865 -2.5757  0.2670
   11bbb     H2  293   5.822   5.240   7.119  1.3935  0.9732  0.4723
   11bbb     C2  294   5.866   4.900   7.152  0.1441 -0.1864 -0.0164
   11bbb     H3  295   5.810   4.871   7.063 -2.6667  1.5275  1.0446
   11bbb     H4  296   5.831   4.833   7.232 -2.1722 -0.5731 -1.2639
   11bbb     C3  297   5.695   5.031   7.259 -0.0024 -0.1978 -0.4148
   11bbb     H5  298   5.694   4.947   7.329  0.5452  2.4597  3.0274
   11bbb     H6  299   5.612   5.011   7.190 -0.9531  0.6406  0.4572
   11bbb     C4  300   5.668   5.166   7.337  0.2531 -0.7567 -0.0695
   11bbb     H7  301   5.649   5.247   7.265  2.4900  2.1681  2.3343
   11bbb     H8  302   5.756   5.201   7.392 -1.5126  0.5686  2.0808
   11bbb     C5  303   5.746   5.110   6.948  0.8993 -0.4736 -0.9541
   11bbb     H9  304   5.644   5.118   6.987  2.3134  1.4472  2.8700
   11bbb    H10  305   5.757   5.007   6.913  0.1817 -0.2927 -1.7497
   11bbb     C6  306   6.018   4.879   7.136 -0.5712 -0.0362  0.5721
   11bbb    H11  307   6.076   4.914   7.223 -1.0569  1.0656  0.4687
   11bbb    H12  308   6.052   4.939   7.051 -3.0376 -0.3746 -0.7428
   11bbb     C7  309   5.546   5.148   7.432  0.5249 -0.8131  0.3191
   11bbb    H13  310   5.536   5.252   7.466  2.6652 -0.3964 -0.1366
   11bbb    H14  311   5.567   5.081   7.517  0.1812 -2.4425 -0.8311
   11bbb     C8  312   6.056   4.729   7.109  0.1022 -0.7426  0.3217
   11bbb    H15  313   5.995   4.711   7.020  0.2359  0.6218 -0.0804
   11bbb    H16  314   6.015   4.671   7.192 -0.8327 -0.7606 -0.1344
   11bbb     C9  315   5.782   5.201   6.835 -0.9473 -1.0414  0.3251
   11bbb    H17  316   5.750   5.159   6.738  0.6629  0.1105 -0.7446
   11bbb    H18  317   5.890   5.216   6.837 -1.1655  1.6807 -2.0989
   11bbb     O1  318   5.423   5.110   7.364 -0.0389  0.9786 -0.4099
   12bbb     N1  319   4.104   5.130   7.158 -0.2347 -0.1258 -0.1736
   12bbb     C1  320   3.971   5.190   7.174  0.2041 -0.0904 -0.2334
   12bbb     H1  321   3.977   5.297   7.154 -2.3870  0.2245  0.3128
   12bbb     H2  322   3.934   5.171   7.276 -0.1236  1.3259 -0.0759
   12bbb     C2  323   4.113   4.987   7.183  0.3540 -0.1883  0.2651
   12bbb     H3  324   4.209   4.951   7.145  0.4765  0.9821 -0.5941
   12bbb     H4  325   4.044   4.940   7.112  2.2944 -0.6426 -1.4277
   12bbb     C3  326   4.214   5.211   7.209 -0.5991 -0.3120  0.2968
   12bbb     H5  327   4.221   5.231   7.317 -2.6231  0.0600  0.3981
   12bbb     H6  328   4.205   5.308   7.158  1.5137  0.6637  1.6298
   12bbb     C4  329   4.361   5.159   7.180 -0.4085 -0.2946 -0.8488
   12bbb     H7  330   4.373   5.160   7.071  0.4214  1.2165 -0.7612
   12bbb     H8  331   4.372   5.053   7.208 -0.5299 -0.4605 -1.4208
   12bbb     C5  332   3.873   5.141   7.061  0.3529 -0.1420 -0.3547
   12bbb     H9  333   3.863   5.032   7.061 -1.4838  0.0031  0.2227
   12bbb    H10  334   3.915   5.160   6.961 -0.7833 -2.2553 -1.2955
   12bbb     C6  335   4.084   4.947   7.325  0.5950 -0.5317 -0.5784
   12bbb    H11  336   3.980   4.956   7.356  0.6110  0.0502 -0.6838
   12bbb    H12  337   4.131   5.024   7.387  0.9172 -1.0084 -0.2208
   12bbb     C7  338   4.467   5.255   7.246 -0.4266 -0.4692  0.9076
   12bbb    H13  339   4.450   5.270   7.353 -1.0013  1.4031  0.6048
   12bbb    H14  340   4.442   5.351   7.198 -2.4102 -1.1614  0.4547
   12bbb     C8  341   4.144   4.811   7.360  0.0481  0.3855  0.6550
   12bbb    H15  342   4.113   4.778   7.460 -1.3930  2.4790  0.9548
   12bbb    H16  343   4.252   4.827   7.351 -0.0040 -0.2788 -2.3199
   12bbb     C9  344   3.731   5.199   7.067  0.7014  0.1539 -0.1751
   12bbb    H17  345   3.699   5.168   7.167  1.9686  0.6039  0.3890
   12bbb    H18  346   3.667   5.148   6.994 -0.2756 -0.9473  1.3879
   12bbb     O1  347   4.606   5.210   7.227 -0.5783  0.1978  0.1931
   13bbb     N1  348   5.248   4.410   9.035  0.0996 -0.0553 -0.0334
   13bbb     C1  349   5.380   4.339   9.058  0.4388 -0.2571 -0.6325
   13bbb     H1  350   5.452   4.405   9.107 -0.5308  0.1107  0.3459
   13bbb     H2  351   5.422   4.311   8.960  1.3021 -1.0884 -0.0504
   13bbb     C2  352   5.192   4.492   9.141 -0.1981 -0.0538 -0.2290
   13bbb     H3  353   5.146   4.431   9.220 -0.5655  0.2415 -0.2149
   13bbb     H4  354   5.101   4.547   9.114 -1.7012 -1.5914  1.4094
   13bbb     C3  355   5.140   4.343   8.956 -0.5148  0.5852 -0.2821
   13bbb     H5  356   5.069   4.420   8.924 -0.6860  0.3905 -0.3718
   13bbb     H6  357   5.096   4.271   9.026  4.0841  2.5970  5.5244
   13bbb     C4  358   5.182   4.269   8.829  0.0838 -0.1141  0.5528
   13bbb     H7  359   5.232   4.175   8.858 -0.4598 -0.6220 -0.1065
   13bbb     H8  360   5.248   4.328   8.765  0.0934 -0.1332  0.5456
   13bbb     C5  361   5.353   4.215   9.148  0.6605  0.1951  0.1968
   13bbb     H9  362   5.317   4.133   9.085  0.7916  0.3850 -0.1249
   13bbb    H10  363   5.268   4.234   9.214  1.1443 -0.1169  0.9287
   13bbb     C6  364   5.298   4.595   9.197  0.1369 -0.2195  0.3752
   13bbb    H11  365   5.339   4.652   9.113  1.6969 -0.8013  0.7061
   13bbb    H12  366   5.387   4.549   9.243  1.5746  0.4225 -1.6204
   13bbb     C7  367   5.066   4.235   8.739 -0.0227 -0.0390 -0.7507
   13bbb    H13  368   5.040   4.314   8.668  1.5902 -0.4722 -1.8685
   13bbb    H14  369   4.972   4.220   8.794 -1.0342  2.2846 -1.7184
   13bbb     C8  370   5.233   4.684   9.312 -0.1591  0.2152  0.0895
   13bbb    H15  371   5.187   4.615   9.385 -1.8978 -2.6392 -3.3742
   13bbb    H16  372   5.149   4.743   9.274  1.0717  1.1776 -1.1913
   13bbb     C9  373   5.463   4.157   9.234  0.4368 -0.1890 -0.1754
   13bbb    H17  374   5.530   4.099   9.169 -1.2033 -1.0614 -1.1372
   13bbb    H18  375   5.420   4.084   9.304  3.5080 -0.2410  1.8841
   13bbb     O1  376   5.109   4.124   8.658  0.3134  0.0099 -0.2408
   14bbb     N1  377   5.502   3.760   8.860 -0.3378  0.0911 -0.7846
   14bbb     C1  378   5.583   3.858   8.791  0.1915 -0.4101 -0.4710
   14bbb     H1  379   5.632   3.806   8.708 -0.5261  1.5604 -2.2386
   14bbb     H2  380   5.661   3.901   8.855  0.4621 -1.1569 -0.2859
   14bbb     C2  381   5.452   3.814   8.989 -0.4117  0.3784 -1.3736
   14bbb     H3  382   5.381   3.897   8.974 -1.1930  0.2806  1.1985
   14bbb     H4  383   5.538   3.862   9.037 -0.9005 -1.9378  2.1663
   14bbb     C3  384   5.398   3.696   8.779  0.1476 -0.4959  0.2912
   14bbb     H5  385   5.320   3.770   8.758  1.8508  1.1466 -0.4389
   14bbb     H6  386   5.348   3.619   8.839 -0.2038 -0.8330 -0.4203
   14bbb     C4  387   5.457   3.632   8.657 -0.2042  0.1338 -0.3612
   14bbb     H7  388   5.545   3.577   8.692 -0.1426 -0.1607 -0.9694
   14bbb     H8  389   5.498   3.703   8.584 -0.3897  0.4912 -0.1168
   14bbb     C5  390   5.504   3.974   8.730 -0.4389  0.0381  0.1326
   14bbb     H9  391   5.466   4.052   8.798  0.7159 -0.3909  1.3027
   14bbb    H10  392   5.408   3.937   8.691 -0.2410  0.5519 -0.8793
   14bbb     C6  393   5.391   3.708   9.083 -0.3367 -0.5085 -0.4058
   14bbb    H11  394   5.447   3.614   9.076 -0.1697 -0.2903 -2.8363
   14bbb    H12  395   5.294   3.680   9.040 -0.7410  2.4094 -1.6444
   14bbb     C7  396   5.372   3.530   8.579 -0.3397  0.1459  0.3925
   14bbb    H13  397   5.335   3.453   8.647 -0.6514  0.3829  0.4948
   14bbb    H14  398   5.422   3.483   8.494 -2.7098 -0.4866 -0.7590
   14bbb     C8  399   5.383   3.757   9.231  0.0734 -0.8063  0.4671
   14bbb    H15  400   5.316   3.844   9.227  1.8262  0.5869 -0.0378
   14bbb    H16  401   5.479   3.794   9.270 -0.5831 -0.0997  1.4439
   14bbb     C9  402   5.583   4.052   8.625 -0.5738 -0.3754 -0.2914
   14bbb    H17  403   5.664   4.107   8.674 -2.2261 -0.5129  2.8583
   14bbb    H18  404   5.515   4.131   8.591  0.5527  1.0261  0.5777
   14bbb     O1  405   5.261   3.605   8.528 -0.3178 -0.2573  0.2209
   15bbb     N1  406   5.055   6.910   7.692 -0.4134  0.3629 -0.2728
   15bbb     C1  407   5.151   7.016   7.726  0.1155 -0.0709 -0.0162
   15bbb     H1  408   5.208   7.001   7.818 -1.1943 -0.6538  0.7374
   15bbb     H2  409   5.088   7.104   7.739 -0.8289 -0.6875 -0.2800
   15bbb     C2  410   5.111   6.785   7.637 -0.5246  0.2831  0.0858
   15bbb     H3  411   5.153   6.807   7.538  1.2879  1.5124  1.0650
   15bbb     H4  412   5.024   6.721   7.618 -0.1427 -0.0710 -0.5027
   15bbb     C3  413   4.948   6.890   7.789  0.1834 -0.0200 -0.6171
   15bbb     H5  414   4.930   6.977   7.853 -0.9663 -0.5826 -0.1459
   15bbb     H6  415   4.978   6.811   7.859 -1.5867  0.1084  0.3607
   15bbb     C4  416   4.814   6.845   7.723 -0.5231 -0.3101  0.0515
   15bbb     H7  417   4.827   6.743   7.683 -2.1793 -1.7112  2.7654
   15bbb     H8  418   4.789   6.908   7.638  1.4072  0.6965  0.1805
   15bbb     C5  419   5.249   7.051   7.613  0.0811 -0.0236  0.3890
   15bbb     H9  420   5.202   7.055   7.514 -1.9778 -1.2938  1.2395
   15bbb    H10  421   5.329   6.977   7.610 -0.3185 -0.6135  2.5328
   15bbb     C6  422   5.220   6.713   7.730  0.5173 -0.5902 -0.1691
   15bbb    H11  423   5.173   6.675   7.821  0.5681 -0.2533  0.0006
   15bbb    H12  424   5.288   6.792   7.763  0.2217 -0.6791  0.6819
   15bbb     C7  425   4.701   6.839   7.825 -0.2906 -0.3499  0.5750
   15bbb    H13  426   4.607   6.831   7.770  0.8764  0.6781 -1.7144
   15bbb    H14  427   4.703   6.932   7.884  1.1024 -0.8385  1.3379
   15bbb     C8  428   5.296   6.601   7.660  0.1953 -0.5174 -0.7083
   15bbb    H15  429   5.352   6.549   7.739  0.6476 -0.9971 -1.3296
   15bbb    H16  430   5.370   6.641   7.589  1.9026 -1.7815  0.2822
   15bbb     C9  431   5.313   7.188   7.645  0.4800 -0.2145 -0.4225
   15bbb    H17  432   5.219   7.241   7.666 -0.3937 -2.2121  1.0238
   15bbb    H18  433   5.357   7.239   7.559 -2.2370  0.2095 -1.6808
   15bbb     O1  434   4.723   6.725   7.907  0.0820 -0.1438 -0.0730
   16bbb     N1  435   3.838   6.731   8.656 -0.2322  0.5650 -0.1492
   16bbb     C1  436   3.730   6.714   8.760 -0.1126 -0.3030  0.5680
   16bbb     H1  437   3.636   6.746   8.713  1.0685 -0.0419 -1.7527
   16bbb     H2  438   3.757   6.779   8.845  3.1591 -0.6614 -0.0925
   16bbb     C2  439   3.852   6.871   8.604 -0.4089  0.5249 -0.3421
   16bbb     H3  440   3.911   6.861   8.512 -1.0135 -2.4356 -0.5306
   16bbb     H4  441   3.899   6.937   8.678 -2.5356  1.1346  0.5235
   16bbb     C3  442   3.969   6.671   8.688  0.1624 -0.6999  0.9326
   16bbb     H5  443   3.976   6.606   8.777  2.8092 -0.6947  0.8155
   16bbb     H6  444   4.043   6.751   8.698  0.5999 -0.6335 -1.9096
   16bbb     C4  445   4.014   6.578   8.573 -0.1186 -0.1965 -0.2913
   16bbb     H7  446   3.999   6.629   8.477 -1.0609  0.3106  0.1127
   16bbb     H8  447   3.947   6.493   8.586  1.3869 -1.1862  1.3281
   16bbb     C5  448   3.711   6.578   8.808 -0.2753 -0.3226 -0.7670
   16bbb     H9  449   3.801   6.556   8.867  0.0610  2.5122 -0.0845
   16bbb    H10  450   3.703   6.508   8.723 -2.9294 -0.9344 -0.0897
   16bbb     C6  451   3.724   6.924   8.550  0.7199 -0.1047 -0.0812
   16bbb    H11  452   3.659   6.939   8.637  0.0935 -1.6055 -0.2657
   16bbb    H12  453   3.676   6.837   8.504  1.8203 -2.0622  2.2480
   16bbb     C7  454   4.158   6.554   8.603 -0.5381  0.4793 -0.4473
   16bbb    H13  455   4.176   6.499   8.696  0.2227  0.9981 -0.2811
   16bbb    H14  456   4.219   6.645   8.605 -0.4692  0.5071  3.1540
   16bbb     C8  457   3.739   7.055   8.468  0.4483 -0.3189 -0.5559
   16bbb    H15  458   3.785   7.040   8.369  3.3444  1.4923  0.3750
   16bbb    H16  459   3.797   7.135   8.516 -2.3059  3.2531 -2.6690
   16bbb     C9  460   3.591   6.545   8.897 -1.1486  0.5662  0.0707
   16bbb    H17  461   3.588   6.438   8.919 -2.4914  1.1232  3.2624
   16bbb    H18  462   3.493   6.557   8.848 -1.5219 -1.8568  0.0868
   16bbb     O1  463   4.205   6.479   8.494  0.1961 -0.2191  0.1021
   17bbb     N1  464   4.794   4.811   6.673  0.2545  0.1290 -0.0198
   17bbb     C1  465   4.897   4.703   6.714  0.7747  0.5285 -0.1805
   17bbb     H1  466   4.852   4.622   6.772  1.7607  1.0979  1.4400
   17bbb     H2  467   4.964   4.748   6.788  0.6360 -1.6228  1.3111
   17bbb     C2  468   4.675   4.777   6.584  0.1534 -0.2424 -0.4647
   17bbb     H3  469   4.636   4.678   6.611  0.8715  0.1971  2.5431
   17bbb     H4  470   4.704   4.770   6.478 -1.0158 -0.5535 -0.7756
   17bbb     C3  471   4.848   4.946   6.656  0.4208 -0.0074 -0.3289
   17bbb     H5  472   4.776   5.016   6.611 -1.3971 -0.5090  1.6059
   17bbb     H6  473   4.934   4.935   6.590  1.5437 -2.2623  1.3880
   17bbb     C4  474   4.896   5.018   6.783  0.0669 -0.0405 -0.4325
   17bbb     H7  475   4.951   5.103   6.739 -0.4230  0.4856 -0.0478
   17bbb     H8  476   4.971   4.962   6.839  0.6970  0.1261 -1.0987
   17bbb     C5  477   4.979   4.652   6.598  0.4579 -0.2151  0.5284
   17bbb     H9  478   5.016   4.736   6.537 -1.4498  2.4367  2.7596
   17bbb    H10  479   4.909   4.610   6.524 -0.1831  0.7925  0.5322
   17bbb     C6  480   4.555   4.874   6.600  0.0718  0.4100 -0.1244
   17bbb    H11  481   4.471   4.829   6.544 -0.0930  1.1744 -0.5109
   17bbb    H12  482   4.571   4.971   6.551 -3.0475  1.6113  1.0049
   17bbb     C7  483   4.799   5.072   6.887  0.3154  1.1038 -0.4315
   17bbb    H13  484   4.861   5.116   6.966  0.9897  0.7945 -0.7776
   17bbb    H14  485   4.750   4.984   6.932  1.2178  1.0736  0.5324
   17bbb     C8  486   4.495   4.902   6.742  0.2458  0.7690  0.0311
   17bbb    H15  487   4.555   4.985   6.781  1.7124  0.2220 -1.0003
   17bbb    H16  488   4.510   4.815   6.807 -3.2780 -0.7071 -0.8834
   17bbb     C9  489   5.083   4.549   6.646 -0.1898 -0.7158  0.9840
   17bbb    H17  490   5.134   4.504   6.560  2.8605 -1.4937  3.0299
   17bbb    H18  491   5.036   4.457   6.682 -0.6630 -0.7029  0.4240
   17bbb     O1  492   4.708   5.165   6.826  0.0340  0.2772 -0.3023
   18bbb     N1  493   3.907   5.214   5.913 -0.1284  0.2623 -0.2176
   18bbb     C1  494   3.823   5.125   5.832  0.5027 -0.3400 -0.2760
   18bbb     H1  495   3.735   5.108   5.895  0.4423 -0.7475 -0.4687
   18bbb     H2  496   3.880   5.035   5.807  0.2818 -0.2458 -1.1493
   18bbb     C2  497   3.839   5.339   5.946 -0.5582  0.0245  0.1226
   18bbb     H3  498   3.807   5.394   5.856 -1.9388 -0.6220  0.1857
   18bbb     H4  499   3.910   5.411   5.988 -0.9372 -0.9274  2.5299
   18bbb     C3  500   3.973   5.129   6.018  0.2530 -0.6034 -0.3943
   18bbb     H5  501   4.026   5.050   5.962 -0.6911 -0.8734 -0.9293
   18bbb     H6  502   3.894   5.093   6.084  0.2324  0.9564  0.4651
   18bbb     C4  503   4.078   5.213   6.109  0.0714  0.0948 -0.0735
   18bbb     H7  504   4.017   5.283   6.166 -1.8136 -0.6323 -1.1057
   18bbb     H8  505   4.150   5.270   6.048  1.5874 -0.0928  1.4701
   18bbb     C5  506   3.769   5.189   5.698  0.1157  0.4576 -1.2513
   18bbb     H9  507   3.837   5.245   5.634 -0.8557  2.1759 -0.8483
   18bbb    H10  508   3.694   5.265   5.724 -1.3348 -0.5025 -2.3769
   18bbb     C6  509   3.712   5.323   6.040 -0.1947 -0.0801 -0.2574
   18bbb    H11  510   3.731   5.242   6.112 -2.1957  1.0835  1.7287
   18bbb    H12  511   3.624   5.295   5.980  0.2054 -0.0876 -0.8484
   18bbb     C7  512   4.149   5.119   6.203  0.2185  1.1737 -0.5535
   18bbb    H13  513   4.212   5.044   6.154  0.3228  1.4106 -0.7848
   18bbb    H14  514   4.067   5.075   6.261  0.6010  0.9671 -0.1659
   18bbb     C8  515   3.696   5.448   6.131 -0.2407  0.4049  0.2951
   18bbb    H15  516   3.780   5.463   6.200  0.3203  1.5832 -0.5937
   18bbb    H16  517   3.618   5.420   6.202  0.3186 -0.4875  0.5684
   18bbb     C9  518   3.697   5.078   5.613  0.2188  0.4368  0.2443
   18bbb    H17  519   3.609   5.128   5.570 -0.5083  0.8429  2.1038
   18bbb    H18  520   3.646   5.013   5.684  1.5262 -2.0473 -0.9723
   18bbb     O1  521   4.233   5.209   6.288 -0.5251  0.6327  0.3213
   19bbb     N1  522   6.627   5.287   9.060  0.1415  0.1851  0.0184
   19bbb     C1  523   6.578   5.180   8.964 -0.1829  0.2298 -0.1468
   19bbb     H1  524   6.602   5.202   8.859 -1.0795  0.2242 -0.3666
   19bbb     H2  525   6.469   5.169   8.966 -0.3192  1.4959  1.0084
   19bbb     C2  526   6.768   5.334   9.012 -0.0941 -0.7277  0.2776
   19bbb     H3  527   6.750   5.430   8.964  0.4980 -0.2027  1.0672
   19bbb     H4  528   6.810   5.263   8.939 -0.4823 -1.0701  0.3837
   19bbb     C3  529   6.526   5.402   9.059  0.1736 -0.5102 -0.1672
   19bbb     H5  530   6.423   5.367   9.070  0.0445 -0.8321 -2.1044
   19bbb     H6  531   6.533   5.455   8.963  1.8434 -0.6574 -0.1650
   19bbb     C4  532   6.543   5.518   9.166  0.3247  0.6402  0.4424
   19bbb     H7  533   6.642   5.564   9.173 -0.5234  2.8723 -0.9853
   19bbb     H8  534   6.513   5.475   9.263  1.1161 -1.4778 -0.1876
   19bbb     C5  535   6.642   5.039   8.992  0.2722 -0.1790  0.8134
   19bbb     H9  536   6.750   5.044   8.973  0.4578 -2.3558  1.0980
   19bbb    H10  537   6.594   4.968   8.924 -0.6598  0.2214  1.0304
   19bbb     C6  538   6.862   5.353   9.132 -0.2151 -0.3833  0.4118
   19bbb    H11  539   6.878   5.251   9.168 -0.3327 -0.4109  0.3889
   19bbb    H12  540   6.805   5.410   9.206 -0.8110 -0.9585  0.4176
   19bbb     C7  541   6.444   5.632   9.130 -0.6545 -0.3349 -0.0064
   19bbb    H13  542   6.431   5.643   9.022  0.0650  1.9489  0.0906
   19bbb    H14  543   6.488   5.727   9.163  1.6538 -1.9587  2.0293
   19bbb     C8  544   7.007   5.406   9.096  0.0266 -0.4025 -0.1417
   19bbb    H15  545   6.998   5.509   9.059  0.2227 -0.9389 -1.7535
   19bbb    H16  546   7.061   5.351   9.018  3.6475  1.6851  0.6582
   19bbb     C9  547   6.610   4.989   9.138 -0.6801 -0.3383  0.1503
   19bbb    H17  548   6.512   5.029   9.168 -1.1124  0.2505 -1.9267
   19bbb    H18  549   6.677   5.039   9.209 -0.2680 -2.2888  1.2049
   19bbb     O1  550   6.318   5.610   9.194 -0.4418 -0.2290 -0.1820
   20bbb     N1  551   5.518   5.197   9.944 -0.4949 -0.7320  0.6258
   20bbb     C1  552   5.532   5.106  10.056 -0.2009 -0.2288 -0.0513
   20bbb     H1  553   5.469   5.143  10.138 -0.3158  0.2253 -0.3424
   20bbb     H2  554   5.629   5.096  10.108  0.3166  0.8964 -0.7705
   20bbb     C2  555   5.543   5.338   9.981  0.1768 -0.3047 -0.0702
   20bbb     H3  556   5.556   5.400   9.891  2.0030  1.5674  1.3838
   20bbb     H4  557   5.637   5.345  10.037  0.6725 -2.5562 -0.5196
   20bbb     C3  558   5.598   5.159   9.823 -0.3342  0.2163  0.4816
   20bbb     H5  559   5.570   5.220   9.736  0.3387  0.1988  0.2508
   20bbb     H6  560   5.573   5.058   9.788  3.0485 -0.0100 -1.6818
   20bbb     C4  561   5.752   5.162   9.828 -0.2686  0.1133  0.1974
   20bbb     H7  562   5.782   5.089   9.904 -0.8502 -1.4538 -1.0402
   20bbb     H8  563   5.789   5.261   9.859 -1.2421  0.3191  0.7513
   20bbb     C5  564   5.479   4.959  10.039  0.8933  0.3657  0.2951
   20bbb     H9  565   5.550   4.909   9.973  1.1644  3.0905 -1.6079
   20bbb    H10  566   5.384   4.966   9.984  0.8751 -1.6527  0.0038
   20bbb     C6  567   5.419   5.405  10.054 -0.8231  0.3923  0.4324
   20bbb    H11  568   5.399   5.351  10.147 -0.4673 -0.5643 -0.0346
   20bbb    H12  569   5.330   5.411   9.990 -1.5500  0.3688  1.4330
   20bbb     C7  570   5.817   5.124   9.693 -0.2866 -0.2953 -0.6799
   20bbb    H13  571   5.803   5.015   9.685 -2.1622 -0.3254  1.6609
   20bbb    H14  572   5.925   5.128   9.715 -0.2101 -0.8462 -0.9487
   20bbb     C8  573   5.446   5.554  10.085 -0.0064  0.2443  0.4603
   20bbb    H15  574   5.443   5.606   9.989 -0.5276 -0.0676  0.3069
   20bbb    H16  575   5.546   5.568  10.130  0.9432  1.4541 -1.8502
   20bbb     C9  576   5.462   4.882  10.170  0.1252 -0.9517  0.2577
   20bbb    H17  577   5.389   4.933  10.234  0.2662 -0.2242 -0.1500
   20bbb    H18  578   5.554   4.884  10.230 -0.4588  0.0802  1.1532
   20bbb     O1  579   5.781   5.212   9.582  0.4292 -0.7379  0.8344
   21bbb     N1  580   4.970   7.251   8.204  0.5284  0.4602 -0.0363
   21bbb     C1  581   5.012   7.365   8.129 -0.2583 -0.1128 -0.0733
   21bbb     H1  582   5.022   7.353   8.021 -1.7372 -0.4189 -0.1911
   21bbb     H2  583   5.106   7.403   8.172 -0.5768 -0.2151  0.7449
   21bbb     C2  584   4.843   7.191   8.163  0.4760  0.2243 -0.5310
   21bbb     H3  585   4.859   7.144   8.065 -0.3454 -0.4428 -0.3531
   21bbb     H4  586   4.765   7.266   8.152 -0.2937 -0.6098 -0.8640
   21bbb     C3  587   5.078   7.149   8.220  0.1060  0.5722  0.2597
   21bbb     H5  588   5.048   7.079   8.299 -0.0762  1.5335  1.0742
   21bbb     H6  589   5.167   7.187   8.272 -0.6842  0.3754  1.8481
   21bbb     C4  590   5.124   7.073   8.094  0.8293 -0.4290  0.1667
   21bbb     H7  591   5.174   7.130   8.015  1.1877 -2.4991 -1.1968
   21bbb     H8  592   5.038   7.025   8.045 -0.7591  1.0872  1.3637
   21bbb     C5  593   4.921   7.488   8.151 -0.9792 -0.0675  0.0678
   21bbb     H9  594   4.906   7.501   8.259 -1.9423 -0.2604 -0.0332
   21bbb    H10  595   4.824   7.462   8.107 -0.4401 -0.0577 -1.1666
   21bbb     C6  596   4.792   7.087   8.255 -0.6022 -0.4350 -0.5075
   21bbb    H11  597   4.783   7.135   8.354  0.2797  1.2258 -1.1956
   21bbb    H12  598   4.855   6.998   8.257 -1.2633 -0.9792 -2.4354
   21bbb     C7  599   5.203   6.945   8.132  0.1285 -0.4159 -0.8721
   21bbb    H13  600   5.278   6.964   8.210  1.3722 -1.1158 -1.8418
   21bbb    H14  601   5.246   6.918   8.035 -0.1109  0.1284 -1.1327
   21bbb     C8  602   4.658   7.026   8.209  0.3232  0.2146  0.1470
   21bbb    H15  603   4.645   6.943   8.279 -1.3542 -0.1190 -0.5073
   21bbb    H16  604   4.671   7.006   8.102 -0.9734  3.5601 -0.7812
   21bbb     C9  605   4.973   7.620   8.090  0.2367 -0.0435 -0.3763
   21bbb    H17  606   4.999   7.614   7.983 -0.2889  0.1718 -0.5193
   21bbb    H18  607   5.069   7.632   8.141 -0.3006 -1.7774  1.1260
   21bbb     O1  608   5.105   6.844   8.173  0.0614 -0.2855  0.2042
   22bbb     N1  609   4.273   6.721   9.051  0.2263  0.1080  0.5705
   22bbb     C1  610   4.393   6.698   9.142 -0.6782  0.0171  0.4205
   22bbb     H1  611   4.415   6.794   9.190 -1.0793  1.2317 -1.6805
   22bbb     H2  612   4.481   6.659   9.090 -0.0748  1.4865  0.2849
   22bbb     C2  613   4.159   6.771   9.131  0.0924  0.5159  0.0218
   22bbb     H3  614   4.189   6.869   9.170  0.9148  0.5132 -0.5760
   22bbb     H4  615   4.148   6.702   9.216 -0.7935  1.2966  0.5604
   22bbb     C3  616   4.299   6.808   8.939  0.6322 -0.2075 -0.2330
   22bbb     H5  617   4.334   6.902   8.983 -1.3590  1.0523 -1.2148
   22bbb     H6  618   4.207   6.834   8.885 -0.4199  2.9798  2.7426
   22bbb     C4  619   4.403   6.753   8.836 -0.6566 -0.5959 -0.3088
   22bbb     H7  620   4.354   6.668   8.786 -1.1132 -1.4350  1.4921
   22bbb     H8  621   4.493   6.712   8.884 -1.4059  2.4377  4.3956
   22bbb     C5  622   4.368   6.599   9.262 -0.6673 -0.2713  0.3017
   22bbb     H9  623   4.319   6.509   9.223  0.9686 -0.9145 -0.3465
   22bbb    H10  624   4.297   6.634   9.338 -0.4265 -1.1922  0.9675
   22bbb     C6  625   4.023   6.778   9.057 -0.0533 -0.1054 -0.9309
   22bbb    H11  626   4.008   6.686   8.998  2.0674 -0.1385 -1.5037
   22bbb    H12  627   4.020   6.852   8.975  0.5845  1.1382  0.1332
   22bbb     C7  628   4.432   6.864   8.726  0.3802  0.6783 -0.4704
   22bbb    H13  629   4.500   6.941   8.764  1.3360 -0.9433  1.3013
   22bbb    H14  630   4.342   6.911   8.683  0.7248 -0.0491 -2.0686
   22bbb     C8  631   3.909   6.800   9.157  0.3966 -0.1519  0.3929
   22bbb    H15  632   3.908   6.721   9.233 -1.4979  0.4398  1.0531
   22bbb    H16  633   3.816   6.801   9.098  1.1642  0.2510 -0.8547
   22bbb     C9  634   4.498   6.566   9.335 -0.0545  0.3576 -0.0537
   22bbb    H17  635   4.539   6.649   9.395  3.2231  0.8425 -2.6913
   22bbb    H18  636   4.583   6.530   9.276  1.0837  0.7348  1.3064
   22bbb     O1  637   4.488   6.789   8.609 -0.2073 -0.3955 -0.5282
   23bbb     N1  638   6.601   4.540   7.133  0.6767  0.5031 -0.1513
   23bbb     C1  639   6.690   4.562   7.252 -0.3261  0.6818  0.1603
   23bbb     H1  640   6.793   4.545   7.218 -0.5090 -0.2151  0.0273
   23bbb     H2  641   6.675   4.496   7.338 -0.6304 -0.0167 -0.4271
   23bbb     C2  642   6.637   4.416   7.062 -0.6853 -0.0242  0.5729
   23bbb     H3  643   6.745   4.400   7.053 -0.7376 -1.3179  1.9369
   23bbb     H4  644   6.595   4.419   6.960 -1.1261 -0.0946  0.7492
   23bbb     C3  645   6.460   4.577   7.146 -0.2934 -0.0919  0.0121
   23bbb     H5  646   6.459   4.684   7.168 -0.1081  0.3650 -2.0182
   23bbb     H6  647   6.410   4.518   7.224 -1.6918  0.5075 -0.4014
   23bbb     C4  648   6.374   4.558   7.015 -0.5201 -0.0576  0.5481
   23bbb     H7  649   6.366   4.452   6.989 -2.3568  0.4408 -1.2274
   23bbb     H8  650   6.417   4.610   6.929 -1.7661  0.7117  0.3494
   23bbb     C5  651   6.684   4.708   7.296 -0.1288  1.2376 -0.6068
   23bbb     H9  652   6.583   4.710   7.340  0.5782  1.5578  1.0665
   23bbb    H10  653   6.687   4.779   7.212 -0.2341  3.2424  1.0068
   23bbb     C6  654   6.597   4.285   7.121  0.0496  0.4413 -0.6317
   23bbb    H11  655   6.490   4.283   7.146  0.1234 -3.0967 -0.1143
   23bbb    H12  656   6.649   4.266   7.215 -0.9331 -1.5440 -0.4493
   23bbb     C7  657   6.224   4.578   7.028 -0.3133  0.0873  0.5988
   23bbb    H13  658   6.193   4.492   7.089  2.7929 -0.8985  0.9650
   23bbb    H14  659   6.175   4.555   6.933 -0.1474 -2.4492  1.0510
   23bbb     C8  660   6.615   4.171   7.018 -0.0154  0.3425 -0.4660
   23bbb    H15  661   6.566   4.209   6.928 -0.1493 -1.0524 -1.0162
   23bbb    H16  662   6.567   4.079   7.055  2.2658 -1.2910 -1.3462
   23bbb     C9  663   6.800   4.741   7.399 -0.1532 -0.7447  0.3758
   23bbb    H17  664   6.796   4.850   7.411 -2.9676 -0.8573  1.1009
   23bbb    H18  665   6.899   4.719   7.359  0.2031 -1.3044  1.5242
   23bbb     O1  666   6.199   4.711   7.078  0.4689  0.2239 -0.9338
   24bbb     N1  667   5.838   5.803   6.828  0.1347  0.0996 -0.2392
   24bbb     C1  668   5.746   5.917   6.807 -0.0426  0.3252  0.0927
   24bbb     H1  669   5.747   5.941   6.700 -3.2759 -0.6858 -0.2862
   24bbb     H2  670   5.769   6.000   6.875  1.1463 -0.1444  0.2941
   24bbb     C2  671   5.980   5.844   6.805  0.9249 -0.4443  0.7071
   24bbb     H3  672   5.994   5.875   6.701 -0.4230  0.2951  0.7247
   24bbb     H4  673   6.040   5.755   6.828  0.0770 -0.7439  1.8996
   24bbb     C3  674   5.804   5.688   6.747 -0.2623  0.8333  0.3016
   24bbb     H5  675   5.893   5.642   6.702 -0.7765  0.2439 -0.1350
   24bbb     H6  676   5.739   5.712   6.662 -0.2076 -0.3792 -0.0991
   24bbb     C4  677   5.740   5.577   6.835 -0.2513  0.0783 -0.7200
   24bbb     H7  678   5.635   5.605   6.851 -0.7092 -0.3492 -2.6822
   24bbb     H8  679   5.789   5.571   6.933 -0.0400  2.6603 -0.5923
   24bbb     C5  680   5.590   5.893   6.826 -0.4900  0.2067  0.2815
   24bbb     H9  681   5.556   5.801   6.777 -0.4137  0.6248 -0.5837
   24bbb    H10  682   5.536   5.974   6.776 -1.4617 -0.3032  0.4788
   24bbb     C6  683   6.025   5.957   6.899 -0.4015 -0.2761 -0.0831
   24bbb    H11  684   6.131   5.938   6.919 -0.2861 -0.5953 -0.9786
   24bbb    H12  685   5.981   5.928   6.995 -1.1201  1.2564  0.0840
   24bbb     C7  686   5.739   5.442   6.761  0.5281 -0.1559 -0.8241
   24bbb    H13  687   5.833   5.420   6.710  0.9948 -2.1109  0.7297
   24bbb    H14  688   5.657   5.454   6.689 -0.1685 -0.2966 -0.0823
   24bbb     C8  689   6.012   6.103   6.856  0.2234  0.1862  0.0229
   24bbb    H15  690   6.071   6.167   6.923 -0.2841  0.5346  0.1453
   24bbb    H16  691   5.910   6.141   6.851 -0.3104 -0.9340  1.7077
   24bbb     C9  692   5.555   5.875   6.978  0.1016  0.2465  0.2043
   24bbb    H17  693   5.606   5.790   7.024 -0.9963 -0.8103 -0.4678
   24bbb    H18  694   5.449   5.863   7.002 -0.1190  0.9100 -0.3805
   24bbb     O1  695   5.707   5.332   6.858  0.1345  0.0734  0.3529
   25bbb     N1  696   4.057   4.252   7.104  0.4720  0.1377  0.6614
   25bbb     C1  697   4.097   4.120   7.141  0.1022  0.7718  1.1765
   25bbb     H1  698   4.036   4.037   7.102  1.1227  0.7662 -0.5178
   25bbb     H2  699   4.090   4.111   7.250 -0.9177  0.1379  1.0658
   25bbb     C2  700   4.062   4.277   6.958  0.4956  0.2100 -0.2020
   25bbb     H3  701   4.159   4.268   6.908 -0.3180 -2.1612 -1.5624
   25bbb     H4  702   4.022   4.379   6.950 -3.0438 -0.9231  0.9013
   25bbb     C3  703   4.146   4.352   7.170 -0.0259 -0.2073  0.5296
   25bbb     H5  704   4.237   4.364   7.112 -1.3451 -0.5119 -1.7158
   25bbb     H6  705   4.165   4.311   7.270 -0.3285  0.1674  0.7456
   25bbb     C4  706   4.070   4.491   7.186 -0.2670 -1.3002  0.2924
   25bbb     H7  707   3.975   4.481   7.241 -0.8149 -2.3398 -0.7751
   25bbb     H8  708   4.046   4.540   7.091  0.5956 -3.1800 -0.9615
   25bbb     C5  709   4.243   4.081   7.087  0.4657 -0.4895  0.7629
   25bbb     H9  710   4.310   4.163   7.114 -0.0439 -0.1426  1.0056
   25bbb    H10  711   4.251   4.074   6.978  1.3409  0.3675  0.7627
   25bbb     C6  712   3.965   4.181   6.884 -0.2782  0.0505  0.0524
   25bbb    H11  713   3.875   4.167   6.945 -0.9180 -0.9193 -1.0710
   25bbb    H12  714   4.004   4.081   6.862 -0.9467 -0.4022  0.8689
   25bbb     C7  715   4.161   4.592   7.268  0.2255  0.0419  0.0131
   25bbb    H13  716   4.259   4.600   7.219 -1.1927  0.4533 -3.0391
   25bbb    H14  717   4.168   4.555   7.371 -0.3400  0.7170  0.3058
   25bbb     C8  718   3.914   4.237   6.745  0.8197 -0.3489  0.2678
   25bbb    H15  719   3.876   4.162   6.675 -1.7887  2.0721 -1.1490
   25bbb    H16  720   4.000   4.280   6.691  0.6969 -2.7132 -1.9924
   25bbb     C9  721   4.299   3.956   7.157  0.1309  0.6446  0.0342
   25bbb    H17  722   4.232   3.873   7.129 -1.0044  1.7665 -0.7530
   25bbb    H18  723   4.280   3.959   7.265 -0.2423  2.5431 -0.0442
   25bbb     O1  724   4.097   4.720   7.262 -0.3687  0.2476 -0.3093
   26bbb     N1  725   3.493   5.449   6.713 -0.6379 -0.7998 -0.1819
   26bbb     C1  726   3.453   5.459   6.565  0.2782 -0.3068 -0.1718
   26bbb     H1  727   3.410   5.362   6.537  0.3539 -0.2618 -0.4466
   26bbb     H2  728   3.537   5.474   6.497  0.6611 -2.3482 -0.2044
   26bbb     C2  729   3.381   5.408   6.808 -0.1260  0.3958  0.2945
   26bbb     H3  730   3.292   5.472   6.807 -2.2666 -2.3866  1.0667
   26bbb     H4  731   3.432   5.404   6.905  1.1869 -0.9972 -0.4130
   26bbb     C3  732   3.586   5.556   6.763  0.2204 -0.4410  0.1279
   26bbb     H5  733   3.529   5.649   6.775 -0.0139 -0.8019  2.2124
   26bbb     H6  734   3.665   5.566   6.688 -0.0344 -1.4909 -0.3010
   26bbb     C4  735   3.653   5.525   6.899  0.7815 -0.9637 -0.2881
   26bbb     H7  736   3.581   5.535   6.981  1.2603  0.6306 -0.0405
   26bbb     H8  737   3.729   5.601   6.921 -1.7238  1.9352 -1.0280
   26bbb     C5  738   3.344   5.572   6.541 -0.2067  0.1773  0.3530
   26bbb     H9  739   3.392   5.664   6.577 -0.9738  0.4284  0.7430
   26bbb    H10  740   3.259   5.559   6.609 -1.6732 -0.5346 -1.5157
   26bbb     C6  741   3.340   5.264   6.785 -0.6735  0.2934 -0.9119
   26bbb    H11  742   3.301   5.254   6.683 -0.6955 -0.5174 -0.8380
   26bbb    H12  743   3.262   5.235   6.857 -0.7439  3.2857  0.3474
   26bbb     C7  744   3.715   5.384   6.917 -0.5874  0.0561  0.1748
   26bbb    H13  745   3.818   5.398   6.883 -0.0987 -0.7199  1.2632
   26bbb    H14  746   3.670   5.305   6.856  1.5744 -0.5582 -0.7214
   26bbb     C8  747   3.455   5.164   6.791  1.0813 -0.1283 -0.1896
   26bbb    H15  748   3.504   5.167   6.889  0.0949 -0.0407  0.3128
   26bbb    H16  749   3.523   5.190   6.709  1.3539  1.3798  0.4875
   26bbb     C9  750   3.291   5.576   6.394  0.7897  0.3723  0.0858
   26bbb    H17  751   3.362   5.613   6.318  0.8720 -1.4945 -0.7928
   26bbb    H18  752   3.205   5.645   6.385 -0.6754 -1.5499 -1.9556
   26bbb     O1  753   3.726   5.343   7.049 -0.2679 -0.1523 -0.6237
   27bbb     N1  754   5.606   4.796   9.546  0.4790  0.1385  0.4585
   27bbb     C1  755   5.740   4.761   9.479  0.2120 -0.5636 -1.0216
   27bbb     H1  756   5.770   4.660   9.510 -0.1670 -0.6324 -0.8760
   27bbb     H2  757   5.816   4.831   9.515 -1.5594  1.1243 -0.3602
   27bbb     C2  758   5.610   4.766   9.691 -0.2498 -0.0606  0.0192
   27bbb     H3  759   5.523   4.819   9.732  0.0755  0.7105 -0.2834
   27bbb     H4  760   5.702   4.796   9.742 -0.2306 -1.8678  1.1895
   27bbb     C3  761   5.551   4.930   9.511 -0.0819  0.4268 -0.4423
   27bbb     H5  762   5.547   4.940   9.402 -1.5341  2.6687 -0.2481
   27bbb     H6  763   5.612   5.015   9.543  0.3562 -0.4426  1.0964
   27bbb     C4  764   5.397   4.945   9.536  0.2181  0.4647  0.6579
   27bbb     H7  765   5.361   5.032   9.479 -1.5478 -0.8161 -0.2844
   27bbb     H8  766   5.382   4.977   9.640  0.0751  0.9794  0.4835
   27bbb     C5  767   5.745   4.780   9.324  0.3520  0.3545 -0.5121
   27bbb     H9  768   5.733   4.883   9.289 -1.1790  0.2098 -0.4662
   27bbb    H10  769   5.656   4.731   9.282 -2.2818  1.8388  2.8472
   27bbb     C6  770   5.597   4.618   9.736 -0.8646  0.9803  0.4529
   27bbb    H11  771   5.599   4.612   9.845 -0.6239  1.2116  0.4621
   27bbb    H12  772   5.693   4.569   9.718 -1.5578 -0.2027 -0.1304
   27bbb     C7  773   5.309   4.818   9.503  0.7570  0.0833 -0.3590
   27bbb    H13  774   5.202   4.839   9.509  1.1046  1.8178  0.5739
   27bbb    H14  775   5.334   4.742   9.579 -1.8985 -0.3424  0.1707
   27bbb     C8  776   5.478   4.533   9.692 -0.0738 -0.2417  0.3245
   27bbb    H15  777   5.473   4.542   9.583  0.9660 -1.8147  0.1131
   27bbb    H16  778   5.396   4.584   9.745  0.2406 -0.9630  1.5546
   27bbb     C9  779   5.873   4.723   9.261 -0.2812 -0.4483  0.0879
   27bbb    H17  780   5.860   4.709   9.153 -0.3691  1.4111 -0.1671
   27bbb    H18  781   5.893   4.620   9.293  2.0594  0.3889  1.5247
   27bbb     O1  782   5.336   4.760   9.374  0.4361  0.1162  0.4715
   28bbb     N1  783   5.941   4.221   9.440 -0.2015 -0.4867  0.3919
   28bbb     C1  784   6.028   4.302   9.346  0.7596 -0.1453 -0.6259
   28bbb     H1  785   5.968   4.352   9.269  1.9409 -0.7187 -1.9448
   28bbb     H2  786   6.092   4.229   9.296  4.0897  1.8441  0.4584
   28bbb     C2  787   6.010   4.117   9.521  0.7862 -0.2530  0.6616
   28bbb     H3  788   5.935   4.041   9.545  0.9414 -1.0885 -1.3112
   28bbb     H4  789   6.053   4.163   9.611  0.5977  0.9625  0.1600
   28bbb     C3  790   5.833   4.295   9.521 -0.5393 -0.4164  0.1688
   28bbb     H5  791   5.885   4.374   9.576 -0.3919  0.4269 -1.1410
   28bbb     H6  792   5.803   4.215   9.591  1.5399 -0.7913  0.6770
   28bbb     C4  793   5.716   4.331   9.435  0.3156 -0.6151 -0.0109
   28bbb     H7  794   5.742   4.390   9.346 -2.6904  1.9419  0.6655
   28bbb     H8  795   5.653   4.402   9.489  0.9632  1.2479 -1.5888
   28bbb     C5  796   6.112   4.409   9.415 -0.1563  0.3769  0.1087
   28bbb     H9  797   6.047   4.492   9.446 -0.8201 -0.4531  0.9939
   28bbb    H10  798   6.174   4.458   9.339 -0.7040  2.6023  0.9988
   28bbb     C6  799   6.113   4.030   9.446  0.0996 -0.0761  0.3237
   28bbb    H11  800   6.188   4.091   9.395 -0.0165 -0.2498 -0.0527
   28bbb    H12  801   6.063   3.959   9.379  1.1640 -0.6887  0.1497
   28bbb     C7  802   5.634   4.215   9.395  0.3863  0.7554  0.0414
   28bbb    H13  803   5.582   4.174   9.482 -2.2792  0.1738 -1.7173
   28bbb    H14  804   5.697   4.137   9.350  1.4549  1.1688  0.7721
   28bbb     C8  805   6.204   3.945   9.547  0.2899 -0.4855 -0.2593
   28bbb    H15  806   6.267   4.010   9.609 -1.2128  1.2316 -0.4142
   28bbb    H16  807   6.265   3.869   9.497 -0.4777 -1.9010  0.9069
   28bbb     C9  808   6.218   4.365   9.525  0.6304 -0.1559 -0.1587
   28bbb    H17  809   6.166   4.343   9.619 -0.0623  0.8968 -0.2872
   28bbb    H18  810   6.278   4.277   9.499  2.4561  0.5417  1.4244
   28bbb     O1  811   5.530   4.263   9.307  0.0619  0.2877  0.4164
   29bbb     N1  812   5.248   3.486   9.700 -0.3001 -0.4371  0.2739
   29bbb     C1  813   5.359   3.450   9.787 -0.2184  0.3404 -0.6557
   29bbb     H1  814   5.436   3.528   9.790  2.1855 -1.9198 -0.3977
   29bbb     H2  815   5.422   3.371   9.744  2.9561  1.1210  2.1651
   29bbb     C2  816   5.154   3.372   9.683  0.5897  0.5426  0.7213
   29bbb     H3  817   5.124   3.337   9.783  1.2716 -0.4699  0.5955
   29bbb     H4  818   5.218   3.294   9.639 -0.7764  0.0868 -0.5257
   29bbb     C3  819   5.290   3.564   9.580  0.8346 -0.6602 -0.2694
   29bbb     H5  820   5.357   3.645   9.612 -0.0568 -0.4647  1.1720
   29bbb     H6  821   5.205   3.607   9.525  0.2347 -0.4519  0.8084
   29bbb     C4  822   5.367   3.474   9.482 -0.4948 -0.4065  0.9434
   29bbb     H7  823   5.306   3.387   9.453  0.9852 -0.1858 -3.7431
   29bbb     H8  824   5.449   3.427   9.538 -3.1008 -3.0679  2.8602
   29bbb     C5  825   5.328   3.427   9.944 -0.0878 -0.3996  1.3583
   29bbb     H9  826   5.427   3.434   9.990  1.2393  0.8392 -1.4498
   29bbb    H10  827   5.268   3.335   9.947 -0.9117  0.0175 -0.6598
   29bbb     C6  828   5.025   3.388   9.604 -0.3364 -0.5475 -0.3866
   29bbb    H11  829   4.971   3.297   9.576 -3.5180  0.8477  0.7868
   29bbb    H12  830   5.035   3.421   9.500  0.0041  0.1983 -0.1258
   29bbb     C7  831   5.425   3.560   9.364  0.1491 -0.0585  0.0319
   29bbb    H13  832   5.443   3.500   9.274 -1.7836 -0.3426 -0.1980
   29bbb    H14  833   5.522   3.603   9.393  0.3971  0.3605 -1.3673
   29bbb     C8  834   4.927   3.492   9.671 -0.5690 -0.1732 -0.1965
   29bbb    H15  835   4.969   3.593   9.675 -0.0786 -0.4014  0.8279
   29bbb    H16  836   4.915   3.460   9.775  1.4683  0.4948  0.2928
   29bbb     C9  837   5.253   3.535  10.017 -0.2071 -0.0271  0.4819
   29bbb    H17  838   5.180   3.561   9.939  2.8202  2.9592 -1.6349
   29bbb    H18  839   5.316   3.624  10.028 -1.8318  1.3657 -0.8942
   29bbb     O1  840   5.331   3.665   9.325  0.0240  0.0309  0.2743
   30bbb     N1  841   5.515   3.740   8.104  0.5114  0.1310  0.0971
   30bbb     C1  842   5.573   3.605   8.143  0.0503 -0.4638 -0.1039
   30bbb     H1  843   5.650   3.622   8.219  1.2383  1.7142 -1.6945
   30bbb     H2  844   5.626   3.564   8.057  1.4171  0.2796  0.3496
   30bbb     C2  845   5.430   3.726   7.985  0.6416  0.7648  0.4995
   30bbb     H3  846   5.342   3.665   8.013 -0.2160  2.4391  1.6254
   30bbb     H4  847   5.479   3.666   7.907 -0.6059 -0.0186  0.2741
   30bbb     C3  848   5.467   3.813   8.221  0.9433 -0.7182 -0.0644
   30bbb     H5  849   5.379   3.767   8.269 -0.8883 -0.9584 -3.3307
   30bbb     H6  850   5.434   3.912   8.186  1.1557 -0.7466 -0.3490
   30bbb     C4  851   5.583   3.840   8.319 -0.5103 -0.0240  0.3204
   30bbb     H7  852   5.675   3.871   8.268  0.2033  0.0145  1.6171
   30bbb     H8  853   5.599   3.745   8.372 -0.0440 -0.3944 -0.4575
   30bbb     C5  854   5.473   3.505   8.198  0.6123 -0.0116 -0.1081
   30bbb     H9  855   5.392   3.491   8.125  0.1654 -0.4874  0.4660
   30bbb    H10  856   5.421   3.561   8.277  1.0584 -0.1135  0.2564
   30bbb     C6  857   5.386   3.861   7.933  0.2619 -0.0877  0.3602
   30bbb    H11  858   5.472   3.921   7.902  0.1447  1.0296  2.0302
   30bbb    H12  859   5.330   3.913   8.012  0.1406  3.5902 -1.9394
   30bbb     C7  860   5.537   3.951   8.415  0.0384  0.0723  1.3499
   30bbb    H13  861   5.449   3.911   8.467 -0.5513  0.5848  0.7635
   30bbb    H14  862   5.513   4.043   8.361 -0.2020 -0.3471  0.7295
   30bbb     C8  863   5.305   3.852   7.809  0.5425  0.1700  0.3636
   30bbb    H15  864   5.365   3.828   7.720 -0.4961 -0.8735 -0.0876
   30bbb    H16  865   5.267   3.954   7.788 -0.0203  0.0610  0.8262
   30bbb     C9  866   5.533   3.376   8.251 -0.2744  0.2263  0.1781
   30bbb    H17  867   5.586   3.400   8.344 -0.4108  0.1103  0.2872
   30bbb    H18  868   5.595   3.332   8.173 -1.3563 -1.4722  0.2182
   30bbb     O1  869   5.634   3.973   8.518 -0.3665  0.0136 -0.0218
   31bbb     N1  870   5.384   6.580   7.219  0.2393  0.8283  0.1542
   31bbb     C1  871   5.419   6.472   7.124 -0.2008  0.1509  0.0470
   31bbb     H1  872   5.456   6.383   7.178 -0.3783  0.1585  0.1828
   31bbb     H2  873   5.493   6.514   7.056 -2.9009  0.7835 -2.7259
   31bbb     C2  874   5.338   6.702   7.155  1.1630 -0.7803  0.2357
   31bbb     H3  875   5.232   6.685   7.135  1.2114 -1.5584  0.5849
   31bbb     H4  876   5.394   6.709   7.061  1.9390 -2.6559  0.5191
   31bbb     C3  877   5.295   6.539   7.333  0.3407 -0.3393 -0.3137
   31bbb     H5  878   5.213   6.492   7.276 -0.2777  0.4255 -0.0699
   31bbb     H6  879   5.254   6.625   7.388  0.5204  0.5486 -1.5158
   31bbb     C4  880   5.359   6.435   7.427 -0.0493 -0.0128  0.0378
   31bbb     H7  881   5.458   6.475   7.455 -0.7504  2.1076 -0.3723
   31bbb     H8  882   5.365   6.345   7.364 -3.3619  0.4090 -1.0689
   31bbb     C5  883   5.306   6.414   7.039 -0.3469  0.5803  0.2381
   31bbb     H9  884   5.247   6.497   6.996 -2.2135 -0.4694  0.6765
   31bbb    H10  885   5.237   6.366   7.109 -1.1178  1.6824  0.2710
   31bbb     C6  886   5.346   6.833   7.237 -0.5869  0.5850  0.7074
   31bbb    H11  887   5.441   6.885   7.224  0.3690 -1.4669 -1.1029
   31bbb    H12  888   5.303   6.819   7.337 -0.8266  0.5683  0.6024
   31bbb     C7  889   5.273   6.393   7.547 -0.7240 -0.1118  0.2182
   31bbb    H13  890   5.335   6.345   7.624  0.5408  0.6937 -0.2644
   31bbb    H14  891   5.193   6.325   7.513 -0.6074  0.2372 -0.7706
   31bbb     C8  892   5.249   6.934   7.171  0.5190 -0.1687 -0.4945
   31bbb    H15  893   5.144   6.905   7.188  0.6111 -0.3621 -0.2458
   31bbb    H16  894   5.273   6.924   7.065  0.4948  1.4989 -0.6745
   31bbb     C9  895   5.351   6.294   6.946  0.5187 -0.2490  0.2264
   31bbb    H17  896   5.258   6.268   6.895 -1.4433  3.1171  1.7293
   31bbb    H18  897   5.397   6.210   6.999  0.0096 -1.0085 -0.5149
   31bbb     O1  898   5.206   6.509   7.598 -0.6215  0.0134 -0.4513
   32bbb     N1  899   5.607   7.003   8.101 -0.3493 -0.2715  0.0386
   32bbb     C1  900   5.586   6.876   8.165 -0.1587  0.5293 -0.5710
   32bbb     H1  901   5.483   6.863   8.201  0.6938  0.9305  2.2475
   32bbb     H2  902   5.644   6.873   8.258  0.9209  1.6732 -1.1808
   32bbb     C2  903   5.610   7.127   8.188  0.4909 -0.9340  0.4640
   32bbb     H3  904   5.677   7.201   8.143 -0.6242 -0.7820 -1.0047
   32bbb     H4  905   5.666   7.108   8.281 -0.4104 -1.0463  0.9988
   32bbb     C3  906   5.531   7.026   7.974 -0.0492  0.1706 -0.1390
   32bbb     H5  907   5.431   7.064   7.998 -0.5090  1.2592 -3.2675
   32bbb     H6  908   5.515   6.928   7.927  0.8327 -0.2909  0.4867
   32bbb     C4  909   5.601   7.107   7.862 -0.6241 -0.6912 -0.4760
   32bbb     H7  910   5.698   7.059   7.844  0.0409  0.2415  0.4816
   32bbb     H8  911   5.616   7.211   7.894 -2.2047 -0.3177 -0.8565
   32bbb     C5  912   5.618   6.741   8.077  0.2382  0.2184 -0.5592
   32bbb     H9  913   5.713   6.762   8.026 -0.1766 -0.0117 -1.4378
   32bbb    H10  914   5.547   6.737   7.994 -1.7129  1.6520  0.9102
   32bbb     C6  915   5.484   7.207   8.230 -0.0518 -0.3512 -0.2392
   32bbb    H11  916   5.424   7.143   8.295 -0.3783 -0.8824 -1.0575
   32bbb    H12  917   5.423   7.224   8.140 -0.1107 -0.8635 -0.2950
   32bbb     C7  918   5.526   7.110   7.731  0.5691 -0.2850 -0.3063
   32bbb    H13  919   5.514   7.005   7.703 -2.6075 -0.8229  2.4287
   32bbb    H14  920   5.588   7.163   7.658 -0.8410  0.4157 -1.0348
   32bbb     C8  921   5.514   7.353   8.294  0.2101 -0.6643 -0.2841
   32bbb    H15  922   5.558   7.351   8.395 -3.1136 -1.9680  1.2707
   32bbb    H16  923   5.422   7.409   8.314  1.3359  0.4698  2.2400
   32bbb     C9  924   5.626   6.621   8.162 -0.0639 -0.4358 -0.1726
   32bbb    H17  925   5.695   6.660   8.239  0.5929  1.6296 -1.6989
   32bbb    H18  926   5.687   6.544   8.113  1.6749  0.5233  0.3608
   32bbb     O1  927   5.402   7.185   7.759 -0.5775  0.1698  0.1813
   33bbb     N1  928   3.329   7.409   8.623  0.1631  0.7119 -0.7796
   33bbb     C1  929   3.195   7.406   8.562  0.0916  0.0276  0.3926
   33bbb     H1  930   3.205   7.415   8.454 -1.3892 -2.5221 -0.0390
   33bbb     H2  931   3.137   7.492   8.599 -0.7539 -0.7766  0.9890
   33bbb     C2  932   3.328   7.458   8.765 -0.3967  0.2349  0.8834
   33bbb     H3  933   3.430   7.451   8.805 -0.0390 -2.6178 -0.2793
   33bbb     H4  934   3.266   7.390   8.824 -1.1669  0.9678  0.9328
   33bbb     C3  935   3.434   7.311   8.589 -0.1685  0.3251 -0.0202
   33bbb     H5  936   3.412   7.207   8.615  3.5567 -1.5009 -3.0797
   33bbb     H6  937   3.528   7.327   8.644 -0.8237  1.2069  0.8766
   33bbb     C4  938   3.456   7.300   8.437  0.1352 -0.2838  0.1008
   33bbb     H7  939   3.450   7.401   8.396  0.9913 -0.7923 -1.3579
   33bbb     H8  940   3.374   7.246   8.388  1.0195  0.2703 -2.1268
   33bbb     C5  941   3.107   7.282   8.592  0.4008 -0.2318 -0.3869
   33bbb     H9  942   3.098   7.260   8.699 -2.7147  1.4262 -0.1905
   33bbb    H10  943   3.160   7.197   8.547  2.2330 -1.0658  2.9816
   33bbb     C6  944   3.289   7.607   8.789  1.0197  0.3054 -0.1262
   33bbb    H11  945   3.192   7.626   8.741  0.3594 -0.0619  1.0272
   33bbb    H12  946   3.368   7.662   8.735  1.9919  1.1152  2.0264
   33bbb     C7  947   3.598   7.243   8.397  0.3483 -0.0968 -0.5722
   33bbb    H13  948   3.680   7.297   8.447  1.7256 -0.9699 -1.8190
   33bbb    H14  949   3.624   7.258   8.292  0.8598  0.1488 -0.4142
   33bbb     C8  950   3.286   7.648   8.937 -0.6755  0.4617  0.2683
   33bbb    H15  951   3.379   7.620   8.988 -0.5966 -0.9217 -0.5799
   33bbb    H16  952   3.210   7.590   8.992  0.2124  1.0329  2.2112
   33bbb     C9  953   2.969   7.282   8.525 -0.5253  0.3999 -0.3581
   33bbb    H17  954   2.902   7.207   8.569 -2.0240  1.6504 -0.4333
   33bbb    H18  955   2.976   7.247   8.422  0.7827 -1.5395  0.3346
   33bbb     O1  956   3.609   7.109   8.446  0.5439  0.1083 -0.3518
   34bbb     N1  957   3.259   6.656   9.288 -0.3011  0.4909 -0.0207
   34bbb     C1  958   3.201   6.755   9.193 -0.5558 -0.1039  0.0315
   34bbb     H1  959   3.107   6.708   9.161 -1.7265  0.0501  2.8576
   34bbb     H2  960   3.262   6.767   9.103  0.4713  0.5076  0.7854
   34bbb     C2  961   3.172   6.638   9.409  0.5959  0.3801  0.8360
   34bbb     H3  962   3.073   6.602   9.376  1.7660 -0.6260 -1.9355
   34bbb     H4  963   3.162   6.731   9.465  0.1556  1.1790 -0.5105
   34bbb     C3  964   3.402   6.677   9.341 -0.1151  0.4975  0.6907
   34bbb     H5  965   3.438   6.586   9.389  0.6080 -0.2382 -1.1847
   34bbb     H6  966   3.406   6.764   9.408 -2.5512  0.6776  0.7123
   34bbb     C4  967   3.507   6.702   9.228 -0.1994 -0.3930 -0.3218
   34bbb     H7  968   3.608   6.712   9.269 -0.0660 -3.1707  0.2204
   34bbb     H8  969   3.483   6.794   9.173 -2.4721 -0.6747  0.0898
   34bbb     C5  970   3.152   6.896   9.243  0.0388  0.2939 -0.3068
   34bbb     H9  971   3.243   6.951   9.271 -0.0312 -0.1212  0.8058
   34bbb    H10  972   3.094   6.889   9.336  0.2923  1.3909 -0.0473
   34bbb     C6  973   3.211   6.526   9.516  0.0092  0.3963  0.1631
   34bbb    H11  974   3.120   6.509   9.575  0.7542 -0.4778  1.0969
   34bbb    H12  975   3.288   6.568   9.582 -1.0176  2.1403  0.2954
   34bbb     C7  976   3.529   6.580   9.134 -0.2674  0.6251  0.4679
   34bbb    H13  977   3.432   6.543   9.100  0.3474 -0.9472  0.3710
   34bbb    H14  978   3.578   6.497   9.187  1.6489  0.4798 -1.3841
   34bbb     C8  979   3.255   6.391   9.456  0.1096  0.3062 -0.0544
   34bbb    H15  980   3.334   6.410   9.383 -1.0311  1.1193 -1.1090
   34bbb    H16  981   3.175   6.340   9.402 -1.2622  0.7481  1.4791
   34bbb     C9  982   3.060   6.979   9.151 -0.8194 -0.8928  0.9068
   34bbb    H17  983   3.107   6.969   9.052  1.4940  3.5078  1.3000
   34bbb    H18  984   3.068   7.085   9.180  0.5709 -1.0871  1.3203
   34bbb     O1  985   3.598   6.627   9.017 -0.1204 -0.4585  0.4822
   35bbb     N1  986   3.993   4.789   6.741 -0.1502  0.0021 -0.3092
   35bbb     C1  987   4.077   4.666   6.719 -0.3804 -0.6256  0.2534
   35bbb     H1  988   4.034   4.574   6.760 -2.0068  0.5870  1.3648
   35bbb     H2  989   4.158   4.673   6.793 -1.7290 -2.4727  2.0199
   35bbb     C2  990   3.929   4.799   6.877 -0.2650  0.3402 -0.1999
   35bbb     H3  991   3.880   4.896   6.896 -2.1432 -0.2393 -1.8092
   35bbb     H4  992   4.007   4.781   6.952  0.2763  1.6256 -0.4297
   35bbb     C3  993   4.067   4.912   6.696 -0.1327  0.1332 -0.2538
   35bbb     H5  994   3.992   4.986   6.663 -2.0554 -1.1404  1.0080
   35bbb     H6  995   4.131   4.893   6.610  0.4855 -2.4034  0.6744
   35bbb     C4  996   4.147   5.000   6.796  0.0601  0.3725 -0.0359
   35bbb     H7  997   4.079   5.038   6.873  0.6345 -0.5616  0.9687
   35bbb     H8  998   4.168   5.094   6.744 -2.6521  0.3363 -1.3239
   35bbb     C5  999   4.130   4.640   6.570 -0.0661  0.2858 -0.3330
   35bbb     H9 1000   4.210   4.713   6.553  1.8296 -1.4753  0.6255
   35bbb    H10 1001   4.050   4.667   6.500  0.1159  1.3696 -0.1429
   35bbb     C6 1002   3.822   4.690   6.904  0.0500  0.1228  0.3530
   35bbb    H11 1003   3.868   4.591   6.903 -1.5217 -0.6536 -0.9220
   35bbb    H12 1004   3.741   4.699   6.831 -0.1379 -0.1505  0.5275
   35bbb     C7 1005   4.278   4.937   6.848 -0.2866 -0.7673 -0.3346
   35bbb    H13 1006   4.255   4.847   6.906 -3.1530 -0.0747 -0.2325
   35bbb    H14 1007   4.319   5.016   6.912 -0.1125 -0.8343 -0.3649
   35bbb     C8 1008   3.774   4.701   7.048  0.1643 -0.3392 -0.3487
   35bbb    H15 1009   3.858   4.729   7.114  0.0417 -0.5318 -0.1076
   35bbb    H16 1010   3.732   4.611   7.096 -0.2603  0.6987  1.3384
   35bbb     C9 1011   4.189   4.497   6.532  0.7440  0.1391  0.2434
   35bbb    H17 1012   4.240   4.504   6.435 -0.0503  3.1158 -0.0404
   35bbb    H18 1013   4.117   4.413   6.529  0.2994  0.4891  0.9253
   35bbb     O1 1014   4.358   4.921   6.727  0.8442 -0.0736 -0.0978
   36bbb     N1 1015   5.398   4.970   6.659 -0.9579  0.2815 -0.2110
   36bbb     C1 1016   5.290   5.041   6.725  1.2682  0.0406  0.3259
   36bbb     H1 1017   5.207   4.974   6.751 -0.6499  2.0023 -0.4776
   36bbb     H2 1018   5.248   5.107   6.648  2.0759  0.2189  0.0262
   36bbb     C2 1019   5.499   5.060   6.607 -0.0417  0.2570 -0.4980
   36bbb     H3 1020   5.588   5.009   6.571 -1.0127 -0.8360 -1.4458
   36bbb     H4 1021   5.519   5.127   6.691 -1.2376 -3.1738  2.7626
   36bbb     C3 1022   5.451   4.848   6.730 -0.4058  0.2332 -0.2599
   36bbb     H5 1023   5.522   4.877   6.810  1.3298 -0.7916 -1.3649
   36bbb     H6 1024   5.509   4.780   6.666  1.4168  0.9281  0.5655
   36bbb     C4 1025   5.346   4.757   6.787 -0.2648  0.2493 -0.2221
   36bbb     H7 1026   5.277   4.815   6.849  0.0928  2.0914 -1.4499
   36bbb     H8 1027   5.384   4.687   6.862 -2.6430  0.4816  1.2692
   36bbb     C5 1028   5.314   5.116   6.862 -0.6085 -0.2356 -0.9021
   36bbb     H9 1029   5.391   5.193   6.851  0.5055 -1.2754 -0.5164
   36bbb    H10 1030   5.361   5.055   6.940  2.0070  1.7670 -0.7917
   36bbb     C6 1031   5.439   5.139   6.483 -0.1521  0.1861 -0.5023
   36bbb    H11 1032   5.377   5.225   6.512  0.5746  0.2632  0.9332
   36bbb    H12 1033   5.366   5.076   6.431  0.4670 -0.9247 -0.0717
   36bbb     C7 1034   5.263   4.689   6.676  0.0752 -0.0126  0.0754
   36bbb    H13 1035   5.336   4.633   6.616  0.5061  0.0284  0.5540
   36bbb    H14 1036   5.204   4.763   6.620  1.8846  2.8158  1.6249
   36bbb     C8 1037   5.539   5.175   6.375 -0.5050 -0.4092 -0.0632
   36bbb    H15 1038   5.491   5.214   6.284 -0.9729  1.7813  1.0623
   36bbb    H16 1039   5.583   5.080   6.341 -0.1990  0.1574 -1.3227
   36bbb     C9 1040   5.192   5.187   6.927 -0.3144 -0.1619  0.0931
   36bbb    H17 1041   5.102   5.133   6.959 -0.1862 -0.8027 -0.5896
   36bbb    H18 1042   5.225   5.245   7.014 -0.8545 -0.9014  0.8094
   36bbb     O1 1043   5.171   4.597   6.735 -0.2644 -0.1731 -0.1602
   37bbb     N1 1044   3.378   5.847   5.891  0.0979 -0.4098 -0.5544
   37bbb     C1 1045   3.261   5.785   5.829 -0.4177 -0.0248 -0.3031
   37bbb     H1 1046   3.214   5.733   5.913 -0.6812  0.4938 -0.1203
   37bbb     H2 1047   3.289   5.709   5.755 -0.6712 -0.1136 -0.3097
   37bbb     C2 1048   3.462   5.942   5.808  0.8183  0.4191  0.1532
   37bbb     H3 1049   3.543   5.981   5.872  1.1333 -1.3766  0.9168
   37bbb     H4 1050   3.406   6.034   5.788  2.1640  1.1674 -0.2659
   37bbb     C3 1051   3.454   5.749   5.954  0.6394  0.1529 -0.5578
   37bbb     H5 1052   3.492   5.679   5.878 -1.7508 -1.0407 -0.7172
   37bbb     H6 1053   3.394   5.692   6.025  2.6378  0.2557  1.3427
   37bbb     C4 1054   3.573   5.790   6.037  0.3067 -0.1684  0.2274
   37bbb     H7 1055   3.541   5.879   6.093  2.6215 -0.2377  1.8007
   37bbb     H8 1056   3.653   5.838   5.979  0.4070  0.3974  0.8156
   37bbb     C5 1057   3.156   5.889   5.772 -1.0457 -0.0796 -0.7736
   37bbb     H9 1058   3.217   5.959   5.713  0.9652  0.0533  1.3173
   37bbb    H10 1059   3.117   5.954   5.852 -1.8563 -1.4206 -0.0400
   37bbb     C6 1060   3.510   5.898   5.665  0.3523  0.2638 -0.6514
   37bbb    H11 1061   3.428   5.839   5.621  0.2689 -0.2840  0.2264
   37bbb    H12 1062   3.594   5.829   5.675  0.4864  0.1229 -2.4516
   37bbb     C7 1063   3.638   5.692   6.138  0.0671  0.0739  0.2908
   37bbb    H13 1064   3.558   5.672   6.211 -0.0289 -0.4313  0.0568
   37bbb    H14 1065   3.728   5.746   6.169 -0.0092  1.1001 -1.1828
   37bbb     C8 1066   3.535   6.016   5.566 -1.0283  0.2415  0.3058
   37bbb    H15 1067   3.615   6.078   5.607 -0.8441 -0.2346  0.6745
   37bbb    H16 1068   3.453   6.086   5.545 -1.3930 -0.6052 -1.3017
   37bbb     C9 1069   3.039   5.826   5.692  0.3277 -0.4843  0.4021
   37bbb    H17 1070   2.971   5.903   5.654  0.4945 -0.5377 -0.0058
   37bbb    H18 1071   2.975   5.767   5.759 -0.3558 -2.2147 -1.6502
   37bbb     O1 1072   3.666   5.570   6.062  0.2999 -0.0526 -1.1531
   38bbb     N1 1073   3.446   5.102   5.172 -0.0969  0.4549 -0.1403
   38bbb     C1 1074   3.351   5.010   5.234  0.1660 -0.2708  0.4344
   38bbb     H1 1075   3.398   4.914   5.257 -2.0065 -1.5530 -0.2765
   38bbb     H2 1076   3.264   4.975   5.177 -0.2751 -0.2753  1.0952
   38bbb     C2 1077   3.392   5.206   5.082 -0.1755 -0.0350 -0.4975
   38bbb     H3 1078   3.385   5.298   5.141 -0.2189  0.7555 -1.6978
   38bbb     H4 1079   3.290   5.178   5.053  0.0116 -1.7083  0.3778
   38bbb     C3 1080   3.578   5.135   5.236  0.4313 -0.4813  0.3553
   38bbb     H5 1081   3.556   5.213   5.310  0.7471  0.6936 -0.7476
   38bbb     H6 1082   3.648   5.182   5.166  1.7033 -0.2357  1.7275
   38bbb     C4 1083   3.652   5.020   5.307  0.3982 -0.0237  0.4772
   38bbb     H7 1084   3.686   4.953   5.227  1.8893  1.3419 -0.0566
   38bbb     H8 1085   3.587   4.956   5.369 -0.3276  0.0174 -0.2180
   38bbb     C5 1086   3.299   5.077   5.364  0.9623 -0.2283  0.7830
   38bbb     H9 1087   3.382   5.111   5.427  1.8176  1.7874 -1.3100
   38bbb    H10 1088   3.249   4.996   5.419 -0.1470  0.7675  1.2944
   38bbb     C6 1089   3.457   5.221   4.948 -0.3381 -0.5993  0.1755
   38bbb    H11 1090   3.461   5.124   4.898  1.9957 -1.1381  1.2560
   38bbb    H12 1091   3.565   5.242   4.954 -0.2610 -1.0120  0.2600
   38bbb     C7 1092   3.774   5.075   5.381  0.0559  0.2766 -0.3635
   38bbb    H13 1093   3.755   5.183   5.388  2.0798  0.6088  0.8425
   38bbb    H14 1094   3.870   5.057   5.332  0.5941  0.1330  0.7066
   38bbb     C8 1095   3.379   5.330   4.869 -0.8602  0.3459 -0.2548
   38bbb    H15 1096   3.410   5.431   4.899 -1.0743  0.9655 -2.0221
   38bbb    H16 1097   3.274   5.321   4.901 -0.4612 -0.3193  0.9178
   38bbb     C9 1098   3.197   5.193   5.347  0.7385 -0.0111  0.1465
   38bbb    H17 1099   3.250   5.278   5.302  0.6636 -1.5683 -3.1704
   38bbb    H18 1100   3.153   5.224   5.443 -0.8637  0.5014 -0.7083
   38bbb     O1 1101   3.786   5.016   5.511 -0.9992 -0.4061 -0.3765
   39bbb     N1 1102   7.508   5.477   9.481 -0.8378  0.0186  0.1000
   39bbb     C1 1103   7.429   5.529   9.598  0.6192 -0.6415  0.1012
   39bbb     H1 1104   7.334   5.475   9.604 -0.1518  0.8088  1.6363
   39bbb     H2 1105   7.401   5.631   9.571 -0.3498 -0.7465  0.6903
   39bbb     C2 1106   7.651   5.515   9.474 -0.5888 -0.6069  0.0432
   39bbb     H3 1107   7.677   5.589   9.551  0.7111 -0.1269 -0.8339
   39bbb     H4 1108   7.673   5.563   9.378  1.0689 -0.1153  0.6269
   39bbb     C3 1109   7.439   5.490   9.350 -0.2990  0.0911 -0.0487
   39bbb     H5 1110   7.499   5.424   9.285 -1.2218  0.1419 -0.9881
   39bbb     H6 1111   7.442   5.588   9.299 -0.9835  0.3965  0.4867
   39bbb     C4 1112   7.296   5.443   9.349  0.0117 -0.1578 -0.2079
   39bbb     H7 1113   7.239   5.506   9.418 -2.8446 -1.1392 -1.5303
   39bbb     H8 1114   7.291   5.338   9.382 -0.6809 -0.1274 -0.2137
   39bbb     C5 1115   7.496   5.532   9.741  0.2718  0.0204  0.2831
   39bbb     H9 1116   7.435   5.582   9.818 -0.0809  1.0544 -0.6446
   39bbb    H10 1117   7.596   5.577   9.746  0.5295 -0.6440  1.8193
   39bbb     C6 1118   7.746   5.394   9.489  0.1856  0.3780  0.3367
   39bbb    H11 1119   7.737   5.352   9.590 -0.9267 -0.7232 -0.1880
   39bbb    H12 1120   7.848   5.434   9.483 -0.0507  1.1933  1.4170
   39bbb     C7 1121   7.218   5.454   9.211 -0.3105  0.1822 -0.3619
   39bbb    H13 1122   7.278   5.394   9.141  0.0896 -2.2972  1.9695
   39bbb    H14 1123   7.217   5.558   9.175  1.8856  0.4289  0.1606
   39bbb     C8 1124   7.717   5.282   9.379 -0.1963 -0.7029  0.0736
   39bbb    H15 1125   7.758   5.328   9.289  0.4161 -0.4333  0.4858
   39bbb    H16 1126   7.608   5.278   9.365 -0.6126  2.2015  1.6534
   39bbb     C9 1127   7.505   5.383   9.790 -0.5578  0.8248 -0.2003
   39bbb    H17 1128   7.554   5.326   9.711  0.1989 -0.2368  0.9995
   39bbb    H18 1129   7.403   5.348   9.808 -0.5054  0.8540  0.1723
   39bbb     O1 1130   7.080   5.402   9.217  0.3830 -0.6135  0.3981
   40bbb     N1 1131   6.854   4.485   9.235 -0.3768  0.2047  0.7645
   40bbb     C1 1132   6.989   4.529   9.282  0.2589  0.4129 -0.5467
   40bbb     H1 1133   6.972   4.579   9.378  0.2713  1.3069 -1.0020
   40bbb     H2 1134   7.022   4.607   9.213  0.3219  0.0594 -0.9228
   40bbb     C2 1135   6.865   4.392   9.124 -0.2156  0.5504  0.7968
   40bbb     H3 1136   6.929   4.308   9.154  0.9861  0.2144 -2.3106
   40bbb     H4 1137   6.910   4.438   9.035 -2.3637  1.7518  0.2792
   40bbb     C3 1138   6.771   4.607   9.202  0.0122  0.2025 -0.4841
   40bbb     H5 1139   6.677   4.580   9.152 -1.6542  3.6577  0.4401
   40bbb     H6 1140   6.828   4.662   9.126 -2.0272  0.4290 -1.9303
   40bbb     C4 1141   6.739   4.712   9.310  0.0499 -0.0912  0.4216
   40bbb     H7 1142   6.820   4.785   9.316 -0.2625  0.4961 -1.6254
   40bbb     H8 1143   6.735   4.671   9.412  1.7173  0.8584  0.9092
   40bbb     C5 1144   7.098   4.417   9.295  0.4268 -0.5477 -0.1884
   40bbb     H9 1145   7.114   4.378   9.194 -0.0916  1.2281 -1.0081
   40bbb    H10 1146   7.061   4.330   9.350 -2.6917  1.1780  0.7123
   40bbb     C6 1147   6.732   4.315   9.083  0.2414  0.0178 -0.5426
   40bbb    H11 1148   6.662   4.383   9.033 -0.4780 -2.2554 -2.8555
   40bbb    H12 1149   6.691   4.277   9.177  1.7694  0.6664  0.4273
   40bbb     C7 1150   6.600   4.789   9.288  0.1332  0.0612 -0.5627
   40bbb    H13 1151   6.577   4.870   9.358 -1.8778 -0.2055 -0.8677
   40bbb    H14 1152   6.513   4.723   9.295 -0.3337  0.8008  4.9150
   40bbb     C8 1153   6.757   4.200   8.984  0.0859  0.3670 -0.2107
   40bbb    H15 1154   6.665   4.147   8.962  0.3346 -0.2621  0.2403
   40bbb    H16 1155   6.829   4.129   9.027  0.5777 -0.1968 -1.8764
   40bbb     C9 1156   7.233   4.457   9.352 -0.2087 -0.6892  0.4043
   40bbb    H17 1157   7.302   4.374   9.370 -0.1375 -0.1352  3.1006
   40bbb    H18 1158   7.214   4.500   9.451 -0.5999 -0.0599  0.0661
   40bbb     O1 1159   6.613   4.847   9.158  0.2214 -0.1101 -0.0268
   41bbb     N1 1160   5.431   6.032  10.301 -0.3671 -0.2569  0.7151
   41bbb     C1 1161   5.428   6.181  10.295  0.2203 -0.7640 -0.2446
   41bbb     H1 1162   5.372   6.214  10.207  0.5804  0.8122  0.0949
   41bbb     H2 1163   5.529   6.219  10.275 -0.3018  1.2287  0.6278
   41bbb     C2 1164   5.526   5.981  10.415  0.5379  0.9434  1.5495
   41bbb     H3 1165   5.534   5.872  10.401  0.7656  0.9273  1.7921
   41bbb     H4 1166   5.472   5.999  10.509 -0.1193 -0.0219  1.3856
   41bbb     C3 1167   5.294   5.975  10.297  0.2760  0.2314  0.0521
   41bbb     H5 1168   5.251   6.018  10.205 -0.2797 -0.8632 -0.2133
   41bbb     H6 1169   5.233   6.014  10.380 -1.5216  0.6941 -1.4172
   41bbb     C4 1170   5.269   5.822  10.293 -1.0291 -0.5875  1.0752
   41bbb     H7 1171   5.164   5.792  10.280 -0.5633 -1.2626 -2.0518
   41bbb     H8 1172   5.309   5.785  10.389  0.5202 -0.9203  0.3428
   41bbb     C5 1173   5.355   6.267  10.402 -0.7614  0.6509  0.4296
   41bbb     H9 1174   5.250   6.237  10.394 -0.8485  0.5258  1.8137
   41bbb    H10 1175   5.371   6.371  10.370  0.0184  0.0648 -1.2301
   41bbb     C6 1176   5.675   6.044  10.410 -0.0485  0.2199 -0.6501
   41bbb    H11 1177   5.678   6.153  10.422  0.5803  0.1636 -0.2603
   41bbb    H12 1178   5.725   6.015  10.316 -0.4501 -2.8613 -0.0241
   41bbb     C7 1179   5.347   5.761  10.171  0.0240 -0.3209 -0.0430
   41bbb    H13 1180   5.450   5.798  10.175  0.1870 -0.2888 -2.7865
   41bbb    H14 1181   5.302   5.792  10.076 -1.3116  0.2532  0.7351
   41bbb     C8 1182   5.759   6.005  10.540 -0.7386  0.0764 -0.0923
   41bbb    H15 1183   5.866   6.002  10.521 -0.8465  1.1872 -0.9988
   41bbb    H16 1184   5.732   5.907  10.581 -1.5726 -0.3440 -1.5680
   41bbb     C9 1185   5.407   6.243  10.550 -0.1950 -0.2676  0.5901
   41bbb    H17 1186   5.514   6.223  10.562 -0.6817 -2.1014  2.4401
   41bbb    H18 1187   5.356   6.151  10.580 -1.3322  0.0497 -0.3030
   41bbb     O1 1188   5.349   5.621  10.164  0.0640  0.0226 -0.5141
   42bbb     N1 1189   5.104   4.407   9.990  0.0161  0.6670  0.4320
   42bbb     C1 1190   4.984   4.377   9.904 -0.4272  0.1372  0.2916
   42bbb     H1 1191   4.970   4.444   9.818 -0.6424 -1.6989 -1.1582
   42bbb     H2 1192   4.892   4.388   9.962 -1.5569  0.7082 -1.5277
   42bbb     C2 1193   5.131   4.312  10.099  0.6215  0.3891 -0.0292
   42bbb     H3 1194   5.238   4.313  10.122  0.7348  2.3093 -0.4640
   42bbb     H4 1195   5.117   4.209  10.062  2.0630  0.4426 -0.7883
   42bbb     C3 1196   5.115   4.553  10.020 -0.5088 -0.3879  0.2523
   42bbb     H5 1197   5.046   4.574  10.102 -2.0160 -1.5031 -0.6738
   42bbb     H6 1198   5.092   4.616   9.933  1.1685 -0.5372 -0.3359
   42bbb     C4 1199   5.265   4.581  10.061  0.1877  0.0121 -0.2235
   42bbb     H7 1200   5.329   4.570   9.973  1.6152 -0.9958  0.8992
   42bbb     H8 1201   5.293   4.522  10.149 -2.5511  0.6316  1.1871
   42bbb     C5 1202   4.978   4.239   9.832 -0.4359  0.0012 -0.2703
   42bbb     H9 1203   4.982   4.151   9.898  2.2392 -1.3416 -2.0174
   42bbb    H10 1204   5.071   4.221   9.776  0.5647 -1.9068  1.7938
   42bbb     C6 1205   5.059   4.344  10.233  0.5441  0.0444  0.9217
   42bbb    H11 1206   4.949   4.348  10.228  0.5475 -0.8430 -1.1435
   42bbb    H12 1207   5.092   4.442  10.267 -0.6161  1.1737 -1.0053
   42bbb     C7 1208   5.292   4.724  10.111 -0.5089 -0.4623  1.1012
   42bbb    H13 1209   5.223   4.747  10.193 -0.6922 -0.3543  0.9194
   42bbb    H14 1210   5.261   4.789  10.028  0.1158 -0.3949  0.9101
   42bbb     C8 1211   5.105   4.244  10.347  0.1073 -0.5499  0.0746
   42bbb    H15 1212   5.085   4.281  10.448  0.9116 -1.7164  0.6931
   42bbb    H16 1213   5.214   4.253  10.356 -0.0106  0.1477  0.9808
   42bbb     C9 1214   4.859   4.231   9.744  0.1669  0.0553 -0.1929
   42bbb    H17 1215   4.876   4.139   9.687  2.3312 -0.9098  1.8399
   42bbb    H18 1216   4.852   4.312   9.671  0.4559  1.1506  0.9551
   42bbb     O1 1217   5.425   4.747  10.147 -0.0647 -0.7013  0.1138
   43bbb     N1 1218   4.216   7.385   8.414 -0.3423 -0.5295 -0.0815
   43bbb     C1 1219   4.232   7.505   8.331 -0.5824  0.1100 -0.5258
   43bbb     H1 1220   4.137   7.561   8.330 -0.2029  0.7754 -2.2119
   43bbb     H2 1221   4.262   7.468   8.233 -1.4183 -1.6670 -0.1396
   43bbb     C2 1222   4.124   7.410   8.520  0.1007  0.0868 -0.4041
   43bbb     H3 1223   4.029   7.450   8.483  1.0532  1.2353 -1.7037
   43bbb     H4 1224   4.174   7.480   8.588  0.4535  0.0302 -0.6019
   43bbb     C3 1225   4.342   7.315   8.451  0.7214 -0.3235 -0.2565
   43bbb     H5 1226   4.315   7.219   8.497 -0.8386 -0.1426 -0.7590
   43bbb     H6 1227   4.412   7.366   8.519 -0.2256  2.4680 -1.2554
   43bbb     C4 1228   4.423   7.285   8.328  0.2931  0.4240  0.4796
   43bbb     H7 1229   4.486   7.368   8.294  0.5654 -0.3278 -0.9104
   43bbb     H8 1230   4.353   7.258   8.248  0.4790  0.0281  0.4492
   43bbb     C5 1231   4.337   7.609   8.376 -0.1137  1.3671  0.4772
   43bbb     H9 1232   4.432   7.557   8.393 -0.1707  0.2516 -2.1548
   43bbb    H10 1233   4.304   7.638   8.476  0.3182 -0.7814  1.2927
   43bbb     C6 1234   4.094   7.291   8.612 -0.2215  0.6148  0.1484
   43bbb    H11 1235   4.168   7.268   8.690 -4.0805 -1.6933  3.5747
   43bbb    H12 1236   4.085   7.197   8.556  2.9426  1.2399 -1.6469
   43bbb     C7 1237   4.511   7.163   8.355 -0.5347  0.1112 -0.2733
   43bbb    H13 1238   4.462   7.076   8.400  1.1255 -1.4739 -1.3944
   43bbb    H14 1239   4.589   7.209   8.417 -1.9390  1.6915  0.4166
   43bbb     C8 1240   3.966   7.309   8.698  0.0937 -0.2667 -0.6404
   43bbb    H15 1241   3.884   7.331   8.628 -0.6246 -1.3876 -0.1941
   43bbb    H16 1242   3.989   7.398   8.758 -0.6043 -1.2903  1.2398
   43bbb     C9 1243   4.357   7.720   8.277 -0.5083 -0.7120  0.4174
   43bbb    H17 1244   4.412   7.808   8.312 -0.6724  0.1800 -1.4706
   43bbb    H18 1245   4.258   7.762   8.255 -0.0493  0.2427  0.1407
   43bbb     O1 1246   4.557   7.128   8.222  0.2168 -0.5354  0.8462
   44bbb     N1 1247   5.093   8.097   8.097 -0.3760 -0.2143  0.2532
   44bbb     C1 1248   5.222   8.029   8.103  0.8185 -0.5953 -0.5016
   44bbb     H1 1249   5.297   8.109   8.108  0.9602 -0.7957  2.6208
   44bbb     H2 1250   5.241   7.961   8.019  0.8472 -0.3508 -0.6965
   44bbb     C2 1251   5.092   8.192   7.988  0.5427  0.0625 -0.1154
   44bbb     H3 1252   5.083   8.129   7.899 -0.7339 -1.5294  1.0855
   44bbb     H4 1253   5.190   8.242   7.995  1.7899 -2.2759 -0.0469
   44bbb     C3 1254   4.979   8.010   8.101 -0.2913  0.1381  0.7440
   44bbb     H5 1255   4.886   8.069   8.109 -0.1023  0.5718 -0.1538
   44bbb     H6 1256   4.989   7.949   8.192  0.4062 -1.9261 -0.6527
   44bbb     C4 1257   4.962   7.915   7.979  0.2289 -0.3163 -0.0488
   44bbb     H7 1258   5.052   7.861   7.948  0.7930  1.6105 -2.0559
   44bbb     H8 1259   4.938   7.975   7.890  0.1434  1.2149  0.9803
   44bbb     C5 1260   5.248   7.944   8.232 -0.1557 -0.1989 -0.3767
   44bbb     H9 1261   5.168   7.871   8.247 -0.2833  0.3034  1.6851
   44bbb    H10 1262   5.234   8.021   8.309  0.4610 -1.4304  1.0088
   44bbb     C6 1263   4.974   8.293   7.980 -0.2775 -0.1792  0.2379
   44bbb    H11 1264   4.969   8.353   8.072  0.3801  1.8078 -0.9431
   44bbb    H12 1265   4.880   8.239   7.967 -0.3320  0.0698 -0.4719
   44bbb     C7 1266   4.852   7.809   8.001  0.4085 -0.0417  0.3150
   44bbb    H13 1267   4.845   7.746   7.912  0.5084 -2.1228  1.7064
   44bbb    H14 1268   4.755   7.861   8.011 -0.1062 -1.2659  2.1947
   44bbb     C8 1269   4.998   8.401   7.871 -0.6136 -0.3895  0.1744
   44bbb    H15 1270   4.897   8.442   7.867 -1.0759 -1.4701  0.2131
   44bbb    H16 1271   5.028   8.348   7.779 -2.5563 -0.9354 -0.1892
   44bbb     C9 1272   5.379   7.861   8.229  0.7914  0.4810  0.3768
   44bbb    H17 1273   5.464   7.914   8.185  1.1020 -0.0432  0.3457
   44bbb    H18 1274   5.406   7.843   8.334  1.1583 -0.3791  0.1387
   44bbb     O1 1275   4.881   7.728   8.113 -0.1544  0.1004 -0.5133
   45bbb     N1 1276   3.682   7.017   9.576 -0.3098  0.0619 -0.9039
   45bbb     C1 1277   3.551   7.039   9.642  0.8307 -0.1628  0.1987
   45bbb     H1 1278   3.550   7.123   9.711 -0.2606  1.1330 -1.3041
   45bbb     H2 1279   3.521   6.951   9.701  0.1956  1.0556  1.7482
   45bbb     C2 1280   3.780   6.974   9.681  0.1755  0.5071 -0.2518
   45bbb     H3 1281   3.874   6.948   9.631 -0.8543 -0.9793 -1.5018
   45bbb     H4 1282   3.743   6.882   9.728 -1.3596  1.5808  0.7417
   45bbb     C3 1283   3.725   7.121   9.475  0.3194 -0.5568  0.6737
   45bbb     H5 1284   3.732   7.223   9.517 -0.5079 -0.4789  0.6287
   45bbb     H6 1285   3.644   7.119   9.402  1.0104 -2.1785 -0.0831
   45bbb     C4 1286   3.855   7.092   9.394  0.2113 -0.4509  0.0677
   45bbb     H7 1287   3.929   7.092   9.476 -0.9327  1.8445  1.2133
   45bbb     H8 1288   3.883   7.165   9.318  3.6373  1.3220  2.7461
   45bbb     C5 1289   3.428   7.077   9.550 -0.5978  0.8419  0.2887
   45bbb     H9 1290   3.413   7.002   9.471 -0.8782 -0.2767  1.3772
   45bbb    H10 1291   3.446   7.171   9.496  2.9739  0.3367  0.3684
   45bbb     C6 1292   3.816   7.073   9.788  0.3548 -0.5847 -0.2284
   45bbb    H11 1293   3.729   7.110   9.844  2.2717  1.4262  1.6142
   45bbb    H12 1294   3.870   7.162   9.752  0.2849 -1.0207 -1.4336
   45bbb     C7 1295   3.836   6.947   9.342  0.1708  0.5996 -0.0161
   45bbb    H13 1296   3.735   6.946   9.299 -0.0440  2.7657  0.3699
   45bbb    H14 1297   3.854   6.873   9.422  0.1262 -1.0535 -1.4607
   45bbb     C8 1298   3.917   7.008   9.893 -0.5538 -0.2802 -0.4138
   45bbb    H15 1299   3.949   7.080   9.969  0.7452 -2.3925  1.1659
   45bbb    H16 1300   4.010   6.975   9.845 -0.5901 -0.6670 -0.2167
   45bbb     C9 1301   3.296   7.079   9.632  0.0405 -0.1834 -0.0646
   45bbb    H17 1302   3.326   7.136   9.721 -0.3428  1.0233 -0.6812
   45bbb    H18 1303   3.273   6.973   9.649 -0.6679 -0.3955 -2.1458
   45bbb     O1 1304   3.921   6.925   9.222 -0.5878 -0.4651  0.2249
   46bbb     N1 1305   4.608   6.353   9.804 -0.0518  0.8985  0.0881
   46bbb     C1 1306   4.469   6.387   9.841  0.4322  0.0038 -0.1347
   46bbb     H1 1307   4.421   6.443   9.760  0.7019  0.2490 -0.1277
   46bbb     H2 1308   4.482   6.471   9.910  2.9129 -2.3868  2.6017
   46bbb     C2 1309   4.695   6.305   9.912 -0.3850 -0.3051 -0.2574
   46bbb     H3 1310   4.800   6.305   9.881 -0.5139 -2.0745 -0.8490
   46bbb     H4 1311   4.678   6.197   9.926  1.2918 -0.8684 -2.0612
   46bbb     C3 1312   4.620   6.249   9.697  0.0419 -0.4947 -0.7170
   46bbb     H5 1313   4.583   6.152   9.735 -0.2937  0.0227  0.3283
   46bbb     H6 1314   4.724   6.227   9.670  0.6312 -0.2478  1.1790
   46bbb     C4 1315   4.540   6.275   9.567  0.3186  0.0405  0.0778
   46bbb     H7 1316   4.433   6.280   9.592 -0.2324 -0.9295 -1.8953
   46bbb     H8 1317   4.547   6.191   9.497  0.5622  0.5833 -0.5516
   46bbb     C5 1318   4.384   6.274   9.892  0.1799 -0.1503  0.4721
   46bbb     H9 1319   4.437   6.213   9.965  1.1645  0.1769  0.0460
   46bbb    H10 1320   4.353   6.215   9.804 -0.1186  0.4002  0.1978
   46bbb     C6 1321   4.701   6.398  10.038  0.1158 -0.2773 -0.6168
   46bbb    H11 1322   4.602   6.407  10.085 -0.9384 -1.1450 -2.5564
   46bbb    H12 1323   4.727   6.498  10.000 -0.1932 -0.1938 -0.6152
   46bbb     C7 1324   4.577   6.402   9.497 -0.3792  0.3317 -0.1570
   46bbb    H13 1325   4.679   6.403   9.457 -0.0380  0.4644  0.7014
   46bbb    H14 1326   4.586   6.475   9.578 -0.7717  1.0737 -0.7647
   46bbb     C8 1327   4.804   6.360  10.143 -0.2711  0.3082 -0.6059
   46bbb    H15 1328   4.899   6.340  10.093 -0.7054 -1.9035 -0.6729
   46bbb    H16 1329   4.776   6.267  10.195  1.2456  0.4698  0.5901
   46bbb     C9 1330   4.253   6.331   9.964  0.1603  0.1518 -0.1758
   46bbb    H17 1331   4.203   6.241  10.001 -0.0699 -1.6301 -4.1966
   46bbb    H18 1332   4.200   6.394   9.891  2.7784 -0.2456 -2.6197
   46bbb     O1 1333   4.475   6.445   9.406 -0.2001 -0.2916  0.1796
   47bbb     N1 1334   7.148   4.160   6.834 -0.3009  0.1343  0.2154
   47bbb     C1 1335   7.186   4.125   6.691  0.1047  0.1113  0.0462
   47bbb     H1 1336   7.171   4.016   6.684  2.0700 -0.4966  3.0155
   47bbb     H2 1337   7.293   4.137   6.671 -0.2897 -0.6891 -2.9978
   47bbb     C2 1338   7.232   4.094   6.936 -0.0617  0.0273  0.4456
   47bbb     H3 1339   7.218   3.985   6.944  0.0674 -0.2578 -2.3111
   47bbb     H4 1340   7.208   4.143   7.031 -0.5346 -1.6571  1.2301
   47bbb     C3 1341   7.002   4.162   6.871 -0.1253 -0.4855 -0.1710
   47bbb     H5 1342   6.952   4.232   6.804 -0.9010  0.3420  1.2092
   47bbb     H6 1343   6.997   4.212   6.969  1.9670 -1.0568  0.2913
   47bbb     C4 1344   6.924   4.021   6.865 -0.0284  0.1635  0.0067
   47bbb     H7 1345   6.965   3.954   6.942 -0.7640  0.4558  0.6724
   47bbb     H8 1346   6.938   3.967   6.771 -2.8558 -0.6352 -0.0685
   47bbb     C5 1347   7.102   4.190   6.581  0.0586 -0.5848 -0.6938
   47bbb     H9 1348   7.074   4.294   6.598  2.5948  0.1764 -0.6847
   47bbb    H10 1349   7.004   4.141   6.573 -1.5358  2.4282 -0.8937
   47bbb     C6 1350   7.387   4.117   6.927  0.4844  0.3012 -0.0600
   47bbb    H11 1351   7.429   4.052   6.850 -0.6206 -0.8027  0.2343
   47bbb    H12 1352   7.448   4.093   7.015  1.6643 -0.1858 -0.9897
   47bbb     C7 1353   6.779   4.048   6.889  0.3109  0.3187 -0.4407
   47bbb    H13 1354   6.719   3.958   6.905 -0.1460  1.0243  2.2212
   47bbb    H14 1355   6.733   4.092   6.800  0.9146  1.8329 -0.0334
   47bbb     C8 1356   7.422   4.265   6.907 -0.1044 -0.1044 -0.1739
   47bbb    H15 1357   7.359   4.313   6.983 -1.2723 -1.3099 -0.3495
   47bbb    H16 1358   7.389   4.294   6.807  0.2580  0.8394 -0.0273
   47bbb     C9 1359   7.175   4.168   6.445  0.6578 -0.0636  0.7865
   47bbb    H17 1360   7.275   4.209   6.459  0.8577 -0.4551  0.5271
   47bbb    H18 1361   7.134   4.229   6.364  3.1047  1.0114  0.2671
   47bbb     O1 1362   6.752   4.131   7.002  0.2719 -0.6823  0.5356
   48bbb     N1 1363   7.072   4.591   7.854 -0.7150  0.1643  0.4241
   48bbb     C1 1364   7.118   4.454   7.816 -0.0705 -0.1957 -0.0075
   48bbb     H1 1365   7.209   4.458   7.755 -0.7167 -0.3385 -1.0031
   48bbb     H2 1366   7.050   4.418   7.738  0.5254  2.1948 -1.7479
   48bbb     C2 1367   7.149   4.669   7.945  0.1706 -0.5485 -0.3031
   48bbb     H3 1368   7.130   4.640   8.049  2.2002  0.2670  0.3520
   48bbb     H4 1369   7.122   4.775   7.937  2.4427  0.1724  0.7108
   48bbb     C3 1370   6.925   4.609   7.863  0.4633 -0.5000 -0.7130
   48bbb     H5 1371   6.907   4.710   7.901  1.3225 -0.1527 -1.1924
   48bbb     H6 1372   6.889   4.543   7.942  0.3863 -0.5414 -0.7824
   48bbb     C4 1373   6.846   4.582   7.728 -0.1569 -0.3872 -0.1506
   48bbb     H7 1374   6.738   4.585   7.747  0.0256 -0.7037  1.0508
   48bbb     H8 1375   6.870   4.485   7.682 -3.0426 -1.2763  0.0250
   48bbb     C5 1376   7.118   4.365   7.941 -0.1161 -0.5805 -0.0256
   48bbb     H9 1377   7.011   4.367   7.965 -0.3767  0.6904 -1.1738
   48bbb    H10 1378   7.177   4.412   8.021  0.0550  0.7738 -0.9173
   48bbb     C6 1379   7.302   4.673   7.914  1.2101 -0.7719  0.7001
   48bbb    H11 1380   7.326   4.657   7.809  1.8820  3.9448 -0.0450
   48bbb    H12 1381   7.349   4.583   7.956 -0.4903 -2.4962 -0.8962
   48bbb     C7 1382   6.869   4.694   7.628 -0.3923  0.1210 -0.4759
   48bbb    H13 1383   6.978   4.693   7.612 -0.0035  2.8847  1.3802
   48bbb    H14 1384   6.849   4.796   7.662 -0.2814 -0.5453  1.7585
   48bbb     C8 1385   7.371   4.810   7.956 -0.6321  0.4409  0.4309
   48bbb    H15 1386   7.356   4.890   7.883 -0.9635  1.4331  1.5462
   48bbb    H16 1387   7.477   4.780   7.958 -0.8165 -0.3156 -0.2602
   48bbb     C9 1388   7.154   4.219   7.909 -0.2031  0.2108 -0.0398
   48bbb    H17 1389   7.087   4.174   7.835 -1.3449  0.5732  0.7451
   48bbb    H18 1390   7.142   4.158   8.000  0.6563  0.0357 -0.0421
   48bbb     O1 1391   6.772   4.675   7.523  0.5833 -0.1176  0.3114
   49bbb     N1 1392   6.137   6.079   6.300 -0.5158  0.0389 -0.2816
   49bbb     C1 1393   6.195   6.201   6.234 -0.1718 -1.0771 -0.4090
   49bbb     H1 1394   6.128   6.283   6.262 -0.5192 -1.3412 -0.4585
   49bbb     H2 1395   6.183   6.188   6.126  2.1713  1.9906 -1.1943
   49bbb     C2 1396   6.208   5.949   6.261 -0.0252 -0.1994 -0.1596
   49bbb     H3 1397   6.155   5.868   6.312  0.3418  1.0083  2.3281
   49bbb     H4 1398   6.304   5.955   6.314 -1.9916 -1.9746  4.0687
   49bbb     C3 1399   6.123   6.083   6.447  0.0044 -0.2135  0.1603
   49bbb     H5 1400   6.221   6.056   6.488  0.4410 -1.3346 -1.4951
   49bbb     H6 1401   6.052   6.002   6.468 -0.2494 -0.4043 -1.3019
   49bbb     C4 1402   6.060   6.216   6.494  0.0423  0.1108  0.0373
   49bbb     H7 1403   5.978   6.238   6.425  0.8456  1.6162 -0.4782
   49bbb     H8 1404   6.128   6.301   6.481 -0.5618  0.7275  0.8539
   49bbb     C5 1405   6.344   6.235   6.262 -0.5182 -0.2839 -0.7024
   49bbb     H9 1406   6.413   6.152   6.243  0.1659  0.0394  0.3334
   49bbb    H10 1407   6.347   6.247   6.371 -1.2353  2.5078 -0.9113
   49bbb     C6 1408   6.223   5.908   6.112  0.0494 -0.4118  0.4022
   49bbb    H11 1409   6.263   5.807   6.123  0.0227 -0.4811 -0.1051
   49bbb    H12 1410   6.301   5.975   6.071 -1.6777  0.4265 -1.7140
   49bbb     C7 1411   5.996   6.217   6.638  0.0760  0.3327 -0.4840
   49bbb    H13 1412   5.893   6.181   6.629  0.9862 -2.5472 -0.5038
   49bbb    H14 1413   6.014   6.311   6.692  0.3196 -0.4441  0.8406
   49bbb     C8 1414   6.094   5.915   6.018 -0.0512  0.8468 -0.7191
   49bbb    H15 1415   6.054   6.017   6.022 -1.3530  0.3199  0.6808
   49bbb    H16 1416   6.018   5.853   6.067 -0.5754  1.5246 -0.6727
   49bbb     C9 1417   6.373   6.373   6.198  0.2550 -0.2300 -0.5046
   49bbb    H17 1418   6.297   6.439   6.241  0.1199 -0.5418 -0.2542
   49bbb    H18 1419   6.370   6.364   6.089  0.8560  0.5061 -0.5877
   49bbb     O1 1420   6.065   6.116   6.719  0.5318 -0.1126  0.0761
   50bbb     N1 1421   5.871   6.266   7.234 -0.1900  0.1219  0.0276
   50bbb     C1 1422   6.022   6.251   7.233 -0.0010  0.0324  0.7385
   50bbb     H1 1423   6.065   6.348   7.259 -0.4935  0.8742 -1.4545
   50bbb     H2 1424   6.050   6.232   7.129 -1.2870  2.0040 -0.0162
   50bbb     C2 1425   5.822   6.390   7.181 -0.1348 -0.7503  0.2739
   50bbb     H3 1426   5.879   6.473   7.225  0.9220 -1.5270  0.4161
   50bbb     H4 1427   5.719   6.409   7.212 -0.0824  2.0302 -0.9353
   50bbb     C3 1428   5.804   6.140   7.186 -0.0881  0.2206  0.0955
   50bbb     H5 1429   5.857   6.051   7.223  0.1536 -0.3118 -1.4216
   50bbb     H6 1430   5.816   6.133   7.077  1.0661 -0.0950  0.2305
   50bbb     C4 1431   5.664   6.119   7.244  0.9160 -0.1125 -0.2445
   50bbb     H7 1432   5.589   6.198   7.228  0.0198 -0.9937 -0.5359
   50bbb     H8 1433   5.676   6.104   7.352  0.5788  2.9691  0.3001
   50bbb     C5 1434   6.091   6.133   7.304  0.2054 -0.4587  0.1748
   50bbb     H9 1435   6.061   6.036   7.264  1.3086 -0.6938 -0.1154
   50bbb    H10 1436   6.062   6.129   7.409 -0.1380 -0.6671  0.0742
   50bbb     C6 1437   5.822   6.391   7.021 -0.0252 -0.6413 -0.2923
   50bbb    H11 1438   5.752   6.317   6.980  0.1333 -1.4302  0.8140
   50bbb    H12 1439   5.918   6.361   6.977 -0.0387  0.6017 -1.2398
   50bbb     C7 1440   5.594   5.989   7.187 -0.0299 -0.5077  0.6253
   50bbb    H13 1441   5.491   5.986   7.225 -0.0470 -0.6347  0.5679
   50bbb    H14 1442   5.650   5.903   7.225  0.6648 -1.6079 -2.5645
   50bbb     C8 1443   5.794   6.530   6.964 -0.2985  0.1096 -0.1669
   50bbb    H15 1444   5.687   6.547   6.986  0.0240  1.5048  0.4142
   50bbb    H16 1445   5.807   6.524   6.856  0.6817 -0.1232 -0.0433
   50bbb     C9 1446   6.248   6.135   7.288  0.2224 -0.6441 -0.7751
   50bbb    H17 1447   6.303   6.042   7.306 -0.2275 -0.8857 -0.6415
   50bbb    H18 1448   6.278   6.206   7.365 -1.1176 -0.2892 -0.5514
   50bbb     O1 1449   5.602   5.993   7.044  0.1258 -0.9785 -0.0260
   51bbb     N1 1450   3.352   4.491   6.877  0.6382  0.3071  0.3656
   51bbb     C1 1451   3.399   4.586   6.974  0.0120 -1.3003  0.0609
   51bbb     H1 1452   3.339   4.674   7.000 -0.9951 -2.0885  0.4723
   51bbb     H2 1453   3.488   4.636   6.937 -1.3868  1.8092  0.5974
   51bbb     C2 1454   3.298   4.555   6.751 -1.0124 -0.0772 -0.1558
   51bbb     H3 1455   3.274   4.476   6.679 -1.1052 -2.1569  2.0209
   51bbb     H4 1456   3.380   4.610   6.703 -0.5271 -2.1065 -1.7835
   51bbb     C3 1457   3.444   4.379   6.845  0.4167 -0.0738 -0.0710
   51bbb     H5 1458   3.397   4.317   6.768 -1.5655 -1.0322  1.8086
   51bbb     H6 1459   3.440   4.315   6.934 -1.9901 -0.1998 -0.2181
   51bbb     C4 1460   3.596   4.412   6.820  0.3229 -0.2600 -0.2376
   51bbb     H7 1461   3.625   4.477   6.903 -0.5967  0.0278 -0.1303
   51bbb     H8 1462   3.593   4.476   6.731  0.0851 -1.9999 -1.5302
   51bbb     C5 1463   3.427   4.524   7.111  0.0245 -0.2042  0.0072
   51bbb     H9 1464   3.445   4.606   7.181 -1.2172  0.1849 -0.1081
   51bbb    H10 1465   3.526   4.476   7.109  0.7271  1.0134  2.3758
   51bbb     C6 1466   3.172   4.646   6.766 -0.4036  0.4493 -0.4674
   51bbb    H11 1467   3.143   4.694   6.672 -1.0180  1.7554  0.3464
   51bbb    H12 1468   3.196   4.731   6.831  0.7686 -1.1901  1.3570
   51bbb     C7 1469   3.686   4.284   6.810 -0.5279  0.2637  0.4657
   51bbb    H13 1470   3.639   4.219   6.735  0.5316 -0.1695  0.1673
   51bbb    H14 1471   3.688   4.225   6.902  3.5147  1.9430  1.6747
   51bbb     C8 1472   3.057   4.579   6.837 -0.1316 -0.5077  1.3837
   51bbb    H15 1473   3.092   4.537   6.932 -2.9882 -1.2860  2.2021
   51bbb    H16 1474   3.019   4.498   6.773  0.5837  0.7042 -0.6786
   51bbb     C9 1475   3.318   4.445   7.170  1.2025  0.0703 -0.4675
   51bbb    H17 1476   3.347   4.376   7.250 -0.2057 -1.9872 -1.6496
   51bbb    H18 1477   3.277   4.378   7.094  0.1109 -1.2437  1.2250
   51bbb     O1 1478   3.812   4.339   6.767 -0.2368 -0.4131  0.2971
   52bbb     N1 1479   4.800   3.740   7.242 -0.6285  0.0184 -0.2812
   52bbb     C1 1480   4.872   3.859   7.198  0.0159 -0.6360 -0.0318
   52bbb     H1 1481   4.808   3.925   7.138 -0.3629  0.7547  1.8142
   52bbb     H2 1482   4.963   3.831   7.142  0.5288 -0.6986  0.8183
   52bbb     C2 1483   4.861   3.644   7.344  0.6169  0.1816  0.8180
   52bbb     H3 1484   4.774   3.587   7.380 -0.3815  1.9249  1.2742
   52bbb     H4 1485   4.897   3.693   7.436 -0.1543  1.2213  0.5845
   52bbb     C3 1486   4.706   3.669   7.142 -0.0066  0.0590 -0.5337
   52bbb     H5 1487   4.657   3.595   7.206 -0.2780  1.2129  0.6568
   52bbb     H6 1488   4.767   3.621   7.066  0.1351 -1.3087  0.4130
   52bbb     C4 1489   4.602   3.766   7.083  0.0411 -0.3819 -0.7848
   52bbb     H7 1490   4.544   3.709   7.009  0.3266 -0.3090 -1.0658
   52bbb     H8 1491   4.649   3.853   7.036  0.2079 -0.3501 -0.5580
   52bbb     C5 1492   4.915   3.944   7.323 -0.8383  0.6397 -0.4880
   52bbb     H9 1493   4.956   4.039   7.286  1.2350 -0.1783 -0.3933
   52bbb    H10 1494   4.989   3.894   7.386 -1.7818  1.3091  1.2348
   52bbb     C6 1495   4.968   3.554   7.280  0.2171 -0.0433 -0.6332
   52bbb    H11 1496   5.052   3.620   7.254  1.1811 -1.4629 -1.2130
   52bbb    H12 1497   4.937   3.503   7.189  0.2855  0.3033 -0.8528
   52bbb     C7 1498   4.499   3.820   7.188 -0.2298  0.4816  0.0020
   52bbb    H13 1499   4.544   3.864   7.278  0.9815 -0.9465  0.1358
   52bbb    H14 1500   4.426   3.742   7.213 -0.4074  1.0480  1.2959
   52bbb     C8 1501   5.043   3.463   7.382  1.1064  1.0196  0.5755
   52bbb    H15 1502   5.095   3.515   7.463 -0.2698 -0.0445  2.2007
   52bbb    H16 1503   5.130   3.420   7.330  0.4441 -0.9679  1.0179
   52bbb     C9 1504   4.799   3.978   7.420 -0.8934  0.3834  0.3678
   52bbb    H17 1505   4.839   4.035   7.505 -0.5159 -0.3143  0.6720
   52bbb    H18 1506   4.746   3.888   7.455  1.9251 -1.3139  0.6136
   52bbb     O1 1507   4.432   3.928   7.122 -0.0371 -0.1026  0.5735
   53bbb     N1 1508   3.631   4.964   6.421  0.7215 -0.5785  0.5202
   53bbb     C1 1509   3.749   5.050   6.433  0.2516 -0.2459 -0.4977
   53bbb     H1 1510   3.809   5.040   6.342  1.0302 -0.5018  0.0274
   53bbb     H2 1511   3.808   5.021   6.522  1.1342  0.2848 -0.9003
   53bbb     C2 1512   3.557   4.974   6.289 -0.0404 -0.0138 -0.3886
   53bbb     H3 1513   3.525   5.079   6.280  1.1570  0.4770  0.6493
   53bbb     H4 1514   3.469   4.909   6.290  1.4606 -2.1747  0.4181
   53bbb     C3 1515   3.535   4.985   6.528  0.2696  0.2697  0.2588
   53bbb     H5 1516   3.446   4.924   6.510  0.0453  0.4155  0.8489
   53bbb     H6 1517   3.497   5.088   6.529 -0.2107  0.0978 -0.2513
   53bbb     C4 1518   3.597   4.936   6.664 -0.3068  0.9049 -0.2377
   53bbb     H7 1519   3.667   5.011   6.703 -0.4653  0.0221  1.8689
   53bbb     H8 1520   3.649   4.840   6.657 -0.2678  0.8724  0.4268
   53bbb     C5 1521   3.720   5.202   6.435  0.4267 -0.1366  0.1657
   53bbb     H9 1522   3.650   5.228   6.514 -1.3782 -0.2303 -1.3373
   53bbb    H10 1523   3.675   5.233   6.340 -1.5665 -0.7983  0.8421
   53bbb     C6 1524   3.627   4.918   6.166  0.2206  0.4786  0.1205
   53bbb    H11 1525   3.672   4.821   6.191  0.0335  0.6183  1.0552
   53bbb    H12 1526   3.714   4.980   6.145  1.2368 -1.4962 -1.9202
   53bbb     C7 1527   3.481   4.915   6.766 -0.0964  0.1796  0.9683
   53bbb    H13 1528   3.535   4.928   6.860  1.1211  1.7424  0.1061
   53bbb    H14 1529   3.427   4.819   6.766  0.4302 -0.1247  0.8454
   53bbb     C8 1530   3.547   4.906   6.039  0.5876  0.8058  0.8479
   53bbb    H15 1531   3.486   4.815   6.034  0.2703  1.0353  0.5011
   53bbb    H16 1532   3.616   4.899   5.954 -0.4915  1.2027 -0.0720
   53bbb     C9 1533   3.851   5.274   6.451 -0.6813  0.4968  0.1847
   53bbb    H17 1534   3.932   5.255   6.379 -2.0783  0.0543 -1.3151
   53bbb    H18 1535   3.882   5.258   6.555 -2.9890  2.2747  1.2434
   53bbb     O1 1536   3.394   5.032   6.765  0.1341 -0.1300  0.0637
   54bbb     N1 1537   3.097   5.067   6.312  0.1907  0.3115  0.5265
   54bbb     C1 1538   3.073   5.094   6.453  0.2471  0.3619 -0.0244
   54bbb     H1 1539   3.029   5.194   6.454  1.2454  0.8350  1.6818
   54bbb     H2 1540   3.171   5.097   6.503  0.6580 -2.2318 -0.5315
   54bbb     C2 1541   3.175   4.942   6.275  0.1389 -0.0756 -0.1726
   54bbb     H3 1542   3.184   4.871   6.358 -1.0919  0.1446  0.1650
   54bbb     H4 1543   3.278   4.973   6.255  1.1019 -1.6095  2.0071
   54bbb     C3 1544   3.140   5.186   6.225 -0.1587 -0.1019 -0.1209
   54bbb     H5 1545   3.082   5.269   6.265  0.6701 -0.2772  1.5261
   54bbb     H6 1546   3.129   5.172   6.116 -0.9352 -0.9112  0.0506
   54bbb     C4 1547   3.291   5.234   6.255 -0.7112  0.0135 -0.3746
   54bbb     H7 1548   3.355   5.194   6.175  1.6760  2.5954  0.0416
   54bbb     H8 1549   3.317   5.186   6.349  1.0197 -2.8463 -2.1716
   54bbb     C5 1550   2.983   4.996   6.522  0.1406  0.8034 -0.3871
   54bbb     H9 1551   3.020   4.897   6.496 -4.3278 -1.0886 -0.4325
   54bbb    H10 1552   2.883   5.005   6.479 -0.0563  1.2855  0.1481
   54bbb     C6 1553   3.113   4.864   6.154 -0.0161 -0.3868 -0.6799
   54bbb    H11 1554   3.189   4.813   6.093  0.9161  1.0733 -0.7887
   54bbb    H12 1555   3.077   4.936   6.079 -0.0681  0.2394 -0.0672
   54bbb     C7 1556   3.312   5.390   6.246  0.0723  0.2589  0.7510
   54bbb    H13 1557   3.253   5.434   6.164 -1.3247 -1.1994  0.9205
   54bbb    H14 1558   3.420   5.409   6.238  0.3676 -1.2421  0.9569
   54bbb     C8 1559   2.996   4.772   6.206 -0.3700 -0.5070 -0.3019
   54bbb    H15 1560   2.940   4.734   6.119  1.3417 -0.8354 -1.3088
   54bbb    H16 1561   2.934   4.830   6.276 -1.2253  0.5276 -1.8446
   54bbb     C9 1562   2.993   5.013   6.676 -0.3360  0.1120 -0.2674
   54bbb    H17 1563   3.093   4.984   6.710 -0.6881  0.4717  1.1465
   54bbb    H18 1564   2.927   4.937   6.720  2.0363 -1.9994 -0.1546
   54bbb     O1 1565   3.247   5.449   6.359  0.4013  0.8724 -0.9597
   55bbb     N1 1566   5.547   3.970   9.836 -0.1351 -0.2184  0.6480
   55bbb     C1 1567   5.586   3.962   9.984 -0.0969  0.6105  0.5157
   55bbb     H1 1568   5.569   4.054  10.041 -1.0691  1.0754 -0.4691
   55bbb     H2 1569   5.693   3.938   9.983 -0.1840  0.2126 -0.1468
   55bbb     C2 1570   5.636   3.884   9.752  0.2788  0.3247 -0.2821
   55bbb     H3 1571   5.627   3.777   9.776  0.7831  0.1890 -0.6822
   55bbb     H4 1572   5.741   3.902   9.780  0.6621 -1.2103 -0.6233
   55bbb     C3 1573   5.546   4.111   9.793  0.1891  0.3944 -0.0349
   55bbb     H5 1574   5.522   4.129   9.688  2.0453  0.2754 -0.5226
   55bbb     H6 1575   5.646   4.152   9.811  1.2118 -2.7456  2.3241
   55bbb     C4 1576   5.429   4.189   9.853 -0.0554  0.6653 -1.0817
   55bbb     H7 1577   5.459   4.223   9.953 -0.2645 -1.3193 -0.3020
   55bbb     H8 1578   5.345   4.118   9.863  1.1570 -0.6583  0.1849
   55bbb     C5 1579   5.506   3.840  10.039 -0.5088 -0.1157  0.6028
   55bbb     H9 1580   5.535   3.758   9.973  1.4824  1.1839 -0.2422
   55bbb    H10 1581   5.399   3.863  10.029  0.0088  1.6302 -1.8220
   55bbb     C6 1582   5.623   3.906   9.604  0.0766 -0.0637  0.6358
   55bbb    H11 1583   5.679   3.997   9.582 -0.0169 -0.0443  0.4760
   55bbb    H12 1584   5.518   3.918   9.575  0.2077  2.0824  0.9252
   55bbb     C7 1585   5.387   4.313   9.774  0.0985  0.4008  0.2328
   55bbb    H13 1586   5.301   4.361   9.822  0.2926  1.1344 -0.1305
   55bbb    H14 1587   5.350   4.278   9.676  0.9598  3.1392 -1.1799
   55bbb     C8 1588   5.698   3.791   9.527  0.2097  0.9407  0.3836
   55bbb    H15 1589   5.633   3.704   9.537  0.6330  0.5597 -0.1521
   55bbb    H16 1590   5.797   3.786   9.575 -0.4949 -2.3177  1.7666
   55bbb     C9 1591   5.530   3.805  10.184 -0.2408  0.0759  0.7680
   55bbb    H17 1592   5.471   3.880  10.240 -0.3468  0.8764 -0.3869
   55bbb    H18 1593   5.636   3.819  10.209  0.0289 -0.5087 -0.0384
   55bbb     O1 1594   5.504   4.401   9.753 -0.5940 -0.4981  0.1503
   56bbb     N1 1595   6.329   5.051   9.389 -0.3072  0.1251 -0.0910
   56bbb     C1 1596   6.321   4.998   9.530  0.5157  0.4464  0.2525
   56bbb     H1 1597   6.410   5.042   9.578  0.7619 -0.2447  0.4368
   56bbb     H2 1598   6.350   4.893   9.541  3.0022  1.1242  0.9154
   56bbb     C2 1599   6.320   5.204   9.378  0.0562  0.0444 -0.0267
   56bbb     H3 1600   6.219   5.243   9.389  0.1493  0.4601 -0.5991
   56bbb     H4 1601   6.341   5.224   9.272 -2.4335 -2.6390 -1.1637
   56bbb     C3 1602   6.225   4.983   9.301 -0.0613  0.7044  0.3532
   56bbb     H5 1603   6.245   5.009   9.197 -0.4688 -1.1567 -0.2232
   56bbb     H6 1604   6.132   5.036   9.324  0.3205  1.3431  0.4704
   56bbb     C4 1605   6.219   4.831   9.312  0.7082  0.5361  0.0086
   56bbb     H7 1606   6.218   4.794   9.415  0.7848  1.5982  0.4082
   56bbb     H8 1607   6.310   4.795   9.263  1.1005  0.7732  0.5512
   56bbb     C5 1608   6.191   5.030   9.605 -0.5815 -0.0831 -0.9818
   56bbb     H9 1609   6.094   4.985   9.580 -1.2524  1.3595 -1.0715
   56bbb    H10 1610   6.175   5.137   9.592 -3.4289 -0.2829  0.1831
   56bbb     C6 1611   6.408   5.282   9.478  0.0306  0.3657 -0.2907
   56bbb    H11 1612   6.389   5.271   9.586 -1.2862 -0.6401 -0.6051
   56bbb    H12 1613   6.390   5.389   9.466 -1.4015  0.0630 -1.0081
   56bbb     C7 1614   6.107   4.768   9.226  0.0533 -0.2107  0.3384
   56bbb    H13 1615   6.121   4.660   9.240 -1.6377 -0.3346  1.3824
   56bbb    H14 1616   6.105   4.802   9.122 -0.2584  1.1842  0.7689
   56bbb     C8 1617   6.555   5.247   9.456  0.4430 -0.4050 -0.2585
   56bbb    H15 1618   6.574   5.238   9.348 -2.5384 -1.0244 -0.8180
   56bbb    H16 1619   6.563   5.145   9.497  1.8822  0.4433  1.7409
   56bbb     C9 1620   6.223   4.990   9.751  0.0266 -0.0648  0.1256
   56bbb    H17 1621   6.168   5.050   9.824  1.4105  0.9775  0.3325
   56bbb    H18 1622   6.326   5.021   9.770  0.3178 -0.9843  0.1252
   56bbb     O1 1623   5.983   4.814   9.282 -0.5642 -0.2294  0.0886
   57bbb     N1 1624   5.903   3.550   9.832 -0.4694 -0.0334  0.6443
   57bbb     C1 1625   5.843   3.624   9.942 -0.5397 -0.8237  0.7703
   57bbb     H1 1626   5.779   3.709   9.912  0.0896 -0.8155 -0.6604
   57bbb     H2 1627   5.918   3.680   9.999 -2.2605  3.0814 -0.4588
   57bbb     C2 1628   5.800   3.482   9.750  0.2077 -0.6592 -0.5751
   57bbb     H3 1629   5.728   3.555   9.711  1.4149  0.5413 -0.6635
   57bbb     H4 1630   5.746   3.412   9.814  1.6013  0.1436  1.5749
   57bbb     C3 1631   5.997   3.639   9.754 -0.0283 -0.7947  0.1256
   57bbb     H5 1632   5.939   3.711   9.694  1.3469 -0.6470 -1.0830
   57bbb     H6 1633   6.066   3.585   9.688 -0.1439  1.2297 -1.7663
   57bbb     C4 1634   6.095   3.728   9.838 -0.4698  0.0307  0.6356
   57bbb     H7 1635   6.147   3.659   9.905 -0.3572 -0.7997 -0.2713
   57bbb     H8 1636   6.045   3.798   9.905 -1.2971  0.0234  0.0497
   57bbb     C5 1637   5.775   3.538  10.052 -0.5447  0.6953 -0.2900
   57bbb     H9 1638   5.691   3.482  10.009 -0.9364  2.0525 -1.3951
   57bbb    H10 1639   5.743   3.603  10.134 -1.3669 -0.0084 -0.0469
   57bbb     C6 1640   5.852   3.392   9.640  0.8482 -0.6692  0.3879
   57bbb    H11 1641   5.924   3.321   9.681 -1.4943 -2.4340  1.6501
   57bbb    H12 1642   5.905   3.461   9.572 -0.7862  0.9609  0.7097
   57bbb     C7 1643   6.190   3.795   9.736 -0.1246 -0.7197  0.4255
   57bbb    H13 1644   6.242   3.720   9.675 -0.3580 -0.1056 -0.5496
   57bbb    H14 1645   6.267   3.849   9.793 -2.5903  3.0647  0.5087
   57bbb     C8 1646   5.742   3.326   9.551 -0.0386 -0.0033 -0.3003
   57bbb    H15 1647   5.796   3.315   9.457 -0.9686  1.8193 -1.1045
   57bbb    H16 1648   5.664   3.401   9.535  2.0946  3.7327  4.3117
   57bbb     C9 1649   5.865   3.433  10.119 -0.1387 -0.4649  0.1939
   57bbb    H17 1650   5.953   3.474  10.171 -0.7013  2.6685 -1.1178
   57bbb    H18 1651   5.903   3.365  10.042  1.7189 -0.1052  0.7344
   57bbb     O1 1652   6.122   3.878   9.643  0.0506  0.6425 -0.1796
   58bbb     N1 1653   6.707   4.727   9.677  0.6349  0.7020  0.5978
   58bbb     C1 1654   6.668   4.867   9.694  0.1800 -0.5380 -0.4779
   58bbb     H1 1655   6.583   4.880   9.626 -0.9509  1.0449  1.1690
   58bbb     H2 1656   6.743   4.945   9.675 -1.0044  0.7000 -0.2471
   58bbb     C2 1657   6.846   4.693   9.709 -1.2338  0.1887  0.0488
   58bbb     H3 1658   6.870   4.588   9.688 -0.0738  0.2406  1.0358
   58bbb     H4 1659   6.860   4.702   9.817 -0.0469  1.4827 -0.1951
   58bbb     C3 1660   6.619   4.610   9.711 -0.5634  0.1677 -0.3997
   58bbb     H5 1661   6.604   4.609   9.820 -0.3486 -0.7084 -0.3761
   58bbb     H6 1662   6.668   4.516   9.684  0.3263  0.4351  0.2526
   58bbb     C4 1663   6.486   4.609   9.630 -0.2172 -0.2352 -0.0799
   58bbb     H7 1664   6.499   4.644   9.527 -0.8485  0.7988  0.1882
   58bbb     H8 1665   6.415   4.670   9.687 -1.1170 -0.3425 -1.0522
   58bbb     C5 1666   6.615   4.899   9.841  1.1694  0.1964 -0.3309
   58bbb     H9 1667   6.555   4.811   9.865  2.0195 -2.0999 -5.4352
   58bbb    H10 1668   6.552   4.988   9.830  0.4476 -0.5212 -2.2320
   58bbb     C6 1669   6.948   4.791   9.644  0.5540 -0.8231  0.6301
   58bbb    H11 1670   6.947   4.888   9.695 -1.9597 -1.1367  1.3117
   58bbb    H12 1671   6.910   4.808   9.543  1.9800  0.5231  0.2800
   58bbb     C7 1672   6.418   4.470   9.634 -0.4769 -0.3638  0.0330
   58bbb    H13 1673   6.396   4.454   9.740  1.9210 -0.3271  0.5927
   58bbb    H14 1674   6.478   4.384   9.602 -1.3696 -0.2177 -2.2114
   58bbb     C8 1675   7.086   4.730   9.625  0.3019  0.2840  1.0292
   58bbb    H15 1676   7.132   4.786   9.543 -2.6484 -1.3265 -1.9429
   58bbb    H16 1677   7.077   4.631   9.579 -0.8574  1.3250 -1.1192
   58bbb     C9 1678   6.729   4.925   9.948 -0.1421 -0.3959  0.4978
   58bbb    H17 1679   6.784   4.832   9.964  0.0501 -0.3104  0.3377
   58bbb    H18 1680   6.681   4.951  10.043 -0.0321  0.3304  0.3579
   58bbb     O1 1681   6.300   4.482   9.549 -0.0679 -0.0684  0.5270
   59bbb     N1 1682   4.432   3.730   9.634  0.2939  0.6784 -0.0649
   59bbb     C1 1683   4.305   3.772   9.691 -0.0540  0.4610 -0.0997
   59bbb     H1 1684   4.293   3.881   9.696  0.4377  0.6448 -2.1813
   59bbb     H2 1685   4.300   3.741   9.797  1.3721  1.5624  0.3293
   59bbb     C2 1686   4.454   3.774   9.487 -0.0209 -0.0270 -0.2626
   59bbb     H3 1687   4.381   3.722   9.424 -1.6868 -1.7752  2.8571
   59bbb     H4 1688   4.550   3.740   9.448 -0.1632  1.0971 -1.6934
   59bbb     C3 1689   4.537   3.734   9.733 -0.5318 -0.7832 -0.1099
   59bbb     H5 1690   4.518   3.662   9.814 -1.9533 -4.4438 -3.4017
   59bbb     H6 1691   4.546   3.839   9.762 -1.2126 -0.8435  0.3669
   59bbb     C4 1692   4.676   3.679   9.681  0.3254 -1.0368 -0.5310
   59bbb     H7 1693   4.746   3.704   9.762 -0.1512 -3.6992  0.8248
   59bbb     H8 1694   4.715   3.731   9.593  0.3363  1.6526  0.9554
   59bbb     C5 1695   4.193   3.711   9.604 -0.3099 -0.3641  0.3220
   59bbb     H9 1696   4.209   3.603   9.590 -2.7973 -0.7060 -0.3726
   59bbb    H10 1697   4.189   3.756   9.505  1.2641  0.5149  0.6222
   59bbb     C6 1698   4.441   3.926   9.468 -0.3752 -0.5889 -0.2831
   59bbb    H11 1699   4.470   3.970   9.564 -2.0836 -0.2397  0.1184
   59bbb    H12 1700   4.337   3.962   9.463 -0.4690 -0.7366  0.5241
   59bbb     C7 1701   4.682   3.526   9.661 -0.0821 -0.1963  0.7243
   59bbb    H13 1702   4.595   3.504   9.598  2.0325 -2.5899 -1.6041
   59bbb    H14 1703   4.680   3.467   9.754 -0.8491 -0.0022  0.8413
   59bbb     C8 1704   4.532   3.987   9.353 -0.2471 -0.0488 -0.6767
   59bbb    H15 1705   4.496   3.938   9.262 -0.3243 -0.9518 -0.1696
   59bbb    H16 1706   4.629   3.942   9.374 -0.8323 -0.7314  0.6841
   59bbb     C9 1707   4.052   3.737   9.661 -0.3625 -0.5088  0.1803
   59bbb    H17 1708   4.030   3.675   9.749 -1.7829 -1.9367 -1.1367
   59bbb    H18 1709   3.992   3.679   9.590  0.1301  1.6576 -2.1591
   59bbb     O1 1710   4.801   3.491   9.590  0.6940  0.0072 -0.4395
   60bbb     N1 1711   4.979   3.557  10.591  0.0547 -0.0454  0.4461
   60bbb     C1 1712   5.065   3.452  10.653 -0.1366 -0.1309  0.1838
   60bbb     H1 1713   5.173   3.458  10.635  0.0331  0.2016  1.2442
   60bbb     H2 1714   5.048   3.352  10.611 -0.7565 -0.8770  2.0866
   60bbb     C2 1715   4.836   3.524  10.567 -0.0780  0.7106 -0.0772
   60bbb     H3 1716   4.801   3.490  10.666 -0.5634  0.1599 -0.4357
   60bbb     H4 1717   4.825   3.437  10.503 -0.2933  1.2976 -0.8513
   60bbb     C3 1718   5.038   3.607  10.466 -0.1688 -0.4371  0.4167
   60bbb     H5 1719   5.123   3.674  10.485 -0.4765 -0.2575  1.1887
   60bbb     H6 1720   4.968   3.669  10.410 -1.1708 -1.2750  0.7227
   60bbb     C4 1721   5.090   3.505  10.361  0.2188  0.6650 -0.0139
   60bbb     H7 1722   5.022   3.421  10.342  1.9712 -1.4159  2.2294
   60bbb     H8 1723   5.183   3.458  10.396 -0.9757 -1.4716  0.4130
   60bbb     C5 1724   5.039   3.450  10.809 -0.3243 -0.6671 -0.2113
   60bbb     H9 1725   4.931   3.456  10.829 -0.0318 -0.4448  1.4882
   60bbb    H10 1726   5.082   3.541  10.853 -0.0817 -1.2733  0.8369
   60bbb     C6 1727   4.744   3.648  10.526 -0.5718  1.0068  0.0849
   60bbb    H11 1728   4.760   3.678  10.422  2.0975  0.3322  0.2410
   60bbb    H12 1729   4.776   3.732  10.588  0.6600  0.3841  0.3161
   60bbb     C7 1730   5.138   3.576  10.229 -0.0579 -0.0091  0.2009
   60bbb    H13 1731   5.203   3.660  10.257 -0.4443  0.8315 -1.3435
   60bbb    H14 1732   5.054   3.616  10.172  0.2816 -0.4503 -0.6210
   60bbb     C8 1733   4.590   3.630  10.540  0.0338 -0.7593 -0.1048
   60bbb    H15 1734   4.557   3.698  10.620  0.3989 -0.8596  0.1356
   60bbb    H16 1735   4.571   3.527  10.571 -0.1248 -0.1075  2.1606
   60bbb     C9 1736   5.094   3.316  10.868  0.4309  0.0193 -0.3861
   60bbb    H17 1737   5.196   3.303  10.830  0.5542  0.5164 -0.2385
   60bbb    H18 1738   5.021   3.240  10.841 -2.3002  2.2536  0.2403
   60bbb     O1 1739   5.206   3.486  10.144  0.3700  0.0721 -0.6601
   61bbb     N1 1740   4.729   3.621   7.790  0.1237 -0.4638 -0.2754
   61bbb     C1 1741   4.614   3.687   7.870  0.1291  0.6796 -0.0074
   61bbb     H1 1742   4.650   3.682   7.974  1.2464  1.9767 -0.3044
   61bbb     H2 1743   4.517   3.635   7.879 -0.5063  1.7841 -0.2159
   61bbb     C2 1744   4.725   3.478   7.814 -0.0254 -0.0280 -0.1856
   61bbb     H3 1745   4.724   3.455   7.921 -0.2304 -0.0127 -0.1837
   61bbb     H4 1746   4.812   3.427   7.772  1.0008  1.1941  0.3988
   61bbb     C3 1747   4.855   3.697   7.821  0.5267 -0.6007  0.1108
   61bbb     H5 1748   4.882   3.692   7.928  2.7659 -2.4352 -0.4398
   61bbb     H6 1749   4.842   3.802   7.793  0.5462 -0.6831 -0.2129
   61bbb     C4 1750   4.973   3.649   7.735 -0.1646 -0.9477 -0.2522
   61bbb     H7 1751   4.934   3.615   7.638 -2.4139 -1.4752  0.7637
   61bbb     H8 1752   5.014   3.561   7.787  2.2888  0.4926  0.4326
   61bbb     C5 1753   4.578   3.833   7.815 -0.3928  0.1310  0.1779
   61bbb     H9 1754   4.661   3.903   7.829 -2.1109  2.2076  0.3222
   61bbb    H10 1755   4.503   3.879   7.879 -0.9602 -0.2737 -0.1890
   61bbb     C6 1756   4.605   3.407   7.749 -0.0122 -0.3795 -0.5999
   61bbb    H11 1757   4.512   3.446   7.792 -0.7664 -0.9545 -1.6477
   61bbb    H12 1758   4.609   3.301   7.777 -0.1036 -0.1581  0.2750
   61bbb     C7 1759   5.093   3.744   7.707  0.7059 -0.1359 -0.0994
   61bbb    H13 1760   5.047   3.843   7.696 -1.3935 -0.9922  0.4286
   61bbb    H14 1761   5.141   3.711   7.614 -0.4749 -1.5608 -0.2302
   61bbb     C8 1762   4.605   3.435   7.595 -0.1137 -0.5342 -0.5557
   61bbb    H15 1763   4.703   3.473   7.562  0.1419 -0.2567  0.4962
   61bbb    H16 1764   4.537   3.518   7.577  0.8509  0.4440  0.1866
   61bbb     C9 1765   4.543   3.831   7.666 -0.1150  0.3164  0.4652
   61bbb    H17 1766   4.604   3.752   7.619 -1.1199 -0.3443  0.2348
   61bbb    H18 1767   4.563   3.926   7.617 -1.1000 -0.5855 -1.8020
   61bbb     O1 1768   5.191   3.755   7.816 -0.4970  0.2134  0.1005
   62bbb     N1 1769   5.148   2.950   8.363 -0.5234  0.2888 -0.6628
   62bbb     C1 1770   5.170   2.835   8.460 -0.3591 -0.8341 -0.6930
   62bbb     H1 1771   5.081   2.772   8.473 -0.3083 -0.6315  0.8459
   62bbb     H2 1772   5.188   2.881   8.558  0.2751  0.9346 -1.6018
   62bbb     C2 1773   5.021   3.022   8.391  0.1163  0.3755 -0.1211
   62bbb     H3 1774   5.031   3.083   8.482 -2.5941 -1.8736  1.8669
   62bbb     H4 1775   4.956   2.941   8.427  2.5132 -1.6286 -0.0278
   62bbb     C3 1776   5.263   3.028   8.320  0.5878  0.3631 -0.5610
   62bbb     H5 1777   5.235   3.107   8.249  0.0999  1.3629  0.7054
   62bbb     H6 1778   5.335   2.957   8.278  0.8150  1.2757 -1.7602
   62bbb     C4 1779   5.334   3.102   8.434 -0.3135 -0.7049  0.5516
   62bbb     H7 1780   5.363   3.035   8.516  1.2013 -2.3669 -1.2306
   62bbb     H8 1781   5.273   3.181   8.479 -0.0429  0.0812 -0.4221
   62bbb     C5 1782   5.284   2.741   8.432  0.2362  0.0769  0.1632
   62bbb     H9 1783   5.291   2.681   8.523 -1.7069 -1.6433 -0.7450
   62bbb    H10 1784   5.374   2.805   8.430  0.6298 -0.4700 -1.0466
   62bbb     C6 1785   4.969   3.096   8.271 -0.4804  0.4836 -0.3546
   62bbb    H11 1786   4.860   3.081   8.267 -0.4176 -0.3974  0.8359
   62bbb    H12 1787   5.001   3.050   8.177 -0.7454 -0.3262 -0.0584
   62bbb     C7 1788   5.460   3.181   8.382  0.5714 -0.3766 -0.1609
   62bbb    H13 1789   5.529   3.114   8.330  1.0096 -0.6434  0.7543
   62bbb    H14 1790   5.514   3.216   8.471 -0.3313 -0.6177  0.5019
   62bbb     C8 1791   4.993   3.248   8.276  0.2389 -0.5407 -0.2234
   62bbb    H15 1792   5.096   3.268   8.308 -0.6455  1.5556  1.5839
   62bbb    H16 1793   4.937   3.288   8.361 -0.2447 -1.7735  0.0660
   62bbb     C9 1794   5.267   2.648   8.302  0.1621 -0.2301 -0.2285
   62bbb    H17 1795   5.274   2.710   8.212  1.3174  1.1389  0.7576
   62bbb    H18 1796   5.164   2.608   8.302  0.4584 -1.1576  2.1032
   62bbb     O1 1797   5.421   3.299   8.292  0.1983  0.4425  0.2938
   63bbb     N1 1798   5.163   7.560   7.128  0.2566  0.0945  0.0345
   63bbb     C1 1799   5.058   7.653   7.084  0.1808 -0.1606 -0.2946
   63bbb     H1 1800   5.039   7.660   6.977  1.9594  1.0256 -0.5730
   63bbb     H2 1801   5.093   7.753   7.111 -0.7268  0.0518  0.1060
   63bbb     C2 1802   5.298   7.602   7.079  0.3612  0.0730 -0.0965
   63bbb     H3 1803   5.290   7.573   6.974 -0.5263  0.8790 -0.2658
   63bbb     H4 1804   5.370   7.535   7.127 -1.4226 -0.8351  1.4826
   63bbb     C3 1805   5.139   7.412   7.100  0.4269 -0.0388  0.1313
   63bbb     H5 1806   5.165   7.394   6.995  0.5625  2.5657 -0.3363
   63bbb     H6 1807   5.035   7.387   7.121 -0.1401  0.5952 -1.7613
   63bbb     C4 1808   5.229   7.312   7.178  0.5473 -0.0726 -0.0727
   63bbb     H7 1809   5.213   7.333   7.285 -4.9911 -0.6217 -0.5170
   63bbb     H8 1810   5.337   7.325   7.168  0.6288  2.6845  2.7682
   63bbb     C5 1811   4.920   7.636   7.152  0.0624 -0.0531  0.2531
   63bbb     H9 1812   4.930   7.604   7.257 -2.1666 -3.2052 -0.3411
   63bbb    H10 1813   4.866   7.558   7.097 -1.3169  2.1658 -1.7818
   63bbb     C6 1814   5.355   7.747   7.102 -1.0599  0.2684 -0.4389
   63bbb    H11 1815   5.302   7.821   7.041 -1.3969 -1.4225 -2.3133
   63bbb    H12 1816   5.451   7.740   7.048  0.5227  0.8520  2.1425
   63bbb     C7 1817   5.185   7.170   7.152  0.8282  0.4709 -0.8572
   63bbb    H13 1818   5.172   7.152   7.044 -2.0606  1.9989 -0.8580
   63bbb    H14 1819   5.088   7.160   7.203  0.6313  2.5069 -0.7666
   63bbb     C8 1820   5.364   7.786   7.256 -0.3272  0.1275  0.5371
   63bbb    H15 1821   5.432   7.712   7.300  1.0905  1.4343  0.6283
   63bbb    H16 1822   5.266   7.769   7.303 -1.5022  0.8726 -1.5173
   63bbb     C9 1823   4.839   7.774   7.140 -0.2669  0.0615 -0.0670
   63bbb    H17 1824   4.876   7.852   7.208 -1.1282  2.8352 -2.5227
   63bbb    H18 1825   4.736   7.756   7.174 -0.4673 -0.5537 -0.9549
   63bbb     O1 1826   5.272   7.069   7.208 -0.2340 -0.3957  0.1751
   64bbb     N1 1827   5.640   6.405   6.454 -0.2578  0.6184 -0.0282
   64bbb     C1 1828   5.761   6.482   6.483 -0.1395 -0.3081 -0.5706
   64bbb     H1 1829   5.824   6.470   6.394  1.7412 -1.0384  0.7777
   64bbb     H2 1830   5.826   6.435   6.559  1.0697  0.3443 -1.1766
   64bbb     C2 1831   5.574   6.426   6.323 -0.6474  0.1684 -0.1653
   64bbb     H3 1832   5.624   6.514   6.281 -0.8604  0.0292 -0.7214
   64bbb     H4 1833   5.468   6.452   6.328 -1.4534 -2.5763 -1.2978
   64bbb     C3 1834   5.549   6.365   6.566 -0.1158 -0.6929  0.0918
   64bbb     H5 1835   5.465   6.304   6.533  0.9243 -1.8763 -0.4283
   64bbb     H6 1836   5.504   6.458   6.604 -3.5983 -1.9276 -0.6616
   64bbb     C4 1837   5.611   6.292   6.682  0.0917 -0.4168 -0.8926
   64bbb     H7 1838   5.685   6.361   6.723 -0.7458  0.9060 -1.5617
   64bbb     H8 1839   5.667   6.207   6.640  0.7825 -0.4866  0.1278
   64bbb     C5 1840   5.747   6.629   6.515 -0.1583 -0.1818 -0.1040
   64bbb     H9 1841   5.698   6.632   6.613  0.7071 -0.9738  0.3697
   64bbb    H10 1842   5.670   6.671   6.449  0.9195  1.4373 -0.3904
   64bbb     C6 1843   5.592   6.307   6.226  0.6518  0.2264 -0.0945
   64bbb    H11 1844   5.535   6.332   6.136 -0.5886  2.9630  1.3232
   64bbb    H12 1845   5.540   6.219   6.266 -0.9758  1.1846 -0.0220
   64bbb     C7 1846   5.510   6.234   6.779  0.0401 -0.9285  0.3168
   64bbb    H13 1847   5.566   6.178   6.854 -0.0377  1.2571  2.1346
   64bbb    H14 1848   5.441   6.172   6.721  0.8057  0.5009 -2.2505
   64bbb     C8 1849   5.731   6.255   6.186 -0.6425 -0.3841 -0.0653
   64bbb    H15 1850   5.721   6.156   6.139 -2.0782 -0.5394  0.4903
   64bbb    H16 1851   5.786   6.248   6.281 -0.0868 -0.3312 -0.3802
   64bbb     C9 1852   5.879   6.711   6.508  0.0379  0.3989  1.2838
   64bbb    H17 1853   5.870   6.812   6.549 -0.5047  1.8984 -2.1764
   64bbb    H18 1854   5.904   6.719   6.402 -1.2240 -0.7965  0.8634
   64bbb     O1 1855   5.437   6.335   6.843  0.2764  0.0979 -0.0829
   65bbb     N1 1856   5.922   7.785   8.153  0.1129  0.6127  0.0864
   65bbb     C1 1857   6.052   7.723   8.186  0.3394  0.2062  0.1315
   65bbb     H1 1858   6.104   7.729   8.089  1.9242  2.1992  1.0207
   65bbb     H2 1859   6.044   7.617   8.209  0.5426  0.4984  1.6235
   65bbb     C2 1860   5.921   7.934   8.128 -0.0269  0.5302 -0.9004
   65bbb     H3 1861   6.000   7.954   8.054  2.7227 -4.0566  0.4081
   65bbb     H4 1862   5.955   7.998   8.210 -1.3487  1.2219 -0.8752
   65bbb     C3 1863   5.815   7.738   8.238  0.6304  0.1421 -0.1700
   65bbb     H5 1864   5.738   7.813   8.255  0.3002 -0.0150 -0.9332
   65bbb     H6 1865   5.863   7.706   8.331  0.3908  0.8885  0.2134
   65bbb     C4 1866   5.741   7.621   8.173 -0.0230  0.2109  0.1288
   65bbb     H7 1867   5.817   7.548   8.143  0.2848  1.4161 -2.2589
   65bbb     H8 1868   5.698   7.662   8.081 -1.2969  1.8245  1.3816
   65bbb     C5 1869   6.138   7.789   8.292 -0.3843 -0.4663 -0.3087
   65bbb     H9 1870   6.080   7.819   8.381 -0.7001  0.7006 -0.8915
   65bbb    H10 1871   6.179   7.884   8.258 -0.9615  0.2195  0.8458
   65bbb     C6 1872   5.791   7.990   8.073  0.7571 -1.0527  0.2685
   65bbb    H11 1873   5.744   8.051   8.151 -2.5510 -3.2993  0.2282
   65bbb    H12 1874   5.715   7.913   8.054  0.3161 -0.2413 -1.3740
   65bbb     C7 1875   5.637   7.553   8.264 -0.6690  0.5920  0.5335
   65bbb    H13 1876   5.552   7.621   8.272 -1.3066 -0.0903 -0.2242
   65bbb    H14 1877   5.687   7.536   8.361  1.1824 -2.0121 -0.7299
   65bbb     C8 1878   5.814   8.086   7.952  0.5696 -0.8007 -0.2108
   65bbb    H15 1879   5.717   8.129   7.924  0.5024 -0.8614 -0.0707
   65bbb    H16 1880   5.844   8.019   7.871 -0.3349  0.1305 -1.3500
   65bbb     C9 1881   6.267   7.699   8.315 -0.1726  0.7920 -0.3494
   65bbb    H17 1882   6.339   7.712   8.233  0.3192  0.5579  0.0390
   65bbb    H18 1883   6.250   7.591   8.310  1.2262  0.2658  3.1607
   65bbb     O1 1884   5.601   7.423   8.208 -0.3333 -0.0072  0.2036
   66bbb     N1 1885   5.275   6.637   8.561  1.1265  0.2117  0.1218
   66bbb     C1 1886   5.267   6.773   8.615  0.8604  0.0129 -0.1240
   66bbb     H1 1887   5.347   6.803   8.684  0.1956 -2.2136  1.7261
   66bbb     H2 1888   5.192   6.758   8.694  0.2668 -1.2866 -0.9035
   66bbb     C2 1889   5.285   6.542   8.679 -0.7830  0.1658 -0.0456
   66bbb     H3 1890   5.325   6.443   8.655 -0.9092 -0.3984  1.9470
   66bbb     H4 1891   5.185   6.528   8.721 -1.0239  1.5716 -0.0898
   66bbb     C3 1892   5.388   6.627   8.463  0.8611  0.2779 -0.3439
   66bbb     H5 1893   5.486   6.658   8.500  1.2290 -0.4080 -0.7133
   66bbb     H6 1894   5.369   6.700   8.383  1.8522  2.0479  0.9856
   66bbb     C4 1895   5.397   6.482   8.397 -0.3657 -0.2174  0.1776
   66bbb     H7 1896   5.302   6.461   8.346 -0.1122 -0.5388 -0.1693
   66bbb     H8 1897   5.418   6.409   8.476 -0.4880 -0.6899 -0.2205
   66bbb     C5 1898   5.235   6.887   8.516  0.3904  0.4539 -0.1421
   66bbb     H9 1899   5.161   6.865   8.438  2.4727 -2.0578 -1.5539
   66bbb    H10 1900   5.325   6.902   8.455  0.1453  0.5836 -0.4740
   66bbb     C6 1901   5.376   6.580   8.799 -0.1156 -0.4166 -0.2200
   66bbb    H11 1902   5.324   6.663   8.848 -0.1911 -0.5983  0.0075
   66bbb    H12 1903   5.474   6.614   8.764  0.7851 -1.0353  1.5379
   66bbb     C7 1904   5.515   6.470   8.291  1.0644  0.3468  0.1571
   66bbb    H13 1905   5.506   6.380   8.228 -2.2410  0.5472  0.1644
   66bbb    H14 1906   5.608   6.472   8.348  1.5043 -0.0358 -0.5234
   66bbb     C8 1907   5.382   6.470   8.906 -0.1750 -0.6871  0.0325
   66bbb    H15 1908   5.279   6.434   8.922 -0.7240  0.7441 -0.1547
   66bbb    H16 1909   5.414   6.507   9.004 -0.0849 -1.5233  0.3254
   66bbb     C9 1910   5.207   7.026   8.585 -0.4425 -0.3255  0.2640
   66bbb    H17 1911   5.215   7.104   8.508 -1.3223  0.2188  0.7069
   66bbb    H18 1912   5.288   7.045   8.657  0.3661 -1.1646 -0.3969
   66bbb     O1 1913   5.495   6.578   8.202  0.5787  0.4699  0.3076
   67bbb     N1 1914   2.955   8.054   9.179  0.0236 -0.0397 -0.1059
   67bbb     C1 1915   2.937   8.152   9.064  0.0307  0.7927 -0.3490
   67bbb     H1 1916   2.828   8.160   9.057 -0.0678  0.7314  0.8194
   67bbb     H2 1917   2.965   8.110   8.968 -0.8546  1.0613 -0.7399
   67bbb     C2 1918   2.821   8.007   9.242 -0.3891 -0.7076 -0.1099
   67bbb     H3 1919   2.854   7.947   9.328  2.5127 -0.1701 -0.7258
   67bbb     H4 1920   2.760   7.940   9.180  0.5364 -0.1121 -1.7498
   67bbb     C3 1921   3.040   7.940   9.137  0.1184  0.0957 -0.0622
   67bbb     H5 1922   3.008   7.881   9.050 -0.5966 -0.6845  0.7144
   67bbb     H6 1923   3.042   7.854   9.205 -0.5943 -0.1381 -0.3263
   67bbb     C4 1924   3.184   7.972   9.102 -0.4591  0.4085  0.4428
   67bbb     H7 1925   3.225   8.043   9.176 -3.8200  2.7334  0.3180
   67bbb     H8 1926   3.184   8.029   9.009  1.0784  1.6776  1.1610
   67bbb     C5 1927   3.016   8.282   9.062  0.1206 -0.4581 -0.7591
   67bbb     H9 1928   2.996   8.338   8.970 -1.5208 -1.9131 -1.3425
   67bbb    H10 1929   3.123   8.261   9.061  0.5013  1.4019 -2.2838
   67bbb     C6 1930   2.740   8.121   9.300 -0.1407 -0.8816  0.7091
   67bbb    H11 1931   2.699   8.182   9.220  0.2573 -0.6817  0.6534
   67bbb    H12 1932   2.805   8.186   9.361  1.2816 -2.0097  0.4743
   67bbb     C7 1933   3.271   7.842   9.090 -0.1695  1.0745 -0.4960
   67bbb    H13 1934   3.234   7.771   9.165  0.2866  1.2016 -0.1429
   67bbb    H14 1935   3.377   7.865   9.108 -0.3857  1.4457  0.3595
   67bbb     C8 1936   2.628   8.086   9.393  0.9460  0.4121 -0.1500
   67bbb    H15 1937   2.574   8.165   9.446 -0.7499  0.6290 -2.0989
   67bbb    H16 1938   2.676   8.022   9.468  0.9809 -1.0912 -1.3901
   67bbb     C9 1939   2.978   8.369   9.189 -0.1199  0.3240 -0.3777
   67bbb    H17 1940   3.004   8.318   9.282 -0.2230  0.2049 -0.4149
   67bbb    H18 1941   2.872   8.395   9.191 -0.1252  0.4970 -1.6980
   67bbb     O1 1942   3.250   7.786   8.956  0.0687  0.6223  0.5453
   68bbb     N1 1943   2.868   7.836   8.679  0.3183 -0.7190  0.3552
   68bbb     C1 1944   2.733   7.890   8.725 -0.0756 -0.0517  0.6108
   68bbb     H1 1945   2.652   7.822   8.695 -0.2965 -0.7751  2.6931
   68bbb     H2 1946   2.703   7.993   8.702 -2.8087 -0.6131  1.2576
   68bbb     C2 1947   2.985   7.924   8.706  0.7779  0.2287 -0.2591
   68bbb     H3 1948   3.076   7.880   8.663  1.5704  2.2349 -0.7713
   68bbb     H4 1949   2.996   7.930   8.815 -2.2019 -0.0227  0.1214
   68bbb     C3 1950   2.895   7.694   8.701 -0.2441 -1.1595  0.0088
   68bbb     H5 1951   2.935   7.672   8.801  1.7149  1.6500 -0.0300
   68bbb     H6 1952   2.981   7.673   8.636 -0.1434  0.4366 -0.4025
   68bbb     C4 1953   2.787   7.585   8.662 -0.9873 -0.5550  0.0457
   68bbb     H7 1954   2.762   7.605   8.557 -1.8816 -1.0407  0.1614
   68bbb     H8 1955   2.698   7.594   8.725 -0.3877  0.3178  0.7926
   68bbb     C5 1956   2.715   7.892   8.882  0.2369 -0.0201  0.0584
   68bbb     H9 1957   2.796   7.955   8.918 -0.0835 -0.1473  1.0397
   68bbb    H10 1958   2.726   7.795   8.933 -0.0746  0.1332  0.4277
   68bbb     C6 1959   2.964   8.062   8.640 -0.3034 -0.2433  0.9768
   68bbb    H11 1960   2.880   8.103   8.698  0.0083  2.4590 -0.3313
   68bbb    H12 1961   2.929   8.045   8.537  0.6738  0.7946  0.4509
   68bbb     C7 1962   2.854   7.445   8.673  0.0746 -0.3135  0.0411
   68bbb    H13 1963   2.793   7.359   8.703  1.3401 -1.3449 -0.2548
   68bbb    H14 1964   2.935   7.454   8.747  0.1498 -0.7295  0.0112
   68bbb     C8 1965   3.090   8.151   8.643 -0.5264 -0.6743  0.2577
   68bbb    H15 1966   3.073   8.248   8.593 -3.2438 -1.0419  0.3076
   68bbb    H16 1967   3.164   8.090   8.590 -0.3680  1.6467 -2.4137
   68bbb     C9 1968   2.585   7.954   8.929 -0.0332 -0.7645  0.2541
   68bbb    H17 1969   2.598   7.957   9.037 -2.3212  0.6692  0.5570
   68bbb    H18 1970   2.499   7.896   8.895  0.0313 -1.5228  1.3546
   68bbb     O1 1971   2.908   7.418   8.537 -0.4965  0.3532 -0.4758
   69bbb     N1 1972   3.678   6.487   9.707  0.2251 -0.6262 -0.1415
   69bbb     C1 1973   3.635   6.484   9.849  0.0544 -0.3939 -0.0469
   69bbb     H1 1974   3.713   6.536   9.906  0.1739 -0.2821 -0.3122
   69bbb     H2 1975   3.627   6.379   9.878 -1.4113  0.0024  1.1465
   69bbb     C2 1976   3.818   6.431   9.691  0.4707  0.5692 -0.7979
   69bbb     H3 1977   3.834   6.412   9.585 -1.2696 -2.4711 -0.6422
   69bbb     H4 1978   3.824   6.337   9.747 -1.8580  0.9116  0.1481
   69bbb     C3 1979   3.576   6.436   9.606  0.3283  0.2176  0.4090
   69bbb     H5 1980   3.613   6.455   9.505 -0.3512  1.5178  0.3836
   69bbb     H6 1981   3.486   6.497   9.618 -1.3989 -1.9904 -0.5306
   69bbb     C4 1982   3.543   6.281   9.627 -0.7374  0.7167  0.3727
   69bbb     H7 1983   3.528   6.252   9.731  2.0453 -2.4567  0.0390
   69bbb     H8 1984   3.634   6.226   9.598 -1.4789  0.5120 -1.8081
   69bbb     C5 1985   3.496   6.545   9.893 -0.3366  0.4583  0.8187
   69bbb     H9 1986   3.464   6.522   9.995 -1.8136 -1.6069 -0.0553
   69bbb    H10 1987   3.418   6.503   9.829  0.7874  0.3619 -0.5493
   69bbb     C6 1988   3.936   6.518   9.739  0.0814  0.4045  0.0782
   69bbb    H11 1989   4.021   6.453   9.763  0.8181  1.3843  0.1590
   69bbb    H12 1990   3.910   6.579   9.826 -2.7865 -0.2060 -0.2578
   69bbb     C7 1991   3.425   6.233   9.540  0.0162  0.6630 -0.3158
   69bbb    H13 1992   3.409   6.126   9.559  0.6307  0.4295 -1.0431
   69bbb    H14 1993   3.452   6.243   9.434  0.0944  1.3515 -0.2331
   69bbb     C8 1994   3.990   6.607   9.630 -0.3413  0.0459  0.8047
   69bbb    H15 1995   3.913   6.678   9.598 -0.4239 -1.1827 -2.0049
   69bbb    H16 1996   4.016   6.548   9.541 -0.6567 -0.8310  1.2809
   69bbb     C9 1997   3.487   6.694   9.865 -0.6651 -0.2636 -0.1630
   69bbb    H17 1998   3.474   6.719   9.759 -0.2848  0.7569  0.0197
   69bbb    H18 1999   3.588   6.727   9.892 -1.1120  2.3585 -1.4200
   69bbb     O1 2000   3.311   6.312   9.567  0.2190  0.2473 -0.5613
   70bbb     N1 2001   2.497   6.880   9.109  0.1493 -0.7020  0.1921
   70bbb     C1 2002   2.402   6.979   9.160  0.0354 -0.1227  0.1275
   70bbb     H1 2003   2.302   6.943   9.185  0.3123 -0.7126  0.4098
   70bbb     H2 2004   2.386   7.046   9.074 -1.1728 -1.0975 -0.4464
   70bbb     C2 2005   2.435   6.785   9.013  0.0072  0.0961  0.8671
   70bbb     H3 2006   2.501   6.704   8.980  0.3824  0.7850 -0.1227
   70bbb     H4 2007   2.409   6.840   8.922 -0.1567 -1.5208 -0.1015
   70bbb     C3 2008   2.630   6.933   9.069  0.4128  0.4014  0.2308
   70bbb     H5 2009   2.661   7.005   9.145 -1.8076  1.2194  0.4284
   70bbb     H6 2010   2.625   6.990   8.975 -1.4794  0.4709  0.3430
   70bbb     C4 2011   2.724   6.811   9.060 -0.3920  0.7537 -0.5886
   70bbb     H7 2012   2.703   6.736   8.983  0.8110 -0.0400 -0.1746
   70bbb     H8 2013   2.707   6.759   9.156  0.5654  1.4273 -0.0451
   70bbb     C5 2014   2.444   7.067   9.279 -0.2546 -0.5362  0.5650
   70bbb     H9 2015   2.531   7.130   9.255 -0.8783 -0.1610 -0.8483
   70bbb    H10 2016   2.477   7.004   9.361  0.6906 -0.5602  0.1754
   70bbb     C6 2017   2.307   6.709   9.061 -0.3835  1.5126  0.1760
   70bbb    H11 2018   2.287   6.643   8.976  4.3823  0.3692 -0.3248
   70bbb    H12 2019   2.220   6.774   9.077 -0.9106  0.8570  0.0435
   70bbb     C7 2020   2.870   6.855   9.051  0.0369  0.4121 -0.7192
   70bbb    H13 2021   2.885   6.890   8.948  0.6314 -2.2109 -1.6142
   70bbb    H14 2022   2.928   6.763   9.063 -0.1260  0.7011  4.3911
   70bbb     C8 2023   2.350   6.621   9.182 -0.1608  0.6650  0.2939
   70bbb    H15 2024   2.364   6.689   9.266 -1.1462  0.2748  0.7840
   70bbb    H16 2025   2.441   6.563   9.160 -1.2958 -0.8992 -0.4798
   70bbb     C9 2026   2.332   7.160   9.322  0.3662 -0.5465  0.6833
   70bbb    H17 2027   2.362   7.226   9.404 -0.6462 -0.9895  1.4281
   70bbb    H18 2028   2.255   7.093   9.362  2.1193 -1.6081  2.4961
   70bbb     O1 2029   2.914   6.954   9.148 -0.4912  0.0280  0.5454
   71bbb     N1 2030   3.313   5.081   7.233 -0.1081  0.1047  0.3491
   71bbb     C1 2031   3.346   5.221   7.185 -0.4349  0.6708 -0.4803
   71bbb     H1 2032   3.264   5.275   7.138 -1.3738 -1.1433 -0.9929
   71bbb     H2 2033   3.418   5.211   7.103  0.7049  1.2545  0.4172
   71bbb     C2 2034   3.207   5.017   7.142 -0.4200 -0.7678 -0.1232
   71bbb     H3 2035   3.253   4.994   7.045 -1.2026 -1.1072 -0.4184
   71bbb     H4 2036   3.131   5.095   7.125 -0.7952  0.0866  4.3781
   71bbb     C3 2037   3.428   4.987   7.261 -0.5827 -0.1576  0.0188
   71bbb     H5 2038   3.396   4.896   7.314  1.1995 -1.1877 -0.5876
   71bbb     H6 2039   3.502   5.033   7.327  0.2958  1.1444 -1.7864
   71bbb     C4 2040   3.498   4.929   7.140  0.0864 -0.3457  0.3270
   71bbb     H7 2041   3.522   5.013   7.075 -0.0292 -0.7981 -0.3045
   71bbb     H8 2042   3.422   4.870   7.088 -1.1965 -0.4304  2.1717
   71bbb     C5 2043   3.408   5.303   7.302  0.4254  0.4910  0.3558
   71bbb     H9 2044   3.486   5.241   7.348 -1.2214 -2.7332 -0.8787
   71bbb    H10 2045   3.333   5.315   7.382 -0.0269 -0.0170  0.0181
   71bbb     C6 2046   3.131   4.893   7.183 -0.5448 -0.3556 -0.0582
   71bbb    H11 2047   3.212   4.823   7.206 -0.7293 -0.5335  0.0510
   71bbb    H12 2048   3.088   4.848   7.093 -2.1655 -0.0596  0.5349
   71bbb     C7 2049   3.620   4.844   7.166 -0.7695 -0.4153  0.1460
   71bbb    H13 2050   3.600   4.763   7.236 -2.7641 -0.0365  0.0845
   71bbb    H14 2051   3.692   4.911   7.217 -0.8186  0.3293 -0.7376
   71bbb     C8 2052   3.031   4.922   7.303 -0.2147  0.2751  0.0845
   71bbb    H15 2053   2.959   4.994   7.264  1.6921  2.8415  0.9994
   71bbb    H16 2054   3.088   4.968   7.385  1.5058 -3.2652  1.0973
   71bbb     C9 2055   3.441   5.451   7.261 -0.4726 -0.5301 -0.1156
   71bbb    H17 2056   3.503   5.443   7.171 -0.1661 -2.0800  0.1965
   71bbb    H18 2057   3.507   5.495   7.336 -2.4612  1.8062  0.4138
   71bbb     O1 2058   3.675   4.808   7.037 -0.0752 -0.1126  0.6020
   72bbb     N1 2059   4.566   4.434   6.933 -0.3164  0.4716 -0.9692
   72bbb     C1 2060   4.513   4.547   7.013 -0.0075 -0.3655  0.0376
   72bbb     H1 2061   4.487   4.527   7.118  1.9153  0.1990  0.6579
   72bbb     H2 2062   4.420   4.580   6.965  0.9160  1.8416 -0.3936
   72bbb     C2 2063   4.683   4.374   6.983  0.2492  0.4216 -0.4277
   72bbb     H3 2064   4.681   4.370   7.092  0.1580  1.3319 -0.3928
   72bbb     H4 2065   4.761   4.438   6.940 -0.4335  0.6861 -1.3119
   72bbb     C3 2066   4.529   4.419   6.795  0.0592  0.6933 -0.3751
   72bbb     H5 2067   4.606   4.375   6.731  0.2278  3.4651 -2.2598
   72bbb     H6 2068   4.522   4.516   6.745 -1.0421  1.5869  1.4251
   72bbb     C4 2069   4.394   4.338   6.782 -0.0163  0.2815  0.5122
   72bbb     H7 2070   4.326   4.382   6.856  1.2822 -0.2095  2.0641
   72bbb     H8 2071   4.413   4.232   6.807 -0.4888  0.4431  1.6548
   72bbb     C5 2072   4.609   4.670   7.018  0.0073  0.5169 -0.3594
   72bbb     H9 2073   4.647   4.701   6.921 -0.1936  0.3472 -0.4950
   72bbb    H10 2074   4.702   4.641   7.068 -0.8237 -0.6070  0.6108
   72bbb     C6 2075   4.695   4.223   6.945 -0.5754 -0.1574  0.4878
   72bbb    H11 2076   4.693   4.216   6.835 -2.2203 -0.8047  0.5256
   72bbb    H12 2077   4.607   4.177   6.991  0.1106 -0.8449  1.1201
   72bbb     C7 2078   4.331   4.353   6.649  0.7465  0.6084  0.6383
   72bbb    H13 2079   4.247   4.282   6.652  2.6377 -1.7651  1.9105
   72bbb    H14 2080   4.401   4.331   6.567  1.5790  0.5947  1.3389
   72bbb     C8 2081   4.825   4.149   6.998  0.0934  0.0778 -0.6549
   72bbb    H15 2082   4.820   4.049   6.954 -0.2226  0.4595 -1.4968
   72bbb    H16 2083   4.817   4.143   7.107  1.8538  1.4659 -0.4223
   72bbb     C9 2084   4.540   4.785   7.089 -0.0016 -0.3784  0.5706
   72bbb    H17 2085   4.446   4.799   7.035  0.3315 -0.7880 -0.1335
   72bbb    H18 2086   4.603   4.873   7.072  0.7620 -0.7729  1.2956
   72bbb     O1 2087   4.288   4.482   6.635  0.7307 -0.3957 -0.0329
   73bbb     N1 2088   5.941   5.638   6.299  0.5130 -0.2951 -0.6996
   73bbb     C1 2089   6.079   5.604   6.347  0.1613 -0.3097  0.0214
   73bbb     H1 2090   6.082   5.524   6.422  0.3594  1.3502  1.8797
   73bbb     H2 2091   6.126   5.690   6.397 -1.3823  0.4137  0.2962
   73bbb     C2 2092   5.877   5.740   6.386  0.0150 -0.0748 -0.1718
   73bbb     H3 2093   5.943   5.827   6.379 -1.0496  0.7387 -0.3852
   73bbb     H4 2094   5.862   5.711   6.490  0.5083  0.0903 -0.0507
   73bbb     C3 2095   5.855   5.522   6.264  0.1177 -0.5184 -0.2839
   73bbb     H5 2096   5.907   5.454   6.194  0.4361  0.2572 -0.8204
   73bbb     H6 2097   5.777   5.560   6.197  0.3262 -1.5873 -1.1670
   73bbb     C4 2098   5.813   5.436   6.383 -0.4954 -0.1599  0.6061
   73bbb     H7 2099   5.752   5.494   6.454 -1.5090  1.2460 -1.3391
   73bbb     H8 2100   5.901   5.396   6.435 -0.6320  1.0936  1.8791
   73bbb     C5 2101   6.171   5.565   6.230  0.0751 -0.0971  0.0705
   73bbb     H9 2102   6.144   5.625   6.142 -0.1583 -0.8661 -0.3935
   73bbb    H10 2103   6.143   5.466   6.193  0.6365 -0.1065 -0.3355
   73bbb     C6 2104   5.746   5.806   6.328 -0.2984  0.2813 -0.0102
   73bbb    H11 2105   5.659   5.741   6.312  0.6668 -1.1000  0.1648
   73bbb    H12 2106   5.776   5.841   6.228 -4.5358 -0.8515 -1.8774
   73bbb     C7 2107   5.734   5.316   6.318  0.9317  0.2667  0.3233
   73bbb    H13 2108   5.804   5.241   6.279 -0.4135  0.2026 -2.1059
   73bbb    H14 2109   5.674   5.345   6.231 -1.4788 -1.6381  1.2429
   73bbb     C8 2110   5.703   5.923   6.419  0.0850 -0.1896  0.6528
   73bbb    H15 2111   5.694   6.011   6.355 -0.3910 -0.0780  0.8683
   73bbb    H16 2112   5.784   5.960   6.484 -0.9069  3.8925 -0.2030
   73bbb     C9 2113   6.327   5.554   6.245  0.1246  0.4063  0.1999
   73bbb    H17 2114   6.373   5.536   6.147  0.4185 -1.1245  0.5964
   73bbb    H18 2115   6.349   5.465   6.305  0.8372 -0.0006 -0.6563
   73bbb     O1 2116   5.633   5.271   6.414 -0.9890 -0.1649 -0.2708
   74bbb     N1 2117   4.968   5.535   6.519  0.2344  0.2225  0.3340
   74bbb     C1 2118   4.902   5.505   6.386  0.2576  0.2762  0.3311
   74bbb     H1 2119   4.972   5.451   6.321 -2.0434 -0.6169 -1.5380
   74bbb     H2 2120   4.879   5.601   6.339 -1.7323 -0.1813  0.2712
   74bbb     C2 2121   5.104   5.586   6.486  0.1287 -0.1251 -0.0037
   74bbb     H3 2122   5.137   5.664   6.556  1.0432 -0.6990  0.2231
   74bbb     H4 2123   5.110   5.642   6.392 -0.4353 -0.1148 -0.0345
   74bbb     C3 2124   4.960   5.428   6.623 -0.0334 -0.5114 -0.0957
   74bbb     H5 2125   5.004   5.333   6.589 -3.6984 -1.5799 -2.5007
   74bbb     H6 2126   4.852   5.407   6.628  0.0568 -0.8838  0.4388
   74bbb     C4 2127   5.013   5.482   6.765 -0.5302  0.0478  0.3857
   74bbb     H7 2128   4.949   5.564   6.800 -1.8047  0.7875 -3.2518
   74bbb     H8 2129   5.115   5.518   6.749  0.6201 -2.6316  1.2671
   74bbb     C5 2130   4.772   5.424   6.378 -0.4750 -0.0608 -0.0482
   74bbb     H9 2131   4.719   5.452   6.286 -0.2873 -0.4553 -0.2800
   74bbb    H10 2132   4.700   5.442   6.459 -1.7337 -2.9701 -0.3977
   74bbb     C6 2133   5.208   5.478   6.464 -0.5131 -0.2038 -0.4151
   74bbb    H11 2134   5.171   5.397   6.399 -0.3164 -0.5300 -0.1258
   74bbb    H12 2135   5.225   5.432   6.562 -2.8487  0.1221  0.1962
   74bbb     C7 2136   5.031   5.368   6.867 -0.6090  0.7351 -0.6624
   74bbb    H13 2137   4.938   5.311   6.874 -1.4158  2.0201 -0.4621
   74bbb    H14 2138   5.042   5.412   6.966 -0.8876 -0.3806 -0.1239
   74bbb     C8 2139   5.335   5.530   6.407  0.9579 -0.3199  0.3625
   74bbb    H15 2140   5.401   5.442   6.412  1.5800  0.1116 -0.1405
   74bbb    H16 2141   5.376   5.605   6.476 -0.7247  1.5588 -0.5752
   74bbb     C9 2142   4.778   5.268   6.375 -0.9919 -0.0712 -0.1410
   74bbb    H17 2143   4.675   5.234   6.362 -0.5731 -0.9867 -1.2099
   74bbb    H18 2144   4.804   5.245   6.479 -0.5116  0.8180 -0.0542
   74bbb     O1 2145   5.147   5.285   6.834  0.1649 -0.1236 -0.2764
   75bbb     N1 2146   3.605   5.806   5.037 -0.1101  0.3065 -0.3448
   75bbb     C1 2147   3.561   5.671   5.013  0.1714  0.8815  0.2075
   75bbb     H1 2148   3.595   5.651   4.911  1.2747  2.0736  0.3169
   75bbb     H2 2149   3.452   5.657   5.016  0.1689  0.5716 -0.9432
   75bbb     C2 2150   3.593   5.903   4.923  0.1363  0.7032  0.6874
   75bbb     H3 2151   3.654   5.994   4.931  0.5684  0.7224 -1.9375
   75bbb     H4 2152   3.488   5.933   4.923 -0.2773 -0.6800  0.5645
   75bbb     C3 2153   3.557   5.868   5.163 -0.4543 -0.1442 -0.5357
   75bbb     H5 2154   3.554   5.798   5.248  1.2288 -0.1333 -0.4381
   75bbb     H6 2155   3.458   5.914   5.160  0.8188  2.9226  0.6736
   75bbb     C4 2156   3.660   5.972   5.217  0.0034 -0.4458  0.2721
   75bbb     H7 2157   3.676   6.042   5.135 -3.5907  0.4814  0.1990
   75bbb     H8 2158   3.747   5.910   5.244 -0.8141 -1.8572 -0.2072
   75bbb     C5 2159   3.620   5.555   5.102 -0.4573 -0.3203  0.3092
   75bbb     H9 2160   3.571   5.463   5.066 -3.1753  1.5518 -1.0511
   75bbb    H10 2161   3.591   5.577   5.206 -0.0848  0.0020  0.3465
   75bbb     C6 2162   3.617   5.849   4.782  0.3610  0.2995  0.6628
   75bbb    H11 2163   3.687   5.767   4.766  0.6206  0.4007  1.2472
   75bbb    H12 2164   3.658   5.930   4.721 -0.1877  1.2857  1.5683
   75bbb     C7 2165   3.602   6.046   5.336 -0.3179 -0.3927  0.2077
   75bbb    H13 2166   3.516   6.108   5.310 -2.0219 -2.5095  0.5687
   75bbb    H14 2167   3.683   6.111   5.373 -0.9785  0.1047  0.8048
   75bbb     C8 2168   3.485   5.821   4.708 -0.3308  0.5896 -0.1494
   75bbb    H15 2169   3.422   5.763   4.776 -0.5705 -1.0818 -1.7249
   75bbb    H16 2170   3.504   5.768   4.614  0.3728 -0.3867  0.5274
   75bbb     C9 2171   3.773   5.531   5.075 -0.5182 -0.0527 -0.4362
   75bbb    H17 2172   3.826   5.627   5.071 -3.9188  2.0108 -0.1033
   75bbb    H18 2173   3.784   5.495   4.973  0.4406  2.1589 -1.1788
   75bbb     O1 2174   3.570   5.958   5.440 -0.5244 -0.5309  0.1194
   76bbb     N1 2175   3.103   5.831   5.152  0.2260 -0.4023 -1.3532
   76bbb     C1 2176   3.023   5.713   5.108 -0.2507 -0.0315 -0.4300
   76bbb     H1 2177   2.945   5.750   5.041 -1.0205  0.8310  0.8897
   76bbb     H2 2178   2.969   5.664   5.190 -1.4075 -1.0016 -1.7264
   76bbb     C2 2179   3.022   5.956   5.170  0.4698 -0.2430 -0.0138
   76bbb     H3 2180   2.960   5.931   5.257  1.1814 -0.2834  0.4938
   76bbb     H4 2181   2.957   5.969   5.083 -1.6485 -1.2000  1.3512
   76bbb     C3 2182   3.221   5.810   5.237 -0.3602  0.2642 -0.0548
   76bbb     H5 2183   3.262   5.904   5.276 -1.9770 -0.0459  2.6093
   76bbb     H6 2184   3.292   5.751   5.178 -0.9937  1.4578 -2.1322
   76bbb     C4 2185   3.190   5.717   5.359 -0.4057  0.4037 -0.2469
   76bbb     H7 2186   3.284   5.675   5.397 -0.2567  0.5152 -0.4917
   76bbb     H8 2187   3.129   5.629   5.333  0.3601  0.6617 -3.3359
   76bbb     C5 2188   3.092   5.609   5.021  0.1755  0.0626  0.1580
   76bbb     H9 2189   3.017   5.529   5.017  0.7092 -0.5275  1.4407
   76bbb    H10 2190   3.176   5.567   5.077  0.4467 -0.9171 -0.9556
   76bbb     C6 2191   3.099   6.090   5.193  0.2563  0.1557  0.3351
   76bbb    H11 2192   3.142   6.096   5.294  1.6454  1.2465 -0.2786
   76bbb    H12 2193   3.028   6.173   5.194 -0.0293 -0.0687  1.7804
   76bbb     C7 2194   3.127   5.808   5.470  0.3450 -0.5121 -0.6116
   76bbb    H13 2195   3.035   5.849   5.429  0.0540 -0.2799  0.2435
   76bbb    H14 2196   3.200   5.887   5.489  1.1136 -1.5138  0.8194
   76bbb     C8 2197   3.199   6.129   5.082 -0.0471  0.7822  0.3889
   76bbb    H15 2198   3.139   6.130   4.990 -0.2046 -1.1111  0.4289
   76bbb    H16 2199   3.274   6.051   5.066  0.4909  1.5271 -0.8329
   76bbb     C9 2200   3.136   5.640   4.875  0.2373  0.1623 -0.5969
   76bbb    H17 2201   3.206   5.567   4.833  0.1940  0.9823 -2.1542
   76bbb    H18 2202   3.189   5.736   4.880  1.0503 -0.2538 -1.1594
   76bbb     O1 2203   3.096   5.742   5.591 -0.1127 -0.3152  0.2136
   77bbb     N1 2204   3.393   5.535   4.288  0.5170  0.0808  0.1604
   77bbb     C1 2205   3.368   5.678   4.221  0.1203  0.7629  0.1570
   77bbb     H1 2206   3.426   5.689   4.128 -0.6706 -2.1895 -0.7963
   77bbb     H2 2207   3.402   5.758   4.287 -0.7294 -0.0554  1.6444
   77bbb     C2 2208   3.366   5.429   4.203  0.4719  0.3331  0.9515
   77bbb     H3 2209   3.259   5.428   4.181  0.8500 -0.2159 -1.0864
   77bbb     H4 2210   3.398   5.332   4.245  1.7319 -0.8358 -2.3464
   77bbb     C3 2211   3.327   5.525   4.417  0.3338 -0.1725  0.0956
   77bbb     H5 2212   3.218   5.523   4.405  0.0431  1.7720  1.8019
   77bbb     H6 2213   3.345   5.616   4.476  0.3257 -0.2784  0.2631
   77bbb     C4 2214   3.368   5.404   4.503 -0.3535 -0.2238  0.6931
   77bbb     H7 2215   3.476   5.388   4.495 -0.1048  1.4949  0.2464
   77bbb     H8 2216   3.324   5.307   4.478 -0.9494 -0.5276  2.7010
   77bbb     C5 2217   3.230   5.712   4.168 -0.1189 -0.3509 -0.3790
   77bbb     H9 2218   3.166   5.715   4.257  0.1392  1.8997 -0.2156
   77bbb    H10 2219   3.199   5.636   4.095  1.2916 -0.6763 -0.6665
   77bbb     C6 2220   3.456   5.430   4.076 -0.4578 -0.2027 -0.4927
   77bbb    H11 2221   3.561   5.426   4.107 -0.6498  0.0996  0.2218
   77bbb    H12 2222   3.446   5.519   4.013 -1.2659 -0.2091 -0.3945
   77bbb     C7 2223   3.333   5.419   4.648 -0.1612  0.4312  0.0783
   77bbb    H13 2224   3.228   5.390   4.663  0.4328 -2.8477 -1.2347
   77bbb    H14 2225   3.340   5.524   4.681  0.6028  0.6976 -0.9004
   77bbb     C8 2226   3.429   5.312   3.992  0.6545  0.1213  0.4885
   77bbb    H15 2227   3.495   5.319   3.905  1.4403  1.0930  1.1507
   77bbb    H16 2228   3.325   5.309   3.956  0.5248  0.2390  0.8457
   77bbb     C9 2229   3.232   5.854   4.110 -0.0600 -0.9829  0.2834
   77bbb    H17 2230   3.146   5.873   4.045  0.2236  1.4696  0.5424
   77bbb    H18 2231   3.316   5.860   4.039  0.1888 -3.1593  0.3360
   77bbb     O1 2232   3.407   5.324   4.734  0.1587 -0.6374  0.0286
   78bbb     N1 2233   2.811   5.277   4.954  0.0683  0.9616  0.1972
   78bbb     C1 2234   2.663   5.294   4.984 -0.3501 -0.4485 -0.1230
   78bbb     H1 2235   2.637   5.233   5.072  1.5983 -1.4791 -0.2199
   78bbb     H2 2236   2.605   5.255   4.900 -0.2591  0.5616 -0.6644
   78bbb     C2 2237   2.866   5.343   4.831 -0.0587 -0.2312  0.2171
   78bbb     H3 2238   2.973   5.319   4.830 -0.0265 -0.0780 -0.3914
   78bbb     H4 2239   2.860   5.452   4.833 -1.2323 -0.1817 -2.1802
   78bbb     C3 2240   2.897   5.293   5.075 -0.4515 -0.7805 -0.1064
   78bbb     H5 2241   2.890   5.397   5.109  2.9141 -0.8005  1.0676
   78bbb     H6 2242   3.003   5.279   5.048  0.1312  1.7748  0.5371
   78bbb     C4 2243   2.867   5.192   5.182  0.0293  0.1202  0.3009
   78bbb     H7 2244   2.875   5.096   5.131  1.8661  2.2768 -3.9473
   78bbb     H8 2245   2.766   5.210   5.222 -0.8554  0.2833 -1.8596
   78bbb     C5 2246   2.616   5.442   5.008  0.2997 -0.0273  0.4054
   78bbb     H9 2247   2.506   5.443   5.006  0.1137 -0.3303  4.0578
   78bbb    H10 2248   2.648   5.502   4.923 -1.5215  1.4676  0.6977
   78bbb     C6 2249   2.800   5.297   4.701 -0.1993  0.2274 -0.0795
   78bbb    H11 2250   2.698   5.327   4.674 -0.3444  0.6538  0.9052
   78bbb    H12 2251   2.784   5.191   4.722  2.3098 -0.1456  0.2212
   78bbb     C7 2252   2.966   5.199   5.288 -0.0977  0.9420  0.1171
   78bbb    H13 2253   2.927   5.151   5.378 -0.0766  1.0123  0.1636
   78bbb    H14 2254   2.979   5.306   5.307  1.8369  0.7347  0.1918
   78bbb     C8 2255   2.899   5.322   4.583 -0.0030 -0.3014 -0.3751
   78bbb    H15 2256   3.004   5.308   4.610 -0.0312  0.5483  0.1957
   78bbb    H16 2257   2.896   5.424   4.545  1.7581 -0.0759  0.0146
   78bbb     C9 2258   2.661   5.520   5.131  0.0357 -0.1237 -0.0564
   78bbb    H17 2259   2.735   5.594   5.096 -1.5182  0.5737 -2.1070
   78bbb    H18 2260   2.708   5.455   5.205  0.7165  0.1737 -0.2134
   78bbb     O1 2261   3.092   5.145   5.253  0.2386 -0.1873 -0.3920
   79bbb     N1 2262   7.559   4.855   9.666 -0.1718 -0.1104 -0.3133
   79bbb     C1 2263   7.434   4.914   9.617  0.5237  0.0871 -0.5726
   79bbb     H1 2264   7.370   4.837   9.573 -0.4435  0.4682  0.1247
   79bbb     H2 2265   7.450   4.989   9.538  0.1420  3.2607  2.1215
   79bbb     C2 2266   7.542   4.746   9.770  0.3718  0.1930  0.0441
   79bbb     H3 2267   7.502   4.664   9.708  0.6587  1.4899 -1.9226
   79bbb     H4 2268   7.461   4.770   9.841  1.4718  1.4402  0.9193
   79bbb     C3 2269   7.650   4.824   9.561  0.0394  0.2958 -0.3764
   79bbb     H5 2270   7.618   4.735   9.504  1.0138  0.0129 -0.4948
   79bbb     H6 2271   7.747   4.795   9.603  0.3372 -0.3954 -1.4832
   79bbb     C4 2272   7.680   4.939   9.460 -0.4922 -0.4245  0.2863
   79bbb     H7 2273   7.597   4.950   9.389 -0.8283 -0.8640  0.6004
   79bbb     H8 2274   7.769   4.911   9.402  0.8728  0.3352  1.9399
   79bbb     C5 2275   7.361   4.998   9.726  0.5665  0.4506  0.2539
   79bbb     H9 2276   7.423   5.088   9.731  0.9127  0.2757 -0.6074
   79bbb    H10 2277   7.352   4.940   9.818  0.0849 -0.9152 -0.6265
   79bbb     C6 2278   7.675   4.711   9.842  0.0437 -0.5529 -1.2925
   79bbb    H11 2279   7.723   4.636   9.778  2.1992  0.3533 -0.8450
   79bbb    H12 2280   7.660   4.662   9.939 -0.1589 -0.1790 -1.1337
   79bbb     C7 2281   7.732   5.071   9.515  0.2459  0.5306 -0.9337
   79bbb    H13 2282   7.817   5.050   9.580 -0.3614 -2.5140 -0.9687
   79bbb    H14 2283   7.653   5.127   9.568  2.1035  0.4178  2.1999
   79bbb     C8 2284   7.764   4.839   9.877  0.1112 -0.0146 -0.5614
   79bbb    H15 2285   7.718   4.905   9.951 -0.2167 -0.7393 -0.1074
   79bbb    H16 2286   7.784   4.910   9.795  1.2980 -0.2555 -0.4927
   79bbb     C9 2287   7.223   5.050   9.679  0.4157  0.2568 -0.3136
   79bbb    H17 2288   7.200   5.138   9.740  1.4795 -0.3805  1.0433
   79bbb    H18 2289   7.142   4.981   9.704  0.2721  1.1701  1.9447
   79bbb     O1 2290   7.781   5.153   9.406  0.2851 -0.3764 -0.4881
   80bbb     N1 2291   7.930   5.221  10.175  0.3468  0.0244 -0.0235
   80bbb     C1 2292   7.901   5.144  10.299 -0.0253 -0.0049 -0.8581
   80bbb     H1 2293   7.803   5.177  10.334  1.0135  2.0610  0.3315
   80bbb     H2 2294   7.969   5.174  10.381 -0.1848  1.4579 -1.2243
   80bbb     C2 2295   8.073   5.196  10.133  0.3348 -0.1701  0.1835
   80bbb     H3 2296   8.085   5.254  10.040  1.5858  1.8659  1.5436
   80bbb     H4 2297   8.080   5.090  10.107  0.0088  0.2428 -1.7438
   80bbb     C3 2298   7.840   5.208  10.060 -0.2442 -0.1135 -0.1430
   80bbb     H5 2299   7.845   5.106  10.019  1.3603 -0.5516  1.0221
   80bbb     H6 2300   7.877   5.279   9.985 -0.7567  0.0261 -0.2650
   80bbb     C4 2301   7.689   5.236  10.087 -0.0865 -0.0372 -0.1719
   80bbb     H7 2302   7.676   5.334  10.134  1.5081 -0.0371  0.3191
   80bbb     H8 2303   7.664   5.148  10.146  0.2853 -0.5077 -0.6979
   80bbb     C5 2304   7.906   4.988  10.297 -0.0526 -0.1919 -0.0075
   80bbb     H9 2305   8.008   4.949  10.294 -0.4660 -1.3129 -0.1308
   80bbb    H10 2306   7.871   4.960  10.196  0.4025  2.8112 -1.0841
   80bbb     C6 2307   8.182   5.240  10.230 -0.0101 -0.0206 -1.3057
   80bbb    H11 2308   8.175   5.198  10.331  0.0373  1.1971 -0.7815
   80bbb    H12 2309   8.157   5.347  10.228 -3.8265 -0.7537 -1.0831
   80bbb     C7 2310   7.608   5.235   9.955  0.8019  0.3827 -0.1889
   80bbb    H13 2311   7.503   5.204   9.965 -0.3615  3.0319 -2.6893
   80bbb    H14 2312   7.657   5.164   9.888  0.0928  0.2501 -0.5705
   80bbb     C8 2313   8.317   5.207  10.164  0.2582  0.4917  0.4161
   80bbb    H15 2314   8.326   5.240  10.060  1.4763 -0.6940  0.1065
   80bbb    H16 2315   8.321   5.098  10.162  0.3857  0.5129 -0.8100
   80bbb     C9 2316   7.846   4.915  10.418 -0.1691  0.5586 -0.2760
   80bbb    H17 2317   7.740   4.943  10.424 -1.6013 -4.1125  0.4168
   80bbb    H18 2318   7.904   4.964  10.496  1.7806 -0.2118 -1.1815
   80bbb     O1 2319   7.591   5.369   9.904  0.5538 -0.1423 -0.5992
   81bbb     N1 2320   7.134   4.150   8.490 -1.1395 -0.6570  0.0442
   81bbb     C1 2321   7.231   4.043   8.443 -0.1007 -0.1182  0.5026
   81bbb     H1 2322   7.286   4.012   8.532  0.9298  1.6804  0.5522
   81bbb     H2 2323   7.306   4.087   8.376 -1.1056  0.4452 -0.3080
   81bbb     C2 2324   7.208   4.273   8.521 -0.1572 -1.0068  0.1299
   81bbb     H3 2325   7.291   4.253   8.590  1.5775  0.9505 -1.2647
   81bbb     H4 2326   7.144   4.351   8.565  0.1041 -0.3717 -0.6007
   81bbb     C3 2327   7.046   4.099   8.598 -0.4626 -0.0493  0.1530
   81bbb     H5 2328   7.111   4.059   8.677  0.2301  1.2646  0.2730
   81bbb     H6 2329   6.973   4.026   8.561  1.7467 -1.6748 -1.2357
   81bbb     C4 2330   6.956   4.211   8.669  0.3620 -0.4618  0.5585
   81bbb     H7 2331   6.890   4.262   8.598 -0.0194 -0.4290  0.9408
   81bbb     H8 2332   7.021   4.292   8.705  1.2346  0.5370 -2.8800
   81bbb     C5 2333   7.165   3.925   8.371 -0.3148  0.4831  0.0047
   81bbb     H9 2334   7.099   3.965   8.292 -0.9955 -1.1057 -0.2599
   81bbb    H10 2335   7.104   3.877   8.448  1.0828  0.3825  1.0925
   81bbb     C6 2336   7.265   4.335   8.394  0.1387  0.3728 -0.2010
   81bbb    H11 2337   7.211   4.430   8.382 -0.3415  0.5114  2.4684
   81bbb    H12 2338   7.242   4.276   8.304  0.9813 -0.2230 -0.0277
   81bbb     C7 2339   6.877   4.155   8.786 -0.0445  0.3438  0.6896
   81bbb    H13 2340   6.934   4.087   8.851 -0.9133 -1.4240 -0.3341
   81bbb    H14 2341   6.802   4.084   8.751  1.6275 -1.2471  0.1596
   81bbb     C8 2342   7.414   4.367   8.418  0.1549  0.4120 -0.2776
   81bbb    H15 2343   7.460   4.269   8.434  1.2945  1.0015  0.2196
   81bbb    H16 2344   7.421   4.432   8.507  1.0269  0.9768 -0.7439
   81bbb     C9 2345   7.268   3.827   8.311  0.2077 -0.1052  0.1594
   81bbb    H17 2346   7.317   3.872   8.223  0.4185  0.1172  0.3903
   81bbb    H18 2347   7.217   3.740   8.268 -0.3357  1.0853 -1.7531
   81bbb     O1 2348   6.816   4.256   8.865  0.1522  0.2282  0.2472
   82bbb     N1 2349   7.687   4.656   9.054  0.2653 -0.7492  0.7787
   82bbb     C1 2350   7.805   4.694   9.136  0.6153 -0.3482 -0.9035
   82bbb     H1 2351   7.790   4.793   9.180  4.0402 -0.0121 -0.2353
   82bbb     H2 2352   7.898   4.709   9.081  1.0398  1.8620  0.3241
   82bbb     C2 2353   7.635   4.741   8.942 -0.0689  0.3281  0.0717
   82bbb     H3 2354   7.568   4.820   8.979  1.6153  1.1090  1.5711
   82bbb     H4 2355   7.573   4.676   8.878 -0.4482  0.1931  0.5736
   82bbb     C3 2356   7.566   4.590   9.114  0.1086  0.1861 -0.0774
   82bbb     H5 2357   7.597   4.505   9.176 -0.2593  1.6510  2.2856
   82bbb     H6 2358   7.500   4.536   9.046  0.1508 -1.9175  1.4566
   82bbb     C4 2359   7.485   4.685   9.208  0.3974  0.7222 -0.4676
   82bbb     H7 2360   7.410   4.737   9.147 -1.4929 -1.7841 -0.4561
   82bbb     H8 2361   7.561   4.745   9.258 -0.3364 -0.1596  1.8556
   82bbb     C5 2362   7.827   4.602   9.255 -0.4419  0.7798 -0.3213
   82bbb     H9 2363   7.826   4.502   9.212  0.6366 -0.1965  1.7498
   82bbb    H10 2364   7.746   4.618   9.328 -1.0598  0.0256 -0.8322
   82bbb     C6 2365   7.743   4.810   8.844 -0.0963 -0.5487  0.3612
   82bbb    H11 2366   7.815   4.865   8.906 -1.0020  0.5842  0.4370
   82bbb    H12 2367   7.683   4.879   8.785 -1.2298 -1.5649  0.2718
   82bbb     C7 2368   7.415   4.617   9.323  0.1995  0.7799  0.3824
   82bbb    H13 2369   7.384   4.684   9.404  0.2416  0.4185  0.7001
   82bbb    H14 2370   7.483   4.536   9.353 -0.0269 -0.5844 -2.4436
   82bbb     C8 2371   7.816   4.707   8.752 -0.4640 -0.5348 -0.4791
   82bbb    H15 2372   7.737   4.636   8.725 -0.8380  0.0348 -0.9060
   82bbb    H16 2373   7.880   4.651   8.821 -4.0689 -1.1821  2.7126
   82bbb     C9 2374   7.971   4.621   9.319  0.8433  0.3387  0.7814
   82bbb    H17 2375   8.043   4.585   9.244 -2.0090  1.5761 -2.8556
   82bbb    H18 2376   7.986   4.554   9.404 -2.5087 -1.1454  0.3750
   82bbb     O1 2377   7.302   4.548   9.267  0.4349  0.1208  0.4612
   83bbb     N1 2378   5.953   6.376  10.932 -0.4304  0.5075 -0.9639
   83bbb     C1 2379   6.088   6.400  10.871  0.0337 -0.0858  0.4618
   83bbb     H1 2380   6.079   6.483  10.800 -1.3799 -1.8630 -1.5796
   83bbb     H2 2381   6.119   6.317  10.807 -0.5845 -0.2914  0.4180
   83bbb     C2 2382   5.886   6.495  10.983  0.3717 -0.0263 -0.1740
   83bbb     H3 2383   5.947   6.543  11.060 -0.0029 -0.4729  0.4114
   83bbb     H4 2384   5.791   6.467  11.031  0.3090 -0.3234 -0.4654
   83bbb     C3 2385   5.857   6.302  10.844 -0.0510  0.7244 -0.1090
   83bbb     H5 2386   5.849   6.350  10.746 -0.0887  1.3123  0.1782
   83bbb     H6 2387   5.755   6.300  10.882 -0.6550 -1.4881 -1.6375
   83bbb     C4 2388   5.895   6.153  10.827  0.9137  0.3862 -0.8790
   83bbb     H7 2389   5.920   6.110  10.924  0.3741 -0.2039 -1.0044
   83bbb     H8 2390   5.984   6.148  10.762  1.3278  0.8198 -0.3547
   83bbb     C5 2391   6.195   6.426  10.980 -0.3274 -0.2712  0.5141
   83bbb     H9 2392   6.207   6.333  11.037 -2.1873  0.2989  1.9605
   83bbb    H10 2393   6.172   6.501  11.057  2.0348 -0.6668  1.6899
   83bbb     C6 2394   5.844   6.605  10.874 -0.1187  0.5640 -0.2595
   83bbb    H11 2395   5.766   6.571  10.805 -1.6139  2.2946  0.4990
   83bbb    H12 2396   5.929   6.632  10.810  0.2656  2.0440  0.7940
   83bbb     C7 2397   5.795   6.056  10.766 -0.4031  0.6550 -1.2502
   83bbb    H13 2398   5.719   6.040  10.844  0.1659  0.6414 -0.6820
   83bbb    H14 2399   5.841   5.956  10.760 -0.0449  0.5686  1.4554
   83bbb     C8 2400   5.773   6.717  10.954 -0.1787  0.0189  0.5056
   83bbb    H15 2401   5.717   6.678  11.040 -1.2094  0.5633  0.1000
   83bbb    H16 2402   5.703   6.780  10.897  1.8002  0.6758 -1.3167
   83bbb     C9 2403   6.340   6.463  10.924  0.0141 -0.3277 -0.3110
   83bbb    H17 2404   6.340   6.531  10.839  1.2970  0.2732  0.1336
   83bbb    H18 2405   6.377   6.364  10.895 -1.6004 -0.9842 -0.2380
   83bbb     O1 2406   5.751   6.107  10.639  0.1135  0.4799  0.1439
   84bbb     N1 2407   5.448   6.328  11.087 -0.0238  0.1914  0.1530
   84bbb     C1 2408   5.518   6.463  11.088 -0.5302  0.1105  0.8721
   84bbb     H1 2409   5.535   6.494  10.984 -3.2817  1.7880  0.8256
   84bbb     H2 2410   5.616   6.452  11.135  1.5429 -0.4158 -3.1318
   84bbb     C2 2411   5.410   6.282  11.227 -0.4085  0.1040  0.6345
   84bbb     H3 2412   5.352   6.361  11.277 -0.8217 -0.8716  1.7361
   84bbb     H4 2413   5.499   6.289  11.291  0.5626  0.7992 -0.7406
   84bbb     C3 2414   5.487   6.223  10.982 -0.3407  0.1341  0.1559
   84bbb     H5 2415   5.421   6.136  10.979  0.0423 -0.1475 -0.3858
   84bbb     H6 2416   5.583   6.185  11.020 -0.3936 -0.5606 -0.3951
   84bbb     C4 2417   5.491   6.279  10.836  0.6292 -0.2352  0.1799
   84bbb     H7 2418   5.529   6.191  10.782  0.6963  0.2019 -0.4941
   84bbb     H8 2419   5.559   6.364  10.829  0.9810 -0.6655 -3.2940
   84bbb     C5 2420   5.445   6.580  11.163  0.4352  0.2008 -0.0855
   84bbb     H9 2421   5.499   6.675  11.158  1.5975 -0.5075 -1.8744
   84bbb    H10 2422   5.440   6.557  11.271 -2.7954 -0.8665 -0.3358
   84bbb     C6 2423   5.326   6.149  11.230 -0.9610 -0.3740 -0.4173
   84bbb    H11 2424   5.293   6.130  11.333  2.1189  1.2719  0.9829
   84bbb    H12 2425   5.389   6.063  11.203 -0.0687  0.7706 -2.1487
   84bbb     C7 2426   5.349   6.309  10.785 -0.5116 -0.5556  0.1411
   84bbb    H13 2427   5.298   6.394  10.834  0.4864 -0.4434  1.0198
   84bbb    H14 2428   5.286   6.219  10.785 -1.3638  0.0198  0.7426
   84bbb     C8 2429   5.195   6.154  11.142 -0.2584  0.7847 -0.2206
   84bbb    H15 2430   5.222   6.191  11.043  0.4609 -0.4762 -0.5138
   84bbb    H16 2431   5.120   6.224  11.179 -2.3214 -1.0255 -0.7624
   84bbb     C9 2432   5.300   6.594  11.110  0.3200  0.0513 -0.4205
   84bbb    H17 2433   5.242   6.505  11.136 -1.4877  1.3168  0.1018
   84bbb    H18 2434   5.301   6.603  11.000 -2.1466  0.6436 -0.4583
   84bbb     O1 2435   5.360   6.342  10.643 -0.2939  1.2806 -0.0686
   85bbb     N1 2436   4.911   3.839  10.050  0.3374  0.1227  0.2445
   85bbb     C1 2437   4.778   3.778  10.055  0.3096  0.1258  0.1194
   85bbb     H1 2438   4.712   3.818   9.976  0.7336 -1.9777 -1.3925
   85bbb     H2 2439   4.737   3.800  10.154  0.9361  0.6404  0.2677
   85bbb     C2 2440   4.973   3.834   9.917 -0.3859  0.4894  0.2332
   85bbb     H3 2441   4.932   3.910   9.849 -0.1315  1.2040  0.8538
   85bbb     H4 2442   4.964   3.733   9.876 -1.8079  0.6484  0.1017
   85bbb     C3 2443   4.929   3.968  10.127 -0.1348 -0.0222  0.5478
   85bbb     H5 2444   4.876   4.052  10.082  1.3030  0.8475  0.4204
   85bbb     H6 2445   5.038   3.981  10.129 -0.0052 -1.0990  2.2075
   85bbb     C4 2446   4.893   3.952  10.276 -0.4231 -0.3895  0.8071
   85bbb     H7 2447   4.954   3.876  10.326 -0.2800 -0.3526  0.6847
   85bbb     H8 2448   4.788   3.925  10.298 -0.2171 -0.5861  1.5871
   85bbb     C5 2449   4.779   3.623  10.039  0.8912  0.9098 -0.2026
   85bbb     H9 2450   4.861   3.570  10.088 -1.1287 -1.6669  0.6004
   85bbb    H10 2451   4.788   3.587   9.936  1.3777  3.1619 -1.0268
   85bbb     C6 2452   5.123   3.871   9.920  0.2051  0.2256 -0.4337
   85bbb    H11 2453   5.176   3.824  10.004 -1.0118 -0.4576 -0.0232
   85bbb    H12 2454   5.125   3.979   9.941  0.9722 -0.2376  2.2943
   85bbb     C7 2455   4.933   4.079  10.354 -0.7887 -0.0609  1.0722
   85bbb    H13 2456   4.911   4.069  10.460 -2.0593  1.4488  0.9940
   85bbb    H14 2457   4.872   4.162  10.314 -0.4233 -0.3980 -0.2478
   85bbb     C8 2458   5.208   3.849   9.790 -0.3620  0.3849  0.1513
   85bbb    H15 2459   5.219   3.740   9.786 -0.7491  0.3270  0.5147
   85bbb    H16 2460   5.307   3.894   9.806 -0.5920  1.0366 -0.2075
   85bbb     C9 2461   4.641   3.567  10.100  0.2556  0.7930  0.1192
   85bbb    H17 2462   4.560   3.637  10.079  2.7910  3.3981 -1.7155
   85bbb    H18 2463   4.644   3.574  10.210 -3.3743  0.0879  0.3858
   85bbb     O1 2464   5.070   4.107  10.323 -0.2720  1.1857  0.5246
   86bbb     N1 2465   4.455   4.064  10.096  0.1006  0.6772 -0.2175
   86bbb     C1 2466   4.317   4.008  10.084  0.6289  0.3201  0.0324
   86bbb     H1 2467   4.266   4.053   9.999 -0.3840 -0.2440  0.3246
   86bbb     H2 2468   4.253   4.035  10.169 -1.1122 -1.0567 -0.7817
   86bbb     C2 2469   4.526   4.009  10.219  0.3635 -0.2594  0.9175
   86bbb     H3 2470   4.626   4.055  10.218  0.1082  0.3193  1.4277
   86bbb     H4 2471   4.550   3.903  10.203 -0.6961 -0.1496 -1.9851
   86bbb     C3 2472   4.542   4.046   9.976 -0.2853 -0.2980  0.3501
   86bbb     H5 2473   4.532   3.941   9.946  0.5603  0.1611 -1.7072
   86bbb     H6 2474   4.649   4.064   9.991  0.7863 -2.2707 -3.5464
   86bbb     C4 2475   4.500   4.150   9.867 -0.5170  1.0389 -0.7183
   86bbb     H7 2476   4.463   4.244   9.910 -1.7309  0.7893 -1.1914
   86bbb     H8 2477   4.410   4.105   9.824  0.5450 -1.2569 -0.6808
   86bbb     C5 2478   4.294   3.848  10.076  0.7001 -0.1536  0.0521
   86bbb     H9 2479   4.314   3.796  10.170  0.4969 -2.1316 -0.9482
   86bbb    H10 2480   4.348   3.811   9.988 -0.4622  0.1979 -0.8525
   86bbb     C6 2481   4.460   4.025  10.353  0.2637  0.1641  0.5664
   86bbb    H11 2482   4.370   3.961  10.351  1.3304 -1.3717 -0.2767
   86bbb    H12 2483   4.437   4.132  10.361  2.2268  0.6661 -0.0585
   86bbb     C7 2484   4.620   4.165   9.764 -0.4687 -0.3429  0.4433
   86bbb    H13 2485   4.590   4.233   9.683  0.8344 -1.8199 -1.3575
   86bbb    H14 2486   4.626   4.068   9.714 -2.7556 -0.7576  0.8481
   86bbb     C8 2487   4.548   3.992  10.482 -0.3161  0.2633  0.7929
   86bbb    H15 2488   4.635   4.058  10.477 -1.0934  1.2263 -0.4198
   86bbb    H16 2489   4.587   3.889  10.482  0.9452  0.7084  1.7668
   86bbb     C9 2490   4.151   3.811  10.036  0.2612  0.0213  0.1945
   86bbb    H17 2491   4.137   3.842   9.931  0.1872  0.3698  0.3048
   86bbb    H18 2492   4.085   3.874  10.097  1.0874  1.5841 -0.4327
   86bbb     O1 2493   4.740   4.214   9.829 -0.0090 -0.3277 -0.4047
   87bbb     N1 2494   3.533   7.158   9.001  0.5804  0.0530 -0.0652
   87bbb     C1 2495   3.467   7.086   8.887  0.8920 -0.3311 -0.1762
   87bbb     H1 2496   3.527   7.088   8.795  1.6863 -2.1470  0.2485
   87bbb     H2 2497   3.385   7.146   8.846  0.6616 -1.4017 -1.3502
   87bbb     C2 2498   3.447   7.192   9.123 -0.3626 -0.1637  0.4002
   87bbb     H3 2499   3.510   7.262   9.180 -3.6816  3.3454  0.1543
   87bbb     H4 2500   3.439   7.107   9.191 -0.2899 -0.4414  0.0661
   87bbb     C3 2501   3.662   7.108   9.046  0.4767  0.8263  0.0875
   87bbb     H5 2502   3.651   7.008   9.090  0.9060  1.2390  1.1549
   87bbb     H6 2503   3.709   7.162   9.129  1.5670 -1.5594  1.1253
   87bbb     C4 2504   3.771   7.093   8.935 -0.3983  0.8052 -0.2814
   87bbb     H7 2505   3.736   7.028   8.854 -0.3466  0.1715  0.1968
   87bbb     H8 2506   3.868   7.062   8.977  0.0607  1.2372 -1.0002
   87bbb     C5 2507   3.424   6.940   8.910 -0.3679  0.1059  0.8189
   87bbb     H9 2508   3.381   6.937   9.011 -0.1234  0.8664  0.9536
   87bbb    H10 2509   3.516   6.881   8.914  0.2823  1.1422  2.5630
   87bbb     C6 2510   3.315   7.260   9.076 -0.5095 -0.0331 -0.3513
   87bbb    H11 2511   3.247   7.191   9.026 -0.4551 -1.5947  1.6240
   87bbb    H12 2512   3.343   7.341   9.007  2.3420  0.2856  1.0040
   87bbb     C7 2513   3.804   7.225   8.858  0.6544  0.1839 -0.7073
   87bbb    H13 2514   3.827   7.306   8.928 -0.9044 -0.8752  1.1478
   87bbb    H14 2515   3.721   7.255   8.794 -0.5539 -3.2633 -0.9676
   87bbb     C8 2516   3.220   7.314   9.185  0.3575 -0.1061  0.6395
   87bbb    H15 2517   3.279   7.389   9.239 -0.2133 -1.2211  2.9526
   87bbb    H16 2518   3.178   7.239   9.253 -0.8083 -2.3421 -2.3149
   87bbb     C9 2519   3.310   6.879   8.817 -0.1413 -0.6976 -0.3458
   87bbb    H17 2520   3.209   6.904   8.852 -1.0694 -2.4535 -1.6216
   87bbb    H18 2521   3.323   6.771   8.820  2.3219 -0.4689 -0.5028
   87bbb     O1 2522   3.925   7.198   8.776 -0.3042  0.0547 -0.3831
   88bbb     N1 2523   4.500   7.409   7.824 -0.8684 -1.0334  0.0779
   88bbb     C1 2524   4.635   7.420   7.747  0.4870 -0.6153  0.1079
   88bbb     H1 2525   4.670   7.524   7.753 -0.3369 -0.1965 -1.7997
   88bbb     H2 2526   4.611   7.403   7.642  0.3271 -0.3997  0.1079
   88bbb     C2 2527   4.427   7.280   7.815 -0.5136  0.1064 -0.9222
   88bbb     H3 2528   4.338   7.293   7.877 -0.3026  0.6727 -0.7319
   88bbb     H4 2529   4.488   7.202   7.860 -1.1221 -0.2161 -0.6483
   88bbb     C3 2530   4.509   7.452   7.969 -0.0957 -0.5456  0.5650
   88bbb     H5 2531   4.571   7.380   8.025  1.2744  1.6138  1.9531
   88bbb     H6 2532   4.409   7.447   8.015  0.7447 -0.4755  2.5264
   88bbb     C4 2533   4.573   7.591   7.990 -0.1794  0.4951  0.1037
   88bbb     H7 2534   4.532   7.661   7.917  0.8575  0.5825 -0.4181
   88bbb     H8 2535   4.681   7.590   7.969  0.4714 -1.0950  3.0589
   88bbb     C5 2536   4.744   7.320   7.798 -0.4142 -0.0893  0.0885
   88bbb     H9 2537   4.721   7.213   7.789  0.2744 -0.6080  3.3140
   88bbb    H10 2538   4.758   7.337   7.905  2.7010 -1.3507  0.0034
   88bbb     C6 2539   4.380   7.236   7.680 -0.2766  0.3060  0.5263
   88bbb    H11 2540   4.470   7.197   7.630 -0.9792  0.5371 -0.9575
   88bbb    H12 2541   4.343   7.315   7.615  1.8740 -0.7948 -2.2611
   88bbb     C7 2542   4.542   7.638   8.134  0.1150  0.2712 -0.4313
   88bbb    H13 2543   4.603   7.729   8.145  1.7482 -0.6062 -1.8975
   88bbb    H14 2544   4.567   7.566   8.213 -1.4174  1.9824  1.7746
   88bbb     C8 2545   4.277   7.131   7.690  0.5434 -0.4367 -0.2979
   88bbb    H15 2546   4.233   7.107   7.593 -0.3542 -0.0793  0.0105
   88bbb    H16 2547   4.194   7.181   7.741 -0.3142 -0.4555 -1.6293
   88bbb     C9 2548   4.883   7.344   7.739 -0.0252 -0.1842  0.1166
   88bbb    H17 2549   4.936   7.250   7.758  1.0210  0.2801 -0.4259
   88bbb    H18 2550   4.935   7.429   7.784 -1.2643  0.6985 -0.0422
   88bbb     O1 2551   4.405   7.678   8.144  0.1945 -0.0882 -0.1912
   89bbb     N1 2552   5.482   8.407   7.706  0.2664 -0.1058 -0.0457
   89bbb     C1 2553   5.429   8.303   7.613 -0.1485 -0.0368  0.0545
   89bbb     H1 2554   5.513   8.265   7.553 -0.4948  0.5975 -0.8652
   89bbb     H2 2555   5.359   8.346   7.540 -1.8559 -1.7663  0.6085
   89bbb     C2 2556   5.560   8.516   7.636  0.0391 -0.1568  0.4887
   89bbb     H3 2557   5.591   8.595   7.706  0.8465 -0.5422  0.5819
   89bbb     H4 2558   5.501   8.571   7.562  2.9117  1.1809 -0.9782
   89bbb     C3 2559   5.389   8.466   7.798  0.2522 -0.1094  0.5047
   89bbb     H5 2560   5.438   8.550   7.848  0.9583  1.1642 -2.1686
   89bbb     H6 2561   5.365   8.393   7.876  0.6195 -0.3315  0.4114
   89bbb     C4 2562   5.257   8.514   7.733  0.2659  0.3224  0.5667
   89bbb     H7 2563   5.209   8.424   7.694  1.5738  0.1305 -0.6934
   89bbb     H8 2564   5.265   8.581   7.647 -0.1999  0.9887  1.0352
   89bbb     C5 2565   5.379   8.181   7.681 -0.0092 -0.6149 -0.6851
   89bbb     H9 2566   5.327   8.200   7.776  1.5315 -0.4541  0.1680
   89bbb    H10 2567   5.468   8.129   7.718 -1.8427 -3.4120  0.1353
   89bbb     C6 2568   5.692   8.454   7.577 -0.1440  0.4587 -0.5606
   89bbb    H11 2569   5.661   8.390   7.493 -1.9733  1.1043 -0.4175
   89bbb    H12 2570   5.741   8.394   7.655  0.6687  0.9474 -0.6837
   89bbb     C7 2571   5.161   8.590   7.826  0.0116  0.4034 -0.2182
   89bbb    H13 2572   5.075   8.633   7.774 -0.4853  1.6480  1.5123
   89bbb    H14 2573   5.209   8.666   7.889  0.6911 -1.3887  1.5458
   89bbb     C8 2574   5.792   8.566   7.522  0.3405  0.0175  0.5413
   89bbb    H15 2575   5.874   8.521   7.466  0.0898  1.3648 -1.0039
   89bbb    H16 2576   5.832   8.607   7.616  1.0163 -0.0762  0.2946
   89bbb     C9 2577   5.281   8.091   7.605 -1.0000  0.1766  0.0167
   89bbb    H17 2578   5.266   7.999   7.663  1.7674 -0.4484 -0.1073
   89bbb    H18 2579   5.335   8.058   7.515 -0.1791 -0.5657  0.7624
   89bbb     O1 2580   5.105   8.493   7.916  0.0057  0.2442 -0.1747
   90bbb     N1 2581   5.368   7.582   7.755 -0.5080 -0.3306 -0.0033
   90bbb     C1 2582   5.519   7.565   7.751  0.0647  0.4812  0.4008
   90bbb     H1 2583   5.549   7.463   7.725  0.0508  0.8022 -0.9937
   90bbb     H2 2584   5.561   7.581   7.851 -0.6214 -0.9281  0.9290
   90bbb     C2 2585   5.309   7.553   7.628  0.1385  0.0869 -0.1163
   90bbb     H3 2586   5.328   7.458   7.577 -1.2526  0.4714 -1.4370
   90bbb     H4 2587   5.362   7.622   7.561  1.1796 -0.2849  0.3112
   90bbb     C3 2588   5.305   7.516   7.877  0.5874 -0.6624  0.2644
   90bbb     H5 2589   5.321   7.408   7.874  0.7234 -0.6219 -1.5657
   90bbb     H6 2590   5.202   7.554   7.880  1.6026  2.7289 -1.3936
   90bbb     C4 2591   5.361   7.570   8.007  0.4220  0.1874  0.6444
   90bbb     H7 2592   5.468   7.551   8.025  0.0947 -0.2614  2.3385
   90bbb     H8 2593   5.322   7.508   8.089 -0.6047 -1.4264 -0.9878
   90bbb     C5 2594   5.597   7.653   7.650  0.1954 -0.7306  0.3854
   90bbb     H9 2595   5.563   7.635   7.547 -0.0092  1.3351  0.0373
   90bbb    H10 2596   5.701   7.621   7.650  0.3655 -0.2151  1.4680
   90bbb     C6 2597   5.157   7.584   7.624 -0.1939  0.2491 -0.2539
   90bbb    H11 2598   5.105   7.535   7.707  2.2346  2.2721  2.6527
   90bbb    H12 2599   5.117   7.552   7.527  1.4354  0.1422 -0.9261
   90bbb     C7 2600   5.335   7.712   8.037  0.2660 -0.4283  0.4762
   90bbb    H13 2601   5.230   7.738   8.015 -0.8717 -1.7838  3.7162
   90bbb    H14 2602   5.399   7.776   7.975  1.6081 -1.4418  0.7829
   90bbb     C8 2603   5.137   7.739   7.634  0.5198 -0.2475  0.5123
   90bbb    H15 2604   5.193   7.785   7.553  1.4021 -0.9078  0.7274
   90bbb    H16 2605   5.188   7.767   7.727 -0.8232  0.6982  0.9970
   90bbb     C9 2606   5.585   7.800   7.710 -0.3853  0.1964  0.4331
   90bbb    H17 2607   5.608   7.790   7.817  1.6395  0.5425  0.0649
   90bbb    H18 2608   5.486   7.843   7.690  0.6406  1.8077 -1.4843
   90bbb     O1 2609   5.370   7.729   8.172  0.3988 -0.3775  0.4376
   91bbb     N1 2610   3.688   6.619  10.252 -0.2620  0.2571 -0.3403
   91bbb     C1 2611   3.760   6.573  10.373 -0.2045 -0.1622  0.1952
   91bbb     H1 2612   3.700   6.530  10.454  1.3926 -1.6390  0.6333
   91bbb     H2 2613   3.807   6.661  10.418 -0.2215  0.1740 -0.4310
   91bbb     C2 2614   3.578   6.707  10.282  0.2565  0.1333 -0.3110
   91bbb     H3 2615   3.532   6.757  10.196 -0.6803  1.0906  0.7315
   91bbb     H4 2616   3.620   6.782  10.351 -0.1009 -0.9809  1.1594
   91bbb     C3 2617   3.776   6.661  10.139 -0.3275  0.0788  0.1017
   91bbb     H5 2618   3.711   6.693  10.056  0.3954  1.1760 -0.0585
   91bbb     H6 2619   3.822   6.575  10.088 -0.4348 -0.4633  0.8966
   91bbb     C4 2620   3.884   6.773  10.164  0.3219  0.0641  0.6145
   91bbb     H7 2621   3.960   6.738  10.236 -0.7105 -0.5563  1.4320
   91bbb     H8 2622   3.834   6.854  10.219  0.2774 -0.1251  0.8576
   91bbb     C5 2623   3.875   6.471  10.342  0.2583 -0.7450  0.0258
   91bbb     H9 2624   3.924   6.449  10.437  2.1805  4.0084  0.3963
   91bbb    H10 2625   3.954   6.519  10.283  0.5593 -1.0340  0.1902
   91bbb     C6 2626   3.465   6.638  10.358 -0.0538  0.3528 -0.0768
   91bbb    H11 2627   3.394   6.722  10.366 -0.9376 -0.2912 -0.9531
   91bbb    H12 2628   3.504   6.618  10.458 -0.2291  0.4118  0.0044
   91bbb     C7 2629   3.949   6.827  10.041 -0.9032  0.4030  0.0966
   91bbb    H13 2630   3.989   6.737   9.992  1.2404  0.9045  0.8048
   91bbb    H14 2631   4.033   6.893  10.066 -0.6395  1.6301 -3.5463
   91bbb     C8 2632   3.392   6.517  10.297  0.0083  0.0092 -0.5505
   91bbb    H15 2633   3.466   6.455  10.244  3.1341  2.2733  0.7916
   91bbb    H16 2634   3.314   6.542  10.224  0.1204 -1.2379 -1.1312
   91bbb     C9 2635   3.819   6.348  10.267 -0.0292  0.4102  0.6437
   91bbb    H17 2636   3.735   6.371  10.201  2.3314  1.3326 -2.2443
   91bbb    H18 2637   3.784   6.272  10.338 -0.3384 -2.4691 -2.3853
   91bbb     O1 2638   3.857   6.904   9.961 -0.2662  0.5912 -0.2468
   92bbb     N1 2639   2.782   7.074   9.544  0.1339  0.4735  0.1773
   92bbb     C1 2640   2.804   6.966   9.445  0.1081  0.6656 -0.3961
   92bbb     H1 2641   2.903   6.981   9.400  1.4189 -0.6164  1.8696
   92bbb     H2 2642   2.726   6.980   9.368 -0.0876  2.3726  0.0795
   92bbb     C2 2643   2.640   7.075   9.603 -0.0624 -0.1860 -0.5000
   92bbb     H3 2644   2.624   6.970   9.630  1.8214 -0.9668 -2.1030
   92bbb     H4 2645   2.576   7.117   9.524 -0.5938  0.3938  0.2305
   92bbb     C3 2646   2.835   7.204   9.506 -0.6900  0.0254 -0.2218
   92bbb     H5 2647   2.801   7.273   9.585 -2.7023  0.7432 -1.6138
   92bbb     H6 2648   2.784   7.222   9.411  2.0351 -1.3307 -2.0430
   92bbb     C4 2649   2.989   7.207   9.484  0.6423 -0.6541 -0.0885
   92bbb     H7 2650   3.015   7.313   9.475 -0.1286 -0.3618  0.9589
   92bbb     H8 2651   3.020   7.163   9.388 -1.1953 -0.0573 -1.0015
   92bbb     C5 2652   2.809   6.821   9.510 -0.6159  0.5580  0.5391
   92bbb     H9 2653   2.840   6.759   9.426 -0.2957  1.5969 -0.1373
   92bbb    H10 2654   2.710   6.780   9.531 -0.6453 -2.3093 -3.9663
   92bbb     C6 2655   2.629   7.167   9.732 -0.0494 -0.3581 -0.1530
   92bbb    H11 2656   2.595   7.269   9.707 -1.0673  0.4346  3.8089
   92bbb    H12 2657   2.726   7.184   9.780  0.3107  0.0309 -0.9978
   92bbb     C7 2658   3.067   7.150   9.607 -0.0337  0.6423  0.4147
   92bbb    H13 2659   3.026   7.052   9.636 -0.2083  0.7796  0.6407
   92bbb    H14 2660   3.070   7.223   9.689  1.4478  1.3501 -0.2410
   92bbb     C8 2661   2.539   7.111   9.834  0.9274  0.3975  0.1545
   92bbb    H15 2662   2.533   7.180   9.919 -1.1883  0.4816 -0.0201
   92bbb    H16 2663   2.579   7.016   9.873  0.7787  0.0957 -0.4130
   92bbb     C9 2664   2.911   6.806   9.631 -0.1947  0.2292  0.0846
   92bbb    H17 2665   2.877   6.878   9.706  1.9243  0.8193  0.5578
   92bbb    H18 2666   3.009   6.840   9.596  0.0241 -0.3626  0.1152
   92bbb     O1 2667   3.202   7.148   9.553 -0.3828 -0.4448  0.5018
   93bbb     N1 2668   4.988   6.241  10.605  0.4656 -0.0149  0.5942
   93bbb     C1 2669   5.033   6.109  10.660 -0.2622 -0.5067 -0.2587
   93bbb     H1 2670   4.969   6.083  10.745 -0.0261  4.1134  1.6179
   93bbb     H2 2671   5.132   6.112  10.708 -0.7083  3.0625  0.7432
   93bbb     C2 2672   4.999   6.348  10.714  0.2467  0.7244  0.3741
   93bbb     H3 2673   4.990   6.448  10.668 -2.8931 -0.2889 -1.5372
   93bbb     H4 2674   5.096   6.346  10.764 -0.0977  1.2149  1.0936
   93bbb     C3 2675   4.858   6.238  10.528  0.2062 -0.6036 -0.2655
   93bbb     H5 2676   4.774   6.201  10.588 -0.5826 -0.1145 -1.0361
   93bbb     H6 2677   4.861   6.168  10.443 -1.5036 -0.5504 -0.3981
   93bbb     C4 2678   4.819   6.372  10.466 -0.1596 -0.1591  0.5920
   93bbb     H7 2679   4.814   6.457  10.534 -1.1689  0.1976  0.0999
   93bbb     H8 2680   4.716   6.358  10.431 -0.0853 -0.8587  0.6383
   93bbb     C5 2681   5.018   5.990  10.564  0.0553  0.2234 -0.1276
   93bbb     H9 2682   5.059   6.014  10.465  0.5112 -0.1489 -0.0368
   93bbb    H10 2683   4.913   5.965  10.544  0.8430 -1.4086 -2.8568
   93bbb     C6 2684   4.885   6.344  10.821  0.3766  0.0133  0.4618
   93bbb    H11 2685   4.886   6.245  10.868  1.1496  0.1441  0.7429
   93bbb    H12 2686   4.794   6.381  10.772 -0.2693  0.3680  1.8622
   93bbb     C7 2687   4.911   6.410  10.348  0.5136 -0.1566 -0.6769
   93bbb    H13 2688   4.964   6.319  10.316 -1.8821 -1.2567 -1.7097
   93bbb    H14 2689   4.977   6.492  10.378 -2.3469  2.6921 -1.6370
   93bbb     C8 2690   4.898   6.442  10.935 -1.2078 -0.2429 -0.1363
   93bbb    H15 2691   4.884   6.542  10.892 -1.3128 -0.8204 -1.4910
   93bbb    H16 2692   5.002   6.434  10.971 -0.2342 -0.4676 -2.7595
   93bbb     C9 2693   5.083   5.857  10.612  0.3694  0.2405 -0.3541
   93bbb    H17 2694   5.071   5.779  10.536 -0.1707 -0.6057  0.5697
   93bbb    H18 2695   5.026   5.821  10.698 -0.8650 -0.8144 -1.5702
   93bbb     O1 2696   4.828   6.461  10.241 -0.3169 -0.0242 -0.1020
   94bbb     N1 2697   4.415   6.690  10.373 -0.0744 -0.0351 -0.2710
   94bbb     C1 2698   4.391   6.626  10.504  0.0171 -0.1688 -0.4612
   94bbb     H1 2699   4.294   6.576  10.509 -0.6235  0.9068 -1.6923
   94bbb     H2 2700   4.383   6.694  10.590  0.7973 -1.3555  0.5936
   94bbb     C2 2701   4.541   6.758  10.354 -0.7072 -0.3531  0.2185
   94bbb     H3 2702   4.541   6.799  10.253  0.6041 -1.1228 -0.1075
   94bbb     H4 2703   4.628   6.692  10.363 -1.2970 -1.1244  0.2962
   94bbb     C3 2704   4.387   6.596  10.259  0.0451 -0.0313  0.2923
   94bbb     H5 2705   4.464   6.519  10.254 -1.7229 -1.9167  0.4842
   94bbb     H6 2706   4.382   6.650  10.164  0.2997 -1.7345 -0.7300
   94bbb     C4 2707   4.238   6.524  10.263 -0.1044 -0.0314 -0.6695
   94bbb     H7 2708   4.156   6.587  10.299  0.0542 -0.5348  0.5992
   94bbb     H8 2709   4.242   6.436  10.328  3.2176  0.8537  0.5313
   94bbb     C5 2710   4.499   6.519  10.542 -0.0738  0.6223 -0.2397
   94bbb     H9 2711   4.600   6.562  10.547 -0.0063  0.4864 -0.4105
   94bbb    H10 2712   4.495   6.440  10.466  1.7705  1.9673 -1.8446
   94bbb     C6 2713   4.567   6.883  10.440 -0.2818  0.0881 -0.0432
   94bbb    H11 2714   4.472   6.933  10.464 -0.3901 -0.1771  0.0857
   94bbb    H12 2715   4.632   6.954  10.387 -1.9834  1.5684 -0.2461
   94bbb     C7 2716   4.192   6.486  10.125  0.1766 -0.6270 -0.3249
   94bbb    H13 2717   4.189   6.573  10.058 -0.8293 -1.6538 -1.6775
   94bbb    H14 2718   4.096   6.433  10.115  0.0385 -0.6596  0.9733
   94bbb     C8 2719   4.620   6.857  10.584  0.3198 -0.1474  0.8824
   94bbb    H15 2720   4.576   6.765  10.624 -1.4862  0.6507  0.8426
   94bbb    H16 2721   4.597   6.931  10.662 -0.8836 -2.1831  2.5408
   94bbb     C9 2722   4.455   6.459  10.682 -0.5005  0.4625  0.7963
   94bbb    H17 2723   4.506   6.365  10.708  1.3255  1.6725  1.7808
   94bbb    H18 2724   4.349   6.434  10.677 -0.6879  1.2555  0.6318
   94bbb     O1 2725   4.297   6.402  10.071 -0.3052  0.7319 -0.2911
   95bbb     N1 2726   7.940   4.177   7.083  0.4867  0.8899  0.1324
   95bbb     C1 2727   8.004   4.181   6.947 -0.2657  0.5719  0.1456
   95bbb     H1 2728   8.113   4.168   6.952  0.3701  4.2532 -0.6474
   95bbb     H2 2729   7.990   4.283   6.908 -0.4439  0.0791 -1.0938
   95bbb     C2 2730   7.966   4.060   7.166 -0.0680  0.1232  0.3294
   95bbb     H3 2731   7.918   3.964   7.144  0.4628 -0.4022  1.3636
   95bbb     H4 2732   7.923   4.093   7.261  0.8121  2.6982 -0.0867
   95bbb     C3 2733   7.795   4.214   7.083  0.4117  0.3679 -0.5661
   95bbb     H5 2734   7.754   4.226   7.184  0.0314  0.7134 -0.7589
   95bbb     H6 2735   7.739   4.142   7.023  1.0210  0.3584 -1.1366
   95bbb     C4 2736   7.767   4.349   7.015 -0.0163  0.6789 -0.5059
   95bbb     H7 2737   7.806   4.363   6.914 -0.5770 -1.2518 -1.0229
   95bbb     H8 2738   7.815   4.433   7.066 -0.2948  0.2335  0.5143
   95bbb     C5 2739   7.940   4.092   6.836  0.3656 -0.3956  0.1421
   95bbb     H9 2740   8.009   4.098   6.750  1.0760 -0.8178  0.6670
   95bbb    H10 2741   7.843   4.133   6.808  0.1817  1.4332  3.0921
   95bbb     C6 2742   8.118   4.027   7.184 -0.6033 -0.2140  0.3478
   95bbb    H11 2743   8.160   3.992   7.088  1.2214 -0.3683  1.1642
   95bbb    H12 2744   8.121   3.949   7.261  0.7094  0.1738  0.7027
   95bbb     C7 2745   7.619   4.384   6.994 -0.6256  0.1140 -0.9136
   95bbb    H13 2746   7.602   4.473   6.932  1.5759  0.2710 -1.3675
   95bbb    H14 2747   7.574   4.397   7.093  0.5679  2.1499 -0.5764
   95bbb     C8 2748   8.208   4.143   7.240  0.4256  0.8984  0.6965
   95bbb    H15 2749   8.168   4.193   7.329  0.2471  1.0812  0.5181
   95bbb    H16 2750   8.200   4.217   7.159  0.7196 -1.1492 -1.3059
   95bbb     C9 2751   7.925   3.943   6.880  0.7462  0.3399 -0.0616
   95bbb    H17 2752   7.842   3.927   6.951  0.7363  0.3204 -0.0775
   95bbb    H18 2753   8.019   3.910   6.926  0.6010  0.0705  0.0475
   95bbb     O1 2754   7.567   4.270   6.924 -0.3678  0.0752  0.1863
   96bbb     N1 2755   7.525   3.788   6.390  0.4310  0.7490  0.5278
   96bbb     C1 2756   7.597   3.920   6.409  0.4111 -0.1940 -0.1828
   96bbb     H1 2757   7.573   3.980   6.320 -0.6235 -0.9271 -0.4229
   96bbb     H2 2758   7.702   3.892   6.397  0.2541  0.1724 -3.1156
   96bbb     C2 2759   7.567   3.686   6.495  0.3802  0.4128 -0.7549
   96bbb     H3 2760   7.530   3.720   6.593  0.4614 -1.3104 -0.1017
   96bbb     H4 2761   7.676   3.686   6.490  0.8228 -2.3739  3.6287
   96bbb     C3 2762   7.375   3.793   6.381 -0.6288 -0.1886 -0.3095
   96bbb     H5 2763   7.335   3.838   6.473  0.7137  0.7222 -0.1305
   96bbb     H6 2764   7.336   3.691   6.380 -0.6329 -0.2420  1.4108
   96bbb     C4 2765   7.303   3.864   6.263 -0.8001 -0.8991 -0.6670
   96bbb     H7 2766   7.208   3.810   6.254 -0.2154 -2.4724  1.5688
   96bbb     H8 2767   7.359   3.861   6.169  0.4823 -0.8750  0.0631
   96bbb     C5 2768   7.570   4.003   6.541  0.0273  0.3293 -0.1175
   96bbb     H9 2769   7.626   3.958   6.624  1.3620 -2.3595 -2.3476
   96bbb    H10 2770   7.464   4.001   6.571  0.2809 -0.7065  0.7782
   96bbb     C6 2771   7.520   3.542   6.467  0.3474  0.1060 -0.1239
   96bbb    H11 2772   7.412   3.532   6.481 -0.1908  2.7377 -1.6262
   96bbb    H12 2773   7.568   3.474   6.538 -0.3695  0.1936  0.4472
   96bbb     C7 2774   7.277   4.017   6.288 -0.2397  1.0112 -0.1595
   96bbb    H13 2775   7.224   4.052   6.199 -0.4142 -1.6694 -1.2220
   96bbb    H14 2776   7.366   4.078   6.307 -0.9326  1.2796  2.7377
   96bbb     C8 2777   7.569   3.498   6.331 -0.3458  0.2000  0.5421
   96bbb    H15 2778   7.677   3.505   6.311 -0.8240  1.3612 -2.0939
   96bbb    H16 2779   7.512   3.557   6.258  1.2324  0.3923 -0.5938
   96bbb     C9 2780   7.612   4.151   6.529 -0.1394  0.1598 -0.0670
   96bbb    H17 2781   7.720   4.140   6.512  0.0175 -1.5472  1.6562
   96bbb    H18 2782   7.598   4.201   6.625  1.4167 -0.3748  0.4680
   96bbb     O1 2783   7.193   4.034   6.401  0.3436  0.4493  0.0011
   97bbb     N1 2784   7.379   4.813   8.576  0.3325 -0.3412 -0.1149
   97bbb     C1 2785   7.486   4.918   8.564  0.1596  0.3657 -0.3741
   97bbb     H1 2786   7.492   4.968   8.467  1.6699 -0.0479 -0.5203
   97bbb     H2 2787   7.585   4.876   8.582 -0.2040 -0.1239  0.5714
   97bbb     C2 2788   7.379   4.728   8.700 -0.6161 -0.6012 -0.8154
   97bbb     H3 2789   7.425   4.786   8.781  0.4401 -1.2530 -0.9213
   97bbb     H4 2790   7.442   4.641   8.678  3.4131  1.9897 -0.7309
   97bbb     C3 2791   7.382   4.734   8.452  0.1632  0.0893 -0.1290
   97bbb     H5 2792   7.326   4.640   8.459  0.5556 -0.1714 -0.3731
   97bbb     H6 2793   7.485   4.703   8.428 -1.1021 -3.3352 -1.7318
   97bbb     C4 2794   7.324   4.808   8.331 -0.0290 -0.0938  0.4939
   97bbb     H7 2795   7.357   4.913   8.339  1.6062 -0.6212  1.2344
   97bbb     H8 2796   7.216   4.819   8.341  0.0000  0.6831  0.0371
   97bbb     C5 2797   7.465   5.036   8.659  0.1760 -0.4128  0.2108
   97bbb     H9 2798   7.480   4.996   8.760  0.5474 -1.6136 -0.3047
   97bbb    H10 2799   7.361   5.068   8.654  0.3483 -0.0745 -1.8016
   97bbb     C6 2800   7.237   4.687   8.734  0.8864  0.9030 -0.3354
   97bbb    H11 2801   7.184   4.644   8.648 -1.4128 -0.1178  1.4723
   97bbb    H12 2802   7.185   4.774   8.775  0.7683  1.1532 -0.9997
   97bbb     C7 2803   7.366   4.748   8.197  0.1958 -1.1258  0.5766
   97bbb    H13 2804   7.301   4.660   8.181 -0.1829 -1.0213  1.4641
   97bbb    H14 2805   7.472   4.721   8.204  0.7413  0.7942  0.2103
   97bbb     C8 2806   7.225   4.580   8.847 -0.0284  0.3421 -0.6005
   97bbb    H15 2807   7.119   4.554   8.847 -0.4556  1.9490 -0.5637
   97bbb    H16 2808   7.257   4.623   8.943 -3.7398  0.0889  0.8802
   97bbb     C9 2809   7.554   5.154   8.627 -0.2721 -0.9332 -0.2598
   97bbb    H17 2810   7.532   5.239   8.693  0.5097 -2.2218  1.7556
   97bbb    H18 2811   7.552   5.187   8.522 -2.0147 -0.4921 -0.1159
   97bbb     O1 2812   7.338   4.844   8.092  0.1017  0.0645 -0.0987
   98bbb     N1 2813   7.491   4.187   7.476 -0.0479  0.0175 -0.0597
   98bbb     C1 2814   7.476   4.130   7.337  0.2946 -0.7169 -0.1943
   98bbb     H1 2815   7.553   4.053   7.320 -1.1869 -1.7949 -2.5312
   98bbb     H2 2816   7.507   4.203   7.261 -0.3556 -1.3846 -1.1224
   98bbb     C2 2817   7.596   4.289   7.487  0.7130  0.3523 -0.6600
   98bbb     H3 2818   7.692   4.253   7.448  1.3826  1.9936 -0.6243
   98bbb     H4 2819   7.609   4.312   7.594 -0.2627 -1.8751 -0.0040
   98bbb     C3 2820   7.494   4.080   7.578  0.0296  0.2965  0.2156
   98bbb     H5 2821   7.585   4.020   7.589 -0.1867 -0.1160 -0.2055
   98bbb     H6 2822   7.414   4.013   7.543  0.3276  0.5631 -1.0416
   98bbb     C4 2823   7.459   4.123   7.719  0.0648 -0.0574  0.8730
   98bbb     H7 2824   7.542   4.183   7.759  1.4448 -0.0595 -1.7759
   98bbb     H8 2825   7.451   4.033   7.780 -2.2061 -0.0552  0.6754
   98bbb     C5 2826   7.340   4.057   7.318 -0.5873  0.3557  0.4350
   98bbb     H9 2827   7.346   3.954   7.355 -1.9329 -0.2833 -1.0236
   98bbb    H10 2828   7.331   4.024   7.214 -0.9519  1.2325  0.1786
   98bbb     C6 2829   7.547   4.426   7.427  0.3342  0.6093  0.4914
   98bbb    H11 2830   7.535   4.423   7.318  1.1439  1.2236  0.3734
   98bbb    H12 2831   7.632   4.494   7.436  1.0982 -0.3526  0.6242
   98bbb     C7 2832   7.322   4.196   7.727 -0.5800 -0.1273  0.0524
   98bbb    H13 2833   7.247   4.128   7.687  0.5478 -1.4207  0.0612
   98bbb    H14 2834   7.313   4.297   7.686 -1.1778 -0.4475 -0.6406
   98bbb     C8 2835   7.417   4.486   7.497 -0.3480 -0.1023  0.3392
   98bbb    H15 2836   7.427   4.481   7.607  1.9946  2.5192  0.3906
   98bbb    H16 2837   7.344   4.410   7.468 -0.7485 -0.4047  2.0387
   98bbb     C9 2838   7.213   4.129   7.366  0.5863 -0.0297  0.5242
   98bbb    H17 2839   7.206   4.222   7.308  1.3155 -1.4182 -1.9365
   98bbb    H18 2840   7.216   4.168   7.469  2.1658  2.3835 -0.3352
   98bbb     O1 2841   7.295   4.211   7.865  0.2053  0.0072 -0.5221
   99bbb     N1 2842   6.034   5.733   5.501  1.3280 -0.4498 -0.4353
   99bbb     C1 2843   6.142   5.700   5.401  0.1815  0.2271 -0.1646
   99bbb     H1 2844   6.241   5.730   5.437 -0.4756  0.5268  1.4815
   99bbb     H2 2845   6.120   5.746   5.304  1.5294 -0.3065 -0.7427
   99bbb     C2 2846   5.898   5.711   5.449  0.4870 -0.2709 -1.0208
   99bbb     H3 2847   5.856   5.617   5.486  1.2431 -1.3287 -2.7154
   99bbb     H4 2848   5.892   5.711   5.340 -0.4810  1.2675 -0.9996
   99bbb     C3 2849   6.050   5.700   5.641  0.0852 -0.3094 -0.1325
   99bbb     H5 2850   6.043   5.591   5.651  0.1064 -0.3155 -0.1769
   99bbb     H6 2851   5.964   5.728   5.703 -1.1142 -2.6241 -0.6313
   99bbb     C4 2852   6.185   5.741   5.703  0.3273 -0.4725  0.8270
   99bbb     H7 2853   6.204   5.840   5.660  0.2176 -0.9121 -0.2531
   99bbb     H8 2854   6.263   5.676   5.662 -1.7985 -1.6953 -1.5389
   99bbb     C5 2855   6.147   5.553   5.368  0.6944  0.7500  0.0760
   99bbb     H9 2856   6.056   5.531   5.311  0.5154 -1.2636  1.0283
   99bbb    H10 2857   6.163   5.484   5.453 -0.5321 -2.6475 -2.2312
   99bbb     C6 2858   5.800   5.821   5.502 -0.5063  0.5811 -0.0553
   99bbb    H11 2859   5.817   5.914   5.447 -2.1747  0.8057 -0.2694
   99bbb    H12 2860   5.827   5.846   5.605  2.6817 -0.6962 -0.4688
   99bbb     C7 2861   6.187   5.755   5.855  0.4406 -0.1408  0.5603
   99bbb    H13 2862   6.291   5.747   5.889  1.1629  0.0597 -1.4760
   99bbb    H14 2863   6.135   5.666   5.893 -1.2775  0.4711 -0.2793
   99bbb     C8 2864   5.651   5.776   5.502 -0.6852 -1.1545 -0.8492
   99bbb    H15 2865   5.594   5.855   5.553  1.9373 -0.3313  1.0186
   99bbb    H16 2866   5.655   5.678   5.553  0.0209 -1.4562 -1.4681
   99bbb     C9 2867   6.263   5.527   5.271  0.0698 -0.1857 -0.1603
   99bbb    H17 2868   6.244   5.561   5.168  1.5629 -2.1147 -1.1265
   99bbb    H18 2869   6.276   5.418   5.270 -0.9941 -0.3233 -0.1339
   99bbb     O1 2870   6.126   5.879   5.886  0.7105  0.3173 -0.1549
  100bbb     N1 2871   6.795   6.628   6.493 -0.2794  0.2687  0.1683
  100bbb     C1 2872   6.917   6.690   6.429  0.1884  0.2650  0.2542
  100bbb     H1 2873   6.938   6.628   6.341 -0.4524 -0.7428  0.7933
  100bbb     H2 2874   7.001   6.672   6.496 -1.4409  1.0386  2.6328
  100bbb     C2 2875   6.794   6.657   6.637 -0.2923 -0.3148  0.9129
  100bbb     H3 2876   6.764   6.761   6.653 -0.4779 -0.0369 -0.9846
  100bbb     H4 2877   6.896   6.647   6.677 -0.1014  0.9527  0.7635
  100bbb     C3 2878   6.672   6.636   6.426  0.5588  0.6438  0.4092
  100bbb     H5 2879   6.637   6.739   6.418 -0.9720  0.1515  0.3227
  100bbb     H6 2880   6.596   6.582   6.484  0.2310  1.3891  0.6822
  100bbb     C4 2881   6.677   6.569   6.287 -0.2866  0.0929 -0.3622
  100bbb     H7 2882   6.735   6.476   6.298 -3.8903 -2.2077  1.0737
  100bbb     H8 2883   6.733   6.637   6.222 -0.8457  2.3101  1.3611
  100bbb     C5 2884   6.906   6.845   6.411 -0.0954  0.6054  0.0582
  100bbb     H9 2885   6.908   6.898   6.507 -0.7081  1.7249 -0.5243
  100bbb    H10 2886   6.809   6.879   6.374 -0.7615  0.9490  2.0006
  100bbb     C6 2887   6.711   6.565   6.727 -0.3480  0.5110  0.3114
  100bbb    H11 2888   6.733   6.460   6.709  0.6041  0.2288  2.7090
  100bbb    H12 2889   6.606   6.588   6.703 -0.3353  0.8218  0.5336
  100bbb     C7 2890   6.544   6.537   6.217  0.1096 -0.1600  0.2771
  100bbb    H13 2891   6.565   6.531   6.110 -2.3083 -0.7170 -0.2294
  100bbb    H14 2892   6.470   6.614   6.243 -0.3302 -1.4489  3.3556
  100bbb     C8 2893   6.726   6.597   6.876  0.3135  0.3843 -0.5008
  100bbb    H15 2894   6.652   6.672   6.904 -0.6767 -1.2794  1.6064
  100bbb    H16 2895   6.827   6.636   6.892 -0.1137  2.9617 -3.2065
  100bbb     C9 2896   7.009   6.893   6.313  0.2485  0.4837 -0.0216
  100bbb    H17 2897   6.979   6.992   6.276 -2.2719 -0.2414 -0.0653
  100bbb    H18 2898   7.017   6.831   6.222 -1.1287  1.6719 -0.9930
  100bbb     O1 2899   6.505   6.404   6.252 -0.0031  0.3206  0.1884
  101bbb     N1 2900   6.108   7.028   7.104  0.2788  0.5124 -0.1914
  101bbb     C1 2901   6.068   7.051   7.246  0.9248  0.3718 -0.2113
  101bbb     H1 2902   6.100   6.958   7.296 -1.0891 -0.4889 -0.4133
  101bbb     H2 2903   5.960   7.062   7.262  1.2194  1.6724  1.0230
  101bbb     C2 2904   6.104   7.153   7.014  0.6798  0.1259  0.5716
  101bbb     H3 2905   6.154   7.239   7.061  0.1586 -0.0423  1.4518
  101bbb     H4 2906   6.003   7.194   7.010  2.1129  4.0738 -0.5318
  101bbb     C3 2907   6.057   6.892   7.056  0.0973 -0.4693  0.1428
  101bbb     H5 2908   6.112   6.815   7.111  0.0716 -1.2749 -0.9339
  101bbb     H6 2909   6.090   6.887   6.952 -1.2766  1.3317 -0.4315
  101bbb     C4 2910   5.911   6.873   7.051  0.0724  0.4724  0.0083
  101bbb     H7 2911   5.873   6.967   7.010  2.5011  1.0495 -1.1163
  101bbb     H8 2912   5.868   6.862   7.151 -1.2610 -0.5179 -0.6381
  101bbb     C5 2913   6.126   7.174   7.318 -0.0944  0.5735 -0.4822
  101bbb     H9 2914   6.065   7.255   7.276 -1.9601  0.0454  1.0882
  101bbb    H10 2915   6.231   7.191   7.292  0.7273  0.1933  2.2157
  101bbb     C6 2916   6.163   7.135   6.864 -0.3716 -0.5464 -0.2406
  101bbb    H11 2917   6.197   7.230   6.822 -0.6982  0.2302  1.1897
  101bbb    H12 2918   6.082   7.104   6.797 -0.8089  0.8280 -0.3703
  101bbb     C7 2919   5.852   6.764   6.963  0.3022  0.3184  0.0174
  101bbb    H13 2920   5.896   6.753   6.864 -1.0775 -0.8412 -0.5069
  101bbb    H14 2921   5.746   6.787   6.942  0.2400  0.7394  0.7423
  101bbb     C8 2922   6.286   7.043   6.844 -0.2693  0.1536 -0.4561
  101bbb    H15 2923   6.266   6.951   6.901 -1.9850  0.1103 -1.0868
  101bbb    H16 2924   6.372   7.099   6.884 -0.9251  0.1133  1.0678
  101bbb     C9 2925   6.126   7.179   7.477  0.2351  0.1747  0.1786
  101bbb    H17 2926   6.031   7.145   7.520  0.9168 -0.1320  1.4947
  101bbb    H18 2927   6.139   7.284   7.509  1.6377 -0.7309  2.9414
  101bbb     O1 2928   5.873   6.634   7.022  0.7966  0.3630  0.2104
  102bbb     N1 2929   6.646   5.921   6.927  0.3453  0.5043 -0.1121
  102bbb     C1 2930   6.768   5.948   6.851  0.5502  0.3614 -0.3374
  102bbb     H1 2931   6.844   6.000   6.910 -0.0388  3.2636 -1.9787
  102bbb     H2 2932   6.735   6.018   6.774 -1.6062 -1.1059 -0.8465
  102bbb     C2 2933   6.534   5.840   6.857  0.5908  0.5422  0.3199
  102bbb     H3 2934   6.446   5.837   6.922 -0.1775  1.4231 -0.6369
  102bbb     H4 2935   6.568   5.737   6.845 -0.2779  0.0994  1.4426
  102bbb     C3 2936   6.606   6.042   7.008 -0.3160 -0.2579  0.6692
  102bbb     H5 2937   6.597   6.119   6.931  0.2542 -0.2544  0.6016
  102bbb     H6 2938   6.683   6.069   7.081  2.1583 -1.0394 -1.4578
  102bbb     C4 2939   6.466   6.046   7.071 -0.6757  0.6655  0.6240
  102bbb     H7 2940   6.465   5.962   7.141 -0.8174  0.6177  0.5646
  102bbb     H8 2941   6.395   6.039   6.988  0.7591  0.6398 -0.6394
  102bbb     C5 2942   6.831   5.822   6.781  0.4389 -0.0888 -0.2283
  102bbb     H9 2943   6.893   5.855   6.696  0.3873  1.5213  0.3230
  102bbb    H10 2944   6.740   5.772   6.747 -1.9096  2.5226  1.6957
  102bbb     C6 2945   6.477   5.884   6.722 -0.7182  0.5203 -0.1789
  102bbb    H11 2946   6.547   5.845   6.648  2.2179  1.6955  1.7998
  102bbb    H12 2947   6.476   5.993   6.708 -0.0980  0.7361  1.3031
  102bbb     C7 2948   6.429   6.183   7.131 -0.1135  0.6249  0.1125
  102bbb    H13 2949   6.453   6.258   7.054  1.0539  1.5396  1.3302
  102bbb    H14 2950   6.491   6.215   7.215 -0.5245 -0.2936  0.7779
  102bbb     C8 2951   6.342   5.824   6.685  0.1429  0.2348 -0.1196
  102bbb    H15 2952   6.296   5.873   6.598 -2.4877 -0.4936  0.7737
  102bbb    H16 2953   6.266   5.840   6.761 -1.1567  1.4968 -1.6111
  102bbb     C9 2954   6.914   5.725   6.873  0.2204 -0.5868  0.4125
  102bbb    H17 2955   6.935   5.634   6.816  0.8402  0.5226 -1.2168
  102bbb    H18 2956   6.851   5.701   6.959  2.6242 -1.1012  2.1476
  102bbb     O1 2957   6.291   6.190   7.166  0.1413  0.0793 -0.2986
  103bbb     N1 2958   2.495   4.839   6.947 -0.3321 -0.3535 -0.4087
  103bbb     C1 2959   2.423   4.790   6.837 -0.1769  0.4614  0.6022
  103bbb     H1 2960   2.424   4.681   6.846  2.6392  0.4989  1.8276
  103bbb     H2 2961   2.476   4.821   6.746  1.6878  2.2255  2.1945
  103bbb     C2 2962   2.530   4.983   6.944 -0.3257  0.1358  0.1081
  103bbb     H3 2963   2.443   5.049   6.931 -1.6010 -1.5256 -0.0280
  103bbb     H4 2964   2.588   5.004   6.853 -2.1097 -1.1510 -1.3814
  103bbb     C3 2965   2.602   4.746   6.992  0.0149  0.0940  0.0594
  103bbb     H5 2966   2.563   4.644   6.998  1.1970 -0.4887 -1.4228
  103bbb     H6 2967   2.633   4.784   7.091 -1.5066 -0.6920  0.8763
  103bbb     C4 2968   2.733   4.744   6.905  0.1504 -0.2539  0.0885
  103bbb     H7 2969   2.791   4.836   6.915  0.6809 -0.3692 -1.6556
  103bbb     H8 2970   2.701   4.735   6.801  1.5307 -1.4902 -0.2666
  103bbb     C5 2971   2.272   4.838   6.838 -0.1544 -0.0566 -0.4185
  103bbb     H9 2972   2.278   4.948   6.840  0.1051  0.0239 -2.8501
  103bbb    H10 2973   2.230   4.803   6.933  0.1090 -1.2025 -0.7092
  103bbb     C6 2974   2.612   5.030   7.068  0.0569 -0.7134 -0.0263
  103bbb    H11 2975   2.651   5.129   7.044 -0.5820 -0.9719 -2.4373
  103bbb    H12 2976   2.702   4.968   7.084  0.2081 -0.3125  0.7243
  103bbb     C7 2977   2.830   4.632   6.923  0.0124  0.0814 -0.5243
  103bbb    H13 2978   2.781   4.550   6.869 -1.7003 -1.5823  3.2012
  103bbb    H14 2979   2.849   4.614   7.030 -0.5530  1.0199 -0.2531
  103bbb     C8 2980   2.529   5.026   7.194 -0.0320  0.8007 -0.4056
  103bbb    H15 2981   2.530   4.928   7.244 -2.2187  0.7112 -0.4353
  103bbb    H16 2982   2.427   5.048   7.160 -0.2011 -2.3257 -2.3262
  103bbb     C9 2983   2.177   4.787   6.726 -0.9746  0.2434 -0.1957
  103bbb    H17 2984   2.206   4.843   6.636 -2.1550  0.7033 -0.2978
  103bbb    H18 2985   2.075   4.795   6.764 -0.6724 -1.0237  0.9470
  103bbb     O1 2986   2.957   4.677   6.864  0.6104 -0.4306  0.0694
  104bbb     N1 2987   3.047   4.268   7.617 -0.6288  0.5462  0.1662
  104bbb     C1 2988   3.150   4.329   7.719  0.2141 -0.3503 -0.3436
  104bbb     H1 2989   3.251   4.316   7.680  0.4999 -1.5897  0.7246
  104bbb     H2 2990   3.137   4.273   7.812 -2.7185  0.8782  0.1055
  104bbb     C2 2991   2.921   4.207   7.671  0.7893 -0.4215 -0.4959
  104bbb     H3 2992   2.842   4.282   7.660  2.4932  1.8596  1.7213
  104bbb     H4 2993   2.929   4.186   7.778 -1.1981 -1.0095 -0.4379
  104bbb     C3 2994   3.018   4.353   7.503 -0.1989  0.3303  0.3552
  104bbb     H5 2995   2.966   4.439   7.548 -0.9392 -0.2326  0.5957
  104bbb     H6 2996   2.942   4.307   7.440  0.9588  1.4500 -1.9791
  104bbb     C4 2997   3.144   4.387   7.412 -0.1361 -0.6429  0.0938
  104bbb     H7 2998   3.193   4.294   7.384  1.9989  0.7596 -1.0359
  104bbb     H8 2999   3.211   4.447   7.474 -0.7444  0.5401 -0.3624
  104bbb     C5 3000   3.122   4.478   7.758  0.2899  0.4103 -0.7486
  104bbb     H9 3001   3.145   4.541   7.671  1.9013 -2.3402 -2.4434
  104bbb    H10 3002   3.203   4.515   7.822  1.2600 -0.8870 -1.2078
  104bbb     C6 3003   2.870   4.079   7.595 -0.0979 -0.2519  0.7002
  104bbb    H11 3004   2.944   3.999   7.584 -0.8671 -0.9807  0.7360
  104bbb    H12 3005   2.835   4.108   7.496 -3.0402  1.8445  2.2029
  104bbb     C7 3006   3.108   4.474   7.294  0.5022  0.4501  0.0846
  104bbb    H13 3007   3.043   4.560   7.319  0.0383  0.1777 -0.1679
  104bbb    H14 3008   3.047   4.420   7.221  0.2011 -1.1075  1.4237
  104bbb     C8 3009   2.750   4.016   7.670  0.7117  0.2704 -0.0733
  104bbb    H15 3010   2.765   3.988   7.775 -0.3300 -1.1132 -0.2591
  104bbb    H16 3011   2.737   3.915   7.629 -0.7245 -0.2752  1.5865
  104bbb     C9 3012   2.978   4.504   7.817  0.0847  0.0480  0.4861
  104bbb    H17 3013   2.956   4.433   7.898 -2.3528  1.5008  1.1987
  104bbb    H18 3014   2.903   4.495   7.737  2.7159  2.5776 -2.5147
  104bbb     O1 3015   3.226   4.533   7.224 -0.0358  0.3368 -0.4773
  105bbb     N1 3016   4.862   2.960   7.722  0.3185 -0.3353  0.0158
  105bbb     C1 3017   4.755   3.024   7.807  0.7754 -1.5339 -0.1095
  105bbb     H1 3018   4.682   2.945   7.832  0.4407 -0.5361  2.2541
  105bbb     H2 3019   4.703   3.093   7.740  1.6504 -1.4854 -0.7573
  105bbb     C2 3020   4.920   2.850   7.789  0.1595 -0.2738  0.1912
  105bbb     H3 3021   4.836   2.798   7.837 -0.7373  2.5994  1.9437
  105bbb     H4 3022   4.984   2.881   7.872 -1.5715  0.1814  1.4043
  105bbb     C3 3023   4.957   3.055   7.664  0.5083  0.9059  0.2867
  105bbb     H5 3024   5.018   2.997   7.594 -0.5282 -2.1187  1.6848
  105bbb     H6 3025   5.030   3.080   7.741 -1.1029  0.3512  2.0703
  105bbb     C4 3026   4.899   3.180   7.597 -0.3339 -0.4288 -0.6987
  105bbb     H7 3027   4.837   3.233   7.670 -1.6792 -2.6499 -0.1308
  105bbb     H8 3028   4.833   3.144   7.518 -0.6703  0.6836 -0.9369
  105bbb     C5 3029   4.800   3.097   7.935 -0.0736  0.2088  0.0755
  105bbb     H9 3030   4.851   3.187   7.898 -1.4089  0.8927 -0.1457
  105bbb    H10 3031   4.871   3.036   7.991  0.7432  1.6064  0.6336
  105bbb     C6 3032   4.982   2.740   7.700  0.6966  1.3076 -0.1672
  105bbb    H11 3033   5.037   2.663   7.754 -2.3692 -1.1238 -0.2134
  105bbb    H12 3034   5.063   2.787   7.642  1.6854  1.4940  1.3105
  105bbb     C7 3035   5.008   3.277   7.533 -0.7110 -0.7871 -0.1206
  105bbb    H13 3036   5.093   3.226   7.486 -0.5576  1.1698 -2.1310
  105bbb    H14 3037   5.058   3.337   7.610  0.0991 -0.5831 -0.7887
  105bbb     C8 3038   4.881   2.664   7.606 -0.4017  0.3548 -0.3538
  105bbb    H15 3039   4.842   2.742   7.540  0.1589  0.0881 -1.0141
  105bbb    H16 3040   4.802   2.621   7.669  1.9247 -0.7138  1.9936
  105bbb     C9 3041   4.685   3.146   8.028 -0.0001  0.2227  0.1412
  105bbb    H17 3042   4.634   3.229   7.977 -0.0797 -0.5563 -1.0936
  105bbb    H18 3043   4.721   3.197   8.118 -1.1266 -0.7922  1.1988
  105bbb     O1 3044   4.950   3.372   7.444  0.0262 -0.0341  0.1912
  106bbb     N1 3045   4.388   4.311   7.530  0.0958 -0.0948 -0.3360
  106bbb     C1 3046   4.243   4.336   7.568 -0.6286 -0.5457  0.0572
  106bbb     H1 3047   4.208   4.423   7.510 -0.4828 -0.0448  0.7226
  106bbb     H2 3048   4.241   4.364   7.674 -0.8596 -1.1086  0.2062
  106bbb     C2 3049   4.489   4.419   7.555 -0.1737  0.3796 -0.3664
  106bbb     H3 3050   4.487   4.503   7.486  1.2674  1.6203  1.0195
  106bbb     H4 3051   4.587   4.373   7.538  0.4518  1.4301  0.3198
  106bbb     C3 3052   4.401   4.263   7.389 -0.1284  0.6337  0.3674
  106bbb     H5 3053   4.367   4.343   7.321  0.6780 -0.1115 -0.9507
  106bbb     H6 3054   4.332   4.179   7.371 -0.0342  0.3726  1.1788
  106bbb     C4 3055   4.538   4.224   7.337  0.3166 -0.4489 -0.1263
  106bbb     H7 3056   4.603   4.312   7.335 -1.4916  0.9185 -0.5976
  106bbb     H8 3057   4.513   4.198   7.233 -3.6330  0.8308  0.3379
  106bbb     C5 3058   4.159   4.213   7.566  0.5847 -0.0979 -0.5246
  106bbb     H9 3059   4.140   4.164   7.470  1.3074 -1.1110 -0.1648
  106bbb    H10 3060   4.058   4.245   7.592 -0.4227 -2.9393 -0.6202
  106bbb     C6 3061   4.504   4.468   7.703  1.0552  0.1637  0.4410
  106bbb    H11 3062   4.416   4.524   7.737  1.8071  1.6699  0.0399
  106bbb    H12 3063   4.578   4.549   7.694  1.3586 -0.0739  0.8001
  106bbb     C7 3064   4.611   4.112   7.415  0.6813  0.1143  0.1444
  106bbb    H13 3065   4.535   4.034   7.427  2.0431 -1.1560  0.8452
  106bbb    H14 3066   4.633   4.159   7.512  1.8561 -1.3131  0.6090
  106bbb     C8 3067   4.561   4.361   7.794  0.4671 -0.0125 -0.3062
  106bbb    H15 3068   4.641   4.309   7.741  0.7987  1.9070 -1.7927
  106bbb    H16 3069   4.467   4.306   7.811  0.1049  0.5275 -0.5406
  106bbb     C9 3070   4.212   4.100   7.660 -0.7568  0.4628 -0.6104
  106bbb    H17 3071   4.315   4.083   7.628 -1.1157  0.9927 -2.1559
  106bbb    H18 3072   4.149   4.010   7.651 -2.0341  1.3734 -1.2609
  106bbb     O1 3073   4.722   4.069   7.343  0.0360  0.0862  0.0457
  107bbb     N1 3074   3.261   5.386   5.749  0.5348  0.1377  0.3695
  107bbb     C1 3075   3.191   5.459   5.855 -0.3196  0.1180 -0.3848
  107bbb     H1 3076   3.150   5.554   5.820 -1.8741 -0.1373  0.6398
  107bbb     H2 3077   3.263   5.487   5.933  0.8087  0.3057 -1.4581
  107bbb     C2 3078   3.371   5.466   5.690  0.1507  0.1549 -0.4203
  107bbb     H3 3079   3.450   5.474   5.766 -0.6045 -3.0626  0.8680
  107bbb     H4 3080   3.335   5.562   5.653 -1.3644 -0.9490 -1.9762
  107bbb     C3 3081   3.277   5.239   5.768 -0.1107  0.3050 -0.1183
  107bbb     H5 3082   3.307   5.189   5.675  1.2427 -0.1259  0.5215
  107bbb     H6 3083   3.181   5.190   5.786 -1.2325  2.3974 -0.0347
  107bbb     C4 3084   3.380   5.205   5.874 -0.2003 -0.3055 -0.3697
  107bbb     H7 3085   3.348   5.257   5.965 -2.4979 -1.3059 -0.5343
  107bbb     H8 3086   3.475   5.246   5.837  0.7393 -2.7264 -0.8483
  107bbb     C5 3087   3.057   5.387   5.903  0.4261 -0.3108 -0.1759
  107bbb     H9 3088   3.072   5.293   5.958  0.9869 -0.5981 -0.8032
  107bbb    H10 3089   2.992   5.369   5.817 -0.3342  1.0574  0.0895
  107bbb     C6 3090   3.428   5.414   5.553  0.2454  1.1131 -0.4533
  107bbb    H11 3091   3.347   5.377   5.489  0.6263  2.2875 -1.6566
  107bbb    H12 3092   3.487   5.326   5.581  0.8116  1.4939 -0.4300
  107bbb     C7 3093   3.390   5.049   5.900 -0.2390 -0.1703 -0.7477
  107bbb    H13 3094   3.439   4.995   5.818  2.1150 -0.2792  0.6261
  107bbb    H14 3095   3.292   5.004   5.922 -0.1681  0.7720  1.8825
  107bbb     C8 3096   3.524   5.513   5.488 -1.0980  0.1783  0.5771
  107bbb    H15 3097   3.465   5.605   5.473 -2.4742 -0.6180  0.9392
  107bbb    H16 3098   3.554   5.474   5.391  1.3961  1.6502  0.6530
  107bbb     C9 3099   2.977   5.471   6.010 -0.3040 -0.1796 -0.4110
  107bbb    H17 3100   3.038   5.496   6.097  0.4370  0.3102 -1.0667
  107bbb    H18 3101   2.896   5.406   6.046 -0.4264  1.1051  1.7531
  107bbb     O1 3102   3.472   5.032   6.015 -0.2467  0.1896 -0.1547
  108bbb     N1 3103   3.967   5.888   6.462 -0.3029 -0.5123 -0.2287
  108bbb     C1 3104   4.068   5.983   6.517 -0.2849 -0.1479 -0.0356
  108bbb     H1 3105   4.041   5.997   6.623  2.4850 -0.5595  0.8144
  108bbb     H2 3106   4.051   6.079   6.466 -1.4590  0.6328  1.7167
  108bbb     C2 3107   3.828   5.938   6.477  0.0216 -0.4500  0.3738
  108bbb     H3 3108   3.786   5.945   6.578  1.5347  0.3872  0.9888
  108bbb     H4 3109   3.761   5.875   6.417  0.4575 -1.4004  0.8599
  108bbb     C3 3110   3.983   5.749   6.510  0.3427  0.0788 -0.6166
  108bbb     H5 3111   3.975   5.764   6.618  0.5616  2.6098 -0.8722
  108bbb     H6 3112   4.086   5.726   6.479  0.2937  0.0477 -0.7573
  108bbb     C4 3113   3.881   5.645   6.454 -0.3697  0.6800 -0.9883
  108bbb     H7 3114   3.874   5.690   6.354 -0.5774  0.1125 -1.2344
  108bbb     H8 3115   3.787   5.657   6.509  0.4240  0.8954  0.3603
  108bbb     C5 3116   4.215   5.942   6.498  0.8342 -0.3364 -0.3658
  108bbb     H9 3117   4.234   5.906   6.396 -2.0538 -0.7390 -0.8401
  108bbb    H10 3118   4.222   5.863   6.574 -2.0056  0.5607  0.9565
  108bbb     C6 3119   3.806   6.083   6.424  0.3976 -0.1007  0.3953
  108bbb    H11 3120   3.863   6.091   6.331 -0.0514 -1.8009 -0.0769
  108bbb    H12 3121   3.849   6.153   6.496  2.6088  0.8204 -1.7034
  108bbb     C7 3122   3.943   5.502   6.445  0.5648  0.6446 -0.7882
  108bbb    H13 3123   4.003   5.479   6.534  0.2025 -1.3750 -1.0278
  108bbb    H14 3124   4.003   5.491   6.353  1.1780 -1.7872 -0.1626
  108bbb     C8 3125   3.659   6.120   6.395 -0.0041 -0.1978  0.1131
  108bbb    H15 3126   3.656   6.228   6.413  2.3433  0.0740 -0.7392
  108bbb    H16 3127   3.591   6.071   6.466  0.7083  0.2649  1.1382
  108bbb     C9 3128   4.305   6.059   6.543 -0.0021  0.8112  0.3024
  108bbb    H17 3129   4.411   6.032   6.536 -0.1297 -0.1560  1.7249
  108bbb    H18 3130   4.283   6.089   6.646  0.3004  0.6743  0.4072
  108bbb     O1 3131   3.828   5.415   6.429 -0.0970 -0.3226  0.2384
  109bbb     N1 3132   2.838   4.329   6.519  0.2581 -0.3099 -0.7896
  109bbb     C1 3133   2.880   4.190   6.499 -0.2463 -0.6067  0.6102
  109bbb     H1 3134   2.892   4.136   6.594 -1.5538 -0.5977  0.7972
  109bbb     H2 3135   2.967   4.187   6.431 -0.9545 -0.0111 -0.3534
  109bbb     C2 3136   2.725   4.336   6.614  0.2674  0.0902 -0.1233
  109bbb     H3 3137   2.755   4.307   6.716  0.5734  2.3768  0.5021
  109bbb     H4 3138   2.640   4.276   6.578 -1.0632  0.4700  2.1674
  109bbb     C3 3139   2.957   4.429   6.545 -0.3277  0.3471 -0.7615
  109bbb     H5 3140   3.024   4.369   6.607 -0.5754  1.1955  0.3681
  109bbb     H6 3141   2.931   4.521   6.600  0.2586 -0.2934  0.6305
  109bbb     C4 3142   3.036   4.470   6.420  0.8782  0.0562 -0.0530
  109bbb     H7 3143   3.046   4.382   6.356 -2.1050 -1.4503  1.3312
  109bbb     H8 3144   3.138   4.505   6.439 -0.0469  3.2835 -0.3844
  109bbb     C5 3145   2.775   4.103   6.420 -0.0255 -0.2871 -0.0199
  109bbb     H9 3146   2.693   4.079   6.488  0.0372 -1.6445 -0.3999
  109bbb    H10 3147   2.824   4.007   6.402  1.6240 -0.0285  2.5361
  109bbb     C6 3148   2.659   4.477   6.620 -0.4095 -0.3238 -0.0663
  109bbb    H11 3149   2.732   4.547   6.661 -0.7074 -1.0900  1.8993
  109bbb    H12 3150   2.577   4.480   6.693  0.4412  1.1670  0.8646
  109bbb     C7 3151   2.955   4.575   6.341  0.1034 -0.1030 -0.3159
  109bbb    H13 3152   2.894   4.638   6.407  0.7252 -2.0252  2.2669
  109bbb    H14 3153   2.888   4.513   6.280  1.2710 -3.5318  1.5921
  109bbb     C8 3154   2.613   4.537   6.483  0.1910  0.6593 -0.3401
  109bbb    H15 3155   2.506   4.521   6.470  0.0445  1.2177  0.1475
  109bbb    H16 3156   2.667   4.491   6.399  0.4022  2.3437 -1.1677
  109bbb     C9 3157   2.732   4.160   6.283 -0.0182 -0.3293 -0.3313
  109bbb    H17 3158   2.823   4.174   6.225 -0.1673 -0.0793 -0.5092
  109bbb    H18 3159   2.679   4.256   6.292 -2.3397 -1.6273  1.1281
  109bbb     O1 3160   3.053   4.656   6.272  0.1729 -0.1076  0.4648
  110bbb     N1 3161   2.803   5.373   7.070 -0.5038  0.0240 -0.6199
  110bbb     C1 3162   2.834   5.388   7.212 -0.1384 -0.1788 -0.3759
  110bbb     H1 3163   2.740   5.404   7.267  0.6675 -0.1395  1.0270
  110bbb     H2 3164   2.886   5.484   7.221  0.6645 -0.5144 -1.3245
  110bbb     C2 3165   2.694   5.455   7.017  0.2253 -0.0726  0.1828
  110bbb     H3 3166   2.668   5.431   6.913 -0.2820  0.1619  0.2530
  110bbb     H4 3167   2.729   5.559   7.011 -0.0271 -0.0321 -0.7761
  110bbb     C3 3168   2.936   5.396   6.995  0.6731 -0.0740  0.0662
  110bbb     H5 3169   3.017   5.344   7.047  0.9761  0.1513 -0.1747
  110bbb     H6 3170   2.967   5.501   6.992  2.2722 -0.5386 -1.8597
  110bbb     C4 3171   2.934   5.340   6.844 -0.0161  0.0360  0.4650
  110bbb     H7 3172   3.019   5.362   6.778 -0.4144 -0.8365 -0.3705
  110bbb     H8 3173   2.852   5.378   6.780  0.3883  2.4555  1.2742
  110bbb     C5 3174   2.902   5.256   7.263  0.3120 -1.1807  0.3018
  110bbb     H9 3175   3.001   5.255   7.217 -0.3254  0.5390 -1.1985
  110bbb    H10 3176   2.834   5.175   7.233  0.2527 -0.5699 -1.2947
  110bbb     C6 3177   2.557   5.454   7.092 -0.3179  0.0983  0.5048
  110bbb    H11 3178   2.579   5.487   7.194  0.7247  3.5474 -0.7101
  110bbb    H12 3179   2.526   5.349   7.095  1.1378 -0.3466  0.7915
  110bbb     C7 3180   2.928   5.188   6.841 -0.0625  0.2578 -0.6301
  110bbb    H13 3181   2.830   5.155   6.878  1.0088 -1.3678  0.9367
  110bbb    H14 3182   3.010   5.158   6.907 -0.1283  2.9904  0.8594
  110bbb     C8 3183   2.450   5.538   7.020  0.5530  0.2229  0.0243
  110bbb    H15 3184   2.354   5.544   7.073 -0.4675 -1.4711 -1.4927
  110bbb    H16 3185   2.423   5.488   6.926  0.7933  1.4611 -0.7291
  110bbb     C9 3186   2.925   5.269   7.420  0.6393  0.2731 -0.1543
  110bbb    H17 3187   2.962   5.176   7.465 -1.3223 -0.6861 -0.4446
  110bbb    H18 3188   2.828   5.283   7.469 -0.4778 -1.6938 -1.6841
  110bbb     O1 3189   2.953   5.146   6.708  0.3785  0.9702 -0.8031
  111bbb     N1 3190   5.859   3.952   9.001 -0.2415 -0.0498  0.9427
  111bbb     C1 3191   5.924   3.842   8.914  0.3369 -0.1726 -1.2361
  111bbb     H1 3192   5.844   3.769   8.900 -0.3034 -0.3151  2.3366
  111bbb     H2 3193   6.009   3.794   8.964 -1.2226 -1.4905  0.2407
  111bbb     C2 3194   5.935   4.078   8.995  0.0504  0.4536  0.3669
  111bbb     H3 3195   5.953   4.106   8.891 -0.5530 -0.1524  0.0919
  111bbb     H4 3196   6.032   4.072   9.045  0.7640 -1.8282 -1.1506
  111bbb     C3 3197   5.847   3.903   9.144  0.1221 -0.0575  0.7401
  111bbb     H5 3198   5.763   3.962   9.181 -2.2461 -1.5951 -1.8409
  111bbb     H6 3199   5.943   3.928   9.192  1.0909 -0.1926 -1.0067
  111bbb     C4 3200   5.803   3.757   9.171  0.4663 -0.2521 -0.4225
  111bbb     H7 3201   5.877   3.694   9.120  1.1700  1.6818 -1.9047
  111bbb     H8 3202   5.703   3.733   9.131 -0.4476  0.2268  1.4633
  111bbb     C5 3203   5.971   3.891   8.776 -0.6095  0.1945  0.7098
  111bbb     H9 3204   6.057   3.955   8.800 -0.5897  0.0097  1.1410
  111bbb    H10 3205   5.891   3.950   8.729  0.3497  0.4388 -0.6565
  111bbb     C6 3206   5.871   4.195   9.073 -0.6941 -0.2426  0.1661
  111bbb    H11 3207   5.929   4.288   9.073 -0.4379 -0.3992 -0.6240
  111bbb    H12 3208   5.860   4.157   9.176  0.4783  0.6989  0.6683
  111bbb     C7 3209   5.801   3.734   9.319  0.3519  0.1398  0.4169
  111bbb    H13 3210   5.898   3.746   9.368  1.0029 -2.3497 -0.1072
  111bbb    H14 3211   5.762   3.632   9.323  1.1028 -0.5800 -4.4859
  111bbb     C8 3212   5.727   4.244   9.020 -0.0234 -0.2774 -0.6521
  111bbb    H15 3213   5.669   4.267   9.110 -1.4517  0.7119 -1.7818
  111bbb    H16 3214   5.672   4.164   8.969 -0.3679  0.1061 -0.8890
  111bbb     C9 3215   6.016   3.778   8.669  0.6680  0.1296 -0.1724
  111bbb    H17 3216   6.005   3.811   8.565  1.7926  0.2307 -0.2735
  111bbb    H18 3217   5.950   3.694   8.693  3.2417 -1.7805  0.7339
  111bbb     O1 3218   5.707   3.817   9.387 -0.1463 -0.0257 -0.5351
  112bbb     N1 3219   5.384   3.724  10.660 -1.0656 -0.0232 -0.6799
  112bbb     C1 3220   5.249   3.777  10.695 -0.3441  0.2780 -0.1010
  112bbb     H1 3221   5.245   3.803  10.801  0.4758  0.9884 -0.2332
  112bbb     H2 3222   5.182   3.690  10.693 -1.6992  1.2360  1.3168
  112bbb     C2 3223   5.435   3.611  10.745 -0.1996 -0.1020  0.7612
  112bbb     H3 3224   5.541   3.596  10.720 -0.2418  1.0364 -0.1738
  112bbb     H4 3225   5.378   3.519  10.734 -0.3487  0.1381 -0.6057
  112bbb     C3 3226   5.395   3.690  10.512  0.0541  0.3376 -0.2612
  112bbb     H5 3227   5.359   3.772  10.449  0.4591  0.4579 -0.3420
  112bbb     H6 3228   5.340   3.601  10.478  2.5235 -1.1211 -0.7503
  112bbb     C4 3229   5.533   3.660  10.468 -0.3439  0.5829 -1.1771
  112bbb     H7 3230   5.589   3.586  10.527 -0.6915 -0.3797 -2.0326
  112bbb     H8 3231   5.584   3.757  10.465 -1.1748  1.0594 -0.3472
  112bbb     C5 3232   5.187   3.904  10.622 -0.1969  0.3969  0.0058
  112bbb     H9 3233   5.167   3.897  10.515 -0.8304  1.0045  0.0792
  112bbb    H10 3234   5.260   3.986  10.628  1.6781 -1.1988  0.0248
  112bbb     C6 3235   5.436   3.654  10.887  0.0774 -0.5789  0.2013
  112bbb    H11 3236   5.332   3.671  10.920  0.1808  0.5550 -0.0220
  112bbb    H12 3237   5.480   3.752  10.907  1.0639 -0.8596 -0.5195
  112bbb     C7 3238   5.541   3.599  10.322 -0.1777  0.3149  0.3166
  112bbb    H13 3239   5.490   3.502  10.326  0.4954 -0.1039 -0.8408
  112bbb    H14 3240   5.648   3.595  10.298 -0.2582  1.0472 -0.1998
  112bbb     C8 3241   5.513   3.554  10.977  0.1451  0.1226  0.7437
  112bbb    H15 3242   5.618   3.558  10.946  0.3385 -1.8067  1.0430
  112bbb    H16 3243   5.472   3.454  10.961  1.6748 -0.5716  1.0054
  112bbb     C9 3244   5.059   3.944  10.696  0.4839 -0.3423  0.2413
  112bbb    H17 3245   5.072   3.922  10.803 -0.8632 -0.6750  0.3572
  112bbb    H18 3246   4.976   3.882  10.660  0.4862 -0.8665  1.1106
  112bbb     O1 3247   5.477   3.672  10.212  0.1980  0.0102  0.4830
  113bbb     N1 3248   6.920   5.626   9.689  0.4932 -1.0222  0.4878
  113bbb     C1 3249   7.062   5.604   9.731 -0.1948  0.2253 -0.2330
  113bbb     H1 3250   7.129   5.689   9.713  0.9342  0.6693  4.6504
  113bbb     H2 3251   7.102   5.520   9.673  2.6692  0.5979  1.0148
  113bbb     C2 3252   6.905   5.737   9.594 -0.4232  0.4739  0.0839
  113bbb     H3 3253   6.961   5.713   9.502 -2.8314  1.5636 -1.7925
  113bbb     H4 3254   6.953   5.830   9.627  1.2649 -0.3626  0.0790
  113bbb     C3 3255   6.826   5.505   9.674  0.7013 -0.6100 -0.3561
  113bbb     H5 3256   6.725   5.545   9.658  1.7253  2.5574  0.3497
  113bbb     H6 3257   6.830   5.432   9.755 -0.2988 -0.9884 -0.6369
  113bbb     C4 3258   6.863   5.432   9.545 -0.1519 -0.8108 -0.1083
  113bbb     H7 3259   6.969   5.404   9.550 -0.0837 -0.5465 -0.0436
  113bbb     H8 3260   6.855   5.491   9.453 -0.1823 -1.9960 -0.8785
  113bbb     C5 3261   7.087   5.565   9.877  0.3118 -0.1489 -0.4896
  113bbb     H9 3262   7.196   5.554   9.885  0.6462  1.0630 -2.6468
  113bbb    H10 3263   7.040   5.468   9.897 -0.9008  0.2811 -1.1662
  113bbb     C6 3264   6.763   5.764   9.532 -0.2490  0.2280 -0.7633
  113bbb    H11 3265   6.708   5.803   9.619  0.5440  0.7780 -0.5018
  113bbb    H12 3266   6.712   5.673   9.497  0.0590  0.0321 -0.7036
  113bbb     C7 3267   6.778   5.306   9.522  0.8485  0.1606 -0.0639
  113bbb    H13 3268   6.786   5.237   9.607  0.8818  0.2997  0.0481
  113bbb    H14 3269   6.810   5.255   9.431 -1.1000 -3.6559  1.1520
  113bbb     C8 3270   6.768   5.860   9.419  0.1528 -0.3782 -0.2265
  113bbb    H15 3271   6.813   5.958   9.442  0.7146 -0.9489  1.2161
  113bbb    H16 3272   6.669   5.891   9.384  0.8689  1.6084 -0.6612
  113bbb     C9 3273   7.043   5.677   9.975 -0.5847  0.1104 -0.0414
  113bbb    H17 3274   7.038   5.632  10.075 -0.3122  0.0647 -0.0466
  113bbb    H18 3275   6.948   5.722   9.947 -0.3606  0.9239  0.4948
  113bbb     O1 3276   6.640   5.347   9.506 -0.2051 -0.3275  0.2543
  114bbb     N1 3277   5.959   4.453   9.950  0.6558  0.0491  0.0189
  114bbb     C1 3278   5.823   4.406   9.980  0.3075  0.0912  0.3121
  114bbb     H1 3279   5.834   4.314  10.038 -2.4305 -0.4260  0.1093
  114bbb     H2 3280   5.764   4.395   9.889 -1.6499  2.1079  1.2434
  114bbb     C2 3281   6.059   4.349   9.919  0.4374  0.0376  0.2956
  114bbb     H3 3282   6.158   4.394   9.907  0.4112 -0.3742 -1.9238
  114bbb     H4 3283   6.029   4.320   9.817  1.8387  0.2788 -0.2038
  114bbb     C3 3284   5.967   4.571   9.859  0.2564  0.2549 -0.2499
  114bbb     H5 3285   5.892   4.642   9.896 -1.2986 -1.6832  0.5269
  114bbb     H6 3286   5.931   4.544   9.759 -0.9269  0.1736  0.1806
  114bbb     C4 3287   6.100   4.654   9.855 -0.1314 -0.7501 -0.2933
  114bbb     H7 3288   6.179   4.592   9.810 -1.0259 -1.4015 -1.0014
  114bbb     H8 3289   6.130   4.684   9.956  1.8934  0.2438 -1.1222
  114bbb     C5 3290   5.743   4.496  10.077  0.2517 -0.7558 -0.7144
  114bbb     H9 3291   5.749   4.599  10.040  3.2760 -0.0049  1.4824
  114bbb    H10 3292   5.811   4.522  10.159  1.7273  0.3533 -2.2091
  114bbb     C6 3293   6.059   4.218  10.005 -0.5063 -0.0575 -0.7609
  114bbb    H11 3294   5.968   4.157  10.007 -0.4602 -0.0972  0.7216
  114bbb    H12 3295   6.076   4.247  10.109  1.2188 -3.5249  0.0699
  114bbb     C7 3296   6.085   4.790   9.783 -0.1363 -0.8641  0.8825
  114bbb    H13 3297   6.030   4.861   9.846  0.2891 -0.1602  0.4770
  114bbb    H14 3298   6.040   4.769   9.685  1.1477  0.6160 -0.0787
  114bbb     C8 3299   6.173   4.121   9.956  0.2788 -0.5139 -0.2513
  114bbb    H15 3300   6.140   4.062   9.870 -1.8879 -0.4245  0.4813
  114bbb    H16 3301   6.199   4.056  10.040  0.1120  1.8138  1.7072
  114bbb     C9 3302   5.598   4.440  10.112 -0.1457  0.1412 -0.8278
  114bbb    H17 3303   5.554   4.414  10.016 -0.1127 -1.2207 -0.4951
  114bbb    H18 3304   5.546   4.525  10.158  0.5318 -0.6910  1.6756
  114bbb     O1 3305   6.217   4.844   9.763 -0.2813  0.4223  0.0114
  115bbb     N1 3306   5.393   2.931   9.809 -0.5131 -0.2743  0.4533
  115bbb     C1 3307   5.278   2.850   9.754  0.2935  0.2253  0.1889
  115bbb     H1 3308   5.237   2.801   9.843  0.6445  0.5783  0.5482
  115bbb     H2 3309   5.320   2.780   9.680 -0.8411  1.2060 -1.4469
  115bbb     C2 3310   5.504   2.855   9.870 -0.1477  0.1121  0.0030
  115bbb     H3 3311   5.596   2.858   9.810  1.6911 -0.4709  2.6374
  115bbb     H4 3312   5.468   2.752   9.879 -0.6140  0.1613 -1.1828
  115bbb     C3 3313   5.437   3.051   9.728  0.4947 -0.3184  0.6531
  115bbb     H5 3314   5.502   3.104   9.798  1.7058  0.6006 -1.1226
  115bbb     H6 3315   5.353   3.117   9.704  0.3701 -0.3615  0.9587
  115bbb     C4 3316   5.510   3.022   9.598 -0.0278 -0.8775 -0.2749
  115bbb     H7 3317   5.451   2.954   9.535 -2.4876  0.3329  0.6366
  115bbb     H8 3318   5.602   2.963   9.613  0.7617 -0.0781 -1.7563
  115bbb     C5 3319   5.170   2.932   9.676 -0.2281 -0.3291 -0.7590
  115bbb     H9 3320   5.096   2.855   9.647 -0.3193 -0.3125 -0.5702
  115bbb    H10 3321   5.201   2.988   9.587 -0.9394  1.2524 -0.0442
  115bbb     C6 3322   5.539   2.920  10.008  1.4874  0.1539  0.0879
  115bbb    H11 3323   5.447   2.911  10.067  2.3004  0.3701  1.4264
  115bbb    H12 3324   5.548   3.029   9.993 -1.6833  0.7571  1.6687
  115bbb     C7 3325   5.568   3.154   9.542 -0.2331 -1.2666  0.2769
  115bbb    H13 3326   5.491   3.232   9.544 -0.0065 -1.0279 -0.1102
  115bbb    H14 3327   5.594   3.132   9.437  0.7156 -1.2018  0.4858
  115bbb     C8 3328   5.676   2.859  10.073  1.4099 -0.0696  0.2034
  115bbb    H15 3329   5.691   2.753  10.052  0.5567 -0.3662  1.0258
  115bbb    H16 3330   5.646   2.859  10.178  2.4728 -0.6846  0.5236
  115bbb     C9 3331   5.090   3.030   9.770 -0.1449  0.3191  0.9022
  115bbb    H17 3332   5.158   3.109   9.803  0.4569 -0.1219  0.7299
  115bbb    H18 3333   5.054   2.977   9.860 -0.3941 -1.6988 -0.3212
  115bbb     O1 3334   5.685   3.209   9.616 -0.0506 -0.0366  0.5022
  116bbb     N1 3335   5.485   3.161  10.437 -0.4181  0.4592 -0.3821
  116bbb     C1 3336   5.345   3.146  10.392 -0.4970 -0.8110 -0.0516
  116bbb     H1 3337   5.343   3.054  10.332  0.1572 -1.8780  1.5094
  116bbb     H2 3338   5.323   3.224  10.317 -0.7452  0.5850  1.4138
  116bbb     C2 3339   5.525   3.067  10.550 -0.0436 -0.1632  0.3606
  116bbb     H3 3340   5.465   3.087  10.639  0.6359  0.0123  0.7898
  116bbb     H4 3341   5.626   3.094  10.583  0.2554 -0.2065 -0.4879
  116bbb     C3 3342   5.589   3.171  10.337 -0.1149 -0.6347  0.8019
  116bbb     H5 3343   5.561   3.230  10.249  0.2058 -0.9081  0.5142
  116bbb     H6 3344   5.619   3.075  10.294  1.9052  0.0238  0.6180
  116bbb     C4 3345   5.719   3.229  10.391  0.9657  0.1362 -0.6259
  116bbb     H7 3346   5.762   3.150  10.454 -2.4489 -2.7367 -1.5394
  116bbb     H8 3347   5.699   3.312  10.459 -1.2877 -1.3755  0.7205
  116bbb     C5 3348   5.236   3.154  10.500  0.0854 -0.3134 -0.1762
  116bbb     H9 3349   5.241   3.253  10.547  3.8208 -0.9164  1.0315
  116bbb    H10 3350   5.259   3.078  10.576 -0.1826  0.8706  1.1301
  116bbb     C6 3351   5.521   2.916  10.527  0.0033 -0.3846  0.3416
  116bbb    H11 3352   5.600   2.886  10.457 -1.6642 -1.5445 -1.1289
  116bbb    H12 3353   5.433   2.888  10.468  1.6025  0.3453 -2.6505
  116bbb     C7 3354   5.821   3.255  10.283  0.3456 -0.8044  0.5570
  116bbb    H13 3355   5.823   3.174  10.209  0.8076  0.1760 -0.5316
  116bbb    H14 3356   5.923   3.266  10.321 -0.3283  2.1863  1.7497
  116bbb     C8 3357   5.525   2.831  10.656  0.2054 -0.0164  0.5435
  116bbb    H15 3358   5.529   2.727  10.622  1.3852  0.9602 -2.6709
  116bbb    H16 3359   5.434   2.855  10.712 -0.4762 -1.0612 -0.0744
  116bbb     C9 3360   5.099   3.123  10.450 -0.2152 -0.1094  0.0442
  116bbb    H17 3361   5.097   3.038  10.381  2.4515  0.2745 -0.6108
  116bbb    H18 3362   5.060   3.209  10.395 -1.2695 -0.5381  0.0993
  116bbb     O1 3363   5.774   3.374  10.218  0.0944  0.1089  0.2121
  117bbb     N1 3364   7.255   4.812  10.187  0.3374 -0.0405 -0.2127
  117bbb     C1 3365   7.230   4.720  10.297 -0.1291  0.1789  0.2454
  117bbb     H1 3366   7.285   4.747  10.387 -0.4121 -0.9410  0.7746
  117bbb     H2 3367   7.256   4.618  10.265  3.4986  1.6136 -1.9900
  117bbb     C2 3368   7.403   4.843  10.154 -0.1973  0.3568 -0.0776
  117bbb     H3 3369   7.400   4.911  10.068  1.4978 -2.0101 -2.1328
  117bbb     H4 3370   7.443   4.756  10.100 -0.8279  0.6366 -1.0274
  117bbb     C3 3371   7.182   4.790  10.058  0.3729 -0.3007 -0.4999
  117bbb     H5 3372   7.201   4.884  10.005  3.1991 -0.1769  0.5409
  117bbb     H6 3373   7.074   4.790  10.077  0.4206 -0.5349 -0.2021
  117bbb     C4 3374   7.221   4.664   9.972  0.1812  0.3118 -0.4960
  117bbb     H7 3375   7.218   4.569  10.027  0.8332 -0.4367 -1.7093
  117bbb     H8 3376   7.326   4.671   9.940  0.3270  0.6559  0.0488
  117bbb     C5 3377   7.085   4.723  10.344 -0.2631 -0.1426 -0.0708
  117bbb     H9 3378   7.075   4.661  10.433 -0.2661 -0.6308 -0.4079
  117bbb    H10 3379   7.018   4.686  10.265  0.4798 -0.2156 -0.6780
  117bbb     C6 3380   7.487   4.905  10.272  0.1840  0.2740  0.6876
  117bbb    H11 3381   7.592   4.921  10.244 -0.5225  0.0198 -2.3721
  117bbb    H12 3382   7.476   4.844  10.362  2.3705  1.2983  1.7473
  117bbb     C7 3383   7.143   4.633   9.846  0.1063 -0.7931  0.3269
  117bbb    H13 3384   7.040   4.607   9.875  0.4415  0.0368  2.4601
  117bbb    H14 3385   7.190   4.546   9.799  0.9706 -0.2038  0.0776
  117bbb     C8 3386   7.434   5.051  10.307  0.0382  0.0492  0.3160
  117bbb    H15 3387   7.330   5.038  10.338  0.3442  0.1442  1.3944
  117bbb    H16 3388   7.446   5.107  10.213  2.0905  0.3178  0.7077
  117bbb     C9 3389   7.030   4.861  10.392  0.3678 -0.1075  0.4409
  117bbb    H17 3390   7.049   4.938  10.316  0.7363 -0.9944 -0.3845
  117bbb    H18 3391   7.088   4.891  10.480  2.8093 -2.1821 -0.3450
  117bbb     O1 3392   7.152   4.738   9.745 -0.0438  0.0529  0.3039
  118bbb     N1 3393   7.149   5.315  10.124 -0.2805 -0.4813  0.1282
  118bbb     C1 3394   7.075   5.314  10.256 -0.0478  0.0887  0.8724
  118bbb     H1 3395   7.143   5.293  10.340 -1.1460  0.2033  1.8065
  118bbb     H2 3396   7.010   5.226  10.253  2.8414 -2.1663 -0.1847
  118bbb     C2 3397   7.288   5.370  10.114  0.0776 -0.0595 -0.0766
  118bbb     H3 3398   7.313   5.381  10.008  1.9511  0.1714  0.3489
  118bbb     H4 3399   7.358   5.293  10.146 -0.1531 -0.5531 -0.7480
  118bbb     C3 3400   7.126   5.189  10.052 -0.3412 -0.9901 -0.0452
  118bbb     H5 3401   7.153   5.105  10.117  0.5375 -0.5376  0.1933
  118bbb     H6 3402   7.193   5.174   9.967 -1.6139 -1.9489 -0.9230
  118bbb     C4 3403   6.987   5.182   9.978  0.5958  0.2379 -0.4035
  118bbb     H7 3404   6.979   5.242   9.886  0.9954 -0.8794 -1.1958
  118bbb     H8 3405   6.905   5.209  10.045  0.7827 -1.2934  0.4882
  118bbb     C5 3406   6.983   5.437  10.287 -0.5545  0.1207  0.5430
  118bbb     H9 3407   7.041   5.530  10.288  0.6935 -0.6189 -0.0871
  118bbb    H10 3408   6.953   5.417  10.390  0.8717 -1.0411  0.7717
  118bbb     C6 3409   7.306   5.506  10.185  0.3762  0.4661 -0.3795
  118bbb    H11 3410   7.286   5.513  10.292 -0.0660  0.1975 -0.4413
  118bbb    H12 3411   7.234   5.579  10.145  0.4830  1.2415  0.8034
  118bbb     C7 3412   6.944   5.034   9.946 -0.4319 -0.0467  0.0234
  118bbb    H13 3413   6.952   4.983  10.042  0.3969 -0.4340 -0.2348
  118bbb    H14 3414   7.017   4.994   9.873 -0.4665 -0.5021  0.2367
  118bbb     C8 3415   7.440   5.575  10.147 -0.0094  0.0250 -0.7527
  118bbb    H15 3416   7.430   5.677  10.109 -0.8170 -0.3868 -1.6837
  118bbb    H16 3417   7.483   5.519  10.063  0.5432 -0.1439 -0.3667
  118bbb     C9 3418   6.865   5.445  10.183  0.1798 -0.5398 -0.0818
  118bbb    H17 3419   6.795   5.363  10.200 -0.9059  0.5426  0.8582
  118bbb    H18 3420   6.905   5.448  10.081  0.0838 -0.7505 -0.1259
  118bbb     O1 3421   6.809   5.040   9.901 -0.0390 -0.3360  0.2630
  119bbb     N1 3422   4.407   4.595   9.323  0.4997 -0.4705  0.4772
  119bbb     C1 3423   4.396   4.631   9.467 -0.6039  0.0828 -0.4808
  119bbb     H1 3424   4.439   4.550   9.528 -2.5922 -1.4485 -1.0005
  119bbb     H2 3425   4.293   4.646   9.502 -1.0980 -2.7582 -0.4682
  119bbb     C2 3426   4.348   4.696   9.229 -0.0222 -0.3058 -0.3377
  119bbb     H3 3427   4.359   4.656   9.128  0.2734 -0.7604 -0.1324
  119bbb     H4 3428   4.415   4.783   9.224  1.1595 -0.9231  2.5072
  119bbb     C3 3429   4.351   4.464   9.297  0.3182 -0.3474  0.6959
  119bbb     H5 3430   4.312   4.472   9.194  0.1656  0.1730  0.7911
  119bbb     H6 3431   4.276   4.451   9.375 -0.3944  1.5222  0.3751
  119bbb     C4 3432   4.462   4.357   9.313 -0.0006  0.3450 -0.1210
  119bbb     H7 3433   4.519   4.379   9.404 -2.1638  0.5167  1.2793
  119bbb     H8 3434   4.532   4.360   9.229 -1.1592  4.0547 -1.1462
  119bbb     C5 3435   4.491   4.750   9.486 -0.0656  0.0190 -0.2885
  119bbb     H9 3436   4.469   4.791   9.585  1.8041 -0.8165  0.5268
  119bbb    H10 3437   4.487   4.823   9.404  1.2949 -1.0913 -1.3855
  119bbb     C6 3438   4.207   4.747   9.261  0.0178  0.1027 -0.3161
  119bbb    H11 3439   4.179   4.836   9.204 -0.8796  0.1249  0.1379
  119bbb    H12 3440   4.205   4.782   9.365  0.2109 -0.4155 -0.1365
  119bbb     C7 3441   4.407   4.211   9.336 -0.4959  0.3678 -0.4121
  119bbb    H13 3442   4.357   4.185   9.241  1.1642 -0.5635 -1.0628
  119bbb    H14 3443   4.346   4.203   9.427 -0.3301 -0.9954 -0.4072
  119bbb     C8 3444   4.091   4.647   9.230  0.2937 -0.1691 -0.7125
  119bbb    H15 3445   3.996   4.690   9.264 -1.2403 -1.2795 -3.3209
  119bbb    H16 3446   4.105   4.559   9.292  0.7964 -0.4572 -1.2259
  119bbb     C9 3447   4.639   4.711   9.495 -0.9049  0.1282 -0.0547
  119bbb    H17 3448   4.673   4.661   9.403 -0.3650  1.4275 -0.5866
  119bbb    H18 3449   4.648   4.640   9.578 -0.7176  0.7379  0.4505
  119bbb     O1 3450   4.529   4.134   9.346  0.2088 -0.3535  0.8332
  120bbb     N1 3451   3.633   4.022   9.822  0.0296  0.2914  0.2649
  120bbb     C1 3452   3.489   4.013   9.777 -0.4710  0.7182  0.0390
  120bbb     H1 3453   3.447   4.114   9.774 -0.3743  0.7265 -1.5210
  120bbb     H2 3454   3.427   3.968   9.856 -2.4490  0.9873 -1.2842
  120bbb     C2 3455   3.651   4.054   9.965  0.6801 -0.3943  0.3022
  120bbb     H3 3456   3.558   4.102   9.999  0.2097 -1.1298  0.0655
  120bbb     H4 3457   3.731   4.128   9.981 -0.4699  0.8214  0.6846
  120bbb     C3 3458   3.719   4.104   9.734  0.6023  0.2394  0.3504
  120bbb     H5 3459   3.728   4.205   9.776  1.9093  0.2001  0.1927
  120bbb     H6 3460   3.675   4.110   9.633 -0.0739 -3.5473  0.2740
  120bbb     C4 3461   3.861   4.056   9.737 -1.1728  0.5920  0.5599
  120bbb     H7 3462   3.909   4.069   9.835 -1.7658 -3.2258  1.5166
  120bbb     H8 3463   3.912   4.113   9.658 -1.5734  2.3193  1.5059
  120bbb     C5 3464   3.455   3.935   9.641  0.4230 -0.0379 -0.2241
  120bbb     H9 3465   3.454   3.827   9.663  1.1835  0.1785  0.9479
  120bbb    H10 3466   3.531   3.948   9.562  0.0053 -0.8464 -0.7748
  120bbb     C6 3467   3.686   3.927  10.054  0.5849 -0.0502 -1.4961
  120bbb    H11 3468   3.774   3.878  10.012  1.9291  1.3690 -0.4597
  120bbb    H12 3469   3.605   3.854  10.063 -0.2657  1.1781  4.2423
  120bbb     C7 3470   3.879   3.907   9.710 -0.4173 -0.1232 -0.3410
  120bbb    H13 3471   3.801   3.881   9.637  1.6317  0.7216 -3.0125
  120bbb    H14 3472   3.859   3.852   9.803 -0.4175 -0.3212 -0.4570
  120bbb     C8 3473   3.743   3.969  10.193 -0.7172 -0.0603 -0.4689
  120bbb    H15 3474   3.833   4.030  10.182 -1.5940  1.3362 -0.1134
  120bbb    H16 3475   3.760   3.872  10.242 -0.1236  1.0195  1.5783
  120bbb     C9 3476   3.328   3.975   9.574 -0.6762 -0.0501  0.2204
  120bbb    H17 3477   3.319   3.919   9.480 -2.0486 -0.5167  0.6107
  120bbb    H18 3478   3.335   4.081   9.547  0.5297 -0.6672 -2.2721
  120bbb     O1 3479   4.006   3.876   9.652  0.0100 -0.7724  0.3672
  121bbb     N1 3480   4.081   3.661  10.613 -0.3439 -0.3907 -0.6369
  121bbb     C1 3481   3.939   3.603  10.600 -0.2707 -0.8610  0.3330
  121bbb     H1 3482   3.945   3.495  10.584 -0.3156 -0.7146 -0.7561
  121bbb     H2 3483   3.893   3.652  10.513 -0.6938 -0.1925  0.9184
  121bbb     C2 3484   4.083   3.810  10.642 -0.1379 -0.1110  0.2992
  121bbb     H3 3485   4.182   3.850  10.668 -0.5135  0.5011  0.8168
  121bbb     H4 3486   4.024   3.845  10.728 -0.0293  0.7752  0.0260
  121bbb     C3 3487   4.157   3.612  10.502  0.2586  0.5286  0.2635
  121bbb     H5 3488   4.117   3.645  10.406 -0.6035  0.7565  0.6924
  121bbb     H6 3489   4.163   3.502  10.498 -2.4258  0.3334 -0.5590
  121bbb     C4 3490   4.301   3.660  10.513 -0.0677  0.4901 -0.2877
  121bbb     H7 3491   4.344   3.631  10.610  0.1273 -0.1470 -0.5604
  121bbb     H8 3492   4.311   3.769  10.516 -2.1273  0.7913 -2.1860
  121bbb     C5 3493   3.863   3.620  10.733  0.1208 -0.9041 -0.1175
  121bbb     H9 3494   3.852   3.725  10.765  3.3495 -1.4685  3.6430
  121bbb    H10 3495   3.921   3.571  10.812 -0.8204 -0.3486  0.9437
  121bbb     C6 3496   4.041   3.896  10.529 -0.1242 -0.0531 -0.1296
  121bbb    H11 3497   3.941   3.860  10.502 -0.4204 -0.4571  1.4056
  121bbb    H12 3498   4.103   3.868  10.442 -0.3361 -0.5707 -0.1173
  121bbb     C7 3499   4.388   3.602  10.405 -0.0295 -0.0085  0.2631
  121bbb    H13 3500   4.350   3.627  10.305  1.4765  0.4157 -0.2278
  121bbb    H14 3501   4.396   3.494  10.423  1.0993  0.4841  3.2756
  121bbb     C8 3502   4.031   4.050  10.558  0.2742  0.3054  0.3350
  121bbb    H15 3503   4.123   4.085  10.607  1.1065 -0.6018 -0.5341
  121bbb    H16 3504   3.945   4.089  10.613 -2.1357  0.2140 -3.0793
  121bbb     C9 3505   3.727   3.537  10.732 -0.4413 -0.2231  0.0247
  121bbb    H17 3506   3.701   3.539  10.626  0.3467 -0.0032 -0.1764
  121bbb    H18 3507   3.650   3.585  10.794 -1.4887 -0.1178 -1.3138
  121bbb     O1 3508   4.523   3.659  10.413  0.2571  0.3980 -0.2856
  122bbb     N1 3509   5.238   3.207  11.413  0.3047 -0.0705 -0.0401
  122bbb     C1 3510   5.103   3.218  11.473  0.3372 -0.3168 -0.4419
  122bbb     H1 3511   5.068   3.321  11.461  1.0869  0.1679  1.2664
  122bbb     H2 3512   5.108   3.202  11.581  0.9068  0.9142 -0.2744
  122bbb     C2 3513   5.339   3.289  11.482  0.0013  0.5858  0.2595
  122bbb     H3 3514   5.321   3.397  11.486 -1.1138  0.4134  0.1352
  122bbb     H4 3515   5.432   3.272  11.426 -0.2257  2.6513 -0.8003
  122bbb     C3 3516   5.241   3.234  11.260  0.0718  0.3301  0.1802
  122bbb     H5 3517   5.167   3.175  11.205 -2.0831  2.3424  0.7978
  122bbb     H6 3518   5.344   3.213  11.227 -0.8220 -1.4565 -1.7263
  122bbb     C4 3519   5.209   3.377  11.219 -0.0929  0.6186 -0.1289
  122bbb     H7 3520   5.274   3.450  11.268  0.7587 -1.5589  2.1704
  122bbb     H8 3521   5.106   3.400  11.251 -0.1576 -1.6398  1.5232
  122bbb     C5 3522   5.004   3.122  11.400  0.2692 -0.1156 -0.0327
  122bbb     H9 3523   5.045   3.022  11.417  2.3821  1.0859  2.6652
  122bbb    H10 3524   4.997   3.141  11.292 -0.6968  0.0729  0.0580
  122bbb     C6 3525   5.363   3.234  11.627 -0.1296  0.1566 -0.3861
  122bbb    H11 3526   5.385   3.126  11.624  3.0399  0.7003  0.2946
  122bbb    H12 3527   5.275   3.240  11.692  1.6485  1.2170  2.0860
  122bbb     C7 3528   5.208   3.392  11.066 -0.3447 -0.0457  1.3272
  122bbb    H13 3529   5.297   3.344  11.025 -0.3199 -0.6068  2.0267
  122bbb    H14 3530   5.193   3.500  11.048 -2.5499 -0.1941  1.9279
  122bbb     C8 3531   5.471   3.314  11.708 -0.1108  0.1595  1.1767
  122bbb    H15 3532   5.466   3.282  11.813  0.7330  0.2609  1.2541
  122bbb    H16 3533   5.440   3.419  11.704  1.7802  0.7277  0.2378
  122bbb     C9 3534   4.865   3.147  11.460  0.0834 -0.5922  0.4794
  122bbb    H17 3535   4.786   3.114  11.391  0.8815 -2.3457  0.3631
  122bbb    H18 3536   4.848   3.254  11.480 -0.9977  0.0139 -2.8732
  122bbb     O1 3537   5.096   3.323  11.013 -0.0458  0.2874 -0.6374
  123bbb     N1 3538   4.517   3.109   7.055 -0.7648  0.3302 -0.0071
  123bbb     C1 3539   4.561   3.118   6.912  0.3810 -0.5350  0.1103
  123bbb     H1 3540   4.559   3.222   6.877 -0.2499 -0.2311  1.0338
  123bbb     H2 3541   4.502   3.055   6.845  0.2352  0.7823 -1.0520
  123bbb     C2 3542   4.371   3.097   7.069 -0.0071 -0.7209 -0.2867
  123bbb     H3 3543   4.344   3.071   7.172  1.1324  0.7652  0.4341
  123bbb     H4 3544   4.339   3.018   7.001 -0.7847  0.9967 -2.0311
  123bbb     C3 3545   4.579   3.215   7.143 -0.0635 -0.4092 -0.7418
  123bbb     H5 3546   4.554   3.311   7.097  1.8321  0.8245  0.6573
  123bbb     H6 3547   4.688   3.209   7.142  0.0983  1.9078 -2.3370
  123bbb     C4 3548   4.520   3.229   7.289  0.1086 -0.1889 -0.1769
  123bbb     H7 3549   4.530   3.133   7.343 -2.2856 -0.1535  0.4583
  123bbb     H8 3550   4.416   3.263   7.280  0.2521  0.0891 -0.7799
  123bbb     C5 3551   4.707   3.069   6.898 -0.7379  1.0258  0.2729
  123bbb     H9 3552   4.728   2.965   6.926  2.3183  1.3970 -0.2500
  123bbb    H10 3553   4.771   3.129   6.965  0.4500  1.0958 -0.8782
  123bbb     C6 3554   4.289   3.221   7.024  0.1762  0.1800 -0.3556
  123bbb    H11 3555   4.314   3.230   6.918  1.5671 -2.0120 -0.2689
  123bbb    H12 3556   4.327   3.318   7.060  1.9373 -0.3142 -0.7785
  123bbb     C7 3557   4.591   3.335   7.373  0.4047 -0.0413  1.1711
  123bbb    H13 3558   4.560   3.435   7.340  2.2305  0.7471  1.7329
  123bbb    H14 3559   4.696   3.327   7.341 -0.2339 -1.8021 -0.7560
  123bbb     C8 3560   4.134   3.206   7.035 -0.6046  0.4395  0.2039
  123bbb    H15 3561   4.110   3.179   7.139  0.7018  1.1733  0.7195
  123bbb    H16 3562   4.098   3.125   6.969 -0.1124 -0.1168  0.6014
  123bbb     C9 3563   4.760   3.073   6.754 -0.1890 -0.0674 -0.7303
  123bbb    H17 3564   4.867   3.096   6.762 -0.3804  0.3751  1.0516
  123bbb    H18 3565   4.720   3.160   6.700 -0.5636 -0.1871 -0.6492
  123bbb     O1 3566   4.578   3.315   7.519  0.2054 -0.2423 -0.2513
  124bbb     N1 3567   4.136   3.484   7.525  0.0215 -0.6175  0.0088
  124bbb     C1 3568   4.045   3.497   7.642  0.1333 -0.6465 -0.4599
  124bbb     H1 3569   3.970   3.417   7.639  0.3099 -0.8143 -0.3804
  124bbb     H2 3570   3.997   3.595   7.625 -0.2386 -0.7625 -0.0937
  124bbb     C2 3571   4.059   3.497   7.398  0.9601  0.6430 -0.1669
  124bbb     H3 3572   4.125   3.513   7.312  0.7401  1.7852 -0.1452
  124bbb     H4 3573   4.001   3.589   7.414 -2.4194 -1.2189 -0.9091
  124bbb     C3 3574   4.267   3.559   7.516  0.6190 -0.4849 -0.6194
  124bbb     H5 3575   4.331   3.544   7.427  1.2285  3.0769 -0.9468
  124bbb     H6 3576   4.328   3.547   7.606 -0.0757  2.6429  0.4111
  124bbb     C4 3577   4.223   3.707   7.518 -1.0357 -0.9272 -0.2184
  124bbb     H7 3578   4.168   3.732   7.610  1.6653  0.8040  1.0542
  124bbb     H8 3579   4.159   3.732   7.433  0.5033  1.8623 -0.6718
  124bbb     C5 3580   4.108   3.521   7.783 -0.4407  0.4396 -0.2609
  124bbb     H9 3581   4.043   3.572   7.855  0.6553 -1.5743  2.3121
  124bbb    H10 3582   4.195   3.587   7.782  0.8884 -1.1783  1.7739
  124bbb     C6 3583   3.968   3.374   7.370  0.0874 -0.3319  0.1806
  124bbb    H11 3584   3.918   3.341   7.462 -0.2729 -0.6851 -0.1432
  124bbb    H12 3585   4.029   3.289   7.336  3.7410  2.5468 -1.1586
  124bbb     C7 3586   4.353   3.791   7.521 -0.1775  0.1865  0.2498
  124bbb    H13 3587   4.335   3.889   7.474  1.2070 -0.2192 -1.2265
  124bbb    H14 3588   4.438   3.753   7.464 -1.1796  2.1355 -2.7706
  124bbb     C8 3589   3.848   3.421   7.287  0.2282  0.3695  1.0832
  124bbb    H15 3590   3.879   3.467   7.193  1.9238 -0.3395  1.2640
  124bbb    H16 3591   3.789   3.493   7.345  0.1754  1.3197 -0.1414
  124bbb     C9 3592   4.152   3.383   7.842 -0.0333 -0.0624 -0.3882
  124bbb    H17 3593   4.205   3.402   7.937  0.3626  0.8927 -0.7770
  124bbb    H18 3594   4.221   3.336   7.771 -0.5775  1.0563 -1.6977
  124bbb     O1 3595   4.400   3.796   7.655 -0.0407  0.2822 -0.1788
  125bbb     N1 3596   5.270   3.285   7.837  0.1017 -0.3040 -0.7503
  125bbb     C1 3597   5.385   3.226   7.906 -0.2907 -0.1166 -0.4542
  125bbb     H1 3598   5.411   3.288   7.992  2.2392 -0.7246 -0.7227
  125bbb     H2 3599   5.473   3.219   7.842 -0.4542 -1.5373 -0.5516
  125bbb     C2 3600   5.303   3.413   7.767  0.8067  0.1874 -0.0529
  125bbb     H3 3601   5.374   3.478   7.821  1.3347  1.1761 -1.8707
  125bbb     H4 3602   5.210   3.465   7.741  0.9323 -0.1229 -1.1774
  125bbb     C3 3603   5.142   3.286   7.918 -0.1746  0.0564  0.7628
  125bbb     H5 3604   5.107   3.187   7.949  1.1514 -0.0214  2.1446
  125bbb     H6 3605   5.070   3.323   7.845  0.5432 -1.6638 -0.8911
  125bbb     C4 3606   5.148   3.386   8.040  0.3845 -0.1032 -0.2162
  125bbb     H7 3607   5.188   3.476   7.991 -0.8002  0.1714 -0.7211
  125bbb     H8 3608   5.211   3.333   8.113  1.0913 -1.7686 -1.9277
  125bbb     C5 3609   5.347   3.091   7.972  0.2648 -0.6979 -0.2763
  125bbb     H9 3610   5.308   3.022   7.897  1.6534  1.5372 -3.2398
  125bbb    H10 3611   5.266   3.102   8.045 -1.2397 -0.4828 -1.9204
  125bbb     C6 3612   5.382   3.391   7.637  0.3154 -0.1798  0.3946
  125bbb    H11 3613   5.309   3.339   7.574  0.4157  1.4983 -1.1925
  125bbb    H12 3614   5.469   3.326   7.648 -1.1706 -2.5079 -0.7113
  125bbb     C7 3615   5.008   3.416   8.099 -0.9216 -1.1535  0.5049
  125bbb    H13 3616   4.944   3.464   8.024  0.0061 -1.5389 -0.5741
  125bbb    H14 3617   5.037   3.481   8.183  0.1372 -1.1145  0.1241
  125bbb     C8 3618   5.417   3.522   7.558 -0.7609 -0.1676  0.3207
  125bbb    H15 3619   5.327   3.581   7.537 -1.8166 -1.6148  0.5710
  125bbb    H16 3620   5.461   3.498   7.461 -0.7741  0.5090  0.1436
  125bbb     C9 3621   5.464   3.016   8.041  0.0634  0.2553  0.5048
  125bbb    H17 3622   5.504   3.076   8.124 -0.7987  1.0016  0.3954
  125bbb    H18 3623   5.540   3.022   7.963  1.1968  4.7674  1.6669
  125bbb     O1 3624   4.946   3.297   8.147 -0.1985  0.3914  0.2413
  126bbb     N1 3625   5.548   2.098   8.398 -0.2670 -0.3099  0.3750
  126bbb     C1 3626   5.501   1.958   8.408  0.6861 -0.2288 -0.0337
  126bbb     H1 3627   5.464   1.945   8.510  0.2184  1.4114  0.0318
  126bbb     H2 3628   5.585   1.889   8.397  1.2222  0.2979  0.6610
  126bbb     C2 3629   5.669   2.130   8.474  0.6548 -0.2444 -0.9391
  126bbb     H3 3630   5.729   2.215   8.438 -0.2602  0.6808 -0.3364
  126bbb     H4 3631   5.737   2.044   8.477  0.1370 -0.6582  1.8558
  126bbb     C3 3632   5.446   2.195   8.404 -0.3795  0.9293  0.2008
  126bbb     H5 3633   5.411   2.210   8.507 -1.3255  0.0374  0.0251
  126bbb     H6 3634   5.361   2.160   8.344  1.5616  1.3549 -3.0403
  126bbb     C4 3635   5.471   2.331   8.338 -0.7421  0.8291  0.0400
  126bbb     H7 3636   5.464   2.321   8.229 -2.7744 -0.8367  0.2625
  126bbb     H8 3637   5.571   2.365   8.367 -0.0889 -1.9049  1.2979
  126bbb     C5 3638   5.380   1.914   8.316  0.7669  0.0041 -0.7977
  126bbb     H9 3639   5.403   1.928   8.210 -3.3221  0.5262 -1.7829
  126bbb    H10 3640   5.289   1.973   8.332 -0.2961 -1.2447 -1.9674
  126bbb     C6 3641   5.657   2.167   8.621 -0.5849  0.4657 -0.2242
  126bbb    H11 3642   5.611   2.085   8.677 -0.9386  1.1508  0.5199
  126bbb    H12 3643   5.587   2.250   8.641 -0.3076  0.6041  0.1906
  126bbb     C7 3644   5.384   2.440   8.397  0.0871 -0.1520 -0.0616
  126bbb    H13 3645   5.423   2.491   8.486 -0.9593  1.9242 -0.7408
  126bbb    H14 3646   5.288   2.391   8.413  0.7745 -2.3056 -1.9266
  126bbb     C8 3647   5.795   2.208   8.683 -0.4813 -0.0113 -0.5194
  126bbb    H15 3648   5.790   2.251   8.784 -0.2902  1.4742 -1.1064
  126bbb    H16 3649   5.841   2.287   8.623  1.4379 -1.7869 -1.5109
  126bbb     C9 3650   5.336   1.769   8.335 -0.4345  0.4783 -0.2125
  126bbb    H17 3651   5.326   1.750   8.443 -1.2676  0.5733 -0.2650
  126bbb    H18 3652   5.414   1.703   8.296 -1.8168 -1.0683 -0.4669
  126bbb     O1 3653   5.371   2.546   8.302 -0.0969 -0.4722 -0.0356
  127bbb     N1 3654   5.365   8.416   7.187 -0.1379 -0.2581 -0.0683
  127bbb     C1 3655   5.498   8.477   7.223  0.1212 -0.5255  0.3500
  127bbb     H1 3656   5.546   8.416   7.300  1.8622  2.0276  1.3914
  127bbb     H2 3657   5.480   8.574   7.269 -1.8681 -0.8784  0.4145
  127bbb     C2 3658   5.249   8.447   7.274 -0.3176 -0.3725 -0.0430
  127bbb     H3 3659   5.245   8.376   7.357 -1.7647  0.0994  0.3271
  127bbb     H4 3660   5.155   8.436   7.217 -1.8130 -0.6911  2.3494
  127bbb     C3 3661   5.362   8.278   7.146  0.7137 -0.4137  0.6636
  127bbb     H5 3662   5.427   8.257   7.060 -0.8946 -0.2753 -0.6264
  127bbb     H6 3663   5.267   8.250   7.100 -0.8269  1.5369  2.5229
  127bbb     C4 3664   5.404   8.168   7.251  0.2354  0.1907  0.3785
  127bbb     H7 3665   5.345   8.170   7.343  0.4752 -1.4659  0.5877
  127bbb     H8 3666   5.512   8.169   7.274  0.4960 -2.0999 -0.5034
  127bbb     C5 3667   5.598   8.487   7.102  0.6901  0.6058 -0.0152
  127bbb     H9 3668   5.622   8.384   7.071 -0.4900 -0.0293  1.0750
  127bbb    H10 3669   5.694   8.537   7.118  0.2545  2.2981 -2.2334
  127bbb     C6 3670   5.228   8.599   7.319 -0.3894  0.2999 -0.2337
  127bbb    H11 3671   5.312   8.629   7.383 -0.2658  1.2614 -0.8380
  127bbb    H12 3672   5.137   8.592   7.379 -0.2338  0.3681  0.0109
  127bbb     C7 3673   5.374   8.031   7.194  1.3213  0.0388 -1.0221
  127bbb    H13 3674   5.423   8.016   7.097 -0.0341  0.5571 -1.8167
  127bbb    H14 3675   5.266   8.022   7.173  1.1024 -2.1930  0.7106
  127bbb     C8 3676   5.206   8.695   7.209  0.0563  0.2836  0.1364
  127bbb    H15 3677   5.276   8.679   7.126  0.2988  0.1777  0.3624
  127bbb    H16 3678   5.217   8.798   7.243  1.8589 -1.1620  4.5902
  127bbb     C9 3679   5.539   8.558   6.974 -0.7906  0.2274 -0.0239
  127bbb    H17 3680   5.438   8.522   6.952 -0.8833  1.4629 -1.8278
  127bbb    H18 3681   5.608   8.535   6.892 -1.3048  0.3773 -0.4963
  127bbb     O1 3682   5.421   7.919   7.283 -0.2710 -0.8396 -0.2550
  128bbb     N1 3683   4.999   8.145   6.895 -0.0810 -0.5384  0.1614
  128bbb     C1 3684   4.960   8.274   6.846  0.2004 -1.0259 -0.7199
  128bbb     H1 3685   4.851   8.282   6.859 -0.1733 -0.0238 -3.8141
  128bbb     H2 3686   4.986   8.276   6.740  0.9504  0.2517 -0.5327
  128bbb     C2 3687   5.137   8.109   6.860  0.7614 -0.8598  0.0335
  128bbb     H3 3688   5.200   8.154   6.937 -3.0277  1.4913  2.0956
  128bbb     H4 3689   5.164   8.153   6.763  0.8613  2.6347  1.4925
  128bbb     C3 3690   4.952   8.088   7.025  0.0564  0.0298 -0.0630
  128bbb     H5 3691   4.961   8.159   7.108 -1.1273 -0.7435  0.7468
  128bbb     H6 3692   4.995   7.990   7.048 -1.2592 -0.5235  0.1170
  128bbb     C4 3693   4.797   8.070   7.018  0.7279  0.2205  0.4950
  128bbb     H7 3694   4.738   8.152   6.974  0.9422 -0.8133 -1.8140
  128bbb     H8 3695   4.759   8.067   7.121  0.7955  0.5789  0.5336
  128bbb     C5 3696   5.008   8.395   6.931 -0.1388  0.4744  0.5259
  128bbb     H9 3697   4.999   8.370   7.037 -1.4639 -0.7603  0.1639
  128bbb    H10 3698   4.929   8.466   6.903 -1.1556 -1.1045 -0.8973
  128bbb     C6 3699   5.170   7.960   6.845 -0.5301  0.1838 -0.1727
  128bbb    H11 3700   5.144   7.905   6.936  0.2333  0.4989  0.2512
  128bbb    H12 3701   5.278   7.940   6.835 -0.6695 -0.3403 -0.6916
  128bbb     C7 3702   4.763   7.932   6.949  0.0927 -0.5859 -0.4162
  128bbb    H13 3703   4.785   7.938   6.842  2.7578 -0.4242  0.0805
  128bbb    H14 3704   4.656   7.913   6.967 -0.2148  1.6448  0.4574
  128bbb     C8 3705   5.098   7.893   6.720 -0.7354 -0.3689 -0.0951
  128bbb    H15 3706   4.992   7.919   6.722 -0.7775 -0.5105  1.5607
  128bbb    H16 3707   5.098   7.784   6.731  1.6936 -0.2116  3.0422
  128bbb     C9 3708   5.149   8.449   6.902 -0.4341  0.3805  0.2613
  128bbb    H17 3709   5.224   8.370   6.887  1.0390  1.3959  1.9127
  128bbb    H18 3710   5.183   8.493   6.997  1.2320 -2.4169  1.0935
  128bbb     O1 3711   4.845   7.820   7.005  0.2357 -0.1645 -0.4689
  129bbb     N1 3712   6.048   6.659   6.057 -0.0795  0.1317  0.1467
  129bbb     C1 3713   6.016   6.777   6.144  0.7144 -0.0964  0.1417
  129bbb     H1 3714   6.075   6.862   6.108  1.0302 -0.1225  0.5769
  129bbb     H2 3715   6.056   6.750   6.243  2.3862  0.0223 -0.4593
  129bbb     C2 3716   6.187   6.650   6.006  0.2289  0.7974 -0.3957
  129bbb     H3 3717   6.183   6.575   5.926 -1.0905 -3.0436  2.9273
  129bbb     H4 3718   6.248   6.615   6.090 -1.8043  1.0894  1.2616
  129bbb     C3 3719   5.993   6.536   6.107  0.1175 -0.2190 -0.2147
  129bbb     H5 3720   5.889   6.547   6.141  0.4714  3.1553  0.1709
  129bbb     H6 3721   6.037   6.495   6.198 -2.3912  0.5075  1.4282
  129bbb     C4 3722   5.997   6.419   6.007  0.5913 -0.4176  0.3304
  129bbb     H7 3723   6.104   6.397   5.997  0.9294  1.4161 -0.5491
  129bbb     H8 3724   5.953   6.459   5.915 -1.3637 -0.5037  1.1820
  129bbb     C5 3725   5.859   6.809   6.154 -0.0707 -0.5117  0.9826
  129bbb     H9 3726   5.852   6.871   6.244 -0.0225  0.3508  0.4049
  129bbb    H10 3727   5.803   6.716   6.170  1.1007 -1.2463  1.0214
  129bbb     C6 3728   6.261   6.776   5.948 -0.0075 -0.4467  1.0810
  129bbb    H11 3729   6.353   6.735   5.904 -1.0645 -0.9360 -0.7704
  129bbb    H12 3730   6.284   6.844   6.031 -2.2191  2.5043 -0.5530
  129bbb     C7 3731   5.919   6.294   6.045  0.4949  0.2609 -0.0148
  129bbb    H13 3732   5.970   6.243   6.128  0.1719 -0.7122 -0.4044
  129bbb    H14 3733   5.911   6.224   5.962  2.6154 -1.2598  0.9944
  129bbb     C8 3734   6.180   6.854   5.838 -0.0444 -0.0111  0.1064
  129bbb    H15 3735   6.092   6.892   5.892 -0.6730 -1.7020  0.3289
  129bbb    H16 3736   6.241   6.937   5.801 -0.3251 -0.5477 -1.6221
  129bbb     C9 3737   5.797   6.900   6.039  0.0453  0.9517 -0.6023
  129bbb    H17 3738   5.828   6.881   5.935 -0.0024 -2.5345 -0.1020
  129bbb    H18 3739   5.810   7.008   6.051  1.3152  0.6498  0.9795
  129bbb     O1 3740   5.791   6.345   6.090  0.4647  0.9353 -1.2625
  130bbb     N1 3741   6.327   6.513   6.830 -0.4395  0.2413  0.4174
  130bbb     C1 3742   6.380   6.544   6.964 -0.0700 -0.3293 -1.0581
  130bbb     H1 3743   6.405   6.650   6.959 -2.3069  0.2515 -0.9970
  130bbb     H2 3744   6.467   6.483   6.991  0.3456  0.4865 -0.5088
  130bbb     C2 3745   6.293   6.373   6.812 -0.2956  0.5038  0.1328
  130bbb     H3 3746   6.221   6.356   6.731 -1.8636  3.1581  0.8591
  130bbb     H4 3747   6.252   6.333   6.906  2.8288 -1.4042  0.8431
  130bbb     C3 3748   6.233   6.613   6.774 -1.0559 -0.5121 -0.3278
  130bbb     H5 3749   6.262   6.713   6.806 -0.8431 -1.2358  1.9214
  130bbb     H6 3750   6.140   6.597   6.828 -0.2815  0.1285  1.2607
  130bbb     C4 3751   6.225   6.596   6.620 -0.6964 -0.0354 -0.0625
  130bbb     H7 3752   6.181   6.499   6.593 -2.1747  0.9711 -1.5095
  130bbb     H8 3753   6.325   6.599   6.576 -0.7268 -3.1773 -0.5345
  130bbb     C5 3754   6.275   6.523   7.075 -0.6705  0.2960  0.6989
  130bbb     H9 3755   6.240   6.419   7.072 -0.4737  0.2576 -1.3450
  130bbb    H10 3756   6.181   6.579   7.057 -0.8479  0.3186  1.6537
  130bbb     C6 3757   6.416   6.277   6.783  1.0281 -0.2886 -0.0563
  130bbb    H11 3758   6.380   6.174   6.796  0.1869  0.0349  0.3098
  130bbb    H12 3759   6.500   6.294   6.851 -0.0391 -2.0459  1.8053
  130bbb     C7 3760   6.125   6.700   6.566  1.3041  0.2933  0.1834
  130bbb    H13 3761   6.135   6.721   6.459  0.3823 -0.9663 -0.1790
  130bbb    H14 3762   6.131   6.798   6.614 -2.2518  0.6757  0.1665
  130bbb     C8 3763   6.463   6.285   6.640  0.0593 -0.3202 -0.4455
  130bbb    H15 3764   6.476   6.394   6.631 -0.4310 -0.1890  0.3649
  130bbb    H16 3765   6.388   6.249   6.568  0.8656 -1.4570 -0.7374
  130bbb     C9 3766   6.320   6.553   7.220 -0.2142 -0.2406 -1.0594
  130bbb    H17 3767   6.402   6.490   7.258  1.6314  3.5599  2.0177
  130bbb    H18 3768   6.235   6.545   7.288  1.0162  1.7190  0.8324
  130bbb     O1 3769   5.991   6.647   6.581  0.6617  0.4812 -0.0062
  131bbb     N1 3770   6.123   8.600   7.799 -0.4640  0.1490  0.2156
  131bbb     C1 3771   6.090   8.735   7.747  0.1091 -0.1473  0.3670
  131bbb     H1 3772   5.994   8.776   7.781 -0.4835 -0.4366 -0.8767
  131bbb     H2 3773   6.079   8.729   7.638  0.8898 -1.0060  0.3258
  131bbb     C2 3774   6.259   8.545   7.756 -0.1469  0.0860  0.6836
  131bbb     H3 3775   6.290   8.456   7.812  3.8222  1.2922  0.6951
  131bbb     H4 3776   6.336   8.616   7.787  1.6388 -1.6281  0.3951
  131bbb     C3 3777   6.006   8.510   7.785  0.3531  0.2070 -0.1736
  131bbb     H5 3778   6.004   8.470   7.682  0.0120  1.8969 -0.8541
  131bbb     H6 3779   5.906   8.552   7.802  0.1138  0.2552 -1.5394
  131bbb     C4 3780   6.015   8.388   7.876  0.3335  0.6022 -0.4009
  131bbb     H7 3781   6.040   8.422   7.977  0.0862  2.2581 -0.8811
  131bbb     H8 3782   6.099   8.330   7.834  0.3980  1.7688 -1.9831
  131bbb     C5 3783   6.196   8.850   7.778 -0.8103  0.6694  0.3320
  131bbb     H9 3784   6.286   8.806   7.732 -1.2498 -0.8050  0.8228
  131bbb    H10 3785   6.204   8.843   7.887 -2.0457  0.7148  0.4336
  131bbb     C6 3786   6.281   8.513   7.602 -0.2034 -0.7961 -0.2687
  131bbb    H11 3787   6.327   8.605   7.563 -0.7506 -0.1865  0.4695
  131bbb    H12 3788   6.180   8.495   7.564 -0.2004 -0.3762 -0.4822
  131bbb     C7 3789   5.892   8.292   7.875 -0.6388  0.2740 -0.0720
  131bbb    H13 3790   5.891   8.244   7.776  0.0540 -0.3059  0.1898
  131bbb    H14 3791   5.799   8.350   7.883 -0.1907  1.4865 -2.6242
  131bbb     C8 3792   6.373   8.396   7.583 -0.0953  0.1888  0.1536
  131bbb    H15 3793   6.323   8.300   7.601 -2.2372  1.5303  1.7018
  131bbb    H16 3794   6.451   8.396   7.660 -0.6940  0.9077  0.7731
  131bbb     C9 3795   6.163   8.981   7.712 -0.0700 -0.3884 -0.4245
  131bbb    H17 3796   6.070   9.033   7.739  0.8163  1.0682 -0.0595
  131bbb    H18 3797   6.149   8.953   7.607  0.4816 -3.5811  0.2670
  131bbb     O1 3798   5.913   8.187   7.974 -0.2034  0.7869  0.6301
  132bbb     N1 3799   6.661   7.621   8.772 -0.2797  0.4127  0.3991
  132bbb     C1 3800   6.661   7.762   8.840 -0.4917  0.8034 -0.1644
  132bbb     H1 3801   6.576   7.824   8.808 -0.9574 -0.9196 -2.5230
  132bbb     H2 3802   6.749   7.817   8.805 -2.4399  3.4705 -1.1127
  132bbb     C2 3803   6.765   7.526   8.813 -0.3014  0.0034  0.5646
  132bbb     H3 3804   6.773   7.520   8.923  1.6520  1.8954  0.5809
  132bbb     H4 3805   6.862   7.566   8.782 -0.5154  0.4129  0.4117
  132bbb     C3 3806   6.645   7.617   8.620 -0.0473 -0.1613  0.1002
  132bbb     H5 3807   6.612   7.516   8.592 -0.3916 -0.2867  0.9215
  132bbb     H6 3808   6.743   7.647   8.583 -0.2145  0.8062  0.4273
  132bbb     C4 3809   6.527   7.706   8.574  0.7586  0.3516 -0.3202
  132bbb     H7 3810   6.562   7.810   8.569  0.0387  0.7524  1.7731
  132bbb     H8 3811   6.453   7.703   8.654  1.5798 -2.7676  0.4381
  132bbb     C5 3812   6.647   7.747   8.990  0.0874 -0.4203 -0.1945
  132bbb     H9 3813   6.736   7.704   9.038  0.3678 -0.6769 -0.9252
  132bbb    H10 3814   6.562   7.679   9.006  0.3796 -0.1697  3.0841
  132bbb     C6 3815   6.753   7.380   8.762  0.0536  0.3044 -0.7448
  132bbb    H11 3816   6.849   7.340   8.797 -0.3713 -1.6473 -1.6202
  132bbb    H12 3817   6.775   7.369   8.655  0.4598 -3.0509 -0.4455
  132bbb     C7 3818   6.454   7.658   8.440  0.0582 -0.8191 -0.8862
  132bbb    H13 3819   6.424   7.555   8.462  0.7970 -0.7265  0.6758
  132bbb    H14 3820   6.513   7.655   8.347  0.3694 -1.3707 -0.6746
  132bbb     C8 3821   6.622   7.307   8.805  0.4779  0.0183 -0.0483
  132bbb    H15 3822   6.556   7.323   8.718  2.0842  0.1580 -1.2809
  132bbb    H16 3823   6.565   7.351   8.888 -0.9754 -1.5095 -0.1686
  132bbb     C9 3824   6.610   7.884   9.056 -0.5123  0.8118  0.2365
  132bbb    H17 3825   6.623   7.874   9.164  0.6100  1.5874  0.1871
  132bbb    H18 3826   6.502   7.891   9.034 -0.6537 -1.9358 -0.2883
  132bbb     O1 3827   6.334   7.737   8.428  0.0175 -0.2916 -0.7092
  133bbb     N1 3828   5.770   6.056   8.969  0.0417 -0.2130  0.2831
  133bbb     C1 3829   5.766   5.967   9.085 -0.2818  1.2015 -0.6401
  133bbb     H1 3830   5.859   5.910   9.094 -1.4352 -0.9781 -1.6762
  133bbb     H2 3831   5.684   5.894   9.080  1.0917 -0.3276 -1.6599
  133bbb     C2 3832   5.808   5.988   8.838  0.4499 -0.1422 -0.3284
  133bbb     H3 3833   5.860   6.059   8.773  0.8414  1.3856  1.5484
  133bbb     H4 3834   5.718   5.945   8.791 -0.8074  0.2018  1.6521
  133bbb     C3 3835   5.657   6.141   8.954  0.3279  0.9235 -0.4092
  133bbb     H5 3836   5.621   6.172   9.052 -0.9518  1.0815 -0.9058
  133bbb     H6 3837   5.570   6.088   8.914  1.5337  0.5293 -2.7152
  133bbb     C4 3838   5.689   6.261   8.862  0.0120 -0.9336  0.1649
  133bbb     H7 3839   5.671   6.234   8.757  0.8981 -0.2838 -0.1636
  133bbb     H8 3840   5.796   6.285   8.858 -0.7266  2.9700  0.0484
  133bbb     C5 3841   5.745   6.031   9.222 -0.6267  0.3025  0.5102
  133bbb     H9 3842   5.643   6.070   9.217  0.0687  2.0590 -1.9967
  133bbb    H10 3843   5.818   6.111   9.245 -1.0209  0.2190  2.2087
  133bbb     C6 3844   5.918   5.880   8.848 -0.1057  0.3961 -0.0890
  133bbb    H11 3845   5.884   5.797   8.911  0.3454  0.3677  0.1210
  133bbb    H12 3846   6.007   5.932   8.887 -0.6496  2.4329 -1.3869
  133bbb     C7 3847   5.612   6.385   8.900  0.5960 -0.4649 -0.0811
  133bbb    H13 3848   5.644   6.467   8.834 -1.8926  1.6509  1.1626
  133bbb    H14 3849   5.638   6.421   9.000  1.2641  0.5932 -0.6129
  133bbb     C8 3850   5.953   5.826   8.712  0.1495  0.4226  0.9466
  133bbb    H15 3851   6.004   5.894   8.642 -3.8788  1.6889 -1.0671
  133bbb    H16 3852   5.862   5.795   8.658  0.2861  0.5034  0.6670
  133bbb     C9 3853   5.746   5.935   9.343 -0.6232  0.0722 -0.0165
  133bbb    H17 3854   5.746   5.995   9.435 -1.4831  0.5530 -0.3092
  133bbb    H18 3855   5.841   5.881   9.338 -0.6318  0.1265 -1.0476
  133bbb     O1 3856   5.469   6.361   8.871  0.4049 -0.4382  0.0230
  134bbb     N1 3857   4.737   7.284   8.690 -0.0723  0.8953 -0.1222
  134bbb     C1 3858   4.740   7.433   8.657 -0.4662  0.6258  0.4600
  134bbb     H1 3859   4.826   7.473   8.711 -0.3084 -0.0941  0.7514
  134bbb     H2 3860   4.652   7.488   8.694  0.1269  1.4014  0.7394
  134bbb     C2 3861   4.688   7.257   8.830 -0.0824  0.6215  0.2738
  134bbb     H3 3862   4.755   7.280   8.914  0.2096  0.3761  0.1064
  134bbb     H4 3863   4.678   7.148   8.832  0.1131  0.5559 -1.5172
  134bbb     C3 3864   4.855   7.217   8.655 -0.4757  0.1207  0.0345
  134bbb     H5 3865   4.941   7.247   8.716  0.8195 -0.8669 -1.2384
  134bbb     H6 3866   4.888   7.244   8.554 -0.0823  0.7189  0.3121
  134bbb     C4 3867   4.849   7.067   8.659  0.1613  0.3476  0.0978
  134bbb     H7 3868   4.755   7.034   8.613  0.5084  0.2964 -0.5757
  134bbb     H8 3869   4.854   7.025   8.760  1.3309  0.2723  0.0203
  134bbb     C5 3870   4.745   7.463   8.504  0.4842 -0.2237 -0.5982
  134bbb     H9 3871   4.652   7.420   8.466 -0.1998  0.2183  0.5412
  134bbb    H10 3872   4.830   7.409   8.460  1.1241 -0.0910  0.4317
  134bbb     C6 3873   4.546   7.310   8.856 -1.0989  0.2371  0.8266
  134bbb    H11 3874   4.484   7.302   8.766  0.0479  0.4813 -0.0014
  134bbb    H12 3875   4.560   7.413   8.889  0.3677  0.0413  0.8681
  134bbb     C7 3876   4.964   7.017   8.573  0.3113  0.2546 -0.0968
  134bbb    H13 3877   4.975   7.079   8.484  0.2093 -0.4555 -0.6169
  134bbb    H14 3878   4.953   6.910   8.552  1.7710 -0.3974  2.1098
  134bbb     C8 3879   4.471   7.227   8.953  0.5244  0.6541  0.0035
  134bbb    H15 3880   4.527   7.218   9.047  0.7005 -0.8565 -0.2190
  134bbb    H16 3881   4.467   7.120   8.927  0.5552  0.2541  1.5207
  134bbb     C9 3882   4.754   7.612   8.473 -0.0882  0.1584  0.5462
  134bbb    H17 3883   4.681   7.673   8.528 -0.8372  0.0441 -0.2937
  134bbb    H18 3884   4.740   7.618   8.365  1.7357 -1.5697  0.1545
  134bbb     O1 3885   5.085   7.033   8.654 -0.1795 -0.6105 -0.4502
  135bbb     N1 3886   2.129   7.870   9.386 -0.3731 -0.3847 -0.6991
  135bbb     C1 3887   2.017   7.809   9.469 -0.2654 -0.4422  0.5310
  135bbb     H1 3888   1.944   7.887   9.493  1.5080  0.7271  2.5458
  135bbb     H2 3889   2.063   7.792   9.568  0.0507  1.6437  0.7846
  135bbb     C2 3890   2.076   7.927   9.260 -0.3805 -0.5174  0.6469
  135bbb     H3 3891   2.051   7.851   9.185 -1.2370  0.3305  0.0574
  135bbb     H4 3892   2.157   7.987   9.216 -0.6752 -0.7412 -0.2139
  135bbb     C3 3893   2.249   7.776   9.374 -0.2579  1.1741 -0.5076
  135bbb     H5 3894   2.234   7.689   9.309  0.8643 -0.5947  1.4634
  135bbb     H6 3895   2.276   7.745   9.476 -1.9196 -0.7509 -0.5918
  135bbb     C4 3896   2.376   7.847   9.317  0.0965  0.1544  0.5871
  135bbb     H7 3897   2.370   7.875   9.211  1.5560  0.2713  0.5106
  135bbb     H8 3898   2.457   7.772   9.318  0.6963  0.7901  0.8935
  135bbb     C5 3899   1.960   7.683   9.409 -0.3625  0.7378  1.0894
  135bbb     H9 3900   2.035   7.609   9.380 -1.3034  0.1493  0.0230
  135bbb    H10 3901   1.916   7.707   9.311  1.2727 -0.6656 -0.0500
  135bbb     C6 3902   1.949   8.025   9.260 -0.6795 -0.1775 -0.5719
  135bbb    H11 3903   1.950   8.092   9.347  1.9469 -1.4646  0.5165
  135bbb    H12 3904   1.856   7.966   9.259 -0.2943 -0.8192  0.0804
  135bbb     C7 3905   2.420   7.966   9.399  0.1514 -0.5035  0.6924
  135bbb    H13 3906   2.454   7.939   9.500  1.8824 -0.4820  0.1482
  135bbb    H14 3907   2.337   8.037   9.400  0.6118  0.1153 -1.0759
  135bbb     C8 3908   1.949   8.111   9.132  1.0718 -0.1899 -0.9614
  135bbb    H15 3909   2.052   8.149   9.122  1.1019  0.3103  0.9259
  135bbb    H16 3910   1.876   8.191   9.146 -0.3171 -1.1676 -2.2357
  135bbb     C9 3911   1.855   7.610   9.496 -0.6650 -0.1363  0.5297
  135bbb    H17 3912   1.904   7.583   9.591 -1.7591 -1.7804  0.6756
  135bbb    H18 3913   1.815   7.519   9.450 -4.3607  1.2821  0.5847
  135bbb     O1 3914   2.531   8.018   9.320  0.0343  0.1182 -0.2802
  136bbb     N1 3915   3.047   8.950   9.175  0.9563 -0.2956 -0.5413
  136bbb     C1 3916   3.181   8.996   9.177 -0.3129  0.0804 -0.2645
  136bbb     H1 3917   3.225   8.959   9.270  0.4246  2.2040  0.2850
  136bbb     H2 3918   3.180   9.105   9.184 -2.7769  0.2257 -1.7497
  136bbb     C2 3919   2.960   9.026   9.272  0.1505  0.6318  0.0325
  136bbb     H3 3920   2.970   8.996   9.377  1.8731  0.6554 -0.1014
  136bbb     H4 3921   2.857   9.003   9.242  0.1474  3.3905 -2.5950
  136bbb     C3 3922   3.027   8.802   9.177 -0.3632  0.0280 -0.3184
  136bbb     H5 3923   3.068   8.749   9.090 -1.2511 -1.0800 -0.0791
  136bbb     H6 3924   2.918   8.793   9.178 -0.5438  1.8277 -0.2173
  136bbb     C4 3925   3.073   8.720   9.304  0.9753 -0.0240 -0.2963
  136bbb     H7 3926   3.051   8.782   9.392 -1.7064 -0.2986 -0.6871
  136bbb     H8 3927   3.182   8.714   9.302  1.1252  0.2365  2.3723
  136bbb     C5 3928   3.272   8.959   9.055  0.4788 -0.6301  0.5215
  136bbb     H9 3929   3.214   8.983   8.965  0.9821  1.1216  0.6130
  136bbb    H10 3930   3.299   8.853   9.053  0.0910 -0.7212 -0.5311
  136bbb     C6 3931   2.975   9.183   9.279  0.8830 -0.3004 -0.0992
  136bbb    H11 3932   3.067   9.220   9.326 -0.6723  2.4263  0.9879
  136bbb    H12 3933   2.911   9.219   9.360  0.8438  0.9885 -0.6781
  136bbb     C7 3934   3.016   8.573   9.308  0.0269 -1.0633  0.2719
  136bbb    H13 3935   2.911   8.562   9.338  0.3516  0.3784  2.0932
  136bbb    H14 3936   3.082   8.523   9.380 -0.6914  0.4684  2.0704
  136bbb     C8 3937   2.943   9.247   9.143  0.4040 -0.5986  0.0399
  136bbb    H15 3938   2.844   9.216   9.107 -0.2012  1.4663 -0.2471
  136bbb    H16 3939   3.016   9.210   9.070  0.9727 -1.9046  1.2236
  136bbb     C9 3940   3.403   9.050   9.057 -0.2241  0.6101 -0.6785
  136bbb    H17 3941   3.463   9.004   8.977  0.6468 -3.0883  1.8737
  136bbb    H18 3942   3.460   9.045   9.150 -1.3863  0.6961  0.0631
  136bbb     O1 3943   3.039   8.502   9.188  0.4760 -0.5476  0.0857
  137bbb     N1 3944   3.434   8.574   8.830 -0.1485  0.4926 -0.1016
  137bbb     C1 3945   3.328   8.665   8.773 -0.4366  0.0888  0.5503
  137bbb     H1 3946   3.334   8.763   8.823  1.8458  0.5451 -0.4851
  137bbb     H2 3947   3.229   8.623   8.794  0.4738 -0.8505  3.3092
  137bbb     C2 3948   3.569   8.632   8.818  0.0029  0.3243  0.3678
  137bbb     H3 3949   3.613   8.620   8.718 -0.2545  0.8671  0.1830
  137bbb     H4 3950   3.639   8.575   8.880  0.7863  0.2457 -0.5626
  137bbb     C3 3951   3.425   8.431   8.785  0.3227 -0.8377 -0.5661
  137bbb     H5 3952   3.497   8.376   8.846 -0.4627  1.3097  2.5403
  137bbb     H6 3953   3.458   8.421   8.681  3.6235 -0.1369  0.3068
  137bbb     C4 3954   3.283   8.368   8.800 -0.4976  0.0473  0.4583
  137bbb     H7 3955   3.220   8.412   8.722  0.9584  1.6923  0.1595
  137bbb     H8 3956   3.234   8.405   8.891 -0.5060  0.0284  0.4615
  137bbb     C5 3957   3.335   8.683   8.609 -0.0521  0.5209 -0.0061
  137bbb     H9 3958   3.307   8.592   8.556 -0.1505  1.5940 -1.8805
  137bbb    H10 3959   3.436   8.711   8.576 -0.4343  0.6916 -1.0549
  137bbb     C6 3960   3.573   8.782   8.855 -0.0571  0.6597 -0.3170
  137bbb    H11 3961   3.521   8.787   8.951  1.2872 -0.1465  0.4807
  137bbb    H12 3962   3.533   8.854   8.782 -1.4746  1.1233  0.8647
  137bbb     C7 3963   3.270   8.214   8.808  0.4140  0.2520 -0.2394
  137bbb    H13 3964   3.295   8.192   8.912 -1.2082 -0.7624 -0.0345
  137bbb    H14 3965   3.342   8.167   8.740 -0.3313  0.4153 -1.1653
  137bbb     C8 3966   3.720   8.821   8.889 -0.3657  0.2577 -0.0822
  137bbb    H15 3967   3.796   8.811   8.810 -0.0434 -0.5680  0.3253
  137bbb    H16 3968   3.760   8.759   8.970 -0.9215  0.2764  0.2084
  137bbb     C9 3969   3.247   8.799   8.566 -0.5052  0.2001  0.2271
  137bbb    H17 3970   3.143   8.788   8.600 -0.8184  3.8179  0.9050
  137bbb    H18 3971   3.238   8.800   8.457  1.4011 -0.2000  0.0382
  137bbb     O1 3972   3.136   8.172   8.780 -0.0163 -0.1589  0.3418
  138bbb     N1 3973   2.696   8.498   8.824  0.3446  0.2326  0.4048
  138bbb     C1 3974   2.843   8.520   8.829  0.6057  0.0429  0.7404
  138bbb     H1 3975   2.899   8.442   8.775  0.7765 -0.4251  1.5680
  138bbb     H2 3976   2.877   8.516   8.933 -0.7794  0.6944  1.2348
  138bbb     C2 3977   2.617   8.610   8.871  0.1060 -0.8392 -0.4518
  138bbb     H3 3978   2.510   8.594   8.855 -0.2115  0.4084  0.3301
  138bbb     H4 3979   2.641   8.707   8.826 -0.2307 -0.0268  1.0619
  138bbb     C3 3980   2.670   8.361   8.882 -0.4946 -0.3405 -0.5405
  138bbb     H5 3981   2.715   8.363   8.982  0.9749  0.9257 -1.1977
  138bbb     H6 3982   2.720   8.284   8.822 -1.9279 -1.3830 -0.4541
  138bbb     C4 3983   2.520   8.322   8.891  0.3232  0.0438  0.0034
  138bbb     H7 3984   2.478   8.321   8.790  2.2701 -3.0950 -0.9040
  138bbb     H8 3985   2.472   8.391   8.962  0.3241 -0.7168  0.7542
  138bbb     C5 3986   2.889   8.655   8.764 -0.5323  0.0871  0.6134
  138bbb     H9 3987   2.994   8.665   8.796 -0.6942  0.7746  0.9440
  138bbb    H10 3988   2.847   8.744   8.812 -1.9432  0.3508 -1.0305
  138bbb     C6 3989   2.627   8.628   9.025  0.7215 -0.4849 -0.8032
  138bbb    H11 3990   2.733   8.634   9.051  0.7609  1.2447 -1.2290
  138bbb    H12 3991   2.575   8.540   9.064  0.7933 -1.4381 -2.7327
  138bbb     C7 3992   2.507   8.182   8.957 -0.7748 -0.1075 -0.5939
  138bbb    H13 3993   2.399   8.164   8.953 -1.2086  2.0957 -0.2905
  138bbb    H14 3994   2.548   8.182   9.059 -0.2188 -0.3333 -0.8092
  138bbb     C8 3995   2.548   8.756   9.077 -0.7176 -0.6781 -0.2569
  138bbb    H15 3996   2.538   8.822   8.990 -1.5257 -0.3699  0.0569
  138bbb    H16 3997   2.604   8.814   9.152 -2.8533  1.2945 -0.0661
  138bbb     C9 3998   2.876   8.651   8.614 -0.1223  0.4080 -0.1796
  138bbb    H17 3999   2.781   8.611   8.578 -0.3076 -0.3079  1.0619
  138bbb    H18 4000   2.953   8.586   8.572 -1.0869 -1.2409  0.5305
  138bbb     O1 4001   2.583   8.086   8.877  0.1740 -0.2878  0.1910
  139bbb     N1 4002   4.509   6.856   9.808  0.5302 -0.4315  0.0658
  139bbb     C1 4003   4.462   6.986   9.871  0.4289  0.2548  1.1834
  139bbb     H1 4004   4.396   7.038   9.801  1.1327 -0.2166  0.1469
  139bbb     H2 4005   4.546   7.057   9.874  0.4501  0.2523  0.6750
  139bbb     C2 4006   4.610   6.777   9.887 -0.6243  0.2311 -0.2646
  139bbb     H3 4007   4.648   6.703   9.816  0.7225 -0.8702  1.5188
  139bbb     H4 4008   4.561   6.717   9.964 -0.6788  0.2147 -0.3120
  139bbb     C3 4009   4.401   6.762   9.764  0.3738  0.0881  0.0170
  139bbb     H5 4010   4.350   6.737   9.858 -0.2828 -0.9266 -0.5840
  139bbb     H6 4011   4.442   6.673   9.715  1.1877  1.2607 -1.5301
  139bbb     C4 4012   4.298   6.823   9.667 -0.5934 -0.1300 -0.6302
  139bbb     H7 4013   4.354   6.880   9.593  0.6693  0.7069  0.9033
  139bbb     H8 4014   4.233   6.897   9.716 -0.6826 -0.5731 -0.0611
  139bbb     C5 4015   4.383   6.973  10.008  0.3366  0.4786 -0.2652
  139bbb     H9 4016   4.450   6.918  10.075 -0.1886 -0.2793 -0.3609
  139bbb    H10 4017   4.295   6.911   9.986  1.4384 -2.1237  2.0849
  139bbb     C6 4018   4.731   6.861   9.938 -0.3797 -0.3576 -1.0957
  139bbb    H11 4019   4.697   6.950   9.992  1.0147 -1.1356  1.2159
  139bbb    H12 4020   4.799   6.898   9.861  0.0288  0.9099 -0.1611
  139bbb     C7 4021   4.206   6.717   9.594  0.4307 -0.0611  0.0239
  139bbb    H13 4022   4.272   6.637   9.557 -0.5266 -0.4919 -0.7991
  139bbb    H14 4023   4.160   6.765   9.507  2.7280  1.0335 -0.6822
  139bbb     C8 4024   4.816   6.780  10.035 -0.8720  0.2879 -0.2230
  139bbb    H15 4025   4.848   6.690   9.981  2.0750  0.7857  0.5551
  139bbb    H16 4026   4.782   6.742  10.131  0.5848 -2.0880 -0.5760
  139bbb     C9 4027   4.336   7.104  10.081 -0.1605 -0.0314  0.6333
  139bbb    H17 4028   4.432   7.148  10.111 -0.0144 -0.2354  0.4667
  139bbb    H18 4029   4.277   7.087  10.173 -0.4255  2.8138  1.0785
  139bbb     O1 4030   4.105   6.669   9.685 -0.1048 -0.2446 -0.3006
  140bbb     N1 4031   3.059   6.958  10.166  0.0772 -0.1982  0.0869
  140bbb     C1 4032   2.916   6.917  10.148 -0.0688  0.2669  0.4890
  140bbb     H1 4033   2.861   6.933  10.242  0.7065  1.8189  0.7117
  140bbb     H2 4034   2.916   6.811  10.122 -0.2900  0.6346 -1.1409
  140bbb     C2 4035   3.100   6.939  10.304 -0.4331  0.3825  0.2939
  140bbb     H3 4036   3.036   6.997  10.372 -0.0820  1.5221 -0.3274
  140bbb     H4 4037   3.202   6.978  10.314 -0.1048 -0.2304 -0.5211
  140bbb     C3 4038   3.150   6.902  10.064  0.2808  0.2546 -0.1105
  140bbb     H5 4039   3.112   6.939   9.968 -2.5170 -0.9091  0.4371
  140bbb     H6 4040   3.148   6.792  10.065 -0.2250  0.1836  3.0272
  140bbb     C4 4041   3.298   6.944  10.072 -0.9838  0.0302 -0.1822
  140bbb     H7 4042   3.335   6.907  10.168 -1.5291 -1.0640 -0.3743
  140bbb     H8 4043   3.302   7.053  10.069 -1.3021  0.0460 -0.0343
  140bbb     C5 4044   2.836   6.998  10.038 -0.2453  0.0859  0.4851
  140bbb     H9 4045   2.733   6.962  10.047 -0.2525 -0.2268 -0.6975
  140bbb    H10 4046   2.862   6.957   9.940 -2.1249 -2.1225  0.8181
  140bbb     C6 4047   3.100   6.793  10.352  0.7974  1.0461 -0.2118
  140bbb    H11 4048   3.140   6.724  10.278  0.1118 -1.2398  1.4467
  140bbb    H12 4049   2.999   6.752  10.359  1.3673 -0.8783 -2.1766
  140bbb     C7 4050   3.393   6.894   9.954  0.3037 -0.4789 -0.4519
  140bbb    H13 4051   3.493   6.936   9.968  0.2574 -0.1331 -1.1447
  140bbb    H14 4052   3.354   6.922   9.856 -2.3124 -1.1634  0.3113
  140bbb     C8 4053   3.181   6.786  10.479 -0.0729 -0.5882  0.0423
  140bbb    H15 4054   3.266   6.855  10.473 -0.5567 -0.0711 -1.4516
  140bbb    H16 4055   3.226   6.690  10.509  0.8736  0.2675  1.4597
  140bbb     C9 4056   2.845   7.156  10.049 -0.4162  1.0739 -0.6149
  140bbb    H17 4057   2.822   7.189  10.151 -2.6761 -0.2184 -0.6321
  140bbb    H18 4058   2.772   7.205   9.982 -0.1298  1.6781 -0.4879
  140bbb     O1 4059   3.393   6.750   9.960  0.0059 -0.4269  0.0163
  141bbb     N1 4060   1.934   6.269   9.305 -0.1620 -0.2982  0.2395
  141bbb     C1 4061   1.791   6.295   9.304  0.4649 -0.4912 -0.2451
  141bbb     H1 4062   1.758   6.381   9.245 -0.7177 -1.1463 -0.5830
  141bbb     H2 4063   1.756   6.315   9.406  1.2048 -3.4570  0.6908
  141bbb     C2 4064   1.975   6.128   9.340 -0.1336 -0.1923 -0.0419
  141bbb     H3 4065   1.909   6.053   9.294 -0.3705 -1.0592  1.6577
  141bbb     H4 4066   1.961   6.131   9.448  0.9875  0.4496  0.0956
  141bbb     C3 4067   2.021   6.370   9.364  0.5893 -0.3684  0.1887
  141bbb     H5 4068   2.128   6.351   9.370  0.5238 -0.9309 -0.2844
  141bbb     H6 4069   1.978   6.369   9.465 -2.1218  0.1878 -0.8645
  141bbb     C4 4070   2.006   6.504   9.294 -0.2234  0.4861 -0.2462
  141bbb     H7 4071   1.932   6.563   9.349 -0.3251 -1.1568  1.4959
  141bbb     H8 4072   1.975   6.487   9.190 -1.9122 -1.1267  0.4545
  141bbb     C5 4073   1.706   6.175   9.254 -0.2028  0.1653 -0.2058
  141bbb     H9 4074   1.707   6.092   9.326 -2.1731 -1.6784 -2.1257
  141bbb    H10 4075   1.750   6.139   9.161 -0.5455 -1.0660  0.0853
  141bbb     C6 4076   2.124   6.081   9.330  0.3391 -0.6665  0.5776
  141bbb    H11 4077   2.131   5.984   9.381 -0.9147 -1.3120 -0.4086
  141bbb    H12 4078   2.194   6.152   9.374  0.4708 -1.1967  1.2420
  141bbb     C7 4079   2.143   6.582   9.300  0.0593  0.8223  0.0384
  141bbb    H13 4080   2.190   6.574   9.398 -2.7703  1.0513  1.5161
  141bbb    H14 4081   2.132   6.688   9.276  1.7932  1.0132 -0.0178
  141bbb     C8 4082   2.168   6.068   9.179  0.1285  0.2668  0.2665
  141bbb    H15 4083   2.269   6.027   9.177  0.0184 -0.1533  1.9563
  141bbb    H16 4084   2.159   6.167   9.132 -2.6853  0.3960  0.8608
  141bbb     C9 4085   1.564   6.219   9.216 -0.2375 -0.8555 -0.4635
  141bbb    H17 4086   1.569   6.298   9.140 -0.1456 -0.9274 -0.5333
  141bbb    H18 4087   1.516   6.267   9.302  1.9586  1.2718 -0.3379
  141bbb     O1 4088   2.239   6.533   9.211 -0.7146 -0.2131  0.4341
  142bbb     N1 4089   1.999   7.542   8.972 -0.1345 -0.3931 -0.0607
  142bbb     C1 4090   2.092   7.588   8.869 -0.1145 -0.1368  0.0967
  142bbb     H1 4091   2.038   7.601   8.774 -1.4192  0.5441  0.8892
  142bbb     H2 4092   2.163   7.509   8.844  0.6585 -0.0081  1.7855
  142bbb     C2 4093   1.872   7.622   8.970 -0.4146  0.1875  0.1768
  142bbb     H3 4094   1.828   7.612   8.870  2.4842  3.2683 -1.6378
  142bbb     H4 4095   1.894   7.728   8.992  0.3179 -0.0651  0.7243
  142bbb     C3 4096   2.053   7.504   9.110  0.5796  1.3172  0.5866
  142bbb     H5 4097   1.976   7.471   9.181  0.1871 -0.5994 -0.6607
  142bbb     H6 4098   2.095   7.591   9.162  1.1386  0.4048  1.7336
  142bbb     C4 4099   2.153   7.390   9.097 -0.5423  0.3874 -0.3008
  142bbb     H7 4100   2.241   7.435   9.050 -1.0773 -0.2974 -2.0266
  142bbb     H8 4101   2.111   7.306   9.040  0.8446 -2.1574  2.1499
  142bbb     C5 4102   2.189   7.716   8.901  0.7179 -0.6157 -0.4658
  142bbb     H9 4103   2.267   7.697   8.975  0.9552  1.5621 -0.0851
  142bbb    H10 4104   2.126   7.788   8.956 -1.1740 -2.0143 -0.6960
  142bbb     C6 4105   1.762   7.570   9.072 -0.2745  0.0975  0.0404
  142bbb    H11 4106   1.798   7.583   9.174  0.1517  3.6608 -0.4497
  142bbb    H12 4107   1.737   7.464   9.058 -1.9959  0.6700 -1.7135
  142bbb     C7 4108   2.192   7.333   9.236  0.5897 -0.7399  0.0651
  142bbb    H13 4109   2.107   7.281   9.281 -0.9197 -0.9116 -2.8022
  142bbb    H14 4110   2.228   7.410   9.306  2.3947 -0.6109 -0.9251
  142bbb     C8 4111   1.617   7.633   9.060  0.0008 -0.0923  0.7144
  142bbb    H15 4112   1.554   7.593   9.140 -2.3013  2.4154  0.3315
  142bbb    H16 4113   1.568   7.604   8.966 -0.0386 -1.5273  1.1654
  142bbb     C9 4114   2.248   7.782   8.777 -0.0306  0.2212 -0.0040
  142bbb    H17 4115   2.208   7.748   8.680  3.2652  0.7464 -1.6915
  142bbb    H18 4116   2.352   7.752   8.757 -0.9604 -3.1986 -0.3985
  142bbb     O1 4117   2.298   7.239   9.208  0.3316  0.1736 -0.0137
  143bbb     N1 4118   2.575   4.538   7.486  0.2613 -0.0920  0.8248
  143bbb     C1 4119   2.608   4.480   7.621  0.4209 -0.2605  0.2904
  143bbb     H1 4120   2.717   4.487   7.630  0.7471 -1.5209 -1.8553
  143bbb     H2 4121   2.568   4.378   7.618 -1.9331  0.6417 -1.4916
  143bbb     C2 4122   2.590   4.449   7.372 -0.4627  0.4588 -0.2824
  143bbb     H3 4123   2.696   4.422   7.367 -0.2856  1.1896 -0.5185
  143bbb     H4 4124   2.563   4.498   7.278 -0.9772  0.0871 -0.3385
  143bbb     C3 4125   2.631   4.672   7.460  0.6130 -0.0243 -0.0351
  143bbb     H5 4126   2.618   4.733   7.551  2.9955 -1.5558  1.4532
  143bbb     H6 4127   2.565   4.717   7.386  0.7547  3.4685  1.7688
  143bbb     C4 4128   2.776   4.675   7.401  0.3699  1.1746  0.5034
  143bbb     H7 4129   2.771   4.633   7.300 -0.4299  2.8382 -0.1860
  143bbb     H8 4130   2.841   4.611   7.462  1.7690  0.8551 -1.2277
  143bbb     C5 4131   2.535   4.548   7.739 -0.2275  0.0412  0.5851
  143bbb     H9 4132   2.438   4.589   7.709  1.5435  2.8207 -1.8687
  143bbb    H10 4133   2.585   4.642   7.765  1.1761 -1.0195  1.8818
  143bbb     C6 4134   2.513   4.312   7.376  0.2258 -0.4680 -0.0083
  143bbb    H11 4135   2.418   4.332   7.427  0.3131  0.9756 -0.3564
  143bbb    H12 4136   2.561   4.242   7.446 -0.2734  1.0629  1.9744
  143bbb     C7 4137   2.832   4.816   7.384  0.2985  0.3422  0.4426
  143bbb    H13 4138   2.827   4.870   7.479  0.1485 -1.1292  1.2930
  143bbb    H14 4139   2.782   4.871   7.303  1.9095 -0.0675 -0.8951
  143bbb     C8 4140   2.501   4.262   7.232 -0.2864 -0.1861 -0.1197
  143bbb    H15 4141   2.448   4.338   7.174  0.0083  1.0146  1.1607
  143bbb    H16 4142   2.444   4.168   7.236 -0.8327  0.1803  0.7136
  143bbb     C9 4143   2.510   4.455   7.868 -0.0448 -0.1169  0.4834
  143bbb    H17 4144   2.440   4.374   7.844 -0.8237  0.0277  2.1077
  143bbb    H18 4145   2.467   4.513   7.950 -1.3520  0.1316 -0.3653
  143bbb     O1 4146   2.963   4.805   7.340 -0.3300 -0.7423 -0.4435
  144bbb     N1 4147   2.954   5.766   7.176  1.0896  0.0491 -0.2507
  144bbb     C1 4148   2.954   5.889   7.092  0.2431  0.2973  0.2984
  144bbb     H1 4149   2.858   5.909   7.042  0.6573 -0.2463 -0.7510
  144bbb     H2 4150   3.019   5.885   7.004  0.4633  0.9941  0.4216
  144bbb     C2 4151   2.858   5.762   7.290  0.8757 -0.1181 -0.5404
  144bbb     H3 4152   2.883   5.846   7.356 -2.7822  1.1435 -0.5031
  144bbb     H4 4153   2.876   5.670   7.347 -1.1603 -0.6887 -0.7319
  144bbb     C3 4154   3.083   5.709   7.221  0.6234 -0.3933  0.1849
  144bbb     H5 4155   3.052   5.623   7.282 -4.4067  2.0251  1.5706
  144bbb     H6 4156   3.126   5.777   7.295 -0.8048  1.2380 -0.4306
  144bbb     C4 4157   3.196   5.676   7.115 -0.2598  0.3294 -0.0888
  144bbb     H7 4158   3.216   5.764   7.052  2.0829  0.5001  0.8058
  144bbb     H8 4159   3.178   5.590   7.049 -1.1998  1.2676 -1.1019
  144bbb     C5 4160   3.016   6.010   7.167  0.1278 -0.0016 -0.7231
  144bbb     H9 4161   3.116   5.986   7.206  0.8904  2.0672 -1.2781
  144bbb    H10 4162   2.953   6.038   7.253  0.3742  0.6338 -0.7469
  144bbb     C6 4163   2.712   5.777   7.243 -0.0483  0.2932 -0.0176
  144bbb    H11 4164   2.688   5.697   7.172 -2.2652  0.0122  0.9592
  144bbb    H12 4165   2.700   5.873   7.192 -0.2923  0.8791  1.1058
  144bbb     C7 4166   3.332   5.650   7.181 -0.7070  0.1348  0.1314
  144bbb    H13 4167   3.365   5.728   7.251  1.5356  0.2121 -0.9109
  144bbb    H14 4168   3.408   5.633   7.103  0.2782  0.1745  1.0496
  144bbb     C8 4169   2.613   5.746   7.361 -0.3436  0.5397 -0.0860
  144bbb    H15 4170   2.643   5.663   7.427 -1.1229  1.3578  1.3514
  144bbb    H16 4171   2.514   5.719   7.324 -0.3389 -0.1987  0.4163
  144bbb     C9 4172   3.022   6.137   7.069 -0.8871 -0.2136 -0.7009
  144bbb    H17 4173   3.093   6.110   6.990  1.6054  1.5296  0.8250
  144bbb    H18 4174   3.071   6.219   7.123 -0.1756 -2.1999  1.8258
  144bbb     O1 4175   3.320   5.521   7.251 -0.5608  0.0428  0.1285
  145bbb     N1 4176   5.431   4.291   6.948 -0.0719 -0.2405 -0.4650
  145bbb     C1 4177   5.572   4.239   6.930 -0.5719  0.6566  0.0896
  145bbb     H1 4178   5.615   4.229   7.030  1.8806 -0.0059 -0.9530
  145bbb     H2 4179   5.644   4.309   6.885  1.5964 -1.8433 -0.5804
  145bbb     C2 4180   5.434   4.433   6.999 -0.0009  0.5832 -0.1120
  145bbb     H3 4181   5.351   4.489   6.955  0.4084  1.5079  0.2776
  145bbb     H4 4182   5.521   4.486   6.958  0.1811  0.7808  0.5206
  145bbb     C3 4183   5.327   4.196   6.985 -0.3217 -0.2168 -0.4711
  145bbb     H5 4184   5.345   4.165   7.089  1.8353  0.3096 -0.6383
  145bbb     H6 4185   5.351   4.106   6.928  0.9814 -0.2842  0.1463
  145bbb     C4 4186   5.182   4.248   6.943  0.0849 -0.0460  0.1588
  145bbb     H7 4187   5.173   4.254   6.834 -3.2580 -1.5868  0.2397
  145bbb     H8 4188   5.176   4.353   6.974 -3.5773  0.1965 -0.8841
  145bbb     C5 4189   5.595   4.101   6.856  0.7994 -0.3462 -0.4969
  145bbb     H9 4190   5.568   4.014   6.918  1.6164 -0.7154 -0.6390
  145bbb    H10 4191   5.705   4.095   6.854  0.8030 -2.5947  1.4419
  145bbb     C6 4192   5.425   4.430   7.155  0.1276 -0.2352 -0.3003
  145bbb    H11 4193   5.494   4.352   7.187  2.5090  1.5909 -0.6724
  145bbb    H12 4194   5.323   4.401   7.182 -0.4961  1.0148 -1.1992
  145bbb     C7 4195   5.068   4.162   7.002  0.3518  0.3684 -0.0465
  145bbb    H13 4196   5.061   4.179   7.110  0.1001  0.1797 -0.0319
  145bbb    H14 4197   5.067   4.058   6.968 -0.2661  1.1627 -2.7936
  145bbb     C8 4198   5.443   4.581   7.206 -0.5821  0.1103  0.2439
  145bbb    H15 4199   5.366   4.648   7.167  0.3441  0.5658 -0.8689
  145bbb    H16 4200   5.537   4.623   7.170 -0.6353  0.4979  0.5497
  145bbb     C9 4201   5.533   4.105   6.714  0.4355 -0.2218  0.3238
  145bbb    H17 4202   5.569   4.201   6.675 -1.9225  1.3508  1.7492
  145bbb    H18 4203   5.425   4.104   6.732  0.9344 -2.5795  4.3743
  145bbb     O1 4204   4.944   4.223   6.962 -0.3942  0.2413  0.7072
  146bbb     N1 4205   4.496   4.934   7.652  0.8021  0.1727 -0.6066
  146bbb     C1 4206   4.474   5.072   7.696 -0.2896  0.3123  0.1017
  146bbb     H1 4207   4.567   5.125   7.671  0.4211 -0.6230  0.6706
  146bbb     H2 4208   4.473   5.074   7.805 -0.7436 -1.8816  0.1887
  146bbb     C2 4209   4.382   4.850   7.693  0.3899 -0.0679  0.1633
  146bbb     H3 4210   4.379   4.754   7.639  0.9600 -0.0097  0.0292
  146bbb     H4 4211   4.287   4.900   7.670 -0.6774 -0.5424  3.0301
  146bbb     C3 4212   4.530   4.916   7.507  0.2678 -0.0246 -0.1887
  146bbb     H5 4213   4.594   4.996   7.467 -0.8161 -0.0220 -2.0260
  146bbb     H6 4214   4.438   4.932   7.450 -0.2514  2.4697  1.1893
  146bbb     C4 4215   4.598   4.789   7.456 -0.3167 -0.8546  0.0170
  146bbb     H7 4216   4.533   4.702   7.476 -3.5472  0.9669 -1.8231
  146bbb     H8 4217   4.696   4.784   7.505  1.0851  1.2703 -2.3724
  146bbb     C5 4218   4.344   5.140   7.644  0.1932 -0.4003  0.1078
  146bbb     H9 4219   4.260   5.098   7.701  0.6990 -2.2797 -0.4579
  146bbb    H10 4220   4.335   5.107   7.540  1.5338 -0.6781  0.0639
  146bbb     C6 4221   4.372   4.834   7.846  0.4629  0.3523 -0.3699
  146bbb    H11 4222   4.302   4.754   7.874  0.1920  0.6494 -0.1878
  146bbb    H12 4223   4.335   4.927   7.891  0.2532  0.3017 -0.4371
  146bbb     C7 4224   4.637   4.790   7.312  0.1198  0.0603  0.0939
  146bbb    H13 4225   4.715   4.714   7.297 -1.9268 -2.2663  0.5948
  146bbb    H14 4226   4.662   4.892   7.281  0.8329 -0.2286 -0.3062
  146bbb     C8 4227   4.502   4.815   7.929 -0.3555  0.2173  0.2325
  146bbb    H15 4228   4.579   4.876   7.880 -1.3324  2.2292  1.0865
  146bbb    H16 4229   4.531   4.709   7.928 -0.2779  0.1080  3.6341
  146bbb     C9 4230   4.351   5.291   7.661 -0.2034 -0.2727  0.5258
  146bbb    H17 4231   4.255   5.328   7.623 -1.2467  0.4131  3.5689
  146bbb    H18 4232   4.434   5.343   7.611 -1.5126  0.2440 -1.1936
  146bbb     O1 4233   4.526   4.757   7.229  0.7360  0.3878 -0.0567
  147bbb     N1 4234   5.231   6.132   6.350 -0.3873  0.1119 -0.6407
  147bbb     C1 4235   5.160   6.258   6.345 -0.7683 -1.0349 -0.0196
  147bbb     H1 4236   5.224   6.325   6.405  2.1899 -2.0835 -1.7900
  147bbb     H2 4237   5.057   6.250   6.381 -1.2290  1.9742 -0.4246
  147bbb     C2 4238   5.190   6.028   6.243 -0.0988 -0.9515 -0.0966
  147bbb     H3 4239   5.254   5.939   6.251  2.8438  1.0346  0.2353
  147bbb     H4 4240   5.199   6.070   6.142 -2.2716 -0.3404 -0.0862
  147bbb     C3 4241   5.240   6.077   6.488 -0.7090  0.1656  0.0701
  147bbb     H5 4242   5.142   6.051   6.530  0.0376 -2.2671  0.4636
  147bbb     H6 4243   5.275   6.155   6.557  5.2613  0.3898 -2.5335
  147bbb     C4 4244   5.329   5.948   6.503 -0.7040 -0.4644  0.0408
  147bbb     H7 4245   5.284   5.855   6.466  0.5638 -0.5600 -1.3431
  147bbb     H8 4246   5.334   5.928   6.611 -0.4494  1.7212  0.4929
  147bbb     C5 4247   5.168   6.334   6.207 -0.5564 -0.2005 -0.2794
  147bbb     H9 4248   5.085   6.302   6.142 -3.0072  1.2409  1.9206
  147bbb    H10 4249   5.264   6.328   6.154  0.5154  1.3701  1.3609
  147bbb     C6 4250   5.041   5.991   6.254 -0.2053  0.9528 -0.3569
  147bbb    H11 4251   4.971   6.070   6.224 -0.9151  0.5047  0.0898
  147bbb    H12 4252   5.023   5.980   6.362 -1.4827  1.9649 -0.4409
  147bbb     C7 4253   5.469   5.968   6.431  0.2308 -0.4539  0.0074
  147bbb    H13 4254   5.492   6.075   6.439  2.0752 -0.7186 -1.0088
  147bbb    H14 4255   5.466   5.954   6.322  1.7125  3.4289 -0.7054
  147bbb     C8 4256   5.002   5.862   6.199 -0.7879 -0.0873  0.3154
  147bbb    H15 4257   4.901   5.834   6.230  0.0815 -1.3856  2.1824
  147bbb    H16 4258   5.071   5.785   6.235 -0.2059  0.1312 -0.3145
  147bbb     C9 4259   5.137   6.484   6.223  0.0132 -0.0371 -0.6297
  147bbb    H17 4260   5.043   6.503   6.276  0.1620  0.6927 -0.6170
  147bbb    H18 4261   5.131   6.533   6.125  0.4054 -0.1709 -0.7238
  147bbb     O1 4262   5.575   5.890   6.487  0.6800 -0.0286  0.7169
  148bbb     N1 4263   6.687   5.917   6.088 -0.0153  0.0303  0.8279
  148bbb     C1 4264   6.702   5.847   5.951  0.1791 -0.1608 -0.6055
  148bbb     H1 4265   6.727   5.743   5.976  2.0311  0.5144  0.5934
  148bbb     H2 4266   6.801   5.882   5.922 -0.1462  2.2761  0.9678
  148bbb     C2 4267   6.689   6.066   6.081 -0.5924 -0.9130 -0.2273
  148bbb     H3 4268   6.669   6.105   6.181 -2.3136 -0.9773 -0.5118
  148bbb     H4 4269   6.609   6.105   6.016  2.1139  0.6982 -2.8588
  148bbb     C3 4270   6.592   5.855   6.192  0.1176  0.2333 -0.1683
  148bbb     H5 4271   6.490   5.876   6.156 -0.3075 -1.5938 -0.1300
  148bbb     H6 4272   6.614   5.920   6.278 -0.1221  0.0431  0.0377
  148bbb     C4 4273   6.601   5.705   6.213 -0.1478  0.1620  0.3087
  148bbb     H7 4274   6.706   5.674   6.220 -0.6078 -1.4178  0.7883
  148bbb     H8 4275   6.573   5.654   6.120  1.1992  2.0298 -1.2024
  148bbb     C5 4276   6.587   5.868   5.850 -0.3965  0.3882 -0.5587
  148bbb     H9 4277   6.576   5.977   5.839 -1.0221  0.6339  1.9130
  148bbb    H10 4278   6.501   5.832   5.908  1.1911  0.1112  1.7624
  148bbb     C6 4279   6.823   6.122   6.017 -0.6674 -0.4422  0.6702
  148bbb    H11 4280   6.836   6.096   5.911 -2.6726  1.6556 -0.1826
  148bbb    H12 4281   6.910   6.087   6.073  0.9553 -0.5671 -1.7715
  148bbb     C7 4282   6.525   5.660   6.339 -0.1227  0.0914  0.0324
  148bbb    H13 4283   6.554   5.718   6.428  0.4392 -3.0479  2.0452
  148bbb    H14 4284   6.549   5.557   6.367 -1.9213 -0.3611  0.0227
  148bbb     C8 4285   6.845   6.276   6.042  0.1384 -0.4747  0.1196
  148bbb    H15 4286   6.952   6.299   6.042 -0.4352  3.4863  4.3353
  148bbb    H16 4287   6.824   6.308   6.145  1.2595  3.1936 -0.6428
  148bbb     C9 4288   6.606   5.787   5.711  0.3246 -0.5317 -0.2240
  148bbb    H17 4289   6.705   5.820   5.678  0.4167  0.6813  1.1722
  148bbb    H18 4290   6.537   5.817   5.631  2.3478  0.0720 -1.8349
  148bbb     O1 4291   6.385   5.668   6.315 -0.6510 -0.4134  0.3906
  149bbb     N1 4292   5.592   5.812   6.001  0.7496  0.1418  0.0176
  149bbb     C1 4293   5.613   5.702   5.901 -0.0140  0.4590 -1.0259
  149bbb     H1 4294   5.558   5.716   5.807  0.7329  0.4289 -1.4766
  149bbb     H2 4295   5.571   5.610   5.945  0.9092  0.0091 -1.0574
  149bbb     C2 4296   5.668   5.936   5.962 -0.6411 -0.1063 -0.0026
  149bbb     H3 4297   5.776   5.923   5.945 -0.7003  1.6097 -2.1051
  149bbb     H4 4298   5.647   6.003   6.046 -4.7391 -1.5676  0.3286
  149bbb     C3 4299   5.453   5.837   6.044 -0.2985  0.2102 -0.3519
  149bbb     H5 4300   5.393   5.875   5.960  0.5081  0.2606 -0.9104
  149bbb     H6 4301   5.449   5.902   6.132 -1.6067  1.4607 -1.2884
  149bbb     C4 4302   5.376   5.711   6.096  0.4127  0.1444 -0.2601
  149bbb     H7 4303   5.367   5.639   6.014 -1.5435 -1.2044  1.0438
  149bbb     H8 4304   5.274   5.748   6.111  0.2816  0.0131 -0.7797
  149bbb     C5 4305   5.759   5.667   5.888 -0.5014 -0.0749  0.5177
  149bbb     H9 4306   5.813   5.680   5.982  2.0727 -1.1508 -0.6936
  149bbb    H10 4307   5.801   5.744   5.821 -1.2907  0.7382  0.9405
  149bbb     C6 4308   5.618   6.011   5.836 -0.0569  0.6549 -0.0170
  149bbb    H11 4309   5.515   6.038   5.862 -0.8145 -2.2434  0.4296
  149bbb    H12 4310   5.619   5.940   5.752 -0.8979  0.8968 -0.2345
  149bbb     C7 4311   5.417   5.659   6.229 -0.3095  0.4625 -0.1080
  149bbb    H13 4312   5.430   5.738   6.304 -0.6469 -1.5822  2.2265
  149bbb    H14 4313   5.515   5.612   6.217 -0.4364  0.1557  0.0576
  149bbb     C8 4314   5.697   6.134   5.807  0.4993 -0.5420  0.3227
  149bbb    H15 4315   5.802   6.106   5.788 -0.2211 -1.4080 -3.0638
  149bbb    H16 4316   5.694   6.193   5.899 -0.7034 -1.0475  0.6172
  149bbb     C9 4317   5.794   5.524   5.844 -0.1787 -0.1725  0.1574
  149bbb    H17 4318   5.767   5.453   5.923  0.8238 -1.1053 -0.2955
  149bbb    H18 4319   5.904   5.515   5.837 -0.1804  0.8575 -1.8320
  149bbb     O1 4320   5.318   5.566   6.272 -0.4448  0.1429  0.4782
  150bbb     N1 4321   5.118   4.811   6.101 -0.0190 -0.1218 -0.0435
  150bbb     C1 4322   5.186   4.689   6.142  0.2794  0.6512  0.8103
  150bbb     H1 4323   5.280   4.675   6.087  1.1350  0.7437  2.2099
  150bbb     H2 4324   5.133   4.597   6.114  0.0365  0.4617  1.8497
  150bbb     C2 4325   5.083   4.816   5.955 -0.4575  0.3635  0.0479
  150bbb     H3 4326   5.169   4.784   5.895 -1.0572  0.9627 -1.1707
  150bbb     H4 4327   5.068   4.922   5.930  1.5729  0.4384 -1.0688
  150bbb     C3 4328   5.024   4.873   6.201 -0.8621  0.2072 -0.1843
  150bbb     H5 4329   5.064   4.872   6.303 -0.6276  0.0972 -0.2768
  150bbb     H6 4330   4.929   4.819   6.206 -0.4094 -0.6060 -0.1988
  150bbb     C4 4331   4.993   5.028   6.177  0.0464 -0.0224 -0.0629
  150bbb     H7 4332   4.929   5.040   6.089 -0.0877 -0.2002  0.0115
  150bbb     H8 4333   5.087   5.085   6.175  1.3167 -2.0208 -1.4605
  150bbb     C5 4334   5.234   4.673   6.284 -0.3203 -0.0470  0.0517
  150bbb     H9 4335   5.277   4.574   6.304 -1.6223 -0.7186 -0.3853
  150bbb    H10 4336   5.144   4.684   6.346  0.1553 -1.4675  1.0402
  150bbb     C6 4337   4.946   4.734   5.925  0.8228 -0.1450 -0.5835
  150bbb    H11 4338   4.904   4.684   6.013  1.5133 -0.5054 -0.4501
  150bbb    H12 4339   4.962   4.646   5.861  0.8918 -0.4712 -0.1233
  150bbb     C7 4340   4.907   5.075   6.300  0.4151  0.0919 -1.0184
  150bbb    H13 4341   4.973   5.077   6.388 -2.5601 -2.3888  1.4650
  150bbb    H14 4342   4.814   5.017   6.303 -0.0311  0.7798 -1.2830
  150bbb     C8 4343   4.837   4.827   5.867 -0.3788 -0.2792  0.2778
  150bbb    H15 4344   4.780   4.887   5.939  0.0297 -0.7218  0.9862
  150bbb    H16 4345   4.770   4.748   5.831  1.3670 -1.0281 -1.5559
  150bbb     C9 4346   5.344   4.779   6.316 -0.2326 -0.7889  0.0169
  150bbb    H17 4347   5.351   4.800   6.423 -2.4458 -1.3968  0.3291
  150bbb    H18 4348   5.318   4.871   6.261  0.6301 -0.4865  0.1060
  150bbb     O1 4349   4.868   5.214   6.278 -0.0020  0.1195  0.0440
  151bbb     N1 4350   3.095   6.250   4.721  0.1602 -0.1960 -0.4461
  151bbb     C1 4351   3.170   6.370   4.682 -0.4422 -0.4283 -0.4864
  151bbb     H1 4352   3.167   6.387   4.573  1.4004 -1.0437 -0.6742
  151bbb     H2 4353   3.275   6.366   4.712 -0.0690  2.9196 -0.9649
  151bbb     C2 4354   2.962   6.248   4.666 -0.5893 -0.5622  0.1437
  151bbb     H3 4355   2.978   6.209   4.565  0.7031  0.0759  0.0739
  151bbb     H4 4356   2.925   6.350   4.654 -1.2537 -0.5170  2.2078
  151bbb     C3 4357   3.172   6.113   4.722  0.1548  0.0799  0.7856
  151bbb     H5 4358   3.098   6.033   4.724 -0.0798  0.3101  1.2073
  151bbb     H6 4359   3.250   6.110   4.799  0.1937 -1.5070  0.7082
  151bbb     C4 4360   3.241   6.080   4.593  0.4180  1.1509 -0.4977
  151bbb     H7 4361   3.313   6.160   4.576 -2.3929  3.8376 -0.6217
  151bbb     H8 4362   3.163   6.090   4.517 -2.0910 -1.2773  1.5206
  151bbb     C5 4363   3.128   6.488   4.775  0.3901 -0.1878  0.1232
  151bbb     H9 4364   3.162   6.462   4.875  2.2760  0.5370 -0.2870
  151bbb    H10 4365   3.020   6.507   4.783  0.5376  0.5735  0.4787
  151bbb     C6 4366   2.853   6.174   4.749 -0.2982  0.1750 -0.5831
  151bbb    H11 4367   2.879   6.069   4.765  1.2570  0.5309 -0.5269
  151bbb    H12 4368   2.760   6.182   4.693 -2.0886  1.4750  2.3117
  151bbb     C7 4369   3.300   5.928   4.584 -0.2573 -0.9327  0.4368
  151bbb    H13 4370   3.340   5.903   4.485 -0.4031 -0.0320  0.1428
  151bbb    H14 4371   3.233   5.852   4.626  0.1738 -1.4291  0.2333
  151bbb     C8 4372   2.837   6.226   4.890 -0.1510 -0.3210  0.1730
  151bbb    H15 4373   2.834   6.335   4.888  1.4988 -0.2649 -1.0124
  151bbb    H16 4374   2.924   6.204   4.953 -0.7191 -2.1993  0.3750
  151bbb     C9 4375   3.184   6.626   4.736 -0.1388  0.0345  0.1075
  151bbb    H17 4376   3.293   6.636   4.723 -0.2835  2.9675  0.4024
  151bbb    H18 4377   3.165   6.688   4.824 -0.7310  1.0289 -0.6959
  151bbb     O1 4378   3.420   5.944   4.669 -0.1901  0.4106 -0.0496
  152bbb     N1 4379   4.011   5.140   4.917  0.4514  0.7874  0.1782
  152bbb     C1 4380   4.054   5.193   4.788 -0.1831  0.2071 -0.5026
  152bbb     H1 4381   4.121   5.279   4.795  0.6690 -0.5456  1.8876
  152bbb     H2 4382   3.963   5.224   4.736 -0.7605 -1.7656 -0.7587
  152bbb     C2 4383   3.932   5.010   4.907  0.0134 -0.1167  0.1141
  152bbb     H3 4384   3.912   4.986   5.012 -0.2423  1.3959  0.4338
  152bbb     H4 4385   3.990   4.937   4.848  2.2280  0.2804  1.6949
  152bbb     C3 4386   3.938   5.243   5.002 -0.0630 -0.4110  0.4740
  152bbb     H5 4387   3.913   5.200   5.100  0.1253  0.2844  0.8355
  152bbb     H6 4388   3.848   5.284   4.954  2.5371  1.4191 -3.3193
  152bbb     C4 4389   4.019   5.367   5.040 -0.2219 -0.8161  0.7486
  152bbb     H7 4390   4.013   5.433   4.953  1.2657 -0.7317  0.6893
  152bbb     H8 4391   4.127   5.348   5.047  0.1575  1.2274  0.9341
  152bbb     C5 4392   4.131   5.083   4.702  0.5527 -0.3756  0.3809
  152bbb     H9 4393   4.164   5.137   4.612 -1.2521  1.8167  0.9492
  152bbb    H10 4394   4.063   5.008   4.659  0.7845 -0.2244 -0.2587
  152bbb     C6 4395   3.790   5.007   4.839 -0.7878  0.8935 -0.5113
  152bbb    H11 4396   3.811   5.030   4.733  2.5264  1.6411  0.1848
  152bbb    H12 4397   3.729   5.093   4.868 -1.1277  1.0549 -1.6553
  152bbb     C7 4398   3.970   5.429   5.169  0.0672 -0.5760 -0.5575
  152bbb    H13 4399   4.018   5.525   5.190 -2.3439  1.2803 -2.8718
  152bbb    H14 4400   3.994   5.365   5.255  0.9530 -1.0304 -1.1257
  152bbb     C8 4401   3.710   4.872   4.863 -0.2757 -0.2207 -0.8811
  152bbb    H15 4402   3.748   4.783   4.811 -0.8572 -2.1992  1.8785
  152bbb    H16 4403   3.607   4.888   4.827 -0.2349 -1.0280 -1.3803
  152bbb     C9 4404   4.268   5.029   4.765  0.4517 -0.4775  0.1311
  152bbb    H17 4405   4.240   4.991   4.865 -1.7303  2.6065  0.8332
  152bbb    H18 4406   4.321   5.124   4.778 -1.8095  0.9903 -0.6616
  152bbb     O1 4407   3.831   5.444   5.167  0.0580  0.7280  0.9651
  153bbb     N1 4408   3.648   6.402   4.900 -0.3306 -0.0750 -0.1732
  153bbb     C1 4409   3.692   6.455   4.772 -0.1227 -0.2037  0.1350
  153bbb     H1 4410   3.791   6.416   4.743  0.0463  1.0578 -1.0788
  153bbb     H2 4411   3.694   6.565   4.771 -2.1517 -0.1114 -2.0436
  153bbb     C2 4412   3.758   6.377   4.997 -0.4988 -0.4303 -0.1950
  153bbb     H3 4413   3.709   6.339   5.087 -0.3683 -1.0454 -0.3807
  153bbb     H4 4414   3.809   6.470   5.027 -0.1940 -0.7862  0.4130
  153bbb     C3 4415   3.538   6.475   4.966 -0.2282 -0.7442  0.3291
  153bbb     H5 4416   3.464   6.511   4.893  0.2042  1.5698  0.9516
  153bbb     H6 4417   3.579   6.568   5.007 -1.0666  0.0037 -0.4902
  153bbb     C4 4418   3.451   6.407   5.074  0.9446  0.6337 -0.5656
  153bbb     H7 4419   3.371   6.478   5.097 -0.3606 -0.5836 -1.2280
  153bbb     H8 4420   3.504   6.401   5.170 -0.2141 -1.0523  0.0138
  153bbb     C5 4421   3.597   6.423   4.668  0.5192 -0.4124 -0.2702
  153bbb     H9 4422   3.632   6.476   4.578 -1.1900  0.5285 -0.4248
  153bbb    H10 4423   3.498   6.462   4.695 -0.6240 -2.6920 -0.8867
  153bbb     C6 4424   3.868   6.287   4.952 -0.5957  0.5620 -0.9763
  153bbb    H11 4425   3.924   6.346   4.878 -1.2761  2.6017  0.0560
  153bbb    H12 4426   3.819   6.198   4.911 -1.9221 -0.1039  1.8062
  153bbb     C7 4427   3.389   6.273   5.037 -0.2822 -0.2741  0.1998
  153bbb    H13 4428   3.459   6.194   5.064  0.1349  0.2284  0.5848
  153bbb    H14 4429   3.357   6.267   4.932 -0.2746 -1.7706  0.2714
  153bbb     C8 4430   3.962   6.232   5.063 -0.2982 -0.0473 -0.4432
  153bbb    H15 4431   3.897   6.168   5.124 -0.9552 -0.1169 -1.1793
  153bbb    H16 4432   4.007   6.307   5.128 -0.7111 -0.7041  0.6340
  153bbb     C9 4433   3.582   6.268   4.639 -0.5654  0.4697  1.1221
  153bbb    H17 4434   3.495   6.222   4.687 -2.9001  0.5901 -2.6468
  153bbb    H18 4435   3.668   6.215   4.683 -0.5244 -1.1580 -0.8043
  153bbb     O1 4436   3.273   6.249   5.116 -0.1592 -0.5104 -0.2306
  154bbb     N1 4437   2.746   5.865   4.430  1.0067 -0.3497 -0.5122
  154bbb     C1 4438   2.661   5.742   4.400  0.1934 -0.2665  0.0706
  154bbb     H1 4439   2.573   5.785   4.351 -0.8154  0.0873  2.0670
  154bbb     H2 4440   2.627   5.700   4.496 -2.1568  2.9416  0.8250
  154bbb     C2 4441   2.756   5.956   4.313 -1.1977  0.2240  0.2246
  154bbb     H3 4442   2.657   5.968   4.268 -1.5997 -1.3943  0.6103
  154bbb     H4 4443   2.821   5.902   4.243  0.3600  1.3084  0.7578
  154bbb     C3 4444   2.883   5.831   4.492  0.0640  0.2586 -0.3573
  154bbb     H5 4445   2.928   5.927   4.521 -0.5822  0.1227  1.1849
  154bbb     H6 4446   2.942   5.769   4.423 -0.5043 -0.5426 -0.1357
  154bbb     C4 4447   2.868   5.745   4.621 -0.7883 -0.1370  0.6673
  154bbb     H7 4448   2.824   5.647   4.596  2.4827 -1.1770 -1.7710
  154bbb     H8 4449   2.800   5.799   4.688 -0.2566  0.2572  0.8973
  154bbb     C5 4450   2.732   5.646   4.297  0.5520 -0.0371 -0.0127
  154bbb     H9 4451   2.817   5.600   4.348 -0.4445 -1.0355  0.8140
  154bbb    H10 4452   2.759   5.698   4.204  1.6152 -0.5457 -0.0015
  154bbb     C6 4453   2.814   6.097   4.337 -0.4897 -0.6796  0.5085
  154bbb    H11 4454   2.910   6.084   4.389  0.2818 -0.5604 -0.8133
  154bbb    H12 4455   2.750   6.135   4.416 -1.0331 -2.2800  0.8830
  154bbb     C7 4456   3.009   5.729   4.686 -0.3357 -0.4115 -0.3569
  154bbb    H13 4457   3.047   5.830   4.706  0.6675 -1.0499  1.1698
  154bbb    H14 4458   3.077   5.689   4.610 -1.0831  0.1162 -1.3278
  154bbb     C8 4459   2.828   6.188   4.210  0.3831 -1.2364 -0.6055
  154bbb    H15 4460   2.886   6.280   4.227  0.8146 -1.0934 -2.5315
  154bbb    H16 4461   2.724   6.215   4.191  0.1722 -0.6146  1.2663
  154bbb     C9 4462   2.631   5.534   4.264  0.0226  0.3781  0.0107
  154bbb    H17 4463   2.528   5.573   4.269  0.3212  1.0772  1.1501
  154bbb    H18 4464   2.632   5.455   4.340  0.0599 -0.9397 -1.3242
  154bbb     O1 4465   3.011   5.655   4.809 -0.5969  0.1435 -0.5214
  155bbb     N1 4466   3.343   4.864   4.350  0.0798  0.1274  0.0122
  155bbb     C1 4467   3.371   4.724   4.317  0.6065 -0.6351 -0.0541
  155bbb     H1 4468   3.399   4.674   4.411  1.3831  0.8083  0.5264
  155bbb     H2 4469   3.464   4.718   4.260  0.1865 -1.0631 -0.7045
  155bbb     C2 4470   3.229   4.884   4.450  0.8067 -0.2678 -0.6110
  155bbb     H3 4471   3.229   4.812   4.532  0.3120  1.2146  0.7412
  155bbb     H4 4472   3.132   4.873   4.399 -0.7130 -1.7738  2.3673
  155bbb     C3 4473   3.324   4.954   4.230 -0.2001 -0.1178 -0.3044
  155bbb     H5 4474   3.322   5.059   4.260 -1.8023 -1.0399  3.4610
  155bbb     H6 4475   3.224   4.935   4.189  0.3653  0.0806 -1.8198
  155bbb     C4 4476   3.441   4.951   4.127  0.2201  0.0133  0.2708
  155bbb     H7 4477   3.436   4.856   4.072  0.3638  0.6184 -0.8130
  155bbb     H8 4478   3.527   4.966   4.192 -0.7132  0.3440  1.4688
  155bbb     C5 4479   3.245   4.653   4.252 -0.2891 -0.0783 -0.6997
  155bbb     H9 4480   3.222   4.701   4.156  1.1223  0.4812 -0.7728
  155bbb    H10 4481   3.149   4.659   4.304 -0.5818 -2.3116 -0.8687
  155bbb     C6 4482   3.241   5.024   4.510 -0.2174 -0.2223 -0.0805
  155bbb    H11 4483   3.210   5.102   4.439  1.8435  1.1607  0.4419
  155bbb    H12 4484   3.344   5.051   4.536 -1.0590  1.5201  1.6685
  155bbb     C7 4485   3.425   5.056   4.013 -0.0603 -0.5501  0.2795
  155bbb    H13 4486   3.318   5.050   3.989 -0.3154 -1.8065  1.6047
  155bbb    H14 4487   3.488   5.021   3.931 -1.1755 -1.4084 -0.2441
  155bbb     C8 4488   3.158   5.050   4.639 -0.5996 -0.5888 -0.4850
  155bbb    H15 4489   3.059   5.071   4.597 -0.1687 -0.8223 -1.6389
  155bbb    H16 4490   3.187   5.138   4.698  0.9304 -1.7289  0.5659
  155bbb     C9 4491   3.267   4.500   4.235  0.4432  0.2499  0.2923
  155bbb    H17 4492   3.168   4.462   4.205  0.6627 -0.3976  0.3537
  155bbb    H18 4493   3.292   4.455   4.332  1.2371 -1.8600 -0.8158
  155bbb     O1 4494   3.457   5.193   4.065 -0.5029  0.1057 -0.9530
  156bbb     N1 4495   3.260   6.459   4.274  0.1700 -0.0429 -0.1567
  156bbb     C1 4496   3.394   6.488   4.328  0.0077  0.5874 -0.1838
  156bbb     H1 4497   3.439   6.397   4.370  0.1918 -0.3249 -2.2562
  156bbb     H2 4498   3.377   6.556   4.412  1.6729  0.8707 -0.0447
  156bbb     C2 4499   3.182   6.578   4.236 -0.2523 -0.0074  0.0564
  156bbb     H3 4500   3.213   6.607   4.135  2.1589 -2.7549 -0.1174
  156bbb     H4 4501   3.203   6.662   4.304 -0.7574 -1.7051  2.4346
  156bbb     C3 4502   3.256   6.338   4.176 -0.0734  0.4747  0.2499
  156bbb     H5 4503   3.348   6.347   4.118 -1.2801  2.5723 -1.5266
  156bbb     H6 4504   3.169   6.351   4.109  0.2022 -0.3541 -0.2851
  156bbb     C4 4505   3.240   6.202   4.244 -0.2164 -0.0184 -0.0124
  156bbb     H7 4506   3.153   6.211   4.310 -1.3579 -1.3034 -1.2656
  156bbb     H8 4507   3.330   6.189   4.304  0.0270 -4.0074 -0.9928
  156bbb     C5 4508   3.484   6.568   4.228 -0.4385  0.2943  0.2758
  156bbb     H9 4509   3.434   6.664   4.209 -3.1277 -1.1596 -0.4894
  156bbb    H10 4510   3.474   6.510   4.136 -0.5730 -2.0800  1.7048
  156bbb     C6 4511   3.030   6.571   4.227 -0.7948 -0.5063  0.0674
  156bbb    H11 4512   3.005   6.508   4.140 -0.3023  0.6521 -0.9384
  156bbb    H12 4513   2.982   6.664   4.194 -2.0370 -1.1557 -0.0321
  156bbb     C7 4514   3.234   6.085   4.141  0.0902 -0.0554  0.5070
  156bbb    H13 4515   3.325   6.093   4.081 -1.4322 -1.7002 -2.2230
  156bbb    H14 4516   3.143   6.092   4.079  0.8534  2.6009 -0.4785
  156bbb     C8 4517   2.967   6.514   4.353 -0.6472  0.0279  0.4700
  156bbb    H15 4518   2.980   6.581   4.439 -1.5353 -1.4746  1.8346
  156bbb    H16 4519   3.017   6.419   4.376  1.7645  0.7844 -1.2001
  156bbb     C9 4520   3.636   6.588   4.268  0.3120 -0.7294  0.3270
  156bbb    H17 4521   3.688   6.638   4.185  1.3260 -0.1056  1.3008
  156bbb    H18 4522   3.679   6.488   4.277 -1.0475 -1.4540 -0.8655
  156bbb     O1 4523   3.238   5.966   4.207 -0.2132  0.2244  0.3221
  157bbb     N1 4524   2.841   4.952   4.160 -0.1549 -0.3653 -0.5758
  157bbb     C1 4525   2.863   4.999   4.017 -0.0690 -0.1546 -0.0233
  157bbb     H1 4526   2.823   5.100   4.001 -0.2015  0.0113  1.2540
  157bbb     H2 4527   2.808   4.937   3.945 -0.9720  0.7464 -0.1411
  157bbb     C2 4528   2.843   4.806   4.187 -0.4600  0.5248 -0.0776
  157bbb     H3 4529   2.806   4.784   4.288  0.9231  1.8931  0.7791
  157bbb     H4 4530   2.947   4.770   4.195 -0.6274  0.3890  2.5805
  157bbb     C3 4531   2.906   5.033   4.265  0.1846 -0.1650 -0.2725
  157bbb     H5 4532   3.015   5.018   4.261  0.2990 -0.5923  2.5315
  157bbb     H6 4533   2.865   5.005   4.363  0.5269  1.3252  0.3117
  157bbb     C4 4534   2.887   5.185   4.246 -0.8097 -0.3303  0.2469
  157bbb     H7 4535   2.780   5.206   4.231 -0.8501  2.5606  3.3311
  157bbb     H8 4536   2.926   5.226   4.152 -1.7967 -0.1585 -0.0982
  157bbb     C5 4537   3.006   5.014   3.969  0.4292  0.2926 -0.7831
  157bbb     H9 4538   3.060   4.919   3.970  2.3407  1.3294 -0.7397
  157bbb    H10 4539   3.053   5.084   4.040 -2.5538  0.3061  1.3764
  157bbb     C6 4540   2.759   4.718   4.087  0.2440 -0.5862 -0.3987
  157bbb    H11 4541   2.758   4.612   4.116  0.8128 -0.2213  1.0437
  157bbb    H12 4542   2.818   4.721   3.995  1.2372 -1.2583  0.1927
  157bbb     C7 4543   2.950   5.268   4.358 -0.3183 -0.8010  0.1928
  157bbb    H13 4544   2.951   5.370   4.316  1.0874  0.3776  2.8457
  157bbb    H14 4545   3.052   5.237   4.382 -0.3643  0.3052  2.0033
  157bbb     C8 4546   2.611   4.759   4.065 -0.6017  0.5343  0.0883
  157bbb    H15 4547   2.604   4.855   4.012  1.4310 -0.8332 -2.9183
  157bbb    H16 4548   2.570   4.765   4.166 -0.1745  0.7644  0.2501
  157bbb     C9 4549   3.013   5.068   3.825  0.2451  0.1429 -0.5031
  157bbb    H17 4550   2.996   5.177   3.824  1.3265  0.3316 -1.3708
  157bbb    H18 4551   2.936   5.012   3.773  1.7551 -1.7263 -0.8218
  157bbb     O1 4552   2.866   5.240   4.471 -0.5557 -0.6158  0.0780
  158bbb     N1 4553   2.571   5.818   5.553 -0.0464 -0.2133 -0.0742
  158bbb     C1 4554   2.530   5.712   5.652  0.2449  0.3096  0.1791
  158bbb     H1 4555   2.473   5.628   5.609 -0.2249 -0.4367  2.1782
  158bbb     H2 4556   2.463   5.759   5.724 -1.0486 -1.8163  0.4425
  158bbb     C2 4557   2.650   5.936   5.607  0.0660 -0.1149 -0.1296
  158bbb     H3 4558   2.712   5.915   5.696 -1.4865  0.9408  1.2639
  158bbb     H4 4559   2.578   6.004   5.654  0.3496  0.6808 -0.8289
  158bbb     C3 4560   2.462   5.853   5.454 -0.3529 -0.8060 -0.3111
  158bbb     H5 4561   2.477   5.943   5.393 -1.5287  0.6857  1.4972
  158bbb     H6 4562   2.367   5.856   5.508 -0.3493 -0.8112 -0.3049
  158bbb     C4 4563   2.445   5.749   5.339  0.2254  0.2159 -0.0780
  158bbb     H7 4564   2.396   5.792   5.250  1.7623  1.2210 -0.4861
  158bbb     H8 4565   2.371   5.676   5.372 -0.2122  1.4531  1.8301
  158bbb     C5 4566   2.653   5.654   5.734  0.2124 -0.1145 -0.2742
  158bbb     H9 4567   2.617   5.567   5.790  0.4921 -1.5526 -2.2337
  158bbb    H10 4568   2.707   5.729   5.794  1.1919 -0.0213 -1.2555
  158bbb     C6 4569   2.744   6.000   5.499  0.4332 -0.2810  0.2674
  158bbb    H11 4570   2.682   6.041   5.418  1.1551 -2.5483 -1.5613
  158bbb    H12 4571   2.815   5.938   5.442  0.4940 -0.0511  0.0912
  158bbb     C7 4572   2.575   5.688   5.298  0.1225  0.6976  0.3647
  158bbb    H13 4573   2.623   5.637   5.382 -0.2291 -1.1458 -0.5003
  158bbb    H14 4574   2.645   5.766   5.264 -0.0036  0.4205 -0.5768
  158bbb     C8 4575   2.825   6.115   5.556 -0.0723 -0.2052  0.1243
  158bbb    H15 4576   2.888   6.073   5.635  0.5731 -2.1145 -1.3142
  158bbb    H16 4577   2.754   6.188   5.596 -0.7217 -0.2585 -0.8910
  158bbb     C9 4578   2.763   5.596   5.650 -0.2354  0.2943  0.3940
  158bbb    H17 4579   2.844   5.557   5.713  0.0454  0.4346  0.1205
  158bbb    H18 4580   2.813   5.679   5.599 -0.3655 -0.4739 -1.0146
  158bbb     O1 4581   2.546   5.591   5.186 -0.2366 -0.3979  0.4898
  159bbb     N1 4582   8.305   4.762  10.058  0.0459  0.2255  0.3041
  159bbb     C1 4583   8.438   4.810  10.010  0.0860 -0.8727  0.2736
  159bbb     H1 4584   8.520   4.752  10.054 -0.1488 -0.1148  1.7578
  159bbb     H2 4585   8.460   4.914  10.036  2.3340 -1.3120  0.3118
  159bbb     C2 4586   8.298   4.764  10.204 -0.6362  0.3650 -0.3760
  159bbb     H3 4587   8.296   4.870  10.233  2.3163  0.5058 -0.3548
  159bbb     H4 4588   8.392   4.722  10.243 -0.8377 -0.4471 -0.7545
  159bbb     C3 4589   8.189   4.818   9.989  0.3982  0.5213  0.7367
  159bbb     H5 4590   8.226   4.885   9.911  1.5120 -2.5512 -1.5465
  159bbb     H6 4591   8.131   4.872  10.066  1.6350  2.1990  0.5379
  159bbb     C4 4592   8.113   4.709   9.911  0.3260 -0.3480 -0.3991
  159bbb     H7 4593   8.061   4.636   9.973 -2.9144  0.5751 -1.8127
  159bbb     H8 4594   8.180   4.671   9.833  0.0185  1.0467 -1.3784
  159bbb     C5 4595   8.468   4.795   9.854 -0.3579 -0.7041  0.0200
  159bbb     H9 4596   8.392   4.725   9.819 -0.6982  0.1332 -0.9610
  159bbb    H10 4597   8.566   4.748   9.841  0.7152  1.6323 -0.9568
  159bbb     C6 4598   8.176   4.693  10.261 -0.4677  0.1877 -0.2852
  159bbb    H11 4599   8.192   4.586  10.245  1.7922  0.1429  1.7184
  159bbb    H12 4600   8.074   4.719  10.232 -0.3175  0.0142 -1.0120
  159bbb     C7 4601   7.997   4.765   9.827  0.1801  0.1126  0.4253
  159bbb    H13 4602   7.960   4.691   9.755  0.2162 -0.1085  0.6336
  159bbb    H14 4603   8.022   4.859   9.776 -0.5525  0.9386  1.5455
  159bbb     C8 4604   8.177   4.703  10.414 -0.5017  0.0626  0.0255
  159bbb    H15 4605   8.275   4.666  10.449  0.4276  0.7407 -1.7257
  159bbb    H16 4606   8.093   4.642  10.450  0.2540 -0.4365  1.0135
  159bbb     C9 4607   8.449   4.923   9.769 -0.2138 -0.4257  0.1045
  159bbb    H17 4608   8.351   4.967   9.789  0.3390  1.1030 -0.3730
  159bbb    H18 4609   8.448   4.897   9.663  0.4174  1.6411 -0.4597
  159bbb     O1 4610   7.898   4.805   9.925 -0.0529 -0.5579 -0.0454
  160bbb     N1 4611   7.196   4.981   9.109  0.4322 -0.4471 -0.8189
  160bbb     C1 4612   7.078   4.979   9.015 -0.4964  0.0730 -0.4229
  160bbb     H1 4613   7.113   4.992   8.912 -0.1962 -0.1242 -0.3469
  160bbb     H2 4614   7.004   5.058   9.034 -0.2474  0.7530 -2.1083
  160bbb     C2 4615   7.284   5.098   9.071  0.7074 -0.2005  0.4865
  160bbb     H3 4616   7.235   5.191   9.103 -0.1580 -0.2177 -0.7324
  160bbb     H4 4617   7.306   5.114   8.965 -1.7110 -0.6107 -0.1403
  160bbb     C3 4618   7.160   4.961   9.260  0.3014  0.2051  0.7241
  160bbb     H5 4619   7.257   4.939   9.306  0.4897 -0.9690 -0.1942
  160bbb     H6 4620   7.100   4.871   9.276  1.5626 -0.6553  0.8161
  160bbb     C4 4621   7.097   5.082   9.322 -0.3901  0.3770  0.4146
  160bbb     H7 4622   6.998   5.079   9.276  0.8342 -2.5276 -2.3582
  160bbb     H8 4623   7.148   5.175   9.293 -0.4554  0.5592  0.8609
  160bbb     C5 4624   7.008   4.841   9.015 -0.7683  0.4845  0.0454
  160bbb     H9 4625   6.942   4.828   9.101  0.1086 -0.4020  0.6055
  160bbb    H10 4626   7.079   4.757   9.016 -0.4680  0.7192 -0.7300
  160bbb     C6 4627   7.414   5.091   9.152 -0.5272 -0.1728 -0.2201
  160bbb    H11 4628   7.431   4.987   9.179 -0.6352 -0.4573 -1.2090
  160bbb    H12 4629   7.408   5.142   9.249 -0.3398 -1.3992  0.4539
  160bbb     C7 4630   7.085   5.087   9.478 -0.8027  0.0572 -0.4448
  160bbb    H13 4631   7.017   5.012   9.519 -0.3411  0.2845  0.7780
  160bbb    H14 4632   7.046   5.183   9.514 -0.2321  0.9269 -2.0416
  160bbb     C8 4633   7.535   5.151   9.086  0.4418 -0.4704  0.5744
  160bbb    H15 4634   7.558   5.089   8.999 -0.2806  1.8368 -1.3783
  160bbb    H16 4635   7.616   5.162   9.159  1.0279 -2.7338  0.3242
  160bbb     C9 4636   6.917   4.811   8.890  0.4741  0.2526  0.4177
  160bbb    H17 4637   6.966   4.866   8.808  1.2094  1.6672  1.7630
  160bbb    H18 4638   6.812   4.840   8.908 -0.3736 -2.0463 -0.4981
  160bbb     O1 4639   7.219   5.081   9.538 -0.0657  0.5595  0.4377
  161bbb     N1 4640   8.619   4.968  10.482  0.5147  0.3194 -0.2469
  161bbb     C1 4641   8.606   4.966  10.632 -0.2207  0.2525  0.4025
  161bbb     H1 4642   8.636   4.867  10.667  0.5391  1.2102  2.6826
  161bbb     H2 4643   8.501   4.982  10.658 -0.9602 -1.6235 -1.1757
  161bbb     C2 4644   8.579   4.837  10.420  0.1814 -0.0092  0.8569
  161bbb     H3 4645   8.611   4.849  10.316 -0.7269  2.7186  0.8218
  161bbb     H4 4646   8.473   4.808  10.418 -0.3332  1.7295 -1.6907
  161bbb     C3 4647   8.557   5.086  10.413  0.5779  0.1765 -0.5721
  161bbb     H5 4648   8.591   5.179  10.459 -0.2659 -0.0781  0.6090
  161bbb     H6 4649   8.449   5.091  10.431  0.0531 -1.1945 -2.9699
  161bbb     C4 4650   8.580   5.084  10.263 -0.2518 -0.2226 -0.1573
  161bbb     H7 4651   8.517   5.007  10.217  0.8966 -1.3285  0.0810
  161bbb     H8 4652   8.685   5.059  10.244 -0.4396 -0.8700 -0.3752
  161bbb     C5 4653   8.681   5.090  10.703  0.0220  0.2364 -0.1409
  161bbb     H9 4654   8.624   5.180  10.677  1.3283  0.8779 -0.8836
  161bbb    H10 4655   8.776   5.115  10.654 -0.1201  0.9167 -0.0698
  161bbb     C6 4656   8.665   4.714  10.448  0.0509  0.2983  0.7624
  161bbb    H11 4657   8.676   4.692  10.555 -1.3991 -0.7817  0.7245
  161bbb    H12 4658   8.770   4.730  10.421 -0.3381  1.6356 -0.0661
  161bbb     C7 4659   8.548   5.221  10.197 -0.2641 -0.1810 -0.5334
  161bbb    H13 4660   8.558   5.212  10.088  2.1970  0.3518 -0.4266
  161bbb    H14 4661   8.623   5.290  10.238 -2.2620  1.3024  0.8075
  161bbb     C8 4662   8.622   4.588  10.366  0.4099 -0.2941 -0.2572
  161bbb    H15 4663   8.519   4.553  10.378  0.3439  0.3154  1.1360
  161bbb    H16 4664   8.630   4.622  10.262  0.3133 -1.6168 -0.7087
  161bbb     C9 4665   8.710   5.069  10.852  0.3252  0.4451 -0.0683
  161bbb    H17 4666   8.618   5.026  10.894 -2.1301  3.9538 -1.3860
  161bbb    H18 4667   8.720   5.168  10.899 -2.0343  0.7790 -0.1581
  161bbb     O1 4668   8.423   5.273  10.246 -0.4176  0.0159  0.1859
  162bbb     N1 4669   7.739   4.453  10.159 -0.0624 -0.3946  0.0655
  162bbb     C1 4670   7.863   4.482  10.082 -0.1171 -0.2745 -0.1786
  162bbb     H1 4671   7.928   4.550  10.139 -0.2326  0.2219 -0.6292
  162bbb     H2 4672   7.843   4.540   9.991  0.8522 -0.2297 -0.3729
  162bbb     C2 4673   7.653   4.347  10.096 -0.1312 -0.3051  0.4050
  162bbb     H3 4674   7.701   4.249  10.106  0.6404 -0.3625 -2.8108
  162bbb     H4 4675   7.655   4.376   9.990 -2.5208  0.2456  0.4478
  162bbb     C3 4676   7.736   4.437  10.309 -0.5584 -0.3875  0.5735
  162bbb     H5 4677   7.782   4.342  10.339 -0.8484 -1.4298 -2.0634
  162bbb     H6 4678   7.634   4.436  10.349 -1.4845  2.4534 -1.4653
  162bbb     C4 4679   7.817   4.544  10.383  0.6787 -0.0312 -0.3313
  162bbb     H7 4680   7.920   4.541  10.346  1.3454  0.5490  1.3856
  162bbb     H8 4681   7.827   4.517  10.489 -0.2694  1.1485  0.0863
  162bbb     C5 4682   7.948   4.359  10.028  0.8619 -0.5103  0.0536
  162bbb     H9 4683   8.045   4.395   9.992  0.5988 -0.0317 -0.1819
  162bbb    H10 4684   7.906   4.313   9.938  0.4362  0.8799 -0.4961
  162bbb     C6 4685   7.498   4.346  10.142 -0.7741 -0.7343 -0.2459
  162bbb    H11 4686   7.480   4.451  10.166  2.3545 -0.0850 -0.3605
  162bbb    H12 4687   7.490   4.300  10.241 -0.8036  2.7066  1.4897
  162bbb     C7 4688   7.764   4.689  10.370 -0.3214 -0.2850  0.3806
  162bbb    H13 4689   7.676   4.709  10.433 -0.1850  2.0365 -0.0676
  162bbb    H14 4690   7.755   4.714  10.263  0.6090 -1.3973  0.0165
  162bbb     C8 4691   7.399   4.293  10.037 -0.0907 -0.6979 -0.7894
  162bbb    H15 4692   7.396   4.372   9.960  0.5808  2.7020  2.3913
  162bbb    H16 4693   7.292   4.294  10.065 -0.8468  1.3275 -3.2950
  162bbb     C9 4694   7.982   4.255  10.139 -0.4741  0.5214  0.2461
  162bbb    H17 4695   7.907   4.224  10.212 -2.2403  0.0410 -1.6762
  162bbb    H18 4696   8.068   4.283  10.200  1.4256 -2.4695 -0.8293
  162bbb     O1 4697   7.876   4.770  10.416  0.4267 -0.3107 -0.2595
  163bbb     N1 4698   7.726   4.464   7.899 -0.4637 -0.0570 -0.0754
  163bbb     C1 4699   7.675   4.599   7.871 -0.1885 -0.4032 -1.1436
  163bbb     H1 4700   7.698   4.667   7.954 -0.8840 -1.4592 -0.0561
  163bbb     H2 4701   7.568   4.596   7.846 -0.2384 -0.4761 -0.9177
  163bbb     C2 4702   7.869   4.444   7.941  0.2394  0.4335  0.1644
  163bbb     H3 4703   7.892   4.476   8.043  3.0925  1.0216 -0.5691
  163bbb     H4 4704   7.934   4.517   7.890  1.7321  1.0995  2.8445
  163bbb     C3 4705   7.628   4.386   7.982 -0.4579  0.4964 -0.3208
  163bbb     H5 4706   7.663   4.283   7.992 -0.3454  0.7399  2.6980
  163bbb     H6 4707   7.531   4.375   7.931 -1.7223 -1.9693  2.2848
  163bbb     C4 4708   7.603   4.441   8.125  0.7738  0.2166  0.2705
  163bbb     H7 4709   7.573   4.546   8.125 -0.2003 -0.0493 -0.4710
  163bbb     H8 4710   7.701   4.423   8.171  1.5201 -0.7987 -1.5951
  163bbb     C5 4711   7.743   4.662   7.745  0.0662 -0.6106  0.0507
  163bbb     H9 4712   7.723   4.593   7.662  2.8472 -0.9013 -0.4913
  163bbb    H10 4713   7.851   4.675   7.757 -0.0211  0.2946 -0.0914
  163bbb     C6 4714   7.926   4.299   7.920 -0.0529 -0.4461 -0.0689
  163bbb    H11 4715   7.853   4.232   7.966  0.2496 -1.5215 -1.1276
  163bbb    H12 4716   8.021   4.286   7.972  1.5662 -0.2511 -2.7710
  163bbb     C7 4717   7.494   4.361   8.191  0.0783  0.1131 -0.2953
  163bbb    H13 4718   7.534   4.263   8.218 -1.6061 -0.7972 -0.9263
  163bbb    H14 4719   7.400   4.357   8.134 -1.1007  0.1844  1.5756
  163bbb     C8 4720   7.950   4.284   7.770 -0.1572 -0.0092 -0.2403
  163bbb    H15 4721   8.044   4.327   7.734  0.6138 -1.8393 -0.5409
  163bbb    H16 4722   7.870   4.335   7.716  0.2482 -1.3046 -2.1731
  163bbb     C9 4723   7.682   4.801   7.721 -0.3195 -0.8149  0.7494
  163bbb    H17 4724   7.711   4.869   7.802  0.2074  1.6079 -1.3405
  163bbb    H18 4725   7.574   4.818   7.713 -0.0994 -0.1506 -1.6056
  163bbb     O1 4726   7.470   4.439   8.309 -0.0625  0.8195 -0.2040
  164bbb     N1 4727   7.678   3.407   8.579  0.0740 -1.1849 -0.0408
  164bbb     C1 4728   7.722   3.491   8.699  0.3381  0.1577  0.5110
  164bbb     H1 4729   7.640   3.557   8.730  0.2395 -0.0276  0.6422
  164bbb     H2 4730   7.806   3.556   8.670 -0.7135  0.9375 -0.9633
  164bbb     C2 4731   7.781   3.317   8.528  0.5338 -0.2051 -0.2250
  164bbb     H3 4732   7.830   3.260   8.608  0.7830  1.1576  0.6201
  164bbb     H4 4733   7.852   3.387   8.482  3.0509 -2.3146  0.2072
  164bbb     C3 4734   7.604   3.481   8.466  0.0996 -0.5390  0.3702
  164bbb     H5 4735   7.539   3.410   8.414  0.3420  0.4711 -1.3952
  164bbb     H6 4736   7.673   3.522   8.392 -1.3901  1.8939  0.2225
  164bbb     C4 4737   7.511   3.603   8.504  0.3629  0.4396  0.5872
  164bbb     H7 4738   7.579   3.677   8.549 -1.6755  2.8407 -0.0279
  164bbb     H8 4739   7.434   3.560   8.569  0.8260 -1.8273 -0.2796
  164bbb     C5 4740   7.765   3.415   8.829  0.3840  0.3797  0.2877
  164bbb     H9 4741   7.870   3.387   8.810  0.6287  2.2845 -1.5405
  164bbb    H10 4742   7.709   3.322   8.843  0.6284  0.2570  0.4774
  164bbb     C6 4743   7.743   3.228   8.404 -0.3579  0.8375  0.1027
  164bbb    H11 4744   7.831   3.164   8.394 -0.6994  0.4308 -0.3625
  164bbb    H12 4745   7.716   3.297   8.323 -2.8517 -0.9222 -0.6868
  164bbb     C7 4746   7.452   3.665   8.374  0.5585 -0.2694 -0.2756
  164bbb    H13 4747   7.402   3.593   8.309  1.1993  1.3238 -2.6648
  164bbb    H14 4748   7.542   3.700   8.321  0.9780  0.8229  1.0720
  164bbb     C8 4749   7.616   3.143   8.432 -0.1958  0.1793  0.2044
  164bbb    H15 4750   7.523   3.201   8.439 -0.3224  0.1294 -0.8685
  164bbb    H16 4751   7.619   3.100   8.532  0.4346 -0.0238  0.1049
  164bbb     C9 4752   7.748   3.495   8.960  0.5894  0.4705 -0.5814
  164bbb    H17 4753   7.654   3.550   8.961  0.4440  0.2294  1.2922
  164bbb    H18 4754   7.834   3.564   8.971  0.3301  0.4373  2.5218
  164bbb     O1 4755   7.360   3.778   8.409  0.0565 -0.8187 -0.4367
  165bbb     N1 4756   7.911   4.870   8.228  0.0571  0.1587 -0.7324
  165bbb     C1 4757   8.014   4.800   8.143 -0.8550  0.1624  0.7846
  165bbb     H1 4758   7.990   4.696   8.120  0.7947  0.0038 -0.4056
  165bbb     H2 4759   8.107   4.796   8.203 -1.5219  1.1991  1.9458
  165bbb     C2 4760   7.789   4.915   8.151  0.2430  0.4060  0.6307
  165bbb     H3 4761   7.745   4.828   8.101  1.4074  0.0528  0.1726
  165bbb     H4 4762   7.809   4.980   8.066 -2.1788  1.9528  1.1529
  165bbb     C3 4763   7.878   4.792   8.354 -0.7089  0.3241  0.4319
  165bbb     H5 4764   7.822   4.701   8.330  2.2289 -1.0049 -2.1947
  165bbb     H6 4765   7.816   4.853   8.420 -1.1896  0.6123 -0.2805
  165bbb     C4 4766   8.005   4.741   8.440  0.3460 -0.7254  0.2243
  165bbb     H7 4767   8.075   4.826   8.440  0.4805 -0.7999 -1.2864
  165bbb     H8 4768   8.066   4.665   8.390  1.9074  0.1199  0.7660
  165bbb     C5 4769   8.038   4.865   7.999  0.3589  0.1944 -0.9736
  165bbb     H9 4770   8.044   4.973   8.015  0.5461 -0.1296  1.4390
  165bbb    H10 4771   7.947   4.846   7.940 -1.6441 -0.0871  2.0138
  165bbb     C6 4772   7.677   4.980   8.232 -0.0912  0.7935  0.2632
  165bbb    H11 4773   7.716   5.031   8.321 -0.7879  0.1776  0.9359
  165bbb    H12 4774   7.612   4.899   8.268  1.5268 -0.0677  1.3418
  165bbb     C7 4775   7.971   4.682   8.574 -0.3501  0.0917  0.3877
  165bbb    H13 4776   8.064   4.662   8.628  0.5785 -1.3417 -1.6075
  165bbb    H14 4777   7.927   4.582   8.558  0.2119 -0.0779 -0.1290
  165bbb     C8 4778   7.603   5.083   8.141  0.7410 -0.4362 -0.8920
  165bbb    H15 4779   7.666   5.168   8.113  0.6390 -0.3077 -0.7351
  165bbb    H16 4780   7.509   5.120   8.185  0.9181 -1.5671  0.5309
  165bbb     C9 4781   8.165   4.810   7.927 -0.3459 -0.2552 -0.6763
  165bbb    H17 4782   8.252   4.836   7.989 -1.2817  0.9611  0.1763
  165bbb    H18 4783   8.184   4.855   7.828  0.5493  0.5092 -0.1689
  165bbb     O1 4784   7.885   4.773   8.640  0.0960  0.5480 -0.5529
  166bbb     N1 4785   8.207   5.136   9.572  0.1802  0.5284 -0.7001
  166bbb     C1 4786   8.119   5.162   9.684 -0.6581  0.9601  0.0313
  166bbb     H1 4787   8.131   5.090   9.766  0.5567 -0.2968 -1.2112
  166bbb     H2 4788   8.015   5.158   9.649 -0.0827  0.2881 -1.7029
  166bbb     C2 4789   8.205   5.225   9.455  0.6421 -0.4134  0.5503
  166bbb     H3 4790   8.196   5.329   9.489  2.4636  0.0332 -0.2323
  166bbb     H4 4791   8.108   5.206   9.406  0.7225 -2.4758  1.0804
  166bbb     C3 4792   8.209   4.987   9.539  0.0363 -0.1359  0.6066
  166bbb     H5 4793   8.191   4.926   9.628  0.7227 -3.6949 -1.4980
  166bbb     H6 4794   8.302   4.954   9.490  0.2816  1.3021  0.0448
  166bbb     C4 4795   8.098   4.940   9.438 -0.1516 -0.2356 -0.3264
  166bbb     H7 4796   8.121   4.991   9.344 -1.1874  1.9752  0.5430
  166bbb     H8 4797   8.001   4.981   9.469 -0.3027 -0.7605 -0.1006
  166bbb     C5 4798   8.132   5.300   9.738  0.6665  0.4485 -0.6791
  166bbb     H9 4799   8.073   5.302   9.830 -1.5703  1.5029 -2.0680
  166bbb    H10 4800   8.090   5.375   9.671 -0.2017  0.2272 -0.3995
  166bbb     C6 4801   8.325   5.221   9.351  0.1309  0.1432 -0.3071
  166bbb    H11 4802   8.291   5.288   9.271  0.9754 -0.5663 -1.2815
  166bbb    H12 4803   8.338   5.122   9.306  0.4500 -0.1988  0.5160
  166bbb     C7 4804   8.100   4.789   9.420  0.5432 -0.0957 -0.2895
  166bbb    H13 4805   8.107   4.736   9.516  0.1549 -0.8057 -0.6476
  166bbb    H14 4806   8.189   4.759   9.363 -1.0092 -1.7103 -1.9834
  166bbb     C8 4807   8.458   5.265   9.409 -0.1657 -0.1474  0.3079
  166bbb    H15 4808   8.469   5.204   9.499 -0.5450 -0.1768  0.3354
  166bbb    H16 4809   8.436   5.369   9.439 -1.7197 -0.2683 -0.3102
  166bbb     C9 4810   8.279   5.335   9.767  0.1123 -0.2952 -0.5095
  166bbb    H17 4811   8.342   5.349   9.679  2.2885  1.6805  1.2218
  166bbb    H18 4812   8.314   5.261   9.839 -0.8363 -0.0559  0.2243
  166bbb     O1 4813   7.982   4.756   9.352 -0.2496  0.5770 -0.3194
  167bbb     N1 4814   6.170   7.111  11.048 -0.1168 -0.0878 -0.2579
  167bbb     C1 4815   6.259   6.989  11.068 -0.2225  0.1034  0.0538
  167bbb     H1 4816   6.242   6.936  11.163 -0.4722 -1.7475 -0.9858
  167bbb     H2 4817   6.361   7.029  11.077 -0.2383  0.1230  0.1512
  167bbb     C2 4818   6.162   7.211  11.163 -0.2941  0.1911 -0.2465
  167bbb     H3 4819   6.111   7.163  11.248 -1.9959  0.0395 -1.3138
  167bbb     H4 4820   6.110   7.303  11.134  2.3329  2.0947  0.7209
  167bbb     C3 4821   6.036   7.067  10.994 -0.1984  0.9405 -1.1464
  167bbb     H5 4822   6.032   6.988  10.918 -0.0421  0.7966 -1.0043
  167bbb     H6 4823   5.979   7.147  10.945 -1.6596  2.3230  2.4502
  167bbb     C4 4824   5.945   7.022  11.106 -0.2286 -0.1542  1.0139
  167bbb     H7 4825   5.898   7.107  11.158 -2.6364 -0.6266 -0.2240
  167bbb     H8 4826   6.003   6.962  11.177 -0.8605 -0.4603  1.2769
  167bbb     C5 4827   6.267   6.885  10.953  0.1885  0.8984  0.0507
  167bbb     H9 4828   6.175   6.825  10.954  0.0706  1.0830  0.3803
  167bbb    H10 4829   6.335   6.806  10.988 -0.0308  0.0211 -1.4420
  167bbb     C6 4830   6.303   7.253  11.214  0.5495 -0.4044 -0.1668
  167bbb    H11 4831   6.361   7.166  11.247 -0.2327 -0.3213  1.5057
  167bbb    H12 4832   6.303   7.328  11.294  1.9031 -0.0928 -0.4330
  167bbb     C7 4833   5.827   6.930  11.059  0.0653  0.4423 -0.0880
  167bbb    H13 4834   5.771   6.981  10.980 -0.1005  1.7640  0.8464
  167bbb    H14 4835   5.754   6.905  11.136 -1.7521  1.8654 -1.2739
  167bbb     C8 4836   6.384   7.335  11.105  0.7753 -0.9438 -0.2814
  167bbb    H15 4837   6.376   7.275  11.014 -2.5747 -0.5338 -0.3817
  167bbb    H16 4838   6.481   7.348  11.156 -0.4143  0.8487  1.7350
  167bbb     C9 4839   6.316   6.937  10.817  0.8427 -0.1876  0.0945
  167bbb    H17 4840   6.248   7.019  10.792  1.4041  0.6526  1.2299
  167bbb    H18 4841   6.312   6.860  10.739  0.2070  1.7898 -1.9568
  167bbb     O1 4842   5.876   6.810  10.999 -0.2400 -0.1848  1.0097
  168bbb     N1 4843   6.643   6.814  11.257 -0.0796 -0.1427  0.0524
  168bbb     C1 4844   6.610   6.956  11.276 -0.0643  0.1462 -0.7845
  168bbb     H1 4845   6.634   6.980  11.380 -0.8239 -1.7971 -0.1159
  168bbb     H2 4846   6.502   6.973  11.267 -0.0150  0.0611 -1.6309
  168bbb     C2 4847   6.613   6.731  11.383  0.5959 -0.1898 -0.0168
  168bbb     H3 4848   6.674   6.769  11.465  0.3143 -2.1936  1.2030
  168bbb     H4 4849   6.639   6.625  11.371 -1.2318 -0.7541  0.5889
  168bbb     C3 4850   6.578   6.753  11.134 -0.0692  0.5991 -0.2447
  168bbb     H5 4851   6.608   6.813  11.048 -0.8318 -0.1220 -1.0335
  168bbb     H6 4852   6.469   6.748  11.145  0.0019 -0.4097  0.1412
  168bbb     C4 4853   6.626   6.610  11.100 -0.4815 -0.6034 -0.2111
  168bbb     H7 4854   6.612   6.547  11.189 -1.3490  0.8953  0.7623
  168bbb     H8 4855   6.733   6.620  11.075 -0.3631 -1.7021 -0.1740
  168bbb     C5 4856   6.675   7.059  11.186 -0.6116 -0.6862  0.5066
  168bbb     H9 4857   6.657   7.163  11.217  0.5875  0.0187 -1.0012
  168bbb    H10 4858   6.624   7.060  11.089  1.3962 -0.8691 -0.6110
  168bbb     C6 4859   6.464   6.740  11.434  0.4439  0.1515  0.2863
  168bbb    H11 4860   6.405   6.666  11.378  2.1307 -1.9463  1.1454
  168bbb    H12 4861   6.413   6.835  11.413 -1.3708 -0.6427  0.8343
  168bbb     C7 4862   6.549   6.554  10.989 -0.4570  0.4588  0.3436
  168bbb    H13 4863   6.606   6.469  10.947 -2.4131 -0.4369 -0.6217
  168bbb    H14 4864   6.541   6.633  10.913 -1.8952 -1.0643 -1.1853
  168bbb     C8 4865   6.439   6.718  11.586  0.7229 -0.7923  0.5889
  168bbb    H15 4866   6.336   6.742  11.617  1.7594  0.5583  3.3730
  168bbb    H16 4867   6.496   6.801  11.631 -0.4042  0.8022 -0.7990
  168bbb     C9 4868   6.825   7.042  11.155 -0.2801  0.0150 -0.1866
  168bbb    H17 4869   6.859   7.129  11.099  0.1226  0.4800  0.7619
  168bbb    H18 4870   6.848   6.953  11.095  0.7673  0.4407 -0.4244
  168bbb     O1 4871   6.419   6.512  11.028  0.3436 -0.2143 -0.1402
  169bbb     N1 4872   4.938   5.709  11.337 -0.1118  0.2924  0.3826
  169bbb     C1 4873   5.019   5.656  11.454  0.2417  0.0618 -0.4932
  169bbb     H1 4874   4.977   5.560  11.486  1.9777 -0.8206 -0.7325
  169bbb     H2 4875   5.003   5.722  11.540 -0.5822 -1.0352  0.2278
  169bbb     C2 4876   4.794   5.683  11.355 -0.0323 -0.1280 -0.6089
  169bbb     H3 4877   4.737   5.738  11.279 -1.3522 -1.5195 -0.6800
  169bbb     H4 4878   4.757   5.709  11.456  1.1409  0.0705 -0.2124
  169bbb     C3 4879   4.966   5.850  11.305 -0.2526 -0.1459  0.2902
  169bbb     H5 4880   5.075   5.854  11.316 -0.2422 -2.8926  2.0871
  169bbb     H6 4881   4.928   5.922  11.379  2.0966  3.3792 -1.6694
  169bbb     C4 4882   4.934   5.894  11.158 -0.1071  0.6203  0.3918
  169bbb     H7 4883   4.825   5.897  11.142 -0.3867 -1.9334  1.3021
  169bbb     H8 4884   4.972   5.817  11.090  1.5492  1.2428  0.5678
  169bbb     C5 4885   5.173   5.639  11.417  0.0510 -0.5506  0.3129
  169bbb     H9 4886   5.215   5.741  11.416  2.1684 -1.3811  0.1371
  169bbb    H10 4887   5.188   5.591  11.320  0.3095 -0.3709  0.2626
  169bbb     C6 4888   4.757   5.537  11.324  0.4172  0.1766 -0.1396
  169bbb    H11 4889   4.766   5.481  11.418  0.7237  1.3563  0.5503
  169bbb    H12 4890   4.825   5.488  11.252  2.3978 -0.0096  1.7549
  169bbb     C7 4891   4.996   6.024  11.120 -0.0387 -0.0464 -0.3551
  169bbb    H13 4892   4.949   6.097  11.187  0.5691  0.2271 -0.2178
  169bbb    H14 4893   4.960   6.043  11.018 -0.1793 -0.8589 -0.4636
  169bbb     C8 4894   4.602   5.528  11.287 -0.1087 -0.0948  0.1332
  169bbb    H15 4895   4.581   5.587  11.197 -0.3978 -0.5513 -0.0980
  169bbb    H16 4896   4.543   5.581  11.364 -2.9331 -1.6477 -0.8193
  169bbb     C9 4897   5.249   5.561  11.524 -0.6510  0.4691  0.1191
  169bbb    H17 4898   5.215   5.457  11.530  0.9114 -0.0297  0.9325
  169bbb    H18 4899   5.217   5.593  11.624  0.8454 -2.1181  1.5234
  169bbb     O1 4900   5.141   6.023  11.135  0.0785  0.5186  0.2854
  170bbb     N1 4901   4.977   7.079  11.178 -0.2957  0.4136 -0.1038
  170bbb     C1 4902   5.006   7.195  11.084  0.2465 -0.1846 -0.0303
  170bbb     H1 4903   5.109   7.229  11.103 -0.1898  1.3620 -0.2574
  170bbb     H2 4904   4.940   7.282  11.096 -0.6227 -0.6703 -1.1459
  170bbb     C2 4905   4.984   7.115  11.322  0.5062  0.2995  0.4269
  170bbb     H3 4906   5.093   7.127  11.335  1.1667 -0.6328 -3.1603
  170bbb     H4 4907   4.961   7.030  11.388 -0.7839  0.2882 -0.0176
  170bbb     C3 4908   5.039   6.947  11.141  0.1345 -0.7017 -0.1276
  170bbb     H5 4909   5.011   6.921  11.038 -0.4848 -1.2253  0.1645
  170bbb     H6 4910   5.006   6.865  11.205 -0.1514  0.0237  0.6638
  170bbb     C4 4911   5.197   6.954  11.147  0.3325 -0.3416  0.5928
  170bbb     H7 4912   5.236   6.969  11.248 -0.0621 -0.0309  0.6984
  170bbb     H8 4913   5.240   7.038  11.091 -0.4842  0.8746  1.7514
  170bbb     C5 4914   5.008   7.155  10.935  0.4648  0.1848  0.1306
  170bbb     H9 4915   4.925   7.090  10.907  2.3499 -2.2304 -0.2280
  170bbb    H10 4916   5.089   7.088  10.904  1.0088  1.4549 -1.3765
  170bbb     C6 4917   4.913   7.249  11.376  0.3290  0.5165 -0.0189
  170bbb    H11 4918   4.805   7.238  11.357  0.4522 -2.0164  0.3984
  170bbb    H12 4919   4.953   7.336  11.323 -1.9810  1.4079 -0.4199
  170bbb     C7 4920   5.252   6.821  11.088  0.0020 -0.2488  0.3085
  170bbb    H13 4921   5.359   6.838  11.075 -0.1359  0.1066 -0.4122
  170bbb    H14 4922   5.204   6.804  10.990  0.6654 -1.0806  0.1207
  170bbb     C8 4923   4.945   7.271  11.522  0.4123  0.2733  0.5508
  170bbb    H15 4924   5.051   7.276  11.550  0.2957 -1.9402  1.6486
  170bbb    H16 4925   4.904   7.193  11.588 -3.2079 -0.2327 -2.0300
  170bbb     C9 4926   5.008   7.268  10.830 -0.4656  0.0032 -0.3357
  170bbb    H17 4927   4.911   7.319  10.825 -0.5638 -0.0296  0.8933
  170bbb    H18 4928   5.025   7.211  10.738  0.9593  0.2288 -0.2265
  170bbb     O1 4929   5.239   6.707  11.177 -0.1820  0.3866 -0.1909
  171bbb     N1 4930   4.997   4.073   9.283 -0.3242 -0.5223  0.6925
  171bbb     C1 4931   4.902   3.988   9.202  0.1971  0.5065  0.7251
  171bbb     H1 4932   4.839   4.050   9.137 -0.9326 -1.5265 -0.2301
  171bbb     H2 4933   4.844   3.927   9.272  0.0726  0.9230  0.9874
  171bbb     C2 4934   4.925   4.191   9.344  0.3341  0.7136 -0.3793
  171bbb     H3 4935   4.996   4.238   9.413  2.0404 -1.4841 -0.5403
  171bbb     H4 4936   4.848   4.148   9.409  0.2494  1.5801  0.1205
  171bbb     C3 4937   5.075   3.994   9.380  0.6797  0.2590 -0.5975
  171bbb     H5 4938   5.131   3.925   9.315 -0.4526  0.1806 -1.5300
  171bbb     H6 4939   5.005   3.930   9.434 -0.2823  0.7553 -1.2287
  171bbb     C4 4940   5.175   4.060   9.483 -0.1844  0.2434 -0.3902
  171bbb     H7 4941   5.134   4.141   9.544  2.9102  1.2302  0.5366
  171bbb     H8 4942   5.252   4.110   9.423 -0.6423  1.8153  0.3100
  171bbb     C5 4943   4.971   3.888   9.102  0.3660 -0.0981  0.2886
  171bbb     H9 4944   4.904   3.824   9.043  1.6679 -0.1244 -1.2196
  171bbb    H10 4945   5.034   3.819   9.160 -0.2851 -1.1005 -0.1698
  171bbb     C6 4946   4.857   4.298   9.257 -0.3331 -0.7716 -0.3243
  171bbb    H11 4947   4.759   4.258   9.229 -0.1103 -1.3790 -0.2569
  171bbb    H12 4948   4.921   4.306   9.168  0.7484 -1.2405  0.3838
  171bbb     C7 4949   5.245   3.957   9.582  0.3179 -0.7172  0.1209
  171bbb    H13 4950   5.321   4.014   9.636 -0.0073  1.5079 -1.6282
  171bbb    H14 4951   5.281   3.871   9.524  0.2932 -1.3894  1.0749
  171bbb     C8 4952   4.841   4.432   9.339 -0.5667 -0.1233  0.1729
  171bbb    H15 4953   4.923   4.437   9.412  0.5958  1.2679 -1.1712
  171bbb    H16 4954   4.750   4.422   9.401 -1.8762  1.9105 -1.3038
  171bbb     C9 4955   5.056   3.964   8.991  0.3563  0.5617  0.6644
  171bbb    H17 4956   5.139   4.009   9.047 -0.0146 -1.9308  3.5030
  171bbb    H18 4957   4.983   4.030   8.943 -0.9641 -1.9463 -0.9925
  171bbb     O1 4958   5.148   3.914   9.675 -0.0861 -0.0199  0.5725
  172bbb     N1 4959   4.357   3.223   9.747 -0.2874 -0.4642 -0.0993
  172bbb     C1 4960   4.387   3.265   9.605 -0.3896 -0.4720 -0.4451
  172bbb     H1 4961   4.364   3.371   9.595 -5.0229 -1.2750 -0.6004
  172bbb     H2 4962   4.326   3.202   9.539  1.4967 -2.2919 -0.5706
  172bbb     C2 4963   4.213   3.248   9.770  0.2324 -0.0691 -0.0509
  172bbb     H3 4964   4.195   3.356   9.781 -0.9786 -0.4324  2.0708
  172bbb     H4 4965   4.197   3.194   9.864 -3.2623 -0.1597 -0.5379
  172bbb     C3 4966   4.440   3.314   9.837 -0.0468  0.4961  0.4875
  172bbb     H5 4967   4.408   3.417   9.814  0.8858  0.9270  1.0627
  172bbb     H6 4968   4.548   3.303   9.823 -0.1144  0.7530 -0.2617
  172bbb     C4 4969   4.431   3.278   9.986 -0.8617 -0.5422 -0.0300
  172bbb     H7 4970   4.499   3.194  10.007 -1.6489 -0.7909  1.7151
  172bbb     H8 4971   4.327   3.257  10.015 -0.9212 -0.5139 -0.2254
  172bbb     C5 4972   4.535   3.241   9.556 -0.3572 -0.3914  0.0694
  172bbb     H9 4973   4.616   3.246   9.629  0.5554 -1.7887 -0.7915
  172bbb    H10 4974   4.550   3.316   9.478 -0.9972 -0.1854  0.1368
  172bbb     C6 4975   4.111   3.185   9.681  0.1680  0.5050 -0.8241
  172bbb    H11 4976   4.148   3.086   9.650 -0.1463  0.1255 -0.0203
  172bbb    H12 4977   4.101   3.252   9.595  0.3807  2.1693  0.3908
  172bbb     C7 4978   4.481   3.394  10.074  0.3386 -0.6887  0.4542
  172bbb    H13 4979   4.476   3.366  10.179 -0.4610 -1.2595  0.2686
  172bbb    H14 4980   4.410   3.476  10.057 -0.4832 -1.2413  1.1901
  172bbb     C8 4981   3.969   3.175   9.747 -0.1700 -0.1538  0.8373
  172bbb    H15 4982   3.964   3.117   9.840  0.8821 -0.3669  0.7786
  172bbb    H16 4983   3.899   3.134   9.672 -0.4016  0.7610  0.5389
  172bbb     C9 4984   4.544   3.102   9.489 -0.5206  0.7474 -0.3823
  172bbb    H17 4985   4.475   3.095   9.404 -0.5283 -0.8298 -0.2684
  172bbb    H18 4986   4.515   3.022   9.558  0.4689  0.1965 -0.5851
  172bbb     O1 4987   4.608   3.441  10.038 -0.8581 -0.0632 -0.4114
  173bbb     N1 4988   4.388   3.924  11.031  0.2848 -0.2326  0.1672
  173bbb     C1 4989   4.243   3.948  11.048  0.7635  0.6628  0.0982
  173bbb     H1 4990   4.226   4.047  11.005  1.6763  1.1610  0.8591
  173bbb     H2 4991   4.215   3.963  11.153  1.2389 -0.2933  0.3772
  173bbb     C2 4992   4.471   3.983  11.138  0.3462 -0.3911 -0.1207
  173bbb     H3 4993   4.429   4.082  11.161  2.0057 -0.1846  2.4380
  173bbb     H4 4994   4.575   3.980  11.106  0.4209  1.8835 -0.3040
  173bbb     C3 4995   4.431   3.932  10.888 -0.5470 -0.1804  0.4983
  173bbb     H5 4996   4.349   3.897  10.823  1.0537 -3.6982  0.1859
  173bbb     H6 4997   4.517   3.864  10.881 -0.0210  0.5614 -0.5366
  173bbb     C4 4998   4.486   4.069  10.838 -0.1033  0.0960 -0.1596
  173bbb     H7 4999   4.554   4.111  10.913 -0.5515  1.2522 -0.3839
  173bbb     H8 5000   4.401   4.137  10.840  0.1154  0.3924 -0.8456
  173bbb     C5 5001   4.142   3.836  10.999  0.0353  0.3637  0.2051
  173bbb     H9 5002   4.168   3.805  10.897  0.0877 -2.2283  0.9548
  173bbb    H10 5003   4.040   3.875  10.989 -0.6899 -0.9708  1.9660
  173bbb     C6 5004   4.456   3.920  11.277  0.0757  0.5590 -0.3198
  173bbb    H11 5005   4.359   3.945  11.323 -0.6140 -4.2945  1.4001
  173bbb    H12 5006   4.534   3.971  11.335 -0.3846 -1.1561  1.9576
  173bbb     C7 5007   4.559   4.063  10.701 -0.5615 -0.5317 -0.4149
  173bbb    H13 5008   4.626   3.977  10.716  0.1489  0.1619  0.5999
  173bbb    H14 5009   4.615   4.156  10.681  1.9303 -1.8773 -0.1281
  173bbb     C8 5010   4.481   3.768  11.292 -0.3535 -0.4702  0.1633
  173bbb    H15 5011   4.583   3.731  11.275  0.8495  1.0252  3.3414
  173bbb    H16 5012   4.405   3.715  11.234 -0.3614 -0.3498  0.0625
  173bbb     C9 5013   4.122   3.723  11.096  0.1396  0.2036  0.3150
  173bbb    H17 5014   4.083   3.766  11.189 -0.9687  0.6678 -0.3414
  173bbb    H18 5015   4.221   3.680  11.115  0.5716  0.8534 -0.4363
  173bbb     O1 5016   4.471   4.016  10.599 -0.4067  0.0910  0.6639
  174bbb     N1 5017   4.022   3.281  10.229  0.3886  0.2807 -0.3352
  174bbb     C1 5018   4.065   3.183  10.121 -0.0086 -0.2708 -0.6566
  174bbb     H1 5019   4.172   3.160  10.113  0.2457 -0.1578  1.7002
  174bbb     H2 5020   4.034   3.229  10.027 -1.7523  1.6266  0.7443
  174bbb     C2 5021   4.036   3.235  10.368 -0.1015 -0.4626  0.1124
  174bbb     H3 5022   3.973   3.147  10.389 -1.2172 -0.1397 -1.6473
  174bbb     H4 5023   3.994   3.306  10.440 -1.1052 -1.4813  0.5782
  174bbb     C3 5024   4.061   3.418  10.198  0.1770  0.2215 -0.9886
  174bbb     H5 5025   4.168   3.433  10.219  0.3966 -1.2840 -0.9625
  174bbb     H6 5026   4.008   3.485  10.267  0.3827 -0.9169  0.3156
  174bbb     C4 5027   4.015   3.467  10.058 -0.8516 -1.0409 -0.3025
  174bbb     H7 5028   3.921   3.427  10.019 -0.8303 -0.1472 -1.3087
  174bbb     H8 5029   4.089   3.439   9.982  2.9541  1.2586  2.2328
  174bbb     C5 5030   3.990   3.046  10.125  0.2041 -0.0137  0.0095
  174bbb     H9 5031   4.000   3.018  10.230 -2.2507  0.1611  0.3549
  174bbb    H10 5032   4.037   2.971  10.061 -1.7487  0.2578 -1.8656
  174bbb     C6 5033   4.187   3.215  10.404 -0.5890 -0.4180  0.3317
  174bbb    H11 5034   4.249   3.306  10.403  0.9849 -1.4474  0.2779
  174bbb    H12 5035   4.239   3.147  10.335  0.7436 -0.4419  1.3114
  174bbb     C7 5036   4.002   3.623  10.049  0.3376  0.7539  0.5912
  174bbb    H13 5037   3.921   3.645  10.120 -0.8023  0.0560 -0.4515
  174bbb    H14 5038   3.950   3.652   9.957 -0.0648  1.5230  1.0472
  174bbb     C8 5039   4.198   3.155  10.539  0.3758  0.1621  0.1880
  174bbb    H15 5040   4.302   3.124  10.555 -0.3997 -2.8125  0.0807
  174bbb    H16 5041   4.130   3.070  10.550 -1.6157  1.8325  1.4464
  174bbb     C9 5042   3.836   3.046  10.102  0.5643  0.2256 -0.4845
  174bbb    H17 5043   3.789   3.137  10.142  1.9668  0.2318  1.2484
  174bbb    H18 5044   3.797   2.965  10.164 -1.6043  0.4702 -1.4403
  174bbb     O1 5045   4.132   3.675  10.062 -0.2283 -0.1353 -0.0758
  175bbb     N1 5046   2.719   7.484   9.242  0.3994  0.6988 -0.5603
  175bbb     C1 5047   2.654   7.382   9.153  0.9356  0.3042  0.0593
  175bbb     H1 5048   2.572   7.326   9.202 -2.2484  1.7187 -3.1818
  175bbb     H2 5049   2.720   7.311   9.104 -0.8457 -0.2409 -1.6827
  175bbb     C2 5050   2.614   7.537   9.334 -0.3915  0.0491 -0.2758
  175bbb     H3 5051   2.511   7.541   9.295 -1.1858 -1.7228  1.4963
  175bbb     H4 5052   2.644   7.640   9.357  2.0689 -1.1573  2.5028
  175bbb     C3 5053   2.805   7.582   9.183 -0.3709 -0.5979  0.4589
  175bbb     H5 5054   2.845   7.650   9.259  0.4268  2.1534 -2.1907
  175bbb     H6 5055   2.750   7.654   9.121  1.4168  4.0304  3.7300
  175bbb     C4 5056   2.931   7.527   9.101  0.1648 -0.7183 -0.3892
  175bbb     H7 5057   2.993   7.606   9.057 -0.3986 -1.0783 -1.8933
  175bbb     H8 5058   2.901   7.479   9.007 -1.2249 -3.1062  1.1840
  175bbb     C5 5059   2.578   7.448   9.029 -0.0223 -0.9552 -0.3943
  175bbb     H9 5060   2.607   7.547   8.993 -1.2632 -0.7602 -0.9208
  175bbb    H10 5061   2.479   7.467   9.073 -0.3256 -1.5223 -0.8088
  175bbb     C6 5062   2.601   7.461   9.466 -0.1840  0.0360 -0.1195
  175bbb    H11 5063   2.700   7.439   9.508 -0.0443 -0.0501 -0.4864
  175bbb    H12 5064   2.556   7.361   9.462 -0.1231  0.0372 -1.0697
  175bbb     C7 5065   3.007   7.422   9.183 -0.2094  0.3731 -0.9300
  175bbb    H13 5066   2.936   7.341   9.204 -1.8763  2.0031 -0.0207
  175bbb    H14 5067   3.043   7.460   9.280 -0.2636  0.7330 -1.0521
  175bbb     C8 5068   2.523   7.535   9.579 -0.8267  0.1631  0.1694
  175bbb    H15 5069   2.552   7.641   9.577 -0.9640  0.2033  0.3375
  175bbb    H16 5070   2.552   7.491   9.675 -1.2767  0.2287  0.3343
  175bbb     C9 5071   2.537   7.341   8.921 -0.5767  0.4305  0.1190
  175bbb    H17 5072   2.456   7.276   8.957 -0.6680  0.7897  0.5780
  175bbb    H18 5073   2.629   7.285   8.900 -0.8621  0.2440 -0.6454
  175bbb     O1 5074   3.107   7.365   9.103 -0.4073 -0.1635 -0.3373
  176bbb     N1 5075   3.335   6.884   8.197  0.0292 -0.4596 -0.3284
  176bbb     C1 5076   3.478   6.927   8.177  0.0226 -0.0708 -0.1344
  176bbb     H1 5077   3.540   6.847   8.135  0.3926  0.9628 -1.6280
  176bbb     H2 5078   3.517   6.958   8.275  0.1251  0.8125 -0.4454
  176bbb     C2 5079   3.300   6.790   8.087  0.6622  0.0863  0.1030
  176bbb     H3 5080   3.380   6.717   8.069  1.9829  1.7743 -1.1598
  176bbb     H4 5081   3.310   6.848   7.995  0.3642  1.0569  0.6622
  176bbb     C3 5082   3.320   6.812   8.329  0.1810  0.8790  0.8979
  176bbb     H5 5083   3.406   6.745   8.342 -0.3172  0.4610  2.1719
  176bbb     H6 5084   3.232   6.747   8.331  0.3762  0.6218  1.2169
  176bbb     C4 5085   3.314   6.905   8.450 -0.1700 -0.0540 -0.6494
  176bbb     H7 5086   3.230   6.971   8.424 -2.0793 -2.1149 -0.0329
  176bbb     H8 5087   3.403   6.970   8.454  1.0262 -1.5653 -1.7160
  176bbb     C5 5088   3.467   7.057   8.089 -0.3197 -0.5087 -0.4381
  176bbb     H9 5089   3.415   7.135   8.146 -1.3371 -1.8351  0.5385
  176bbb    H10 5090   3.407   7.034   8.000 -0.6173 -1.5016  0.0018
  176bbb     C6 5091   3.155   6.736   8.081 -0.4212 -0.9029  1.5406
  176bbb    H11 5092   3.095   6.826   8.097 -0.5411 -1.3554  3.9542
  176bbb    H12 5093   3.138   6.671   8.168 -2.9426 -0.8721  1.1383
  176bbb     C7 5094   3.288   6.839   8.586  0.0043 -0.0858  0.3217
  176bbb    H13 5095   3.353   6.750   8.586  2.0451  1.3117 -0.4344
  176bbb    H14 5096   3.185   6.802   8.588  0.5641 -1.7844 -0.1228
  176bbb     C8 5097   3.105   6.674   7.945 -0.2872 -0.1676  0.0834
  176bbb    H15 5098   2.996   6.680   7.950 -0.4743 -2.2371 -0.7331
  176bbb    H16 5099   3.137   6.569   7.939 -0.8836 -0.4285  1.1922
  176bbb     C9 5100   3.614   7.108   8.052  0.5395 -0.0302  0.6374
  176bbb    H17 5101   3.676   7.079   8.138 -0.2462 -0.4320  1.0727
  176bbb    H18 5102   3.615   7.215   8.027  0.7150  0.0163  0.8396
  176bbb     O1 5103   3.335   6.931   8.686 -0.1083  0.7967  0.4652
  177bbb     N1 5104   4.120   6.821   8.090  0.2799  0.6110  0.8856
  177bbb     C1 5105   4.182   6.897   8.196  0.2036 -0.7630  0.6891
  177bbb     H1 5106   4.277   6.947   8.172  0.2024 -0.5123  1.1854
  177bbb     H2 5107   4.211   6.835   8.282 -0.8719  0.9499  2.3562
  177bbb     C2 5108   4.020   6.724   8.145 -0.3466 -0.5889  0.1796
  177bbb     H3 5109   3.941   6.790   8.183  1.1003  1.2867  0.0527
  177bbb     H4 5110   4.062   6.679   8.236  1.3155  0.8347  0.1538
  177bbb     C3 5111   4.222   6.754   8.001  0.2063 -0.4553  0.8459
  177bbb     H5 5112   4.173   6.697   7.921 -0.2638  1.9158 -0.6869
  177bbb     H6 5113   4.289   6.693   8.062  1.2326  3.0634  3.5706
  177bbb     C4 5114   4.310   6.852   7.931 -0.2939 -0.0417 -0.7811
  177bbb     H7 5115   4.384   6.793   7.875 -1.1036  0.0299 -1.9845
  177bbb     H8 5116   4.361   6.918   8.002 -0.0315 -0.2285 -0.7943
  177bbb     C5 5117   4.098   7.004   8.265 -0.4422 -0.1932  0.1490
  177bbb     H9 5118   4.144   7.034   8.360 -1.1821  0.3112  0.3578
  177bbb    H10 5119   4.001   6.957   8.289 -0.6800 -0.9406 -2.0364
  177bbb     C6 5120   3.970   6.621   8.042  0.5874 -0.1707 -0.7968
  177bbb    H11 5121   4.042   6.541   8.025  0.5452 -0.8240  1.6974
  177bbb    H12 5122   3.931   6.673   7.954 -0.3732 -0.2112 -0.4084
  177bbb     C7 5123   4.231   6.938   7.832  0.0333  0.3479 -0.9382
  177bbb    H13 5124   4.155   6.997   7.885 -0.2660 -2.0089  1.4889
  177bbb    H14 5125   4.187   6.868   7.760  1.3037 -1.8470  0.2917
  177bbb     C8 5126   3.849   6.553   8.111  0.7558 -0.6095  0.0243
  177bbb    H15 5127   3.806   6.484   8.038 -0.9345 -0.5153  0.8934
  177bbb    H16 5128   3.769   6.628   8.111  0.8587 -0.4217 -2.0252
  177bbb     C9 5129   4.081   7.133   8.181  0.7715  0.2824  0.8652
  177bbb    H17 5130   4.084   7.108   8.074  0.4097 -0.3015  0.9930
  177bbb    H18 5131   4.156   7.203   8.222 -0.4474  2.4644 -0.4111
  177bbb     O1 5132   4.332   7.019   7.759  0.9816 -0.4765 -0.5199
  178bbb     N1 5133   4.628   7.424   7.237 -0.1292  0.8211  0.5780
  178bbb     C1 5134   4.643   7.323   7.132  0.5371 -0.2205  0.2471
  178bbb     H1 5135   4.593   7.234   7.171 -0.3966  0.4021  0.5015
  178bbb     H2 5136   4.750   7.299   7.124  0.6953 -0.4816  2.4462
  178bbb     C2 5137   4.498   7.497   7.255  0.4424  0.1648 -0.0962
  178bbb     H3 5138   4.473   7.549   7.162  0.6549  0.3173 -0.0683
  178bbb     H4 5139   4.504   7.569   7.337 -0.2857  0.6355 -0.4506
  178bbb     C3 5140   4.681   7.369   7.369  0.1887 -0.4143 -0.3747
  178bbb     H5 5141   4.600   7.305   7.407 -1.4985  1.1390 -1.1583
  178bbb     H6 5142   4.695   7.451   7.440  0.8324 -0.2014 -0.7461
  178bbb     C4 5143   4.818   7.300   7.362  0.0232  0.0855 -0.2485
  178bbb     H7 5144   4.892   7.368   7.318 -2.0999  0.0070 -4.3898
  178bbb     H8 5145   4.835   7.214   7.296  1.0990  1.1346 -1.3777
  178bbb     C5 5146   4.581   7.356   6.991  0.9752  0.4663  0.1320
  178bbb     H9 5147   4.474   7.375   6.982  0.4141 -0.3802  3.5300
  178bbb    H10 5148   4.602   7.267   6.930 -2.1705  0.9934 -1.9407
  178bbb     C6 5149   4.374   7.408   7.295  0.1426  0.0886 -0.2012
  178bbb    H11 5150   4.396   7.355   7.388  2.0958 -2.0712 -1.7791
  178bbb    H12 5151   4.354   7.328   7.223  1.0197 -0.7725  0.4938
  178bbb     C7 5152   4.865   7.257   7.510  0.4354  0.5407  0.0663
  178bbb    H13 5153   4.963   7.208   7.505  0.8049  0.7633  3.1333
  178bbb    H14 5154   4.797   7.184   7.554 -1.6542  1.0087 -2.1873
  178bbb     C8 5155   4.241   7.493   7.327 -0.2212  0.3152  0.6798
  178bbb    H15 5156   4.263   7.546   7.420  0.1036  2.2773 -0.4483
  178bbb    H16 5157   4.161   7.419   7.333 -0.1866  0.2609  0.5001
  178bbb     C9 5158   4.645   7.482   6.923 -0.5894  0.6499  0.9357
  178bbb    H17 5159   4.665   7.560   6.998 -1.4179  0.6390  1.1855
  178bbb    H18 5160   4.567   7.531   6.862 -0.1681 -0.2011 -0.3210
  178bbb     O1 5161   4.869   7.367   7.598 -0.6469  0.2065  0.2603
  179bbb     N1 5162   5.668   9.009   7.584  0.7016 -0.1499  0.2186
  179bbb     C1 5163   5.757   9.115   7.540  0.0876  0.0663  0.1185
  179bbb     H1 5164   5.845   9.068   7.496  0.3368  0.2854  0.3831
  179bbb     H2 5165   5.786   9.183   7.622  1.8689  1.8488 -1.8686
  179bbb     C2 5166   5.705   8.923   7.703  1.3213 -0.2099 -0.4112
  179bbb     H3 5167   5.811   8.895   7.695  1.1073 -1.5787  1.0798
  179bbb     H4 5168   5.648   8.830   7.698  2.1309 -0.7710  0.3799
  179bbb     C3 5169   5.613   8.934   7.474 -0.1998 -0.2994  0.1358
  179bbb     H5 5170   5.550   8.998   7.412 -0.6487 -2.5583 -1.8931
  179bbb     H6 5171   5.542   8.856   7.504 -0.4564  0.5325  1.8081
  179bbb     C4 5172   5.711   8.879   7.372  0.3500 -0.4859  0.6210
  179bbb     H7 5173   5.772   8.960   7.329 -1.2134  1.0885  1.2571
  179bbb     H8 5174   5.657   8.828   7.292  0.3651 -0.7972  0.8122
  179bbb     C5 5175   5.703   9.207   7.425  0.6761  0.3904 -0.7680
  179bbb     H9 5176   5.673   9.149   7.338  1.8401 -0.6821 -0.4757
  179bbb    H10 5177   5.780   9.280   7.396  0.5106  0.9172  0.0650
  179bbb     C6 5178   5.668   8.992   7.832  0.2378 -0.1931  0.0692
  179bbb    H11 5179   5.559   9.001   7.817  0.4470 -0.6846 -2.1808
  179bbb    H12 5180   5.724   9.084   7.811  0.4195  0.0343  1.4623
  179bbb     C7 5181   5.804   8.767   7.415 -0.2857 -1.0231 -0.5667
  179bbb    H13 5182   5.865   8.806   7.498 -2.1215 -0.8598  0.7606
  179bbb    H14 5183   5.876   8.733   7.339 -0.0447 -0.8477 -0.4181
  179bbb     C8 5184   5.712   8.924   7.967 -0.0915  0.1309  0.0327
  179bbb    H15 5185   5.718   9.002   8.043  0.2174 -1.2355  1.4615
  179bbb    H16 5186   5.817   8.893   7.960 -0.0327 -0.1198  1.6518
  179bbb     C9 5187   5.573   9.290   7.469  0.4420 -0.9044  0.2020
  179bbb    H17 5188   5.595   9.321   7.572  2.0707 -1.3270  0.0020
  179bbb    H18 5189   5.482   9.228   7.464  0.2827 -0.6312 -0.4869
  179bbb     O1 5190   5.718   8.667   7.452 -0.0991  0.0958  0.8124
  180bbb     N1 5191   4.798   8.374   7.455 -0.0809  0.3448  0.4856
  180bbb     C1 5192   4.780   8.450   7.585 -0.3975  0.3197 -0.1613
  180bbb     H1 5193   4.881   8.463   7.626  1.1946 -0.1999 -3.5273
  180bbb     H2 5194   4.723   8.387   7.654  0.6202 -0.3194  0.1045
  180bbb     C2 5195   4.670   8.321   7.398 -0.6107  0.0915  0.2985
  180bbb     H3 5196   4.577   8.370   7.428  0.4476  2.2233  0.2874
  180bbb     H4 5197   4.661   8.218   7.437 -0.2919 -0.0681 -0.0408
  180bbb     C3 5198   4.917   8.284   7.441  0.0418 -0.4483  0.8141
  180bbb     H5 5199   5.000   8.347   7.476  0.5711 -0.9946  0.5553
  180bbb     H6 5200   4.955   8.259   7.341 -1.0651  1.7675 -0.2253
  180bbb     C4 5201   4.909   8.163   7.539  0.0923  0.2937  0.2633
  180bbb     H7 5202   4.824   8.096   7.520  0.8635 -0.7070  0.2903
  180bbb     H8 5203   4.888   8.212   7.635 -2.0749  0.0508 -0.0238
  180bbb     C5 5204   4.700   8.582   7.557  1.1290  0.8683  0.4331
  180bbb     H9 5205   4.676   8.620   7.657  0.7880  0.5694  0.4674
  180bbb    H10 5206   4.611   8.572   7.494  2.5470  2.2211 -1.9171
  180bbb     C6 5207   4.665   8.325   7.242 -0.0562 -0.6276  0.4458
  180bbb    H11 5208   4.583   8.273   7.192 -1.0638 -0.4298  1.8337
  180bbb    H12 5209   4.755   8.280   7.198  1.6804  0.1456  2.9624
  180bbb     C7 5210   5.045   8.085   7.548 -0.3924  0.1501 -0.0305
  180bbb    H13 5211   5.062   8.044   7.448 -3.5898 -1.4350 -0.0858
  180bbb    H14 5212   5.038   8.001   7.619 -0.4976  0.1829 -0.0004
  180bbb     C8 5213   4.650   8.472   7.188 -0.1239  0.2542  0.2505
  180bbb    H15 5214   4.728   8.532   7.238 -0.7295  0.5887  0.8149
  180bbb    H16 5215   4.559   8.522   7.222 -0.9081 -1.0302  0.0946
  180bbb     C9 5216   4.795   8.680   7.482  0.1131 -0.1474  0.4511
  180bbb    H17 5217   4.728   8.756   7.440  0.5624 -0.1991 -0.3702
  180bbb    H18 5218   4.839   8.624   7.398  0.5225  2.0905 -0.8827
  180bbb     O1 5219   5.159   8.165   7.587 -0.3773  0.1807 -0.1846
  181bbb     N1 5220   4.544   7.861   7.492  0.1390  0.4179  0.3409
  181bbb     C1 5221   4.457   7.890   7.374  0.2798 -0.1399 -0.0266
  181bbb     H1 5222   4.377   7.955   7.409  0.7749  0.0641  0.7824
  181bbb     H2 5223   4.419   7.796   7.332  0.8901 -1.5022  2.2507
  181bbb     C2 5224   4.473   7.805   7.606 -0.3993  0.2427 -0.4721
  181bbb     H3 5225   4.538   7.811   7.694  0.7210 -0.8965 -1.1854
  181bbb     H4 5226   4.462   7.698   7.589 -0.3018  0.1523  0.0069
  181bbb     C3 5227   4.671   7.797   7.464 -0.1174  0.1039  0.0867
  181bbb     H5 5228   4.728   7.870   7.406 -0.1519 -0.4012 -0.5964
  181bbb     H6 5229   4.657   7.713   7.394 -0.4922  0.0388  0.2401
  181bbb     C4 5230   4.766   7.765   7.583 -0.6206 -0.2341  0.0146
  181bbb     H7 5231   4.718   7.687   7.642  0.8165 -1.3114 -0.1823
  181bbb     H8 5232   4.767   7.856   7.644  0.1482 -0.6559  0.6511
  181bbb     C5 5233   4.517   7.981   7.268  0.0187 -0.5692  0.1549
  181bbb     H9 5234   4.608   7.935   7.226  0.7289 -0.6566  1.7047
  181bbb    H10 5235   4.544   8.078   7.312 -1.5258  0.1511 -0.4336
  181bbb     C6 5236   4.342   7.875   7.659 -0.5612 -0.1827  0.2246
  181bbb    H11 5237   4.300   7.818   7.743 -0.7941 -1.0053 -0.4391
  181bbb    H12 5238   4.260   7.865   7.587  1.1252 -1.2906 -1.6272
  181bbb     C7 5239   4.911   7.743   7.542 -0.2163  0.1502  0.0440
  181bbb    H13 5240   4.929   7.823   7.469 -3.1428 -1.0165 -2.1809
  181bbb    H14 5241   4.921   7.646   7.492 -1.1759  0.9495 -1.7988
  181bbb     C8 5242   4.369   8.022   7.707  0.3450 -0.2700 -0.4317
  181bbb    H15 5243   4.430   8.067   7.628 -0.5996  2.3527  0.2344
  181bbb    H16 5244   4.431   8.025   7.798 -0.3954  2.3724  0.0540
  181bbb     C9 5245   4.419   8.005   7.151  0.2883 -0.3943 -0.2831
  181bbb    H17 5246   4.319   8.037   7.183  0.2234  1.3285 -1.9956
  181bbb    H18 5247   4.419   7.922   7.080  2.7190 -0.1295 -0.6748
  181bbb     O1 5248   5.001   7.776   7.658  0.3689  0.0822  0.0897
  182bbb     N1 5249   5.969   8.151   7.469 -0.3175 -0.1408 -0.5096
  182bbb     C1 5250   5.987   8.174   7.323  0.0441 -0.1832 -0.0445
  182bbb     H1 5251   5.968   8.077   7.276  0.1311  0.1536 -0.7864
  182bbb     H2 5252   6.093   8.189   7.299 -0.6193  3.9924 -1.1199
  182bbb     C2 5253   6.077   8.061   7.526 -0.2832  0.5081  0.7044
  182bbb     H3 5254   6.166   8.075   7.463 -0.4569 -0.6646  0.1729
  182bbb     H4 5255   6.039   7.958   7.515 -1.9766  1.0281  1.3395
  182bbb     C3 5256   5.835   8.112   7.510 -0.0963 -0.0287  0.2645
  182bbb     H5 5257   5.775   8.202   7.490  0.3225 -0.1914 -2.0480
  182bbb     H6 5258   5.840   8.094   7.618 -0.9833  1.2417  0.5352
  182bbb     C4 5259   5.770   7.989   7.435  0.5349 -0.2675 -0.0778
  182bbb     H7 5260   5.839   7.904   7.433  1.0205  0.0826 -3.1238
  182bbb     H8 5261   5.750   8.017   7.330  2.1025  2.1139  0.1878
  182bbb     C5 5262   5.890   8.274   7.246  0.1971 -0.0255 -0.2375
  182bbb     H9 5263   5.916   8.378   7.269 -2.5703  0.5481  0.6235
  182bbb    H10 5264   5.785   8.251   7.267  0.2006  0.5661  0.4187
  182bbb     C6 5265   6.106   8.085   7.668 -0.6105  0.1227 -0.4044
  182bbb    H11 5266   6.019   8.076   7.734  0.5055 -3.7637  0.7601
  182bbb    H12 5267   6.131   8.192   7.667 -1.6416  0.4018  0.4093
  182bbb     C7 5268   5.648   7.935   7.509  0.6063  0.2367 -0.3476
  182bbb    H13 5269   5.601   7.857   7.448 -3.0517  0.0356  2.4379
  182bbb    H14 5270   5.574   8.015   7.518 -1.6335 -1.8536  0.6492
  182bbb     C8 5271   6.225   8.010   7.730 -0.6679  0.5988 -0.7920
  182bbb    H15 5272   6.317   8.041   7.679  0.5978  0.3144  1.1912
  182bbb    H16 5273   6.211   7.902   7.718  1.4844  0.2879 -0.7652
  182bbb     C9 5274   5.913   8.253   7.089 -0.3370 -0.1099 -0.2519
  182bbb    H17 5275   5.864   8.333   7.032 -0.8406  0.7516  1.3460
  182bbb    H18 5276   5.857   8.160   7.071  1.0814 -1.2693  1.0247
  182bbb     O1 5277   5.690   7.883   7.635 -0.2746  0.1046 -0.4273
  183bbb     N1 5278   3.267   6.039  10.688 -0.5509  0.1460  0.3789
  183bbb     C1 5279   3.193   6.115  10.792 -0.4040 -0.5327  0.0776
  183bbb     H1 5280   3.109   6.174  10.753  1.0473  1.4912 -0.1719
  183bbb     H2 5281   3.263   6.186  10.838 -0.7170  1.3024 -2.0365
  183bbb     C2 5282   3.205   5.932  10.614 -0.0115 -0.6583 -0.8137
  183bbb     H3 5283   3.188   5.839  10.668 -1.6173 -0.8902 -1.6394
  183bbb     H4 5284   3.276   5.897  10.538 -0.7491 -0.0913 -1.8072
  183bbb     C3 5285   3.359   6.126  10.599  0.4700  0.5736  0.1385
  183bbb     H5 5286   3.393   6.076  10.508 -1.5552 -0.1002 -0.3090
  183bbb     H6 5287   3.448   6.146  10.660  1.1919 -1.0578 -0.3291
  183bbb     C4 5288   3.302   6.265  10.547  0.1975 -0.0263 -0.2851
  183bbb     H7 5289   3.288   6.331  10.633  1.8560  0.3257 -0.2596
  183bbb     H8 5290   3.203   6.246  10.502 -0.0720 -0.6959  0.5563
  183bbb     C5 5291   3.133   6.029  10.897  0.3788  0.2247 -0.3483
  183bbb     H9 5292   3.199   6.011  10.982  0.9977  0.6905 -0.7221
  183bbb    H10 5293   3.104   5.935  10.849 -2.4374  1.3628 -1.1096
  183bbb     C6 5294   3.073   5.970  10.547  0.9725 -0.3205 -0.5744
  183bbb    H11 5295   3.092   6.051  10.475  1.2052  1.1553  1.0665
  183bbb    H12 5296   2.998   6.004  10.619  0.4680  0.6485 -1.5217
  183bbb     C7 5297   3.380   6.329  10.438  0.3697  0.1523 -0.7418
  183bbb    H13 5298   3.394   6.253  10.360 -0.6551 -3.3535  2.2285
  183bbb    H14 5299   3.474   6.347  10.492 -0.0537  0.4789 -0.0994
  183bbb     C8 5300   3.025   5.846  10.477 -1.0895 -0.5832  0.3144
  183bbb    H15 5301   2.915   5.842  10.477 -1.1284 -3.2536  2.6385
  183bbb    H16 5302   3.052   5.763  10.544  0.4128 -1.0381 -0.8038
  183bbb     C9 5303   3.000   6.079  10.957 -0.1681  0.7530  0.1837
  183bbb    H17 5304   2.933   6.123  10.882  0.4314  0.4086 -0.5671
  183bbb    H18 5305   3.022   6.161  11.026  0.7076  0.1988  0.5752
  183bbb     O1 5306   3.325   6.451  10.400 -0.5878 -0.2309 -0.2660
  184bbb     N1 5307   3.642   5.960  10.067  0.7262  0.3235  0.1983
  184bbb     C1 5308   3.620   5.825  10.011  0.2824  0.2081  0.0059
  184bbb     H1 5309   3.547   5.822   9.929 -0.6214  1.1758  0.7594
  184bbb     H2 5310   3.583   5.758  10.090 -3.9112  0.7383 -1.2885
  184bbb     C2 5311   3.531   6.005  10.151  0.1995  0.3630 -0.1976
  184bbb     H3 5312   3.433   6.012  10.102  0.9991 -1.2611 -2.1178
  184bbb     H4 5313   3.551   6.104  10.194  0.0809  0.7036 -0.9292
  184bbb     C3 5314   3.692   6.053   9.962  1.0127  0.1096 -0.0511
  184bbb     H5 5315   3.600   6.087   9.912  2.3152  1.2484 -1.8073
  184bbb     H6 5316   3.747   5.998   9.884  0.7695 -0.5726  0.2468
  184bbb     C4 5317   3.773   6.177  10.007 -0.1376  0.9381 -0.2176
  184bbb     H7 5318   3.702   6.260  10.017 -0.3761  0.7879 -0.6518
  184bbb     H8 5319   3.831   6.203   9.917 -0.7304 -1.2490 -1.2856
  184bbb     C5 5320   3.746   5.749   9.946 -0.5089  0.1843 -0.0485
  184bbb     H9 5321   3.783   5.797   9.855  0.2593  1.5112  0.9145
  184bbb    H10 5322   3.717   5.648   9.918 -0.3678 -0.1347  0.9086
  184bbb     C6 5323   3.513   5.923  10.284  0.0503 -0.7751 -1.3317
  184bbb    H11 5324   3.489   5.817  10.269 -1.0316 -1.2960  2.8601
  184bbb    H12 5325   3.424   5.971  10.327  0.5883 -1.1743  0.3018
  184bbb     C7 5326   3.869   6.159  10.129  0.2265  0.8072 -0.0526
  184bbb    H13 5327   3.957   6.100  10.099  0.7871  1.0510  1.0558
  184bbb    H14 5328   3.816   6.110  10.211 -1.0064  2.4805  0.1948
  184bbb     C8 5329   3.645   5.933  10.379  0.4744  1.1366  0.0508
  184bbb    H15 5330   3.731   5.915  10.313  1.5442  0.9377  1.4604
  184bbb    H16 5331   3.646   5.847  10.447  1.2957  1.1096  0.0095
  184bbb     C9 5332   3.862   5.739  10.044 -0.2459  0.0464 -0.0372
  184bbb    H17 5333   3.829   5.685  10.134  1.7996 -0.1391  0.6533
  184bbb    H18 5334   3.883   5.842  10.076 -3.3572  0.2934  1.5823
  184bbb     O1 5335   3.920   6.280  10.188  0.0176  0.2542  0.3904
  185bbb     N1 5336   2.091   6.873   9.674 -0.0248 -0.3703 -0.0835
  185bbb     C1 5337   2.021   6.847   9.544 -0.5058  0.8507 -0.1887
  185bbb     H1 5338   1.978   6.748   9.560 -3.9344  2.1457 -0.5115
  185bbb     H2 5339   2.088   6.831   9.458 -0.7057 -1.1528 -0.0150
  185bbb     C2 5340   2.200   6.774   9.704 -0.3853  0.1787 -0.0912
  185bbb     H3 5341   2.158   6.674   9.689  0.0650  0.1004 -0.8888
  185bbb     H4 5342   2.230   6.795   9.807 -0.5000  2.6542 -0.4912
  185bbb     C3 5343   2.144   7.014   9.685 -0.0494  0.3718 -0.3823
  185bbb     H5 5344   2.067   7.088   9.663  0.6715  1.1695 -0.2461
  185bbb     H6 5345   2.225   7.037   9.615  0.0643  2.5007  0.3775
  185bbb     C4 5346   2.180   7.053   9.831  0.3594 -0.1865  0.2095
  185bbb     H7 5347   2.126   6.997   9.908  0.5867 -0.8538 -0.1089
  185bbb     H8 5348   2.143   7.151   9.864 -1.7964 -1.2253  1.0710
  185bbb     C5 5349   1.900   6.934   9.512 -0.2112  0.0422 -0.1764
  185bbb     H9 5350   1.947   7.031   9.491  0.5497 -0.2173  0.2995
  185bbb    H10 5351   1.841   6.944   9.604  0.6869  1.9181  0.2463
  185bbb     C6 5352   2.326   6.773   9.622 -0.1474 -0.4235  0.1818
  185bbb    H11 5353   2.385   6.864   9.640  1.2966 -1.0640 -1.0217
  185bbb    H12 5354   2.309   6.769   9.514  2.1813 -0.4196 -0.2491
  185bbb     C7 5355   2.328   7.043   9.882  0.2830 -0.1859 -0.3303
  185bbb    H13 5356   2.350   6.936   9.883 -0.0196 -0.2804 -1.6354
  185bbb    H14 5357   2.348   7.095   9.976 -1.6660  1.7221 -0.8881
  185bbb     C8 5358   2.432   6.664   9.661  0.0008  0.5163  0.7997
  185bbb    H15 5359   2.514   6.666   9.589 -0.1427  1.2935  0.6423
  185bbb    H16 5360   2.391   6.563   9.655 -0.5959  0.7732  0.4241
  185bbb     C9 5361   1.818   6.878   9.395  0.4505 -0.1512 -0.0423
  185bbb    H17 5362   1.737   6.950   9.375  1.3941  1.2298  0.9257
  185bbb    H18 5363   1.774   6.783   9.426  1.0062  0.0096  1.2875
  185bbb     O1 5364   2.406   7.105   9.776 -0.0920  0.2502 -0.2143
  186bbb     N1 5365   3.022   6.358  10.045  0.3636 -0.1513 -0.0169
  186bbb     C1 5366   3.040   6.226   9.977 -0.3046 -0.8490  0.0787
  186bbb     H1 5367   2.975   6.220   9.890 -2.6493 -1.4968  1.7866
  186bbb     H2 5368   3.011   6.148  10.049  1.0921  0.2377  1.9417
  186bbb     C2 5369   3.075   6.355  10.185  0.3470  0.5758  0.2398
  186bbb     H3 5370   3.182   6.379  10.180  0.3046  0.5325 -1.3996
  186bbb     H4 5371   3.091   6.254  10.224  0.8051  0.2999 -0.6299
  186bbb     C3 5372   3.060   6.480   9.970  0.4399 -0.3581  0.5460
  186bbb     H5 5373   3.168   6.479   9.947  0.4917 -0.9588  0.7670
  186bbb     H6 5374   3.051   6.565  10.038  0.3686  1.0322 -1.1450
  186bbb     C4 5375   2.985   6.510   9.841  0.6200  0.1513  0.4260
  186bbb     H7 5376   2.876   6.498   9.843  0.4221  1.3212 -1.1823
  186bbb     H8 5377   3.022   6.442   9.763 -1.2653  1.0077 -1.3184
  186bbb     C5 5378   3.187   6.191   9.943  0.4853 -0.5166 -0.1519
  186bbb     H9 5379   3.245   6.170  10.034  1.4333  1.4736 -0.2445
  186bbb    H10 5380   3.235   6.285   9.914 -0.2416  0.0358  0.3844
  186bbb     C6 5381   3.012   6.447  10.286  0.7556 -0.5818  0.4239
  186bbb    H11 5382   3.031   6.551  10.256  4.0349 -1.3741 -0.7257
  186bbb    H12 5383   3.063   6.442  10.383 -0.1466 -3.8920  0.8415
  186bbb     C7 5384   2.993   6.654   9.797 -0.0671 -0.2995  0.7319
  186bbb    H13 5385   3.097   6.675   9.769 -0.1220  0.9725  1.4014
  186bbb    H14 5386   2.967   6.717   9.883 -2.0019  0.4525 -0.3493
  186bbb     C8 5387   2.862   6.421  10.312  0.1399 -0.0180 -0.5727
  186bbb    H15 5388   2.810   6.442  10.217 -0.9844 -1.1374 -0.2326
  186bbb    H16 5389   2.824   6.488  10.390  0.7075 -1.5294  1.0456
  186bbb     C9 5390   3.206   6.089   9.831 -0.3883  0.2887 -0.1411
  186bbb    H17 5391   3.311   6.086   9.799 -0.9926  0.7738 -2.2960
  186bbb    H18 5392   3.148   6.108   9.740  1.0352 -1.1618 -1.4159
  186bbb     O1 5393   2.906   6.673   9.682 -0.3328 -0.2015  0.0977
  187bbb     N1 5394   4.935   6.406  11.451 -0.6553 -0.5412 -0.5258
  187bbb     C1 5395   4.965   6.265  11.418 -0.2298 -0.0831 -0.1793
  187bbb     H1 5396   5.070   6.278  11.386 -0.5936  0.6144 -1.1299
  187bbb     H2 5397   4.899   6.219  11.344 -1.0201 -1.2905  1.2128
  187bbb     C2 5398   5.003   6.463  11.581  0.1034 -0.0699  0.5018
  187bbb     H3 5399   5.112   6.457  11.571  0.1011 -0.9820  0.9480
  187bbb     H4 5400   4.976   6.403  11.669 -0.5787 -1.6918 -0.7639
  187bbb     C3 5401   4.797   6.455  11.425  0.2640 -0.0693  0.0679
  187bbb     H5 5402   4.802   6.564  11.435  0.3319 -0.0701  0.0412
  187bbb     H6 5403   4.716   6.417  11.488 -1.1004 -1.6367 -2.4656
  187bbb     C4 5404   4.749   6.423  11.281 -0.1501 -0.0161  0.1557
  187bbb     H7 5405   4.664   6.486  11.253 -0.2884 -0.2709  0.0022
  187bbb     H8 5406   4.718   6.318  11.276  2.4270 -0.9013  0.7728
  187bbb     C5 5407   4.960   6.166  11.541  0.7609  0.0888 -0.6639
  187bbb     H9 5408   5.029   6.202  11.619  1.0997 -1.4756 -0.2088
  187bbb    H10 5409   4.995   6.068  11.507 -0.3358 -0.3604 -0.5286
  187bbb     C6 5410   4.972   6.614  11.607  0.4958  0.0605  1.0750
  187bbb    H11 5411   5.020   6.641  11.702 -0.5964 -0.3733  1.7648
  187bbb    H12 5412   4.865   6.637  11.613  1.0619  3.1945  0.7540
  187bbb     C7 5413   4.859   6.461  11.178 -0.0820  1.0555 -0.4801
  187bbb    H13 5414   4.960   6.424  11.198  0.1156  0.6751 -2.0382
  187bbb    H14 5415   4.875   6.569  11.173 -0.8626  1.2933  1.2262
  187bbb     C8 5416   5.017   6.708  11.492  0.3550  0.2724  0.1582
  187bbb    H15 5417   4.973   6.807  11.510  0.4667  0.1370  1.2738
  187bbb    H16 5418   4.972   6.664  11.403 -2.3897  1.8043  0.6971
  187bbb     C9 5419   4.816   6.144  11.589 -0.6234 -0.2806  0.8742
  187bbb    H17 5420   4.756   6.087  11.516 -1.3667  0.7621  0.6519
  187bbb    H18 5421   4.756   6.233  11.611  0.5708  0.6040  0.6447
  187bbb     O1 5422   4.813   6.423  11.045 -0.0101  0.2190 -0.1799
  188bbb     N1 5423   5.488   5.729  10.959  0.1267  0.2416  0.2315
  188bbb     C1 5424   5.382   5.624  10.985  0.1192 -0.3418 -0.7464
  188bbb     H1 5425   5.424   5.552  11.057  0.6372  1.1084  0.4626
  188bbb     H2 5426   5.359   5.568  10.893  1.8048 -0.9274 -0.8464
  188bbb     C2 5427   5.512   5.787  11.091 -0.9311 -0.1382  0.2406
  188bbb     H3 5428   5.512   5.710  11.169 -0.9123  0.0047  0.3831
  188bbb     H4 5429   5.422   5.839  11.126 -0.3428 -0.3092  2.1264
  188bbb     C3 5430   5.460   5.830  10.856 -0.5928  0.1535  0.0704
  188bbb     H5 5431   5.539   5.906  10.846 -0.0042 -0.2068  1.7614
  188bbb     H6 5432   5.372   5.890  10.879 -0.1556  1.2893 -1.0474
  188bbb     C4 5433   5.433   5.763  10.716  0.2304  0.0160 -0.0259
  188bbb     H7 5434   5.479   5.664  10.714  2.3747  0.9165  1.0976
  188bbb     H8 5435   5.477   5.824  10.635 -0.3263  0.1780 -0.2123
  188bbb     C5 5436   5.242   5.676  11.046 -0.6190  0.1102 -0.3606
  188bbb     H9 5437   5.213   5.770  10.999 -0.8737  0.5725  0.6890
  188bbb    H10 5438   5.258   5.694  11.153  0.8201 -1.4797 -0.2553
  188bbb     C6 5439   5.636   5.875  11.099 -0.4763  0.4254 -0.0932
  188bbb    H11 5440   5.626   5.959  11.029 -1.6109  0.8608  0.5650
  188bbb    H12 5441   5.721   5.813  11.065 -2.3590 -2.1112 -0.4775
  188bbb     C7 5442   5.283   5.753  10.687 -0.3705  1.0043 -0.7156
  188bbb    H13 5443   5.230   5.728  10.780  0.4457  0.7897 -0.2922
  188bbb    H14 5444   5.265   5.668  10.620  0.0869 -0.5540  1.0477
  188bbb     C8 5445   5.666   5.926  11.244  0.7353 -0.1666 -0.6982
  188bbb    H15 5446   5.730   5.860  11.305  2.8616  0.8069 -1.7767
  188bbb    H16 5447   5.574   5.947  11.301  2.7268  1.4757  2.2127
  188bbb     C9 5448   5.121   5.580  11.023 -0.7867  0.1040  0.5147
  188bbb    H17 5449   5.040   5.612  11.090 -0.4484  0.8701  0.5644
  188bbb    H18 5450   5.157   5.481  11.053 -1.1428 -0.2808 -0.3083
  188bbb     O1 5451   5.225   5.877  10.638  0.1660 -0.0525 -0.4491
  189bbb     N1 5452   5.206   6.816  10.627  0.2793  0.1068 -0.4333
  189bbb     C1 5453   5.227   6.825  10.478 -0.1759 -0.3976  0.3230
  189bbb     H1 5454   5.334   6.836  10.453 -0.5454 -0.0808 -1.1939
  189bbb     H2 5455   5.177   6.916  10.442 -1.1282 -0.8241  0.5572
  189bbb     C2 5456   5.310   6.900  10.697  0.3136  0.7214  0.6311
  189bbb     H3 5457   5.283   6.877  10.801  1.8110 -0.3011  0.8319
  189bbb     H4 5458   5.292   7.004  10.669  1.5422  0.3356 -1.8713
  189bbb     C3 5459   5.067   6.842  10.671  0.7327 -0.4913  0.2873
  189bbb     H5 5460   5.024   6.920  10.607  0.5894 -0.4972  0.3770
  189bbb     H6 5461   5.061   6.884  10.772  1.1959  0.9783 -0.2764
  189bbb     C4 5462   4.971   6.718  10.669 -0.0217 -0.5799 -0.3607
  189bbb     H7 5463   5.008   6.642  10.739  0.7530 -1.2251 -1.4389
  189bbb     H8 5464   4.969   6.682  10.565 -0.0565 -0.0585 -0.5409
  189bbb     C5 5465   5.183   6.692  10.405 -0.0245 -0.7392 -0.2419
  189bbb     H9 5466   5.075   6.694  10.389 -0.1346 -1.6747  0.2905
  189bbb    H10 5467   5.197   6.615  10.482 -3.7294 -0.0131  1.3644
  189bbb     C6 5468   5.461   6.861  10.679 -0.1037  0.3502 -0.2373
  189bbb    H11 5469   5.530   6.924  10.737  1.6403 -0.4956 -1.3134
  189bbb    H12 5470   5.484   6.888  10.575  0.7567 -2.1437 -0.7620
  189bbb     C7 5471   4.818   6.756  10.692  0.8546 -0.3525  0.4996
  189bbb    H13 5472   4.811   6.822  10.779 -0.5194  0.9006 -0.4930
  189bbb    H14 5473   4.756   6.668  10.707  0.2286  0.0958  0.5838
  189bbb     C8 5474   5.481   6.710  10.697  0.0412 -0.6550  0.6146
  189bbb    H15 5475   5.397   6.664  10.643 -0.0512  2.3696 -2.1207
  189bbb    H16 5476   5.486   6.691  10.805 -0.6043 -3.1363  0.2742
  189bbb     C9 5477   5.264   6.654  10.275 -0.6562 -0.3844  0.6721
  189bbb    H17 5478   5.368   6.650  10.308 -0.0198 -0.1601 -1.1519
  189bbb    H18 5479   5.257   6.735  10.201 -1.3237 -1.0889 -0.0692
  189bbb     O1 5480   4.763   6.833  10.577  0.0700  0.2295 -0.4534
  190bbb     N1 5481   4.633   6.832  11.062 -0.3525 -0.2310  0.0574
  190bbb     C1 5482   4.595   6.849  11.205  0.1218  0.5727 -0.1374
  190bbb     H1 5483   4.510   6.788  11.237  0.1953  0.7375  0.3667
  190bbb     H2 5484   4.556   6.951  11.208  2.5680  1.5769 -0.4353
  190bbb     C2 5485   4.583   6.938  10.970  1.1428  0.1688  1.1208
  190bbb     H3 5486   4.474   6.933  10.978  0.8202 -1.7445 -2.4553
  190bbb     H4 5487   4.613   6.901  10.871  0.9572  1.4882  0.5472
  190bbb     C3 5488   4.610   6.696  11.008  0.1128 -0.3162 -0.0516
  190bbb     H5 5489   4.651   6.624  11.080  3.2373 -1.3095 -2.6192
  190bbb     H6 5490   4.656   6.679  10.910  1.0868 -0.5441  0.4407
  190bbb     C4 5491   4.455   6.665  11.002  0.3309 -0.4791 -0.5281
  190bbb     H7 5492   4.392   6.744  10.960 -1.9681 -0.7881  2.0430
  190bbb     H8 5493   4.413   6.644  11.101  0.1684 -1.1652 -0.7373
  190bbb     C5 5494   4.715   6.832  11.307 -0.1572 -0.4709 -0.5641
  190bbb     H9 5495   4.797   6.899  11.277 -0.6914  1.8853  2.7227
  190bbb    H10 5496   4.760   6.733  11.296 -1.4551 -1.3542  1.4919
  190bbb     C6 5497   4.639   7.076  10.993  0.0755 -0.2771  0.6610
  190bbb    H11 5498   4.741   7.079  11.032 -0.3849 -1.4616  2.0354
  190bbb    H12 5499   4.581   7.118  11.076  0.7972 -0.4529  1.2674
  190bbb     C7 5500   4.434   6.533  10.919 -0.3133 -0.1808 -0.3095
  190bbb    H13 5501   4.333   6.491  10.918  0.0981 -1.2072 -1.0472
  190bbb    H14 5502   4.509   6.461  10.955  1.1925  1.0683 -0.8215
  190bbb     C8 5503   4.626   7.171  10.867  0.6010 -0.0058 -0.1592
  190bbb    H15 5504   4.698   7.131  10.794 -0.8914 -0.4744 -1.4286
  190bbb    H16 5505   4.667   7.268  10.898 -0.3970  0.4493 -0.2444
  190bbb     C9 5506   4.681   6.872  11.454 -0.1276  0.4798  0.0463
  190bbb    H17 5507   4.768   6.860  11.519 -0.2286  2.0825  0.5062
  190bbb    H18 5508   4.603   6.804  11.492 -1.8003  1.6068 -1.2246
  190bbb     O1 5509   4.467   6.563  10.781 -0.3772  0.5846 -0.5687
  191ccc     C1 5510   8.624   4.099   7.169 -0.0383  0.2689  0.0161
  191ccc     H1 5511   8.644   4.185   7.106  3.6104 -0.1842  0.3616
  191ccc     H2 5512   8.544   4.034   7.134 -1.6804  2.7310 -1.0396
  191ccc     C2 5513   8.577   4.129   7.313 -0.0392  0.0416  0.6833
  191ccc     H3 5514   8.562   4.041   7.377 -0.8356  1.9407  3.2755
  191ccc     H4 5515   8.641   4.195   7.373 -2.0289 -0.0167  3.0279
  191ccc     C3 5516   8.440   4.197   7.311  0.1038 -0.5118 -0.0993
  191ccc     H5 5517   8.438   4.285   7.245  0.3182 -0.1081  0.4205
  191ccc     H6 5518   8.413   4.223   7.415 -0.5878 -1.8132  0.0684
  191ccc     N1 5519   8.758   4.027   7.162 -0.3096 -0.2000  0.2252
  191ccc     H7 5520   8.830   4.089   7.203 -1.0846 -0.4427  2.0886
  191ccc     H8 5521   8.753   3.938   7.214  1.5005  0.6128  1.9071
  191ccc     O1 5522   8.347   4.097   7.265 -0.1538 -0.0045  0.1962
  191ccc    H17 5523   8.775   3.997   7.065 -0.7437 -0.8678  0.3487
  192ccc     C1 5524   8.017   3.593   6.732 -0.2915  0.4052 -0.6280
  192ccc     H1 5525   7.988   3.536   6.821  0.3616 -0.4678 -0.9681
  192ccc     H2 5526   8.100   3.659   6.758  1.9088 -1.7314 -1.7524
  192ccc     C2 5527   7.888   3.654   6.678 -0.1658  0.1833  1.0230
  192ccc     H3 5528   7.912   3.701   6.582  1.6804 -2.8449 -0.1308
  192ccc     H4 5529   7.809   3.579   6.668 -1.6226  1.6447  1.1538
  192ccc     C3 5530   7.828   3.754   6.778  0.1899  0.2570  0.3000
  192ccc     H5 5531   7.841   3.720   6.881  1.0274 -0.4652 -0.0327
  192ccc     H6 5532   7.726   3.782   6.749  1.0494  1.7766 -1.4870
  192ccc     N1 5533   8.075   3.482   6.641  0.0366 -0.1495 -0.5660
  192ccc     H7 5534   8.170   3.453   6.667 -0.2123 -1.2704 -0.8606
  192ccc     H8 5535   8.017   3.397   6.642  0.0816 -0.2283 -2.1033
  192ccc     O1 5536   7.906   3.871   6.763 -0.4204 -0.4970 -0.3973
  192ccc    H17 5537   8.084   3.508   6.542  2.1040  1.1686 -0.0826
  193ccc     C1 5538   7.360   3.166   6.166  0.1906 -0.5589  0.4990
  193ccc     H1 5539   7.312   3.217   6.249 -1.0897  1.1757 -1.2271
  193ccc     H2 5540   7.319   3.065   6.162  2.2370 -1.3839 -1.2729
  193ccc     C2 5541   7.513   3.157   6.180  0.2187  1.1587 -0.1089
  193ccc     H3 5542   7.552   3.089   6.256  1.7661  1.6058 -0.4624
  193ccc     H4 5543   7.558   3.123   6.085  0.1963  0.7003  0.0437
  193ccc     C3 5544   7.588   3.296   6.196  0.1833 -0.3583 -0.4500
  193ccc     H5 5545   7.568   3.368   6.116  2.0160  1.1574  0.3999
  193ccc     H6 5546   7.696   3.287   6.206  0.3517  0.3072 -1.6150
  193ccc     N1 5547   7.305   3.243   6.050 -0.4126 -0.0163 -0.0086
  193ccc     H7 5548   7.344   3.337   6.036 -1.4632  0.3069 -0.9176
  193ccc     H8 5549   7.333   3.187   5.968 -2.1642 -0.2709 -0.4735
  193ccc     O1 5550   7.543   3.357   6.321  1.2129 -0.2171 -0.1827
  193ccc    H17 5551   7.204   3.248   6.028 -0.4121 -2.8142 -1.0667
  194ccc     C1 5552   7.621   4.509   6.180 -0.3506  0.1055 -0.1650
  194ccc     H1 5553   7.719   4.484   6.140 -1.4887 -2.3388 -1.6538
  194ccc     H2 5554   7.634   4.588   6.255 -1.1584 -0.0626  0.1662
  194ccc     C2 5555   7.562   4.380   6.231  0.0533  0.6401 -0.4388
  194ccc     H3 5556   7.453   4.382   6.242 -0.0269  3.2035 -0.9962
  194ccc     H4 5557   7.581   4.306   6.153  1.6862  0.8918 -0.3093
  194ccc     C3 5558   7.624   4.334   6.367 -0.3052  0.1610  0.2818
  194ccc     H5 5559   7.603   4.418   6.435 -0.1402  0.8185 -0.4679
  194ccc     H6 5560   7.733   4.317   6.372 -0.4412 -0.8697 -0.1120
  194ccc     N1 5561   7.537   4.567   6.067 -0.3241 -0.7177 -0.4070
  194ccc     H7 5562   7.538   4.503   5.986  0.4758 -1.8422  0.4721
  194ccc     H8 5563   7.439   4.583   6.096 -1.2479 -1.9397 -2.5713
  194ccc     O1 5564   7.553   4.217   6.414 -0.2915  0.0857  0.0864
  194ccc    H17 5565   7.569   4.659   6.035 -1.6132  0.0565  0.4349
  195ccc     C1 5566   7.400   4.125   8.916 -0.4997  0.2925  0.8378
  195ccc     H1 5567   7.320   4.068   8.868 -0.2549  1.5551 -1.1777
  195ccc     H2 5568   7.371   4.135   9.021  1.4570  2.6222  1.2529
  195ccc     C2 5569   7.417   4.265   8.855  0.1075  0.0997  0.0897
  195ccc     H3 5570   7.506   4.305   8.905 -0.6193  0.8294  0.8369
  195ccc     H4 5571   7.428   4.267   8.746 -0.2502 -1.1802  0.0079
  195ccc     C3 5572   7.299   4.354   8.895  1.2238  0.2763  0.1429
  195ccc     H5 5573   7.305   4.386   8.999 -1.6727 -0.9400  0.7852
  195ccc     H6 5574   7.212   4.287   8.895  0.1090  1.6716  0.4388
  195ccc     N1 5575   7.522   4.037   8.915 -0.4883  0.2582 -0.6105
  195ccc     H7 5576   7.560   4.019   8.821  0.2997  0.5091 -0.3436
  195ccc     H8 5577   7.597   4.077   8.973 -0.3091  0.3931 -0.9361
  195ccc     O1 5578   7.308   4.466   8.806 -0.4625 -0.3129 -0.4472
  195ccc    H17 5579   7.501   3.945   8.957  0.6871 -0.0795 -0.7346
  196ccc     C1 5580   8.034   5.275   8.659 -0.1667 -0.6746 -0.0256
  196ccc     H1 5581   8.080   5.312   8.751  0.5655  0.7729 -0.9302
  196ccc     H2 5582   7.978   5.358   8.615 -2.5746 -1.6649  1.0157
  196ccc     C2 5583   7.928   5.173   8.688  0.0747 -0.3882 -0.2561
  196ccc     H3 5584   7.950   5.080   8.633 -1.8307 -0.9750 -0.1163
  196ccc     H4 5585   7.928   5.164   8.797 -0.2925  0.3270 -0.1975
  196ccc     C3 5586   7.786   5.222   8.634  0.3159 -0.1324 -0.1297
  196ccc     H5 5587   7.802   5.243   8.528 -1.7377  0.7469 -0.3120
  196ccc     H6 5588   7.754   5.316   8.682 -1.1703 -0.8887  0.4346
  196ccc     N1 5589   8.139   5.239   8.557 -0.2024 -0.1828 -0.0109
  196ccc     H7 5590   8.194   5.163   8.600  1.2447  0.7222 -0.1610
  196ccc     H8 5591   8.098   5.224   8.464 -1.6488 -2.8757  0.9588
  196ccc     O1 5592   7.688   5.116   8.654  0.0895  0.1666  0.3612
  196ccc    H17 5593   8.204   5.320   8.556  0.3024 -0.5371 -2.0931
  197ccc     C1 5594   7.328   4.873   7.350 -0.8922  0.3964 -0.2944
  197ccc     H1 5595   7.355   4.805   7.269  0.2953  0.8412 -0.2905
  197ccc     H2 5596   7.420   4.889   7.407 -0.1026 -0.7283 -1.2012
  197ccc     C2 5597   7.219   4.801   7.427  0.3535  0.5602  0.1944
  197ccc     H3 5598   7.173   4.863   7.505  1.2262 -0.7777  1.8401
  197ccc     H4 5599   7.136   4.766   7.364  0.3241  1.4131 -0.2480
  197ccc     C3 5600   7.278   4.688   7.509 -0.5708  0.1084  0.3864
  197ccc     H5 5601   7.198   4.619   7.537 -1.0306  0.3465 -0.3007
  197ccc     H6 5602   7.316   4.732   7.602 -0.3835  0.0262  0.3470
  197ccc     N1 5603   7.291   5.012   7.295  0.7277  0.4802  0.8094
  197ccc     H7 5604   7.270   5.082   7.368 -2.9289 -0.9872  1.4048
  197ccc     H8 5605   7.370   5.040   7.235 -0.5673  2.2388 -0.1965
  197ccc     O1 5606   7.389   4.616   7.442  0.5417  0.2887  0.1653
  197ccc    H17 5607   7.207   5.007   7.235 -0.5106  0.4095  2.4777
  198ccc     C1 5608   6.910   3.848   7.406  0.0374 -0.2143 -0.5554
  198ccc     H1 5609   7.011   3.850   7.449 -1.1550 -1.3435  2.6339
  198ccc     H2 5610   6.886   3.745   7.382 -0.0163 -0.1102 -0.9480
  198ccc     C2 5611   6.903   3.937   7.280  0.3480  0.1572  1.1914
  198ccc     H3 5612   6.944   3.874   7.200 -0.3947  0.4819  0.5376
  198ccc     H4 5613   6.798   3.956   7.251  0.5654 -0.2811  0.0532
  198ccc     C3 5614   6.975   4.071   7.301  1.0752  0.1933  0.2601
  198ccc     H5 5615   6.932   4.133   7.380  2.7624  2.7008 -0.6599
  198ccc     H6 5616   6.970   4.136   7.212  0.0760 -0.4629 -0.1801
  198ccc     N1 5617   6.812   3.889   7.515 -0.0086 -0.7495 -0.0631
  198ccc     H7 5618   6.796   3.813   7.582 -0.9758 -1.9308 -1.5520
  198ccc     H8 5619   6.837   3.979   7.559  1.0377 -0.0424 -1.9881
  198ccc     O1 5620   7.107   4.031   7.340 -0.1974 -0.2566 -0.1000
  198ccc    H17 5621   6.721   3.912   7.471  1.2338  0.7110 -2.0469
  199ccc     C1 5622   5.614   5.630   5.126 -0.1173 -0.0034  0.3354
  199ccc     H1 5623   5.629   5.525   5.152 -2.2296 -0.3746  0.2517
  199ccc     H2 5624   5.694   5.693   5.164  1.1301 -1.6265  0.4644
  199ccc     C2 5625   5.487   5.682   5.189 -0.1290  0.2368 -0.5080
  199ccc     H3 5626   5.469   5.782   5.148  2.4986  0.4650 -1.2413
  199ccc     H4 5627   5.411   5.605   5.169  0.9002 -0.8072 -0.4733
  199ccc     C3 5628   5.487   5.699   5.340 -0.2657 -0.5179 -0.7414
  199ccc     H5 5629   5.480   5.599   5.384 -1.3811 -0.0760  0.1274
  199ccc     H6 5630   5.399   5.761   5.363 -0.6336 -1.1301 -0.4698
  199ccc     N1 5631   5.617   5.636   4.977 -0.2098 -0.4612  0.2511
  199ccc     H7 5632   5.701   5.598   4.932 -0.4766 -1.3049  0.4574
  199ccc     H8 5633   5.538   5.585   4.936  0.1434 -0.6684 -0.1872
  199ccc     O1 5634   5.606   5.771   5.369  0.2225 -0.2476 -0.0786
  199ccc    H17 5635   5.620   5.734   4.943 -0.6812 -0.3421  0.5476
  200ccc     C1 5636   6.599   5.785   5.305 -0.1675 -1.1651 -0.1751
  200ccc     H1 5637   6.523   5.790   5.383 -0.2299 -0.6600 -0.2635
  200ccc     H2 5638   6.560   5.843   5.221 -2.3390  1.0510  2.1923
  200ccc     C2 5639   6.620   5.639   5.268 -0.0697 -0.4816 -0.1897
  200ccc     H3 5640   6.692   5.627   5.186  0.4668 -0.0220  0.2007
  200ccc     H4 5641   6.654   5.586   5.358 -0.5187  0.5079  0.5743
  200ccc     C3 5642   6.486   5.561   5.229 -0.2195 -0.3276 -0.0059
  200ccc     H5 5643   6.504   5.453   5.228  3.3160  0.1701 -0.1395
  200ccc     H6 5644   6.463   5.590   5.125  2.4213  0.2583 -0.4983
  200ccc     N1 5645   6.732   5.855   5.353  0.1301 -0.5495  0.1036
  200ccc     H7 5646   6.770   5.803   5.433  1.4265 -1.5034 -1.0859
  200ccc     H8 5647   6.807   5.861   5.283  0.3884  1.7317  0.5104
  200ccc     O1 5648   6.383   5.585   5.322 -0.3042 -0.2399  0.6772
  200ccc    H17 5649   6.711   5.952   5.380 -0.9876 -0.9883  0.9040
  201ccc     C1 5650   6.997   6.455   7.019 -0.5684 -0.1787 -0.2187
  201ccc     H1 5651   7.020   6.561   7.026  0.4118 -0.4272  0.4593
  201ccc     H2 5652   6.951   6.449   6.920 -0.3760  0.5876 -0.3569
  201ccc     C2 5653   6.888   6.412   7.118  0.2696 -0.5477 -0.1614
  201ccc     H3 5654   6.871   6.304   7.120 -2.7144 -0.1780 -0.1554
  201ccc     H4 5655   6.917   6.425   7.224 -1.3654 -0.1690  0.2749
  201ccc     C3 5656   6.755   6.486   7.094  0.5066  0.4648 -0.9297
  201ccc     H5 5657   6.763   6.591   7.125  1.1632  0.8759 -2.4067
  201ccc     H6 5658   6.683   6.446   7.166 -0.9121  0.8359 -2.0976
  201ccc     N1 5659   7.133   6.379   7.030  0.2633  0.1556 -0.3258
  201ccc     H7 5660   7.174   6.391   7.124  1.6314 -0.7996 -0.7763
  201ccc     H8 5661   7.123   6.277   7.030 -1.6967  0.2877  1.2774
  201ccc     O1 5662   6.704   6.479   6.961 -0.8598  0.6088  0.1991
  201ccc    H17 5663   7.204   6.416   6.965  1.8265 -1.0239  0.6344
  202ccc     C1 5664   7.211   7.068   6.084 -0.2686  0.2280 -0.1914
  202ccc     H1 5665   7.107   7.092   6.105  0.3959  1.9353  1.4622
  202ccc     H2 5666   7.214   6.976   6.027  0.6988 -0.4152  0.8588
  202ccc     C2 5667   7.286   7.037   6.214  0.0315  0.4924  0.3821
  202ccc     H3 5668   7.394   7.054   6.198 -0.3131  1.0564 -1.5696
  202ccc     H4 5669   7.257   7.113   6.287 -1.3700 -0.6561  1.0578
  202ccc     C3 5670   7.256   6.905   6.293 -0.0836  0.2831 -0.1160
  202ccc     H5 5671   7.339   6.899   6.364 -0.4963  2.5514  0.6530
  202ccc     H6 5672   7.257   6.817   6.227  2.7798  1.4627 -1.8139
  202ccc     N1 5673   7.251   7.186   6.009 -0.7858  0.0191 -0.0437
  202ccc     H7 5674   7.177   7.197   5.937 -2.6460 -0.7121  1.6459
  202ccc     H8 5675   7.269   7.273   6.060 -1.4735  1.6234 -2.3392
  202ccc     O1 5676   7.134   6.900   6.377  0.3779 -0.3998  0.0860
  202ccc    H17 5677   7.340   7.165   5.962 -0.8074 -0.9260  0.3156
  203ccc     C1 5678   6.475   7.219   6.603 -1.0927 -0.2031 -0.0065
  203ccc     H1 5679   6.507   7.219   6.707 -0.1375  0.2407 -0.2966
  203ccc     H2 5680   6.373   7.259   6.600 -1.0045 -0.0546 -1.9509
  203ccc     C2 5681   6.491   7.082   6.552 -0.3571  0.4701  0.6594
  203ccc     H3 5682   6.438   7.078   6.457 -0.2136 -0.2192  0.6033
  203ccc     H4 5683   6.594   7.048   6.535  0.2591  1.5605  2.0154
  203ccc     C3 5684   6.436   6.980   6.657  0.0510 -0.8070  0.1149
  203ccc     H5 5685   6.506   6.986   6.741  0.4411 -1.1907 -0.1753
  203ccc     H6 5686   6.438   6.878   6.617 -0.9872 -1.8356  2.5214
  203ccc     N1 5687   6.555   7.318   6.532 -0.1744 -0.1086 -0.7243
  203ccc     H7 5688   6.516   7.341   6.440 -1.4241  0.7660 -0.0044
  203ccc     H8 5689   6.546   7.408   6.581  0.1294  1.0224 -2.6569
  203ccc     O1 5690   6.300   7.020   6.702 -0.6500  0.3414 -0.3677
  203ccc    H17 5691   6.655   7.292   6.526 -0.0041  0.1793  0.6041
  204ccc     C1 5692   6.426   7.062   7.782  0.0418  0.7976 -0.4215
  204ccc     H1 5693   6.466   7.126   7.703 -0.1196  1.7880  0.2809
  204ccc     H2 5694   6.511   7.015   7.830  0.5546  1.4737 -0.6425
  204ccc     C2 5695   6.324   6.969   7.721 -0.6122 -0.5384  0.3364
  204ccc     H3 5696   6.352   6.901   7.639 -1.5652 -0.3513 -0.1607
  204ccc     H4 5697   6.279   6.903   7.797 -0.3245 -0.3947  0.6314
  204ccc     C3 5698   6.201   7.044   7.672 -0.4528  0.0426 -0.1863
  204ccc     H5 5699   6.166   7.123   7.740  2.0605  2.8064 -1.8628
  204ccc     H6 5700   6.113   6.980   7.663 -0.3760 -0.1924  0.6155
  204ccc     N1 5701   6.368   7.153   7.884  0.3762 -0.3770  0.1035
  204ccc     H7 5702   6.320   7.225   7.828 -1.4361 -2.1556 -0.7633
  204ccc     H8 5703   6.294   7.114   7.945 -3.9653  6.4147  0.2786
  204ccc     O1 5704   6.235   7.104   7.542  0.0871 -0.8788  0.2670
  204ccc    H17 5705   6.440   7.199   7.941 -1.3857 -0.3674  2.4877
  205ccc     C1 5706   6.243   5.449   6.920  0.2918  0.6221 -0.9529
  205ccc     H1 5707   6.238   5.375   6.840 -0.5661 -1.2736  0.7769
  205ccc     H2 5708   6.141   5.482   6.941  1.2720  3.6910 -0.4374
  205ccc     C2 5709   6.320   5.574   6.879 -0.0350  0.2784  0.1413
  205ccc     H3 5710   6.306   5.653   6.954 -0.1287  1.1653 -0.7946
  205ccc     H4 5711   6.427   5.554   6.871 -0.2263 -2.0901  2.3151
  205ccc     C3 5712   6.281   5.600   6.733 -0.5781 -0.2320  0.4155
  205ccc     H5 5713   6.178   5.636   6.723 -0.6123  0.3103  2.3688
  205ccc     H6 5714   6.290   5.503   6.682 -1.4187 -0.5053  0.7683
  205ccc     N1 5715   6.302   5.390   7.047 -0.3915 -0.8740  0.0987
  205ccc     H7 5716   6.401   5.367   7.029 -0.1197 -1.2598  1.8972
  205ccc     H8 5717   6.303   5.458   7.124 -1.3723  0.3860 -0.9599
  205ccc     O1 5718   6.367   5.685   6.658  0.0940 -0.0136 -0.0061
  205ccc    H17 5719   6.243   5.309   7.072 -2.2854  0.2162 -0.6857
  206ccc     C1 5720   7.331   5.752   6.927 -0.4186  0.0573  0.3350
  206ccc     H1 5721   7.324   5.856   6.895  1.7381  1.1316  2.9774
  206ccc     H2 5722   7.303   5.680   6.849  3.5877 -0.3642 -0.9215
  206ccc     C2 5723   7.245   5.743   7.049  0.0378 -0.8266  0.1579
  206ccc     H3 5724   7.296   5.686   7.128 -0.9373  0.0396  1.4350
  206ccc     H4 5725   7.232   5.837   7.103 -1.6751 -1.4133  0.8371
  206ccc     C3 5726   7.103   5.690   7.012 -0.6162 -0.3661 -0.3556
  206ccc     H5 5727   7.035   5.682   7.099 -0.3635 -1.4322 -0.2484
  206ccc     H6 5728   7.130   5.592   6.971  3.9879  1.4456 -2.2488
  206ccc     N1 5729   7.472   5.710   6.963  0.6005  0.2354 -0.2575
  206ccc     H7 5730   7.464   5.616   7.005  0.7974  0.1442 -0.4233
  206ccc     H8 5731   7.524   5.708   6.874 -0.3534  1.2423 -0.8603
  206ccc     O1 5732   7.034   5.781   6.917  0.5512  0.6309  0.3842
  206ccc    H17 5733   7.510   5.785   7.023 -0.3440  2.3570 -2.1801
  207ccc     C1 5734   2.319   5.236   7.415  0.3321  0.0352  0.0155
  207ccc     H1 5735   2.348   5.266   7.314  2.5607 -2.2112 -0.1215
  207ccc     H2 5736   2.357   5.317   7.479  0.6302  0.7490 -1.0407
  207ccc     C2 5737   2.381   5.099   7.453 -0.3894  0.3119  0.0557
  207ccc     H3 5738   2.360   5.078   7.558 -0.5693 -0.0377 -0.0477
  207ccc     H4 5739   2.346   5.018   7.388  3.1892 -1.5126  0.1187
  207ccc     C3 5740   2.535   5.100   7.426 -0.0532 -0.2969 -0.2511
  207ccc     H5 5741   2.572   5.005   7.466  0.7198  1.3851  3.4321
  207ccc     H6 5742   2.583   5.174   7.491  1.2903 -0.9653 -0.4421
  207ccc     N1 5743   2.166   5.232   7.417  1.0216 -0.1288  0.3127
  207ccc     H7 5744   2.145   5.303   7.345 -0.6732 -0.3634  0.5329
  207ccc     H8 5745   2.124   5.143   7.389 -0.2315 -0.1742  2.1423
  207ccc     O1 5746   2.581   5.119   7.288  0.3134 -0.1192 -0.3484
  207ccc    H17 5747   2.123   5.268   7.504  3.9069  3.0908  0.6463
  208ccc     C1 5748   2.031   4.384   6.528  1.0482 -0.1106  0.3325
  208ccc     H1 5749   2.075   4.415   6.433  0.4703 -0.6408 -0.1220
  208ccc     H2 5750   1.925   4.409   6.539  0.9820  0.4307 -1.3447
  208ccc     C2 5751   2.116   4.450   6.633 -0.0866 -0.7023  0.1730
  208ccc     H3 5752   2.070   4.450   6.732 -0.3328  1.0062  0.1052
  208ccc     H4 5753   2.214   4.402   6.626  1.0881  1.6559 -0.5841
  208ccc     C3 5754   2.135   4.596   6.592 -0.3851 -0.0203  0.0443
  208ccc     H5 5755   2.033   4.637   6.590  0.1749  1.5731  1.3377
  208ccc     H6 5756   2.187   4.612   6.496  1.6774  1.3301  1.3106
  208ccc     N1 5757   2.023   4.240   6.523  0.0276 -0.0355  0.0425
  208ccc     H7 5758   2.118   4.203   6.509  0.2507  0.1078  1.0997
  208ccc     H8 5759   1.988   4.204   6.613 -0.7250 -2.2016 -1.0339
  208ccc     O1 5760   2.209   4.652   6.697  0.2377  0.6356 -0.1730
  208ccc    H17 5761   1.961   4.213   6.444  1.7975  0.5266 -1.6025
  209ccc     C1 5762   2.428   3.916   7.574  0.1019 -0.4508  0.3130
  209ccc     H1 5763   2.453   3.820   7.620 -0.4475 -0.3027  0.9420
  209ccc     H2 5764   2.516   3.938   7.514 -0.3700  1.1770  0.1839
  209ccc     C2 5765   2.399   4.030   7.675  0.3209  0.0303  0.6350
  209ccc     H3 5766   2.350   4.117   7.630 -0.7393 -0.9238 -0.1128
  209ccc     H4 5767   2.323   3.999   7.747 -0.0607  2.0834  1.1580
  209ccc     C3 5768   2.527   4.066   7.757  0.3840  0.2344 -0.5175
  209ccc     H5 5769   2.548   3.994   7.836  0.9968 -2.3650 -2.8947
  209ccc     H6 5770   2.504   4.163   7.804  0.7107  1.1272 -2.1012
  209ccc     N1 5771   2.332   3.889   7.466  0.3165 -0.0056 -0.2163
  209ccc     H7 5772   2.280   3.973   7.437 -0.0980 -0.2000 -0.0451
  209ccc     H8 5773   2.369   3.855   7.377 -1.0298 -0.0823 -0.7726
  209ccc     O1 5774   2.632   4.099   7.664 -0.1374  0.2284 -0.0804
  209ccc    H17 5775   2.258   3.821   7.490 -0.4201  0.6555 -0.5636
  210ccc     C1 5776   2.883   4.745   8.121  0.3517  0.2418 -0.6257
  210ccc     H1 5777   2.818   4.738   8.209  0.2687  0.9898 -0.6208
  210ccc     H2 5778   2.904   4.850   8.105 -1.0023  0.5372 -0.5821
  210ccc     C2 5779   2.815   4.676   8.011  0.8814 -0.6439  0.0104
  210ccc     H3 5780   2.813   4.567   8.023  1.3269 -0.8865 -1.8566
  210ccc     H4 5781   2.708   4.702   8.018  1.0076 -0.2809  6.5057
  210ccc     C3 5782   2.871   4.713   7.872 -0.8122  0.2711  0.4242
  210ccc     H5 5783   2.896   4.820   7.865 -0.7503  0.2680  0.6027
  210ccc     H6 5784   2.805   4.684   7.789  3.1376 -1.9122 -2.2560
  210ccc     N1 5785   3.018   4.684   8.146  0.3696  0.2888  0.2025
  210ccc     H7 5786   3.080   4.701   8.065 -1.1728  1.4926 -0.7962
  210ccc     H8 5787   3.062   4.724   8.230  2.2054 -0.2670 -0.4425
  210ccc     O1 5788   2.989   4.639   7.847  0.2010 -0.2652 -0.4018
  210ccc    H17 5789   3.022   4.582   8.156 -0.5663  0.2111 -0.1400
  211ccc     C1 5790   4.927   2.664   7.218 -0.5026  0.1352 -0.3795
  211ccc     H1 5791   4.995   2.596   7.167 -0.6871 -1.1193  0.9909
  211ccc     H2 5792   4.984   2.727   7.286 -1.1961  0.5144 -0.1359
  211ccc     C2 5793   4.816   2.599   7.311  0.3972  0.2494 -0.0428
  211ccc     H3 5794   4.750   2.677   7.351  1.0187  1.4283 -1.2400
  211ccc     H4 5795   4.750   2.542   7.245  0.4406 -0.3696  0.4304
  211ccc     C3 5796   4.871   2.507   7.420 -0.3073 -0.1367 -0.0862
  211ccc     H5 5797   4.940   2.436   7.371  0.4066  0.8447 -0.5211
  211ccc     H6 5798   4.791   2.450   7.469 -0.6873  1.8979  1.7844
  211ccc     N1 5799   4.871   2.760   7.114  0.2258 -0.0275 -0.1002
  211ccc     H7 5800   4.833   2.703   7.037 -1.6303  0.4286  0.4285
  211ccc     H8 5801   4.785   2.806   7.149  0.4317  1.5891 -1.5801
  211ccc     O1 5802   4.953   2.570   7.522 -0.8496 -0.1312 -0.3183
  211ccc    H17 5803   4.933   2.832   7.073  0.6809 -1.1618 -1.4582
  212ccc     C1 5804   4.393   2.865   8.005 -0.2223  0.3072 -0.3302
  212ccc     H1 5805   4.501   2.852   8.005 -0.0862  1.3433 -0.6527
  212ccc     H2 5806   4.360   2.887   7.903 -1.8885  0.4731  0.2096
  212ccc     C2 5807   4.348   2.976   8.097 -0.2972  0.6492 -0.6128
  212ccc     H3 5808   4.252   3.023   8.071 -0.4365  1.3994  1.1156
  212ccc     H4 5809   4.345   2.946   8.202 -1.0473  0.6683 -0.6231
  212ccc     C3 5810   4.458   3.087   8.078 -0.7473  0.6024 -0.2649
  212ccc     H5 5811   4.451   3.164   8.157 -1.4238  0.0813  0.2010
  212ccc     H6 5812   4.430   3.134   7.983  1.5348  1.5071 -0.5358
  212ccc     N1 5813   4.327   2.732   8.041 -0.2811  0.8783 -0.3891
  212ccc     H7 5814   4.347   2.710   8.140 -0.1590  2.5893  0.0022
  212ccc     H8 5815   4.224   2.742   8.040 -0.9339 -3.6467  0.6149
  212ccc     O1 5816   4.595   3.038   8.062 -0.3724 -0.1769 -0.1005
  212ccc    H17 5817   4.357   2.658   7.977  0.4858  1.0135 -0.1878
  213ccc     C1 5818   4.615   4.180   8.199  0.4721 -0.2293 -0.2016
  213ccc     H1 5819   4.671   4.251   8.261  0.5381 -1.0921  0.7417
  213ccc     H2 5820   4.687   4.107   8.164  0.4234  0.7728 -2.5788
  213ccc     C2 5821   4.553   4.258   8.082  0.3692  0.1492  0.1195
  213ccc     H3 5822   4.513   4.185   8.010  0.3543 -0.0658  0.3437
  213ccc     H4 5823   4.469   4.318   8.120  0.6336  1.2953 -1.0334
  213ccc     C3 5824   4.668   4.345   8.011  0.1442 -0.8073 -0.3097
  213ccc     H5 5825   4.739   4.279   7.960  1.5886  0.8903 -0.5721
  213ccc     H6 5826   4.724   4.406   8.082 -2.2211 -0.0213  0.9909
  213ccc     N1 5827   4.523   4.110   8.290 -0.4131 -0.5223 -0.5073
  213ccc     H7 5828   4.527   4.009   8.269  0.9794 -0.7320  0.6296
  213ccc     H8 5829   4.544   4.124   8.389 -1.4363 -0.5783 -0.2722
  213ccc     O1 5830   4.609   4.432   7.911  0.2073  0.4141  0.3840
  213ccc    H17 5831   4.427   4.142   8.270 -0.2728  2.0655  2.1947
  214ccc     C1 5832   3.991   4.053   7.953  0.7661 -0.2586  0.7909
  214ccc     H1 5833   3.980   4.124   7.871 -1.5383 -3.1925 -1.6872
  214ccc     H2 5834   4.024   4.105   8.043  2.8540 -0.7684  0.3668
  214ccc     C2 5835   4.101   3.948   7.911  0.3674 -0.9721  0.2243
  214ccc     H3 5836   4.114   3.870   7.987  0.3864 -1.2459 -0.0625
  214ccc     H4 5837   4.087   3.890   7.819 -1.4997  0.0255 -0.1754
  214ccc     C3 5838   4.226   4.032   7.892 -0.1592  0.0981 -0.1278
  214ccc     H5 5839   4.301   3.966   7.845 -0.1655  0.4214 -0.6003
  214ccc     H6 5840   4.266   4.063   7.990 -0.0089 -0.3066 -0.0586
  214ccc     N1 5841   3.856   4.000   7.992 -0.5090  0.0672  0.0065
  214ccc     H7 5842   3.868   3.946   8.079 -0.5961  0.3167  0.1738
  214ccc     H8 5843   3.795   4.078   8.022 -0.9275 -0.9364  1.8844
  214ccc     O1 5844   4.215   4.143   7.799 -0.1726 -0.3237  0.0284
  214ccc    H17 5845   3.811   3.952   7.913  1.6489  1.3404 -2.1401
  215ccc     C1 5846   3.990   5.642   5.502 -0.3778  0.0270 -0.0533
  215ccc     H1 5847   3.961   5.741   5.466  0.7827  0.4598  0.1589
  215ccc     H2 5848   4.000   5.576   5.417 -2.3068 -0.3409 -0.0424
  215ccc     C2 5849   3.873   5.591   5.590 -0.2686 -0.4277  0.5391
  215ccc     H3 5850   3.888   5.489   5.627 -1.1084  0.6940  4.5100
  215ccc     H4 5851   3.865   5.660   5.675  0.6128  2.4271 -1.5588
  215ccc     C3 5852   3.753   5.592   5.500  0.4847  0.2289 -0.3536
  215ccc     H5 5853   3.779   5.524   5.418  1.1605 -2.0949  1.6692
  215ccc     H6 5854   3.729   5.691   5.457  1.1334 -0.0172 -1.3212
  215ccc     N1 5855   4.131   5.664   5.562 -0.6080 -0.6947 -0.2813
  215ccc     H7 5856   4.124   5.737   5.635 -0.2788  2.0308 -2.7821
  215ccc     H8 5857   4.178   5.579   5.596  1.6080  1.1858  1.7106
  215ccc     O1 5858   3.640   5.535   5.572 -0.0435  0.2133  0.3111
  215ccc    H17 5859   4.200   5.700   5.494  1.4996 -0.8302  1.6647
  216ccc     C1 5860   2.881   5.883   6.190 -0.2868 -0.2705 -0.3172
  216ccc     H1 5861   2.801   5.854   6.259  0.3889 -0.2644  0.4742
  216ccc     H2 5862   2.859   5.951   6.107  2.8975  1.3882  0.0674
  216ccc     C2 5863   2.951   5.760   6.132 -0.5457  0.1100  0.0990
  216ccc     H3 5864   3.043   5.781   6.076 -0.1939 -0.9477  0.2537
  216ccc     H4 5865   2.990   5.697   6.213  1.2226  2.3102  1.0412
  216ccc     C3 5866   2.859   5.685   6.035  0.6664 -0.0090 -0.1907
  216ccc     H5 5867   2.817   5.756   5.963  2.2191 -0.1388 -1.2721
  216ccc     H6 5868   2.780   5.627   6.084 -1.4566  2.3793 -0.5795
  216ccc     N1 5869   2.973   5.979   6.262  0.2307 -0.1657 -0.5506
  216ccc     H7 5870   2.997   5.937   6.353 -2.0083  0.4859  0.4071
  216ccc     H8 5871   3.046   6.014   6.198 -1.0710  1.6356 -1.1436
  216ccc     O1 5872   2.932   5.594   5.950 -0.4021  0.3202 -0.6263
  216ccc    H17 5873   2.920   6.056   6.306  0.2357 -1.0482  1.0875
  217ccc     C1 5874   3.552   6.359   6.129 -0.1857  0.0872  0.7518
  217ccc     H1 5875   3.475   6.301   6.181 -1.7733  0.3972 -1.1614
  217ccc     H2 5876   3.528   6.374   6.024 -0.5661  2.0808  1.0956
  217ccc     C2 5877   3.692   6.282   6.127 -0.0058 -0.2818  0.3972
  217ccc     H3 5878   3.748   6.306   6.036  1.0641  1.8340  1.5286
  217ccc     H4 5879   3.740   6.329   6.214 -1.8994  1.1620  0.7162
  217ccc     C3 5880   3.675   6.129   6.135 -0.4768  0.0362 -0.1093
  217ccc     H5 5881   3.775   6.085   6.126 -0.0108  0.7952  1.1553
  217ccc     H6 5882   3.614   6.086   6.055 -1.5484 -0.4924  0.9724
  217ccc     N1 5883   3.554   6.493   6.193  0.2189  0.2151  0.2649
  217ccc     H7 5884   3.581   6.568   6.128 -1.4580  0.0250 -0.6815
  217ccc     H8 5885   3.465   6.516   6.239  0.3366  1.7378 -0.1929
  217ccc     O1 5886   3.611   6.096   6.260  0.6138 -0.5804  0.1318
  217ccc    H17 5887   3.617   6.498   6.275  1.6597  1.5662 -0.8323
  218ccc     C1 5888   4.156   6.412   6.319  0.3507 -0.1612  1.0277
  218ccc     H1 5889   4.100   6.452   6.403 -0.1900  0.4830  0.3787
  218ccc     H2 5890   4.108   6.318   6.291  1.4916  0.4647 -3.9849
  218ccc     C2 5891   4.311   6.395   6.346 -0.1734 -0.1593  0.0914
  218ccc     H3 5892   4.354   6.342   6.259  0.9809 -0.2367  0.6922
  218ccc     H4 5893   4.350   6.496   6.362 -2.2564  0.7747 -0.4433
  218ccc     C3 5894   4.328   6.307   6.475 -0.3782  0.0631  0.0003
  218ccc     H5 5895   4.263   6.357   6.547 -0.6032 -0.9427  0.5189
  218ccc     H6 5896   4.433   6.302   6.507 -0.3961 -1.1043 -0.0754
  218ccc     N1 5897   4.144   6.498   6.192  0.4406 -0.2911  0.1435
  218ccc     H7 5898   4.200   6.585   6.200  0.9515 -0.7134  1.5074
  218ccc     H8 5899   4.174   6.448   6.108  0.1837  2.0489 -1.4516
  218ccc     O1 5900   4.284   6.169   6.450 -0.3535 -0.9150 -0.1810
  218ccc    H17 5901   4.045   6.521   6.176  0.0179 -2.0958 -0.0525
  219ccc     C1 5902   2.457   4.911   6.486  0.2710 -0.2262  0.2233
  219ccc     H1 5903   2.505   4.873   6.576  1.1987  0.8067  0.1861
  219ccc     H2 5904   2.362   4.856   6.489  0.5489 -0.7601  3.4948
  219ccc     C2 5905   2.545   4.884   6.363 -0.0440  0.2297  0.2014
  219ccc     H3 5906   2.486   4.912   6.275  0.0504 -1.6908 -0.5146
  219ccc     H4 5907   2.635   4.945   6.378  0.4217 -0.6084  0.9203
  219ccc     C3 5908   2.583   4.732   6.350 -0.3218  0.6719 -0.2895
  219ccc     H5 5909   2.671   4.714   6.286  0.4942  0.8875  0.7453
  219ccc     H6 5910   2.495   4.677   6.313  0.5923  1.0393 -3.3519
  219ccc     N1 5911   2.426   5.066   6.502 -0.3810 -0.4927 -0.1603
  219ccc     H7 5912   2.361   5.085   6.580 -0.6588 -1.0087 -0.2610
  219ccc     H8 5913   2.515   5.118   6.503 -0.0231 -1.0902 -0.0142
  219ccc     O1 5914   2.628   4.684   6.478 -0.5467  0.1008 -0.2252
  219ccc    H17 5915   2.379   5.089   6.414 -0.1437  1.2332  0.1234
  220ccc     C1 5916   2.444   3.978   5.912 -0.2172 -0.4584  0.5522
  220ccc     H1 5917   2.528   3.950   5.849 -0.7588 -1.4631  0.2563
  220ccc     H2 5918   2.396   4.072   5.884 -2.4875 -1.7421 -0.1018
  220ccc     C2 5919   2.476   3.994   6.063 -0.4105 -0.2550  0.4035
  220ccc     H3 5920   2.388   4.044   6.104 -1.2658 -0.7249 -0.8012
  220ccc     H4 5921   2.489   3.899   6.116 -0.7252 -0.4494  0.1425
  220ccc     C3 5922   2.603   4.078   6.092  0.0279  0.2048  0.2699
  220ccc     H5 5923   2.594   4.183   6.063 -2.5116  0.2731  1.0255
  220ccc     H6 5924   2.685   4.036   6.032  0.1030  1.2308 -0.3735
  220ccc     N1 5925   2.349   3.871   5.885  0.2719  0.2492  0.7574
  220ccc     H7 5926   2.312   3.875   5.789 -1.2309  2.3923  1.3380
  220ccc     H8 5927   2.402   3.783   5.887  0.6885  0.5057  1.4041
  220ccc     O1 5928   2.640   4.065   6.229  0.0224  0.4260 -0.0827
  220ccc    H17 5929   2.273   3.872   5.954  1.4871  2.8027  2.2216
  221ccc     C1 5930   2.300   5.889   7.035  0.2954  0.8361  0.1559
  221ccc     H1 5931   2.402   5.929   7.043  0.5352  0.3070 -0.1809
  221ccc     H2 5932   2.275   5.817   7.114 -0.6922  0.4548 -0.4836
  221ccc     C2 5933   2.309   5.803   6.904 -0.4272  0.2712  0.0512
  221ccc     H3 5934   2.232   5.727   6.893  0.5693 -0.6567 -0.7614
  221ccc     H4 5935   2.294   5.879   6.826 -0.1119 -0.7911 -1.0580
  221ccc     C3 5936   2.450   5.741   6.879 -0.0501  0.8392 -0.3683
  221ccc     H5 5937   2.507   5.834   6.868 -0.3478  0.9721 -0.8264
  221ccc     H6 5938   2.449   5.682   6.786 -1.0921 -0.7088  0.5830
  221ccc     N1 5939   2.190   5.998   7.033 -0.3940 -0.5709  0.9466
  221ccc     H7 5940   2.107   5.953   6.991  0.5297 -1.6182  0.1790
  221ccc     H8 5941   2.168   6.043   7.123  2.2223 -0.6365  1.6970
  221ccc     O1 5942   2.507   5.663   6.991  0.3397  0.3114  0.0515
  221ccc    H17 5943   2.215   6.071   6.965 -1.1998  1.2260  2.5042
  222ccc     C1 5944   3.242   5.545   7.581  0.8941  0.0227  0.0182
  222ccc     H1 5945   3.270   5.531   7.477  2.1130  1.5769  0.1012
  222ccc     H2 5946   3.257   5.445   7.622 -1.9755 -0.0947  0.9752
  222ccc     C2 5947   3.090   5.570   7.593  0.0258 -0.1102 -0.8262
  222ccc     H3 5948   3.069   5.625   7.685  1.6601  1.3431 -1.2773
  222ccc     H4 5949   3.069   5.640   7.511  0.9018 -0.4874 -1.3932
  222ccc     C3 5950   2.997   5.447   7.580  0.2119  0.0861 -0.3437
  222ccc     H5 5951   2.891   5.475   7.587  0.1647 -0.2406  0.3204
  222ccc     H6 5952   3.023   5.375   7.658 -2.4020 -0.2795  0.2590
  222ccc     N1 5953   3.332   5.646   7.643  0.2929 -0.0537  0.1747
  222ccc     H7 5954   3.297   5.677   7.735 -1.6791  2.2878 -1.2440
  222ccc     H8 5955   3.428   5.609   7.650 -0.7293 -2.8299  0.6375
  222ccc     O1 5956   3.008   5.383   7.449 -0.3701 -0.1627 -0.8212
  222ccc    H17 5957   3.334   5.730   7.583 -1.1577 -1.3030 -1.7379
  223ccc     C1 5958   5.849   4.516   8.697  0.2284 -0.7295  0.0495
  223ccc     H1 5959   5.912   4.524   8.786  1.5919  2.4526 -1.0776
  223ccc     H2 5960   5.833   4.620   8.670  0.4199  0.2878  3.4460
  223ccc     C2 5961   5.711   4.456   8.719  0.0306 -0.2211  0.1766
  223ccc     H3 5962   5.632   4.519   8.760 -1.0736 -1.4488  0.0177
  223ccc     H4 5963   5.667   4.423   8.624 -2.1630 -1.7033  1.6103
  223ccc     C3 5964   5.726   4.328   8.803 -0.0736 -0.0365 -0.2518
  223ccc     H5 5965   5.820   4.278   8.777  1.1101  1.9282  0.0746
  223ccc     H6 5966   5.634   4.273   8.780 -0.2486  0.4697 -0.7778
  223ccc     N1 5967   5.930   4.462   8.587 -0.7307 -0.4819 -0.1590
  223ccc     H7 5968   5.997   4.531   8.552 -0.8084 -0.3004  0.0476
  223ccc     H8 5969   5.984   4.379   8.616  1.2393  0.7404 -0.1525
  223ccc     O1 5970   5.726   4.361   8.940 -0.0179 -0.6655  0.0350
  223ccc    H17 5971   5.880   4.433   8.502  1.5659 -0.4913 -1.5666
  224ccc     C1 5972   6.319   3.497   8.715  0.4212 -0.5105  0.2654
  224ccc     H1 5973   6.268   3.539   8.628 -3.3387  1.3395  3.0941
  224ccc     H2 5974   6.266   3.414   8.762 -1.5075  0.9384  0.7364
  224ccc     C2 5975   6.329   3.614   8.812  0.1434  0.4383 -0.3587
  224ccc     H3 5976   6.347   3.586   8.916  0.8720 -0.2395 -0.6567
  224ccc     H4 5977   6.399   3.685   8.767  1.1761 -1.4980 -1.9933
  224ccc     C3 5978   6.186   3.675   8.817 -0.4637 -0.3863  0.3601
  224ccc     H5 5979   6.187   3.750   8.897 -0.2626 -0.5050  0.4682
  224ccc     H6 5980   6.116   3.592   8.835 -1.2384  0.0446 -0.5738
  224ccc     N1 5981   6.449   3.438   8.669  0.0554  0.6808  0.3620
  224ccc     H7 5982   6.434   3.365   8.597  0.3609 -1.4103  2.2885
  224ccc     H8 5983   6.520   3.498   8.626  0.7863  0.3763  1.1201
  224ccc     O1 5984   6.152   3.733   8.686 -0.2174 -0.1640 -0.6411
  224ccc    H17 5985   6.500   3.390   8.744  1.6404 -2.4424 -2.4558
  225ccc     C1 5986   5.586   3.790  11.275  0.5907  0.5870  0.2244
  225ccc     H1 5987   5.522   3.806  11.188  0.8596 -1.4000 -0.4091
  225ccc     H2 5988   5.684   3.813  11.233 -0.3416  2.3983 -1.0806
  225ccc     C2 5989   5.574   3.640  11.325  0.3640 -0.5607 -0.0923
  225ccc     H3 5990   5.646   3.617  11.404 -1.3629 -2.1858  1.0746
  225ccc     H4 5991   5.478   3.623  11.376  0.0430 -1.1016 -0.8558
  225ccc     C3 5992   5.574   3.535  11.208  0.8013  0.7898 -0.1696
  225ccc     H5 5993   5.547   3.434  11.240  3.3097  0.0661 -0.1444
  225ccc     H6 5994   5.680   3.531  11.180  1.1761  0.9487  1.1862
  225ccc     N1 5995   5.564   3.882  11.388 -0.7732  0.3356  0.3250
  225ccc     H7 5996   5.581   3.976  11.347  0.7071 -0.7452 -1.7300
  225ccc     H8 5997   5.469   3.886  11.428 -0.6551 -0.0149  0.6449
  225ccc     O1 5998   5.490   3.592  11.107  0.3443  0.2912  0.1759
  225ccc    H17 5999   5.637   3.876  11.461 -0.7935 -0.7686  0.2648
  226ccc     C1 6000   4.841   4.371  10.802  0.2751  0.1122  0.2295
  226ccc     H1 6001   4.897   4.377  10.896 -2.3134 -1.3709  2.0000
  226ccc     H2 6002   4.749   4.314  10.817 -1.4118  1.5483 -3.4010
  226ccc     C2 6003   4.923   4.294  10.699  1.0138  0.7630 -0.6656
  226ccc     H3 6004   4.879   4.295  10.598 -0.9267  0.7314  0.1212
  226ccc     H4 6005   5.023   4.336  10.705  1.4636 -0.4400  0.6294
  226ccc     C3 6006   4.931   4.145  10.748  0.2082 -0.4652  0.3526
  226ccc     H5 6007   4.835   4.095  10.727  0.1703 -0.9963  1.7110
  226ccc     H6 6008   4.942   4.135  10.856  0.5564 -0.7846  0.2885
  226ccc     N1 6009   4.800   4.506  10.763  0.3842 -0.2825  0.1567
  226ccc     H7 6010   4.883   4.564  10.744  0.1584 -0.1213 -0.3510
  226ccc     H8 6011   4.746   4.503  10.676  0.0642  0.3772  0.3233
  226ccc     O1 6012   5.043   4.090  10.683 -0.0532 -0.6511 -0.0035
  226ccc    H17 6013   4.745   4.554  10.836  3.1924  1.0315  1.5898
  227ccc     C1 6014   6.769   5.953   8.965  0.1365  0.4590 -0.8659
  227ccc     H1 6015   6.832   5.897   8.896 -1.5499 -0.3951 -1.7765
  227ccc     H2 6016   6.812   6.050   8.992  1.3257 -0.0797 -0.7701
  227ccc     C2 6017   6.734   5.865   9.091 -0.2602 -0.2406 -0.7949
  227ccc     H3 6018   6.643   5.900   9.142 -0.5151 -1.2168 -0.5405
  227ccc     H4 6019   6.703   5.765   9.059  0.8136 -0.4041 -1.3781
  227ccc     C3 6020   6.866   5.853   9.184 -0.2150 -0.2167  0.4862
  227ccc     H5 6021   6.907   5.953   9.201 -0.8296 -0.1313  1.5759
  227ccc     H6 6022   6.937   5.785   9.136 -1.1328 -0.4839 -0.5260
  227ccc     N1 6023   6.643   5.969   8.876  0.6080 -0.1945 -0.2348
  227ccc     H7 6024   6.603   5.881   8.842 -0.1804 -0.7506  1.9668
  227ccc     H8 6025   6.567   6.016   8.926  1.8304  0.8467  0.7191
  227ccc     O1 6026   6.839   5.787   9.314 -0.0269  0.2555 -0.1414
  227ccc    H17 6027   6.655   6.025   8.790 -0.4936  0.0970 -0.2169
  228ccc     C1 6028   7.176   6.005   9.842 -0.3908 -0.0538  0.1541
  228ccc     H1 6029   7.149   5.922   9.776 -0.7971  0.7886 -0.7708
  228ccc     H2 6030   7.279   5.992   9.876  0.5418 -0.4456 -2.5701
  228ccc     C2 6031   7.081   5.999   9.961  0.1545 -0.3107 -0.2413
  228ccc     H3 6032   7.072   6.093  10.016 -1.9286 -0.5758 -0.0199
  228ccc     H4 6033   6.982   5.980   9.917  0.1678 -0.9796  0.0066
  228ccc     C3 6034   7.114   5.886  10.062  0.3424 -0.0737 -0.0846
  228ccc     H5 6035   7.041   5.855  10.138  1.2541 -2.3100 -0.0306
  228ccc     H6 6036   7.204   5.923  10.113  0.7064 -1.9890  0.7536
  228ccc     N1 6037   7.158   6.131   9.758  0.1508 -0.6899  0.5589
  228ccc     H7 6038   7.174   6.126   9.657 -0.0352  2.3409  0.2952
  228ccc     H8 6039   7.058   6.155   9.772 -0.3985 -1.7507 -1.2017
  228ccc     O1 6040   7.146   5.775   9.975 -0.3793 -0.0663  0.0487
  228ccc    H17 6041   7.199   6.218   9.793 -0.6656  0.2898 -0.8146
  229ccc     C1 6042   6.621   4.182   9.779  0.0605  0.2454 -0.7040
  229ccc     H1 6043   6.696   4.261   9.785  1.2822 -0.5161 -4.0926
  229ccc     H2 6044   6.557   4.172   9.692 -3.8257 -0.9058  1.9892
  229ccc     C2 6045   6.527   4.214   9.899  0.2653 -0.1512 -0.1787
  229ccc     H3 6046   6.571   4.207   9.999 -2.4096  1.4262  1.2376
  229ccc     H4 6047   6.492   4.317   9.885  0.5381 -0.3885 -3.4957
  229ccc     C3 6048   6.406   4.126   9.889 -0.1507  0.5187  0.6827
  229ccc     H5 6049   6.415   4.028   9.939 -0.2971  0.4582  0.5902
  229ccc     H6 6050   6.404   4.097   9.783  2.4927 -2.5993  1.2933
  229ccc     N1 6051   6.689   4.050   9.791  0.0570 -0.0994  0.3664
  229ccc     H7 6052   6.625   3.970   9.778 -0.2142  0.3770 -1.7354
  229ccc     H8 6053   6.757   4.037   9.714  0.0575  1.2823  0.0967
  229ccc     O1 6054   6.292   4.203   9.930  0.0045  0.1841  0.5146
  229ccc    H17 6055   6.740   4.035   9.879  0.1940  0.3735  0.3687
  230ccc     C1 6056   5.516   4.292  10.519 -0.9289 -0.3967  0.0334
  230ccc     H1 6057   5.523   4.229  10.608 -0.6825  1.7969  1.6179
  230ccc     H2 6058   5.444   4.373  10.531 -0.5906 -0.2215  0.8932
  230ccc     C2 6059   5.477   4.207  10.391  0.0600 -0.3551 -0.6422
  230ccc     H3 6060   5.561   4.138  10.374  1.8302  1.7988 -0.9777
  230ccc     H4 6061   5.385   4.153  10.415 -1.1941  0.8591 -2.4709
  230ccc     C3 6062   5.470   4.286  10.250  0.2029 -0.4732  0.0628
  230ccc     H5 6063   5.413   4.377  10.272  1.2468  0.1372  0.3111
  230ccc     H6 6064   5.413   4.233  10.173 -0.2986 -1.2972  0.9835
  230ccc     N1 6065   5.649   4.347  10.512 -0.7085 -0.2747 -0.7238
  230ccc     H7 6066   5.723   4.275  10.511 -1.1826 -0.7741 -0.4558
  230ccc     H8 6067   5.662   4.418  10.438  1.6719  3.4289  2.7972
  230ccc     O1 6068   5.596   4.331  10.205  0.2401  0.7559  0.4470
  230ccc    H17 6069   5.668   4.399  10.599 -1.5839  0.8265 -1.1686
  231ccc     C1 6070   6.068   3.014  10.056  0.0833  0.6630 -0.2902
  231ccc     H1 6071   6.107   2.912  10.049 -2.0137 -0.1328 -1.1901
  231ccc     H2 6072   6.014   3.026  10.150 -1.3017  0.0137 -0.9757
  231ccc     C2 6073   5.962   3.044   9.951  0.3099 -0.5296  0.3840
  231ccc     H3 6074   5.913   3.141   9.965  0.3605 -0.0060 -2.4100
  231ccc     H4 6075   6.008   3.054   9.852  0.9625 -0.7277  0.6613
  231ccc     C3 6076   5.860   2.929   9.950 -0.4404  0.0941  0.0081
  231ccc     H5 6077   5.916   2.835   9.944 -0.2635  0.1723  0.3757
  231ccc     H6 6078   5.794   2.937   9.863  0.1894  1.4508 -0.3736
  231ccc     N1 6079   6.187   3.115  10.050  0.8110 -0.8017  0.4223
  231ccc     H7 6080   6.239   3.093   9.964 -1.3648  0.0008 -1.1779
  231ccc     H8 6081   6.155   3.213  10.047 -0.5492 -1.1831  1.6457
  231ccc     O1 6082   5.794   2.937  10.074  0.0548  0.2539  0.5391
  231ccc    H17 6083   6.254   3.114  10.128  0.9005  2.7465  0.5541
  232ccc     C1 6084   4.786   2.898   9.801  0.5573 -0.0074  0.1202
  232ccc     H1 6085   4.876   2.842   9.779  0.0453 -0.3984 -1.0191
  232ccc     H2 6086   4.730   2.919   9.710  1.7975  1.9212 -0.2497
  232ccc     C2 6087   4.810   3.031   9.868 -0.2504 -0.3290  0.2954
  232ccc     H3 6088   4.711   3.071   9.894 -0.3681 -0.9840  0.8874
  232ccc     H4 6089   4.865   3.014   9.962 -2.8534  0.4027  2.0812
  232ccc     C3 6090   4.871   3.142   9.785  0.1545  0.6465  0.2710
  232ccc     H5 6091   4.911   3.224   9.846  1.8802  0.2139 -0.2281
  232ccc     H6 6092   4.795   3.183   9.717  0.1845 -1.4911 -1.1513
  232ccc     N1 6093   4.702   2.807   9.886  0.1048 -0.1708  0.0197
  232ccc     H7 6094   4.660   2.854   9.967 -2.5147  2.4140 -2.5629
  232ccc     H8 6095   4.621   2.773   9.832  0.5665  0.0282 -0.8122
  232ccc     O1 6096   4.971   3.081   9.700 -0.5067  0.3980  0.3268
  232ccc    H17 6097   4.753   2.722   9.914 -0.4865 -0.8160 -0.8177
  233ccc     C1 6098   5.919   2.763  10.788 -0.6716 -0.2922 -0.5822
  233ccc     H1 6099   5.902   2.792  10.684  0.0461 -2.5451 -1.3909
  233ccc     H2 6100   5.911   2.655  10.780  1.5274 -0.5409 -0.1808
  233ccc     C2 6101   5.815   2.820  10.888 -0.8500 -0.0983  0.0329
  233ccc     H3 6102   5.836   2.777  10.987  1.9795  2.8197  0.8828
  233ccc     H4 6103   5.815   2.928  10.908  1.4623  0.8406 -3.9583
  233ccc     C3 6104   5.681   2.774  10.839 -0.4118  0.3445  0.5198
  233ccc     H5 6105   5.612   2.783  10.924  0.5813 -0.6857  1.4787
  233ccc     H6 6106   5.685   2.665  10.822 -1.8003  0.2832  0.3879
  233ccc     N1 6107   6.069   2.787  10.820 -0.6350  0.5260  0.0918
  233ccc     H7 6108   6.072   2.887  10.843  0.5716  0.4537  0.3084
  233ccc     H8 6109   6.106   2.746  10.906  0.7884  1.5515 -0.0053
  233ccc     O1 6110   5.644   2.862  10.728  0.3117 -0.4254 -0.2214
  233ccc    H17 6111   6.137   2.772  10.745 -0.1315  3.2968 -0.0879
  234ccc     C1 6112   4.892   2.898  10.728 -0.1676 -0.6927  0.7746
  234ccc     H1 6113   4.999   2.917  10.739 -0.1226 -0.3689 -0.1672
  234ccc     H2 6114   4.882   2.809  10.665  0.6492  0.2123 -0.6717
  234ccc     C2 6115   4.813   3.014  10.666  1.4262 -0.1567 -0.0154
  234ccc     H3 6116   4.707   2.988  10.652  1.2052 -0.1413  1.4083
  234ccc     H4 6117   4.811   3.096  10.739  1.1159  0.8352 -1.1254
  234ccc     C3 6118   4.875   3.055  10.531 -0.3688 -0.1021 -1.0237
  234ccc     H5 6119   4.821   3.132  10.473  0.6052 -0.1828 -2.0675
  234ccc     H6 6120   4.875   2.966  10.467 -2.3171 -0.6379 -0.3494
  234ccc     N1 6121   4.843   2.859  10.862  0.3779  0.2927  0.5589
  234ccc     H7 6122   4.745   2.829  10.863 -0.1014  1.5419 -1.6098
  234ccc     H8 6123   4.902   2.786  10.905 -0.1703 -0.8595 -0.6014
  234ccc     O1 6124   5.012   3.097  10.560  0.1737  0.0974  0.3788
  234ccc    H17 6125   4.849   2.941  10.924  1.8275  1.5111 -1.0866
  235ccc     C1 6126   7.569   5.241  10.660  0.6650  0.0277  0.0871
  235ccc     H1 6127   7.618   5.145  10.641 -1.5680 -1.1052 -0.3570
  235ccc     H2 6128   7.473   5.205  10.696  0.1215  0.1725 -1.1496
  235ccc     C2 6129   7.558   5.330  10.535  0.4125  0.0201 -0.2290
  235ccc     H3 6130   7.521   5.427  10.571  0.6350  0.4449 -1.1242
  235ccc     H4 6131   7.658   5.350  10.496  0.5936 -0.1557  0.1382
  235ccc     C3 6132   7.463   5.258  10.428  0.0182  0.5699  0.9078
  235ccc     H5 6133   7.452   5.316  10.336 -1.8480 -1.8854 -0.5530
  235ccc     H6 6134   7.360   5.244  10.464 -0.5141 -0.8285 -1.0196
  235ccc     N1 6135   7.650   5.303  10.770  0.0234 -0.5342  0.3322
  235ccc     H7 6136   7.596   5.386  10.798 -0.0521 -0.2301 -0.6886
  235ccc     H8 6137   7.648   5.243  10.854 -2.6645 -0.5972  0.3115
  235ccc     O1 6138   7.511   5.123  10.410 -0.0790 -0.5572  0.2861
  235ccc    H17 6139   7.748   5.323  10.745  0.6479 -0.5685  2.5491
  236ccc     C1 6140   6.599   4.892  10.455  0.0246  0.2451 -0.1441
  236ccc     H1 6141   6.599   5.000  10.473  1.4940  0.0258  1.5451
  236ccc     H2 6142   6.663   4.842  10.528 -1.8790 -0.0354  1.4167
  236ccc     C2 6143   6.657   4.844  10.321 -0.5378 -0.8483  0.6459
  236ccc     H3 6144   6.641   4.736  10.329 -1.6213 -0.9467 -1.9281
  236ccc     H4 6145   6.598   4.869  10.231  1.3766 -2.6931 -1.2475
  236ccc     C3 6146   6.808   4.876  10.289 -0.6945  0.6985  0.4877
  236ccc     H5 6147   6.816   4.980  10.255 -2.2252  0.8171  0.4216
  236ccc     H6 6148   6.852   4.817  10.208  0.4918  1.2638  0.7026
  236ccc     N1 6149   6.458   4.850  10.485  0.1988 -0.4042 -0.5534
  236ccc     H7 6150   6.401   4.852  10.400  0.4307  3.0466 -0.7585
  236ccc     H8 6151   6.474   4.752  10.513  3.3835 -0.3991 -1.8370
  236ccc     O1 6152   6.886   4.860  10.407  0.6276  0.0526 -0.1421
  236ccc    H17 6153   6.415   4.913  10.555  0.3123 -0.9382  0.0073
  237ccc     C1 6154   7.621   5.809  10.450  0.2332  0.9568 -0.1755
  237ccc     H1 6155   7.525   5.762  10.470  0.7658  0.1630  0.5947
  237ccc     H2 6156   7.610   5.903  10.396 -1.9109  2.2493  2.2524
  237ccc     C2 6157   7.705   5.700  10.381 -0.7328 -0.4589  0.1181
  237ccc     H3 6158   7.806   5.739  10.364 -0.8179  0.1053  0.8702
  237ccc     H4 6159   7.722   5.609  10.439 -0.0116 -1.6793 -1.9151
  237ccc     C3 6160   7.645   5.665  10.244  0.2052  0.2578  0.0723
  237ccc     H5 6161   7.715   5.607  10.183  0.4364  0.9342 -0.3165
  237ccc     H6 6162   7.612   5.757  10.194  0.3280  0.4449  0.3381
  237ccc     N1 6163   7.686   5.836  10.583 -0.0494  0.0647 -0.2691
  237ccc     H7 6164   7.680   5.749  10.638 -1.4476  0.2277 -0.1048
  237ccc     H8 6165   7.784   5.858  10.562  0.4522 -0.5590  1.2781
  237ccc     O1 6166   7.532   5.585  10.264 -0.5101 -0.2106  0.4852
  237ccc    H17 6167   7.638   5.907  10.641 -2.0026  0.5862 -2.3892
  238ccc     C1 6168   6.584   5.748  10.285 -0.3699  0.9919 -0.0477
  238ccc     H1 6169   6.528   5.840  10.301 -1.6155  0.1378  0.7198
  238ccc     H2 6170   6.679   5.754  10.338  0.6527 -1.5217 -1.4222
  238ccc     C2 6171   6.610   5.717  10.133 -0.6783  0.4795  0.1473
  238ccc     H3 6172   6.509   5.726  10.092 -0.6221  4.2360  0.4911
  238ccc     H4 6173   6.671   5.799  10.093  0.2121 -0.4107 -0.3806
  238ccc     C3 6174   6.673   5.583  10.103 -0.3532  0.3760 -0.2513
  238ccc     H5 6175   6.691   5.579   9.995  0.5056 -2.1377 -0.0815
  238ccc     H6 6176   6.597   5.510  10.135  0.3814 -0.6136 -0.7027
  238ccc     N1 6177   6.498   5.642  10.355  0.6995  0.0005 -0.2813
  238ccc     H7 6178   6.534   5.546  10.356  2.8517  0.6887  3.0637
  238ccc     H8 6179   6.475   5.666  10.453 -0.2159 -0.3817 -0.3863
  238ccc     O1 6180   6.785   5.566  10.192  0.2529  0.0815 -0.2476
  238ccc    H17 6181   6.403   5.632  10.316 -0.3781 -0.2632  2.1864
  239ccc     C1 6182   3.826   4.456   8.867 -0.2886  0.2419  0.1612
  239ccc     H1 6183   3.840   4.349   8.881  0.7637  0.5961  2.1594
  239ccc     H2 6184   3.806   4.485   8.764  0.0874 -1.6033 -0.4599
  239ccc     C2 6185   3.954   4.533   8.915  0.0331  0.1301 -0.6544
  239ccc     H3 6186   4.042   4.496   8.860  0.2805  2.9976 -2.3931
  239ccc     H4 6187   3.937   4.638   8.889  1.0181 -0.1608 -2.6503
  239ccc     C3 6188   3.976   4.531   9.070  0.8268 -0.1555  0.0150
  239ccc     H5 6189   4.001   4.430   9.104  3.3017 -1.2983 -4.3887
  239ccc     H6 6190   3.885   4.565   9.122  2.5808  1.7227  2.0758
  239ccc     N1 6191   3.701   4.491   8.939 -0.3345 -0.2178 -0.1371
  239ccc     H7 6192   3.689   4.452   9.034 -1.6595 -0.9299 -0.5706
  239ccc     H8 6193   3.690   4.594   8.942  0.6912 -0.1016  0.3586
  239ccc     O1 6194   4.080   4.620   9.087 -0.2200  0.2821  0.7921
  239ccc    H17 6195   3.623   4.447   8.889  0.8359 -2.0755 -0.4301
  240ccc     C1 6196   4.899   4.788   9.758  0.8657  0.7177  0.8969
  240ccc     H1 6197   4.938   4.732   9.843 -1.0264  1.1671  2.1189
  240ccc     H2 6198   4.791   4.790   9.775  0.1560 -4.4838 -0.9657
  240ccc     C2 6199   4.927   4.723   9.616  0.5266 -1.0326 -0.3706
  240ccc     H3 6200   5.035   4.706   9.610  0.8295 -0.4501  2.2267
  240ccc     H4 6201   4.878   4.625   9.615 -0.1097 -0.7496  0.8254
  240ccc     C3 6202   4.867   4.812   9.504  0.2567 -1.2245  0.2414
  240ccc     H5 6203   4.891   4.776   9.403 -1.1595  0.3721 -0.7147
  240ccc     H6 6204   4.904   4.915   9.512 -0.8084 -0.4061 -3.4407
  240ccc     N1 6205   4.955   4.923   9.792 -0.2941 -0.1384  0.0786
  240ccc     H7 6206   4.914   5.004   9.742 -1.3148  0.8195  2.3108
  240ccc     H8 6207   4.933   4.948   9.890 -3.0030 -2.9072  0.3217
  240ccc     O1 6208   4.720   4.823   9.520  0.1012 -0.1592  0.5579
  240ccc    H17 6209   5.055   4.936   9.771 -0.5459  0.2498 -0.9175
  241ccc     C1 6210   3.566   4.235  10.579  0.7096  0.2559 -0.2295
  241ccc     H1 6211   3.638   4.316  10.565  1.1697 -0.2139 -0.6571
  241ccc     H2 6212   3.601   4.166  10.657  1.7492  1.3543  0.3135
  241ccc     C2 6213   3.546   4.169  10.442 -0.1511 -0.3234 -0.0794
  241ccc     H3 6214   3.456   4.109  10.459 -0.2272  0.2064  1.6431
  241ccc     H4 6215   3.520   4.251  10.374 -1.5169  0.3054  1.1401
  241ccc     C3 6216   3.673   4.090  10.393  0.7965 -1.1155  0.3714
  241ccc     H5 6217   3.699   4.007  10.460  1.9332 -0.0086  1.3820
  241ccc     H6 6218   3.761   4.156  10.385  1.3373 -1.8721 -0.0791
  241ccc     N1 6219   3.443   4.304  10.631  0.2534  0.1105  0.0140
  241ccc     H7 6220   3.380   4.237  10.677  0.9222  1.4826  3.2128
  241ccc     H8 6221   3.473   4.375  10.699  0.5164  0.5087 -0.5054
  241ccc     O1 6222   3.646   4.044  10.261 -0.2114  0.1309 -0.3595
  241ccc    H17 6223   3.400   4.358  10.555 -0.8951 -0.0441  0.5395
  242ccc     C1 6224   3.030   3.720   9.661 -0.1884 -0.5016 -0.5473
  242ccc     H1 6225   3.134   3.700   9.688 -1.0071 -3.2728  0.9516
  242ccc     H2 6226   3.013   3.698   9.556  1.3462  2.3168 -1.5010
  242ccc     C2 6227   2.996   3.860   9.686 -0.0769 -0.3558  0.2448
  242ccc     H3 6228   2.895   3.889   9.656 -0.2098  0.6408  1.5669
  242ccc     H4 6229   3.008   3.883   9.792  1.1043 -0.1073  0.0794
  242ccc     C3 6230   3.097   3.955   9.611  0.2352 -0.5679  0.6949
  242ccc     H5 6231   3.067   4.059   9.629  2.3204  0.2536 -0.2346
  242ccc     H6 6232   3.097   3.937   9.503 -1.9813  2.4178  0.0707
  242ccc     N1 6233   2.939   3.626   9.740 -0.6345 -0.4226 -0.8829
  242ccc     H7 6234   2.985   3.553   9.796 -0.6413 -0.5552 -1.0481
  242ccc     H8 6235   2.879   3.676   9.807  0.1912  0.8375 -1.0435
  242ccc     O1 6236   3.229   3.941   9.667 -0.2996 -0.2598 -0.3955
  242ccc    H17 6237   2.880   3.580   9.670  0.7900 -0.1060 -2.3670
  243ccc     C1 6238   4.050   4.465  10.286  0.0205  0.4841  0.0150
  243ccc     H1 6239   4.071   4.497  10.184  2.0982 -0.4883  0.0772
  243ccc     H2 6240   4.137   4.495  10.345 -0.7121  3.0208 -0.0561
  243ccc     C2 6241   4.035   4.311  10.285  0.7664 -0.3446 -0.0565
  243ccc     H3 6242   3.939   4.281  10.242  1.0976 -1.8878  0.2316
  243ccc     H4 6243   4.119   4.266  10.230  0.0534 -0.1963 -1.3130
  243ccc     C3 6244   4.027   4.256  10.429  0.1647 -0.4429 -0.0185
  243ccc     H5 6245   3.949   4.308  10.486 -0.0868 -2.4446  1.5860
  243ccc     H6 6246   4.122   4.276  10.480 -0.6870  0.4602  1.2576
  243ccc     N1 6247   3.931   4.548  10.334 -0.2307 -0.4824  0.2274
  243ccc     H7 6248   3.927   4.544  10.436  0.8961  1.1003  0.3825
  243ccc     H8 6249   3.946   4.644  10.298 -0.6686 -1.3768 -2.5924
  243ccc     O1 6250   4.008   4.110  10.433  0.1891 -0.2486  0.3390
  243ccc    H17 6251   3.838   4.520  10.300 -0.9093  1.5152  0.2714
  244ccc     C1 6252   3.702   3.175  10.950 -0.2643  0.3566 -0.3583
  244ccc     H1 6253   3.604   3.210  10.980 -0.4548 -0.6850  0.3219
  244ccc     H2 6254   3.774   3.254  10.974 -1.8148  1.9463 -0.7878
  244ccc     C2 6255   3.718   3.160  10.794 -0.2351  0.4386  0.7512
  244ccc     H3 6256   3.822   3.135  10.768 -0.0444  1.3451  0.6216
  244ccc     H4 6257   3.658   3.074  10.761 -1.0842  0.3261  2.4825
  244ccc     C3 6258   3.677   3.291  10.718  0.1805 -0.0576 -0.3172
  244ccc     H5 6259   3.570   3.313  10.729  0.4771  0.5595  1.8394
  244ccc     H6 6260   3.699   3.282  10.611 -2.5450  1.7583 -1.1480
  244ccc     N1 6261   3.740   3.039  11.014  0.1942 -0.0820 -0.1746
  244ccc     H7 6262   3.841   3.023  11.007  0.2332  0.2909 -0.4813
  244ccc     H8 6263   3.721   3.032  11.115  1.8342 -1.2710  0.0931
  244ccc     O1 6264   3.758   3.405  10.772 -0.1389 -0.0143 -0.0529
  244ccc    H17 6265   3.696   2.963  10.961  1.2147  0.3601 -1.7256
  245ccc     C1 6266   5.816   3.392  11.457 -0.5485 -0.2285 -0.2081
  245ccc     H1 6267   5.818   3.501  11.468  0.2593 -0.2014 -0.5423
  245ccc     H2 6268   5.721   3.350  11.423 -1.2888 -2.4792  3.9934
  245ccc     C2 6269   5.841   3.335  11.598  0.0067 -0.3558  0.3220
  245ccc     H3 6270   5.864   3.228  11.602  2.0469  0.0644  1.7314
  245ccc     H4 6271   5.922   3.390  11.649 -0.4952  0.5813  0.1364
  245ccc     C3 6272   5.723   3.369  11.690 -0.0844  0.1433 -0.0989
  245ccc     H5 6273   5.698   3.475  11.685  1.7675  0.5831 -0.9773
  245ccc     H6 6274   5.747   3.338  11.792  1.9763  2.3919  0.2054
  245ccc     N1 6275   5.925   3.369  11.350  0.0308 -0.2086  0.0240
  245ccc     H7 6276   5.949   3.269  11.345 -0.3520 -0.2339 -1.5035
  245ccc     H8 6277   5.896   3.406  11.259 -1.0124 -0.0025  0.4206
  245ccc     O1 6278   5.605   3.288  11.649  0.1422 -0.0468 -0.1315
  245ccc    H17 6279   6.008   3.421  11.380 -0.4629  0.1946  0.7268
  246ccc     C1 6280   4.808   3.152  11.852 -0.8837 -0.6645 -0.6704
  246ccc     H1 6281   4.751   3.245  11.849 -0.8684 -0.6121  0.4003
  246ccc     H2 6282   4.904   3.168  11.803  0.3239 -1.8787  1.1902
  246ccc     C2 6283   4.738   3.039  11.786  0.3488  0.0670 -0.8991
  246ccc     H3 6284   4.790   2.944  11.806  1.6405  1.1023  1.0392
  246ccc     H4 6285   4.636   3.035  11.826  0.5388  2.2862 -0.0745
  246ccc     C3 6286   4.731   3.079  11.643 -0.0898  0.1463  0.3119
  246ccc     H5 6287   4.697   3.184  11.637 -3.1536 -0.8035 -1.4675
  246ccc     H6 6288   4.655   3.017  11.594  1.3658  0.6283 -2.8045
  246ccc     N1 6289   4.842   3.130  12.000 -0.2880 -0.5621  0.1683
  246ccc     H7 6290   4.859   3.220  12.047 -0.0097 -0.3155 -0.3923
  246ccc     H8 6291   4.759   3.079  12.034  1.2784 -3.5079 -0.0874
  246ccc     O1 6292   4.855   3.067  11.579 -0.3984  0.2132  0.3280
  246ccc    H17 6293   4.917   3.060  12.010 -0.2318 -0.7294 -1.1532
  247ccc     C1 6294   4.024   3.406   6.676  0.0240 -0.0495  0.5892
  247ccc     H1 6295   4.128   3.431   6.701 -0.3906  1.4262  0.9156
  247ccc     H2 6296   3.966   3.495   6.700 -0.4153 -0.5239  1.3121
  247ccc     C2 6297   3.981   3.283   6.763 -0.4585 -0.6364 -0.4040
  247ccc     H3 6298   3.897   3.236   6.711 -1.5001  1.5969 -0.8545
  247ccc     H4 6299   4.057   3.204   6.760 -1.9125 -2.0468 -1.2329
  247ccc     C3 6300   3.952   3.324   6.913  0.0348 -0.1417  0.7040
  247ccc     H5 6301   3.878   3.254   6.954 -1.0676 -1.3882 -3.0323
  247ccc     H6 6302   3.909   3.424   6.907  1.8300  0.5951 -1.3635
  247ccc     N1 6303   4.022   3.389   6.525  0.2782  0.3755 -0.1011
  247ccc     H7 6304   4.021   3.482   6.481  3.5114  0.7608  0.4036
  247ccc     H8 6305   4.103   3.335   6.491 -0.1066 -0.2674 -0.0110
  247ccc     O1 6306   4.072   3.332   6.997 -0.2809  0.3092  0.5811
  247ccc    H17 6307   3.939   3.336   6.495  0.2127  1.3692 -1.8053
  248ccc     C1 6308   4.852   3.035   6.326 -0.3793  0.5523 -0.3228
  248ccc     H1 6309   4.839   3.143   6.319  0.6287  0.7755  0.7860
  248ccc     H2 6310   4.777   2.974   6.276  1.3446 -0.5446 -1.7134
  248ccc     C2 6311   4.866   3.001   6.479 -0.5325 -0.2071 -0.0241
  248ccc     H3 6312   4.940   2.922   6.492 -1.8043 -1.6645 -1.2513
  248ccc     H4 6313   4.907   3.087   6.534  0.3511 -0.0313 -0.9267
  248ccc     C3 6314   4.727   2.960   6.544  1.0275 -0.6954 -0.8260
  248ccc     H5 6315   4.699   2.866   6.495  0.7793 -0.5374 -0.9924
  248ccc     H6 6316   4.650   3.036   6.524  0.4830  0.0759  3.3536
  248ccc     N1 6317   4.983   3.024   6.244  0.2620 -0.5691  0.0028
  248ccc     H7 6318   4.955   3.031   6.145  0.2288 -2.2457 -0.1417
  248ccc     H8 6319   5.049   3.092   6.285 -1.6744  0.3102  1.9074
  248ccc     O1 6320   4.735   2.949   6.686  0.1779  0.1716  0.0548
  248ccc    H17 6321   5.021   2.930   6.260 -1.2072 -1.4514 -1.4074
  249ccc     C1 6322   3.427   3.246   7.110  0.2366 -0.1536  0.1418
  249ccc     H1 6323   3.421   3.317   7.028 -0.3881 -1.5775 -1.0989
  249ccc     H2 6324   3.383   3.300   7.195  2.6120  2.8040 -0.3413
  249ccc     C2 6325   3.574   3.213   7.141 -0.2870 -0.2270  0.0843
  249ccc     H3 6326   3.582   3.150   7.231 -2.0199 -2.2990 -1.0955
  249ccc     H4 6327   3.620   3.156   7.059  0.5728  0.6973 -0.0858
  249ccc     C3 6328   3.665   3.340   7.165  0.3929 -0.0661  0.2233
  249ccc     H5 6329   3.608   3.408   7.230 -1.2909 -1.2354  0.0280
  249ccc     H6 6330   3.709   3.382   7.074  0.3956 -1.9063 -0.6745
  249ccc     N1 6331   3.340   3.124   7.066 -0.0265 -0.1769  0.0508
  249ccc     H7 6332   3.377   3.080   6.980  3.1045 -0.2341  1.3122
  249ccc     H8 6333   3.327   3.050   7.137  1.0157 -2.5215 -2.0244
  249ccc     O1 6334   3.778   3.297   7.244 -0.3078 -0.3008 -0.0617
  249ccc    H17 6335   3.245   3.155   7.041  1.4172  2.2471 -3.2338
  250ccc     C1 6336   3.816   3.190   8.036  0.3397  0.7705  0.3918
  250ccc     H1 6337   3.766   3.281   8.004 -1.0952 -0.4014 -0.8337
  250ccc     H2 6338   3.867   3.200   8.132  1.0081 -2.1121  0.4405
  250ccc     C2 6339   3.910   3.122   7.931  0.5047 -0.6059 -0.6503
  250ccc     H3 6340   3.917   3.015   7.954 -1.7808 -0.5952  0.3165
  250ccc     H4 6341   3.863   3.125   7.832  0.9153 -1.8825 -0.9097
  250ccc     C3 6342   4.054   3.181   7.932  0.4653 -0.4151  0.3802
  250ccc     H5 6343   4.117   3.118   7.869  0.0918 -0.8297  0.4218
  250ccc     H6 6344   4.084   3.199   8.036 -0.4031 -0.3585  0.6229
  250ccc     N1 6345   3.714   3.095   8.082  0.4236 -0.2805  0.2168
  250ccc     H7 6346   3.670   3.053   7.998  0.6957  0.6398 -0.4015
  250ccc     H8 6347   3.764   3.018   8.128 -0.9451 -1.6661 -0.5041
  250ccc     O1 6348   4.033   3.306   7.867 -0.9067 -0.1992 -0.0550
  250ccc    H17 6349   3.639   3.136   8.140 -0.3439 -1.3485  0.0158
  251ccc     C1 6350   5.802   3.650   7.678  0.3008  0.1102 -0.0673
  251ccc     H1 6351   5.860   3.642   7.586 -2.0519  0.5108 -1.6765
  251ccc     H2 6352   5.766   3.549   7.701  0.2289  0.0563 -0.3989
  251ccc     C2 6353   5.691   3.747   7.644  0.1256  0.2548 -0.2957
  251ccc     H3 6354   5.650   3.789   7.737  1.0916 -0.2186  0.3561
  251ccc     H4 6355   5.737   3.835   7.596  0.9861  0.1112  0.2540
  251ccc     C3 6356   5.582   3.691   7.555  0.3641  0.1654  0.3777
  251ccc     H5 6357   5.626   3.656   7.461  2.2434  3.1067  0.0668
  251ccc     H6 6358   5.514   3.770   7.522  1.2823  0.5137 -0.7516
  251ccc     N1 6359   5.895   3.689   7.791  0.4813  0.2159 -0.2638
  251ccc     H7 6360   5.987   3.643   7.782  1.3281  1.3595  2.0088
  251ccc     H8 6361   5.903   3.791   7.787 -1.1050  0.3281 -3.4261
  251ccc     O1 6362   5.515   3.594   7.635  0.1793 -0.4034  0.2915
  251ccc    H17 6363   5.867   3.651   7.883 -0.4611  0.6740 -0.3508
  252ccc     C1 6364   5.660   2.596   8.141 -0.1048 -0.0021 -0.1211
  252ccc     H1 6365   5.608   2.539   8.218 -0.8139  0.9770  0.1436
  252ccc     H2 6366   5.726   2.667   8.191  0.0987 -0.9829  1.0470
  252ccc     C2 6367   5.561   2.678   8.053 -0.8270 -0.1810  0.1211
  252ccc     H3 6368   5.604   2.715   7.959 -0.2910  1.0205  0.8069
  252ccc     H4 6369   5.475   2.615   8.029 -1.9526  0.9803  0.9573
  252ccc     C3 6370   5.519   2.809   8.139 -0.8089  0.1864  0.2435
  252ccc     H5 6371   5.608   2.872   8.139  0.4044 -1.4454 -0.5707
  252ccc     H6 6372   5.495   2.783   8.242  1.7411 -3.0105  0.1801
  252ccc     N1 6373   5.748   2.496   8.068 -0.3876  0.2018 -0.8614
  252ccc     H7 6374   5.812   2.542   8.002  0.9455 -0.1057  0.1775
  252ccc     H8 6375   5.814   2.447   8.130 -1.1533  0.1079 -0.1015
  252ccc     O1 6376   5.417   2.882   8.069 -0.2889 -0.0044 -0.4964
  252ccc    H17 6377   5.695   2.428   8.011 -0.6939 -0.3757  0.0887
  253ccc     C1 6378   6.076   1.876   8.850  0.2033 -0.0597  0.1159
  253ccc     H1 6379   6.139   1.787   8.843  0.6328  0.1965  0.6836
  253ccc     H2 6380   5.974   1.845   8.825  1.3748 -1.8484 -3.1372
  253ccc     C2 6381   6.099   1.989   8.753  0.2166 -0.2223 -0.6175
  253ccc     H3 6382   6.201   2.028   8.765 -0.4570  1.1814  0.9416
  253ccc     H4 6383   6.100   1.948   8.651 -0.7898  0.1066 -0.7734
  253ccc     C3 6384   6.000   2.112   8.767  0.0371  1.1319  0.2759
  253ccc     H5 6385   6.055   2.198   8.728  0.1208  0.2654 -1.6038
  253ccc     H6 6386   5.971   2.113   8.873 -0.8562 -1.1842  0.1171
  253ccc     N1 6387   6.074   1.901   8.995 -0.8179  0.2235  0.1113
  253ccc     H7 6388   6.024   1.985   9.026  1.5961  2.4763 -1.6639
  253ccc     H8 6389   6.039   1.813   9.036 -1.5176  0.1623 -0.5897
  253ccc     O1 6390   5.883   2.092   8.684 -0.6485 -0.3365  0.4308
  253ccc    H17 6391   6.167   1.924   9.031 -1.2945  1.6864  0.4616
  254ccc     C1 6392   5.025   1.583   8.161 -0.2580 -0.0358 -0.4738
  254ccc     H1 6393   4.975   1.622   8.072  0.5204  0.4130 -0.7274
  254ccc     H2 6394   5.015   1.652   8.245 -0.2330  0.0135 -0.5101
  254ccc     C2 6395   5.171   1.577   8.132  0.0274  0.0661 -0.0690
  254ccc     H3 6396   5.233   1.523   8.205 -1.1511 -0.0529  0.8647
  254ccc     H4 6397   5.183   1.525   8.036 -1.5005 -1.8218  0.6985
  254ccc     C3 6398   5.216   1.719   8.137  0.5491 -0.7480 -0.1007
  254ccc     H5 6399   5.151   1.785   8.078 -0.2098  0.3995  1.8805
  254ccc     H6 6400   5.318   1.723   8.098  0.2032 -4.1998 -1.7456
  254ccc     N1 6401   4.963   1.453   8.195  0.1392 -0.5695  0.6137
  254ccc     H7 6402   4.863   1.475   8.207 -0.0320 -0.1383 -1.3155
  254ccc     H8 6403   4.966   1.393   8.112  1.6461  2.2773 -1.5697
  254ccc     O1 6404   5.208   1.770   8.272  1.0396  0.4648 -0.1898
  254ccc    H17 6405   4.995   1.413   8.284  0.1494  3.5585  2.7093
  255ccc     C1 6406   4.928   8.983   6.977  0.1619 -0.7596  0.3124
  255ccc     H1 6407   4.827   8.945   6.994  0.1482 -0.0973  1.9139
  255ccc     H2 6408   4.955   8.962   6.874 -1.4105  0.4861 -0.3901
  255ccc     C2 6409   5.026   8.908   7.074 -0.2279 -0.1245  0.0529
  255ccc     H3 6410   5.125   8.953   7.059 -0.2708 -0.0178  0.0884
  255ccc     H4 6411   4.992   8.918   7.178  1.0086 -0.3259  0.4860
  255ccc     C3 6412   5.036   8.760   7.043  0.5126 -0.0151 -0.1987
  255ccc     H5 6413   5.092   8.744   6.950  0.1476  1.5860 -0.7253
  255ccc     H6 6414   4.931   8.737   7.018  0.3493 -1.0896  1.3317
  255ccc     N1 6415   4.921   9.133   6.998 -0.5358 -0.0947  0.0689
  255ccc     H7 6416   4.865   9.163   7.079 -1.2662  2.3362 -1.2348
  255ccc     H8 6417   5.009   9.185   7.004 -1.5705  1.5340  2.3073
  255ccc     O1 6418   5.069   8.675   7.156 -0.1589  0.2013  0.3559
  255ccc    H17 6419   4.874   9.168   6.914 -1.7254 -1.8656 -0.0737
  256ccc     C1 6420   5.686   9.016   6.885  0.1920 -0.3167 -0.0233
  256ccc     H1 6421   5.639   8.994   6.788  1.0372  0.3198 -0.5908
  256ccc     H2 6422   5.791   8.988   6.896  0.2331  0.3949  1.7565
  256ccc     C2 6423   5.602   8.923   6.978 -0.0223  0.2680 -0.2282
  256ccc     H3 6424   5.620   8.936   7.085 -1.9406 -0.5151  0.2364
  256ccc     H4 6425   5.493   8.936   6.969 -0.5113 -2.8558  0.0228
  256ccc     C3 6426   5.633   8.774   6.940 -0.0999 -0.7304  0.2997
  256ccc     H5 6427   5.734   8.752   6.976  0.2707 -2.4544 -1.5649
  256ccc     H6 6428   5.630   8.770   6.830 -1.2544 -1.6252  0.3434
  256ccc     N1 6429   5.673   9.165   6.901  0.3120  0.6596 -0.2054
  256ccc     H7 6430   5.712   9.210   6.818  0.8123 -0.5327 -0.6371
  256ccc     H8 6431   5.573   9.189   6.914  0.3269  0.2083  0.9022
  256ccc     O1 6432   5.531   8.696   7.007 -0.4167  0.3996  0.7287
  256ccc    H17 6433   5.717   9.198   6.988 -1.9652 -0.4599  1.4991
  257ccc     C1 6434   5.253   7.824   6.334  0.1533  0.0675 -0.4877
  257ccc     H1 6435   5.159   7.878   6.317  0.8344  1.7859  0.8918
  257ccc     H2 6436   5.247   7.720   6.366 -0.8972 -0.2647 -1.6941
  257ccc     C2 6437   5.343   7.902   6.428 -0.3340 -1.1694  0.6127
  257ccc     H3 6438   5.449   7.872   6.424 -0.1844 -0.5015 -1.6637
  257ccc     H4 6439   5.340   8.009   6.407  0.6784 -1.2740 -0.1076
  257ccc     C3 6440   5.301   7.880   6.574  0.4201  0.1738 -0.1941
  257ccc     H5 6441   5.370   7.940   6.635 -0.8306  1.0576  0.3899
  257ccc     H6 6442   5.299   7.772   6.593 -0.6952  0.0900 -0.6872
  257ccc     N1 6443   5.302   7.818   6.194 -0.1240 -0.5025  0.0686
  257ccc     H7 6444   5.238   7.771   6.129  1.3984  0.8913 -2.6302
  257ccc     H8 6445   5.318   7.911   6.151  0.7726 -1.5815 -2.0951
  257ccc     O1 6446   5.167   7.932   6.595  0.1772 -0.7305  0.2473
  257ccc    H17 6447   5.393   7.769   6.194 -0.7383 -1.6575  0.7502
  258ccc     C1 6448   5.208   8.553   6.508  0.4127 -0.1513  0.1444
  258ccc     H1 6449   5.109   8.524   6.543  0.5868 -0.5614  0.3082
  258ccc     H2 6450   5.269   8.462   6.512  1.9861  0.8478 -0.3679
  258ccc     C2 6451   5.267   8.656   6.608  0.3655  0.1814  0.0791
  258ccc     H3 6452   5.367   8.681   6.570  0.6749 -2.1963 -0.8513
  258ccc     H4 6453   5.203   8.745   6.609  0.4469  0.2434  1.1962
  258ccc     C3 6454   5.272   8.591   6.754  0.2261 -0.3199 -0.1367
  258ccc     H5 6455   5.308   8.664   6.827  1.3440 -1.1129  0.1278
  258ccc     H6 6456   5.349   8.513   6.760  2.7706  2.0499  0.2567
  258ccc     N1 6457   5.204   8.591   6.362 -0.2628  0.0247 -0.4056
  258ccc     H7 6458   5.298   8.606   6.324 -0.1334 -0.2492 -0.1950
  258ccc     H8 6459   5.159   8.516   6.308  0.5673 -1.9758  1.5450
  258ccc     O1 6460   5.138   8.546   6.791 -0.4073 -0.1131  0.0424
  258ccc    H17 6461   5.151   8.679   6.351  2.8553  2.3976  1.7211
  259ccc     C1 6462   6.020   6.786   5.409  0.6789  0.2113 -0.2617
  259ccc     H1 6463   6.085   6.872   5.397  1.4737 -0.5263 -1.5188
  259ccc     H2 6464   5.918   6.819   5.428  1.1805  1.4819  0.3185
  259ccc     C2 6465   6.073   6.704   5.527  0.6938 -0.0956 -0.2320
  259ccc     H3 6466   6.020   6.610   5.545 -0.0006 -0.1039 -2.0841
  259ccc     H4 6467   6.175   6.678   5.496 -0.2829 -2.8462 -1.4169
  259ccc     C3 6468   6.050   6.786   5.654  0.9192  0.2019 -0.5700
  259ccc     H5 6469   5.963   6.750   5.709  2.3695 -1.5472  0.7103
  259ccc     H6 6470   6.049   6.891   5.621  1.6963 -0.0857 -1.5762
  259ccc     N1 6471   6.011   6.714   5.280  0.2325  0.8406  0.2614
  259ccc     H7 6472   6.100   6.663   5.267  0.0331  0.1656  1.4262
  259ccc     H8 6473   5.944   6.636   5.278 -0.4840  1.4524 -1.4130
  259ccc     O1 6474   6.162   6.759   5.736  0.3539  0.4338  0.0657
  259ccc    H17 6475   5.978   6.774   5.204  0.0209 -0.8881 -1.0824
  260ccc     C1 6476   5.380   6.936   5.924  0.2630 -0.1672 -0.0680
  260ccc     H1 6477   5.422   6.985   5.836 -0.1439 -1.4173 -0.9946
  260ccc     H2 6478   5.382   6.994   6.015 -0.4285 -1.8845  1.0947
  260ccc     C2 6479   5.444   6.792   5.945  0.3407  0.3843  0.2844
  260ccc     H3 6480   5.398   6.764   6.040 -0.7581  1.3839  0.0681
  260ccc     H4 6481   5.411   6.734   5.858  3.6718 -0.5938 -0.4703
  260ccc     C3 6482   5.601   6.788   5.939  0.4356  0.4764 -0.5857
  260ccc     H5 6483   5.636   6.809   5.837  0.0540 -3.5227 -1.7114
  260ccc     H6 6484   5.640   6.687   5.953 -0.0067  0.4726  0.7351
  260ccc     N1 6485   5.228   6.931   5.901 -0.0311 -0.2276 -0.4276
  260ccc     H7 6486   5.196   6.915   5.804 -2.8133 -0.0705  0.3597
  260ccc     H8 6487   5.194   6.849   5.953  2.8828 -0.0219  2.0448
  260ccc     O1 6488   5.651   6.869   6.038 -0.0160  0.0862 -0.7166
  260ccc    H17 6489   5.179   7.016   5.931 -0.3727  1.3132 -4.6005
  261ccc     C1 6490   6.879   6.301   6.524  0.3792  0.0626 -0.2010
  261ccc     H1 6491   6.834   6.343   6.615 -1.4647 -0.0327 -1.0155
  261ccc     H2 6492   6.878   6.369   6.439  2.9304  1.6108  0.8836
  261ccc     C2 6493   6.794   6.177   6.486  0.1030  0.2878  0.8669
  261ccc     H3 6494   6.816   6.144   6.384  0.8830 -1.1461  1.4727
  261ccc     H4 6495   6.829   6.094   6.548  2.2859 -0.1127 -0.7862
  261ccc     C3 6496   6.642   6.214   6.489 -0.9883 -0.6306 -0.0419
  261ccc     H5 6497   6.585   6.136   6.437  0.0218 -2.4426  1.4101
  261ccc     H6 6498   6.625   6.304   6.430 -0.5909 -0.8221 -0.4573
  261ccc     N1 6499   7.027   6.285   6.542  0.1818 -0.4436 -0.1904
  261ccc     H7 6500   7.070   6.304   6.450 -1.9276 -1.8892 -1.5576
  261ccc     H8 6501   7.072   6.353   6.605 -2.1446  1.1112 -0.0975
  261ccc     O1 6502   6.594   6.223   6.621 -0.1119  0.4450  0.1658
  261ccc    H17 6503   7.047   6.188   6.572 -0.2567 -0.6034 -0.4055
  262ccc     C1 6504   6.408   6.980   7.242  0.6345 -0.4240 -0.4536
  262ccc     H1 6505   6.314   7.017   7.282  0.9259  0.8506 -0.8810
  262ccc     H2 6506   6.382   6.924   7.152  2.7232 -1.8825 -0.2259
  262ccc     C2 6507   6.467   6.875   7.339  0.4019 -0.3025  0.0427
  262ccc     H3 6508   6.562   6.842   7.294 -0.1012 -0.4397 -0.9521
  262ccc     H4 6509   6.476   6.920   7.438 -0.9079 -0.7450  0.3718
  262ccc     C3 6510   6.382   6.746   7.352 -0.2936 -0.6374 -0.2604
  262ccc     H5 6511   6.280   6.761   7.388 -1.5942  0.2724 -3.9378
  262ccc     H6 6512   6.435   6.671   7.413 -0.1372 -0.2816  0.0447
  262ccc     N1 6513   6.498   7.093   7.194  0.2079  0.3638 -0.0328
  262ccc     H7 6514   6.537   7.137   7.279 -1.6596  1.3503  0.3681
  262ccc     H8 6515   6.572   7.053   7.135  1.3505  2.3801 -0.0385
  262ccc     O1 6516   6.369   6.690   7.218 -0.0848  0.5246  0.2200
  262ccc    H17 6517   6.453   7.163   7.134  2.2539 -0.7590 -3.0777
  263ccc     C1 6518   6.555   8.355   7.186  0.1046  1.0446 -0.4143
  263ccc     H1 6519   6.550   8.246   7.189  1.1868  0.8657 -3.0061
  263ccc     H2 6520   6.613   8.404   7.264 -1.0692 -1.4008  2.1922
  263ccc     C2 6521   6.416   8.431   7.195 -0.5583 -0.0733 -0.3952
  263ccc     H3 6522   6.428   8.540   7.181 -1.4936  0.1324  0.3203
  263ccc     H4 6523   6.359   8.414   7.103  0.5132  1.2567 -1.3651
  263ccc     C3 6524   6.338   8.398   7.334 -0.2669 -0.5886  0.5753
  263ccc     H5 6525   6.282   8.304   7.321 -1.4296  0.1044  0.4063
  263ccc     H6 6526   6.256   8.467   7.358  0.6505  0.4515  0.7826
  263ccc     N1 6527   6.623   8.382   7.057 -0.2066 -0.2318  0.4694
  263ccc     H7 6528   6.712   8.332   7.062  0.1641  0.3840  0.2044
  263ccc     H8 6529   6.566   8.342   6.980  3.1190 -0.2960 -2.1822
  263ccc     O1 6530   6.429   8.400   7.448 -0.6725 -0.4838 -0.0071
  263ccc    H17 6531   6.639   8.480   7.027 -2.4669 -0.5056 -2.0648
  264ccc     C1 6532   6.315   9.376   7.809 -0.1704 -0.4283 -0.4536
  264ccc     H1 6533   6.321   9.305   7.891 -0.7403  0.3010  0.2388
  264ccc     H2 6534   6.216   9.422   7.810 -0.7386 -1.4687 -2.5847
  264ccc     C2 6535   6.341   9.307   7.674  0.3517  0.1459  0.3382
  264ccc     H3 6536   6.355   9.376   7.590  1.9957 -0.1892  0.2947
  264ccc     H4 6537   6.438   9.256   7.672  0.1369 -0.2845 -1.7948
  264ccc     C3 6538   6.243   9.190   7.650 -0.6562 -0.4088  0.4010
  264ccc     H5 6539   6.263   9.156   7.547  0.0763 -3.5809  1.4935
  264ccc     H6 6540   6.145   9.239   7.658 -0.5876  0.3841 -2.3269
  264ccc     N1 6541   6.423   9.486   7.838  0.1737  0.0481  0.3582
  264ccc     H7 6542   6.398   9.543   7.921  1.8513  1.0584  0.2302
  264ccc     H8 6543   6.516   9.440   7.837 -1.6320 -3.9945 -0.1635
  264ccc     O1 6544   6.271   9.073   7.727 -0.2347  0.2919  0.5416
  264ccc    H17 6545   6.422   9.541   7.751  0.5634  1.0674  0.9676
  265ccc     C1 6546   6.771   6.927   8.857 -0.3704  0.4784  0.0659
  265ccc     H1 6547   6.808   7.026   8.883 -0.7442  0.6870 -0.1801
  265ccc     H2 6548   6.860   6.870   8.827 -0.0168  1.4011 -0.6841
  265ccc     C2 6549   6.678   6.951   8.741  0.2130 -0.3601 -0.5913
  265ccc     H3 6550   6.708   6.894   8.653  2.0044  0.9761 -0.9103
  265ccc     H4 6551   6.580   6.915   8.773  0.9315 -1.5572  0.3642
  265ccc     C3 6552   6.671   7.101   8.705 -0.4004 -0.3471 -0.1571
  265ccc     H5 6553   6.599   7.114   8.623  0.8571 -0.4670 -1.3200
  265ccc     H6 6554   6.774   7.129   8.678 -0.6208 -0.2565 -0.9304
  265ccc     N1 6555   6.725   6.865   8.985  0.4123 -0.6489 -0.4307
  265ccc     H7 6556   6.801   6.819   9.037  0.4629 -0.7815 -0.6184
  265ccc     H8 6557   6.674   6.929   9.047 -1.2756 -2.8821  0.6735
  265ccc     O1 6558   6.636   7.169   8.821  0.0114 -0.0143  0.7409
  265ccc    H17 6559   6.664   6.785   8.961 -0.2550 -0.7727  1.4742
  266ccc     C1 6560   6.881   8.210   8.979 -0.0383  0.0533 -0.5552
  266ccc     H1 6561   6.924   8.182   9.076 -1.2209 -0.1932 -0.0777
  266ccc     H2 6562   6.927   8.304   8.949  0.9531 -1.0905 -2.9129
  266ccc     C2 6563   6.735   8.227   9.006  0.2864  0.6742 -0.4965
  266ccc     H3 6564   6.714   8.318   9.064 -0.8305 -0.8552  1.6214
  266ccc     H4 6565   6.696   8.244   8.904  0.3421  1.5581 -0.3777
  266ccc     C3 6566   6.667   8.112   9.081  0.4612 -0.1293  0.0355
  266ccc     H5 6567   6.558   8.129   9.084  0.6084  0.8661  3.2922
  266ccc     H6 6568   6.711   8.096   9.180  2.9821 -0.5152 -1.0759
  266ccc     N1 6569   6.907   8.113   8.871 -0.0814 -0.3522 -0.1851
  266ccc     H7 6570   7.006   8.123   8.845 -0.4092  1.3971 -0.8466
  266ccc     H8 6571   6.903   8.015   8.905  1.5163 -0.7886 -1.1432
  266ccc     O1 6572   6.682   7.995   9.005  0.0915  0.5625 -0.4756
  266ccc    H17 6573   6.852   8.123   8.785 -0.1911 -0.6896 -0.1559
  267ccc     C1 6574   5.984   5.422   8.703  0.6115  0.8205  0.1252
  267ccc     H1 6575   5.959   5.458   8.803 -0.7414  0.0305  0.0940
  267ccc     H2 6576   6.085   5.382   8.711 -0.1137 -1.5163 -1.4590
  267ccc     C2 6577   5.967   5.536   8.596  0.7651  0.3231 -0.3683
  267ccc     H3 6578   5.984   5.481   8.503  0.2057  0.0073 -0.2879
  267ccc     H4 6579   5.869   5.585   8.594 -1.0670 -2.6516  3.4556
  267ccc     C3 6580   6.080   5.642   8.609  0.2978  0.6109 -0.5611
  267ccc     H5 6581   6.094   5.712   8.526  4.6104  1.5936  0.7554
  267ccc     H6 6582   6.175   5.587   8.613 -0.3961 -0.5446  1.5951
  267ccc     N1 6583   5.890   5.303   8.697 -0.6674 -0.3067 -0.3249
  267ccc     H7 6584   5.791   5.327   8.709 -1.1304 -1.7885 -0.9512
  267ccc     H8 6585   5.904   5.257   8.605  1.6041  2.0795 -1.3234
  267ccc     O1 6586   6.043   5.711   8.730 -1.0302 -0.0150  0.1879
  267ccc    H17 6587   5.920   5.229   8.762  3.0851  0.5057 -0.8968
  268ccc     C1 6588   5.410   5.694   9.409 -0.0001 -0.2871 -0.1620
  268ccc     H1 6589   5.332   5.624   9.380 -0.9028  0.9155 -0.6947
  268ccc     H2 6590   5.414   5.780   9.342 -0.3272  1.4218  1.8989
  268ccc     C2 6591   5.550   5.634   9.421 -0.3743  0.0628 -0.1729
  268ccc     H3 6592   5.555   5.561   9.503 -3.0197  0.9920  0.9217
  268ccc     H4 6593   5.576   5.593   9.323 -1.2016 -1.6449  0.2863
  268ccc     C3 6594   5.659   5.744   9.432 -0.8081  0.1613 -0.1999
  268ccc     H5 6595   5.754   5.690   9.429 -0.8679  0.0733 -0.4733
  268ccc     H6 6596   5.649   5.791   9.531 -0.4396 -2.3327  1.1145
  268ccc     N1 6597   5.356   5.741   9.541 -0.2458 -0.5394  0.0649
  268ccc     H7 6598   5.253   5.739   9.544 -0.4557  1.0570 -3.1856
  268ccc     H8 6599   5.385   5.680   9.619  0.8336 -0.3026 -0.1324
  268ccc     O1 6600   5.639   5.846   9.336 -0.1985 -0.1958  0.0817
  268ccc    H17 6601   5.399   5.834   9.552  0.7934 -0.5404 -3.1204
  269ccc     C1 6602   4.151   7.338   9.178 -0.2134 -0.5015 -1.0058
  269ccc     H1 6603   4.252   7.380   9.178 -0.6772  0.7186  0.7488
  269ccc     H2 6604   4.140   7.264   9.258 -0.1035 -0.7152 -1.1860
  269ccc     C2 6605   4.111   7.272   9.048 -0.2325  0.4926  0.0981
  269ccc     H3 6606   4.022   7.211   9.069  0.0624  0.8619  2.7976
  269ccc     H4 6607   4.077   7.349   8.978  2.0684  0.6528 -0.9362
  269ccc     C3 6608   4.228   7.192   8.996 -0.2570 -0.2297 -0.0503
  269ccc     H5 6609   4.204   7.141   8.901  1.3130  1.6479 -1.5234
  269ccc     H6 6610   4.262   7.120   9.072 -0.5080 -0.4534 -0.1462
  269ccc     N1 6611   4.068   7.457   9.205  0.1082 -0.4311  0.5539
  269ccc     H7 6612   4.114   7.525   9.267  0.1334  0.2582 -0.2020
  269ccc     H8 6613   4.052   7.507   9.117  0.1889 -0.2429  0.6462
  269ccc     O1 6614   4.335   7.282   8.975  0.4935  0.0675  0.7690
  269ccc    H17 6615   3.974   7.427   9.236 -0.3712 -0.5311 -0.9280
  270ccc     C1 6616   5.050   7.795   8.688  0.7298  0.0032 -0.6285
  270ccc     H1 6617   5.149   7.771   8.729 -0.3804 -0.5522  1.9175
  270ccc     H2 6618   4.963   7.732   8.706 -0.3897  1.4216 -0.8820
  270ccc     C2 6619   5.058   7.808   8.536  0.1376  0.7903 -0.3181
  270ccc     H3 6620   5.093   7.907   8.506 -3.3582  2.2861 -0.0184
  270ccc     H4 6621   5.130   7.731   8.506 -0.2517  1.3025 -2.7321
  270ccc     C3 6622   4.917   7.784   8.472 -0.5069  0.2323 -0.2987
  270ccc     H5 6623   4.914   7.800   8.364  0.8772 -0.1722 -0.4142
  270ccc     H6 6624   4.849   7.858   8.515  0.5005 -0.3696  2.5677
  270ccc     N1 6625   5.025   7.932   8.755  0.5380 -0.0037 -0.7108
  270ccc     H7 6626   5.101   7.999   8.735  1.0272 -0.3847 -0.1526
  270ccc     H8 6627   4.934   7.966   8.719 -0.6032 -1.4741  0.6460
  270ccc     O1 6628   4.885   7.653   8.494 -0.1660  0.3291  0.5283
  270ccc    H17 6629   5.022   7.921   8.857 -2.8689  1.8225 -0.4781
  271ccc     C1 6630   1.760   7.919   8.778 -0.2477  0.0827  0.5018
  271ccc     H1 6631   1.676   7.985   8.798 -2.0381 -1.7757 -0.5941
  271ccc     H2 6632   1.754   7.837   8.850 -1.4587 -1.3056 -1.0859
  271ccc     C2 6633   1.899   7.991   8.786 -0.0954  0.9670  0.1107
  271ccc     H3 6634   1.982   7.921   8.797  0.2674  1.5616  1.2219
  271ccc     H4 6635   1.915   8.032   8.685  1.9437  1.4968  0.6137
  271ccc     C3 6636   1.913   8.091   8.896  0.1977  0.2182  0.2398
  271ccc     H5 6637   1.828   8.159   8.884 -0.0777  0.2875  2.2871
  271ccc     H6 6638   2.008   8.145   8.890  0.8899 -1.0855 -1.2377
  271ccc     N1 6639   1.743   7.868   8.639 -0.1799  0.4843 -0.0938
  271ccc     H7 6640   1.814   7.804   8.601 -0.3469  1.5935 -2.4902
  271ccc     H8 6641   1.655   7.817   8.622 -0.1073 -0.1665  1.3630
  271ccc     O1 6642   1.903   8.029   9.022 -0.6522  0.2829  0.5391
  271ccc    H17 6643   1.747   7.942   8.567  3.4726  0.1418 -0.4528
  272ccc     C1 6644   1.491   7.789   9.602 -0.8288  0.3540 -0.0351
  272ccc     H1 6645   1.570   7.792   9.677 -1.7411  1.7950  0.9133
  272ccc     H2 6646   1.458   7.685   9.607  0.0398  0.0980  0.6783
  272ccc     C2 6647   1.553   7.839   9.466  0.2037  0.2876  0.4555
  272ccc     H3 6648   1.480   7.857   9.387  1.8760 -0.0586 -1.2292
  272ccc     H4 6649   1.613   7.929   9.482  1.1200 -0.3218  0.5379
  272ccc     C3 6650   1.659   7.736   9.412 -0.5328 -0.1527  0.0756
  272ccc     H5 6651   1.715   7.790   9.334 -0.0565  1.7163  1.6307
  272ccc     H6 6652   1.614   7.649   9.364 -0.0315  0.5610 -1.7910
  272ccc     N1 6653   1.380   7.874   9.651  0.0930  0.0353 -0.2609
  272ccc     H7 6654   1.297   7.869   9.590 -0.6342  0.3811  0.6826
  272ccc     H8 6655   1.349   7.846   9.745 -0.0296  0.5681 -0.1416
  272ccc     O1 6656   1.749   7.705   9.523 -0.3213  0.2442  0.1284
  272ccc    H17 6657   1.401   7.975   9.647  0.6450 -0.0872 -0.5024
  273ccc     C1 6658   2.821   9.663   9.176 -0.2788 -0.5671  0.3863
  273ccc     H1 6659   2.792   9.767   9.158  0.8801 -0.0127  1.5152
  273ccc     H2 6660   2.910   9.660   9.239 -0.0135  0.2662  0.0662
  273ccc     C2 6661   2.869   9.601   9.039  0.0417 -0.5179 -0.7268
  273ccc     H3 6662   2.801   9.631   8.959 -0.9210  1.4966  0.7534
  273ccc     H4 6663   2.966   9.644   9.012  0.4706 -1.7083 -1.1114
  273ccc     C3 6664   2.878   9.447   9.043 -0.0543 -0.4246  0.0982
  273ccc     H5 6665   2.918   9.412   8.947  0.8921 -0.0852  0.3603
  273ccc     H6 6666   2.776   9.409   9.053 -0.4680  0.1279 -1.6755
  273ccc     N1 6667   2.715   9.590   9.243  0.5558  0.0223 -0.2266
  273ccc     H7 6668   2.662   9.655   9.304 -0.4872 -1.0201  0.0167
  273ccc     H8 6669   2.649   9.558   9.171  0.5671  0.2469 -0.3400
  273ccc     O1 6670   2.950   9.388   9.152 -0.1168 -0.0199  0.2791
  273ccc    H17 6671   2.745   9.512   9.303 -1.3957 -0.6748 -0.0911
  274ccc     C1 6672   3.443   9.396   9.223  0.3389 -0.2853  0.2596
  274ccc     H1 6673   3.352   9.342   9.250  0.4334 -0.6292 -0.1081
  274ccc     H2 6674   3.405   9.486   9.175  0.0658  0.3364  1.5741
  274ccc     C2 6675   3.551   9.312   9.150 -1.0485 -0.6887 -1.0912
  274ccc     H3 6676   3.647   9.364   9.161 -1.4777 -0.3666  2.0552
  274ccc     H4 6677   3.569   9.223   9.212 -1.1491  1.5378  2.4159
  274ccc     C3 6678   3.496   9.270   9.008  0.0824  0.6998 -0.8553
  274ccc     H5 6679   3.572   9.211   8.954  0.2367  0.3912 -0.3133
  274ccc     H6 6680   3.478   9.367   8.959 -2.0991  0.7830  0.0161
  274ccc     N1 6681   3.495   9.442   9.350  0.2225 -0.0142 -1.0103
  274ccc     H7 6682   3.446   9.529   9.376  0.7919  0.1666 -0.5168
  274ccc     H8 6683   3.476   9.375   9.425  1.2486 -0.3449 -1.0296
  274ccc     O1 6684   3.377   9.192   9.032 -0.8611  0.5754  0.3992
  274ccc    H17 6685   3.595   9.466   9.346 -0.1982  1.7399 -2.1041
  275ccc     C1 6686   3.866   8.951   9.184 -0.3395  1.0421 -0.1841
  275ccc     H1 6687   3.764   8.915   9.169  0.2027 -0.4847 -0.4266
  275ccc     H2 6688   3.854   9.042   9.242 -1.1161 -0.5038  2.2072
  275ccc     C2 6689   3.929   8.967   9.048 -0.6935  0.3137  0.4395
  275ccc     H3 6690   4.026   9.019   9.053  0.0323 -0.9232 -0.2205
  275ccc     H4 6691   3.939   8.865   9.008 -1.5952  0.6410 -0.6778
  275ccc     C3 6692   3.834   9.041   8.946 -0.4599  0.1388  0.2295
  275ccc     H5 6693   3.879   9.044   8.846 -0.8921  0.4395  0.0408
  275ccc     H6 6694   3.814   9.141   8.986  1.5215  0.4296  0.5476
  275ccc     N1 6695   3.940   8.847   9.274  0.3503  0.2477  0.0348
  275ccc     H7 6696   3.929   8.877   9.372 -4.3100  3.3855 -1.1152
  275ccc     H8 6697   3.910   8.750   9.257  0.1535  0.4255 -0.6623
  275ccc     O1 6698   3.713   8.955   8.941 -0.3049  0.0995 -0.0806
  275ccc    H17 6699   4.040   8.833   9.254  0.2468 -1.5204  0.6117
  276ccc     C1 6700   3.209   9.282   8.533 -0.6298 -0.0467 -0.2926
  276ccc     H1 6701   3.147   9.320   8.614 -0.9882  2.3588 -1.5918
  276ccc     H2 6702   3.149   9.262   8.445 -0.0589  0.5859 -0.8420
  276ccc     C2 6703   3.297   9.165   8.575 -0.5729  0.1803  0.0288
  276ccc     H3 6704   3.381   9.157   8.505 -0.7307 -2.3117  0.0545
  276ccc     H4 6705   3.345   9.172   8.673  1.4389  1.2755 -0.9662
  276ccc     C3 6706   3.218   9.033   8.577 -0.5454  0.0264  0.3696
  276ccc     H5 6707   3.182   9.014   8.475  1.0963 -1.8403  0.0681
  276ccc     H6 6708   3.127   9.031   8.638 -0.0568 -2.2054  1.0865
  276ccc     N1 6709   3.299   9.403   8.502 -0.1537 -0.6769  0.2632
  276ccc     H7 6710   3.320   9.458   8.587 -0.3193 -0.4783  0.1757
  276ccc     H8 6711   3.376   9.363   8.448  0.1861  0.5464 -0.1734
  276ccc     O1 6712   3.293   8.921   8.625  0.6690 -0.2127 -0.0908
  276ccc    H17 6713   3.245   9.461   8.437  2.0057 -0.4230 -1.3877
  277ccc     C1 6714   2.119   8.783   9.046 -0.6181 -0.2449  0.2651
  277ccc     H1 6715   2.150   8.682   9.017 -1.1765 -0.7111  1.2515
  277ccc     H2 6716   2.147   8.854   8.967 -0.8856 -0.7040 -0.2475
  277ccc     C2 6717   2.189   8.819   9.181 -0.6650 -0.1966  0.0434
  277ccc     H3 6718   2.146   8.906   9.231 -0.1027 -0.1219  0.4037
  277ccc     H4 6719   2.186   8.735   9.250 -0.1126  0.5001  0.9408
  277ccc     C3 6720   2.336   8.852   9.154  0.3649 -1.0346  0.6082
  277ccc     H5 6721   2.374   8.906   9.241  0.9060  0.6399 -0.5975
  277ccc     H6 6722   2.354   8.927   9.075 -0.7194 -0.8170  0.5455
  277ccc     N1 6723   1.971   8.779   9.054  0.9468 -0.6370 -0.7572
  277ccc     H7 6724   1.921   8.760   8.966 -2.6459  0.1642  0.9249
  277ccc     H8 6725   1.932   8.720   9.129 -3.1278 -0.0059 -2.1166
  277ccc     O1 6726   2.408   8.736   9.120  0.2589 -0.6938 -0.0923
  277ccc    H17 6727   1.921   8.867   9.074 -2.3050 -2.7269  1.2947
  278ccc     C1 6728   2.726   9.000   8.355  0.2247  0.3806 -0.3130
  278ccc     H1 6729   2.680   8.954   8.268 -0.6208  0.2450  0.1957
  278ccc     H2 6730   2.731   9.108   8.341 -0.2932  0.5732  0.8735
  278ccc     C2 6731   2.867   8.940   8.374  0.1746  0.5001 -0.1547
  278ccc     H3 6732   2.924   8.941   8.280  0.4704 -1.0039 -0.0242
  278ccc     H4 6733   2.928   8.994   8.448 -0.1781  1.6803 -0.6957
  278ccc     C3 6734   2.862   8.785   8.416 -0.2333 -0.7040  0.7252
  278ccc     H5 6735   2.938   8.727   8.364 -1.5898 -2.0233  0.1322
  278ccc     H6 6736   2.766   8.738   8.391 -0.7536  0.5846  0.2209
  278ccc     N1 6737   2.639   8.974   8.473  0.3597 -0.1936 -0.8083
  278ccc     H7 6738   2.621   8.873   8.482 -0.8453 -0.0451 -1.3154
  278ccc     H8 6739   2.681   9.015   8.558 -0.8679 -0.7790  0.1201
  278ccc     O1 6740   2.894   8.779   8.555 -0.2366 -0.1710  0.4204
  278ccc    H17 6741   2.546   9.017   8.462  0.3224 -0.3994 -1.3542
  279ccc     C1 6742   5.119   7.087  10.080  0.1419  0.9486  0.2486
  279ccc     H1 6743   5.036   7.157  10.086 -0.0622  0.5815  4.3079
  279ccc     H2 6744   5.132   7.031   9.987 -3.4871  1.2922 -0.6001
  279ccc     C2 6745   5.089   6.984  10.189 -0.5441 -0.7632  0.2386
  279ccc     H3 6746   5.157   6.898  10.188  1.3503  0.6762 -0.3883
  279ccc     H4 6747   5.091   7.032  10.287  0.9724  0.7397 -0.4854
  279ccc     C3 6748   4.951   6.916  10.176  0.0657 -0.1536  0.1781
  279ccc     H5 6749   4.877   6.996  10.176  0.6430  0.3909  1.0273
  279ccc     H6 6750   4.928   6.843  10.255  0.0560 -0.5647 -0.1950
  279ccc     N1 6751   5.243   7.162  10.108  0.2459  0.5791 -0.2497
  279ccc     H7 6752   5.238   7.212  10.197  1.1230  1.6559 -0.7726
  279ccc     H8 6753   5.324   7.098  10.108 -0.3921 -0.2452 -1.0630
  279ccc     O1 6754   4.933   6.856  10.042 -0.4008 -0.3432 -0.2758
  279ccc    H17 6755   5.260   7.228  10.030  0.7176 -0.5033 -1.1003
  280ccc     C1 6756   4.119   7.532   9.952  0.1418 -0.5501 -0.3880
  280ccc     H1 6757   4.105   7.586   9.859  0.5098 -0.9711 -0.6905
  280ccc     H2 6758   4.203   7.587   9.993 -0.4308  0.7030 -0.8513
  280ccc     C2 6759   4.157   7.387   9.922 -0.9447 -0.3341  0.6012
  280ccc     H3 6760   4.064   7.328   9.917 -0.2978 -1.2721 -1.7171
  280ccc     H4 6761   4.213   7.386   9.828 -1.3225  2.1171  0.2734
  280ccc     C3 6762   4.237   7.316  10.035 -0.6881  0.6014 -0.9923
  280ccc     H5 6763   4.179   7.309  10.128 -1.4475  0.4400 -1.4739
  280ccc     H6 6764   4.331   7.371  10.048 -0.3918  0.3398 -1.9896
  280ccc     N1 6765   3.993   7.564  10.027  0.2148 -0.3448  0.3555
  280ccc     H7 6766   3.909   7.532   9.977  1.3151 -0.1751 -1.6790
  280ccc     H8 6767   3.994   7.518  10.120  0.4895 -0.9406  0.0620
  280ccc     O1 6768   4.260   7.178   9.988 -0.0626  0.6367 -0.7827
  280ccc    H17 6769   3.987   7.665  10.044 -0.3867 -0.3998  0.4881
  281ccc     C1 6770   2.932   6.835  10.830  0.0358 -0.0160 -0.7731
  281ccc     H1 6771   2.990   6.761  10.887  0.5414  2.4787  2.2700
  281ccc     H2 6772   2.887   6.788  10.743 -1.6611 -0.3365  0.2388
  281ccc     C2 6773   3.034   6.945  10.791  0.4511 -0.1290 -0.3354
  281ccc     H3 6774   2.975   7.014  10.731  0.0789  0.4919  0.7068
  281ccc     H4 6775   3.071   7.008  10.873 -0.7614  0.5281 -0.2710
  281ccc     C3 6776   3.147   6.893  10.696 -0.2252  0.0247  0.1452
  281ccc     H5 6777   3.223   6.830  10.745 -0.1608 -1.9077 -2.2639
  281ccc     H6 6778   3.198   6.984  10.660  0.9731 -0.8214 -0.3600
  281ccc     N1 6779   2.830   6.882  10.935 -0.5994  0.1864  0.4628
  281ccc     H7 6780   2.791   6.977  10.926 -0.7517  0.1376  0.5954
  281ccc     H8 6781   2.750   6.817  10.938 -1.0034  0.6939  1.8660
  281ccc     O1 6782   3.090   6.835  10.578  0.5142  0.6646 -0.4290
  281ccc    H17 6783   2.860   6.877  11.034 -0.2163 -0.8077  0.3051
  282ccc     C1 6784   3.209   7.368  10.140 -0.6906 -0.3183  0.1544
  282ccc     H1 6785   3.154   7.448  10.190 -0.1003  0.1260  0.0933
  282ccc     H2 6786   3.316   7.384  10.136 -0.7952  0.2276 -0.7277
  282ccc     C2 6787   3.151   7.366   9.991 -0.3079 -0.9263 -0.4928
  282ccc     H3 6788   3.152   7.467   9.948 -1.2519 -1.1778 -1.1106
  282ccc     H4 6789   3.203   7.305   9.916  0.1875  1.3699 -2.1234
  282ccc     C3 6790   3.001   7.339   9.991 -0.4509  0.0251  0.1874
  282ccc     H5 6791   2.950   7.375   9.900  1.0875  2.0247  0.0470
  282ccc     H6 6792   2.960   7.398  10.074  1.7472  1.5305  0.2671
  282ccc     N1 6793   3.192   7.240  10.217  0.9435 -0.0984  0.7734
  282ccc     H7 6794   3.275   7.181  10.203 -0.1759 -2.1284  2.1926
  282ccc     H8 6795   3.182   7.258  10.318  2.1101 -1.9643  1.2672
  282ccc     O1 6796   2.977   7.195  10.005 -0.6371  0.1175 -0.6061
  282ccc    H17 6797   3.111   7.190  10.178  1.1672  0.9061 -1.0703
  283ccc     C1 6798   2.019   6.011   8.806 -0.1626 -0.9246 -0.1143
  283ccc     H1 6799   1.959   6.082   8.862  3.4200  1.7328  0.7382
  283ccc     H2 6800   1.950   5.928   8.795 -0.7884 -0.2029 -2.0054
  283ccc     C2 6801   2.150   5.970   8.883  0.1658 -0.5046 -0.3486
  283ccc     H3 6802   2.204   5.894   8.825  1.8106 -0.2203  0.7409
  283ccc     H4 6803   2.217   6.055   8.895 -1.1520  0.5751 -0.3666
  283ccc     C3 6804   2.110   5.896   9.007  0.3326  0.1355  0.5677
  283ccc     H5 6805   2.197   5.847   9.051  0.5667  0.6322  0.6723
  283ccc     H6 6806   2.035   5.821   8.982 -1.2045  2.1485 -1.3350
  283ccc     N1 6807   2.053   6.047   8.662  0.0450  0.2321 -0.2407
  283ccc     H7 6808   2.125   6.120   8.657  0.5949 -0.2308  0.6191
  283ccc     H8 6809   2.088   5.962   8.615  1.1510 -0.7172  2.1591
  283ccc     O1 6810   2.067   5.980   9.115  0.1780 -0.7024 -0.5303
  283ccc    H17 6811   1.969   6.084   8.614 -0.0364 -0.3448 -0.5650
  284ccc     C1 6812   1.460   5.838   9.036 -0.0473 -0.8436  0.3635
  284ccc     H1 6813   1.416   5.856   9.134 -3.3236  0.2326 -1.1559
  284ccc     H2 6814   1.562   5.803   9.050 -0.3083 -1.8883 -0.2214
  284ccc     C2 6815   1.447   5.966   8.956  0.2517 -0.1315 -0.7054
  284ccc     H3 6816   1.475   5.956   8.850  1.3712  2.2430 -0.6907
  284ccc     H4 6817   1.344   6.003   8.969  0.5527  0.1797  1.0289
  284ccc     C3 6818   1.538   6.076   9.015 -0.1810 -0.4334 -0.3856
  284ccc     H5 6819   1.523   6.164   8.951  0.1714  2.1868  2.8747
  284ccc     H6 6820   1.641   6.040   9.003 -0.3764 -1.3275  0.4781
  284ccc     N1 6821   1.370   5.725   8.985  0.1997 -0.1719  0.2094
  284ccc     H7 6822   1.350   5.729   8.884  1.5623  1.3991 -0.0229
  284ccc     H8 6823   1.392   5.626   9.006 -3.2298 -1.3127 -0.8318
  284ccc     O1 6824   1.498   6.112   9.149  0.1117 -0.3275  0.4539
  284ccc    H17 6825   1.278   5.735   9.031  0.1419  1.8888 -0.2797
  285ccc     C1 6826   1.410   8.096   9.107  0.6370 -0.4726  0.2128
  285ccc     H1 6827   1.354   8.077   9.199  0.2917 -1.8022 -0.2460
  285ccc     H2 6828   1.345   8.075   9.022 -2.1921 -3.2279  2.7917
  285ccc     C2 6829   1.533   8.003   9.098 -0.1043 -0.1214 -0.0708
  285ccc     H3 6830   1.590   8.036   9.010 -0.0945 -1.1672 -0.4805
  285ccc     H4 6831   1.594   8.015   9.188  0.2661  0.7642 -0.4288
  285ccc     C3 6832   1.503   7.849   9.076 -0.6008  0.2102  0.7712
  285ccc     H5 6833   1.431   7.825   8.997 -1.8698  2.0209  1.3211
  285ccc     H6 6834   1.451   7.812   9.164  2.4475 -2.4041  1.6342
  285ccc     N1 6835   1.435   8.236   9.095  0.4121 -0.5050  0.4639
  285ccc     H7 6836   1.349   8.290   9.106  0.4547  0.4651 -2.8381
  285ccc     H8 6837   1.511   8.274   9.153  0.0873 -2.0630  2.0098
  285ccc     O1 6838   1.629   7.776   9.070 -0.0055 -0.1170  0.2168
  285ccc    H17 6839   1.459   8.258   8.997  0.3957 -1.9636  0.0972
  286ccc     C1 6840   2.246   8.198   8.537 -0.3028 -0.0430 -0.1468
  286ccc     H1 6841   2.150   8.174   8.490 -0.7024  1.2346 -0.0398
  286ccc     H2 6842   2.333   8.162   8.484 -0.1442 -0.2420  0.2455
  286ccc     C2 6843   2.262   8.129   8.671 -0.5356 -0.4054  0.0198
  286ccc     H3 6844   2.349   8.174   8.720  0.7801 -1.2228 -1.4422
  286ccc     H4 6845   2.176   8.146   8.736  1.2429  0.8947  2.1678
  286ccc     C3 6846   2.293   7.982   8.657 -0.1466  0.3493  0.3101
  286ccc     H5 6847   2.398   7.959   8.634 -0.5734 -0.5786 -0.7869
  286ccc     H6 6848   2.233   7.943   8.573 -0.0225  2.0093 -0.5932
  286ccc     N1 6849   2.265   8.351   8.528  0.1290 -0.6485  0.3430
  286ccc     H7 6850   2.186   8.389   8.582  1.4279  2.2456  0.3758
  286ccc     H8 6851   2.344   8.394   8.579  0.7802  0.1101 -1.2507
  286ccc     O1 6852   2.254   7.923   8.786 -0.2079 -0.5196  0.5811
  286ccc    H17 6853   2.259   8.400   8.438  2.5591  0.0344  0.4789
  287ccc     C1 6854   2.819   4.067   6.897 -0.4996 -0.3374 -0.4410
  287ccc     H1 6855   2.781   4.138   6.824  0.6677  0.3102 -0.4368
  287ccc     H2 6856   2.753   3.981   6.898  1.9819 -2.3885  1.3917
  287ccc     C2 6857   2.795   4.136   7.037 -0.4033  0.0255 -0.3459
  287ccc     H3 6858   2.827   4.068   7.117  0.3219  1.6484  0.8064
  287ccc     H4 6859   2.864   4.219   7.057  1.1514 -1.5178  1.1391
  287ccc     C3 6860   2.649   4.184   7.058  0.5081 -0.1622  0.0767
  287ccc     H5 6861   2.569   4.109   7.048 -0.4350  0.7071  0.8190
  287ccc     H6 6862   2.627   4.257   6.979 -1.4879 -1.2885 -0.4785
  287ccc     N1 6863   2.963   4.032   6.850 -0.0021  0.2773 -0.3300
  287ccc     H7 6864   2.953   4.001   6.753  2.2182 -0.3981 -0.3798
  287ccc     H8 6865   3.032   4.109   6.841  0.0578  0.1416 -1.0450
  287ccc     O1 6866   2.640   4.240   7.191  0.6142 -0.2497 -0.1104
  287ccc    H17 6867   3.000   3.951   6.901 -0.8866 -1.7790 -2.7902
  288ccc     C1 6868   2.729   4.146   8.196  0.3275  0.1893  0.0976
  288ccc     H1 6869   2.651   4.071   8.186  0.6450 -0.3027  1.1985
  288ccc     H2 6870   2.712   4.209   8.283 -0.0391  0.1128  0.0807
  288ccc     C2 6871   2.742   4.228   8.067  0.2378  0.8266 -0.3507
  288ccc     H3 6872   2.818   4.304   8.087  1.7679 -1.2580  2.4040
  288ccc     H4 6873   2.769   4.158   7.987  2.1404  0.9210  0.1774
  288ccc     C3 6874   2.609   4.293   8.025  0.1604  0.0543 -0.3147
  288ccc     H5 6875   2.574   4.348   8.114 -0.5670 -0.9484  0.0295
  288ccc     H6 6876   2.532   4.219   8.004 -2.2657  1.5564  2.5992
  288ccc     N1 6877   2.853   4.066   8.231  0.0329  0.4836  0.0066
  288ccc     H7 6878   2.818   3.982   8.279 -1.4241  0.5709 -0.8640
  288ccc     H8 6879   2.892   4.022   8.146 -0.7516 -3.0831  1.3485
  288ccc     O1 6880   2.631   4.387   7.911 -0.2110  0.0963  0.3694
  288ccc    H17 6881   2.922   4.123   8.282 -0.6398  0.0022  1.5081
  289ccc     C1 6882   2.493   6.091   7.585 -0.5768  0.5676 -0.1871
  289ccc     H1 6883   2.388   6.092   7.556 -1.1638 -0.6172  1.7479
  289ccc     H2 6884   2.559   6.102   7.499 -2.1409  2.0286 -1.2591
  289ccc     C2 6885   2.502   5.952   7.651  0.4324  0.3699 -0.2770
  289ccc     H3 6886   2.588   5.955   7.718 -0.2499 -1.8582  0.8029
  289ccc     H4 6887   2.413   5.944   7.714 -0.5379  0.9469 -1.5160
  289ccc     C3 6888   2.510   5.833   7.555 -0.3542  0.1658 -0.0348
  289ccc     H5 6889   2.410   5.815   7.513  0.8679 -0.8591 -2.7464
  289ccc     H6 6890   2.542   5.743   7.610 -2.0658 -0.3468  0.1797
  289ccc     N1 6891   2.507   6.204   7.681 -0.0253 -0.4983  0.0886
  289ccc     H7 6892   2.495   6.296   7.636  0.0042  0.6969  2.4085
  289ccc     H8 6893   2.433   6.198   7.752 -0.4226  0.4401 -0.2347
  289ccc     O1 6894   2.607   5.855   7.451 -0.5430 -0.3142 -0.1493
  289ccc    H17 6895   2.603   6.205   7.717  0.2880 -1.7326 -0.6284
  290ccc     C1 6896   2.723   6.277   6.818  0.6197 -0.1789 -0.0736
  290ccc     H1 6897   2.765   6.176   6.827  1.3554  0.0468 -0.8664
  290ccc     H2 6898   2.780   6.320   6.736  1.8463  0.1897  0.9311
  290ccc     C2 6899   2.753   6.358   6.943  0.1998  0.1065 -0.3499
  290ccc     H3 6900   2.752   6.465   6.918 -0.4183 -0.2267 -1.9049
  290ccc     H4 6901   2.682   6.348   7.026  0.4060 -0.4918 -0.2373
  290ccc     C3 6902   2.893   6.321   6.992  0.5254  0.8367 -0.2935
  290ccc     H5 6903   2.903   6.389   7.077 -0.1378  0.8296 -0.2004
  290ccc     H6 6904   2.971   6.339   6.917  1.3812 -0.0970  0.3456
  290ccc     N1 6905   2.581   6.275   6.774  0.2325 -0.0933 -0.2665
  290ccc     H7 6906   2.560   6.202   6.704 -1.5504 -0.3514  0.4728
  290ccc     H8 6907   2.519   6.254   6.853  0.9456 -0.3098  0.2393
  290ccc     O1 6908   2.887   6.174   7.030  0.2271  0.2520  0.3389
  290ccc    H17 6909   2.552   6.368   6.740  0.1795  0.2544  0.6922
  291ccc     C1 6910   5.551   4.636   7.612 -0.0231 -0.1090  0.4410
  291ccc     H1 6911   5.610   4.728   7.613  0.5858 -0.4911  1.5840
  291ccc     H2 6912   5.599   4.566   7.544  0.6086 -0.0812  0.8458
  291ccc     C2 6913   5.411   4.675   7.564  0.3006 -0.0871 -0.4209
  291ccc     H3 6914   5.336   4.601   7.596 -0.2500  0.7556  0.2941
  291ccc     H4 6915   5.387   4.774   7.607 -3.0511 -1.7467  2.0662
  291ccc     C3 6916   5.407   4.694   7.415 -0.5239  0.6404 -0.9457
  291ccc     H5 6917   5.490   4.755   7.378  0.7310  0.0548  0.7530
  291ccc     H6 6918   5.311   4.732   7.378 -1.8616 -2.4056 -0.9297
  291ccc     N1 6919   5.544   4.570   7.747 -0.7435 -0.0392  0.5323
  291ccc     H7 6920   5.625   4.600   7.803  1.0728  0.7213 -2.2431
  291ccc     H8 6921   5.461   4.595   7.803 -1.3622 -0.9112  0.0457
  291ccc     O1 6922   5.428   4.569   7.349 -0.0614 -0.1947 -0.3949
  291ccc    H17 6923   5.527   4.470   7.728 -0.9677  0.1670 -0.4183
  292ccc     C1 6924   5.713   3.870   6.438 -0.3363  0.1572 -0.4191
  292ccc     H1 6925   5.765   3.871   6.534 -1.4230  1.8845  0.2121
  292ccc     H2 6926   5.737   3.973   6.411 -1.2709  1.3637  2.8077
  292ccc     C2 6927   5.564   3.849   6.447  0.7286 -0.2818 -0.0710
  292ccc     H3 6928   5.520   3.847   6.347  0.4412 -2.8480  0.0511
  292ccc     H4 6929   5.529   3.765   6.509 -5.9037  1.7765 -0.2504
  292ccc     C3 6930   5.512   3.972   6.523  0.6578 -0.6260 -0.3520
  292ccc     H5 6931   5.404   3.967   6.543  0.0234  0.5717 -3.0336
  292ccc     H6 6932   5.532   4.061   6.461  1.6126  0.2434  1.1207
  292ccc     N1 6933   5.784   3.775   6.337 -0.8230  0.2890  0.0150
  292ccc     H7 6934   5.726   3.774   6.252 -0.8515 -0.2970  0.0329
  292ccc     H8 6935   5.883   3.794   6.316 -0.5406 -0.7021  0.3766
  292ccc     O1 6936   5.584   3.993   6.646  0.0286  0.2036 -0.3004
  292ccc    H17 6937   5.782   3.676   6.367  2.0869 -0.4872 -1.9129
  293ccc     C1 6938   4.486   4.882   8.360 -0.4514 -0.0458  0.3161
  293ccc     H1 6939   4.498   4.907   8.466  2.1547 -1.7835  0.5294
  293ccc     H2 6940   4.496   4.774   8.348  0.3481 -0.1905  1.9664
  293ccc     C2 6941   4.596   4.935   8.276 -0.5809  0.1215  0.3495
  293ccc     H3 6942   4.576   5.043   8.264 -2.2929 -0.0695  1.1730
  293ccc     H4 6943   4.690   4.926   8.331 -1.2519  1.4492  1.7965
  293ccc     C3 6944   4.611   4.860   8.139 -0.0898  1.1194 -0.1514
  293ccc     H5 6945   4.638   4.758   8.170  2.4331  2.6500  3.4442
  293ccc     H6 6946   4.692   4.906   8.082  0.0524  1.1210  0.0486
  293ccc     N1 6947   4.349   4.912   8.311  0.1080  0.0628 -0.6428
  293ccc     H7 6948   4.275   4.887   8.379 -0.7841  3.0752 -0.3887
  293ccc     H8 6949   4.333   5.012   8.293 -1.6933  0.4464  2.4628
  293ccc     O1 6950   4.492   4.863   8.064 -0.5825 -0.1890  0.2004
  293ccc    H17 6951   4.335   4.859   8.223 -0.4628 -0.5952 -0.1700
  294ccc     C1 6952   4.522   5.365   8.029 -0.6688 -0.0778 -0.6624
  294ccc     H1 6953   4.605   5.387   7.962  0.7630  1.0623  1.3635
  294ccc     H2 6954   4.489   5.262   8.015  1.6685 -0.7034 -1.9745
  294ccc     C2 6955   4.399   5.452   7.997 -0.0428  0.3012 -0.1543
  294ccc     H3 6956   4.318   5.431   8.068  2.4065 -2.8476  2.0050
  294ccc     H4 6957   4.431   5.555   8.014  1.9273 -0.3840  0.6644
  294ccc     C3 6958   4.370   5.447   7.845 -0.4220  0.9663  0.2682
  294ccc     H5 6959   4.448   5.498   7.788 -0.9623 -1.1462 -2.6431
  294ccc     H6 6960   4.276   5.499   7.823 -0.1758  1.5580  0.6053
  294ccc     N1 6961   4.579   5.368   8.170 -0.2520 -0.5390 -0.0785
  294ccc     H7 6962   4.654   5.298   8.184  0.7558  0.8395  1.8427
  294ccc     H8 6963   4.630   5.456   8.185  2.4198 -1.8307 -1.0357
  294ccc     O1 6964   4.356   5.314   7.797 -0.3677 -0.8449 -0.5547
  294ccc    H17 6965   4.505   5.355   8.241  1.6908 -0.4065  2.0930
  295ccc     C1 6966   5.131   5.895   5.797 -0.2475 -0.2531  0.0610
  295ccc     H1 6967   5.222   5.836   5.798  0.7293  1.1805 -0.2091
  295ccc     H2 6968   5.147   5.974   5.871  2.4808  1.5726 -2.2678
  295ccc     C2 6969   5.007   5.813   5.821  0.0555  0.0617  0.0488
  295ccc     H3 6970   4.919   5.864   5.782  1.0129  1.7219 -0.0442
  295ccc     H4 6971   5.021   5.723   5.760 -1.5332  0.8590 -1.5664
  295ccc     C3 6972   4.990   5.766   5.969 -0.4343  1.5205 -0.0509
  295ccc     H5 6973   5.057   5.682   5.992 -0.9772  1.0963 -0.0088
  295ccc     H6 6974   4.886   5.734   5.983 -0.4289 -0.0322 -2.7705
  295ccc     N1 6975   5.134   5.965   5.666 -0.7122 -0.2935 -0.4586
  295ccc     H7 6976   5.072   5.918   5.599 -1.7076 -2.3910  1.7810
  295ccc     H8 6977   5.098   6.062   5.670 -0.9242 -0.2723 -2.1867
  295ccc     O1 6978   5.015   5.877   6.058 -0.2636 -0.7618  0.5185
  295ccc    H17 6979   5.230   5.974   5.631 -0.2048  1.1891  1.1799
  296ccc     C1 6980   5.316   6.874   6.463 -0.1515  0.1847  0.5664
  296ccc     H1 6981   5.225   6.877   6.523 -2.3600  0.5476 -2.5782
  296ccc     H2 6982   5.301   6.927   6.369  1.6525  1.3056  0.8470
  296ccc     C2 6983   5.347   6.725   6.421  0.2765 -1.1945  0.6242
  296ccc     H3 6984   5.436   6.715   6.358  0.2745  2.5187 -0.1898
  296ccc     H4 6985   5.359   6.664   6.512 -1.7013  0.6716  2.2294
  296ccc     C3 6986   5.219   6.678   6.340  0.5989  0.3683  0.6590
  296ccc     H5 6987   5.200   6.746   6.257  0.9484 -1.3765 -0.9163
  296ccc     H6 6988   5.134   6.689   6.408  2.2618  0.3728  2.8575
  296ccc     N1 6989   5.435   6.940   6.533  0.4988 -0.0006 -0.4030
  296ccc     H7 6990   5.400   7.020   6.588 -0.5732 -1.1817  0.7177
  296ccc     H8 6991   5.481   6.879   6.602  0.2352  2.5316  2.2015
  296ccc     O1 6992   5.243   6.543   6.300 -0.7593  0.1763  0.0858
  296ccc    H17 6993   5.512   6.967   6.471  0.8544  0.4930  0.2433
  297ccc     C1 6994   6.708   6.451   5.663 -0.0787 -0.9444  0.3635
  297ccc     H1 6995   6.652   6.364   5.696 -0.0187 -0.7609  0.9614
  297ccc     H2 6996   6.799   6.415   5.613 -0.5699 -1.3259 -0.2695
  297ccc     C2 6997   6.731   6.534   5.798 -0.3465  0.4667  0.1308
  297ccc     H3 6998   6.773   6.632   5.770 -0.7509  0.7484  0.4953
  297ccc     H4 6999   6.636   6.554   5.849 -0.2791  0.5170  0.2370
  297ccc     C3 7000   6.824   6.473   5.908 -0.2862 -0.7506  0.3558
  297ccc     H5 7001   6.863   6.544   5.982  1.9417  0.9368 -2.2952
  297ccc     H6 7002   6.921   6.450   5.863  0.5267  0.5317  1.3976
  297ccc     N1 7003   6.623   6.524   5.558  0.2852  0.8039 -0.2283
  297ccc     H7 7004   6.531   6.550   5.597  0.4492  1.6136 -0.3721
  297ccc     H8 7005   6.669   6.603   5.509 -0.8345  1.3719 -0.4064
  297ccc     O1 7006   6.764   6.351   5.946  0.1854  0.1207  0.1565
  297ccc    H17 7007   6.597   6.458   5.482 -2.8269 -0.5242  1.7752
  298ccc     C1 7008   6.499   5.361   5.513 -0.0034  0.5243 -1.2788
  298ccc     H1 7009   6.579   5.359   5.439  0.7772  2.4604 -0.5549
  298ccc     H2 7010   6.408   5.412   5.481 -0.6851  1.2143  1.4735
  298ccc     C2 7011   6.544   5.430   5.644  0.3743  0.2122  0.4548
  298ccc     H3 7012   6.464   5.436   5.720  0.4587 -1.4487  0.7099
  298ccc     H4 7013   6.627   5.376   5.691  1.2077  1.3095  0.2537
  298ccc     C3 7014   6.607   5.566   5.612 -0.0257 -0.0636  0.4593
  298ccc     H5 7015   6.556   5.615   5.527  0.7667 -1.5538 -0.9358
  298ccc     H6 7016   6.714   5.568   5.590 -0.1292  4.8077 -0.9419
  298ccc     N1 7017   6.468   5.218   5.536 -0.0341 -0.2919 -0.0020
  298ccc     H7 7018   6.377   5.193   5.578 -0.7497  1.2289 -0.5715
  298ccc     H8 7019   6.464   5.169   5.445  3.6377  0.5970 -0.8124
  298ccc     O1 7020   6.594   5.647   5.734  0.4720 -0.1948 -0.1311
  298ccc    H17 7021   6.543   5.176   5.593  0.1958  1.0534  0.7250
  299ccc     C1 7022   5.416   6.428   5.636  0.0735 -0.1217  0.2580
  299ccc     H1 7023   5.395   6.488   5.725  0.8345 -0.2687  0.5413
  299ccc     H2 7024   5.376   6.327   5.644 -2.2883  0.6572 -0.6176
  299ccc     C2 7025   5.566   6.414   5.605  0.1481  0.1205  0.3975
  299ccc     H3 7026   5.576   6.361   5.509  3.8647 -0.6803  1.0769
  299ccc     H4 7027   5.621   6.507   5.584  2.4466 -1.2650 -0.0969
  299ccc     C3 7028   5.650   6.340   5.712 -0.2874 -0.2471 -0.1817
  299ccc     H5 7029   5.605   6.369   5.807 -0.6303 -1.4847  0.0517
  299ccc     H6 7030   5.756   6.369   5.710 -0.6608  1.6272  2.4624
  299ccc     N1 7031   5.350   6.490   5.521  0.4531  0.4781 -0.7551
  299ccc     H7 7032   5.249   6.501   5.542  0.8872  3.7142  0.1655
  299ccc     H8 7033   5.378   6.588   5.514  2.2407  0.5817  4.0267
  299ccc     O1 7034   5.635   6.198   5.697  0.5537 -0.2292  0.0463
  299ccc    H17 7035   5.364   6.448   5.428  1.4415  0.4519 -0.6000
  300ccc     C1 7036   5.511   5.319   5.605 -0.0851 -0.0791 -0.8261
  300ccc     H1 7037   5.469   5.420   5.596  0.5426  0.0551 -2.4627
  300ccc     H2 7038   5.511   5.284   5.708 -1.2025  3.7497  0.6471
  300ccc     C2 7039   5.651   5.327   5.547  0.0879 -0.7671 -0.3108
  300ccc     H3 7040   5.680   5.228   5.509  0.1464 -1.9531  2.6103
  300ccc     H4 7041   5.654   5.396   5.461  0.7284 -0.7252 -0.2608
  300ccc     C3 7042   5.747   5.360   5.667  0.7281 -0.0164 -0.3635
  300ccc     H5 7043   5.852   5.343   5.638  0.7876  2.7514 -2.1433
  300ccc     H6 7044   5.733   5.278   5.738 -0.8969 -0.9507 -1.6937
  300ccc     N1 7045   5.409   5.244   5.526  0.0913 -0.4239  0.5760
  300ccc     H7 7046   5.421   5.144   5.544 -0.6765 -0.6422 -0.0599
  300ccc     H8 7047   5.311   5.272   5.544  0.2013  0.2997  0.1025
  300ccc     O1 7048   5.718   5.490   5.727 -0.3912 -0.7150 -0.1537
  300ccc    H17 7049   5.421   5.254   5.424 -0.4497 -3.2157  0.1732
  301ccc     C1 7050   4.857   4.833   5.478 -0.0281 -0.6676 -0.4787
  301ccc     H1 7051   4.942   4.887   5.437 -1.1666  1.1255 -0.5851
  301ccc     H2 7052   4.792   4.804   5.395 -0.7464 -1.8612  0.4676
  301ccc     C2 7053   4.757   4.913   5.571 -0.3234  0.5235 -0.5553
  301ccc     H3 7054   4.696   4.979   5.509 -1.2974 -0.8251 -1.0883
  301ccc     H4 7055   4.688   4.843   5.619  0.6507  1.2338  2.0319
  301ccc     C3 7056   4.811   4.996   5.685  0.0717 -0.0335  0.1385
  301ccc     H5 7057   4.730   5.041   5.743  0.9310  2.4158 -0.4304
  301ccc     H6 7058   4.874   5.077   5.646  0.2308  1.4440  3.1576
  301ccc     N1 7059   4.907   4.700   5.530  0.0481  0.4097 -0.4012
  301ccc     H7 7060   4.833   4.642   5.573 -2.0172  3.1574  0.0047
  301ccc     H8 7061   4.952   4.654   5.450 -0.4240 -0.1380 -0.3558
  301ccc     O1 7062   4.896   4.914   5.762 -0.1485  0.4727 -1.0820
  301ccc    H17 7063   4.986   4.714   5.596 -0.6785  1.6157  0.2351
  302ccc     C1 7064   5.617   4.751   6.017  0.5113  0.4898 -0.3143
  302ccc     H1 7065   5.569   4.848   6.003  0.6980  0.7643  0.8040
  302ccc     H2 7066   5.537   4.677   6.011  1.2415 -0.4302  0.7506
  302ccc     C2 7067   5.677   4.744   6.159  0.4726  0.2535  0.4431
  302ccc     H3 7068   5.704   4.645   6.196 -0.5900 -0.3916 -0.4712
  302ccc     H4 7069   5.763   4.812   6.158 -0.1537  1.1024  1.2772
  302ccc     C3 7070   5.567   4.816   6.243  0.9524 -0.2091  0.3895
  302ccc     H5 7071   5.524   4.897   6.183  1.1487 -1.1550 -1.0747
  302ccc     H6 7072   5.602   4.853   6.340  1.6523  1.3145 -0.4148
  302ccc     N1 7073   5.699   4.712   5.897 -0.3558 -0.2962 -0.4021
  302ccc     H7 7074   5.756   4.791   5.863 -0.3005  1.3392  3.0884
  302ccc     H8 7075   5.758   4.629   5.916  0.1874  0.0600 -0.5085
  302ccc     O1 7076   5.462   4.718   6.268  0.3553  0.0874 -0.6036
  302ccc    H17 7077   5.642   4.687   5.814  1.2906  2.2125 -2.4377
  303ccc     C1 7078   2.460   6.137   5.070 -0.2797 -0.1379  0.0432
  303ccc     H1 7079   2.388   6.071   5.117  1.1408 -4.0503 -2.7358
  303ccc     H2 7080   2.468   6.096   4.969  1.1315  0.7890 -0.2502
  303ccc     C2 7081   2.591   6.130   5.148  0.3336 -0.4784  0.2799
  303ccc     H3 7082   2.582   6.167   5.251 -0.0429 -0.5732  0.2821
  303ccc     H4 7083   2.628   6.027   5.148 -3.5107 -2.0215  1.3877
  303ccc     C3 7084   2.700   6.214   5.084 -0.1459  0.1342 -0.0937
  303ccc     H5 7085   2.793   6.212   5.142 -1.0452  0.2075  1.4234
  303ccc     H6 7086   2.658   6.316   5.093 -0.4246  0.1532 -1.4396
  303ccc     N1 7087   2.407   6.269   5.047 -0.3744 -0.0096  0.6786
  303ccc     H7 7088   2.343   6.260   4.966  2.5417  0.6121 -1.9050
  303ccc     H8 7089   2.351   6.300   5.127 -2.1071  0.1971 -0.5542
  303ccc     O1 7090   2.723   6.169   4.949 -0.3834  0.1258  0.5191
  303ccc    H17 7091   2.478   6.337   5.017 -0.6473 -1.1081 -2.8909
  304ccc     C1 7092   2.873   6.826   4.519 -0.4201 -0.3099  0.1768
  304ccc     H1 7093   2.852   6.828   4.626 -1.1213  2.0253  0.0482
  304ccc     H2 7094   2.862   6.718   4.505  1.2345 -0.4986  0.1534
  304ccc     C2 7095   3.023   6.865   4.500  0.0301  0.0271 -0.4072
  304ccc     H3 7096   3.073   6.821   4.413  1.4830  1.5315 -0.3905
  304ccc     H4 7097   3.025   6.972   4.475 -1.5449  0.0372 -0.6207
  304ccc     C3 7098   3.111   6.830   4.615 -0.1032 -0.4707  0.1712
  304ccc     H5 7099   3.075   6.873   4.710 -1.7012 -1.7711  0.1861
  304ccc     H6 7100   3.213   6.861   4.591 -0.2232  0.8921  1.2630
  304ccc     N1 7101   2.764   6.909   4.459 -0.4647 -0.7110 -0.1255
  304ccc     H7 7102   2.783   7.010   4.474 -1.3069 -0.1911 -2.2724
  304ccc     H8 7103   2.764   6.905   4.356  0.4462 -0.9774 -0.1213
  304ccc     O1 7104   3.110   6.684   4.624  0.7002  0.4115  0.1801
  304ccc    H17 7105   2.672   6.891   4.501 -0.6562 -2.0172 -1.0586
  305ccc     C1 7106   3.874   4.631   5.074  0.1341  0.0228 -0.4022
  305ccc     H1 7107   3.957   4.702   5.081  1.4035 -1.4503  0.1762
  305ccc     H2 7108   3.848   4.628   4.968  1.4469  2.7083 -0.8771
  305ccc     C2 7109   3.749   4.675   5.157 -0.0229  0.3289 -0.4352
  305ccc     H3 7110   3.692   4.593   5.201 -1.3494  0.0773 -2.4981
  305ccc     H4 7111   3.780   4.738   5.242  2.8879  0.3810 -1.4227
  305ccc     C3 7112   3.650   4.735   5.054  0.1454 -0.0546 -0.4076
  305ccc     H5 7113   3.555   4.762   5.102 -0.2622 -1.4658 -0.3918
  305ccc     H6 7114   3.620   4.679   4.965 -1.6512 -0.6489  0.5171
  305ccc     N1 7115   3.934   4.495   5.125  0.0337 -0.2001 -0.0267
  305ccc     H7 7116   3.864   4.423   5.100  0.6207  0.0643 -2.6279
  305ccc     H8 7117   4.023   4.467   5.081 -0.7544 -1.4028 -0.9223
  305ccc     O1 7118   3.713   4.854   5.002  0.2685 -0.0141  0.0038
  305ccc    H17 7119   3.956   4.491   5.226 -1.7081 -1.2041  0.3548
  306ccc     C1 7120   4.642   4.902   4.579 -0.0245  0.6466 -0.6307
  306ccc     H1 7121   4.713   4.898   4.662 -0.0407 -1.8689 -0.6637
  306ccc     H2 7122   4.607   5.004   4.563  0.0496  0.6480 -0.7856
  306ccc     C2 7123   4.519   4.802   4.607  0.2980 -0.2851 -0.9604
  306ccc     H3 7124   4.449   4.801   4.522 -0.5723 -0.2547 -0.2669
  306ccc     H4 7125   4.552   4.700   4.627 -0.1051  0.1067  2.1501
  306ccc     C3 7126   4.430   4.861   4.724  0.4726 -0.0570  0.5081
  306ccc     H5 7127   4.489   4.932   4.783 -0.9483  2.1419 -0.5807
  306ccc     H6 7128   4.404   4.787   4.801 -0.2385  0.0112  0.3354
  306ccc     N1 7129   4.727   4.871   4.459  0.2611  0.4817  0.2192
  306ccc     H7 7130   4.673   4.873   4.372  1.7047  0.3872 -0.7211
  306ccc     H8 7131   4.812   4.923   4.432  1.2150 -3.0628 -5.2649
  306ccc     O1 7132   4.326   4.939   4.678 -0.0108  0.6600 -0.5184
  306ccc    H17 7133   4.766   4.776   4.471  2.3159  1.3465  0.8273
  307ccc     C1 7134   4.280   6.221   5.156 -0.5173  0.2486  0.0635
  307ccc     H1 7135   4.181   6.203   5.199 -1.3962  2.4971 -0.9146
  307ccc     H2 7136   4.329   6.301   5.212 -0.0337 -0.2158  0.3189
  307ccc     C2 7137   4.266   6.278   5.013  0.0948  0.4231 -0.0883
  307ccc     H3 7138   4.221   6.379   5.017  0.1753  0.4347  1.0030
  307ccc     H4 7139   4.364   6.282   4.965 -0.8278  0.0585 -2.0633
  307ccc     C3 7140   4.162   6.199   4.926  0.3572 -0.3018  0.3160
  307ccc     H5 7141   4.208   6.119   4.867  1.7088 -0.0643  0.9884
  307ccc     H6 7142   4.120   6.268   4.851 -1.7283 -1.3528  0.4661
  307ccc     N1 7143   4.365   6.098   5.166 -0.8275  0.7483  0.2122
  307ccc     H7 7144   4.316   6.022   5.117 -0.4505 -0.4406  1.6228
  307ccc     H8 7145   4.459   6.113   5.126  0.1577  0.5836  2.3259
  307ccc     O1 7146   4.061   6.147   5.007  0.1351 -0.4245 -0.3932
  307ccc    H17 7147   4.382   6.071   5.264  3.0876  0.2008 -0.4566
  308ccc     C1 7148   3.780   6.188   4.298 -0.2400 -0.2196 -0.7668
  308ccc     H1 7149   3.846   6.113   4.343  0.6531  0.3559 -1.1110
  308ccc     H2 7150   3.784   6.276   4.362 -2.3820  0.4961 -1.5179
  308ccc     C2 7151   3.633   6.130   4.298  0.6598 -0.2906 -0.1847
  308ccc     H3 7152   3.560   6.190   4.243  0.2969 -1.6277 -1.2185
  308ccc     H4 7153   3.627   6.034   4.245  1.4691  1.0560 -2.9169
  308ccc     C3 7154   3.574   6.116   4.442 -0.3088 -0.4690  0.4341
  308ccc     H5 7155   3.632   6.040   4.495  0.1734 -1.3297 -1.2459
  308ccc     H6 7156   3.470   6.083   4.440 -0.2484 -0.6575  0.4888
  308ccc     N1 7157   3.846   6.212   4.162  0.0709 -0.3704 -0.5507
  308ccc     H7 7158   3.827   6.133   4.098 -0.2245  0.2569 -1.2535
  308ccc     H8 7159   3.815   6.300   4.119  0.1922 -0.3585 -0.6141
  308ccc     O1 7160   3.580   6.251   4.500  0.0558  0.0277  0.3380
  308ccc    H17 7161   3.948   6.221   4.170 -0.2353  1.7917  2.6106
  309ccc     C1 7162   2.905   6.130   3.726  0.1542 -0.6488 -0.6203
  309ccc     H1 7163   2.950   6.227   3.749 -3.4816  0.6327  1.9086
  309ccc     H2 7164   2.808   6.158   3.686 -0.0058  0.8612  0.7381
  309ccc     C2 7165   2.903   6.069   3.863 -0.4088 -0.1817  0.5770
  309ccc     H3 7166   2.852   5.972   3.854 -2.0973  0.8784 -3.2306
  309ccc     H4 7167   3.006   6.052   3.897 -0.7536  3.3269  4.0784
  309ccc     C3 7168   2.839   6.155   3.975  0.5966 -0.1249  0.2685
  309ccc     H5 7169   2.732   6.134   3.962  0.8542  0.2306 -4.5020
  309ccc     H6 7170   2.864   6.262   3.967  0.3252 -0.1019 -0.3305
  309ccc     N1 7171   2.978   6.064   3.616  0.3876  0.0675  0.1790
  309ccc     H7 7172   2.986   6.125   3.533  3.5779  0.2688  0.5481
  309ccc     H8 7173   3.071   6.043   3.653  0.9551  2.6593  0.4001
  309ccc     O1 7174   2.879   6.115   4.101 -0.0274  0.6426 -0.2552
  309ccc    H17 7175   2.923   5.980   3.591 -0.5217  0.8779 -0.6274
  310ccc     C1 7176   2.570   5.434   3.839  0.2044 -0.3372 -1.0264
  310ccc     H1 7177   2.629   5.525   3.850 -0.8655  0.5668 -2.4296
  310ccc     H2 7178   2.470   5.472   3.860  0.2237  0.1182 -1.7396
  310ccc     C2 7179   2.615   5.335   3.954  0.7389 -0.1008 -0.5952
  310ccc     H3 7180   2.585   5.231   3.934  1.0443 -0.3120  0.0295
  310ccc     H4 7181   2.724   5.324   3.953  0.7552  0.1392 -1.3709
  310ccc     C3 7182   2.566   5.371   4.094  0.2434  0.1466 -0.1594
  310ccc     H5 7183   2.561   5.282   4.158  0.2803 -0.3406 -0.8177
  310ccc     H6 7184   2.465   5.413   4.086  0.3234  0.4153  0.2426
  310ccc     N1 7185   2.590   5.381   3.699 -0.7092  0.3216  0.0825
  310ccc     H7 7186   2.545   5.289   3.686  1.1643 -0.5085 -0.9280
  310ccc     H8 7187   2.566   5.449   3.626 -0.2905  0.0523 -0.3145
  310ccc     O1 7188   2.656   5.471   4.141 -0.9835  0.8801  0.3411
  310ccc    H17 7189   2.691   5.358   3.697 -0.7360  0.1008  0.8331
  311ccc     C1 7190   3.070   4.769   4.941  0.3708  0.3530  0.1658
  311ccc     H1 7191   2.994   4.807   4.873 -1.0806  0.5195  1.8201
  311ccc     H2 7192   3.073   4.838   5.025  0.5747 -0.3007  0.7057
  311ccc     C2 7193   3.204   4.773   4.871 -0.1322  0.1032  0.2071
  311ccc     H3 7194   3.285   4.752   4.942  1.7851  0.4173 -1.7718
  311ccc     H4 7195   3.209   4.697   4.793  0.9036  0.2536  0.1192
  311ccc     C3 7196   3.239   4.903   4.802 -0.7688 -0.6472  0.2073
  311ccc     H5 7197   3.333   4.902   4.745 -2.2640  2.8274 -2.7393
  311ccc     H6 7198   3.259   4.977   4.882  3.0925 -1.9585  0.6586
  311ccc     N1 7199   3.045   4.627   4.986  0.1124 -0.0621 -0.0201
  311ccc     H7 7200   3.080   4.561   4.915 -0.3226 -0.0193 -0.2789
  311ccc     H8 7201   3.104   4.609   5.069  0.7577 -2.0568 -0.8336
  311ccc     O1 7202   3.132   4.937   4.724 -0.4995 -0.6285  0.1806
  311ccc    H17 7203   2.949   4.614   5.021  0.7993  0.2297  2.1274
  312ccc     C1 7204   3.504   4.370   3.878 -0.3618  0.6673 -0.2144
  312ccc     H1 7205   3.542   4.472   3.886  0.5600  0.3011  0.1831
  312ccc     H2 7206   3.400   4.381   3.846 -0.6349 -0.6135  0.1559
  312ccc     C2 7207   3.517   4.309   4.020  0.5962  0.2521 -0.1881
  312ccc     H3 7208   3.526   4.201   4.005 -0.1331  0.2703 -0.7958
  312ccc     H4 7209   3.604   4.353   4.072 -1.4784  2.3524  1.7406
  312ccc     C3 7210   3.396   4.333   4.108 -0.2924  0.3288 -0.6007
  312ccc     H5 7211   3.415   4.280   4.203  0.8203  1.7881  0.0263
  312ccc     H6 7212   3.308   4.283   4.065 -0.7742  0.8341 -0.2044
  312ccc     N1 7213   3.600   4.314   3.773  0.5234 -0.1770  0.2755
  312ccc     H7 7214   3.610   4.373   3.690 -2.1123  1.2509  0.8541
  312ccc     H8 7215   3.697   4.301   3.806  0.1033  0.2284  1.7643
  312ccc     O1 7216   3.371   4.474   4.134 -0.0360  0.1589  0.4060
  312ccc    H17 7217   3.573   4.220   3.740  2.9863 -0.5631 -0.8544
  313ccc     C1 7218   2.530   6.518   4.270  0.1145 -0.0083  0.0286
  313ccc     H1 7219   2.494   6.415   4.263  1.7783 -0.5327 -1.5795
  313ccc     H2 7220   2.600   6.544   4.190  0.7899 -0.3597  0.4974
  313ccc     C2 7221   2.601   6.554   4.402  0.4691  0.4073  0.4331
  313ccc     H3 7222   2.624   6.660   4.414  0.2180  0.4454  0.5931
  313ccc     H4 7223   2.530   6.525   4.480 -0.3425  0.5903 -0.2243
  313ccc     C3 7224   2.733   6.475   4.426  0.2919 -0.3125 -0.0789
  313ccc     H5 7225   2.716   6.367   4.429  0.8044 -0.3869  0.4320
  313ccc     H6 7226   2.769   6.509   4.524 -0.7170  0.5666  0.0060
  313ccc     N1 7227   2.403   6.595   4.244 -0.0591  0.1555 -0.1329
  313ccc     H7 7228   2.318   6.570   4.295  1.2803 -2.7391  0.9237
  313ccc     H8 7229   2.419   6.693   4.271 -0.0660 -0.0214  0.5309
  313ccc     O1 7230   2.826   6.512   4.321  0.1794 -0.3284  0.2971
  313ccc    H17 7231   2.375   6.586   4.145 -0.3402 -0.9658  0.0315
  314ccc     C1 7232   3.710   6.934   4.377 -0.6972 -0.0123 -1.0257
  314ccc     H1 7233   3.681   6.954   4.480  1.0479 -3.2685  0.2101
  314ccc     H2 7234   3.633   6.889   4.314 -1.3785  1.3594 -1.2103
  314ccc     C2 7235   3.820   6.824   4.377  0.3780  0.5327  0.3570
  314ccc     H3 7236   3.850   6.792   4.276  2.2372  0.3453  0.9425
  314ccc     H4 7237   3.914   6.855   4.422  1.3935 -0.0233 -1.2832
  314ccc     C3 7238   3.761   6.702   4.456 -0.9666  0.4288 -0.1930
  314ccc     H5 7239   3.743   6.723   4.562  0.8959  0.5935  0.1265
  314ccc     H6 7240   3.829   6.617   4.444 -0.1755  1.1262 -0.7532
  314ccc     N1 7241   3.763   7.068   4.321 -0.2617  0.6196  0.0153
  314ccc     H7 7242   3.720   7.144   4.376 -0.9713 -1.0365  1.9042
  314ccc     H8 7243   3.866   7.073   4.319 -0.1211 -1.4094 -1.4517
  314ccc     O1 7244   3.643   6.665   4.395 -0.2719  0.0517 -0.1083
  314ccc    H17 7245   3.726   7.074   4.226 -1.0441 -0.4289  0.2321
  315ccc     C1 7246   2.415   4.422   3.924  0.2623  0.2264 -0.1794
  315ccc     H1 7247   2.403   4.373   4.020  2.0317 -2.3352 -1.1603
  315ccc     H2 7248   2.520   4.443   3.904  0.0716  0.1818 -1.3010
  315ccc     C2 7249   2.342   4.554   3.925  0.5144  0.3897  0.1462
  315ccc     H3 7250   2.331   4.620   3.838 -0.3378  0.3060  0.1842
  315ccc     H4 7251   2.240   4.538   3.963 -0.0860  0.1791 -1.4502
  315ccc     C3 7252   2.408   4.637   4.032  0.5728  0.0799 -0.5733
  315ccc     H5 7253   2.413   4.575   4.123 -3.0324 -2.2052 -1.7335
  315ccc     H6 7254   2.352   4.730   4.048  1.2205  0.2941  0.6134
  315ccc     N1 7255   2.375   4.335   3.812 -0.1551 -0.6819  0.0535
  315ccc     H7 7256   2.273   4.345   3.797 -0.0024 -0.0282 -0.5456
  315ccc     H8 7257   2.423   4.370   3.728 -1.3142 -0.0372 -0.3628
  315ccc     O1 7258   2.540   4.658   3.991 -0.2564 -0.2514  0.0982
  315ccc    H17 7259   2.390   4.234   3.825  1.9803 -0.4052  0.1315
  316ccc     C1 7260   3.173   4.813   3.604  0.3912  0.2361 -0.3417
  316ccc     H1 7261   3.114   4.796   3.694 -0.8984  2.4789 -0.6801
  316ccc     H2 7262   3.278   4.799   3.630 -0.0155 -1.9404  0.3209
  316ccc     C2 7263   3.136   4.947   3.546  0.1522 -0.2538  0.4356
  316ccc     H3 7264   3.192   4.953   3.452 -1.7483  0.8920 -0.6980
  316ccc     H4 7265   3.029   4.955   3.523  0.0972  1.5945  1.1087
  316ccc     C3 7266   3.180   5.061   3.638  0.3431  0.2538 -0.7098
  316ccc     H5 7267   3.134   5.157   3.611 -0.7321 -0.6539 -2.2880
  316ccc     H6 7268   3.289   5.069   3.629  0.3890  0.7763  0.1788
  316ccc     N1 7269   3.122   4.710   3.510  0.2811 -0.0093  0.5018
  316ccc     H7 7270   3.153   4.615   3.535  0.7601  0.2100  0.7343
  316ccc     H8 7271   3.021   4.715   3.488  0.2276 -0.3651  0.6522
  316ccc     O1 7272   3.145   5.034   3.775 -0.0015 -0.5249 -0.2223
  316ccc    H17 7273   3.163   4.727   3.417 -0.3814  0.7256  0.3268
  317ccc     C1 7274   2.801   6.431   5.438 -0.3222 -0.6799 -0.1593
  317ccc     H1 7275   2.727   6.353   5.422  0.3372 -0.8574 -2.8068
  317ccc     H2 7276   2.831   6.451   5.335 -1.3215 -0.6139 -0.4399
  317ccc     C2 7277   2.915   6.390   5.534 -0.3939  0.3423  0.4071
  317ccc     H3 7278   2.985   6.474   5.538  2.1860 -1.6114 -0.8347
  317ccc     H4 7279   2.882   6.379   5.638  3.4428  0.6197  1.8025
  317ccc     C3 7280   2.997   6.269   5.485  0.2233 -0.2001  0.1145
  317ccc     H5 7281   3.057   6.226   5.566  2.9745  1.5672 -0.8272
  317ccc     H6 7282   3.070   6.293   5.407 -0.4571  0.6644 -0.2629
  317ccc     N1 7283   2.728   6.558   5.474 -0.3496  0.2537 -0.0956
  317ccc     H7 7284   2.666   6.536   5.553  0.4272  2.4873  1.2464
  317ccc     H8 7285   2.788   6.633   5.511 -0.9271  2.5223 -3.3402
  317ccc     O1 7286   2.910   6.165   5.443 -0.0132  0.2719  0.8703
  317ccc    H17 7287   2.666   6.599   5.403 -0.4981 -1.5914 -1.0752
  318ccc     C1 7288   2.485   5.355   5.406 -0.2811 -0.0406 -0.7440
  318ccc     H1 7289   2.466   5.309   5.309 -1.1460 -2.1983  0.3993
  318ccc     H2 7290   2.515   5.459   5.393  1.6149 -0.6681 -1.7480
  318ccc     C2 7291   2.603   5.290   5.479  0.2537 -0.4952  0.3934
  318ccc     H3 7292   2.575   5.191   5.519 -1.8860  0.8169  2.4260
  318ccc     H4 7293   2.693   5.273   5.419  1.9224 -1.9017  3.0498
  318ccc     C3 7294   2.651   5.373   5.599 -0.4931 -0.2035 -0.4251
  318ccc     H5 7295   2.714   5.311   5.665 -1.1992  0.6983  1.1631
  318ccc     H6 7296   2.562   5.400   5.657  0.5289 -0.1357  1.1801
  318ccc     N1 7297   2.355   5.343   5.488 -0.0753  0.4108  0.5956
  318ccc     H7 7298   2.279   5.394   5.441  1.8070  2.6221 -0.2376
  318ccc     H8 7299   2.328   5.244   5.482 -0.9560  0.6442  0.6359
  318ccc     O1 7300   2.722   5.492   5.552  0.3255 -0.0666  0.3582
  318ccc    H17 7301   2.357   5.372   5.587 -0.5173  1.1141  0.4055
  319ccc     C1 7302   8.235   5.053  10.759  0.1821 -0.5795  0.0813
  319ccc     H1 7303   8.335   5.017  10.784 -0.0764 -0.8625  0.7408
  319ccc     H2 7304   8.168   5.004  10.830  0.7617 -1.1561  0.2330
  319ccc     C2 7305   8.198   5.009  10.619 -0.3719 -0.7375 -0.5599
  319ccc     H3 7306   8.093   5.035  10.605 -0.5626 -0.0553  1.7712
  319ccc     H4 7307   8.260   5.060  10.544  2.0025 -0.5557  1.3779
  319ccc     C3 7308   8.203   4.864  10.593  0.4395 -0.0339  0.2499
  319ccc     H5 7309   8.135   4.808  10.658 -1.0212 -2.3601 -3.0269
  319ccc     H6 7310   8.304   4.832  10.619  0.2790  0.2857  1.3201
  319ccc     N1 7311   8.242   5.206  10.780 -0.6673 -0.5668  0.5241
  319ccc     H7 7312   8.148   5.246  10.787 -0.8659 -0.2493 -2.7288
  319ccc     H8 7313   8.297   5.242  10.859 -0.4360  1.8234 -0.6369
  319ccc     O1 7314   8.174   4.837  10.457 -0.2994 -0.4885 -0.5589
  319ccc    H17 7315   8.288   5.252  10.700 -2.7767  2.2958  0.8136
  320ccc     C1 7316   8.806   5.127   9.925 -0.6621  0.2723 -0.8609
  320ccc     H1 7317   8.875   5.043   9.928 -1.1197 -0.0989 -0.6431
  320ccc     H2 7318   8.721   5.091   9.983  0.3806 -3.5797 -1.4636
  320ccc     C2 7319   8.760   5.141   9.779  0.3800  0.4624  0.5692
  320ccc     H3 7320   8.696   5.230   9.768  1.5464  1.1318 -1.2566
  320ccc     H4 7321   8.849   5.141   9.715  0.7156 -1.0004  0.9956
  320ccc     C3 7322   8.672   5.017   9.740  0.4058 -0.1114 -0.0932
  320ccc     H5 7323   8.719   4.926   9.780  3.1885  0.2569 -2.2303
  320ccc     H6 7324   8.669   5.023   9.630  0.8982 -1.5838 -0.2093
  320ccc     N1 7325   8.876   5.243   9.998 -0.3395  0.0917  0.0620
  320ccc     H7 7326   8.950   5.278   9.935 -0.1690  1.4572  0.9935
  320ccc     H8 7327   8.814   5.325   9.995 -0.8307 -0.2770 -0.0614
  320ccc     O1 7328   8.544   5.024   9.799 -0.3533 -0.1014 -0.4465
  320ccc    H17 7329   8.909   5.221  10.093 -1.0092 -0.8217  0.1028
  321ccc     C1 7330   7.492   5.583   8.946 -0.5032 -0.4011 -0.4481
  321ccc     H1 7331   7.593   5.616   8.967  0.3839 -3.2006  0.0538
  321ccc     H2 7332   7.432   5.562   9.035  1.5261 -0.7878  0.8916
  321ccc     C2 7333   7.513   5.445   8.873 -0.1240  0.8232 -0.4296
  321ccc     H3 7334   7.414   5.408   8.841 -0.2638  1.2484 -0.5054
  321ccc     H4 7335   7.573   5.456   8.782 -0.5717  0.0352 -0.8332
  321ccc     C3 7336   7.591   5.331   8.950  0.0327 -0.5896  0.0021
  321ccc     H5 7337   7.683   5.368   8.997  0.5424  1.5884 -2.5289
  321ccc     H6 7338   7.610   5.255   8.874 -1.2330 -0.0247 -0.8997
  321ccc     N1 7339   7.417   5.680   8.861  0.2094 -0.1340 -0.2783
  321ccc     H7 7340   7.353   5.726   8.927 -2.0948 -1.4139 -1.4613
  321ccc     H8 7341   7.482   5.743   8.812  1.1758 -1.5047 -0.8316
  321ccc     O1 7342   7.496   5.279   9.042  0.2501 -0.2060 -0.1153
  321ccc    H17 7343   7.363   5.638   8.783  0.1932  2.2757 -1.6739
  322ccc     C1 7344   6.624   4.657   8.878 -0.5592  0.1382 -0.3664
  322ccc     H1 7345   6.644   4.726   8.961  0.3913  0.2755 -0.6863
  322ccc     H2 7346   6.661   4.564   8.920 -1.0764 -0.0897 -0.4192
  322ccc     C2 7347   6.698   4.678   8.745  0.6130 -0.5283  0.2415
  322ccc     H3 7348   6.638   4.612   8.681  0.4103 -0.6000  0.5027
  322ccc     H4 7349   6.690   4.781   8.707 -0.9877 -0.4413  0.6991
  322ccc     C3 7350   6.847   4.617   8.751 -0.6755 -0.0772 -0.5106
  322ccc     H5 7351   6.913   4.647   8.669  1.4170  2.4330  1.9103
  322ccc     H6 7352   6.836   4.508   8.758  0.2543 -0.2974 -1.9646
  322ccc     N1 7353   6.472   4.646   8.867  0.1205  0.0854  0.1334
  322ccc     H7 7354   6.438   4.611   8.958  0.7038 -0.6361  0.0858
  322ccc     H8 7355   6.425   4.737   8.858 -1.4974 -0.4994  2.0312
  322ccc     O1 7356   6.902   4.667   8.878 -0.6320 -0.0787 -0.1046
  322ccc    H17 7357   6.443   4.580   8.794  0.2336 -2.4797  2.2407
  323ccc     C1 7358   8.871   4.408  10.659  0.5068  0.3976 -0.0066
  323ccc     H1 7359   8.819   4.421  10.754  0.8111  0.3724  0.1633
  323ccc     H2 7360   8.882   4.510  10.620 -0.9700  1.1855  1.4955
  323ccc     C2 7361   8.798   4.321  10.551  0.2947 -0.0406  0.1491
  323ccc     H3 7362   8.863   4.269  10.480  0.4401 -1.4463  1.2670
  323ccc     H4 7363   8.753   4.240  10.611 -0.3062 -0.6641 -1.1060
  323ccc     C3 7364   8.676   4.389  10.486 -0.3001  0.5944 -0.0815
  323ccc     H5 7365   8.613   4.437  10.561  2.4709  1.3583  1.8809
  323ccc     H6 7366   8.613   4.316  10.433  1.2354 -0.0304 -1.1344
  323ccc     N1 7367   9.006   4.360  10.692  0.3168 -0.1972  0.9817
  323ccc     H7 7368   9.075   4.389  10.621 -0.5315  0.0588  0.2423
  323ccc     H8 7369   9.032   4.405  10.781 -1.8145  2.8332  0.2129
  323ccc     O1 7370   8.713   4.484  10.386 -0.1653  0.1562  0.6959
  323ccc    H17 7371   9.009   4.257  10.699 -1.7516 -0.3533  0.2865
  324ccc     C1 7372   9.091   4.857  10.943  0.3560 -0.8834  0.3199
  324ccc     H1 7373   9.132   4.957  10.935  3.5104 -2.1142 -0.5189
  324ccc     H2 7374   9.070   4.828  10.840 -1.1494  1.6377 -0.1526
  324ccc     C2 7375   8.955   4.841  11.018  0.0446 -0.0849  0.1042
  324ccc     H3 7376   8.906   4.743  11.006 -1.0054  0.4484 -0.0995
  324ccc     H4 7377   8.979   4.853  11.124  1.5669 -0.2532 -0.2054
  324ccc     C3 7378   8.857   4.952  11.000  0.3222 -0.3915  1.0525
  324ccc     H5 7379   8.873   5.043  11.059  0.3880 -0.8489  1.7521
  324ccc     H6 7380   8.765   4.925  11.055 -1.3450  2.9143  0.1614
  324ccc     N1 7381   9.209   4.790  11.009  0.0698 -0.4669  0.6456
  324ccc     H7 7382   9.192   4.691  11.032  0.6394 -1.4215 -2.4814
  324ccc     H8 7383   9.288   4.792  10.943 -0.5466 -0.3696 -0.1090
  324ccc     O1 7384   8.828   4.984  10.862 -0.4019 -0.5475 -0.1044
  324ccc    H17 7385   9.249   4.836  11.091 -0.5793  0.8933  0.2257
  325ccc     C1 7386   7.332   3.881  10.017 -0.2786 -0.9724  0.7321
  325ccc     H1 7387   7.338   3.774   9.998  1.6446 -0.5165 -1.6675
  325ccc     H2 7388   7.230   3.916  10.032  0.5101  2.8041 -1.5012
  325ccc     C2 7389   7.377   3.961   9.883  0.6507  0.1649 -0.1132
  325ccc     H3 7390   7.483   3.944   9.864  0.9271  0.6329  0.9151
  325ccc     H4 7391   7.311   3.921   9.805 -0.4198 -1.8244  1.6964
  325ccc     C3 7392   7.358   4.115   9.884  0.4247  0.3320 -0.9675
  325ccc     H5 7393   7.253   4.139   9.907  0.2602  0.2408 -1.5963
  325ccc     H6 7394   7.377   4.152   9.782 -0.3854  0.3453 -1.1216
  325ccc     N1 7395   7.424   3.923  10.134 -0.5897 -0.0666  0.1223
  325ccc     H7 7396   7.418   4.023  10.158  1.7634  0.1313  0.1863
  325ccc     H8 7397   7.394   3.874  10.220 -2.8154 -0.4896 -0.8230
  325ccc     O1 7398   7.444   4.170   9.983  0.2794 -0.3843 -0.3194
  325ccc    H17 7399   7.518   3.892  10.106 -0.5462 -0.6761  0.9177
  326ccc     C1 7400   8.128   3.919   9.938 -0.1840  0.0509 -0.1818
  326ccc     H1 7401   8.226   3.967   9.936 -1.3893  2.7874  0.5875
  326ccc     H2 7402   8.059   3.983   9.882  0.3819  1.2630  0.4718
  326ccc     C2 7403   8.077   3.900  10.082  0.1311 -0.5062 -0.0617
  326ccc     H3 7404   7.976   3.856  10.081  0.1442 -0.5461 -1.4572
  326ccc     H4 7405   8.131   3.826  10.143  0.6449  1.2389  1.7161
  326ccc     C3 7406   8.084   4.037  10.154  0.0596  0.4038 -1.0363
  326ccc     H5 7407   8.186   4.050  10.192  0.0328 -0.1157 -0.7831
  326ccc     H6 7408   8.024   4.034  10.246  1.7283  1.9432  0.1858
  326ccc     N1 7409   8.136   3.788   9.860  0.2591 -0.7636 -0.2990
  326ccc     H7 7410   8.041   3.759   9.832 -0.5978  2.0131 -0.5041
  326ccc     H8 7411   8.189   3.792   9.772 -0.0413 -1.9025 -0.5570
  326ccc     O1 7412   8.027   4.142  10.069  0.5196  0.4882 -0.2497
  326ccc    H17 7413   8.188   3.727   9.926  1.2424 -0.2204 -0.5570
  327ccc     C1 7414   8.026   3.883   7.669 -0.0226 -0.7796 -0.4958
  327ccc     H1 7415   8.132   3.907   7.658  0.5300 -2.2911  1.0393
  327ccc     H2 7416   8.019   3.781   7.631  1.0920 -0.0444 -2.8569
  327ccc     C2 7417   7.939   3.972   7.579 -0.0784  0.6823 -0.9130
  327ccc     H3 7418   7.952   3.944   7.474 -0.6060 -0.0983 -0.7854
  327ccc     H4 7419   7.836   3.946   7.607  0.2104  1.0227  0.5259
  327ccc     C3 7420   7.955   4.124   7.601 -0.0451  0.0334 -0.3311
  327ccc     H5 7421   7.875   4.180   7.551 -1.3603 -0.8432  0.7114
  327ccc     H6 7422   8.054   4.158   7.569  0.5807  0.0097  1.4872
  327ccc     N1 7423   8.002   3.869   7.821 -0.1778  0.0642  0.6626
  327ccc     H7 7424   7.909   3.827   7.836  0.4689 -1.3408  0.8856
  327ccc     H8 7425   8.069   3.804   7.865 -1.5051 -0.4960  1.9226
  327ccc     O1 7426   7.943   4.141   7.747  0.5435 -0.0185 -0.4008
  327ccc    H17 7427   8.017   3.956   7.874  2.6009 -0.4909  0.9400
  328ccc     C1 7428   7.887   5.208   7.564  0.6495  0.4985 -0.5414
  328ccc     H1 7429   7.985   5.246   7.592  1.3701 -1.5113 -0.1877
  328ccc     H2 7430   7.808   5.254   7.623 -0.6603 -0.3074 -1.6170
  328ccc     C2 7431   7.878   5.050   7.584  0.2857  0.1120  0.0389
  328ccc     H3 7432   7.956   5.003   7.523  0.9049 -1.2375  1.7530
  328ccc     H4 7433   7.905   5.029   7.688  0.8037 -0.5333 -0.2190
  328ccc     C3 7434   7.737   4.989   7.563  0.6050  0.2768 -0.0994
  328ccc     H5 7435   7.698   4.996   7.461 -1.6020  1.2791  0.7500
  328ccc     H6 7436   7.664   5.040   7.628 -1.6062 -2.3235 -0.3619
  328ccc     N1 7437   7.871   5.244   7.417  0.5119 -0.2311 -0.8423
  328ccc     H7 7438   7.770   5.245   7.394  0.1030 -0.7668  0.7595
  328ccc     H8 7439   7.908   5.338   7.393 -2.6128  1.4473  0.2308
  328ccc     O1 7440   7.741   4.848   7.597 -0.6837  0.1034  0.2820
  328ccc    H17 7441   7.919   5.181   7.352 -1.9397 -1.2731 -1.7617
  329ccc     C1 7442   7.330   3.022   8.203  0.6313  0.2009  0.6901
  329ccc     H1 7443   7.232   3.071   8.210 -0.5764 -1.6997 -1.7645
  329ccc     H2 7444   7.343   2.977   8.301  0.0745 -1.3343  0.0799
  329ccc     C2 7445   7.444   3.117   8.164  0.2481 -0.2405 -0.0828
  329ccc     H3 7446   7.437   3.144   8.058 -0.1534 -1.4669 -0.3884
  329ccc     H4 7447   7.432   3.208   8.225  1.8925  0.2987 -0.5120
  329ccc     C3 7448   7.587   3.070   8.193  0.1289 -0.4496 -0.5229
  329ccc     H5 7449   7.658   3.148   8.161 -0.4396  0.6174  0.7204
  329ccc     H6 7450   7.612   2.984   8.131  1.4851 -0.5524  0.1166
  329ccc     N1 7451   7.327   2.898   8.113  0.0592 -0.7398 -0.0145
  329ccc     H7 7452   7.324   2.911   8.011  2.0189  0.1894  0.0082
  329ccc     H8 7453   7.398   2.828   8.139 -0.4057 -1.4747 -0.6770
  329ccc     O1 7454   7.602   3.038   8.334  0.2720 -0.2529 -0.1715
  329ccc    H17 7455   7.234   2.862   8.138  0.2569  1.1881  4.5729
  330ccc     C1 7456   7.928   3.311   9.307  0.1402  0.1277  0.5491
  330ccc     H1 7457   7.909   3.238   9.229 -0.5675 -0.3681  1.1690
  330ccc     H2 7458   7.857   3.272   9.381  0.5718 -2.0394 -0.1130
  330ccc     C2 7459   7.897   3.455   9.263 -0.5219 -0.0645  0.4058
  330ccc     H3 7460   7.904   3.520   9.351  1.3917  0.8927 -0.4035
  330ccc     H4 7461   7.975   3.490   9.195  1.5520 -3.3094  0.8631
  330ccc     C3 7462   7.760   3.474   9.198 -0.4061 -0.2276 -0.2893
  330ccc     H5 7463   7.740   3.580   9.180 -2.6781 -0.3058  1.3002
  330ccc     H6 7464   7.679   3.434   9.261 -0.7530  2.4793  1.1071
  330ccc     N1 7465   8.060   3.283   9.362  0.2656  0.2903 -0.4455
  330ccc     H7 7466   8.063   3.307   9.462 -1.0264  0.9075 -0.5321
  330ccc     H8 7467   8.090   3.185   9.351 -0.5083 -0.0305  0.2214
  330ccc     O1 7468   7.761   3.403   9.067 -0.0290  0.2971 -0.3719
  330ccc    H17 7469   8.132   3.343   9.318  0.2210  1.3595  0.8610
  331ccc     C1 7470   7.319   5.185   7.902  0.5625  0.2512 -0.3062
  331ccc     H1 7471   7.304   5.128   7.810  1.1361 -0.5941  0.1060
  331ccc     H2 7472   7.262   5.278   7.901  1.9537  1.2013 -3.1315
  331ccc     C2 7473   7.463   5.229   7.908 -0.0897 -0.7102  0.0675
  331ccc     H3 7474   7.474   5.285   7.814 -2.5202 -1.4520 -0.7410
  331ccc     H4 7475   7.483   5.295   7.994  0.9642 -1.2766  0.2783
  331ccc     C3 7476   7.570   5.112   7.895 -0.0784 -0.2735 -0.3132
  331ccc     H5 7477   7.672   5.142   7.867 -1.0951  2.5767 -1.3041
  331ccc     H6 7478   7.548   5.057   7.803  1.7658 -1.8974  0.1452
  331ccc     N1 7479   7.277   5.105   8.021  0.0703 -0.0057  0.3223
  331ccc     H7 7480   7.177   5.079   8.016 -0.0129  0.1085  1.3531
  331ccc     H8 7481   7.337   5.022   8.034 -0.4033 -0.7379 -1.6723
  331ccc     O1 7482   7.572   5.023   8.012 -0.1936  1.0236  0.4916
  331ccc    H17 7483   7.273   5.161   8.107 -0.9218 -1.0925  1.0123
  332ccc     C1 7484   8.377   4.364   8.010 -0.0597  0.0522 -0.1664
  332ccc     H1 7485   8.448   4.386   7.930 -0.5300  3.3339  0.2003
  332ccc     H2 7486   8.342   4.261   8.001 -0.2643  0.1379 -0.3422
  332ccc     C2 7487   8.255   4.447   7.982  1.2233  0.4124  0.0462
  332ccc     H3 7488   8.201   4.422   7.890 -2.2243  0.1202  1.9802
  332ccc     H4 7489   8.177   4.427   8.056  0.5944  1.0634 -0.4296
  332ccc     C3 7490   8.276   4.595   7.960  0.2425 -0.2336 -0.2412
  332ccc     H5 7491   8.346   4.603   7.876  1.7042 -0.8118  0.8850
  332ccc     H6 7492   8.332   4.652   8.035  0.9439  0.5832 -1.3598
  332ccc     N1 7493   8.441   4.372   8.152 -0.0705 -0.0727 -0.4291
  332ccc     H7 7494   8.371   4.378   8.227  0.1535 -1.8188 -0.0495
  332ccc     H8 7495   8.477   4.277   8.169 -0.3900 -0.1524 -0.1972
  332ccc     O1 7496   8.158   4.665   7.920  0.5607  0.3753 -0.4210
  332ccc    H17 7497   8.511   4.448   8.162 -0.3988  0.3263 -1.1106
  333ccc     C1 7498   8.811   5.106   9.364  0.7770  0.6778 -0.4038
  333ccc     H1 7499   8.708   5.069   9.362  0.2724  1.9760  0.3290
  333ccc     H2 7500   8.846   5.094   9.466  1.3808  1.7273 -0.4693
  333ccc     C2 7501   8.802   5.255   9.316 -0.5019  0.3921  0.0341
  333ccc     H3 7502   8.899   5.303   9.334  0.0581  0.9209 -3.5623
  333ccc     H4 7503   8.793   5.252   9.207 -1.3367 -2.6949  0.0762
  333ccc     C3 7504   8.680   5.330   9.371 -0.6000  0.0575  0.4260
  333ccc     H5 7505   8.676   5.432   9.331 -1.4118  0.6479  1.9255
  333ccc     H6 7506   8.679   5.324   9.480 -2.5476 -0.2548  0.4252
  333ccc     N1 7507   8.896   5.016   9.278 -0.5517  0.0458  0.0600
  333ccc     H7 7508   8.885   4.925   9.326 -0.8681  0.5359  0.9484
  333ccc     H8 7509   8.867   5.016   9.179 -1.4355  1.2913  0.2829
  333ccc     O1 7510   8.564   5.264   9.315 -0.6983  0.1670  0.3443
  333ccc    H17 7511   8.995   5.046   9.273 -0.5579  0.0193 -0.2079
  334ccc     C1 7512   8.355   5.567  10.103 -0.0534 -1.0537 -0.1874
  334ccc     H1 7513   8.434   5.500  10.140  0.8172 -0.8207 -1.5742
  334ccc     H2 7514   8.261   5.512  10.099  0.4871 -2.1733  1.2858
  334ccc     C2 7515   8.403   5.635   9.969  0.3892 -0.3636 -0.2870
  334ccc     H3 7516   8.334   5.716   9.944  0.2160  0.1481  1.7344
  334ccc     H4 7517   8.505   5.670   9.989 -0.0152 -0.7446  3.0091
  334ccc     C3 7518   8.410   5.538   9.847  0.5271 -0.3199 -0.5878
  334ccc     H5 7519   8.484   5.458   9.855 -0.5806 -1.1998  1.6141
  334ccc     H6 7520   8.433   5.598   9.757  0.8196  2.1555  1.0231
  334ccc     N1 7521   8.333   5.663  10.216  0.3081  0.2709  0.4197
  334ccc     H7 7522   8.303   5.612  10.301 -1.2050 -1.0044 -0.8329
  334ccc     H8 7523   8.417   5.723  10.220  0.4456  0.5595 -3.5191
  334ccc     O1 7524   8.286   5.467   9.830  0.5893 -0.0396 -0.2314
  334ccc    H17 7525   8.258   5.730  10.197  1.1056  1.4277  1.1754
  335ccc     C1 7526   6.188   7.724  11.141 -0.6197  0.3829  0.0002
  335ccc     H1 7527   6.116   7.642  11.143  2.5982 -2.7058  2.2246
  335ccc     H2 7528   6.133   7.816  11.120 -2.6658 -1.1030 -1.5209
  335ccc     C2 7529   6.302   7.692  11.031  0.2974 -0.3437 -0.6501
  335ccc     H3 7530   6.243   7.662  10.943 -1.1902 -0.8124  0.4669
  335ccc     H4 7531   6.348   7.789  11.010 -1.2266  0.3497 -0.9562
  335ccc     C3 7532   6.398   7.577  11.064  0.5701  0.2475  0.3075
  335ccc     H5 7533   6.461   7.592  11.153 -1.0804  0.1742  1.5241
  335ccc     H6 7534   6.467   7.576  10.979  0.4781  2.4767  0.1449
  335ccc     N1 7535   6.239   7.736  11.286 -0.6805 -0.6579 -0.0144
  335ccc     H7 7536   6.169   7.788  11.341  0.5395 -0.2775  1.2412
  335ccc     H8 7537   6.282   7.650  11.324  2.0419  1.4183  1.9953
  335ccc     O1 7538   6.313   7.458  11.077  0.3132  0.1306  0.1122
  335ccc    H17 7539   6.322   7.797  11.290 -1.2425  0.0602  2.0101
  336ccc     C1 7540   6.660   7.201  10.589  0.6509  0.5433 -0.4399
  336ccc     H1 7541   6.585   7.272  10.557 -0.7444  0.2879  2.0232
  336ccc     H2 7542   6.682   7.112  10.529 -0.9017  0.2703 -0.6462
  336ccc     C2 7543   6.616   7.133  10.720 -0.0459 -0.5480 -0.4290
  336ccc     H3 7544   6.700   7.082  10.768  0.1548  1.0349  0.9618
  336ccc     H4 7545   6.582   7.216  10.783  0.7876 -0.5813  0.0838
  336ccc     C3 7546   6.502   7.033  10.696 -0.0618  0.3693  0.2703
  336ccc     H5 7547   6.557   6.947  10.657  1.9974  1.6844  0.1214
  336ccc     H6 7548   6.431   7.058  10.617  1.3311  1.8181 -0.5843
  336ccc     N1 7549   6.789   7.271  10.601 -0.4190 -0.3574  0.7295
  336ccc     H7 7550   6.810   7.323  10.515 -2.2727 -0.1282  0.3756
  336ccc     H8 7551   6.798   7.341  10.676  0.8545  0.4829 -0.1567
  336ccc     O1 7552   6.444   7.001  10.818  0.1213  0.4597 -0.1101
  336ccc    H17 7553   6.866   7.202  10.611  1.5011  1.5270 -0.2033
  337ccc     C1 7554   6.557   6.342  11.757  0.1811  0.3433 -0.3861
  337ccc     H1 7555   6.526   6.417  11.830  0.6768  0.9164 -0.7627
  337ccc     H2 7556   6.656   6.381  11.736  1.0221 -0.1408  2.2674
  337ccc     C2 7557   6.460   6.341  11.634  0.4260 -0.1502 -0.2262
  337ccc     H3 7558   6.516   6.311  11.544  2.2642  1.1082  0.4431
  337ccc     H4 7559   6.376   6.272  11.651  0.7018 -0.8254 -1.4561
  337ccc     C3 7560   6.394   6.479  11.600  0.4535  0.4734 -0.2477
  337ccc     H5 7561   6.303   6.483  11.661  0.4538  0.4608 -0.2461
  337ccc     H6 7562   6.353   6.476  11.498  0.6161 -0.9484 -0.2965
  337ccc     N1 7563   6.588   6.221  11.841 -0.0001 -0.0617  0.3678
  337ccc     H7 7564   6.683   6.228  11.880  0.2489 -2.2930  0.3138
  337ccc     H8 7565   6.519   6.214  11.918  1.2106 -0.5477  1.4307
  337ccc     O1 7566   6.480   6.591  11.634  0.6846  0.5423  0.8403
  337ccc    H17 7567   6.576   6.138  11.781 -0.3293 -0.1851  0.5998
  338ccc     C1 7568   7.080   7.255  11.227 -0.8291  0.4309 -0.5045
  338ccc     H1 7569   6.994   7.297  11.279  1.4562  5.2529 -0.1137
  338ccc     H2 7570   7.054   7.224  11.126  0.0051  0.7255 -0.8200
  338ccc     C2 7571   7.135   7.125  11.299  0.5556  0.3843  0.0066
  338ccc     H3 7572   7.239   7.099  11.279  0.4532 -0.5760  0.6467
  338ccc     H4 7573   7.128   7.144  11.407  0.2712 -3.2091  0.7520
  338ccc     C3 7574   7.045   7.003  11.263  0.0620  0.1692  0.1653
  338ccc     H5 7575   7.079   6.918  11.324  2.9932 -0.6253 -2.3061
  338ccc     H6 7576   7.068   6.969  11.161  0.1951  2.4168 -0.6159
  338ccc     N1 7577   7.180   7.367  11.199  0.4410  0.8469 -0.7454
  338ccc     H7 7578   7.164   7.394  11.101 -0.0253 -1.6580 -1.4466
  338ccc     H8 7579   7.177   7.445  11.266  2.7480  0.6883 -0.3711
  338ccc     O1 7580   6.907   7.045  11.279 -0.0937 -0.2148  0.0830
  338ccc    H17 7581   7.279   7.335  11.199  0.1761  0.0003 -0.7321
  339ccc     C1 7582   4.335   5.214  11.403  0.5711 -0.1635 -0.5814
  339ccc     H1 7583   4.432   5.164  11.392 -0.1712 -1.7080 -0.2903
  339ccc     H2 7584   4.262   5.151  11.354 -0.5911  1.0493 -0.4548
  339ccc     C2 7585   4.332   5.359  11.353 -0.0534  0.2404  0.2877
  339ccc     H3 7586   4.234   5.400  11.327 -0.6334 -1.7531 -0.8991
  339ccc     H4 7587   4.364   5.437  11.424  0.3877  0.5628 -0.2480
  339ccc     C3 7588   4.410   5.385  11.230 -0.5267 -0.1428 -0.3591
  339ccc     H5 7589   4.365   5.474  11.183  0.2217  1.0321  1.0797
  339ccc     H6 7590   4.396   5.293  11.173 -0.8512  0.0890 -0.6602
  339ccc     N1 7591   4.312   5.191  11.553  0.9976 -0.3295 -0.0958
  339ccc     H7 7592   4.385   5.237  11.609  0.2284 -0.6016  1.1878
  339ccc     H8 7593   4.221   5.235  11.572  1.6797  0.4220  1.7082
  339ccc     O1 7594   4.554   5.395  11.260 -0.1195  0.2825 -0.1693
  339ccc    H17 7595   4.315   5.091  11.576  1.6837 -0.4915 -0.8557
  340ccc     C1 7596   5.537   5.664  11.758 -0.4222  0.0884  0.6644
  340ccc     H1 7597   5.527   5.738  11.678  1.0862  1.4939  1.6930
  340ccc     H2 7598   5.646   5.654  11.767 -0.4061 -1.0608 -0.5845
  340ccc     C2 7599   5.468   5.533  11.722  0.2692 -0.1526  0.1780
  340ccc     H3 7600   5.528   5.458  11.775  0.2466 -0.7693 -0.6357
  340ccc     H4 7601   5.363   5.528  11.753 -0.0194 -0.2514 -0.7839
  340ccc     C3 7602   5.483   5.486  11.579 -0.3440  0.3750 -0.0039
  340ccc     H5 7603   5.447   5.382  11.576 -0.6096  0.4641  0.1169
  340ccc     H6 7604   5.586   5.487  11.541 -0.6677  0.9285 -0.9110
  340ccc     N1 7605   5.501   5.728  11.893  0.3403  0.2990 -0.1509
  340ccc     H7 7606   5.402   5.711  11.916  0.2032  0.0010 -0.9101
  340ccc     H8 7607   5.558   5.685  11.967 -0.3433 -0.6551 -0.1657
  340ccc     O1 7608   5.400   5.570  11.505  0.4492 -0.1102  0.3679
  340ccc    H17 7609   5.523   5.829  11.886 -1.1908  0.6292 -0.7663
  341ccc     C1 7610   4.951   7.685  11.654  0.0242  0.0637  0.0241
  341ccc     H1 7611   4.937   7.662  11.548 -0.9088 -0.7430  0.3039
  341ccc     H2 7612   5.056   7.663  11.675  0.7208 -1.3424 -4.0045
  341ccc     C2 7613   4.862   7.582  11.730  0.4068  0.7066  0.1955
  341ccc     H3 7614   4.863   7.614  11.835 -1.2120 -0.9190  0.7554
  341ccc     H4 7615   4.755   7.600  11.710  1.1961  2.1845 -3.4134
  341ccc     C3 7616   4.898   7.429  11.696  0.0971 -0.0817 -0.6069
  341ccc     H5 7617   4.820   7.369  11.746 -1.5138  2.0234 -0.4645
  341ccc     H6 7618   4.996   7.412  11.742 -1.5087 -3.8248  1.9522
  341ccc     N1 7619   4.920   7.833  11.664 -0.1467  0.0510  0.7288
  341ccc     H7 7620   4.829   7.854  11.620  0.1837  0.3846  0.2020
  341ccc     H8 7621   4.912   7.861  11.763  2.8507  0.2108  1.0081
  341ccc     O1 7622   4.883   7.400  11.557  0.5324  0.0175  0.4850
  341ccc    H17 7623   4.988   7.893  11.615 -2.4005  2.2406  0.0439
  342ccc     C1 7624   5.048   7.637  10.984  0.0011 -0.2275  0.3994
  342ccc     H1 7625   5.099   7.711  11.046  0.4956  0.1251 -0.4218
  342ccc     H2 7626   5.028   7.543  11.035 -2.0215 -0.0093  0.1060
  342ccc     C2 7627   5.125   7.618  10.849  0.2269  1.0094  0.0560
  342ccc     H3 7628   5.123   7.707  10.785  2.0545  0.6691 -0.5557
  342ccc     H4 7629   5.230   7.606  10.880 -0.2489 -2.1583  0.8049
  342ccc     C3 7630   5.084   7.491  10.771  0.0216  0.3243  0.6396
  342ccc     H5 7631   5.142   7.481  10.678  0.5258 -0.1126  0.9995
  342ccc     H6 7632   4.980   7.502  10.738  0.6299 -3.0147 -3.1715
  342ccc     N1 7633   4.915   7.700  10.970 -0.4798  0.5255  0.4420
  342ccc     H7 7634   4.868   7.658  10.888  4.1253  2.4865 -3.7577
  342ccc     H8 7635   4.863   7.700  11.059  2.1566 -0.0324  2.0940
  342ccc     O1 7636   5.103   7.374  10.857  0.3768 -0.1110  0.0509
  342ccc    H17 7637   4.925   7.800  10.944  2.2593  0.0587 -0.6134
  343ccc     C1 7638   4.695   4.779   9.137 -0.3718 -0.0541  0.4762
  343ccc     H1 7639   4.726   4.784   9.241  3.5300  1.9136 -0.5734
  343ccc     H2 7640   4.590   4.750   9.140 -0.5553  0.4997 -0.1487
  343ccc     C2 7641   4.768   4.677   9.052 -0.5789  0.2613  1.2067
  343ccc     H3 7642   4.737   4.666   8.948 -1.8865  1.5553  1.4264
  343ccc     H4 7643   4.871   4.712   9.040 -0.6733  0.1085 -0.2535
  343ccc     C3 7644   4.770   4.544   9.126 -0.1872  0.1781  0.3680
  343ccc     H5 7645   4.813   4.471   9.056 -1.5364  1.1004 -1.4945
  343ccc     H6 7646   4.669   4.508   9.150 -0.9219  1.4435 -0.7125
  343ccc     N1 7647   4.703   4.915   9.078 -0.3954  0.2913 -0.1807
  343ccc     H7 7648   4.805   4.915   9.063 -0.4786 -0.1625 -0.7825
  343ccc     H8 7649   4.658   4.944   8.990 -0.9625 -0.3616 -0.1178
  343ccc     O1 7650   4.845   4.545   9.251  0.4042 -0.5766 -0.2823
  343ccc    H17 7651   4.671   4.986   9.145  0.0625 -0.7899  1.2354
  344ccc     C1 7652   4.975   3.575   8.939 -0.0755  0.2441 -0.1800
  344ccc     H1 7653   4.878   3.612   8.973  0.1934 -0.3565  1.2988
  344ccc     H2 7654   5.042   3.597   9.022 -0.6858  1.9950 -0.0953
  344ccc     C2 7655   5.009   3.659   8.813  0.4089 -0.5056 -0.3179
  344ccc     H3 7656   5.107   3.625   8.776  1.1887  1.0002  0.2668
  344ccc     H4 7657   4.942   3.623   8.735  1.2522 -0.9179 -0.8650
  344ccc     C3 7658   5.002   3.817   8.811  0.5193  0.1692 -0.7012
  344ccc     H5 7659   4.903   3.860   8.832  0.9296  0.4380  0.8135
  344ccc     H6 7660   5.012   3.855   8.709  1.2364 -0.1190 -0.7463
  344ccc     N1 7661   4.965   3.427   8.916 -0.4586  0.4911 -0.0763
  344ccc     H7 7662   5.055   3.388   8.886 -1.2526 -1.2506 -0.3231
  344ccc     H8 7663   4.942   3.386   9.007  0.2178  0.5699  0.1357
  344ccc     O1 7664   5.111   3.868   8.893  0.4799 -0.9436  0.2192
  344ccc    H17 7665   4.901   3.405   8.838 -1.5573  0.6248  0.7592
  345ccc     C1 7666   3.667   3.482   9.678  0.0577  0.1261 -0.1729
  345ccc     H1 7667   3.750   3.458   9.612 -0.5571 -1.1609 -0.5060
  345ccc     H2 7668   3.643   3.588   9.665  1.4341  0.5207  0.3360
  345ccc     C2 7669   3.720   3.441   9.818 -0.1413 -0.3956  0.2890
  345ccc     H3 7670   3.787   3.519   9.855  0.9873 -0.2666 -1.8593
  345ccc     H4 7671   3.629   3.435   9.879 -1.8791  1.5445 -1.8935
  345ccc     C3 7672   3.781   3.304   9.814  0.1905  0.8583  0.3612
  345ccc     H5 7673   3.717   3.241   9.752  2.5912 -0.2124 -1.2027
  345ccc     H6 7674   3.775   3.281   9.921  2.2988  2.0834  0.8013
  345ccc     N1 7675   3.544   3.406   9.632 -0.0202  0.4818 -0.0980
  345ccc     H7 7676   3.458   3.462   9.628 -0.3868  0.0955  1.7146
  345ccc     H8 7677   3.565   3.371   9.537 -1.2404  0.0107 -0.2125
  345ccc     O1 7678   3.920   3.302   9.766 -0.2267  0.1510  0.0954
  345ccc    H17 7679   3.522   3.321   9.686  0.1064 -0.3933 -1.3554
  346ccc     C1 7680   4.780   3.032   9.159 -0.4949  0.4853 -0.2449
  346ccc     H1 7681   4.873   3.040   9.102 -0.4009 -1.2523 -0.4014
  346ccc     H2 7682   4.747   3.132   9.188 -1.8441 -0.6355  2.4008
  346ccc     C2 7683   4.795   2.936   9.286  0.5796 -0.4199  0.0163
  346ccc     H3 7684   4.814   2.831   9.261 -1.4850 -1.0989  1.0413
  346ccc     H4 7685   4.888   2.967   9.335  1.3670 -0.3196 -1.4933
  346ccc     C3 7686   4.682   2.945   9.393 -0.2537  0.4208  0.9362
  346ccc     H5 7687   4.711   2.880   9.476  1.9969 -0.7726 -0.6604
  346ccc     H6 7688   4.595   2.900   9.344  1.3065  0.1965 -1.8481
  346ccc     N1 7689   4.680   2.989   9.061 -0.0978 -0.6447  0.5743
  346ccc     H7 7690   4.683   3.050   8.978 -0.3152 -1.3372  0.0452
  346ccc     H8 7691   4.699   2.894   9.028 -1.9544 -0.3062 -1.6934
  346ccc     O1 7692   4.670   3.084   9.428  0.3743 -0.0701 -0.0241
  346ccc    H17 7693   4.585   2.985   9.100 -0.5375  0.3393 -0.3466
  347ccc     C1 7694   4.541   3.703  11.769  0.3454  0.1871  0.1186
  347ccc     H1 7695   4.648   3.698  11.753  0.5077 -2.6038  1.5669
  347ccc     H2 7696   4.510   3.599  11.756  0.6202 -0.0423  1.2333
  347ccc     C2 7697   4.468   3.775  11.656  0.3206  0.0063 -0.4158
  347ccc     H3 7698   4.371   3.725  11.645 -0.4635  1.6499 -1.3247
  347ccc     H4 7699   4.447   3.875  11.696  0.3225 -0.4418  0.7531
  347ccc     C3 7700   4.535   3.767  11.524  0.2060 -0.0993 -0.6045
  347ccc     H5 7701   4.617   3.695  11.535 -0.5539 -0.9297 -0.2245
  347ccc     H6 7702   4.582   3.864  11.505 -1.8980  1.3545  1.0994
  347ccc     N1 7703   4.486   3.736  11.904  0.1003  0.0855  0.1234
  347ccc     H7 7704   4.494   3.837  11.921  0.7627  0.6177 -2.8422
  347ccc     H8 7705   4.383   3.735  11.903 -0.0778  3.6762  0.3885
  347ccc     O1 7706   4.443   3.733  11.423  0.2095  0.0380  0.3805
  347ccc    H17 7707   4.525   3.674  11.977  1.6581  0.3545 -0.4489
  348ccc     C1 7708   3.763   3.715  11.058  0.4109 -0.1457 -0.3000
  348ccc     H1 7709   3.744   3.651  10.971 -0.2491  1.0323 -1.0509
  348ccc     H2 7710   3.828   3.792  11.015  0.8298 -0.8752 -1.0114
  348ccc     C2 7711   3.837   3.650  11.175  0.1028  0.6578  0.2153
  348ccc     H3 7712   3.872   3.728  11.244  0.3846  0.2562  0.5263
  348ccc     H4 7713   3.768   3.587  11.233  0.8981 -1.2178 -0.7986
  348ccc     C3 7714   3.945   3.556  11.130 -1.3518 -0.4894 -0.1624
  348ccc     H5 7715   3.888   3.478  11.078 -3.0146  0.9162 -0.5611
  348ccc     H6 7716   3.996   3.521  11.221  0.2977  1.6486 -0.2068
  348ccc     N1 7717   3.634   3.769  11.098 -0.2326  0.4791 -0.7879
  348ccc     H7 7718   3.594   3.821  11.018  0.7362 -1.4205 -2.6048
  348ccc     H8 7719   3.576   3.687  11.116  1.2699 -0.4867 -0.1489
  348ccc     O1 7720   4.043   3.619  11.041  0.3979 -0.0161  0.4293
  348ccc    H17 7721   3.642   3.823  11.186  0.7186 -0.6762 -0.1390
  349ccc     C1 7722   4.230   3.432  10.876 -0.1655  0.4150 -0.4569
  349ccc     H1 7723   4.184   3.502  10.946  1.3399 -2.2859  3.6309
  349ccc     H2 7724   4.251   3.484  10.783  1.3071 -1.4464 -1.2384
  349ccc     C2 7725   4.120   3.321  10.864 -0.3461  0.2987  0.3273
  349ccc     H3 7726   4.093   3.284  10.964  0.3082 -2.2105 -0.3466
  349ccc     H4 7727   4.024   3.364  10.834  1.3756  2.6679 -2.3339
  349ccc     C3 7728   4.146   3.197  10.770 -0.8261 -0.0604  0.4902
  349ccc     H5 7729   4.061   3.128  10.773 -1.6517  0.8701 -0.7653
  349ccc     H6 7730   4.227   3.130  10.802 -1.0731 -0.0832  1.0810
  349ccc     N1 7731   4.357   3.395  10.933  0.1085  0.6767  0.6703
  349ccc     H7 7732   4.349   3.321  11.005  0.9712  0.4754  0.5755
  349ccc     H8 7733   4.420   3.363  10.858 -0.9592 -0.5870  0.2826
  349ccc     O1 7734   4.173   3.256  10.640  1.0417  0.2020  0.2286
  349ccc    H17 7735   4.395   3.477  10.983  1.0265 -1.2796  3.4763
  350ccc     C1 7736   3.576   2.923   9.810  1.0606 -0.0187 -0.8382
  350ccc     H1 7737   3.565   3.003   9.884 -0.5115 -1.3377  0.4262
  350ccc     H2 7738   3.537   2.832   9.856  1.7303  0.7776  1.4746
  350ccc     C2 7739   3.724   2.902   9.779  0.2243 -0.0783 -0.2399
  350ccc     H3 7740   3.734   2.811   9.718 -1.7033  0.9154 -2.1806
  350ccc     H4 7741   3.761   2.985   9.718 -1.2652  0.0254 -1.0281
  350ccc     C3 7742   3.805   2.898   9.903 -0.1314 -0.5394  0.2039
  350ccc     H5 7743   3.911   2.883   9.879 -0.1469 -0.3402  0.0084
  350ccc     H6 7744   3.770   2.820   9.972 -5.5377  2.4252  1.3783
  350ccc     N1 7745   3.491   2.954   9.691  0.2784 -0.6280 -0.6061
  350ccc     H7 7746   3.401   2.989   9.728 -0.8694 -1.5803 -2.3329
  350ccc     H8 7747   3.536   3.035   9.646  1.8428  1.3802  3.9467
  350ccc     O1 7748   3.793   3.026   9.971 -0.0397  0.5775  0.2724
  350ccc    H17 7749   3.480   2.874   9.627  1.7771 -0.6706 -0.8462
  351ccc     C1 7750   2.251   7.573   9.832 -0.2209  0.1614  0.7476
  351ccc     H1 7751   2.165   7.621   9.786  1.3693 -0.6212 -3.4446
  351ccc     H2 7752   2.343   7.628   9.809 -0.2573  0.3172  0.9694
  351ccc     C2 7753   2.279   7.430   9.774  1.0474 -0.3266  0.0769
  351ccc     H3 7754   2.368   7.394   9.828  0.6485 -2.5522 -0.6554
  351ccc     H4 7755   2.196   7.368   9.809  0.9993 -0.8071 -0.8742
  351ccc     C3 7756   2.306   7.414   9.622  0.1234  0.5002 -0.1171
  351ccc     H5 7757   2.209   7.403   9.571  0.2585  0.1552 -0.3049
  351ccc     H6 7758   2.366   7.324   9.604 -0.4690  0.4846 -2.4521
  351ccc     N1 7759   2.246   7.575   9.983  0.2962 -0.1727  0.0745
  351ccc     H7 7760   2.324   7.522  10.024  0.8816  0.9101  0.3810
  351ccc     H8 7761   2.251   7.671  10.018 -1.3667 -0.0727  0.1202
  351ccc     O1 7762   2.380   7.523   9.559  0.4081 -0.6303  0.5413
  351ccc    H17 7763   2.155   7.542  10.020  0.4504  1.8786  2.5104
  352ccc     C1 7764   2.452   7.312   8.427  0.4945 -0.1781  0.0810
  352ccc     H1 7765   2.457   7.209   8.460 -2.6445 -0.3906  0.1799
  352ccc     H2 7766   2.535   7.319   8.357 -0.8545 -0.6291 -1.6117
  352ccc     C2 7767   2.486   7.386   8.555  0.0347 -0.1055 -0.1423
  352ccc     H3 7768   2.583   7.437   8.548 -0.7242  1.3695 -0.3945
  352ccc     H4 7769   2.425   7.477   8.559  0.7671  0.3510  2.0627
  352ccc     C3 7770   2.482   7.313   8.681 -0.0719  0.7292 -0.5284
  352ccc     H5 7771   2.571   7.249   8.677  0.0275  0.8536 -0.2828
  352ccc     H6 7772   2.389   7.257   8.696 -0.5134  1.4456 -0.5515
  352ccc     N1 7773   2.328   7.343   8.351 -0.3810 -0.1308  0.6227
  352ccc     H7 7774   2.248   7.342   8.416 -0.8088 -0.6956  0.1022
  352ccc     H8 7775   2.322   7.440   8.316  0.9893 -0.0805  0.4938
  352ccc     O1 7776   2.494   7.405   8.796 -0.2116  0.8323  0.2011
  352ccc    H17 7777   2.308   7.271   8.280 -2.3157  1.2635 -0.3608
  353ccc     C1 7778   3.140   6.808   7.555  0.6137 -0.5185  0.2429
  353ccc     H1 7779   3.164   6.855   7.459 -2.2853  0.1202 -0.2697
  353ccc     H2 7780   3.032   6.794   7.550  0.3342  1.6684 -2.1843
  353ccc     C2 7781   3.160   6.913   7.667 -0.3752  0.2261  0.0969
  353ccc     H3 7782   3.265   6.941   7.685  0.5026 -3.4910  1.5970
  353ccc     H4 7783   3.111   7.003   7.627  0.0632  1.0292  1.2990
  353ccc     C3 7784   3.094   6.859   7.792  0.6134  0.1923 -0.0871
  353ccc     H5 7785   2.991   6.829   7.769  1.1247 -0.6216 -1.4467
  353ccc     H6 7786   3.089   6.930   7.876  2.2678  0.4707 -0.1863
  353ccc     N1 7787   3.220   6.682   7.565 -0.8816  0.2502 -0.4372
  353ccc     H7 7788   3.317   6.691   7.599 -1.0076  0.3497 -0.1017
  353ccc     H8 7789   3.182   6.624   7.642  4.0779  1.0747  3.1194
  353ccc     O1 7790   3.164   6.745   7.833  0.2710  0.3187 -0.3835
  353ccc    H17 7791   3.212   6.636   7.473  1.3878 -0.5457 -0.2894
  354ccc     C1 7792   3.909   6.952   7.683 -0.0201 -0.1455  0.2871
  354ccc     H1 7793   3.991   6.978   7.750  0.1500 -0.4025  0.1755
  354ccc     H2 7794   3.904   7.011   7.591  0.6586 -1.8195 -0.8612
  354ccc     C2 7795   3.774   6.947   7.764  0.4491  0.1767  1.0158
  354ccc     H3 7796   3.688   6.975   7.703  2.4644  1.8966 -1.2343
  354ccc     H4 7797   3.756   6.847   7.805 -2.9910 -0.7253 -2.1226
  354ccc     C3 7798   3.776   7.042   7.879 -0.0240 -0.0505 -0.2185
  354ccc     H5 7799   3.785   7.144   7.841 -0.8075 -0.6097 -1.9850
  354ccc     H6 7800   3.857   7.028   7.952  1.0565  1.0056 -1.1658
  354ccc     N1 7801   3.941   6.815   7.622 -0.1034 -0.3716  0.1903
  354ccc     H7 7802   3.874   6.799   7.545  0.6377  0.6005 -0.6819
  354ccc     H8 7803   4.038   6.803   7.592  0.2048  1.5245  0.2727
  354ccc     O1 7804   3.641   7.013   7.941 -0.3153  0.3491  0.5045
  354ccc    H17 7805   3.911   6.746   7.692 -3.4439  2.2132  1.6680
  355ccc     C1 7806   3.814   6.239   8.272  0.1588  0.0180 -0.1327
  355ccc     H1 7807   3.735   6.315   8.264  0.2750  0.3437  1.5189
  355ccc     H2 7808   3.830   6.223   8.378 -1.0067 -1.0739 -0.1000
  355ccc     C2 7809   3.939   6.275   8.193  1.0347  0.3649  0.3721
  355ccc     H3 7810   4.017   6.198   8.201  0.4770 -0.5125 -1.9674
  355ccc     H4 7811   3.921   6.280   8.085 -0.8155  0.0216  0.6317
  355ccc     C3 7812   3.979   6.408   8.255 -0.3779  0.1665  0.2986
  355ccc     H5 7813   4.075   6.440   8.214 -0.0841  0.6879  1.3471
  355ccc     H6 7814   3.991   6.382   8.361 -1.2767  1.9043  0.8727
  355ccc     N1 7815   3.744   6.121   8.213 -0.1022 -0.2977  0.3065
  355ccc     H7 7816   3.791   6.030   8.225  1.3729  0.4294  0.3611
  355ccc     H8 7817   3.653   6.116   8.261 -0.4617  0.1472 -0.3123
  355ccc     O1 7818   3.869   6.506   8.246 -0.0170 -0.0574  0.4839
  355ccc    H17 7819   3.726   6.129   8.112 -0.5987 -0.5854  0.3727
  356ccc     C1 7820   3.896   7.508   7.968 -0.6200 -0.1482  0.0317
  356ccc     H1 7821   3.930   7.590   8.032  0.0178  2.0903 -2.9224
  356ccc     H2 7822   3.788   7.501   7.968 -0.5988 -1.1968  2.3354
  356ccc     C2 7823   3.957   7.367   8.013  0.6477  0.0929 -0.1976
  356ccc     H3 7824   3.904   7.287   7.958  0.8170  1.1858 -2.0392
  356ccc     H4 7825   4.060   7.351   7.981  0.2967  0.4221 -1.5845
  356ccc     C3 7826   3.940   7.332   8.172  0.4531  0.3238  0.5530
  356ccc     H5 7827   3.837   7.366   8.191  0.0113  0.1417 -1.3430
  356ccc     H6 7828   4.012   7.391   8.230  0.9180  0.1134  0.1884
  356ccc     N1 7829   3.946   7.552   7.827  0.3641 -0.0584  0.5099
  356ccc     H7 7830   3.949   7.468   7.767  0.3856  0.0684  0.3322
  356ccc     H8 7831   3.872   7.614   7.792  0.9031  1.1034  1.3574
  356ccc     O1 7832   3.944   7.187   8.204 -0.2866  0.2897 -0.6108
  356ccc    H17 7833   4.038   7.597   7.816 -0.3401  1.0312 -1.4618
  357ccc     C1 7834   4.042   7.486   7.010  0.3336  0.8238  0.8090
  357ccc     H1 7835   4.138   7.437   7.026 -0.3603 -1.0109 -0.2699
  357ccc     H2 7836   4.044   7.564   6.934  0.6889  1.1562  1.1553
  357ccc     C2 7837   3.995   7.569   7.129 -0.4824  0.4909 -0.4995
  357ccc     H3 7838   3.920   7.642   7.097 -1.2775  0.2932  0.8765
  357ccc     H4 7839   3.947   7.509   7.207 -1.0229 -0.2290 -1.3701
  357ccc     C3 7840   4.107   7.658   7.200  0.0723  0.4519  0.6004
  357ccc     H5 7841   4.071   7.708   7.290 -0.2134  1.9510 -0.3134
  357ccc     H6 7842   4.130   7.743   7.135 -1.2484 -0.0712 -0.6088
  357ccc     N1 7843   3.946   7.380   6.966  0.0372  0.2602  0.5751
  357ccc     H7 7844   3.851   7.420   6.958  0.4152  0.8926 -1.1104
  357ccc     H8 7845   3.973   7.336   6.878  0.2813 -1.2047  1.3523
  357ccc     O1 7846   4.231   7.581   7.219  0.0737 -0.4718  1.0499
  357ccc    H17 7847   3.941   7.294   7.022  0.1181 -0.2010 -0.1189
  358ccc     C1 7848   4.925   7.374   6.621  0.8122 -0.3544 -0.0210
  358ccc     H1 7849   4.848   7.314   6.670  0.4531  0.4673  0.4390
  358ccc     H2 7850   5.010   7.309   6.598  0.2048 -0.5803 -1.7332
  358ccc     C2 7851   4.964   7.486   6.720 -0.2653 -0.1472  0.4220
  358ccc     H3 7852   5.026   7.445   6.800  2.9174  0.2878 -1.6505
  358ccc     H4 7853   5.031   7.556   6.667  0.7087 -1.0832  0.3821
  358ccc     C3 7854   4.839   7.551   6.786 -0.3673  0.0899  0.1158
  358ccc     H5 7855   4.780   7.611   6.716 -0.3430 -0.1164 -0.0842
  358ccc     H6 7856   4.879   7.628   6.853 -0.6194 -2.2988  3.2649
  358ccc     N1 7857   4.873   7.410   6.486 -0.6565  0.1978  0.3375
  358ccc     H7 7858   4.942   7.474   6.445  0.5028 -0.0371  1.8260
  358ccc     H8 7859   4.854   7.327   6.428 -2.1633 -0.4263  1.6242
  358ccc     O1 7860   4.761   7.439   6.838  0.4934 -0.2581 -0.0883
  358ccc    H17 7861   4.780   7.455   6.485 -1.1341 -0.7059 -1.5863
  359ccc     C1 7862   5.406   8.709   8.117 -0.5050 -0.2352  0.4315
  359ccc     H1 7863   5.328   8.635   8.135 -0.3587 -1.1063 -2.0241
  359ccc     H2 7864   5.401   8.747   8.015 -1.8086 -1.8066 -0.1236
  359ccc     C2 7865   5.546   8.645   8.143  0.1463  0.2277  0.5705
  359ccc     H3 7866   5.540   8.622   8.250 -3.7412 -0.8812  0.2640
  359ccc     H4 7867   5.568   8.547   8.099  1.0291 -0.2351  1.9741
  359ccc     C3 7868   5.663   8.738   8.107  0.2465 -0.1976 -0.6854
  359ccc     H5 7869   5.762   8.691   8.101  1.0298  1.2143  0.6648
  359ccc     H6 7870   5.659   8.807   8.192 -1.7218  1.0725 -1.7231
  359ccc     N1 7871   5.367   8.826   8.209 -0.5953 -0.0275  0.1612
  359ccc     H7 7872   5.276   8.867   8.182 -1.3021 -1.5006  0.1821
  359ccc     H8 7873   5.351   8.787   8.303  2.3263  0.4017  0.9388
  359ccc     O1 7874   5.626   8.810   7.992 -0.3852  0.2366  0.2200
  359ccc    H17 7875   5.434   8.903   8.218 -0.8173  0.0516  1.3907
  360ccc     C1 7876   5.731   9.623   7.445  0.1007 -0.4118 -0.4438
  360ccc     H1 7877   5.700   9.682   7.359  1.0957 -0.0695 -0.5815
  360ccc     H2 7878   5.783   9.536   7.404  1.9195  0.6541 -0.5425
  360ccc     C2 7879   5.618   9.579   7.533 -0.6200 -0.2103  0.1860
  360ccc     H3 7880   5.674   9.512   7.599  0.4680  0.7314  0.2579
  360ccc     H4 7881   5.570   9.662   7.587 -1.0769  0.2515 -0.8979
  360ccc     C3 7882   5.504   9.519   7.445  0.1623  0.1284  0.0414
  360ccc     H5 7883   5.484   9.598   7.371  0.8167  1.2616  1.0313
  360ccc     H6 7884   5.413   9.498   7.503 -1.7036  0.4780 -2.5636
  360ccc     N1 7885   5.827   9.717   7.513 -1.0934 -0.0969  0.3396
  360ccc     H7 7886   5.900   9.745   7.446  0.7923 -1.5234  1.6838
  360ccc     H8 7887   5.786   9.802   7.554 -0.5633 -0.3812  1.5105
  360ccc     O1 7888   5.559   9.404   7.383 -0.2629  0.0598  0.0549
  360ccc    H17 7889   5.877   9.677   7.594  0.0364  0.3593 -0.1069
  361ccc     C1 7890   4.535   8.477   6.769  0.1517 -0.3030  0.0599
  361ccc     H1 7891   4.432   8.482   6.804  0.2194 -0.7490  0.3214
  361ccc     H2 7892   4.573   8.382   6.806 -0.2610  0.0380  1.3938
  361ccc     C2 7893   4.606   8.593   6.844 -0.3292  0.1984 -0.2012
  361ccc     H3 7894   4.711   8.585   6.813  0.0746 -0.2778  1.1835
  361ccc     H4 7895   4.571   8.686   6.798  2.2433 -0.1951 -3.2688
  361ccc     C3 7896   4.585   8.591   6.993 -0.2128 -0.4737 -0.3254
  361ccc     H5 7897   4.479   8.605   7.019  0.0996  1.9783 -0.1210
  361ccc     H6 7898   4.614   8.689   7.033 -1.1849  1.1492 -3.2570
  361ccc     N1 7899   4.543   8.477   6.613  0.6829 -0.1695  0.0301
  361ccc     H7 7900   4.511   8.385   6.579  0.9264 -0.1852 -0.1590
  361ccc     H8 7901   4.475   8.545   6.575 -0.7865 -0.3622  2.1338
  361ccc     O1 7902   4.658   8.475   7.048  0.0883 -0.2326  0.4402
  361ccc    H17 7903   4.639   8.490   6.577  0.8848 -1.1790  0.1810
  362ccc     C1 7904   4.883   9.006   7.704 -0.1929 -0.5935  0.2931
  362ccc     H1 7905   4.979   9.020   7.754 -0.5537 -0.6922  1.0292
  362ccc     H2 7906   4.829   8.920   7.743 -2.3962  0.5467 -0.0838
  362ccc     C2 7907   4.924   8.973   7.560 -0.0667 -0.3073  0.3045
  362ccc     H3 7908   4.848   8.992   7.484  0.8496 -0.4447 -0.6743
  362ccc     H4 7909   4.999   9.048   7.532 -0.1570 -0.2726  0.1528
  362ccc     C3 7910   4.987   8.832   7.531 -0.9743  0.5025  0.8009
  362ccc     H5 7911   5.085   8.820   7.579  0.1826  1.8360 -1.0791
  362ccc     H6 7912   5.004   8.822   7.424 -2.3908  0.5536  0.5578
  362ccc     N1 7913   4.811   9.131   7.726  0.1475 -0.1547 -0.2607
  362ccc     H7 7914   4.780   9.144   7.823 -0.0386  0.2943 -0.3817
  362ccc     H8 7915   4.858   9.217   7.695  0.4704 -0.3082 -0.2077
  362ccc     O1 7916   4.896   8.733   7.570  0.2667 -0.2411 -0.3521
  362ccc    H17 7917   4.726   9.138   7.668 -0.3347  1.7688  0.6157
  363ccc     C1 7918   4.072   8.336   7.675  0.1896  0.4053  0.7707
  363ccc     H1 7919   4.134   8.351   7.587  0.1110  0.6656  0.7613
  363ccc     H2 7920   4.004   8.420   7.687 -0.7293 -0.4138  1.4836
  363ccc     C2 7921   4.168   8.324   7.796  0.3052 -0.2036  0.6263
  363ccc     H3 7922   4.195   8.425   7.829 -1.1664  1.1197 -1.9254
  363ccc     H4 7923   4.120   8.272   7.880  2.0720 -1.5689  0.8678
  363ccc     C3 7924   4.292   8.240   7.779 -0.0445  0.0278  0.0430
  363ccc     H5 7925   4.332   8.224   7.880 -0.3829 -0.3640  0.1178
  363ccc     H6 7926   4.364   8.294   7.716 -0.1750 -0.0025 -0.1310
  363ccc     N1 7927   3.978   8.214   7.653 -0.3982  0.1917 -0.2253
  363ccc     H7 7928   4.037   8.131   7.634 -1.0703 -0.0049 -1.5879
  363ccc     H8 7929   3.913   8.199   7.732  0.8848  0.0675  0.8506
  363ccc     O1 7930   4.250   8.101   7.736  0.1411  0.1658  0.3250
  363ccc    H17 7931   3.922   8.218   7.567 -0.8441  1.4748  0.1100
  364ccc     C1 7932   4.193   8.288   6.871 -0.3410  0.5358 -0.3622
  364ccc     H1 7933   4.154   8.202   6.817 -1.3464  0.4637  0.4541
  364ccc     H2 7934   4.265   8.344   6.812  1.8119 -1.3765  0.2916
  364ccc     C2 7935   4.262   8.235   6.996 -0.4455 -0.2034  0.0969
  364ccc     H3 7936   4.274   8.315   7.069 -1.3033 -1.4332  1.6703
  364ccc     H4 7937   4.199   8.162   7.049 -1.4707  0.2506 -0.4661
  364ccc     C3 7938   4.401   8.170   6.970  0.3317 -0.0808  0.2315
  364ccc     H5 7939   4.465   8.242   6.918  1.0575 -0.8249  0.0756
  364ccc     H6 7940   4.378   8.091   6.897 -0.1752 -0.0364  0.3379
  364ccc     N1 7941   4.074   8.371   6.903  0.1510 -0.1070 -0.0593
  364ccc     H7 7942   4.021   8.402   6.821  0.1317 -1.8596 -0.7482
  364ccc     H8 7943   4.009   8.310   6.955  0.1683  0.0103  0.1022
  364ccc     O1 7944   4.468   8.109   7.078  0.0031  0.2432  0.0480
  364ccc    H17 7945   4.089   8.454   6.962 -1.5190 -0.5753  1.0956
  365ccc     C1 7946   6.434   8.159   8.070  0.1152  0.2954 -0.4408
  365ccc     H1 7947   6.381   8.232   8.008  0.6212 -0.9304 -2.4099
  365ccc     H2 7948   6.525   8.119   8.024  0.4408 -1.8434  1.8500
  365ccc     C2 7949   6.334   8.041   8.084 -0.1562  1.2434  0.0002
  365ccc     H3 7950   6.382   7.972   8.155 -1.3700 -0.5120 -0.8208
  365ccc     H4 7951   6.239   8.074   8.128 -1.1772 -1.8547  0.3631
  365ccc     C3 7952   6.308   7.965   7.960  1.0648  0.1553  0.2761
  365ccc     H5 7953   6.267   7.868   7.988 -1.0561  0.5927 -1.0723
  365ccc     H6 7954   6.400   7.939   7.906  0.6377 -0.0472 -0.3635
  365ccc     N1 7955   6.477   8.212   8.206  0.3158  0.3217 -0.6258
  365ccc     H7 7956   6.554   8.280   8.199 -1.0245  2.1705  1.4938
  365ccc     H8 7957   6.399   8.263   8.249 -0.6036 -2.0355  0.6669
  365ccc     O1 7958   6.230   8.049   7.869 -0.6809 -0.1514  0.2111
  365ccc    H17 7959   6.508   8.130   8.261 -0.4055  0.4105 -0.0802
  366ccc     C1 7960   6.261   8.178   6.750 -0.6199  0.3417  0.1098
  366ccc     H1 7961   6.195   8.214   6.671  1.7184 -1.2157 -2.7478
  366ccc     H2 7962   6.250   8.070   6.757 -0.1214  0.3300  0.8913
  366ccc     C2 7963   6.227   8.236   6.890 -0.1970  0.6662 -0.4620
  366ccc     H3 7964   6.290   8.191   6.967 -1.0379 -0.0990 -0.2058
  366ccc     H4 7965   6.248   8.344   6.889  0.9751  0.4549 -1.2729
  366ccc     C3 7966   6.078   8.200   6.919  0.2972  0.5477  0.0597
  366ccc     H5 7967   6.064   8.091   6.914 -2.9104  0.9165 -0.6211
  366ccc     H6 7968   6.014   8.261   6.855  0.4909  0.5087 -0.1750
  366ccc     N1 7969   6.407   8.194   6.708  0.0116 -0.0922  0.2857
  366ccc     H7 7970   6.426   8.291   6.679  1.1767 -0.9093 -1.8837
  366ccc     H8 7971   6.468   8.178   6.789  2.4198 -1.4121 -1.6753
  366ccc     O1 7972   6.051   8.254   7.055  0.2809  0.1134  0.3232
  366ccc    H17 7973   6.431   8.129   6.632 -0.7991  0.5506 -0.5466
  367ccc     C1 7974   3.295   5.644  10.407  0.4876 -0.0285 -0.2277
  367ccc     H1 7975   3.273   5.689  10.504 -1.9528 -3.2114  0.8889
  367ccc     H2 7976   3.348   5.719  10.348 -1.9305  1.1740 -1.0291
  367ccc     C2 7977   3.152   5.613  10.350 -0.8074  0.0837  0.2804
  367ccc     H3 7978   3.164   5.535  10.273  0.4903  1.1776 -0.6682
  367ccc     H4 7979   3.093   5.553  10.421  0.5718 -1.4905  0.1354
  367ccc     C3 7980   3.074   5.722  10.273  0.6021 -0.2295  0.0766
  367ccc     H5 7981   2.971   5.687  10.260 -0.1292  1.7235  0.2272
  367ccc     H6 7982   3.123   5.739  10.176  1.2442  0.6112  0.5305
  367ccc     N1 7983   3.387   5.527  10.433  0.3785  0.2341  0.0670
  367ccc     H7 7984   3.342   5.468  10.506  0.4940 -0.9872 -0.8169
  367ccc     H8 7985   3.400   5.459  10.357 -1.8760 -2.1735  1.6497
  367ccc     O1 7986   3.090   5.843  10.350  0.3639 -0.4360 -0.5191
  367ccc    H17 7987   3.480   5.553  10.469  0.2850 -1.7480  1.9651
  368ccc     C1 7988   2.945   5.699  11.272  0.4375 -0.0046 -0.0049
  368ccc     H1 7989   2.990   5.753  11.356  0.7594  1.1080 -0.8764
  368ccc     H2 7990   3.024   5.644  11.221  1.5345 -0.4609  2.0740
  368ccc     C2 7991   2.885   5.799  11.175  0.6680 -0.5785  0.7940
  368ccc     H3 7992   2.835   5.753  11.088 -0.4737  1.0390  0.5519
  368ccc     H4 7993   2.814   5.872  11.216  1.9203  1.6934 -0.8379
  368ccc     C3 7994   2.994   5.889  11.116  0.0380 -0.6575  0.0714
  368ccc     H5 7995   3.079   5.837  11.071  0.7444 -0.5565  1.2368
  368ccc     H6 7996   3.036   5.955  11.194  0.2778 -1.1367  0.3548
  368ccc     N1 7997   2.837   5.609  11.327  0.7318  0.0023 -0.1555
  368ccc     H7 7998   2.757   5.669  11.355 -0.3925 -1.3853 -0.2546
  368ccc     H8 7999   2.801   5.543  11.256  0.1835  1.7739 -1.5910
  368ccc     O1 8000   2.925   5.975  11.021  0.1082  0.0766  0.4761
  368ccc    H17 8001   2.870   5.555  11.408  0.0556  0.7332  0.6249
  369ccc     C1 8002   3.818   6.182  10.755  0.1189 -1.0564 -0.0472
  369ccc     H1 8003   3.916   6.135  10.758  0.3372 -0.6895 -1.2253
  369ccc     H2 8004   3.748   6.117  10.808 -1.6507  1.1025  0.4367
  369ccc     C2 8005   3.776   6.185  10.611  0.4578  0.8295  0.7274
  369ccc     H3 8006   3.691   6.250  10.591 -0.1584  0.1932  1.2213
  369ccc     H4 8007   3.850   6.241  10.553 -0.8905  0.1106 -1.8566
  369ccc     C3 8008   3.736   6.046  10.561 -0.0228  0.0237  0.3186
  369ccc     H5 8009   3.684   5.991  10.640 -1.0511  1.7723  0.9154
  369ccc     H6 8010   3.829   5.993  10.538  0.6562  0.5824  1.6535
  369ccc     N1 8011   3.818   6.307  10.846  0.3591 -0.3875 -0.0692
  369ccc     H7 8012   3.745   6.375  10.821  2.1033  1.3995 -0.4727
  369ccc     H8 8013   3.806   6.275  10.943 -2.9605 -1.3488 -0.6605
  369ccc     O1 8014   3.655   6.056  10.444  0.4108  0.4085  0.4076
  369ccc    H17 8015   3.908   6.354  10.828 -0.2647  1.3443  1.0597
  370ccc     C1 8016   4.201   5.733  10.132  0.4766  0.6816 -0.1119
  370ccc     H1 8017   4.131   5.814  10.109  0.5891  0.5502 -0.9604
  370ccc     H2 8018   4.258   5.703  10.044 -2.0051 -1.7579 -1.0515
  370ccc     C2 8019   4.118   5.601  10.158 -0.9820 -1.0056 -0.8152
  370ccc     H3 8020   4.182   5.514  10.178 -1.2332 -1.0981 -0.4102
  370ccc     H4 8021   4.060   5.607  10.251 -0.9860 -1.9073 -0.7423
  370ccc     C3 8022   4.034   5.561  10.043 -0.1533  0.1634 -0.1898
  370ccc     H5 8023   3.951   5.499  10.076 -0.6604 -0.2473 -2.1208
  370ccc     H6 8024   4.091   5.510   9.965  0.4549  3.1734 -1.8915
  370ccc     N1 8025   4.295   5.772  10.244 -0.0415  0.5350 -0.0938
  370ccc     H7 8026   4.345   5.691  10.284 -0.9279  0.0798  0.1185
  370ccc     H8 8027   4.363   5.841  10.211  1.2403 -0.6148  0.0741
  370ccc     O1 8028   3.973   5.674   9.975 -0.0118 -0.0012  0.0045
  370ccc    H17 8029   4.236   5.810  10.320 -4.4548 -3.8586 -0.8246
  371ccc     C1 8030   2.543   6.597  10.091 -0.4793  0.7543  0.4818
  371ccc     H1 8031   2.446   6.648  10.090 -0.4739  0.8129  1.7384
  371ccc     H2 8032   2.585   6.624  10.188  1.6621  0.3765 -0.2923
  371ccc     C2 8033   2.636   6.647   9.979 -0.3982 -0.5395  0.0416
  371ccc     H3 8034   2.633   6.756   9.991 -0.8535 -0.2210 -2.4308
  371ccc     H4 8035   2.734   6.607  10.003 -0.0130  0.6294  0.5253
  371ccc     C3 8036   2.604   6.617   9.830 -0.0529  0.0631  0.4555
  371ccc     H5 8037   2.593   6.508   9.824  3.3019 -0.3452 -0.7076
  371ccc     H6 8038   2.686   6.639   9.760  0.6036 -0.8370  0.9228
  371ccc     N1 8039   2.504   6.454  10.088  0.2730  0.4094 -0.3903
  371ccc     H7 8040   2.590   6.400  10.069  0.8262  1.1650 -0.0873
  371ccc     H8 8041   2.462   6.429  10.178 -4.1757  0.7300 -2.1119
  371ccc     O1 8042   2.479   6.687   9.789  0.2627 -0.2498  0.2983
  371ccc    H17 8043   2.426   6.433  10.024  0.3081  2.2354 -1.0971
  372ccc     C1 8044   1.987   6.996   9.046 -0.2790 -0.3558  0.1619
  372ccc     H1 8045   2.066   7.008   8.973 -1.9461 -3.3070 -2.3621
  372ccc     H2 8046   2.024   7.017   9.147 -1.2897  3.6675 -0.1110
  372ccc     C2 8047   1.927   6.856   9.040 -0.9812  0.1792 -0.2814
  372ccc     H3 8048   1.867   6.846   8.949 -1.9674 -1.1183  0.4637
  372ccc     H4 8049   1.999   6.773   9.035 -0.0799  0.8401  1.2006
  372ccc     C3 8050   1.837   6.834   9.162  0.4870 -0.0763  0.1309
  372ccc     H5 8051   1.801   6.730   9.174 -1.8705  0.7942  1.3513
  372ccc     H6 8052   1.744   6.890   9.152 -0.0012 -0.7433  0.7578
  372ccc     N1 8053   1.884   7.103   9.017  0.1110  0.3355 -0.3620
  372ccc     H7 8054   1.805   7.074   8.957 -0.3126  1.3250 -0.2909
  372ccc     H8 8055   1.845   7.137   9.106 -2.3597  2.2110 -2.0318
  372ccc     O1 8056   1.907   6.866   9.283  0.0939 -0.0327 -0.7344
  372ccc    H17 8057   1.918   7.192   8.978  1.9989 -0.1694  0.0463
  373ccc     C1 8058   2.576   6.058  10.501 -0.6057  0.6759 -0.0735
  373ccc     H1 8059   2.578   5.949  10.494  3.4075  0.4548  1.5691
  373ccc     H2 8060   2.492   6.093  10.441 -3.0930 -1.3723  1.9145
  373ccc     C2 8061   2.717   6.101  10.442 -1.1035  0.0842  0.0057
  373ccc     H3 8062   2.800   6.089  10.512 -0.9282 -0.3179 -0.2686
  373ccc     H4 8063   2.743   6.028  10.365 -0.8067 -0.3800  0.5395
  373ccc     C3 8064   2.720   6.246  10.380 -0.5891  0.0048  0.4813
  373ccc     H5 8065   2.673   6.313  10.453 -0.9403  0.4665 -0.1674
  373ccc     H6 8066   2.665   6.249  10.285 -2.6333  1.8817  1.6299
  373ccc     N1 8067   2.558   6.087  10.651 -0.1809  0.1201 -0.0361
  373ccc     H7 8068   2.541   6.188  10.657  1.1527  0.6287 -3.1931
  373ccc     H8 8069   2.469   6.042  10.678 -0.0590  0.5975  1.2448
  373ccc     O1 8070   2.858   6.280  10.357  0.4158 -0.3013  0.2920
  373ccc    H17 8071   2.633   6.052  10.712 -1.5822  1.5133  2.6772
  374ccc     C1 8072   3.126   5.633   9.722 -0.5368  0.2496  0.0478
  374ccc     H1 8073   3.219   5.629   9.665 -0.8673  0.6014 -0.5245
  374ccc     H2 8074   3.053   5.666   9.648 -0.5920  2.6293  1.0694
  374ccc     C2 8075   3.134   5.728   9.836 -0.8344 -0.1411  0.2521
  374ccc     H3 8076   3.033   5.747   9.872 -1.7624  1.2716 -2.8298
  374ccc     H4 8077   3.203   5.694   9.915  0.0906  0.5650 -0.2333
  374ccc     C3 8078   3.192   5.857   9.781  0.2401 -0.4672  0.3384
  374ccc     H5 8079   3.157   5.885   9.680  1.1829 -0.7457 -0.0809
  374ccc     H6 8080   3.297   5.837   9.757 -0.1255  0.7670 -2.7318
  374ccc     N1 8081   3.089   5.491   9.761  0.1461  0.3775  0.0495
  374ccc     H7 8082   3.072   5.440   9.673 -1.1770  0.4242  0.2594
  374ccc     H8 8083   3.163   5.441   9.812 -2.6996 -1.4841  2.6739
  374ccc     O1 8084   3.184   5.956   9.883  0.0141  0.0372 -0.0471
  374ccc    H17 8085   3.004   5.485   9.817  0.2712 -1.3295  0.1208
  375ccc     C1 8086   5.417   6.622  11.529 -0.0569  0.6596 -0.0313
  375ccc     H1 8087   5.359   6.562  11.458 -0.1256  0.4266  0.2223
  375ccc     H2 8088   5.397   6.580  11.628  1.0163  0.8311  0.2655
  375ccc     C2 8089   5.378   6.771  11.520 -0.0592  0.0348 -0.1192
  375ccc     H3 8090   5.437   6.834  11.588  1.8012  0.5449 -2.1080
  375ccc     H4 8091   5.380   6.816  11.420 -0.7848  1.0401  0.3009
  375ccc     C3 8092   5.235   6.777  11.567 -0.4437 -0.3097 -0.5243
  375ccc     H5 8093   5.202   6.881  11.573 -2.0081 -0.6581 -2.2102
  375ccc     H6 8094   5.225   6.727  11.664 -1.7033  0.1640 -0.3973
  375ccc     N1 8095   5.564   6.596  11.516 -0.5194  0.4793 -0.4121
  375ccc     H7 8096   5.595   6.503  11.547 -1.1186  1.2356  2.8088
  375ccc     H8 8097   5.600   6.619  11.422  1.6338  1.0255  0.5013
  375ccc     O1 8098   5.159   6.703  11.472  0.4266  0.5374 -0.3593
  375ccc    H17 8099   5.618   6.656  11.580  0.9939  0.0240 -1.2099
  376ccc     C1 8100   4.877   6.037  11.984  0.2311  0.9809 -0.1174
  376ccc     H1 8101   4.832   6.131  12.017 -0.0239  0.4542  1.0791
  376ccc     H2 8102   4.951   6.055  11.906  0.4071 -0.6518 -0.3556
  376ccc     C2 8103   4.772   5.958  11.914  0.6736 -0.0944  0.0120
  376ccc     H3 8104   4.819   5.866  11.878 -0.2826 -0.9489  0.8926
  376ccc     H4 8105   4.696   5.928  11.987  1.8864 -0.6427  1.1052
  376ccc     C3 8106   4.713   6.034  11.786 -0.6163  0.2903 -0.7940
  376ccc     H5 8107   4.653   6.120  11.818  0.5539 -0.0241  2.7444
  376ccc     H6 8108   4.653   5.966  11.725 -0.1668 -1.1385  0.2853
  376ccc     N1 8109   4.935   5.972  12.107  0.4096 -0.3115 -0.0278
  376ccc     H7 8110   4.859   5.968  12.176  0.8698  0.8032  0.5634
  376ccc     H8 8111   4.964   5.875  12.089  1.6765  0.1238 -0.4500
  376ccc     O1 8112   4.831   6.075  11.708 -0.0614 -0.3162 -0.2492
  376ccc    H17 8113   5.014   6.020  12.151 -0.7946  1.6037  0.1798
  377ccc     C1 8114   5.954   6.218  11.220  0.4727 -0.2299  0.1678
  377ccc     H1 8115   5.997   6.316  11.203 -1.9803  1.0593  0.8852
  377ccc     H2 8116   5.926   6.171  11.126 -0.2834  0.1434  0.1999
  377ccc     C2 8117   5.833   6.252  11.305  0.0226  0.3002  0.5071
  377ccc     H3 8118   5.865   6.319  11.385  1.6875  0.6797 -0.4411
  377ccc     H4 8119   5.756   6.302  11.245  0.2294 -0.8063 -0.7397
  377ccc     C3 8120   5.765   6.124  11.354  0.3476  0.3992 -0.2481
  377ccc     H5 8121   5.673   6.152  11.407 -0.4546 -0.2100 -1.2931
  377ccc     H6 8122   5.829   6.076  11.429 -0.2054 -0.3829 -0.2716
  377ccc     N1 8123   6.045   6.121  11.290  0.0839  0.3353  0.3995
  377ccc     H7 8124   6.002   6.027  11.292  0.5387  0.1040 -0.2740
  377ccc     H8 8125   6.133   6.111  11.236  1.0123  1.5334  1.6179
  377ccc     O1 8126   5.738   6.046  11.235 -0.7354  0.6460  0.0411
  377ccc    H17 8127   6.058   6.148  11.388  0.6928 -1.2771  0.7947
  378ccc     C1 8128   5.006   5.261  10.934 -0.3550 -0.4603  0.4195
  378ccc     H1 8129   5.043   5.303  11.028 -0.4457  0.9179 -0.1486
  378ccc     H2 8130   5.086   5.197  10.898 -1.2628 -0.8605 -0.9498
  378ccc     C2 8131   4.964   5.357  10.824  0.0036 -0.3115 -0.2325
  378ccc     H3 8132   4.954   5.309  10.726 -0.6274 -0.3415 -0.1502
  378ccc     H4 8133   4.870   5.410  10.843 -0.6381 -0.6637 -2.1781
  378ccc     C3 8134   5.086   5.457  10.809 -0.4533  0.2144  0.1632
  378ccc     H5 8135   5.097   5.487  10.704  0.5445  0.5344  0.3475
  378ccc     H6 8136   5.179   5.411  10.845 -1.5124 -1.1057  1.3172
  378ccc     N1 8137   4.885   5.173  10.961 -0.0675 -0.1255 -1.1551
  378ccc     H7 8138   4.895   5.107  11.040  0.0058 -0.9176 -1.8105
  378ccc     H8 8139   4.801   5.230  10.979  0.1242  0.6299 -2.5036
  378ccc     O1 8140   5.067   5.575  10.886 -0.4231 -0.5995 -0.5952
  378ccc    H17 8141   4.859   5.107  10.886 -2.7952 -0.6326  0.1134
  379ccc     C1 8142   5.720   6.611  10.372 -0.0197  0.4764 -0.6199
  379ccc     H1 8143   5.708   6.718  10.386 -0.1897  0.6064 -1.6948
  379ccc     H2 8144   5.632   6.574  10.320 -0.8632 -1.7300  2.1169
  379ccc     C2 8145   5.731   6.525  10.503  0.1502 -0.2157 -0.2400
  379ccc     H3 8146   5.749   6.421  10.473 -0.5349  0.1236 -1.9557
  379ccc     H4 8147   5.817   6.555  10.564  0.6181 -0.6944 -0.6502
  379ccc     C3 8148   5.602   6.544  10.576 -0.3140  0.0209 -0.5755
  379ccc     H5 8149   5.614   6.477  10.662  1.4386  0.2190 -0.6279
  379ccc     H6 8150   5.509   6.523  10.522  0.6502 -1.4955 -1.7268
  379ccc     N1 8151   5.841   6.582  10.283  0.1993  0.4559 -0.0370
  379ccc     H7 8152   5.923   6.596  10.344 -0.0358 -0.4098  0.4976
  379ccc     H8 8153   5.839   6.483  10.254 -1.5775  0.8349 -1.4325
  379ccc     O1 8154   5.603   6.680  10.631 -0.1196  0.2406  0.2086
  379ccc    H17 8155   5.842   6.649  10.205  0.6819  0.0920 -0.3534
  380ccc     C1 8156   5.128   6.574   9.946 -0.1535 -0.7441 -0.0959
  380ccc     H1 8157   5.093   6.655  10.010 -0.8922 -0.8619 -0.3372
  380ccc     H2 8158   5.071   6.484   9.966  1.5778 -2.0047 -0.6248
  380ccc     C2 8159   5.272   6.555   9.984 -0.1451  1.1166  0.4643
  380ccc     H3 8160   5.335   6.505   9.910 -0.7092 -0.4303  0.9718
  380ccc     H4 8161   5.322   6.652   9.991  1.0212  0.5192  0.5671
  380ccc     C3 8162   5.294   6.472  10.115  0.0334  0.1001  1.0185
  380ccc     H5 8163   5.400   6.469  10.144  0.1420  1.1489  0.7735
  380ccc     H6 8164   5.260   6.372  10.086 -0.2510  0.3914  0.3375
  380ccc     N1 8165   5.109   6.614   9.800  0.3142  0.3063 -0.8553
  380ccc     H7 8166   5.150   6.707   9.783  0.1258  0.6845  0.6604
  380ccc     H8 8167   5.162   6.556   9.733 -1.2015 -0.3598 -1.5209
  380ccc     O1 8168   5.214   6.528  10.225  0.5838 -0.6713  0.5321
  380ccc    H17 8169   5.014   6.601   9.763  0.4374 -0.9532 -0.7748
  381ccc     C1 8170   4.235   7.325  10.786 -0.9120 -0.1391  0.4380
  381ccc     H1 8171   4.277   7.425  10.789 -2.5624  0.5789  0.5394
  381ccc     H2 8172   4.242   7.266  10.878  0.0127 -0.6134  0.0818
  381ccc     C2 8173   4.312   7.249  10.672 -0.5289 -0.1409  0.8464
  381ccc     H3 8174   4.273   7.147  10.665 -0.9698 -0.1169  2.4113
  381ccc     H4 8175   4.289   7.301  10.578 -1.7198 -1.9615  0.0730
  381ccc     C3 8176   4.467   7.251  10.702 -0.0421  0.1747 -0.0704
  381ccc     H5 8177   4.506   7.353  10.712  1.4181 -0.4462  1.0396
  381ccc     H6 8178   4.535   7.210  10.626  0.3218  1.5823 -0.5387
  381ccc     N1 8179   4.090   7.355  10.764 -0.0675  0.1755  0.4159
  381ccc     H7 8180   4.034   7.270  10.752 -0.4528  0.6687 -1.6647
  381ccc     H8 8181   4.047   7.414  10.836 -2.1747 -0.5721 -0.1705
  381ccc     O1 8182   4.485   7.177  10.826 -0.4611  0.9333 -0.3377
  381ccc    H17 8183   4.091   7.412  10.678  0.9262 -1.5669 -0.7913
  382ccc     C1 8184   4.499   7.231  11.437 -0.3653 -0.3659 -0.3637
  382ccc     H1 8185   4.577   7.216  11.362  0.4565  0.4359  0.3085
  382ccc     H2 8186   4.479   7.337  11.421  2.8643  0.3450 -0.4679
  382ccc     C2 8187   4.558   7.201  11.576  0.1057 -1.3703 -0.1362
  382ccc     H3 8188   4.634   7.276  11.600 -1.6752  0.4526  0.0438
  382ccc     H4 8189   4.479   7.217  11.650  0.8857 -0.0339  0.4315
  382ccc     C3 8190   4.602   7.060  11.589 -0.7275 -0.7308  0.7192
  382ccc     H5 8191   4.519   6.995  11.621 -1.2714 -0.0421  0.7354
  382ccc     H6 8192   4.690   7.048  11.653  0.6780  4.2471  0.1303
  382ccc     N1 8193   4.379   7.154  11.401 -0.1149 -0.5833  0.6792
  382ccc     H7 8194   4.401   7.053  11.398 -1.4483 -0.8649 -0.8912
  382ccc     H8 8195   4.305   7.163  11.472 -0.8426  0.4206 -0.1985
  382ccc     O1 8196   4.648   7.012  11.458  0.3563  0.2182 -0.0029
  382ccc    H17 8197   4.340   7.183  11.311  0.3152  2.2603  1.3155
  383SOL     OW 8198  10.663  10.538   6.383 -0.0211  0.1147 -0.3824
  383SOL    HW1 8199  10.574  10.546   6.350 -0.6887 -1.7523  0.8644
  383SOL    HW2 8200  10.714  10.508   6.308 -0.5396  0.6330 -0.9488
  384SOL     OW 8201   3.657   5.817  12.492  0.2725 -0.1766 -0.4661
  384SOL    HW1 8202   3.636   5.816  12.585  0.4473 -0.2527 -0.4275
  384SOL    HW2 8203   3.611   5.741  12.457 -2.6709  1.6994 -1.0890
  385SOL     OW 8204   5.232   0.561  11.906 -0.1499 -0.2415  0.5591
  385SOL    HW1 8205   5.165   0.534  11.843 -0.1741  1.7529 -0.3494
  385SOL    HW2 8206   5.247   0.483  11.960 -0.1412 -2.0549 -1.8763
  386SOL     OW 8207   3.901  10.857   2.611  0.3325  0.6275 -0.5605
  386SOL    HW1 8208   3.879  10.919   2.542  1.7165  1.0915 -0.6242
  386SOL    HW2 8209   3.885  10.905   2.692  2.0379  1.3681 -0.6090
  387SOL     OW 8210  11.485   6.302   8.316  0.4536 -0.7151  0.0595
  387SOL    HW1 8211  11.528   6.252   8.247  0.3212 -1.8399  0.7720
  387SOL    HW2 8212  11.444   6.375   8.271  0.4197 -1.4055 -1.0456
  388SOL     OW 8213   2.198  12.464   9.381 -0.1936 -0.2023  0.0120
  388SOL    HW1 8214   2.237  12.407   9.315 -1.6332 -0.2429 -0.8530
  388SOL    HW2 8215   2.247  12.445   9.461  0.5439 -1.3225 -0.6705
  389SOL     OW 8216   6.050   1.587   0.046  0.1372 -0.1047 -0.3358
  389SOL    HW1 8217   6.077   1.577   0.137 -0.7184 -1.1596 -0.1852
  389SOL    HW2 8218   6.083   1.673   0.021  0.7432  0.0236  0.8383
  390SOL     OW 8219   4.136   1.528   8.223 -0.5145 -0.1718  0.0368
  390SOL    HW1 8220   4.094   1.609   8.194 -3.3335 -1.8814 -1.0626
  390SOL    HW2 8221   4.192   1.503   8.150  0.6943  0.9471  0.5509
  391SOL     OW 8222   4.127   6.228   8.554 -0.1190  0.3635 -0.5365
  391SOL    HW1 8223   4.182   6.226   8.632  1.2374 -0.1640 -1.4767
  391SOL    HW2 8224   4.146   6.313   8.513  1.1180 -0.4131 -1.6223
  392SOL     OW 8225   0.863  10.255   6.567  0.0675  0.0886 -0.3388
  392SOL    HW1 8226   0.862  10.184   6.504 -2.7814  0.5432 -0.9585
  392SOL    HW2 8227   0.955  10.265   6.592  0.5703 -4.0868  0.1672
  393SOL     OW 8228   4.562   3.177  12.418  0.2055 -0.0975  0.2405
  393SOL    HW1 8229   4.590   3.191  12.509 -1.8619  0.4031  0.8556
  393SOL    HW2 8230   4.475   3.217  12.414 -0.3127 -1.3206 -1.5925
  394SOL     OW 8231  11.324  11.708   0.654 -0.6380  0.2846 -0.1664
  394SOL    HW1 8232  11.328  11.803   0.640  0.9567  0.0725 -1.5422
  394SOL    HW2 8233  11.361  11.671   0.573  0.7295 -1.4218  1.1728
  395SOL     OW 8234   4.250   3.569   6.982 -0.3914 -0.2392  0.7083
  395SOL    HW1 8235   4.297   3.645   6.947  0.2529  0.2435  2.4791
  395SOL    HW2 8236   4.293   3.494   6.943  0.5940  0.2650  0.7813
  396SOL     OW 8237   4.473   3.706   5.590  0.0037 -0.1009 -0.5692
  396SOL    HW1 8238   4.432   3.621   5.580  1.4725 -0.7555 -1.2423
  396SOL    HW2 8239   4.502   3.729   5.502 -2.0658  2.0301 -0.8086
  397SOL     OW 8240   0.874   1.141   7.129 -0.0671 -0.1817 -0.5232
  397SOL    HW1 8241   0.780   1.121   7.125 -0.5239  1.6012  0.3457
  397SOL    HW2 8242   0.884   1.194   7.208  1.6660 -0.2221 -0.6777
  398SOL     OW 8243  12.300   3.819   0.503  0.1298 -0.0637 -0.0594
  398SOL    HW1 8244  12.308   3.756   0.574 -0.1003 -0.3291 -0.2694
  398SOL    HW2 8245  12.387   3.821   0.462  0.5530  0.8107  0.8310
  399SOL     OW 8246   1.947   5.647  11.664  0.7473 -0.0140 -0.5789
  399SOL    HW1 8247   1.865   5.632  11.616 -0.5287  0.4058  1.3452
  399SOL    HW2 8248   2.002   5.572  11.641 -0.7053 -1.0376 -0.8563
  400SOL     OW 8249   5.720   5.483  12.266 -0.3361  0.0141 -0.3225
  400SOL    HW1 8250   5.643   5.432  12.293 -0.8772  0.2089 -1.4549
  400SOL    HW2 8251   5.794   5.425  12.283 -0.7932 -0.4583  0.0897
  401SOL     OW 8252   2.135   8.951   4.210  0.2189 -0.0009 -0.3237
  401SOL    HW1 8253   2.120   8.866   4.167  1.1215  0.3365 -1.3395
  401SOL    HW2 8254   2.214   8.938   4.262  0.4152  0.2367 -0.5592
  402SOL     OW 8255   9.632   1.901   5.049  0.0310  0.0421 -0.3999
  402SOL    HW1 8256   9.558   1.962   5.047 -0.3859 -0.4590 -1.7734
  402SOL    HW2 8257   9.615   1.845   5.125  0.2551  1.4041  0.6852
  403SOL     OW 8258   8.020  12.388  12.236 -0.3890  0.1948 -0.2944
  403SOL    HW1 8259   8.029  12.471  12.190 -0.0904  0.7492  0.7243
  403SOL    HW2 8260   8.102  12.379  12.285 -0.7506 -0.3017  0.2288
  404SOL     OW 8261   9.567   4.694   9.279 -0.2691  0.5279 -0.6939
  404SOL    HW1 8262   9.588   4.626   9.215 -0.8605 -0.0183 -0.3177
  404SOL    HW2 8263   9.652   4.719   9.317 -0.1885 -1.0632  0.2337
  405SOL     OW 8264  11.228   8.235   8.019 -0.0188 -0.1533  0.1206
  405SOL    HW1 8265  11.157   8.181   7.983  0.1634 -0.8498  0.7687
  405SOL    HW2 8266  11.300   8.224   7.957  0.2379 -1.2144  0.5672
  406SOL     OW 8267   5.136   3.015   1.074 -0.1377 -0.2600  0.4340
  406SOL    HW1 8268   5.217   3.011   1.023 -0.2983  1.4635 -0.0256
  406SOL    HW2 8269   5.164   3.005   1.165  0.7360  1.2108  0.3623
  407SOL     OW 8270   5.758   4.820   5.525 -0.3023 -0.3927 -0.3409
  407SOL    HW1 8271   5.681   4.785   5.570 -1.0109  0.0257 -1.2088
  407SOL    HW2 8272   5.795   4.744   5.479 -1.7096 -0.0975 -2.0390
  408SOL     OW 8273   4.342   8.568   7.599  0.2622 -0.2922 -0.4900
  408SOL    HW1 8274   4.378   8.647   7.560  2.3804 -0.7725  0.3352
  408SOL    HW2 8275   4.327   8.508   7.526  0.6024  0.1479 -0.9205
  409SOL     OW 8276  12.200   5.644   5.341 -0.3654 -0.7314  0.1881
  409SOL    HW1 8277  12.134   5.575   5.333 -0.6821 -0.3379 -0.6506
  409SOL    HW2 8278  12.261   5.610   5.407  0.5577 -2.6834 -1.5498
  410SOL     OW 8279   7.519   0.831   6.887  0.3180  0.2879 -0.0278
  410SOL    HW1 8280   7.472   0.760   6.843  0.3071  1.0250 -1.2438
  410SOL    HW2 8281   7.610   0.804   6.885  0.3851  0.5334 -0.9864
  411SOL     OW 8282   1.969   5.911  11.202 -0.7531 -0.4069  0.1660
  411SOL    HW1 8283   1.979   5.826  11.158  0.3065 -0.3894  0.3503
  411SOL    HW2 8284   1.985   5.893  11.294 -3.2623 -0.4951  0.6502
  412SOL     OW 8285   3.850  11.536  10.745  0.4198 -0.0722  0.1963
  412SOL    HW1 8286   3.832  11.472  10.814 -1.7404 -0.0394 -0.2853
  412SOL    HW2 8287   3.902  11.488  10.681  0.3582 -0.8147  0.6826
  413SOL     OW 8288   0.029   1.287   3.443  0.6714  0.3600 -0.5134
  413SOL    HW1 8289  -0.032   1.294   3.369 -0.4354 -0.2632  0.2991
  413SOL    HW2 8290   0.073   1.204   3.430  1.6880  0.9955 -1.3206
  414SOL     OW 8291   1.426   3.946   4.979 -0.1371  0.1795  0.2354
  414SOL    HW1 8292   1.513   3.928   4.944  0.0670 -0.1651  0.9042
  414SOL    HW2 8293   1.368   3.887   4.931  0.2062 -0.6310  0.8076
  415SOL     OW 8294   9.546  10.295   5.193 -0.0745  0.6643 -0.3621
  415SOL    HW1 8295   9.582  10.239   5.124  1.2258  1.6594 -0.5126
  415SOL    HW2 8296   9.557  10.244   5.273 -0.5481 -0.0217 -0.7200
  416SOL     OW 8297   5.617   4.878  12.035 -0.1719 -0.9063 -0.2934
  416SOL    HW1 8298   5.673   4.921  12.098  0.4240 -1.3053 -0.5396
  416SOL    HW2 8299   5.528   4.888  12.070 -0.4600  3.0081 -1.7219
  417SOL     OW 8300  11.725   4.910   7.900 -0.2002  0.0048 -0.0057
  417SOL    HW1 8301  11.809   4.927   7.859 -0.4039  1.2854  0.0742
  417SOL    HW2 8302  11.681   4.850   7.840  1.1956 -1.6227  0.5143
  418SOL     OW 8303  11.536   1.288   2.660 -0.5037 -0.0683 -0.5067
  418SOL    HW1 8304  11.591   1.211   2.673  0.0539 -0.1559 -2.8849
  418SOL    HW2 8305  11.447   1.256   2.676 -0.0471  0.1190  3.5585
  419SOL     OW 8306   3.799   4.771   9.557 -0.1792 -0.3172  0.0568
  419SOL    HW1 8307   3.772   4.721   9.479 -0.9162 -1.8715  1.2492
  419SOL    HW2 8308   3.894   4.762   9.559 -0.1733 -0.4387 -0.5452
  420SOL     OW 8309   8.734  10.959   2.656 -0.5328 -0.0460 -0.0343
  420SOL    HW1 8310   8.813  10.926   2.700 -0.6419 -1.6140 -0.9275
  420SOL    HW2 8311   8.765  11.029   2.600 -0.0941  0.6589  1.0526
  421SOL     OW 8312   2.580   3.306   0.426 -0.2474 -0.2387  0.2736
  421SOL    HW1 8313   2.613   3.225   0.465 -2.8192 -0.6732  1.7705
  421SOL    HW2 8314   2.604   3.374   0.489 -0.1392 -0.1794  0.1698
  422SOL     OW 8315   1.593  10.798  11.638 -0.0032  0.1531 -0.4606
  422SOL    HW1 8316   1.645  10.808  11.558 -0.0595 -0.2110 -0.5475
  422SOL    HW2 8317   1.657  10.804  11.709 -0.1404  1.9332 -0.4455
  423SOL     OW 8318   0.855   9.406   4.248  0.5588  0.7653  0.3239
  423SOL    HW1 8319   0.782   9.375   4.301  0.2338 -0.1778 -0.6381
  423SOL    HW2 8320   0.832   9.382   4.159  1.5758  1.3798 -0.1220
  424SOL     OW 8321  10.782   8.828   7.972 -0.0522 -0.4048  0.5611
  424SOL    HW1 8322  10.717   8.875   8.024 -0.7353 -1.4193  0.6549
  424SOL    HW2 8323  10.771   8.736   7.997  1.7200 -0.5659  0.9042
  425SOL     OW 8324   2.799   4.293   0.949  0.4389 -0.0319  0.0780
  425SOL    HW1 8325   2.733   4.362   0.942 -0.8524 -1.2756 -0.4790
  425SOL    HW2 8326   2.879   4.339   0.976 -0.6050  1.5354  0.6608
  426SOL     OW 8327   2.516  12.029   0.987  0.5591  0.2501 -0.1463
  426SOL    HW1 8328   2.551  11.940   0.991 -0.4925 -0.1802 -0.3001
  426SOL    HW2 8329   2.590  12.082   0.957  1.1929 -0.5681 -0.0726
  427SOL     OW 8330   4.025   9.931  11.579  0.2499 -0.3777 -0.4616
  427SOL    HW1 8331   4.009  10.020  11.612 -0.1581 -0.5803 -0.1025
  427SOL    HW2 8332   3.938   9.893  11.572  0.5418 -1.6684  1.9525
  428SOL     OW 8333   5.435   7.200   2.148 -0.5907 -0.3345  1.1046
  428SOL    HW1 8334   5.441   7.107   2.172  0.4133 -0.9099 -1.1673
  428SOL    HW2 8335   5.351   7.208   2.103 -0.2076 -0.3872  0.3687
  429SOL     OW 8336   6.796   0.799   4.545  0.0115 -0.9804  0.3431
  429SOL    HW1 8337   6.760   0.885   4.567 -0.4302 -0.8954 -0.6542
  429SOL    HW2 8338   6.738   0.766   4.477  0.5966 -1.7672  0.2154
  430SOL     OW 8339   7.145  10.475   5.172 -0.4589  0.0895 -0.8496
  430SOL    HW1 8340   7.236  10.447   5.158 -0.5920  0.1734 -1.9632
  430SOL    HW2 8341   7.119  10.431   5.253  0.2304 -0.7765 -1.0806
  431SOL     OW 8342   6.410  10.478   5.585  0.0951 -0.2883 -0.8120
  431SOL    HW1 8343   6.412  10.446   5.675  0.6160 -1.5753 -1.2568
  431SOL    HW2 8344   6.479  10.544   5.582  1.5617 -1.7577 -0.7737
  432SOL     OW 8345  11.066  10.619   1.950 -0.0451  0.2522  0.1104
  432SOL    HW1 8346  11.033  10.709   1.960  0.4433  0.3156  1.3096
  432SOL    HW2 8347  11.085  10.611   1.857 -3.9245  0.0274 -0.8570
  433SOL     OW 8348   6.339   2.544   2.623  0.0541  0.2957  0.8651
  433SOL    HW1 8349   6.429   2.543   2.655  0.3547 -0.4693  0.0380
  433SOL    HW2 8350   6.307   2.455   2.636 -0.1947  0.2649  0.0841
  434SOL     OW 8351   6.422  10.817   0.393  0.1663 -0.3208 -0.0191
  434SOL    HW1 8352   6.487  10.803   0.462  0.3408 -0.7940 -0.2731
  434SOL    HW2 8353   6.455  10.890   0.342 -0.3569  0.5538  0.8585
  435SOL     OW 8354   1.320   6.422   7.820  0.2632 -0.4874  0.1987
  435SOL    HW1 8355   1.280   6.339   7.849  0.5974 -1.8363 -2.7829
  435SOL    HW2 8356   1.266   6.449   7.746  1.3941  0.8873 -0.1618
  436SOL     OW 8357   5.109   5.278   8.513  0.3151  0.4236 -0.5573
  436SOL    HW1 8358   5.192   5.233   8.522  1.6610  2.7163 -0.6903
  436SOL    HW2 8359   5.104   5.336   8.589 -1.4402 -0.0535 -0.2592
  437SOL     OW 8360   4.680   2.720   0.716 -0.7410  0.0991  0.4938
  437SOL    HW1 8361   4.716   2.631   0.713  0.1610  0.4104  1.5205
  437SOL    HW2 8362   4.745   2.773   0.670 -1.6769  0.1244 -0.8521
  438SOL     OW 8363   9.633   6.310   5.207  0.0802  0.4549 -0.0959
  438SOL    HW1 8364   9.636   6.274   5.118 -0.4889 -2.0579  0.8099
  438SOL    HW2 8365   9.551   6.359   5.210 -0.6424 -0.6989 -0.5349
  439SOL     OW 8366  11.792  10.687   4.473 -0.4009  0.2294  0.1993
  439SOL    HW1 8367  11.870  10.729   4.436  0.0333  1.3846  2.2469
  439SOL    HW2 8368  11.744  10.758   4.515 -1.6574 -0.7480  0.4573
  440SOL     OW 8369   2.200   9.788  11.891 -0.2739  0.3281  0.6064
  440SOL    HW1 8370   2.255   9.729  11.943 -1.1912 -2.2047 -1.0807
  440SOL    HW2 8371   2.124   9.735  11.868 -0.7565  1.9024 -1.7729
  441SOL     OW 8372   9.362  11.110   0.208  0.1117 -0.0725  0.3834
  441SOL    HW1 8373   9.341  11.082   0.119  0.7017 -0.0210  0.2292
  441SOL    HW2 8374   9.306  11.186   0.222  0.1187  0.0048  0.0040
  442SOL     OW 8375   7.689   3.291   2.025 -0.2694  0.0691  0.0779
  442SOL    HW1 8376   7.709   3.316   1.935 -1.9434  1.8733  0.1492
  442SOL    HW2 8377   7.600   3.256   2.022  0.2655 -1.4714  0.8116
  443SOL     OW 8378   9.230   7.510   1.369  0.0189 -0.1275  0.4047
  443SOL    HW1 8379   9.217   7.552   1.454 -1.1723  0.8865 -0.2342
  443SOL    HW2 8380   9.283   7.433   1.387  1.1440  0.9365  1.8370
  444SOL     OW 8381   5.028  10.762   7.141  0.4381  0.1235 -0.3243
  444SOL    HW1 8382   4.945  10.780   7.185  1.2114  1.4043  0.6883
  444SOL    HW2 8383   5.084  10.724   7.209  0.3812 -1.8006 -1.2643
  445SOL     OW 8384   6.067   0.419   3.766  0.7135 -0.1597  0.2555
  445SOL    HW1 8385   6.024   0.342   3.729 -0.8230  0.2036  1.1712
  445SOL    HW2 8386   6.137   0.384   3.821 -0.6174 -0.9822  1.4738
  446SOL     OW 8387   3.529   6.765   3.658  0.3680 -0.3987  0.3703
  446SOL    HW1 8388   3.513   6.774   3.564 -1.6605 -1.4102  0.5641
  446SOL    HW2 8389   3.619   6.794   3.670  0.6183 -0.0987 -1.8579
  447SOL     OW 8390   0.173   3.529  10.849  0.4426  0.3285  0.1242
  447SOL    HW1 8391   0.225   3.510  10.928  0.5563  0.3013  0.0428
  447SOL    HW2 8392   0.162   3.444  10.807  1.2127  0.4782 -0.4041
  448SOL     OW 8393  11.160  11.199   5.904 -0.3248 -0.2405 -0.5653
  448SOL    HW1 8394  11.209  11.281   5.900 -0.2587 -0.2877 -0.7246
  448SOL    HW2 8395  11.092  11.214   5.969 -1.2308  0.4442 -1.6292
  449SOL     OW 8396   3.861   3.771   2.244 -0.2405 -0.0521 -0.3943
  449SOL    HW1 8397   3.868   3.711   2.169 -2.0581 -0.7952 -0.0335
  449SOL    HW2 8398   3.767   3.778   2.259  0.0704  0.3784  1.5992
  450SOL     OW 8399   6.974   8.759   2.303  0.4645 -0.4796  0.7230
  450SOL    HW1 8400   6.886   8.766   2.268  0.8593 -2.2500 -0.7843
  450SOL    HW2 8401   7.021   8.832   2.262  0.4915 -1.5212 -1.2625
  451SOL     OW 8402  11.917  12.258   4.260 -0.4890  0.1297  0.7994
  451SOL    HW1 8403  11.831  12.229   4.229 -0.2400  1.3717 -1.2386
  451SOL    HW2 8404  11.951  12.184   4.310 -1.9112 -1.1453 -0.0459
  452SOL     OW 8405   7.641   9.311  10.730  0.0359 -0.3647  0.5062
  452SOL    HW1 8406   7.728   9.280  10.708 -0.6590 -0.0025 -3.4794
  452SOL    HW2 8407   7.656   9.378  10.797  2.6025 -1.3551  1.0358
  453SOL     OW 8408   8.840   9.544  10.005  0.1186  0.0526 -0.3008
  453SOL    HW1 8409   8.790   9.473   9.965  0.2042 -0.8825  1.1668
  453SOL    HW2 8410   8.829   9.618   9.945 -3.4193  0.0586  0.1635
  454SOL     OW 8411   0.382   0.616   3.860 -0.0810 -0.4271 -0.0074
  454SOL    HW1 8412   0.429   0.644   3.939  2.0212  0.1555 -1.3766
  454SOL    HW2 8413   0.415   0.528   3.842  1.2688  0.3255 -1.4776
  455SOL     OW 8414   6.359   6.784   9.921  0.0691 -0.3127  0.1302
  455SOL    HW1 8415   6.424   6.820   9.860 -0.0619  0.5015  0.4571
  455SOL    HW2 8416   6.384   6.692   9.931  1.0618 -0.0618  0.1011
  456SOL     OW 8417   9.174  12.205   8.437  0.3119  0.0450  0.5828
  456SOL    HW1 8418   9.107  12.223   8.503  1.4831 -0.4935  1.9778
  456SOL    HW2 8419   9.172  12.281   8.379 -4.1118 -1.5573 -1.8512
  457SOL     OW 8420   5.367  10.758   9.376  0.3389  0.4671 -0.0168
  457SOL    HW1 8421   5.341  10.671   9.408  0.3142  0.6196  0.3868
  457SOL    HW2 8422   5.435  10.787   9.437 -0.3706  1.1643  0.4592
  458SOL     OW 8423   7.906   6.168   6.451 -0.2581 -0.1351  0.0004
  458SOL    HW1 8424   7.885   6.205   6.366 -2.4553  0.9107  0.9263
  458SOL    HW2 8425   7.987   6.211   6.477 -0.6686  1.0812 -0.6812
  459SOL     OW 8426   1.153   5.859   8.815  0.2638  0.3841 -0.4213
  459SOL    HW1 8427   1.093   5.932   8.796  1.3403  1.8482  1.4630
  459SOL    HW2 8428   1.169   5.819   8.730 -1.4803  1.4712 -1.3143
  460SOL     OW 8429   6.024  11.485   3.563 -0.6253  0.2486 -0.2594
  460SOL    HW1 8430   6.118  11.498   3.556 -0.8627  1.6761 -1.3362
  460SOL    HW2 8431   6.014  11.397   3.598  1.1206  0.5209  1.0358
  461SOL     OW 8432  12.468  10.806   6.985 -0.4444  0.1139  0.4174
  461SOL    HW1 8433  12.438  10.719   7.011  0.7034 -0.3980  0.1200
  461SOL    HW2 8434  12.541  10.826   7.044  1.2348 -0.4415 -1.3710
  462SOL     OW 8435   4.809   5.487   5.938  0.1843  0.1058  0.3624
  462SOL    HW1 8436   4.781   5.400   5.966  0.8528 -0.6712 -1.2935
  462SOL    HW2 8437   4.747   5.547   5.980 -0.7243 -1.1986  0.9354
  463SOL     OW 8438   1.424   9.073   9.991 -0.0412 -0.5578  0.4468
  463SOL    HW1 8439   1.455   9.142   9.932 -0.3072  0.9122  1.9446
  463SOL    HW2 8440   1.413   8.996   9.935 -0.4442  0.8085 -1.4450
  464SOL     OW 8441   6.419   9.935   7.205 -0.0538 -0.3562 -0.0913
  464SOL    HW1 8442   6.386  10.025   7.199 -0.8137 -0.7118 -2.5562
  464SOL    HW2 8443   6.514   9.945   7.213  0.1887  0.7628 -3.0127
  465SOL     OW 8444   9.242   9.418  10.424  0.1795 -0.2513 -0.1419
  465SOL    HW1 8445   9.321   9.375  10.391  0.5761 -0.7250  1.3837
  465SOL    HW2 8446   9.266   9.510  10.433 -0.4943  0.2848 -2.8521
  466SOL     OW 8447  11.547  12.241   1.618  0.4005 -0.2347 -0.1732
  466SOL    HW1 8448  11.538  12.207   1.529 -0.4818  1.2596 -0.6990
  466SOL    HW2 8449  11.457  12.242   1.652  0.4410  1.1843 -0.0590
  467SOL     OW 8450   4.056   9.768   0.538  0.3272 -0.1880  0.2029
  467SOL    HW1 8451   4.033   9.860   0.533 -0.0220 -0.2839  0.0206
  467SOL    HW2 8452   4.112   9.761   0.615  0.0190  0.1061  0.4534
  468SOL     OW 8453   8.852   9.482   1.264 -0.0337  0.6395 -0.1275
  468SOL    HW1 8454   8.794   9.407   1.253  0.2862  0.0995  1.5183
  468SOL    HW2 8455   8.851   9.527   1.179 -0.2194 -1.2188 -1.1601
  469SOL     OW 8456  11.263   2.695   0.498 -0.5847  0.0242 -0.3700
  469SOL    HW1 8457  11.261   2.627   0.565 -3.0566 -0.2888 -0.6716
  469SOL    HW2 8458  11.330   2.756   0.529  2.2479 -2.7967 -0.4609
  470SOL     OW 8459   5.265   6.984   1.429 -0.3545 -0.4408  0.1993
  470SOL    HW1 8460   5.241   6.894   1.404  1.9496 -1.3085  0.8557
  470SOL    HW2 8461   5.269   7.031   1.346 -4.5846  0.0157  0.0030
  471SOL     OW 8462   0.614   4.784  12.518  0.1180  0.4485  1.1034
  471SOL    HW1 8463   0.610   4.874  12.551  2.1249  0.3444  1.7515
  471SOL    HW2 8464   0.665   4.790  12.438 -1.3011  0.0953  0.1219
  472SOL     OW 8465   0.539   9.869   1.781 -0.2056 -0.3595 -0.6136
  472SOL    HW1 8466   0.541   9.890   1.874  1.4096  0.5292 -0.8249
  472SOL    HW2 8467   0.478   9.932   1.743 -0.1255 -0.1021 -0.3150
  473SOL     OW 8468   6.055   6.330   5.507  0.4559  0.3920 -0.6306
  473SOL    HW1 8469   5.985   6.386   5.471  1.5062  1.1972 -1.4660
  473SOL    HW2 8470   6.114   6.314   5.434  1.1388 -0.3158  0.0547
  474SOL     OW 8471  11.557   0.810  10.110  0.0149  0.0964  0.5656
  474SOL    HW1 8472  11.548   0.800  10.015  1.2993 -1.4443  0.5580
  474SOL    HW2 8473  11.651   0.809  10.125 -0.0459  2.9275  1.6596
  475SOL     OW 8474   0.084   9.891  11.969 -0.2997  0.6928 -0.8255
  475SOL    HW1 8475   0.108   9.906  12.060 -0.1208 -0.0616 -0.7481
  475SOL    HW2 8476   0.140   9.952  11.920  0.0333  0.6730 -0.4773
  476SOL     OW 8477   8.353   7.168   2.879  0.0099  0.0269  0.2557
  476SOL    HW1 8478   8.319   7.190   2.792 -1.0860  0.2148  0.7079
  476SOL    HW2 8479   8.348   7.251   2.927 -2.6728 -0.7615  1.5158
  477SOL     OW 8480   0.605   5.505   1.741  0.2826 -0.2486 -0.1401
  477SOL    HW1 8481   0.616   5.599   1.728 -0.3959 -0.4083 -2.1670
  477SOL    HW2 8482   0.693   5.472   1.756  0.5704  0.6411  0.1814
  478SOL     OW 8483   5.941   7.316   2.984  0.8961 -0.9364  0.0771
  478SOL    HW1 8484   5.950   7.221   2.973  0.9463 -0.9487  0.2193
  478SOL    HW2 8485   5.898   7.326   3.069 -1.1348 -0.8983 -0.8930
  479SOL     OW 8486  10.992   2.187   1.517  0.5750  0.3095  0.7066
  479SOL    HW1 8487  10.974   2.241   1.440  0.6717  0.0410  0.4970
  479SOL    HW2 8488  10.947   2.233   1.589  1.5276  1.2541  0.7322
  480SOL     OW 8489  10.588   4.427   9.209  0.1131  0.2558  0.3539
  480SOL    HW1 8490  10.677   4.395   9.198  0.3775  1.3383 -0.9946
  480SOL    HW2 8491  10.533   4.354   9.180  0.6687  0.5335 -1.5494
  481SOL     OW 8492   7.695   6.099   2.703  0.2500  0.3597  0.0156
  481SOL    HW1 8493   7.716   6.055   2.785  0.5370  2.2393  1.0220
  481SOL    HW2 8494   7.622   6.158   2.725  1.7657  2.5427 -0.4392
  482SOL     OW 8495   9.802   6.266   9.965 -0.2268 -0.6160  0.0643
  482SOL    HW1 8496   9.730   6.219  10.007 -0.0837  0.6936  1.8811
  482SOL    HW2 8497   9.859   6.293  10.037  0.7868  0.5144 -1.1035
  483SOL     OW 8498   8.273   4.412   0.090  0.4210  0.5076 -0.1114
  483SOL    HW1 8499   8.238   4.346   0.150  0.2910 -0.9613 -1.7470
  483SOL    HW2 8500   8.367   4.395   0.088  0.4650  0.7430 -0.1209
  484SOL     OW 8501   0.983   8.187   8.541  0.3936  0.1962  0.1993
  484SOL    HW1 8502   0.968   8.097   8.570 -0.2929  0.0321 -0.6175
  484SOL    HW2 8503   1.059   8.180   8.482 -0.2604 -0.0134 -0.6276
  485SOL     OW 8504   2.727   4.505  10.391  0.8790 -0.9031  0.1532
  485SOL    HW1 8505   2.812   4.540  10.418  1.7881 -1.0656 -2.2589
  485SOL    HW2 8506   2.665   4.576  10.411  1.4803 -0.8885  2.1906
  486SOL     OW 8507  12.541  11.525   8.777  0.4553  0.2784 -0.4984
  486SOL    HW1 8508  12.615  11.555   8.724  1.8412 -0.2057  1.0655
  486SOL    HW2 8509  12.505  11.605   8.815  2.5687  0.3420  1.6602
  487SOL     OW 8510   0.252  12.313   0.651  0.0483 -0.3051 -0.1092
  487SOL    HW1 8511   0.235  12.317   0.557 -0.1616  0.3777 -0.0458
  487SOL    HW2 8512   0.179  12.262   0.686  0.9429 -1.9365 -0.4982
  488SOL     OW 8513   1.498   0.744   6.888  0.1793  0.2140  0.2825
  488SOL    HW1 8514   1.463   0.658   6.912  0.1162  0.0530 -0.3619
  488SOL    HW2 8515   1.463   0.803   6.955 -0.2665 -0.1632  0.3936
  489SOL     OW 8516   6.036   8.755   5.798  0.0271  0.3128 -0.1115
  489SOL    HW1 8517   6.129   8.738   5.780  0.3657  1.5617  0.3866
  489SOL    HW2 8518   6.031   8.768   5.893 -0.8871 -1.0145  0.0522
  490SOL     OW 8519  11.928  12.488   9.226  0.1867  0.6253  0.1573
  490SOL    HW1 8520  11.917  12.557   9.291 -1.3683  1.3055 -0.7771
  490SOL    HW2 8521  12.023  12.485   9.211  0.5393  0.8033  2.0315
  491SOL     OW 8522  10.426   1.749   9.668  0.0420 -0.0255  0.0879
  491SOL    HW1 8523  10.514   1.754   9.631 -0.0463 -1.2686 -0.3261
  491SOL    HW2 8524  10.406   1.656   9.669 -1.6476  0.3052 -0.7135
  492SOL     OW 8525   4.047   6.435   9.208 -0.0556  0.4913  0.5025
  492SOL    HW1 8526   4.100   6.455   9.131 -2.8648  3.7845 -0.8223
  492SOL    HW2 8527   4.108   6.393   9.268  2.4044 -1.9319 -3.2434
  493SOL     OW 8528   7.809  11.305   6.160 -0.5311  0.5478  0.3405
  493SOL    HW1 8529   7.775  11.217   6.173  0.5537  0.0013 -0.3807
  493SOL    HW2 8530   7.745  11.362   6.202 -0.7703 -0.6438  1.6626
  494SOL     OW 8531   0.382   1.362   1.644  0.1202 -0.4435 -0.0224
  494SOL    HW1 8532   0.292   1.362   1.613  0.3872  2.3284 -1.0889
  494SOL    HW2 8533   0.404   1.269   1.654 -2.4948 -1.2194 -0.6880
  495SOL     OW 8534  11.305   5.790  11.888  0.2391  0.1320 -0.1545
  495SOL    HW1 8535  11.292   5.710  11.838  0.3079 -0.4546  0.7498
  495SOL    HW2 8536  11.217   5.822  11.906  0.0603 -1.3059  1.9233
  496SOL     OW 8537   9.964   9.759  10.360  0.6204 -0.0042 -0.5346
  496SOL    HW1 8538   9.974   9.854  10.357 -0.4774  0.1277 -0.2827
  496SOL    HW2 8539   9.889   9.744  10.418  0.4500 -1.0043 -0.9896
  497SOL     OW 8540   8.178  11.105   9.003 -0.5646  0.1039 -0.1109
  497SOL    HW1 8541   8.172  11.201   9.006 -0.8195  0.1365 -1.1321
  497SOL    HW2 8542   8.208  11.086   8.914 -1.5316 -0.7939 -0.2664
  498SOL     OW 8543   5.937  11.012  12.574 -0.2484  0.5028 -1.1447
  498SOL    HW1 8544   5.938  10.923  12.609  0.6631  0.1272 -2.0643
  498SOL    HW2 8545   6.013  11.054  12.615 -1.1407  1.1348 -0.0848
  499SOL     OW 8546   0.431   9.018  10.938  0.4908 -0.3133 -0.0442
  499SOL    HW1 8547   0.515   9.018  10.891  0.8429 -2.1388  0.4891
  499SOL    HW2 8548   0.366   9.004  10.869  0.3978  2.6413 -0.6798
  500SOL     OW 8549   4.726   1.308   3.098  0.1048  0.1412 -0.2245
  500SOL    HW1 8550   4.743   1.216   3.117 -0.5740  0.2031  0.6810
  500SOL    HW2 8551   4.769   1.322   3.013 -0.1105 -1.0979 -0.5585
  501SOL     OW 8552   2.369   8.981   8.327  0.6862 -0.2124 -0.2863
  501SOL    HW1 8553   2.305   9.048   8.305  1.8469  0.9264 -0.3194
  501SOL    HW2 8554   2.424   8.974   8.249 -0.8476 -3.0021 -1.2480
  502SOL     OW 8555   3.793   2.725   6.292 -0.1559  0.0523  0.9165
  502SOL    HW1 8556   3.717   2.681   6.255 -0.3409 -0.4500  1.8586
  502SOL    HW2 8557   3.774   2.732   6.385  1.4495 -1.1709  1.3927
  503SOL     OW 8558   7.892  12.314   7.494  0.4893  0.0198 -0.5430
  503SOL    HW1 8559   7.821  12.344   7.551  0.5564 -0.2948 -0.2939
  503SOL    HW2 8560   7.971  12.326   7.546  0.5470 -0.2979 -0.5570
  504SOL     OW 8561   0.990   4.809   8.047  0.0166 -0.3976 -0.3525
  504SOL    HW1 8562   0.999   4.857   7.964 -0.1109  0.1075 -0.0783
  504SOL    HW2 8563   1.021   4.870   8.114 -0.1664 -0.6925  0.0070
  505SOL     OW 8564   7.550   8.829   8.743 -0.2760  0.7251  0.2286
  505SOL    HW1 8565   7.568   8.842   8.836 -1.7770 -0.6345  0.7630
  505SOL    HW2 8566   7.499   8.906   8.718  0.2528  1.1679  0.4867
  506SOL     OW 8567   4.616   2.410   0.991 -0.2332 -0.0534 -0.1702
  506SOL    HW1 8568   4.635   2.327   0.947 -1.2230  0.1294 -0.9679
  506SOL    HW2 8569   4.702   2.449   1.007  0.1598 -0.2225 -1.7595
  507SOL     OW 8570   8.003   3.096   7.009  0.3596  0.2878  0.3424
  507SOL    HW1 8571   8.080   3.097   7.065  0.5615 -1.8969  0.2038
  507SOL    HW2 8572   7.931   3.126   7.065  0.5126 -2.0281  1.9265
  508SOL     OW 8573   3.675   4.022   2.497 -0.0750  0.1676 -0.2961
  508SOL    HW1 8574   3.609   4.014   2.428 -0.7492 -0.4922  0.4037
  508SOL    HW2 8575   3.683   3.933   2.533  1.0501  0.2768 -0.2258
  509SOL     OW 8576   7.310   5.398   3.632 -0.0566 -0.1553  0.4194
  509SOL    HW1 8577   7.270   5.466   3.687  0.0170 -0.4945  0.8953
  509SOL    HW2 8578   7.236   5.359   3.586 -0.1700 -0.1850  0.6272
  510SOL     OW 8579   7.175   5.397   7.732 -0.3453 -0.0040 -0.0532
  510SOL    HW1 8580   7.160   5.406   7.826 -0.1126  1.2457 -0.1174
  510SOL    HW2 8581   7.094   5.429   7.692 -0.1800  0.1335 -0.2809
  511SOL     OW 8582   0.956   9.850  11.650 -0.6871 -0.6794 -0.0957
  511SOL    HW1 8583   1.006   9.908  11.593  0.4753 -1.6881 -0.1644
  511SOL    HW2 8584   0.865   9.879  11.642 -0.3297  0.1832 -1.2360
  512SOL     OW 8585   0.552   8.250  10.342 -0.2872 -0.0354 -0.6302
  512SOL    HW1 8586   0.540   8.286  10.430  1.6087 -0.3081 -0.2216
  512SOL    HW2 8587   0.508   8.165  10.345 -1.0374  0.3595 -0.2437
  513SOL     OW 8588  11.755   6.633   7.263  0.0446 -0.2833  0.0037
  513SOL    HW1 8589  11.841   6.644   7.303 -0.2450 -0.8635  0.7975
  513SOL    HW2 8590  11.700   6.598   7.333 -0.7026 -0.4282 -0.6453
  514SOL     OW 8591   7.923   4.154   8.681  0.0160  0.3207  0.1031
  514SOL    HW1 8592   7.975   4.234   8.683 -1.1123  1.1337  3.1667
  514SOL    HW2 8593   7.956   4.103   8.755  0.2138 -1.7799 -1.3443
  515SOL     OW 8594   3.214   6.875   0.022 -0.3238  0.2178 -0.6501
  515SOL    HW1 8595   3.295   6.847  -0.020 -1.8182 -2.0649 -2.2514
  515SOL    HW2 8596   3.230   6.860   0.116  0.9645 -0.6120 -0.9689
  516SOL     OW 8597   0.519   0.399   1.418  0.8105  0.2004 -0.0039
  516SOL    HW1 8598   0.512   0.327   1.481  1.1862  0.5317  0.4238
  516SOL    HW2 8599   0.485   0.363   1.336 -1.4904  0.3139  0.8198
  517SOL     OW 8600   9.288   0.558   4.504 -0.3313 -0.2836 -0.2354
  517SOL    HW1 8601   9.214   0.512   4.544 -0.3540 -0.5328 -0.5568
  517SOL    HW2 8602   9.251   0.640   4.472 -0.0250  0.5891  1.5224
  518SOL     OW 8603   2.687   1.347   3.919 -0.0225  0.5649  0.7694
  518SOL    HW1 8604   2.707   1.277   3.981  0.8017 -0.4487 -0.6058
  518SOL    HW2 8605   2.746   1.332   3.845 -0.7803  1.9079 -0.1523
  519SOL     OW 8606  12.010   0.965  11.970 -0.0425 -0.1891 -0.3298
  519SOL    HW1 8607  11.997   0.893  11.908 -0.4506 -0.2665 -0.1561
  519SOL    HW2 8608  12.101   0.991  11.958 -0.2139  0.0214 -1.2031
  520SOL     OW 8609   3.691   5.401   4.704  0.5114  0.0185  0.1149
  520SOL    HW1 8610   3.614   5.375   4.755  0.9005  0.5871  1.0305
  520SOL    HW2 8611   3.702   5.332   4.639 -1.8216  0.7892 -1.2231
  521SOL     OW 8612  12.494   4.882   5.376 -0.2513 -0.0954  0.1721
  521SOL    HW1 8613  12.580   4.843   5.360  0.2107  0.9365  0.0430
  521SOL    HW2 8614  12.512   4.975   5.388 -1.3549  0.1360  0.1385
  522SOL     OW 8615   9.453   6.310   4.020 -0.0880 -0.2026 -0.6468
  522SOL    HW1 8616   9.500   6.229   4.000  0.7753 -0.4217  1.8691
  522SOL    HW2 8617   9.385   6.283   4.083 -0.3948  0.8781 -0.4912
  523SOL     OW 8618   1.992   6.030   3.991  0.1074  1.0200 -0.7398
  523SOL    HW1 8619   2.054   6.081   3.939  2.6970  0.6455  1.7573
  523SOL    HW2 8620   2.017   6.047   4.081 -1.1016 -2.0436  0.2957
  524SOL     OW 8621   5.742   1.269   1.749  0.0175  0.5190 -0.2651
  524SOL    HW1 8622   5.661   1.309   1.717  0.6261 -0.4940 -3.3614
  524SOL    HW2 8623   5.776   1.333   1.812 -1.1297  2.9210 -1.9076
  525SOL     OW 8624   7.486   1.414  12.587 -0.0614  0.1189 -0.3691
  525SOL    HW1 8625   7.438   1.447  12.511  0.8789 -1.5646 -1.7698
  525SOL    HW2 8626   7.508   1.324  12.564  1.1169 -0.1260  1.5072
  526SOL     OW 8627   8.668   6.386   3.077 -0.1083  0.5311 -0.1339
  526SOL    HW1 8628   8.584   6.408   3.117 -0.5372  0.5087 -1.0218
  526SOL    HW2 8629   8.692   6.464   3.026  0.1404  0.3245 -0.3345
  527SOL     OW 8630   8.865  10.792  10.140 -0.0857 -0.8455  0.0206
  527SOL    HW1 8631   8.845  10.735  10.214 -0.9685  0.3072  0.6967
  527SOL    HW2 8632   8.807  10.867  10.151 -0.5855 -0.8486 -2.0956
  528SOL     OW 8633  11.201   0.664   4.966  0.4977 -0.1938 -0.7927
  528SOL    HW1 8634  11.288   0.628   4.985 -0.1321 -1.6092 -0.4130
  528SOL    HW2 8635  11.205   0.754   4.996  2.2486  0.1889 -2.0062
  529SOL     OW 8636   9.174  10.309   1.403  0.4082  0.4866 -0.3577
  529SOL    HW1 8637   9.139  10.230   1.362  1.3733 -0.7027  1.0152
  529SOL    HW2 8638   9.266  10.290   1.418  0.3847  1.3548  1.1774
  530SOL     OW 8639   2.029   3.115   1.788 -0.0328 -0.0397  0.4380
  530SOL    HW1 8640   2.011   3.173   1.714 -2.0042  0.3069  1.1134
  530SOL    HW2 8641   2.108   3.151   1.828  0.1034  0.7781 -0.5087
  531SOL     OW 8642   5.101  11.845  10.852  0.2256 -0.1433 -1.0430
  531SOL    HW1 8643   5.173  11.833  10.914  0.4775 -1.1986 -1.5167
  531SOL    HW2 8644   5.138  11.820  10.767 -0.5173 -0.0749 -1.3955
  532SOL     OW 8645   4.654   8.271   4.869  0.2979  0.1852  0.3537
  532SOL    HW1 8646   4.685   8.263   4.960  0.4190  0.5613  0.3486
  532SOL    HW2 8647   4.560   8.284   4.878  0.3758  0.7025  0.4518
  533SOL     OW 8648   1.765  12.508   3.098 -0.2227  0.4500  0.1789
  533SOL    HW1 8649   1.672  12.512   3.073  0.0894 -1.1116 -1.4033
  533SOL    HW2 8650   1.763  12.484   3.191 -1.4323 -0.7978 -0.1242
  534SOL     OW 8651  12.073   3.487   7.917  0.4290  0.4888 -0.3566
  534SOL    HW1 8652  12.015   3.444   7.980 -0.3197 -2.4706 -2.8366
  534SOL    HW2 8653  12.150   3.430   7.913  0.9163  1.1885 -1.3930
  535SOL     OW 8654   8.948   5.979   4.618 -0.1913  0.5772 -0.2529
  535SOL    HW1 8655   8.880   6.030   4.662  0.1283 -0.5046  1.5948
  535SOL    HW2 8656   9.005   5.950   4.688 -1.6859 -4.3887 -0.7479
  536SOL     OW 8657   1.676  12.544   2.751 -0.4581  0.5812  0.0417
  536SOL    HW1 8658   1.746  12.559   2.687  0.6626 -3.1345  0.1386
  536SOL    HW2 8659   1.595  12.549   2.699  0.1598  1.2110 -0.8902
  537SOL     OW 8660   5.598   0.021   7.355 -0.0075  0.7298  0.3975
  537SOL    HW1 8661   5.614   0.032   7.261  1.9259 -0.4995  0.5175
  537SOL    HW2 8662   5.686   0.022   7.394 -0.7505  0.7882  2.1483
  538SOL     OW 8663   0.994  10.856  10.298  0.1745  0.3705 -0.4714
  538SOL    HW1 8664   0.964  10.930  10.246 -1.0935  0.3630  0.2114
  538SOL    HW2 8665   1.045  10.896  10.369  0.6267  0.4837 -0.8558
  539SOL     OW 8666   4.229   7.828   0.177 -0.4742 -0.1118 -0.1288
  539SOL    HW1 8667   4.283   7.750   0.167  0.4827  0.4743  0.3919
  539SOL    HW2 8668   4.212   7.834   0.271  0.4148  0.9328 -0.0230
  540SOL     OW 8669   9.924  10.374   2.677 -0.2863  0.0690  0.1214
  540SOL    HW1 8670   9.879  10.440   2.728  0.3377 -0.6744  1.7038
  540SOL    HW2 8671  10.014  10.406   2.670 -0.7126  0.9557 -1.9706
  541SOL     OW 8672   0.936   4.197   2.257  0.3805  0.1231 -0.3862
  541SOL    HW1 8673   0.929   4.230   2.168  1.4959  2.5953  0.3618
  541SOL    HW2 8674   0.859   4.232   2.301 -0.3854 -1.4311 -0.4343
  542SOL     OW 8675  10.733   6.232   5.309 -0.5093  0.3413  0.3683
  542SOL    HW1 8676  10.775   6.163   5.257  0.0537  0.2899  0.8724
  542SOL    HW2 8677  10.649   6.195   5.335 -0.2440 -0.1303  0.5698
  543SOL     OW 8678   3.677  11.329   0.634 -0.9763 -0.0269 -0.4524
  543SOL    HW1 8679   3.636  11.340   0.548  0.0056  0.9940 -0.8129
  543SOL    HW2 8680   3.699  11.236   0.637 -2.6821 -0.4791 -0.5080
  544SOL     OW 8681   7.185   5.241   1.991  0.1290 -0.7248 -0.2386
  544SOL    HW1 8682   7.267   5.248   2.040 -0.0486 -0.7107  0.0644
  544SOL    HW2 8683   7.191   5.158   1.944  0.1435 -0.9215  0.1092
  545SOL     OW 8684  10.694   7.306   3.156  0.5832 -0.2089 -0.2310
  545SOL    HW1 8685  10.625   7.283   3.218  0.6096  2.0253  0.7494
  545SOL    HW2 8686  10.650   7.309   3.071 -0.2427 -0.0684  0.1918
  546SOL     OW 8687   6.726   0.245  11.273 -0.3060 -0.1767  0.0783
  546SOL    HW1 8688   6.763   0.220  11.188  0.5505  1.0182  0.0671
  546SOL    HW2 8689   6.753   0.176  11.333  0.7811 -0.0378 -0.2318
  547SOL     OW 8690   3.883  10.808   3.465 -0.3078  0.9457  0.1553
  547SOL    HW1 8691   3.921  10.884   3.421  1.2245 -0.2830 -0.7913
  547SOL    HW2 8692   3.910  10.734   3.410 -0.1367 -0.4566  2.0479
  548SOL     OW 8693   0.250   7.762  11.547  0.2701 -0.6572  0.3973
  548SOL    HW1 8694   0.290   7.722  11.470 -1.1528 -0.3803 -0.5232
  548SOL    HW2 8695   0.187   7.697  11.579 -0.8623  0.1429 -0.1270
  549SOL     OW 8696   5.680  10.276   6.833  0.3059 -0.2062 -0.0237
  549SOL    HW1 8697   5.680  10.278   6.929 -0.6020 -0.6625 -0.0057
  549SOL    HW2 8698   5.678  10.183   6.810 -0.5734 -0.0962 -0.4635
  550SOL     OW 8699  10.906  12.388  11.233 -0.5120 -0.0575  0.3419
  550SOL    HW1 8700  10.916  12.458  11.169 -0.0753 -1.2034 -0.8788
  550SOL    HW2 8701  10.955  12.419  11.310 -0.7635  1.1854  0.0254
  551SOL     OW 8702  11.553   1.171   7.454  0.1435  0.0672  0.1160
  551SOL    HW1 8703  11.624   1.223   7.417  0.5704 -0.1193  0.6492
  551SOL    HW2 8704  11.542   1.098   7.393  0.8113 -0.2158  0.3276
  552SOL     OW 8705   2.099  11.353   1.650  0.0817 -0.4506  0.0949
  552SOL    HW1 8706   2.011  11.384   1.672  0.2167  0.2025 -0.2440
  552SOL    HW2 8707   2.155  11.391   1.717  0.3632  0.7731 -0.7891
  553SOL     OW 8708   7.113   9.367   9.746 -0.2187  0.2182 -0.3717
  553SOL    HW1 8709   7.154   9.365   9.833 -2.7328  0.8802  0.9524
  553SOL    HW2 8710   7.142   9.286   9.704 -1.4506 -1.8660  2.4068
  554SOL     OW 8711   8.013   1.209  11.374  0.1533  0.7274  0.4078
  554SOL    HW1 8712   8.027   1.194  11.467  0.8610  2.1042  0.5498
  554SOL    HW2 8713   7.918   1.221  11.365 -0.1825 -1.4714  0.5949
  555SOL     OW 8714   9.545   1.408   8.434 -0.1328  0.2648 -0.1621
  555SOL    HW1 8715   9.475   1.471   8.420 -1.5589 -1.1252  0.3132
  555SOL    HW2 8716   9.558   1.408   8.529  0.0206  0.0283 -0.1831
  556SOL     OW 8717   6.258  10.703   5.877  0.1788 -0.4766  0.2385
  556SOL    HW1 8718   6.268  10.709   5.972 -1.5800 -1.1431  0.5069
  556SOL    HW2 8719   6.272  10.610   5.858  0.0952 -0.4208 -0.0995
  557SOL     OW 8720   1.259  12.480   9.315  0.0095 -0.2605  0.0416
  557SOL    HW1 8721   1.273  12.566   9.275  1.6224 -1.3557 -1.9798
  557SOL    HW2 8722   1.340  12.462   9.361  0.0442 -1.0663 -0.3234
  558SOL     OW 8723  11.280   2.745   0.196  0.3778 -0.7543 -0.0734
  558SOL    HW1 8724  11.317   2.821   0.152  0.0172 -0.4239  0.1859
  558SOL    HW2 8725  11.290   2.763   0.289  0.9688 -1.3688 -0.0104
  559SOL     OW 8726   0.796   4.531   0.655  0.0961 -0.3475  0.3383
  559SOL    HW1 8727   0.747   4.592   0.599  0.1662 -0.8137 -0.2407
  559SOL    HW2 8728   0.751   4.535   0.739 -0.4075 -0.1173  0.0649
  560SOL     OW 8729   1.347   0.189   5.695 -0.5155  0.5140  0.1154
  560SOL    HW1 8730   1.288   0.160   5.764  0.1406  1.1301  0.9467
  560SOL    HW2 8731   1.426   0.218   5.741 -0.4575  1.9193 -0.8106
  561SOL     OW 8732   8.381   5.333   0.713  0.5428  0.5476 -0.4013
  561SOL    HW1 8733   8.289   5.310   0.724  0.4463  0.5230 -1.1643
  561SOL    HW2 8734   8.424   5.298   0.791  0.2220 -1.2719 -0.9859
  562SOL     OW 8735   8.077   0.380  12.243  0.0764  0.5596 -0.3399
  562SOL    HW1 8736   8.003   0.411  12.295  0.3909 -1.3123  1.3681
  562SOL    HW2 8737   8.042   0.371  12.154 -1.4109  0.7885  0.1885
  563SOL     OW 8738   1.178  10.937  12.230  0.1506 -0.1704 -0.6820
  563SOL    HW1 8739   1.135  11.004  12.178  0.9626  1.9196  1.1392
  563SOL    HW2 8740   1.272  10.949  12.213  0.6521  2.0584  2.6286
  564SOL     OW 8741   5.673   3.430   6.555  0.1772 -0.1795  0.6995
  564SOL    HW1 8742   5.589   3.386   6.562  0.9050 -1.5360  1.2580
  564SOL    HW2 8743   5.718   3.385   6.483  1.0855 -0.6420  1.5322
  565SOL     OW 8744   6.950   7.492   8.476  0.1295  0.3174  0.8269
  565SOL    HW1 8745   6.992   7.534   8.551  1.7733 -1.3578  0.9196
  565SOL    HW2 8746   7.002   7.522   8.401 -0.1088  0.2183  0.6209
  566SOL     OW 8747   0.164   9.536   0.811 -0.4370  0.2459  0.2707
  566SOL    HW1 8748   0.211   9.548   0.729  1.2471 -0.1774  1.1383
  566SOL    HW2 8749   0.173   9.443   0.830 -0.8448  0.3367  0.9393
  567SOL     OW 8750   0.889   5.360   1.818  0.0048 -0.8008 -0.5056
  567SOL    HW1 8751   0.948   5.419   1.773  0.3453 -0.7805 -0.0345
  567SOL    HW2 8752   0.908   5.274   1.780  1.8320 -1.1662  1.0803
  568SOL     OW 8753   0.322   8.886   3.565  0.2996  0.0863 -0.3112
  568SOL    HW1 8754   0.381   8.810   3.566  1.3186  0.8314  1.8467
  568SOL    HW2 8755   0.367   8.951   3.511  0.1003 -0.2947 -0.9597
  569SOL     OW 8756   2.250   7.115  11.197  0.0594  0.3952  0.1085
  569SOL    HW1 8757   2.330   7.071  11.226 -0.0807  1.0787  1.6606
  569SOL    HW2 8758   2.277   7.166  11.121  0.7483 -0.5256 -0.2841
  570SOL     OW 8759   9.754   1.025  11.124 -0.1708 -0.2213 -0.2778
  570SOL    HW1 8760   9.730   1.094  11.186  0.0739  0.7452 -1.2230
  570SOL    HW2 8761   9.839   1.052  11.089  0.0550 -1.1450 -0.4763
  571SOL     OW 8762   5.146   5.225   5.660 -0.3505  0.3485  0.1134
  571SOL    HW1 8763   5.172   5.140   5.697 -1.1760 -0.3238 -0.7970
  571SOL    HW2 8764   5.077   5.203   5.597 -0.0398  1.6176 -0.6946
  572SOL     OW 8765   0.478  12.210   3.954  0.3647 -0.4729 -0.0012
  572SOL    HW1 8766   0.475  12.127   4.001 -0.0723 -0.2943  0.2960
  572SOL    HW2 8767   0.553  12.202   3.895 -1.0661 -2.0041 -1.7210
  573SOL     OW 8768   1.016   7.332   5.811 -0.0788 -0.3541 -0.1340
  573SOL    HW1 8769   1.092   7.344   5.867  0.5868 -2.4685 -0.4733
  573SOL    HW2 8770   1.037   7.254   5.760 -1.5206  0.3392 -1.8857
  574SOL     OW 8771   8.480   2.114   3.845  0.0115  0.5195 -0.0362
  574SOL    HW1 8772   8.565   2.102   3.887  0.5065 -0.3850 -1.2535
  574SOL    HW2 8773   8.477   2.207   3.823  0.7294  0.5410 -0.0614
  575SOL     OW 8774   9.924   9.617   7.651  0.1917  0.0711  0.0108
  575SOL    HW1 8775   9.848   9.573   7.613 -0.1097  0.3347  0.3054
  575SOL    HW2 8776   9.992   9.549   7.655  0.6616  0.3126 -2.1562
  576SOL     OW 8777   4.114   7.195   2.530  0.1787  0.7531 -0.2936
  576SOL    HW1 8778   4.175   7.122   2.526 -1.2674 -0.6227  1.1919
  576SOL    HW2 8779   4.142   7.247   2.605 -0.1566  0.4072  0.0753
  577SOL     OW 8780   5.230  11.434   0.932 -0.0547 -0.3127  0.0883
  577SOL    HW1 8781   5.199  11.524   0.923  0.1441 -0.2519  0.0093
  577SOL    HW2 8782   5.172  11.383   0.876  0.8359 -0.0142 -1.1520
  578SOL     OW 8783   2.813   6.871   1.471  0.2125  0.1954  0.3683
  578SOL    HW1 8784   2.766   6.954   1.474  1.2905  0.7902  1.1308
  578SOL    HW2 8785   2.902   6.894   1.443  0.7144 -0.6077  1.2508
  579SOL     OW 8786  11.666   7.330   9.504 -0.6336 -0.3888 -0.3220
  579SOL    HW1 8787  11.594   7.377   9.546 -0.6877 -0.0635 -0.7739
  579SOL    HW2 8788  11.684   7.380   9.424  1.2113  0.5239  0.5913
  580SOL     OW 8789   7.608  10.018   7.614  0.2199  0.6281  0.1713
  580SOL    HW1 8790   7.645  10.083   7.674  1.1716  0.4883 -0.2517
  580SOL    HW2 8791   7.525   9.993   7.655  1.2776 -0.1725  1.9272
  581SOL     OW 8792   5.015   9.305   1.635  0.2904 -0.4131 -0.1889
  581SOL    HW1 8793   4.927   9.333   1.611  0.8695  0.2569 -1.5824
  581SOL    HW2 8794   5.001   9.244   1.708 -1.3108 -0.2336 -0.3114
  582SOL     OW 8795   8.989   7.589  10.671  0.5529  0.0843  0.0828
  582SOL    HW1 8796   9.001   7.512  10.727 -0.4342  0.3801  0.7298
  582SOL    HW2 8797   8.899   7.617  10.688  0.4703  0.6178 -1.1228
  583SOL     OW 8798   0.644   9.489   1.660  0.1904  0.2446 -0.0908
  583SOL    HW1 8799   0.649   9.418   1.596 -0.0779 -0.9002  1.1158
  583SOL    HW2 8800   0.706   9.464   1.729  0.1628  1.2261  0.3140
  584SOL     OW 8801  10.049   8.672  10.460 -0.4159 -0.2767 -0.0829
  584SOL    HW1 8802  10.005   8.755  10.441 -0.0822  0.3134  1.5844
  584SOL    HW2 8803  10.116   8.694  10.524  1.2125 -1.4577 -1.2823
  585SOL     OW 8804  12.265   0.753  11.751  0.5796  0.1810 -0.1080
  585SOL    HW1 8805  12.175   0.728  11.730  0.5349  1.8223 -2.1419
  585SOL    HW2 8806  12.318   0.709  11.685  0.9651  1.4825 -0.6831
  586SOL     OW 8807   7.932   6.825   5.650  0.4829  0.2368 -0.1757
  586SOL    HW1 8808   7.853   6.856   5.607  0.9285  1.7994  0.0754
  586SOL    HW2 8809   7.933   6.730   5.634 -2.6176 -0.2385  1.7291
  587SOL     OW 8810   6.570   7.946   4.737 -0.2529  0.6902  0.1690
  587SOL    HW1 8811   6.535   7.970   4.651 -0.9082 -1.0165 -0.0847
  587SOL    HW2 8812   6.651   7.900   4.717 -0.3661  0.3583  0.4743
  588SOL     OW 8813   9.544   1.906   3.773 -0.7333  0.3731  0.1786
  588SOL    HW1 8814   9.584   1.884   3.689 -0.3859 -0.1541  0.4737
  588SOL    HW2 8815   9.492   1.829   3.796  0.2968 -0.0793  1.1080
  589SOL     OW 8816   3.975   3.930   7.434  0.2842  0.4735 -0.0537
  589SOL    HW1 8817   3.912   3.897   7.369 -0.6392  0.3185  0.8915
  589SOL    HW2 8818   3.937   4.013   7.463  2.3308  2.2502 -2.0484
  590SOL     OW 8819   3.971   6.814   3.864 -0.0653 -0.4398  0.3676
  590SOL    HW1 8820   3.932   6.847   3.945 -2.8473 -1.4449 -0.4403
  590SOL    HW2 8821   4.001   6.726   3.887 -2.8855 -1.6385 -0.0858
  591SOL     OW 8822   6.460  11.123   0.584 -0.9534 -0.6673 -0.5076
  591SOL    HW1 8823   6.510  11.052   0.622 -1.3041 -0.5121  0.2519
  591SOL    HW2 8824   6.472  11.197   0.644 -0.0828  0.1164 -1.6011
  592SOL     OW 8825  10.420   1.268   8.166 -0.1119  0.4425  0.0154
  592SOL    HW1 8826  10.493   1.282   8.226 -1.4697  0.3941  1.7890
  592SOL    HW2 8827  10.359   1.340   8.186 -0.7370  0.2440 -1.1049
  593SOL     OW 8828   4.860   1.103   7.751  0.0264 -0.5153 -0.6366
  593SOL    HW1 8829   4.793   1.158   7.710  0.0507  2.2567  2.5934
  593SOL    HW2 8830   4.810   1.040   7.803 -0.0679 -0.3369 -0.5083
  594SOL     OW 8831  11.164   6.304   0.983 -0.0828  0.3766  0.1177
  594SOL    HW1 8832  11.121   6.222   0.960  0.4766 -0.2860  1.3328
  594SOL    HW2 8833  11.132   6.367   0.918 -0.2753 -0.8587 -1.0236
  595SOL     OW 8834   1.686   9.158   2.444 -0.2967  0.0363 -0.4696
  595SOL    HW1 8835   1.653   9.248   2.438  0.6403  0.3678 -0.9779
  595SOL    HW2 8836   1.780   9.167   2.427 -0.3964 -1.2039 -1.7876
  596SOL     OW 8837   0.942  10.329   7.813  0.2368  0.1721  0.6287
  596SOL    HW1 8838   0.902  10.366   7.735 -0.8212 -0.8320  0.6698
  596SOL    HW2 8839   0.944  10.402   7.876  0.8239  0.8991 -0.2137
  597SOL     OW 8840   5.442   7.399  11.542 -1.0773 -0.3488 -0.3555
  597SOL    HW1 8841   5.460   7.493  11.531 -0.4033 -0.5112 -0.6708
  597SOL    HW2 8842   5.368   7.396  11.603 -0.5311  0.3685  0.3750
  598SOL     OW 8843  12.342   9.503   9.148 -0.1122  0.7246  0.0412
  598SOL    HW1 8844  12.328   9.563   9.221 -0.2358 -0.2627  0.8491
  598SOL    HW2 8845  12.437   9.491   9.145  0.0129  1.8241 -0.8456
  599SOL     OW 8846   1.810   9.501  11.452 -0.3093  0.0068 -0.0141
  599SOL    HW1 8847   1.809   9.440  11.378  2.8166  2.0877 -1.9619
  599SOL    HW2 8848   1.717   9.519  11.469 -1.1587 -1.3226 -2.7240
  600SOL     OW 8849   7.883   4.785  10.717 -0.9001  0.0729  0.4287
  600SOL    HW1 8850   7.818   4.725  10.752  2.0975 -4.0422 -0.3715
  600SOL    HW2 8851   7.874   4.779  10.622  0.5844 -0.5737  0.3053
  601SOL     OW 8852  10.575   4.098   2.671  0.6990 -0.6503 -0.2052
  601SOL    HW1 8853  10.639   4.165   2.648  0.2378  0.6774  2.0807
  601SOL    HW2 8854  10.491   4.136   2.646  0.2215  0.6790  2.9800
  602SOL     OW 8855   3.836   0.129   1.460 -0.0605  0.7349  0.1715
  602SOL    HW1 8856   3.851   0.167   1.546  1.2689  2.0911 -0.6076
  602SOL    HW2 8857   3.786   0.197   1.413  0.5411  0.6589 -0.5908
  603SOL     OW 8858   9.194   8.340   4.266 -0.3223  0.5211 -0.2764
  603SOL    HW1 8859   9.210   8.430   4.238  0.1893  0.1709 -1.1287
  603SOL    HW2 8860   9.266   8.290   4.228 -0.9826 -0.3580 -0.3930
  604SOL     OW 8861   5.976   6.285   3.885 -0.6542  0.2095  0.2580
  604SOL    HW1 8862   6.000   6.327   3.803  0.6776 -0.6933  0.1476
  604SOL    HW2 8863   5.904   6.226   3.862  1.1406 -1.7199 -0.8119
  605SOL     OW 8864   5.886  12.587   7.793  0.2771  0.3008 -0.5522
  605SOL    HW1 8865   5.940  12.545   7.727  1.5328  1.1251 -0.0841
  605SOL    HW2 8866   5.877  12.677   7.764  0.2127  0.4840  0.0195
  606SOL     OW 8867   0.524   2.679   8.231 -0.7220  0.5388  0.0286
  606SOL    HW1 8868   0.479   2.746   8.179 -0.3282 -0.1343 -1.2154
  606SOL    HW2 8869   0.489   2.691   8.320 -2.4602  0.8214 -0.6451
  607SOL     OW 8870   9.002   7.739   9.822  0.3507 -0.1015 -0.7615
  607SOL    HW1 8871   9.079   7.693   9.789  1.0658  1.0320 -0.6963
  607SOL    HW2 8872   8.937   7.669   9.834  1.0135 -0.9315 -1.7927
  608SOL     OW 8873   6.185  11.822   8.802  0.0426 -0.3223  1.0128
  608SOL    HW1 8874   6.245  11.815   8.877  0.6645  1.2967  0.7149
  608SOL    HW2 8875   6.211  11.903   8.759 -3.1570  1.1673  1.5901
  609SOL     OW 8876   0.721   6.098   3.575  0.1556 -0.1394  0.2313
  609SOL    HW1 8877   0.656   6.140   3.519  1.5318  1.9958  0.1113
  609SOL    HW2 8878   0.689   6.110   3.664 -1.1425 -1.9447  0.0551
  610SOL     OW 8879   7.283  11.800  11.216  0.1559  0.7084  0.1137
  610SOL    HW1 8880   7.319  11.859  11.150  0.0498  0.5863 -0.0571
  610SOL    HW2 8881   7.332  11.719  11.206 -1.8044 -0.3406 -1.8521
  611SOL     OW 8882   9.091   2.733   4.759 -0.0715  0.2275 -0.1041
  611SOL    HW1 8883   9.039   2.809   4.787  0.5316  0.0504  1.6417
  611SOL    HW2 8884   9.027   2.664   4.745 -0.3858  0.0067  2.0351
  612SOL     OW 8885   5.095   1.011   9.754 -0.3448  0.4751 -0.0919
  612SOL    HW1 8886   5.111   0.992   9.847  0.6992  0.0855 -0.3306
  612SOL    HW2 8887   5.007   0.977   9.737  1.2845 -4.3994 -0.4759
  613SOL     OW 8888  11.542  12.304   3.544  0.1588  0.1433  0.9077
  613SOL    HW1 8889  11.586  12.372   3.492 -1.6398  0.8269  0.2272
  613SOL    HW2 8890  11.536  12.229   3.484  0.7723 -0.1123  1.1548
  614SOL     OW 8891   2.122   8.709   5.930 -0.2044 -0.4684 -0.2151
  614SOL    HW1 8892   2.072   8.666   5.860 -0.1904 -0.0075 -0.5146
  614SOL    HW2 8893   2.203   8.659   5.936 -0.6384 -1.1380  0.1759
  615SOL     OW 8894   6.670   9.850   2.646 -0.3272 -0.1567 -0.1870
  615SOL    HW1 8895   6.713   9.880   2.726 -0.8762  0.2075 -0.0259
  615SOL    HW2 8896   6.742   9.838   2.584  0.0818 -0.2565  0.2985
  616SOL     OW 8897   4.879   4.776   1.126 -0.1312 -0.0219  0.1375
  616SOL    HW1 8898   4.836   4.860   1.144  0.9674  0.3908  1.0090
  616SOL    HW2 8899   4.973   4.797   1.127  0.1485 -0.6120 -3.0154
  617SOL     OW 8900  10.767   5.853   3.293 -0.5313  1.0339 -0.0123
  617SOL    HW1 8901  10.743   5.932   3.245 -1.1708  0.9723  0.1991
  617SOL    HW2 8902  10.791   5.884   3.381 -0.9781  0.9742  0.1322
  618SOL     OW 8903   6.181  12.376   0.764 -0.4884 -0.3923  0.3355
  618SOL    HW1 8904   6.122  12.329   0.705  0.3059  0.2524 -1.0197
  618SOL    HW2 8905   6.168  12.468   0.743  0.5897 -0.2126  0.3990
  619SOL     OW 8906  10.294   9.472  10.050  0.3329 -0.5126 -0.0890
  619SOL    HW1 8907  10.215   9.523  10.038  0.6410 -0.1796 -0.7528
  619SOL    HW2 8908  10.338   9.474   9.965  0.8499 -1.0350  0.1530
  620SOL     OW 8909   2.787   7.086   5.699 -0.6310 -0.2984 -0.7163
  620SOL    HW1 8910   2.761   7.160   5.644 -0.1851  1.2298  1.0235
  620SOL    HW2 8911   2.882   7.087   5.698 -0.6194 -0.3938 -0.1189
  621SOL     OW 8912   6.789  12.399  11.819  0.0171 -0.0681  0.3532
  621SOL    HW1 8913   6.758  12.327  11.874 -0.2067 -1.1421 -1.1340
  621SOL    HW2 8914   6.807  12.470  11.881 -0.8325 -1.0153  1.7400
  622SOL     OW 8915   3.679   2.101   1.317 -0.4632  0.3227 -0.1847
  622SOL    HW1 8916   3.692   2.193   1.296 -0.6103  0.1490 -1.0538
  622SOL    HW2 8917   3.768   2.064   1.320 -0.4859 -0.0741 -2.5187
  623SOL     OW 8918   2.363   4.414   1.102 -0.6186  0.0907 -0.3380
  623SOL    HW1 8919   2.291   4.468   1.136 -0.0321 -0.0028  1.1470
  623SOL    HW2 8920   2.341   4.325   1.130 -0.4980 -0.1096 -0.8811
  624SOL     OW 8921   8.709  10.163   5.706  0.5721  0.1115  0.0881
  624SOL    HW1 8922   8.798  10.136   5.685  0.3836 -0.5341  0.0984
  624SOL    HW2 8923   8.683  10.106   5.778 -0.4578 -0.9000 -1.0395
  625SOL     OW 8924   6.937  11.377   8.680 -0.5337  0.4284 -0.0677
  625SOL    HW1 8925   6.985  11.446   8.635  0.2961 -0.3297 -0.3912
  625SOL    HW2 8926   6.890  11.331   8.611 -0.9875  0.5827  0.1303
  626SOL     OW 8927   8.885   5.593   4.284  0.5474  0.5467  0.1385
  626SOL    HW1 8928   8.949   5.543   4.334 -0.7269  0.3405  1.6283
  626SOL    HW2 8929   8.880   5.678   4.328  0.7285  1.0525 -0.7657
  627SOL     OW 8930   1.985   8.655   5.530 -0.3366 -0.1696 -0.1859
  627SOL    HW1 8931   1.940   8.738   5.544  0.0926  0.3219 -1.5587
  627SOL    HW2 8932   1.918   8.596   5.495 -0.0590  0.4221 -1.7818
  628SOL     OW 8933   5.148   9.980  11.118 -0.6785 -0.7221  0.3316
  628SOL    HW1 8934   5.164   9.908  11.058 -1.6921 -0.8256  0.1676
  628SOL    HW2 8935   5.054   9.976  11.137 -0.5780 -0.0209  1.0558
  629SOL     OW 8936   1.464   5.844   2.656  0.2477  0.2414 -0.4120
  629SOL    HW1 8937   1.381   5.834   2.703  0.0721 -0.4334 -0.8486
  629SOL    HW2 8938   1.461   5.934   2.622 -1.3966 -0.4725 -2.4142
  630SOL     OW 8939   6.564   9.597   7.623 -0.6778  0.1492 -0.3679
  630SOL    HW1 8940   6.630   9.651   7.667 -2.2905  1.4216  0.5692
  630SOL    HW2 8941   6.612   9.557   7.550  0.8682  1.9104 -0.3947
  631SOL     OW 8942   8.498  10.563   6.941 -0.1076  0.5847  0.0689
  631SOL    HW1 8943   8.580  10.539   6.983 -1.0510  0.6374  2.0902
  631SOL    HW2 8944   8.438  10.491   6.962 -0.4184  0.1561 -2.0442
  632SOL     OW 8945   2.436  11.945   5.664  0.1556  0.2729 -0.3286
  632SOL    HW1 8946   2.405  12.026   5.622  1.2032  0.5718 -0.5403
  632SOL    HW2 8947   2.531  11.952   5.663  0.2371 -0.0893  1.3786
  633SOL     OW 8948   3.214   3.334   4.448  0.4269  0.5088  0.0298
  633SOL    HW1 8949   3.296   3.372   4.480  0.9674  0.0986 -0.8244
  633SOL    HW2 8950   3.146   3.372   4.504  0.8964  3.0337 -0.9961
  634SOL     OW 8951   0.090   9.359   7.110 -0.0646 -0.2188 -0.7194
  634SOL    HW1 8952   0.006   9.314   7.096  0.0300 -0.0503 -1.9305
  634SOL    HW2 8953   0.155   9.300   7.072  0.1305  0.6124 -1.7339
  635SOL     OW 8954   6.685   2.195  10.506  0.4748  0.3480 -0.9046
  635SOL    HW1 8955   6.617   2.146  10.553  1.8647 -0.9934 -0.2020
  635SOL    HW2 8956   6.732   2.242  10.575  0.7402  0.6603 -1.2954
  636SOL     OW 8957   7.056   1.449   5.817 -0.1433  0.2184 -0.2848
  636SOL    HW1 8958   7.127   1.513   5.805  1.4992 -1.4473  0.0633
  636SOL    HW2 8959   7.027   1.430   5.728 -0.9554  1.7391 -0.3697
  637SOL     OW 8960   9.473  12.040  12.326  0.2167 -0.2368 -0.0654
  637SOL    HW1 8961   9.501  12.084  12.406 -1.0338  1.3942 -0.4612
  637SOL    HW2 8962   9.414  11.971  12.356  0.8637 -0.5667  0.4794
  638SOL     OW 8963   6.397   5.587   1.710 -0.8897  0.2604  0.0965
  638SOL    HW1 8964   6.488   5.591   1.680 -1.0397 -2.4181 -1.0400
  638SOL    HW2 8965   6.367   5.678   1.709  1.3153  1.0545 -0.9668
  639SOL     OW 8966   3.959  10.672   3.219 -0.1429  0.5872  0.5398
  639SOL    HW1 8967   3.898  10.656   3.146 -0.7277 -0.2820  1.1932
  639SOL    HW2 8968   3.997  10.586   3.237  0.6103  0.9550  0.7304
  640SOL     OW 8969   2.301   9.608   5.273  0.2660 -0.4023  0.0352
  640SOL    HW1 8970   2.238   9.591   5.203  0.6602 -1.1204 -0.1581
  640SOL    HW2 8971   2.276   9.694   5.307  0.7144  0.4872 -1.7088
  641SOL     OW 8972   4.879   1.263  10.745 -0.1019  0.3727 -0.0936
  641SOL    HW1 8973   4.800   1.220  10.712  0.1074  1.2844 -1.8776
  641SOL    HW2 8974   4.951   1.212  10.708  0.1397  0.8985 -0.3611
  642SOL     OW 8975   3.746   1.584   3.187 -0.2526  0.3356  0.1124
  642SOL    HW1 8976   3.826   1.555   3.231 -0.3074 -1.0924 -0.7024
  642SOL    HW2 8977   3.675   1.543   3.236 -0.4367  0.5816  0.0576
  643SOL     OW 8978   2.606  12.098   7.758  0.1645  0.3711  0.4911
  643SOL    HW1 8979   2.554  12.097   7.678 -0.4454 -1.1416  0.8737
  643SOL    HW2 8980   2.556  12.151   7.819 -0.9561 -0.9986  0.8281
  644SOL     OW 8981   7.441   3.957  11.799  0.0144 -0.2199  0.3082
  644SOL    HW1 8982   7.412   3.964  11.890 -1.1078 -1.7564  0.1038
  644SOL    HW2 8983   7.477   3.869  11.792  0.2132 -0.0710 -0.6988
  645SOL     OW 8984  11.347   5.441   2.458 -0.3316 -0.7191  0.6641
  645SOL    HW1 8985  11.414   5.455   2.391  0.2833  1.7680  1.6857
  645SOL    HW2 8986  11.264   5.457   2.413 -0.3590 -3.6569 -0.5672
  646SOL     OW 8987  11.133  11.238   6.381  0.2611 -0.8087  0.6525
  646SOL    HW1 8988  11.121  11.333   6.386  0.9293 -0.7568  1.5718
  646SOL    HW2 8989  11.228  11.226   6.373  0.0349 -1.3222 -2.5497
  647SOL     OW 8990   7.071   8.479   7.340  0.2074  0.3558  0.7493
  647SOL    HW1 8991   7.081   8.567   7.303  3.2531  0.8783  2.4622
  647SOL    HW2 8992   7.044   8.494   7.430  0.7630 -0.4199  1.0616
  648SOL     OW 8993   4.038   1.881   3.767 -0.0651  0.1031 -0.0643
  648SOL    HW1 8994   4.048   1.806   3.709 -1.4890  0.1630 -0.4185
  648SOL    HW2 8995   4.038   1.957   3.708 -0.8295  0.2112  0.0648
  649SOL     OW 8996  11.416   1.506   7.517 -0.2157 -0.2455 -0.4802
  649SOL    HW1 8997  11.322   1.521   7.521 -0.4521 -1.5258 -0.7598
  649SOL    HW2 8998  11.427   1.414   7.542  0.8478 -0.4516 -1.5954
  650SOL     OW 8999   2.825  10.076   3.972  0.3572  0.3492 -0.1592
  650SOL    HW1 9000   2.908  10.063   3.926  0.2562 -0.3967 -0.1515
  650SOL    HW2 9001   2.818  10.000   4.030 -0.5038  0.2031 -0.4323
  651SOL     OW 9002   3.692   0.518   6.007  0.4686  0.2913 -0.1586
  651SOL    HW1 9003   3.766   0.463   5.981  1.0790  1.1934 -0.3813
  651SOL    HW2 9004   3.638   0.461   6.063  0.8599 -0.6512 -0.7135
  652SOL     OW 9005   5.948  12.277   4.369  0.4181 -0.6005 -0.2174
  652SOL    HW1 9006   6.031  12.293   4.413  0.2405  0.3222 -0.1893
  652SOL    HW2 9007   5.970  12.221   4.294  1.0541 -0.3921 -0.1879
  653SOL     OW 9008   6.147   9.932   7.704  0.2037 -0.1875 -0.0311
  653SOL    HW1 9009   6.139   9.995   7.775  0.6249  2.2961 -2.0544
  653SOL    HW2 9010   6.237   9.942   7.673 -0.3356 -0.2949 -1.7115
  654SOL     OW 9011   2.014   9.954   1.467  0.0464 -0.4679 -0.3494
  654SOL    HW1 9012   1.932   9.981   1.507  0.2577  2.3395 -1.6108
  654SOL    HW2 9013   2.081   9.981   1.529  0.1835  0.7812 -1.0114
  655SOL     OW 9014  12.300   5.627   5.091  0.0474  0.0435  0.0069
  655SOL    HW1 9015  12.271   5.622   5.182 -1.2750  0.0492 -0.3955
  655SOL    HW2 9016  12.311   5.536   5.065 -0.3188  0.0153 -0.0526
  656SOL     OW 9017   7.648   7.049   3.027 -0.3765  0.2000  0.1758
  656SOL    HW1 9018   7.687   7.057   3.114  0.8829  1.5223 -0.4667
  656SOL    HW2 9019   7.667   6.959   3.000  0.8783  0.3438  0.5186
  657SOL     OW 9020   7.650  12.107   1.554 -0.1059 -0.2188  0.1038
  657SOL    HW1 9021   7.582  12.042   1.574 -0.8593  0.3625 -0.5043
  657SOL    HW2 9022   7.601  12.186   1.530  0.6310  1.8179  4.2798
  658SOL     OW 9023   1.158  11.619   5.992 -0.0414  0.1952  0.7763
  658SOL    HW1 9024   1.135  11.559   5.921 -0.5586  0.4895  0.6903
  658SOL    HW2 9025   1.253  11.624   5.989  0.1455 -1.7781  1.7294
  659SOL     OW 9026   3.988   0.985   2.847  0.0489  0.3227  0.2931
  659SOL    HW1 9027   3.983   0.998   2.752  2.6311  0.6371  0.1154
  659SOL    HW2 9028   4.027   0.898   2.857 -0.2797  0.2599  1.0691
  660SOL     OW 9029   9.486   0.531   7.973  0.0476 -0.3079  0.2560
  660SOL    HW1 9030   9.452   0.598   8.032 -1.6720 -0.7477 -0.1558
  660SOL    HW2 9031   9.569   0.504   8.011  1.6370  3.1627 -0.4196
  661SOL     OW 9032   1.711  11.163   4.557  0.0503 -0.6974  0.0299
  661SOL    HW1 9033   1.769  11.222   4.509  1.5015 -0.3899  2.0330
  661SOL    HW2 9034   1.715  11.080   4.509  0.8074 -0.1941 -0.8157
  662SOL     OW 9035   6.983   9.092   0.051 -0.0678 -0.3068  0.4215
  662SOL    HW1 9036   6.995   9.187   0.046 -1.6527 -0.0651  0.6282
  662SOL    HW2 9037   7.027   9.058  -0.027  0.1759  0.6405  0.1361
  663SOL     OW 9038   1.226   6.534   9.942  0.3137 -0.3913 -0.4793
  663SOL    HW1 9039   1.152   6.592   9.924  0.6768 -0.4530 -2.3273
  663SOL    HW2 9040   1.302   6.578   9.902  1.0030 -1.0914  0.0170
  664SOL     OW 9041   7.635   4.532   3.530 -0.4796  0.1713  0.1192
  664SOL    HW1 9042   7.575   4.460   3.549 -0.1901  0.0147  0.4542
  664SOL    HW2 9043   7.622   4.594   3.602  0.1418 -0.1125  0.4815
  665SOL     OW 9044   5.062  11.148   9.482  0.0837  0.5794 -0.1028
  665SOL    HW1 9045   4.969  11.125   9.474  0.1839 -1.0376  2.2776
  665SOL    HW2 9046   5.106  11.095   9.415 -0.6385  0.9864 -0.9163
  666SOL     OW 9047   0.918   8.475  12.437  0.1791  0.0633  0.3123
  666SOL    HW1 9048   0.977   8.510  12.370 -0.3800  0.6880  0.1433
  666SOL    HW2 9049   0.839   8.528  12.430  0.9476  1.7481  3.0479
  667SOL     OW 9050  10.797   7.635   7.615  0.3528  0.2861 -0.1394
  667SOL    HW1 9051  10.838   7.703   7.561 -0.3064  0.6369 -0.1991
  667SOL    HW2 9052  10.708   7.665   7.630 -0.6222 -1.4942 -1.8371
  668SOL     OW 9053   6.095  10.495   1.580 -0.2707 -0.5233 -0.4337
  668SOL    HW1 9054   6.177  10.485   1.629 -0.4751 -2.3131 -0.3792
  668SOL    HW2 9055   6.041  10.422   1.609 -1.2415 -0.3557 -1.7291
  669SOL     OW 9056   7.357  11.364  11.355 -0.5683  0.6171 -0.5520
  669SOL    HW1 9057   7.395  11.444  11.318  1.3572 -0.2836 -0.6261
  669SOL    HW2 9058   7.393  11.360  11.444 -1.0835  0.1126 -0.3645
  670SOL     OW 9059   4.564   0.198   1.865 -0.4330  0.5364  0.5412
  670SOL    HW1 9060   4.616   0.278   1.873  1.0838 -0.2574 -0.6992
  670SOL    HW2 9061   4.607   0.135   1.922 -0.5699  0.1173  0.1897
  671SOL     OW 9062   8.162   8.957  11.735  0.0796 -0.1630  0.1475
  671SOL    HW1 9063   8.140   8.896  11.806 -2.8482  1.2130  0.5727
  671SOL    HW2 9064   8.174   9.041  11.778 -0.8574  0.5153 -0.8601
  672SOL     OW 9065   0.020  11.407   4.455  0.0149  0.2577  0.3634
  672SOL    HW1 9066   0.029  11.316   4.427  3.3009  0.0310  1.7006
  672SOL    HW2 9067   0.072  11.456   4.391  1.8276  0.5677  1.9808
  673SOL     OW 9068   5.205   9.081   9.094  0.7651 -0.9160  0.1336
  673SOL    HW1 9069   5.230   9.031   9.016  0.8905 -0.2029 -0.2866
  673SOL    HW2 9070   5.257   9.161   9.090 -0.0695 -0.3409  0.3268
  674SOL     OW 9071  10.889   9.257  10.221 -0.2575 -0.3180 -0.4404
  674SOL    HW1 9072  10.801   9.232  10.195 -0.8907  2.1990 -0.9860
  674SOL    HW2 9073  10.888   9.254  10.316  0.4625 -4.4333 -0.3970
  675SOL     OW 9074   1.713  11.611   2.645  0.0103  0.2966 -0.2377
  675SOL    HW1 9075   1.698  11.533   2.699 -1.5211  0.5938 -0.1859
  675SOL    HW2 9076   1.773  11.665   2.697 -0.9967  0.3314  0.9504
  676SOL     OW 9077   2.927  12.253   5.504  0.3083  0.2548 -0.3872
  676SOL    HW1 9078   2.845  12.299   5.522  0.0971  0.5520 -1.9723
  676SOL    HW2 9079   2.950  12.212   5.587  0.1981  2.7168  0.9765
  677SOL     OW 9080   9.473  12.288   4.036  0.7309 -0.0227 -0.5691
  677SOL    HW1 9081   9.551  12.334   4.005 -0.1047  2.1287  0.3296
  677SOL    HW2 9082   9.507  12.224   4.098  1.9901 -1.1455 -2.3100
  678SOL     OW 9083  10.814   8.998   9.411  0.2674  0.7388  0.0142
  678SOL    HW1 9084  10.747   9.057   9.378  0.4118  0.2482 -1.1922
  678SOL    HW2 9085  10.769   8.946   9.478 -1.3100 -1.2930 -2.4735
  679SOL     OW 9086  12.210   0.476  12.584  0.3473 -0.3131 -0.6511
  679SOL    HW1 9087  12.279   0.506  12.524 -0.8736 -0.1649 -2.0308
  679SOL    HW2 9088  12.172   0.557  12.619  0.1619 -0.3766 -0.7081
  680SOL     OW 9089   6.752   1.321  10.641  0.3859  0.2926  0.0841
  680SOL    HW1 9090   6.720   1.410  10.657  0.2324 -0.0270  1.7381
  680SOL    HW2 9091   6.818   1.332  10.572 -1.0844  1.3705 -1.2458
  681SOL     OW 9092   3.656   7.545   4.512 -0.3425  0.1070 -0.2284
  681SOL    HW1 9093   3.582   7.488   4.533 -0.4094  0.4263  0.4154
  681SOL    HW2 9094   3.649   7.618   4.573  1.5183 -0.7334  1.1005
  682SOL     OW 9095   7.911   6.315   5.860 -0.0935  0.1882  0.4307
  682SOL    HW1 9096   7.923   6.239   5.803  1.4198  1.0768 -0.5216
  682SOL    HW2 9097   7.956   6.293   5.941 -1.2620 -0.6257  0.8919
  683SOL     OW 9098   9.953  11.793   5.908 -0.1936 -0.0001 -0.2794
  683SOL    HW1 9099  10.009  11.860   5.948  0.9290  1.0868 -3.3896
  683SOL    HW2 9100  10.010  11.718   5.895 -0.6529 -0.4885  0.4377
  684SOL     OW 9101   3.146   8.502   4.927  0.4572  0.3342  0.2903
  684SOL    HW1 9102   3.086   8.565   4.966 -1.2322  0.4238 -2.2469
  684SOL    HW2 9103   3.090   8.437   4.886  2.1046 -0.0631 -1.4511
  685SOL     OW 9104   3.537   0.565   7.830  0.5969 -0.3506  0.8084
  685SOL    HW1 9105   3.459   0.561   7.885 -0.7918 -0.4849 -1.0478
  685SOL    HW2 9106   3.567   0.656   7.838 -2.6970  1.2447 -2.0880
  686SOL     OW 9107   7.942   4.255  12.169 -0.0227  0.2443 -0.5657
  686SOL    HW1 9108   7.893   4.205  12.103 -0.6155  0.5341 -0.3466
  686SOL    HW2 9109   7.897   4.339  12.174  0.1575  0.3080  0.0506
  687SOL     OW 9110   9.204  11.526   9.013 -0.0676 -0.4970  0.0083
  687SOL    HW1 9111   9.115  11.540   9.045 -0.3895 -1.2069 -0.5250
  687SOL    HW2 9112   9.261  11.553   9.085 -0.7220 -0.2713  0.4454
  688SOL     OW 9113   1.193   8.549   5.866  0.0310 -0.2720  0.6770
  688SOL    HW1 9114   1.145   8.618   5.912 -0.7981 -0.7559  0.5531
  688SOL    HW2 9115   1.127   8.504   5.814  0.6570 -0.8303  0.3491
  689SOL     OW 9116   8.507   9.148  11.425 -0.4350 -0.3302  0.3721
  689SOL    HW1 9117   8.602   9.141  11.434 -0.2771  0.0097 -0.8151
  689SOL    HW2 9118   8.482   9.211  11.493  0.2573 -0.0472  0.3848
  690SOL     OW 9119   6.598   6.145  10.304  0.0511  0.1667  0.0521
  690SOL    HW1 9120   6.605   6.181  10.393 -1.3559 -2.2621  1.2475
  690SOL    HW2 9121   6.527   6.195  10.264 -0.6149  0.0313  1.0075
  691SOL     OW 9122   3.291   7.237   6.488  0.6319  0.1749 -0.1731
  691SOL    HW1 9123   3.328   7.277   6.566  1.6591 -0.4364 -0.3209
  691SOL    HW2 9124   3.197   7.233   6.505  0.5291  2.2310  0.0150
  692SOL     OW 9125   8.391   6.201   8.794 -0.0144 -0.9048 -0.4632
  692SOL    HW1 9126   8.417   6.261   8.863 -0.9485 -0.3510 -0.5712
  692SOL    HW2 9127   8.304   6.231   8.768  0.0126 -1.5595 -1.3626
  693SOL     OW 9128  11.826   9.711   7.664  0.8476  0.1919  0.1882
  693SOL    HW1 9129  11.806   9.674   7.579  1.0456  1.5483 -0.4761
  693SOL    HW2 9130  11.884   9.647   7.706 -0.0766 -0.9627 -0.2604
  694SOL     OW 9131   1.937   2.475   2.796  0.1235  0.0656 -0.2642
  694SOL    HW1 9132   1.880   2.515   2.731 -1.1200  0.7817  1.2072
  694SOL    HW2 9133   2.006   2.432   2.745 -0.6562  0.8212 -2.0135
  695SOL     OW 9134   2.358   8.766  10.073  0.5036 -0.1152  0.4277
  695SOL    HW1 9135   2.407   8.707  10.015  1.1129  2.5352 -1.9560
  695SOL    HW2 9136   2.420   8.834  10.096 -0.5530  0.3731  1.9974
  696SOL     OW 9137   4.129   4.617   8.545  0.4908 -0.3408 -0.0982
  696SOL    HW1 9138   4.038   4.630   8.519  0.3796 -0.1433  0.3964
  696SOL    HW2 9139   4.152   4.531   8.508  0.4963  0.1567 -1.2950
  697SOL     OW 9140   5.590  12.346   1.652  0.2150 -0.3667 -0.5288
  697SOL    HW1 9141   5.578  12.278   1.718 -3.5110 -1.2600 -1.8910
  697SOL    HW2 9142   5.664  12.398   1.684 -0.4179 -1.6304  3.5228
  698SOL     OW 9143   8.273   9.748   0.477 -0.2315  0.5185 -0.6461
  698SOL    HW1 9144   8.262   9.714   0.388  0.6736 -1.3321 -0.0990
  698SOL    HW2 9145   8.312   9.834   0.465 -0.4137  0.4260 -2.0535
  699SOL     OW 9146   6.284   2.541  12.184 -0.0588  0.4750 -0.0490
  699SOL    HW1 9147   6.297   2.636  12.181  0.1208  0.4548  0.0569
  699SOL    HW2 9148   6.227   2.522  12.110 -2.0970  0.9887  1.2987
  700SOL     OW 9149   6.902  11.470   1.258 -0.6207  0.0229  0.3942
  700SOL    HW1 9150   6.972  11.459   1.322 -1.6823  0.3049  1.6754
  700SOL    HW2 9151   6.830  11.509   1.309 -2.0712 -1.2431 -0.5899
  701SOL     OW 9152  11.384  10.566   7.636 -0.4551 -0.0786 -0.3013
  701SOL    HW1 9153  11.436  10.572   7.556  0.2977 -2.4765 -0.0741
  701SOL    HW2 9154  11.328  10.644   7.634  1.9028  1.7384 -1.4204
  702SOL     OW 9155   1.424   8.383   7.233 -0.3597  0.5612 -0.0957
  702SOL    HW1 9156   1.363   8.370   7.159 -0.4011 -0.7882  0.1577
  702SOL    HW2 9157   1.461   8.470   7.217  0.2861 -0.0241 -2.1993
  703SOL     OW 9158  11.315   4.414  12.254 -0.2417  0.6171 -0.1796
  703SOL    HW1 9159  11.252   4.481  12.280  0.6328  1.5762 -0.4891
  703SOL    HW2 9160  11.395   4.462  12.233  0.8519 -0.6259  0.9318
  704SOL     OW 9161   2.252   7.548   4.619 -0.1530 -0.4071 -0.1870
  704SOL    HW1 9162   2.197   7.586   4.552 -0.4728 -1.3476 -0.4761
  704SOL    HW2 9163   2.308   7.486   4.572  1.7405  1.0927 -0.0335
  705SOL     OW 9164   9.022  10.666  11.302 -0.0534 -0.2209  0.4344
  705SOL    HW1 9165   9.001  10.631  11.216  1.3258 -0.3581  0.1352
  705SOL    HW2 9166   8.980  10.752  11.304 -0.8411 -0.5806 -0.0144
  706SOL     OW 9167   5.760  11.417   3.966  0.1600 -0.8634  0.1062
  706SOL    HW1 9168   5.729  11.333   3.932 -1.0003 -1.1105  1.7019
  706SOL    HW2 9169   5.737  11.480   3.898  0.5797 -1.7286 -0.8794
  707SOL     OW 9170   5.226  11.000   9.264  0.4016 -0.1551  0.5709
  707SOL    HW1 9171   5.285  11.048   9.206 -0.1892 -1.0059 -0.7681
  707SOL    HW2 9172   5.283  10.937   9.309  0.4860 -1.2764 -1.0422
  708SOL     OW 9173   3.546  10.390   1.938 -0.1740  0.5077  0.4303
  708SOL    HW1 9174   3.508  10.420   1.856 -1.0860 -1.3533  0.1219
  708SOL    HW2 9175   3.496  10.312   1.961  0.6413  0.4775  2.3063
  709SOL     OW 9176   8.199   7.566   1.311 -0.6295  0.5851  0.1943
  709SOL    HW1 9177   8.231   7.656   1.303 -0.1676  0.4195  0.1619
  709SOL    HW2 9178   8.233   7.536   1.396 -2.6085  1.1710  1.2674
  710SOL     OW 9179   4.178   1.869   6.110 -0.1554  0.5720  0.2717
  710SOL    HW1 9180   4.256   1.887   6.057 -1.0935  0.2617 -1.2865
  710SOL    HW2 9181   4.121   1.945   6.095 -0.5538  0.3412  0.5909
  711SOL     OW 9182   7.595  11.549   2.763 -0.1652 -0.3542  0.3018
  711SOL    HW1 9183   7.553  11.600   2.694 -0.3552 -0.9012  0.0074
  711SOL    HW2 9184   7.633  11.474   2.717 -0.7092 -0.9742  0.8590
  712SOL     OW 9185   1.676  11.210   7.461 -0.0139  0.3334 -0.1657
  712SOL    HW1 9186   1.767  11.212   7.434 -0.0201 -1.3507 -0.4478
  712SOL    HW2 9187   1.679  11.219   7.557  0.3474  1.5212 -0.2806
  713SOL     OW 9188   5.038   2.399   4.814 -0.0797 -0.4003  0.1336
  713SOL    HW1 9189   4.994   2.442   4.886  1.7246 -0.2098  1.1986
  713SOL    HW2 9190   5.021   2.454   4.737 -1.8602 -0.5030  0.4307
  714SOL     OW 9191   7.192   9.748   9.321  0.1794 -0.0808  0.0448
  714SOL    HW1 9192   7.225   9.836   9.335 -1.1902  0.7438 -1.6026
  714SOL    HW2 9193   7.217   9.700   9.401  1.3723  1.6260  0.7551
  715SOL     OW 9194   8.076  10.077   7.691  0.2989  0.3366  0.7569
  715SOL    HW1 9195   8.098  10.043   7.604  0.5718  0.3179  0.8294
  715SOL    HW2 9196   7.988  10.113   7.682  0.4181  0.5425  0.4155
  716SOL     OW 9197  12.021   5.788   2.606  0.0358  0.5216  0.0874
  716SOL    HW1 9198  11.957   5.797   2.677  0.3325  0.0429  0.4235
  716SOL    HW2 9199  12.032   5.876   2.572  0.6072  0.9302  1.2681
  717SOL     OW 9200   8.645   7.824   6.424  0.6516  0.0994  0.4838
  717SOL    HW1 9201   8.721   7.827   6.366  0.7203 -0.1648  0.5600
  717SOL    HW2 9202   8.574   7.860   6.371  0.6164 -0.5392  0.0836
  718SOL     OW 9203   6.759  12.525   6.831  0.1166 -0.1755 -0.1288
  718SOL    HW1 9204   6.726  12.464   6.897 -0.9761  1.1087  0.5781
  718SOL    HW2 9205   6.790  12.470   6.760  0.6843 -1.5951  1.1642
  719SOL     OW 9206   9.213   5.676   7.214  0.6143 -0.4359  0.7034
  719SOL    HW1 9207   9.129   5.630   7.213  0.8566 -0.8804  0.4605
  719SOL    HW2 9208   9.207   5.735   7.288  0.0052 -0.3186  0.5662
  720SOL     OW 9209  11.010   9.774   2.806  0.1828 -0.1886 -0.6835
  720SOL    HW1 9210  11.025   9.739   2.894  0.5451  1.5808 -0.0023
  720SOL    HW2 9211  10.915   9.777   2.797  0.1351 -1.7456 -0.9530
  721SOL     OW 9212   4.086   7.593   1.259  0.1173  0.0171 -0.0659
  721SOL    HW1 9213   4.160   7.635   1.304 -0.1534 -0.0647  0.4661
  721SOL    HW2 9214   4.095   7.621   1.168 -0.4420  1.7984  0.3888
  722SOL     OW 9215  10.491   7.580   8.720  0.4284 -0.0063 -0.1275
  722SOL    HW1 9216  10.409   7.629   8.727  0.6470  0.3041  0.3131
  722SOL    HW2 9217  10.559   7.641   8.750  0.5210 -1.0972  2.1905
  723SOL     OW 9218   8.955   4.706   0.999 -0.3051  0.6973  0.6967
  723SOL    HW1 9219   8.971   4.691   0.906 -1.9337  0.9979  0.3428
  723SOL    HW2 9220   8.948   4.619   1.037 -0.4494  0.5740  0.3872
  724SOL     OW 9221   1.371   7.683   8.760 -0.4505  0.1572  0.2251
  724SOL    HW1 9222   1.311   7.651   8.693  0.6896  0.9185 -1.1947
  724SOL    HW2 9223   1.458   7.677   8.721  0.3035  0.2551  1.7839
  725SOL     OW 9224  10.509   8.077   2.044 -0.0365  0.3543  0.0586
  725SOL    HW1 9225  10.587   8.097   1.992 -0.7633  0.1529 -1.1687
  725SOL    HW2 9226  10.521   7.987   2.072  0.8811  0.8189  1.2254
  726SOL     OW 9227   2.729   0.531   2.122  0.5388 -0.0541  0.0160
  726SOL    HW1 9228   2.769   0.606   2.078  1.2941 -0.0541  0.6831
  726SOL    HW2 9229   2.715   0.467   2.053  0.2016  0.5631 -0.4998
  727SOL     OW 9230  11.631   6.376   6.198 -0.2418  0.2926  0.3459
  727SOL    HW1 9231  11.575   6.379   6.276 -0.0506 -1.3047  0.5754
  727SOL    HW2 9232  11.652   6.468   6.181 -1.2004  0.7618  1.5091
  728SOL     OW 9233   9.850   8.986   8.509  0.6114 -0.6858 -0.5146
  728SOL    HW1 9234   9.807   9.020   8.587  1.6934 -0.4814  0.0127
  728SOL    HW2 9235   9.821   8.895   8.503 -1.1701 -0.1199 -1.1209
  729SOL     OW 9236   7.327   7.483   4.947  0.3023 -0.6364  0.5685
  729SOL    HW1 9237   7.234   7.493   4.966  0.5178 -0.0325  1.4210
  729SOL    HW2 9238   7.340   7.528   4.864  0.1774  1.0978  1.4471
  730SOL     OW 9239   6.863   4.716   4.473 -0.6855 -0.2963 -0.3690
  730SOL    HW1 9240   6.790   4.753   4.424 -0.5669 -0.3895 -0.6126
  730SOL    HW2 9241   6.936   4.713   4.411  0.1179  1.6757  0.3989
  731SOL     OW 9242   9.247   7.370  10.707  0.2724 -0.3911 -0.7620
  731SOL    HW1 9243   9.300   7.309  10.656  0.9954 -0.3335 -0.1110
  731SOL    HW2 9244   9.308   7.440  10.730  0.0462 -0.5359  0.3680
  732SOL     OW 9245   5.227  10.422   0.180  0.2443  0.4756  0.1817
  732SOL    HW1 9246   5.311  10.420   0.133  0.1132  0.1612 -0.0467
  732SOL    HW2 9247   5.251  10.442   0.271  1.0392 -3.5138  1.0334
  733SOL     OW 9248   4.784   7.122  11.970  0.3861 -0.4657 -0.5343
  733SOL    HW1 9249   4.733   7.166  12.038 -0.4808 -0.0687 -1.4211
  733SOL    HW2 9250   4.874   7.151  11.985  0.3681 -1.1313  1.0201
  734SOL     OW 9251   5.964  10.834   5.690  0.1730  0.0790 -0.3295
  734SOL    HW1 9252   6.047  10.882   5.685  0.2660 -0.1577 -1.2211
  734SOL    HW2 9253   5.975  10.776   5.765  0.6638  0.3298 -0.2005
  735SOL     OW 9254   7.663   9.486   8.942  0.0975 -0.5768  0.1436
  735SOL    HW1 9255   7.691   9.509   8.853  0.8904  2.0461  0.9853
  735SOL    HW2 9256   7.637   9.393   8.936 -0.3354 -0.3643 -2.9045
  736SOL     OW 9257   1.674   7.123   2.043 -0.1484 -0.3200 -0.0345
  736SOL    HW1 9258   1.710   7.180   2.111  1.4757 -0.5026 -0.7090
  736SOL    HW2 9259   1.653   7.042   2.089 -0.6908  0.1485  0.5681
  737SOL     OW 9260  12.357   2.335   1.840 -0.1446  0.3193 -0.6184
  737SOL    HW1 9261  12.327   2.362   1.927  1.8910  1.2673 -0.1464
  737SOL    HW2 9262  12.439   2.382   1.827  0.7058 -1.4413 -2.1558
  738SOL     OW 9263   5.358  11.694   6.606 -0.7068  0.2705 -0.1002
  738SOL    HW1 9264   5.407  11.772   6.633  1.9369 -1.1786 -0.4724
  738SOL    HW2 9265   5.318  11.662   6.687 -0.7677  1.2551  0.2849
  739SOL     OW 9266   8.447   6.853   4.213  0.4460 -0.1892 -0.0358
  739SOL    HW1 9267   8.443   6.759   4.192  0.2006  0.3625 -2.8167
  739SOL    HW2 9268   8.359   6.874   4.246  0.5244 -0.9156  0.6838
  740SOL     OW 9269   7.585  11.151   8.129  0.6645  0.0321  0.1335
  740SOL    HW1 9270   7.576  11.199   8.047 -3.0991  0.3694  0.5878
  740SOL    HW2 9271   7.554  11.212   8.196 -0.4027 -1.6218  1.2198
  741SOL     OW 9272   2.627   8.682   9.743 -0.2501  0.5236  0.4352
  741SOL    HW1 9273   2.586   8.654   9.661  1.3969 -1.9992  0.3723
  741SOL    HW2 9274   2.558   8.673   9.809 -1.1848  1.2341 -0.4103
  742SOL     OW 9275   2.017   7.657   0.645 -0.0922  0.0512  0.3851
  742SOL    HW1 9276   2.078   7.616   0.583 -0.8787 -0.9956  0.2805
  742SOL    HW2 9277   2.024   7.751   0.627 -0.1022 -0.2101 -1.0883
  743SOL     OW 9278   8.885   4.375   3.391  0.2257  0.2970  0.1560
  743SOL    HW1 9279   8.812   4.315   3.374  1.1025 -1.3418  1.7801
  743SOL    HW2 9280   8.851   4.462   3.369 -2.4818 -0.3181  1.5224
  744SOL     OW 9281  10.695   9.090   0.074 -0.1917  0.2169  0.2291
  744SOL    HW1 9282  10.743   9.142   0.138 -0.4803  2.3996 -1.2269
  744SOL    HW2 9283  10.603   9.098   0.101 -0.1218 -0.7466  0.7995
  745SOL     OW 9284   4.714   8.092   9.610 -0.0083 -0.2490 -0.2356
  745SOL    HW1 9285   4.669   8.117   9.691  1.4778 -0.2150  0.6198
  745SOL    HW2 9286   4.676   8.149   9.543  0.4247  1.4883  0.9134
  746SOL     OW 9287   5.680  10.313   7.095  0.1522 -0.1527 -0.3131
  746SOL    HW1 9288   5.595  10.285   7.129  0.0591 -0.2508 -0.6186
  746SOL    HW2 9289   5.699  10.393   7.142  0.1383 -0.4123  0.1383
  747SOL     OW 9290   2.491   7.223   3.182 -0.5922  0.5041  0.0088
  747SOL    HW1 9291   2.467   7.302   3.134  1.1112  1.0075 -0.0738
  747SOL    HW2 9292   2.573   7.193   3.141 -1.4600 -1.6316 -0.3171
  748SOL     OW 9293  11.486   5.868   0.501 -0.2571 -0.0701  0.6447
  748SOL    HW1 9294  11.526   5.903   0.581 -0.3779 -0.1533  0.7410
  748SOL    HW2 9295  11.410   5.819   0.531 -1.8393  2.0695  0.2846
  749SOL     OW 9296   9.084   5.170   7.744 -0.2496 -0.2966 -0.0588
  749SOL    HW1 9297   9.055   5.080   7.754  0.9412 -0.6836  0.0101
  749SOL    HW2 9298   9.142   5.169   7.668 -0.6513  0.5302 -0.3949
  750SOL     OW 9299  12.280  11.333  11.501  0.0538 -0.4937  0.3321
  750SOL    HW1 9300  12.310  11.409  11.551 -0.2067 -0.5995  0.6520
  750SOL    HW2 9301  12.360  11.292  11.469  0.2310 -0.4864  0.7575
  751SOL     OW 9302  12.201   5.053  11.745 -0.0312 -0.0409  0.2023
  751SOL    HW1 9303  12.229   4.961  11.744  0.9450  0.2525  0.1359
  751SOL    HW2 9304  12.268   5.098  11.796 -0.1854  0.7363 -0.2656
  752SOL     OW 9305   4.978   3.382   4.480 -0.4395  0.1547  0.2496
  752SOL    HW1 9306   4.919   3.453   4.503 -1.5021 -0.8221  0.5992
  752SOL    HW2 9307   4.971   3.374   4.385  1.2722  1.8538 -0.0835
  753SOL     OW 9308   4.897   1.744   4.237 -0.7975  0.3581  0.5542
  753SOL    HW1 9309   4.881   1.799   4.161 -1.8127  0.9754  1.1948
  753SOL    HW2 9310   4.987   1.765   4.264  0.4210 -1.4583 -1.7229
  754SOL     OW 9311   4.706   2.202   7.457 -0.0553  0.3269  0.4688
  754SOL    HW1 9312   4.666   2.115   7.461 -1.8806  1.0679 -0.5128
  754SOL    HW2 9313   4.674   2.247   7.536  2.0262 -0.2793  1.7463
  755SOL     OW 9314   8.574   9.037   2.052  0.0209 -0.0386 -0.4418
  755SOL    HW1 9315   8.616   8.958   2.015  0.2928  0.3392 -0.9603
  755SOL    HW2 9316   8.647   9.098   2.066 -0.3406  0.6544 -1.4204
  756SOL     OW 9317   4.056   9.544  10.205  0.7836 -0.4248 -0.3137
  756SOL    HW1 9318   4.010   9.486  10.144  0.7956  0.7254 -1.4738
  756SOL    HW2 9319   3.985   9.589  10.252  0.7581 -0.4190 -0.3579
  757SOL     OW 9320   7.620  12.249   3.873 -0.5834  1.4807  0.0475
  757SOL    HW1 9321   7.652  12.169   3.915 -0.1893  2.2494  1.2293
  757SOL    HW2 9322   7.698  12.287   3.831 -0.6752  1.5027 -0.1061
  758SOL     OW 9323   2.214   4.886   5.236 -0.6508 -0.4237  0.7821
  758SOL    HW1 9324   2.160   4.808   5.224  1.4445 -1.8470 -0.1006
  758SOL    HW2 9325   2.299   4.851   5.263  0.5501  1.4948 -0.3441
  759SOL     OW 9326   0.074   7.039   3.611  0.3693 -0.1730  0.4184
  759SOL    HW1 9327   0.030   7.084   3.540  0.5613 -0.2382  0.2578
  759SOL    HW2 9328   0.032   7.072   3.691 -1.7318 -2.0463  0.2043
  760SOL     OW 9329  10.047   4.567   2.993  0.4436  0.3647  0.2407
  760SOL    HW1 9330   9.970   4.551   2.938  0.4836 -2.4352  0.8509
  760SOL    HW2 9331  10.012   4.586   3.080  0.3349 -2.3178  0.8662
  761SOL     OW 9332   8.019   7.032   0.597  0.5852 -0.4989  0.1598
  761SOL    HW1 9333   7.961   6.973   0.644 -0.0938 -0.1975 -0.2766
  761SOL    HW2 9334   8.058   6.978   0.528 -0.3646 -0.3630 -0.5114
  762SOL     OW 9335   3.764   4.247   1.550 -0.5131  0.2811  0.7110
  762SOL    HW1 9336   3.749   4.340   1.533 -0.1769  0.3540  0.7990
  762SOL    HW2 9337   3.829   4.246   1.621  1.2227  0.0017 -0.8031
  763SOL     OW 9338   8.936   4.324  10.211  0.2508 -0.4040  0.4710
  763SOL    HW1 9339   8.906   4.234  10.198  1.5602 -1.0915  1.9327
  763SOL    HW2 9340   8.860   4.369  10.250 -0.8830 -0.4462 -1.5350
  764SOL     OW 9341  10.412  12.424  12.094  0.2784  0.4221 -0.4847
  764SOL    HW1 9342  10.376  12.399  12.008 -1.1368 -0.0922  0.2108
  764SOL    HW2 9343  10.340  12.407  12.155  1.9249 -1.3421  1.1338
  765SOL     OW 9344   9.386   9.170   9.830  0.0039 -0.0065  0.6770
  765SOL    HW1 9345   9.458   9.187   9.891 -0.3077  0.6869  0.8537
  765SOL    HW2 9346   9.312   9.220   9.864  0.3046  1.9193 -1.2517
  766SOL     OW 9347  11.120   5.594   3.692 -0.2178  0.1088 -0.1009
  766SOL    HW1 9348  11.049   5.648   3.659 -3.5099 -1.0945  4.1155
  766SOL    HW2 9349  11.107   5.508   3.650 -0.5025  0.2232 -0.2478
  767SOL     OW 9350   0.870   0.869   8.038 -0.2416  0.5203 -0.1054
  767SOL    HW1 9351   0.937   0.869   7.970 -1.5723  1.7862 -1.4881
  767SOL    HW2 9352   0.801   0.812   8.004 -0.7175  0.7808  0.3981
  768SOL     OW 9353   6.882   5.203   1.193  0.2252 -0.1065  1.0734
  768SOL    HW1 9354   6.954   5.208   1.256  1.8127  2.4606 -0.7324
  768SOL    HW2 9355   6.811   5.251   1.234  0.6534  0.0628  1.6240
  769SOL     OW 9356   8.385   1.870  10.635 -0.5565  0.2657 -0.2305
  769SOL    HW1 9357   8.320   1.937  10.656 -2.0854 -1.2416  0.0344
  769SOL    HW2 9358   8.340   1.809  10.577  1.4979  0.6096 -2.3460
  770SOL     OW 9359  12.375   2.298  10.334 -0.2706 -0.5090  1.0345
  770SOL    HW1 9360  12.420   2.382  10.337 -2.4118  0.7248  0.7025
  770SOL    HW2 9361  12.396   2.262  10.248 -1.0346  0.7384  0.2911
  771SOL     OW 9362   5.316   5.371   1.959 -0.1161  0.1734 -0.0284
  771SOL    HW1 9363   5.247   5.383   2.023 -1.7118 -1.4544 -1.3286
  771SOL    HW2 9364   5.313   5.278   1.937  1.9569  0.2081 -0.7529
  772SOL     OW 9365   1.831   8.262   2.555  0.9888  0.2984 -0.2480
  772SOL    HW1 9366   1.816   8.167   2.552  2.1687  0.1142 -1.0363
  772SOL    HW2 9367   1.914   8.274   2.510  0.2486  1.8427 -1.2734
  773SOL     OW 9368   6.455   8.652   4.470 -0.0994  0.1654  0.4917
  773SOL    HW1 9369   6.529   8.712   4.478  0.4463 -0.5446  0.9554
  773SOL    HW2 9370   6.393   8.697   4.414  1.1140  0.3810 -0.7284
  774SOL     OW 9371  10.888   8.943  10.445 -0.5488  0.0905  0.2047
  774SOL    HW1 9372  10.978   8.945  10.411 -1.0661 -0.5320 -1.3279
  774SOL    HW2 9373  10.880   9.021  10.499  1.0752 -0.1357  0.8152
  775SOL     OW 9374   7.568   8.059   4.529 -0.0306 -0.5651  0.9781
  775SOL    HW1 9375   7.635   8.001   4.494 -1.1143 -1.6492  0.6303
  775SOL    HW2 9376   7.616   8.122   4.583  1.5321  0.1130 -1.0457
  776SOL     OW 9377   6.550   1.115   3.669  0.2857  0.4441  0.2212
  776SOL    HW1 9378   6.545   1.179   3.599  0.4290 -0.7723 -0.9307
  776SOL    HW2 9379   6.459   1.103   3.697  0.0796  0.0300 -0.6053
  777SOL     OW 9380   5.188   0.098   7.550 -0.2575  0.1118 -0.1190
  777SOL    HW1 9381   5.213   0.189   7.564  1.5029 -0.3088 -0.2720
  777SOL    HW2 9382   5.167   0.093   7.457 -0.5685  0.4059 -0.0658
  778SOL     OW 9383   2.326   0.477  12.417  0.0087 -0.1987 -0.1408
  778SOL    HW1 9384   2.395   0.507  12.476 -1.7223  2.3404  0.7462
  778SOL    HW2 9385   2.335   0.532  12.340  0.5232 -1.6438 -1.1689
  779SOL     OW 9386   2.798   7.592   0.269 -0.3209 -0.2680 -0.2046
  779SOL    HW1 9387   2.709   7.614   0.240  0.4109  1.4773 -1.2951
  779SOL    HW2 9388   2.845   7.675   0.265  1.2555 -1.0687  0.8331
  780SOL     OW 9389  10.736   9.100   9.079 -0.5527 -0.5233  0.0601
  780SOL    HW1 9390  10.785   9.165   9.028 -1.3469 -0.2591 -0.3854
  780SOL    HW2 9391  10.786   9.019   9.069 -0.4160 -0.3508 -0.7338
  781SOL     OW 9392   4.710   8.741   9.306 -0.0842 -0.0153 -0.5081
  781SOL    HW1 9393   4.691   8.668   9.246  1.4840 -0.1854 -0.8381
  781SOL    HW2 9394   4.639   8.739   9.370 -1.5536 -0.1182 -2.0821
  782SOL     OW 9395   9.702  11.306   7.886 -0.5014 -0.0414 -0.1086
  782SOL    HW1 9396   9.621  11.353   7.865 -0.7489 -0.6874 -0.6639
  782SOL    HW2 9397   9.749  11.302   7.803 -0.5985 -0.9699 -0.1322
  783SOL     OW 9398  10.702  10.151   3.813 -0.8079  0.5198 -0.3929
  783SOL    HW1 9399  10.772  10.197   3.766  0.5857 -0.3426  0.7479
  783SOL    HW2 9400  10.676  10.210   3.883  0.1842  0.0617  0.3792
  784SOL     OW 9401   5.789   8.108   0.559 -0.0810  0.0872 -0.5267
  784SOL    HW1 9402   5.708   8.148   0.529 -1.0311 -0.0657  1.6028
  784SOL    HW2 9403   5.772   8.014   0.557  1.2533 -0.1813 -3.1293
  785SOL     OW 9404   3.510   1.851   2.469 -0.2611  0.5412  0.2025
  785SOL    HW1 9405   3.448   1.871   2.399 -0.4880  0.0180  0.2534
  785SOL    HW2 9406   3.459   1.801   2.533  0.9169 -2.6463 -1.1765
  786SOL     OW 9407   7.523   4.323  11.068  0.4749  0.2549 -0.1504
  786SOL    HW1 9408   7.553   4.233  11.081  1.1275  0.6113  0.9151
  786SOL    HW2 9409   7.474   4.343  11.147  1.1379  1.1568  0.0458
  787SOL     OW 9410   1.436   5.897   3.213 -0.2460 -0.1389  0.4583
  787SOL    HW1 9411   1.382   5.923   3.287 -0.7071  0.0513  0.0667
  787SOL    HW2 9412   1.420   5.803   3.203  0.6213 -0.3751  1.2364
  788SOL     OW 9413   1.748   8.116   5.163  0.0678  0.1976 -0.5057
  788SOL    HW1 9414   1.796   8.069   5.095 -0.1812 -0.5161 -0.1946
  788SOL    HW2 9415   1.736   8.052   5.233  1.7456  1.3524  0.9488
  789SOL     OW 9416  11.149   7.788   9.326 -0.1481 -0.4891  0.3335
  789SOL    HW1 9417  11.126   7.721   9.262 -0.5956 -0.3042  0.2991
  789SOL    HW2 9418  11.081   7.854   9.317  0.6518  0.3093 -0.1238
  790SOL     OW 9419   8.327   4.083   3.635 -0.3512  0.6166 -0.4927
  790SOL    HW1 9420   8.376   4.143   3.580 -0.2358  1.1099  0.1257
  790SOL    HW2 9421   8.287   4.140   3.702 -0.0649 -0.0161  0.2340
  791SOL     OW 9422   1.672   1.969   6.263 -0.3454 -0.6830  0.1925
  791SOL    HW1 9423   1.587   1.986   6.222 -0.0527 -1.0059 -0.5700
  791SOL    HW2 9424   1.732   2.030   6.220 -0.3258  0.0787  1.2666
  792SOL     OW 9425  10.104   4.270   1.642 -0.2121 -0.1851 -0.1868
  792SOL    HW1 9426  10.158   4.192   1.653  1.1156  1.0184  2.8869
  792SOL    HW2 9427  10.020   4.247   1.682 -0.9392 -1.0016 -2.0959
  793SOL     OW 9428   2.121   8.824   0.023  0.0374 -0.2183  0.1684
  793SOL    HW1 9429   2.085   8.749   0.071  0.8850 -1.1493 -0.6077
  793SOL    HW2 9430   2.160   8.879   0.091  1.2830 -1.5544  0.5835
  794SOL     OW 9431   5.079   5.353   0.528  0.0326 -0.1707  0.0835
  794SOL    HW1 9432   5.064   5.301   0.607  2.5441 -1.4171 -0.1818
  794SOL    HW2 9433   5.031   5.308   0.459 -1.0372  0.1480  0.5971
  795SOL     OW 9434   8.821   6.789   8.648  0.9619  0.2649  0.2644
  795SOL    HW1 9435   8.903   6.741   8.658  0.6424 -0.5162 -0.6377
  795SOL    HW2 9436   8.765   6.755   8.718  1.2472  0.4552  0.5894
  796SOL     OW 9437   7.878  10.768   1.680  0.1244  0.4171 -0.0338
  796SOL    HW1 9438   7.889  10.772   1.585  0.1246  1.3428 -0.0019
  796SOL    HW2 9439   7.964  10.744   1.714 -0.1874 -1.2345 -0.3389
  797SOL     OW 9440   2.636   1.253   8.313  0.2545 -0.1918  0.0943
  797SOL    HW1 9441   2.571   1.293   8.371  1.9914  1.7128  0.8680
  797SOL    HW2 9442   2.639   1.312   8.238  0.7650 -0.5069 -0.1330
  798SOL     OW 9443  10.106   7.654   7.407  0.2761  0.1950  0.2900
  798SOL    HW1 9444  10.097   7.741   7.369  0.2014 -0.2518 -0.7546
  798SOL    HW2 9445  10.193   7.654   7.448 -0.5335  1.4169  2.1158
  799SOL     OW 9446   2.505   1.999  11.673 -0.4283 -0.5884 -0.1906
  799SOL    HW1 9447   2.569   1.962  11.611  0.1042  2.2253 -1.4518
  799SOL    HW2 9448   2.478   2.081  11.633 -0.2645  1.2608  3.2089
  800SOL     OW 9449   5.274   8.531   3.405  0.0539  0.1377  0.1404
  800SOL    HW1 9450   5.266   8.446   3.448  0.1290  0.3022  0.4880
  800SOL    HW2 9451   5.337   8.579   3.459 -0.5165  0.6609  0.3606
  801SOL     OW 9452   5.782   0.408   1.860  0.2893  0.2733 -0.2453
  801SOL    HW1 9453   5.715   0.340   1.849  0.7386 -0.1470 -0.4250
  801SOL    HW2 9454   5.796   0.413   1.954 -0.1453  0.5194 -0.1872
  802SOL     OW 9455   5.977   2.049  12.441 -0.2420  0.3046  0.5597
  802SOL    HW1 9456   5.964   1.961  12.407 -0.3775 -0.3515  2.2206
  802SOL    HW2 9457   5.889   2.085  12.449 -0.2114  0.4486  0.2802
  803SOL     OW 9458   8.053   9.710  10.121 -0.0687 -0.4894  0.3766
  803SOL    HW1 9459   8.033   9.759  10.042 -1.8961 -0.0948  1.0410
  803SOL    HW2 9460   8.084   9.777  10.183  1.2288 -0.7788  0.0822
  804SOL     OW 9461   7.571   6.467   4.027  0.8731  0.2703  0.3867
  804SOL    HW1 9462   7.660   6.455   4.060  0.6735  0.2632  0.9368
  804SOL    HW2 9463   7.517   6.409   4.081  0.2847  1.6098  1.3088
  805SOL     OW 9464   3.718   0.224   4.884 -0.0207  0.5127 -0.6586
  805SOL    HW1 9465   3.636   0.274   4.889 -0.5260 -0.4569  2.3106
  805SOL    HW2 9466   3.694   0.146   4.834 -0.8543  0.3449 -0.0173
  806SOL     OW 9467   2.130   8.208   5.340 -0.5888 -0.0152 -0.3155
  806SOL    HW1 9468   2.146   8.149   5.266  0.2588 -0.3655  0.1396
  806SOL    HW2 9469   2.150   8.157   5.418 -0.4746  0.6703  0.1181
  807SOL     OW 9470   6.137  11.908   0.676  0.0530  0.0140  0.0424
  807SOL    HW1 9471   6.115  11.979   0.735  1.4652  0.4443  0.0896
  807SOL    HW2 9472   6.154  11.950   0.592 -2.5397 -0.6461 -0.9111
  808SOL     OW 9473   8.950   7.905   9.551  0.5983 -0.7914 -0.5855
  808SOL    HW1 9474   8.984   7.950   9.473  3.6522 -2.7027 -0.5051
  808SOL    HW2 9475   8.990   7.951   9.624 -0.2139 -0.6193 -0.2363
  809SOL     OW 9476   0.468   0.731   4.089  0.2929 -0.4532  0.1260
  809SOL    HW1 9477   0.415   0.797   4.044  0.8117 -0.4907 -0.5420
  809SOL    HW2 9478   0.459   0.753   4.182 -1.3144 -0.7570  0.0836
  810SOL     OW 9479   9.403   7.223   5.237 -0.0924  0.2831 -0.1105
  810SOL    HW1 9480   9.359   7.238   5.153  1.2855  3.3978 -0.4139
  810SOL    HW2 9481   9.373   7.294   5.293  1.6284  0.2773  0.8895
  811SOL     OW 9482  11.257   9.782   4.004 -0.3279  0.5114  0.3963
  811SOL    HW1 9483  11.239   9.865   3.962  0.4776 -0.1696 -1.4069
  811SOL    HW2 9484  11.351   9.785   4.025 -0.5183  0.4655  1.3017
  812SOL     OW 9485   8.295  10.564   5.738 -0.1882 -0.1664 -0.4174
  812SOL    HW1 9486   8.388  10.552   5.756  0.1740  1.7234 -0.7961
  812SOL    HW2 9487   8.253  10.561   5.824  0.3996  0.1862 -0.1105
  813SOL     OW 9488  12.012   5.263   4.411 -0.5338  0.4942  0.2468
  813SOL    HW1 9489  12.084   5.296   4.358  0.1107  0.3219  0.9927
  813SOL    HW2 9490  12.019   5.168   4.405 -0.0354  0.4553  1.1547
  814SOL     OW 9491   4.931   6.667   0.765  0.0497 -0.2300 -0.2171
  814SOL    HW1 9492   4.986   6.631   0.695 -2.0002 -3.7042 -0.2327
  814SOL    HW2 9493   4.993   6.715   0.820  2.2875 -0.1225 -2.5941
  815SOL     OW 9494   2.417   3.675   1.268 -0.0462 -0.2236  0.4829
  815SOL    HW1 9495   2.423   3.766   1.298 -0.3717 -0.2990  0.7763
  815SOL    HW2 9496   2.398   3.625   1.347 -0.3422 -0.4915  0.2419
  816SOL     OW 9497   4.568   2.396   3.394 -0.2336  0.0263 -0.2094
  816SOL    HW1 9498   4.613   2.315   3.368 -1.1396 -0.7458  0.5323
  816SOL    HW2 9499   4.623   2.434   3.462  0.4076  0.2535 -0.8515
  817SOL     OW 9500  10.567   1.425   7.154 -0.0188  0.2311  0.4246
  817SOL    HW1 9501  10.642   1.474   7.119  0.7602 -2.4101 -1.9180
  817SOL    HW2 9502  10.593   1.403   7.243  1.1932  0.8962  0.2615
  818SOL     OW 9503  10.123   3.131   3.874 -0.2623  0.0315 -0.6976
  818SOL    HW1 9504  10.115   3.061   3.809  1.1721  0.2699 -1.1879
  818SOL    HW2 9505  10.168   3.090   3.948 -2.9653 -0.5580  0.7350
  819SOL     OW 9506   8.199   8.911   7.824  0.3206  0.2662  0.1828
  819SOL    HW1 9507   8.197   8.991   7.877 -0.2424  1.1138 -1.0779
  819SOL    HW2 9508   8.194   8.840   7.888  1.6406  1.2036  1.3838
  820SOL     OW 9509   8.256  11.027   1.662  0.0247  0.0239  0.4427
  820SOL    HW1 9510   8.217  10.999   1.745 -0.9725 -0.9755 -0.3366
  820SOL    HW2 9511   8.182  11.055   1.609  0.5529 -0.1985 -0.4282
  821SOL     OW 9512   0.893   6.283   2.814  0.0898  0.4439 -0.3611
  821SOL    HW1 9513   0.897   6.296   2.720  0.7628 -0.6254 -0.5020
  821SOL    HW2 9514   0.812   6.234   2.829 -0.6398  1.6428 -0.2236
  822SOL     OW 9515   9.466   8.369   1.458  0.8364  0.2937 -0.2085
  822SOL    HW1 9516   9.547   8.420   1.449  0.1137  1.2609 -1.6350
  822SOL    HW2 9517   9.491   8.281   1.433  1.6605  0.3710  0.3026
  823SOL     OW 9518   4.673  11.246   5.517  0.2957 -0.0357  0.4615
  823SOL    HW1 9519   4.683  11.293   5.600 -0.9777 -0.0718  0.6540
  823SOL    HW2 9520   4.620  11.169   5.539 -0.9840  0.5108 -0.5598
  824SOL     OW 9521   6.545   1.767   1.898 -0.0586  0.0656  0.1896
  824SOL    HW1 9522   6.557   1.728   1.811  1.6868 -0.0454  0.4426
  824SOL    HW2 9523   6.583   1.854   1.891  0.4558 -0.0903  0.9465
  825SOL     OW 9524   7.929   6.937   4.768  0.7121 -0.6548 -0.2427
  825SOL    HW1 9525   7.923   6.850   4.808 -1.0750 -1.1892 -1.4977
  825SOL    HW2 9526   7.927   6.998   4.842 -0.4615 -1.6489  0.6001
  826SOL     OW 9527   6.293   8.931   5.627  1.0427 -0.3765 -0.0284
  826SOL    HW1 9528   6.281   8.955   5.719  2.7130  2.3828 -0.4160
  826SOL    HW2 9529   6.288   9.013   5.580  3.3035 -1.2771 -2.0406
  827SOL     OW 9530   8.918   7.502   8.925  0.4558  0.0386  0.4115
  827SOL    HW1 9531   8.945   7.516   8.834  0.5475 -3.4163 -0.2135
  827SOL    HW2 9532   8.824   7.520   8.924  0.6502  1.1189 -0.0756
  828SOL     OW 9533   9.707  11.970  10.464  0.4451 -0.1880  0.3763
  828SOL    HW1 9534   9.729  11.975  10.371  0.7633 -0.7749  0.4161
  828SOL    HW2 9535   9.619  11.933  10.466  0.2237  0.3188  0.2949
  829SOL     OW 9536   8.236   8.150  12.412 -0.4406  0.2544  0.3534
  829SOL    HW1 9537   8.184   8.116  12.484  0.7215 -0.2972  0.9722
  829SOL    HW2 9538   8.261   8.238  12.438  1.6237 -0.6174  1.6089
  830SOL     OW 9539   7.847   4.519   5.580 -0.1110 -0.3146 -0.6695
  830SOL    HW1 9540   7.833   4.425   5.573 -2.3761 -0.0224 -0.6428
  830SOL    HW2 9541   7.812   4.555   5.498 -0.5417  0.6161 -0.0966
  831SOL     OW 9542  10.591   3.323   3.731 -0.0731  0.4112 -0.2640
  831SOL    HW1 9543  10.684   3.301   3.730  0.2799  1.8663 -0.7784
  831SOL    HW2 9544  10.576   3.362   3.818 -0.3922 -0.5101  0.1111
  832SOL     OW 9545   7.940  11.934   1.911 -0.3559 -0.1002  0.1413
  832SOL    HW1 9546   7.944  11.993   1.836 -1.6730 -1.2769 -0.9114
  832SOL    HW2 9547   7.855  11.953   1.952 -0.5631 -0.9055  0.0907
  833SOL     OW 9548   2.752   3.060   0.217 -0.2561  0.6940 -0.8935
  833SOL    HW1 9549   2.846   3.052   0.201 -0.2380 -0.6242 -0.2863
  833SOL    HW2 9550   2.712   3.017   0.141 -0.2958 -0.6008 -0.1696
  834SOL     OW 9551   0.035   6.622   4.241 -0.3095 -0.8785 -0.0238
  834SOL    HW1 9552  -0.038   6.667   4.284 -0.6050 -0.4543 -0.9397
  834SOL    HW2 9553   0.069   6.686   4.178  0.9852 -1.0016  0.5083
  835SOL     OW 9554   2.350   4.526   9.527 -0.1260 -0.2986 -0.3120
  835SOL    HW1 9555   2.287   4.497   9.593  1.0038  0.2626  1.0803
  835SOL    HW2 9556   2.422   4.463   9.532  0.2866  0.1461 -0.4887
  836SOL     OW 9557   3.309   2.689   0.878 -0.0016 -0.0262 -0.3450
  836SOL    HW1 9558   3.228   2.697   0.827  1.0012 -1.7373 -2.3419
  836SOL    HW2 9559   3.321   2.595   0.890  3.0278 -0.0712 -2.5101
  837SOL     OW 9560   6.840   7.873   3.869  0.3996  0.6801  0.0924
  837SOL    HW1 9561   6.828   7.786   3.830 -1.9759  1.0061 -0.1021
  837SOL    HW2 9562   6.818   7.862   3.961 -0.9638  1.2213 -0.1355
  838SOL     OW 9563   6.839   2.549   1.872  0.1483  0.2243 -0.1783
  838SOL    HW1 9564   6.790   2.546   1.955  0.3978  0.7005 -0.0129
  838SOL    HW2 9565   6.782   2.597   1.813 -0.3420 -0.7205 -0.4987
  839SOL     OW 9566   2.841   6.620   7.800  0.3962 -0.2704 -0.2956
  839SOL    HW1 9567   2.821   6.711   7.821  3.4404  0.5816 -0.5390
  839SOL    HW2 9568   2.817   6.611   7.708 -1.7035 -0.3431  0.2216
  840SOL     OW 9569   1.583  12.423  10.820  0.7147  0.2096 -0.0698
  840SOL    HW1 9570   1.594  12.505  10.867  1.4719 -0.0385  0.1873
  840SOL    HW2 9571   1.590  12.447  10.727  0.6920  0.4663 -0.0045
  841SOL     OW 9572   3.992   6.841   5.691 -0.1331  0.2156 -0.0679
  841SOL    HW1 9573   4.060   6.822   5.626 -0.9048 -1.0720 -0.5388
  841SOL    HW2 9574   3.983   6.936   5.689  2.3399  0.5595  0.7403
  842SOL     OW 9575  11.483   5.374   7.988 -0.0579 -0.4778 -0.0488
  842SOL    HW1 9576  11.477   5.291   8.036  0.5627 -0.2607  0.4265
  842SOL    HW2 9577  11.576   5.397   7.992 -0.1960  0.1528 -0.3303
  843SOL     OW 9578   5.425  12.158   3.457  0.0601  0.3215 -0.0411
  843SOL    HW1 9579   5.461  12.103   3.526 -1.2295  0.3865  0.7108
  843SOL    HW2 9580   5.462  12.245   3.473  0.0965  0.2400  0.3172
  844SOL     OW 9581   5.921   8.042   2.978  0.6171  0.3027  0.4892
  844SOL    HW1 9582   5.934   8.113   3.042  1.6400  0.6383 -0.0720
  844SOL    HW2 9583   5.961   8.074   2.898 -1.2358  0.1475 -0.5405
  845SOL     OW 9584   3.099   6.824   1.788  0.4813  0.4985 -0.4084
  845SOL    HW1 9585   3.147   6.765   1.846  0.9737  0.5376 -0.7681
  845SOL    HW2 9586   3.088   6.904   1.840  2.3048  1.1039 -0.8918
  846SOL     OW 9587   6.872  10.920   4.271 -0.0601 -0.0094 -0.1153
  846SOL    HW1 9588   6.967  10.907   4.275 -0.2454 -1.2601  0.6471
  846SOL    HW2 9589   6.850  10.910   4.178  0.5521  0.3263 -0.3013
  847SOL     OW 9590  11.788   4.205   2.659  0.0516  0.3321  0.1329
  847SOL    HW1 9591  11.773   4.285   2.609  1.8578  1.2221  0.9368
  847SOL    HW2 9592  11.763   4.135   2.599 -0.5956  1.4563 -0.9620
  848SOL     OW 9593   0.402   0.823   9.316 -0.8682 -0.0487  0.5074
  848SOL    HW1 9594   0.362   0.743   9.350 -0.8054  1.1908  3.9011
  848SOL    HW2 9595   0.488   0.796   9.284 -1.0869 -1.4303  1.0407
  849SOL     OW 9596   5.184  12.016  11.547 -0.1951  0.5215 -0.0711
  849SOL    HW1 9597   5.096  12.019  11.509 -1.0278 -0.9829  1.5835
  849SOL    HW2 9598   5.170  11.987  11.637  2.0811 -0.6698 -0.0299
  850SOL     OW 9599   4.527   4.602   0.971  0.2089  0.2512  0.1009
  850SOL    HW1 9600   4.534   4.518   0.927  0.2648  0.7182 -0.8120
  850SOL    HW2 9601   4.436   4.628   0.960  0.1509  0.2359  0.5283
  851SOL     OW 9602   0.744   2.950  11.771  0.0179  0.4035 -0.1666
  851SOL    HW1 9603   0.755   3.045  11.771  1.2445  0.2863 -1.2257
  851SOL    HW2 9604   0.686   2.932  11.697 -1.2451  0.3933  0.7827
  852SOL     OW 9605   4.603   0.824   2.380 -0.2106 -0.1451  0.7309
  852SOL    HW1 9606   4.631   0.891   2.317  0.9015  0.9531  2.3086
  852SOL    HW2 9607   4.658   0.839   2.457 -0.3074 -2.5715  1.3526
  853SOL     OW 9608   6.147   5.219   4.494 -0.0433 -0.2150 -0.2217
  853SOL    HW1 9609   6.132   5.194   4.403  0.5490 -1.3849 -0.0197
  853SOL    HW2 9610   6.213   5.288   4.490  0.8145 -1.0415 -0.6260
  854SOL     OW 9611   2.382   9.127   1.992  0.1519  0.0623  0.1102
  854SOL    HW1 9612   2.327   9.203   2.011 -1.1028 -1.0621  1.2181
  854SOL    HW2 9613   2.377   9.117   1.897 -0.0094  1.0990  0.0009
  855SOL     OW 9614   9.988   2.109   7.061 -0.1143  0.6597 -0.3560
  855SOL    HW1 9615  10.048   2.077   7.128  0.4462 -0.0751 -1.1867
  855SOL    HW2 9616   9.906   2.063   7.079  0.6908 -1.3881 -1.5660
  856SOL     OW 9617   3.518   9.653   8.979 -0.1942 -0.1475  0.1054
  856SOL    HW1 9618   3.551   9.665   9.068  0.8796  1.2990 -0.4304
  856SOL    HW2 9619   3.595   9.668   8.923 -0.5755 -2.1660 -1.0439
  857SOL     OW 9620   7.125   1.480   7.417  0.3177 -0.2137 -0.1059
  857SOL    HW1 9621   7.188   1.408   7.413  1.9335  1.0635  0.8877
  857SOL    HW2 9622   7.044   1.439   7.448  0.5530 -1.9264 -1.5280
  858SOL     OW 9623   8.116   2.664   4.305  0.1225  0.3363 -0.0503
  858SOL    HW1 9624   8.088   2.573   4.313  0.0725  0.3377 -0.2084
  858SOL    HW2 9625   8.212   2.661   4.311  0.1213  0.2728 -0.0661
  859SOL     OW 9626   5.110  12.310  12.373 -0.3959 -0.1656  0.5514
  859SOL    HW1 9627   5.044  12.241  12.372  0.5295 -1.0680  0.2405
  859SOL    HW2 9628   5.113  12.343  12.283 -1.2068  0.6669  0.8099
  860SOL     OW 9629   4.428  12.081   0.457  0.7980 -0.0895 -0.1125
  860SOL    HW1 9630   4.427  12.173   0.428  1.0169 -0.3422 -0.9448
  860SOL    HW2 9631   4.340  12.067   0.493  0.1745 -0.0230 -1.5366
  861SOL     OW 9632   8.720  10.154   9.278  0.2826  0.0083  0.1010
  861SOL    HW1 9633   8.694  10.063   9.260 -0.9632  0.6762 -1.7176
  861SOL    HW2 9634   8.638  10.201   9.285  0.9143  1.4424 -1.5342
  862SOL     OW 9635  11.365   5.611   2.204 -0.6134 -0.2515  0.0418
  862SOL    HW1 9636  11.428   5.659   2.152 -1.7636 -0.3378 -1.4973
  862SOL    HW2 9637  11.335   5.673   2.271 -0.1002  0.2883 -0.2309
  863SOL     OW 9638  11.773  10.971   6.568  0.4383 -0.1303 -0.1489
  863SOL    HW1 9639  11.836  10.973   6.640 -0.5587 -1.5271  0.8067
  863SOL    HW2 9640  11.787  10.886   6.526  1.7893  1.1065 -2.3889
  864SOL     OW 9641  11.779   9.915  12.275  0.4409  0.6646 -0.8300
  864SOL    HW1 9642  11.735   9.831  12.265 -2.1546  1.6459  1.1613
  864SOL    HW2 9643  11.839   9.903  12.348  0.6861  0.3384 -1.0829
  865SOL     OW 9644   0.512   2.596   0.798  0.4758 -0.2161  0.1091
  865SOL    HW1 9645   0.534   2.526   0.858  0.4006  0.0667  0.4689
  865SOL    HW2 9646   0.471   2.552   0.723  0.7848 -0.5882  0.1554
  866SOL     OW 9647   7.188  12.591   9.206  0.1087  0.8858 -0.0096
  866SOL    HW1 9648   7.248  12.654   9.165  1.0917 -0.6111 -0.9668
  866SOL    HW2 9649   7.233  12.562   9.285  0.0948  0.6847 -0.0745
  867SOL     OW 9650  10.884  12.197   7.878  0.9983 -0.5418  0.4657
  867SOL    HW1 9651  10.964  12.148   7.856  1.4376 -0.6828  2.1617
  867SOL    HW2 9652  10.887  12.274   7.822  1.4393 -1.3839 -0.7067
  868SOL     OW 9653   2.110   7.020  12.566  0.4153  0.5874 -0.1752
  868SOL    HW1 9654   2.132   6.963  12.492 -1.4382 -1.6745  0.8647
  868SOL    HW2 9655   2.031   7.066  12.539 -0.3605 -0.3660  0.3916
  869SOL     OW 9656   5.412  11.752   8.219 -0.4223 -0.2237  0.0018
  869SOL    HW1 9657   5.417  11.661   8.248 -2.5445 -0.1070  0.9136
  869SOL    HW2 9658   5.453  11.802   8.291  2.6988 -0.4887 -1.4090
  870SOL     OW 9659   4.675   7.987   1.809  0.2189 -0.3846 -0.2147
  870SOL    HW1 9660   4.629   8.005   1.891 -0.3355 -3.1729  0.1794
  870SOL    HW2 9661   4.767   8.006   1.829 -0.1591  0.9411  0.3780
  871SOL     OW 9662  11.263  10.214   6.449  0.2197 -0.5263 -0.5079
  871SOL    HW1 9663  11.181  10.240   6.491 -1.6602  0.8995 -4.5601
  871SOL    HW2 9664  11.268  10.120   6.463 -0.1092 -0.1577  2.8618
  872SOL     OW 9665   0.376   2.432   4.870 -0.4289 -0.1095 -0.4250
  872SOL    HW1 9666   0.289   2.412   4.906 -0.3708  1.2716  0.5474
  872SOL    HW2 9667   0.435   2.371   4.914 -0.7481 -0.3236 -0.2843
  873SOL     OW 9668  11.749   0.112   7.870 -0.4504  0.2068  0.4235
  873SOL    HW1 9669  11.815   0.103   7.801 -1.0859 -0.1437 -0.1500
  873SOL    HW2 9670  11.665   0.106   7.824 -0.8862 -0.3725  1.2614
  874SOL     OW 9671   2.861   2.504  11.382  0.2051  0.2103  1.0520
  874SOL    HW1 9672   2.793   2.459  11.331  0.1743 -0.3653  1.5906
  874SOL    HW2 9673   2.936   2.444  11.379  0.7792  0.9354  0.2815
  875SOL     OW 9674   6.123   4.025   0.481  0.7434 -0.3240 -0.2061
  875SOL    HW1 9675   6.192   4.091   0.475 -0.1305  0.4908 -1.9069
  875SOL    HW2 9676   6.065   4.058   0.550 -0.1117  1.1571 -1.5687
  876SOL     OW 9677   6.503   3.266  10.516  0.2384  0.1007 -0.4062
  876SOL    HW1 9678   6.595   3.273  10.540 -0.1122 -0.3315  1.1661
  876SOL    HW2 9679   6.471   3.190  10.564 -0.8170 -0.0928 -1.3708
  877SOL     OW 9680   6.711  10.690   1.191  0.0362 -0.0371  0.1017
  877SOL    HW1 9681   6.771  10.764   1.204 -1.1781  1.0004 -0.0763
  877SOL    HW2 9682   6.649  10.696   1.263 -0.5474 -0.4173 -0.3647
  878SOL     OW 9683   9.889   7.742   4.612 -0.2812 -0.0066 -0.5198
  878SOL    HW1 9684   9.800   7.777   4.617 -0.2453 -0.0855  1.2665
  878SOL    HW2 9685   9.900   7.718   4.520 -2.9058 -2.0528 -0.4259
  879SOL     OW 9686   4.668   2.856   3.458 -0.0758  0.0022 -0.3325
  879SOL    HW1 9687   4.749   2.820   3.494 -0.2041  1.7116  1.8797
  879SOL    HW2 9688   4.633   2.786   3.403  1.0768 -2.1437  1.5148
  880SOL     OW 9689   0.478   2.216  11.923  0.2617  0.1118  0.9067
  880SOL    HW1 9690   0.486   2.289  11.985  1.8859 -0.3235  1.2779
  880SOL    HW2 9691   0.556   2.223  11.868 -0.5353 -0.2480 -0.2963
  881SOL     OW 9692   5.006   9.559   8.956  0.0032 -0.1261 -0.3499
  881SOL    HW1 9693   5.018   9.499   8.882  0.0205 -1.6803  0.8553
  881SOL    HW2 9694   5.016   9.646   8.918  2.4023 -0.9231 -1.7407
  882SOL     OW 9695   4.278   6.883   1.218  0.9308  0.9177  0.0007
  882SOL    HW1 9696   4.195   6.921   1.248  0.7840  0.2084  0.5036
  882SOL    HW2 9697   4.295   6.811   1.278  0.6680 -0.5123 -1.5917
  883SOL     OW 9698   3.972   3.681   6.499 -0.0510 -0.2183 -0.3598
  883SOL    HW1 9699   3.897   3.738   6.478  0.5902 -0.0808 -2.4976
  883SOL    HW2 9700   4.021   3.731   6.564 -0.9781  0.4156 -0.1182
  884SOL     OW 9701   8.125   4.866   5.396  0.1997 -0.3088  0.4023
  884SOL    HW1 9702   8.174   4.813   5.458  0.1546 -0.3118  0.4353
  884SOL    HW2 9703   8.122   4.953   5.437 -3.6345 -1.2431  2.6303
  885SOL     OW 9704  11.397   4.976   5.814  0.2402 -0.2690  0.4359
  885SOL    HW1 9705  11.378   5.052   5.758 -0.7042  0.1147  1.2429
  885SOL    HW2 9706  11.489   4.986   5.837  0.6931 -0.5175 -1.1589
  886SOL     OW 9707   7.585  10.411   3.606  0.0169 -0.4550 -0.1098
  886SOL    HW1 9708   7.576  10.488   3.550  2.0593  0.4029  0.6386
  886SOL    HW2 9709   7.528  10.428   3.681 -0.9153 -0.5209 -0.7908
  887SOL     OW 9710   8.233   3.056   9.901  0.4331 -0.0169 -0.2831
  887SOL    HW1 9711   8.272   2.986   9.954  0.4806  0.1705 -0.0664
  887SOL    HW2 9712   8.257   3.137   9.947  1.5728  0.2452 -1.2954
  888SOL     OW 9713   9.605   2.161  12.064 -0.3847  0.2655 -0.3974
  888SOL    HW1 9714   9.588   2.237  12.120  0.3167  0.6980 -0.7532
  888SOL    HW2 9715   9.518   2.129  12.040 -0.6892  0.9254 -0.2033
  889SOL     OW 9716   1.921   6.161   8.138  0.0824 -0.8487  0.7814
  889SOL    HW1 9717   1.968   6.235   8.176  2.1491 -1.0210 -1.1927
  889SOL    HW2 9718   1.980   6.086   8.152  0.2068 -1.1930 -1.2360
  890SOL     OW 9719   7.314   0.131   7.413  0.2371  0.4380  0.6366
  890SOL    HW1 9720   7.349   0.049   7.448 -0.0446  0.8594  1.9922
  890SOL    HW2 9721   7.377   0.157   7.346  0.8075 -0.4301  0.8178
  891SOL     OW 9722   9.395   1.508   9.860  0.1266  0.9574  0.5641
  891SOL    HW1 9723   9.323   1.557   9.899  0.2224  0.7434  1.0137
  891SOL    HW2 9724   9.428   1.565   9.790 -0.1487  1.2737  0.6909
  892SOL     OW 9725  11.373   6.036  10.255  0.5341  0.4395  0.0222
  892SOL    HW1 9726  11.411   5.959  10.298 -1.3481 -0.6979 -0.2470
  892SOL    HW2 9727  11.420   6.110  10.293  1.0201 -0.7156  1.7900
  893SOL     OW 9728   4.540   2.503   2.980  0.0338  0.5837 -0.1417
  893SOL    HW1 9729   4.628   2.464   2.981 -0.2591 -0.1056 -0.2987
  893SOL    HW2 9730   4.519   2.512   2.887 -0.4688 -0.2207 -0.1154
  894SOL     OW 9731   9.516   7.510  10.862  0.4422 -0.0142  0.1511
  894SOL    HW1 9732   9.449   7.567  10.901 -2.2005 -3.0996  0.4958
  894SOL    HW2 9733   9.513   7.530  10.769 -0.3608  0.5167  0.2786
  895SOL     OW 9734  12.394   1.978   8.650  0.1414  0.4701  0.7011
  895SOL    HW1 9735  12.434   1.921   8.716  0.2007 -1.2029 -0.6974
  895SOL    HW2 9736  12.301   1.956   8.652  0.5183 -1.9648 -1.8021
  896SOL     OW 9737   3.671   8.633   2.713  0.5092 -0.0055  0.2360
  896SOL    HW1 9738   3.592   8.687   2.720  1.2221  1.3976 -1.6620
  896SOL    HW2 9739   3.729   8.666   2.781  0.1521  0.2416  0.4218
  897SOL     OW 9740   5.324   1.700  12.144 -0.1129  0.8752  0.7839
  897SOL    HW1 9741   5.261   1.658  12.203 -0.8011 -1.1396 -1.2263
  897SOL    HW2 9742   5.272   1.725  12.068  1.1011  1.4496  0.1197
  898SOL     OW 9743   9.976   1.815   4.702  0.2971 -0.6086 -0.2421
  898SOL    HW1 9744   9.903   1.864   4.665  0.8684  0.1730 -0.3492
  898SOL    HW2 9745  10.001   1.863   4.781  1.4955 -0.1312 -0.8745
  899SOL     OW 9746   4.801   2.086  10.442  0.5593 -0.4126  0.4519
  899SOL    HW1 9747   4.772   2.016  10.383  1.4490  0.0275 -0.5329
  899SOL    HW2 9748   4.885   2.055  10.477  0.8420  0.0505  0.1950
  900SOL     OW 9749   6.985   7.520   4.094  0.1328 -0.3713  0.0473
  900SOL    HW1 9750   7.011   7.603   4.134  0.0017  0.5969 -1.7725
  900SOL    HW2 9751   7.034   7.454   4.142  1.5811  0.9117  0.4212
  901SOL     OW 9752  10.972  10.406  11.273 -0.2859  0.3517 -0.0592
  901SOL    HW1 9753  11.065  10.426  11.276 -0.2691  0.2241  0.3791
  901SOL    HW2 9754  10.930  10.477  11.322 -0.5091  0.8869 -1.0005
  902SOL     OW 9755   4.025  10.897   0.734  0.5436 -0.5495  0.2634
  902SOL    HW1 9756   3.965  10.905   0.660 -1.3349 -4.5624  1.0710
  902SOL    HW2 9757   4.049  10.805   0.735  4.3186  0.2783  1.9478
  903SOL     OW 9758  11.757   5.412   5.610 -0.1527 -0.1969  0.4222
  903SOL    HW1 9759  11.713   5.475   5.552  0.2104  0.6490  1.0538
  903SOL    HW2 9760  11.793   5.347   5.550 -1.3504 -0.3408 -0.1874
  904SOL     OW 9761  11.166   0.014   4.525  0.1199  0.0447  0.0379
  904SOL    HW1 9762  11.207  -0.048   4.584  0.5324 -0.1116 -0.4040
  904SOL    HW2 9763  11.082  -0.026   4.501  1.0959 -1.1482 -1.5546
  905SOL     OW 9764   7.719  12.356  10.933 -0.2876  0.2398  0.0426
  905SOL    HW1 9765   7.750  12.324  10.848  1.3409 -0.9196  1.0147
  905SOL    HW2 9766   7.741  12.285  10.994  0.3176  1.8247  1.7365
  906SOL     OW 9767   2.137   6.525   4.904  0.5003 -0.9465  0.0765
  906SOL    HW1 9768   2.123   6.585   4.978 -0.4849 -1.9776  0.7776
  906SOL    HW2 9769   2.098   6.570   4.829  2.3629  0.5386 -0.0591
  907SOL     OW 9770   0.959   1.263   9.795 -0.0165  0.0851 -0.3279
  907SOL    HW1 9771   0.945   1.169   9.782  1.6158 -0.0177 -1.6567
  907SOL    HW2 9772   0.878   1.304   9.764 -1.3388 -0.9142  1.6394
  908SOL     OW 9773   5.063  10.118   9.685  0.0060 -0.1118 -0.1917
  908SOL    HW1 9774   5.025  10.149   9.767 -1.0688  0.9876 -1.0637
  908SOL    HW2 9775   5.060  10.023   9.692 -3.6413 -0.1629 -0.4276
  909SOL     OW 9776  10.370   3.191   4.666 -0.6890 -0.0622  0.0004
  909SOL    HW1 9777  10.448   3.243   4.682 -1.1795  0.8097 -0.3484
  909SOL    HW2 9778  10.297   3.250   4.688 -1.2524 -0.8450  0.3052
  910SOL     OW 9779   0.133   5.418   4.164 -0.7027  0.5237  0.1657
  910SOL    HW1 9780   0.213   5.366   4.156 -0.2539  1.1438  0.5835
  910SOL    HW2 9781   0.149   5.496   4.111 -1.1971  0.4576 -0.0885
  911SOL     OW 9782   6.265   1.115   8.561 -0.0972  0.4001  0.3673
  911SOL    HW1 9783   6.265   1.171   8.483  2.4058  0.7478  0.5376
  911SOL    HW2 9784   6.230   1.032   8.531  0.8888  0.5042 -1.1816
  912SOL     OW 9785   8.255   3.637   0.462 -0.1494  0.1236 -0.3666
  912SOL    HW1 9786   8.318   3.640   0.534  0.0569  2.2153 -0.5465
  912SOL    HW2 9787   8.199   3.714   0.477 -1.4896 -0.6550 -1.2313
  913SOL     OW 9788   8.013   7.363   1.578  0.4415  0.6586 -0.3272
  913SOL    HW1 9789   8.019   7.343   1.672 -0.3863  2.5710  0.1918
  913SOL    HW2 9790   8.008   7.459   1.575 -2.8589  0.5768 -2.0544
  914SOL     OW 9791   9.769   3.806   9.251  0.2664  0.1115 -0.3107
  914SOL    HW1 9792   9.727   3.800   9.166 -1.2812  1.0970  0.3435
  914SOL    HW2 9793   9.700   3.786   9.314  1.4574 -0.9407  0.7284
  915SOL     OW 9794  10.225   9.201   2.921 -0.6653  0.2997  0.5358
  915SOL    HW1 9795  10.185   9.114   2.915 -0.2543  0.1933 -1.1439
  915SOL    HW2 9796  10.281   9.196   2.999 -0.6887 -0.9278  0.5045
  916SOL     OW 9797  10.794   1.516   0.923  0.5154  0.0793 -0.1295
  916SOL    HW1 9798  10.744   1.538   0.844 -0.6213 -0.7588  0.3296
  916SOL    HW2 9799  10.876   1.479   0.889  1.2515  2.2681 -0.8948
  917SOL     OW 9800  10.350   7.596  11.841 -0.4213  0.4503  0.8020
  917SOL    HW1 9801  10.361   7.513  11.887  1.2109  0.9606  1.3987
  917SOL    HW2 9802  10.392   7.582  11.756 -2.2760 -0.0692 -0.0803
  918SOL     OW 9803  11.452   4.367  11.600 -0.2224  0.6810 -0.2114
  918SOL    HW1 9804  11.373   4.420  11.606  0.0498  1.0729 -0.1015
  918SOL    HW2 9805  11.524   4.430  11.598  0.0908  0.3254 -0.2857
  919SOL     OW 9806   8.584   7.455   4.002 -0.0636  0.0989  0.2629
  919SOL    HW1 9807   8.514   7.450   3.937 -0.2848  0.8616  0.4312
  919SOL    HW2 9808   8.538   7.463   4.086  0.2215  0.9046  0.3493
  920SOL     OW 9809   0.612  11.592  11.781 -0.0860  0.1760  0.2390
  920SOL    HW1 9810   0.663  11.518  11.815  0.8241  0.4526 -0.4979
  920SOL    HW2 9811   0.677  11.652  11.746 -0.9803 -0.4820 -2.8287
  921SOL     OW 9812   7.867   3.590   6.057 -0.7515  0.0153  0.3787
  921SOL    HW1 9813   7.851   3.523   5.990 -0.7282 -0.3689  0.7590
  921SOL    HW2 9814   7.955   3.621   6.038 -0.4383 -0.6594  0.7223
  922SOL     OW 9815   8.896  10.228   3.723  0.3869 -0.1736 -0.0046
  922SOL    HW1 9816   8.946  10.146   3.725 -1.3029 -1.2544  0.9537
  922SOL    HW2 9817   8.807  10.201   3.696 -0.2611  1.3080  0.5433
  923SOL     OW 9818  10.268   9.853  12.265 -0.7532 -0.1045 -0.3402
  923SOL    HW1 9819  10.270   9.778  12.205  2.7116 -0.8705  0.5108
  923SOL    HW2 9820  10.217   9.919  12.219 -0.4498 -1.5593 -2.9682
  924SOL     OW 9821   2.178   3.898   2.740  0.1337  0.3495  0.1499
  924SOL    HW1 9822   2.176   3.828   2.674  2.5908  0.6129 -0.3040
  924SOL    HW2 9823   2.163   3.978   2.689 -0.1130  0.3730  0.2593
  925SOL     OW 9824   5.617   1.326  10.869 -0.0528  0.3215 -0.4807
  925SOL    HW1 9825   5.576   1.245  10.839 -2.3669  0.4860  1.8728
  925SOL    HW2 9826   5.710   1.304  10.880 -0.6909 -2.1411  0.4802
  926SOL     OW 9827   8.435   2.040   4.334 -0.4017  0.0278 -0.0059
  926SOL    HW1 9828   8.378   2.071   4.263 -0.4586 -1.3620 -0.6050
  926SOL    HW2 9829   8.414   2.097   4.408 -3.1785 -0.8898  0.0407
  927SOL     OW 9830   0.763   7.087   2.328  0.2193 -0.0357  0.1534
  927SOL    HW1 9831   0.812   7.039   2.395  0.6129 -0.0794 -0.1589
  927SOL    HW2 9832   0.804   7.061   2.246 -0.2088  0.0791 -0.0968
  928SOL     OW 9833   9.943   9.632   5.179  0.2227 -0.5810 -0.0832
  928SOL    HW1 9834   9.991   9.587   5.248 -0.1315 -0.0571  0.5169
  928SOL    HW2 9835   9.931   9.721   5.212 -1.3030 -0.7367 -0.1197
  929SOL     OW 9836   2.275   2.431   8.795  0.0363  0.2527 -0.1440
  929SOL    HW1 9837   2.333   2.355   8.797  0.4357  0.5735  0.8596
  929SOL    HW2 9838   2.193   2.399   8.834 -0.4440 -0.1533 -1.4103
  930SOL     OW 9839   2.047  12.592   8.182 -0.2438 -0.0588 -0.3503
  930SOL    HW1 9840   2.022  12.552   8.265 -1.5849 -0.9318 -1.1533
  930SOL    HW2 9841   2.120  12.538   8.151 -0.4698 -0.4075 -0.2795
  931SOL     OW 9842   8.956   6.614   9.300  0.2389  0.0332  0.1526
  931SOL    HW1 9843   9.029   6.649   9.351 -0.1387 -0.3349  0.9641
  931SOL    HW2 9844   8.939   6.527   9.338 -0.9963  0.3458  0.3852
  932SOL     OW 9845   7.683  10.487   1.342  0.0031  0.0450 -0.5505
  932SOL    HW1 9846   7.730  10.451   1.267  0.0465 -0.7049 -0.1746
  932SOL    HW2 9847   7.743  10.476   1.416  0.4047  1.7832 -0.5812
  933SOL     OW 9848   5.375  10.917   0.321 -0.6572 -0.1215  0.2410
  933SOL    HW1 9849   5.417  10.890   0.403 -1.2074 -0.3652  0.4477
  933SOL    HW2 9850   5.335  11.001   0.341 -2.2071 -0.9390  0.7249
  934SOL     OW 9851   6.565   4.913   3.620  0.6520 -0.3432 -0.6318
  934SOL    HW1 9852   6.502   4.954   3.561 -0.1839 -0.2639  0.2931
  934SOL    HW2 9853   6.622   4.984   3.647 -0.5921  0.1942  0.7090
  935SOL     OW 9854   3.427   2.173   2.385 -0.3439  0.0463  0.4985
  935SOL    HW1 9855   3.427   2.202   2.476 -2.3135 -0.3065  0.6515
  935SOL    HW2 9856   3.390   2.085   2.388 -0.7897  0.1740 -0.6795
  936SOL     OW 9857   1.808  12.140   3.048 -0.2360  0.1414  0.1172
  936SOL    HW1 9858   1.741  12.072   3.043  0.9417 -0.9567 -1.6218
  936SOL    HW2 9859   1.782  12.204   2.982  1.2592 -1.1538 -1.8435
  937SOL     OW 9860   7.890   3.890   4.152 -0.0395  0.7700  0.0805
  937SOL    HW1 9861   7.894   3.905   4.057 -0.5832  0.3985 -0.0039
  937SOL    HW2 9862   7.824   3.952   4.183 -0.5940  0.1919  0.0677
  938SOL     OW 9863   7.995   7.325  12.095 -0.8599  0.1997  0.0740
  938SOL    HW1 9864   7.936   7.257  12.127 -0.5531  0.3045  0.8934
  938SOL    HW2 9865   8.002   7.309  12.001 -3.5045  1.2006 -0.3696
  939SOL     OW 9866   8.012  11.185   5.758  0.1622 -0.4200  0.1243
  939SOL    HW1 9867   8.096  11.227   5.742  0.1628 -0.2683  0.5234
  939SOL    HW2 9868   8.031  11.091   5.757  0.1576 -0.4218 -0.7895
  940SOL     OW 9869   6.559   6.352  10.528  0.7687  0.6720  0.0028
  940SOL    HW1 9870   6.633   6.365  10.587  0.9650 -1.0749  0.2104
  940SOL    HW2 9871   6.483   6.345  10.586  0.7927  0.1262 -0.0254
  941SOL     OW 9872  12.155   7.432   5.580  0.5020 -0.0713 -0.0611
  941SOL    HW1 9873  12.226   7.496   5.589  0.1999  0.2985 -0.2436
  941SOL    HW2 9874  12.140   7.399   5.668  0.4559  0.3377  0.0857
  942SOL     OW 9875   7.619   3.756   6.115 -0.2824  0.5933  0.5258
  942SOL    HW1 9876   7.579   3.778   6.200  1.4959 -0.8171  1.8164
  942SOL    HW2 9877   7.707   3.727   6.137 -0.7251 -2.8162 -1.4463
  943SOL     OW 9878  10.505   8.325   0.782  0.4344 -0.5457  0.2388
  943SOL    HW1 9879  10.458   8.332   0.865 -1.2321 -1.9806 -0.5122
  943SOL    HW2 9880  10.520   8.416   0.755 -0.9772 -0.0459  1.0535
  944SOL     OW 9881   2.400   4.859   0.311  0.0832 -0.1622  0.0440
  944SOL    HW1 9882   2.329   4.795   0.304 -0.3518  0.1647  1.1845
  944SOL    HW2 9883   2.428   4.854   0.403  2.0033 -0.7514 -0.5278
  945SOL     OW 9884   6.811   1.072  12.546 -0.1233  0.1042 -0.4184
  945SOL    HW1 9885   6.841   1.050  12.635  0.2956 -0.1927 -0.6272
  945SOL    HW2 9886   6.742   1.137  12.559  1.1838  1.4642  0.0621
  946SOL     OW 9887   0.967  12.393   8.008 -0.3149 -0.1002 -0.2506
  946SOL    HW1 9888   0.894  12.454   8.021  0.5572  0.9362 -0.0969
  946SOL    HW2 9889   1.016  12.430   7.935  0.2588 -0.6026 -0.1280
  947SOL     OW 9890   8.696   9.843  10.172 -0.1725 -0.7208 -0.3259
  947SOL    HW1 9891   8.676   9.905  10.102 -1.8628 -0.2276  0.5183
  947SOL    HW2 9892   8.692   9.896  10.252 -1.0361 -1.7636  0.3531
  948SOL     OW 9893   8.740   5.358   4.621 -0.4881 -0.0427 -0.1212
  948SOL    HW1 9894   8.766   5.340   4.531  2.7675 -0.4704  0.7833
  948SOL    HW2 9895   8.780   5.288   4.673 -0.5815  1.2783  1.8559
  949SOL     OW 9896   3.029   3.777   0.993 -0.1722 -0.4710 -0.9019
  949SOL    HW1 9897   2.958   3.714   0.979  0.4209 -0.8070 -2.7053
  949SOL    HW2 9898   3.108   3.730   0.965  0.5510  0.4160 -0.3938
  950SOL     OW 9899   7.360   0.745   4.753 -0.5403  0.4657  0.9102
  950SOL    HW1 9900   7.410   0.666   4.774  0.4170  1.5077  2.7822
  950SOL    HW2 9901   7.296   0.717   4.688 -0.7835 -2.0434  2.1344
  951SOL     OW 9902  10.628   7.956   7.208 -0.3135  0.3903 -0.2455
  951SOL    HW1 9903  10.687   7.916   7.273  1.4744  0.2121 -1.8888
  951SOL    HW2 9904  10.634   8.050   7.226  0.0495  0.3333 -0.0526
  952SOL     OW 9905   7.004   0.238   0.675  0.1339  0.0375  0.6182
  952SOL    HW1 9906   7.015   0.298   0.602 -0.2710 -0.4832  0.1268
  952SOL    HW2 9907   6.979   0.294   0.749 -0.3743  0.4490  0.1355
  953SOL     OW 9908   0.552   9.227   5.154  0.3057 -0.0079 -0.0592
  953SOL    HW1 9909   0.632   9.193   5.195  1.2154  0.9885 -0.9218
  953SOL    HW2 9910   0.584   9.279   5.080 -1.2179 -0.5894 -1.1591
  954SOL     OW 9911   2.207   3.354   2.515 -0.4554  0.2872 -0.4100
  954SOL    HW1 9912   2.117   3.320   2.507 -0.3686  0.1008 -0.6015
  954SOL    HW2 9913   2.220   3.406   2.436 -0.6651  0.9598 -0.0125
  955SOL     OW 9914   3.243   5.958   6.123  0.2864 -0.1075 -0.2016
  955SOL    HW1 9915   3.280   5.901   6.055  2.7270  1.8709 -0.6653
  955SOL    HW2 9916   3.276   5.921   6.205  1.2286  0.1525 -0.4486
  956SOL     OW 9917   4.683   8.516   3.741 -0.0428 -0.3764  0.0719
  956SOL    HW1 9918   4.650   8.540   3.827  0.1258  0.2687 -0.0413
  956SOL    HW2 9919   4.736   8.438   3.756  0.6413  0.2006  0.6715
  957SOL     OW 9920   8.240   1.083   5.424 -0.2296 -0.7785  0.6513
  957SOL    HW1 9921   8.155   1.124   5.442  0.4982  1.1151  0.0176
  957SOL    HW2 9922   8.291   1.100   5.503  0.2566  0.0642  0.1659
  958SOL     OW 9923   2.282   2.146   6.586 -0.1752 -0.2530  0.4903
  958SOL    HW1 9924   2.214   2.082   6.566 -0.1197 -0.2052  0.1498
  958SOL    HW2 9925   2.338   2.147   6.509 -1.1557  1.4650 -0.2537
  959SOL     OW 9926   7.667   4.308   8.653 -0.3424  0.2873  0.1126
  959SOL    HW1 9927   7.658   4.392   8.609 -0.6483  0.5933  0.7383
  959SOL    HW2 9928   7.694   4.330   8.742  0.4105 -0.3241  0.0492
  960SOL     OW 9929   5.768   5.815  10.155  0.0258 -0.3666 -0.1327
  960SOL    HW1 9930   5.766   5.732  10.109  1.3692 -0.0455 -0.8142
  960SOL    HW2 9931   5.759   5.792  10.248 -0.0822 -1.2185 -0.3514
  961SOL     OW 9932   5.536   8.725   4.761  0.0949 -0.1996 -0.2739
  961SOL    HW1 9933   5.586   8.650   4.794  1.0277  0.1944 -0.7785
  961SOL    HW2 9934   5.565   8.736   4.671 -0.1043  0.7192 -0.2378
  962SOL     OW 9935   5.585  11.850   6.849 -0.0242 -0.1951 -0.0564
  962SOL    HW1 9936   5.655  11.785   6.851  0.5494  0.3707 -1.0670
  962SOL    HW2 9937   5.595  11.899   6.931 -1.0790 -1.9624  1.2177
  963SOL     OW 9938   9.858   5.574   0.580  0.4794 -0.3293  0.2031
  963SOL    HW1 9939   9.919   5.504   0.554  1.6960  0.5156  0.6787
  963SOL    HW2 9940   9.899   5.614   0.657 -0.8886  0.0287  0.7740
  964SOL     OW 9941   9.791   2.159   6.095  0.4188  0.0234  0.1080
  964SOL    HW1 9942   9.861   2.130   6.036 -0.3564  0.4613 -1.0477
  964SOL    HW2 9943   9.767   2.081   6.144 -0.5553 -0.9734 -1.8539
  965SOL     OW 9944   8.891  12.030   9.977 -0.6307  0.2011 -0.3672
  965SOL    HW1 9945   8.971  12.034   9.925  0.0099  0.9056  0.6454
  965SOL    HW2 9946   8.906  11.959  10.039 -0.8971  0.1762 -0.3291
  966SOL     OW 9947   3.106   1.997   9.856  0.8188  0.5300 -0.1999
  966SOL    HW1 9948   3.069   2.008   9.943  0.1112 -1.5656 -0.1840
  966SOL    HW2 9949   3.183   2.053   9.855  1.9882 -0.8601  2.4991
  967SOL     OW 9950   5.480   0.250   0.154  0.4412 -0.4194 -0.4691
  967SOL    HW1 9951   5.537   0.273   0.227  0.3865  0.2663 -0.6321
  967SOL    HW2 9952   5.466   0.156   0.162 -0.9046 -0.1030  1.3608
  968SOL     OW 9953   9.743   9.846   0.762 -0.2232  0.6680  0.3589
  968SOL    HW1 9954   9.733   9.852   0.667  1.5427 -0.7882  0.0124
  968SOL    HW2 9955   9.654   9.855   0.797 -0.9302  1.0242 -1.4373
  969SOL     OW 9956   3.689   8.021   2.824 -0.0590  0.2918  0.5379
  969SOL    HW1 9957   3.605   7.978   2.839  1.1002 -2.9313 -1.0890
  969SOL    HW2 9958   3.741   7.999   2.902  0.8210 -2.3163 -0.6726
  970SOL     OW 9959   5.741   8.069   0.874 -0.0838 -0.2783 -0.2857
  970SOL    HW1 9960   5.765   8.125   0.948 -0.1046  0.1753 -0.6162
  970SOL    HW2 9961   5.818   8.068   0.818 -0.1531 -0.4208 -0.3809
  971SOL     OW 9962   5.717   0.993   1.655  0.8534 -0.7387 -0.3397
  971SOL    HW1 9963   5.715   1.076   1.702 -2.9149 -0.7840 -0.0860
  971SOL    HW2 9964   5.684   1.014   1.568  0.6110 -1.8045 -0.5248
  972SOL     OW 9965   9.365   7.943   7.546  0.3648 -0.7566 -0.6685
  972SOL    HW1 9966   9.437   7.936   7.609 -0.6705  0.0746  0.6745
  972SOL    HW2 9967   9.391   7.887   7.473  0.5339 -3.8146  1.5392
  973SOL     OW 9968   8.552  10.314   5.554  0.0560  0.1645  0.9260
  973SOL    HW1 9969   8.604  10.253   5.607  0.1630  0.5478  1.2691
  973SOL    HW2 9970   8.462  10.300   5.584 -0.1056 -0.8217  0.0119
  974SOL     OW 9971  11.750   1.414   5.480  0.2943 -0.1598 -0.2968
  974SOL    HW1 9972  11.736   1.507   5.499 -1.3990 -0.5410  0.5833
  974SOL    HW2 9973  11.719   1.369   5.559  0.8631 -1.4783 -0.8003
  975SOL     OW 9974   5.156   1.081   7.950 -0.2475  0.4182  0.0175
  975SOL    HW1 9975   5.143   1.009   8.012 -0.0082  1.7383  1.6721
  975SOL    HW2 9976   5.158   1.039   7.864 -3.6027 -1.1817  0.5702
  976SOL     OW 9977   0.559   4.984   7.206  0.0267  0.5481  0.0473
  976SOL    HW1 9978   0.555   4.897   7.166 -1.8267  0.3958  0.4683
  976SOL    HW2 9979   0.547   4.968   7.300  0.9863  1.1667  0.2873
  977SOL     OW 9980   3.974   7.287  11.200  0.2291  0.0489 -0.2758
  977SOL    HW1 9981   3.936   7.201  11.217  1.3035 -0.2160  0.8876
  977SOL    HW2 9982   4.065   7.269  11.179  0.4830  0.9085  0.0467
  978SOL     OW 9983   6.952   8.229   3.672 -0.4509  0.0643  0.1952
  978SOL    HW1 9984   6.999   8.312   3.660 -1.1102  0.6365  1.4131
  978SOL    HW2 9985   6.906   8.240   3.755 -1.7163 -0.9820 -0.3495
  979SOL     OW 9986  12.129   9.591   9.381 -0.0496  0.2754 -0.1650
  979SOL    HW1 9987  12.222   9.610   9.385  0.4948 -2.1713  0.7376
  979SOL    HW2 9988  12.091   9.640   9.454  1.2018 -1.5582  1.8623
  980SOL     OW 9989   5.652   9.254   0.496 -0.0711  0.4799 -0.1470
  980SOL    HW1 9990   5.592   9.323   0.524 -1.0764 -0.7897  0.9494
  980SOL    HW2 9991   5.613   9.220   0.416 -0.7850 -0.2808  0.5141
  981SOL     OW 9992   7.058  12.364   9.261 -0.1327  0.0322 -0.0693
  981SOL    HW1 9993   7.051  12.326   9.173  0.1247 -0.0042 -0.0744
  981SOL    HW2 9994   7.087  12.454   9.245  0.2961 -0.0931 -0.0019
  982SOL     OW 9995   2.703   6.623  10.566 -0.7978  0.1856 -0.5739
  982SOL    HW1 9996   2.649   6.657  10.638 -1.0617 -0.3318 -0.5183
  982SOL    HW2 9997   2.771   6.572  10.610 -0.4655  0.5500 -0.6607
  983SOL     OW 9998   9.390   0.788   8.473  0.3440 -0.2870 -0.3099
  983SOL    HW1 9999   9.449   0.718   8.445 -0.4443 -1.3139  0.5042
  983SOL    HW210000   9.381   0.844   8.396 -1.1098 -2.5451 -1.9208
  984SOL     OW10001   8.406   4.197   3.957  0.0548 -0.3225 -0.3754
  984SOL    HW110002   8.340   4.253   3.917 -1.9695 -1.8876  0.5686
  984SOL    HW210003   8.486   4.214   3.908 -1.6216 -0.1642 -3.2627
  985SOL     OW10004  12.172  12.320   6.149  0.2650 -0.6723 -0.9145
  985SOL    HW110005  12.109  12.338   6.220  1.9606 -0.0572  0.5027
  985SOL    HW210006  12.244  12.274   6.192  1.5484  0.1079 -2.1530
  986SOL     OW10007   7.307   9.980   9.012 -0.1836 -0.3801 -0.3423
  986SOL    HW110008   7.394   9.974   9.052 -1.5567 -1.5444  2.7420
  986SOL    HW210009   7.286  10.074   9.014  0.0724 -0.3354  1.0877
  987SOL     OW10010   6.182  12.361   4.159  0.2128 -0.4620  0.4205
  987SOL    HW110011   6.214  12.360   4.250  0.1670 -0.4283  0.4371
  987SOL    HW210012   6.171  12.454   4.139  2.0494 -0.3417 -0.2585
  988SOL     OW10013   7.139  10.960   2.560 -0.0859 -0.6173  0.1338
  988SOL    HW110014   7.204  10.894   2.534  0.8708  0.0593  0.7761
  988SOL    HW210015   7.181  11.010   2.630 -1.3257 -0.2032  0.6181
  989SOL     OW10016   8.008   7.452   7.951 -0.9812  0.3520 -0.5523
  989SOL    HW110017   8.003   7.482   7.860  1.6340  2.3388 -0.1810
  989SOL    HW210018   7.989   7.530   8.003 -2.8469 -0.8514  0.6761
  990SOL     OW10019  11.102   1.076   0.461  0.0006  0.4040  0.1707
  990SOL    HW110020  11.192   1.083   0.432  0.1836 -0.7337  0.4295
  990SOL    HW210021  11.054   1.137   0.404  0.9205  1.0400  0.0551
  991SOL     OW10022   9.773   5.843  10.936  0.5879  0.0643  0.3237
  991SOL    HW110023   9.794   5.918  10.879  0.5077 -0.0927  0.0903
  991SOL    HW210024   9.853   5.790  10.935 -0.3492 -1.4754 -2.0011
  992SOL     OW10025   7.643  12.010  10.342 -0.0115  0.2230  0.0626
  992SOL    HW110026   7.633  12.088  10.286  1.8453  0.9895  0.7182
  992SOL    HW210027   7.598  12.033  10.423  0.6848  0.7277  0.3225
  993SOL     OW10028   2.413   3.882   6.391  0.2008  0.1703  0.5234
  993SOL    HW110029   2.437   3.893   6.483 -1.1572  2.0673  0.7222
  993SOL    HW210030   2.496   3.868   6.346  1.2115  1.8092  1.7390
  994SOL     OW10031   3.286  12.528  12.058 -0.3504 -0.1298 -0.2070
  994SOL    HW110032   3.374  12.559  12.036 -0.2292  0.9247  1.5777
  994SOL    HW210033   3.230  12.605  12.042 -0.3083  0.5756  2.5715
  995SOL     OW10034   6.653  10.401   2.609 -0.2870  0.1503 -0.4874
  995SOL    HW110035   6.636  10.485   2.567  0.0890  0.2356 -0.4718
  995SOL    HW210036   6.622  10.413   2.699 -0.2919  0.2482 -0.5017
  996SOL     OW10037   0.984   2.482   7.467  0.0503  0.3574 -0.3513
  996SOL    HW110038   1.053   2.517   7.522  0.1720 -0.1053 -0.2044
  996SOL    HW210039   0.956   2.401   7.511 -1.3340  1.0807  0.1764
  997SOL     OW10040   2.974   3.141  11.891  0.1817  0.6938  0.4021
  997SOL    HW110041   2.917   3.119  11.964 -0.3102  0.3692 -0.0759
  997SOL    HW210042   2.998   3.232  11.905 -2.7542  1.7684 -0.8844
  998SOL     OW10043   9.283   9.486   6.339  0.3628  0.2732 -0.0642
  998SOL    HW110044   9.251   9.397   6.322 -1.9940  1.3617 -1.9032
  998SOL    HW210045   9.299   9.488   6.433 -0.9568 -1.6871  0.2677
  999SOL     OW10046   6.830   5.085   2.842 -0.4588  0.0488 -0.1707
  999SOL    HW110047   6.819   5.156   2.779  0.6973  0.7697  0.4098
  999SOL    HW210048   6.743   5.074   2.881 -1.0376  0.0019 -1.4334
 1000SOL     OW10049   8.209   4.308   3.766 -0.5506  0.3908 -0.8843
 1000SOL    HW110050   8.270   4.367   3.721 -0.6145  0.7212 -0.5463
 1000SOL    HW210051   8.137   4.365   3.794 -0.6196  0.1488 -0.5635
 1001SOL     OW10052   3.783  10.352  10.077  1.0347  0.6355 -0.6118
 1001SOL    HW110053   3.843  10.398  10.017  1.9787 -0.2776 -0.4036
 1001SOL    HW210054   3.814  10.261  10.077  0.1378  0.3118  0.1380
 1002SOL     OW10055   2.792   8.903  12.092  0.1008  0.6531  0.7475
 1002SOL    HW110056   2.731   8.923  12.021 -0.7507 -1.4015  0.8402
 1002SOL    HW210057   2.789   8.981  12.148 -0.7133  1.4982 -0.4306
 1003SOL     OW10058   5.097   8.641   9.020 -0.0741 -0.2156  0.0737
 1003SOL    HW110059   5.111   8.712   9.083 -0.3686  0.6505 -0.8233
 1003SOL    HW210060   5.075   8.565   9.075  2.3126 -0.2004  1.1887
 1004SOL     OW10061   1.655   9.455   3.235  0.0322  0.1424  0.0076
 1004SOL    HW110062   1.731   9.470   3.291 -0.9791 -0.1290  1.4787
 1004SOL    HW210063   1.687   9.393   3.169  1.1362  0.2021  0.4614
 1005SOL     OW10064   2.485  10.257   3.794 -0.6875 -0.5239  0.7423
 1005SOL    HW110065   2.543  10.269   3.718 -1.3049 -1.3712  0.1252
 1005SOL    HW210066   2.398  10.249   3.757 -1.2201  0.5954  1.6601
 1006SOL     OW10067   2.864   5.994   2.247 -0.5078 -0.0432  0.1607
 1006SOL    HW110068   2.899   6.029   2.329  0.0675  0.1178 -0.1517
 1006SOL    HW210069   2.925   6.024   2.179  0.3087 -2.0103 -0.0700
 1007SOL     OW10070  12.108   6.645   8.659  0.5535  0.2116  0.1176
 1007SOL    HW110071  12.018   6.615   8.673  0.3243 -0.1849 -1.8322
 1007SOL    HW210072  12.103   6.740   8.667 -0.6168  0.4446 -2.2457
 1008SOL     OW10073   8.103  11.515   1.996  0.3478 -0.0513  0.5976
 1008SOL    HW110074   8.077  11.437   1.947 -0.5838  0.5203  0.1562
 1008SOL    HW210075   8.198  11.507   2.004  0.3741 -0.7678 -0.2370
 1009SOL     OW10076   0.348   5.202   6.026  0.2367 -0.2559 -0.3212
 1009SOL    HW110077   0.430   5.201   6.076  1.5395 -0.2279 -2.3605
 1009SOL    HW210078   0.335   5.110   6.001  0.3054 -0.0671 -1.0464
 1010SOL     OW10079   2.838  11.230   2.526  0.2845 -0.7434 -0.4567
 1010SOL    HW110080   2.894  11.203   2.599  1.4384  0.2191 -0.9396
 1010SOL    HW210081   2.859  11.168   2.456  0.3742 -0.6951 -0.4733
 1011SOL     OW10082   5.301   0.793   2.881 -0.1662 -0.2005  0.0001
 1011SOL    HW110083   5.243   0.829   2.814  0.5215  0.5671 -0.2163
 1011SOL    HW210084   5.384   0.780   2.835 -0.2234 -1.5222  0.2371
 1012SOL     OW10085   4.612  10.880   2.345  0.0960  0.3664 -0.2114
 1012SOL    HW110086   4.585  10.970   2.331  0.1876  0.2234 -1.4155
 1012SOL    HW210087   4.547  10.844   2.404  0.6767  1.5248  1.1906
 1013SOL     OW10088   5.095   2.212   4.194  0.1636  0.0715  0.0771
 1013SOL    HW110089   5.134   2.299   4.181  0.8538 -0.1696  0.4697
 1013SOL    HW210090   5.003   2.223   4.171  0.8314  0.1628 -2.9974
 1014SOL     OW10091   0.949   2.332   2.409  0.2892  0.4332 -0.1054
 1014SOL    HW110092   1.031   2.283   2.405 -0.5338 -1.1931  1.6039
 1014SOL    HW210093   0.953   2.381   2.491 -0.3263  0.5764 -0.1497
 1015SOL     OW10094  11.545  11.359   1.915 -0.6043  0.2735 -0.1602
 1015SOL    HW110095  11.468  11.375   1.861 -1.1088 -1.5018 -0.0114
 1015SOL    HW210096  11.616  11.341   1.853  0.1154  3.2329 -0.3616
 1016SOL     OW10097  11.365   7.837   0.907 -0.3140 -0.0259 -0.1215
 1016SOL    HW110098  11.355   7.931   0.895  0.3816  0.3425  1.7967
 1016SOL    HW210099  11.314   7.817   0.985  2.6897 -0.4341  1.9270
 1017SOL     OW10100  10.401   1.375   3.458  0.2752  0.9425  0.3224
 1017SOL    HW110101  10.377   1.305   3.518 -0.6519 -1.5268 -2.6759
 1017SOL    HW210102  10.497   1.372   3.454  0.2699  0.1810  0.6479
 1018SOL     OW10103  11.642   3.444   8.318  0.2563 -0.0381  0.1565
 1018SOL    HW110104  11.651   3.537   8.336 -0.8482  0.1436 -0.1549
 1018SOL    HW210105  11.709   3.402   8.372 -0.3743  0.7898  1.6297
 1019SOL     OW10106   9.891   8.397   1.656  0.3489 -0.1742  0.3660
 1019SOL    HW110107   9.974   8.375   1.614 -1.1380 -2.1847 -1.8478
 1019SOL    HW210108   9.832   8.416   1.583 -2.1224 -2.7233  1.5172
 1020SOL     OW10109   4.376   7.848   2.906 -0.7417 -0.1913  0.2156
 1020SOL    HW110110   4.337   7.871   2.822 -0.9289  1.9588  0.8320
 1020SOL    HW210111   4.348   7.917   2.966  1.9643  0.1205  1.2836
 1021SOL     OW10112  11.975  11.127   0.131  0.0167 -0.3069  0.0889
 1021SOL    HW110113  11.951  11.217   0.153  0.5735 -0.1520  0.0675
 1021SOL    HW210114  12.067  11.119   0.156  0.0626 -0.7751 -0.2046
 1022SOL     OW10115   8.367   7.698   6.151  0.0997 -0.1521  0.0233
 1022SOL    HW110116   8.417   7.628   6.193  0.9168 -0.9505 -2.1529
 1022SOL    HW210117   8.316   7.654   6.083  0.4072  1.3194 -1.1997
 1023SOL     OW10118   2.590   2.492   0.720  0.2836 -0.2394  0.4351
 1023SOL    HW110119   2.514   2.549   0.726 -0.6024 -1.2378 -0.7441
 1023SOL    HW210120   2.579   2.447   0.636  2.3731 -0.1319  0.0491
 1024SOL     OW10121  11.118   7.838  10.714  0.2109  0.0411  0.1799
 1024SOL    HW110122  11.139   7.924  10.677 -0.8554  0.0769 -0.3732
 1024SOL    HW210123  11.134   7.776  10.643  0.8425 -0.2064  0.5351
 1025SOL     OW10124  11.072   8.815  11.562 -0.6495  0.6334  0.6396
 1025SOL    HW110125  11.015   8.740  11.540 -0.0657  0.3312  0.1223
 1025SOL    HW210126  11.036   8.849  11.643 -1.4017  0.2680  0.4734
 1026SOL     OW10127   8.511  10.046  11.823 -0.0433 -0.1967 -0.0303
 1026SOL    HW110128   8.537   9.967  11.777 -1.0314  0.1333 -1.2128
 1026SOL    HW210129   8.593  10.092  11.841  0.4158 -0.6756 -0.8530
 1027SOL     OW10130   9.140   3.235  10.645  0.4233  0.0345 -0.2988
 1027SOL    HW110131   9.191   3.246  10.564 -0.7172 -2.4156 -1.4442
 1027SOL    HW210132   9.144   3.321  10.687  3.7704  0.5433 -1.3049
 1028SOL     OW10133  10.586  11.201   6.011 -0.0970  0.2577  0.5006
 1028SOL    HW110134  10.634  11.279   5.985  0.9456 -0.5699 -0.1392
 1028SOL    HW210135  10.647  11.129   5.995 -1.1842 -0.7291  0.6707
 1029SOL     OW10136   5.805   1.068   9.019  0.0627  0.5884  0.2746
 1029SOL    HW110137   5.880   1.114   8.981  0.2305 -0.5116 -0.7576
 1029SOL    HW210138   5.732   1.090   8.962  0.1783 -0.5365 -0.3215
 1030SOL     OW10139  11.856   2.232   3.376  0.2441  0.4011 -0.2835
 1030SOL    HW110140  11.925   2.243   3.441  0.7224 -2.1355 -0.2290
 1030SOL    HW210141  11.777   2.265   3.418  0.2798 -2.2633  2.1875
 1031SOL     OW10142   5.510   4.785   3.713 -0.4733 -0.8926 -0.1026
 1031SOL    HW110143   5.458   4.795   3.793 -2.5752  0.8815 -1.5653
 1031SOL    HW210144   5.447   4.753   3.648  0.6630 -0.2891 -1.5549
 1032SOL     OW10145   6.598  11.347   3.639 -0.3044 -0.6433  0.0851
 1032SOL    HW110146   6.505  11.325   3.650 -0.1681 -0.3123  2.2917
 1032SOL    HW210147   6.597  11.437   3.605 -0.7594 -1.5599 -2.5792
 1033SOL     OW10148   0.592   5.787   3.097 -0.0205  0.5285  0.0416
 1033SOL    HW110149   0.553   5.847   3.160 -1.3599 -0.3829  0.1263
 1033SOL    HW210150   0.612   5.709   3.149  0.5210  0.4245 -0.3205
 1034SOL     OW10151   4.907  12.456   7.645  0.2399 -0.1642  0.1221
 1034SOL    HW110152   4.934  12.372   7.683  0.3247  0.4751  1.5606
 1034SOL    HW210153   4.890  12.512   7.721 -0.9582  0.7749 -0.7880
 1035SOL     OW10154  12.437   2.765   4.529  0.2411  0.7619  0.0448
 1035SOL    HW110155  12.353   2.762   4.483  0.2617  0.2363  0.0369
 1035SOL    HW210156  12.419   2.723   4.613  0.5297  0.5094 -0.0188
 1036SOL     OW10157  12.199   9.953   8.528 -0.0787 -0.5054  1.1138
 1036SOL    HW110158  12.205   9.896   8.451 -1.7452 -0.9747  1.2917
 1036SOL    HW210159  12.221  10.040   8.495  1.0017 -0.9795  0.5160
 1037SOL     OW10160   6.583   9.497   5.736 -0.0113  0.1852 -0.2738
 1037SOL    HW110161   6.572   9.560   5.664 -0.6135  0.5550  0.1351
 1037SOL    HW210162   6.590   9.551   5.814 -1.1752 -0.2578  0.1628
 1038SOL     OW10163   2.861   2.607  11.121 -0.1436 -0.0082  0.3150
 1038SOL    HW110164   2.887   2.587  11.211  0.4278  0.7981  0.3464
 1038SOL    HW210165   2.842   2.522  11.082 -0.7700 -0.3384  1.3069
 1039SOL     OW10166   5.804   3.194   2.899 -0.3167 -0.1840 -0.0927
 1039SOL    HW110167   5.804   3.282   2.937 -1.2289 -1.3986  3.0810
 1039SOL    HW210168   5.885   3.190   2.848 -0.5935  2.6606 -0.9271
 1040SOL     OW10169   9.517   7.196   5.663 -0.3140  0.6411 -0.4435
 1040SOL    HW110170   9.584   7.264   5.674  0.3760 -0.1866  0.7846
 1040SOL    HW210171   9.565   7.123   5.624 -0.3355 -0.1646  0.9725
 1041SOL     OW10172   7.658  12.491  10.223 -0.2328  0.3025 -0.4977
 1041SOL    HW110173   7.624  12.402  10.213 -0.9663  0.6318 -0.9939
 1041SOL    HW210174   7.747  12.479  10.257 -1.4946 -0.5758  2.8944
 1042SOL     OW10175   2.895   0.849   6.644  0.2022  0.1955 -0.2998
 1042SOL    HW110176   2.984   0.865   6.613  0.9243  1.8218  2.3188
 1042SOL    HW210177   2.902   0.850   6.739 -2.4841 -0.6226 -0.0215
 1043SOL     OW10178   1.684   0.345  11.106 -0.0739 -0.0823  0.4873
 1043SOL    HW110179   1.590   0.341  11.092  0.0641 -0.3475 -0.4240
 1043SOL    HW210180   1.694   0.377  11.196 -1.0312 -1.1151  0.9688
 1044SOL     OW10181  10.508   0.704   8.974  0.5788  0.1627 -0.0198
 1044SOL    HW110182  10.437   0.762   8.947 -0.6185 -0.1338  2.2372
 1044SOL    HW210183  10.482   0.618   8.942  0.0702  0.1107  0.5204
 1045SOL     OW10184   7.713   6.935   9.063 -0.1227 -0.3984  0.5298
 1045SOL    HW110185   7.668   6.932   9.147  2.0605 -0.8985  1.7751
 1045SOL    HW210186   7.795   6.887   9.078  0.6890  0.1573 -1.6666
 1046SOL     OW10187   3.338  11.344   5.119  0.1677  0.2392  0.2548
 1046SOL    HW110188   3.300  11.304   5.040 -0.6556  1.3619  0.0574
 1046SOL    HW210189   3.266  11.344   5.182  0.4199  0.5968  0.5445
 1047SOL     OW10190   2.699  11.863   1.325  0.1864 -0.3565  0.5842
 1047SOL    HW110191   2.665  11.855   1.414  0.3042 -0.5073  0.6159
 1047SOL    HW210192   2.625  11.836   1.269  0.1241 -0.2959  0.6380
 1048SOL     OW10193   2.306  12.411  11.950 -0.1312 -0.0073  0.1552
 1048SOL    HW110194   2.389  12.415  11.998 -0.3046 -1.3597  0.6216
 1048SOL    HW210195   2.244  12.375  12.013 -1.2025  1.3963 -0.0529
 1049SOL     OW10196   5.809   3.447   3.008 -0.5020 -0.6592 -0.0821
 1049SOL    HW110197   5.837   3.411   3.093  0.1616 -2.3583 -0.9693
 1049SOL    HW210198   5.882   3.500   2.979 -0.5639 -0.4093  0.2085
 1050SOL     OW10199   7.414   2.706   6.458 -0.4402  0.6995  0.5951
 1050SOL    HW110200   7.380   2.635   6.403 -0.2290  2.5590 -2.1318
 1050SOL    HW210201   7.339   2.734   6.510 -0.9078 -0.5269  0.6158
 1051SOL     OW10202   5.536  11.286   6.811 -0.4882 -0.3230  0.6038
 1051SOL    HW110203   5.480  11.301   6.734 -0.6596 -2.0638  0.3576
 1051SOL    HW210204   5.509  11.201   6.845  0.4443 -0.1464  1.8719
 1052SOL     OW10205   8.763  11.495   5.465  0.2617  0.8072 -0.4844
 1052SOL    HW110206   8.727  11.461   5.384  0.9502  1.4991 -1.0951
 1052SOL    HW210207   8.700  11.469   5.532  1.0243 -2.1897 -0.7979
 1053SOL     OW10208   0.055  12.555   8.461 -0.4936 -0.5435 -0.0883
 1053SOL    HW110209   0.039  12.531   8.553  0.5279  0.5501  0.4089
 1053SOL    HW210210   0.150  12.554   8.453 -0.5898 -1.0445 -1.2777
 1054SOL     OW10211   1.742   2.537  11.119 -0.3511  0.3044  0.0369
 1054SOL    HW110212   1.670   2.485  11.155 -0.4386  0.1209 -0.4018
 1054SOL    HW210213   1.720   2.627  11.141 -1.3363  0.3743 -1.1678
 1055SOL     OW10214  12.590  10.103   9.941  0.2085  0.0925 -0.5091
 1055SOL    HW110215  12.682  10.103   9.916  0.1767  0.1459 -0.6252
 1055SOL    HW210216  12.543  10.130   9.862  0.0435 -0.4930 -0.6164
 1056SOL     OW10217   2.108  11.552   9.766  0.4970 -0.3778 -0.2554
 1056SOL    HW110218   2.137  11.642   9.782 -0.7842 -0.0415  0.2845
 1056SOL    HW210219   2.028  11.561   9.715  0.0849 -1.1873  0.2267
 1057SOL     OW10220   3.279   3.412   2.527  0.1235 -0.1799  0.1080
 1057SOL    HW110221   3.367   3.445   2.505  0.4384 -2.4764 -2.6494
 1057SOL    HW210222   3.221   3.463   2.471  0.0715 -0.8085 -0.4198
 1058SOL     OW10223   0.939   9.151   4.926 -0.1558 -0.4983 -0.1409
 1058SOL    HW110224   0.991   9.163   4.847 -1.4439  1.2021 -0.7769
 1058SOL    HW210225   0.974   9.071   4.965  1.7992 -0.3224 -1.3905
 1059SOL     OW10226  10.438   7.950   0.146  0.0609 -0.5609 -0.2883
 1059SOL    HW110227  10.470   7.870   0.104  2.7612  0.5328 -0.4505
 1059SOL    HW210228  10.505   8.016   0.128 -0.7229  1.0426  2.2198
 1060SOL     OW10229   9.148   3.816  12.151  0.1616 -0.1041  0.1010
 1060SOL    HW110230   9.225   3.840  12.100  0.6937  0.4653  1.1531
 1060SOL    HW210231   9.086   3.888  12.136  0.5344  0.3437  0.7095
 1061SOL     OW10232   1.623   8.470   8.229 -0.0664 -0.0536  0.0014
 1061SOL    HW110233   1.572   8.492   8.151 -1.9609 -1.8048  0.6724
 1061SOL    HW210234   1.588   8.527   8.297 -2.1259 -2.0683  0.7546
 1062SOL     OW10235   2.392   9.332  12.080  0.3378 -0.0812 -0.0334
 1062SOL    HW110236   2.444   9.290  12.149  1.6905 -0.4231 -1.2138
 1062SOL    HW210237   2.442   9.316  12.000 -1.9379 -1.0280 -1.3474
 1063SOL     OW10238   8.158   3.961   8.066 -0.5026 -0.2979  0.2579
 1063SOL    HW110239   8.086   4.015   8.099 -0.8240 -0.1703 -0.6116
 1063SOL    HW210240   8.182   3.905   8.140  0.5972  1.7915  1.5637
 1064SOL     OW10241   1.458   6.397   6.727 -0.3936 -0.4821 -0.2534
 1064SOL    HW110242   1.415   6.341   6.792  0.2134  0.1804  0.7578
 1064SOL    HW210243   1.386   6.439   6.680 -0.8952  0.4456  1.2725
 1065SOL     OW10244  11.756  11.970   6.022  0.1212 -0.0110  1.0309
 1065SOL    HW110245  11.740  11.942   6.112  1.9512 -0.8923  1.1330
 1065SOL    HW210246  11.793  12.058   6.030  0.4809 -0.1726  1.1641
 1066SOL     OW10247   7.741   2.944   8.841 -0.1011  0.0916 -0.2518
 1066SOL    HW110248   7.738   2.856   8.879 -1.6610 -0.1238 -0.8055
 1066SOL    HW210249   7.745   2.930   8.747  0.7464  0.6242 -0.3031
 1067SOL     OW10250  10.542  10.044   4.088  0.1319  0.4169 -0.2868
 1067SOL    HW110251  10.447  10.040   4.097  0.0565 -1.8794 -1.4033
 1067SOL    HW210252  10.560  10.133   4.056 -1.4075  1.5229  1.7003
 1068SOL     OW10253   1.222   2.217   1.932  0.4487  0.1716  0.2128
 1068SOL    HW110254   1.236   2.143   1.991  1.5535  1.2993  1.4218
 1068SOL    HW210255   1.128   2.217   1.914  0.4789 -1.7441 -0.1477
 1069SOL     OW10256   0.357   3.783   7.059  0.0886  0.5036 -0.4871
 1069SOL    HW110257   0.382   3.849   7.123  0.5897 -0.3919  0.2592
 1069SOL    HW210258   0.278   3.743   7.095  0.6161 -0.2965 -0.2056
 1070SOL     OW10259   4.671  11.833   9.737 -0.0746  0.2979  0.0005
 1070SOL    HW110260   4.614  11.758   9.753 -0.8507  0.6633 -0.9931
 1070SOL    HW210261   4.637  11.874   9.658  1.6578  0.4445 -0.7240
 1071SOL     OW10262  10.130   3.179   0.053 -0.1010  0.1883  0.6055
 1071SOL    HW110263  10.193   3.108   0.067  0.0354  0.0819 -0.4627
 1071SOL    HW210264  10.046   3.142   0.080  0.2089  0.1656  1.5679
 1072SOL     OW10265  10.582   5.567  11.177  0.4783 -0.0641 -0.4200
 1072SOL    HW110266  10.561   5.474  11.191 -0.9332 -0.0046 -1.8241
 1072SOL    HW210267  10.567   5.607  11.263  0.2027 -0.9917 -0.0147
 1073SOL     OW10268   8.865   0.883   8.093 -0.3294  0.4807 -0.4006
 1073SOL    HW110269   8.810   0.833   8.033 -0.4995  1.3683 -1.0031
 1073SOL    HW210270   8.808   0.953   8.125 -0.0294  0.4291  0.2477
 1074SOL     OW10271   6.985   7.776   6.506 -0.5097  0.7012 -0.0382
 1074SOL    HW110272   6.997   7.708   6.572  1.4141  1.4146  0.4173
 1074SOL    HW210273   6.981   7.857   6.556 -1.2147  1.0645 -0.6730
 1075SOL     OW10274  10.888   6.295   3.666  0.2175 -0.2828 -0.8453
 1075SOL    HW110275  10.828   6.345   3.611  1.3198  0.7081 -1.1875
 1075SOL    HW210276  10.868   6.324   3.755  0.2951  0.1563 -0.9686
 1076SOL     OW10277   2.058   7.979   3.412  0.1981 -0.3656  0.3458
 1076SOL    HW110278   2.142   7.968   3.456 -0.1220 -0.3943  0.9653
 1076SOL    HW210279   2.062   8.067   3.374  0.5397 -0.3976  0.3049
 1077SOL     OW10280   3.313   8.413   5.191  0.0380  0.2239 -0.2807
 1077SOL    HW110281   3.280   8.493   5.150 -0.6648  0.1553  0.1264
 1077SOL    HW210282   3.240   8.352   5.185  0.6362 -0.4552 -0.7535
 1078SOL     OW10283  11.774   8.641   3.552 -0.2983  0.3317  0.1810
 1078SOL    HW110284  11.718   8.586   3.607  0.2721 -0.7670 -0.3198
 1078SOL    HW210285  11.831   8.580   3.506  1.1568  1.4150  0.4786
 1079SOL     OW10286   2.325   5.384   0.492 -0.1059 -0.6667  0.4204
 1079SOL    HW110287   2.366   5.306   0.455 -1.7663 -0.8233 -1.2662
 1079SOL    HW210288   2.371   5.457   0.452 -1.2342 -0.8392 -1.3080
 1080SOL     OW10289   3.429   6.131  12.317 -1.1623  0.2753  0.1026
 1080SOL    HW110290   3.492   6.100  12.383 -1.8273  0.5961  0.9093
 1080SOL    HW210291   3.415   6.055  12.260  0.7201  0.5002 -0.7310
 1081SOL     OW10292  11.014   3.026   2.718  0.4362  0.0907 -0.0437
 1081SOL    HW110293  10.932   2.981   2.695  0.0429  0.4354  0.6370
 1081SOL    HW210294  11.043   2.981   2.797 -0.5891  1.7449  1.3580
 1082SOL     OW10295   0.203   1.901  11.068  0.2872 -0.4115 -0.6079
 1082SOL    HW110296   0.218   1.845  11.144 -0.2402 -2.4752 -1.9414
 1082SOL    HW210297   0.286   1.902  11.022  0.0653 -0.7910 -1.0215
 1083SOL     OW10298   2.951  10.062   5.694 -0.1902 -0.0111 -0.0335
 1083SOL    HW110299   2.891   9.989   5.707 -0.0453 -0.1203  0.0300
 1083SOL    HW210300   2.934  10.092   5.605  0.0819 -0.4277 -0.2288
 1084SOL     OW10301   0.929  10.894   6.408  0.2152 -0.2924 -0.2111
 1084SOL    HW110302   1.016  10.867   6.438 -1.0615 -0.6944  3.7986
 1084SOL    HW210303   0.871  10.873   6.482 -3.1798  0.6767 -2.3772
 1085SOL     OW10304   6.731   7.215  10.271 -0.5154  0.3269 -0.1198
 1085SOL    HW110305   6.658   7.273  10.292 -1.0347 -0.5975  0.7342
 1085SOL    HW210306   6.700   7.162  10.198 -0.4290  0.4221 -0.2252
 1086SOL     OW10307   1.856   7.817   5.483  0.6789 -0.4313  0.0302
 1086SOL    HW110308   1.848   7.835   5.577 -1.1796 -3.5280  0.6272
 1086SOL    HW210309   1.931   7.758   5.477  0.4718 -0.6603 -0.3247
 1087SOL     OW10310   6.999  12.499   6.419 -0.2307  0.7902 -0.5451
 1087SOL    HW110311   7.051  12.425   6.388 -0.9661  1.2266 -3.0448
 1087SOL    HW210312   7.062  12.569   6.435  0.5194 -0.3733  2.2030
 1088SOL     OW10313   2.704   6.026   9.394  0.3306 -0.6984 -0.0365
 1088SOL    HW110314   2.724   5.943   9.437 -1.6734  0.0229  2.5282
 1088SOL    HW210315   2.623   6.008   9.346 -1.2126  0.1421  2.0984
 1089SOL     OW10316  12.313   5.777   8.621  0.3711 -0.5718 -0.1446
 1089SOL    HW110317  12.303   5.802   8.713 -0.4681 -2.7642  0.4060
 1089SOL    HW210318  12.248   5.831   8.575 -0.4368 -0.7038  0.8015
 1090SOL     OW10319   6.168  10.268   5.509  0.1985  0.3681  0.1485
 1090SOL    HW110320   6.143  10.225   5.591 -0.1009  0.4130  0.0808
 1090SOL    HW210321   6.234  10.332   5.535  1.8261 -1.1941  0.0460
 1091SOL     OW10322   6.633   5.797   2.653 -0.3353  0.0377  0.0714
 1091SOL    HW110323   6.649   5.885   2.618 -2.4191  0.4261 -0.0488
 1091SOL    HW210324   6.629   5.809   2.748  1.6104 -0.3604  0.2372
 1092SOL     OW10325   3.589  12.188   3.477 -0.0041 -0.3135  0.1572
 1092SOL    HW110326   3.666  12.132   3.466  1.5514  1.8981 -1.0646
 1092SOL    HW210327   3.573  12.188   3.571  0.7610 -1.7446  0.3144
 1093SOL     OW10328   1.791  11.318   9.790  0.4018  0.6559  0.4720
 1093SOL    HW110329   1.731  11.329   9.716  0.5408 -1.4836 -0.0230
 1093SOL    HW210330   1.752  11.247   9.841  1.3400  0.7839  1.3847
 1094SOL     OW10331   3.003   2.435   7.936 -0.4644 -0.0580  0.0571
 1094SOL    HW110332   3.071   2.404   7.996 -1.3880 -1.1039  0.6060
 1094SOL    HW210333   3.046   2.503   7.884  0.8090 -0.2406  0.8210
 1095SOL     OW10334   3.071   8.027   8.297  0.4756  0.5191 -0.3888
 1095SOL    HW110335   3.054   8.108   8.250 -1.1208  0.0781 -0.6422
 1095SOL    HW210336   2.985   7.998   8.326  1.1794 -0.3602  0.9242
 1096SOL     OW10337   4.159   7.716   6.832 -0.2088  0.3884 -0.3318
 1096SOL    HW110338   4.090   7.781   6.817  0.0306  0.4387 -1.2707
 1096SOL    HW210339   4.166   7.669   6.749  1.8185  1.2736 -0.7141
 1097SOL     OW10340   2.414  12.443   5.687  0.1022  0.2681  0.1464
 1097SOL    HW110341   2.319  12.432   5.684  0.2731 -1.2473 -2.0008
 1097SOL    HW210342   2.443  12.388   5.760 -0.4608 -1.7205 -1.0499
 1098SOL     OW10343  11.124   8.330   2.599  0.5762 -0.4960 -0.0942
 1098SOL    HW110344  11.110   8.411   2.647 -0.5373 -0.5250 -0.3363
 1098SOL    HW210345  11.070   8.265   2.644 -0.6925 -0.4640 -1.5038
 1099SOL     OW10346   8.934   0.841   9.651  0.1856  0.1770  0.0256
 1099SOL    HW110347   8.993   0.896   9.599 -0.2092  0.8798  0.2946
 1099SOL    HW210348   8.848   0.855   9.612 -0.1085  0.6805  0.8217
 1100SOL     OW10349   0.464   6.449   6.631 -0.1631 -0.0964  0.4423
 1100SOL    HW110350   0.430   6.366   6.600  0.5991 -1.0811  2.0949
 1100SOL    HW210351   0.557   6.446   6.608  0.2053 -0.4298  1.9002
 1101SOL     OW10352   2.403  12.289   3.501  0.6022 -0.0868 -0.3023
 1101SOL    HW110353   2.372  12.377   3.480 -0.1393  0.1590  1.6629
 1101SOL    HW210354   2.343  12.230   3.455 -0.0377  0.4272 -0.1319
 1102SOL     OW10355   2.423   0.555   7.016 -0.1190 -0.0811 -0.3005
 1102SOL    HW110356   2.433   0.480   6.957  0.1407 -1.2488  1.1614
 1102SOL    HW210357   2.364   0.614   6.969  0.8385 -0.5043 -2.1218
 1103SOL     OW10358  10.690  11.439   1.663  0.0271  0.3366 -0.0628
 1103SOL    HW110359  10.705  11.452   1.756  1.4126 -0.1050 -0.2042
 1103SOL    HW210360  10.776  11.417   1.627 -0.5674  0.0093 -1.3626
 1104SOL     OW10361   8.496   0.514   1.657  0.5093 -0.2431 -0.2732
 1104SOL    HW110362   8.550   0.575   1.708 -0.2556  0.3860 -0.1879
 1104SOL    HW210363   8.480   0.560   1.574  0.5396 -0.6463 -0.5044
 1105SOL     OW10364  10.109   2.967   8.486 -0.6841 -0.1212  0.1264
 1105SOL    HW110365  10.046   2.905   8.524  0.8201 -1.3889  0.6759
 1105SOL    HW210366  10.120   2.937   8.395 -1.6304  0.7453 -0.2901
 1106SOL     OW10367  11.036   1.982   5.886 -0.1842  0.2615 -0.1057
 1106SOL    HW110368  10.968   2.043   5.915 -0.1642  0.2522 -0.0384
 1106SOL    HW210369  11.104   2.037   5.849  0.1913  0.3353  0.6787
 1107SOL     OW10370   8.662  11.778   7.491 -0.6031 -0.2665  0.0850
 1107SOL    HW110371   8.755  11.759   7.487 -0.3633  0.6829  0.8584
 1107SOL    HW210372   8.624  11.726   7.420  0.4227 -1.1220  0.1360
 1108SOL     OW10373  11.084  10.773  11.343 -0.6654  0.5385  0.0830
 1108SOL    HW110374  11.110  10.724  11.265  0.5563  2.0436 -0.5106
 1108SOL    HW210375  11.147  10.745  11.410 -1.7761 -0.8274  0.5855
 1109SOL     OW10376   2.782   9.653   3.939  0.3516 -0.5644  0.2189
 1109SOL    HW110377   2.751   9.711   4.009  0.8721 -2.7275  2.3849
 1109SOL    HW210378   2.708   9.648   3.878 -1.7671 -1.6516  2.6658
 1110SOL     OW10379  10.676   0.097   4.901 -0.2182  0.1315  0.1613
 1110SOL    HW110380  10.712   0.012   4.875 -1.8997 -0.7453  0.5394
 1110SOL    HW210381  10.694   0.154   4.826  0.5852 -0.6574 -0.2696
 1111SOL     OW10382   5.685  11.546   5.119  0.1491 -0.0219 -0.4843
 1111SOL    HW110383   5.659  11.635   5.138  1.3973  0.2171  0.1762
 1111SOL    HW210384   5.682  11.540   5.023 -0.7393  0.4561 -0.4957
 1112SOL     OW10385  11.612   1.255   6.548 -0.0171 -0.6299 -0.0662
 1112SOL    HW110386  11.635   1.165   6.525 -3.2388 -2.1618  1.9788
 1112SOL    HW210387  11.626   1.305   6.468  0.7478 -3.1665 -1.6293
 1113SOL     OW10388  11.223   1.244   7.038 -0.2800  0.0948 -0.3701
 1113SOL    HW110389  11.258   1.318   6.988 -0.1045 -0.3461 -0.9061
 1113SOL    HW210390  11.134   1.270   7.060 -0.4353  0.2119 -1.0965
 1114SOL     OW10391   6.579   0.044   6.185  0.2407 -0.3126 -0.0556
 1114SOL    HW110392   6.603   0.124   6.139 -0.4472  1.2218  2.1432
 1114SOL    HW210393   6.509   0.006   6.131 -0.3372  1.2651 -0.4804
 1115SOL     OW10394   6.553   0.098  12.268  0.3620  0.2158  0.0272
 1115SOL    HW110395   6.501   0.147  12.204  0.6458  0.4184 -0.0545
 1115SOL    HW210396   6.615   0.048  12.215  1.3641  1.2610  0.1649
 1116SOL     OW10397   8.196   1.663   3.514  0.2513 -0.3862  0.0107
 1116SOL    HW110398   8.106   1.655   3.484  0.3318  1.1823 -0.7335
 1116SOL    HW210399   8.221   1.753   3.494  1.0557  0.1140  2.7537
 1117SOL     OW10400   0.458   6.636  11.226  1.1093 -0.0704 -0.3094
 1117SOL    HW110401   0.456   6.568  11.294 -0.4051  0.9399  0.7007
 1117SOL    HW210402   0.367   6.659  11.211  1.5619  1.5263 -0.8489
 1118SOL     OW10403   9.067   2.521   5.887 -0.2787 -0.3395  0.1585
 1118SOL    HW110404   9.039   2.442   5.933 -0.7153 -1.2069 -1.5102
 1118SOL    HW210405   9.095   2.489   5.801  0.2277  1.2468 -0.2889
 1119SOL     OW10406   5.927   4.949   6.513 -0.4418 -0.0838 -0.2559
 1119SOL    HW110407   6.012   4.926   6.477  0.0030 -0.0599  0.7546
 1119SOL    HW210408   5.891   5.012   6.450  0.6192  0.4951 -0.3138
 1120SOL     OW10409  10.640   1.091  10.771  0.0401  0.0652  0.2095
 1120SOL    HW110410  10.631   1.023  10.838  1.9077  0.4005  0.8508
 1120SOL    HW210411  10.630   1.044  10.688  0.8720 -0.9356  0.6573
 1121SOL     OW10412   0.298   4.669   4.717  0.4613  0.4135 -0.4447
 1121SOL    HW110413   0.276   4.672   4.810  0.4610 -1.0704 -0.3659
 1121SOL    HW210414   0.264   4.751   4.681 -1.8919 -0.1269  0.3873
 1122SOL     OW10415   1.952   1.496   5.010  0.1099 -0.4890 -0.0707
 1122SOL    HW110416   2.046   1.512   5.022  0.0149  0.3316 -0.3601
 1122SOL    HW210417   1.922   1.569   4.955 -1.0461  0.2492  1.4465
 1123SOL     OW10418   2.922   8.301   1.762  0.0617 -0.4275 -0.0066
 1123SOL    HW110419   2.980   8.317   1.836  0.7446 -0.2442 -0.5772
 1123SOL    HW210420   2.922   8.205   1.753  1.4913 -0.3680 -0.9443
 1124SOL     OW10421   8.686   7.569   2.202  0.4737  0.7693  0.3049
 1124SOL    HW110422   8.591   7.566   2.192  0.4575 -1.0976  0.6640
 1124SOL    HW210423   8.700   7.620   2.282 -0.1007  2.5614 -0.6831
 1125SOL     OW10424   2.130   4.020  12.392 -0.3057  0.1935 -0.3551
 1125SOL    HW110425   2.203   3.986  12.340  1.0494 -0.3110  1.7551
 1125SOL    HW210426   2.086   3.941  12.425 -1.3754  0.4999 -1.0151
 1126SOL     OW10427   5.918   7.115   3.773 -0.0250  0.4781 -0.2868
 1126SOL    HW110428   5.934   7.021   3.773  0.0569  0.4726  1.2604
 1126SOL    HW210429   5.847   7.127   3.710  0.0117 -0.6015 -0.5514
 1127SOL     OW10430   7.324   3.613   2.315  0.3459 -0.2859 -0.0398
 1127SOL    HW110431   7.290   3.566   2.391 -0.6517 -1.8551 -1.3706
 1127SOL    HW210432   7.416   3.588   2.310  0.2045 -0.8649  0.1750
 1128SOL     OW10433   4.986   4.116   4.044 -0.0528 -0.0343 -0.3514
 1128SOL    HW110434   4.922   4.180   4.076 -0.4499 -1.5015  2.0040
 1128SOL    HW210435   4.938   4.063   3.982 -1.5507 -1.7155  2.0781
 1129SOL     OW10436   6.123   2.256   2.248  0.3841 -0.8309  0.2474
 1129SOL    HW110437   6.130   2.190   2.317  1.1254  1.5849  2.6736
 1129SOL    HW210438   6.213   2.270   2.219  0.1381 -1.4310 -0.8225
 1130SOL     OW10439  10.225  11.919   1.432 -0.5580 -0.1474 -0.2067
 1130SOL    HW110440  10.251  11.944   1.521 -1.8212  1.0882 -0.1537
 1130SOL    HW210441  10.307  11.891   1.391  0.1179 -0.3620  1.2125
 1131SOL     OW10442   6.841   3.434   2.311  0.3050 -0.9798 -0.1555
 1131SOL    HW110443   6.858   3.388   2.229 -0.0475 -0.7400 -0.3631
 1131SOL    HW210444   6.922   3.483   2.328 -0.4640  0.9868 -1.6853
 1132SOL     OW10445   4.103  12.504   6.693 -0.5143  0.4807  0.0510
 1132SOL    HW110446   4.139  12.416   6.703  2.4891  1.5003 -0.9472
 1132SOL    HW210447   4.070  12.506   6.603  0.6534  0.7658 -0.3800
 1133SOL     OW10448   8.870   1.894   2.863  0.1422  0.1623  0.1671
 1133SOL    HW110449   8.945   1.862   2.814 -0.1455  1.6238 -1.3068
 1133SOL    HW210450   8.907   1.949   2.932  0.6983 -3.5613  3.1876
 1134SOL     OW10451   0.180   9.553   4.180 -0.6996 -0.3181  0.2651
 1134SOL    HW110452   0.208   9.466   4.209 -0.7107 -0.2859  0.3726
 1134SOL    HW210453   0.085   9.546   4.173 -0.5077 -1.3706 -3.1031
 1135SOL     OW10454   6.285   0.281   5.862  0.5671  0.0677 -0.0506
 1135SOL    HW110455   6.209   0.236   5.899  0.3006  0.4947 -0.0709
 1135SOL    HW210456   6.360   0.238   5.902  0.2890  0.3208  0.7507
 1136SOL     OW10457   0.436  11.375   7.556 -0.4420  0.2541  1.0983
 1136SOL    HW110458   0.446  11.372   7.461  1.7888 -4.2936  1.2148
 1136SOL    HW210459   0.366  11.312   7.575 -0.5572  0.7602  2.5055
 1137SOL     OW10460   8.041   3.216   6.168 -0.0622  0.5717  0.3086
 1137SOL    HW110461   8.069   3.304   6.144  0.5081  0.2192 -0.3611
 1137SOL    HW210462   7.994   3.184   6.092  1.3604 -0.3807 -0.2190
 1138SOL     OW10463  10.470   7.272   8.725  0.1574 -0.0260 -0.2400
 1138SOL    HW110464  10.492   7.363   8.743 -1.7796  0.6637 -1.1540
 1138SOL    HW210465  10.415   7.275   8.647  0.5690 -2.0564 -0.6815
 1139SOL     OW10466   8.830   4.890   4.077  0.3907 -0.6498 -0.0373
 1139SOL    HW110467   8.774   4.813   4.075  0.6489 -0.8528  0.4436
 1139SOL    HW210468   8.771   4.964   4.065  0.1240 -0.9103 -0.3401
 1140SOL     OW10469   0.247   2.468  12.153  0.4660  0.8936  0.2994
 1140SOL    HW110470   0.243   2.564  12.151 -1.7435  0.8605  0.7153
 1140SOL    HW210471   0.232   2.442  12.062 -0.9496  0.9521  0.4874
 1141SOL     OW10472  10.254  12.387  10.634  0.0899  0.2859  0.4090
 1141SOL    HW110473  10.218  12.331  10.566 -0.5305 -1.1453  1.8641
 1141SOL    HW210474  10.346  12.398  10.610 -0.0739 -0.3567 -0.5438
 1142SOL     OW10475  11.914   7.949   3.381 -0.2867 -0.5227  0.4419
 1142SOL    HW110476  11.900   8.038   3.351  1.9041 -0.2539  0.0055
 1142SOL    HW210477  11.958   7.959   3.466 -0.7114 -1.2057  0.7554
 1143SOL     OW10478   8.739   7.241   3.589 -0.5202  0.4548  0.0113
 1143SOL    HW110479   8.824   7.260   3.550  0.0807 -1.8249  0.1075
 1143SOL    HW210480   8.747   7.271   3.680 -0.1613  1.0921 -0.2220
 1144SOL     OW10481   0.757   5.197   9.836 -0.0781 -0.2039  0.0503
 1144SOL    HW110482   0.698   5.260   9.879  1.4042  1.8708 -0.7767
 1144SOL    HW210483   0.844   5.235   9.846  0.5344 -0.3770 -3.3465
 1145SOL     OW10484   6.506   9.382  10.908 -0.5093  0.0242 -0.0013
 1145SOL    HW110485   6.513   9.287  10.921  0.3131  0.1689  0.7338
 1145SOL    HW210486   6.531   9.419  10.992 -0.4199  0.9082 -0.4089
 1146SOL     OW10487   0.531   9.819   6.308 -0.3518  0.4026 -0.2651
 1146SOL    HW110488   0.597   9.771   6.359 -0.0890  0.2556 -0.7404
 1146SOL    HW210489   0.470   9.852   6.374 -0.3162 -0.2430  0.1015
 1147SOL     OW10490   8.560   2.292   1.104  0.0077  0.3002  0.2404
 1147SOL    HW110491   8.594   2.256   1.022 -1.4832  2.6797 -1.5263
 1147SOL    HW210492   8.624   2.358   1.130  0.1942 -0.0588  0.7071
 1148SOL     OW10493   8.188   0.185   4.508  1.2343  0.1258  0.6042
 1148SOL    HW110494   8.222   0.116   4.452  1.0978  2.3520 -2.5190
 1148SOL    HW210495   8.104   0.209   4.467  0.5608  1.1513  2.4633
 1149SOL     OW10496   5.589  10.301   1.989  0.0992 -1.1140  0.3717
 1149SOL    HW110497   5.644  10.372   1.954  1.2425 -1.3150  1.6666
 1149SOL    HW210498   5.507  10.345   2.013  0.3986 -0.4323  0.1836
 1150SOL     OW10499   4.274   7.468  10.322  0.3520 -0.1279  0.0277
 1150SOL    HW110500   4.278   7.556  10.286 -0.1686 -0.5789 -1.2142
 1150SOL    HW210501   4.180   7.452  10.335  0.4625 -0.3910  0.5117
 1151SOL     OW10502   3.322   2.045   4.211  0.6501 -0.5059  0.3747
 1151SOL    HW110503   3.255   2.099   4.253 -0.7038 -0.3978 -1.7158
 1151SOL    HW210504   3.277   1.962   4.192  1.2669 -0.6521 -0.5274
 1152SOL     OW10505   0.361   7.573   0.972  0.0102 -0.2622 -0.4570
 1152SOL    HW110506   0.404   7.658   0.975  0.1806 -0.3613  0.2093
 1152SOL    HW210507   0.375   7.541   0.883  1.0535 -0.1574 -0.3402
 1153SOL     OW10508   6.854   3.281   2.086  0.5608 -0.1107  0.5495
 1153SOL    HW110509   6.856   3.190   2.117 -1.7941 -0.2104  0.5913
 1153SOL    HW210510   6.775   3.285   2.031  0.4381  2.0040  0.8278
 1154SOL     OW10511   1.027   0.414   5.123 -1.0602 -0.1774 -0.1909
 1154SOL    HW110512   0.993   0.325   5.113 -0.9213 -0.1111 -1.3325
 1154SOL    HW210513   1.048   0.442   5.035  0.5443  0.3578  0.3282
 1155SOL     OW10514   2.409   6.836   0.483 -0.6022  0.4088  0.1115
 1155SOL    HW110515   2.466   6.879   0.419 -1.5510  1.1536 -0.2384
 1155SOL    HW210516   2.320   6.856   0.454 -1.0472  0.0642  1.1974
 1156SOL     OW10517   7.103   0.901   5.659  0.2307  0.3234  0.1332
 1156SOL    HW110518   7.117   0.965   5.589 -1.2822  2.1132  1.3636
 1156SOL    HW210519   7.103   0.953   5.740 -1.9149 -1.0427  1.1155
 1157SOL     OW10520  11.809   6.036   1.847 -0.2150  0.0672  0.0396
 1157SOL    HW110521  11.872   5.988   1.901  0.1861 -1.0972 -1.3991
 1157SOL    HW210522  11.863   6.084   1.784 -0.7196  0.5020 -0.0687
 1158SOL     OW10523  11.077   3.222   3.552  0.0500  0.6350 -0.3574
 1158SOL    HW110524  11.124   3.298   3.588 -1.6145  0.9954  1.2111
 1158SOL    HW210525  10.985   3.242   3.568 -0.5011 -1.1419 -1.1233
 1159SOL     OW10526   9.606   6.517   8.570  0.2826  0.0263  0.3565
 1159SOL    HW110527   9.689   6.550   8.534 -0.1987  0.6243 -0.2275
 1159SOL    HW210528   9.543   6.527   8.499 -0.2333 -0.7065  0.6981
 1160SOL     OW10529   7.036  12.039  12.334 -0.1392 -0.0229  0.5768
 1160SOL    HW110530   6.945  12.020  12.357 -0.7830  1.0993 -0.8690
 1160SOL    HW210531   7.042  12.022  12.240  1.0298  0.3441  0.5580
 1161SOL     OW10532   2.616   9.566   7.748  0.1983  0.4513  0.4389
 1161SOL    HW110533   2.628   9.643   7.803 -0.4901  0.7021  0.2462
 1161SOL    HW210534   2.529   9.577   7.710  0.1039 -0.4031  0.3879
 1162SOL     OW10535   8.206   6.469   9.584  0.0744 -0.4032  0.0544
 1162SOL    HW110536   8.238   6.416   9.657 -2.0677  2.1236  3.0675
 1162SOL    HW210537   8.111   6.458   9.586 -0.2568  1.8861 -0.5449
 1163SOL     OW10538  10.137   3.189   2.805 -0.1886  0.6530  0.1255
 1163SOL    HW110539  10.196   3.242   2.859  0.2160 -0.2484  0.5959
 1163SOL    HW210540  10.050   3.223   2.825  0.1419  1.9446 -0.5058
 1164SOL     OW10541   5.138   5.579   7.184 -0.0298  0.2068 -0.1985
 1164SOL    HW110542   5.203   5.510   7.196 -0.9237 -0.2827  2.4077
 1164SOL    HW210543   5.171   5.653   7.235  0.0028  1.0927 -1.4537
 1165SOL     OW10544   2.452  11.321  12.516  0.1683  0.2302 -0.3376
 1165SOL    HW110545   2.391  11.305  12.588  1.5778 -0.1555  0.8168
 1165SOL    HW210546   2.432  11.409  12.486  0.9136  1.2406  1.9450
 1166SOL     OW10547   6.338   4.799   0.539 -0.4392 -0.1471  0.3543
 1166SOL    HW110548   6.248   4.793   0.507 -1.0975 -0.8101  2.1992
 1166SOL    HW210549   6.342   4.883   0.585 -0.0816 -0.0904  0.2263
 1167SOL     OW10550   3.448   4.024   1.137  0.1462 -0.4473 -0.2567
 1167SOL    HW110551   3.464   3.946   1.190 -2.0851 -0.5184  0.3909
 1167SOL    HW210552   3.470   3.997   1.048 -0.9789 -1.9859 -0.1153
 1168SOL     OW10553   0.810   5.893   7.975 -0.1614  0.5508  0.0377
 1168SOL    HW110554   0.836   5.844   8.053  1.6714  0.0885 -0.7995
 1168SOL    HW210555   0.817   5.985   8.001 -1.6489  0.4184  1.0156
 1169SOL     OW10556   2.660   7.249  12.040  0.8924  0.4080  0.3421
 1169SOL    HW110557   2.622   7.331  12.071  1.4529  0.7805  0.0470
 1169SOL    HW210558   2.617   7.182  12.093  0.2842  0.8688  0.4520
 1170SOL     OW10559  10.385   0.448   1.757 -0.6036 -0.2246  0.0838
 1170SOL    HW110560  10.291   0.464   1.756 -0.4042  1.0744 -0.7610
 1170SOL    HW210561  10.399   0.381   1.690 -0.8173  0.3686 -0.5635
 1171SOL     OW10562   4.115   1.581  11.619 -0.2804  0.2992  0.0858
 1171SOL    HW110563   4.134   1.620  11.534  0.1440 -0.5415 -0.2166
 1171SOL    HW210564   4.024   1.604  11.637 -0.8470 -0.7373 -1.2852
 1172SOL     OW10565   6.666   1.981   2.991  0.3738 -0.2267  0.1258
 1172SOL    HW110566   6.714   1.903   2.964  2.8749  1.6666 -1.3199
 1172SOL    HW210567   6.727   2.030   3.046 -0.5834  1.3738 -0.1720
 1173SOL     OW10568   6.018   4.581  12.321  0.2885  0.6164  0.0258
 1173SOL    HW110569   5.941   4.623  12.362 -0.6513 -0.0788 -0.9783
 1173SOL    HW210570   6.072   4.655  12.292  0.5509  1.1243  1.6827
 1174SOL     OW10571   5.083   2.994   3.839  0.3382 -0.0784  0.5213
 1174SOL    HW110572   5.078   3.012   3.745 -1.6229 -0.0982  0.5863
 1174SOL    HW210573   5.167   2.951   3.851 -0.0141 -1.4305 -1.4682
 1175SOL     OW10574   2.222  10.061  10.421 -0.6776  0.0848  0.1130
 1175SOL    HW110575   2.214  10.123  10.494 -1.2905 -1.3491  1.3022
 1175SOL    HW210576   2.171   9.985  10.448 -0.0794 -0.8896 -1.3841
 1176SOL     OW10577   7.625   4.203  12.435  0.2311 -0.2042  0.4542
 1176SOL    HW110578   7.703   4.150  12.449  1.1052  1.1169  0.8435
 1176SOL    HW210579   7.644   4.286  12.479 -0.8224  0.6628 -0.6318
 1177SOL     OW10580   9.024   7.024   7.586 -0.1745 -0.2347  0.4150
 1177SOL    HW110581   9.113   7.053   7.566 -0.7904  1.0902 -0.5795
 1177SOL    HW210582   9.024   6.930   7.565  1.7067 -0.9397  3.1373
 1178SOL     OW10583  10.487  10.942  10.670  0.0551 -0.2921  0.4616
 1178SOL    HW110584  10.444  11.027  10.681 -1.3429 -1.0845  1.4428
 1178SOL    HW210585  10.481  10.924  10.576 -2.5562 -0.7317  0.6410
 1179SOL     OW10586  10.003   3.714   9.809 -0.3107 -0.5224 -0.1104
 1179SOL    HW110587  10.056   3.691   9.732  0.0166 -1.4146  0.3771
 1179SOL    HW210588   9.934   3.649   9.810 -0.6325 -0.1793  0.0491
 1180SOL     OW10589  12.342  10.471   5.497  0.7199 -0.2687  0.1912
 1180SOL    HW110590  12.299  10.500   5.578  2.3406 -0.6860  1.2454
 1180SOL    HW210591  12.434  10.463   5.520  1.3093  0.0740 -1.8591
 1181SOL     OW10592   8.984   5.531   5.759 -0.0153  0.2522  0.1229
 1181SOL    HW110593   9.064   5.578   5.737 -0.6239  0.7299 -1.1524
 1181SOL    HW210594   8.996   5.504   5.850  1.6402  0.2061 -0.0877
 1182SOL     OW10595   0.519   2.043  10.360 -0.0305 -0.3630 -0.1649
 1182SOL    HW110596   0.607   2.018  10.333  0.0132 -0.2542 -0.1230
 1182SOL    HW210597   0.481   1.963  10.397  1.2769  0.3837  3.1267
 1183SOL     OW10598   7.512   6.610   6.219 -0.0137  0.0001 -0.0903
 1183SOL    HW110599   7.581   6.618   6.152  0.3212 -0.2355  0.2257
 1183SOL    HW210600   7.556   6.629   6.301 -0.3887  0.1093  0.0890
 1184SOL     OW10601   0.445   2.906  12.007 -0.5805 -0.5542 -0.1044
 1184SOL    HW110602   0.423   2.833  11.949  0.4273  0.2359 -1.5450
 1184SOL    HW210603   0.484   2.971  11.949 -0.6093  0.7531  1.3024
 1185SOL     OW10604   1.196   0.823   0.882 -0.6941 -0.1653  0.2923
 1185SOL    HW110605   1.205   0.762   0.955 -1.8931  0.0985  0.6734
 1185SOL    HW210606   1.186   0.909   0.923 -1.0936  0.0197 -0.1900
 1186SOL     OW10607   8.804   9.587   1.008 -0.0954 -0.1041 -0.1097
 1186SOL    HW110608   8.855   9.522   0.960  0.2638  0.4363 -0.4768
 1186SOL    HW210609   8.804   9.664   0.952 -1.3924 -0.1091 -0.1482
 1187SOL     OW10610   0.390  12.077  12.403 -0.4125  0.1630 -0.2554
 1187SOL    HW110611   0.389  12.085  12.308 -1.8614 -0.5625 -0.3359
 1187SOL    HW210612   0.483  12.067  12.426 -0.1707 -1.7051 -1.7966
 1188SOL     OW10613   0.983  11.770  11.299  0.1917  0.1378 -0.2764
 1188SOL    HW110614   0.950  11.730  11.379 -1.3162  2.1347  0.1629
 1188SOL    HW210615   0.907  11.810  11.258  0.9324 -0.6611 -2.6762
 1189SOL     OW10616  11.890   8.113   8.042 -0.0226 -0.0377  0.1121
 1189SOL    HW110617  11.948   8.077   8.108  0.4698  0.8709  0.1984
 1189SOL    HW210618  11.819   8.154   8.092 -0.2508 -0.3328  0.0346
 1190SOL     OW10619   9.168  12.070   6.628 -0.0383 -0.1130  0.3533
 1190SOL    HW110620   9.162  12.166   6.624  2.1326  0.1064  0.9034
 1190SOL    HW210621   9.125  12.046   6.710 -2.9214  0.0678 -0.9973
 1191SOL     OW10622   8.106   9.737  12.248 -0.1231 -0.3666  0.6549
 1191SOL    HW110623   8.177   9.729  12.184 -1.0122 -0.3552 -0.3516
 1191SOL    HW210624   8.041   9.793  12.206 -0.5849 -0.0717  1.7091
 1192SOL     OW10625   0.229  12.048   0.472 -0.0151  0.2312 -0.1420
 1192SOL    HW110626   0.217  11.970   0.526  2.3693  0.0176  0.1823
 1192SOL    HW210627   0.259  12.014   0.387  0.0693  0.7540 -0.3268
 1193SOL     OW10628   9.988   5.880   3.537  0.8257  0.1941 -0.3313
 1193SOL    HW110629  10.072   5.906   3.499 -0.2862 -0.1951 -3.3202
 1193SOL    HW210630   9.979   5.787   3.514 -0.6390  0.3740 -0.6135
 1194SOL     OW10631   1.728   7.839   6.045 -0.7364  0.3040  0.2051
 1194SOL    HW110632   1.796   7.839   6.112  0.1551 -2.1980 -0.6090
 1194SOL    HW210633   1.684   7.755   6.055 -1.4368  0.4208 -1.5334
 1195SOL     OW10634   4.613   0.567   8.166 -0.1803  0.5527 -0.0679
 1195SOL    HW110635   4.565   0.603   8.240 -0.1851 -0.6920  0.5602
 1195SOL    HW210636   4.587   0.621   8.091 -2.4418  0.0296  0.2692
 1196SOL     OW10637   7.302   0.282  11.252 -0.4900  0.1183  0.7943
 1196SOL    HW110638   7.241   0.210  11.234 -0.2101 -0.3620  1.7250
 1196SOL    HW210639   7.253   0.341  11.308 -0.3182  0.0536  1.0135
 1197SOL     OW10640  11.037   6.710  12.277  1.0582  0.0087 -0.2189
 1197SOL    HW110641  11.085   6.770  12.334  0.5301  0.1117  0.1231
 1197SOL    HW210642  11.105   6.664  12.228  1.6029 -1.0197  1.4095
 1198SOL     OW10643   9.891   9.375   9.653 -0.2895  0.0215  0.9491
 1198SOL    HW110644   9.810   9.322   9.652  0.2102 -0.7602  0.8541
 1198SOL    HW210645   9.946   9.336   9.585 -0.1627  1.1008  0.4085
 1199SOL     OW10646   2.397   1.224   7.829  0.8670  0.1663 -0.9360
 1199SOL    HW110647   2.420   1.136   7.859 -0.9857  0.4124  1.4542
 1199SOL    HW210648   2.326   1.210   7.765  1.1972 -0.0999 -1.2477
 1200SOL     OW10649   2.026   8.424   3.614  0.5256 -0.2699 -0.0066
 1200SOL    HW110650   1.949   8.372   3.593 -1.0203  0.8507  2.3896
 1200SOL    HW210651   2.047   8.470   3.533 -0.6854 -1.3587 -0.9783
 1201SOL     OW10652   8.803   1.837  11.398 -0.6313  0.3012  0.3569
 1201SOL    HW110653   8.735   1.888  11.442  0.1892  1.2359  0.5767
 1201SOL    HW210654   8.852   1.902  11.347  0.2378 -0.3258  0.3788
 1202SOL     OW10655   8.148  12.170   7.072 -0.3467  0.1726  0.9742
 1202SOL    HW110656   8.244  12.176   7.080 -0.4283 -0.0223  2.2209
 1202SOL    HW210657   8.125  12.092   7.123 -0.9533 -1.1654 -1.2229
 1203SOL     OW10658   6.188  10.465   6.154 -0.1434 -0.4908 -0.4451
 1203SOL    HW110659   6.265  10.410   6.144  0.3106  0.2209 -0.9485
 1203SOL    HW210660   6.201  10.508   6.239  0.9353  1.0005 -1.3235
 1204SOL     OW10661   2.477   6.033   8.981 -0.8665  0.1454  0.2814
 1204SOL    HW110662   2.476   6.083   9.062  1.3127  1.3700 -0.3514
 1204SOL    HW210663   2.558   5.982   8.986 -1.1129 -0.3753 -0.7655
 1205SOL     OW10664   9.620   1.415  11.145 -0.2554  0.1625 -0.8226
 1205SOL    HW110665   9.535   1.391  11.107  0.2675 -0.1654 -1.8249
 1205SOL    HW210666   9.681   1.407  11.072  0.8492 -0.7979  0.1833
 1206SOL     OW10667   5.441   3.322   8.836  0.3959 -0.1141  0.3590
 1206SOL    HW110668   5.381   3.314   8.910  1.2677 -0.4792  1.0298
 1206SOL    HW210669   5.477   3.410   8.843  1.5442 -0.6338  1.2007
 1207SOL     OW10670   9.754   7.339  10.291 -0.0458 -0.0367 -0.0901
 1207SOL    HW110671   9.767   7.421  10.245 -2.3002 -0.5475 -1.8377
 1207SOL    HW210672   9.720   7.364  10.377  0.9314  0.8575  0.0546
 1208SOL     OW10673   9.195   4.042   9.206 -0.0053 -0.3102  0.6763
 1208SOL    HW110674   9.189   3.962   9.154  0.4338 -0.6271  1.0977
 1208SOL    HW210675   9.197   4.012   9.297  0.5484  0.1495  0.8284
 1209SOL     OW10676   6.161   3.946   2.916 -0.2155  0.3849  0.0936
 1209SOL    HW110677   6.222   3.908   2.980  0.4806 -2.6920 -2.1483
 1209SOL    HW210678   6.214   3.957   2.837 -2.1677 -1.2117 -1.5680
 1210SOL     OW10679   5.917   0.742   5.306 -0.1843 -0.1817  0.3125
 1210SOL    HW110680   5.995   0.703   5.344 -0.0057 -0.6316 -0.5067
 1210SOL    HW210681   5.929   0.836   5.320 -0.6791 -0.3685  2.4034
 1211SOL     OW10682   1.465   3.766   5.586 -0.8331 -0.2160 -0.3634
 1211SOL    HW110683   1.497   3.676   5.578 -0.1882  0.1699 -3.3275
 1211SOL    HW210684   1.442   3.792   5.496  0.4527  3.0672  0.0859
 1212SOL     OW10685   2.232   7.673   1.695 -0.2085  0.0623  0.4184
 1212SOL    HW110686   2.287   7.655   1.771 -0.1332 -0.6508  0.2082
 1212SOL    HW210687   2.268   7.617   1.626  0.2990  1.3632 -0.4197
 1213SOL     OW10688   9.116   2.366   3.355 -0.1443 -0.3076 -0.2143
 1213SOL    HW110689   9.143   2.445   3.402  0.5631 -1.0728  0.6945
 1213SOL    HW210690   9.187   2.349   3.293  0.1038 -0.6940  0.1718
 1214SOL     OW10691  12.407   1.692   8.201  0.0052 -0.1601  0.2839
 1214SOL    HW110692  12.332   1.648   8.240 -1.3009 -0.8712 -2.7480
 1214SOL    HW210693  12.473   1.624   8.191 -0.4561 -0.4906 -0.6098
 1215SOL     OW10694  12.540   3.422  10.239  0.4382 -0.4853  0.0578
 1215SOL    HW110695  12.613   3.368  10.210  0.8010 -0.7410  1.4144
 1215SOL    HW210696  12.465   3.389  10.189  1.2524 -0.0901 -1.4909
 1216SOL     OW10697  11.287   6.901   0.889 -0.3157  0.3569 -0.0124
 1216SOL    HW110698  11.238   6.855   0.957 -0.8619  0.5457 -0.2728
 1216SOL    HW210699  11.371   6.922   0.930  0.1920 -1.3950 -0.0715
 1217SOL     OW10700   3.042   7.466   7.225  0.5125 -0.0219 -0.1357
 1217SOL    HW110701   3.075   7.556   7.216 -0.5021  0.5894  1.8333
 1217SOL    HW210702   2.947   7.474   7.217  0.4876 -1.1496 -1.3218
 1218SOL     OW10703   9.722   8.255   7.297  0.4062 -0.3946  0.0840
 1218SOL    HW110704   9.653   8.282   7.357 -0.5378 -0.4365 -0.9403
 1218SOL    HW210705   9.708   8.161   7.284 -0.3429 -0.1185 -1.3237
 1219SOL     OW10706   7.094   7.164   0.644 -0.1201  0.0712  0.4556
 1219SOL    HW110707   7.054   7.079   0.627  2.6381 -1.3560  0.5097
 1219SOL    HW210708   7.162   7.146   0.709 -0.0141  2.4943  1.1109
 1220SOL     OW10709   5.531   3.150   5.877 -0.4314  0.6167 -0.0359
 1220SOL    HW110710   5.490   3.236   5.861  0.7910  1.3300  0.5363
 1220SOL    HW210711   5.489   3.092   5.814  0.2088  2.0921 -1.9385
 1221SOL     OW10712   9.573   3.395  10.370 -0.1288 -0.1653  0.2077
 1221SOL    HW110713   9.608   3.483  10.362 -1.4105  0.2751 -0.9726
 1221SOL    HW210714   9.512   3.386  10.296 -1.9322 -1.1193  1.7109
 1222SOL     OW10715   4.723   9.762   5.654 -0.0040  0.6398  0.4656
 1222SOL    HW110716   4.790   9.814   5.700 -0.9033  0.4409  2.1066
 1222SOL    HW210717   4.735   9.783   5.562  1.6536  1.3851  0.8122
 1223SOL     OW10718  11.920   1.113   7.906  0.8875 -0.0732 -0.0860
 1223SOL    HW110719  11.878   1.088   7.989 -0.9595  2.0158 -0.2888
 1223SOL    HW210720  12.011   1.086   7.917 -0.0885 -3.5747  0.9585
 1224SOL     OW10721   8.527   2.412   3.360 -0.3982 -0.1477 -0.4909
 1224SOL    HW110722   8.478   2.342   3.404  1.0095 -0.4871  0.6346
 1224SOL    HW210723   8.552   2.472   3.430 -0.5917  0.8743 -1.2764
 1225SOL     OW10724   5.797  11.007   6.978  0.6631  0.0334  0.2310
 1225SOL    HW110725   5.772  10.919   7.007 -2.2371  0.4756 -0.5972
 1225SOL    HW210726   5.730  11.064   7.015  1.4150  1.6490 -0.8085
 1226SOL     OW10727   1.009   5.208   3.811  0.1853 -0.3143 -0.4839
 1226SOL    HW110728   1.003   5.300   3.787  0.7809 -0.4100 -1.0381
 1226SOL    HW210729   0.928   5.169   3.778  0.1694 -0.0867 -0.7143
 1227SOL     OW10730   9.982   0.197  11.822  0.0305 -0.0232 -0.1155
 1227SOL    HW110731  10.018   0.113  11.794  1.6583  0.7148 -0.3003
 1227SOL    HW210732   9.936   0.230  11.745  0.9468  0.0891 -0.6174
 1228SOL     OW10733  10.497   8.976   0.866 -0.3265  0.2768  0.1356
 1228SOL    HW110734  10.509   9.002   0.775 -1.4371  1.8667  0.4075
 1228SOL    HW210735  10.434   9.039   0.901 -0.3531 -0.6512  1.8527
 1229SOL     OW10736   5.785   4.621   2.320 -0.7522 -0.1224 -0.5104
 1229SOL    HW110737   5.808   4.664   2.238  0.9674  1.7223  0.8567
 1229SOL    HW210738   5.786   4.527   2.299  1.7146  0.1898 -2.1227
 1230SOL     OW10739   9.148  10.508   2.763  1.2519  0.0550  0.0665
 1230SOL    HW110740   9.133  10.574   2.695  1.7026 -0.7413 -0.8514
 1230SOL    HW210741   9.076  10.446   2.753 -0.4214  1.4788  2.3705
 1231SOL     OW10742   7.998   7.090   2.282  0.1881  0.2287 -0.8421
 1231SOL    HW110743   7.932   7.055   2.341  0.2647  0.9678 -0.3051
 1231SOL    HW210744   8.007   7.182   2.308  0.4947  0.4657 -1.7549
 1232SOL     OW10745  10.708   9.185   4.807  0.3206 -0.0367  0.1209
 1232SOL    HW110746  10.630   9.130   4.811 -0.4942  1.0659 -0.2412
 1232SOL    HW210747  10.780   9.124   4.823 -0.5561 -1.1771 -0.1016
 1233SOL     OW10748  10.074   5.961   6.650  0.0820  0.2877  1.0788
 1233SOL    HW110749  10.011   6.011   6.702  1.5396  0.8779  2.3652
 1233SOL    HW210750  10.138   5.930   6.714  1.1582 -0.2013 -0.1952
 1234SOL     OW10751   8.578   5.945  12.553 -0.0643 -0.5498 -0.0794
 1234SOL    HW110752   8.597   5.862  12.597  1.5029  1.1071  2.6616
 1234SOL    HW210753   8.504   5.982  12.601 -0.9023 -0.3960 -1.4219
 1235SOL     OW10754   6.368  11.706   4.306 -0.5089 -0.4879  0.3116
 1235SOL    HW110755   6.362  11.710   4.210  1.0382 -0.7037  0.1685
 1235SOL    HW210756   6.331  11.788   4.336  0.2289  0.1926 -0.5755
 1236SOL     OW10757  11.178   9.724   5.167 -0.0863 -0.0427  0.0815
 1236SOL    HW110758  11.219   9.718   5.253  1.2939  1.4405 -0.4213
 1236SOL    HW210759  11.182   9.817   5.145 -0.0835 -0.4348 -1.7387
 1237SOL     OW10760  10.742   9.618   6.698 -0.2663 -0.0404  0.6032
 1237SOL    HW110761  10.818   9.657   6.739  0.4673 -0.8415  0.0432
 1237SOL    HW210762  10.763   9.525   6.691 -1.3099 -0.2880  0.4805
 1238SOL     OW10763   4.622   0.006   4.983 -0.1051  0.2455  0.4870
 1238SOL    HW110764   4.697   0.060   4.957  1.3313 -0.6824  2.4345
 1238SOL    HW210765   4.551   0.070   4.997  0.8219  1.3479  0.3358
 1239SOL     OW10766  12.471   7.091   9.623 -0.4146  0.2064 -0.5224
 1239SOL    HW110767  12.533   7.021   9.601  1.5403  0.9699  2.0807
 1239SOL    HW210768  12.479   7.154   9.551  2.1114  0.4005 -0.1529
 1240SOL     OW10769   3.634   1.488   0.626 -0.4282 -0.6713 -0.2392
 1240SOL    HW110770   3.697   1.417   0.625  0.7879  0.3826 -1.2943
 1240SOL    HW210771   3.633   1.519   0.717  2.0034  0.4813 -0.5352
 1241SOL     OW10772   0.155   6.105   0.930  0.1911  0.1220  0.5474
 1241SOL    HW110773   0.066   6.128   0.903 -0.9490 -2.7112  1.4783
 1241SOL    HW210774   0.181   6.034   0.871  1.9133  0.9414  0.2427
 1242SOL     OW10775   0.802   8.002  11.650  0.1844  0.3435  0.3941
 1242SOL    HW110776   0.883   8.034  11.610 -0.3374  2.4349  0.9080
 1242SOL    HW210777   0.736   8.067  11.626 -1.9206 -2.3672 -1.8102
 1243SOL     OW10778   6.054   4.638   8.381  0.0918 -0.4549  0.5063
 1243SOL    HW110779   6.074   4.732   8.389  1.4900 -0.7184  0.3392
 1243SOL    HW210780   6.060   4.620   8.287  0.0473 -0.7595  0.5607
 1244SOL     OW10781   8.870   8.975   1.637 -0.0292 -0.1639 -0.5167
 1244SOL    HW110782   8.880   8.906   1.572  0.8092 -2.0386  1.5012
 1244SOL    HW210783   8.783   8.959   1.674  0.5071 -0.6759  0.5341
 1245SOL     OW10784   5.871   2.218  10.598 -0.0154  0.3163 -0.5170
 1245SOL    HW110785   5.957   2.258  10.581 -0.0405  0.3766 -0.5021
 1245SOL    HW210786   5.839   2.263  10.677 -0.2531  0.6053 -0.7731
 1246SOL     OW10787  12.404   9.327  11.802  0.3466 -0.0782  0.4891
 1246SOL    HW110788  12.463   9.303  11.873  0.5614  1.3043  0.8154
 1246SOL    HW210789  12.455   9.388  11.748 -0.3932  0.2636  0.1527
 1247SOL     OW10790   8.709   2.861   3.441 -0.0965  0.1680  0.5445
 1247SOL    HW110791   8.712   2.943   3.490 -0.6745  0.5198  0.0089
 1247SOL    HW210792   8.774   2.872   3.371  0.2957 -0.0945  0.8643
 1248SOL     OW10793   8.996   6.011   9.202 -0.0501  0.5459 -0.0167
 1248SOL    HW110794   8.988   5.967   9.286 -0.0754  0.5471 -0.0185
 1248SOL    HW210795   9.046   6.090   9.221  1.3060 -0.2321 -0.2820
 1249SOL     OW10796   4.778   4.887  11.494  0.4446  0.0576  0.4050
 1249SOL    HW110797   4.742   4.968  11.532 -1.1457 -0.3637 -0.1541
 1249SOL    HW210798   4.743   4.817  11.549 -0.4423 -0.4341 -0.7740
 1250SOL     OW10799   6.145   0.200  12.080 -0.0377 -1.0415  0.1964
 1250SOL    HW110800   6.122   0.250  12.158  0.1355 -0.6849  0.0206
 1250SOL    HW210801   6.063   0.161  12.051 -0.4267  0.1595 -0.3856
 1251SOL     OW10802  10.988  12.437  11.491  0.6982  0.1460  0.1150
 1251SOL    HW110803  10.941  12.354  11.481 -0.4575  0.6882  0.8192
 1251SOL    HW210804  11.068  12.414  11.538 -0.4212 -0.3472  1.8841
 1252SOL     OW10805   4.402   4.439  11.931  0.1657  0.4042  0.1147
 1252SOL    HW110806   4.404   4.518  11.877  2.4872  0.6817  0.5247
 1252SOL    HW210807   4.463   4.456  12.002  2.3199 -2.4490 -0.8644
 1253SOL     OW10808  12.123   0.911   0.849  0.7965 -0.2457  0.0873
 1253SOL    HW110809  12.110   0.962   0.929 -0.8365 -0.1008 -0.2319
 1253SOL    HW210810  12.096   0.822   0.872  2.0148 -0.6153  0.1663
 1254SOL     OW10811   5.456  10.636  10.073  0.2476 -0.2169  0.0697
 1254SOL    HW110812   5.530  10.695  10.060  0.0688  0.7443  2.8229
 1254SOL    HW210813   5.381  10.695  10.083 -0.0384 -0.8698  2.2568
 1255SOL     OW10814   1.175   9.012   4.792  0.4152  0.2869 -0.0333
 1255SOL    HW110815   1.160   9.095   4.747 -1.1997 -1.2399 -2.5383
 1255SOL    HW210816   1.263   8.986   4.765  0.5221  0.6938 -0.0808
 1256SOL     OW10817   7.079   8.808   9.481  0.2385 -0.0502 -0.4588
 1256SOL    HW110818   7.137   8.841   9.413  0.7497 -0.9743 -0.4920
 1256SOL    HW210819   7.138   8.779   9.551 -0.2101 -0.4701 -0.2508
 1257SOL     OW10820   6.200   3.985   8.101 -0.5482  0.2051 -0.1899
 1257SOL    HW110821   6.154   3.903   8.089 -0.0451 -0.1172  0.0455
 1257SOL    HW210822   6.263   3.989   8.029 -0.2576  0.1627  0.0597
 1258SOL     OW10823   8.078   9.587   6.589  0.4236  0.2762  0.0062
 1258SOL    HW110824   8.154   9.584   6.530  0.4823 -0.0618  0.0988
 1258SOL    HW210825   8.085   9.672   6.632 -1.0779  1.7554 -2.4138
 1259SOL     OW10826   0.574   4.599  11.329 -0.0437  0.0635 -0.1412
 1259SOL    HW110827   0.505   4.533  11.323  0.0748 -0.2213  1.2087
 1259SOL    HW210828   0.528   4.683  11.326 -0.1632 -0.0234 -2.2845
 1260SOL     OW10829   8.106   8.314  12.214  0.3037  0.5277 -0.3587
 1260SOL    HW110830   8.141   8.274  12.293 -1.9213  0.0962  0.4945
 1260SOL    HW210831   8.141   8.403  12.213  1.4784  0.0836  0.3349
 1261SOL     OW10832   4.343  12.572  12.516 -0.2685  0.2340  0.2710
 1261SOL    HW110833   4.287  12.645  12.491 -0.8589  1.1247  3.7179
 1261SOL    HW210834   4.431  12.609  12.522 -0.6095  0.8479  2.2885
 1262SOL     OW10835   7.236   2.329   4.189  0.0024 -0.0880 -0.4843
 1262SOL    HW110836   7.289   2.408   4.184 -1.5421  0.9602 -1.0405
 1262SOL    HW210837   7.204   2.327   4.279  1.2741 -0.9559 -0.0228
 1263SOL     OW10838   9.599   8.854   1.446 -0.1317 -0.2788  0.2850
 1263SOL    HW110839   9.575   8.829   1.535 -1.1376 -0.8174 -0.1237
 1263SOL    HW210840   9.653   8.932   1.457 -2.2887  1.1650  1.2596
 1264SOL     OW10841   7.283   9.031   0.582  0.0907  0.3947 -0.7296
 1264SOL    HW110842   7.254   8.943   0.557  0.5731 -0.2701  0.9211
 1264SOL    HW210843   7.365   9.043   0.534  1.3905 -1.1645  0.9180
 1265SOL     OW10844   7.151   3.370   2.452  0.0179  0.0365 -0.2588
 1265SOL    HW110845   7.148   3.324   2.368  0.0940  2.2566 -1.5786
 1265SOL    HW210846   7.066   3.353   2.491 -0.7293  0.3497 -1.6491
 1266SOL     OW10847  11.462  11.865   1.484 -0.1825  0.0700  0.2373
 1266SOL    HW110848  11.374  11.865   1.446 -0.3514 -1.6993  0.5527
 1266SOL    HW210849  11.494  11.954   1.469 -2.4281  1.1045  1.1176
 1267SOL     OW10850  12.334   3.321   6.995 -0.2028  0.2612 -0.3795
 1267SOL    HW110851  12.331   3.316   6.899 -0.3829  0.7068 -0.3982
 1267SOL    HW210852  12.242   3.324   7.022 -0.1581  1.8268 -0.2919
 1268SOL     OW10853   6.828   8.629   7.265  0.2039 -0.7816 -0.0435
 1268SOL    HW110854   6.919   8.657   7.258 -0.3552  1.1078 -0.3872
 1268SOL    HW210855   6.810   8.629   7.359  0.0836  0.6480 -0.0366
 1269SOL     OW10856   9.934   8.392   0.856 -0.3730  0.1480 -0.0570
 1269SOL    HW110857   9.956   8.435   0.774  0.5504  0.5000  0.3578
 1269SOL    HW210858   9.956   8.457   0.924  0.5794 -0.7733  0.5505
 1270SOL     OW10859  10.140   4.587   0.829 -1.1675 -0.2272  0.7653
 1270SOL    HW110860  10.195   4.512   0.808 -2.1002 -0.8880  0.5947
 1270SOL    HW210861  10.148   4.645   0.753  0.4945  0.4320  1.4148
 1271SOL     OW10862   5.950   8.448  10.957 -0.5039 -0.4148  0.2540
 1271SOL    HW110863   5.890   8.516  10.987 -0.1693 -0.3798  0.8579
 1271SOL    HW210864   6.020   8.447  11.022 -0.7533 -1.6736  0.5296
 1272SOL     OW10865   1.046   2.680   1.609  0.0329  0.0517 -0.3752
 1272SOL    HW110866   0.970   2.714   1.562 -1.0393 -2.3426 -0.5228
 1272SOL    HW210867   1.067   2.747   1.674 -2.3979  0.6739 -0.1603
 1273SOL     OW10868   7.437   3.008  11.572  0.0163 -0.1489  0.4152
 1273SOL    HW110869   7.382   3.086  11.564 -0.8909 -0.9059 -1.3920
 1273SOL    HW210870   7.378   2.935  11.551  0.7335 -1.3879  2.4923
 1274SOL     OW10871   0.421  10.351   4.776  0.0047 -0.1663 -0.7205
 1274SOL    HW110872   0.427  10.256   4.776  2.3529 -0.1214  1.7756
 1274SOL    HW210873   0.369  10.372   4.853 -0.3720  0.5910 -1.1688
 1275SOL     OW10874   5.523   6.569   9.301 -0.0869  0.4595 -0.1249
 1275SOL    HW110875   5.461   6.496   9.294  0.4495 -0.3564  2.5132
 1275SOL    HW210876   5.607   6.531   9.279  0.0402  0.5607  0.1849
 1276SOL     OW10877   1.811   8.299   4.366 -0.5390  0.3013 -0.0363
 1276SOL    HW110878   1.883   8.362   4.376 -0.5361  0.3198 -0.1679
 1276SOL    HW210879   1.849   8.215   4.389 -0.8817  0.5186  1.4393
 1277SOL     OW10880   4.350   6.224  10.958 -0.2545  0.3140  0.0757
 1277SOL    HW110881   4.344   6.145  10.904 -0.6060  0.2709  0.1733
 1277SOL    HW210882   4.444   6.241  10.966 -0.1768 -0.0949  0.0525
 1278SOL     OW10883  11.110   1.921   0.466  0.1961  0.1199  0.3734
 1278SOL    HW110884  11.197   1.960   0.477  0.0325  1.5157 -2.3775
 1278SOL    HW210885  11.057   1.992   0.431 -1.4939 -1.2923 -0.0481
 1279SOL     OW10886   0.802   4.363  10.800  0.1684 -0.1925  0.7866
 1279SOL    HW110887   0.824   4.430  10.736 -4.0525  2.7299  1.9147
 1279SOL    HW210888   0.849   4.389  10.879 -1.2447  1.4858  1.1414
 1280SOL     OW10889  10.467   5.933   6.750 -0.2189 -0.1942  0.2709
 1280SOL    HW110890  10.488   6.011   6.699  2.1375 -1.1266 -0.3294
 1280SOL    HW210891  10.372   5.937   6.764 -0.4875  1.5821 -1.6850
 1281SOL     OW10892   9.884   9.703   8.638 -0.2129  0.1764  0.0512
 1281SOL    HW110893   9.925   9.774   8.686  0.4565 -0.3935  0.3316
 1281SOL    HW210894   9.901   9.724   8.546  1.4132 -0.4541  0.1787
 1282SOL     OW10895   7.428   8.111   4.203  0.1010  0.1603  0.1477
 1282SOL    HW110896   7.493   8.083   4.139 -0.6882 -1.7232  0.1097
 1282SOL    HW210897   7.475   8.174   4.259  1.1343  0.9095 -1.5001
 1283SOL     OW10898   9.675   2.614   0.220 -0.0449 -0.0335  0.1658
 1283SOL    HW110899   9.595   2.663   0.202 -0.9339 -1.0128  1.3096
 1283SOL    HW210900   9.739   2.681   0.246 -0.3972  0.7817 -0.9669
 1284SOL     OW10901   4.329   0.298   4.177 -0.1623 -0.2742 -0.0216
 1284SOL    HW110902   4.238   0.324   4.162 -0.9078 -1.7544  1.5949
 1284SOL    HW210903   4.352   0.248   4.099  0.3324  2.5507 -1.8271
 1285SOL     OW10904   7.108  11.544  11.405  0.1152 -0.5905 -0.7047
 1285SOL    HW110905   7.190  11.509  11.372  1.3650  0.4740  1.0636
 1285SOL    HW210906   7.086  11.488  11.480 -0.4480 -0.5123 -0.8073
 1286SOL     OW10907   9.676   2.184  12.397  0.5273  0.1807  0.3890
 1286SOL    HW110908   9.693   2.278  12.394  1.7118 -0.0218 -2.3462
 1286SOL    HW210909   9.756   2.145  12.431  0.9006  0.0327 -0.6401
 1287SOL     OW10910   8.194   6.229   7.059 -0.1609 -0.0135 -0.2918
 1287SOL    HW110911   8.199   6.317   7.099  1.8688  0.2061 -0.9285
 1287SOL    HW210912   8.224   6.170   7.128 -1.7874 -0.2915  0.2292
 1288SOL     OW10913  10.191   0.275   3.316  0.5698  0.4262  0.2461
 1288SOL    HW110914  10.130   0.270   3.242 -0.5474  3.2783  0.8480
 1288SOL    HW210915  10.144   0.232   3.387  0.3564  0.3540  0.0643
 1289SOL     OW10916   1.229   8.721   9.984  0.0222  0.3494  0.2464
 1289SOL    HW110917   1.248   8.760  10.069  1.0378  1.1820 -0.3408
 1289SOL    HW210918   1.251   8.789   9.921 -0.6555 -0.2811 -0.6940
 1290SOL     OW10919   7.133   1.019   7.978 -0.2527 -0.4705  0.4529
 1290SOL    HW110920   7.094   0.937   7.950 -1.9968  0.0279  1.2245
 1290SOL    HW210921   7.132   1.074   7.900  1.5265 -1.3512 -0.2336
 1291SOL     OW10922   9.491   3.393   8.759 -0.1491 -0.0275  0.4351
 1291SOL    HW110923   9.464   3.309   8.795 -1.6377 -0.2709 -1.1182
 1291SOL    HW210924   9.584   3.382   8.740 -0.4874 -1.6309 -0.4807
 1292SOL     OW10925   3.512   7.571  10.037 -0.1788 -0.1278  0.4310
 1292SOL    HW110926   3.511   7.523  10.120  0.7510 -0.8867  0.0271
 1292SOL    HW210927   3.517   7.663  10.062 -0.0028 -0.3450  1.2181
 1293SOL     OW10928   5.995   2.128   3.416  0.4188  0.0180  0.3726
 1293SOL    HW110929   5.912   2.165   3.447  0.0977 -0.4317  0.0575
 1293SOL    HW210930   6.046   2.204   3.388  1.1138  0.5702  2.8572
 1294SOL     OW10931   4.360   9.246   3.754 -0.1392 -0.0489  0.2935
 1294SOL    HW110932   4.443   9.282   3.786  0.8561  0.2900 -2.3968
 1294SOL    HW210933   4.314   9.321   3.716 -0.3009 -0.6960 -0.8635
 1295SOL     OW10934  11.727   1.859   7.400 -0.4037  0.2422 -0.3066
 1295SOL    HW110935  11.758   1.771   7.420  0.7068  0.4669 -0.9159
 1295SOL    HW210936  11.775   1.883   7.321  0.9398  2.1888  0.9956
 1296SOL     OW10937   0.701   1.626   3.883  1.1731  0.7180 -0.3626
 1296SOL    HW110938   0.675   1.663   3.798  0.7184  0.8934 -0.1558
 1296SOL    HW210939   0.796   1.619   3.878  1.0119 -1.7739 -1.8962
 1297SOL     OW10940  11.826  11.924   2.350 -0.4767 -0.2252 -0.1423
 1297SOL    HW110941  11.852  11.832   2.342  0.8856  0.0719  0.5875
 1297SOL    HW210942  11.754  11.923   2.414 -0.1821 -0.7437  0.1897
 1298SOL     OW10943   4.851   3.159   6.011 -0.3179  0.4333  0.2175
 1298SOL    HW110944   4.774   3.200   6.052 -0.5940 -1.2193  1.4714
 1298SOL    HW210945   4.816   3.118   5.932 -0.4117  0.9726 -0.0277
 1299SOL     OW10946   7.655   1.196   3.463 -0.1443 -0.3481  0.0759
 1299SOL    HW110947   7.573   1.244   3.450 -0.1293 -0.0826  0.8847
 1299SOL    HW210948   7.628   1.110   3.495 -0.0965  0.0197  1.1502
 1300SOL     OW10949   4.970   7.541   0.273  0.4394  0.0473  0.0930
 1300SOL    HW110950   4.960   7.593   0.194  0.0473 -0.4932 -0.2186
 1300SOL    HW210951   4.974   7.450   0.242  0.4025 -0.1630  0.6812
 1301SOL     OW10952   6.006   6.108  12.545 -0.5527 -0.6546  0.4521
 1301SOL    HW110953   6.029   6.073  12.458 -1.2603 -3.5609  1.3282
 1301SOL    HW210954   6.088   6.104  12.594 -0.9351 -2.7892  1.0166
 1302SOL     OW10955  11.711  12.541  12.550 -0.1509 -0.0747  0.5423
 1302SOL    HW110956  11.764  12.529  12.629  0.5188 -0.5364  0.0314
 1302SOL    HW210957  11.728  12.632  12.524  1.3777 -0.5768 -0.3081
 1303SOL     OW10958   9.194   1.361   3.749  0.0753  0.5272 -1.1952
 1303SOL    HW110959   9.204   1.415   3.827  1.2997 -0.6550 -0.5047
 1303SOL    HW210960   9.121   1.401   3.701  0.4865  2.3403 -0.3640
 1304SOL     OW10961  10.455  12.432   7.840  0.2084 -0.0615  0.0126
 1304SOL    HW110962  10.549  12.444   7.832 -0.0068  0.9415 -1.1450
 1304SOL    HW210963  10.444  12.337   7.843  1.3287 -0.1964  1.4700
 1305SOL     OW10964   1.929   3.707   8.076 -0.7911 -0.4462  0.5065
 1305SOL    HW110965   1.966   3.733   7.992 -1.6116  0.5406  0.4407
 1305SOL    HW210966   1.894   3.787   8.114 -0.2169 -0.8262  1.9207
 1306SOL     OW10967  10.715   0.846   3.958  0.5837  0.4874  0.4547
 1306SOL    HW110968  10.650   0.916   3.955 -0.4754 -0.4703  0.6215
 1306SOL    HW210969  10.753   0.851   4.045 -0.5811 -0.0991  1.0140
 1307SOL     OW10970   8.402   8.882   3.641  0.1238  0.5835 -0.1295
 1307SOL    HW110971   8.366   8.844   3.560  2.2733 -3.2515  0.4381
 1307SOL    HW210972   8.425   8.971   3.617 -1.1204  0.2408 -3.1491
 1308SOL     OW10973   8.680   5.421   7.392  0.4238 -0.0991 -0.2794
 1308SOL    HW110974   8.653   5.366   7.319 -0.2028  0.0517 -0.1646
 1308SOL    HW210975   8.747   5.369   7.437 -0.0672 -0.7210 -0.2441
 1309SOL     OW10976   7.720   0.308   0.400  0.1410 -0.3972  0.5697
 1309SOL    HW110977   7.779   0.382   0.416 -0.1850 -0.2402  1.0642
 1309SOL    HW210978   7.779   0.233   0.390  0.4404 -0.1892  0.7542
 1310SOL     OW10979   6.226  10.410   0.507  0.1526  0.7716  0.7666
 1310SOL    HW110980   6.302  10.418   0.564 -0.0088 -0.2280  1.1528
 1310SOL    HW210981   6.221  10.316   0.488 -1.0008  0.8201  0.7803
 1311SOL     OW10982   9.273   6.101   2.009  0.6220 -0.0897  0.0574
 1311SOL    HW110983   9.233   6.108   2.096  0.7050 -0.3904  0.1195
 1311SOL    HW210984   9.218   6.156   1.953 -0.1411 -0.8481  0.0456
 1312SOL     OW10985  11.698  12.181  10.411  0.8001  0.0201 -0.1704
 1312SOL    HW110986  11.679  12.211  10.500 -1.1582  0.5084 -0.7056
 1312SOL    HW210987  11.715  12.262  10.362  0.4240 -0.1301 -0.5514
 1313SOL     OW10988   1.597   3.645   7.079 -0.9446 -0.4213 -0.1106
 1313SOL    HW110989   1.529   3.709   7.056  0.3180  0.4448 -1.7128
 1313SOL    HW210990   1.650   3.638   6.999  1.7300  0.1015  1.4932
 1314SOL     OW10991   2.378   6.508   7.190  0.3755  0.6103 -0.0525
 1314SOL    HW110992   2.454   6.565   7.174 -0.0959  1.4497  0.6133
 1314SOL    HW210993   2.311   6.542   7.130  0.3733  0.1711 -0.3010
 1315SOL     OW10994  12.505  11.975   3.178  0.6841  0.0779 -0.5345
 1315SOL    HW110995  12.413  12.002   3.179  0.8497  0.6244  0.2344
 1315SOL    HW210996  12.553  12.052   3.148  1.1364  0.6275  1.4775
 1316SOL     OW10997  12.403   6.323   9.309 -0.7442 -0.2817  0.4586
 1316SOL    HW110998  12.479   6.267   9.291 -1.5061 -1.1624 -0.1600
 1316SOL    HW210999  12.377   6.299   9.398  0.9371  1.5570  1.5189
 1317SOL     OW11000   9.347  11.243   3.814  0.3329  0.2306  0.5011
 1317SOL    HW111001   9.434  11.262   3.777  0.6754 -0.5260  0.8929
 1317SOL    HW211002   9.313  11.329   3.840  2.4437  0.3201  3.5406
 1318SOL     OW11003   9.981   6.246   5.748 -0.7795 -0.9946 -0.0023
 1318SOL    HW111004   9.891   6.243   5.714 -1.9868  1.6426  2.4811
 1318SOL    HW211005   9.987   6.170   5.806 -1.1597 -1.5381 -0.6555
 1319SOL     OW11006  10.951   6.503   0.804  0.1467  0.1246 -0.1991
 1319SOL    HW111007  10.901   6.469   0.878 -0.4115  0.6288 -0.3267
 1319SOL    HW211008  10.975   6.426   0.753  1.2538 -0.3116  0.9232
 1320SOL     OW11009   0.702   0.926   7.239 -0.0236  0.3633  0.3920
 1320SOL    HW111010   0.657   0.943   7.322 -2.2136  1.6487 -0.9810
 1320SOL    HW211011   0.651   0.973   7.173  0.9397 -1.6186 -1.9085
 1321SOL     OW11012   8.448   5.948   9.945  0.1259 -0.7986 -0.8643
 1321SOL    HW111013   8.458   5.906   9.859  0.5364 -0.9297 -0.7551
 1321SOL    HW211014   8.538   5.966   9.973 -0.0434  0.4455 -1.0539
 1322SOL     OW11015  11.698   1.346   0.314  0.0124 -0.0092 -0.2884
 1322SOL    HW111016  11.704   1.384   0.227 -0.8169 -1.9673 -1.2642
 1322SOL    HW211017  11.613   1.374   0.347 -1.0536 -1.6885 -1.4197
 1323SOL     OW11018   6.088   7.392   6.673  0.4177 -0.3759  0.4544
 1323SOL    HW111019   6.042   7.463   6.717 -1.4530 -0.5060 -1.1508
 1323SOL    HW211020   6.171   7.431   6.644 -0.2881  0.9859  0.1948
 1324SOL     OW11021   4.243   6.436  12.018 -0.3591  0.4680 -0.5758
 1324SOL    HW111022   4.259   6.348  12.050 -0.5108 -0.2652 -2.4024
 1324SOL    HW211023   4.315   6.489  12.054  0.7695 -0.7846 -0.9178
 1325SOL     OW11024   7.785   3.362   7.444  0.1101  0.1854 -0.6043
 1325SOL    HW111025   7.738   3.282   7.469  1.0866 -0.8294 -1.8479
 1325SOL    HW211026   7.727   3.407   7.384  0.4102 -0.7095 -1.5935
 1326SOL     OW11027  10.067  11.610   0.935 -0.0134 -0.3805 -0.1155
 1326SOL    HW111028  10.143  11.641   0.984 -1.2907 -0.1399  1.8476
 1326SOL    HW211029  10.081  11.515   0.926 -0.1758 -0.5988  1.6133
 1327SOL     OW11030   3.736   4.216   8.114 -0.5003 -0.2069  0.3609
 1327SOL    HW111031   3.672   4.279   8.083  0.8194  0.4080 -1.2529
 1327SOL    HW211032   3.804   4.268   8.156  0.1821 -0.6088 -0.2192
 1328SOL     OW11033   1.788   8.419  10.387  0.2995 -0.2929  0.1596
 1328SOL    HW111034   1.836   8.497  10.361  2.2018 -1.7667 -1.0118
 1328SOL    HW211035   1.838   8.383  10.460 -0.4794 -0.5136  0.6040
 1329SOL     OW11036   3.980   6.827   0.970  0.4114 -0.3532  0.5422
 1329SOL    HW111037   3.948   6.812   0.881  0.6439  0.0636  0.3810
 1329SOL    HW211038   4.003   6.740   1.002 -1.9924 -0.8448  1.1293
 1330SOL     OW11039   1.846  10.411   7.345  0.8183  0.1159 -0.4066
 1330SOL    HW111040   1.844  10.362   7.427  1.6844  0.7350 -0.0104
 1330SOL    HW211041   1.753  10.426   7.325  0.5959  0.4712  0.7761
 1331SOL     OW11042   0.971   8.884   2.724  0.2395  0.0159  0.3794
 1331SOL    HW111043   0.900   8.915   2.668  0.9452  1.0348  0.0311
 1331SOL    HW211044   1.036   8.848   2.663 -0.5943 -2.3155  0.7715
 1332SOL     OW11045  12.117   1.076   0.440 -0.4724  0.1283 -0.1896
 1332SOL    HW111046  12.108   0.981   0.444 -0.4284  0.1276 -0.1111
 1332SOL    HW211047  12.038   1.106   0.395  0.4165 -0.1144 -2.0287
 1333SOL     OW11048   1.646   8.045   4.194  0.2164  0.3981  0.2230
 1333SOL    HW111049   1.621   8.130   4.158 -0.8699  0.1332  0.3059
 1333SOL    HW211050   1.732   8.027   4.157 -0.7199  0.2764 -2.0388
 1334SOL     OW11051   0.053   5.120   1.619 -0.7220  0.6638  0.1588
 1334SOL    HW111052   0.004   5.076   1.549 -2.4620  1.1313  1.0385
 1334SOL    HW211053   0.130   5.157   1.574 -1.1609 -0.0792 -1.2697
 1335SOL     OW11054   7.336   1.817   2.583 -0.0581  0.2549  0.7537
 1335SOL    HW111055   7.340   1.722   2.597  1.4201 -0.1533 -1.8265
 1335SOL    HW211056   7.250   1.832   2.543  0.4766 -0.3386 -0.6795
 1336SOL     OW11057  10.310   7.077   6.915  0.2293 -0.5398  0.7390
 1336SOL    HW111058  10.368   7.002   6.932  1.5042  0.7871  2.7774
 1336SOL    HW211059  10.366   7.153   6.930 -1.2835  0.8348 -0.3233
 1337SOL     OW11060   4.799   5.920   3.568  0.0982 -0.3341 -0.0642
 1337SOL    HW111061   4.893   5.923   3.586 -0.0636  0.7334  0.6858
 1337SOL    HW211062   4.758   5.912   3.654 -0.5282 -0.0901 -0.3367
 1338SOL     OW11063   6.692  12.044   9.431 -0.0429  0.3065  0.0163
 1338SOL    HW111064   6.756  11.980   9.400  0.1239  0.4707  0.0154
 1338SOL    HW211065   6.744  12.122   9.450 -0.3229  0.6422 -0.5692
 1339SOL     OW11066   5.869   5.580   3.109 -0.1076 -0.1534  0.2776
 1339SOL    HW111067   5.815   5.650   3.073  1.3205  0.6873 -0.3090
 1339SOL    HW211068   5.935   5.624   3.162 -0.2259 -1.1837  1.3436
 1340SOL     OW11069   4.791   9.438   3.312  0.8625 -0.1732 -0.3370
 1340SOL    HW111070   4.715   9.389   3.344 -1.1949  2.5815 -0.5925
 1340SOL    HW211071   4.777   9.446   3.218  1.0022  1.0428 -0.2699
 1341SOL     OW11072   9.898  11.319   4.185  0.6667 -0.4753 -0.5739
 1341SOL    HW111073   9.817  11.336   4.234  0.6564 -0.8346 -0.4582
 1341SOL    HW211074   9.951  11.397   4.198  0.6730 -0.5731  0.0349
 1342SOL     OW11075   6.908   5.481   1.443 -0.3021 -0.2505  0.4098
 1342SOL    HW111076   6.939   5.391   1.444  0.8712  0.1436  0.3781
 1342SOL    HW211077   6.953   5.522   1.370 -2.5156 -0.1837 -1.0139
 1343SOL     OW11078   9.757  11.007   3.864 -0.3729  0.4607 -0.7490
 1343SOL    HW111079   9.818  10.982   3.794  1.8504 -1.9998  1.8506
 1343SOL    HW211080   9.796  11.084   3.904  1.4865 -1.3781  1.2070
 1344SOL     OW11081   1.092   0.272   1.951  0.0892  0.3883 -0.6264
 1344SOL    HW111082   1.078   0.248   2.043  0.0192 -3.1365 -1.3969
 1344SOL    HW211083   1.175   0.318   1.950 -0.4503  1.5240  1.2955
 1345SOL     OW11084   6.441   3.610   3.197  0.4616  0.2909  0.0352
 1345SOL    HW111085   6.497   3.667   3.249 -0.6009  2.0469 -0.6854
 1345SOL    HW211086   6.381   3.669   3.151 -1.1168 -1.4411 -0.2503
 1346SOL     OW11087   0.861   8.770   4.191 -0.3449  0.1634  0.7135
 1346SOL    HW111088   0.931   8.797   4.132 -0.6462 -0.9116 -0.1528
 1346SOL    HW211089   0.789   8.745   4.133 -0.3427 -1.7708  1.4798
 1347SOL     OW11090   0.205   9.662   1.518 -0.3451 -1.0579 -0.2600
 1347SOL    HW111091   0.272   9.687   1.453 -0.4002 -1.0810 -0.3257
 1347SOL    HW211092   0.130   9.635   1.466 -0.8525  0.1399 -0.2004
 1348SOL     OW11093   6.401   4.265   5.372 -0.5236 -0.1751  0.1479
 1348SOL    HW111094   6.408   4.226   5.459 -0.8664  1.5385  0.9634
 1348SOL    HW211095   6.474   4.327   5.367 -0.8617  0.1745 -0.5647
 1349SOL     OW11096   3.884   0.338   8.026  0.1357  0.1550 -0.0710
 1349SOL    HW111097   3.920   0.333   8.114 -1.3051  0.7341  0.5889
 1349SOL    HW211098   3.884   0.248   7.994 -1.6051 -0.4710  1.5097
 1350SOL     OW11099   4.809   5.622   2.602  0.3035  0.1803 -0.0078
 1350SOL    HW111100   4.816   5.547   2.660 -2.2535  0.4206  0.7399
 1350SOL    HW211101   4.781   5.586   2.518  0.1832  0.1805  0.0317
 1351SOL     OW11102   6.265   9.946   9.260  0.2069 -0.1981 -0.4642
 1351SOL    HW111103   6.298  10.029   9.228 -2.7036  1.8976  1.4475
 1351SOL    HW211104   6.291   9.943   9.353  2.4855 -2.7816 -1.0471
 1352SOL     OW11105  10.738   3.693  11.486 -0.8007 -0.1227  0.2414
 1352SOL    HW111106  10.718   3.650  11.403 -0.7326 -2.5536  1.4024
 1352SOL    HW211107  10.654   3.725  11.518 -1.0049 -0.1619 -0.2491
 1353SOL     OW11108   2.823   2.351   0.232 -0.5729 -0.1175  0.1689
 1353SOL    HW111109   2.914   2.329   0.212 -0.7602  0.4813 -1.4702
 1353SOL    HW211110   2.772   2.277   0.198 -0.7860  0.0751  0.0691
 1354SOL     OW11111   1.409   6.927   6.158  0.1045 -0.2827  0.5150
 1354SOL    HW111112   1.496   6.908   6.123 -0.3208  0.2296 -0.8951
 1354SOL    HW211113   1.349   6.878   6.101 -0.5529 -0.4573  1.3316
 1355SOL     OW11114   8.757   5.801   7.759  0.2706  0.0906  0.5223
 1355SOL    HW111115   8.675   5.839   7.729  1.1415  2.6828  1.1292
 1355SOL    HW211116   8.759   5.714   7.721 -1.3756  1.0393 -1.9598
 1356SOL     OW11117  10.386   8.023   4.135  0.2896  0.2446  0.0496
 1356SOL    HW111118  10.318   8.040   4.070  0.2767 -2.4527 -0.7356
 1356SOL    HW211119  10.340   8.027   4.219 -0.3558  0.6428 -0.3184
 1357SOL     OW11120   5.669   5.864  11.589 -0.1359  0.1521 -0.3502
 1357SOL    HW111121   5.595   5.902  11.542 -0.6888  0.5114  0.7711
 1357SOL    HW211122   5.711   5.939  11.632  0.1145 -0.2119  0.0453
 1358SOL     OW11123  10.222   0.335   1.508  0.2486 -0.2062  0.1535
 1358SOL    HW111124  10.315   0.350   1.494  0.1111 -0.9790 -2.0336
 1358SOL    HW211125  10.186   0.422   1.528  1.1258  0.4992 -1.1737
 1359SOL     OW11126   7.419   8.674   3.356 -0.9022 -0.7786 -0.2104
 1359SOL    HW111127   7.457   8.691   3.442 -1.9260 -1.3607  0.3758
 1359SOL    HW211128   7.418   8.579   3.349 -0.7718 -0.7305 -0.8906
 1360SOL     OW11129   5.061   0.412   4.922  0.1783 -0.4115  0.2770
 1360SOL    HW111130   5.029   0.423   4.832  0.2705  2.3033  0.4968
 1360SOL    HW211131   5.155   0.429   4.917 -0.2670  2.8670  1.2588
 1361SOL     OW11132  11.770   6.785  10.359 -0.1465  0.5671 -0.0073
 1361SOL    HW111133  11.718   6.730  10.300  1.1190  0.1453 -0.7570
 1361SOL    HW211134  11.803   6.855  10.303 -1.3128  1.8494  0.8331
 1362SOL     OW11135   9.457   8.883   8.355  0.1102 -0.2149  0.3279
 1362SOL    HW111136   9.449   8.830   8.276  0.1738 -0.2788  0.3644
 1362SOL    HW211137   9.440   8.973   8.325  0.4563 -0.1955  0.1807
 1363SOL     OW11138   2.830  10.413  11.128 -0.3294 -0.5064  0.1010
 1363SOL    HW111139   2.837  10.405  11.033 -1.6048 -0.8402  0.0105
 1363SOL    HW211140   2.919  10.403  11.160  0.2606  0.5228 -1.1138
 1364SOL     OW11141   0.359   6.087   9.847 -0.4548 -0.3716 -0.0883
 1364SOL    HW111142   0.310   6.053   9.922 -0.3265 -1.9779 -0.6935
 1364SOL    HW211143   0.292   6.115   9.785 -0.5665  1.5941  0.8499
 1365SOL     OW11144   6.268   4.129  12.156  0.3722 -0.8001  0.0321
 1365SOL    HW111145   6.212   4.123  12.078  0.1714  0.6114  0.0433
 1365SOL    HW211146   6.354   4.150  12.121  0.2469 -0.0043  0.1933
 1366SOL     OW11147   7.526   2.737   2.537 -0.2120 -0.0798 -0.3324
 1366SOL    HW111148   7.452   2.784   2.575  0.4759  0.3880  0.4683
 1366SOL    HW211149   7.564   2.689   2.611  0.8079  0.3865 -0.5368
 1367SOL     OW11150   2.570   7.324   1.656  0.1762  0.3279  0.2650
 1367SOL    HW111151   2.580   7.351   1.747 -2.7276  1.9664  0.2332
 1367SOL    HW211152   2.481   7.290   1.650  0.8677 -1.3949 -1.6459
 1368SOL     OW11153   0.921  10.388  12.409  0.4212 -0.1180  0.0702
 1368SOL    HW111154   0.964  10.381  12.324 -1.7108 -0.0167 -1.0878
 1368SOL    HW211155   0.883  10.301  12.424 -3.0013  0.9721 -1.3207
 1369SOL     OW11156   2.035   0.382   2.198  0.5107  0.0715  0.3115
 1369SOL    HW111157   1.961   0.438   2.219  0.1787 -0.7268  1.3575
 1369SOL    HW211158   2.101   0.442   2.164  0.5865  1.3027  2.4256
 1370SOL     OW11159   2.090   7.269   2.851 -0.5495 -0.3360  0.1987
 1370SOL    HW111160   2.082   7.301   2.941  1.4018 -1.6499  0.8979
 1370SOL    HW211161   2.044   7.185   2.851 -1.6456  0.2423 -0.4011
 1371SOL     OW11162   4.676   5.205   2.636  0.4727  0.2165  0.7281
 1371SOL    HW111163   4.645   5.210   2.546  0.4399  0.8783  0.7727
 1371SOL    HW211164   4.596   5.207   2.689  0.3572 -2.1350  0.7338
 1372SOL     OW11165   8.273  10.496   6.372  0.0008  0.3952  0.2587
 1372SOL    HW111166   8.358  10.535   6.351  2.4967 -3.5001  1.8880
 1372SOL    HW211167   8.252  10.441   6.297  0.2529 -0.5330  0.8458
 1373SOL     OW11168   5.181  12.276   5.052 -0.9429  0.0200 -0.5857
 1373SOL    HW111169   5.146  12.364   5.037 -0.1618  0.2160 -1.3372
 1373SOL    HW211170   5.115  12.233   5.106 -0.7490  1.4862  0.8912
 1374SOL     OW11171   6.078   9.847   9.979 -0.2034 -0.3154 -0.2191
 1374SOL    HW111172   6.005   9.879  10.032 -0.4383 -1.3134  0.0701
 1374SOL    HW211173   6.039   9.826   9.895 -0.0587  0.0682 -0.3876
 1375SOL     OW11174   3.275   5.535   3.046 -0.3058  0.1434 -0.4197
 1375SOL    HW111175   3.197   5.566   3.092 -0.6149 -0.5106 -0.4911
 1375SOL    HW211176   3.280   5.590   2.968 -0.0255  0.9697  0.1677
 1376SOL     OW11177   0.410  11.149   3.213 -0.1866  0.3900  0.3078
 1376SOL    HW111178   0.317  11.153   3.191 -0.2545  1.8473  0.7630
 1376SOL    HW211179   0.417  11.075   3.273 -0.6238 -1.2310 -1.5110
 1377SOL     OW11180   6.773   1.122   8.381 -0.0737 -0.1861  0.0025
 1377SOL    HW111181   6.713   1.194   8.401 -0.0029 -0.3434  0.8325
 1377SOL    HW211182   6.855   1.166   8.358 -0.2591  0.0141 -0.2823
 1378SOL     OW11183   0.352   9.139   8.674 -0.1375  0.4550  0.0330
 1378SOL    HW111184   0.445   9.129   8.695  0.3955  2.5208 -1.0993
 1378SOL    HW211185   0.307   9.092   8.743  1.7388 -0.2431  0.8507
 1379SOL     OW11186   3.115  11.300   1.798  0.4016  0.4754 -0.1185
 1379SOL    HW111187   3.031  11.276   1.757  0.8861 -1.1585 -0.2376
 1379SOL    HW211188   3.123  11.240   1.873  1.6014  0.3948 -0.2912
 1380SOL     OW11189   7.580   0.795  11.581  0.3269  0.0503 -0.1681
 1380SOL    HW111190   7.551   0.710  11.548 -0.6176  0.2435  0.1313
 1380SOL    HW211191   7.505   0.828  11.631  1.1425  0.4934  0.7937
 1381SOL     OW11192   9.111  10.392   8.125 -0.0639 -0.7015  0.3899
 1381SOL    HW111193   9.200  10.366   8.100  0.0743  0.2941 -0.1889
 1381SOL    HW211194   9.115  10.403   8.220  0.1737 -1.5914  0.4940
 1382SOL     OW11195   0.592   3.265  11.348 -0.2229 -0.2741  0.1245
 1382SOL    HW111196   0.671   3.255  11.401 -0.4598 -1.1768  0.3206
 1382SOL    HW211197   0.572   3.177  11.318 -0.1453  0.2046 -1.4146
 1383SOL     OW11198  12.337   4.346   7.693 -0.1894 -0.5131  0.1095
 1383SOL    HW111199  12.334   4.440   7.707  2.0833 -0.6392  2.0705
 1383SOL    HW211200  12.325   4.335   7.599  0.2335  1.7777 -0.2609
 1384SOL     OW11201   8.082   8.838   3.776 -0.3484 -0.6512  0.5425
 1384SOL    HW111202   8.159   8.839   3.719  0.8003  3.0525  1.8725
 1384SOL    HW211203   8.011   8.873   3.722  0.4802  1.8005  0.9017
 1385SOL     OW11204   3.668   5.485   9.491 -0.1510 -0.1434 -0.0403
 1385SOL    HW111205   3.762   5.480   9.474 -0.3613 -2.4077 -0.7925
 1385SOL    HW211206   3.628   5.472   9.405 -1.1676  0.5634  0.3194
 1386SOL     OW11207   8.306   5.901   2.831 -0.3461  0.1503  0.1743
 1386SOL    HW111208   8.388   5.921   2.786 -1.4507  1.8835 -1.1992
 1386SOL    HW211209   8.250   5.864   2.762 -1.4432  1.0772  0.5441
 1387SOL     OW11210   6.831   9.411   7.143  0.4021 -0.5565  0.4034
 1387SOL    HW111211   6.921   9.390   7.167  0.6183  0.7104  0.7302
 1387SOL    HW211212   6.825   9.506   7.148 -0.3038 -0.4199 -1.9482
 1388SOL     OW11213  12.228   9.747   8.707 -0.2668 -0.4163  0.6810
 1388SOL    HW111214  12.140   9.713   8.696 -1.1331  1.6843  0.6630
 1388SOL    HW211215  12.228   9.831   8.660  1.4816  0.0204  1.3620
 1389SOL     OW11216   1.317   8.288   5.707 -0.0273 -0.3311 -0.6134
 1389SOL    HW111217   1.329   8.196   5.682  0.6125 -0.1194 -1.1118
 1389SOL    HW211218   1.224   8.295   5.727  0.1396 -1.3986  0.7112
 1390SOL     OW11219   9.287   6.871   9.109 -0.1690 -0.0884 -0.6966
 1390SOL    HW111220   9.364   6.916   9.142 -0.7385  1.0167 -0.8548
 1390SOL    HW211221   9.322   6.808   9.046  0.5728  0.7624 -1.1593
 1391SOL     OW11222  12.198   1.686   0.710  0.5177 -0.9592 -0.0639
 1391SOL    HW111223  12.149   1.690   0.628  0.9609  0.8499 -0.2955
 1391SOL    HW211224  12.154   1.749   0.768  1.6557 -0.3994  0.2290
 1392SOL     OW11225   7.494   1.906   8.700 -0.0029 -0.4227 -0.1888
 1392SOL    HW111226   7.439   1.982   8.678 -0.1126 -0.9630 -2.0040
 1392SOL    HW211227   7.577   1.924   8.655  1.0113 -0.0625  1.7489
 1393SOL     OW11228   9.746   7.243   9.606 -0.2070 -0.6838 -0.2218
 1393SOL    HW111229   9.814   7.297   9.566 -0.0246 -0.7855 -0.0477
 1393SOL    HW211230   9.665   7.274   9.566 -0.3520  1.0768  1.3219
 1394SOL     OW11231   2.229   0.567   1.719  0.2569 -0.4278  0.4514
 1394SOL    HW111232   2.225   0.560   1.623  0.5477  1.3244  0.2790
 1394SOL    HW211233   2.150   0.521   1.749 -0.4415 -0.0356 -0.6980
 1395SOL     OW11234   4.922   8.082   0.623 -0.5208 -0.2088  0.4908
 1395SOL    HW111235   4.946   8.149   0.687  1.6412 -0.9096  0.5000
 1395SOL    HW211236   4.829   8.065   0.639 -0.2305  0.1907  2.9361
 1396SOL     OW11237   1.961   7.888   1.541  0.0427  0.6425 -0.1838
 1396SOL    HW111238   1.902   7.953   1.505 -0.5197  1.3745  1.8850
 1396SOL    HW211239   1.919   7.804   1.523 -1.8117  1.1513  1.3716
 1397SOL     OW11240   0.196   2.503   7.254 -0.2889  0.0996  0.3022
 1397SOL    HW111241   0.239   2.528   7.172  1.0189 -1.3466  0.4984
 1397SOL    HW211242   0.266   2.503   7.319 -1.0679  0.0499  1.1610
 1398SOL     OW11243  10.066   5.996  12.435 -0.7323 -0.8772 -0.1004
 1398SOL    HW111244  10.139   5.972  12.492 -1.8575 -1.5512  1.1273
 1398SOL    HW211245  10.014   5.916  12.428 -0.1389 -1.1298 -2.9470
 1399SOL     OW11246   8.989   7.809   7.935 -0.0580  0.0712 -0.0688
 1399SOL    HW111247   9.014   7.770   7.852 -2.1086 -0.1154 -0.6553
 1399SOL    HW211248   8.893   7.801   7.938 -0.2192  1.7975  1.4375
 1400SOL     OW11249   7.449   0.911   0.132  0.0353  0.0861  0.1971
 1400SOL    HW111250   7.453   0.818   0.113  0.1484  0.0318  0.4854
 1400SOL    HW211251   7.540   0.938   0.142  0.0960  0.5207 -1.2559
 1401SOL     OW11252   9.555   4.445   0.252 -0.1612  0.4709  0.2635
 1401SOL    HW111253   9.488   4.407   0.194 -0.2398  1.1773 -0.1279
 1401SOL    HW211254   9.546   4.397   0.334 -1.7713  1.1260  0.5219
 1402SOL     OW11255   1.468   3.701  10.269  0.0457  0.7783 -0.1619
 1402SOL    HW111256   1.497   3.622  10.314  2.4198  1.4834 -0.2832
 1402SOL    HW211257   1.408   3.743  10.330  3.0191  1.6404  2.4580
 1403SOL     OW11258   6.097   4.240   7.263 -0.2160 -0.1325 -0.0738
 1403SOL    HW111259   6.179   4.192   7.250 -0.2102  0.1494 -1.1778
 1403SOL    HW211260   6.065   4.257   7.174 -1.6903 -0.6111  0.3317
 1404SOL     OW11261   5.872  10.226  11.035 -0.1831  0.9842 -0.2642
 1404SOL    HW111262   5.901  10.245  11.125  2.0666 -1.2428 -0.3989
 1404SOL    HW211263   5.868  10.131  11.032 -2.4875  1.0715 -1.9314
 1405SOL     OW11264   5.745   0.569   0.354  0.3238  0.1196  0.2496
 1405SOL    HW111265   5.810   0.504   0.382  1.0666  1.1714  1.0793
 1405SOL    HW211266   5.667   0.518   0.332  0.9564 -1.0577  0.6565
 1406SOL     OW11267  11.944   3.328  12.409  0.1027  0.4204 -0.7849
 1406SOL    HW111268  11.894   3.410  12.414 -1.2895 -0.3957  3.7655
 1406SOL    HW211269  12.009   3.343  12.340 -1.3132  4.5723 -1.4885
 1407SOL     OW11270   5.057   3.989  11.117 -0.7506  0.0125  0.9055
 1407SOL    HW111271   4.976   4.029  11.147 -0.6635 -1.1916  2.9595
 1407SOL    HW211272   5.125   4.030  11.171 -0.1724  0.0398  0.1614
 1408SOL     OW11273   0.705   2.799  10.978  0.0040  0.1946  0.4013
 1408SOL    HW111274   0.720   2.729  10.916  0.7566  1.0777 -0.4393
 1408SOL    HW211275   0.610   2.804  10.987 -0.0506 -1.2143  0.8355
 1409SOL     OW11276   4.501   4.429   8.598 -0.3140 -0.3177  0.2140
 1409SOL    HW111277   4.525   4.337   8.606  0.8257 -0.0127  0.5050
 1409SOL    HW211278   4.407   4.431   8.618 -0.5869 -1.5367 -0.8007
 1410SOL     OW11279   7.535   7.742   4.019 -0.0444 -0.3892  0.7274
 1410SOL    HW111280   7.616   7.779   3.983  0.1975 -0.6142  1.0223
 1410SOL    HW211281   7.523   7.661   3.970 -0.0146 -0.4236  0.7766
 1411SOL     OW11282  12.295   5.030   3.822  0.4798 -0.2445 -0.1020
 1411SOL    HW111283  12.350   5.099   3.784  0.4291  0.3907  0.9253
 1411SOL    HW211284  12.348   4.951   3.815  0.6662 -0.0481 -1.0307
 1412SOL     OW11285   8.211   4.480   4.108 -0.4237 -0.1831  0.1493
 1412SOL    HW111286   8.265   4.448   4.181  1.2081 -2.0607 -1.7337
 1412SOL    HW211287   8.247   4.567   4.088 -1.0051  0.4290  1.6268
 1413SOL     OW11288   6.312   4.045   6.788  0.1654  0.1809  0.0921
 1413SOL    HW111289   6.354   4.128   6.765  0.2952 -0.4266 -2.0566
 1413SOL    HW211290   6.220   4.067   6.801  0.1571  0.6372 -0.6912
 1414SOL     OW11291  11.022   3.322   9.094 -0.1472  0.0357  0.0123
 1414SOL    HW111292  11.102   3.332   9.043 -0.7341  0.8002 -0.7771
 1414SOL    HW211293  11.050   3.274   9.172  1.1288  0.5307 -0.1132
 1415SOL     OW11294   8.943   8.421   2.837  0.0996  0.8025 -0.7501
 1415SOL    HW111295   8.976   8.367   2.765  0.9576 -0.4146  0.5123
 1415SOL    HW211296   8.849   8.401   2.840  0.3882 -0.5973 -0.3616
 1416SOL     OW11297   9.572  11.972   7.676  0.0648  0.1453 -0.3631
 1416SOL    HW111298   9.565  12.066   7.691  0.3804 -0.0477  1.1302
 1416SOL    HW211299   9.666  11.955   7.676 -0.0021 -0.4581  1.5522
 1417SOL     OW11300  11.620   1.976   8.115 -0.4789 -0.4229 -0.0106
 1417SOL    HW111301  11.611   1.889   8.156  0.6909 -0.1057  0.9739
 1417SOL    HW211302  11.714   1.986   8.101 -0.7854 -0.2130 -2.1943
 1418SOL     OW11303   7.150   1.625  10.755  0.0636  0.2359  0.2440
 1418SOL    HW111304   7.117   1.566  10.823 -0.9775 -0.5074 -0.8622
 1418SOL    HW211305   7.195   1.569  10.693 -1.8120  0.3954 -1.3541
 1419SOL     OW11306   6.099   0.178   6.696 -0.0764  0.7484  0.1778
 1419SOL    HW111307   6.079   0.089   6.665  1.9023  0.0098  0.8639
 1419SOL    HW211308   6.032   0.233   6.655 -1.4912 -1.0691 -0.0980
 1420SOL     OW11309  11.491   3.364   7.543 -0.4858 -0.4711  0.4094
 1420SOL    HW111310  11.427   3.427   7.511 -0.2910  0.2183  1.3497
 1420SOL    HW211311  11.507   3.389   7.634  1.0431 -0.6825  0.2258
 1421SOL     OW11312   8.591   0.231   2.536  0.7124  0.2188  0.6494
 1421SOL    HW111313   8.536   0.166   2.579 -0.2809  0.9742  0.5517
 1421SOL    HW211314   8.655   0.256   2.603 -0.1721  0.6318  1.3669
 1422SOL     OW11315   9.490  12.051   1.569  0.0031  0.3445 -0.2697
 1422SOL    HW111316   9.516  11.959   1.571 -2.4628 -0.4345 -0.0418
 1422SOL    HW211317   9.412  12.052   1.513  0.2897  2.4094 -0.7143
 1423SOL     OW11318   9.873   2.056   6.586 -0.0317  0.4636  0.0839
 1423SOL    HW111319   9.943   1.995   6.609 -0.9315 -0.3287  0.8051
 1423SOL    HW211320   9.901   2.140   6.621  1.8015  0.7967 -1.9708
 1424SOL     OW11321   4.737   8.423  11.311 -0.5807 -0.6545  0.6764
 1424SOL    HW111322   4.759   8.503  11.360  1.7512  0.0493 -1.3243
 1424SOL    HW211323   4.661   8.448  11.259  0.3968  0.4791 -0.2703
 1425SOL     OW11324  10.692   7.380   6.736  0.4282  0.1917  0.1315
 1425SOL    HW111325  10.693   7.319   6.663  3.3121  0.2813 -0.0481
 1425SOL    HW211326  10.683   7.466   6.696  1.6795  0.2142 -0.1622
 1426SOL     OW11327   0.428   1.263   5.662  0.0179  0.5963  0.0095
 1426SOL    HW111328   0.503   1.308   5.702 -0.0803  0.1945  0.6592
 1426SOL    HW211329   0.467   1.188   5.616  0.0972  0.8628 -0.3586
 1427SOL     OW11330   9.297  11.208   4.086  0.3634  0.2687 -0.0731
 1427SOL    HW111331   9.267  11.296   4.109 -0.9663 -0.1613 -0.0397
 1427SOL    HW211332   9.310  11.211   3.991 -2.8681 -0.3137 -0.6461
 1428SOL     OW11333  10.485   3.248   9.910 -0.4022  0.0685  0.2238
 1428SOL    HW111334  10.462   3.296   9.990  2.1361 -0.2119  1.2028
 1428SOL    HW211335  10.411   3.188   9.896 -1.9778  1.7235  0.9827
 1429SOL     OW11336   2.289   9.513   8.676 -0.4853  0.0395  0.2089
 1429SOL    HW111337   2.347   9.472   8.740 -0.9662 -0.1199  0.5446
 1429SOL    HW211338   2.300   9.461   8.597  0.5460  0.5787 -0.0185
 1430SOL     OW11339   9.212   1.260   6.115  0.2445  0.3851 -0.1032
 1430SOL    HW111340   9.136   1.204   6.102 -0.5416  1.5843 -0.7434
 1430SOL    HW211341   9.253   1.226   6.195 -0.9048 -0.3194  0.2059
 1431SOL     OW11342   3.202   7.893   4.550 -0.2519  0.6536  0.5042
 1431SOL    HW111343   3.175   7.888   4.458  1.5733  0.4837 -0.0674
 1431SOL    HW211344   3.217   7.987   4.565 -0.3479  0.6594  0.5632
 1432SOL     OW11345  12.275   5.783   3.293 -0.1554  0.0904 -0.4184
 1432SOL    HW111346  12.332   5.707   3.284 -0.0848  0.1096 -0.1318
 1432SOL    HW211347  12.186   5.747   3.291 -0.1343  0.0565 -0.8294
 1433SOL     OW11348   7.338   0.923   1.571 -0.1455  0.2314 -0.0003
 1433SOL    HW111349   7.329   0.874   1.489  0.7624  0.6838 -0.3832
 1433SOL    HW211350   7.326   0.857   1.640 -0.6950 -0.1908 -0.4914
 1434SOL     OW11351   4.478  10.449   5.184 -0.3834 -0.5379  0.3105
 1434SOL    HW111352   4.411  10.458   5.117 -2.6515  1.9303  2.6342
 1434SOL    HW211353   4.533  10.526   5.173 -0.6897 -0.1874  1.1449
 1435SOL     OW11354   3.918   6.018   8.844 -0.1078  0.4996 -0.5210
 1435SOL    HW111355   3.917   6.105   8.883 -3.2043  0.2284  0.2672
 1435SOL    HW211356   4.011   6.000   8.828  0.8955  2.7425  1.9603
 1436SOL     OW11357   7.879   4.971   0.737  0.4764  0.2327  0.0963
 1436SOL    HW111358   7.961   5.004   0.701  0.2783  1.7996  1.0054
 1436SOL    HW211359   7.907   4.906   0.802  0.8993 -0.6884 -0.9570
 1437SOL     OW11360   2.475  11.042   0.213  0.7383  0.2227 -0.5820
 1437SOL    HW111361   2.396  11.090   0.190 -0.6323 -0.5047  2.1590
 1437SOL    HW211362   2.449  10.950   0.207  0.7285 -0.0225  2.0049
 1438SOL     OW11363  12.429  11.586  10.833  0.3351 -0.7666  0.3496
 1438SOL    HW111364  12.421  11.522  10.762 -0.0882 -0.5382  0.1927
 1438SOL    HW211365  12.456  11.667  10.789 -0.8488 -0.3725  0.3237
 1439SOL     OW11366   4.448  10.175  10.884  0.0841  0.7220 -0.0404
 1439SOL    HW111367   4.540  10.180  10.858  0.0941 -0.2818 -0.2253
 1439SOL    HW211368   4.449  10.128  10.967 -0.5574 -3.3380 -2.1107
 1440SOL     OW11369  10.074   8.217   5.305 -0.1611  0.1494 -0.5504
 1440SOL    HW111370   9.995   8.182   5.346 -1.2372  0.5027 -2.2314
 1440SOL    HW211371  10.063   8.312   5.310 -0.0719  0.1956 -1.2402
 1441SOL     OW11372   8.029   0.505   9.465 -0.0949  0.7725 -0.8569
 1441SOL    HW111373   7.975   0.452   9.407 -1.2444  1.2824 -0.2913
 1441SOL    HW211374   8.115   0.505   9.424 -0.0493 -1.4667 -0.9176
 1442SOL     OW11375  11.632  11.654   0.167 -0.0819  0.2037  0.8467
 1442SOL    HW111376  11.559  11.710   0.193  0.8248  1.1710  1.4407
 1442SOL    HW211377  11.657  11.686   0.080  1.0032  1.3738  1.5538
 1443SOL     OW11378   5.991   1.416   7.144 -0.5012 -0.0617  0.5615
 1443SOL    HW111379   6.070   1.433   7.093 -0.9870  0.0153 -0.1781
 1443SOL    HW211380   6.023   1.402   7.233  0.2141  1.4016  0.5667
 1444SOL     OW11381   7.286   2.871   5.291 -0.8262  0.2007  0.3043
 1444SOL    HW111382   7.367   2.890   5.243 -1.2904  1.0973 -0.1546
 1444SOL    HW211383   7.275   2.776   5.283  1.0773 -0.1983  1.8504
 1445SOL     OW11384   6.889   4.844   0.164 -0.7975 -0.2050 -0.4092
 1445SOL    HW111385   6.906   4.877   0.076  1.5680 -0.8188 -0.2495
 1445SOL    HW211386   6.927   4.757   0.165 -0.0753  0.0809  1.4369
 1446SOL     OW11387  11.963  11.976   4.062 -0.0611 -0.4965  0.6749
 1446SOL    HW111388  12.006  11.892   4.050 -1.2497 -1.2132  1.2085
 1446SOL    HW211389  12.023  12.040   4.025  0.2197 -1.7224 -1.0621
 1447SOL     OW11390   5.461   3.337   6.170 -0.5649  0.2565 -0.2205
 1447SOL    HW111391   5.481   3.244   6.168  0.0349  0.3692  0.2851
 1447SOL    HW211392   5.418   3.354   6.086 -0.6267 -0.4619 -0.3389
 1448SOL     OW11393   4.093   4.561   4.371 -0.7129 -0.9911 -0.0235
 1448SOL    HW111394   4.110   4.588   4.281 -0.1027 -3.3397 -0.6630
 1448SOL    HW211395   4.015   4.507   4.367 -1.5148  0.0124  1.1201
 1449SOL     OW11396  11.094  10.860   2.281  0.3272 -0.4076 -0.0573
 1449SOL    HW111397  11.064  10.794   2.344  2.5627 -0.8208  0.6714
 1449SOL    HW211398  11.138  10.810   2.213  0.7594  0.2453 -0.2689
 1450SOL     OW11399   7.090   8.387   9.192 -0.1679  0.3002  0.0850
 1450SOL    HW111400   7.169   8.395   9.138  0.9511  0.5452  1.6789
 1450SOL    HW211401   7.090   8.466   9.246 -2.0365  0.7616 -0.5096
 1451SOL     OW11402   2.089   6.682   2.514  0.5345 -0.1588 -0.4545
 1451SOL    HW111403   2.065   6.725   2.596  1.2298  1.8170 -1.2340
 1451SOL    HW211404   2.184   6.692   2.508  0.5895 -0.9408 -1.1602
 1452SOL     OW11405   3.998  10.781   9.519 -0.0497  0.2420 -0.4948
 1452SOL    HW111406   3.948  10.840   9.463 -0.7497  0.0357 -0.1067
 1452SOL    HW211407   4.074  10.756   9.467 -1.1535 -0.6824 -1.7302
 1453SOL     OW11408  11.006   8.142   3.643  0.1383 -0.0081  0.1472
 1453SOL    HW111409  11.079   8.109   3.696  1.0072 -0.1532 -1.0967
 1453SOL    HW211410  11.041   8.220   3.601 -0.3916 -0.1227 -0.5228
 1454SOL     OW11411   3.797   3.412   3.429 -0.3203  0.0196  0.3561
 1454SOL    HW111412   3.717   3.365   3.404 -0.1725 -0.2810  0.4534
 1454SOL    HW211413   3.823   3.372   3.512  1.2906 -1.5578 -0.8394
 1455SOL     OW11414  10.757   7.403   9.448 -0.1032 -0.0395 -0.2241
 1455SOL    HW111415  10.817   7.377   9.517 -0.7992 -1.1614 -0.0285
 1455SOL    HW211416  10.789   7.489   9.420  1.0413 -0.2150  0.4882
 1456SOL     OW11417   7.945  10.278   4.595 -0.0980 -0.1372 -0.3604
 1456SOL    HW111418   8.005  10.292   4.522  0.0066  0.1920 -0.2141
 1456SOL    HW211419   7.873  10.227   4.558 -0.1677  0.2428 -0.7507
 1457SOL     OW11420   2.921   9.729   8.702  0.0499  0.6436  0.0246
 1457SOL    HW111421   2.895   9.722   8.610 -0.2072  0.1389  0.1305
 1457SOL    HW211422   3.015   9.710   8.702  0.2526  1.5708 -0.2434
 1458SOL     OW11423   5.123   2.748  10.819  0.4162 -0.0437  0.1673
 1458SOL    HW111424   5.180   2.750  10.742 -1.0876 -0.2464 -0.9778
 1458SOL    HW211425   5.141   2.663  10.860  0.5367 -0.3335 -0.4820
 1459SOL     OW11426  10.665   5.786   5.069  0.4011 -0.1074 -0.5921
 1459SOL    HW111427  10.718   5.734   5.009 -1.4605 -2.3277 -0.4367
 1459SOL    HW211428  10.650   5.730   5.144 -1.4063  0.7651 -0.2462
 1460SOL     OW11429   9.351   4.536  12.178 -0.5338 -0.0718 -0.6213
 1460SOL    HW111430   9.428   4.578  12.217  2.3181 -3.7859 -1.6280
 1460SOL    HW211431   9.298   4.508  12.252  0.9147 -0.4488  0.3065
 1461SOL     OW11432   3.859   2.483  11.896 -0.3591  0.2512  0.8245
 1461SOL    HW111433   3.771   2.520  11.905 -0.7976 -0.1547 -1.4062
 1461SOL    HW211434   3.859   2.407  11.954 -1.2175  0.6766  1.4039
 1462SOL     OW11435   3.984  11.685   5.966 -0.1292 -0.1579  0.1282
 1462SOL    HW111436   3.956  11.612   5.910  0.4750  0.3818 -0.8990
 1462SOL    HW211437   3.913  11.749   5.958  0.1961  0.1389 -0.4530
 1463SOL     OW11438   6.458   3.418  11.045 -0.0615 -0.1105  0.3088
 1463SOL    HW111439   6.467   3.512  11.065  0.0651 -0.1803  0.5894
 1463SOL    HW211440   6.541   3.380  11.074 -0.2534 -0.3657  0.5284
 1464SOL     OW11441   9.036   8.353  10.338  0.2650 -0.0782 -0.1723
 1464SOL    HW111442   8.959   8.343  10.282 -0.6997  1.2181  0.8592
 1464SOL    HW211443   9.047   8.268  10.380 -0.8958 -0.1416  0.0186
 1465SOL     OW11444   5.752  10.540   7.287 -0.0104 -0.3157  0.5401
 1465SOL    HW111445   5.756  10.636   7.287  1.8208 -0.3348 -1.3224
 1465SOL    HW211446   5.790  10.515   7.371 -0.2349  0.5740  0.9230
 1466SOL     OW11447  10.937   0.348   7.449 -0.2861  0.3669 -0.0638
 1466SOL    HW111448  10.919   0.271   7.397 -0.8691  0.1188  0.4870
 1466SOL    HW211449  10.913   0.422   7.393  0.5495  0.1620 -0.6942
 1467SOL     OW11450   1.943  10.959   2.014 -0.3229 -0.1691  0.2926
 1467SOL    HW111451   1.984  10.905   2.081  1.5629 -0.1395 -0.7577
 1467SOL    HW211452   1.943  10.903   1.936  0.9381  1.0176 -0.6079
 1468SOL     OW11453   3.130  11.983   8.598 -0.7503  0.0245  0.4125
 1468SOL    HW111454   3.077  11.933   8.537 -1.7995 -0.2418  1.5042
 1468SOL    HW211455   3.188  11.918   8.638  1.1790  0.4563 -1.4667
 1469SOL     OW11456   7.041   8.478  11.355  0.3800  0.6488  0.5672
 1469SOL    HW111457   7.111   8.413  11.359  1.8198  2.1779  2.2383
 1469SOL    HW211458   7.062   8.531  11.279 -0.7170 -0.6705 -0.7128
 1470SOL     OW11459   6.370  11.953   8.950  0.1240 -0.1493  0.0758
 1470SOL    HW111460   6.451  11.983   8.910  0.0921  2.0328  1.4742
 1470SOL    HW211461   6.342  12.026   9.005 -1.8901 -1.5024  0.9709
 1471SOL     OW11462   9.852   9.816   6.525  0.6456 -0.4576 -0.3134
 1471SOL    HW111463   9.852   9.911   6.514  0.7327 -0.5045 -0.7357
 1471SOL    HW211464   9.773   9.786   6.480 -0.1654 -0.4592  1.0508
 1472SOL     OW11465   2.501   1.269   6.219  0.5407  0.1380  0.4686
 1472SOL    HW111466   2.584   1.279   6.173  0.1940 -2.5796 -0.9459
 1472SOL    HW211467   2.453   1.204   6.168 -2.1795  1.0478  1.6622
 1473SOL     OW11468   9.874   4.207   6.392  0.8117  0.8076  0.0428
 1473SOL    HW111469   9.920   4.145   6.336  1.5011  0.8978  0.4959
 1473SOL    HW211470   9.943   4.261   6.430  0.6710 -0.8302  2.9486
 1474SOL     OW11471   6.873   5.817   5.101  0.4469  0.3469  0.1254
 1474SOL    HW111472   6.870   5.769   5.018  0.1043  1.0536 -0.2818
 1474SOL    HW211473   6.949   5.782   5.146 -0.7736 -1.8607  0.6213
 1475SOL     OW11474   5.454   9.591   0.909  0.4073 -0.2713  0.1425
 1475SOL    HW111475   5.401   9.621   0.835  0.7676 -1.0179 -0.4377
 1475SOL    HW211476   5.484   9.671   0.951 -1.3211  0.1633  0.6109
 1476SOL     OW11477   1.337   3.500   3.598  0.5883 -0.1831  0.0201
 1476SOL    HW111478   1.410   3.437   3.595  0.1812 -0.6332 -1.2229
 1476SOL    HW211479   1.331   3.532   3.508 -0.8282 -0.2484  0.0815
 1477SOL     OW11480   2.169   8.955   6.660 -0.1972  0.5572  0.4193
 1477SOL    HW111481   2.226   8.882   6.636 -1.2261  0.6684 -2.8694
 1477SOL    HW211482   2.083   8.915   6.676 -0.2079  0.8274  1.0942
 1478SOL     OW11483  10.599   4.888   4.948  0.1156 -0.0558 -0.3487
 1478SOL    HW111484  10.517   4.913   4.906  0.4037  1.6981  0.0324
 1478SOL    HW211485  10.662   4.955   4.920  0.7204  0.2257  1.5322
 1479SOL     OW11486   0.621   7.047   6.605 -0.4028 -0.1086  0.4497
 1479SOL    HW111487   0.560   7.119   6.618  0.1587  0.1736  1.6488
 1479SOL    HW211488   0.568   6.968   6.620 -1.0087  0.0304 -0.8433
 1480SOL     OW11489   0.133   4.329   8.085 -0.0739 -0.2076 -0.4659
 1480SOL    HW111490   0.212   4.369   8.121  0.4474 -2.3718  1.0011
 1480SOL    HW211491   0.164   4.272   8.015 -0.5887  0.4948 -1.2827
 1481SOL     OW11492   9.605  11.213   1.784 -0.3603 -0.0247 -0.3220
 1481SOL    HW111493   9.694  11.185   1.804 -1.1397 -0.8699  2.3699
 1481SOL    HW211494   9.568  11.141   1.732  0.1977 -0.1076 -0.6127
 1482SOL     OW11495  11.416  10.888  11.288 -0.7722 -0.3870  0.3167
 1482SOL    HW111496  11.364  10.949  11.340 -2.4864 -0.8214 -0.7891
 1482SOL    HW211497  11.501  10.886  11.330 -0.3553  3.3847 -0.0800
 1483SOL     OW11498   5.072  11.244   9.997 -0.3512 -0.4222 -0.0685
 1483SOL    HW111499   5.040  11.307   9.932 -0.8920 -0.6351 -0.0130
 1483SOL    HW211500   5.167  11.260  10.002  0.2535 -2.3566 -3.0650
 1484SOL     OW11501  12.246   0.522   5.644  0.1296 -0.3888 -0.2950
 1484SOL    HW111502  12.185   0.506   5.572  0.0483 -1.1338 -0.0730
 1484SOL    HW211503  12.290   0.604   5.621 -0.6421 -0.0715 -0.6705
 1485SOL     OW11504   3.660   7.985  11.202  0.7077 -0.1180  0.3254
 1485SOL    HW111505   3.595   7.943  11.258  1.4649 -1.5116  0.2193
 1485SOL    HW211506   3.623   8.070  11.180  0.1715  0.2498  2.5120
 1486SOL     OW11507  12.454   8.152   9.670 -0.7603 -0.5698 -0.2875
 1486SOL    HW111508  12.386   8.146   9.738 -0.0134 -2.4506  0.3456
 1486SOL    HW211509  12.525   8.201   9.712 -0.9915 -0.1952 -0.3272
 1487SOL     OW11510   2.723   9.542   7.242  0.0390 -0.1585 -0.0648
 1487SOL    HW111511   2.723   9.524   7.336  0.2344 -0.1245 -0.0564
 1487SOL    HW211512   2.815   9.531   7.216  0.0187  0.0242 -0.2147
 1488SOL     OW11513   0.318   0.667  10.168  0.0956  0.5848 -0.2800
 1488SOL    HW111514   0.238   0.671  10.220  0.5927  1.2516  0.4424
 1488SOL    HW211515   0.299   0.600  10.101 -0.3277 -0.7743  1.1302
 1489SOL     OW11516  12.412  10.243   6.521  0.2165 -0.6160  0.2188
 1489SOL    HW111517  12.416  10.147   6.524  0.8137 -0.5754  2.4360
 1489SOL    HW211518  12.457  10.271   6.601 -1.2388  1.4771  0.3616
 1490SOL     OW11519   2.302   7.513   6.614  0.5315 -0.2090  0.3878
 1490SOL    HW111520   2.241   7.499   6.686 -1.6035  0.4432 -1.1760
 1490SOL    HW211521   2.352   7.432   6.608 -0.1949 -0.7772  1.7005
 1491SOL     OW11522   5.613   1.843   4.698 -0.2618 -0.7740 -0.2890
 1491SOL    HW111523   5.558   1.820   4.773  0.9957 -1.9228  0.3257
 1491SOL    HW211524   5.551   1.858   4.627 -1.3701 -3.8091 -0.1072
 1492SOL     OW11525  11.421   4.532   2.537 -0.6109 -0.8424 -0.0821
 1492SOL    HW111526  11.477   4.549   2.613  2.7899 -1.1729 -2.2857
 1492SOL    HW211527  11.438   4.440   2.516 -1.9528 -0.9244 -0.9187
 1493SOL     OW11528   5.310  11.610   7.875  0.0091 -0.1703 -0.0071
 1493SOL    HW111529   5.338  11.652   7.793 -1.2836  0.3348 -0.2180
 1493SOL    HW211530   5.388  11.613   7.931  0.2031  1.8570 -0.2909
 1494SOL     OW11531   6.839   8.870   6.334 -0.0742 -0.2130 -0.2532
 1494SOL    HW111532   6.919   8.872   6.386  0.0997 -0.4686 -0.5121
 1494SOL    HW211533   6.795   8.789   6.361 -0.9834  0.6466  0.9897
 1495SOL     OW11534  12.219   7.748   1.482 -0.0867 -0.3409 -0.0074
 1495SOL    HW111535  12.207   7.779   1.392  1.6763 -1.7952 -0.7883
 1495SOL    HW211536  12.140   7.697   1.500 -0.0819 -0.7422 -1.0473
 1496SOL     OW11537   3.859   1.048   0.435  0.0352  0.1762 -0.1529
 1496SOL    HW111538   3.949   1.064   0.465 -0.4431  0.7815  1.0284
 1496SOL    HW211539   3.824   0.984   0.496 -0.6109  0.5923 -0.0746
 1497SOL     OW11540  10.996   9.072   9.634 -0.2858 -0.4417  0.0765
 1497SOL    HW111541  11.003   9.052   9.541  0.5552 -0.0587  0.0442
 1497SOL    HW211542  10.921   9.021   9.664 -0.2063 -1.0296 -0.6831
 1498SOL     OW11543   5.061  11.892  11.795 -0.2432  0.2614 -0.4841
 1498SOL    HW111544   4.971  11.886  11.830 -0.2110  0.6975 -0.3252
 1498SOL    HW211545   5.117  11.886  11.873 -0.1452  0.3866 -0.5458
 1499SOL     OW11546   3.529   4.842  12.208  0.6581  0.1765 -0.2777
 1499SOL    HW111547   3.528   4.768  12.268  1.3669  0.6386  0.3217
 1499SOL    HW211548   3.530   4.802  12.121 -1.4121 -0.4939 -0.0380
 1500SOL     OW11549   3.930   3.338   3.938  0.2179 -0.6327  0.6603
 1500SOL    HW111550   3.952   3.420   3.982  0.4577 -0.4245  0.1544
 1500SOL    HW211551   4.015   3.299   3.916  0.1023 -0.6469  0.2239
 1501SOL     OW11552   9.620   8.780   3.637 -0.5385 -0.3526  0.3232
 1501SOL    HW111553   9.565   8.706   3.613 -0.7337  0.4495 -1.8899
 1501SOL    HW211554   9.557   8.848   3.663 -0.5414  0.0247 -0.6310
 1502SOL     OW11555  12.179   5.480   1.401 -0.2843 -0.2400 -0.3865
 1502SOL    HW111556  12.264   5.437   1.413  0.6349  1.8693  1.3351
 1502SOL    HW211557  12.137   5.473   1.486 -0.8898  0.6415 -0.6007
 1503SOL     OW11558   3.536   8.910   0.679 -0.3973  0.4132  0.2036
 1503SOL    HW111559   3.459   8.966   0.671  0.4702  1.8380  1.2329
 1503SOL    HW211560   3.591   8.932   0.604  0.8448  2.5088  1.6264
 1504SOL     OW11561   7.820   8.538   1.656  0.3549  0.6792 -0.1393
 1504SOL    HW111562   7.828   8.621   1.701 -1.1235  0.6697  0.2023
 1504SOL    HW211563   7.754   8.489   1.706 -0.4340  0.1908 -1.5717
 1505SOL     OW11564   4.250  10.909   7.313 -0.0106 -0.1724 -0.0516
 1505SOL    HW111565   4.309  10.979   7.287 -0.9828  0.9069  0.5949
 1505SOL    HW211566   4.172  10.953   7.344  0.2735 -1.4281  2.7291
 1506SOL     OW11567   6.204  11.787   6.870  0.4855  0.4416  0.4718
 1506SOL    HW111568   6.126  11.837   6.846 -1.5050 -1.7915  1.7445
 1506SOL    HW211569   6.206  11.792   6.966  0.8238 -1.0011  0.5549
 1507SOL     OW11570   0.361   7.977   9.598  0.3656  0.2826  0.0295
 1507SOL    HW111571   0.282   8.030   9.608 -0.0895 -0.3042 -0.4030
 1507SOL    HW211572   0.357   7.944   9.508  0.9794  0.0525  0.0818
 1508SOL     OW11573  11.841  10.400   8.118  0.3396  0.0888  0.4641
 1508SOL    HW111574  11.827  10.475   8.059  1.1635 -0.8237 -0.9266
 1508SOL    HW211575  11.934  10.403   8.139  0.6357 -1.2121 -0.5665
 1509SOL     OW11576   5.942   0.495   5.090 -0.1051  0.3947 -0.2580
 1509SOL    HW111577   5.855   0.455   5.082  0.1077 -0.2611  0.5198
 1509SOL    HW211578   5.926   0.580   5.131 -0.3090 -0.0507  0.5936
 1510SOL     OW11579   7.581   8.764   8.114  0.2185  0.6892  0.2183
 1510SOL    HW111580   7.512   8.717   8.162 -0.4184  0.8512 -0.5174
 1510SOL    HW211581   7.651   8.700   8.104 -1.2839 -0.7376 -2.2570
 1511SOL     OW11582  12.158   4.531   6.243 -0.3168  0.0093  0.2260
 1511SOL    HW111583  12.120   4.519   6.330 -0.5401 -1.8424 -0.0866
 1511SOL    HW211584  12.252   4.535   6.259 -0.2927 -1.1924  0.5105
 1512SOL     OW11585  10.545  10.319   1.654 -0.0144  0.1515  0.3836
 1512SOL    HW111586  10.631  10.310   1.613  0.6197 -0.4526  1.7837
 1512SOL    HW211587  10.544  10.253   1.723 -1.2375  0.7807  1.0068
 1513SOL     OW11588   3.855   7.865   5.089  0.0714  0.5880 -0.0123
 1513SOL    HW111589   3.812   7.918   5.022  0.0132  0.3029 -0.1995
 1513SOL    HW211590   3.783   7.821   5.134  0.0123  1.5950  0.9523
 1514SOL     OW11591  12.296  10.421   1.942 -0.0142  0.9685  0.4920
 1514SOL    HW111592  12.356  10.463   2.004  1.8598  0.3884 -0.8322
 1514SOL    HW211593  12.353  10.384   1.874 -1.8272 -0.3836 -0.4041
 1515SOL     OW11594   5.497   5.527   3.992 -0.1471 -0.1079  0.3283
 1515SOL    HW111595   5.483   5.433   3.994  2.1847 -0.6726 -2.5444
 1515SOL    HW211596   5.578   5.540   4.041 -0.1643  0.3173  0.2510
 1516SOL     OW11597  11.617   7.422   8.215  0.5000 -0.0899 -0.5098
 1516SOL    HW111598  11.574   7.501   8.181 -0.7876 -1.0438 -1.1694
 1516SOL    HW211599  11.631   7.368   8.137  1.8914 -0.2945 -0.1415
 1517SOL     OW11600   3.592  10.158  11.554  0.0568 -0.1480  0.2534
 1517SOL    HW111601   3.533  10.198  11.617  1.3222  1.7919  0.2935
 1517SOL    HW211602   3.541  10.151  11.473 -0.3969  0.9964  0.4327
 1518SOL     OW11603  11.106   3.319   3.851 -0.6254  0.0751  0.0448
 1518SOL    HW111604  11.034   3.294   3.793  0.3584 -3.0665  0.0430
 1518SOL    HW211605  11.107   3.252   3.919  0.7914  1.4403  1.4690
 1519SOL     OW11606   9.541   6.975  10.476  0.1156 -0.3330 -0.8736
 1519SOL    HW111607   9.574   6.965  10.387 -0.2679 -0.5097 -1.0010
 1519SOL    HW211608   9.602   6.925  10.530  0.4558 -0.0709 -1.0124
 1520SOL     OW11609   1.223   5.785   5.848 -0.6281  0.1918 -0.2994
 1520SOL    HW111610   1.205   5.768   5.755  1.0702 -0.5519 -0.5145
 1520SOL    HW211611   1.166   5.859   5.869 -2.8715 -1.1478 -1.2659
 1521SOL     OW11612  10.986   2.314  11.719 -0.5804 -0.4918 -0.2945
 1521SOL    HW111613  10.926   2.263  11.774 -2.1302  2.0002  0.5080
 1521SOL    HW211614  11.073   2.280  11.740 -1.1946 -0.3902  2.9837
 1522SOL     OW11615   6.324   4.877   6.862 -0.2933 -0.3113 -0.3806
 1522SOL    HW111616   6.321   4.825   6.781 -1.1031 -2.3465  0.8827
 1522SOL    HW211617   6.278   4.824   6.926  1.0581  0.8513  1.6635
 1523SOL     OW11618   0.848   8.166   4.042 -0.2212  0.1753 -0.2337
 1523SOL    HW111619   0.804   8.154   3.958  0.6110 -1.6372 -0.4590
 1523SOL    HW211620   0.781   8.149   4.108 -0.2063 -1.2841 -0.5687
 1524SOL     OW11621   9.748   1.115   4.604  0.4859 -0.0765  0.5159
 1524SOL    HW111622   9.760   1.186   4.541  0.7253 -0.2233  0.3933
 1524SOL    HW211623   9.756   1.035   4.552  1.2307 -0.2103  0.8119
 1525SOL     OW11624   4.245   1.538   0.293 -0.3101 -0.2498 -0.0611
 1525SOL    HW111625   4.184   1.489   0.348 -0.3383 -0.3212 -0.1567
 1525SOL    HW211626   4.223   1.630   0.308 -0.0852 -0.2563  0.3206
 1526SOL     OW11627   3.949  11.564   8.756 -0.0287 -0.1567  0.0955
 1526SOL    HW111628   3.896  11.546   8.679  2.7359 -1.2548 -1.6693
 1526SOL    HW211629   4.002  11.486   8.769  2.7676  1.6270  0.3505
 1527SOL     OW11630   3.545  10.592   7.330 -0.1294  0.2049 -0.0144
 1527SOL    HW111631   3.481  10.664   7.322 -0.8665 -0.5171 -0.8355
 1527SOL    HW211632   3.621  10.633   7.372 -0.9544  1.1983  0.5885
 1528SOL     OW11633   6.439  10.826  10.120  0.4693  0.0695 -0.2655
 1528SOL    HW111634   6.431  10.733  10.100 -0.1980  0.1319 -0.2923
 1528SOL    HW211635   6.373  10.842  10.187 -2.3412  1.3570 -3.0712
 1529SOL     OW11636   8.434   2.553   4.743  0.3449  0.8870  0.0118
 1529SOL    HW111637   8.424   2.638   4.788  0.1139 -0.2883  2.3508
 1529SOL    HW211638   8.369   2.555   4.674 -1.1115  1.8526  1.3337
 1530SOL     OW11639   4.221   0.969   4.193 -0.3592 -0.1390 -0.1491
 1530SOL    HW111640   4.167   1.034   4.236  0.8202  0.2749  0.7680
 1530SOL    HW211641   4.294   1.019   4.155 -0.0195 -0.7905 -0.3821
 1531SOL     OW11642   6.226   4.235   0.135 -0.3906  0.5468  0.4202
 1531SOL    HW111643   6.227   4.233   0.039 -3.3227  3.9327  0.1326
 1531SOL    HW211644   6.155   4.176   0.159  0.4367 -0.4123  0.5996
 1532SOL     OW11645   3.365   8.535   6.027 -0.3171  0.5295  0.1214
 1532SOL    HW111646   3.271   8.525   6.043 -0.3477 -0.6348 -0.6881
 1532SOL    HW211647   3.401   8.558   6.113 -0.9534 -2.0067  1.1553
 1533SOL     OW11648  10.851   3.263  11.849  0.2431  0.4407 -0.2795
 1533SOL    HW111649  10.846   3.169  11.866 -2.3662  0.5394 -0.0331
 1533SOL    HW211650  10.770   3.283  11.802  0.9234  2.5144 -0.6815
 1534SOL     OW11651   5.235   1.259  12.035 -0.5127  0.0488  0.0603
 1534SOL    HW111652   5.322   1.286  12.007 -0.1625 -1.5377 -0.4489
 1534SOL    HW211653   5.197   1.215  11.959 -2.3255  1.9108 -0.1971
 1535SOL     OW11654   0.528   3.082  12.300  0.1701  0.1880  0.0338
 1535SOL    HW111655   0.455   3.021  12.294  0.3438  0.1446 -2.5393
 1535SOL    HW211656   0.553   3.080  12.392 -1.1827 -1.9979  0.4247
 1536SOL     OW11657   5.396   0.533   2.794 -0.8705  0.2137  0.4706
 1536SOL    HW111658   5.464   0.478   2.833 -1.1900 -0.6017 -0.0957
 1536SOL    HW211659   5.366   0.588   2.867 -0.8504 -0.6727  1.1684
 1537SOL     OW11660   9.794  11.728   7.361  0.1302  0.2579  0.2602
 1537SOL    HW111661   9.784  11.654   7.422  2.6637 -0.6679 -0.3443
 1537SOL    HW211662   9.834  11.797   7.413 -1.9990  1.2283  0.7552
 1538SOL     OW11663   3.570   4.439   7.781  0.3060 -0.6472  0.4468
 1538SOL    HW111664   3.625   4.472   7.851  1.9778 -3.0434  0.3616
 1538SOL    HW211665   3.483   4.477   7.799  1.7186  2.7699  0.9052
 1539SOL     OW11666   3.485  11.038   3.628  0.0828  0.4812  0.0826
 1539SOL    HW111667   3.507  11.128   3.603  0.5408  1.6070  3.8447
 1539SOL    HW211668   3.563  11.007   3.674 -1.4501 -0.3076  2.3183
 1540SOL     OW11669   8.752   0.781   5.987 -0.0072  0.4431 -0.0982
 1540SOL    HW111670   8.777   0.855   5.931 -2.1403  1.1581 -0.1990
 1540SOL    HW211671   8.726   0.821   6.070  0.9448 -0.4193  0.6466
 1541SOL     OW11672   9.189   5.243   1.277  0.8808 -0.4330  0.0660
 1541SOL    HW111673   9.246   5.230   1.352 -0.4378  3.0913  1.8713
 1541SOL    HW211674   9.106   5.272   1.314 -0.6558 -0.9717 -2.6775
 1542SOL     OW11675   9.794   6.586   9.615  0.0413  0.1023 -0.5484
 1542SOL    HW111676   9.839   6.638   9.682 -0.6013  0.1349 -0.1387
 1542SOL    HW211677   9.864   6.537   9.572  0.3168 -0.9581  1.0464
 1543SOL     OW11678   2.073   7.728   2.780 -0.0625  0.6431 -0.0600
 1543SOL    HW111679   2.137   7.677   2.731  1.1354  0.7312  1.3310
 1543SOL    HW211680   2.110   7.734   2.868 -1.9047  0.8661  0.7520
 1544SOL     OW11681   3.904   1.447   7.631 -0.0613  0.2156  0.1852
 1544SOL    HW111682   3.833   1.494   7.585  0.8718  1.5868  0.0832
 1544SOL    HW211683   3.984   1.487   7.598  0.7640 -1.0292  0.6154
 1545SOL     OW11684   5.932  10.417   4.401 -0.1844 -0.5985 -0.3337
 1545SOL    HW111685   5.900  10.328   4.391  2.0230 -1.6073  0.7445
 1545SOL    HW211686   5.983  10.415   4.482 -0.0225  1.6478 -0.3083
 1546SOL     OW11687  10.270   1.719   8.836 -0.0856  0.0876 -0.7627
 1546SOL    HW111688  10.365   1.735   8.842  0.2004 -1.7030  0.4270
 1546SOL    HW211689  10.231   1.799   8.872  1.0135  0.4760 -0.3487
 1547SOL     OW11690  11.532   2.698  10.805  0.5930 -0.5630 -0.2372
 1547SOL    HW111691  11.572   2.617  10.838 -1.1737 -0.2186  3.1397
 1547SOL    HW211692  11.569   2.767  10.860 -2.3301  0.1022  1.0629
 1548SOL     OW11693   6.855   2.077   0.685 -0.0525  0.2908  0.1236
 1548SOL    HW111694   6.882   2.057   0.775 -0.4340 -1.5377 -0.1344
 1548SOL    HW211695   6.926   2.043   0.630 -1.1875 -1.4080 -0.3785
 1549SOL     OW11696   0.374   1.180   6.854  0.0794  0.0015  0.7185
 1549SOL    HW111697   0.388   1.095   6.894  0.2921 -0.9165 -1.1863
 1549SOL    HW211698   0.461   1.219   6.849  0.2205 -0.3730  0.1450
 1550SOL     OW11699  11.444   9.979   2.637  0.1475  0.9198  0.6613
 1550SOL    HW111700  11.506   9.942   2.574 -0.3213 -0.6801  1.0948
 1550SOL    HW211701  11.498  10.032   2.695  0.9736  0.3478  0.4382
 1551SOL     OW11702   5.361   8.328   4.443  0.1863  0.3823 -0.1499
 1551SOL    HW111703   5.444   8.348   4.485 -0.3165  1.5954  0.2945
 1551SOL    HW211704   5.361   8.380   4.363 -0.3425  0.7649  0.0901
 1552SOL     OW11705   1.833   0.573   2.314 -0.2556 -0.4721  0.3517
 1552SOL    HW111706   1.777   0.533   2.247 -1.7543 -0.2051  1.4032
 1552SOL    HW211707   1.778   0.640   2.355  1.2923  0.7650  0.5194
 1553SOL     OW11708   8.844   6.975   6.138 -0.6917 -0.3100  0.4869
 1553SOL    HW111709   8.761   7.004   6.176 -1.1026 -0.7713 -0.0451
 1553SOL    HW211710   8.902   7.051   6.146 -1.5713  0.4756 -0.3513
 1554SOL     OW11711   1.420  12.161   7.684 -0.0752  0.2219  0.5158
 1554SOL    HW111712   1.403  12.078   7.639  0.2616  0.5598 -0.2649
 1554SOL    HW211713   1.333  12.200   7.695 -0.2068 -0.0893  0.6090
 1555SOL     OW11714   1.489   7.033  11.992  0.3100  0.3112 -0.2589
 1555SOL    HW111715   1.397   7.009  11.999  0.1056  1.4280  1.4565
 1555SOL    HW211716   1.537   6.952  12.008 -0.3738 -0.0443  0.0064
 1556SOL     OW11717  10.364   9.994   4.658 -0.0064 -0.0508  0.0434
 1556SOL    HW111718  10.412  10.072   4.634 -0.5505  0.3606  0.2739
 1556SOL    HW211719  10.277  10.025   4.684  0.4919 -0.4398  2.4797
 1557SOL     OW11720   1.382   7.641  12.436  0.3428 -0.8353  0.1674
 1557SOL    HW111721   1.290   7.622  12.423 -0.2121  0.9996  1.1096
 1557SOL    HW211722   1.384   7.727  12.478  2.4997 -0.5240 -0.4132
 1558SOL     OW11723   9.954   8.350   0.344 -0.4098 -0.4230  0.3822
 1558SOL    HW111724  10.028   8.390   0.390 -0.1690 -0.5327  0.0993
 1558SOL    HW211725   9.906   8.303   0.412  0.5474 -1.4868  0.3577
 1559SOL     OW11726   6.761  11.710  11.361 -0.3267 -0.5263 -0.0492
 1559SOL    HW111727   6.840  11.764  11.364 -0.1857 -0.7376  0.1163
 1559SOL    HW211728   6.721  11.729  11.276 -0.5535  0.2268  0.2107
 1560SOL     OW11729   6.841   3.304  11.657  0.0496  0.5326  0.3500
 1560SOL    HW111730   6.831   3.396  11.631 -0.0430  0.0220 -1.5255
 1560SOL    HW211731   6.755   3.277  11.688 -0.0262  0.9447  0.5027
 1561SOL     OW11732   0.665   1.200   8.797  0.3621  0.4171 -0.2218
 1561SOL    HW111733   0.716   1.266   8.750  2.6538 -1.3204 -0.3916
 1561SOL    HW211734   0.731   1.137   8.828 -1.5497 -1.0015  1.1976
 1562SOL     OW11735   8.927   9.765   4.708 -0.4241 -0.7091  0.0990
 1562SOL    HW111736   8.889   9.680   4.687 -1.2193 -0.5017  0.6592
 1562SOL    HW211737   8.951   9.759   4.800  1.8000 -1.1490 -0.4456
 1563SOL     OW11738  10.611   3.099  10.624 -0.0097  0.3603  0.3124
 1563SOL    HW111739  10.568   3.163  10.568  1.1500  2.8999  2.1133
 1563SOL    HW211740  10.546   3.078  10.691 -1.1730 -2.1973 -1.4523
 1564SOL     OW11741   6.743   8.804   9.553  0.6075 -0.4992  0.3253
 1564SOL    HW111742   6.677   8.799   9.621 -0.6500  0.2052 -0.7859
 1564SOL    HW211743   6.826   8.794   9.599 -0.2674 -1.6599  1.7257
 1565SOL     OW11744   2.343   5.466   2.740  0.2704  0.5249  0.1370
 1565SOL    HW111745   2.425   5.417   2.736  0.0251  0.0836  0.4699
 1565SOL    HW211746   2.319   5.480   2.649 -1.2073 -2.5810 -0.0513
 1566SOL     OW11747   6.825   4.701   1.177  0.3396  0.1211 -0.5936
 1566SOL    HW111748   6.832   4.649   1.257 -0.4957 -1.3988 -1.4627
 1566SOL    HW211749   6.870   4.783   1.198 -0.3644  0.0018  1.6064
 1567SOL     OW11750   6.218  12.559   4.448 -0.4102 -0.1228 -0.1174
 1567SOL    HW111751   6.142  12.615   4.433 -0.2704  0.1358  0.1451
 1567SOL    HW211752   6.252  12.586   4.533 -1.2865 -1.6846  0.7727
 1568SOL     OW11753  11.415   0.948   3.413  0.0238  0.1021  0.2054
 1568SOL    HW111754  11.461   0.890   3.473  0.0719 -0.2065 -0.1247
 1568SOL    HW211755  11.325   0.951   3.446  0.8541  3.0174  2.6023
 1569SOL     OW11756   2.558  10.153   4.720 -0.1526  0.4049 -0.5789
 1569SOL    HW111757   2.620  10.220   4.692  1.9053 -1.6795 -1.3650
 1569SOL    HW211758   2.592  10.122   4.804 -1.2172  0.5072 -0.0973
 1570SOL     OW11759   1.382   3.810   6.905  0.4190 -0.3851  0.1971
 1570SOL    HW111760   1.325   3.746   6.948  0.5300 -0.2576  0.5338
 1570SOL    HW211761   1.358   3.804   6.812 -0.2030 -0.2770  0.3438
 1571SOL     OW11762   5.340   7.442   2.652 -0.3794 -0.4935 -0.0667
 1571SOL    HW111763   5.410   7.398   2.700  0.5729 -0.2982 -1.2060
 1571SOL    HW211764   5.306   7.375   2.592 -0.3345 -0.2529 -0.3641
 1572SOL     OW11765   9.683   4.287   3.000 -0.2871 -0.0899 -0.4056
 1572SOL    HW111766   9.760   4.241   3.034 -0.6431  1.1278  2.2953
 1572SOL    HW211767   9.715   4.375   2.980 -0.5693 -0.1681 -1.2348
 1573SOL     OW11768   4.477  12.327   0.166  0.1877 -0.1058  0.1656
 1573SOL    HW111769   4.402  12.276   0.135  0.1371 -0.7269  1.2283
 1573SOL    HW211770   4.534  12.336   0.090  0.5793 -2.4445  0.0867
 1574SOL     OW11771   4.630   2.137   2.476  0.3303  0.4149  0.4793
 1574SOL    HW111772   4.722   2.156   2.461  0.1631  1.3093  0.5308
 1574SOL    HW211773   4.583   2.186   2.408 -0.0808 -0.5027  0.0865
 1575SOL     OW11774   2.550   3.829   1.994  0.3169  0.0887 -0.4280
 1575SOL    HW111775   2.493   3.853   1.921  0.5250  0.5021 -0.4543
 1575SOL    HW211776   2.580   3.741   1.973 -0.0007  0.0211 -0.6076
 1576SOL     OW11777   5.999  11.338   9.745 -0.0416  0.7732  0.0939
 1576SOL    HW111778   6.085  11.303   9.721 -0.7755 -1.4681  0.4316
 1576SOL    HW211779   6.012  11.379   9.830  0.6654  0.2936  0.2202
 1577SOL     OW11780   2.400   4.173   9.699  0.0906  0.1186  0.0766
 1577SOL    HW111781   2.430   4.089   9.733 -0.6012 -1.2498 -2.4281
 1577SOL    HW211782   2.319   4.191   9.747 -0.8864 -1.7521 -0.7731
 1578SOL     OW11783   4.478  11.433   1.483  0.5888 -0.1403  0.2728
 1578SOL    HW111784   4.398  11.473   1.517  0.8068 -1.0567  1.9402
 1578SOL    HW211785   4.456  11.410   1.393 -1.4646 -1.4321  1.0270
 1579SOL     OW11786   2.800   4.483  10.036 -0.3463 -0.0444  0.6846
 1579SOL    HW111787   2.848   4.506   9.956  0.3891  0.0328  1.1407
 1579SOL    HW211788   2.716   4.528  10.027  0.2193  1.0192  0.5395
 1580SOL     OW11789   7.248  11.883   0.431  0.2627 -0.6006 -0.1012
 1580SOL    HW111790   7.205  11.930   0.361  0.2126 -1.2593 -0.5184
 1580SOL    HW211791   7.284  11.952   0.487 -0.8977 -0.0488 -0.0036
 1581SOL     OW11792   2.587  11.214   0.448 -0.1065  0.2301 -0.5746
 1581SOL    HW111793   2.635  11.289   0.482  2.6249 -1.1826 -1.0018
 1581SOL    HW211794   2.593  11.224   0.353 -0.9025  0.1554 -0.6340
 1582SOL     OW11795   7.402   1.098   8.883 -0.2962 -0.1070 -0.0444
 1582SOL    HW111796   7.472   1.114   8.947 -0.1069 -2.4817  0.4608
 1582SOL    HW211797   7.433   1.022   8.833 -1.4530  0.3153 -1.4614
 1583SOL     OW11798   6.252   2.727   0.817  0.3108  0.1076  0.3285
 1583SOL    HW111799   6.324   2.751   0.759  1.5792  0.8418  2.1040
 1583SOL    HW211800   6.228   2.809   0.860 -1.1436 -0.2639  0.2468
 1584SOL     OW11801  11.889   3.201   3.017  0.5777  0.0792  0.1114
 1584SOL    HW111802  11.906   3.292   2.992  2.3783 -0.1509  0.3751
 1584SOL    HW211803  11.909   3.197   3.110  1.0356 -0.7037 -0.0129
 1585SOL     OW11804   9.637  10.834   1.748 -0.3717 -0.2745  0.7045
 1585SOL    HW111805   9.632  10.849   1.842 -2.0173 -0.3004  0.6539
 1585SOL    HW211806   9.579  10.900   1.709  0.3927 -0.1671 -0.3108
 1586SOL     OW11807   1.059   1.472   2.888 -0.5158 -0.1166  0.0335
 1586SOL    HW111808   1.144   1.517   2.880  0.7990 -2.4907 -0.3165
 1586SOL    HW211809   1.069   1.416   2.965 -1.2294 -1.4601 -0.8137
 1587SOL     OW11810   4.769   3.120   2.127 -0.3670 -0.0200  0.1792
 1587SOL    HW111811   4.687   3.114   2.078  0.4210 -1.8639 -1.0155
 1587SOL    HW211812   4.829   3.061   2.081  1.3086  0.4408  1.6617
 1588SOL     OW11813   0.532   7.007   5.268 -0.3064 -0.0180 -0.0861
 1588SOL    HW111814   0.512   6.924   5.226  1.1238 -1.2572  1.5124
 1588SOL    HW211815   0.620   7.028   5.238 -0.8871  1.2660 -0.9508
 1589SOL     OW11816   0.416  10.202  10.415  0.4166  0.8273  0.3027
 1589SOL    HW111817   0.355  10.275  10.427 -1.1600 -0.3671 -0.0079
 1589SOL    HW211818   0.430  10.199  10.320 -0.8235 -0.2234  0.1227
 1590SOL     OW11819   0.194   3.877   3.753  0.1537  0.1643  0.1466
 1590SOL    HW111820   0.206   3.873   3.658  3.7403  0.0233  0.4987
 1590SOL    HW211821   0.239   3.799   3.786  0.9335  1.3864  2.1081
 1591SOL     OW11822  11.399   6.122   3.170 -0.3796 -0.3439 -0.0293
 1591SOL    HW111823  11.372   6.071   3.094  0.1242  1.2339 -1.3293
 1591SOL    HW211824  11.494   6.126   3.164 -0.3228 -0.3887  0.8103
 1592SOL     OW11825   8.391   7.647   4.473 -0.3371 -0.3925 -0.3393
 1592SOL    HW111826   8.478   7.675   4.499 -0.9925  1.0923  0.3311
 1592SOL    HW211827   8.404   7.608   4.386  1.2685 -1.9870  0.5618
 1593SOL     OW11828   6.205  10.627   9.865 -0.0650 -0.4859 -0.3359
 1593SOL    HW111829   6.123  10.670   9.841 -0.3245 -0.6194  0.2990
 1593SOL    HW211830   6.179  10.557   9.924  0.4966 -0.6163 -0.2389
 1594SOL     OW11831   4.879  11.610   0.299 -0.1651 -0.3953 -1.1356
 1594SOL    HW111832   4.915  11.586   0.213 -1.5503  0.0402 -1.8661
 1594SOL    HW211833   4.849  11.526   0.336  1.1685 -0.7005 -0.6968
 1595SOL     OW11834   6.407   4.270   1.625  0.1990  0.0602  0.0021
 1595SOL    HW111835   6.346   4.197   1.632 -0.7091  0.9143  1.4954
 1595SOL    HW211836   6.356   4.340   1.584  0.2622  0.6669  0.9318
 1596SOL     OW11837   1.114   5.428   2.208  0.2218  0.2166  0.0257
 1596SOL    HW111838   1.027   5.403   2.236 -0.6763  3.1395  0.2071
 1596SOL    HW211839   1.164   5.436   2.289  0.7820 -1.6372 -0.0901
 1597SOL     OW11840   1.466   4.171   6.656  0.0070 -0.0547  0.5776
 1597SOL    HW111841   1.462   4.080   6.685 -0.0903  0.0733  0.9841
 1597SOL    HW211842   1.480   4.166   6.562  1.1761 -0.4878  0.7644
 1598SOL     OW11843   5.506  11.258  10.682  0.1339  0.2295 -0.6020
 1598SOL    HW111844   5.570  11.197  10.719  1.1313  0.9677 -1.0746
 1598SOL    HW211845   5.441  11.201  10.639 -0.0146 -0.5546  0.5976
 1599SOL     OW11846  12.339  12.064   2.590  0.4329  0.3628  0.0221
 1599SOL    HW111847  12.402  12.094   2.657 -0.7975  1.5401  0.6974
 1599SOL    HW211848  12.257  12.107   2.614 -1.2419 -2.8349  0.4746
 1600SOL     OW11849   9.806   4.773  10.469  0.2648  0.4301  0.0430
 1600SOL    HW111850   9.824   4.704  10.405  0.2273 -0.1614  0.6553
 1600SOL    HW211851   9.764   4.728  10.542 -2.3652  1.5311 -0.6875
 1601SOL     OW11852   6.272   1.055   4.005  0.0722  0.0705 -0.3160
 1601SOL    HW111853   6.198   1.090   4.055  0.2912  0.5090 -0.2947
 1601SOL    HW211854   6.339   1.124   4.010  0.1167  0.0996 -1.1714
 1602SOL     OW11855   9.943   5.105   6.518 -0.3314 -0.4447 -0.4783
 1602SOL    HW111856   9.851   5.108   6.542 -0.2359 -2.9210  0.4436
 1602SOL    HW211857   9.974   5.022   6.552  2.6070  0.8848  0.4158
 1603SOL     OW11858   6.778   2.222   9.458  0.0884 -0.1378 -0.1685
 1603SOL    HW111859   6.797   2.131   9.477  0.7465 -0.1147 -0.6685
 1603SOL    HW211860   6.849   2.250   9.400  1.1327  1.2907  1.6575
 1604SOL     OW11861  10.316   8.350   3.739 -0.1597  0.6182 -0.1066
 1604SOL    HW111862  10.395   8.298   3.720 -0.0902  0.1195  1.3979
 1604SOL    HW211863  10.313   8.415   3.669  1.3001  0.3146 -0.4999
 1605SOL     OW11864  10.766   8.036   0.604 -0.2300  0.3171  0.1656
 1605SOL    HW111865  10.790   8.119   0.644 -0.6287 -0.7103  2.6967
 1605SOL    HW211866  10.672   8.028   0.621  0.2396 -1.7112  2.1652
 1606SOL     OW11867   0.390   2.996   4.341  0.3412  0.0671  0.0360
 1606SOL    HW111868   0.469   2.949   4.317 -1.6317 -2.4496 -2.0852
 1606SOL    HW211869   0.391   3.075   4.287  0.9520 -0.3853 -0.6207
 1607SOL     OW11870  10.795   8.857   0.795  0.1559 -0.4610  0.3888
 1607SOL    HW111871  10.733   8.924   0.767  0.6438  0.4724  1.4211
 1607SOL    HW211872  10.870   8.867   0.736 -0.1812 -0.7724 -0.0908
 1608SOL     OW11873  11.606   8.981  11.135 -0.7617 -0.3337  0.4396
 1608SOL    HW111874  11.515   9.007  11.127 -0.3974  0.6735 -0.8686
 1608SOL    HW211875  11.655   9.064  11.132  0.2330 -0.9103  0.2133
 1609SOL     OW11876  11.736   1.792   6.496  0.6301 -0.0657  0.2458
 1609SOL    HW111877  11.740   1.782   6.591  0.5445  0.4963  0.3168
 1609SOL    HW211878  11.694   1.878   6.484  0.6260 -0.1443 -0.2977
 1610SOL     OW11879   1.000   5.202   5.139 -0.0781 -0.0634  0.0935
 1610SOL    HW111880   0.932   5.137   5.157  0.2636 -0.0585  1.5702
 1610SOL    HW211881   1.065   5.155   5.087 -1.5572  0.1618 -2.0782
 1611SOL     OW11882   8.736  10.996   8.486 -0.1570 -0.1999  0.2116
 1611SOL    HW111883   8.779  11.038   8.560  1.4218  0.7758 -1.2034
 1611SOL    HW211884   8.666  10.944   8.526 -1.7629  3.0936  2.1253
 1612SOL     OW11885   0.741   7.746  11.684  0.4453 -0.1325  0.2340
 1612SOL    HW111886   0.766   7.836  11.663 -2.9649  0.8430 -0.2084
 1612SOL    HW211887   0.715   7.750  11.776 -2.1448  0.0470 -0.4314
 1613SOL     OW11888   2.829   3.893   6.645  0.3473 -0.2387 -0.1197
 1613SOL    HW111889   2.868   3.820   6.596  0.7987 -1.6893  2.2647
 1613SOL    HW211890   2.737   3.868   6.657 -0.0581  0.6638 -1.1456
 1614SOL     OW11891   5.779   6.117   0.693  0.4844  0.0559  0.0963
 1614SOL    HW111892   5.872   6.119   0.716  1.3350 -2.7167 -2.4906
 1614SOL    HW211893   5.744   6.043   0.742 -0.2207  0.5983  0.4330
 1615SOL     OW11894   0.743   8.458   7.411  0.8103 -0.0627  0.4584
 1615SOL    HW111895   0.650   8.440   7.422  0.7415  1.1254  2.1136
 1615SOL    HW211896   0.751   8.484   7.319 -0.5145 -0.0753  0.3166
 1616SOL     OW11897   0.796   3.564   7.225  0.3699 -0.2194 -0.0542
 1616SOL    HW111898   0.745   3.531   7.299  1.0349 -2.4600 -0.4865
 1616SOL    HW211899   0.882   3.522   7.235  0.3028 -1.0824 -2.3508
 1617SOL     OW11900   0.414   6.201   1.725 -0.0309  0.1860 -0.0351
 1617SOL    HW111901   0.433   6.179   1.634  0.6839 -0.3293  0.2343
 1617SOL    HW211902   0.328   6.162   1.741 -0.3387  0.6137 -0.5982
 1618SOL     OW11903   4.453   8.843   7.494 -0.3054  0.2000  0.0672
 1618SOL    HW111904   4.522   8.854   7.428  1.2956 -1.4264  1.3572
 1618SOL    HW211905   4.404   8.925   7.491  1.4862  1.3080 -1.1751
 1619SOL     OW11906  10.562   7.063   2.187 -0.3680  0.3907 -0.4085
 1619SOL    HW111907  10.493   7.055   2.121 -2.0081  3.6006  0.6786
 1619SOL    HW211908  10.524   7.118   2.255  3.5428  3.3159 -0.2112
 1620SOL     OW11909   5.988   9.553   0.006 -0.4528 -0.2806  0.1250
 1620SOL    HW111910   6.080   9.549  -0.022 -0.3108  0.6212  0.4225
 1620SOL    HW211911   5.949   9.622  -0.048 -0.8310 -0.3400  0.3203
 1621SOL     OW11912   4.063   9.995   4.889  0.0352  0.5605  0.2439
 1621SOL    HW111913   4.017   9.911   4.893  0.9650 -0.0243 -0.7010
 1621SOL    HW211914   4.094  10.010   4.978  2.9801 -1.9637 -0.1789
 1622SOL     OW11915   7.217   5.078  11.328  0.0244 -0.0571  0.0847
 1622SOL    HW111916   7.176   5.164  11.339 -2.3848 -1.4153  3.7972
 1622SOL    HW211917   7.277   5.070  11.402  0.0354 -1.6274 -0.0449
 1623SOL     OW11918  12.099   5.435  10.787  0.1048  0.2061 -0.1230
 1623SOL    HW111919  12.158   5.389  10.846 -0.3497 -1.0878 -0.6482
 1623SOL    HW211920  12.012   5.418  10.823 -0.2081 -0.9277 -1.3665
 1624SOL     OW11921   5.404   1.596   4.922  0.3559 -0.2817  0.0676
 1624SOL    HW111922   5.313   1.567   4.929  0.0965  0.7876  1.8995
 1624SOL    HW211923   5.398   1.687   4.891  0.6830  0.1896  1.2956
 1625SOL     OW11924   7.870   1.490   8.975  0.2549  0.0365  0.8237
 1625SOL    HW111925   7.856   1.419   8.912  0.2890  1.4650 -0.8737
 1625SOL    HW211926   7.954   1.528   8.949  0.7643  0.0455  2.3873
 1626SOL     OW11927  12.584  11.493   1.907 -0.6199 -0.2361  0.5485
 1626SOL    HW111928  12.637  11.481   1.828 -2.2463 -1.2665 -0.4563
 1626SOL    HW211929  12.567  11.587   1.910 -0.2720 -0.1438 -0.1633
 1627SOL     OW11930   5.599   0.308   6.648  0.0234 -0.0675 -0.2386
 1627SOL    HW111931   5.532   0.278   6.586 -1.2727  0.9152  0.6449
 1627SOL    HW211932   5.563   0.288   6.734  0.7227  0.7518  0.2576
 1628SOL     OW11933   7.395   5.466   4.365 -0.2388 -0.1230  0.3629
 1628SOL    HW111934   7.429   5.536   4.310 -0.0391 -0.2240  0.3578
 1628SOL    HW211935   7.469   5.407   4.377 -0.1580  0.1182  1.0990
 1629SOL     OW11936   2.679   8.068  11.462  0.3946  0.1886 -0.3445
 1629SOL    HW111937   2.593   8.045  11.496  1.1562 -0.7038  1.0730
 1629SOL    HW211938   2.708   8.142  11.515  0.6964  0.1704 -0.4808
 1630SOL     OW11939   2.020   4.968   7.577 -0.2697 -0.0654 -0.2432
 1630SOL    HW111940   2.000   4.981   7.670  0.4868  1.3002 -0.2477
 1630SOL    HW211941   2.066   4.884   7.574  3.2783  1.6029  1.2550
 1631SOL     OW11942   9.355  10.292   8.114  0.2543 -0.2349  0.2849
 1631SOL    HW111943   9.406  10.295   8.195 -0.7942 -0.7636  0.9956
 1631SOL    HW211944   9.407  10.341   8.051  0.1736  1.9637  1.7994
 1632SOL     OW11945   4.925   7.290   0.171  0.2367 -0.1812  0.2978
 1632SOL    HW111946   4.938   7.227   0.241 -3.2275  1.0193  2.3077
 1632SOL    HW211947   4.894   7.238   0.097 -1.1763 -1.0750  1.4524
 1633SOL     OW11948   7.514   9.749   2.311  0.6609  0.6250 -0.0754
 1633SOL    HW111949   7.533   9.717   2.399 -0.2147  0.1267 -0.0543
 1633SOL    HW211950   7.534   9.675   2.253  0.0199  0.5199 -0.1690
 1634SOL     OW11951   1.563   8.477   8.965 -0.3329  0.5196  0.0929
 1634SOL    HW111952   1.511   8.555   8.947 -0.5256  0.6447  1.1293
 1634SOL    HW211953   1.598   8.452   8.880  1.8332  3.1969  0.0770
 1635SOL     OW11954   7.648   5.914   0.589 -0.6412 -0.2027 -0.2369
 1635SOL    HW111955   7.618   6.002   0.613  0.3935 -0.0013  0.3591
 1635SOL    HW211956   7.573   5.858   0.607 -1.2559  0.5187 -0.4509
 1636SOL     OW11957   4.917  12.165   4.574 -0.0700 -0.8487  0.2173
 1636SOL    HW111958   4.954  12.219   4.643 -1.4456  1.0227 -0.4461
 1636SOL    HW211959   4.823  12.168   4.588 -0.2373 -2.3340 -0.3994
 1637SOL     OW11960   1.315  11.245   8.628 -0.3504 -0.3515  0.1884
 1637SOL    HW111961   1.280  11.159   8.651  0.1446 -0.5301  0.2818
 1637SOL    HW211962   1.392  11.256   8.685 -0.0245 -0.1313 -0.2913
 1638SOL     OW11963   1.857   2.110   0.149  0.6098  0.1407  0.1908
 1638SOL    HW111964   1.853   2.136   0.057 -0.5004 -2.8940 -0.7504
 1638SOL    HW211965   1.818   2.023   0.151  0.3013  0.2132  3.6324
 1639SOL     OW11966   9.785   9.085  11.125 -0.5255 -0.2619 -0.4891
 1639SOL    HW111967   9.807   9.116  11.037 -0.5726  1.2513  0.0151
 1639SOL    HW211968   9.690   9.097  11.131 -0.2594  1.5850  0.4741
 1640SOL     OW11969   0.791  10.057   6.936  0.4298 -0.5340 -0.0952
 1640SOL    HW111970   0.703  10.023   6.954  1.3153 -3.2997 -0.4762
 1640SOL    HW211971   0.778  10.118   6.863 -1.1847 -0.7377 -0.0300
 1641SOL     OW11972  11.929   8.413   3.454  0.0030  0.8042 -0.0288
 1641SOL    HW111973  11.950   8.364   3.533 -0.7277  0.7784  0.1622
 1641SOL    HW211974  12.013   8.433   3.414  0.4435  1.8013  1.3499
 1642SOL     OW11975   0.150   8.843   0.211  0.1733 -0.2233  0.6425
 1642SOL    HW111976   0.212   8.771   0.199  1.3760  0.7237  0.8617
 1642SOL    HW211977   0.205   8.917   0.238 -0.9814  0.8604  0.1365
 1643SOL     OW11978   0.960   9.089   7.878 -0.3639  0.3885  0.2406
 1643SOL    HW111979   0.894   9.112   7.812 -0.8526  1.2820  1.0319
 1643SOL    HW211980   1.027   9.042   7.828 -0.7125  1.0649 -0.9112
 1644SOL     OW11981  10.948   8.824   3.855 -0.0603  0.6826 -0.7059
 1644SOL    HW111982  10.859   8.854   3.874 -0.0346 -0.1778  1.0046
 1644SOL    HW211983  10.994   8.903   3.826 -0.9921  1.4702 -0.1210
 1645SOL     OW11984   0.360   4.860   5.041 -0.1289 -0.4140  0.5236
 1645SOL    HW111985   0.286   4.814   4.999  0.3495 -2.6869  1.9833
 1645SOL    HW211986   0.428   4.861   4.974 -0.6572 -0.5125 -0.0275
 1646SOL     OW11987   4.444  11.844  11.230 -0.5455  0.1863  0.0987
 1646SOL    HW111988   4.502  11.889  11.292  0.5083  0.6381 -1.1843
 1646SOL    HW211989   4.361  11.892  11.237  0.1470  1.4886 -0.2200
 1647SOL     OW11990   5.208   2.476   5.398 -0.2265  0.0567 -0.1576
 1647SOL    HW111991   5.282   2.455   5.454  0.0497 -0.8533 -0.8408
 1647SOL    HW211992   5.131   2.449   5.450  0.0405 -1.1042 -0.3323
 1648SOL     OW11993  10.328   8.231   0.090  0.0615  0.4464  0.0189
 1648SOL    HW111994  10.309   8.313   0.044  0.8528  1.1054  0.8226
 1648SOL    HW211995  10.350   8.169   0.020  1.2839  1.4313 -0.5059
 1649SOL     OW11996  10.593   6.844   0.554  0.2429 -0.9590  0.1130
 1649SOL    HW111997  10.652   6.917   0.576 -1.8593  0.6030  0.8806
 1649SOL    HW211998  10.636   6.767   0.592  3.0375 -0.3842 -1.5637
 1650SOL     OW11999   7.506   7.291   0.744 -0.8996 -0.2299  0.2680
 1650SOL    HW112000   7.566   7.302   0.817  0.3250 -0.4594 -0.6640
 1650SOL    HW212001   7.504   7.197   0.727 -1.1175 -0.1741 -0.0455
 1651SOL     OW12002   0.210  10.536  11.559 -0.1142 -0.1334 -0.2532
 1651SOL    HW112003   0.139  10.475  11.538 -0.2773 -0.1928  0.4458
 1651SOL    HW212004   0.165  10.616  11.587  0.1029  0.0058 -0.2984
 1652SOL     OW12005  11.177   7.642   0.303  0.0384  0.0229 -0.5089
 1652SOL    HW112006  11.259   7.618   0.346  0.0959  1.2294  0.1096
 1652SOL    HW212007  11.199   7.645   0.210  1.2879  2.3108 -0.2102
 1653SOL     OW12008   9.773  12.266   4.703 -0.4630 -0.1782  0.6217
 1653SOL    HW112009   9.800  12.288   4.793  0.7778  0.1799  0.1856
 1653SOL    HW212010   9.680  12.285   4.701 -0.4123  0.2957  1.6932
 1654SOL     OW12011   0.429   5.213   4.540 -0.2400 -0.2331  0.1251
 1654SOL    HW112012   0.496   5.179   4.599 -0.2009 -1.3466 -0.5228
 1654SOL    HW212013   0.376   5.136   4.518 -0.2341  0.1428 -1.2959
 1655SOL     OW12014   7.760   0.822  10.673  0.3478 -0.2579  0.1003
 1655SOL    HW112015   7.764   0.914  10.645  0.4563 -0.2856  0.0291
 1655SOL    HW212016   7.777   0.826  10.768  0.2932 -0.1988  0.1078
 1656SOL     OW12017   4.442   1.554   2.739 -0.2915  0.0220 -0.1060
 1656SOL    HW112018   4.418   1.514   2.823 -0.8038  0.3840 -0.0803
 1656SOL    HW212019   4.368   1.610   2.716  0.3174  0.7822 -0.2635
 1657SOL     OW12020   3.138   3.645  12.288  0.1349 -0.4287  0.0997
 1657SOL    HW112021   3.180   3.731  12.297 -0.4774 -0.1883  0.8097
 1657SOL    HW212022   3.102   3.627  12.375  1.1222 -1.8701  0.2433
 1658SOL     OW12023   3.522   2.523  11.712  0.3013  0.4309 -0.2367
 1658SOL    HW112024   3.525   2.438  11.669 -0.4145 -0.0606  0.6589
 1658SOL    HW212025   3.433   2.555  11.695 -0.5679 -0.5007  2.1983
 1659SOL     OW12026   3.440   8.832   6.633 -0.0104  0.2442 -0.0994
 1659SOL    HW112027   3.471   8.746   6.606 -0.8788  0.2779 -1.3040
 1659SOL    HW212028   3.429   8.880   6.551 -2.1216  0.5870  0.3343
 1660SOL     OW12029   0.493   9.205   0.889  0.0773 -0.6352  0.1387
 1660SOL    HW112030   0.555   9.277   0.902  0.0285 -0.6723  0.5840
 1660SOL    HW212031   0.438   9.234   0.816 -1.1517  0.6288  1.4959
 1661SOL     OW12032   5.394   1.621   7.873 -0.5794 -0.2952  0.5195
 1661SOL    HW112033   5.454   1.560   7.915  0.6205  0.0690 -0.6004
 1661SOL    HW212034   5.372   1.579   7.790 -1.0817  0.0376  0.4824
 1662SOL     OW12035   5.114  11.510  10.733  0.0550  0.2344 -0.0438
 1662SOL    HW112036   5.114  11.446  10.661 -1.2725  0.7118 -0.5082
 1662SOL    HW212037   5.117  11.595  10.689 -0.2143  0.5236  0.4904
 1663SOL     OW12038   5.852   7.928   1.154 -0.1447 -0.3350 -0.4297
 1663SOL    HW112039   5.806   7.930   1.238 -0.2836 -0.6347 -0.4961
 1663SOL    HW212040   5.856   8.019   1.127  2.7052  0.2093  1.3967
 1664SOL     OW12041  10.673   5.112   8.957 -0.3101 -0.3368 -0.0708
 1664SOL    HW112042  10.746   5.052   8.946  0.2384  0.3525 -0.2951
 1664SOL    HW212043  10.629   5.113   8.871 -0.0527 -0.0853 -0.2025
 1665SOL     OW12044   4.483   0.392   0.425 -0.2611  0.1264  0.3826
 1665SOL    HW112045   4.427   0.425   0.495 -1.5422 -1.6771  0.2688
 1665SOL    HW212046   4.432   0.407   0.345 -0.0372 -0.3970  0.1395
 1666SOL     OW12047   2.796   5.821  11.566 -0.4928 -0.6755 -0.0151
 1666SOL    HW112048   2.862   5.891  11.559 -2.3992  1.4920  1.7877
 1666SOL    HW212049   2.844   5.745  11.596  1.5688  0.0548 -1.2615
 1667SOL     OW12050   3.393   5.898   7.440  0.4310  0.2089  0.6237
 1667SOL    HW112051   3.425   5.929   7.355 -0.5981 -0.5804 -0.0701
 1667SOL    HW212052   3.424   5.964   7.502  4.1952 -0.8945  0.2110
 1668SOL     OW12053   3.727  11.816   3.414  0.3946 -0.0044 -0.2417
 1668SOL    HW112054   3.821  11.818   3.433  0.6823 -1.6550 -1.2774
 1668SOL    HW212055   3.722  11.813   3.318 -0.8456  3.0734 -0.3826
 1669SOL     OW12056  11.431   2.824   9.175  0.1856 -0.0069  0.6311
 1669SOL    HW112057  11.363   2.757   9.179 -1.1605  1.3280  3.0830
 1669SOL    HW212058  11.489   2.796   9.104 -1.4634 -2.5828  0.1581
 1670SOL     OW12059   0.427   5.510  11.756  0.1355 -0.3745 -0.2945
 1670SOL    HW112060   0.430   5.579  11.689  0.8211  0.4173  0.5213
 1670SOL    HW212061   0.515   5.472  11.753  0.1119 -0.4521  0.0366
 1671SOL     OW12062  11.127   4.967   4.168 -0.3009 -0.8704 -0.1474
 1671SOL    HW112063  11.142   5.062   4.172  2.1646 -1.1989 -0.5799
 1671SOL    HW212064  11.130   4.939   4.259  1.5548 -0.8464 -0.1647
 1672SOL     OW12065   0.744   3.950   2.701  1.1090  0.1865  0.6719
 1672SOL    HW112066   0.833   3.953   2.736  1.5299  0.2075 -0.3782
 1672SOL    HW212067   0.718   4.042   2.693  0.9849  0.1799  0.9920
 1673SOL     OW12068  10.199   6.392   3.046 -0.2305  0.1603 -0.3286
 1673SOL    HW112069  10.206   6.383   2.951 -0.1998  1.7893 -0.4974
 1673SOL    HW212070  10.109   6.365   3.065  0.0587 -1.1364 -0.6709
 1674SOL     OW12071  12.322   4.509   5.968 -0.5520 -0.7712  0.0799
 1674SOL    HW112072  12.318   4.587   5.912  1.7813  0.2802  1.2018
 1674SOL    HW212073  12.368   4.539   6.047 -0.0485 -3.1714  0.7798
 1675SOL     OW12074   2.960   1.894   5.511  0.4399  0.0683  0.4638
 1675SOL    HW112075   2.983   1.815   5.560 -0.1783 -0.5470 -0.2166
 1675SOL    HW212076   3.036   1.952   5.520  0.2351  0.1060  2.4062
 1676SOL     OW12077   5.546   4.712   5.659  0.5049 -0.0774 -0.2901
 1676SOL    HW112078   5.499   4.661   5.725 -0.0186  1.3769  0.5173
 1676SOL    HW212079   5.484   4.780   5.633  0.8539 -0.3807 -1.9992
 1677SOL     OW12080   0.583   2.970   1.528 -0.5089 -0.0053 -0.3278
 1677SOL    HW112081   0.501   3.013   1.550 -1.7193 -1.1565 -2.3616
 1677SOL    HW212082   0.560   2.877   1.519  1.7996 -1.0671  2.8496
 1678SOL     OW12083   7.314   2.173   9.168  0.1420  0.2010 -0.0468
 1678SOL    HW112084   7.263   2.136   9.095 -0.2130 -1.1759  0.8512
 1678SOL    HW212085   7.336   2.261   9.139 -0.4888 -0.0993 -1.5764
 1679SOL     OW12086   1.128   5.150  10.152 -0.2535 -0.6546 -0.5828
 1679SOL    HW112087   1.047   5.119  10.112 -0.2479 -0.7593 -0.5125
 1679SOL    HW212088   1.174   5.194  10.080  0.3119 -1.8988 -1.0085
 1680SOL     OW12089   4.387  10.476   9.298 -0.4096 -0.0586  0.2486
 1680SOL    HW112090   4.447  10.480   9.224  0.6535  0.1909  1.1138
 1680SOL    HW212091   4.388  10.383   9.324 -1.4823 -0.3288 -0.5909
 1681SOL     OW12092   6.770   8.737  10.505  0.1066 -0.3787  0.3568
 1681SOL    HW112093   6.707   8.697  10.565 -0.4949  1.5483  1.0851
 1681SOL    HW212094   6.725   8.815  10.472  1.2468 -0.2480 -0.9661
 1682SOL     OW12095   7.692   3.017  10.959 -0.0313  0.0090  0.3229
 1682SOL    HW112096   7.605   2.981  10.946 -0.2614  0.3139  0.9304
 1682SOL    HW212097   7.700   3.086  10.893 -0.6611  0.6675  0.9048
 1683SOL     OW12098   6.147  10.407  12.558 -0.5019 -0.1570  0.3802
 1683SOL    HW112099   6.094  10.485  12.545 -1.3108 -0.9026 -0.9778
 1683SOL    HW212100   6.091  10.346  12.605  0.0349 -0.0523  1.1900
 1684SOL     OW12101   9.188   5.573  12.573  0.0710 -0.2368  0.1825
 1684SOL    HW112102   9.103   5.562  12.530  0.4525 -0.3925 -0.5406
 1684SOL    HW212103   9.209   5.486  12.607  0.5966 -0.5390 -0.8822
 1685SOL     OW12104  11.090   7.889   1.581  0.0589 -0.3372  0.5137
 1685SOL    HW112105  11.185   7.888   1.590  0.4737 -0.5149 -2.7748
 1685SOL    HW212106  11.071   7.967   1.530 -1.6130 -0.2370  1.2174
 1686SOL     OW12107   1.968   7.692   8.579  0.0783 -0.2646 -0.6927
 1686SOL    HW112108   1.943   7.603   8.603  1.5534 -0.1900  1.3922
 1686SOL    HW212109   2.027   7.681   8.505  0.9536 -1.1344  0.1040
 1687SOL     OW12110   9.370   1.064   3.046  0.4476  0.2354 -0.0881
 1687SOL    HW112111   9.427   1.139   3.031  0.2121  0.7638  1.4268
 1687SOL    HW212112   9.363   1.021   2.961  3.7341 -0.3020 -0.2004
 1688SOL     OW12113  11.976   4.299   5.552 -0.1653  0.0399 -0.2537
 1688SOL    HW112114  12.020   4.338   5.628 -0.2993 -0.9811  0.3730
 1688SOL    HW212115  11.969   4.370   5.489  0.7439  0.6914  0.3489
 1689SOL     OW12116   1.995  10.714   1.884 -0.5465 -0.8063 -0.2235
 1689SOL    HW112117   1.966  10.662   1.959  1.3267  0.0450  1.1846
 1689SOL    HW212118   2.087  10.690   1.873  0.3803  2.0195  0.4281
 1690SOL     OW12119   1.386   1.846   5.942 -0.1997 -0.3982 -0.2729
 1690SOL    HW112120   1.432   1.922   5.977  0.4075 -0.6566 -0.5003
 1690SOL    HW212121   1.352   1.874   5.858  2.2749 -1.1327 -1.5986
 1691SOL     OW12122  11.996   5.510   8.108  0.1916  0.6207  0.3558
 1691SOL    HW112123  12.079   5.473   8.137  0.7410  0.7247 -1.0089
 1691SOL    HW212124  12.002   5.512   8.013 -1.8243 -0.3753  0.1433
 1692SOL     OW12125   6.970  10.632  10.324 -0.1037 -0.2294  0.7621
 1692SOL    HW112126   6.888  10.615  10.277  0.6167 -2.1295  0.0716
 1692SOL    HW212127   6.963  10.581  10.405  0.0128  0.3767  1.1613
 1693SOL     OW12128   0.280   5.619   8.121 -0.5771  0.4089 -0.3760
 1693SOL    HW112129   0.245   5.707   8.133 -0.2018  0.5115 -0.0091
 1693SOL    HW212130   0.333   5.603   8.199  0.2562  0.2971 -0.9490
 1694SOL     OW12131  11.613   1.171   3.364  0.1999 -0.7569 -0.4237
 1694SOL    HW112132  11.558   1.232   3.315  1.0806 -0.0283 -0.5297
 1694SOL    HW212133  11.569   1.087   3.356 -0.2561 -0.4280 -1.5359
 1695SOL     OW12134   3.718   5.981   7.309 -0.4653 -0.2104  0.1417
 1695SOL    HW112135   3.686   5.901   7.269 -1.0008  0.2756 -0.4253
 1695SOL    HW212136   3.763   6.028   7.239 -0.8684  0.3577  0.2532
 1696SOL     OW12137   1.745   2.536   2.567 -0.0614  0.0907  0.6601
 1696SOL    HW112138   1.836   2.564   2.564  0.3647 -1.3088 -0.4676
 1696SOL    HW212139   1.694   2.616   2.550  0.9888  0.6699  0.1568
 1697SOL     OW12140   6.249   8.908  10.760 -0.3416  0.2105  0.1106
 1697SOL    HW112141   6.209   8.828  10.728 -0.1237 -0.3263  1.1486
 1697SOL    HW212142   6.247   8.968  10.685 -0.9762 -0.5827 -0.5148
 1698SOL     OW12143  11.709   8.330   9.812 -0.4213 -0.3820  0.4613
 1698SOL    HW112144  11.783   8.303   9.867 -0.7915 -0.5090  0.9110
 1698SOL    HW212145  11.651   8.377   9.873 -0.4825  0.1311  0.0088
 1699SOL     OW12146   0.450  10.781   1.291 -0.4435 -0.4176 -0.0121
 1699SOL    HW112147   0.522  10.732   1.252 -0.4234 -0.2177 -0.2276
 1699SOL    HW212148   0.385  10.715   1.314  0.3644 -0.7589  1.4255
 1700SOL     OW12149  12.225  12.058   0.610 -0.3097  0.9244 -0.4169
 1700SOL    HW112150  12.178  12.141   0.603 -1.9529  0.2132  1.1935
 1700SOL    HW212151  12.196  12.007   0.534 -1.4058  0.8893  0.0001
 1701SOL     OW12152  11.599   1.781  11.467 -0.2026  0.0742  0.4780
 1701SOL    HW112153  11.619   1.701  11.418 -2.4098  0.8299 -1.8922
 1701SOL    HW212154  11.684   1.817  11.490  0.8763 -2.5689  1.0393
 1702SOL     OW12155  11.323   7.723   2.831 -0.2011  0.0384 -0.6332
 1702SOL    HW112156  11.374   7.665   2.887 -1.0514  0.1747  0.3063
 1702SOL    HW212157  11.264   7.664   2.784 -0.3416  0.0470 -0.4655
 1703SOL     OW12158  10.936   0.765   9.857  0.3811  0.6253 -0.3229
 1703SOL    HW112159  10.994   0.788   9.929  0.1869 -0.3869  0.1787
 1703SOL    HW212160  10.987   0.704   9.803 -0.2459 -0.3935  0.2054
 1704SOL     OW12161   7.671   1.915   5.790 -0.1017  0.3075 -0.2256
 1704SOL    HW112162   7.710   1.938   5.706 -0.0509 -0.0492 -0.3026
 1704SOL    HW212163   7.686   1.992   5.846  0.2210  0.3863 -0.4210
 1705SOL     OW12164   7.205   6.450  12.240  0.3795 -0.7190  0.1683
 1705SOL    HW112165   7.266   6.383  12.272 -0.0967 -1.4888 -0.5250
 1705SOL    HW212166   7.153   6.473  12.317  0.6594 -1.0222  0.4525
 1706SOL     OW12167  11.724   9.686   4.581 -0.3000  0.2405 -0.2002
 1706SOL    HW112168  11.750   9.723   4.497  1.2883 -1.0928 -0.3631
 1706SOL    HW212169  11.786   9.725   4.644 -1.5922  1.3744  0.4176
 1707SOL     OW12170   8.390   0.087   2.705  0.2023 -0.0861 -0.1700
 1707SOL    HW112171   8.465   0.042   2.744  0.6824  1.8060  1.2352
 1707SOL    HW212172   8.318   0.070   2.766 -0.0140 -0.2037 -0.4536
 1708SOL     OW12173  11.404   9.065   6.346  0.2374  0.6754 -0.1073
 1708SOL    HW112174  11.431   9.095   6.260 -0.1317  1.1995 -0.0467
 1708SOL    HW212175  11.377   9.145   6.392 -1.9661  0.1392 -0.3694
 1709SOL     OW12176   6.779   3.070   9.762  0.8130  0.1270 -0.3768
 1709SOL    HW112177   6.759   2.992   9.814  1.2362  0.9300  1.0263
 1709SOL    HW212178   6.694   3.096   9.726 -0.1809  1.4126  2.5861
 1710SOL     OW12179   0.831   3.832   8.181 -0.4793 -0.0150 -0.0762
 1710SOL    HW112180   0.887   3.876   8.117 -2.1439  1.9293 -0.2837
 1710SOL    HW212181   0.757   3.891   8.194 -1.1632 -1.2319  2.2247
 1711SOL     OW12182  11.434   9.713  11.131  0.1307  0.1372 -0.2849
 1711SOL    HW112183  11.350   9.750  11.104  0.5834  1.2384 -0.2323
 1711SOL    HW212184  11.480   9.694  11.049  0.1201  0.2138 -0.3086
 1712SOL     OW12185  11.129  12.377   6.296  0.2954 -0.4243  0.2267
 1712SOL    HW112186  11.207  12.336   6.333  1.2860  0.2341 -1.0563
 1712SOL    HW212187  11.148  12.471   6.299  0.0969 -0.3240 -1.2526
 1713SOL     OW12188   4.173   2.836   2.675  0.5628 -0.2957  0.3327
 1713SOL    HW112189   4.198   2.873   2.760  0.2666  1.2536 -0.2148
 1713SOL    HW212190   4.106   2.771   2.695 -0.1717  0.7006  1.2388
 1714SOL     OW12191   4.449   8.337   2.887 -0.0967 -0.7039  0.1820
 1714SOL    HW112192   4.529   8.390   2.891 -1.5110  1.7894 -1.6930
 1714SOL    HW212193   4.473   8.262   2.833  0.9557  0.0658 -0.4699
 1715SOL     OW12194   9.235   2.338   2.085  0.5345  0.9540 -0.4520
 1715SOL    HW112195   9.245   2.244   2.102 -2.4049  0.8140  1.2517
 1715SOL    HW212196   9.209   2.343   1.994  1.9348  0.2666 -0.9193
 1716SOL     OW12197   4.959  10.165   8.133  0.1279  0.0182 -0.1060
 1716SOL    HW112198   4.890  10.156   8.198 -0.8596 -1.3569 -1.2744
 1716SOL    HW212199   4.952  10.255   8.102 -0.0812  0.3641  0.9167
 1717SOL     OW12200   4.495  11.093   0.529 -0.2179 -0.1874  0.2476
 1717SOL    HW112201   4.451  11.177   0.543 -0.4309 -0.4665  1.3938
 1717SOL    HW212202   4.434  11.028   0.562  0.1221 -0.7676 -0.2452
 1718SOL     OW12203  10.093   5.844  10.271  0.1506 -0.1784  0.2767
 1718SOL    HW112204  10.004   5.868  10.247 -0.0273 -0.2523  0.8482
 1718SOL    HW212205  10.141   5.927  10.273  0.2982 -0.2158 -0.8052
 1719SOL     OW12206   8.362   1.764  11.342 -0.4786  0.5817 -0.0146
 1719SOL    HW112207   8.378   1.728  11.430  1.2965  2.1300  0.3619
 1719SOL    HW212208   8.282   1.815  11.352 -0.4185  0.5600  0.6648
 1720SOL     OW12209   9.314   3.327   8.507 -0.7425  0.4600 -0.0522
 1720SOL    HW112210   9.304   3.367   8.593 -5.0911  1.9685 -1.0076
 1720SOL    HW212211   9.279   3.239   8.516  2.3278 -0.8491  0.4145
 1721SOL     OW12212   5.726   1.651   8.757 -0.3575  0.5379  0.4629
 1721SOL    HW112213   5.749   1.684   8.670  0.3227 -0.1753  0.3575
 1721SOL    HW212214   5.631   1.663   8.763 -0.1345  2.5880  0.4864
 1722SOL     OW12215   1.658   3.579   2.918 -0.4085  0.6626  0.6894
 1722SOL    HW112216   1.739   3.580   2.868  0.1291 -1.4279  1.3910
 1722SOL    HW212217   1.592   3.615   2.859  0.8454  1.5182 -0.2230
 1723SOL     OW12218   2.544   0.729   6.228 -0.3305 -0.0505 -0.1651
 1723SOL    HW112219   2.545   0.767   6.316 -1.6547 -1.9535  0.7415
 1723SOL    HW212220   2.452   0.735   6.200 -0.1394 -0.5226 -0.9247
 1724SOL     OW12221   4.297   2.673   6.701 -0.1666  0.5267 -0.2747
 1724SOL    HW112222   4.249   2.611   6.756 -0.4095 -0.9635 -2.0770
 1724SOL    HW212223   4.389   2.656   6.720 -0.1881 -1.2000 -1.5154
 1725SOL     OW12224   8.054   9.326   6.246  0.0550  0.3901 -0.0428
 1725SOL    HW112225   8.093   9.320   6.334 -0.9595  0.0795  0.4003
 1725SOL    HW212226   8.023   9.237   6.228  0.3748  0.4256 -0.7721
 1726SOL     OW12227   9.915   1.928   3.287  0.2686 -0.0134 -0.3031
 1726SOL    HW112228   9.929   1.977   3.368  0.7192 -1.0358  0.2496
 1726SOL    HW212229   9.987   1.957   3.230 -1.4791  2.6467 -1.3444
 1727SOL     OW12230   7.105   1.443  10.943  0.2612  0.2957 -0.6966
 1727SOL    HW112231   7.127   1.359  10.983  1.9966  0.9664 -0.1513
 1727SOL    HW212232   7.016   1.461  10.975 -0.1343 -1.2945 -0.8066
 1728SOL     OW12233   6.085   2.250   9.824 -0.5625 -0.2330  0.3596
 1728SOL    HW112234   6.062   2.316   9.759 -0.7579 -2.2297 -1.7177
 1728SOL    HW212235   6.001   2.223   9.861 -0.6329 -0.3928  0.0860
 1729SOL     OW12236   4.928   6.383   4.498 -0.3322 -0.4968  0.3862
 1729SOL    HW112237   4.832   6.391   4.492 -0.3519 -0.5452  0.6241
 1729SOL    HW212238   4.944   6.290   4.480 -0.5314 -1.0282  2.6013
 1730SOL     OW12239  10.484  10.702   0.587 -0.0991  0.5740  0.0576
 1730SOL    HW112240  10.566  10.655   0.600 -0.1462  0.5799  0.3743
 1730SOL    HW212241  10.497  10.787   0.629 -0.1382  0.7120 -0.2075
 1731SOL     OW12242   0.207   0.018   6.441 -0.2325  0.5023 -0.0576
 1731SOL    HW112243   0.129   0.057   6.400  0.0755  0.6707 -0.4894
 1731SOL    HW212244   0.268   0.091   6.451  0.3331  0.1484 -0.8289
 1732SOL     OW12245   5.238  12.510   2.085  0.0268  0.3196 -0.0451
 1732SOL    HW112246   5.326  12.480   2.061  0.7358  0.8976  1.6352
 1732SOL    HW212247   5.246  12.605   2.091 -0.8421  0.4163 -0.3291
 1733SOL     OW12248  10.923   0.952   8.144 -0.2346 -0.3087 -0.8045
 1733SOL    HW112249  10.936   0.858   8.134  2.3404 -0.0308 -0.8035
 1733SOL    HW212250  11.010   0.986   8.166 -1.2307  1.9916 -0.0962
 1734SOL     OW12251   6.249   0.248   8.161  0.3116 -0.7439 -0.0115
 1734SOL    HW112252   6.319   0.291   8.211  1.9004 -3.4834  0.3274
 1734SOL    HW212253   6.285   0.237   8.073 -0.3937 -0.6328 -0.3209
 1735SOL     OW12254   8.348   9.799   3.345  0.3180 -0.1906 -0.0010
 1735SOL    HW112255   8.400   9.728   3.384  2.2853  0.6827 -0.9274
 1735SOL    HW212256   8.312   9.845   3.420  0.6120 -1.0157  0.6705
 1736SOL     OW12257   3.801   0.324  11.011  0.1435  0.2300  0.5527
 1736SOL    HW112258   3.798   0.419  11.026 -1.6162  0.2686  0.2381
 1736SOL    HW212259   3.834   0.288  11.093  1.2790  1.1281  0.5163
 1737SOL     OW12260   6.404   4.520   5.841  0.1488 -0.0328 -0.4838
 1737SOL    HW112261   6.314   4.496   5.865  0.4247  0.2094  0.9288
 1737SOL    HW212262   6.448   4.436   5.829 -0.1084 -0.1621 -0.5371
 1738SOL     OW12263   7.271   5.210   7.065  0.2154  0.1458 -0.2515
 1738SOL    HW112264   7.231   5.230   6.980 -0.8064  0.1950  0.2314
 1738SOL    HW212265   7.350   5.159   7.043 -0.8243 -1.1314 -1.1827
 1739SOL     OW12266   9.079   8.938   1.294  0.0477  0.1594  0.4267
 1739SOL    HW112267   9.166   8.970   1.318 -1.6528  3.9780  2.3497
 1739SOL    HW212268   9.021   9.012   1.310 -3.3615 -1.4621 -2.8388
 1740SOL     OW12269   0.062   6.612   8.248 -0.2522  0.0340 -0.1960
 1740SOL    HW112270   0.019   6.533   8.215 -1.9391  0.9793 -0.3762
 1740SOL    HW212271   0.016   6.632   8.330 -0.7411  1.5262 -0.7980
 1741SOL     OW12272   8.475   9.275   3.047  0.2099 -0.2558 -0.3500
 1741SOL    HW112273   8.437   9.330   3.116 -1.1680 -1.6251  0.0254
 1741SOL    HW212274   8.474   9.330   2.969  0.2756  0.7547  0.3351
 1742SOL     OW12275   2.489  10.237   7.188 -0.0400  0.3795 -0.9065
 1742SOL    HW112276   2.553  10.170   7.164  2.4284  2.1785  0.1205
 1742SOL    HW212277   2.495  10.242   7.284  0.7760  2.8021 -1.0107
 1743SOL     OW12278   1.988   4.685   8.051 -0.3208  0.6576 -0.1782
 1743SOL    HW112279   1.906   4.653   8.015 -0.4424  0.9049 -0.1218
 1743SOL    HW212280   2.015   4.617   8.112 -0.1767  0.2945 -0.6384
 1744SOL     OW12281   9.758  10.795   2.631  0.5071 -0.8663 -0.0036
 1744SOL    HW112282   9.803  10.868   2.673  0.6172 -1.1364  0.3543
 1744SOL    HW212283   9.745  10.731   2.701 -1.4095 -0.3589  0.1387
 1745SOL     OW12284   7.196   5.627   3.759  0.4487  0.7770  0.6936
 1745SOL    HW112285   7.218   5.699   3.817  0.3214  0.9802  0.4909
 1745SOL    HW212286   7.134   5.574   3.809  0.8507  0.5858  0.9968
 1746SOL     OW12287   5.942   6.555   9.423 -0.3869 -0.0654  0.1346
 1746SOL    HW112288   5.905   6.603   9.497 -0.9229  1.4894 -1.0783
 1746SOL    HW212289   6.028   6.527   9.454  2.1006  5.6351 -0.3397
 1747SOL     OW12290   2.272   1.055  12.143  0.1704  0.3640  0.0264
 1747SOL    HW112291   2.231   1.001  12.075  0.6301  0.4201 -0.2997
 1747SOL    HW212292   2.212   1.049  12.217  1.0870 -2.0718  0.6657
 1748SOL     OW12293   5.970   3.741   5.576 -0.2874  0.1977 -0.1134
 1748SOL    HW112294   5.973   3.783   5.662  0.6960  1.8679 -0.9118
 1748SOL    HW212295   5.892   3.686   5.579 -0.0940 -0.0453  1.9501
 1749SOL     OW12296   0.999   0.158   8.098  0.0447  0.4658 -0.1161
 1749SOL    HW112297   1.025   0.134   8.186  0.0453 -0.5032 -0.3772
 1749SOL    HW212298   1.012   0.253   8.095  0.1561  0.4937  0.8776
 1750SOL     OW12299   3.225   4.086   9.291 -0.1683 -0.0127 -0.0295
 1750SOL    HW112300   3.168   4.160   9.313  0.4482  0.0551  1.4200
 1750SOL    HW212301   3.314   4.122   9.297  0.0881 -0.0912 -2.3547
 1751SOL     OW12302   3.869  12.585   7.388  0.1444 -0.1418  0.0819
 1751SOL    HW112303   3.876  12.645   7.314  1.0352 -0.1979  0.1143
 1751SOL    HW212304   3.842  12.641   7.461 -0.9039 -0.1168 -0.3079
 1752SOL     OW12305   4.357   8.341  12.474  0.2028 -0.0437 -0.2674
 1752SOL    HW112306   4.372   8.408  12.541 -0.2621 -0.5650  0.3632
 1752SOL    HW212307   4.439   8.292  12.471  1.0134  1.2999 -1.6217
 1753SOL     OW12308   6.964   2.542   5.831 -0.3003 -0.3047  0.4430
 1753SOL    HW112309   6.982   2.460   5.783 -0.1806 -0.0203 -0.0081
 1753SOL    HW212310   6.938   2.603   5.762 -1.8251 -0.3641  0.9372
 1754SOL     OW12311   1.885   2.801   4.012 -0.5364  0.0414  0.0743
 1754SOL    HW112312   1.940   2.723   4.011 -0.1248  0.3326 -0.4778
 1754SOL    HW212313   1.884   2.829   4.103 -0.8119 -0.6889  0.3074
 1755SOL     OW12314   0.305   3.600   2.861  0.5830 -0.0844 -0.0485
 1755SOL    HW112315   0.230   3.598   2.920  0.5854  0.2880 -0.0262
 1755SOL    HW212316   0.270   3.631   2.778  1.0039  1.8879  0.4429
 1756SOL     OW12317   3.719   6.490   6.771 -0.1880 -0.3637 -0.5413
 1756SOL    HW112318   3.801   6.536   6.757 -1.2631  1.0469 -2.8438
 1756SOL    HW212319   3.736   6.401   6.743  0.5110 -0.0519 -1.1369
 1757SOL     OW12320  11.733   0.945   7.541 -0.1011 -0.3299  0.4964
 1757SOL    HW112321  11.696   0.968   7.456  0.6599  0.6382  0.4103
 1757SOL    HW212322  11.713   0.852   7.551 -2.2754  0.0635  0.3278
 1758SOL     OW12323   3.058   1.252   8.415 -0.3022  0.3651  0.0976
 1758SOL    HW112324   3.046   1.167   8.458 -0.4147 -0.2584 -1.1272
 1758SOL    HW212325   2.992   1.254   8.346  0.1236  1.1805 -0.3001
 1759SOL     OW12326   2.846   8.792   4.603  0.3132 -0.0906  0.2338
 1759SOL    HW112327   2.930   8.760   4.634  0.0136 -0.3356  0.7955
 1759SOL    HW212328   2.828   8.869   4.657  0.0964 -0.1399  0.2323
 1760SOL     OW12329   5.502   7.114  12.485  0.1079 -0.0986  0.0847
 1760SOL    HW112330   5.492   7.068  12.402  0.9883 -0.5904  0.2422
 1760SOL    HW212331   5.510   7.207  12.460 -0.1950 -0.1829 -0.3348
 1761SOL     OW12332   7.737   2.796   9.760  0.2404  0.0020 -0.1453
 1761SOL    HW112333   7.690   2.722   9.798  2.3519 -3.6493 -3.8615
 1761SOL    HW212334   7.827   2.784   9.788  0.4837  1.8779 -0.0050
 1762SOL     OW12335   2.302   1.756  10.116  0.4550  0.1625  0.6626
 1762SOL    HW112336   2.337   1.729  10.201 -0.0333  0.4136  0.9515
 1762SOL    HW212337   2.208   1.766  10.131 -0.2404 -3.0386 -0.7365
 1763SOL     OW12338   7.568   6.016   1.268  0.3656 -0.5561 -0.1521
 1763SOL    HW112339   7.582   6.021   1.363 -1.7336  1.4817  0.1461
 1763SOL    HW212340   7.600   6.100   1.235 -2.4435  0.4488 -0.6093
 1764SOL     OW12341   9.437  11.581   2.640 -0.0909 -0.1530 -0.4200
 1764SOL    HW112342   9.396  11.512   2.588  1.8076  0.0636 -2.3844
 1764SOL    HW212343   9.440  11.656   2.581  0.3430  0.7719  0.7341
 1765SOL     OW12344   2.632  10.373  12.336 -0.1175 -0.0574 -0.4232
 1765SOL    HW112345   2.707  10.382  12.277 -1.3327 -0.6977 -2.1056
 1765SOL    HW212346   2.581  10.453  12.324 -0.8678 -0.6071 -0.9748
 1766SOL     OW12347   5.587   8.752   5.756  0.1250  0.2309 -0.4565
 1766SOL    HW112348   5.662   8.759   5.697  0.9224  1.5691  0.6441
 1766SOL    HW212349   5.511   8.772   5.701  0.6252 -0.4328 -1.4261
 1767SOL     OW12350   3.281   2.309  11.007 -0.3297 -0.5124  0.2907
 1767SOL    HW112351   3.232   2.391  11.004  0.2664 -0.1652 -0.1786
 1767SOL    HW212352   3.275   2.275  10.918 -2.4902 -2.1534  0.9628
 1768SOL     OW12353   6.395  10.711  12.347 -0.2361 -0.0056 -0.3101
 1768SOL    HW112354   6.422  10.680  12.433  0.4616  0.4761 -0.3482
 1768SOL    HW212355   6.477  10.726  12.300 -0.4658  2.7729  0.0108
 1769SOL     OW12356   7.744   4.996   1.857  0.3891 -0.2888 -0.0245
 1769SOL    HW112357   7.799   5.030   1.786  0.7902  0.4308  0.6111
 1769SOL    HW212358   7.656   4.994   1.820  0.4875  0.7145 -0.3480
 1770SOL     OW12359  11.995   8.200   2.380  0.4359  0.0463  0.5094
 1770SOL    HW112360  12.046   8.120   2.371  0.6250 -0.0024  1.7733
 1770SOL    HW212361  11.923   8.190   2.318 -1.4716 -2.6535  2.8948
 1771SOL     OW12362  11.449   4.216   6.188  0.3376 -0.1805  0.1665
 1771SOL    HW112363  11.543   4.229   6.177  0.1645  0.5824 -0.6002
 1771SOL    HW212364  11.428   4.141   6.133  0.3324  0.3374 -0.5521
 1772SOL     OW12365   7.945   7.953   4.867 -0.5384 -0.5148 -0.4495
 1772SOL    HW112366   7.964   8.047   4.870  1.3771 -0.8715  1.8966
 1772SOL    HW212367   7.993   7.921   4.791 -0.6453  0.2738 -0.8649
 1773SOL     OW12368  11.904  10.612   5.386 -0.0899  0.7138  0.3148
 1773SOL    HW112369  11.871  10.634   5.299  1.3531  2.3753  0.1178
 1773SOL    HW212370  11.999  10.610   5.375  0.0934  0.3824  1.7328
 1774SOL     OW12371   6.343   5.160  10.074 -0.0625 -0.4595  0.5493
 1774SOL    HW112372   6.428   5.195  10.048 -0.5835 -0.6033 -1.5115
 1774SOL    HW212373   6.355   5.065  10.075  0.1834 -0.4389  1.8275
 1775SOL     OW12374   9.031   4.496   9.287 -0.1362 -0.5613  0.5234
 1775SOL    HW112375   9.121   4.522   9.304  0.3920 -1.1880 -1.0674
 1775SOL    HW212376   8.993   4.570   9.241 -0.1744 -0.6137  0.4698
 1776SOL     OW12377   2.349   8.724   3.148  0.3742  0.0043 -0.1303
 1776SOL    HW112378   2.292   8.670   3.093  1.4980  0.1147 -1.4637
 1776SOL    HW212379   2.298   8.739   3.228 -0.9180 -0.9971 -0.7226
 1777SOL     OW12380   5.077   7.853   2.198 -0.2882  0.0237  0.2672
 1777SOL    HW112381   5.075   7.894   2.111 -0.2214  0.2568  0.3751
 1777SOL    HW212382   4.988   7.820   2.211  0.0642 -1.3665 -0.5324
 1778SOL     OW12383   2.752   0.560   4.298 -0.2635 -0.3847 -0.2468
 1778SOL    HW112384   2.710   0.477   4.276 -0.9766 -0.0749 -0.0726
 1778SOL    HW212385   2.828   0.536   4.351 -0.5095 -0.9247 -0.1376
 1779SOL     OW12386   0.911   2.991   4.774  0.4649  0.1567  0.1690
 1779SOL    HW112387   0.825   2.952   4.757  0.4741  0.0506  0.3602
 1779SOL    HW212388   0.892   3.076   4.814  0.4407  0.5097 -0.5810
 1780SOL     OW12389   1.508   6.519   5.718  0.2503  0.4233  0.2165
 1780SOL    HW112390   1.599   6.490   5.716 -0.3590 -1.6396 -0.0793
 1780SOL    HW212391   1.471   6.477   5.796 -0.6992  0.3662 -0.2455
 1781SOL     OW12392   4.725  10.290   9.744  0.2417 -0.0672  0.3425
 1781SOL    HW112393   4.658  10.343   9.702  1.1954  0.1641 -0.9544
 1781SOL    HW212394   4.704  10.200   9.719  0.7317  0.0572 -0.5796
 1782SOL     OW12395   3.715   5.652   4.016  0.1266  0.4770 -0.4342
 1782SOL    HW112396   3.647   5.712   3.988  0.6679  0.3692 -2.0582
 1782SOL    HW212397   3.734   5.599   3.939  2.2882  0.7321 -0.1386
 1783SOL     OW12398   3.283   1.014   5.068  0.2265  0.4288 -0.9344
 1783SOL    HW112399   3.350   1.069   5.110  0.4324 -1.2704  1.1362
 1783SOL    HW212400   3.327   0.975   4.993  1.0423  0.6522 -0.5788
 1784SOL     OW12401  11.109   2.792   9.391 -0.1085 -0.2302 -0.4978
 1784SOL    HW112402  11.077   2.778   9.480  3.4602  1.8876  1.3447
 1784SOL    HW212403  11.157   2.712   9.370 -0.0248 -0.3069 -0.0370
 1785SOL     OW12404   8.317   8.540   8.570  0.3216  0.1512 -0.4074
 1785SOL    HW112405   8.383   8.474   8.594 -0.0910 -0.4090 -0.7860
 1785SOL    HW212406   8.329   8.553   8.476 -0.4795 -0.3767 -0.5869
 1786SOL     OW12407  12.067   7.068   1.025 -0.2665 -0.8188  0.0485
 1786SOL    HW112408  12.049   7.053   1.118 -0.4666 -2.0389 -0.1620
 1786SOL    HW212409  12.156   7.035   1.012  1.6417  3.4961  0.6936
 1787SOL     OW12410   3.136  10.892   7.471  0.2312  0.7509  0.3590
 1787SOL    HW112411   3.112  10.972   7.425  2.5140  1.3190  0.0094
 1787SOL    HW212412   3.119  10.911   7.563 -1.4634  0.7398  0.0709
 1788SOL     OW12413   3.362   9.432   7.015 -0.8495 -0.2576 -0.3801
 1788SOL    HW112414   3.374   9.429   7.110 -1.7394  0.9854 -0.2101
 1788SOL    HW212415   3.318   9.515   6.999 -1.9507 -1.0729 -1.7540
 1789SOL     OW12416   9.233  11.329   0.304 -0.4665 -0.3349 -0.4823
 1789SOL    HW112417   9.152  11.330   0.355 -0.1365  0.0426  0.0498
 1789SOL    HW212418   9.267  11.418   0.313 -0.7429 -0.0557 -1.9272
 1790SOL     OW12419   9.053  11.644   8.819  0.0921  0.0563  0.0967
 1790SOL    HW112420   9.133  11.637   8.871  0.2640  2.3794  0.2367
 1790SOL    HW212421   8.985  11.665   8.882 -0.6701 -1.7980 -0.0376
 1791SOL     OW12422   9.481   6.735   9.537 -0.3907 -0.0175 -0.0169
 1791SOL    HW112423   9.391   6.728   9.506 -0.3845  0.1154 -0.0663
 1791SOL    HW212424   9.519   6.806   9.485 -0.7125  0.9737  1.0709
 1792SOL     OW12425   6.310   1.785   9.180 -0.2313 -0.1164  0.5087
 1792SOL    HW112426   6.370   1.826   9.242  0.1485  2.4764 -1.4150
 1792SOL    HW212427   6.239   1.750   9.235  1.1956 -0.0003  2.5360
 1793SOL     OW12428   6.117   0.690   3.645 -0.4709 -0.1559 -0.0743
 1793SOL    HW112429   6.100   0.601   3.677 -1.3583 -0.4000 -1.1543
 1793SOL    HW212430   6.101   0.746   3.721  0.6962 -0.9430  0.7892
 1794SOL     OW12431   3.617   6.111   1.017 -0.2707 -0.6527  0.3393
 1794SOL    HW112432   3.575   6.192   1.045  0.2821  0.4306 -1.7166
 1794SOL    HW212433   3.686   6.096   1.082 -0.1301  0.7551  0.5440
 1795SOL     OW12434  11.978   7.297   3.849  0.0890  0.0585 -0.5006
 1795SOL    HW112435  11.930   7.320   3.769  0.4810  1.1791 -0.4316
 1795SOL    HW212436  11.972   7.375   3.904  0.5979 -0.3799  0.1957
 1796SOL     OW12437  12.224  11.082   4.650 -0.2320 -0.3164  0.6088
 1796SOL    HW112438  12.152  11.145   4.652 -0.6142 -0.6941 -0.6970
 1796SOL    HW212439  12.302  11.136   4.639 -0.5628 -0.0531 -0.5759
 1797SOL     OW12440  10.385   8.810   2.269  0.1977 -0.1134  0.3905
 1797SOL    HW112441  10.337   8.891   2.283  1.9491  0.9306  0.6383
 1797SOL    HW212442  10.438   8.800   2.349  0.3860 -1.2326  0.1411
 1798SOL     OW12443   6.481   3.842   5.108  0.6822  0.1810  0.5710
 1798SOL    HW112444   6.539   3.917   5.121  0.2858  0.7765 -0.8400
 1798SOL    HW212445   6.535   3.765   5.127  1.2747  0.7977  1.4245
 1799SOL     OW12446   4.480   2.225   7.723  0.0726  0.3912 -0.6833
 1799SOL    HW112447   4.389   2.215   7.753  0.1346 -1.3136 -0.9514
 1799SOL    HW212448   4.518   2.138   7.734  1.6071  1.0262 -0.8310
 1800SOL     OW12449   2.786   1.014   2.227 -0.8309  0.0340 -0.1041
 1800SOL    HW112450   2.780   1.024   2.322  0.5747  1.0624 -0.0861
 1800SOL    HW212451   2.806   0.921   2.214 -0.8259 -0.0732  0.6232
 1801SOL     OW12452   4.605   6.607   1.759 -0.1303  0.5259 -0.2988
 1801SOL    HW112453   4.636   6.566   1.678  0.3528  0.1074  0.0965
 1801SOL    HW212454   4.667   6.678   1.775 -1.3424  1.9233 -1.3551
 1802SOL     OW12455  10.265   1.686   5.047 -0.0098 -0.4025  0.5239
 1802SOL    HW112456  10.292   1.773   5.077 -0.5046  0.1226 -0.4872
 1802SOL    HW212457  10.250   1.636   5.127  2.4050 -0.2561  1.1412
 1803SOL     OW12458   5.164  10.344   1.190 -0.3499 -0.0476 -0.2419
 1803SOL    HW112459   5.227  10.390   1.245  0.3989 -1.4914  0.1364
 1803SOL    HW212460   5.079  10.374   1.223 -0.0078 -2.0270  2.8790
 1804SOL     OW12461   1.139   0.875  11.500  0.1649  0.6065  0.0127
 1804SOL    HW112462   1.085   0.878  11.421 -0.0551  0.2760  0.1473
 1804SOL    HW212463   1.226   0.902  11.471  0.1185  0.3510 -0.3746
 1805SOL     OW12464   8.349   2.822  10.740  0.1976 -0.5305 -0.1293
 1805SOL    HW112465   8.351   2.874  10.820  0.0587 -0.9326  0.1399
 1805SOL    HW212466   8.346   2.731  10.771  0.5951 -0.7041 -0.5896
 1806SOL     OW12467   4.312   0.382   6.167  0.0184  0.0758 -0.8840
 1806SOL    HW112468   4.232   0.426   6.196  1.6459  2.1498  0.8383
 1806SOL    HW212469   4.289   0.289   6.167 -2.4982  0.6260 -0.9214
 1807SOL     OW12470   5.244   8.233   3.428 -0.4545 -0.3339  0.1527
 1807SOL    HW112471   5.252   8.211   3.521 -2.5073 -2.2758 -0.0635
 1807SOL    HW212472   5.158   8.201   3.403  0.5907 -1.1459 -2.7837
 1808SOL     OW12473   5.154   3.238   1.364  0.1011 -0.5353 -0.1855
 1808SOL    HW112474   5.081   3.221   1.306 -0.5407 -1.7332  0.9400
 1808SOL    HW212475   5.203   3.156   1.368  0.1746 -0.4586  0.8936
 1809SOL     OW12476   6.581   6.708   1.053  0.2653 -0.0207  0.4478
 1809SOL    HW112477   6.608   6.685   1.142  1.6273  1.1141  0.3638
 1809SOL    HW212478   6.652   6.679   0.997  0.0995  0.5943 -0.1051
 1810SOL     OW12479   0.524   0.633   4.951  0.0589  0.0702 -0.2618
 1810SOL    HW112480   0.564   0.547   4.941 -1.2996 -0.5789 -0.3914
 1810SOL    HW212481   0.433   0.620   4.923 -0.6781  1.0898  1.5162
 1811SOL     OW12482   4.692  11.053   6.632 -0.4459  0.2647 -0.0652
 1811SOL    HW112483   4.736  11.061   6.547 -0.8528  3.1168 -0.1330
 1811SOL    HW212484   4.763  11.039   6.694  0.2423  1.2883 -0.5732
 1812SOL     OW12485   0.840   5.359   6.369  0.0459  0.2437 -0.0339
 1812SOL    HW112486   0.769   5.422   6.354 -0.4997 -0.5807 -1.0559
 1812SOL    HW212487   0.918   5.414   6.380 -0.3648  1.1146 -1.1831
 1813SOL     OW12488   8.624   0.351   5.885 -0.4923 -0.2340 -0.2943
 1813SOL    HW112489   8.658   0.291   5.952  0.0440 -0.0610 -0.4055
 1813SOL    HW212490   8.535   0.371   5.914 -0.4280 -0.5268  0.1203
 1814SOL     OW12491   7.064   6.985   9.221  0.1354  0.0734  0.0139
 1814SOL    HW112492   7.040   7.051   9.156  2.0888 -1.3740 -2.3668
 1814SOL    HW212493   7.157   7.000   9.237  0.3727 -1.4323  0.1939
 1815SOL     OW12494   1.357   6.682   6.602  0.0136  0.9295 -0.1884
 1815SOL    HW112495   1.343   6.738   6.525  0.7902  2.2475  0.6009
 1815SOL    HW212496   1.310   6.601   6.581  0.8415  0.9244 -2.4129
 1816SOL     OW12497   2.507   3.076   1.971  0.0419  0.3879 -0.0609
 1816SOL    HW112498   2.539   3.038   1.890 -2.9933 -1.7323 -0.4453
 1816SOL    HW212499   2.471   3.002   2.020 -1.5211  2.0980  1.5531
 1817SOL     OW12500   8.807   8.139  10.304  0.0124 -0.2820 -0.1239
 1817SOL    HW112501   8.725   8.178  10.275  0.2349 -0.3623 -0.8690
 1817SOL    HW212502   8.781   8.075  10.370 -0.5829 -0.7825 -0.8321
 1818SOL     OW12503   8.334   0.125  10.485 -0.3787  0.3831  0.2247
 1818SOL    HW112504   8.311   0.204  10.533 -0.5262  1.1497 -1.0547
 1818SOL    HW212505   8.336   0.153  10.393 -0.7016 -1.1561 -0.2792
 1819SOL     OW12506   4.179   8.343   8.728  0.5001  0.4547  0.0939
 1819SOL    HW112507   4.117   8.271   8.728  2.2394 -1.1062  0.2850
 1819SOL    HW212508   4.247   8.317   8.666  0.6556  2.4202 -0.6310
 1820SOL     OW12509   1.812  12.094   4.563 -0.5332  0.0976  0.3442
 1820SOL    HW112510   1.858  12.068   4.643 -0.8934 -0.1126  0.4865
 1820SOL    HW212511   1.767  12.015   4.534 -0.3985  0.1747 -0.0708
 1821SOL     OW12512   5.543   8.191   1.088 -0.3528 -0.2248  0.0868
 1821SOL    HW112513   5.551   8.142   1.169  1.7958 -1.1636 -0.6281
 1821SOL    HW212514   5.631   8.224   1.070 -0.8043  0.1258 -1.7442
 1822SOL     OW12515   6.342   1.272   7.379 -0.1546  0.4757 -0.3374
 1822SOL    HW112516   6.409   1.334   7.408 -1.0279  1.6190 -0.6992
 1822SOL    HW212517   6.357   1.194   7.432  2.4570  0.0802 -1.4629
 1823SOL     OW12518   9.032  10.203   9.173  0.0986 -0.4043  0.2257
 1823SOL    HW112519   9.127  10.195   9.167  0.0764 -0.7985  0.3344
 1823SOL    HW212520   9.013  10.184   9.265  0.1199  1.9959  0.7960
 1824SOL     OW12521  12.445   0.195  11.577  0.6148 -0.1884 -0.0041
 1824SOL    HW112522  12.362   0.151  11.557 -1.0309  3.0489 -0.9714
 1824SOL    HW212523  12.451   0.194  11.673 -1.2005  0.5526  0.1464
 1825SOL     OW12524   1.135   3.089   9.134  0.3937 -0.7685 -0.1386
 1825SOL    HW112525   1.110   3.040   9.055  0.9110  0.0443 -0.8152
 1825SOL    HW212526   1.190   3.028   9.182  0.5115 -1.0891 -0.6668
 1826SOL     OW12527   8.714   8.706   6.124  0.9321 -0.8771  0.2828
 1826SOL    HW112528   8.698   8.757   6.045 -0.7139 -1.0370  0.4808
 1826SOL    HW212529   8.809   8.711   6.138  0.9081  1.5591 -0.0623
 1827SOL     OW12530   9.846   6.847  10.818 -0.1730 -0.0117  0.4223
 1827SOL    HW112531   9.798   6.831  10.899 -1.2132  0.1175 -0.1489
 1827SOL    HW212532   9.935   6.867  10.846 -0.2759 -0.9375  1.4730
 1828SOL     OW12533   5.720   7.240  10.938 -0.0407  0.1004 -0.0400
 1828SOL    HW112534   5.737   7.219  10.847 -1.4685  0.9489 -0.5306
 1828SOL    HW212535   5.769   7.321  10.954 -0.3152  0.3106 -0.2536
 1829SOL     OW12536   3.992  10.262   0.308  0.5664  0.4792  0.3813
 1829SOL    HW112537   4.086  10.247   0.321  0.5078 -0.8285 -0.5414
 1829SOL    HW212538   3.981  10.356   0.321  1.6968  0.4029  2.2423
 1830SOL     OW12539   6.437  11.845   6.301  0.0093  0.0566 -0.3259
 1830SOL    HW112540   6.383  11.888   6.234 -0.2270  0.1800 -0.0568
 1830SOL    HW212541   6.480  11.773   6.254 -0.4799 -0.1160 -0.5166
 1831SOL     OW12542   9.294  12.051   0.448 -0.1045 -0.0639  1.1112
 1831SOL    HW112543   9.205  12.030   0.476 -1.3461  0.8499 -1.8141
 1831SOL    HW212544   9.283  12.115   0.378  2.7134 -1.4806 -0.8262
 1832SOL     OW12545   1.859   7.708  11.695  0.1815 -0.1786 -0.1493
 1832SOL    HW112546   1.799   7.664  11.755 -0.6013  0.1128 -0.6994
 1832SOL    HW212547   1.879   7.791  11.738 -0.4046  0.0452 -0.2967
 1833SOL     OW12548   6.985   5.599   5.862  0.6422 -0.1085  0.5303
 1833SOL    HW112549   7.081   5.603   5.868  0.7676  1.8930 -1.4139
 1833SOL    HW212550   6.966   5.627   5.772 -1.7436 -1.5329  0.5126
 1834SOL     OW12551   0.695   1.634  10.177  0.0245  0.0044  0.8469
 1834SOL    HW112552   0.627   1.626  10.110 -0.2119  1.9776  0.7952
 1834SOL    HW212553   0.763   1.687  10.136  0.4662  0.1385  1.7303
 1835SOL     OW12554  10.937   5.157   0.617 -0.0421  0.1390  0.2080
 1835SOL    HW112555  11.013   5.111   0.583 -0.7100  0.7167 -2.2011
 1835SOL    HW212556  10.950   5.248   0.593 -0.4770  0.6446  1.7281
 1836SOL     OW12557   1.990   2.817   4.540 -0.0297 -0.5112 -0.0694
 1836SOL    HW112558   2.012   2.743   4.597  0.9311 -1.1754 -1.2416
 1836SOL    HW212559   2.075   2.857   4.521 -0.5992  1.3120  1.0681
 1837SOL     OW12560   2.206   3.409   3.337 -0.6701  0.3761 -0.3650
 1837SOL    HW112561   2.277   3.473   3.327  0.6714 -0.8993  0.6461
 1837SOL    HW212562   2.143   3.453   3.394 -0.2746  1.1914 -0.5346
 1838SOL     OW12563   1.888  10.374   1.822  0.2396 -0.1144  0.0645
 1838SOL    HW112564   1.932  10.424   1.891 -1.4809  0.0591  1.0904
 1838SOL    HW212565   1.835  10.438   1.775  0.3215 -0.4819 -0.5424
 1839SOL     OW12566   9.322   2.261   8.527  0.3904 -0.9353  0.5765
 1839SOL    HW112567   9.312   2.186   8.469 -1.7561  0.5800 -1.1961
 1839SOL    HW212568   9.271   2.238   8.605  0.5645 -1.6689  0.4800
 1840SOL     OW12569  11.198   3.122   0.583 -0.7373  0.1871  0.0563
 1840SOL    HW112570  11.138   3.050   0.564 -2.2735  1.7596 -1.4860
 1840SOL    HW212571  11.160   3.164   0.661 -1.5793  1.0171 -0.7600
 1841SOL     OW12572   3.767   5.246   0.269 -0.6344 -0.9895  0.3356
 1841SOL    HW112573   3.706   5.304   0.224  0.7266  0.1903 -0.0540
 1841SOL    HW212574   3.758   5.268   0.362 -0.2828 -0.2899  0.2094
 1842SOL     OW12575  11.082  11.791  11.806  0.7370 -0.4166  0.1428
 1842SOL    HW112576  11.167  11.777  11.848  0.3677 -0.3228  0.9453
 1842SOL    HW212577  11.092  11.755  11.718  1.6923 -0.1462  0.1367
 1843SOL     OW12578   7.028   9.800   0.002 -0.2719 -0.1996 -0.1826
 1843SOL    HW112579   6.962   9.870  -0.002  0.0489  0.1505  0.5096
 1843SOL    HW212580   7.107   9.840  -0.034 -0.0834 -0.2071  0.2311
 1844SOL     OW12581   5.720   6.861  11.398 -0.6655  0.1399  0.0151
 1844SOL    HW112582   5.780   6.933  11.415  0.4698  0.1758 -3.4396
 1844SOL    HW212583   5.664   6.892  11.327 -1.4660 -1.6872 -0.2239
 1845SOL     OW12584   7.246   7.644   5.400 -0.0843  0.0530  0.4089
 1845SOL    HW112585   7.310   7.591   5.447 -0.4076 -0.2618  0.4970
 1845SOL    HW212586   7.286   7.731   5.396  0.4474 -0.1936  0.2584
 1846SOL     OW12587   0.386  11.192  10.104 -0.1635 -0.2518 -0.0413
 1846SOL    HW112588   0.476  11.171  10.078 -0.0058 -1.1783  1.1586
 1846SOL    HW212589   0.332  11.160  10.031  0.4529  0.1163 -0.6756
 1847SOL     OW12590   1.471   0.852   9.501  0.5940  0.7021  0.0170
 1847SOL    HW112591   1.390   0.830   9.454  0.0869 -1.0149  1.5772
 1847SOL    HW212592   1.523   0.901   9.437 -1.0072  0.4630 -1.5517
 1848SOL     OW12593   7.656  10.674   3.564 -0.4901  0.2367  0.6737
 1848SOL    HW112594   7.711  10.751   3.577 -2.5151  1.7138  0.8918
 1848SOL    HW212595   7.685  10.638   3.480  1.5414  0.2519  1.3005
 1849SOL     OW12596   2.864   5.990   3.336 -0.2941  0.0037 -0.3765
 1849SOL    HW112597   2.933   5.931   3.305  0.8174  0.3211  1.3243
 1849SOL    HW212598   2.784   5.939   3.330  0.5414 -1.4876  0.4487
 1850SOL     OW12599  11.847   9.610  11.640 -0.2319 -0.3057 -0.2534
 1850SOL    HW112600  11.826   9.693  11.597 -1.2952  0.2518  1.2493
 1850SOL    HW212601  11.938   9.620  11.668 -0.8436  1.1317  1.4557
 1851SOL     OW12602   0.855   8.169   4.883  0.2138  0.0641 -0.0695
 1851SOL    HW112603   0.856   8.189   4.790 -0.4144  0.9374  0.0986
 1851SOL    HW212604   0.935   8.211   4.917  0.5640 -0.4487 -0.2410
 1852SOL     OW12605   9.863   0.710   7.940 -0.1566 -0.1536  0.3711
 1852SOL    HW112606   9.922   0.634   7.947  0.1734 -0.0298 -0.8775
 1852SOL    HW212607   9.878   0.743   7.851 -0.8859  0.8981  0.6366
 1853SOL     OW12608  10.094   5.655   5.022  0.5868 -0.1664  0.5619
 1853SOL    HW112609  10.004   5.666   5.052  0.1573  0.1509 -0.7740
 1853SOL    HW212610  10.145   5.719   5.072 -0.0735  0.2573  0.6966
 1854SOL     OW12611   2.545   9.327  11.437  0.4467  0.0776  0.8586
 1854SOL    HW112612   2.507   9.316  11.524  1.3565 -0.1035  1.2459
 1854SOL    HW212613   2.569   9.420  11.433 -0.4102  0.2849  0.4540
 1855SOL     OW12614   1.896   2.675   7.166  0.0908  0.5040 -0.1819
 1855SOL    HW112615   1.968   2.738   7.176  0.0771  0.9685 -2.4824
 1855SOL    HW212616   1.933   2.605   7.112 -0.8352  0.1374 -0.3509
 1856SOL     OW12617   3.180  11.577   1.290  0.7390 -0.2249  0.0378
 1856SOL    HW112618   3.175  11.534   1.375  0.3269 -1.5162 -0.6166
 1856SOL    HW212619   3.102  11.632   1.286  0.1849 -0.9901  0.0659
 1857SOL     OW12620   1.387   6.994  10.670  0.6387  0.0144  0.3579
 1857SOL    HW112621   1.477   6.974  10.695  0.6441 -0.0309  0.3030
 1857SOL    HW212622   1.383   6.972  10.577  0.8577  0.9557  0.1070
 1858SOL     OW12623  12.422   9.570   4.493 -0.3787  0.2801  0.3381
 1858SOL    HW112624  12.334   9.566   4.530 -1.3716  0.1797 -1.8743
 1858SOL    HW212625  12.453   9.479   4.495  0.0787  0.4306  1.8875
 1859SOL     OW12626   3.070   3.709   5.323 -0.0928  0.2903  0.2457
 1859SOL    HW112627   3.096   3.653   5.250 -1.9972  1.0694 -1.1311
 1859SOL    HW212628   2.983   3.677   5.347 -1.1426  2.4375 -0.4429
 1860SOL     OW12629   2.059   1.751   8.220 -0.0962 -0.2103 -0.0027
 1860SOL    HW112630   2.144   1.706   8.225 -0.6621 -1.2677  0.4322
 1860SOL    HW212631   2.048   1.790   8.306  0.6009  1.2125 -0.5179
 1861SOL     OW12632   6.221   4.713  12.570 -0.4235 -0.4610  0.2175
 1861SOL    HW112633   6.219   4.665  12.652 -0.0005 -1.6030 -0.4156
 1861SOL    HW212634   6.221   4.645  12.502  1.1251  0.3858 -0.6902
 1862SOL     OW12635   7.496   9.210   8.546  0.0458 -0.3391  0.3991
 1862SOL    HW112636   7.545   9.136   8.509  0.6864  0.4877 -0.4497
 1862SOL    HW212637   7.559   9.282   8.548 -0.5550  0.1850  1.2558
 1863SOL     OW12638   7.836   1.815   2.978 -0.1789 -0.6305 -0.8517
 1863SOL    HW112639   7.834   1.904   3.014 -0.6604 -1.3740  1.0900
 1863SOL    HW212640   7.861   1.760   3.052 -1.4738 -2.3131 -1.5977
 1864SOL     OW12641   1.844  12.567   8.973 -0.0370  0.0907 -0.7760
 1864SOL    HW112642   1.754  12.592   8.993 -0.0379 -0.8964  0.5421
 1864SOL    HW212643   1.859  12.600   8.884 -1.6753  0.2991 -0.9970
 1865SOL     OW12644   9.892   7.273  12.290  0.0155 -0.2902 -0.4946
 1865SOL    HW112645   9.878   7.360  12.325 -0.6066 -0.5598 -0.0638
 1865SOL    HW212646   9.973   7.243  12.331 -0.7869 -0.6660  0.8630
 1866SOL     OW12647   9.467   7.158  11.496 -0.7153 -0.6381  0.4383
 1866SOL    HW112648   9.552   7.118  11.476  1.1430  2.0818  2.0945
 1866SOL    HW212649   9.405   7.086  11.494  1.8279 -2.9867  0.2534
 1867SOL     OW12650   1.418   9.435   8.309  0.0506  0.1629  0.3320
 1867SOL    HW112651   1.341   9.429   8.253  0.7888  0.0710 -0.6888
 1867SOL    HW212652   1.385   9.475   8.390 -0.3978  3.5857 -1.3670
 1868SOL     OW12653   4.338   7.421   1.174 -0.0849  0.0656 -0.7830
 1868SOL    HW112654   4.256   7.401   1.128  0.9576 -2.0946 -1.8559
 1868SOL    HW212655   4.334   7.367   1.253 -0.8347  2.0261  0.6049
 1869SOL     OW12656   2.588   1.676   9.818  0.2862  0.3037 -0.1121
 1869SOL    HW112657   2.670   1.645   9.859 -1.0966  0.1010  2.7472
 1869SOL    HW212658   2.531   1.599   9.819 -1.5024  1.4997  2.4673
 1870SOL     OW12659   7.314  12.559   6.698 -0.3296 -0.3403 -0.1189
 1870SOL    HW112660   7.345  12.601   6.617 -1.1444  1.7224  0.5750
 1870SOL    HW212661   7.219  12.562   6.691 -0.4039 -0.7340  0.6555
 1871SOL     OW12662   5.678   5.857   4.242 -0.6362 -0.5645 -0.4034
 1871SOL    HW112663   5.639   5.819   4.320 -3.0343  0.8403 -0.7968
 1871SOL    HW212664   5.642   5.946   4.238 -0.5108 -0.5380 -3.0233
 1872SOL     OW12665  10.816   2.472   4.469 -0.3462  0.0413 -0.5810
 1872SOL    HW112666  10.823   2.522   4.551  0.2450  0.9913 -1.1891
 1872SOL    HW212667  10.790   2.384   4.497 -1.1667  0.6063  0.5462
 1873SOL     OW12668   3.825  10.113   5.482 -0.5735 -0.0483 -0.5649
 1873SOL    HW112669   3.910  10.123   5.438 -0.5381 -0.2379 -0.5412
 1873SOL    HW212670   3.778  10.049   5.429 -0.4952 -0.3474 -0.2744
 1874SOL     OW12671   2.779  12.433   8.896 -0.3289  0.7165  0.0511
 1874SOL    HW112672   2.814  12.387   8.820 -1.1439 -0.5562  0.4128
 1874SOL    HW212673   2.750  12.364   8.955  0.6609  1.6637  1.7308
 1875SOL     OW12674   2.191   8.725  11.700 -0.0984 -0.6106 -0.3354
 1875SOL    HW112675   2.229   8.775  11.628  0.2777 -1.5999 -0.8470
 1875SOL    HW212676   2.210   8.777  11.778  2.3223 -1.0299 -0.5629
 1876SOL     OW12677  11.392  10.774   2.995  0.2764 -0.5944  0.6546
 1876SOL    HW112678  11.429  10.798   3.080  1.5269 -0.4299  0.0839
 1876SOL    HW212679  11.310  10.823   2.990  1.1668  1.0118  0.9169
 1877SOL     OW12680   4.824   6.518   9.194 -0.0758 -0.4420 -0.3340
 1877SOL    HW112681   4.789   6.429   9.187 -0.7598 -0.1265 -1.0620
 1877SOL    HW212682   4.791   6.563   9.117 -1.8311  1.1354  1.2236
 1878SOL     OW12683   7.418   0.363  10.047  0.0794  0.0061 -0.1594
 1878SOL    HW112684   7.490   0.425  10.062 -0.9156  1.0161  0.6673
 1878SOL    HW212685   7.455   0.278  10.069  0.9570  0.5368  0.5070
 1879SOL     OW12686  10.071  11.137   2.681  0.2420 -0.2208  0.1102
 1879SOL    HW112687  10.083  11.091   2.598  0.9166 -0.3457  0.2763
 1879SOL    HW212688   9.999  11.090   2.724 -0.0399 -0.2207 -0.3536
 1880SOL     OW12689  10.810   0.878   6.557 -0.3329 -0.4518  0.1070
 1880SOL    HW112690  10.838   0.938   6.626 -1.1792  0.6502 -0.4725
 1880SOL    HW212691  10.863   0.903   6.481  0.6649 -1.7245  0.3514
 1881SOL     OW12692   9.786  10.793  10.578  0.0894  0.3311 -0.0662
 1881SOL    HW112693   9.831  10.721  10.533 -1.3209  0.1862 -1.3388
 1881SOL    HW212694   9.716  10.818  10.518  0.0756  2.2810  0.6964
 1882SOL     OW12695   4.721   5.571   4.425  0.1473  0.5027 -0.0765
 1882SOL    HW112696   4.710   5.479   4.403 -0.8890 -0.0952  2.5429
 1882SOL    HW212697   4.791   5.572   4.490  0.6558  1.6740 -0.6157
 1883SOL     OW12698  10.729   9.130   3.110 -0.2944  0.7027 -0.4547
 1883SOL    HW112699  10.809   9.087   3.081 -0.4387  0.5804 -0.6770
 1883SOL    HW212700  10.747   9.157   3.200  0.3453  1.5420 -0.8194
 1884SOL     OW12701   9.234  11.158   3.128 -0.4647 -0.0543 -0.3435
 1884SOL    HW112702   9.167  11.162   3.197  0.9235 -2.2537  1.2739
 1884SOL    HW212703   9.190  11.113   3.055 -1.0992 -0.4715  0.2794
 1885SOL     OW12704   0.434   9.584   9.960 -0.8684  0.7235  0.3971
 1885SOL    HW112705   0.505   9.583  10.024 -1.6167  0.2161  1.2333
 1885SOL    HW212706   0.384   9.663   9.980 -1.1592  0.5152  0.4940
 1886SOL     OW12707  12.240   0.323   9.190  0.3638 -0.0468 -0.5600
 1886SOL    HW112708  12.148   0.348   9.181  0.9867  2.4181 -0.8534
 1886SOL    HW212709  12.286   0.377   9.126  2.0052 -1.4839 -0.6664
 1887SOL     OW12710   4.856   6.783   9.271  0.1852  0.2608  0.1283
 1887SOL    HW112711   4.935   6.758   9.222 -0.1001 -0.7594  0.1475
 1887SOL    HW212712   4.791   6.798   9.203  0.3702  1.0235  0.1154
 1888SOL     OW12713   7.514   7.540   5.266 -0.6122 -0.5814 -0.2037
 1888SOL    HW112714   7.507   7.607   5.198 -0.9491 -0.0405  0.3661
 1888SOL    HW212715   7.527   7.458   5.217  0.0464 -0.0771 -0.8944
 1889SOL     OW12716   6.297  12.349   2.796 -0.0251  0.2651  0.4955
 1889SOL    HW112717   6.305  12.429   2.743 -0.6410  1.0244  1.4980
 1889SOL    HW212718   6.370  12.294   2.768  0.4858  1.2303 -0.1433
 1890SOL     OW12719   8.704   0.443  10.300 -0.0181 -0.2174 -0.2846
 1890SOL    HW112720   8.661   0.436  10.215 -0.2590  0.1972 -0.2000
 1890SOL    HW212721   8.757   0.523  10.294  0.0217 -0.2270 -0.0725
 1891SOL     OW12722  10.496   9.753   2.609 -0.5427  0.5292  0.2011
 1891SOL    HW112723  10.455   9.766   2.524  2.0661 -1.2150 -1.4646
 1891SOL    HW212724  10.581   9.796   2.602  0.5652 -1.3475  1.1348
 1892SOL     OW12725  11.085   4.415  12.559 -0.6343 -0.2045 -0.1339
 1892SOL    HW112726  10.996   4.410  12.594 -1.2201  0.2103 -1.4970
 1892SOL    HW212727  11.111   4.324  12.546 -1.3023 -0.3084 -0.7757
 1893SOL     OW12728  11.293   1.151   2.693  0.0491  0.2382 -0.8574
 1893SOL    HW112729  11.205   1.183   2.676 -1.3052 -2.3973  0.5179
 1893SOL    HW212730  11.303   1.158   2.788  0.8684 -0.4876 -0.8786
 1894SOL     OW12731   0.464   2.043   3.271  0.2423 -0.6509  0.1083
 1894SOL    HW112732   0.501   2.113   3.325 -1.3932  0.7796 -0.5434
 1894SOL    HW212733   0.517   2.044   3.191  0.3770 -0.3248  0.2003
 1895SOL     OW12734   3.741   9.103   5.408 -0.0665  0.2553  0.1837
 1895SOL    HW112735   3.712   9.104   5.316 -1.3350  2.4623  0.5336
 1895SOL    HW212736   3.833   9.130   5.404 -0.0610  0.1743 -0.4412
 1896SOL     OW12737   8.033   4.026  12.279 -0.1271  0.1641 -0.3246
 1896SOL    HW112738   7.959   3.967  12.268  0.2287 -0.3876  0.2041
 1896SOL    HW212739   8.023   4.091  12.209  0.1906 -1.2629 -1.7569
 1897SOL     OW12740   7.848  10.451   2.279 -0.3763 -0.1671 -0.6877
 1897SOL    HW112741   7.892  10.438   2.195 -1.1078 -0.1237 -1.0844
 1897SOL    HW212742   7.759  10.479   2.256 -1.1653 -1.9249  0.0699
 1898SOL     OW12743   6.341  12.333   1.231  0.1173  0.2248 -0.1340
 1898SOL    HW112744   6.405  12.402   1.213 -1.7279  1.9959 -0.2701
 1898SOL    HW212745   6.393  12.253   1.239  2.3441  1.6070 -0.0350
 1899SOL     OW12746   5.002   1.498   0.015 -0.2649  0.1746  0.4558
 1899SOL    HW112747   5.004   1.577   0.069  0.8793 -0.2793  1.1394
 1899SOL    HW212748   4.915   1.462   0.028 -0.7206  1.2000  0.3150
 1900SOL     OW12749  10.555  11.311   4.107  0.2476 -0.1215  0.1521
 1900SOL    HW112750  10.599  11.394   4.129  2.3669 -1.6704  2.4196
 1900SOL    HW212751  10.482  11.306   4.169  1.4777 -0.8864  1.6139
 1901SOL     OW12752   9.588   1.335  10.195  0.4918  0.3628 -0.5016
 1901SOL    HW112753   9.578   1.310  10.104 -0.0467  0.6507 -0.5286
 1901SOL    HW212754   9.613   1.255  10.240  0.0661  0.0645 -0.7894
 1902SOL     OW12755   9.022   0.112   2.455 -0.0097 -0.5579 -0.1459
 1902SOL    HW112756   8.955   0.156   2.403 -0.7313 -0.1113  1.1034
 1902SOL    HW212757   9.095   0.174   2.457 -0.1579 -0.3791 -0.2503
 1903SOL     OW12758   5.085   4.690  11.185  0.2513 -0.5099 -0.1552
 1903SOL    HW112759   5.071   4.633  11.261 -0.1649 -0.6863 -0.3616
 1903SOL    HW212760   5.153   4.752  11.213 -1.0766  0.5016  0.9436
 1904SOL     OW12761   2.048   0.519  10.771 -0.3898  1.1275 -0.6682
 1904SOL    HW112762   2.001   0.545  10.691 -0.9157 -2.1516 -1.6126
 1904SOL    HW212763   1.991   0.452  10.810  0.4644  1.7702  1.8420
 1905SOL     OW12764   5.738   3.132   4.464 -0.7284  0.6271 -0.2114
 1905SOL    HW112765   5.671   3.169   4.406  1.0410  1.5649 -1.7696
 1905SOL    HW212766   5.791   3.208   4.489  1.5318 -0.4773 -1.4719
 1906SOL     OW12767   1.443   3.046   0.804  0.1373  0.8642 -0.0107
 1906SOL    HW112768   1.524   3.070   0.848  0.4789 -0.0290 -0.1267
 1906SOL    HW212769   1.415   2.966   0.848 -0.4696  0.9461 -0.2395
 1907SOL     OW12770   5.475  12.284   6.564  0.0285 -0.0470 -0.3235
 1907SOL    HW112771   5.412  12.353   6.587  1.3112  1.3350 -0.8025
 1907SOL    HW212772   5.514  12.314   6.482  1.1175 -0.9982 -0.1775
 1908SOL     OW12773   4.853  10.763   2.380  0.1001 -0.4200  0.0030
 1908SOL    HW112774   4.766  10.801   2.368  0.1159 -0.5506 -0.5860
 1908SOL    HW212775   4.890  10.810   2.455  0.2175  0.9091 -0.8567
 1909SOL     OW12776   4.369  11.007   6.511 -0.4809 -0.1889 -0.2269
 1909SOL    HW112777   4.418  11.059   6.447 -1.3267 -1.1212 -1.6764
 1909SOL    HW212778   4.417  10.925   6.518 -0.5251 -0.1840  0.1605
 1910SOL     OW12779   8.629   1.878  12.487  0.8149 -0.3135 -0.1011
 1910SOL    HW112780   8.581   1.893  12.568  1.2285 -2.6657  0.6672
 1910SOL    HW212781   8.649   1.965  12.454  0.3633  0.7210  2.1570
 1911SOL     OW12782   0.264   7.150   9.547 -0.3004 -0.4175 -0.1361
 1911SOL    HW112783   0.301   7.144   9.634  0.2512 -1.0074 -0.4055
 1911SOL    HW212784   0.199   7.079   9.543 -2.3090  1.2593  0.7069
 1912SOL     OW12785   4.899   5.122  10.217  0.0097  0.0277  0.3127
 1912SOL    HW112786   4.836   5.055  10.188  0.4555 -0.8314  1.2936
 1912SOL    HW212787   4.853   5.204  10.203 -0.5307 -0.4536 -0.9848
 1913SOL     OW12788   3.493   6.524   6.613  0.6030  0.1103 -0.5165
 1913SOL    HW112789   3.449   6.608   6.608  0.1917 -0.0983 -0.4637
 1913SOL    HW212790   3.556   6.534   6.685 -0.0939  0.0821  0.1157
 1914SOL     OW12791   2.760   8.432  10.976  0.3247  0.3204 -0.2781
 1914SOL    HW112792   2.769   8.524  10.954 -0.8250  0.6851  0.6909
 1914SOL    HW212793   2.665   8.416  10.978  0.4610 -0.4931  1.0407
 1915SOL     OW12794   7.730   1.428   1.828 -0.5414  0.0354  0.2274
 1915SOL    HW112795   7.798   1.448   1.764 -0.3076  0.8353  0.7148
 1915SOL    HW212796   7.769   1.363   1.885 -0.6681 -0.5097 -0.2968
 1916SOL     OW12797   1.510   2.122  11.516  0.5272 -0.0107  0.3239
 1916SOL    HW112798   1.519   2.029  11.498 -2.0537 -0.0738 -1.1373
 1916SOL    HW212799   1.533   2.165  11.434  0.5223  0.5464  0.6109
 1917SOL     OW12800  11.500  10.134   7.243  0.1769  0.6004 -0.2187
 1917SOL    HW112801  11.557  10.076   7.193  0.0004  0.4109 -0.2034
 1917SOL    HW212802  11.500  10.097   7.332 -0.0545  0.5322 -0.2446
 1918SOL     OW12803   2.504   3.640  11.668 -0.2066  0.1268 -0.2822
 1918SOL    HW112804   2.453   3.605  11.595  0.1185 -1.2106  0.1025
 1918SOL    HW212805   2.439   3.686  11.722 -1.1930 -2.1240  0.5468
 1919SOL     OW12806   3.013   9.257   6.362 -0.2069  0.2858  0.0134
 1919SOL    HW112807   3.022   9.210   6.445  0.6194 -0.3972 -0.4414
 1919SOL    HW212808   2.928   9.232   6.328 -0.9373  1.2615  1.0584
 1920SOL     OW12809   4.192   5.847   2.025 -0.0122 -0.1252  0.5533
 1920SOL    HW112810   4.267   5.891   1.983  0.2969 -1.3566 -0.2326
 1920SOL    HW212811   4.186   5.763   1.980 -1.2348 -0.4670  1.3290
 1921SOL     OW12812  11.226   5.810   9.839  0.3198 -0.2048  0.0655
 1921SOL    HW112813  11.175   5.849   9.909  0.7965 -0.8550  0.7903
 1921SOL    HW212814  11.225   5.716   9.857 -1.9500 -0.7726 -2.4084
 1922SOL     OW12815   4.406   5.250   8.493 -0.3340  0.7913  0.1168
 1922SOL    HW112816   4.365   5.304   8.561 -0.6933 -0.3458  0.8448
 1922SOL    HW212817   4.499   5.271   8.498 -0.3313  0.5943  1.1029
 1923SOL     OW12818   1.079   8.559   6.480  0.0004  0.1610  0.7204
 1923SOL    HW112819   1.133   8.526   6.552  0.2559 -0.5073  0.2232
 1923SOL    HW212820   1.131   8.545   6.402 -0.8731 -0.4550  0.2338
 1924SOL     OW12821   7.944  11.573  10.862 -0.4652  0.1874  0.1831
 1924SOL    HW112822   7.869  11.590  10.919 -0.2188 -1.1252  0.9569
 1924SOL    HW212823   7.908  11.525  10.788 -0.7420  1.6589 -0.6776
 1925SOL     OW12824   1.259   1.480   3.533 -0.2766  0.4362 -0.2441
 1925SOL    HW112825   1.269   1.486   3.438  0.5793 -0.7701 -0.2550
 1925SOL    HW212826   1.344   1.450   3.564 -0.5262  0.8802  0.9183
 1926SOL     OW12827   8.013  11.682   0.237 -0.6581  0.0984 -0.3756
 1926SOL    HW112828   7.960  11.752   0.199 -1.2756  0.1078  0.4809
 1926SOL    HW212829   8.085  11.728   0.280  0.8398  0.0370 -2.6259
 1927SOL     OW12830  11.631   1.038   4.410 -0.7707 -0.0266 -0.2858
 1927SOL    HW112831  11.561   1.100   4.433 -0.8162 -0.4665  0.8444
 1927SOL    HW212832  11.701   1.057   4.472 -0.7061 -0.9632 -0.0578
 1928SOL     OW12833  11.051   6.163   7.320 -0.0236  0.4614 -0.6576
 1928SOL    HW112834  10.962   6.194   7.301 -0.2325 -0.2720 -0.9289
 1928SOL    HW212835  11.043   6.068   7.317  0.4415  0.3521  0.8732
 1929SOL     OW12836   1.500   0.009   2.565  0.1326 -0.0826 -0.6097
 1929SOL    HW112837   1.405   0.022   2.573  0.0326 -0.7395 -0.6925
 1929SOL    HW212838   1.511  -0.039   2.483  0.5697  0.3221 -0.7888
 1930SOL     OW12839   9.832   9.718  10.100  0.2553 -0.0084  0.7450
 1930SOL    HW112840   9.869   9.711  10.188 -0.8131  1.1390  1.3122
 1930SOL    HW212841   9.898   9.766  10.051 -0.2509  1.6872  1.6474
 1931SOL     OW12842   0.218   4.962   6.683 -0.0988 -0.0835 -0.7196
 1931SOL    HW112843   0.255   4.876   6.701 -0.5569 -0.1617 -0.1232
 1931SOL    HW212844   0.293   5.021   6.683  0.0598 -0.2691  0.2688
 1932SOL     OW12845  12.366   5.529   6.879 -0.0980 -0.5825 -0.6970
 1932SOL    HW112846  12.399   5.619   6.890 -0.0525 -0.3809 -2.3006
 1932SOL    HW212847  12.381   5.488   6.964  2.0395  0.2325 -0.6232
 1933SOL     OW12848   3.153   2.741   9.481  0.2726  0.1008  0.1211
 1933SOL    HW112849   3.076   2.737   9.538 -0.2605 -0.3891 -0.6283
 1933SOL    HW212850   3.209   2.670   9.511  0.4469  0.4556  0.6640
 1934SOL     OW12851   0.163   6.055  12.433  0.5961  0.3142 -0.0826
 1934SOL    HW112852   0.069   6.070  12.443  0.5373  0.2809 -0.5690
 1934SOL    HW212853   0.170   6.003  12.354  0.9977 -0.0215  0.1740
 1935SOL     OW12854   7.445   6.038   4.996 -0.1860 -0.2484 -0.1696
 1935SOL    HW112855   7.402   6.110   4.951 -1.0593  0.4929  1.7298
 1935SOL    HW212856   7.523   6.020   4.944 -0.2902  1.6108 -1.0467
 1936SOL     OW12857   2.967   1.382   0.407 -0.1358 -0.4851  0.2689
 1936SOL    HW112858   2.995   1.403   0.318 -0.2348 -1.8212 -0.1005
 1936SOL    HW212859   3.021   1.308   0.433  0.3573  0.3108  1.5975
 1937SOL     OW12860  11.672   5.935  12.481  0.1037 -0.2006 -0.3949
 1937SOL    HW112861  11.581   5.906  12.484 -0.0994  0.2275 -1.6319
 1937SOL    HW212862  11.724   5.856  12.495 -0.4547 -0.4558  0.2530
 1938SOL     OW12863  11.172   9.904  12.222 -0.0036  0.1547 -0.2932
 1938SOL    HW112864  11.167   9.810  12.234  0.0953  0.2094  0.2036
 1938SOL    HW212865  11.238   9.917  12.155  1.0984 -0.0657  0.7230
 1939SOL     OW12866   2.097   2.832   3.732  0.0586 -0.3067 -0.4001
 1939SOL    HW112867   2.054   2.889   3.669 -0.6994 -0.5794 -0.1473
 1939SOL    HW212868   2.122   2.890   3.804  0.2304 -0.1236 -0.6066
 1940SOL     OW12869   9.961   5.295   2.908 -0.6791 -0.0451 -0.3823
 1940SOL    HW112870   9.940   5.268   2.998  2.3757  1.9029  1.1047
 1940SOL    HW212871   9.920   5.382   2.900  0.5196  0.5608 -0.1569
 1941SOL     OW12872   2.378   7.148  10.523 -0.1292 -0.4968 -0.1141
 1941SOL    HW112873   2.317   7.216  10.553  2.0446  1.6557 -0.2960
 1941SOL    HW212874   2.321   7.075  10.498 -2.4083  0.0307  2.9747
 1942SOL     OW12875   4.371   6.749   5.407 -0.1924  0.9026  0.1592
 1942SOL    HW112876   4.364   6.654   5.395  2.1661  0.4575  1.5518
 1942SOL    HW212877   4.311   6.768   5.479  1.9193 -0.2707  2.3934
 1943SOL     OW12878   0.641  11.150   5.535  1.1512 -0.2421  0.0905
 1943SOL    HW112879   0.733  11.153   5.508  1.1511 -1.2527 -0.0591
 1943SOL    HW212880   0.592  11.137   5.454  0.9607 -0.8236  0.2968
 1944SOL     OW12881   8.671   9.918   2.185 -0.4166 -0.7206  0.2415
 1944SOL    HW112882   8.577   9.901   2.173 -0.3406 -0.3124 -1.1799
 1944SOL    HW212883   8.713   9.835   2.161 -0.4267 -1.0128  1.2237
 1945SOL     OW12884   6.749   3.840   2.557 -0.4623  0.1965  0.1212
 1945SOL    HW112885   6.816   3.866   2.620  0.2869  2.3328 -1.4546
 1945SOL    HW212886   6.783   3.760   2.517 -0.2636 -0.3568  1.3217
 1946SOL     OW12887   0.545   0.212   6.642 -0.6903  0.0461 -0.5478
 1946SOL    HW112888   0.638   0.199   6.659 -0.9953 -0.7102  0.7093
 1946SOL    HW212889   0.506   0.220   6.730 -1.7539  0.7861 -1.0601
 1947SOL     OW12890  10.467   7.198  11.001 -0.2878  0.2610  0.3218
 1947SOL    HW112891  10.556   7.231  11.014 -0.4496  0.3893  1.2374
 1947SOL    HW212892  10.450   7.145  11.079 -1.6858  1.7970  1.1435
 1948SOL     OW12893   3.229   1.366  12.093  0.7814 -0.3191 -0.1955
 1948SOL    HW112894   3.289   1.440  12.081  0.4462  0.2444  1.3022
 1948SOL    HW212895   3.286   1.291  12.107  1.1316 -0.1996 -0.9699
 1949SOL     OW12896   2.619   6.162   3.144 -0.6642  0.2899 -0.2080
 1949SOL    HW112897   2.565   6.162   3.223  0.2911 -0.6226  0.4617
 1949SOL    HW212898   2.655   6.074   3.139  0.2953  0.7095 -0.9689
 1950SOL     OW12899   2.334   4.763   7.192 -0.0981  0.1130  0.7063
 1950SOL    HW112900   2.290   4.848   7.194 -0.7407 -0.1202 -1.0862
 1950SOL    HW212901   2.336   4.740   7.099  0.1192 -1.8048  1.1443
 1951SOL     OW12902   2.307   2.117   4.664  0.0273 -0.3332  0.3666
 1951SOL    HW112903   2.221   2.135   4.701 -0.0838 -1.0208  0.4477
 1951SOL    HW212904   2.341   2.044   4.716  0.3914 -0.4839 -0.0763
 1952SOL     OW12905   7.417   0.614   6.733  0.2556  0.3767  0.2745
 1952SOL    HW112906   7.449   0.566   6.657  0.8707  3.2668 -1.4515
 1952SOL    HW212907   7.376   0.547   6.788  1.1053 -2.0719 -1.8522
 1953SOL     OW12908  10.461   6.318   7.062  0.0334 -0.0535 -0.2070
 1953SOL    HW112909  10.422   6.236   7.032  2.5585 -1.3567 -0.1667
 1953SOL    HW212910  10.461   6.312   7.157  1.9665 -0.9414 -0.2288
 1954SOL     OW12911   0.316  12.063   0.182  0.5297  0.2263  0.0186
 1954SOL    HW112912   0.408  12.072   0.157  0.4864  1.3228  0.2072
 1954SOL    HW212913   0.281  12.152   0.177 -0.4375 -0.1264  0.2862
 1955SOL     OW12914   4.309   6.895  10.724  0.1047  0.3672 -0.2807
 1955SOL    HW112915   4.289   6.904  10.631  1.1851  0.7440 -0.4843
 1955SOL    HW212916   4.346   6.807  10.732  1.6238  0.9553 -0.5243
 1956SOL     OW12917   8.526  10.996   2.248  0.0620  0.2702 -0.6606
 1956SOL    HW112918   8.487  10.909   2.239 -0.8422  0.5058  0.5862
 1956SOL    HW212919   8.473  11.038   2.316  1.6532  1.1240  0.1013
 1957SOL     OW12920   7.824   8.266   5.531 -0.2737 -0.0686  0.7690
 1957SOL    HW112921   7.806   8.176   5.558 -0.9228  0.3085  1.6708
 1957SOL    HW212922   7.909   8.286   5.570  0.1328 -0.4673  0.0973
 1958SOL     OW12923   9.943   1.268   1.404 -0.3084 -0.4029 -0.4430
 1958SOL    HW112924   9.992   1.250   1.324 -0.5124  0.7704 -0.8595
 1958SOL    HW212925   9.859   1.225   1.390 -0.6631  0.4937 -1.2664
 1959SOL     OW12926   0.647  10.417   1.397 -0.0998 -0.1621 -0.0034
 1959SOL    HW112927   0.621  10.479   1.329  0.0096 -0.0404  0.0671
 1959SOL    HW212928   0.736  10.391   1.372 -0.2890 -0.5839 -0.2475
 1960SOL     OW12929   5.527  10.154   0.779  0.2141  0.3974 -0.1723
 1960SOL    HW112930   5.597  10.173   0.716  0.7889  1.7269  0.8248
 1960SOL    HW212931   5.533  10.224   0.843  0.4466 -1.5608  2.0697
 1961SOL     OW12932  11.607   6.460   9.734 -0.2107  0.0243 -0.2933
 1961SOL    HW112933  11.668   6.534   9.738 -2.2941  1.8033  0.6512
 1961SOL    HW212934  11.644   6.396   9.795  2.3809 -0.4003 -2.1739
 1962SOL     OW12935   0.331   6.622   1.378  0.0552  0.1526  0.3216
 1962SOL    HW112936   0.339   6.531   1.405 -1.4421 -0.4881 -1.1551
 1962SOL    HW212937   0.318   6.671   1.459  2.0352 -0.7614  1.2336
 1963SOL     OW12938   0.940   1.820   8.970 -0.4934 -0.4038  0.4363
 1963SOL    HW112939   0.882   1.786   9.038 -0.4070  0.7959  1.1448
 1963SOL    HW212940   0.911   1.776   8.890 -1.5925 -0.7243  0.9834
 1964SOL     OW12941  10.803   4.928   0.251  0.5869 -0.3714 -0.1752
 1964SOL    HW112942  10.820   5.014   0.212 -0.9687 -0.2999 -0.7775
 1964SOL    HW212943  10.882   4.877   0.232  1.2410  0.7043 -0.4269
 1965SOL     OW12944   7.564  11.689   0.676 -0.0162 -0.1374  0.4564
 1965SOL    HW112945   7.550  11.773   0.634 -1.1435 -0.0897  0.8945
 1965SOL    HW212946   7.533  11.625   0.612  1.0066 -0.2454  0.0507
 1966SOL     OW12947   6.467  11.442  12.324 -0.1057  0.3342 -0.6865
 1966SOL    HW112948   6.526  11.371  12.350  0.2048  0.4745 -0.9947
 1966SOL    HW212949   6.513  11.522  12.349 -0.1828  0.4433 -0.8914
 1967SOL     OW12950  12.474   6.805   2.974  0.1214  0.5389 -0.1917
 1967SOL    HW112951  12.548   6.825   2.918 -1.5364  1.6779 -2.0962
 1967SOL    HW212952  12.417   6.882   2.968 -2.1075 -1.0196 -0.3168
 1968SOL     OW12953   3.691   3.501   6.579  0.0480  0.1743 -0.2334
 1968SOL    HW112954   3.728   3.461   6.500  0.0616  2.0057 -1.1915
 1968SOL    HW212955   3.608   3.538   6.550 -0.1768  0.4482  0.7440
 1969SOL     OW12956   0.934  12.031  12.334 -0.4994  0.0647  0.0184
 1969SOL    HW112957   0.939  12.019  12.429 -0.0372 -1.1026 -0.1400
 1969SOL    HW212958   0.841  12.019  12.313 -0.6533  0.6272  0.3463
 1970SOL     OW12959   0.324   7.077   1.773  0.8255 -0.2306  0.9169
 1970SOL    HW112960   0.416   7.085   1.749  1.3272  1.4351  3.1443
 1970SOL    HW212961   0.323   7.078   1.868 -1.3697 -2.3583  1.0352
 1971SOL     OW12962   6.858   3.029   4.331  0.0375 -0.3369 -0.0860
 1971SOL    HW112963   6.924   3.086   4.371 -2.6515  4.0700 -1.2043
 1971SOL    HW212964   6.803   3.001   4.404  1.3079 -1.4773  0.4703
 1972SOL     OW12965  12.472   9.861   9.134 -0.5270  0.7640  0.2816
 1972SOL    HW112966  12.451   9.815   9.053  0.6855 -0.9915  0.8950
 1972SOL    HW212967  12.537   9.926   9.107 -0.4271  0.4659 -0.2270
 1973SOL     OW12968   0.659   8.697   4.017 -0.9294  0.0301 -0.2533
 1973SOL    HW112969   0.592   8.639   4.053 -0.1602 -1.0054 -0.4266
 1973SOL    HW212970   0.612   8.754   3.956 -1.9384  0.5761  0.9923
 1974SOL     OW12971  12.345   8.972  11.704  0.2180 -0.0589  0.0577
 1974SOL    HW112972  12.254   8.942  11.710  0.5439 -0.9971  0.4166
 1974SOL    HW212973  12.369   8.959  11.612 -0.2836  1.0445 -0.2483
 1975SOL     OW12974   1.562  12.438   7.315  0.2790 -0.4351 -0.2058
 1975SOL    HW112975   1.636  12.454   7.256  0.9909  0.5223  0.9143
 1975SOL    HW212976   1.601  12.397   7.392 -0.2492  0.6090  0.6412
 1976SOL     OW12977   9.103  11.033  11.859 -0.4636  0.1035  0.2565
 1976SOL    HW112978   9.117  11.080  11.941  0.4523 -0.4887  0.4495
 1976SOL    HW212979   9.169  10.964  11.859 -0.4225  0.1227 -0.9985
 1977SOL     OW12980   3.811   8.649   5.223 -0.7984  0.5002  0.1191
 1977SOL    HW112981   3.753   8.643   5.299  1.0724 -1.0826  1.5451
 1977SOL    HW212982   3.880   8.709   5.251  0.3813 -0.7902  0.0520
 1978SOL     OW12983  12.029   4.768   0.664  0.4123 -0.4331 -0.0760
 1978SOL    HW112984  11.950   4.761   0.612  1.7112  0.6910 -2.3211
 1978SOL    HW212985  12.001   4.808   0.746 -1.5720 -1.6215 -0.1119
 1979SOL     OW12986   5.262   8.575   5.581  0.2115  0.6449  0.1316
 1979SOL    HW112987   5.249   8.554   5.489  2.4652 -0.7689  0.0687
 1979SOL    HW212988   5.272   8.670   5.582  0.2239  0.6775 -1.0860
 1980SOL     OW12989   6.320   2.135   5.429  0.1740  0.2245 -0.5433
 1980SOL    HW112990   6.343   2.166   5.516  2.2939  0.6779 -1.2212
 1980SOL    HW212991   6.260   2.062   5.445 -0.1123  0.8048  1.2474
 1981SOL     OW12992   7.536   2.151   0.750 -0.3136  0.1675 -0.4187
 1981SOL    HW112993   7.468   2.105   0.799 -0.4933  0.6134 -0.2466
 1981SOL    HW212994   7.590   2.081   0.713  1.6005 -0.3162  2.8052
 1982SOL     OW12995   0.662   8.371   1.145 -0.1414 -0.1735 -0.4729
 1982SOL    HW112996   0.655   8.461   1.177 -0.1439 -0.3186 -0.0701
 1982SOL    HW212997   0.748   8.341   1.174 -0.1420 -0.3024 -0.6041
 1983SOL     OW12998   1.031   2.056  10.270  0.8020 -0.1157 -0.1561
 1983SOL    HW112999   0.989   2.141  10.282  0.3098 -0.1019 -1.7744
 1983SOL    HW213000   1.117   2.077  10.234 -1.1728 -0.2251 -6.0227
 1984SOL     OW13001   0.829   9.379   2.168  0.1529  0.1084  0.0788
 1984SOL    HW113002   0.922   9.399   2.167  0.4111 -0.7298  2.1674
 1984SOL    HW213003   0.823   9.287   2.141  0.0090 -0.0025  0.4680
 1985SOL     OW13004   7.308   0.779   6.524 -0.2708 -0.2211  0.4227
 1985SOL    HW113005   7.220   0.750   6.500 -0.7469  1.3258  0.1435
 1985SOL    HW213006   7.336   0.717   6.591 -1.0329 -1.5125 -0.4121
 1986SOL     OW13007   5.288   7.458   2.258  0.0257  0.0799 -0.0282
 1986SOL    HW113008   5.236   7.533   2.287 -0.2399  0.1207 -0.5995
 1986SOL    HW213009   5.378   7.491   2.255  0.2924 -0.2935  2.0490
 1987SOL     OW13010   6.624   2.018   5.243 -0.6093  0.5709 -0.2187
 1987SOL    HW113011   6.626   2.093   5.183  2.0056  0.9284  0.2336
 1987SOL    HW213012   6.673   1.949   5.197 -1.8988 -0.4920 -0.0823
 1988SOL     OW13013   5.952  12.180   2.788 -0.3829 -0.3270  0.1670
 1988SOL    HW113014   5.886  12.214   2.849 -0.7285 -2.6498  1.1891
 1988SOL    HW213015   5.908  12.179   2.703 -0.8026  0.4679  0.3686
 1989SOL     OW13016   5.524   7.331   9.450  0.0549 -0.7376  0.4316
 1989SOL    HW113017   5.509   7.397   9.383 -0.4554  1.1542  2.2863
 1989SOL    HW213018   5.572   7.261   9.405  1.1770  1.1518 -1.5081
 1990SOL     OW13019  12.221   1.793   2.730 -0.4071 -0.4706  0.8335
 1990SOL    HW113020  12.188   1.880   2.706 -1.6487 -1.2384 -0.4242
 1990SOL    HW213021  12.160   1.762   2.797 -1.1476 -1.1104 -0.1023
 1991SOL     OW13022   5.425  11.720   5.019 -0.0584  0.3466 -0.3841
 1991SOL    HW113023   5.455  11.794   4.966  1.2465  0.8760  1.0160
 1991SOL    HW213024   5.337  11.744   5.047 -0.0187  0.9146 -0.7363
 1992SOL     OW13025   4.504   2.926   5.497  0.3427 -0.0220  0.1604
 1992SOL    HW113026   4.465   3.006   5.530 -1.1286 -0.8173  0.4351
 1992SOL    HW213027   4.579   2.955   5.445 -0.4071  1.5412 -0.0960
 1993SOL     OW13028   5.398  11.434  10.336  0.2993 -0.1286  0.0643
 1993SOL    HW113029   5.471  11.373  10.332  0.8501  0.5157  0.0644
 1993SOL    HW213030   5.383  11.459  10.245  1.6932  1.5823  0.2420
 1994SOL     OW13031   9.649  10.445   4.058 -0.2346  0.6161 -0.1488
 1994SOL    HW113032   9.692  10.398   3.986 -0.2803  0.1513  0.1263
 1994SOL    HW213033   9.570  10.395   4.076  0.5768 -0.2085  1.3103
 1995SOL     OW13034   1.740   5.353   4.494  0.2288 -0.4548  0.0624
 1995SOL    HW113035   1.745   5.258   4.504  2.0937 -0.4192 -0.1250
 1995SOL    HW213036   1.653   5.369   4.460  0.3097 -2.2305 -1.1106
 1996SOL     OW13037   9.737   1.247   2.470  0.0643  0.2292 -0.6260
 1996SOL    HW113038   9.745   1.327   2.522  1.8335 -0.6136  0.4926
 1996SOL    HW213039   9.820   1.201   2.483 -1.7282 -2.9592  0.7864
 1997SOL     OW13040   9.168   1.614   3.008  0.2729  0.5292 -0.2745
 1997SOL    HW113041   9.138   1.550   2.943 -1.0502  1.1544 -0.3137
 1997SOL    HW213042   9.241   1.570   3.053 -1.0058 -1.2932  0.1461
 1998SOL     OW13043   4.792   9.248  10.031  0.5505 -0.2293 -0.6935
 1998SOL    HW113044   4.740   9.170  10.048 -0.1318  0.4649  0.5875
 1998SOL    HW213045   4.875   9.215   9.997 -0.2033 -1.4316 -1.4406
 1999SOL     OW13046  10.185   4.032   1.684 -0.2464  0.0911 -0.2552
 1999SOL    HW113047  10.117   3.985   1.732 -0.9418  1.4546  0.1354
 1999SOL    HW213048  10.256   4.043   1.747  0.1355 -0.8411 -0.4991
 2000SOL     OW13049  11.575   6.215   9.513  0.6241  0.4701  0.3191
 2000SOL    HW113050  11.507   6.165   9.557 -0.6933  0.7713 -1.2621
 2000SOL    HW213051  11.586   6.293   9.567  0.6211 -0.1623  1.2504
 2001SOL     OW13052   9.392   5.966   5.082 -0.4646 -0.1863  0.1924
 2001SOL    HW113053   9.436   6.042   5.044 -1.1477  0.5435  0.8502
 2001SOL    HW213054   9.425   5.961   5.171  1.2069 -1.9642 -0.4507
 2002SOL     OW13055  12.140  11.721   5.551 -0.0905  0.1621 -0.3990
 2002SOL    HW113056  12.109  11.808   5.524 -0.3817 -0.0475 -0.7403
 2002SOL    HW213057  12.144  11.726   5.647 -1.5413  0.0812 -0.3116
 2003SOL     OW13058   2.500   2.116   5.796 -0.0015 -0.1976 -0.1698
 2003SOL    HW113059   2.465   2.119   5.885  0.6348  0.5052  0.0683
 2003SOL    HW213060   2.457   2.041   5.756  0.2264 -0.9503  0.9522
 2004SOL     OW13061  10.416  12.340   9.514 -0.5492 -0.0945 -0.3084
 2004SOL    HW113062  10.410  12.323   9.420  0.9259 -0.3324 -0.3836
 2004SOL    HW213063  10.431  12.434   9.520  0.9083 -0.2981 -0.4179
 2005SOL     OW13064   9.958  10.665   4.637 -0.1325  0.1994  0.3514
 2005SOL    HW113065   9.964  10.615   4.718  0.1141  0.2143  0.3436
 2005SOL    HW213066   9.967  10.600   4.567 -0.3577  0.1853  0.3356
 2006SOL     OW13067   4.585  12.329  12.076 -0.2814 -0.0893  0.0594
 2006SOL    HW113068   4.504  12.368  12.109  0.6533  1.7722  0.2999
 2006SOL    HW213069   4.646  12.334  12.149  1.0813  1.8233 -1.1220
 2007SOL     OW13070   9.517   0.707   7.414 -0.2635 -0.4658  0.0741
 2007SOL    HW113071   9.439   0.738   7.368 -0.2609 -0.6246 -0.0390
 2007SOL    HW213072   9.522   0.762   7.492  1.2166  1.5862 -1.3796
 2008SOL     OW13073   4.268   4.273   1.827 -0.3033 -0.3941  0.1605
 2008SOL    HW113074   4.211   4.219   1.883  1.3201 -2.4351 -0.0236
 2008SOL    HW213075   4.346   4.288   1.881 -0.1433  0.6257 -0.3277
 2009SOL     OW13076   7.418   0.718   8.863 -0.1798  0.5081 -0.1710
 2009SOL    HW113077   7.492   0.778   8.850  0.0195 -0.0538 -1.9977
 2009SOL    HW213078   7.457   0.641   8.904  0.4602 -0.1282 -1.8988
 2010SOL     OW13079   3.468  10.169   4.163 -0.2574  0.4263 -0.0748
 2010SOL    HW113080   3.552  10.135   4.192 -0.7620 -0.1441  0.7587
 2010SOL    HW213081   3.431  10.211   4.241 -0.6648  0.8380 -0.4818
 2011SOL     OW13082   9.190  10.071  12.391  0.0425 -0.3688 -0.1395
 2011SOL    HW113083   9.283  10.051  12.406 -0.2136 -0.5917  1.3494
 2011SOL    HW213084   9.175  10.152  12.441 -0.2616  0.4440 -1.5003
 2012SOL     OW13085  10.791   2.902   5.531 -0.2960 -0.1177 -0.0591
 2012SOL    HW113086  10.836   2.986   5.522 -1.3033  0.5969  1.2139
 2012SOL    HW213087  10.771   2.875   5.441 -1.5629  1.9150 -0.4462
 2013SOL     OW13088   4.987   1.097   0.752 -0.4330 -0.1596 -0.5989
 2013SOL    HW113089   5.065   1.153   0.754 -0.1774 -0.5505  0.7875
 2013SOL    HW213090   4.922   1.150   0.706 -0.6020  1.8768  1.7816
 2014SOL     OW13091   7.512   5.346   2.485  0.2446  0.3752  0.2667
 2014SOL    HW113092   7.486   5.322   2.573  0.7665  1.8341  0.8421
 2014SOL    HW213093   7.430   5.357   2.437 -0.0273 -0.9873  0.3847
 2015SOL     OW13094  12.422   0.058   0.125 -0.0868  0.0537 -0.6364
 2015SOL    HW113095  12.498   0.073   0.068 -0.2616  1.9986 -0.4349
 2015SOL    HW213096  12.458   0.010   0.200  0.4583 -1.1105 -1.6081
 2016SOL     OW13097   5.852   4.867   1.042 -0.1868  0.1212 -0.2288
 2016SOL    HW113098   5.899   4.897   1.120 -0.2819 -1.0255  0.2873
 2016SOL    HW213099   5.915   4.876   0.971  0.8853 -1.4833  0.4634
 2017SOL     OW13100   0.785   1.646  11.145 -0.9664  0.6484  0.2955
 2017SOL    HW113101   0.701   1.691  11.161 -1.3826 -0.4468  1.3927
 2017SOL    HW213102   0.760   1.559  11.113 -0.1804  1.0210 -1.4565
 2018SOL     OW13103   3.999   1.280   8.408 -0.1634 -0.0054  0.1733
 2018SOL    HW113104   3.917   1.240   8.437 -0.7410  0.4916 -0.7170
 2018SOL    HW213105   4.031   1.329   8.484  0.0431 -1.3299  0.9600
 2019SOL     OW13106   2.590   1.395   9.595  0.2105  0.1963 -0.6807
 2019SOL    HW113107   2.656   1.465   9.597  0.4961 -0.0314 -1.4661
 2019SOL    HW213108   2.514   1.434   9.552  0.0966  0.2412 -0.4405
 2020SOL     OW13109   9.023   3.583   8.224  0.1685 -0.3190 -0.8037
 2020SOL    HW113110   8.953   3.624   8.173 -1.3080 -0.6346  0.8771
 2020SOL    HW213111   9.061   3.655   8.273  0.1247 -0.3595 -0.7113
 2021SOL     OW13112   2.147   0.514   8.843  0.0754 -0.7604 -0.3706
 2021SOL    HW113113   2.194   0.530   8.761  0.8047 -2.8433 -0.4454
 2021SOL    HW213114   2.133   0.419   8.843 -2.0621 -0.4915  0.8003
 2022SOL     OW13115  11.956   0.389   6.585 -0.2554 -0.4034  0.4735
 2022SOL    HW113116  11.922   0.433   6.507  0.1061 -0.7693  0.1075
 2022SOL    HW213117  11.914   0.303   6.584 -0.4888 -0.2993  0.8560
 2023SOL     OW13118   1.242   0.170   9.697  0.1708 -0.3901  0.1681
 2023SOL    HW113119   1.176   0.142   9.634 -1.8880  1.0455  1.5484
 2023SOL    HW213120   1.243   0.100   9.763 -1.4223  0.4497  1.1241
 2024SOL     OW13121   1.469  11.462   4.823  0.2764 -0.8155 -0.3651
 2024SOL    HW113122   1.501  11.512   4.898  1.7039 -0.9789 -0.8265
 2024SOL    HW213123   1.493  11.371   4.843 -0.6417 -1.0635 -0.3664
 2025SOL     OW13124   2.973  10.639   8.584  0.5829  0.3270 -0.7292
 2025SOL    HW113125   3.040  10.583   8.624  1.4347  1.7762 -0.0391
 2025SOL    HW213126   3.010  10.727   8.588 -0.7421  0.9642 -1.7269
 2026SOL     OW13127   6.373   2.912   9.559  0.8754  0.2055  0.4007
 2026SOL    HW113128   6.424   2.840   9.522 -0.9163 -0.1329 -1.6271
 2026SOL    HW213129   6.301   2.869   9.605 -0.3147  0.6168 -0.9864
 2027SOL     OW13130   1.178   4.595   6.800 -0.5057 -0.0746  0.2132
 2027SOL    HW113131   1.131   4.678   6.810 -2.2982 -1.1780  1.5842
 2027SOL    HW213132   1.156   4.565   6.712 -1.2388  0.1014  0.3311
 2028SOL     OW13133   0.734   0.738   7.646 -0.1590 -0.0559  0.4745
 2028SOL    HW113134   0.752   0.719   7.738  1.4871 -1.5556 -0.1022
 2028SOL    HW213135   0.779   0.821   7.630  0.1463 -0.1385  0.8720
 2029SOL     OW13136   0.904   5.162   8.791 -0.5739 -0.3300  0.3549
 2029SOL    HW113137   0.920   5.116   8.873 -1.8489 -0.3744  0.5911
 2029SOL    HW213138   0.848   5.103   8.740  0.0407 -0.2194 -0.4751
 2030SOL     OW13139  12.334   8.546   9.821  0.2215  0.4246  0.1568
 2030SOL    HW113140  12.288   8.488   9.883 -0.8799  0.1778 -0.8569
 2030SOL    HW213141  12.306   8.634   9.846  1.1773  0.4802  1.1154
 2031SOL     OW13142   3.553   7.993  11.824 -0.0398 -0.2356  0.1573
 2031SOL    HW113143   3.477   8.029  11.779  0.9672  0.2225 -1.2522
 2031SOL    HW213144   3.623   8.056  11.806  1.0810 -1.4890  0.0156
 2032SOL     OW13145   4.843   8.585   6.528 -0.2717  0.0435  0.8667
 2032SOL    HW113146   4.845   8.496   6.491  0.8258 -0.2800  1.6500
 2032SOL    HW213147   4.875   8.640   6.457 -2.3866  0.0713 -0.1608
 2033SOL     OW13148   0.336   3.966   8.855 -0.1601  0.6083  0.8035
 2033SOL    HW113149   0.321   4.049   8.900 -0.0618  0.8004  0.4862
 2033SOL    HW213150   0.337   3.989   8.762 -0.2897  0.2287  0.7053
 2034SOL     OW13151   6.215   2.497   6.249 -0.2049  0.0616 -0.0968
 2034SOL    HW113152   6.119   2.501   6.250 -0.2274 -0.0605 -0.8323
 2034SOL    HW213153   6.234   2.404   6.236  0.0540 -0.2084  2.0224
 2035SOL     OW13154   8.830   3.329  11.425 -0.4508  0.0591 -0.5017
 2035SOL    HW113155   8.831   3.396  11.356 -2.0144  3.2970  2.3234
 2035SOL    HW213156   8.901   3.355  11.484 -0.7854 -1.0700  0.4365
 2036SOL     OW13157   8.070  11.108   4.483  0.0411  0.1072  0.5097
 2036SOL    HW113158   8.019  11.081   4.407  0.0880 -0.7078  0.7589
 2036SOL    HW213159   8.008  11.104   4.556  0.1141  0.4352  0.5917
 2037SOL     OW13160  10.356   3.707   9.032 -0.3133  0.2660  0.0967
 2037SOL    HW113161  10.337   3.776   9.095  2.4115  0.2974  0.9991
 2037SOL    HW213162  10.314   3.628   9.069 -0.0493  0.6029  1.1467
 2038SOL     OW13163   7.997   2.043   0.523 -0.0550 -0.5101  0.3242
 2038SOL    HW113164   7.975   1.965   0.471  1.3897 -1.9128  1.6957
 2038SOL    HW213165   8.045   2.099   0.463 -1.1428 -0.6354 -0.7031
 2039SOL     OW13166   9.484   4.487   8.046 -0.0575  0.4046  0.0456
 2039SOL    HW113167   9.514   4.490   8.137  1.3213  0.2854 -0.3802
 2039SOL    HW213168   9.479   4.393   8.026  0.4641  0.4366 -0.2517
 2040SOL     OW13169   9.357   9.466   2.734 -0.1632 -0.0913 -0.5968
 2040SOL    HW113170   9.380   9.558   2.721  2.0872 -0.2884  1.3260
 2040SOL    HW213171   9.307   9.443   2.656 -0.6462  2.6892 -1.2161
 2041SOL     OW13172   9.883   0.611   8.406 -0.0470  0.0544  0.0350
 2041SOL    HW113173   9.818   0.666   8.450 -2.0463 -1.6348 -0.5941
 2041SOL    HW213174   9.867   0.624   8.313  1.3912  0.5342 -0.1686
 2042SOL     OW13175  12.166   6.024   4.085 -0.9009 -0.5041  0.8174
 2042SOL    HW113176  12.114   5.960   4.036 -0.1365 -1.3866  1.1498
 2042SOL    HW213177  12.147   6.107   4.041 -1.1502 -1.0919 -0.2312
 2043SOL     OW13178  10.013   9.805  11.110  0.6938 -0.3312 -0.2697
 2043SOL    HW113179  10.043   9.732  11.056  0.5932  0.7274 -1.8371
 2043SOL    HW213180   9.928   9.829  11.072  0.9140  0.8489 -0.0599
 2044SOL     OW13181   6.272   9.363   1.835 -0.1492  0.3760  0.1138
 2044SOL    HW113182   6.254   9.449   1.796  0.9812 -0.4634 -2.4924
 2044SOL    HW213183   6.233   9.300   1.774  1.8399 -1.0393  0.1837
 2045SOL     OW13184  11.516  11.825   5.982  0.5043 -0.3706 -0.1907
 2045SOL    HW113185  11.549  11.741   5.951  0.4482 -0.7811  0.8422
 2045SOL    HW213186  11.590  11.885   5.973 -0.1046  0.0861 -3.1733
 2046SOL     OW13187  11.783   4.415   7.948 -0.2172 -0.0921 -0.4137
 2046SOL    HW113188  11.751   4.409   8.038  1.9695 -1.8607  0.3362
 2046SOL    HW213189  11.869   4.458   7.956  0.0342 -0.3198 -1.6464
 2047SOL     OW13190   9.202  11.641   7.684  0.2058 -0.1400 -0.1702
 2047SOL    HW113191   9.296  11.623   7.672  0.4213  0.0066  1.1178
 2047SOL    HW213192   9.167  11.561   7.724 -0.3696 -0.4432 -1.2512
 2048SOL     OW13193   7.577   5.945   5.756 -0.3147 -0.1561  0.2311
 2048SOL    HW113194   7.596   6.033   5.724 -1.5384  0.0998  0.1320
 2048SOL    HW213195   7.659   5.915   5.794  0.8952 -0.0400 -2.1107
 2049SOL     OW13196   5.079   2.872   2.660  0.1896  0.4322  0.2592
 2049SOL    HW113197   5.051   2.883   2.569 -3.1616  0.3642  1.1351
 2049SOL    HW213198   5.125   2.953   2.681  0.2123  0.8348 -1.2261
 2050SOL     OW13199  11.055   2.638   2.803 -0.0528  0.0522  0.2936
 2050SOL    HW113200  11.111   2.691   2.747 -0.6761  0.1320 -0.2613
 2050SOL    HW213201  11.057   2.682   2.888  0.1262  0.4689  0.0713
 2051SOL     OW13202   1.834  11.436   2.002  0.1322  0.3120  0.6676
 2051SOL    HW113203   1.898  11.368   2.024  0.5638  0.2971 -0.5675
 2051SOL    HW213204   1.885  11.515   1.991  0.1727  0.0315 -1.6453
 2052SOL     OW13205   8.078   8.322   0.876  0.1575  0.3036  0.5883
 2052SOL    HW113206   8.113   8.247   0.827 -0.9691  0.1850 -0.0478
 2052SOL    HW213207   8.156   8.362   0.916  0.6595 -2.1722  2.3708
 2053SOL     OW13208   8.217   3.878   5.443 -0.0920 -0.3278 -0.4139
 2053SOL    HW113209   8.139   3.868   5.388 -0.7617  1.2369  0.2053
 2053SOL    HW213210   8.278   3.811   5.410 -1.5787 -1.4222 -1.0790
 2054SOL     OW13211   2.767  11.729  11.345  0.0353 -0.6359 -0.1184
 2054SOL    HW113212   2.785  11.822  11.330 -1.7146 -0.4142 -1.1794
 2054SOL    HW213213   2.841  11.698  11.397  0.3657  1.4842  0.7927
 2055SOL     OW13214   5.818   3.038   2.413  0.2352  0.8277 -0.0032
 2055SOL    HW113215   5.858   3.106   2.468  1.9520  0.0935 -0.2656
 2055SOL    HW213216   5.843   3.061   2.324  1.6094 -0.5735 -0.0306
 2056SOL     OW13217   3.693   8.523   7.611  0.2475  0.0115  0.1280
 2056SOL    HW113218   3.732   8.606   7.637 -1.9105  1.4172 -0.8878
 2056SOL    HW213219   3.636   8.499   7.684  0.3784 -0.2702  0.1402
 2057SOL     OW13220   0.858   1.043   0.959  0.3725 -0.0601 -0.0972
 2057SOL    HW113221   0.944   1.040   0.999  0.0335  1.3819  0.7964
 2057SOL    HW213222   0.858   0.971   0.895  1.8296 -0.7592  0.6623
 2058SOL     OW13223   2.210  11.219  11.134 -0.0964 -0.0163 -0.2905
 2058SOL    HW113224   2.160  11.201  11.054 -1.4265  1.5553  0.1404
 2058SOL    HW213225   2.209  11.314  11.142  2.2897  0.0361  0.2255
 2059SOL     OW13226   1.297  10.548   8.884  0.3285  0.2045  0.0862
 2059SOL    HW113227   1.214  10.551   8.932  0.0932  2.6460 -0.3260
 2059SOL    HW213228   1.340  10.468   8.914  0.1485  1.4855  4.2566
 2060SOL     OW13229  11.292  11.992   0.612  0.4734 -0.4730 -0.1531
 2060SOL    HW113230  11.218  12.051   0.624  0.1943 -1.0222  0.9767
 2060SOL    HW213231  11.368  12.049   0.608  0.0206  0.0953 -1.2212
 2061SOL     OW13232  10.589   8.562   9.958  0.1668  0.9354  0.4268
 2061SOL    HW113233  10.644   8.497  10.001 -0.6425  0.1651  0.3226
 2061SOL    HW213234  10.620   8.565   9.868  1.3702  2.0056  0.8426
 2062SOL     OW13235   2.397   5.061   5.670  0.5680  0.5059 -0.5171
 2062SOL    HW113236   2.328   5.123   5.690  0.9296  1.3724 -1.8460
 2062SOL    HW213237   2.352   4.977   5.661 -0.1080  0.8107 -0.0117
 2063SOL     OW13238   9.384  11.155  12.283 -0.9225  0.2592 -0.5343
 2063SOL    HW113239   9.417  11.235  12.324  0.1855  0.1780 -1.2251
 2063SOL    HW213240   9.435  11.084  12.323 -1.4571 -0.0463 -0.3812
 2064SOL     OW13241   1.386   6.893   4.352  0.4279 -0.4155 -0.0378
 2064SOL    HW113242   1.419   6.977   4.318 -1.0119 -0.5852 -2.0418
 2064SOL    HW213243   1.403   6.897   4.446  1.0510  1.8219 -0.1850
 2065SOL     OW13244   3.269   1.697   6.719 -0.1301  0.1029 -0.3549
 2065SOL    HW113245   3.227   1.689   6.805  1.1385  0.4593  0.3431
 2065SOL    HW213246   3.256   1.612   6.677 -0.8036 -0.0629  0.1773
 2066SOL     OW13247   8.485   2.510   8.156 -1.1130  0.0203  0.5983
 2066SOL    HW113248   8.562   2.453   8.155 -0.9785  0.1984  0.7579
 2066SOL    HW213249   8.503   2.576   8.089 -0.8521  0.4222  1.0590
 2067SOL     OW13250   5.647   2.852   7.202 -0.4321  0.1574  0.3318
 2067SOL    HW113251   5.566   2.853   7.151  1.2150 -1.0858 -2.5371
 2067SOL    HW213252   5.633   2.785   7.268 -1.9381  0.3901  0.2921
 2068SOL     OW13253   6.707   9.011  11.485  0.5603 -0.1781  0.7030
 2068SOL    HW113254   6.741   8.955  11.555  0.9417  1.2291  1.6805
 2068SOL    HW213255   6.651   9.074  11.531  0.0693  0.1981 -0.3888
 2069SOL     OW13256   2.032   6.244   7.130  0.7342 -0.0140  0.1335
 2069SOL    HW113257   1.997   6.210   7.213 -0.4154 -1.2802 -0.8200
 2069SOL    HW213258   1.954   6.266   7.079  1.3721 -0.9676 -1.2907
 2070SOL     OW13259   7.633   8.987  10.854 -0.0584  0.1497  0.2841
 2070SOL    HW113260   7.711   8.999  10.907  1.1907 -2.0783 -0.8750
 2070SOL    HW213261   7.658   8.921  10.789 -1.8593  1.8187 -2.3305
 2071SOL     OW13262   4.688   3.329   6.468 -0.1111 -0.0984  0.0319
 2071SOL    HW113263   4.669   3.311   6.376 -0.0837 -1.0612  0.2038
 2071SOL    HW213264   4.617   3.287   6.516  1.3053 -2.0417  0.5764
 2072SOL     OW13265   2.600   3.303   2.736  0.5146 -0.1088  0.1733
 2072SOL    HW113266   2.633   3.221   2.698  1.0063 -0.1043  0.5787
 2072SOL    HW213267   2.505   3.298   2.725  0.6060 -0.3260 -0.6213
 2073SOL     OW13268   9.319   7.234   7.130 -0.0565  0.4100  0.3940
 2073SOL    HW113269   9.393   7.266   7.078 -1.2084  1.6593 -0.5666
 2073SOL    HW213270   9.291   7.155   7.084  1.8305 -1.2475  1.8880
 2074SOL     OW13271   6.527   7.877   7.550  0.2227 -0.0874  0.5338
 2074SOL    HW113272   6.561   7.865   7.639  1.7164 -1.2749 -0.1492
 2074SOL    HW213273   6.552   7.797   7.503 -0.8333  0.3628 -0.8743
 2075SOL     OW13274   1.696   6.671  11.523 -0.4173  0.3616 -0.0201
 2075SOL    HW113275   1.785   6.683  11.557 -1.1105  0.5006  1.8642
 2075SOL    HW213276   1.643   6.731  11.574 -1.6747 -0.0037 -0.8537
 2076SOL     OW13277   5.517  12.256  10.997  0.1961  0.1906  0.2242
 2076SOL    HW113278   5.519  12.206  10.915  1.2691  1.9364 -0.8887
 2076SOL    HW213279   5.487  12.193  11.063  1.5986 -1.9363 -1.0490
 2077SOL     OW13280   1.889   1.159  10.167 -0.3586  0.1473  0.6005
 2077SOL    HW113281   1.940   1.079  10.156  0.2585  0.7804 -1.8087
 2077SOL    HW213282   1.807   1.143  10.122  0.1184  1.0987 -0.6961
 2078SOL     OW13283   9.606   7.877   9.593  0.2911 -0.2296 -0.4466
 2078SOL    HW113284   9.630   7.941   9.525  2.6504  0.1829  0.6580
 2078SOL    HW213285   9.516   7.854   9.573  0.4584  0.8693 -2.9280
 2079SOL     OW13286   9.785   3.587   4.486  0.2024 -0.0585 -0.3128
 2079SOL    HW113287   9.697   3.571   4.520  0.5226 -1.0488  0.0823
 2079SOL    HW213288   9.797   3.682   4.493 -0.7249  0.0500 -0.1144
 2080SOL     OW13289   8.406   7.041   2.287  0.0685 -0.1658  0.5150
 2080SOL    HW113290   8.349   7.006   2.219  0.9635  1.1875 -1.0206
 2080SOL    HW213291   8.474   7.088   2.238 -0.3231  2.5426  2.3697
 2081SOL     OW13292   0.154   8.346   6.301 -0.1400 -0.2397  0.0163
 2081SOL    HW113293   0.069   8.386   6.318  0.3391  1.2359 -0.8686
 2081SOL    HW213294   0.183   8.315   6.387 -2.1483 -2.0634  0.1248
 2082SOL     OW13295   5.395   9.357   3.328 -0.2961  0.3609  0.4281
 2082SOL    HW113296   5.352   9.302   3.263 -0.1607  0.5236  0.1983
 2082SOL    HW213297   5.397   9.444   3.288  1.8974 -0.0023 -0.3726
 2083SOL     OW13298   7.354   5.804   3.612 -0.1084  0.2857 -0.0056
 2083SOL    HW113299   7.286   5.757   3.658 -0.0099  0.1942  0.0479
 2083SOL    HW213300   7.435   5.756   3.632 -0.2269 -0.4710 -1.2431
 2084SOL     OW13301   8.197   7.797  10.646  0.2631 -0.4139  0.0439
 2084SOL    HW113302   8.261   7.832  10.708 -0.9496 -1.8901  2.2666
 2084SOL    HW213303   8.140   7.742  10.700 -1.8173 -0.5387 -2.1495
 2085SOL     OW13304   3.757  12.074   9.632  0.0772  0.0070  0.3832
 2085SOL    HW113305   3.851  12.054   9.639  0.0873 -0.0499  0.1005
 2085SOL    HW213306   3.742  12.084   9.538  0.0078  1.0472  0.5011
 2086SOL     OW13307   1.911   8.283   6.058  0.5138  0.0802  0.3186
 2086SOL    HW113308   1.819   8.281   6.034  0.6524 -1.6177 -0.2146
 2086SOL    HW213309   1.926   8.201   6.105  2.0363 -0.3880 -0.8498
 2087SOL     OW13310   6.227   7.488   5.310  0.1902 -0.1473  0.0518
 2087SOL    HW113311   6.265   7.576   5.304  1.3162 -0.5955  0.3586
 2087SOL    HW213312   6.292   7.431   5.269 -0.5259 -0.8396 -0.1388
 2088SOL     OW13313   4.843   9.853   4.728  0.4035  0.7813  0.0715
 2088SOL    HW113314   4.792   9.935   4.726 -0.1544  0.4494  0.3616
 2088SOL    HW213315   4.932   9.881   4.748  0.8481  1.5971 -2.6861
 2089SOL     OW13316   4.142   9.191  10.595  0.7581 -0.3728  0.2369
 2089SOL    HW113317   4.192   9.137  10.535 -1.6050 -0.0851 -2.1934
 2089SOL    HW213318   4.151   9.280  10.561 -1.3014 -0.3152 -0.2779
 2090SOL     OW13319   3.852   2.769  10.767 -0.8763  0.2985  0.0602
 2090SOL    HW113320   3.947   2.773  10.777 -0.8259 -1.1394  0.3607
 2090SOL    HW213321   3.836   2.805  10.680 -0.1586  1.4504  0.3898
 2091SOL     OW13322   2.250   6.816   4.656 -0.2110  0.0547  0.6832
 2091SOL    HW113323   2.266   6.837   4.748  0.9421 -0.0831  0.5325
 2091SOL    HW213324   2.178   6.873   4.631 -0.3269  0.3289  1.5824
 2092SOL     OW13325   3.925   5.466   9.413  0.3828  0.5100  0.3935
 2092SOL    HW113326   3.966   5.553   9.410  2.3482 -0.3222  1.3659
 2092SOL    HW213327   3.985   5.413   9.465 -1.5100 -1.0815  1.0682
 2093SOL     OW13328   7.031   3.631   2.356 -0.5299  0.0600 -0.2809
 2093SOL    HW113329   7.119   3.636   2.319 -0.3590 -0.4955  0.0282
 2093SOL    HW213330   7.044   3.639   2.450 -0.8562  0.4419 -0.2676
 2094SOL     OW13331   9.898  10.567   5.464 -0.5971  0.1781 -0.1433
 2094SOL    HW113332   9.899  10.663   5.467 -0.2023  0.1910  3.1925
 2094SOL    HW213333   9.806  10.544   5.476 -0.5464  0.1684  0.2477
 2095SOL     OW13334   4.671   2.695   7.991 -0.2174  0.1506  0.0041
 2095SOL    HW113335   4.667   2.747   8.071  0.8111  1.5254 -0.7912
 2095SOL    HW213336   4.752   2.645   7.999 -0.2003  0.1616 -0.1022
 2096SOL     OW13337  11.858  10.806   6.370  0.0409  0.4963  0.2227
 2096SOL    HW113338  11.804  10.735   6.405  0.1715  0.9843  1.4573
 2096SOL    HW213339  11.948  10.773   6.375 -0.0316  0.1236 -0.7619
 2097SOL     OW13340  12.476  10.104   0.041  0.2762 -0.2386  0.3346
 2097SOL    HW113341  12.429  10.134  -0.036  1.9248 -1.2901 -1.1646
 2097SOL    HW213342  12.497  10.184   0.090 -1.7893  0.3413  0.3444
 2098SOL     OW13343   5.016  11.569   8.456  0.0806  0.0277  0.7491
 2098SOL    HW113344   5.035  11.562   8.549  0.7797  0.6357  0.6649
 2098SOL    HW213345   4.921  11.564   8.450  0.0365 -0.1088  1.4830
 2099SOL     OW13346   6.889  10.060   3.418 -0.2142  0.3637 -0.1607
 2099SOL    HW113347   6.882  10.087   3.509  0.1293  0.3687 -0.1364
 2099SOL    HW213348   6.981  10.039   3.405 -0.7288 -2.8111  0.3842
 2100SOL     OW13349   8.799  11.824   3.382  0.4345 -0.1387 -0.5520
 2100SOL    HW113350   8.852  11.745   3.379  0.5200 -0.1550  1.0298
 2100SOL    HW213351   8.819  11.869   3.300  1.5211 -1.0147 -0.7823
 2101SOL     OW13352   9.562   9.205   9.282  0.1744 -0.0188 -0.1462
 2101SOL    HW113353   9.577   9.281   9.339  2.0112 -1.3528  1.2858
 2101SOL    HW213354   9.489   9.159   9.323 -0.4563  0.5618 -0.5963
 2102SOL     OW13355  11.335   6.982   2.548  0.2608  0.4525 -0.1448
 2102SOL    HW113356  11.402   6.976   2.616  0.3240  0.3777 -0.2138
 2102SOL    HW213357  11.257   7.013   2.594  0.9571  2.8380 -0.4721
 2103SOL     OW13358   1.769   4.121   4.168  0.7412 -0.0473  0.7989
 2103SOL    HW113359   1.753   4.195   4.227  2.3884  0.9387  0.0793
 2103SOL    HW213360   1.821   4.060   4.220 -0.3331 -0.5889  1.2830
 2104SOL     OW13361  11.688   1.830   0.081 -0.1399 -0.1284 -0.0367
 2104SOL    HW113362  11.640   1.851   0.161 -1.3915  0.8423 -0.9937
 2104SOL    HW213363  11.672   1.737   0.067 -3.1384  0.4122 -1.1069
 2105SOL     OW13364   0.490  11.087   5.307  0.2194  0.2401 -0.2900
 2105SOL    HW113365   0.513  11.033   5.231  0.2892 -0.5778  0.2968
 2105SOL    HW213366   0.395  11.080   5.313  0.3648 -1.4981  0.9549
 2106SOL     OW13367  11.740  10.929   3.167 -0.1375 -0.7001 -0.4870
 2106SOL    HW113368  11.827  10.888   3.168  0.4470  0.4957 -0.7978
 2106SOL    HW213369  11.724  10.952   3.259 -0.6198 -1.9011 -0.2546
 2107SOL     OW13370   0.375   5.735   7.559  0.3246 -0.4227 -0.3448
 2107SOL    HW113371   0.367   5.643   7.535 -0.6443  0.1384 -2.4329
 2107SOL    HW213372   0.325   5.743   7.640  0.6001 -1.7638 -0.0264
 2108SOL     OW13373  12.539   7.243   9.850 -0.2062 -0.3874  1.1191
 2108SOL    HW113374  12.613   7.192   9.882  1.6520  0.6868 -1.0935
 2108SOL    HW213375  12.502   7.191   9.779 -1.6289 -0.9115  2.2025
 2109SOL     OW13376   5.582   7.534   2.830 -0.1044 -0.2699 -0.3558
 2109SOL    HW113377   5.498   7.581   2.823 -0.6793 -1.3882 -1.1443
 2109SOL    HW213378   5.600   7.532   2.924 -0.1839  1.2824 -0.2684
 2110SOL     OW13379   0.947  10.588   1.105 -0.4876  0.3470  0.0502
 2110SOL    HW113380   0.967  10.660   1.164 -0.4297 -0.0291  0.4898
 2110SOL    HW213381   0.979  10.618   1.020 -0.5053  0.8586  0.2190
 2111SOL     OW13382  11.693   5.383   8.431  0.1668  0.5185  0.2196
 2111SOL    HW113383  11.658   5.428   8.508  0.9985 -0.8444  1.4497
 2111SOL    HW213384  11.788   5.386   8.443  0.2863 -0.1027 -0.5242
 2112SOL     OW13385  10.074   5.750   5.338 -0.0696  0.4167  0.1760
 2112SOL    HW113386   9.995   5.731   5.287  0.4667  0.1660 -0.5828
 2112SOL    HW213387  10.049   5.825   5.392 -1.0315 -0.0700  0.4409
 2113SOL     OW13388   4.077   2.089   1.584  0.0724 -0.4019  0.4236
 2113SOL    HW113389   4.091   2.128   1.498  1.7919  1.0791  1.3102
 2113SOL    HW213390   4.138   2.016   1.588  0.6799  0.1126  0.7148
 2114SOL     OW13391  10.832   1.173  11.242 -0.2012 -0.2207 -0.4710
 2114SOL    HW113392  10.915   1.183  11.290 -1.0827  0.6701  0.9303
 2114SOL    HW213393  10.822   1.255  11.194 -1.7505  1.0170  1.8300
 2115SOL     OW13394   6.525  12.390   5.764  0.6909 -0.3258 -0.2671
 2115SOL    HW113395   6.570  12.471   5.787  0.7016  0.0984 -1.7042
 2115SOL    HW213396   6.571  12.322   5.815 -0.2472  0.6933  2.0840
 2116SOL     OW13397   6.226  12.528   2.594  0.9019 -0.4949  0.1136
 2116SOL    HW113398   6.257  12.618   2.582 -0.4289  0.0541  0.5575
 2116SOL    HW213399   6.242  12.486   2.510 -1.6202  1.1855 -1.3564
 2117SOL     OW13400   9.237   2.027   2.313 -0.0031 -0.5760 -0.1502
 2117SOL    HW113401   9.300   2.094   2.340 -0.7999  0.2053 -0.1835
 2117SOL    HW213402   9.168   2.030   2.380 -1.1410  0.1830 -1.3088
 2118SOL     OW13403   8.472   7.976   6.103 -0.3162  0.3181 -0.0404
 2118SOL    HW113404   8.566   7.977   6.119 -0.0850 -1.8544 -0.9194
 2118SOL    HW213405   8.449   7.883   6.101 -2.8741  0.7578  2.2102
 2119SOL     OW13406  10.396   7.087   2.977 -0.2862 -0.5399 -0.4766
 2119SOL    HW113407  10.432   7.175   2.982 -0.0145 -0.7075  1.0520
 2119SOL    HW213408  10.471   7.031   2.957 -0.4353 -0.4567 -1.3122
 2120SOL     OW13409   0.077   0.400  10.767  0.0660  0.5565 -0.6401
 2120SOL    HW113410   0.085   0.306  10.777 -1.7909  0.4360  0.1756
 2120SOL    HW213411   0.005   0.411  10.704 -1.0935  1.3804  0.7509
 2121SOL     OW13412   5.154  10.156   8.425 -0.0781 -0.7450 -0.4524
 2121SOL    HW113413   5.149  10.112   8.510 -1.0968 -1.6058 -0.9316
 2121SOL    HW213414   5.080  10.216   8.425  0.6208  0.1420 -0.2766
 2122SOL     OW13415   3.640   0.738   6.374 -0.0144 -0.2879  0.2099
 2122SOL    HW113416   3.675   0.763   6.459  0.5959 -1.2900  0.2626
 2122SOL    HW213417   3.695   0.784   6.311 -0.2475  0.1784  0.3411
 2123SOL     OW13418  11.731   7.930   8.363 -0.4663 -0.5930  0.2202
 2123SOL    HW113419  11.792   7.979   8.419  0.1594 -3.4255  2.2661
 2123SOL    HW213420  11.729   7.979   8.281  1.7380  1.6098  1.3400
 2124SOL     OW13421   0.815   1.943   2.878  0.4776  0.7690  0.1981
 2124SOL    HW113422   0.851   1.996   2.807  1.5093  2.1079  1.6633
 2124SOL    HW213423   0.875   1.868   2.886  0.1688  0.4336 -0.5316
 2125SOL     OW13424  10.848   3.290   8.867  0.5079 -0.0732 -0.1397
 2125SOL    HW113425  10.910   3.328   8.929  0.0604  0.3897  0.0286
 2125SOL    HW213426  10.868   3.196   8.868 -0.5531 -0.3491  1.9694
 2126SOL     OW13427   8.038  10.097   2.514  0.7697 -0.4282  0.6839
 2126SOL    HW113428   7.975  10.159   2.478  0.6285 -1.4272 -0.8977
 2126SOL    HW213429   8.123  10.126   2.479  0.5624 -1.7323 -1.0560
 2127SOL     OW13430   9.028   9.713   8.698  0.1663 -0.0946  0.0073
 2127SOL    HW113431   9.096   9.733   8.634 -0.8766 -2.1823 -1.9117
 2127SOL    HW213432   8.961   9.780   8.682  0.4693  0.1724 -0.1748
 2128SOL     OW13433   6.616   9.317   6.780  0.4470  0.4109 -0.3425
 2128SOL    HW113434   6.526   9.293   6.758  0.9622 -3.4859  0.9903
 2128SOL    HW213435   6.662   9.315   6.696 -0.1003 -0.9854 -0.6356
 2129SOL     OW13436   9.619   0.339   6.610  0.3275 -0.0421 -0.1290
 2129SOL    HW113437   9.612   0.244   6.610  1.0453 -0.1445  1.7486
 2129SOL    HW213438   9.656   0.361   6.524 -2.0463 -1.2014 -1.5315
 2130SOL     OW13439  12.463   1.830   5.109 -0.1856  0.1130 -0.5328
 2130SOL    HW113440  12.494   1.745   5.077  0.0121 -0.5882  1.3646
 2130SOL    HW213441  12.507   1.894   5.053  1.8556 -0.9593 -0.2686
 2131SOL     OW13442   4.908   6.941   7.406  0.1116 -0.3154  0.4205
 2131SOL    HW113443   4.897   6.847   7.420  2.0999 -0.5771  0.4338
 2131SOL    HW213444   4.985   6.965   7.458 -0.4358  1.3552  0.5280
 2132SOL     OW13445   6.446   7.093   9.872  0.3067 -0.1852  0.1294
 2132SOL    HW113446   6.420   7.179   9.839  0.1870  0.1450  1.0693
 2132SOL    HW213447   6.461   7.041   9.793  1.7302  1.0902 -0.4693
 2133SOL     OW13448   6.091   9.344   4.488 -0.0540 -0.3279 -0.5904
 2133SOL    HW113449   6.041   9.293   4.424  0.6093 -0.7508 -0.7843
 2133SOL    HW213450   6.057   9.316   4.573 -0.8833  0.1770 -0.7479
 2134SOL     OW13451   7.049   6.350   1.474  0.6095  0.6827  0.3593
 2134SOL    HW113452   7.115   6.305   1.420  0.8991 -0.6434  1.7737
 2134SOL    HW213453   6.990   6.281   1.504  0.0233  1.5019  1.1462
 2135SOL     OW13454  12.138   3.006   0.354 -0.2875 -0.1148  0.2355
 2135SOL    HW113455  12.117   3.095   0.327 -0.9362 -0.7792 -1.6443
 2135SOL    HW213456  12.059   2.956   0.334 -0.2880 -0.9840  2.1460
 2136SOL     OW13457   0.304   7.492   3.458 -0.1848 -0.4454 -0.2871
 2136SOL    HW113458   0.282   7.435   3.384  0.0248 -0.0244 -0.6783
 2136SOL    HW213459   0.302   7.434   3.534 -0.9117 -0.7774 -0.5507
 2137SOL     OW13460   5.894   8.283   3.119 -0.4280 -0.0651  0.0805
 2137SOL    HW113461   5.822   8.334   3.157  0.2802  0.3570  0.8813
 2137SOL    HW213462   5.973   8.324   3.153  0.1909 -0.7218 -0.5422
 2138SOL     OW13463   3.517   4.662   6.429 -0.3254 -0.3361  0.4809
 2138SOL    HW113464   3.568   4.731   6.385  0.3437 -1.8151 -1.2014
 2138SOL    HW213465   3.576   4.629   6.496 -0.3989  0.2599  0.8497
 2139SOL     OW13466   4.466  12.133   7.189 -0.0265 -0.7196  0.0330
 2139SOL    HW113467   4.457  12.039   7.173  0.5318 -0.3969 -2.7320
 2139SOL    HW213468   4.555  12.154   7.160 -0.5140  0.8261 -0.4908
 2140SOL     OW13469   3.779   7.117   6.182 -0.1757 -0.0843 -0.0804
 2140SOL    HW113470   3.745   7.048   6.239 -1.7738  0.6440 -0.1179
 2140SOL    HW213471   3.874   7.114   6.195 -0.5140  0.5026  3.0941
 2141SOL     OW13472   2.376  10.778   6.653  0.3355  0.0825  0.8415
 2141SOL    HW113473   2.417  10.694   6.677 -0.6022 -0.6730 -0.0910
 2141SOL    HW213474   2.334  10.807   6.734 -1.0931 -1.4215  0.7036
 2142SOL     OW13475   7.008   7.140   9.016 -0.5168  0.4329 -0.0248
 2142SOL    HW113476   7.031   7.233   9.012  1.3954  0.0384  0.8670
 2142SOL    HW213477   7.046   7.103   8.936  0.0755  0.1528  0.3838
 2143SOL     OW13478   7.820   7.034  10.763 -0.5088  0.4262 -0.0264
 2143SOL    HW113479   7.831   6.974  10.689 -1.0034  1.3914 -0.9141
 2143SOL    HW213480   7.874   6.997  10.833  0.4556 -0.1904 -1.0628
 2144SOL     OW13481   7.706   6.363   3.775  0.1950  0.1773  0.1738
 2144SOL    HW113482   7.647   6.378   3.848 -0.1969 -1.4964  0.2443
 2144SOL    HW213483   7.673   6.284   3.733  1.3699  0.1837 -0.8347
 2145SOL     OW13484   7.432   8.200   7.780 -0.3777  0.3929 -0.1071
 2145SOL    HW113485   7.424   8.254   7.858 -2.8514  0.1614 -0.0932
 2145SOL    HW213486   7.385   8.119   7.802 -1.5876  0.5188 -1.9228
 2146SOL     OW13487   4.318   3.283   3.139  0.0598 -0.0857 -0.3073
 2146SOL    HW113488   4.233   3.239   3.149  1.2298 -2.2206  0.9401
 2146SOL    HW213489   4.329   3.291   3.044 -1.4442  0.0904 -0.4980
 2147SOL     OW13490  12.477   9.641   7.309 -0.2003  0.3424 -0.2647
 2147SOL    HW113491  12.428   9.614   7.387  0.5941 -0.6591 -0.0765
 2147SOL    HW213492  12.566   9.611   7.326  0.3028  1.3865 -0.9505
 2148SOL     OW13493   7.072   5.521   4.979  0.0189  0.2844 -0.5682
 2148SOL    HW113494   7.146   5.483   4.931 -0.1383 -0.8082  0.0275
 2148SOL    HW213495   7.016   5.447   5.001  0.1681  0.6987  1.4476
 2149SOL     OW13496   2.702   8.486   8.327 -0.1969 -0.3543 -0.0271
 2149SOL    HW113497   2.653   8.561   8.294 -0.5248 -0.3304  0.5092
 2149SOL    HW213498   2.684   8.416   8.265  0.8158  0.2349 -1.0367
 2150SOL     OW13499  10.405   9.671   6.791  0.5289 -0.2211  0.2431
 2150SOL    HW113500  10.365   9.584   6.784 -0.9501  0.1534  2.9021
 2150SOL    HW213501  10.499   9.654   6.785  0.3579 -2.2099  1.9450
 2151SOL     OW13502   9.544   7.102   8.388  0.0113  0.4056 -0.1588
 2151SOL    HW113503   9.608   7.141   8.329  0.1434 -0.6451 -0.7385
 2151SOL    HW213504   9.577   7.122   8.475  0.9367  0.2171 -0.4468
 2152SOL     OW13505  10.473   0.057   7.160  0.0217 -0.1861 -0.3164
 2152SOL    HW113506  10.459   0.136   7.108  1.3992  0.2384 -0.0784
 2152SOL    HW213507  10.454  -0.015   7.100  0.2017  0.3137 -0.9811
 2153SOL     OW13508  10.833   5.119   4.611  0.0799 -0.0050  0.1403
 2153SOL    HW113509  10.778   5.041   4.605  1.2545 -0.8905  0.4410
 2153SOL    HW213510  10.923   5.085   4.611  0.5957  1.2105  2.0207
 2154SOL     OW13511   1.194   3.315   7.143 -0.3253  0.5108  0.3743
 2154SOL    HW113512   1.231   3.400   7.170 -2.0495  1.7221 -0.8538
 2154SOL    HW213513   1.175   3.270   7.225 -1.0192  2.0715  1.1033
 2155SOL     OW13514  10.189   5.476   8.894  0.3438 -0.1073  0.8836
 2155SOL    HW113515  10.172   5.556   8.844  0.9639  0.9984  2.3812
 2155SOL    HW213516  10.266   5.437   8.852  0.2113  0.2251  0.3197
 2156SOL     OW13517   5.998   0.145   2.088 -0.0016  0.3440 -0.5374
 2156SOL    HW113518   6.003   0.050   2.098 -1.2973  0.3167  0.1989
 2156SOL    HW213519   5.990   0.159   1.994  1.0952 -0.2052 -0.7249
 2157SOL     OW13520  11.008   0.124   5.086  0.3332 -0.1533  0.4069
 2157SOL    HW113521  10.959   0.206   5.096  0.4494 -0.2864  2.3309
 2157SOL    HW213522  11.098   0.153   5.070  0.3063  0.0988  0.7007
 2158SOL     OW13523   5.177   0.516   5.320  0.3734 -0.9186  0.8046
 2158SOL    HW113524   5.162   0.422   5.314 -0.3245 -0.7848  0.2375
 2158SOL    HW213525   5.150   0.539   5.409 -0.8248 -1.0395  0.4922
 2159SOL     OW13526  10.764  10.271   3.072  0.5646 -0.0288  0.1521
 2159SOL    HW113527  10.751  10.225   2.989  1.3201 -0.0320  0.0276
 2159SOL    HW213528  10.859  10.277   3.081  0.4818  0.9606  0.4666
 2160SOL     OW13529  10.196   7.062   8.642 -0.3008  0.0174 -0.1823
 2160SOL    HW113530  10.196   7.151   8.607  0.4724 -0.3054 -1.0238
 2160SOL    HW213531  10.282   7.027   8.622  0.2945 -0.1350  2.2508
 2161SOL     OW13532   2.769  11.034   6.593  0.2707 -0.0525  0.2219
 2161SOL    HW113533   2.736  11.089   6.664  0.0384 -2.0569  1.7465
 2161SOL    HW213534   2.861  11.057   6.585  0.3356  0.0940  1.2845
 2162SOL     OW13535   3.830   2.225   0.874 -0.1389 -0.0192 -0.7447
 2162SOL    HW113536   3.841   2.319   0.865  1.9589 -0.2899 -1.5538
 2162SOL    HW213537   3.912   2.188   0.841 -1.1918 -2.1591 -1.1291
 2163SOL     OW13538   6.196   6.501   3.611 -1.0693  0.5202 -0.3211
 2163SOL    HW113539   6.197   6.411   3.646  1.6309  0.9890  1.1033
 2163SOL    HW213540   6.130   6.499   3.541 -0.5122 -2.7933 -0.9206
 2164SOL     OW13541   6.046   0.991   7.911  0.0701  0.1924 -0.0158
 2164SOL    HW113542   5.956   1.008   7.939 -0.3959 -0.6445 -0.9540
 2164SOL    HW213543   6.067   1.063   7.853 -0.7939 -0.7083 -1.5146
 2165SOL     OW13544  12.117   0.001   6.578  0.0913  0.0120  0.1183
 2165SOL    HW113545  12.163   0.083   6.597 -0.9676  0.2836  1.7365
 2165SOL    HW213546  12.185  -0.065   6.576  0.7767  0.6941  0.4350
 2166SOL     OW13547   5.743  11.091   4.876  0.5914  0.6251  0.4073
 2166SOL    HW113548   5.741  11.150   4.801 -0.8288 -0.7383 -0.6673
 2166SOL    HW213549   5.687  11.018   4.852 -0.2165  0.3043  2.9492
 2167SOL     OW13550   3.521   5.855   8.688 -0.1967 -0.3971 -0.3442
 2167SOL    HW113551   3.443   5.858   8.633  0.1290  0.8674 -0.7845
 2167SOL    HW213552   3.490   5.825   8.773 -0.9742 -0.9138 -0.7967
 2168SOL     OW13553  10.222   8.064   1.242  0.0493 -1.3072  0.3768
 2168SOL    HW113554  10.265   8.104   1.317 -1.5554 -1.1602  1.2761
 2168SOL    HW213555  10.216   7.971   1.263 -2.2483 -0.9891  1.4756
 2169SOL     OW13556   0.599   1.885  10.926  0.4950  0.4032  0.5209
 2169SOL    HW113557   0.666   1.858  10.863 -2.3940 -0.7441 -2.3343
 2169SOL    HW213558   0.584   1.978  10.907  0.0089  0.1929 -0.1656
 2170SOL     OW13559   9.164   3.985   5.089  0.3057 -0.0865  0.4350
 2170SOL    HW113560   9.118   4.051   5.141 -0.0158 -0.3947  0.5452
 2170SOL    HW213561   9.175   4.027   5.003 -1.4066 -0.4910 -0.0311
 2171SOL     OW13562   9.517   6.430   0.620 -0.5070  0.4294 -0.1461
 2171SOL    HW113563   9.537   6.522   0.601  1.4951  0.5364  1.9857
 2171SOL    HW213564   9.425   6.430   0.646 -1.1075  1.4428 -2.0636
 2172SOL     OW13565  10.695   0.258   9.254  0.2337  0.0396  0.0708
 2172SOL    HW113566  10.696   0.317   9.179 -0.9237 -2.1788 -1.7974
 2172SOL    HW213567  10.783   0.222   9.259  0.3078  0.1839 -0.1976
 2173SOL     OW13568   3.093  12.093  10.906 -0.4815 -0.5690 -0.0785
 2173SOL    HW113569   3.133  12.148  10.839 -0.4058 -0.1715  0.2920
 2173SOL    HW213570   3.125  12.005  10.887 -1.1966 -0.6209 -1.1344
 2174SOL     OW13571  10.463   1.524   5.576 -0.1982  0.2602 -0.2503
 2174SOL    HW113572  10.500   1.607   5.608 -1.3676  1.3092 -1.4938
 2174SOL    HW213573  10.369   1.533   5.590 -0.4978 -0.1887 -1.8482
 2175SOL     OW13574   5.119   0.515   5.884 -0.5776 -0.4006  0.0630
 2175SOL    HW113575   5.109   0.469   5.967 -0.6237 -1.4654 -0.5202
 2175SOL    HW213576   5.213   0.519   5.870 -0.5692 -0.2004  0.1759
 2176SOL     OW13577   7.303   3.497   9.485 -0.4006 -0.2009  0.2892
 2176SOL    HW113578   7.371   3.497   9.552  1.2407 -1.8427 -1.2609
 2176SOL    HW213579   7.239   3.562   9.516  1.5218  0.9559  2.1240
 2177SOL     OW13580  12.449   9.509   0.825 -0.1389  0.0395  0.3128
 2177SOL    HW113581  12.444   9.431   0.770 -0.8805 -0.0620  0.5089
 2177SOL    HW213582  12.538   9.509   0.859 -0.0336 -0.5378  0.0460
 2178SOL     OW13583   6.580   2.655   5.159 -0.2233  0.1246  0.1526
 2178SOL    HW113584   6.619   2.571   5.182 -0.3697  0.1987  0.6767
 2178SOL    HW213585   6.538   2.639   5.074  0.6817 -0.0309 -0.2839
 2179SOL     OW13586   7.303   8.053   8.002  0.0822  0.8003 -0.0361
 2179SOL    HW113587   7.289   8.147   8.014  0.6847  0.9407 -0.3677
 2179SOL    HW213588   7.215   8.016   7.999 -0.2936  1.6814 -2.4228
 2180SOL     OW13589  11.827  11.129   0.632 -0.1320  0.4859  0.1379
 2180SOL    HW113590  11.767  11.180   0.578 -2.8510 -0.7142  1.7579
 2180SOL    HW213591  11.809  11.159   0.721  1.8813  0.1878  0.6881
 2181SOL     OW13592   5.038   0.561   3.252 -0.2398 -0.3693  0.0495
 2181SOL    HW113593   5.077   0.616   3.185  0.1177 -1.2489 -0.4916
 2181SOL    HW213594   5.107   0.498   3.275 -1.3986 -2.2141 -1.2192
 2182SOL     OW13595  11.817   2.781   9.505  0.4726  0.1209  0.4220
 2182SOL    HW113596  11.769   2.713   9.551 -0.5383 -0.1316 -0.9674
 2182SOL    HW213597  11.755   2.817   9.442  2.0137 -0.0630 -1.2780
 2183SOL     OW13598  12.075   7.876   6.059  0.2591 -0.4856 -1.0547
 2183SOL    HW113599  12.014   7.804   6.048  0.1479 -0.3530 -1.2929
 2183SOL    HW213600  12.060   7.933   5.984 -1.1055  0.8610  0.1840
 2184SOL     OW13601   4.280  11.209   8.294  0.4546  0.3845  0.0067
 2184SOL    HW113602   4.371  11.183   8.308  0.5696  0.3101 -0.8207
 2184SOL    HW213603   4.229  11.136   8.330  0.7301  0.1517 -0.0678
 2185SOL     OW13604   6.732   6.100   2.668  0.4993  0.2405  0.2746
 2185SOL    HW113605   6.816   6.094   2.624  0.6205 -0.3303  0.5711
 2185SOL    HW213606   6.753   6.102   2.761  0.2911  2.2899  0.3099
 2186SOL     OW13607   6.140   4.799   6.384 -0.5545  0.1666 -0.3353
 2186SOL    HW113608   6.092   4.717   6.396  0.9300 -0.3829  3.2910
 2186SOL    HW213609   6.221   4.786   6.434  0.1891  3.5055 -0.4436
 2187SOL     OW13610  10.637   2.791   0.799 -0.5576 -1.0880 -0.0461
 2187SOL    HW113611  10.684   2.799   0.882 -1.4688 -1.6111  0.5479
 2187SOL    HW213612  10.651   2.874   0.755 -1.7567  0.0394  1.5703
 2188SOL     OW13613   3.887   1.163   3.302  0.3782 -0.2653 -0.2415
 2188SOL    HW113614   3.901   1.211   3.220  1.3181 -0.8893 -0.4601
 2188SOL    HW213615   3.971   1.166   3.347 -0.1876  0.2438  0.8096
 2189SOL     OW13616   6.746   5.787   4.007 -0.0954 -0.6174  0.1357
 2189SOL    HW113617   6.698   5.708   3.984 -1.3572 -0.5076  2.2371
 2189SOL    HW213618   6.725   5.803   4.099  0.9822  1.5672  0.0655
 2190SOL     OW13619   0.432   5.710   2.912  0.0845  0.0148 -0.1060
 2190SOL    HW113620   0.490   5.738   2.983  1.2267 -0.1142 -0.9629
 2190SOL    HW213621   0.355   5.766   2.920  0.1875  0.0109  1.2187
 2191SOL     OW13622  12.388   5.764  10.348 -0.6368 -0.4194 -1.1407
 2191SOL    HW113623  12.345   5.692  10.303 -0.9892 -0.2294 -1.1113
 2191SOL    HW213624  12.481   5.747  10.337 -0.6942  0.1520 -2.7939
 2192SOL     OW13625   7.308  11.755   8.772 -0.8372 -0.1385  0.3865
 2192SOL    HW113626   7.251  11.680   8.792  1.2360 -2.2584 -1.0251
 2192SOL    HW213627   7.397  11.721   8.783  0.2164  1.8167 -1.2952
 2193SOL     OW13628   1.097   2.662   9.779 -0.2729 -0.0879 -0.2520
 2193SOL    HW113629   1.164   2.622   9.834  1.8561  1.5802 -1.5138
 2193SOL    HW213630   1.074   2.593   9.716 -0.0338 -0.7883  0.4117
 2194SOL     OW13631   3.177   0.842   9.133 -0.4771  0.3014  0.6721
 2194SOL    HW113632   3.081   0.838   9.132 -0.4615 -0.4934 -1.0651
 2194SOL    HW213633   3.204   0.755   9.103  0.7862  0.6283  0.8418
 2195SOL     OW13634  12.406   5.121   2.771 -0.1830 -0.0153  0.6404
 2195SOL    HW113635  12.357   5.038   2.773 -1.5245  0.7507  0.9967
 2195SOL    HW213636  12.378   5.164   2.690 -0.1111  0.4413  0.8546
 2196SOL     OW13637  10.043   9.255   4.517 -0.5717  0.3931  0.5447
 2196SOL    HW113638  10.133   9.256   4.485 -0.2109 -0.6741  1.4633
 2196SOL    HW213639  10.038   9.331   4.576 -0.4489  0.7810  0.0593
 2197SOL     OW13640  12.286  11.185  10.715  0.3652 -0.0960  0.3736
 2197SOL    HW113641  12.333  11.267  10.730  1.1240 -0.6326  1.0464
 2197SOL    HW213642  12.356  11.119  10.710 -0.1535 -0.5660 -1.2200
 2198SOL     OW13643   7.564   2.678   8.520  0.3325  0.3970 -0.1844
 2198SOL    HW113644   7.599   2.604   8.570 -0.0722  0.4556  0.1873
 2198SOL    HW213645   7.627   2.748   8.535  0.2903  0.3717  0.1323
 2199SOL     OW13646   7.890   2.797   1.191  0.4064 -0.3588  0.1971
 2199SOL    HW113647   7.969   2.788   1.243  1.6420 -0.1383 -1.5645
 2199SOL    HW213648   7.888   2.718   1.137 -0.5014 -0.2761  0.0855
 2200SOL     OW13649  11.513   7.359  12.072  0.6675  0.1827 -0.2655
 2200SOL    HW113650  11.479   7.305  12.144 -0.0706  0.4632 -0.3958
 2200SOL    HW213651  11.539   7.441  12.115 -0.0974  0.4816 -0.3652
 2201SOL     OW13652   7.900   4.421   5.849 -0.1166  0.4624  0.1196
 2201SOL    HW113653   7.992   4.448   5.840 -0.1204  0.7515  0.9142
 2201SOL    HW213654   7.856   4.463   5.775 -0.1996  3.0220  1.5044
 2202SOL     OW13655   7.820   6.727   4.933  0.5715  0.3558  0.5806
 2202SOL    HW113656   7.776   6.785   4.995  0.3615 -0.7314  1.4639
 2202SOL    HW213657   7.763   6.651   4.926  0.7425  0.3143 -0.7232
 2203SOL     OW13658   8.633  12.139  10.216  0.5232  0.0657  0.2906
 2203SOL    HW113659   8.661  12.048  10.217  1.0846  0.2302 -0.1782
 2203SOL    HW213660   8.707  12.188  10.252  0.8022  0.4920 -0.8390
 2204SOL     OW13661   5.671   4.972   5.769  0.7310  0.1515 -0.5289
 2204SOL    HW113662   5.702   4.949   5.682  0.2720  2.3849 -1.3453
 2204SOL    HW213663   5.584   5.009   5.756 -0.0799 -1.0227  1.1048
 2205SOL     OW13664   1.070  12.091   7.491 -0.5097 -0.6264 -0.1196
 2205SOL    HW113665   0.988  12.133   7.466 -0.2958  0.1514  0.4533
 2205SOL    HW213666   1.109  12.150   7.555  0.8761 -0.5785 -0.9575
 2206SOL     OW13667   0.998   3.331   4.749  0.3144 -0.5799 -0.2141
 2206SOL    HW113668   0.940   3.403   4.724 -1.2374 -0.7664  2.4376
 2206SOL    HW213669   1.078   3.374   4.778  0.7549 -0.1932 -1.8704
 2207SOL     OW13670   4.688   9.913  12.485 -0.1327 -0.2218 -0.1074
 2207SOL    HW113671   4.769   9.929  12.435  1.0784 -0.8284  1.5876
 2207SOL    HW213672   4.669   9.821  12.470  0.1497 -0.3672  0.4220
 2208SOL     OW13673  12.496   1.070   9.321  0.1686  0.2649  0.3540
 2208SOL    HW113674  12.470   0.992   9.273 -1.4723  1.4419 -0.7459
 2208SOL    HW213675  12.468   1.053   9.411  0.0784 -0.5183  0.1824
 2209SOL     OW13676   7.673  11.078   9.455  0.0289 -0.4025  0.2915
 2209SOL    HW113677   7.753  11.123   9.482 -0.6880  1.2057 -0.1306
 2209SOL    HW213678   7.612  11.149   9.433 -1.2516 -1.5956 -0.1466
 2210SOL     OW13679   7.874  10.430   7.526 -0.4994  0.4308  0.6123
 2210SOL    HW113680   7.885  10.386   7.611  0.7473  0.3753  0.4463
 2210SOL    HW213681   7.888  10.361   7.461 -0.7333  0.6160  0.3644
 2211SOL     OW13682  11.457   0.314  11.137  0.0874  0.7959 -0.1756
 2211SOL    HW113683  11.498   0.227  11.138  1.5576  1.4574  0.1253
 2211SOL    HW213684  11.379   0.304  11.083  0.8376 -0.4440 -1.0707
 2212SOL     OW13685   8.248   1.377   6.667 -0.3185 -0.1992  0.0114
 2212SOL    HW113686   8.212   1.384   6.578 -0.5994  2.1699  0.2459
 2212SOL    HW213687   8.176   1.342   6.720 -1.6971  2.5324  0.0865
 2213SOL     OW13688   9.949   4.671  11.693  0.0342  0.0835 -0.3335
 2213SOL    HW113689   9.869   4.693  11.645 -1.0904  0.1492  1.5102
 2213SOL    HW213690   9.932   4.586  11.731  0.9039  0.0447 -0.0070
 2214SOL     OW13691   8.386   1.547   4.038  0.1202 -0.1407  0.0288
 2214SOL    HW113692   8.324   1.560   4.109  0.4236 -1.2850  0.5228
 2214SOL    HW213693   8.332   1.543   3.959 -0.0858  2.9098 -0.0853
 2215SOL     OW13694  10.290   3.845   9.252 -0.1010 -0.7327  0.4885
 2215SOL    HW113695  10.264   3.919   9.306 -0.9500 -0.6873  0.0406
 2215SOL    HW213696  10.370   3.813   9.292  1.3582  1.5754 -0.3678
 2216SOL     OW13697   8.461   0.800   6.168  0.4039 -0.1450  0.6563
 2216SOL    HW113698   8.457   0.743   6.091  3.0779 -0.3941  0.6103
 2216SOL    HW213699   8.372   0.835   6.176  0.0744  0.2349 -2.8050
 2217SOL     OW13700   9.513   4.185   7.991 -0.0842  0.2834  0.1790
 2217SOL    HW113701   9.577   4.197   7.921 -1.6665 -0.3208 -1.4175
 2217SOL    HW213702   9.538   4.103   8.032  2.1083  1.6276  1.7916
 2218SOL     OW13703   6.842   4.630  12.206 -0.3039  0.1044  0.0464
 2218SOL    HW113704   6.883   4.711  12.177 -0.8396 -0.2843 -1.9279
 2218SOL    HW213705   6.905   4.561  12.183  0.7977 -0.0309  2.9814
 2219SOL     OW13706   5.205   3.885   2.419  0.6351  0.1833  0.4004
 2219SOL    HW113707   5.272   3.935   2.467 -0.5128 -0.0839  2.3730
 2219SOL    HW213708   5.141   3.951   2.392  1.6862  0.4694 -1.6635
 2220SOL     OW13709  11.867   9.609  11.938 -0.2745  0.5692  0.1278
 2220SOL    HW113710  11.900   9.698  11.952  3.6003 -0.2107 -2.5461
 2220SOL    HW213711  11.930   9.553  11.984  1.0900 -0.9476 -3.2880
 2221SOL     OW13712   1.717   5.183  10.122 -0.1183  0.1605 -0.0483
 2221SOL    HW113713   1.643   5.123  10.117  0.5870 -0.7021 -0.3907
 2221SOL    HW213714   1.700   5.249  10.055  0.4693 -1.2633 -1.6662
 2222SOL     OW13715   0.395   4.105   7.946 -0.4153 -0.2879 -0.2908
 2222SOL    HW113716   0.362   4.020   7.920 -0.2539 -0.0948 -1.1562
 2222SOL    HW213717   0.359   4.166   7.882 -0.6573  0.3257  0.4083
 2223SOL     OW13718   5.928   0.499   5.536 -0.0477  0.4735 -0.1592
 2223SOL    HW113719   5.851   0.540   5.497  0.6255  1.1135 -0.8204
 2223SOL    HW213720   5.998   0.563   5.526  0.3619  0.3112  1.3258
 2224SOL     OW13721   1.095   9.808   7.692 -0.3179 -0.0945  0.0071
 2224SOL    HW113722   1.116   9.851   7.775 -0.8173  0.5461 -0.1905
 2224SOL    HW213723   1.180   9.787   7.654  0.0606  2.4120 -0.7540
 2225SOL     OW13724   7.431   1.920   7.532  0.3369 -0.1650 -0.2280
 2225SOL    HW113725   7.443   1.858   7.604  0.9609  0.1936 -0.0088
 2225SOL    HW213726   7.513   1.914   7.482  0.1795  0.0841 -0.5208
 2226SOL     OW13727  10.568   5.319  12.272 -0.2525  0.3076  0.0553
 2226SOL    HW113728  10.525   5.237  12.246 -0.2768  0.2678  0.2220
 2226SOL    HW213729  10.532   5.339  12.358  0.5388 -0.0621  0.4827
 2227SOL     OW13730   5.687  11.787   3.971 -0.4674  0.0233 -0.0454
 2227SOL    HW113731   5.670  11.875   3.939 -3.2788  0.0983  1.4018
 2227SOL    HW213732   5.686  11.732   3.892 -2.3639  0.8256 -0.6300
 2228SOL     OW13733   9.030  11.062  10.688 -0.1169  0.1024 -0.3467
 2228SOL    HW113734   9.003  11.095  10.603  0.5408  2.1092  0.1841
 2228SOL    HW213735   9.045  10.968  10.674 -2.8879 -0.2501 -1.7188
 2229SOL     OW13736  10.784   9.754   7.660  1.0036 -0.2025 -0.0536
 2229SOL    HW113737  10.794   9.773   7.567  1.0275 -1.2196 -0.2702
 2229SOL    HW213738  10.855   9.803   7.703  0.3892  1.0682 -0.4466
 2230SOL     OW13739   9.455   8.271   8.076  0.4929  0.1372  0.3709
 2230SOL    HW113740   9.386   8.316   8.125 -0.2810 -0.3673 -0.2427
 2230SOL    HW213741   9.533   8.282   8.130 -0.2616 -0.0872  1.5323
 2231SOL     OW13742   1.597  11.286   5.367 -0.2860 -0.1022  0.1813
 2231SOL    HW113743   1.624  11.224   5.435 -0.1200  2.1374  2.3023
 2231SOL    HW213744   1.678  11.310   5.323 -0.0817  0.0068  0.6129
 2232SOL     OW13745   1.395  10.197   4.044 -0.0420  0.4923  0.3349
 2232SOL    HW113746   1.479  10.152   4.055 -0.1183  0.5207  1.0633
 2232SOL    HW213747   1.347  10.143   3.981  0.7777  0.8479 -0.6229
 2233SOL     OW13748   5.364   3.863   5.100  0.5272 -0.2438  0.2433
 2233SOL    HW113749   5.408   3.933   5.148  1.2723 -0.8062  0.4031
 2233SOL    HW213750   5.271   3.874   5.121  0.7503  0.0250  1.1543
 2234SOL     OW13751   5.013   1.386   1.734 -0.1005  0.0679  0.1418
 2234SOL    HW113752   5.015   1.449   1.806 -0.4040 -0.2532  0.4349
 2234SOL    HW213753   5.056   1.308   1.770 -0.8202 -0.3136  0.1910
 2235SOL     OW13754  10.931  11.766  11.109  0.5386  0.3536 -0.1979
 2235SOL    HW113755  10.966  11.853  11.130 -1.1240  1.0439 -0.1337
 2235SOL    HW213756  10.901  11.773  11.019 -1.2199  0.4230  0.3618
 2236SOL     OW13757   5.957   0.073   2.888 -0.0557  0.2789  0.0152
 2236SOL    HW113758   6.048   0.096   2.910 -0.1307  1.2395 -0.6046
 2236SOL    HW213759   5.964  -0.011   2.844  0.4820  0.0925  0.4455
 2237SOL     OW13760  11.449   8.062  11.742  0.3372 -0.3933 -0.4749
 2237SOL    HW113761  11.373   8.113  11.716  1.1889  0.8972 -0.5174
 2237SOL    HW213762  11.455   7.993  11.677  0.5434  0.8670 -1.8461
 2238SOL     OW13763   6.284   9.420   6.547  0.2940 -0.0193 -0.0928
 2238SOL    HW113764   6.295   9.454   6.635  0.2691 -1.8195  0.6431
 2238SOL    HW213765   6.373   9.406   6.515  0.3014 -1.2172  0.4186
 2239SOL     OW13766   3.135   4.266   6.898 -0.1429  0.3921  0.3687
 2239SOL    HW113767   3.141   4.237   6.989 -2.8651  1.0627  0.8231
 2239SOL    HW213768   3.197   4.339   6.892  0.7652 -0.2540  1.3789
 2240SOL     OW13769   3.557   3.563   0.141 -0.2581 -0.0269  0.4064
 2240SOL    HW113770   3.572   3.485   0.194 -0.0419  0.3968  0.9877
 2240SOL    HW213771   3.466   3.586   0.158 -0.3544 -0.2236  0.1448
 2241SOL     OW13772   4.701   2.344   9.983  0.0026  0.2557 -0.2516
 2241SOL    HW113773   4.688   2.259  10.025 -0.2555  0.1922 -0.4569
 2241SOL    HW213774   4.636   2.347   9.913 -0.3518  0.8425  0.0901
 2242SOL     OW13775  10.097   3.125   7.477 -0.2131 -0.0123  0.1945
 2242SOL    HW113776  10.068   3.048   7.526 -0.1264  0.8812  1.7255
 2242SOL    HW213777  10.188   3.137   7.503  0.1763 -0.1443 -1.0610
 2243SOL     OW13778   0.163   9.078   5.742 -0.5755  0.5453 -0.2027
 2243SOL    HW113779   0.140   9.028   5.664 -0.4373 -1.2504  0.8598
 2243SOL    HW213780   0.238   9.132   5.714 -1.2162  0.7602 -1.5823
 2244SOL     OW13781  11.442  12.157  10.157  0.7772 -0.1532 -0.1347
 2244SOL    HW113782  11.411  12.189  10.241 -1.0593  0.9265 -1.1573
 2244SOL    HW213783  11.537  12.149  10.167  0.6869  0.7641  1.7459
 2245SOL     OW13784   7.377   3.256  12.192 -0.2649 -0.5937 -0.1570
 2245SOL    HW113785   7.344   3.199  12.122 -1.2732 -1.0654  0.6677
 2245SOL    HW213786   7.338   3.341  12.173 -0.4969 -0.7080 -0.1991
 2246SOL     OW13787   4.448   0.173   5.460 -0.6045  0.1745  0.6062
 2246SOL    HW113788   4.407   0.259   5.472 -2.0000 -0.3569 -0.1306
 2246SOL    HW213789   4.542   0.189   5.468 -0.4588  2.4807 -3.2787
 2247SOL     OW13790   6.072  11.284  11.471 -0.2914  0.2045  0.0246
 2247SOL    HW113791   6.039  11.353  11.529 -3.2847 -0.1385 -1.0841
 2247SOL    HW213792   6.076  11.206  11.525 -3.6197 -0.2517 -0.1577
 2248SOL     OW13793   7.331   6.455   6.022  0.0090  0.1153  0.0669
 2248SOL    HW113794   7.412   6.505   6.037  0.2304  0.0566 -0.8842
 2248SOL    HW213795   7.354   6.365   6.048 -0.1613  0.3458  1.0576
 2249SOL     OW13796   5.269  11.980   4.037 -0.2934  0.3745  0.7043
 2249SOL    HW113797   5.183  11.982   3.994 -0.0089  0.5942  0.1327
 2249SOL    HW213798   5.275  11.893   4.076 -0.0934 -0.2534 -0.6810
 2250SOL     OW13799   6.203   2.846   1.087 -1.3107 -0.4522  0.2521
 2250SOL    HW113800   6.237   2.849   1.176 -1.8486 -1.1710  0.4953
 2250SOL    HW213801   6.120   2.894   1.090 -0.5216  1.0067 -0.2633
 2251SOL     OW13802   3.445   1.388   8.613 -0.5934  0.1320 -0.0586
 2251SOL    HW113803   3.528   1.433   8.598  1.2030 -2.5873  0.9715
 2251SOL    HW213804   3.404   1.436   8.685  1.1359  0.2816  0.8638
 2252SOL     OW13805   2.133   7.505   6.845 -0.1953  0.2924 -0.5115
 2252SOL    HW113806   2.153   7.431   6.903 -0.4468 -1.1286 -2.1818
 2252SOL    HW213807   2.152   7.582   6.899  2.3985 -0.9421  0.5296
 2253SOL     OW13808   3.079   0.814   1.589 -0.1538 -0.7120  0.0925
 2253SOL    HW113809   3.041   0.901   1.578  1.4761  0.1862  1.1539
 2253SOL    HW213810   3.004   0.757   1.606 -1.2138  0.5452 -0.2268
 2254SOL     OW13811   5.643  10.879   5.279  0.0908 -0.3957 -0.5549
 2254SOL    HW113812   5.730  10.839   5.284 -0.8517 -2.5944 -0.6728
 2254SOL    HW213813   5.608  10.872   5.368 -0.0527  0.2816 -0.5547
 2255SOL     OW13814  10.065   2.817  10.094  0.6021 -0.1685 -0.3380
 2255SOL    HW113815  10.017   2.885  10.141  0.3912 -0.5225 -0.0358
 2255SOL    HW213816  10.040   2.829  10.003  1.2174  0.6908 -0.4042
 2256SOL     OW13817   0.570  11.473   5.263  0.2410 -0.0717  0.1714
 2256SOL    HW113818   0.605  11.519   5.187  1.0707 -1.1775 -0.1361
 2256SOL    HW213819   0.611  11.516   5.338 -0.2234  0.7188 -0.0195
 2257SOL     OW13820   0.590   4.271  11.904  0.0171  0.2412  0.2656
 2257SOL    HW113821   0.677   4.311  11.903 -0.6946  1.8493  0.3509
 2257SOL    HW213822   0.584   4.229  11.990  1.2955 -1.3154 -0.3528
 2258SOL     OW13823  11.327   7.760   8.557  0.1704  0.3563  0.0034
 2258SOL    HW113824  11.416   7.752   8.523  0.7914  0.4412  1.5227
 2258SOL    HW213825  11.329   7.837   8.613 -1.0584  0.7636 -0.4716
 2259SOL     OW13826   9.429   3.678   7.538 -0.1001  0.0213  0.6248
 2259SOL    HW113827   9.433   3.719   7.625  0.0883 -0.0719  0.6608
 2259SOL    HW213828   9.444   3.585   7.555  1.0737  0.1507  0.3719
 2260SOL     OW13829   9.879   0.096   7.375 -0.2122 -0.0068  0.6044
 2260SOL    HW113830   9.921   0.019   7.337 -1.4648 -0.2452 -0.3599
 2260SOL    HW213831   9.867   0.156   7.301  0.4859  1.0028  1.2925
 2261SOL     OW13832  10.369   7.771   2.392 -1.1168 -0.2382  0.7293
 2261SOL    HW113833  10.327   7.855   2.376  2.3264  1.3006 -1.3459
 2261SOL    HW213834  10.422   7.784   2.471 -0.3301 -0.2987  0.2308
 2262SOL     OW13835   5.497  12.421   3.486 -0.0113 -0.6315  0.0253
 2262SOL    HW113836   5.482  12.504   3.532 -0.2806 -0.5143 -0.2728
 2262SOL    HW213837   5.584  12.431   3.448  0.9851 -1.3991  1.9429
 2263SOL     OW13838   5.639   6.189   1.449  0.0074  0.4676  0.4835
 2263SOL    HW113839   5.646   6.279   1.417 -0.5249  0.0909 -0.7397
 2263SOL    HW213840   5.614   6.198   1.541 -0.9306  1.5629  0.1415
 2264SOL     OW13841   4.487  11.815   8.242  0.5314  0.1155  0.0115
 2264SOL    HW113842   4.532  11.895   8.267  1.8738 -0.4176 -0.5586
 2264SOL    HW213843   4.394  11.833   8.257  0.7454  1.9631 -0.6439
 2265SOL     OW13844  10.119   5.758   4.662  0.3770  0.6163 -1.1534
 2265SOL    HW113845  10.087   5.816   4.731  0.0806  0.4025 -1.1076
 2265SOL    HW213846  10.195   5.715   4.700 -1.0128 -1.1088 -0.1447
 2266SOL     OW13847   1.389   4.812  12.084 -0.5133  0.4475 -0.1899
 2266SOL    HW113848   1.304   4.768  12.093 -0.4142  0.0954 -0.9406
 2266SOL    HW213849   1.417   4.827  12.174 -0.6485 -0.8448  0.0957
 2267SOL     OW13850   1.454   8.539   8.012 -0.3291 -0.4581  0.3707
 2267SOL    HW113851   1.405   8.481   7.953 -0.5416 -0.0314  0.1253
 2267SOL    HW213852   1.387   8.598   8.048  0.2489  1.4175 -1.4486
 2268SOL     OW13853   4.954   0.283   8.359 -0.4202 -0.0671 -0.0014
 2268SOL    HW113854   4.998   0.199   8.367  1.8202  0.7817 -2.3119
 2268SOL    HW213855   5.002   0.341   8.418  0.1653  0.3323 -0.8520
 2269SOL     OW13856  10.337   1.929   5.223 -0.5257  0.5892 -0.1417
 2269SOL    HW113857  10.306   2.018   5.235  0.6749  1.2237 -1.4385
 2269SOL    HW213858  10.356   1.898   5.312  1.1578  2.4374  0.2166
 2270SOL     OW13859   7.119   1.726   6.346  0.3108  0.1719 -0.1037
 2270SOL    HW113860   7.096   1.717   6.254  0.5792  0.3711 -0.1948
 2270SOL    HW213861   7.060   1.667   6.392 -0.3609  0.6627 -0.3271
 2271SOL     OW13862  12.104   8.240   4.789 -0.3085 -0.3322 -0.1514
 2271SOL    HW113863  12.133   8.300   4.720 -0.0213  1.6142  1.5580
 2271SOL    HW213864  12.160   8.163   4.778 -0.4729 -0.2334 -2.2376
 2272SOL     OW13865   6.782   6.217   1.248 -0.3487  0.0222  1.1604
 2272SOL    HW113866   6.729   6.282   1.293  0.6347  1.1747  0.7158
 2272SOL    HW213867   6.853   6.198   1.309  1.3571  2.0737 -0.0278
 2273SOL     OW13868  11.731   3.136  12.400  0.1867 -0.2581 -0.0225
 2273SOL    HW113869  11.786   3.207  12.433 -0.2997 -0.1109  0.4751
 2273SOL    HW213870  11.789   3.085  12.343  0.3631  0.9515 -0.9812
 2274SOL     OW13871   8.177   7.452  10.926  0.2485  0.2036 -0.1402
 2274SOL    HW113872   8.240   7.391  10.887  0.1962 -0.1681  0.3460
 2274SOL    HW213873   8.193   7.446  11.020  0.1533  0.8490 -0.0785
 2275SOL     OW13874   1.071   4.495   1.814  0.0042 -0.6106 -0.6454
 2275SOL    HW113875   1.156   4.458   1.837  0.0410 -0.0155  0.2086
 2275SOL    HW213876   1.037   4.529   1.896 -0.7701 -0.2547 -1.1094
 2276SOL     OW13877   5.579   8.049   1.301 -0.1499  0.2678 -0.0535
 2276SOL    HW113878   5.660   8.035   1.350 -1.2283  0.5533  1.9275
 2276SOL    HW213879   5.538   7.962   1.297 -0.7863  0.5035  0.9540
 2277SOL     OW13880   8.396  10.579  10.385 -0.7515  0.1560  0.2263
 2277SOL    HW113881   8.430  10.656  10.430 -2.1352  1.0474 -0.2079
 2277SOL    HW213882   8.309  10.564  10.424 -0.9521 -0.5288 -0.4397
 2278SOL     OW13883   9.491   8.232   2.350  0.2926 -0.0412 -0.0723
 2278SOL    HW113884   9.558   8.182   2.304  1.1995 -0.0804  1.2564
 2278SOL    HW213885   9.434   8.266   2.280  1.6997  0.0239 -1.2242
 2279SOL     OW13886   5.557  12.197   9.668 -0.1831 -0.1616 -0.0550
 2279SOL    HW113887   5.621  12.133   9.636  1.2778  1.6969 -1.0501
 2279SOL    HW213888   5.504  12.218   9.591 -0.4792  0.0326  0.1999
 2280SOL     OW13889   9.230   6.788   3.310 -0.7844  1.0285 -0.5396
 2280SOL    HW113890   9.157   6.826   3.359 -2.7176 -0.0460 -2.3989
 2280SOL    HW213891   9.245   6.703   3.352 -1.4639  0.7278 -0.8871
 2281SOL     OW13892  10.738  10.836  10.163  0.1380 -0.0152  0.4620
 2281SOL    HW113893  10.826  10.836  10.202 -0.3039  1.1488  1.5463
 2281SOL    HW213894  10.738  10.913  10.106  0.0281 -0.3954 -0.0534
 2282SOL     OW13895   0.722   3.838  12.325 -0.3297  1.1699  0.5947
 2282SOL    HW113896   0.676   3.850  12.409  0.4709 -3.1519  1.9413
 2282SOL    HW213897   0.814   3.848  12.347 -0.1346  0.2967  0.2133
 2283SOL     OW13898   1.522   9.253   0.264 -0.1687 -0.0289  0.2929
 2283SOL    HW113899   1.444   9.308   0.261 -0.9404 -1.1175 -0.1306
 2283SOL    HW213900   1.525   9.210   0.179  0.3976 -0.6628  0.6199
 2284SOL     OW13901  12.378   3.017   7.314 -0.6088  0.6392  0.1758
 2284SOL    HW113902  12.433   3.051   7.244  0.7364 -1.8890 -0.1196
 2284SOL    HW213903  12.391   3.078   7.387  2.1048  0.4788 -0.1068
 2285SOL     OW13904   5.807  12.351  11.067  0.0078 -0.3513 -0.7386
 2285SOL    HW113905   5.766  12.305  10.994 -0.6518 -1.2897  0.1861
 2285SOL    HW213906   5.896  12.317  11.070  0.3926  0.5118 -1.7667
 2286SOL     OW13907   0.402   7.241  11.564  0.0581  0.2706 -0.3139
 2286SOL    HW113908   0.436   7.182  11.496 -0.4665  0.0864 -0.4196
 2286SOL    HW213909   0.446   7.324  11.546  1.0778 -0.1717  0.0598
 2287SOL     OW13910   2.172   3.435   1.349  0.4072 -0.3614  0.1204
 2287SOL    HW113911   2.135   3.476   1.270  0.5698 -0.1486  0.1541
 2287SOL    HW213912   2.204   3.350   1.320  3.0864  0.8245 -0.6961
 2288SOL     OW13913  10.633   1.808   3.036 -0.8930 -0.3231  0.5078
 2288SOL    HW113914  10.563   1.751   3.004 -0.4185 -1.0659  0.7536
 2288SOL    HW213915  10.667   1.762   3.113 -0.3370  0.1807  0.5665
 2289SOL     OW13916   3.655   1.925   3.075  0.2956 -0.2406  0.0010
 2289SOL    HW113917   3.722   1.917   3.006 -0.2076 -1.0198 -0.4113
 2289SOL    HW213918   3.574   1.944   3.027 -0.3709 -2.3311  0.2128
 2290SOL     OW13919   4.161  10.917   5.270 -0.1949 -0.1063  0.5572
 2290SOL    HW113920   4.123  10.832   5.291  0.6535 -0.1348  2.1720
 2290SOL    HW213921   4.089  10.967   5.231 -0.3295 -2.0233 -1.8913
 2291SOL     OW13922  10.255   6.923   3.907 -0.1326 -0.3338 -0.7696
 2291SOL    HW113923  10.192   6.928   3.835 -0.8169 -0.5927 -0.2003
 2291SOL    HW213924  10.253   6.831   3.934 -1.2913  0.1257  0.8110
 2292SOL     OW13925  10.301   5.651   9.607  0.7527 -0.6962 -0.0783
 2292SOL    HW113926  10.217   5.617   9.576  0.2948  0.5947 -0.2946
 2292SOL    HW213927  10.287   5.664   9.701  0.1701  0.9666 -0.3613
 2293SOL     OW13928   8.181   8.122   0.722 -0.0862 -0.4479 -0.0624
 2293SOL    HW113929   8.092   8.095   0.702 -0.8719  2.1067 -0.3005
 2293SOL    HW213930   8.223   8.134   0.637  0.8004 -2.3853  0.0418
 2294SOL     OW13931   2.081   4.082   5.543  0.1104  0.2286 -0.6251
 2294SOL    HW113932   2.068   4.145   5.472 -1.7461 -0.2470 -0.7671
 2294SOL    HW213933   1.998   4.084   5.591  0.3157 -1.4969 -0.1480
 2295SOL     OW13934   1.352   9.648   4.184  0.4597  0.1745 -0.0409
 2295SOL    HW113935   1.408   9.617   4.255  1.4755 -0.7452 -1.2010
 2295SOL    HW213936   1.267   9.607   4.201 -0.2879  2.5163  2.3907
 2296SOL     OW13937   9.289   9.406   8.456 -0.1193 -0.0315  0.0030
 2296SOL    HW113938   9.253   9.372   8.538 -1.9334 -0.2545 -0.8270
 2296SOL    HW213939   9.358   9.344   8.433  0.3458 -0.0220  1.2857
 2297SOL     OW13940   5.124   0.058   8.430 -0.4913  0.1674 -0.3949
 2297SOL    HW113941   5.139  -0.021   8.378  2.0785 -0.0458  0.5006
 2297SOL    HW213942   5.106   0.026   8.519  0.1712  0.5567 -0.1099
 2298SOL     OW13943   4.720   1.557   8.029 -0.1903  0.0757  0.1695
 2298SOL    HW113944   4.684   1.598   7.951 -0.2771  0.9469  0.6571
 2298SOL    HW213945   4.697   1.464   8.021  0.7458 -0.0470 -1.3599
 2299SOL     OW13946  10.976   3.474   8.591  0.8601 -0.1041 -0.1782
 2299SOL    HW113947  10.896   3.495   8.638  0.3396  3.2559 -2.2561
 2299SOL    HW213948  11.047   3.500   8.650  0.3330  0.1149  0.3605
 2300SOL     OW13949   5.680   0.674   9.098 -0.4822 -0.3432 -0.5166
 2300SOL    HW113950   5.596   0.633   9.120 -0.7918 -0.0330 -1.0852
 2300SOL    HW213951   5.696   0.646   9.007 -0.0177 -0.3218 -0.4415
 2301SOL     OW13952   3.697   0.761   4.679 -0.1098  0.7386 -0.1644
 2301SOL    HW113953   3.762   0.758   4.608  0.2168  0.0882  0.1590
 2301SOL    HW213954   3.614   0.740   4.635 -0.1467  1.7808 -0.6169
 2302SOL     OW13955  11.261  10.968   3.734 -0.2694 -0.4369  0.1693
 2302SOL    HW113956  11.344  11.002   3.767 -0.9021  0.7206  0.6387
 2302SOL    HW213957  11.200  11.042   3.743 -1.0039 -0.7931 -1.5325
 2303SOL     OW13958   6.265   8.807  12.190  0.3133 -0.8229 -0.2091
 2303SOL    HW113959   6.232   8.741  12.130 -0.2194  0.0390 -0.8912
 2303SOL    HW213960   6.272   8.886  12.137  0.6357 -0.2475  0.6640
 2304SOL     OW13961  12.423  11.769   5.569 -0.2169 -0.6211  0.1020
 2304SOL    HW113962  12.332  11.740   5.562 -0.3662 -0.3370  0.8344
 2304SOL    HW213963  12.461  11.715   5.637 -0.9157  1.8089  2.5882
 2305SOL     OW13964   1.255   9.449   6.161 -0.9916  0.6459 -0.2497
 2305SOL    HW113965   1.181   9.509   6.174 -1.8796 -0.3306 -0.7119
 2305SOL    HW213966   1.326   9.488   6.213 -1.5743  2.0251 -0.4327
 2306SOL     OW13967   9.797   0.664   7.295  0.1304  0.4830 -0.0863
 2306SOL    HW113968   9.729   0.673   7.361  0.3600 -0.7220  0.3424
 2306SOL    HW213969   9.778   0.732   7.231 -0.1741  1.6121  1.1393
 2307SOL     OW13970  11.000   4.048  10.739  0.3133  0.1853  0.4866
 2307SOL    HW113971  10.953   4.108  10.682  1.6848  1.0881  0.2629
 2307SOL    HW213972  11.073   4.099  10.773  1.0497 -1.1170  0.9471
 2308SOL     OW13973   8.994  11.309   0.472 -0.2268 -0.7232 -0.2569
 2308SOL    HW113974   8.981  11.214   0.467 -0.7834 -0.6114 -1.0990
 2308SOL    HW213975   8.932  11.338   0.538 -1.0383 -0.7812 -0.9743
 2309SOL     OW13976   9.131   5.163  10.099 -0.3173  0.2823  0.1246
 2309SOL    HW113977   9.171   5.243  10.132  1.3039 -0.3538 -0.1953
 2309SOL    HW213978   9.190   5.134  10.029  1.2477 -3.1352  2.5760
 2310SOL     OW13979   9.049  10.679   8.401 -0.1348  0.2911  0.2865
 2310SOL    HW113980   8.997  10.659   8.480 -1.0721 -0.8659 -0.5849
 2310SOL    HW213981   8.987  10.670   8.329  0.4907  2.2292 -0.5455
 2311SOL     OW13982   0.568   1.191   7.189  0.2343 -0.1070 -0.0857
 2311SOL    HW113983   0.525   1.250   7.251  1.5940 -1.5290  2.3602
 2311SOL    HW213984   0.599   1.248   7.119 -0.4320  1.7373  1.0592
 2312SOL     OW13985  10.979  10.433   9.518 -0.2215 -0.3152  0.4214
 2312SOL    HW113986  11.005  10.457   9.606 -0.5783  0.7557  0.2486
 2312SOL    HW213987  11.048  10.468   9.461 -0.4070 -0.2786  0.2158
 2313SOL     OW13988  11.147  11.497  10.118  0.5805  0.1825 -0.4229
 2313SOL    HW113989  11.112  11.440  10.049 -0.9146 -0.0245  0.4662
 2313SOL    HW213990  11.080  11.496  10.186  3.0028 -1.4790  2.1237
 2314SOL     OW13991   6.530   3.100   5.385 -0.3109  0.3328  0.4003
 2314SOL    HW113992   6.604   3.068   5.436 -0.7618  0.2627  1.0181
 2314SOL    HW213993   6.477   3.022   5.368 -0.5710  0.4821  0.5134
 2315SOL     OW13994   0.783   4.001   4.553 -0.8826  0.3108 -0.7871
 2315SOL    HW113995   0.772   4.095   4.535 -1.8166  0.4712  0.4453
 2315SOL    HW213996   0.828   3.999   4.638  1.1603 -0.3929 -1.8057
 2316SOL     OW13997   5.658   2.213   9.605 -0.4833  0.1081  0.5066
 2316SOL    HW113998   5.714   2.165   9.545  0.7071  1.4174  0.5115
 2316SOL    HW213999   5.570   2.203   9.569  0.0406 -0.1808 -0.7404
 2317SOL     OW14000   7.124   7.114  12.329 -0.2038 -0.1275 -0.5451
 2317SOL    HW114001   7.030   7.108  12.345 -0.5323 -0.6619 -2.4387
 2317SOL    HW214002   7.141   7.050  12.259  1.5603 -0.0318 -0.2522
 2318SOL     OW14003   7.409   1.530   1.124 -0.0374  0.9592 -0.4019
 2318SOL    HW114004   7.410   1.483   1.041 -1.4822 -0.4249  0.2885
 2318SOL    HW214005   7.497   1.520   1.159 -0.2471 -1.2426 -0.3368
 2319SOL     OW14006   4.682   2.143   2.749  0.8035 -0.2031 -0.1915
 2319SOL    HW114007   4.645   2.130   2.661  2.3948 -0.4600 -0.8463
 2319SOL    HW214008   4.614   2.109   2.808 -0.3827  0.1647 -1.2885
 2320SOL     OW14009  11.607  10.521   2.456 -0.0262 -0.3286 -0.3413
 2320SOL    HW114010  11.658  10.442   2.442 -0.4074 -0.7121  0.3764
 2320SOL    HW214011  11.619  10.542   2.548  0.7039  0.9104 -0.6913
 2321SOL     OW14012   0.836   2.756   1.391 -0.3145  0.0296 -0.0487
 2321SOL    HW114013   0.743   2.777   1.378 -0.0365  0.4924 -1.6408
 2321SOL    HW214014   0.880   2.804   1.321  1.0232 -1.0153  0.0433
 2322SOL     OW14015   5.238   8.386   9.783  0.5663 -0.5603  0.2082
 2322SOL    HW114016   5.325   8.409   9.752  0.9410 -0.7889  1.0571
 2322SOL    HW214017   5.178   8.425   9.719  1.2433  0.9688  0.4636
 2323SOL     OW14018  10.715   0.629  11.745 -0.0069  0.5556  0.6089
 2323SOL    HW114019  10.753   0.694  11.686  0.4955 -1.5803 -1.6047
 2323SOL    HW214020  10.733   0.662  11.833  0.1872  3.3532 -0.3797
 2324SOL     OW14021   4.311  11.657   1.211  0.1035 -0.4963  0.0789
 2324SOL    HW114022   4.316  11.744   1.172  0.8646 -0.3664  0.4694
 2324SOL    HW214023   4.366  11.661   1.289 -1.0932 -0.8687  0.9810
 2325SOL     OW14024   1.225   9.778   0.288 -0.3667  0.5271  0.0851
 2325SOL    HW114025   1.182   9.820   0.362 -0.6725  0.3492  0.0079
 2325SOL    HW214026   1.225   9.685   0.309  0.5837  0.5855  0.3992
 2326SOL     OW14027   8.517   3.583  11.991 -0.2859 -0.5151  1.0893
 2326SOL    HW114028   8.553   3.496  12.006 -1.4182 -1.1672  0.2518
 2326SOL    HW214029   8.483   3.579  11.901  3.0025  1.9971 -0.5033
 2327SOL     OW14030  12.031   5.334   2.825  0.6020  0.4635  0.3050
 2327SOL    HW114031  12.096   5.265   2.840  0.3500  0.3495  0.8978
 2327SOL    HW214032  12.034   5.388   2.903 -2.2804 -1.4123  1.9237
 2328SOL     OW14033  12.274   3.403   5.977 -0.2159 -0.0077  0.4592
 2328SOL    HW114034  12.201   3.464   5.989 -1.3885 -1.3851  0.6266
 2328SOL    HW214035  12.287   3.400   5.882 -0.7780 -0.1918  0.3846
 2329SOL     OW14036  10.433  10.628   8.327 -0.2581 -0.3539 -0.1170
 2329SOL    HW114037  10.394  10.623   8.240 -0.9847  1.7317  0.0247
 2329SOL    HW214038  10.372  10.683   8.377  0.6527 -0.6871  1.4156
 2330SOL     OW14039   9.753  12.567  11.016  0.6193 -0.4685 -0.1089
 2330SOL    HW114040   9.747  12.658  11.043 -1.6507 -0.5953 -0.0189
 2330SOL    HW214041   9.805  12.568  10.936  0.3083  0.9339 -0.3035
 2331SOL     OW14042   1.270  10.764  11.907  1.0771 -0.1736 -0.1063
 2331SOL    HW114043   1.306  10.818  11.977  0.4564 -0.9649  0.8367
 2331SOL    HW214044   1.291  10.813  11.827  0.3277  1.5782  0.7133
 2332SOL     OW14045   1.416   4.703   6.440 -0.2620 -0.0734  0.4256
 2332SOL    HW114046   1.355   4.670   6.374  0.5283  0.1801 -0.4580
 2332SOL    HW214047   1.422   4.633   6.505 -1.4079 -0.1397  0.4794
 2333SOL     OW14048   9.238  12.040  10.697 -0.4349  0.3902  0.7438
 2333SOL    HW114049   9.224  11.945  10.702  0.0185  0.2965  0.3752
 2333SOL    HW214050   9.325  12.053  10.736  0.1864  0.4509 -0.5970
 2334SOL     OW14051   0.799  12.354  12.462 -0.3041 -0.0164 -0.1010
 2334SOL    HW114052   0.712  12.351  12.422  0.0364 -0.5636 -0.8032
 2334SOL    HW214053   0.855  12.395  12.396  0.6374 -2.4839 -0.9518
 2335SOL     OW14054   9.291   8.560   9.426  0.2665  0.3653  0.5426
 2335SOL    HW114055   9.316   8.498   9.494 -1.3507 -0.9528  0.0200
 2335SOL    HW214056   9.275   8.642   9.472 -0.9458 -0.5428  1.8032
 2336SOL     OW14057   8.199  12.490   5.495 -0.0810 -0.1448 -0.4780
 2336SOL    HW114058   8.165  12.567   5.450 -0.0664  0.0401 -0.1764
 2336SOL    HW214059   8.175  12.416   5.439 -0.0455  0.0833 -0.7973
 2337SOL     OW14060   5.658   7.355  11.973  0.3872 -0.5229  0.0759
 2337SOL    HW114061   5.635   7.389  11.887 -1.7477 -0.5650  0.5912
 2337SOL    HW214062   5.646   7.429  12.032  1.9732 -0.4551  0.3540
 2338SOL     OW14063   0.492   8.365   7.253 -0.0593 -0.2798  0.3994
 2338SOL    HW114064   0.563   8.312   7.288  1.2592  1.2991  0.2620
 2338SOL    HW214065   0.434   8.380   7.328  1.5055  1.1216  1.3901
 2339SOL     OW14066   4.846  12.159   9.660 -0.3046 -0.2795 -0.5443
 2339SOL    HW114067   4.882  12.071   9.647  1.0476  0.4132 -1.6853
 2339SOL    HW214068   4.871  12.207   9.582  0.1792  1.5147  0.6538
 2340SOL     OW14069   6.751  10.073   9.940 -0.5637  0.3405 -0.4031
 2340SOL    HW114070   6.799  10.139   9.890 -0.5681 -0.6236 -1.7651
 2340SOL    HW214071   6.818  10.020   9.981 -0.5236  0.4384 -0.3426
 2341SOL     OW14072  11.860   9.872   5.525 -0.1799  0.0242  0.9094
 2341SOL    HW114073  11.950   9.858   5.554  0.5929 -0.9150 -1.6751
 2341SOL    HW214074  11.867   9.936   5.454 -1.6406  0.3626  1.0361
 2342SOL     OW14075   1.737   9.898   9.161 -0.3261  0.5137  0.6317
 2342SOL    HW114076   1.813   9.946   9.129  0.9561 -0.7709  1.6361
 2342SOL    HW214077   1.752   9.808   9.132 -1.4015  0.2111  0.9653
 2343SOL     OW14078  10.715   9.905   4.679  0.4593  0.7853 -0.5199
 2343SOL    HW114079  10.695   9.815   4.706 -0.6819  1.6069  1.5328
 2343SOL    HW214080  10.692   9.907   4.586  0.9187 -1.1477 -0.7208
 2344SOL     OW14081   0.533   0.325   2.662 -0.1178  0.1860  0.0149
 2344SOL    HW114082   0.602   0.381   2.698  1.0393 -1.7837  1.0422
 2344SOL    HW214083   0.566   0.298   2.576 -0.7870  1.2247 -0.5880
 2345SOL     OW14084   9.848   6.722   3.864 -0.0934  0.4677  0.3608
 2345SOL    HW114085   9.785   6.677   3.921  0.8574  0.3686  1.3656
 2345SOL    HW214086   9.833   6.683   3.778 -1.9486  1.0180  0.3871
 2346SOL     OW14087   2.059  11.679   2.144 -0.4875 -0.6733 -0.3295
 2346SOL    HW114088   2.022  11.755   2.190 -1.5107  0.0990 -2.3236
 2346SOL    HW214089   2.025  11.686   2.055  0.5860 -2.6917 -0.9503
 2347SOL     OW14090   0.383   4.923   3.572  0.4672 -0.2045 -0.0045
 2347SOL    HW114091   0.308   4.892   3.622  0.3338  0.3740  0.1601
 2347SOL    HW214092   0.453   4.860   3.592  1.0975  1.2119  2.7003
 2348SOL     OW14093   7.002   2.008   4.600  0.0492 -0.0446  0.2882
 2348SOL    HW114094   6.999   2.082   4.539  2.1385 -0.3256 -0.2283
 2348SOL    HW214095   7.021   1.932   4.545  0.2422 -0.5843  1.0785
 2349SOL     OW14096   4.394   7.242   0.829 -0.2484  0.8295 -0.0723
 2349SOL    HW114097   4.364   7.315   0.883 -0.2108  0.6085  0.2458
 2349SOL    HW214098   4.336   7.170   0.852  0.0494  0.6122 -0.0043
 2350SOL     OW14099   6.454   9.638   8.317 -0.2839  0.0435 -0.1658
 2350SOL    HW114100   6.370   9.679   8.296 -0.2365 -0.0121 -0.4641
 2350SOL    HW214101   6.483   9.599   8.235  1.2797  2.2799 -0.7694
 2351SOL     OW14102   5.461  11.048   1.830 -0.7719  0.1249  0.0126
 2351SOL    HW114103   5.499  10.995   1.900 -0.0306  0.0099 -0.4675
 2351SOL    HW214104   5.367  11.050   1.850 -0.4418  1.0107  1.6280
 2352SOL     OW14105   1.362  10.904   1.998 -0.4586  0.5789 -0.0253
 2352SOL    HW114106   1.369  10.818   1.956  0.2123  0.1694  0.8895
 2352SOL    HW214107   1.452  10.936   2.004 -0.4976  0.5134  1.2935
 2353SOL     OW14108   2.212   6.531   3.880 -0.1789 -0.1591 -0.2719
 2353SOL    HW114109   2.214   6.489   3.794  1.5611 -0.8811  0.0840
 2353SOL    HW214110   2.270   6.607   3.871 -0.3345  0.0082  0.1376
 2354SOL     OW14111  10.082  12.416   6.228  0.2457 -0.4232 -0.1253
 2354SOL    HW114112  10.110  12.345   6.286 -0.5648 -0.1099  0.6733
 2354SOL    HW214113  10.007  12.456   6.273  1.4744  1.7909  0.0657
 2355SOL     OW14114  10.539  11.147   2.442  0.0234 -0.5239  0.5261
 2355SOL    HW114115  10.631  11.156   2.417  0.0425 -0.6439  0.5512
 2355SOL    HW214116  10.541  11.125   2.535 -0.1072  2.1681  1.2423
 2356SOL     OW14117   7.234   7.705  11.634  0.0161 -0.0651  0.8288
 2356SOL    HW114118   7.251   7.755  11.713 -2.7269 -0.4632  1.7679
 2356SOL    HW214119   7.311   7.649  11.624  0.9910  0.9173  2.4603
 2357SOL     OW14120   0.181   5.380   5.212 -0.1760  0.0421 -0.1870
 2357SOL    HW114121   0.211   5.471   5.203  1.6901 -0.5331 -0.0641
 2357SOL    HW214122   0.251   5.336   5.259 -0.6018 -1.6992 -1.0962
 2358SOL     OW14123  11.563   7.482   2.577  0.0716  0.0404 -0.1969
 2358SOL    HW114124  11.594   7.510   2.663  2.4316 -0.8560 -0.6794
 2358SOL    HW214125  11.604   7.543   2.516  0.7984 -1.0915 -0.8615
 2359SOL     OW14126   7.700   9.292   8.340 -0.4410 -0.0774  0.4677
 2359SOL    HW114127   7.771   9.263   8.397 -1.5868 -3.9544  0.2250
 2359SOL    HW214128   7.739   9.358   8.283  2.7480 -1.5421  0.7735
 2360SOL     OW14129   0.830   0.898  11.565 -0.1907 -0.8362  0.6847
 2360SOL    HW114130   0.912   0.945  11.549 -0.2442 -1.3781 -1.4543
 2360SOL    HW214131   0.817   0.904  11.660  2.0809 -0.3633  1.0174
 2361SOL     OW14132   7.295   7.600   1.263 -0.0834  0.0090  0.1387
 2361SOL    HW114133   7.214   7.593   1.213 -0.5350  1.1179  0.6763
 2361SOL    HW214134   7.267   7.605   1.354  0.3133  3.5210  0.1946
 2362SOL     OW14135   1.943   2.060   7.230  0.2730  0.6368 -0.2675
 2362SOL    HW114136   1.855   2.097   7.238  0.4118  1.0260 -0.5494
 2362SOL    HW214137   1.928   1.966   7.220 -0.1562  0.7954 -1.1934
 2363SOL     OW14138  10.952   5.016  11.677 -0.2607 -0.1823 -0.3205
 2363SOL    HW114139  11.029   5.071  11.660 -1.3003  1.0847 -1.1123
 2363SOL    HW214140  10.878   5.075  11.665 -1.3589 -1.3493  0.5706
 2364SOL     OW14141   6.189   2.213   8.463  0.0991 -0.7338  0.8746
 2364SOL    HW114142   6.279   2.182   8.475 -0.9515 -3.6261  2.0548
 2364SOL    HW214143   6.172   2.267   8.540  0.6976 -0.4042  0.7871
 2365SOL     OW14144   0.444   9.551  10.370 -0.1726 -0.3843 -0.2665
 2365SOL    HW114145   0.471   9.526  10.458  1.1738  0.2516 -0.4675
 2365SOL    HW214146   0.524   9.545  10.317  0.1336  3.3346 -0.5027
 2366SOL     OW14147   4.396   9.233   7.892 -0.3114  0.4457  0.4098
 2366SOL    HW114148   4.385   9.267   7.803  1.9387  0.8062  0.2140
 2366SOL    HW214149   4.359   9.300   7.949  0.0170  1.1444 -0.1828
 2367SOL     OW14150   1.954  11.559   1.061 -0.6731 -0.0890 -0.6315
 2367SOL    HW114151   2.010  11.608   1.001 -0.4640  0.1991 -0.2007
 2367SOL    HW214152   1.867  11.595   1.047 -0.4447  0.7484  0.0285
 2368SOL     OW14153   1.204   9.822  10.196 -0.5914 -0.3518  0.1723
 2368SOL    HW114154   1.221   9.912  10.226 -0.9844  0.7127 -2.4807
 2368SOL    HW214155   1.136   9.789  10.256 -0.1115  0.9296  1.4851
 2369SOL     OW14156  12.459  11.031   4.247 -0.0865 -0.1319 -0.2717
 2369SOL    HW114157  12.405  10.993   4.317  0.0034  3.4272  1.9798
 2369SOL    HW214158  12.481  10.956   4.191 -3.3582 -2.5558  1.3165
 2370SOL     OW14159   8.529   8.512   1.564  0.0158 -0.4488  0.3474
 2370SOL    HW114160   8.462   8.499   1.497 -0.0230  0.9738  0.0859
 2370SOL    HW214161   8.492   8.578   1.622  0.7919 -0.3592  0.7485
 2371SOL     OW14162   4.265   0.394   5.870 -0.1579 -0.0837  0.0490
 2371SOL    HW114163   4.327   0.395   5.942 -0.2593  0.3162  0.1354
 2371SOL    HW214164   4.298   0.460   5.809 -0.8581  0.6167  0.4114
 2372SOL     OW14165   4.259  12.511   8.326 -0.3176 -1.1080 -0.1909
 2372SOL    HW114166   4.275  12.595   8.281  1.1107 -0.4558  1.4377
 2372SOL    HW214167   4.163  12.504   8.330 -0.4642  0.2308 -0.7246
 2373SOL     OW14168   0.407   9.558   2.082  0.1824  0.0689  0.1949
 2373SOL    HW114169   0.446   9.595   2.003  1.3246  0.5758  0.9728
 2373SOL    HW214170   0.330   9.612   2.098 -0.1651 -0.1515 -0.6521
 2374SOL     OW14171   8.693   6.175   7.856  0.6873 -1.0493  0.7587
 2374SOL    HW114172   8.638   6.145   7.784  1.1246 -1.4021  0.5683
 2374SOL    HW214173   8.662   6.127   7.932 -0.4590  0.0630  1.0418
 2375SOL     OW14174   3.724  10.063   4.581  0.2246  0.0442  0.2767
 2375SOL    HW114175   3.805  10.043   4.533  0.3029  1.6819 -0.3267
 2375SOL    HW214176   3.660  10.002   4.544  0.9851 -0.7413  0.2041
 2376SOL     OW14177   2.478   3.028  10.030  0.2126  0.4565 -0.2972
 2376SOL    HW114178   2.546   2.991  10.087 -0.2257 -1.1556 -0.7663
 2376SOL    HW214179   2.446   2.953   9.980 -1.7596  1.2189 -0.2503
 2377SOL     OW14180   9.849   4.629   0.516 -0.4129  0.1599  0.9104
 2377SOL    HW114181   9.853   4.548   0.464 -1.9973 -0.2660  1.3942
 2377SOL    HW214182   9.938   4.639   0.551 -0.1376 -1.2804  0.6992
 2378SOL     OW14183   7.084  12.035   6.129 -0.0327  0.2768 -0.3772
 2378SOL    HW114184   7.045  12.098   6.068 -0.3344  0.4817  0.0223
 2378SOL    HW214185   7.098  11.956   6.077 -1.2144  0.1165 -0.4662
 2379SOL     OW14186   2.656   6.810   3.290  0.3654  0.0650 -0.1406
 2379SOL    HW114187   2.621   6.721   3.285 -0.7882  0.4160  1.0106
 2379SOL    HW214188   2.710   6.819   3.211  0.7802 -1.7496 -0.1153
 2380SOL     OW14189   2.340   9.734   0.872 -0.2784 -0.5046 -0.5047
 2380SOL    HW114190   2.421   9.683   0.874  0.6767  0.9335 -0.4446
 2380SOL    HW214191   2.367   9.819   0.836 -1.5496  0.3443  0.4656
 2381SOL     OW14192  12.372   2.306   4.140  0.0472 -0.0052  0.1790
 2381SOL    HW114193  12.283   2.273   4.140 -0.6067  1.6839 -0.1480
 2381SOL    HW214194  12.366   2.393   4.179  1.4096  0.4574 -0.5637
 2382SOL     OW14195   0.229   8.895   9.430  0.5543 -0.1126  0.1679
 2382SOL    HW114196   0.272   8.897   9.344  2.1037  0.8312  0.9143
 2382SOL    HW214197   0.162   8.963   9.424  1.1958  0.5186 -0.0587
 2383SOL     OW14198   3.441   9.418  11.743 -0.1656 -0.0720 -0.3711
 2383SOL    HW114199   3.454   9.490  11.681  1.0989  1.0731  1.1472
 2383SOL    HW214200   3.516   9.360  11.730 -0.9149 -0.8778 -1.2328
 2384SOL     OW14201  11.449   5.132   2.413  0.2748 -0.0210 -0.2047
 2384SOL    HW114202  11.422   5.124   2.504 -0.8691  0.4843 -0.4723
 2384SOL    HW214203  11.519   5.198   2.414  0.1682  0.0893  0.2872
 2385SOL     OW14204  11.365   0.089   6.980 -0.4865  0.0477  0.9520
 2385SOL    HW114205  11.309   0.063   6.907 -1.2941 -1.3927  2.0414
 2385SOL    HW214206  11.304   0.125   7.044  0.3841  3.0215  0.2890
 2386SOL     OW14207   2.169   5.016   6.064  0.0708 -0.5897  0.5714
 2386SOL    HW114208   2.166   4.927   6.029  0.5239  0.1947 -1.6062
 2386SOL    HW214209   2.097   5.061   6.019  1.7322  0.8946 -0.7443
 2387SOL     OW14210  10.796   0.704   9.450  0.3752  0.4835  0.3033
 2387SOL    HW114211  10.879   0.724   9.493  0.3683 -1.5421  1.3617
 2387SOL    HW214212  10.758   0.790   9.430  1.3660  1.4884  2.4501
 2388SOL     OW14213   3.754   9.829  10.140 -0.4029  0.7160 -0.0855
 2388SOL    HW114214   3.802   9.833  10.223 -1.3715 -0.6018  0.5732
 2388SOL    HW214215   3.662   9.829  10.165 -0.7201 -1.8922 -0.9828
 2389SOL     OW14216   5.517   1.460   9.129  0.2594 -0.7538  0.5007
 2389SOL    HW114217   5.437   1.490   9.171  0.5882  0.6414  0.1598
 2389SOL    HW214218   5.487   1.419   9.047 -0.0387  1.2893 -0.4752
 2390SOL     OW14219   2.168   0.001   0.946  0.1599 -0.2333 -0.3687
 2390SOL    HW114220   2.128   0.037   0.867 -0.8143 -0.8034 -0.1517
 2390SOL    HW214221   2.168  -0.094   0.932  1.7610 -0.2338 -0.5001
 2391SOL     OW14222   5.676   1.065   1.397  0.2268  0.3435 -0.5107
 2391SOL    HW114223   5.653   1.118   1.321 -0.8229  1.4008  0.5113
 2391SOL    HW214224   5.683   0.976   1.362  0.8057  0.9371 -2.0198
 2392SOL     OW14225   4.382   0.165   8.896 -0.0648  0.2975  0.6322
 2392SOL    HW114226   4.299   0.207   8.872 -0.9036 -0.2637  2.3403
 2392SOL    HW214227   4.446   0.201   8.836 -2.1772 -2.1836 -3.5931
 2393SOL     OW14228   3.577   0.043   3.176  0.2525 -0.7806 -0.2242
 2393SOL    HW114229   3.602  -0.048   3.158  0.0956 -1.0330  0.7403
 2393SOL    HW214230   3.561   0.045   3.271  2.5911  0.8082  0.2155
 2394SOL     OW14231   2.436  11.000   5.150 -0.5034 -0.0536  0.7186
 2394SOL    HW114232   2.457  10.908   5.132  0.2399  0.1463  0.5027
 2394SOL    HW214233   2.522  11.042   5.159 -0.7751  0.0924  3.7266
 2395SOL     OW14234   2.317  11.432   2.288 -0.3214 -0.1447 -0.0131
 2395SOL    HW114235   2.232  11.413   2.327  0.1646  1.0234  1.7327
 2395SOL    HW214236   2.300  11.504   2.227 -0.7935 -0.8672 -0.7667
 2396SOL     OW14237   0.466   4.185   1.322 -1.2696  1.1584  0.2233
 2396SOL    HW114238   0.385   4.175   1.372 -0.8808  0.9005  0.8154
 2396SOL    HW214239   0.448   4.141   1.239 -1.3237 -0.0028  0.8297
 2397SOL     OW14240   7.035  10.914  11.347 -0.5125  0.0474 -0.0980
 2397SOL    HW114241   7.053  10.954  11.262  0.4286 -2.0423 -0.9405
 2397SOL    HW214242   6.940  10.920  11.357 -0.6832 -0.0143 -1.4820
 2398SOL     OW14243  11.666  11.208  10.073  0.7262  0.6518 -0.4400
 2398SOL    HW114244  11.644  11.295  10.038  0.4584  0.3916 -0.9312
 2398SOL    HW214245  11.585  11.178  10.114  1.6274  1.9264  2.5529
 2399SOL     OW14246   8.586  10.717   8.787  0.6526 -0.6412 -0.5671
 2399SOL    HW114247   8.526  10.681   8.852  0.9695 -1.0122 -0.4726
 2399SOL    HW214248   8.670  10.674   8.807  1.3597  1.0926  0.3704
 2400SOL     OW14249   2.507  11.101   1.017  0.5771 -0.2073  0.0660
 2400SOL    HW114250   2.536  11.010   1.006 -0.4652 -0.6084  0.5229
 2400SOL    HW214251   2.525  11.142   0.932  2.1551 -0.5093  0.2262
 2401SOL     OW14252  11.362   4.485   3.015  0.1017 -0.1270  0.4506
 2401SOL    HW114253  11.298   4.532   2.960 -0.5367 -0.6303  0.7425
 2401SOL    HW214254  11.418   4.553   3.051  0.5320  0.2216 -0.8146
 2402SOL     OW14255   6.926   1.981   8.247  0.0833  0.4595 -0.6351
 2402SOL    HW114256   6.993   1.921   8.280 -0.4499 -0.1177 -0.5969
 2402SOL    HW214257   6.976   2.051   8.204  0.7141  0.0922 -0.5139
 2403SOL     OW14258   0.914   3.665   0.828  0.5236  0.1977 -0.1212
 2403SOL    HW114259   0.848   3.714   0.877 -2.1110 -2.1859 -1.0614
 2403SOL    HW214260   0.980   3.642   0.893 -1.6557 -0.8065  1.8676
 2404SOL     OW14261  10.563  12.359   7.448  0.1472  0.0333 -0.1796
 2404SOL    HW114262  10.628  12.344   7.380 -0.4258  0.4651 -0.8388
 2404SOL    HW214263  10.612  12.356   7.530  0.9718  0.2215 -0.6594
 2405SOL     OW14264  12.209   2.960  11.894  0.0325 -0.1122  0.2079
 2405SOL    HW114265  12.254   2.985  11.975  0.6142  0.5960 -0.3161
 2405SOL    HW214266  12.278   2.929  11.836 -0.1749  0.6686 -0.4885
 2406SOL     OW14267   0.489   9.440   2.506 -0.4335 -0.4103  0.0823
 2406SOL    HW114268   0.549   9.400   2.568  0.6367  0.8980 -0.0694
 2406SOL    HW214269   0.520   9.410   2.420  1.7638  2.2915 -0.2253
 2407SOL     OW14270   7.157   8.370   6.980  0.8916 -0.3098  0.1103
 2407SOL    HW114271   7.147   8.276   6.968  0.9578 -0.3614  0.4418
 2407SOL    HW214272   7.239   8.392   6.935  1.4966 -0.6161  1.0349
 2408SOL     OW14273   0.955   8.552   4.823 -0.2910  0.4314  0.3298
 2408SOL    HW114274   1.038   8.571   4.867 -0.7910 -2.7393  3.0334
 2408SOL    HW214275   0.897   8.625   4.848  0.6199  0.7607  1.5537
 2409SOL     OW14276   0.605   7.007   6.152  0.0650 -0.0772 -0.4504
 2409SOL    HW114277   0.694   7.020   6.118  0.4294  1.2201  0.8810
 2409SOL    HW214278   0.585   7.089   6.197 -0.7733 -1.2823  1.5142
 2410SOL     OW14279   5.184  10.676   8.711 -0.3582  0.4857  0.2572
 2410SOL    HW114280   5.267  10.707   8.748 -0.0561 -0.7144  0.6244
 2410SOL    HW214281   5.154  10.748   8.656  1.1353  0.7942 -0.2043
 2411SOL     OW14282   5.688  11.914   7.992  0.2966 -0.9125  0.0426
 2411SOL    HW114283   5.771  11.947   8.026  0.9666 -0.4226 -1.9051
 2411SOL    HW214284   5.702  11.909   7.897 -2.1700 -0.0677 -0.4169
 2412SOL     OW14285   6.189   0.572   2.910  0.5895 -0.6418  0.8190
 2412SOL    HW114286   6.239   0.595   2.988 -1.6710  1.2788  1.8396
 2412SOL    HW214287   6.142   0.492   2.935  0.5978 -0.5668  1.0795
 2413SOL     OW14288  10.396   9.387   6.852 -0.7096  0.2742  0.2135
 2413SOL    HW114289  10.409   9.293   6.857  2.1813  0.4878 -1.5371
 2413SOL    HW214290  10.405   9.417   6.942 -1.0564 -1.0203  0.7021
 2414SOL     OW14291   8.524   5.705   2.959 -0.7924  0.3070 -0.4184
 2414SOL    HW114292   8.465   5.780   2.959 -1.9628 -0.5913 -0.5035
 2414SOL    HW214293   8.574   5.714   2.878 -0.3646  1.3965 -0.0562
 2415SOL     OW14294   6.039   5.143   5.764  0.0849  0.7224 -0.3957
 2415SOL    HW114295   6.014   5.052   5.782 -0.4254  0.2413 -3.1326
 2415SOL    HW214296   6.007   5.192   5.840  0.8374 -1.4143  1.4016
 2416SOL     OW14297   6.564   0.306   5.006  0.0524  0.3289  0.8191
 2416SOL    HW114298   6.631   0.371   4.984 -0.1011  0.1621 -0.2080
 2416SOL    HW214299   6.612   0.223   5.011  0.0184  0.2975  0.6440
 2417SOL     OW14300   5.794  11.371   9.564  0.1778 -0.7002  0.1859
 2417SOL    HW114301   5.809  11.317   9.642 -2.1053  0.8918  1.8627
 2417SOL    HW214302   5.823  11.458   9.589 -0.8360 -0.1003 -0.6611
 2418SOL     OW14303   1.937   0.459   1.465  0.3866 -0.0882  0.5713
 2418SOL    HW114304   2.010   0.496   1.416  0.5932  0.8498  1.5613
 2418SOL    HW214305   1.917   0.377   1.419  0.1359  1.0337 -1.4782
 2419SOL     OW14306   8.718   8.011   6.928  0.0791  0.7021  0.2933
 2419SOL    HW114307   8.723   7.995   6.833 -0.2598  1.3348  0.1607
 2419SOL    HW214308   8.807   7.997   6.959  0.1538  0.2908 -0.0889
 2420SOL     OW14309   9.434   3.146   8.848 -0.1733  0.1186 -0.6252
 2420SOL    HW114310   9.379   3.153   8.926  0.3399 -0.0523 -0.2472
 2420SOL    HW214311   9.424   3.054   8.820  4.0796 -1.6225  2.5778
 2421SOL     OW14312   2.009   1.704   4.659 -0.1208  0.4758  0.3749
 2421SOL    HW114313   1.930   1.681   4.707 -0.5929 -0.1710 -0.6721
 2421SOL    HW214314   1.981   1.768   4.595  0.2023  0.2580  0.0092
 2422SOL     OW14315   9.256   2.900   8.293 -0.4504  0.2955 -0.2652
 2422SOL    HW114316   9.328   2.877   8.236 -0.1014 -1.1001  0.6816
 2422SOL    HW214317   9.180   2.909   8.235 -0.9168 -4.4604 -0.7990
 2423SOL     OW14318   3.714  11.674   1.975 -0.0358  0.0763 -0.1938
 2423SOL    HW114319   3.724  11.761   1.937 -0.2198  0.8281  1.3949
 2423SOL    HW214320   3.673  11.622   1.907 -1.4553  1.6855 -0.6149
 2424SOL     OW14321  12.550   4.132   4.287  0.4652 -0.6736 -0.2689
 2424SOL    HW114322  12.565   4.161   4.377  1.3475  0.4886 -0.7636
 2424SOL    HW214323  12.561   4.036   4.290  0.2630 -0.6680  0.8934
 2425SOL     OW14324   6.523   8.380   9.281  0.2283 -0.6495 -0.4214
 2425SOL    HW114325   6.550   8.348   9.367 -1.4745 -0.5098  0.2149
 2425SOL    HW214326   6.428   8.387   9.288 -0.0204 -1.3118 -2.5552
 2426SOL     OW14327  10.863   9.748   5.701 -0.2700  0.0559  0.0343
 2426SOL    HW114328  10.903   9.689   5.637  1.6679  1.0293  0.2571
 2426SOL    HW214329  10.867   9.701   5.784  0.5336  0.1750  0.0688
 2427SOL     OW14330   1.685   7.722   4.238 -0.4530 -0.0281 -0.0696
 2427SOL    HW114331   1.661   7.814   4.225  1.3113  0.2708 -1.6331
 2427SOL    HW214332   1.668   7.706   4.331 -1.8303  1.5375 -0.0008
 2428SOL     OW14333   5.849   5.362  11.030 -0.4409  0.2466  0.5688
 2428SOL    HW114334   5.839   5.284  11.084 -0.1658 -1.1678 -1.3060
 2428SOL    HW214335   5.937   5.356  10.994 -1.6149 -0.6432 -2.5185
 2429SOL     OW14336  12.456   0.750   1.774 -0.3900  0.2888 -0.5882
 2429SOL    HW114337  12.368   0.711   1.774 -0.0434 -0.4925 -0.8312
 2429SOL    HW214338  12.443   0.835   1.731 -1.2961  0.8259  0.6585
 2430SOL     OW14339  10.325   5.385   4.518  0.1536 -0.2802  0.4227
 2430SOL    HW114340  10.267   5.423   4.585  1.3593  0.6959  0.9455
 2430SOL    HW214341  10.396   5.345   4.567  0.5476 -0.4070 -0.2387
 2431SOL     OW14342   7.121   2.235   9.397 -0.1993  0.0860  0.5684
 2431SOL    HW114343   7.123   2.330   9.404  0.4306  0.0230  1.5501
 2431SOL    HW214344   7.154   2.216   9.309  3.3642  0.6975  1.6181
 2432SOL     OW14345  11.166   0.146  10.285 -0.5850  0.2930 -0.5909
 2432SOL    HW114346  11.075   0.126  10.263 -0.3661  0.0082 -1.2590
 2432SOL    HW214347  11.211   0.062  10.277 -0.3150  0.3718  0.0327
 2433SOL     OW14348   9.700   9.089   1.487 -0.1642  0.4059 -0.1238
 2433SOL    HW114349   9.735   9.166   1.442  2.0342 -0.2113  0.4121
 2433SOL    HW214350   9.717   9.106   1.580  1.6091 -1.2556 -0.0893
 2434SOL     OW14351   0.740   5.077   9.529 -0.7217 -0.1823  0.4061
 2434SOL    HW114352   0.693   5.086   9.612  0.1709 -0.9224  1.0156
 2434SOL    HW214353   0.832   5.084   9.554 -0.4028 -1.4026 -0.3919
 2435SOL     OW14354   1.169   4.984  10.372 -0.2728 -0.1353 -0.1827
 2435SOL    HW114355   1.125   4.900  10.359 -1.2095  0.4058 -0.5985
 2435SOL    HW214356   1.159   5.030  10.289 -1.6017  1.2167  0.6736
 2436SOL     OW14357   7.298   4.767  12.154  0.1838 -0.5236 -0.5789
 2436SOL    HW114358   7.270   4.805  12.237 -1.3681  2.7786 -2.4190
 2436SOL    HW214359   7.394   4.760  12.162  0.0325 -0.8555  1.6142
 2437SOL     OW14360   2.129   9.265  10.359 -0.1199  0.3424  0.3803
 2437SOL    HW114361   2.078   9.280  10.438 -1.8185 -1.2644 -0.3280
 2437SOL    HW214362   2.080   9.309  10.289  0.9283  1.0598  0.0662
 2438SOL     OW14363   3.206   0.341   5.376 -0.0210  0.0549  0.3558
 2438SOL    HW114364   3.187   0.435   5.372 -0.2903  0.0361  1.0908
 2438SOL    HW214365   3.198   0.319   5.469  0.4380 -0.6157  0.2436
 2439SOL     OW14366   9.009   0.176   6.248 -0.4597  0.2995  1.2409
 2439SOL    HW114367   9.037   0.222   6.327 -0.6146  0.7454  1.0418
 2439SOL    HW214368   8.913   0.169   6.257 -0.5289  0.7705  0.8717
 2440SOL     OW14369   2.193   4.627   7.826 -0.6035 -0.1095  0.0808
 2440SOL    HW114370   2.135   4.610   7.900  0.1776 -3.7503  0.0070
 2440SOL    HW214371   2.257   4.691   7.859 -0.2587 -1.6579  2.5905
 2441SOL     OW14372   2.790   4.541   5.103 -0.5196  0.2251 -0.0788
 2441SOL    HW114373   2.732   4.616   5.097 -1.6165 -0.3767  1.9244
 2441SOL    HW214374   2.838   4.554   5.185  0.6274 -0.3625 -0.6232
 2442SOL     OW14375   1.946   0.048   2.651  0.4667  0.4531  0.1468
 2442SOL    HW114376   1.961  -0.041   2.682 -0.5208 -0.7541 -2.6044
 2442SOL    HW214377   2.032   0.090   2.660  1.4296 -1.3279 -0.1340
 2443SOL     OW14378  11.338   3.490   1.092 -0.4688 -0.2778  0.4924
 2443SOL    HW114379  11.381   3.534   1.018 -2.5562 -0.3278 -0.8556
 2443SOL    HW214380  11.365   3.399   1.085 -2.3198 -0.7863 -1.6995
 2444SOL     OW14381  11.209   2.182   8.461 -0.2788  0.6499  0.3476
 2444SOL    HW114382  11.236   2.274   8.461  0.0272  0.5715  1.1540
 2444SOL    HW214383  11.212   2.156   8.370  0.9625  1.0558  0.2581
 2445SOL     OW14384   2.555   4.249   9.330  0.2903  0.6707  0.0797
 2445SOL    HW114385   2.570   4.260   9.423  0.1524 -0.8959  0.3217
 2445SOL    HW214386   2.606   4.318   9.288 -0.6621  2.2187  1.3427
 2446SOL     OW14387  10.657   6.207   6.244  0.0948 -0.3070  0.5413
 2446SOL    HW114388  10.670   6.210   6.149  0.0504 -0.8090  0.5180
 2446SOL    HW214389  10.706   6.282   6.277  0.9563 -0.7163  0.2122
 2447SOL     OW14390   9.506   1.906   6.011  0.0956 -0.1745 -0.2619
 2447SOL    HW114391   9.518   1.916   6.106 -1.2911 -1.9085  0.1698
 2447SOL    HW214392   9.465   1.988   5.983  1.6601  0.8644  0.3784
 2448SOL     OW14393   6.973   1.596   0.969 -0.4498  0.1201 -0.1070
 2448SOL    HW114394   6.909   1.593   1.040  0.6557 -0.0445  0.9279
 2448SOL    HW214395   6.930   1.553   0.895 -1.2193 -0.7576  0.8223
 2449SOL     OW14396  12.578   6.944   5.821 -0.6320 -0.1173 -0.6856
 2449SOL    HW114397  12.635   6.964   5.895 -1.8986 -0.9402  0.5377
 2449SOL    HW214398  12.635   6.952   5.744  1.1339 -0.9623  0.4915
 2450SOL     OW14399   5.495   4.328  11.039 -0.3589  0.1486  0.0434
 2450SOL    HW114400   5.505   4.234  11.026  1.5227  0.1863  0.8944
 2450SOL    HW214401   5.538   4.346  11.122 -1.0126  1.7210  0.0803
 2451SOL     OW14402   1.080  11.709   8.589 -0.0786 -0.4184  0.2611
 2451SOL    HW114403   1.120  11.783   8.635  0.3811 -1.0259  0.8503
 2451SOL    HW214404   1.040  11.748   8.511 -2.2257  0.8915  1.9041
 2452SOL     OW14405  10.650   9.710   3.458 -0.0856  0.0856  0.4224
 2452SOL    HW114406  10.668   9.785   3.515  1.2708 -0.1508  0.3398
 2452SOL    HW214407  10.568   9.732   3.415  0.1197  1.3784  0.6454
 2453SOL     OW14408   1.019   9.405   6.382 -0.4004  0.6854 -0.2865
 2453SOL    HW114409   1.025   9.413   6.477 -1.4863 -3.1716  0.2492
 2453SOL    HW214410   1.109   9.387   6.354  0.0043  2.2848 -0.1328
 2454SOL     OW14411   4.735   9.553   7.716 -0.0293 -0.1635  0.2547
 2454SOL    HW114412   4.685   9.560   7.798  1.0432  0.6273  0.8635
 2454SOL    HW214413   4.816   9.601   7.733  1.2623 -1.9981 -0.4849
 2455SOL     OW14414  10.865   3.577   2.898  0.2983  0.6606  0.4519
 2455SOL    HW114415  10.879   3.562   2.805  0.3628  1.7810  0.2685
 2455SOL    HW214416  10.953   3.588   2.935  0.1935  2.0818  0.3033
 2456SOL     OW14417   3.583   6.154   3.978 -0.5099 -0.5625 -0.4667
 2456SOL    HW114418   3.575   6.248   3.965 -0.4741 -0.4841  0.0908
 2456SOL    HW214419   3.644   6.126   3.909 -0.5736 -0.1955 -0.6784
 2457SOL     OW14420   6.259   7.501   2.276 -0.2020 -0.3072 -0.2192
 2457SOL    HW114421   6.322   7.570   2.297 -0.0882 -0.6052  0.4508
 2457SOL    HW214422   6.289   7.426   2.326  0.0208 -1.0278 -1.4109
 2458SOL     OW14423   7.119   8.150   1.072 -0.2566 -0.0173 -0.9604
 2458SOL    HW114424   7.207   8.136   1.105 -0.8643  1.8344  1.8094
 2458SOL    HW214425   7.122   8.234   1.027 -0.5961  0.0245 -0.9128
 2459SOL     OW14426   4.644   5.919  10.351  0.4305  0.1509 -0.0600
 2459SOL    HW114427   4.732   5.907  10.314  1.1867  1.6359  1.1335
 2459SOL    HW214428   4.588   5.933  10.274  1.7795  2.0916 -0.7865
 2460SOL     OW14429   4.678   6.523   2.700 -0.5782 -0.6515  0.5759
 2460SOL    HW114430   4.683   6.539   2.605 -1.1085  0.8351  0.7704
 2460SOL    HW214431   4.595   6.478   2.713 -1.0711  0.2129  0.4562
 2461SOL     OW14432   8.473   4.783   3.514  0.1993  0.1328  0.2883
 2461SOL    HW114433   8.431   4.777   3.601  1.3764  0.2322  0.8826
 2461SOL    HW214434   8.442   4.866   3.478 -0.2486  0.1220  0.6322
 2462SOL     OW14435  11.133   7.281  11.851 -0.8691 -0.0471 -0.2213
 2462SOL    HW114436  11.166   7.347  11.791 -1.0610 -0.5094 -0.8454
 2462SOL    HW214437  11.159   7.312  11.938 -0.8480  0.7780 -0.5160
 2463SOL     OW14438   1.084   9.229   5.828  0.1002 -0.0758  0.2658
 2463SOL    HW114439   1.055   9.320   5.820 -0.4824 -0.2835 -0.0849
 2463SOL    HW214440   1.034   9.195   5.902 -2.2803 -1.0523 -1.6437
 2464SOL     OW14441   5.718   7.445   6.726 -0.2425 -0.1415  0.4853
 2464SOL    HW114442   5.800   7.491   6.742  0.8487 -1.3193 -1.2877
 2464SOL    HW214443   5.701   7.459   6.633 -0.8969 -1.6806  0.3398
 2465SOL     OW14444  11.931   6.151   7.590  0.0997 -0.0062 -0.0231
 2465SOL    HW114445  11.913   6.057   7.599  2.6486 -0.4547  1.0348
 2465SOL    HW214446  11.846   6.192   7.609 -1.2098 -2.0619 -0.9887
 2466SOL     OW14447   8.545   7.520   4.973  1.0882  0.3017  0.1438
 2466SOL    HW114448   8.634   7.528   4.939  0.7123 -0.2067 -0.9971
 2466SOL    HW214449   8.488   7.547   4.901  0.2989  0.5001  0.8161
 2467SOL     OW14450   6.095   3.826   0.285 -0.4969  0.0483 -0.2518
 2467SOL    HW114451   6.149   3.882   0.230  1.6379 -0.6557  1.0331
 2467SOL    HW214452   6.081   3.877   0.365  0.3243 -0.6949  0.3826
 2468SOL     OW14453   0.635   4.001   1.479  0.3058  0.3621  0.9538
 2468SOL    HW114454   0.604   4.043   1.399 -1.0381  0.8085  1.6759
 2468SOL    HW214455   0.681   3.923   1.449 -2.7342 -1.1664 -0.2109
 2469SOL     OW14456  11.363  12.361   6.735 -0.0036 -0.3252 -0.0652
 2469SOL    HW114457  11.422  12.311   6.678  1.7720  1.8776 -0.2714
 2469SOL    HW214458  11.294  12.391   6.676  0.8978  0.5040 -0.7171
 2470SOL     OW14459   0.432   5.776   6.899 -0.2010 -0.1464  0.0434
 2470SOL    HW114460   0.453   5.739   6.984  0.0404  0.1631  0.1193
 2470SOL    HW214461   0.403   5.866   6.917 -2.3025 -0.7576  0.0193
 2471SOL     OW14462  10.248   6.743  11.097  0.8370 -0.1124  0.4113
 2471SOL    HW114463  10.219   6.763  11.187  0.1112  0.4397  0.0712
 2471SOL    HW214464  10.209   6.813  11.044  0.6927 -0.8209 -0.4324
 2472SOL     OW14465   6.201   1.481   5.058  0.1656 -0.0324  0.1467
 2472SOL    HW114466   6.197   1.576   5.047  1.0482 -0.0670 -0.6512
 2472SOL    HW214467   6.192   1.446   4.969  0.6314 -0.6646  0.3392
 2473SOL     OW14468   6.795   0.027   8.858  0.0197  0.0653 -0.1292
 2473SOL    HW114469   6.717   0.003   8.808  0.2797  1.2270 -1.1527
 2473SOL    HW214470   6.761   0.076   8.933 -0.3519 -1.4018  0.7087
 2474SOL     OW14471  12.503   8.126   5.210  0.4777  0.0049 -0.5181
 2474SOL    HW114472  12.551   8.086   5.282 -0.3516 -1.5284 -0.7743
 2474SOL    HW214473  12.553   8.102   5.132 -0.1827 -0.8241 -0.7000
 2475SOL     OW14474   2.684   7.423  12.536  0.0679 -0.1156 -0.0759
 2475SOL    HW114475   2.651   7.513  12.542 -2.0174 -0.7701 -0.7804
 2475SOL    HW214476   2.727   7.419  12.450 -2.0576 -0.3925 -1.2013
 2476SOL     OW14477  10.805   1.550   6.410 -0.1958 -0.5864  0.0699
 2476SOL    HW114478  10.866   1.535   6.338 -1.4897  1.0004 -1.4554
 2476SOL    HW214479  10.825   1.481   6.474  2.6583 -0.5325 -0.6556
 2477SOL     OW14480   1.750  10.006  11.576 -0.1563 -0.6445  0.0471
 2477SOL    HW114481   1.659   9.992  11.549 -0.7528  0.8263  1.1818
 2477SOL    HW214482   1.793  10.041  11.498 -1.5468  2.3323  0.4787
 2478SOL     OW14483   2.481   7.027   1.425  0.6935 -0.6323 -0.0266
 2478SOL    HW114484   2.520   6.952   1.380 -0.6507 -2.0309  1.0358
 2478SOL    HW214485   2.556   7.075   1.460  1.5881 -1.6528 -0.4796
 2479SOL     OW14486   6.432   0.327   9.267 -0.2942  0.4860 -0.2880
 2479SOL    HW114487   6.523   0.299   9.254 -0.2114  0.2112  0.7419
 2479SOL    HW214488   6.392   0.255   9.317 -0.4442  1.5820  1.2546
 2480SOL     OW14489  11.288   9.097  12.382 -0.2752  0.0176  0.4005
 2480SOL    HW114490  11.248   9.032  12.439  0.3635 -0.3317  0.4604
 2480SOL    HW214491  11.307   9.049  12.301 -2.0795  0.7356 -0.5239
 2481SOL     OW14492   5.154   7.589  11.943  0.4459  0.6123 -0.2796
 2481SOL    HW114493   5.086   7.615  12.004 -0.9163  1.6716 -2.1485
 2481SOL    HW214494   5.201   7.670  11.923 -0.6541  0.7837 -2.3915
 2482SOL     OW14495   0.989   8.900  11.720  0.2952  0.1805 -0.6691
 2482SOL    HW114496   0.949   8.920  11.635 -0.9092 -0.9744 -0.4039
 2482SOL    HW214497   0.954   8.968  11.779 -0.1758  0.0130 -0.7484
 2483SOL     OW14498   5.114   9.863   6.123 -0.4059  0.1846  0.2071
 2483SOL    HW114499   5.056   9.825   6.189  1.8262 -0.5373  1.8952
 2483SOL    HW214500   5.084   9.826   6.040 -2.0330 -0.5101  1.0543
 2484SOL     OW14501  12.589  12.116   9.776 -0.8407  0.0582 -0.1184
 2484SOL    HW114502  12.595  12.212   9.782 -0.0505  0.0809 -1.0681
 2484SOL    HW214503  12.645  12.093   9.701 -1.3896 -1.1069 -0.1876
 2485SOL     OW14504   6.877   6.598   0.137  0.0995  0.4937  0.2168
 2485SOL    HW114505   6.882   6.639   0.051 -0.5685 -0.1378 -0.1339
 2485SOL    HW214506   6.892   6.505   0.120 -2.3121 -0.0011  0.4293
 2486SOL     OW14507   1.870   8.955  10.018 -0.4604  0.2923  0.5265
 2486SOL    HW114508   1.808   9.025  10.039  0.5259  0.9206  1.4198
 2486SOL    HW214509   1.815   8.883   9.987 -1.5850  1.0236  0.7581
 2487SOL     OW14510   8.130   8.316   6.285  0.4527  0.6087  0.0941
 2487SOL    HW114511   8.197   8.250   6.305  1.3077  1.1689 -0.8149
 2487SOL    HW214512   8.130   8.374   6.361  0.9999  0.5873  0.1138
 2488SOL     OW14513   0.604   0.909   1.283 -0.0652 -0.4725 -0.4971
 2488SOL    HW114514   0.600   0.845   1.354 -0.4148  1.0637  0.9218
 2488SOL    HW214515   0.687   0.890   1.238  0.7101 -0.7830  1.0033
 2489SOL     OW14516   4.968  11.943   9.266  0.0791  0.2555 -1.1309
 2489SOL    HW114517   5.042  11.892   9.299  0.5026  0.3979 -1.8477
 2489SOL    HW214518   5.009  12.017   9.220 -0.4927  1.7760  0.6648
 2490SOL     OW14519   5.689   8.527   5.450  0.3880 -0.1946 -0.7394
 2490SOL    HW114520   5.642   8.611   5.449  0.9686  0.1351 -1.9292
 2490SOL    HW214521   5.625   8.463   5.418 -0.0523 -0.2277  0.1583
 2491SOL     OW14522   8.585   9.450  12.235 -0.7779  0.2589 -0.0503
 2491SOL    HW114523   8.672   9.445  12.196  0.2379 -0.7811  2.1875
 2491SOL    HW214524   8.591   9.523  12.297 -1.0414 -0.6950  1.1226
 2492SOL     OW14525  12.461   1.008   2.813  0.1462 -0.6554  0.3458
 2492SOL    HW114526  12.522   1.076   2.843 -0.2258 -0.0474 -0.2428
 2492SOL    HW214527  12.498   0.926   2.846  1.5403 -0.3555 -0.3672
 2493SOL     OW14528  10.493   5.058   6.717  0.6343 -0.0785 -0.2450
 2493SOL    HW114529  10.459   5.094   6.634  0.2427 -1.0938 -0.5434
 2493SOL    HW214530  10.464   5.120   6.783 -0.7581 -0.2529 -0.6458
 2494SOL     OW14531   4.699   1.757   1.597  0.9027  0.0849 -0.6586
 2494SOL    HW114532   4.767   1.696   1.568  1.5597  1.2774 -1.7456
 2494SOL    HW214533   4.644   1.769   1.520 -0.5569 -0.8396  0.2039
 2495SOL     OW14534   9.794   5.433   6.106 -0.3972 -0.4152  0.1998
 2495SOL    HW114535   9.710   5.457   6.145  0.0638 -0.6761  1.4146
 2495SOL    HW214536   9.839   5.517   6.093 -0.5214 -0.3293  0.3165
 2496SOL     OW14537   0.763   7.111   8.123  0.0805 -0.0424  0.2636
 2496SOL    HW114538   0.817   7.043   8.083 -1.2484 -0.7842 -0.3301
 2496SOL    HW214539   0.777   7.100   8.217 -0.1096 -1.1421  0.1788
 2497SOL     OW14540  10.713   8.131  11.192  0.3519  0.7591 -0.5705
 2497SOL    HW114541  10.756   8.214  11.173  1.7807  0.0304 -0.7201
 2497SOL    HW214542  10.630   8.155  11.234  1.7419  2.2379  1.5198
 2498SOL     OW14543   8.009   6.309   8.705 -0.2639  0.1443 -0.0820
 2498SOL    HW114544   8.003   6.222   8.665  1.2252  0.3189 -0.7783
 2498SOL    HW214545   8.058   6.361   8.641 -1.5714  1.6573  0.0948
 2499SOL     OW14546   0.121   6.642   3.496 -0.4513 -0.2998 -0.8162
 2499SOL    HW114547   0.177   6.602   3.429  1.6595  0.9096  0.1264
 2499SOL    HW214548   0.162   6.727   3.514 -2.6772  0.6974 -0.1093
 2500SOL     OW14549   0.514   5.778   2.514 -0.4846  0.1434 -0.4650
 2500SOL    HW114550   0.574   5.713   2.552 -0.3451  0.6287  0.1639
 2500SOL    HW214551   0.523   5.766   2.420 -0.5700 -0.8465 -0.3560
 2501SOL     OW14552   5.663  10.489  11.900 -0.4751 -0.1757 -0.1367
 2501SOL    HW114553   5.707  10.480  11.985 -0.7139 -0.2778 -0.0235
 2501SOL    HW214554   5.570  10.492  11.922 -0.4558  3.1454 -0.0887
 2502SOL     OW14555   9.888   7.884   4.932  0.5662 -0.1954 -0.5682
 2502SOL    HW114556   9.805   7.837   4.921  0.5385  0.4757 -4.1907
 2502SOL    HW214557   9.948   7.818   4.968 -1.0988 -1.0684  0.7840
 2503SOL     OW14558  10.980   4.376  10.238 -0.2947 -0.4121 -0.4126
 2503SOL    HW114559  11.044   4.367  10.309 -1.2949 -0.4172  0.5011
 2503SOL    HW214560  11.022   4.437  10.177 -0.4171  1.6505  1.3993
 2504SOL     OW14561   7.094   3.374  11.745 -0.4980  0.0218  0.5142
 2504SOL    HW114562   7.007   3.336  11.731  0.1885 -1.7175  0.7030
 2504SOL    HW214563   7.133   3.319  11.813  0.4711  1.2654  0.9961
 2505SOL     OW14564  11.443   1.273   7.670  0.4094  0.1400 -0.4728
 2505SOL    HW114565  11.468   1.235   7.586 -0.4926  0.2886 -0.8186
 2505SOL    HW214566  11.515   1.251   7.728  0.4293 -1.1320 -0.9439
 2506SOL     OW14567   6.289  12.038   3.802 -0.1408 -0.4903 -0.3076
 2506SOL    HW114568   6.360  12.038   3.866  0.5230 -0.5289 -1.0348
 2506SOL    HW214569   6.238  12.117   3.823  0.1439 -0.4334  0.1835
 2507SOL     OW14570   8.134   9.139   5.582 -0.2571  0.5253 -0.7769
 2507SOL    HW114571   8.055   9.170   5.625 -0.7543  0.7040 -1.7751
 2507SOL    HW214572   8.204   9.152   5.646 -1.3098 -1.5435  0.8908
 2508SOL     OW14573   1.007   4.814   3.093  0.2627 -0.3057 -0.4620
 2508SOL    HW114574   0.977   4.748   3.155 -0.7960 -0.8326 -1.5237
 2508SOL    HW214575   0.935   4.877   3.088  1.8954  2.0305  1.9068
 2509SOL     OW14576   2.205   6.255   5.261  0.1817  0.0557 -0.2266
 2509SOL    HW114577   2.189   6.198   5.337 -0.7552 -0.5724 -0.8705
 2509SOL    HW214578   2.266   6.321   5.293  0.1974 -0.4956  0.9360
 2510SOL     OW14579   7.181   6.790   0.048 -0.4577  0.4314  0.1570
 2510SOL    HW114580   7.206   6.773  -0.042 -1.0249 -4.5565  0.6895
 2510SOL    HW214581   7.085   6.795   0.046 -0.6395 -2.0177  0.6663
 2511SOL     OW14582   1.934   1.218   4.069 -0.1556 -0.6019  0.1237
 2511SOL    HW114583   1.987   1.286   4.110  0.5743 -1.8008  1.2536
 2511SOL    HW214584   1.950   1.140   4.121  1.4223 -2.4642 -2.8433
 2512SOL     OW14585   3.659   1.601   8.065 -0.0330 -0.1323  0.0966
 2512SOL    HW114586   3.626   1.677   8.017  1.1917  0.7565  0.6193
 2512SOL    HW214587   3.580   1.551   8.087 -0.6354 -0.6500 -2.8519
 2513SOL     OW14588   1.453   7.848   3.109  0.2244 -0.3804  0.3697
 2513SOL    HW114589   1.514   7.778   3.086  0.7836 -0.1542  1.1078
 2513SOL    HW214590   1.451   7.847   3.205 -0.2019  0.2366  0.3725
 2514SOL     OW14591   4.208   1.665   4.315 -0.0447 -0.1790  0.2274
 2514SOL    HW114592   4.208   1.760   4.314 -2.8235 -0.0917 -0.1960
 2514SOL    HW214593   4.192   1.640   4.224  1.4138 -1.0915  0.2007
 2515SOL     OW14594   8.456   4.935  11.080 -0.3257  0.0413  0.2865
 2515SOL    HW114595   8.407   4.861  11.046 -2.3859  0.7321  1.5890
 2515SOL    HW214596   8.507   4.899  11.153 -0.3397 -0.3230  0.1156
 2516SOL     OW14597   1.276   7.907   2.228  0.6569  0.0385 -0.0315
 2516SOL    HW114598   1.229   7.825   2.219  0.0256  0.3759  0.1197
 2516SOL    HW214599   1.366   7.887   2.200  0.3246 -0.5038 -0.7274
 2517SOL     OW14600   9.541   9.436  12.467 -0.3787 -0.2843 -0.0311
 2517SOL    HW114601   9.552   9.402  12.556  1.2326 -0.5508 -0.3067
 2517SOL    HW214602   9.629   9.436  12.430 -0.6527  2.0684 -0.8415
 2518SOL     OW14603  10.707   7.390   2.107 -0.4624  0.0388 -0.2698
 2518SOL    HW114604  10.762   7.334   2.052 -0.0113  1.1175 -0.9418
 2518SOL    HW214605  10.707   7.475   2.063 -0.4288  0.8245  1.1786
 2519SOL     OW14606   7.346   9.739   4.439 -0.0177  0.4875  0.6343
 2519SOL    HW114607   7.418   9.767   4.383 -0.5583 -0.8433 -0.7969
 2519SOL    HW214608   7.381   9.665   4.489 -0.3158 -0.0292  0.0879
 2520SOL     OW14609   3.936   9.332   4.124 -0.4427  0.2753  1.0663
 2520SOL    HW114610   3.996   9.329   4.198  0.7782  2.6474  0.2816
 2520SOL    HW214611   3.963   9.410   4.074 -1.2382 -1.1589 -1.8358
 2521SOL     OW14612   6.968   8.764   1.693  0.8304  0.5987  0.1586
 2521SOL    HW114613   6.897   8.749   1.754 -2.6446 -1.5912 -3.8765
 2521SOL    HW214614   7.011   8.679   1.685  1.0929  0.7922 -0.5766
 2522SOL     OW14615   4.960   3.134   0.689 -0.5483 -0.0125  0.6538
 2522SOL    HW114616   4.875   3.178   0.696  0.4114  1.7816  1.7520
 2522SOL    HW214617   5.000   3.146   0.775  0.9659 -0.4754  0.0373
 2523SOL     OW14618  11.058  11.442   3.132 -0.0856 -0.2209 -0.1284
 2523SOL    HW114619  11.014  11.512   3.180  2.3346  1.1391  0.3009
 2523SOL    HW214620  11.058  11.368   3.192  0.2729  0.5159  0.8097
 2524SOL     OW14621   9.127   6.182   6.883 -0.0119  0.1757 -0.7602
 2524SOL    HW114622   9.215   6.190   6.845  1.5056 -0.8187  2.2116
 2524SOL    HW214623   9.085   6.266   6.865  2.0275  1.1742 -1.1172
 2525SOL     OW14624  11.371   7.016   8.008  0.1808 -0.1970  0.2527
 2525SOL    HW114625  11.465   7.023   8.025  0.1882  0.2044  0.0585
 2525SOL    HW214626  11.330   7.013   8.094  0.4186 -1.1356  0.3530
 2526SOL     OW14627   9.559   0.209   7.621 -0.2513  0.3547 -0.0918
 2526SOL    HW114628   9.473   0.223   7.661 -1.7500 -0.8982 -2.6196
 2526SOL    HW214629   9.557   0.263   7.542  1.8133  1.2266  0.3898
 2527SOL     OW14630   5.207   6.055  12.156  1.2556 -0.1597 -0.1403
 2527SOL    HW114631   5.239   6.134  12.200 -0.0034  0.2180  0.1528
 2527SOL    HW214632   5.271   6.038  12.088  2.1785  0.4297  0.5583
 2528SOL     OW14633   4.500   2.025   0.529 -0.3096  0.1775 -0.0359
 2528SOL    HW114634   4.576   2.016   0.472  0.8338 -0.0007  1.4732
 2528SOL    HW214635   4.425   2.019   0.469  0.8179 -0.4729 -1.4497
 2529SOL     OW14636  10.793   5.736   3.873  0.0597 -0.0908 -0.0509
 2529SOL    HW114637  10.705   5.749   3.909  0.0614 -1.2415  0.3966
 2529SOL    HW214638  10.790   5.651   3.830  0.8537  0.0329 -0.3782
 2530SOL     OW14639   9.427  10.035  10.031  0.3364 -0.2738  0.0046
 2530SOL    HW114640   9.511  10.081  10.037  1.1582 -1.8018  0.9410
 2530SOL    HW214641   9.448   9.953   9.986 -0.9571 -0.0803 -1.0320
 2531SOL     OW14642   6.049   2.554   2.824 -0.0242  0.2621  0.3105
 2531SOL    HW114643   6.027   2.519   2.737  0.5323 -1.2487  0.7408
 2531SOL    HW214644   6.141   2.577   2.818 -0.3254  1.4656  0.1096
 2532SOL     OW14645   5.826  12.401   6.844  0.3987 -0.0305  0.0411
 2532SOL    HW114646   5.889  12.386   6.773  1.3125  1.7032  0.4304
 2532SOL    HW214647   5.799  12.313   6.872  0.8639 -0.7666 -1.6867
 2533SOL     OW14648  10.073   9.617   4.936 -0.2618  0.1721  0.6224
 2533SOL    HW114649  10.160   9.577   4.942 -0.0219  0.5785 -0.1120
 2533SOL    HW214650  10.044   9.622   5.027  0.5417  0.1603  0.8942
 2534SOL     OW14651   8.780   6.463   0.777  0.4464 -0.0106  0.1764
 2534SOL    HW114652   8.724   6.468   0.699  0.1812  1.3963  0.4418
 2534SOL    HW214653   8.792   6.554   0.804  1.9121 -0.3732  0.8123
 2535SOL     OW14654   0.848  10.796  12.328 -0.6336  0.3064  0.1007
 2535SOL    HW114655   0.834  10.707  12.358 -1.1328  0.7347  1.1747
 2535SOL    HW214656   0.884  10.786  12.239  1.4356 -0.9957  1.0084
 2536SOL     OW14657   3.483   2.562   5.973 -0.3777  0.1849 -0.2518
 2536SOL    HW114658   3.470   2.578   6.067  0.3332 -1.1939  0.1119
 2536SOL    HW214659   3.572   2.529   5.967 -1.2776 -2.3992 -1.0114
 2537SOL     OW14660   9.730  12.433   3.974 -0.3354  0.2802  0.3434
 2537SOL    HW114661   9.789  12.469   3.909  0.4800 -0.7343  0.4970
 2537SOL    HW214662   9.672  12.506   3.997 -0.1214  0.8712 -0.9047
 2538SOL     OW14663  12.063  10.399   3.167 -0.2639  0.5806  0.2598
 2538SOL    HW114664  12.147  10.368   3.199 -0.5118 -0.3217  0.0657
 2538SOL    HW214665  12.077  10.412   3.073 -0.3902  0.2554  0.1958
 2539SOL     OW14666   7.068   7.737   4.209 -0.1500  0.3100  0.3489
 2539SOL    HW114667   7.102   7.769   4.292  1.0552 -1.5737  0.6425
 2539SOL    HW214668   7.139   7.753   4.147  0.3431 -1.3585  0.4322
 2540SOL     OW14669   2.310   9.173   9.180  0.1157  1.1154  0.0677
 2540SOL    HW114670   2.405   9.184   9.171  0.4740 -1.5183 -0.1949
 2540SOL    HW214671   2.274   9.220   9.105  1.3350  0.8314 -0.7273
 2541SOL     OW14672  12.122   6.646   1.110  0.4915  0.5518  0.4285
 2541SOL    HW114673  12.034   6.616   1.135  0.2160  1.3629  0.4896
 2541SOL    HW214674  12.108   6.736   1.079  1.2564  0.5731  0.1329
 2542SOL     OW14675   2.297   3.664   8.938  0.4311  0.3682 -0.2745
 2542SOL    HW114676   2.341   3.693   9.018  0.6084  0.0278 -0.2462
 2542SOL    HW214677   2.314   3.569   8.934  0.0039  0.2941 -0.4487
 2543SOL     OW14678   5.847   2.576  11.638 -0.0359 -0.0946 -0.0278
 2543SOL    HW114679   5.891   2.501  11.599 -1.7870 -1.0500 -0.2896
 2543SOL    HW214680   5.913   2.618  11.693  1.6741 -0.4220 -1.7076
 2544SOL     OW14681   0.939   6.715   2.374 -0.2563 -0.3033 -0.0637
 2544SOL    HW114682   0.961   6.724   2.281  0.9417 -1.2871  0.0999
 2544SOL    HW214683   0.849   6.682   2.374  0.0506 -1.1707 -0.8960
 2545SOL     OW14684  10.391   3.365  10.180  0.6830  1.3977  0.1798
 2545SOL    HW114685  10.383   3.434  10.246  0.5372  2.1056 -0.5709
 2545SOL    HW214686  10.355   3.403  10.100  1.0844  0.6387 -0.3806
 2546SOL     OW14687  10.963   0.754   3.236 -0.6627  0.5548  0.1467
 2546SOL    HW114688  10.956   0.783   3.327 -1.0504  0.2445  0.2228
 2546SOL    HW214689  11.057   0.752   3.218 -0.3085 -2.7217  1.6698
 2547SOL     OW14690   1.316   8.681  10.702  0.0798  0.7630 -0.2862
 2547SOL    HW114691   1.409   8.689  10.680  0.6802 -0.2750  1.5647
 2547SOL    HW214692   1.304   8.743  10.774 -0.5255  0.5361 -0.1910
 2548SOL     OW14693   4.745   4.548   1.981 -0.7102 -0.0557 -0.8502
 2548SOL    HW114694   4.732   4.518   2.071 -0.7839 -0.7780 -1.0933
 2548SOL    HW214695   4.841   4.551   1.971 -0.7026 -0.2377 -0.8335
 2549SOL     OW14696  12.589   3.512   6.762 -0.1455 -0.4245  0.0358
 2549SOL    HW114697  12.648   3.459   6.709 -0.6644 -1.8926  0.8600
 2549SOL    HW214698  12.617   3.602   6.747  0.6824 -0.9046 -1.5209
 2550SOL     OW14699   9.782   7.377   8.157  0.0462  0.4988  0.1591
 2550SOL    HW114700   9.872   7.410   8.167  2.0416 -3.9305 -0.4161
 2550SOL    HW214701   9.747   7.374   8.246  1.4363  0.1739  0.7266
 2551SOL     OW14702  11.408   2.073   8.240 -0.3759 -0.7368 -0.7388
 2551SOL    HW114703  11.493   2.050   8.203  0.2094  0.8660 -0.4906
 2551SOL    HW214704  11.370   2.134   8.177 -0.0864  0.7407  0.4651
 2552SOL     OW14705   3.987   4.588   4.772 -0.5903  0.1205  0.0872
 2552SOL    HW114706   3.944   4.646   4.710 -1.9545 -0.3857  0.5206
 2552SOL    HW214707   3.959   4.500   4.746 -0.9223 -0.1188  1.1951
 2553SOL     OW14708   1.185   2.804   3.779 -1.2415 -0.3271  0.0269
 2553SOL    HW114709   1.200   2.830   3.870  0.9391 -1.6115  0.1089
 2553SOL    HW214710   1.132   2.875   3.742 -0.2800  1.3573  1.6989
 2554SOL     OW14711   0.974   3.979   2.864  0.0759  0.3784  0.7465
 2554SOL    HW114712   1.065   3.953   2.852  0.7135  2.3529  0.8717
 2554SOL    HW214713   0.978   4.074   2.876 -2.0074  0.5109  0.7463
 2555SOL     OW14714   1.016   6.563   0.395 -0.0151 -0.5262 -0.0391
 2555SOL    HW114715   1.071   6.626   0.349 -0.8324 -0.6005 -1.1699
 2555SOL    HW214716   1.030   6.581   0.488  1.8528 -0.5132 -0.3010
 2556SOL     OW14717   0.176   6.286  11.683 -0.1496 -0.0818 -0.2440
 2556SOL    HW114718   0.136   6.345  11.619  3.6832  4.1072  0.7045
 2556SOL    HW214719   0.214   6.215  11.631 -1.1140  0.6681 -2.0223
 2557SOL     OW14720   9.944   5.776  11.923 -0.0145  0.1841  0.3976
 2557SOL    HW114721   9.921   5.800  12.013  0.5293  1.0790  0.3139
 2557SOL    HW214722   9.969   5.684  11.929 -2.2460 -0.4442  0.7200
 2558SOL     OW14723   3.021  11.587   8.000 -0.2281 -0.1137  0.2476
 2558SOL    HW114724   3.059  11.529   7.934  1.0794 -0.6133  1.3825
 2558SOL    HW214725   2.980  11.527   8.063 -0.1112  0.2745  0.6944
 2559SOL     OW14726   8.035   6.609   0.277 -0.4007 -0.2841  0.3173
 2559SOL    HW114727   7.946   6.642   0.285 -0.7650 -1.0830 -0.3142
 2559SOL    HW214728   8.028   6.536   0.215  0.8463  0.2571 -0.5090
 2560SOL     OW14729   3.511   5.608  10.683  0.9204  1.1508 -0.0633
 2560SOL    HW114730   3.596   5.574  10.655 -0.0473 -1.6089  0.0213
 2560SOL    HW214731   3.501   5.577  10.773 -1.5472 -1.7017 -1.1537
 2561SOL     OW14732   4.005  10.005   2.048  0.3883 -0.5893 -0.1307
 2561SOL    HW114733   4.038  10.089   2.079  0.8472 -0.9672  0.4365
 2561SOL    HW214734   4.043   9.995   1.961 -0.7391  0.3863 -0.7570
 2562SOL     OW14735   0.072   6.203   8.720 -0.1291 -0.4283 -0.1360
 2562SOL    HW114736   0.066   6.144   8.795 -0.9699 -0.6209 -0.3415
 2562SOL    HW214737   0.109   6.150   8.650  0.8431 -0.1938  0.1852
 2563SOL     OW14738   7.022   9.105  10.361  0.2360 -0.6876 -0.1555
 2563SOL    HW114739   7.106   9.137  10.394  0.2172 -1.4708  0.6831
 2563SOL    HW214740   7.031   9.010  10.358 -0.6063 -0.7836 -0.0938
 2564SOL     OW14741   5.248   7.250  10.561 -0.0804 -0.3477 -0.1326
 2564SOL    HW114742   5.305   7.267  10.636 -0.0191 -3.0452  0.5650
 2564SOL    HW214743   5.308   7.234  10.488 -0.0624  0.0970 -0.2157
 2565SOL     OW14744   5.950   6.938   9.570  0.0044 -0.5776 -0.7639
 2565SOL    HW114745   5.892   6.889   9.629 -0.0979  0.5749  0.1226
 2565SOL    HW214746   6.038   6.915   9.600  0.0765 -2.5472 -2.2883
 2566SOL     OW14747   4.807   8.217  12.103  0.5751 -0.1001 -0.2023
 2566SOL    HW114748   4.801   8.245  12.194  2.1883  1.0698 -0.4133
 2566SOL    HW214749   4.717   8.222  12.070 -0.0694 -0.8434  1.3947
 2567SOL     OW14750   4.856   5.089   5.252  0.4005  0.1687 -0.8240
 2567SOL    HW114751   4.929   5.029   5.239 -0.7477 -1.2250 -1.0971
 2567SOL    HW214752   4.819   5.101   5.165  0.0548  0.5273 -0.6314
 2568SOL     OW14753   4.307   9.444   8.652  0.0712  0.1411  0.1339
 2568SOL    HW114754   4.253   9.491   8.715 -0.3541  0.2494 -0.3057
 2568SOL    HW214755   4.329   9.362   8.696 -0.7706 -0.0697  0.1819
 2569SOL     OW14756   7.475  10.215  12.098  0.4130  0.4517  0.0720
 2569SOL    HW114757   7.432  10.225  12.014  0.1542  1.4546  0.3085
 2569SOL    HW214758   7.558  10.262  12.089  0.0557  1.2096  0.5961
 2570SOL     OW14759   8.248   9.007   4.727 -0.3064 -0.1858  0.2871
 2570SOL    HW114760   8.193   8.929   4.725  0.9905 -1.1394  0.3170
 2570SOL    HW214761   8.314   8.988   4.794 -0.3250  1.1979  0.7243
 2571SOL     OW14762  11.160   3.859   1.656 -1.1370 -0.1852 -0.3003
 2571SOL    HW114763  11.244   3.848   1.612 -1.4949 -2.2797 -0.5702
 2571SOL    HW214764  11.181   3.903   1.738 -0.2537  2.3305 -1.7720
 2572SOL     OW14765  11.615   0.171   2.057  0.2383  0.1927 -0.1524
 2572SOL    HW114766  11.573   0.256   2.065  0.4146  0.2712 -0.0682
 2572SOL    HW214767  11.582   0.121   2.132 -0.1757  0.0509 -0.4212
 2573SOL     OW14768   6.604   7.258   1.475 -0.0559  0.3224  0.0093
 2573SOL    HW114769   6.554   7.232   1.397 -1.3081  0.4963  0.7292
 2573SOL    HW214770   6.682   7.300   1.440  0.3674 -1.3467 -1.1621
 2574SOL     OW14771  10.903  11.559   9.006  0.3658  0.0794  0.3712
 2574SOL    HW114772  10.985  11.533   9.048  0.9670 -0.3173 -0.9673
 2574SOL    HW214773  10.931  11.605   8.927 -0.6631 -1.5612 -1.0173
 2575SOL     OW14774   6.898   0.607  12.472  0.0926 -0.4504 -0.2710
 2575SOL    HW114775   6.834   0.646  12.412  0.2744 -1.5892 -1.2382
 2575SOL    HW214776   6.943   0.682  12.510 -1.6052  0.3666  0.2097
 2576SOL     OW14777   8.337  11.388   8.733  0.6571 -0.2167 -0.0592
 2576SOL    HW114778   8.418  11.339   8.746  0.7345 -0.3729 -1.0206
 2576SOL    HW214779   8.364  11.467   8.686  0.4880  0.6002  1.1725
 2577SOL     OW14780   3.101   8.248   5.197  0.5395 -0.0861  0.3961
 2577SOL    HW114781   3.043   8.202   5.258  1.0646 -2.2697 -0.6589
 2577SOL    HW214782   3.048   8.262   5.118  0.8890 -0.3946  0.1042
 2578SOL     OW14783   8.295   2.066   2.809 -0.2417 -0.2852  0.1932
 2578SOL    HW114784   8.384   2.069   2.774  0.2962  0.8398  1.5681
 2578SOL    HW214785   8.271   1.974   2.807  1.0557 -0.6321  0.0160
 2579SOL     OW14786   9.420   0.707  10.678  0.3478  0.3556  0.2236
 2579SOL    HW114787   9.478   0.781  10.691  0.0618  0.6105  0.0714
 2579SOL    HW214788   9.390   0.716  10.587  0.9829 -0.4279 -0.0715
 2580SOL     OW14789  12.281   1.784   6.388  0.3785 -0.8259 -0.4233
 2580SOL    HW114790  12.274   1.769   6.483  0.6888 -1.0962 -0.4440
 2580SOL    HW214791  12.349   1.851   6.379  0.2454 -0.6937 -0.4459
 2581SOL     OW14792   4.774  10.445  12.419  0.3977  0.2021  0.5859
 2581SOL    HW114793   4.825  10.473  12.495  1.6410 -0.0271 -0.1395
 2581SOL    HW214794   4.839  10.426  12.352 -0.6750  0.2626 -0.5019
 2582SOL     OW14795   7.344  10.041   5.924  0.4408 -0.2470 -0.3454
 2582SOL    HW114796   7.296   9.978   5.870  0.5443 -0.3286 -0.3423
 2582SOL    HW214797   7.329  10.125   5.881 -1.0462 -0.0051  0.5414
 2583SOL     OW14798   4.742  11.284   9.122  0.1893  0.0330 -0.7325
 2583SOL    HW114799   4.707  11.264   9.209  1.1175 -0.9840 -0.5691
 2583SOL    HW214800   4.669  11.323   9.075 -1.1532 -1.8883 -0.3690
 2584SOL     OW14801   2.607   1.649  11.242  0.3196 -0.0096  0.5021
 2584SOL    HW114802   2.566   1.609  11.319  0.3178  0.7924  0.9239
 2584SOL    HW214803   2.537   1.656  11.178 -0.0351  0.7029  0.9669
 2585SOL     OW14804   5.515  12.413  11.754  0.6803  0.3989  0.2704
 2585SOL    HW114805   5.570  12.439  11.680 -0.1694  1.3372 -0.0596
 2585SOL    HW214806   5.453  12.350  11.717  0.7240  0.3162  0.3406
 2586SOL     OW14807  11.059   7.362   4.792  0.1586  0.2547  0.3281
 2586SOL    HW114808  11.086   7.433   4.850  1.7613 -1.1869  1.4819
 2586SOL    HW214809  11.112   7.287   4.820 -2.8846 -1.9989  0.5730
 2587SOL     OW14810   4.981   1.794   6.675  0.5367  0.1928  0.5627
 2587SOL    HW114811   4.888   1.788   6.655  0.5343 -0.5007  0.7742
 2587SOL    HW214812   5.024   1.789   6.590  0.4008  0.1477  0.4966
 2588SOL     OW14813   2.190   3.175   8.840  0.8108 -0.3973 -0.3499
 2588SOL    HW114814   2.270   3.123   8.844 -0.0210 -1.7399 -0.6251
 2588SOL    HW214815   2.123   3.120   8.881  0.0284  0.6940 -0.1259
 2589SOL     OW14816  10.746   8.559   8.131  0.0373 -0.1609  0.4198
 2589SOL    HW114817  10.803   8.514   8.194  1.0220  1.4219  0.7314
 2589SOL    HW214818  10.738   8.648   8.166 -3.5023 -0.5349  0.9218
 2590SOL     OW14819   4.438   0.848   6.960  0.1563  0.7372  0.0652
 2590SOL    HW114820   4.452   0.940   6.937  1.5685 -0.1152 -2.8857
 2590SOL    HW214821   4.520   0.804   6.936 -0.8524 -1.4756  0.4074
 2591SOL     OW14822   9.849   9.399  12.371 -0.2476  0.0505 -0.3944
 2591SOL    HW114823   9.916   9.363  12.430  2.9081  4.1292 -0.9839
 2591SOL    HW214824   9.841   9.334  12.301  4.0377 -0.3310 -0.8221
 2592SOL     OW14825  10.596   3.847   2.560 -0.5436  0.2834 -0.3895
 2592SOL    HW114826  10.578   3.935   2.594 -0.3561  0.0419  0.3270
 2592SOL    HW214827  10.680   3.855   2.515 -0.8018  0.6050 -0.8197
 2593SOL     OW14828   9.486   0.659   1.271 -0.3036  0.2555 -0.3510
 2593SOL    HW114829   9.540   0.598   1.322 -0.7133  0.7743  0.7340
 2593SOL    HW214830   9.460   0.608   1.194  2.1717  0.1594 -1.2382
 2594SOL     OW14831   4.632   9.308   5.215  0.3027  0.0299  0.3775
 2594SOL    HW114832   4.650   9.378   5.152 -0.8583  0.2521  0.2766
 2594SOL    HW214833   4.611   9.232   5.161 -0.2633  0.1031  0.4977
 2595SOL     OW14834   6.245   2.196   7.595 -0.0276 -0.0053  0.7251
 2595SOL    HW114835   6.327   2.237   7.624  0.3353 -0.6665  0.6461
 2595SOL    HW214836   6.256   2.103   7.616 -0.6717 -0.1319  0.5104
 2596SOL     OW14837   1.001   8.938  10.861 -0.0864 -0.1430 -0.0615
 2596SOL    HW114838   1.024   8.999  10.791 -1.1809 -1.0719 -1.2731
 2596SOL    HW214839   1.084   8.924  10.908  0.4045  1.4504 -0.3751
 2597SOL     OW14840   3.512   4.556  10.091 -0.0916  0.5305 -0.3197
 2597SOL    HW114841   3.433   4.508  10.116  1.4497 -0.8577  2.3797
 2597SOL    HW214842   3.526   4.534  10.000 -1.4560 -1.1962 -0.1647
 2598SOL     OW14843   3.189  10.612   6.966  0.2683  0.2143 -0.3363
 2598SOL    HW114844   3.223  10.584   7.051  0.5575 -0.0546 -0.5377
 2598SOL    HW214845   3.100  10.644   6.984  0.4419  0.4482  0.1129
 2599SOL     OW14846  10.802   5.023   6.539  0.3930  0.6747  0.2593
 2599SOL    HW114847  10.729   4.966   6.561  0.0164  0.6230 -1.0231
 2599SOL    HW214848  10.774   5.110   6.570 -0.1092  0.6097  0.0023
 2600SOL     OW14849   1.458  10.753   0.373  0.5302 -0.0065  0.4967
 2600SOL    HW114850   1.531  10.768   0.433 -0.8347  0.4405  2.1473
 2600SOL    HW214851   1.398  10.826   0.390  0.5350  0.7613 -2.2403
 2601SOL     OW14852   3.681   7.511   8.297  0.0324  0.0823 -0.0707
 2601SOL    HW114853   3.620   7.513   8.371 -0.6640 -1.3108 -0.5845
 2601SOL    HW214854   3.632   7.470   8.226  1.8665 -2.0229 -0.2082
 2602SOL     OW14855   8.007   0.652   7.237  0.1457 -0.8140  0.1616
 2602SOL    HW114856   8.074   0.649   7.304 -0.1725 -2.6530  0.4424
 2602SOL    HW214857   7.945   0.718   7.268  0.5513 -0.8792  1.1326
 2603SOL     OW14858   5.154   2.222   1.384 -0.1566 -0.0616  0.7757
 2603SOL    HW114859   5.227   2.170   1.417  2.2638  0.7834 -2.7474
 2603SOL    HW214860   5.188   2.312   1.382 -1.7757  0.5701  0.2911
 2604SOL     OW14861  10.589   6.854   2.468  0.2846  0.4757  0.7514
 2604SOL    HW114862  10.607   6.911   2.393  1.7968 -0.3561  0.4203
 2604SOL    HW214863  10.673   6.848   2.513 -0.2758 -0.1356  1.7338
 2605SOL     OW14864  11.274   0.758   0.447  0.1254 -0.1331  0.4073
 2605SOL    HW114865  11.211   0.751   0.375 -0.8624  1.2911  1.0913
 2605SOL    HW214866  11.334   0.828   0.419  1.4465 -1.4423 -0.2185
 2606SOL     OW14867   6.666   9.740   7.095 -0.1128 -0.1313 -0.5829
 2606SOL    HW114868   6.637   9.740   7.186  1.0498 -0.2017 -0.1999
 2606SOL    HW214869   6.617   9.668   7.054 -0.7287 -0.0239 -0.0604
 2607SOL     OW14870   5.266   7.912  11.050 -0.8636 -0.6940  0.6442
 2607SOL    HW114871   5.320   7.911  11.129  1.5462 -0.1754 -0.9065
 2607SOL    HW214872   5.238   8.003  11.042  1.9353  0.1350 -0.9477
 2608SOL     OW14873   7.409   6.272   7.619  0.1355  0.5513  0.8536
 2608SOL    HW114874   7.502   6.294   7.611 -0.0471  0.7605 -0.8949
 2608SOL    HW214875   7.402   6.183   7.585 -0.0932 -0.0728  2.4265
 2609SOL     OW14876   4.007   2.404   9.526  0.0544 -0.0637  0.0749
 2609SOL    HW114877   3.919   2.364   9.526  0.0963 -0.2173  1.5017
 2609SOL    HW214878   4.066   2.330   9.542  0.2392  0.3524  1.4226
 2610SOL     OW14879   0.836   9.059   4.539  0.5962  0.1010 -0.3290
 2610SOL    HW114880   0.901   9.005   4.584  0.5838 -1.0639 -1.6369
 2610SOL    HW214881   0.753   9.014   4.552 -0.0686  1.7137  1.5423
 2611SOL     OW14882   7.258   7.674   2.767 -0.3544 -0.0069 -0.1461
 2611SOL    HW114883   7.210   7.692   2.686  0.4097  0.7108 -0.4602
 2611SOL    HW214884   7.191   7.663   2.834 -1.0054  3.7076  0.0218
 2612SOL     OW14885   0.736   1.638  11.615  0.0718 -0.4222 -0.5614
 2612SOL    HW114886   0.741   1.723  11.571  0.6909 -1.1646 -1.9973
 2612SOL    HW214887   0.643   1.626  11.633 -0.2461 -0.2234 -1.9756
 2613SOL     OW14888  11.052   0.237   1.447  0.1982 -0.4513  0.4536
 2613SOL    HW114889  11.093   0.157   1.480  1.7429 -0.0606 -0.4023
 2613SOL    HW214890  11.009   0.211   1.366  0.6966 -0.4328  0.1778
 2614SOL     OW14891   8.733   5.252   7.152  0.0110 -0.0339 -0.1796
 2614SOL    HW114892   8.727   5.162   7.122 -1.4945  0.3017 -0.9704
 2614SOL    HW214893   8.645   5.273   7.182  1.0753  0.1125  3.2451
 2615SOL     OW14894   9.021  11.846   1.647  0.3343 -0.3792 -0.1331
 2615SOL    HW114895   9.085  11.845   1.576  0.1095  0.5577 -0.3544
 2615SOL    HW214896   8.976  11.930   1.639  1.6856  0.6803  2.3629
 2616SOL     OW14897   8.302   5.570   4.160  0.3558 -0.1023  0.1234
 2616SOL    HW114898   8.323   5.659   4.187  1.9001 -0.4352  0.1423
 2616SOL    HW214899   8.263   5.579   4.073 -0.2460  0.6338  0.4605
 2617SOL     OW14900   9.052   0.219   4.381  0.8707 -0.3011 -0.0999
 2617SOL    HW114901   8.979   0.281   4.377 -1.7100 -2.9192  2.3464
 2617SOL    HW214902   9.021   0.142   4.334  0.9959 -2.3306  2.8805
 2618SOL     OW14903   3.284   8.116   0.770 -0.3202  0.1615  0.0672
 2618SOL    HW114904   3.208   8.059   0.786 -0.4220  0.0781 -0.6634
 2618SOL    HW214905   3.265   8.157   0.686  0.8380 -0.5067 -0.5537
 2619SOL     OW14906   8.671   3.544   2.661  0.2515  0.4179 -0.4554
 2619SOL    HW114907   8.723   3.477   2.706 -0.6753 -1.2535 -1.7252
 2619SOL    HW214908   8.734   3.589   2.604  0.6898 -0.1416 -0.4246
 2620SOL     OW14909  10.646   8.497   6.168  0.4039  0.3238  0.3968
 2620SOL    HW114910  10.737   8.504   6.197  0.1976 -2.1215  1.8962
 2620SOL    HW214911  10.630   8.403   6.160 -1.1052  0.7030 -2.9571
 2621SOL     OW14912   9.704   1.825   0.767  0.8180  0.2453 -0.0646
 2621SOL    HW114913   9.764   1.804   0.695 -0.3328 -0.3558 -0.8754
 2621SOL    HW214914   9.636   1.880   0.727 -0.1208 -0.5185  0.4279
 2622SOL     OW14915   1.103   6.941  10.380  0.2280 -0.2076  0.2190
 2622SOL    HW114916   1.087   6.847  10.371 -0.7422  0.1070 -2.0987
 2622SOL    HW214917   1.199   6.949  10.375  0.3667 -1.0986  1.1101
 2623SOL     OW14918   2.552   7.617  11.217 -0.2529  0.4646  0.4142
 2623SOL    HW114919   2.482   7.651  11.161 -0.7341  0.8787  1.2499
 2623SOL    HW214920   2.513   7.542  11.262  0.6846 -1.0184 -1.1177
 2624SOL     OW14921  10.608  11.945  11.121 -0.1895 -0.2300  0.9899
 2624SOL    HW114922  10.633  12.038  11.124 -1.1972  0.0584  0.8383
 2624SOL    HW214923  10.655  11.910  11.045 -0.8655  0.4958  0.2124
 2625SOL     OW14924   5.523   6.973   5.198 -0.0747 -0.3805  0.1077
 2625SOL    HW114925   5.615   6.994   5.211  0.0797  0.0476 -1.4644
 2625SOL    HW214926   5.486   7.052   5.159 -1.0550 -0.6426  0.4761
 2626SOL     OW14927   5.396   0.248   2.360  0.1469 -0.1484  0.3545
 2626SOL    HW114928   5.391   0.153   2.357 -0.1939 -0.1302  0.3348
 2626SOL    HW214929   5.418   0.269   2.451  2.1491 -0.3280 -0.0453
 2627SOL     OW14930   6.288  10.620  11.840 -0.3972 -0.2004 -0.0415
 2627SOL    HW114931   6.308  10.552  11.775 -0.0784  0.3641 -0.5430
 2627SOL    HW214932   6.348  10.601  11.913 -0.5432 -0.6510 -0.0318
 2628SOL     OW14933   9.783   0.684   2.013 -0.0555 -0.2812  0.4170
 2628SOL    HW114934   9.747   0.748   2.074 -0.6307 -0.5112  0.3237
 2628SOL    HW214935   9.764   0.599   2.052 -0.3189 -0.4259 -0.0232
 2629SOL     OW14936  11.129   2.400  10.105 -0.7989  0.1195  0.0688
 2629SOL    HW114937  11.221   2.378  10.092 -0.4533  1.7186 -0.4415
 2629SOL    HW214938  11.084   2.316  10.107  0.7519 -0.7416  1.0452
 2630SOL     OW14939   4.760   6.461   0.837  0.2378  0.7566 -0.2425
 2630SOL    HW114940   4.816   6.482   0.762  0.4989  0.4747 -0.1240
 2630SOL    HW214941   4.781   6.528   0.902  0.6615  0.4629 -0.0791
 2631SOL     OW14942  11.518   3.706   8.774  0.1220  0.0064  0.3926
 2631SOL    HW114943  11.549   3.756   8.698  0.6847 -0.6677  0.1667
 2631SOL    HW214944  11.464   3.637   8.737  0.6512 -0.5169  0.5645
 2632SOL     OW14945   1.594  11.988   4.251  0.4543  0.8391 -0.2354
 2632SOL    HW114946   1.581  11.944   4.167 -0.7833 -0.1439  0.4368
 2632SOL    HW214947   1.506  12.019   4.275  0.8797  1.5368  0.4802
 2633SOL     OW14948  12.066   0.782  11.478 -0.3681 -0.1766  0.0077
 2633SOL    HW114949  12.016   0.766  11.557  0.6114 -1.1410  0.4606
 2633SOL    HW214950  12.084   0.695  11.442  0.1603  0.1902 -0.6517
 2634SOL     OW14951   8.573   9.334   0.461  0.0594  0.1699  0.3611
 2634SOL    HW114952   8.612   9.326   0.374  2.8625  0.6012  1.4806
 2634SOL    HW214953   8.549   9.245   0.486 -0.6003  0.0249 -0.7269
 2635SOL     OW14954   4.046  10.124   1.473  0.0014 -0.2348 -0.3504
 2635SOL    HW114955   3.959  10.097   1.505 -0.1827  0.8239  0.0677
 2635SOL    HW214956   4.052  10.086   1.385 -0.3255 -1.4613  0.1248
 2636SOL     OW14957   7.547   8.517  11.269 -0.1578 -0.1853  0.5473
 2636SOL    HW114958   7.643   8.520  11.273 -0.1889 -0.3397  1.4032
 2636SOL    HW214959   7.526   8.569  11.191  0.6022  0.1098  0.5261
 2637SOL     OW14960  10.413   6.991  10.472 -0.5665  0.0965 -0.3928
 2637SOL    HW114961  10.472   7.036  10.532  1.1758  0.6514 -2.4060
 2637SOL    HW214962  10.329   7.036  10.483 -0.5307 -0.3017  2.0777
 2638SOL     OW14963   7.524  12.223   7.695  0.3499 -0.1319 -0.3037
 2638SOL    HW114964   7.489  12.144   7.735  2.5781 -0.9481  0.1310
 2638SOL    HW214965   7.544  12.198   7.605  2.3752 -0.5476  0.2127
 2639SOL     OW14966   0.645   9.903   8.085 -0.7205  0.0083  0.1898
 2639SOL    HW114967   0.716   9.842   8.065 -0.7802  0.2025 -0.6810
 2639SOL    HW214968   0.684   9.990   8.071 -0.8070  0.1561  0.8242
 2640SOL     OW14969   8.526   2.099  10.114 -0.0774 -0.0402  0.0220
 2640SOL    HW114970   8.463   2.065  10.176  0.1435 -2.0518 -0.7715
 2640SOL    HW214971   8.596   2.136  10.168 -1.4297  1.3200  0.9019
 2641SOL     OW14972   3.558  11.079   9.158  0.0321 -0.3837  0.1717
 2641SOL    HW114973   3.605  11.135   9.096 -1.6244 -0.0824 -0.8765
 2641SOL    HW214974   3.597  10.992   9.147 -1.2760 -0.7424 -2.6008
 2642SOL     OW14975   9.483   3.880   4.422 -0.9044 -0.3761  0.0761
 2642SOL    HW114976   9.567   3.922   4.404  0.3278 -1.6521  2.3230
 2642SOL    HW214977   9.432   3.946   4.468 -0.8903  0.2081 -0.7416
 2643SOL     OW14978   7.087   4.488   6.319 -0.5747  0.2427  0.6375
 2643SOL    HW114979   7.126   4.543   6.251 -0.3085  0.5069  0.9962
 2643SOL    HW214980   7.125   4.521   6.401  1.7300 -2.1856  0.6780
 2644SOL     OW14981   5.829   5.410  11.839  0.3382 -0.2622 -0.0700
 2644SOL    HW114982   5.915   5.369  11.832  0.9361  0.9092  0.2459
 2644SOL    HW214983   5.820   5.461  11.759  0.4703  0.6064  0.4626
 2645SOL     OW14984  12.534   7.785   8.564  0.2022 -0.3079  0.5297
 2645SOL    HW114985  12.607   7.822   8.613  0.2349  1.5629 -0.7903
 2645SOL    HW214986  12.456   7.820   8.607  0.1773 -0.0959  0.3136
 2646SOL     OW14987   5.513   7.570  10.692 -0.1446 -0.1389  0.1582
 2646SOL    HW114988   5.573   7.642  10.672  0.6104 -0.6633  0.4918
 2646SOL    HW214989   5.509   7.568  10.788 -1.3343  0.3988  0.1352
 2647SOL     OW14990   6.675   4.505   0.560 -0.1384  0.4202  0.3773
 2647SOL    HW114991   6.738   4.508   0.632  1.6966  1.2870 -1.1859
 2647SOL    HW214992   6.716   4.449   0.495 -0.7649  1.3585 -0.8630
 2648SOL     OW14993   3.954   1.957  12.466 -0.0829 -0.0941  1.2945
 2648SOL    HW114994   4.005   2.033  12.439  0.7235 -0.5955  1.3797
 2648SOL    HW214995   4.015   1.883  12.462 -0.9924 -0.8533  0.6450
 2649SOL     OW14996   2.564   7.097   1.118  0.1018 -0.2110 -0.4503
 2649SOL    HW114997   2.535   7.013   1.083 -0.3029 -1.0219  1.6977
 2649SOL    HW214998   2.492   7.125   1.175  2.0184 -0.5972  2.3385
 2650SOL     OW14999   0.725   9.064   9.332  0.4174  0.1136  0.5149
 2650SOL    HW115000   0.699   9.140   9.385  1.1616  0.6000  0.1993
 2650SOL    HW215001   0.644   9.014   9.320 -0.1070  0.9201  0.6349
 2651SOL     OW15002  10.899   6.959   7.883  0.2255  0.4053  0.5732
 2651SOL    HW115003  10.818   7.010   7.887 -1.4653 -2.1453  0.7188
 2651SOL    HW215004  10.951   7.003   7.816 -1.9394  1.2015 -0.6831
 2652SOL     OW15005   5.833   8.120   5.507  0.6742 -0.1950  0.2439
 2652SOL    HW115006   5.864   8.160   5.426  0.1953 -0.6930 -0.1865
 2652SOL    HW215007   5.841   8.190   5.573 -0.2508  0.6429 -0.5105
 2653SOL     OW15008   3.531   5.086  12.127  0.7831  0.2252  0.2391
 2653SOL    HW115009   3.526   5.001  12.170 -0.2352  0.1959  0.0885
 2653SOL    HW215010   3.443   5.123  12.136  1.2898  1.4107  0.5906
 2654SOL     OW15011   9.135   9.219   1.492 -0.1766  0.2330  0.1256
 2654SOL    HW115012   9.208   9.157   1.499 -1.2342 -1.3861 -1.9452
 2654SOL    HW215013   9.100   9.225   1.581  0.2538 -1.8193  0.4977
 2655SOL     OW15014   8.437   8.585   7.141 -0.7205  0.6521  0.1948
 2655SOL    HW115015   8.365   8.615   7.197 -0.7766 -0.0671  0.5257
 2655SOL    HW215016   8.458   8.498   7.175 -0.8343  0.1479 -0.9826
 2656SOL     OW15017   3.884   6.366   0.347  0.2240 -0.3842  0.7173
 2656SOL    HW115018   3.852   6.284   0.311 -0.8238  0.9793 -1.6537
 2656SOL    HW215019   3.844   6.434   0.292 -0.6767  1.8556  3.8360
 2657SOL     OW15020   8.653   2.581   1.549 -0.0967  0.0023  0.2280
 2657SOL    HW115021   8.614   2.598   1.463  1.2320 -0.7591 -0.5721
 2657SOL    HW215022   8.606   2.639   1.609 -4.4924 -2.8103 -0.0559
 2658SOL     OW15023   3.788   4.963   3.982  0.0355  0.0906  0.4862
 2658SOL    HW115024   3.776   4.872   4.010  2.9570 -0.3076  0.7587
 2658SOL    HW215025   3.827   4.957   3.895  0.8901  1.0405  0.7786
 2659SOL     OW15026   8.950   7.873   1.439 -0.3010  0.0331 -0.2196
 2659SOL    HW115027   9.018   7.817   1.477  0.4380 -0.4654 -2.1607
 2659SOL    HW215028   8.966   7.959   1.477  0.8747 -0.2754  0.0373
 2660SOL     OW15029   7.958  12.173  12.070  0.1336  0.6628  0.1090
 2660SOL    HW115030   7.990  12.240  12.131 -0.1833  0.1101  0.9038
 2660SOL    HW215031   7.889  12.216  12.020  0.4587  1.1498  0.0794
 2661SOL     OW15032   9.040  11.470   3.538 -0.5354 -0.3062  0.7749
 2661SOL    HW115033   8.990  11.492   3.460 -1.4962 -0.9063  1.2038
 2661SOL    HW215034   8.975  11.469   3.609  0.2453 -0.1595  1.5145
 2662SOL     OW15035   0.891   4.711   4.867  0.0414  0.0497 -0.4548
 2662SOL    HW115036   0.896   4.617   4.850 -1.2605 -0.3939  1.3381
 2662SOL    HW215037   0.964   4.728   4.927 -0.6694 -0.1815  0.5131
 2663SOL     OW15038   1.942  10.698   1.534  0.0003  0.6680 -0.2604
 2663SOL    HW115039   2.007  10.750   1.581 -0.0927  1.4844 -1.0118
 2663SOL    HW215040   1.987  10.670   1.455  0.7728 -2.2614  1.0781
 2664SOL     OW15041   8.993  12.110   0.277 -0.5203 -0.0292 -0.3461
 2664SOL    HW115042   9.015  12.114   0.370  0.2381  0.8024 -0.5431
 2664SOL    HW215043   8.944  12.191   0.260  1.7354  1.2685 -1.2118
 2665SOL     OW15044   0.565   0.239   4.071  0.1051 -0.0235 -0.5168
 2665SOL    HW115045   0.535   0.328   4.055  0.9910  0.4062  0.1673
 2665SOL    HW215046   0.650   0.234   4.028  0.8876  0.0416  0.9711
 2666SOL     OW15047   3.877   2.771   2.481  0.2566  0.5992 -0.1990
 2666SOL    HW115048   3.879   2.863   2.506  1.2456  0.4800  0.2099
 2666SOL    HW215049   3.904   2.724   2.560  2.0103  0.1235 -1.0421
 2667SOL     OW15050  11.290   9.794   7.839  0.2838 -0.5618  0.2363
 2667SOL    HW115051  11.363   9.816   7.781  1.4190 -1.7330  1.1626
 2667SOL    HW215052  11.292   9.861   7.907  0.2881 -0.4053  0.0828
 2668SOL     OW15053   9.836   2.897   4.068 -0.1637 -0.1700 -0.0664
 2668SOL    HW115054   9.785   2.932   4.141  1.1703 -1.7742  1.7361
 2668SOL    HW215055   9.776   2.900   3.993 -1.8034  0.9346  1.2184
 2669SOL     OW15056   7.222   9.662   9.592 -0.0121  0.7658  0.0752
 2669SOL    HW115057   7.227   9.567   9.605 -1.4058  0.7240  0.3862
 2669SOL    HW215058   7.240   9.699   9.679  2.1669  0.8859 -0.3538
 2670SOL     OW15059   5.120   5.936   1.716 -0.4806  0.8198  0.9692
 2670SOL    HW115060   5.130   5.850   1.674  1.2709  1.0385  0.8480
 2670SOL    HW215061   5.088   5.993   1.646  0.3265  0.7031  0.4887
 2671SOL     OW15062   4.133   0.923   0.332  1.0727  0.6147  0.4426
 2671SOL    HW115063   4.214   0.920   0.282  0.9673 -0.6740  0.3231
 2671SOL    HW215064   4.112   1.017   0.338  0.4511  0.7852 -2.9080
 2672SOL     OW15065   1.883  12.195   9.225  0.2164 -0.4436 -0.0687
 2672SOL    HW115066   1.893  12.250   9.303  1.7579 -2.1411  1.0056
 2672SOL    HW215067   1.797  12.153   9.236 -0.1223  0.2793  0.0644
 2673SOL     OW15068   6.756  12.072  12.320  0.3350 -0.4463  0.1719
 2673SOL    HW115069   6.734  12.008  12.252  0.1936 -0.6793  0.4366
 2673SOL    HW215070   6.686  12.137  12.315  0.7954  0.0156 -0.5014
 2674SOL     OW15071   6.346   7.531   2.023  0.1170 -0.5572  0.3466
 2674SOL    HW115072   6.415   7.472   2.054 -0.2353 -1.0927  0.1213
 2674SOL    HW215073   6.301   7.558   2.103 -0.1806 -1.1784  0.3997
 2675SOL     OW15074   7.412   1.883  10.062 -0.1345 -0.3011 -0.7742
 2675SOL    HW115075   7.323   1.865  10.091  0.3273 -0.5057  0.5974
 2675SOL    HW215076   7.436   1.806  10.010 -1.1811  0.3316 -2.2703
 2676SOL     OW15077   2.924  12.235   1.869  0.1854 -0.1298  0.0782
 2676SOL    HW115078   2.875  12.283   1.803 -0.0577 -0.3080  0.1266
 2676SOL    HW215079   2.857  12.184   1.915  0.4102 -0.3279  0.1837
 2677SOL     OW15080   3.195   2.069   0.930  0.2270  0.3977  0.0902
 2677SOL    HW115081   3.100   2.066   0.946  0.2492 -1.1848  0.0877
 2677SOL    HW215082   3.216   2.162   0.931 -1.2734  0.7691  0.4301
 2678SOL     OW15083   7.344   1.476   7.253 -0.0435 -0.1074 -0.2358
 2678SOL    HW115084   7.315   1.460   7.164 -0.2186 -0.1314 -0.1735
 2678SOL    HW215085   7.293   1.552   7.282 -1.1156 -1.0277  0.3870
 2679SOL     OW15086   8.761   3.992   2.900 -0.2004  0.4090 -0.7113
 2679SOL    HW115087   8.815   4.063   2.866 -0.1069 -0.3849 -2.2870
 2679SOL    HW215088   8.672   4.028   2.902 -0.0267  0.8426 -0.6506
 2680SOL     OW15089   9.993  11.419  10.991  0.1609 -0.0670  0.1505
 2680SOL    HW115090  10.030  11.458  10.911 -1.0727  1.0385  0.0785
 2680SOL    HW215091  10.068  11.381  11.036  0.9851 -0.0987 -1.1980
 2681SOL     OW15092   1.568   8.565  11.617  0.0713 -0.1329 -0.3134
 2681SOL    HW115093   1.533   8.582  11.705  2.2581  1.7952  0.2759
 2681SOL    HW215094   1.589   8.651  11.582  0.7695 -0.9730 -2.1045
 2682SOL     OW15095  10.938   2.811   1.684  0.3973 -0.2557  0.5474
 2682SOL    HW115096  10.946   2.895   1.639  1.2117 -1.3619 -1.4808
 2682SOL    HW215097  10.959   2.745   1.618 -0.5869 -2.1125  1.9594
 2683SOL     OW15098  11.228   1.320  10.067 -0.1737 -0.9980  0.4175
 2683SOL    HW115099  11.146   1.359  10.036  0.7301  0.2411 -0.4750
 2683SOL    HW215100  11.212   1.226  10.063 -1.5993 -0.7819  0.3927
 2684SOL     OW15101   5.568  10.039   6.085 -0.6219 -0.2551 -0.3637
 2684SOL    HW115102   5.653  10.075   6.111  0.0311 -1.4850 -0.7303
 2684SOL    HW215103   5.520  10.115   6.050  0.0419  0.5963  0.5161
 2685SOL     OW15104  11.226   8.492   1.517  0.2350 -0.0254  0.0420
 2685SOL    HW115105  11.296   8.492   1.582  0.4923 -3.0911 -0.1098
 2685SOL    HW215106  11.247   8.565   1.459  1.6684  0.8867  1.6056
 2686SOL     OW15107   4.102  10.619   5.790  0.1639  0.0500  0.5013
 2686SOL    HW115108   4.110  10.597   5.697  2.4768  2.1139  0.1252
 2686SOL    HW215109   4.181  10.582   5.830  0.6747  1.6988  1.0743
 2687SOL     OW15110  11.623   2.528   7.642 -0.4003 -0.6113 -0.1680
 2687SOL    HW115111  11.692   2.590   7.617 -0.6779  0.5837  1.8691
 2687SOL    HW215112  11.541   2.573   7.621 -0.5987 -1.0571 -0.3748
 2688SOL     OW15113  10.646  11.585   2.215  0.1815 -0.0213 -0.0474
 2688SOL    HW115114  10.560  11.620   2.237  0.6171  0.6174  0.6834
 2688SOL    HW215115  10.684  11.558   2.298  0.2435 -1.3913 -0.4882
 2689SOL     OW15116   0.404   4.119  10.134  0.0609 -0.2263  0.2364
 2689SOL    HW115117   0.317   4.087  10.157 -0.9137  2.9249  1.3965
 2689SOL    HW215118   0.460   4.092  10.208 -0.2518 -0.9254  0.2256
 2690SOL     OW15119   6.137   3.728   8.299 -0.2852  0.0447  0.1065
 2690SOL    HW115120   6.228   3.735   8.270  0.0582 -0.8052  0.9515
 2690SOL    HW215121   6.133   3.645   8.347 -1.4826  0.1229  0.1738
 2691SOL     OW15122   6.670   1.647   0.246 -0.8152  0.3933  0.1718
 2691SOL    HW115123   6.600   1.582   0.253 -0.5858  0.0859 -0.3293
 2691SOL    HW215124   6.751   1.596   0.243 -0.7520  0.4476 -3.1192
 2692SOL     OW15125   0.405  11.909   5.493 -0.8089 -0.0988  0.6267
 2692SOL    HW115126   0.328  11.903   5.436 -0.0462 -0.7917 -0.3824
 2692SOL    HW215127   0.403  11.829   5.545  0.1252 -1.0066 -0.6444
 2693SOL     OW15128   1.736  12.301   2.511 -0.1226  0.7805 -0.3939
 2693SOL    HW115129   1.760  12.383   2.468 -0.9447  1.2376 -0.0080
 2693SOL    HW215130   1.658  12.271   2.464  0.5595 -0.1501 -0.9730
 2694SOL     OW15131  10.043   0.238   1.710 -0.8595  0.3592 -0.0600
 2694SOL    HW115132   9.948   0.243   1.698 -0.7132 -0.0156 -1.7089
 2694SOL    HW215133  10.078   0.264   1.625  0.4878 -0.4194  0.2368
 2695SOL     OW15134   2.156  11.045   6.817 -1.0016  0.0743 -0.2867
 2695SOL    HW115135   2.097  11.068   6.745 -0.2150 -1.7360 -1.5871
 2695SOL    HW215136   2.229  11.106   6.809 -0.9756 -0.0390 -0.9494
 2696SOL     OW15137  11.068   8.135   7.243 -0.9978  0.0029 -0.2665
 2696SOL    HW115138  11.141   8.155   7.301 -0.7024  2.4305 -1.3416
 2696SOL    HW215139  11.104   8.074   7.178 -0.6053 -0.6135  0.5142
 2697SOL     OW15140   8.728   0.011  10.848 -0.7609 -0.3918 -0.3736
 2697SOL    HW115141   8.711   0.090  10.797  1.6841  1.0222  0.8304
 2697SOL    HW215142   8.755   0.043  10.934 -0.1155 -2.5536  0.2942
 2698SOL     OW15143  11.158   3.835  10.340 -0.5742  0.2186 -0.2067
 2698SOL    HW115144  11.214   3.811  10.266  0.6536 -0.5224  0.9251
 2698SOL    HW215145  11.073   3.795  10.319 -0.3328  0.2430 -1.3203
 2699SOL     OW15146  11.824   7.911   1.207  0.0088  0.9218 -0.3313
 2699SOL    HW115147  11.766   7.922   1.283  0.0015  2.5133 -0.5221
 2699SOL    HW215148  11.911   7.934   1.240 -0.0039  1.6874 -0.7916
 2700SOL     OW15149   9.881   8.319   2.450  0.0921 -0.1485 -0.2447
 2700SOL    HW115150   9.904   8.309   2.543  1.2584  1.8504 -0.2546
 2700SOL    HW215151   9.825   8.398   2.448  0.0275 -0.2077 -1.2369
 2701SOL     OW15152  12.204   1.035   4.722  0.4512 -0.0527 -0.4033
 2701SOL    HW115153  12.133   1.094   4.745  1.6109  1.3501 -0.2475
 2701SOL    HW215154  12.284   1.085   4.741  1.5102 -1.9371  0.4735
 2702SOL     OW15155   6.457   0.176  10.878  0.2120 -1.0034 -0.1360
 2702SOL    HW115156   6.427   0.198  10.966 -0.7444  0.7652 -0.8619
 2702SOL    HW215157   6.552   0.189  10.882  0.3375 -1.9785  0.8784
 2703SOL     OW15158   4.880   7.420   0.885  0.1065 -0.0943 -0.0774
 2703SOL    HW115159   4.813   7.374   0.833  0.7973  0.1312 -1.1876
 2703SOL    HW215160   4.945   7.353   0.904 -1.0209 -0.6605  2.1567
 2704SOL     OW15161   1.405  12.261   8.254 -0.2684 -0.8586  0.9608
 2704SOL    HW115162   1.463  12.237   8.326  1.2239  0.6524  0.3308
 2704SOL    HW215163   1.454  12.239   8.175 -1.3513 -1.2961  0.3937
 2705SOL     OW15164   6.727   2.539  11.028  0.1577  0.2370  0.2826
 2705SOL    HW115165   6.797   2.593  10.991 -0.1993  1.3959  1.2437
 2705SOL    HW215166   6.748   2.535  11.122  0.2102 -1.3720  0.2347
 2706SOL     OW15167  10.473   8.257   4.244  0.7996 -0.7471  0.2931
 2706SOL    HW115168  10.461   8.339   4.195  1.7765 -0.9260 -0.2695
 2706SOL    HW215169  10.438   8.189   4.186  0.0246 -0.7481  0.7444
 2707SOL     OW15170   2.891   3.304   1.119  0.1753  0.2141 -0.2688
 2707SOL    HW115171   2.873   3.380   1.063 -0.9692  1.3427  1.5246
 2707SOL    HW215172   2.888   3.229   1.059 -3.5973  1.0419 -1.4153
 2708SOL     OW15173   3.769   4.689   7.857 -0.3482 -0.5985 -0.6306
 2708SOL    HW115174   3.851   4.680   7.808 -0.5641  0.6512 -1.2861
 2708SOL    HW215175   3.701   4.693   7.789 -1.0192 -2.0360 -0.0824
 2709SOL     OW15176  10.484   8.689  10.583  0.4425  0.3895  0.1608
 2709SOL    HW115177  10.512   8.646  10.663  1.5823  0.1458 -0.3345
 2709SOL    HW215178  10.500   8.624  10.514  1.2130  1.2174 -0.4694
 2710SOL     OW15179   9.379  11.057   9.385 -0.2984  0.2244 -0.0864
 2710SOL    HW115180   9.319  11.111   9.436  2.1207 -0.4806  3.8796
 2710SOL    HW215181   9.427  11.005   9.449  3.0572 -0.8628 -3.0993
 2711SOL     OW15182   2.442   9.198   0.301 -0.7534  0.0875  0.3745
 2711SOL    HW115183   2.471   9.144   0.374  1.0880  0.0088 -0.3621
 2711SOL    HW215184   2.458   9.145   0.223 -0.4642  1.0527 -0.2472
 2712SOL     OW15185   8.452   2.226  10.497 -0.2394 -0.2836 -0.1229
 2712SOL    HW115186   8.476   2.310  10.536 -0.1373 -0.3937  0.0542
 2712SOL    HW215187   8.527   2.168  10.515 -0.9921 -0.8887  1.2306
 2713SOL     OW15188   6.963   3.504   0.094  0.2001 -0.3420 -0.2101
 2713SOL    HW115189   7.013   3.483   0.173  0.2241 -0.1795 -0.1810
 2713SOL    HW215190   6.895   3.436   0.089  1.4505 -1.5820 -1.1821
 2714SOL     OW15191   9.066   5.579   7.601  0.6011 -0.5847  0.4925
 2714SOL    HW115192   9.006   5.527   7.655 -0.1936  0.5369  0.7303
 2714SOL    HW215193   9.010   5.614   7.531  1.5740 -1.8508 -0.9780
 2715SOL     OW15194   2.298   0.879   1.159  0.2001  0.0022 -0.3387
 2715SOL    HW115195   2.371   0.824   1.184  1.1645  1.9608  1.4843
 2715SOL    HW215196   2.308   0.892   1.065 -0.3346 -3.1522 -0.9430
 2716SOL     OW15197  11.753   9.167   0.352 -0.5279  0.3161  0.5442
 2716SOL    HW115198  11.794   9.253   0.344  0.9319 -0.5121 -2.7096
 2716SOL    HW215199  11.810   9.118   0.410 -0.4586  1.0620  1.1123
 2717SOL     OW15200   6.672   9.346   7.882  0.4120 -0.2700 -0.1262
 2717SOL    HW115201   6.734   9.345   7.810  0.0899 -1.1402 -0.3957
 2717SOL    HW215202   6.715   9.298   7.953  0.2398 -0.4720 -0.1559
 2718SOL     OW15203   8.932   2.518   4.727  0.0982 -0.5627 -0.1800
 2718SOL    HW115204   8.955   2.469   4.648 -0.3300 -0.7739 -0.1768
 2718SOL    HW215205   8.846   2.484   4.752  0.1445 -0.3561  0.2642
 2719SOL     OW15206   3.962   8.471  10.439  0.1238 -0.3923 -0.0149
 2719SOL    HW115207   3.869   8.492  10.440  0.4881  1.4107  0.3292
 2719SOL    HW215208   3.971   8.393  10.493 -1.0646 -0.0062  0.7600
 2720SOL     OW15209  12.467   4.264   9.682  0.0496  0.1672  0.6643
 2720SOL    HW115210  12.424   4.194   9.732 -1.5789  0.7038  0.0589
 2720SOL    HW215211  12.518   4.312   9.748 -0.2156 -0.5266  1.3934
 2721SOL     OW15212  11.134  10.513   7.354 -0.3710  0.1755  0.0733
 2721SOL    HW115213  11.221  10.520   7.314  0.4109  0.7155  1.7445
 2721SOL    HW215214  11.080  10.472   7.287  0.5380  2.0249 -1.9421
 2722SOL     OW15215   2.644   8.494   7.385  0.4468  0.2907  0.1344
 2722SOL    HW115216   2.704   8.541   7.327  1.5732  0.8601  1.6717
 2722SOL    HW215217   2.694   8.484   7.467 -2.2594  2.6665  2.2671
 2723SOL     OW15218   6.902   0.315  12.542  0.3676  0.1840 -0.4818
 2723SOL    HW115219   6.933   0.275  12.460 -0.4499  0.2452 -0.8278
 2723SOL    HW215220   6.965   0.384  12.560  0.5752  0.1445 -1.0405
 2724SOL     OW15221   9.444   3.813   1.479  0.0160  0.2698  0.3669
 2724SOL    HW115222   9.464   3.732   1.525  0.0306  1.0773  1.8291
 2724SOL    HW215223   9.508   3.876   1.513  1.3958  0.4219 -2.2652
 2725SOL     OW15224   0.789   6.947   1.856  0.4947 -0.1954  0.4392
 2725SOL    HW115225   0.796   7.011   1.785  0.0384  1.0154  1.4479
 2725SOL    HW215226   0.704   6.964   1.896  0.9342 -0.5458  1.5596
 2726SOL     OW15227   6.325   0.576   7.253 -0.2396 -0.3981  0.3371
 2726SOL    HW115228   6.303   0.491   7.290 -0.9352 -0.0289  0.7890
 2726SOL    HW215229   6.335   0.634   7.329 -0.7061  0.1382  0.0002
 2727SOL     OW15230   1.630   3.392  10.277  0.6032 -0.0483  0.7143
 2727SOL    HW115231   1.570   3.391  10.351  0.3746 -2.3231  0.5801
 2727SOL    HW215232   1.574   3.404  10.200  0.7362  1.3318  0.8130
 2728SOL     OW15233   9.916   3.805   0.584  0.2241  0.2976  0.1788
 2728SOL    HW115234   9.934   3.894   0.613 -0.7752  1.9593 -3.6674
 2728SOL    HW215235   9.822   3.795   0.594  0.2945 -0.2200  0.3397
 2729SOL     OW15236  10.378   5.343   2.062 -0.1407 -0.0689 -0.4735
 2729SOL    HW115237  10.378   5.259   2.108 -0.2076 -0.4730 -1.1820
 2729SOL    HW215238  10.470   5.371   2.062  0.1465 -0.9095 -1.5471
 2730SOL     OW15239   4.770   2.385   2.864  0.0117  0.1593 -0.1349
 2730SOL    HW115240   4.833   2.430   2.809 -0.3683  0.2360 -0.5086
 2730SOL    HW215241   4.734   2.315   2.809 -0.8093  0.6117 -0.1931
 2731SOL     OW15242   4.916   5.179   2.308 -0.4672  0.4910  0.2601
 2731SOL    HW115243   4.947   5.093   2.335 -1.0105 -0.3086 -1.4995
 2731SOL    HW215244   4.995   5.233   2.304 -0.1215  0.1015  1.3825
 2732SOL     OW15245   6.205  11.119  10.072 -0.1655 -0.0067  0.3024
 2732SOL    HW115246   6.257  11.199  10.079 -0.3093  0.0155  1.2365
 2732SOL    HW215247   6.156  11.115  10.154 -1.3097 -0.2597 -0.3669
 2733SOL     OW15248   6.550   3.041   6.036  0.5929  0.0004 -0.1434
 2733SOL    HW115249   6.455   3.045   6.048  0.6460 -0.3906  0.4359
 2733SOL    HW215250   6.568   2.950   6.016  0.8774  0.0226  0.0105
 2734SOL     OW15251   8.971   2.122   9.660  0.3269 -0.5921 -0.1803
 2734SOL    HW115252   8.959   2.089   9.749 -0.0720  1.2806  0.5020
 2734SOL    HW215253   9.040   2.066   9.624 -0.6616 -2.4830  0.6832
 2735SOL     OW15254   1.055   6.345   8.995  0.2694 -0.0706 -0.2735
 2735SOL    HW115255   1.092   6.257   9.003  0.8866  0.0080 -1.9476
 2735SOL    HW215256   1.122   6.395   8.950 -0.4244  1.0546 -0.0806
 2736SOL     OW15257   5.974  12.170   0.013 -0.5940  0.4978  0.0544
 2736SOL    HW115258   6.006  12.170  -0.077 -0.4621  0.1179  0.1005
 2736SOL    HW215259   6.005  12.252   0.050 -0.1936  0.4082 -0.0833
 2737SOL     OW15260   0.302   8.977   9.840 -0.2261 -0.2643 -0.3125
 2737SOL    HW115261   0.357   8.948   9.768  0.4480 -1.1713  0.5361
 2737SOL    HW215262   0.309   9.072   9.839 -0.6575 -0.2318 -1.7564
 2738SOL     OW15263   4.577   3.341   1.946  0.0010  0.1073 -0.7756
 2738SOL    HW115264   4.550   3.250   1.959  1.0725 -0.2514 -0.9502
 2738SOL    HW215265   4.672   3.337   1.937  0.1535  1.3372 -0.0386
 2739SOL     OW15266   6.728   3.432   1.317  0.1967 -0.1308 -0.8003
 2739SOL    HW115267   6.703   3.374   1.389  5.1001 -0.2769  1.1586
 2739SOL    HW215268   6.756   3.513   1.360  2.4836  0.0865 -2.4895
 2740SOL     OW15269   9.810   3.164   1.907  0.6672  0.4485  0.3588
 2740SOL    HW115270   9.779   3.127   1.990 -2.1168 -1.4642 -1.3826
 2740SOL    HW215271   9.867   3.096   1.870 -2.2581 -1.1978 -1.5555
 2741SOL     OW15272   8.227   6.651  11.643 -0.3497  0.8631 -0.3830
 2741SOL    HW115273   8.266   6.733  11.612 -0.6365  1.1033 -0.1161
 2741SOL    HW215274   8.294   6.613  11.700 -0.5895  1.4003  0.2791
 2742SOL     OW15275   2.499   9.864   9.828  0.9347  0.0961  0.4104
 2742SOL    HW115276   2.446   9.814   9.891  0.9149 -0.2502  0.1196
 2742SOL    HW215277   2.584   9.873   9.871  0.4446  1.2667  1.1856
 2743SOL     OW15278   3.625  10.798   9.678  0.0804  0.1473  0.2331
 2743SOL    HW115279   3.593  10.735   9.743 -1.6988  1.3798  0.6221
 2743SOL    HW215280   3.546  10.836   9.640  1.0931  2.0235 -0.1170
 2744SOL     OW15281   8.934  11.462   7.646  0.1597  1.0595 -0.4841
 2744SOL    HW115282   8.988  11.439   7.722  1.0810  0.1940 -1.3806
 2744SOL    HW215283   8.960  11.551   7.624  2.0279  0.2907 -1.5499
 2745SOL     OW15284   7.188   8.548   5.389 -0.4955  0.0113  0.5101
 2745SOL    HW115285   7.148   8.483   5.447  1.2861 -0.6893  1.0260
 2745SOL    HW215286   7.129   8.554   5.315 -2.9588  1.0347  2.4034
 2746SOL     OW15287   0.861   9.990  10.120  0.4689 -0.2110  0.1193
 2746SOL    HW115288   0.931  10.027  10.173 -0.1779 -1.0411  1.6373
 2746SOL    HW215289   0.902   9.918  10.072  0.7587 -0.4167  0.6679
 2747SOL     OW15290   1.769   4.997   6.394  0.3817 -0.1461  0.0345
 2747SOL    HW115291   1.689   4.967   6.350  0.1892  0.2323  0.1222
 2747SOL    HW215292   1.796   5.074   6.345  0.0104  0.4415  0.7397
 2748SOL     OW15293   4.921  11.727  11.589  0.5211 -0.2410 -0.3582
 2748SOL    HW115294   4.940  11.657  11.527  0.1573 -1.4020  0.7955
 2748SOL    HW215295   5.000  11.733  11.643  0.8444  0.7787 -0.9069
 2749SOL     OW15296   8.875   5.110   7.982 -0.0336  0.2880  0.5893
 2749SOL    HW115297   8.938   5.092   8.052  1.1173  0.1137 -0.4671
 2749SOL    HW215298   8.884   5.204   7.965  0.7586  0.0625 -0.3111
 2750SOL     OW15299   4.583  11.692  12.186 -0.0276  0.6757 -0.5419
 2750SOL    HW115300   4.517  11.652  12.242 -0.5122 -0.2869 -1.7563
 2750SOL    HW215301   4.534  11.730  12.113  0.5751  2.0227 -0.2740
 2751SOL     OW15302   4.325   2.021  10.561  0.5724 -0.6369 -0.0650
 2751SOL    HW115303   4.244   1.989  10.521 -0.0470  0.7529  0.0165
 2751SOL    HW215304   4.296   2.083  10.628  1.6973  0.2484 -0.3649
 2752SOL     OW15305   6.027  12.266   6.010  0.5214  0.4222  0.3112
 2752SOL    HW115306   6.029  12.337   5.946  1.5015  0.7278  0.6536
 2752SOL    HW215307   5.957  12.209   5.981 -1.5374  2.4170  0.9974
 2753SOL     OW15308   7.493   2.374   2.767 -0.2731 -0.1793  0.2217
 2753SOL    HW115309   7.475   2.362   2.674 -0.5026 -0.4980  0.3056
 2753SOL    HW215310   7.512   2.286   2.799  1.4273  0.1117  0.1414
 2754SOL     OW15311  10.047   6.925   3.478  0.4504 -0.7080  0.0945
 2754SOL    HW115312   9.983   6.934   3.549 -0.9003 -1.4980 -0.9607
 2754SOL    HW215313  10.036   6.834   3.448  0.4634 -0.1778 -1.5975
 2755SOL     OW15314   3.657   3.137   9.526 -0.3191  0.1733 -0.1104
 2755SOL    HW115315   3.596   3.132   9.452 -0.8791  1.1340  0.2666
 2755SOL    HW215316   3.730   3.081   9.500  0.1268  1.5176 -1.9770
 2756SOL     OW15317   7.704   7.130  11.171  0.2491 -0.0190 -0.4119
 2756SOL    HW115318   7.673   7.209  11.214  0.1740  0.3450 -1.1304
 2756SOL    HW215319   7.668   7.058  11.224  0.3899  0.4172  0.2923
 2757SOL     OW15320   2.795   6.188   6.250  0.2575  0.3614 -0.0199
 2757SOL    HW115321   2.755   6.238   6.322  0.3826 -0.5713  0.7106
 2757SOL    HW215322   2.801   6.251   6.178  0.4737  1.4239  0.9036
 2758SOL     OW15323   4.894  12.539   8.680  0.4788  0.5344  0.6524
 2758SOL    HW115324   4.857  12.454   8.705  0.1700  1.2466  2.8130
 2758SOL    HW215325   4.842  12.603   8.729  1.2982  1.9166 -0.2322
 2759SOL     OW15326   1.505   0.238   9.662 -0.3645 -0.8129 -0.0109
 2759SOL    HW115327   1.529   0.267   9.750 -0.6020 -0.0215 -0.1984
 2759SOL    HW215328   1.430   0.180   9.676 -1.1212  0.1931  0.2346
 2760SOL     OW15329   0.961   9.103   1.621 -0.2598  0.0811 -0.0954
 2760SOL    HW115330   1.031   9.128   1.681  0.1299  1.7545 -1.2120
 2760SOL    HW215331   1.004   9.089   1.537 -1.2710  1.2920 -0.8434
 2761SOL     OW15332   6.339   6.850   5.398 -0.2996 -0.3114  0.2958
 2761SOL    HW115333   6.286   6.920   5.358  0.6830  0.0506 -0.4161
 2761SOL    HW215334   6.336   6.779   5.334 -0.8602 -0.7347  0.7816
 2762SOL     OW15335  10.966   7.368  10.577  0.6029 -0.0420 -0.1267
 2762SOL    HW115336  10.951   7.402  10.665  0.5675 -0.7755  0.1548
 2762SOL    HW215337  10.905   7.295  10.568  1.1634 -0.4824 -0.4624
 2763SOL     OW15338   3.172   7.238  10.508 -0.0439  0.3698  0.5407
 2763SOL    HW115339   3.127   7.241  10.593 -0.3515  2.0047  0.3595
 2763SOL    HW215340   3.264   7.222  10.530 -0.3889 -1.1276  1.0376
 2764SOL     OW15341   0.411   9.641   5.454 -0.1245  0.2411 -0.1704
 2764SOL    HW115342   0.371   9.580   5.392  1.0357  0.0581 -0.7597
 2764SOL    HW215343   0.393   9.728   5.416  0.3042  0.1444 -0.6075
 2765SOL     OW15344   7.569  10.881   4.248 -0.3889  0.5437  0.4887
 2765SOL    HW115345   7.512  10.900   4.173  0.6027  1.0946 -0.1427
 2765SOL    HW215346   7.535  10.935   4.319 -1.7482 -0.4731  0.6487
 2766SOL     OW15347  11.520   0.983   1.826  0.3144  0.1615  0.3818
 2766SOL    HW115348  11.496   0.991   1.918 -1.8949 -0.3722 -0.0862
 2766SOL    HW215349  11.539   0.890   1.814  1.5782  0.3877  0.4772
 2767SOL     OW15350   8.934  11.728  10.121  0.4039 -0.2164 -0.9655
 2767SOL    HW115351   8.989  11.739  10.044  1.0200 -0.4719 -0.5690
 2767SOL    HW215352   8.995  11.713  10.193 -0.1686 -0.1896 -0.4587
 2768SOL     OW15353   5.569   5.437   7.119  0.0683 -0.3708 -0.3269
 2768SOL    HW115354   5.604   5.510   7.170 -0.1745  0.2074 -0.9597
 2768SOL    HW215355   5.643   5.407   7.066  0.7230 -1.9367  1.3923
 2769SOL     OW15356   2.087   4.196   4.356  0.5690 -0.1103 -0.6123
 2769SOL    HW115357   2.149   4.158   4.418  0.3394 -1.3474 -1.1179
 2769SOL    HW215358   2.002   4.164   4.385  0.2774  0.6380 -0.6129
 2770SOL     OW15359   9.513   3.920   1.224  0.1734 -0.3031  0.0516
 2770SOL    HW115360   9.609   3.912   1.221  0.1475 -1.0296  0.5959
 2770SOL    HW215361   9.488   3.870   1.302 -0.6636 -0.2416 -0.1682
 2771SOL     OW15362   0.494   5.806   1.289 -0.1296 -0.6238  0.3974
 2771SOL    HW115363   0.579   5.823   1.249  0.2602  0.3380  1.5619
 2771SOL    HW215364   0.444   5.886   1.273 -0.0831 -0.3535  1.4738
 2772SOL     OW15365   8.529  11.183  10.835  0.5960 -0.6753  0.0434
 2772SOL    HW115366   8.623  11.161  10.831  0.9161  0.5472  0.3339
 2772SOL    HW215367   8.516  11.215  10.924 -0.4317 -2.1750  0.4524
 2773SOL     OW15368   4.592   9.304   1.345 -0.1677  0.2647  0.2270
 2773SOL    HW115369   4.652   9.296   1.270  0.1284 -0.2933  0.5094
 2773SOL    HW215370   4.556   9.392   1.337 -2.0860 -0.6143 -2.0081
 2774SOL     OW15371   4.881   0.884  10.102 -0.1844  0.3242 -0.4218
 2774SOL    HW115372   4.914   0.819  10.040  0.9699 -1.3195  1.7497
 2774SOL    HW215373   4.786   0.879  10.093 -0.1198 -1.4856 -0.5615
 2775SOL     OW15374   0.651  10.554   8.591 -0.2045  0.8126  0.2476
 2775SOL    HW115375   0.714  10.501   8.543  0.0373  1.5711 -0.2852
 2775SOL    HW215376   0.699  10.587   8.667 -0.1993  0.7042  0.2903
 2776SOL     OW15377   4.393  10.328   0.768  0.1873  0.0457  0.0189
 2776SOL    HW115378   4.297  10.323   0.774  0.2582 -0.5275  0.8005
 2776SOL    HW215379   4.409  10.402   0.709 -0.7629 -1.0456 -1.7189
 2777SOL     OW15380   0.459   7.105   7.242 -1.1361  0.5478 -0.1086
 2777SOL    HW115381   0.368   7.076   7.242 -1.0107  0.0866  0.8755
 2777SOL    HW215382   0.508   7.030   7.208 -1.0356  0.4092  0.3240
 2778SOL     OW15383  10.685   7.179   0.410 -0.0359 -0.0973  0.2764
 2778SOL    HW115384  10.757   7.166   0.472 -0.1143  1.1236  0.6400
 2778SOL    HW215385  10.665   7.272   0.416 -2.0879 -0.5282  0.6582
 2779SOL     OW15386   2.587  10.263   0.742  0.1066 -0.0401 -0.3113
 2779SOL    HW115387   2.505  10.304   0.714 -1.3730 -1.9330  1.0168
 2779SOL    HW215388   2.624  10.325   0.804 -0.9250  0.3206 -0.0377
 2780SOL     OW15389   2.711   7.111   7.071  0.1355 -0.1028  0.2619
 2780SOL    HW115390   2.721   7.055   7.147 -0.0121  0.6545  0.8550
 2780SOL    HW215391   2.798   7.113   7.030  0.7364  1.0070  1.5125
 2781SOL     OW15392   2.681   1.872   8.641 -0.3852 -0.1290 -0.0295
 2781SOL    HW115393   2.674   1.889   8.547 -0.7998  1.3129  0.2315
 2781SOL    HW215394   2.761   1.822   8.651  0.8160  1.4980 -0.9758
 2782SOL     OW15395   0.013   1.602  10.258 -0.4990  0.4329  0.3975
 2782SOL    HW115396  -0.051   1.532  10.275  0.0781 -0.2425 -0.1671
 2782SOL    HW215397  -0.030   1.681  10.290 -1.1202 -0.1935  1.1524
 2783SOL     OW15398   2.032   6.527   7.721  0.8054 -0.0019  0.4584
 2783SOL    HW115399   1.940   6.505   7.708  0.7112  0.7641 -0.1662
 2783SOL    HW215400   2.040   6.538   7.816  0.9226 -2.9826  0.9018
 2784SOL     OW15401   4.453   7.937   3.529 -0.6334 -1.2399  0.2156
 2784SOL    HW115402   4.497   8.021   3.536 -2.0340 -0.4516  0.0532
 2784SOL    HW215403   4.397   7.946   3.452 -1.7670 -1.8264  0.9291
 2785SOL     OW15404  11.413  11.143   6.229  0.2881  0.3322 -0.0951
 2785SOL    HW115405  11.417  11.211   6.163  0.8768  0.1760 -0.2273
 2785SOL    HW215406  11.500  11.104   6.229 -0.5845 -1.8455 -1.5358
 2786SOL     OW15407   4.853  11.617   9.363  0.1583 -0.2377 -0.8151
 2786SOL    HW115408   4.896  11.532   9.373 -2.8039 -2.0925 -2.3651
 2786SOL    HW215409   4.805  11.609   9.281 -1.0878  2.5719 -0.4459
 2787SOL     OW15410   9.072   3.671   0.244  0.1355  0.0900 -0.4459
 2787SOL    HW115411   8.982   3.642   0.259 -0.1345  1.2133  0.1907
 2787SOL    HW215412   9.083   3.747   0.300  1.7178 -0.4222  0.0050
 2788SOL     OW15413   6.306   4.095   8.328  0.0888  0.2346 -0.0208
 2788SOL    HW115414   6.401   4.085   8.335  0.1061 -0.5373 -1.1222
 2788SOL    HW215415   6.284   4.055   8.244 -1.2687  0.0381  0.4132
 2789SOL     OW15416   9.746   4.394  11.548 -0.4479 -0.0717  0.2343
 2789SOL    HW115417   9.841   4.388  11.532 -0.6455 -0.4964 -0.8541
 2789SOL    HW215418   9.729   4.326  11.613 -0.2116 -0.9426 -0.5900
 2790SOL     OW15419   6.443   4.934   6.288  0.3900  0.0019 -0.0181
 2790SOL    HW115420   6.519   4.892   6.247  0.1314  0.1114 -0.6147
 2790SOL    HW215421   6.433   4.888   6.372 -0.9071 -2.3124 -1.3602
 2791SOL     OW15422   3.977   6.406   7.140 -1.1863 -0.1002  0.0618
 2791SOL    HW115423   3.905   6.404   7.204 -0.5292 -0.2261  0.8132
 2791SOL    HW215424   4.005   6.498   7.139  0.1800 -0.4629  1.5512
 2792SOL     OW15425   2.282  12.275   0.202 -0.3445 -0.0232 -0.2477
 2792SOL    HW115426   2.350  12.343   0.202 -0.3253 -0.0425 -0.2485
 2792SOL    HW215427   2.250  12.273   0.112  0.4104 -0.7855 -0.5061
 2793SOL     OW15428  10.592   1.846   0.604  0.4066  0.2227 -0.3013
 2793SOL    HW115429  10.657   1.792   0.558  0.7714  0.6837 -0.3320
 2793SOL    HW215430  10.624   1.935   0.594 -0.3392  0.4689 -0.4716
 2794SOL     OW15431   3.563   8.948   8.436 -0.2458 -0.1256 -0.0885
 2794SOL    HW115432   3.585   8.855   8.438 -1.4019 -0.4046 -0.1423
 2794SOL    HW215433   3.482   8.953   8.386 -0.0910  0.9394 -0.2583
 2795SOL     OW15434   7.845  11.696   0.701  0.1335 -0.0530 -0.3990
 2795SOL    HW115435   7.753  11.679   0.683 -0.3614  1.3873  0.5780
 2795SOL    HW215436   7.844  11.770   0.763  1.8567 -1.5619  1.5762
 2796SOL     OW15437   1.451  10.596   2.819 -0.3454 -0.1149  0.0562
 2796SOL    HW115438   1.528  10.547   2.847 -1.2608 -1.1309  0.8821
 2796SOL    HW215439   1.390  10.529   2.788 -0.9974  0.6461 -0.3387
 2797SOL     OW15440  12.019   3.037  11.043  0.5307  0.1250 -0.4819
 2797SOL    HW115441  12.089   3.100  11.035  0.2590  0.2832 -1.7640
 2797SOL    HW215442  11.945   3.075  10.995 -0.4141 -0.0748  0.7470
 2798SOL     OW15443  11.578   3.355  11.627  0.1803  0.4477  0.2900
 2798SOL    HW115444  11.632   3.302  11.685 -0.0218  1.4059  1.3861
 2798SOL    HW215445  11.636   3.375  11.553  0.8577  0.2733  0.7626
 2799SOL     OW15446   0.354   0.636   8.913 -0.3936  0.2177 -0.2279
 2799SOL    HW115447   0.299   0.697   8.864 -0.2356 -0.1359 -0.8682
 2799SOL    HW215448   0.385   0.686   8.988  0.0033  1.0481 -0.9193
 2800SOL     OW15449   7.424  11.974   3.972  0.0057 -0.0418 -0.1543
 2800SOL    HW115450   7.519  11.974   3.987  0.0432 -1.3360 -0.3066
 2800SOL    HW215451   7.390  12.033   4.040  0.8872  0.1766  0.1169
 2801SOL     OW15452   8.653   2.702  11.040 -0.0435  0.0497  0.7633
 2801SOL    HW115453   8.656   2.606  11.038 -0.5871  0.0259  0.9734
 2801SOL    HW215454   8.566   2.722  11.076 -0.6137  0.6296 -0.8778
 2802SOL     OW15455   1.076   0.023   6.241 -0.1262  0.4558  0.1641
 2802SOL    HW115456   1.050   0.107   6.202 -0.4264  0.4637  0.3783
 2802SOL    HW215457   1.024   0.017   6.321  0.6652  0.5516  0.6865
 2803SOL     OW15458   1.037   0.531  10.840 -0.7135 -0.2234 -0.5967
 2803SOL    HW115459   1.131   0.517  10.827  0.0425  1.2825  2.3802
 2803SOL    HW215460   1.021   0.620  10.809 -1.0448 -0.3214 -0.7071
 2804SOL     OW15461   4.413  10.250   2.818 -0.2773 -1.2715  0.3777
 2804SOL    HW115462   4.484  10.270   2.759  0.1407 -0.7763  1.0362
 2804SOL    HW215463   4.396  10.156   2.805 -1.8074 -0.7255 -2.2398
 2805SOL     OW15464   3.245   3.898   3.547  0.6994 -0.6314  0.2450
 2805SOL    HW115465   3.180   3.841   3.507 -1.4211 -0.1652  2.7659
 2805SOL    HW215466   3.328   3.872   3.508 -0.6931 -2.8546 -1.3992
 2806SOL     OW15467   2.727   1.975   6.160  0.1443  0.0482 -0.0302
 2806SOL    HW115468   2.729   1.966   6.065 -1.0480  0.2511 -0.0821
 2806SOL    HW215469   2.754   1.889   6.193  1.6957  0.3016 -0.5232
 2807SOL     OW15470   4.890  12.039   0.394 -0.3029 -0.2198  0.2875
 2807SOL    HW115471   4.924  11.951   0.410 -1.1517 -0.7482 -0.6746
 2807SOL    HW215472   4.872  12.040   0.300 -0.6277  0.8664  0.3541
 2808SOL     OW15473   3.832   1.216   8.780 -0.2952 -0.5985  0.2361
 2808SOL    HW115474   3.898   1.220   8.849  0.1727 -0.0836 -0.2341
 2808SOL    HW215475   3.881   1.225   8.699 -0.9791  0.1747 -0.1085
 2809SOL     OW15476   1.874   8.550  11.128 -0.1775 -0.1992  0.6401
 2809SOL    HW115477   1.780   8.561  11.141  0.0451  1.2620  1.1675
 2809SOL    HW215478   1.893   8.591  11.044 -0.4306 -3.1366 -0.9891
 2810SOL     OW15479   3.428   9.798   4.157 -0.0274 -0.1747 -0.1701
 2810SOL    HW115480   3.432   9.821   4.065  0.1063  0.1597 -0.0835
 2810SOL    HW215481   3.509   9.749   4.173 -0.7145 -1.4543 -0.5507
 2811SOL     OW15482   1.767  10.505   9.847 -0.2026 -0.0692  0.0086
 2811SOL    HW115483   1.837  10.508   9.912 -0.1646  0.6135 -0.0560
 2811SOL    HW215484   1.813  10.488   9.764 -0.0193  1.0966 -0.1466
 2812SOL     OW15485   8.345   2.178   3.415  0.3681  0.0301 -0.4104
 2812SOL    HW115486   8.263   2.189   3.369  0.4413 -1.0852 -0.8600
 2812SOL    HW215487   8.325   2.115   3.484  1.1022 -1.3030 -1.3514
 2813SOL     OW15488   2.034   9.480   0.825 -0.2493 -0.5105  0.2908
 2813SOL    HW115489   1.989   9.449   0.903 -1.1179 -0.7219 -0.2891
 2813SOL    HW215490   1.978   9.454   0.752  0.7537 -0.6804 -0.4422
 2814SOL     OW15491   2.664   3.585   8.770 -0.0993 -0.0637  1.0792
 2814SOL    HW115492   2.736   3.645   8.788  0.1772 -0.0020 -0.1338
 2814SOL    HW215493   2.700   3.522   8.707 -0.9277 -0.3799  0.9036
 2815SOL     OW15494  12.518  12.533   4.955 -0.4411 -0.4803 -0.2057
 2815SOL    HW115495  12.557  12.604   4.904 -0.3918 -0.3469  0.0174
 2815SOL    HW215496  12.437  12.570   4.989 -0.2584 -0.4274  0.1736
 2816SOL     OW15497   3.954   8.756  10.866 -0.1680  0.0460 -0.0062
 2816SOL    HW115498   3.891   8.700  10.820 -0.3055 -0.2486  0.5377
 2816SOL    HW215499   3.980   8.821  10.800  0.7703 -1.2454 -0.9607
 2817SOL     OW15500   7.680  10.734   1.192  0.5584  0.1432 -0.3870
 2817SOL    HW115501   7.597  10.760   1.151  0.7298 -0.6289 -1.2462
 2817SOL    HW215502   7.654  10.682   1.268  0.2481 -0.1930 -0.7192
 2818SOL     OW15503   5.230   9.377   0.552  0.2317  0.2551  0.0498
 2818SOL    HW115504   5.177   9.457   0.555  1.0155  0.7695  0.7331
 2818SOL    HW215505   5.199   9.324   0.625  1.7733  1.3188  1.5557
 2819SOL     OW15506   2.330   0.715  10.356 -0.7702  0.2008  0.1614
 2819SOL    HW115507   2.300   0.749  10.440  0.4990  0.2358  0.6298
 2819SOL    HW215508   2.405   0.770  10.334  0.1233 -1.0601 -0.0118
 2820SOL     OW15509   3.377   7.581   4.329 -0.2923 -0.0725 -0.6312
 2820SOL    HW115510   3.331   7.526   4.392  0.0956  0.2478 -0.0647
 2820SOL    HW215511   3.441   7.522   4.288  0.2198 -0.0154  0.0739
 2821SOL     OW15512   6.799   1.376   2.166 -0.4704  0.7980 -0.2381
 2821SOL    HW115513   6.704   1.364   2.161 -0.2109 -1.4982 -0.5711
 2821SOL    HW215514   6.819   1.438   2.096 -1.8002  2.0165  0.4117
 2822SOL     OW15515   9.021   3.568  11.970 -0.2980  0.6782  0.4276
 2822SOL    HW115516   9.107   3.605  11.953  0.8158 -1.3582  1.3187
 2822SOL    HW215517   9.033   3.513  12.048 -1.6238 -2.1423 -1.2095
 2823SOL     OW15518   4.195   4.547   2.442 -0.4532  0.1347  0.4270
 2823SOL    HW115519   4.210   4.536   2.536  0.4966 -1.0772  0.1484
 2823SOL    HW215520   4.105   4.517   2.428 -0.3538 -0.3705  0.8419
 2824SOL     OW15521   9.360   7.331   4.935 -0.2533  0.3039 -0.0585
 2824SOL    HW115522   9.307   7.367   4.863 -0.4456 -0.3425 -0.2500
 2824SOL    HW215523   9.297   7.280   4.987 -0.4711  2.0813  1.5126
 2825SOL     OW15524   7.430   9.258   0.128 -0.0102 -0.4570 -0.2266
 2825SOL    HW115525   7.358   9.316   0.103 -1.2975 -1.9761 -0.1971
 2825SOL    HW215526   7.495   9.317   0.166 -1.0814  1.0169 -0.5518
 2826SOL     OW15527  10.564   7.665  10.615 -0.0979  0.2067 -0.4363
 2826SOL    HW115528  10.504   7.719  10.667  0.3147  1.0358 -0.8078
 2826SOL    HW215529  10.586   7.720  10.540  0.3579 -0.4729 -0.8048
 2827SOL     OW15530  10.882   1.830  12.236 -0.4443  0.4789 -0.0367
 2827SOL    HW115531  10.818   1.810  12.167  1.6310 -1.2782 -1.6158
 2827SOL    HW215532  10.917   1.915  12.212 -1.1810  0.8121  0.0391
 2828SOL     OW15533   2.010   6.365  12.522  0.1638  0.0938 -0.3077
 2828SOL    HW115534   1.939   6.405  12.572  1.2198  0.4376  0.9930
 2828SOL    HW215535   1.971   6.341  12.438 -1.4364  0.3963  0.3200
 2829SOL     OW15536   8.243   1.637   5.208 -0.0559 -0.0201  0.4633
 2829SOL    HW115537   8.179   1.620   5.276  0.5178 -1.7071  0.6340
 2829SOL    HW215538   8.326   1.605   5.244  0.2921 -0.7691 -0.9110
 2830SOL     OW15539   9.882   9.858   1.876 -0.2539  0.3558 -0.2776
 2830SOL    HW115540   9.887   9.785   1.814 -0.2423  0.0239  0.1151
 2830SOL    HW215541   9.791   9.887   1.871 -0.4182 -0.1042  0.0449
 2831SOL     OW15542  12.192   4.632   5.431 -0.0451  0.0635  0.0467
 2831SOL    HW115543  12.135   4.695   5.387 -1.7762 -1.5303 -0.1216
 2831SOL    HW215544  12.212   4.566   5.364 -0.3536 -0.8828  0.8491
 2832SOL     OW15545  11.246   0.902   6.250 -0.1335 -0.4439  0.0400
 2832SOL    HW115546  11.216   0.938   6.166  0.0895  1.6907  0.8184
 2832SOL    HW215547  11.335   0.872   6.232  1.6203  3.8475  0.3197
 2833SOL     OW15548  10.063   3.631   3.431  0.1076 -0.0310 -0.2317
 2833SOL    HW115549  10.067   3.599   3.521  0.0755  1.4652  0.3354
 2833SOL    HW215550   9.979   3.601   3.398  0.9464 -2.2790 -0.4582
 2834SOL     OW15551   3.760   5.408   2.864  0.0552  0.1399 -0.1654
 2834SOL    HW115552   3.824   5.479   2.876  0.6592 -0.2247 -1.1492
 2834SOL    HW215553   3.787   5.365   2.783 -1.7495  0.3097 -0.8990
 2835SOL     OW15554  12.367   6.969  11.536  0.0489  0.2018  0.5359
 2835SOL    HW115555  12.320   6.941  11.457 -1.1684  1.8882  0.5946
 2835SOL    HW215556  12.459   6.953  11.516 -0.1897  0.8447 -1.3743
 2836SOL     OW15557   5.953   2.469   3.722 -0.7885  0.1924 -0.3706
 2836SOL    HW115558   5.902   2.541   3.685  0.0113  0.4119 -1.0664
 2836SOL    HW215559   5.938   2.475   3.816 -1.3808  0.7617 -0.4926
 2837SOL     OW15560   2.470   5.427  12.308 -0.8698  0.1207  0.4667
 2837SOL    HW115561   2.408   5.356  12.326 -0.0902 -0.4944  0.8138
 2837SOL    HW215562   2.470   5.480  12.387 -2.1105  1.0410 -0.1160
 2838SOL     OW15563   6.062   8.749  11.125 -0.0205 -0.2892  0.1093
 2838SOL    HW115564   6.008   8.680  11.162 -1.0520  1.0019  1.1276
 2838SOL    HW215565   6.047   8.743  11.030 -2.5443  0.4010  0.3666
 2839SOL     OW15566   7.692   9.272   1.014  0.5552  0.2492 -0.6545
 2839SOL    HW115567   7.639   9.323   1.074  1.4764  0.8383 -0.3255
 2839SOL    HW215568   7.654   9.289   0.928 -0.3217 -0.0317 -0.3299
 2840SOL     OW15569   1.188   7.713  10.772 -0.1474 -0.2984  0.0447
 2840SOL    HW115570   1.282   7.717  10.787  0.1450 -1.9682 -1.0891
 2840SOL    HW215571   1.176   7.638  10.714 -2.3094 -0.8942  1.1460
 2841SOL     OW15572   9.254   7.617   4.408 -0.0854  0.1992  0.2919
 2841SOL    HW115573   9.193   7.682   4.441 -0.3229 -1.1567  2.8089
 2841SOL    HW215574   9.200   7.557   4.357 -0.8574 -0.7313  2.1127
 2842SOL     OW15575  12.422   7.654   6.480  0.3747 -0.2106 -0.8868
 2842SOL    HW115576  12.436   7.681   6.389  1.0312 -0.1777 -0.7796
 2842SOL    HW215577  12.510   7.651   6.518  0.0383  0.7271  0.0183
 2843SOL     OW15578   9.848   0.316   7.227  0.0837  0.6977  0.3256
 2843SOL    HW115579   9.928   0.361   7.253  2.2164 -1.3816 -2.0245
 2843SOL    HW215580   9.792   0.385   7.191  1.2853  2.0594  0.9920
 2844SOL     OW15581  11.690   1.412   1.176 -0.3551 -0.1655  0.2492
 2844SOL    HW115582  11.693   1.317   1.163 -0.7247 -0.0238 -1.0701
 2844SOL    HW215583  11.781   1.440   1.164 -0.4908 -0.1902 -1.0030
 2845SOL     OW15584  10.811  10.542   2.674  0.1695 -0.3599  0.0064
 2845SOL    HW115585  10.870  10.466   2.672  1.2137  0.4295 -0.4809
 2845SOL    HW215586  10.791  10.559   2.583 -1.4749 -1.0723  0.2015
 2846SOL     OW15587  10.244  11.121   0.023  0.3774 -0.4241 -0.1363
 2846SOL    HW115588  10.239  11.028   0.001 -0.4288 -0.0050 -1.8853
 2846SOL    HW215589  10.185  11.164  -0.039  1.9910  1.4260 -0.5125
 2847SOL     OW15590   3.357  10.376   6.518 -0.0677  0.6106  0.1007
 2847SOL    HW115591   3.369  10.314   6.590 -0.3356  0.3444 -0.0843
 2847SOL    HW215592   3.378  10.461   6.557 -0.8378  0.5445  0.6742
 2848SOL     OW15593   6.502  12.057  11.161  0.1078  0.3154  0.1518
 2848SOL    HW115594   6.554  12.123  11.115  1.4531 -0.0521  1.0861
 2848SOL    HW215595   6.454  12.106  11.228 -0.0749  0.5387 -0.1396
 2849SOL     OW15596  11.022   9.674   2.070  0.2673 -0.3213  0.2122
 2849SOL    HW115597  10.949   9.723   2.107 -0.4458 -0.4464 -0.9797
 2849SOL    HW215598  11.070   9.738   2.018  2.2660  0.2771  2.6005
 2850SOL     OW15599   5.662  11.724   8.598 -0.2585 -0.4407 -0.0224
 2850SOL    HW115600   5.640  11.685   8.514  0.0565 -1.2219  0.2461
 2850SOL    HW215601   5.756  11.710   8.608  0.0421  1.1590 -0.2949
 2851SOL     OW15602   9.524   6.216  10.024  0.6263  0.1609 -0.2314
 2851SOL    HW115603   9.494   6.199  10.113  1.0880 -0.1885 -0.1365
 2851SOL    HW215604   9.519   6.311  10.014 -3.9052  0.0372 -1.4368
 2852SOL     OW15605   4.035  10.096   9.999  0.0454 -0.2711 -0.1178
 2852SOL    HW115606   4.080  10.035   9.941 -0.6570 -0.6608 -0.2546
 2852SOL    HW215607   3.942  10.076   9.989 -0.1560  0.4266  0.2779
 2853SOL     OW15608  10.978  10.953   5.603  0.0901  0.5005  0.0784
 2853SOL    HW115609  11.064  10.955   5.645 -0.1914  0.2960  0.6734
 2853SOL    HW215610  10.937  10.874   5.636  1.3619 -1.9970 -3.6475
 2854SOL     OW15611   3.874   9.019  12.555 -0.3158  0.1615  0.4529
 2854SOL    HW115612   3.918   9.081  12.498  1.1428 -1.6171 -0.4490
 2854SOL    HW215613   3.841   8.951  12.496 -0.6315 -0.6558  1.5263
 2855SOL     OW15614   3.611  10.143  12.308  0.7293 -0.0773 -0.2511
 2855SOL    HW115615   3.661  10.215  12.270  0.9192 -0.3083 -0.4457
 2855SOL    HW215616   3.540  10.185  12.357  0.2076  0.2223 -1.2345
 2856SOL     OW15617  10.334  10.356   7.013 -0.3483 -0.4457  0.2025
 2856SOL    HW115618  10.239  10.346   7.005 -0.5827  1.2748  0.4322
 2856SOL    HW215619  10.369  10.270   6.990 -1.9761 -1.2483  0.5584
 2857SOL     OW15620   2.272  11.430   1.856  0.4233  0.1611  0.4856
 2857SOL    HW115621   2.329  11.492   1.902 -1.7910  2.1506  0.7100
 2857SOL    HW215622   2.235  11.376   1.926  1.8215 -1.0526  0.3501
 2858SOL     OW15623   9.293   3.707   5.825  0.5725  0.1989  0.0017
 2858SOL    HW115624   9.334   3.778   5.776  1.0645  0.3015  0.5502
 2858SOL    HW215625   9.213   3.687   5.776  0.5444  0.9697 -0.2827
 2859SOL     OW15626   7.727   8.702   7.489 -0.1620  0.4150  0.4168
 2859SOL    HW115627   7.765   8.621   7.454 -1.9710  0.0771 -0.9018
 2859SOL    HW215628   7.795   8.768   7.477  0.5751 -0.4725 -0.4555
 2860SOL     OW15629  10.023   5.707   0.767  0.2386 -0.2194 -0.8936
 2860SOL    HW115630   9.989   5.793   0.790  1.3682 -0.1169  0.4975
 2860SOL    HW215631  10.117   5.712   0.786 -0.0650 -2.5575  1.8351
 2861SOL     OW15632  10.110   6.203   9.810  0.4884 -0.2968  0.3013
 2861SOL    HW115633  10.154   6.202   9.725 -0.4170 -0.9033 -0.1783
 2861SOL    HW215634  10.165   6.258   9.865  2.5346 -2.0148  0.0945
 2862SOL     OW15635   9.739   8.665   7.723  0.0966 -0.6251 -0.1548
 2862SOL    HW115636   9.742   8.728   7.652  0.0761  0.7302  0.9984
 2862SOL    HW215637   9.667   8.606   7.701 -2.6155  2.1445  0.6083
 2863SOL     OW15638   9.055  11.973   9.726 -0.1666  0.0142 -0.0155
 2863SOL    HW115639   9.126  11.975   9.662  1.2123 -1.4075  1.3834
 2863SOL    HW215640   8.980  12.011   9.680  1.2264  0.6785 -1.8587
 2864SOL     OW15641   2.002   9.519   3.677 -0.3899  0.5076  0.1112
 2864SOL    HW115642   2.061   9.460   3.631 -1.8848 -0.2004 -1.0182
 2864SOL    HW215643   2.035   9.607   3.656 -0.2239  0.1523 -1.2453
 2865SOL     OW15644   2.440   2.193  11.186  0.2577 -0.2160 -0.3513
 2865SOL    HW115645   2.418   2.271  11.134 -0.5088 -0.8102 -0.9317
 2865SOL    HW215646   2.358   2.168  11.227 -0.4762 -2.8334 -3.0352
 2866SOL     OW15647  12.505   2.379   7.812  0.0733  0.0790  0.0621
 2866SOL    HW115648  12.486   2.314   7.880 -1.0478  0.5325  0.2168
 2866SOL    HW215649  12.472   2.340   7.731 -0.7759  0.5102  0.1858
 2867SOL     OW15650  12.073   4.182   3.755 -0.2024 -0.0265 -0.0021
 2867SOL    HW115651  12.139   4.147   3.694  0.0083 -2.1780  1.3524
 2867SOL    HW215652  12.016   4.108   3.774 -2.5462  1.5810 -0.4522
 2868SOL     OW15653  12.042  10.438   1.967  0.3578  0.0045  0.2835
 2868SOL    HW115654  12.030  10.530   1.993 -0.2433  0.2029 -0.6477
 2868SOL    HW215655  12.136  10.430   1.951  0.3020  0.7014 -0.4700
 2869SOL     OW15656   6.658   3.346  11.959 -0.3464 -0.3721  0.1340
 2869SOL    HW115657   6.614   3.418  11.916  2.0043  0.0559 -1.7768
 2869SOL    HW215658   6.738   3.385  11.996  0.6354 -1.8366 -0.3521
 2870SOL     OW15659   7.017   6.818   5.304  0.0904  0.4148  0.1094
 2870SOL    HW115660   7.033   6.838   5.396 -2.1040  1.3453  0.3473
 2870SOL    HW215661   6.985   6.728   5.303 -0.1784  0.5077  0.3071
 2871SOL     OW15662   2.988   9.267   0.524  0.9764 -0.1671 -0.3722
 2871SOL    HW115663   2.970   9.320   0.447  1.4140 -0.3444 -0.6017
 2871SOL    HW215664   3.082   9.276   0.538  1.0373 -0.7898 -0.3462
 2872SOL     OW15665   1.154   9.568   0.488 -0.0172  0.2410  0.2687
 2872SOL    HW115666   1.176   9.614   0.569  0.4988  0.8980 -0.2289
 2872SOL    HW215667   1.070   9.525   0.506  0.1578  0.2633  1.1886
 2873SOL     OW15668  10.347   4.064   0.760 -0.1407  0.1297  0.8102
 2873SOL    HW115669  10.340   3.968   0.760  1.4563 -0.1680 -2.7175
 2873SOL    HW215670  10.262   4.094   0.727  0.3180 -0.3786 -0.9694
 2874SOL     OW15671   2.666  12.140   5.343  0.3375  0.3406 -0.0098
 2874SOL    HW115672   2.637  12.231   5.336 -1.1319 -0.1456 -0.8990
 2874SOL    HW215673   2.662  12.108   5.253  0.8864 -0.5824  0.2922
 2875SOL     OW15674   6.153   3.716   7.689 -0.5570  0.3501  0.8358
 2875SOL    HW115675   6.231   3.723   7.743 -0.5516 -0.3418  0.9228
 2875SOL    HW215676   6.186   3.718   7.599 -0.5514  1.3041  0.8487
 2876SOL     OW15677   4.807   2.537   4.652 -0.4449  0.1919 -0.2223
 2876SOL    HW115678   4.840   2.594   4.583 -0.2241  0.5355  0.1559
 2876SOL    HW215679   4.782   2.598   4.722  2.3272 -0.2349  1.3064
 2877SOL     OW15680   4.143   6.192  10.620 -0.1198 -0.5656 -0.0243
 2877SOL    HW115681   4.150   6.202  10.525 -0.3077  1.4454  0.1302
 2877SOL    HW215682   4.124   6.280  10.653  3.1390 -0.5065  2.1785
 2878SOL     OW15683   0.453   7.410   5.870  0.6167 -0.0582 -0.1769
 2878SOL    HW115684   0.410   7.474   5.813 -1.2110 -0.7228  0.3826
 2878SOL    HW215685   0.511   7.361   5.811  0.3456  0.6251 -1.0423
 2879SOL     OW15686   6.476   9.459  10.073 -0.1054  0.6025 -0.3153
 2879SOL    HW115687   6.474   9.469   9.978  0.3215  1.4510 -0.2487
 2879SOL    HW215688   6.568   9.464  10.096 -0.1890  0.1645  0.1231
 2880SOL     OW15689  11.669   4.157  10.893 -0.2133 -0.5072 -0.7552
 2880SOL    HW115690  11.655   4.223  10.961 -1.1622 -1.1879 -0.2600
 2880SOL    HW215691  11.739   4.102  10.928 -0.0837 -0.3290 -0.7336
 2881SOL     OW15692   4.160   8.340   3.950  0.1410  0.2101 -0.1030
 2881SOL    HW115693   4.071   8.364   3.924 -0.6506 -0.1267  2.0853
 2881SOL    HW215694   4.176   8.390   4.030  1.4370 -0.7025  0.2426
 2882SOL     OW15695   4.601   7.252   3.688  0.2187  0.3211  0.7667
 2882SOL    HW115696   4.514   7.273   3.719 -0.8100 -0.0412 -1.6184
 2882SOL    HW215697   4.620   7.318   3.622  0.9949 -0.6072  0.0191
 2883SOL     OW15698   7.702   2.039  12.092 -0.3598 -0.2685 -0.1014
 2883SOL    HW115699   7.762   2.088  12.148  0.9389 -3.1954  1.3278
 2883SOL    HW215700   7.624   2.093  12.086  1.5918  2.7466 -0.2628
 2884SOL     OW15701   0.191   9.285   1.986  0.8218  0.2077  0.4973
 2884SOL    HW115702   0.216   9.259   1.897  0.1265  2.5715 -0.4812
 2884SOL    HW215703   0.214   9.378   1.990 -2.4037  1.0696  1.5266
 2885SOL     OW15704  11.915   3.564   9.521  0.2984 -0.2804 -0.3506
 2885SOL    HW115705  11.965   3.622   9.577  0.4358 -0.0865 -0.6727
 2885SOL    HW215706  11.871   3.622   9.459  1.2438 -0.5836 -1.3247
 2886SOL     OW15707   1.519   2.533   2.867 -0.5249  0.4180  0.7146
 2886SOL    HW115708   1.612   2.529   2.887 -0.4723  0.1554  0.4324
 2886SOL    HW215709   1.497   2.444   2.840 -0.6098  0.7353 -0.2988
 2887SOL     OW15710   1.585   9.213   2.102  0.5343 -0.4200 -0.4035
 2887SOL    HW115711   1.569   9.178   2.015  1.1503 -0.0344 -0.6802
 2887SOL    HW215712   1.661   9.271   2.091  1.7106 -1.6752  0.6975
 2888SOL     OW15713   1.429   0.130   4.200 -0.0564 -0.2910 -0.6025
 2888SOL    HW115714   1.384   0.115   4.116 -1.4699  1.9936 -0.3249
 2888SOL    HW215715   1.445   0.224   4.202  1.3565 -0.5186  1.0634
 2889SOL     OW15716   0.931  11.474   7.921  0.1155 -0.1890  0.6568
 2889SOL    HW115717   0.925  11.392   7.872 -1.6024  0.5600 -0.4659
 2889SOL    HW215718   0.892  11.454   8.006  1.0389 -0.9018  0.9224
 2890SOL     OW15719   9.270   7.929   1.214  0.0460 -0.0791  0.1764
 2890SOL    HW115720   9.359   7.895   1.224  1.3005  1.8249 -2.8624
 2890SOL    HW215721   9.217   7.851   1.195  1.7511 -1.0006 -1.1751
 2891SOL     OW15722   4.548   6.953   4.974  0.0069 -0.5638  0.2726
 2891SOL    HW115723   4.487   6.884   4.998  0.6643 -1.5659 -0.8330
 2891SOL    HW215724   4.520   6.979   4.886 -0.2548  0.6303  0.6854
 2892SOL     OW15725   8.600   4.814  12.498  0.0983 -0.3157 -0.0966
 2892SOL    HW115726   8.610   4.897  12.544 -1.2398  0.6486 -1.4659
 2892SOL    HW215727   8.636   4.749  12.559 -0.0623  1.0802  1.5819
 2893SOL     OW15728   2.931   2.154  12.293  0.6084 -0.3428  0.7974
 2893SOL    HW115729   2.894   2.069  12.268 -0.2029  0.1430  0.3064
 2893SOL    HW215730   2.941   2.148  12.388 -0.8810 -0.4647  0.9797
 2894SOL     OW15731   0.982   6.379  10.081 -0.2349 -0.0744  0.3653
 2894SOL    HW115732   0.934   6.353  10.003 -1.0585 -1.0331  1.1546
 2894SOL    HW215733   1.053   6.435  10.049 -0.9990  0.1696 -0.9778
 2895SOL     OW15734   0.885   3.827   3.772  0.0053  0.1516 -0.2359
 2895SOL    HW115735   0.834   3.887   3.718  1.6759  1.3589 -0.5094
 2895SOL    HW215736   0.885   3.867   3.859 -0.1811 -0.2828 -0.0286
 2896SOL     OW15737  10.111   6.569   4.538 -0.1237 -0.3461  0.6897
 2896SOL    HW115738  10.056   6.593   4.612  1.0332  0.5822  1.2812
 2896SOL    HW215739  10.133   6.477   4.552  0.7862  0.0472  1.9822
 2897SOL     OW15740  10.670   0.231   7.337 -0.6424  0.1302  0.0663
 2897SOL    HW115741  10.594   0.274   7.298 -1.9999  0.1875  2.5667
 2897SOL    HW215742  10.669   0.260   7.429  0.4417 -2.4649  0.9823
 2898SOL     OW15743   9.973   4.960   9.950 -0.5555 -0.0295 -0.5088
 2898SOL    HW115744   9.961   4.866   9.935 -0.0765 -0.1421 -0.2361
 2898SOL    HW215745  10.069   4.971   9.952 -0.6101  0.4206 -0.2783
 2899SOL     OW15746   1.142  12.363  11.935 -0.2110  0.4008 -0.1342
 2899SOL    HW115747   1.114  12.362  11.843 -0.1445 -0.9517 -0.1565
 2899SOL    HW215748   1.198  12.440  11.942  1.7648 -0.7976 -1.8376
 2900SOL     OW15749   1.261   6.301   3.664  0.8071  0.6121  0.8412
 2900SOL    HW115750   1.166   6.307   3.650  0.5532 -0.4628  1.9241
 2900SOL    HW215751   1.276   6.351   3.744  1.2758  1.3846  0.2772
 2901SOL     OW15752   0.273   7.313   1.385  0.3541  0.5385 -0.1876
 2901SOL    HW115753   0.241   7.239   1.334  1.0193  0.0378  0.1106
 2901SOL    HW215754   0.368   7.310   1.374  0.5685  0.0398  1.6095
 2902SOL     OW15755   6.196   6.132   7.754 -0.5893  0.0188 -0.1378
 2902SOL    HW115756   6.143   6.054   7.737 -1.3544  1.0545 -3.2210
 2902SOL    HW215757   6.131   6.202   7.769 -0.0904  0.8985 -1.8673
 2903SOL     OW15758   5.394  11.640   2.795 -0.3358 -0.1194  0.5348
 2903SOL    HW115759   5.441  11.594   2.725 -0.2169 -0.7007  0.9898
 2903SOL    HW215760   5.312  11.667   2.754 -0.5258 -0.9751  0.3196
 2904SOL     OW15761   7.943   0.999   4.661 -0.3196 -0.1262  0.3758
 2904SOL    HW115762   7.984   1.013   4.746 -1.0726 -0.7121  0.8513
 2904SOL    HW215763   7.854   1.033   4.671 -0.8424 -1.3774  0.2532
 2905SOL     OW15764   5.981   4.797   0.065 -0.0861 -0.2574  0.5260
 2905SOL    HW115765   6.070   4.784   0.032 -0.3167  0.1325 -0.2723
 2905SOL    HW215766   5.972   4.891   0.075 -0.1860 -0.3343  1.2877
 2906SOL     OW15767   5.230   1.366   1.280 -0.2172 -0.2381 -0.1516
 2906SOL    HW115768   5.208   1.443   1.333  1.4016  0.1953 -0.0396
 2906SOL    HW215769   5.291   1.316   1.334 -0.0149 -0.7667 -0.8482
 2907SOL     OW15770   2.164   7.587   5.213 -0.7666  0.0535  0.4075
 2907SOL    HW115771   2.142   7.501   5.177 -0.4251  0.2186 -0.2061
 2907SOL    HW215772   2.135   7.583   5.304 -0.4145 -0.8429  0.4879
 2908SOL     OW15773   2.489   0.547   5.210 -0.2761 -0.1676  0.1901
 2908SOL    HW115774   2.459   0.573   5.297  3.5526 -0.9239  1.9778
 2908SOL    HW215775   2.466   0.455   5.202  0.0058 -0.2895  0.7663
 2909SOL     OW15776   3.259   9.913   5.212  0.2993  0.1115  0.1775
 2909SOL    HW115777   3.193   9.948   5.272  0.5148 -1.1447  1.2031
 2909SOL    HW215778   3.339   9.909   5.264  1.4251  2.2371 -1.2364
 2910SOL     OW15779   3.803   4.862   8.108 -0.0177 -0.0672  0.4187
 2910SOL    HW115780   3.736   4.814   8.156 -0.4861 -0.1014 -0.2585
 2910SOL    HW215781   3.789   4.839   8.016  1.2471 -0.4842  0.3007
 2911SOL     OW15782   2.221   2.324   9.216 -0.1322  0.1666  0.4841
 2911SOL    HW115783   2.175   2.370   9.287  0.6940  0.0360  1.1246
 2911SOL    HW215784   2.298   2.378   9.198  0.7731 -0.8510  1.1461
 2912SOL     OW15785   8.782   4.869   5.570  0.4490  0.4814  0.1674
 2912SOL    HW115786   8.816   4.902   5.487  1.1006 -1.5370 -0.4264
 2912SOL    HW215787   8.859   4.857   5.625  0.0563  1.4709  0.9550
 2913SOL     OW15788   2.354  10.418   0.771 -0.0773  0.3077  0.5600
 2913SOL    HW115789   2.278  10.414   0.713  0.2044 -2.3116  0.2426
 2913SOL    HW215790   2.325  10.375   0.851  0.7287  0.3477  0.8787
 2914SOL     OW15791   9.982   8.981  10.799  0.8067 -0.2875 -0.1401
 2914SOL    HW115792   9.943   8.928  10.868 -0.1625 -2.1442 -1.9951
 2914SOL    HW215793  10.039   9.043  10.845 -0.0589 -1.1965  2.3008
 2915SOL     OW15794   2.320   2.903   6.286  0.1775  0.5724 -0.7622
 2915SOL    HW115795   2.234   2.943   6.299 -0.3779 -1.0283  0.9177
 2915SOL    HW215796   2.320   2.827   6.345  2.2160 -0.2723 -1.7639
 2916SOL     OW15797   3.340   1.104  12.096  0.6698 -0.2260 -0.1945
 2916SOL    HW115798   3.267   1.096  12.035  0.1599  1.9006  0.0434
 2916SOL    HW215799   3.418   1.097  12.041  0.2250  1.8582 -1.2104
 2917SOL     OW15800   2.706   2.749  12.371 -0.4194 -0.3002  0.1293
 2917SOL    HW115801   2.675   2.836  12.397  2.1203  0.3790  1.2450
 2917SOL    HW215802   2.778   2.731  12.431  0.5039 -2.2581 -1.4673
 2918SOL     OW15803   1.478   7.838   8.508 -0.3982  0.0765  0.0423
 2918SOL    HW115804   1.385   7.858   8.500 -0.3500  0.8899  1.3165
 2918SOL    HW215805   1.514   7.853   8.420 -1.7910 -2.1783 -0.9945
 2919SOL     OW15806   6.378  12.464  11.613  0.1887  0.0869 -0.1295
 2919SOL    HW115807   6.458  12.510  11.589 -0.5417  2.0540  0.9561
 2919SOL    HW215808   6.315  12.490  11.545  0.0828 -0.3003 -0.1817
 2920SOL     OW15809   4.844   2.528  10.806  0.3620  0.7384 -0.5880
 2920SOL    HW115810   4.756   2.564  10.799 -0.0781  0.1253  1.3118
 2920SOL    HW215811   4.868   2.540  10.898  2.0558  0.4083 -0.9513
 2921SOL     OW15812   0.301   7.506  10.426  0.3054  0.0703  0.6656
 2921SOL    HW115813   0.356   7.530  10.500  0.2528 -0.0299  0.7391
 2921SOL    HW215814   0.243   7.438  10.461 -0.9269  1.2468  1.0298
 2922SOL     OW15815  10.123   4.778   1.182 -0.0439 -0.2073 -0.3905
 2922SOL    HW115816  10.100   4.847   1.120 -1.2159  0.0242  0.2646
 2922SOL    HW215817  10.080   4.700   1.148 -0.9148 -0.0232  0.2370
 2923SOL     OW15818  11.142   9.060   2.211  0.1429 -0.0598  0.2353
 2923SOL    HW115819  11.228   9.102   2.210 -0.6500  1.7100  1.3819
 2923SOL    HW215820  11.084   9.123   2.170 -0.2877 -2.2743 -2.9753
 2924SOL     OW15821   1.003   5.202  12.036  0.6352 -0.3225 -0.0115
 2924SOL    HW115822   1.090   5.231  12.061  0.4943 -0.3447  0.5173
 2924SOL    HW215823   1.018   5.128  11.977  0.9885 -1.5910  1.5889
 2925SOL     OW15824   3.704   9.575   7.949 -0.6366 -0.2863  0.4996
 2925SOL    HW115825   3.753   9.576   7.867  0.0720  0.6283  0.9116
 2925SOL    HW215826   3.627   9.629   7.933 -0.8584 -0.6725  0.2417
 2926SOL     OW15827   8.837   1.712   6.583  0.2945  0.1559  0.4917
 2926SOL    HW115828   8.843   1.733   6.490 -0.0196  2.0930  0.8725
 2926SOL    HW215829   8.847   1.617   6.586  1.7376  0.1774 -1.3811
 2927SOL     OW15830   1.290  12.428   5.845  0.2579  0.0833 -0.0972
 2927SOL    HW115831   1.324  12.426   5.756  1.5929 -1.8729  0.4025
 2927SOL    HW215832   1.296  12.338   5.876 -1.1842  0.5053  1.6319
 2928SOL     OW15833   2.196   9.453   6.364 -0.1079 -0.0924  0.0257
 2928SOL    HW115834   2.106   9.457   6.333 -0.1982  0.9425  0.4060
 2928SOL    HW215835   2.200   9.372   6.415 -1.1932  0.5422  1.1557
 2929SOL     OW15836   8.452   3.590   1.412  0.0205 -0.0863 -0.0866
 2929SOL    HW115837   8.498   3.665   1.449 -0.0515  0.3051 -0.7771
 2929SOL    HW215838   8.360   3.606   1.432  0.0542 -0.2515  0.2127
 2930SOL     OW15839  12.451   0.634   8.668 -0.2164 -1.0021 -0.2716
 2930SOL    HW115840  12.375   0.635   8.610 -0.3384 -0.3390 -0.1157
 2930SOL    HW215841  12.456   0.724   8.701  0.4091 -1.1390  0.0136
 2931SOL     OW15842   9.257  10.590   8.631  0.0256 -0.1685 -0.2314
 2931SOL    HW115843   9.237  10.637   8.551 -0.7241 -0.7422 -0.3916
 2931SOL    HW215844   9.172  10.563   8.666  0.2348  1.1858  1.4570
 2932SOL     OW15845   6.224   7.233   1.224  0.3212 -0.6724 -0.1375
 2932SOL    HW115846   6.162   7.218   1.152 -0.5285 -0.2619  0.4959
 2932SOL    HW215847   6.176   7.288   1.286  0.5452 -2.1090  1.3798
 2933SOL     OW15848   9.098  11.940   6.192  0.6032 -0.0699  0.3783
 2933SOL    HW115849   9.093  11.925   6.286  0.4443  1.7829  0.6930
 2933SOL    HW215850   9.056  11.863   6.154 -1.1977  0.0665  1.9005
 2934SOL     OW15851   7.691   5.761   6.790 -0.0440 -0.0329 -0.0517
 2934SOL    HW115852   7.680   5.695   6.722 -0.5091 -0.1018  0.0833
 2934SOL    HW215853   7.761   5.728   6.846 -1.3346 -1.2273  0.9478
 2935SOL     OW15854   9.073   9.929   6.729 -0.4808 -0.1689 -0.3019
 2935SOL    HW115855   9.004   9.873   6.694 -1.0899 -0.2196  0.9206
 2935SOL    HW215856   9.144   9.869   6.752 -0.3368 -0.2049 -0.8260
 2936SOL     OW15857   9.187  11.762  10.806 -0.4606  0.1882 -0.4569
 2936SOL    HW115858   9.221  11.694  10.747  0.2814 -0.2134  0.4023
 2936SOL    HW215859   9.092  11.752  10.802 -0.3604 -1.2045 -0.0326
 2937SOL     OW15860   0.796   2.455   3.156  0.3235  0.0449 -0.4173
 2937SOL    HW115861   0.794   2.360   3.170  2.4499  0.1185  0.8020
 2937SOL    HW215862   0.741   2.469   3.079 -0.9311 -2.0284  0.0060
 2938SOL     OW15863   7.706   4.363  10.882  0.2187 -0.1357  0.1573
 2938SOL    HW115864   7.636   4.334  10.941  0.2720 -0.6570 -0.0358
 2938SOL    HW215865   7.786   4.355  10.934  0.3482 -1.2367 -0.1972
 2939SOL     OW15866  11.785   6.540   6.998 -0.4785 -0.2066  0.0498
 2939SOL    HW115867  11.824   6.461   7.034 -0.5514 -0.0274  0.5322
 2939SOL    HW215868  11.769   6.596   7.074 -0.9364  0.0455 -0.2249
 2940SOL     OW15869  10.582   9.622   5.356 -0.0242  0.0115  0.6569
 2940SOL    HW115870  10.642   9.602   5.284  0.9354  2.3274  0.7151
 2940SOL    HW215871  10.500   9.581   5.331  0.5839 -0.1503 -1.2556
 2941SOL     OW15872   1.599   2.063   7.905  0.0944  0.2410  0.0004
 2941SOL    HW115873   1.548   2.117   7.966 -0.1761 -0.2230  0.1910
 2941SOL    HW215874   1.638   1.995   7.959  0.4095  0.2283 -0.2423
 2942SOL     OW15875  11.375  12.456   8.922 -0.0196  0.9679 -0.8373
 2942SOL    HW115876  11.398  12.370   8.888  0.4449  1.3836 -1.6081
 2942SOL    HW215877  11.409  12.518   8.857 -0.5670  1.7248 -0.4287
 2943SOL     OW15878   1.272  12.134   5.178  0.2732 -0.2805  0.0713
 2943SOL    HW115879   1.221  12.057   5.151  2.5556 -0.9642 -2.7505
 2943SOL    HW215880   1.239  12.205   5.122 -0.3934  0.3204  1.1986
 2944SOL     OW15881   4.551   1.602   5.810 -0.2056 -0.0193 -0.2167
 2944SOL    HW115882   4.602   1.590   5.730 -0.2516 -3.0710  0.0804
 2944SOL    HW215883   4.615   1.625   5.877  0.3795 -0.9932 -0.4279
 2945SOL     OW15884   2.119   6.348  12.031  0.5532  0.2108  0.3760
 2945SOL    HW115885   2.057   6.389  11.971 -1.6186 -0.1676  2.2350
 2945SOL    HW215886   2.069   6.333  12.111  2.0657 -3.3011  0.8373
 2946SOL     OW15887   6.400   4.143   5.627  0.0046 -0.1177 -0.2149
 2946SOL    HW115888   6.324   4.178   5.672 -0.2543 -1.8265  0.7609
 2946SOL    HW215889   6.474   4.193   5.662 -0.4042 -0.1348  0.7025
 2947SOL     OW15890   2.220   2.360  10.664  0.6332  0.3053  0.2051
 2947SOL    HW115891   2.304   2.317  10.672  1.0922  1.2816  0.7739
 2947SOL    HW215892   2.221   2.429  10.731 -0.4626  0.5629 -0.0206
 2948SOL     OW15893   8.667   8.515  10.802 -0.0114 -0.5975  0.0374
 2948SOL    HW115894   8.718   8.447  10.845 -0.2566  1.0061  3.1123
 2948SOL    HW215895   8.716   8.596  10.817 -0.8948  0.2914 -1.4886
 2949SOL     OW15896   9.408   6.700  11.710  0.4145  0.3191  0.2586
 2949SOL    HW115897   9.411   6.727  11.802 -2.0246  1.2079  0.1547
 2949SOL    HW215898   9.383   6.779  11.663 -0.3029 -0.5729 -0.9101
 2950SOL     OW15899  12.478   4.731   4.995 -0.3982  0.0062  0.0748
 2950SOL    HW115900  12.417   4.760   4.928 -0.7291  1.6048  1.0314
 2950SOL    HW215901  12.452   4.641   5.014 -1.9801  0.4132 -0.0677
 2951SOL     OW15902  11.174   7.347  12.107 -0.2185  0.3995 -0.1367
 2951SOL    HW115903  11.141   7.283  12.170  0.7864 -0.1243 -0.1097
 2951SOL    HW215904  11.222   7.410  12.160  0.0375  0.3473 -0.3034
 2952SOL     OW15905   8.986   4.291   7.933 -0.1906  0.0945  0.1938
 2952SOL    HW115906   9.002   4.355   7.863  0.9159  0.7644  1.0267
 2952SOL    HW215907   8.922   4.230   7.895  0.3456  0.4572 -1.3828
 2953SOL     OW15908   4.651  10.462   8.731  0.2255  0.1426  0.2597
 2953SOL    HW115909   4.735  10.500   8.757  1.3026  0.3853 -3.0492
 2953SOL    HW215910   4.585  10.520   8.771  1.7415  2.5681 -0.4963
 2954SOL     OW15911   0.157   8.784  12.487 -0.0009 -0.1681  0.0629
 2954SOL    HW115912   0.066   8.807  12.474  0.3210  0.2822 -1.6279
 2954SOL    HW215913   0.174   8.803  12.580 -1.3996  0.4519  0.2163
 2955SOL     OW15914  11.902  12.187   7.353 -0.5662 -0.1220 -0.3175
 2955SOL    HW115915  11.866  12.098   7.350 -1.4748  0.2542 -0.7451
 2955SOL    HW215916  11.996  12.174   7.369 -1.1436 -1.0801  3.1167
 2956SOL     OW15917   2.248  12.272  11.002  0.1053  0.5441 -0.2168
 2956SOL    HW115918   2.326  12.220  11.023 -1.1943 -1.0630  0.8708
 2956SOL    HW215919   2.256  12.291  10.909  1.1286 -0.7841 -0.4256
 2957SOL     OW15920   9.130   3.650   6.155 -0.3210 -0.3250 -0.0682
 2957SOL    HW115921   9.219   3.629   6.185  0.0011  1.1400  0.0966
 2957SOL    HW215922   9.082   3.670   6.235 -0.6374 -0.5793 -0.1974
 2958SOL     OW15923   7.741   7.914   0.216 -0.4696 -1.1048  0.3120
 2958SOL    HW115924   7.684   7.969   0.269 -0.0260 -2.6226  2.5002
 2958SOL    HW215925   7.825   7.959   0.216 -0.9040 -0.2593 -0.5759
 2959SOL     OW15926   2.112   7.407   1.566 -0.3904 -0.1246  0.6553
 2959SOL    HW115927   2.179   7.369   1.623 -0.4272 -2.5634 -0.8081
 2959SOL    HW215928   2.037   7.348   1.575 -0.7497  0.0052 -1.1112
 2960SOL     OW15929   5.448   1.408   6.238 -0.0794 -0.5056 -0.3862
 2960SOL    HW115930   5.462   1.330   6.292 -1.1112  0.2407  1.0273
 2960SOL    HW215931   5.490   1.387   6.154  0.6056 -2.1400  0.3186
 2961SOL     OW15932   1.715  11.347  10.814 -0.3137  0.1925  0.2522
 2961SOL    HW115933   1.674  11.377  10.733 -1.5498 -1.4209  0.2401
 2961SOL    HW215934   1.782  11.285  10.785 -0.3720  0.0400  0.4456
 2962SOL     OW15935  10.713   8.912   1.719 -0.4162 -0.2209  0.2306
 2962SOL    HW115936  10.705   8.852   1.793  1.3757 -0.5434  0.2043
 2962SOL    HW215937  10.628   8.909   1.676 -1.0143 -1.1514  1.4337
 2963SOL     OW15938   3.385  10.863   9.532  0.0256 -0.6637 -0.5607
 2963SOL    HW115939   3.333  10.785   9.512 -0.2271 -0.8336  0.7079
 2963SOL    HW215940   3.321  10.930   9.555  0.3232 -0.6762  0.3465
 2964SOL     OW15941   4.164   9.029   3.805 -0.5451  0.4227  0.4423
 2964SOL    HW115942   4.131   9.046   3.716 -2.2512  1.2428  1.1818
 2964SOL    HW215943   4.227   9.099   3.821 -0.6173  0.5784  0.0587
 2965SOL     OW15944   9.627  11.210   6.535  0.0578 -0.4157 -0.5590
 2965SOL    HW115945   9.716  11.211   6.569  0.7481 -0.1211 -2.2501
 2965SOL    HW215946   9.580  11.274   6.589  1.0912  0.0398 -0.1666
 2966SOL     OW15947   5.665   9.604   6.517 -0.4225  0.7339 -0.1569
 2966SOL    HW115948   5.732   9.564   6.461 -1.6077  2.0033 -2.6579
 2966SOL    HW215949   5.582   9.571   6.481 -1.2248  0.8517  1.5075
 2967SOL     OW15950   4.452  11.574  11.223 -0.0730  0.2045 -0.0819
 2967SOL    HW115951   4.470  11.550  11.314  1.7518 -0.4359 -0.5646
 2967SOL    HW215952   4.447  11.670  11.224  2.7504  0.4421  0.3173
 2968SOL     OW15953  11.926   4.122   4.695  0.1359  0.2149  0.6674
 2968SOL    HW115954  11.882   4.082   4.620 -0.9056 -0.3746  1.5607
 2968SOL    HW215955  12.002   4.167   4.658 -0.1947 -0.3152 -0.6922
 2969SOL     OW15956  11.499  10.954   5.286 -0.5926  0.1712  0.9648
 2969SOL    HW115957  11.557  11.025   5.311 -1.8420  0.7056  2.5185
 2969SOL    HW215958  11.524  10.932   5.196 -0.2225  2.6200  0.4179
 2970SOL     OW15959   4.823  10.196   1.448  0.1375 -0.0146  0.0444
 2970SOL    HW115960   4.821  10.282   1.492  0.6438  0.4350 -0.7913
 2970SOL    HW215961   4.732  10.167   1.449 -0.0763  0.6410  0.1350
 2971SOL     OW15962   5.841   9.430  11.931  0.2126  0.2469 -0.1624
 2971SOL    HW115963   5.854   9.335  11.935  0.6410  0.3273  0.3993
 2971SOL    HW215964   5.929   9.467  11.925  0.1666  0.6870  1.4538
 2972SOL     OW15965   8.012  11.229   7.189  0.3301  0.1658  1.0328
 2972SOL    HW115966   7.971  11.229   7.275 -1.2233 -1.0210  0.3456
 2972SOL    HW215967   8.002  11.139   7.157  1.7499  0.3303  0.0056
 2973SOL     OW15968   3.476   2.199   5.546  0.1081  0.5843 -0.2322
 2973SOL    HW115969   3.485   2.107   5.569  0.2204  0.0697 -2.1287
 2973SOL    HW215970   3.405   2.232   5.601  0.1837 -0.5736  0.5846
 2974SOL     OW15971   9.247   2.265   4.097  0.1206  0.2204  0.5648
 2974SOL    HW115972   9.242   2.287   4.190  0.9554  0.5874  0.5299
 2974SOL    HW215973   9.329   2.305   4.067 -0.7034  1.1124 -0.5978
 2975SOL     OW15974  11.866   1.961   6.114 -0.3534 -0.4102 -0.2430
 2975SOL    HW115975  11.859   1.871   6.144  0.0430 -0.7407 -1.0982
 2975SOL    HW215976  11.959   1.981   6.122 -0.4600 -0.0265  0.0695
 2976SOL     OW15977  11.389   0.501   0.482  0.4019 -0.0024 -0.2160
 2976SOL    HW115978  11.351   0.587   0.465  0.8680  0.0773 -0.8689
 2976SOL    HW215979  11.321   0.439   0.458  1.1392  0.0883 -2.7551
 2977SOL     OW15980   2.600   9.314   1.251 -0.6716 -0.2348 -0.1702
 2977SOL    HW115981   2.511   9.289   1.227  0.0131 -1.5443 -1.4435
 2977SOL    HW215982   2.624   9.254   1.322 -0.9559  0.4580  0.5339
 2978SOL     OW15983  11.846   6.519   5.782  0.3265 -0.5092 -0.4067
 2978SOL    HW115984  11.761   6.512   5.739 -0.5793 -0.3945  1.2386
 2978SOL    HW215985  11.910   6.502   5.714 -1.0241 -0.6513 -1.6846
 2979SOL     OW15986  12.561   7.320   8.402 -0.0582  0.3057  0.4714
 2979SOL    HW115987  12.649   7.336   8.436 -0.2257 -0.2641  1.2225
 2979SOL    HW215988  12.508   7.390   8.441 -0.0509  0.2763  0.5358
 2980SOL     OW15989   7.760   9.886   9.201 -0.2493 -0.3754  0.5946
 2980SOL    HW115990   7.748   9.851   9.289 -1.8563  2.0357  1.4593
 2980SOL    HW215991   7.855   9.895   9.190 -0.0142 -1.1437  1.8746
 2981SOL     OW15992   7.106   3.563   9.186  0.4428  0.2005 -0.3117
 2981SOL    HW115993   7.155   3.644   9.199  1.0633 -0.1499 -0.4148
 2981SOL    HW215994   7.042   3.562   9.257  1.3319  0.1251  0.5090
 2982SOL     OW15995   6.226   7.462  12.409 -0.4793  0.3819 -0.1665
 2982SOL    HW115996   6.273   7.393  12.363 -1.0559 -0.6928  0.7843
 2982SOL    HW215997   6.284   7.537  12.407  0.1287 -0.1055 -1.3116
 2983SOL     OW15998   2.133   0.362  12.054 -0.6816  0.5831 -0.1213
 2983SOL    HW115999   2.087   0.307  11.992 -2.8557  0.8316  1.1562
 2983SOL    HW216000   2.118   0.451  12.024  0.1546  0.6322 -0.4337
 2984SOL     OW16001   0.887   5.155   3.490 -0.0614 -0.1368  0.3917
 2984SOL    HW116002   0.955   5.089   3.480 -0.0709 -0.0472 -0.3331
 2984SOL    HW216003   0.815   5.111   3.534  0.2007 -0.4213  0.5312
 2985SOL     OW16004  10.741   2.036  11.263  0.4083  0.5568 -0.1337
 2985SOL    HW116005  10.721   2.088  11.341  0.8173 -0.7340  0.8689
 2985SOL    HW216006  10.705   1.949  11.282 -1.7869  0.8442 -2.4840
 2986SOL     OW16007  11.720   2.657   2.176  0.2532 -0.2303 -0.1545
 2986SOL    HW116008  11.662   2.583   2.195 -1.5460  1.0794 -0.3762
 2986SOL    HW216009  11.717   2.666   2.080  0.2657  0.2662 -0.1116
 2987SOL     OW16010   5.917   0.310   1.267 -0.9490  0.6010  0.3503
 2987SOL    HW116011   5.975   0.385   1.270  0.2273 -0.3194  1.2350
 2987SOL    HW216012   5.965   0.244   1.217 -2.2102  0.6026 -0.9360
 2988SOL     OW16013   6.788  10.713   8.295 -0.8236 -0.3553  0.3896
 2988SOL    HW116014   6.738  10.792   8.273 -0.9182 -0.3702  0.5504
 2988SOL    HW216015   6.746  10.644   8.243 -0.8751 -0.3403  0.4118
 2989SOL     OW16016   3.256   2.246   4.690  0.2468  0.4198 -0.1766
 2989SOL    HW116017   3.237   2.339   4.683 -1.2261  0.1865  0.2892
 2989SOL    HW216018   3.349   2.238   4.670  1.0222  2.3074  2.2765
 2990SOL     OW16019   9.116   8.345  11.257  0.0403 -0.1691 -0.3385
 2990SOL    HW116020   9.056   8.272  11.272  1.7177 -1.7133 -0.8333
 2990SOL    HW216021   9.203   8.305  11.252  0.9374  1.7591 -1.5659
 2991SOL     OW16022   8.907  12.543   9.567 -0.0950 -0.3130 -0.2309
 2991SOL    HW116023   8.826  12.568   9.525 -0.0805 -1.9851 -1.3600
 2991SOL    HW216024   8.973  12.601   9.531 -0.8587  1.6948  1.3856
 2992SOL     OW16025   2.908  12.073   4.045  0.0981 -0.1623 -0.1043
 2992SOL    HW116026   2.977  12.128   4.006  0.1731  0.0100  0.2645
 2992SOL    HW216027   2.827  12.122   4.029 -0.1635 -1.0934 -1.9109
 2993SOL     OW16028   7.847   8.071   5.761 -0.4934  0.1568  0.3822
 2993SOL    HW116029   7.848   8.134   5.833  0.0766 -0.0971  0.6030
 2993SOL    HW216030   7.927   8.019   5.773 -0.5559 -0.0953 -0.2499
 2994SOL     OW16031   7.954  12.551   6.056  0.2782  0.1549  0.8632
 2994SOL    HW116032   8.048  12.571   6.048  0.5508 -0.8865  1.3160
 2994SOL    HW216033   7.951  12.473   6.110 -0.8812  0.3087  1.0404
 2995SOL     OW16034   4.813  11.916   9.030 -0.0362 -0.5095 -0.5392
 2995SOL    HW116035   4.887  11.894   8.974  1.5104  4.4129 -0.9676
 2995SOL    HW216036   4.852  11.958   9.106 -2.3471 -1.0119  1.0451
 2996SOL     OW16037  12.325   4.804  11.813 -0.3647 -0.0386  0.4529
 2996SOL    HW116038  12.299   4.821  11.904 -0.7406 -0.0656  0.3536
 2996SOL    HW216039  12.350   4.712  11.811  0.6169  0.2140  0.7499
 2997SOL     OW16040   8.559   8.679   6.921 -0.2329 -0.2524  0.6804
 2997SOL    HW116041   8.524   8.653   7.007 -1.8278  0.9715  0.4592
 2997SOL    HW216042   8.514   8.761   6.902  2.7838  1.4340  0.2904
 2998SOL     OW16043   2.597   5.216   2.252 -0.5819  0.2584  0.2150
 2998SOL    HW116044   2.549   5.299   2.254 -0.5989  0.2506  0.1557
 2998SOL    HW216045   2.532   5.151   2.225 -0.0295  0.6234 -2.3155
 2999SOL     OW16046   7.260   9.734   9.891  0.0545  0.1056  0.7124
 2999SOL    HW116047   7.348   9.762   9.866  0.0562 -0.2490  0.3180
 2999SOL    HW216048   7.218   9.814   9.923  0.9420  0.0368  2.1447
 3000SOL     OW16049  11.560   8.693  10.973 -0.3145 -0.3225  0.2825
 3000SOL    HW116050  11.516   8.630  11.030 -1.5248  0.0301 -0.2272
 3000SOL    HW216051  11.561   8.775  11.023  1.3120 -0.7222  0.9699
 3001SOL     OW16052   9.736   3.029   5.509 -0.2849  0.2335 -0.1977
 3001SOL    HW116053   9.765   3.120   5.509  0.1932  0.1426 -2.2000
 3001SOL    HW216054   9.657   3.029   5.454 -1.0583 -0.3639  0.8803
 3002SOL     OW16055   1.400   6.790   0.961 -0.2095 -0.1265 -0.0832
 3002SOL    HW116056   1.398   6.885   0.951 -1.0258 -0.1764 -0.4916
 3002SOL    HW216057   1.481   6.773   1.009  1.3906  0.5425 -2.3359
 3003SOL     OW16058   6.238   7.282   4.922 -0.4221 -0.1039  0.3076
 3003SOL    HW116059   6.295   7.238   4.858 -1.2410 -1.1297  0.2648
 3003SOL    HW216060   6.285   7.274   5.005  1.3505  2.4782 -0.3043
 3004SOL     OW16061   9.447  10.827   2.842 -0.1858 -0.3604  0.4812
 3004SOL    HW116062   9.462  10.913   2.882 -0.0024 -0.2881  0.2611
 3004SOL    HW216063   9.520  10.773   2.873 -0.4164 -0.4987  0.7895
 3005SOL     OW16064  10.477  10.154   8.368  0.8604  0.0922  0.6480
 3005SOL    HW116065  10.533  10.195   8.302  1.0067  0.5724  1.0663
 3005SOL    HW216066  10.538  10.119   8.433  0.6996  3.3207  2.7583
 3006SOL     OW16067  11.330   1.994   5.990  0.1635 -0.3383  0.0628
 3006SOL    HW116068  11.360   1.907   6.017 -0.2692 -1.0447 -1.6355
 3006SOL    HW216069  11.277   2.025   6.063 -0.1688 -1.7570  0.4478
 3007SOL     OW16070   9.573   0.182   6.337  0.0924  0.2041  0.0504
 3007SOL    HW116071   9.653   0.233   6.347  1.3019 -1.6120  0.2943
 3007SOL    HW216072   9.573   0.157   6.244  0.1999 -0.3502  0.1927
 3008SOL     OW16073   0.110   0.152   4.796  0.1917 -0.4786  0.2653
 3008SOL    HW116074   0.066   0.184   4.718 -0.5575  1.1170  1.2864
 3008SOL    HW216075   0.196   0.193   4.794  1.2406 -2.5683 -1.0534
 3009SOL     OW16076   4.616  10.694   6.314  0.0431 -0.1701 -0.3017
 3009SOL    HW116077   4.559  10.651   6.250 -1.3542 -0.4379  1.0569
 3009SOL    HW216078   4.704  10.665   6.291 -0.8095 -4.4758  0.9206
 3010SOL     OW16079   2.584   6.438   7.947 -0.3879  0.1355 -0.3671
 3010SOL    HW116080   2.607   6.476   7.862 -0.9590 -1.4833 -1.2789
 3010SOL    HW216081   2.499   6.475   7.968 -1.4572 -1.3873 -1.7805
 3011SOL     OW16082  11.107   0.946   2.058 -0.7903 -0.1050 -0.4079
 3011SOL    HW116083  11.098   0.978   2.148 -1.1938 -1.0426 -0.0999
 3011SOL    HW216084  11.079   1.019   2.003 -1.5118  0.1377  0.2712
 3012SOL     OW16085   3.383   7.866  11.004 -0.2655  0.0648  0.2487
 3012SOL    HW116086   3.296   7.858  11.043 -1.5052  0.0373 -2.3045
 3012SOL    HW216087   3.399   7.780  10.964  1.6478 -0.4269  1.9345
 3013SOL     OW16088   2.538   9.184   6.947  0.1663 -0.0851  0.3388
 3013SOL    HW116089   2.547   9.217   7.036  1.8222 -0.5596  0.3848
 3013SOL    HW216090   2.513   9.261   6.895  2.3861  0.9651  0.7008
 3014SOL     OW16091  12.187   1.598  11.202 -0.7655 -0.9345 -0.5030
 3014SOL    HW116092  12.196   1.690  11.176  0.6015 -0.9134 -0.0361
 3014SOL    HW216093  12.236   1.549  11.136  0.5896 -1.0927  0.5610
 3015SOL     OW16094   8.814  12.107   3.465  0.3903  0.1826  0.0343
 3015SOL    HW116095   8.837  12.015   3.477 -0.0110 -0.3212 -2.4093
 3015SOL    HW216096   8.718  12.108   3.466  0.3949  0.8208  1.4062
 3016SOL     OW16097   1.908   0.199   6.251 -0.2996  0.0738  0.2779
 3016SOL    HW116098   1.953   0.207   6.335 -0.3943  0.6667  0.2785
 3016SOL    HW216099   1.879   0.108   6.248 -0.3754  0.0715  0.9271
 3017SOL     OW16100  10.859   2.590   7.537 -0.5551  0.4531 -0.5092
 3017SOL    HW116101  10.793   2.544   7.485  1.5139 -1.3190 -1.7149
 3017SOL    HW216102  10.878   2.529   7.609  0.4210  0.5073 -0.7123
 3018SOL     OW16103  10.586  11.684  11.207  0.0354  0.8846 -0.0271
 3018SOL    HW116104  10.606  11.776  11.188  1.5104  0.6225  0.1898
 3018SOL    HW216105  10.654  11.657  11.269 -0.4131 -0.3500 -0.0591
 3019SOL     OW16106   1.343  10.083   2.821  0.0787  0.6463 -0.2772
 3019SOL    HW116107   1.334  10.172   2.787 -1.9373  0.6664  0.1555
 3019SOL    HW216108   1.342  10.094   2.916 -1.7595  0.0831 -0.2006
 3020SOL     OW16109   5.585   9.934   4.972  0.3153  0.3839  0.0783
 3020SOL    HW116110   5.610  10.026   4.971 -1.1194  0.8225  1.5077
 3020SOL    HW216111   5.533   9.921   4.893  0.3204  0.8515  0.0009
 3021SOL     OW16112   2.325   9.276   3.764 -0.1918  0.0203 -0.2441
 3021SOL    HW116113   2.298   9.349   3.708 -0.3906  0.0560 -0.1008
 3021SOL    HW216114   2.394   9.312   3.819  0.4922 -0.1971 -0.9419
 3022SOL     OW16115   3.693  12.376  10.465 -0.0655 -0.3636 -0.1328
 3022SOL    HW116116   3.741  12.296  10.446  0.1274 -0.4484  0.6739
 3022SOL    HW216117   3.720  12.401  10.553  1.7017  1.9149 -1.1983
 3023SOL     OW16118   5.766  11.156   3.892 -0.0930 -0.1417  0.0725
 3023SOL    HW116119   5.697  11.095   3.866 -0.8844  0.2539  1.1945
 3023SOL    HW216120   5.848  11.109   3.875 -0.6694 -1.1461  0.0279
 3024SOL     OW16121   2.349  10.361   6.645  0.0691  0.0933  0.0744
 3024SOL    HW116122   2.383  10.439   6.690 -0.6928  1.8563 -2.1674
 3024SOL    HW216123   2.254  10.370   6.652 -0.0677 -2.0875  1.9886
 3025SOL     OW16124  10.442  11.517   5.908 -0.5927 -0.4297  1.1672
 3025SOL    HW116125  10.390  11.442   5.935 -1.3524 -0.7608 -1.0699
 3025SOL    HW216126  10.522  11.480   5.871 -0.8441 -0.1532  0.3159
 3026SOL     OW16127   6.027  10.836   7.183  0.1922 -0.2383  0.1796
 3026SOL    HW116128   6.032  10.931   7.190 -0.8295 -0.0418 -1.3287
 3026SOL    HW216129   5.935  10.818   7.160  0.4176 -1.5699  0.2270
 3027SOL     OW16130   3.194   8.977   0.084 -0.3400  0.0423  0.0691
 3027SOL    HW116131   3.171   9.045   0.148 -0.1753 -0.2464  0.4448
 3027SOL    HW216132   3.233   8.907   0.137 -0.1680 -0.1878 -0.3572
 3028SOL     OW16133   4.678   1.622   8.618 -0.2292  0.4047 -0.1886
 3028SOL    HW116134   4.681   1.718   8.628  1.4077  0.3330  0.2507
 3028SOL    HW216135   4.677   1.609   8.523 -2.0947  0.8635 -0.2633
 3029SOL     OW16136   7.070   7.473   7.157  0.0360  0.0053  0.4808
 3029SOL    HW116137   7.039   7.467   7.248 -0.1826  1.0048  0.4853
 3029SOL    HW216138   7.034   7.556   7.125 -2.9275 -1.9243 -1.6808
 3030SOL     OW16139   5.747   7.619   7.153 -0.1525  0.1346  0.5608
 3030SOL    HW116140   5.816   7.608   7.218 -0.0634  0.7060  0.5763
 3030SOL    HW216141   5.764   7.706   7.116 -1.4478  0.7183  1.2586
 3031SOL     OW16142   6.267   2.114   9.023  0.4308  0.0965 -0.1052
 3031SOL    HW116143   6.360   2.105   9.045  0.3548  1.1700  0.7783
 3031SOL    HW216144   6.267   2.165   8.942  0.6315 -0.9713 -0.7909
 3032SOL     OW16145   3.965   4.379   8.171  0.3463 -0.0019 -0.1459
 3032SOL    HW116146   4.037   4.425   8.127  0.0122  0.3673 -0.3053
 3032SOL    HW216147   4.005   4.343   8.250  1.0014 -0.8404 -0.8417
 3033SOL     OW16148  12.408   4.904   7.476 -0.1243  0.0943 -0.2449
 3033SOL    HW116149  12.457   4.841   7.528 -1.0929  0.5159  1.2651
 3033SOL    HW216150  12.408   4.984   7.529 -1.0419  0.5965 -0.9582
 3034SOL     OW16151   9.544  10.544  10.858 -0.5053  0.4224  0.3522
 3034SOL    HW116152   9.508  10.608  10.796  1.5370  0.2643 -1.0886
 3034SOL    HW216153   9.489  10.553  10.935 -2.8989  0.9348 -1.3066
 3035SOL     OW16154  12.254   7.980   2.010 -0.1518 -0.1088 -0.0512
 3035SOL    HW116155  12.339   8.022   1.996  0.3221 -1.6553 -2.4968
 3035SOL    HW216156  12.269   7.919   2.081  0.2192  0.9792  0.8388
 3036SOL     OW16157   2.836   7.315   5.036 -0.4766 -0.2284  0.5744
 3036SOL    HW116158   2.827   7.407   5.061  0.3101 -0.0914  0.3962
 3036SOL    HW216159   2.788   7.267   5.103  0.0766  0.2426  1.3275
 3037SOL     OW16160   4.327   4.065   2.975  0.7013  0.8753 -0.4983
 3037SOL    HW116161   4.341   4.130   2.906  1.4327  1.8483  0.5198
 3037SOL    HW216162   4.233   4.045   2.971  0.9548 -0.1338 -2.6346
 3038SOL     OW16163   5.286  10.764   7.329 -0.6995 -0.4689 -0.4302
 3038SOL    HW116164   5.238  10.832   7.377  1.2553 -0.7002  2.0197
 3038SOL    HW216165   5.309  10.700   7.396 -0.2565 -2.2770 -2.2368
 3039SOL     OW16166   8.431   4.385   3.242 -0.1801  0.0312 -0.1955
 3039SOL    HW116167   8.371   4.393   3.167 -0.4328 -0.5291 -0.0592
 3039SOL    HW216168   8.456   4.475   3.262 -0.2397  0.2024 -0.8497
 3040SOL     OW16169   9.515   2.388  12.216 -0.0129  0.3925  0.4036
 3040SOL    HW116170   9.472   2.467  12.249  0.2926  2.1162 -2.9046
 3040SOL    HW216171   9.607   2.400  12.237 -0.1718  0.1283  1.2806
 3041SOL     OW16172   3.884   4.317   0.979 -0.3510  0.4224  0.2551
 3041SOL    HW116173   3.868   4.411   0.984  0.9063  0.7314 -0.9860
 3041SOL    HW216174   3.971   4.304   1.015  0.2354  0.0150 -1.2023
 3042SOL     OW16175   5.808   0.484   3.794  0.3858  0.6393  0.1922
 3042SOL    HW116176   5.813   0.552   3.862 -0.3536  0.3521  0.5335
 3042SOL    HW216177   5.898   0.451   3.788  0.5697  1.0323  0.6555
 3043SOL     OW16178   1.690   0.815  11.756 -0.0933 -0.5411 -0.2883
 3043SOL    HW116179   1.603   0.855  11.754  0.6305  1.1173 -0.9306
 3043SOL    HW216180   1.748   0.884  11.723  1.3786 -1.8342 -0.4839
 3044SOL     OW16181   9.983   4.373   4.958 -0.0196 -0.2848  0.2603
 3044SOL    HW116182   9.931   4.396   5.035  0.8626 -1.6826  1.3149
 3044SOL    HW216183  10.038   4.450   4.943  0.7621 -0.4872  1.8775
 3045SOL     OW16184  11.353   0.764   3.743 -0.0850  0.3624 -0.3021
 3045SOL    HW116185  11.350   0.713   3.824 -0.4454  1.1315  0.1819
 3045SOL    HW216186  11.418   0.720   3.689 -0.7210 -0.8748 -0.0838
 3046SOL     OW16187   1.834   1.256   6.195  0.2530  0.0645  0.1477
 3046SOL    HW116188   1.900   1.216   6.253 -1.1067  0.0565  1.7515
 3046SOL    HW216189   1.750   1.230   6.233 -0.7246 -0.3834 -2.1676
 3047SOL     OW16190  10.873   1.706  11.684  0.7126  0.3043 -0.4229
 3047SOL    HW116191  10.954   1.663  11.713 -0.4814 -0.2564  2.3910
 3047SOL    HW216192  10.831   1.642  11.627  1.3515 -0.1480 -0.4002
 3048SOL     OW16193   3.759   5.505   8.617  0.6931 -0.1006  0.1653
 3048SOL    HW116194   3.791   5.592   8.637  1.2518  0.2565 -2.0540
 3048SOL    HW216195   3.664   5.512   8.624  0.6531  1.0294 -1.0823
 3049SOL     OW16196  11.408   9.016   9.838  0.3652 -0.1084  0.4239
 3049SOL    HW116197  11.489   9.064   9.858  0.2668 -0.8486  2.9128
 3049SOL    HW216198  11.421   8.983   9.749  1.7157  1.9095 -0.1938
 3050SOL     OW16199   2.905  12.238  11.990 -0.6382 -0.3638  0.1162
 3050SOL    HW116200   2.934  12.299  12.058 -1.3850  1.3606 -1.0765
 3050SOL    HW216201   2.978  12.234  11.928 -0.0008 -1.8560  0.8905
 3051SOL     OW16202   0.122  11.117   8.296 -0.5002 -0.2210  0.1856
 3051SOL    HW116203   0.202  11.084   8.338  0.4550  2.1715  0.3793
 3051SOL    HW216204   0.147  11.130   8.205 -0.1681  1.8620  0.5246
 3052SOL     OW16205   4.854  11.037   5.131 -0.5160  0.8500 -0.9453
 3052SOL    HW116206   4.773  11.036   5.081 -1.4103  0.6127  0.4348
 3052SOL    HW216207   4.854  11.121   5.176  1.6990  2.3405 -3.4424
 3053SOL     OW16208   1.424   5.679  12.241  0.0098 -0.3426  0.5303
 3053SOL    HW116209   1.479   5.604  12.261  0.7798  0.2961  0.8749
 3053SOL    HW216210   1.474   5.729  12.176 -0.8751 -0.5636 -0.3322
 3054SOL     OW16211  10.464   3.160  12.391 -0.0104 -0.4255 -0.0803
 3054SOL    HW116212  10.516   3.145  12.470 -1.4271  1.4975  1.3272
 3054SOL    HW216213  10.407   3.234  12.414 -1.2417 -0.5087 -2.5535
 3055SOL     OW16214   0.717   9.852   8.601  0.7350  0.3993 -0.3020
 3055SOL    HW116215   0.655   9.923   8.584 -0.6331 -0.7120 -0.0909
 3055SOL    HW216216   0.680   9.805   8.676  2.2328  0.1411  0.3133
 3056SOL     OW16217   9.400   4.971   7.931 -0.4353 -0.5330  0.2143
 3056SOL    HW116218   9.412   4.924   8.013  1.0499  0.7513  0.7697
 3056SOL    HW216219   9.418   4.906   7.863 -1.3582 -1.5176  0.8720
 3057SOL     OW16220   1.341   5.769   1.287 -0.2444 -0.0595  0.2931
 3057SOL    HW116221   1.434   5.791   1.282  0.3081 -2.3289 -0.7906
 3057SOL    HW216222   1.333   5.716   1.366 -0.3538 -0.8931 -0.2649
 3058SOL     OW16223   1.443   4.854   3.674  0.8000  0.2032 -0.3776
 3058SOL    HW116224   1.463   4.765   3.646  1.3398  0.0023  0.6037
 3058SOL    HW216225   1.347   4.859   3.674  0.7787 -0.1588 -1.0721
 3059SOL     OW16226   1.193   0.140   9.217 -0.4500  0.0782 -0.3215
 3059SOL    HW116227   1.149   0.176   9.293 -1.2866 -1.5857  0.0072
 3059SOL    HW216228   1.257   0.207   9.193  0.4064  0.3062  2.3139
 3060SOL     OW16229   8.004   9.443   8.680 -0.2018 -0.4313 -0.1481
 3060SOL    HW116230   7.941   9.386   8.724  0.4996 -0.6294  0.6307
 3060SOL    HW216231   7.991   9.529   8.719 -1.3129 -0.0182 -1.3782
 3061SOL     OW16232   3.569  11.120   3.074 -0.3320  0.6520  0.2643
 3061SOL    HW116233   3.492  11.157   3.118 -0.2244  1.1845  0.0179
 3061SOL    HW216234   3.608  11.195   3.028 -0.0815  0.2321 -0.2117
 3062SOL     OW16235   4.840  11.449   2.606 -0.5394 -0.1479  0.0785
 3062SOL    HW116236   4.927  11.459   2.567 -0.8248 -0.4124 -0.6464
 3062SOL    HW216237   4.849  11.375   2.666 -0.0976  0.2525  0.5152
 3063SOL     OW16238   1.805   8.138   4.772 -0.4525  0.0998  0.2407
 3063SOL    HW116239   1.776   8.052   4.802  1.0636 -0.5004  0.1040
 3063SOL    HW216240   1.757   8.153   4.691 -1.9421  0.1322  1.1004
 3064SOL     OW16241  10.825   5.291  12.301 -0.0760  0.1508 -0.1168
 3064SOL    HW116242  10.867   5.236  12.236  1.1510  1.1366 -0.1976
 3064SOL    HW216243  10.733   5.294  12.275  0.1527 -0.5214 -1.0315
 3065SOL     OW16244   2.009   6.667   2.247  0.0843  1.1385 -0.1740
 3065SOL    HW116245   1.961   6.583   2.248 -3.0515  2.7659  0.6546
 3065SOL    HW216246   2.014   6.693   2.339  1.9651  1.4348 -0.3238
 3066SOL     OW16247   9.336   0.076   0.560  0.4914  0.0221 -0.3125
 3066SOL    HW116248   9.414   0.130   0.565  0.6856 -0.3606  1.3356
 3066SOL    HW216249   9.273   0.119   0.618  0.1602 -0.7368 -0.0943
 3067SOL     OW16250   3.288   2.376  12.423 -0.2462 -0.3046  0.5656
 3067SOL    HW116251   3.292   2.471  12.422 -1.6973 -0.2096 -0.9175
 3067SOL    HW216252   3.356   2.347  12.363  0.4029 -0.2271  1.2570
 3068SOL     OW16253   6.602  10.752   0.590  0.4968  0.2216 -0.0276
 3068SOL    HW116254   6.545  10.698   0.646  1.2326 -0.7672 -0.2065
 3068SOL    HW216255   6.630  10.823   0.647  3.2702 -2.1082  1.7665
 3069SOL     OW16256   0.387   3.653   3.320 -0.3612  1.1754 -0.3990
 3069SOL    HW116257   0.425   3.692   3.240  0.7807  1.4085  0.2302
 3069SOL    HW216258   0.418   3.562   3.319  0.2695  1.3746  0.1323
 3070SOL     OW16259   0.777   4.467   2.135 -0.6079 -0.0720  0.1745
 3070SOL    HW116260   0.692   4.471   2.092 -1.0921 -1.1386  0.9729
 3070SOL    HW216261   0.825   4.399   2.087 -0.6441 -0.2910  0.4435
 3071SOL     OW16262   9.582   2.258   6.646  0.1020  0.2114  0.0123
 3071SOL    HW116263   9.627   2.273   6.563 -0.3034 -2.7738 -0.8596
 3071SOL    HW216264   9.604   2.168   6.670 -1.7535  0.1705  1.8945
 3072SOL     OW16265   6.291   6.145   9.710  0.1126  0.2492 -0.0408
 3072SOL    HW116266   6.369   6.097   9.683 -0.2419 -1.5499  1.9024
 3072SOL    HW216267   6.287   6.134   9.805 -1.8175  1.3630  0.0589
 3073SOL     OW16268   0.173   4.874   5.235 -0.4525 -0.2578 -0.0961
 3073SOL    HW116269   0.233   4.876   5.309 -0.2878  1.3363 -0.2382
 3073SOL    HW216270   0.231   4.871   5.158 -0.5872 -0.4375 -0.1896
 3074SOL     OW16271   3.631   8.731   0.854 -0.3327 -0.0387 -0.1818
 3074SOL    HW116272   3.575   8.792   0.805 -2.3097  0.3047  2.2818
 3074SOL    HW216273   3.596   8.644   0.832 -0.2279 -0.0029 -0.5014
 3075SOL     OW16274   4.972  10.207  12.395 -0.1242  0.2189 -0.1057
 3075SOL    HW116275   5.065  10.218  12.376  0.2909 -1.8587  0.4227
 3075SOL    HW216276   4.928  10.266  12.334  1.4263 -0.8370 -2.3968
 3076SOL     OW16277   0.757   3.572   3.624  0.1299  0.2272  0.3887
 3076SOL    HW116278   0.704   3.641   3.583 -0.1858  1.0437  2.0700
 3076SOL    HW216279   0.846   3.590   3.597 -0.0436  0.8788  0.2340
 3077SOL     OW16280   9.255   3.960   9.858 -0.3830 -0.4023  0.0123
 3077SOL    HW116281   9.267   3.992   9.768  0.4709 -2.5240 -0.6814
 3077SOL    HW216282   9.343   3.964   9.897 -1.0452  2.3839  1.5159
 3078SOL     OW16283   5.533   0.456  11.484 -0.3626  0.1062 -0.3960
 3078SOL    HW116284   5.521   0.362  11.471  2.7950 -0.2978 -1.1789
 3078SOL    HW216285   5.500   0.496  11.404 -0.5292 -0.4580 -0.6162
 3079SOL     OW16286   4.989   5.061   9.345 -0.2268 -0.4583 -0.5597
 3079SOL    HW116287   4.982   5.036   9.253  0.7915  0.9749 -1.0633
 3079SOL    HW216288   4.900   5.088   9.370 -0.2275  0.5692 -1.5849
 3080SOL     OW16289  12.109   8.926   9.681  0.3001 -0.0164 -0.0473
 3080SOL    HW116290  12.114   9.013   9.642  2.2699 -0.7953 -1.7467
 3080SOL    HW216291  12.017   8.900   9.669 -0.3755  1.8734  0.7025
 3081SOL     OW16292   7.326   0.450   1.740  0.1550  0.1095  0.0306
 3081SOL    HW116293   7.291   0.418   1.657  0.6232 -1.7843  0.5068
 3081SOL    HW216294   7.385   0.521   1.716 -2.4992  2.1263 -0.9230
 3082SOL     OW16295  12.551   0.510   5.539  0.4605  0.0907 -0.2640
 3082SOL    HW116296  12.578   0.469   5.621  0.0102  0.7023  0.1928
 3082SOL    HW216297  12.500   0.586   5.565 -0.2670 -0.0921 -1.1185
 3083SOL     OW16298  10.682   0.114   5.335 -0.2625 -0.0055  0.2891
 3083SOL    HW116299  10.596   0.155   5.333 -0.6950 -0.8275  1.0662
 3083SOL    HW216300  10.697   0.094   5.428  0.6267 -0.1566  0.1263
 3084SOL     OW16301   2.698  10.065  10.442  0.1511  0.2034 -0.1334
 3084SOL    HW116302   2.725   9.980  10.475 -2.0984 -0.1199  1.0534
 3084SOL    HW216303   2.625  10.046  10.384  0.3787  1.2580 -0.8042
 3085SOL     OW16304   0.789   5.055   0.148 -0.2871 -0.2059 -0.3887
 3085SOL    HW116305   0.877   5.047   0.111  0.2841 -1.5265  1.0937
 3085SOL    HW216306   0.730   5.047   0.073  0.8510  0.6953 -1.4099
 3086SOL     OW16307   7.069   4.297   3.142 -0.6345 -0.3410  0.2632
 3086SOL    HW116308   7.063   4.238   3.068 -2.8139 -0.2669  0.3174
 3086SOL    HW216309   7.005   4.365   3.124  0.5474  1.0501  1.0587
 3087SOL     OW16310   6.888  10.068   6.261 -0.3019  0.4430  0.2113
 3087SOL    HW116311   6.916  10.157   6.285  0.1186  0.2501  0.4420
 3087SOL    HW216312   6.967  10.015   6.270 -0.3214  0.2233 -0.8682
 3088SOL     OW16313   2.912   2.763  12.536  0.7838 -0.0328 -0.4040
 3088SOL    HW116314   2.912   2.693  12.601  1.1630 -0.6820 -1.0794
 3088SOL    HW216315   2.999   2.802  12.542  0.9707 -0.3726 -0.7944
 3089SOL     OW16316   6.145   7.037   2.760  1.1423 -0.1599  0.0579
 3089SOL    HW116317   6.175   7.014   2.673  0.0123 -2.4461  0.1926
 3089SOL    HW216318   6.195   6.982   2.819 -0.5802 -1.3042  0.5396
 3090SOL     OW16319   7.614   3.280   4.039 -0.4365  0.1972  0.3284
 3090SOL    HW116320   7.552   3.345   4.004  0.0123  1.2965  1.5159
 3090SOL    HW216321   7.700   3.311   4.010 -0.2645 -0.1749  0.4344
 3091SOL     OW16322   9.296   7.054  11.140  0.3173 -0.2595 -0.1979
 3091SOL    HW116323   9.331   7.059  11.051 -2.2269  2.0593 -1.2140
 3091SOL    HW216324   9.328   7.133  11.183 -0.3495 -0.1618  0.1430
 3092SOL     OW16325   8.867   2.111   6.263 -0.4359 -0.1860  0.5327
 3092SOL    HW116326   8.838   2.090   6.174  1.5364 -0.7195 -0.0347
 3092SOL    HW216327   8.865   2.207   6.267 -0.3473 -0.1479 -0.1538
 3093SOL     OW16328   4.809   6.080   0.112 -0.1035  0.1857 -0.1405
 3093SOL    HW116329   4.838   6.124   0.192 -0.2846  0.7132 -0.3606
 3093SOL    HW216330   4.880   6.020   0.091  0.6475  1.1466 -0.4302
 3094SOL     OW16331   0.096   9.482   0.298  0.3978  0.1998 -0.7268
 3094SOL    HW116332   0.079   9.460   0.390  3.3372  0.8380  0.0709
 3094SOL    HW216333   0.016   9.526   0.269 -1.4157 -1.8362  0.8369
 3095SOL     OW16334   6.574   9.649   2.960  0.2612 -0.1171 -0.3594
 3095SOL    HW116335   6.567   9.717   3.027 -1.4603 -0.7562  0.1730
 3095SOL    HW216336   6.492   9.656   2.910 -0.1240 -1.9927 -0.0714
 3096SOL     OW16337   9.360   4.231   4.024 -0.0457 -0.1382 -0.1078
 3096SOL    HW116338   9.365   4.196   4.113  0.1574 -1.3956 -0.5836
 3096SOL    HW216339   9.402   4.317   4.029  1.5637 -0.9229  0.6710
 3097SOL     OW16340   8.896   1.446   6.569  0.0110 -0.3231  0.3983
 3097SOL    HW116341   8.881   1.404   6.484 -2.1124  1.6631 -0.3222
 3097SOL    HW216342   8.837   1.401   6.629 -2.8633  1.8601 -0.5427
 3098SOL     OW16343  10.780   4.245  12.419  0.6111  0.1464 -0.4995
 3098SOL    HW116344  10.829   4.252  12.501 -0.1299 -2.5539  0.2877
 3098SOL    HW216345  10.691   4.269  12.442 -0.2655 -3.3063  0.3769
 3099SOL     OW16346   4.920  12.448   6.441  0.5237 -0.3954 -0.2560
 3099SOL    HW116347   4.924  12.527   6.387  2.3732 -0.5215 -0.3691
 3099SOL    HW216348   4.879  12.477   6.523  0.1137  0.3998 -0.7286
 3100SOL     OW16349   1.693   3.911   9.316 -0.1571 -0.1092 -0.0366
 3100SOL    HW116350   1.701   3.997   9.275  0.1581 -0.0182  0.2156
 3100SOL    HW216351   1.760   3.910   9.384  0.7661 -1.0482 -0.9132
 3101SOL     OW16352   6.915   9.531   0.754  0.5175 -0.5973  0.4275
 3101SOL    HW116353   6.970   9.585   0.698  0.0036  1.7098  1.9944
 3101SOL    HW216354   6.883   9.591   0.821 -2.1732 -2.3070  0.8329
 3102SOL     OW16355  10.100   4.132  12.469  0.0998 -0.0094 -0.0527
 3102SOL    HW116356  10.123   4.224  12.481 -0.8436  0.0598  1.5109
 3102SOL    HW216357  10.124   4.090  12.551 -0.6108 -0.9163 -0.2855
 3103SOL     OW16358  10.715   6.534  10.771 -0.1691 -0.2044  0.7763
 3103SOL    HW116359  10.717   6.588  10.850 -2.5066 -0.6815  1.2429
 3103SOL    HW216360  10.700   6.445  10.803 -0.3545 -0.5195 -0.1523
 3104SOL     OW16361   7.859   1.767   6.657 -0.6193 -0.1555 -0.1790
 3104SOL    HW116362   7.774   1.812   6.655 -1.2045 -1.2315 -2.7200
 3104SOL    HW216363   7.880   1.751   6.565  1.4195 -1.6496  0.4862
 3105SOL     OW16364  12.291  11.586   7.406 -0.3358  0.2194 -0.1966
 3105SOL    HW116365  12.383  11.562   7.400 -0.5473 -0.3034 -2.2668
 3105SOL    HW216366  12.252  11.520   7.464  0.2037 -0.9043 -1.0692
 3106SOL     OW16367   1.446   2.321   0.045 -1.1094  0.0573  0.2122
 3106SOL    HW116368   1.464   2.246  -0.013 -1.1317 -0.1440  0.4632
 3106SOL    HW216369   1.480   2.396  -0.003 -0.8866 -0.1406  0.0517
 3107SOL     OW16370   9.246  11.269   2.242  0.6255  0.0973 -0.5168
 3107SOL    HW116371   9.302  11.206   2.196  0.3638  0.3508 -1.2032
 3107SOL    HW216372   9.161  11.225   2.248  0.9980 -0.4905  0.9669
 3108SOL     OW16373   6.812   5.340   8.664 -0.1226 -0.0718  0.4025
 3108SOL    HW116374   6.871   5.283   8.713 -1.0912 -0.5009  1.0936
 3108SOL    HW216375   6.853   5.426   8.668  1.0929 -0.5843 -0.2072
 3109SOL     OW16376   3.842   6.276   8.620 -0.7988 -0.2267  0.0038
 3109SOL    HW116377   3.926   6.263   8.574 -0.4432  0.5656  0.4062
 3109SOL    HW216378   3.866   6.279   8.712 -1.0804  1.3027  0.0512
 3110SOL     OW16379   5.081   3.551   2.281  0.5193 -0.6315 -0.2888
 3110SOL    HW116380   5.000   3.519   2.321  1.1266 -1.6848  0.1454
 3110SOL    HW216381   5.143   3.560   2.354  1.0745 -0.7391 -0.7370
 3111SOL     OW16382  12.194  12.458   3.258  0.3753  0.7663 -0.0553
 3111SOL    HW116383  12.213  12.533   3.316  1.0112  1.0073 -0.5634
 3111SOL    HW216384  12.193  12.495   3.170 -1.5111  0.5688 -0.1552
 3112SOL     OW16385   2.886   1.080  11.850  0.5176  0.6855  0.3063
 3112SOL    HW116386   2.856   1.157  11.802 -2.6990  0.7013  2.0074
 3112SOL    HW216387   2.844   1.088  11.936  0.3240 -2.7528  0.6838
 3113SOL     OW16388   2.685   1.582   9.107 -0.2858  0.5002  0.0747
 3113SOL    HW116389   2.601   1.552   9.071 -0.8212 -0.1369  1.7345
 3113SOL    HW216390   2.740   1.503   9.107  0.0248  0.7168 -0.2146
 3114SOL     OW16391   2.747   3.476  11.151  0.3848  0.3661 -0.4333
 3114SOL    HW116392   2.780   3.393  11.186  1.3096  0.5976 -0.7118
 3114SOL    HW216393   2.810   3.499  11.083  1.8677  2.7493  1.5547
 3115SOL     OW16394   4.830   5.525   4.009 -0.2201  0.5734  0.2681
 3115SOL    HW116395   4.882   5.453   4.044  1.9108  2.1872  0.6234
 3115SOL    HW216396   4.779   5.486   3.938  0.4903 -1.3555  0.7572
 3116SOL     OW16397  12.524   0.647   0.741  0.0820 -0.5417  0.4905
 3116SOL    HW116398  12.599   0.657   0.681 -1.0146 -3.0956 -1.4726
 3116SOL    HW216399  12.453   0.694   0.698 -0.7897 -2.6272 -0.4468
 3117SOL     OW16400   3.265  10.490   8.351  0.2444  0.0116  0.3138
 3117SOL    HW116401   3.348  10.516   8.391  0.6816 -1.3769  0.3420
 3117SOL    HW216402   3.243  10.563   8.292  1.1501  0.6735  0.7779
 3118SOL     OW16403   3.049  12.491   9.018  0.2534 -0.1791  0.2148
 3118SOL    HW116404   3.119  12.517   8.959  0.3447 -1.3016 -0.1774
 3118SOL    HW216405   2.975  12.471   8.961 -0.0476 -0.0892  0.5629
 3119SOL     OW16406   6.198   2.055   9.376 -0.0340  0.0367  0.5630
 3119SOL    HW116407   6.216   2.056   9.470 -0.5401  1.5122  0.6671
 3119SOL    HW216408   6.281   2.083   9.336 -0.1302  0.4407  0.6410
 3120SOL     OW16409   9.235   8.295   8.610  0.6985 -0.4605 -0.6120
 3120SOL    HW116410   9.256   8.366   8.549  1.6122  0.1501  0.3880
 3120SOL    HW216411   9.173   8.240   8.562  0.4724  0.6573 -1.6446
 3121SOL     OW16412   3.608   6.057  11.780 -0.1024  0.2821  0.2197
 3121SOL    HW116413   3.641   6.145  11.797 -0.3492  0.3758  0.2071
 3121SOL    HW216414   3.524   6.053  11.826  0.1628 -0.1292  0.6817
 3122SOL     OW16415   5.755  11.962   9.904  0.6945  0.0389 -0.1680
 3122SOL    HW116416   5.763  12.056   9.916  1.3741  0.1862 -1.5934
 3122SOL    HW216417   5.661  11.945   9.906  0.5987  0.5756  1.0978
 3123SOL     OW16418   2.568   1.687  12.464 -0.5530 -0.5815  0.2213
 3123SOL    HW116419   2.500   1.620  12.459 -0.3570 -0.7071 -1.1567
 3123SOL    HW216420   2.547   1.747  12.392  1.1793 -1.0158 -0.6854
 3124SOL     OW16421   6.655   7.298   2.735  0.0525 -0.0218 -0.2035
 3124SOL    HW116422   6.614   7.377   2.698 -0.5449 -0.8141 -1.2778
 3124SOL    HW216423   6.644   7.308   2.830 -1.1551  0.5954 -0.3867
 3125SOL     OW16424   4.017   7.131   6.311 -0.1886 -0.4676  0.8073
 3125SOL    HW116425   3.966   7.192   6.365  1.1903  0.4667  1.1240
 3125SOL    HW216426   4.096   7.115   6.362  1.4634  0.9274 -1.1350
 3126SOL     OW16427   0.197   6.817   9.198  0.0514 -0.1641 -0.1675
 3126SOL    HW116428   0.237   6.801   9.113  1.2602  0.0378  0.3287
 3126SOL    HW216429   0.143   6.895   9.185  0.0833 -0.2458 -0.7923
 3127SOL     OW16430   0.161  10.719   6.289 -0.0342  0.2609 -0.1339
 3127SOL    HW116431   0.143  10.680   6.374  0.4517 -1.0506 -0.6040
 3127SOL    HW216432   0.087  10.778   6.273 -1.7019 -1.6937 -0.0928
 3128SOL     OW16433   6.782   3.329   6.142 -0.4646 -0.0331 -0.1747
 3128SOL    HW116434   6.817   3.349   6.055  0.2287  0.7694  0.2661
 3128SOL    HW216435   6.778   3.414   6.186 -2.1289 -0.2296  0.1160
 3129SOL     OW16436   6.697  11.226   2.288 -0.1693 -0.1716  0.2026
 3129SOL    HW116437   6.735  11.182   2.364 -1.7947 -0.4065  0.9211
 3129SOL    HW216438   6.711  11.319   2.304 -0.6760 -0.2094  0.9094
 3130SOL     OW16439   1.060  10.691   7.281  0.2042  0.8159 -0.1190
 3130SOL    HW116440   1.033  10.739   7.359  1.9994  0.6573  0.6583
 3130SOL    HW216441   1.103  10.612   7.315  0.2572  0.3062 -1.3002
 3131SOL     OW16442   6.852  10.131   4.564  0.4759 -0.1050  0.4529
 3131SOL    HW116443   6.939  10.132   4.603  0.6068 -0.8560  0.1856
 3131SOL    HW216444   6.866  10.106   4.473 -0.1229 -1.4585  0.7135
 3132SOL     OW16445   9.742   0.805   3.644  0.2596  0.1263 -0.0491
 3132SOL    HW116446   9.766   0.787   3.735 -0.1302  0.3240  0.0934
 3132SOL    HW216447   9.668   0.865   3.649 -0.5315 -0.7839 -0.4736
 3133SOL     OW16448   0.851  12.186   6.163  0.2056 -0.2151 -0.0903
 3133SOL    HW116449   0.907  12.262   6.147 -0.7229  0.8306  1.4074
 3133SOL    HW216450   0.866  12.129   6.087  2.1047  0.7245 -0.4741
 3134SOL     OW16451   8.881   9.214   5.996  0.5883  0.0553 -0.0551
 3134SOL    HW116452   8.883   9.309   5.988  0.6872  0.1292  0.8027
 3134SOL    HW216453   8.808   9.187   5.939 -0.4142  0.7726  0.8563
 3135SOL     OW16454   6.858   8.832  11.652 -0.2924 -0.1831  0.3195
 3135SOL    HW116455   6.880   8.846  11.744  1.5419  1.0270 -0.2572
 3135SOL    HW216456   6.898   8.748  11.631  0.6729  0.2780  0.2466
 3136SOL     OW16457   2.500   7.863  12.334  0.6534 -0.0453 -0.1140
 3136SOL    HW116458   2.526   7.916  12.259 -0.2857 -1.2175 -1.3047
 3136SOL    HW216459   2.413   7.895  12.357  1.4305  1.1984  1.3766
 3137SOL     OW16460   8.604   7.507  10.196  0.0490  0.1385  0.2871
 3137SOL    HW116461   8.616   7.509  10.291  1.3992  0.5245  0.1293
 3137SOL    HW216462   8.683   7.465  10.163 -0.2719  0.2833 -0.7022
 3138SOL     OW16463   2.676   6.039  10.057 -0.5753  0.3357  0.3198
 3138SOL    HW116464   2.715   6.126  10.049  1.6000 -0.5607  0.2240
 3138SOL    HW216465   2.601   6.051  10.115  0.4518  2.0640  1.3886
 3139SOL     OW16466   3.824   0.282   3.892 -0.0770 -0.5980 -0.1332
 3139SOL    HW116467   3.902   0.287   3.837 -0.4569  0.5255 -0.5963
 3139SOL    HW216468   3.764   0.225   3.844 -0.1684 -0.1272 -0.5851
 3140SOL     OW16469   9.495   1.596   0.718  0.4277  0.4219  0.4389
 3140SOL    HW116470   9.477   1.557   0.632 -0.0120  1.5113  0.0075
 3140SOL    HW216471   9.590   1.594   0.726  0.5151  0.8086 -0.3399
 3141SOL     OW16472  12.566   0.863   7.237 -0.2197 -0.8958  0.2955
 3141SOL    HW116473  12.504   0.832   7.170 -1.5420  1.0560  0.5283
 3141SOL    HW216474  12.642   0.894   7.186 -1.7991  1.9329 -0.5578
 3142SOL     OW16475  10.427   9.050   3.842  0.4549  0.6575 -0.1499
 3142SOL    HW116476  10.366   9.018   3.909 -0.5020  1.3569 -0.6566
 3142SOL    HW216477  10.422   9.145   3.849  0.0341  0.7514 -1.4586
 3143SOL     OW16478  11.184  11.648   6.771 -0.1499  0.8370  0.9842
 3143SOL    HW116479  11.256  11.590   6.747 -0.3585  0.7338  0.5927
 3143SOL    HW216480  11.207  11.733   6.733  0.3040  1.1022  1.8193
 3144SOL     OW16481   6.605  10.671   7.286 -0.2452 -0.1812  0.3515
 3144SOL    HW116482   6.651  10.588   7.300  0.9880  0.2503 -0.8681
 3144SOL    HW216483   6.663  10.737   7.324  1.0519  0.5302 -2.5200
 3145SOL     OW16484   9.584   0.010   1.944 -0.5159 -0.6996 -0.5418
 3145SOL    HW116485   9.538  -0.021   2.022  1.5537  0.9049  1.4529
 3145SOL    HW216486   9.677   0.006   1.968  0.0879  1.9261 -2.0797
 3146SOL     OW16487   3.226   7.657  12.326 -0.6139  0.3386  0.0888
 3146SOL    HW116488   3.194   7.698  12.246  0.3211  0.9252  0.0058
 3146SOL    HW216489   3.313   7.694  12.340 -0.6522  0.0550  1.2402
 3147SOL     OW16490   5.982   6.261  12.147 -0.0949  0.3955  0.4089
 3147SOL    HW116491   5.898   6.288  12.184  1.1157  1.5001  2.5317
 3147SOL    HW216492   6.028   6.343  12.129  0.5951 -0.1963 -0.6481
 3148SOL     OW16493   8.474   1.881   1.041 -0.5399 -0.1315  0.1514
 3148SOL    HW116494   8.391   1.875   1.090 -0.8632  0.0083 -0.3707
 3148SOL    HW216495   8.539   1.906   1.107 -0.3761 -2.7981  1.1511
 3149SOL     OW16496  10.046   9.277   2.700 -0.1560  0.0446  0.3706
 3149SOL    HW116497   9.978   9.214   2.722 -0.9369  1.3341  1.9091
 3149SOL    HW216498  10.114   9.262   2.767  0.6957 -0.6281 -0.6115
 3150SOL     OW16499   8.466   4.240   8.488  0.1080 -0.1665  0.4549
 3150SOL    HW116500   8.516   4.160   8.506  0.6355  0.3433  1.3155
 3150SOL    HW216501   8.532   4.308   8.475 -0.2349  1.0497  3.9536
 3151SOL     OW16502   2.299   6.974   2.400  0.0427 -0.2065 -0.5036
 3151SOL    HW116503   2.329   7.064   2.385  0.8188 -0.4519 -0.4643
 3151SOL    HW216504   2.284   6.940   2.312 -0.2525 -0.0410 -0.5189
 3152SOL     OW16505   4.303   2.567   1.053 -0.1463  0.0766  0.8199
 3152SOL    HW116506   4.247   2.494   1.081  0.8333 -1.2377 -0.4988
 3152SOL    HW216507   4.381   2.525   1.016  0.4818  1.8007  0.0716
 3153SOL     OW16508   7.895   7.469   5.296  0.0241  0.0056 -0.5806
 3153SOL    HW116509   7.952   7.412   5.347  0.3335  0.9017  0.0936
 3153SOL    HW216510   7.853   7.525   5.360 -0.5447  0.3046 -1.2046
 3154SOL     OW16511   9.013   7.407  10.894  0.2736 -0.1931 -0.2346
 3154SOL    HW116512   9.072   7.349  10.845 -0.3849 -1.7328  0.7251
 3154SOL    HW216513   8.941   7.350  10.921 -0.1220  0.9643  1.2419
 3155SOL     OW16514   7.281  10.992  11.904 -0.4747 -0.0162 -0.0147
 3155SOL    HW116515   7.335  11.067  11.929  2.2726 -0.7237 -3.1271
 3155SOL    HW216516   7.194  11.028  11.889 -0.0574  1.8620  1.6630
 3156SOL     OW16517  10.183   0.542   7.614  0.8249  0.3230  0.1180
 3156SOL    HW116518  10.242   0.617   7.618  0.0542  1.0680 -1.7398
 3156SOL    HW216519  10.137   0.551   7.530 -0.4337 -1.3612  0.5697
 3157SOL     OW16520   3.579   6.935   0.061  0.4660 -0.1724 -0.2909
 3157SOL    HW116521   3.638   6.875   0.015  0.1915  0.0445 -0.9298
 3157SOL    HW216522   3.634   6.975   0.129  0.6228 -1.2367  0.2242
 3158SOL     OW16523   4.289  11.727   9.665  0.0050 -0.3340 -0.4857
 3158SOL    HW116524   4.298  11.677   9.747  0.1589  1.4079  0.6098
 3158SOL    HW216525   4.200  11.707   9.635  0.0343 -1.1961 -0.0285
 3159SOL     OW16526   6.748   3.379  11.162  0.3178  0.6764  0.4813
 3159SOL    HW116527   6.697   3.340  11.233 -0.1411  1.2314  0.4636
 3159SOL    HW216528   6.763   3.307  11.101 -1.6117  0.7608 -0.1796
 3160SOL     OW16529   7.608   0.635   1.098  0.1391 -0.5398 -0.4414
 3160SOL    HW116530   7.638   0.628   1.007  2.1541 -1.8926  0.2696
 3160SOL    HW216531   7.620   0.727   1.120  0.6527 -0.4160 -1.2102
 3161SOL     OW16532  10.824  10.211   6.420 -0.0672 -0.0255 -0.2694
 3161SOL    HW116533  10.793  10.187   6.507  0.6571  1.4201  0.4151
 3161SOL    HW216534  10.755  10.181   6.361 -0.3228 -1.5170  0.7255
 3162SOL     OW16535   0.824   4.021  10.388 -0.0260  0.0978  0.1045
 3162SOL    HW116536   0.918   4.034  10.375 -0.2841  0.3228 -1.8658
 3162SOL    HW216537   0.785   4.042  10.303 -1.9996  1.1882  1.2002
 3163SOL     OW16538   4.865  11.442   6.959 -0.3289 -0.2100  0.5857
 3163SOL    HW116539   4.791  11.399   6.917 -2.4897  3.6409 -0.0177
 3163SOL    HW216540   4.831  11.469   7.045  0.8199  0.4185  0.8648
 3164SOL     OW16541   4.887  10.824  10.662  0.8153 -0.2618  0.2453
 3164SOL    HW116542   4.849  10.833  10.575 -1.6715 -0.4134  1.2376
 3164SOL    HW216543   4.935  10.906  10.676  0.3323  0.2166 -0.8368
 3165SOL     OW16544   0.052   8.260  10.530  0.2933 -0.2629  0.9031
 3165SOL    HW116545   0.004   8.186  10.492 -0.6474  0.9314 -0.3324
 3165SOL    HW216546   0.003   8.282  10.609  1.4538 -1.8706  2.1481
 3166SOL     OW16547   9.474   7.626  12.149  0.1093 -0.2112  0.1060
 3166SOL    HW116548   9.467   7.585  12.063  1.5233 -0.8947  0.2876
 3166SOL    HW216549   9.555   7.675  12.146 -0.6483  1.1098  0.5224
 3167SOL     OW16550  10.894   6.233  10.296  0.8684 -0.4211  0.1747
 3167SOL    HW116551  10.966   6.230  10.233 -0.1831  2.1953 -1.2829
 3167SOL    HW216552  10.909   6.313  10.346 -1.1238  0.2862 -0.3058
 3168SOL     OW16553  10.697  12.114  10.211  0.0890 -0.6076 -0.0046
 3168SOL    HW116554  10.654  12.197  10.192 -0.4979 -0.5981  1.2912
 3168SOL    HW216555  10.725  12.082  10.126 -1.3124  0.0263 -0.7362
 3169SOL     OW16556   2.223   5.809   0.204  0.0256  0.8546  0.0222
 3169SOL    HW116557   2.141   5.759   0.200 -0.0284  1.0213 -1.6387
 3169SOL    HW216558   2.214   5.862   0.284 -0.5509 -0.6661  1.0042
 3170SOL     OW16559   0.456   6.888   9.016  0.7644  0.2149 -0.1177
 3170SOL    HW116560   0.414   6.973   9.002  1.5279  0.7026  0.5008
 3170SOL    HW216561   0.484   6.860   8.929 -1.3857 -0.4309 -0.6628
 3171SOL     OW16562   1.860   8.173   8.132  0.3927  0.1911  0.1920
 3171SOL    HW116563   1.802   8.212   8.067 -1.4845  0.0206  1.6490
 3171SOL    HW216564   1.811   8.182   8.215  2.1317 -0.6837  1.3662
 3172SOL     OW16565   2.088  12.593  11.844 -0.5900  0.2049 -0.1483
 3172SOL    HW116566   2.106  12.541  11.766  1.1229 -0.5225  0.6728
 3172SOL    HW216567   2.139  12.551  11.913 -1.5857  1.1819  1.2437
 3173SOL     OW16568   7.871  10.121  10.208  0.0263  0.4244  0.7238
 3173SOL    HW116569   7.940  10.144  10.269  2.1174  0.6799 -1.5803
 3173SOL    HW216570   7.827  10.204  10.189 -0.3579  0.4107  1.5052
 3174SOL     OW16571   7.115   5.921   0.791  0.0632 -0.0562 -0.4195
 3174SOL    HW116572   7.190   5.980   0.787  1.4663 -1.6740  0.6704
 3174SOL    HW216573   7.097   5.911   0.884 -0.1431 -1.3248 -0.5798
 3175SOL     OW16574   3.474   3.541  10.966  0.3244 -0.4129  0.0305
 3175SOL    HW116575   3.427   3.540  10.883 -0.0151  0.4381  0.2040
 3175SOL    HW216576   3.406   3.555  11.032  0.9209  1.9987  0.2009
 3176SOL     OW16577   2.727   7.086   8.006 -0.4866 -0.6882 -0.0729
 3176SOL    HW116578   2.820   7.083   8.031 -0.5228  1.5646  0.5655
 3176SOL    HW216579   2.728   7.123   7.917 -0.8071  3.8602  1.5425
 3177SOL     OW16580   7.467   5.885   1.642  0.1118  0.0788 -0.0511
 3177SOL    HW116581   7.376   5.856   1.641 -0.4294  1.6516  0.3993
 3177SOL    HW216582   7.496   5.870   1.733  0.5575 -1.0650 -0.3567
 3178SOL     OW16583   1.619   4.941   9.940  0.1239 -0.4624  0.0740
 3178SOL    HW116584   1.541   4.946   9.885 -0.3035  0.3580  0.7376
 3178SOL    HW216585   1.681   5.001   9.898 -0.6640  1.2052  1.1661
 3179SOL     OW16586   2.170   0.858   0.342  0.0146  0.1068 -0.2459
 3179SOL    HW116587   2.197   0.787   0.284 -2.6917 -1.6173  0.3946
 3179SOL    HW216588   2.250   0.887   0.385  1.4638 -1.3548 -1.8315
 3180SOL     OW16589  11.586   2.420   2.304  0.0505 -0.3488  0.0749
 3180SOL    HW116590  11.535   2.342   2.283 -1.2915  0.3342  0.6743
 3180SOL    HW216591  11.645   2.392   2.374 -0.0048 -0.9617 -0.1178
 3181SOL     OW16592   8.798   6.610   7.628 -0.5236 -0.2668 -0.1330
 3181SOL    HW116593   8.728   6.660   7.586 -0.2506 -0.0781 -0.3654
 3181SOL    HW216594   8.824   6.665   7.703 -0.5531 -0.2886 -0.1068
 3182SOL     OW16595  10.586   2.147   8.462 -0.0854  0.4283 -0.0391
 3182SOL    HW116596  10.515   2.201   8.497 -0.0104 -0.1350  1.0018
 3182SOL    HW216597  10.611   2.089   8.534  2.7798  1.9336  0.3506
 3183SOL     OW16598   8.284   6.944   8.097  0.1891  0.1847  0.0855
 3183SOL    HW116599   8.361   6.917   8.148 -0.1287 -1.9858 -0.4633
 3183SOL    HW216600   8.320   6.971   8.013  0.3813 -1.1051 -0.2760
 3184SOL     OW16601  10.449   2.215   3.727 -0.0861 -0.4963  0.5931
 3184SOL    HW116602  10.526   2.173   3.764  0.1667  0.4973  1.2334
 3184SOL    HW216603  10.404   2.254   3.803 -1.9800 -2.2106  0.4591
 3185SOL     OW16604   7.221   6.452   0.132  0.5863  0.0549 -0.1509
 3185SOL    HW116605   7.155   6.395   0.171 -0.6266 -0.1497 -2.3150
 3185SOL    HW216606   7.183   6.477   0.047  1.9085  2.5620 -0.0886
 3186SOL     OW16607   9.926  11.987   9.078  0.2141 -0.2439  0.7959
 3186SOL    HW116608   9.864  11.966   9.009  0.7310 -0.3618  0.3677
 3186SOL    HW216609   9.955  11.902   9.111  0.4848 -0.1892  0.6960
 3187SOL     OW16610   8.346   8.598  10.485 -0.4946 -0.3232  0.4540
 3187SOL    HW116611   8.400   8.542  10.541 -1.8138  1.8124  4.2062
 3187SOL    HW216612   8.279   8.540  10.450 -0.3983 -1.5644  2.2048
 3188SOL     OW16613   6.140   2.803   3.722  0.3549 -0.6148 -0.1775
 3188SOL    HW116614   6.140   2.734   3.788  1.1349  0.8504  1.4385
 3188SOL    HW216615   6.106   2.880   3.767 -0.2178  0.1564 -1.8323
 3189SOL     OW16616   8.692  11.374   3.881  0.0621 -0.1681  0.1545
 3189SOL    HW116617   8.712  11.457   3.838 -0.6494 -0.7731 -1.4363
 3189SOL    HW216618   8.643  11.325   3.815 -1.0545 -1.1711  1.6719
 3190SOL     OW16619   9.538   0.169  12.183 -0.0985  0.1902  0.6346
 3190SOL    HW116620   9.559   0.165  12.090  0.0211  2.0215  0.5500
 3190SOL    HW216621   9.619   0.144  12.227 -0.7893 -3.0210  0.3043
 3191SOL     OW16622   0.556   9.996   0.701 -0.7190  0.2829 -0.3539
 3191SOL    HW116623   0.529  10.046   0.778  0.1611  2.3126 -1.3007
 3191SOL    HW216624   0.534   9.905   0.723 -1.4237  0.9203  1.8554
 3192SOL     OW16625   0.969   3.025   0.092 -0.0856  0.2899  0.2879
 3192SOL    HW116626   1.013   3.052   0.172 -0.6490  1.3146  0.2789
 3192SOL    HW216627   0.911   3.099   0.071 -2.1692 -1.1638  0.5730
 3193SOL     OW16628   0.937  10.662  12.066 -0.0943 -0.3795  0.1868
 3193SOL    HW116629   0.909  10.723  11.998  2.0709  0.3438 -0.1338
 3193SOL    HW216630   1.031  10.649  12.049  0.3685 -0.6718  2.6471
 3194SOL     OW16631   5.503   6.891   6.825  0.3512  0.3661  0.5360
 3194SOL    HW116632   5.584   6.919   6.868  1.1063  0.8404 -1.1256
 3194SOL    HW216633   5.460   6.973   6.800 -0.4229  0.1091  0.9873
 3195SOL     OW16634  11.912   8.640   2.836  0.3306 -0.4885 -0.2996
 3195SOL    HW116635  11.939   8.561   2.790  0.8530  0.3178 -1.4103
 3195SOL    HW216636  11.827   8.663   2.796  0.0240 -0.6590  0.2443
 3196SOL     OW16637   4.274  11.496   5.692 -0.3687  0.1242  0.4293
 3196SOL    HW116638   4.199  11.441   5.670 -0.6095  0.6287 -0.0324
 3196SOL    HW216639   4.269  11.507   5.787 -0.8900  0.1784  0.3962
 3197SOL     OW16640  11.168   5.448   5.582 -0.1641 -0.7957 -0.4532
 3197SOL    HW116641  11.119   5.531   5.584 -0.7957 -1.1725 -0.1802
 3197SOL    HW216642  11.254   5.473   5.548  0.2255  0.2692  1.2243
 3198SOL     OW16643   5.459   0.876  10.786  0.4411  0.2506 -0.6254
 3198SOL    HW116644   5.447   0.871  10.880  0.5709 -0.9895 -0.6561
 3198SOL    HW216645   5.486   0.967  10.770  1.5602  0.1775  0.6660
 3199SOL     OW16646   5.807  12.516  12.585  0.6469  0.0769 -0.9770
 3199SOL    HW116647   5.889  12.558  12.611 -0.2865  0.5806  1.3583
 3199SOL    HW216648   5.760  12.500  12.667 -0.6543 -2.2492 -2.0704
 3200SOL     OW16649   4.334   2.738   5.665 -0.3297  0.0197  0.0190
 3200SOL    HW116650   4.253   2.689   5.679  0.4764 -1.5400 -0.5876
 3200SOL    HW216651   4.324   2.776   5.578 -1.0995  1.2647  0.6261
 3201SOL     OW16652   5.679   1.235   7.595  0.0203  0.5013  0.3086
 3201SOL    HW116653   5.652   1.259   7.506 -0.7041  0.4152  0.4958
 3201SOL    HW216654   5.646   1.146   7.607  0.1323  0.5062  0.6585
 3202SOL     OW16655   0.221   1.576   8.902  0.0380  0.2386 -0.5414
 3202SOL    HW116656   0.251   1.536   8.984 -0.3362  2.2895  0.6462
 3202SOL    HW216657   0.298   1.571   8.844 -0.0887 -2.4472 -0.6227
 3203SOL     OW16658  10.176   2.662   4.198 -0.4510  0.1670  1.1063
 3203SOL    HW116659  10.168   2.567   4.185 -0.5937 -0.1387  3.0886
 3203SOL    HW216660  10.270   2.679   4.194 -0.4947  0.1254 -0.3059
 3204SOL     OW16661   5.180   9.395   8.782  0.2427  0.0887  0.2121
 3204SOL    HW116662   5.130   9.313   8.785  0.6786 -0.2750 -1.2187
 3204SOL    HW216663   5.272   9.368   8.791  0.4009  0.3944 -0.4109
 3205SOL     OW16664   2.336   5.308   5.770 -0.0901  0.1515 -0.3214
 3205SOL    HW116665   2.260   5.348   5.811  0.0474  0.8605 -0.7223
 3205SOL    HW216666   2.404   5.309   5.838 -0.2863 -0.0030 -0.1240
 3206SOL     OW16667  11.781  11.023   7.631 -0.6178  0.3593 -0.2390
 3206SOL    HW116668  11.795  10.954   7.566 -0.0890 -0.7664  1.0385
 3206SOL    HW216669  11.696  11.003   7.669  0.0280 -0.2570  0.9138
 3207SOL     OW16670   2.895   9.461  10.337  0.5495  0.1948  0.1151
 3207SOL    HW116671   2.848   9.439  10.417  0.2106 -0.0492 -0.1474
 3207SOL    HW216672   2.978   9.414  10.344  1.9377  2.6587  1.8016
 3208SOL     OW16673   9.081   2.440   6.203 -0.2364 -0.0084 -0.3136
 3208SOL    HW116674   8.991   2.411   6.219 -0.2279  0.6493  1.0746
 3208SOL    HW216675   9.082   2.531   6.233  1.4506 -0.6714  1.9222
 3209SOL     OW16676   0.699   1.779   1.653 -0.3186 -0.6703  0.1587
 3209SOL    HW116677   0.708   1.772   1.748  0.8675 -1.3318  0.0158
 3209SOL    HW216678   0.709   1.873   1.635  0.6554 -0.6777  0.5975
 3210SOL     OW16679   7.980   6.105   5.707 -0.0843  0.1752  0.5587
 3210SOL    HW116680   7.950   6.014   5.702  2.5430 -0.7235 -0.1656
 3210SOL    HW216681   7.961   6.141   5.620  1.9389 -0.7719 -0.3305
 3211SOL     OW16682  11.887   5.117   3.820 -0.6303 -0.2233 -0.2621
 3211SOL    HW116683  11.799   5.080   3.811 -0.6661 -0.3548  0.5282
 3211SOL    HW216684  11.945   5.041   3.818 -0.6385 -0.2624  0.4675
 3212SOL     OW16685   9.232  11.874  11.048  0.7323 -0.5036  0.1054
 3212SOL    HW116686   9.290  11.806  11.082 -0.8335 -2.3055 -0.6081
 3212SOL    HW216687   9.191  11.834  10.971  1.7681  2.2709 -2.0234
 3213SOL     OW16688   7.000   0.052   4.032  0.5848 -0.3491 -0.4297
 3213SOL    HW116689   7.060  -0.020   4.052 -0.2688 -0.8458  0.4717
 3213SOL    HW216690   7.047   0.107   3.970  1.4975 -1.3658 -0.6669
 3214SOL     OW16691  10.169   1.392   6.042 -0.6206 -0.2357  0.4524
 3214SOL    HW116692  10.217   1.320   6.002 -1.6420  0.3569 -2.0304
 3214SOL    HW216693  10.086   1.396   5.994 -0.9787  2.0069  1.1226
 3215SOL     OW16694   0.741  11.687  11.430  0.4963  0.4476 -0.0772
 3215SOL    HW116695   0.649  11.664  11.439  0.5565  0.8159  1.9162
 3215SOL    HW216696   0.787  11.603  11.438  0.3854  0.3832 -0.1140
 3216SOL     OW16697   2.070   1.123   9.842  0.0122  0.2226 -0.3364
 3216SOL    HW116698   2.085   1.203   9.792  0.1963 -0.1964 -0.9530
 3216SOL    HW216699   2.134   1.127   9.913 -0.3122  0.8614 -0.0622
 3217SOL     OW16700   4.228   2.540  11.808  0.1745 -0.2294 -0.3490
 3217SOL    HW116701   4.214   2.627  11.846 -0.9938 -0.6317  0.1916
 3217SOL    HW216702   4.286   2.496  11.870  0.6529  0.1092 -0.5507
 3218SOL     OW16703   5.056   5.101   3.187  0.2183  0.3160  0.2890
 3218SOL    HW116704   5.041   5.190   3.153  1.0324  0.1660 -0.4888
 3218SOL    HW216705   4.968   5.067   3.202 -0.1084  1.4269  1.0766
 3219SOL     OW16706   7.588   0.461   5.446  1.0703 -0.4607  0.1678
 3219SOL    HW116707   7.676   0.471   5.481  1.2769 -1.0168 -0.1702
 3219SOL    HW216708   7.552   0.550   5.444  1.3421 -0.3273  1.0157
 3220SOL     OW16709   7.016   5.389   2.424  0.0595 -0.0455 -0.2142
 3220SOL    HW116710   7.031   5.473   2.467 -1.4614 -0.3608  0.9788
 3220SOL    HW216711   7.036   5.323   2.490  0.0622 -0.6059 -0.7573
 3221SOL     OW16712  12.286   8.954   4.301 -0.1682  0.1345 -0.3148
 3221SOL    HW116713  12.227   9.014   4.346 -1.2956 -0.1856 -1.3232
 3221SOL    HW216714  12.238   8.871   4.298 -0.0474  0.1025 -1.9152
 3222SOL     OW16715   3.334   2.182   1.958 -0.2265  0.1740 -0.6139
 3222SOL    HW116716   3.344   2.261   2.011 -0.1131 -1.6044  2.2336
 3222SOL    HW216717   3.422   2.163   1.927  0.3843 -0.4922  1.3743
 3223SOL     OW16718  11.067   8.541   0.055  0.2324 -0.3418  0.1932
 3223SOL    HW116719  11.151   8.541   0.008  0.5037 -0.9502  0.6577
 3223SOL    HW216720  11.064   8.455   0.098 -0.4458 -0.1641  0.5105
 3224SOL     OW16721   3.320   3.331  11.817  0.4568 -0.1369 -0.1258
 3224SOL    HW116722   3.242   3.381  11.839  0.4467  0.6199 -1.7818
 3224SOL    HW216723   3.391   3.377  11.862  0.3986  1.2022 -1.3449
 3225SOL     OW16724   0.100   2.590   6.173 -0.1955  0.4295  0.2876
 3225SOL    HW116725   0.090   2.543   6.091  0.2315  0.5056  0.1886
 3225SOL    HW216726   0.070   2.679   6.154  2.2102  1.1476 -0.5004
 3226SOL     OW16727   8.751  11.385  12.528  0.2089  0.0844 -0.4088
 3226SOL    HW116728   8.782  11.444  12.459 -0.1311  0.5408 -0.1805
 3226SOL    HW216729   8.690  11.439  12.579 -0.1898 -0.5005 -0.2623
 3227SOL     OW16730   2.015  10.006   5.156  0.6287 -0.8257  0.0786
 3227SOL    HW116731   1.961   9.978   5.231  1.6278 -0.1393  1.0957
 3227SOL    HW216732   1.961  10.071   5.111  0.1880 -0.9022  0.4875
 3228SOL     OW16733   4.970  12.208   6.291 -0.3754  0.0006  0.4280
 3228SOL    HW116734   4.945  12.176   6.378 -0.5694 -0.3480  0.2490
 3228SOL    HW216735   4.966  12.303   6.298  1.5525  0.0716  1.3820
 3229SOL     OW16736   9.088   7.593   7.780 -0.2229 -0.0659  0.1716
 3229SOL    HW116737   9.108   7.631   7.695  0.3732  0.9092  0.7341
 3229SOL    HW216738   9.155   7.627   7.839 -0.8300 -0.4392  1.1145
 3230SOL     OW16739   4.522   9.711   3.667 -0.0728 -0.3363 -0.0932
 3230SOL    HW116740   4.531   9.762   3.586  2.1393 -0.4530  0.0172
 3230SOL    HW216741   4.545   9.774   3.736  1.2177 -1.0459  0.1554
 3231SOL     OW16742   3.811   8.685  11.955  0.2658 -0.3645 -0.6250
 3231SOL    HW116743   3.898   8.722  11.968  0.1808 -0.6267  0.9012
 3231SOL    HW216744   3.751   8.754  11.984  0.0612 -1.0496  0.6668
 3232SOL     OW16745   9.072  10.120   6.538  0.1489 -0.5219 -0.0145
 3232SOL    HW116746   9.025  10.073   6.470  0.2878 -0.5155 -0.1161
 3232SOL    HW216747   9.063  10.065   6.616 -0.1729 -0.4334  0.0111
 3233SOL     OW16748   3.017  11.536   3.592 -0.2562  0.0005 -0.2118
 3233SOL    HW116749   3.100  11.488   3.601 -0.3420  0.0638  1.0717
 3233SOL    HW216750   3.040  11.612   3.537  0.3619 -0.3640 -0.4741
 3234SOL     OW16751   2.063  11.207   2.076 -0.5980 -0.1100 -0.0065
 3234SOL    HW116752   2.030  11.181   2.162  0.1799 -0.6868  0.1297
 3234SOL    HW216753   2.041  11.134   2.019 -2.4580  0.9073 -0.6632
 3235SOL     OW16754   8.029  10.046  12.594  0.4854  0.5761  0.3958
 3235SOL    HW116755   8.100  10.097  12.633  0.3916  1.1797 -0.2269
 3235SOL    HW216756   7.980  10.108  12.542 -2.2004  0.8385  2.9828
 3236SOL     OW16757   5.113   1.845   2.839  0.6382 -0.2377  0.3080
 3236SOL    HW116758   5.027   1.878   2.863  0.6357  0.7057 -0.9084
 3236SOL    HW216759   5.096   1.768   2.786  0.4924  0.4814 -0.7185
 3237SOL     OW16760   0.658   6.682   6.568 -0.0163  0.0880 -0.2625
 3237SOL    HW116761   0.694   6.593   6.571  1.0228  0.4847 -0.2413
 3237SOL    HW216762   0.674   6.711   6.478 -0.4215  0.2236 -0.2893
 3238SOL     OW16763   4.509   0.613   5.173 -0.6778 -0.0673 -0.1431
 3238SOL    HW116764   4.543   0.617   5.084 -1.1348 -1.4000 -0.4079
 3238SOL    HW216765   4.587   0.609   5.229 -0.3809 -1.2494 -0.6191
 3239SOL     OW16766   7.649   8.669   1.988  0.1904 -0.0797  0.4445
 3239SOL    HW116767   7.699   8.705   1.914 -0.3445  2.1678  1.0890
 3239SOL    HW216768   7.617   8.584   1.957  1.6071 -0.0691 -1.1698
 3240SOL     OW16769   4.379   4.988   1.199  0.2090 -0.3132  0.2893
 3240SOL    HW116770   4.363   4.999   1.106  1.0590 -0.6790  0.0961
 3240SOL    HW216771   4.412   5.072   1.229 -1.2489  0.2084  0.5362
 3241SOL     OW16772   3.632  12.324   0.814 -0.4264  0.5221 -0.1867
 3241SOL    HW116773   3.688  12.277   0.876  1.0488  0.1028 -1.7276
 3241SOL    HW216774   3.615  12.408   0.856 -1.2114 -0.4989  1.6422
 3242SOL     OW16775   3.437   8.533   9.110  0.2958 -0.1742  0.3016
 3242SOL    HW116776   3.442   8.560   9.019  0.2941 -1.8116 -0.2135
 3242SOL    HW216777   3.465   8.610   9.160 -1.4948  1.3842 -0.9503
 3243SOL     OW16778   8.710   0.453   6.182  0.4559 -0.1673 -0.2024
 3243SOL    HW116779   8.778   0.405   6.135  0.0976 -0.4901 -0.3979
 3243SOL    HW216780   8.667   0.387   6.235  0.3881  0.0639  0.0334
 3244SOL     OW16781   0.301   3.123   4.566 -0.6121 -0.0224  0.1576
 3244SOL    HW116782   0.278   3.045   4.618 -0.1088 -1.3957 -1.6004
 3244SOL    HW216783   0.387   3.103   4.531 -0.1907  1.6499  0.1986
 3245SOL     OW16784   8.073  10.193   5.979 -0.1235 -0.1920  0.1366
 3245SOL    HW116785   8.017  10.263   6.013 -1.3054 -0.4459 -1.2077
 3245SOL    HW216786   8.162  10.229   5.985 -0.7891  2.0803 -1.8217
 3246SOL     OW16787   6.381   8.703   5.492  0.2692  0.4567  0.6997
 3246SOL    HW116788   6.360   8.785   5.536  0.0262  1.1874 -0.7049
 3246SOL    HW216789   6.327   8.704   5.413  0.1949 -1.1077  0.6920
 3247SOL     OW16790   5.118   1.903   9.474  0.2497  0.0530  0.2511
 3247SOL    HW116791   5.160   1.909   9.388 -1.3091  1.7992 -0.4559
 3247SOL    HW216792   5.074   1.818   9.474  0.5277 -0.1005 -0.5453
 3248SOL     OW16793   3.964  12.448   8.303 -0.0905 -0.3047  0.2699
 3248SOL    HW116794   3.878  12.490   8.309 -0.2341 -0.6778  0.8963
 3248SOL    HW216795   4.000  12.479   8.220 -1.5320 -1.4372 -0.8282
 3249SOL     OW16796   0.496  11.232   4.019  0.5629  0.1535 -1.0160
 3249SOL    HW116797   0.552  11.298   3.978  0.2683  0.2952 -1.1979
 3249SOL    HW216798   0.433  11.208   3.950  2.0615 -2.0157 -1.7448
 3250SOL     OW16799   3.630   2.570  11.975 -0.5577 -0.1605 -0.1429
 3250SOL    HW116800   3.601   2.658  11.950  3.5843  0.4783 -4.0683
 3250SOL    HW216801   3.582   2.512  11.916 -1.8887 -0.4152  1.1414
 3251SOL     OW16802   2.197   9.234   6.580 -0.3130 -0.1377  0.3128
 3251SOL    HW116803   2.120   9.289   6.598 -0.0945  0.0378  0.7227
 3251SOL    HW216804   2.165   9.144   6.591 -0.1377 -0.0321  1.8276
 3252SOL     OW16805   9.303  11.702   3.576  0.5002 -0.4745  0.1294
 3252SOL    HW116806   9.397  11.690   3.564  0.8492 -0.7721  2.5607
 3252SOL    HW216807   9.291  11.797   3.571  0.8133 -0.4763 -0.8288
 3253SOL     OW16808   5.778   2.534   6.641 -0.6035  0.5398 -0.2465
 3253SOL    HW116809   5.785   2.541   6.736 -0.0435 -1.9483 -0.0219
 3253SOL    HW216810   5.851   2.586   6.607  1.5544 -1.5445  0.9130
 3254SOL     OW16811   9.455   3.179  10.558  0.0487  0.7626  0.0576
 3254SOL    HW116812   9.415   3.110  10.506  0.0985 -0.4514  1.5436
 3254SOL    HW216813   9.486   3.243  10.494 -0.3890 -0.3740 -1.3480
 3255SOL     OW16814   8.146   3.963   9.276 -0.3772  0.4458 -0.1021
 3255SOL    HW116815   8.081   4.022   9.237 -2.9877  0.3485  3.4859
 3255SOL    HW216816   8.205   4.022   9.324  0.8304  0.3872 -1.4568
 3256SOL     OW16817   2.377   1.317   3.313  0.1102 -0.0311 -0.5292
 3256SOL    HW116818   2.326   1.240   3.339 -0.5274  0.9587  1.3470
 3256SOL    HW216819   2.449   1.320   3.376  1.6507 -0.5201 -2.1906
 3257SOL     OW16820   9.408   9.296   1.647 -0.0679 -0.6648 -0.1192
 3257SOL    HW116821   9.379   9.205   1.636  0.1716 -0.7160 -0.3585
 3257SOL    HW216822   9.430   9.324   1.558 -1.0348 -0.0657 -0.1853
 3258SOL     OW16823   7.477   5.008   4.884  0.2738 -0.6134  0.4727
 3258SOL    HW116824   7.523   5.092   4.880 -0.8734 -0.0197 -0.9390
 3258SOL    HW216825   7.537   4.946   4.844  0.1672  0.0213 -0.7114
 3259SOL     OW16826   6.095   4.153   2.161  0.2991 -0.1985 -0.5516
 3259SOL    HW116827   6.102   4.214   2.088  1.2706 -0.5050 -0.7301
 3259SOL    HW216828   6.131   4.071   2.127 -0.2027 -0.6396 -0.0478
 3260SOL     OW16829  10.527   6.352  11.273 -0.1715 -0.4597 -0.0917
 3260SOL    HW116830  10.589   6.328  11.342 -0.4304  0.6074  0.5437
 3260SOL    HW216831  10.469   6.416  11.314  0.1626  0.8258 -1.5323
 3261SOL     OW16832   9.950   2.617   4.564 -0.0568 -0.0681  0.4668
 3261SOL    HW116833   9.927   2.542   4.510  1.2273 -0.8583  0.9837
 3261SOL    HW216834   9.941   2.692   4.505  1.4920 -0.9215 -0.9317
 3262SOL     OW16835   9.052  10.328  11.499 -0.2670 -0.2562  0.6626
 3262SOL    HW116836   9.145  10.346  11.486 -0.6583  0.7386 -1.1344
 3262SOL    HW216837   9.021  10.401  11.554 -0.2110  0.1069  0.2227
 3263SOL     OW16838   7.644  10.682   9.774  0.0979  0.1863  0.4381
 3263SOL    HW116839   7.663  10.775   9.770  1.7291 -0.1290 -0.3267
 3263SOL    HW216840   7.664  10.650   9.686  1.0647 -1.1112  1.0864
 3264SOL     OW16841  12.334   0.464   2.063 -0.0230  0.1931  0.2688
 3264SOL    HW116842  12.338   0.369   2.058  1.0719  0.2364  0.0061
 3264SOL    HW216843  12.409   0.494   2.011  0.8347  1.1569  1.9806
 3265SOL     OW16844   0.900   6.737   6.012 -0.4232 -0.0462  0.2596
 3265SOL    HW116845   0.931   6.690   6.089 -1.2059  1.0095  1.2540
 3265SOL    HW216846   0.891   6.670   5.944 -0.9588 -1.2248  1.4619
 3266SOL     OW16847  12.385   2.722   3.605  0.2760 -0.5419 -0.0209
 3266SOL    HW116848  12.479   2.706   3.596  0.6261  1.7409 -1.4568
 3266SOL    HW216849  12.343   2.652   3.554  1.1180 -1.9145  1.1100
 3267SOL     OW16850   7.423   1.884  11.342 -0.5834 -0.6544  0.2781
 3267SOL    HW116851   7.385   1.858  11.258  0.4565  1.5305 -0.9484
 3267SOL    HW216852   7.354   1.933  11.386 -0.7243 -0.7276  0.1386
 3268SOL     OW16853   3.533   5.151   1.660 -0.3551  0.1337 -0.2029
 3268SOL    HW116854   3.529   5.147   1.564  0.1072  2.8213 -0.4048
 3268SOL    HW216855   3.553   5.243   1.680  0.1617 -0.4645  2.4677
 3269SOL     OW16856   2.629   4.645   2.974  0.2286 -0.1891  0.3872
 3269SOL    HW116857   2.700   4.587   3.000 -1.0706 -1.5001  1.1737
 3269SOL    HW216858   2.566   4.638   3.046 -0.2096  1.8037  0.2451
 3270SOL     OW16859   8.583  10.510   6.633 -0.2338  0.0521  0.0106
 3270SOL    HW116860   8.574  10.586   6.576  0.3247  0.2915  0.2365
 3270SOL    HW216861   8.510  10.518   6.695 -0.2721  0.3157 -0.0674
 3271SOL     OW16862   9.918  10.413   1.069  0.2250 -0.1258 -0.5510
 3271SOL    HW116863   9.841  10.384   1.119  1.4615 -2.1882  0.2837
 3271SOL    HW216864   9.898  10.388   0.979 -0.5826  0.4943 -0.5613
 3272SOL     OW16865   7.078   2.637  12.003  0.0642 -0.3245 -0.1753
 3272SOL    HW116866   7.083   2.728  12.033 -0.6356 -0.5317  0.6142
 3272SOL    HW216867   7.013   2.596  12.061  0.9535 -1.5371  0.0041
 3273SOL     OW16868   3.672  10.405   2.662 -0.8231 -0.4795  0.8295
 3273SOL    HW116869   3.704  10.472   2.601 -1.7290 -0.7413  0.0325
 3273SOL    HW216870   3.646  10.333   2.605 -3.4938 -0.0018  1.3500
 3274SOL     OW16871  10.494   9.815   3.248  0.0550  0.5186 -0.0954
 3274SOL    HW116872  10.413   9.865   3.231  0.3254  0.3771 -1.9755
 3274SOL    HW216873  10.482   9.734   3.200  0.8481 -0.0064  0.5782
 3275SOL     OW16874   1.654   5.942   5.923 -0.0263  0.2137 -0.1471
 3275SOL    HW116875   1.602   6.021   5.938 -2.9174 -1.3990 -0.9379
 3275SOL    HW216876   1.599   5.870   5.954  2.1272 -1.6117 -0.2539
 3276SOL     OW16877   5.975   8.128   1.359 -0.1399  0.1021 -0.0211
 3276SOL    HW116878   6.027   8.051   1.381 -1.4701 -0.2965  2.0887
 3276SOL    HW216879   6.036   8.187   1.316  1.0207 -1.9179 -1.2928
 3277SOL     OW16880   2.990  11.766   8.451  0.1906  0.0641 -0.1281
 3277SOL    HW116881   3.056  11.724   8.396 -0.7055 -1.5905 -0.0087
 3277SOL    HW216882   2.972  11.702   8.520 -0.3082  1.1987  0.8372
 3278SOL     OW16883   1.131  10.689   4.655 -0.8526 -0.3393  0.0811
 3278SOL    HW116884   1.120  10.752   4.727 -0.5257 -1.2768  0.9749
 3278SOL    HW216885   1.100  10.736   4.577  1.5855  1.7947  0.2754
 3279SOL     OW16886  10.441   0.561   8.135  0.4092  0.4669 -0.4954
 3279SOL    HW116887  10.400   0.612   8.065 -0.4026 -0.3736 -0.6384
 3279SOL    HW216888  10.516   0.614   8.161 -1.3162  2.5905  0.4889
 3280SOL     OW16889   3.344   3.564   6.052 -0.5343 -0.4298  0.1128
 3280SOL    HW116890   3.290   3.486   6.058  0.9195 -1.5326 -0.5334
 3280SOL    HW216891   3.360   3.576   5.959 -0.1677  0.2260  0.2496
 3281SOL     OW16892  11.819   7.356   2.686 -0.2500  0.3975 -0.0370
 3281SOL    HW116893  11.762   7.427   2.714  0.2605 -0.3715  3.3353
 3281SOL    HW216894  11.890   7.400   2.638 -1.1165  1.8702 -0.0279
 3282SOL     OW16895  10.932   4.249   8.173 -0.4565 -0.3432 -0.1069
 3282SOL    HW116896  10.837   4.264   8.175 -0.3407  0.3895  0.9023
 3282SOL    HW216897  10.950   4.196   8.250 -0.1082 -0.9616 -0.6047
 3283SOL     OW16898   1.834   3.595  11.209 -0.3069 -0.4798 -0.2129
 3283SOL    HW116899   1.741   3.619  11.209 -0.2858 -0.3143  1.3779
 3283SOL    HW216900   1.877   3.664  11.158 -1.0278 -0.4528 -0.7943
 3284SOL     OW16901  11.519   0.912   4.959 -0.5920  0.4288  0.5741
 3284SOL    HW116902  11.540   0.996   5.001  0.6575  0.0213  0.8218
 3284SOL    HW216903  11.480   0.937   4.875  0.0247  1.2751  0.5177
 3285SOL     OW16904  12.289   3.386   3.078 -0.3645  0.0973 -0.1177
 3285SOL    HW116905  12.325   3.375   3.166 -0.2042 -1.6483 -0.3798
 3285SOL    HW216906  12.220   3.452   3.089 -1.1175 -0.9040  1.5401
 3286SOL     OW16907   9.716   8.515   2.464 -0.4757 -0.1709 -0.4500
 3286SOL    HW116908   9.679   8.577   2.401 -0.3853  0.0577 -0.2781
 3286SOL    HW216909   9.641   8.487   2.516 -0.1771  1.5898  1.0292
 3287SOL     OW16910   8.786   9.501   4.655 -0.0026  0.3342 -0.1967
 3287SOL    HW116911   8.716   9.524   4.594 -0.6497 -0.0850  0.3821
 3287SOL    HW216912   8.856   9.466   4.599 -0.0827  1.1316 -0.8147
 3288SOL     OW16913   0.977   2.230   6.475 -0.0345  0.3639  0.0669
 3288SOL    HW116914   0.923   2.237   6.553 -1.4251  2.2928 -0.9855
 3288SOL    HW216915   1.039   2.303   6.481 -0.5780  0.9317 -0.9087
 3289SOL     OW16916   8.302  10.952  10.684 -0.2482  0.2981 -0.1330
 3289SOL    HW116917   8.266  10.875  10.725  0.1955  0.1603  0.0070
 3289SOL    HW216918   8.229  11.014  10.679 -0.2637  0.3782  1.0023
 3290SOL     OW16919  11.342  11.385   1.749  0.0115  0.1490  0.2231
 3290SOL    HW116920  11.303  11.344   1.672  0.2915 -0.8173  0.5912
 3290SOL    HW216921  11.395  11.457   1.713  0.6848 -0.7120 -0.5400
 3291SOL     OW16922   8.173   2.853   8.891 -0.3094 -0.0921 -0.4201
 3291SOL    HW116923   8.171   2.870   8.796 -1.0007 -0.3463 -0.4575
 3291SOL    HW216924   8.110   2.782   8.903  1.3952 -1.5821 -0.0611
 3292SOL     OW16925   1.831  10.614   5.560  0.7937  0.0196  0.4798
 3292SOL    HW116926   1.912  10.565   5.574  0.9024  0.1627  0.3509
 3292SOL    HW216927   1.787  10.612   5.646 -0.0247 -1.7622  0.0766
 3293SOL     OW16928  10.376  10.217   4.912  0.8212 -0.1546  0.3871
 3293SOL    HW116929  10.458  10.169   4.928  1.5257  0.2001 -1.8197
 3293SOL    HW216930  10.340  10.232   5.000  2.1322 -1.9874  1.3198
 3294SOL     OW16931   7.422  10.219   4.325  0.3372  0.2819 -0.3484
 3294SOL    HW116932   7.367  10.160   4.376 -1.2729 -0.3334 -2.6429
 3294SOL    HW216933   7.360  10.268   4.271  1.8959  1.5778 -1.0242
 3295SOL     OW16934   2.216  10.143   3.725 -0.1994  0.8095  0.3007
 3295SOL    HW116935   2.151  10.111   3.787 -0.1070 -0.6487 -0.3102
 3295SOL    HW216936   2.176  10.130   3.639 -0.0942  2.2593  0.0126
 3296SOL     OW16937  11.751   9.217   7.355  0.3468 -0.8615  0.1134
 3296SOL    HW116938  11.760   9.274   7.279 -1.1960 -0.3077  0.3072
 3296SOL    HW216939  11.841   9.204   7.386  0.7763  1.1941 -0.1389
 3297SOL     OW16940   4.057  12.297   8.523  0.0679 -0.2855  0.2412
 3297SOL    HW116941   4.142  12.325   8.558  0.3840 -0.1063 -0.6306
 3297SOL    HW216942   4.046  12.350   8.444  0.4701 -2.3011 -1.2269
 3298SOL     OW16943   2.002   1.041   4.526 -0.3366  0.4606  0.1167
 3298SOL    HW116944   1.961   0.996   4.601 -0.6849  0.3678 -0.1266
 3298SOL    HW216945   1.938   1.106   4.499  0.0166  0.8589  0.2343
 3299SOL     OW16946   9.023   6.885   8.415 -0.1977  0.4244 -0.4847
 3299SOL    HW116947   9.107   6.885   8.369 -0.3025 -0.5648 -0.7029
 3299SOL    HW216948   9.046   6.884   8.508  0.0242  0.2367 -0.5420
 3300SOL     OW16949   4.600  10.959   2.645  0.5156 -0.7747 -0.6823
 3300SOL    HW116950   4.542  10.894   2.604 -2.0492  0.5735  0.5679
 3300SOL    HW216951   4.568  11.043   2.612 -0.0150  0.1951  2.0461
 3301SOL     OW16952  11.929  11.262   6.526 -0.0090  0.4285  0.2380
 3301SOL    HW116953  11.910  11.171   6.549  1.3987 -0.2215 -0.9612
 3301SOL    HW216954  12.003  11.286   6.582 -0.5307  0.9304  0.7219
 3302SOL     OW16955   8.712   0.604   0.868 -0.3971  0.3155  0.4433
 3302SOL    HW116956   8.666   0.660   0.930  0.6085  1.2088  0.4158
 3302SOL    HW216957   8.799   0.643   0.862  0.2743 -1.1753  0.2924
 3303SOL     OW16958   3.238  11.165   9.222 -0.1286  0.3924  0.3013
 3303SOL    HW116959   3.246  11.220   9.299  1.9791  0.5566  0.0224
 3303SOL    HW216960   3.325  11.166   9.182 -0.3306 -2.1858 -0.3791
 3304SOL     OW16961   5.869   2.460   5.516  0.3519 -0.1257 -0.3335
 3304SOL    HW116962   5.811   2.517   5.466 -0.7030 -0.6408  0.2590
 3304SOL    HW216963   5.832   2.372   5.504  0.5749 -0.3641  0.6616
 3305SOL     OW16964   4.585   8.143   9.844 -0.3032 -0.4496  0.0293
 3305SOL    HW116965   4.525   8.218   9.838 -0.1308 -0.2580  0.6373
 3305SOL    HW216966   4.542   8.083   9.904 -0.7177 -1.1113 -0.9057
 3306SOL     OW16967   3.104   6.058  12.145  0.1197  0.4670  0.1407
 3306SOL    HW116968   3.132   6.145  12.114 -0.8018  0.7539  0.1046
 3306SOL    HW216969   3.030   6.035  12.089 -1.0205  0.6083  1.5436
 3307SOL     OW16970   2.783  10.934   1.420  0.6556 -0.1471  0.8054
 3307SOL    HW116971   2.762  11.023   1.448  0.0697 -0.1689  0.4657
 3307SOL    HW216972   2.877  10.935   1.403  0.6061  0.4779  0.5606
 3308SOL     OW16973   4.805   2.498   5.018  0.3764 -0.4991 -0.3454
 3308SOL    HW116974   4.767   2.453   5.093 -0.4137  3.5804  1.9912
 3308SOL    HW216975   4.730   2.530   4.968  0.8162  0.2034 -0.5799
 3309SOL     OW16976   3.089   7.725   7.157  0.6165 -0.3490  0.1461
 3309SOL    HW116977   3.121   7.780   7.085 -0.2491 -1.3211 -1.0086
 3309SOL    HW216978   3.059   7.788   7.223  2.9362  0.5862  0.4270
 3310SOL     OW16979  11.072  11.106   9.220  0.1084 -0.9115  0.1013
 3310SOL    HW116980  11.137  11.097   9.290 -1.3996 -1.5686  1.4674
 3310SOL    HW216981  11.080  11.026   9.169 -0.5714 -1.6389  1.1111
 3311SOL     OW16982   0.002  10.667   6.572 -0.6057 -0.2248 -0.0051
 3311SOL    HW116983   0.000  10.655   6.667 -0.0578  0.9480  0.1695
 3311SOL    HW216984  -0.041  10.751   6.557 -0.0769 -0.0666 -0.7253
 3312SOL     OW16985   7.168   0.425   9.243  0.2165  0.0767  0.1302
 3312SOL    HW116986   7.216   0.508   9.237 -0.4747  0.4875  0.0619
 3312SOL    HW216987   7.141   0.419   9.335 -1.8341  1.1902 -0.3164
 3313SOL     OW16988   2.435  11.555   0.207 -0.0527  0.6688 -0.5623
 3313SOL    HW116989   2.460  11.603   0.129 -0.8418 -0.4958 -1.5773
 3313SOL    HW216990   2.518  11.538   0.252  0.4220  1.2803 -1.1809
 3314SOL     OW16991   6.897   4.096   4.788  0.5240  0.2932 -0.1586
 3314SOL    HW116992   6.886   4.004   4.810 -2.6646  0.3376 -1.1549
 3314SOL    HW216993   6.948   4.095   4.707 -0.0887 -0.6330 -0.5430
 3315SOL     OW16994   5.303   1.242   5.755  0.2779  0.1757 -0.2672
 3315SOL    HW116995   5.289   1.162   5.806  0.6848 -0.2748 -0.8332
 3315SOL    HW216996   5.398   1.246   5.744  0.4367  1.7100  1.2496
 3316SOL     OW16997  10.274   4.371   0.156  0.2783  0.8641  0.4351
 3316SOL    HW116998  10.237   4.314   0.089  3.7616 -0.9274 -0.2286
 3316SOL    HW216999  10.254   4.327   0.239  0.0834  0.4478  0.1711
 3317SOL     OW17000   4.597   3.348   4.909  0.6296  0.0128 -0.7960
 3317SOL    HW117001   4.612   3.351   5.003  1.3605 -0.5271 -0.8925
 3317SOL    HW217002   4.526   3.411   4.895  1.6503  1.3551 -0.1201
 3318SOL     OW17003  11.656  12.153   5.578 -0.2104 -0.5817  0.0367
 3318SOL    HW117004  11.580  12.094   5.574 -0.8975  0.2992 -0.2749
 3318SOL    HW217005  11.732  12.095   5.566 -0.7755 -1.5815  1.0819
 3319SOL     OW17006   1.330  10.786   5.229  0.0464  0.4544 -0.1415
 3319SOL    HW117007   1.295  10.711   5.180  1.3418 -0.8280  0.8233
 3319SOL    HW217008   1.255  10.845   5.239 -0.6618  0.0148 -2.2054
 3320SOL     OW17009   3.173   9.081   1.955  0.5949  0.7623  0.2582
 3320SOL    HW117010   3.192   8.990   1.976  2.2099  1.1527  0.6354
 3320SOL    HW217011   3.086   9.078   1.913 -0.2221 -0.6898  1.9199
 3321SOL     OW17012  10.114   9.199   9.222  0.4364 -0.3167 -0.4252
 3321SOL    HW117013  10.084   9.289   9.230 -0.3955 -0.6061 -0.1758
 3321SOL    HW217014  10.052   9.158   9.162  1.0597 -0.6172 -0.8747
 3322SOL     OW17015   3.430   9.092   1.231  0.4172  0.3802 -0.1250
 3322SOL    HW117016   3.355   9.143   1.261  0.2179 -1.0983  2.1015
 3322SOL    HW217017   3.406   9.065   1.142 -0.6509  1.7986 -0.3102
 3323SOL     OW17018   9.435   7.644   1.156 -0.2089 -0.6158  0.3735
 3323SOL    HW117019   9.441   7.634   1.061 -0.0435 -0.6930  0.3915
 3323SOL    HW217020   9.454   7.557   1.190 -0.6413 -0.6774  0.4654
 3324SOL     OW17021   6.393  11.341  10.299 -0.6726 -0.2532  0.1929
 3324SOL    HW117022   6.465  11.292  10.339 -1.2181 -1.4094 -0.1984
 3324SOL    HW217023   6.327  11.348  10.368 -0.3280  0.5667  0.4631
 3325SOL     OW17024   5.857   1.691  12.107 -0.1320  0.5327  0.1200
 3325SOL    HW117025   5.877   1.780  12.079 -0.8931  0.0050 -2.4031
 3325SOL    HW217026   5.890   1.636  12.036 -0.9892 -1.0812  0.9195
 3326SOL     OW17027   6.744  10.817   4.743 -0.1271  0.6865  0.3096
 3326SOL    HW117028   6.824  10.812   4.691 -0.0048  1.9342  0.3593
 3326SOL    HW217029   6.771  10.790   4.831  0.2698  1.2339  0.3595
 3327SOL     OW17030   6.064   2.939   2.925 -0.6192  0.0655 -0.2035
 3327SOL    HW117031   6.025   2.870   2.871  1.2219 -1.2700  0.0854
 3327SOL    HW217032   6.004   2.949   2.998 -2.1234  0.4798 -1.4335
 3328SOL     OW17033   0.988   7.746   6.480 -0.2282 -0.4399 -0.3794
 3328SOL    HW117034   0.952   7.800   6.411 -0.7367 -0.8241 -0.4214
 3328SOL    HW217035   1.072   7.787   6.502 -0.2578 -0.0787 -0.9287
 3329SOL     OW17036   8.461   2.936  10.507 -0.2623  0.9610  0.4042
 3329SOL    HW117037   8.447   2.885  10.587  0.2950 -1.8372 -1.1650
 3329SOL    HW217038   8.550   2.970  10.516 -0.2593  0.8050  1.0310
 3330SOL     OW17039   5.356  12.136   8.901 -0.2946  0.1631 -0.2128
 3330SOL    HW117040   5.428  12.076   8.879  1.5537  1.5011  1.7712
 3330SOL    HW217041   5.320  12.162   8.816  1.9131 -0.1650 -1.3313
 3331SOL     OW17042   7.502   6.747   3.211  0.1795 -0.3195 -0.0610
 3331SOL    HW117043   7.505   6.806   3.287 -0.6772 -0.2515 -0.0643
 3331SOL    HW217044   7.593   6.729   3.190  0.4463  0.7025  0.1855
 3332SOL     OW17045   1.992  11.977  10.608  0.0190 -0.0648  0.4257
 3332SOL    HW117046   1.908  11.998  10.649  0.2729 -0.0164  0.9266
 3332SOL    HW217047   1.971  11.963  10.515 -0.2866  1.5421  0.2250
 3333SOL     OW17048   8.342   9.016   6.846 -0.1907  0.1315  0.4009
 3333SOL    HW117049   8.368   8.958   6.774  0.5699  0.6273  0.2705
 3333SOL    HW217050   8.416   9.076   6.857  0.4548 -0.9569  2.6951
 3334SOL     OW17051   9.494   9.367  12.025 -0.0440  0.1364 -0.1250
 3334SOL    HW117052   9.572   9.312  12.029 -1.3723 -1.8654  0.1098
 3334SOL    HW217053   9.473   9.387  12.116 -0.1885  0.0742 -0.1437
 3335SOL     OW17054   8.897   9.571   1.512 -0.0812 -0.2985  0.5315
 3335SOL    HW117055   8.807   9.578   1.542 -0.1938  0.1588  0.1019
 3335SOL    HW217056   8.890   9.533   1.424  0.2040 -1.0786  0.8380
 3336SOL     OW17057   5.579  11.254   1.697 -0.1585 -0.8345 -0.5100
 3336SOL    HW117058   5.565  11.173   1.748  1.1830  0.2635  1.7668
 3336SOL    HW217059   5.673  11.268   1.700 -0.1930 -0.0472 -2.3281
 3337SOL     OW17060  10.039   8.172   0.118 -1.0432  0.0108 -0.6247
 3337SOL    HW117061  10.135   8.176   0.120 -1.0112 -0.1968 -1.3942
 3337SOL    HW217062  10.011   8.239   0.180 -0.3965 -0.6506  0.4046
 3338SOL     OW17063   1.932   8.571   9.918  0.4782  0.2039 -0.2212
 3338SOL    HW117064   1.871   8.597   9.988 -0.0481 -0.1006 -0.5596
 3338SOL    HW217065   1.876   8.560   9.841  1.0429  0.4416 -0.6687
 3339SOL     OW17066  11.035  10.639   4.943  0.1580  0.3012  0.0888
 3339SOL    HW117067  11.061  10.547   4.936 -1.2014 -0.2248  1.2924
 3339SOL    HW217068  10.951  10.643   4.898 -0.1696  0.7616  0.7304
 3340SOL     OW17069  10.047   8.773   0.417 -0.1312 -0.4574  0.6752
 3340SOL    HW117070  10.001   8.766   0.334  2.2102  2.5458 -1.0733
 3340SOL    HW217071   9.990   8.827   0.472 -1.0071 -1.2020  0.5219
 3341SOL     OW17072   5.788  10.190   6.204  0.3087  0.0034  0.2151
 3341SOL    HW117073   5.759  10.209   6.294  1.5836  0.7294  0.4862
 3341SOL    HW217074   5.737  10.249   6.149  1.3452  1.4183  0.7070
 3342SOL     OW17075   9.694   9.306  11.413 -0.2086  0.1243 -0.5103
 3342SOL    HW117076   9.680   9.362  11.336 -2.4604  1.3744  0.7105
 3342SOL    HW217077   9.681   9.217  11.380  0.9702  0.4495 -1.9833
 3343SOL     OW17078   1.102   8.725  12.552 -0.1330 -0.5887  0.2565
 3343SOL    HW117079   1.158   8.730  12.630  0.4203 -1.0828 -0.1022
 3343SOL    HW217080   1.128   8.644  12.509 -0.3333 -0.2468 -0.5259
 3344SOL     OW17081   3.683   7.206   3.353 -0.7444  0.4185  1.0274
 3344SOL    HW117082   3.704   7.271   3.286 -1.1206  0.1012  0.5896
 3344SOL    HW217083   3.747   7.220   3.422 -0.3119  0.7082  0.5699
 3345SOL     OW17084   8.446   6.707   3.560  0.0678 -0.2054 -0.7178
 3345SOL    HW117085   8.539   6.690   3.575  0.4259  2.8962  1.5826
 3345SOL    HW217086   8.436   6.706   3.465  2.5951  0.0531 -1.0576
 3346SOL     OW17087   2.025   6.072   0.594 -0.7372 -0.4779 -0.2506
 3346SOL    HW117088   2.021   6.102   0.503 -1.7582  0.8815  0.2099
 3346SOL    HW217089   2.119   6.065   0.613 -0.3202  3.4890 -0.1263
 3347SOL     OW17090   5.412   2.846   2.634  0.6363 -0.4931 -0.6357
 3347SOL    HW117091   5.431   2.771   2.577  0.8136 -2.2508  1.5821
 3347SOL    HW217092   5.408   2.808   2.722  1.5215  2.2693  0.6881
 3348SOL     OW17093  11.923   9.104   8.710  0.4223  0.3276  0.2527
 3348SOL    HW117094  11.894   9.019   8.742  0.7583  0.2790  0.4376
 3348SOL    HW217095  11.932   9.093   8.616 -0.4379  0.4277  0.1542
 3349SOL     OW17096   1.241   4.554  11.559  0.0698  0.1121  0.2519
 3349SOL    HW117097   1.164   4.510  11.522  0.3509 -0.2036  0.0407
 3349SOL    HW217098   1.311   4.489  11.555 -0.4358 -0.8064  3.5491
 3350SOL     OW17099   1.479  10.347   4.246 -0.1558 -0.3485  0.4035
 3350SOL    HW117100   1.439  10.294   4.179 -2.7077  1.6277  0.2162
 3350SOL    HW217101   1.562  10.376   4.208  0.7926 -3.1740  0.1247
 3351SOL     OW17102  11.078   5.745   9.632 -0.6280 -0.7437  0.5301
 3351SOL    HW117103  11.144   5.770   9.696  1.1325 -0.4560 -1.2919
 3351SOL    HW217104  11.054   5.828   9.590  0.1968 -1.2017 -0.9173
 3352SOL     OW17105  11.337   1.777   4.818  0.1359 -0.1575  0.0836
 3352SOL    HW117106  11.326   1.814   4.730  0.0623  0.5325  0.3801
 3352SOL    HW217107  11.256   1.727   4.832 -0.8465  1.4836  0.5911
 3353SOL     OW17108   8.031   4.693   4.976 -0.0793 -0.1909 -0.0458
 3353SOL    HW117109   8.009   4.786   4.973 -0.6579 -0.3446 -1.4175
 3353SOL    HW217110   8.060   4.677   5.066 -1.6606  0.9291  0.6967
 3354SOL     OW17111   1.413   2.290  10.019  0.3304 -0.1097  0.5282
 3354SOL    HW117112   1.444   2.249   9.939  1.3450  1.1479  0.2406
 3354SOL    HW217113   1.348   2.355   9.990 -1.0517 -1.2430  0.9527
 3355SOL     OW17114   0.658   9.509   1.220  0.0057 -0.3645 -0.1769
 3355SOL    HW117115   0.627   9.597   1.201  0.6209 -0.0092  0.4291
 3355SOL    HW217116   0.595   9.475   1.284 -0.2713 -0.3970 -0.4633
 3356SOL     OW17117  12.166  10.182   4.354 -0.1014  0.3540  0.1737
 3356SOL    HW117118  12.129  10.238   4.286  0.6018  0.3561 -0.2234
 3356SOL    HW217119  12.195  10.242   4.422 -1.1998  0.3224  0.6814
 3357SOL     OW17120   1.414   0.396   5.992  0.2884  0.0781 -0.0789
 3357SOL    HW117121   1.327   0.371   5.961 -0.3440  0.8045  1.0251
 3357SOL    HW217122   1.472   0.380   5.917 -0.7550 -0.6049 -0.7669
 3358SOL     OW17123  10.335   0.571  10.580 -0.1664 -0.3462  0.1050
 3358SOL    HW117124  10.391   0.554  10.505  1.0778 -2.9315  1.4942
 3358SOL    HW217125  10.376   0.645  10.625  0.4521 -0.3236 -0.4917
 3359SOL     OW17126   0.629  10.721   6.162 -0.6778  0.4230 -0.0200
 3359SOL    HW117127   0.623  10.634   6.121 -2.1850  1.1107 -1.3786
 3359SOL    HW217128   0.670  10.776   6.096  1.8358  0.4746  1.4413
 3360SOL     OW17129   2.962  12.020   4.745 -0.3110 -0.0899  0.0585
 3360SOL    HW117130   3.005  12.057   4.821 -0.8304 -0.5841  0.6094
 3360SOL    HW217131   2.891  12.081   4.725 -0.5710 -0.2864  0.3709
 3361SOL     OW17132   8.025  11.641   1.257 -0.3179  0.0513 -0.4935
 3361SOL    HW117133   8.112  11.602   1.248 -0.1346  0.6833 -1.6637
 3361SOL    HW217134   8.034  11.702   1.330  0.2992  0.2875 -0.7537
 3362SOL     OW17135   1.857  11.087  11.117 -0.3341  0.5843 -0.2828
 3362SOL    HW117136   1.901  11.166  11.147  1.0330 -0.0051 -0.6260
 3362SOL    HW217137   1.774  11.117  11.081  0.0568  1.8251 -0.1833
 3363SOL     OW17138   5.911   2.113   5.741 -0.5108 -0.0473  0.3049
 3363SOL    HW117139   5.861   2.163   5.676  1.8244  1.2333 -0.6361
 3363SOL    HW217140   5.909   2.023   5.709 -0.3472  0.3703 -0.9309
 3364SOL     OW17141   4.623   0.284   8.501 -0.1992  0.4806 -0.6162
 3364SOL    HW117142   4.564   0.355   8.476  0.2442  0.5472 -1.4873
 3364SOL    HW217143   4.630   0.292   8.596 -1.8463  0.2643 -0.4465
 3365SOL     OW17144  10.401   5.840   8.972  0.0171  0.1477  0.2745
 3365SOL    HW117145  10.372   5.926   8.944 -0.0130  0.1742  0.3866
 3365SOL    HW217146  10.463   5.858   9.043  1.2217  0.1486 -0.7301
 3366SOL     OW17147   3.840   5.845   1.047  0.0523  0.1404  0.0010
 3366SOL    HW117148   3.875   5.883   0.967  1.0550  1.2821  0.9539
 3366SOL    HW217149   3.820   5.920   1.103 -1.7573 -0.5810  0.3939
 3367SOL     OW17150   1.320  10.274  11.474 -0.1170  0.0682  0.1304
 3367SOL    HW117151   1.364  10.351  11.438  0.2250 -0.5955 -0.9049
 3367SOL    HW217152   1.316  10.212  11.401  0.3571 -1.2261  1.1613
 3368SOL     OW17153   0.245   2.915   9.734  0.1077  0.3259 -0.1639
 3368SOL    HW117154   0.218   2.961   9.814  0.4780  0.7622 -0.2819
 3368SOL    HW217155   0.242   2.983   9.666 -1.5101 -0.3463 -0.8027
 3369SOL     OW17156   1.081   2.046   0.531  0.0215  0.8254 -0.4389
 3369SOL    HW117157   1.088   1.952   0.515 -0.2612  0.8126 -0.4943
 3369SOL    HW217158   1.046   2.052   0.620 -0.9033  0.8613 -0.7896
 3370SOL     OW17159   3.007   3.923  12.479  0.0319  0.2606 -0.0258
 3370SOL    HW117160   2.965   3.959  12.557 -0.3170 -0.7964  0.2828
 3370SOL    HW217161   2.936   3.882  12.429  0.1568  1.3881 -1.1841
 3371SOL     OW17162   9.757   3.613  10.260 -0.6376 -0.1238  0.4718
 3371SOL    HW117163   9.772   3.690  10.204 -1.1762 -0.9347 -0.8202
 3371SOL    HW217164   9.805   3.543  10.218  0.4684 -0.3725  2.0542
 3372SOL     OW17165   6.901   5.034   7.200 -0.4342  0.3112 -0.1296
 3372SOL    HW117166   6.967   4.979   7.157  0.2982  1.4617 -0.5093
 3372SOL    HW217167   6.951   5.091   7.259 -1.3848 -1.0964  2.2046
 3373SOL     OW17168   0.368   7.242   0.922 -0.1830  0.3633  0.3526
 3373SOL    HW117169   0.457   7.207   0.929 -1.2418 -2.6538  0.2039
 3373SOL    HW217170   0.345   7.266   1.012 -0.0259 -1.1319  0.8195
 3374SOL     OW17171   0.054   9.033  10.519  0.0390 -0.2973  0.2906
 3374SOL    HW117172   0.095   9.097  10.461  1.7936 -0.6770  1.0507
 3374SOL    HW217173  -0.028   9.010  10.476  0.5917  0.5553 -1.2684
 3375SOL     OW17174   9.595   7.628   2.496  0.1302  0.7345  0.2387
 3375SOL    HW117175   9.640   7.689   2.438 -2.2490  1.4807 -0.9299
 3375SOL    HW217176   9.560   7.682   2.567 -0.3082  0.4171  0.2718
 3376SOL     OW17177   1.004  11.799   9.352 -0.0406  0.3691 -0.5222
 3376SOL    HW117178   0.952  11.770   9.277 -1.2927  1.8738 -0.2834
 3376SOL    HW217179   0.959  11.878   9.383  1.3387  0.6480  0.8627
 3377SOL     OW17180  10.846   6.385   4.998 -0.2586 -0.6443 -0.1502
 3377SOL    HW117181  10.901   6.428   5.063  0.2897  0.9756 -1.5918
 3377SOL    HW217182  10.759   6.380   5.039 -0.4516  2.2408  0.0028
 3378SOL     OW17183   9.257   8.960  10.264  0.0680 -0.4039 -0.1013
 3378SOL    HW117184   9.308   8.964  10.345  0.3704  2.6625 -0.2923
 3378SOL    HW217185   9.169   8.934  10.291  0.4610 -0.5869  1.0409
 3379SOL     OW17186   0.832   9.531   2.846  0.2337  0.8477 -0.3044
 3379SOL    HW117187   0.864   9.615   2.812  0.4326  1.5150  1.4299
 3379SOL    HW217188   0.742   9.549   2.875  0.0524  0.2954 -0.5091
 3380SOL     OW17189  11.327   7.732   7.962  0.2720  0.4035  0.4002
 3380SOL    HW117190  11.298   7.808   7.912 -2.1064  1.1894  2.7715
 3380SOL    HW217191  11.307   7.657   7.906  1.3388  1.3874 -1.3850
 3381SOL     OW17192   1.429   1.745   0.024  0.2110  0.0599 -0.6277
 3381SOL    HW117193   1.470   1.668   0.061 -0.0315  0.2781  0.1065
 3381SOL    HW217194   1.378   1.783   0.096  1.6902  1.8811 -0.4461
 3382SOL     OW17195   7.156   2.054   3.546  0.0098  0.2186  0.0419
 3382SOL    HW117196   7.085   1.991   3.555 -0.2337  0.3098 -1.0203
 3382SOL    HW217197   7.222   2.026   3.610 -0.8795  0.0075  0.8855
 3383SOL     OW17198  10.854   6.437   3.005 -0.4211  0.0955  0.1668
 3383SOL    HW117199  10.922   6.432   2.937 -1.7377 -1.6083 -1.1309
 3383SOL    HW217200  10.877   6.367   3.066  0.2300  1.0006  0.9673
 3384SOL     OW17201   0.355   2.881   8.162 -0.3115 -0.0388 -0.3000
 3384SOL    HW117202   0.319   2.904   8.248  2.6567  0.0021  1.0731
 3384SOL    HW217203   0.293   2.917   8.099 -0.4329  3.8870  1.7929
 3385SOL     OW17204  11.404  11.031   1.787 -0.3081 -0.6760 -0.6002
 3385SOL    HW117205  11.373  11.036   1.878  2.5733 -0.7556  0.5043
 3385SOL    HW217206  11.438  11.118   1.768  0.0075 -0.9263 -1.2324
 3386SOL     OW17207   6.576  12.578   8.714  0.0487  0.0809 -0.3004
 3386SOL    HW117208   6.482  12.597   8.718  0.4877  2.3352  1.0273
 3386SOL    HW217209   6.603  12.611   8.628 -0.6119 -2.0695 -1.3821
 3387SOL     OW17210   1.550   8.541   6.929  0.4174 -0.1465 -0.0880
 3387SOL    HW117211   1.554   8.565   7.021 -0.3003  0.2888 -0.1645
 3387SOL    HW217212   1.638   8.557   6.896  0.8628 -0.9444  0.6714
 3388SOL     OW17213  12.587   5.588  10.849  0.1680 -0.4471  0.3713
 3388SOL    HW117214  12.632   5.594  10.934  1.6325  1.9352 -0.4916
 3388SOL    HW217215  12.494   5.584  10.872  0.5862 -1.0604  2.1052
 3389SOL     OW17216  11.132   4.537   4.766 -1.3717 -0.1259 -0.1815
 3389SOL    HW117217  11.155   4.445   4.757  0.4366  0.2248  0.3671
 3389SOL    HW217218  11.191   4.583   4.705 -2.6028  0.6408 -0.8386
 3390SOL     OW17219   6.302   1.359   0.010 -0.6000 -0.0451 -0.0702
 3390SOL    HW117220   6.249   1.289   0.048  1.0043 -0.0571  2.4075
 3390SOL    HW217221   6.304   1.427   0.078  3.6083 -0.6646  0.7001
 3391SOL     OW17222   4.978  10.327   4.502  0.4786  0.2499 -0.4201
 3391SOL    HW117223   5.001  10.285   4.419 -1.3623 -0.3584 -0.6727
 3391SOL    HW217224   4.918  10.397   4.478 -0.4332 -0.2209  0.4079
 3392SOL     OW17225   7.280   6.742   7.951  0.1558 -0.0127  0.9202
 3392SOL    HW117226   7.207   6.686   7.924 -1.4875  2.9570 -1.4321
 3392SOL    HW217227   7.239   6.817   7.994  1.7942  1.5920 -0.1509
 3393SOL     OW17228   4.880   5.836   7.391 -0.0912  0.1144 -1.1594
 3393SOL    HW117229   4.925   5.919   7.377  1.0566  0.4119  2.8585
 3393SOL    HW217230   4.824   5.852   7.468 -0.1552 -2.6788 -0.5280
 3394SOL     OW17231   3.001   1.072   1.552 -0.2493 -0.0710 -0.7497
 3394SOL    HW117232   2.955   1.129   1.615 -1.6591 -1.7801 -0.1369
 3394SOL    HW217233   3.020   1.129   1.478 -0.0220  1.6174  0.5369
 3395SOL     OW17234   6.748   0.837  12.348  0.6142  0.1735  0.5171
 3395SOL    HW117235   6.758   0.912  12.407  1.2712  0.6901 -0.2286
 3395SOL    HW217236   6.657   0.810  12.359  0.2745  1.2882  0.5614
 3396SOL     OW17237   9.320  10.212  10.237 -0.1113  0.3721  0.2375
 3396SOL    HW117238   9.333  10.306  10.224  0.6977  0.1682 -0.4597
 3396SOL    HW217239   9.331  10.174  10.150  0.2844 -0.4483  0.6409
 3397SOL     OW17240   1.457   2.290   3.195  0.1183  0.2096 -0.1831
 3397SOL    HW117241   1.529   2.252   3.244 -1.1709 -0.0394  1.6343
 3397SOL    HW217242   1.475   2.384   3.194  0.9780  0.0432 -0.6519
 3398SOL     OW17243   2.789   0.249  10.422  0.5116  0.5999 -0.3246
 3398SOL    HW117244   2.717   0.311  10.423 -0.7997 -0.8712  1.0197
 3398SOL    HW217245   2.861   0.296  10.465 -0.0812  1.5688 -0.3471
 3399SOL     OW17246   0.961   3.343  12.026 -0.7769 -0.2640 -0.5788
 3399SOL    HW117247   1.031   3.309  12.082  0.0156  0.3183 -1.1960
 3399SOL    HW217248   0.919   3.411  12.079 -0.7000 -0.4178 -0.3168
 3400SOL     OW17249   4.014   2.663   1.578  0.4604  0.1214  0.3096
 3400SOL    HW117250   4.028   2.586   1.634  1.9659  1.3339  1.6722
 3400SOL    HW217251   3.929   2.697   1.606  0.2259 -0.4792  0.3538
 3401SOL     OW17252  11.188   5.516   0.632 -0.3794 -0.4887 -0.1741
 3401SOL    HW117253  11.179   5.449   0.700 -0.0572 -0.0268  0.3251
 3401SOL    HW217254  11.112   5.503   0.576 -0.1194 -1.5282 -0.3054
 3402SOL     OW17255  10.011  10.829  11.020  0.4281  0.3586  0.4455
 3402SOL    HW117256   9.988  10.753  11.074 -0.9732  0.0184 -0.5801
 3402SOL    HW217257   9.969  10.813  10.936 -1.1841  2.9344  0.6573
 3403SOL     OW17258   4.039   5.287   8.203  0.0742 -0.3237 -0.0374
 3403SOL    HW117259   4.058   5.350   8.134  1.9867  0.3314  1.0045
 3403SOL    HW217260   3.974   5.330   8.258  0.4479  0.2351 -0.0237
 3404SOL     OW17261   9.837   3.172   3.828  0.2998 -0.2980 -0.3302
 3404SOL    HW117262   9.901   3.172   3.900  0.9855  1.7537 -0.8597
 3404SOL    HW217263   9.804   3.082   3.825  1.4179 -0.8315  1.5032
 3405SOL     OW17264   6.090   4.052   5.417 -0.3648 -0.0201 -0.7294
 3405SOL    HW117265   6.054   4.019   5.499 -1.6086 -0.2070 -1.3205
 3405SOL    HW217266   6.173   4.006   5.407 -0.3782 -0.2693  0.2383
 3406SOL     OW17267  10.311   8.977   0.155  0.1572 -0.0141  0.4763
 3406SOL    HW117268  10.318   9.021   0.070  1.2727 -1.0276  0.0048
 3406SOL    HW217269  10.217   8.967   0.170 -0.0621  0.5424 -0.4549
 3407SOL     OW17270   0.790   9.441  10.539  0.0529  0.0863  0.0932
 3407SOL    HW117271   0.759   9.381  10.606 -1.4395  0.4659 -0.2107
 3407SOL    HW217272   0.750   9.525  10.562  0.3915  0.4667 -0.6728
 3408SOL     OW17273   4.465   6.733   3.250  0.2934  0.5531 -1.0229
 3408SOL    HW117274   4.457   6.792   3.324  1.3301 -0.7971  0.2382
 3408SOL    HW217275   4.378   6.693   3.241 -0.0381  1.2765 -1.0241
 3409SOL     OW17276   8.989   3.426   0.102  0.0648  0.3162  0.8588
 3409SOL    HW117277   9.071   3.475   0.096 -0.2792  0.9752  1.3832
 3409SOL    HW217278   8.921   3.493   0.106 -0.4343 -0.2072  1.3449
 3410SOL     OW17279   8.925   9.111  10.977  0.0176  0.2988 -0.4934
 3410SOL    HW117280   8.918   9.158  10.894  1.8730  0.2574 -0.7182
 3410SOL    HW217281   8.979   9.168  11.032  1.8225 -1.2611 -0.5761
 3411SOL     OW17282  10.042  11.711   3.913  0.0346  0.2442 -0.6940
 3411SOL    HW117283   9.975  11.680   3.852 -0.6052  2.8809 -1.4447
 3411SOL    HW217284  10.112  11.744   3.856  0.8729 -0.2053  0.0610
 3412SOL     OW17285  10.799  10.288   6.913  0.5162 -0.6483  0.1860
 3412SOL    HW117286  10.748  10.247   6.983 -0.6577  0.4105 -0.0261
 3412SOL    HW217287  10.735  10.336   6.861  1.6171 -0.0115 -0.6203
 3413SOL     OW17288   5.938   6.908  10.688 -0.2319  0.3563  0.0395
 3413SOL    HW117289   5.948   6.838  10.624 -0.0733  0.8248 -0.4626
 3413SOL    HW217290   5.951   6.866  10.773 -0.1748 -0.2225 -0.2518
 3414SOL     OW17291   5.681   0.869   9.907 -0.7118 -0.5465 -0.4217
 3414SOL    HW117292   5.696   0.952   9.862  0.2694 -1.6417 -2.2533
 3414SOL    HW217293   5.617   0.889   9.975  1.5318  2.2807  1.0430
 3415SOL     OW17294   8.997   1.423   1.494  0.1683  0.4173 -1.0290
 3415SOL    HW117295   8.951   1.488   1.547  1.6831  1.6394 -1.1396
 3415SOL    HW217296   8.965   1.338   1.526 -1.9436  1.1817 -0.9636
 3416SOL     OW17297  11.968   1.273  11.787  0.3362  0.6029  0.5301
 3416SOL    HW117298  11.886   1.295  11.744  0.5957 -0.0729 -0.3563
 3416SOL    HW217299  11.953   1.187  11.825 -0.2819  1.7020  2.9031
 3417SOL     OW17300   2.462   3.632   8.435 -0.3145  0.5281  0.0963
 3417SOL    HW117301   2.463   3.708   8.493 -1.4580 -0.0007  0.8576
 3417SOL    HW217302   2.439   3.559   8.493  0.9448 -0.4390 -0.5850
 3418SOL     OW17303   3.256  12.468   1.122  0.7951 -0.1890 -1.2079
 3418SOL    HW117304   3.316  12.541   1.107 -0.8090  0.9306 -2.5311
 3418SOL    HW217305   3.250  12.424   1.037  0.7693 -1.0958 -0.7452
 3419SOL     OW17306   3.386   3.906   6.687  0.2894  0.0356  0.3866
 3419SOL    HW117307   3.391   3.825   6.738 -0.8129 -0.5623 -0.4174
 3419SOL    HW217308   3.469   3.908   6.638  0.0858 -0.9126 -0.0193
 3420SOL     OW17309   1.235   2.949  11.710 -0.2110  0.2062  0.0072
 3420SOL    HW117310   1.142   2.960  11.688  0.1315  0.2946 -1.5194
 3420SOL    HW217311   1.260   3.032  11.751 -0.2530  1.1529 -1.7651
 3421SOL     OW17312  11.783   0.176   2.883 -0.2384 -0.0447 -0.5219
 3421SOL    HW117313  11.751   0.088   2.861  1.2641 -1.1370  1.4261
 3421SOL    HW217314  11.795   0.219   2.798 -3.0744 -0.8800 -1.4724
 3422SOL     OW17315   2.976   9.457  11.560 -0.2272 -0.0824 -0.7372
 3422SOL    HW117316   3.027   9.408  11.624 -0.9225 -1.4823 -1.2250
 3422SOL    HW217317   2.996   9.416  11.476 -1.6484 -0.2460 -1.0193
 3423SOL     OW17318  12.073   5.915   9.061 -0.6134 -0.3736  0.1687
 3423SOL    HW117319  12.038   6.001   9.040 -0.3816 -0.8529 -2.5139
 3423SOL    HW217320  12.127   5.891   8.986 -2.1705 -3.6252 -0.1196
 3424SOL     OW17321   2.261   1.848   5.045  0.1546  0.4914  0.0870
 3424SOL    HW117322   2.187   1.855   4.984  0.4266  1.8031 -0.1165
 3424SOL    HW217323   2.221   1.819   5.127 -0.6745  1.6807  0.1230
 3425SOL     OW17324   6.572   3.242  11.333 -0.5117 -0.0963  0.1481
 3425SOL    HW117325   6.503   3.302  11.361  0.2706 -0.4944  3.2205
 3425SOL    HW217326   6.589   3.187  11.409  1.4093 -1.7551 -1.3575
 3426SOL     OW17327   5.693   6.371   4.616 -0.2468 -0.8256  0.5745
 3426SOL    HW117328   5.605   6.386   4.581 -0.5039 -1.7975  0.7787
 3426SOL    HW217329   5.705   6.276   4.614 -0.1674 -0.9332  2.8075
 3427SOL     OW17330   5.011   2.014   3.579 -0.3962 -0.1716 -0.5064
 3427SOL    HW117331   4.960   2.049   3.652 -0.3856  1.0779 -1.0709
 3427SOL    HW217332   5.018   2.087   3.518  1.4059 -0.5400 -0.8031
 3428SOL     OW17333   6.131   8.051   3.942 -0.0679 -0.4327  0.1604
 3428SOL    HW117334   6.129   8.147   3.947 -1.3528 -0.2978 -1.6944
 3428SOL    HW217335   6.221   8.030   3.920 -0.0529  0.4797 -0.7273
 3429SOL     OW17336   4.356  11.926  11.773 -0.0915 -0.2413  0.7098
 3429SOL    HW117337   4.334  11.941  11.681  2.0961 -1.0208  0.0052
 3429SOL    HW217338   4.426  11.988  11.791 -0.2025 -0.4045  1.7231
 3430SOL     OW17339   0.069   0.366   2.185  0.3162 -0.1362  0.4146
 3430SOL    HW117340   0.075   0.383   2.091  0.9157 -0.2683  0.4209
 3430SOL    HW217341   0.081   0.451   2.227 -2.0422  0.2819  0.3418
 3431SOL     OW17342   2.001   4.435  11.392 -0.5322  0.2897  0.0770
 3431SOL    HW117343   2.077   4.382  11.414 -0.4563 -0.6820 -2.2161
 3431SOL    HW217344   1.945   4.375  11.342 -1.7439  1.6310 -0.2213
 3432SOL     OW17345   2.755   9.742  10.185 -0.6045  0.0962  0.3881
 3432SOL    HW117346   2.735   9.673  10.248 -5.4262  1.1580  0.4472
 3432SOL    HW217347   2.740   9.702  10.100  1.3007 -0.0658  0.0756
 3433SOL     OW17348   5.605  11.249  10.340 -0.6155  0.2613 -0.1066
 3433SOL    HW117349   5.662  11.176  10.364 -1.4379 -0.6088 -0.7268
 3433SOL    HW217350   5.649  11.292  10.267 -0.0848  0.4473  0.3171
 3434SOL     OW17351   0.467   3.861  11.623 -0.1406  0.0067 -0.0487
 3434SOL    HW117352   0.487   3.907  11.704  0.9360 -0.4795 -0.0150
 3434SOL    HW217353   0.488   3.923  11.554 -0.2877  0.1409  0.0269
 3435SOL     OW17354  10.126   6.069  10.670 -0.2381 -0.4331 -0.1249
 3435SOL    HW117355  10.174   6.115  10.602  0.1791 -0.3693  0.2012
 3435SOL    HW217356  10.109   6.136  10.737 -3.0741  0.1938 -1.3414
 3436SOL     OW17357   8.950  10.165   7.488 -0.3592 -0.7720 -0.3298
 3436SOL    HW117358   9.043  10.156   7.470 -0.2290  0.5622 -0.3922
 3436SOL    HW217359   8.941  10.146   7.581  0.2122  0.6243  0.0228
 3437SOL     OW17360   6.132   9.915   4.167 -0.2111 -0.7191  0.5420
 3437SOL    HW117361   6.043   9.891   4.138  0.1738 -1.7319  0.1483
 3437SOL    HW217362   6.123  10.005   4.198 -1.7222 -1.3137  1.9863
 3438SOL     OW17363   3.765   6.852   6.879 -0.0707  0.3174  0.7847
 3438SOL    HW117364   3.856   6.840   6.906 -0.3623 -1.4848  1.1102
 3438SOL    HW217365   3.715   6.840   6.960 -0.7021 -0.6747  0.2641
 3439SOL     OW17366   7.519  12.437   7.228 -0.0173 -0.2369 -0.7090
 3439SOL    HW117367   7.593  12.379   7.243 -0.6547 -0.8064  0.3547
 3439SOL    HW217368   7.558  12.520   7.202  0.9449 -0.8267 -1.2167
 3440SOL     OW17369   5.193   7.160   4.378  0.6997 -0.2791 -0.2155
 3440SOL    HW117370   5.121   7.220   4.359 -0.3703 -1.1862  0.7854
 3440SOL    HW217371   5.260   7.214   4.417  0.1635  0.4284 -0.2594
 3441SOL     OW17372   6.017  12.284   8.544  0.0376 -0.1592  0.4087
 3441SOL    HW117373   6.086  12.350   8.555 -0.1844  0.3078 -0.8922
 3441SOL    HW217374   5.939  12.327   8.579  0.2877 -0.5205  1.4628
 3442SOL     OW17375   2.690   7.479   1.448  0.1167 -0.4123 -0.6680
 3442SOL    HW117376   2.617   7.527   1.409  0.2930 -0.1201 -0.6413
 3442SOL    HW217377   2.650   7.425   1.517  0.1139  0.8774  0.3757
 3443SOL     OW17378  11.561   5.499  12.032  0.0011  0.4935  0.1739
 3443SOL    HW117379  11.472   5.486  11.999  0.2159  0.5540 -0.4255
 3443SOL    HW217380  11.590   5.410  12.055 -0.2824  0.4959  0.5683
 3444SOL     OW17381  10.699   0.801   7.415  0.1891  0.2855  0.0140
 3444SOL    HW117382  10.625   0.748   7.447  0.1798  0.2630 -0.0451
 3444SOL    HW217383  10.657   0.872   7.366  0.1639  0.8255  0.7960
 3445SOL     OW17384   6.945   9.704   4.388  0.4638  0.1109 -0.0722
 3445SOL    HW117385   6.987   9.725   4.472 -0.2160  1.2995 -0.0188
 3445SOL    HW217386   6.893   9.625   4.407  0.0771  0.5379  0.7055
 3446SOL     OW17387  10.175  12.087   9.520  0.2729  0.0203  0.6443
 3446SOL    HW117388  10.255  12.104   9.569  0.4780  1.2798 -0.0917
 3446SOL    HW217389  10.151  12.172   9.483 -1.2764 -0.3779  0.6622
 3447SOL     OW17390   1.771   9.749   3.102  0.1287 -0.0231  0.1649
 3447SOL    HW117391   1.734   9.831   3.069 -2.1234 -1.5407 -1.4352
 3447SOL    HW217392   1.737   9.741   3.191  1.5593  1.4251  0.8720
 3448SOL     OW17393   9.181  11.370   2.771 -0.4899 -0.3257 -0.2845
 3448SOL    HW117394   9.149  11.279   2.772  0.8086 -0.8174 -0.7517
 3448SOL    HW217395   9.233  11.375   2.691 -0.1254  0.6931  0.0106
 3449SOL     OW17396   8.314   2.352   5.072  0.0910  0.0132  0.2138
 3449SOL    HW117397   8.315   2.289   5.144 -0.7697  0.1373  0.3503
 3449SOL    HW217398   8.386   2.325   5.016 -0.9937 -1.8484 -0.3630
 3450SOL     OW17399   6.372  10.300  10.799  0.5611  0.0203 -0.2277
 3450SOL    HW117400   6.378  10.393  10.779 -2.0599  0.1612 -0.7864
 3450SOL    HW217401   6.314  10.265  10.731 -0.6662 -1.4681  1.4933
 3451SOL     OW17402   1.627   2.563  10.360  0.4529 -0.1075  0.6675
 3451SOL    HW117403   1.624   2.480  10.312  0.9474  0.3535 -0.1932
 3451SOL    HW217404   1.709   2.559  10.410 -0.6520 -1.1117  2.5028
 3452SOL     OW17405  12.435   4.682   1.656  0.1433  0.4175 -0.1745
 3452SOL    HW117406  12.399   4.763   1.694 -1.5051 -0.4582  0.2332
 3452SOL    HW217407  12.358   4.626   1.643  1.3616 -1.5634  0.7220
 3453SOL     OW17408  12.172   7.526   3.289  0.0051 -0.4906  0.2240
 3453SOL    HW117409  12.090   7.537   3.241 -0.1308 -1.1487  0.2901
 3453SOL    HW217410  12.146   7.483   3.371  0.2899  0.2372  0.6992
 3454SOL     OW17411   2.075   9.846   4.370 -0.1837  0.1631  0.2261
 3454SOL    HW117412   2.121   9.774   4.327 -0.1818  0.3223 -0.0414
 3454SOL    HW217413   1.988   9.812   4.387 -0.8802  0.7576 -1.7927
 3455SOL     OW17414   8.622  11.660   5.841  0.6632 -0.1501  0.2360
 3455SOL    HW117415   8.639  11.744   5.884 -2.4524  0.8221 -0.2384
 3455SOL    HW217416   8.607  11.683   5.749  1.8569 -1.5545 -0.3563
 3456SOL     OW17417  12.556   8.070  11.451 -0.4661  0.4360  0.0034
 3456SOL    HW117418  12.516   8.133  11.391 -2.8405 -1.4604 -0.5275
 3456SOL    HW217419  12.517   7.986  11.427  1.3291 -0.9834  1.7933
 3457SOL     OW17420   8.330   6.548   0.929 -0.2942 -0.4203  0.0248
 3457SOL    HW117421   8.281   6.500   0.995 -2.4153  1.3798 -0.1152
 3457SOL    HW217422   8.375   6.617   0.978 -0.3314 -0.2469 -0.1844
 3458SOL     OW17423   2.665  10.414   8.629 -0.0955  0.7904 -0.6013
 3458SOL    HW117424   2.694  10.382   8.714  1.1754  3.0058 -0.1324
 3458SOL    HW217425   2.648  10.334   8.578  0.8609 -0.5871  1.1366
 3459SOL     OW17426   9.903   8.040   7.798  0.5356 -0.3554  0.4258
 3459SOL    HW117427   9.956   7.969   7.762  0.0147 -1.0159  0.9421
 3459SOL    HW217428   9.960   8.117   7.794  0.8757 -0.6367 -0.7858
 3460SOL     OW17429   3.122   2.329   9.879  0.3888  0.0557 -0.0482
 3460SOL    HW117430   3.062   2.402   9.894 -0.2439 -0.8015  1.9691
 3460SOL    HW217431   3.072   2.267   9.828 -0.6210 -0.7626  1.8314
 3461SOL     OW17432   3.379   0.223  11.822  0.2702  0.2827  0.3013
 3461SOL    HW117433   3.358   0.312  11.849  0.5003  0.9079 -1.4483
 3461SOL    HW217434   3.467   0.229  11.785 -0.6980 -0.0461 -2.3105
 3462SOL     OW17435   8.998   8.024  12.553 -0.4428  0.1123 -0.0918
 3462SOL    HW117436   8.913   8.049  12.589 -0.5977  0.8240 -0.9126
 3462SOL    HW217437   8.978   7.960  12.485 -0.3813  0.6852 -0.6611
 3463SOL     OW17438   0.682   3.174  10.235  0.1904  0.6910  0.3748
 3463SOL    HW117439   0.722   3.221  10.162  1.5242  0.3096  0.8354
 3463SOL    HW217440   0.691   3.082  10.212  0.4092  0.5751  0.9175
 3464SOL     OW17441  12.054   4.301  11.216  0.1250 -0.1860  0.0950
 3464SOL    HW117442  12.094   4.347  11.290  3.1318 -2.7692  0.2923
 3464SOL    HW217443  12.103   4.332  11.140 -0.2079 -0.5035 -0.2513
 3465SOL     OW17444   4.163   8.403   1.380 -0.2480  0.2339 -0.3227
 3465SOL    HW117445   4.115   8.375   1.302 -2.7206  1.5928  0.6157
 3465SOL    HW217446   4.168   8.325   1.434 -2.6676  0.3195  0.1230
 3466SOL     OW17447   0.769   6.358   9.061 -0.5068 -0.0378 -0.1253
 3466SOL    HW117448   0.741   6.304   9.135 -0.8100 -1.2153 -1.0623
 3466SOL    HW217449   0.862   6.339   9.050 -0.7578 -0.9042 -0.8633
 3467SOL     OW17450  10.512  11.261   8.016 -0.1769 -0.4330 -0.9679
 3467SOL    HW117451  10.536  11.195   7.951 -1.4860 -1.1422 -0.7538
 3467SOL    HW217452  10.595  11.283   8.058  0.1458 -2.9523 -0.1185
 3468SOL     OW17453   5.586   4.508   4.661 -0.3510  0.1080 -0.4327
 3468SOL    HW117454   5.593   4.415   4.683  1.2308  0.1070 -0.8194
 3468SOL    HW217455   5.618   4.514   4.570 -0.6129  0.9979 -0.4766
 3469SOL     OW17456   1.641  10.915   2.025 -0.7956  0.2524  0.0703
 3469SOL    HW117457   1.721  10.967   2.036 -1.3899  1.3249 -0.5624
 3469SOL    HW217458   1.650  10.876   1.938 -1.3644  1.1050 -0.3781
 3470SOL     OW17459   8.438  12.105   2.858 -0.5753 -0.2661  0.3159
 3470SOL    HW117460   8.400  12.109   2.946 -0.7309  0.8345  0.2071
 3470SOL    HW217461   8.363  12.092   2.800 -0.3577 -2.4512  0.4126
 3471SOL     OW17462   4.312   7.410   2.094 -0.2266 -0.0235 -0.4972
 3471SOL    HW117463   4.258   7.397   2.172 -1.5472  0.5576 -1.2897
 3471SOL    HW217464   4.327   7.322   2.060 -0.6871 -0.1895 -0.2742
 3472SOL     OW17465   7.032   7.536   2.059  0.1841 -0.1277 -0.3773
 3472SOL    HW117466   7.112   7.487   2.079  0.2199 -0.7477 -1.9085
 3472SOL    HW217467   7.054   7.587   1.981 -1.9477 -3.2772 -3.3249
 3473SOL     OW17468  10.237   1.113   0.968 -0.5649  0.4412  0.0362
 3473SOL    HW117469  10.323   1.072   0.973 -0.0691  1.0170 -2.4691
 3473SOL    HW217470  10.207   1.096   0.879 -1.8818  2.4828  0.0178
 3474SOL     OW17471   7.729  10.801   2.393 -0.3107 -0.2936 -0.3892
 3474SOL    HW117472   7.672  10.726   2.380 -0.2139 -0.1845 -1.5643
 3474SOL    HW217473   7.802  10.768   2.446 -1.5812 -0.3499  1.4191
 3475SOL     OW17474   0.833   3.657   8.844 -0.4484  0.2392 -0.5184
 3475SOL    HW117475   0.882   3.740   8.845 -0.9037  0.5455  1.4451
 3475SOL    HW217476   0.867   3.609   8.920 -0.4710 -1.2400 -1.4056
 3476SOL     OW17477   7.063   4.085   2.442 -0.0186 -0.3852 -0.6355
 3476SOL    HW117478   7.101   4.160   2.396 -1.6743 -0.1583 -1.7455
 3476SOL    HW217479   7.108   4.009   2.407 -1.6907 -0.2802 -3.2805
 3477SOL     OW17480  12.077   7.436   1.034 -0.4683  0.0492  0.1270
 3477SOL    HW117481  12.131   7.377   0.982 -0.3568  2.0511 -2.2013
 3477SOL    HW217482  12.121   7.441   1.119  1.8687  0.0524 -1.0206
 3478SOL     OW17483   8.117   7.257   4.940 -0.0912  0.1265  0.3331
 3478SOL    HW117484   8.063   7.181   4.958 -0.7618  0.3409 -0.6765
 3478SOL    HW217485   8.139   7.292   5.026 -0.2786 -0.8512  0.7863
 3479SOL     OW17486   0.444  10.313   6.837  0.6946  0.6980 -0.0104
 3479SOL    HW117487   0.516  10.343   6.891  1.2307  1.9459 -1.3527
 3479SOL    HW217488   0.384  10.270   6.898  1.6994  1.2445  1.3974
 3480SOL     OW17489   9.402   5.979   7.387 -0.0393  0.2195  0.5056
 3480SOL    HW117490   9.324   5.926   7.402 -0.0360  0.5412  1.7684
 3480SOL    HW217491   9.453   5.971   7.468  1.4227 -0.2744 -0.4130
 3481SOL     OW17492  10.136   1.557   1.277  0.3017 -0.0496  0.1524
 3481SOL    HW117493  10.116   1.552   1.183 -1.7214  0.4150  0.5073
 3481SOL    HW217494  10.172   1.471   1.298  0.9397 -0.1098 -1.0597
 3482SOL     OW17495  12.239   0.743   9.753 -0.0008 -0.1695 -0.8993
 3482SOL    HW117496  12.245   0.821   9.808  3.7117  0.3017 -1.7613
 3482SOL    HW217497  12.264   0.671   9.810 -1.3219 -0.4804 -0.6739
 3483SOL     OW17498  11.724   8.970   9.052  0.7106  0.0820 -0.2877
 3483SOL    HW117499  11.781   8.898   9.080  2.0427  0.1227 -2.6251
 3483SOL    HW217500  11.761   9.047   9.094  2.0391  0.0044 -1.2418
 3484SOL     OW17501  10.825   7.349  10.037  0.4557  0.2227 -0.2537
 3484SOL    HW117502  10.819   7.439  10.005 -0.2096  0.0649 -0.5875
 3484SOL    HW217503  10.909   7.318  10.005  1.4204  1.2325  1.1939
 3485SOL     OW17504   3.821   5.399   8.342  0.4033  0.1174  0.5731
 3485SOL    HW117505   3.728   5.389   8.320  0.6256 -2.2191  0.4206
 3485SOL    HW217506   3.821   5.456   8.420 -1.1150  0.4272  0.3824
 3486SOL     OW17507   5.176   8.104  11.237 -0.2159  0.4145  0.6907
 3486SOL    HW117508   5.127   8.177  11.276  0.4035  1.4456 -0.3638
 3486SOL    HW217509   5.262   8.142  11.217  0.7084 -1.0983  1.6481
 3487SOL     OW17510   3.857  11.999   0.140  0.2377  0.7461  0.2233
 3487SOL    HW117511   3.903  12.076   0.107 -0.7811  1.3778  0.2036
 3487SOL    HW217512   3.924  11.931   0.147  1.2506  1.7574  0.6582
 3488SOL     OW17513   3.744   3.365  10.291  0.2418  0.7063  0.3940
 3488SOL    HW117514   3.836   3.364  10.263  0.1695  0.3871  0.1663
 3488SOL    HW217515   3.704   3.438  10.244 -0.3085 -0.8635 -1.7178
 3489SOL     OW17516   3.752   0.919   6.176 -0.5126 -0.6083 -0.2388
 3489SOL    HW117517   3.742   0.848   6.112 -1.2590  0.6320 -1.5594
 3489SOL    HW217518   3.710   0.994   6.135  0.8939  0.8077  0.8030
 3490SOL     OW17519   8.607  10.504   4.378  0.0852  0.2860 -0.1766
 3490SOL    HW117520   8.531  10.470   4.330 -0.4557  1.0788  0.1177
 3490SOL    HW217521   8.678  10.503   4.314 -0.5657  1.0724 -0.9262
 3491SOL     OW17522   3.626   7.386   5.664 -0.0911  0.1750 -0.3135
 3491SOL    HW117523   3.575   7.444   5.607  1.0226  0.1544 -1.3722
 3491SOL    HW217524   3.561   7.349   5.724 -1.6344 -0.9464 -2.4848
 3492SOL     OW17525   3.924   9.384   0.102  0.2091  0.5486  0.7098
 3492SOL    HW117526   3.959   9.391   0.014  1.5449 -0.1402  1.1622
 3492SOL    HW217527   3.838   9.426   0.097 -0.3594 -0.7251 -1.2543
 3493SOL     OW17528   8.908   8.312   8.932  0.0914  0.0309 -0.3976
 3493SOL    HW117529   8.915   8.265   9.014 -0.1865 -0.6785 -0.7781
 3493SOL    HW217530   8.829   8.365   8.941  1.7820  2.5344  1.0800
 3494SOL     OW17531   2.469   0.648   0.841  0.2275  0.4855 -0.1970
 3494SOL    HW117532   2.552   0.618   0.878  0.9461  1.0857 -1.2499
 3494SOL    HW217533   2.406   0.579   0.862  0.9594  0.0690  0.7037
 3495SOL     OW17534  11.282   5.149   4.792  0.8831 -0.2513 -0.3054
 3495SOL    HW117535  11.223   5.082   4.827  0.4481  0.2784  0.0031
 3495SOL    HW217536  11.292   5.126   4.700  0.2980 -0.4287 -0.3302
 3496SOL     OW17537   9.804   1.433   6.176  0.0735 -0.4298 -0.0643
 3496SOL    HW117538   9.814   1.341   6.197  0.7696 -0.4453 -0.4327
 3496SOL    HW217539   9.854   1.445   6.095  2.8046  0.9263  1.6634
 3497SOL     OW17540   9.407   9.371   3.968 -0.2208  0.3589 -0.0642
 3497SOL    HW117541   9.470   9.305   3.939 -1.2809  0.1313 -2.0080
 3497SOL    HW217542   9.340   9.321   4.014  0.3606  0.4646  0.9449
 3498SOL     OW17543   6.997   2.428   7.977 -0.3185 -0.2510  0.1766
 3498SOL    HW117544   6.941   2.502   7.954 -0.2998 -0.0962  0.6223
 3498SOL    HW217545   6.965   2.356   7.923 -1.0704 -0.2072  0.5484
 3499SOL     OW17546  10.750   8.784   8.296  0.1380 -0.2176  0.1822
 3499SOL    HW117547  10.739   8.875   8.270 -0.3917 -0.6380 -1.1777
 3499SOL    HW217548  10.754   8.786   8.392  1.7827  1.3927  0.1284
 3500SOL     OW17549  12.338   8.059   5.754 -0.0947 -0.2964  0.0904
 3500SOL    HW117550  12.425   8.021   5.751  0.2393  0.4825 -0.4381
 3500SOL    HW217551  12.291   8.006   5.819  0.7279 -0.7918  0.2997
 3501SOL     OW17552   2.532   9.004   6.426 -0.3702  0.4592 -0.7150
 3501SOL    HW117553   2.474   9.047   6.489 -0.8399 -0.4328 -0.5316
 3501SOL    HW217554   2.507   8.912   6.429  1.1312  0.0318 -0.5531
 3502SOL     OW17555  11.100   8.849   7.048 -0.1669  0.5928  0.1638
 3502SOL    HW117556  11.182   8.832   7.094 -0.0690 -0.4939 -0.3832
 3502SOL    HW217557  11.061   8.923   7.095  0.2938  0.0020  1.5289
 3503SOL     OW17558   3.275   7.153   7.509 -0.5041 -0.5989 -0.2270
 3503SOL    HW117559   3.335   7.113   7.446 -1.5732 -2.6269 -0.0491
 3503SOL    HW217560   3.320   7.145   7.593  0.0745  0.3041 -0.4371
 3504SOL     OW17561   2.850   2.473  11.880 -0.4679  0.2437 -0.3291
 3504SOL    HW117562   2.848   2.564  11.910  1.0876  0.4558 -0.7779
 3504SOL    HW217563   2.822   2.478  11.788 -0.2203  0.2905 -0.4020
 3505SOL     OW17564   3.844   9.714  11.144  0.3596  0.1050 -0.6097
 3505SOL    HW117565   3.850   9.679  11.233  0.6464  0.0446 -0.6529
 3505SOL    HW217566   3.775   9.662  11.102  2.0376 -1.7030 -1.2649
 3506SOL     OW17567  10.517   8.607  11.929  0.2699 -0.4256 -0.2426
 3506SOL    HW117568  10.559   8.555  11.860  0.0268 -1.2094  0.1896
 3506SOL    HW217569  10.500   8.692  11.888  1.9181 -0.2036 -0.5525
 3507SOL     OW17570  11.004   7.219   3.766 -0.3728 -0.4174 -0.6216
 3507SOL    HW117571  10.917   7.255   3.782  0.8579  2.1680  0.7905
 3507SOL    HW217572  11.012   7.147   3.828 -1.7970 -1.3238 -1.4348
 3508SOL     OW17573   9.184   5.305   2.161  0.2938  0.1137 -0.0070
 3508SOL    HW117574   9.187   5.392   2.122  2.4801 -0.5100 -1.3831
 3508SOL    HW217575   9.176   5.321   2.255  1.6005  1.8293 -0.1402
 3509SOL     OW17576   8.428  10.253   9.224 -0.1265 -0.6433  0.5697
 3509SOL    HW117577   8.407  10.335   9.179 -0.1729 -1.1897 -0.4316
 3509SOL    HW217578   8.356  10.194   9.203  0.5465 -1.3501  0.2008
 3510SOL     OW17579   1.109   0.332   9.427 -0.4344 -0.1052 -0.0680
 3510SOL    HW117580   1.066   0.264   9.479 -0.6521  0.9029  1.1334
 3510SOL    HW217581   1.046   0.404   9.426  0.2043  0.4585 -0.4262
 3511SOL     OW17582   1.858   4.396   3.643 -0.2716 -0.2232  0.0839
 3511SOL    HW117583   1.864   4.335   3.570 -0.3583 -0.6004  0.3854
 3511SOL    HW217584   1.862   4.341   3.721  1.0485  0.2783  0.3926
 3512SOL     OW17585   4.696   3.049   1.323 -0.3802  0.1141  0.3668
 3512SOL    HW117586   4.647   3.125   1.292 -0.3649  0.0310  0.1382
 3512SOL    HW217587   4.736   3.078   1.405  2.4438  1.4869 -1.3576
 3513SOL     OW17588   3.717   9.766   9.874  0.5449  0.0275 -0.2736
 3513SOL    HW117589   3.752   9.787   9.961  1.2298  0.0964 -0.5567
 3513SOL    HW217590   3.668   9.685   9.886  0.6199  0.0473  0.1802
 3514SOL     OW17591   4.597   9.995   4.912  0.3211  0.2008 -0.0314
 3514SOL    HW117592   4.581  10.064   4.976  0.2032  0.6481 -0.5366
 3514SOL    HW217593   4.540  10.016   4.838  0.1550 -0.5346 -0.1250
 3515SOL     OW17594   1.756   0.868   6.105 -0.2554 -0.3264  0.4148
 3515SOL    HW117595   1.681   0.809   6.108 -0.0633 -1.0756 -3.6767
 3515SOL    HW217596   1.827   0.818   6.145 -1.3525 -0.5433  2.1800
 3516SOL     OW17597   1.765   8.369   7.620 -0.5074  0.1856  0.2628
 3516SOL    HW117598   1.780   8.296   7.561  0.3873  0.7570 -0.2495
 3516SOL    HW217599   1.830   8.435   7.594 -0.2319  0.5447  1.7259
 3517SOL     OW17600   1.365   1.078   9.918  0.2958  0.2041  0.3620
 3517SOL    HW117601   1.314   1.155   9.893 -1.6938 -1.1165  0.1758
 3517SOL    HW217602   1.442   1.081   9.862  0.0662  1.8221  0.0784
 3518SOL     OW17603  10.637   3.887   7.637 -0.0330  0.4853 -0.6598
 3518SOL    HW117604  10.609   3.814   7.580  2.0002 -0.0624 -1.0255
 3518SOL    HW217605  10.622   3.965   7.584  1.1974  0.0334 -1.7439
 3519SOL     OW17606   7.230   2.056  10.646  0.1230 -0.3934  0.2780
 3519SOL    HW117607   7.207   2.027  10.557  0.2206  0.3244  0.0108
 3519SOL    HW217608   7.308   2.005  10.669  0.4853 -0.1093 -0.3096
 3520SOL     OW17609   6.776  10.963   6.469  0.0786  0.2715  0.0134
 3520SOL    HW117610   6.774  10.937   6.377 -0.9039 -1.3044  0.4381
 3520SOL    HW217611   6.695  11.012   6.482  1.4940  2.9606 -0.5579
 3521SOL     OW17612   6.020   8.120   5.807 -0.6817 -0.1874  0.3664
 3521SOL    HW117613   6.045   8.030   5.786  2.8674  0.4193  1.3092
 3521SOL    HW217614   6.074   8.174   5.749 -0.2594  1.3211  2.0694
 3522SOL     OW17615   3.938   0.009   0.001 -0.4099  0.0315 -0.1600
 3522SOL    HW117616   4.000  -0.050   0.046  1.3197  1.1022 -1.0333
 3522SOL    HW217617   3.994   0.077  -0.037 -1.9117 -0.1724 -2.9382
 3523SOL     OW17618   3.372   5.099  10.882  0.2125 -0.3702  1.0688
 3523SOL    HW117619   3.345   5.008  10.866 -0.2208 -0.3049  1.4302
 3523SOL    HW217620   3.395   5.101  10.974 -1.8530  0.3917  1.6232
 3524SOL     OW17621   4.869  11.295   3.531  0.0980  0.4012 -0.4233
 3524SOL    HW117622   4.793  11.338   3.492 -0.7054 -0.5354  0.0833
 3524SOL    HW217623   4.859  11.202   3.510  1.0359  0.2415 -0.2416
 3525SOL     OW17624   8.527   4.627   7.308 -0.3896  0.1790 -0.4850
 3525SOL    HW117625   8.560   4.546   7.270  3.3816 -0.1340  2.7274
 3525SOL    HW217626   8.474   4.599   7.383 -0.1975  0.6650 -0.1584
 3526SOL     OW17627   3.303   3.856  11.092  0.3240 -0.2159  0.4431
 3526SOL    HW117628   3.343   3.873  11.177  0.0875  1.6838  0.2183
 3526SOL    HW217629   3.215   3.823  11.114  0.1686  0.4987  0.9617
 3527SOL     OW17630   1.716   6.435   7.015 -0.4348  0.2357 -0.1155
 3527SOL    HW117631   1.721   6.403   6.925 -0.1516 -0.6817  0.2096
 3527SOL    HW217632   1.803   6.471   7.032 -0.1099 -0.6294  0.1453
 3528SOL     OW17633   8.890   6.565   4.924 -0.5903  0.1561  0.3779
 3528SOL    HW117634   8.947   6.488   4.923 -1.2162 -0.3265  1.1458
 3528SOL    HW217635   8.911   6.611   4.843 -0.1784 -0.7947 -0.0677
 3529SOL     OW17636  10.336   5.887   2.112 -0.4043  0.1181 -0.0100
 3529SOL    HW117637  10.251   5.874   2.070 -1.2442  3.6730  0.2103
 3529SOL    HW217638  10.314   5.919   2.200  1.2217 -0.8882  0.8086
 3530SOL     OW17639  10.581   8.373   9.071 -0.6479  0.0930 -0.4091
 3530SOL    HW117640  10.526   8.359   8.993  0.6582  0.9629 -1.5424
 3530SOL    HW217641  10.564   8.465   9.095 -0.0007  0.2484 -0.5302
 3531SOL     OW17642   0.039   1.076  11.227  0.1090 -0.0662  0.3612
 3531SOL    HW117643   0.062   0.983  11.219  1.2436  0.0961  1.4589
 3531SOL    HW217644   0.060   1.113  11.141  0.3789 -0.6807  0.1560
 3532SOL     OW17645   0.245   8.543   4.011 -0.1037 -0.2020  0.5765
 3532SOL    HW117646   0.297   8.490   3.951  0.0473  0.5887  0.0097
 3532SOL    HW217647   0.310   8.584   4.068 -0.2987 -2.3016  2.4789
 3533SOL     OW17648   2.861   0.417   7.002  0.0735 -0.1452  0.2050
 3533SOL    HW117649   2.956   0.424   7.006  0.0691 -0.6810  2.7999
 3533SOL    HW217650   2.845   0.336   6.953  0.9904 -0.5848  0.6178
 3534SOL     OW17651   1.365   2.147   4.731  0.2625 -0.3624 -0.1279
 3534SOL    HW117652   1.293   2.193   4.773  1.8415 -0.1466  2.6148
 3534SOL    HW217653   1.436   2.211   4.728  1.4071 -1.5456  0.5211
 3535SOL     OW17654  10.054   6.115  11.156  0.1821 -0.3743 -0.5263
 3535SOL    HW117655  10.048   6.127  11.251  1.1131  0.7596 -0.5899
 3535SOL    HW217656  10.073   6.022  11.145 -1.7140 -0.9148  0.2926
 3536SOL     OW17657   5.245   8.613  10.683 -1.4944 -0.5624 -0.2308
 3536SOL    HW117658   5.243   8.596  10.777 -2.0254 -0.4524 -0.2196
 3536SOL    HW217659   5.153   8.608  10.656 -1.4864  0.6250 -0.5208
 3537SOL     OW17660  10.080   0.644   2.177  0.5704  0.0573  0.1116
 3537SOL    HW117661  10.027   0.634   2.256  0.2170  0.8545 -0.0174
 3537SOL    HW217662  10.033   0.593   2.111  0.1326  0.4960  0.0803
 3538SOL     OW17663   3.218  10.159   4.755 -0.4956  0.0861 -0.2149
 3538SOL    HW117664   3.155  10.105   4.709 -1.0459  0.2077  0.3771
 3538SOL    HW217665   3.187  10.159   4.846 -0.0449  0.7246 -0.0564
 3539SOL     OW17666   5.387   3.048   0.975  0.2492  0.3286  0.2656
 3539SOL    HW117667   5.448   2.974   0.973  1.8437  1.6036 -0.2014
 3539SOL    HW217668   5.442   3.125   0.961 -1.4859  1.5420 -0.1988
 3540SOL     OW17669   1.084   1.104   9.026  0.1055  0.4197 -0.1292
 3540SOL    HW117670   1.090   1.009   9.015  0.0853  0.4234 -0.1738
 3540SOL    HW217671   1.152   1.139   8.968 -0.8082  0.4971 -1.1894
 3541SOL     OW17672   8.318   0.779   3.137 -0.5933 -0.1432 -0.0766
 3541SOL    HW117673   8.274   0.864   3.144 -1.3230 -0.5523  0.4306
 3541SOL    HW217674   8.249   0.718   3.112 -0.1111 -0.6241 -0.2513
 3542SOL     OW17675  11.448   5.986   8.293 -0.3428  0.1319  0.7326
 3542SOL    HW117676  11.521   5.935   8.327  1.0402  2.2194  1.0718
 3542SOL    HW217677  11.476   6.011   8.205 -1.2414 -0.1178  0.3652
 3543SOL     OW17678   4.399   2.164   9.602 -0.1615 -0.1045  0.3275
 3543SOL    HW117679   4.473   2.104   9.602  0.8128  0.8740 -2.9770
 3543SOL    HW217680   4.321   2.108   9.602  0.6266 -1.2162  1.3932
 3544SOL     OW17681   7.866  11.044   5.969 -0.5217  0.4094  0.0410
 3544SOL    HW117682   7.886  11.098   5.892  0.9884 -1.4383 -0.9388
 3544SOL    HW217683   7.812  10.973   5.934 -1.6168  0.6679  1.1260
 3545SOL     OW17684   6.433   9.677   6.347  0.1288  0.3719  0.4709
 3545SOL    HW117685   6.358   9.679   6.406  0.5958  0.5577  1.0586
 3545SOL    HW217686   6.509   9.667   6.404  0.4707 -1.1443 -0.1836
 3546SOL     OW17687   1.145  10.446   5.377 -0.0232  0.5565 -0.1282
 3546SOL    HW117688   1.136  10.451   5.282  0.0047  2.4334 -0.0663
 3546SOL    HW217689   1.238  10.433   5.392 -0.0905 -0.2297 -0.3604
 3547SOL     OW17690   2.205   7.381  10.674  0.3150 -0.7519  0.5837
 3547SOL    HW117691   2.137   7.442  10.702 -0.0967 -0.5446 -0.7719
 3547SOL    HW217692   2.254   7.361  10.754  0.4408  1.3309  1.0741
 3548SOL     OW17693  11.748   4.512   5.481  0.1291 -0.1569  0.2828
 3548SOL    HW117694  11.752   4.549   5.570  0.3406  0.2843  0.0954
 3548SOL    HW217695  11.698   4.431   5.491  1.8844 -1.2127  1.1887
 3549SOL     OW17696   0.675   4.438   1.739 -0.1960 -0.2206 -0.1765
 3549SOL    HW117697   0.706   4.364   1.686 -0.3103  1.5703 -2.9352
 3549SOL    HW217698   0.582   4.446   1.718 -0.0847  0.9659 -0.3090
 3550SOL     OW17699   7.858  12.071   2.212 -0.1073  0.0592 -0.1904
 3550SOL    HW117700   7.807  12.048   2.135  0.5101 -1.3769 -0.2165
 3550SOL    HW217701   7.895  11.988   2.242  0.4446  0.7273  1.0933
 3551SOL     OW17702   8.275   7.669  10.344  0.2034 -0.1719  0.2060
 3551SOL    HW117703   8.347   7.619  10.308  0.0364  0.9634 -1.8439
 3551SOL    HW217704   8.202   7.607  10.350  0.3616 -0.5019 -1.0636
 3552SOL     OW17705  11.134  12.370   9.276 -0.5788 -0.1697 -0.3087
 3552SOL    HW117706  11.203  12.367   9.210 -0.7999 -0.8596 -0.5114
 3552SOL    HW217707  11.157  12.302   9.339 -1.1514 -0.5037 -0.4560
 3553SOL     OW17708  11.492  10.889  10.678 -0.0242 -0.2101 -0.7565
 3553SOL    HW117709  11.410  10.914  10.636 -1.8472 -0.3383  2.3786
 3553SOL    HW217710  11.539  10.972  10.690 -0.1259 -0.0066 -1.7164
 3554SOL     OW17711  10.089   7.138   3.267  0.1824 -0.3462  0.2889
 3554SOL    HW117712  10.096   7.042   3.268  1.3643 -0.2925 -0.2331
 3554SOL    HW217713  10.090   7.162   3.359 -0.3405 -0.8476  0.4322
 3555SOL     OW17714  12.206   3.460   2.595  0.5726 -0.3457  0.2487
 3555SOL    HW117715  12.126   3.442   2.546  0.0741  0.6917  0.6420
 3555SOL    HW217716  12.242   3.374   2.616  0.2397 -0.8182 -1.0142
 3556SOL     OW17717   1.790   2.329   3.981  0.0389 -0.1059  0.3672
 3556SOL    HW117718   1.820   2.420   3.992 -0.3633  0.5222 -2.8111
 3556SOL    HW217719   1.702   2.329   4.020 -0.6449  1.3922 -1.0278
 3557SOL     OW17720   1.163  10.115   6.248  0.4692 -0.2205  0.1640
 3557SOL    HW117721   1.189  10.185   6.187 -1.1439  0.3354  0.0546
 3557SOL    HW217722   1.074  10.092   6.220  1.1217 -2.6903 -0.1009
 3558SOL     OW17723  12.501   7.328   1.434 -0.0707  0.4040 -0.1738
 3558SOL    HW117724  12.506   7.346   1.527  0.5036 -0.2283 -0.0739
 3558SOL    HW217725  12.426   7.270   1.424  1.0993 -1.2185  0.1882
 3559SOL     OW17726   3.956  11.732   2.792  0.0014 -0.5551  0.1285
 3559SOL    HW117727   3.926  11.641   2.796  1.0451 -0.8627  1.9518
 3559SOL    HW217728   3.889  11.783   2.836 -0.2672 -0.5202 -0.3142
 3560SOL     OW17729  10.686  10.852  10.850  0.3787  0.1439 -0.3038
 3560SOL    HW117730  10.728  10.938  10.848 -0.7170  0.7142  0.1726
 3560SOL    HW217731  10.611  10.861  10.791 -0.6442  0.0151  0.9583
 3561SOL     OW17732   0.139  10.407   1.734 -0.0177 -0.6267 -0.7840
 3561SOL    HW117733   0.064  10.364   1.776 -0.4165  0.3708 -0.4542
 3561SOL    HW217734   0.110  10.497   1.720  2.5237  1.1072  3.2800
 3562SOL     OW17735   2.718   2.292   8.580 -0.2767  0.3051  0.2597
 3562SOL    HW117736   2.807   2.318   8.605 -1.0170  4.6461 -0.8006
 3562SOL    HW217737   2.729   2.252   8.493  0.8152 -2.0625  1.3853
 3563SOL     OW17738   4.105  10.338   0.718 -0.5097  0.9742 -0.5424
 3563SOL    HW117739   4.152  10.343   0.635  0.3696 -0.0835 -0.1220
 3563SOL    HW217740   4.038  10.272   0.703 -0.3363  0.7671 -0.4029
 3564SOL     OW17741   2.134   0.872   9.548  0.4436  0.2846 -0.4273
 3564SOL    HW117742   2.040   0.894   9.544  0.2105 -0.5585  0.2106
 3564SOL    HW217743   2.173   0.923   9.477 -0.7351 -0.5549 -1.7228
 3565SOL     OW17744  11.853  12.041   4.765  0.4087 -0.5695  0.1428
 3565SOL    HW117745  11.777  12.001   4.724 -1.1059  1.7072  0.5591
 3565SOL    HW217746  11.902  11.968   4.802 -1.3414 -2.1322 -0.4911
 3566SOL     OW17747   1.934   6.657   8.250  0.1926  0.9384 -0.0532
 3566SOL    HW117748   1.940   6.681   8.158  1.1252  0.8513 -0.0263
 3566SOL    HW217749   1.992   6.581   8.258  1.0058  1.6323  0.8280
 3567SOL     OW17750   7.533   0.438   2.843 -0.2657 -0.2106 -0.0909
 3567SOL    HW117751   7.558   0.481   2.924 -0.8534  0.2271 -0.1332
 3567SOL    HW217752   7.544   0.505   2.775  0.3199 -0.6021 -0.3946
 3568SOL     OW17753   3.396   8.105   2.146 -0.8077 -0.2636 -0.1683
 3568SOL    HW117754   3.458   8.165   2.105 -0.4482  0.3783  1.2494
 3568SOL    HW217755   3.414   8.020   2.105  1.0275 -0.1017  0.1956
 3569SOL     OW17756   5.151   0.752   2.490  0.1908  0.2005  0.8090
 3569SOL    HW117757   5.200   0.672   2.469  1.9231  1.1330  1.0890
 3569SOL    HW217758   5.182   0.816   2.426  0.3265  1.1827  1.8241
 3570SOL     OW17759   5.069   5.926   3.627 -0.0091 -0.2383 -0.0700
 3570SOL    HW117760   5.147   5.907   3.575  2.6211  1.4312  2.9492
 3570SOL    HW217761   5.055   5.847   3.679  0.1642 -0.2498 -0.0409
 3571SOL     OW17762   1.540   0.929   8.027 -0.1030  0.0429 -0.0026
 3571SOL    HW117763   1.633   0.940   8.006  0.0102  2.2027  1.3268
 3571SOL    HW217764   1.498   1.008   7.993 -0.9014  0.6082  2.1141
 3572SOL     OW17765   8.471  10.988   3.536 -0.0603 -0.2300 -0.0139
 3572SOL    HW117766   8.408  11.043   3.490 -2.1564 -0.6880  2.0351
 3572SOL    HW217767   8.438  10.899   3.523  0.3474 -0.5132  0.8016
 3573SOL     OW17768   8.580  11.883   8.956 -0.2128  0.2627 -0.8029
 3573SOL    HW117769   8.649  11.948   8.970  0.7893 -0.7139 -1.1187
 3573SOL    HW217770   8.579  11.831   9.036  0.0326 -0.2925 -1.1595
 3574SOL     OW17771  11.550   4.530   2.784  0.4522 -0.3638  0.1222
 3574SOL    HW117772  11.518   4.474   2.854 -1.4999  0.0960 -0.3303
 3574SOL    HW217773  11.615   4.586   2.825  1.4988 -2.0530  0.8705
 3575SOL     OW17774  10.633  10.634   8.702  0.3159  0.1388 -0.0261
 3575SOL    HW117775  10.550  10.681   8.710 -0.2706 -0.7368 -0.6794
 3575SOL    HW217776  10.697  10.690   8.746 -0.6062  0.8642  0.4352
 3576SOL     OW17777   5.033   6.823   6.847 -0.1878 -0.6475 -0.3627
 3576SOL    HW117778   5.019   6.821   6.942  0.4409 -1.2359 -0.2828
 3576SOL    HW217779   4.961   6.771   6.811 -0.3356 -0.5559 -0.2006
 3577SOL     OW17780   5.549   1.966   7.260 -0.1413  0.0438 -0.4830
 3577SOL    HW117781   5.636   1.977   7.223  0.0613  2.7158  0.5913
 3577SOL    HW217782   5.499   1.919   7.192  1.9082 -0.9777 -1.3562
 3578SOL     OW17783  10.378   0.476   8.918  0.0210  0.7767 -0.0602
 3578SOL    HW117784  10.291   0.501   8.886  0.0082 -0.3112 -0.9518
 3578SOL    HW217785  10.360   0.421   8.994 -0.2380 -1.4497 -1.6208
 3579SOL     OW17786  10.749   2.675  11.244 -0.3225  0.0824  0.1479
 3579SOL    HW117787  10.697   2.658  11.165 -0.1664 -0.2565  0.1148
 3579SOL    HW217788  10.794   2.592  11.261  0.1342  0.3415  0.2311
 3580SOL     OW17789   6.310   9.370   8.302  0.0997  0.7194  0.3356
 3580SOL    HW117790   6.340   9.383   8.391  2.5727 -1.4103 -0.0688
 3580SOL    HW217791   6.384   9.394   8.247 -0.4840 -0.3614 -1.0031
 3581SOL     OW17792  10.902   6.960   9.425 -0.0444 -0.3393 -0.1051
 3581SOL    HW117793  10.911   6.962   9.520  2.1537  0.9389 -0.2941
 3581SOL    HW217794  10.807   6.950   9.411 -0.4967  0.1186  2.1895
 3582SOL     OW17795   4.850   1.946  12.041  0.1350  0.2548 -0.5788
 3582SOL    HW117796   4.849   1.854  12.016 -2.6457  0.4171 -1.4543
 3582SOL    HW217797   4.826   1.947  12.133 -0.3312  0.1033 -0.6962
 3583SOL     OW17798   2.409  10.033   6.216  0.6129  0.3825 -0.6434
 3583SOL    HW117799   2.450   9.947   6.206 -0.1768  0.0702 -1.2819
 3583SOL    HW217800   2.471  10.093   6.174  1.7979  0.3337  0.9373
 3584SOL     OW17801   3.200  10.224   8.334  0.0678 -0.4965 -0.2996
 3584SOL    HW117802   3.267  10.184   8.278 -1.3608 -0.7269 -1.9313
 3584SOL    HW217803   3.223  10.317   8.336  1.3587 -0.8026  0.5655
 3585SOL     OW17804   3.705   1.507   4.782  0.6017  0.1148  0.2352
 3585SOL    HW117805   3.788   1.521   4.737 -0.4925  0.4457 -1.7666
 3585SOL    HW217806   3.687   1.590   4.825  0.6622  0.4936 -0.4568
 3586SOL     OW17807   3.546   5.421   0.141 -0.0322  0.1417 -0.0636
 3586SOL    HW117808   3.482   5.475   0.188 -0.8533 -0.8571 -0.0089
 3586SOL    HW217809   3.614   5.483   0.114  0.8916  0.6750  3.0985
 3587SOL     OW17810   7.454   7.983  10.626 -0.2151  0.0587  0.0878
 3587SOL    HW117811   7.506   8.035  10.565 -1.1293  3.6144  2.0718
 3587SOL    HW217812   7.501   7.990  10.709 -2.4587  1.2493  1.3405
 3588SOL     OW17813  10.558   8.050  10.626 -0.5976 -0.6421  0.2073
 3588SOL    HW117814  10.646   8.083  10.641 -0.7650 -0.1858  0.1854
 3588SOL    HW217815  10.504   8.092  10.693 -0.8515 -0.6886  0.0366
 3589SOL     OW17816  10.158   4.144   3.265  0.3189 -0.1153  0.2620
 3589SOL    HW117817  10.142   4.058   3.303 -1.8974 -0.2664 -0.9097
 3589SOL    HW217818  10.166   4.202   3.341 -0.5458 -0.9738  1.0300
 3590SOL     OW17819   7.106   3.094   1.781  0.4611 -0.4094  0.1259
 3590SOL    HW117820   7.066   3.180   1.764 -0.0574 -0.4454  1.1004
 3590SOL    HW217821   7.191   3.099   1.737 -0.8868 -0.6454 -2.7294
 3591SOL     OW17822   5.374   0.291   3.654 -0.0697 -0.1891  0.2613
 3591SOL    HW117823   5.449   0.310   3.597 -0.4780  0.7703  0.0232
 3591SOL    HW217824   5.395   0.335   3.737  0.0469 -0.6937  0.4987
 3592SOL     OW17825  10.114  11.619   6.203  0.1854  0.6327 -0.3247
 3592SOL    HW117826  10.150  11.531   6.211 -1.3544  0.0921  1.1144
 3592SOL    HW217827  10.189  11.673   6.177  1.4303 -0.8789 -0.0140
 3593SOL     OW17828   3.631  10.109   6.520 -0.3704  0.0166 -0.0824
 3593SOL    HW117829   3.583  10.168   6.578  1.0955  1.5702 -0.3400
 3593SOL    HW217830   3.657  10.036   6.576 -1.6538 -0.0817  0.4225
 3594SOL     OW17831   1.785   2.496   8.450  0.5646  0.2095  0.0842
 3594SOL    HW117832   1.699   2.505   8.490  0.1167  0.8147 -0.9875
 3594SOL    HW217833   1.772   2.519   8.358  1.7751 -0.1494 -0.1989
 3595SOL     OW17834   3.693   5.413   2.218 -0.2532 -0.0006 -0.2527
 3595SOL    HW117835   3.629   5.469   2.262 -1.5269 -1.6307  0.1118
 3595SOL    HW217836   3.778   5.452   2.236 -0.9379  0.6853  1.6649
 3596SOL     OW17837   1.184  10.879   1.188 -0.6238  0.0678  0.7304
 3596SOL    HW117838   1.269  10.910   1.156 -0.5061  0.5907  1.5167
 3596SOL    HW217839   1.123  10.900   1.118  0.2126 -2.4063 -0.8878
 3597SOL     OW17840   2.429   0.680   1.862 -0.3403 -0.0732 -0.7609
 3597SOL    HW117841   2.510   0.631   1.852  0.1988  0.5921  0.1162
 3597SOL    HW217842   2.366   0.635   1.806  0.2242 -1.5344 -0.2888
 3598SOL     OW17843   7.693   7.489   3.072 -0.1054  0.8037 -0.1265
 3598SOL    HW117844   7.766   7.515   3.017  0.7314 -0.7060  0.2017
 3598SOL    HW217845   7.732   7.477   3.159 -0.4337 -1.3062 -0.2284
 3599SOL     OW17846  12.458  10.926   8.031 -0.5623  0.3712 -0.3396
 3599SOL    HW117847  12.439  10.974   8.112 -1.5843 -0.2880 -0.1649
 3599SOL    HW217848  12.553  10.916   8.031 -0.4022  1.6850  0.0126
 3600SOL     OW17849   1.704   6.596   8.358 -0.4110  0.4677 -0.3632
 3600SOL    HW117850   1.788   6.634   8.334 -0.0914  0.3993  0.6240
 3600SOL    HW217851   1.673   6.648   8.432  0.4855 -1.6982  1.6696
 3601SOL     OW17852   1.062   3.110   7.952  0.0493  0.0510 -0.3991
 3601SOL    HW117853   0.999   3.151   7.892 -1.7035 -0.6117  0.9041
 3601SOL    HW217854   1.082   3.178   8.016  0.8048  0.3084 -0.8977
 3602SOL     OW17855  10.824   2.674   9.182  0.4033  0.1924  0.5508
 3602SOL    HW117856  10.911   2.673   9.143  0.0402 -0.2664 -0.2763
 3602SOL    HW217857  10.767   2.706   9.112  0.0132  1.2462  1.3272
 3603SOL     OW17858  11.995  10.039   6.197  0.4273  0.5346 -0.1292
 3603SOL    HW117859  12.032   9.950   6.200 -0.9235 -0.0548 -0.4318
 3603SOL    HW217860  12.041  10.086   6.267 -1.0295 -1.3002  2.2295
 3604SOL     OW17861   6.073   5.408   2.595 -0.4320 -0.2228  0.2772
 3604SOL    HW117862   6.033   5.344   2.536  0.8558  0.3685 -1.3179
 3604SOL    HW217863   6.129   5.355   2.653 -1.8448 -0.8298  1.1417
 3605SOL     OW17864  12.219   4.359   7.256  0.0302  0.2575  0.0799
 3605SOL    HW117865  12.171   4.298   7.200  0.8781  1.6868 -2.3563
 3605SOL    HW217866  12.226   4.439   7.204  2.9548  0.8924  1.2457
 3606SOL     OW17867   7.416  12.348   4.050  0.8267 -0.3390 -0.8250
 3606SOL    HW117868   7.487  12.300   4.006 -0.1944 -1.0177 -1.7668
 3606SOL    HW217869   7.402  12.300   4.131  1.2841 -0.3262 -0.7307
 3607SOL     OW17870   7.242   8.751   1.195 -0.1034 -0.0418  0.0421
 3607SOL    HW117871   7.231   8.657   1.181  1.3113  0.0118 -1.7932
 3607SOL    HW217872   7.195   8.769   1.276 -1.3232 -2.1263 -0.1446
 3608SOL     OW17873   0.147   1.072   1.759  0.3807  0.9135  0.4352
 3608SOL    HW117874   0.070   1.072   1.703 -0.2266 -0.6857  1.2027
 3608SOL    HW217875   0.216   1.034   1.705 -0.4096 -1.4210  0.9229
 3609SOL     OW17876   0.646   3.554   9.692 -0.0651  0.0272 -0.5903
 3609SOL    HW117877   0.615   3.464   9.700  0.2894 -0.1064 -0.7380
 3609SOL    HW217878   0.662   3.566   9.599  0.9036 -0.0968 -0.4442
 3610SOL     OW17879   5.144   9.846   1.640 -0.0942 -0.2012 -0.2252
 3610SOL    HW117880   5.130   9.755   1.664  1.2736 -0.3381  0.1065
 3610SOL    HW217881   5.239   9.857   1.641 -0.2373  1.1912 -0.4038
 3611SOL     OW17882   0.943   1.621   7.916 -0.4140  0.0769  0.2085
 3611SOL    HW117883   0.882   1.548   7.903 -0.4998  0.1575  0.1501
 3611SOL    HW217884   0.895   1.683   7.972 -0.1345 -0.1589  0.7093
 3612SOL     OW17885   1.519   3.819   1.188 -0.1679  0.7116 -0.1972
 3612SOL    HW117886   1.554   3.849   1.105  2.0526  0.5781  0.6226
 3612SOL    HW217887   1.562   3.736   1.205 -1.5109  0.1215  0.5242
 3613SOL     OW17888  11.236   8.485   6.117  0.1735 -0.0552  0.2196
 3613SOL    HW117889  11.259   8.410   6.172 -0.2943 -1.0338 -0.8736
 3613SOL    HW217890  11.308   8.491   6.053 -1.0917 -1.3697 -1.4408
 3614SOL     OW17891   1.824   4.640  11.410 -0.6884 -0.3592 -0.2240
 3614SOL    HW117892   1.888   4.569  11.404 -1.0862 -0.8024  0.7055
 3614SOL    HW217893   1.813   4.670  11.320  2.1487  0.9130 -0.2530
 3615SOL     OW17894   1.122   6.396   9.593  0.3228 -0.1754 -0.0218
 3615SOL    HW117895   1.107   6.368   9.503 -0.6421 -0.2848  0.1601
 3615SOL    HW217896   1.151   6.487   9.586 -1.1104  0.2729 -0.3809
 3616SOL     OW17897   5.034   0.545   1.491 -0.2018  0.1285 -0.0203
 3616SOL    HW117898   4.963   0.608   1.476  0.6248  1.1639  0.2381
 3616SOL    HW217899   4.998   0.483   1.554 -0.2498  1.8645  1.8076
 3617SOL     OW17900   5.637   5.128   2.609 -0.0045  0.3572  0.0863
 3617SOL    HW117901   5.701   5.175   2.662 -0.0087  0.6002 -0.1207
 3617SOL    HW217902   5.667   5.142   2.519  0.8038 -1.1947  0.0693
 3618SOL     OW17903   8.145  10.436  10.138  0.1705 -0.3541 -0.1574
 3618SOL    HW117904   8.124  10.376  10.066  0.6317 -0.0491 -0.5413
 3618SOL    HW217905   8.231  10.408  10.168  0.9270  0.8822 -1.1272
 3619SOL     OW17906   5.410   0.546   8.053 -0.0183  0.2229  0.3221
 3619SOL    HW117907   5.495   0.580   8.081  0.7179 -1.4518  0.1976
 3619SOL    HW217908   5.357   0.546   8.133 -0.1887  1.9732  0.2534
 3620SOL     OW17909   9.423   8.483   2.460 -0.3624 -0.7131  0.2542
 3620SOL    HW117910   9.431   8.392   2.431 -2.7416 -0.9310  0.0210
 3620SOL    HW217911   9.456   8.534   2.386 -0.0939 -1.3709 -0.0935
 3621SOL     OW17912   8.213   7.663   1.870 -0.5132  0.0954 -0.6301
 3621SOL    HW117913   8.228   7.752   1.837 -0.0172  0.4106  0.3964
 3621SOL    HW217914   8.146   7.674   1.937  0.4346 -0.0933  0.3764
 3622SOL     OW17915  12.427   8.855   8.134 -0.0419 -0.2817 -0.0677
 3622SOL    HW117916  12.466   8.777   8.093 -0.1790  0.2146 -1.1699
 3622SOL    HW217917  12.349   8.872   8.083  0.9149  1.6305 -0.9893
 3623SOL     OW17918   5.992   3.091   0.591 -0.0559 -0.0780 -0.0578
 3623SOL    HW117919   6.015   3.123   0.678  1.5434 -2.0328  0.3221
 3623SOL    HW217920   5.994   3.169   0.536  2.6576  0.7299  0.9925
 3624SOL     OW17921   3.388   9.727   6.566 -0.5856  0.1567  0.5073
 3624SOL    HW117922   3.332   9.755   6.494 -0.5205 -0.5431  0.1766
 3624SOL    HW217923   3.451   9.667   6.525  2.8684  3.6835  0.0257
 3625SOL     OW17924   8.349   2.152   5.283  0.1783 -0.6445  0.0095
 3625SOL    HW117925   8.284   2.082   5.291 -0.1092 -0.5067 -0.9878
 3625SOL    HW217926   8.421   2.124   5.339 -0.2031 -1.4263  0.1250
 3626SOL     OW17927   0.865   6.974   2.116  0.0030 -0.0097 -0.1808
 3626SOL    HW117928   0.942   7.002   2.067 -0.1062  0.5459 -0.0339
 3626SOL    HW217929   0.802   6.948   2.048  0.1978 -0.1467 -0.3098
 3627SOL     OW17930   7.056   0.458  12.269 -0.4460  0.2992 -0.2994
 3627SOL    HW117931   7.076   0.528  12.207  2.0682 -0.4085 -0.4146
 3627SOL    HW217932   6.999   0.498  12.334  0.4652  2.3125 -0.6762
 3628SOL     OW17933  10.295   1.783   7.135  0.0543 -0.2925  0.5027
 3628SOL    HW117934  10.385   1.802   7.160  0.1493 -2.1414  1.7828
 3628SOL    HW217935  10.304   1.718   7.065 -0.3010  0.3815 -0.1868
 3629SOL     OW17936   7.903   4.333   6.663 -0.3742 -0.0260 -0.2812
 3629SOL    HW117937   7.995   4.326   6.688 -0.7551 -0.8475  0.9988
 3629SOL    HW217938   7.885   4.427   6.668  0.6285  0.2683 -1.5573
 3630SOL     OW17939  10.451   1.721   5.827  0.2030 -0.4199 -0.4356
 3630SOL    HW117940  10.366   1.754   5.797  0.4172  1.1729  0.5898
 3630SOL    HW217941  10.515   1.783   5.792  0.7695 -0.5293  0.3827
 3631SOL     OW17942   3.442   7.396  10.331  0.7740 -0.5526  0.5867
 3631SOL    HW117943   3.528   7.438  10.342  1.0025 -0.5708 -0.9955
 3631SOL    HW217944   3.463   7.303  10.325  0.5021 -0.6829  1.4562
 3632SOL     OW17945  10.923  10.928   0.082  0.0942  0.5522 -0.9478
 3632SOL    HW117946  11.007  10.970   0.063  0.9188 -0.8923 -0.6044
 3632SOL    HW217947  10.904  10.952   0.173  0.1119  0.9089 -1.0371
 3633SOL     OW17948  10.939   9.202  10.518 -0.3416 -0.0111  0.6454
 3633SOL    HW117949  10.931   9.230  10.609  0.4513 -2.1967  1.4562
 3633SOL    HW217950  11.033   9.204  10.500 -0.4228 -0.3687  0.1398
 3634SOL     OW17951   6.616  10.874   1.015 -0.4504  0.3929 -0.2343
 3634SOL    HW117952   6.659  10.798   1.053  0.2665  1.4985  1.2608
 3634SOL    HW217953   6.566  10.912   1.088  1.0695  2.6542 -0.2754
 3635SOL     OW17954  12.488   1.896  10.800 -0.2369  0.5743  0.4071
 3635SOL    HW117955  12.564   1.921  10.748 -0.0586 -1.0266 -0.1418
 3635SOL    HW217956  12.419   1.881  10.736  0.4013 -2.9240  0.3804
 3636SOL     OW17957   6.494   7.941  11.948 -0.0900 -0.0451 -0.5089
 3636SOL    HW117958   6.415   7.973  11.992 -1.3021 -1.7380 -1.3430
 3636SOL    HW217959   6.503   7.850  11.977  1.0342 -0.1642 -1.1569
 3637SOL     OW17960   8.107   1.577  11.487  0.3601  0.7784  0.5162
 3637SOL    HW117961   8.172   1.511  11.462 -1.6088 -1.1591  0.1764
 3637SOL    HW217962   8.073   1.610  11.403 -1.6594 -0.9767  0.5640
 3638SOL     OW17963   2.167  12.545   6.096 -0.0889 -0.4897 -0.3505
 3638SOL    HW117964   2.137  12.573   6.010  1.4853  0.8951 -0.4999
 3638SOL    HW217965   2.150  12.619   6.153  2.1372  0.0353 -0.2743
 3639SOL     OW17966   5.641   1.636   6.896  0.0806  0.3602 -0.0223
 3639SOL    HW117967   5.705   1.568   6.872 -0.2812  0.2018 -0.5413
 3639SOL    HW217968   5.675   1.672   6.978 -0.6437 -1.6860  1.2735
 3640SOL     OW17969   1.320   1.354  11.691 -0.3401 -0.7704  0.4541
 3640SOL    HW117970   1.244   1.295  11.691  0.2508 -1.5711 -0.4119
 3640SOL    HW217971   1.396   1.295  11.692  0.2735 -0.0578 -0.9171
 3641SOL     OW17972   9.543  10.309   6.207  0.4779  0.2978  0.1553
 3641SOL    HW117973   9.485  10.288   6.134  1.9843  0.2556 -1.0806
 3641SOL    HW217974   9.532  10.237   6.268  1.4705 -1.3278 -1.4904
 3642SOL     OW17975   6.276   2.650   3.251  0.0986 -0.1336  0.1784
 3642SOL    HW117976   6.183   2.667   3.264 -0.0872 -0.2507 -0.8736
 3642SOL    HW217977   6.313   2.648   3.339 -1.1404 -1.5095  0.7181
 3643SOL     OW17978   3.906   4.215  12.486 -0.4084  0.0419 -0.3893
 3643SOL    HW117979   3.992   4.255  12.480 -0.4530  0.0258 -1.3987
 3643SOL    HW217980   3.922   4.126  12.517 -0.3034  0.7687  1.7981
 3644SOL     OW17981   1.592   6.018   5.407  0.7478 -0.6045 -0.7065
 3644SOL    HW117982   1.644   6.080   5.355  2.6207 -1.9504 -0.5475
 3644SOL    HW217983   1.657   5.964   5.451 -0.8155 -2.4809 -0.5793
 3645SOL     OW17984   9.521   4.836   1.537  0.7917 -0.4513 -0.0203
 3645SOL    HW117985   9.574   4.802   1.464  0.7834 -1.5281  0.4623
 3645SOL    HW217986   9.519   4.765   1.600 -0.6039 -0.1441  0.3079
 3646SOL     OW17987   7.826  10.843   0.272  0.1550  0.1155 -0.1350
 3646SOL    HW117988   7.741  10.867   0.311 -0.6498  1.4518 -2.5463
 3646SOL    HW217989   7.875  10.925   0.269  2.4783 -0.9373  3.0399
 3647SOL     OW17990   0.832  12.043   5.939  0.3526  0.0232  0.6030
 3647SOL    HW117991   0.865  12.093   5.864  0.6802  1.0901  1.4266
 3647SOL    HW217992   0.751  12.003   5.907  0.1346  1.0000 -0.1199
 3648SOL     OW17993   8.184   5.154   7.696  0.5460  0.0473 -0.1098
 3648SOL    HW117994   8.273   5.147   7.730  0.3676  0.4661  0.4610
 3648SOL    HW217995   8.182   5.238   7.652  0.3319  0.2016  0.1915
 3649SOL     OW17996   1.308   3.664  11.422 -0.0378  0.6448 -0.1302
 3649SOL    HW117997   1.248   3.594  11.451  1.1104 -0.4276 -0.2634
 3649SOL    HW217998   1.367   3.678  11.496  1.5357 -0.5766 -1.0841
 3650SOL     OW17999   9.913   7.932  12.380  0.0500  0.2275 -0.0193
 3650SOL    HW118000   9.869   7.996  12.435 -0.4630 -0.2182  0.1007
 3650SOL    HW218001   9.843   7.876  12.348  0.6907 -1.6868  1.7081
 3651SOL     OW18002   3.414   0.072   5.038  0.1762 -0.0583 -0.3530
 3651SOL    HW118003   3.423   0.091   5.132  1.0195 -0.2579 -0.3906
 3651SOL    HW218004   3.335   0.018   5.032 -0.3427  0.6152  0.1428
 3652SOL     OW18005   9.069  12.204   3.419 -0.2996  0.5781 -0.0968
 3652SOL    HW118006   8.980  12.219   3.450  0.1970 -0.0340  1.7888
 3652SOL    HW218007   9.092  12.117   3.454  1.5972  1.4256  0.9440
 3653SOL     OW18008   0.606   4.611   4.594 -0.1092 -0.0001 -0.0196
 3653SOL    HW118009   0.534   4.621   4.656  0.2573 -1.8760  0.7733
 3653SOL    HW218010   0.658   4.539   4.629  1.4399  0.4574 -1.2696
 3654SOL     OW18011   3.603  11.177  10.622 -0.2691 -0.1721 -0.1902
 3654SOL    HW118012   3.560  11.262  10.633  0.3386  0.1694 -0.3947
 3654SOL    HW218013   3.662  11.189  10.547 -0.2957 -0.8240 -0.3276
 3655SOL     OW18014   8.194   1.824   4.132 -0.2264 -0.2437  0.0433
 3655SOL    HW118015   8.212   1.735   4.163  1.5108  0.5504  1.4956
 3655SOL    HW218016   8.277   1.870   4.142 -1.5721  2.1170  1.2998
 3656SOL     OW18017   4.366  10.795   8.871  0.2180 -0.3687  0.4054
 3656SOL    HW118018   4.404  10.868   8.919  0.7804 -0.7181  0.5049
 3656SOL    HW218019   4.296  10.834   8.818  0.6767  0.2741  0.2658
 3657SOL     OW18020   1.787   1.552   8.924 -0.0370 -0.0540  0.3666
 3657SOL    HW118021   1.849   1.612   8.883 -2.3973  1.1975 -1.6155
 3657SOL    HW218022   1.732   1.608   8.978  0.0874 -1.0346  1.5393
 3658SOL     OW18023   8.651   2.694   1.280  0.6397  0.4997  0.0999
 3658SOL    HW118024   8.717   2.626   1.263  0.9287  0.4747  1.2375
 3658SOL    HW218025   8.702   2.775   1.289  0.2951  0.8896 -1.2752
 3659SOL     OW18026  12.403   2.011   3.735  0.2444 -0.4298  0.1234
 3659SOL    HW118027  12.473   1.985   3.675 -0.1747 -1.5727  0.1026
 3659SOL    HW218028  12.435   1.987   3.822  0.3529  0.1070  0.2319
 3660SOL     OW18029   0.645   1.127  10.972 -0.3028  0.2102 -0.3056
 3660SOL    HW118030   0.590   1.067  11.023 -0.2629  0.0442 -0.4563
 3660SOL    HW218031   0.622   1.109  10.881 -0.9114  1.0199 -0.3240
 3661SOL     OW18032  10.625   4.643   7.717  0.4501  0.5377  0.5928
 3661SOL    HW118033  10.660   4.562   7.755 -1.7253 -0.9432 -0.3953
 3661SOL    HW218034  10.694   4.672   7.656  0.6731 -1.3935 -0.1304
 3662SOL     OW18035   4.160  12.458  10.730  0.2427 -0.4174  0.4677
 3662SOL    HW118036   4.098  12.452  10.803  0.9310 -0.1756  1.0747
 3662SOL    HW218037   4.122  12.524  10.672 -0.3228 -0.6310  0.5857
 3663SOL     OW18038   8.800   9.747   0.448 -0.3455 -0.1903  0.2310
 3663SOL    HW118039   8.713   9.722   0.477 -0.6573  0.4028 -0.1574
 3663SOL    HW218040   8.808   9.708   0.361 -0.4453  0.2176  0.0365
 3664SOL     OW18041   0.818   8.021  11.923 -0.3146  0.7166  0.0409
 3664SOL    HW118042   0.759   8.092  11.950 -5.3492 -2.2792 -1.7635
 3664SOL    HW218043   0.820   8.027  11.827 -0.1726 -1.0419 -0.0973
 3665SOL     OW18044   3.009  11.782  10.858  0.7969 -0.0134 -0.3883
 3665SOL    HW118045   3.019  11.730  10.779  0.0243 -1.8659  0.6680
 3665SOL    HW218046   3.097  11.817  10.874  1.1513 -0.2978 -1.5845
 3666SOL     OW18047  12.058  11.958  10.754  0.1361  0.1063 -0.0735
 3666SOL    HW118048  12.141  11.926  10.718  0.4232  0.6229  0.1264
 3666SOL    HW218049  11.997  11.953  10.680  0.9294  1.9746 -0.9181
 3667SOL     OW18050   7.976  10.628   7.053 -0.1054  0.1935  0.6035
 3667SOL    HW118051   7.983  10.532   7.054 -2.6412 -0.0625  0.6088
 3667SOL    HW218052   7.939  10.650   7.138 -1.3514  0.9494 -0.0963
 3668SOL     OW18053   9.448   6.830   0.180  0.3795  0.5884 -0.1240
 3668SOL    HW118054   9.527   6.791   0.216 -0.2433  0.9427  1.7246
 3668SOL    HW218055   9.475   6.917   0.150  0.7071  0.6888  0.4511
 3669SOL     OW18056   8.306  10.189   2.204 -0.5814 -0.0829 -0.4169
 3669SOL    HW118057   8.366  10.127   2.163  2.6814  0.7749  2.6353
 3669SOL    HW218058   8.252  10.135   2.262  0.2910 -0.4045  0.1066
 3670SOL     OW18059   1.837   5.384   6.636 -0.0193 -0.0873  0.2084
 3670SOL    HW118060   1.824   5.452   6.570 -1.0934 -0.5590 -0.0829
 3670SOL    HW218061   1.797   5.420   6.715  0.9074  0.3062  0.5161
 3671SOL     OW18062   5.460   5.147   2.794  0.0063  0.2362 -0.1403
 3671SOL    HW118063   5.525   5.142   2.724  1.6775 -2.4610  1.4315
 3671SOL    HW218064   5.382   5.106   2.757  0.1139  0.8632 -1.1110
 3672SOL     OW18065   7.147  12.004   8.875 -0.0480  0.2576  0.2001
 3672SOL    HW118066   7.148  11.911   8.850 -1.1035 -0.2889  2.0007
 3672SOL    HW218067   7.113  12.049   8.797  0.8049 -0.8045 -0.8274
 3673SOL     OW18068  11.918  12.077   3.646  0.5811 -0.0965  0.9595
 3673SOL    HW118069  11.920  12.158   3.595 -0.6301 -0.7862 -0.2561
 3673SOL    HW218070  11.933  12.008   3.581 -3.1974 -1.1698  1.0023
 3674SOL     OW18071   0.958   4.861   9.530 -0.0702 -0.6966 -0.4617
 3674SOL    HW118072   0.990   4.879   9.619  2.2054  0.1815 -1.3838
 3674SOL    HW218073   0.877   4.812   9.544  0.9617 -1.8916  2.1044
 3675SOL     OW18074   9.960   8.532  10.227  0.3319 -0.2301 -0.1724
 3675SOL    HW118075  10.042   8.502  10.187  1.5630  0.3974  1.7543
 3675SOL    HW218076   9.987   8.582  10.303 -1.8590  0.6002  0.1409
 3676SOL     OW18077   5.841   2.272   1.856 -0.1981  0.3146 -0.1757
 3676SOL    HW118078   5.878   2.184   1.850 -1.7061 -0.4018  0.2847
 3676SOL    HW218079   5.911   2.330   1.827  0.6082 -1.0868 -1.1754
 3677SOL     OW18080   6.821   3.055   5.917  0.4649 -0.2730 -0.2180
 3677SOL    HW118081   6.731   3.025   5.930  0.6099 -0.4678  0.3707
 3677SOL    HW218082   6.848   3.013   5.835 -0.9790  2.1910 -2.1221
 3678SOL     OW18083   9.313   3.449   1.908  0.1304 -0.2052 -0.0794
 3678SOL    HW118084   9.375   3.437   1.980 -1.1648 -2.7053  0.7255
 3678SOL    HW218085   9.255   3.520   1.937  1.0557  0.4326  0.2521
 3679SOL     OW18086   2.341   4.173   5.661 -0.4744  0.0816  0.3760
 3679SOL    HW118087   2.389   4.192   5.580  1.0286 -0.6274  1.0625
 3679SOL    HW218088   2.264   4.124   5.632  0.4996 -0.9492 -0.5639
 3680SOL     OW18089   4.296   3.442  11.221 -0.1973  0.7051  0.3016
 3680SOL    HW118090   4.243   3.364  11.231  0.0881  0.7144  2.2229
 3680SOL    HW218091   4.263   3.502  11.288  0.8121  1.5198  0.0922
 3681SOL     OW18092   0.637   1.219  11.642 -0.0358  0.7681 -0.3307
 3681SOL    HW118093   0.562   1.177  11.601  0.7480 -2.4154  1.2047
 3681SOL    HW218094   0.600   1.267  11.717 -0.6908  0.6032 -0.5423
 3682SOL     OW18095  10.512  11.009   2.751 -0.0643  0.6458 -0.2279
 3682SOL    HW118096  10.557  11.091   2.771  0.5422  0.2965 -0.1284
 3682SOL    HW218097  10.453  10.994   2.825 -1.5445  1.9165 -1.0965
 3683SOL     OW18098   6.244   5.686   3.435 -0.4352 -0.2967 -0.1978
 3683SOL    HW118099   6.338   5.672   3.446 -0.2672  1.8727  1.9008
 3683SOL    HW218100   6.206   5.659   3.519 -1.3409  1.2622 -0.0797
 3684SOL     OW18101  10.044  11.317   5.679 -0.6383  0.1997  0.1465
 3684SOL    HW118102  10.097  11.271   5.744 -1.3386  0.2640  0.7724
 3684SOL    HW218103  10.042  11.258   5.604 -0.6116 -0.3010  0.5333
 3685SOL     OW18104   9.916   2.553  10.620  0.5377  0.5218 -0.1435
 3685SOL    HW118105   9.990   2.492  10.613  0.3711  0.0466  1.7418
 3685SOL    HW218106   9.956   2.639  10.607  1.2739  0.2109 -0.0311
 3686SOL     OW18107   0.172   6.001   6.569 -0.1726 -0.1462  0.3436
 3686SOL    HW118108   0.081   6.028   6.567 -0.2804 -0.5277 -1.2802
 3686SOL    HW218109   0.170   5.905   6.573  0.1285 -0.2024 -0.5721
 3687SOL     OW18110   6.411   5.335   7.680  0.3043  0.5370  0.5990
 3687SOL    HW118111   6.429   5.360   7.589  0.5732  2.6303  1.1759
 3687SOL    HW218112   6.384   5.244   7.675 -0.4118  0.8172 -1.6831
 3688SOL     OW18113   1.496   6.498  11.068  0.9385  0.2208 -0.1465
 3688SOL    HW118114   1.482   6.563  10.999  1.7043  0.7085  0.1489
 3688SOL    HW218115   1.548   6.543  11.134 -1.8977  0.6053  2.0110
 3689SOL     OW18116   0.783  12.256   0.121 -0.5604  0.2142 -0.1670
 3689SOL    HW118117   0.815  12.290   0.037  1.2694 -0.9815 -0.0060
 3689SOL    HW218118   0.862  12.228   0.167 -1.7558 -1.9816  0.6976
 3690SOL     OW18119   6.236   8.849   2.332  0.1316 -0.5940  0.3577
 3690SOL    HW118120   6.304   8.879   2.392  0.7448 -0.5410 -0.3468
 3690SOL    HW218121   6.154   8.875   2.374  0.5944  1.3622  0.1728
 3691SOL     OW18122   9.364   5.490   4.619  0.0410 -0.4222 -0.8406
 3691SOL    HW118123   9.432   5.425   4.636  0.1857 -0.4347 -1.4218
 3691SOL    HW218124   9.385   5.562   4.678  0.4737 -0.4921 -0.8994
 3692SOL     OW18125   3.492   9.363  12.362  0.1998  0.0892  0.0608
 3692SOL    HW118126   3.480   9.437  12.302 -2.5458  0.5497  1.0220
 3692SOL    HW218127   3.426   9.377  12.429 -0.3595 -3.2065  0.3338
 3693SOL     OW18128   9.860  10.645   4.187 -0.0500 -0.3013 -0.1401
 3693SOL    HW118129   9.807  10.582   4.139  1.0502 -0.7622 -0.7679
 3693SOL    HW218130   9.815  10.653   4.272 -0.2720 -1.8519 -0.0738
 3694SOL     OW18131   1.591   9.233   8.366 -0.7738 -0.1683  0.5575
 3694SOL    HW118132   1.527   9.303   8.358  0.6612  1.3620  1.7836
 3694SOL    HW218133   1.547   9.168   8.422 -2.3148 -0.5775 -1.0183
 3695SOL     OW18134  10.750   9.480   5.156  0.1290  0.4760 -1.0824
 3695SOL    HW118135  10.728   9.399   5.202  2.7324 -0.1073 -0.7107
 3695SOL    HW218136  10.705   9.472   5.072 -1.2356 -0.4198 -0.3064
 3696SOL     OW18137   0.969   2.215   1.791 -0.5387  0.0148 -0.3665
 3696SOL    HW118138   0.877   2.230   1.815 -0.5532  0.1159 -0.4849
 3696SOL    HW218139   0.972   2.230   1.696 -0.7336 -1.5481 -0.6584
 3697SOL     OW18140   0.074   6.963  12.281 -0.0314 -0.0049  0.2272
 3697SOL    HW118141   0.031   6.980  12.198  3.3144 -0.3642 -1.7515
 3697SOL    HW218142   0.057   7.041  12.334 -0.4785  1.1933 -1.5970
 3698SOL     OW18143   3.990   4.548  11.795 -0.3297 -0.5093 -0.5077
 3698SOL    HW118144   4.063   4.607  11.814 -0.5824 -0.1388 -0.6663
 3698SOL    HW218145   3.935   4.551  11.874 -0.1664 -0.8021 -0.3805
 3699SOL     OW18146   3.385   7.628   0.770  0.4771 -0.0289  0.3001
 3699SOL    HW118147   3.326   7.554   0.784  1.7355 -1.5947 -2.0771
 3699SOL    HW218148   3.423   7.645   0.856  0.3758 -2.3689  0.8693
 3700SOL     OW18149  10.952   9.348   6.245 -0.5171  0.4211  0.2691
 3700SOL    HW118150  10.945   9.438   6.275  0.0752  0.9167 -1.0021
 3700SOL    HW218151  10.957   9.296   6.325  0.2484  1.6030  1.0121
 3701SOL     OW18152   3.873  11.876   4.541 -0.0408  0.1907 -0.8150
 3701SOL    HW118153   3.898  11.966   4.560  1.9811 -0.2032 -1.3872
 3701SOL    HW218154   3.940  11.823   4.584 -1.9147 -1.1282  0.6258
 3702SOL     OW18155  10.574  12.032   4.804  0.2778 -0.5204  0.4274
 3702SOL    HW118156  10.557  12.110   4.857 -0.7103 -1.3026  1.3071
 3702SOL    HW218157  10.608  12.067   4.721  0.1099  0.8278  0.8913
 3703SOL     OW18158   6.725   1.839   6.668  0.1684 -0.1453  0.3437
 3703SOL    HW118159   6.683   1.770   6.720  0.5365  0.1027  0.9871
 3703SOL    HW218160   6.808   1.855   6.713  0.6211 -0.1076 -0.4822
 3704SOL     OW18161   4.544   1.699   5.350  0.3317  0.0609 -0.2309
 3704SOL    HW118162   4.461   1.651   5.344  0.6545 -0.4095 -1.0920
 3704SOL    HW218163   4.530   1.761   5.421 -1.3563  1.1199 -1.3780
 3705SOL     OW18164   0.707   7.373   6.370  0.1508  0.3426  0.6152
 3705SOL    HW118165   0.765   7.391   6.296 -0.5287 -0.6442 -0.2006
 3705SOL    HW218166   0.762   7.381   6.447  0.2372  4.5114  0.3438
 3706SOL     OW18167   1.855   6.855  12.140 -0.2435 -0.1213  0.6388
 3706SOL    HW118168   1.831   6.946  12.125  1.4633  0.5931  1.8857
 3706SOL    HW218169   1.949   6.852  12.123 -0.5821 -2.1161 -1.2435
 3707SOL     OW18170   1.091   8.401   2.751 -0.0341 -0.7304 -0.3614
 3707SOL    HW118171   1.151   8.327   2.740  0.0095 -0.5475 -1.4404
 3707SOL    HW218172   1.147   8.471   2.785  0.3952 -0.5290 -1.4561
 3708SOL     OW18173  12.227  11.984   6.085  0.1956 -0.2601 -0.6959
 3708SOL    HW118174  12.306  11.935   6.107  0.3703 -0.7686 -2.3260
 3708SOL    HW218175  12.238  12.068   6.130  0.2182 -1.3958  1.5629
 3709SOL     OW18176   2.021   6.406   1.954 -0.5922  0.2621 -0.0377
 3709SOL    HW118177   2.026   6.394   1.859 -0.5537 -1.1053  0.1214
 3709SOL    HW218178   2.111   6.426   1.979 -0.4634 -0.0825 -0.2104
 3710SOL     OW18179   5.183   8.173   0.790 -0.2388  0.3333 -0.4121
 3710SOL    HW118180   5.184   8.196   0.697  0.7164 -3.2665 -1.4446
 3710SOL    HW218181   5.275   8.177   0.817 -0.2498 -0.6174 -0.2126
 3711SOL     OW18182   5.523   9.864   8.378 -0.2102  0.3428 -0.2931
 3711SOL    HW118183   5.480   9.913   8.307 -0.0704  2.2483  0.8818
 3711SOL    HW218184   5.454   9.852   8.443  0.0772  0.0434 -0.0427
 3712SOL     OW18185   0.072   5.495   6.399 -0.2236 -0.3274 -0.0171
 3712SOL    HW118186   0.086   5.453   6.314  0.2394 -1.5965  0.6610
 3712SOL    HW218187   0.148   5.469   6.452 -0.7796 -0.0081  0.9684
 3713SOL     OW18188  11.096   1.690  12.562 -0.3622 -0.5942 -0.4561
 3713SOL    HW118189  11.177   1.730  12.594 -0.8187 -0.5978  0.7751
 3713SOL    HW218190  11.029   1.757  12.578 -0.5098 -0.2774 -2.1919
 3714SOL     OW18191   5.293   3.121  12.568  0.4608  0.5078  0.2017
 3714SOL    HW118192   5.347   3.047  12.596 -1.4352 -1.0295  0.0112
 3714SOL    HW218193   5.315   3.191  12.629  2.2506 -0.2297  0.4461
 3715SOL     OW18194   9.368   6.960   4.341 -0.0794 -0.1887  0.8664
 3715SOL    HW118195   9.316   7.030   4.381  0.1922 -0.7125  2.1794
 3715SOL    HW218196   9.390   6.993   4.254 -0.6552  1.0062  1.1588
 3716SOL     OW18197   3.945   2.689   6.059  0.2528 -0.1513  0.4828
 3716SOL    HW118198   4.024   2.740   6.076 -0.0071  0.1112  0.9232
 3716SOL    HW218199   3.907   2.674   6.146 -0.5361  0.3064  0.2296
 3717SOL     OW18200   7.018   0.885   0.457  0.4678 -0.0380 -0.1817
 3717SOL    HW118201   6.987   0.922   0.539 -0.5793 -0.0486 -0.5464
 3717SOL    HW218202   6.957   0.813   0.439  0.6121  0.0374 -1.0213
 3718SOL     OW18203   0.572  11.041   9.188  0.2316 -0.6041  0.6226
 3718SOL    HW118204   0.524  10.959   9.176  1.2179 -1.2361  0.9173
 3718SOL    HW218205   0.656  11.027   9.145  0.2887  0.3876  0.3656
 3719SOL     OW18206  12.205   2.630   1.089  0.5065 -0.2027  0.2509
 3719SOL    HW118207  12.196   2.633   1.185 -0.1762 -0.6311  0.2075
 3719SOL    HW218208  12.295   2.658   1.073  1.0874 -1.4682  1.1135
 3720SOL     OW18209  11.066   3.910   2.160  0.6568  0.0482 -0.1632
 3720SOL    HW118210  11.031   3.821   2.153  1.0166 -0.0569 -0.7554
 3720SOL    HW218211  11.156   3.898   2.189  0.8365  0.1912 -0.6534
 3721SOL     OW18212   2.727   8.417  10.033  0.4709  0.5910  0.2369
 3721SOL    HW118213   2.713   8.433  10.126 -0.3895 -0.0196  0.2242
 3721SOL    HW218214   2.642   8.389  10.000  0.9643 -0.0408 -0.5552
 3722SOL     OW18215   2.382   2.757   2.162 -0.3829  0.1073  0.2775
 3722SOL    HW118216   2.301   2.807   2.165 -0.0056  0.8351 -0.9878
 3722SOL    HW218217   2.404   2.751   2.069  0.9873 -0.1115  0.5878
 3723SOL     OW18218   5.226  12.085   7.969 -0.1722  0.3694 -0.5434
 3723SOL    HW118219   5.317  12.098   7.995  0.2532 -2.1494 -0.5805
 3723SOL    HW218220   5.183  12.169   7.990  1.7559  1.0306  1.0929
 3724SOL     OW18221   0.910   6.397   6.912  0.5547 -0.0358  0.5334
 3724SOL    HW118222   0.820   6.373   6.887  0.9489 -2.1923  0.9636
 3724SOL    HW218223   0.900   6.474   6.968 -0.8862  0.6383 -0.5775
 3725SOL     OW18224   6.305   5.541  11.526  0.4089  0.1343  0.4866
 3725SOL    HW118225   6.310   5.486  11.605  0.7941 -0.8991 -0.2317
 3725SOL    HW218226   6.211   5.547  11.508  0.4051 -1.4095 -0.1588
 3726SOL     OW18227   8.215   3.283  10.038  0.2436  0.0589 -0.3336
 3726SOL    HW118228   8.120   3.280  10.047  0.2189  0.0675 -0.5783
 3726SOL    HW218229   8.248   3.285  10.128  0.0482 -1.0366 -0.2221
 3727SOL     OW18230   1.132   5.426  10.254 -0.3855  0.3393  0.0937
 3727SOL    HW118231   1.146   5.365  10.182  0.8080  1.1460 -0.3888
 3727SOL    HW218232   1.173   5.507  10.226  1.6694  0.2061  2.3449
 3728SOL     OW18233   9.495   5.452   1.954 -0.3553 -0.0332  0.7640
 3728SOL    HW118234   9.489   5.511   2.029 -1.4298 -1.2034  1.6432
 3728SOL    HW218235   9.404   5.433   1.931 -0.0529  0.3727 -0.9225
 3729SOL     OW18236   6.391  10.568  10.724 -0.1947 -0.1309 -0.0195
 3729SOL    HW118237   6.418  10.577  10.633  0.7563  0.8901  0.3409
 3729SOL    HW218238   6.303  10.603  10.728 -0.1550  0.0207 -0.5080
 3730SOL     OW18239   7.054  10.526  12.529  0.2447  0.5056 -0.6351
 3730SOL    HW118240   7.070  10.519  12.623 -1.9747  0.3132 -0.2267
 3730SOL    HW218241   7.126  10.580  12.497 -0.0538  2.3283  1.5277
 3731SOL     OW18242  12.409   2.742  11.840 -0.1273  0.2512  0.1181
 3731SOL    HW118243  12.399   2.779  11.753 -2.7956  0.1534  0.3047
 3731SOL    HW218244  12.500   2.761  11.864 -0.3648  3.6232 -1.1637
 3732SOL     OW18245   6.348   3.699   0.540 -0.2958  0.1214  0.1228
 3732SOL    HW118246   6.253   3.706   0.540 -0.3130  0.1668 -1.3404
 3732SOL    HW218247   6.374   3.727   0.452  0.8601 -2.4721 -0.4419
 3733SOL     OW18248   2.432   2.282   7.735 -0.3537  0.1735  0.0108
 3733SOL    HW118249   2.518   2.244   7.715 -1.5107 -3.2002  0.7421
 3733SOL    HW218250   2.388   2.291   7.651  0.0983  0.3541 -0.2098
 3734SOL     OW18251   3.035   2.325  12.554 -0.1212  0.3960 -0.2332
 3734SOL    HW118252   3.052   2.288  12.640 -0.7363 -0.3324 -0.4212
 3734SOL    HW218253   3.122   2.335  12.515  0.0279 -1.7085 -0.5293
 3735SOL     OW18254   0.192   7.496   2.390 -0.4793  0.8186  0.2359
 3735SOL    HW118255   0.226   7.518   2.477  1.1892 -1.8665  0.3874
 3735SOL    HW218256   0.138   7.418   2.404  0.8306 -0.4285 -1.2181
 3736SOL     OW18257  10.734   7.252  12.084  0.5742  0.3462  0.2116
 3736SOL    HW118258  10.735   7.335  12.130  1.8871  0.0062  0.8226
 3736SOL    HW218259  10.734   7.276  11.991  1.5962  1.0368  0.3791
 3737SOL     OW18260   0.445  10.106  10.129  0.2835  0.3160  0.1896
 3737SOL    HW118261   0.412  10.175  10.071 -0.9987 -1.7415 -1.6996
 3737SOL    HW218262   0.540  10.112  10.121  0.1741 -0.1173 -2.6171
 3738SOL     OW18263  11.513  10.425   6.308 -0.9359 -0.0620  0.1214
 3738SOL    HW118264  11.479  10.336   6.318 -0.1467 -0.2242  1.7390
 3738SOL    HW218265  11.480  10.454   6.223 -1.0587 -1.9599 -0.5334
 3739SOL     OW18266   3.022  11.611   6.078 -0.1727  0.1742 -0.5621
 3739SOL    HW118267   3.058  11.523   6.067 -1.2419 -0.3660  0.0145
 3739SOL    HW218268   2.928  11.599   6.063 -0.4017  1.1125  0.1095
 3740SOL     OW18269   9.875  10.368   1.750 -0.1866 -0.1694 -0.2369
 3740SOL    HW118270   9.850  10.446   1.700  1.7918 -0.6608 -2.1427
 3740SOL    HW218271   9.943  10.400   1.809 -1.5490  0.1207  1.2433
 3741SOL     OW18272   1.752  10.342   1.359  0.3492  0.5302  0.2197
 3741SOL    HW118273   1.747  10.425   1.406  0.2344  1.0383 -0.6568
 3741SOL    HW218274   1.697  10.356   1.281 -0.7316 -0.8025  0.7023
 3742SOL     OW18275   5.594  10.854   5.004 -0.8657 -0.1308 -0.0782
 3742SOL    HW118276   5.501  10.874   5.005 -0.8397 -0.0012 -0.1633
 3742SOL    HW218277   5.618  10.846   5.096 -0.8835  0.2124 -0.0395
 3743SOL     OW18278   4.499   3.443   3.570  0.3950  0.4766 -0.4597
 3743SOL    HW118279   4.436   3.468   3.503  1.6461  1.3040 -1.3774
 3743SOL    HW218280   4.472   3.492   3.648  1.5288  3.2106 -1.6283
 3744SOL     OW18281   9.948   8.498   5.551 -0.1178 -0.0997  0.1422
 3744SOL    HW118282   9.859   8.464   5.555 -0.3662  0.6237  2.0236
 3744SOL    HW218283   9.940   8.582   5.506 -0.3494 -0.1423  0.1032
 3745SOL     OW18284   1.413   8.596   6.659 -0.4806  0.5115 -0.0846
 3745SOL    HW118285   1.449   8.580   6.746 -0.3524 -0.0724 -0.2398
 3745SOL    HW218286   1.484   8.639   6.610 -0.2111 -0.0593 -0.1981
 3746SOL     OW18287   8.462   4.908   5.800  0.6930 -0.1985  0.3377
 3746SOL    HW118288   8.468   4.994   5.759  0.6126 -0.4836 -0.2788
 3746SOL    HW218289   8.477   4.846   5.729  0.9857 -0.6912  0.8229
 3747SOL     OW18290   8.427  11.479   7.018 -0.2813  0.1915  0.0904
 3747SOL    HW118291   8.476  11.418   7.073 -1.0714 -0.0481  0.5599
 3747SOL    HW218292   8.335  11.464   7.043 -0.6082  0.4776 -0.8977
 3748SOL     OW18293   8.616   6.063   8.085 -0.2999  0.2051  0.1646
 3748SOL    HW118294   8.666   5.989   8.051  0.7699  1.4377 -1.0455
 3748SOL    HW218295   8.634   6.063   8.179  0.4176 -0.5202  0.0391
 3749SOL     OW18296   2.862   2.973   8.187  0.1700 -0.1264  0.0301
 3749SOL    HW118297   2.771   2.962   8.160  0.3477  2.3443 -1.9301
 3749SOL    HW218298   2.913   2.922   8.123  0.2540  0.1298 -0.1090
 3750SOL     OW18299   6.627   6.321   7.628  0.3331  0.0145 -0.1215
 3750SOL    HW118300   6.709   6.322   7.678 -0.4263  2.2947  1.2366
 3750SOL    HW218301   6.567   6.376   7.679 -1.9610 -1.3143 -1.2519
 3751SOL     OW18302   9.673   7.469   0.697 -0.1460  0.4990  0.0232
 3751SOL    HW118303   9.750   7.524   0.695  0.6892 -0.6459 -0.5754
 3751SOL    HW218304   9.656   7.454   0.790  1.0934 -0.2114  0.1563
 3752SOL     OW18305   7.699   6.933   5.446  0.1560  0.0027  0.2158
 3752SOL    HW118306   7.611   6.955   5.415 -0.0691  0.9697  1.4720
 3752SOL    HW218307   7.710   6.840   5.424 -1.2700 -0.1985  0.2636
 3753SOL     OW18308   3.397   6.376   6.870  0.2077  0.7872 -0.1323
 3753SOL    HW118309   3.448   6.429   6.930 -0.7892  0.6321  0.9014
 3753SOL    HW218310   3.333   6.436   6.832 -0.2690  0.5445  0.2717
 3754SOL     OW18311   6.877   1.921  12.125 -0.4870  0.6185 -0.4579
 3754SOL    HW118312   6.959   1.936  12.079  0.6780 -0.3322  1.1836
 3754SOL    HW218313   6.848   2.009  12.152  1.0128  0.8449  0.5444
 3755SOL     OW18314  10.979   3.588   8.339 -0.1535  0.6778  0.4315
 3755SOL    HW118315  10.889   3.579   8.305  0.2297  1.9454 -1.0292
 3755SOL    HW218316  10.974   3.552   8.428 -1.6984 -0.9194 -0.2130
 3756SOL     OW18317   0.839   0.474   6.254  0.1527  0.3610 -0.2201
 3756SOL    HW118318   0.811   0.429   6.175  1.3901 -0.2611 -0.3328
 3756SOL    HW218319   0.770   0.456   6.318 -0.1200 -0.4095 -0.7157
 3757SOL     OW18320   2.634   8.232  12.300  0.7664  0.2839 -0.2769
 3757SOL    HW118321   2.647   8.162  12.237  2.7811  1.8958 -1.7944
 3757SOL    HW218322   2.701   8.217  12.367  1.7358  1.1492 -1.0240
 3758SOL     OW18323   6.428  11.681   2.415  0.3389  0.2418  0.1978
 3758SOL    HW118324   6.370  11.757   2.409  1.4274  1.0670 -0.1378
 3758SOL    HW218325   6.437  11.650   2.325  0.3463  0.0588  0.2616
 3759SOL     OW18326   0.262   0.251   0.210 -0.8176 -0.1103  0.7910
 3759SOL    HW118327   0.242   0.340   0.241  0.3295  0.0207  1.1867
 3759SOL    HW218328   0.188   0.229   0.154 -1.4927  0.8031  1.2888
 3760SOL     OW18329   7.082   7.587   1.026 -0.6150  0.1601  0.0868
 3760SOL    HW118330   7.074   7.681   1.012 -0.2639  0.3828  1.2417
 3760SOL    HW218331   7.140   7.557   0.956 -1.0474  0.7246 -0.5281
 3761SOL     OW18332   3.262   1.126  10.377  0.3718  0.1796  0.0167
 3761SOL    HW118333   3.196   1.191  10.401  1.0621  0.2704  1.8249
 3761SOL    HW218334   3.215   1.042  10.380 -1.1163  0.5638 -4.4693
 3762SOL     OW18335   1.028  11.097   3.503  0.2615  0.7136  0.0631
 3762SOL    HW118336   1.048  11.178   3.455  1.4668  0.4474  0.0712
 3762SOL    HW218337   1.079  11.104   3.583  1.0213 -0.4047 -0.2980
 3763SOL     OW18338  10.563   4.883  11.819 -0.0137  0.4152 -0.0510
 3763SOL    HW118339  10.611   4.850  11.895  2.0515  1.5083 -0.8033
 3763SOL    HW218340  10.588   4.826  11.747 -0.8857  0.2196 -0.2143
 3764SOL     OW18341   2.183   0.809   4.149  0.9861 -0.1027  0.0407
 3764SOL    HW118342   2.232   0.814   4.066  1.0522 -1.1614 -0.0005
 3764SOL    HW218343   2.247   0.778   4.213  1.5499  2.7934  1.0524
 3765SOL     OW18344  10.679   6.522   3.960 -0.0997  0.2968  0.3575
 3765SOL    HW118345  10.665   6.551   3.870 -1.0531 -0.0487  0.3864
 3765SOL    HW218346  10.681   6.426   3.955 -0.6989  0.2539  0.7629
 3766SOL     OW18347   1.383   3.759   2.222 -0.2737  0.3068  0.0503
 3766SOL    HW118348   1.292   3.784   2.208  0.2581  2.2664 -0.2984
 3766SOL    HW218349   1.397   3.683   2.166 -1.2529  1.0414 -1.2346
 3767SOL     OW18350   3.751   6.739  12.543  0.5348 -1.4018 -0.6972
 3767SOL    HW118351   3.845   6.747  12.527  0.4223 -0.0279 -0.7648
 3767SOL    HW218352   3.720   6.684  12.472  1.4641 -2.9383  0.0273
 3768SOL     OW18353  10.661   5.524   2.870  0.3148 -0.2104  0.4804
 3768SOL    HW118354  10.657   5.429   2.880  0.7735 -0.3255 -0.3793
 3768SOL    HW218355  10.745   5.548   2.911  0.8648 -0.3490 -0.5463
 3769SOL     OW18356   8.978   6.162   3.838  0.6245 -0.1843 -0.5341
 3769SOL    HW118357   9.048   6.110   3.878  0.7201  0.5465  0.2743
 3769SOL    HW218358   8.898   6.131   3.878  0.7291  0.6095  0.3210
 3770SOL     OW18359   9.431  10.388   9.128 -0.2720 -0.1388 -0.0733
 3770SOL    HW118360   9.400  10.467   9.085  0.9559 -0.2869 -1.2877
 3770SOL    HW218361   9.352  10.336   9.144 -1.0119  1.0417  0.1596
 3771SOL     OW18362   7.553   9.505   0.196 -0.1356 -0.5849 -0.7503
 3771SOL    HW118363   7.501   9.586   0.194  0.6326  0.0533  1.3537
 3771SOL    HW218364   7.624   9.521   0.135  0.1695  0.4996 -0.1514
 3772SOL     OW18365   8.218   9.600   6.108 -0.9313  0.0642 -0.5061
 3772SOL    HW118366   8.312   9.598   6.124 -0.8852 -3.1422 -0.6652
 3772SOL    HW218367   8.204   9.683   6.061  1.5955  1.1152  0.4211
 3773SOL     OW18368   5.817  10.731   7.027 -0.2386 -0.2916  0.4430
 3773SOL    HW118369   5.746  10.685   6.982  0.2046 -0.2670 -0.2877
 3773SOL    HW218370   5.880  10.663   7.048  0.2223 -0.0969 -0.2652
 3774SOL     OW18371   8.531   0.565   2.591  0.4395 -0.1284  0.0306
 3774SOL    HW118372   8.456   0.526   2.546  0.3520  0.6704 -0.5423
 3774SOL    HW218373   8.543   0.510   2.669 -0.0307 -0.9365 -0.4473
 3775SOL     OW18374   8.842   2.473   2.474 -0.0045 -0.2671  0.2998
 3775SOL    HW118375   8.909   2.421   2.517 -0.1548 -1.9307 -1.3743
 3775SOL    HW218376   8.861   2.465   2.381 -2.4469 -0.7329 -0.2365
 3776SOL     OW18377   5.430  11.221   7.561 -0.2138  0.6040 -0.4872
 3776SOL    HW118378   5.345  11.246   7.525 -1.5492  0.0806  1.9988
 3776SOL    HW218379   5.455  11.294   7.618  1.1360  0.8405 -1.3449
 3777SOL     OW18380   3.695   5.358   0.498 -0.0635 -0.6027  0.1788
 3777SOL    HW118381   3.652   5.419   0.557  0.3387 -0.4661  0.3396
 3777SOL    HW218382   3.637   5.282   0.495  0.1525 -0.8188  1.1552
 3778SOL     OW18383   2.736  11.238   1.799  0.2041  0.1457  0.4832
 3778SOL    HW118384   2.774  11.158   1.764  0.0205  0.5338 -0.6483
 3778SOL    HW218385   2.647  11.213   1.825 -0.9511  0.5660 -2.6204
 3779SOL     OW18386   5.158   5.960   8.932 -0.0209 -0.2726  0.1980
 3779SOL    HW118387   5.125   5.883   8.885 -0.4053 -0.3461  0.5932
 3779SOL    HW218388   5.136   6.034   8.875  2.0435 -0.5968 -1.1367
 3780SOL     OW18389   8.033   8.773  11.892 -0.0728 -0.3489  0.0691
 3780SOL    HW118390   8.040   8.844  11.956  1.6990 -0.4236  0.0047
 3780SOL    HW218391   8.036   8.693  11.944 -1.3140 -0.4016  0.0809
 3781SOL     OW18392   0.242  11.385   2.954  0.2194 -0.2974  0.4430
 3781SOL    HW118393   0.196  11.443   2.894 -1.4924 -0.0311  1.9124
 3781SOL    HW218394   0.287  11.445   3.015 -0.5728 -0.4996  1.2429
 3782SOL     OW18395   1.904   3.249   5.751  0.2584 -0.1487  0.3445
 3782SOL    HW118396   1.830   3.196   5.720 -0.8719 -0.2866  2.9618
 3782SOL    HW218397   1.978   3.222   5.698 -1.9059  1.6498 -4.0874
 3783SOL     OW18398   9.991   0.306   2.208 -0.0069  0.0214 -0.7172
 3783SOL    HW118399   9.913   0.251   2.218  1.0275 -1.3821 -0.1431
 3783SOL    HW218400  10.030   0.309   2.296  1.4686 -0.6715 -1.3145
 3784SOL     OW18401   6.899   1.112   2.842 -0.9273 -0.4042  0.4141
 3784SOL    HW118402   6.873   1.087   2.753 -2.2195  1.4708  0.2065
 3784SOL    HW218403   6.938   1.199   2.833  1.5892 -1.3344  1.3535
 3785SOL     OW18404   0.206   9.448   8.044 -0.1420 -0.1279  0.1087
 3785SOL    HW118405   0.230   9.356   8.041  1.0907  0.1602  0.6321
 3785SOL    HW218406   0.210   9.477   7.953 -3.5102 -1.2588 -0.5513
 3786SOL     OW18407   9.634   8.316   8.898 -0.1423 -0.5433  1.0638
 3786SOL    HW118408   9.560   8.335   8.840  0.2567 -0.6248  0.5109
 3786SOL    HW218409   9.710   8.317   8.839  0.7904  2.9144  2.0898
 3787SOL     OW18410   3.300   6.812   2.110 -0.1007  0.2895 -0.1755
 3787SOL    HW118411   3.314   6.880   2.176  1.8880  1.1662 -1.3810
 3787SOL    HW218412   3.210   6.783   2.124 -0.6084  2.2676  1.2051
 3788SOL     OW18413   1.287  10.092   4.361 -0.1114 -0.2478 -0.1149
 3788SOL    HW118414   1.244  10.122   4.442  1.0282 -0.4595  0.5885
 3788SOL    HW218415   1.296  10.171   4.308  0.1447  0.1112  0.4474
 3789SOL     OW18416   8.167   7.061  10.650 -0.3967 -0.0759  0.0764
 3789SOL    HW118417   8.100   6.995  10.662 -1.1891  0.6205 -0.4048
 3789SOL    HW218418   8.132   7.120  10.583 -0.4072  1.7001  1.5407
 3790SOL     OW18419   4.409   1.972   1.238  0.4003  0.1770 -0.2666
 3790SOL    HW118420   4.484   1.952   1.182  0.1213  1.6795 -1.2387
 3790SOL    HW218421   4.340   1.999   1.177 -0.0644  1.3890  0.7615
 3791SOL     OW18422   8.457   7.877   2.840  0.7308  0.0189  0.1489
 3791SOL    HW118423   8.526   7.861   2.905 -1.1136 -0.8919  2.0019
 3791SOL    HW218424   8.424   7.790   2.818 -0.5678  0.4837  0.1724
 3792SOL     OW18425   8.100   6.680   4.867  0.2972 -0.0701 -0.0097
 3792SOL    HW118426   8.136   6.604   4.912 -0.5625  0.0901  0.9937
 3792SOL    HW218427   8.005   6.674   4.882  0.2772  1.5727  0.7119
 3793SOL     OW18428   8.693   8.479   2.007 -0.3913 -0.2987  0.5849
 3793SOL    HW118429   8.627   8.422   1.969  2.2318 -3.2241  0.0646
 3793SOL    HW218430   8.656   8.505   2.091 -2.7908 -0.5513 -0.3206
 3794SOL     OW18431   2.607   2.292   8.024 -0.0702  0.8103  0.4984
 3794SOL    HW118432   2.657   2.374   8.026 -0.3700  1.2048 -2.6367
 3794SOL    HW218433   2.519   2.318   8.000 -0.9346 -0.2427  2.3035
 3795SOL     OW18434   4.808   2.111   3.744  0.4542  0.1531  0.2681
 3795SOL    HW118435   4.747   2.038   3.731  2.3362 -1.2230 -1.6319
 3795SOL    HW218436   4.762   2.170   3.803 -1.4190 -2.2812  1.4639
 3796SOL     OW18437   7.877   0.567   3.024  0.0673 -0.0969  0.2317
 3796SOL    HW118438   7.877   0.534   3.114  0.3343 -0.5345  0.0739
 3796SOL    HW218439   7.860   0.490   2.970  0.3589  0.0827 -0.1241
 3797SOL     OW18440  10.597   1.343   1.828  0.0734 -0.2718  0.0444
 3797SOL    HW118441  10.637   1.429   1.832 -2.4500  1.0986 -1.3799
 3797SOL    HW218442  10.594   1.322   1.735  1.0862 -2.1812  0.3868
 3798SOL     OW18443   6.189   2.552   2.046  0.0943 -0.5322 -0.8254
 3798SOL    HW118444   6.280   2.543   2.017  0.6246  0.0202  0.5564
 3798SOL    HW218445   6.154   2.463   2.043  0.9554 -0.8950 -0.5582
 3799SOL     OW18446   2.236  11.205   8.883 -0.3869 -0.7700 -0.0438
 3799SOL    HW118447   2.247  11.112   8.862 -0.0254 -0.8565  0.5322
 3799SOL    HW218448   2.324  11.236   8.904 -0.7484 -0.7092  1.4615
 3800SOL     OW18449  10.751   3.931   7.984 -0.0229  0.1246  0.0071
 3800SOL    HW118450  10.691   3.982   7.929 -0.4420 -0.5493 -0.1787
 3800SOL    HW218451  10.816   3.994   8.014 -0.5016  0.7561 -0.2549
 3801SOL     OW18452   5.853   4.680   7.700 -0.3038 -0.3537 -0.2970
 3801SOL    HW118453   5.913   4.752   7.721 -1.7472  1.5641 -2.2997
 3801SOL    HW218454   5.893   4.636   7.626 -0.8893  0.3994 -1.0870
 3802SOL     OW18455  10.992  12.024   8.820 -0.1273  0.5054  0.0652
 3802SOL    HW118456  11.003  12.115   8.795 -2.1631  0.9360  0.4911
 3802SOL    HW218457  10.962  12.028   8.911 -1.6251 -0.4630 -0.3468
 3803SOL     OW18458   5.461   9.963   3.919 -0.1165  0.0700  0.1076
 3803SOL    HW118459   5.552   9.960   3.889  0.1244  1.4205  0.6261
 3803SOL    HW218460   5.462  10.027   3.990 -1.7573  1.4555 -1.0264
 3804SOL     OW18461   2.942   1.995   0.609 -0.7373  0.0630 -0.4505
 3804SOL    HW118462   2.989   1.964   0.686  0.4025  2.1161 -0.2383
 3804SOL    HW218463   2.955   1.927   0.543  1.1310 -0.2122  0.1374
 3805SOL     OW18464   7.552   9.842   8.838  0.4264 -0.1899  0.3367
 3805SOL    HW118465   7.602   9.765   8.809 -0.6721 -0.9493  0.3824
 3805SOL    HW218466   7.500   9.810   8.912  0.0566  0.6391  0.4464
 3806SOL     OW18467   9.898   8.415  11.085 -0.7860  0.3167 -0.7658
 3806SOL    HW118468   9.846   8.494  11.077  0.6655  1.3453 -0.3588
 3806SOL    HW218469   9.927   8.414  11.177  0.3298  0.0549 -1.1006
 3807SOL     OW18470   2.197   5.241   1.119  0.3228  0.1206 -0.0974
 3807SOL    HW118471   2.188   5.278   1.031  0.2595 -2.9085 -1.5321
 3807SOL    HW218472   2.118   5.269   1.165 -1.0731 -0.4417 -1.9982
 3808SOL     OW18473   1.996   8.943  11.903  0.1184 -0.5508  0.4054
 3808SOL    HW118474   2.088   8.966  11.914 -0.0566 -0.4590  1.8500
 3808SOL    HW218475   1.979   8.955  11.809  1.9239 -1.9410 -0.1536
 3809SOL     OW18476   4.721   9.283  12.366 -0.2291 -0.1243 -0.1540
 3809SOL    HW118477   4.792   9.260  12.425 -1.7366 -1.7337  1.1346
 3809SOL    HW218478   4.645   9.295  12.423 -1.3638 -0.0218 -1.6200
 3810SOL     OW18479   7.166   5.470   2.798 -0.5333 -0.1759  0.1226
 3810SOL    HW118480   7.111   5.495   2.723  0.3250 -1.5422 -1.0079
 3810SOL    HW218481   7.129   5.518   2.872 -1.3858  1.2543 -1.1762
 3811SOL     OW18482   9.933  11.063   0.633  0.5037 -0.5675  0.3715
 3811SOL    HW118483   9.906  11.097   0.548  3.2496  0.2161 -0.2981
 3811SOL    HW218484   9.981  11.136   0.673 -0.0323 -1.1982  2.2757
 3812SOL     OW18485   2.242   2.042  12.191  0.0225  0.5481  0.1621
 3812SOL    HW118486   2.289   2.092  12.125 -0.1926  0.6199  0.0640
 3812SOL    HW218487   2.208   2.107  12.252  0.3291  0.4724  0.4135
 3813SOL     OW18488   7.214   8.613   2.960 -0.0305 -0.3537 -0.6042
 3813SOL    HW118489   7.167   8.604   3.043 -0.0144 -1.1133 -0.6673
 3813SOL    HW218490   7.201   8.705   2.935  2.2155  0.6719  1.5773
 3814SOL     OW18491   0.606   1.977   8.183  0.4092 -0.2031 -0.0696
 3814SOL    HW118492   0.589   2.069   8.200  0.1221 -0.3287  0.3214
 3814SOL    HW218493   0.532   1.931   8.221  1.0998 -0.6783  0.7324
 3815SOL     OW18494   3.358  10.425   6.247 -0.0496 -0.2896 -0.3735
 3815SOL    HW118495   3.281  10.382   6.209  0.4680 -0.2061 -1.5611
 3815SOL    HW218496   3.353  10.404   6.341 -2.9366  1.8723  0.1239
 3816SOL     OW18497   8.200   5.467   3.664  0.7682  0.0723  0.1485
 3816SOL    HW118498   8.218   5.543   3.608  0.0779  0.4115  0.3812
 3816SOL    HW218499   8.126   5.424   3.622  2.1178 -1.3684 -0.8545
 3817SOL     OW18500   7.143   0.166   3.827 -0.7339 -0.0740 -0.0539
 3817SOL    HW118501   7.219   0.109   3.815 -0.9224 -0.6392  1.3080
 3817SOL    HW218502   7.082   0.140   3.759 -0.0644 -0.2110 -0.6127
 3818SOL     OW18503  10.057   6.168   0.467 -0.1462 -0.5900  0.1354
 3818SOL    HW118504  10.033   6.095   0.410  0.3337 -0.7328  0.1193
 3818SOL    HW218505  10.151   6.160   0.478 -0.1782 -0.3122  0.6050
 3819SOL     OW18506  11.186  11.857   1.401 -0.3440  0.5925  0.1641
 3819SOL    HW118507  11.128  11.885   1.330  0.5428  0.6382 -0.5586
 3819SOL    HW218508  11.180  11.761   1.399  0.5917  0.5381 -0.7750
 3820SOL     OW18509  11.697   1.247   4.820  0.1223  0.5515  0.2066
 3820SOL    HW118510  11.759   1.271   4.889  0.5542 -0.9594  0.3890
 3820SOL    HW218511  11.628   1.199   4.866 -0.0401  0.3021 -0.2992
 3821SOL     OW18512   3.090  11.316   5.723  0.3198  0.1744 -0.1665
 3821SOL    HW118513   3.008  11.365   5.715  1.0265  1.3376 -0.5937
 3821SOL    HW218514   3.136  11.334   5.641  0.4658 -1.5143 -0.4886
 3822SOL     OW18515   5.393   9.911   4.725 -0.0641 -0.5123 -0.4008
 3822SOL    HW118516   5.307   9.949   4.705 -0.2998 -0.7135  0.2148
 3822SOL    HW218517   5.376   9.819   4.740  0.5540 -0.9731 -2.2127
 3823SOL     OW18518  11.684   8.374   3.954  0.6992 -0.1257 -0.4311
 3823SOL    HW118519  11.671   8.321   3.876  0.8516 -0.8593  0.0363
 3823SOL    HW218520  11.770   8.416   3.941  1.5915 -1.6869  0.1499
 3824SOL     OW18521   6.529  12.427   9.950  0.1104 -0.1283  0.0356
 3824SOL    HW118522   6.482  12.473   9.881  0.1162  2.3067  1.5272
 3824SOL    HW218523   6.462  12.403  10.014  0.4563  0.2801  0.5581
 3825SOL     OW18524   3.395   0.321   7.489  0.2648  0.3171  0.0826
 3825SOL    HW118525   3.406   0.396   7.547 -1.7765  0.1663  0.7318
 3825SOL    HW218526   3.476   0.318   7.439 -0.0337  3.6826 -0.8370
 3826SOL     OW18527   4.745  10.320   0.902 -0.1958  0.1822  0.0976
 3826SOL    HW118528   4.708  10.278   0.979 -0.9343  0.0772 -0.3078
 3826SOL    HW218529   4.840  10.306   0.910 -0.3057 -0.2185  0.7475
 3827SOL     OW18530   6.311   9.451   7.042 -0.5369  0.1332 -0.2182
 3827SOL    HW118531   6.324   9.527   6.986  0.0453 -0.9949 -1.6589
 3827SOL    HW218532   6.398   9.414   7.054 -0.6082  0.4281  1.6317
 3828SOL     OW18533   0.139  12.249   5.949 -0.0114  0.3678  0.1294
 3828SOL    HW118534   0.146  12.216   6.039  0.0698 -0.4664 -0.1760
 3828SOL    HW218535   0.229  12.255   5.919 -0.0914 -0.8368 -0.4111
 3829SOL     OW18536  10.921   5.314   5.641  0.3553 -0.8654 -0.3208
 3829SOL    HW118537  11.012   5.345   5.640 -0.1054  0.5437 -0.5481
 3829SOL    HW218538  10.887   5.344   5.726 -0.6020  0.8525 -1.2618
 3830SOL     OW18539   7.456   1.445   5.661 -0.2453  0.0823 -0.9709
 3830SOL    HW118540   7.389   1.475   5.723 -0.1269  0.2320 -0.9135
 3830SOL    HW218541   7.413   1.450   5.575 -0.5159 -0.4370 -0.8688
 3831SOL     OW18542  11.723  10.624   5.606  0.3549  0.9996 -0.4550
 3831SOL    HW118543  11.654  10.674   5.561 -0.0800  0.0674 -0.8374
 3831SOL    HW218544  11.803  10.647   5.560  0.4045  2.4900  0.3113
 3832SOL     OW18545  12.279   2.885   2.239 -0.0528  0.5242 -0.0473
 3832SOL    HW118546  12.306   2.917   2.325  0.7615 -1.4392  0.4671
 3832SOL    HW218547  12.343   2.921   2.178  0.8570 -0.1131  0.5188
 3833SOL     OW18548   7.365   7.666   8.482  0.1539 -0.2003  0.2092
 3833SOL    HW118549   7.408   7.601   8.427 -0.3746  0.0722 -0.5517
 3833SOL    HW218550   7.274   7.638   8.486  0.1986 -0.2312  0.9750
 3834SOL     OW18551   6.665  11.572   0.716 -0.0081 -0.2579  0.9741
 3834SOL    HW118552   6.701  11.658   0.692 -1.0358  0.5094  2.0096
 3834SOL    HW218553   6.701  11.556   0.804 -0.8471 -0.2484  1.3305
 3835SOL     OW18554   6.077   5.160   3.517  0.1791 -0.4644 -0.2523
 3835SOL    HW118555   6.162   5.145   3.476  0.5254 -1.3546  0.7644
 3835SOL    HW218556   6.051   5.247   3.486  2.3004  0.6544  0.8883
 3836SOL     OW18557   5.756   3.400   0.978  0.2112 -0.2416  0.4373
 3836SOL    HW118558   5.764   3.384   0.884  0.9636 -0.1593  0.4852
 3836SOL    HW218559   5.732   3.492   0.984 -0.7056 -0.4568  0.3013
 3837SOL     OW18560  11.591   7.466  10.512 -0.0213  0.5833 -0.2176
 3837SOL    HW118561  11.554   7.554  10.519 -0.8260  0.2116  0.4573
 3837SOL    HW218562  11.516   7.411  10.491  0.3901 -0.0040 -0.1572
 3838SOL     OW18563   2.348   2.987   2.900 -0.2227  0.2138  0.4590
 3838SOL    HW118564   2.312   3.066   2.942  0.0437  0.8328 -0.4565
 3838SOL    HW218565   2.270   2.935   2.877 -0.3682 -0.3520  2.0718
 3839SOL     OW18566   4.925   3.261  12.272 -0.2543  0.4638 -0.3568
 3839SOL    HW118567   4.891   3.250  12.361 -0.3155 -0.4738 -0.4882
 3839SOL    HW218568   5.017   3.286  12.285 -0.1229 -0.1650 -0.0272
 3840SOL     OW18569   8.996   2.891  10.847  0.4982  0.3467  0.4791
 3840SOL    HW118570   9.065   2.826  10.854 -0.9557 -1.0613  3.4677
 3840SOL    HW218571   8.999   2.939  10.930 -1.0314  1.3915 -0.0206
 3841SOL     OW18572   5.599   0.995   9.599  0.5263  0.3579 -0.4128
 3841SOL    HW118573   5.515   1.030   9.572  0.7516  0.6780 -0.7048
 3841SOL    HW218574   5.610   1.024   9.689 -0.8997 -1.9219  0.5868
 3842SOL     OW18575   4.156  11.432  10.694  0.1154  0.2520 -0.1841
 3842SOL    HW118576   4.192  11.421  10.782 -1.9548  1.8868  0.9642
 3842SOL    HW218577   4.121  11.345  10.671  0.2104 -0.0712  0.8439
 3843SOL     OW18578   5.758  12.075  10.212  0.0142  0.4019 -0.2351
 3843SOL    HW118579   5.772  12.121  10.130 -0.3906  1.3800  0.2289
 3843SOL    HW218580   5.733  12.143  10.275  2.0870 -0.0372  1.1808
 3844SOL     OW18581  11.229   1.587   7.090  0.1590  0.3318  0.2846
 3844SOL    HW118582  11.156   1.580   7.152 -0.9068  1.9472 -0.6882
 3844SOL    HW218583  11.302   1.619   7.142 -0.3652  0.4568  0.9593
 3845SOL     OW18584  11.724  11.510  12.425 -0.6990  0.2089  0.2155
 3845SOL    HW118585  11.802  11.456  12.436 -1.5273 -0.9524  0.5681
 3845SOL    HW218586  11.758  11.599  12.412  0.6362 -0.1012  1.3856
 3846SOL     OW18587   3.936   7.699   8.488 -0.4363 -0.6018  0.1643
 3846SOL    HW118588   3.950   7.730   8.398 -0.7376 -1.5035 -0.2091
 3846SOL    HW218589   3.852   7.653   8.484  0.0075 -1.4757  0.6800
 3847SOL     OW18590   4.621  10.360  10.538  0.1434  0.6167 -0.1711
 3847SOL    HW118591   4.648  10.297  10.471  0.2399  1.1656 -0.6704
 3847SOL    HW218592   4.532  10.335  10.561  0.1127  0.4140 -0.5065
 3848SOL     OW18593   9.380   2.304   9.780 -0.3192 -0.1788  0.2999
 3848SOL    HW118594   9.311   2.315   9.845 -0.7835 -1.5590  0.0657
 3848SOL    HW218595   9.356   2.225   9.731  1.1675 -0.4263 -0.0975
 3849SOL     OW18596   5.849   1.087   6.668  0.1996 -0.0388  0.0185
 3849SOL    HW118597   5.872   1.109   6.577  1.1981 -2.7225 -0.4683
 3849SOL    HW218598   5.816   0.997   6.663 -2.1255  0.5980  2.0150
 3850SOL     OW18599  11.533  12.535   8.354 -0.4393 -0.0627 -0.4495
 3850SOL    HW118600  11.524  12.621   8.393  0.0746 -0.0385 -0.3752
 3850SOL    HW218601  11.492  12.543   8.268 -1.4182 -0.0677  0.0042
 3851SOL     OW18602   3.205   9.389   3.622  0.2356  0.4364  0.1381
 3851SOL    HW118603   3.219   9.371   3.715  1.5822  0.5195 -0.0261
 3851SOL    HW218604   3.268   9.333   3.577  1.9762  2.7766 -0.5492
 3852SOL     OW18605   4.918   6.631   4.660 -0.1239 -0.0820 -0.1295
 3852SOL    HW118606   4.940   6.604   4.570  0.5153  1.4598 -0.4653
 3852SOL    HW218607   4.844   6.691   4.649 -0.5496 -0.4822  0.4671
 3853SOL     OW18608   4.588  10.017   8.079 -0.8488 -0.6765  0.5592
 3853SOL    HW118609   4.630  10.100   8.059  0.3175 -1.4143 -0.1612
 3853SOL    HW218610   4.545  10.031   8.163 -2.2299  1.1970 -0.3886
 3854SOL     OW18611   7.807  10.942  10.410 -0.0768  0.7362  0.1409
 3854SOL    HW118612   7.805  10.999  10.486  0.7262 -0.2614  0.9306
 3854SOL    HW218613   7.894  10.955  10.372  1.1590 -1.7830  1.8227
 3855SOL     OW18614   4.730   7.815   1.328 -0.1777 -0.1837 -0.0280
 3855SOL    HW118615   4.654   7.777   1.373 -0.3790 -0.7473 -0.8335
 3855SOL    HW218616   4.804   7.794   1.385 -0.4048 -1.0415 -0.0287
 3856SOL     OW18617   6.589   2.783   5.911 -0.0601 -0.2361  0.2203
 3856SOL    HW118618   6.672   2.736   5.920  0.8418  0.8525 -1.8482
 3856SOL    HW218619   6.602   2.843   5.837 -2.3264  0.7679  0.5356
 3857SOL     OW18620   1.939  12.005   3.613 -0.0332  0.0032  0.4397
 3857SOL    HW118621   1.920  11.989   3.520  0.6770  1.0229  0.0967
 3857SOL    HW218622   1.853  12.005   3.655 -0.4166  0.0495 -0.3152
 3858SOL     OW18623   1.119  10.476   4.274 -0.1073  0.1792  0.1748
 3858SOL    HW118624   1.125  10.389   4.234  1.7778  0.4323 -0.1719
 3858SOL    HW218625   1.208  10.496   4.304 -0.5761  1.8163  0.6048
 3859SOL     OW18626  11.369   5.045   1.790 -0.4715  0.2189  0.2820
 3859SOL    HW118627  11.304   5.053   1.721 -0.8301  1.0405  0.7017
 3859SOL    HW218628  11.452   5.035   1.743 -0.5965  1.6523 -0.2991
 3860SOL     OW18629  11.358   1.990  12.011 -0.3576 -0.2907 -0.0530
 3860SOL    HW118630  11.373   2.073  11.965  1.9055 -0.5702  0.0447
 3860SOL    HW218631  11.316   1.934  11.946  0.7648  0.0405 -1.1145
 3861SOL     OW18632  12.582  10.204   8.180 -0.1291  0.3191 -0.6042
 3861SOL    HW118633  12.631  10.191   8.261  0.6464  0.7686 -0.9835
 3861SOL    HW218634  12.512  10.265   8.203  0.4943  0.9752 -0.4146
 3862SOL     OW18635   9.009   2.475   0.616  0.1742  0.5230  0.3658
 3862SOL    HW118636   9.013   2.476   0.521  1.5835 -2.8759  0.2277
 3862SOL    HW218637   8.917   2.460   0.636 -0.0487  0.6587 -0.5156
 3863SOL     OW18638   5.790   1.917   6.910  0.5046 -0.0332  0.6325
 3863SOL    HW118639   5.810   1.967   6.831 -1.8867 -0.6128 -0.4167
 3863SOL    HW218640   5.809   1.826   6.886 -0.5341 -0.2483  0.5708
 3864SOL     OW18641   7.520   6.075   9.101  0.4323  0.3417 -0.0654
 3864SOL    HW118642   7.543   6.053   9.011  1.9316 -0.1184  0.4141
 3864SOL    HW218643   7.429   6.105   9.095 -0.5733 -2.5235 -1.3079
 3865SOL     OW18644   1.459  12.202   5.358  0.5487  0.0610  0.1692
 3865SOL    HW118645   1.399  12.138   5.320  0.1606  0.8818 -0.6231
 3865SOL    HW218646   1.453  12.278   5.301  0.9798  0.8276  1.1090
 3866SOL     OW18647   6.254   5.964  10.694  0.4158 -0.1624  0.4288
 3866SOL    HW118648   6.300   5.939  10.774  2.1701 -0.7018 -0.6848
 3866SOL    HW218649   6.228   5.881  10.654 -1.9827  0.1343  1.2221
 3867SOL     OW18650   7.924   1.690   9.561 -0.5560  0.2289  0.1793
 3867SOL    HW118651   8.014   1.689   9.527 -1.2628  0.0170 -1.7981
 3867SOL    HW218652   7.912   1.603   9.600 -0.1601 -0.0424 -0.2953
 3868SOL     OW18653   8.382   2.161   7.979  0.0162  0.0968  0.4837
 3868SOL    HW118654   8.343   2.245   7.952 -0.9212 -0.0249  1.3741
 3868SOL    HW218655   8.415   2.123   7.898 -3.6248 -0.7396 -0.7951
 3869SOL     OW18656  12.446   4.906   4.457 -1.0443  0.1680 -0.0929
 3869SOL    HW118657  12.478   4.874   4.542  0.8265 -0.0332 -0.8157
 3869SOL    HW218658  12.433   4.827   4.405 -1.3461  0.3309 -0.2618
 3870SOL     OW18659   9.106  11.749   9.918  0.4248 -0.1713 -0.2431
 3870SOL    HW118660   9.124  11.829   9.869  0.8087 -0.0496  0.0833
 3870SOL    HW218661   9.188  11.700   9.914  0.1263 -0.6445 -0.6162
 3871SOL     OW18662   7.717   4.206   9.037 -0.1907 -0.1391 -0.5141
 3871SOL    HW118663   7.732   4.232   9.129 -0.6307  0.9550 -0.7316
 3871SOL    HW218664   7.732   4.287   8.988 -0.8363 -0.5070 -1.3204
 3872SOL     OW18665  10.150   7.444   1.929 -0.4016  0.1400  0.7325
 3872SOL    HW118666  10.073   7.401   1.891 -0.1544  1.3520 -1.3304
 3872SOL    HW218667  10.223   7.384   1.911 -0.1480  1.0446 -1.6416
 3873SOL     OW18668   5.759   6.371   9.684 -0.2517 -0.2017 -0.4873
 3873SOL    HW118669   5.788   6.462   9.687  0.7551 -0.4708 -1.4683
 3873SOL    HW218670   5.833   6.320   9.717 -1.1065 -0.6206  0.8503
 3874SOL     OW18671   8.494   5.135   0.897  0.4066  0.6181 -0.0046
 3874SOL    HW118672   8.567   5.171   0.947 -0.5266  0.6435  1.4055
 3874SOL    HW218673   8.425   5.121   0.962 -0.3855 -0.6603 -1.0644
 3875SOL     OW18674   1.196   7.827  11.737 -0.1680 -1.1834  0.5253
 3875SOL    HW118675   1.160   7.906  11.697 -0.3326 -1.5348 -0.0333
 3875SOL    HW218676   1.152   7.820  11.821 -0.2719 -0.7680  0.5059
 3876SOL     OW18677   4.727   1.985  12.281 -0.1164 -0.6921  0.1164
 3876SOL    HW118678   4.689   1.898  12.291 -1.1019 -0.6202 -2.2964
 3876SOL    HW218679   4.673   2.042  12.336  2.1721 -1.8751  3.9097
 3877SOL     OW18680   0.547  11.609   8.751 -0.4219  0.1116  0.0675
 3877SOL    HW118681   0.543  11.514   8.764 -0.4836  0.1503  0.3424
 3877SOL    HW218682   0.484  11.627   8.682 -0.1578 -0.0901 -0.2291
 3878SOL     OW18683  12.175  10.233  10.321  0.5776  0.2142 -0.0429
 3878SOL    HW118684  12.232  10.221  10.245 -0.7111 -0.8713 -0.8924
 3878SOL    HW218685  12.167  10.145  10.359  0.5932  0.6124  0.9007
 3879SOL     OW18686   2.652   4.361   5.886 -0.2472  0.1064 -0.1964
 3879SOL    HW118687   2.570   4.370   5.838  0.8565 -1.6072 -2.6109
 3879SOL    HW218688   2.682   4.272   5.867  2.2163  0.6773  0.5454
 3880SOL     OW18689  10.063   8.806   6.287 -0.0204 -0.1939 -0.6541
 3880SOL    HW118690  10.108   8.724   6.266 -0.5415 -0.8199  0.5370
 3880SOL    HW218691   9.973   8.792   6.257  0.0909  0.2841 -1.2261
 3881SOL     OW18692  10.133  12.593   0.851  0.0483 -0.1091 -0.0772
 3881SOL    HW118693  10.228  12.602   0.854 -0.1371  2.2381  1.8463
 3881SOL    HW218694  10.109  12.563   0.939 -1.0475  0.5058 -0.1508
 3882SOL     OW18695   7.286   7.329   1.414 -0.0946 -0.1880 -0.4233
 3882SOL    HW118696   7.284   7.362   1.324 -2.0533 -1.1167 -0.7588
 3882SOL    HW218697   7.209   7.367   1.455  1.1427  0.7937  1.1417
 3883SOL     OW18698   8.000   4.852   3.710 -0.1613  0.3106 -0.3436
 3883SOL    HW118699   7.989   4.863   3.804 -1.1304 -0.2567 -0.3759
 3883SOL    HW218700   7.916   4.819   3.679  0.7817 -1.5985 -1.0650
 3884SOL     OW18701   8.663   7.898   2.073  0.1317  0.2757  0.5594
 3884SOL    HW118702   8.626   7.979   2.109  0.2495 -0.2905  2.0289
 3884SOL    HW218703   8.738   7.880   2.129  0.1541 -0.7994  0.1886
 3885SOL     OW18704   4.666   3.897   5.841 -0.2761  0.3366 -0.0738
 3885SOL    HW118705   4.669   3.976   5.786  0.2013  0.5607  0.2667
 3885SOL    HW218706   4.625   3.831   5.785  0.2941  0.5345 -0.7493
 3886SOL     OW18707   5.521   2.519   2.670 -0.2479  0.0384 -0.0363
 3886SOL    HW118708   5.599   2.575   2.663 -0.8592  0.9156 -0.0175
 3886SOL    HW218709   5.513   2.478   2.584 -0.8529  1.4548 -0.7041
 3887SOL     OW18710  12.453   7.427  12.558 -0.3732 -0.0747  0.4194
 3887SOL    HW118711  12.395   7.504  12.564  1.7061  1.6257 -0.0597
 3887SOL    HW218712  12.435   7.391  12.471  0.2299  1.2733 -0.2975
 3888SOL     OW18713   5.481   1.832   6.769  0.4683  0.7068 -0.2598
 3888SOL    HW118714   5.465   1.767   6.700  0.9117  0.0385  0.2476
 3888SOL    HW218715   5.509   1.780   6.845  2.1334  1.5644 -0.2280
 3889SOL     OW18716   8.178   3.502  12.154  0.2401 -0.0511  0.7906
 3889SOL    HW118717   8.209   3.455  12.076  1.3100 -1.2170  1.8683
 3889SOL    HW218718   8.116   3.566  12.120 -0.6469 -1.6811 -0.8423
 3890SOL     OW18719   1.901   2.334  11.189 -0.0243  0.4844 -0.2567
 3890SOL    HW118720   1.844   2.404  11.156 -0.8997 -0.5213 -0.9343
 3890SOL    HW218721   1.865   2.312  11.275 -0.6491 -0.1259 -0.6695
 3891SOL     OW18722   9.814   8.944   3.909 -0.5130 -0.1925  0.4032
 3891SOL    HW118723   9.901   8.973   3.937 -0.7148 -0.0019  0.8421
 3891SOL    HW218724   9.824   8.850   3.895 -0.1998 -0.1466  0.3156
 3892SOL     OW18725   6.036   7.291   3.953 -0.0705  0.7342  0.4590
 3892SOL    HW118726   6.083   7.349   3.894  1.3717 -0.2363  0.6193
 3892SOL    HW218727   6.005   7.220   3.897  0.8427  0.0832  0.7751
 3893SOL     OW18728   0.047   6.727   6.755 -1.2359  0.0545 -0.0721
 3893SOL    HW118729   0.068   6.717   6.848 -1.3554  0.7791  0.0394
 3893SOL    HW218730   0.129   6.706   6.710 -1.3537 -0.9437  0.1538
 3894SOL     OW18731   0.694  10.993  11.685 -0.5769  0.8132  0.5083
 3894SOL    HW118732   0.675  10.979  11.592  0.5129  0.8796  0.2651
 3894SOL    HW218733   0.608  10.987  11.727 -0.8256 -1.7749 -0.1711
 3895SOL     OW18734   4.764   0.417   1.469  0.3631 -0.1455  0.4502
 3895SOL    HW118735   4.787   0.325   1.483 -0.7925 -0.6294 -0.6544
 3895SOL    HW218736   4.772   0.456   1.556  0.9906 -1.2521  0.9230
 3896SOL     OW18737   7.373   2.457  11.317 -0.2618  0.2650 -0.5751
 3896SOL    HW118738   7.301   2.396  11.334  0.4715 -0.7220 -0.9951
 3896SOL    HW218739   7.415   2.467  11.402  0.3255 -0.7366 -0.7360
 3897SOL     OW18740   0.199   2.859  12.432  0.5677  0.0149  0.0798
 3897SOL    HW118741   0.233   2.911  12.360  2.1543 -1.8363 -0.6001
 3897SOL    HW218742   0.154   2.922  12.488  3.1486  2.2945 -0.1876
 3898SOL     OW18743   3.622  10.347   0.822  1.0295  0.1182 -0.2976
 3898SOL    HW118744   3.664  10.403   0.756 -2.1569  1.7142 -1.1614
 3898SOL    HW218745   3.614  10.262   0.779 -1.4756  1.2654 -2.3514
 3899SOL     OW18746   5.305  12.426   3.293  0.5499 -0.0165  0.0099
 3899SOL    HW118747   5.358  12.381   3.358  0.5910  0.0176  0.0005
 3899SOL    HW218748   5.215  12.414   3.322  0.5147 -0.7387 -0.3912
 3900SOL     OW18749   7.112   2.926   9.139  0.3612 -0.5743 -0.2242
 3900SOL    HW118750   7.120   2.846   9.190  2.5621 -0.3366 -0.1051
 3900SOL    HW218751   7.089   2.896   9.051 -2.1898 -1.0578  0.5201
 3901SOL     OW18752  10.981   1.213   2.937  0.1013  0.4129 -0.1704
 3901SOL    HW118753  10.943   1.183   2.854  0.7157  1.8480 -1.0174
 3901SOL    HW218754  11.076   1.213   2.921  0.1934  1.3458  0.2741
 3902SOL     OW18755   8.436   7.015  11.800 -0.6155 -0.0730  0.0414
 3902SOL    HW118756   8.342   7.000  11.811 -0.6569  0.6692  0.7442
 3902SOL    HW218757   8.471   7.020  11.889  0.1910 -0.8767 -0.2105
 3903SOL     OW18758   6.628   5.625   8.513 -0.5811 -0.3272 -0.5226
 3903SOL    HW118759   6.564   5.674   8.461 -0.7756  0.0681  0.0724
 3903SOL    HW218760   6.700   5.687   8.526 -0.7130 -0.2774  0.0117
 3904SOL     OW18761  12.553   2.910  11.442 -0.1182 -0.8862 -0.4111
 3904SOL    HW118762  12.575   2.841  11.379 -0.1119 -0.2898 -1.0763
 3904SOL    HW218763  12.559   2.991  11.392  0.6619 -0.3234  0.5659
 3905SOL     OW18764  11.607  11.361   4.044  0.0167  0.0440 -0.4878
 3905SOL    HW118765  11.626  11.407   3.962  0.0203 -1.8121 -1.5903
 3905SOL    HW218766  11.625  11.426   4.112 -0.6693  1.8830 -1.9541
 3906SOL     OW18767   1.316   7.867   6.311  0.0982  0.3304  0.1466
 3906SOL    HW118768   1.279   7.880   6.398  0.6449  1.0572  0.2809
 3906SOL    HW218769   1.240   7.864   6.253 -0.3204 -0.8693  0.7173
 3907SOL     OW18770  11.589  11.682   7.187  0.2619 -0.5088 -0.1007
 3907SOL    HW118771  11.514  11.628   7.212 -0.2175  0.8460  1.6298
 3907SOL    HW218772  11.570  11.708   7.096 -0.7184 -1.2120 -0.1189
 3908SOL     OW18773  10.209   6.295   4.595 -0.1792 -0.5111  0.0462
 3908SOL    HW118774  10.231   6.202   4.598  1.3077 -0.1491  1.0546
 3908SOL    HW218775  10.293   6.341   4.596 -0.8842  0.8676 -0.3047
 3909SOL     OW18776   7.100  10.196   0.220 -1.0041 -0.0898  0.0166
 3909SOL    HW118777   7.154  10.192   0.299  1.9951 -1.6976 -1.8809
 3909SOL    HW218778   7.132  10.272   0.173 -0.2300 -1.1111 -1.1774
 3910SOL     OW18779  10.221   5.562   0.361 -0.5253 -0.1255 -0.1563
 3910SOL    HW118780  10.230   5.620   0.437  0.2746  2.3916 -2.0564
 3910SOL    HW218781  10.168   5.489   0.393 -2.3130  2.0328  2.1747
 3911SOL     OW18782   6.968  11.465   9.987  0.2566  0.2846 -0.3817
 3911SOL    HW118783   6.989  11.414   9.909 -0.6575  0.3613 -0.6909
 3911SOL    HW218784   6.991  11.407  10.060  0.2309 -0.1606 -0.7197
 3912SOL     OW18785   8.980   3.816   7.897  0.4549  0.1666 -0.0199
 3912SOL    HW118786   8.923   3.823   7.974  0.4976  0.1761  0.0108
 3912SOL    HW218787   9.063   3.785   7.932  0.2899 -0.4275 -0.1462
 3913SOL     OW18788   9.855   8.743   4.543  0.1257 -0.0470  0.0546
 3913SOL    HW118789   9.889   8.824   4.505 -0.5349 -1.2932 -3.5945
 3913SOL    HW218790   9.763   8.741   4.515 -0.1802 -1.4855  1.0726
 3914SOL     OW18791   0.865   8.383   2.525 -0.3750 -0.3028 -0.5223
 3914SOL    HW118792   0.834   8.302   2.566  1.3961 -0.9536 -0.4123
 3914SOL    HW218793   0.950   8.399   2.564  1.8518 -1.4301 -4.3808
 3915SOL     OW18794   9.246   8.075   4.778  0.2927  0.2538  0.4374
 3915SOL    HW118795   9.323   8.125   4.804 -1.1870  2.1857  1.3168
 3915SOL    HW218796   9.264   8.048   4.688  0.9673  2.8966 -0.3071
 3916SOL     OW18797   7.200   2.454   8.555 -0.3216  0.0008 -0.7919
 3916SOL    HW118798   7.222   2.536   8.600 -0.4251  0.2526 -1.1923
 3916SOL    HW218799   7.284   2.411   8.541 -0.4080 -0.8611  1.0807
 3917SOL     OW18800   3.640   0.523  12.214 -0.0475  0.3396 -0.6319
 3917SOL    HW118801   3.679   0.591  12.159 -0.2378 -0.0547 -1.2671
 3917SOL    HW218802   3.556   0.560  12.242  0.9869  1.4534  1.2608
 3918SOL     OW18803   2.466   7.469   5.570  0.0136 -0.7297 -0.6496
 3918SOL    HW118804   2.449   7.384   5.531  1.8395 -0.7756 -1.4549
 3918SOL    HW218805   2.470   7.453   5.664 -0.5702 -1.3423 -0.7262
 3919SOL     OW18806   5.763   9.862   6.471  0.7463  0.3747  0.3334
 3919SOL    HW118807   5.765   9.780   6.521 -1.2663  0.4742  0.6729
 3919SOL    HW218808   5.670   9.877   6.455  1.2290  1.1928 -2.0929
 3920SOL     OW18809   7.293   9.384   4.185  0.1580  0.3645 -0.2002
 3920SOL    HW118810   7.256   9.343   4.263 -1.1086 -1.1109 -1.5050
 3920SOL    HW218811   7.217   9.407   4.132  0.9558  2.2406 -0.6000
 3921SOL     OW18812   3.817   7.726   0.927  0.0123 -0.1740  0.7525
 3921SOL    HW118813   3.842   7.649   0.979  2.2436 -0.1217 -0.1390
 3921SOL    HW218814   3.896   7.749   0.878 -1.1124  1.6531 -0.3311
 3922SOL     OW18815   8.442   7.289   0.054 -0.2477  0.0064  0.2439
 3922SOL    HW118816   8.502   7.218   0.032 -1.3442 -2.0585  3.3466
 3922SOL    HW218817   8.489   7.369   0.028  3.5969 -1.4828  1.8353
 3923SOL     OW18818   3.457   6.726   7.738  0.4335  0.1773 -0.1468
 3923SOL    HW118819   3.547   6.699   7.717  1.4851  2.4824  1.0278
 3923SOL    HW218820   3.433   6.671   7.813  1.2719  0.2023  0.1552
 3924SOL     OW18821   8.218   9.539   7.715 -0.1496  0.1619 -0.0717
 3924SOL    HW118822   8.303   9.555   7.675 -0.0805  0.7802  0.3097
 3924SOL    HW218823   8.158   9.594   7.665 -0.0319  1.0821  0.7781
 3925SOL     OW18824   0.441   1.803   3.367  0.0455  0.2586 -0.4440
 3925SOL    HW118825   0.471   1.745   3.297  0.1769  1.2745 -1.2367
 3925SOL    HW218826   0.434   1.889   3.327 -1.4030  0.5746  0.3826
 3926SOL     OW18827   7.333   8.107   5.268  0.2442 -0.4201 -0.3223
 3926SOL    HW118828   7.386   8.149   5.201  0.7865  0.3815  0.5901
 3926SOL    HW218829   7.251   8.157   5.269  0.4425 -0.1015 -0.0225
 3927SOL     OW18830   7.978   9.653   3.773 -0.1849  0.0785  0.3729
 3927SOL    HW118831   7.992   9.734   3.824  0.4424 -0.3744  0.9378
 3927SOL    HW218832   8.056   9.601   3.789  0.5965  0.4062 -2.0256
 3928SOL     OW18833   5.719   9.468   2.233 -0.0686  0.0785 -0.2850
 3928SOL    HW118834   5.790   9.465   2.298 -0.2536 -0.7701 -0.1128
 3928SOL    HW218835   5.663   9.539   2.264 -1.2744 -1.6094  1.7214
 3929SOL     OW18836  11.488   4.581  11.346  0.2118  0.1013 -0.4051
 3929SOL    HW118837  11.470   4.489  11.325 -1.3128  0.1551  0.5221
 3929SOL    HW218838  11.547   4.610  11.276  2.0765 -2.0019  0.1793
 3930SOL     OW18839   9.332   1.201  11.457  0.2104 -0.0681 -0.0118
 3930SOL    HW118840   9.257   1.143  11.472  1.4848 -1.4838  1.2031
 3930SOL    HW218841   9.405   1.142  11.438  1.3519  1.1979  0.2998
 3931SOL     OW18842   3.786   6.450   2.715 -0.5081  0.4363 -0.5728
 3931SOL    HW118843   3.817   6.386   2.651 -0.8854  0.9310 -1.2641
 3931SOL    HW218844   3.816   6.416   2.800  1.5072  0.6367 -1.1471
 3932SOL     OW18845   8.104   8.100  10.963  0.0411 -0.7168 -0.5291
 3932SOL    HW118846   8.116   8.033  10.895 -1.1238 -0.1956 -1.2801
 3932SOL    HW218847   8.106   8.052  11.045 -2.8957 -2.0662 -1.1171
 3933SOL     OW18848   4.765   9.787  10.297  0.1663 -0.0778 -0.3082
 3933SOL    HW118849   4.797   9.698  10.284  0.1678 -0.2804  0.9392
 3933SOL    HW218850   4.774   9.802  10.391  0.2704  1.2877 -0.5155
 3934SOL     OW18851   8.312   2.273   4.532  0.8606  0.1954  0.4021
 3934SOL    HW118852   8.276   2.359   4.554  0.0796 -0.2869  1.0960
 3934SOL    HW218853   8.385   2.261   4.593 -0.7209 -0.7440  2.2046
 3935SOL     OW18854   0.638   4.475   4.156  0.3901  0.2333  0.2156
 3935SOL    HW118855   0.553   4.441   4.127  0.2116  1.0118 -0.2111
 3935SOL    HW218856   0.616   4.554   4.207  0.8153 -0.0186  0.7974
 3936SOL     OW18857   8.621   0.073   4.860  0.3453  0.6309 -0.2571
 3936SOL    HW118858   8.583   0.010   4.800 -0.2719 -0.1508  0.9189
 3936SOL    HW218859   8.562   0.148   4.858  0.6228  0.8371 -1.0164
 3937SOL     OW18860   7.337   0.031   9.991  0.8417  0.6739 -0.0409
 3937SOL    HW118861   7.389  -0.046   9.970 -1.3689 -0.3798 -2.0915
 3937SOL    HW218862   7.338   0.083   9.911 -0.1110  1.2993  0.3370
 3938SOL     OW18863   4.412   0.210  11.292 -0.3894 -0.3442 -0.0440
 3938SOL    HW118864   4.496   0.252  11.305 -0.7563  0.4497 -0.1989
 3938SOL    HW218865   4.434   0.120  11.267  0.3963 -0.2833  0.4080
 3939SOL     OW18866   4.916   1.836   8.843 -0.0809  0.3431  0.3753
 3939SOL    HW118867   4.862   1.911   8.866 -0.2637  1.0180 -1.9883
 3939SOL    HW218868   4.948   1.855   8.755  4.5460  0.2501  1.7912
 3940SOL     OW18869   6.118   1.412   1.691 -0.1033 -0.2248 -0.0157
 3940SOL    HW118870   6.035   1.454   1.712 -0.0960 -1.2287  2.3694
 3940SOL    HW218871   6.094   1.336   1.639 -0.6305 -0.2229  0.2223
 3941SOL     OW18872  11.000  10.480  10.726  0.1545 -0.3868  0.5035
 3941SOL    HW118873  10.932  10.522  10.779  1.7209  1.3538  1.2857
 3941SOL    HW218874  11.081  10.520  10.757  1.2839 -0.1737 -2.4076
 3942SOL     OW18875   9.808   0.811  12.470  0.0288  0.3376 -0.6096
 3942SOL    HW118876   9.763   0.856  12.541  0.2622 -0.6663  0.2004
 3942SOL    HW218877   9.871   0.874  12.437  0.3906  0.5980  0.5367
 3943SOL     OW18878   2.310   1.944   7.220 -0.0807 -0.0142 -1.2611
 3943SOL    HW118879   2.262   1.862   7.215  1.8284 -1.2553 -0.2257
 3943SOL    HW218880   2.318   1.973   7.129 -3.1771  0.5702 -1.4631
 3944SOL     OW18881  12.371   1.300   5.985 -0.1845  0.2492  0.1626
 3944SOL    HW118882  12.457   1.266   6.007 -0.1686  0.0551 -0.1884
 3944SOL    HW218883  12.343   1.347   6.063  1.0259  1.8871 -0.3341
 3945SOL     OW18884   1.847   6.271   3.048  0.1758  0.3481  0.6168
 3945SOL    HW118885   1.805   6.203   2.996  2.1070 -0.0544 -0.4943
 3945SOL    HW218886   1.835   6.243   3.139 -0.9074 -0.3463  0.2739
 3946SOL     OW18887   3.947  12.531   5.183  0.3653 -0.3654  0.7133
 3946SOL    HW118888   3.863  12.560   5.150  1.2763  2.0550  0.3594
 3946SOL    HW218889   3.993  12.611   5.207  1.7750 -1.7187  2.9152
 3947SOL     OW18890   5.823   8.616   6.133  0.3320  0.0451  0.3368
 3947SOL    HW118891   5.826   8.619   6.229  0.1150  0.0588  0.3438
 3947SOL    HW218892   5.914   8.608   6.107  0.3885 -0.0186  0.5480
 3948SOL     OW18893   5.353   1.191  10.790  0.3781  0.0833  0.4662
 3948SOL    HW118894   5.318   1.279  10.781  0.8190  0.2495  0.3266
 3948SOL    HW218895   5.324   1.161  10.876 -0.3234  0.1111  0.2423
 3949SOL     OW18896   5.438   2.662   5.362  0.4129 -0.4470 -0.4628
 3949SOL    HW118897   5.411   2.688   5.449 -1.9962  0.9149 -1.5233
 3949SOL    HW218898   5.464   2.744   5.319  0.4837 -0.9184 -1.3489
 3950SOL     OW18899  10.980   2.815  11.974  0.1630 -0.2470  0.2799
 3950SOL    HW118900  11.007   2.906  11.981 -0.8142  0.1949 -1.2491
 3950SOL    HW218901  10.894   2.812  12.015  0.0127 -0.3827 -0.0377
 3951SOL     OW18902   0.026   3.934  11.363 -0.1102  0.8958 -0.1925
 3951SOL    HW118903   0.053   3.989  11.437 -2.5010  0.7435  0.8704
 3951SOL    HW218904   0.034   3.992  11.287  1.0390  1.4988  0.3454
 3952SOL     OW18905  12.185   1.250  11.998  0.1912  0.3266 -0.1298
 3952SOL    HW118906  12.182   1.224  11.906 -1.5854  1.5263 -0.4576
 3952SOL    HW218907  12.223   1.338  11.996  2.6466 -0.6349  0.5957
 3953SOL     OW18908   3.856  10.925  11.694  1.0412 -0.0107 -0.4462
 3953SOL    HW118909   3.899  10.890  11.617 -0.1730 -0.9801 -0.7179
 3953SOL    HW218910   3.915  10.905  11.767  1.3854 -0.6565 -0.8981
 3954SOL     OW18911   1.006   9.021   8.907 -0.2702 -0.1356 -0.2206
 3954SOL    HW118912   0.913   9.031   8.926 -0.0154  1.4562  0.3167
 3954SOL    HW218913   1.039   9.110   8.901  1.1381 -0.6725 -0.9075
 3955SOL     OW18914   8.644   1.232   1.679  0.5181  0.2484  0.2283
 3955SOL    HW118915   8.699   1.238   1.757 -0.6054  1.9676  0.9610
 3955SOL    HW218916   8.619   1.323   1.661  1.2208 -0.0171 -2.5089
 3956SOL     OW18917   0.849   1.608   9.119 -0.0862 -0.1315 -0.0802
 3956SOL    HW118918   0.936   1.593   9.155 -0.0208  1.9098  0.7375
 3956SOL    HW218919   0.789   1.585   9.191 -0.1815 -0.3248 -0.2179
 3957SOL     OW18920   7.980   2.566   2.638  0.4506  0.5015  0.0830
 3957SOL    HW118921   8.028   2.500   2.688  0.0393  0.2197  0.1028
 3957SOL    HW218922   7.896   2.575   2.684  0.6387  1.3011  0.2977
 3958SOL     OW18923   2.786   9.318  10.949 -0.3371 -0.4707  0.5317
 3958SOL    HW118924   2.759   9.409  10.967 -0.2269 -0.7202  2.0960
 3958SOL    HW218925   2.789   9.313  10.854 -1.8726  0.7338  0.3662
 3959SOL     OW18926   1.973   7.734  10.481  0.6423 -0.1334 -0.1449
 3959SOL    HW118927   1.971   7.803  10.548 -0.1255  0.3862 -0.6777
 3959SOL    HW218928   1.999   7.655  10.529  0.4140  0.2901  0.7111
 3960SOL     OW18929   1.534  11.018   6.500 -0.4467  0.1964 -0.7597
 3960SOL    HW118930   1.544  10.939   6.446  0.0138 -1.5001  1.6573
 3960SOL    HW218931   1.444  11.013   6.533  0.1122 -0.2885  0.7641
 3961SOL     OW18932  11.710   5.137  11.415  0.2249 -0.1242  0.3698
 3961SOL    HW118933  11.648   5.073  11.448  0.4161 -1.4520 -1.6944
 3961SOL    HW218934  11.784   5.085  11.382  1.0432  1.2269 -0.0448
 3962SOL     OW18935   9.269   0.332   5.346 -0.1045 -0.7222  0.0915
 3962SOL    HW118936   9.316   0.345   5.264 -1.2746  1.8194 -0.2994
 3962SOL    HW218937   9.305   0.399   5.405 -2.1215  0.3431  0.2124
 3963SOL     OW18938   0.742   7.657  10.286  0.4940 -0.2915  0.0441
 3963SOL    HW118939   0.653   7.674  10.256  0.5619  0.6579  0.3384
 3963SOL    HW218940   0.774   7.743  10.315  1.3683 -0.6916  0.2917
 3964SOL     OW18941  11.862   6.726  11.026  0.2033  0.0558  0.1518
 3964SOL    HW118942  11.892   6.762  10.942  2.3437  0.5198  1.0575
 3964SOL    HW218943  11.800   6.791  11.059  0.7590  0.7967 -0.2168
 3965SOL     OW18944  11.969  10.271   9.368  0.1726 -0.2846 -0.3385
 3965SOL    HW118945  11.893  10.305   9.415  0.3817 -0.4639  0.1297
 3965SOL    HW218946  12.039  10.334   9.386  0.0938 -0.0160 -0.9225
 3966SOL     OW18947   2.175   5.132   5.467 -0.0605  0.2238 -0.2321
 3966SOL    HW118948   2.100   5.136   5.406 -0.6714  0.0867  0.5007
 3966SOL    HW218949   2.157   5.056   5.522 -0.1872  1.1018  0.9701
 3967SOL     OW18950   3.208  11.026   4.018 -0.0152  0.1812  0.0196
 3967SOL    HW118951   3.274  11.090   3.989  1.0925  0.0930  2.1372
 3967SOL    HW218952   3.241  10.942   3.985  1.3779  0.0428  1.6251
 3968SOL     OW18953   0.850   1.286   7.351 -0.2103 -0.2550 -0.5789
 3968SOL    HW118954   0.801   1.366   7.334 -0.3185  0.3579  2.0970
 3968SOL    HW218955   0.936   1.317   7.380 -0.4347 -1.0240  1.0221
 3969SOL     OW18956   3.782  10.710   7.712 -0.1365 -0.3614 -0.3507
 3969SOL    HW118957   3.764  10.794   7.754  1.0976 -0.7370  1.0408
 3969SOL    HW218958   3.865  10.681   7.751 -2.1921 -3.8728  1.9588
 3970SOL     OW18959   5.906  12.182  11.986 -0.0648  0.6043 -0.5459
 3970SOL    HW118960   5.888  12.264  11.940  1.6655 -0.0435 -2.5272
 3970SOL    HW218961   5.994  12.194  12.023  0.4044 -0.4884 -1.2534
 3971SOL     OW18962   5.189   1.593   1.465  0.4150 -0.2916 -0.3221
 3971SOL    HW118963   5.104   1.628   1.491 -0.4726 -0.2945 -2.9114
 3971SOL    HW218964   5.253   1.655   1.501 -0.6845 -0.0141  1.2310
 3972SOL     OW18965   3.937   0.716  10.822  0.3755  0.5717 -0.4199
 3972SOL    HW118966   3.907   0.663  10.749 -0.4125  0.3731  0.0456
 3972SOL    HW218967   4.031   0.730  10.804  0.4635 -0.4856 -0.8328
 3973SOL     OW18968  10.211  12.397  11.505  0.0464  0.2610 -0.0817
 3973SOL    HW118969  10.204  12.317  11.453 -1.3330 -1.1810  2.1795
 3973SOL    HW218970  10.149  12.457  11.464 -1.2687 -0.9556  0.0849
 3974SOL     OW18971  11.886   2.566   0.749 -0.8199 -0.0759  0.1579
 3974SOL    HW118972  11.803   2.522   0.732  0.0414 -1.8858  0.4082
 3974SOL    HW218973  11.876   2.603   0.837 -2.0284  1.4642 -0.5699
 3975SOL     OW18974   1.009   4.493   1.376  0.4658  0.2449 -0.1755
 3975SOL    HW118975   1.064   4.437   1.431  0.5507  0.5046  0.0106
 3975SOL    HW218976   0.919   4.467   1.397  0.5175 -0.2276 -0.5326
 3976SOL     OW18977  10.143   5.592  10.533  0.1266 -0.5724 -0.5812
 3976SOL    HW118978  10.070   5.552  10.487  1.9980 -2.1329 -2.3982
 3976SOL    HW218979  10.138   5.685  10.512 -2.2770 -0.2922  0.8187
 3977SOL     OW18980   3.540   2.268   7.675 -0.1884  0.2518 -0.0146
 3977SOL    HW118981   3.571   2.359   7.672 -1.8364  0.8396 -0.2380
 3977SOL    HW218982   3.619   2.216   7.689  0.8605  1.6744 -0.4542
 3978SOL     OW18983   2.978  11.161   1.541 -0.2347 -0.1963 -0.4791
 3978SOL    HW118984   3.014  11.193   1.459 -0.1430 -0.4827 -0.5518
 3978SOL    HW218985   2.886  11.186   1.539 -0.0143  0.6411 -0.2390
 3979SOL     OW18986   1.554   5.699   7.172 -0.3519 -0.4943 -0.0206
 3979SOL    HW118987   1.590   5.637   7.108 -0.7477  0.6699 -1.4234
 3979SOL    HW218988   1.601   5.781   7.154 -0.0585 -0.2855  1.5940
 3980SOL     OW18989  10.024   9.935   3.992  0.5931 -0.3545 -0.0676
 3980SOL    HW118990  10.014   9.880   4.069  1.4639  0.2275  0.4817
 3980SOL    HW218991  10.075   9.882   3.931  1.0731 -0.3303  0.2996
 3981SOL     OW18992   7.436  11.235   8.781  0.1946  0.2215  0.0655
 3981SOL    HW118993   7.508  11.174   8.795  0.4216  0.8122  1.6711
 3981SOL    HW218994   7.468  11.318   8.815 -0.7603  0.8272 -0.4549
 3982SOL     OW18995   9.365   6.754   8.885 -0.3601 -0.3124 -0.7026
 3982SOL    HW118996   9.353   6.665   8.852 -1.1315  0.0786 -1.5380
 3982SOL    HW218997   9.437   6.790   8.833  0.0337 -0.4847 -0.2802
 3983SOL     OW18998   2.420  10.437   7.785 -0.3712  0.4080  0.0138
 3983SOL    HW118999   2.412  10.531   7.766 -1.3883  0.4727  0.6436
 3983SOL    HW219000   2.512  10.417   7.770 -0.1759  1.4691 -0.3087
 3984SOL     OW19001   3.931   3.331   3.183  0.4542  0.2195  0.5602
 3984SOL    HW119002   3.901   3.240   3.179  0.9738 -0.0160  1.5760
 3984SOL    HW219003   3.892   3.365   3.264  0.0695  0.9804  0.0628
 3985SOL     OW19004   7.866   5.902   4.735 -0.6226  0.2574 -0.4242
 3985SOL    HW119005   7.892   5.930   4.823  1.1009 -1.6076 -0.2701
 3985SOL    HW219006   7.771   5.891   4.740 -0.3161 -2.6250  2.1647
 3986SOL     OW19007   1.217   4.984   6.274  0.4164  0.0095  0.1505
 3986SOL    HW119008   1.269   4.915   6.232  0.0325  0.4947 -1.1811
 3986SOL    HW219009   1.279   5.031   6.329  1.0935 -0.2485 -0.3772
 3987SOL     OW19010   0.256   5.046   3.066  0.5192 -0.5896 -0.1939
 3987SOL    HW119011   0.177   5.046   3.011  0.5290 -2.1933 -0.2471
 3987SOL    HW219012   0.284   5.137   3.067  0.1280 -0.3857 -2.3002
 3988SOL     OW19013   1.601   1.146   4.602 -0.7363 -0.4984  0.3888
 3988SOL    HW119014   1.600   1.050   4.597  1.5724 -0.7064  1.8561
 3988SOL    HW219015   1.617   1.175   4.513 -1.2697 -1.4839 -0.0435
 3989SOL     OW19016  10.321   3.787   2.518  0.0540  0.1518 -0.3075
 3989SOL    HW119017  10.383   3.823   2.455  1.6190  1.9485  2.0407
 3989SOL    HW219018  10.255   3.856   2.529 -3.0635 -2.0225 -3.3433
 3990SOL     OW19019   2.163   7.715   3.074  0.1397 -0.3828 -0.4445
 3990SOL    HW119020   2.157   7.715   3.169  1.1891 -0.6237 -0.3756
 3990SOL    HW219021   2.251   7.684   3.054 -0.3271 -1.0937 -1.5154
 3991SOL     OW19022  11.088   1.863   9.250  0.0275 -0.5251 -0.1368
 3991SOL    HW119023  11.096   1.786   9.306  1.2474  0.9282  1.8210
 3991SOL    HW219024  11.023   1.918   9.294 -1.2853 -0.6421 -1.8361
 3992SOL     OW19025   0.623  12.385   5.376  0.1104 -0.0155  0.0660
 3992SOL    HW119026   0.697  12.343   5.332  0.3302  1.7766 -1.3997
 3992SOL    HW219027   0.547  12.360   5.324  0.0610  0.2905 -0.0122
 3993SOL     OW19028   1.485   5.243   5.132  0.4026  0.3660 -0.5705
 3993SOL    HW119029   1.442   5.159   5.144  1.7169 -0.3146 -0.3529
 3993SOL    HW219030   1.493   5.278   5.221 -0.1606  0.7279 -0.6629
 3994SOL     OW19031   6.309   1.614   9.634 -0.1964 -0.0681 -0.5017
 3994SOL    HW119032   6.352   1.686   9.680 -0.6575 -0.6633  0.9201
 3994SOL    HW219033   6.368   1.539   9.646 -0.5870 -0.3638 -0.4035
 3995SOL     OW19034   1.404   2.622  11.039 -0.1608  0.4611  0.2683
 3995SOL    HW119035   1.371   2.539  11.006 -1.3078  0.8549  0.3723
 3995SOL    HW219036   1.445   2.600  11.123  2.4358 -0.4815 -1.1380
 3996SOL     OW19037   0.413  11.260  11.519 -0.6613  0.0097  0.0830
 3996SOL    HW119038   0.436  11.267  11.612  0.7353  1.8910 -0.3563
 3996SOL    HW219039   0.473  11.193  11.485 -0.7705 -0.2493  0.3886
 3997SOL     OW19040  10.851   8.978   5.736 -0.2068 -0.0655  0.0379
 3997SOL    HW119041  10.772   8.973   5.683 -1.3873  0.6356  1.6690
 3997SOL    HW219042  10.908   8.910   5.701 -1.3979 -0.3690 -1.3691
 3998SOL     OW19043   9.083  12.226   6.142  0.0111  0.1807  0.0465
 3998SOL    HW119044   9.091  12.133   6.164  0.3326  0.2851  0.3777
 3998SOL    HW219045   9.041  12.266   6.219  2.7385  0.8630  1.2988
 3999SOL     OW19046   4.319   2.457   1.397 -0.5794 -0.2048 -0.0191
 3999SOL    HW119047   4.393   2.440   1.338  0.7424  1.3825  1.0767
 3999SOL    HW219048   4.315   2.553   1.403 -2.0244 -0.2908  0.8436
 4000SOL     OW19049   0.330  10.363   2.887 -0.2778  0.1100 -0.1945
 4000SOL    HW119050   0.259  10.304   2.862 -1.8833  1.9625 -0.2879
 4000SOL    HW219051   0.397  10.350   2.821 -0.6221 -1.4927 -0.2662
 4001SOL     OW19052   5.829   7.212   8.889  0.1215 -0.1652  0.6622
 4001SOL    HW119053   5.830   7.175   8.800  0.4062 -0.6648  0.8695
 4001SOL    HW219054   5.860   7.302   8.878  3.8266 -1.2823  0.7094
 4002SOL     OW19055  12.175   7.149   5.424  0.1198  0.0642 -0.7147
 4002SOL    HW119056  12.181   7.244   5.430  3.4912 -0.0970  1.9995
 4002SOL    HW219057  12.259   7.122   5.386 -0.0383 -1.8363  0.1283
 4003SOL     OW19058   0.733  12.541   3.101  0.8092  0.3384 -0.0769
 4003SOL    HW119059   0.667  12.482   3.064  1.1662  0.0530 -0.2591
 4003SOL    HW219060   0.766  12.591   3.027 -1.7397  3.0924  0.4534
 4004SOL     OW19061   4.962   2.564   2.313  0.5152 -0.2148  0.4839
 4004SOL    HW119062   5.034   2.613   2.273  2.3335 -0.8055  2.8081
 4004SOL    HW219063   4.955   2.600   2.402 -1.8142 -0.4920  0.4799
 4005SOL     OW19064  11.044   7.471   7.363 -0.2888  0.6253 -0.2453
 4005SOL    HW119065  11.044   7.418   7.283  0.0328 -1.8780  1.3196
 4005SOL    HW219066  10.954   7.465   7.395  0.0884 -0.1903  0.6874
 4006SOL     OW19067   1.410   0.986   1.825  0.5753  0.4597  0.0172
 4006SOL    HW119068   1.444   0.919   1.765 -0.6232  0.2772 -0.4691
 4006SOL    HW219069   1.348   1.037   1.773 -0.1683  0.5705  0.9813
 4007SOL     OW19070   8.584   6.692  11.124  0.0354 -0.2432  0.3010
 4007SOL    HW119071   8.543   6.734  11.199 -1.4097  1.1152 -1.1694
 4007SOL    HW219072   8.624   6.763  11.075  0.0593 -0.9408 -0.7352
 4008SOL     OW19073   0.170   0.125   1.795 -0.1051 -0.1297  0.3093
 4008SOL    HW119074   0.221   0.205   1.798  0.5341 -0.5264  0.2783
 4008SOL    HW219075   0.149   0.113   1.703  2.0944 -1.3868 -0.1031
 4009SOL     OW19076   8.651   4.483   5.515  0.5161 -0.1265  0.0080
 4009SOL    HW119077   8.590   4.479   5.442 -0.5661  0.7508  0.8197
 4009SOL    HW219078   8.652   4.395   5.551  1.4730 -0.7030 -1.3581
 4010SOL     OW19079   5.006   1.745   0.137 -0.4069  0.4150 -0.5251
 4010SOL    HW119080   5.041   1.810   0.199 -1.4285 -0.2952  0.8299
 4010SOL    HW219081   4.914   1.768   0.128 -0.6301 -0.4750 -0.5329
 4011SOL     OW19082   5.868   0.331   3.516  0.1218  0.0539  0.8309
 4011SOL    HW119083   5.850   0.405   3.458 -1.4730  0.1829  1.4650
 4011SOL    HW219084   5.788   0.319   3.566  0.1950 -2.3277  0.5078
 4012SOL     OW19085   1.787   5.545   6.098 -0.2911 -0.4875 -0.0838
 4012SOL    HW119086   1.864   5.531   6.044 -0.4365 -0.1279 -0.3905
 4012SOL    HW219087   1.713   5.533   6.038 -0.4318  2.2358 -0.5807
 4013SOL     OW19088   0.371   5.814   5.613 -0.2078  0.2162 -0.3554
 4013SOL    HW119089   0.429   5.738   5.607  0.1141  0.4077  0.2885
 4013SOL    HW219090   0.288   5.778   5.645 -0.5862 -0.1163 -1.6255
 4014SOL     OW19091   4.515   5.789  12.085 -0.1519 -0.0743  0.2959
 4014SOL    HW119092   4.537   5.778  12.178  0.5326  0.1473  0.1717
 4014SOL    HW219093   4.420   5.786  12.082 -0.2942  1.9608  1.2942
 4015SOL     OW19094   3.855   5.664  12.194  0.8238 -0.2178  0.3837
 4015SOL    HW119095   3.771   5.631  12.226  0.0957  0.2273 -0.9440
 4015SOL    HW219096   3.879   5.604  12.123  0.5984  0.7604 -0.5616
 4016SOL     OW19097  12.222   5.748   4.662 -0.3690  0.3550 -0.2391
 4016SOL    HW119098  12.184   5.695   4.592 -0.1094  1.1040 -0.9444
 4016SOL    HW219099  12.267   5.684   4.718  1.2184 -0.0332 -1.8929
 4017SOL     OW19100   4.627  11.991  11.439 -0.4313  0.2090 -0.4026
 4017SOL    HW119101   4.669  12.045  11.372  0.5614 -0.3057 -0.2029
 4017SOL    HW219102   4.549  12.041  11.463 -0.7683  0.4470 -1.8648
 4018SOL     OW19103   7.771   3.993   0.702  0.1299 -0.8268  0.4464
 4018SOL    HW119104   7.864   4.001   0.723 -0.0845 -0.9247  1.5196
 4018SOL    HW219105   7.739   3.924   0.760 -0.4010 -1.5221 -0.6499
 4019SOL     OW19106   2.535  10.042   4.411  0.0303 -0.1394  0.7273
 4019SOL    HW119107   2.591   9.965   4.412  0.4172  0.1406  0.5433
 4019SOL    HW219108   2.449  10.009   4.440  0.2546 -0.5852  0.8942
 4020SOL     OW19109   7.457   7.659   3.051 -0.0381 -0.1342 -0.0134
 4020SOL    HW119110   7.525   7.592   3.041  0.0873 -0.1567  0.8836
 4020SOL    HW219111   7.401   7.627   3.122 -1.0177 -0.1342 -0.7745
 4021SOL     OW19112  11.761   6.496   0.885 -0.0998  0.0078  0.6244
 4021SOL    HW119113  11.824   6.437   0.926 -0.5829 -1.1382 -0.2211
 4021SOL    HW219114  11.705   6.439   0.832 -0.3495  1.2550 -0.5310
 4022SOL     OW19115   8.809   8.524   9.322  0.0600  0.5947 -0.6388
 4022SOL    HW119116   8.715   8.507   9.327  0.1438  0.3936  0.8797
 4022SOL    HW219117   8.849   8.450   9.367  1.0992 -0.3005 -2.9094
 4023SOL     OW19118   4.243  12.081   2.234  0.1098 -0.1914  0.3027
 4023SOL    HW119119   4.282  12.149   2.288  1.3271 -1.1295  0.6597
 4023SOL    HW219120   4.313  12.016   2.222 -0.9820 -1.3559 -0.0660
 4024SOL     OW19121   9.735  10.933   7.962 -0.0801  0.0780 -0.4348
 4024SOL    HW119122   9.644  10.963   7.963  0.3413  1.3670  0.0021
 4024SOL    HW219123   9.786  11.006   7.998  1.2287 -0.3266 -1.3929
 4025SOL     OW19124   7.217   3.893   2.317  0.2350 -0.2025  0.0819
 4025SOL    HW119125   7.189   3.866   2.230  1.2285  0.5829 -0.5023
 4025SOL    HW219126   7.266   3.819   2.351  1.3899  0.1385 -0.7760
 4026SOL     OW19127   4.695  12.044   7.390 -0.3489 -0.0162  0.1993
 4026SOL    HW119128   4.770  12.063   7.447 -0.0091  0.3223 -0.3468
 4026SOL    HW219129   4.620  12.038   7.449 -0.3499  2.2796  0.5157
 4027SOL     OW19130   3.911   9.815   9.717 -0.7496 -0.1428 -0.1808
 4027SOL    HW119131   3.904   9.907   9.690 -0.7399  0.1878  0.9119
 4027SOL    HW219132   3.843   9.803   9.783 -0.3736 -0.7646  0.1088
 4028SOL     OW19133   3.074   4.243   5.744  0.5764 -0.3085  0.1454
 4028SOL    HW119134   3.053   4.264   5.835  1.5891 -0.9592  0.5418
 4028SOL    HW219135   3.013   4.174   5.720  0.2253 -0.0484  0.2835
 4029SOL     OW19136   6.999   8.566   7.571 -0.0740 -0.3186 -0.0432
 4029SOL    HW119137   6.967   8.533   7.655  0.0679  0.8132  0.4727
 4029SOL    HW219138   7.022   8.657   7.588  1.7304 -0.5757 -0.8428
 4030SOL     OW19139   2.245   0.348   7.682  0.4839 -0.3016  0.4415
 4030SOL    HW119140   2.200   0.273   7.718 -0.6406  0.1679  0.0433
 4030SOL    HW219141   2.180   0.393   7.629  1.0956  1.0044  0.7342
 4031SOL     OW19142   5.751   2.480  10.488 -0.3225 -0.0547 -0.2978
 4031SOL    HW119143   5.774   2.456  10.577 -2.3397 -0.9195  0.0583
 4031SOL    HW219144   5.796   2.563  10.472  1.1565 -0.5646  1.0121
 4032SOL     OW19145   0.576   6.128   9.636  0.4454 -0.3076 -0.1194
 4032SOL    HW119146   0.513   6.182   9.589  1.8627  4.1773  2.5153
 4032SOL    HW219147   0.535   6.109   9.720  1.1445 -0.7179  0.1442
 4033SOL     OW19148   0.641  10.648  11.222 -0.3068  0.1410  0.3758
 4033SOL    HW119149   0.613  10.735  11.195 -1.2577 -0.0155  0.8209
 4033SOL    HW219150   0.607  10.589  11.154  1.6958  0.2308 -0.8050
 4034SOL     OW19151   5.499   6.318   9.770  0.0216  0.0270  0.1165
 4034SOL    HW119152   5.448   6.339   9.691  1.4298  2.2373 -0.2908
 4034SOL    HW219153   5.590   6.315   9.740  0.6476  1.5210  1.7011
 4035SOL     OW19154   4.982  10.275   0.088 -0.1703  0.3592  0.0137
 4035SOL    HW119155   5.056  10.331   0.067 -0.8793  1.2972 -0.0356
 4035SOL    HW219156   4.956  10.237   0.004 -0.0138  0.3516 -0.0316
 4036SOL     OW19157   3.367  12.499   7.871 -0.5210  0.0395  0.1655
 4036SOL    HW119158   3.375  12.542   7.786 -1.6902  0.7572  0.3821
 4036SOL    HW219159   3.315  12.420   7.853  0.3796 -0.5243  0.0053
 4037SOL     OW19160   9.166   4.663  11.601 -0.1656  0.2412  0.0922
 4037SOL    HW119161   9.182   4.726  11.531 -1.1109  0.4154  0.0195
 4037SOL    HW219162   9.252   4.650  11.642  0.0807  1.4572  0.0072
 4038SOL     OW19163  11.208   7.163   3.196 -0.5668 -0.0460  0.3459
 4038SOL    HW119164  11.232   7.254   3.215 -0.9967  0.4382 -1.2416
 4038SOL    HW219165  11.291   7.120   3.177 -0.4595  0.3508 -0.1304
 4039SOL     OW19166   7.368   6.196  10.324 -0.0566  0.2583 -0.2412
 4039SOL    HW119167   7.395   6.218  10.413  0.3834  0.5186 -0.4322
 4039SOL    HW219168   7.398   6.270  10.271 -0.0057 -0.0528 -0.6569
 4040SOL     OW19169   9.060   4.554   7.671 -0.9887  0.1710  0.7236
 4040SOL    HW119170   9.124   4.603   7.620 -0.8319 -0.7736 -0.0012
 4040SOL    HW219171   9.059   4.467   7.632 -2.6701  0.1455  0.7525
 4041SOL     OW19172   5.517   4.775   5.119 -0.3563 -0.4147 -0.1809
 4041SOL    HW119173   5.508   4.744   5.209  0.3178  0.7357  0.2999
 4041SOL    HW219174   5.576   4.711   5.078  2.6667  1.1549  1.3528
 4042SOL     OW19175   5.943   4.089   2.550 -0.1657 -1.0900 -0.4609
 4042SOL    HW119176   5.947   4.018   2.615 -0.5729 -1.5211 -0.8988
 4042SOL    HW219177   5.867   4.067   2.496  0.6530 -1.1953 -1.6035
 4043SOL     OW19178   2.901   9.451   4.689  0.5596  0.4501  0.3049
 4043SOL    HW119179   2.986   9.436   4.730  0.1005  0.3642  1.2608
 4043SOL    HW219180   2.843   9.474   4.762  0.3274  3.0644 -0.5792
 4044SOL     OW19181   4.471   7.203   1.889  0.1728  0.2309  0.1546
 4044SOL    HW119182   4.402   7.255   1.849 -0.3146 -0.6628 -0.2160
 4044SOL    HW219183   4.425   7.147   1.951  1.0510  2.5047  3.0557
 4045SOL     OW19184   9.780   6.252   8.446 -0.6612  0.6091  0.7893
 4045SOL    HW119185   9.875   6.260   8.457 -0.1380 -1.1525 -1.7695
 4045SOL    HW219186   9.761   6.161   8.469 -1.4139  0.4220 -0.5150
 4046SOL     OW19187   6.705   0.831   5.944 -0.2428 -0.0730 -0.4899
 4046SOL    HW119188   6.665   0.802   6.026  0.3291 -1.7127 -0.7428
 4046SOL    HW219189   6.798   0.841   5.965 -0.1717 -0.0267 -0.8192
 4047SOL     OW19190   1.831   7.413   8.103 -0.3769 -0.0784 -0.2491
 4047SOL    HW119191   1.742   7.436   8.128  0.1333 -0.3295  2.0606
 4047SOL    HW219192   1.821   7.347   8.035 -1.9953 -1.1022  0.9203
 4048SOL     OW19193   4.188   8.803   9.160  0.3235  0.0425 -0.0811
 4048SOL    HW119194   4.197   8.708   9.152  0.2169  0.0082  0.2101
 4048SOL    HW219195   4.244   8.838   9.090 -0.0050 -0.2398 -0.4852
 4049SOL     OW19196   8.747   1.170  10.776  0.2840  0.2023  0.0895
 4049SOL    HW119197   8.843   1.173  10.776  0.3891 -1.5300 -1.1872
 4049SOL    HW219198   8.726   1.079  10.757 -1.6736 -0.3136  3.7765
 4050SOL     OW19199   1.341   3.607   2.460  0.1436 -0.0308  0.0527
 4050SOL    HW119200   1.382   3.685   2.424  0.9891 -0.5898 -0.2172
 4050SOL    HW219201   1.247   3.621   2.446  0.2930  0.8789 -0.0943
 4051SOL     OW19202   0.561   1.600   0.898 -0.6932 -0.1283 -0.3216
 4051SOL    HW119203   0.531   1.510   0.903 -1.3740  0.1395  0.7679
 4051SOL    HW219204   0.655   1.596   0.916 -0.4814 -0.7216 -1.4383
 4052SOL     OW19205   0.719   5.892  10.521  0.0484  0.2526 -0.1584
 4052SOL    HW119206   0.738   5.802  10.494  0.8414  0.1652  0.6117
 4052SOL    HW219207   0.727   5.890  10.617 -1.2263  0.8617 -0.0168
 4053SOL     OW19208  11.927   7.517   1.967 -0.2499  0.2068  0.0517
 4053SOL    HW119209  11.894   7.566   1.892 -1.0700 -0.6395 -0.1577
 4053SOL    HW219210  11.859   7.453   1.986  0.9252 -1.0948  0.1016
 4054SOL     OW19211   4.896   6.517   5.698 -0.8481 -0.2266 -0.6464
 4054SOL    HW119212   4.851   6.561   5.771 -0.8166  0.0953 -0.8166
 4054SOL    HW219213   4.828   6.506   5.632 -0.8086 -0.2559 -0.6817
 4055SOL     OW19214   7.249   6.559   9.179  0.6113  0.4238  0.1729
 4055SOL    HW119215   7.251   6.463   9.174  0.6747  0.3130  1.6596
 4055SOL    HW219216   7.296   6.589   9.102 -1.2710 -0.6755 -1.4919
 4056SOL     OW19217   7.549   9.002   5.194  0.8651 -0.2440 -0.3584
 4056SOL    HW119218   7.470   9.019   5.244  1.6921 -1.3316  1.4311
 4056SOL    HW219219   7.618   9.051   5.239  1.5373 -0.7677 -0.7878
 4057SOL     OW19220   6.530   5.663   3.450 -0.1707  0.2075  0.1790
 4057SOL    HW119221   6.539   5.743   3.501 -0.6078 -0.4384  1.2987
 4057SOL    HW219222   6.556   5.688   3.361  0.9933  1.2591  0.7850
 4058SOL     OW19223   0.155   4.510   4.044 -0.0659 -0.2321  0.5605
 4058SOL    HW119224   0.189   4.599   4.058 -0.1630 -0.1778  0.4614
 4058SOL    HW219225   0.131   4.479   4.131 -4.4300  1.6091  0.2666
 4059SOL     OW19226   1.776   5.881   3.748 -0.4332 -0.5911 -0.1205
 4059SOL    HW119227   1.778   5.899   3.654 -0.4242 -0.5865 -0.1193
 4059SOL    HW219228   1.742   5.961   3.788 -0.5787 -0.6449 -0.1333
 4060SOL     OW19229   7.732   0.049   6.200  0.0563  0.1267 -0.0256
 4060SOL    HW119230   7.661   0.079   6.143 -1.0791  1.0918  1.7989
 4060SOL    HW219231   7.811   0.062   6.148 -0.9983 -0.0731 -1.7724
 4061SOL     OW19232   4.210   9.526   1.594  0.2041 -0.4883 -0.7274
 4061SOL    HW119233   4.130   9.565   1.629  0.8645  0.8972 -0.7252
 4061SOL    HW219234   4.182   9.486   1.511 -0.5354 -0.2379 -0.6084
 4062SOL     OW19235   2.203  12.175  10.301  0.3852 -0.2538  0.2534
 4062SOL    HW119236   2.262  12.102  10.321 -0.4417 -0.9565  0.1532
 4062SOL    HW219237   2.179  12.211  10.386 -2.9895 -3.1303  0.7531
 4063SOL     OW19238  10.848   4.862   2.223 -1.0344  0.1515  0.2912
 4063SOL    HW119239  10.923   4.900   2.269 -0.9423  0.4990 -0.1343
 4063SOL    HW219240  10.811   4.799   2.284  0.1718 -0.7300  0.1510
 4064SOL     OW19241   5.849   4.287   7.824 -0.2392 -0.0299  0.0572
 4064SOL    HW119242   5.825   4.370   7.864 -2.4861 -0.3273 -0.5625
 4064SOL    HW219243   5.772   4.261   7.773 -0.5729 -3.6183  2.0761
 4065SOL     OW19244   7.990   9.426   0.352 -0.2203 -0.2711 -0.4350
 4065SOL    HW119245   8.082   9.436   0.379 -0.0987  0.4581 -1.0995
 4065SOL    HW219246   7.989   9.344   0.303 -0.4473 -1.6394  1.7160
 4066SOL     OW19247   8.896   3.768   1.935  0.2972 -0.2582 -0.0784
 4066SOL    HW119248   8.903   3.844   1.992  3.3300  1.8705 -2.9233
 4066SOL    HW219249   8.837   3.796   1.864 -1.9456 -2.2047  0.8642
 4067SOL     OW19250   9.309  12.515   8.920 -0.0947 -0.1737 -0.7231
 4067SOL    HW119251   9.396  12.516   8.960  0.6219 -3.1326 -1.9432
 4067SOL    HW219252   9.304  12.596   8.870  0.9300  1.2131  1.2629
 4068SOL     OW19253   4.835   9.020   3.169 -0.0889 -0.3895 -0.6319
 4068SOL    HW119254   4.795   8.984   3.090 -0.5007 -2.5743  0.4715
 4068SOL    HW219255   4.899   9.084   3.137 -0.1890 -1.2563 -2.7338
 4069SOL     OW19256   0.868   8.386   5.356 -0.3252  0.3504 -0.6074
 4069SOL    HW119257   0.924   8.315   5.325 -0.7477 -0.8235  1.1508
 4069SOL    HW219258   0.862   8.446   5.282  1.6366 -0.4592 -1.4935
 4070SOL     OW19259   8.117   9.702   5.738 -0.6349 -0.0479  0.3024
 4070SOL    HW119260   8.199   9.665   5.706 -0.7799 -0.2065  0.1170
 4070SOL    HW219261   8.049   9.664   5.683 -0.6128  2.2157 -1.4341
 4071SOL     OW19262   3.081   0.530   6.121 -0.3361 -0.1827  0.0454
 4071SOL    HW119263   3.017   0.602   6.118 -1.1872 -0.9523 -1.1319
 4071SOL    HW219264   3.081   0.502   6.213 -1.5017  0.0043  0.1213
 4072SOL     OW19265   5.653   4.058   7.792 -0.1497  0.0577 -0.2779
 4072SOL    HW119266   5.695   3.999   7.855 -0.2456 -0.5527 -0.7764
 4072SOL    HW219267   5.716   4.064   7.720  0.3411  1.4384  0.2372
 4073SOL     OW19268   2.983   1.475   1.477  0.3753 -0.1387  0.0200
 4073SOL    HW119269   2.921   1.509   1.411  0.6530 -1.1651 -0.8052
 4073SOL    HW219270   3.017   1.394   1.438 -0.7310 -1.7292  2.1513
 4074SOL     OW19271   1.043   6.959   8.230 -0.3347  0.3944  0.6021
 4074SOL    HW119272   1.101   7.035   8.238 -0.2226  0.2504  1.2349
 4074SOL    HW219273   1.069   6.918   8.147  0.5672  0.2594  0.9396
 4075SOL     OW19274   0.467   7.371   6.908 -0.3738 -0.1242 -0.2065
 4075SOL    HW119275   0.527   7.343   6.840  0.2122 -1.2033  0.7159
 4075SOL    HW219276   0.411   7.437   6.866  0.6396 -0.0077 -1.4109
 4076SOL     OW19277   1.883   4.115  10.986 -0.7110 -0.3429 -0.1406
 4076SOL    HW119278   1.792   4.139  11.001 -0.9714 -0.9241 -0.7542
 4076SOL    HW219279   1.913   4.174  10.916 -0.2816  0.5746  0.7817
 4077SOL     OW19280   3.117   9.351   0.033  0.4550 -0.0093 -0.1662
 4077SOL    HW119281   3.108   9.430  -0.020 -2.5494 -0.4111 -0.4452
 4077SOL    HW219282   3.169   9.292  -0.021  1.9226  1.3811 -0.3585
 4078SOL     OW19283   3.358  11.223   1.590 -0.8195  0.1360 -0.2018
 4078SOL    HW119284   3.373  11.172   1.670  0.3109  0.0941 -0.4208
 4078SOL    HW219285   3.376  11.161   1.519  4.2765  1.5780 -0.5650
 4079SOL     OW19286   3.558   8.811  10.737 -0.0826  0.4127  0.0924
 4079SOL    HW119287   3.625   8.744  10.752 -2.7417 -2.0441  2.0955
 4079SOL    HW219288   3.530   8.837  10.825 -3.6387 -0.8147 -0.5015
 4080SOL     OW19289   7.618  10.666   3.854 -0.4900 -0.1051 -0.6237
 4080SOL    HW119290   7.546  10.658   3.791  0.3388 -2.0403 -1.4077
 4080SOL    HW219291   7.683  10.604   3.823  1.3248  1.2350  0.3596
 4081SOL     OW19292   5.891  10.747   8.945  0.3012 -0.1470  0.0058
 4081SOL    HW119293   5.801  10.731   8.975  0.4706 -1.2708 -0.0688
 4081SOL    HW219294   5.884  10.823   8.888 -0.3046  0.9715  1.4902
 4082SOL     OW19295  12.276   1.293   7.496 -0.3032 -0.3264  0.0727
 4082SOL    HW119296  12.298   1.210   7.537 -0.9532  0.4027  2.0429
 4082SOL    HW219297  12.228   1.341   7.564  0.9939  2.0856 -0.5817
 4083SOL     OW19298  12.318   7.348  10.004  0.3065  0.1305 -0.0140
 4083SOL    HW119299  12.381   7.312   9.941  0.3878  1.7816 -0.9365
 4083SOL    HW219300  12.244   7.374   9.950  0.1861  1.1667  0.6395
 4084SOL     OW19301   3.596   5.685  11.201 -0.1965 -0.0570 -0.2712
 4084SOL    HW119302   3.685   5.708  11.226 -0.4950  2.4421 -1.2710
 4084SOL    HW219303   3.549   5.676  11.284  0.4068  1.1733  0.2193
 4085SOL     OW19304   5.839   1.625   0.506 -0.3500  0.2146  0.1693
 4085SOL    HW119305   5.885   1.618   0.423  0.1436  0.7394  0.3919
 4085SOL    HW219306   5.767   1.686   0.488 -3.2607 -3.2500 -1.1560
 4086SOL     OW19307   6.757   5.562  10.983 -0.0319 -0.4225  0.3039
 4086SOL    HW119308   6.742   5.533  11.073  0.2129  0.1069  0.5197
 4086SOL    HW219309   6.797   5.486  10.940  0.3863 -0.4868  0.7972
 4087SOL     OW19310  10.463   0.875  12.432  0.0015 -0.1686 -0.3361
 4087SOL    HW119311  10.512   0.864  12.514 -0.5575  0.4045  0.0791
 4087SOL    HW219312  10.375   0.845  12.453  0.3170 -1.9193 -1.2893
 4088SOL     OW19313   3.218   2.560   4.553 -0.2285 -0.5110 -0.2336
 4088SOL    HW119314   3.278   2.616   4.601  0.2689  1.2125 -2.6892
 4088SOL    HW219315   3.245   2.567   4.461 -1.7707 -2.7736 -0.9724
 4089SOL     OW19316   2.181   6.303  11.585  0.4688 -0.2678  0.5964
 4089SOL    HW119317   2.268   6.296  11.546 -0.0133 -1.6908 -0.3414
 4089SOL    HW219318   2.143   6.215  11.572 -1.9301  0.8932 -1.0716
 4090SOL     OW19319   7.499   7.900  10.310  0.4317  0.0697  0.8009
 4090SOL    HW119320   7.552   7.904  10.230 -0.0421 -0.8497  0.4288
 4090SOL    HW219321   7.475   7.991  10.326  1.1124  0.3552  0.2946
 4091SOL     OW19322  11.622   2.327   3.520 -0.1808  0.2563 -0.5465
 4091SOL    HW119323  11.644   2.393   3.585 -0.5961 -0.1174 -0.0229
 4091SOL    HW219324  11.541   2.287   3.551 -1.1920  1.0431 -2.0234
 4092SOL     OW19325   4.332   6.639   0.902  0.3280  0.6741 -0.8561
 4092SOL    HW119326   4.416   6.666   0.938  0.3242  0.1638 -0.4567
 4092SOL    HW219327   4.281   6.610   0.978 -0.6846  2.1632 -0.9012
 4093SOL     OW19328  10.399  10.907  10.998  0.2458  0.2380 -0.0531
 4093SOL    HW119329  10.394  10.900  11.094 -0.6635  1.8919  0.0547
 4093SOL    HW219330  10.493  10.915  10.980  0.7343 -3.1755  0.3781
 4094SOL     OW19331  11.196   6.807   7.149 -0.2884 -0.5136  0.2863
 4094SOL    HW119332  11.221   6.782   7.060 -2.0212  1.5167 -0.8384
 4094SOL    HW219333  11.138   6.736   7.177  0.0903 -1.0644 -0.2723
 4095SOL     OW19334   7.265   6.784   0.557  0.0581  0.3393 -0.1221
 4095SOL    HW119335   7.321   6.859   0.536 -0.4989  1.0464  0.8655
 4095SOL    HW219336   7.273   6.727   0.481  0.6398  1.3099 -0.8162
 4096SOL     OW19337   2.968   2.234   1.200  0.1036 -0.2767 -0.8124
 4096SOL    HW119338   2.942   2.167   1.264  1.6250 -0.5215 -0.4193
 4096SOL    HW219339   3.058   2.256   1.224 -0.0823  1.2918 -1.4863
 4097SOL     OW19340   6.700   7.054   3.076  0.1840  0.3724 -0.1394
 4097SOL    HW119341   6.731   7.065   3.166 -1.8334  2.2836  0.4312
 4097SOL    HW219342   6.714   7.140   3.036 -0.3683 -0.0097 -1.1734
 4098SOL     OW19343   1.601  10.632   9.234  0.1680 -0.3326 -0.2693
 4098SOL    HW119344   1.589  10.709   9.179  0.0841  0.8669  1.3484
 4098SOL    HW219345   1.694  10.634   9.258 -0.0930  0.0367  0.8015
 4099SOL     OW19346   9.400   5.939   3.127  0.1348 -0.0243 -0.3776
 4099SOL    HW119347   9.319   5.987   3.143 -0.3043 -0.1038 -2.1218
 4099SOL    HW219348   9.465   6.007   3.111 -0.0728  0.0248 -1.0377
 4100SOL     OW19349  10.629   2.664   0.505  0.2190 -0.2347 -0.3566
 4100SOL    HW119350  10.662   2.750   0.527  3.3523 -1.4834  0.2620
 4100SOL    HW219351  10.568   2.680   0.432  0.3308  2.4801  0.0432
 4101SOL     OW19352  10.062   6.082   1.890 -0.0765  0.6043 -0.2879
 4101SOL    HW119353  10.149   6.106   1.860 -0.4087  1.0734 -0.8798
 4101SOL    HW219354  10.068   5.988   1.909  0.6181  0.6844 -0.0847
 4102SOL     OW19355   2.993   9.425  11.974 -0.2922  0.3461 -0.1557
 4102SOL    HW119356   3.017   9.502  12.026  0.8481  0.6879 -1.1371
 4102SOL    HW219357   3.069   9.410  11.917 -1.4933  0.0205 -1.7384
 4103SOL     OW19358   5.106   8.987  11.313  0.1121 -0.5617  0.0260
 4103SOL    HW119359   5.087   8.907  11.265  1.3389 -0.6198 -0.3887
 4103SOL    HW219360   5.142   9.047  11.248  0.1203 -0.0145  0.5213
 4104SOL     OW19361   7.580   8.743   5.011  0.0050 -0.9261  0.3501
 4104SOL    HW119362   7.510   8.678   5.013 -0.4960 -0.4342  3.5587
 4104SOL    HW219363   7.645   8.710   5.074  1.6520 -0.2542 -0.9142
 4105SOL     OW19364  11.062  10.239   6.809  0.7491  0.5892  0.2711
 4105SOL    HW119365  11.062  10.316   6.753 -0.2587  1.7968  1.8512
 4105SOL    HW219366  10.994  10.255   6.874 -1.0717 -2.6260 -0.6024
 4106SOL     OW19367  11.005  11.683   0.809  0.3889  0.3530  0.5239
 4106SOL    HW119368  11.096  11.683   0.781  0.7173 -0.3493  1.5075
 4106SOL    HW219369  10.981  11.775   0.814  0.5899  0.5110 -1.1160
 4107SOL     OW19370  12.016   2.322   1.742  0.3984 -0.1829 -0.3829
 4107SOL    HW119371  12.049   2.248   1.691  1.8657 -0.2496  0.6144
 4107SOL    HW219372  11.929   2.295   1.770  1.3010 -1.9966  0.8287
 4108SOL     OW19373   2.911  11.120   8.007  0.3962 -0.3919  0.3924
 4108SOL    HW119374   2.993  11.163   7.984  0.7806 -1.9031 -1.2461
 4108SOL    HW219375   2.933  11.028   8.016 -0.6350 -0.4908  2.6552
 4109SOL     OW19376   5.090   4.007   4.871  0.3684  1.1546  0.0591
 4109SOL    HW119377   5.179   4.004   4.835 -0.0992  0.5094 -1.0914
 4109SOL    HW219378   5.100   3.977   4.962  1.5734  2.8275  0.5159
 4110SOL     OW19379   4.008   4.689   7.715 -0.4204 -0.5849  0.2656
 4110SOL    HW119380   3.992   4.689   7.621 -0.2780 -0.0697  0.2374
 4110SOL    HW219381   3.987   4.778   7.743 -0.2564 -0.6733  0.6832
 4111SOL     OW19382   0.961   0.696   5.226 -0.0666 -0.2991  0.1762
 4111SOL    HW119383   1.014   0.631   5.179  0.0628  0.3827 -0.6345
 4111SOL    HW219384   0.916   0.645   5.293  2.3881 -0.7336  1.5958
 4112SOL     OW19385   5.239   0.559   8.278 -0.0251  0.3445 -0.1719
 4112SOL    HW119386   5.191   0.491   8.327  0.8228  0.0226  0.2348
 4112SOL    HW219387   5.181   0.635   8.280 -1.5709 -0.6998 -1.6995
 4113SOL     OW19388   8.673   6.798   5.458  0.2054  0.1634  0.4642
 4113SOL    HW119389   8.738   6.741   5.417  0.2646  1.1156 -0.8670
 4113SOL    HW219390   8.722   6.847   5.524 -0.0404 -1.9192  2.2891
 4114SOL     OW19391  11.792   5.548   3.756  0.0537  0.1553  0.0614
 4114SOL    HW119392  11.856   5.483   3.726 -0.0592  0.1320 -0.1324
 4114SOL    HW219393  11.733   5.499   3.813 -1.3836 -0.4612 -1.8287
 4115SOL     OW19394   5.928  11.851  10.159 -0.0523  0.1014 -0.5136
 4115SOL    HW119395   5.936  11.823  10.068 -1.6352 -0.0149 -0.6460
 4115SOL    HW219396   5.880  11.934  10.154  0.9110  0.7262  0.1549
 4116SOL     OW19397  10.507   5.324   7.104  0.0248 -0.5638  0.2785
 4116SOL    HW119398  10.452   5.399   7.128  0.2778 -1.1586  2.9539
 4116SOL    HW219399  10.591   5.363   7.079 -0.7288  0.1709 -1.2914
 4117SOL     OW19400   5.883  10.854   2.241 -0.4819  0.2456  0.4582
 4117SOL    HW119401   5.840  10.768   2.242 -1.6514  0.7955  3.0370
 4117SOL    HW219402   5.853  10.894   2.159 -1.8367 -0.8914  0.3512
 4118SOL     OW19403  10.416   4.701   1.133 -0.2694 -0.5401  0.1976
 4118SOL    HW119404  10.488   4.726   1.191  0.9748 -0.6865 -1.2073
 4118SOL    HW219405  10.338   4.735   1.176  0.9158  2.3926  0.3100
 4119SOL     OW19406   3.766   7.941  11.523 -0.7593  0.1595  0.0037
 4119SOL    HW119407   3.856   7.919  11.497 -1.0092  1.5150 -2.2612
 4119SOL    HW219408   3.743   7.873  11.587  0.7754 -2.1234 -1.6909
 4120SOL     OW19409   1.492   9.455  12.253  0.4740 -0.0397 -0.3940
 4120SOL    HW119410   1.546   9.432  12.177  2.2701 -0.1607  0.8318
 4120SOL    HW219411   1.544   9.425  12.328  0.3064  2.8983  1.0308
 4121SOL     OW19412   6.797  10.927  10.840 -0.1095 -0.3497 -0.4466
 4121SOL    HW119413   6.753  10.856  10.886  0.7394 -1.1642 -0.8570
 4121SOL    HW219414   6.890  10.903  10.840  0.2671  1.0083 -0.1618
 4122SOL     OW19415   7.986   3.805   5.296  0.5584 -0.2468 -0.0127
 4122SOL    HW119416   7.914   3.805   5.233  1.1863 -1.6805 -0.7735
 4122SOL    HW219417   8.037   3.727   5.274  3.1640  1.4721 -0.4459
 4123SOL     OW19418   0.379   5.483  10.756  0.0344 -0.6505 -0.3672
 4123SOL    HW119419   0.372   5.471  10.850  0.0885 -0.6585 -0.3642
 4123SOL    HW219420   0.299   5.530  10.731  0.8514  0.9694 -0.0568
 4124SOL     OW19421  12.088   1.550   9.919  0.2621 -0.4224  0.0784
 4124SOL    HW119422  11.996   1.562   9.897  0.2481  0.2534  0.4995
 4124SOL    HW219423  12.095   1.458   9.944 -0.6135 -0.1025  1.5802
 4125SOL     OW19424   4.980   9.789   0.096 -0.4186  0.2856 -0.1724
 4125SOL    HW119425   4.898   9.830   0.125 -0.1881 -0.0086  0.9383
 4125SOL    HW219426   5.005   9.732   0.169 -0.7308 -1.8490 -1.6466
 4126SOL     OW19427  11.128   3.484   7.905  0.0811 -0.1195 -0.6294
 4126SOL    HW119428  11.046   3.488   7.856  1.0029 -1.8730 -2.4732
 4126SOL    HW219429  11.168   3.571   7.892 -0.6313  0.1135 -1.2897
 4127SOL     OW19430   0.122   4.847   9.086  0.1508 -0.1986 -0.8592
 4127SOL    HW119431   0.105   4.905   9.012  0.7310  3.4652  1.6365
 4127SOL    HW219432   0.038   4.842   9.132  0.3354 -0.5651 -0.5566
 4128SOL     OW19433   2.483  10.775  11.936 -0.0616  0.2060  0.0722
 4128SOL    HW119434   2.389  10.789  11.924 -0.2882 -1.9860 -1.0411
 4128SOL    HW219435   2.521  10.789  11.849  0.4671 -0.1600  0.2373
 4129SOL     OW19436  12.151   6.463   1.968 -0.1699 -0.4459 -0.1331
 4129SOL    HW119437  12.181   6.373   1.981  0.2634 -0.5873 -1.8373
 4129SOL    HW219438  12.226   6.508   1.928 -1.2997 -0.0880 -1.9337
 4130SOL     OW19439   1.640   3.391   6.182 -0.5574  0.1052 -0.1625
 4130SOL    HW119440   1.624   3.472   6.134  3.2581 -0.4499 -2.8981
 4130SOL    HW219441   1.609   3.322   6.123  1.7249 -0.4983 -0.7839
 4131SOL     OW19442   3.473  11.484  11.551 -0.9320 -0.4057 -0.7023
 4131SOL    HW119443   3.474  11.531  11.468  0.3650  0.3018 -0.3094
 4131SOL    HW219444   3.497  11.550  11.616 -1.4112 -1.0774  0.1788
 4132SOL     OW19445   6.405   7.723   2.942 -0.0896 -0.0312  0.1721
 4132SOL    HW119446   6.452   7.778   3.004  0.9050  0.8139 -1.2498
 4132SOL    HW219447   6.316   7.756   2.942  0.7630  2.5848 -1.6059
 4133SOL     OW19448   1.805   8.354   8.377  0.4750  0.0321 -0.0040
 4133SOL    HW119449   1.884   8.408   8.387 -0.2613  0.9182  1.4484
 4133SOL    HW219450   1.751   8.403   8.315 -1.4546  2.6978  3.4372
 4134SOL     OW19451   1.615   8.906   2.380 -0.3074 -0.0230  0.1184
 4134SOL    HW119452   1.623   8.997   2.407  1.7757 -0.6111  1.7218
 4134SOL    HW219453   1.631   8.907   2.285  0.1010  1.2157  0.1885
 4135SOL     OW19454   0.200  12.336   2.125 -0.5175  0.0981 -0.1346
 4135SOL    HW119455   0.109  12.343   2.098 -1.6412 -2.6752  2.3196
 4135SOL    HW219456   0.201  12.368   2.216  1.0812  0.6147 -0.2979
 4136SOL     OW19457   6.694   3.949  10.485  0.5798 -0.0147 -0.9836
 4136SOL    HW119458   6.740   4.027  10.517  0.4527 -1.1586  2.4197
 4136SOL    HW219459   6.764   3.893  10.449  1.1341  0.3320 -0.4594
 4137SOL     OW19460   5.114   7.208   5.221 -0.2767 -0.1588 -0.5581
 4137SOL    HW119461   5.161   7.253   5.292 -0.1414  0.0015 -0.7510
 4137SOL    HW219462   5.098   7.120   5.256 -1.4068  0.3302  0.2132
 4138SOL     OW19463   6.392   2.534   7.419 -0.1191 -0.0781 -0.2023
 4138SOL    HW119464   6.363   2.566   7.334 -1.8053  1.8700  1.0356
 4138SOL    HW219465   6.464   2.592   7.444 -1.7286  1.4637  1.0634
 4139SOL     OW19466  10.402   2.702  10.811  0.1287  0.0717 -0.3043
 4139SOL    HW119467  10.418   2.761  10.738 -0.4305 -0.0721 -0.5535
 4139SOL    HW219468  10.448   2.741  10.885  2.3281 -0.7618 -1.1476
 4140SOL     OW19469   5.610   5.862   1.791  0.0697  0.1237  0.2846
 4140SOL    HW119470   5.557   5.908   1.856  2.8601  1.3696  1.8767
 4140SOL    HW219471   5.625   5.775   1.829 -2.8484 -1.2554 -1.4086
 4141SOL     OW19472   6.475   1.008   0.853 -0.3324  0.2805 -0.8180
 4141SOL    HW119473   6.542   1.065   0.815  0.7793 -0.4317  0.0004
 4141SOL    HW219474   6.438   0.962   0.778 -1.7256  2.4950 -1.5831
 4142SOL     OW19475   7.540  11.133   6.435 -0.2716  0.4306 -0.4435
 4142SOL    HW119476   7.599  11.086   6.494 -1.1089  0.2761  0.2819
 4142SOL    HW219477   7.573  11.223   6.436  1.7316 -0.1756 -2.3211
 4143SOL     OW19478   1.331   9.008   5.015  0.1772  0.0893 -0.2570
 4143SOL    HW119479   1.419   9.031   4.985  0.3569  0.0189  0.1992
 4143SOL    HW219480   1.274   9.025   4.940  0.7077 -0.7399 -0.8662
 4144SOL     OW19481   3.417   9.182   4.422  0.4840  0.0240 -0.6265
 4144SOL    HW119482   3.512   9.182   4.433  0.5011 -0.8686 -0.7246
 4144SOL    HW219483   3.383   9.203   4.509  0.7759  1.0121 -0.7399
 4145SOL     OW19484   1.409   0.116   1.755 -0.3222  0.3043 -0.0154
 4145SOL    HW119485   1.431   0.163   1.674  0.1810 -0.6160 -0.4206
 4145SOL    HW219486   1.314   0.105   1.751  0.0097 -3.0743 -2.4141
 4146SOL     OW19487   5.976   6.884   9.910  0.1884  0.4988 -0.0885
 4146SOL    HW119488   5.932   6.848   9.833  3.6104 -0.0467 -2.0077
 4146SOL    HW219489   5.995   6.809   9.965  0.1561  0.5092 -0.0627
 4147SOL     OW19490   1.857   6.422  10.871 -0.0342 -0.1894  0.4818
 4147SOL    HW119491   1.869   6.334  10.836 -1.4425 -0.8569  1.5795
 4147SOL    HW219492   1.914   6.425  10.948 -0.3402 -0.3161  0.7158
 4148SOL     OW19493   8.143   4.890  11.997 -0.2713  0.3896  0.1746
 4148SOL    HW119494   8.204   4.926  12.062 -1.2533  3.6726 -0.5040
 4148SOL    HW219495   8.065   4.945  12.005 -1.1742 -0.3667 -2.4169
 4149SOL     OW19496   7.858  11.465  12.151 -0.0302  0.2500 -0.0540
 4149SOL    HW119497   7.852  11.418  12.234 -0.3673 -1.6577 -1.1054
 4149SOL    HW219498   7.929  11.421  12.104  0.7813  1.8963 -0.4671
 4150SOL     OW19499   3.839   1.631   1.984 -0.4065 -0.0795  0.4218
 4150SOL    HW119500   3.911   1.691   1.970  0.1581 -0.2026  2.4953
 4150SOL    HW219501   3.880   1.545   1.991 -0.8130 -0.2357  0.9834
 4151SOL     OW19502   8.153   3.934   6.617 -0.3277 -0.3912 -0.3080
 4151SOL    HW119503   8.063   3.913   6.643 -0.2326  0.7571  1.1077
 4151SOL    HW219504   8.205   3.916   6.696  0.5605 -0.1889 -0.8319
 4152SOL     OW19505   8.853   2.648   9.750  0.2777 -0.1051  0.2279
 4152SOL    HW119506   8.822   2.736   9.770 -0.3500  0.0957 -1.4669
 4152SOL    HW219507   8.909   2.624   9.824 -2.2622  0.3252  2.4246
 4153SOL     OW19508   6.448   2.642   1.911 -0.2086 -0.1407 -0.1873
 4153SOL    HW119509   6.462   2.679   1.824 -1.1079 -2.0336 -1.1831
 4153SOL    HW219510   6.491   2.557   1.908  0.5226  0.1275  1.5525
 4154SOL     OW19511  11.823   7.386   8.393 -0.3089  0.8298 -0.1855
 4154SOL    HW119512  11.764   7.428   8.330 -0.0465  2.1764  0.4331
 4154SOL    HW219513  11.910   7.399   8.356 -0.3331 -0.9054 -0.9522
 4155SOL     OW19514   9.878   3.321   6.259  1.0336  0.0453 -0.3039
 4155SOL    HW119515   9.959   3.368   6.278  0.9078  0.5151 -0.9228
 4155SOL    HW219516   9.818   3.347   6.329  1.1270  0.4027 -0.3577
 4156SOL     OW19517   7.116  11.689   6.258 -0.1438  0.5440  0.3709
 4156SOL    HW119518   7.149  11.624   6.320  0.1439 -0.5028 -0.8374
 4156SOL    HW219519   7.135  11.774   6.299  0.6969 -0.1062  1.3668
 4157SOL     OW19520   8.583   2.687   0.709  0.4641 -0.5339  0.6777
 4157SOL    HW119521   8.509   2.632   0.686 -0.1415 -1.0480  3.4811
 4157SOL    HW219522   8.636   2.633   0.767  1.1075  1.0252  1.6048
 4158SOL     OW19523   5.177   3.035   6.657 -0.0515  0.5786  0.1484
 4158SOL    HW119524   5.244   2.969   6.639 -1.7752 -1.0092 -0.6704
 4158SOL    HW219525   5.169   3.085   6.576  0.2113  0.8630  0.2928
 4159SOL     OW19526   7.587   8.635   1.305 -0.0592 -0.0579  0.3902
 4159SOL    HW119527   7.512   8.601   1.256  0.5443 -0.4249 -0.2895
 4159SOL    HW219528   7.619   8.560   1.355  0.2624 -0.0686  0.1681
 4160SOL     OW19529   2.067  12.172   7.978  0.6293  0.6709  0.5579
 4160SOL    HW119530   2.067  12.235   7.906 -0.5395  1.7437  1.4316
 4160SOL    HW219531   2.092  12.224   8.055 -0.6485  0.1819  1.3555
 4161SOL     OW19532   0.582   1.047   5.523  0.2989 -0.4265  0.1042
 4161SOL    HW119533   0.637   1.120   5.494 -1.1047  0.3501 -0.7209
 4161SOL    HW219534   0.549   1.009   5.442 -0.4942 -0.7743  0.5808
 4162SOL     OW19535   9.080  11.281  11.279  0.9317 -0.6364 -0.6193
 4162SOL    HW119536   8.999  11.331  11.268  1.9232  0.7937 -2.1118
 4162SOL    HW219537   9.062  11.196  11.239  0.2917 -0.1864 -1.3162
 4163SOL     OW19538   9.249   4.602  12.450 -0.1262 -0.3609 -0.3411
 4163SOL    HW119539   9.279   4.693  12.459 -0.7555 -0.2360  0.6007
 4163SOL    HW219540   9.170   4.608  12.397  0.3922 -0.4845 -1.1556
 4164SOL     OW19541   8.940   1.810   1.209  0.5484  0.1096 -0.2033
 4164SOL    HW119542   9.028   1.791   1.176 -0.3233 -3.6384 -0.8918
 4164SOL    HW219543   8.910   1.885   1.157  1.9589 -0.9977 -2.8221
 4165SOL     OW19544   4.688   7.206   2.060 -0.0812 -0.5674 -0.2643
 4165SOL    HW119545   4.636   7.156   2.123 -1.3540  3.9033  2.7067
 4165SOL    HW219546   4.625   7.234   1.994 -0.0264 -0.4964 -0.2868
 4166SOL     OW19547  10.181  10.041  10.931 -0.2437 -0.6326  0.2258
 4166SOL    HW119548  10.088  10.066  10.935 -0.2311 -0.3317 -1.0458
 4166SOL    HW219549  10.217  10.071  11.014 -1.4940 -1.6355  1.1848
 4167SOL     OW19550   9.506   1.483   1.896 -0.1904  0.3780 -0.4957
 4167SOL    HW119551   9.482   1.474   1.989 -0.0921  1.7374 -0.3115
 4167SOL    HW219552   9.594   1.446   1.890 -0.3944 -0.1733 -0.1523
 4168SOL     OW19553   2.861  10.957   0.002 -0.0624 -0.2858 -0.1216
 4168SOL    HW119554   2.857  10.978   0.095  0.2600 -1.2367  0.1187
 4168SOL    HW219555   2.781  10.996  -0.035 -0.3673 -0.1973  0.6086
 4169SOL     OW19556   9.966   4.139   9.357  0.6143  0.7270 -0.0209
 4169SOL    HW119557   9.948   4.085   9.433  0.6964 -0.2863 -0.7031
 4169SOL    HW219558   9.916   4.220   9.372  0.4849  0.4597  1.0050
 4170SOL     OW19559  11.963  12.508   0.663 -0.1177 -0.5336 -0.4238
 4170SOL    HW119560  12.039  12.565   0.678  0.0976 -1.0910  0.6847
 4170SOL    HW219561  11.893  12.548   0.715 -0.5839 -0.0737 -1.3700
 4171SOL     OW19562   7.214   9.629   5.388  0.4119 -0.2292 -0.2699
 4171SOL    HW119563   7.309   9.642   5.387  0.4596 -0.0526  1.9354
 4171SOL    HW219564   7.200   9.550   5.336  1.3662  1.5382 -3.4558
 4172SOL     OW19565   9.689   3.409  11.608  0.1400  0.2227  0.0899
 4172SOL    HW119566   9.614   3.354  11.632 -0.5106  1.1318  0.2212
 4172SOL    HW219567   9.707   3.386  11.517 -0.9743  0.7157 -0.2778
 4173SOL     OW19568   0.889   5.726   8.633 -0.4944 -0.3530  0.5363
 4173SOL    HW119569   0.865   5.642   8.672  0.9583 -0.2151  1.8267
 4173SOL    HW219570   0.984   5.733   8.648 -0.5049  1.2850 -0.0126
 4174SOL     OW19571   1.484   1.807  11.385  0.0838 -0.4924  0.2074
 4174SOL    HW119572   1.505   1.725  11.431  1.5154 -0.7157 -0.7729
 4174SOL    HW219573   1.504   1.788  11.293 -1.6036  0.3030 -0.3568
 4175SOL     OW19574   4.903   6.534   1.951  0.4071  0.8735  0.6959
 4175SOL    HW119575   4.886   6.624   1.978  0.2699  0.5149  1.8722
 4175SOL    HW219576   4.847   6.481   2.008  1.0651  0.0051  0.5543
 4176SOL     OW19577   4.051   9.661   2.000 -0.2478 -0.0058  0.4789
 4176SOL    HW119578   4.062   9.585   2.058  0.3560 -0.3007 -0.0068
 4176SOL    HW219579   3.956   9.669   1.989 -0.5371  1.3939  3.2437
 4177SOL     OW19580   5.806  11.373  12.064 -0.1764  0.4335 -0.2206
 4177SOL    HW119581   5.757  11.362  12.145 -1.7815 -0.8003 -1.2869
 4177SOL    HW219582   5.745  11.345  11.995  1.0174  1.7112 -1.8837
 4178SOL     OW19583  10.963   8.780   3.547  0.2481 -0.2579 -0.3154
 4178SOL    HW119584  10.902   8.801   3.476  0.5308 -3.1362 -1.5554
 4178SOL    HW219585  10.909   8.780   3.626 -0.5290  0.9206 -0.8166
 4179SOL     OW19586   9.464   5.785  12.404  0.1641  0.0643 -0.1322
 4179SOL    HW119587   9.430   5.699  12.378 -1.3237  0.1364  1.3789
 4179SOL    HW219588   9.540   5.765  12.458  1.3564 -0.1698 -1.7964
 4180SOL     OW19589   1.280  10.001  10.593  0.3207 -0.2310 -0.2033
 4180SOL    HW119590   1.264  10.058  10.518 -0.2329  1.1513  0.9267
 4180SOL    HW219591   1.351  10.043  10.641  0.4711 -0.9379  0.2149
 4181SOL     OW19592   6.009  12.216   9.424 -0.8288  0.0922  0.1202
 4181SOL    HW119593   6.001  12.124   9.400 -3.3974 -0.1926  1.7838
 4181SOL    HW219594   6.094  12.222   9.467 -0.6616 -1.5009  0.0561
 4182SOL     OW19595   9.965   5.656   4.444  0.1222 -0.0362 -0.3461
 4182SOL    HW119596  10.026   5.685   4.511 -0.0713  1.4622 -0.7593
 4182SOL    HW219597   9.879   5.685   4.476 -0.2914 -1.4988 -0.0933
 4183SOL     OW19598  11.894  11.735   1.482  0.1688  0.5336 -0.3022
 4183SOL    HW119599  11.886  11.783   1.400  0.6121  3.8696  1.4040
 4183SOL    HW219600  11.970  11.679   1.471  0.3621  1.0994 -2.0664
 4184SOL     OW19601  12.325   5.217   2.500  0.1599  0.1849  0.0282
 4184SOL    HW119602  12.261   5.222   2.430 -0.9817 -0.5115  0.9906
 4184SOL    HW219603  12.407   5.246   2.460 -0.0263 -1.9359 -2.1136
 4185SOL     OW19604   5.534   3.636   5.849 -0.3302  0.5547 -0.5334
 4185SOL    HW119605   5.454   3.684   5.829 -0.2951  0.5173 -0.7662
 4185SOL    HW219606   5.570   3.680   5.925 -3.0042 -2.2416  2.6820
 4186SOL     OW19607   4.130   8.057   3.416  0.1244  0.2215 -0.1726
 4186SOL    HW119608   4.179   8.077   3.495  0.6692  0.1612 -0.4875
 4186SOL    HW219609   4.132   8.137   3.364 -0.7410  0.4517  0.1264
 4187SOL     OW19610  11.730   8.682  11.451 -0.0282 -0.4410  0.0863
 4187SOL    HW119611  11.701   8.738  11.522  1.3270 -1.4317  1.4836
 4187SOL    HW219612  11.657   8.681  11.389 -0.0235  3.1120 -0.2268
 4188SOL     OW19613   3.167   6.582   1.910  0.3910  0.5139 -0.8567
 4188SOL    HW119614   3.260   6.563   1.920 -0.0699 -0.8849  1.2612
 4188SOL    HW219615   3.139   6.616   1.995 -1.4602 -1.0792 -0.7527
 4189SOL     OW19616  10.372   9.709   2.076  0.7866 -0.4201 -0.3048
 4189SOL    HW119617  10.405   9.709   2.166 -0.4755  1.7691  0.2134
 4189SOL    HW219618  10.278   9.693   2.085  0.8316 -1.4254 -1.3689
 4190SOL     OW19619   1.316  11.357   1.481 -0.1020  0.0419  0.6058
 4190SOL    HW119620   1.261  11.279   1.471 -1.1402  0.8761 -0.4519
 4190SOL    HW219621   1.274  11.405   1.553  0.5108 -0.3263  1.2253
 4191SOL     OW19622   5.997   1.356   2.203  0.0011  0.0820  0.3345
 4191SOL    HW119623   5.928   1.290   2.196  0.3067 -0.3321  1.1347
 4191SOL    HW219624   6.038   1.357   2.117 -0.3618 -0.3792  0.1526
 4192SOL     OW19625   9.540   3.512   4.628  0.1890 -0.3623 -0.6422
 4192SOL    HW119626   9.495   3.428   4.638 -0.2125 -0.1242 -0.4879
 4192SOL    HW219627   9.563   3.538   4.717 -1.4748  0.6836 -0.4819
 4193SOL     OW19628   5.273   7.303   9.872  0.6501 -0.0768 -0.3790
 4193SOL    HW119629   5.322   7.383   9.850  2.7461 -1.0951  0.3678
 4193SOL    HW219630   5.241   7.271   9.787  2.3814 -0.0395 -1.0857
 4194SOL     OW19631   8.170   1.967   5.331 -0.2346  0.0482  0.4576
 4194SOL    HW119632   8.162   1.937   5.421 -1.2540  1.2952  0.8062
 4194SOL    HW219633   8.123   1.902   5.279 -2.8081  1.1823  1.2487
 4195SOL     OW19634   8.527   2.563   8.411 -0.1627 -0.0494 -0.2979
 4195SOL    HW119635   8.522   2.572   8.316 -0.4884  0.8092 -0.2045
 4195SOL    HW219636   8.521   2.652   8.444 -0.1491 -0.3499  0.5374
 4196SOL     OW19637   9.596  10.827   9.379 -0.3808 -0.5210  0.2842
 4196SOL    HW119638   9.607  10.848   9.472  0.7918 -1.2236  0.3243
 4196SOL    HW219639   9.626  10.905   9.333 -1.6072  0.0991  0.4731
 4197SOL     OW19640   8.403   1.388   0.758  0.4047 -0.1130  0.0738
 4197SOL    HW119641   8.365   1.362   0.674 -0.5532  2.1475 -0.2933
 4197SOL    HW219642   8.470   1.452   0.735  0.7724 -0.1514  0.9951
 4198SOL     OW19643  11.982   0.349  12.452 -0.2720 -0.1964  0.5665
 4198SOL    HW119644  12.053   0.411  12.470 -0.1792 -0.2128  0.2694
 4198SOL    HW219645  11.951   0.322  12.538 -0.3656  0.3221  0.6966
 4199SOL     OW19646   8.703   3.099   3.201 -0.3778 -0.0975 -0.2892
 4199SOL    HW119647   8.781   3.091   3.146  0.4755  1.7835  0.5542
 4199SOL    HW219648   8.633   3.059   3.150  1.0630 -1.5943 -1.1923
 4200SOL     OW19649  10.519   8.655   4.775  0.2677 -0.6147  0.4551
 4200SOL    HW119650  10.450   8.632   4.836 -0.8795 -1.8999 -1.2425
 4200SOL    HW219651  10.558   8.572   4.750  0.7578 -0.1121 -0.5005
 4201SOL     OW19652  10.489   4.533   2.624 -0.3235  0.0388  0.0137
 4201SOL    HW119653  10.395   4.540   2.640 -0.2678 -0.5175  0.6324
 4201SOL    HW219654  10.501   4.570   2.536 -1.2148 -0.5233 -0.3608
 4202SOL     OW19655   3.595  11.829   6.617 -0.2595 -0.0789  0.4641
 4202SOL    HW119656   3.542  11.774   6.559  0.6390 -0.8961  0.3803
 4202SOL    HW219657   3.532  11.882   6.665 -1.0918 -0.3128 -0.3388
 4203SOL     OW19658  10.300  10.156   2.511 -0.3197 -0.0659  0.2810
 4203SOL    HW119659  10.210  10.188   2.510 -0.2399  0.1929  0.8089
 4203SOL    HW219660  10.293  10.066   2.545 -0.3833 -0.0593  0.2842
 4204SOL     OW19661   2.444   6.535   1.251  0.7060 -0.1172  0.6175
 4204SOL    HW119662   2.528   6.580   1.263  0.5325  0.2182  0.5910
 4204SOL    HW219663   2.414   6.563   1.165  0.3769  0.0814  0.7953
 4205SOL     OW19664   5.276   2.143  10.380 -0.3038  0.1783 -0.5191
 4205SOL    HW119665   5.334   2.072  10.408 -0.0925  0.3582 -0.4998
 4205SOL    HW219666   5.188   2.107  10.390 -0.1888 -0.1721 -0.7519
 4206SOL     OW19667   8.458   4.477  10.073 -0.0251  0.2747 -0.7685
 4206SOL    HW119668   8.418   4.410  10.128 -1.4357 -0.5073 -2.6526
 4206SOL    HW219669   8.413   4.558  10.097  2.2612  0.8684  2.1192
 4207SOL     OW19670  11.822   3.318   5.720  0.1844  0.0169 -0.2256
 4207SOL    HW119671  11.780   3.252   5.775  0.2312 -1.1802 -1.5634
 4207SOL    HW219672  11.916   3.302   5.731  0.2051  0.2381 -0.0949
 4208SOL     OW19673   6.725   9.625   8.867 -0.4914  0.4554  0.1727
 4208SOL    HW119674   6.780   9.561   8.912 -0.7411  0.9701  1.2536
 4208SOL    HW219675   6.786   9.691   8.834 -0.4061  0.7742  0.9472
 4209SOL     OW19676  12.199  10.685   7.361 -0.1660 -0.3912 -0.0317
 4209SOL    HW119677  12.244  10.646   7.436  0.6156  0.1532 -0.2069
 4209SOL    HW219678  12.116  10.715   7.397 -0.1044 -0.7826  0.4563
 4210SOL     OW19679   3.044   6.496   3.844 -0.5000 -0.1265 -0.1282
 4210SOL    HW119680   3.069   6.515   3.753 -0.9540  2.3321  0.1829
 4210SOL    HW219681   2.951   6.518   3.848 -0.5382 -0.4404  0.8865
 4211SOL     OW19682   4.092   9.730   2.979 -0.2873  0.0448 -0.1659
 4211SOL    HW119683   4.144   9.737   2.898 -0.0940 -0.4345 -0.0886
 4211SOL    HW219684   4.157   9.736   3.049 -0.3976 -0.0187 -0.0588
 4212SOL     OW19685   3.942   2.736   7.387  0.3711 -0.4653 -0.0040
 4212SOL    HW119686   4.018   2.692   7.426  1.5978  0.7641 -0.8714
 4212SOL    HW219687   3.914   2.799   7.454  0.0617 -0.9707  0.3462
 4213SOL     OW19688   4.528   1.940   7.636 -0.0315  0.2255  0.0802
 4213SOL    HW119689   4.475   1.872   7.677  0.6176  0.3938  1.2617
 4213SOL    HW219690   4.489   1.954   7.550 -0.7538 -0.9499  0.2091
 4214SOL     OW19691   1.681   8.664   7.914  0.3625 -0.3338  0.2260
 4214SOL    HW119692   1.599   8.622   7.939 -0.0906 -0.0871 -0.7794
 4214SOL    HW219693   1.698   8.728   7.982 -1.1477  0.7502 -0.3701
 4215SOL     OW19694  10.063   6.006   4.104  0.0215  0.2195 -0.0360
 4215SOL    HW119695  10.055   5.917   4.140  1.2357 -0.5421 -1.5404
 4215SOL    HW219696  10.069   6.062   4.181  1.6907 -1.2626  0.9899
 4216SOL     OW19697   5.708  10.015   6.758  0.2089  0.4159 -0.1018
 4216SOL    HW119698   5.650  10.019   6.682  1.1169 -1.0216 -0.9158
 4216SOL    HW219699   5.773   9.948   6.735 -0.2510 -1.0494  2.4684
 4217SOL     OW19700  12.518   2.178   4.991  0.3526  0.0119 -0.1583
 4217SOL    HW119701  12.582   2.145   5.054  0.0591 -0.3013 -0.0192
 4217SOL    HW219702  12.499   2.103   4.935  0.1879  0.1327 -0.2630
 4218SOL     OW19703   7.880   7.850   6.257 -0.0519  0.4832 -0.0209
 4218SOL    HW119704   7.832   7.910   6.199  0.5426 -0.9573 -2.1428
 4218SOL    HW219705   7.812   7.805   6.307 -0.8672 -0.3032 -1.7523
 4219SOL     OW19706   3.898   5.708  11.078  0.2288 -0.1844 -0.4014
 4219SOL    HW119707   3.846   5.743  11.006 -0.4103  1.8204  0.9417
 4219SOL    HW219708   3.858   5.745  11.157  1.8662 -0.9933  0.8837
 4220SOL     OW19709  10.295  12.247   0.977  0.7161 -0.1964 -0.2122
 4220SOL    HW119710  10.237  12.188   0.929 -0.0202  0.1307  0.2629
 4220SOL    HW219711  10.274  12.231   1.069  1.1187  0.1938 -0.0498
 4221SOL     OW19712  10.600  10.336   5.458  0.3236 -0.5549  0.0215
 4221SOL    HW119713  10.527  10.293   5.501 -0.2768 -0.0937 -0.5262
 4221SOL    HW219714  10.623  10.278   5.386  0.9989 -1.0733  0.6377
 4222SOL     OW19715  10.201   8.819   3.875  0.1014  0.0470  0.3962
 4222SOL    HW119716  10.278   8.766   3.853  0.7272  1.0858 -0.0060
 4222SOL    HW219717  10.174   8.857   3.792 -1.9240 -1.6170  0.2010
 4223SOL     OW19718   6.497   5.350   8.086  0.4839  0.3789  0.1049
 4223SOL    HW119719   6.547   5.307   8.156  0.6945  1.5436  0.6983
 4223SOL    HW219720   6.564   5.377   8.023  0.1449 -2.5969 -1.7424
 4224SOL     OW19721   3.752  10.990   2.033  0.3258 -0.3268  0.0509
 4224SOL    HW119722   3.751  10.894   2.032 -0.3694 -0.3222 -0.1173
 4224SOL    HW219723   3.832  11.014   1.984  0.6382 -0.8170  0.3154
 4225SOL     OW19724   3.001   4.730   9.030  0.1711 -0.0191  0.0503
 4225SOL    HW119725   3.092   4.748   9.008  0.2695 -1.6641 -1.0024
 4225SOL    HW219726   2.996   4.635   9.035 -1.4418  0.0622  0.3413
 4226SOL     OW19727   3.837  11.345   9.414  0.7446 -0.5194 -0.2153
 4226SOL    HW119728   3.820  11.324   9.506  2.1803  1.2187  0.4922
 4226SOL    HW219729   3.932  11.348   9.407  0.6452  0.4128 -1.4982
 4227SOL     OW19730   8.245   4.680   1.064  0.4633  0.1731  0.0818
 4227SOL    HW119731   8.306   4.672   0.991  2.2723  1.1436  1.3939
 4227SOL    HW219732   8.294   4.647   1.140 -1.8435 -2.1803  0.7078
 4228SOL     OW19733   9.910   0.767   2.944  1.0205 -0.3116 -0.0253
 4228SOL    HW119734   9.918   0.727   3.031 -0.1475 -1.4399 -0.4002
 4228SOL    HW219735   9.985   0.733   2.895  0.3398 -1.6467 -0.1743
 4229SOL     OW19736   6.115   0.872  10.438  0.5590 -0.5565 -0.2074
 4229SOL    HW119737   6.041   0.915  10.395 -0.7042 -1.8106  0.6183
 4229SOL    HW219738   6.148   0.937  10.499 -0.7209 -0.3917  0.3496
 4230SOL     OW19739   2.200   0.340   4.021  0.3135 -0.8287 -0.2832
 4230SOL    HW119740   2.131   0.328   4.086 -0.0284 -0.9774 -0.6689
 4230SOL    HW219741   2.240   0.253   4.013  2.6955 -0.1258  2.2781
 4231SOL     OW19742   0.366   8.433   5.931  0.2911 -0.1697 -0.0338
 4231SOL    HW119743   0.460   8.430   5.913  0.1115 -0.7655 -0.9569
 4231SOL    HW219744   0.352   8.361   5.993  0.4960  0.1719  0.4177
 4232SOL     OW19745   6.324   2.490   3.897  0.1417  0.6395  0.4594
 4232SOL    HW119746   6.285   2.495   3.984  0.9490 -2.0696  1.0566
 4232SOL    HW219747   6.269   2.427   3.850 -1.2308  3.1734 -1.6221
 4233SOL     OW19748  12.570   8.538  12.232  0.0722  0.1548 -0.1633
 4233SOL    HW119749  12.583   8.629  12.204 -0.2433  0.4115  0.4851
 4233SOL    HW219750  12.614   8.533  12.317  0.3460 -0.3874 -0.3355
 4234SOL     OW19751   6.037   5.911   1.304 -0.1996 -0.8438  0.3842
 4234SOL    HW119752   6.077   5.987   1.344  0.4386 -0.9666  0.0011
 4234SOL    HW219753   5.949   5.906   1.342 -1.0091  1.2435 -1.0494
 4235SOL     OW19754   2.726   0.959   1.485 -0.5133  0.1512 -0.1764
 4235SOL    HW119755   2.705   1.053   1.484 -2.2555 -0.1707  1.1597
 4235SOL    HW219756   2.764   0.944   1.572 -2.0513 -0.6976  0.3794
 4236SOL     OW19757   3.174   1.625  10.490 -0.2127 -0.4682  0.3850
 4236SOL    HW119758   3.112   1.658  10.556 -0.7911 -1.2018  0.2278
 4236SOL    HW219759   3.158   1.678  10.413 -0.7105 -0.6987  0.3242
 4237SOL     OW19760   0.536   4.817   3.200  0.0430 -0.1150 -0.6668
 4237SOL    HW119761   0.448   4.793   3.169 -0.4199  1.3708 -0.5888
 4237SOL    HW219762   0.540   4.780   3.289 -0.8725  0.5721 -0.3205
 4238SOL     OW19763  10.412   4.329   1.832  0.2120  0.3559 -0.3403
 4238SOL    HW119764  10.463   4.375   1.898 -0.5481  1.5089 -0.5224
 4238SOL    HW219765  10.404   4.239   1.865  0.4042  0.7458  0.8028
 4239SOL     OW19766   4.379   9.214   8.966  0.1647 -0.0634 -0.2029
 4239SOL    HW119767   4.414   9.131   8.999  3.9272  0.6081 -1.8830
 4239SOL    HW219768   4.343   9.192   8.880 -0.4121 -0.2321  0.0834
 4240SOL     OW19769   7.642   5.372  11.045  0.2608  0.2149  0.4500
 4240SOL    HW119770   7.561   5.340  11.086  0.7331 -1.5216  0.1092
 4240SOL    HW219771   7.699   5.394  11.118 -0.1373  0.4055  0.7046
 4241SOL     OW19772   0.542   7.718   7.430 -0.2625 -0.0081 -0.6507
 4241SOL    HW119773   0.574   7.728   7.520  0.6879 -1.3227 -0.8034
 4241SOL    HW219774   0.587   7.787   7.381  2.5411 -1.8282 -0.8652
 4242SOL     OW19775  12.276  10.783  11.845 -0.0149  0.1227 -0.4850
 4242SOL    HW119776  12.316  10.809  11.927  0.0236 -1.3295 -0.0065
 4242SOL    HW219777  12.183  10.805  11.855 -0.1987 -0.9654  0.3744
 4243SOL     OW19778   0.874  10.034   1.203 -0.2054 -0.1764  0.2610
 4243SOL    HW119779   0.937  10.087   1.253 -2.1311  1.1564  1.3915
 4243SOL    HW219780   0.883  10.066   1.113 -0.6004  1.4165  0.7465
 4244SOL     OW19781   8.989   7.947   2.536 -0.1393 -0.3189 -0.1751
 4244SOL    HW119782   8.962   7.855   2.538 -2.3336  0.2525 -0.3995
 4244SOL    HW219783   8.985   7.975   2.627  0.2817 -0.3733 -0.1384
 4245SOL     OW19784   0.236  12.586   0.780  0.2005  0.0504  0.8828
 4245SOL    HW119785   0.195  12.559   0.862  0.0153 -2.8076 -0.0226
 4245SOL    HW219786   0.278  12.506   0.747  1.8485  1.5551 -0.9119
 4246SOL     OW19787   4.759  10.444  10.768  0.3404 -0.0570  0.1904
 4246SOL    HW119788   4.688  10.506  10.779 -0.8213 -1.0819 -1.0508
 4246SOL    HW219789   4.729  10.386  10.697  2.4540 -0.4596 -0.4510
 4247SOL     OW19790   2.622   8.552   9.361 -0.2854  0.6183  0.1619
 4247SOL    HW119791   2.642   8.522   9.449  3.7848  1.0237 -0.4305
 4247SOL    HW219792   2.644   8.645   9.361  0.2021  0.5412 -1.3598
 4248SOL     OW19793   3.953  12.085  11.032 -0.2215  0.1355  0.5202
 4248SOL    HW119794   3.857  12.089  11.035 -0.2237 -0.3802  1.4789
 4248SOL    HW219795   3.974  12.091  10.939 -1.3011 -1.8852  0.0975
 4249SOL     OW19796   2.681   7.240  11.177  0.4596 -0.8421  0.0722
 4249SOL    HW119797   2.674   7.165  11.118  0.1982 -0.9918  0.2905
 4249SOL    HW219798   2.595   7.280  11.175  1.1052  0.5882 -1.5088
 4250SOL     OW19799   9.693   0.078   5.814  0.0073  0.1907  0.2948
 4250SOL    HW119800   9.736  -0.006   5.798 -1.5258 -0.9814  1.9710
 4250SOL    HW219801   9.752   0.123   5.876  0.8563  0.4120 -0.6465
 4251SOL     OW19802   6.676   9.088   2.700  0.3986  0.1975  0.0218
 4251SOL    HW119803   6.740   9.154   2.728  0.9504  1.1180 -3.0072
 4251SOL    HW219804   6.722   9.037   2.634 -0.3667 -2.6683  1.5426
 4252SOL     OW19805   5.509   9.280  10.088 -0.1678  0.0130  0.2291
 4252SOL    HW119806   5.575   9.336  10.128  0.2362 -0.1942 -0.1398
 4252SOL    HW219807   5.430   9.335  10.084  0.2809  0.6421 -0.3411
 4253SOL     OW19808   1.852   4.701   1.478  0.3554 -0.0120  0.8635
 4253SOL    HW119809   1.935   4.733   1.443 -0.8464  1.0768 -1.1847
 4253SOL    HW219810   1.832   4.624   1.425 -0.2911  0.1730  0.8297
 4254SOL     OW19811   0.139  11.571   8.545  0.4433  0.1475  0.0085
 4254SOL    HW119812   0.119  11.487   8.504 -2.8804  0.4111  0.7944
 4254SOL    HW219813   0.107  11.636   8.482 -1.6076  0.6136  1.4057
 4255SOL     OW19814   0.936   7.495   3.109 -0.0971  0.3191 -0.3474
 4255SOL    HW119815   0.846   7.464   3.103 -0.2342  0.5643  0.2926
 4255SOL    HW219816   0.932   7.566   3.174  0.5210  0.4612 -0.4576
 4256SOL     OW19817  11.490  12.220   8.863 -0.5677 -0.4368 -0.0309
 4256SOL    HW119818  11.520  12.189   8.948  2.6376  2.1254 -0.0289
 4256SOL    HW219819  11.547  12.178   8.799  0.8783  1.8014 -0.3458
 4257SOL     OW19820   9.280  11.517   3.258 -0.0589  0.4330 -0.3852
 4257SOL    HW119821   9.222  11.441   3.248  0.5153  0.0606 -0.9329
 4257SOL    HW219822   9.298  11.521   3.352  1.6525 -1.4456 -0.5607
 4258SOL     OW19823   8.102   0.759   8.506  0.4173  0.5645 -0.7073
 4258SOL    HW119824   8.169   0.749   8.574  0.9269  0.6058 -1.1989
 4258SOL    HW219825   8.024   0.716   8.542  1.1612 -0.8758 -0.7715
 4259SOL     OW19826   5.283   7.399   6.764 -0.1324  0.2341  0.1637
 4259SOL    HW119827   5.339   7.467   6.801 -1.2075  1.1797  0.0869
 4259SOL    HW219828   5.274   7.423   6.672 -0.6992  0.1164  0.1871
 4260SOL     OW19829   9.851   7.926   7.233 -0.3226  0.4423 -0.1491
 4260SOL    HW119830   9.933   7.877   7.240 -0.8718 -0.2905  2.5611
 4260SOL    HW219831   9.871   7.999   7.175  1.8551 -0.4421 -0.6147
 4261SOL     OW19832  12.400   1.493  12.504 -0.1244  0.4290  0.0575
 4261SOL    HW119833  12.434   1.466  12.590  1.4723 -1.9698 -1.2045
 4261SOL    HW219834  12.315   1.531  12.523  0.7202  1.1673  2.8168
 4262SOL     OW19835   9.100   9.914   9.801  0.3252 -0.2954  0.5046
 4262SOL    HW119836   9.174   9.883   9.749 -0.8214 -0.2127 -1.2840
 4262SOL    HW219837   9.138   9.942   9.884  2.1257 -1.2723  0.0590
 4263SOL     OW19838  11.681   0.908   6.888  0.0642 -0.4423 -0.2840
 4263SOL    HW119839  11.649   0.984   6.938 -3.3110 -1.1904 -1.1104
 4263SOL    HW219840  11.700   0.842   6.955  0.2538  0.1614  0.2707
 4264SOL     OW19841   4.075   7.193   2.948 -0.3885  0.2567 -0.2908
 4264SOL    HW119842   4.155   7.237   2.920 -0.9273  1.8797  0.5861
 4264SOL    HW219843   4.086   7.102   2.918  1.7021  0.4628 -0.3253
 4265SOL     OW19844  10.681   5.976  12.284 -0.0030 -0.1270 -0.1089
 4265SOL    HW119845  10.636   6.006  12.363  0.8188 -2.0418  1.1682
 4265SOL    HW219846  10.759   5.930  12.317 -0.1796 -1.9149 -1.9732
 4266SOL     OW19847   1.327   3.443   6.119  0.4543 -0.5424  0.0683
 4266SOL    HW119848   1.362   3.356   6.138 -0.5886 -0.8059  0.8657
 4266SOL    HW219849   1.344   3.493   6.199 -2.0254 -1.0336  0.9901
 4267SOL     OW19850  11.214   9.806  10.342  0.2931 -0.3953 -0.6431
 4267SOL    HW119851  11.160   9.829  10.418 -1.9209 -1.3054 -1.8435
 4267SOL    HW219852  11.169   9.732  10.302  1.4863 -0.0745 -2.7360
 4268SOL     OW19853   8.221   0.742   9.729  0.2970 -0.4991  0.2404
 4268SOL    HW119854   8.249   0.817   9.676  0.7506 -0.3925  0.6251
 4268SOL    HW219855   8.286   0.674   9.711 -0.4694 -1.0448 -0.6120
 4269SOL     OW19856  10.225   1.387   2.705  0.0854  0.0500  0.1664
 4269SOL    HW119857  10.231   1.423   2.616  0.7739  2.4102  1.0853
 4269SOL    HW219858  10.183   1.457   2.756  1.4774 -0.4199  2.0842
 4270SOL     OW19859   6.614  10.802  10.582  0.2952  0.2389  0.4014
 4270SOL    HW119860   6.693  10.773  10.626  1.9770  2.7710 -0.6794
 4270SOL    HW219861   6.563  10.846  10.651  1.0438  0.7550  0.6416
 4271SOL     OW19862   1.508   2.251   5.041  0.1568 -0.1191  0.0353
 4271SOL    HW119863   1.427   2.200   5.051 -0.1064 -0.0290 -1.3437
 4271SOL    HW219864   1.577   2.191   5.068 -0.4174  0.1836  2.3437
 4272SOL     OW19865   4.099  11.282   5.635  0.5943  0.1138 -0.4309
 4272SOL    HW119866   4.162  11.246   5.574 -0.3889 -0.6277 -1.0423
 4272SOL    HW219867   4.038  11.210   5.651 -0.2567  0.8957 -0.0863
 4273SOL     OW19868   9.160   8.910   3.224  0.2107 -0.4454 -0.4022
 4273SOL    HW119869   9.219   8.850   3.178  2.0239 -0.0208  1.2826
 4273SOL    HW219870   9.128   8.969   3.156  2.7864  0.1508 -1.1749
 4274SOL     OW19871  10.717   4.819  11.293 -0.0617 -0.1327  0.0949
 4274SOL    HW119872  10.796   4.769  11.315  0.1098  0.1314  0.0854
 4274SOL    HW219873  10.721   4.829  11.198  1.7242  2.8302  0.3543
 4275SOL     OW19874  10.095   9.514   0.063 -0.3506  0.2808 -0.3444
 4275SOL    HW119875  10.169   9.470   0.020 -0.4439 -1.2220  0.9460
 4275SOL    HW219876  10.135   9.583   0.115  0.1389 -0.4065  0.2062
 4276SOL     OW19877   0.633   7.871   2.887  0.3836 -0.7017  0.1421
 4276SOL    HW119878   0.681   7.945   2.924 -1.3007  0.4503  0.1479
 4276SOL    HW219879   0.655   7.798   2.945  1.1508  0.0580  0.8558
 4277SOL     OW19880   1.176   7.285   1.850 -0.2760  0.1530 -0.1764
 4277SOL    HW119881   1.141   7.374   1.858 -1.5452 -0.3054 -0.2736
 4277SOL    HW219882   1.159   7.262   1.758 -1.6500 -0.8241  0.2840
 4278SOL     OW19883   2.876   6.463   2.129 -0.1789 -0.2262 -0.1698
 4278SOL    HW119884   2.903   6.371   2.137 -2.7574 -1.1277 -1.0474
 4278SOL    HW219885   2.828   6.481   2.210 -0.6839 -0.0176 -0.5138
 4279SOL     OW19886  10.338   0.443   3.498 -0.2701 -0.6847  0.0393
 4279SOL    HW119887  10.284   0.393   3.559  1.7390 -2.2810  0.6564
 4279SOL    HW219888  10.322   0.401   3.413 -0.5582 -0.6523  0.0760
 4280SOL     OW19889  11.170   4.308  12.000  0.1828  0.3480  0.0249
 4280SOL    HW119890  11.112   4.363  11.947  0.3155 -1.1164 -1.7422
 4280SOL    HW219891  11.242   4.366  12.025 -0.1528  1.2216 -0.9750
 4281SOL     OW19892   4.750   6.426   2.158  0.1846  0.3178  0.2764
 4281SOL    HW119893   4.732   6.344   2.203  2.6622 -1.6083 -1.8880
 4281SOL    HW219894   4.814   6.471   2.214 -0.0155  0.0450  0.7248
 4282SOL     OW19895  12.175   9.406   8.971 -0.4145  0.4204  0.2059
 4282SOL    HW119896  12.219   9.451   9.044  0.5007 -0.4133  0.1796
 4282SOL    HW219897  12.246   9.372   8.917 -1.0280 -2.2460  0.9395
 4283SOL     OW19898   3.245  10.714  10.769  0.0373 -0.1132  0.5924
 4283SOL    HW119899   3.300  10.641  10.739  1.9265  1.8340 -0.9779
 4283SOL    HW219900   3.195  10.740  10.692 -0.2068  0.5951  0.9810
 4284SOL     OW19901   1.634   2.130  10.612  0.0394  0.2729 -0.5999
 4284SOL    HW119902   1.575   2.172  10.551  0.9550  0.6849 -1.2167
 4284SOL    HW219903   1.658   2.198  10.675 -1.1345 -0.2237  0.4223
 4285SOL     OW19904   4.928  10.443   4.871  0.2628 -0.2082  0.1218
 4285SOL    HW119905   4.847  10.428   4.823 -0.1130  2.4180 -0.2022
 4285SOL    HW219906   4.995  10.451   4.803  0.5040 -0.6507  0.3004
 4286SOL     OW19907   5.403  11.290  12.060  0.0409 -0.2348 -0.5143
 4286SOL    HW119908   5.411  11.355  11.990  0.2371 -1.2967 -1.5082
 4286SOL    HW219909   5.315  11.303  12.095 -0.3258 -0.1533 -1.4362
 4287SOL     OW19910   8.933   6.403   2.123  0.2272  0.0414  0.3475
 4287SOL    HW119911   8.873   6.336   2.158  0.9222 -1.1604 -0.6503
 4287SOL    HW219912   8.886   6.485   2.133 -1.7522 -0.8856 -0.6708
 4288SOL     OW19913   4.803   5.549   9.819  0.0642  0.1035 -0.1467
 4288SOL    HW119914   4.893   5.520   9.809  0.6139  1.6044  0.1947
 4288SOL    HW219915   4.809   5.642   9.840 -1.5647  0.2442 -0.1077
 4289SOL     OW19916   8.208   1.286   4.371  0.6248 -0.0571 -0.7246
 4289SOL    HW119917   8.222   1.258   4.462 -2.0081  0.6761 -0.0068
 4289SOL    HW219918   8.219   1.206   4.320  2.2219 -0.4766  0.1796
 4290SOL     OW19919   8.543  10.037   0.680 -0.2009  0.5628 -0.4457
 4290SOL    HW119920   8.514  10.095   0.751 -1.6838 -0.8131  0.1297
 4290SOL    HW219921   8.637  10.025   0.697 -0.1277  1.7769  0.1437
 4291SOL     OW19922   4.472  12.049   1.666  0.9485  0.2697 -0.1837
 4291SOL    HW119923   4.524  12.067   1.588  1.7416  0.7748  0.4425
 4291SOL    HW219924   4.488  11.956   1.684  0.0014 -0.1043 -1.1479
 4292SOL     OW19925   9.742   0.124   9.448 -0.1066  0.0187  0.3617
 4292SOL    HW119926   9.824   0.099   9.491  0.1361  0.2232  0.0240
 4292SOL    HW219927   9.689   0.161   9.519 -0.5241 -1.5432  0.8998
 4293SOL     OW19928   9.488   9.489   9.065  0.2337  0.3439  0.1813
 4293SOL    HW119929   9.401   9.459   9.092  0.7620 -1.3484  0.1619
 4293SOL    HW219930   9.473   9.573   9.023 -1.6077 -0.5939 -1.1688
 4294SOL     OW19931   5.182   3.258   5.213  0.6228  0.2634 -0.3887
 4294SOL    HW119932   5.177   3.252   5.308  0.4151  0.9284 -0.3533
 4294SOL    HW219933   5.178   3.167   5.183  0.1433  0.0811  0.2120
 4295SOL     OW19934   0.709   6.082   7.023 -0.0271  0.4453 -0.2988
 4295SOL    HW119935   0.683   6.155   7.079  0.1348 -0.2480  0.7153
 4295SOL    HW219936   0.657   6.092   6.944  0.8330  2.3108 -0.6693
 4296SOL     OW19937   2.136   6.754   5.092  0.4772 -0.1041  0.4375
 4296SOL    HW119938   2.132   6.838   5.046 -2.1168 -0.8989 -1.0479
 4296SOL    HW219939   2.076   6.765   5.166  0.3930 -0.5099  0.4320
 4297SOL     OW19940   0.163   6.816   1.832 -0.2011 -0.7138  0.2220
 4297SOL    HW119941   0.148   6.882   1.900  0.2970 -0.1740 -0.1834
 4297SOL    HW219942   0.084   6.820   1.778  1.1023  1.8854 -1.7088
 4298SOL     OW19943   0.829  10.817   0.105 -0.3793 -0.1434 -0.5469
 4298SOL    HW119944   0.808  10.756   0.034 -3.0605 -0.9156  0.8048
 4298SOL    HW219945   0.763  10.885   0.098 -0.7499 -0.2783  1.2310
 4299SOL     OW19946   5.988  10.868   2.482 -0.2058  0.2916  0.0137
 4299SOL    HW119947   5.942  10.951   2.466 -0.1373  0.2546 -0.3909
 4299SOL    HW219948   5.981  10.821   2.399 -1.3248 -0.6455  0.6048
 4300SOL     OW19949   2.280   2.479  12.000 -0.1100 -0.1688  0.0241
 4300SOL    HW119950   2.369   2.449  11.983  0.2814  0.6886  0.5075
 4300SOL    HW219951   2.282   2.513  12.090 -0.8871 -0.0296 -0.0011
 4301SOL     OW19952   5.625   6.825   2.892  0.0954  0.2585 -0.5248
 4301SOL    HW119953   5.612   6.853   2.802  1.1604  0.4392 -0.6307
 4301SOL    HW219954   5.720   6.825   2.904  0.1052 -2.0417 -0.1447
 4302SOL     OW19955   7.513   3.879   0.947 -0.0693 -0.9748 -0.5881
 4302SOL    HW119956   7.550   3.913   1.029  0.7565 -0.5962 -1.0980
 4302SOL    HW219957   7.590   3.848   0.897 -0.6352 -1.9764 -0.8752
 4303SOL     OW19958   5.078   1.123   4.795 -0.1190 -0.3523 -0.2668
 4303SOL    HW119959   5.166   1.153   4.774  1.0027 -2.6891  0.6888
 4303SOL    HW219960   5.048   1.181   4.865  1.0968 -0.1871  0.1299
 4304SOL     OW19961  12.295  10.653   9.649  0.0643  0.0653  0.0848
 4304SOL    HW119962  12.323  10.578   9.598 -1.5493 -0.6553  0.2030
 4304SOL    HW219963  12.238  10.702   9.590 -0.5782  0.0522  0.6840
 4305SOL     OW19964   7.299  12.217   3.478  0.3765 -0.3476  0.0701
 4305SOL    HW119965   7.234  12.269   3.526  1.8746  1.1601  0.5600
 4305SOL    HW219966   7.347  12.170   3.546  2.2680  1.5198  0.1403
 4306SOL     OW19967   3.780   9.351   2.304 -0.1137  0.5300 -0.4026
 4306SOL    HW119968   3.710   9.285   2.303  0.0687  0.2768 -2.8257
 4306SOL    HW219969   3.820   9.341   2.390  0.4301 -3.1733 -0.8909
 4307SOL     OW19970   9.145   2.290   8.756 -1.0810  0.1894 -0.3800
 4307SOL    HW119971   9.164   2.383   8.766  0.9345 -0.0992 -1.1171
 4307SOL    HW219972   9.199   2.247   8.822  0.3016 -0.6119 -1.9354
 4308SOL     OW19973   1.220   3.179   0.436  0.5139  0.5511  0.3175
 4308SOL    HW119974   1.290   3.240   0.412  0.5998  1.0363  1.7333
 4308SOL    HW219975   1.145   3.206   0.382  1.1389  0.5950 -0.5549
 4309SOL     OW19976   5.582   0.837   1.900 -0.3346  0.4039 -0.2846
 4309SOL    HW119977   5.537   0.753   1.889  0.4241  0.1659 -1.7797
 4309SOL    HW219978   5.664   0.827   1.851  0.6990  1.3305  1.1870
 4310SOL     OW19979   2.738   7.493  11.537 -0.1278 -0.4031  0.1400
 4310SOL    HW119980   2.777   7.515  11.452 -0.6662  2.6085  0.5439
 4310SOL    HW219981   2.652   7.456  11.515 -1.0062  1.9471 -0.7108
 4311SOL     OW19982   6.671  12.175   8.757  0.2952  0.4870  0.6360
 4311SOL    HW119983   6.742  12.207   8.813 -0.7752  0.0148  2.3544
 4311SOL    HW219984   6.674  12.231   8.680  1.6958  1.3383  1.2753
 4312SOL     OW19985   7.021   7.493   5.004 -0.7436 -0.2137 -0.6005
 4312SOL    HW119986   7.014   7.484   5.099  0.0443  2.0396 -0.2571
 4312SOL    HW219987   6.964   7.567   4.984  1.3940  1.3376 -1.3839
 4313SOL     OW19988  12.249   6.351   4.156  0.7534  0.4381  0.1858
 4313SOL    HW119989  12.256   6.421   4.221 -0.9669 -3.1188  4.8059
 4313SOL    HW219990  12.339   6.319   4.145  0.8779 -0.3843  2.9304
 4314SOL     OW19991   4.090   0.240  10.890  0.0879  0.1710  0.2627
 4314SOL    HW119992   4.064   0.216  10.801  0.9172 -2.8101  0.7012
 4314SOL    HW219993   4.009   0.267  10.933 -1.0971 -2.1583 -0.3350
 4315SOL     OW19994  10.310   1.436   7.860  0.3627 -0.0889  0.4272
 4315SOL    HW119995  10.284   1.527   7.843 -0.1565 -0.4836 -1.1245
 4315SOL    HW219996  10.405   1.441   7.874  0.3612  0.6879  0.2392
 4316SOL     OW19997  12.148   9.598   4.546 -0.1971 -0.1015 -0.3558
 4316SOL    HW119998  12.130   9.553   4.463 -0.9205 -0.7419  0.1378
 4316SOL    HW219999  12.132   9.690   4.527 -0.0670 -0.2064 -1.0090
 4317SOL     OW20000   7.805   0.664  11.805 -0.1115 -0.6926  0.3228
 4317SOL    HW120001   7.808   0.725  11.731  0.5302 -0.9099  0.1664
 4317SOL    HW220002   7.772   0.717  11.878 -0.0178 -0.2801  0.0716
 4318SOL     OW20003  12.501   1.042   4.131  0.0737 -0.4613 -0.3749
 4318SOL    HW120004  12.496   1.027   4.226 -0.9275  0.4096 -0.2680
 4318SOL    HW220005  12.479   0.957   4.093 -0.0555 -0.6862  0.1847
 4319SOL     OW20006  10.412   1.465   9.778  0.2541  0.0114 -0.2741
 4319SOL    HW120007  10.376   1.424   9.699 -1.1605 -1.1858  0.9208
 4319SOL    HW220008  10.488   1.411   9.800  0.3267  0.0189 -0.4965
 4320SOL     OW20009  11.274   1.623   1.666 -0.1473  0.3707 -0.2918
 4320SOL    HW120010  11.256   1.584   1.752  1.1221 -0.7130 -0.4774
 4320SOL    HW220011  11.192   1.614   1.618 -0.6951  0.4547  0.6094
 4321SOL     OW20012  12.058   2.050   9.016  0.7838 -0.1039 -0.2920
 4321SOL    HW120013  12.086   2.002   9.094 -1.4558 -0.6762  0.2376
 4321SOL    HW220014  11.966   2.072   9.033  1.0744  2.4223 -1.5101
 4322SOL     OW20015   4.785   8.325   6.471 -0.0780  0.0046 -0.0593
 4322SOL    HW120016   4.796   8.239   6.511  1.6827 -0.6648 -1.8019
 4322SOL    HW220017   4.820   8.315   6.383  2.0196  2.9745  0.2892
 4323SOL     OW20018  10.887  12.578   2.909  0.2332  0.3817  0.7264
 4323SOL    HW120019  10.929  12.593   2.994 -0.4098  2.2665  0.7626
 4323SOL    HW220020  10.937  12.631   2.848 -1.1261  1.5017  0.5159
 4324SOL     OW20021   9.591   1.588  12.526 -0.6439  0.1545 -0.3964
 4324SOL    HW120022   9.519   1.529  12.547 -1.3709  0.6907 -1.2941
 4324SOL    HW220023   9.610   1.571  12.433 -0.9402  1.3884 -0.7027
 4325SOL     OW20024   2.984   1.616   3.858 -0.3125  0.3877  0.0885
 4325SOL    HW120025   2.994   1.590   3.767  1.3712  0.6275  0.1820
 4325SOL    HW220026   3.014   1.540   3.908 -1.2061  0.2626  0.4643
 4326SOL     OW20027   7.398   0.769   1.842  0.4120 -0.4778 -0.2871
 4326SOL    HW120028   7.431   0.845   1.890 -1.2423 -0.4851  0.9736
 4326SOL    HW220029   7.476   0.727   1.807  1.4696  1.0580  0.1064
 4327SOL     OW20030   1.204  12.295   0.028  0.5125  0.1514  0.2222
 4327SOL    HW120031   1.295  12.278   0.055  0.4356 -0.8863 -0.1315
 4327SOL    HW220032   1.194  12.247  -0.054  0.3928  2.3279 -1.1254
 4328SOL     OW20033  11.225  10.240   0.005  0.0113  0.0533  0.4677
 4328SOL    HW120034  11.214  10.147  -0.013  3.1971 -0.0913 -1.4876
 4328SOL    HW220035  11.197  10.284  -0.076  2.4757  0.3715 -0.3126
 4329SOL     OW20036   1.260   1.832   9.039 -0.0481  0.2750  0.1745
 4329SOL    HW120037   1.354   1.818   9.026 -0.0809  0.2504 -0.0476
 4329SOL    HW220038   1.220   1.751   9.008 -0.0542 -0.3136  1.6555
 4330SOL     OW20039   7.520   3.036   3.973  0.0776  0.8279 -0.4477
 4330SOL    HW120040   7.551   3.121   4.005  3.1683 -0.5395  0.5975
 4330SOL    HW220041   7.551   3.030   3.883  2.9307 -0.4208  0.5076
 4331SOL     OW20042   4.584   1.211   5.558 -0.1527 -0.1805  0.2899
 4331SOL    HW120043   4.623   1.293   5.531 -1.5899 -0.0829 -1.7647
 4331SOL    HW220044   4.516   1.236   5.620 -1.5131  0.4220 -1.3451
 4332SOL     OW20045   4.873   6.058   2.820  0.3022 -0.2382  0.0733
 4332SOL    HW120046   4.935   6.015   2.880  1.7541  1.4347 -0.1409
 4332SOL    HW220047   4.796   6.075   2.874  0.7158 -0.7821  0.8624
 4333SOL     OW20048   7.672   8.742   0.493  0.4986  0.3018 -0.3054
 4333SOL    HW120049   7.602   8.756   0.557 -0.8913 -0.4946 -1.5885
 4333SOL    HW220050   7.747   8.713   0.545 -0.1185  1.1401  1.0996
 4334SOL     OW20051   1.070   4.229   8.705  0.4686 -0.3187 -0.4163
 4334SOL    HW120052   1.028   4.297   8.652  0.4843  1.2238  1.4157
 4334SOL    HW220053   0.998   4.186   8.750  0.6364  1.4990  1.7735
 4335SOL     OW20054   6.901   0.962   3.378  0.3032 -0.1181  0.0462
 4335SOL    HW120055   6.880   0.964   3.284 -0.7297 -1.3933  0.2288
 4335SOL    HW220056   6.842   0.896   3.415 -0.1377  1.2019  1.8206
 4336SOL     OW20057  10.938  10.034  11.875 -0.0992 -0.6401  0.4510
 4336SOL    HW120058  11.030  10.018  11.855  0.0082  2.0004 -1.5944
 4336SOL    HW220059  10.890   9.986  11.807 -0.1659 -0.3435  0.2904
 4337SOL     OW20060   0.153   1.264   2.465  0.5061 -0.2963  0.2919
 4337SOL    HW120061   0.063   1.296   2.475  0.3688 -1.0174  1.5504
 4337SOL    HW220062   0.207   1.340   2.485  0.1722 -0.4732  2.0104
 4338SOL     OW20063  12.039   6.449   5.571  1.0724  0.5831  0.1814
 4338SOL    HW120064  11.992   6.404   5.500 -0.2146  0.0758  1.3175
 4338SOL    HW220065  12.113   6.392   5.591  1.8809  1.0833 -1.2038
 4339SOL     OW20066  11.386   3.587   4.286  0.7692  0.2009  0.3796
 4339SOL    HW120067  11.335   3.520   4.241 -0.6224  1.2445  0.3318
 4339SOL    HW220068  11.448   3.619   4.220  1.3960 -0.9509  0.3824
 4340SOL     OW20069   9.709   4.227   7.801 -0.2904  0.0758  0.0021
 4340SOL    HW120070   9.674   4.168   7.734  0.5759  0.1518 -0.5380
 4340SOL    HW220071   9.736   4.305   7.752 -1.5472  0.9952  0.7329
 4341SOL     OW20072   0.776   3.958   5.103 -0.4171  0.2167 -0.3376
 4341SOL    HW120073   0.781   3.920   5.191  1.7010 -0.7529 -0.8172
 4341SOL    HW220074   0.749   3.885   5.047 -0.7547  0.5780 -0.6565
 4342SOL     OW20075   6.581   4.085  12.452 -0.6947 -0.4646 -0.4792
 4342SOL    HW120076   6.610   4.004  12.494 -2.1804 -0.6405  0.3031
 4342SOL    HW220077   6.505   4.058  12.399  0.6200 -0.0902 -2.6585
 4343SOL     OW20078   1.328  11.498   2.098 -0.4566  0.3286 -0.3427
 4343SOL    HW120079   1.408  11.545   2.121  0.3472 -0.7016 -0.9415
 4343SOL    HW220080   1.352  11.447   2.021 -1.4909 -0.5576 -0.1011
 4344SOL     OW20081   6.095  10.913   4.568 -0.3762  0.6523  0.2503
 4344SOL    HW120082   6.102  10.824   4.603 -0.0789  0.7211  0.3680
 4344SOL    HW220083   6.180  10.929   4.526  0.0027  1.3047  1.2323
 4345SOL     OW20084   8.694   3.259   3.983 -0.2218  0.6591 -0.3989
 4345SOL    HW120085   8.727   3.291   4.068 -1.3942 -0.1701  0.4072
 4345SOL    HW220086   8.654   3.336   3.942  0.0970  1.0048 -0.0725
 4346SOL     OW20087   5.697   5.629   8.086 -0.7278  0.0124  0.2158
 4346SOL    HW120088   5.728   5.718   8.097  0.4800  0.1307 -3.0638
 4346SOL    HW220089   5.609   5.638   8.049  0.7276  0.1227 -3.6730
 4347SOL     OW20090  10.049   8.605  11.879 -0.1009 -0.1800  0.3487
 4347SOL    HW120091  10.029   8.683  11.827 -1.6402 -0.3050  0.7005
 4347SOL    HW220092  10.132   8.574  11.845  0.0533  1.0503 -0.4685
 4348SOL     OW20093   8.648  12.182   2.601 -0.1815  0.2225  0.4577
 4348SOL    HW120094   8.653  12.114   2.669 -2.3677  0.2532  0.7193
 4348SOL    HW220095   8.667  12.263   2.646  1.5388 -0.0706  0.3314
 4349SOL     OW20096   7.400  11.745   4.399  0.1924  0.0735  0.4300
 4349SOL    HW120097   7.445  11.815   4.448  0.0626  0.7024 -0.3350
 4349SOL    HW220098   7.405  11.669   4.457 -1.3324  1.1743  2.1423
 4350SOL     OW20099   5.438   2.167  11.510  0.2638 -0.4488  0.3997
 4350SOL    HW120100   5.481   2.221  11.444 -1.0515 -0.7489 -0.7391
 4350SOL    HW220101   5.366   2.222  11.542  0.6433 -0.4620  1.3051
 4351SOL     OW20102   9.283   8.108   6.736  0.0242 -0.2444 -0.2309
 4351SOL    HW120103   9.257   8.081   6.823  1.6034  1.6976  0.9438
 4351SOL    HW220104   9.355   8.050   6.712  1.1596  0.6659  0.8277
 4352SOL     OW20105  12.048  11.941   2.759 -0.3821  0.2672  0.3872
 4352SOL    HW120106  11.956  11.922   2.781 -0.2979  0.4792  0.9507
 4352SOL    HW220107  12.086  11.855   2.739 -0.2729 -0.0671  1.8600
 4353SOL     OW20108  10.123   3.146  12.386  0.1707 -0.0392  0.0299
 4353SOL    HW120109  10.124   3.155  12.482 -0.4321  0.2911  0.0095
 4353SOL    HW220110  10.094   3.231  12.354 -2.0244 -0.8380 -0.3246
 4354SOL     OW20111  12.553   2.497   6.591 -0.2314 -0.1144  0.1418
 4354SOL    HW120112  12.549   2.547   6.510 -2.9222 -0.8045 -0.2509
 4354SOL    HW220113  12.624   2.537   6.641  2.1458 -0.2229 -2.8408
 4355SOL     OW20114  10.900  11.022   5.343 -0.3960  0.5947  0.0704
 4355SOL    HW120115  10.935  11.105   5.309 -0.3631  1.7657  2.7097
 4355SOL    HW220116  10.940  11.013   5.430 -0.3171 -2.2909 -0.1826
 4356SOL     OW20117   9.283   3.354  12.247  0.3452  0.4473 -0.0780
 4356SOL    HW120118   9.191   3.368  12.268  0.5548 -0.2336  1.4096
 4356SOL    HW220119   9.282   3.319  12.158 -0.8986 -0.2244  0.1682
 4357SOL     OW20120   2.491   5.813   0.169 -0.2902 -0.7247 -0.3011
 4357SOL    HW120121   2.396   5.820   0.156 -0.1973 -1.4167 -1.4723
 4357SOL    HW220122   2.513   5.727   0.135  0.8050 -0.4466 -0.3194
 4358SOL     OW20123   3.426  10.738   8.107 -0.1093 -0.0355 -0.1845
 4358SOL    HW120124   3.480  10.717   8.183 -0.1930 -1.7276 -0.5448
 4358SOL    HW220125   3.336  10.733   8.139 -0.2294 -2.4267 -0.6894
 4359SOL     OW20126   4.270  10.219   6.853 -0.1763  0.1920  0.4776
 4359SOL    HW120127   4.313  10.209   6.768  0.6410  0.6623  0.8305
 4359SOL    HW220128   4.225  10.135   6.867  0.5893 -0.2932  0.0866
 4360SOL     OW20129   3.732  12.001   0.386  0.0880  0.1538  0.1616
 4360SOL    HW120130   3.780  12.063   0.441  0.5895  2.0960 -2.2589
 4360SOL    HW220131   3.746  12.034   0.297 -1.0128 -2.5635 -1.1059
 4361SOL     OW20132  11.451  12.181  10.728 -0.0548  0.2811 -0.0627
 4361SOL    HW120133  11.372  12.132  10.748 -0.6654  0.4280 -1.9069
 4361SOL    HW220134  11.508  12.117  10.683  0.8382  0.2089  1.1352
 4362SOL     OW20135   7.829  12.353   8.596  0.0718  0.4179 -0.0628
 4362SOL    HW120136   7.817  12.446   8.579 -0.6372  0.3105 -0.2032
 4362SOL    HW220137   7.783  12.337   8.678 -1.4049 -0.1465 -0.9594
 4363SOL     OW20138   8.676   2.379   2.019  0.0564 -0.3837 -0.4827
 4363SOL    HW120139   8.625   2.443   1.968 -0.3426  0.1543  0.5531
 4363SOL    HW220140   8.764   2.382   1.980 -0.1699  0.2014 -0.9667
 4364SOL     OW20141  10.546   6.142  12.485  0.7978  0.6716 -0.0479
 4364SOL    HW120142  10.465   6.190  12.467  0.4181  0.0980  0.0658
 4364SOL    HW220143  10.613   6.209  12.497  0.3647  1.1493 -0.2874
 4365SOL     OW20144   7.955   6.953  11.233  0.6130  0.1135  0.7381
 4365SOL    HW120145   8.022   6.886  11.219  1.2657  0.8436  0.3006
 4365SOL    HW220146   7.966   6.980  11.324  0.8987  0.2100  0.6765
 4366SOL     OW20147   6.386   4.424  12.215 -0.6756 -0.1235 -0.6439
 4366SOL    HW120148   6.461   4.365  12.209 -0.7489 -0.5792  1.7503
 4366SOL    HW220149   6.321   4.375  12.265 -0.4098  2.1478  2.2179
 4367SOL     OW20150   1.288   2.283   8.863 -0.0954  0.1604  0.7758
 4367SOL    HW120151   1.245   2.214   8.914 -0.1417  0.5597  1.2836
 4367SOL    HW220152   1.223   2.353   8.858  0.3821  0.6561  1.3038
 4368SOL     OW20153   6.819   5.959   0.715  0.2363 -0.3984 -0.0940
 4368SOL    HW120154   6.755   5.933   0.781 -1.1553  0.8276 -0.9141
 4368SOL    HW220155   6.878   6.019   0.762 -0.3767 -0.0109  0.1989
 4369SOL     OW20156   0.221   0.967   7.075  0.0616  0.0818 -0.3886
 4369SOL    HW120157   0.167   1.019   7.016  0.4642  0.3709 -0.5053
 4369SOL    HW220158   0.273   1.031   7.123 -0.4101 -0.1362  0.4375
 4370SOL     OW20159   2.202   9.918  10.841 -0.1883 -0.3389  0.3693
 4370SOL    HW120160   2.268   9.916  10.772  0.0285  2.7026  0.3539
 4370SOL    HW220161   2.244   9.873  10.915  0.4175 -1.6982 -0.7482
 4371SOL     OW20162   7.001   5.668   0.742 -0.1990  0.1010  0.2784
 4371SOL    HW120163   7.052   5.748   0.725  1.3719 -0.0770  3.3816
 4371SOL    HW220164   7.013   5.652   0.836  1.5654 -5.0761 -0.5046
 4372SOL     OW20165   2.394   0.286   1.671  1.4681 -1.0969 -0.0990
 4372SOL    HW120166   2.369   0.268   1.762  1.8134 -2.0456 -0.1762
 4372SOL    HW220167   2.475   0.237   1.659  2.4196  0.5178 -0.3875
 4373SOL     OW20168   2.014   5.050   0.542 -0.3823 -0.1178  0.0842
 4373SOL    HW120169   2.058   5.121   0.589  0.4817 -1.2788  1.0666
 4373SOL    HW220170   1.921   5.070   0.552 -0.1586  0.8929  0.2972
 4374SOL     OW20171   9.175   7.031   2.620 -0.0675  0.6675 -0.0593
 4374SOL    HW120172   9.215   6.987   2.545 -0.6283 -1.5029  0.8261
 4374SOL    HW220173   9.099   7.076   2.583 -2.2703 -2.9645 -0.5457
 4375SOL     OW20174   0.861   2.115   4.523  0.5155 -0.3923 -0.0783
 4375SOL    HW120175   0.920   2.040   4.537 -2.0421 -2.7396 -0.9027
 4375SOL    HW220176   0.809   2.090   4.446 -0.4845  2.2734 -0.3734
 4376SOL     OW20177  11.685   5.400   6.704  0.1364  0.5465  0.2468
 4376SOL    HW120178  11.731   5.405   6.788 -0.6989 -1.2787  0.8432
 4376SOL    HW220179  11.725   5.326   6.659 -1.1397 -0.0904  0.1265
 4377SOL     OW20180   3.725   6.803  12.115 -0.2894  0.2802 -0.2257
 4377SOL    HW120181   3.768   6.862  12.053  2.1519 -3.0295 -2.0275
 4377SOL    HW220182   3.769   6.820  12.199  0.1976  1.1329 -0.6437
 4378SOL     OW20183  11.424   6.142   0.084 -0.2725  0.0350 -0.3429
 4378SOL    HW120184  11.494   6.150   0.019  1.6244 -0.2683  1.5415
 4378SOL    HW220185  11.403   6.233   0.109 -0.2017  0.1120 -0.5658
 4379SOL     OW20186   2.720   9.412  10.118  0.7340  0.3704 -0.1845
 4379SOL    HW120187   2.787   9.443  10.179  0.5662 -0.8921  0.6873
 4379SOL    HW220188   2.739   9.318  10.107 -1.7303 -0.3913  1.2775
 4380SOL     OW20189   8.917  10.652   1.127 -0.8789  0.2621  0.1443
 4380SOL    HW120190   8.891  10.738   1.161  0.8379  0.0477  2.1964
 4380SOL    HW220191   8.994  10.628   1.179  0.1914 -1.4310 -2.0611
 4381SOL     OW20192   3.882   9.995   0.449  0.6803 -0.3690 -0.4539
 4381SOL    HW120193   3.914  10.077   0.412 -1.7067  0.1812 -1.4683
 4381SOL    HW220194   3.851   9.945   0.374  0.3320 -1.3642  0.3372
 4382SOL     OW20195   2.599   0.363  12.035 -0.3136 -0.5821 -0.4275
 4382SOL    HW120196   2.690   0.372  12.006 -0.2821  0.1607 -0.1193
 4382SOL    HW220197   2.561   0.297  11.977  0.5707 -1.3012 -0.2158
 4383SOL     OW20198   5.129  12.571   6.161  0.0567  0.1511 -0.4387
 4383SOL    HW120199   5.206  12.627   6.165 -0.2154  0.4737  0.5791
 4383SOL    HW220200   5.069  12.616   6.101  0.1142  0.6092 -0.1589
 4384SOL     OW20201   1.348   0.181  10.191  0.0304  0.0657 -0.0851
 4384SOL    HW120202   1.441   0.201  10.192  0.0216  0.7955 -3.3025
 4384SOL    HW220203   1.305   0.263  10.215  0.1905  0.4493 -1.0943
 4385SOL     OW20204   1.664   1.023   2.916 -0.6413 -0.1862  0.7294
 4385SOL    HW120205   1.624   1.045   3.000 -1.5971  3.7281 -0.5390
 4385SOL    HW220206   1.747   1.070   2.915 -0.9790  0.4528 -0.7363
 4386SOL     OW20207   8.189   4.990   4.518  0.2294 -0.1642  0.1773
 4386SOL    HW120208   8.178   4.936   4.596 -0.0695  0.1271  0.3395
 4386SOL    HW220209   8.210   4.928   4.448 -2.0671 -0.7315 -0.0813
 4387SOL     OW20210   8.900  11.562   4.309 -0.0296 -0.2909  1.0019
 4387SOL    HW120211   8.860  11.581   4.225  1.3929  1.4378  0.6280
 4387SOL    HW220212   8.863  11.479   4.336  0.5474 -1.6526 -2.0184
 4388SOL     OW20213   0.350  11.399   0.329 -0.3903 -0.0082 -0.5644
 4388SOL    HW120214   0.259  11.372   0.324 -0.4289  0.1905 -0.9453
 4388SOL    HW220215   0.351  11.490   0.299  0.1598 -0.5138 -2.2371
 4389SOL     OW20216  10.708   5.969   9.451 -0.2096  0.3096 -0.2226
 4389SOL    HW120217  10.758   5.891   9.426 -0.3661  0.4901 -1.1660
 4389SOL    HW220218  10.770   6.042   9.442 -0.0133  0.2755  0.8344
 4390SOL     OW20219  10.466   8.587   1.200 -0.1289  1.3625 -0.4859
 4390SOL    HW120220  10.418   8.668   1.183 -0.5565  1.2754  0.2351
 4390SOL    HW220221  10.509   8.603   1.284  1.5106  1.6112 -1.3396
 4391SOL     OW20222   1.018   4.167  10.730  0.2521  0.4638  0.8569
 4391SOL    HW120223   0.922   4.161  10.731  0.2619 -1.3673 -1.0577
 4391SOL    HW220224   1.039   4.237  10.792 -2.3661  1.7202  0.4518
 4392SOL     OW20225   6.611   3.365   3.883  0.3983  0.0893  0.0474
 4392SOL    HW120226   6.680   3.429   3.872 -1.0468  1.5452 -0.9562
 4392SOL    HW220227   6.535   3.416   3.912 -0.8004 -1.1328 -0.7931
 4393SOL     OW20228   8.146   6.771   0.057 -0.0519  0.3215  0.2310
 4393SOL    HW120229   8.131   6.743   0.147  0.3847 -0.2097  0.1430
 4393SOL    HW220230   8.239   6.753   0.042  0.7579  3.4398  0.7624
 4394SOL     OW20231   4.304  11.869   8.428  0.4447 -0.6419  0.4792
 4394SOL    HW120232   4.241  11.880   8.498  1.4997 -1.3788  1.5888
 4394SOL    HW220233   4.309  11.774   8.416  0.5766 -0.5413 -0.3195
 4395SOL     OW20234   1.665   4.245   0.425  0.7930  0.4850 -0.0700
 4395SOL    HW120235   1.674   4.151   0.439  1.6387  0.6502  0.5785
 4395SOL    HW220236   1.692   4.259   0.335  1.2790  0.1728  0.0212
 4396SOL     OW20237   6.351  11.904  10.722 -0.3077 -0.7163  0.2106
 4396SOL    HW120238   6.383  11.989  10.752 -0.2580 -1.0293  1.0676
 4396SOL    HW220239   6.352  11.910  10.626 -0.8946  0.4643  0.2661
 4397SOL     OW20240   3.558   9.773   2.342  0.5573  0.1972  0.3487
 4397SOL    HW120241   3.601   9.718   2.277  1.0218  1.3765 -0.3794
 4397SOL    HW220242   3.571   9.862   2.311  0.1409  0.7589  1.6799
 4398SOL     OW20243   3.800   0.665  11.070 -0.8028 -0.6173  0.8233
 4398SOL    HW120244   3.719   0.716  11.071 -1.9475 -2.3050 -0.7676
 4398SOL    HW220245   3.855   0.709  11.005 -0.5407  0.3030  1.6318
 4399SOL     OW20246   7.037   2.756   7.815 -0.0380 -0.4074 -0.3840
 4399SOL    HW120247   7.068   2.809   7.741 -0.9984 -0.3612 -0.7719
 4399SOL    HW220248   6.956   2.799   7.842 -0.3347 -1.1409 -0.0974
 4400SOL     OW20249   5.774   8.431   2.896  0.1059 -0.0918  0.3636
 4400SOL    HW120250   5.694   8.391   2.861  0.5565 -0.5639 -0.1482
 4400SOL    HW220251   5.816   8.361   2.946  0.4907 -0.0282  0.1395
 4401SOL     OW20252  10.036  10.216   2.510 -0.0545 -0.0826  0.6050
 4401SOL    HW120253   9.986  10.277   2.564  0.0978  0.3002  0.3173
 4401SOL    HW220254   9.985  10.135   2.512 -1.2260  0.5866 -0.4707
 4402SOL     OW20255  11.408   5.848   9.552  0.7467  0.5127 -0.2938
 4402SOL    HW120256  11.355   5.782   9.596  0.1169  0.2144 -1.4829
 4402SOL    HW220257  11.368   5.931   9.578  1.0930  0.4112  0.6113
 4403SOL     OW20258   2.605  10.474   4.311  0.0040  0.5476 -0.9151
 4403SOL    HW120259   2.588  10.429   4.394  0.8234 -0.3727 -1.2380
 4403SOL    HW220260   2.548  10.430   4.247 -0.6838  1.3049 -0.8514
 4404SOL     OW20261   0.134   4.514   2.202 -0.4259 -0.0822  0.7037
 4404SOL    HW120262   0.067   4.560   2.152 -0.2288 -2.0775 -1.5475
 4404SOL    HW220263   0.102   4.425   2.211  0.9181 -0.5198  1.5530
 4405SOL     OW20264   8.595   4.152   1.026 -0.3820  0.2056  0.1439
 4405SOL    HW120265   8.639   4.075   0.990 -0.1175  0.9956 -1.2935
 4405SOL    HW220266   8.502   4.130   1.023 -0.3518  0.1518 -0.8371
 4406SOL     OW20267   3.921   8.766   6.620  0.5686 -0.2451 -0.7624
 4406SOL    HW120268   3.829   8.795   6.621  1.0207  1.2954  0.1834
 4406SOL    HW220269   3.927   8.704   6.693  0.9803  2.3433  1.6230
 4407SOL     OW20270  10.608   6.395  11.016 -0.4236 -0.0227  0.1976
 4407SOL    HW120271  10.608   6.372  11.109 -1.2274  0.5481  0.3433
 4407SOL    HW220272  10.628   6.312  10.972 -1.1496 -0.5564  0.8273
 4408SOL     OW20273   2.914   2.784   3.309 -0.0889  0.3705 -0.0906
 4408SOL    HW120274   2.864   2.774   3.228 -0.4805  1.9572 -0.0929
 4408SOL    HW220275   2.868   2.731   3.373  1.4315 -2.6773 -1.3189
 4409SOL     OW20276   3.271   9.437  11.030  0.2932  0.7007 -0.3521
 4409SOL    HW120277   3.284   9.531  11.040 -1.2336  0.9874 -0.7958
 4409SOL    HW220278   3.176   9.425  11.034  0.5182 -1.1639  2.4663
 4410SOL     OW20279  11.726   1.611   3.490  0.9047 -0.3812 -0.5823
 4410SOL    HW120280  11.751   1.579   3.577  2.2444  1.1317 -0.3437
 4410SOL    HW220281  11.686   1.696   3.507  0.8521 -0.2309 -1.4237
 4411SOL     OW20282  10.630   7.484   7.403  0.1682 -0.8638  0.0387
 4411SOL    HW120283  10.696   7.544   7.438 -1.1639  0.6793  0.0228
 4411SOL    HW220284  10.607   7.427   7.477  0.9853 -0.9417  0.2389
 4412SOL     OW20285  10.707   9.171   0.664 -0.3793  0.0386  0.2563
 4412SOL    HW120286  10.705   9.166   0.760  0.6867 -1.6326  0.2291
 4412SOL    HW220287  10.646   9.102   0.635  0.1640 -0.2333 -0.2578
 4413SOL     OW20288  12.118  11.856   8.764  0.3828 -0.6834 -0.2074
 4413SOL    HW120289  12.034  11.878   8.723  1.7674  1.6183 -2.1115
 4413SOL    HW220290  12.125  11.917   8.837  0.6229 -0.4772 -0.4000
 4414SOL     OW20291   0.812   2.568   0.664  0.3298  0.5073 -0.1855
 4414SOL    HW120292   0.823   2.662   0.676  0.9719  0.6519 -1.6443
 4414SOL    HW220293   0.724   2.549   0.694 -0.1266  1.7494 -0.7006
 4415SOL     OW20294  12.579  12.482   3.673 -0.2597 -0.4564 -0.1079
 4415SOL    HW120295  12.524  12.472   3.596 -1.6115 -0.6340  0.8380
 4415SOL    HW220296  12.581  12.576   3.690 -0.1275 -0.4347 -0.2440
 4416SOL     OW20297  12.584   6.344   9.626 -0.0514 -0.3783 -0.2400
 4416SOL    HW120298  12.623   6.270   9.673  1.1164  0.1521 -0.3347
 4416SOL    HW220299  12.491   6.321   9.617  0.1353 -1.4588  0.4307
 4417SOL     OW20300   5.778   6.587  11.315 -0.4973  0.2286 -0.8268
 4417SOL    HW120301   5.851   6.541  11.356 -0.1518  1.2438 -0.2626
 4417SOL    HW220302   5.792   6.679  11.336 -1.7735  0.4876 -0.9703
 4418SOL     OW20303   3.555   5.546   1.456 -0.2153 -0.4309 -0.0654
 4418SOL    HW120304   3.640   5.509   1.479 -0.0722 -1.2950 -1.7841
 4418SOL    HW220305   3.506   5.472   1.419 -1.1500  0.3943 -0.5221
 4419SOL     OW20306   5.845   2.325   2.293  0.7313 -0.0693  0.1805
 4419SOL    HW120307   5.805   2.255   2.241  0.7449  0.2543 -0.2726
 4419SOL    HW220308   5.938   2.320   2.273  0.6245  0.6598 -0.5785
 4420SOL     OW20309  12.049   8.832   3.788 -0.7119  0.1929  0.0108
 4420SOL    HW120310  12.021   8.881   3.711 -0.5821 -1.0658 -0.8672
 4420SOL    HW220311  12.099   8.895   3.840 -0.5943  0.9977 -1.0481
 4421SOL     OW20312   1.231   7.779   7.572 -0.2767  0.1058  0.5666
 4421SOL    HW120313   1.229   7.802   7.665 -0.2503 -2.6984  1.3523
 4421SOL    HW220314   1.293   7.706   7.567 -0.3723  0.1225 -1.6444
 4422SOL     OW20315  10.798  10.842   4.331 -0.1972 -0.1868 -0.0790
 4422SOL    HW120316  10.805  10.776   4.262  0.0228  1.2956 -1.5456
 4422SOL    HW220317  10.762  10.919   4.287  1.6607  1.4158  1.0208
 4423SOL     OW20318   2.747  11.058   6.082  0.1611  1.0889 -0.8405
 4423SOL    HW120319   2.702  10.985   6.125  0.6631 -0.0936 -2.2118
 4423SOL    HW220320   2.831  11.064   6.127 -0.6713  2.2280  0.6442
 4424SOL     OW20321   0.113   3.858  10.205 -0.1518 -0.2161  0.2452
 4424SOL    HW120322   0.052   3.932  10.205 -0.1743 -0.2297  1.2673
 4424SOL    HW220323   0.127   3.838  10.297  4.0940  1.9732  0.2893
 4425SOL     OW20324   3.686   8.029   7.548  0.8247  0.7216 -0.7149
 4425SOL    HW120325   3.662   8.109   7.501 -1.5895 -0.7357 -2.1522
 4425SOL    HW220326   3.725   7.973   7.481  0.9261  0.0534 -0.1054
 4426SOL     OW20327   7.797   0.029   8.643  0.1135  0.2289 -0.1187
 4426SOL    HW120328   7.824   0.031   8.735  0.7940  0.1621 -0.3152
 4426SOL    HW220329   7.701   0.021   8.647  0.2520 -1.5002  0.5917
 4427SOL     OW20330   8.998   7.946   4.823  0.6682  0.4339  0.1416
 4427SOL    HW120331   9.060   8.019   4.833  0.1250  1.0796 -1.1007
 4427SOL    HW220332   8.924   7.970   4.878 -0.4612  1.9271 -1.8977
 4428SOL     OW20333   6.593   5.345   4.686 -0.1498  0.2014 -0.0931
 4428SOL    HW120334   6.679   5.323   4.721  0.4326  0.6054 -1.2134
 4428SOL    HW220335   6.536   5.276   4.718  0.6930 -0.3380  0.2847
 4429SOL     OW20336   2.969  10.770  11.990  0.0680 -0.4339  0.0787
 4429SOL    HW120337   2.983  10.690  11.939  0.7600 -0.4173  0.2261
 4429SOL    HW220338   3.030  10.763  12.063 -0.2667 -0.0306  0.4009
 4430SOL     OW20339   3.827   1.311   0.580 -0.0061 -0.7426  0.6434
 4430SOL    HW120340   3.821   1.236   0.519 -3.2922  1.7972 -2.5820
 4430SOL    HW220341   3.915   1.346   0.565  0.6477 -2.4168  0.3036
 4431SOL     OW20342  11.710   3.835  12.127 -0.4831  1.3939 -0.1159
 4431SOL    HW120343  11.801   3.861  12.109  0.3104  0.0629  1.6517
 4431SOL    HW220344  11.674   3.908  12.176  0.7654  0.5816  2.1532
 4432SOL     OW20345   2.486   7.337   5.825  0.2929  0.0820  0.1054
 4432SOL    HW120346   2.520   7.249   5.839 -1.0515 -0.0424  3.6443
 4432SOL    HW220347   2.560   7.395   5.841  0.6000 -0.3435  0.2425
 4433SOL     OW20348   4.117   2.374   6.100 -0.3125  0.1792  0.4366
 4433SOL    HW120349   4.159   2.437   6.043 -1.8580  1.8107  0.9982
 4433SOL    HW220350   4.187   2.314   6.126  1.2888  1.8088  0.0792
 4434SOL     OW20351   6.718   3.912  10.026 -0.3146 -0.1555 -0.3022
 4434SOL    HW120352   6.681   3.897  10.113  0.5973  0.4010  0.2044
 4434SOL    HW220353   6.735   3.824   9.991  0.5207 -0.3846  0.6320
 4435SOL     OW20354   8.827   5.818   9.800  0.1219 -0.2221  0.0077
 4435SOL    HW120355   8.915   5.782   9.810  0.7235  0.9450 -0.8775
 4435SOL    HW220356   8.829   5.900   9.850 -0.2945  0.0653 -0.4424
 4436SOL     OW20357  12.097   5.337   9.845  0.1708 -0.4207 -0.4070
 4436SOL    HW120358  12.032   5.364   9.780  1.3842 -1.2000 -2.0259
 4436SOL    HW220359  12.082   5.244   9.856 -0.0091 -0.2949  0.4368
 4437SOL     OW20360   2.439   3.493   2.215  0.3562  0.4194  0.2392
 4437SOL    HW120361   2.437   3.415   2.271 -1.1152 -0.3375 -0.8142
 4437SOL    HW220362   2.506   3.474   2.149  0.1501  0.1454  0.1109
 4438SOL     OW20363   1.870   8.551   1.046  0.1950  0.0880  0.1542
 4438SOL    HW120364   1.845   8.633   1.005  0.4474  1.1953  2.0822
 4438SOL    HW220365   1.941   8.575   1.106  1.6201 -1.8903 -0.6261
 4439SOL     OW20366   7.609   7.675  10.407  0.0212 -0.1212  0.5238
 4439SOL    HW120367   7.573   7.743  10.350 -2.0641 -0.3915  1.3985
 4439SOL    HW220368   7.542   7.606  10.407  0.8840 -1.0000  1.7139
 4440SOL     OW20369   6.603   4.714   2.014 -0.0520 -0.1554 -0.1106
 4440SOL    HW120370   6.641   4.758   2.089 -0.6041  0.0353  0.0651
 4440SOL    HW220371   6.673   4.659   1.980  0.3660  0.1736  0.2132
 4441SOL     OW20372   1.226   5.651   7.470  0.0050  0.3376 -0.1019
 4441SOL    HW120373   1.189   5.569   7.437  2.0300 -0.8086  0.3046
 4441SOL    HW220374   1.207   5.651   7.564  1.2316 -0.3886  0.1581
 4442SOL     OW20375  11.585  10.182   6.566 -0.5128  0.1815  0.5795
 4442SOL    HW120376  11.584  10.089   6.592 -0.7554  0.1089  0.3227
 4442SOL    HW220377  11.588  10.179   6.470  1.0858  0.4508  0.5945
 4443SOL     OW20378   5.770  10.704   0.647 -0.6865 -0.8505 -0.5247
 4443SOL    HW120379   5.796  10.748   0.728 -2.1266  1.4134 -1.1901
 4443SOL    HW220380   5.799  10.614   0.658  1.7726  0.0409  1.2692
 4444SOL     OW20381   9.951   1.288   6.516 -0.4182 -0.4799  0.0266
 4444SOL    HW120382   9.900   1.346   6.573  0.5697 -1.5173  2.0774
 4444SOL    HW220383  10.030   1.337   6.497 -0.8330 -0.0563 -0.6340
 4445SOL     OW20384   2.864   0.525  12.125  0.6859  0.9485 -0.1526
 4445SOL    HW120385   2.881   0.474  12.205 -1.3490  0.9133  0.3190
 4445SOL    HW220386   2.918   0.603  12.135  0.7037  0.8007  1.1323
 4446SOL     OW20387  11.227   7.768   0.046  0.0367  0.4035  0.1178
 4446SOL    HW120388  11.220   7.842   0.107 -0.8116 -0.4608  1.1195
 4446SOL    HW220389  11.308   7.724   0.071  1.6146  2.0839 -1.7945
 4447SOL     OW20390   8.205   8.961   1.679 -0.0846  0.7297  0.3308
 4447SOL    HW120391   8.199   8.968   1.775 -1.6029 -1.7990  0.5101
 4447SOL    HW220392   8.117   8.983   1.648  0.2647  1.0599 -0.4483
 4448SOL     OW20393   0.365   6.356   3.985 -0.1864 -0.8593 -0.1288
 4448SOL    HW120394   0.457   6.330   3.982 -0.1971 -0.8561 -0.5512
 4448SOL    HW220395   0.322   6.287   4.035 -0.0138 -1.0422 -0.2310
 4449SOL     OW20396   2.571   2.822  10.196 -0.5943  0.3732  0.2080
 4449SOL    HW120397   2.482   2.797  10.218 -0.4159 -1.5511 -1.0422
 4449SOL    HW220398   2.621   2.809  10.277 -1.0184 -0.8473  0.2864
 4450SOL     OW20399   4.104   1.360   7.905  0.1175  0.3219  0.2551
 4450SOL    HW120400   4.045   1.302   7.953  0.8081  1.3073  2.4538
 4450SOL    HW220401   4.106   1.325   7.816 -2.4911 -0.6782  0.5056
 4451SOL     OW20402   0.265   0.587   3.505  0.4328  0.3626 -0.1220
 4451SOL    HW120403   0.232   0.501   3.531 -1.3244  0.7928 -0.7710
 4451SOL    HW220404   0.192   0.627   3.458  1.6014  1.7820 -0.7997
 4452SOL     OW20405   9.040  10.333   7.197 -0.0747  0.2347 -0.3748
 4452SOL    HW120406   9.078  10.377   7.121  0.7555  1.2414  0.5979
 4452SOL    HW220407   9.115  10.302   7.248 -0.5783  0.6026  0.6282
 4453SOL     OW20408   3.896   2.102   8.532 -0.3118 -0.1685 -0.2724
 4453SOL    HW120409   3.881   2.010   8.510 -0.6022 -0.1811 -0.0320
 4453SOL    HW220410   3.985   2.120   8.501  0.2695 -0.9138  0.9016
 4454SOL     OW20411   6.798   9.512   1.337 -0.3493  0.0798 -0.0499
 4454SOL    HW120412   6.761   9.594   1.368 -0.9790 -0.7181  1.4157
 4454SOL    HW220413   6.744   9.444   1.378  0.0901 -1.0753 -1.3025
 4455SOL     OW20414  10.631   5.820   1.159 -0.1312 -0.0571 -0.0532
 4455SOL    HW120415  10.693   5.769   1.210 -0.9412 -1.5356 -0.4903
 4455SOL    HW220416  10.674   5.905   1.146  1.4090 -0.7502  0.3499
 4456SOL     OW20417   6.348  10.162   4.336  0.0661 -0.2656  0.0555
 4456SOL    HW120418   6.258  10.158   4.304 -0.6327 -0.6136  1.9471
 4456SOL    HW220419   6.360  10.080   4.383  1.7946 -0.7427 -1.1200
 4457SOL     OW20420   8.418   2.712   8.697 -0.7726 -0.0330  0.2275
 4457SOL    HW120421   8.417   2.784   8.634 -1.8229 -0.6278 -0.4621
 4457SOL    HW220422   8.326   2.692   8.712 -0.5011 -1.1402  0.5129
 4458SOL     OW20423   8.323  11.005   8.778 -0.8770  0.4844 -0.3402
 4458SOL    HW120424   8.347  11.021   8.686  0.5147 -0.6492 -0.2098
 4458SOL    HW220425   8.252  10.941   8.773  0.2120 -0.7561 -0.6396
 4459SOL     OW20426   6.453   2.896   2.504 -0.1606  0.2677 -0.4512
 4459SOL    HW120427   6.473   2.938   2.420 -0.7249  1.0246 -0.2226
 4459SOL    HW220428   6.365   2.859   2.491 -0.0200 -0.0917 -0.3708
 4460SOL     OW20429  11.827   3.726   4.358 -0.0035 -0.4097  0.1914
 4460SOL    HW120430  11.845   3.655   4.420  1.0294 -0.0937  0.2737
 4460SOL    HW220431  11.813   3.681   4.274 -1.2734 -0.8296  0.5966
 4461SOL     OW20432  10.662   3.691   0.473 -0.3254 -0.6195  0.3848
 4461SOL    HW120433  10.645   3.670   0.565  1.2423 -0.4212  0.7477
 4461SOL    HW220434  10.582   3.734   0.443 -1.3015 -1.7050  1.3236
 4462SOL     OW20435   8.310   3.418   4.981 -0.2321  0.1668 -0.2771
 4462SOL    HW120436   8.269   3.443   4.899 -0.8908  0.0523  0.0120
 4462SOL    HW220437   8.252   3.352   5.019  1.3562 -1.7186 -0.9366
 4463SOL     OW20438  10.525   6.646   8.614  0.1063 -0.1650 -0.3513
 4463SOL    HW120439  10.500   6.588   8.542 -1.2285  0.5906 -0.5360
 4463SOL    HW220440  10.601   6.604   8.654  0.5100 -0.9087 -1.8256
 4464SOL     OW20441  11.269  11.594   8.047  0.4178 -0.0353  0.4060
 4464SOL    HW120442  11.215  11.578   8.125 -0.7695 -1.3365 -0.6216
 4464SOL    HW220443  11.358  11.578   8.076  0.2216  1.3711  1.9599
 4465SOL     OW20444   3.544   5.857   3.956  0.3819  0.0246  0.2898
 4465SOL    HW120445   3.554   5.946   3.990  0.0150 -0.2026  1.0159
 4465SOL    HW220446   3.504   5.869   3.870  0.2900  0.5616  0.4028
 4466SOL     OW20447   2.275   4.408   4.507  0.0050 -0.2300  0.0482
 4466SOL    HW120448   2.314   4.323   4.488  0.0961  0.2622 -2.2318
 4466SOL    HW220449   2.182   4.388   4.523 -0.5470 -0.5851 -3.0321
 4467SOL     OW20450   3.025  10.064   5.966  0.2256 -0.6368  0.0104
 4467SOL    HW120451   2.970  10.100   5.896  1.7469  2.8326  0.3718
 4467SOL    HW220452   3.082  10.001   5.922 -1.3633 -1.3967 -1.0739
 4468SOL     OW20453   6.891   9.398   4.432  0.0565 -0.6124 -0.1794
 4468SOL    HW120454   6.962   9.333   4.436  0.8963  0.2547 -0.5626
 4468SOL    HW220455   6.837   9.379   4.509 -0.2355 -2.3192 -0.7568
 4469SOL     OW20456   1.125   0.973   8.132 -0.0445  0.1879 -0.2005
 4469SOL    HW120457   1.139   1.054   8.180 -1.5026 -0.3469  1.2263
 4469SOL    HW220458   1.035   0.981   8.098  0.2479 -0.3089 -1.1323
 4470SOL     OW20459  11.261   7.159   1.691  0.1227 -1.1943 -0.2751
 4470SOL    HW120460  11.339   7.204   1.658  0.1936 -0.6738  0.5764
 4470SOL    HW220461  11.272   7.157   1.786 -0.9629 -1.0063 -0.1282
 4471SOL     OW20462   4.208  10.864   3.261  0.2637 -0.0634  0.2348
 4471SOL    HW120463   4.250  10.831   3.182  0.8481 -0.5066  0.7259
 4471SOL    HW220464   4.144  10.797   3.285  0.0024  0.1260  0.0789
 4472SOL     OW20465   7.623   0.994   7.150  0.4571 -0.0379 -0.7667
 4472SOL    HW120466   7.536   0.999   7.110 -0.0645 -0.2702  0.3200
 4472SOL    HW220467   7.677   1.052   7.096  0.1019 -1.2957 -2.5914
 4473SOL     OW20468   6.698   0.420   6.304  0.1865 -0.6000  0.6512
 4473SOL    HW120469   6.739   0.412   6.390  1.9974 -1.9510 -0.2726
 4473SOL    HW220470   6.760   0.471   6.252 -0.9397  0.3065  0.1523
 4474SOL     OW20471   4.276  10.259   0.266 -0.0675  0.3034  0.7032
 4474SOL    HW120472   4.310  10.289   0.182  0.3202 -0.0399  0.7332
 4474SOL    HW220473   4.316  10.173   0.279 -2.6373 -1.1563 -0.3111
 4475SOL     OW20474   2.738   3.074   0.498 -0.1616 -0.2542 -0.0883
 4475SOL    HW120475   2.744   3.065   0.402 -0.0418  0.2860 -0.1351
 4475SOL    HW220476   2.714   2.987   0.529 -0.2546 -0.4207 -0.6185
 4476SOL     OW20477   0.456   1.918   3.665  0.3147  0.1462  0.1507
 4476SOL    HW120478   0.538   1.869   3.673 -0.5639 -1.2984  0.7221
 4476SOL    HW220479   0.408   1.874   3.595 -1.3520 -1.1876  1.9993
 4477SOL     OW20480   7.659  11.498   1.693  0.7760  0.3250  0.1467
 4477SOL    HW120481   7.644  11.582   1.649 -0.1123  0.7724  1.2303
 4477SOL    HW220482   7.739  11.464   1.654 -0.3417  0.3237 -2.3445
 4478SOL     OW20483   9.733  10.782   3.116 -0.0407 -0.3681 -0.5594
 4478SOL    HW120484   9.722  10.852   3.180  1.0742 -1.5755  1.0657
 4478SOL    HW220485   9.655  10.728   3.127  0.1267 -0.5473 -0.2260
 4479SOL     OW20486   0.735   0.924  11.313  0.1527 -0.1870 -0.1584
 4479SOL    HW120487   0.640   0.921  11.319  0.0612 -1.9851 -1.6645
 4479SOL    HW220488   0.765   0.903  11.402 -0.9002 -1.6011 -0.0928
 4480SOL     OW20489   7.931  11.132   8.059  0.8785 -0.0035 -0.8794
 4480SOL    HW120490   7.877  11.058   8.030  2.3982 -0.9015 -1.5484
 4480SOL    HW220491   7.900  11.151   8.147 -0.2560 -0.7445 -1.0926
 4481SOL     OW20492   8.088   2.465  12.118  0.0670 -0.3662  0.3100
 4481SOL    HW120493   8.036   2.545  12.125  0.5620 -0.0813  0.7924
 4481SOL    HW220494   8.069   2.432  12.030 -1.5153 -0.6908  0.7392
 4482SOL     OW20495   5.698  10.917   5.784 -0.0316  0.3884 -0.0976
 4482SOL    HW120496   5.783  10.874   5.792  0.6085  1.3066 -1.4587
 4482SOL    HW220497   5.659  10.911   5.871  0.8097 -1.3065  0.1909
 4483SOL     OW20498   1.509   2.090   6.003  0.0010 -0.3412 -0.1457
 4483SOL    HW120499   1.496   2.123   6.092  0.9258  0.0346 -0.1359
 4483SOL    HW220500   1.455   2.147   5.948 -0.0325 -0.1350  0.1008
 4484SOL     OW20501   4.886  12.053   7.577  1.1494  0.5625  0.0509
 4484SOL    HW120502   4.944  12.038   7.502  0.8685  2.2532 -0.5454
 4484SOL    HW220503   4.935  12.114   7.632  0.3524  1.2585  0.0061
 4485SOL     OW20504   1.210  11.933   8.692 -0.4322  0.0886 -0.2233
 4485SOL    HW120505   1.200  12.015   8.644  0.3783  0.7251  0.6552
 4485SOL    HW220506   1.143  11.938   8.761  1.2475  1.2358  1.4295
 4486SOL     OW20507   5.717   2.488   7.181  0.3064 -0.1722 -0.0138
 4486SOL    HW120508   5.742   2.406   7.222  0.4397 -0.6691 -1.0526
 4486SOL    HW220509   5.621   2.491   7.187  0.4307  1.0850  2.7519
 4487SOL     OW20510   0.030   9.017  11.068 -0.1689 -0.3119 -0.3373
 4487SOL    HW120511   0.099   9.066  11.113 -0.4018  1.3266 -1.6992
 4487SOL    HW220512  -0.029   8.990  11.139  0.1128  1.1512  0.5065
 4488SOL     OW20513   3.360   2.326   8.478  0.3703 -0.2606  0.2654
 4488SOL    HW120514   3.453   2.318   8.459  0.5394  0.9817  0.4807
 4488SOL    HW220515   3.318   2.314   8.393  0.6172 -2.1044  0.3707
 4489SOL     OW20516   3.979   2.414   1.169  0.4507  0.5485  0.1004
 4489SOL    HW120517   4.021   2.429   1.253 -2.2245  1.9568  1.3158
 4489SOL    HW220518   3.970   2.501   1.131 -1.2946  0.3303 -0.0737
 4490SOL     OW20519   0.527   2.556   8.738 -0.5918  0.0564  0.3834
 4490SOL    HW120520   0.473   2.635   8.737 -1.2373 -0.3719  0.8239
 4490SOL    HW220521   0.508   2.513   8.655  1.6108  1.5510 -1.0311
 4491SOL     OW20522   7.892  12.122   1.695  0.5766 -0.4758 -0.4283
 4491SOL    HW120523   7.885  12.189   1.763  2.7851  0.1378 -0.7008
 4491SOL    HW220524   7.805  12.115   1.657  0.4493  3.0324 -1.0785
 4492SOL     OW20525   2.850  11.854   8.126  0.5669 -0.3571  0.3524
 4492SOL    HW120526   2.901  11.777   8.102  0.6737 -0.5700  1.2431
 4492SOL    HW220527   2.797  11.872   8.048  1.8443 -0.2451 -0.5094
 4493SOL     OW20528   2.429   5.089   5.269  0.0606 -0.4699  0.6374
 4493SOL    HW120529   2.342   5.052   5.289  0.4382  0.1747  3.9474
 4493SOL    HW220530   2.456   5.043   5.189 -2.1150 -2.7957  1.1001
 4494SOL     OW20531   3.707   9.137   4.121 -0.0209 -0.7156  0.2843
 4494SOL    HW120532   3.692   9.161   4.212 -0.8686  0.5942 -0.1745
 4494SOL    HW220533   3.785   9.187   4.096  0.9936 -2.0744  0.6429
 4495SOL     OW20534   9.983   0.761   7.718 -0.3351 -0.4414  0.0680
 4495SOL    HW120535  10.037   0.694   7.675  0.7167  1.3471 -1.5291
 4495SOL    HW220536  10.045   0.811   7.771 -1.1332 -0.7757  1.3436
 4496SOL     OW20537   8.499   3.092   8.014 -0.8247 -0.6112  0.2546
 4496SOL    HW120538   8.498   3.025   8.082 -0.7941 -0.8945 -0.0206
 4496SOL    HW220539   8.585   3.083   7.972 -0.5416  0.0706  0.6768
 4497SOL     OW20540   9.531   8.436   4.940 -0.0018 -0.1312  0.0344
 4497SOL    HW120541   9.458   8.497   4.953 -0.0629 -0.2710  0.3823
 4497SOL    HW220542   9.599   8.488   4.897 -0.0135  0.2137  0.4252
 4498SOL     OW20543   8.848   2.144   4.907 -0.0165  0.2626  0.2826
 4498SOL    HW120544   8.922   2.166   4.850 -0.5982  1.0904 -0.1620
 4498SOL    HW220545   8.863   2.052   4.931  1.3232  0.5055  0.4614
 4499SOL     OW20546  10.808   1.836   1.266  0.1226  0.2471  0.0301
 4499SOL    HW120547  10.891   1.841   1.218  0.3174  1.5752  0.4448
 4499SOL    HW220548  10.748   1.791   1.207  0.9985 -0.2707 -0.4826
 4500SOL     OW20549  10.439   3.571  12.403  0.4570  0.0115 -0.2999
 4500SOL    HW120550  10.414   3.506  12.469  0.2695  0.2541 -0.1321
 4500SOL    HW220551  10.454   3.520  12.323  1.0050 -0.3246  0.0121
 4501SOL     OW20552   9.306  10.604   8.990 -0.3419 -0.4854 -0.0195
 4501SOL    HW120553   9.297  10.582   8.898  0.5188 -0.2085 -0.1833
 4501SOL    HW220554   9.218  10.630   9.018 -0.5844 -0.4682 -0.7809
 4502SOL     OW20555   6.735   5.323   2.320 -0.2036  0.3210 -0.1246
 4502SOL    HW120556   6.818   5.336   2.274  0.0041 -1.3790 -0.2951
 4502SOL    HW220557   6.729   5.397   2.380  0.2114  1.8216 -1.8590
 4503SOL     OW20558  10.687   8.281  11.555 -0.1462 -0.0148  0.0503
 4503SOL    HW120559  10.753   8.336  11.513  1.9099 -1.4297  1.3073
 4503SOL    HW220560  10.617   8.342  11.579  0.1881  1.3702 -2.2029
 4504SOL     OW20561   1.358   5.780   6.250  0.3836 -0.1207 -0.3388
 4504SOL    HW120562   1.396   5.767   6.163  0.1122 -0.4080 -0.4145
 4504SOL    HW220563   1.406   5.855   6.285 -0.3889  0.8260 -1.2454
 4505SOL     OW20564   4.435   8.969   5.587 -0.6417 -0.7465 -0.3740
 4505SOL    HW120565   4.490   9.007   5.655 -0.0046 -1.5720 -0.4029
 4505SOL    HW220566   4.438   9.033   5.515 -2.0307  0.5391  0.6719
 4506SOL     OW20567   2.392   9.321   8.390  0.3238 -0.6459  0.0237
 4506SOL    HW120568   2.427   9.260   8.455  0.6743 -0.0572  0.3932
 4506SOL    HW220569   2.314   9.277   8.356  0.4543 -1.2075  0.4386
 4507SOL     OW20570   4.725   8.967   1.096  0.4658  0.6454  0.3711
 4507SOL    HW120571   4.638   8.980   1.135 -0.4471 -1.9307 -0.5823
 4507SOL    HW220572   4.771   8.910   1.158 -0.3998 -2.0939 -1.3440
 4508SOL     OW20573   1.653   5.650   0.311  0.0709  0.0173 -0.1158
 4508SOL    HW120574   1.594   5.692   0.375  0.7324 -0.0147  0.5267
 4508SOL    HW220575   1.595   5.596   0.258 -0.4785 -0.0617  0.5415
 4509SOL     OW20576  12.329  10.886   5.033 -0.6865 -0.1199  0.1049
 4509SOL    HW120577  12.288  10.801   5.052  0.2005 -0.8356 -1.0366
 4509SOL    HW220578  12.363  10.916   5.117 -3.5980  0.5756  1.1456
 4510SOL     OW20579  10.981   6.469   1.993  0.4461 -0.0671  0.0923
 4510SOL    HW120580  11.019   6.556   1.981 -0.3909  0.3138  0.1113
 4510SOL    HW220581  11.019   6.438   2.076  0.4733  0.4328  0.2723
 4511SOL     OW20582  11.291  11.618  12.576  0.0557 -0.7159  0.1943
 4511SOL    HW120583  11.316  11.602  12.667  0.7874  1.0753  0.3297
 4511SOL    HW220584  11.289  11.713  12.567 -1.1831 -0.8383 -1.3580
 4512SOL     OW20585   9.118   0.797   6.524 -0.4075  0.1071 -0.2035
 4512SOL    HW120586   9.132   0.838   6.439 -0.6754  1.1610  0.2391
 4512SOL    HW220587   9.045   0.737   6.510  0.9686 -1.3879 -1.2189
 4513SOL     OW20588   5.204   7.217   1.968  0.4370  0.1970  0.6675
 4513SOL    HW120589   5.115   7.184   1.961  0.4178  0.1557  1.1014
 4513SOL    HW220590   5.204   7.298   1.916  0.0597  0.3767  0.9456
 4514SOL     OW20591   4.998   5.886   0.104 -0.0164  0.2540 -0.0721
 4514SOL    HW120592   5.077   5.937   0.089  0.3159  0.0399  0.8844
 4514SOL    HW220593   5.022   5.822   0.171 -1.1611  0.5743  0.6835
 4515SOL     OW20594   8.091   2.838  11.773  0.5996  0.2910 -0.3352
 4515SOL    HW120595   8.021   2.832  11.709  1.0332 -0.1761 -0.7858
 4515SOL    HW220596   8.051   2.876  11.851 -0.0392  0.4428 -0.7362
 4516SOL     OW20597   3.822   2.917   1.870 -0.2210  0.5973 -0.2514
 4516SOL    HW120598   3.834   2.911   1.965  0.3455  0.0681 -0.3526
 4516SOL    HW220599   3.890   2.977   1.841 -1.9446  2.7811 -0.0351
 4517SOL     OW20600  12.287  10.216   6.891  0.1590 -0.0434  0.1102
 4517SOL    HW120601  12.361  10.263   6.854  0.6706 -0.3978  0.6601
 4517SOL    HW220602  12.218  10.225   6.825  1.5941 -2.2277 -1.8692
 4518SOL     OW20603   2.045   4.601   3.713 -0.1301  0.2051  0.2916
 4518SOL    HW120604   2.125   4.549   3.718 -0.6041 -0.5611 -0.0169
 4518SOL    HW220605   1.990   4.555   3.651 -1.5425 -0.2941  1.8391
 4519SOL     OW20606   5.437   6.949  10.205  0.1907 -0.5742 -0.9811
 4519SOL    HW120607   5.461   6.963  10.114 -0.8194 -0.1578 -1.1929
 4519SOL    HW220608   5.520   6.945  10.252  0.6823  0.9544 -1.6675
 4520SOL     OW20609  11.242   8.190   6.578 -0.7400  0.7943  0.5137
 4520SOL    HW120610  11.326   8.227   6.604  0.5408 -1.8214  0.3486
 4520SOL    HW220611  11.199   8.169   6.661 -0.6084  0.8054  0.5846
 4521SOL     OW20612   8.208  11.213  11.668  0.1188  0.1839  0.4024
 4521SOL    HW120613   8.249  11.157  11.734 -0.1948  0.1431  0.5655
 4521SOL    HW220614   8.214  11.301  11.705 -0.5034  0.0964  0.7109
 4522SOL     OW20615  11.014  12.378   4.313 -0.5689  0.2597  0.3274
 4522SOL    HW120616  10.938  12.411   4.361  0.1989  1.9578  0.4312
 4522SOL    HW220617  11.019  12.434   4.235 -0.2040 -0.7164 -0.3685
 4523SOL     OW20618   9.791   9.290   1.344 -0.5583 -1.0918  0.5962
 4523SOL    HW120619   9.817   9.267   1.255  2.3547 -0.0556  1.0626
 4523SOL    HW220620   9.742   9.371   1.335 -1.9790 -1.9943 -0.1639
 4524SOL     OW20621   9.466   7.593   6.183 -0.0615 -0.4058 -0.0183
 4524SOL    HW120622   9.483   7.687   6.192 -0.0365 -0.5664  2.2034
 4524SOL    HW220623   9.522   7.566   6.110  1.3319  0.9822  0.4722
 4525SOL     OW20624   3.696   0.612   7.434  0.1725  0.7876  0.0500
 4525SOL    HW120625   3.689   0.604   7.339  0.1988 -3.2704  0.2266
 4525SOL    HW220626   3.790   0.612   7.451  0.1704  1.6992  0.0874
 4526SOL     OW20627   7.608   9.999   0.006 -0.1175 -0.0996 -0.5667
 4526SOL    HW120628   7.647  10.018  -0.079  0.5178 -0.7526 -0.4263
 4526SOL    HW220629   7.682   9.971   0.061 -0.8410 -1.9380 -0.4672
 4527SOL     OW20630   1.147   5.949   6.334 -0.3674 -0.1798 -0.7753
 4527SOL    HW120631   1.103   5.904   6.406 -1.6046 -1.3954 -2.2364
 4527SOL    HW220632   1.211   5.885   6.302 -0.7316 -0.1487 -1.5795
 4528SOL     OW20633   6.900  10.821  10.060 -0.0625 -0.6972 -0.4884
 4528SOL    HW120634   6.820  10.769  10.056 -0.0919 -0.5961 -1.5438
 4528SOL    HW220635   6.891  10.874  10.140 -1.7986  0.4954 -1.4081
 4529SOL     OW20636   8.517   5.355   1.567  0.8175  0.9026  0.1802
 4529SOL    HW120637   8.468   5.405   1.501  0.3057 -0.8314 -0.8371
 4529SOL    HW220638   8.453   5.292   1.600  1.9453 -0.4213 -0.0846
 4530SOL     OW20639  12.345   9.657   6.499  0.1443 -0.6406 -0.4616
 4530SOL    HW120640  12.377   9.639   6.411  0.8761 -0.1664 -0.3024
 4530SOL    HW220641  12.423   9.680   6.549 -0.5347  1.4525 -0.2827
 4531SOL     OW20642  11.467   8.464   5.316 -0.4036 -0.3114  0.7996
 4531SOL    HW120643  11.416   8.457   5.397 -0.9205 -0.0205  0.5017
 4531SOL    HW220644  11.557   8.443   5.343 -0.4984  0.1642  1.5293
 4532SOL     OW20645   7.670   2.298   4.914  0.1992 -0.0237  0.1164
 4532SOL    HW120646   7.753   2.311   4.869 -1.7067  0.1493 -3.7904
 4532SOL    HW220647   7.631   2.385   4.918 -0.1421 -0.2098  1.2384
 4533SOL     OW20648  11.312   9.230   5.207  0.0085 -0.4320 -0.2051
 4533SOL    HW120649  11.396   9.274   5.195 -0.4378  0.5998  0.2655
 4533SOL    HW220650  11.248   9.295   5.177 -0.6079 -1.3151 -0.8397
 4534SOL     OW20651   0.608   4.447   6.453  0.1610  0.0504 -0.2562
 4534SOL    HW120652   0.700   4.469   6.462  0.0356  0.3780  0.3057
 4534SOL    HW220653   0.577   4.436   6.543 -0.4176  0.2425 -0.4234
 4535SOL     OW20654  11.608   5.705   8.276  0.3230 -0.3159 -0.1542
 4535SOL    HW120655  11.672   5.684   8.344  0.2154 -0.4755 -0.0999
 4535SOL    HW220656  11.531   5.653   8.299  0.8506 -1.6671 -1.3404
 4536SOL     OW20657   1.815   2.707   5.421 -0.3260 -0.2759 -0.3221
 4536SOL    HW120658   1.892   2.675   5.467 -0.8831 -0.3220  0.6047
 4536SOL    HW220659   1.790   2.636   5.363 -1.4297 -1.5206  1.5611
 4537SOL     OW20660   5.982   8.395   1.858 -0.3628 -0.0544 -0.3101
 4537SOL    HW120661   6.009   8.354   1.776  1.1498 -0.7868  0.5114
 4537SOL    HW220662   6.052   8.458   1.878 -0.6913  0.0818  0.4464
 4538SOL     OW20663   7.753  10.854   8.391 -0.0875 -0.1151  0.2014
 4538SOL    HW120664   7.815  10.834   8.320  1.2037 -1.0535  1.5386
 4538SOL    HW220665   7.676  10.889   8.346  1.6329  1.7580 -1.5091
 4539SOL     OW20666   0.451   6.081   0.348 -0.6807 -0.0938 -0.2959
 4539SOL    HW120667   0.407   6.013   0.297  0.3443 -1.4050  0.5125
 4539SOL    HW220668   0.431   6.059   0.439  0.7810 -0.1227  0.0413
 4540SOL     OW20669   4.498  11.786   1.659 -0.2793  0.7836 -0.1949
 4540SOL    HW120670   4.406  11.776   1.633 -0.0910  1.7830 -1.3445
 4540SOL    HW220671   4.503  11.745   1.746 -1.5704 -0.2095 -0.5474
 4541SOL     OW20672   3.919  11.267   7.153  0.7482 -0.2712 -0.1254
 4541SOL    HW120673   4.011  11.256   7.128  1.5273  1.0118  1.9064
 4541SOL    HW220674   3.899  11.190   7.206  0.6009 -0.5899 -0.6331
 4542SOL     OW20675   4.055   1.127   7.399  0.0279  0.3376 -0.2173
 4542SOL    HW120676   4.089   1.217   7.394 -0.1143  0.3880 -0.2646
 4542SOL    HW220677   3.989   1.122   7.330  1.7300 -0.5412 -1.8940
 4543SOL     OW20678   2.187   7.064   1.512 -0.1700 -0.0144 -0.1822
 4543SOL    HW120679   2.116   7.084   1.451  0.3045  0.1509 -0.6878
 4543SOL    HW220680   2.251   7.015   1.460  0.6321  0.8667 -0.0550
 4544SOL     OW20681   3.080   3.729   0.597 -0.0735 -0.1315 -0.4976
 4544SOL    HW120682   3.114   3.699   0.681  1.2148  1.2370 -0.4905
 4544SOL    HW220683   3.057   3.649   0.550 -0.1238 -0.9415  0.8638
 4545SOL     OW20684  10.365   7.435   3.541  0.4967 -0.0934  0.7033
 4545SOL    HW120685  10.426   7.503   3.513  0.0424  0.4223  0.9549
 4545SOL    HW220686  10.416   7.381   3.602  0.9554 -0.1849  0.2520
 4546SOL     OW20687   4.159   5.072  12.566  0.2513  0.5716  0.0504
 4546SOL    HW120688   4.134   5.164  12.559 -0.2328  0.4521  0.2110
 4546SOL    HW220689   4.198   5.065  12.654  0.0020  0.5563  0.1610
 4547SOL     OW20690   8.557   7.492   9.412  0.1644 -0.4465 -0.5079
 4547SOL    HW120691   8.635   7.495   9.468 -0.5599 -0.0354  0.4930
 4547SOL    HW220692   8.508   7.417   9.444 -1.0052  0.6877  0.4399
 4548SOL     OW20693   7.351   3.595  10.479 -0.0995 -0.4481 -0.5703
 4548SOL    HW120694   7.424   3.544  10.443  1.3692  1.6584 -0.7455
 4548SOL    HW220695   7.362   3.586  10.574  0.0803 -0.5352 -0.5977
 4549SOL     OW20696   2.897   2.347  11.009 -0.3379 -0.0530 -0.0737
 4549SOL    HW120697   2.882   2.310  11.096 -0.5926  0.3278  0.0476
 4549SOL    HW220698   2.964   2.291  10.970 -0.6204 -0.5649  0.1573
 4550SOL     OW20699  10.626  11.356   1.088 -0.4238 -0.2163 -0.1845
 4550SOL    HW120700  10.599  11.432   1.140 -4.0667  0.3206 -2.5202
 4550SOL    HW220701  10.708  11.383   1.047  0.1502  1.0427  1.6578
 4551SOL     OW20702   2.216  10.278   5.127  0.2085  0.1038  0.2041
 4551SOL    HW120703   2.121  10.283   5.112  0.3841  1.5415 -0.7023
 4551SOL    HW220704   2.251  10.241   5.046  0.4074 -0.6605  0.6350
 4552SOL     OW20705   7.651  11.291   3.767  0.2044  0.3286  0.0627
 4552SOL    HW120706   7.640  11.216   3.826 -0.3973 -1.3690 -2.0852
 4552SOL    HW220707   7.725  11.267   3.711  1.0101  2.0742  0.3337
 4553SOL     OW20708  12.230   3.880   6.829  0.2223 -0.4170  0.1159
 4553SOL    HW120709  12.238   3.803   6.772 -0.5301 -0.1358 -0.3880
 4553SOL    HW220710  12.318   3.916   6.832  0.8745 -1.9969  1.3747
 4554SOL     OW20711   8.356   8.822   8.647 -1.0493  0.4023  0.1021
 4554SOL    HW120712   8.451   8.812   8.659 -1.3165 -1.8928  0.8681
 4554SOL    HW220713   8.326   8.735   8.620 -2.7280  1.5454 -1.9745
 4555SOL     OW20714   9.176   1.939  11.817 -0.6267  0.3698 -0.1009
 4555SOL    HW120715   9.085   1.920  11.840 -0.2076 -1.0937  0.5143
 4555SOL    HW220716   9.202   1.865  11.762 -0.0105  1.1400 -0.8617
 4556SOL     OW20717   8.356   6.354   9.366 -0.0422  0.1868  0.4670
 4556SOL    HW120718   8.316   6.399   9.440  1.0742 -1.1692  1.9786
 4556SOL    HW220719   8.446   6.386   9.364 -0.2497  0.7502 -0.7981
 4557SOL     OW20720   1.804   1.895   8.667  0.5208  0.1187 -0.7051
 4557SOL    HW120721   1.743   1.953   8.712 -0.3310 -0.7415 -0.7266
 4557SOL    HW220722   1.763   1.809   8.670  2.3435 -0.7980  0.4813
 4558SOL     OW20723   7.356   3.529   1.662  0.5031 -0.1955  0.0146
 4558SOL    HW120724   7.282   3.562   1.714  0.0285 -2.5314  0.9840
 4558SOL    HW220725   7.418   3.602   1.659 -1.9469  2.0007 -1.1630
 4559SOL     OW20726   1.906   5.726   4.951  0.3565 -0.0353 -0.1168
 4559SOL    HW120727   1.881   5.817   4.969  1.4513 -0.1484  2.4224
 4559SOL    HW220728   1.946   5.728   4.864 -1.1842  1.5623 -0.8400
 4560SOL     OW20729   1.553   1.299   3.065 -0.5034 -0.1072 -0.5635
 4560SOL    HW120730   1.559   1.341   3.151 -0.7142  0.1213 -0.6605
 4560SOL    HW220731   1.474   1.336   3.025 -1.0873 -1.0908 -0.3741
 4561SOL     OW20732   3.918   2.969   0.981  0.0426  0.2367  0.2165
 4561SOL    HW120733   3.993   2.917   1.011 -0.0860  0.2704  0.5975
 4561SOL    HW220734   3.877   3.001   1.061 -1.9347 -1.9408  0.1742
 4562SOL     OW20735   4.367   6.827   5.132  0.0557 -0.0073 -0.1404
 4562SOL    HW120736   4.351   6.745   5.086 -3.9394  0.3545  0.2870
 4562SOL    HW220737   4.380   6.802   5.223 -0.6726 -0.2413 -0.0943
 4563SOL     OW20738   3.492   7.426   8.107 -0.5450 -0.1775  0.7811
 4563SOL    HW120739   3.474   7.442   8.015  0.5899 -2.6286  0.0651
 4563SOL    HW220740   3.418   7.375   8.139 -1.2604  1.2228  1.4507
 4564SOL     OW20741  11.360   3.335   3.379 -0.0911 -0.3042 -0.0976
 4564SOL    HW120742  11.277   3.307   3.418 -0.2581  0.5122  0.1621
 4564SOL    HW220743  11.342   3.423   3.346  0.2818 -0.6666 -1.3244
 4565SOL     OW20744   1.349   7.266   8.863 -0.7848  0.6095  0.3976
 4565SOL    HW120745   1.416   7.296   8.801  0.0668  0.0341  1.0084
 4565SOL    HW220746   1.370   7.174   8.878 -1.2701  0.6178  1.1729
 4566SOL     OW20747   3.386   2.075   6.216 -0.2775 -0.2549  0.3116
 4566SOL    HW120748   3.318   2.069   6.149 -0.8113  0.5672  0.7671
 4566SOL    HW220749   3.385   2.167   6.243 -0.2700 -0.6315  1.6481
 4567SOL     OW20750  10.014   0.842   4.235  0.4397  0.0889  0.1324
 4567SOL    HW120751  10.096   0.891   4.235  1.1943 -1.1280  0.0164
 4567SOL    HW220752  10.023   0.780   4.162 -0.6564  0.0630  0.0074
 4568SOL     OW20753   0.583   3.519   9.965 -0.0177 -0.0288 -0.4235
 4568SOL    HW120754   0.562   3.598  10.016 -1.5688 -0.2763 -0.6349
 4568SOL    HW220755   0.652   3.547   9.905  3.1043 -0.1103  2.7708
 4569SOL     OW20756   5.141   6.057   0.402 -0.1677 -0.2579  0.6814
 4569SOL    HW120757   5.164   6.080   0.493 -0.2813  0.3092  0.5731
 4569SOL    HW220758   5.092   5.976   0.409  0.2916 -0.5037  1.0836
 4570SOL     OW20759   5.965   8.955   3.011  0.1284  0.2864 -0.0251
 4570SOL    HW120760   5.895   8.911   2.961  1.8020 -0.6558 -1.6617
 4570SOL    HW220761   5.947   8.933   3.102 -1.6436 -0.0005 -0.4021
 4571SOL     OW20762   4.449   1.760  10.801 -0.0904 -0.2901  0.1419
 4571SOL    HW120763   4.519   1.820  10.775 -0.3297 -0.7408 -1.6704
 4571SOL    HW220764   4.493   1.693  10.854  1.1417 -1.2120 -1.9152
 4572SOL     OW20765   1.108   3.459  11.433 -0.0207  0.1991 -0.6231
 4572SOL    HW120766   1.039   3.494  11.377  0.1902  1.1590 -0.3117
 4572SOL    HW220767   1.067   3.450  11.519 -0.1741 -0.6875 -0.7801
 4573SOL     OW20768   9.881   0.457   5.297  0.0261 -0.1615 -0.1171
 4573SOL    HW120769   9.924   0.486   5.377 -0.2147 -1.6363  0.5720
 4573SOL    HW220770   9.875   0.536   5.243 -0.0873  0.9283  1.4411
 4574SOL     OW20771   1.624   3.897   2.298 -0.4908 -0.6604  0.3592
 4574SOL    HW120772   1.538   3.883   2.259  0.1815 -0.2664 -1.3692
 4574SOL    HW220773   1.678   3.824   2.265  0.5100  0.5538 -0.8536
 4575SOL     OW20774  10.555   6.809   6.906 -0.1601 -0.4247 -0.0300
 4575SOL    HW120775  10.649   6.799   6.900  0.0066  0.1176  1.2250
 4575SOL    HW220776  10.519   6.753   6.837  1.1298  0.8417 -1.8036
 4576SOL     OW20777   8.534   0.490   8.636 -0.2307  0.0972  0.0944
 4576SOL    HW120778   8.511   0.549   8.708 -0.3168  0.7426 -0.4461
 4576SOL    HW220779   8.624   0.464   8.654 -0.0193  0.7975  0.0898
 4577SOL     OW20780   1.935  10.378   5.716 -0.2907  0.2436  0.4203
 4577SOL    HW120781   1.925  10.317   5.644 -0.4142 -0.4936  1.0438
 4577SOL    HW220782   1.846  10.389   5.751 -0.1698  0.2579  0.7276
 4578SOL     OW20783   6.611   4.706  12.324 -0.6198  0.0376  0.0214
 4578SOL    HW120784   6.704   4.700  12.300  0.1888 -3.0939  3.0945
 4578SOL    HW220785   6.566   4.656  12.256  0.1237  0.3299 -0.7056
 4579SOL     OW20786   3.020   4.359  11.144 -0.6004 -0.0082 -0.1846
 4579SOL    HW120787   2.971   4.398  11.217  0.3055  0.3354  0.2511
 4579SOL    HW220788   3.014   4.424  11.074  0.6050  0.7946  0.4231
 4580SOL     OW20789   8.741  12.158  10.537 -0.2831  0.3870 -0.0116
 4580SOL    HW120790   8.761  12.177  10.629  0.9777 -0.7557 -0.0163
 4580SOL    HW220791   8.813  12.198  10.488  0.8692 -1.7484 -0.2147
 4581SOL     OW20792   3.364  10.690   4.095  0.7265  0.1266 -0.0080
 4581SOL    HW120793   3.414  10.714   4.017 -1.8834  1.1743 -1.4922
 4581SOL    HW220794   3.318  10.610   4.071  0.1472  0.2800  0.5463
 4582SOL     OW20795   2.077  11.852   7.663  0.3670  0.0862  0.0252
 4582SOL    HW120796   2.117  11.807   7.737  0.9155 -0.1831 -0.4233
 4582SOL    HW220797   2.127  11.934   7.655  0.2830  0.1333 -0.0179
 4583SOL     OW20798  10.555  10.892   5.128  0.9953 -0.8560  0.1862
 4583SOL    HW120799  10.468  10.852   5.130 -0.2659  1.4227 -2.4444
 4583SOL    HW220800  10.609  10.828   5.081  0.0147 -1.1810 -0.5579
 4584SOL     OW20801   1.856   5.153  11.052 -0.0408 -0.2824 -0.3532
 4584SOL    HW120802   1.863   5.103  11.133 -0.7913  0.7249  0.3464
 4584SOL    HW220803   1.763   5.150  11.029 -0.4777  2.4024  0.7822
 4585SOL     OW20804   0.327   7.413   9.804 -0.1882 -0.1370 -0.1327
 4585SOL    HW120805   0.366   7.493   9.839 -0.4475 -0.7162  1.5587
 4585SOL    HW220806   0.285   7.441   9.723 -0.7843  1.5863  0.7197
 4586SOL     OW20807   0.792  10.361   3.060 -0.2176  0.3309  0.4058
 4586SOL    HW120808   0.749  10.409   2.988  0.0640 -0.1022 -0.0578
 4586SOL    HW220809   0.881  10.395   3.061 -0.1683  0.2010  0.4265
 4587SOL     OW20810  11.196   1.573   8.572  0.0934  0.0831  0.1350
 4587SOL    HW120811  11.180   1.497   8.629 -1.7955 -0.5762 -1.1821
 4587SOL    HW220812  11.119   1.629   8.584  0.7238  1.0164 -0.1044
 4588SOL     OW20813   2.012   0.411  11.293 -0.0417 -0.0076 -0.3599
 4588SOL    HW120814   2.049   0.497  11.273  1.1731 -0.5915 -0.7902
 4588SOL    HW220815   1.925   0.429  11.327  0.2078  1.3906 -0.3953
 4589SOL     OW20816   8.286   8.879  10.522 -0.0425  0.7203 -0.2095
 4589SOL    HW120817   8.317   8.879  10.613 -0.0028 -0.4683 -0.2048
 4589SOL    HW220818   8.281   8.787  10.499 -0.6694  0.9950 -1.2172
 4590SOL     OW20819   4.025   0.789  11.986  0.1801 -0.1328 -0.2702
 4590SOL    HW120820   4.104   0.763  12.032 -0.4545  0.0576  0.9709
 4590SOL    HW220821   4.054   0.810  11.898  0.8549 -4.7722 -1.4567
 4591SOL     OW20822   5.298   0.717   0.790 -0.2822  0.0894  0.2437
 4591SOL    HW120823   5.257   0.792   0.747 -1.1257 -0.9587 -0.8549
 4591SOL    HW220824   5.306   0.742   0.882 -0.5207  1.5223 -0.1149
 4592SOL     OW20825  11.967   7.218  10.114  0.4344 -0.2608  0.0686
 4592SOL    HW120826  11.897   7.283  10.122 -1.0487 -1.8426  0.6701
 4592SOL    HW220827  12.022   7.249  10.042 -0.6922  1.2066 -0.1934
 4593SOL     OW20828   0.921   9.109   8.615  0.1635  0.6125  0.0905
 4593SOL    HW120829   0.958   9.094   8.702  0.0162 -0.8115 -0.0765
 4593SOL    HW220830   0.844   9.164   8.632  1.0380  1.7109  0.6700
 4594SOL     OW20831   2.340   9.019   3.126  0.1340  0.0309  0.2396
 4594SOL    HW120832   2.408   9.082   3.148  0.5708 -1.1999  2.6695
 4594SOL    HW220833   2.385   8.949   3.080  0.1674  0.0719  0.2100
 4595SOL     OW20834   1.243   6.271   7.589  0.3088  0.0700 -0.1752
 4595SOL    HW120835   1.242   6.196   7.530  1.1277 -0.2537  0.1977
 4595SOL    HW220836   1.242   6.232   7.677 -2.4819  0.5587  0.0946
 4596SOL     OW20837   7.226   6.897   3.090 -0.0523  0.1442  0.1508
 4596SOL    HW120838   7.300   6.850   3.128  0.8164  0.9094 -0.5235
 4596SOL    HW220839   7.266   6.974   3.049 -1.1154  0.0790 -1.0519
 4597SOL     OW20840   3.499   2.027   3.318 -0.2649 -0.4771  0.1639
 4597SOL    HW120841   3.578   1.984   3.285 -0.8346 -1.1679 -0.3419
 4597SOL    HW220842   3.531   2.097   3.375  0.7048 -0.7833  0.0081
 4598SOL     OW20843   8.140   3.038  12.157 -0.4102  0.0836 -0.3276
 4598SOL    HW120844   8.221   3.055  12.109  0.9860  1.0423  2.2091
 4598SOL    HW220845   8.126   3.117  12.209 -2.0054 -0.7985  0.6485
 4599SOL     OW20846  10.044   2.962   6.116  0.1695  0.4109  0.2598
 4599SOL    HW120847  10.074   2.951   6.206 -1.2622 -0.9592  0.6270
 4599SOL    HW220848   9.950   2.980   6.124 -0.0799 -0.2174 -0.9475
 4600SOL     OW20849   0.393   6.475   6.226  0.2215  0.0763 -0.0755
 4600SOL    HW120850   0.359   6.423   6.299 -0.3629  1.0982  0.4112
 4600SOL    HW220851   0.488   6.462   6.230  0.1263 -0.5331  0.3560
 4601SOL     OW20852   4.762   1.579  10.214 -0.4163  0.2027 -0.0793
 4601SOL    HW120853   4.714   1.524  10.276  0.3513 -1.1423 -0.6298
 4601SOL    HW220854   4.715   1.569  10.132 -0.0439  0.0445 -0.2772
 4602SOL     OW20855   4.040   2.378   2.667  0.0898 -0.8031 -0.5992
 4602SOL    HW120856   4.070   2.380   2.576 -1.4362 -1.8730 -1.1609
 4602SOL    HW220857   4.108   2.329   2.714  1.4552  0.7202 -0.8906
 4603SOL     OW20858   7.403   6.259  11.928 -0.1411  0.0412  0.1023
 4603SOL    HW120859   7.464   6.232  11.996  1.2249 -0.2187 -1.1609
 4603SOL    HW220860   7.406   6.355  11.929  0.9124  0.0251 -0.4585
 4604SOL     OW20861   1.443   8.235   6.662  0.5351 -0.0120 -0.1121
 4604SOL    HW120862   1.495   8.229   6.582 -0.3145 -1.9727 -0.5658
 4604SOL    HW220863   1.507   8.226   6.733  0.8174 -5.1070 -0.6247
 4605SOL     OW20864   6.845   8.032   6.001 -0.3996  0.7156 -0.7324
 4605SOL    HW120865   6.834   8.021   5.906 -3.2831  1.5531 -0.5679
 4605SOL    HW220866   6.932   7.996   6.018  0.1462  0.3484 -3.6518
 4606SOL     OW20867   9.413   8.836   4.993 -0.3769  0.5650  0.3371
 4606SOL    HW120868   9.335   8.892   4.991 -0.8761 -0.0847  1.1253
 4606SOL    HW220869   9.422   8.805   4.903 -1.6347 -0.1502  0.4268
 4607SOL     OW20870  12.235  11.452   3.163  0.6461 -0.0839 -0.3737
 4607SOL    HW120871  12.296  11.384   3.134 -0.6574 -0.8897 -1.3654
 4607SOL    HW220872  12.216  11.430   3.254 -0.1006 -1.3636 -0.8035
 4608SOL     OW20873   7.247   3.986   1.695  0.5393 -0.6234  0.2599
 4608SOL    HW120874   7.199   3.931   1.756 -0.1176 -0.1460  0.1885
 4608SOL    HW220875   7.328   3.938   1.677  1.1981 -0.3204  2.2469
 4609SOL     OW20876   2.634   6.052  11.015 -0.0904 -0.1075 -0.1086
 4609SOL    HW120877   2.710   6.084  10.967 -0.8500 -0.2646 -1.4708
 4609SOL    HW220878   2.613   5.967  10.974 -0.7445 -0.2627  0.5157
 4610SOL     OW20879   5.807  11.094   5.551  0.2749 -0.4439  0.1327
 4610SOL    HW120880   5.715  11.094   5.524  0.0490  0.4858  0.8716
 4610SOL    HW220881   5.811  11.028   5.621 -0.2355  0.7965  1.3715
 4611SOL     OW20882   4.243   4.730   5.228 -0.4308  0.5058 -0.3306
 4611SOL    HW120883   4.222   4.824   5.233  1.0400  0.7967  1.0738
 4611SOL    HW220884   4.170   4.687   5.273  0.0164  1.1923  1.1160
 4612SOL     OW20885   9.739   0.438  12.319  0.2793  0.0538 -0.2396
 4612SOL    HW120886   9.676   0.434  12.247  1.1548  0.8064 -1.0843
 4612SOL    HW220887   9.698   0.390  12.390 -0.6197 -0.7216 -1.2489
 4613SOL     OW20888   8.951   7.670   6.020  0.1323 -0.0665  0.0785
 4613SOL    HW120889   8.946   7.641   5.929  0.2601  1.2383 -0.3543
 4613SOL    HW220890   9.042   7.651   6.045  0.4931  0.8317 -0.5072
 4614SOL     OW20891   0.721   3.471   8.122  0.3750  0.5237 -0.1364
 4614SOL    HW120892   0.698   3.435   8.037 -0.3967 -0.5020  0.4916
 4614SOL    HW220893   0.693   3.405   8.186  2.9988  0.2025  0.8331
 4615SOL     OW20894   2.023   7.471   5.721 -0.0223 -0.1697 -0.1041
 4615SOL    HW120895   2.013   7.390   5.671  1.5415  0.0130 -0.7613
 4615SOL    HW220896   2.090   7.451   5.786  0.0202  0.4444  0.0489
 4616SOL     OW20897   2.760   5.983   9.049  0.5075  0.6593 -0.2316
 4616SOL    HW120898   2.720   5.948   9.128 -0.1394 -0.9403 -1.2242
 4616SOL    HW220899   2.852   5.996   9.071  0.2743  0.5079  0.8508
 4617SOL     OW20900  11.570   5.881  11.947  0.1373 -0.3814 -0.0835
 4617SOL    HW120901  11.479   5.852  11.942 -0.0289  0.0078  0.5330
 4617SOL    HW220902  11.607   5.831  12.020  0.6294 -1.0798 -0.7964
 4618SOL     OW20903   1.749   8.691   2.508 -0.0895 -0.0813 -0.2148
 4618SOL    HW120904   1.727   8.743   2.431 -0.6624  0.2299  0.1528
 4618SOL    HW220905   1.689   8.722   2.576  0.5806 -0.1755  0.4281
 4619SOL     OW20906   7.735   9.747   6.535  0.3923 -0.3405 -0.5920
 4619SOL    HW120907   7.661   9.694   6.505 -0.0372 -0.0308 -0.0876
 4619SOL    HW220908   7.770   9.786   6.455  0.4096 -0.9894 -0.9120
 4620SOL     OW20909   5.419   5.000   5.345 -0.3542  0.1395 -0.5411
 4620SOL    HW120910   5.449   4.929   5.289  0.5098 -0.1369  0.2593
 4620SOL    HW220911   5.426   4.966   5.434  0.5791  1.3946 -0.1087
 4621SOL     OW20912   4.391   9.725  10.080  0.1186  0.0767  0.2269
 4621SOL    HW120913   4.437   9.714   9.997  1.4608 -1.4717  1.1286
 4621SOL    HW220914   4.454   9.699  10.147 -1.2623  0.3066  1.6893
 4622SOL     OW20915  12.532   1.460   7.071  0.1586 -0.0841  0.5395
 4622SOL    HW120916  12.619   1.440   7.039 -0.3020 -0.3586 -0.5710
 4622SOL    HW220917  12.545   1.482   7.164  1.5905  1.3171  0.0362
 4623SOL     OW20918   1.168  11.712   8.898 -0.2381  0.3211 -0.2938
 4623SOL    HW120919   1.124  11.646   8.845 -0.9052  1.0980 -0.7321
 4623SOL    HW220920   1.251  11.728   8.853  0.2347 -0.6760  0.1798
 4624SOL     OW20921   8.534   4.357   0.335  0.3851 -0.1356  0.2004
 4624SOL    HW120922   8.620   4.387   0.367 -0.5650  1.7516  1.1498
 4624SOL    HW220923   8.524   4.270   0.374  1.9295 -0.4914 -0.0987
 4625SOL     OW20924   5.246  11.166  11.434 -0.1987  0.3363 -0.0588
 4625SOL    HW120925   5.293  11.098  11.386 -1.0968 -0.7259  0.5185
 4625SOL    HW220926   5.163  11.175  11.388 -1.3859 -1.2241  1.6438
 4626SOL     OW20927   7.821  11.704   5.902 -0.0645 -0.0190  0.3337
 4626SOL    HW120928   7.802  11.615   5.873  0.2703  0.0514 -0.1279
 4626SOL    HW220929   7.811  11.757   5.823  0.7327  0.2012  0.3649
 4627SOL     OW20930   8.684   9.876   3.562 -0.0322  0.0581  1.7117
 4627SOL    HW120931   8.631   9.940   3.516 -0.0228 -0.5588  0.8035
 4627SOL    HW220932   8.652   9.877   3.652 -0.0430  1.3033  1.7112
 4628SOL     OW20933   9.972   6.691   5.980  0.4865 -0.1347 -0.3060
 4628SOL    HW120934   9.953   6.608   6.025 -0.0596  0.0155 -0.2520
 4628SOL    HW220935  10.035   6.667   5.912 -3.0780 -1.6441 -3.5135
 4629SOL     OW20936  11.974   7.918   4.190 -0.7756  0.4624 -0.4989
 4629SOL    HW120937  11.932   7.877   4.266 -3.0445  0.2470 -1.7775
 4629SOL    HW220938  12.063   7.937   4.220 -1.2739 -0.4915  1.8826
 4630SOL     OW20939   9.537   9.071   1.934 -0.0979 -0.2293 -0.3321
 4630SOL    HW120940   9.554   9.146   1.991 -1.3636  0.1869 -0.4786
 4630SOL    HW220941   9.593   9.085   1.858  1.9777 -1.0191  0.9319
 4631SOL     OW20942   1.168  10.787   6.507  1.0926  0.9325  0.1748
 4631SOL    HW120943   1.196  10.740   6.429 -2.6496  0.1850 -0.9189
 4631SOL    HW220944   1.187  10.727   6.579 -0.1049 -0.7074 -0.7938
 4632SOL     OW20945   1.624   9.917   0.180  0.2306  0.5800  0.0656
 4632SOL    HW120946   1.557   9.977   0.212  1.6556  1.5043  1.4918
 4632SOL    HW220947   1.705   9.949   0.219  1.2649 -1.4407 -0.2808
 4633SOL     OW20948   0.593   4.476   2.817 -0.5044 -0.6415  0.4118
 4633SOL    HW120949   0.671   4.515   2.857 -0.1857 -1.4006  0.5435
 4633SOL    HW220950   0.530   4.471   2.889  0.2411 -2.4799  1.0044
 4634SOL     OW20951   8.774  12.211   6.567  0.1224  0.4275  0.1153
 4634SOL    HW120952   8.707  12.145   6.548 -1.5146  1.8104  0.8341
 4634SOL    HW220953   8.797  12.197   6.659  0.2497  0.4581  0.0894
 4635SOL     OW20954   7.202   6.137  11.077 -0.1100 -0.3691 -0.1930
 4635SOL    HW120955   7.178   6.053  11.116  0.1438 -0.4052 -0.1059
 4635SOL    HW220956   7.152   6.201  11.127 -1.6337 -0.5775 -1.3870
 4636SOL     OW20957   3.988   2.797   9.248 -0.1439 -0.5274  0.2224
 4636SOL    HW120958   4.035   2.869   9.206 -0.9561  0.8537  1.5458
 4636SOL    HW220959   3.935   2.758   9.178  1.7233 -1.1027 -0.9299
 4637SOL     OW20960   5.471   7.602   0.699 -0.0387 -0.4496  0.4292
 4637SOL    HW120961   5.501   7.562   0.617  1.8389 -0.4586  1.0905
 4637SOL    HW220962   5.488   7.695   0.688  1.3490 -0.5908  1.2535
 4638SOL     OW20963  12.471   7.513   5.534 -0.5713  0.4930  0.4501
 4638SOL    HW120964  12.490   7.604   5.556 -0.0791  0.2004  1.2712
 4638SOL    HW220965  12.474   7.467   5.617  1.1660 -0.6350 -0.1735
 4639SOL     OW20966  12.475   1.706   2.755 -0.3792  0.1685  0.6115
 4639SOL    HW120967  12.526   1.703   2.836 -2.3160 -0.0437  1.8943
 4639SOL    HW220968  12.407   1.771   2.771 -0.9797 -0.0765 -0.7390
 4640SOL     OW20969   3.038   6.402   0.646  0.1089 -0.3730  0.9390
 4640SOL    HW120970   3.112   6.342   0.643  0.3642 -0.2340  3.0138
 4640SOL    HW220971   2.963   6.349   0.618  1.0492 -0.2395 -2.2130
 4641SOL     OW20972   6.404   3.743   2.451 -0.1273  0.5382  0.1675
 4641SOL    HW120973   6.474   3.685   2.420 -0.7862 -0.2549  0.1187
 4641SOL    HW220974   6.350   3.687   2.507  0.5222  1.7034  2.0530
 4642SOL     OW20975  11.935   8.139  10.913 -0.4310  0.1721 -0.1661
 4642SOL    HW120976  11.981   8.169  10.835 -0.0442  1.1893  0.4275
 4642SOL    HW220977  11.854   8.191  10.914  0.3051  1.3823  0.9437
 4643SOL     OW20978  11.836   5.676   1.739  0.3870 -0.4351  0.3228
 4643SOL    HW120979  11.812   5.718   1.657  0.0663  0.4844  0.8642
 4643SOL    HW220980  11.879   5.745   1.789  1.5039 -1.2660  0.5313
 4644SOL     OW20981   8.793   6.095  12.497 -0.4732 -0.9397  0.5367
 4644SOL    HW120982   8.866   6.056  12.544  0.2341  1.0547  1.2298
 4644SOL    HW220983   8.715   6.059  12.538  0.1424 -1.4612  1.2553
 4645SOL     OW20984   5.622   7.525   3.100 -0.1552 -0.3776 -0.5259
 4645SOL    HW120985   5.667   7.566   3.174 -0.5804 -0.3939 -0.2512
 4645SOL    HW220986   5.610   7.434   3.128  2.5211 -1.2504 -1.9131
 4646SOL     OW20987  10.946  11.875   9.811  0.7496  0.1794 -0.2122
 4646SOL    HW120988  11.026  11.836   9.776  0.7148 -0.5638  0.4816
 4646SOL    HW220989  10.941  11.961   9.771  1.1100 -0.3318 -1.4105
 4647SOL     OW20990   7.098   0.410   6.270 -0.1556 -0.1861  0.1304
 4647SOL    HW120991   7.094   0.317   6.245  0.0950 -0.1289 -0.1274
 4647SOL    HW220992   7.147   0.410   6.352  0.6847 -0.1951 -0.3608
 4648SOL     OW20993   2.400   5.196   1.298  0.5440  0.0576  0.6964
 4648SOL    HW120994   2.372   5.118   1.345  1.4148 -0.8203 -0.1671
 4648SOL    HW220995   2.336   5.206   1.227  0.9563 -0.4617  0.2351
 4649SOL     OW20996   4.419   1.303  12.370  0.3996  0.0684 -0.0708
 4649SOL    HW120997   4.510   1.333  12.380  0.5635 -0.5455  0.3923
 4649SOL    HW220998   4.372   1.379  12.337  1.2466  0.1599 -1.1268
 4650SOL     OW20999  10.885   9.618  11.365  0.0928 -0.2290 -0.5188
 4650SOL    HW121000  10.867   9.625  11.459  1.5626 -0.1249 -0.2090
 4650SOL    HW221001  10.813   9.665  11.323 -1.1877 -1.2235  0.4758
 4651SOL     OW21002   9.493   1.357   6.526  0.1017 -0.0410  0.4021
 4651SOL    HW121003   9.423   1.405   6.481  1.7491  0.6422 -1.5811
 4651SOL    HW221004   9.569   1.416   6.522  1.8431 -2.2218 -0.9126
 4652SOL     OW21005  11.741   6.101   3.352 -0.1300 -0.1987 -0.2259
 4652SOL    HW121006  11.681   6.122   3.423 -0.0599 -0.7205 -0.0075
 4652SOL    HW221007  11.711   6.016   3.319 -2.5367  1.6717 -3.3689
 4653SOL     OW21008   9.480   3.883   9.212 -0.6051  0.3692  0.6453
 4653SOL    HW121009   9.441   3.869   9.299 -1.2032 -0.0704  0.3112
 4653SOL    HW221010   9.497   3.795   9.179 -0.0609  0.5442  0.4575
 4654SOL     OW21011   1.853   1.892   2.646 -0.5291 -0.2974  0.0335
 4654SOL    HW121012   1.824   1.849   2.565 -0.8839 -0.8141  0.4287
 4654SOL    HW221013   1.773   1.930   2.683 -0.1848  0.9026 -0.4204
 4655SOL     OW21014   0.612   0.082   1.821 -0.4694  0.3001 -0.9839
 4655SOL    HW121015   0.708   0.085   1.824 -0.3731 -0.4879 -2.3987
 4655SOL    HW221016   0.585   0.155   1.876  0.8601 -1.2458  1.9381
 4656SOL     OW21017   7.368   0.595   7.848 -0.2450  0.0764  0.4965
 4656SOL    HW121018   7.431   0.527   7.824 -1.2313 -0.3129 -1.2038
 4656SOL    HW221019   7.287   0.570   7.803 -0.0976  3.4059 -2.0451
 4657SOL     OW21020   4.743  11.000   9.054 -0.1152 -0.9138 -0.1039
 4657SOL    HW121021   4.813  10.959   9.106 -0.3279 -1.3600 -0.1660
 4657SOL    HW221022   4.766  11.093   9.053  0.4429 -1.0445 -0.0688
 4658SOL     OW21023   9.673   6.601  11.699  0.1178  0.1464  0.4089
 4658SOL    HW121024   9.694   6.575  11.610 -0.7128 -1.4870  0.6552
 4658SOL    HW221025   9.587   6.642  11.693 -0.3483 -0.7981  0.5827
 4659SOL     OW21026   9.507   8.990   8.936 -0.1182  0.3089  0.0850
 4659SOL    HW121027   9.474   9.078   8.955  0.3531  0.8739 -1.5859
 4659SOL    HW221028   9.453   8.933   8.990  0.6720  1.7100  2.5054
 4660SOL     OW21029   5.771   0.145   6.025 -0.1939  0.3226  0.5527
 4660SOL    HW121030   5.781   0.110   5.936 -0.2069 -0.8236  0.9875
 4660SOL    HW221031   5.701   0.092   6.063 -0.7861  1.3816  0.9716
 4661SOL     OW21032   9.500   0.876   2.140  0.4324 -0.4778 -0.9376
 4661SOL    HW121033   9.425   0.840   2.092 -1.1799 -1.0639  1.7758
 4661SOL    HW221034   9.533   0.803   2.192  0.6702  0.5907  0.4720
 4662SOL     OW21035   6.443  11.493   3.221  0.6499  0.0729 -0.7352
 4662SOL    HW121036   6.521  11.520   3.173  1.2887  1.0822  0.7772
 4662SOL    HW221037   6.381  11.565   3.208  0.0275 -0.6017 -1.7060
 4663SOL     OW21038   0.160   9.201   7.467 -0.0123  0.2588  0.3391
 4663SOL    HW121039   0.107   9.127   7.439 -0.1203  0.6028 -0.3878
 4663SOL    HW221040   0.159   9.261   7.392 -0.7462  1.4352  1.2470
 4664SOL     OW21041   8.443   0.017  10.130 -0.1552  0.3393 -0.0519
 4664SOL    HW121042   8.416  -0.066  10.170 -0.3593  0.3588 -0.1474
 4664SOL    HW221043   8.505   0.055  10.192 -0.8989  0.6403  0.5160
 4665SOL     OW21044   5.420   8.372  12.409 -0.5086  0.4913 -0.2906
 4665SOL    HW121045   5.333   8.409  12.394 -1.0453  0.2843  1.9292
 4665SOL    HW221046   5.461   8.433  12.471 -0.5504 -1.3560  1.6549
 4666SOL     OW21047   1.957  10.776   7.624 -0.3324  0.2259 -0.3549
 4666SOL    HW121048   1.970  10.734   7.710  1.1000  0.0702 -0.6079
 4666SOL    HW221049   2.029  10.742   7.571  0.9332  2.9999 -0.5780
 4667SOL     OW21050   9.943   5.015  12.593 -0.0048 -0.0696  0.8120
 4667SOL    HW121051   9.892   5.077  12.540  0.2715  0.5421  1.2454
 4667SOL    HW221052   9.901   4.931  12.578  0.5661 -0.0786 -1.0458
 4668SOL     OW21053   7.134  10.264   0.779 -0.2582  0.5221  0.2487
 4668SOL    HW121054   7.064  10.200   0.781  0.6300 -0.4753  0.1917
 4668SOL    HW221055   7.102  10.336   0.833 -1.0940 -0.1603  0.6795
 4669SOL     OW21056  11.898   1.377   9.284 -0.2698  0.1670  0.1536
 4669SOL    HW121057  11.948   1.296   9.299  0.0410  0.4858  0.8706
 4669SOL    HW221058  11.884   1.413   9.371 -1.3844  0.3174 -0.0737
 4670SOL     OW21059   9.962   4.928   3.532 -0.4367 -0.3872 -0.1012
 4670SOL    HW121060  10.005   4.843   3.543 -1.1357 -0.6798  0.4505
 4670SOL    HW221061   9.968   4.968   3.619  0.1191  0.2452 -0.4241
 4671SOL     OW21062   1.381   9.328   6.766  0.3700  0.2803 -0.1876
 4671SOL    HW121063   1.465   9.284   6.751  0.5216  0.8403 -1.0470
 4671SOL    HW221064   1.338   9.275   6.833  1.0680 -0.4665 -0.3145
 4672SOL     OW21065   4.457   2.202   4.183  0.1408  0.2121 -0.7181
 4672SOL    HW121066   4.419   2.222   4.097  1.7957 -0.6125 -1.6916
 4672SOL    HW221067   4.551   2.189   4.165  0.2871 -1.4698  0.9544
 4673SOL     OW21068   9.430   1.025   2.762  0.0181 -0.1916 -0.5377
 4673SOL    HW121069   9.412   0.978   2.681  0.4477 -1.9128  0.3286
 4673SOL    HW221070   9.526   1.031   2.766  0.0881 -1.6085  0.6235
 4674SOL     OW21071   9.793  12.112   0.133 -0.2660 -0.1679  0.6641
 4674SOL    HW121072   9.806  12.198   0.093 -0.5845  0.1813  1.2890
 4674SOL    HW221073   9.836  12.051   0.073  2.1613  0.6485  1.4476
 4675SOL     OW21074   7.216   9.989   3.747  0.2899 -0.1640  0.1789
 4675SOL    HW121075   7.231   9.989   3.842  0.9164 -1.4673  0.1003
 4675SOL    HW221076   7.304   9.989   3.709  0.0387 -0.1986 -0.4056
 4676SOL     OW21077   9.590   4.288   0.484  0.1387 -0.3676  0.3741
 4676SOL    HW121078   9.498   4.263   0.497 -0.0514  0.4368  0.6156
 4676SOL    HW221079   9.624   4.299   0.573  0.5743 -1.0287  0.2915
 4677SOL     OW21080   3.695  10.728   0.309  0.0091  0.4068 -0.4901
 4677SOL    HW121081   3.779  10.733   0.264  0.6913 -1.3292  0.5184
 4677SOL    HW221082   3.667  10.638   0.298 -1.3823  0.7843 -0.1837
 4678SOL     OW21083   5.491   4.214   3.394 -0.0343 -0.3177 -0.1583
 4678SOL    HW121084   5.395   4.210   3.396  0.0243 -1.8032  1.9791
 4678SOL    HW221085   5.510   4.272   3.320 -2.5251 -1.2781 -1.6844
 4679SOL     OW21086   5.205  12.475  10.142  0.6690 -0.1050 -0.2579
 4679SOL    HW121087   5.158  12.555  10.117  0.0553  0.1035  1.4353
 4679SOL    HW221088   5.188  12.415  10.070 -1.7363  0.1685 -0.0226
 4680SOL     OW21089   1.157   6.045   9.442 -0.3276  0.1776 -0.1892
 4680SOL    HW121090   1.152   5.972   9.504  0.0939  0.1891 -0.1378
 4680SOL    HW221091   1.251   6.064   9.436 -0.4861  1.2370  0.4239
 4681SOL     OW21092   0.787   1.949   9.395 -0.1663 -0.1563 -0.2969
 4681SOL    HW121093   0.823   1.957   9.307  0.6547 -2.1653 -0.1803
 4681SOL    HW221094   0.849   1.994   9.451  0.0679 -0.1394 -0.5704
 4682SOL     OW21095  10.265   7.047   3.596  0.1566  0.1398 -0.0479
 4682SOL    HW121096  10.185   7.025   3.549 -0.0107  1.1236 -0.2565
 4682SOL    HW221097  10.309   6.963   3.611 -0.6235 -0.3487 -0.4473
 4683SOL     OW21098   4.733   2.204   3.265  0.2686 -0.1308  0.5976
 4683SOL    HW121099   4.787   2.195   3.344 -1.2158 -2.2405  1.4663
 4683SOL    HW221100   4.794   2.193   3.193  1.5063  0.8964  1.4447
 4684SOL     OW21101  10.037   9.104   7.251 -0.7902  0.2986  0.0546
 4684SOL    HW121102  10.057   9.104   7.345 -0.2675 -0.5250 -0.0434
 4684SOL    HW221103  10.081   9.026   7.218 -0.5809  0.8382 -0.9633
 4685SOL     OW21104   5.441   2.534   1.215 -0.1981  0.3318 -0.0690
 4685SOL    HW121105   5.472   2.452   1.255 -0.5753 -0.5537 -1.5042
 4685SOL    HW221106   5.436   2.514   1.121  0.9362  2.3971 -0.6463
 4686SOL     OW21107   4.055  10.483   6.894 -0.1044 -0.5155 -0.4069
 4686SOL    HW121108   4.113  10.435   6.834 -1.3613  1.4845 -3.4234
 4686SOL    HW221109   4.112  10.550   6.933  0.2018 -0.2151 -1.3409
 4687SOL     OW21110  10.624   1.917   5.684 -0.5275  0.0374  0.2305
 4687SOL    HW121111  10.716   1.895   5.702 -0.5967 -1.5769 -1.1140
 4687SOL    HW221112  10.621   2.012   5.688  0.6667  0.0540  2.6097
 4688SOL     OW21113   0.251   8.418   2.283 -0.0365  0.5160 -0.0925
 4688SOL    HW121114   0.311   8.384   2.217  0.4292  0.8472  0.1550
 4688SOL    HW221115   0.194   8.478   2.235 -0.8709 -0.5970 -0.5359
 4689SOL     OW21116   2.458  12.539   1.651  0.3127  0.0443 -0.2153
 4689SOL    HW121117   2.416  12.587   1.579  0.5173 -0.6924 -0.8331
 4689SOL    HW221118   2.407  12.563   1.729 -1.4300 -1.0294 -0.9875
 4690SOL     OW21119   0.901   4.362   5.788  0.0957 -0.0729  0.4029
 4690SOL    HW121120   0.984   4.351   5.742  0.0077  0.8582  0.0085
 4690SOL    HW221121   0.873   4.452   5.768 -1.0053 -0.3675  0.5317
 4691SOL     OW21122   1.613   3.075  10.862  1.0973 -0.1393  0.1363
 4691SOL    HW121123   1.582   3.106  10.776  0.9624  1.0273  0.5830
 4691SOL    HW221124   1.609   2.980  10.856  0.3297 -0.0609 -0.8769
 4692SOL     OW21125  11.726   8.771   0.996 -0.5271  0.5297 -0.2436
 4692SOL    HW121126  11.661   8.768   0.926  0.3254 -0.0004 -1.0347
 4692SOL    HW221127  11.805   8.805   0.954 -0.2824  1.1674  0.6998
 4693SOL     OW21128   9.740  10.332  11.116  0.0312  0.2831  0.3938
 4693SOL    HW121129   9.645  10.325  11.115  0.1395 -2.1303 -1.0899
 4693SOL    HW221130   9.762  10.365  11.028  0.6228 -1.4855 -0.1586
 4694SOL     OW21131   6.348   8.425   0.549 -0.1676  0.2282  0.1414
 4694SOL    HW121132   6.375   8.493   0.488  2.0134 -0.3035  0.3989
 4694SOL    HW221133   6.431   8.388   0.580 -1.2583 -1.0275  1.6978
 4695SOL     OW21134   8.433   7.900   8.614 -1.1975  0.0245 -0.0850
 4695SOL    HW121135   8.407   7.808   8.604  1.7225 -0.6363 -3.3593
 4695SOL    HW221136   8.477   7.903   8.699 -2.1641 -1.3555  0.5033
 4696SOL     OW21137   4.385   3.924  12.535 -0.0421  0.2647  0.1825
 4696SOL    HW121138   4.441   3.861  12.490 -0.6234 -1.0900  1.2998
 4696SOL    HW221139   4.318   3.947  12.470  0.7872  0.5641 -0.5818
 4697SOL     OW21140   2.169   4.947   9.216  0.5656 -0.2749  0.3873
 4697SOL    HW121141   2.183   4.894   9.294  2.8368  0.4232  0.5182
 4697SOL    HW221142   2.245   4.930   9.161  1.3633  2.6704  0.3924
 4698SOL     OW21143  11.255   8.849   9.443 -0.1414  0.3135 -0.3497
 4698SOL    HW121144  11.315   8.857   9.517 -1.3618 -0.9036  0.8175
 4698SOL    HW221145  11.275   8.925   9.388  0.4202  1.5659  1.4945
 4699SOL     OW21146   2.935   0.356   0.808  0.1657  0.0042  0.2785
 4699SOL    HW121147   3.005   0.401   0.856  0.2440  0.7056 -0.4741
 4699SOL    HW221148   2.896   0.424   0.753  1.0420 -1.0754 -1.7597
 4700SOL     OW21149   8.955   6.319   1.679  0.3728  0.0205  0.2461
 4700SOL    HW121150   8.908   6.249   1.634 -3.3044  2.3585  0.0134
 4700SOL    HW221151   8.985   6.377   1.608 -0.7810  1.0307  0.5633
 4701SOL     OW21152  10.120   4.251   3.531 -0.2969 -0.6509 -0.1388
 4701SOL    HW121153  10.038   4.300   3.517  0.4735  0.6960 -0.1114
 4701SOL    HW221154  10.148   4.276   3.619  2.5284  2.6927 -1.7496
 4702SOL     OW21155   3.607  10.739   3.449 -0.2558  0.5860 -0.2397
 4702SOL    HW121156   3.611  10.819   3.395  0.6217  0.8983  0.2569
 4702SOL    HW221157   3.699  10.721   3.470 -0.4915 -0.2915  0.0486
 4703SOL     OW21158  12.101   1.849   7.320  0.0401 -0.6139  0.0282
 4703SOL    HW121159  12.140   1.770   7.358 -0.5901 -0.1086  1.7937
 4703SOL    HW221160  12.055   1.891   7.392  0.1797  1.2848 -0.9243
 4704SOL     OW21161   6.508   9.061   2.933  0.4210  0.0624  0.8043
 4704SOL    HW121162   6.544   9.086   2.848  1.3731  0.8599  1.4184
 4704SOL    HW221163   6.418   9.033   2.914  0.3394  1.0405 -0.3394
 4705SOL     OW21164   0.641  11.314   7.706 -0.2757  0.2337 -0.0096
 4705SOL    HW121165   0.560  11.321   7.657  0.0103 -2.3433 -1.0100
 4705SOL    HW221166   0.634  11.380   7.775 -1.0994  3.3922 -2.8683
 4706SOL     OW21167   5.505  12.573   7.957  0.0044  0.4514  0.1799
 4706SOL    HW121168   5.487  12.528   7.874 -1.9758 -2.3907  1.9557
 4706SOL    HW221169   5.469  12.660   7.945 -0.6179 -0.0161 -1.8013
 4707SOL     OW21170  10.684   5.649  11.472  0.4343 -0.1766  0.3300
 4707SOL    HW121171  10.629   5.690  11.540  3.4442  1.2248  2.1192
 4707SOL    HW221172  10.716   5.569  11.512  0.7417 -0.3067 -0.1669
 4708SOL     OW21173   2.590   2.618   5.503  0.3652  0.0830 -0.0366
 4708SOL    HW121174   2.640   2.587   5.579  0.8202 -2.8926 -1.4100
 4708SOL    HW221175   2.499   2.621   5.535  0.2350 -3.1528  0.2069
 4709SOL     OW21176  10.822   2.736  10.287 -0.2515 -0.1094 -0.1340
 4709SOL    HW121177  10.900   2.681  10.283  0.2063  0.5539 -0.4257
 4709SOL    HW221178  10.840   2.799  10.357 -0.3691  0.2776 -0.4498
 4710SOL     OW21179   8.489  12.150   8.746 -0.5207  0.0450 -0.2893
 4710SOL    HW121180   8.434  12.120   8.818 -1.7617  1.1896 -0.7253
 4710SOL    HW221181   8.443  12.120   8.667  0.7448 -1.0645 -0.6463
 4711SOL     OW21182   0.394   5.485   7.481 -0.3359 -0.6520  0.7667
 4711SOL    HW121183   0.424   5.403   7.520 -0.2654 -1.3032 -0.6101
 4711SOL    HW221184   0.458   5.505   7.414 -0.5009  0.4022  0.8983
 4712SOL     OW21185   4.284   1.307   6.319 -0.7416  0.9276 -0.4992
 4712SOL    HW121186   4.214   1.336   6.378 -1.5015 -0.9651 -0.3967
 4712SOL    HW221187   4.360   1.296   6.377 -0.2241  3.1989 -0.6472
 4713SOL     OW21188  10.728   1.849  10.094  0.1345 -0.0177  0.1013
 4713SOL    HW121189  10.782   1.888  10.163 -0.6665  1.2250  0.0424
 4713SOL    HW221190  10.713   1.920  10.032 -0.3725 -0.7356 -0.6206
 4714SOL     OW21191  11.048  10.508   1.434  0.4553 -0.1414  0.1198
 4714SOL    HW121192  11.039  10.601   1.412  0.4192  0.1953  1.4945
 4714SOL    HW221193  11.017  10.462   1.356  1.1809  0.9914 -0.8617
 4715SOL     OW21194   3.810  12.185   0.583 -0.1670 -0.2518  0.0104
 4715SOL    HW121195   3.776  12.143   0.662 -1.0970 -0.6639 -0.5778
 4715SOL    HW221196   3.812  12.279   0.604 -1.5782 -0.2268  0.1278
 4716SOL     OW21197   5.524   1.388   1.613  0.1583 -0.1582 -0.0409
 4716SOL    HW121198   5.468   1.346   1.548 -0.1857  1.8677 -1.1458
 4716SOL    HW221199   5.554   1.468   1.571 -1.1139  1.9351  2.6840
 4717SOL     OW21200   8.299   6.623   6.645  0.1755 -0.1959  0.1125
 4717SOL    HW121201   8.370   6.582   6.596  1.5149 -0.1648  1.9077
 4717SOL    HW221202   8.329   6.713   6.659  0.4961 -0.5612  2.0928
 4718SOL     OW21203   7.878  10.545   5.723 -0.5103  0.0126 -0.0501
 4718SOL    HW121204   7.914  10.594   5.797 -1.0883 -0.4057  0.5216
 4718SOL    HW221205   7.802  10.596   5.695 -0.9105 -0.3540  0.3288
 4719SOL     OW21206   9.526   0.307   2.681 -0.2656  0.2009 -0.3662
 4719SOL    HW121207   9.557   0.376   2.740 -0.0137  0.9674 -1.3713
 4719SOL    HW221208   9.586   0.233   2.696 -0.4659  0.2342  0.6333
 4720SOL     OW21209   7.916   2.673  12.087 -0.1660  0.2454  0.1061
 4720SOL    HW121210   7.865   2.638  12.014 -2.2221  1.2042  1.0184
 4720SOL    HW221211   7.931   2.764  12.064 -0.6328  0.4921  0.7659
 4721SOL     OW21212   8.876   4.553   8.291  0.3451  0.5583  0.1476
 4721SOL    HW121213   8.965   4.525   8.267  0.1830  0.5561 -0.4530
 4721SOL    HW221214   8.846   4.603   8.216 -1.1210 -1.5319 -0.7588
 4722SOL     OW21215   2.732   0.118   4.083 -0.5097  0.4338 -0.7747
 4722SOL    HW121216   2.772   0.040   4.121  1.5112  1.4190 -0.7909
 4722SOL    HW221217   2.778   0.130   4.000 -0.3334  2.0007 -0.4721
 4723SOL     OW21218   1.411   8.662   5.058 -0.0928 -0.7509 -0.5042
 4723SOL    HW121219   1.446   8.652   5.146 -3.0375 -2.5822  0.6093
 4723SOL    HW221220   1.417   8.574   5.020 -1.1453 -0.5524 -1.1640
 4724SOL     OW21221   4.876   5.749  10.324  0.2811  0.6557  0.2629
 4724SOL    HW121222   4.927   5.753  10.243 -1.1334 -0.7530 -0.7668
 4724SOL    HW221223   4.898   5.665  10.362 -0.1246  0.6929  0.5859
 4725SOL     OW21224  12.589   1.425   5.576 -0.0155  0.3755 -0.8421
 4725SOL    HW121225  12.640   1.352   5.541  0.6809  0.5294 -0.1857
 4725SOL    HW221226  12.655   1.488   5.607 -0.5994  1.3899 -1.5938
 4726SOL     OW21227   6.612   2.101   7.174 -0.0861 -0.4087  0.4051
 4726SOL    HW121228   6.579   2.163   7.239  0.5393  0.2482  0.1144
 4726SOL    HW221229   6.670   2.043   7.224 -0.1762 -0.3644  0.5606
 4727SOL     OW21230   1.380  11.576   7.297 -0.0825 -0.0548  0.0787
 4727SOL    HW121231   1.285  11.570   7.295 -0.1405  0.7968 -0.3684
 4727SOL    HW221232   1.410  11.486   7.304 -0.9288 -0.3070  0.5575
 4728SOL     OW21233   8.115   3.876   0.517 -0.0741 -0.2662 -0.5017
 4728SOL    HW121234   8.147   3.935   0.585 -2.2340  0.2094  0.1662
 4728SOL    HW221235   8.160   3.906   0.437  2.1794 -0.5777  0.5731
 4729SOL     OW21236  10.700  11.728   7.767 -0.7710 -0.1528 -0.8868
 4729SOL    HW121237  10.692  11.787   7.692  0.7659 -0.7670 -1.5713
 4729SOL    HW221238  10.761  11.661   7.739  1.2191  0.5077  1.4731
 4730SOL     OW21239   3.038   0.345   4.025  0.2209 -0.4033 -0.4251
 4730SOL    HW121240   3.003   0.261   4.055  0.7420 -0.5938 -0.3505
 4730SOL    HW221241   2.971   0.378   3.965  0.0412 -0.9015 -0.5077
 4731SOL     OW21242   7.407   1.139   6.154 -0.5252 -0.3629  0.8809
 4731SOL    HW121243   7.496   1.151   6.119 -0.2231  0.6673  1.9415
 4731SOL    HW221244   7.405   1.192   6.233 -1.4515 -2.0208  2.0251
 4732SOL     OW21245  11.433   3.418   5.861  0.1207 -0.1426  0.2167
 4732SOL    HW121246  11.471   3.332   5.878 -0.0298 -0.3872 -0.6105
 4732SOL    HW221247  11.353   3.400   5.812  0.0818  0.4651  0.0382
 4733SOL     OW21248   4.702   1.149   6.608  0.1088 -0.6342 -0.7915
 4733SOL    HW121249   4.788   1.183   6.634 -0.3948  1.1703 -1.3342
 4733SOL    HW221250   4.713   1.126   6.515 -0.0412 -0.1683 -0.9293
 4734SOL     OW21251   5.426   0.589   1.883  0.3997 -0.4149  0.0287
 4734SOL    HW121252   5.416   0.552   1.796  0.6386 -1.7310  0.5328
 4734SOL    HW221253   5.441   0.513   1.940 -2.1265  0.1166  1.6028
 4735SOL     OW21254   7.264  10.066   5.025  0.2341 -0.4313  0.0356
 4735SOL    HW121255   7.325  10.118   4.973  0.3728 -0.3501  0.2770
 4735SOL    HW221256   7.247   9.988   4.973  1.5569 -1.0779  0.5282
 4736SOL     OW21257   7.178   2.797  10.227 -0.3631  0.7575 -0.2908
 4736SOL    HW121258   7.269   2.792  10.256 -0.1355  2.3892 -0.6386
 4736SOL    HW221259   7.161   2.713  10.186  0.0042 -0.8110  2.5149
 4737SOL     OW21260   7.798   3.566   3.095 -0.1887 -0.0462 -0.1612
 4737SOL    HW121261   7.893   3.560   3.093 -0.1191  0.9848 -0.1860
 4737SOL    HW221262   7.775   3.553   3.187 -0.0608 -0.6658 -0.2102
 4738SOL     OW21263   6.994  10.540   1.630  0.1768  0.5423  0.5718
 4738SOL    HW121264   7.077  10.563   1.588  0.2267  0.9908  0.9038
 4738SOL    HW221265   6.977  10.451   1.602  0.1151  0.8948 -0.5364
 4739SOL     OW21266   9.213   0.589   7.085 -0.2231  0.4371  0.3622
 4739SOL    HW121267   9.177   0.673   7.058  0.3347  0.9332  1.1405
 4739SOL    HW221268   9.307   0.605   7.097  0.0630 -0.5254 -0.4079
 4740SOL     OW21269  11.201   8.771  10.627  0.2639  0.2683 -0.6546
 4740SOL    HW121270  11.291   8.739  10.635  0.5703  1.4735  1.1033
 4740SOL    HW221271  11.199   8.813  10.541  1.7812  1.3582 -0.2031
 4741SOL     OW21272  10.651   7.371   2.543  0.4215  0.4735  0.3776
 4741SOL    HW121273  10.692   7.329   2.467 -0.5899 -1.2311  0.7202
 4741SOL    HW221274  10.683   7.321   2.618 -1.3049 -0.1288  0.7472
 4742SOL     OW21275   2.486   0.429   9.829  0.1470  0.5450 -0.0982
 4742SOL    HW121276   2.571   0.464   9.856  0.5649 -0.0697 -0.5750
 4742SOL    HW221277   2.422   0.491   9.863  0.7480  0.6523  0.8673
 4743SOL     OW21278   0.776   5.799   1.209  0.1950 -0.5954 -0.0267
 4743SOL    HW121279   0.834   5.869   1.180  0.2366 -0.3792  0.5685
 4743SOL    HW221280   0.790   5.793   1.304  0.0412 -1.2690 -0.0385
 4744SOL     OW21281   4.052   4.213   4.422 -0.8305 -0.3761 -0.5631
 4744SOL    HW121282   4.030   4.125   4.453  0.1205 -0.4841 -0.1745
 4744SOL    HW221283   4.144   4.207   4.396 -0.3235  0.8626  0.8201
 4745SOL     OW21284  11.821   9.339   3.780 -0.1256  0.0924  0.3619
 4745SOL    HW121285  11.800   9.259   3.828 -1.4806  0.2652  0.0873
 4745SOL    HW221286  11.737   9.371   3.747  0.2548  2.1068  1.1770
 4746SOL     OW21287   4.571   7.718   3.883  0.3711  0.4296  0.5316
 4746SOL    HW121288   4.488   7.728   3.835 -0.2392  0.2939  1.5293
 4746SOL    HW221289   4.585   7.804   3.923 -0.2334 -0.0464  1.8195
 4747SOL     OW21290   3.518  12.423  12.420 -0.1444 -0.2439 -0.1680
 4747SOL    HW121291   3.573  12.371  12.362 -0.1850 -0.1972 -0.2483
 4747SOL    HW221292   3.437  12.437  12.371  0.2428  0.7418 -0.5596
 4748SOL     OW21293  11.800   1.710  12.159  0.4094  0.1197  0.3812
 4748SOL    HW121294  11.740   1.784  12.153 -0.2732 -0.4472  0.1480
 4748SOL    HW221295  11.831   1.711  12.249  1.4233  1.4615  0.0645
 4749SOL     OW21296   8.478   4.809   9.387  0.1314 -0.0754  0.3038
 4749SOL    HW121297   8.418   4.769   9.324 -1.2969  2.6865 -0.2398
 4749SOL    HW221298   8.458   4.765   9.470 -3.2543  1.1634  0.2940
 4750SOL     OW21299   6.177   7.261   4.189 -0.3039 -0.4235  0.5085
 4750SOL    HW121300   6.175   7.167   4.169 -3.3750 -0.3400  0.0132
 4750SOL    HW221301   6.134   7.303   4.115  2.5210  1.6554 -0.1200
 4751SOL     OW21302   0.562  11.677   1.984 -0.0688 -0.3385 -0.3083
 4751SOL    HW121303   0.571  11.637   1.897 -2.1549 -0.9677 -0.2979
 4751SOL    HW221304   0.643  11.654   2.029  0.5578 -1.0136 -1.6980
 4752SOL     OW21305  12.255   0.276   7.218  0.1289  0.4135  0.2846
 4752SOL    HW121306  12.281   0.296   7.128 -0.4471 -3.3745 -0.9225
 4752SOL    HW221307  12.322   0.214   7.248 -0.7487  0.1433  1.7576
 4753SOL     OW21308   7.282   5.381   1.232  0.1884  0.2604 -0.7620
 4753SOL    HW121309   7.323   5.430   1.304 -1.8214 -0.8017  1.2400
 4753SOL    HW221310   7.347   5.315   1.208  0.1045 -0.8051  1.6667
 4754SOL     OW21311   7.093   9.572   3.766 -0.0712 -0.3792 -0.1828
 4754SOL    HW121312   7.121   9.571   3.674  1.9000 -1.2091  0.3744
 4754SOL    HW221313   7.005   9.534   3.765  0.4155 -1.5407 -1.5840
 4755SOL     OW21314   2.815   8.016   6.031  0.1644 -0.1502 -0.3433
 4755SOL    HW121315   2.861   7.934   6.048  4.4089  1.9070 -0.4978
 4755SOL    HW221316   2.742   7.992   5.974  1.4282 -3.7251 -0.6663
 4756SOL     OW21317   4.191   0.741  10.718 -0.7068 -0.3585  0.4300
 4756SOL    HW121318   4.238   0.798  10.778  0.2160  0.5207 -1.0696
 4756SOL    HW221319   4.251   0.727  10.645 -2.3043 -0.1366 -1.0152
 4757SOL     OW21320   1.948   3.836   3.967  0.2458  0.4538 -0.2750
 4757SOL    HW121321   1.858   3.833   3.934  0.6688 -0.9319 -1.4442
 4757SOL    HW221322   1.987   3.910   3.921 -0.5270  1.7004  0.9890
 4758SOL     OW21323  11.853   4.046   0.181 -0.6342 -0.0723 -0.1583
 4758SOL    HW121324  11.908   4.100   0.239  1.3559 -1.5898 -0.5179
 4758SOL    HW221325  11.764   4.064   0.209  0.0154  2.3021  0.6683
 4759SOL     OW21326   1.288  10.404  10.308 -0.4031 -0.0710  0.6305
 4759SOL    HW121327   1.247  10.479  10.264  0.6334  0.1122 -0.0634
 4759SOL    HW221328   1.381  10.413  10.288 -0.1944 -1.2472  1.0005
 4760SOL     OW21329   1.697   5.401   9.981 -0.2148  0.2837 -0.0536
 4760SOL    HW121330   1.694   5.471  10.047  0.9553 -1.1039  1.5783
 4760SOL    HW221331   1.715   5.446   9.899 -0.2446  1.9545  0.7959
 4761SOL     OW21332   7.172   3.092   9.444 -0.2129 -0.1064  0.0240
 4761SOL    HW121333   7.101   3.081   9.508 -0.5710  0.0204 -0.3492
 4761SOL    HW221334   7.142   3.163   9.388 -0.1956 -0.6562 -0.6903
 4762SOL     OW21335   4.796  10.143   4.098 -0.7463  0.0846 -0.4771
 4762SOL    HW121336   4.818  10.218   4.043  1.3675 -0.6573 -0.7155
 4762SOL    HW221337   4.714  10.168   4.142 -0.5688  2.1262 -1.2436
 4763SOL     OW21338   3.340   5.290   9.483 -0.6071  0.1242  0.0398
 4763SOL    HW121339   3.393   5.320   9.410  1.2816 -0.1059  1.2425
 4763SOL    HW221340   3.404   5.264   9.550 -2.2397 -0.8543  1.2953
 4764SOL     OW21341   3.526   5.162   9.667  0.0879 -0.3259  0.3180
 4764SOL    HW121342   3.520   5.154   9.762  0.9129  0.6758  0.4783
 4764SOL    HW221343   3.610   5.122   9.646  0.1304 -0.1081  0.0739
 4765SOL     OW21344  12.493   1.366   2.468  0.2140  0.0089  0.3036
 4765SOL    HW121345  12.438   1.444   2.461 -0.3553 -0.5087 -2.0830
 4765SOL    HW221346  12.431   1.294   2.481  0.6244 -0.2057  1.1234
 4766SOL     OW21347   9.385  10.156   4.773 -0.0020  0.1230 -0.3037
 4766SOL    HW121348   9.368  10.078   4.721 -1.0734  0.4225 -0.4195
 4766SOL    HW221349   9.383  10.125   4.863 -0.6555  0.0476 -0.3378
 4767SOL     OW21350   3.820   3.435   6.346  0.0760 -0.6272  0.1870
 4767SOL    HW121351   3.845   3.381   6.271 -2.0583  0.5057 -1.4436
 4767SOL    HW221352   3.833   3.525   6.316 -2.0149 -0.1096  0.6463
 4768SOL     OW21353   1.001   5.350  12.552 -0.7477  0.1693 -0.0369
 4768SOL    HW121354   0.922   5.352  12.606  0.4337  0.6273  1.7604
 4768SOL    HW221355   1.032   5.260  12.558 -0.0634  0.4562  0.9244
 4769SOL     OW21356   1.052   6.224   3.918 -0.7973 -0.5316  0.3600
 4769SOL    HW121357   1.012   6.188   3.839 -1.3518 -0.0931  0.4342
 4769SOL    HW221358   1.133   6.174   3.929 -0.4153 -0.2149 -0.8137
 4770SOL     OW21359   8.681   7.177  10.128 -0.1311  0.5294 -0.3480
 4770SOL    HW121360   8.617   7.221  10.183  0.5080  1.5999 -0.4265
 4770SOL    HW221361   8.750   7.149  10.188 -0.1454  0.3742 -0.4038
 4771SOL     OW21362   6.552   8.189  11.149 -0.4355  0.0314 -0.1736
 4771SOL    HW121363   6.517   8.196  11.238 -1.5324  0.1610 -0.5988
 4771SOL    HW221364   6.484   8.226  11.094 -0.5788 -1.6928 -1.2371
 4772SOL     OW21365   2.015   5.442  10.792 -0.7608 -0.5663  0.4825
 4772SOL    HW121366   2.011   5.348  10.810 -0.2672 -0.6389  0.2389
 4772SOL    HW221367   1.946   5.480  10.846 -1.7534 -1.2002 -0.3273
 4773SOL     OW21368   0.039   2.495   7.627  0.3542  0.0503 -0.0020
 4773SOL    HW121369   0.120   2.539   7.654 -0.2681  0.8165  0.6223
 4773SOL    HW221370   0.027   2.426   7.693  1.0845 -0.7832 -0.7233
 4774SOL     OW21371   1.228   9.231  11.778  0.0367  0.2506 -0.2382
 4774SOL    HW121372   1.317   9.194  11.783  0.5296  1.2363 -1.0985
 4774SOL    HW221373   1.207   9.255  11.868  0.1216 -1.1477  0.1736
 4775SOL     OW21374   8.653  11.023   5.584 -0.3062 -0.4846  0.6252
 4775SOL    HW121375   8.633  10.930   5.583 -0.3972 -0.4648  0.1918
 4775SOL    HW221376   8.682  11.041   5.673 -0.8698 -0.8010  0.8772
 4776SOL     OW21377  12.451  11.225   7.614 -0.1110 -0.5279 -0.6253
 4776SOL    HW121378  12.451  11.200   7.706 -2.7304  1.6397  0.0995
 4776SOL    HW221379  12.367  11.193   7.580  0.3526 -0.3872 -1.9987
 4777SOL     OW21380   2.107   8.209   0.482  0.2867  0.3772  0.1348
 4777SOL    HW121381   2.103   8.113   0.481  0.3369  0.3274 -2.2399
 4777SOL    HW221382   2.079   8.233   0.570  3.9363 -1.8970  2.1676
 4778SOL     OW21383   5.507  11.332  11.160 -0.0033  0.2164  0.1100
 4778SOL    HW121384   5.465  11.309  11.243  1.2029 -1.2640  0.3628
 4778SOL    HW221385   5.461  11.280  11.095 -1.7777  2.2931 -0.4157
 4779SOL     OW21386   2.644   2.614   9.263 -0.2801  0.1860  0.2857
 4779SOL    HW121387   2.697   2.596   9.186  1.5502 -1.7452  1.8527
 4779SOL    HW221388   2.707   2.647   9.327 -1.2024 -0.8098  1.7729
 4780SOL     OW21389  11.241   5.767   0.569  0.7176  0.4001  0.6669
 4780SOL    HW121390  11.242   5.676   0.599  0.1341 -0.2213 -1.0300
 4780SOL    HW221391  11.235   5.760   0.474  1.0269  2.2322  0.4799
 4781SOL     OW21392   8.172   8.975   4.004  0.3463  0.0353 -0.2703
 4781SOL    HW121393   8.245   8.923   4.039  1.4261  1.1031 -0.8557
 4781SOL    HW221394   8.153   8.934   3.919 -1.2690 -1.6234  0.8324
 4782SOL     OW21395   6.372   3.966   3.329 -0.2642 -0.4664  0.0868
 4782SOL    HW121396   6.310   3.961   3.402 -0.8376 -1.1899 -0.4313
 4782SOL    HW221397   6.449   4.008   3.366 -1.2917  1.0945  0.5863
 4783SOL     OW21398   5.868   0.483   3.070  0.3493 -0.3447  0.1342
 4783SOL    HW121399   5.940   0.486   3.134  0.7510 -0.2089 -0.3138
 4783SOL    HW221400   5.843   0.575   3.058 -0.8461 -0.4959  1.3273
 4784SOL     OW21401   8.815   8.891   8.596 -0.1835 -0.0837 -0.2982
 4784SOL    HW121402   8.903   8.854   8.603 -0.3723 -0.5297 -0.2588
 4784SOL    HW221403   8.829   8.979   8.561  0.4886  0.7788  1.9601
 4785SOL     OW21404   8.065   0.583  11.804 -0.4199  0.0572 -0.4305
 4785SOL    HW121405   7.973   0.609  11.794 -0.4725  0.2938  0.5362
 4785SOL    HW221406   8.095   0.567  11.715 -1.3908  0.0044 -0.7662
 4786SOL     OW21407   3.479   4.977   0.926  0.0885 -0.0022  0.1123
 4786SOL    HW121408   3.562   4.979   0.974 -0.3480  0.6429  0.8792
 4786SOL    HW221409   3.469   5.066   0.893 -0.9234  0.3148  1.1820
 4787SOL     OW21410   4.599   6.743   0.979  0.1123  0.1340 -0.0969
 4787SOL    HW121411   4.690   6.717   0.996 -0.0528  0.2630  0.9908
 4787SOL    HW221412   4.605   6.797   0.900  1.1419  1.0807  0.5943
 4788SOL     OW21413   6.960   9.627   9.835 -0.1304 -0.3740 -0.1981
 4788SOL    HW121414   6.903   9.631   9.758 -0.2822 -0.8439 -0.1118
 4788SOL    HW221415   7.049   9.633   9.799 -0.2241  2.5183 -0.1969
 4789SOL     OW21416  11.436   4.826   5.231 -0.3372 -0.4996  0.0502
 4789SOL    HW121417  11.470   4.749   5.186  1.0886 -0.0171  0.2829
 4789SOL    HW221418  11.448   4.806   5.324 -2.3655 -1.0761  0.2385
 4790SOL     OW21419  12.089  10.369   4.132  0.4004 -0.0158  0.6408
 4790SOL    HW121420  12.086  10.453   4.177  1.8302  0.0947  0.5802
 4790SOL    HW221421  12.037  10.382   4.053  3.1005  1.9093 -1.0187
 4791SOL     OW21422   7.634   8.567   8.887  0.3762 -0.8401 -0.5199
 4791SOL    HW121423   7.579   8.603   8.817 -1.5615  0.5973  1.5953
 4791SOL    HW221424   7.623   8.472   8.879  0.1409 -0.7096 -2.0835
 4792SOL     OW21425   1.823   1.274   8.946 -0.0061 -0.3258 -0.2635
 4792SOL    HW121426   1.866   1.254   8.863  1.9023 -1.4550  0.9432
 4792SOL    HW221427   1.798   1.366   8.938 -3.5182 -1.3258 -3.5870
 4793SOL     OW21428   4.549   1.929   5.532  0.0179  0.1975  0.2546
 4793SOL    HW121429   4.638   1.931   5.567  0.2391 -0.1389 -0.2825
 4793SOL    HW221430   4.547   1.996   5.465  0.0869 -0.3031 -0.2521
 4794SOL     OW21431   8.906  10.903  11.334 -0.2394 -0.4629 -0.0764
 4794SOL    HW121432   8.817  10.893  11.367  0.0912 -0.5774  0.7974
 4794SOL    HW221433   8.953  10.951  11.403  0.2346  0.1067 -0.7705
 4795SOL     OW21434   1.402  11.523  11.735  0.3027  0.1309 -0.1150
 4795SOL    HW121435   1.312  11.541  11.761  0.5191 -1.1660  1.6502
 4795SOL    HW221436   1.395  11.462  11.662 -0.2437  1.0092 -0.8173
 4796SOL     OW21437  11.761   7.232  11.331  0.5306  0.8992 -0.2916
 4796SOL    HW121438  11.840   7.282  11.312  0.5908  0.2731 -1.9172
 4796SOL    HW221439  11.786   7.173  11.401  2.2038 -0.7021 -2.1078
 4797SOL     OW21440   9.802   5.261   0.883 -0.2263 -0.2068  0.1827
 4797SOL    HW121441   9.844   5.300   0.959  2.0558 -2.1620  0.0301
 4797SOL    HW221442   9.864   5.274   0.811 -1.5141 -0.0152 -0.9354
 4798SOL     OW21443   9.154   1.361  10.734  0.1191  0.1553  0.4004
 4798SOL    HW121444   9.188   1.420  10.667  0.1575  0.9709  1.1147
 4798SOL    HW221445   9.115   1.419  10.799  1.1116 -0.5425  1.6610
 4799SOL     OW21446   4.475  10.440   3.979 -0.6925  0.0423  0.1832
 4799SOL    HW121447   4.461  10.443   3.884 -0.1322 -0.8753  0.0682
 4799SOL    HW221448   4.390  10.416   4.015 -0.5356 -1.1221 -0.2009
 4800SOL     OW21449  12.114   3.929   1.192  0.2603  0.4007  0.2664
 4800SOL    HW121450  12.066   3.971   1.263 -0.7603 -0.1492 -0.0865
 4800SOL    HW221451  12.195   3.980   1.185  0.5131  0.3022  1.9847
 4801SOL     OW21452   4.911   9.448   9.201  0.3542  0.0307  0.0751
 4801SOL    HW121453   4.986   9.390   9.217 -0.9291 -2.6239 -2.6235
 4801SOL    HW221454   4.945   9.513   9.139  0.5565 -0.9320 -0.8472
 4802SOL     OW21455  10.267   7.004   1.755 -0.2882  0.3862  0.4029
 4802SOL    HW121456  10.189   6.975   1.707  1.6538 -0.3949 -2.5822
 4802SOL    HW221457  10.300   7.077   1.704  1.2732  0.2772  1.2223
 4803SOL     OW21458   4.664   4.439  12.449  0.2483 -0.1576 -0.7794
 4803SOL    HW121459   4.696   4.395  12.528 -0.9413 -1.1034 -0.7868
 4803SOL    HW221460   4.742   4.478  12.410  0.7219  1.3328  1.4381
 4804SOL     OW21461   5.866   1.870   5.550 -0.2431 -0.1232  0.2795
 4804SOL    HW121462   5.944   1.817   5.536  0.0642  0.2884  0.4151
 4804SOL    HW221463   5.856   1.921   5.469 -1.0922 -1.0777 -0.2411
 4805SOL     OW21464   2.035   3.767   9.973  0.3518 -0.4346  0.0881
 4805SOL    HW121465   2.004   3.854   9.949  1.0503  0.3134  1.7197
 4805SOL    HW221466   1.957   3.722  10.005 -0.1146 -0.6236 -1.2573
 4806SOL     OW21467   6.235   2.229   7.978  0.0878 -0.7323 -0.2049
 4806SOL    HW121468   6.277   2.240   7.892  1.3245  1.2700  0.5747
 4806SOL    HW221469   6.197   2.315   7.997 -2.0727 -1.7456  0.3492
 4807SOL     OW21470   5.256  11.358  12.410  0.1794  0.4896  0.2119
 4807SOL    HW121471   5.228  11.325  12.324  0.0199  1.8859 -0.3050
 4807SOL    HW221472   5.300  11.441  12.390  0.1146  0.8486  1.4958
 4808SOL     OW21473   1.680   5.816   0.797 -0.0445 -0.8683 -0.3237
 4808SOL    HW121474   1.665   5.727   0.828 -3.4273 -0.4257 -0.3348
 4808SOL    HW221475   1.628   5.871   0.856  3.0368  1.3724  0.5895
 4809SOL     OW21476   1.564   9.863   2.432  0.0495  0.0447 -0.0802
 4809SOL    HW121477   1.616   9.840   2.355  2.1644 -1.4688  1.6382
 4809SOL    HW221478   1.546   9.779   2.475 -0.9651  0.8306  1.1190
 4810SOL     OW21479  12.409   7.286  11.606  0.7280 -0.0849 -0.3150
 4810SOL    HW121480  12.358   7.320  11.532 -0.4748 -1.0999  0.0084
 4810SOL    HW221481  12.402   7.355  11.673  0.4612  0.1364 -0.5674
 4811SOL     OW21482   8.561   9.197   3.480 -0.3229 -0.1058  0.5631
 4811SOL    HW121483   8.641   9.164   3.521 -0.3612 -1.2262 -0.2351
 4811SOL    HW221484   8.590   9.269   3.424  0.1389 -0.5269  0.2512
 4812SOL     OW21485  11.971  12.576   5.215 -0.2178  0.7879  0.5665
 4812SOL    HW121486  11.901  12.532   5.263  0.6852 -1.8967 -0.3909
 4812SOL    HW221487  11.956  12.551   5.123  0.2753  2.6810 -0.0712
 4813SOL     OW21488   1.833   0.982   6.542  0.0435 -0.4705 -0.2438
 4813SOL    HW121489   1.913   0.938   6.515  0.1098 -0.5813  0.1268
 4813SOL    HW221490   1.782   0.914   6.586  0.0416 -0.2384  0.1184
 4814SOL     OW21491   8.885   6.673   5.333 -0.2300 -0.1151 -0.2917
 4814SOL    HW121492   8.972   6.676   5.294  0.1908  2.6438  0.6705
 4814SOL    HW221493   8.826   6.677   5.257  0.5547  1.4777 -0.8829
 4815SOL     OW21494   4.672   0.153   1.612 -0.3034 -0.1459 -0.0019
 4815SOL    HW121495   4.642   0.112   1.694  1.2639 -0.7043  0.3194
 4815SOL    HW221496   4.591   0.170   1.563 -1.2023 -0.7180  1.2298
 4816SOL     OW21497   0.468   3.989   4.772  0.5118  0.5837 -0.1165
 4816SOL    HW121498   0.519   4.059   4.731 -1.0828  1.7621 -0.1980
 4816SOL    HW221499   0.482   4.002   4.866 -0.4437  1.5900 -0.0903
 4817SOL     OW21500   6.208   4.315   8.734  0.2352  0.4184 -0.2566
 4817SOL    HW121501   6.206   4.309   8.639 -1.3398  0.1674 -0.2343
 4817SOL    HW221502   6.290   4.272   8.759  1.0067  1.1201 -1.5180
 4818SOL     OW21503  10.386  10.926  11.554  0.3727  0.1840  0.2762
 4818SOL    HW121504  10.309  10.949  11.606  0.1220 -1.1242  0.5278
 4818SOL    HW221505  10.388  10.830  11.555  1.5582  0.1775 -0.3927
 4819SOL     OW21506   6.379   4.091   1.982 -0.2731  0.7116  0.8969
 4819SOL    HW121507   6.335   4.165   1.940  0.6230  1.5706  1.4073
 4819SOL    HW221508   6.384   4.116   2.074 -0.6609 -0.3602  1.2229
 4820SOL     OW21509   5.161   2.189  10.944  0.2087 -0.1158  0.5201
 4820SOL    HW121510   5.103   2.193  10.868  0.5978  0.0436  0.2261
 4820SOL    HW221511   5.133   2.111  10.991  0.2068 -0.4293  0.0074
 4821SOL     OW21512   4.018  11.301   1.970  0.1766 -0.0005  0.5888
 4821SOL    HW121513   4.004  11.293   2.065  0.9239 -2.1415  0.5688
 4821SOL    HW221514   4.112  11.292   1.958  0.3185  2.1086 -0.2527
 4822SOL     OW21515   8.820  12.334   0.913  0.3901  0.4953 -0.1935
 4822SOL    HW121516   8.897  12.323   0.970  0.2230 -1.2086 -0.2439
 4822SOL    HW221517   8.848  12.399   0.848  1.1309  1.2894  0.8735
 4823SOL     OW21518   3.631  10.090  11.171  0.2108 -0.1285 -0.2353
 4823SOL    HW121519   3.677  10.150  11.113  2.1056  1.2215  2.4422
 4823SOL    HW221520   3.700  10.056  11.229 -1.8305  0.4680  2.7200
 4824SOL     OW21521  10.621   3.554   9.471  0.4188 -0.2782  0.0482
 4824SOL    HW121522  10.630   3.553   9.567  1.1945  0.4066 -0.0013
 4824SOL    HW221523  10.710   3.545   9.439  0.4541  1.7771 -0.5693
 4825SOL     OW21524   6.764   8.340  10.250  0.1617 -0.5171  0.4188
 4825SOL    HW121525   6.835   8.317  10.190  0.4430 -0.4192  0.7042
 4825SOL    HW221526   6.809   8.355  10.334 -0.2529 -0.9037  0.7111
 4826SOL     OW21527   5.124   1.498   6.499  0.3211 -0.6515  0.1007
 4826SOL    HW121528   5.174   1.477   6.420 -0.0791 -0.3764 -0.2358
 4826SOL    HW221529   5.033   1.481   6.475  0.1732 -0.3415  0.4266
 4827SOL     OW21530   0.421   0.191   8.679 -0.1694 -0.0500  0.2061
 4827SOL    HW121531   0.370   0.262   8.718  1.4743  0.8807  0.7564
 4827SOL    HW221532   0.494   0.235   8.637 -1.1315 -1.1403 -2.8167
 4828SOL     OW21533  12.037   4.134   0.665  0.1626 -0.0380  0.0757
 4828SOL    HW121534  12.054   4.089   0.582 -2.8669  0.6608 -1.0920
 4828SOL    HW221535  12.101   4.205   0.667 -0.6678  0.9602 -2.6195
 4829SOL     OW21536   7.974   8.456   8.315  0.1990 -0.3568  0.3114
 4829SOL    HW121537   8.057   8.448   8.267 -0.4679 -2.5410 -0.6192
 4829SOL    HW221538   7.969   8.376   8.367 -0.5823  0.5186  1.6275
 4830SOL     OW21539   7.724   7.398  11.280 -0.0117  0.1086 -0.3688
 4830SOL    HW121540   7.721   7.447  11.197 -2.3785 -0.6755 -0.8451
 4830SOL    HW221541   7.816   7.398  11.305  0.4508  2.4531 -1.7354
 4831SOL     OW21542   6.914  10.626   8.834  0.3321  0.2835 -0.1496
 4831SOL    HW121543   6.963  10.557   8.789  2.4883  2.0909 -0.7663
 4831SOL    HW221544   6.981  10.674   8.882 -1.2708  1.3073  1.1399
 4832SOL     OW21545   3.690   8.629   3.307  0.0456  0.3483 -0.0765
 4832SOL    HW121546   3.619   8.688   3.283  1.4544  1.7542 -1.0185
 4832SOL    HW221547   3.761   8.688   3.336  0.4608 -1.0388  1.9399
 4833SOL     OW21548   5.884   6.001   0.285 -0.0550  0.0992  0.9665
 4833SOL    HW121549   5.841   6.032   0.206  0.1594 -0.0021  0.8084
 4833SOL    HW221550   5.812   5.982   0.346 -0.1982  0.6364  0.9678
 4834SOL     OW21551   2.996   9.891   3.685  0.1353  0.2412 -0.0192
 4834SOL    HW121552   3.003   9.953   3.611  0.2973  0.6278  0.3131
 4834SOL    HW221553   3.026   9.808   3.649  0.8414  0.5719 -0.2184
 4835SOL     OW21554  12.200   9.212   3.717  0.2878  1.1248  0.1979
 4835SOL    HW121555  12.236   9.209   3.629 -1.1147  1.2750 -0.4103
 4835SOL    HW221556  12.213   9.303   3.745  1.4392  0.8878  0.4713
 4836SOL     OW21557   0.358   4.626   8.369 -0.3660 -0.5627 -0.1578
 4836SOL    HW121558   0.453   4.610   8.361 -0.0998 -1.0258  2.7532
 4836SOL    HW221559   0.324   4.547   8.411 -1.9651 -0.1428 -0.5985
 4837SOL     OW21560   6.843  12.308   9.539  0.6767  0.0304 -0.3101
 4837SOL    HW121561   6.849  12.319   9.634 -1.3070 -1.1594  0.0126
 4837SOL    HW221562   6.930  12.280   9.512  1.6120  1.5821  0.9639
 4838SOL     OW21563  10.118   2.541   0.610  0.2896 -0.6233  0.2037
 4838SOL    HW121564  10.208   2.553   0.642  0.5753  1.4140 -1.1372
 4838SOL    HW221565  10.128   2.495   0.527  0.0516 -0.7221  0.2289
 4839SOL     OW21566   6.037   5.660   8.255 -0.0641 -0.2609 -0.7301
 4839SOL    HW121567   6.064   5.617   8.173 -0.6389 -0.5272 -0.7874
 4839SOL    HW221568   5.959   5.612   8.282 -0.5978  0.6189 -0.6793
 4840SOL     OW21569  10.781   3.663   6.326  0.0584  0.5822  0.5477
 4840SOL    HW121570  10.784   3.590   6.388 -2.0717  0.4216  0.5650
 4840SOL    HW221571  10.798   3.740   6.380  1.4762  0.1821  0.6929
 4841SOL     OW21572   4.633   7.931  10.032 -0.0918 -0.3576  0.0317
 4841SOL    HW121573   4.538   7.946  10.032 -0.1972 -0.9720  0.3888
 4841SOL    HW221574   4.652   7.900   9.943  0.1522  1.8866 -0.7640
 4842SOL     OW21575   4.181  11.303   4.727  0.2037 -0.1213  0.0274
 4842SOL    HW121576   4.208  11.394   4.734 -0.4974  0.1073 -0.1135
 4842SOL    HW221577   4.092  11.308   4.691  0.9056 -0.9193 -1.9583
 4843SOL     OW21578   6.832   2.461   0.475  0.2986  0.4156 -0.1943
 4843SOL    HW121579   6.914   2.507   0.492  0.1825  0.6690 -0.3056
 4843SOL    HW221580   6.827   2.455   0.379  0.6355 -0.4208 -0.1643
 4844SOL     OW21581  11.311   1.312   4.793  0.3852 -0.1428 -0.2164
 4844SOL    HW121582  11.310   1.393   4.742 -0.4126 -0.1239 -0.1824
 4844SOL    HW221583  11.220   1.282   4.792  1.0490 -2.3463 -2.2736
 4845SOL     OW21584  10.012   5.538   7.983 -0.0817 -0.2727 -0.1784
 4845SOL    HW121585  10.000   5.514   8.075 -0.3375 -1.0172 -0.3959
 4845SOL    HW221586   9.925   5.565   7.954  0.4916  2.7724  0.5275
 4846SOL     OW21587   4.138   8.603   3.444 -0.3925 -0.2988  0.5428
 4846SOL    HW121588   4.132   8.685   3.397 -1.0758 -0.4176  0.4183
 4846SOL    HW221589   4.219   8.562   3.412 -1.6324 -1.1361 -1.7559
 4847SOL     OW21590   5.644   0.437   9.370  0.2922  0.2745  0.1544
 4847SOL    HW121591   5.730   0.478   9.384  1.0650 -1.3583  0.3574
 4847SOL    HW221592   5.646   0.408   9.279 -0.1873  0.5179  0.0622
 4848SOL     OW21593   1.686   3.765   3.877  0.2515 -0.1693  0.0159
 4848SOL    HW121594   1.723   3.790   3.793  1.3627 -0.0164  0.5392
 4848SOL    HW221595   1.592   3.757   3.860  0.3255  0.8501 -0.9976
 4849SOL     OW21596   1.940   5.502   2.545  0.0423  0.9085  0.5543
 4849SOL    HW121597   1.942   5.406   2.541  0.4066  0.9535 -0.8252
 4849SOL    HW221598   1.912   5.522   2.635 -3.2844 -0.5005 -0.0243
 4850SOL     OW21599   5.468   0.387   9.585  0.0031 -0.9005 -0.2957
 4850SOL    HW121600   5.532   0.403   9.515  0.3494 -0.2751  0.1544
 4850SOL    HW221601   5.405   0.459   9.576  0.0184 -0.8496  0.0084
 4851SOL     OW21602  10.420   8.758   6.062 -0.5519  0.1597  0.3247
 4851SOL    HW121603  10.335   8.723   6.035 -0.3287 -0.6468  0.6435
 4851SOL    HW221604  10.399   8.837   6.112 -0.9981  1.3973 -1.7092
 4852SOL     OW21605   4.235  11.276   6.295  0.4052  0.0070  0.0852
 4852SOL    HW121606   4.310  11.237   6.251  0.8248  2.6676 -1.7922
 4852SOL    HW221607   4.209  11.350   6.239 -3.0369 -0.2084  1.1307
 4853SOL     OW21608   5.078   9.198   7.283  0.0619 -0.2054 -0.5324
 4853SOL    HW121609   5.142   9.136   7.317 -0.0210  0.4926  0.9609
 4853SOL    HW221610   5.128   9.279   7.270 -0.2535 -0.0111 -0.5476
 4854SOL     OW21611  11.070   3.336   0.289  0.4330 -0.6162 -1.2616
 4854SOL    HW121612  11.115   3.310   0.370 -0.1733 -1.2511 -1.1203
 4854SOL    HW221613  11.139   3.337   0.223  1.0820  0.6658 -0.5938
 4855SOL     OW21614   4.251   2.532  10.470 -0.3325 -0.7208  0.1226
 4855SOL    HW121615   4.185   2.596  10.443  0.6857  0.2354 -0.1293
 4855SOL    HW221616   4.288   2.499  10.388  1.7857  1.1712  0.2349
 4856SOL     OW21617   1.650   6.875   2.986 -0.2717  0.3241 -0.0047
 4856SOL    HW121618   1.625   6.840   3.072  0.8645  1.4752  0.8336
 4856SOL    HW221619   1.613   6.963   2.985  0.0190  0.4438 -0.5564
 4857SOL     OW21620   7.006   1.648   6.728  0.1635  0.2807 -0.0119
 4857SOL    HW121621   7.085   1.702   6.727  0.6299 -0.3733 -0.7980
 4857SOL    HW221622   6.979   1.644   6.820  1.3310  0.1269  0.3392
 4858SOL     OW21623   3.723   1.366   1.230 -0.4085 -0.0282  0.1965
 4858SOL    HW121624   3.713   1.459   1.249  1.4332 -0.0660  1.7448
 4858SOL    HW221625   3.634   1.334   1.216 -1.0405  2.0445 -0.9363
 4859SOL     OW21626   1.796   0.057   8.005  0.0006  0.4938  0.2877
 4859SOL    HW121627   1.737  -0.017   8.022 -1.4466  1.6806  0.6954
 4859SOL    HW221628   1.832   0.078   8.091  1.4541 -0.5213 -0.0299
 4860SOL     OW21629   3.923   9.263   2.951  0.5528 -0.1619 -0.0110
 4860SOL    HW121630   3.831   9.239   2.948  0.2411  0.9368  0.2686
 4860SOL    HW221631   3.968   9.184   2.980 -0.1607 -1.0433 -1.2095
 4861SOL     OW21632   4.009   8.068  10.149 -0.7314  0.1288  0.6234
 4861SOL    HW121633   4.050   8.049  10.065  0.3979  1.2870  0.8739
 4861SOL    HW221634   3.998   8.163  10.149  0.9947  0.4028  2.4896
 4862SOL     OW21635   2.578   3.142   3.179 -0.1226  0.2030 -0.2871
 4862SOL    HW121636   2.483   3.143   3.186 -0.2034  0.4456 -1.3965
 4862SOL    HW221637   2.597   3.164   3.088  1.0387  1.4629  0.2185
 4863SOL     OW21638   0.242   6.748  12.306  0.2806  0.0795 -0.3992
 4863SOL    HW121639   0.181   6.822  12.310  0.5855  0.2865  1.7311
 4863SOL    HW221640   0.276   6.750  12.217 -1.8798  0.7169 -1.2874
 4864SOL     OW21641   5.656   4.456   2.927 -0.4244  0.2242 -0.7659
 4864SOL    HW121642   5.566   4.424   2.934 -0.3441  0.2671  0.9513
 4864SOL    HW221643   5.709   4.390   2.971  0.1971  0.9115 -0.4570
 4865SOL     OW21644  12.519   6.676   7.143 -0.0567 -0.1167  0.2587
 4865SOL    HW121645  12.603   6.704   7.177 -0.8134  1.9057  0.5970
 4865SOL    HW221646  12.469   6.650   7.221  0.7958 -3.1083 -0.0821
 4866SOL     OW21647   3.278  11.167   7.432  0.0229 -0.2606  0.3966
 4866SOL    HW121648   3.316  11.196   7.349 -0.8646 -0.2748 -0.0296
 4866SOL    HW221649   3.336  11.097   7.462  1.1653  0.6997  0.5281
 4867SOL     OW21650   5.525   0.060   5.129  0.0309  0.0095  0.6728
 4867SOL    HW121651   5.605   0.090   5.173  0.6273 -2.4265  1.4232
 4867SOL    HW221652   5.556   0.000   5.061 -1.0699  1.1500 -0.8937
 4868SOL     OW21653   9.876  12.056  12.410  0.0817 -0.4425  0.1596
 4868SOL    HW121654   9.824  12.001  12.352  2.3876 -1.8939 -0.6301
 4868SOL    HW221655   9.876  12.142  12.368  0.3609 -1.0566 -1.1499
 4869SOL     OW21656   8.454   2.390   1.538  0.4902  0.0487 -0.0827
 4869SOL    HW121657   8.430   2.397   1.630  2.2513 -1.6526  0.5833
 4869SOL    HW221658   8.526   2.452   1.526  0.0801  0.4697 -0.3955
 4870SOL     OW21659   8.349   3.240  11.390  0.4725  0.1372 -0.5017
 4870SOL    HW121660   8.408   3.245  11.464 -0.1510  1.7380 -0.0468
 4870SOL    HW221661   8.310   3.153  11.395 -0.4378  0.6063  1.7857
 4871SOL     OW21662  10.323  11.612   6.435  0.0079  0.8110 -0.3335
 4871SOL    HW121663  10.236  11.646   6.412 -0.8336 -0.4801  0.7576
 4871SOL    HW221664  10.308  11.562   6.515  1.4949 -0.5813 -0.8733
 4872SOL     OW21665   2.355  12.165   5.517  0.0764  0.1825  0.2121
 4872SOL    HW121666   2.387  12.250   5.487 -0.1854  0.5066  0.8405
 4872SOL    HW221667   2.287  12.186   5.581 -1.2670 -0.4844 -0.9423
 4873SOL     OW21668   1.084   2.368  12.242 -0.0442 -0.3833 -0.2022
 4873SOL    HW121669   1.180   2.369  12.249 -0.1835 -0.4254  3.9798
 4873SOL    HW221670   1.055   2.431  12.308 -2.9091 -2.4905  0.7062
 4874SOL     OW21671   2.265   6.153  11.907  0.3205 -0.1545 -0.5309
 4874SOL    HW121672   2.221   6.217  11.962  0.7598 -0.1645 -0.1643
 4874SOL    HW221673   2.306   6.092  11.968  0.4449 -0.4164 -0.8715
 4875SOL     OW21674   8.282   1.407   5.694 -0.2435 -0.6745  0.1991
 4875SOL    HW121675   8.374   1.432   5.701 -0.5434  0.2858  0.9184
 4875SOL    HW221676   8.242   1.443   5.772 -1.6521  0.8157 -1.1324
 4876SOL     OW21677   2.129   2.661   1.844 -0.1010 -0.1189 -0.2299
 4876SOL    HW121678   2.045   2.692   1.877  0.6205  1.1118  0.5129
 4876SOL    HW221679   2.174   2.740   1.815  1.7726 -0.4046  1.6431
 4877SOL     OW21680   2.785  12.388  10.431  0.1933  0.3112  0.1877
 4877SOL    HW121681   2.868  12.419  10.395  0.7613  2.7662  3.1686
 4877SOL    HW221682   2.808  12.350  10.516 -1.7106  1.3261  1.2231
 4878SOL     OW21683   6.076   6.535   0.363  0.2736  0.2291  0.2292
 4878SOL    HW121684   5.983   6.551   0.374  0.2781 -0.8233  2.4633
 4878SOL    HW221685   6.088   6.442   0.387  2.0683  0.7543  1.6463
 4879SOL     OW21686  10.429   9.631   0.406  0.6539 -0.4469 -0.1520
 4879SOL    HW121687  10.499   9.692   0.427 -0.5706  0.4023  1.6712
 4879SOL    HW221688  10.407   9.590   0.489 -2.3655  0.8119 -0.2085
 4880SOL     OW21689  11.433   8.817   3.508  0.2935  0.1478  0.7571
 4880SOL    HW121690  11.440   8.812   3.603  1.5734 -0.1078  0.6760
 4880SOL    HW221691  11.507   8.872   3.481  0.6169 -0.7007 -0.1552
 4881SOL     OW21692   5.355  10.365   5.029  0.3813  0.3264 -0.0302
 4881SOL    HW121693   5.288  10.331   5.087 -0.5963 -1.9133 -2.2857
 4881SOL    HW221694   5.327  10.455   5.009 -0.8609  0.0854  0.5716
 4882SOL     OW21695   7.613   0.539   3.463  0.1469  0.3831 -0.3185
 4882SOL    HW121696   7.687   0.527   3.523 -0.4978 -0.4000  0.3402
 4882SOL    HW221697   7.649   0.515   3.377  1.3151  2.3216 -0.4409
 4883SOL     OW21698   2.173   2.554   5.987 -0.3729  0.3880 -0.3537
 4883SOL    HW121699   2.220   2.484   5.941 -1.5624  0.1879 -1.3069
 4883SOL    HW221700   2.241   2.599   6.038  0.7127 -0.3642 -1.0929
 4884SOL     OW21701  10.651   2.462  12.421 -0.5331  0.1707 -0.2080
 4884SOL    HW121702  10.592   2.426  12.486  0.7977 -0.5228  0.6574
 4884SOL    HW221703  10.678   2.547  12.457  0.9639 -0.6390  0.6678
 4885SOL     OW21704   5.705  11.117   1.039 -0.2741 -0.3232  0.5858
 4885SOL    HW121705   5.701  11.160   1.124 -2.0382 -1.1934  0.9769
 4885SOL    HW221706   5.737  11.029   1.058 -1.1501 -0.6832  0.4402
 4886SOL     OW21707   2.236   3.460   0.505 -0.3545  0.3309 -0.2454
 4886SOL    HW121708   2.259   3.552   0.517  0.1194 -0.0119  1.8353
 4886SOL    HW221709   2.160   3.445   0.562 -0.1755 -0.6416 -0.2327
 4887SOL     OW21710  12.118   7.279  11.957  0.0500 -0.1928  0.5254
 4887SOL    HW121711  12.137   7.242  11.871 -0.0615  0.3185  0.2778
 4887SOL    HW221712  12.029   7.251  11.976  0.2863 -0.8045  0.7397
 4888SOL     OW21713   8.844   5.460   4.037  0.5450  0.3265  0.1647
 4888SOL    HW121714   8.761   5.501   4.013  0.3851  0.0098  0.1745
 4888SOL    HW221715   8.864   5.495   4.124 -0.5970 -1.1225  1.0529
 4889SOL     OW21716   4.688   6.334   6.155 -0.4670  0.6910 -0.3701
 4889SOL    HW121717   4.667   6.427   6.144 -1.6431  0.3425 -1.3664
 4889SOL    HW221718   4.666   6.315   6.246  1.0170  1.6673  0.2178
 4890SOL     OW21719   7.913   3.888   3.864 -0.4631  0.1739  0.2473
 4890SOL    HW121720   7.957   3.806   3.842 -0.5741  0.4557 -1.1508
 4890SOL    HW221721   7.961   3.954   3.814 -1.2348  0.7536  0.2620
 4891SOL     OW21722   2.018   7.242  11.291  0.0938  0.5869  0.5512
 4891SOL    HW121723   2.072   7.177  11.245 -0.4619  1.4203 -1.3511
 4891SOL    HW221724   1.956   7.190  11.342  0.9138 -0.3617  0.6186
 4892SOL     OW21725  11.455  12.144   0.338  0.5398 -0.0297 -0.4786
 4892SOL    HW121726  11.389  12.205   0.305  1.1658 -0.9127 -3.6092
 4892SOL    HW221727  11.523  12.144   0.271  3.3630  0.1245  2.1844
 4893SOL     OW21728  10.181   3.917   7.679  0.0895 -0.0394  0.2257
 4893SOL    HW121729  10.224   3.997   7.650  0.0087  0.2069  0.7680
 4893SOL    HW221730  10.219   3.848   7.625  0.2144  0.3520 -0.1956
 4894SOL     OW21731   1.190   1.245   5.893 -0.3499  0.8137 -0.5176
 4894SOL    HW121732   1.209   1.338   5.882  1.6147  0.5864  0.5565
 4894SOL    HW221733   1.121   1.242   5.960 -0.2522  1.4747 -0.3858
 4895SOL     OW21734   2.028  12.024   5.483  0.3706 -0.0244 -0.2892
 4895SOL    HW121735   2.020  11.928   5.483  0.2897 -0.0234  0.3802
 4895SOL    HW221736   2.116  12.040   5.449  0.8050 -0.3898  0.6291
 4896SOL     OW21737   1.456   4.028   0.213 -0.0151 -0.3152  0.2671
 4896SOL    HW121738   1.501   3.955   0.171  3.1682  1.2320  0.6476
 4896SOL    HW221739   1.495   4.033   0.300  0.1897  2.0237  0.1203
 4897SOL     OW21740   5.428   1.063   1.811 -0.0978 -0.1600 -0.2542
 4897SOL    HW121741   5.416   1.061   1.716 -0.1626  0.5739 -0.2714
 4897SOL    HW221742   5.458   0.975   1.834  3.6235  0.6274 -1.4631
 4898SOL     OW21743   5.864  10.456   0.966 -0.0998  0.6292 -0.4686
 4898SOL    HW121744   5.870  10.469   0.871  1.2833 -0.1111 -0.5089
 4898SOL    HW221745   5.950  10.483   0.999 -0.3802  0.3590  0.5100
 4899SOL     OW21746   5.740  11.869   8.311  0.1090  0.1729  0.7197
 4899SOL    HW121747   5.711  11.777   8.318 -0.7044 -0.0350 -3.0967
 4899SOL    HW221748   5.660  11.920   8.327  0.5416  0.3158  2.7467
 4900SOL     OW21749   7.839   9.798   5.052  0.2287 -0.0346  0.2160
 4900SOL    HW121750   7.796   9.774   4.970 -0.4072  0.6757  0.3357
 4900SOL    HW221751   7.796   9.878   5.080 -0.7747 -1.1746  2.1461
 4901SOL     OW21752   2.873   8.983   1.941 -0.3854  0.5283 -0.4873
 4901SOL    HW121753   2.823   8.936   1.875 -1.0311 -0.0171  0.3726
 4901SOL    HW221754   2.815   9.055   1.968  0.2068  1.2526 -1.0968
 4902SOL     OW21755   6.351   0.177   7.574 -0.0828 -0.1865 -0.5218
 4902SOL    HW121756   6.304   0.172   7.657 -0.3668  0.4250 -0.6392
 4902SOL    HW221757   6.434   0.219   7.595 -0.4282  0.5834 -0.6497
 4903SOL     OW21758   2.097   2.097  10.364 -0.4183  0.5978 -0.4000
 4903SOL    HW121759   2.067   2.147  10.440  0.7718 -0.2673  0.6799
 4903SOL    HW221760   2.078   2.006  10.386  0.2029  0.3125 -1.0175
 4904SOL     OW21761   2.801   7.969   8.005  0.3424  0.2094 -0.0328
 4904SOL    HW121762   2.825   8.005   7.919 -0.0513 -0.5410 -0.4672
 4904SOL    HW221763   2.744   8.036   8.043  0.6735  0.6389 -0.2683
 4905SOL     OW21764   6.920   4.862   2.668  0.0691 -0.4072  0.6006
 4905SOL    HW121765   6.882   4.935   2.717 -0.1388  0.3523 -0.6544
 4905SOL    HW221766   6.864   4.787   2.688 -1.2778  0.3739 -0.1171
 4906SOL     OW21767   5.619   4.997   0.419  0.0023  0.1830 -0.6596
 4906SOL    HW121768   5.672   4.989   0.499 -1.4983 -0.7789  0.3124
 4906SOL    HW221769   5.664   4.943   0.355 -0.1712 -1.2737  0.3838
 4907SOL     OW21770   5.573   8.289   0.523  0.4588  0.1895  0.5820
 4907SOL    HW121771   5.560   8.354   0.454 -0.5550 -1.9556 -1.3748
 4907SOL    HW221772   5.515   8.317   0.594 -0.4991  1.0267 -0.5036
 4908SOL     OW21773   9.702   5.214  12.364  0.9712 -0.9344  0.1972
 4908SOL    HW121774   9.738   5.258  12.287  1.9989 -0.8324  0.7219
 4908SOL    HW221775   9.639   5.151  12.329  1.2155 -0.6908 -0.6992
 4909SOL     OW21776   7.483   0.544   2.343 -0.5620  0.3691  0.1348
 4909SOL    HW121777   7.514   0.460   2.376  1.7891  1.2457  0.3260
 4909SOL    HW221778   7.413   0.522   2.281 -1.4454 -1.5689  1.7318
 4910SOL     OW21779   3.538   1.958  11.370 -0.0661 -0.1230  0.1593
 4910SOL    HW121780   3.472   1.988  11.307  1.3731 -0.7362 -1.7750
 4910SOL    HW221781   3.497   1.885  11.415 -1.2516  0.5039  0.1423
 4911SOL     OW21782   8.335   1.030   8.774  0.7271 -0.1499 -0.8290
 4911SOL    HW121783   8.314   0.939   8.752  0.6227 -0.0771 -1.0273
 4911SOL    HW221784   8.357   1.071   8.691 -0.3961  0.3207 -0.9045
 4912SOL     OW21785   9.043   1.980   2.548 -0.3216 -0.6741 -0.1165
 4912SOL    HW121786   9.083   1.921   2.611  0.6338  0.3590  0.2907
 4912SOL    HW221787   9.058   2.067   2.585  0.9571  0.0241 -2.1057
 4913SOL     OW21788   0.818   8.731   1.884  0.8171  0.6156  0.0680
 4913SOL    HW121789   0.790   8.689   1.965 -0.0679  2.4966  0.8125
 4913SOL    HW221790   0.737   8.738   1.833  1.3935 -0.6694 -1.0651
 4914SOL     OW21791   3.657   4.576  10.440  0.1688 -0.3067  0.0047
 4914SOL    HW121792   3.646   4.621  10.524  0.2497 -1.7573  0.8176
 4914SOL    HW221793   3.576   4.527  10.427  0.5198 -0.8175 -0.3091
 4915SOL     OW21794   5.210   1.212   1.863 -0.1985  0.4136  0.0366
 4915SOL    HW121795   5.303   1.189   1.856 -0.3855 -0.0954 -1.0297
 4915SOL    HW221796   5.203   1.259   1.946  1.1286  1.0381 -0.1752
 4916SOL     OW21797   9.749   4.637   5.934 -0.0830 -0.1671 -0.0417
 4916SOL    HW121798   9.813   4.708   5.925  0.6880 -0.4239  2.6063
 4916SOL    HW221799   9.721   4.641   6.026 -0.5482 -2.8346  0.0198
 4917SOL     OW21800   7.941   4.744   2.160  0.0337  0.8319 -0.0370
 4917SOL    HW121801   7.963   4.652   2.142 -0.4860  0.5964  0.4800
 4917SOL    HW221802   8.025   4.789   2.164  0.2510  1.1393 -3.9451
 4918SOL     OW21803   5.914   4.381   0.265 -0.0317  0.4689 -0.3756
 4918SOL    HW121804   5.893   4.358   0.356 -1.8985  1.4702 -0.5084
 4918SOL    HW221805   5.934   4.298   0.223 -1.4483 -0.2983  0.4062
 4919SOL     OW21806   9.679  11.327   2.466 -0.2905  0.0152 -0.0443
 4919SOL    HW121807   9.659  11.292   2.553 -0.0917  0.1099  0.0378
 4919SOL    HW221808   9.772  11.309   2.453  0.1796  1.8051  0.5861
 4920SOL     OW21809   1.982   7.220   2.119  0.6848 -0.0315 -0.5538
 4920SOL    HW121810   1.960   7.287   2.055 -1.7792 -0.8833 -0.6975
 4920SOL    HW221811   2.010   7.145   2.066 -0.0696 -0.2908 -0.6023
 4921SOL     OW21812   7.649   9.632   0.839 -0.0537  0.2079 -0.1606
 4921SOL    HW121813   7.650   9.563   0.773  0.2117 -1.0485  1.1011
 4921SOL    HW221814   7.556   9.652   0.851 -0.1135  0.3093 -0.7537
 4922SOL     OW21815  10.674   2.775   1.768 -0.4837  0.1854  0.5996
 4922SOL    HW121816  10.619   2.705   1.733 -1.2370  0.5585  1.0260
 4922SOL    HW221817  10.763   2.751   1.741 -0.6218 -1.3751  1.4520
 4923SOL     OW21818   5.993  11.440   1.488 -0.1756  0.0382  0.4436
 4923SOL    HW121819   6.033  11.519   1.452 -1.3607  0.3336 -0.2996
 4923SOL    HW221820   5.916  11.425   1.433 -0.2581 -1.3491  0.8928
 4924SOL     OW21821  12.043   1.810   7.044 -0.1374  0.0462 -0.0525
 4924SOL    HW121822  11.950   1.795   7.057  0.1265 -1.2675  0.4732
 4924SOL    HW221823  12.082   1.795   7.130  0.6617 -0.3199 -0.4712
 4925SOL     OW21824   5.166   4.733   5.637 -0.3170  0.4882 -0.4453
 4925SOL    HW121825   5.215   4.813   5.654  0.7397 -0.4691  1.2199
 4925SOL    HW221826   5.226   4.662   5.658 -1.3497 -0.7702 -1.5107
 4926SOL     OW21827  11.562  10.314   6.803  0.1492 -0.0050  0.5240
 4926SOL    HW121828  11.470  10.340   6.798  0.4407  1.1217  0.5463
 4926SOL    HW221829  11.583  10.282   6.715  0.0740  1.0276  0.1092
 4927SOL     OW21830  11.304   5.994   7.133 -0.7197  0.0639 -0.0951
 4927SOL    HW121831  11.250   5.951   7.200 -2.4085  1.3799 -0.5366
 4927SOL    HW221832  11.242   6.017   7.064  0.8051 -0.2477 -1.6224
 4928SOL     OW21833   9.515   7.873   7.999  0.3206 -0.4027 -0.8318
 4928SOL    HW121834   9.567   7.859   8.077  1.9061  0.6000 -1.6449
 4928SOL    HW221835   9.447   7.806   8.002 -0.7663  0.6607  2.2531
 4929SOL     OW21836  12.330   7.531   8.923  0.3129  0.1444 -0.1131
 4929SOL    HW121837  12.366   7.522   8.835 -1.3323 -1.2044 -0.6934
 4929SOL    HW221838  12.274   7.608   8.919  0.4527  0.2450 -0.1550
 4930SOL     OW21839   3.069   6.434   5.155 -0.2606 -0.2139 -0.2514
 4930SOL    HW121840   3.112   6.354   5.124  0.2302  0.3594 -1.0785
 4930SOL    HW221841   3.118   6.459   5.233  0.3473 -0.0734 -0.6695
 4931SOL     OW21842  10.298   2.036   1.099  0.0543 -0.2056 -0.1071
 4931SOL    HW121843  10.272   2.049   1.008 -1.0590 -0.8015  0.1096
 4931SOL    HW221844  10.319   2.124   1.131 -0.2135  0.0919 -0.7368
 4932SOL     OW21845   6.323  10.281   8.736 -0.0320  0.4931 -0.1097
 4932SOL    HW121846   6.392  10.332   8.694 -0.9137  0.8196 -1.2051
 4932SOL    HW221847   6.280  10.234   8.665 -1.5230  1.0164  0.4101
 4933SOL     OW21848   8.331   0.999   0.187 -0.0823 -0.5451  0.4054
 4933SOL    HW121849   8.293   0.959   0.109 -0.1409  1.0916 -0.4612
 4933SOL    HW221850   8.385   0.930   0.226  0.8348 -1.1030 -1.6991
 4934SOL     OW21851   4.845  12.033   1.130 -0.0524  0.1768  0.3499
 4934SOL    HW121852   4.881  11.951   1.096  0.8798  0.5864  0.3215
 4934SOL    HW221853   4.900  12.053   1.206 -1.1520  0.0627  1.2080
 4935SOL     OW21854   4.067  11.261  11.887 -0.2178  0.5781 -0.1812
 4935SOL    HW121855   4.034  11.201  11.954  0.7398 -0.7106 -0.8398
 4935SOL    HW221856   4.122  11.322  11.935  0.1021 -0.0663  0.2857
 4936SOL     OW21857  10.271  10.062   7.418 -0.2178  0.2292 -0.0923
 4936SOL    HW121858  10.238  10.084   7.505 -0.8174  0.9826 -0.4909
 4936SOL    HW221859  10.228  10.125   7.360  1.9863  1.3100 -0.6485
 4937SOL     OW21860  11.965  12.064   9.820  0.0241 -0.5426  0.2675
 4937SOL    HW121861  11.930  12.046   9.908  0.1669 -0.9442  0.2465
 4937SOL    HW221862  11.893  12.041   9.761  0.2230 -1.1046  0.2384
 4938SOL     OW21863   0.446   5.187   7.513 -0.1851 -0.1340  0.5410
 4938SOL    HW121864   0.463   5.095   7.497 -1.5427 -0.6135  1.6370
 4938SOL    HW221865   0.352   5.197   7.499  0.2189  1.5182 -1.4216
 4939SOL     OW21866  11.226   1.893   4.188 -0.6512 -0.7402 -0.4327
 4939SOL    HW121867  11.151   1.835   4.201  0.1583 -1.2924  2.4099
 4939SOL    HW221868  11.294   1.837   4.151 -0.4111 -1.2120  0.7052
 4940SOL     OW21869   8.440   3.554   7.799 -0.1962 -0.3150  0.0810
 4940SOL    HW121870   8.493   3.555   7.719 -0.3723  1.8558 -0.0670
 4940SOL    HW221871   8.481   3.488   7.854  0.5013 -1.1821 -1.4233
 4941SOL     OW21872   1.520   8.176   3.896 -0.2117  0.3135 -0.3082
 4941SOL    HW121873   1.474   8.250   3.936  1.2692 -0.3341  3.0089
 4941SOL    HW221874   1.462   8.101   3.910  0.2862  0.0959  0.7492
 4942SOL     OW21875   6.951   8.881   0.787 -0.2654 -0.3142 -0.1387
 4942SOL    HW121876   7.015   8.852   0.722  0.2455  0.7067 -0.0971
 4942SOL    HW221877   6.871   8.896   0.737  0.2646  0.9520 -0.6272
 4943SOL     OW21878   8.704   1.522   3.702 -0.4793 -0.2632 -0.7095
 4943SOL    HW121879   8.765   1.449   3.706 -0.9061 -0.6023 -0.3545
 4943SOL    HW221880   8.681   1.539   3.794 -0.9229 -0.1447 -0.8408
 4944SOL     OW21881   5.970   4.957   2.470  0.3677 -0.2146 -0.4107
 4944SOL    HW121882   6.007   4.928   2.386 -2.1471 -1.0616 -1.3337
 4944SOL    HW221883   5.928   4.878   2.505  1.4004  0.1250  1.7185
 4945SOL     OW21884   6.623   6.568   8.325 -0.2221  0.3724  0.6840
 4945SOL    HW121885   6.718   6.583   8.323  0.2378 -2.1297 -1.1482
 4945SOL    HW221886   6.587   6.650   8.358  2.3575  2.7208 -1.7531
 4946SOL     OW21887  12.411   7.550   2.785 -0.5683 -0.4343 -0.2967
 4946SOL    HW121888  12.456   7.526   2.866 -1.8354  0.8185  0.8331
 4946SOL    HW221889  12.469   7.613   2.743 -0.7490  0.3435  0.5991
 4947SOL     OW21890  12.143   4.479   1.993 -0.2317  0.4654 -0.4471
 4947SOL    HW121891  12.190   4.562   1.995  0.8872 -0.1314  1.8652
 4947SOL    HW221892  12.072   4.493   1.931 -0.5387  3.4270  0.4146
 4948SOL     OW21893   5.383   1.954   7.589 -0.2139 -0.0788 -0.4205
 4948SOL    HW121894   5.344   1.897   7.656 -2.6912  0.2054 -1.4939
 4948SOL    HW221895   5.477   1.942   7.598 -0.4717 -0.4664  2.7344
 4949SOL     OW21896   2.831   2.373   2.014 -0.2300 -0.1213  0.0914
 4949SOL    HW121897   2.755   2.430   2.004 -0.1760  0.0956  0.8855
 4949SOL    HW221898   2.801   2.288   1.982 -0.9080 -0.1092  0.6717
 4950SOL     OW21899  12.367   4.794   9.722  0.9474  0.0799  0.0406
 4950SOL    HW121900  12.396   4.714   9.678 -0.5480 -0.0820 -0.6978
 4950SOL    HW221901  12.439   4.856   9.709  1.7074 -0.8350 -0.2168
 4951SOL     OW21902  11.757   5.173  11.900 -0.2549 -0.4742  0.1421
 4951SOL    HW121903  11.711   5.097  11.864  1.1794 -0.2895 -2.3221
 4951SOL    HW221904  11.831   5.186  11.841  2.6016 -0.3193  3.4003
 4952SOL     OW21905  10.677   3.351   2.618  0.3328  0.2759 -0.2800
 4952SOL    HW121906  10.653   3.263   2.589  0.6858 -0.1072  0.5652
 4952SOL    HW221907  10.613   3.408   2.577 -0.2469 -0.4370 -0.3803
 4953SOL     OW21908  12.371   0.488   9.020  0.2544 -0.4694 -0.3447
 4953SOL    HW121909  12.360   0.454   8.931 -0.4148 -0.1446 -0.3935
 4953SOL    HW221910  12.410   0.575   9.007 -0.2877 -0.2242 -0.3491
 4954SOL     OW21911  11.010   5.447   6.718  0.0031  0.4088 -0.1456
 4954SOL    HW121912  11.056   5.501   6.782  1.1219 -1.1990  0.4703
 4954SOL    HW221913  11.033   5.486   6.633  1.6462  0.3340  0.2233
 4955SOL     OW21914   6.220   1.751   6.613 -0.1775  0.0846 -0.0755
 4955SOL    HW121915   6.298   1.775   6.562 -0.6133  0.4703 -0.5774
 4955SOL    HW221916   6.212   1.819   6.679  0.6126 -0.6251  0.7861
 4956SOL     OW21917   0.182   7.361   3.255 -0.3686  0.3189  0.1147
 4956SOL    HW121918   0.202   7.423   3.185  1.2494 -0.3339 -0.0525
 4956SOL    HW221919   0.121   7.299   3.214 -1.6001  1.4814  0.1390
 4957SOL     OW21920   4.584   5.445   5.311  0.2873 -0.4822 -0.8510
 4957SOL    HW121921   4.586   5.359   5.352 -0.2163 -0.4217 -0.6921
 4957SOL    HW221922   4.658   5.445   5.250  0.3935 -0.9593 -0.7225
 4958SOL     OW21923  10.485   8.084   0.657  0.1445  0.0140 -0.1009
 4958SOL    HW121924  10.492   8.143   0.732 -0.5738  0.0218 -0.0277
 4958SOL    HW221925  10.466   8.141   0.583  0.0594 -0.0679 -0.1427
 4959SOL     OW21926   0.185  12.003   2.204  0.0212  0.0612  0.5811
 4959SOL    HW121927   0.231  12.036   2.281 -1.0872 -0.5182  1.5196
 4959SOL    HW221928   0.139  12.079   2.168  3.0736  1.1237 -1.4931
 4960SOL     OW21929   1.937   7.036   3.758  0.0945  0.4561 -0.3445
 4960SOL    HW121930   2.009   7.098   3.755  1.6829 -1.3200 -2.1136
 4960SOL    HW221931   1.876   7.066   3.691 -0.4078  1.4686  0.5450
 4961SOL     OW21932   9.450   5.830  10.261 -0.3952  0.2286  0.3411
 4961SOL    HW121933   9.524   5.817  10.201  1.2436  1.3879  1.9984
 4961SOL    HW221934   9.401   5.748  10.256  0.0076  0.0468 -2.0780
 4962SOL     OW21935   6.985   5.176   0.767  0.1849 -0.1801 -0.3799
 4962SOL    HW121936   6.952   5.099   0.814  0.5115 -0.5002 -0.6638
 4962SOL    HW221937   6.929   5.248   0.796  0.0760 -0.4642  0.1269
 4963SOL     OW21938   5.603  10.864   1.599  0.6424  0.1820 -0.3159
 4963SOL    HW121939   5.533  10.930   1.599  0.9395  0.5343 -1.8344
 4963SOL    HW221940   5.597  10.823   1.686 -1.4372  0.1999 -0.3955
 4964SOL     OW21941   9.326   8.305   1.704 -0.0674 -0.1171 -0.5443
 4964SOL    HW121942   9.321   8.216   1.739  0.7741  0.3791  0.9161
 4964SOL    HW221943   9.356   8.293   1.614  0.9221 -1.2710 -0.0898
 4965SOL     OW21944   7.280   6.670   0.309 -0.1557 -0.1013  0.2444
 4965SOL    HW121945   7.207   6.731   0.311  0.4945  0.6864  0.4084
 4965SOL    HW221946   7.251   6.599   0.251 -1.5480 -0.4632  1.3269
 4966SOL     OW21947   6.649   1.349   0.028  0.7772 -0.0157 -0.3465
 4966SOL    HW121948   6.595   1.403  -0.029  1.0318  2.7070  1.7990
 4966SOL    HW221949   6.588   1.283   0.063 -0.1421  0.3888 -1.1470
 4967SOL     OW21950   0.878   8.568   8.548 -0.3884  0.7505  0.1398
 4967SOL    HW121951   0.902   8.643   8.602  0.9949  0.6940 -0.3505
 4967SOL    HW221952   0.825   8.514   8.605  1.1746  0.6026  1.5506
 4968SOL     OW21953   0.817   6.054   9.972  0.6781  0.1858  0.2617
 4968SOL    HW121954   0.795   6.144   9.948  2.7188  0.9398  1.0223
 4968SOL    HW221955   0.770   6.001   9.908 -0.7272  1.7477 -0.1077
 4969SOL     OW21956   2.170  11.100   5.207 -0.6801  0.4769 -0.2772
 4969SOL    HW121957   2.093  11.051   5.234 -0.4609 -1.0228 -2.1529
 4969SOL    HW221958   2.237  11.032   5.193  0.1512  1.4675 -1.2801
 4970SOL     OW21959   8.800   1.041   0.794  0.6263  0.0171  0.4098
 4970SOL    HW121960   8.710   1.072   0.789  0.6042 -0.2373 -1.2059
 4970SOL    HW221961   8.831   1.041   0.704  2.1501 -0.2125  0.8971
 4971SOL     OW21962   6.794   7.560  12.552 -0.1698  0.4671 -0.7644
 4971SOL    HW121963   6.772   7.514  12.632  0.3647 -0.2913 -1.0449
 4971SOL    HW221964   6.861   7.623  12.578 -0.2242  0.4432 -0.5635
 4972SOL     OW21965  10.314   4.458   3.247  0.4649 -0.5379  0.2908
 4972SOL    HW121966  10.322   4.536   3.192 -1.1076  0.2759  1.1491
 4972SOL    HW221967  10.341   4.386   3.190  1.3827  0.5468 -0.7047
 4973SOL     OW21968  12.520   3.051   3.621 -0.2437  0.1229  0.1840
 4973SOL    HW121969  12.581   3.002   3.567 -0.1221 -0.1374  0.5518
 4973SOL    HW221970  12.558   3.139   3.626 -0.1473  0.0910  0.0150
 4974SOL     OW21971   6.354   5.724   9.444  0.0559 -0.3775  0.3552
 4974SOL    HW121972   6.350   5.677   9.361 -0.9669  0.4090 -0.0556
 4974SOL    HW221973   6.270   5.707   9.486  0.8741 -1.4591  1.6453
 4975SOL     OW21974  11.874   1.635   3.156  0.6954 -0.7580 -0.5471
 4975SOL    HW121975  11.846   1.551   3.193 -0.7601 -0.0394  0.0434
 4975SOL    HW221976  11.800   1.694   3.172  1.3628  0.4249 -1.6990
 4976SOL     OW21977   9.483   3.434  10.804 -0.3455 -0.3807 -0.8321
 4976SOL    HW121978   9.509   3.381  10.729 -1.1065 -0.6932 -0.8888
 4976SOL    HW221979   9.465   3.520  10.768 -3.0942 -1.1250 -1.4846
 4977SOL     OW21980   3.434   9.496   7.695  0.2205  0.0771  0.4107
 4977SOL    HW121981   3.431   9.490   7.790 -1.0211 -0.6113  0.3455
 4977SOL    HW221982   3.425   9.589   7.676 -0.2217  0.1476  0.9531
 4978SOL     OW21983  11.539   6.723   9.066  0.1078 -0.0243 -0.5697
 4978SOL    HW121984  11.616   6.697   9.117  0.0128 -0.5526 -0.6875
 4978SOL    HW221985  11.545   6.672   8.986  0.3194  0.8964 -1.1492
 4979SOL     OW21986   9.540   2.365  10.288 -0.1263 -0.0530  0.0241
 4979SOL    HW121987   9.591   2.299  10.241  0.9853  1.2851 -0.7303
 4979SOL    HW221988   9.540   2.335  10.379  0.7065 -0.8782 -0.2277
 4980SOL     OW21989   5.693   7.844   3.934  0.6782 -0.1791 -0.4069
 4980SOL    HW121990   5.627   7.804   3.990  0.6114  0.8989  0.3246
 4980SOL    HW221991   5.703   7.783   3.861  1.1828 -1.9149  1.0359
 4981SOL     OW21992  10.423   4.881   2.148 -0.0707  0.1846  0.5138
 4981SOL    HW121993  10.415   4.824   2.072 -0.1671 -1.6777  1.8464
 4981SOL    HW221994  10.349   4.940   2.143 -0.0447  0.1152 -0.8517
 4982SOL     OW21995   2.203  10.755  12.414  0.2791  0.1427 -0.3918
 4982SOL    HW121996   2.225  10.798  12.331 -0.1506 -0.0884 -0.6314
 4982SOL    HW221997   2.194  10.826  12.477 -0.0774  0.3770 -0.7042
 4983SOL     OW21998  11.755  10.195  11.496  0.0253 -0.3235 -0.8075
 4983SOL    HW121999  11.750  10.280  11.452  0.8408 -0.9648 -2.2195
 4983SOL    HW222000  11.782  10.216  11.585  0.2340  0.9001 -1.1335
 4984SOL     OW22001   6.748  10.344   3.954  0.9037 -0.5751  0.1331
 4984SOL    HW122002   6.763  10.419   3.896 -0.8923  2.5900  3.3613
 4984SOL    HW222003   6.661  10.313   3.930 -0.7677  2.0663  2.1292
 4985SOL     OW22004   5.629   2.625   0.868  0.0784 -0.2784 -0.0438
 4985SOL    HW122005   5.688   2.549   0.874 -1.4655 -1.5252 -0.0960
 4985SOL    HW222006   5.629   2.648   0.776 -0.0494 -0.7146 -0.1551
 4986SOL     OW22007   0.977  11.727   0.576 -0.2892  0.4093  0.2518
 4986SOL    HW122008   1.054  11.673   0.555  0.3321  2.2056 -2.5363
 4986SOL    HW222009   0.903  11.668   0.563  0.4611 -0.4003 -0.5007
 4987SOL     OW22010   9.788  11.484   2.875  0.3545  0.5171 -0.3776
 4987SOL    HW122011   9.815  11.441   2.956  0.4377  1.3577  0.0534
 4987SOL    HW222012   9.863  11.539   2.851 -0.1867  1.3137 -0.2765
 4988SOL     OW22013   7.428   5.670   5.511  0.1323 -0.1277  0.1581
 4988SOL    HW122014   7.486   5.635   5.443 -1.4911  0.5918 -1.6931
 4988SOL    HW222015   7.451   5.620   5.589  3.2715  0.1770 -0.4311
 4989SOL     OW22016   0.910  11.620   1.653  0.0988  0.1781  0.5495
 4989SOL    HW122017   0.864  11.703   1.666  0.5114  0.2893  1.3384
 4989SOL    HW222018   0.984  11.624   1.713 -0.5688 -1.2734  1.5198
 4990SOL     OW22019   0.629   6.106   2.776 -0.4541  0.1520 -0.0313
 4990SOL    HW122020   0.669   6.064   2.852 -0.2300 -2.0357 -1.2814
 4990SOL    HW222021   0.544   6.065   2.767 -0.8878  1.0946 -0.4108
 4991SOL     OW22022   4.114   6.827   5.958 -0.6656  0.0124  0.1047
 4991SOL    HW122023   4.158   6.744   5.940  0.6069  0.9447 -1.4110
 4991SOL    HW222024   4.048   6.834   5.889 -0.2542  0.5782 -0.2434
 4992SOL     OW22025   8.634   8.685   8.582 -0.4405  0.1503  0.4392
 4992SOL    HW122026   8.695   8.616   8.609  0.4439  0.4459 -0.7497
 4992SOL    HW222027   8.678   8.766   8.607  0.4996  0.4513 -1.9016
 4993SOL     OW22028   8.223   8.233   8.279 -0.0600 -0.2876  0.3761
 4993SOL    HW122029   8.275   8.189   8.347  0.4922 -1.1505 -0.5641
 4993SOL    HW222030   8.288   8.258   8.213 -0.7642 -0.9040 -0.5708
 4994SOL     OW22031   9.573   4.167   6.225  0.0519  0.3202  0.0870
 4994SOL    HW122032   9.639   4.208   6.281 -0.6299  1.0717  0.3728
 4994SOL    HW222033   9.549   4.236   6.162  0.9336 -0.5675 -1.2535
 4995SOL     OW22034   3.673  11.121   4.371  0.3672 -0.4628 -0.8504
 4995SOL    HW122035   3.634  11.136   4.285  1.6623  2.7560 -1.0230
 4995SOL    HW222036   3.759  11.163   4.366  0.1075  0.7105  2.2480
 4996SOL     OW22037  12.361  11.959   9.686 -0.4121 -0.1065  0.4491
 4996SOL    HW122038  12.444  12.004   9.704  0.4491 -1.7757  0.8128
 4996SOL    HW222039  12.335  11.922   9.770  0.0817 -2.1546 -0.2350
 4997SOL     OW22040  11.589  11.596   1.457  0.7841  0.0997 -0.0586
 4997SOL    HW122041  11.638  11.678   1.454  1.4432 -0.1113  2.7003
 4997SOL    HW222042  11.505  11.617   1.414  0.2806  2.7473  1.9573
 4998SOL     OW22043   0.936   2.299  10.336  0.0069  0.2531 -0.2010
 4998SOL    HW122044   0.888   2.335  10.411  0.3492 -0.3280  0.3041
 4998SOL    HW222045   1.016   2.352  10.332 -0.2483  0.6255 -0.4839
 4999SOL     OW22046  10.876   9.669   9.140 -0.4853 -1.0401  0.1915
 4999SOL    HW122047  10.884   9.592   9.085 -0.2575  0.3278 -1.8168
 4999SOL    HW222048  10.835   9.735   9.084  0.9413  0.8404  1.2063
 5000SOL     OW22049  11.578   9.169   4.934 -0.4086  0.0011  0.2993
 5000SOL    HW122050  11.602   9.158   4.842  0.4068 -0.4483  0.5595
 5000SOL    HW222051  11.489   9.204   4.931 -1.3170 -2.1720 -0.6481
 5001SOL     OW22052   7.731  12.252  11.374  0.3675  0.1638  0.0400
 5001SOL    HW122053   7.697  12.167  11.400  2.1883 -0.4625  0.5025
 5001SOL    HW222054   7.727  12.306  11.453  1.6424 -0.3239  0.4563
 5002SOL     OW22055   1.289   4.036  11.441 -0.6335  0.8158  0.3786
 5002SOL    HW122056   1.328   4.037  11.353  0.7922  0.7597  0.9876
 5002SOL    HW222057   1.205   3.992  11.429  0.0870 -0.3168 -0.7428
 5003SOL     OW22058   9.119  10.138  11.821  0.2551  0.0458 -0.5467
 5003SOL    HW122059   9.138  10.132  11.914  1.4227  0.3628 -0.7499
 5003SOL    HW222060   9.062  10.215  11.813 -0.2928 -0.2966 -0.0441
 5004SOL     OW22061   6.251   2.943   4.011 -0.8003 -0.0488  0.1096
 5004SOL    HW122062   6.342   2.943   3.981 -0.0199 -0.1958  2.2764
 5004SOL    HW222063   6.207   3.006   3.955  0.5916 -0.1351 -1.1224
 5005SOL     OW22064   4.295   3.512   2.561 -0.3446 -0.3648  0.3539
 5005SOL    HW122065   4.219   3.481   2.610  0.4034 -1.2507  0.9692
 5005SOL    HW222066   4.350   3.555   2.626 -0.1965  0.0623 -0.0458
 5006SOL     OW22067   4.310   3.223  11.794  0.1666 -0.1104 -0.4315
 5006SOL    HW122068   4.318   3.128  11.792 -0.4486 -0.2416  1.3983
 5006SOL    HW222069   4.380   3.252  11.853 -0.2889  0.4653 -0.1600
 5007SOL     OW22070   6.113  12.199   3.221  0.0290  0.2099 -0.1536
 5007SOL    HW122071   6.021  12.218   3.241 -0.1070  1.2134 -1.5554
 5007SOL    HW222072   6.144  12.149   3.297 -0.9261  2.1058  1.5892
 5008SOL     OW22073   4.460   2.723  11.872  0.3184 -0.3550 -0.4934
 5008SOL    HW122074   4.439   2.642  11.917  0.2533 -0.2949 -0.4150
 5008SOL    HW222075   4.548   2.708  11.836  1.0422  0.1379  0.9575
 5009SOL     OW22076  11.197   5.740   1.829 -0.1782 -0.0772 -0.2164
 5009SOL    HW122077  11.241   5.765   1.747 -0.7709  2.6022  0.1916
 5009SOL    HW222078  11.212   5.814   1.888 -1.9421 -0.8126  1.2455
 5010SOL     OW22079   3.411   5.264  10.309 -0.3348 -0.6595 -0.0918
 5010SOL    HW122080   3.366   5.203  10.367 -1.0539  0.8336  0.9728
 5010SOL    HW222081   3.387   5.236  10.220 -0.0030 -2.3744  0.3222
 5011SOL     OW22082   4.192   3.570  12.557  0.1024 -0.4159  0.4652
 5011SOL    HW122083   4.222   3.641  12.614 -0.7455 -0.5052  1.0402
 5011SOL    HW222084   4.230   3.491  12.596 -0.6373 -0.5008  1.0543
 5012SOL     OW22085   6.624   5.165  10.293  0.3702  0.0237  0.1221
 5012SOL    HW122086   6.549   5.220  10.317  0.8345  0.6714  0.0998
 5012SOL    HW222087   6.623   5.162  10.197 -0.5076 -1.2143  0.1379
 5013SOL     OW22088   2.817   3.096   6.893 -0.0947 -0.0803 -0.0499
 5013SOL    HW122089   2.771   3.021   6.855  0.7143  0.7506 -2.9079
 5013SOL    HW222090   2.903   3.094   6.852 -0.6739  3.4357 -1.7662
 5014SOL     OW22091   2.080  10.069  12.120  0.0275 -0.2801 -0.0379
 5014SOL    HW122092   2.118  10.023  12.195  0.3945  2.3075  1.4643
 5014SOL    HW222093   1.987  10.078  12.142 -0.1054 -0.5640 -0.4721
 5015SOL     OW22094   1.053  10.010   7.505 -0.2528 -0.5497  0.0068
 5015SOL    HW122095   0.988  10.067   7.545 -0.9292 -0.8009 -0.7283
 5015SOL    HW222096   1.058   9.934   7.564 -1.0349 -0.7872 -0.2254
 5016SOL     OW22097   3.166   6.006   8.117  0.6576 -0.2895  0.1394
 5016SOL    HW122098   3.080   6.049   8.115  0.1180 -1.3172  0.3465
 5016SOL    HW222099   3.227   6.073   8.087 -0.3666  0.1076 -1.1774
 5017SOL     OW22100   3.814   8.439   5.828  0.3395 -0.3211  0.1777
 5017SOL    HW122101   3.830   8.533   5.842  0.5561 -0.2532 -0.4741
 5017SOL    HW222102   3.719   8.430   5.837  0.1613  0.1941 -0.9902
 5018SOL     OW22103  12.153   8.362   6.693 -0.1718  0.2140  0.1584
 5018SOL    HW122104  12.134   8.404   6.610 -3.6132  1.3846  1.3557
 5018SOL    HW222105  12.151   8.433   6.757 -3.2032 -1.2106  1.8572
 5019SOL     OW22106   3.157   5.292   2.672 -0.7576  0.1891 -0.3349
 5019SOL    HW122107   3.115   5.222   2.623 -0.7634  0.7608 -1.1663
 5019SOL    HW222108   3.250   5.281   2.655 -0.6225 -0.5158  0.7571
 5020SOL     OW22109   8.048   1.004   8.222  0.5529 -0.4379 -0.2259
 5020SOL    HW122110   8.040   1.021   8.316 -2.9305  2.0547 -0.7595
 5020SOL    HW222111   8.067   1.090   8.184 -0.5294 -0.9027 -1.9432
 5021SOL     OW22112   1.901   7.065   5.493 -0.1811 -0.0406 -0.5235
 5021SOL    HW122113   1.866   7.118   5.564 -1.3546  0.4151 -1.4037
 5021SOL    HW222114   1.890   6.975   5.523 -1.5573  0.1103 -0.4921
 5022SOL     OW22115   3.689   3.772  11.996 -0.4659 -0.4614 -0.2916
 5022SOL    HW122116   3.751   3.722  12.048  0.3758  0.3797 -0.4640
 5022SOL    HW222117   3.606   3.725  12.006  0.1264 -1.4416  0.1645
 5023SOL     OW22118  11.207   7.172   4.874  0.1408 -0.0011  0.9576
 5023SOL    HW122119  11.199   7.077   4.879 -2.8479  0.0028 -1.0283
 5023SOL    HW222120  11.288   7.187   4.825  1.1732 -1.4406  2.1482
 5024SOL     OW22121  10.907  10.561   3.783  0.1207  0.0204 -0.0135
 5024SOL    HW122122  10.955  10.503   3.723 -0.9335  0.6286 -1.5048
 5024SOL    HW222123  10.819  10.566   3.745 -0.0231  1.9966  0.5010
 5025SOL     OW22124   7.378   7.485   1.780  0.1447 -0.2683  0.1413
 5025SOL    HW122125   7.339   7.537   1.851  0.8004  1.5127 -0.7356
 5025SOL    HW222126   7.470   7.509   1.782 -0.0294  0.8254 -2.0728
 5026SOL     OW22127  10.338   1.487   8.398  0.9223 -0.1023 -0.1513
 5026SOL    HW122128  10.414   1.533   8.434 -0.3102  0.2267  2.2379
 5026SOL    HW222129  10.274   1.556   8.379  0.1927 -0.5567  0.5635
 5027SOL     OW22130   9.904   5.888  10.606 -0.0515 -0.1541  0.7167
 5027SOL    HW122131   9.850   5.935  10.669 -1.5646  1.0402 -1.3398
 5027SOL    HW222132   9.992   5.924  10.618 -1.0014  2.7564 -0.2290
 5028SOL     OW22133   1.323   8.472  11.410 -0.1324 -0.0337 -0.2407
 5028SOL    HW122134   1.417   8.490  11.420 -0.4608  1.1405  1.0716
 5028SOL    HW222135   1.312   8.382  11.442  0.5793 -0.2813 -0.6734
 5029SOL     OW22136   2.808  11.826   4.593  0.2665  0.4141  0.0110
 5029SOL    HW122137   2.864  11.881   4.648  1.7711 -0.2332 -0.8083
 5029SOL    HW222138   2.816  11.739   4.630  0.7304  0.1058 -0.7740
 5030SOL     OW22139  12.092   0.422   7.345  0.0874 -0.6212 -0.3187
 5030SOL    HW122140  12.129   0.503   7.310  1.0955 -1.0863 -0.3823
 5030SOL    HW222141  12.139   0.353   7.298  1.3376 -1.2674  1.7405
 5031SOL     OW22142  11.797   2.054   7.903 -0.1463 -0.3640  0.1373
 5031SOL    HW122143  11.753   1.999   7.838 -0.2619 -0.5424  0.3661
 5031SOL    HW222144  11.857   1.994   7.948  0.7692 -0.0117 -0.5574
 5032SOL     OW22145   6.896   7.187   3.790 -0.0702  0.0446  0.4536
 5032SOL    HW122146   6.836   7.184   3.716 -0.5655  0.3375  0.8378
 5032SOL    HW222147   6.866   7.116   3.847 -0.5096  0.6552  0.9906
 5033SOL     OW22148  12.514   8.964   0.175  0.5654 -0.7539 -0.0583
 5033SOL    HW122149  12.605   8.934   0.169  0.3772 -1.4728  0.4953
 5033SOL    HW222150  12.464   8.884   0.187 -0.2198 -0.4210 -1.0026
 5034SOL     OW22151   8.263   1.092   7.012  0.2594 -0.4537 -0.1350
 5034SOL    HW122152   8.303   1.017   6.967  0.5819  0.3620 -1.2577
 5034SOL    HW222153   8.197   1.124   6.950  0.9293  0.8977 -0.1775
 5035SOL     OW22154   6.301   7.363   0.440 -0.4581  0.0916  0.0291
 5035SOL    HW122155   6.352   7.415   0.378 -0.2492 -1.2792 -1.0047
 5035SOL    HW222156   6.292   7.419   0.517 -0.8079  1.9183 -1.2517
 5036SOL     OW22157   9.274   2.432   8.092  0.4288  1.1387 -0.3115
 5036SOL    HW122158   9.207   2.374   8.056  0.4687  0.5135  0.6149
 5036SOL    HW222159   9.246   2.449   8.181  2.2568 -0.3820  0.6291
 5037SOL     OW22160   8.289   0.447   1.185 -0.0985  0.0781 -0.4200
 5037SOL    HW122161   8.276   0.371   1.242  1.9749  0.7142  1.0667
 5037SOL    HW222162   8.201   0.479   1.167 -0.9194 -1.2405  0.9357
 5038SOL     OW22163   1.310   4.286   0.780 -0.1030  0.3400 -0.2574
 5038SOL    HW122164   1.297   4.358   0.840  0.5544  1.2994 -1.2327
 5038SOL    HW222165   1.403   4.288   0.759 -0.3960  0.3721 -1.6948
 5039SOL     OW22166  10.613   1.540   0.631 -0.1005 -0.0179  0.0798
 5039SOL    HW122167  10.579   1.605   0.569  0.3406 -0.4079 -0.5862
 5039SOL    HW222168  10.554   1.545   0.706  0.2101  1.4895  0.2468
 5040SOL     OW22169  10.922   2.403   0.243  0.0824 -0.0633  0.8518
 5040SOL    HW122170  10.949   2.492   0.267  1.1378 -0.0424 -0.3016
 5040SOL    HW222171  10.927   2.401   0.148 -1.2809 -0.9621  0.7699
 5041SOL     OW22172  12.157   5.105   5.410  0.6069 -0.1972 -0.0929
 5041SOL    HW122173  12.080   5.049   5.419  0.4534  0.0431  0.1082
 5041SOL    HW222174  12.169   5.114   5.316  1.3423 -1.5305 -0.1497
 5042SOL     OW22175   9.756   4.821   3.726 -0.3442 -0.1106  0.7738
 5042SOL    HW122176   9.713   4.833   3.810 -1.3296 -0.3467  0.3166
 5042SOL    HW222177   9.848   4.809   3.748 -0.5566  0.0422  1.7983
 5043SOL     OW22178   1.517  11.138  11.242  0.5453  0.0117  0.1649
 5043SOL    HW122179   1.497  11.230  11.225  3.2096  0.5258 -0.6127
 5043SOL    HW222180   1.542  11.103  11.156 -2.9471 -2.2632 -0.1224
 5044SOL     OW22181   2.238   1.096   3.408 -0.4209 -0.0833 -0.1816
 5044SOL    HW122182   2.158   1.120   3.361 -1.5146  0.6669  1.9215
 5044SOL    HW222183   2.218   1.114   3.500  1.9902 -0.4228  0.4799
 5045SOL     OW22184   1.092  10.096   4.558 -0.1117 -0.1418 -0.4846
 5045SOL    HW122185   1.004  10.070   4.584  1.1944 -2.4749  2.1092
 5045SOL    HW222186   1.107  10.179   4.604 -0.0645 -1.1204  1.3698
 5046SOL     OW22187   3.894  11.464   5.670 -0.5022 -0.0806 -0.3742
 5046SOL    HW122188   3.854  11.463   5.583 -0.3567 -2.2750 -0.4586
 5046SOL    HW222189   3.970  11.407   5.663 -0.6814 -0.5813  1.2615
 5047SOL     OW22190   0.024  11.174   2.689  0.2834 -0.1214  0.4522
 5047SOL    HW122191   0.111  11.202   2.716  0.5983 -1.2620  0.6972
 5047SOL    HW222192   0.010  11.214   2.603  0.6961  0.7491  0.7905
 5048SOL     OW22193   8.339   4.042   8.703  0.1908  0.4180  0.7335
 5048SOL    HW122194   8.434   4.037   8.703  0.2087  0.2985 -0.9006
 5048SOL    HW222195   8.313   4.015   8.615 -1.4320 -0.7185  1.4999
 5049SOL     OW22196   8.344   4.717   8.733 -0.2637  0.1336 -0.3331
 5049SOL    HW122197   8.266   4.758   8.770 -1.0219 -1.6074  0.0906
 5049SOL    HW222198   8.412   4.733   8.799 -0.7484  0.0239  0.2096
 5050SOL     OW22199   7.078  11.865   7.808  0.2549 -0.2319  0.4356
 5050SOL    HW122200   7.099  11.816   7.888  0.7272  0.3436  0.6678
 5050SOL    HW222201   7.067  11.798   7.741  3.0723 -0.5789  0.2189
 5051SOL     OW22202   9.030   3.050   1.117 -1.1690 -0.3535 -0.2997
 5051SOL    HW122203   9.119   3.037   1.151 -0.6366 -0.9945 -1.8334
 5051SOL    HW222204   9.021   3.145   1.111 -1.9854 -0.0694  3.2088
 5052SOL     OW22205   4.021   7.660  12.159 -0.3228 -0.0870 -0.0363
 5052SOL    HW122206   4.013   7.584  12.216  0.3513  0.4288  0.7693
 5052SOL    HW222207   3.931   7.690  12.146 -0.5162 -0.4585  0.4092
 5053SOL     OW22208  11.359   0.632   4.454  0.1929 -1.1902  0.1954
 5053SOL    HW122209  11.347   0.582   4.535  0.7013 -0.9838  0.4014
 5053SOL    HW222210  11.422   0.582   4.403  1.0430 -0.5553  0.5936
 5054SOL     OW22211  12.560   3.282  11.193 -0.2903 -0.4683  0.1782
 5054SOL    HW122212  12.592   3.284  11.284  0.4581  0.2054 -0.0863
 5054SOL    HW222213  12.505   3.360  11.185  0.1108 -0.2092 -0.1032
 5055SOL     OW22214   9.007  11.052  11.099 -0.0997 -0.6769 -0.4903
 5055SOL    HW122215   8.969  11.010  11.176 -1.9066  1.8337  0.1393
 5055SOL    HW222216   9.049  10.981  11.050 -2.5290 -3.0566  0.6540
 5056SOL     OW22217  10.961  11.425   1.564  0.3511  0.1472 -0.0751
 5056SOL    HW122218  10.972  11.350   1.505  0.4510  0.7951 -0.9058
 5056SOL    HW222219  10.965  11.501   1.506  1.7190  0.8713  0.9273
 5057SOL     OW22220   8.192   5.080   8.200 -0.0578  0.1337  0.5216
 5057SOL    HW122221   8.242   5.054   8.122 -2.2903 -0.3209 -0.8543
 5057SOL    HW222222   8.227   5.024   8.270 -1.1050 -2.9573 -1.2111
 5058SOL     OW22223   1.126   7.331   9.600  0.0694  0.1302  0.2142
 5058SOL    HW122224   1.080   7.327   9.516 -0.8689  0.1632  0.7128
 5058SOL    HW222225   1.198   7.268   9.590  0.4411  0.6824 -0.8676
 5059SOL     OW22226   8.855   5.681   8.710 -0.2614  0.3458 -0.3911
 5059SOL    HW122227   8.862   5.712   8.619  0.9729 -0.2149 -0.5077
 5059SOL    HW222228   8.893   5.752   8.762  3.3181 -1.0894 -0.7196
 5060SOL     OW22229  10.114   4.641   7.831  0.0808 -0.5556  0.1303
 5060SOL    HW122230  10.136   4.715   7.887 -2.8360  1.7490 -1.5119
 5060SOL    HW222231  10.063   4.583   7.888 -0.0207  0.0969  0.7224
 5061SOL     OW22232   2.091   0.037   7.152 -0.0912  0.3219 -0.3126
 5061SOL    HW122233   2.043   0.038   7.234  1.0501  0.0181  0.3783
 5061SOL    HW222234   2.026   0.010   7.086 -1.2852  1.6495  0.2850
 5062SOL     OW22235   2.311  11.010  11.362  0.1055 -0.1994  0.0108
 5062SOL    HW122236   2.394  11.040  11.398  0.3961 -1.8983  0.8521
 5062SOL    HW222237   2.278  11.084  11.311  1.6885  0.8110  0.4121
 5063SOL     OW22238   9.704  10.041  10.117  0.4178  0.1247  0.1282
 5063SOL    HW122239   9.763  10.089  10.059  0.2402 -0.8805 -0.9289
 5063SOL    HW222240   9.757   9.969  10.152  0.0382 -0.3304 -0.2204
 5064SOL     OW22241  11.636   5.861   2.924  0.0720  0.3082 -0.2532
 5064SOL    HW122242  11.638   5.946   2.967 -0.9083 -0.5412  1.5477
 5064SOL    HW222243  11.558   5.864   2.868 -3.2416 -1.0945  3.7586
 5065SOL     OW22244   5.636   3.093  11.437 -0.1481 -0.3476  0.2353
 5065SOL    HW122245   5.553   3.050  11.455 -1.3002  2.1619  1.3698
 5065SOL    HW222246   5.692   3.069  11.510 -0.1721 -1.2939 -0.0505
 5066SOL     OW22247   4.472  10.928   1.784  0.0448  0.1129  0.3755
 5066SOL    HW122248   4.532  10.920   1.859  0.0570 -0.8675  0.2664
 5066SOL    HW222249   4.472  11.022   1.764  0.5655  0.2963  1.1760
 5067SOL     OW22250   4.891   2.451   1.015  0.4348  0.3115  0.5216
 5067SOL    HW122251   4.886   2.404   1.098  1.6216  1.1099  1.0696
 5067SOL    HW222252   4.976   2.495   1.017 -0.1135  1.4869 -0.4985
 5068SOL     OW22253   3.059   2.784   2.023 -0.7055  0.0395 -0.6193
 5068SOL    HW122254   3.102   2.708   2.061 -2.5890 -1.9024 -2.1060
 5068SOL    HW222255   2.968   2.778   2.054 -0.4609  2.9892  1.0063
 5069SOL     OW22256  12.402   8.714   0.747 -0.0354  0.1285  0.3110
 5069SOL    HW122257  12.480   8.713   0.802 -0.7695  0.0099  1.3915
 5069SOL    HW222258  12.337   8.667   0.798 -1.2579  1.5145  0.0923
 5070SOL     OW22259   8.770   9.374   7.751  0.5459  0.2216  0.0249
 5070SOL    HW122260   8.702   9.437   7.777 -1.1349 -1.7680  0.7181
 5070SOL    HW222261   8.777   9.385   7.656 -2.2862 -0.8774 -0.4050
 5071SOL     OW22262  12.344   1.886  12.438 -0.2805  0.5601  0.5804
 5071SOL    HW122263  12.307   1.854  12.520  1.1747  2.3295  2.0232
 5071SOL    HW222264  12.438   1.870  12.447  0.1982  2.8753  0.3307
 5072SOL     OW22265   6.275   0.412   0.962  0.1614  0.0438  0.1151
 5072SOL    HW122266   6.252   0.320   0.969  0.4640 -0.0849 -0.5638
 5072SOL    HW222267   6.371   0.413   0.959  0.1421  0.3104 -0.7178
 5073SOL     OW22268  11.746   0.857   9.445  0.4389 -0.4539 -0.3547
 5073SOL    HW122269  11.702   0.773   9.431  1.8100 -1.4683  1.0438
 5073SOL    HW222270  11.715   0.887   9.530  1.4814 -0.5576  0.0704
 5074SOL     OW22271   5.676   7.983  11.692 -0.0830  0.6388 -0.0397
 5074SOL    HW122272   5.590   8.002  11.728 -0.0493  0.8348 -0.0578
 5074SOL    HW222273   5.687   7.889  11.701  0.9427  0.9281  2.7612
 5075SOL     OW22274   4.076   9.189  10.258 -0.0416  0.1154  0.3191
 5075SOL    HW122275   4.093   9.147  10.174 -1.1124  0.8327 -0.2859
 5075SOL    HW222276   4.149   9.249  10.270  0.3834 -0.3650  0.1529
 5076SOL     OW22277   7.206  11.100   1.648 -0.4609 -0.1978  0.0755
 5076SOL    HW122278   7.270  11.156   1.605 -1.6438 -0.0996 -1.6461
 5076SOL    HW222279   7.255  11.056   1.718  1.1252  0.8933 -0.3130
 5077SOL     OW22280   8.800   9.740   9.829  0.2927 -0.2369  0.6842
 5077SOL    HW122281   8.728   9.719   9.769  0.5816 -0.4519  0.4115
 5077SOL    HW222282   8.803   9.836   9.830 -0.4725 -0.2100  1.2668
 5078SOL     OW22283   2.732   9.816  12.221 -0.3770 -0.3060 -0.0473
 5078SOL    HW122284   2.824   9.824  12.194  0.1904 -0.9462  1.5513
 5078SOL    HW222285   2.682   9.831  12.141  1.1072  0.4728 -0.8755
 5079SOL     OW22286  12.390   4.213   7.003 -0.2483  0.3301 -0.1754
 5079SOL    HW122287  12.325   4.181   7.065  1.8480 -3.8058  0.2559
 5079SOL    HW222288  12.461   4.246   7.058  0.2554 -0.2790 -0.4535
 5080SOL     OW22289   4.552  10.968  12.010 -0.2417 -0.3407  0.2219
 5080SOL    HW122290   4.634  10.933  11.974  0.8202  0.0237  2.1120
 5080SOL    HW222291   4.553  11.061  11.986  0.5197 -0.0734  1.1772
 5081SOL     OW22292  12.576   6.402   4.970  0.3572 -0.0106 -0.6451
 5081SOL    HW122293  12.549   6.440   5.054  1.0298 -0.1656 -0.3476
 5081SOL    HW222294  12.589   6.477   4.913  0.8662  0.1606 -0.3087
 5082SOL     OW22295   1.997   2.691   5.742 -0.3473 -0.2956  0.6781
 5082SOL    HW122296   1.940   2.622   5.708 -0.1434 -0.9007  1.5346
 5082SOL    HW222297   1.964   2.708   5.830  1.3896 -1.3855  1.6039
 5083SOL     OW22298  11.115   1.847   1.922  0.1063  0.0006  0.4655
 5083SOL    HW122299  11.062   1.910   1.872 -0.6731  1.5565  3.0565
 5083SOL    HW222300  11.083   1.761   1.894 -1.6836  0.8429 -0.2533
 5084SOL     OW22301   1.321  12.582   6.077  0.0871  0.3635 -0.0887
 5084SOL    HW122302   1.324  12.515   6.009 -1.9132  0.8042 -0.6806
 5084SOL    HW222303   1.228  12.592   6.097  0.5446  0.8770  2.1051
 5085SOL     OW22304   4.813   7.126   4.222 -0.2584  0.0077  0.0682
 5085SOL    HW122305   4.829   7.167   4.138  0.7298  1.3468  0.8805
 5085SOL    HW222306   4.851   7.038   4.214 -0.0952  0.1562 -0.8434
 5086SOL     OW22307  11.045   6.214   0.068 -0.2519  0.1461  0.1789
 5086SOL    HW122308  11.135   6.204   0.037 -0.2320 -0.4923  0.4356
 5086SOL    HW222309  11.050   6.201   0.163 -0.5826  0.2946  0.2182
 5087SOL     OW22310   7.158   3.651  10.806  0.8590  0.1802 -0.2882
 5087SOL    HW122311   7.243   3.692  10.822  1.2493  0.1462 -2.0635
 5087SOL    HW222312   7.179   3.564  10.771  0.1943  0.8111 -2.4292
 5088SOL     OW22313   6.895   8.222   9.304 -0.3356 -0.1511 -0.1672
 5088SOL    HW122314   6.948   8.145   9.326  0.2753  0.5118  0.8054
 5088SOL    HW222315   6.960   8.288   9.277 -0.7068  0.4620  0.3975
 5089SOL     OW22316   6.372  11.812   9.761  0.1683 -0.3815 -0.4779
 5089SOL    HW122317   6.438  11.868   9.720  0.2216  1.3169  1.7472
 5089SOL    HW222318   6.414  11.779   9.840 -0.5798 -1.9543 -0.6978
 5090SOL     OW22319   1.030   1.302  11.973 -0.3558  0.3566 -0.0036
 5090SOL    HW122320   0.972   1.303  12.049  0.0370 -1.8000  0.3946
 5090SOL    HW222321   1.086   1.379  11.985 -0.4189  0.1705  1.8247
 5091SOL     OW22322   4.519   9.659   5.775 -0.0678 -0.0881 -0.2577
 5091SOL    HW122323   4.438   9.667   5.723  0.8281  1.0904 -1.5667
 5091SOL    HW222324   4.586   9.701   5.721  1.3885 -0.8294  0.9015
 5092SOL     OW22325   8.928   8.111   9.757  0.2341 -0.0540 -0.1554
 5092SOL    HW122326   9.018   8.135   9.737  0.4287 -0.9261 -0.3472
 5092SOL    HW222327   8.923   8.112   9.852  0.8460 -1.3803 -0.0847
 5093SOL     OW22328   0.486   3.992   7.214  0.2197  0.3980 -0.3914
 5093SOL    HW122329   0.518   4.006   7.125  0.3646  1.1011 -0.2331
 5093SOL    HW222330   0.545   4.042   7.269  0.2303 -0.1681  0.1248
 5094SOL     OW22331   9.058   4.646   5.484  0.2213  0.4982  0.2564
 5094SOL    HW122332   9.128   4.677   5.541  0.2986  1.1283 -0.1640
 5094SOL    HW222333   9.030   4.724   5.436 -0.8439  0.2740  0.4926
 5095SOL     OW22334   2.999   3.889   1.241  0.1218  0.7017  0.1663
 5095SOL    HW122335   2.976   3.981   1.227 -0.1537  0.5932 -0.1071
 5095SOL    HW222336   2.995   3.850   1.153 -1.3406  0.0778  0.4732
 5096SOL     OW22337  11.862   2.165  10.776  0.0265 -0.2038  0.2702
 5096SOL    HW122338  11.836   2.256  10.792  2.2890  0.5392  0.0260
 5096SOL    HW222339  11.945   2.155  10.822 -0.4112 -2.3352  0.7176
 5097SOL     OW22340   4.105   9.167   4.709  0.2043 -0.1037 -0.7234
 5097SOL    HW122341   4.070   9.256   4.697  1.1750  0.1839 -1.5920
 5097SOL    HW222342   4.027   9.111   4.710 -0.4482  0.7884  0.2774
 5098SOL     OW22343   3.071   2.528   1.150 -0.0334 -0.4234  0.2327
 5098SOL    HW122344   3.129   2.603   1.154  0.1218 -0.5247 -0.0799
 5098SOL    HW222345   3.102   2.477   1.075 -0.5322 -0.4696  0.0495
 5099SOL     OW22346   3.857   9.718   2.548  0.3113  0.1202  0.0120
 5099SOL    HW122347   3.841   9.726   2.455  2.2235 -0.4853 -0.4215
 5099SOL    HW222348   3.940   9.669   2.554  0.0653 -0.1473  2.0185
 5100SOL     OW22349   1.046   5.065   1.069  0.2437  0.3042 -0.0465
 5100SOL    HW122350   1.026   5.152   1.036  1.7180 -0.0927 -2.1800
 5100SOL    HW222351   1.139   5.068   1.093  0.7233 -0.9815 -1.4929
 5101SOL     OW22352   3.754   5.100   7.776 -0.6041  0.2280 -0.0902
 5101SOL    HW122353   3.784   5.190   7.764 -0.7081  0.4212  0.9827
 5101SOL    HW222354   3.699   5.104   7.854  2.4328 -1.4221  2.3071
 5102SOL     OW22355   6.711  12.103   7.591 -0.3970  0.1851 -0.5814
 5102SOL    HW122356   6.756  12.064   7.665 -0.6702  0.1101 -0.4515
 5102SOL    HW222357   6.705  12.032   7.527 -2.5509 -0.6003  0.3745
 5103SOL     OW22358   7.481  12.551   3.632  0.2134  0.2369 -0.1087
 5103SOL    HW122359   7.538  12.622   3.603 -0.7090  0.4005 -1.6687
 5103SOL    HW222360   7.399  12.565   3.584 -0.6455 -0.8058  0.9773
 5104SOL     OW22361  10.194   9.797   8.520 -0.1826  0.1034 -0.3442
 5104SOL    HW122362  10.218   9.889   8.512 -1.9939  0.4728 -2.2416
 5104SOL    HW222363  10.194   9.780   8.614  0.4775  1.9306  0.0245
 5105SOL     OW22364  10.220   2.673   2.907  0.0572  0.3924  0.0716
 5105SOL    HW122365  10.229   2.596   2.852 -0.2804  0.5799 -0.2564
 5105SOL    HW222366  10.235   2.747   2.848  0.1961  0.5828  0.3410
 5106SOL     OW22367   9.009   5.542   1.767 -0.4164  0.6567 -0.5422
 5106SOL    HW122368   8.976   5.493   1.842  1.8426  0.1968  0.2420
 5106SOL    HW222369   8.948   5.522   1.696 -1.7227 -0.1562  0.7583
 5107SOL     OW22370  10.632  11.657   6.154  0.2155  0.3075 -0.1460
 5107SOL    HW122371  10.635  11.693   6.065  0.6123 -0.0528 -0.2844
 5107SOL    HW222372  10.700  11.704   6.202 -0.7427  1.2882  0.2795
 5108SOL     OW22373  12.478  10.977  12.498 -0.0432  0.0103 -0.0054
 5108SOL    HW122374  12.451  10.976  12.590  0.3068 -0.8916  0.0973
 5108SOL    HW222375  12.462  10.887  12.467  0.8875  0.0022 -0.5097
 5109SOL     OW22376  12.155  11.317   9.971  0.6324 -0.2611 -0.0191
 5109SOL    HW122377  12.066  11.293   9.945 -0.1567  1.3722  1.0233
 5109SOL    HW222378  12.144  11.389  10.032  2.7045  0.1561 -0.0547
 5110SOL     OW22379   8.626   5.830   2.506  0.4328  0.0436  0.6114
 5110SOL    HW122380   8.721   5.840   2.499  0.3071  0.3741 -1.6006
 5110SOL    HW222381   8.594   5.848   2.417 -1.4191 -3.2966  0.4293
 5111SOL     OW22382   6.972   6.618   8.075 -0.1113  0.0549 -0.1241
 5111SOL    HW122383   7.001   6.581   7.991 -0.3407 -0.6324  0.0944
 5111SOL    HW222384   6.895   6.567   8.098  0.4155 -0.2924  0.9071
 5112SOL     OW22385   2.021   9.729   7.227 -0.2257  0.4387  0.2942
 5112SOL    HW122386   2.094   9.671   7.249 -0.6734 -0.3176 -0.1713
 5112SOL    HW222387   2.026   9.799   7.292 -0.1641 -0.5485  1.3832
 5113SOL     OW22388   1.182  11.629  10.976 -0.0981 -0.7238 -0.9589
 5113SOL    HW122389   1.102  11.585  11.004 -1.4991  1.6103 -0.9561
 5113SOL    HW222390   1.241  11.620  11.051 -0.6723 -1.7330 -0.6024
 5114SOL     OW22391   8.837  10.047   9.803  0.2480  0.3663 -0.3578
 5114SOL    HW122392   8.872  10.136   9.802 -0.4064  0.6573  0.6098
 5114SOL    HW222393   8.914   9.991   9.808  0.6451  0.9315 -0.0126
 5115SOL     OW22394   3.955  12.391   4.386  0.8095  0.3914  0.4861
 5115SOL    HW122395   3.900  12.396   4.465  0.5339 -2.1564  0.5222
 5115SOL    HW222396   3.975  12.298   4.376  0.0952  0.4707 -2.9765
 5116SOL     OW22397   1.279   0.008  10.762  0.3872 -0.0065  0.2194
 5116SOL    HW122398   1.267   0.047  10.675 -1.2151  1.5768  1.0770
 5116SOL    HW222399   1.298   0.083  10.819 -1.4722 -0.5739  1.7118
 5117SOL     OW22400   0.005   3.840   8.331  0.0463  0.5517  0.3413
 5117SOL    HW122401   0.089   3.808   8.364 -0.6140 -0.2584  1.2719
 5117SOL    HW222402   0.029   3.912   8.272  1.4034  0.1477  0.3637
 5118SOL     OW22403   4.659   3.205   0.784 -0.0202  0.6605  0.4936
 5118SOL    HW122404   4.734   3.199   0.844 -0.3287 -1.4046  0.7413
 5118SOL    HW222405   4.584   3.176   0.836 -1.0871  2.8434  0.2918
 5119SOL     OW22406   3.600   3.708   3.044  0.1544 -0.2647  0.2578
 5119SOL    HW122407   3.640   3.787   3.009  0.7650  0.1668  1.8160
 5119SOL    HW222408   3.673   3.658   3.080 -0.5901  0.4989  3.1026
 5120SOL     OW22409   2.338   5.212  12.442 -0.4559 -0.3173 -0.4865
 5120SOL    HW122410   2.416   5.164  12.470 -0.1801  0.2241 -0.3221
 5120SOL    HW222411   2.307   5.256  12.521 -1.4426 -1.2284 -0.3471
 5121SOL     OW22412   9.514   1.297   7.243  0.1495 -0.0962  0.4624
 5121SOL    HW122413   9.579   1.250   7.192 -0.0903 -0.7462  0.7521
 5121SOL    HW222414   9.517   1.387   7.209 -0.2300 -0.5803 -0.9139
 5122SOL     OW22415   0.819   3.145   1.070 -0.5472  0.9825 -0.1032
 5122SOL    HW122416   0.766   3.068   1.091  0.3138  0.6459  0.8812
 5122SOL    HW222417   0.770   3.218   1.108 -0.2661  0.6580  0.9259
 5123SOL     OW22418   8.481   9.655   8.584 -0.1327 -0.6213 -0.0368
 5123SOL    HW122419   8.523   9.707   8.652  1.9279 -0.1486 -1.5775
 5123SOL    HW222420   8.392   9.641   8.616  0.4880  0.3488  2.3025
 5124SOL     OW22421  12.351   3.515   9.206  0.2846  0.4213  0.0393
 5124SOL    HW122422  12.300   3.560   9.274  2.0592  1.7630  0.5514
 5124SOL    HW222423  12.430   3.569   9.195  0.3574 -0.0830 -2.6659
 5125SOL     OW22424  11.228  12.261   1.978  0.0645  0.1676  0.5179
 5125SOL    HW122425  11.269  12.176   1.997  0.4883  0.6001  1.5859
 5125SOL    HW222426  11.138  12.252   2.011 -0.9213 -0.9150 -2.1637
 5126SOL     OW22427   6.478   3.490   0.640 -0.4071 -0.4529 -0.8279
 5126SOL    HW122428   6.447   3.580   0.628  1.6919  0.3354 -0.7119
 5126SOL    HW222429   6.533   3.473   0.563  0.6124 -1.0074  0.0064
 5127SOL     OW22430   8.755   9.201   2.409 -0.2053 -0.4877  0.2076
 5127SOL    HW122431   8.762   9.109   2.434  0.4485 -0.9400 -1.4836
 5127SOL    HW222432   8.846   9.232   2.407 -0.3201 -0.1649 -0.4059
 5128SOL     OW22433  10.315   6.974  10.189  0.5573  0.1711  0.1912
 5128SOL    HW122434  10.274   6.897  10.227  3.3037 -0.9918  1.0694
 5128SOL    HW222435  10.313   7.039  10.258 -2.5531  1.3349 -0.8323
 5129SOL     OW22436   6.586   7.403   1.720 -0.0432  0.0704 -0.1294
 5129SOL    HW122437   6.603   7.369   1.633  1.8294  1.9976 -0.6138
 5129SOL    HW222438   6.491   7.407   1.727 -0.3474 -3.3498 -0.6739
 5130SOL     OW22439   5.008  10.629   3.202 -0.5114  0.8714  0.5652
 5130SOL    HW122440   4.944  10.699   3.184 -1.1761  0.1101 -0.1025
 5130SOL    HW222441   4.970  10.582   3.276 -0.1114  1.1560  0.9530
 5131SOL     OW22442   1.012   2.068   5.831 -0.1643  0.0689 -0.4518
 5131SOL    HW122443   0.919   2.052   5.813 -0.0921 -0.7187 -0.1595
 5131SOL    HW222444   1.012   2.113   5.916 -0.1612 -2.6882  1.1158
 5132SOL     OW22445   0.371   3.996   0.665  0.6150  0.2599 -0.2091
 5132SOL    HW122446   0.307   3.932   0.695  1.6716 -0.5116  0.5105
 5132SOL    HW222447   0.321   4.076   0.651 -0.2880  0.1049  1.7586
 5133SOL     OW22448  12.478  10.952  11.026  0.0400  0.1032  0.0153
 5133SOL    HW122449  12.499  11.044  11.015 -1.8459  0.6329  0.5785
 5133SOL    HW222450  12.394  10.951  11.071  1.0591 -1.8733  2.1418
 5134SOL     OW22451   1.052  10.464   9.824 -0.5235  0.0717  0.8310
 5134SOL    HW122452   1.045  10.532   9.891  0.0204  0.6731  0.3012
 5134SOL    HW222453   1.073  10.512   9.744 -2.7593 -0.4674 -0.1397
 5135SOL     OW22454   8.324   9.000   9.329  0.5592 -0.3515  0.5031
 5135SOL    HW122455   8.395   8.937   9.316 -2.2671 -3.2140 -3.3301
 5135SOL    HW222456   8.267   8.959   9.395 -0.2001 -0.8141 -0.4210
 5136SOL     OW22457   5.497  12.508   5.898 -0.1155 -0.0561 -0.3148
 5136SOL    HW122458   5.559  12.439   5.922  0.6564  0.4175 -0.8898
 5136SOL    HW222459   5.418  12.461   5.869 -0.3159 -0.6569  1.1229
 5137SOL     OW22460  10.722   0.843  10.150 -0.2105  0.7055 -0.2303
 5137SOL    HW122461  10.766   0.852  10.065  0.0422  0.2560 -0.1537
 5137SOL    HW222462  10.629   0.848  10.130 -0.1716 -0.0202 -0.6210
 5138SOL     OW22463   8.691   3.859   9.020  0.4020 -0.6065 -0.4738
 5138SOL    HW122464   8.645   3.818   9.094  1.5775  0.4386  0.9041
 5138SOL    HW222465   8.774   3.888   9.057  0.7393  0.5713 -2.0577
 5139SOL     OW22466   6.417   7.006   2.130  0.0736 -0.1236  0.1230
 5139SOL    HW122467   6.340   7.062   2.127 -1.0411 -1.3674  2.6144
 5139SOL    HW222468   6.432   6.990   2.223  3.2613 -0.1158 -0.2670
 5140SOL     OW22469  12.497   9.639   7.812 -0.3299  0.3026  0.0597
 5140SOL    HW122470  12.538   9.658   7.728 -1.7065  2.2514 -0.2500
 5140SOL    HW222471  12.480   9.545   7.811  1.0097  0.0352 -1.1778
 5141SOL     OW22472   2.260  11.361   0.115  0.2656  0.1394  0.5009
 5141SOL    HW122473   2.185  11.359   0.174 -0.2689  0.8524 -0.1370
 5141SOL    HW222474   2.314  11.433   0.149  0.0582  0.4146  0.2616
 5142SOL     OW22475   5.831  10.894   4.085  0.4318 -0.3453  0.3032
 5142SOL    HW122476   5.897  10.870   4.150  2.3499 -1.3289 -1.8729
 5142SOL    HW222477   5.778  10.815   4.075  0.0622 -0.1560  0.7070
 5143SOL     OW22478   1.416   2.833   8.665  0.1870 -0.5107  0.0258
 5143SOL    HW122479   1.352   2.902   8.685 -1.3037 -1.0832 -2.2880
 5143SOL    HW222480   1.495   2.880   8.639  0.3276  0.2328  1.6979
 5144SOL     OW22481   9.877   7.249   6.621  0.1284  0.7454  0.5386
 5144SOL    HW122482   9.833   7.190   6.560 -0.5305 -0.4972  2.1464
 5144SOL    HW222483   9.859   7.336   6.587 -0.4973  0.1051 -0.8467
 5145SOL     OW22484   1.675   4.014   6.976 -0.1272  0.3828  0.7399
 5145SOL    HW122485   1.746   3.954   6.995 -0.6703  0.0592  1.8490
 5145SOL    HW222486   1.664   4.010   6.881  1.1770  0.2769  0.5828
 5146SOL     OW22487  11.092  12.211   0.654 -0.6835  0.8292 -0.2032
 5146SOL    HW122488  11.086  12.284   0.716 -1.3370 -0.2414  1.0379
 5146SOL    HW222489  11.010  12.162   0.667  1.2722 -2.3000  1.8595
 5147SOL     OW22490  11.235  12.222   6.954 -0.1763 -0.5635 -0.0098
 5147SOL    HW122491  11.310  12.188   7.001  0.0718 -0.7700 -0.5454
 5147SOL    HW222492  11.272  12.258   6.873 -0.5031  0.4270  0.2564
 5148SOL     OW22493   8.357   9.794   6.923 -0.1982 -0.2262 -0.1462
 5148SOL    HW122494   8.445   9.784   6.959 -0.2612  0.8429  0.3490
 5148SOL    HW222495   8.338   9.887   6.933 -1.0256 -0.2828 -1.1015
 5149SOL     OW22496   6.205  10.225  12.035  0.2268 -0.2653  0.7795
 5149SOL    HW122497   6.291  10.265  12.024 -0.0048  0.0150 -0.1008
 5149SOL    HW222498   6.185  10.237  12.128  1.9101 -1.9808  1.4237
 5150SOL     OW22499  11.114  10.486  11.953  0.0407 -0.0024  0.2263
 5150SOL    HW122500  11.186  10.445  12.001 -0.0067  2.0171  2.1588
 5150SOL    HW222501  11.041  10.424  11.963  0.9309 -1.1531 -0.1156
 5151SOL     OW22502   1.183   0.151   5.474 -0.6013  0.0618 -0.0042
 5151SOL    HW122503   1.110   0.103   5.514 -1.4321  1.9681  0.8713
 5151SOL    HW222504   1.251   0.154   5.541 -0.7493  0.5138  0.1314
 5152SOL     OW22505   9.990   0.944   6.933 -0.5265 -0.2767 -0.2749
 5152SOL    HW122506  10.067   0.965   6.879 -0.2881 -4.8105 -2.1466
 5152SOL    HW222507  10.020   0.955   7.023  1.7526 -0.1262 -0.9885
 5153SOL     OW22508   6.946   3.762  10.658 -0.3289  0.0950 -0.5569
 5153SOL    HW122509   7.018   3.749  10.720  1.7715  1.6496 -2.5157
 5153SOL    HW222510   6.884   3.820  10.704  0.0473 -0.6016  0.8643
 5154SOL     OW22511   0.256   9.989   9.593 -0.0765 -0.1706 -0.4318
 5154SOL    HW122512   0.238   9.974   9.500 -0.0189 -0.8447 -0.3464
 5154SOL    HW222513   0.194   9.933   9.639 -0.2336  0.3067 -0.0579
 5155SOL     OW22514  10.865  12.336   2.652 -0.6024  0.5917 -0.2364
 5155SOL    HW122515  10.802  12.341   2.724 -0.9163 -0.1896 -0.4522
 5155SOL    HW222516  10.813  12.357   2.574 -0.6643 -0.3568 -0.4505
 5156SOL     OW22517   0.179   5.016  10.480  0.2866 -0.3535  0.0856
 5156SOL    HW122518   0.178   4.924  10.455 -0.6765 -0.4888  0.5767
 5156SOL    HW222519   0.184   5.015  10.576 -0.1207  0.0924  0.1163
 5157SOL     OW22520   9.322   2.436   0.721 -0.4372 -0.3772 -0.3794
 5157SOL    HW122521   9.270   2.470   0.648  1.2101 -0.2861 -1.5584
 5157SOL    HW222522   9.357   2.353   0.689 -0.7437 -0.9889  0.8098
 5158SOL     OW22523  12.561   9.804   0.645  0.2290  0.0584  0.2565
 5158SOL    HW122524  12.472   9.823   0.614 -0.0720 -2.5826 -0.7728
 5158SOL    HW222525  12.617   9.849   0.582 -0.4001  0.0061 -0.3619
 5159SOL     OW22526   3.072   0.720  12.148  0.2700 -0.5570  0.7303
 5159SOL    HW122527   3.015   0.787  12.187 -0.9719 -2.0263  1.5581
 5159SOL    HW222528   3.154   0.728  12.196  0.5547  1.0817  0.0517
 5160SOL     OW22529  10.111   8.002  10.814  0.1691  0.1960 -0.9894
 5160SOL    HW122530  10.196   7.994  10.857 -0.1428 -0.3412 -0.4568
 5160SOL    HW222531  10.082   8.090  10.837  0.1806  0.0574 -0.4093
 5161SOL     OW22532   1.311  12.565   9.906  0.7448 -0.2608  0.1015
 5161SOL    HW122533   1.401  12.532   9.906  0.9329  0.2478  0.6884
 5161SOL    HW222534   1.301  12.610   9.990  0.0704  0.0372 -0.1291
 5162SOL     OW22535   6.204   8.428   2.271 -0.1530  0.7271  0.0640
 5162SOL    HW122536   6.117   8.454   2.241  0.2138  0.4484 -1.3025
 5162SOL    HW222537   6.263   8.488   2.226  0.3335  1.5599  1.7335
 5163SOL     OW22538  11.981   5.966  11.119 -0.3809 -0.6312 -0.2378
 5163SOL    HW122539  11.949   5.923  11.040  1.0421 -1.4176 -0.4334
 5163SOL    HW222540  12.058   6.014  11.091 -0.3311 -0.2445  0.5229
 5164SOL     OW22541   8.484  12.397   0.024  0.2135  0.6974  0.5238
 5164SOL    HW122542   8.503  12.313   0.066  2.3656  0.3397 -1.0107
 5164SOL    HW222543   8.391  12.392   0.000  0.4385 -1.5238 -0.0971
 5165SOL     OW22544   7.758  11.935  11.056  0.1642 -0.1506 -0.6744
 5165SOL    HW122545   7.726  11.845  11.055 -3.2186  0.8099  1.9528
 5165SOL    HW222546   7.754  11.963  10.964 -2.0347 -1.6617 -1.1112
 5166SOL     OW22547  11.687   3.945   3.247 -1.1030 -0.0268 -0.0231
 5166SOL    HW122548  11.675   3.973   3.156 -0.8297  0.7126  0.1562
 5166SOL    HW222549  11.755   4.003   3.281 -0.9909 -0.4958  0.5678
 5167SOL     OW22550  12.515  12.479   0.774 -0.3404  0.4958  0.0350
 5167SOL    HW122551  12.500  12.559   0.723  0.9082  0.4143 -0.4969
 5167SOL    HW222552  12.576  12.505   0.843  2.1087 -0.4647 -1.6179
 5168SOL     OW22553   8.954   7.657  11.632  0.3052 -0.3443 -0.0227
 5168SOL    HW122554   8.943   7.580  11.688  0.7054  0.1640  0.7826
 5168SOL    HW222555   9.048   7.676  11.636  0.0397  0.9105  0.7911
 5169SOL     OW22556   0.088   7.542  11.625 -0.2403 -0.2221  0.3265
 5169SOL    HW122557   0.052   7.495  11.550 -1.2728  1.4692 -0.2892
 5169SOL    HW222558   0.014   7.556  11.683  0.4838 -1.2152  1.5563
 5170SOL     OW22559   9.910   7.570  11.714  0.5105  0.2664 -0.1734
 5170SOL    HW122560   9.923   7.534  11.802 -0.7199  0.2324  0.0024
 5170SOL    HW222561   9.952   7.507  11.656  1.6678  0.4760  0.3977
 5171SOL     OW22562   1.194   0.072   7.499 -0.5198  0.1373  0.3551
 5171SOL    HW122563   1.182   0.131   7.425 -0.6020 -0.6164 -0.2513
 5171SOL    HW222564   1.200  -0.015   7.459  1.1852 -0.1143  1.1067
 5172SOL     OW22565  11.862   1.432  12.199  0.1114  0.6815 -0.4308
 5172SOL    HW122566  11.787   1.374  12.186  0.1902  0.3593  0.4768
 5172SOL    HW222567  11.832   1.518  12.169 -0.8844  0.7164  0.5771
 5173SOL     OW22568  10.174   5.801   0.479 -0.1210 -0.4627  0.0636
 5173SOL    HW122569  10.192   5.857   0.404 -0.8209  0.8248  0.8172
 5173SOL    HW222570  10.094   5.838   0.517 -0.1553 -1.5023  1.0404
 5174SOL     OW22571  11.304   5.789   4.054  0.5706 -0.1200  0.5318
 5174SOL    HW122572  11.216   5.759   4.031  0.2222  1.4592 -0.3751
 5174SOL    HW222573  11.358   5.766   3.978  0.2743  1.5244 -0.2270
 5175SOL     OW22574   9.250   9.102  11.638  0.2798 -0.4137  0.4344
 5175SOL    HW122575   9.257   9.046  11.560  0.7574  2.4680 -1.7783
 5175SOL    HW222576   9.294   9.184  11.612 -0.3216  0.9886  3.4691
 5176SOL     OW22577  10.773   7.076   9.990 -0.0447  0.2661  0.0616
 5176SOL    HW122578  10.778   7.170  10.010  0.9409  0.3828 -0.6526
 5176SOL    HW222579  10.859   7.055   9.954  0.7331 -1.4839  2.6068
 5177SOL     OW22580   9.507   3.138   2.841 -0.4512  0.4108  0.1784
 5177SOL    HW122581   9.580   3.150   2.902 -0.7574  0.9896  0.4349
 5177SOL    HW222582   9.522   3.051   2.803  0.3769  0.5318  0.2150
 5178SOL     OW22583   4.829   5.814  12.328  0.4652  0.4920  0.0698
 5178SOL    HW122584   4.841   5.827  12.422  0.3745  1.2567 -0.0186
 5178SOL    HW222585   4.741   5.777  12.320  0.5804  0.1610  0.3029
 5179SOL     OW22586   9.720   5.504   3.142  0.4153  0.2401  0.6685
 5179SOL    HW122587   9.798   5.551   3.173  0.6899  0.3474 -0.1499
 5179SOL    HW222588   9.739   5.412   3.159  0.6871  0.2747  0.5648
 5180SOL     OW22589   2.338   2.135   9.054 -0.4205  0.3553  0.3755
 5180SOL    HW122590   2.295   2.191   9.117 -1.0381 -0.2324  0.4867
 5180SOL    HW222591   2.386   2.071   9.107 -1.2204 -0.3533  0.2709
 5181SOL     OW22592  11.301  11.912  12.586 -0.5776 -0.4862  0.0983
 5181SOL    HW122593  11.316  11.959  12.504 -1.4859 -1.0891 -0.4327
 5181SOL    HW222594  11.217  11.946  12.619 -0.8504 -1.1461  0.1134
 5182SOL     OW22595   0.876  11.127   0.869  0.1527 -0.3540 -0.3134
 5182SOL    HW122596   0.783  11.141   0.852  0.3731  1.6509 -0.0432
 5182SOL    HW222597   0.916  11.213   0.858  2.2902 -1.4812 -2.2600
 5183SOL     OW22598   1.897   6.773   9.876  0.1053 -0.0086  0.1468
 5183SOL    HW122599   1.972   6.793   9.819  1.6619  0.9460  2.3794
 5183SOL    HW222600   1.910   6.828   9.953 -2.3205 -0.6721  1.1285
 5184SOL     OW22601   0.168   4.531   2.499 -0.0072  0.2621 -0.0364
 5184SOL    HW122602   0.176   4.515   2.405 -0.3536 -0.2587  0.0196
 5184SOL    HW222603   0.075   4.550   2.512 -0.1310 -0.5787  0.3381
 5185SOL     OW22604   9.780   5.830   7.799 -0.5738 -0.4815  0.1959
 5185SOL    HW122605   9.718   5.878   7.855  2.9552  1.7836  2.5911
 5185SOL    HW222606   9.760   5.738   7.815 -1.6890  0.1162  2.8984
 5186SOL     OW22607   0.194   4.459   0.407  0.6495  0.4665 -0.4665
 5186SOL    HW122608   0.182   4.494   0.318  1.0821  0.9034 -0.3576
 5186SOL    HW222609   0.106   4.455   0.443  0.3548 -0.6039 -1.2429
 5187SOL     OW22610   9.562   2.197   9.478  0.5105  0.5385 -0.5358
 5187SOL    HW122611   9.509   2.162   9.406 -2.2020  1.3106  0.9281
 5187SOL    HW222612   9.543   2.139   9.552  1.8834  0.7493  0.0055
 5188SOL     OW22613   4.072  10.670   5.323  0.1204  1.2576  0.2874
 5188SOL    HW122614   3.989  10.716   5.336  0.0956  1.4080 -0.3587
 5188SOL    HW222615   4.050  10.596   5.266 -0.0346 -0.1736  2.1050
 5189SOL     OW22616  12.061   7.213  11.272 -0.3161 -0.0418  0.4750
 5189SOL    HW122617  12.051   7.155  11.348 -2.1065 -0.7307 -0.2360
 5189SOL    HW222618  12.072   7.300  11.310  1.4399 -0.6812  1.5462
 5190SOL     OW22619   5.843   7.932   3.356  0.0699  0.3658  0.0847
 5190SOL    HW122620   5.885   7.847   3.367  0.0752  0.4582  0.8692
 5190SOL    HW222621   5.755   7.912   3.326 -0.2671  0.0209  1.2519
 5191SOL     OW22622   8.570  11.330  11.585 -0.2653  0.2636 -0.4133
 5191SOL    HW122623   8.503  11.262  11.577  0.9305 -0.9103 -0.7548
 5191SOL    HW222624   8.539  11.387  11.656 -1.5186 -0.3518 -0.4445
 5192SOL     OW22625   0.513   7.380   3.712 -0.1945  0.2841 -0.0302
 5192SOL    HW122626   0.536   7.308   3.770  1.7391  1.4921  0.8194
 5192SOL    HW222627   0.458   7.341   3.645 -0.1046 -1.7331  1.0024
 5193SOL     OW22628   1.586   5.054   0.382 -0.2447 -0.4060  0.1178
 5193SOL    HW122629   1.495   5.054   0.408  0.1523  0.4716  1.6185
 5193SOL    HW222630   1.595   4.979   0.323 -1.8416 -0.6869  0.2091
 5194SOL     OW22631  10.038   0.512   7.381 -0.2238 -0.1715  0.5074
 5194SOL    HW122632  10.094   0.547   7.311  0.4774  2.3091  2.1842
 5194SOL    HW222633   9.956   0.560   7.373  0.2854  1.0162  2.0595
 5195SOL     OW22634   7.871   2.284   9.849  0.6131  0.4556 -0.7235
 5195SOL    HW122635   7.947   2.234   9.878 -0.1537 -1.1153 -1.2842
 5195SOL    HW222636   7.859   2.350   9.917  0.8790 -0.9807  0.8044
 5196SOL     OW22637   1.151   2.888   3.394  0.8147  0.5397  0.3488
 5196SOL    HW122638   1.208   2.819   3.429 -0.1560 -0.5011 -0.0456
 5196SOL    HW222639   1.107   2.846   3.320  1.8046  2.2603 -1.2980
 5197SOL     OW22640  12.391  10.000  11.521 -0.0652 -0.3540  0.0848
 5197SOL    HW122641  12.407  10.028  11.431  0.5698 -1.3051 -0.1150
 5197SOL    HW222642  12.328  10.064  11.555 -1.5382 -0.8727 -1.5297
 5198SOL     OW22643   6.675   4.389   8.105 -0.1937 -0.3390  0.1363
 5198SOL    HW122644   6.649   4.298   8.090 -0.4313 -0.3518  0.5926
 5198SOL    HW222645   6.605   4.441   8.067  0.9760 -0.2773 -2.1034
 5199SOL     OW22646   3.104   4.572  10.909 -0.1981  0.2744 -0.4183
 5199SOL    HW122647   3.112   4.532  10.822  2.1160  1.8209 -1.0000
 5199SOL    HW222648   3.014   4.606  10.912 -0.4740 -0.2569 -1.9883
 5200SOL     OW22649   7.460  10.781  10.698  0.6304 -0.2275 -0.0310
 5200SOL    HW122650   7.511  10.737  10.630  1.8771  1.0903 -0.0142
 5200SOL    HW222651   7.456  10.717  10.770  2.2254 -0.4280 -0.0728
 5201SOL     OW22652  11.196   9.323   5.688  0.6035 -0.3198 -0.0078
 5201SOL    HW122653  11.114   9.368   5.664  1.1100 -0.2750 -1.8340
 5201SOL    HW222654  11.167   9.245   5.736 -0.5189 -0.2675 -0.5572
 5202SOL     OW22655   7.912   3.094   5.900  0.4769 -0.2730 -0.0942
 5202SOL    HW122656   7.967   3.017   5.882 -0.0724 -0.7701  0.2985
 5202SOL    HW222657   7.968   3.169   5.882  0.9393 -0.7695 -0.7407
 5203SOL     OW22658  10.428   0.940   9.547 -0.2823  0.4148 -0.1381
 5203SOL    HW122659  10.431   0.949   9.643 -0.6596 -1.3170  0.0646
 5203SOL    HW222660  10.402   0.849   9.532 -1.0389  0.8711 -1.8957
 5204SOL     OW22661   5.318   2.784   3.627  0.2698  0.2618  0.2197
 5204SOL    HW122662   5.339   2.794   3.720 -0.2737 -1.0357  0.4999
 5204SOL    HW222663   5.265   2.861   3.607  0.1127  0.3896  1.0676
 5205SOL     OW22664   3.548   6.287   8.600 -0.2261 -0.0811  1.3647
 5205SOL    HW122665   3.518   6.212   8.548 -1.0814  2.1679 -1.6166
 5205SOL    HW222666   3.633   6.260   8.634 -0.9294 -2.7400  1.3015
 5206SOL     OW22667   5.790  11.460   3.169 -0.2750 -0.0228 -0.4798
 5206SOL    HW122668   5.768  11.416   3.251 -0.2069  0.1698 -0.3578
 5206SOL    HW222669   5.740  11.413   3.102  0.5885 -0.9488 -0.4923
 5207SOL     OW22670   8.113   2.278   0.440  0.2472  0.9670 -0.0389
 5207SOL    HW122671   8.062   2.347   0.484 -2.3905 -0.0299 -1.2904
 5207SOL    HW222672   8.155   2.323   0.367  1.8762  1.9633  1.4346
 5208SOL     OW22673   0.298   0.415   8.772  0.3236  0.2609 -0.3209
 5208SOL    HW122674   0.328   0.490   8.823 -1.7782  1.1304 -0.2434
 5208SOL    HW222675   0.210   0.440   8.743  0.4203 -1.2932 -2.1487
 5209SOL     OW22676   5.276   9.057   7.361  0.3785  0.1046 -0.1476
 5209SOL    HW122677   5.354   9.077   7.310  0.8715  0.4570  0.7163
 5209SOL    HW222678   5.310   9.034   7.448 -0.4170 -0.8380 -0.0759
 5210SOL     OW22679   5.566   9.130   9.698 -0.2085  0.2413 -0.7349
 5210SOL    HW122680   5.591   9.195   9.764  0.0906  0.4201 -1.0256
 5210SOL    HW222681   5.471   9.136   9.694 -0.1891  0.5917 -0.6925
 5211SOL     OW22682   5.463   9.812   0.134  0.1632 -0.2306 -0.0626
 5211SOL    HW122683   5.381   9.775   0.100  0.6346 -0.6728 -0.7333
 5211SOL    HW222684   5.435   9.885   0.189 -0.6414  0.2346 -1.0589
 5212SOL     OW22685   0.197   6.491  12.384  0.1928  0.6415 -0.2272
 5212SOL    HW122686   0.217   6.585  12.389  1.4112  0.4361 -0.9394
 5212SOL    HW222687   0.129   6.486  12.317  1.0605  0.9065 -1.1582
 5213SOL     OW22688   7.765   9.746   8.135  0.2966  0.7440 -0.3733
 5213SOL    HW122689   7.829   9.795   8.083  1.0096 -0.6138 -0.8341
 5213SOL    HW222690   7.797   9.656   8.133 -1.0086  0.2366  0.3856
 5214SOL     OW22691   2.180   7.125   4.168 -0.1266 -0.2178 -0.4339
 5214SOL    HW122692   2.201   7.102   4.078 -0.2906  0.9497 -0.7813
 5214SOL    HW222693   2.220   7.211   4.181 -2.1433  0.7419 -0.1846
 5215SOL     OW22694   7.065   8.438   0.256 -0.1428  0.2604  0.3622
 5215SOL    HW122695   7.111   8.521   0.247  1.8676 -0.7271  0.8134
 5215SOL    HW222696   7.027   8.441   0.344 -0.7644  0.9925  0.0790
 5216SOL     OW22697   8.629   7.456   6.945  0.2624  0.2105  0.0011
 5216SOL    HW122698   8.654   7.521   7.010 -2.8276 -0.2644  1.8750
 5216SOL    HW222699   8.645   7.372   6.988 -0.0287 -0.1578 -0.5971
 5217SOL     OW22700   6.320  10.300  10.108  0.7409  1.1934  0.4344
 5217SOL    HW122701   6.406  10.265  10.130 -0.0381 -2.0442 -0.9965
 5217SOL    HW222702   6.286  10.239  10.042 -3.3790  1.2598  2.2150
 5218SOL     OW22703   8.209  12.190   4.775  0.6197 -0.1638  0.2642
 5218SOL    HW122704   8.170  12.199   4.688  1.0763  1.5907  0.1983
 5218SOL    HW222705   8.303  12.187   4.759  0.7059  0.1305  0.6834
 5219SOL     OW22706   3.044  11.376   4.230 -0.1014 -0.5789 -0.1126
 5219SOL    HW122707   3.033  11.450   4.290 -1.0637 -0.4843 -0.4010
 5219SOL    HW222708   3.137  11.352   4.239  0.6624  1.7109 -1.2259
 5220SOL     OW22709   3.883   9.497   3.249 -0.6101  0.2008  0.0867
 5220SOL    HW122710   3.969   9.456   3.236 -0.1178  1.4402 -0.7030
 5220SOL    HW222711   3.827   9.425   3.279  1.0559 -0.3176  2.2369
 5221SOL     OW22712   4.379   4.350  10.648 -0.0030  0.0170  0.3350
 5221SOL    HW122713   4.356   4.258  10.663 -1.5828 -0.0381 -1.8758
 5221SOL    HW222714   4.390   4.356  10.553  1.3871  1.8582  0.5508
 5222SOL     OW22715  11.039   5.982  11.812 -0.2237  0.0498  0.1578
 5222SOL    HW122716  10.965   6.010  11.757  0.1942  0.2984 -0.2855
 5222SOL    HW222717  11.049   6.051  11.876 -0.8810 -0.3653  0.7191
 5223SOL     OW22718   9.113  12.417   2.804  0.3457 -0.1343  0.2045
 5223SOL    HW122719   9.058  12.406   2.726  1.1335 -1.7175 -0.1839
 5223SOL    HW222720   9.203  12.411   2.770  0.7190  0.2872  1.0930
 5224SOL     OW22721   9.834   1.401   0.251 -0.0765  0.2321 -0.3935
 5224SOL    HW122722   9.740   1.395   0.268 -0.1161 -0.8630 -0.9137
 5224SOL    HW222723   9.841   1.458   0.174 -0.3207  0.1580 -0.4713
 5225SOL     OW22724   1.623   1.363   9.754 -0.1690  0.7059  0.1694
 5225SOL    HW122725   1.695   1.329   9.807 -1.2912  0.3938  1.5488
 5225SOL    HW222726   1.634   1.319   9.669  1.7359  1.3170  0.0357
 5226SOL     OW22727   9.531   7.355   8.919 -0.3867 -0.2837  0.3989
 5226SOL    HW122728   9.553   7.262   8.913  0.3380 -0.0204 -2.6992
 5226SOL    HW222729   9.453   7.365   8.865  0.7086  1.1776 -1.0115
 5227SOL     OW22730   7.924   2.550   0.581  0.4364 -0.1924  0.2653
 5227SOL    HW122731   7.865   2.624   0.596  0.0325 -0.7712  1.7857
 5227SOL    HW222732   7.942   2.516   0.669  3.4081  0.1996 -0.0887
 5228SOL     OW22733   0.739  12.041   4.976 -0.1421  0.1171  0.6465
 5228SOL    HW122734   0.784  11.976   4.921 -0.3669 -0.4835  1.1636
 5228SOL    HW222735   0.710  12.109   4.914 -1.2180 -1.0008 -0.1190
 5229SOL     OW22736   4.496   0.520   8.886  0.4319 -0.0355  0.0079
 5229SOL    HW122737   4.459   0.577   8.819  0.8976 -1.0614 -1.1691
 5229SOL    HW222738   4.543   0.453   8.837 -0.0718 -1.4277  1.3339
 5230SOL     OW22739   0.201   8.610   9.956  0.5157  0.6413 -0.1659
 5230SOL    HW122740   0.169   8.548  10.022 -2.0721  0.5923 -1.3349
 5230SOL    HW222741   0.176   8.696   9.990  1.8790  0.8882  0.2785
 5231SOL     OW22742   7.905  11.423   6.441  0.4158 -0.5191 -0.0490
 5231SOL    HW122743   7.825  11.467   6.414  0.7234  0.8053  1.0853
 5231SOL    HW222744   7.973  11.460   6.384 -0.0122 -3.4196 -2.7638
 5232SOL     OW22745   7.877   5.712   3.036  0.5168 -0.0498 -0.1104
 5232SOL    HW122746   7.967   5.683   3.053  0.3137 -0.6204  0.0076
 5232SOL    HW222747   7.858   5.773   3.108  0.6200 -0.3493  0.1738
 5233SOL     OW22748  10.387  10.064   8.949  0.6876  0.6425 -0.5114
 5233SOL    HW122749  10.419  10.142   8.995 -0.1274  0.8415 -0.2539
 5233SOL    HW222750  10.429  10.067   8.863 -0.0834  1.9138 -0.8687
 5234SOL     OW22751   0.917   3.936   6.429  0.1577  0.2897  0.1229
 5234SOL    HW122752   0.965   3.943   6.346 -0.7662  2.6797 -0.3018
 5234SOL    HW222753   0.984   3.944   6.497  0.9111 -1.5597 -0.3223
 5235SOL     OW22754   9.572   5.420   3.419  0.0740  0.1969  0.2869
 5235SOL    HW122755   9.658   5.385   3.395 -0.2896  0.4733 -1.5682
 5235SOL    HW222756   9.550   5.376   3.502  1.4442 -0.8037  0.1511
 5236SOL     OW22757   7.647  10.538   6.564 -0.0479  0.2613 -0.2380
 5236SOL    HW122758   7.552  10.550   6.572  0.2007  0.9903  2.3536
 5236SOL    HW222759   7.674  10.501   6.648  2.0731  0.6315 -0.7038
 5237SOL     OW22760   9.848  11.014   2.778 -0.6280 -0.7576 -0.3740
 5237SOL    HW122761   9.869  11.022   2.871 -0.2306 -1.3054 -0.4097
 5237SOL    HW222762   9.786  11.084   2.761 -1.5658 -1.3313  0.5649
 5238SOL     OW22763   8.487   9.425   0.024  0.2629  0.1052  0.3048
 5238SOL    HW122764   8.426   9.481  -0.024  0.3612  0.5193  0.6603
 5238SOL    HW222765   8.493   9.346  -0.029  1.4688  1.1114 -1.1484
 5239SOL     OW22766   6.804   0.392   1.725 -0.0219  0.2278 -0.1636
 5239SOL    HW122767   6.718   0.433   1.734 -0.5951 -0.8808 -0.4568
 5239SOL    HW222768   6.812   0.337   1.803  0.8642  1.0843  0.3757
 5240SOL     OW22769   2.291  10.774   9.671 -0.1062 -0.3575 -0.6019
 5240SOL    HW122770   2.285  10.693   9.722 -2.8915 -0.1471 -0.4968
 5240SOL    HW222771   2.250  10.753   9.587  1.1268  0.3604 -1.4192
 5241SOL     OW22772   1.788   7.917   8.016  0.3195  0.1542  0.1293
 5241SOL    HW122773   1.833   7.980   8.073  0.8345 -0.7846  0.8040
 5241SOL    HW222774   1.856   7.854   7.993 -0.3962 -0.6926  0.2780
 5242SOL     OW22775   7.147   4.293   4.475  0.2215  0.9305 -0.1785
 5242SOL    HW122776   7.126   4.377   4.434  0.5344  0.7364 -0.7361
 5242SOL    HW222777   7.242   4.287   4.472  0.1474 -0.1314 -1.5458
 5243SOL     OW22778   6.248   3.293   7.069  0.9821  0.2204 -0.3894
 5243SOL    HW122779   6.342   3.273   7.068  0.8295 -0.5484  0.0162
 5243SOL    HW222780   6.244   3.387   7.086  1.6807  0.2316 -0.2479
 5244SOL     OW22781   8.771   2.864   5.087  0.3985 -0.0258 -0.0275
 5244SOL    HW122782   8.680   2.836   5.079 -0.0197  0.4489  2.3018
 5244SOL    HW222783   8.822   2.788   5.058 -0.7328 -0.6786 -0.3590
 5245SOL     OW22784  11.765   7.407   1.176  0.6028 -0.0259 -0.2167
 5245SOL    HW122785  11.751   7.448   1.090  1.6020  0.8429  0.0154
 5245SOL    HW222786  11.733   7.318   1.165 -0.6245  0.4930 -1.0611
 5246SOL     OW22787   2.195   2.760   2.612 -1.0328 -0.3202  0.3838
 5246SOL    HW122788   2.144   2.716   2.544  0.1763 -0.2529 -0.5816
 5246SOL    HW222789   2.139   2.833   2.640 -1.1387  0.2723 -1.2651
 5247SOL     OW22790   1.457  10.764   2.585  0.1930 -0.5600  0.0083
 5247SOL    HW122791   1.548  10.793   2.577  0.1571 -0.6393 -0.7295
 5247SOL    HW222792   1.452  10.726   2.673  0.5773  0.4621  0.4944
 5248SOL     OW22793  12.108   3.230   9.783 -0.2027 -0.0215 -0.2736
 5248SOL    HW122794  12.131   3.137   9.774 -0.2883  0.0143 -0.8762
 5248SOL    HW222795  12.029   3.229   9.837  0.2804 -0.2426  0.4417
 5249SOL     OW22796   0.053   3.172   5.567  0.2822 -0.1134 -0.3076
 5249SOL    HW122797   0.067   3.125   5.484 -0.5101 -0.8297 -0.0562
 5249SOL    HW222798   0.141   3.197   5.596  0.5984 -0.2236 -1.1584
 5250SOL     OW22799  10.582   2.285   6.014  0.5062  0.5185 -0.2298
 5250SOL    HW122800  10.516   2.334   5.965  0.4922 -0.3818 -1.1435
 5250SOL    HW222801  10.545   2.198   6.025  1.7428 -0.1816 -1.2512
 5251SOL     OW22802   2.314   1.003   1.533 -0.2679 -0.3183 -0.4942
 5251SOL    HW122803   2.373   0.959   1.472  2.0698  1.9924 -0.0836
 5251SOL    HW222804   2.357   0.996   1.618 -0.5478  1.3933 -0.1754
 5252SOL     OW22805  11.771   7.431   6.057 -0.0472  0.1141  0.3442
 5252SOL    HW122806  11.806   7.421   6.146  0.4238 -2.2099 -0.0487
 5252SOL    HW222807  11.731   7.347   6.037 -0.3160  0.6592 -1.5887
 5253SOL     OW22808   0.105  11.299  10.643  0.0972  0.2502  0.0554
 5253SOL    HW122809   0.012  11.317  10.651 -0.2893 -1.6323  0.3860
 5253SOL    HW222810   0.147  11.384  10.650 -1.5507  1.0549  0.6531
 5254SOL     OW22811  10.369   3.174   8.265  0.2051 -0.2514  0.5277
 5254SOL    HW122812  10.369   3.141   8.175  1.0570  0.2053  0.3509
 5254SOL    HW222813  10.391   3.099   8.319 -0.8442 -0.6569  0.4178
 5255SOL     OW22814   9.685   0.357   1.058 -0.5211  0.2124 -0.0334
 5255SOL    HW122815   9.603   0.312   1.040 -1.9017  1.8143  1.8330
 5255SOL    HW222816   9.753   0.291   1.044 -1.9074 -0.6911 -3.4129
 5256SOL     OW22817  12.433   3.602   8.936 -0.0646 -0.1113 -0.1239
 5256SOL    HW122818  12.464   3.556   9.014  0.7604 -0.0733 -0.4186
 5256SOL    HW222819  12.395   3.533   8.881 -0.3644 -0.1832  0.1658
 5257SOL     OW22820   8.959   6.117   2.957  0.0440 -0.2164  0.7966
 5257SOL    HW122821   8.870   6.145   2.937  0.2921 -1.1851 -2.1948
 5257SOL    HW222822   9.006   6.199   2.973 -1.0065  0.4512  0.5712
 5258SOL     OW22823   4.896   0.083  11.559 -1.4833  0.4989  0.4696
 5258SOL    HW122824   4.942   0.011  11.515 -2.9601  0.1490 -0.5841
 5258SOL    HW222825   4.955   0.109  11.630  0.4355  0.2235 -0.9207
 5259SOL     OW22826   6.457   9.847   6.128  0.6328 -0.7436 -0.0406
 5259SOL    HW122827   6.362   9.855   6.118  0.7028  0.2124  0.0107
 5259SOL    HW222828   6.468   9.777   6.193 -0.0478 -0.3253  0.5420
 5260SOL     OW22829   7.939   1.686   5.452  0.7383 -0.0579 -0.0734
 5260SOL    HW122830   8.013   1.628   5.473 -0.7458 -2.2696 -0.5797
 5260SOL    HW222831   7.916   1.663   5.362 -0.0780  1.1702 -0.1977
 5261SOL     OW22832   4.513   3.205   2.374 -0.1403  0.3235  0.1362
 5261SOL    HW122833   4.487   3.277   2.317 -0.1661 -0.3228 -0.6864
 5261SOL    HW222834   4.607   3.217   2.386 -0.0582  0.2405 -0.3809
 5262SOL     OW22835   5.432   9.884  11.744  0.3223  0.2489  0.3483
 5262SOL    HW122836   5.406   9.815  11.683 -1.1707 -0.4357  1.6922
 5262SOL    HW222837   5.522   9.904  11.720 -0.6279  1.1100 -3.0506
 5263SOL     OW22838  11.002   4.425   2.752  0.6925  0.2847  0.5957
 5263SOL    HW122839  11.040   4.506   2.717  1.4236  0.1172  1.0009
 5263SOL    HW222840  10.927   4.407   2.694 -0.4372  2.0812  1.3997
 5264SOL     OW22841   0.891   6.525   8.249  0.3000  0.9474 -0.0603
 5264SOL    HW122842   0.924   6.489   8.167  0.1092 -2.5633  1.2619
 5264SOL    HW222843   0.809   6.479   8.265  0.9163  0.6102  2.6622
 5265SOL     OW22844   7.630   8.883   1.250 -0.0254  0.2252  0.2142
 5265SOL    HW122845   7.661   8.906   1.338 -1.8861  0.9547  0.7240
 5265SOL    HW222846   7.617   8.788   1.253  0.4210  0.1688  0.5345
 5266SOL     OW22847   4.055   8.677   0.213  0.6012  0.1095  0.2608
 5266SOL    HW122848   3.995   8.741   0.252 -0.5236  0.1991 -1.4872
 5266SOL    HW222849   4.141   8.699   0.248  0.1519  2.2412  0.1508
 5267SOL     OW22850   9.084   7.361   2.878  0.7657  0.5083 -0.0432
 5267SOL    HW122851   9.055   7.407   2.957  1.1269 -0.4714  0.6761
 5267SOL    HW222852   9.084   7.269   2.903  1.8714  0.2713 -0.8656
 5268SOL     OW22853   2.356   4.368  10.729 -0.4259 -0.3178 -0.0246
 5268SOL    HW122854   2.327   4.459  10.723 -1.2976 -0.5826  0.0387
 5268SOL    HW222855   2.437   4.371  10.781 -0.0322  0.4955 -0.6643
 5269SOL     OW22856   4.121  10.707   4.123  0.0155 -0.5305 -0.7285
 5269SOL    HW122857   4.074  10.743   4.198 -1.7914  1.3839 -2.6501
 5269SOL    HW222858   4.076  10.625   4.102 -0.4755 -0.2793 -0.6547
 5270SOL     OW22859  11.119   9.486  10.568 -0.8620 -0.5011 -0.1009
 5270SOL    HW122860  11.162   9.405  10.593 -0.4957 -0.5939 -1.0140
 5270SOL    HW222861  11.146   9.502  10.478 -2.7514 -0.5947 -0.7458
 5271SOL     OW22862  12.526   3.520   7.044  0.1903  0.0549  0.3921
 5271SOL    HW122863  12.550   3.545   6.955  0.8233  1.7619  1.0056
 5271SOL    HW222864  12.444   3.472   7.034  1.0955 -1.2527 -1.2472
 5272SOL     OW22865   0.222   8.842   6.728  0.3973  0.2428  0.0420
 5272SOL    HW122866   0.309   8.802   6.739  0.3483  0.3169  0.7598
 5272SOL    HW222867   0.187   8.802   6.649  1.2983  0.5889 -0.5416
 5273SOL     OW22868  12.269   1.448   5.762  0.0513  0.1260  0.3028
 5273SOL    HW122869  12.323   1.391   5.817 -0.0458 -0.3351 -0.0690
 5273SOL    HW222870  12.286   1.536   5.794  2.3606  0.1760 -0.9177
 5274SOL     OW22871   7.427   3.093   1.438 -0.1960 -0.3089  0.2372
 5274SOL    HW122872   7.481   3.014   1.434 -0.6528 -0.5544 -1.9504
 5274SOL    HW222873   7.419   3.122   1.347  0.1067  2.3891  0.9908
 5275SOL     OW22874   9.394  10.469   6.844  0.1381  0.0956 -0.3883
 5275SOL    HW122875   9.354  10.391   6.883 -1.0228  0.6397 -0.4296
 5275SOL    HW222876   9.367  10.467   6.752  0.4110  0.3458 -0.4753
 5276SOL     OW22877   1.308   5.792   0.316  0.6990 -0.1959 -0.2867
 5276SOL    HW122878   1.253   5.825   0.245  1.3095  0.4210 -0.4895
 5276SOL    HW222879   1.323   5.700   0.295  0.3364 -0.1808 -0.6075
 5277SOL     OW22880   0.345   9.265   5.675  0.0392 -0.2530  0.4035
 5277SOL    HW122881   0.294   9.341   5.647  0.4468 -0.0264  0.2573
 5277SOL    HW222882   0.397   9.297   5.749 -0.6095 -0.6949  1.0634
 5278SOL     OW22883  10.736   1.874   9.078 -0.3651 -0.0908  0.0003
 5278SOL    HW122884  10.770   1.867   8.989  2.0634  1.5564  0.7054
 5278SOL    HW222885  10.683   1.954   9.078  1.4233  1.1437  0.4916
 5279SOL     OW22886   3.318  11.874   5.011 -0.0235 -0.4649  0.2792
 5279SOL    HW122887   3.257  11.803   5.029 -0.0146 -0.2025  1.3633
 5279SOL    HW222888   3.350  11.901   5.097  0.0580  0.7831 -0.1263
 5280SOL     OW22889   0.375   7.675   2.584 -0.3535  0.5024 -0.3968
 5280SOL    HW122890   0.456   7.662   2.634 -0.9571 -1.2838  0.1906
 5280SOL    HW222891   0.306   7.643   2.642 -1.3661  0.9024 -1.3555
 5281SOL     OW22892   0.329   1.997   9.764 -0.1095 -0.1725  0.2477
 5281SOL    HW122893   0.374   2.074   9.799 -0.6170  0.4100 -0.3595
 5281SOL    HW222894   0.247   1.992   9.813 -1.7164  1.7656 -2.0512
 5282SOL     OW22895   0.962   9.865  12.305  0.2883 -0.9314  0.0133
 5282SOL    HW122896   1.056   9.849  12.295  0.5413  0.3067  0.1938
 5282SOL    HW222897   0.934   9.804  12.374  0.8384 -1.6827 -0.4153
 5283SOL     OW22898   4.678   2.754   2.086  0.0584  0.8330  0.3400
 5283SOL    HW122899   4.646   2.816   2.152  0.9730  2.0692 -0.3460
 5283SOL    HW222900   4.768   2.781   2.070  1.3072 -2.1253  1.6891
 5284SOL     OW22901   3.901   9.355   8.887  0.1300  0.5628  0.1499
 5284SOL    HW122902   3.815   9.375   8.850 -0.1564 -0.9021 -0.0260
 5284SOL    HW222903   3.903   9.404   8.970 -0.1667  1.9582 -0.6268
 5285SOL     OW22904   6.379   9.326   2.470  0.4412  0.3813 -0.2854
 5285SOL    HW122905   6.361   9.252   2.528 -0.1428  0.2032 -0.6957
 5285SOL    HW222906   6.475   9.331   2.469  0.4669  0.3585  0.6547
 5286SOL     OW22907   5.047   3.684   5.915 -0.0034 -0.5448 -1.0494
 5286SOL    HW122908   5.081   3.760   5.870 -0.9120  0.2879 -0.3756
 5286SOL    HW222909   5.075   3.609   5.862  0.0665  0.3114 -2.2511
 5287SOL     OW22910   5.413   0.738  10.560 -0.6784  0.8541  0.5760
 5287SOL    HW122911   5.418   0.786  10.643 -0.3257 -0.1715  1.1687
 5287SOL    HW222912   5.357   0.792  10.504  1.4125  3.0693  0.4529
 5288SOL     OW22913   6.489   1.800   3.813  0.0585  0.2993  0.0748
 5288SOL    HW122914   6.415   1.842   3.858 -0.2198 -1.1584  1.0374
 5288SOL    HW222915   6.451   1.762   3.734 -0.3715 -0.9417  0.8536
 5289SOL     OW22916   4.516   4.075   2.322 -0.6248 -0.1155  0.3796
 5289SOL    HW122917   4.472   4.156   2.298  0.4507  0.5507  0.5459
 5289SOL    HW222918   4.547   4.038   2.239 -1.2738 -0.4574  0.2865
 5290SOL     OW22919   8.875   4.537   5.308  0.5694  0.2614 -0.4510
 5290SOL    HW122920   8.804   4.507   5.366  0.1016  0.3199 -0.9798
 5290SOL    HW222921   8.932   4.589   5.365 -0.1301  0.7030 -0.1358
 5291SOL     OW22922  12.272   3.860   4.870  0.4174  0.2807  0.2690
 5291SOL    HW122923  12.227   3.944   4.875 -0.6468 -0.3038  0.6696
 5291SOL    HW222924  12.305   3.856   4.780  0.4646  1.1137  0.2449
 5292SOL     OW22925   3.090   6.405  10.888 -0.4873  0.1700  0.0112
 5292SOL    HW122926   3.005   6.410  10.933 -0.9948  5.4870 -0.8242
 5292SOL    HW222927   3.155   6.415  10.957 -0.8237  0.2484  0.3178
 5293SOL     OW22928   8.162   2.622   1.802 -0.3743  0.4395  0.3252
 5293SOL    HW122929   8.123   2.609   1.716  3.3485  0.8714 -1.6361
 5293SOL    HW222930   8.195   2.712   1.800  0.0694  0.3528  2.1154
 5294SOL     OW22931   2.137   7.735   6.002 -0.4268  0.2219  0.5600
 5294SOL    HW122932   2.060   7.732   6.058  1.0789 -0.6534  2.7489
 5294SOL    HW222933   2.150   7.645   5.972  1.8174 -0.5827  3.4465
 5295SOL     OW22934   9.818   6.576   2.946 -0.2519  0.1221 -0.2081
 5295SOL    HW122935   9.821   6.592   2.852  0.2885 -0.3246 -0.2745
 5295SOL    HW222936   9.837   6.661   2.986  0.6749  0.0763 -0.5224
 5296SOL     OW22937   6.466   3.532   1.501 -0.0130  0.3805 -0.0666
 5296SOL    HW122938   6.399   3.508   1.437 -0.4960 -0.5696  0.7662
 5296SOL    HW222939   6.513   3.451   1.518 -0.0958  0.5496  1.0137
 5297SOL     OW22940   2.383   1.736   6.008 -0.8243 -0.6896 -0.3050
 5297SOL    HW122941   2.296   1.697   5.997 -1.0855 -0.0310 -0.5705
 5297SOL    HW222942   2.386   1.761   6.100 -1.4505  0.5496 -0.6045
 5298SOL     OW22943  10.796   5.271   3.791  0.5001 -0.0203  0.3605
 5298SOL    HW122944  10.856   5.207   3.752  0.9710 -0.0764  1.1498
 5298SOL    HW222945  10.710   5.228   3.788  1.2387 -2.1154  3.7187
 5299SOL     OW22946   7.888   2.879   8.241 -0.4141 -0.5055 -0.7843
 5299SOL    HW122947   7.912   2.887   8.334  2.6489 -1.2426 -1.3958
 5299SOL    HW222948   7.924   2.958   8.200 -0.0934 -1.0764 -1.6203
 5300SOL     OW22949   6.958   8.412  12.140  0.1688 -0.2115 -0.3452
 5300SOL    HW122950   6.876   8.443  12.178 -0.2002 -1.8637  0.3345
 5300SOL    HW222951   6.949   8.425  12.046 -1.3531 -1.3637 -0.3888
 5301SOL     OW22952   0.178   3.811   7.449  0.4196  0.1364 -0.0688
 5301SOL    HW122953   0.246   3.751   7.419 -1.2857 -1.8176 -0.2641
 5301SOL    HW222954   0.098   3.779   7.408 -1.2168  0.2435  2.7608
 5302SOL     OW22955   6.922   1.524   4.476  0.1389  0.1364  0.5461
 5302SOL    HW122956   6.950   1.475   4.398 -1.7529  0.8015 -0.6060
 5302SOL    HW222957   6.966   1.608   4.469 -0.6761  0.5110 -0.2942
 5303SOL     OW22958  12.043   7.703   8.264  0.4828  0.5115 -0.5169
 5303SOL    HW122959  12.093   7.686   8.184 -1.0317 -1.7857 -1.0838
 5303SOL    HW222960  11.951   7.700   8.236 -0.0698  0.2133  1.2069
 5304SOL     OW22961  12.443  11.145   9.752  0.2327 -0.0165  0.1533
 5304SOL    HW122962  12.533  11.115   9.763  0.9312  0.0467 -3.8058
 5304SOL    HW222963  12.390  11.070   9.778  1.4165 -0.4288  1.5346
 5305SOL     OW22964   1.173   0.968   7.141 -0.3393  0.4136 -0.3204
 5305SOL    HW122965   1.190   0.887   7.190  1.3222  0.7224 -0.3319
 5305SOL    HW222966   1.120   1.021   7.200  1.3249  0.6283  1.0740
 5306SOL     OW22967   0.158   1.192   9.708 -0.3396 -0.4055  0.3489
 5306SOL    HW122968   0.252   1.173   9.711 -0.2221 -0.3595 -1.7598
 5306SOL    HW222969   0.146   1.265   9.769  0.7776 -1.1601  1.5104
 5307SOL     OW22970   2.249   4.054   0.808  0.0928  0.3556 -0.5069
 5307SOL    HW122971   2.228   4.054   0.715  2.1590  0.1929 -1.0225
 5307SOL    HW222972   2.300   4.134   0.821 -2.3198  1.7625  1.0806
 5308SOL     OW22973   6.857   4.449   1.824  0.0156 -0.2127  0.2423
 5308SOL    HW122974   6.886   4.483   1.909  1.6857  0.4916 -0.5487
 5308SOL    HW222975   6.931   4.396   1.794 -1.0079 -1.3660 -0.2851
 5309SOL     OW22976   4.502   2.454   6.492 -0.5042  0.0599 -0.2499
 5309SOL    HW122977   4.437   2.521   6.473  0.7005  0.9738 -1.3535
 5309SOL    HW222978   4.452   2.372   6.496 -1.9979  0.9789  1.1067
 5310SOL     OW22979   1.197   9.200  11.154  0.5514  0.0061 -0.0270
 5310SOL    HW122980   1.153   9.128  11.199 -1.1345  1.9151  1.5625
 5310SOL    HW222981   1.242   9.158  11.081 -0.0323 -2.6876  1.0214
 5311SOL     OW22982   1.697   8.768   5.992  0.0447  0.1475 -0.0134
 5311SOL    HW122983   1.724   8.697   5.934 -0.7068 -0.3847  0.2757
 5311SOL    HW222984   1.604   8.752   6.008 -0.2793  1.5126 -0.3917
 5312SOL     OW22985   5.745   9.991   1.522  0.1467 -0.0036 -0.0671
 5312SOL    HW122986   5.718   9.899   1.532 -0.1777  0.1913  1.0026
 5312SOL    HW222987   5.796  10.009   1.601  1.3768  0.3469 -0.9123
 5313SOL     OW22988   8.607   0.801   2.038  0.0625 -0.2738  0.5614
 5313SOL    HW122989   8.621   0.789   2.132 -0.2329 -1.3776  0.4782
 5313SOL    HW222990   8.596   0.896   2.027  0.7283 -0.0718  1.5404
 5314SOL     OW22991   9.530  10.440   0.128  0.5402 -0.9543 -0.6333
 5314SOL    HW122992   9.606  10.386   0.147 -0.5353 -2.3084  0.0176
 5314SOL    HW222993   9.470  10.424   0.201 -0.2257  0.3739 -0.9261
 5315SOL     OW22994   4.589   4.403  12.126  0.3789  0.3097  0.1139
 5315SOL    HW122995   4.641   4.445  12.194  2.0031 -0.6503 -0.4894
 5315SOL    HW222996   4.649   4.393  12.052 -1.2957  1.2002 -1.4587
 5316SOL     OW22997   6.556  12.121   2.178 -0.5689  0.1480  0.6512
 5316SOL    HW122998   6.603  12.199   2.206 -0.3706  0.0570  0.5686
 5316SOL    HW222999   6.569  12.058   2.248  0.6437 -0.3738 -0.0220
 5317SOL     OW23000   5.416  10.409  10.427 -0.2156 -0.3961  0.2996
 5317SOL    HW123001   5.443  10.319  10.409  3.1534  0.6837 -0.8217
 5317SOL    HW223002   5.397  10.446  10.340  4.1641  1.4203 -0.1768
 5318SOL     OW23003  12.135   1.036   8.796 -0.3905  0.6455  0.4210
 5318SOL    HW123004  12.086   1.091   8.856 -1.0100  1.9769 -1.2467
 5318SOL    HW223005  12.184   1.097   8.742  1.7260 -0.5842  0.8194
 5319SOL     OW23006  10.359   9.126  12.238  0.0483  0.0028  0.0173
 5319SOL    HW123007  10.413   9.080  12.174 -1.3858 -0.7817 -0.6609
 5319SOL    HW223008  10.281   9.152  12.190  0.9971  3.7660  0.1644
 5320SOL     OW23009   8.322   5.116   3.003  0.8417 -0.2439  0.6115
 5320SOL    HW123010   8.274   5.134   3.083 -1.3676  0.3101 -0.7615
 5320SOL    HW223011   8.395   5.177   3.004  0.1486  0.5919  1.6216
 5321SOL     OW23012   0.549   3.150  11.708 -0.2311  0.0017  0.3057
 5321SOL    HW123013   0.591   3.200  11.778 -1.3121  2.0058 -0.3753
 5321SOL    HW223014   0.468   3.198  11.690 -0.1737 -0.6485 -2.0457
 5322SOL     OW23015   8.498   4.043   1.693 -0.3501  0.4020  0.3374
 5322SOL    HW123016   8.421   4.087   1.656  0.0119  0.6580 -0.1125
 5322SOL    HW223017   8.471   3.951   1.701  0.0880  0.0041 -2.0696
 5323SOL     OW23018  10.780  10.265   9.520  0.3149  0.3454  0.6407
 5323SOL    HW123019  10.850  10.323   9.489  0.6837 -0.5671 -0.2839
 5323SOL    HW223020  10.751  10.218   9.442 -1.5508  0.9075  0.9574
 5324SOL     OW23021   5.551   7.979  10.628  0.3752  0.1435  0.5016
 5324SOL    HW123022   5.539   8.072  10.610  0.0112 -0.2811 -1.7224
 5324SOL    HW223023   5.488   7.959  10.697  0.3379  1.4878  0.8832
 5325SOL     OW23024   3.449   1.191   9.187 -0.4262 -0.9587  0.6590
 5325SOL    HW123025   3.495   1.258   9.238 -2.7828  1.6636 -0.4533
 5325SOL    HW223026   3.429   1.233   9.104 -2.9382 -2.6597  0.2965
 5326SOL     OW23027   4.553   7.126   1.185  0.1343 -0.0653 -0.0719
 5326SOL    HW123028   4.489   7.128   1.115  0.9517 -0.8943 -0.8747
 5326SOL    HW223029   4.573   7.033   1.197  0.1192  0.0701  1.1701
 5327SOL     OW23030   8.953  10.051   8.615  0.4542 -0.2915 -0.2491
 5327SOL    HW123031   8.957  10.025   8.707  1.8660 -0.6067 -0.3689
 5327SOL    HW223032   9.039  10.090   8.598  0.8120 -1.6583 -1.8276
 5328SOL     OW23033   8.255   1.435   8.969 -0.3648  0.1813  0.5856
 5328SOL    HW123034   8.249   1.410   9.061 -0.4192 -0.8088  0.3244
 5328SOL    HW223035   8.198   1.511   8.961  0.6459  1.0943  1.6383
 5329SOL     OW23036   0.629   1.060   4.436  0.2163  0.0780  0.2126
 5329SOL    HW123037   0.610   1.103   4.519 -2.0864  0.3730 -0.4032
 5329SOL    HW223038   0.598   1.122   4.369  1.7864 -0.2574 -0.8931
 5330SOL     OW23039  12.311   5.807  12.212 -0.4260 -0.3411  0.1802
 5330SOL    HW123040  12.404   5.789  12.226 -0.0148 -1.3924 -3.0443
 5330SOL    HW223041  12.309   5.867  12.137 -2.3552  0.9591  1.1919
 5331SOL     OW23042   1.130   7.319   7.550 -0.6604 -0.3871 -0.5280
 5331SOL    HW123043   1.213   7.273   7.565  0.2986  1.5657  0.5320
 5331SOL    HW223044   1.156   7.404   7.514 -2.2931 -0.1846 -1.3210
 5332SOL     OW23045   0.244   9.192  12.383  0.5386 -0.4647 -0.7570
 5332SOL    HW123046   0.226   9.114  12.330  0.1679 -0.7414 -0.2346
 5332SOL    HW223047   0.159   9.214  12.421  1.0942 -1.2768  1.0736
 5333SOL     OW23048   4.046  11.651  10.274 -0.0684  0.5576 -0.1046
 5333SOL    HW123049   3.984  11.721  10.253  0.9492  0.7163 -2.9622
 5333SOL    HW223050   4.132  11.689  10.259  0.6594 -0.5033  1.1192
 5334SOL     OW23051   8.855   6.395   8.665 -0.1739 -0.1870  0.0662
 5334SOL    HW123052   8.786   6.423   8.725  1.3685  1.2120  1.3023
 5334SOL    HW223053   8.922   6.464   8.672  1.5609 -1.7096 -0.7114
 5335SOL     OW23054  11.680   0.188   8.303  0.2630 -0.2695 -0.1582
 5335SOL    HW123055  11.656   0.240   8.380 -2.1319 -0.7816 -0.4934
 5335SOL    HW223056  11.706   0.253   8.237  0.1465  0.3184  0.3692
 5336SOL     OW23057  10.090   2.728   1.139  0.0247 -0.7292  0.3141
 5336SOL    HW123058  10.080   2.635   1.160  0.4320 -0.9816 -0.6000
 5336SOL    HW223059  10.173   2.753   1.180 -1.2773 -0.0924  2.7988
 5337SOL     OW23060   3.468   7.368   4.172  0.2271  0.6142  0.3604
 5337SOL    HW123061   3.488   7.429   4.101  0.0670  2.3769  1.7512
 5337SOL    HW223062   3.490   7.282   4.137  0.4607  1.4581 -1.6916
 5338SOL     OW23063   9.911   1.413   5.917 -0.5339  0.4341 -0.4144
 5338SOL    HW123064   9.860   1.470   5.860 -2.0601  0.9140  1.3311
 5338SOL    HW223065   9.869   1.328   5.909  0.8323 -0.1646 -1.8774
 5339SOL     OW23066   5.921   9.011   7.102  0.0142 -0.1339 -0.2099
 5339SOL    HW123067   5.967   8.948   7.158  0.7945  2.1333  1.9147
 5339SOL    HW223068   5.974   9.015   7.022  1.5855 -0.1517  0.7688
 5340SOL     OW23069   2.680   1.227   3.169 -0.2327 -0.2590  0.0139
 5340SOL    HW123070   2.634   1.147   3.195 -0.9681 -0.0014 -0.4684
 5340SOL    HW223071   2.611   1.285   3.137  0.4987 -0.0889 -1.3125
 5341SOL     OW23072   9.090   1.569   5.071  0.6058  0.1110 -0.0180
 5341SOL    HW123073   9.021   1.516   5.110  1.1162 -0.7874 -0.3085
 5341SOL    HW223074   9.134   1.609   5.146  0.4339 -0.1544  0.2300
 5342SOL     OW23075   4.181   2.831   9.820 -0.6195  0.3955  0.1349
 5342SOL    HW123076   4.187   2.736   9.815 -0.4005  0.4443 -0.6023
 5342SOL    HW223077   4.268   2.860   9.848  0.8148  0.6403 -3.8929
 5343SOL     OW23078   7.826   6.034  11.396 -0.0590  0.0917 -0.1479
 5343SOL    HW123079   7.878   5.975  11.450 -2.6851 -0.7949  1.5774
 5343SOL    HW223080   7.837   6.120  11.437 -0.9918 -0.3413  1.0641
 5344SOL     OW23081   7.071   9.689   0.599  0.2951 -0.3671  0.1727
 5344SOL    HW123082   7.036   9.770   0.562 -1.6136 -0.1367  2.2403
 5344SOL    HW223083   7.166   9.701   0.599  0.0492  1.9349  0.5069
 5345SOL     OW23084  11.803   4.597  10.095 -0.8521  0.3106  0.0749
 5345SOL    HW123085  11.825   4.635  10.010  0.3550  0.1087  0.2698
 5345SOL    HW223086  11.744   4.660  10.135  0.3168  1.5136 -0.0148
 5346SOL     OW23087   1.655   1.636   6.503  0.0019 -0.2851  0.1652
 5346SOL    HW123088   1.649   1.726   6.534  0.8088 -0.3713  0.6146
 5346SOL    HW223089   1.582   1.626   6.442 -1.0659  0.1799  1.3248
 5347SOL     OW23090   4.092   0.895  10.455 -0.3109 -0.1151  0.0081
 5347SOL    HW123091   4.027   0.854  10.398 -1.4777  0.9552  0.5183
 5347SOL    HW223092   4.070   0.866  10.543  0.6140 -0.6336  0.0843
 5348SOL     OW23093  10.150   6.145   7.430  0.3697 -0.0145  0.2296
 5348SOL    HW123094  10.105   6.191   7.359  0.1912 -0.8565 -0.2198
 5348SOL    HW223095  10.118   6.187   7.510  0.9256  1.2466 -0.1991
 5349SOL     OW23096   2.985   9.899   9.410 -0.2507  0.3112  0.3383
 5349SOL    HW123097   2.953   9.970   9.355 -1.7624  0.2181  1.0437
 5349SOL    HW223098   2.964   9.928   9.500 -0.1174 -0.6496  0.6842
 5350SOL     OW23099   0.278   2.953  11.382 -0.8591 -0.1807  0.1132
 5350SOL    HW123100   0.233   3.033  11.409  0.3663  0.2564  0.8978
 5350SOL    HW223101   0.331   2.928  11.457  1.3177  0.1109 -1.2473
 5351SOL     OW23102  10.944   0.682   8.824  0.2512 -0.0964 -0.0434
 5351SOL    HW123103  10.909   0.621   8.759 -1.2154  0.5298  0.1312
 5351SOL    HW223104  10.868   0.729   8.857  1.2326  1.1499  0.5393
 5352SOL     OW23105   7.062   6.192   2.995  0.0546  0.4095  0.2451
 5352SOL    HW123106   7.142   6.191   2.943  0.1278 -1.6153  0.3238
 5352SOL    HW223107   7.090   6.225   3.081  0.1663  2.5978 -0.5907
 5353SOL     OW23108   3.358   8.043   8.059 -0.2058 -0.4209  0.6471
 5353SOL    HW123109   3.330   7.960   8.098  0.4470 -0.0992  1.8420
 5353SOL    HW223110   3.278   8.080   8.021 -0.6075 -1.3246  0.5804
 5354SOL     OW23111   9.123   9.121   7.214 -0.5898 -0.0187 -0.3689
 5354SOL    HW123112   9.191   9.074   7.165 -0.5607  0.8834 -1.2309
 5354SOL    HW223113   9.096   9.060   7.282  0.8490 -0.5196 -0.2157
 5355SOL     OW23114   3.778  10.675   7.435  0.0953 -0.1563 -0.0201
 5355SOL    HW123115   3.784  10.707   7.525  1.9658 -0.6416  0.0641
 5355SOL    HW223116   3.785  10.580   7.443  0.1814 -0.2066 -0.6865
 5356SOL     OW23117   9.093  11.290   6.588  0.0276 -0.1112 -0.2804
 5356SOL    HW123118   9.057  11.249   6.666 -0.4857  1.0355  0.1012
 5356SOL    HW223119   9.098  11.218   6.524 -1.0036 -0.7279  0.3063
 5357SOL     OW23120   1.598   1.702  10.325 -0.6014 -0.2592  0.0150
 5357SOL    HW123121   1.584   1.797  10.327 -0.6392 -0.1842 -1.7678
 5357SOL    HW223122   1.688   1.690  10.355 -0.7529  0.2881  0.7088
 5358SOL     OW23123   1.674   0.637   2.045  0.0075  0.0653  0.3122
 5358SOL    HW123124   1.645   0.571   1.982 -1.9299  0.5019  0.6731
 5358SOL    HW223125   1.593   0.679   2.073  0.7328 -0.4095  3.4391
 5359SOL     OW23126   9.984   1.628   1.898 -0.0627  0.2601 -0.2665
 5359SOL    HW123127  10.056   1.574   1.864  1.1836  1.2598  0.6517
 5359SOL    HW223128   9.924   1.638   1.824  0.7410 -0.6041 -1.0651
 5360SOL     OW23129   7.861   8.338   1.081 -0.3245  0.4336  0.4888
 5360SOL    HW123130   7.783   8.306   1.035 -0.9198  0.9647  1.0978
 5360SOL    HW223131   7.935   8.300   1.034 -0.9795 -2.2957  1.4779
 5361SOL     OW23132   1.451   6.633   4.326  0.1547  0.2212  0.1665
 5361SOL    HW123133   1.434   6.727   4.320  0.7071  0.2540 -1.2746
 5361SOL    HW223134   1.386   6.601   4.389 -1.7497  1.1443 -1.2299
 5362SOL     OW23135   2.256   3.901   5.156 -0.4648 -0.0699 -0.7595
 5362SOL    HW123136   2.307   3.941   5.087 -1.0359  1.2311 -0.4536
 5362SOL    HW223137   2.171   3.883   5.116 -0.0701 -1.4417 -1.0268
 5363SOL     OW23138   6.826  10.711  12.536 -0.2221 -0.2575 -0.3293
 5363SOL    HW123139   6.876  10.643  12.581 -1.8175 -0.8012  0.7177
 5363SOL    HW223140   6.735  10.679  12.537 -1.0463  1.9114  0.2391
 5364SOL     OW23141   2.067   9.734  12.274  0.3926 -0.0655 -0.3212
 5364SOL    HW123142   2.112   9.809  12.312 -0.6656  0.8189 -0.7575
 5364SOL    HW223143   2.137   9.681  12.235  1.0726  1.1686 -0.8095
 5365SOL     OW23144   4.558  10.143   8.991 -0.0323  0.2165  0.1410
 5365SOL    HW123145   4.642  10.103   9.013  1.0615  2.1300 -0.3743
 5365SOL    HW223146   4.532  10.100   8.910  0.6194 -0.1497  0.1216
 5366SOL     OW23147   2.234   4.329  10.460  0.2790  0.0461 -0.5288
 5366SOL    HW123148   2.178   4.255  10.436 -1.3835  1.3808 -0.9224
 5366SOL    HW223149   2.236   4.329  10.555 -1.5714  0.7672 -0.4484
 5367SOL     OW23150   6.475  11.553   7.435  0.0077  0.2141 -0.2216
 5367SOL    HW123151   6.431  11.495   7.373 -0.3237  0.7295 -0.4772
 5367SOL    HW223152   6.522  11.494   7.494 -1.3102 -0.3643  0.2830
 5368SOL     OW23153   0.719   1.109   7.969 -0.2772  0.4237 -0.2334
 5368SOL    HW123154   0.775   1.168   7.918 -0.4610  0.2132 -0.6826
 5368SOL    HW223155   0.780   1.045   8.007 -0.2942 -0.3096 -1.4089
 5369SOL     OW23156   2.143   2.791   0.281  0.2643 -0.4373  0.5786
 5369SOL    HW123157   2.234   2.777   0.255  0.7854  0.3781  1.8696
 5369SOL    HW223158   2.122   2.879   0.250  0.2044 -0.2811  1.0527
 5370SOL     OW23159   5.916   0.367   0.474  0.2574  0.0972 -0.1556
 5370SOL    HW123160   6.009   0.371   0.498  0.1208  1.7878  0.2586
 5370SOL    HW223161   5.871   0.342   0.555  0.1854  1.5194  0.2803
 5371SOL     OW23162   0.977   0.146   5.105 -0.0588 -0.1308 -0.3770
 5371SOL    HW123163   0.911   0.077   5.116 -0.1184  0.2958  3.0764
 5371SOL    HW223164   1.057   0.100   5.080 -0.6928 -1.1196 -0.6235
 5372SOL     OW23165  11.790   9.972   1.237 -0.4354  0.2717 -0.5507
 5372SOL    HW123166  11.800   9.925   1.154  0.7721  1.2626 -0.9923
 5372SOL    HW223167  11.875  10.014   1.251 -0.3037 -0.6435  1.6778
 5373SOL     OW23168   5.319   3.580  12.259 -0.4170 -0.3159  0.1522
 5373SOL    HW123169   5.402   3.575  12.305  0.7403  0.9873 -1.6268
 5373SOL    HW223170   5.274   3.655  12.298  0.5901  0.8340 -0.7949
 5374SOL     OW23171   4.566  11.115   3.515 -0.0402  0.3019  0.1182
 5374SOL    HW123172   4.657  11.087   3.501 -0.5592 -2.8299  2.0617
 5374SOL    HW223173   4.547  11.172   3.440  3.2282  0.3900 -0.8002
 5375SOL     OW23174   0.185   7.801   4.596 -0.6242 -0.5191  0.2330
 5375SOL    HW123175   0.238   7.733   4.636  0.3441 -0.1547 -0.3956
 5375SOL    HW223176   0.246   7.850   4.541 -1.2066  1.1220  0.9865
 5376SOL     OW23177   5.216   8.099   9.266 -0.0689  0.0710 -0.2662
 5376SOL    HW123178   5.180   8.016   9.297  0.6954 -0.4110 -0.6207
 5376SOL    HW223179   5.208   8.094   9.170 -0.5554  0.6666 -0.2625
 5377SOL     OW23180   4.577   0.711   4.928 -0.3019  0.0389  0.2537
 5377SOL    HW123181   4.636   0.779   4.894  0.8447 -0.3920  1.3073
 5377SOL    HW223182   4.591   0.636   4.871  0.5361 -0.2148  0.7827
 5378SOL     OW23183   0.955   8.222   7.098  0.7682  0.4092 -0.2233
 5378SOL    HW123184   0.977   8.130   7.112  0.6531  0.5872  1.3542
 5378SOL    HW223185   0.866   8.221   7.062  0.7109 -0.0959 -0.0697
 5379SOL     OW23186   7.433   4.932   2.631 -0.4675  0.0272  0.2844
 5379SOL    HW123187   7.423   4.888   2.546 -1.2145  1.4236 -0.3864
 5379SOL    HW223188   7.526   4.955   2.634  0.0356 -1.9077  0.8433
 5380SOL     OW23189   4.130   9.451   0.350  0.1111  0.3276  0.2133
 5380SOL    HW123190   4.111   9.443   0.444  0.2925  1.2179  0.3383
 5380SOL    HW223191   4.071   9.520   0.319  1.1406  1.1498  0.0194
 5381SOL     OW23192   0.511   7.712   1.285 -0.6727  0.2853  0.0505
 5381SOL    HW123193   0.591   7.749   1.323 -0.1709  0.3097 -0.9939
 5381SOL    HW223194   0.477   7.654   1.353 -0.4367  1.1973  0.9775
 5382SOL     OW23195   8.166   4.217   8.458  0.1032  0.4673 -1.2930
 5382SOL    HW123196   8.262   4.218   8.453  0.1082 -1.0850 -1.9671
 5382SOL    HW223197   8.146   4.261   8.540  1.2658  3.0577 -2.2823
 5383SOL     OW23198   3.314   3.996   2.976  0.7421  0.0101  0.1477
 5383SOL    HW123199   3.234   4.018   2.928  0.8172  0.2173  0.1182
 5383SOL    HW223200   3.345   4.079   3.011  0.4318 -0.2027  0.9525
 5384SOL     OW23201  11.266   1.767   7.711  0.1601 -0.1306  0.1474
 5384SOL    HW123202  11.356   1.795   7.696  0.5833 -0.0134  2.5336
 5384SOL    HW223203  11.243   1.717   7.633  2.2518 -0.0868 -0.5504
 5385SOL     OW23204   9.920   4.928  12.044 -0.3647  0.3090  0.4129
 5385SOL    HW123205   9.962   5.012  12.025  0.3316 -0.4329 -1.6179
 5385SOL    HW223206   9.992   4.867  12.058 -0.6801 -0.7411 -1.9902
 5386SOL     OW23207   2.804   8.584   0.448  0.2620 -0.0013 -0.0457
 5386SOL    HW123208   2.718   8.622   0.468  0.1839 -0.0189 -0.3362
 5386SOL    HW223209   2.830   8.625   0.366 -1.0231 -2.4323 -1.8239
 5387SOL     OW23210  10.560   4.954   7.963 -0.6084  0.4615  0.5081
 5387SOL    HW123211  10.498   4.953   7.890  0.4530  2.6793 -0.5438
 5387SOL    HW223212  10.509   4.983   8.038 -1.4057 -0.4020  0.3127
 5388SOL     OW23213   3.218   8.881  11.688 -0.0599  0.1848  0.0253
 5388SOL    HW123214   3.150   8.911  11.748 -0.0477 -0.0347  0.1507
 5388SOL    HW223215   3.296   8.872  11.742  1.2656  4.3607 -0.7950
 5389SOL     OW23216   0.086   0.570   6.963 -0.0292 -0.2809 -0.4343
 5389SOL    HW123217   0.053   0.533   7.045 -0.3959  0.4111 -0.2684
 5389SOL    HW223218   0.122   0.494   6.917  0.4237 -0.6377  0.4732
 5390SOL     OW23219   5.753   1.836   8.994  0.0137  0.3128 -0.0390
 5390SOL    HW123220   5.782   1.758   9.041 -0.3421 -0.2595 -0.7551
 5390SOL    HW223221   5.741   1.807   8.904 -0.6117  1.0802 -0.2126
 5391SOL     OW23222   0.750   4.547  11.504 -0.0111  0.2804 -0.3812
 5391SOL    HW123223   0.689   4.565  11.432 -1.0613  2.2684  0.9079
 5391SOL    HW223224   0.751   4.628  11.555 -0.2318 -1.4085  2.5234
 5392SOL     OW23225  11.942   4.346   3.958  0.5184  0.1716  0.6553
 5392SOL    HW123226  12.019   4.323   3.905 -0.3693 -0.5803 -0.3417
 5392SOL    HW223227  11.899   4.263   3.977 -0.9726  0.7003 -0.2404
 5393SOL     OW23228   0.084   5.015   6.443  0.1131  0.4816 -0.4150
 5393SOL    HW123229   0.125   5.091   6.401  0.7222 -1.3037 -3.3448
 5393SOL    HW223230   0.144   4.991   6.513  1.2239  1.2134 -1.0856
 5394SOL     OW23231   2.459   3.145   5.438 -0.3249 -0.2080 -0.2830
 5394SOL    HW123232   2.490   3.193   5.360 -2.5518  0.6393 -0.7229
 5394SOL    HW223233   2.415   3.068   5.402  1.5021 -1.6138  0.3471
 5395SOL     OW23234   5.190   6.088   4.824 -0.8950  0.2683 -0.1632
 5395SOL    HW123235   5.172   6.039   4.744  0.2206  0.4312 -0.5353
 5395SOL    HW223236   5.182   6.180   4.797  1.3233  0.3915 -0.6148
 5396SOL     OW23237   1.130  10.703   6.844  0.4190  0.1838 -0.1635
 5396SOL    HW123238   1.143  10.753   6.924 -0.5822 -0.8697  0.7059
 5396SOL    HW223239   1.171  10.618   6.861 -0.1109 -0.1783 -0.6125
 5397SOL     OW23240   1.328   5.498   0.295 -0.0093  0.0256 -0.0756
 5397SOL    HW123241   1.383   5.429   0.330  0.5636  0.1319 -0.7248
 5397SOL    HW223242   1.243   5.487   0.338  0.1592 -0.8973  0.0354
 5398SOL     OW23243  11.780  12.076   1.646  0.2070  0.2142  0.1314
 5398SOL    HW123244  11.706  12.137   1.650 -0.0787 -0.1867  1.1903
 5398SOL    HW223245  11.824  12.097   1.563 -0.3092  1.3558  0.1319
 5399SOL     OW23246  11.620   8.412   5.027 -0.3911  0.1370  0.0736
 5399SOL    HW123247  11.630   8.508   5.026  0.3217  0.0813  0.8642
 5399SOL    HW223248  11.571   8.393   4.947  0.1807  1.0877 -0.5335
 5400SOL     OW23249   2.451   4.785   5.763 -0.1089 -0.1197  0.4334
 5400SOL    HW123250   2.425   4.864   5.811 -0.0425  0.0697  0.1599
 5400SOL    HW223251   2.420   4.712   5.818 -2.5378  0.0721 -0.5283
 5401SOL     OW23252   3.382   6.777   6.643  0.0852 -0.0466 -0.0661
 5401SOL    HW123253   3.446   6.823   6.588 -0.2089  0.7093  0.2118
 5401SOL    HW223254   3.299   6.820   6.624 -0.2663 -0.7235 -0.0825
 5402SOL     OW23255   8.673  12.073   3.744 -0.0701  0.2686  0.3488
 5402SOL    HW123256   8.686  12.168   3.754 -1.1485  0.2523  2.5091
 5402SOL    HW223257   8.620  12.064   3.665  1.8764  1.2541 -1.1539
 5403SOL     OW23258  11.313   0.844   5.314 -0.2364 -0.3461 -0.4426
 5403SOL    HW123259  11.396   0.874   5.351 -0.3481 -0.4206 -0.1281
 5403SOL    HW223260  11.296   0.761   5.357 -2.1827  1.2277  2.1091
 5404SOL     OW23261   2.428   1.701  10.363 -0.5147  0.6802 -0.3361
 5404SOL    HW123262   2.492   1.631  10.372  0.2451  1.5551  1.5990
 5404SOL    HW223263   2.393   1.714  10.451 -1.4987  1.9340 -0.8748
 5405SOL     OW23264   5.463   9.784  12.109 -0.0488  0.2944  0.3889
 5405SOL    HW123265   5.471   9.721  12.037 -2.0519 -1.1564  1.3448
 5405SOL    HW223266   5.394   9.844  12.081  1.1482  1.4895 -0.0787
 5406SOL     OW23267   0.806  12.205   6.846 -0.3092 -0.1667  0.1069
 5406SOL    HW123268   0.810  12.110   6.837 -3.8329 -0.4811  0.4032
 5406SOL    HW223269   0.859  12.239   6.774  1.8315 -2.2778  0.5570
 5407SOL     OW23270   5.518   1.240   2.126 -0.3659 -0.2825  0.0340
 5407SOL    HW123271   5.576   1.220   2.053  1.0079 -1.4932  1.3910
 5407SOL    HW223272   5.554   1.320   2.165  0.4347 -1.0333  0.8758
 5408SOL     OW23273   6.782   3.765   8.034  0.1241  0.2360  0.2238
 5408SOL    HW123274   6.697   3.790   7.996 -0.2970  2.0868  2.2013
 5408SOL    HW223275   6.759   3.721   8.116  1.0610 -1.2533 -0.2769
 5409SOL     OW23276   5.418   0.700   5.097  0.4209 -0.2582 -0.0470
 5409SOL    HW123277   5.396   0.760   5.026  2.0480 -0.6069 -0.8958
 5409SOL    HW223278   5.399   0.750   5.177 -0.5157  0.4943 -0.7070
 5410SOL     OW23279   8.010   4.478  11.051 -0.2395  0.0211  0.2129
 5410SOL    HW123280   8.002   4.423  11.129  1.1239  1.0005  1.0719
 5410SOL    HW223281   7.944   4.547  11.063  0.4152  0.5481  0.8352
 5411SOL     OW23282   3.093   4.820   2.643 -0.0514  0.3061  0.3347
 5411SOL    HW123283   3.085   4.903   2.595  2.0377 -1.0173 -2.5950
 5411SOL    HW223284   3.008   4.778   2.631 -0.5499  1.2685  0.3594
 5412SOL     OW23285   3.669   1.372  10.665 -0.8329 -0.1408 -0.2583
 5412SOL    HW123286   3.674   1.374  10.760  0.8411 -0.4671 -0.3013
 5412SOL    HW223287   3.638   1.459  10.640  0.5148  0.6127  0.5444
 5413SOL     OW23288   4.625   2.844   0.039  0.1391  0.2007 -0.1409
 5413SOL    HW123289   4.698   2.827   0.098  1.1188  5.2139  0.5671
 5413SOL    HW223290   4.550   2.859   0.097 -0.6575 -1.5550 -0.6693
 5414SOL     OW23291   8.080   6.778   8.020  0.1873 -0.0751 -0.2423
 5414SOL    HW123292   8.078   6.786   7.925  1.6665 -0.3768 -0.3259
 5414SOL    HW223293   8.145   6.843   8.048 -0.1032 -0.1126  0.5362
 5415SOL     OW23294   4.240   3.023   5.727 -0.3486  0.1037  0.5019
 5415SOL    HW123295   4.314   3.068   5.687 -1.0100  1.2311  0.4991
 5415SOL    HW223296   4.257   2.930   5.711  0.5357  0.3991 -0.3945
 5416SOL     OW23297   3.176  11.372   1.490  0.4403 -0.5286  0.6423
 5416SOL    HW123298   3.237  11.329   1.550  0.7699  1.4861  1.8416
 5416SOL    HW223299   3.103  11.400   1.546  1.2448  2.3524  0.4143
 5417SOL     OW23300   6.402  10.943   7.550  0.4883  0.1051  0.3902
 5417SOL    HW123301   6.492  10.911   7.556  0.2473 -0.6089  0.2613
 5417SOL    HW223302   6.405  11.012   7.484  1.1554  0.8704  1.1902
 5418SOL     OW23303  10.430   1.609   6.220 -0.1985  0.3455  0.2455
 5418SOL    HW123304  10.398   1.537   6.273 -1.0925  0.2082 -0.4560
 5418SOL    HW223305  10.353   1.643   6.175  0.2830  1.4328  0.1951
 5419SOL     OW23306  11.068  11.494   6.265 -0.2102 -0.1211  0.0748
 5419SOL    HW123307  11.059  11.576   6.314  0.2292 -0.1049  0.1303
 5419SOL    HW223308  10.981  11.479   6.228 -0.6387 -0.2958  1.1112
 5420SOL     OW23309   0.675  11.115   8.340 -0.1790 -0.1007  0.5177
 5420SOL    HW123310   0.634  11.135   8.424  0.6112  0.8908  0.6818
 5420SOL    HW223311   0.664  11.195   8.288 -1.0208 -0.8401 -0.4860
 5421SOL     OW23312   9.979   2.580  11.876  0.2973 -0.4737 -0.1144
 5421SOL    HW123313   9.926   2.563  11.798 -0.2783 -2.7573  0.6864
 5421SOL    HW223314  10.050   2.516  11.871  0.8376  0.0411  0.7100
 5422SOL     OW23315   6.753   1.424   5.038 -0.0204  0.1173 -0.0312
 5422SOL    HW123316   6.745   1.500   5.095  1.5533 -0.1195  0.5497
 5422SOL    HW223317   6.670   1.421   4.990 -1.0631  0.8065  1.6437
 5423SOL     OW23318   4.813   2.470  11.405 -0.3014 -0.4567 -0.1567
 5423SOL    HW123319   4.883   2.451  11.467 -1.8239  0.0414  1.8023
 5423SOL    HW223320   4.802   2.565  11.410 -0.1612 -0.3337 -1.5737
 5424SOL     OW23321   1.898  12.521   5.765  0.2429 -0.0221 -0.2016
 5424SOL    HW123322   1.935  12.606   5.789  0.1406  0.6862 -2.3486
 5424SOL    HW223323   1.855  12.490   5.845 -0.9149  2.5720  0.2796
 5425SOL     OW23324   1.665  12.010  12.331  0.1900 -0.0380 -0.4302
 5425SOL    HW123325   1.759  12.019  12.349 -0.1163 -0.3514  1.4876
 5425SOL    HW223326   1.623  12.020  12.416 -1.4493 -1.1772 -1.0615
 5426SOL     OW23327   8.819   1.702   4.967 -1.0358 -0.3286  0.3997
 5426SOL    HW123328   8.746   1.672   4.912  0.2611 -2.0904 -0.4918
 5426SOL    HW223329   8.843   1.625   5.019  0.7178 -0.0755  0.0352
 5427SOL     OW23330   8.264   7.846  11.404  0.0674  0.3635 -0.0997
 5427SOL    HW123331   8.350   7.872  11.372 -0.0798  1.6787  0.4955
 5427SOL    HW223332   8.272   7.752  11.421  0.3321 -0.3030 -3.3207
 5428SOL     OW23333   4.399   6.212   2.654 -0.2172  0.1442 -0.3189
 5428SOL    HW123334   4.343   6.153   2.704  0.0415  0.8650  0.8533
 5428SOL    HW223335   4.404   6.292   2.707  1.3835  0.3345 -0.7055
 5429SOL     OW23336   5.504   9.188   4.715 -0.1954 -0.0398 -0.5663
 5429SOL    HW123337   5.495   9.280   4.741 -0.9746 -0.2992  0.1216
 5429SOL    HW223338   5.587   9.161   4.756 -0.4633  0.0849  0.0782
 5430SOL     OW23339   3.826   5.916   7.781  0.2589  0.3266 -0.7182
 5430SOL    HW123340   3.812   5.840   7.724  1.0589 -0.8496  0.5611
 5430SOL    HW223341   3.861   5.984   7.724  2.4515 -1.2749 -1.4217
 5431SOL     OW23342   1.033   0.487   7.821  0.2494  0.4268  0.1836
 5431SOL    HW123343   1.003   0.497   7.731  2.3508  1.0551 -0.4977
 5431SOL    HW223344   1.008   0.398   7.845  1.3440 -0.4366 -1.7057
 5432SOL     OW23345   8.599   5.109   3.216  0.2459 -0.5036 -0.3323
 5432SOL    HW123346   8.584   5.151   3.131 -1.3597 -0.9034 -0.2740
 5432SOL    HW223347   8.688   5.136   3.240 -0.4754  2.4299 -0.5590
 5433SOL     OW23348  10.408  10.223   7.929 -0.6852 -0.1462 -0.3824
 5433SOL    HW123349  10.393  10.219   7.835 -1.0769  0.2142 -0.3362
 5433SOL    HW223350  10.467  10.298   7.941 -0.5090 -0.2896 -0.3576
 5434SOL     OW23351   1.779  10.007  11.113 -0.2902  0.4869 -0.6278
 5434SOL    HW123352   1.789  10.051  11.198 -0.5679 -0.8418  0.1225
 5434SOL    HW223353   1.864   9.965  11.098 -0.2964  0.5809 -0.9215
 5435SOL     OW23354   4.679   2.376  11.722  0.0271 -0.5791 -0.2164
 5435SOL    HW123355   4.687   2.317  11.647 -0.9792  0.2998 -1.0331
 5435SOL    HW223356   4.642   2.456  11.686 -0.8437 -0.2725  1.2921
 5436SOL     OW23357   2.948   0.984  11.136  0.3073 -0.0009  0.4040
 5436SOL    HW123358   2.888   0.924  11.091  0.5928  0.4346 -0.5746
 5436SOL    HW223359   3.034   0.942  11.129  0.3016 -0.0943  0.8483
 5437SOL     OW23360   3.747   8.992   2.813 -0.2588  0.5464  0.3065
 5437SOL    HW123361   3.717   8.962   2.899  1.0428  2.7183  1.5932
 5437SOL    HW223362   3.686   9.063   2.791  0.4389  1.1371  0.2601
 5438SOL     OW23363   2.258  10.566  10.994 -0.5973 -0.1151  0.1000
 5438SOL    HW123364   2.206  10.641  10.964  0.2121 -0.0802 -1.3033
 5438SOL    HW223365   2.283  10.588  11.084 -1.7494  0.5275  0.2800
 5439SOL     OW23366   0.458  12.226   8.691 -0.5977 -0.4189  0.4133
 5439SOL    HW123367   0.454  12.169   8.614  2.2161  0.1662 -0.2538
 5439SOL    HW223368   0.374  12.272   8.690 -0.1933  0.5202 -3.0873
 5440SOL     OW23369   1.256   4.308   9.251 -0.5375 -0.4267 -0.0410
 5440SOL    HW123370   1.278   4.316   9.344  0.2523 -0.2553 -0.2380
 5440SOL    HW223371   1.205   4.227   9.245 -0.5796 -0.4459  0.5345
 5441SOL     OW23372   9.431   5.569   9.941 -0.8716 -0.1023  0.2452
 5441SOL    HW123373   9.369   5.587  10.012  0.0401  1.4145  0.6931
 5441SOL    HW223374   9.450   5.476   9.949 -3.1644 -0.6427  0.0295
 5442SOL     OW23375   5.849  10.476  10.251 -0.4143  0.0640  0.0507
 5442SOL    HW123376   5.847  10.447  10.342 -1.3765 -0.1043 -0.0180
 5442SOL    HW223377   5.908  10.552  10.252  1.4404 -1.3116  0.3781
 5443SOL     OW23378   5.008   1.384   7.536  0.1806  0.4542 -0.3343
 5443SOL    HW123379   5.010   1.400   7.442 -0.1080  0.2338 -0.3788
 5443SOL    HW223380   4.917   1.398   7.561  0.5127  1.8571  0.1539
 5444SOL     OW23381   2.375   8.771   6.609  0.0337  0.1434 -0.0990
 5444SOL    HW123382   2.365   8.695   6.552  0.4611  1.4465 -2.0009
 5444SOL    HW223383   2.353   8.738   6.696 -0.5493 -1.9566 -0.9687
 5445SOL     OW23384   6.580   1.871   9.447 -0.2024 -0.2267  0.1907
 5445SOL    HW123385   6.544   1.926   9.377  1.0191  1.5649  0.8840
 5445SOL    HW223386   6.672   1.899   9.455  0.1262 -1.5135  1.4333
 5446SOL     OW23387   5.237   9.309   1.457 -0.0377  0.0364  0.5437
 5446SOL    HW123388   5.208   9.343   1.373  1.1987 -1.9481 -0.7550
 5446SOL    HW223389   5.157   9.307   1.511 -1.0547  0.3919 -0.9101
 5447SOL     OW23390   9.133   9.940   4.516 -0.0142  0.1368 -0.1281
 5447SOL    HW123391   9.217   9.915   4.555 -1.2063 -1.3449  1.6851
 5447SOL    HW223392   9.076   9.956   4.592 -1.0758  2.3639 -1.2861
 5448SOL     OW23393  11.133  10.921   4.883  0.3275 -0.1240 -0.5629
 5448SOL    HW123394  11.154  11.011   4.910 -0.7101 -0.1777  0.5240
 5448SOL    HW223395  11.192  10.903   4.810  1.7074  0.8468  0.2706
 5449SOL     OW23396  10.823   0.476   5.321 -0.3197 -0.2612 -0.0412
 5449SOL    HW123397  10.836   0.436   5.234 -0.9659  1.2689 -0.8717
 5449SOL    HW223398  10.776   0.409   5.371  0.9198 -1.5498 -0.5284
 5450SOL     OW23399   0.844   4.411   9.782 -0.2242 -0.0426 -0.1406
 5450SOL    HW123400   0.852   4.446   9.693 -0.5469  0.5784  0.0723
 5450SOL    HW223401   0.757   4.437   9.811  0.7273  1.8669  1.2403
 5451SOL     OW23402   7.012  11.262   6.208  0.0738 -0.1766 -0.1224
 5451SOL    HW123403   7.105  11.257   6.187 -0.1952 -0.2605 -1.3678
 5451SOL    HW223404   7.005  11.222   6.295  1.2946  0.5254  0.3358
 5452SOL     OW23405   5.566   2.933   3.681 -0.3006  0.0892  0.4907
 5452SOL    HW123406   5.556   2.841   3.706  2.0506  0.5276  3.7356
 5452SOL    HW223407   5.517   2.981   3.746 -0.4725  1.2059 -0.4335
 5453SOL     OW23408   2.761   5.237  12.306 -0.7073  0.0675 -0.3313
 5453SOL    HW123409   2.854   5.230  12.287 -0.2043 -1.8107  2.2856
 5453SOL    HW223410   2.753   5.316  12.360 -0.0473 -1.2674  1.8649
 5454SOL     OW23411   7.173   0.416   6.572  0.0948  0.2596  0.3008
 5454SOL    HW123412   7.185   0.404   6.667 -2.4664 -0.4772  0.6002
 5454SOL    HW223413   7.261   0.438   6.540  0.8942  1.4343  2.9515
 5455SOL     OW23414  12.413  10.258   1.702  0.0749  0.4477  0.4694
 5455SOL    HW123415  12.465  10.181   1.684 -1.0320 -0.6085  1.5291
 5455SOL    HW223416  12.322  10.230   1.689 -0.4212  1.2148  1.9223
 5456SOL     OW23417   9.103   1.051   2.837  0.5088  0.1096  0.6654
 5456SOL    HW123418   9.118   0.970   2.788  1.3824 -0.7362  2.2346
 5456SOL    HW223419   9.169   1.112   2.805  0.5007 -0.1385  0.1737
 5457SOL     OW23420  10.771   6.429   9.062  0.2906  0.1347  0.6537
 5457SOL    HW123421  10.700   6.443   8.998 -0.5794  0.4249  1.6474
 5457SOL    HW223422  10.849   6.415   9.009 -0.3236  0.8412 -0.4731
 5458SOL     OW23423   7.129   5.014   6.234  0.3350  0.3502  0.3201
 5458SOL    HW123424   7.215   5.034   6.197  0.4917  0.2295  0.6090
 5458SOL    HW223425   7.149   4.982   6.323 -0.1087  1.8413  0.9807
 5459SOL     OW23426  12.347  10.221   6.111 -0.4464  0.4387 -0.1766
 5459SOL    HW123427  12.338  10.136   6.154  0.6306 -1.2768 -3.0541
 5459SOL    HW223428  12.416  10.266   6.160 -0.0417 -0.9265  0.5462
 5460SOL     OW23429  12.397   2.566   6.881 -0.3278 -0.1796  0.2645
 5460SOL    HW123430  12.421   2.591   6.970 -1.2386 -1.6795  0.9796
 5460SOL    HW223431  12.449   2.623   6.825  1.1553  0.0109  1.7446
 5461SOL     OW23432   3.280   4.460   1.677 -0.2711 -0.2922 -0.1437
 5461SOL    HW123433   3.267   4.380   1.625 -0.8360  1.0521 -2.1644
 5461SOL    HW223434   3.239   4.439   1.761 -1.1235 -1.8675 -0.8905
 5462SOL     OW23435   6.597   2.670   9.879 -0.0707 -0.8260 -0.4313
 5462SOL    HW123436   6.595   2.575   9.890  0.1156 -0.6393  1.7470
 5462SOL    HW223437   6.527   2.702   9.936 -0.1853  0.3431 -1.1984
 5463SOL     OW23438  10.883   5.689  11.061 -0.3979 -0.1074  0.5649
 5463SOL    HW123439  10.863   5.703  10.969 -1.9036 -0.5158  0.8069
 5463SOL    HW223440  10.855   5.599  11.079 -3.1588  0.9328  2.1359
 5464SOL     OW23441   8.339  10.251   3.367 -0.1334 -0.2595 -0.3501
 5464SOL    HW123442   8.313  10.340   3.391 -0.6100 -0.8402  1.4762
 5464SOL    HW223443   8.296  10.235   3.283 -0.2322  1.1417 -0.5880
 5465SOL     OW23444   7.605  11.395   0.451 -0.3714 -0.4155 -0.1180
 5465SOL    HW123445   7.573  11.479   0.418 -1.4806 -0.9885 -0.5570
 5465SOL    HW223446   7.699  11.395   0.431 -0.7711 -0.2166 -2.1820
 5466SOL     OW23447   4.256   0.758  12.142  0.0962 -0.6710 -0.2109
 5466SOL    HW123448   4.335   0.812  12.138 -1.4473  1.7821 -0.1309
 5466SOL    HW223449   4.272   0.686  12.081  2.1308  0.1163 -0.6770
 5467SOL     OW23450   0.779   6.106   1.642  0.2372 -0.4382 -0.3397
 5467SOL    HW123451   0.766   6.089   1.736 -0.5615 -3.4068 -0.8912
 5467SOL    HW223452   0.736   6.190   1.627  2.9025  1.6219  2.4313
 5468SOL     OW23453   5.039   9.848   9.776 -0.5014 -0.3623  0.0283
 5468SOL    HW123454   5.029   9.766   9.824 -0.8216 -0.6223 -0.4665
 5468SOL    HW223455   5.064   9.912   9.842 -0.2020 -0.8703  0.4096
 5469SOL     OW23456   0.640   2.546  11.798 -0.1865  0.0527 -0.7338
 5469SOL    HW123457   0.657   2.509  11.712 -1.8194  2.5887 -2.3000
 5469SOL    HW223458   0.721   2.592  11.821  0.0063  0.0059 -1.2987
 5470SOL     OW23459  11.175   0.785   8.749 -0.0260  0.4050 -0.1116
 5470SOL    HW123460  11.236   0.712   8.759  0.1457  0.8104  3.2248
 5470SOL    HW223461  11.093   0.752   8.785 -0.4898  1.2684 -0.3489
 5471SOL     OW23462  10.626   0.973   0.598 -0.1964 -0.3978 -0.1857
 5471SOL    HW123463  10.615   0.972   0.503 -0.3049  2.5483 -0.2808
 5471SOL    HW223464  10.714   1.008   0.612 -0.5361  0.1061  0.7968
 5472SOL     OW23465   5.267   1.871   9.241  0.0208 -0.2265  0.1506
 5472SOL    HW123466   5.362   1.886   9.248  0.6605 -3.2286 -0.7906
 5472SOL    HW223467   5.253   1.857   9.147 -1.2475 -0.5789  0.3821
 5473SOL     OW23468   5.590   7.792   0.968 -0.0667  0.2062  0.1937
 5473SOL    HW123469   5.495   7.803   0.972  0.0458  1.1068  0.5083
 5473SOL    HW223470   5.625   7.881   0.967  0.8074 -0.1168  0.8506
 5474SOL     OW23471   8.855   8.905   0.682 -0.1170 -0.0181 -0.4163
 5474SOL    HW123472   8.819   8.834   0.629 -0.1677 -1.4001  1.3429
 5474SOL    HW223473   8.784   8.931   0.740  1.1143 -1.7227  2.0427
 5475SOL     OW23474   8.005   7.492   4.180  0.2111 -0.0019  0.1061
 5475SOL    HW123475   7.929   7.535   4.220  1.5138  0.7999  1.8260
 5475SOL    HW223476   7.968   7.414   4.139 -1.4909  0.0849  1.3353
 5476SOL     OW23477   4.759   2.773   0.301 -0.3488 -0.2862  0.4077
 5476SOL    HW123478   4.690   2.769   0.368 -1.2651 -2.2213 -0.5434
 5476SOL    HW223479   4.792   2.683   0.296  2.0160  0.5177  0.5433
 5477SOL     OW23480  12.334   9.982   6.550  0.1878  0.6302  0.1541
 5477SOL    HW123481  12.375   9.963   6.634 -1.1338  1.8636  1.1363
 5477SOL    HW223482  12.262   9.920   6.543 -0.9284  1.7925  0.9117
 5478SOL     OW23483   1.891   6.561   3.733 -0.2985 -0.8668  0.0340
 5478SOL    HW123484   1.890   6.606   3.818 -1.2188 -1.8282  0.5591
 5478SOL    HW223485   1.919   6.472   3.754  0.4100 -0.8573 -0.8260
 5479SOL     OW23486  11.175   5.768   1.044  0.0873 -0.1596  0.1475
 5479SOL    HW123487  11.228   5.711   0.989 -0.7269 -1.9137  1.0716
 5479SOL    HW223488  11.108   5.710   1.081 -3.0572  2.0320 -1.5740
 5480SOL     OW23489  10.659   6.968   8.438  0.0650 -0.4578 -0.5408
 5480SOL    HW123490  10.723   6.900   8.456  0.6115  0.4708  1.3210
 5480SOL    HW223491  10.711   7.043   8.410 -0.5049 -0.6760 -2.2843
 5481SOL     OW23492   6.670   0.447   2.709  0.3837  0.2094 -0.5886
 5481SOL    HW123493   6.742   0.490   2.756 -0.3392  1.0840 -0.2588
 5481SOL    HW223494   6.644   0.511   2.642  0.4087 -0.4116 -1.2044
 5482SOL     OW23495   1.981   9.405   6.596  0.0419 -0.0839 -0.0106
 5482SOL    HW123496   1.934   9.443   6.671 -0.2944  2.2233 -1.3017
 5482SOL    HW223497   1.917   9.349   6.553 -0.2258 -0.2225  0.5558
 5483SOL     OW23498   1.231   9.786   4.490 -0.4404 -0.4802  0.5458
 5483SOL    HW123499   1.262   9.734   4.564  0.4192 -1.1139 -0.2279
 5483SOL    HW223500   1.287   9.863   4.490 -0.3579 -0.5395  0.4908
 5484SOL     OW23501   0.898   6.710   9.532 -0.3879  0.3337  0.4067
 5484SOL    HW123502   0.894   6.692   9.438 -0.2525 -0.2337  0.5016
 5484SOL    HW223503   0.907   6.805   9.538 -0.5228  0.3870 -0.1499
 5485SOL     OW23504  12.227   8.030   6.215 -0.3122  0.7703  0.4294
 5485SOL    HW123505  12.184   7.950   6.184  0.3089 -0.2421  2.0469
 5485SOL    HW223506  12.222   8.090   6.140 -1.2463 -0.5856 -0.6626
 5486SOL     OW23507   3.619  10.798   2.422  0.3647  0.1426  0.3986
 5486SOL    HW123508   3.696  10.772   2.472  0.7376 -0.1289 -0.3152
 5486SOL    HW223509   3.551  10.810   2.489  0.8202 -0.3458  0.9614
 5487SOL     OW23510  11.606   5.267  10.039 -0.3311  0.8473 -0.3564
 5487SOL    HW123511  11.644   5.226   9.962  0.5325  1.9368 -0.5320
 5487SOL    HW223512  11.676   5.323  10.074  0.0155 -1.0803  2.3802
 5488SOL     OW23513   9.824   5.127   2.655  0.1403  0.4329  0.2240
 5488SOL    HW123514   9.909   5.086   2.636 -0.7604 -1.1563 -0.5361
 5488SOL    HW223515   9.843   5.186   2.728  1.8073 -0.2428  0.4013
 5489SOL     OW23516  11.918   5.394   9.511  0.6613 -0.0899 -0.2525
 5489SOL    HW123517  11.946   5.357   9.427  0.5614  1.6190 -1.0736
 5489SOL    HW223518  11.823   5.399   9.504  0.6883  0.4848 -0.2331
 5490SOL     OW23519  10.682   7.788  10.880 -0.4600  0.0401  0.2384
 5490SOL    HW123520  10.672   7.772  10.974  0.0013 -3.0166 -0.1142
 5490SOL    HW223521  10.606   7.842  10.857 -0.7696  0.5635  2.2838
 5491SOL     OW23522   7.561   0.604   8.082 -0.0923 -0.4842 -0.0625
 5491SOL    HW123523   7.637   0.572   8.033  1.4874  3.1438 -0.2950
 5491SOL    HW223524   7.509   0.651   8.016  0.3750  1.6782  1.0063
 5492SOL     OW23525   0.222   4.095   0.244  0.1285 -0.5220 -0.1903
 5492SOL    HW123526   0.218   4.110   0.338 -0.7480  0.1563 -0.3193
 5492SOL    HW223527   0.232   4.183   0.206 -1.8327 -0.5082 -0.8179
 5493SOL     OW23528   5.096   9.964  10.784  0.0770 -0.4268 -0.1690
 5493SOL    HW123529   5.177  10.006  10.813  0.0981  0.6115 -1.6148
 5493SOL    HW223530   5.118   9.871  10.778  1.6544  0.0076 -1.9615
 5494SOL     OW23531   0.999   8.458   1.855  0.0793  0.4028 -0.3553
 5494SOL    HW123532   1.046   8.528   1.809  1.9226  0.5802  1.6601
 5494SOL    HW223533   1.052   8.380   1.841  1.7111  0.7984  2.7620
 5495SOL     OW23534   1.667   8.516   9.803 -0.2783  0.1289 -0.2798
 5495SOL    HW123535   1.656   8.528   9.708  0.0848 -1.2700 -0.5238
 5495SOL    HW223536   1.663   8.421   9.815 -0.6531  0.3062  1.1615
 5496SOL     OW23537   6.409   3.554   3.966 -0.3087 -0.2943 -0.8763
 5496SOL    HW123538   6.445   3.599   4.043 -1.1056 -1.6915  0.3662
 5496SOL    HW223539   6.338   3.500   4.001 -2.2929  0.7930 -2.9340
 5497SOL     OW23540   5.863   1.137   4.060 -0.1789 -0.0850 -0.5963
 5497SOL    HW123541   5.903   1.074   3.999 -1.3429 -1.4631  0.0098
 5497SOL    HW223542   5.827   1.083   4.130 -2.2355  1.1590 -0.6196
 5498SOL     OW23543   8.886   7.016   1.275 -0.3397  0.0840  0.0352
 5498SOL    HW123544   8.966   7.069   1.270 -0.6089  0.5014  0.1571
 5498SOL    HW223545   8.897   6.965   1.356  0.1451 -0.4230 -0.3429
 5499SOL     OW23546   7.754  11.982   7.846  0.0887  0.1246  0.5304
 5499SOL    HW123547   7.742  12.041   7.771  0.9679 -1.2709 -0.7619
 5499SOL    HW223548   7.690  11.912   7.832 -0.0959  0.1212  1.3732
 5500SOL     OW23549   1.667   0.527   1.189  0.1379  0.5574 -0.1438
 5500SOL    HW123550   1.575   0.543   1.209  0.2114  1.5339 -0.5179
 5500SOL    HW223551   1.712   0.608   1.214  0.5783  0.9017 -1.9178
 5501SOL     OW23552   1.454   1.294   4.752  0.6784 -0.2118  0.1441
 5501SOL    HW123553   1.483   1.218   4.700 -0.8762 -1.4951  1.0816
 5501SOL    HW223554   1.392   1.340   4.695  1.0858 -0.0267 -0.1575
 5502SOL     OW23555   1.976   0.154   5.897 -0.5183  0.8005 -0.0951
 5502SOL    HW123556   1.939   0.231   5.854  0.9273  1.4212 -0.2797
 5502SOL    HW223557   2.071   0.167   5.893 -0.2374 -0.9852 -0.1100
 5503SOL     OW23558  11.443  10.425   0.083 -0.3066  0.3149  0.0472
 5503SOL    HW123559  11.410  10.438   0.172 -0.9681  0.2482 -0.1841
 5503SOL    HW223560  11.394  10.350   0.050 -1.4975  1.5166 -1.0499
 5504SOL     OW23561   1.757   0.354   5.202 -0.1400  0.3432 -0.0028
 5504SOL    HW123562   1.721   0.415   5.139 -2.4918  0.4143  1.2742
 5504SOL    HW223563   1.695   0.356   5.275  1.5154 -1.0380  1.5347
 5505SOL     OW23564   7.826   0.651   6.810  0.1930 -0.1218  0.1590
 5505SOL    HW123565   7.858   0.715   6.745  2.0639 -2.1902 -1.1069
 5505SOL    HW223566   7.799   0.576   6.757 -1.4461 -0.6245  1.6458
 5506SOL     OW23567  10.645   1.232   8.379 -0.4794  0.5765 -0.4393
 5506SOL    HW123568  10.715   1.172   8.403 -2.2667 -0.2766  3.5382
 5506SOL    HW223569  10.682   1.319   8.392  0.7993  0.2492 -1.7559
 5507SOL     OW23570  11.893   1.862   8.083 -0.0447 -0.5427  0.5018
 5507SOL    HW123571  11.840   1.801   8.133  1.3256 -0.8986  1.5511
 5507SOL    HW223572  11.977   1.818   8.070  0.4163  0.4619 -0.1330
 5508SOL     OW23573   9.754   2.839   1.540 -0.1775 -0.3121  0.0392
 5508SOL    HW123574   9.733   2.834   1.447 -2.2660  0.6673  0.3727
 5508SOL    HW223575   9.791   2.927   1.551 -0.6632 -0.1244  0.2252
 5509SOL     OW23576   2.741   7.723   2.471  0.0160 -0.1042 -0.2651
 5509SOL    HW123577   2.662   7.728   2.524  0.5354  0.7940  0.4426
 5509SOL    HW223578   2.811   7.703   2.533  1.0952  3.6327 -0.0399
 5510SOL     OW23579   2.825  11.857   4.317 -1.1865  0.6627  0.4047
 5510SOL    HW123580   2.855  11.947   4.302  0.8713 -0.0858 -0.2874
 5510SOL    HW223581   2.841  11.842   4.410  0.5389  0.3608  0.1017
 5511SOL     OW23582   0.031  10.089   4.871  0.2749  0.2385 -0.7988
 5511SOL    HW123583  -0.021  10.168   4.858 -1.9489 -1.2565 -1.6583
 5511SOL    HW223584   0.050  10.058   4.783 -0.0994 -0.8984 -0.4959
 5512SOL     OW23585   0.545   1.506   8.201 -0.3461 -0.8603 -0.6354
 5512SOL    HW123586   0.569   1.542   8.116  0.3893 -1.9426 -0.9025
 5512SOL    HW223587   0.596   1.557   8.264 -1.6113  0.5939 -0.7328
 5513SOL     OW23588   5.819   9.980  11.186 -0.1254 -0.2423  0.0394
 5513SOL    HW123589   5.828  10.000  11.279  0.0585  0.8291 -0.1976
 5513SOL    HW223590   5.769   9.898  11.184 -0.9591  0.2162  1.0504
 5514SOL     OW23591   1.327   1.414   7.561  0.0957 -0.2184 -0.3952
 5514SOL    HW123592   1.268   1.489   7.557  0.5424  0.2275  0.7600
 5514SOL    HW223593   1.404   1.446   7.609  0.0892 -1.5324  0.5729
 5515SOL     OW23594   7.228  12.193  10.608  0.0684 -0.1940 -0.5840
 5515SOL    HW123595   7.286  12.250  10.558  0.8825 -1.0306 -0.6154
 5515SOL    HW223596   7.213  12.117  10.552 -2.6596  0.8047 -1.4080
 5516SOL     OW23597   5.548   2.387   6.664 -0.2005  0.4598  0.1603
 5516SOL    HW123598   5.590   2.313   6.709 -0.5476 -0.0487 -0.3249
 5516SOL    HW223599   5.621   2.442   6.636  0.0455  0.4950  0.8550
 5517SOL     OW23600   0.915   9.443   9.368  0.1422  0.2712 -0.6114
 5517SOL    HW123601   1.008   9.443   9.349  0.4417 -1.0884  0.6057
 5517SOL    HW223602   0.888   9.534   9.358  1.6348  0.7249 -0.7793
 5518SOL     OW23603  10.280   7.719   0.590 -0.1946  0.3022 -0.0686
 5518SOL    HW123604  10.209   7.779   0.566  1.3348  2.1059 -0.3437
 5518SOL    HW223605  10.326   7.703   0.508 -1.0200 -1.9666 -0.1559
 5519SOL     OW23606   6.838   9.258   0.771  0.2314  0.2779  0.5143
 5519SOL    HW123607   6.768   9.265   0.836 -0.8773  0.2801 -0.6411
 5519SOL    HW223608   6.878   9.345   0.770 -1.6269  1.1728 -0.8241
 5520SOL     OW23609   9.422  11.128   0.943 -0.2727 -0.3113 -0.3967
 5520SOL    HW123610   9.480  11.082   1.004 -0.5546 -2.1096 -1.4045
 5520SOL    HW223611   9.366  11.182   0.999  0.6550 -0.5426  0.7802
 5521SOL     OW23612  10.339   6.119   3.134  0.2911 -0.2584 -0.2585
 5521SOL    HW123613  10.380   6.141   3.217 -0.4512 -0.9769  0.3147
 5521SOL    HW223614  10.312   6.203   3.097  0.4566  0.0462  0.3093
 5522SOL     OW23615   6.663   2.740  11.818  0.0025 -0.0345 -0.0388
 5522SOL    HW123616   6.666   2.661  11.871 -0.1054 -0.6794 -0.9708
 5522SOL    HW223617   6.610   2.801  11.869 -1.0911 -1.0369  0.0735
 5523SOL     OW23618   7.631   9.661   3.224 -0.3024  0.5625 -0.6454
 5523SOL    HW123619   7.628   9.708   3.141 -3.6818  1.2616 -0.2898
 5523SOL    HW223620   7.583   9.579   3.208  0.6546 -0.1870  0.1577
 5524SOL     OW23621   1.129   6.141  10.028  0.1186  0.3140  0.3473
 5524SOL    HW123622   1.055   6.202  10.032 -0.2927 -0.2058  0.9153
 5524SOL    HW223623   1.175   6.165   9.948  0.4284  1.8771  0.9595
 5525SOL     OW23624   4.677   8.413   8.553  0.1896  1.1416 -0.1370
 5525SOL    HW123625   4.733   8.489   8.538 -0.4167  2.1266  2.0603
 5525SOL    HW223626   4.597   8.450   8.591  0.5540 -0.6325  2.7152
 5526SOL     OW23627   3.431   2.597  11.006 -0.1140 -0.1688  0.2045
 5526SOL    HW123628   3.347   2.563  10.975 -0.9333  0.7714  1.3127
 5526SOL    HW223629   3.424   2.594  11.102  1.2950 -0.4678  0.3212
 5527SOL     OW23630  10.868   9.245   1.538  0.2597  0.1557  0.3090
 5527SOL    HW123631  10.850   9.156   1.569  1.2336 -0.3664 -0.5165
 5527SOL    HW223632  10.782   9.285   1.527 -0.1538 -0.0500  2.3918
 5528SOL     OW23633   9.107  11.769   8.026 -0.0825  0.1168  0.5525
 5528SOL    HW123634   9.025  11.723   8.008 -0.7432  0.8519  1.5588
 5528SOL    HW223635   9.127  11.747   8.117  0.3070  0.7483  0.6234
 5529SOL     OW23636   6.035   7.704   8.803  0.0132  0.7263  0.3262
 5529SOL    HW123637   5.991   7.654   8.873  2.5056  0.3277  1.7386
 5529SOL    HW223638   6.028   7.795   8.831  1.5276  0.5244  1.5175
 5530SOL     OW23639   1.581  12.179   3.292  0.4084  0.0754 -0.3020
 5530SOL    HW123640   1.532  12.098   3.306 -0.3992  0.5542 -0.3541
 5530SOL    HW223641   1.673  12.150   3.290  0.0892 -0.9517 -1.1941
 5531SOL     OW23642   2.218   2.455  10.409 -0.3300  0.4764  0.6009
 5531SOL    HW123643   2.310   2.482  10.410 -0.3444  0.6886 -1.1555
 5531SOL    HW223644   2.202   2.424  10.498  1.3708  0.6335  1.0085
 5532SOL     OW23645   1.862   8.553   8.615  0.5794  0.1493 -0.7159
 5532SOL    HW123646   1.916   8.628   8.638 -0.7828  1.1808 -0.7605
 5532SOL    HW223647   1.873   8.544   8.521  0.2406  0.7208 -0.8157
 5533SOL     OW23648   3.912   3.278   2.340  0.4579 -0.4643  0.2000
 5533SOL    HW123649   3.993   3.291   2.390  1.3839 -0.8309 -1.1363
 5533SOL    HW223650   3.857   3.352   2.364  1.7192  0.5312  0.1588
 5534SOL     OW23651  11.209   9.564   3.538  0.2574 -0.1205  0.0288
 5534SOL    HW123652  11.124   9.606   3.530  0.0424 -0.7072 -0.8434
 5534SOL    HW223653  11.205   9.518   3.622  0.4970  1.5569  1.0025
 5535SOL     OW23654  10.704   8.366  10.872 -0.1086 -0.2143  0.2905
 5535SOL    HW123655  10.751   8.386  10.791  0.0205  1.7350  0.8003
 5535SOL    HW223656  10.772   8.363  10.939 -0.4987  0.8685  0.7475
 5536SOL     OW23657   8.937   4.918   2.498  0.0792 -0.0673 -0.5646
 5536SOL    HW123658   8.995   4.890   2.569 -0.7388 -0.4639 -0.0347
 5536SOL    HW223659   8.851   4.887   2.525 -0.3820  0.5388 -1.3274
 5537SOL     OW23660   5.927   1.488   7.986 -0.6896  0.2154  0.0078
 5537SOL    HW123661   5.913   1.494   8.081  0.4380 -0.6514  0.2494
 5537SOL    HW223662   5.914   1.577   7.954  0.4793  0.8389  1.2004
 5538SOL     OW23663   6.234   2.195   7.262 -0.1609  0.6981  0.4323
 5538SOL    HW123664   6.183   2.276   7.269 -3.2235 -1.1372  0.9594
 5538SOL    HW223665   6.210   2.145   7.340  1.5984 -0.7949  0.0726
 5539SOL     OW23666   5.598   1.172   8.399  0.2517  0.0642 -0.0495
 5539SOL    HW123667   5.658   1.219   8.457  0.0829  1.3605 -0.8981
 5539SOL    HW223668   5.655   1.124   8.339  0.4334  0.4343 -0.1720
 5540SOL     OW23669   0.399   7.132   9.793  0.0395 -0.1479  0.3398
 5540SOL    HW123670   0.339   7.103   9.862  0.0528 -1.0895 -0.0320
 5540SOL    HW223671   0.401   7.227   9.802  1.6586 -0.3380  3.0044
 5541SOL     OW23672   3.856  10.023   0.036 -0.5270  0.0053 -0.0303
 5541SOL    HW123673   3.859  10.028  -0.059 -0.7043 -0.4151 -0.0610
 5541SOL    HW223674   3.934  10.071   0.065 -0.3478 -0.0620 -0.3919
 5542SOL     OW23675   9.135   2.863   3.376 -0.1065  0.0883  0.0394
 5542SOL    HW123676   9.193   2.937   3.357 -0.3418  0.4726  0.7472
 5542SOL    HW223677   9.089   2.890   3.456 -1.1970 -0.2451 -0.4628
 5543SOL     OW23678   7.986   1.166   1.756  0.1086  0.4024  0.0559
 5543SOL    HW123679   8.070   1.146   1.715  0.5959  2.3294  0.0449
 5543SOL    HW223680   7.990   1.259   1.775 -2.6356  0.9326 -1.4223
 5544SOL     OW23681   8.411   4.181  11.458  0.4410 -0.2107  0.1051
 5544SOL    HW123682   8.377   4.271  11.449  0.3674 -0.2669 -0.2238
 5544SOL    HW223683   8.342   4.135  11.505 -0.5854 -0.6572 -1.7348
 5545SOL     OW23684   3.566  11.976  10.958  0.8202  0.7772  0.1631
 5545SOL    HW123685   3.623  12.035  11.007 -0.3745  2.1236  0.0093
 5545SOL    HW223686   3.595  11.984  10.867  0.6218  1.1797  0.1349
 5546SOL     OW23687   0.722   5.991  12.256 -0.6626  0.1963 -0.3394
 5546SOL    HW123688   0.806   5.984  12.211 -0.9096  0.4695 -0.8539
 5546SOL    HW223689   0.716   6.082  12.283 -0.5034  0.0261  0.2801
 5547SOL     OW23690   1.190  11.258   6.204 -0.3486 -0.0476  0.0522
 5547SOL    HW123691   1.275  11.215   6.215 -0.5710 -0.4523  0.2247
 5547SOL    HW223692   1.191  11.331   6.266 -0.0982 -0.0042 -0.0044
 5548SOL     OW23693   0.947   0.283   0.498 -0.0030  0.4823  0.3633
 5548SOL    HW123694   0.937   0.210   0.559  1.8872  0.9447  1.2827
 5548SOL    HW223695   1.029   0.266   0.452 -0.8395  0.7180 -1.2902
 5549SOL     OW23696   7.994   1.097   4.941 -0.0003  0.0109  0.2738
 5549SOL    HW123697   7.930   1.098   5.012  1.2503 -1.6395  1.4939
 5549SOL    HW223698   8.078   1.088   4.985  0.7494 -2.1115 -1.4227
 5550SOL     OW23699   4.111   4.763   1.237 -0.3743 -0.1575 -0.5476
 5550SOL    HW123700   4.188   4.815   1.257  0.0829 -1.0556  0.0715
 5550SOL    HW223701   4.042   4.827   1.222 -0.5992  0.6766  3.1718
 5551SOL     OW23702  12.122   9.547   0.776 -0.6226 -0.0693  0.4254
 5551SOL    HW123703  12.168   9.630   0.783 -0.6858 -0.0508  0.6377
 5551SOL    HW223704  12.055   9.551   0.845  0.9978 -1.3469  2.1786
 5552SOL     OW23705   3.837   4.237   7.275  0.1272  0.1625  0.1192
 5552SOL    HW123706   3.772   4.183   7.229 -0.0832 -0.0610  0.6694
 5552SOL    HW223707   3.914   4.235   7.219 -0.3211  0.3774 -0.5105
 5553SOL     OW23708   2.741   3.213  10.133 -0.5357  0.6558  0.1484
 5553SOL    HW123709   2.671   3.220  10.198 -0.8127  1.6798 -0.2488
 5553SOL    HW223710   2.737   3.295  10.084 -0.3749 -0.1098 -1.2066
 5554SOL     OW23711  11.681  12.090   9.638  0.1125 -0.1608  0.1873
 5554SOL    HW123712  11.747  12.061   9.575  0.6905 -0.0575  0.7432
 5554SOL    HW223713  11.713  12.175   9.669  0.5626 -0.8611  1.6878
 5555SOL     OW23714  12.066   5.307  11.446 -0.9678 -0.1693 -0.2564
 5555SOL    HW123715  12.069   5.396  11.410 -1.7711 -0.3474 -0.8044
 5555SOL    HW223716  11.977   5.300  11.483 -0.3974 -0.2261  1.1679
 5556SOL     OW23717   5.456   9.760  10.931 -0.2181 -0.2283  0.0787
 5556SOL    HW123718   5.365   9.768  10.905 -0.0134  0.5841 -0.4238
 5556SOL    HW223719   5.466   9.820  11.006 -0.3351 -1.0935  0.8065
 5557SOL     OW23720   9.976   3.556   8.979  0.0192 -0.0539 -0.6396
 5557SOL    HW123721   9.988   3.607   9.059 -1.3799  1.9347 -1.6259
 5557SOL    HW223722  10.064   3.546   8.943  0.2963  2.5367 -0.8774
 5558SOL     OW23723  11.985  10.857   4.371  0.0832  0.4095 -0.3955
 5558SOL    HW123724  11.951  10.946   4.364  0.4501  0.4907 -1.2662
 5558SOL    HW223725  12.016  10.836   4.283 -1.1573 -1.0626 -0.5249
 5559SOL     OW23726   2.193  10.406   4.266 -0.1625 -0.5672 -0.8041
 5559SOL    HW123727   2.278  10.362   4.264 -0.4403 -1.2366  0.6537
 5559SOL    HW223728   2.130  10.336   4.250 -0.4587  0.0045 -2.3613
 5560SOL     OW23729   7.473   2.153   8.577  0.0465 -0.7642 -0.3949
 5560SOL    HW123730   7.452   2.223   8.515 -1.8094 -0.9528 -0.0439
 5560SOL    HW223731   7.524   2.090   8.526 -1.2607 -0.8156 -1.6971
 5561SOL     OW23732  12.314   6.313  12.444 -0.5777  0.0876  0.9664
 5561SOL    HW123733  12.298   6.330  12.351  2.1693 -0.5055  0.2957
 5561SOL    HW223734  12.246   6.250  12.469 -0.4812 -0.8960 -1.0571
 5562SOL     OW23735   1.197  10.384   8.584 -0.7319 -0.7504 -0.3921
 5562SOL    HW123736   1.271  10.324   8.581 -1.1454 -1.3084  0.2723
 5562SOL    HW223737   1.234  10.468   8.558  0.5917 -0.5944  1.6969
 5563SOL     OW23738   5.104   8.874   8.131  0.2019  0.6620 -0.2651
 5563SOL    HW123739   5.048   8.946   8.160 -0.6017  0.7343 -1.8898
 5563SOL    HW223740   5.046   8.799   8.125  0.3396  0.6328 -1.5635
 5564SOL     OW23741   2.901  11.729   7.314 -0.4174  0.5677 -0.2234
 5564SOL    HW123742   2.959  11.665   7.272  0.3034 -0.2270  1.8579
 5564SOL    HW223743   2.928  11.813   7.277  1.1882  0.0653 -0.2848
 5565SOL     OW23744   8.852   7.017   3.170 -0.8100  0.0423 -0.0742
 5565SOL    HW123745   8.779   6.963   3.138 -0.2321  0.1995 -1.7263
 5565SOL    HW223746   8.919   6.954   3.196 -1.6474 -0.1205  1.8740
 5566SOL     OW23747   3.812  10.120   5.031  0.4933 -0.5248 -0.7760
 5566SOL    HW123748   3.880  10.167   4.982  1.9822 -1.2233  0.5321
 5566SOL    HW223749   3.861  10.064   5.092 -1.1458 -3.4685 -1.9272
 5567SOL     OW23750   9.378   1.864   7.030 -0.2360 -0.0125  0.3441
 5567SOL    HW123751   9.343   1.951   7.010 -1.8822 -0.5892  0.6038
 5567SOL    HW223752   9.302   1.812   7.054  0.7464 -1.4926  0.3860
 5568SOL     OW23753   8.678   2.564  10.210 -0.0256  0.3431 -0.0397
 5568SOL    HW123754   8.583   2.569  10.204 -0.0961 -0.6722  0.0384
 5568SOL    HW223755   8.702   2.492  10.151  0.5856 -0.1244  0.7544
 5569SOL     OW23756   3.495  11.443   8.971  0.2926  0.6645 -0.7239
 5569SOL    HW123757   3.483  11.446   9.066  2.7512  1.5665 -0.3645
 5569SOL    HW223758   3.590  11.434   8.959  0.1378  1.5033 -3.0943
 5570SOL     OW23759   9.598   9.805   3.120 -0.6268 -0.4428 -0.0801
 5570SOL    HW123760   9.507   9.830   3.133 -0.4332  0.8348 -1.0460
 5570SOL    HW223761   9.607   9.721   3.166 -1.8060  0.3138  1.6350
 5571SOL     OW23762   6.123   2.912   7.863  0.0143  0.5090 -0.4974
 5571SOL    HW123763   6.078   2.993   7.884 -2.7371 -0.4855 -2.0234
 5571SOL    HW223764   6.178   2.933   7.788 -0.0745  1.1331 -0.3892
 5572SOL     OW23765   6.094   4.319   3.588  0.0546 -0.4662 -0.6359
 5572SOL    HW123766   6.184   4.351   3.595  0.1253 -0.8236  0.1482
 5572SOL    HW223767   6.040   4.390   3.624 -0.0361 -0.0428 -1.5567
 5573SOL     OW23768   7.010   8.233   9.990  0.9120 -0.2859  0.0677
 5573SOL    HW123769   7.039   8.249  10.079  2.6514 -0.1043 -0.4870
 5573SOL    HW223770   6.990   8.320   9.956 -0.1569 -0.3963  0.4054
 5574SOL     OW23771   2.153   8.580   6.844 -0.8224 -0.1483  0.5822
 5574SOL    HW123772   2.207   8.501   6.850 -1.3994 -0.5291  0.8462
 5574SOL    HW223773   2.210   8.649   6.877 -0.6529 -0.6247  1.3170
 5575SOL     OW23774   2.224  10.816   7.807 -0.7806 -0.1032 -0.1345
 5575SOL    HW123775   2.237  10.866   7.727 -1.7546 -1.0801 -0.9317
 5575SOL    HW223776   2.290  10.851   7.868  0.3768  0.2546 -1.5314
 5576SOL     OW23777   3.934   5.835   0.255  0.2215 -0.3700 -1.2131
 5576SOL    HW123778   3.870   5.784   0.206 -0.1526 -2.3435  1.1071
 5576SOL    HW223779   3.965   5.775   0.324  1.1267  1.9734  0.5696
 5577SOL     OW23780   0.848  10.825   9.774 -0.0520  0.1377 -0.2931
 5577SOL    HW123781   0.811  10.829   9.686 -0.2867 -0.1909 -0.2116
 5577SOL    HW223782   0.888  10.911   9.787  0.7635 -0.1057 -1.0551
 5578SOL     OW23783   3.366   8.991   0.985 -0.2477 -0.1005 -0.0283
 5578SOL    HW123784   3.284   9.029   0.954  0.0444  0.2266 -0.3989
 5578SOL    HW223785   3.346   8.898   0.997 -0.1132 -0.4439 -2.1567
 5579SOL     OW23786   6.090   1.279   7.836 -0.1490  0.2823 -0.2348
 5579SOL    HW123787   6.029   1.281   7.762 -2.6203 -0.5920  1.6481
 5579SOL    HW223788   6.065   1.354   7.890 -1.2439 -1.4002  1.7409
 5580SOL     OW23789   2.642   3.446   5.866 -0.8585 -0.0808 -0.5914
 5580SOL    HW123790   2.641   3.395   5.786  0.4218  0.7410 -1.1749
 5580SOL    HW223791   2.703   3.400   5.924  0.0993  0.5955 -1.0237
 5581SOL     OW23792   1.040  10.745  11.072 -0.2182 -0.7454 -0.0567
 5581SOL    HW123793   0.977  10.741  11.144  0.5570 -0.9701  0.6297
 5581SOL    HW223794   1.082  10.831  11.081 -1.3614 -0.0238 -1.3400
 5582SOL     OW23795  11.965   8.608   8.064  0.3584  0.8766 -0.0853
 5582SOL    HW123796  11.887   8.583   8.015  1.3348  1.3095 -1.9460
 5582SOL    HW223797  11.991   8.528   8.109  0.1197  0.0996 -1.2656
 5583SOL     OW23798  12.142   4.531   9.865  0.1373 -0.2239  0.3079
 5583SOL    HW123799  12.130   4.516   9.771 -0.5614 -1.4103  0.5614
 5583SOL    HW223800  12.101   4.616   9.881  0.6901  0.2098 -0.5373
 5584SOL     OW23801   9.347  11.232   7.287 -0.0223  0.2202  0.5787
 5584SOL    HW123802   9.278  11.180   7.327  1.3415 -1.9382  0.3136
 5584SOL    HW223803   9.417  11.234   7.353  1.6362 -2.0774 -0.9317
 5585SOL     OW23804   1.178   0.383   6.355 -1.1065  0.1917  0.0413
 5585SOL    HW123805   1.122   0.357   6.283 -2.7775 -1.4091  1.8024
 5585SOL    HW223806   1.260   0.336   6.341 -1.3166  0.0886 -0.8945
 5586SOL     OW23807   5.104   9.731   3.742  0.7315  0.0012  0.8312
 5586SOL    HW123808   5.187   9.755   3.784  0.7434 -0.7784  1.2789
 5586SOL    HW223809   5.038   9.783   3.787  0.6908 -1.1087  2.1221
 5587SOL     OW23810   8.099   0.731   1.818  0.6667 -0.2741  0.0332
 5587SOL    HW123811   8.113   0.746   1.724  0.2673 -1.9918 -0.3240
 5587SOL    HW223812   8.174   0.772   1.860  0.7664  0.6744 -1.0134
 5588SOL     OW23813   0.669   7.734   1.524  0.0109 -0.3019 -0.4421
 5588SOL    HW123814   0.703   7.823   1.534  1.4394 -0.9112  0.4455
 5588SOL    HW223815   0.635   7.711   1.611 -3.3332  0.4757 -1.4083
 5589SOL     OW23816   2.658  11.849   6.963  0.4033  0.4720  0.2994
 5589SOL    HW123817   2.603  11.899   7.024 -0.0591 -1.3146  1.4217
 5589SOL    HW223818   2.611  11.767   6.950  3.2989 -1.7518  2.3708
 5590SOL     OW23819   5.330   8.756   4.969 -0.6786 -0.0236 -0.5012
 5590SOL    HW123820   5.267   8.713   4.912 -0.9291  1.8341 -1.7253
 5590SOL    HW223821   5.411   8.759   4.918  0.9030 -3.4261  1.4775
 5591SOL     OW23822   9.388  10.983   1.293 -0.6279 -0.1371  0.1985
 5591SOL    HW123823   9.417  10.900   1.331 -0.8380 -0.8732 -1.2060
 5591SOL    HW223824   9.296  10.970   1.273 -0.3007 -0.1353 -1.4455
 5592SOL     OW23825   7.724   9.431   2.838  0.1355  0.8000  0.1126
 5592SOL    HW123826   7.767   9.391   2.914 -0.8205 -0.9867 -0.2399
 5592SOL    HW223827   7.789   9.493   2.804  2.4354 -1.6154 -0.2752
 5593SOL     OW23828   9.714  11.918   5.821 -0.2423  0.2446  0.2040
 5593SOL    HW123829   9.802  11.884   5.831 -0.0602  0.1309 -1.4510
 5593SOL    HW223830   9.703  11.979   5.894  0.1271 -1.8496  2.1140
 5594SOL     OW23831   7.090   5.089   2.899 -0.4247 -0.5327 -0.0427
 5594SOL    HW123832   6.998   5.081   2.873 -0.2143  0.3858 -1.1954
 5594SOL    HW223833   7.090   5.156   2.967 -0.4260  1.0943 -1.5468
 5595SOL     OW23834   1.219   0.894   0.280 -0.4992 -0.2788  0.4628
 5595SOL    HW123835   1.203   0.943   0.361 -1.0282 -1.4680  1.1161
 5595SOL    HW223836   1.294   0.838   0.301  0.8029  0.9872 -0.6266
 5596SOL     OW23837   2.138   9.011   1.717 -0.3112  0.6476 -0.0677
 5596SOL    HW123838   2.141   8.967   1.632 -1.7328 -0.6475  0.5065
 5596SOL    HW223839   2.224   9.052   1.725  0.1735  0.0534 -1.7403
 5597SOL     OW23840   2.530   7.356   2.830  0.1561 -0.4112  0.0426
 5597SOL    HW123841   2.551   7.264   2.812 -1.0726 -0.7337  0.1856
 5597SOL    HW223842   2.610   7.403   2.807  1.0362 -1.5804  0.5826
 5598SOL     OW23843   0.857  10.819   3.881 -0.1032 -0.0969  0.8034
 5598SOL    HW123844   0.762  10.817   3.870 -0.2855  0.4655  2.0394
 5598SOL    HW223845   0.870  10.866   3.964  1.2282 -0.6454  0.9269
 5599SOL     OW23846   5.404   9.881   8.116  0.0862  0.0727  0.6426
 5599SOL    HW123847   5.324   9.929   8.134  0.9964  1.4540  1.2198
 5599SOL    HW223848   5.383   9.790   8.135 -1.4731  0.3328  0.3012
 5600SOL     OW23849   8.773  10.168   6.361  0.4539 -0.5988  0.3196
 5600SOL    HW123850   8.851  10.142   6.313  1.3661  1.9584  0.2598
 5600SOL    HW223851   8.764  10.102   6.430  1.9669 -1.5783 -0.3608
 5601SOL     OW23852  11.333   5.466  11.052 -0.5610  0.0337 -0.1885
 5601SOL    HW123853  11.370   5.553  11.041  1.8544 -0.8021  0.5988
 5601SOL    HW223854  11.383   5.411  10.991  0.2086 -1.3177  1.5627
 5602SOL     OW23855   5.344   5.212  12.268 -0.1713  0.0681  0.1187
 5602SOL    HW123856   5.290   5.147  12.313 -0.1945 -1.3043 -1.7351
 5602SOL    HW223857   5.306   5.296  12.293 -1.6834 -0.7429  0.7321
 5603SOL     OW23858  10.965   0.857   7.176 -0.0264  0.3664  0.4695
 5603SOL    HW123859  10.893   0.901   7.132 -0.7795 -1.2798 -0.0217
 5603SOL    HW223860  11.031   0.844   7.108 -0.8134 -1.3611 -0.0224
 5604SOL     OW23861   0.894   3.789   1.595  0.0059  0.2325  0.3069
 5604SOL    HW123862   0.943   3.723   1.645 -0.1062 -0.3675 -0.3603
 5604SOL    HW223863   0.961   3.834   1.543 -0.2757 -1.9370 -2.1630
 5605SOL     OW23864  10.135   2.503   1.481 -0.3180 -0.6387  0.2038
 5605SOL    HW123865  10.126   2.594   1.450 -0.5518 -1.5096 -2.5699
 5605SOL    HW223866  10.099   2.504   1.569 -1.3879  1.7393 -0.1736
 5606SOL     OW23867   8.249   6.057   1.082  0.2524 -0.2021  0.2313
 5606SOL    HW123868   8.330   6.104   1.065 -0.5555  1.0182 -0.4119
 5606SOL    HW223869   8.233   6.069   1.176  1.4843 -1.6163  0.6662
 5607SOL     OW23870   4.441   1.069   2.208 -0.1436 -0.1041 -0.4436
 5607SOL    HW123871   4.532   1.092   2.225 -0.2168  0.2763 -0.5546
 5607SOL    HW223872   4.440   1.040   2.117  0.2270 -2.0279  0.1356
 5608SOL     OW23873   6.637   9.269   4.290  0.3241  0.2602 -0.7133
 5608SOL    HW123874   6.640   9.293   4.383 -2.5928 -0.6649 -0.2802
 5608SOL    HW223875   6.612   9.350   4.245 -0.4141  0.2209 -0.3932
 5609SOL     OW23876   5.412   9.397   3.735 -0.0355 -0.1110  0.4441
 5609SOL    HW123877   5.448   9.479   3.769 -0.0917  0.3937 -0.6795
 5609SOL    HW223878   5.337   9.423   3.682 -0.5317 -0.9558  0.7132
 5610SOL     OW23879   5.954  10.257   4.056 -0.2665 -0.2827  0.3180
 5610SOL    HW123880   5.984  10.344   4.031 -1.6633 -0.2698 -1.5858
 5610SOL    HW223881   5.859  10.261   4.046 -0.3861 -1.9391  0.4881
 5611SOL     OW23882   8.062   6.509   6.569 -0.0851  0.2970 -0.0855
 5611SOL    HW123883   8.149   6.541   6.590 -0.5323  0.7337  1.2078
 5611SOL    HW223884   8.069   6.478   6.479  1.0082  1.6878 -0.5113
 5612SOL     OW23885   1.131   5.458   3.682 -0.4976 -0.6541 -0.0219
 5612SOL    HW123886   1.169   5.452   3.770 -0.6388  1.6024  0.2544
 5612SOL    HW223887   1.037   5.466   3.697 -0.5590 -0.6802 -0.3899
 5613SOL     OW23888   5.185   3.374   3.887 -1.0143  0.2346 -0.2991
 5613SOL    HW123889   5.160   3.314   3.956  2.0264 -1.4593 -0.4759
 5613SOL    HW223890   5.227   3.447   3.933  0.7805 -0.7731 -0.2273
 5614SOL     OW23891   8.815   7.691   4.866  0.4237  0.3677  0.1703
 5614SOL    HW123892   8.900   7.734   4.878  1.4086 -1.3604 -0.2713
 5614SOL    HW223893   8.754   7.742   4.920  2.0162  0.7882  1.6553
 5615SOL     OW23894   5.722   0.167  11.289 -0.4826  0.2391  0.0026
 5615SOL    HW123895   5.746   0.256  11.311  0.0659 -0.2779  1.6081
 5615SOL    HW223896   5.636   0.175  11.246 -0.6774  1.4779  0.5913
 5616SOL     OW23897   5.689   6.557  10.037 -0.3300  0.2778 -0.2914
 5616SOL    HW123898   5.769   6.531   9.992 -1.0450 -0.3431 -1.2573
 5616SOL    HW223899   5.656   6.632   9.987  0.6948  1.8995  1.3305
 5617SOL     OW23900   8.098   0.256   7.411  0.2053  0.0687  0.2434
 5617SOL    HW123901   8.039   0.294   7.476 -2.6718 -0.1356 -2.0170
 5617SOL    HW223902   8.061   0.169   7.394  1.7078 -0.4298 -0.6858
 5618SOL     OW23903   8.950  11.539   7.272  0.0075 -0.2433 -0.0183
 5618SOL    HW123904   8.867  11.551   7.226  0.9940  0.0133 -1.8035
 5618SOL    HW223905   9.005  11.611   7.242  0.7677 -0.1714  1.4535
 5619SOL     OW23906   3.370   0.071   0.204  0.1713  0.0465  0.2699
 5619SOL    HW123907   3.319   0.048   0.281 -0.4811  0.3349 -0.0677
 5619SOL    HW223908   3.460   0.080   0.236  0.0884 -0.8668  0.7937
 5620SOL     OW23909   8.887   0.054   4.773 -0.0529  0.1620 -0.3244
 5620SOL    HW123910   8.808   0.077   4.821  0.1454  2.4771 -1.0138
 5620SOL    HW223911   8.856  -0.001   4.701 -0.4423 -2.7103  1.8555
 5621SOL     OW23912  11.891   2.881   7.943  0.3570  0.0093 -0.1297
 5621SOL    HW123913  11.930   2.911   7.860  0.7012  0.7806  0.2955
 5621SOL    HW223914  11.839   2.956   7.972  0.3435 -0.2130  0.4197
 5622SOL     OW23915   7.105   3.944   0.720  0.0245  0.0523  0.1614
 5622SOL    HW123916   7.159   3.933   0.799  0.8101  2.6576  0.0797
 5622SOL    HW223917   7.037   3.877   0.728  0.3289 -0.0485  2.8516
 5623SOL     OW23918   6.132   6.745   1.122 -0.3491  0.1601 -0.3684
 5623SOL    HW123919   6.054   6.792   1.150  0.9967  2.7980 -0.6430
 5623SOL    HW223920   6.176   6.720   1.203 -0.9278 -0.3381 -0.2081
 5624SOL     OW23921   9.606   8.494   8.551  0.1385  0.7413  0.6233
 5624SOL    HW123922   9.694   8.486   8.587 -0.2646  0.8446  1.6717
 5624SOL    HW223923   9.548   8.483   8.626 -0.7274  1.3634  0.0718
 5625SOL     OW23924   6.611  11.677   6.193  0.6335  0.6605 -0.0771
 5625SOL    HW123925   6.681  11.740   6.174  0.9392  0.5129  0.5230
 5625SOL    HW223926   6.657  11.599   6.225  0.1588  0.9022  1.2641
 5626SOL     OW23927   8.691   3.878   6.586  0.3730 -0.5649  0.2234
 5626SOL    HW123928   8.597   3.878   6.571 -0.1767 -2.5931  2.8531
 5626SOL    HW223929   8.717   3.787   6.572  1.6054 -0.3632  1.0419
 5627SOL     OW23930   7.882   1.500   7.990  0.6744 -0.6369  0.3338
 5627SOL    HW123931   7.818   1.565   7.961  0.0225 -0.2475  2.4570
 5627SOL    HW223932   7.838   1.416   7.977 -0.0763 -0.4030  1.2442
 5628SOL     OW23933   6.020  10.548   0.408  0.5728  0.0380 -0.1285
 5628SOL    HW123934   6.040  10.637   0.435  1.3968  0.0237 -0.6669
 5628SOL    HW223935   6.093  10.496   0.440  0.8161 -0.2106 -1.0635
 5629SOL     OW23936  12.166   2.284   8.914  0.6554 -0.2436  0.3860
 5629SOL    HW123937  12.154   2.203   8.964  2.6636  0.4850  2.2086
 5629SOL    HW223938  12.125   2.266   8.829  0.0807 -2.7638  1.1132
 5630SOL     OW23939   4.923  12.214   9.944 -0.5462  0.4125  0.5101
 5630SOL    HW123940   4.897  12.139   9.997 -1.3317  1.5986  1.8768
 5630SOL    HW223941   4.863  12.214   9.870  1.8167 -2.4613 -1.7106
 5631SOL     OW23942   8.004   2.698   9.937  0.2085  0.0501 -0.3865
 5631SOL    HW123943   8.025   2.662   9.851  0.9699 -0.0643 -0.1609
 5631SOL    HW223944   8.035   2.632   9.999 -1.8238 -0.6380 -0.0318
 5632SOL     OW23945   4.549  11.429   5.213  0.4248  0.2763  0.2172
 5632SOL    HW123946   4.460  11.401   5.191  0.5711 -0.2038  0.2403
 5632SOL    HW223947   4.605  11.386   5.148  0.8000 -0.7061  1.1706
 5633SOL     OW23948   6.019   4.534   6.387 -0.2332 -0.0636 -0.1326
 5633SOL    HW123949   6.007   4.551   6.481 -2.2195  0.7443 -0.4884
 5633SOL    HW223950   5.999   4.442   6.377  0.5095 -0.2820  0.2994
 5634SOL     OW23951   1.731   0.463  11.360 -0.3305  0.1444  0.2834
 5634SOL    HW123952   1.683   0.410  11.423 -0.7268  0.5975  0.3731
 5634SOL    HW223953   1.699   0.552  11.375  1.1981  0.6216  0.9844
 5635SOL     OW23954   6.065   2.442   6.877  0.0782 -0.3050 -0.3045
 5635SOL    HW123955   5.983   2.491   6.882 -0.3770 -0.9645 -1.0444
 5635SOL    HW223956   6.039   2.350   6.885  0.7653 -0.5077 -0.3183
 5636SOL     OW23957   8.293   1.311   0.512  0.5735 -0.1445  0.8366
 5636SOL    HW123958   8.279   1.216   0.510  1.4476 -0.2876  0.4384
 5636SOL    HW223959   8.219   1.348   0.463 -0.9675 -0.4198  2.8693
 5637SOL     OW23960  11.102   1.757   0.673  0.9203  0.2798 -0.2452
 5637SOL    HW123961  11.108   1.806   0.591  0.0592 -0.7912 -0.9798
 5637SOL    HW223962  11.035   1.804   0.724  1.9590  1.3555  0.1591
 5638SOL     OW23963  11.323   9.190   4.467  0.5586  0.2748 -0.1132
 5638SOL    HW123964  11.357   9.273   4.503  0.8831  0.6782 -1.2984
 5638SOL    HW223965  11.267   9.217   4.395 -1.6026 -0.4328  1.2167
 5639SOL     OW23966   9.686   1.698   5.233 -0.3059 -0.3139  0.1129
 5639SOL    HW123967   9.781   1.683   5.233  0.0156  1.4884  0.4607
 5639SOL    HW223968   9.658   1.675   5.322  0.5329  2.8073  1.3357
 5640SOL     OW23969  10.363   3.831  12.425  0.0372 -0.3324 -0.0082
 5640SOL    HW123970  10.406   3.745  12.416  0.3803  0.0316 -2.8646
 5640SOL    HW223971  10.274   3.817  12.393 -0.1889  0.1706  0.3968
 5641SOL     OW23972   9.081   4.682  11.846 -0.5460 -0.1922  0.3335
 5641SOL    HW123973   9.176   4.674  11.846 -0.6206 -1.7543  1.7706
 5641SOL    HW223974   9.055   4.657  11.758  0.3203 -0.9926  0.2865
 5642SOL     OW23975   7.562  10.063   4.143  0.3605 -0.1164  0.1797
 5642SOL    HW123976   7.545  10.116   4.221  0.8923  1.3536 -0.6718
 5642SOL    HW223977   7.640  10.013   4.165  1.2865  1.2660  0.1548
 5643SOL     OW23978  10.974   0.485   3.898 -0.3232  0.2973  0.2886
 5643SOL    HW123979  10.983   0.525   3.985 -0.1423  2.1879 -0.5355
 5643SOL    HW223980  10.881   0.461   3.892 -0.1689 -0.6460  1.2931
 5644SOL     OW23981   5.351   0.264   8.443 -0.3234 -0.0424  0.1108
 5644SOL    HW123982   5.290   0.191   8.443  0.7270 -0.9426  0.0967
 5644SOL    HW223983   5.414   0.243   8.374  0.3889  0.5357  0.5669
 5645SOL     OW23984   4.680   2.187   1.890  0.3059 -0.1808 -0.0804
 5645SOL    HW123985   4.691   2.121   1.822 -1.6302 -0.7830  0.1504
 5645SOL    HW223986   4.664   2.138   1.970 -1.4464  0.5122  0.0484
 5646SOL     OW23987   1.331   7.004   8.835  0.3077 -0.7186  0.1404
 5646SOL    HW123988   1.350   6.910   8.830 -0.7658 -1.0194  1.1256
 5646SOL    HW223989   1.248   7.014   8.789  0.4580 -0.2295 -0.0309
 5647SOL     OW23990   1.215   4.838  10.073 -0.0590 -0.2073 -0.3102
 5647SOL    HW123991   1.136   4.891  10.080  1.0095  1.5010 -0.6439
 5647SOL    HW223992   1.188   4.751  10.104 -1.8046  0.5693  0.4949
 5648SOL     OW23993   8.055  11.018   9.351  0.4073 -0.1508  0.2647
 5648SOL    HW123994   8.024  11.021   9.261  1.2393  0.2167 -0.0230
 5648SOL    HW223995   8.010  11.090   9.395 -0.5235 -0.7560  0.3293
 5649SOL     OW23996   7.107   1.187   7.724  0.4396  0.3228  0.1677
 5649SOL    HW123997   7.024   1.160   7.684  0.1796 -0.0272  0.9339
 5649SOL    HW223998   7.169   1.188   7.651  0.0976 -0.8236 -0.1675
 5650SOL     OW23999   2.610   1.518  10.293 -0.3308  0.1575 -0.4989
 5650SOL    HW124000   2.608   1.579  10.220 -0.7873  0.5217 -0.1857
 5650SOL    HW224001   2.596   1.432  10.252  4.7592 -0.4765 -1.5938
 5651SOL     OW24002   8.863   3.783  11.918  0.4659 -0.3956 -0.7209
 5651SOL    HW124003   8.873   3.870  11.956 -0.0040 -0.6084 -0.0989
 5651SOL    HW224004   8.945   3.738  11.940  1.8676  0.6808 -3.2629
 5652SOL     OW24005  11.727   1.067   6.054 -0.0372 -0.7073 -0.8073
 5652SOL    HW124006  11.722   1.017   5.972 -1.1088 -0.6817 -0.7712
 5652SOL    HW224007  11.718   1.001   6.123 -1.2687 -0.4925 -0.7565
 5653SOL     OW24008   3.502   8.553   5.308 -0.0839 -0.1405  0.2380
 5653SOL    HW124009   3.516   8.505   5.390 -0.1203 -1.5147 -0.5332
 5653SOL    HW224010   3.439   8.500   5.260  1.2917 -0.3440 -1.4420
 5654SOL     OW24011   9.015  10.460   8.689 -0.0580 -0.6918  0.0764
 5654SOL    HW124012   9.030  10.385   8.747  0.1828 -0.4561  0.3212
 5654SOL    HW224013   8.946  10.510   8.733  0.6772 -0.0908  0.5731
 5655SOL     OW24014   2.851   0.213  11.407 -0.0038 -0.2508  0.3670
 5655SOL    HW124015   2.928   0.165  11.377  0.9713 -0.3067  2.7866
 5655SOL    HW224016   2.856   0.210  11.503 -2.2281  1.0193  0.5941
 5656SOL     OW24017   5.310   7.288   6.177 -0.3767  0.2175 -0.0051
 5656SOL    HW124018   5.269   7.246   6.253  2.0277 -1.6644  0.3947
 5656SOL    HW224019   5.239   7.338   6.136 -3.1976 -3.1220  0.3136
 5657SOL     OW24020   9.832   6.175   7.497 -0.4845  0.4505  0.0589
 5657SOL    HW124021   9.814   6.107   7.432  0.9964 -0.0024  0.0922
 5657SOL    HW224022   9.803   6.256   7.455 -2.2630 -0.1610  0.0113
 5658SOL     OW24023   1.852   9.669   5.122  0.1789  1.0091 -0.1893
 5658SOL    HW124024   1.790   9.691   5.192 -0.1693  2.0679 -0.8127
 5658SOL    HW224025   1.850   9.745   5.063  1.0308  0.4582 -0.9546
 5659SOL     OW24026   2.383  12.587   3.508  0.1792  0.0233  0.1319
 5659SOL    HW124027   2.376  12.637   3.589 -2.4634  0.2955 -0.1712
 5659SOL    HW224028   2.364  12.650   3.438 -0.8209 -0.8577 -0.4241
 5660SOL     OW24029   3.575   5.098  11.727  0.7567  0.2861 -0.0970
 5660SOL    HW124030   3.524   5.160  11.779  2.7117  1.2467  0.7720
 5660SOL    HW224031   3.589   5.023  11.786  0.5198  0.0968 -0.2768
 5661SOL     OW24032   2.609   1.099  11.085  0.4251 -0.3469 -0.4330
 5661SOL    HW124033   2.550   1.032  11.119 -0.3445 -0.4433 -1.8724
 5661SOL    HW224034   2.594   1.098  10.990  1.6567  0.6747 -0.6630
 5662SOL     OW24035  11.892   3.978   7.892 -0.1167  0.3983 -0.0261
 5662SOL    HW124036  11.945   3.898   7.896 -1.7701 -0.7964 -0.7539
 5662SOL    HW224037  11.955   4.049   7.887  1.4291 -0.8078  1.1943
 5663SOL     OW24038   3.659  12.478   5.341 -0.3053 -0.1429  0.5625
 5663SOL    HW124039   3.570  12.469   5.308  0.6055 -0.5334 -1.9981
 5663SOL    HW224040   3.693  12.388   5.342  0.2163  0.0582  1.0401
 5664SOL     OW24041  10.039  11.426  10.715  0.0352 -0.1549  0.8697
 5664SOL    HW124042   9.945  11.419  10.698  0.0612  1.4873 -0.1810
 5664SOL    HW224043  10.069  11.336  10.722 -1.6299 -0.7038  1.3436
 5665SOL     OW24044   9.032   7.443   2.521 -0.0731 -0.0098  0.4288
 5665SOL    HW124045   8.981   7.362   2.527 -0.2502  0.1379  1.0744
 5665SOL    HW224046   9.113   7.424   2.569  0.8887 -0.5305 -1.3382
 5666SOL     OW24047  11.503   8.454  10.586  0.0346 -0.5780 -0.2351
 5666SOL    HW124048  11.472   8.484  10.501  0.3925 -0.8676 -0.4731
 5666SOL    HW224049  11.424   8.437  10.636 -0.2149 -1.8951 -1.0292
 5667SOL     OW24050   6.895   9.132   3.857 -0.1168 -0.9005  0.6677
 5667SOL    HW124051   6.857   9.193   3.793  0.2365 -0.0676  1.2386
 5667SOL    HW224052   6.985   9.161   3.868 -0.1037 -1.1790  1.3737
 5668SOL     OW24053   7.528  10.065   2.973  0.2641  0.6337 -0.1777
 5668SOL    HW124054   7.605  10.010   2.962 -0.1517  0.0675 -0.2587
 5668SOL    HW224055   7.518  10.074   3.068 -0.8002 -1.0435 -0.1030
 5669SOL     OW24056   9.837   6.556  10.687 -0.1065 -0.5146  0.4432
 5669SOL    HW124057   9.804   6.547  10.776  0.3539 -0.6672  0.6020
 5669SOL    HW224058   9.897   6.631  10.691  0.5525 -1.0281  0.4578
 5670SOL     OW24059   7.410   3.566   3.472  0.3322  0.1033  0.2673
 5670SOL    HW124060   7.442   3.614   3.548 -0.6079  1.1564  0.0117
 5670SOL    HW224061   7.400   3.632   3.404 -1.5817 -0.3192  0.0861
 5671SOL     OW24062   5.199  12.325   1.818 -0.0767 -0.0643  0.1394
 5671SOL    HW124063   5.183  12.392   1.885 -0.8260 -1.8320  1.8333
 5671SOL    HW224064   5.153  12.357   1.741 -2.0497  0.5050  1.4689
 5672SOL     OW24065   7.753   1.681   4.979 -0.2877  0.2432  0.0926
 5672SOL    HW124066   7.707   1.748   5.030 -2.4158  1.0714 -2.6835
 5672SOL    HW224067   7.813   1.731   4.924  0.3105 -0.4301  0.1180
 5673SOL     OW24068   0.538   1.521   1.862  0.3795 -0.0084 -0.4392
 5673SOL    HW124069   0.468   1.458   1.849 -0.5283  0.6139  1.1459
 5673SOL    HW224070   0.494   1.605   1.875  1.5445  0.9376 -2.1648
 5674SOL     OW24071  12.159   6.275   5.929 -0.3787  0.9911 -0.5505
 5674SOL    HW124072  12.242   6.259   5.975  0.3575  0.9562 -1.8509
 5674SOL    HW224073  12.102   6.205   5.958 -0.3442  1.6358  1.2232
 5675SOL     OW24074   2.236   4.749  11.549 -0.1444  0.0650 -0.0169
 5675SOL    HW124075   2.213   4.814  11.615  1.1443  0.1569  0.3600
 5675SOL    HW224076   2.214   4.665  11.590 -1.9960  0.2228 -0.5791
 5676SOL     OW24077   5.330   5.482   0.861  0.3359  0.3520  0.1669
 5676SOL    HW124078   5.274   5.487   0.939  0.5378  1.0072  0.2763
 5676SOL    HW224079   5.392   5.554   0.871  1.2181 -0.3710  0.0516
 5677SOL     OW24080   6.612  10.452   6.188  0.0972  0.1445 -0.1469
 5677SOL    HW124081   6.665  10.462   6.110  1.9522 -0.8115  0.9167
 5677SOL    HW224082   6.613  10.538   6.230 -0.8702  0.6456 -1.1083
 5678SOL     OW24083   6.883   8.006   3.114 -0.0081 -0.0735  0.4644
 5678SOL    HW124084   6.932   7.991   3.033  1.1524  0.0821  1.1283
 5678SOL    HW224085   6.819   7.934   3.117  0.3195 -0.4069 -0.2933
 5679SOL     OW24086   3.398   4.131   7.251  0.6342  0.7002  0.2575
 5679SOL    HW124087   3.383   4.187   7.327 -0.1929 -0.9089  1.3463
 5679SOL    HW224088   3.311   4.099   7.228  0.9172  0.9127 -1.2053
 5680SOL     OW24089   1.284   3.808   8.230  0.2227  0.1126  0.3054
 5680SOL    HW124090   1.323   3.736   8.281 -1.6576 -2.2604 -1.3999
 5680SOL    HW224091   1.346   3.824   8.160  0.3460 -0.3030  0.3182
 5681SOL     OW24092   7.423   4.630  10.577  0.1858  0.1627  0.7632
 5681SOL    HW124093   7.430   4.719  10.612 -0.0075  0.8098 -0.7825
 5681SOL    HW224094   7.479   4.578  10.635  0.1773  1.2515  1.7912
 5682SOL     OW24095   3.181   9.685   7.007 -0.4741 -0.5502 -0.2280
 5682SOL    HW124096   3.202   9.769   7.049  2.2431 -0.6393 -1.2228
 5682SOL    HW224097   3.134   9.709   6.927 -0.2496  0.0027 -0.1999
 5683SOL     OW24098   0.719  12.228  11.524 -0.5521  0.3000  0.0111
 5683SOL    HW124099   0.649  12.199  11.466  0.0653  0.9716 -1.0976
 5683SOL    HW224100   0.800  12.204  11.480 -0.0292 -1.2440  1.6786
 5684SOL     OW24101   1.705   8.829  10.898  0.4001 -0.1516  0.9307
 5684SOL    HW124102   1.740   8.916  10.916 -0.2331  0.2404  0.2907
 5684SOL    HW224103   1.783   8.776  10.879  0.7441  0.4016  0.7863
 5685SOL     OW24104   2.782  10.672   1.496  0.4217  0.3341  0.4012
 5685SOL    HW124105   2.774  10.756   1.451  0.1995 -0.5840 -1.3359
 5685SOL    HW224106   2.863  10.680   1.546  0.6741  1.3963 -0.1292
 5686SOL     OW24107  11.193   6.227   1.605  0.2272 -0.0143  0.0454
 5686SOL    HW124108  11.277   6.217   1.560 -0.5377 -3.2915 -0.9369
 5686SOL    HW224109  11.216   6.245   1.696  1.9417  0.6113 -0.4735
 5687SOL     OW24110   3.468   6.436   8.214  0.3705  0.2481 -0.4109
 5687SOL    HW124111   3.518   6.466   8.138  0.6416  0.3353 -0.2019
 5687SOL    HW224112   3.500   6.491   8.287  0.0948  0.1858 -0.2403
 5688SOL     OW24113  10.935   9.143  11.967  0.8468 -0.3128  0.0782
 5688SOL    HW124114  10.933   9.235  11.994 -2.5447  0.4328 -2.1054
 5688SOL    HW224115  10.908   9.094  12.044  0.9250  0.6810  0.7567
 5689SOL     OW24116  11.853  10.856  12.204  0.5187  0.1105 -0.0543
 5689SOL    HW124117  11.936  10.866  12.156  0.5577 -2.1808 -0.5817
 5689SOL    HW224118  11.840  10.761  12.209 -0.9950  0.3694  1.9314
 5690SOL     OW24119   1.627   6.190   3.999  0.2522  0.5535  0.2216
 5690SOL    HW124120   1.578   6.256   4.048  0.4858  0.7690  0.1642
 5690SOL    HW224121   1.717   6.196   4.032  0.2465  0.1678  0.3159
 5691SOL     OW24122   3.770   5.547  11.554  0.4215  0.1106 -0.2286
 5691SOL    HW124123   3.814   5.472  11.514 -0.4953 -0.9948  0.7745
 5691SOL    HW224124   3.824   5.622  11.529  2.4579 -1.0883  0.3177
 5692SOL     OW24125   2.096   3.334   2.825 -0.2458 -0.3396 -0.0394
 5692SOL    HW124126   2.024   3.334   2.763 -0.8596  1.1642  0.6361
 5692SOL    HW224127   2.061   3.289   2.902  0.3522 -1.7494 -0.5465
 5693SOL     OW24128   1.484   8.189   8.227  0.1800  0.4117  0.7044
 5693SOL    HW124129   1.527   8.267   8.261  1.0272  0.2251  0.0951
 5693SOL    HW224130   1.399   8.221   8.195 -0.4296  0.6710  2.4717
 5694SOL     OW24131   1.261   2.829   1.260 -0.7018 -0.2254 -0.3518
 5694SOL    HW124132   1.218   2.914   1.275 -1.6965 -0.8342  0.3450
 5694SOL    HW224133   1.191   2.772   1.229  0.6168  0.1227 -4.7115
 5695SOL     OW24134   0.645   5.559   6.244  0.0138 -0.0946  0.3845
 5695SOL    HW124135   0.559   5.601   6.249 -0.2005 -0.4068 -0.5212
 5695SOL    HW224136   0.705   5.623   6.283 -0.7620 -0.3321  2.0834
 5696SOL     OW24137  11.962   4.150   4.238  0.0180 -0.7176  0.2315
 5696SOL    HW124138  12.030   4.104   4.189  0.3608  0.7659 -0.7412
 5696SOL    HW224139  12.006   4.178   4.319  0.1412 -1.0503  0.2826
 5697SOL     OW24140   6.098   3.270   6.825  0.7696 -0.1104 -0.3173
 5697SOL    HW124141   6.137   3.354   6.801  0.8892 -0.0942 -0.0733
 5697SOL    HW224142   6.116   3.262   6.919 -0.1621  0.0848 -0.1099
 5698SOL     OW24143   8.783   4.571  11.806 -0.5122  0.1267 -0.1609
 5698SOL    HW124144   8.749   4.560  11.718 -1.3123  2.0702 -0.1302
 5698SOL    HW224145   8.754   4.493  11.853 -0.9166 -0.4533 -1.3387
 5699SOL     OW24146  11.489   1.210   4.999 -0.9689  0.1364 -0.0910
 5699SOL    HW124147  11.431   1.255   4.938 -1.6510  0.8147  1.0199
 5699SOL    HW224148  11.457   1.235   5.086  0.2880 -0.3885  0.5538
 5700SOL     OW24149   8.526   3.527   5.785  0.1357  0.5313  0.2913
 5700SOL    HW124150   8.618   3.554   5.776  0.6964 -1.2284  0.4740
 5700SOL    HW224151   8.507   3.479   5.705 -0.8523  1.4137 -0.0279
 5701SOL     OW24152   0.176   8.384   8.444  0.0830  0.1610  0.4939
 5701SOL    HW124153   0.142   8.333   8.371 -0.6321  1.7846 -0.3467
 5701SOL    HW224154   0.263   8.347   8.460  0.4526  0.0534 -1.4841
 5702SOL     OW24155   1.576  11.689   3.314  0.4070 -0.3107  0.1889
 5702SOL    HW124156   1.525  11.695   3.233 -0.0275 -0.5421  0.4420
 5702SOL    HW224157   1.568  11.597   3.340 -2.7684  0.4443  2.5964
 5703SOL     OW24158   7.178   3.832  11.905  0.0121  0.1418  0.3273
 5703SOL    HW124159   7.155   3.798  11.819  0.3517 -0.2222  0.3749
 5703SOL    HW224160   7.270   3.806  11.917 -0.0581  0.1174  0.8325
 5704SOL     OW24161   6.483  12.082   5.255  0.0082  0.6037 -0.3882
 5704SOL    HW124162   6.514  12.052   5.169  0.4465  0.9294 -0.3431
 5704SOL    HW224163   6.522  12.020   5.317 -1.0277 -0.1790 -0.4823
 5705SOL     OW24164   7.231   7.667   9.159  0.0770  0.5359  0.2659
 5705SOL    HW124165   7.297   7.676   9.228 -0.7771 -0.5857  1.2710
 5705SOL    HW224166   7.156   7.716   9.192 -0.6754 -0.8138  0.6151
 5706SOL     OW24167   8.037  11.252   1.925  0.0667  0.2460 -0.4173
 5706SOL    HW124168   7.977  11.214   1.860 -1.8331  0.8885  0.8577
 5706SOL    HW224169   8.054  11.180   1.987 -0.3279  0.3655 -0.1645
 5707SOL     OW24170   0.044   7.780   3.947  0.4465 -0.0412 -0.0575
 5707SOL    HW124171   0.086   7.720   3.886 -1.0982 -0.7236 -0.5014
 5707SOL    HW224172  -0.048   7.753   3.949  0.0872  1.1098  1.1953
 5708SOL     OW24173   4.577   2.465   8.115  0.4350  0.3249  0.4406
 5708SOL    HW124174   4.593   2.546   8.066  0.3891 -0.2883 -0.6174
 5708SOL    HW224175   4.607   2.484   8.204 -1.4297  2.1866  0.7649
 5709SOL     OW24176  10.325   8.151   5.124  0.7080 -0.2532 -0.4446
 5709SOL    HW124177  10.256   8.179   5.185  0.5416 -0.4876 -0.5237
 5709SOL    HW224178  10.404   8.194   5.156 -0.0210  2.6869 -2.1755
 5710SOL     OW24179   8.098   6.444   9.297  0.6810 -0.2630  0.0919
 5710SOL    HW124180   8.071   6.438   9.206  2.5937 -0.4801 -0.5176
 5710SOL    HW224181   8.192   6.425   9.295  1.1595  1.5721  1.8508
 5711SOL     OW24182   8.582   3.833   9.294 -0.0300  0.6748 -0.3472
 5711SOL    HW124183   8.655   3.884   9.329 -0.1401  0.4607  0.2062
 5711SOL    HW224184   8.564   3.768   9.362  0.5717 -0.5720 -1.3539
 5712SOL     OW24185   6.662   7.638   0.878  0.2274 -0.1955  0.3764
 5712SOL    HW124186   6.748   7.655   0.916  0.7130 -2.3339  0.3537
 5712SOL    HW224187   6.671   7.664   0.786 -0.0042  2.0229  0.9129
 5713SOL     OW24188  11.568   1.366   2.145  0.0833 -0.1939 -0.2498
 5713SOL    HW124189  11.494   1.372   2.206  0.1770  0.6765 -0.2123
 5713SOL    HW224190  11.600   1.276   2.155  0.4208  0.0736  1.3617
 5714SOL     OW24191   9.931   6.159   7.851 -0.2298 -0.0212  0.1204
 5714SOL    HW124192   9.989   6.117   7.787 -1.8820  0.8438 -2.0677
 5714SOL    HW224193   9.971   6.244   7.867  0.5644 -0.5112  0.8166
 5715SOL     OW24194  10.824   8.590   0.799 -0.1628  0.0540  0.1302
 5715SOL    HW124195  10.803   8.678   0.830  0.7568 -0.1113  1.3104
 5715SOL    HW224196  10.917   8.579   0.820 -0.4809 -1.5134  0.8704
 5716SOL     OW24197   4.875   2.682   6.135 -0.4575  0.2090 -0.0545
 5716SOL    HW124198   4.831   2.600   6.155  0.5073 -0.4521 -0.5437
 5716SOL    HW224199   4.804   2.745   6.124 -1.1646 -0.1507  1.9897
 5717SOL     OW24200  11.753   6.601   2.364 -0.6231  0.1091 -0.4975
 5717SOL    HW124201  11.825   6.649   2.323  0.1193 -0.8238 -0.3267
 5717SOL    HW224202  11.742   6.643   2.450  0.6275 -0.5508  0.0235
 5718SOL     OW24203   6.881   4.578   2.085  0.5539  0.6658  0.2356
 5718SOL    HW124204   6.854   4.587   2.176  1.3968  0.3916  0.5223
 5718SOL    HW224205   6.966   4.623   2.080  0.4704  0.7629 -0.4330
 5719SOL     OW24206  10.259   9.625   9.246  0.3029  0.4821  0.0291
 5719SOL    HW124207  10.338   9.634   9.299  0.9274 -0.7990 -0.6467
 5719SOL    HW224208  10.252   9.531   9.229 -2.6407  0.2084  1.9566
 5720SOL     OW24209   2.708  10.916   3.183 -0.0795  0.3733  0.5807
 5720SOL    HW124210   2.781  10.963   3.224  1.7443 -0.3475 -1.6297
 5720SOL    HW224211   2.745  10.833   3.156 -3.0238 -2.2252  3.6301
 5721SOL     OW24212  12.140   4.847   3.252  0.2273  0.3184 -0.0788
 5721SOL    HW124213  12.118   4.914   3.187  0.7322  0.2491 -0.3338
 5721SOL    HW224214  12.068   4.848   3.314  0.0976  0.9102 -0.2332
 5722SOL     OW24215   3.979   7.409   9.568 -0.5473  0.1296 -0.2993
 5722SOL    HW124216   4.003   7.496   9.535 -0.4748 -0.8334 -3.0307
 5722SOL    HW224217   4.055   7.354   9.548  0.0652 -0.3603  2.8110
 5723SOL     OW24218   4.548   2.639  11.523 -0.1113 -0.2273 -0.1833
 5723SOL    HW124219   4.522   2.665  11.435  1.0096  0.1934 -0.3952
 5723SOL    HW224220   4.539   2.718  11.575  1.6123  0.1685 -0.4566
 5724SOL     OW24221   5.137  11.363   3.549  0.1391  0.1221  0.5226
 5724SOL    HW124222   5.044  11.341   3.560  0.6952 -3.3494 -0.5737
 5724SOL    HW224223   5.149  11.374   3.455  0.6326  2.0434  0.7650
 5725SOL     OW24224   2.409   9.066   5.037 -0.5241  0.5702 -0.5323
 5725SOL    HW124225   2.352   9.012   5.092 -0.2055 -0.5779 -1.2812
 5725SOL    HW224226   2.495   9.023   5.041 -0.0806  1.4172 -0.6104
 5726SOL     OW24227   1.264   0.278  11.437 -1.0819  0.1179 -0.2557
 5726SOL    HW124228   1.230   0.316  11.357 -1.4701  1.4330  0.5037
 5726SOL    HW224229   1.194   0.222  11.469 -0.3158 -1.7419 -1.6477
 5727SOL     OW24230  12.007  10.842   2.447  0.2232 -0.4128  0.0056
 5727SOL    HW124231  11.936  10.889   2.404  0.7458  1.6610  1.2574
 5727SOL    HW224232  11.972  10.817   2.532  0.0937 -2.0099 -0.4788
 5728SOL     OW24233   7.619   4.813   1.517 -0.4576 -0.1724 -0.4861
 5728SOL    HW124234   7.527   4.786   1.518 -0.4979 -0.1500  1.9205
 5728SOL    HW224235   7.657   4.765   1.443 -1.8772 -2.1444 -0.0234
 5729SOL     OW24236   2.231   3.307   3.708  0.0455 -0.0703 -0.5665
 5729SOL    HW124237   2.209   3.391   3.667  0.3704  0.4921  0.3825
 5729SOL    HW224238   2.180   3.305   3.789  1.0876 -0.1508  0.1055
 5730SOL     OW24239   3.485  12.148   9.535  0.1298 -0.4877  0.1909
 5730SOL    HW124240   3.402  12.122   9.574  0.3630 -1.2827  0.1770
 5730SOL    HW224241   3.549  12.085   9.570  0.8990  0.6686  0.9274
 5731SOL     OW24242   2.568   1.713   4.975  0.3975 -0.1367 -0.2069
 5731SOL    HW124243   2.552   1.799   5.013  3.9727  0.5923 -0.0811
 5731SOL    HW224244   2.573   1.653   5.049 -1.2710 -0.3661 -0.2426
 5732SOL     OW24245  11.979   2.655  10.375 -0.2790  0.0323  0.1458
 5732SOL    HW124246  11.952   2.601  10.301 -2.1561  0.8311  0.1948
 5732SOL    HW224247  11.939   2.613  10.451  1.3110 -0.5612  0.6854
 5733SOL     OW24248  10.119   6.800   8.691  0.0617 -0.6593 -0.5689
 5733SOL    HW124249  10.043   6.803   8.748  2.1266 -0.1862  2.3683
 5733SOL    HW224250  10.148   6.891   8.685  2.5349 -1.2070  1.6031
 5734SOL     OW24251   7.593   7.674   7.771  0.3771  0.0891 -0.9360
 5734SOL    HW124252   7.628   7.745   7.826  0.2715 -0.9549  0.5425
 5734SOL    HW224253   7.502   7.699   7.755  0.7769  1.0752 -1.8299
 5735SOL     OW24254   9.289   9.492  11.822  0.0521 -0.1280 -0.4439
 5735SOL    HW124255   9.359   9.543  11.782  0.7398 -0.1947  0.6395
 5735SOL    HW224256   9.334   9.422  11.870 -0.8405 -1.3808 -1.3592
 5736SOL     OW24257   2.526   6.956  10.209 -0.5826  0.3503 -0.6941
 5736SOL    HW124258   2.595   6.910  10.257 -0.4131  0.7262 -0.5753
 5736SOL    HW224259   2.446   6.934  10.257 -0.3292  1.2684  0.1772
 5737SOL     OW24260   2.352   7.473   3.234  0.2617 -0.2184 -0.7519
 5737SOL    HW124261   2.434   7.499   3.274  0.4990 -2.3416  0.2848
 5737SOL    HW224262   2.285   7.493   3.300 -0.0026  0.8674 -1.3214
 5738SOL     OW24263   0.410   6.175   7.397 -0.3014 -0.4126 -0.0875
 5738SOL    HW124264   0.372   6.161   7.310  0.8241  0.6642 -0.7918
 5738SOL    HW224265   0.343   6.223   7.445 -0.3851  0.2470 -0.8447
 5739SOL     OW24266   8.141   3.687   7.044 -0.6164  0.2349 -0.6289
 5739SOL    HW124267   8.051   3.688   7.077 -1.0408  1.5135 -1.7387
 5739SOL    HW224268   8.173   3.599   7.063 -1.0933  0.6078  2.3946
 5740SOL     OW24269  10.030  12.199   1.123 -0.1360 -0.0560  0.2026
 5740SOL    HW124270  10.056  12.112   1.094 -0.0241 -0.2713  0.9078
 5740SOL    HW224271   9.998  12.185   1.213 -2.3918  0.2376 -0.4933
 5741SOL     OW24272   9.142   0.766   8.612  0.1206 -0.3016  0.3126
 5741SOL    HW124273   9.217   0.774   8.552 -1.0921 -0.8573 -1.3513
 5741SOL    HW224274   9.071   0.734   8.557 -1.2266 -0.2663  1.9610
 5742SOL     OW24275   9.900   8.966   9.165 -0.3176 -0.0635 -0.1192
 5742SOL    HW124276   9.861   8.884   9.136 -0.8766  0.8138 -1.9595
 5742SOL    HW224277   9.889   9.026   9.092  0.8344  1.4298  0.8561
 5743SOL     OW24278   9.315  10.967   3.766  0.2841  0.2307 -0.3754
 5743SOL    HW124279   9.348  10.953   3.677  2.0949  2.2095 -0.0920
 5743SOL    HW224280   9.309  11.062   3.774  0.1004  0.0801  1.6100
 5744SOL     OW24281   0.325   2.227   8.167 -0.1454 -0.0512  0.1758
 5744SOL    HW124282   0.341   2.214   8.073  1.7705  0.3622  0.4116
 5744SOL    HW224283   0.315   2.321   8.177 -1.1163 -0.1537  0.3065
 5745SOL     OW24284   7.386   9.311   1.933  1.0260 -0.7128 -0.3770
 5745SOL    HW124285   7.437   9.376   1.884  0.4857 -0.6311 -0.8350
 5745SOL    HW224286   7.452   9.248   1.963  1.4445 -0.4304 -0.6799
 5746SOL     OW24287   8.825  10.980   5.329  0.3549  0.1561  0.4431
 5746SOL    HW124288   8.810  10.888   5.306  2.1891 -0.1003  0.1196
 5746SOL    HW224289   8.919  10.993   5.317  0.4149  1.6327  2.1006
 5747SOL     OW24290   8.321   3.739   8.179 -0.2081 -0.7792  0.1552
 5747SOL    HW124291   8.274   3.663   8.213  0.2715 -0.7046  1.0257
 5747SOL    HW224292   8.346   3.788   8.258  0.9580 -0.6078 -0.3034
 5748SOL     OW24293   4.720   1.549   4.303 -0.2852  0.5838 -0.0158
 5748SOL    HW124294   4.793   1.606   4.281 -0.4783  0.6398 -0.5198
 5748SOL    HW224295   4.751   1.460   4.285 -0.7088  0.6809 -1.2975
 5749SOL     OW24296   1.354  11.763   2.792 -0.0165 -0.2361  0.7368
 5749SOL    HW124297   1.350  11.695   2.724 -0.8820 -0.6208  1.1540
 5749SOL    HW224298   1.420  11.824   2.760  1.4910 -1.7549  0.7816
 5750SOL     OW24299  11.915   5.395  12.214  0.0988 -0.4321 -0.6113
 5750SOL    HW124300  11.824   5.366  12.218  0.2288 -0.9269 -1.0942
 5750SOL    HW224301  11.933   5.428  12.302 -0.8267  0.5398 -0.7732
 5751SOL     OW24302   4.532   9.035   6.156 -0.7261  0.1283 -0.1305
 5751SOL    HW124303   4.464   8.972   6.178 -3.3073  2.1246 -1.8736
 5751SOL    HW224304   4.516   9.110   6.213  0.6320  0.3096  0.0583
 5752SOL     OW24305   6.321   0.724   1.274  0.5906  0.4178  0.9926
 5752SOL    HW124306   6.373   0.781   1.218  1.4025  0.4867  1.7862
 5752SOL    HW224307   6.272   0.784   1.330 -0.7881  0.3674 -0.0982
 5753SOL     OW24308   1.122  10.418   1.577  0.0950 -0.1638  0.3327
 5753SOL    HW124309   1.049  10.356   1.576 -0.8439  0.9275 -0.5331
 5753SOL    HW224310   1.084  10.502   1.552  1.2491  0.9132  2.0066
 5754SOL     OW24311   7.686   6.906   5.112 -0.6530  0.0977  0.3032
 5754SOL    HW124312   7.726   6.981   5.156 -1.5335  0.7365  0.0531
 5754SOL    HW224313   7.606   6.942   5.073  0.0782 -0.4148 -1.8155
 5755SOL     OW24314  10.909   5.939   2.080  0.7197  0.1927 -0.5514
 5755SOL    HW124315  10.834   5.977   2.126 -0.3450 -0.5165 -1.6122
 5755SOL    HW224316  10.972   6.010   2.072 -0.6299  1.3630 -1.2651
 5756SOL     OW24317   9.892   7.562   1.321 -0.2213 -0.1766  0.4854
 5756SOL    HW124318   9.806   7.521   1.333  1.4880 -3.8052  2.0746
 5756SOL    HW224319   9.936   7.550   1.406  2.0422  0.9980 -0.4427
 5757SOL     OW24320   9.370   0.182   8.803  0.0785  0.0130 -0.5515
 5757SOL    HW124321   9.452   0.206   8.846 -0.5098 -1.3357  1.4729
 5757SOL    HW224322   9.315   0.260   8.813  0.5600  0.3446 -0.4397
 5758SOL     OW24323   4.916   4.759   0.339  0.1465 -0.2640 -0.2771
 5758SOL    HW124324   4.839   4.706   0.355 -0.2231  0.1016 -0.8038
 5758SOL    HW224325   4.882   4.846   0.320  0.6166 -0.3764 -1.7335
 5759SOL     OW24326   1.893   2.453  10.455 -0.0267  0.2674 -0.7058
 5759SOL    HW124327   1.939   2.437  10.372 -1.5855 -0.8363 -1.4039
 5759SOL    HW224328   1.914   2.376  10.508  0.9633  0.9695 -0.0475
 5760SOL     OW24329   9.278   3.526   3.392 -0.1591 -0.4043 -0.2021
 5760SOL    HW124330   9.294   3.537   3.298  1.2200 -0.0942  0.0430
 5760SOL    HW224331   9.362   3.548   3.433 -1.2921  1.5500  1.2616
 5761SOL     OW24332   8.399  10.567   8.328 -0.2802 -0.6072  0.1381
 5761SOL    HW124333   8.350  10.639   8.288 -0.8935 -0.6988  0.7158
 5761SOL    HW224334   8.385  10.493   8.269  1.1408 -0.0466 -0.9869
 5762SOL     OW24335   5.115   2.552   2.928  0.0483  0.7803  0.3309
 5762SOL    HW124336   5.054   2.626   2.928  0.3008  1.0127 -1.4386
 5762SOL    HW224337   5.131   2.533   2.836  2.8234  0.8852  0.6912
 5763SOL     OW24338   0.049   8.435   4.496 -0.1226 -0.0250  0.2136
 5763SOL    HW124339   0.039   8.468   4.407 -0.1697  0.4006  0.3707
 5763SOL    HW224340   0.043   8.340   4.488 -1.6973  0.0758 -0.0287
 5764SOL     OW24341   3.262  11.428  12.081  0.3036  0.6343 -0.4616
 5764SOL    HW124342   3.347  11.423  12.038 -0.2220 -1.1259 -1.3710
 5764SOL    HW224343   3.199  11.400  12.015 -0.8094  0.3555  0.6693
 5765SOL     OW24344   1.073   2.107   8.263 -0.0088  0.2217 -0.2511
 5765SOL    HW124345   1.134   2.033   8.260  0.8851  0.9742 -2.2295
 5765SOL    HW224346   1.126   2.181   8.293 -0.6136  0.3542  0.5515
 5766SOL     OW24347   1.441  11.359   5.774  0.1204  0.0951  0.6949
 5766SOL    HW124348   1.529  11.391   5.754 -0.0195  0.5749  0.8228
 5766SOL    HW224349   1.448  11.264   5.768  0.0818  0.1685 -1.7545
 5767SOL     OW24350   8.773   6.196   2.205 -0.1034  0.9329  0.4576
 5767SOL    HW124351   8.689   6.180   2.249 -0.1383  0.2672  0.1587
 5767SOL    HW224352   8.838   6.158   2.264 -0.2860 -1.7103 -0.8839
 5768SOL     OW24353   3.346   4.351  11.271 -0.1759 -0.3440 -0.3043
 5768SOL    HW124354   3.341   4.394  11.185  1.3845  2.1095  0.7234
 5768SOL    HW224355   3.306   4.413  11.331  0.3621 -1.2140  1.0072
 5769SOL     OW24356  11.441  11.587  11.908 -0.1880  0.1799 -1.0587
 5769SOL    HW124357  11.448  11.593  12.004 -0.4449  0.6845 -1.0687
 5769SOL    HW224358  11.419  11.676  11.880 -0.1838  0.0179 -1.5824
 5770SOL     OW24359  12.555   0.100   6.297  0.3260  0.2299  0.0492
 5770SOL    HW124360  12.491   0.041   6.337 -0.5358  1.4941  0.5797
 5770SOL    HW224361  12.509   0.183   6.286  2.6351  2.1631  3.1857
 5771SOL     OW24362   2.844   8.936   6.221 -0.1850  0.0125 -0.1434
 5771SOL    HW124363   2.924   8.923   6.170  0.7579  0.7472  1.0628
 5771SOL    HW224364   2.779   8.880   6.179  1.2740 -1.5354 -0.4702
 5772SOL     OW24365   8.924  10.667   3.709 -0.0340  0.1288 -0.4906
 5772SOL    HW124366   8.979  10.739   3.678 -0.2380  0.3883 -0.2547
 5772SOL    HW224367   8.836  10.703   3.712 -0.2991 -0.4375 -1.3433
 5773SOL     OW24368  12.411  10.290  12.153  0.1204  0.1061  0.4796
 5773SOL    HW124369  12.467  10.244  12.215  0.7137  0.7886  0.4681
 5773SOL    HW224370  12.402  10.230  12.079  0.7016 -0.0818  0.5553
 5774SOL     OW24371  11.729   7.886   0.914  0.6232 -0.0397 -0.7464
 5774SOL    HW124372  11.677   7.964   0.895 -0.5229 -0.8514 -1.0607
 5774SOL    HW224373  11.739   7.885   1.009 -0.4205 -0.1440 -0.6203
 5775SOL     OW24374  11.204   7.255  10.696 -0.3587  0.1047  0.6349
 5775SOL    HW124375  11.123   7.305  10.688  0.8493  1.8799 -4.3148
 5775SOL    HW224376  11.264   7.313  10.742 -0.5703  0.8963 -0.0620
 5776SOL     OW24377  10.359  11.922   8.012  0.4968  0.4361  0.2774
 5776SOL    HW124378  10.413  11.850   7.980 -0.0025  0.2183 -0.0917
 5776SOL    HW224379  10.345  11.903   8.105 -2.4546 -1.8256 -0.4720
 5777SOL     OW24380   8.955   4.870   6.279 -0.2500  0.1001 -0.2286
 5777SOL    HW124381   9.046   4.899   6.276 -0.0696 -0.3132  0.8570
 5777SOL    HW224382   8.924   4.895   6.366 -0.2909 -2.2579  0.5091
 5778SOL     OW24383   1.932   1.338   0.641  0.5047 -0.3778 -0.3016
 5778SOL    HW124384   1.923   1.425   0.679  0.2092 -0.6747  0.3113
 5778SOL    HW224385   2.026   1.322   0.639  0.5882  0.1541 -0.8758
 5779SOL     OW24386   3.339  12.492   4.376  0.3432 -0.2081  0.3371
 5779SOL    HW124387   3.301  12.563   4.428  0.4266 -0.4000  0.6628
 5779SOL    HW224388   3.339  12.416   4.434 -0.5762 -0.7161 -0.2965
 5780SOL     OW24389  11.414   9.199   3.637  0.3159  0.0275 -0.3713
 5780SOL    HW124390  11.359   9.224   3.711 -0.0539  0.5978 -0.8291
 5780SOL    HW224391  11.352   9.167   3.571  0.6231 -0.2825 -0.5142
 5781SOL     OW24392   7.213   1.723  11.576 -0.0349  0.3325  0.4823
 5781SOL    HW124393   7.302   1.706  11.606  0.3710 -1.1437 -1.4192
 5781SOL    HW224394   7.184   1.797  11.630  1.6973 -0.2257  2.3161
 5782SOL     OW24395   5.299  11.371   7.265  0.4961 -0.4143  0.7595
 5782SOL    HW124396   5.382  11.412   7.290  1.5383 -2.3755  0.6829
 5782SOL    HW224397   5.254  11.356   7.349  1.2849 -1.4578  1.0188
 5783SOL     OW24398   1.290   6.785   6.358 -0.1810  0.1053 -0.3156
 5783SOL    HW124399   1.363   6.822   6.308 -0.0146 -1.2484 -1.1478
 5783SOL    HW224400   1.221   6.851   6.352  0.4824  0.7814 -0.7549
 5784SOL     OW24401  11.681   7.610   4.698  0.0969 -0.2138  0.6413
 5784SOL    HW124402  11.704   7.703   4.701  0.8529 -0.4139  1.9018
 5784SOL    HW224403  11.640   7.593   4.783  0.5459 -1.1657  0.6719
 5785SOL     OW24404   1.202   3.655   8.637 -0.3646  0.1757 -0.0603
 5785SOL    HW124405   1.155   3.618   8.562 -0.4132 -2.4388  1.1625
 5785SOL    HW224406   1.287   3.611   8.637  0.4047  1.5810  0.3410
 5786SOL     OW24407  10.154   0.120   8.601  0.1480 -0.2673  0.2142
 5786SOL    HW124408  10.215   0.193   8.596  0.0734 -0.2625 -0.7133
 5786SOL    HW224409  10.082   0.144   8.543  0.3537 -1.2770 -0.4867
 5787SOL     OW24410   4.790  12.370   7.382  0.0013 -0.4839  0.0199
 5787SOL    HW124411   4.848  12.403   7.451 -0.3393 -0.2312  0.1920
 5787SOL    HW224412   4.804  12.276   7.381  3.3420 -0.1296 -2.5903
 5788SOL     OW24413   2.178   7.513   1.993  0.1167  0.1736  0.5185
 5788SOL    HW124414   2.146   7.431   1.956 -0.0377 -0.4217  1.8935
 5788SOL    HW224415   2.228   7.486   2.070 -2.0646  1.4237  2.5287
 5789SOL     OW24416   6.233   4.487   0.426  0.3742 -0.4963  0.1365
 5789SOL    HW124417   6.155   4.510   0.476 -0.0610 -0.2406 -0.6450
 5789SOL    HW224418   6.227   4.539   0.346  0.5399 -1.6393 -0.6451
 5790SOL     OW24419   1.946   6.794   8.614 -0.5497  0.3948  0.1181
 5790SOL    HW124420   2.031   6.750   8.625 -1.2397 -0.9104  0.3705
 5790SOL    HW224421   1.968   6.877   8.571  0.7560 -0.3282 -0.6707
 5791SOL     OW24422   4.500   1.609   4.142 -0.2283 -0.0994  0.3124
 5791SOL    HW124423   4.582   1.589   4.188 -0.5237 -1.6979  0.2118
 5791SOL    HW224424   4.495   1.704   4.142  1.5835  0.0332  0.4150
 5792SOL     OW24425   0.245   4.680   1.363 -0.2448 -0.3642 -0.6664
 5792SOL    HW124426   0.284   4.736   1.429 -2.1084  1.4231 -0.9858
 5792SOL    HW224427   0.174   4.635   1.408 -0.0223 -0.9578 -0.8957
 5793SOL     OW24428   7.862   0.903   2.729  0.1380  0.2788 -0.1058
 5793SOL    HW124429   7.804   0.895   2.654 -1.0591 -0.2297  0.8492
 5793SOL    HW224430   7.916   0.823   2.727 -0.3720 -0.0723 -0.0390
 5794SOL     OW24431   6.558   3.854   5.451 -0.2065 -0.1596  0.1785
 5794SOL    HW124432   6.595   3.928   5.401  1.0043  0.0693  1.3568
 5794SOL    HW224433   6.631   3.793   5.460  0.1397  0.5312  3.0099
 5795SOL     OW24434  10.516   0.478  12.077 -0.1070 -0.3036  0.0257
 5795SOL    HW124435  10.546   0.411  12.138  1.9775  0.3467 -0.1897
 5795SOL    HW224436  10.495   0.553  12.132  0.5111 -0.1497  0.0626
 5796SOL     OW24437   9.576   0.165   3.269  0.1544  0.7442 -0.3807
 5796SOL    HW124438   9.491   0.205   3.252  0.2943  1.3105  0.2049
 5796SOL    HW224439   9.614   0.152   3.182 -0.1901  1.2520 -0.6143
 5797SOL     OW24440   5.957   4.876   5.879  0.1624  0.0699  0.1502
 5797SOL    HW124441   6.000   4.847   5.799 -2.2098 -0.9174 -0.8502
 5797SOL    HW224442   6.016   4.849   5.949  1.0505 -1.4941 -1.1290
 5798SOL     OW24443  10.019   9.902   6.046 -0.4140 -0.5712 -0.1452
 5798SOL    HW124444   9.948   9.964   6.029 -0.9453 -1.6745 -2.3437
 5798SOL    HW224445  10.070   9.942   6.117 -0.9864  2.1330 -1.1521
 5799SOL     OW24446   5.192   8.881   4.623  0.2201  0.7018 -0.2830
 5799SOL    HW124447   5.178   8.913   4.534 -0.4291 -0.0581 -0.4667
 5799SOL    HW224448   5.239   8.798   4.611  0.3357  0.7086  0.1009
 5800SOL     OW24449  10.136   2.351   7.090  0.0508  0.0848 -0.5954
 5800SOL    HW124450  10.232   2.342   7.096 -0.0308  0.0418  1.2325
 5800SOL    HW224451  10.104   2.261   7.088  0.0407  0.0991 -1.1584
 5801SOL     OW24452  12.385   3.578   8.233 -0.0849 -0.1939  0.6161
 5801SOL    HW124453  12.308   3.540   8.276 -0.3129  2.0465  2.3988
 5801SOL    HW224454  12.401   3.659   8.281  2.9062 -0.1594 -0.2498
 5802SOL     OW24455   7.262   1.040   0.425  0.4792  0.0863 -0.4379
 5802SOL    HW124456   7.182   1.003   0.461  1.4894  0.7524  2.8346
 5802SOL    HW224457   7.293   0.975   0.362 -1.5716 -1.1012 -0.2919
 5803SOL     OW24458  11.878   2.395  10.269 -0.3322 -0.3379  0.2569
 5803SOL    HW124459  11.930   2.385  10.348 -0.2899 -3.4887 -0.0641
 5803SOL    HW224460  11.941   2.384  10.197 -0.6027  1.0875 -0.2297
 5804SOL     OW24461   6.322   5.832   2.409  0.5523 -0.3513 -0.0523
 5804SOL    HW124462   6.316   5.837   2.504 -1.9359 -3.7629  0.1365
 5804SOL    HW224463   6.345   5.741   2.391 -3.4785 -1.0904 -2.6689
 5805SOL     OW24464   9.659  12.468   5.133  0.6164  0.0133  0.2636
 5805SOL    HW124465   9.622  12.403   5.194  2.5751  1.1879  2.8910
 5805SOL    HW224466   9.612  12.549   5.154  1.8295  0.5988  0.7807
 5806SOL     OW24467   0.347   2.506   6.006 -0.0929  0.4299  0.4130
 5806SOL    HW124468   0.312   2.594   6.017 -0.1258  0.4017  0.5328
 5806SOL    HW224469   0.432   2.519   5.965 -1.2506  0.3902 -2.2144
 5807SOL     OW24470   3.407   8.448   9.516  0.0546  0.5679 -0.3401
 5807SOL    HW124471   3.328   8.501   9.528 -0.3197  0.2885 -1.4401
 5807SOL    HW224472   3.394   8.405   9.431  1.8280  1.2854 -1.0182
 5808SOL     OW24473  11.185   8.342   2.970  0.3621  0.0333  0.2871
 5808SOL    HW124474  11.166   8.385   3.054 -1.3449  0.7815 -0.4297
 5808SOL    HW224475  11.233   8.262   2.994 -0.5593 -0.0472  2.0198
 5809SOL     OW24476   2.101   2.237   5.054 -0.0236 -0.2223  0.0827
 5809SOL    HW124477   2.067   2.223   5.142  0.8087  0.9769  0.6230
 5809SOL    HW224478   2.173   2.174   5.046 -1.3197 -1.6927 -0.4987
 5810SOL     OW24479   7.043  10.518  12.003  0.2589 -0.4264 -0.7827
 5810SOL    HW124480   6.996  10.452  11.952 -0.7961  0.1451 -0.5796
 5810SOL    HW224481   7.088  10.572  11.938 -1.7931  0.8465 -1.2234
 5811SOL     OW24482   4.082   9.937  10.679  0.7096  0.1891  0.5594
 5811SOL    HW124483   4.134   9.922  10.600 -2.2902  0.8244 -1.7367
 5811SOL    HW224484   4.077  10.033  10.686  0.1715  0.1367  0.9243
 5812SOL     OW24485   1.486   6.712  12.261  0.5680 -0.9486 -0.1762
 5812SOL    HW124486   1.500   6.696  12.354  1.6961 -0.4360 -0.2482
 5812SOL    HW224487   1.544   6.651  12.217 -1.5934 -2.8165 -0.6337
 5813SOL     OW24488  11.024   2.063   4.758  0.0852  0.7060 -0.0187
 5813SOL    HW124489  11.060   2.083   4.844 -3.0284 -0.1083  1.6294
 5813SOL    HW224490  10.943   2.015   4.777  0.2770 -1.3031 -3.4538
 5814SOL     OW24491   6.294   9.501   9.219  0.1912  0.1625  0.3072
 5814SOL    HW124492   6.202   9.522   9.200  0.1153  1.0818  1.5699
 5814SOL    HW224493   6.298   9.495   9.314  1.1070 -1.5876  0.1974
 5815SOL     OW24494   9.099   5.296   5.553  0.0903 -0.1428 -0.3285
 5815SOL    HW124495   9.097   5.358   5.625 -2.5048 -1.0632  0.5146
 5815SOL    HW224496   9.038   5.332   5.488 -1.2971 -1.6070  0.0908
 5816SOL     OW24497  11.406  11.231   9.519  0.3804 -0.4983 -0.7280
 5816SOL    HW124498  11.482  11.289   9.527  0.3831 -0.5240 -0.5671
 5816SOL    HW224499  11.410  11.175   9.596 -0.6441  0.4907  0.0783
 5817SOL     OW24500   7.028   1.668   2.039 -0.2572  0.1519 -0.3036
 5817SOL    HW124501   7.028   1.750   2.089 -2.7262 -0.1465  0.3419
 5817SOL    HW224502   6.982   1.689   1.958 -0.8092 -0.5619 -0.1831
 5818SOL     OW24503   2.492   3.787  10.252 -0.3369  0.1045 -0.1241
 5818SOL    HW124504   2.502   3.760  10.160 -2.1438  1.2997 -0.7281
 5818SOL    HW224505   2.420   3.849  10.251  0.4965  1.2148  1.9263
 5819SOL     OW24506   6.018   0.208   7.645 -0.2251  0.4527  0.3276
 5819SOL    HW124507   6.087   0.196   7.711  0.0892 -0.8006 -0.1915
 5819SOL    HW224508   6.066   0.228   7.564 -0.5386  0.7735  0.2197
 5820SOL     OW24509   0.226   3.442   8.096  0.5752 -0.6681 -0.0807
 5820SOL    HW124510   0.241   3.359   8.051 -0.2148 -0.8631  0.0040
 5820SOL    HW224511   0.233   3.508   8.027 -0.3295 -0.9401 -0.4427
 5821SOL     OW24512   7.291  11.072   4.749 -0.3037  0.3383  0.5117
 5821SOL    HW124513   7.351  10.998   4.756  0.3707  0.7790 -0.4458
 5821SOL    HW224514   7.275  11.099   4.840 -0.3493 -0.8040  0.8507
 5822SOL     OW24515   8.637  10.658   0.413  0.2185  0.0572  0.0596
 5822SOL    HW124516   8.604  10.742   0.382  0.0263  0.3964  1.1311
 5822SOL    HW224517   8.571  10.629   0.477  1.3583  0.1635  1.3258
 5823SOL     OW24518   5.356   2.959   4.514  0.1455 -0.0962  0.6512
 5823SOL    HW124519   5.376   3.051   4.532  1.5481  0.1298 -1.6813
 5823SOL    HW224520   5.442   2.916   4.515 -0.0469 -0.6659 -1.6643
 5824SOL     OW24521   9.385   5.049   9.612  0.0051  0.2120 -0.1962
 5824SOL    HW124522   9.390   4.954   9.603 -0.0477  0.3325 -2.0635
 5824SOL    HW224523   9.357   5.079   9.525 -1.9027  1.8015  0.8908
 5825SOL     OW24524  11.558   0.684   4.174 -0.7838  0.8662 -0.6434
 5825SOL    HW124525  11.620   0.636   4.119 -1.3778 -1.9695  0.9433
 5825SOL    HW224526  11.545   0.627   4.250 -1.7244  3.5673  1.3593
 5826SOL     OW24527   8.353   2.729   6.034  0.6512 -0.0457 -0.3319
 5826SOL    HW124528   8.299   2.676   5.975 -1.1409  1.1766  0.1500
 5826SOL    HW224529   8.314   2.816   6.032  0.0226 -0.1060  3.2051
 5827SOL     OW24530   4.747   9.257   6.795 -0.0593  0.0242  0.8359
 5827SOL    HW124531   4.671   9.314   6.807 -0.5158 -0.0209 -1.4644
 5827SOL    HW224532   4.791   9.290   6.717  2.5702  0.2866  2.2962
 5828SOL     OW24533   1.048   6.867   3.290 -0.4160 -0.0465 -0.5601
 5828SOL    HW124534   1.094   6.786   3.311 -0.8360 -0.1290  0.0559
 5828SOL    HW224535   0.965   6.839   3.252 -0.8265  0.0758  0.2171
 5829SOL     OW24536  11.114  12.071   7.831 -0.2009  0.1919  0.4269
 5829SOL    HW124537  11.204  12.049   7.857 -1.4182 -2.2793  3.1013
 5829SOL    HW224538  11.120  12.088   7.737  2.5370 -3.4537 -0.3072
 5830SOL     OW24539   8.604   6.592   6.148  0.0535 -0.3100 -0.2437
 5830SOL    HW124540   8.594   6.660   6.215 -0.1006 -0.4186 -0.1546
 5830SOL    HW224541   8.698   6.587   6.133  0.1454 -0.7200  0.4190
 5831SOL     OW24542   5.793  11.415   3.445  0.1204 -0.3357  0.7030
 5831SOL    HW124543   5.723  11.446   3.502  0.5571  0.5734  0.7630
 5831SOL    HW224544   5.868  11.469   3.467  0.4225 -0.2601 -0.4270
 5832SOL     OW24545  12.040   4.866   2.980 -0.0439  0.0491 -0.1153
 5832SOL    HW124546  12.097   4.938   2.953 -0.5316  0.8415  0.8902
 5832SOL    HW224547  11.951   4.900   2.971 -0.2609 -0.1269  1.1264
 5833SOL     OW24548   7.491   7.837   2.869  0.1510  0.3408  0.1307
 5833SOL    HW124549   7.503   7.765   2.931 -2.1563  0.6003  0.9649
 5833SOL    HW224550   7.442   7.798   2.797 -0.8046  0.9832  0.4233
 5834SOL     OW24551   9.940  11.204   3.921 -0.4803 -0.3974 -0.3717
 5834SOL    HW124552   9.977  11.270   3.861 -3.0902  0.3719 -1.2497
 5834SOL    HW224553   9.924  11.252   4.002  1.2069 -0.9578  0.3281
 5835SOL     OW24554   6.174   0.126  10.509 -0.1467  0.1844  0.5982
 5835SOL    HW124555   6.140   0.114  10.597 -0.2090 -0.5137  0.4866
 5835SOL    HW224556   6.261   0.166  10.521 -0.4218  0.6858  0.9397
 5836SOL     OW24557  11.181   0.226   5.786  0.0528 -0.0370 -0.5940
 5836SOL    HW124558  11.195   0.137   5.754  0.6694 -0.7816  1.6086
 5836SOL    HW224559  11.174   0.218   5.881 -0.1182  2.2396 -0.3371
 5837SOL     OW24560   7.519  10.515  12.470 -0.4318 -0.1984  0.0626
 5837SOL    HW124561   7.614  10.527  12.476 -0.5922  0.2884  2.8861
 5837SOL    HW224562   7.507  10.456  12.396  1.8963  1.2272 -1.5879
 5838SOL     OW24563   1.213   9.216   7.258  0.0557 -0.5461 -0.6534
 5838SOL    HW124564   1.167   9.238   7.339  0.3116 -0.5539 -0.5075
 5838SOL    HW224565   1.154   9.245   7.189  0.5624  0.9616 -0.4740
 5839SOL     OW24566  11.524   5.519   9.778  0.7422 -0.4201 -0.6138
 5839SOL    HW124567  11.490   5.522   9.868  0.2558 -1.6566 -0.7323
 5839SOL    HW224568  11.618   5.506   9.788  0.5985 -1.2272 -0.2793
 5840SOL     OW24569   8.077  10.901   5.744  0.1412 -0.1020 -0.1163
 5840SOL    HW124570   8.053  10.815   5.780  0.9811  0.0487  0.8662
 5840SOL    HW224571   8.172  10.906   5.757  0.0938  0.9780 -0.1430
 5841SOL     OW24572   9.120  10.121   2.602 -0.4741  0.1076  0.1378
 5841SOL    HW124573   9.028  10.146   2.604 -1.1736 -2.2388  1.4072
 5841SOL    HW224574   9.152  10.142   2.690 -1.3792 -3.9518  1.6547
 5842SOL     OW24575  12.368   3.145   9.600 -0.9449  0.5131 -0.2993
 5842SOL    HW124576  12.434   3.138   9.668 -0.4668  1.1747 -0.6814
 5842SOL    HW224577  12.331   3.057   9.593  0.4553 -0.0756 -0.6407
 5843SOL     OW24578   0.770   9.353   7.604  0.1712 -0.2294 -0.0969
 5843SOL    HW124579   0.704   9.415   7.575 -1.0684 -0.7258  1.4754
 5843SOL    HW224580   0.820   9.400   7.670  0.6121 -0.2404 -0.4196
 5844SOL     OW24581   7.485  11.269   2.867 -0.4655 -0.2004  0.6778
 5844SOL    HW124582   7.527  11.314   2.941 -1.5370  1.3394  0.3871
 5844SOL    HW224583   7.548  11.276   2.796 -1.4814  3.0505 -0.0769
 5845SOL     OW24584   0.232   1.961   3.853 -0.4047 -0.1579  0.2990
 5845SOL    HW124585   0.318   1.923   3.834 -0.3102  0.1180  0.1689
 5845SOL    HW224586   0.252   2.048   3.888 -0.6179 -0.2380  0.6167
 5846SOL     OW24587   5.173  10.014   0.856  0.0848  0.1405 -0.2638
 5846SOL    HW124588   5.118   9.948   0.898 -0.3728 -0.1778 -1.3328
 5846SOL    HW224589   5.207  10.066   0.929 -2.8597  1.3441  0.4049
 5847SOL     OW24590   9.307   1.537   8.563 -0.4084 -0.3760 -0.5028
 5847SOL    HW124591   9.350   1.582   8.490 -2.3506  3.1619  0.3171
 5847SOL    HW224592   9.223   1.508   8.527 -1.1246  0.8720  0.0750
 5848SOL     OW24593   2.341   0.080  12.443  0.1158  0.8618 -0.1486
 5848SOL    HW124594   2.401   0.091  12.518  0.6565 -1.7960 -0.0961
 5848SOL    HW224595   2.368   0.147  12.381  1.2018  1.6193  1.0864
 5849SOL     OW24596   3.916   5.565   0.948 -0.0062 -0.5600 -0.1118
 5849SOL    HW124597   3.884   5.652   0.970 -0.4955 -0.9561  0.8064
 5849SOL    HW224598   4.011   5.572   0.955  0.0638  0.2794 -1.5528
 5850SOL     OW24599   8.989   6.427   6.788  0.3816 -0.1598 -0.1600
 5850SOL    HW124600   8.965   6.491   6.855  0.6817 -0.2894  0.0777
 5850SOL    HW224601   9.011   6.479   6.711 -0.4270 -0.0260 -0.3161
 5851SOL     OW24602  11.185   1.814   2.186  0.4034  0.3167 -0.5014
 5851SOL    HW124603  11.212   1.722   2.181  2.5707  0.9139 -0.9571
 5851SOL    HW224604  11.159   1.836   2.096 -1.1253 -0.0810 -0.1908
 5852SOL     OW24605  11.372   7.415   7.993  0.3527  0.6218 -0.0778
 5852SOL    HW124606  11.345   7.449   7.908 -0.1932  0.1636 -0.0961
 5852SOL    HW224607  11.446   7.357   7.973 -0.3347 -0.1721 -0.3548
 5853SOL     OW24608  10.875   3.993   7.113 -0.3823 -0.6699 -0.4627
 5853SOL    HW124609  10.835   3.907   7.125  0.2649 -0.9512 -0.2843
 5853SOL    HW224610  10.889   4.000   7.019  0.2039 -1.0586 -0.4095
 5854SOL     OW24611   5.689   0.791   4.415 -0.3510 -0.4621  0.1053
 5854SOL    HW124612   5.743   0.850   4.362  1.3737  0.3387  2.5934
 5854SOL    HW224613   5.727   0.704   4.399  0.6393 -0.1282  0.5209
 5855SOL     OW24614   0.976   7.851   0.166  0.0083 -0.4390  0.2001
 5855SOL    HW124615   0.965   7.896   0.250 -2.2982 -0.2340 -0.1452
 5855SOL    HW224616   0.992   7.922   0.103  1.1007 -0.5388  0.3521
 5856SOL     OW24617   6.036   1.794   3.996 -0.0355 -0.1609  0.1148
 5856SOL    HW124618   5.942   1.799   4.014 -0.0696  2.1227 -0.4099
 5856SOL    HW224619   6.054   1.700   3.987 -2.3463 -0.6184 -0.2640
 5857SOL     OW24620  11.802   0.646   1.246 -0.2989  0.4952 -0.0448
 5857SOL    HW124621  11.785   0.552   1.242  0.5027  0.3108  0.6371
 5857SOL    HW224622  11.735   0.685   1.190 -2.2278 -0.2766  1.5832
 5858SOL     OW24623   8.910   5.409   7.763 -0.1284 -0.1717  0.0459
 5858SOL    HW124624   8.915   5.430   7.856 -3.4264 -2.4152  0.9359
 5858SOL    HW224625   8.936   5.317   7.758  1.9444  0.4501 -1.6400
 5859SOL     OW24626   8.959   9.781  10.164  0.0164  0.0446 -0.2142
 5859SOL    HW124627   8.864   9.782  10.153 -0.5517 -1.1276  3.3578
 5859SOL    HW224628   8.987   9.869  10.141 -2.0433  0.6229 -0.6629
 5860SOL     OW24629   0.379  11.000   8.356 -0.1942 -0.0566  0.6540
 5860SOL    HW124630   0.411  10.916   8.388 -0.0707  0.2772  1.4239
 5860SOL    HW224631   0.404  11.001   8.264 -0.1030 -0.8189  0.6619
 5861SOL     OW24632  11.520  11.118   6.577  0.4130  0.1357  0.4531
 5861SOL    HW124633  11.457  11.066   6.526 -0.0955  1.8444 -0.7484
 5861SOL    HW224634  11.602  11.069   6.570 -0.5245 -1.6532  1.2711
 5862SOL     OW24635  12.033   4.244   5.229 -0.6024  0.0667  0.0238
 5862SOL    HW124636  12.067   4.204   5.309  1.1062 -0.6589 -0.9825
 5862SOL    HW224637  11.965   4.183   5.199  0.7857 -1.2872 -0.5730
 5863SOL     OW24638   4.704   2.200   4.709 -0.3427  0.6241 -0.0918
 5863SOL    HW124639   4.679   2.285   4.745  0.9239  0.0166  2.4259
 5863SOL    HW224640   4.646   2.137   4.751  0.2042  0.0356 -0.1896
 5864SOL     OW24641  10.109  11.539   8.712  0.4932  0.3803  0.2392
 5864SOL    HW124642  10.192  11.493   8.721 -0.5919 -1.6274  0.4972
 5864SOL    HW224643  10.054  11.480   8.661 -1.9074  0.0055  3.0097
 5865SOL     OW24644   5.391   5.200  11.764  0.2487 -0.0227 -0.1162
 5865SOL    HW124645   5.446   5.245  11.827  0.1644 -0.2655  0.1291
 5865SOL    HW224646   5.321   5.161  11.816 -0.2852  0.4663 -0.4427
 5866SOL     OW24647   9.886   8.951   6.122  0.1105 -0.0566  0.6597
 5866SOL    HW124648   9.822   8.970   6.190  1.7425  0.0488  2.2428
 5866SOL    HW224649   9.849   8.879   6.072 -2.4890  1.7921 -0.2844
 5867SOL     OW24650   3.875   8.958   9.530  0.1814  0.0879  0.2686
 5867SOL    HW124651   3.932   8.941   9.605  1.9471  1.3014 -0.7277
 5867SOL    HW224652   3.817   9.029   9.560  0.4545  0.1380  0.6850
 5868SOL     OW24653   6.756  10.655   1.522  0.6125  0.2838 -0.8145
 5868SOL    HW124654   6.835  10.626   1.569  1.9302  1.4093 -2.2306
 5868SOL    HW224655   6.731  10.737   1.566 -0.9629 -1.0010  0.8495
 5869SOL     OW24656  10.157  11.193  10.738 -0.7531  0.0691  0.2878
 5869SOL    HW124657  10.239  11.227  10.775 -1.3961  0.7864  1.1136
 5869SOL    HW224658  10.173  11.099  10.726  0.3208  0.2740  0.0550
 5870SOL     OW24659   8.492   8.708  10.940 -0.2091  0.4381  0.2107
 5870SOL    HW124660   8.566   8.767  10.949  0.4697 -0.5754  1.6977
 5870SOL    HW224661   8.528   8.629  10.901 -0.6206  0.1336  0.4342
 5871SOL     OW24662   2.015   2.832   6.973  0.1710  0.1401 -0.0744
 5871SOL    HW124663   2.022   2.919   6.933  0.3759  0.9624  1.6433
 5871SOL    HW224664   1.923   2.825   6.998 -0.1380 -0.7121 -1.3765
 5872SOL     OW24665   7.246  12.388   6.367 -0.3028 -0.0105  0.5602
 5872SOL    HW124666   7.247  12.383   6.463  0.1188  1.9255  0.6975
 5872SOL    HW224667   7.263  12.298   6.339  1.4121 -0.3188  2.3174
 5873SOL     OW24668  11.512   7.644   8.137  0.0657  0.8315 -0.8834
 5873SOL    HW124669  11.437   7.667   8.082 -0.8959 -2.2350 -1.0502
 5873SOL    HW224670  11.498   7.694   8.218 -0.7619  2.2231 -1.8392
 5874SOL     OW24671   7.177  12.517  10.741  0.1982  0.2230  0.3559
 5874SOL    HW124672   7.177  12.572  10.663  2.4217  0.5944  0.5494
 5874SOL    HW224673   7.257  12.541  10.788  0.7088 -2.4086  1.0047
 5875SOL     OW24674   7.549   9.025   5.812  0.6084 -0.1059 -0.3146
 5875SOL    HW124675   7.617   9.017   5.746  0.4111 -0.9160 -0.4334
 5875SOL    HW224676   7.562   9.112   5.850  1.7208 -0.2599 -0.3093
 5876SOL     OW24677   6.680   2.647   0.065  0.5894  0.2320  0.1238
 5876SOL    HW124678   6.699   2.591  -0.010  0.0261  0.6362 -0.3376
 5876SOL    HW224679   6.608   2.603   0.111 -0.2857  0.8632 -0.5941
 5877SOL     OW24680   5.289   6.721   4.926 -0.2541 -0.0356 -0.1548
 5877SOL    HW124681   5.246   6.806   4.929  0.7056  0.4818 -0.6204
 5877SOL    HW224682   5.359   6.726   4.991 -0.7848 -0.8186  0.5011
 5878SOL     OW24683  10.086   8.651   8.977  0.2703 -0.1646 -0.0714
 5878SOL    HW124684  10.020   8.697   8.926  0.2492  0.6377  0.6536
 5878SOL    HW224685  10.165   8.705   8.969  1.0104 -1.3819 -1.3502
 5879SOL     OW24686   6.144   4.843   6.116  0.3092 -0.3391  0.0209
 5879SOL    HW124687   6.220   4.797   6.082  1.3705  1.5875 -0.3251
 5879SOL    HW224688   6.146   4.826   6.211  1.6562  0.3502  0.1337
 5880SOL     OW24689  10.035   2.149   5.423  0.3545 -0.2018 -0.3412
 5880SOL    HW124690  10.124   2.131   5.452 -0.0753  0.0924  1.2293
 5880SOL    HW224691  10.046   2.203   5.344  1.5589 -0.1033 -0.1217
 5881SOL     OW24692   9.723   5.055   2.364 -0.4109  0.1529  0.3251
 5881SOL    HW124693   9.728   5.101   2.448 -0.0634 -1.7820  1.4297
 5881SOL    HW224694   9.644   5.090   2.323  0.3626  2.4154  0.6270
 5882SOL     OW24695   4.674   0.402  12.460  0.0349 -0.3189 -0.0797
 5882SOL    HW124696   4.735   0.343  12.417  1.1183  1.0507 -0.4841
 5882SOL    HW224697   4.727   0.450  12.524 -0.1337  2.1957 -1.6897
 5883SOL     OW24698   4.023   5.378   2.188  0.0494  0.0594 -0.5947
 5883SOL    HW124699   3.985   5.464   2.208  1.6665  0.4663  0.9815
 5883SOL    HW224700   4.104   5.398   2.141  0.3511 -0.5934 -0.3662
 5884SOL     OW24701  11.810   5.791   5.625  0.0708 -0.3749  0.0118
 5884SOL    HW124702  11.796   5.872   5.577  3.1092 -0.3779 -1.1430
 5884SOL    HW224703  11.767   5.724   5.573 -0.9767  0.2612  0.0445
 5885SOL     OW24704  12.354   6.603   8.165  0.0846 -0.7684  0.2048
 5885SOL    HW124705  12.272   6.563   8.135 -0.6569  0.5579  0.4233
 5885SOL    HW224706  12.331   6.647   8.246  1.4840 -2.0415  1.3494
 5886SOL     OW24707   9.023   0.827   5.801  0.3310  0.1377  0.0636
 5886SOL    HW124708   9.108   0.786   5.785  0.8874  1.8482 -1.8960
 5886SOL    HW224709   8.962   0.781   5.744  0.6497  0.9577 -0.9842
 5887SOL     OW24710   1.295   7.828   0.060  0.1843 -0.2919 -0.1469
 5887SOL    HW124711   1.310   7.887  -0.014  0.3706 -1.1463 -0.8029
 5887SOL    HW224712   1.250   7.882   0.125 -1.2738  0.1055 -1.4287
 5888SOL     OW24713   1.414   7.517   4.484  0.0470 -0.0641  0.3954
 5888SOL    HW124714   1.330   7.475   4.465  1.5701 -3.1409 -0.2586
 5888SOL    HW224715   1.433   7.570   4.407 -0.2596 -1.2526 -0.5357
 5889SOL     OW24716   7.140   6.401   4.811 -0.3794  0.1206 -0.2637
 5889SOL    HW124717   7.097   6.461   4.750  1.7589  1.5800 -0.4416
 5889SOL    HW224718   7.151   6.452   4.891 -0.5125 -0.7980  0.3549
 5890SOL     OW24719   7.675   2.014  11.543 -0.0523  0.5134 -0.4847
 5890SOL    HW124720   7.675   1.980  11.633 -2.9159  0.7879 -0.3040
 5890SOL    HW224721   7.695   2.107  11.553 -1.3642  0.7572 -0.0021
 5891SOL     OW24722   8.678   6.620   8.438  1.2181 -0.3700  0.0112
 5891SOL    HW124723   8.598   6.670   8.453  1.8482  0.9212 -0.7934
 5891SOL    HW224724   8.746   6.667   8.487  1.7869 -0.5246 -0.6117
 5892SOL     OW24725   1.264   5.713   9.836 -0.5632 -0.3218 -0.5394
 5892SOL    HW124726   1.186   5.657   9.844 -0.8559  0.2140  0.5408
 5892SOL    HW224727   1.305   5.710   9.922 -0.9412  1.6066 -0.2347
 5893SOL     OW24728   6.222   5.179   8.842 -0.1271  0.3244  0.2505
 5893SOL    HW124729   6.261   5.260   8.810 -1.9672 -0.0058 -3.3139
 5893SOL    HW224730   6.154   5.208   8.903  0.4173  1.3458  0.3849
 5894SOL     OW24731   1.994   4.123   2.471 -0.0952 -0.2693 -0.9108
 5894SOL    HW124732   2.072   4.143   2.522 -1.5389  1.6873  0.7140
 5894SOL    HW224733   1.948   4.056   2.523 -0.4519  0.0475 -0.8106
 5895SOL     OW24734   7.824   8.018  12.197 -0.0757 -0.1141 -0.3538
 5895SOL    HW124735   7.757   8.080  12.224  0.4295 -0.4903  1.9228
 5895SOL    HW224736   7.885   8.013  12.271  1.3807 -1.2844 -1.5523
 5896SOL     OW24737   0.678   6.713   0.549 -0.1560  0.0566 -0.0898
 5896SOL    HW124738   0.734   6.719   0.626 -1.0215 -1.1942  0.6754
 5896SOL    HW224739   0.734   6.741   0.477  1.2505 -0.4778  0.7434
 5897SOL     OW24740   1.299   1.176   3.283  0.3926  0.4413  0.3811
 5897SOL    HW124741   1.240   1.211   3.350  0.2916  0.4149  0.3064
 5897SOL    HW224742   1.276   1.223   3.203  2.5280  2.6700  0.9722
 5898SOL     OW24743   2.266   8.721   0.878  0.8676 -0.7185  0.4900
 5898SOL    HW124744   2.314   8.688   0.954  2.3727 -1.0239 -0.5331
 5898SOL    HW224745   2.271   8.649   0.814  2.2328  0.5710 -0.9628
 5899SOL     OW24746  10.174  11.788  10.527  0.0612  0.4933  0.0323
 5899SOL    HW124747  10.137  11.807  10.613 -3.4784 -0.0367 -1.1836
 5899SOL    HW224748  10.211  11.872  10.498  0.0304  1.0406  1.5082
 5900SOL     OW24749   4.647   5.295   4.454  0.1360 -0.2624 -0.2374
 5900SOL    HW124750   4.606   5.294   4.540 -0.1391 -1.0424 -0.3707
 5900SOL    HW224751   4.608   5.221   4.408  2.3228 -1.5858 -0.0743
 5901SOL     OW24752  10.842  10.269   4.897  0.1083  0.5236  0.0440
 5901SOL    HW124753  10.817  10.296   4.809 -0.9725 -0.7175 -0.0701
 5901SOL    HW224754  10.917  10.211   4.884  0.3735  0.8755  0.0044
 5902SOL     OW24755  12.024  12.239   6.635  0.7114  0.2508 -0.6562
 5902SOL    HW124756  11.981  12.154   6.625  0.9960  0.2418 -1.9676
 5902SOL    HW224757  12.053  12.241   6.727 -3.3028  0.8665  0.8065
 5903SOL     OW24758   4.644   8.498   2.601 -0.3738 -0.1755 -0.2129
 5903SOL    HW124759   4.655   8.590   2.623 -2.6821  0.1284 -0.0831
 5903SOL    HW224760   4.682   8.451   2.675 -0.2402  0.6919  0.2775
 5904SOL     OW24761  12.225  10.458   6.369 -0.5264  0.8306 -0.0931
 5904SOL    HW124762  12.235  10.456   6.274 -0.4391 -2.5871 -0.1138
 5904SOL    HW224763  12.283  10.389   6.401  0.7424  2.9527  2.6613
 5905SOL     OW24764   4.413   5.146   9.518 -0.2384 -0.3092  0.1451
 5905SOL    HW124765   4.483   5.206   9.493  1.2136 -1.2339  1.7411
 5905SOL    HW224766   4.416   5.144   9.614 -1.5860 -1.3738  0.1890
 5906SOL     OW24767   6.100   8.008   0.259 -0.1717 -0.1475  0.7631
 5906SOL    HW124768   6.141   7.937   0.210 -1.0257  0.0382 -0.2638
 5906SOL    HW224769   6.173   8.058   0.295  0.4928 -0.1302 -0.5610
 5907SOL     OW24770   9.340  11.325   2.538  0.0811 -0.3664  0.1118
 5907SOL    HW124771   9.340  11.314   2.443  1.7492  1.6904 -0.1975
 5907SOL    HW224772   9.385  11.248   2.572 -0.7560 -1.2477 -0.7173
 5908SOL     OW24773  12.433   4.345   4.746  0.3647  0.1332 -0.2742
 5908SOL    HW124774  12.507   4.350   4.806 -1.3777  1.6293  1.9627
 5908SOL    HW224775  12.423   4.252   4.726  1.7621 -0.2671  0.7804
 5909SOL     OW24776   4.918   0.802  11.121  0.3261  0.4311 -0.4942
 5909SOL    HW124777   4.923   0.871  11.187  0.0137 -0.2791  0.3041
 5909SOL    HW224778   4.835   0.757  11.141 -1.0086  1.6773 -2.8750
 5910SOL     OW24779   1.795  11.628  12.577 -0.0118  0.3108  0.5395
 5910SOL    HW124780   1.726  11.694  12.579  0.2529  0.6217 -0.1309
 5910SOL    HW224781   1.748  11.544  12.578 -0.4692  0.5165 -0.9544
 5911SOL     OW24782   9.825   8.714   1.364  0.0846  0.1643 -0.3204
 5911SOL    HW124783   9.861   8.783   1.308  1.0947  0.2280  0.3895
 5911SOL    HW224784   9.733   8.738   1.374  0.0025  0.4269 -1.5254
 5912SOL     OW24785  12.164   3.644   9.022  0.3480 -0.0782 -0.0729
 5912SOL    HW124786  12.239   3.611   9.072  1.5824  1.4016 -0.8564
 5912SOL    HW224787  12.200   3.661   8.934 -1.4846 -1.5250 -1.1647
 5913SOL     OW24788   3.921   6.888  11.578  0.1301 -0.6566  0.0264
 5913SOL    HW124789   3.860   6.955  11.548  0.9982 -0.5201 -1.5106
 5913SOL    HW224790   3.930   6.829  11.504 -0.2370 -2.2369  1.1879
 5914SOL     OW24791   0.258   4.046   5.816 -0.0431 -0.2905  0.0064
 5914SOL    HW124792   0.165   4.053   5.835  0.0868 -1.6907  1.4354
 5914SOL    HW224793   0.298   4.117   5.866 -0.1159 -1.4398  1.7966
 5915SOL     OW24794  10.041   4.468   9.893 -0.0573 -0.8265  0.0460
 5915SOL    HW124795  10.112   4.519   9.855 -0.6414 -1.1736 -1.6051
 5915SOL    HW224796  10.071   4.446   9.982  1.6812 -0.6026 -0.4576
 5916SOL     OW24797   8.083   3.288   5.832  0.2347 -0.1462 -0.2479
 5916SOL    HW124798   8.154   3.268   5.771  0.1457 -0.0876 -0.3717
 5916SOL    HW224799   8.124   3.343   5.899  0.6734 -1.3687  0.5254
 5917SOL     OW24800   2.382   8.994   6.844  0.0103 -0.3441  0.4713
 5917SOL    HW124801   2.446   9.061   6.864 -0.1835 -0.2658  0.8306
 5917SOL    HW224802   2.336   9.027   6.766  1.5801 -1.2115 -0.8962
 5918SOL     OW24803  10.994   9.865   8.219 -0.3949 -0.3680 -0.4290
 5918SOL    HW124804  10.915   9.919   8.222  0.6692  1.1957  1.0956
 5918SOL    HW224805  10.969   9.783   8.260 -0.6974  0.9122  2.1048
 5919SOL     OW24806   1.119  10.188   2.528  0.1763  0.4860 -0.2263
 5919SOL    HW124807   1.203  10.152   2.499 -0.6898 -1.0085 -1.0069
 5919SOL    HW224808   1.143  10.263   2.583  1.9719  0.8856 -1.4738
 5920SOL     OW24809   6.618   5.137   8.255 -0.0363 -0.1863  0.2385
 5920SOL    HW124810   6.549   5.119   8.319 -0.0942 -0.9550 -0.0229
 5920SOL    HW224811   6.698   5.106   8.298  0.0324 -0.0165  0.2320
 5921SOL     OW24812   5.947   1.242   0.972 -0.3728  0.8969  0.1505
 5921SOL    HW124813   5.888   1.312   0.945 -0.6407  1.0681  1.1255
 5921SOL    HW224814   5.903   1.201   1.046  0.4933  0.7059  0.5770
 5922SOL     OW24815   2.898   8.524   9.712 -0.4629  0.2051  0.2729
 5922SOL    HW124816   2.923   8.594   9.772 -0.3855  0.1829  0.2663
 5922SOL    HW224817   2.833   8.473   9.761  0.6474 -0.6639  0.8899
 5923SOL     OW24818   7.025   6.890   4.312 -0.3617  0.1695  0.1497
 5923SOL    HW124819   6.944   6.839   4.314  0.4556 -1.2613 -0.7275
 5923SOL    HW224820   6.997   6.980   4.295 -1.9098  0.1907  2.3004
 5924SOL     OW24821   5.884   2.344   0.001  0.3254  0.0543 -0.0754
 5924SOL    HW124822   5.951   2.302   0.056 -1.1459 -1.4004  0.6975
 5924SOL    HW224823   5.832   2.272  -0.033 -0.9294  1.1393 -0.5487
 5925SOL     OW24824   7.229   6.702  11.063 -0.1712  0.3075  0.0668
 5925SOL    HW124825   7.281   6.637  11.015 -0.0905  1.0560 -0.8956
 5925SOL    HW224826   7.224   6.667  11.152 -0.1018 -0.9941 -0.4128
 5926SOL     OW24827   7.762   0.631  12.139  0.1800 -0.0603 -0.6880
 5926SOL    HW124828   7.674   0.662  12.116 -0.4264 -0.5248  0.8895
 5926SOL    HW224829   7.774   0.552  12.087 -1.1188 -1.0304  0.3917
 5927SOL     OW24830   6.482   3.666   9.846  0.6931  0.5253  0.5243
 5927SOL    HW124831   6.483   3.574   9.821  1.9714  0.5010  0.6185
 5927SOL    HW224832   6.428   3.670   9.925 -0.2287  0.0279 -0.0622
 5928SOL     OW24833   0.952   9.897   5.905 -0.2126 -0.2538 -0.0791
 5928SOL    HW124834   1.031   9.846   5.925 -1.0645 -1.3967  0.4690
 5928SOL    HW224835   0.959   9.914   5.811  1.3424  0.8528  0.1941
 5929SOL     OW24836  12.140   8.098  11.109  0.2758 -0.5240 -0.6601
 5929SOL    HW124837  12.078   8.112  11.038  1.0492  0.7773 -1.1124
 5929SOL    HW224838  12.096   8.131  11.187 -0.3106 -1.3293 -0.6381
 5930SOL     OW24839   6.847  12.172   4.761  0.0498  0.3825  0.0411
 5930SOL    HW124840   6.919  12.118   4.730 -1.1197 -0.2469 -1.7490
 5930SOL    HW224841   6.870  12.261   4.735  1.2183  0.5623  1.5523
 5931SOL     OW24842  10.524   5.236   4.242 -0.7666 -0.0683  0.2644
 5931SOL    HW124843  10.456   5.284   4.195 -0.5479 -0.0524 -0.0353
 5931SOL    HW224844  10.560   5.300   4.304 -0.8925 -0.0223  0.2903
 5932SOL     OW24845   1.125   4.414   3.590 -0.2227  0.0764  0.2832
 5932SOL    HW124846   1.205   4.414   3.644  0.7581  1.1151 -1.1023
 5932SOL    HW224847   1.107   4.321   3.575  1.3727 -0.1797 -0.2714
 5933SOL     OW24848   4.605   2.112   5.849 -0.3718  0.4759 -0.0528
 5933SOL    HW124849   4.665   2.148   5.913  1.2097  2.0096 -2.2565
 5933SOL    HW224850   4.660   2.062   5.789 -1.6104  0.0444 -0.8806
 5934SOL     OW24851   4.578   0.829  10.624 -0.3667 -0.3593  0.4195
 5934SOL    HW124852   4.628   0.823  10.543 -0.9724  0.2261 -0.0113
 5934SOL    HW224853   4.594   0.746  10.669  0.4222 -0.4618 -0.0315
 5935SOL     OW24854   8.123   5.907   8.039 -0.1047  0.0751 -0.0159
 5935SOL    HW124855   8.175   5.832   8.065  0.9465 -0.3925 -3.0637
 5935SOL    HW224856   8.186   5.969   8.003 -1.3743  0.6353 -1.3775
 5936SOL     OW24857  10.311   9.940   3.882 -0.2057 -0.0728 -0.0722
 5936SOL    HW124858  10.384   9.878   3.887 -1.8238 -2.0347  0.5448
 5936SOL    HW224859  10.304   9.976   3.970  0.4377  0.6987 -0.3164
 5937SOL     OW24860   1.257   7.434   5.044 -0.1175 -0.2395  0.2080
 5937SOL    HW124861   1.345   7.426   5.008 -0.3726  0.8894 -0.7322
 5937SOL    HW224862   1.202   7.383   4.985  0.1656 -2.8296  2.0468
 5938SOL     OW24863   9.261  10.244   7.369 -0.0813 -0.1779 -0.4313
 5938SOL    HW124864   9.270  10.239   7.464 -1.7885 -0.3870 -0.2505
 5938SOL    HW224865   9.340  10.201   7.335 -0.2206 -1.5338  0.8929
 5939SOL     OW24866   0.632   0.376   8.031  0.1032  0.2878  0.0212
 5939SOL    HW124867   0.597   0.297   8.073  2.2515 -0.8154 -0.1180
 5939SOL    HW224868   0.608   0.367   7.939 -0.2358  0.1438  0.1204
 5940SOL     OW24869   9.319  11.812   6.849  0.2967  0.0090 -0.3364
 5940SOL    HW124870   9.330  11.870   6.924 -0.4840  0.2749 -0.4238
 5940SOL    HW224871   9.402  11.764   6.843 -0.2487 -1.3564  1.8343
 5941SOL     OW24872   9.056   2.395   9.700 -0.5912  0.9047  0.1752
 5941SOL    HW124873   9.010   2.316   9.671  0.9471  0.1275 -0.2560
 5941SOL    HW224874   9.025   2.409   9.789 -0.5167 -0.4993  0.4506
 5942SOL     OW24875   7.823   1.951   6.992 -0.2012  0.3404  0.0397
 5942SOL    HW124876   7.792   2.010   6.924 -2.6657 -0.1848  0.6167
 5942SOL    HW224877   7.801   1.996   7.074 -1.5752 -1.0551  0.4754
 5943SOL     OW24878   6.484  11.346   0.769  0.1041  0.4953 -0.1103
 5943SOL    HW124879   6.569  11.372   0.734 -0.4345  1.3453 -0.8186
 5943SOL    HW224880   6.467  11.407   0.841 -0.0582  0.5442 -0.1888
 5944SOL     OW24881   2.589   0.184   7.704  0.5230 -0.2977 -0.0541
 5944SOL    HW124882   2.565   0.091   7.696 -0.0378 -0.0033 -2.7755
 5944SOL    HW224883   2.659   0.196   7.640  0.3951  1.2187  0.0650
 5945SOL     OW24884   4.282   8.034   6.642 -0.5031  0.1864  0.2220
 5945SOL    HW124885   4.353   7.971   6.653 -1.4369 -1.3533 -2.0321
 5945SOL    HW224886   4.203   7.985   6.662 -1.1186  1.3310  0.7103
 5946SOL     OW24887   6.653   7.742   2.606 -0.7670 -0.1018  0.1322
 5946SOL    HW124888   6.722   7.728   2.541 -1.2829  2.2717 -1.0678
 5946SOL    HW224889   6.619   7.655   2.625  2.7290 -1.4511  1.0769
 5947SOL     OW24890  10.869   5.958  10.330  0.7025 -0.1153  0.1142
 5947SOL    HW124891  10.897   6.048  10.320  0.9745 -0.0709  1.1799
 5947SOL    HW224892  10.920   5.924  10.403 -0.0086 -0.8753  0.2857
 5948SOL     OW24893   2.934   7.998  11.582  0.2717  0.5405 -0.1046
 5948SOL    HW124894   2.847   8.010  11.545 -1.7762 -0.3880  3.8893
 5948SOL    HW224895   2.954   8.082  11.624 -0.0865 -0.1231  1.4601
 5949SOL     OW24896  10.665  10.210   7.190  0.2309  0.4716 -0.3292
 5949SOL    HW124897  10.606  10.163   7.250 -0.1472  0.8887 -0.3676
 5949SOL    HW224898  10.629  10.299   7.187  1.2060  0.8878  0.1076
 5950SOL     OW24899   7.989   0.777   9.472  0.1590  0.0355  0.3427
 5950SOL    HW124900   8.006   0.685   9.493  0.7674  0.3249  1.2140
 5950SOL    HW224901   7.894   0.783   9.466  0.0305 -0.4033  1.5724
 5951SOL     OW24902   8.821   9.830   8.561 -0.1054  0.1079 -0.0093
 5951SOL    HW124903   8.792   9.806   8.473 -0.3167  1.0629 -0.2070
 5951SOL    HW224904   8.880   9.904   8.548  3.0204 -2.1095  0.3078
 5952SOL     OW24905   0.139   1.062  12.315  0.3578 -0.2268 -0.4040
 5952SOL    HW124906   0.153   1.015  12.233  0.3704 -1.0518  0.0651
 5952SOL    HW224907   0.226   1.067  12.355  0.2335 -0.4786 -0.0975
 5953SOL     OW24908   6.437  11.621   2.155 -0.4736  0.0884 -0.3542
 5953SOL    HW124909   6.521  11.656   2.125  0.0831  0.0075  1.0042
 5953SOL    HW224910   6.433  11.533   2.119 -1.0388  0.8662 -2.2912
 5954SOL     OW24911   2.472   6.322  10.782  0.6120  0.1102  0.0845
 5954SOL    HW124912   2.377   6.323  10.797  0.3953  0.6694 -1.2203
 5954SOL    HW224913   2.509   6.340  10.869 -0.6109  4.3801 -0.0475
 5955SOL     OW24914   8.280   9.200   0.434  0.4603 -0.1819 -0.4189
 5955SOL    HW124915   8.212   9.201   0.502  2.1738  1.5497  1.4181
 5955SOL    HW224916   8.241   9.248   0.361  0.0126  1.8455  1.0428
 5956SOL     OW24917   3.282   3.126   1.821  0.1279  0.0651 -0.7489
 5956SOL    HW124918   3.333   3.104   1.743  1.4852 -0.5074  0.2636
 5956SOL    HW224919   3.344   3.168   1.880 -1.3736  2.5663 -0.7866
 5957SOL     OW24920  11.081  12.231   6.049 -0.1894 -0.2144  0.5102
 5957SOL    HW124921  11.100  12.298   6.114 -1.5289  0.9911 -0.2656
 5957SOL    HW224922  11.006  12.266   6.000  0.0464 -1.5926 -0.9253
 5958SOL     OW24923   6.790   0.521   0.127  0.1005  0.3416  0.0721
 5958SOL    HW124924   6.806   0.552   0.038 -3.4661 -1.3735 -1.3601
 5958SOL    HW224925   6.807   0.427   0.123 -0.3060  0.2070  1.1535
 5959SOL     OW24926   0.196   0.749  11.848 -0.0697 -0.5028 -0.3858
 5959SOL    HW124927   0.130   0.706  11.902  0.8652 -0.7833  0.5858
 5959SOL    HW224928   0.271   0.688  11.849  0.5273  0.2084 -0.7015
 5960SOL     OW24929   4.017   8.480   8.159  0.4261  0.0041 -0.6446
 5960SOL    HW124930   4.106   8.500   8.130  0.3470 -0.5793 -1.3210
 5960SOL    HW224931   3.987   8.561   8.201  1.5147 -0.0068  0.2247
 5961SOL     OW24932  10.793   6.725   4.104  0.3414  0.1749 -0.7011
 5961SOL    HW124933  10.771   6.640   4.067  1.7208 -0.5796  0.1487
 5961SOL    HW224934  10.742   6.730   4.185 -1.4698  1.1667 -1.8125
 5962SOL     OW24935   5.748   9.521   9.393 -0.4730  0.1391 -0.3611
 5962SOL    HW124936   5.780   9.564   9.313 -0.8745  0.4100 -0.3757
 5962SOL    HW224937   5.812   9.546   9.460 -2.4289  3.6202  0.4452
 5963SOL     OW24938   4.659   4.747  10.525  0.4200  0.1682  0.2122
 5963SOL    HW124939   4.633   4.820  10.581  0.9874  0.9873 -0.5759
 5963SOL    HW224940   4.669   4.785  10.438  1.6588 -0.6498 -0.0368
 5964SOL     OW24941  10.006   2.772   3.862 -0.6007  0.6163 -0.1343
 5964SOL    HW124942   9.967   2.796   3.946 -1.8649  1.6144 -0.9806
 5964SOL    HW224943   9.974   2.837   3.801  0.7591  0.2445 -1.3068
 5965SOL     OW24944  10.288   3.379   1.122 -0.4497  0.8378  0.9739
 5965SOL    HW124945  10.356   3.444   1.106 -0.3594  0.3640 -0.7385
 5965SOL    HW224946  10.325   3.320   1.187  0.8293  0.5120 -0.0324
 5966SOL     OW24947   3.071   2.812  11.142  0.1959  0.3736 -0.4119
 5966SOL    HW124948   3.003   2.746  11.131 -0.7064  1.4006 -1.3490
 5966SOL    HW224949   3.022   2.895  11.147  1.3831  1.1910 -1.6465
 5967SOL     OW24950  10.084   8.183   4.502 -0.2082 -0.0624 -0.3594
 5967SOL    HW124951  10.024   8.249   4.467 -0.7504  0.1272  0.8618
 5967SOL    HW224952  10.032   8.135   4.566  0.8846  0.0110  0.6194
 5968SOL     OW24953   8.799  12.104   0.741 -0.0384  0.1565 -0.0990
 5968SOL    HW124954   8.836  12.187   0.770 -1.2345  0.6793 -0.0241
 5968SOL    HW224955   8.767  12.063   0.822 -0.4543  0.1346 -0.2736
 5969SOL     OW24956  11.116   0.520  10.845 -0.2125  0.6458  0.1948
 5969SOL    HW124957  11.112   0.541  10.752 -0.4111  0.7547  0.2285
 5969SOL    HW224958  11.121   0.605  10.888  3.6044  0.6432  0.1318
 5970SOL     OW24959   7.108   6.220   4.075  0.0543 -0.4945  0.3427
 5970SOL    HW124960   7.070   6.142   4.035 -0.6304 -0.1076  0.2153
 5970SOL    HW224961   7.043   6.289   4.060  0.2123 -0.1168  1.2835
 5971SOL     OW24962   7.658   2.096   6.009 -0.1629 -0.0623  0.1495
 5971SOL    HW124963   7.610   2.136   5.936 -0.5451  0.1260  0.5055
 5971SOL    HW224964   7.591   2.054   6.062  0.0507  0.2905  0.7043
 5972SOL     OW24965   8.652   8.134   9.318 -0.4522  1.0539  0.3792
 5972SOL    HW124966   8.699   8.156   9.398  0.5297  0.2060  0.0484
 5972SOL    HW224967   8.627   8.042   9.329  3.1574 -0.3736 -1.8661
 5973SOL     OW24968   4.373   0.876   0.137  0.6998 -0.0918 -0.3112
 5973SOL    HW124969   4.358   0.967   0.112 -1.5471 -0.1973  0.4512
 5973SOL    HW224970   4.452   0.851   0.089  1.5015  2.2974 -0.3720
 5974SOL     OW24971   9.231   3.280   3.592  0.0167  0.1916 -0.0723
 5974SOL    HW124972   9.288   3.345   3.552 -0.2146  0.3711 -0.1107
 5974SOL    HW224973   9.231   3.207   3.531 -0.4419  0.5175 -0.4654
 5975SOL     OW24974   5.509   0.733   7.247  0.2696 -0.1760 -0.1038
 5975SOL    HW124975   5.474   0.752   7.335 -1.4237  1.7128 -1.0883
 5975SOL    HW224976   5.577   0.799   7.234  0.2665 -0.2235 -0.3541
 5976SOL     OW24977  11.179   5.285   8.200 -0.5017  0.5165  0.0270
 5976SOL    HW124978  11.211   5.301   8.111 -0.3359 -0.1704 -0.0387
 5976SOL    HW224979  11.247   5.231   8.241 -0.4924  0.9733  0.6304
 5977SOL     OW24980   7.249   8.240   0.357 -0.4422  0.5555 -0.4371
 5977SOL    HW124981   7.226   8.300   0.286  0.0361  0.0539 -1.0294
 5977SOL    HW224982   7.216   8.155   0.328 -0.6972  0.4459  0.1765
 5978SOL     OW24983  11.630   7.230  10.130  0.1392 -0.7377  0.2064
 5978SOL    HW124984  11.607   7.186  10.212  0.5332 -1.5023 -0.0797
 5978SOL    HW224985  11.571   7.304  10.125 -1.4137 -1.9320  0.1154
 5979SOL     OW24986   9.265   8.655  10.478 -0.0550  0.1337  0.6187
 5979SOL    HW124987   9.300   8.652  10.389 -2.5758 -2.2968 -0.4293
 5979SOL    HW224988   9.192   8.717  10.473 -3.3967 -3.4710 -0.5456
 5980SOL     OW24989   9.936   6.542   7.790  0.0124 -0.0475  0.1447
 5980SOL    HW124990   9.941   6.576   7.701 -2.0339  1.4131  0.5276
 5980SOL    HW224991   9.987   6.604   7.842  1.6160 -1.1621 -0.0055
 5981SOL     OW24992   1.820   2.547   3.384 -0.7298 -0.6854 -0.2445
 5981SOL    HW124993   1.880   2.608   3.342  0.2279 -0.4779  1.3346
 5981SOL    HW224994   1.858   2.460   3.368 -0.9002 -0.6965 -0.6092
 5982SOL     OW24995   0.656  11.588   9.636 -0.4577  0.4993  0.1002
 5982SOL    HW124996   0.605  11.559   9.560  0.1067 -1.1204  0.3026
 5982SOL    HW224997   0.608  11.553   9.711  0.3061 -0.0436  0.3468
 5983SOL     OW24998   1.102   3.712   3.083  0.4251  0.0004 -0.0483
 5983SOL    HW124999   1.041   3.777   3.117 -2.2378 -1.2314 -2.1321
 5983SOL    HW225000   1.163   3.762   3.029 -0.8770  0.9409 -0.6982
 5984SOL     OW25001   9.506   1.728   6.809 -0.3094 -0.3414  0.2022
 5984SOL    HW125002   9.422   1.762   6.840 -0.3362  0.7535 -0.9855
 5984SOL    HW225003   9.493   1.634   6.800 -0.3512 -0.7370  3.2468
 5985SOL     OW25004   0.893  12.529   8.651 -0.2402 -0.1812  0.0601
 5985SOL    HW125005   0.970  12.472   8.642 -0.8538 -1.0122 -0.0161
 5985SOL    HW225006   0.819  12.469   8.653 -1.1353  0.7064 -2.5483
 5986SOL     OW25007   0.697   8.656   8.118  0.3360 -0.3414 -0.6249
 5986SOL    HW125008   0.717   8.747   8.096  0.9881 -0.7775 -1.9718
 5986SOL    HW225009   0.622   8.634   8.062  0.6570 -0.8454 -0.8645
 5987SOL     OW25010  10.870   6.716   2.266  0.2785  0.2933  0.2351
 5987SOL    HW125011  10.804   6.680   2.207  0.9152  0.4198 -0.5772
 5987SOL    HW225012  10.877   6.808   2.241  1.0682  0.1813  0.0055
 5988SOL     OW25013  11.878   0.354   2.692  0.1260  0.3000  0.7316
 5988SOL    HW125014  11.910   0.274   2.650 -0.3549  0.1309  0.6791
 5988SOL    HW225015  11.952   0.413   2.690  0.2538  0.1275  0.0522
 5989SOL     OW25016   4.092   2.235   0.257 -0.0556 -0.1628 -0.2094
 5989SOL    HW125017   4.187   2.247   0.252  0.1727  0.2790  3.0230
 5989SOL    HW225018   4.056   2.317   0.223  0.6972 -0.1762 -1.0932
 5990SOL     OW25019   4.903   9.538   0.277  0.4031 -0.0230 -0.0702
 5990SOL    HW125020   4.841   9.530   0.204  1.7232  1.9130 -1.5189
 5990SOL    HW225021   4.890   9.459   0.329 -0.8314 -1.3295 -2.2362
 5991SOL     OW25022   7.049   7.404  11.486  0.3836  0.0840 -0.0442
 5991SOL    HW125023   7.020   7.482  11.437  0.9996 -0.3880 -1.2074
 5991SOL    HW225024   6.969   7.354  11.500  0.2073  0.1596 -0.7224
 5992SOL     OW25025   2.694   2.856   4.080  0.4283 -0.3218  0.0758
 5992SOL    HW125026   2.781   2.894   4.083  0.5369 -0.4239 -1.2420
 5992SOL    HW225027   2.707   2.768   4.045 -0.2820 -0.0297 -0.9843
 5993SOL     OW25028   4.274   5.646   2.505  0.3253  0.0545 -0.0491
 5993SOL    HW125029   4.233   5.726   2.539  0.1048  0.0335 -0.2667
 5993SOL    HW225030   4.292   5.594   2.583  1.9522  1.0059  0.2554
 5994SOL     OW25031   1.078  11.053  11.975 -0.8571  0.2602  0.4156
 5994SOL    HW125032   0.995  11.005  11.978  0.0669 -1.3843  0.7607
 5994SOL    HW225033   1.101  11.054  11.883 -2.1883  2.4671  0.0426
 5995SOL     OW25034   5.701   4.549   4.970 -0.0237  0.2033 -0.2506
 5995SOL    HW125035   5.666   4.487   5.034  0.6665 -0.1414 -0.1929
 5995SOL    HW225036   5.699   4.503   4.887  1.8209 -0.4778  0.0170
 5996SOL     OW25037   0.344   9.848   9.976  0.9332  0.1536  0.1665
 5996SOL    HW125038   0.401   9.909  10.022 -0.4382  1.0471  0.7648
 5996SOL    HW225039   0.291   9.904   9.919 -0.9397 -0.3413  1.3409
 5997SOL     OW25040   3.096   9.441   9.948  0.3726 -0.0548 -0.2577
 5997SOL    HW125041   3.045   9.522   9.938  1.0610  0.4271  0.0417
 5997SOL    HW225042   3.130   9.446  10.038 -1.2702 -1.6824  0.5202
 5998SOL     OW25043  10.736   6.894   7.244  0.2687 -0.3324 -0.2941
 5998SOL    HW125044  10.767   6.977   7.206  2.1026 -1.0498 -0.4744
 5998SOL    HW225045  10.757   6.828   7.177  2.7862 -1.5068  1.4908
 5999SOL     OW25046   8.745   2.256   2.771  0.4689  0.8068 -0.3409
 5999SOL    HW125047   8.755   2.260   2.866 -0.9960  2.3823 -0.2153
 5999SOL    HW225048   8.833   2.234   2.739  0.7751 -0.7695  1.3929
 6000SOL     OW25049  12.433  12.224   6.924 -0.1033 -0.1759  0.0765
 6000SOL    HW125050  12.447  12.302   6.979  0.7320 -0.9892  1.0748
 6000SOL    HW225051  12.520  12.186   6.915 -0.5439 -1.1708 -0.1123
 6001SOL     OW25052   1.835  10.996   2.894 -0.0022 -0.3965 -0.2187
 6001SOL    HW125053   1.802  10.920   2.943 -2.4223  0.8387  0.2123
 6001SOL    HW225054   1.795  10.988   2.808  0.4187 -0.0566 -0.4489
 6002SOL     OW25055   9.327   2.316   6.190  0.3325  0.2717  0.1837
 6002SOL    HW125056   9.349   2.299   6.281 -1.3360 -0.0404  0.5500
 6002SOL    HW225057   9.236   2.343   6.192 -0.6101 -2.4099 -1.6720
 6003SOL     OW25058   9.120   4.099  11.757  0.1913  0.6039 -0.0568
 6003SOL    HW125059   9.178   4.026  11.736  1.5941  1.7860 -0.4618
 6003SOL    HW225060   9.063   4.066  11.826  0.1216 -1.1659 -0.9063
 6004SOL     OW25061   6.713   7.263   9.515  0.2822 -0.2295 -0.5232
 6004SOL    HW125062   6.698   7.170   9.496 -1.3175 -0.3488  1.0990
 6004SOL    HW225063   6.773   7.263   9.590 -2.0659 -0.1060  1.4641
 6005SOL     OW25064   1.502   5.316   2.840 -0.2348  0.1725 -0.1573
 6005SOL    HW125065   1.489   5.398   2.888 -0.2125  0.1068 -0.0372
 6005SOL    HW225066   1.583   5.280   2.876 -0.7822 -0.4122  0.5373
 6006SOL     OW25067   6.281   6.017   4.500 -0.2967 -0.0217  0.2136
 6006SOL    HW125068   6.338   6.093   4.495 -1.5191  0.8887 -0.4855
 6006SOL    HW225069   6.253   6.001   4.410 -1.1293 -0.4401  0.5346
 6007SOL     OW25070   7.517  11.572   8.783  0.0346 -0.4985 -0.3486
 6007SOL    HW125071   7.606  11.539   8.768  0.2206 -0.5196  0.6867
 6007SOL    HW225072   7.495  11.540   8.871 -0.7312  0.0894 -0.3217
 6008SOL     OW25073   2.400   4.701   1.426 -0.1281 -0.1461  0.5508
 6008SOL    HW125074   2.451   4.620   1.421 -1.5975 -1.1062  0.4778
 6008SOL    HW225075   2.311   4.672   1.447 -0.4202  1.5597  1.8913
 6009SOL     OW25076   7.378   7.218   1.823 -0.2506 -0.2842 -0.4008
 6009SOL    HW125077   7.396   7.311   1.815  0.0166 -0.3354 -0.4025
 6009SOL    HW225078   7.352   7.206   1.915 -2.0619  0.0914 -0.8199
 6010SOL     OW25079   0.553   5.273  10.877  0.0118 -0.1209  0.0257
 6010SOL    HW125080   0.613   5.223  10.822 -1.2106  0.1730 -1.6471
 6010SOL    HW225081   0.506   5.330  10.816 -1.9670 -0.3408  1.2470
 6011SOL     OW25082   6.423   4.320  10.235 -0.3279 -0.0922  0.5165
 6011SOL    HW125083   6.394   4.350  10.149  1.4313 -0.2191 -0.1593
 6011SOL    HW225084   6.511   4.356  10.245  0.5316 -2.2017  1.1129
 6012SOL     OW25085   3.541  11.181   5.532 -0.3950 -0.1080 -0.1619
 6012SOL    HW125086   3.497  11.218   5.609  1.8651  3.2560 -0.2471
 6012SOL    HW225087   3.517  11.240   5.461  1.9486  0.2332 -0.7618
 6013SOL     OW25088   6.428  11.857   7.281 -0.3041 -0.6065 -0.1068
 6013SOL    HW125089   6.474  11.817   7.356  0.2221 -0.5002 -0.3661
 6013SOL    HW225090   6.497  11.902   7.232 -0.3335 -2.0868 -1.5986
 6014SOL     OW25091   0.738   1.496   0.201  0.5443 -0.4723  0.1350
 6014SOL    HW125092   0.707   1.426   0.143 -1.4629  0.0306  0.5249
 6014SOL    HW225093   0.732   1.576   0.149  3.5375 -0.5579 -0.5634
 6015SOL     OW25094   1.607   7.348   7.543 -0.0372  0.6108  0.2222
 6015SOL    HW125095   1.640   7.432   7.511  0.9128  0.1174 -0.1493
 6015SOL    HW225096   1.554   7.370   7.619  0.5958  1.5051  0.4149
 6016SOL     OW25097   8.800  12.130   9.496  0.2833 -0.0158  0.1829
 6016SOL    HW125098   8.704  12.129   9.500  0.2859  0.9214  0.8725
 6016SOL    HW225099   8.825  12.212   9.540  1.3048  1.1167 -2.3397
 6017SOL     OW25100   7.380   1.786   1.786 -0.7961 -0.1146 -0.0633
 6017SOL    HW125101   7.381   1.867   1.837 -2.0218  0.1795 -0.4635
 6017SOL    HW225102   7.462   1.787   1.738 -0.6729  0.7634  0.1382
 6018SOL     OW25103   6.783   9.653   6.460  0.0242 -0.0135  0.4746
 6018SOL    HW125104   6.866   9.631   6.416  1.5999  0.7299  2.8699
 6018SOL    HW225105   6.743   9.718   6.402  1.7477  0.5422 -0.1740
 6019SOL     OW25106   6.557  12.391  10.265 -0.1950  0.1983 -0.0330
 6019SOL    HW125107   6.507  12.470  10.247 -0.2252  0.3457  0.6610
 6019SOL    HW225108   6.607  12.374  10.184  0.9159  1.7314  0.2937
 6020SOL     OW25109   4.123   5.367  10.602 -0.2278 -0.9922  0.1899
 6020SOL    HW125110   4.155   5.329  10.520 -1.0409  0.6186 -0.9451
 6020SOL    HW225111   4.194   5.424  10.631 -2.1026  3.7821 -3.1273
 6021SOL     OW25112   9.968   0.332   3.719 -0.1974 -0.0708  0.0570
 6021SOL    HW125113   9.913   0.410   3.714 -0.2607 -0.0530  0.8863
 6021SOL    HW225114   9.907   0.259   3.713 -0.3015 -0.0504  0.7560
 6022SOL     OW25115   4.235   5.525  12.235 -0.2388  0.1210 -0.4650
 6022SOL    HW125116   4.264   5.570  12.314 -2.0286  0.1181  0.2363
 6022SOL    HW225117   4.217   5.435  12.264 -3.4831  0.7598 -0.1692
 6023SOL     OW25118   4.979   0.229  10.251 -0.1039  0.0037 -0.4311
 6023SOL    HW125119   4.950   0.174  10.324  0.4804  0.7846  0.4197
 6023SOL    HW225120   4.936   0.192  10.174 -1.4498 -0.3039  0.4339
 6024SOL     OW25121   4.732   0.349  11.124  0.2241 -0.2163 -0.2086
 6024SOL    HW125122   4.646   0.336  11.084  0.7436  0.0957 -1.4867
 6024SOL    HW225123   4.754   0.264  11.162 -1.8442  0.4026  2.7171
 6025SOL     OW25124   7.080   2.045   4.292  0.4306 -0.0864 -0.2482
 6025SOL    HW125125   7.027   2.125   4.290 -0.8489 -0.9097 -1.4850
 6025SOL    HW225126   7.170   2.077   4.300 -0.1124  1.4323  0.2666
 6026SOL     OW25127   9.774  10.167   1.596  0.4172  0.5113 -0.2588
 6026SOL    HW125128   9.835  10.203   1.660  0.1457 -0.9785  0.8977
 6026SOL    HW225129   9.714  10.239   1.576  0.8825  1.1816  0.7047
 6027SOL     OW25130  11.896   1.139   1.297 -0.6749 -0.1476  0.2510
 6027SOL    HW125131  11.858   1.093   1.372  1.6176 -0.3207  1.4276
 6027SOL    HW225132  11.974   1.182   1.333  0.7487 -0.5691 -2.1095
 6028SOL     OW25133  11.872   3.245  10.640  0.8182  0.1726  0.0016
 6028SOL    HW125134  11.833   3.158  10.635  0.5857  0.2023  0.9662
 6028SOL    HW225135  11.928   3.252  10.563  1.5313 -1.1697  0.3743
 6029SOL     OW25136   5.013   9.797   2.447  0.0490  0.1434  0.0680
 6029SOL    HW125137   5.006   9.890   2.467 -0.2782 -0.1313  1.3300
 6029SOL    HW225138   5.086   9.791   2.385 -1.5496  1.4958 -2.0788
 6030SOL     OW25139   3.408   6.475   1.687 -0.2707  0.3665  0.2657
 6030SOL    HW125140   3.441   6.462   1.598  1.3171 -2.6791  1.1431
 6030SOL    HW225141   3.356   6.397   1.704 -1.6934  1.5461  1.5857
 6031SOL     OW25142   6.443   0.159   1.478 -0.2931 -0.2244 -0.2518
 6031SOL    HW125143   6.527   0.205   1.474 -0.4229  0.1778  1.1133
 6031SOL    HW225144   6.388   0.215   1.533 -2.3724  0.8821 -3.1551
 6032SOL     OW25145  10.516   5.062   8.249 -0.1547  0.3659  0.0358
 6032SOL    HW125146  10.429   5.102   8.255 -0.5572 -0.5800  0.9117
 6032SOL    HW225147  10.535   5.035   8.339  2.1288  2.7335  0.3744
 6033SOL     OW25148   1.619   0.122   3.788  0.4661 -0.2168 -0.1652
 6033SOL    HW125149   1.538   0.173   3.793  0.8364  0.2880  0.7050
 6033SOL    HW225150   1.605   0.064   3.713  0.6591  2.2188 -2.2298
 6034SOL     OW25151  10.153  10.089   2.003  0.4897 -0.3379 -0.3153
 6034SOL    HW125152  10.215  10.092   2.075 -0.2898  0.6970  0.3421
 6034SOL    HW225153  10.193  10.030   1.939  1.0114 -1.5936  1.1086
 6035SOL     OW25154   0.217  10.101   5.328  0.1903  0.2989  0.4716
 6035SOL    HW125155   0.188  10.108   5.238  1.6958 -1.4055 -0.2062
 6035SOL    HW225156   0.146  10.139   5.380 -1.5242 -0.4029 -1.2842
 6036SOL     OW25157   0.524   5.126   1.753 -0.1215  0.0840 -0.3630
 6036SOL    HW125158   0.500   5.086   1.836 -1.5430  2.0426  0.2423
 6036SOL    HW225159   0.491   5.216   1.759  3.2323  1.5480 -1.4513
 6037SOL     OW25160   8.151   7.897   6.324  0.5987  0.1255 -0.0882
 6037SOL    HW125161   8.065   7.884   6.284  0.3552  1.1283  0.0976
 6037SOL    HW225162   8.197   7.814   6.309  0.0847  0.0600 -1.3836
 6038SOL     OW25163   7.683   4.418   0.279 -0.2205 -0.3789  0.3942
 6038SOL    HW125164   7.684   4.501   0.231  1.9482  0.1788  1.2916
 6038SOL    HW225165   7.593   4.409   0.309 -0.8243  0.9541 -0.8973
 6039SOL     OW25166  11.660   9.948   2.200 -0.0321 -0.1038  0.1649
 6039SOL    HW125167  11.657   9.864   2.246  1.0991  0.4247  1.2577
 6039SOL    HW225168  11.569   9.979   2.202 -0.2585 -0.7654  0.7819
 6040SOL     OW25169  12.552  10.335   2.702 -0.4705  0.2743 -0.2605
 6040SOL    HW125170  12.620  10.355   2.637  1.7404  0.4111  1.9638
 6040SOL    HW225171  12.559  10.405   2.766 -1.4095 -0.7650  1.0241
 6041SOL     OW25172   9.881  11.125   1.001  0.1924 -0.2068  0.1401
 6041SOL    HW125173   9.955  11.088   1.049  0.4174  0.5494  0.3847
 6041SOL    HW225174   9.805  11.076   1.035  0.1827  1.0738  2.1698
 6042SOL     OW25175  11.877  10.499   0.553  0.6363 -0.1229 -0.1613
 6042SOL    HW125176  11.848  10.569   0.611  0.4884 -0.2475 -0.0831
 6042SOL    HW225177  11.817  10.503   0.478  1.0643  0.2853 -0.4899
 6043SOL     OW25178   5.084   1.000   1.755 -0.3260  0.7034  0.4026
 6043SOL    HW125179   5.135   1.064   1.804  0.2830  0.0228  0.6746
 6043SOL    HW225180   4.995   1.010   1.789  0.0202  0.4753  1.4199
 6044SOL     OW25181  12.460   8.978   0.830 -0.5773  0.1021  0.1770
 6044SOL    HW125182  12.442   8.904   0.772 -0.2920  0.2755 -0.1415
 6044SOL    HW225183  12.431   9.055   0.780 -0.1000  0.2755  0.1586
 6045SOL     OW25184   8.842   0.683   5.593 -0.5691  0.1041  0.1515
 6045SOL    HW125185   8.919   0.644   5.552 -1.6621 -1.1966 -0.7283
 6045SOL    HW225186   8.820   0.625   5.665  1.1914  2.2475  2.6038
 6046SOL     OW25187   3.453   6.964   1.954  0.6743  0.6104  0.4864
 6046SOL    HW125188   3.386   6.909   1.996 -1.5547  1.0903 -2.1175
 6046SOL    HW225189   3.406   7.044   1.930  2.1985  1.0402 -1.2896
 6047SOL     OW25190   7.537   2.960  12.196  0.7104  1.2721 -0.4351
 6047SOL    HW125191   7.614   3.017  12.202  2.1420 -0.6799  1.3665
 6047SOL    HW225192   7.512   2.944  12.288  0.1073 -0.6230 -0.8806
 6048SOL     OW25193   9.374   3.869   6.290 -0.6354 -0.2482 -0.2630
 6048SOL    HW125194   9.295   3.922   6.277  0.3789  0.7555 -3.2528
 6048SOL    HW225195   9.398   3.840   6.202  1.0649 -2.4784  0.8255
 6049SOL     OW25196  11.879   2.977   3.344 -0.2908 -0.1798 -0.2663
 6049SOL    HW125197  11.864   2.967   3.438 -0.1931  0.1536 -0.2129
 6049SOL    HW225198  11.915   3.065   3.335  0.9960 -0.7001 -0.4623
 6050SOL     OW25199   8.714  10.707   9.869  0.3518 -0.1932 -0.0588
 6050SOL    HW125200   8.800  10.747   9.886 -0.9133  2.2858  1.1631
 6050SOL    HW225201   8.652  10.771   9.904 -1.9693 -2.4547  0.1862
 6051SOL     OW25202   5.714  10.253   5.628  0.4602 -0.1581  0.0876
 6051SOL    HW125203   5.790  10.269   5.685  1.2992 -0.6372 -0.8705
 6051SOL    HW225204   5.701  10.159   5.631 -0.1308 -0.0744  0.2679
 6052SOL     OW25205  12.146  10.496   7.841  0.2671  0.2310 -0.3613
 6052SOL    HW125206  12.181  10.408   7.856 -1.3349 -0.5655 -1.0308
 6052SOL    HW225207  12.137  10.534   7.928  1.5133 -0.0334 -0.0998
 6053SOL     OW25208   2.205   6.209   2.264  0.1535  0.2458  0.1698
 6053SOL    HW125209   2.260   6.218   2.187 -0.9762 -0.8459 -0.7972
 6053SOL    HW225210   2.205   6.296   2.304  0.9358  0.7678 -0.9260
 6054SOL     OW25211   3.766  11.538   8.553  0.0847  0.0977 -0.4201
 6054SOL    HW125212   3.702  11.476   8.518  0.6263 -1.6969  1.5168
 6054SOL    HW225213   3.823  11.558   8.479  2.0928 -4.6570 -0.5654
 6055SOL     OW25214  11.786   8.630   9.267 -0.1712  0.3580 -0.0955
 6055SOL    HW125215  11.826   8.543   9.268  0.4274  0.6271 -0.5487
 6055SOL    HW225216  11.721   8.626   9.197  0.6626  0.6318 -0.8951
 6056SOL     OW25217   5.404   9.124   5.440  0.2943  0.2540  0.0518
 6056SOL    HW125218   5.387   9.193   5.504  1.3916 -0.5174  1.2388
 6056SOL    HW225219   5.361   9.046   5.477  1.8419 -0.4575  0.4581
 6057SOL     OW25220   8.231  12.119   8.932 -0.2114 -0.1470  0.5506
 6057SOL    HW125221   8.260  12.119   9.023 -1.1780 -0.6598  0.8716
 6057SOL    HW225222   8.188  12.203   8.920  1.6961  0.8175 -0.0590
 6058SOL     OW25223  11.922  10.434  10.358  0.2023 -0.1359  0.2896
 6058SOL    HW125224  11.913  10.421  10.264 -0.0801 -0.6761  0.3882
 6058SOL    HW225225  11.862  10.371  10.397  0.7060 -0.2823  0.8437
 6059SOL     OW25226  10.854  10.274   9.791 -0.3586  0.0866 -0.2373
 6059SOL    HW125227  10.903  10.356   9.793 -1.1494  0.5918 -0.8197
 6059SOL    HW225228  10.827  10.264   9.699  0.8555 -1.5165 -0.4646
 6060SOL     OW25229   6.270  11.193   0.401 -0.5286  1.1289 -0.2184
 6060SOL    HW125230   6.213  11.191   0.478  0.6941 -0.9749  0.7315
 6060SOL    HW225231   6.355  11.164   0.434  0.6505  2.4776 -1.9371
 6061SOL     OW25232   8.609   6.366  10.740 -0.2668 -0.1034  0.5677
 6061SOL    HW125233   8.670   6.420  10.689 -1.7402  1.1419  0.0755
 6061SOL    HW225234   8.618   6.398  10.829 -1.9487  1.8426  0.1114
 6062SOL     OW25235  10.457   9.409   5.208  0.1979  0.2170  0.1094
 6062SOL    HW125236  10.385   9.395   5.270  1.0268  2.0011  1.5666
 6062SOL    HW225237  10.490   9.321   5.191 -0.6797 -0.4239  1.4506
 6063SOL     OW25238   1.042  11.674   0.224  0.2856  0.1196  0.1959
 6063SOL    HW125239   0.988  11.620   0.166  0.8862 -0.5160  0.2139
 6063SOL    HW225240   0.980  11.719   0.281 -0.2402 -0.2666 -0.0691
 6064SOL     OW25241   2.866   9.269   2.084  0.0173 -1.0325  0.2727
 6064SOL    HW125242   2.832   9.327   2.153  0.5774  0.1054 -0.3769
 6064SOL    HW225243   2.790   9.248   2.030  0.2426  1.6181 -1.2665
 6065SOL     OW25244   0.658   8.540   6.773  0.5881  0.4913 -0.0099
 6065SOL    HW125245   0.689   8.465   6.824 -1.8500 -1.0287 -0.6056
 6065SOL    HW225246   0.723   8.550   6.703  0.8693 -1.1982 -0.0283
 6066SOL     OW25247   5.656  12.300  11.288 -0.2615  0.0283 -0.1223
 6066SOL    HW125248   5.697  12.328  11.206 -0.3125  1.1783  0.2230
 6066SOL    HW225249   5.729  12.291  11.349 -0.2848 -0.2101 -0.1306
 6067SOL     OW25250   5.373   7.746  11.970  0.1985  0.6625 -0.0828
 6067SOL    HW125251   5.384   7.833  11.931  0.4391  1.0155  0.7486
 6067SOL    HW225252   5.460   7.724  12.003  0.2341 -0.0794 -0.6525
 6068SOL     OW25253   5.539   0.809  11.466  0.4409 -0.0860  0.3562
 6068SOL    HW125254   5.612   0.748  11.454  0.9113  0.2187  1.5233
 6068SOL    HW225255   5.500   0.784  11.550 -1.0729 -0.5033 -0.4296
 6069SOL     OW25256  11.046   2.881   0.601 -0.0823 -0.5872  0.0971
 6069SOL    HW125257  11.064   2.800   0.552  0.3401 -0.1583 -0.4677
 6069SOL    HW225258  10.961   2.911   0.568 -1.5652 -2.1799  2.1870
 6070SOL     OW25259   3.426   7.757   7.079  0.1028  0.6261 -0.0624
 6070SOL    HW125260   3.440   7.773   7.172  2.0044  1.8908 -0.5105
 6070SOL    HW225261   3.366   7.826   7.052  0.9646  1.3644 -0.1184
 6071SOL     OW25262   3.029  12.487   7.270  0.2797 -0.0243  0.1184
 6071SOL    HW125263   3.083  12.430   7.324 -0.7565 -1.0367  0.1078
 6071SOL    HW225264   3.077  12.570   7.268  2.1505 -1.0555 -0.3915
 6072SOL     OW25265   0.826   6.807   0.326 -0.4050  0.5468 -0.3379
 6072SOL    HW125266   0.890   6.878   0.329  1.2984 -0.9470  1.6116
 6072SOL    HW225267   0.874   6.732   0.292 -1.0793 -0.5918  1.1023
 6073SOL     OW25268   3.677   3.084   5.221  0.0698  0.0178 -0.1550
 6073SOL    HW125269   3.745   3.150   5.233  0.8504 -0.7499 -0.3461
 6073SOL    HW225270   3.625   3.088   5.302  1.8306 -1.1011  1.0882
 6074SOL     OW25271   9.445   3.638   7.032 -0.2131  0.1530 -0.2580
 6074SOL    HW125272   9.397   3.642   6.950 -1.4606  0.0409  0.4391
 6074SOL    HW225273   9.499   3.718   7.032  1.7661 -1.0608 -2.2906
 6075SOL     OW25274   9.799   6.926   1.125 -0.0197 -0.0628 -0.0166
 6075SOL    HW125275   9.806   6.887   1.038  0.6148  0.2814 -0.1268
 6075SOL    HW225276   9.838   7.012   1.116  0.9697 -0.4005  0.8438
 6076SOL     OW25277   2.785   2.667  10.048  0.2018  0.0239  0.0136
 6076SOL    HW125278   2.841   2.691  10.122  0.2086  0.6113 -0.1785
 6076SOL    HW225279   2.702   2.710  10.066 -1.4777 -3.6580  2.1269
 6077SOL     OW25280   6.889   1.173   5.425 -0.2878 -0.7664 -0.0657
 6077SOL    HW125281   6.825   1.188   5.355 -1.0051 -0.8510  0.5711
 6077SOL    HW225282   6.867   1.086   5.459  0.9419 -1.3360 -0.6511
 6078SOL     OW25283  11.037   8.901   1.016 -0.2662 -0.0734  0.0040
 6078SOL    HW125284  11.047   8.978   1.072  0.6152  0.0499 -0.3126
 6078SOL    HW225285  10.942   8.884   1.016 -0.5105  1.1537 -0.1084
 6079SOL     OW25286  10.608   2.210   5.278  0.1831 -0.1424 -1.0551
 6079SOL    HW125287  10.557   2.251   5.209  0.5445  1.5452 -0.3673
 6079SOL    HW225288  10.648   2.134   5.237 -1.5818 -0.6170 -2.0260
 6080SOL     OW25289  11.295   6.597   8.477 -0.2258  0.3018  0.3659
 6080SOL    HW125290  11.390   6.584   8.477 -0.0715  0.9230  2.6621
 6080SOL    HW225291  11.262   6.527   8.534 -0.9976  0.8390  0.5943
 6081SOL     OW25292  11.532   1.105   1.214  0.3994 -0.1911  0.0141
 6081SOL    HW125293  11.479   1.028   1.233 -1.2132  0.7044 -0.7120
 6081SOL    HW225294  11.544   1.103   1.119  1.4189 -0.2059  0.1318
 6082SOL     OW25295  11.937   2.418   0.310  0.2526  0.0829  0.0779
 6082SOL    HW125296  11.915   2.389   0.222 -1.6665  0.3774  0.4214
 6082SOL    HW225297  12.013   2.476   0.298  0.8344 -0.9066 -1.1973
 6083SOL     OW25298   7.495   8.056   7.543  0.0354  0.3084 -0.0513
 6083SOL    HW125299   7.511   8.047   7.449  1.5228  0.0725  0.2016
 6083SOL    HW225300   7.463   8.145   7.554 -0.0557  0.3662 -0.7655
 6084SOL     OW25301   9.275   1.249   2.738 -0.6162  0.2873  0.2032
 6084SOL    HW125302   9.322   1.166   2.746 -0.9275  0.0647 -0.2632
 6084SOL    HW225303   9.339   1.310   2.702 -0.4668  0.1791  0.2834
 6085SOL     OW25304   1.404   9.918   8.520  0.2638  0.0730  0.2250
 6085SOL    HW125305   1.425   9.862   8.594 -0.3826 -1.6982 -0.8571
 6085SOL    HW225306   1.479   9.910   8.461 -0.3857 -0.7736 -0.5282
 6086SOL     OW25307   6.715   9.113  10.855  0.0929 -0.4353  0.0739
 6086SOL    HW125308   6.665   9.112  10.773 -0.7155 -0.1182  0.5435
 6086SOL    HW225309   6.731   9.021  10.875 -1.0933 -0.6035  0.3565
 6087SOL     OW25310   9.324   7.221  12.540  0.5728  0.0056 -0.4103
 6087SOL    HW125311   9.381   7.282  12.588 -0.4769 -0.4577  1.5475
 6087SOL    HW225312   9.290   7.272  12.467 -0.2914  1.8455  1.1755
 6088SOL     OW25313   3.505   7.172  12.531  0.1470 -0.1014  0.0150
 6088SOL    HW125314   3.587   7.217  12.553  0.8914 -2.0252  1.5429
 6088SOL    HW225315   3.519   7.082  12.562 -2.4709 -0.5516  0.1104
 6089SOL     OW25316   3.307   9.871   4.371 -0.3724 -0.4576 -0.6644
 6089SOL    HW125317   3.351   9.856   4.287 -0.7800  0.5115 -1.0747
 6089SOL    HW225318   3.349   9.950   4.406 -0.5450 -0.5720 -0.1934
 6090SOL     OW25319   3.421  11.082   1.830  0.1185  0.2394 -0.0661
 6090SOL    HW125320   3.373  11.063   1.910  0.6178 -1.8890 -0.2152
 6090SOL    HW225321   3.464  10.999   1.807  2.4942  1.5886 -0.8449
 6091SOL     OW25322   9.153   0.762  10.923  0.4648 -0.0707 -0.3794
 6091SOL    HW125323   9.220   0.827  10.902 -0.3450  0.4834 -1.3369
 6091SOL    HW225324   9.146   0.709  10.843 -2.2999  1.7410 -1.5299
 6092SOL     OW25325   4.797   4.451   8.694  0.1386 -0.6130 -0.1366
 6092SOL    HW125326   4.787   4.356   8.684 -1.0006 -0.6270  0.9537
 6092SOL    HW225327   4.717   4.488   8.656  0.6489 -0.0584 -0.7093
 6093SOL     OW25328   3.478   8.719   9.303  0.7025 -0.3135 -0.6711
 6093SOL    HW125329   3.519   8.806   9.303 -0.5056  0.2890 -0.0175
 6093SOL    HW225330   3.431   8.715   9.387 -0.4780 -0.9872 -1.3382
 6094SOL     OW25331   8.396   9.902   9.666  0.1557  0.0401 -0.3158
 6094SOL    HW125332   8.412   9.810   9.687  2.4942 -0.0092 -1.9561
 6094SOL    HW225333   8.483   9.939   9.653 -0.8289  1.8186 -2.4345
 6095SOL     OW25334   2.552   1.712   5.249  0.9178 -0.3427 -0.5793
 6095SOL    HW125335   2.542   1.804   5.274 -1.0750 -0.2280 -1.6045
 6095SOL    HW225336   2.491   1.665   5.307  1.1982 -0.8965 -0.7309
 6096SOL     OW25337   9.918   9.618   8.321  0.2071  0.3669  0.8029
 6096SOL    HW125338   9.924   9.532   8.280 -0.2350  0.0758  1.3254
 6096SOL    HW225339  10.003   9.659   8.304 -0.4997  0.9400 -1.8406
 6097SOL     OW25340  10.615   9.974  10.622 -0.3869 -0.0807 -0.7827
 6097SOL    HW125341  10.587  10.016  10.541 -2.4535  0.0199 -0.0779
 6097SOL    HW225342  10.590  10.035  10.692 -1.9414 -1.6781  0.1408
 6098SOL     OW25343   5.761   6.426   7.481  0.5341 -0.1437  0.2076
 6098SOL    HW125344   5.801   6.370   7.415 -0.5147 -1.7088  0.8500
 6098SOL    HW225345   5.716   6.494   7.431  0.4508 -0.8193 -0.6508
 6099SOL     OW25346   3.718  11.659   6.157  0.0614 -0.0101  0.4297
 6099SOL    HW125347   3.623  11.665   6.168 -0.3861  0.2496 -2.7899
 6099SOL    HW225348   3.742  11.738   6.108  1.3719 -1.6477 -1.7387
 6100SOL     OW25349   7.309   4.511   4.160 -0.1927 -0.1958 -0.0898
 6100SOL    HW125350   7.234   4.501   4.101 -1.7130 -0.0447  1.7184
 6100SOL    HW225351   7.270   4.518   4.247  1.9942 -1.2550  1.0513
 6101SOL     OW25352   8.591   4.101   6.406 -0.4469 -0.0265 -0.3575
 6101SOL    HW125353   8.554   4.028   6.457 -1.5427 -0.7137 -2.0468
 6101SOL    HW225354   8.516   4.140   6.362  0.4876  0.3076 -1.7135
 6102SOL     OW25355   7.524   6.603   8.004  0.2337 -0.2989 -0.5103
 6102SOL    HW125356   7.465   6.674   7.978 -0.1482 -0.6099 -0.4984
 6102SOL    HW225357   7.532   6.548   7.926  0.7025 -0.1268 -0.5866
 6103SOL     OW25358   0.534   3.758   8.125  0.3383 -0.2856 -0.4426
 6103SOL    HW125359   0.605   3.694   8.119  0.2500 -0.5935  1.1757
 6103SOL    HW225360   0.560   3.816   8.196 -0.6290  0.0999 -0.3875
 6104SOL     OW25361   9.471   9.455   4.916 -0.3713  0.6344  0.4463
 6104SOL    HW125362   9.549   9.401   4.929 -0.1312  0.5603 -1.1380
 6104SOL    HW225363   9.398   9.397   4.939 -0.0519  0.0289 -0.0329
 6105SOL     OW25364   0.311   9.467   5.016  0.4574  0.2272  0.0874
 6105SOL    HW125365   0.298   9.438   5.106 -2.9666  1.2453  0.0560
 6105SOL    HW225366   0.303   9.388   4.963 -0.6734  0.0542  0.5037
 6106SOL     OW25367   7.672   5.460   8.425  0.1863  0.3983  0.4584
 6106SOL    HW125368   7.582   5.446   8.455  0.9824  1.0258  3.4387
 6106SOL    HW225369   7.678   5.554   8.411  0.5028  0.4020  0.6300
 6107SOL     OW25370   3.511   5.115   8.285  0.2072  0.0726  0.0973
 6107SOL    HW125371   3.512   5.210   8.296  0.0799  0.1915 -0.8556
 6107SOL    HW225372   3.482   5.081   8.370 -1.2425  0.9598 -0.0175
 6108SOL     OW25373   0.311   9.787   0.705  0.1917 -0.1771 -0.0879
 6108SOL    HW125374   0.234   9.843   0.718  0.4294 -0.3783  2.9157
 6108SOL    HW225375   0.310   9.766   0.611 -2.2830  1.3942 -0.5129
 6109SOL     OW25376   6.724   4.321  12.486 -0.2069 -0.4343  0.1299
 6109SOL    HW125377   6.659   4.253  12.469 -0.7228  0.4654 -1.8832
 6109SOL    HW225378   6.672   4.397  12.515  0.2326 -0.5052  1.1340
 6110SOL     OW25379  11.325  10.346   7.196  0.3119 -0.0447  0.1066
 6110SOL    HW125380  11.384  10.271   7.198  0.3731 -0.1664 -2.3783
 6110SOL    HW225381  11.247  10.314   7.149 -0.4519  0.9266  0.6646
 6111SOL     OW25382   3.998   1.348   1.626 -0.5922 -0.4416  0.4439
 6111SOL    HW125383   4.066   1.297   1.582 -1.7007  1.0417 -3.4156
 6111SOL    HW225384   4.042   1.430   1.650 -0.1916 -0.8961  1.2848
 6112SOL     OW25385   1.069   8.326   8.790  0.2851 -0.2416 -0.2012
 6112SOL    HW125386   1.104   8.403   8.746 -0.8243  0.2593 -0.2565
 6112SOL    HW225387   1.029   8.274   8.720  0.4312 -0.5342 -0.0695
 6113SOL     OW25388   6.578   1.170   3.233 -0.2987  0.8706  0.0715
 6113SOL    HW125389   6.580   1.085   3.276  0.3775  0.7370 -0.2088
 6113SOL    HW225390   6.509   1.163   3.167 -0.3521  0.5905  0.1569
 6114SOL     OW25391   0.761   8.315   0.810 -0.4634  0.5983  0.1318
 6114SOL    HW125392   0.794   8.368   0.883 -0.2199  0.4815  0.1061
 6114SOL    HW225393   0.831   8.317   0.745 -0.8695  1.0889 -0.2950
 6115SOL     OW25394   4.903   7.437   3.682 -0.7254  0.0837  0.2061
 6115SOL    HW125395   4.846   7.428   3.605  0.8753  0.7671 -1.1363
 6115SOL    HW225396   4.992   7.432   3.647  0.0652 -0.2090  2.1237
 6116SOL     OW25397  11.584   6.652   8.498  0.0946 -0.0433 -0.2842
 6116SOL    HW125398  11.639   6.727   8.523 -1.3887  1.1589 -0.4461
 6116SOL    HW225399  11.638   6.575   8.516  0.6235  0.9047  2.7278
 6117SOL     OW25400   9.218   4.436   5.432 -0.0822 -0.1624 -0.0056
 6117SOL    HW125401   9.174   4.369   5.485 -1.4419  0.4661 -0.2831
 6117SOL    HW225402   9.163   4.514   5.442  0.6447  0.4828 -0.8851
 6118SOL     OW25403  10.719   7.130   7.076 -0.3508  0.4639  0.6177
 6118SOL    HW125404  10.758   7.209   7.113  0.9313  0.9172 -1.5065
 6118SOL    HW225405  10.674   7.160   6.997  0.7683 -0.9689 -0.6449
 6119SOL     OW25406   6.261   2.824   8.933 -0.2934 -0.4065  0.2877
 6119SOL    HW125407   6.170   2.803   8.951 -0.4307 -1.7029 -1.5290
 6119SOL    HW225408   6.273   2.799   8.841  1.1117  2.5328 -0.4533
 6120SOL     OW25409   0.736   1.573   8.406 -0.3182 -0.1718  0.1011
 6120SOL    HW125410   0.737   1.597   8.499  1.9138  0.7431 -0.1055
 6120SOL    HW225411   0.791   1.638   8.364 -2.3249  0.2246 -2.1435
 6121SOL     OW25412  10.364   7.101   1.318 -0.2040  0.3383  0.2121
 6121SOL    HW125413  10.354   7.142   1.404 -0.6333 -1.3947  1.0297
 6121SOL    HW225414  10.280   7.115   1.275 -0.5058 -0.0543  0.6622
 6122SOL     OW25415   7.337   6.259   5.294  0.4295 -0.5875  0.2939
 6122SOL    HW125416   7.367   6.203   5.223  0.4256  0.0756 -0.2450
 6122SOL    HW225417   7.417   6.293   5.333  0.4502  1.1281 -1.1009
 6123SOL     OW25418   4.981   0.206   9.314  0.4352  0.5276  0.3102
 6123SOL    HW125419   4.886   0.211   9.323  0.3619  1.0570 -0.5525
 6123SOL    HW225420   5.006   0.130   9.365 -0.5103  0.1071  0.1810
 6124SOL     OW25421  11.243   3.246   9.889 -0.1107  0.0060  0.0161
 6124SOL    HW125422  11.310   3.313   9.903 -0.5458  0.2809  0.8817
 6124SOL    HW225423  11.289   3.163   9.900 -0.0195  0.1995  1.2621
 6125SOL     OW25424   6.930   7.425   3.130 -0.0596 -0.4523  0.9737
 6125SOL    HW125425   6.970   7.510   3.144 -0.8668  0.1276 -0.0624
 6125SOL    HW225426   6.911   7.392   3.218  2.0801 -0.4954  1.4738
 6126SOL     OW25427   9.153   9.160  10.494 -0.4126 -0.3021  0.1615
 6126SOL    HW125428   9.171   9.252  10.513  1.7674 -0.9670  1.7710
 6126SOL    HW225429   9.214   9.112  10.551 -0.7011 -2.7181 -1.4329
 6127SOL     OW25430   1.489   8.132   5.100  0.7239  0.0871  0.1605
 6127SOL    HW125431   1.473   8.056   5.043  1.9142 -0.9711  1.1782
 6127SOL    HW225432   1.583   8.129   5.119  0.2640 -0.0923  2.8193
 6128SOL     OW25433  10.422   1.860  10.347  0.1026  0.2090 -0.0629
 6128SOL    HW125434  10.443   1.932  10.288  0.1453  1.5455  1.5017
 6128SOL    HW225435  10.502   1.807  10.351 -0.2625 -0.5976 -2.0435
 6129SOL     OW25436   2.962   8.934   1.247 -0.3273  0.2658  0.2905
 6129SOL    HW125437   3.030   8.964   1.307  0.6312 -2.1605  0.4880
 6129SOL    HW225438   2.880   8.943   1.296  0.0623  1.2443  0.7864
 6130SOL     OW25439   7.201   0.637   7.484 -0.3097 -0.5401  0.5876
 6130SOL    HW125440   7.249   0.710   7.524 -0.0291 -0.9124  0.9416
 6130SOL    HW225441   7.225   0.561   7.537  0.4030 -1.1365 -0.5534
 6131SOL     OW25442   7.477   9.898  11.424  0.5381  0.0008 -0.4601
 6131SOL    HW125443   7.552   9.844  11.449  0.8579  0.4119 -0.5310
 6131SOL    HW225444   7.497   9.929  11.336  1.2236  1.7208  0.2537
 6132SOL     OW25445   3.067  12.016   8.268 -0.0847  0.3063  0.1878
 6132SOL    HW125446   2.991  11.961   8.247  0.5637 -1.6244  2.4627
 6132SOL    HW225447   3.140  11.955   8.271  1.1029  1.6992  0.6310
 6133SOL     OW25448  12.327   3.825   8.807 -0.4801  0.6968  0.4889
 6133SOL    HW125449  12.266   3.811   8.735 -2.0451 -0.2394  1.9397
 6133SOL    HW225450  12.379   3.745   8.812  1.3533  1.6974 -1.0935
 6134SOL     OW25451   7.634   2.457   9.443 -0.8941 -0.4680 -0.2531
 6134SOL    HW125452   7.667   2.467   9.354 -0.4953 -0.2386 -0.0782
 6134SOL    HW225453   7.603   2.544   9.467  1.5128  0.1676  0.8394
 6135SOL     OW25454   2.080   0.672  11.237  0.0544  1.0748  0.2002
 6135SOL    HW125455   2.123   0.718  11.309 -1.1273 -0.4124  1.9526
 6135SOL    HW225456   2.037   0.741  11.186 -0.2394  2.0626  1.7288
 6136SOL     OW25457   2.216   6.585   4.487  0.1103  0.2441 -0.0185
 6136SOL    HW125458   2.231   6.661   4.542  0.3951 -0.3442  0.7446
 6136SOL    HW225459   2.133   6.603   4.442 -1.5103 -0.3337  2.5288
 6137SOL     OW25460   7.550   0.714   6.074 -0.6341  0.2423 -0.2243
 6137SOL    HW125461   7.599   0.676   6.146 -1.1714 -0.0160  0.0144
 6137SOL    HW225462   7.461   0.681   6.085 -0.8140  0.5157 -0.7777
 6138SOL     OW25463   1.552   2.561  10.669 -0.0514  0.7154 -0.3776
 6138SOL    HW125464   1.486   2.493  10.681  1.3770 -0.6002  0.3254
 6138SOL    HW225465   1.563   2.566  10.574  1.7469 -2.0467 -0.4271
 6139SOL     OW25466   1.362   5.332   4.639 -0.4285  0.0317  0.6692
 6139SOL    HW125467   1.268   5.328   4.626 -0.3635 -0.1871  0.2623
 6139SOL    HW225468   1.373   5.371   4.726 -0.9084 -0.6871  1.0635
 6140SOL     OW25469   9.176   8.054   0.937 -0.4489 -0.1071  0.2254
 6140SOL    HW125470   9.153   7.978   0.884 -0.1358 -0.1167  0.1018
 6140SOL    HW225471   9.140   8.129   0.889 -1.2136 -0.2168  0.6125
 6141SOL     OW25472   4.919   1.168  11.007  0.4943  0.3271 -0.1836
 6141SOL    HW125473   4.879   1.203  10.927 -3.6816 -1.1856  1.0196
 6141SOL    HW225474   4.948   1.246  11.055 -0.7174  1.5497 -1.3490
 6142SOL     OW25475   2.208   2.081   2.883  0.0051  0.0213 -0.7569
 6142SOL    HW125476   2.133   2.081   2.823 -1.3400  0.0687  0.8808
 6142SOL    HW225477   2.257   2.160   2.860 -1.2136  0.7513 -0.9341
 6143SOL     OW25478   7.023   3.180   6.265 -0.5837 -0.7183 -0.4367
 6143SOL    HW125479   7.050   3.244   6.199  0.0307 -0.5471 -0.0282
 6143SOL    HW225480   6.932   3.160   6.244 -0.9416  0.6809 -0.2547
 6144SOL     OW25481   9.591   9.595   9.324  0.4288  0.4792  0.0737
 6144SOL    HW125482   9.533   9.567   9.253 -0.9621 -0.0374  1.3522
 6144SOL    HW225483   9.655   9.653   9.282 -1.3069  1.4692 -1.3113
 6145SOL     OW25484   7.678   9.023   9.480 -0.2944  0.7854  0.0331
 6145SOL    HW125485   7.665   9.043   9.388  0.3481 -0.6241 -0.3855
 6145SOL    HW225486   7.607   9.068   9.525 -2.2126 -0.6584 -1.4167
 6146SOL     OW25487   4.131  10.457   5.544 -0.3977  0.0938  0.1737
 6146SOL    HW125488   4.107  10.370   5.576 -1.6046  0.5630  0.6104
 6146SOL    HW225489   4.055  10.484   5.493  0.5619  0.3074 -1.2019
 6147SOL     OW25490   9.154   5.579   2.075  0.6573  0.5238 -0.0567
 6147SOL    HW125491   9.162   5.649   2.010 -2.5747  2.3247  1.2843
 6147SOL    HW225492   9.184   5.619   2.157  1.4225 -0.6141  0.2421
 6148SOL     OW25493   9.921   9.184   0.281  0.3674 -0.0944  0.1708
 6148SOL    HW125494   9.902   9.233   0.361  0.0109 -0.2619  0.1924
 6148SOL    HW225495   9.893   9.094   0.300 -2.9242  0.4794 -1.2316
 6149SOL     OW25496   9.118   8.878   1.868 -0.2223  0.1179 -0.0985
 6149SOL    HW125497   9.167   8.796   1.861  1.5897  1.1122  0.3556
 6149SOL    HW225498   9.070   8.884   1.785  2.4832  0.3408 -1.7383
 6150SOL     OW25499   2.695   0.476   7.621  0.2742 -0.3485  0.0132
 6150SOL    HW125500   2.611   0.468   7.575  0.3455 -0.9827 -0.0180
 6150SOL    HW225501   2.761   0.469   7.552  0.3419  1.6208 -0.1576
 6151SOL     OW25502   8.646   2.408  11.720  0.0664  0.2022 -0.2397
 6151SOL    HW125503   8.721   2.360  11.753 -0.7896 -0.8814  0.2103
 6151SOL    HW225504   8.645   2.391  11.626 -0.5792 -1.2265 -0.0032
 6152SOL     OW25505   0.570  11.098   1.165  0.3199 -0.5969  0.5274
 6152SOL    HW125506   0.477  11.087   1.182 -0.2223  0.7725 -1.2106
 6152SOL    HW225507   0.594  11.178   1.213  0.2080 -0.1091 -0.2002
 6153SOL     OW25508   2.403  10.627   2.284  0.1503  0.1985 -0.0818
 6153SOL    HW125509   2.433  10.614   2.374  1.2934 -3.1391 -0.7793
 6153SOL    HW225510   2.436  10.714   2.260 -2.3763  2.3662  3.3872
 6154SOL     OW25511   1.335   6.870   0.625 -0.4786  0.5215 -0.1113
 6154SOL    HW125512   1.421   6.893   0.660 -0.4283  1.2794 -0.7357
 6154SOL    HW225513   1.341   6.775   0.609  0.4188  0.6588 -0.6535
 6155SOL     OW25514   9.651   6.497  11.953 -0.1427 -0.0718 -0.3577
 6155SOL    HW125515   9.605   6.560  12.009 -1.0392 -1.6832  0.7861
 6155SOL    HW225516   9.652   6.539  11.867  0.2018  1.9503  0.5528
 6156SOL     OW25517   7.256  10.860   7.032 -0.5007  0.1107 -0.4659
 6156SOL    HW125518   7.212  10.920   6.973 -0.9869  1.1881  0.9432
 6156SOL    HW225519   7.308  10.916   7.090 -0.2414 -0.8857  0.2962
 6157SOL     OW25520   1.866   5.759   1.136  0.6918  0.2015 -0.0429
 6157SOL    HW125521   1.818   5.795   1.062 -0.2545  0.2196  0.5689
 6157SOL    HW225522   1.808   5.770   1.211  2.0238  1.0710  0.8990
 6158SOL     OW25523   1.457   2.584   1.750  0.3690  0.0004  0.3369
 6158SOL    HW125524   1.398   2.560   1.678  0.2584 -0.9157  0.7212
 6158SOL    HW225525   1.400   2.627   1.814  0.1215 -0.8010  0.6679
 6159SOL     OW25526   3.631   0.128   3.753 -0.4452 -0.3728  0.2095
 6159SOL    HW125527   3.622   0.056   3.691  1.4936 -0.8018  0.3594
 6159SOL    HW225528   3.587   0.201   3.711 -0.3267 -1.0074 -1.0705
 6160SOL     OW25529   9.440   4.880   2.363 -0.2254  0.3959  0.2434
 6160SOL    HW125530   9.397   4.886   2.278  1.0246 -0.0832 -0.4485
 6160SOL    HW225531   9.388   4.816   2.412  0.0502 -0.6838 -0.8164
 6161SOL     OW25532   9.419   8.420   8.751  0.3427  0.0213 -0.1459
 6161SOL    HW125533   9.353   8.366   8.709 -1.0086 -1.3876  3.4560
 6161SOL    HW225534   9.375   8.458   8.827  2.6769  2.1232  0.3019
 6162SOL     OW25535   2.193   9.360   3.124 -0.0883  0.6795 -0.1735
 6162SOL    HW125536   2.196   9.306   3.045  0.3270  0.1932  0.1631
 6162SOL    HW225537   2.139   9.435   3.100  0.1269  0.5971 -0.9535
 6163SOL     OW25538   7.863  10.046  11.137  0.0063 -0.3242 -0.0561
 6163SOL    HW125539   7.853  10.005  11.050  0.6712  0.7526 -0.6602
 6163SOL    HW225540   7.773  10.058  11.168 -0.2868  0.1983 -1.0515
 6164SOL     OW25541   2.303   7.160   8.142  0.0464 -0.2572  0.0683
 6164SOL    HW125542   2.208   7.152   8.131 -0.1705  1.0702  0.8102
 6164SOL    HW225543   2.340   7.126   8.060 -1.0964 -0.0427 -0.5520
 6165SOL     OW25544   0.027   7.133  11.482 -0.1546 -0.2378  0.0795
 6165SOL    HW125545  -0.059   7.150  11.522 -0.2192  0.7515 -0.4275
 6165SOL    HW225546   0.047   7.214  11.435  0.1369 -1.1915 -1.4994
 6166SOL     OW25547  12.294   1.164   2.651  0.3998 -0.0650  0.1189
 6166SOL    HW125548  12.266   1.110   2.576  0.8561  0.2104 -0.2506
 6166SOL    HW225549  12.367   1.115   2.690  0.9259  0.3660 -0.3195
 6167SOL     OW25550   3.780   6.362   1.490 -0.6027  0.4318  0.1535
 6167SOL    HW125551   3.874   6.345   1.489 -0.7997 -0.7120 -0.7602
 6167SOL    HW225552   3.771   6.448   1.449  0.1651  1.4823  2.0235
 6168SOL     OW25553   3.492   4.438  12.125  0.0273  0.4812 -0.3818
 6168SOL    HW125554   3.551   4.481  12.186  0.6212 -1.6307  0.5982
 6168SOL    HW225555   3.452   4.367  12.175 -1.4790  0.3282 -1.7188
 6169SOL     OW25556   4.730   6.431   1.567 -0.0872  0.0858  0.2372
 6169SOL    HW125557   4.673   6.354   1.569 -2.2174  1.5101 -1.3610
 6169SOL    HW225558   4.744   6.447   1.473  1.0676  1.1267  0.5656
 6170SOL     OW25559  10.145  10.855   0.473  0.0056  0.5037 -0.1358
 6170SOL    HW125560  10.186  10.914   0.536  0.5498  0.1449 -0.1493
 6170SOL    HW225561  10.113  10.913   0.404 -1.4374  1.0088  0.8978
 6171SOL     OW25562  10.003  11.003  10.547 -0.2180  0.2514 -0.6894
 6171SOL    HW125563   9.930  10.942  10.557  1.5630 -1.7130  1.1395
 6171SOL    HW225564  10.077  10.960  10.588  1.4374  3.1988 -0.2704
 6172SOL     OW25565   8.916   9.979  11.707 -0.2696  0.0558  0.5680
 6172SOL    HW125566   8.880   9.915  11.769  0.2077  0.0605  0.8602
 6172SOL    HW225567   8.990  10.017  11.754  1.4576 -1.4430 -0.7614
 6173SOL     OW25568   4.888   1.303  12.139  0.3894 -0.1652  0.1766
 6173SOL    HW125569   4.920   1.298  12.048  1.8011 -2.0334  0.7152
 6173SOL    HW225570   4.887   1.212  12.169 -0.1175  0.4131  2.0279
 6174SOL     OW25571   6.027   8.255   4.816  0.3131  0.0926 -0.1171
 6174SOL    HW125572   5.995   8.315   4.883 -0.8999  1.2659 -1.6510
 6174SOL    HW225573   5.949   8.207   4.787  0.8520 -0.5520 -0.5293
 6175SOL     OW25574   6.689   9.986   2.913  0.1470  0.2623  0.1126
 6175SOL    HW125575   6.773  10.001   2.956  0.9200 -1.8516 -0.5453
 6175SOL    HW225576   6.631   9.956   2.983  0.5954 -0.4444  0.1899
 6176SOL     OW25577  12.387   0.328   1.752  0.3339 -0.0950 -0.8268
 6176SOL    HW125578  12.303   0.316   1.707  0.0040 -0.2677 -0.1871
 6176SOL    HW225579  12.452   0.331   1.682 -0.1988 -0.0427 -1.3286
 6177SOL     OW25580   2.858   4.979   4.868  0.1885 -0.1795  0.1293
 6177SOL    HW125581   2.875   4.942   4.955 -2.4808 -0.5465  0.5770
 6177SOL    HW225582   2.834   5.070   4.884  0.0740 -0.1368 -0.2636
 6178SOL     OW25583   1.760   0.526  11.725 -0.8636 -0.1620  0.1867
 6178SOL    HW125584   1.664   0.523  11.722 -0.9147  0.1446  1.1987
 6178SOL    HW225585   1.781   0.619  11.737 -0.4614 -0.2921  0.5024
 6179SOL     OW25586   3.799   3.236  11.288  0.0439  0.2388 -0.6836
 6179SOL    HW125587   3.835   3.283  11.363 -0.0384 -0.4024 -0.2355
 6179SOL    HW225588   3.832   3.147  11.298  2.0152  0.6444 -2.6903
 6180SOL     OW25589   9.263   6.224  11.930 -0.0550  0.3018  0.4367
 6180SOL    HW125590   9.325   6.151  11.933  0.2035  0.5442  1.4209
 6180SOL    HW225591   9.263   6.252  11.839  0.9322 -0.0065  0.3316
 6181SOL     OW25592   4.057   7.952   2.800 -0.1844  0.2250  0.2031
 6181SOL    HW125593   3.991   7.911   2.744 -1.8607 -0.4595  2.5341
 6181SOL    HW225594   4.140   7.933   2.757 -1.2405 -1.9929 -1.0341
 6182SOL     OW25595  11.634   6.906   3.177 -0.0721 -0.4171 -0.2725
 6182SOL    HW125596  11.623   6.813   3.199 -0.8666 -0.0305  1.0214
 6182SOL    HW225597  11.651   6.949   3.260  1.9406  0.4117 -1.0401
 6183SOL     OW25598  10.758   8.424   1.217 -0.0038  0.0899  0.2134
 6183SOL    HW125599  10.726   8.496   1.271 -0.0068 -0.6699  1.2588
 6183SOL    HW225600  10.691   8.356   1.227  0.0654 -0.1090 -0.6435
 6184SOL     OW25601   4.831  12.589   5.817  0.3740 -0.5308  0.4242
 6184SOL    HW125602   4.769  12.657   5.843  0.3992 -0.1232 -0.5521
 6184SOL    HW225603   4.782  12.507   5.825 -0.7570 -0.1098 -1.6230
 6185SOL     OW25604  10.865   9.820  12.290 -0.2137  0.4019  0.6602
 6185SOL    HW125605  10.955   9.851  12.281  0.9976 -2.9385  0.2350
 6185SOL    HW225606  10.869   9.754  12.359 -1.9977 -1.0085 -0.5185
 6186SOL     OW25607   7.779   7.733   1.749 -0.2529 -0.1698  0.2693
 6186SOL    HW125608   7.732   7.816   1.749  1.1512  0.6682  1.1535
 6186SOL    HW225609   7.798   7.716   1.841  0.9240 -0.6018 -0.0349
 6187SOL     OW25610   0.113  10.415   6.503  0.5408  0.3395 -0.9666
 6187SOL    HW125611   0.089  10.501   6.539  1.8722  0.0019  0.9123
 6187SOL    HW225612   0.189  10.432   6.448  1.3061  0.2924  0.0505
 6188SOL     OW25613   7.945   6.428   0.093  0.6044  0.0019 -0.2449
 6188SOL    HW125614   7.997   6.359   0.051  0.4923 -1.1604  1.4167
 6188SOL    HW225615   7.879   6.451   0.028  2.6428  0.9645 -2.1218
 6189SOL     OW25616   6.996   2.283   3.127  0.1385  0.7540  0.3971
 6189SOL    HW125617   7.026   2.371   3.103 -0.1062  1.2619  1.8477
 6189SOL    HW225618   7.071   2.241   3.167  0.2428  0.2985 -0.2570
 6190SOL     OW25619  10.919   2.707   7.899  0.5218 -0.1936  0.2674
 6190SOL    HW125620  10.957   2.689   7.984 -1.7580 -1.0413  1.1873
 6190SOL    HW225621  10.837   2.753   7.919 -0.0851 -0.4502 -1.4511
 6191SOL     OW25622   4.393   4.185   2.730 -0.2419 -0.1228 -0.3974
 6191SOL    HW125623   4.428   4.267   2.762 -0.5343  0.2764 -1.0798
 6191SOL    HW225624   4.465   4.144   2.683 -0.3373  0.1491 -0.7885
 6192SOL     OW25625   0.701   4.322   2.369  0.8843 -0.2405  0.2547
 6192SOL    HW125626   0.626   4.270   2.340  0.7143  0.1491 -0.0121
 6192SOL    HW225627   0.705   4.395   2.307  0.4040  0.7105  1.3010
 6193SOL     OW25628   7.886   0.567   8.386 -0.3998 -0.0469 -0.0988
 6193SOL    HW125629   7.892   0.482   8.344 -0.1077 -0.2361  0.3155
 6193SOL    HW225630   7.896   0.548   8.479  1.7324  0.6312 -0.1382
 6194SOL     OW25631   6.534   2.365   4.724  0.6403 -0.3863 -0.0992
 6194SOL    HW125632   6.616   2.388   4.768  1.2141  1.4514 -1.9388
 6194SOL    HW225633   6.560   2.348   4.633 -1.0195  0.4562 -0.7707
 6195SOL     OW25634   3.651   8.678   8.418  0.3785 -0.0549 -0.0451
 6195SOL    HW125635   3.625   8.670   8.327 -0.2414  0.2062  0.1052
 6195SOL    HW225636   3.630   8.593   8.457 -0.8177  0.3293  0.2067
 6196SOL     OW25637   3.650  11.340   7.149 -0.3582  0.2759 -0.1188
 6196SOL    HW125638   3.648  11.413   7.212  0.7664  0.0200  0.2336
 6196SOL    HW225639   3.739  11.306   7.155  0.5242  1.6256 -3.4816
 6197SOL     OW25640  11.276   1.008   6.606 -0.2276 -0.1065  0.4834
 6197SOL    HW125641  11.292   1.039   6.517 -0.9353 -0.8584  0.0796
 6197SOL    HW225642  11.327   1.067   6.661 -2.2074  2.4490 -0.1695
 6198SOL     OW25643   1.565   4.899  11.630 -0.1818 -0.3035  0.1372
 6198SOL    HW125644   1.529   4.834  11.570  0.7896 -0.9019  0.1736
 6198SOL    HW225645   1.610   4.962  11.573 -1.3960  0.5476  0.0779
 6199SOL     OW25646   5.571   8.640   0.659  0.1640 -0.1345 -0.1772
 6199SOL    HW125647   5.639   8.625   0.593 -0.3594 -2.9570 -0.1684
 6199SOL    HW225648   5.585   8.572   0.725 -2.6714 -0.8835 -0.2002
 6200SOL     OW25649   2.498   9.000  10.489  0.0731  0.6521 -0.3446
 6200SOL    HW125650   2.489   8.993  10.394 -3.6332  0.4413 -0.1251
 6200SOL    HW225651   2.581   9.046  10.502  2.0007 -1.5751 -3.5148
 6201SOL     OW25652   3.589  10.305  10.601 -0.3252  0.0178  0.0165
 6201SOL    HW125653   3.618  10.319  10.511  1.1082  1.9148  0.7060
 6201SOL    HW225654   3.558  10.214  10.602 -0.4600 -0.0422 -2.3777
 6202SOL     OW25655   3.263   8.716  12.228 -0.3758  0.1092 -0.2691
 6202SOL    HW125656   3.287   8.686  12.140  0.1161  1.6368 -0.6987
 6202SOL    HW225657   3.169   8.731  12.224 -0.4582 -0.4363 -0.3447
 6203SOL     OW25658   8.956   8.148   7.743 -0.4509  0.2986 -0.0666
 6203SOL    HW125659   8.996   8.070   7.703 -1.5754 -0.2640 -0.1332
 6203SOL    HW225660   8.910   8.191   7.671 -1.9725 -0.3877  0.4469
 6204SOL     OW25661  11.959   2.125   6.438  0.1045 -0.1218  0.2656
 6204SOL    HW125662  12.054   2.114   6.436  0.4933  2.4939 -1.5142
 6204SOL    HW225663  11.945   2.211   6.479 -1.0380  1.6530 -3.3782
 6205SOL     OW25664   0.317   8.417   2.846  0.0037  0.1115  0.2709
 6205SOL    HW125665   0.285   8.507   2.842  0.0784  0.2748  2.3194
 6205SOL    HW225666   0.271   8.372   2.776 -2.1197  1.1260  0.9156
 6206SOL     OW25667  10.023   6.977   2.065 -0.2162  0.5161  0.1810
 6206SOL    HW125668  10.044   6.885   2.049  0.0256  1.0039 -2.8398
 6206SOL    HW225669   9.928   6.977   2.081 -0.1374 -0.2869  0.7088
 6207SOL     OW25670   9.955  11.581   6.463 -0.3339  0.0942 -0.1101
 6207SOL    HW125671   9.974  11.629   6.382  0.3415  0.4276  0.2309
 6207SOL    HW225672   9.940  11.491   6.435  0.1155  0.1600 -0.5864
 6208SOL     OW25673   5.265  10.886  11.937  0.3329 -0.0629 -0.1520
 6208SOL    HW125674   5.197  10.845  11.883 -0.4814  1.5766 -0.4440
 6208SOL    HW225675   5.217  10.940  11.999  1.3364 -0.2954  0.8526
 6209SOL     OW25676   5.082   1.181   1.096  0.5036  0.1280  0.1242
 6209SOL    HW125677   5.087   1.231   1.014 -2.7017  1.6694  0.6861
 6209SOL    HW225678   5.152   1.217   1.150  0.2907  1.8375 -0.6352
 6210SOL     OW25679   9.627   7.128  10.140  0.0522 -0.0685 -0.4709
 6210SOL    HW125680   9.533   7.138  10.155 -0.2381 -3.6553  1.1360
 6210SOL    HW225681   9.667   7.193  10.198 -1.3326  1.6923 -1.3626
 6211SOL     OW25682  10.915   6.401  11.081 -0.5078  0.3069  0.2554
 6211SOL    HW125683  10.868   6.353  11.013 -0.3049  1.0404 -0.4071
 6211SOL    HW225684  10.982   6.451  11.034  1.0106 -0.7589  1.1792
 6212SOL     OW25685  10.589   1.361   7.872  0.3616  0.2495 -0.2554
 6212SOL    HW125686  10.553   1.331   7.955  0.1232 -0.4768 -0.6076
 6212SOL    HW225687  10.683   1.369   7.888  0.3679 -0.2420 -0.0138
 6213SOL     OW25688   8.833   1.599   9.374 -0.1767 -0.4071  0.5195
 6213SOL    HW125689   8.783   1.654   9.435 -1.1127 -1.5032  0.7834
 6213SOL    HW225690   8.788   1.609   9.290 -0.4660 -0.9106  0.6126
 6214SOL     OW25691   3.925   9.364  10.409  0.0871 -0.0657  0.3061
 6214SOL    HW125692   3.846   9.392  10.363 -1.9689 -2.1085  2.3408
 6214SOL    HW225693   3.964   9.298  10.352 -0.3376  0.0701 -0.1495
 6215SOL     OW25694   3.325   2.013   8.622  0.3715 -0.0620 -0.2805
 6215SOL    HW125695   3.233   1.987   8.622  0.3736 -0.1686 -2.0574
 6215SOL    HW225696   3.325   2.099   8.664 -1.0076  1.2550 -2.7038
 6216SOL     OW25697   4.017  12.059  10.747  0.1918  0.2133 -0.2780
 6216SOL    HW125698   4.069  11.980  10.762 -1.1216 -0.8263 -0.8826
 6216SOL    HW225699   3.993  12.054  10.654 -1.4480  0.3131  0.0985
 6217SOL     OW25700   1.438  10.064   0.297  0.7557 -0.0989  0.1262
 6217SOL    HW125701   1.369  10.086   0.234  0.3647  1.2956  1.0110
 6217SOL    HW225702   1.466  10.148   0.332  3.7580 -0.4960 -1.0228
 6218SOL     OW25703   3.912  10.632   5.067  0.1839  0.1962  0.0649
 6218SOL    HW125704   3.914  10.556   5.008  1.2076  0.1488  0.1457
 6218SOL    HW225705   3.822  10.634   5.099  0.5931 -2.2633  1.6882
 6219SOL     OW25706   1.943  10.516  10.247  0.2642  0.5246 -0.2827
 6219SOL    HW125707   1.941  10.435  10.197  2.3794 -0.5625  1.2470
 6219SOL    HW225708   2.023  10.560  10.220  0.0013  1.2944  0.1303
 6220SOL     OW25709   9.649  11.298   3.286  0.0354 -0.9101  0.0356
 6220SOL    HW125710   9.586  11.276   3.355  0.3300 -1.6129  0.0861
 6220SOL    HW225711   9.713  11.227   3.288  1.9443  0.7255  1.2791
 6221SOL     OW25712   7.975   0.174   4.328  0.3325 -0.5653 -0.0029
 6221SOL    HW125713   7.914   0.127   4.384 -0.0281 -0.5658 -0.3879
 6221SOL    HW225714   8.004   0.110   4.264 -0.4904 -0.1711 -0.7904
 6222SOL     OW25715  11.325  11.830  11.913 -0.4780 -0.3086  0.4281
 6222SOL    HW125716  11.311  11.845  12.007 -0.0500  0.2916  0.4064
 6222SOL    HW225717  11.409  11.871  11.895 -0.9870  0.4106 -0.4097
 6223SOL     OW25718   8.409   4.517  11.906 -0.1823  0.4187  0.1682
 6223SOL    HW125719   8.362   4.575  11.847  2.0043  0.9311 -1.1897
 6223SOL    HW225720   8.453   4.455  11.849  0.3808 -0.3373  1.3870
 6224SOL     OW25721   1.513   5.289   9.796  0.4125  0.5277 -0.0883
 6224SOL    HW125722   1.574   5.349   9.754  1.5811  0.1586  1.0055
 6224SOL    HW225723   1.569   5.221   9.835 -0.6917  0.1718  0.9497
 6225SOL     OW25724   1.869   9.225   8.286 -0.5916 -0.1450 -0.0003
 6225SOL    HW125725   1.884   9.234   8.192 -0.7227 -0.6947 -0.0771
 6225SOL    HW225726   1.777   9.250   8.298 -0.7504 -0.6588 -0.1100
 6226SOL     OW25727   1.523   8.481  10.383  0.1809 -0.2488 -0.2035
 6226SOL    HW125728   1.518   8.576  10.392  1.0566 -0.2376  0.3053
 6226SOL    HW225729   1.617   8.462  10.379 -0.0094 -0.9219 -2.4677
 6227SOL     OW25730   0.223   3.220  11.422 -0.6874 -0.3685  0.6482
 6227SOL    HW125731   0.168   3.279  11.473 -0.7699 -0.7724  1.0302
 6227SOL    HW225732   0.280   3.278  11.371 -0.7405  0.0345  1.0447
 6228SOL     OW25733   9.075  10.107   1.268 -0.1215 -0.2582  0.5833
 6228SOL    HW125734   9.032  10.183   1.228  3.8210  2.3737  0.8156
 6228SOL    HW225735   9.111  10.058   1.194  0.3290  0.1217  0.5433
 6229SOL     OW25736   0.512   8.967  12.365  0.9448  0.0094  0.2273
 6229SOL    HW125737   0.423   8.958  12.332  1.4894  0.0857 -1.3313
 6229SOL    HW225738   0.506   9.038  12.430 -0.1717 -0.1946  0.3636
 6230SOL     OW25739   6.667   7.904  10.679  0.2730  0.2045 -0.3606
 6230SOL    HW125740   6.642   7.983  10.728 -1.0675  0.2374 -1.0454
 6230SOL    HW225741   6.750   7.927  10.636  1.2409  0.3253  1.4916
 6231SOL     OW25742   1.793   6.332   1.554  0.0092  0.0920  0.5427
 6231SOL    HW125743   1.707   6.333   1.510  0.2517  0.6761  0.0579
 6231SOL    HW225744   1.856   6.322   1.482  0.4994  2.4029  0.5712
 6232SOL     OW25745   3.529  10.392   9.901 -0.3502 -0.3843  0.2004
 6232SOL    HW125746   3.577  10.363   9.823  0.3313 -0.7499  0.7429
 6232SOL    HW225747   3.583  10.363   9.974 -0.9430  0.0282  0.8115
 6233SOL     OW25748   6.706  11.409   4.638 -0.5091  0.1082  0.1216
 6233SOL    HW125749   6.686  11.372   4.552  0.5509  0.8476 -0.4680
 6233SOL    HW225750   6.786  11.365   4.665 -1.2187 -0.6297  1.0693
 6234SOL     OW25751  10.918   8.438   8.306  0.1779  0.1193  0.3064
 6234SOL    HW125752  10.933   8.344   8.293  0.5805  0.3292 -0.8472
 6234SOL    HW225753  10.944   8.454   8.397 -1.2257 -1.1328  0.9626
 6235SOL     OW25754   4.620   4.999  11.985  0.2766 -0.4481  0.1278
 6235SOL    HW125755   4.575   4.918  12.007  4.1367 -2.9552 -0.3568
 6235SOL    HW225756   4.630   4.996  11.889  0.9938  0.2777  0.1650
 6236SOL     OW25757   4.155   7.159   6.547 -0.3503 -0.0728 -0.1028
 6236SOL    HW125758   4.148   7.216   6.624 -1.2075 -2.4572  1.6856
 6236SOL    HW225759   4.241   7.119   6.556  0.3118  0.9823 -1.4402
 6237SOL     OW25760   8.221   3.847  12.347  0.4906  0.0543 -0.4538
 6237SOL    HW125761   8.159   3.920  12.337 -0.6479 -0.7338  0.5918
 6237SOL    HW225762   8.276   3.852  12.268 -0.9306  0.7641 -1.4471
 6238SOL     OW25763   9.854   9.527  10.752  0.0656  0.6693  0.1324
 6238SOL    HW125764   9.882   9.496  10.666 -0.6318  1.5794 -0.4483
 6238SOL    HW225765   9.831   9.447  10.800  0.8044  0.1276 -0.3975
 6239SOL     OW25766   5.612  12.247  12.391  0.0163 -0.1262  0.0329
 6239SOL    HW125767   5.635  12.338  12.369 -1.0318  0.8175  2.4784
 6239SOL    HW225768   5.696  12.200  12.388  1.0140  1.4848  1.0720
 6240SOL     OW25769  11.848   8.029   9.634 -0.5015 -0.1610 -0.2010
 6240SOL    HW125770  11.852   8.084   9.712  0.0538 -0.3333 -0.1044
 6240SOL    HW225771  11.850   7.939   9.667 -0.2954 -0.2351 -0.4091
 6241SOL     OW25772   4.645   5.472  10.472  0.0070 -0.0946 -0.0362
 6241SOL    HW125773   4.555   5.501  10.483  0.0727 -0.2712  1.1113
 6241SOL    HW225774   4.643   5.379  10.494  0.4132 -0.1585 -0.2653
 6242SOL     OW25775  10.443   7.379   6.258 -0.2338 -0.0693  0.0149
 6242SOL    HW125776  10.480   7.301   6.217  0.7758  0.8585 -0.9043
 6242SOL    HW225777  10.507   7.448   6.241 -1.3413  1.0921  0.3489
 6243SOL     OW25778   1.929   7.149   4.243 -0.5649 -0.5840 -0.0048
 6243SOL    HW125779   1.878   7.163   4.163 -0.8383  0.9724  0.4076
 6243SOL    HW225780   2.019   7.134   4.213 -0.6230  0.2333 -0.6049
 6244SOL     OW25781   7.275   8.638  11.642 -0.1477 -0.0091  0.3302
 6244SOL    HW125782   7.265   8.557  11.691  1.2647 -0.3509  0.0735
 6244SOL    HW225783   7.303   8.702  11.708 -0.4823  0.0870  0.3821
 6245SOL     OW25784   7.039  10.110   8.261 -0.4083 -0.1281 -0.2626
 6245SOL    HW125785   7.017  10.098   8.169 -0.0726 -0.1421 -0.3441
 6245SOL    HW225786   7.030  10.204   8.276 -1.6498 -0.2780  0.0079
 6246SOL     OW25787   2.184   1.700   6.318  0.1023 -0.3705  0.3395
 6246SOL    HW125788   2.123   1.665   6.253  0.1056 -1.8907  1.1119
 6246SOL    HW225789   2.266   1.710   6.271 -0.4483  0.7103 -0.4448
 6247SOL     OW25790  10.259   3.577   1.468  0.0219 -0.4489  0.5735
 6247SOL    HW125791  10.262   3.627   1.550 -0.3387  1.8804 -0.7441
 6247SOL    HW225792  10.180   3.607   1.424  0.8635 -0.6637 -1.1932
 6248SOL     OW25793   8.547  11.453   2.029 -0.3108 -0.2312  0.0192
 6248SOL    HW125794   8.580  11.541   2.049 -0.9506  0.0322 -0.0448
 6248SOL    HW225795   8.609  11.394   2.071 -0.9375  0.2810  1.7709
 6249SOL     OW25796   8.407   5.544   5.465 -1.0544 -0.3147  0.3336
 6249SOL    HW125797   8.444   5.568   5.380  0.4763  0.5340  1.2038
 6249SOL    HW225798   8.317   5.577   5.462 -0.7095  0.5802 -0.5960
 6250SOL     OW25799  11.396   8.496   8.088  0.6067  0.1927 -0.1531
 6250SOL    HW125800  11.377   8.576   8.039 -2.6387 -0.1671  0.2506
 6250SOL    HW225801  11.340   8.430   8.047  1.5720 -1.3324  0.8977
 6251SOL     OW25802   2.793   1.389   6.293 -0.3910  0.4477  0.1319
 6251SOL    HW125803   2.736   1.445   6.345  0.8114  0.6813  1.2498
 6251SOL    HW225804   2.836   1.332   6.356  0.6335  0.3014 -0.6616
 6252SOL     OW25805   0.610   8.694   1.724  0.2431 -0.4880 -0.0453
 6252SOL    HW125806   0.515   8.685   1.709  0.1366 -0.8608  0.7715
 6252SOL    HW225807   0.643   8.605   1.715  0.6127 -0.2723 -0.8851
 6253SOL     OW25808   9.685   7.244   9.223 -0.0444 -0.2509  0.1642
 6253SOL    HW125809   9.684   7.312   9.289  0.6062 -0.0232 -0.0558
 6253SOL    HW225810   9.778   7.226   9.207 -0.1524  0.2608 -1.2429
 6254SOL     OW25811   8.178  11.074   8.131 -0.1671 -0.0881 -0.0698
 6254SOL    HW125812   8.094  11.108   8.099 -0.6729 -0.5193  0.7622
 6254SOL    HW225813   8.239  11.147   8.120 -0.7256  0.3432 -0.3618
 6255SOL     OW25814   5.889   7.714   5.766  0.4239  0.4845 -0.3073
 6255SOL    HW125815   5.888   7.634   5.712 -3.3477  0.2658 -0.1542
 6255SOL    HW225816   5.820   7.768   5.729 -1.9174  0.6307  3.7526
 6256SOL     OW25817  10.574   4.817   6.568  0.2534  0.0013 -0.0851
 6256SOL    HW125818  10.530   4.747   6.520  0.5374  1.0211 -1.8951
 6256SOL    HW225819  10.506   4.881   6.585  0.1753 -0.3087  0.8479
 6257SOL     OW25820   2.717   7.670  10.732 -0.5494 -0.1941  0.0294
 6257SOL    HW125821   2.748   7.756  10.761 -1.3469  0.6506 -1.5432
 6257SOL    HW225822   2.636   7.656  10.782 -0.5434  0.0799  0.1180
 6258SOL     OW25823   9.871   1.306  11.590 -0.2094 -0.1697 -0.3721
 6258SOL    HW125824   9.895   1.215  11.609 -0.1310  0.2916  2.0730
 6258SOL    HW225825   9.776   1.306  11.592 -0.2510 -0.4018 -1.6126
 6259SOL     OW25826  11.349   9.015   7.857  0.3747  0.2462 -0.0289
 6259SOL    HW125827  11.411   9.086   7.847  0.0384  0.3700 -1.4600
 6259SOL    HW225828  11.265   9.058   7.873  0.1010  0.2033 -1.2857
 6260SOL     OW25829   4.561   3.004   8.413  0.0999  0.1367  0.7149
 6260SOL    HW125830   4.580   2.952   8.335 -1.4832  1.0074 -0.3148
 6260SOL    HW225831   4.586   2.948   8.486 -0.8615 -1.7810 -0.3603
 6261SOL     OW25832   7.511  11.043   2.620 -0.5248  0.7429 -0.4384
 6261SOL    HW125833   7.449  11.100   2.666 -1.0415 -0.9537  1.0731
 6261SOL    HW225834   7.488  10.955   2.648  1.7851 -0.0476 -0.8125
 6262SOL     OW25835   0.811   3.023  10.893 -0.4326  0.7721 -0.0731
 6262SOL    HW125836   0.805   2.929  10.907  0.7159  0.6564 -0.2784
 6262SOL    HW225837   0.722   3.049  10.867 -0.8150 -0.2031  0.2105
 6263SOL     OW25838   2.043   5.430   7.590 -0.9892  0.5777  0.0472
 6263SOL    HW125839   2.075   5.497   7.651 -3.0103 -0.1055  2.0040
 6263SOL    HW225840   1.950   5.447   7.582 -1.1044 -0.5605 -1.3571
 6264SOL     OW25841   8.359   1.657   6.227 -0.3532 -0.1987  0.0080
 6264SOL    HW125842   8.320   1.614   6.303 -0.5966 -0.3442 -0.2021
 6264SOL    HW225843   8.420   1.593   6.191 -2.0207 -1.0936 -1.3865
 6265SOL     OW25844   5.689   6.000   0.458  0.1580 -1.0006 -0.8025
 6265SOL    HW125845   5.729   6.051   0.528 -1.0723 -1.5081  0.3128
 6265SOL    HW225846   5.597   6.025   0.460  0.0000 -1.4492 -1.8763
 6266SOL     OW25847   8.170   5.136  11.447  0.5926  0.1399  0.0821
 6266SOL    HW125848   8.098   5.075  11.431  1.0999 -0.6928  0.8760
 6266SOL    HW225849   8.126   5.219  11.469 -0.1055  0.0323 -0.8524
 6267SOL     OW25850   7.286   7.649   1.972  0.1854  0.1650  0.2222
 6267SOL    HW125851   7.276   7.715   1.903  1.1876 -0.4391 -0.5270
 6267SOL    HW225852   7.363   7.677   2.021  0.7881 -0.5715 -0.2739
 6268SOL     OW25853  10.783   6.500   1.004 -0.2800 -0.8217 -0.0316
 6268SOL    HW125854  10.732   6.580   1.013  0.3612 -0.4049 -0.0261
 6268SOL    HW225855  10.734   6.434   1.053 -1.1739 -0.6105 -0.6224
 6269SOL     OW25856   4.419   6.951   0.342  0.1225 -0.3200 -0.7062
 6269SOL    HW125857   4.506   6.953   0.303  0.2013 -1.1213 -0.5750
 6269SOL    HW225858   4.430   6.906   0.425 -0.4790 -0.7859 -0.8696
 6270SOL     OW25859   2.569   8.289   7.050 -0.1657  0.1358  0.0627
 6270SOL    HW125860   2.562   8.235   6.972  1.0204  0.7619 -0.5066
 6270SOL    HW225861   2.648   8.341   7.036 -0.9722  1.6275  0.8246
 6271SOL     OW25862   9.878  10.240   8.796 -0.3112 -0.2194  0.2447
 6271SOL    HW125863   9.884  10.334   8.781  1.1536 -0.5762 -1.9013
 6271SOL    HW225864   9.907  10.201   8.713 -0.9251 -2.5672  1.0574
 6272SOL     OW25865   5.184   1.353  10.612  0.0447  0.1558 -0.1571
 6272SOL    HW125866   5.143   1.267  10.604  2.0065 -0.8050 -0.2203
 6272SOL    HW225867   5.252   1.355  10.546  1.3169  0.9916  1.1111
 6273SOL     OW25868   2.387  11.126   3.311  0.7804  0.4571  0.1881
 6273SOL    HW125869   2.295  11.108   3.292  0.9714  0.8496 -1.1780
 6273SOL    HW225870   2.419  11.044   3.349  0.2597 -0.2461 -0.8380
 6274SOL     OW25871   9.916   9.620   9.748 -0.0296  0.4254  1.0796
 6274SOL    HW125872   9.997   9.663   9.721  0.3286  0.0047  1.4804
 6274SOL    HW225873   9.916   9.537   9.701 -1.6455  1.5924 -1.2072
 6275SOL     OW25874   6.745   6.925   5.269  0.5438  0.1908 -0.0620
 6275SOL    HW125875   6.819   6.982   5.246  0.6391 -0.0049 -0.2475
 6275SOL    HW225876   6.672   6.958   5.216  0.7487 -0.2236 -0.6209
 6276SOL     OW25877   1.928  10.612  10.947 -0.0983  0.5171  0.2065
 6276SOL    HW125878   1.930  10.707  10.941 -0.4043  0.4661 -0.9816
 6276SOL    HW225879   2.006  10.583  10.898  0.6350  0.1763  1.5240
 6277SOL     OW25880  10.926   9.061   6.681 -0.1840 -1.0400 -0.0919
 6277SOL    HW125881  10.919   9.119   6.757  0.2134 -1.7358  0.4830
 6277SOL    HW225882  11.002   9.006   6.699 -0.4100 -1.5833 -0.7493
 6278SOL     OW25883  10.423   0.287   1.126  0.1231 -0.4092  0.1753
 6278SOL    HW125884  10.373   0.206   1.114  0.9270 -1.0842  1.1867
 6278SOL    HW225885  10.504   0.259   1.169 -1.2132  1.3111  4.3058
 6279SOL     OW25886  11.285   0.832   7.708  0.7433  0.1865 -0.4885
 6279SOL    HW125887  11.219   0.862   7.770  0.0563 -0.3678 -0.9373
 6279SOL    HW225888  11.235   0.813   7.628  1.2760 -1.2679 -0.5016
 6280SOL     OW25889  12.555   3.761   6.496 -0.8077 -0.1007 -0.4652
 6280SOL    HW125890  12.591   3.831   6.442 -0.3029  0.1832  0.2275
 6280SOL    HW225891  12.610   3.760   6.574 -0.0456 -2.0797 -0.9713
 6281SOL     OW25892  11.772  12.403   6.632  0.1156 -0.7853  0.1047
 6281SOL    HW125893  11.860  12.383   6.664 -0.2409  0.6528  2.1537
 6281SOL    HW225894  11.719  12.416   6.710 -1.0594  1.9332 -0.9794
 6282SOL     OW25895   1.947   8.744  12.428  0.1029 -0.2267 -0.1115
 6282SOL    HW125896   1.883   8.688  12.472  0.3312  0.4468  1.1387
 6282SOL    HW225897   1.989   8.792  12.500  2.7200 -1.3549 -0.7751
 6283SOL     OW25898  11.555  12.123  11.195 -0.3743 -0.1702  0.0595
 6283SOL    HW125899  11.481  12.151  11.249 -0.4474 -0.1803 -0.0345
 6283SOL    HW225900  11.592  12.049  11.242 -0.8748 -0.6333 -0.2670
 6284SOL     OW25901   8.724   9.119   7.124 -0.2189 -0.1672 -0.0592
 6284SOL    HW125902   8.687   9.073   7.199  0.0689 -0.0110  0.1805
 6284SOL    HW225903   8.750   9.204   7.159 -1.5487  0.5306 -0.6784
 6285SOL     OW25904   6.186   9.940   2.450  0.5106 -0.7168  0.6277
 6285SOL    HW125905   6.249  10.011   2.452 -0.7692  0.4868  0.0746
 6285SOL    HW225906   6.181   9.916   2.357  0.8838 -1.5018  0.8019
 6286SOL     OW25907   5.980   6.804   8.187 -0.2308  0.2305 -0.1515
 6286SOL    HW125908   6.027   6.826   8.267  0.0117  1.4339 -0.6014
 6286SOL    HW225909   5.962   6.711   8.194 -1.2718  0.5421  1.8523
 6287SOL     OW25910   3.821   2.392  10.505 -0.1542 -0.4713  0.2399
 6287SOL    HW125911   3.789   2.458  10.443  1.7921 -1.6698 -2.1982
 6287SOL    HW225912   3.841   2.442  10.584  0.4164  1.7634 -1.2123
 6288SOL     OW25913  11.690   8.683  12.102  0.7750  0.1340  0.0721
 6288SOL    HW125914  11.698   8.637  12.018  2.9624  0.5412  0.0054
 6288SOL    HW225915  11.733   8.767  12.088  0.1808  0.6688  1.2903
 6289SOL     OW25916   0.316   5.449   5.945  0.0512  0.1965  0.2768
 6289SOL    HW125917   0.321   5.358   5.976 -0.3671  0.4194  1.0257
 6289SOL    HW225918   0.224   5.473   5.960  0.2131  0.8067  0.2741
 6290SOL     OW25919  10.162   3.344   0.872 -0.1310  0.2116 -0.0606
 6290SOL    HW125920  10.070   3.322   0.883 -0.1696  1.1950  2.0593
 6290SOL    HW225921  10.204   3.312   0.951  1.4426 -0.5461 -1.1557
 6291SOL     OW25922   1.742   3.045   9.455  0.3210 -0.0783  0.3518
 6291SOL    HW125923   1.702   3.081   9.376 -0.9847 -2.4791 -0.1598
 6291SOL    HW225924   1.836   3.051   9.438  0.1131  1.0639 -0.5824
 6292SOL     OW25925   6.362   2.696   6.340 -0.1321  0.2904  0.1513
 6292SOL    HW125926   6.313   2.620   6.306  0.0762  0.6549 -1.0086
 6292SOL    HW225927   6.452   2.680   6.312 -0.1002  0.9946 -0.1557
 6293SOL     OW25928   4.099   6.109   6.143  0.2473  0.3839  0.2439
 6293SOL    HW125929   4.190   6.093   6.118  0.6529  0.0989  1.8297
 6293SOL    HW225930   4.050   6.042   6.096  0.6835  1.2179 -1.5007
 6294SOL     OW25931   0.057   7.233   7.507 -0.3601 -0.0301 -0.1883
 6294SOL    HW125932   0.146   7.214   7.479  0.3334  0.5496  1.5106
 6294SOL    HW225933   0.013   7.148   7.508  0.4875 -0.4692 -0.0075
 6295SOL     OW25934   0.672   6.008   7.660  0.8051 -0.3171  0.3472
 6295SOL    HW125935   0.611   6.055   7.717  0.7309  0.8224 -0.6497
 6295SOL    HW225936   0.628   6.003   7.576  2.8376  2.4313 -1.0385
 6296SOL     OW25937   1.839   7.202   7.914 -0.1770 -0.0256  0.0760
 6296SOL    HW125938   1.758   7.150   7.912  0.0978 -0.4406 -0.5163
 6296SOL    HW225939   1.905   7.145   7.874  0.9454 -0.5695  2.5521
 6297SOL     OW25940   1.963   7.978   0.891  0.1506  0.0990  0.0628
 6297SOL    HW125941   2.048   7.995   0.932  0.3221  1.4531 -0.7918
 6297SOL    HW225942   1.903   7.965   0.965  0.2887  3.2343  0.8913
 6298SOL     OW25943   8.504   9.150   8.882  0.5905  0.0763 -0.0224
 6298SOL    HW125944   8.551   9.144   8.965  0.6101  0.3370 -0.0134
 6298SOL    HW225945   8.420   9.189   8.905  0.1190 -0.9473  0.0547
 6299SOL     OW25946   0.719   4.963   8.640 -0.4740 -0.0120 -0.8156
 6299SOL    HW125947   0.676   5.006   8.567 -1.0426  2.0048  0.6084
 6299SOL    HW225948   0.662   4.980   8.715  0.6885 -0.9466  0.3312
 6300SOL     OW25949  10.289   3.100   1.180 -0.6076 -0.7401 -0.4307
 6300SOL    HW125950  10.301   3.012   1.216  1.0118 -1.1470 -1.8674
 6300SOL    HW225951  10.321   3.095   1.090 -1.1537  1.1442 -0.7866
 6301SOL     OW25952   3.620   8.816   7.227  0.0403  0.7115 -0.4386
 6301SOL    HW125953   3.711   8.789   7.215  0.1658  1.3905 -1.0650
 6301SOL    HW225954   3.572   8.774   7.156  0.0456  1.1813 -0.7280
 6302SOL     OW25955   9.210   3.757   5.384 -0.3231 -0.2615 -0.1014
 6302SOL    HW125956   9.287   3.703   5.405 -0.4207 -0.5823 -0.5683
 6302SOL    HW225957   9.236   3.846   5.409 -0.1281 -0.5060  0.5880
 6303SOL     OW25958   7.577   2.618   3.939  0.2045  0.1578 -0.0523
 6303SOL    HW125959   7.647   2.667   3.896  0.2817 -1.0772 -1.4392
 6303SOL    HW225960   7.516   2.684   3.970 -0.0983  1.1528 -2.5350
 6304SOL     OW25961  10.175  10.263   0.584  0.0220  0.7740  0.0200
 6304SOL    HW125962  10.121  10.340   0.601  0.5398  0.9386  0.9934
 6304SOL    HW225963  10.265  10.294   0.596  0.2700  0.1694 -0.2355
 6305SOL     OW25964   6.363   9.265   9.094  0.1234  0.1597 -0.0924
 6305SOL    HW125965   6.335   9.353   9.120  0.3022 -0.3299  1.9072
 6305SOL    HW225966   6.389   9.274   9.003 -1.0143  1.9084 -0.2804
 6306SOL     OW25967   0.545  11.136   2.895  0.1501 -0.7851 -0.0178
 6306SOL    HW125968   0.557  11.076   2.821  2.5589 -1.1863  0.6024
 6306SOL    HW225969   0.485  11.090   2.954 -0.1498 -1.3827 -0.7701
 6307SOL     OW25970   1.408   4.041   8.837  0.2644 -0.6078  0.2708
 6307SOL    HW125971   1.345   4.071   8.772 -0.9405 -1.6916  0.8933
 6307SOL    HW225972   1.413   4.112   8.901  0.5190 -0.0617 -0.3429
 6308SOL     OW25973   4.728   8.868   6.084  0.1161  0.1489  0.0033
 6308SOL    HW125974   4.650   8.921   6.098 -0.4805 -0.7916  0.3139
 6308SOL    HW225975   4.695   8.785   6.051  1.0290 -0.0724 -0.3842
 6309SOL     OW25976   2.262   1.090   2.633  0.5102 -0.1297  0.0749
 6309SOL    HW125977   2.255   0.995   2.641 -0.6242  0.0606  2.2138
 6309SOL    HW225978   2.332   1.114   2.693  1.1917  0.3602 -0.8933
 6310SOL     OW25979  11.626   8.309   7.223  0.2635 -0.1653 -0.2090
 6310SOL    HW125980  11.625   8.341   7.314 -1.5804  3.6280 -1.3402
 6310SOL    HW225981  11.663   8.381   7.173 -0.6381 -1.3239 -2.7027
 6311SOL     OW25982   5.666   0.654   8.798 -0.3387 -0.2045  0.2987
 6311SOL    HW125983   5.701   0.565   8.797  0.6638  0.1471 -1.6268
 6311SOL    HW225984   5.630   0.667   8.710  0.0737  1.4806  0.3403
 6312SOL     OW25985   4.790  10.777   9.315 -0.0421  0.3064 -0.8637
 6312SOL    HW125986   4.825  10.696   9.276  0.7502  0.5773 -0.7372
 6312SOL    HW225987   4.845  10.846   9.279 -0.2203  0.7083 -0.3662
 6313SOL     OW25988  11.555   2.938   6.191 -0.4497 -0.1957 -0.7197
 6313SOL    HW125989  11.584   2.851   6.220 -0.8780  0.4355  1.7981
 6313SOL    HW225990  11.635   2.982   6.165  0.2574 -0.2369  1.2299
 6314SOL     OW25991   0.802   7.366   3.986  0.1330  0.2739  0.0275
 6314SOL    HW125992   0.814   7.345   3.893 -0.1008  0.7090 -0.1047
 6314SOL    HW225993   0.882   7.413   4.011 -0.0707  0.7053 -0.1199
 6315SOL     OW25994   6.367   3.649   6.650  0.0241  0.1682  0.3148
 6315SOL    HW125995   6.380   3.571   6.704 -1.7825 -0.6125 -0.2890
 6315SOL    HW225996   6.429   3.640   6.578 -0.9198 -1.3356 -0.3566
 6316SOL     OW25997  12.029   3.566   1.430  0.0791  0.2888 -0.0894
 6316SOL    HW125998  11.942   3.606   1.436 -0.9546 -1.5590 -1.7642
 6316SOL    HW225999  12.027   3.495   1.494  1.1788  1.5203  1.3962
 6317SOL     OW26000   4.809   7.443  10.077 -0.0301 -0.4323 -0.2709
 6317SOL    HW126001   4.881   7.477  10.023 -1.1092  1.5362 -0.5708
 6317SOL    HW226002   4.842   7.449  10.167  0.0365  0.9386 -0.3663
 6318SOL     OW26003   2.478   0.735   9.290  0.4384 -0.1180 -0.0208
 6318SOL    HW126004   2.406   0.671   9.293  0.3437 -0.0365 -0.3822
 6318SOL    HW226005   2.547   0.690   9.241  1.3627 -0.8896  1.8914
 6319SOL     OW26006  11.836   0.822   4.496 -0.7199  0.5159  0.7045
 6319SOL    HW126007  11.794   0.892   4.446 -1.7198 -0.8882 -0.4711
 6319SOL    HW226008  11.763   0.774   4.535 -0.0485 -0.0518  1.2732
 6320SOL     OW26009  12.131   5.152   8.749 -0.0276  0.2977  0.0697
 6320SOL    HW126010  12.043   5.118   8.731 -0.2761  1.6367 -1.3959
 6320SOL    HW226011  12.175   5.081   8.796 -1.1904 -1.2187 -1.0488
 6321SOL     OW26012   6.252   3.009   1.570 -0.0365 -0.8865  0.0257
 6321SOL    HW126013   6.171   2.958   1.571 -0.2274 -0.5860  0.6189
 6321SOL    HW226014   6.224   3.098   1.588  0.3103 -0.5813 -0.8858
 6322SOL     OW26015  10.284   8.044   2.250 -0.0949 -0.2783  0.4615
 6322SOL    HW126016  10.245   7.991   2.180  0.6213  1.4196 -1.3326
 6322SOL    HW226017  10.214   8.103   2.277  0.3100  0.7308 -0.6184
 6323SOL     OW26018  10.144   8.638   4.199  0.1847  0.4820 -0.0432
 6323SOL    HW126019  10.180   8.563   4.151 -2.1058  1.1043 -3.0092
 6323SOL    HW226020  10.073   8.601   4.251  0.4574  0.3030  0.2056
 6324SOL     OW26021   9.280   9.832  11.523 -0.1552 -0.1054  0.1616
 6324SOL    HW126022   9.252   9.788  11.604  1.0852  0.4122  0.9033
 6324SOL    HW226023   9.292   9.923  11.548  1.7695 -0.2201 -0.1869
 6325SOL     OW26024   4.542   9.600  11.705 -0.5556  0.2502  0.0305
 6325SOL    HW126025   4.518   9.683  11.663 -0.7399  0.0843 -0.1962
 6325SOL    HW226026   4.635   9.610  11.726 -0.1395 -0.0841 -1.4787
 6326SOL     OW26027   1.235   3.915   9.075  0.4594  0.1482  0.2903
 6326SOL    HW126028   1.305   3.954   9.023 -0.0166  0.7479  0.0881
 6326SOL    HW226029   1.189   3.990   9.113 -0.4359 -0.2235 -0.0481
 6327SOL     OW26030   4.171  10.597   1.293 -0.6093  0.0766  0.4072
 6327SOL    HW126031   4.257  10.639   1.290 -0.0505 -1.0343 -2.4265
 6327SOL    HW226032   4.189  10.506   1.316 -1.4221  0.4720  2.8565
 6328SOL     OW26033  11.596   7.746   9.327  0.2376  0.3557  0.8517
 6328SOL    HW126034  11.577   7.750   9.421 -0.7239  2.8685  0.6171
 6328SOL    HW226035  11.536   7.809   9.288  2.1982  1.0706 -1.1880
 6329SOL     OW26036   7.559  11.236   8.422  0.2476 -0.2142  0.0511
 6329SOL    HW126037   7.477  11.198   8.452  0.4646 -0.6995  0.0284
 6329SOL    HW226038   7.551  11.329   8.442 -0.2112 -0.2986  0.2632
 6330SOL     OW26039   9.918   0.350   8.154  0.3044 -0.3525 -0.5751
 6330SOL    HW126040   9.908   0.255   8.151  0.3614 -0.3369 -1.4504
 6330SOL    HW226041   9.973   0.366   8.231 -0.9631 -0.8960  0.4802
 6331SOL     OW26042   8.821   0.231   2.327  0.0286  0.1474  0.3556
 6331SOL    HW126043   8.795   0.301   2.266  0.6149  0.6259  0.6398
 6331SOL    HW226044   8.758   0.237   2.399  0.7155  1.1235  0.9105
 6332SOL     OW26045   4.512  11.628   6.390  0.0757 -0.2268 -0.3251
 6332SOL    HW126046   4.471  11.542   6.399 -0.3798  0.0097 -0.1031
 6332SOL    HW226047   4.548  11.647   6.477  0.1189 -0.1616 -0.3571
 6333SOL     OW26048   7.294   8.543   1.925  0.5706 -0.0394 -0.3206
 6333SOL    HW126049   7.262   8.569   2.011  0.9648  0.7537 -0.4058
 6333SOL    HW226050   7.315   8.450   1.934 -1.2244 -0.4608 -0.1168
 6334SOL     OW26051   9.784   2.119   8.582  0.1811  0.0099 -0.4427
 6334SOL    HW126052   9.832   2.052   8.534 -0.2281  0.3472 -1.3453
 6334SOL    HW226053   9.721   2.154   8.519 -1.2130 -0.3690  0.6857
 6335SOL     OW26054   8.774   2.405   6.939  0.3373  0.4945 -0.7273
 6335SOL    HW126055   8.680   2.408   6.920  0.2457  1.4873 -0.1860
 6335SOL    HW226056   8.791   2.485   6.988  1.3005 -0.1127 -0.0254
 6336SOL     OW26057  10.456   0.822   4.328  0.1049  0.6024 -0.4274
 6336SOL    HW126058  10.537   0.775   4.309 -0.2934 -0.0739 -0.4755
 6336SOL    HW226059  10.480   0.881   4.400  0.1521 -1.0399  0.9643
 6337SOL     OW26060   7.802   4.091  11.898  0.1042 -0.1758 -0.2240
 6337SOL    HW126061   7.744   4.030  11.943 -0.7661  0.2715 -0.7136
 6337SOL    HW226062   7.748   4.129  11.828  1.2313 -0.3942 -1.2605
 6338SOL     OW26063   9.098   2.803   9.184  0.1105  0.3548  0.7279
 6338SOL    HW126064   9.102   2.710   9.205  0.3315  0.3259  0.5575
 6338SOL    HW226065   9.055   2.843   9.260 -0.1463  0.0899  0.7238
 6339SOL     OW26066   8.286   9.481   0.539  0.6877  0.4815  0.2807
 6339SOL    HW126067   8.363   9.436   0.504  0.5528  0.2542  0.2760
 6339SOL    HW226068   8.281   9.562   0.490 -0.7756 -0.7903 -1.8159
 6340SOL     OW26069   1.417   6.053   2.479 -0.2207  0.1237 -0.7309
 6340SOL    HW126070   1.443   6.143   2.497 -0.7298  0.3684 -1.1700
 6340SOL    HW226071   1.480   6.022   2.413  0.3727 -0.0781 -0.0749
 6341SOL     OW26072   0.926   3.643   0.535 -0.1843 -0.7306  0.1328
 6341SOL    HW126073   0.929   3.645   0.630 -0.0900  2.3244  0.1589
 6341SOL    HW226074   0.833   3.626   0.514 -0.0708 -2.2151  0.6805
 6342SOL     OW26075   8.293   6.883  11.488  0.3473  0.2157  0.7126
 6342SOL    HW126076   8.197   6.879  11.486  0.3296  0.4109 -1.2724
 6342SOL    HW226077   8.313   6.970  11.454  1.2284 -0.2800 -0.0814
 6343SOL     OW26078   9.275   1.167   6.380  0.1806  0.6313  0.0638
 6343SOL    HW126079   9.324   1.132   6.454  0.6045 -0.7608 -0.8255
 6343SOL    HW226080   9.185   1.139   6.395  0.4628 -0.6322 -0.4828
 6344SOL     OW26081   5.570   8.986   5.937  0.6694  0.4429 -0.0551
 6344SOL    HW126082   5.486   9.007   5.897  1.5655  0.4641 -2.0568
 6344SOL    HW226083   5.580   8.892   5.923  0.6177  0.2795  0.9458
 6345SOL     OW26084   5.378   6.596   1.008 -0.1104  0.1701 -0.5774
 6345SOL    HW126085   5.429   6.534   1.060 -2.1494 -1.9422 -0.8925
 6345SOL    HW226086   5.365   6.671   1.065 -0.7175 -1.2894  1.3117
 6346SOL     OW26087   3.393   6.319  12.119 -0.1159 -0.0716 -0.2951
 6346SOL    HW126088   3.385   6.277  12.204 -1.3051  0.5338 -0.0914
 6346SOL    HW226089   3.304   6.343  12.095  0.2169 -0.1509 -1.6770
 6347SOL     OW26090   1.420   1.101   9.022 -0.1960 -0.4049  0.0373
 6347SOL    HW126091   1.414   1.008   8.997  1.4082 -0.3397 -0.7177
 6347SOL    HW226092   1.469   1.101   9.104  1.4236 -0.1372 -0.9015
 6348SOL     OW26093  11.594   5.833  10.323  0.1570 -0.1889  0.7693
 6348SOL    HW126094  11.538   5.827  10.401  1.0578 -1.3991  1.3682
 6348SOL    HW226095  11.660   5.898  10.345 -1.8126  2.4314 -0.5321
 6349SOL     OW26096   6.365   9.551   4.358 -0.0899  0.0024  0.7577
 6349SOL    HW126097   6.353   9.502   4.276 -0.0138  0.4229  0.4899
 6349SOL    HW226098   6.301   9.621   4.354 -0.7905 -0.5792  1.5462
 6350SOL     OW26099   9.545   6.153   5.928  0.2288 -0.3337 -0.1883
 6350SOL    HW126100   9.603   6.228   5.942  1.9528 -1.7631  0.7711
 6350SOL    HW226101   9.485   6.155   6.003  0.2182  0.1205 -0.2057
 6351SOL     OW26102   5.698   6.621  12.326 -0.0273 -0.3225 -0.3463
 6351SOL    HW126103   5.653   6.542  12.355  0.4793  0.0792  1.6790
 6351SOL    HW226104   5.669   6.633  12.235 -3.5466 -0.4098  0.6202
 6352SOL     OW26105   3.164   8.562  11.265  0.0670 -0.1300 -0.8630
 6352SOL    HW126106   3.152   8.467  11.269 -1.7018  0.0990  1.1112
 6352SOL    HW226107   3.176   8.589  11.356 -0.4197  1.6251 -1.2740
 6353SOL     OW26108   6.618   4.506   5.269  0.3210  0.0766  0.1059
 6353SOL    HW126109   6.708   4.538   5.270  0.1960  0.4286  0.1174
 6353SOL    HW226110   6.575   4.552   5.340 -0.1220  0.6401 -0.5176
 6354SOL     OW26111   1.753  11.341   0.578 -0.3600  0.2733 -0.3013
 6354SOL    HW126112   1.734  11.330   0.671 -0.3313 -2.0070 -0.5180
 6354SOL    HW226113   1.847  11.328   0.571 -0.6117 -1.4553 -0.8478
 6355SOL     OW26114   6.888  10.116  12.135 -0.2505 -0.3480  0.1954
 6355SOL    HW126115   6.843  10.179  12.191 -0.3659  0.3851 -0.6858
 6355SOL    HW226116   6.839  10.119  12.052  0.7001 -0.4079 -0.3894
 6356SOL     OW26117   6.723   1.675   9.609  0.5851 -0.1322  0.2236
 6356SOL    HW126118   6.707   1.769   9.610  1.0139 -0.0579  0.6078
 6356SOL    HW226119   6.705   1.648   9.519 -0.0410  0.2248  0.2356
 6357SOL     OW26120   3.916   7.297   7.673  0.4001 -0.1156 -0.5767
 6357SOL    HW126121   3.969   7.272   7.597  0.0690  1.1502 -1.2617
 6357SOL    HW226122   3.826   7.293   7.642  0.2240 -0.1520 -0.0708
 6358SOL     OW26123   7.822   5.572   9.070  0.6996 -0.1329 -0.2124
 6358SOL    HW126124   7.877   5.506   9.111  0.1872 -0.5542 -0.1940
 6358SOL    HW226125   7.843   5.654   9.115  1.4579 -0.2527 -0.3513
 6359SOL     OW26126   7.271   6.510   4.140  0.5999  0.4126 -0.1424
 6359SOL    HW126127   7.217   6.551   4.208  0.2539 -0.1288 -0.0828
 6359SOL    HW226128   7.286   6.421   4.171  1.4792  0.5369 -0.1956
 6360SOL     OW26129   4.466   4.182  12.177 -0.3600 -0.8941 -0.2244
 6360SOL    HW126130   4.489   4.192  12.269 -0.0071 -0.5144 -0.3499
 6360SOL    HW226131   4.513   4.253  12.132  0.1948 -1.6133 -0.8154
 6361SOL     OW26132  11.607   3.696   5.809  0.3698 -0.4371  0.1755
 6361SOL    HW126133  11.609   3.716   5.715 -1.5328 -2.0344 -0.2819
 6361SOL    HW226134  11.630   3.779   5.851  0.0848  0.6605 -1.6805
 6362SOL     OW26135   9.197   8.501   4.775  0.1548 -0.3750 -0.1000
 6362SOL    HW126136   9.127   8.451   4.734 -0.2007  1.4558 -1.9443
 6362SOL    HW226137   9.153   8.559   4.836 -0.0668  1.0026 -1.4916
 6363SOL     OW26138  11.829   0.272   5.621  0.2753  0.0444 -0.0971
 6363SOL    HW126139  11.771   0.209   5.577  1.2864 -0.7466 -0.3260
 6363SOL    HW226140  11.913   0.227   5.628  0.5192  0.6861  1.4123
 6364SOL     OW26141   7.628   0.490  10.128  0.0495 -1.0179 -0.6241
 6364SOL    HW126142   7.681   0.535  10.062  0.1308  0.3560  0.3231
 6364SOL    HW226143   7.669   0.513  10.211 -2.8913  1.4818  0.3251
 6365SOL     OW26144   2.303   1.868   9.855  0.4334  0.3647  0.0676
 6365SOL    HW126145   2.224   1.920   9.845 -0.1551 -0.3077  1.0618
 6365SOL    HW226146   2.303   1.840   9.947  1.2074 -0.6234 -0.2048
 6366SOL     OW26147  11.750   5.976  10.059 -0.2448  0.8624  0.4544
 6366SOL    HW126148  11.708   5.945   9.979 -0.2176 -2.5060  1.5803
 6366SOL    HW226149  11.793   5.899  10.095 -0.8682  2.0228  4.1296
 6367SOL     OW26150   6.586   9.947  11.258  0.3268 -0.1729 -0.3039
 6367SOL    HW126151   6.513   9.895  11.292 -1.0791  2.0856  0.3003
 6367SOL    HW226152   6.618   9.996  11.333  1.2955  0.2245 -0.9628
 6368SOL     OW26153   5.210   5.582   4.627 -0.1865 -0.4904 -0.1506
 6368SOL    HW126154   5.119   5.592   4.601 -0.2359 -2.5134 -0.8875
 6368SOL    HW226155   5.259   5.588   4.545  0.1521 -1.3788 -0.0224
 6369SOL     OW26156   6.975   9.905   0.430 -0.3785  0.1540  0.5438
 6369SOL    HW126157   6.941   9.986   0.390  0.5316  1.2995  1.9929
 6369SOL    HW226158   6.897   9.862   0.466 -0.7249  1.0685  0.9243
 6370SOL     OW26159  12.041   0.794  12.196 -0.2340  0.6917 -0.0988
 6370SOL    HW126160  11.968   0.822  12.251 -0.0460  0.5114  0.2524
 6370SOL    HW226161  12.048   0.861  12.128 -1.2772  0.2685 -0.6572
 6371SOL     OW26162   2.517   3.962   4.382  0.4114  0.2986 -0.4318
 6371SOL    HW126163   2.469   3.879   4.383  0.9055 -0.0028  1.0196
 6371SOL    HW226164   2.471   4.015   4.317 -0.9520 -0.5126 -0.1833
 6372SOL     OW26165  10.463   3.982   4.276 -0.4867 -0.4168 -0.3639
 6372SOL    HW126166  10.554   4.004   4.256 -0.5466  0.9500  0.6818
 6372SOL    HW226167  10.421   3.975   4.190  0.9468 -2.9447 -0.9588
 6373SOL     OW26168   9.351   6.366   7.652 -0.6368 -0.4975 -0.0990
 6373SOL    HW126169   9.376   6.313   7.727  0.3324  0.4223  0.2601
 6373SOL    HW226170   9.421   6.431   7.645 -0.8568 -0.3938 -1.6255
 6374SOL     OW26171   4.794  12.359   3.374 -0.4488 -0.2302  0.0993
 6374SOL    HW126172   4.812  12.373   3.281  0.2647  3.9546  0.6620
 6374SOL    HW226173   4.805  12.265   3.387  1.1371 -0.7402 -3.6902
 6375SOL     OW26174  10.527   8.502   3.653 -0.9889  0.3529 -0.3605
 6375SOL    HW126175  10.476   8.553   3.715  1.0595  1.3058  0.6347
 6375SOL    HW226176  10.561   8.566   3.591 -0.8273 -0.2250 -0.8814
 6376SOL     OW26177  10.125   3.457  12.320 -0.1085  0.3877 -0.1836
 6376SOL    HW126178  10.184   3.520  12.361  1.3636  0.3970 -2.1508
 6376SOL    HW226179  10.073   3.510  12.259 -0.8266  0.0972  0.1717
 6377SOL     OW26180   0.632   7.461   9.442  0.0463  0.2115  0.5988
 6377SOL    HW126181   0.634   7.400   9.516 -1.4190 -0.2936  0.2685
 6377SOL    HW226182   0.587   7.412   9.373  1.4214  0.6589 -0.6468
 6378SOL     OW26183   4.143   9.844   1.792 -0.2967  0.2377  0.5584
 6378SOL    HW126184   4.090   9.799   1.858 -0.0455  1.7842  1.8928
 6378SOL    HW226185   4.219   9.788   1.779 -1.1880 -0.9393  0.2483
 6379SOL     OW26186  11.332   0.263   7.413  0.1910 -0.3564 -0.1299
 6379SOL    HW126187  11.291   0.229   7.333  0.6613  1.7403 -1.3264
 6379SOL    HW226188  11.270   0.326   7.448  1.3689  1.2396 -0.7664
 6380SOL     OW26189   6.953   1.669  12.191 -0.2130  0.4306 -0.0036
 6380SOL    HW126190   7.000   1.656  12.274 -0.9285  2.6677  0.8088
 6380SOL    HW226191   6.913   1.755  12.199 -1.8747 -0.0851 -1.9509
 6381SOL     OW26192  11.340   2.660   9.987 -0.2570  0.2081 -0.0860
 6381SOL    HW126193  11.268   2.713   9.954  0.2952 -0.7649 -3.2072
 6381SOL    HW226194  11.347   2.588   9.924  2.6461 -0.4173  0.8057
 6382SOL     OW26195  11.255   8.294   9.389  0.4700 -0.0242  0.3975
 6382SOL    HW126196  11.304   8.304   9.307  1.0034 -0.4289  0.6623
 6382SOL    HW226197  11.264   8.202   9.411  1.4479  0.3327  1.5956
 6383SOL     OW26198   0.991   5.773   0.478  0.0676 -0.5437 -0.2241
 6383SOL    HW126199   1.036   5.857   0.479 -1.1900  0.1951 -1.1257
 6383SOL    HW226200   0.916   5.785   0.536 -0.3086 -0.9171 -0.6206
 6384SOL     OW26201   8.375   8.017  10.720 -0.3763 -0.8547 -0.1160
 6384SOL    HW126202   8.455   8.046  10.678 -0.0422  1.0078  1.6574
 6384SOL    HW226203   8.311   8.010  10.649  0.8062 -0.3426 -1.2651
 6385SOL     OW26204   8.778   1.101   9.744 -0.2866  0.4769  0.0148
 6385SOL    HW126205   8.809   1.163   9.678  1.9088 -0.2317  0.2824
 6385SOL    HW226206   8.747   1.025   9.694 -1.0230  0.9397 -0.2453
 6386SOL     OW26207   7.514   1.068   7.793  0.0015 -0.7077  0.2757
 6386SOL    HW126208   7.460   1.115   7.729  1.4542 -1.7495 -1.8171
 6386SOL    HW226209   7.512   0.977   7.764  0.7705 -1.2084  1.7030
 6387SOL     OW26210   9.454   2.593   6.123 -0.1968  0.1954 -0.8318
 6387SOL    HW126211   9.433   2.500   6.111 -0.5361  0.1707 -0.0805
 6387SOL    HW226212   9.399   2.637   6.058 -0.9391 -0.0425 -0.3738
 6388SOL     OW26213   9.747  10.346   6.453 -0.0281  0.2668  0.2704
 6388SOL    HW126214   9.766  10.419   6.394 -0.3768 -0.9090 -1.3684
 6388SOL    HW226215   9.695  10.286   6.400  0.1398 -1.1190  1.6202
 6389SOL     OW26216   8.223  11.046   0.394  0.3911  0.1154  0.3795
 6389SOL    HW126217   8.247  11.046   0.301  0.5836  0.5239  0.4235
 6389SOL    HW226218   8.291  10.992   0.436  1.1625  1.1128  0.4754
 6390SOL     OW26219   8.628   9.577   9.672 -0.2457 -0.0083  0.3887
 6390SOL    HW126220   8.649   9.487   9.697  1.3357  0.8830  2.5432
 6390SOL    HW226221   8.559   9.603   9.732  0.2413  0.6274  0.6884
 6391SOL     OW26222   1.987   6.741   6.080 -0.2614  0.0570 -0.0246
 6391SOL    HW126223   1.904   6.702   6.104  0.0923 -0.8769 -0.2660
 6391SOL    HW226224   1.964   6.820   6.032 -1.0291 -0.6318 -0.8157
 6392SOL     OW26225   4.360   2.938   3.962  0.6733 -0.0855 -0.0362
 6392SOL    HW126226   4.301   3.004   3.925 -0.1786 -1.3789 -1.0640
 6392SOL    HW226227   4.432   2.932   3.899  0.6256 -0.3076 -0.0714
 6393SOL     OW26228   4.821  10.044   5.491 -0.1548  0.1982 -0.5044
 6393SOL    HW126229   4.827  10.013   5.400  0.4930 -0.6694 -0.1825
 6393SOL    HW226230   4.775  10.128   5.485  2.6282  1.7437 -1.9775
 6394SOL     OW26231   9.884   3.286   8.946  0.9064  0.0673 -0.2359
 6394SOL    HW126232   9.905   3.379   8.935 -2.2059  0.7578 -1.5360
 6394SOL    HW226233   9.883   3.273   9.041  3.1383  0.8414 -0.0517
 6395SOL     OW26234   5.185   0.846   8.105 -0.1385 -0.4556  0.3481
 6395SOL    HW126235   5.161   0.847   8.197 -0.6857 -0.3618  0.2078
 6395SOL    HW226236   5.280   0.843   8.105 -0.1507 -1.0338  0.9186
 6396SOL     OW26237   1.475   2.177   7.304  0.0806  0.2020  0.1908
 6396SOL    HW126238   1.460   2.214   7.217 -0.3160 -1.2311 -0.3778
 6396SOL    HW226239   1.412   2.105   7.310  0.8066 -0.3552  1.2552
 6397SOL     OW26240  10.882   2.269   4.660  0.5008 -0.0687 -0.2486
 6397SOL    HW126241  10.870   2.327   4.735 -1.5826 -1.9326  0.9923
 6397SOL    HW226242  10.950   2.207   4.687  1.9858  1.0898 -1.1755
 6398SOL     OW26243   5.621   8.757  11.641 -0.1170 -0.2228  0.6118
 6398SOL    HW126244   5.544   8.705  11.668 -0.2342 -0.1311  0.4549
 6398SOL    HW226245   5.627   8.825  11.707 -1.8818  1.5038 -0.8887
 6399SOL     OW26246   0.741  10.971   1.788 -0.2553  0.1568  0.1510
 6399SOL    HW126247   0.698  10.887   1.802 -1.0009  0.6204  0.6525
 6399SOL    HW226248   0.714  10.997   1.700  0.5369 -0.4453 -0.2881
 6400SOL     OW26249   0.667  11.250   4.605  0.2339  0.4737  0.5356
 6400SOL    HW126250   0.763  11.247   4.595  0.4535  1.4463  2.0994
 6400SOL    HW226251   0.640  11.320   4.545  0.4127 -0.2008 -0.3579
 6401SOL     OW26252   4.162   7.227   0.522 -0.1195 -0.1433 -0.2688
 6401SOL    HW126253   4.107   7.175   0.580 -0.6811  0.2895 -0.4092
 6401SOL    HW226254   4.101   7.272   0.464  0.2614  1.6936  0.6757
 6402SOL     OW26255   9.952  10.799   7.160  0.0591 -0.4724  0.0146
 6402SOL    HW126256   9.897  10.728   7.126 -0.9839  0.5892 -0.6071
 6402SOL    HW226257   9.912  10.879   7.124  0.8897  0.4646  1.1092
 6403SOL     OW26258   0.773   1.335  12.099  0.1442 -0.1596 -0.2326
 6403SOL    HW126259   0.784   1.267  12.033  0.5445 -0.2337 -0.0959
 6403SOL    HW226260   0.782   1.417  12.051 -0.0199 -0.2093 -0.3465
 6404SOL     OW26261   3.068   0.105  11.261 -0.0810  0.8599 -0.2912
 6404SOL    HW126262   3.081   0.018  11.224  2.5632  0.7951  0.5420
 6404SOL    HW226263   3.031   0.156  11.189 -1.9716 -0.9644 -0.7054
 6405SOL     OW26264   2.111   9.659   8.055  0.2200  0.3768  0.0038
 6405SOL    HW126265   2.035   9.715   8.070  0.3185  1.0885 -1.8210
 6405SOL    HW226266   2.088   9.608   7.978  1.2306 -0.0662 -0.0221
 6406SOL     OW26267   9.604   0.672   0.191 -0.2137 -0.3837  0.0121
 6406SOL    HW126268   9.616   0.693   0.283 -0.9887  1.7396 -0.3198
 6406SOL    HW226269   9.579   0.580   0.190  0.1270 -0.5255  1.8757
 6407SOL     OW26270  11.610  12.281   3.837 -0.6897 -0.4527 -0.0800
 6407SOL    HW126271  11.675  12.216   3.864  0.8545  1.5912  1.5309
 6407SOL    HW226272  11.609  12.277   3.742  1.9390 -0.5333 -0.1875
 6408SOL     OW26273   7.025   3.148   4.503  0.0631  0.5488 -0.0309
 6408SOL    HW126274   7.051   3.072   4.556  0.1755  0.7367  0.1874
 6408SOL    HW226275   6.983   3.207   4.566 -1.5280 -0.0469 -0.4992
 6409SOL     OW26276   4.551   3.152   0.533 -0.3732 -0.2527 -0.3593
 6409SOL    HW126277   4.512   3.237   0.513  0.5655  0.5481  1.0488
 6409SOL    HW226278   4.600   3.166   0.614  0.1715 -2.0322 -0.3281
 6410SOL     OW26279  10.720   4.704   8.718 -0.0952 -0.1510 -0.3224
 6410SOL    HW126280  10.767   4.726   8.637  1.5239  0.9443  0.8586
 6410SOL    HW226281  10.756   4.620   8.745  0.6915  0.3483  0.2052
 6411SOL     OW26282   4.661   1.668   3.127  0.6338  0.3684  0.1609
 6411SOL    HW126283   4.749   1.664   3.165  0.3492 -1.8291  0.7549
 6411SOL    HW226284   4.610   1.606   3.180 -1.3828  1.8517  0.0608
 6412SOL     OW26285  10.294   0.144   4.761 -0.1461  0.3980  0.4512
 6412SOL    HW126286  10.384   0.133   4.728 -0.5137  0.3513 -0.6009
 6412SOL    HW226287  10.241   0.090   4.701 -1.1707  2.3671 -0.5031
 6413SOL     OW26288   4.102  12.443  11.564 -0.5543 -0.1048 -0.2221
 6413SOL    HW126289   4.039  12.475  11.629 -0.4777  1.3954 -0.8454
 6413SOL    HW226290   4.105  12.348  11.578 -0.8610  0.1194  1.6703
 6414SOL     OW26291   5.163  10.962   2.543  0.0171  0.4019  0.4560
 6414SOL    HW126292   5.195  10.886   2.494 -0.5040 -1.1345  2.3830
 6414SOL    HW226293   5.170  11.035   2.481  0.5431 -1.1929 -1.4725
 6415SOL     OW26294  10.083  11.384   7.261  0.5327  0.8274 -0.0364
 6415SOL    HW126295  10.111  11.319   7.325 -0.8005 -1.6009 -1.7504
 6415SOL    HW226296   9.987  11.374   7.257  0.6302 -0.1017 -3.2449
 6416SOL     OW26297   9.693   7.777   7.062  0.0392  0.2668 -0.9577
 6416SOL    HW126298   9.745   7.715   7.010  1.3768 -0.0061  0.6417
 6416SOL    HW226299   9.757   7.839   7.096 -1.1262  1.8176 -1.4822
 6417SOL     OW26300   8.511   9.639   4.009 -0.1281 -0.2109 -0.4953
 6417SOL    HW126301   8.517   9.734   4.022 -0.0980 -0.0170 -1.7610
 6417SOL    HW226302   8.468   9.630   3.924  0.4940 -1.3273 -0.7095
 6418SOL     OW26303  10.426   4.378   1.080 -0.4459 -0.5103  0.0269
 6418SOL    HW126304  10.395   4.332   1.158  1.0097 -1.2091  0.2210
 6418SOL    HW226305  10.437   4.469   1.110 -0.2582 -0.6964  0.5461
 6419SOL     OW26306   1.165  11.411   5.833  0.3573  0.2318 -0.4174
 6419SOL    HW126307   1.141  11.338   5.890 -0.5553  0.4773 -0.4794
 6419SOL    HW226308   1.256  11.393   5.808  1.5338  1.0962  2.6804
 6420SOL     OW26309   3.374   4.450   4.606  0.0447  0.1072  0.6357
 6420SOL    HW126310   3.446   4.507   4.632  0.2242 -0.0124  0.4040
 6420SOL    HW226311   3.391   4.367   4.650 -1.5195  0.9383  2.9780
 6421SOL     OW26312  12.139   7.428   2.863  0.1483  0.0560  0.5380
 6421SOL    HW126313  12.181   7.453   2.780 -1.4870  0.0387 -0.3365
 6421SOL    HW226314  12.203   7.371   2.905  0.6633 -0.6928 -1.1393
 6422SOL     OW26315   1.056   0.268   2.469  0.3934 -0.0828 -0.5553
 6422SOL    HW126316   1.122   0.326   2.507  0.1168  0.0746 -0.3176
 6422SOL    HW226317   0.974   0.297   2.507  0.1937 -0.3229 -0.8041
 6423SOL     OW26318   6.245   8.990   2.920 -0.4577 -0.0188  0.2245
 6423SOL    HW126319   6.154   8.999   2.947 -0.8184  0.0298 -0.9736
 6423SOL    HW226320   6.255   8.898   2.896 -0.9338  0.4806 -2.1282
 6424SOL     OW26321   0.722   6.602   8.917 -0.0544  0.7569  0.4273
 6424SOL    HW126322   0.761   6.530   8.967  0.4714 -0.2102 -1.3121
 6424SOL    HW226323   0.631   6.604   8.947 -0.4569 -1.5599 -0.4460
 6425SOL     OW26324   7.188  10.765  10.692 -0.3225 -0.1113 -0.3020
 6425SOL    HW126325   7.179  10.717  10.609 -0.4517  0.5228 -0.6617
 6425SOL    HW226326   7.282  10.783  10.699 -0.1339 -1.2465  0.3190
 6426SOL     OW26327   2.808   5.828   9.923  0.3004 -0.2921 -0.5198
 6426SOL    HW126328   2.854   5.873   9.852  0.1406 -0.2755 -0.6145
 6426SOL    HW226329   2.757   5.898   9.965 -0.8950 -0.5770 -1.4159
 6427SOL     OW26330   1.493  10.567   0.163  0.5569  0.2948 -0.0681
 6427SOL    HW126331   1.474  10.640   0.221 -0.2105 -0.4175  0.6050
 6427SOL    HW226332   1.535  10.502   0.219  0.4848 -0.1095 -0.4772
 6428SOL     OW26333   7.766   0.046   2.490 -0.5796  0.1198  0.1107
 6428SOL    HW126334   7.826   0.095   2.433 -0.8053  0.9807  0.5942
 6428SOL    HW226335   7.761  -0.041   2.451 -0.2833  0.5279 -0.8555
 6429SOL     OW26336   3.354   9.310  12.005  0.5624  0.6321 -0.7017
 6429SOL    HW126337   3.437   9.292  11.962  1.0380 -0.6327  0.6861
 6429SOL    HW226338   3.322   9.225  12.034 -0.7143  1.2182 -0.2813
 6430SOL     OW26339   8.771   1.372   1.888  0.8076  0.8774 -0.0562
 6430SOL    HW126340   8.863   1.395   1.903  1.0868 -1.0132  1.7335
 6430SOL    HW226341   8.757   1.296   1.945 -0.8629 -1.2168 -3.0007
 6431SOL     OW26342   8.332  10.974   5.794  0.6354  0.0239  0.2791
 6431SOL    HW126343   8.356  11.047   5.850 -0.9641 -0.4980  1.7454
 6431SOL    HW226344   8.384  10.900   5.827 -0.7007 -0.4148  1.5302
 6432SOL     OW26345   7.137   9.150   9.595  0.1843 -0.1662 -0.2651
 6432SOL    HW126346   7.044   9.136   9.577 -0.1581  1.5154  0.0214
 6432SOL    HW226347   7.170   9.191   9.516  0.5098 -0.0575 -0.0731
 6433SOL     OW26348   4.671   3.858   6.104 -0.1752 -0.3500 -0.3109
 6433SOL    HW126349   4.674   3.865   6.009  1.4244  0.5589 -0.2329
 6433SOL    HW226350   4.638   3.943   6.134 -2.7168 -1.3441 -0.0843
 6434SOL     OW26351   8.814   5.119   3.423 -0.5153 -0.0224 -0.5180
 6434SOL    HW126352   8.816   5.093   3.514  0.7513  1.6872 -0.0001
 6434SOL    HW226353   8.872   5.057   3.378  1.1934  0.8500  0.3890
 6435SOL     OW26354   3.735   8.472   1.997  0.2586 -0.2154 -0.2886
 6435SOL    HW126355   3.701   8.543   1.942 -0.4818 -0.2137  0.1627
 6435SOL    HW226356   3.830   8.488   1.999  0.4234 -0.6736 -2.1912
 6436SOL     OW26357  10.951   9.031   4.915  0.1317 -0.3338  0.6614
 6436SOL    HW126358  11.035   8.984   4.916  0.7616  0.7672  2.1876
 6436SOL    HW226359  10.975   9.123   4.925 -1.2304  0.0844  0.2514
 6437SOL     OW26360   2.365   8.587   6.048 -0.0041  0.2666 -0.0873
 6437SOL    HW126361   2.322   8.521   6.103 -0.4032 -0.6221 -1.4212
 6437SOL    HW226362   2.457   8.582   6.073  0.0887 -1.3006 -0.6373
 6438SOL     OW26363  10.116   6.913   9.734 -0.1641 -0.3231  0.0762
 6438SOL    HW126364  10.147   6.957   9.654 -0.2836 -1.1735 -0.4578
 6438SOL    HW226365  10.177   6.940   9.802  0.5243 -0.3559 -0.5218
 6439SOL     OW26366  10.625  12.449   9.755  0.3414 -0.3774  0.9465
 6439SOL    HW126367  10.712  12.484   9.736 -0.1851  0.7452  0.5199
 6439SOL    HW226368  10.619  12.370   9.703  0.5839  0.2996 -0.1338
 6440SOL     OW26369   2.266   2.927  12.551 -0.3362  0.2994  0.0702
 6440SOL    HW126370   2.343   2.979  12.530  0.1344 -0.7872 -1.0073
 6440SOL    HW226371   2.238   2.959  12.637  1.5706  0.4215  0.6979
 6441SOL     OW26372  10.511  11.141   9.267  0.3279 -0.2076  0.7998
 6441SOL    HW126373  10.572  11.189   9.322 -1.4485  0.0428  2.7003
 6441SOL    HW226374  10.527  11.049   9.288  0.2039 -0.1560  1.1212
 6442SOL     OW26375   7.351   3.219   1.662  0.2537 -0.4472 -0.1051
 6442SOL    HW126376   7.388   3.195   1.577  0.2107 -1.3070  0.1100
 6442SOL    HW226377   7.345   3.315   1.660  1.6971 -0.3456 -0.4695
 6443SOL     OW26378   4.241   5.572   4.193 -0.1427 -0.6354 -0.0773
 6443SOL    HW126379   4.152   5.588   4.160 -0.0013 -3.2707 -2.0905
 6443SOL    HW226380   4.298   5.605   4.123  0.3736 -1.0547  0.1379
 6444SOL     OW26381  10.856   5.670   4.182 -0.1973  0.2165 -0.1546
 6444SOL    HW126382  10.926   5.616   4.146  0.7607  0.3975  1.3678
 6444SOL    HW226383  10.776   5.618   4.168  0.3902 -0.5365 -0.8014
 6445SOL     OW26384  11.944   9.443   7.672 -0.0534  0.2258 -0.9336
 6445SOL    HW126385  11.917   9.355   7.697 -1.8012  1.5774  2.7221
 6445SOL    HW226386  12.033   9.451   7.707  0.0365 -0.0189 -1.1014
 6446SOL     OW26387   6.881   4.996   0.987 -0.4613 -0.2862  0.0830
 6446SOL    HW126388   6.962   4.954   1.016  0.6532  1.1440 -0.7965
 6446SOL    HW226389   6.872   5.073   1.042  0.1787  0.9349 -1.4534
 6447SOL     OW26390   2.631   6.671   1.034 -0.4561 -0.2099 -0.4213
 6447SOL    HW126391   2.707   6.622   1.065 -0.9344 -1.1724 -0.6902
 6447SOL    HW226392   2.666   6.755   1.005  0.1249  0.3858  1.8450
 6448SOL     OW26393  12.214  10.790  11.088 -0.3482 -0.5591 -0.1755
 6448SOL    HW126394  12.257  10.818  11.169  0.8957  0.9553 -1.2914
 6448SOL    HW226395  12.141  10.735  11.118  0.2641 -0.3342  1.9444
 6449SOL     OW26396   0.525   4.475   3.427  0.5364 -0.3039  0.1328
 6449SOL    HW126397   0.476   4.548   3.389 -1.4058 -0.4402  2.1688
 6449SOL    HW226398   0.560   4.428   3.351 -0.9893  0.8379 -1.3690
 6450SOL     OW26399   7.675   1.498   4.352 -0.1065 -0.3128  0.2175
 6450SOL    HW126400   7.661   1.406   4.329  1.2606 -0.6376  0.6564
 6450SOL    HW226401   7.706   1.538   4.271 -2.0200  0.1029 -0.3666
 6451SOL     OW26402   1.149   5.483   6.651 -0.0503 -0.0246 -0.3045
 6451SOL    HW126403   1.196   5.549   6.702 -0.2921  0.2895 -0.4776
 6451SOL    HW226404   1.105   5.429   6.716 -0.9392  0.8080 -0.1755
 6452SOL     OW26405   1.577  11.638   8.332  0.4830 -0.1709 -0.0681
 6452SOL    HW126406   1.501  11.683   8.297  0.8337  0.0463 -0.5594
 6452SOL    HW226407   1.594  11.567   8.270 -0.2870 -1.2422  0.8837
 6453SOL     OW26408  11.867   8.000   2.854 -0.3554  0.2058  0.1177
 6453SOL    HW126409  11.909   7.962   2.932 -1.1848 -2.4114 -0.6010
 6453SOL    HW226410  11.776   8.012   2.880  0.0170  2.4926  0.5399
 6454SOL     OW26411   6.297   9.547   0.779 -0.1816 -0.3435 -0.2304
 6454SOL    HW126412   6.235   9.526   0.709 -3.1278  0.6335  1.8654
 6454SOL    HW226413   6.314   9.641   0.769  0.2783 -0.4326 -0.2866
 6455SOL     OW26414   6.662   0.246  10.454 -0.4783  0.1072 -0.1601
 6455SOL    HW126415   6.725   0.270  10.386 -3.7415  1.5090 -2.9651
 6455SOL    HW226416   6.712   0.251  10.535  2.8651  1.6508 -2.1065
 6456SOL     OW26417   3.493   2.851   4.488  0.2881 -0.7642  0.0980
 6456SOL    HW126418   3.550   2.775   4.501 -0.7465 -1.6562 -0.4277
 6456SOL    HW226419   3.408   2.824   4.524  0.3298  0.7582  1.4271
 6457SOL     OW26420   3.338   9.877   6.787 -0.6067  0.0417  0.3970
 6457SOL    HW126421   3.353   9.821   6.712 -0.7243 -0.0511  0.4413
 6457SOL    HW226422   3.372   9.827   6.862  0.4614  0.5673  0.2790
 6458SOL     OW26423   2.757   8.125   3.933  0.2154 -0.0789  0.0287
 6458SOL    HW126424   2.683   8.141   3.875 -1.1354  1.4761  2.0499
 6458SOL    HW226425   2.798   8.046   3.898 -1.7901 -0.4158 -1.7599
 6459SOL     OW26426   0.880   5.502   8.814  0.1298  0.1380 -0.3555
 6459SOL    HW126427   0.886   5.478   8.906  3.1045 -2.5468 -1.0651
 6459SOL    HW226428   0.796   5.468   8.785 -0.5386  0.4172  1.1668
 6460SOL     OW26429  10.056  12.404  10.112 -0.0990 -0.0060 -0.1177
 6460SOL    HW126430   9.985  12.366  10.164 -0.9226  0.5181 -0.8328
 6460SOL    HW226431  10.080  12.484  10.159 -0.5806  0.2654 -0.3189
 6461SOL     OW26432  12.518   7.017  10.748  0.0248  0.6058 -0.1586
 6461SOL    HW126433  12.434   7.034  10.789  0.7610 -0.8257  2.1697
 6461SOL    HW226434  12.497   6.995  10.658 -2.2313 -0.6334  0.5828
 6462SOL     OW26435   7.932   1.277   7.399 -0.3499  0.8914  0.2722
 6462SOL    HW126436   8.023   1.298   7.423 -0.0526  2.0818 -1.6980
 6462SOL    HW226437   7.937   1.189   7.361 -0.3987  0.1004  2.0129
 6463SOL     OW26438  12.261   6.103  11.605 -0.0400 -0.2401 -0.0034
 6463SOL    HW126439  12.182   6.083  11.655  0.3954  1.7283  1.5940
 6463SOL    HW226440  12.232   6.099  11.514 -2.0423  0.5079  0.5236
 6464SOL     OW26441  10.403   2.778   6.805  0.1208  0.2097 -0.5476
 6464SOL    HW126442  10.433   2.803   6.717  0.4338  1.2036 -0.1704
 6464SOL    HW226443  10.307   2.780   6.799  0.1363  1.3650 -0.5764
 6465SOL     OW26444  10.030   4.923   0.415 -0.0682 -0.2303 -0.4772
 6465SOL    HW126445  10.066   4.988   0.355  1.8008 -0.2122  0.5942
 6465SOL    HW226446   9.950   4.893   0.373 -0.5206  2.1062 -1.4259
 6466SOL     OW26447   9.593   4.517   3.815 -0.4127  0.4736  0.9136
 6466SOL    HW126448   9.544   4.599   3.806 -1.1895 -0.1576 -1.0296
 6466SOL    HW226449   9.595   4.501   3.910 -0.3693  2.6275  1.3263
 6467SOL     OW26450  11.868   4.716   6.555  0.5996  0.3259  0.7185
 6467SOL    HW126451  11.905   4.788   6.503 -1.2594 -0.1064 -1.3047
 6467SOL    HW226452  11.920   4.640   6.530 -0.5342  0.0379 -0.9023
 6468SOL     OW26453   8.190   9.631  10.609 -0.1483 -0.0127  0.1480
 6468SOL    HW126454   8.125   9.688  10.568 -0.1830  0.0001  0.2203
 6468SOL    HW226455   8.268   9.639  10.553 -0.0133  0.4380  0.3920
 6469SOL     OW26456   1.291   0.710   7.198  0.4725 -0.2278  0.5186
 6469SOL    HW126457   1.203   0.685   7.170 -0.3833  3.1742 -0.4015
 6469SOL    HW226458   1.350   0.664   7.140 -0.9860  0.9947 -2.1301
 6470SOL     OW26459   9.988  10.136   9.982  0.3866 -0.3543 -0.2425
 6470SOL    HW126460   9.996  10.099   9.894  1.2218  0.1366 -0.3952
 6470SOL    HW226461  10.051  10.209   9.982 -1.1386  1.0248  0.0593
 6471SOL     OW26462   7.794  10.136  12.419  1.1170 -0.2088  0.9036
 6471SOL    HW126463   7.786  10.200  12.489  0.2909  0.7962 -0.0605
 6471SOL    HW226464   7.848  10.179  12.352 -2.5116  1.1880 -1.4510
 6472SOL     OW26465  10.557  12.344   3.986 -0.1457  0.1130  0.3429
 6472SOL    HW126466  10.471  12.357   4.026 -0.3045 -0.0477  0.0550
 6472SOL    HW226467  10.541  12.357   3.892 -0.0254 -0.7733  0.1975
 6473SOL     OW26468   7.903   3.781  11.131  0.2689 -0.0121  0.2581
 6473SOL    HW126469   7.900   3.844  11.060  2.0424 -0.2877 -0.1210
 6473SOL    HW226470   7.917   3.696  11.088  1.4118 -0.1753  0.8998
 6474SOL     OW26471   6.061   4.001  10.252  0.1271  0.1520  0.3127
 6474SOL    HW126472   5.987   4.033  10.200  0.5752  1.2339  0.3113
 6474SOL    HW226473   6.020   3.956  10.326 -0.5173 -0.5104 -0.4306
 6475SOL     OW26474   2.482   4.303   8.371  0.1572  0.1538  0.5425
 6475SOL    HW126475   2.427   4.380   8.384 -0.6580 -0.6311  1.9488
 6475SOL    HW226476   2.533   4.295   8.452  2.2169  0.7129 -0.6173
 6476SOL     OW26477   8.134   0.991   3.275  0.4152 -0.2039 -0.0256
 6476SOL    HW126478   8.183   0.997   3.357 -0.0324 -2.8069  0.5200
 6476SOL    HW226479   8.180   1.051   3.216  1.1333  1.2762  1.8909
 6477SOL     OW26480   3.254  12.092   9.667 -0.1853 -0.7809  0.0526
 6477SOL    HW126481   3.199  12.162   9.704  0.0106  0.0903 -1.2094
 6477SOL    HW226482   3.229  12.014   9.715 -2.7685 -0.4872 -0.6119
 6478SOL     OW26483   8.398  10.004   5.954  0.0970 -0.2561 -0.0163
 6478SOL    HW126484   8.437  10.087   5.983  0.2457 -0.3669  0.1065
 6478SOL    HW226485   8.383  10.016   5.861  2.2134 -0.8801 -0.4898
 6479SOL     OW26486   5.177   9.702   1.013  0.3221  0.0324  0.0492
 6479SOL    HW126487   5.263   9.744   1.011 -0.5937  2.0160 -2.2957
 6479SOL    HW226488   5.143   9.724   1.100  0.9518  1.9873 -0.1431
 6480SOL     OW26489   8.262   6.500   6.908 -0.1666  0.8462 -0.6499
 6480SOL    HW126490   8.263   6.444   6.830  1.2438 -0.3315  0.1627
 6480SOL    HW226491   8.328   6.566   6.890  1.6788 -0.6315  0.3085
 6481SOL     OW26492   5.272  10.979   8.042 -0.0382 -0.3632 -0.2242
 6481SOL    HW126493   5.302  10.993   7.952 -0.8395 -1.7209 -0.7454
 6481SOL    HW226494   5.285  11.063   8.085  3.8198 -0.5994 -0.5533
 6482SOL     OW26495   9.702   3.809   2.729  0.0141  0.1546  0.1903
 6482SOL    HW126496   9.677   3.901   2.729 -1.7384 -0.2735  0.4119
 6482SOL    HW226497   9.732   3.792   2.819  0.5612  0.5678  0.0831
 6483SOL     OW26498   9.310   7.463   9.555  0.6822 -0.1065  0.2802
 6483SOL    HW126499   9.307   7.522   9.631  0.9303 -0.6847  0.7417
 6483SOL    HW226500   9.246   7.395   9.575  2.0987 -1.3295  0.8755
 6484SOL     OW26501   6.743   5.430   7.933  0.1616 -0.3096  0.0268
 6484SOL    HW126502   6.783   5.469   7.856 -0.5029 -1.4205 -0.9003
 6484SOL    HW226503   6.751   5.498   8.001  1.4625  0.3802 -0.7756
 6485SOL     OW26504  11.637   9.411   6.881  0.2448  0.3995  0.4086
 6485SOL    HW126505  11.614   9.325   6.847 -0.6517  0.4538  0.8446
 6485SOL    HW226506  11.661   9.462   6.804  0.7646 -0.2222  0.1458
 6486SOL     OW26507   6.011   5.200   7.347 -0.1299 -0.2757  0.0278
 6486SOL    HW126508   6.017   5.147   7.427  1.4150 -0.6593 -0.3175
 6486SOL    HW226509   5.953   5.149   7.290 -0.2482 -0.6158  0.4428
 6487SOL     OW26510   6.539   3.961   4.006 -0.0952  0.0302  0.0015
 6487SOL    HW126511   6.534   3.904   3.929 -1.1668  1.0638 -0.7301
 6487SOL    HW226512   6.478   4.032   3.987 -0.6118  0.1599  1.9484
 6488SOL     OW26513   8.345  10.696   3.190 -0.3278 -0.1521  0.2277
 6488SOL    HW126514   8.271  10.663   3.138 -2.0858 -0.5715  2.8113
 6488SOL    HW226515   8.417  10.636   3.171 -1.4389 -1.3577 -0.3441
 6489SOL     OW26516   3.322   4.486   0.848  0.3807 -0.3951 -0.0329
 6489SOL    HW126517   3.275   4.406   0.874 -0.0363 -0.7776 -1.8383
 6489SOL    HW226518   3.402   4.453   0.807  0.0295  0.0847 -1.1318
 6490SOL     OW26519   8.158  10.977   5.219 -0.6402 -0.1375 -0.1111
 6490SOL    HW126520   8.192  10.997   5.306 -1.3131 -1.5078  0.5059
 6490SOL    HW226521   8.109  10.895   5.231 -1.2981 -0.0012 -1.6439
 6491SOL     OW26522   4.346  10.479   6.835  0.2996  0.5308 -0.1864
 6491SOL    HW126523   4.334  10.385   6.845 -0.6743  0.6565 -0.0916
 6491SOL    HW226524   4.351  10.512   6.924 -0.7665  0.7270 -0.1837
 6492SOL     OW26525  12.018   6.208  12.302  0.3571  0.5764  0.0191
 6492SOL    HW126526  12.001   6.114  12.311  1.1370  0.2188 -1.8468
 6492SOL    HW226527  11.941   6.242  12.255  0.6715  0.6266 -0.4609
 6493SOL     OW26528   8.020   7.092   2.005 -0.0161 -0.2771 -0.2495
 6493SOL    HW126529   7.992   7.078   2.095  0.0243 -2.5420 -0.5218
 6493SOL    HW226530   7.938   7.098   1.955 -0.0555 -1.2112 -0.3168
 6494SOL     OW26531  11.478   8.904   9.605  0.1000 -0.0885  0.0941
 6494SOL    HW126532  11.511   8.815   9.592 -1.0257 -0.2562 -1.9087
 6494SOL    HW226533  11.536   8.959   9.553  0.4900  0.3086  0.9311
 6495SOL     OW26534   3.175   4.016   2.366 -0.7251 -0.4692  0.2239
 6495SOL    HW126535   3.217   3.983   2.446  0.2132  0.8707  0.3288
 6495SOL    HW226536   3.132   4.097   2.394  0.6425  0.6714 -0.8320
 6496SOL     OW26537   9.914   5.478  10.439  0.7143 -0.4971  0.4253
 6496SOL    HW126538   9.820   5.462  10.439  0.5272  0.4873  1.9804
 6496SOL    HW226539   9.953   5.390  10.441 -0.1550 -0.8950  0.3818
 6497SOL     OW26540   2.363   2.451  11.300 -0.0039 -0.4420 -0.7675
 6497SOL    HW126541   2.304   2.421  11.231  0.5009  0.0289 -1.4130
 6497SOL    HW226542   2.325   2.532  11.332  0.1000 -0.3276 -0.9332
 6498SOL     OW26543   8.791   3.123   3.538  0.0392 -0.0023 -0.1479
 6498SOL    HW126544   8.816   3.200   3.589  0.4861 -0.2206 -0.0316
 6498SOL    HW226545   8.848   3.125   3.462 -0.0107 -0.1648 -0.1906
 6499SOL     OW26546  10.762   3.676  12.057  0.2047 -0.3644 -0.0922
 6499SOL    HW126547  10.751   3.629  11.974  0.2124 -0.5476  0.0096
 6499SOL    HW226548  10.847   3.719  12.049  0.7051 -1.2699  0.2538
 6500SOL     OW26549   2.224   7.737  10.877 -0.1606 -0.3126  0.3794
 6500SOL    HW126550   2.150   7.678  10.892 -1.6609  1.3979  0.1010
 6500SOL    HW226551   2.261   7.751  10.964  0.6431 -2.1083  0.3777
 6501SOL     OW26552   1.449   6.181  11.341  0.3345 -0.2779  0.6298
 6501SOL    HW126553   1.438   6.130  11.421  1.5094  1.9042  2.2875
 6501SOL    HW226554   1.476   6.268  11.371  0.6625  0.6854 -2.1424
 6502SOL     OW26555  11.888   6.981   3.004 -0.1760 -0.6293  0.0531
 6502SOL    HW126556  11.910   6.991   3.096 -1.9337 -0.9792  0.5470
 6502SOL    HW226557  11.868   7.070   2.973  0.5254 -0.4975 -0.0397
 6503SOL     OW26558   2.562  10.294  11.100 -0.2210 -0.2738  0.4475
 6503SOL    HW126559   2.566  10.275  11.006 -2.1373  1.1092  0.0260
 6503SOL    HW226560   2.642  10.344  11.117 -0.4455  0.5519 -0.7531
 6504SOL     OW26561  10.528   0.231  12.252 -0.4938  0.2784  0.0124
 6504SOL    HW126562  10.599   0.181  12.213 -0.1020  2.3644 -2.1880
 6504SOL    HW226563  10.533   0.211  12.346  0.8185 -2.1995 -0.5183
 6505SOL     OW26564   7.020  11.888   2.014 -0.5911  0.2220  0.1160
 6505SOL    HW126565   7.062  11.952   1.956  0.2043 -0.9185 -0.6009
 6505SOL    HW226566   7.068  11.807   1.999 -0.3681 -0.1214  2.3903
 6506SOL     OW26567   0.412   4.886   1.104 -0.3911 -1.1021  0.5453
 6506SOL    HW126568   0.485   4.904   1.162 -0.4434 -0.2477  0.3683
 6506SOL    HW226569   0.352   4.960   1.117  0.5272  0.2115 -2.0227
 6507SOL     OW26570   6.677   6.597   4.516 -0.1093 -0.6414  0.0586
 6507SOL    HW126571   6.599   6.544   4.532 -0.2489 -0.4670 -0.0447
 6507SOL    HW226572   6.681   6.606   4.420  0.0056 -0.6039  0.0665
 6508SOL     OW26573   8.922   6.165   5.479  0.1989 -0.1087 -0.0723
 6508SOL    HW126574   8.870   6.092   5.446  0.3244 -0.6875  0.9771
 6508SOL    HW226575   8.894   6.176   5.570 -0.8368  2.0615 -0.5713
 6509SOL     OW26576   3.678   1.676   2.204  0.2498  0.2694 -0.2905
 6509SOL    HW126577   3.735   1.639   2.272  1.1645 -0.5759 -1.4673
 6509SOL    HW226578   3.624   1.740   2.250  1.7062  0.6353  0.9932
 6510SOL     OW26579   9.498  12.095   0.011  0.4674 -0.3865 -0.0853
 6510SOL    HW126580   9.426  12.045   0.047  0.9592 -0.8314  0.2976
 6510SOL    HW226581   9.574  12.069   0.063  0.7833  0.5599 -0.0505
 6511SOL     OW26582   2.162   8.888  10.746 -0.3255  0.6220 -0.5903
 6511SOL    HW126583   2.172   8.857  10.656 -0.6865  0.6909 -0.6558
 6511SOL    HW226584   2.251   8.890  10.781 -0.2920 -0.4570 -0.5965
 6512SOL     OW26585   1.474   7.392  10.215  0.0457 -0.0482  0.2867
 6512SOL    HW126586   1.394   7.370  10.262 -1.0123 -1.0838 -1.8559
 6512SOL    HW226587   1.447   7.453  10.147  1.0229 -0.5872 -0.6130
 6513SOL     OW26588   2.809   9.884   6.201  0.0837  0.2861  0.0279
 6513SOL    HW126589   2.717   9.856   6.198 -0.2449  1.3172 -0.3671
 6513SOL    HW226590   2.856   9.820   6.149 -0.3710 -0.4050  0.4546
 6514SOL     OW26591  10.181   3.984   0.082 -0.3224 -0.2414 -0.0366
 6514SOL    HW126592  10.204   3.902   0.038 -0.7515  0.1006 -0.9088
 6514SOL    HW226593  10.248   3.994   0.150  0.6681 -0.5028 -0.9574
 6515SOL     OW26594  11.781   0.502   9.707  0.5464  0.3247  0.0632
 6515SOL    HW126595  11.702   0.537   9.667 -0.4199 -1.5175  0.2771
 6515SOL    HW226596  11.848   0.568   9.690 -0.9375  1.7512 -0.4397
 6516SOL     OW26597   0.614   4.578   8.342 -0.0620  0.1970  0.1731
 6516SOL    HW126598   0.630   4.583   8.436 -0.9641  1.9983  0.2695
 6516SOL    HW226599   0.595   4.485   8.326 -4.6271  0.4144  2.6657
 6517SOL     OW26600   8.321   7.826   5.605  0.3216 -0.0917 -0.1788
 6517SOL    HW126601   8.368   7.893   5.556 -0.0963 -0.2019 -0.7356
 6517SOL    HW226602   8.275   7.775   5.539 -3.7733  2.3404  0.4282
 6518SOL     OW26603  12.249   8.823   9.029  0.1767  0.2813 -0.1493
 6518SOL    HW126604  12.225   8.908   9.066  1.5976  0.3954  0.5944
 6518SOL    HW226605  12.320   8.843   8.968 -0.4465 -0.2213 -1.0694
 6519SOL     OW26606   9.559  11.052   5.041  0.8224 -0.1065  0.3351
 6519SOL    HW126607   9.600  11.065   5.127  0.6250 -0.3785  0.4713
 6519SOL    HW226608   9.466  11.043   5.060  0.6036  1.2055 -0.0403
 6520SOL     OW26609   5.973   2.077   9.206  0.1268 -0.2848 -0.3498
 6520SOL    HW126610   6.023   2.026   9.268  0.3038  0.1663 -0.1160
 6520SOL    HW226611   5.989   2.168   9.231 -1.0434 -0.1315 -0.0809
 6521SOL     OW26612   9.518   9.757  11.335 -0.3827  0.2840  0.0768
 6521SOL    HW126613   9.608   9.780  11.360 -0.2556 -1.5108  1.4381
 6521SOL    HW226614   9.465   9.785  11.409 -1.2028  2.4172 -1.1949
 6522SOL     OW26615   1.481   0.109   7.376  0.4848 -0.1858 -0.7728
 6522SOL    HW126616   1.412   0.068   7.429 -1.2581  0.9465 -2.0790
 6522SOL    HW226617   1.527   0.035   7.335  0.4464 -0.9761  0.5386
 6523SOL     OW26618  11.886  12.241  12.593 -0.0980  0.2442  0.3163
 6523SOL    HW126619  11.877  12.274  12.503  0.2021  1.6373  0.7705
 6523SOL    HW226620  11.856  12.313  12.648 -0.8497 -0.8133  1.3416
 6524SOL     OW26621   8.901   2.423   9.305 -0.3676  0.1235  0.0662
 6524SOL    HW126622   8.852   2.490   9.352 -2.0582 -0.1233 -1.2338
 6524SOL    HW226623   8.990   2.458   9.299 -1.5918  3.3246 -2.3466
 6525SOL     OW26624   1.570  10.074   0.663 -0.1327 -0.1556 -0.1165
 6525SOL    HW126625   1.482  10.049   0.635 -0.4791  1.3615 -0.4591
 6525SOL    HW226626   1.556  10.121   0.746  0.2885  0.5437 -0.4319
 6526SOL     OW26627  11.914   6.025   7.030  0.3466 -0.1159 -0.2436
 6526SOL    HW126628  11.977   6.078   6.981  0.2701 -0.6560 -0.9364
 6526SOL    HW226629  11.879   6.085   7.096 -0.0940  0.8562 -1.3191
 6527SOL     OW26630   0.236  12.477   8.185 -0.3903  0.0176  0.1248
 6527SOL    HW126631   0.175  12.403   8.190  0.8740 -1.2335 -1.7827
 6527SOL    HW226632   0.321  12.440   8.209 -0.2532  1.6844  2.5546
 6528SOL     OW26633  10.955   8.160   8.246  0.0060  0.4408 -0.2129
 6528SOL    HW126634  11.020   8.165   8.175  1.2494 -2.2020  0.5954
 6528SOL    HW226635  10.882   8.110   8.208  0.4898 -0.6047  0.1826
 6529SOL     OW26636   8.072   0.052  12.154 -0.4691 -0.7255  0.1673
 6529SOL    HW126637   8.117   0.101  12.085  0.0909 -1.7233 -0.1819
 6529SOL    HW226638   8.017   0.118  12.197 -1.0118 -0.1335 -1.3596
 6530SOL     OW26639   3.119   8.271  11.306 -0.2556 -0.5380  0.3467
 6530SOL    HW126640   3.170   8.252  11.227 -0.5384  0.1010  0.0016
 6530SOL    HW226641   3.028   8.270  11.276 -0.4032 -0.9860  0.8123
 6531SOL     OW26642   8.056  11.493   5.851  0.0472  0.1084 -0.8079
 6531SOL    HW126643   8.107  11.450   5.782  0.8664 -1.4102  0.6604
 6531SOL    HW226644   7.966  11.462   5.838  0.4580 -1.3676 -0.3540
 6532SOL     OW26645  11.471   9.055   9.028  0.1164 -0.5773 -0.0080
 6532SOL    HW126646  11.564   9.031   9.030  0.3944  0.4084 -0.5257
 6532SOL    HW226647  11.425   8.972   9.010  1.0282 -0.7837 -1.5719
 6533SOL     OW26648   9.762   2.250   3.695 -0.0660 -0.1273 -0.1543
 6533SOL    HW126649   9.729   2.190   3.762  2.4109 -1.9080 -0.4042
 6533SOL    HW226650   9.821   2.308   3.742 -0.0136  0.0353 -0.4206
 6534SOL     OW26651   7.461   1.091   7.357  0.2103  0.2270 -0.4404
 6534SOL    HW126652   7.499   1.177   7.340  0.6785  0.0411 -0.3504
 6534SOL    HW226653   7.512   1.031   7.303  0.8455 -0.1840  0.5912
 6535SOL     OW26654   5.919   1.408   3.389  0.2502 -0.5263  0.1386
 6535SOL    HW126655   5.888   1.482   3.338 -0.6082 -1.6501 -1.0100
 6535SOL    HW226656   5.942   1.341   3.325 -2.2068 -2.5209  1.1745
 6536SOL     OW26657  11.735  10.215   3.089  0.0224 -0.1284 -0.2207
 6536SOL    HW126658  11.798  10.192   3.021  0.7973 -0.2169  0.5080
 6536SOL    HW226659  11.734  10.311   3.089 -1.9395 -0.0983 -2.1063
 6537SOL     OW26660  12.339   8.008   9.266  0.1779  0.2565  0.1647
 6537SOL    HW126661  12.337   8.074   9.336  2.5408 -0.0879  0.6315
 6537SOL    HW226662  12.252   7.969   9.268 -0.5420  1.7898  1.3987
 6538SOL     OW26663   1.911   8.592   2.812  0.0320 -0.3092  0.0031
 6538SOL    HW126664   1.907   8.511   2.761 -0.8657  1.1825 -2.4201
 6538SOL    HW226665   1.996   8.630   2.792 -0.2558  0.2089 -0.2500
 6539SOL     OW26666   7.681  10.003  10.326 -0.2336  0.0170 -0.1150
 6539SOL    HW126667   7.732   9.938  10.376  0.1456 -0.1811 -0.7466
 6539SOL    HW226668   7.747  10.055  10.280 -0.5306  0.9243  0.4613
 6540SOL     OW26669   3.132   0.286   5.014 -0.3236  0.5373  0.8268
 6540SOL    HW126670   3.155   0.194   5.030  1.6825  0.8852  0.1686
 6540SOL    HW226671   3.059   0.303   5.074 -0.2063 -1.2444  1.5439
 6541SOL     OW26672   3.352  12.323  10.767 -0.1878  0.2643  0.1238
 6541SOL    HW126673   3.359  12.311  10.862  2.0788 -4.1087 -0.3785
 6541SOL    HW226674   3.442  12.335  10.738 -0.8343  1.3390 -1.5613
 6542SOL     OW26675   9.714   1.361  10.587 -0.0869  0.2405 -0.1205
 6542SOL    HW126676   9.629   1.360  10.631 -0.4036  2.4573 -0.6022
 6542SOL    HW226677   9.764   1.429  10.631  0.3441  1.0426 -1.7740
 6543SOL     OW26678  10.544  10.274   1.035 -0.2042 -0.2126 -0.3439
 6543SOL    HW126679  10.590  10.256   1.116 -0.5043  0.9314  0.1015
 6543SOL    HW226680  10.451  10.261   1.056 -0.4486  1.8208  0.0381
 6544SOL     OW26681   5.304  10.868   3.263  0.1011  0.1913  0.5514
 6544SOL    HW126682   5.307  10.810   3.187  0.2297 -0.7257  1.2326
 6544SOL    HW226683   5.248  10.822   3.326  0.7246  0.4997  1.3543
 6545SOL     OW26684   6.593   7.787   7.789 -0.1443  0.0924 -0.0080
 6545SOL    HW126685   6.642   7.825   7.862  0.1295 -0.1677 -0.0575
 6545SOL    HW226686   6.544   7.714   7.829  0.0393 -0.0771 -0.0916
 6546SOL     OW26687   1.507  12.171  12.147 -0.2960 -0.0776 -0.3771
 6546SOL    HW126688   1.525  12.125  12.229  0.2794  0.3890 -0.2325
 6546SOL    HW226689   1.590  12.166  12.099 -0.1449  1.0118 -0.2528
 6547SOL     OW26690  11.355   4.346   5.555 -0.1368 -0.4619 -0.0013
 6547SOL    HW126691  11.273   4.333   5.507 -0.8867 -0.3983  1.2228
 6547SOL    HW226692  11.411   4.273   5.527 -2.0526 -2.9519  2.0780
 6548SOL     OW26693   2.728   1.227   1.723  0.1985  0.2935  0.2338
 6548SOL    HW126694   2.664   1.240   1.653  0.3669  1.0983  0.2112
 6548SOL    HW226695   2.682   1.178   1.790 -0.1384  0.0102 -0.2058
 6549SOL     OW26696   9.874   6.396   0.471 -0.1553  0.0298 -0.0731
 6549SOL    HW126697   9.810   6.371   0.538  0.5520  1.2318  1.1188
 6549SOL    HW226698   9.953   6.346   0.494 -0.8820 -2.3572 -2.2222
 6550SOL     OW26699   1.505   7.089   4.024  0.3620 -0.0866 -0.7797
 6550SOL    HW126700   1.490   7.091   4.118  0.8857  0.8868 -0.7035
 6550SOL    HW226701   1.543   7.002   4.008  1.3811  0.1756  0.0872
 6551SOL     OW26702   1.098   2.983   1.725  1.0250 -0.3757  0.3980
 6551SOL    HW126703   1.127   3.035   1.800 -0.1087  1.9462 -0.6453
 6551SOL    HW226704   1.002   2.986   1.730  0.9078  0.3117 -1.3880
 6552SOL     OW26705   8.172   7.414   3.089 -0.1874  0.0877  0.0247
 6552SOL    HW126706   8.181   7.416   3.184  0.2166 -0.2080 -0.0034
 6552SOL    HW226707   8.209   7.497   3.059 -1.1903  0.6102  0.1850
 6553SOL     OW26708   4.542   2.004   3.313  0.2798  0.0030  0.0620
 6553SOL    HW126709   4.592   2.083   3.293  0.0573  0.7377  2.1462
 6553SOL    HW226710   4.606   1.945   3.353 -0.2004  0.3850  1.4204
 6554SOL     OW26711   1.851   4.472   4.151  0.3897  0.0672 -0.2090
 6554SOL    HW126712   1.790   4.425   4.209  0.3751 -1.4536 -1.3785
 6554SOL    HW226713   1.938   4.449   4.183  0.4044 -1.4836 -1.2373
 6555SOL     OW26714   0.263   2.661   3.236  0.9200 -0.3033  0.1711
 6555SOL    HW126715   0.212   2.608   3.297  0.1637 -1.5218 -1.4569
 6555SOL    HW226716   0.354   2.640   3.257  0.6914 -0.4699  1.0494
 6556SOL     OW26717   3.907   5.731  12.464  0.5415  0.2918  0.0030
 6556SOL    HW126718   3.817   5.761  12.474 -0.4121 -2.2318 -0.1505
 6556SOL    HW226719   3.928   5.749  12.372 -0.5208 -0.7794 -0.4708
 6557SOL     OW26720   9.846   7.592   7.511  0.0892  0.3848  0.0169
 6557SOL    HW126721   9.931   7.610   7.471  0.4392 -3.7037 -1.5286
 6557SOL    HW226722   9.784   7.602   7.439 -0.7768  2.6787  0.9845
 6558SOL     OW26723  11.983   3.190   8.975 -0.4460  0.1513 -0.7253
 6558SOL    HW126724  11.941   3.176   9.059  0.4366  1.9751  0.0660
 6558SOL    HW226725  11.919   3.241   8.924 -0.1391  0.8938 -0.3750
 6559SOL     OW26726   4.764   4.745   3.161 -0.2915  0.1002 -0.1542
 6559SOL    HW126727   4.717   4.750   3.244 -0.2157  1.3019 -0.1686
 6559SOL    HW226728   4.762   4.834   3.127 -0.1925 -0.3453 -1.3740
 6560SOL     OW26729  11.495   1.665   0.319  0.0849 -0.0407  0.2784
 6560SOL    HW126730  11.483   1.617   0.401 -3.3460  1.4659  0.7945
 6560SOL    HW226731  11.560   1.732   0.340 -0.0939 -0.2305  1.4929
 6561SOL     OW26732   1.525   3.567   0.624 -0.3598  0.4600  0.3565
 6561SOL    HW126733   1.498   3.479   0.651 -1.0893  0.8750  1.0253
 6561SOL    HW226734   1.525   3.618   0.705  0.8349  0.9005  0.1110
 6562SOL     OW26735  11.861  11.092  11.246  0.2893  0.0460  0.1626
 6562SOL    HW126736  11.772  11.088  11.282 -0.2051 -0.5405 -1.0552
 6562SOL    HW226737  11.907  11.020  11.288  0.1480  0.2755  0.7111
 6563SOL     OW26738   9.039   8.527   4.429 -0.2948  0.4703 -0.1922
 6563SOL    HW126739   9.056   8.447   4.379 -0.0593 -0.3109  1.0703
 6563SOL    HW226740   9.091   8.594   4.386  2.1256 -0.7814  0.6095
 6564SOL     OW26741   2.957   0.879  12.385  0.0321  0.6874 -0.1901
 6564SOL    HW126742   3.027   0.943  12.391 -1.1435  1.9267  1.0135
 6564SOL    HW226743   2.984   0.807  12.443  0.7542  0.6875 -0.5263
 6565SOL     OW26744   3.149  11.670   0.864 -0.1524 -0.3850 -0.0380
 6565SOL    HW126745   3.164  11.714   0.780  1.1889  0.3452  0.5544
 6565SOL    HW226746   3.116  11.583   0.841  0.8609 -0.4471 -1.3379
 6566SOL     OW26747   6.976  12.344  12.115  0.2277 -0.0076 -0.0848
 6566SOL    HW126748   7.069  12.320  12.123  0.3751  1.0758  3.3646
 6566SOL    HW226749   6.931  12.286  12.177 -1.1319  0.7039 -0.3627
 6567SOL     OW26750  11.618   6.485  10.897  0.6621 -0.4842  0.5165
 6567SOL    HW126751  11.546   6.449  10.845  0.2993  0.0438  0.6421
 6567SOL    HW226752  11.670   6.535  10.834  1.3498 -1.4790  0.2769
 6568SOL     OW26753   7.109  10.120   4.731 -0.3951 -0.0739 -0.3461
 6568SOL    HW126754   7.067  10.051   4.783 -0.6834 -0.9456 -1.6832
 6568SOL    HW226755   7.197  10.086   4.713 -0.6984 -0.3158 -1.4047
 6569SOL     OW26756  11.938   1.299   3.853 -0.5427  0.2691  0.3768
 6569SOL    HW126757  11.883   1.235   3.897 -0.2418  1.1538  2.1103
 6569SOL    HW226758  11.945   1.372   3.915  3.4130 -0.2121  0.7618
 6570SOL     OW26759   9.956   9.273  11.704  0.2375 -0.2205 -0.5095
 6570SOL    HW126760   9.942   9.193  11.653 -0.2955  1.2023 -2.7933
 6570SOL    HW226761  10.002   9.331  11.643  1.9169  0.7446  1.5717
 6571SOL     OW26762  10.520   0.456  11.601 -0.6284 -0.0771 -0.0972
 6571SOL    HW126763  10.578   0.436  11.527  0.5554 -1.2435  1.1086
 6571SOL    HW226764  10.576   0.500  11.664 -0.7773 -2.0715  1.4979
 6572SOL     OW26765   9.110   2.788  10.341  0.2277 -0.9569  0.8880
 6572SOL    HW126766   9.025   2.757  10.310  0.7745  0.1812 -2.1166
 6572SOL    HW226767   9.089   2.853  10.408 -1.2953 -0.7469  0.2592
 6573SOL     OW26768  10.081   5.647   2.570  0.3961  0.4939 -0.2806
 6573SOL    HW126769  10.031   5.662   2.490 -2.2327 -1.1509  0.9061
 6573SOL    HW226770  10.043   5.708   2.633  1.1740  0.4977  0.1908
 6574SOL     OW26771  10.564   7.985  10.170  0.1777 -0.4367 -0.4735
 6574SOL    HW126772  10.660   7.992  10.162  0.3692  2.1076  2.2837
 6574SOL    HW226773  10.533   7.994  10.080  2.5097 -0.9870 -1.4237
 6575SOL     OW26774   2.969   2.244   3.939 -0.2017 -0.0436  0.3101
 6575SOL    HW126775   3.053   2.283   3.913 -1.0254  2.0122  0.5154
 6575SOL    HW226776   2.931   2.213   3.857 -1.2685  3.3098 -0.6317
 6576SOL     OW26777   6.032   2.747   3.374  1.0649 -0.1038  0.2232
 6576SOL    HW126778   5.988   2.705   3.447  3.4179 -0.7552  1.3556
 6576SOL    HW226779   6.070   2.826   3.411  1.8701 -0.1847 -0.4037
 6577SOL     OW26780   1.757   0.748  12.343  0.0436  0.2638  0.3114
 6577SOL    HW126781   1.819   0.762  12.271  1.5053 -1.0318  1.2387
 6577SOL    HW226782   1.733   0.656  12.336 -0.5392  0.3638  0.9398
 6578SOL     OW26783   9.937   6.694  11.364  0.1446 -0.2576  0.2225
 6578SOL    HW126784  10.029   6.672  11.356  0.0886 -0.6133  0.5474
 6578SOL    HW226785   9.892   6.610  11.374 -0.2498 -0.1132 -0.2582
 6579SOL     OW26786   2.837   7.213  11.613 -0.2094  0.6989 -0.0166
 6579SOL    HW126787   2.932   7.220  11.603 -0.3140  0.8428 -1.0321
 6579SOL    HW226788   2.805   7.302  11.602 -0.3880  0.8611  1.5404
 6580SOL     OW26789  12.107   7.708   7.476  0.3971  0.3137 -1.0640
 6580SOL    HW126790  12.077   7.656   7.401 -2.6180  0.7766 -0.3077
 6580SOL    HW226791  12.089   7.653   7.552  2.1543  0.4134 -0.5204
 6581SOL     OW26792   5.583   6.863  11.872  0.3130  0.0207  0.4679
 6581SOL    HW126793   5.607   6.950  11.905  2.6557 -1.1497  2.1390
 6581SOL    HW226794   5.655   6.839  11.813 -0.9793 -0.3001 -1.0398
 6582SOL     OW26795  12.527   9.310   3.634 -0.4936 -0.3485 -0.0214
 6582SOL    HW126796  12.594   9.249   3.666 -1.0304 -0.4681  0.8735
 6582SOL    HW226797  12.466   9.320   3.706 -1.6533 -0.5128 -0.9509
 6583SOL     OW26798   2.911  11.317   5.378 -0.5787  0.0301 -0.1807
 6583SOL    HW126799   2.933  11.226   5.359  3.4890  1.0001 -1.0138
 6583SOL    HW226800   2.841  11.338   5.317 -2.5358 -2.7702  0.8841
 6584SOL     OW26801   1.311   2.651   5.318 -0.0850  0.1750 -0.3186
 6584SOL    HW126802   1.387   2.699   5.286  0.4989 -0.9428 -0.6884
 6584SOL    HW226803   1.238   2.712   5.310  0.7435  1.2081 -0.1321
 6585SOL     OW26804   8.752   3.007   0.504 -0.0973 -0.6439 -0.1069
 6585SOL    HW126805   8.792   2.928   0.466  0.4733 -0.6626  0.5290
 6585SOL    HW226806   8.691   3.037   0.436  1.7455 -0.0004 -1.5763
 6586SOL     OW26807  11.364  11.744   8.328  0.1489  0.3604 -0.3640
 6586SOL    HW126808  11.278  11.707   8.349 -0.5631  0.0885 -3.3358
 6586SOL    HW226809  11.349  11.838   8.327  0.6878  0.5475  1.9693
 6587SOL     OW26810   8.108   1.283   7.736 -0.7493 -0.0285  0.1136
 6587SOL    HW126811   8.124   1.199   7.693  0.5257 -0.1623  0.7908
 6587SOL    HW226812   8.022   1.273   7.777 -1.3555 -0.3941 -1.1842
 6588SOL     OW26813   9.329   9.784   3.131 -0.4463  0.1932  0.2166
 6588SOL    HW126814   9.348   9.736   3.051 -3.3299 -1.6026  0.4648
 6588SOL    HW226815   9.318   9.716   3.198  0.0378  1.5317  1.7297
 6589SOL     OW26816   0.126   5.324   2.819  0.1007 -0.5374 -0.5557
 6589SOL    HW126817   0.099   5.416   2.818  0.5173 -0.3854  0.8087
 6589SOL    HW226818   0.183   5.315   2.742  0.9414  0.6278 -0.1007
 6590SOL     OW26819   7.904   7.554  11.495  0.1092  0.1687 -0.2867
 6590SOL    HW126820   7.919   7.496  11.420 -0.4558  0.9640 -1.0357
 6590SOL    HW226821   7.991   7.562  11.536  0.2611 -0.9158 -0.3702
 6591SOL     OW26822   0.743  12.452   8.934 -0.3049 -0.3089 -0.6566
 6591SOL    HW126823   0.702  12.436   8.849 -0.8983  0.0652 -0.4487
 6591SOL    HW226824   0.781  12.540   8.926  1.8565 -1.2424 -1.3736
 6592SOL     OW26825   6.605   4.661  11.705  0.3495  0.7313  0.6981
 6592SOL    HW126826   6.700   4.651  11.701  0.2720 -0.0924  0.7969
 6592SOL    HW226827   6.570   4.576  11.678 -0.4010  1.5873 -1.2772
 6593SOL     OW26828   1.276   5.835   0.900 -0.2649 -0.2256  0.1029
 6593SOL    HW126829   1.343   5.902   0.887  0.6045 -0.8477  1.1979
 6593SOL    HW226830   1.208   5.879   0.951  0.1747 -0.0812  0.5837
 6594SOL     OW26831   3.129   7.876   5.923 -0.2174  0.2968 -0.0916
 6594SOL    HW126832   3.065   7.829   5.976  0.4501  1.3669  1.7575
 6594SOL    HW226833   3.083   7.897   5.842 -2.0264  0.5248  0.9383
 6595SOL     OW26834   9.237   4.966   2.732 -0.1836 -0.0841  0.2614
 6595SOL    HW126835   9.155   4.916   2.735 -0.1375 -0.1110  1.5335
 6595SOL    HW226836   9.303   4.906   2.767  0.0191  0.5788  1.0585
 6596SOL     OW26837  11.803   5.170   8.044 -0.1153  0.0432 -0.0791
 6596SOL    HW126838  11.750   5.230   8.096  1.1596  1.1202  0.0386
 6596SOL    HW226839  11.755   5.161   7.962 -1.5888 -0.8022  0.8385
 6597SOL     OW26840   8.531   0.666   7.514  0.4472 -0.1286  0.2093
 6597SOL    HW126841   8.553   0.591   7.569  0.0938  0.7177  1.5451
 6597SOL    HW226842   8.555   0.742   7.566 -0.9738  0.7268 -0.3425
 6598SOL     OW26843   5.030   6.070   1.938  0.1998 -0.4591 -0.3240
 6598SOL    HW126844   5.012   6.159   1.908 -4.0855 -0.9195  0.1741
 6598SOL    HW226845   5.072   6.027   1.864  1.1903  1.5820 -1.0212
 6599SOL     OW26846   6.057   6.631   9.979 -0.2311 -0.0511 -0.8588
 6599SOL    HW126847   6.045   6.612   9.886  1.7428  0.3370 -1.2342
 6599SOL    HW226848   6.105   6.556  10.013  1.2541  0.9210 -0.7398
 6600SOL     OW26849   2.900   0.233   5.971 -0.4127  0.0458 -0.0068
 6600SOL    HW126850   2.851   0.163   5.928 -1.0840  0.7353 -0.3703
 6600SOL    HW226851   2.836   0.303   5.983  0.2376  0.5716  0.4254
 6601SOL     OW26852   1.362   6.597   0.590  0.0969  0.5417  0.7013
 6601SOL    HW126853   1.337   6.535   0.522 -2.5339  4.3515 -2.1967
 6601SOL    HW226854   1.291   6.591   0.654  0.9978 -0.8332  1.6483
 6602SOL     OW26855   4.944   1.286  11.869 -0.1879  0.1851  0.0376
 6602SOL    HW126856   4.966   1.347  11.799  0.4232  0.5264  0.5169
 6602SOL    HW226857   4.980   1.202  11.839  0.1401  0.3463 -0.0269
 6603SOL     OW26858  12.567   7.004   1.142 -0.5326  0.4595  0.5775
 6603SOL    HW126859  12.559   6.914   1.109 -1.7325  0.6294  0.3568
 6603SOL    HW226860  12.625   7.047   1.081  1.0380 -0.4698  1.3530
 6604SOL     OW26861   9.777   3.445   1.274 -0.7316 -0.0112 -0.5721
 6604SOL    HW126862   9.849   3.448   1.211 -0.1852  0.2061  0.0502
 6604SOL    HW226863   9.729   3.365   1.253  1.9722 -2.3883  1.4235
 6605SOL     OW26864   2.466   9.707   9.341  0.2733 -0.1365  0.3872
 6605SOL    HW126865   2.461   9.729   9.434  0.3978  0.8203  0.1785
 6605SOL    HW226866   2.376   9.690   9.315 -0.4594  3.8003 -0.2688
 6606SOL     OW26867  11.511   6.315   8.884 -0.3132  0.1047 -0.7789
 6606SOL    HW126868  11.431   6.276   8.849 -2.7429  2.9659  1.1985
 6606SOL    HW226869  11.537   6.257   8.956  0.3715 -1.6296 -2.3283
 6607SOL     OW26870   7.055   0.769   4.450  0.2173  0.1630 -0.2732
 6607SOL    HW126871   7.060   0.804   4.361 -0.2414 -1.2475 -0.8854
 6607SOL    HW226872   6.962   0.752   4.465  0.4286 -0.9342 -0.0798
 6608SOL     OW26873   5.503   7.403   0.887  0.1532  0.1741  0.6200
 6608SOL    HW126874   5.479   7.467   0.820  0.4430 -1.8378 -1.5271
 6608SOL    HW226875   5.420   7.376   0.925 -0.2526 -0.3014 -0.5586
 6609SOL     OW26876   0.918  11.211   7.811 -0.0268  0.1054 -0.0212
 6609SOL    HW126877   0.835  11.236   7.770 -0.1178 -0.7266 -0.3634
 6609SOL    HW226878   0.893  11.150   7.880  0.1229  1.5153  1.3421
 6610SOL     OW26879   5.055  10.039   9.996  0.6736  0.4380 -1.2135
 6610SOL    HW126880   5.135  10.045  10.049  1.6775  0.1311 -2.6454
 6610SOL    HW226881   4.987  10.011  10.058  0.9630  3.5051  0.6921
 6611SOL     OW26882   4.931   9.040   4.278 -1.0377 -0.2704  0.2500
 6611SOL    HW126883   4.942   9.128   4.241 -0.5335  0.0280  1.0770
 6611SOL    HW226884   4.845   9.042   4.320 -0.6001  0.1780  1.1589
 6612SOL     OW26885   9.871   1.173   2.039  0.4037 -0.5345 -0.3441
 6612SOL    HW126886   9.963   1.186   2.063  0.6096  0.3084 -1.4850
 6612SOL    HW226887   9.842   1.099   2.093  1.4012 -0.0462  0.9083
 6613SOL     OW26888   1.101   3.700   2.662 -0.0097 -0.4393 -0.7125
 6613SOL    HW126889   1.018   3.706   2.707  0.3194 -0.5007 -0.0920
 6613SOL    HW226890   1.166   3.725   2.727  0.7361 -3.1657 -0.2486
 6614SOL     OW26891   9.417   1.625  11.939 -0.0516  0.4672  0.2919
 6614SOL    HW126892   9.511   1.613  11.922 -0.0079 -1.0194  1.4084
 6614SOL    HW226893   9.374   1.594  11.860  0.3611 -0.2991  0.3579
 6615SOL     OW26894   1.910   5.779  12.514 -0.1086 -0.5430  0.1183
 6615SOL    HW126895   1.942   5.753  12.427 -0.3892 -0.3785 -0.0379
 6615SOL    HW226896   1.925   5.703  12.569 -0.0216 -0.6870 -0.1024
 6616SOL     OW26897   8.086   5.776   6.280 -0.1834 -0.0386  0.5448
 6616SOL    HW126898   8.103   5.773   6.374 -1.3167 -0.0506  0.7734
 6616SOL    HW226899   8.135   5.852   6.248  0.6149 -0.3325  1.0458
 6617SOL     OW26900   7.514   5.973  12.517  0.4051 -0.5409 -0.4945
 6617SOL    HW126901   7.451   5.982  12.588 -0.3083 -0.6459 -1.0943
 6617SOL    HW226902   7.463   5.993  12.438  1.6544  1.6242 -0.8218
 6618SOL     OW26903   1.647   9.997   2.708 -0.0469 -0.2127 -0.0040
 6618SOL    HW126904   1.628   9.946   2.630 -0.4834 -0.6124  0.3560
 6618SOL    HW226905   1.742   9.990   2.720 -0.3191 -2.8300  1.2971
 6619SOL     OW26906   7.435   9.545   8.216 -0.3432  0.2872 -0.1570
 6619SOL    HW126907   7.372   9.501   8.159 -2.5387  0.6486  1.8693
 6619SOL    HW226908   7.430   9.637   8.190 -0.1382  0.2227 -0.4349
 6620SOL     OW26909  11.463   3.624   5.069  0.1586  0.3464 -0.6561
 6620SOL    HW126910  11.382   3.658   5.106  0.6479  0.0436  0.7429
 6620SOL    HW226911  11.435   3.551   5.013 -0.5774  0.6609 -0.7063
 6621SOL     OW26912   4.424   2.296   6.101  0.0693  0.4451  0.4379
 6621SOL    HW126913   4.436   2.390   6.093  2.0213  0.2871  1.0221
 6621SOL    HW226914   4.470   2.259   6.026  1.9888 -0.1439  1.8309
 6622SOL     OW26915   0.045   5.780   9.808  0.0500 -0.4062 -0.1178
 6622SOL    HW126916   0.110   5.781   9.738  1.7772  3.2483  1.2594
 6622SOL    HW226917  -0.027   5.835   9.776  0.9099  1.3976  0.8947
 6623SOL     OW26918   1.840   9.136  12.489 -0.5048  0.3537 -0.2918
 6623SOL    HW126919   1.806   9.076  12.422 -1.2300 -1.7168  1.7819
 6623SOL    HW226920   1.932   9.147  12.467 -0.0879 -2.3433 -0.3065
 6624SOL     OW26921   6.887   4.261  11.862 -0.6375  0.3185 -0.4736
 6624SOL    HW126922   6.966   4.215  11.888 -0.4209  0.5138 -0.7844
 6624SOL    HW226923   6.913   4.315  11.788 -1.1355  0.1335 -0.7949
 6625SOL     OW26924   8.016  12.318   0.659  0.7236  0.2256  0.2540
 6625SOL    HW126925   8.049  12.241   0.706  0.0747  1.1561  2.3079
 6625SOL    HW226926   8.095  12.364   0.632  1.1167 -0.9184 -0.6572
 6626SOL     OW26927  10.300   0.250   0.516 -0.2635 -0.0714  0.0690
 6626SOL    HW126928  10.221   0.290   0.552 -1.1374 -1.2815 -0.4390
 6626SOL    HW226929  10.268   0.179   0.459  1.0954  0.8834 -2.0181
 6627SOL     OW26930   1.501   5.950   4.422  0.6610  0.3185 -0.2135
 6627SOL    HW126931   1.410   5.929   4.445  1.0640 -0.6007  0.6149
 6627SOL    HW226932   1.506   6.046   4.430  0.0618  0.2769  0.9243
 6628SOL     OW26933   9.504   1.900   6.586  0.8918 -0.4615  0.2680
 6628SOL    HW126934   9.552   1.971   6.543  0.5053  0.1298  0.7933
 6628SOL    HW226935   9.572   1.841   6.618  1.1944 -0.7371 -0.8428
 6629SOL     OW26936   0.012  11.711   6.205 -0.2131  0.1223  0.5661
 6629SOL    HW126937  -0.071  11.752   6.230 -1.0768 -1.5226  0.5169
 6629SOL    HW226938   0.047  11.767   6.136  0.0906  2.3518  2.3923
 6630SOL     OW26939   7.890  12.594   7.014  0.1822 -0.1729 -0.0222
 6630SOL    HW126940   7.840  12.601   6.932  1.7306  1.2749 -0.9111
 6630SOL    HW226941   7.952  12.522   6.998 -0.1453 -0.5237  0.2602
 6631SOL     OW26942   2.780  10.396   0.961  0.0670  0.1621  0.1463
 6631SOL    HW126943   2.806  10.310   0.995  0.2345  0.4496  0.7502
 6631SOL    HW226944   2.806  10.458   1.029  0.9706  0.8198 -0.7551
 6632SOL     OW26945  10.472  12.140   0.682 -0.1378 -0.0837  0.4086
 6632SOL    HW126946  10.509  12.061   0.720 -1.4152  0.3291  2.7570
 6632SOL    HW226947  10.387  12.112   0.646  1.4225 -0.6613 -3.2819
 6633SOL     OW26948   5.100   2.549  11.916  0.1991  0.1153  0.5334
 6633SOL    HW126949   5.071   2.590  11.998 -1.4445  0.2784 -0.0843
 6633SOL    HW226950   5.026   2.494  11.890  1.1075 -0.7327 -0.3235
 6634SOL     OW26951   3.189   3.227  10.205  0.3619  0.3950 -0.2257
 6634SOL    HW126952   3.151   3.306  10.242  1.2419  0.5739  0.3237
 6634SOL    HW226953   3.178   3.161  10.272 -1.9670 -0.4698 -1.3471
 6635SOL     OW26954   0.583   5.993   5.602 -0.5635  0.6644 -0.2141
 6635SOL    HW126955   0.545   6.071   5.562  0.7674  0.6890 -1.5422
 6635SOL    HW226956   0.509   5.933   5.613 -1.0312  0.6387 -2.8303
 6636SOL     OW26957   9.292   9.989   3.509  0.0170 -0.1324 -0.0176
 6636SOL    HW126958   9.261  10.079   3.520 -0.0266  0.5458 -4.1623
 6636SOL    HW226959   9.359   9.995   3.441  2.2622 -2.9328  1.6929
 6637SOL     OW26960   0.748   4.201   4.977  0.6861 -0.2375  0.4493
 6637SOL    HW126961   0.742   4.255   5.056  1.1008  0.0721  0.2692
 6637SOL    HW226962   0.755   4.112   5.010 -1.2232 -0.3356  0.7505
 6638SOL     OW26963   2.211   3.738  10.652  0.0178  0.0181  0.2542
 6638SOL    HW126964   2.290   3.769  10.608  0.5358 -0.1371  1.0490
 6638SOL    HW226965   2.242   3.672  10.714 -0.5040  1.1275  1.7758
 6639SOL     OW26966   9.103  11.840   8.516 -0.7323  0.5197  0.3952
 6639SOL    HW126967   9.116  11.847   8.422  0.0747 -0.0999  0.4471
 6639SOL    HW226968   9.090  11.747   8.532 -1.5525  0.7056  0.8174
 6640SOL     OW26969   9.271   8.032   5.054  0.4245  0.3352 -0.3856
 6640SOL    HW126970   9.223   8.054   4.974  0.5905  1.9447 -0.0691
 6640SOL    HW226971   9.258   7.938   5.064 -2.5628  0.6378 -0.3964
 6641SOL     OW26972   1.603   4.766   7.617  0.1656 -0.0242 -0.3037
 6641SOL    HW126973   1.683   4.767   7.565 -0.5976  2.3900 -1.5767
 6641SOL    HW226974   1.557   4.687   7.589  0.9594 -0.1310 -1.3621
 6642SOL     OW26975   9.455   9.762   7.719  0.5088 -0.0354 -0.0123
 6642SOL    HW126976   9.425   9.672   7.728  1.5277 -0.5298 -1.2560
 6642SOL    HW226977   9.538   9.765   7.767  1.5087 -0.3373 -1.6631
 6643SOL     OW26978   1.925  11.608   5.896 -0.1625 -0.8681  0.0008
 6643SOL    HW126979   1.895  11.627   5.985 -3.0019 -1.5083 -0.7435
 6643SOL    HW226980   1.926  11.693   5.852 -0.0874 -0.7404  0.2447
 6644SOL     OW26981   2.338   6.360   0.955 -0.0643 -0.5273 -0.8856
 6644SOL    HW126982   2.281   6.431   0.984 -0.2610 -1.5147  1.2922
 6644SOL    HW226983   2.395   6.401   0.890 -2.4365  0.7713 -2.3116
 6645SOL     OW26984  10.996   9.990   6.718 -0.3450  0.4289 -0.5343
 6645SOL    HW126985  10.911  10.013   6.680 -0.3318  1.9014  0.2677
 6645SOL    HW226986  11.034  10.074   6.745  2.3494  0.1336 -2.8391
 6646SOL     OW26987   7.477   5.721   2.088  0.5078 -0.3915  0.2613
 6646SOL    HW126988   7.482   5.701   2.182  1.4092  0.0132  0.3048
 6646SOL    HW226989   7.513   5.644   2.045  0.5822 -0.3634  0.2724
 6647SOL     OW26990  10.320   2.395  10.527  0.1246 -0.4863 -0.7462
 6647SOL    HW126991  10.356   2.470  10.575 -0.6380 -0.8797  0.4752
 6647SOL    HW226992  10.228   2.391  10.553  0.0620 -1.6087 -1.0931
 6648SOL     OW26993  11.677  10.474  11.695  0.1901 -0.1260  0.6527
 6648SOL    HW126994  11.702  10.386  11.723 -0.1266 -0.5661 -0.3930
 6648SOL    HW226995  11.732  10.532  11.748 -0.9815 -0.8515  2.7870
 6649SOL     OW26996   3.841  11.512   7.770 -0.3400  0.4142  0.2793
 6649SOL    HW126997   3.839  11.607   7.759 -0.4016  0.1828 -2.3842
 6649SOL    HW226998   3.754  11.490   7.806 -0.2013  1.3639  1.2386
 6650SOL     OW26999   6.734   3.629   3.855  0.1700 -0.1931  0.1687
 6650SOL    HW127000   6.817   3.671   3.876 -0.2026  0.2273  0.8527
 6650SOL    HW227001   6.675   3.659   3.924 -0.5659 -0.4294 -0.3538
 6651SOL     OW27002   6.417   3.588   7.595 -0.0525  0.0322  0.2329
 6651SOL    HW127003   6.355   3.516   7.580 -0.8853  0.2162  2.3793
 6651SOL    HW227004   6.388   3.657   7.536 -1.2863 -0.2607  0.4613
 6652SOL     OW27005   7.008  12.252   5.265  0.2308  0.2536  0.4272
 6652SOL    HW127006   7.018  12.190   5.193 -0.5914  1.3877 -0.7006
 6652SOL    HW227007   6.914  12.255   5.281  0.4392 -0.4300  1.9965
 6653SOL     OW27008   2.606   9.987   5.024  0.0125  0.0779  0.0497
 6653SOL    HW127009   2.590  10.044   5.099  0.8126 -1.1188  1.1738
 6653SOL    HW227010   2.667  10.036   4.968 -1.4252  1.4203 -0.3954
 6654SOL     OW27011  11.674   6.913  10.903 -0.0248 -0.2525  0.5872
 6654SOL    HW127012  11.656   6.855  10.829  0.5429 -0.6604  0.7605
 6654SOL    HW227013  11.653   7.001  10.871 -0.3658 -0.4948  0.1438
 6655SOL     OW27014   2.923   7.533   0.543 -0.3604  0.3553 -0.1316
 6655SOL    HW127015   2.983   7.469   0.505 -0.5537 -0.0095  0.1736
 6655SOL    HW227016   2.917   7.603   0.478 -0.6663 -0.2510 -0.7582
 6656SOL     OW27017  10.121  12.415   0.623  0.5012 -0.1236 -0.2032
 6656SOL    HW127018  10.067  12.458   0.689 -0.4079 -0.2651 -0.8464
 6656SOL    HW227019  10.175  12.353   0.673 -0.4135 -0.4742  0.3649
 6657SOL     OW27020   1.117   0.300   1.611 -0.1409  0.5708  0.1955
 6657SOL    HW127021   1.074   0.316   1.528 -2.5374  1.0787  1.4384
 6657SOL    HW227022   1.155   0.385   1.635  1.2652  0.2278 -0.6974
 6658SOL     OW27023   3.442   8.483   9.869  0.1852 -0.1245 -0.4142
 6658SOL    HW127024   3.432   8.563   9.920  0.8070 -0.5215  0.3485
 6658SOL    HW227025   3.535   8.461   9.877  0.0379 -0.8724 -0.6964
 6659SOL     OW27026   6.851   6.216  11.535 -0.0169 -0.0020 -0.5987
 6659SOL    HW127027   6.844   6.311  11.534 -2.7467 -0.1318  0.1666
 6659SOL    HW227028   6.896   6.197  11.618  0.0926  0.5996 -0.5143
 6660SOL     OW27029   7.625   6.099   4.581  0.4688 -0.6195  0.4554
 6660SOL    HW127030   7.555   6.149   4.538 -0.7551 -0.1028  2.8463
 6660SOL    HW227031   7.629   6.017   4.533 -1.1831 -0.2981 -0.3110
 6661SOL     OW27032   0.238   9.463  10.198  0.2658  0.1620  0.6194
 6661SOL    HW127033   0.295   9.507  10.260  0.2785 -1.4246  1.7762
 6661SOL    HW227034   0.179   9.410  10.252  0.3904 -1.4025 -0.6954
 6662SOL     OW27035   0.148   8.686   1.468  0.1222  0.3825 -0.0250
 6662SOL    HW127036   0.053   8.672   1.462  0.1935 -0.0366 -0.2267
 6662SOL    HW227037   0.159   8.746   1.542 -0.4074  1.6331 -0.9332
 6663SOL     OW27038   0.082   4.448  11.856  0.1322 -0.0049  0.4433
 6663SOL    HW127039   0.150   4.388  11.825 -0.4626 -0.3376 -0.2520
 6663SOL    HW227040   0.123   4.534  11.854  0.0032  0.0820 -1.8229
 6664SOL     OW27041   4.657   9.946   9.910  0.1592  0.8613  0.3140
 6664SOL    HW127042   4.715   9.993   9.970  1.5197  1.7286 -1.5683
 6664SOL    HW227043   4.663   9.855   9.938 -0.5490  1.4092  2.4665
 6665SOL     OW27044   5.736   5.261  11.494 -0.2331 -0.2227  0.5093
 6665SOL    HW127045   5.656   5.211  11.505 -0.8202  0.6066  0.1446
 6665SOL    HW227046   5.713   5.330  11.432  0.9680 -0.4169 -0.1894
 6666SOL     OW27047   1.720  11.936   5.286 -0.0029  0.1591  0.1121
 6666SOL    HW127048   1.706  11.889   5.368  1.2396  1.1234  0.9161
 6666SOL    HW227049   1.775  11.877   5.233  0.6628  0.2451  0.6888
 6667SOL     OW27050  10.834  12.082   8.373 -0.3545  0.4776  0.3354
 6667SOL    HW127051  10.780  12.157   8.396  0.1917  1.1044 -0.3610
 6667SOL    HW227052  10.838  12.030   8.453 -0.2160  1.5254  1.0282
 6668SOL     OW27053   1.507   9.092  12.057 -0.2094  0.1681  0.0982
 6668SOL    HW127054   1.573   9.138  12.110 -0.7765 -0.3545  1.2878
 6668SOL    HW227055   1.551   9.011  12.030 -0.0205  0.2906  0.0320
 6669SOL     OW27056   3.497   8.058   7.826 -0.6759  0.2494  0.1564
 6669SOL    HW127057   3.433   8.079   7.759 -0.1424 -0.0655 -0.4561
 6669SOL    HW227058   3.445   8.051   7.907 -1.8379 -2.3418 -0.6885
 6670SOL     OW27059   6.964   8.503   0.509  0.6443 -0.4810 -0.4071
 6670SOL    HW127060   7.019   8.553   0.570 -0.6757 -0.0393  0.4647
 6670SOL    HW227061   6.916   8.442   0.565 -0.0482 -0.5875 -1.1023
 6671SOL     OW27062   9.613   7.364   3.696  0.1942 -0.5379  0.0879
 6671SOL    HW127063   9.640   7.283   3.653  2.4814  0.5413 -0.6411
 6671SOL    HW227064   9.651   7.358   3.784  0.1113 -0.3757  0.1355
 6672SOL     OW27065   8.730   5.938   3.424 -0.0259 -0.3873  0.0703
 6672SOL    HW127066   8.763   5.992   3.352 -1.2876 -0.8046 -0.8613
 6672SOL    HW227067   8.753   5.987   3.503  3.7672 -1.1306 -0.3330
 6673SOL     OW27068   9.449   7.728   0.113 -0.1024  0.0856  1.1282
 6673SOL    HW127069   9.455   7.632   0.116 -1.2887  0.0217  2.8352
 6673SOL    HW227070   9.367   7.746   0.067 -0.1315  0.2869  1.2584
 6674SOL     OW27071   4.883   8.632  11.672 -0.0343 -0.9353  0.1923
 6674SOL    HW127072   4.917   8.698  11.732 -1.0326  0.7401 -0.9954
 6674SOL    HW227073   4.811   8.590  11.720  1.3857 -2.0783  1.4089
 6675SOL     OW27074   5.443  10.625   0.646 -0.1970  0.2981 -0.3584
 6675SOL    HW127075   5.514  10.636   0.582  0.4821  1.2924  0.5423
 6675SOL    HW227076   5.456  10.536   0.680 -1.0117 -0.5439 -2.0734
 6676SOL     OW27077   1.033   0.983   1.264  0.2246 -0.0357 -0.4513
 6676SOL    HW127078   0.972   0.938   1.205  1.3662 -1.3303 -0.6955
 6676SOL    HW227079   0.979   1.009   1.339 -1.1475  1.1964 -1.7872
 6677SOL     OW27080  10.805   4.273   1.278  0.0736  0.2338  0.1305
 6677SOL    HW127081  10.781   4.235   1.194 -1.9780  1.0689  0.2932
 6677SOL    HW227082  10.877   4.217   1.310  1.6184  0.5118 -2.5900
 6678SOL     OW27083   5.188  10.030   8.182  0.2010  0.1080  0.3622
 6678SOL    HW127084   5.200  10.061   8.271  1.6277  0.4474  0.0723
 6678SOL    HW227085   5.099  10.058   8.159  1.5653  4.8886 -0.1721
 6679SOL     OW27086   0.856   0.946   2.366 -0.6577 -0.0884 -0.0036
 6679SOL    HW127087   0.916   0.957   2.292 -0.7069 -1.1246 -0.2100
 6679SOL    HW227088   0.851   0.852   2.379 -0.5530  0.0855  1.4130
 6680SOL     OW27089  10.545   3.478  12.107  0.2176  0.0599 -0.7114
 6680SOL    HW127090  10.577   3.391  12.083  1.8301  0.1228  1.0278
 6680SOL    HW227091  10.623   3.525  12.135 -0.5603  2.2167 -1.9320
 6681SOL     OW27092   0.637   2.422   1.006  0.0765 -0.2886  0.2722
 6681SOL    HW127093   0.589   2.408   1.088  0.3515 -1.6772  0.2157
 6681SOL    HW227094   0.597   2.361   0.944 -0.8923  1.5223 -0.9971
 6682SOL     OW27095   0.469  10.202   5.805 -0.1083 -0.0907  0.2411
 6682SOL    HW127096   0.435  10.152   5.731  1.1871 -1.1899  0.3502
 6682SOL    HW227097   0.547  10.154   5.833  1.2916  2.0177  0.2796
 6683SOL     OW27098   8.878   7.248   8.565 -0.6145  0.0977 -0.3922
 6683SOL    HW127099   8.866   7.326   8.512 -0.1228 -1.0602 -2.3214
 6683SOL    HW227100   8.796   7.200   8.556 -1.2586  0.7528  1.5163
 6684SOL     OW27101   7.446   1.247   4.908  0.4921  0.5498  0.1273
 6684SOL    HW127102   7.466   1.160   4.874  1.6987  1.0414 -0.4969
 6684SOL    HW227103   7.485   1.307   4.844  1.7635  1.5222  1.7374
 6685SOL     OW27104   1.997  10.602   8.807  0.3303  0.0201 -0.1519
 6685SOL    HW127105   1.957  10.686   8.828 -0.3309 -0.6093  1.1520
 6685SOL    HW227106   1.928  10.553   8.763  0.9548  0.4138 -1.6423
 6686SOL     OW27107   9.023   3.100  12.023 -0.2492 -0.0113  0.0988
 6686SOL    HW127108   9.055   3.013  11.997 -2.1191 -0.4239 -1.0369
 6686SOL    HW227109   8.928   3.092  12.020 -0.4706  1.8677  0.7808
 6687SOL     OW27110   2.753   7.025  12.527  0.2292  0.0112  0.9167
 6687SOL    HW127111   2.691   6.976  12.581  0.0664 -0.9262 -0.0875
 6687SOL    HW227112   2.822   6.961  12.505  2.1865  1.2973  2.9097
 6688SOL     OW27113  11.128   7.457   9.352 -0.7254  0.0228 -0.1679
 6688SOL    HW127114  11.182   7.461   9.432 -0.7124 -0.0948 -0.1711
 6688SOL    HW227115  11.063   7.390   9.371 -0.3291 -0.4659 -0.4953
 6689SOL     OW27116   4.511   0.939  12.146  0.1586  0.1202 -0.0397
 6689SOL    HW127117   4.522   0.948  12.241 -0.0784 -1.5829  0.1890
 6689SOL    HW227118   4.534   0.848  12.129 -1.6096 -0.1297 -1.3359
 6690SOL     OW27119   6.919   9.470  11.049  0.2520 -0.2890 -0.3913
 6690SOL    HW127120   7.008   9.451  11.080  0.7075  0.9475 -0.8549
 6690SOL    HW227121   6.931   9.542  10.988 -1.2172  0.7391  0.4724
 6691SOL     OW27122   8.652   5.251  11.611 -0.2893 -0.0469  0.0427
 6691SOL    HW127123   8.742   5.282  11.619 -1.0991  2.5893  0.0236
 6691SOL    HW227124   8.652   5.195  11.534  0.8458  2.1834 -1.7070
 6692SOL     OW27125   7.597   4.224   2.286  0.0549  0.5250 -0.1535
 6692SOL    HW127126   7.611   4.130   2.292 -1.4739  0.2195 -0.8644
 6692SOL    HW227127   7.624   4.258   2.372  0.8008 -0.5187  0.0422
 6693SOL     OW27128   4.663   4.736   8.591 -0.0699 -0.1500  0.0912
 6693SOL    HW127129   4.570   4.714   8.595  0.1275 -0.8828  0.8557
 6693SOL    HW227130   4.678   4.792   8.668  0.1459 -0.1194  0.0286
 6694SOL     OW27131   9.629   0.092   3.010 -0.4749  0.0085 -0.1361
 6694SOL    HW127132   9.655   0.080   2.919 -0.0812 -3.6955  0.3051
 6694SOL    HW227133   9.534   0.079   3.010 -0.7805  1.9132 -0.1859
 6695SOL     OW27134   1.344   4.175  10.920 -0.1056 -0.7636  0.3256
 6695SOL    HW127135   1.381   4.107  10.977  0.4549 -0.3627  0.4510
 6695SOL    HW227136   1.336   4.133  10.835 -1.3387 -1.5064  0.7791
 6696SOL     OW27137   3.088   0.368   1.110 -0.2298  0.1768  0.1502
 6696SOL    HW127138   3.017   0.401   1.165 -2.1508 -3.5495  0.2048
 6696SOL    HW227139   3.166   0.372   1.166 -0.9345  1.7459  1.0807
 6697SOL     OW27140   4.584   4.283   2.986 -0.0021  0.0609 -0.2103
 6697SOL    HW127141   4.530   4.243   3.053 -1.6121  1.0483 -0.8722
 6697SOL    HW227142   4.568   4.377   2.995  0.1842  0.2458 -1.6149
 6698SOL     OW27143  12.581   3.723  10.930  0.8888  0.3423  0.3646
 6698SOL    HW127144  12.598   3.728  11.024 -0.3856 -0.9896  0.7135
 6698SOL    HW227145  12.643   3.659  10.897 -1.1913 -2.2496  1.0955
 6699SOL     OW27146   8.344   7.431   1.960  0.4388  0.1578  0.4616
 6699SOL    HW127147   8.334   7.472   2.046  3.6980  1.1996  0.5104
 6699SOL    HW227148   8.324   7.501   1.898  1.3611  0.4550  0.4772
 6700SOL     OW27149  11.195   3.661   2.374  0.2072  0.4908  0.2872
 6700SOL    HW127150  11.229   3.589   2.427  1.8075  0.4010 -0.8132
 6700SOL    HW227151  11.106   3.633   2.350  0.0850 -0.2188  1.4677
 6701SOL     OW27152   6.648   8.510  11.672 -0.1771  0.1240 -0.2811
 6701SOL    HW127153   6.584   8.441  11.686  0.2769 -0.4283 -0.8748
 6701SOL    HW227154   6.600   8.591  11.689 -0.5852 -0.3497  0.8658
 6702SOL     OW27155   7.049   7.945   7.700  0.2325  0.5467 -0.1060
 6702SOL    HW127156   7.121   7.959   7.638  0.8559  0.9160  0.6872
 6702SOL    HW227157   7.059   8.015   7.764 -1.1642  0.9242 -0.2786
 6703SOL     OW27158   7.951   1.154  10.214  0.2015  0.4039 -0.4565
 6703SOL    HW127159   7.909   1.105  10.143 -0.6089  0.4635 -0.0322
 6703SOL    HW227160   7.943   1.246  10.188 -1.2757  0.5217  0.3014
 6704SOL     OW27161   9.693   3.099   6.448  0.3108 -0.3039  0.1707
 6704SOL    HW127162   9.757   3.027   6.447  1.6813  0.8591  0.2453
 6704SOL    HW227163   9.621   3.068   6.395  0.7154 -1.8727  0.4881
 6705SOL     OW27164   5.641   7.800   4.992  0.1531  0.3114 -0.1031
 6705SOL    HW127165   5.574   7.862   5.020 -2.0721 -1.7677 -0.5538
 6705SOL    HW227166   5.647   7.811   4.897 -0.1391 -0.0368 -0.1650
 6706SOL     OW27167   0.377   0.164   6.925 -0.1827 -0.6647  0.1220
 6706SOL    HW127168   0.288   0.198   6.931  0.2057  0.3935  0.1490
 6706SOL    HW227169   0.371   0.089   6.865 -0.6781  0.9304 -1.9393
 6707SOL     OW27170  10.473   9.458   2.295 -0.4453  0.0324  0.3460
 6707SOL    HW127171  10.459   9.403   2.372  1.1447  0.4051  0.9348
 6707SOL    HW227172  10.521   9.402   2.233 -1.0417 -0.0222 -0.0777
 6708SOL     OW27173   4.863   9.433  11.891 -0.7442 -0.1395  0.4449
 6708SOL    HW127174   4.864   9.520  11.931  0.7502 -0.2865  0.7948
 6708SOL    HW227175   4.887   9.448  11.800 -2.3603 -0.0022  0.0161
 6709SOL     OW27176   8.848  10.566   6.851 -0.0351 -0.1971 -0.2036
 6709SOL    HW127177   8.854  10.493   6.789 -2.5184  0.7997 -1.7469
 6709SOL    HW227178   8.796  10.531   6.924 -1.7398  0.1137 -1.2142
 6710SOL     OW27179   7.623   2.304  10.535  0.2400  0.3762  0.1097
 6710SOL    HW127180   7.580   2.221  10.556  0.8463  0.2902  1.0889
 6710SOL    HW227181   7.701   2.305  10.590  0.2711  1.5750  0.0697
 6711SOL     OW27182   8.679   3.758   5.441 -0.0284  0.6520  0.2490
 6711SOL    HW127183   8.635   3.679   5.473 -1.0845  0.7835 -0.8207
 6711SOL    HW227184   8.731   3.728   5.367 -2.8833  1.3616 -2.2395
 6712SOL     OW27185   1.849   6.550  10.551  0.3195 -0.0955  0.0663
 6712SOL    HW127186   1.829   6.639  10.522 -1.2317  0.0314  1.4083
 6712SOL    HW227187   1.812   6.494  10.483 -0.3935  0.2578  0.1528
 6713SOL     OW27188   0.439   3.935   3.833 -0.2392 -0.0941  0.2604
 6713SOL    HW127189   0.357   3.959   3.791  0.9856 -1.1193 -3.0277
 6713SOL    HW227190   0.485   4.018   3.846 -0.2124  0.2312 -1.6156
 6714SOL     OW27191  10.757   4.949  10.551  0.8188 -0.2274 -0.2366
 6714SOL    HW127192  10.741   4.855  10.552  0.2894 -0.1463 -0.7533
 6714SOL    HW227193  10.851   4.958  10.567  0.7096 -0.7956  0.8324
 6715SOL     OW27194   2.203   0.810   8.945  0.9360  0.4661 -0.5559
 6715SOL    HW127195   2.287   0.832   8.905  2.1306 -0.7600  1.1253
 6715SOL    HW227196   2.206   0.715   8.954 -0.4397  0.4557 -0.0404
 6716SOL     OW27197   7.928  10.386   6.103 -0.1136  0.2838  0.0308
 6716SOL    HW127198   7.893  10.469   6.069 -0.7045 -0.1231 -0.3513
 6716SOL    HW227199   7.854  10.343   6.144 -0.3049 -0.9619 -1.5141
 6717SOL     OW27200   0.952   9.668   7.330  0.4892 -0.2874  0.6061
 6717SOL    HW127201   0.928   9.575   7.333  1.9540 -0.6978  0.5630
 6717SOL    HW227202   0.915   9.704   7.410  3.0239 -1.7843  2.6423
 6718SOL     OW27203   6.534   2.377  12.563 -0.4395 -0.2706  0.1845
 6718SOL    HW127204   6.467   2.436  12.530  0.5768 -0.2178 -1.9355
 6718SOL    HW227205   6.499   2.289  12.548 -1.2141 -0.2776  1.7651
 6719SOL     OW27206   3.822   9.019   5.829  0.2751 -0.2923 -0.2560
 6719SOL    HW127207   3.891   9.006   5.895  1.2596  1.3002 -0.8940
 6719SOL    HW227208   3.836   9.109   5.798 -1.6019 -0.2144 -1.0055
 6720SOL     OW27209   2.646  11.577   8.957 -0.0784  0.1819 -0.0490
 6720SOL    HW127210   2.615  11.641   8.894  0.6352 -0.6919 -1.3267
 6720SOL    HW227211   2.601  11.496   8.935  1.8867 -0.7278 -0.9876
 6721SOL     OW27212  12.029   4.644   1.211  0.5494 -0.2293  0.3673
 6721SOL    HW127213  11.995   4.563   1.173 -0.4681 -1.0920  2.9204
 6721SOL    HW227214  12.073   4.617   1.291  1.6407  1.5951  0.4430
 6722SOL     OW27215   1.044   1.450  10.298  0.1773 -0.0301 -0.8168
 6722SOL    HW127216   1.025   1.541  10.321  1.3371  0.3073 -1.1279
 6722SOL    HW227217   1.123   1.455  10.243  1.5394 -1.3849  0.9133
 6723SOL     OW27218   6.010  11.382   8.818  0.2468  0.1214  0.0821
 6723SOL    HW127219   5.939  11.360   8.878 -1.0274 -0.0248 -1.4469
 6723SOL    HW227220   6.081  11.412   8.876 -0.4600 -1.2519  1.7462
 6724SOL     OW27221   5.308   6.265   4.057 -0.5685 -0.5312  0.7354
 6724SOL    HW127222   5.347   6.226   3.979  0.1034  0.9056  0.3179
 6724SOL    HW227223   5.380   6.267   4.120 -0.9723 -1.2105  1.2291
 6725SOL     OW27224   3.386   8.673   6.276 -0.6387 -0.4330  0.3528
 6725SOL    HW127225   3.320   8.728   6.317 -1.3208 -1.1146  0.1965
 6725SOL    HW227226   3.367   8.585   6.307 -0.3801 -0.7761 -0.4262
 6726SOL     OW27227  11.707  10.885   0.772  0.4166  0.0879 -0.2782
 6726SOL    HW127228  11.678  10.892   0.863 -1.0811  0.3747 -0.7517
 6726SOL    HW227229  11.712  10.975   0.741  3.7381  0.2197  0.3011
 6727SOL     OW27230   5.268   3.240   2.239 -0.3783 -0.0887  0.0758
 6727SOL    HW127231   5.174   3.251   2.251 -0.6566 -1.7774 -0.3301
 6727SOL    HW227232   5.300   3.213   2.325 -0.3810 -0.2487  0.0260
 6728SOL     OW27233   1.154  10.079  11.771  0.1291 -0.4424  0.1070
 6728SOL    HW127234   1.203  10.154  11.805 -1.6636  0.5836  0.5356
 6728SOL    HW227235   1.203  10.051  11.694 -0.1399  2.3862 -1.2111
 6729SOL     OW27236   3.746   2.080  11.720  0.5499 -0.1195 -0.1116
 6729SOL    HW127237   3.817   2.105  11.780 -0.9782  1.7226  1.0396
 6729SOL    HW227238   3.722   2.162  11.677  0.3292 -1.0633 -1.8849
 6730SOL     OW27239   2.436   7.668   8.362 -0.0622 -0.3737 -0.9804
 6730SOL    HW127240   2.482   7.746   8.392  0.6856 -2.0371  2.8138
 6730SOL    HW227241   2.503   7.616   8.317  0.3740 -0.3539 -0.3635
 6731SOL     OW27242   9.244   3.569   5.174 -0.4881 -0.0370 -0.6222
 6731SOL    HW127243   9.263   3.655   5.210 -2.1565  0.5068 -0.9189
 6731SOL    HW227244   9.166   3.540   5.222 -2.1381  0.2556 -2.9077
 6732SOL     OW27245   4.595  11.542   9.730 -0.2098 -0.0572 -0.3958
 6732SOL    HW127246   4.689  11.527   9.720  0.0666  2.1897 -1.6338
 6732SOL    HW227247   4.573  11.496   9.811  1.9277 -0.6473 -0.0741
 6733SOL     OW27248  10.015   8.935   0.137 -0.4216 -0.9645 -0.4316
 6733SOL    HW127249   9.928   8.897   0.126  0.3342 -2.7551 -0.5835
 6733SOL    HW227250  10.060   8.917   0.054  0.0124  0.2192 -0.4715
 6734SOL     OW27251  12.007   4.492   6.492  0.2369  0.3114  0.2352
 6734SOL    HW127252  12.063   4.445   6.553 -0.7822 -1.0144  0.1969
 6734SOL    HW227253  11.930   4.436   6.482 -0.3050  1.2358 -1.0682
 6735SOL     OW27254   9.205   5.193   6.409  0.1386 -0.2201  0.5824
 6735SOL    HW127255   9.242   5.260   6.467  1.3619  0.9408 -1.4298
 6735SOL    HW227256   9.113   5.218   6.400  0.7479  1.8490 -0.8350
 6736SOL     OW27257   5.085   6.196   9.403  0.8509  0.2820  0.0451
 6736SOL    HW127258   5.061   6.130   9.337 -0.2959  0.7413 -0.0327
 6736SOL    HW227259   5.122   6.146   9.475 -0.5850 -0.5368  0.2517
 6737SOL     OW27260   4.140   8.779   7.251  0.4915  0.1757  0.0366
 6737SOL    HW127261   4.177   8.813   7.169  1.1201 -1.3061 -0.3292
 6737SOL    HW227262   4.164   8.845   7.316  1.1621  0.7202 -0.7276
 6738SOL     OW27263   1.239   3.756   7.376  0.0399 -0.5863  0.0910
 6738SOL    HW127264   1.299   3.753   7.301  0.7184  1.1384  0.5273
 6738SOL    HW227265   1.173   3.821   7.352 -1.1581 -1.7603  0.0268
 6739SOL     OW27266   4.647   7.500   1.627 -0.2673  0.3864 -0.0768
 6739SOL    HW127267   4.579   7.445   1.588 -1.2364  1.1730  0.4620
 6739SOL    HW227268   4.716   7.502   1.561 -0.0572 -1.6938  0.0030
 6740SOL     OW27269   2.152   0.509   0.370  0.1274 -0.0273 -0.4768
 6740SOL    HW127270   2.225   0.551   0.325  0.8503  0.4579  1.1043
 6740SOL    HW227271   2.130   0.569   0.441  0.0517 -1.5010  0.7869
 6741SOL     OW27272   6.985   5.295   0.341  0.2380  0.1396  0.0479
 6741SOL    HW127273   6.958   5.386   0.329  0.6017  0.3495  0.7431
 6741SOL    HW227274   6.910   5.253   0.382  0.3814  0.3375  0.5175
 6742SOL     OW27275   4.938   1.725   7.599  0.4867 -0.6480  0.4560
 6742SOL    HW127276   4.983   1.717   7.515  0.2047 -1.7015  0.3775
 6742SOL    HW227277   4.883   1.646   7.603  0.6050 -0.6865  1.6889
 6743SOL     OW27278  12.132   0.948   0.050 -0.4360  0.2585  1.0130
 6743SOL    HW127279  12.220   0.986   0.058 -0.1097 -0.5816  1.4859
 6743SOL    HW227280  12.102   0.975  -0.038  1.1274 -1.1757 -0.0157
 6744SOL     OW27281   0.579  11.014   9.646 -0.0167  0.2305  0.1486
 6744SOL    HW127282   0.637  10.960   9.593 -1.4671 -2.3198  1.0035
 6744SOL    HW227283   0.501  11.026   9.591 -0.0809  0.6769  0.3328
 6745SOL     OW27284   4.123   9.955  10.400 -0.8941  0.7808 -0.0867
 6745SOL    HW127285   4.176   9.956  10.320 -0.1496 -0.9768  0.3376
 6745SOL    HW227286   4.053  10.019  10.383 -1.8201 -0.8023 -2.9274
 6746SOL     OW27287   6.843   2.760   2.498 -0.2638 -0.3498  0.1256
 6746SOL    HW127288   6.812   2.850   2.508 -0.9030 -0.6765  1.3865
 6746SOL    HW227289   6.763   2.708   2.490  0.0760 -0.8586 -0.0280
 6747SOL     OW27290   1.087   9.374  10.903  0.5276 -0.1449 -0.3152
 6747SOL    HW127291   1.179   9.391  10.881  0.5420  0.5612  0.2808
 6747SOL    HW227292   1.064   9.442  10.966 -0.2583 -0.6283 -0.0693
 6748SOL     OW27293  10.576  11.801  10.483  0.1248  0.0536  0.2196
 6748SOL    HW127294  10.546  11.793  10.573  0.0022 -0.9944  0.1023
 6748SOL    HW227295  10.522  11.870  10.445  0.1840  0.5024  0.9516
 6749SOL     OW27296  12.292   7.033   9.791 -0.6039  0.3100  0.4038
 6749SOL    HW127297  12.202   7.033   9.756 -0.2876  0.0399 -0.4415
 6749SOL    HW227298  12.347   7.032   9.713  0.1284 -0.9147  0.9200
 6750SOL     OW27299   3.136  11.048   0.512 -0.0795 -0.5065  0.0852
 6750SOL    HW127300   3.084  10.988   0.565 -0.6569 -0.5447 -0.5047
 6750SOL    HW227301   3.221  11.004   0.502 -0.0783 -0.6464  0.6918
 6751SOL     OW27302   2.936   5.841   8.344 -0.3965 -0.0271  0.2304
 6751SOL    HW127303   2.948   5.862   8.437  1.2135  0.4018 -0.0351
 6751SOL    HW227304   2.928   5.927   8.301 -0.8186 -0.2112 -0.0594
 6752SOL     OW27305   1.084   0.269  10.919 -0.6822 -0.2907 -0.3897
 6752SOL    HW127306   1.077   0.363  10.900  2.5074 -0.1090 -1.2484
 6752SOL    HW227307   1.083   0.227  10.833 -1.7083 -1.0701 -0.0292
 6753SOL     OW27308   9.938   3.266  11.604 -0.1557  0.4434  0.9011
 6753SOL    HW127309  10.007   3.326  11.577  0.4734 -0.9080 -0.6844
 6753SOL    HW227310   9.870   3.322  11.641  0.5897  2.0888 -0.1119
 6754SOL     OW27311   4.173   5.795   0.693 -0.1016  0.3098  0.4704
 6754SOL    HW127312   4.268   5.778   0.690 -0.4747 -2.2847  0.8284
 6754SOL    HW227313   4.134   5.712   0.667 -2.3186  1.3312  0.3703
 6755SOL     OW27314  10.154   3.421   6.179 -0.0686  0.3616 -0.2370
 6755SOL    HW127315  10.200   3.455   6.103 -1.7318 -0.4232 -1.6601
 6755SOL    HW227316  10.208   3.346   6.208  0.1134  0.1076 -1.2003
 6756SOL     OW27317   8.472   7.331   8.772 -0.0429  0.1053 -0.1681
 6756SOL    HW127318   8.449   7.327   8.679  1.7452  0.9733 -0.6972
 6756SOL    HW227319   8.500   7.243   8.794 -1.0075 -0.2418 -0.2841
 6757SOL     OW27320   9.546   2.115   4.458 -0.1659  0.4118 -0.2180
 6757SOL    HW127321   9.570   2.108   4.550  0.6078 -1.0080 -0.5030
 6757SOL    HW227322   9.453   2.095   4.456  0.0204 -0.5225  0.1487
 6758SOL     OW27323   7.020   6.259   2.606 -0.1546  0.2030  0.6660
 6758SOL    HW127324   6.949   6.322   2.600 -0.5683 -0.3164  0.0161
 6758SOL    HW227325   7.070   6.287   2.683 -1.6354  0.0015  1.7620
 6759SOL     OW27326   4.912   9.633   0.976  0.0219  0.5726  0.2617
 6759SOL    HW127327   4.900   9.565   0.910 -0.8959  0.9186  0.0591
 6759SOL    HW227328   5.004   9.660   0.965  0.2797 -0.3321  0.0730
 6760SOL     OW27329   0.238   5.936   0.738 -0.0591  0.0035 -0.3790
 6760SOL    HW127330   0.204   5.873   0.674  1.5396  0.6306 -1.9285
 6760SOL    HW227331   0.317   5.895   0.772 -0.4105  0.0745  0.5482
 6761SOL     OW27332   6.416   5.088   3.075 -0.0446  0.3649  0.4173
 6761SOL    HW127333   6.434   5.104   3.168 -2.0496 -0.6172  1.0334
 6761SOL    HW227334   6.323   5.106   3.065  0.1118  0.3210 -1.3847
 6762SOL     OW27335   4.064   2.091   3.588 -0.5177  0.1740  0.2557
 6762SOL    HW127336   4.054   2.171   3.535  0.5600 -1.2168 -2.2366
 6762SOL    HW227337   4.145   2.051   3.555  0.7924 -0.3641  3.7169
 6763SOL     OW27338  11.259   6.367   8.595 -0.2285  0.4668 -0.1425
 6763SOL    HW127339  11.290   6.312   8.523 -1.8969 -0.2250 -0.3818
 6763SOL    HW227340  11.276   6.314   8.674  0.3819  0.6645 -0.1325
 6764SOL     OW27341  11.767  11.566   8.267 -0.3211 -0.0045  0.3235
 6764SOL    HW127342  11.788  11.547   8.358  1.4787 -0.9100 -0.2311
 6764SOL    HW227343  11.849  11.598   8.229 -0.9537  0.0848 -1.0474
 6765SOL     OW27344  11.582   5.795   4.204  0.3389 -0.0656  0.0766
 6765SOL    HW127345  11.493   5.775   4.175 -0.1107  2.0325 -0.1018
 6765SOL    HW227346  11.630   5.713   4.192 -1.6361 -1.3604  0.5429
 6766SOL     OW27347   6.474   8.070   8.772 -0.1809  0.3436  0.1680
 6766SOL    HW127348   6.442   8.092   8.685 -0.4172  1.4028  0.5040
 6766SOL    HW227349   6.562   8.035   8.757 -1.3357 -2.4044 -0.7421
 6767SOL     OW27350  11.288   9.246   1.968  0.1048 -0.2323 -0.6043
 6767SOL    HW127351  11.345   9.292   1.906 -0.0036  1.4893  0.5073
 6767SOL    HW227352  11.294   9.154   1.942  4.1963 -0.3381  0.0349
 6768SOL     OW27353  10.639   0.421  11.130  0.8171  0.5034 -0.2496
 6768SOL    HW127354  10.558   0.470  11.142  0.2743 -0.1142 -1.2594
 6768SOL    HW227355  10.652   0.417  11.035  1.7353  0.1099 -0.1253
 6769SOL     OW27356   8.023   4.411   8.971  0.2407 -0.6206  0.3639
 6769SOL    HW127357   8.016   4.323   9.008  1.1393 -0.8497  0.0091
 6769SOL    HW227358   8.113   4.438   8.992  0.3911 -0.3038 -0.6675
 6770SOL     OW27359   3.875   8.376   6.269  0.4038  0.1277  0.4635
 6770SOL    HW127360   3.946   8.321   6.237  1.1956  1.2540  0.1966
 6770SOL    HW227361   3.796   8.324   6.257  1.0419 -0.6595 -0.4408
 6771SOL     OW27362   2.441  12.485   2.850 -0.3945  0.0740  0.3098
 6771SOL    HW127363   2.505  12.549   2.880 -1.3135  0.5380  1.3597
 6771SOL    HW227364   2.473  12.401   2.883 -1.5221  0.6031  2.9770
 6772SOL     OW27365   1.530   4.020   3.671  0.2888  0.1570 -0.0669
 6772SOL    HW127366   1.522   3.965   3.593  0.2350  1.1084 -0.7514
 6772SOL    HW227367   1.526   3.959   3.744  1.0147 -0.8275 -0.8270
 6773SOL     OW27368   6.681  11.787   7.456 -0.3956 -0.7895 -0.0274
 6773SOL    HW127369   6.688  11.731   7.533  2.3028  1.5883  1.6689
 6773SOL    HW227370   6.755  11.762   7.401 -0.2638 -0.1586 -0.1444
 6774SOL     OW27371  10.043   6.580   6.555 -0.0039 -0.2298 -0.0331
 6774SOL    HW127372  10.109   6.565   6.487 -0.8079 -2.4105 -0.4233
 6774SOL    HW227373  10.008   6.667   6.535  3.1410  1.3442  0.6135
 6775SOL     OW27374   9.011   3.429  11.630 -0.2184  0.2548 -0.4551
 6775SOL    HW127375   9.054   3.354  11.672  0.1096  0.6015 -0.1599
 6775SOL    HW227376   8.941   3.454  11.691  0.1866  0.6885 -0.1587
 6776SOL     OW27377   4.338   2.386   2.217 -0.1095  0.0774  0.4895
 6776SOL    HW127378   4.280   2.319   2.182  0.2547  0.6768 -1.3828
 6776SOL    HW227379   4.423   2.342   2.227 -0.1226 -0.0067  0.2326
 6777SOL     OW27380   5.748   2.205   5.512  0.0379  0.5357  0.1633
 6777SOL    HW127381   5.801   2.165   5.442 -0.1708 -0.0698  0.3505
 6777SOL    HW227382   5.660   2.210   5.475  0.2714  1.8512 -0.2739
 6778SOL     OW27383   1.017   9.588  11.623 -0.3070  0.2046 -0.0076
 6778SOL    HW127384   1.069   9.562  11.699 -0.2916 -0.2271 -0.1666
 6778SOL    HW227385   0.992   9.679  11.641 -2.4806 -0.6492  1.7418
 6779SOL     OW27386   5.391   5.885   2.897  0.3407 -0.0501 -0.0356
 6779SOL    HW127387   5.462   5.841   2.850 -2.3193 -1.7782 -2.8381
 6779SOL    HW227388   5.318   5.822   2.895 -1.4333  1.7325  2.3573
 6780SOL     OW27389   2.026   7.958   8.402  0.5694  0.2662 -0.1698
 6780SOL    HW127390   2.067   7.872   8.411  0.8536  0.5567  2.0777
 6780SOL    HW227391   2.087   8.008   8.349  0.1889 -1.0145 -1.8852
 6781SOL     OW27392   9.802   6.965   5.118 -0.8695  0.7035  0.3931
 6781SOL    HW127393   9.814   6.881   5.162 -3.0045  0.0802 -0.0791
 6781SOL    HW227394   9.850   7.028   5.172  1.1602 -0.8584  0.5033
 6782SOL     OW27395   4.289   0.226   1.824  0.2890  0.1861  0.0762
 6782SOL    HW127396   4.280   0.292   1.755  1.2050 -2.8032 -3.2038
 6782SOL    HW227397   4.383   0.224   1.843  0.2658 -0.1422  0.1674
 6783SOL     OW27398  11.737  10.579   3.778  1.0875 -0.1710  0.2589
 6783SOL    HW127399  11.644  10.592   3.797  1.3190  0.2222  1.1928
 6783SOL    HW227400  11.775  10.667   3.786  1.7006 -0.4821  0.8486
 6784SOL     OW27401   3.504   4.073   7.521  0.2859 -0.1897 -0.1979
 6784SOL    HW127402   3.498   4.005   7.453 -2.4600  1.5943 -1.9054
 6784SOL    HW227403   3.418   4.073   7.563  0.8525  1.0147  1.0267
 6785SOL     OW27404  11.128   3.097   5.516 -0.2826  0.2104 -0.4927
 6785SOL    HW127405  11.162   3.136   5.434  0.1300  2.2877  0.5880
 6785SOL    HW227406  11.205   3.093   5.573 -0.6818 -0.7038 -0.0166
 6786SOL     OW27407   6.108   0.504   8.475  0.2657  0.5335 -0.4697
 6786SOL    HW127408   6.051   0.430   8.456  1.7117 -0.5717 -0.6979
 6786SOL    HW227409   6.192   0.480   8.436  1.3353  1.3786  1.2053
 6787SOL     OW27410   8.667   1.890   6.941  0.4149 -0.0332  0.0921
 6787SOL    HW127411   8.627   1.804   6.950 -0.2438  0.2632  0.0687
 6787SOL    HW227412   8.665   1.909   6.848 -0.5089  0.4920  0.2040
 6788SOL     OW27413   3.226   9.387   3.174 -0.1973  0.3806  0.0897
 6788SOL    HW127414   3.168   9.377   3.250 -0.0855 -1.5027 -0.0319
 6788SOL    HW227415   3.221   9.303   3.129  0.8518  0.9830 -1.2134
 6789SOL     OW27416  11.271  10.087   4.024  0.0569 -0.9461 -0.4084
 6789SOL    HW127417  11.358  10.047   4.031  0.0291 -1.2121 -1.4062
 6789SOL    HW227418  11.265  10.116   3.933 -1.6247 -2.6650 -0.9259
 6790SOL     OW27419   7.349   9.666  10.645 -0.1705  0.3493 -0.1274
 6790SOL    HW127420   7.317   9.660  10.735  0.0526  0.3865 -0.0453
 6790SOL    HW227421   7.317   9.586  10.603  0.0997  0.1155  0.1058
 6791SOL     OW27422   8.416   1.752   1.393  0.1549 -0.6254 -0.8971
 6791SOL    HW127423   8.465   1.818   1.343  1.3245 -1.7752 -1.3400
 6791SOL    HW227424   8.342   1.730   1.337 -1.6044  1.9449  0.2629
 6792SOL     OW27425   1.211   1.263  10.883  0.5369 -0.1758  0.1872
 6792SOL    HW127426   1.149   1.253  10.811 -0.5699  2.8907  0.5479
 6792SOL    HW227427   1.289   1.301  10.843 -0.1815  1.7982  0.5219
 6793SOL     OW27428   8.370   6.896   3.030 -0.3104 -0.8389 -0.1701
 6793SOL    HW127429   8.350   6.989   3.040  0.0586 -0.9678  2.6498
 6793SOL    HW227430   8.339   6.874   2.942 -2.4751  1.4349 -0.0929
 6794SOL     OW27431  11.687   3.920   3.656  0.4620 -0.0932  0.1656
 6794SOL    HW127432  11.701   3.966   3.739 -1.1370 -0.5551  0.7342
 6794SOL    HW227433  11.672   3.989   3.592  2.1116  0.2874  0.1320
 6795SOL     OW27434   0.941   8.809   2.446  0.0392  0.7263 -0.4169
 6795SOL    HW127435   0.865   8.759   2.416 -0.5737  2.0200 -1.1513
 6795SOL    HW227436   1.013   8.747   2.445 -0.8066 -0.2784 -0.7160
 6796SOL     OW27437   5.687   4.517   1.998  0.0200 -0.3139 -0.5448
 6796SOL    HW127438   5.743   4.450   2.037 -0.1088 -0.6865 -0.9882
 6796SOL    HW227439   5.609   4.519   2.054  0.0026 -0.5732 -0.5600
 6797SOL     OW27440  10.052  12.487   1.093  0.1847 -0.0425  0.2885
 6797SOL    HW127441  10.041  12.393   1.111  0.3845 -0.3401 -1.0852
 6797SOL    HW227442   9.964  12.523   1.102  0.2634 -0.1447  1.8634
 6798SOL     OW27443   3.270  12.117  12.276 -0.1015 -0.3786  0.1685
 6798SOL    HW127444   3.294  12.033  12.236  1.8584 -0.2774  1.0510
 6798SOL    HW227445   3.264  12.099  12.369 -1.4525  0.1103  0.2043
 6799SOL     OW27446   8.764   5.962   5.395 -0.4453  0.9857  0.3167
 6799SOL    HW127447   8.677   5.951   5.433 -0.2626 -0.7584  0.2990
 6799SOL    HW227448   8.747   5.973   5.301 -0.6200 -0.5689  0.1382
 6800SOL     OW27449   9.272   4.338  10.498  0.5209 -0.1225 -0.5412
 6800SOL    HW127450   9.308   4.296  10.420  2.5944  1.2252 -0.3664
 6800SOL    HW227451   9.321   4.301  10.571 -1.5254 -1.5155  0.2293
 6801SOL     OW27452   3.399   7.211   3.115 -0.0835 -0.2557  0.0621
 6801SOL    HW127453   3.478   7.194   3.063  0.9827 -0.3805  1.6472
 6801SOL    HW227454   3.431   7.244   3.199 -1.6983 -0.5425  0.8528
 6802SOL     OW27455   4.556   4.456   8.913  0.2101 -0.7014 -0.1704
 6802SOL    HW127456   4.625   4.508   8.872 -0.4985 -0.3902 -1.0079
 6802SOL    HW227457   4.592   4.367   8.916  1.2707 -0.2658  0.8957
 6803SOL     OW27458   0.185   1.452   3.915  0.4658 -0.5754 -0.0731
 6803SOL    HW127459   0.120   1.520   3.899  1.0588 -0.3812 -1.9107
 6803SOL    HW227460   0.133   1.375   3.940 -0.2315  0.3699  1.5851
 6804SOL     OW27461  12.058   1.617   3.986  0.1642 -0.3747 -0.1652
 6804SOL    HW127462  12.106   1.685   3.939  1.4642 -0.7596  0.5603
 6804SOL    HW227463  11.973   1.657   4.005  1.2813  1.5113  1.2241
 6805SOL     OW27464   2.352   4.543   5.003 -0.1166  0.1611  0.3732
 6805SOL    HW127465   2.275   4.567   4.950 -0.4904 -0.0093  0.8387
 6805SOL    HW227466   2.317   4.491   5.075  0.3060  0.9225  1.1529
 6806SOL     OW27467  12.409  11.660   9.863  0.2245 -0.3648 -0.1920
 6806SOL    HW127468  12.373  11.579   9.827 -1.7555  1.2809 -2.2321
 6806SOL    HW227469  12.332  11.713   9.883  1.4670  1.2106  0.6585
 6807SOL     OW27470   4.567  11.326   0.846  0.1250  0.6232 -0.2606
 6807SOL    HW127471   4.618  11.264   0.794  0.9578  0.6851  0.4517
 6807SOL    HW227472   4.478  11.291   0.845  0.4078 -0.0966 -0.6131
 6808SOL     OW27473   9.814   3.203   6.836  0.5980 -0.3399  0.0716
 6808SOL    HW127474   9.759   3.220   6.912 -0.9016 -0.2267 -0.9958
 6808SOL    HW227475   9.854   3.118   6.854 -0.2257 -0.6042  0.7116
 6809SOL     OW27476  11.429   8.574   1.231 -0.7225  0.2633 -0.1186
 6809SOL    HW127477  11.342   8.585   1.269 -0.4469  0.3361  0.5038
 6809SOL    HW227478  11.413   8.569   1.137 -1.3856  0.4272 -0.0234
 6810SOL     OW27479   6.619   1.388  11.140  0.0837  0.1501 -0.3404
 6810SOL    HW127480   6.674   1.311  11.152 -0.7459 -0.5750 -1.0509
 6810SOL    HW227481   6.612   1.427  11.227  0.2721 -0.7546  0.0843
 6811SOL     OW27482   1.057   5.782   6.549  0.6969 -0.2689 -0.4679
 6811SOL    HW127483   1.101   5.699   6.529  0.4440 -0.3582 -0.6412
 6811SOL    HW227484   1.032   5.774   6.641  3.0029  0.6438  0.3313
 6812SOL     OW27485   5.389  12.551   8.938  0.6482  0.5147  0.0132
 6812SOL    HW127486   5.419  12.581   8.852 -3.4942 -1.0114 -2.2533
 6812SOL    HW227487   5.456  12.489   8.966  0.3816 -2.1162 -4.2387
 6813SOL     OW27488   8.451  11.360   4.585  0.4523 -0.1244 -0.5565
 6813SOL    HW127489   8.437  11.273   4.549 -0.3238 -1.0524  1.8303
 6813SOL    HW227490   8.363  11.395   4.599  0.6699  2.2371 -3.9255
 6814SOL     OW27491  10.333   0.766  10.288  0.5416  0.0756  0.1704
 6814SOL    HW127492  10.244   0.790  10.313 -0.0761 -1.0491 -0.8302
 6814SOL    HW227493  10.360   0.831  10.224  0.6462  0.6996  0.8320
 6815SOL     OW27494  11.312   2.493   0.107  0.3944  0.5269 -0.3732
 6815SOL    HW127495  11.295   2.585   0.130  1.4791  0.8328 -0.7415
 6815SOL    HW227496  11.344   2.454   0.189 -1.0086  0.1976  0.0555
 6816SOL     OW27497   9.227  12.411   2.160  0.0860 -0.0215  0.4436
 6816SOL    HW127498   9.322  12.404   2.151  0.1687  0.9441  0.4100
 6816SOL    HW227499   9.204  12.491   2.112 -0.5271  0.6821  1.8350
 6817SOL     OW27500   1.645   2.807   7.707 -0.0614  0.4782 -0.1106
 6817SOL    HW127501   1.652   2.900   7.686  0.8594  1.4176  3.6224
 6817SOL    HW227502   1.732   2.772   7.690 -0.4518  0.1811 -1.6772
 6818SOL     OW27503   5.507   4.059  10.925 -0.1350  0.1456 -0.3727
 6818SOL    HW127504   5.551   4.011  10.855  0.0626 -1.1339  0.5931
 6818SOL    HW227505   5.419   4.076  10.891  0.9238  2.5590 -2.2513
 6819SOL     OW27506   4.227   2.382   5.725  0.4844  0.2558  0.1820
 6819SOL    HW127507   4.211   2.313   5.789 -0.3281 -1.1901 -1.4921
 6819SOL    HW227508   4.140   2.421   5.710  0.3846 -0.4015 -1.0715
 6820SOL     OW27509   2.508   8.312  10.512  0.0030 -0.1089  0.2337
 6820SOL    HW127510   2.575   8.381  10.520  0.6766 -0.7783  0.4933
 6820SOL    HW227511   2.507   8.270  10.598  0.6953 -1.4109 -0.3818
 6821SOL     OW27512   2.261   2.409  11.682  0.5243 -0.0183 -0.1675
 6821SOL    HW127513   2.267   2.393  11.776  0.7327  0.7108 -0.0509
 6821SOL    HW227514   2.273   2.504  11.673 -0.6283  0.0754 -0.8310
 6822SOL     OW27515   4.961   9.380   5.017 -0.4412 -0.4735 -0.3177
 6822SOL    HW127516   4.902   9.315   4.979  0.2929 -0.7356 -1.0385
 6822SOL    HW227517   5.030   9.390   4.952  1.2261 -1.4292  1.2458
 6823SOL     OW27518   9.091   4.952   4.221 -0.5317  0.8439 -0.1197
 6823SOL    HW127519   9.061   5.037   4.190 -0.4532  0.6376 -0.7957
 6823SOL    HW227520   9.019   4.892   4.200 -0.7184  0.7886  0.6368
 6824SOL     OW27521   0.096  11.825   5.398  0.1413  0.2111 -0.0368
 6824SOL    HW127522   0.007  11.859   5.400 -0.1469 -0.3750  3.2798
 6824SOL    HW227523   0.087  11.735   5.368 -0.2283  0.5093 -0.8249
 6825SOL     OW27524   6.872   8.992   5.498 -0.5064  0.5175  0.6552
 6825SOL    HW127525   6.890   8.967   5.588 -1.3154 -0.9441  0.4384
 6825SOL    HW227526   6.790   9.040   5.502  0.0859  1.5619  0.8248
 6826SOL     OW27527  11.907   6.839   4.549  0.1285  0.2825  0.2720
 6826SOL    HW127528  11.848   6.914   4.549  0.1710  0.3762 -1.7591
 6826SOL    HW227529  11.966   6.854   4.623 -1.5165  0.8660  1.5110
 6827SOL     OW27530   6.133  10.517   7.454  0.0491 -0.6570 -0.1012
 6827SOL    HW127531   6.172  10.430   7.461 -0.5817 -0.9092  0.3559
 6827SOL    HW227532   6.093  10.533   7.540  1.0369  0.5119  0.1642
 6828SOL     OW27533   0.205   5.648   1.237  0.1600  0.0006  0.0512
 6828SOL    HW127534   0.188   5.654   1.331  0.7323  1.0787  0.1077
 6828SOL    HW227535   0.166   5.565   1.210 -0.3001 -0.1614  1.1763
 6829SOL     OW27536  12.300   0.688   3.542 -0.3541 -0.1906  0.9338
 6829SOL    HW127537  12.276   0.761   3.599  0.5777  0.3400  0.6621
 6829SOL    HW227538  12.323   0.728   3.459  0.0547 -0.8072  0.7436
 6830SOL     OW27539   1.060   9.324   8.915 -0.1553 -0.1384 -0.6163
 6830SOL    HW127540   1.154   9.327   8.933 -0.1552  1.2199 -0.7506
 6830SOL    HW227541   1.023   9.275   8.989  0.8202 -2.2538 -1.4404
 6831SOL     OW27542   1.754  10.692   6.055 -0.3934  0.0342 -0.0618
 6831SOL    HW127543   1.770  10.761   6.119 -1.1468 -0.5405  0.7814
 6831SOL    HW227544   1.775  10.611   6.102 -0.5596 -0.3758 -0.6828
 6832SOL     OW27545   2.071   0.680   5.105  0.6268 -0.1083 -0.2747
 6832SOL    HW127546   1.995   0.737   5.108  0.3393 -0.5099  0.4663
 6832SOL    HW227547   2.048   0.612   5.042  1.5604  1.3669 -2.3154
 6833SOL     OW27548  11.968   9.766  12.461 -0.3029 -0.2918 -0.2040
 6833SOL    HW127549  12.005   9.838  12.513  0.3201  0.1786 -1.2637
 6833SOL    HW227550  11.978   9.689  12.516  1.2451  0.0296 -0.0026
 6834SOL     OW27551   6.723   4.955   1.904 -0.3811  0.0565 -0.1901
 6834SOL    HW127552   6.788   4.887   1.890 -0.3111  0.0333  0.2225
 6834SOL    HW227553   6.749   4.997   1.986  0.3872  1.5279 -1.1485
 6835SOL     OW27554   8.436   3.596   1.878 -0.4392 -0.4216 -0.6741
 6835SOL    HW127555   8.526   3.581   1.906 -0.3601 -1.1068 -1.2682
 6835SOL    HW227556   8.392   3.632   1.955 -0.2499 -2.2708  0.3510
 6836SOL     OW27557  10.348   6.710   0.583  0.6253  0.0003  0.4701
 6836SOL    HW127558  10.398   6.678   0.658  1.9951  2.7095  0.8656
 6836SOL    HW227559  10.406   6.775   0.543 -1.0880  0.4194 -1.4502
 6837SOL     OW27560  10.959  11.440   8.005 -0.3939  0.0620  0.0147
 6837SOL    HW127561  11.051  11.416   8.012  0.2617  2.2203 -0.4704
 6837SOL    HW227562  10.959  11.536   8.001 -2.5806  0.0883 -1.0485
 6838SOL     OW27563  12.250   2.733   7.697  0.2738 -0.2182  0.0202
 6838SOL    HW127564  12.270   2.824   7.675 -1.9133  0.5612  0.9832
 6838SOL    HW227565  12.291   2.682   7.627  0.7893  1.5495 -1.0287
 6839SOL     OW27566   1.844   1.084  12.482  0.1477 -0.1144  0.1483
 6839SOL    HW127567   1.822   1.043  12.566 -0.8703 -1.9773 -0.9668
 6839SOL    HW227568   1.864   1.175  12.505 -0.5103 -0.4549  2.3497
 6840SOL     OW27569   5.206   1.892  10.052 -0.0444 -0.3734 -0.2981
 6840SOL    HW127570   5.133   1.831  10.057 -0.8612  0.5424 -0.6694
 6840SOL    HW227571   5.173   1.965   9.999  1.4519 -0.3585 -1.2555
 6841SOL     OW27572   8.197   0.720  12.031  0.3808  0.2349 -0.2574
 6841SOL    HW127573   8.258   0.647  12.027  0.1181 -0.1160  1.3235
 6841SOL    HW227574   8.146   0.714  11.951  0.3603 -1.3401 -0.1525
 6842SOL     OW27575  12.321  11.096   1.777  0.3562  0.7319  0.2371
 6842SOL    HW127576  12.294  11.169   1.721  0.4320  0.0231 -0.7254
 6842SOL    HW227577  12.246  11.081   1.835 -0.2076  0.6608 -0.4987
 6843SOL     OW27578   9.918  10.385   9.751  0.0171  0.3168  0.1398
 6843SOL    HW127579   9.860  10.350   9.818  1.8763  2.6040  3.2556
 6843SOL    HW227580   9.871  10.461   9.716 -0.1161  0.3562  0.4024
 6844SOL     OW27581   1.546   5.202   8.076 -0.0970 -0.1570  0.1587
 6844SOL    HW127582   1.515   5.273   8.020  0.7659 -0.1836 -0.3667
 6844SOL    HW227583   1.470   5.146   8.089 -0.4766  0.2199 -0.4047
 6845SOL     OW27584   5.620   0.407   1.444 -0.2880  0.4125  0.0619
 6845SOL    HW127585   5.624   0.477   1.378 -0.9690  0.5234  0.1354
 6845SOL    HW227586   5.638   0.327   1.394 -0.4833  0.5301 -0.2044
 6846SOL     OW27587   9.046   5.561   6.711  0.0720  0.5267 -0.3829
 6846SOL    HW127588   9.124   5.566   6.766  1.8052  1.2121 -2.7448
 6846SOL    HW227589   8.999   5.643   6.727  0.1952  0.4172  0.5440
 6847SOL     OW27590   7.176  10.346   2.164  0.4638  0.4042 -0.5081
 6847SOL    HW127591   7.174  10.403   2.240 -2.7947  0.5742 -0.5580
 6847SOL    HW227592   7.268  10.344   2.136  1.2455  2.6829  1.6320
 6848SOL     OW27593   8.304   8.859   0.332 -0.8211  0.1486  0.2433
 6848SOL    HW127594   8.391   8.819   0.325 -0.5773  0.7639 -0.3149
 6848SOL    HW227595   8.249   8.789   0.368  0.2305  0.2243  2.1285
 6849SOL     OW27596   0.249   6.199   3.506  0.6945 -0.5304  0.9727
 6849SOL    HW127597   0.277   6.221   3.595  1.6242 -0.1086  0.5961
 6849SOL    HW227598   0.158   6.172   3.515  0.4070  0.6554  1.8870
 6850SOL     OW27599   3.587   9.209   2.833  0.3477 -0.3017 -0.0228
 6850SOL    HW127600   3.584   9.232   2.926 -0.0794 -2.2013  0.4885
 6850SOL    HW227601   3.498   9.223   2.802  0.2858 -0.4677  0.0770
 6851SOL     OW27602   4.066   1.245   8.966 -0.5119  0.2379 -0.5668
 6851SOL    HW127603   4.025   1.256   9.052  1.0461 -3.7892  0.9316
 6851SOL    HW227604   4.154   1.280   8.977 -0.1211 -0.8110 -0.3087
 6852SOL     OW27605   5.564   6.092   2.232  0.4225 -0.0284 -0.3128
 6852SOL    HW127606   5.473   6.120   2.230 -0.1411 -1.6258  0.9959
 6852SOL    HW227607   5.598   6.115   2.145 -1.6288 -0.7280 -1.3570
 6853SOL     OW27608   8.366  10.927   7.565 -0.3243  0.5797 -0.4245
 6853SOL    HW127609   8.327  10.840   7.570  0.0071  0.3546 -1.4252
 6853SOL    HW227610   8.444  10.922   7.621 -0.5746  0.3882 -0.0901
 6854SOL     OW27611   7.472   6.984   7.275 -0.0039  0.2159 -0.1067
 6854SOL    HW127612   7.478   6.950   7.364  0.6701 -1.1498 -0.6444
 6854SOL    HW227613   7.563   6.998   7.249 -0.1208 -0.6952 -1.0521
 6855SOL     OW27614   3.100  11.172   5.159 -0.7104  0.1410  0.0614
 6855SOL    HW127615   3.072  11.262   5.143  1.0800  0.8928  0.8399
 6855SOL    HW227616   3.160  11.153   5.087 -0.6661 -0.2259  0.1949
 6856SOL     OW27617   1.863   2.916   2.914 -0.1211  0.2519  0.5275
 6856SOL    HW127618   1.795   2.873   2.966 -1.0003 -2.6459 -2.6460
 6856SOL    HW227619   1.816   2.982   2.862 -0.0785 -0.0148  0.1465
 6857SOL     OW27620   7.075   1.967  10.847 -0.0852  0.4329 -0.2401
 6857SOL    HW127621   7.135   1.903  10.884  0.0545  0.4541 -0.4313
 6857SOL    HW227622   7.123   2.006  10.774 -1.3071 -1.5168 -2.2186
 6858SOL     OW27623  11.601   0.957   0.931 -0.6287 -0.5380  0.0157
 6858SOL    HW127624  11.689   0.989   0.951 -0.9023  0.9952 -1.0543
 6858SOL    HW227625  11.553   1.034   0.902 -1.8360 -1.6405 -1.0669
 6859SOL     OW27626   1.602   4.479   6.264  0.6100  0.2683  0.0071
 6859SOL    HW127627   1.557   4.397   6.250  0.9259 -0.3739  2.3659
 6859SOL    HW227628   1.546   4.545   6.224  0.0051 -0.9907 -1.2902
 6860SOL     OW27629   6.333   1.593  10.223  0.0070  0.1271  0.6919
 6860SOL    HW127630   6.331   1.625  10.133  0.8619  0.5711  0.8135
 6860SOL    HW227631   6.360   1.502  10.216  0.4442  0.2665  0.5114
 6861SOL     OW27632   3.428   1.908   3.834  0.5332  0.5429 -0.5386
 6861SOL    HW127633   3.343   1.878   3.865  0.0772  1.5954 -0.7623
 6861SOL    HW227634   3.447   1.851   3.759  0.4272 -0.2492  0.0215
 6862SOL     OW27635   2.131   1.886   7.864 -0.1298  0.2095 -0.1486
 6862SOL    HW127636   2.180   1.933   7.931 -0.6117 -0.1687  0.4797
 6862SOL    HW227637   2.197   1.831   7.820 -0.2360 -1.7980  1.9746
 6863SOL     OW27638   4.678  11.441   4.481 -0.4722  0.1158  0.1054
 6863SOL    HW127639   4.711  11.353   4.463  1.5247  0.8990 -0.3266
 6863SOL    HW227640   4.640  11.470   4.398  0.1901  0.1911 -0.1769
 6864SOL     OW27641  10.741   8.111   1.412 -0.4867 -0.0608  0.5005
 6864SOL    HW127642  10.756   8.138   1.503 -0.0786 -0.2671  0.4986
 6864SOL    HW227643  10.823   8.133   1.367 -0.6853  0.0324  0.1846
 6865SOL     OW27644   6.847  10.256   2.486 -0.3722 -0.2894 -0.0408
 6865SOL    HW127645   6.779  10.316   2.517  0.7515  0.7703  0.5022
 6865SOL    HW227646   6.805  10.204   2.418 -1.8293  0.0321  0.5841
 6866SOL     OW27647   6.486   0.228   2.333 -0.0824 -0.0426 -0.1142
 6866SOL    HW127648   6.489   0.310   2.285  1.2993 -0.0015  0.0025
 6866SOL    HW227649   6.404   0.231   2.382 -0.0146  1.2940 -0.0574
 6867SOL     OW27650   1.465   5.223   2.130  0.4756 -0.8676 -0.3485
 6867SOL    HW127651   1.404   5.276   2.079  2.6234  0.3231 -1.8184
 6867SOL    HW227652   1.427   5.221   2.218 -1.6489 -0.1745 -1.2040
 6868SOL     OW27653  10.337   3.395   3.654  0.4624  0.3956  0.9042
 6868SOL    HW127654  10.345   3.457   3.581 -0.2064  0.2559  0.7017
 6868SOL    HW227655  10.426   3.366   3.671  0.5561 -0.1642 -0.3952
 6869SOL     OW27656   5.780   4.728  10.617  0.6267 -0.2042  0.2079
 6869SOL    HW127657   5.825   4.801  10.574 -1.2331  1.1101  0.4082
 6869SOL    HW227658   5.763   4.760  10.706  2.0165 -1.8743  1.1456
 6870SOL     OW27659  10.117   9.613   8.016 -0.5766  0.2273 -0.7128
 6870SOL    HW127660  10.142   9.629   8.107 -0.8803 -0.4692 -0.5043
 6870SOL    HW227661  10.181   9.549   7.984 -0.6230  0.2772 -0.9121
 6871SOL     OW27662   0.604   8.930   8.500 -0.6305  0.1662  0.2661
 6871SOL    HW127663   0.597   8.839   8.473  1.8529 -0.3370  1.0333
 6871SOL    HW227664   0.599   8.980   8.419 -1.0477 -0.7206 -0.2647
 6872SOL     OW27665  10.590  10.405   3.227 -0.2876  0.4382 -0.0522
 6872SOL    HW127666  10.512  10.350   3.234 -0.1176  0.2569  0.5147
 6872SOL    HW227667  10.643  10.364   3.160 -1.2247  1.2613 -1.3668
 6873SOL     OW27668   6.728   3.272   7.212 -0.2928 -0.0702  0.2204
 6873SOL    HW127669   6.762   3.196   7.259  1.2248 -0.0097 -0.7052
 6873SOL    HW227670   6.721   3.340   7.278 -0.4477 -0.6392  0.8047
 6874SOL     OW27671   4.063  11.854   0.562 -0.5474  0.4123  0.0453
 6874SOL    HW127672   3.992  11.797   0.591 -2.3776  0.9299 -2.9953
 6874SOL    HW227673   4.043  11.873   0.471  2.4438  2.2873 -0.3603
 6875SOL     OW27674  12.197   5.877  10.047  0.0299 -0.0987 -0.2483
 6875SOL    HW127675  12.189   5.874   9.951  1.9880 -3.3934 -0.4495
 6875SOL    HW227676  12.254   5.803  10.069 -1.6782 -0.5080  3.6354
 6876SOL     OW27677   0.025   4.417   7.695  0.0153  0.4915  0.5335
 6876SOL    HW127678  -0.048   4.359   7.716  0.0354  0.9188  1.8448
 6876SOL    HW227679   0.039   4.405   7.601 -1.7130  0.3759  0.2694
 6877SOL     OW27680  10.243   1.093   6.227  0.2600 -0.4075 -0.1850
 6877SOL    HW127681  10.335   1.109   6.247  0.1004 -1.0498  1.1711
 6877SOL    HW227682  10.196   1.122   6.305 -0.5458 -1.5078 -0.2272
 6878SOL     OW27683  10.808  10.408   8.800 -0.5956 -0.3058 -0.0976
 6878SOL    HW127684  10.846  10.467   8.865 -0.1159 -0.5646 -0.1379
 6878SOL    HW227685  10.737  10.459   8.760  0.6389  0.7409 -1.0364
 6879SOL     OW27686   4.778  11.612   7.175 -0.0854  0.4677  0.1793
 6879SOL    HW127687   4.715  11.629   7.245 -1.5827 -0.7470 -0.8002
 6879SOL    HW227688   4.743  11.660   7.100 -0.0846 -0.5243 -0.4782
 6880SOL     OW27689   8.003   0.443   4.245 -0.0672 -0.1721 -0.0772
 6880SOL    HW127690   7.920   0.490   4.238  0.3540  0.8460  1.3046
 6880SOL    HW227691   7.978   0.353   4.264 -0.9082  0.4000  1.8602
 6881SOL     OW27692   2.853   6.765   8.664  0.2043  0.0917 -0.5538
 6881SOL    HW127693   2.869   6.701   8.594  0.9249  0.5333 -0.8054
 6881SOL    HW227694   2.760   6.754   8.686  0.6492 -2.0816  0.4637
 6882SOL     OW27695   7.842  10.986   7.232 -0.1227 -0.0028  0.3848
 6882SOL    HW127696   7.820  10.936   7.311 -0.4072  0.1286  0.3897
 6882SOL    HW227697   7.765  10.976   7.175 -0.8378  1.6707  0.9958
 6883SOL     OW27698  11.936   1.024   5.449 -0.0352  0.3716  0.3608
 6883SOL    HW127699  11.870   1.069   5.502  1.6657  2.8864  0.5245
 6883SOL    HW227700  11.976   0.961   5.509  0.6922  1.9771  1.6407
 6884SOL     OW27701  10.584   0.733   2.969 -0.5091 -0.6352  0.1850
 6884SOL    HW127702  10.621   0.794   3.033 -0.3564  0.1594 -0.6381
 6884SOL    HW227703  10.658   0.679   2.942 -0.0512  0.5207 -0.9740
 6885SOL     OW27704   3.060  10.989   5.803  0.0778 -0.3586  0.1908
 6885SOL    HW127705   3.080  10.928   5.874 -0.6106  2.0166  2.6116
 6885SOL    HW227706   2.966  10.978   5.788  0.2732 -1.0477 -0.5838
 6886SOL     OW27707   3.497  12.040   0.530  0.0173  0.3267 -0.3059
 6886SOL    HW127708   3.517  12.015   0.620  1.3135  3.2419  0.3224
 6886SOL    HW227709   3.582  12.052   0.488 -0.5565  0.3411 -1.5076
 6887SOL     OW27710   3.082   4.351   0.107 -0.2389 -0.1430 -0.0933
 6887SOL    HW127711   3.144   4.286   0.075 -1.3500 -0.9044 -0.7610
 6887SOL    HW227712   3.137   4.425   0.135  0.9353 -0.6390 -1.0012
 6888SOL     OW27713   3.503   5.936   3.056 -0.0900 -0.2611 -0.7598
 6888SOL    HW127714   3.553   5.858   3.033 -0.4300 -0.1443 -1.9491
 6888SOL    HW227715   3.413   5.904   3.066  0.1808 -0.5087  1.5656
 6889SOL     OW27716   5.195   8.405   1.572  0.1634 -0.0747  0.0033
 6889SOL    HW127717   5.257   8.476   1.555  1.6960 -0.8908  1.8284
 6889SOL    HW227718   5.242   8.326   1.546 -1.1014 -0.5537 -0.9507
 6890SOL     OW27719   3.882   3.801   6.905  0.5171  0.1683 -0.3452
 6890SOL    HW127720   3.834   3.720   6.887  0.0788  0.1416  0.8931
 6890SOL    HW227721   3.939   3.812   6.828  0.0391 -0.9016 -0.8780
 6891SOL     OW27722   6.135   0.077   5.967  0.2574  0.6228  0.9879
 6891SOL    HW127723   6.092   0.012   5.911  0.3969  0.6824  0.8130
 6891SOL    HW227724   6.080   0.081   6.045 -0.2470  0.9537  0.6212
 6892SOL     OW27725   9.114   8.185   3.997  0.0166  0.1214  0.3587
 6892SOL    HW127726   9.055   8.249   4.036  0.5230  0.6136  0.3371
 6892SOL    HW227727   9.192   8.235   3.974 -0.1033 -0.2451 -0.9186
 6893SOL     OW27728   6.695  10.724   2.052 -0.3101  0.6927  0.1479
 6893SOL    HW127729   6.640  10.785   2.005 -0.8186  0.0699 -0.0842
 6893SOL    HW227730   6.733  10.668   1.984  0.0424  0.6658  0.3648
 6894SOL     OW27731   0.105  11.474   9.721 -0.6887 -0.2075 -0.1201
 6894SOL    HW127732   0.057  11.547   9.682  0.0312 -0.9326 -2.5282
 6894SOL    HW227733   0.050  11.446   9.795 -1.4243  2.1333  0.3200
 6895SOL     OW27734   6.944   0.033   5.237 -0.0374 -0.4772  0.0835
 6895SOL    HW127735   7.014   0.090   5.206 -0.0935 -0.1360  0.5630
 6895SOL    HW227736   6.947   0.042   5.332 -0.7519 -0.4313  0.1059
 6896SOL     OW27737   0.485   6.000   8.024  0.5231  0.3470 -0.0775
 6896SOL    HW127738   0.481   5.949   8.105 -2.2192  0.5419 -0.0089
 6896SOL    HW227739   0.577   6.023   8.015  1.0665 -0.5254  2.4558
 6897SOL     OW27740   2.340   8.173   6.082 -0.4746  0.0225 -0.1307
 6897SOL    HW127741   2.423   8.194   6.039 -0.8312 -1.7182 -1.7943
 6897SOL    HW227742   2.349   8.080   6.107 -1.3746  0.2187  1.0257
 6898SOL     OW27743   1.901   7.804   6.927 -0.5010 -0.2189 -0.4706
 6898SOL    HW127744   1.825   7.842   6.972  0.5479  1.1593  0.2215
 6898SOL    HW227745   1.939   7.878   6.879  1.5097 -0.3730  0.7609
 6899SOL     OW27746   7.450   6.263   4.205 -0.1103 -0.5574 -0.5687
 6899SOL    HW127747   7.534   6.284   4.244 -1.0787  4.0907 -0.3112
 6899SOL    HW227748   7.403   6.214   4.272  1.6462 -1.4701  0.0375
 6900SOL     OW27749   7.440   0.357  10.355 -0.2599 -0.2551 -0.4675
 6900SOL    HW127750   7.351   0.334  10.326 -0.1268 -1.8925  0.3001
 6900SOL    HW227751   7.497   0.304  10.299  0.0791 -1.6161  1.0754
 6901SOL     OW27752  11.799   4.896   9.406  0.2544 -0.4079  1.1157
 6901SOL    HW127753  11.765   4.807   9.408 -2.2497  0.3173 -1.5665
 6901SOL    HW227754  11.806   4.917   9.313  2.0232  1.8005  1.6536
 6902SOL     OW27755   0.575   2.887  10.602 -0.2518 -0.1509  0.1370
 6902SOL    HW127756   0.595   2.978  10.581 -1.6092  0.5552  1.6252
 6902SOL    HW227757   0.660   2.845  10.612  0.4089  0.5821 -1.8889
 6903SOL     OW27758   0.006  10.013  10.282  0.4098 -0.0562  0.5117
 6903SOL    HW127759   0.084   9.996  10.336 -0.3918 -0.9186  1.4307
 6903SOL    HW227760  -0.023   9.927  10.254  0.2714  0.3265 -0.5416
 6904SOL     OW27761  12.111  12.058   8.972  0.0916 -0.1329  0.4998
 6904SOL    HW127762  12.044  12.124   8.990 -0.5394 -0.1105 -1.6759
 6904SOL    HW227763  12.190  12.109   8.951 -0.4457  0.0073 -1.3733
 6905SOL     OW27764   9.550   0.397   0.197 -0.1701  0.2904  0.2160
 6905SOL    HW127765   9.460   0.378   0.172 -0.3286  0.3339  0.7436
 6905SOL    HW227766   9.561   0.356   0.283  0.5901 -0.4943 -0.2345
 6906SOL     OW27767  11.985   8.513   7.745  0.3929  0.1295  0.4167
 6906SOL    HW127768  12.057   8.513   7.808 -0.1384  1.0400  1.0447
 6906SOL    HW227769  11.952   8.424   7.747  0.7465  0.0057  1.0087
 6907SOL     OW27770  12.006   5.822   3.518  0.1108 -0.3799 -0.4665
 6907SOL    HW127771  11.971   5.746   3.471 -0.8423 -1.7486  2.2406
 6907SOL    HW227772  11.998   5.799   3.611  1.4766  2.3237  0.4357
 6908SOL     OW27773   1.533  10.718   3.868  0.0426 -0.1989  0.8238
 6908SOL    HW127774   1.474  10.711   3.943 -0.0062 -0.4506  0.7641
 6908SOL    HW227775   1.555  10.627   3.847 -1.3207 -0.2430 -0.5536
 6909SOL     OW27776   0.227  10.308   2.026 -0.2220 -0.0506  0.2464
 6909SOL    HW127777   0.172  10.362   2.083  0.4456  1.1294 -0.1941
 6909SOL    HW227778   0.268  10.371   1.967  1.5871 -0.8906  0.5572
 6910SOL     OW27779   9.856  12.131   6.903 -1.0188  0.3342  0.5967
 6910SOL    HW127780   9.765  12.158   6.889 -0.7866  0.3124 -1.2530
 6910SOL    HW227781   9.850  12.040   6.932 -1.5947  0.1367 -0.0925
 6911SOL     OW27782   0.357   9.032   0.226 -0.3709  0.1976 -0.3693
 6911SOL    HW127783   0.442   9.000   0.255 -1.1177  0.6387  2.5810
 6911SOL    HW227784   0.375   9.073   0.141  1.8784 -1.7151 -0.9246
 6912SOL     OW27785   9.020   8.181   3.035 -0.2188  0.1055  0.6521
 6912SOL    HW127786   9.052   8.135   3.112  0.0292 -0.6893  0.0931
 6912SOL    HW227787   9.087   8.167   2.968 -0.2993  1.0007  0.3568
 6913SOL     OW27788   6.882   2.211   3.402  0.1693  0.5469  0.0090
 6913SOL    HW127789   6.815   2.195   3.336 -0.2482 -2.2780  0.9552
 6913SOL    HW227790   6.964   2.185   3.359  0.6331  3.1306 -0.8406
 6914SOL     OW27791   9.772   9.162   7.268  0.5147  0.5916  0.7473
 6914SOL    HW127792   9.852   9.113   7.247  0.8954  1.6951 -0.5094
 6914SOL    HW227793   9.804   9.246   7.301 -0.1371  0.4668  1.7412
 6915SOL     OW27794   6.560   3.614   6.453 -0.6673 -0.0555 -0.0104
 6915SOL    HW127795   6.620   3.627   6.379 -0.2854  0.2544  0.3525
 6915SOL    HW227796   6.556   3.519   6.464  1.8733 -0.0442  1.6722
 6916SOL     OW27797   9.358   0.829   0.832  0.1258  0.2482 -0.1618
 6916SOL    HW127798   9.314   0.909   0.860  1.4612  1.5083 -1.5220
 6916SOL    HW227799   9.336   0.820   0.739 -0.4521 -1.2933  0.0886
 6917SOL     OW27800  10.280  11.319   8.137  0.7185 -0.3849 -0.0083
 6917SOL    HW127801  10.290  11.397   8.192  0.6625 -1.3145  1.3461
 6917SOL    HW227802  10.370  11.295   8.113  0.8440 -0.7894  0.8488
 6918SOL     OW27803   4.584   3.551   3.309 -0.6881  0.4133 -0.1766
 6918SOL    HW127804   4.605   3.547   3.403  3.0774  0.4310 -0.8673
 6918SOL    HW227805   4.508   3.493   3.300 -0.2780 -0.7705  2.6921
 6919SOL     OW27806   4.195   3.583   8.616 -0.0594  0.2841 -0.0463
 6919SOL    HW127807   4.169   3.630   8.537 -0.4185 -0.4268 -0.3583
 6919SOL    HW227808   4.142   3.504   8.616 -0.5683  0.5859  1.2702
 6920SOL     OW27809  10.693  10.686   7.057  0.2547  0.2258  0.5145
 6920SOL    HW127810  10.640  10.725   6.987 -1.9807  0.9584  2.5084
 6920SOL    HW227811  10.783  10.691   7.024 -0.4738  2.5529 -1.4024
 6921SOL     OW27812   3.309   0.272   1.877  0.0374 -0.1285  0.4419
 6921SOL    HW127813   3.320   0.186   1.918 -0.4222 -0.6374 -0.4690
 6921SOL    HW227814   3.272   0.253   1.790  0.1434  0.9740  0.1370
 6922SOL     OW27815   0.385   1.056   3.532 -0.2649 -0.3615 -0.0647
 6922SOL    HW127816   0.466   1.006   3.518 -0.9249 -1.6977  0.6703
 6922SOL    HW227817   0.327   1.028   3.461 -0.1541  0.4678 -0.4915
 6923SOL     OW27818   0.758  10.435   3.698 -0.3244  0.0467  0.1308
 6923SOL    HW127819   0.757  10.510   3.638  1.0004  0.8165  1.0118
 6923SOL    HW227820   0.711  10.466   3.776  0.1855 -0.0449  0.4794
 6924SOL     OW27821   8.435   8.399   3.052  0.7571 -0.2971  0.0416
 6924SOL    HW127822   8.364   8.462   3.062  1.5895  0.3831  2.0806
 6924SOL    HW227823   8.392   8.319   3.019 -0.3269  1.2316 -2.6327
 6925SOL     OW27824   8.528  11.200   9.275 -0.2461 -0.3406  0.3819
 6925SOL    HW127825   8.465  11.253   9.226  0.4803  0.5157  0.3549
 6925SOL    HW227826   8.486  11.114   9.282 -0.9500 -0.0959 -0.5642
 6926SOL     OW27827   2.118   1.285   2.536  0.2722 -0.0101 -0.7647
 6926SOL    HW127828   2.157   1.208   2.578  0.8396  0.6309 -0.0917
 6926SOL    HW227829   2.076   1.251   2.457 -1.5499 -1.3971  0.7144
 6927SOL     OW27830   6.518   5.089   4.479 -0.5368 -0.0170 -0.0494
 6927SOL    HW127831   6.436   5.046   4.454 -0.9461  0.8939 -0.3203
 6927SOL    HW227832   6.545   5.043   4.558 -1.9574  0.4399  0.7462
 6928SOL     OW27833   4.453   5.143   8.752 -0.0413 -0.5813 -0.2480
 6928SOL    HW127834   4.442   5.218   8.811 -0.9852  0.1983 -1.3543
 6928SOL    HW227835   4.450   5.067   8.809 -0.3831  0.1661  0.7675
 6929SOL     OW27836   7.016   2.920  11.836  0.2619 -0.1983  0.0452
 6929SOL    HW127837   7.044   2.920  11.927  0.4366 -0.9998 -0.0038
 6929SOL    HW227838   6.978   3.006  11.823 -0.6759 -0.4300  1.1516
 6930SOL     OW27839   1.991   3.851   2.938 -0.0466 -0.4301 -0.1315
 6930SOL    HW127840   2.063   3.859   2.875  0.9793  0.5829  1.1089
 6930SOL    HW227841   1.915   3.888   2.892  0.0728 -1.8709 -1.6052
 6931SOL     OW27842   7.243   9.108  10.514 -0.8002  0.4876 -0.4971
 6931SOL    HW127843   7.242   9.014  10.494 -1.1906  0.8428 -2.2358
 6931SOL    HW227844   7.336   9.131  10.517 -0.6793 -0.0309  0.4784
 6932SOL     OW27845   7.715   2.765   4.365  0.4956  0.0623 -0.1699
 6932SOL    HW127846   7.649   2.833   4.375 -0.2952 -0.6894 -0.0881
 6932SOL    HW227847   7.782   2.803   4.309  0.1248  0.9340 -0.0312
 6933SOL     OW27848   7.268   9.014   0.087 -0.0152  0.5671 -0.5315
 6933SOL    HW127849   7.317   9.011   0.004 -0.1147  0.6497 -0.5937
 6933SOL    HW227850   7.309   9.085   0.136  1.2382 -0.6486  0.2461
 6934SOL     OW27851   3.197   3.832  12.058  0.6037 -0.0768  0.2660
 6934SOL    HW127852   3.107   3.852  12.084  0.5348  0.2037 -0.1780
 6934SOL    HW227853   3.251   3.895  12.107  0.4100  1.0236 -0.8996
 6935SOL     OW27854  11.995   3.332  11.233 -0.0653  0.3569  0.1996
 6935SOL    HW127855  12.028   3.261  11.288  1.8601  1.3733  0.4840
 6935SOL    HW227856  11.901   3.315  11.224  0.4804 -2.8787 -0.7921
 6936SOL     OW27857   2.515   3.297  10.659 -0.3983 -0.4313  0.1344
 6936SOL    HW127858   2.466   3.337  10.587 -1.1105  1.4188  1.5710
 6936SOL    HW227859   2.454   3.297  10.733  1.3902  1.0320  1.7232
 6937SOL     OW27860  10.264   0.019   1.460 -0.6121 -0.0477 -0.0458
 6937SOL    HW127861  10.275  -0.066   1.503 -0.4550  0.0888  0.1900
 6937SOL    HW227862  10.197   0.063   1.512 -1.3982 -0.3958 -0.7403
 6938SOL     OW27863  12.310   4.978   2.031 -0.5434  0.4653 -0.6513
 6938SOL    HW127864  12.394   5.011   2.062 -0.6423 -1.2669  1.7489
 6938SOL    HW227865  12.246   5.039   2.066 -0.5099 -0.3803  0.9532
 6939SOL     OW27866   2.490   5.081   0.694  0.0484  0.1373  0.2287
 6939SOL    HW127867   2.447   5.077   0.779  1.0914 -0.3837  0.7625
 6939SOL    HW227868   2.582   5.060   0.713  0.3540  0.2900 -0.9855
 6940SOL     OW27869   9.505   1.429   1.113 -0.0715  0.2694 -0.0306
 6940SOL    HW127870   9.510   1.380   1.030 -1.8095  1.8546 -1.1322
 6940SOL    HW227871   9.495   1.520   1.087  0.0104  0.8970  1.9695
 6941SOL     OW27872   4.948   3.446   0.909  0.3527  0.4726 -0.3828
 6941SOL    HW127873   4.993   3.530   0.918  0.3721  0.2583  2.4609
 6941SOL    HW227874   5.018   3.383   0.893  0.4404  0.8457 -1.5261
 6942SOL     OW27875  10.947  11.540   4.826  0.3403  0.1879  0.3491
 6942SOL    HW127876  10.990  11.457   4.806  0.0970 -0.0197  0.6921
 6942SOL    HW227877  10.886  11.553   4.753  1.1238  0.5925 -0.2546
 6943SOL     OW27878  11.872   1.850   0.421  0.5336  0.3805 -0.6750
 6943SOL    HW127879  11.858   1.756   0.413  0.2153  0.3789 -0.1583
 6943SOL    HW227880  11.959   1.866   0.383  1.4686 -0.4096  1.0473
 6944SOL     OW27881   8.947   9.095  10.301 -0.2961 -0.3391  0.0025
 6944SOL    HW127882   9.020   9.147  10.334 -1.3697  0.4468  1.2397
 6944SOL    HW227883   8.911   9.148  10.229 -0.2021 -0.2997 -0.0152
 6945SOL     OW27884   5.043  10.471  10.723 -0.0099 -0.2051  0.0245
 6945SOL    HW127885   4.953  10.451  10.748  0.1606 -3.8286 -1.6621
 6945SOL    HW227886   5.039  10.488  10.629  1.0421 -0.0725 -0.0078
 6946SOL     OW27887   8.497  10.169   6.330  0.2660 -0.0651 -0.3040
 6946SOL    HW127888   8.592  10.163   6.325  0.3920  1.6927 -0.4675
 6946SOL    HW227889   8.474  10.244   6.275 -1.2113 -0.3938 -0.1927
 6947SOL     OW27890   6.154   1.282   9.701 -0.4530  0.0932  0.0581
 6947SOL    HW127891   6.184   1.211   9.646 -1.4210 -0.5935  0.3889
 6947SOL    HW227892   6.234   1.324   9.733  0.1097  0.1193 -1.3575
 6948SOL     OW27893   6.172   8.233   5.487  0.4202 -0.1354  0.0855
 6948SOL    HW127894   6.180   8.138   5.492 -1.7771 -0.3034  1.1888
 6948SOL    HW227895   6.173   8.252   5.393  0.9643 -1.2204 -0.1407
 6949SOL     OW27896   8.264   4.098   0.691 -0.4237 -0.1072  0.0610
 6949SOL    HW127897   8.359   4.105   0.699 -0.5663  1.2435  0.9853
 6949SOL    HW227898   8.238   4.178   0.644 -1.0825 -0.5479 -0.3418
 6950SOL     OW27899   7.435   2.470   1.743 -0.2023  0.0340  0.2846
 6950SOL    HW127900   7.377   2.489   1.670 -0.5042  1.5775  0.8960
 6950SOL    HW227901   7.398   2.391   1.783  1.1326 -2.0957 -2.3737
 6951SOL     OW27902  10.259   7.731   4.182 -0.5052 -0.2291  0.2966
 6951SOL    HW127903  10.294   7.683   4.107  1.3824 -0.6645  1.3669
 6951SOL    HW227904  10.253   7.822   4.153  0.9425 -0.2548 -0.1750
 6952SOL     OW27905   5.924   1.249   3.677 -0.4359  0.4246 -0.5345
 6952SOL    HW127906   5.937   1.300   3.598  0.7696  2.2402  0.7613
 6952SOL    HW227907   5.922   1.313   3.748  1.0873 -1.2843  1.1886
 6953SOL     OW27908   6.447  11.368   5.453  0.3771 -0.3660 -0.3119
 6953SOL    HW127909   6.501  11.305   5.501  0.0564  0.1495  0.7537
 6953SOL    HW227910   6.389  11.313   5.400  1.6608 -0.9293 -1.1911
 6954SOL     OW27911   2.772  11.979  11.167 -0.0932  0.3051  0.3648
 6954SOL    HW127912   2.825  12.056  11.144 -0.7403  0.5406 -0.3914
 6954SOL    HW227913   2.704  12.013  11.224 -1.2926  0.6117 -1.1794
 6955SOL     OW27914   2.697   0.566   4.750  0.6367  0.1145 -0.1891
 6955SOL    HW127915   2.707   0.598   4.839  1.0678 -0.2716 -0.0936
 6955SOL    HW227916   2.780   0.522   4.731  0.3378 -0.2906 -0.5772
 6956SOL     OW27917   8.934   9.603  10.396 -0.1846  0.0018 -0.8511
 6956SOL    HW127918   9.019   9.609  10.439 -0.9502 -0.8535  0.8885
 6956SOL    HW227919   8.939   9.666  10.324  1.9955 -0.2228 -0.9727
 6957SOL     OW27920   9.253   2.488   7.811  0.4289 -0.2836  0.2467
 6957SOL    HW127921   9.273   2.491   7.905  1.1233 -0.4619  0.1087
 6957SOL    HW227922   9.166   2.528   7.804  0.1746 -0.6793  1.0214
 6958SOL     OW27923   0.600   2.398   4.405  0.2463  0.1659  0.1232
 6958SOL    HW127924   0.686   2.391   4.364 -0.3690 -1.0083 -1.0361
 6958SOL    HW227925   0.593   2.490   4.431  1.6778  0.3700 -0.1070
 6959SOL     OW27926   3.444   1.341   5.063 -0.7292  0.8578 -0.4380
 6959SOL    HW127927   3.527   1.356   5.109 -1.6009  1.5139  0.9777
 6959SOL    HW227928   3.470   1.309   4.977  0.9900  0.8051  0.0674
 6960SOL     OW27929   6.138   8.579   6.317 -0.4514 -0.1148 -0.1852
 6960SOL    HW127930   6.190   8.651   6.351  1.4484 -1.4778 -0.0223
 6960SOL    HW227931   6.162   8.573   6.225 -0.6045 -0.5225 -0.2007
 6961SOL     OW27932   2.359   4.679   0.823 -0.2931  0.8111 -0.6889
 6961SOL    HW127933   2.346   4.746   0.890 -3.2892  1.5242 -1.8356
 6961SOL    HW227934   2.377   4.729   0.743  1.0629  0.0558 -0.8786
 6962SOL     OW27935  11.659   1.607  10.537  0.2490 -0.5259  0.4574
 6962SOL    HW127936  11.692   1.693  10.510  0.1119 -0.4787  0.4400
 6962SOL    HW227937  11.596   1.627  10.606 -1.2620 -0.4718 -0.8882
 6963SOL     OW27938   0.803   3.565   2.043  0.2886  0.2758 -0.1211
 6963SOL    HW127939   0.766   3.607   2.120  1.3701  0.5124  0.2814
 6963SOL    HW227940   0.863   3.499   2.077 -1.3205 -1.5978 -0.7460
 6964SOL     OW27941   3.336   2.174   3.960 -0.0221 -0.1262  0.1169
 6964SOL    HW127942   3.313   2.134   4.044  1.2189 -0.6432  0.2198
 6964SOL    HW227943   3.392   2.110   3.917 -0.0669  0.4405 -0.8144
 6965SOL     OW27944   0.866   2.377   6.821 -0.0295 -0.3252  0.3606
 6965SOL    HW127945   0.791   2.332   6.782 -0.4395 -0.0777  0.8568
 6965SOL    HW227946   0.872   2.459   6.773 -0.8594  0.2166  1.1335
 6966SOL     OW27947   3.727   9.151   5.128  0.5519  0.3832 -0.0644
 6966SOL    HW127948   3.755   9.235   5.164  1.1047  0.7722 -1.3747
 6966SOL    HW227949   3.634   9.162   5.110  0.6050  0.6786 -0.1552
 6967SOL     OW27950   5.168  12.292   6.075  0.3635  0.0075  0.2678
 6967SOL    HW127951   5.130  12.380   6.083 -1.3769 -0.6143 -0.5654
 6967SOL    HW227952   5.115  12.238   6.134  1.6231 -0.4541  1.0171
 6968SOL     OW27953   5.362   6.552   2.701 -0.3737 -0.1605  0.2997
 6968SOL    HW127954   5.403   6.469   2.726  1.9819  0.6222 -0.7486
 6968SOL    HW227955   5.317   6.581   2.780  2.8833 -0.0508  2.2523
 6969SOL     OW27956  11.417   1.003   2.103 -0.6719  0.4819  0.2616
 6969SOL    HW127957  11.333   1.035   2.135 -1.9932 -0.0037 -2.4806
 6969SOL    HW227958  11.407   0.908   2.101 -0.8953  0.5000 -1.9980
 6970SOL     OW27959   8.689   8.898  10.677  0.1917 -0.0627  1.1287
 6970SOL    HW127960   8.639   8.953  10.738  1.1531  2.8636 -0.5273
 6970SOL    HW227961   8.744   8.844  10.733  0.2969  1.7543  2.8956
 6971SOL     OW27962   5.451   7.291   1.226 -0.5061 -0.0398 -0.2415
 6971SOL    HW127963   5.422   7.356   1.162  0.4889  0.6203 -0.0463
 6971SOL    HW227964   5.510   7.339   1.284  1.0500 -1.3291 -0.6933
 6972SOL     OW27965  11.001   4.690  12.501 -0.4613 -0.0014  0.2857
 6972SOL    HW127966  11.010   4.734  12.585  0.6980 -0.3865  0.3755
 6972SOL    HW227967  11.064   4.619  12.504  0.5053  0.7271 -1.3911
 6973SOL     OW27968   2.774   1.548   7.708 -0.4963 -0.2431 -0.2729
 6973SOL    HW127969   2.809   1.537   7.797 -0.2410 -1.5483 -0.5135
 6973SOL    HW227970   2.679   1.541   7.718 -0.4944  0.0256 -0.0519
 6974SOL     OW27971   8.220   6.938   3.602 -0.3160  0.3763  0.2952
 6974SOL    HW127972   8.235   6.915   3.694 -0.1093 -0.7033  0.0010
 6974SOL    HW227973   8.269   6.873   3.553 -2.2912 -0.4852 -0.6289
 6975SOL     OW27974   5.757   9.697   9.168  0.1695  0.2020 -0.0591
 6975SOL    HW127975   5.810   9.769   9.132 -0.9564  1.6863  1.1263
 6975SOL    HW227976   5.690   9.741   9.221 -1.8888 -1.6290 -0.9941
 6976SOL     OW27977   9.200   1.647   6.772  0.2672 -0.3944 -0.1277
 6976SOL    HW127978   9.238   1.621   6.856  3.2696  0.9973 -0.8888
 6976SOL    HW227979   9.189   1.566   6.723 -0.8001 -1.1405  1.3136
 6977SOL     OW27980   6.935   4.010  11.648  0.1680 -0.5938  0.2458
 6977SOL    HW127981   6.902   4.037  11.563 -2.6867 -2.0731  0.7582
 6977SOL    HW227982   7.023   3.979  11.631  0.5784  1.3976 -1.6924
 6978SOL     OW27983   6.892   9.451   0.039  0.1256  0.4939  0.1261
 6978SOL    HW127984   6.878   9.491   0.125  2.0496  1.0038  0.2472
 6978SOL    HW227985   6.839   9.504  -0.020  0.5158  1.5284  0.6832
 6979SOL     OW27986  12.256   6.958   6.672  0.0886  0.0598  0.7330
 6979SOL    HW127987  12.305   6.877   6.682  2.0026  0.8966 -1.2657
 6979SOL    HW227988  12.166   6.930   6.655  0.9949 -1.7155 -1.5077
 6980SOL     OW27989   9.964   8.946   1.239  0.1075 -0.0743 -0.0417
 6980SOL    HW127990   9.962   9.041   1.227  2.1599 -0.0995 -1.0111
 6980SOL    HW227991  10.057   8.923   1.237 -0.3568 -2.1768 -0.3291
 6981SOL     OW27992  10.984   6.910   1.374 -0.4334 -0.0393  0.4771
 6981SOL    HW127993  11.072   6.947   1.384 -0.5238  0.0549  0.9540
 6981SOL    HW227994  10.997   6.828   1.327 -0.0469 -0.2204  0.8999
 6982SOL     OW27995  10.980   2.427   2.651  0.6746  0.1158  0.5735
 6982SOL    HW127996  11.006   2.496   2.712  1.6786 -0.0556  0.3507
 6982SOL    HW227997  10.944   2.358   2.708  3.2749 -0.8249  1.2126
 6983SOL     OW27998   0.775   9.433   8.270  0.3659  0.5238  0.0628
 6983SOL    HW127999   0.856   9.427   8.322  0.2296  1.1601  0.3578
 6983SOL    HW228000   0.745   9.523   8.284 -0.0772  0.4648 -0.5234
 6984SOL     OW28001   9.796   3.036   4.689 -0.0681 -0.4570 -0.5148
 6984SOL    HW128002   9.882   3.073   4.672 -0.0391 -0.8904 -1.3618
 6984SOL    HW228003   9.777   3.060   4.780  1.5291 -1.5201  0.1506
 6985SOL     OW28004   4.569  11.726   5.810 -0.1550 -0.0921 -0.5696
 6985SOL    HW128005   4.536  11.749   5.896  0.3639 -1.0831 -0.0914
 6985SOL    HW228006   4.507  11.767   5.749 -1.3441 -0.5704  0.2776
 6986SOL     OW28007   1.585  10.569   5.174  0.0944  0.1946  0.1461
 6986SOL    HW128008   1.597  10.490   5.121 -0.0213  0.7973 -0.8024
 6986SOL    HW228009   1.503  10.555   5.221 -0.6391  0.3147 -1.0611
 6987SOL     OW28010   9.334   3.381   0.264 -0.8048 -0.2380  0.1192
 6987SOL    HW128011   9.271   3.386   0.336 -1.1029  1.1062 -0.2190
 6987SOL    HW228012   9.344   3.471   0.234  1.5178 -0.3766  0.3452
 6988SOL     OW28013   8.301   4.080   9.692 -0.1926  0.0578  0.0069
 6988SOL    HW128014   8.362   4.074   9.766  0.5170 -1.0670 -0.6477
 6988SOL    HW228015   8.272   4.171   9.693 -0.2965  0.0468  1.7403
 6989SOL     OW28016   9.212   5.707   1.827 -0.1385 -0.2228 -0.2608
 6989SOL    HW128017   9.162   5.635   1.788  1.9040 -0.8051 -1.9952
 6989SOL    HW228018   9.169   5.786   1.794 -1.0904 -0.6510 -0.0986
 6990SOL     OW28019   0.422  11.048   7.867 -0.0389  0.1948  0.3916
 6990SOL    HW128020   0.492  11.018   7.809  0.1945  0.9621  0.2662
 6990SOL    HW228021   0.443  11.140   7.885 -0.4972  0.1661  1.1178
 6991SOL     OW28022   3.586  12.167   6.053 -0.4681 -0.1270 -0.0509
 6991SOL    HW128023   3.603  12.258   6.078  1.4201 -0.7210  1.0071
 6991SOL    HW228024   3.494  12.154   6.073 -0.7584  1.5339 -0.1575
 6992SOL     OW28025   9.920   7.289   7.912 -0.1418 -0.1228 -0.6082
 6992SOL    HW128026   9.920   7.236   7.991  0.1304 -0.5655 -0.8947
 6992SOL    HW228027   9.863   7.241   7.851 -0.5543  0.3476 -0.5931
 6993SOL     OW28028   0.225   3.645   4.027 -0.1530  0.2703  0.7724
 6993SOL    HW128029   0.217   3.586   4.102  3.2528 -1.9761 -0.3948
 6993SOL    HW228030   0.283   3.715   4.058 -2.0728  1.6961  1.3512
 6994SOL     OW28031  10.981   1.025   6.368  0.0781  0.3357  0.0968
 6994SOL    HW128032  11.077   1.020   6.365  0.2554  0.9607  2.6041
 6994SOL    HW228033  10.960   1.104   6.318  1.1699  1.9254  2.0069
 6995SOL     OW28034   6.892   1.673   4.104  0.2516  0.3496  0.7176
 6995SOL    HW128035   6.987   1.668   4.094  0.2100  1.3777 -0.5464
 6995SOL    HW228036   6.864   1.584   4.125  1.6768  0.3902  3.1712
 6996SOL     OW28037   0.599   5.453   9.166  0.2643  0.0421 -0.6323
 6996SOL    HW128038   0.527   5.513   9.187 -0.8263 -0.7609 -1.9337
 6996SOL    HW228039   0.614   5.404   9.247 -0.2422  0.6139 -0.1762
 6997SOL     OW28040   6.897   4.997  12.519 -0.2836  0.1663  0.2984
 6997SOL    HW128041   6.814   5.032  12.487 -0.5579 -0.7786 -0.0592
 6997SOL    HW228042   6.923   5.057  12.589 -0.7635  1.0330 -0.2398
 6998SOL     OW28043   2.084   7.897  10.714 -0.2295 -0.1841  0.0196
 6998SOL    HW128044   2.070   7.961  10.784 -1.6841 -0.5600  0.1126
 6998SOL    HW228045   2.131   7.825  10.756  0.1335  0.2004  0.2700
 6999SOL     OW28046   2.769   7.375  10.580  0.0777  0.0292  0.6309
 6999SOL    HW128047   2.740   7.292  10.618 -3.7194  0.0288 -1.7888
 6999SOL    HW228048   2.699   7.437  10.601  0.9349  1.6119 -0.9069
 7000SOL     OW28049   7.839   6.855   1.666  0.0950 -0.1838  0.5444
 7000SOL    HW128050   7.811   6.815   1.749  0.0994  0.4076  0.8383
 7000SOL    HW228051   7.882   6.937   1.692 -0.1544  0.1479 -0.0537
 7001SOL     OW28052   4.605   6.520   7.670  0.1262 -0.3692 -0.6764
 7001SOL    HW128053   4.670   6.550   7.733  0.4763 -1.0908 -0.6857
 7001SOL    HW228054   4.630   6.429   7.651  1.1962  0.4151 -3.3753
 7002SOL     OW28055   6.496   2.362   6.208 -0.2536  0.1579  0.1476
 7002SOL    HW128056   6.524   2.354   6.299 -0.8004  0.7002  0.3660
 7002SOL    HW228057   6.401   2.350   6.210 -0.1640 -0.8200 -0.4866
 7003SOL     OW28058   7.019   9.336   2.102 -0.0293 -0.1972  0.4609
 7003SOL    HW128059   7.026   9.283   2.022  2.0764 -1.2186  1.2430
 7003SOL    HW228060   6.929   9.368   2.102 -0.7381 -1.9955 -1.1750
 7004SOL     OW28061   8.585   4.628   8.193  0.3094  0.2456 -0.3802
 7004SOL    HW128062   8.659   4.652   8.137 -0.6455  1.3755 -1.2126
 7004SOL    HW228063   8.531   4.707   8.197  0.4587  0.3357  2.3977
 7005SOL     OW28064   0.973   4.438   3.895 -0.3281  0.1735 -0.5534
 7005SOL    HW128065   0.978   4.351   3.934 -0.4673  0.3629 -0.1083
 7005SOL    HW228066   0.883   4.465   3.909 -0.0103  0.8300  0.2716
 7006SOL     OW28067   3.270   2.115   3.555  0.2614  0.0298  0.1398
 7006SOL    HW128068   3.311   2.198   3.532 -0.9172  0.4775 -0.4254
 7006SOL    HW228069   3.333   2.072   3.612  0.3684  1.8703  1.5084
 7007SOL     OW28070   5.808  10.612   2.371  0.0447  0.3844  0.1627
 7007SOL    HW128071   5.786  10.698   2.408  0.9294  0.5498  0.3258
 7007SOL    HW228072   5.732  10.589   2.318 -0.8850  0.5379  1.3944
 7008SOL     OW28073  11.931   2.941   3.983  0.4427 -0.0937 -0.3699
 7008SOL    HW128074  11.875   2.910   4.055 -0.3115 -0.1919 -0.9908
 7008SOL    HW228075  11.883   3.015   3.945 -0.3563 -1.5129 -2.2854
 7009SOL     OW28076   7.106   3.927   2.736  0.7102 -0.4541  0.6194
 7009SOL    HW128077   7.014   3.955   2.743  0.3543 -1.4980  0.4032
 7009SOL    HW228078   7.139   3.972   2.659 -0.1830 -1.4579 -0.4007
 7010SOL     OW28079  12.370   4.988   8.847  0.5103  0.6061 -0.1753
 7010SOL    HW128080  12.414   5.001   8.931 -0.5761  0.7590  0.3883
 7010SOL    HW228081  12.419   5.044   8.786  2.5461 -1.0061 -0.1161
 7011SOL     OW28082   1.479  11.763  10.193  0.4601  0.2087  0.0608
 7011SOL    HW128083   1.526  11.843  10.213  0.0700  0.4040  0.2033
 7011SOL    HW228084   1.386  11.787  10.199  0.3379 -0.1414 -0.3217
 7012SOL     OW28085   1.740  11.075   1.769  0.4537 -0.3912 -0.2712
 7012SOL    HW128086   1.804  11.084   1.840  0.5607 -1.0063 -0.2846
 7012SOL    HW228087   1.707  11.164   1.755  2.1070  0.1493 -1.0003
 7013SOL     OW28088   7.029   0.229   4.686 -0.1624 -0.4971 -0.4296
 7013SOL    HW128089   7.110   0.225   4.736  1.1534  0.4257 -2.3811
 7013SOL    HW228090   7.030   0.151   4.631 -0.2710 -0.1606 -0.9197
 7014SOL     OW28091   7.982   8.291   9.111  0.2157 -0.0877 -0.7326
 7014SOL    HW128092   7.988   8.385   9.092 -1.5924  0.1795 -0.1614
 7014SOL    HW228093   7.919   8.258   9.048 -0.7220 -0.4903  0.3700
 7015SOL     OW28094   3.138   0.894   6.015 -0.4032 -0.0853 -0.2162
 7015SOL    HW128095   3.092   0.934   5.942  1.0337 -0.6824 -1.5015
 7015SOL    HW228096   3.097   0.932   6.093  0.1687  3.1035 -1.3237
 7016SOL     OW28097   6.311   9.711   2.528  0.5628 -0.1334 -0.3224
 7016SOL    HW128098   6.307   9.670   2.441 -0.4246  0.1241 -0.4175
 7016SOL    HW228099   6.257   9.790   2.519  1.1664  0.3597  0.2897
 7017SOL     OW28100  12.570   6.875   1.392 -0.7101 -0.2483 -0.3761
 7017SOL    HW128101  12.607   6.880   1.304 -0.7290  0.0447 -0.3700
 7017SOL    HW228102  12.614   6.945   1.440 -2.4714  1.2618 -0.8342
 7018SOL     OW28103   1.970   7.033   0.966  0.3683  0.2480  0.0861
 7018SOL    HW128104   2.012   7.057   0.883  0.5294  1.0472  0.3871
 7018SOL    HW228105   1.945   7.117   1.005  2.7913  0.1172  2.1540
 7019SOL     OW28106   6.520   2.270   8.685 -0.0775 -0.5104 -0.3445
 7019SOL    HW128107   6.605   2.246   8.723  0.6343  0.3502 -1.2984
 7019SOL    HW228108   6.504   2.203   8.619 -0.8146 -1.4302  0.7461
 7020SOL     OW28109   8.926   5.310  11.060 -0.5797  0.0741  0.4471
 7020SOL    HW128110   8.985   5.248  11.102 -1.7364 -0.8182  0.8219
 7020SOL    HW228111   8.942   5.393  11.105  0.5128 -0.0949  0.3915
 7021SOL     OW28112   2.710  11.512   1.848 -0.3554  0.0140 -0.2897
 7021SOL    HW128113   2.747  11.494   1.935 -0.3124 -0.5506 -0.4226
 7021SOL    HW228114   2.725  11.432   1.798 -0.7239  0.1971 -0.7036
 7022SOL     OW28115   8.075   4.679   5.731  0.3660 -0.4034  0.2222
 7022SOL    HW128116   7.987   4.680   5.693  1.2493  0.4354 -1.9112
 7022SOL    HW228117   8.133   4.704   5.660  2.4608 -1.7446  1.3393
 7023SOL     OW28118   5.215   2.552   2.071  0.1734 -0.1633 -1.0712
 7023SOL    HW128119   5.130   2.579   2.035  1.1380  0.8929 -2.6782
 7023SOL    HW228120   5.278   2.609   2.029  1.6729 -0.6266  0.4395
 7024SOL     OW28121   3.082   0.787   0.731  0.0925 -0.2653 -0.0277
 7024SOL    HW128122   3.162   0.793   0.783  0.2749 -0.1707 -0.3119
 7024SOL    HW228123   3.104   0.728   0.659  0.1529  0.3546 -0.5338
 7025SOL     OW28124  12.129  10.240   9.670  0.7416 -0.2504  0.2262
 7025SOL    HW128125  12.165  10.161   9.631 -2.5353 -2.3124  1.0056
 7025SOL    HW228126  12.149  10.232   9.763  0.3932 -0.1579  0.3093
 7026SOL     OW28127   2.657   6.630   8.327  0.1463 -0.0858 -0.0358
 7026SOL    HW128128   2.620   6.581   8.400 -0.6253  0.9571  0.3061
 7026SOL    HW228129   2.719   6.570   8.286  1.7991 -0.1873  2.4166
 7027SOL     OW28130  11.625   1.041   2.632 -0.7579  0.7269 -0.4571
 7027SOL    HW128131  11.576   0.961   2.614  0.0816  0.1825 -0.3490
 7027SOL    HW228132  11.681   1.053   2.555  0.6651  0.0302  0.4440
 7028SOL     OW28133   7.920   4.092   5.859  0.4236 -0.1125  0.0608
 7028SOL    HW128134   7.954   4.155   5.796 -0.8844  1.0637  0.4731
 7028SOL    HW228135   7.992   4.077   5.920  0.9088  0.6348 -0.3216
 7029SOL     OW28136  12.346  11.266   5.143 -0.0772 -0.1858  0.0854
 7029SOL    HW128137  12.281  11.336   5.142 -1.6669 -1.5994  0.2582
 7029SOL    HW228138  12.295  11.186   5.152  1.6545 -1.4140 -0.4831
 7030SOL     OW28139   6.923   3.764   5.775 -0.3218 -0.5036  0.8556
 7030SOL    HW128140   6.978   3.768   5.697  1.0645  1.5619  1.8381
 7030SOL    HW228141   6.847   3.817   5.752 -0.0070 -0.0566  0.8212
 7031SOL     OW28142   6.767   6.561   3.749 -0.4664 -0.3181 -0.1162
 7031SOL    HW128143   6.798   6.561   3.658 -0.6002 -2.0131 -0.1873
 7031SOL    HW228144   6.685   6.512   3.747 -0.4549 -0.4022  0.9200
 7032SOL     OW28145   6.869   3.554   7.272 -0.2162  0.2634  0.1990
 7032SOL    HW128146   6.797   3.537   7.333 -0.7020  2.6788  0.4286
 7032SOL    HW228147   6.827   3.555   7.186  0.0795 -1.0828  0.0315
 7033SOL     OW28148   1.927   0.083   2.104  0.2890  0.8100  0.3508
 7033SOL    HW128149   1.923   0.120   2.016  0.5116  0.1502  0.0603
 7033SOL    HW228150   1.992   0.137   2.149 -0.9466  2.1631  0.6185
 7034SOL     OW28151  12.300   0.239   4.680 -0.6159  0.1212 -0.1344
 7034SOL    HW128152  12.337   0.264   4.596 -0.3379 -0.9144 -0.3318
 7034SOL    HW228153  12.212   0.278   4.681 -0.1729  1.1628 -0.3725
 7035SOL     OW28154   2.376   1.459  12.459 -0.3097  0.3298 -0.0834
 7035SOL    HW128155   2.390   1.382  12.405 -0.8536 -1.4100  2.1013
 7035SOL    HW228156   2.281   1.464  12.470 -0.2384  0.9343  0.3357
 7036SOL     OW28157   4.799   0.005   7.947  0.5255 -0.2967  0.0462
 7036SOL    HW128158   4.832   0.066   7.881 -0.3457 -0.1463 -0.2689
 7036SOL    HW228159   4.863   0.009   8.018  0.0005  1.7556  0.4792
 7037SOL     OW28160   8.292   4.432   5.516  0.0571 -0.6359 -0.2024
 7037SOL    HW128161   8.207   4.388   5.521  0.0054 -0.3912  2.9575
 7037SOL    HW228162   8.354   4.363   5.490 -0.7776 -1.3247 -0.3891
 7038SOL     OW28163   9.267   2.732   2.489 -0.1472  0.3333  0.6528
 7038SOL    HW128164   9.240   2.769   2.574 -0.6562 -1.7246  1.4387
 7038SOL    HW228165   9.256   2.638   2.499  2.3651 -0.2064 -0.8121
 7039SOL     OW28166   6.366  11.404   4.581  0.7298 -0.5683  0.4520
 7039SOL    HW128167   6.402  11.316   4.586  2.0492 -0.0453  0.5850
 7039SOL    HW228168   6.278  11.397   4.619 -0.2136 -2.3373 -1.8121
 7040SOL     OW28169   9.631   9.596   5.803  0.0465 -0.3263  0.2937
 7040SOL    HW128170   9.555   9.539   5.813  0.4733 -0.6048  2.5941
 7040SOL    HW228171   9.706   9.538   5.819  0.6380  0.3296 -0.0454
 7041SOL     OW28172   1.215  12.202  10.114 -0.0345 -0.1141 -0.4993
 7041SOL    HW128173   1.237  12.285  10.156 -0.7581 -0.1923  0.0704
 7041SOL    HW228174   1.194  12.226  10.024 -1.7756  0.5928  0.0414
 7042SOL     OW28175  10.932   7.447  10.847 -0.2832  0.7949 -0.1017
 7042SOL    HW128176  11.020   7.460  10.883  1.1302  0.2127 -3.0112
 7042SOL    HW228177  10.914   7.527  10.799  0.6635 -0.6231 -3.0991
 7043SOL     OW28178   7.832   8.114   7.406 -0.0117  0.1506 -0.3406
 7043SOL    HW128179   7.864   8.189   7.355 -1.3453  0.9059 -0.0978
 7043SOL    HW228180   7.829   8.146   7.496  1.4510 -0.8931  0.1292
 7044SOL     OW28181   3.219   1.993   5.492  0.2539  0.3665 -0.0218
 7044SOL    HW128182   3.307   1.970   5.462  0.8318  0.4602  1.5188
 7044SOL    HW228183   3.218   2.089   5.492  0.3681  0.3689  0.5512
 7045SOL     OW28184   1.945  11.369   3.450  0.1711 -0.0126 -0.1262
 7045SOL    HW128185   2.027  11.405   3.417 -0.1164  0.4645 -0.3266
 7045SOL    HW228186   1.972  11.310   3.521  0.6626  0.4436  0.0767
 7046SOL     OW28187   3.743   6.753   2.888 -0.0753  0.2847  0.4378
 7046SOL    HW128188   3.706   6.774   2.974 -1.7833 -0.4807 -0.0635
 7046SOL    HW228189   3.804   6.682   2.906 -0.8423 -0.2608  0.9696
 7047SOL     OW28190   3.855   8.357   5.349  0.7535 -0.0066 -0.1261
 7047SOL    HW128191   3.843   8.438   5.399  0.9905 -0.9029  1.4383
 7047SOL    HW228192   3.930   8.375   5.292  0.8955  0.8151  0.3080
 7048SOL     OW28193   2.057  10.310   4.772  0.3236  0.3234  0.3890
 7048SOL    HW128194   2.021  10.355   4.848 -0.5172  0.5903 -0.1516
 7048SOL    HW228195   2.083  10.380   4.712  2.2156  0.1586  0.9456
 7049SOL     OW28196  10.004   0.032   9.526  0.1576  0.1266  0.6129
 7049SOL    HW128197  10.043   0.065   9.445 -0.2935  1.4236  0.9025
 7049SOL    HW228198  10.038  -0.057   9.534  0.0999 -0.0730 -1.0671
 7050SOL     OW28199   8.822   4.054   7.823 -0.3496 -0.7832 -0.0080
 7050SOL    HW128200   8.849   4.047   7.731 -0.2282  1.0821 -0.1571
 7050SOL    HW228201   8.868   3.982   7.866  0.3524 -1.1214 -1.2471
 7051SOL     OW28202   3.455   7.262  10.650 -0.4930  0.2971 -0.2940
 7051SOL    HW128203   3.497   7.343  10.622  0.8749 -0.2701  0.0380
 7051SOL    HW228204   3.471   7.200  10.578  0.0628 -0.1849  0.2287
 7052SOL     OW28205   6.759  10.731   7.603  0.2137 -0.2842  0.0006
 7052SOL    HW128206   6.689  10.671   7.629  1.3230 -1.4884  0.3214
 7052SOL    HW228207   6.781  10.706   7.513  0.8577 -0.5576  0.2258
 7053SOL     OW28208   5.936   7.377   0.231 -0.1089 -0.1064 -0.3365
 7053SOL    HW128209   5.929   7.379   0.135 -1.3357  0.3691 -0.2487
 7053SOL    HW228210   5.968   7.464   0.254 -1.8789  0.5419 -0.1900
 7054SOL     OW28211   1.771   7.460   1.197 -0.2186  0.0700 -0.0644
 7054SOL    HW128212   1.864   7.479   1.189  0.0709 -1.0381  0.4834
 7054SOL    HW228213   1.759   7.377   1.151 -0.5826 -0.6922  1.3385
 7055SOL     OW28214   2.736   5.048   9.763 -0.0319  0.3455  0.4050
 7055SOL    HW128215   2.681   5.000   9.825  0.6551 -0.0667  0.7041
 7055SOL    HW228216   2.692   5.132   9.752  0.1415  0.6512  1.8975
 7056SOL     OW28217   2.729   4.517   2.100 -0.3930 -0.2203  0.4224
 7056SOL    HW128218   2.822   4.536   2.085 -0.4074 -0.7539 -0.4352
 7056SOL    HW228219   2.687   4.534   2.015 -1.0852  0.0349  0.8070
 7057SOL     OW28220   6.263   2.967   6.137  0.1160  0.2290  0.3745
 7057SOL    HW128221   6.235   3.050   6.098 -1.3801  0.3484  1.6248
 7057SOL    HW228222   6.231   2.971   6.227  1.2744 -1.1167  0.8735
 7058SOL     OW28223   4.614   8.055   4.422 -0.1031  0.1022  0.2333
 7058SOL    HW128224   4.675   8.128   4.435 -0.3475  0.1882  0.9437
 7058SOL    HW228225   4.631   7.997   4.497 -2.2409  1.0722  1.5463
 7059SOL     OW28226   9.676   8.635  11.195 -0.4854  0.4455  0.4839
 7059SOL    HW128227   9.678   8.558  11.139  0.6546  0.1665  0.8716
 7059SOL    HW228228   9.584   8.649  11.215 -0.6534 -1.1539  0.8791
 7060SOL     OW28229   7.813   2.012   3.264 -0.1737 -0.1764 -0.2341
 7060SOL    HW128230   7.863   2.094   3.259  0.7251 -0.6883  0.1264
 7060SOL    HW228231   7.859   1.960   3.330 -0.9655 -0.8247 -0.1782
 7061SOL     OW28232   1.003   2.563   3.816  0.2971 -0.2170  0.0906
 7061SOL    HW128233   1.049   2.644   3.794  0.9299 -0.3993  0.7338
 7061SOL    HW228234   0.914   2.577   3.782  0.6674  0.3462 -0.6854
 7062SOL     OW28235   1.702   3.233   8.645  0.4863 -0.1593  0.5621
 7062SOL    HW128236   1.694   3.328   8.642 -0.9768 -0.2534  0.9880
 7062SOL    HW228237   1.797   3.217   8.645  0.7493  1.2983  0.7713
 7063SOL     OW28238   8.678   7.462   7.890 -0.5263 -0.2192  0.3211
 7063SOL    HW128239   8.762   7.468   7.934 -0.6185  0.3940  0.4302
 7063SOL    HW228240   8.621   7.416   7.952 -0.1838 -0.9367  0.1054
 7064SOL     OW28241  11.660  10.990   6.238  0.1229 -0.0525  0.3309
 7064SOL    HW128242  11.725  11.061   6.237  1.1081 -0.9428  0.0622
 7064SOL    HW228243  11.689  10.931   6.306  1.4180 -2.0786 -1.8343
 7065SOL     OW28244   7.325   8.203  11.009 -0.0511  0.3908 -0.0272
 7065SOL    HW128245   7.399   8.193  11.069  1.7298  0.5527 -2.0760
 7065SOL    HW228246   7.317   8.118  10.966 -0.6318  0.5836 -0.3150
 7066SOL     OW28247   0.909  11.107   6.859 -0.5352 -0.3006  0.0472
 7066SOL    HW128248   0.820  11.073   6.858 -0.0761 -1.8712  2.6159
 7066SOL    HW228249   0.905  11.184   6.916 -0.6090  1.0237 -1.6677
 7067SOL     OW28250   1.288   5.937   2.196 -0.8865  0.4926  0.3102
 7067SOL    HW128251   1.316   5.845   2.192 -2.5545 -0.2320  2.5355
 7067SOL    HW228252   1.369   5.987   2.207 -0.0658 -0.9420  1.1325
 7068SOL     OW28253   4.665   3.363   1.442  0.1925  0.3520 -0.0675
 7068SOL    HW128254   4.710   3.331   1.520 -1.4184 -1.5819  0.1343
 7068SOL    HW228255   4.669   3.458   1.450  1.3978  0.2150  1.5637
 7069SOL     OW28256   1.186   8.888   6.950  0.1701 -0.0536  0.1796
 7069SOL    HW128257   1.129   8.912   7.024 -0.7185 -0.4310 -0.3646
 7069SOL    HW228258   1.164   8.953   6.882 -1.5133 -1.6922 -0.9448
 7070SOL     OW28259   0.099   1.382   9.884 -0.2221 -0.5110  0.4912
 7070SOL    HW128260   0.092   1.460   9.828  2.0202  0.0254  0.8537
 7070SOL    HW228261   0.008   1.358   9.904 -0.9952  2.4151  0.9384
 7071SOL     OW28262   2.001   3.831  10.983  0.0142  0.0532 -0.4527
 7071SOL    HW128263   1.974   3.921  10.966  1.3986  0.3126 -1.4856
 7071SOL    HW228264   2.079   3.840  11.039 -1.0359 -0.5979  1.1633
 7072SOL     OW28265   1.353   2.849   7.697  0.1128 -0.0934  0.0450
 7072SOL    HW128266   1.448   2.844   7.694  0.1939  1.4224 -0.6839
 7072SOL    HW228267   1.333   2.869   7.789  0.5557  0.3808  0.0426
 7073SOL     OW28268   9.539  10.259   3.693 -0.2789 -0.5499  0.1303
 7073SOL    HW128269   9.447  10.242   3.673 -0.4316 -1.2353  1.3331
 7073SOL    HW228270   9.576  10.174   3.715  0.3261 -0.1142  0.8820
 7074SOL     OW28271   9.949   7.250   8.476 -0.1858 -0.2309 -0.5229
 7074SOL    HW128272   9.960   7.281   8.386 -0.0519 -0.8312 -0.7173
 7074SOL    HW228273  10.030   7.277   8.520 -0.6187  0.8368 -0.3445
 7075SOL     OW28274   8.205   8.911   0.603  0.2854 -0.6828 -0.2449
 7075SOL    HW128275   8.249   8.877   0.524  1.7366 -0.7177  0.5317
 7075SOL    HW228276   8.173   8.997   0.578  2.5174  0.1899 -0.3599
 7076SOL     OW28277   7.461   3.311   8.734  0.3608 -0.4553  0.1220
 7076SOL    HW128278   7.536   3.351   8.690  0.7263 -1.0832  0.1511
 7076SOL    HW228279   7.461   3.349   8.821  2.5562 -2.6744  1.2077
 7077SOL     OW28280   4.788   5.357  10.050  0.3719  0.3565 -0.2111
 7077SOL    HW128281   4.776   5.430  10.112 -0.1761 -0.1262  0.2612
 7077SOL    HW228282   4.766   5.395   9.965 -0.4343  0.6111  0.0990
 7078SOL     OW28283   6.402   4.905   8.573 -0.0781  0.2718 -0.5871
 7078SOL    HW128284   6.333   4.840   8.561 -0.6081  0.6570  0.2714
 7078SOL    HW228285   6.406   4.952   8.490 -0.2425 -0.3273 -0.9387
 7079SOL     OW28286  11.332   5.327   9.734  0.3351  0.4840 -0.4952
 7079SOL    HW128287  11.283   5.317   9.816  2.1349 -1.0617  0.4594
 7079SOL    HW228288  11.393   5.400   9.751  1.4666 -0.5428 -0.0182
 7080SOL     OW28289   3.746   8.252   8.802  0.1322 -0.2873  0.1949
 7080SOL    HW128290   3.818   8.189   8.806 -0.7881 -1.4472 -0.7410
 7080SOL    HW228291   3.669   8.202   8.827 -0.5584  0.5820 -0.1506
 7081SOL     OW28292  12.232   6.838   6.111 -0.1057  0.2880 -0.5418
 7081SOL    HW128293  12.324   6.864   6.102  0.0519  0.2561  0.7708
 7081SOL    HW228294  12.233   6.743   6.106  0.2683  0.1139  1.6673
 7082SOL     OW28295   9.037   8.915   5.568 -0.2078 -0.3857  0.0513
 7082SOL    HW128296   8.959   8.902   5.622 -0.4156 -0.1378 -0.1867
 7082SOL    HW228297   9.075   8.997   5.599 -0.6614  0.0673 -0.5811
 7083SOL     OW28298   8.224  10.008   5.548  0.7065 -0.1073  0.0067
 7083SOL    HW128299   8.173   9.946   5.496 -0.1041  0.1123  0.5132
 7083SOL    HW228300   8.260   9.955   5.619  0.0993 -0.0324  0.3807
 7084SOL     OW28301   1.696  10.441   4.079 -0.2525  0.0135  0.2910
 7084SOL    HW128302   1.671  10.447   3.986 -2.0361 -0.2134  0.7151
 7084SOL    HW228303   1.783  10.402   4.078 -0.7589 -1.1888 -1.2641
 7085SOL     OW28304   8.204  10.561   6.006 -0.1441 -0.1131  0.2537
 7085SOL    HW128305   8.245  10.645   6.028 -0.6889  0.2202  0.0144
 7085SOL    HW228306   8.138  10.548   6.074 -0.5210 -0.0140 -0.0856
 7086SOL     OW28307   1.852  10.823   8.824  0.4257 -0.4042 -0.0681
 7086SOL    HW128308   1.860  10.828   8.919  1.7506 -0.9163 -0.1334
 7086SOL    HW228309   1.909  10.892   8.791  1.7596 -1.6517 -0.5069
 7087SOL     OW28310   5.903   6.458   1.684 -0.0586  0.0281 -0.2980
 7087SOL    HW128311   5.974   6.514   1.715  1.2235 -0.9131 -1.4289
 7087SOL    HW228312   5.879   6.405   1.760  1.2043 -0.3947 -0.1761
 7088SOL     OW28313   6.045   6.753  11.838 -1.0309 -0.1240  0.0646
 7088SOL    HW128314   6.042   6.700  11.759 -0.7337 -1.7841  1.1149
 7088SOL    HW228315   6.091   6.699  11.902  1.1114  2.1621  0.6676
 7089SOL     OW28316   7.026   5.220   8.783 -0.3528  0.2890 -0.2593
 7089SOL    HW128317   7.045   5.134   8.744  0.6385  0.9029 -1.2013
 7089SOL    HW228318   7.111   5.249   8.817 -0.5002  1.2538 -0.6955
 7090SOL     OW28319  11.997   1.918   6.607  0.5146  0.3192  0.0540
 7090SOL    HW128320  11.970   1.932   6.516  0.6366  0.2808  0.0121
 7090SOL    HW228321  12.080   1.871   6.601 -0.8121 -2.2218  0.2089
 7091SOL     OW28322   4.010   8.499   3.707  0.2431  0.9750 -0.3873
 7091SOL    HW128323   4.030   8.558   3.634  0.4294  1.1704 -0.1789
 7091SOL    HW228324   3.996   8.557   3.782 -1.2217  0.8632 -0.5381
 7092SOL     OW28325   9.349   0.455  10.762  0.0629 -0.4168 -0.2738
 7092SOL    HW128326   9.390   0.542  10.763  0.2321 -0.4849 -0.8916
 7092SOL    HW228327   9.256   0.473  10.749  0.1601 -0.3442 -0.8989
 7093SOL     OW28328   6.293   8.393  12.488  0.0566 -0.2163 -0.1260
 7093SOL    HW128329   6.378   8.386  12.530  0.8817 -0.4349 -1.7441
 7093SOL    HW228330   6.275   8.487  12.484 -0.4891 -0.2201  1.5073
 7094SOL     OW28331  10.247  12.399   1.658  0.3909 -0.0981 -0.7774
 7094SOL    HW128332  10.225  12.306   1.661 -0.1302  0.0362 -0.1001
 7094SOL    HW228333  10.179  12.441   1.710  0.3767  0.7174 -1.4322
 7095SOL     OW28334  10.575   7.717   6.030 -0.7130 -0.2256 -0.4019
 7095SOL    HW128335  10.660   7.762   6.026 -0.2689 -0.3152  3.7300
 7095SOL    HW228336  10.597   7.624   6.026 -0.7825 -0.2363 -0.5656
 7096SOL     OW28337   0.620  11.509  10.621  0.1918 -0.2734 -0.2255
 7096SOL    HW128338   0.707  11.515  10.660  0.3630  1.6232 -0.7946
 7096SOL    HW228339   0.634  11.462  10.539  0.7610  0.3175 -0.4758
 7097SOL     OW28340   3.616   5.760   8.443  0.1964  0.1448 -0.3367
 7097SOL    HW128341   3.700   5.787   8.407 -0.9388 -0.5823 -3.9396
 7097SOL    HW228342   3.614   5.798   8.531  4.2382  0.1360 -0.0451
 7098SOL     OW28343   3.740  11.549   4.013 -0.7254 -0.0318  0.8080
 7098SOL    HW128344   3.669  11.485   4.023 -0.9735  0.2891  1.1134
 7098SOL    HW228345   3.728  11.609   4.086 -0.8840  0.7478  0.1467
 7099SOL     OW28346  10.392  10.909  10.051 -0.0754 -0.7969 -0.0386
 7099SOL    HW128347  10.440  10.827  10.049  0.8841 -0.2518 -0.8618
 7099SOL    HW228348  10.307  10.889  10.013  0.0986 -1.4384 -0.0921
 7100SOL     OW28349   9.357   4.415   8.728  0.3541  0.2603  0.2064
 7100SOL    HW128350   9.356   4.341   8.788 -0.0894  0.1864  0.1102
 7100SOL    HW228351   9.272   4.411   8.684  0.8148  0.1148 -0.6713
 7101SOL     OW28352   0.944   0.280   4.407  0.4352  0.0122  0.9360
 7101SOL    HW128353   1.021   0.320   4.367 -0.3195 -0.1526 -0.7758
 7101SOL    HW228354   0.943   0.191   4.373 -0.1326 -0.2012  1.4981
 7102SOL     OW28355  11.713   7.598   5.646  0.0527 -0.1659 -0.2337
 7102SOL    HW128356  11.754   7.639   5.569  0.4512 -0.2847 -0.0853
 7102SOL    HW228357  11.779   7.605   5.715 -0.3001 -0.0713  0.0991
 7103SOL     OW28358   8.335   6.216   6.822  0.6262 -0.0134  0.3063
 7103SOL    HW128359   8.428   6.233   6.832  0.7014  0.2522 -0.7302
 7103SOL    HW228360   8.296   6.245   6.904  1.0122  3.3199 -0.5495
 7104SOL     OW28361   1.186   8.692   5.444 -0.8409 -0.2020 -0.4904
 7104SOL    HW128362   1.199   8.600   5.468 -1.8274 -0.0146  0.8813
 7104SOL    HW228363   1.273   8.724   5.423 -0.6150 -1.7422 -2.1600
 7105SOL     OW28364  12.237   3.275   9.253  0.4757 -0.0438  0.3356
 7105SOL    HW128365  12.197   3.292   9.339 -0.7794 -1.2401  0.0239
 7105SOL    HW228366  12.256   3.362   9.218 -0.7665  0.5395  1.0293
 7106SOL     OW28367   8.600   6.180   0.198  0.1284  0.4537 -0.1687
 7106SOL    HW128368   8.633   6.090   0.199 -2.3158 -0.5711 -1.8941
 7106SOL    HW228369   8.596   6.205   0.291 -1.4106 -2.1853  0.5751
 7107SOL     OW28370   0.453  10.391   5.977 -0.2667 -0.2307 -1.1333
 7107SOL    HW128371   0.376  10.439   5.948 -1.9493 -2.9877 -1.6573
 7107SOL    HW228372   0.462  10.320   5.914  0.5195 -2.0594  0.9050
 7108SOL     OW28373   0.060   1.090  10.946  0.4916 -0.3921  0.5140
 7108SOL    HW128374   0.098   1.002  10.935  1.5109  0.1660 -0.6402
 7108SOL    HW228375   0.115   1.147  10.893 -0.5997  0.8460  0.6576
 7109SOL     OW28376   3.405  12.393   3.034  0.6384  0.1453  0.1238
 7109SOL    HW128377   3.365  12.384   2.947  0.6480  1.6743 -0.0667
 7109SOL    HW228378   3.468  12.322   3.039  0.5197 -0.0621 -1.0675
 7110SOL     OW28379   8.143   0.591  10.072  0.0270  0.0108  0.4485
 7110SOL    HW128380   8.131   0.522  10.007 -0.2072 -0.3508  0.8713
 7110SOL    HW228381   8.094   0.561  10.148  0.9782  0.0303  1.0909
 7111SOL     OW28382   0.026   6.224   2.468 -0.4620  0.0735  0.1773
 7111SOL    HW128383  -0.023   6.186   2.540 -0.0685 -1.2937 -0.2445
 7111SOL    HW228384   0.087   6.156   2.441  0.3446  1.0433 -0.5637
 7112SOL     OW28385   8.619   1.494   7.944  0.7112 -0.2735 -0.8894
 7112SOL    HW128386   8.525   1.500   7.925  0.5181  0.2499  0.1129
 7112SOL    HW228387   8.662   1.502   7.859 -0.1558 -0.8100 -1.3996
 7113SOL     OW28388   2.800   0.045   7.137  0.8136 -0.1536 -0.2873
 7113SOL    HW128389   2.732  -0.004   7.183  1.3978  1.1943  2.1316
 7113SOL    HW228390   2.882  -0.001   7.159  1.1461  0.7503  0.4375
 7114SOL     OW28391   1.296   2.169   3.974  0.2217  0.0019  0.2258
 7114SOL    HW128392   1.317   2.230   4.044  0.5618 -0.0163  0.1467
 7114SOL    HW228393   1.306   2.220   3.894  0.5210 -0.1557  0.1585
 7115SOL     OW28394   6.789   9.404   8.409  0.1543  0.2021 -0.3901
 7115SOL    HW128395   6.816   9.429   8.498 -1.3360  0.6144 -0.0238
 7115SOL    HW228396   6.842   9.327   8.389  1.1965  0.6688  0.4752
 7116SOL     OW28397   6.566   2.693  10.569 -0.7413 -0.3034  0.2646
 7116SOL    HW128398   6.560   2.602  10.597 -0.4422  0.0177  1.4547
 7116SOL    HW228399   6.537   2.693  10.478  2.3653 -2.0974 -0.8714
 7117SOL     OW28400   2.524  12.264   7.954 -0.3297 -0.4041  0.0142
 7117SOL    HW128401   2.595  12.271   8.018 -1.2120  0.4487  0.9378
 7117SOL    HW228402   2.459  12.328   7.984 -0.4528  0.5539 -2.1751
 7118SOL     OW28403   2.179   7.294   7.770  0.4102 -0.2941 -0.4785
 7118SOL    HW128404   2.126   7.284   7.691  1.5402  1.3781 -1.5315
 7118SOL    HW228405   2.149   7.225   7.829 -2.2733  0.0097 -1.3608
 7119SOL     OW28406   3.591  10.703   0.576  0.4690 -0.2269 -0.3760
 7119SOL    HW128407   3.606  10.699   0.482  0.9453 -0.0463 -0.3112
 7119SOL    HW228408   3.497  10.714   0.585  0.2601 -1.5335 -0.7962
 7120SOL     OW28409   4.314   4.964   3.387 -0.6167 -0.6435 -0.6341
 7120SOL    HW128410   4.254   5.001   3.323 -0.6988 -0.6531 -0.5641
 7120SOL    HW228411   4.326   4.873   3.360 -1.4405 -0.9259 -0.0680
 7121SOL     OW28412   5.106  11.778   2.027 -0.0842  0.2641 -0.1761
 7121SOL    HW128413   5.170  11.849   2.022  0.4242 -0.0877  0.8461
 7121SOL    HW228414   5.158  11.698   2.017 -0.0676 -0.1035  2.1775
 7122SOL     OW28415   9.503   9.249   6.838  0.1928  0.0507 -1.0509
 7122SOL    HW128416   9.539   9.328   6.797 -0.3461 -0.1211 -1.8824
 7122SOL    HW228417   9.566   9.227   6.906  0.2104  1.3538 -0.6195
 7123SOL     OW28418   7.775   1.729   7.408 -0.8399 -0.0779 -0.7172
 7123SOL    HW128419   7.691   1.773   7.392 -1.7061 -1.3960  0.0493
 7123SOL    HW228420   7.754   1.657   7.468  0.9916  0.0873  0.1986
 7124SOL     OW28421   3.940   6.099  11.953  0.4783 -0.3455  0.1726
 7124SOL    HW128422   3.866   6.075  12.009  0.0125  0.8302  0.0960
 7124SOL    HW228423   3.969   6.184  11.987 -0.1567  0.6544 -1.6532
 7125SOL     OW28424  10.977   8.475   6.701  0.2297  0.7199  0.3170
 7125SOL    HW128425  10.996   8.410   6.769 -0.3336 -2.1841 -2.1124
 7125SOL    HW228426  10.890   8.508   6.723 -2.0854 -3.6090 -1.2569
 7126SOL     OW28427  11.328  10.229   8.683  0.0726  0.4897 -0.5698
 7126SOL    HW128428  11.374  10.280   8.751  1.1490  0.5444 -1.3173
 7126SOL    HW228429  11.309  10.293   8.615 -1.5182  0.5581 -0.1133
 7127SOL     OW28430   2.909   6.711   6.362  0.0906 -0.3687  0.0574
 7127SOL    HW128431   2.890   6.638   6.304  1.1984  0.4295 -1.3787
 7127SOL    HW228432   2.949   6.777   6.305  0.3369  0.8329  1.5569
 7128SOL     OW28433   5.308   3.612   4.988 -0.6991 -0.0586  0.0690
 7128SOL    HW128434   5.341   3.693   5.027 -2.3799  1.2522 -1.0314
 7128SOL    HW228435   5.265   3.566   5.060 -0.4473  0.4574  0.5531
 7129SOL     OW28436   1.338   2.157   5.230 -0.1741 -0.1101  0.1605
 7129SOL    HW128437   1.316   2.120   5.315 -2.0006  0.0857 -0.1789
 7129SOL    HW228438   1.358   2.249   5.249 -0.8847  0.0135  0.3664
 7130SOL     OW28439  10.860  10.315   2.481  0.2321  0.5205 -0.0689
 7130SOL    HW128440  10.819  10.239   2.523  0.4997 -0.3176 -1.2934
 7130SOL    HW228441  10.793  10.351   2.424 -0.2188  1.8252  1.2176
 7131SOL     OW28442   4.929   6.277   0.603 -0.0663 -0.1977  0.1931
 7131SOL    HW128443   4.974   6.358   0.578 -1.7143  0.2806 -1.4730
 7131SOL    HW228444   4.959   6.259   0.692  1.3646  1.5067  0.1037
 7132SOL     OW28445   7.948   6.905  10.558 -0.0633  0.3430 -0.3634
 7132SOL    HW128446   7.955   6.811  10.541 -0.1448  0.1404  0.6861
 7132SOL    HW228447   7.974   6.945  10.475  4.1046 -0.5304  0.2666
 7133SOL     OW28448   1.778   3.438   0.593  0.0891  0.6255  0.1722
 7133SOL    HW128449   1.733   3.374   0.648  0.5441 -0.3028 -0.5273
 7133SOL    HW228450   1.707   3.486   0.550 -0.2512  0.2511  0.3121
 7134SOL     OW28451  10.811   6.279   2.236 -0.1311  0.1620 -0.1775
 7134SOL    HW128452  10.789   6.201   2.287  0.8812  1.0818  1.7476
 7134SOL    HW228453  10.906   6.282   2.236 -0.1516  1.2032 -0.5323
 7135SOL     OW28454   3.575  11.786   1.077 -0.7307  0.5902 -0.9566
 7135SOL    HW128455   3.524  11.865   1.095 -0.1569  0.5976  0.9581
 7135SOL    HW228456   3.510  11.719   1.055 -1.6724  0.5474  1.6114
 7136SOL     OW28457   6.849  10.887  11.953  0.0000 -0.5278 -0.2070
 7136SOL    HW128458   6.910  10.902  12.025  1.0139 -3.1122 -0.4137
 7136SOL    HW228459   6.893  10.922  11.876  0.3786 -0.6602 -0.0541
 7137SOL     OW28460  11.236   3.752  10.990  0.1222  0.2797  0.0857
 7137SOL    HW128461  11.158   3.730  11.042 -1.1483 -0.3002 -1.9311
 7137SOL    HW228462  11.308   3.707  11.034 -1.3694 -2.6620 -0.2480
 7138SOL     OW28463   8.657   9.717   5.420 -0.0491 -0.4845  0.1899
 7138SOL    HW128464   8.568   9.701   5.387 -0.1435 -1.3591  0.8412
 7138SOL    HW228465   8.713   9.701   5.344 -0.4065 -0.5159 -0.0711
 7139SOL     OW28466   0.292   8.505   8.819  0.0038 -0.3152  0.1304
 7139SOL    HW128467   0.379   8.534   8.793 -0.6809  1.0069 -0.8004
 7139SOL    HW228468   0.307   8.450   8.896  1.6603 -0.2624 -0.1212
 7140SOL     OW28469   9.759   9.666  12.298  0.0877  0.0165 -0.4597
 7140SOL    HW128470   9.843   9.711  12.291 -0.3065  0.6783 -1.0510
 7140SOL    HW228471   9.781   9.573  12.299  0.7297  0.1154 -2.2713
 7141SOL     OW28472   8.186   2.614   0.567  0.1492 -0.5195 -0.2277
 7141SOL    HW128473   8.190   2.709   0.580  0.1208 -0.3067 -1.6489
 7141SOL    HW228474   8.093   2.593   0.571  0.2171 -0.6374  0.9953
 7142SOL     OW28475   3.581   3.959  11.293 -0.3978 -0.1822 -0.0181
 7142SOL    HW128476   3.488   3.980  11.299 -0.5527 -0.7410 -0.3983
 7142SOL    HW228477   3.614   3.970  11.383 -0.5522  1.2444 -0.1162
 7143SOL     OW28478   1.000   4.646   7.835  0.1123  0.1218  0.2633
 7143SOL    HW128479   1.070   4.584   7.855 -0.4779 -0.2468  1.2594
 7143SOL    HW228480   1.001   4.708   7.909  0.2124  0.8677 -0.3498
 7144SOL     OW28481  11.382   2.103   3.104 -0.5478 -0.6089 -0.1426
 7144SOL    HW128482  11.370   2.013   3.074  3.6391 -1.4603  0.1305
 7144SOL    HW228483  11.415   2.150   3.028 -1.7185  0.5016 -0.0014
 7145SOL     OW28484   2.326   6.952   5.147 -0.8616  0.0701 -0.4992
 7145SOL    HW128485   2.357   6.864   5.167 -1.6816 -0.0021  0.5606
 7145SOL    HW228486   2.254   6.967   5.209 -0.4522  1.6563 -0.3566
 7146SOL     OW28487   9.293   5.677   4.432 -0.0528 -0.2808 -0.1645
 7146SOL    HW128488   9.229   5.611   4.406  0.4356 -0.9174  0.2214
 7146SOL    HW228489   9.354   5.630   4.490  0.0876  0.5926  0.4135
 7147SOL     OW28490   1.572  10.339   1.680 -0.3818 -0.1800  0.4770
 7147SOL    HW128491   1.508  10.344   1.609 -0.9572 -0.1198  0.9942
 7147SOL    HW228492   1.612  10.425   1.682 -0.4883 -0.1268  0.3367
 7148SOL     OW28493   0.644   8.115   3.404  0.6200 -0.1610  0.4543
 7148SOL    HW128494   0.689   8.181   3.457  1.0466  0.5250 -0.7230
 7148SOL    HW228495   0.570   8.088   3.458  0.5609  1.1217  1.0647
 7149SOL     OW28496   2.180   1.829  10.892  0.2033  0.7357 -0.7013
 7149SOL    HW128497   2.149   1.738  10.899 -0.1789  0.8011 -1.4882
 7149SOL    HW228498   2.180   1.860  10.983 -1.1822  0.4408 -0.5722
 7150SOL     OW28499   6.532   0.224   6.413 -0.5339  0.6436  0.4792
 7150SOL    HW128500   6.532   0.152   6.350 -1.6250  2.1255 -1.3053
 7150SOL    HW228501   6.599   0.284   6.381  1.0846  0.0263  2.5230
 7151SOL     OW28502   6.943  11.068   2.423 -0.1195  0.2782  0.1873
 7151SOL    HW128503   6.870  11.006   2.425 -2.3411  2.7201  0.6471
 7151SOL    HW228504   7.012  11.025   2.474 -0.7611 -2.5655 -1.1076
 7152SOL     OW28505   3.831   2.472   9.877 -0.4018  0.1561 -0.5119
 7152SOL    HW128506   3.743   2.477   9.843  0.0969 -0.5993 -1.9848
 7152SOL    HW228507   3.884   2.527   9.819  0.1062  0.6528  0.3829
 7153SOL     OW28508   2.702   3.610   6.477  0.0995  0.2362 -0.4463
 7153SOL    HW128509   2.628   3.585   6.533 -0.4585  0.6222 -0.9983
 7153SOL    HW228510   2.669   3.600   6.388  0.6179  0.6889 -0.6931
 7154SOL     OW28511   0.219   0.228   5.913 -0.0961  0.3666 -0.5955
 7154SOL    HW128512   0.297   0.269   5.951  0.6992 -0.1100 -1.6660
 7154SOL    HW228513   0.189   0.165   5.979  0.4648  0.5049 -0.2087
 7155SOL     OW28514   1.477   5.527   3.001  0.7306  0.3716  0.2138
 7155SOL    HW128515   1.509   5.602   2.951  0.7228  0.1455 -0.1388
 7155SOL    HW228516   1.546   5.508   3.064  1.2493 -0.0397 -0.4648
 7156SOL     OW28517   9.228   2.266  11.631 -0.8697  0.7520  0.6469
 7156SOL    HW128518   9.262   2.262  11.541 -2.2720  1.9258  0.0246
 7156SOL    HW228519   9.135   2.287  11.620 -0.9330  1.5389  2.3943
 7157SOL     OW28520   1.301   3.401   0.293 -0.2789  0.6222  0.3542
 7157SOL    HW128521   1.296   3.462   0.220  0.7857  1.6879  1.1289
 7157SOL    HW228522   1.264   3.450   0.367  2.5684  1.2453  1.5030
 7158SOL     OW28523   6.744   7.228   9.069 -0.0198  0.4480  0.4107
 7158SOL    HW128524   6.803   7.152   9.076 -1.9226 -1.1272  0.2822
 7158SOL    HW228525   6.724   7.233   8.976 -0.3677  0.7336  0.5018
 7159SOL     OW28526   4.732  11.533   1.534 -0.2195  0.2291  0.0053
 7159SOL    HW128527   4.732  11.613   1.482  0.5249 -1.2264 -2.3762
 7159SOL    HW228528   4.640  11.508   1.540 -0.5661  1.7037  1.6051
 7160SOL     OW28529  10.219  10.426   4.652 -0.4460 -0.2013 -0.1847
 7160SOL    HW128530  10.224  10.507   4.703  1.1040  0.2335 -0.9652
 7160SOL    HW228531  10.154  10.445   4.585 -1.3497 -0.2285  0.6562
 7161SOL     OW28532   6.782   0.433   6.856 -0.1904 -0.0105 -0.0751
 7161SOL    HW128533   6.735   0.350   6.862 -0.3885  0.1008 -0.0834
 7161SOL    HW228534   6.721   0.498   6.891  0.2397  0.0235  0.6322
 7162SOL     OW28535   5.091  12.020   7.404 -0.7577 -0.2504 -0.1958
 7162SOL    HW128536   5.098  12.113   7.383  2.7510 -0.1127  0.9517
 7162SOL    HW228537   5.113  11.975   7.323 -2.0442 -0.1022 -0.6404
 7163SOL     OW28538   7.224   8.196   0.650  0.2214  0.2255 -0.2321
 7163SOL    HW128539   7.253   8.286   0.668 -0.4740  0.1900  1.1978
 7163SOL    HW228540   7.235   8.186   0.556  0.0914  1.8856 -0.4526
 7164SOL     OW28541   6.724   7.420   8.351 -0.0008  0.1565  0.2171
 7164SOL    HW128542   6.793   7.455   8.407 -0.1751  0.0282  0.5192
 7164SOL    HW228543   6.768   7.358   8.294  0.0777 -0.2136  0.6690
 7165SOL     OW28544   8.330   9.388   4.946 -0.3480  0.0945 -0.0025
 7165SOL    HW128545   8.302   9.470   4.906  1.7258  0.7674 -0.1875
 7165SOL    HW228546   8.401   9.357   4.889 -0.8367 -1.6265  0.2859
 7166SOL     OW28547   8.135   4.248   5.753  0.5155 -0.4481 -0.6012
 7166SOL    HW128548   8.163   4.157   5.750  1.0293 -0.3683  0.9842
 7166SOL    HW228549   8.212   4.296   5.783  0.1710  0.4685 -1.1549
 7167SOL     OW28550  10.084   6.427   0.842 -0.6493  0.2933 -0.2870
 7167SOL    HW128551  10.085   6.339   0.803 -0.7650  0.4203 -0.5850
 7167SOL    HW228552  10.155   6.427   0.905  0.6364  0.5997 -1.6693
 7168SOL     OW28553   1.700   8.085   3.388 -0.3517 -0.7973 -0.3300
 7168SOL    HW128554   1.698   8.101   3.293  2.5521 -0.0101 -0.3629
 7168SOL    HW228555   1.748   8.160   3.423 -1.1587 -1.2112  1.7574
 7169SOL     OW28556   2.706  10.246   5.780  0.3110  0.2456 -0.2102
 7169SOL    HW128557   2.785  10.265   5.830  0.7210 -0.5335 -0.5437
 7169SOL    HW228558   2.697  10.320   5.720  1.7836 -0.4532 -1.3662
 7170SOL     OW28559  11.048   7.683   3.022 -0.2951 -0.2674 -0.7684
 7170SOL    HW128560  11.022   7.723   2.939 -3.3738 -0.4014  0.0205
 7170SOL    HW228561  11.102   7.749   3.065 -1.4872  1.1996 -1.4586
 7171SOL     OW28562   6.009   2.754   9.072 -0.0932  0.1207  0.4443
 7171SOL    HW128563   5.957   2.691   9.121 -0.1025  0.4870  0.9140
 7171SOL    HW228564   6.062   2.798   9.138 -0.3306  0.8322  0.1771
 7172SOL     OW28565   1.468   9.288   4.358 -0.1787 -0.3179 -0.3876
 7172SOL    HW128566   1.545   9.236   4.336  0.6215  1.2776 -1.6457
 7172SOL    HW228567   1.410   9.279   4.281 -2.0767 -2.7888  1.1809
 7173SOL     OW28568   3.164   8.416   6.629 -0.2140 -0.1761 -0.3010
 7173SOL    HW128569   3.143   8.395   6.538 -1.9497 -2.0080  0.4653
 7173SOL    HW228570   3.153   8.334   6.677 -0.1726  0.9184  1.7203
 7174SOL     OW28571   1.732   8.812   5.682  0.1697  0.1221  0.7240
 7174SOL    HW128572   1.715   8.864   5.761  0.9096 -0.9837  1.6450
 7174SOL    HW228573   1.775   8.873   5.622 -0.8949  1.1303  0.9451
 7175SOL     OW28574  11.260   0.222   5.047 -0.2966  0.0484  0.5289
 7175SOL    HW128575  11.325   0.175   5.100 -0.2615 -0.6490 -0.1065
 7175SOL    HW228576  11.309   0.252   4.971 -0.3999  0.8267  0.7651
 7176SOL     OW28577   2.880   1.077   4.467 -0.1322  0.3532  0.5976
 7176SOL    HW128578   2.790   1.047   4.480 -0.3488  1.5876  2.4450
 7176SOL    HW228579   2.926   1.050   4.546  1.0992 -0.1244 -0.2621
 7177SOL     OW28580  11.780   4.919   9.145 -0.2891  0.0838 -0.3295
 7177SOL    HW128581  11.819   4.954   9.065  0.4068  0.8071  0.3063
 7177SOL    HW228582  11.699   4.970   9.157 -1.5328 -1.4545 -1.6771
 7178SOL     OW28583  11.259   8.084   2.218 -0.6584 -0.3026  0.2279
 7178SOL    HW128584  11.309   8.006   2.192 -0.4381 -0.8395  2.0600
 7178SOL    HW228585  11.326   8.148   2.241 -0.8306  0.8259 -2.1873
 7179SOL     OW28586   3.894   8.539   0.736  0.3771  0.1985 -0.3744
 7179SOL    HW128587   3.897   8.567   0.645 -0.1591  0.6210 -0.2733
 7179SOL    HW228588   3.845   8.609   0.780 -0.2061 -0.4735  0.0567
 7180SOL     OW28589  12.500  11.301   6.149  0.0368  0.0708  0.0492
 7180SOL    HW128590  12.418  11.348   6.164  1.3914  2.9569 -0.8060
 7180SOL    HW228591  12.489  11.260   6.063 -0.7886 -0.2510  0.3050
 7181SOL     OW28592   3.563  11.568   6.732  1.0149 -0.2685  0.5906
 7181SOL    HW128593   3.622  11.496   6.710  0.9235  0.1668 -1.2365
 7181SOL    HW228594   3.588  11.639   6.672 -0.9926  0.1132  0.1373
 7182SOL     OW28595   1.542   8.271   2.257  0.2195 -0.5121 -0.6828
 7182SOL    HW128596   1.577   8.355   2.285 -1.1371 -0.7428  1.9866
 7182SOL    HW228597   1.463   8.293   2.207 -1.2695 -0.1284  1.6887
 7183SOL     OW28598   0.220   4.342   3.307 -0.2687  0.4386 -0.1443
 7183SOL    HW128599   0.308   4.304   3.308 -1.3388 -2.4321 -1.7179
 7183SOL    HW228600   0.170   4.285   3.248 -3.4786  1.2983  1.4922
 7184SOL     OW28601   3.566  12.127   1.850  0.3927 -0.0570  0.4571
 7184SOL    HW128602   3.578  12.204   1.794 -1.5016 -0.3288 -0.4057
 7184SOL    HW228603   3.560  12.162   1.939  0.2624  0.7384  0.1431
 7185SOL     OW28604   7.189   7.766  12.463  0.6822  0.4765  0.2371
 7185SOL    HW128605   7.279   7.765  12.429  0.6790 -0.3173  0.2269
 7185SOL    HW228606   7.138   7.723  12.394  0.4914 -0.1176  0.7355
 7186SOL     OW28607   7.684   5.641   4.581 -0.4344  0.2340  0.0783
 7186SOL    HW128608   7.761   5.597   4.545 -1.0046 -0.5007 -0.2775
 7186SOL    HW228609   7.674   5.604   4.668 -0.3743  0.3482  0.1340
 7187SOL     OW28610   5.369   8.832   6.329  0.2685 -0.1421 -0.0100
 7187SOL    HW128611   5.341   8.831   6.237  0.0352 -1.3279  0.0570
 7187SOL    HW228612   5.464   8.824   6.326  0.2938  0.1955 -0.1524
 7188SOL     OW28613   0.359   8.643   0.087 -0.6831  0.3189  0.2000
 7188SOL    HW128614   0.383   8.618  -0.002  0.2411 -5.4384  1.6482
 7188SOL    HW228615   0.443   8.658   0.131 -0.9811  0.5899  0.6816
 7189SOL     OW28616   1.532   0.294  11.489  0.6391 -0.2722 -0.4039
 7189SOL    HW128617   1.517   0.249  11.572 -0.6605 -2.4973 -1.7439
 7189SOL    HW228618   1.446   0.298  11.448  1.0225  1.9908 -1.1342
 7190SOL     OW28619   3.160   1.233   6.021  0.3491 -0.3547  0.1564
 7190SOL    HW128620   3.106   1.175   5.967 -0.2219 -0.5712  0.9442
 7190SOL    HW228621   3.108   1.313   6.030  1.0816  0.2568 -0.8227
 7191SOL     OW28622  10.167   2.945   6.805 -0.3484  0.5988  0.0635
 7191SOL    HW128623  10.248   2.981   6.769 -0.5572  0.9349 -0.0724
 7191SOL    HW228624  10.126   3.018   6.851 -0.7491  0.5194 -0.1670
 7192SOL     OW28625   1.048   5.940   4.980  0.5970 -0.0516 -0.5410
 7192SOL    HW128626   1.097   5.975   4.906  0.2686 -1.4257 -1.4467
 7192SOL    HW228627   1.031   5.848   4.957 -2.7434  0.4308 -0.4906
 7193SOL     OW28628   2.058   9.651   2.032 -0.0317 -0.4011 -0.2394
 7193SOL    HW128629   2.034   9.739   2.002  2.1411 -0.2420 -1.8479
 7193SOL    HW228630   2.011   9.592   1.973 -0.4491 -0.2740 -0.0350
 7194SOL     OW28631   8.408   9.381   9.261 -0.3365 -0.3624  0.2298
 7194SOL    HW128632   8.420   9.305   9.318 -0.3049 -0.4586  0.0944
 7194SOL    HW228633   8.358   9.443   9.314  0.7046  0.0267  0.7840
 7195SOL     OW28634   5.125   5.009  10.282  0.3292  0.1210 -0.0669
 7195SOL    HW128635   5.158   5.075  10.343  1.1270 -1.1808  0.9578
 7195SOL    HW228636   5.044   5.047  10.248  0.2872  1.2323  1.1685
 7196SOL     OW28637  11.129   3.945  11.397  0.4597 -0.2287  0.5021
 7196SOL    HW128638  11.088   3.921  11.480 -0.6505  0.0318  0.0432
 7196SOL    HW228639  11.068   3.914  11.330  1.3176 -0.3911 -0.2147
 7197SOL     OW28640   5.086   8.004   1.971 -0.5111 -0.1715 -0.2241
 7197SOL    HW128641   5.150   8.056   1.923 -1.4989  0.7579 -0.5791
 7197SOL    HW228642   5.030   8.068   2.015 -0.9165 -0.9705  0.4604
 7198SOL     OW28643   6.977  11.058  11.122  0.2015 -0.4820  0.1988
 7198SOL    HW128644   7.016  11.035  11.037  0.1885 -0.8719  0.2943
 7198SOL    HW228645   6.909  10.991  11.135  0.3576 -0.5585  0.6251
 7199SOL     OW28646   8.311   6.311   0.095  0.5651  0.2331 -0.2905
 7199SOL    HW128647   8.236   6.291   0.040  0.1707  0.4043  0.1838
 7199SOL    HW228648   8.360   6.228   0.099  0.9677  0.3878 -1.4356
 7200SOL     OW28649   8.372   1.460   1.046 -0.0283  0.0049  0.1371
 7200SOL    HW128650   8.375   1.399   0.972  1.7460 -0.6836  0.7241
 7200SOL    HW228651   8.414   1.412   1.118 -1.4801  0.7495  1.5421
 7201SOL     OW28652   1.827   3.833   5.470 -0.1910  0.2832  0.2392
 7201SOL    HW128653   1.910   3.878   5.487 -1.2619  1.9998  1.3570
 7201SOL    HW228654   1.807   3.853   5.379 -0.0257  1.0842  0.3652
 7202SOL     OW28655   7.628   0.540   9.307  0.1873  0.7256  0.1827
 7202SOL    HW128656   7.598   0.477   9.372 -0.0454  1.9769  1.3363
 7202SOL    HW228657   7.580   0.517   9.227  0.8126 -1.1203  0.2817
 7203SOL     OW28658  12.058   8.676   8.449 -0.3346  0.4562  0.4934
 7203SOL    HW128659  12.108   8.595   8.462 -2.3708 -0.8561  0.5923
 7203SOL    HW228660  11.992   8.675   8.518 -4.0123 -0.7594 -2.6670
 7204SOL     OW28661   1.119   5.863   3.792 -0.2917 -0.2436 -0.5209
 7204SOL    HW128662   1.052   5.795   3.797  0.8880 -1.4549 -0.7700
 7204SOL    HW228663   1.081   5.929   3.734 -0.4688 -1.8657 -2.3609
 7205SOL     OW28664  10.773   0.747   6.312  0.1912  0.0072  0.8868
 7205SOL    HW128665  10.814   0.827   6.280  1.3829 -0.6254  0.7884
 7205SOL    HW228666  10.716   0.719   6.239  0.2323  0.4305  0.6907
 7206SOL     OW28667  11.457   5.570   2.680  0.1878 -0.2168  0.7521
 7206SOL    HW128668  11.418   5.523   2.606  1.7575  0.0684 -0.2897
 7206SOL    HW228669  11.481   5.501   2.742 -1.3587 -0.4409  1.1524
 7207SOL     OW28670   3.176   9.336   7.834 -0.2238  0.4255  0.2870
 7207SOL    HW128671   3.110   9.403   7.851 -1.4160 -0.9415  1.2699
 7207SOL    HW228672   3.256   9.385   7.816 -1.8442  2.2517 -2.8679
 7208SOL     OW28673   1.890  11.160   4.969 -0.2841 -0.5497  0.2133
 7208SOL    HW128674   1.959  11.221   4.943 -0.4080 -0.2903  0.4922
 7208SOL    HW228675   1.929  11.109   5.041 -0.7224  0.2849  1.0618
 7209SOL     OW28676   2.814   0.076   7.510  0.4329  0.3525  0.3456
 7209SOL    HW128677   2.894   0.071   7.563  0.8825  1.6463 -0.1754
 7209SOL    HW228678   2.759   0.005   7.543  2.9685 -2.6557 -1.2252
 7210SOL     OW28679   9.567   0.568   0.699  0.3956 -0.3345  0.0381
 7210SOL    HW128680   9.534   0.571   0.610  0.7802 -1.2473 -0.1545
 7210SOL    HW228681   9.638   0.632   0.701 -0.3725  0.5391  0.0350
 7211SOL     OW28682  10.736  10.754   7.546 -0.2317  0.1480 -0.6314
 7211SOL    HW128683  10.821  10.725   7.577  0.3072  2.0319 -0.2162
 7211SOL    HW228684  10.674  10.715   7.607  0.5070  0.4192  0.3171
 7212SOL     OW28685   4.633   9.652   2.712 -0.2877 -0.3155 -0.3683
 7212SOL    HW128686   4.710   9.671   2.764 -1.7710  0.4362  1.6801
 7212SOL    HW228687   4.635   9.717   2.641  1.3467 -0.8507 -0.8512
 7213SOL     OW28688   2.951   1.525   4.220  0.3060  0.5319 -0.4118
 7213SOL    HW128689   2.980   1.550   4.132  0.5354 -2.9115 -1.4758
 7213SOL    HW228690   3.033   1.510   4.268  0.2159  0.0969 -0.3895
 7214SOL     OW28691   8.689  10.288   3.263  0.5496  0.2911  0.1621
 7214SOL    HW128692   8.635  10.359   3.227  0.2009 -0.1358 -0.1671
 7214SOL    HW228693   8.767  10.332   3.296  0.4424  0.8080 -0.2537
 7215SOL     OW28694  11.007   7.038  11.340  0.5466  0.4712  0.1568
 7215SOL    HW128695  11.079   6.994  11.384  0.3133  0.4996  0.5707
 7215SOL    HW228696  11.033   7.130  11.337  1.0815  0.3023 -0.8033
 7216SOL     OW28697   7.122   6.470  11.556 -0.2583 -0.4597 -0.6098
 7216SOL    HW128698   7.027   6.481  11.553 -0.0648  1.5293 -0.4988
 7216SOL    HW228699   7.141   6.445  11.646 -0.5525  0.5968 -0.2469
 7217SOL     OW28700   4.924   0.683   1.261 -0.3566  0.1428  0.0292
 7217SOL    HW128701   5.007   0.730   1.255  0.3473 -0.6086  2.6053
 7217SOL    HW228702   4.867   0.742   1.311 -1.0443  0.1902 -0.7851
 7218SOL     OW28703   6.972   0.011   9.692  0.2408  0.1226  0.4825
 7218SOL    HW128704   7.032   0.063   9.640  0.9754  1.5190  2.5960
 7218SOL    HW228705   7.020  -0.070   9.710  0.1635 -0.1674 -0.5415
 7219SOL     OW28706   9.378   0.284  11.676 -0.1541 -0.2678 -0.6274
 7219SOL    HW128707   9.394   0.206  11.729  0.4425  0.4364  0.2660
 7219SOL    HW228708   9.357   0.251  11.589  0.8983 -1.4001 -0.4702
 7220SOL     OW28709  10.256  10.961   4.413 -0.5487 -0.1819  0.2206
 7220SOL    HW128710  10.197  11.014   4.359 -1.3138 -1.3741 -0.1450
 7220SOL    HW228711  10.336  11.014   4.421 -1.6638  1.4852  0.7735
 7221SOL     OW28712  11.042   1.506   9.953  0.3673  0.0475 -0.1237
 7221SOL    HW128713  10.978   1.577   9.954  0.5514  0.2465 -1.0205
 7221SOL    HW228714  11.048   1.482   9.860  1.4701 -0.0717 -0.0320
 7222SOL     OW28715   4.977   9.151   9.252 -0.8756 -0.1812 -0.3360
 7222SOL    HW128716   5.059   9.143   9.203 -0.3188 -2.5813  0.8651
 7222SOL    HW228717   4.987   9.233   9.302  1.6940 -1.3516  1.2786
 7223SOL     OW28718  10.510   3.521   6.333 -0.3075  0.2951 -0.2833
 7223SOL    HW128719  10.573   3.590   6.312 -0.0368 -0.1653 -1.0588
 7223SOL    HW228720  10.437   3.537   6.274  0.0371 -0.4455 -0.9363
 7224SOL     OW28721  10.443   3.833   8.080 -0.1991 -0.6687  0.2901
 7224SOL    HW128722  10.375   3.791   8.133  0.6678 -0.4875  1.6187
 7224SOL    HW228723  10.514   3.769   8.080  0.9206  0.4815  1.8531
 7225SOL     OW28724   4.465  12.223   3.479 -0.0310  0.0196 -0.5709
 7225SOL    HW128725   4.493  12.312   3.457  0.3343 -0.2779 -1.3528
 7225SOL    HW228726   4.486  12.215   3.572 -0.7011  0.9752 -0.3195
 7226SOL     OW28727   7.751   8.680   5.592 -0.1770 -0.1626  0.3180
 7226SOL    HW128728   7.811   8.640   5.528  1.6717  0.0333  1.8548
 7226SOL    HW228729   7.666   8.640   5.573  0.1597  0.2910 -2.5902
 7227SOL     OW28730   6.976   3.706   1.543  0.0904  0.9017 -0.5656
 7227SOL    HW128731   6.913   3.743   1.605  1.6190  0.4148  1.3557
 7227SOL    HW228732   6.982   3.772   1.473 -1.9224  1.3089 -0.4170
 7228SOL     OW28733   3.395  10.404   1.464 -0.2944 -0.0833  0.2610
 7228SOL    HW128734   3.341  10.431   1.390 -0.7625 -1.0906  0.2255
 7228SOL    HW228735   3.434  10.321   1.437 -0.1368 -0.2515  0.9803
 7229SOL     OW28736   3.733   6.400  12.530 -0.3158 -0.5816  0.2511
 7229SOL    HW128737   3.754   6.317  12.488  0.3837 -0.0301 -0.5279
 7229SOL    HW228738   3.819   6.441  12.547 -0.6287 -0.2512  1.1129
 7230SOL     OW28739   0.510   6.136   6.799  0.1802  0.1297 -0.2935
 7230SOL    HW128740   0.439   6.108   6.856  0.0431  1.0109 -0.0077
 7230SOL    HW228741   0.527   6.061   6.743 -1.3610  0.0816 -0.7482
 7231SOL     OW28742   2.342   5.437   3.387 -0.2172 -0.3805  0.0653
 7231SOL    HW128743   2.269   5.378   3.370 -0.8285  0.6853 -1.2362
 7231SOL    HW228744   2.419   5.388   3.359 -0.6155 -0.8926 -0.1599
 7232SOL     OW28745   9.757   1.428   0.837 -0.2076  0.3964  0.0772
 7232SOL    HW128746   9.776   1.435   0.743 -0.8124  0.3788 -0.0482
 7232SOL    HW228747   9.680   1.371   0.841 -0.2429  0.4839  0.5800
 7233SOL     OW28748   7.241   7.482   5.856 -0.4650 -0.1449  0.0635
 7233SOL    HW128749   7.318   7.533   5.834 -1.2268  1.4169  0.8800
 7233SOL    HW228750   7.178   7.501   5.786 -1.5811  1.9660  1.5290
 7234SOL     OW28751   7.129  11.224   6.473  0.2335  0.3120 -0.1587
 7234SOL    HW128752   7.179  11.142   6.471 -0.2397  0.0337 -0.8637
 7234SOL    HW228753   7.111  11.238   6.566 -0.4382 -0.8545 -0.0879
 7235SOL     OW28754   4.254   2.449   4.815  0.0246  0.4749 -0.8208
 7235SOL    HW128755   4.174   2.491   4.784 -0.9976 -0.9231 -0.1669
 7235SOL    HW228756   4.265   2.373   4.758  0.2915  0.0754 -0.2485
 7236SOL     OW28757   6.965   9.159  11.492 -0.0780  0.3252  0.3167
 7236SOL    HW128758   6.882   9.152  11.444  0.6865 -1.2312 -0.9125
 7236SOL    HW228759   6.997   9.068  11.496  1.5447  0.8874  0.7828
 7237SOL     OW28760   0.660   9.690   0.613  0.1429 -0.0853 -0.0131
 7237SOL    HW128761   0.731   9.710   0.553  1.3128  0.7431  1.5746
 7237SOL    HW228762   0.609   9.622   0.568  1.5202 -0.2026 -1.4881
 7238SOL     OW28763  11.302   9.586   1.719  0.3060  0.4061  0.2815
 7238SOL    HW128764  11.286   9.645   1.646 -3.1694 -1.6055 -0.7949
 7238SOL    HW228765  11.258   9.628   1.793  1.6918  1.2314  0.6760
 7239SOL     OW28766   6.006   2.078   2.557  0.2819 -0.7739  0.5104
 7239SOL    HW128767   6.007   2.062   2.652  0.1461 -1.1508  0.4524
 7239SOL    HW228768   5.933   2.138   2.544  2.6095  2.4616  1.1014
 7240SOL     OW28769   9.977  10.471  12.098  0.3507  0.0645 -0.0849
 7240SOL    HW128770   9.966  10.560  12.132  0.2416 -0.0037  0.0611
 7240SOL    HW228771  10.018  10.483  12.013  0.8723  0.2229  0.1870
 7241SOL     OW28772   4.229   3.010   0.537  0.1628  0.3194 -0.5603
 7241SOL    HW128773   4.226   3.081   0.601 -1.1686  0.1184 -0.3806
 7241SOL    HW228774   4.161   2.949   0.565  0.8943 -0.7564 -1.0394
 7242SOL     OW28775  12.205   7.911  12.126  0.2347 -0.0686 -0.3782
 7242SOL    HW128776  12.167   7.824  12.109  0.1613 -0.0260 -0.4312
 7242SOL    HW228777  12.184   7.962  12.048 -0.9207  0.4098  0.2093
 7243SOL     OW28778   5.334   9.020   7.617 -0.3814  0.1292 -0.4673
 7243SOL    HW128779   5.296   8.963   7.684 -1.4769  2.5415  1.0481
 7243SOL    HW228780   5.424   9.034   7.647 -0.3468 -0.1685 -0.4267
 7244SOL     OW28781  11.665   3.389   2.500 -0.0167 -0.3805 -0.3760
 7244SOL    HW128782  11.669   3.294   2.510  1.4749 -0.4406 -1.2922
 7244SOL    HW228783  11.695   3.423   2.585  1.5445 -0.7693 -0.7484
 7245SOL     OW28784  11.225  11.975   7.346  0.2637 -0.0002 -0.1499
 7245SOL    HW128785  11.219  11.892   7.392  1.0814  0.4595  0.8313
 7245SOL    HW228786  11.241  11.951   7.254 -0.3333 -0.9139 -0.0242
 7246SOL     OW28787   2.871  10.745   6.206 -0.4719 -0.7694  0.4924
 7246SOL    HW128788   2.831  10.680   6.148  0.4226 -0.0005 -1.0544
 7246SOL    HW228789   2.801  10.809   6.222 -0.5793 -0.7136 -0.1768
 7247SOL     OW28790   1.678  11.423   2.833  0.1944 -0.1238 -0.4909
 7247SOL    HW128791   1.613  11.366   2.875  1.5757 -0.6148  1.1074
 7247SOL    HW228792   1.757  11.413   2.887  0.5449  3.2432 -0.1998
 7248SOL     OW28793   6.114  12.006   2.572  0.3702 -0.2162  0.5654
 7248SOL    HW128794   6.036  11.968   2.612 -1.3345  3.1256  0.8043
 7248SOL    HW228795   6.151  12.063   2.640  0.7933  1.1422 -0.7373
 7249SOL     OW28796  12.180   6.923  11.268  0.0909  0.3321 -0.5559
 7249SOL    HW128797  12.147   7.003  11.228  0.8753  0.8699 -0.1428
 7249SOL    HW228798  12.103   6.886  11.313 -0.2134  0.9978 -0.5120
 7250SOL     OW28799   9.733   4.952  12.256  0.1890  0.7180 -0.0028
 7250SOL    HW128800   9.785   4.949  12.175  0.9791 -0.1038  0.5273
 7250SOL    HW228801   9.649   4.913  12.232  1.4829 -2.5836  0.3076
 7251SOL     OW28802   4.221  10.020   6.546  0.1631  0.5820  0.5282
 7251SOL    HW128803   4.255  10.031   6.457 -1.6148  1.4351 -0.0989
 7251SOL    HW228804   4.129   9.995   6.533 -0.0881  0.6048  2.1274
 7252SOL     OW28805   1.399   8.081   6.047  0.4506 -1.3637 -0.3270
 7252SOL    HW128806   1.382   8.092   5.954 -0.4928  1.4724  0.0898
 7252SOL    HW228807   1.333   8.018   6.077 -1.6333  0.4192 -0.9696
 7253SOL     OW28808   0.820   8.183   2.713  0.3220 -0.6607 -0.0444
 7253SOL    HW128809   0.888   8.184   2.780  0.1881 -1.2807  0.1088
 7253SOL    HW228810   0.741   8.213   2.759  0.0347 -1.9070  0.3077
 7254SOL     OW28811  11.601   7.183   6.744  0.0401 -0.3941 -0.1901
 7254SOL    HW128812  11.646   7.154   6.824  1.4863 -0.8776 -1.1383
 7254SOL    HW228813  11.511   7.153   6.756  0.2042 -0.3957  1.2867
 7255SOL     OW28814   7.632   5.592   6.138 -0.1041 -0.6629  0.1162
 7255SOL    HW128815   7.575   5.515   6.135  2.8898 -3.1161 -0.0704
 7255SOL    HW228816   7.682   5.582   6.219 -2.2344  3.3603  2.2010
 7256SOL     OW28817   6.917   2.292   9.776 -0.1806  0.2119 -0.0421
 7256SOL    HW128818   6.949   2.220   9.723 -0.3536 -0.5786  0.8965
 7256SOL    HW228819   6.824   2.273   9.791  0.2820 -0.6319  2.1263
 7257SOL     OW28820   4.572   2.155   9.029  0.2753  0.5527 -0.4054
 7257SOL    HW128821   4.594   2.095   8.958  0.8081  0.7133 -0.3749
 7257SOL    HW228822   4.651   2.206   9.044 -0.0911  1.0869 -0.2477
 7258SOL     OW28823   6.903   1.334  10.393  0.0772 -0.0210  0.1302
 7258SOL    HW128824   6.888   1.308  10.303  0.1648 -1.0733  0.4037
 7258SOL    HW228825   6.956   1.263  10.430 -0.7308 -0.0649  1.2587
 7259SOL     OW28826   6.402   3.041   2.237  0.2250 -0.0818  0.3169
 7259SOL    HW128827   6.406   3.002   2.149  0.5753 -1.4481  0.9084
 7259SOL    HW228828   6.309   3.039   2.260  0.2924 -1.1104  0.5514
 7260SOL     OW28829  12.190   5.012  10.625 -0.4586  0.2240  0.1547
 7260SOL    HW128830  12.228   5.008  10.537  2.7245  1.8095  1.2803
 7260SOL    HW228831  12.207   4.926  10.662 -0.8932 -0.1200 -0.4357
 7261SOL     OW28832   5.487   4.901   8.634  0.1441  0.0619 -0.1203
 7261SOL    HW128833   5.547   4.894   8.560  0.7081 -0.6641  0.3788
 7261SOL    HW228834   5.542   4.932   8.706 -0.0680 -0.5923  0.3406
 7262SOL     OW28835   2.100   2.686   1.249 -0.0271  0.2330  0.3265
 7262SOL    HW128836   2.166   2.627   1.212 -0.4886 -0.3657  0.4484
 7262SOL    HW228837   2.016   2.646   1.226 -0.3369 -0.4651  2.4808
 7263SOL     OW28838   0.613  10.370  10.565  0.2022 -0.4382  0.0029
 7263SOL    HW128839   0.536  10.315  10.550  0.2834 -1.1141  1.7854
 7263SOL    HW228840   0.678  10.338  10.503 -1.3839  1.2425 -2.7379
 7264SOL     OW28841   1.412   0.938   5.489  0.5465  0.0903 -0.2882
 7264SOL    HW128842   1.370   0.987   5.560 -1.2988 -0.2891 -1.0544
 7264SOL    HW228843   1.504   0.965   5.492  0.3357  0.7717  1.6397
 7265SOL     OW28844   1.659   7.950  11.624  0.1518 -0.0223 -0.1228
 7265SOL    HW128845   1.725   7.948  11.555  0.2491 -3.1713 -0.0719
 7265SOL    HW228846   1.576   7.941  11.577  0.2149 -2.1109  0.1056
 7266SOL     OW28847   9.061   9.223   2.675 -0.0991  0.0464  0.0273
 7266SOL    HW128848   9.110   9.155   2.629  0.2512  0.8929 -0.9041
 7266SOL    HW228849   8.972   9.189   2.681  0.0402 -0.4302 -0.5646
 7267SOL     OW28850   2.972   8.246   8.174 -0.0188 -0.4444 -0.2874
 7267SOL    HW128851   2.983   8.289   8.259  0.7612 -1.7064  0.2652
 7267SOL    HW228852   2.878   8.227   8.169  0.2107 -2.3541  1.3199
 7268SOL     OW28853   7.787   9.450   7.920  0.3126 -0.3977  0.2421
 7268SOL    HW128854   7.811   9.433   8.011 -0.0765 -0.7610  0.2824
 7268SOL    HW228855   7.691   9.449   7.920  0.1740  2.9924  0.4630
 7269SOL     OW28856   5.226   4.907   1.725  0.5290 -0.0893  0.0302
 7269SOL    HW128857   5.228   4.871   1.636 -0.4017  0.2060 -0.1200
 7269SOL    HW228858   5.217   4.830   1.781  4.1202 -0.6115  0.1430
 7270SOL     OW28859   6.796   0.982   9.370 -0.4099 -0.1668  0.3773
 7270SOL    HW128860   6.828   0.893   9.379 -1.0784 -0.2691  2.2558
 7270SOL    HW228861   6.701   0.973   9.361 -0.4679  0.3463  0.4180
 7271SOL     OW28862   3.127   0.834   3.522 -0.0827  0.0978 -0.6111
 7271SOL    HW128863   3.070   0.799   3.591 -0.3647  2.4427  0.4313
 7271SOL    HW228864   3.211   0.848   3.565  0.2358  0.0277 -1.1960
 7272SOL     OW28865   4.528   1.990   4.724  0.3646 -0.1236 -0.2459
 7272SOL    HW128866   4.560   1.900   4.721 -1.8936 -1.0092 -3.3765
 7272SOL    HW228867   4.445   1.984   4.771  0.4731  0.4592  0.0330
 7273SOL     OW28868   2.461   9.489  10.410 -0.8076 -1.1101  0.5744
 7273SOL    HW128869   2.421   9.405  10.433  1.6834 -2.0569  1.8716
 7273SOL    HW228870   2.538   9.495  10.467 -1.5596  2.7038  1.5017
 7274SOL     OW28871   3.984   4.596   5.383 -0.5603 -0.2515 -0.0911
 7274SOL    HW128872   3.911   4.595   5.445 -0.2328  4.7617  0.7577
 7274SOL    HW228873   4.061   4.579   5.437 -0.4968  1.7813  0.5155
 7275SOL     OW28874   9.289  10.070   5.023  0.4471 -0.3426 -0.1333
 7275SOL    HW128875   9.343   9.994   5.001  0.1120 -0.1691 -1.6601
 7275SOL    HW228876   9.308  10.086   5.116  2.4912 -0.6980 -0.4340
 7276SOL     OW28877   4.267  12.311   1.038  0.2262 -0.2060  0.5386
 7276SOL    HW128878   4.177  12.312   1.006  1.1963 -2.7110 -2.8724
 7276SOL    HW228879   4.300  12.399   1.019 -0.0120 -0.8010 -3.6833
 7277SOL     OW28880   5.276   0.975   5.893 -0.1062 -0.0803 -0.1709
 7277SOL    HW128881   5.348   0.953   5.834  0.5760  0.9463  0.2515
 7277SOL    HW228882   5.208   0.911   5.871  0.8091 -0.8944 -0.7787
 7278SOL     OW28883   6.374   8.889   5.074 -0.1217 -0.0386 -0.1568
 7278SOL    HW128884   6.350   8.936   5.154  1.4364  1.1180 -0.3143
 7278SOL    HW228885   6.291   8.874   5.029 -0.7729  1.8272  0.3144
 7279SOL     OW28886  11.580  11.322   4.741  0.6549  0.2356  0.1883
 7279SOL    HW128887  11.504  11.333   4.685  1.8913  1.7402 -1.2979
 7279SOL    HW228888  11.581  11.401   4.796  0.8294 -0.0567  0.6143
 7280SOL     OW28889   4.414   0.614   2.388 -0.0436  0.0921  0.0943
 7280SOL    HW128890   4.373   0.614   2.475 -0.5349  1.1038 -0.1263
 7280SOL    HW228891   4.488   0.674   2.397  1.6526 -1.9280  0.5698
 7281SOL     OW28892   9.882   8.899   1.751 -0.1237 -0.4028 -0.1786
 7281SOL    HW128893   9.901   8.852   1.669  0.2764  0.9347 -0.8866
 7281SOL    HW228894   9.811   8.849   1.792 -0.6208 -0.8670 -1.5473
 7282SOL     OW28895  11.658  11.839   2.085 -0.0514  0.4915 -0.3170
 7282SOL    HW128896  11.570  11.819   2.055 -0.5665  0.9185  0.8637
 7282SOL    HW228897  11.683  11.763   2.137  0.2830  0.3739 -0.6448
 7283SOL     OW28898   1.202   0.570  12.311 -0.2538 -0.0786  0.8909
 7283SOL    HW128899   1.169   0.599  12.226  0.2736 -1.1551  0.2968
 7283SOL    HW228900   1.253   0.644  12.344 -1.3365  0.7409  0.7706
 7284SOL     OW28901  10.191  11.927   1.038  0.4753 -0.2622  0.2443
 7284SOL    HW128902  10.197  11.910   0.943 -2.2260  1.1882 -0.2817
 7284SOL    HW228903  10.219  11.845   1.078  1.2374 -1.0897 -1.8230
 7285SOL     OW28904   8.055  11.649   8.332  0.3739  0.1662 -0.1002
 7285SOL    HW128905   8.024  11.569   8.375  0.3027 -1.1951 -2.4753
 7285SOL    HW228906   8.099  11.698   8.401 -0.3051 -1.5238  1.6364
 7286SOL     OW28907   0.146   5.220  10.787 -0.4284  1.1536 -0.3371
 7286SOL    HW128908   0.063   5.269  10.784 -1.7074 -0.8522  0.1508
 7286SOL    HW228909   0.185   5.246  10.870 -1.5857  0.6602  0.3995
 7287SOL     OW28910   5.724   7.255   8.582 -0.0068 -0.6497  0.3783
 7287SOL    HW128911   5.635   7.257   8.616  0.8083 -0.7587  2.6951
 7287SOL    HW228912   5.750   7.347   8.575 -0.0685 -0.6362  0.3321
 7288SOL     OW28913   9.034   0.358   7.498  0.0240  0.4408 -0.1573
 7288SOL    HW128914   9.019   0.382   7.406 -2.8694  3.5650  0.8783
 7288SOL    HW228915   8.961   0.300   7.520  0.0109  0.6694  0.4253
 7289SOL     OW28916  10.042   2.333  10.549  0.0256  0.6594 -0.3415
 7289SOL    HW128917  10.070   2.256  10.599  1.2568 -0.2479 -2.2585
 7289SOL    HW228918  10.024   2.298  10.461  0.4765  2.5276 -1.2223
 7290SOL     OW28919  10.804   0.883   5.064  0.1808 -0.2377 -0.4249
 7290SOL    HW128920  10.882   0.934   5.041 -0.6402  1.2668 -0.0387
 7290SOL    HW228921  10.734   0.948   5.068 -1.0390 -1.5143 -0.4762
 7291SOL     OW28922   8.431   9.200   5.162 -0.3200 -0.1257 -0.1519
 7291SOL    HW128923   8.465   9.252   5.235  1.6207 -0.1399 -0.9930
 7291SOL    HW228924   8.380   9.262   5.110 -0.5142  0.2181  0.4351
 7292SOL     OW28925  12.066   8.428   4.519 -0.4949  0.0676 -0.3708
 7292SOL    HW128926  12.135   8.492   4.509  1.1621 -1.6832 -0.7664
 7292SOL    HW228927  11.987   8.472   4.488  0.7845  1.4936 -1.7425
 7293SOL     OW28928   1.783   4.133   3.730  0.3889  0.1451  0.1349
 7293SOL    HW128929   1.776   4.178   3.814  0.8654 -2.0133  1.3992
 7293SOL    HW228930   1.701   4.085   3.721  1.2228 -1.4165  0.5013
 7294SOL     OW28931   6.971   5.389   2.118  0.1283  0.1786  0.5868
 7294SOL    HW128932   7.026   5.323   2.075 -0.8654 -0.8717  0.8718
 7294SOL    HW228933   7.007   5.394   2.207  1.0298  1.0156  0.2010
 7295SOL     OW28934   3.612  11.543  12.482 -0.1799  0.1102 -0.4162
 7295SOL    HW128935   3.615  11.510  12.392  1.6990 -0.4388 -0.1995
 7295SOL    HW228936   3.663  11.623  12.481  2.1545 -1.2643  0.6208
 7296SOL     OW28937   9.238  12.335   7.938  0.0035 -0.3835 -0.0627
 7296SOL    HW128938   9.251  12.422   7.974 -0.6003 -0.3132 -0.0034
 7296SOL    HW228939   9.309  12.283   7.975  0.6985  0.2091 -0.5421
 7297SOL     OW28940   5.761   7.719   8.687 -0.2301 -0.7654 -0.3292
 7297SOL    HW128941   5.813   7.795   8.662 -0.4319 -1.1944 -2.2311
 7297SOL    HW228942   5.765   7.717   8.782  0.7307  0.9456 -0.2972
 7298SOL     OW28943   8.623   6.659   9.741 -0.9631 -0.1033 -0.0411
 7298SOL    HW128944   8.529   6.664   9.757 -0.6189  0.3177  2.0783
 7298SOL    HW228945   8.660   6.624   9.822  0.5099 -2.6021 -1.6152
 7299SOL     OW28946   3.265   8.379   7.334  0.0201  0.3775 -0.3241
 7299SOL    HW128947   3.336   8.442   7.338  0.2846  0.1167 -0.8111
 7299SOL    HW228948   3.211   8.409   7.261  1.5381 -1.3640 -2.2947
 7300SOL     OW28949   2.522  10.196   8.538 -0.0369  0.3141 -0.1796
 7300SOL    HW128950   2.564  10.133   8.480 -0.7653 -0.8282  0.4795
 7300SOL    HW228951   2.430  10.171   8.538 -0.0229  0.1194  1.6286
 7301SOL     OW28952   1.669   5.456   1.183  0.0088  0.7565  0.2037
 7301SOL    HW128953   1.688   5.396   1.111 -1.7947  0.6603 -0.2328
 7301SOL    HW228954   1.608   5.521   1.146 -1.1338  0.5761  1.6586
 7302SOL     OW28955   8.640   5.910   8.904 -0.4335 -0.0731  0.0450
 7302SOL    HW128956   8.587   5.834   8.876 -1.0355  0.1319  0.6029
 7302SOL    HW228957   8.654   5.959   8.823  0.0084 -0.7988 -0.3365
 7303SOL     OW28958  12.193   0.538   1.543 -0.1524  0.4155 -0.0824
 7303SOL    HW128959  12.174   0.448   1.570 -0.4390  0.6500  0.5268
 7303SOL    HW228960  12.164   0.592   1.617  1.3355  0.9170  0.1618
 7304SOL     OW28961   2.004   5.224   8.656 -0.3135 -0.0994  0.5123
 7304SOL    HW128962   2.051   5.269   8.585  0.5566 -0.6552  0.7200
 7304SOL    HW228963   1.955   5.154   8.612  0.2633 -0.4742  0.4598
 7305SOL     OW28964   9.732  12.548   7.675  0.3964  0.1583  0.0258
 7305SOL    HW128965   9.820  12.552   7.637  0.4584 -0.8760  0.0298
 7305SOL    HW228966   9.701  12.460   7.656 -0.7174  0.5614 -0.1128
 7306SOL     OW28967   1.513   4.842   4.219 -0.2442 -0.3934  0.3131
 7306SOL    HW128968   1.437   4.871   4.269  0.5162  0.3281  1.0855
 7306SOL    HW228969   1.547   4.767   4.268  0.3374  0.1388  0.7361
 7307SOL     OW28970   7.520   8.981   2.202  0.6853  0.0160 -0.2419
 7307SOL    HW128971   7.449   9.042   2.179  0.2753 -0.7276 -1.0257
 7307SOL    HW228972   7.477   8.895   2.206  1.5627 -0.4703 -0.9058
 7308SOL     OW28973   9.168   5.112  10.634  0.3415 -0.0402  0.0119
 7308SOL    HW128974   9.096   5.057  10.602 -0.5875  1.3996 -0.4788
 7308SOL    HW228975   9.247   5.067  10.606 -0.4058 -0.6566 -1.2033
 7309SOL     OW28976   3.078   8.407   1.091 -0.4561 -0.6653 -0.1729
 7309SOL    HW128977   3.008   8.470   1.109  0.9548  0.9254 -0.0227
 7309SOL    HW228978   3.124   8.398   1.174 -1.2380 -2.7549  0.0984
 7310SOL     OW28979   6.219   0.807   3.141 -0.2118 -0.2332  0.2802
 7310SOL    HW128980   6.265   0.727   3.165  2.0608  1.0919  0.6249
 7310SOL    HW228981   6.158   0.822   3.214  0.9550 -0.4760  1.3453
 7311SOL     OW28982  10.259  11.305   6.447  0.2701  0.0742 -1.0706
 7311SOL    HW128983  10.283  11.230   6.393 -0.9052 -0.7920 -0.4528
 7311SOL    HW228984  10.235  11.266   6.532 -0.0016  1.1879 -0.6181
 7312SOL     OW28985   5.956   7.393   1.656  0.5056  0.3075  0.3287
 7312SOL    HW128986   5.961   7.477   1.702  1.5852  0.3889  0.0837
 7312SOL    HW228987   5.994   7.330   1.718  3.6753  0.6980 -1.0352
 7313SOL     OW28988  11.383   2.800   3.595 -0.0440 -0.1251 -0.5442
 7313SOL    HW128989  11.318   2.747   3.642  0.8271 -0.6253  0.1279
 7313SOL    HW228990  11.334   2.877   3.565 -1.3183 -1.2510 -1.4712
 7314SOL     OW28991   5.586   9.301  10.930  0.0955  0.4531  0.6125
 7314SOL    HW128992   5.581   9.391  10.898  0.1339  0.5051  0.7484
 7314SOL    HW228993   5.533   9.250  10.870 -1.1461  0.8042  1.3815
 7315SOL     OW28994   0.338   7.512   6.554 -0.1374  0.0684 -0.1734
 7315SOL    HW128995   0.322   7.556   6.471  0.1488  0.8761  0.1979
 7315SOL    HW228996   0.258   7.525   6.604 -0.2565 -0.2970 -0.2675
 7316SOL     OW28997   6.603   5.852   0.876 -0.6623  0.8129 -0.0157
 7316SOL    HW128998   6.628   5.761   0.890  0.3790  1.0883 -0.0128
 7316SOL    HW228999   6.522   5.862   0.926 -1.4042 -0.3897 -0.9137
 7317SOL     OW29000   3.391   3.426  12.429 -0.2348 -0.1068 -0.1711
 7317SOL    HW129001   3.378   3.477  12.509 -0.7085  0.4735 -0.6108
 7317SOL    HW229002   3.333   3.350  12.439 -0.4531  0.0749 -0.0575
 7318SOL     OW29003  11.240   9.246   8.147 -0.7432 -0.4302 -0.3018
 7318SOL    HW129004  11.157   9.199   8.152 -1.4166  0.7846  0.4598
 7318SOL    HW229005  11.251   9.285   8.233  0.7905 -0.8091 -0.2874
 7319SOL     OW29006  10.618   4.050   0.704 -0.1117 -0.3965  0.2991
 7319SOL    HW129007  10.525   4.072   0.707  0.2672  1.3377  0.0874
 7319SOL    HW229008  10.621   3.956   0.724 -1.8569 -0.3770  0.7926
 7320SOL     OW29009   2.819   1.063   8.329  0.3177  0.5921 -0.0233
 7320SOL    HW129010   2.756   1.134   8.342  0.6426  1.0981 -1.0874
 7320SOL    HW229011   2.769   0.995   8.283  0.0579  0.1847  0.8281
 7321SOL     OW29012   0.078   8.212   7.048  0.2328  0.3186  0.6238
 7321SOL    HW129013   0.094   8.132   7.098 -1.2047  0.0032  0.6245
 7321SOL    HW229014   0.160   8.261   7.055  1.2274 -1.2173  0.4733
 7322SOL     OW29015   5.660  12.514  11.534  0.2411 -0.4436  0.0749
 7322SOL    HW129016   5.690  12.599  11.565  1.5871 -0.9366  0.2155
 7322SOL    HW229017   5.662  12.521  11.439  1.5671 -0.6817  0.0605
 7323SOL     OW29018   1.247   2.746   9.249 -0.2201 -0.5701 -0.4407
 7323SOL    HW129019   1.257   2.820   9.309  0.9683 -1.6427  0.7647
 7323SOL    HW229020   1.331   2.741   9.202  0.3216 -2.0221  0.5954
 7324SOL     OW29021   8.457  12.488  11.306 -0.6480 -0.2972  0.4718
 7324SOL    HW129022   8.379  12.541  11.319 -0.7243 -0.4004  0.4399
 7324SOL    HW229023   8.522  12.524  11.367 -0.2723  0.6790 -0.4700
 7325SOL     OW29024   6.243   3.020   6.814  0.0516 -0.5725 -0.0397
 7325SOL    HW129025   6.206   3.107   6.798 -0.0359 -0.6926 -0.4826
 7325SOL    HW229026   6.234   2.974   6.731  0.8227 -0.7410 -0.0367
 7326SOL     OW29027   0.264   8.082  12.101  0.0961  0.3866 -0.2823
 7326SOL    HW129028   0.303   8.099  12.187  0.1478 -0.3511 -0.1532
 7326SOL    HW229029   0.186   8.138  12.098  0.4076  0.8467  0.0058
 7327SOL     OW29030   4.470   2.141  11.280 -0.7002 -0.1514  0.1391
 7327SOL    HW129031   4.505   2.179  11.200  0.9262  0.7781  1.2543
 7327SOL    HW229032   4.482   2.046  11.268 -1.1374 -0.0934 -0.9737
 7328SOL     OW29033  10.131  11.083  12.264  0.2122 -0.7252 -0.2458
 7328SOL    HW129034  10.107  11.042  12.181  0.2455 -0.8422 -0.1964
 7328SOL    HW229035  10.110  11.176  12.251  0.1656 -0.7523 -0.3651
 7329SOL     OW29036  12.181   0.864   4.149  0.5930  0.4833 -0.1051
 7329SOL    HW129037  12.201   0.915   4.227  0.6874  0.1665  0.0812
 7329SOL    HW229038  12.104   0.812   4.173  0.8829  0.0603 -0.0709
 7330SOL     OW29039   8.513   9.700   2.449 -0.0605  0.2383 -0.8912
 7330SOL    HW129040   8.585   9.642   2.476  0.5458  0.3958 -2.1126
 7330SOL    HW229041   8.444   9.640   2.421 -1.3347  0.0069  2.3372
 7331SOL     OW29042  10.135   2.234   9.229  0.4852 -0.1153  0.1398
 7331SOL    HW129043  10.203   2.169   9.212  0.5505 -0.1749  0.6026
 7331SOL    HW229044  10.172   2.317   9.199  0.1622 -0.3775 -1.0350
 7332SOL     OW29045  10.111   3.808   1.090  0.0520 -0.1585 -0.4215
 7332SOL    HW129046  10.109   3.741   1.022  1.5657 -0.4079 -0.2718
 7332SOL    HW229047  10.053   3.775   1.159 -2.9091  0.9183 -2.2399
 7333SOL     OW29048  11.890  11.267   1.176  0.3506 -0.3217  0.5937
 7333SOL    HW129049  11.882  11.259   1.271 -2.4243  0.0810  0.4677
 7333SOL    HW229050  11.800  11.277   1.145  0.9782 -2.3458 -2.2848
 7334SOL     OW29051   8.775   8.300   4.935  0.1863  0.5028  0.6205
 7334SOL    HW129052   8.810   8.367   4.994  1.6005 -0.4318  0.8939
 7334SOL    HW229053   8.807   8.218   4.971 -2.0217 -0.4171  0.6523
 7335SOL     OW29054   1.925   3.050  11.838  0.6343 -0.1936  0.0873
 7335SOL    HW129055   1.965   3.015  11.758 -0.8466  1.4139 -1.4546
 7335SOL    HW229056   1.964   3.138  11.848  0.5246 -0.2329  0.9355
 7336SOL     OW29057  11.834  10.190   2.168 -0.3691  0.1209  0.4969
 7336SOL    HW129058  11.782  10.120   2.208 -0.0595 -0.7893 -0.6427
 7336SOL    HW229059  11.862  10.154   2.084  1.3040  0.9356  0.6523
 7337SOL     OW29060   9.410   7.410   8.448 -0.4783 -0.0306  0.0754
 7337SOL    HW129061   9.360   7.338   8.409  0.4885 -0.7854  0.1635
 7337SOL    HW229062   9.392   7.403   8.542 -0.7215  0.1087  0.0392
 7338SOL     OW29063  11.408   8.999   5.090 -0.1365  0.1427 -0.0984
 7338SOL    HW129064  11.481   9.041   5.045  0.0523 -0.2059 -0.1240
 7338SOL    HW229065  11.370   9.068   5.145  0.0593  0.3885 -0.2707
 7339SOL     OW29066   8.142   3.443   8.744 -0.1371  0.2976 -0.6776
 7339SOL    HW129067   8.136   3.408   8.833 -0.4387  0.0059 -0.8098
 7339SOL    HW229068   8.157   3.537   8.756 -0.9645  0.3869 -0.3199
 7340SOL     OW29069   4.489   7.250   9.343  0.1708 -0.2528  0.8448
 7340SOL    HW129070   4.552   7.248   9.415  0.6220  0.1659  0.4650
 7340SOL    HW229071   4.503   7.334   9.300 -0.6988 -0.1195  0.7959
 7341SOL     OW29072  10.175   6.019   8.654 -0.4077 -0.0654  0.1173
 7341SOL    HW129073  10.250   5.984   8.604 -0.7336  1.2425 -1.3810
 7341SOL    HW229074  10.146   6.095   8.603 -1.7873  0.3891  1.5051
 7342SOL     OW29075   5.998   7.375   0.808  0.4880 -0.0641 -0.5193
 7342SOL    HW129076   5.925   7.432   0.784  2.7751  2.3486 -2.3062
 7342SOL    HW229077   5.998   7.307   0.741 -1.7097 -1.8613  1.1216
 7343SOL     OW29078  10.514   7.431  10.759 -0.2396 -0.3351  0.6063
 7343SOL    HW129079  10.421   7.451  10.749 -0.0634 -0.2263 -1.0404
 7343SOL    HW229080  10.558   7.514  10.740  0.2004 -0.2404  1.9142
 7344SOL     OW29081   1.797   7.525   6.947 -0.2713  0.0478  0.2727
 7344SOL    HW129082   1.709   7.563   6.946 -0.1919  0.2257 -0.8575
 7344SOL    HW229083   1.853   7.594   6.911  0.0713 -0.6594 -0.5724
 7345SOL     OW29084   6.781   6.095   3.901 -0.2324 -0.0005  0.1240
 7345SOL    HW129085   6.807   6.104   3.810  1.0633  0.3337  0.4984
 7345SOL    HW229086   6.854   6.049   3.943 -0.0732  1.2359  1.2991
 7346SOL     OW29087   0.787   2.664   8.578  0.4929  0.5174  0.5546
 7346SOL    HW129088   0.790   2.569   8.587  1.4734  0.2383 -1.7712
 7346SOL    HW229089   0.718   2.693   8.637  1.3838 -1.4246  2.6515
 7347SOL     OW29090   0.662  10.523   7.886 -0.3351 -0.5411  0.2249
 7347SOL    HW129091   0.754  10.550   7.886 -0.7676  1.0479  0.0825
 7347SOL    HW229092   0.644  10.499   7.795 -0.3626  0.3224 -0.0061
 7348SOL     OW29093   6.868   9.843   8.833 -0.2254 -0.2290  0.1058
 7348SOL    HW129094   6.938   9.809   8.888 -1.6945 -1.3938  1.3471
 7348SOL    HW229095   6.857   9.934   8.861 -0.8299 -0.7521  1.6791
 7349SOL     OW29096   0.230  11.644   4.488  0.0702  0.2024 -0.1572
 7349SOL    HW129097   0.233  11.653   4.583 -1.3101  0.7344 -0.1314
 7349SOL    HW229098   0.260  11.555   4.471 -2.0398 -0.8054  1.0108
 7350SOL     OW29099   8.910   0.859   4.357 -0.2274  0.1568  0.4605
 7350SOL    HW129100   8.931   0.846   4.449 -1.4080 -0.3302  0.6669
 7350SOL    HW229101   8.959   0.790   4.311 -1.2231 -0.8804  0.9209
 7351SOL     OW29102   1.727   0.426   6.512  0.3962  0.0771  0.6286
 7351SOL    HW129103   1.697   0.419   6.421 -0.8492  0.4370  0.9889
 7351SOL    HW229104   1.807   0.479   6.506  1.0431 -0.9570 -0.3712
 7352SOL     OW29105  12.485   5.941   4.367  0.0024  0.2711  0.2929
 7352SOL    HW129106  12.410   5.950   4.426 -0.5897 -0.0867 -0.4064
 7352SOL    HW229107  12.461   5.871   4.307  0.4042  0.9504 -0.6780
 7353SOL     OW29108   9.082   8.049   7.961  0.2287 -0.0451  0.2856
 7353SOL    HW129109   9.045   7.961   7.949 -0.3993  0.1363  0.8511
 7353SOL    HW229110   9.041   8.102   7.893 -1.4642  0.4190  1.6112
 7354SOL     OW29111   9.998   1.229   3.247  0.0325  0.5352  0.5907
 7354SOL    HW129112  10.047   1.283   3.309 -1.1819  2.8161 -0.2826
 7354SOL    HW229113  10.050   1.233   3.166  1.2856 -1.8977  1.1901
 7355SOL     OW29114   8.291   2.092   8.768  0.0410 -0.1205  0.3992
 7355SOL    HW129115   8.285   2.165   8.830  1.7439 -0.8013  1.4285
 7355SOL    HW229116   8.271   2.014   8.820 -4.6228 -0.3380 -1.2506
 7356SOL     OW29117   5.891   7.382  10.453 -0.0732  0.0384  0.6003
 7356SOL    HW129118   5.829   7.439  10.407 -0.6384 -0.4284  0.7765
 7356SOL    HW229119   5.902   7.307  10.395 -0.3316 -0.2755  0.9555
 7357SOL     OW29120   4.023   2.407   1.433  0.0299 -0.5558 -0.3937
 7357SOL    HW129121   3.965   2.475   1.467 -0.3068 -1.2199  0.4148
 7357SOL    HW229122   4.109   2.429   1.467 -0.3351 -1.3177  1.1353
 7358SOL     OW29123   1.446   5.280   8.828  0.4614 -0.1811  0.3608
 7358SOL    HW129124   1.355   5.252   8.828  0.3690  0.0375 -1.1418
 7358SOL    HW229125   1.496   5.202   8.851 -0.0745 -0.3773  0.8805
 7359SOL     OW29126   9.040   1.624   6.321 -1.0945 -0.0665 -0.0927
 7359SOL    HW129127   8.945   1.628   6.310 -1.0725  1.4974  0.0135
 7359SOL    HW229128   9.067   1.716   6.325  0.1731 -0.4702  2.1982
 7360SOL     OW29129  10.642   9.917   3.627 -0.4866 -0.5228  0.3582
 7360SOL    HW129130  10.668   9.967   3.704  0.3331 -2.2343  1.2431
 7360SOL    HW229131  10.546   9.914   3.632 -0.6942  2.1826 -0.5675
 7361SOL     OW29132   0.695   4.151   6.262 -0.3040  0.3292  0.7073
 7361SOL    HW129133   0.743   4.229   6.289 -0.4455  0.2419  1.2221
 7361SOL    HW229134   0.634   4.134   6.334 -2.6209  1.6713 -0.7762
 7362SOL     OW29135   9.758   1.530   2.283 -0.4989  0.4083 -0.3093
 7362SOL    HW129136   9.826   1.493   2.339  0.5441 -0.4963 -2.0869
 7362SOL    HW229137   9.805   1.591   2.226 -1.5115  1.2363 -0.2863
 7363SOL     OW29138   9.830   4.071  12.390  0.3878 -0.2341  0.2114
 7363SOL    HW129139   9.778   4.106  12.462  0.5502 -1.3397  0.8984
 7363SOL    HW229140   9.920   4.099  12.408  0.7457 -1.9972  1.4831
 7364SOL     OW29141   5.150   5.660   2.384 -0.0483 -0.2608  0.6776
 7364SOL    HW129142   5.079   5.701   2.334  1.4866 -0.4586 -1.8001
 7364SOL    HW229143   5.112   5.579   2.417 -1.0970 -0.1664 -0.2452
 7365SOL     OW29144  10.620   2.924   7.836 -0.1877  0.4382 -0.3737
 7365SOL    HW129145  10.551   2.861   7.814  0.2833 -0.4474  0.6043
 7365SOL    HW229146  10.642   2.965   7.752 -0.9029 -0.2851 -0.9342
 7366SOL     OW29147   2.239   1.606   4.398 -0.1178 -0.5469 -0.4082
 7366SOL    HW129148   2.275   1.678   4.450  2.4923 -2.3967  0.6025
 7366SOL    HW229149   2.212   1.541   4.462 -1.6883 -0.8388 -1.3111
 7367SOL     OW29150   7.699   6.126   2.424 -0.1840  0.2909 -0.0806
 7367SOL    HW129151   7.685   6.218   2.403 -1.0619  0.4357  1.0259
 7367SOL    HW229152   7.714   6.125   2.518 -2.4500 -0.8787  0.3440
 7368SOL     OW29153   5.265   4.219  11.847  0.6210  0.3164 -0.0393
 7368SOL    HW129154   5.355   4.234  11.874  0.3792  0.4399  0.7324
 7368SOL    HW229155   5.230   4.306  11.831  0.1652  0.4132  1.2958
 7369SOL     OW29156   5.038   5.904   2.991  0.1795 -0.1764 -0.1157
 7369SOL    HW129157   5.105   5.839   2.967  0.6397 -0.1632  1.0411
 7369SOL    HW229158   5.029   5.894   3.086 -1.1557  0.1325 -0.1937
 7370SOL     OW29159   0.349   3.174   5.502 -0.1566  0.5051  0.2450
 7370SOL    HW129160   0.331   3.105   5.438  0.7992 -0.8370  1.3713
 7370SOL    HW229161   0.436   3.207   5.478 -0.6996  1.4979 -0.4207
 7371SOL     OW29162   1.709   9.046  12.270  0.1004  0.6772  0.4870
 7371SOL    HW129163   1.776   8.985  12.242 -0.1215 -0.0536  1.4770
 7371SOL    HW229164   1.632   8.992  12.285  0.3915  0.8577  3.1105
 7372SOL     OW29165   3.036   1.678   9.270  0.1196  0.3959 -0.0847
 7372SOL    HW129166   3.050   1.705   9.179 -1.5886 -0.4604 -0.6440
 7372SOL    HW229167   2.954   1.722   9.296  0.2649  0.1410  0.8358
 7373SOL     OW29168  10.614   6.079   2.484  0.4237  0.4527 -0.2918
 7373SOL    HW129169  10.619   6.005   2.545 -0.5880  0.9705  0.4362
 7373SOL    HW229170  10.638   6.155   2.537  0.3663  0.7943 -0.7564
 7374SOL     OW29171  12.238   5.228   7.329 -0.9304 -0.1759 -0.3317
 7374SOL    HW129172  12.187   5.234   7.409 -0.6323  0.0018 -0.1545
 7374SOL    HW229173  12.250   5.133   7.315 -0.4816 -0.1903  0.1513
 7375SOL     OW29174  10.592   8.611  10.916  0.1461  0.0004  0.7391
 7375SOL    HW129175  10.518   8.586  10.971 -1.6568 -0.7360 -1.8249
 7375SOL    HW229176  10.630   8.528  10.887  0.2895  0.3414 -0.0877
 7376SOL     OW29177   2.798   7.830  12.512 -0.4333 -0.1539  0.2027
 7376SOL    HW129178   2.881   7.794  12.480  0.1581  0.7758  0.6202
 7376SOL    HW229179   2.777   7.900  12.451 -1.3873 -0.9532 -0.4048
 7377SOL     OW29180   5.649  11.796   2.798  0.4884 -0.3894 -0.2736
 7377SOL    HW129181   5.562  11.756   2.796  0.1699  0.1215  1.3940
 7377SOL    HW229182   5.688  11.764   2.880  1.5173  0.0944 -0.5532
 7378SOL     OW29183   0.090   3.693   7.180 -0.0811 -0.0139 -0.0300
 7378SOL    HW129184   0.018   3.749   7.208  0.5473  1.0134 -0.4197
 7378SOL    HW229185   0.049   3.626   7.126 -0.5301  1.8068 -2.0610
 7379SOL     OW29186  12.513   9.986   1.631 -0.2111  0.3812  0.5912
 7379SOL    HW129187  12.548   9.906   1.671 -0.3219 -0.0971 -0.2432
 7379SOL    HW229188  12.548   9.986   1.542 -0.8418  0.8527  0.3350
 7380SOL     OW29189  11.900   6.853   8.344  0.0522 -0.4499  0.0325
 7380SOL    HW129190  11.846   6.905   8.404 -0.2458 -0.5629 -0.1360
 7380SOL    HW229191  11.843   6.781   8.317  0.6169 -1.1350  0.6280
 7381SOL     OW29192   0.147  12.380   2.412 -0.1226  0.2209 -0.5789
 7381SOL    HW129193   0.068  12.335   2.441 -0.7843  0.8614 -1.3531
 7381SOL    HW229194   0.150  12.460   2.463  0.5890 -0.2597  0.1715
 7382SOL     OW29195  11.195   3.753   8.687 -0.5908 -0.7387  0.0622
 7382SOL    HW129196  11.221   3.817   8.753 -1.3828  0.7330 -1.0270
 7382SOL    HW229197  11.264   3.756   8.621 -0.1550 -1.7088  0.4478
 7383SOL     OW29198   2.651   1.797   6.841 -0.2791 -0.2677 -0.2723
 7383SOL    HW129199   2.743   1.781   6.820 -0.3355  0.9934 -1.5815
 7383SOL    HW229200   2.653   1.829   6.931  0.6001  0.1488 -0.4300
 7384SOL     OW29201   4.106  12.117  11.597 -0.7037  0.3570 -0.4731
 7384SOL    HW129202   4.028  12.070  11.626 -1.0591  0.5706 -1.0770
 7384SOL    HW229203   4.141  12.156  11.677  0.7312 -2.5080  0.4485
 7385SOL     OW29204   0.387   4.785  11.547 -0.0269 -0.2923  0.1925
 7385SOL    HW129205   0.357   4.704  11.588  0.3560 -0.1246  0.8089
 7385SOL    HW229206   0.399   4.846  11.619  0.7093 -0.0104 -0.1561
 7386SOL     OW29207  10.856   2.308  12.255  0.1826  0.2214  0.0453
 7386SOL    HW129208  10.855   2.228  12.308 -1.7697 -0.5644 -1.0556
 7386SOL    HW229209  10.782   2.359  12.288  0.5829  0.9518 -0.1688
 7387SOL     OW29210   8.174   5.733   4.643 -0.1831 -0.1086 -0.2379
 7387SOL    HW129211   8.176   5.671   4.571  0.0703  0.7657 -1.0126
 7387SOL    HW229212   8.225   5.691   4.712  0.5105 -0.5054 -0.9680
 7388SOL     OW29213   5.944  11.126  11.648 -0.0908 -0.1152 -0.6177
 7388SOL    HW129214   5.917  11.213  11.677 -2.6436 -0.5091 -1.5577
 7388SOL    HW229215   6.019  11.105  11.703 -1.9075  0.9759  2.5696
 7389SOL     OW29216   1.727   3.136   0.671  0.5751 -0.1483 -0.1400
 7389SOL    HW129217   1.735   3.189   0.750 -0.7402  0.1715 -0.2002
 7389SOL    HW229218   1.764   3.051   0.695  0.5027  0.0556  0.7023
 7390SOL     OW29219   5.106  12.301   4.724 -0.2719 -0.7999  0.1161
 7390SOL    HW129220   5.062  12.380   4.692  0.4102  0.0274  1.1409
 7390SOL    HW229221   5.162  12.273   4.652 -1.0092 -0.7320 -0.4920
 7391SOL     OW29222  11.381  10.416   5.159  0.3321  0.0059  0.0912
 7391SOL    HW129223  11.328  10.493   5.179  0.8806  0.5560 -0.5047
 7391SOL    HW229224  11.466  10.434   5.200  0.3259 -0.4923  0.3371
 7392SOL     OW29225  10.814  10.568  12.297 -0.1620 -0.1178  0.0146
 7392SOL    HW129226  10.843  10.477  12.303 -0.1889 -0.1370 -0.1434
 7392SOL    HW229227  10.853  10.610  12.373 -0.5228 -0.3644  0.3361
 7393SOL     OW29228  11.883   4.552   8.600 -0.5323  0.2206 -0.3158
 7393SOL    HW129229  11.789   4.543   8.618 -0.0403 -0.1692  2.4851
 7393SOL    HW229230  11.920   4.468   8.627  0.8642  1.0893  0.5288
 7394SOL     OW29231   0.417   3.122   8.619  0.0901 -0.5617  0.7440
 7394SOL    HW129232   0.466   3.195   8.656 -0.3115 -0.0248  0.2432
 7394SOL    HW229233   0.384   3.156   8.536 -0.7713 -1.0468  0.8805
 7395SOL     OW29234   3.343   1.159   8.792  0.0726 -0.1219 -0.1723
 7395SOL    HW129235   3.348   1.145   8.698  1.8532 -0.7159 -0.0333
 7395SOL    HW229236   3.335   1.070   8.828  1.0124 -0.0281  0.2887
 7396SOL     OW29237   0.204   1.541   9.313 -0.4049  0.1879 -0.4480
 7396SOL    HW129238   0.255   1.498   9.244  0.2008 -1.0733  0.7427
 7396SOL    HW229239   0.119   1.496   9.311 -0.3938  0.1640 -0.3791
 7397SOL     OW29240   3.557  11.747   9.758 -0.3087 -0.0644  0.8457
 7397SOL    HW129241   3.609  11.821   9.788 -1.7441  0.8356  1.2085
 7397SOL    HW229242   3.585  11.734   9.667 -1.0774  1.9123  0.2820
 7398SOL     OW29243   1.566   9.002   8.987 -0.3720 -0.1910  0.2118
 7398SOL    HW129244   1.571   8.923   9.040 -1.1428  0.0037  0.5902
 7398SOL    HW229245   1.608   9.069   9.041  1.0781 -0.5132 -0.4747
 7399SOL     OW29246   5.650   3.423   9.171  0.3200  0.4486 -0.0014
 7399SOL    HW129247   5.634   3.479   9.095 -1.3065 -0.6503 -0.5176
 7399SOL    HW229248   5.594   3.347   9.157  1.8399 -0.9571  1.0817
 7400SOL     OW29249   7.587  10.646   9.287 -0.6812  0.4438  0.2762
 7400SOL    HW129250   7.630  10.637   9.202 -1.0072  0.1923  0.1382
 7400SOL    HW229251   7.506  10.596   9.278 -0.3007 -0.3362  1.0221
 7401SOL     OW29252   1.918   1.692   6.713 -0.0214  0.2242 -0.3595
 7401SOL    HW129253   1.874   1.776   6.697 -0.8601 -0.1918 -0.2799
 7401SOL    HW229254   2.007   1.705   6.679 -0.0222  1.2680 -0.0130
 7402SOL     OW29255   9.730  12.271   1.512 -0.3851  0.3010 -0.1356
 7402SOL    HW129256   9.698  12.188   1.478 -2.1154  0.6558  0.5136
 7402SOL    HW229257   9.692  12.278   1.599 -0.0426  1.6394 -0.0664
 7403SOL     OW29258  10.205   7.430  10.864  0.1730 -0.2422 -0.0423
 7403SOL    HW129259  10.195   7.338  10.838  0.8948 -0.2899 -0.1924
 7403SOL    HW229260  10.235   7.426  10.954  0.0232 -0.1470  0.0114
 7404SOL     OW29261   6.756   7.287  12.207 -0.3450 -0.2694  0.1570
 7404SOL    HW129262   6.727   7.351  12.272 -2.5263  1.5189 -2.3365
 7404SOL    HW229263   6.697   7.212  12.218  0.1205 -0.5089  1.0337
 7405SOL     OW29264   6.985  10.240  12.475 -0.1083 -0.1925  0.1021
 7405SOL    HW129265   7.022  10.328  12.478 -1.9736  0.7429 -1.6627
 7405SOL    HW229266   7.060  10.182  12.465  1.1184  1.2248  0.7264
 7406SOL     OW29267   0.271  11.763   9.715 -0.0162  0.1003  0.3081
 7406SOL    HW129268   0.326  11.689   9.739 -1.0605 -1.3920 -1.5789
 7406SOL    HW229269   0.196  11.757   9.774  0.3055  0.1636  0.7236
 7407SOL     OW29270   2.842   2.925   9.779  0.0433 -0.1951  0.0723
 7407SOL    HW129271   2.868   2.933   9.871  0.5723  0.6976 -0.1441
 7407SOL    HW229272   2.759   2.973   9.773 -0.2095 -0.6142  0.1653
 7408SOL     OW29273   4.297   8.120   9.640 -0.0168  0.0961 -0.3429
 7408SOL    HW129274   4.266   8.088   9.555  0.4052  0.1640 -0.5264
 7408SOL    HW229275   4.283   8.214   9.637  1.6430  0.3483 -1.0546
 7409SOL     OW29276   2.825   2.731   6.242  0.2337  0.2935 -0.2210
 7409SOL    HW129277   2.765   2.775   6.182  1.3609  0.6009 -1.1555
 7409SOL    HW229278   2.832   2.791   6.316 -0.1654  0.5213 -0.3643
 7410SOL     OW29279   5.642   7.422   5.675 -0.2749  0.0487 -0.3941
 7410SOL    HW129280   5.716   7.411   5.615  1.1944 -0.9646  1.4967
 7410SOL    HW229281   5.663   7.501   5.725 -0.4629 -0.2541  0.1687
 7411SOL     OW29282   3.907   3.041   2.471  0.6401  0.6934 -0.1862
 7411SOL    HW129283   3.879   3.130   2.452 -0.6848  0.2069 -0.5841
 7411SOL    HW229284   3.918   3.000   2.385 -2.8450 -0.7306 -0.1256
 7412SOL     OW29285   1.910   3.476  12.142 -0.0081  0.3554  0.4094
 7412SOL    HW129286   1.874   3.390  12.122  1.3326  0.3067 -2.1386
 7412SOL    HW229287   2.003   3.469  12.120 -0.1764  2.8787 -1.4702
 7413SOL     OW29288   3.810   1.645  11.054 -0.0677  0.0772 -0.3465
 7413SOL    HW129289   3.857   1.562  11.055  0.4196  0.3469 -0.3377
 7413SOL    HW229290   3.879   1.711  11.041 -0.4134  0.4955 -0.0796
 7414SOL     OW29291   6.314   3.592  10.070  0.0028 -0.1616  0.1957
 7414SOL    HW129292   6.367   3.586  10.149 -0.3152  0.2506  0.4460
 7414SOL    HW229293   6.253   3.664  10.087  0.3160  0.3287 -0.6500
 7415SOL     OW29294   9.470  12.487   3.373 -0.1205 -0.8625  0.0104
 7415SOL    HW129295   9.461  12.427   3.300  0.9021  1.8452 -2.5823
 7415SOL    HW229296   9.410  12.559   3.353  2.4501  1.4615  0.0343
 7416SOL     OW29297   1.345  10.078   1.583  0.8530  0.4284  0.1089
 7416SOL    HW129298   1.297  10.038   1.655  0.0583  0.8869 -0.1577
 7416SOL    HW229299   1.309  10.166   1.574  0.2318  0.0572 -1.4675
 7417SOL     OW29300  11.134   9.121   5.405  0.2851  0.1070  0.0919
 7417SOL    HW129301  11.187   9.103   5.327 -0.8540  0.7933 -0.8904
 7417SOL    HW229302  11.155   9.212   5.427 -0.5828  0.4478 -0.4206
 7418SOL     OW29303   3.258   2.773   9.222  0.6723 -0.1014  0.3994
 7418SOL    HW129304   3.354   2.775   9.221  0.6829  0.3563  1.3680
 7418SOL    HW229305   3.235   2.757   9.314 -0.1736 -1.4961 -0.0131
 7419SOL     OW29306   5.744  11.049   6.332 -0.2801  0.4510  0.0096
 7419SOL    HW129307   5.830  11.052   6.373 -0.3226 -0.5231  0.1995
 7419SOL    HW229308   5.725  11.140   6.309  1.4867  0.5019 -1.4746
 7420SOL     OW29309  10.139   8.345   6.990  0.0338 -0.0976  0.3230
 7420SOL    HW129310  10.180   8.270   6.945  0.5494  0.7234 -0.6247
 7420SOL    HW229311  10.201   8.417   6.976 -1.8902  1.3234 -1.5627
 7421SOL     OW29312   5.070   9.420   1.277 -0.0510 -0.3474  0.4370
 7421SOL    HW129313   4.976   9.429   1.295  0.3750  0.9482  2.2802
 7421SOL    HW229314   5.096   9.503   1.238  0.4967 -0.3140  0.8501
 7422SOL     OW29315   9.356  11.781   8.822 -0.2176 -0.1099  0.3258
 7422SOL    HW129316   9.269  11.791   8.784  0.6942  2.3336 -1.4203
 7422SOL    HW229317   9.412  11.759   8.748  1.3412  3.1305  0.3365
 7423SOL     OW29318  11.155   9.592   6.535 -0.0266  0.0621 -0.2697
 7423SOL    HW129319  11.206   9.672   6.538 -2.5504  1.7971  2.5190
 7423SOL    HW229320  11.171   9.550   6.620 -1.9561 -0.1273  0.0428
 7424SOL     OW29321   6.401   4.279   6.716 -0.1199  0.2749 -0.0290
 7424SOL    HW129322   6.455   4.349   6.679  0.2787  0.5085  0.9428
 7424SOL    HW229323   6.331   4.265   6.652 -0.2055  1.5585 -0.2366
 7425SOL     OW29324   6.718   5.583   2.504  0.0644 -0.4751 -0.0144
 7425SOL    HW129325   6.723   5.595   2.409 -1.7643  0.9943 -0.0000
 7425SOL    HW229326   6.715   5.672   2.539  0.8274 -0.9996  1.4368
 7426SOL     OW29327  10.675   0.955   9.412  0.0303 -0.0573 -0.2209
 7426SOL    HW129328  10.638   0.971   9.325 -3.5388  1.1996  1.3279
 7426SOL    HW229329  10.598   0.945   9.469  2.1169 -3.6852  2.4141
 7427SOL     OW29330   4.457   8.074   1.615 -0.0203 -0.0949 -0.2033
 7427SOL    HW129331   4.537   8.026   1.634 -1.0906 -2.0042 -0.2897
 7427SOL    HW229332   4.473   8.162   1.650  1.0252 -1.2379  2.5179
 7428SOL     OW29333   3.483  11.297   7.662 -0.1296  0.0550 -0.0340
 7428SOL    HW129334   3.425  11.278   7.588 -0.5599 -1.1643  0.5913
 7428SOL    HW229335   3.525  11.214   7.682  0.2169  0.4386  0.8945
 7429SOL     OW29336   5.877   7.797   9.143 -0.3191 -0.0249  0.6988
 7429SOL    HW129337   5.844   7.861   9.206  0.1065  0.2802  0.6198
 7429SOL    HW229338   5.906   7.723   9.196 -3.4640 -1.4387  0.6549
 7430SOL     OW29339   0.744   7.788   9.616 -0.0049  0.1614 -0.5830
 7430SOL    HW129340   0.785   7.703   9.635 -0.4727  0.0996  0.1979
 7430SOL    HW229341   0.817   7.846   9.598  0.5197  0.2437  1.5608
 7431SOL     OW29342   7.749   0.921   5.025 -0.5569 -0.2754  0.5030
 7431SOL    HW129343   7.747   1.015   5.042 -2.3143  0.0309 -1.0492
 7431SOL    HW229344   7.717   0.881   5.106 -1.0076  0.5529  0.7472
 7432SOL     OW29345  10.338   2.904  10.050  0.1305  0.3588 -0.6249
 7432SOL    HW129346  10.277   2.913  10.123  0.5705 -1.1562 -0.0341
 7432SOL    HW229347  10.335   2.811  10.028  1.2052  0.5076 -1.4931
 7433SOL     OW29348   4.822   4.316  11.974 -0.3526  0.5024  0.1670
 7433SOL    HW129349   4.891   4.298  12.038  2.9450 -2.0463 -3.6791
 7433SOL    HW229350   4.847   4.399  11.934  0.4201 -0.3270 -1.0998
 7434SOL     OW29351   4.646   2.520  11.197  0.1179 -0.2316 -0.0517
 7434SOL    HW129352   4.690   2.461  11.258 -0.5822  1.1691  1.9048
 7434SOL    HW229353   4.554   2.492  11.199  0.2584 -0.8828 -1.3775
 7435SOL     OW29354   5.206   9.415  12.002  0.2370  0.3157 -0.3032
 7435SOL    HW129355   5.220   9.476  12.074 -1.4069  1.5497 -0.9456
 7435SOL    HW229356   5.188   9.472  11.926 -2.9116 -0.8721 -0.6137
 7436SOL     OW29357   7.818  11.624   3.570  0.4910 -0.4252  0.1334
 7436SOL    HW129358   7.726  11.629   3.596  0.7668  1.8330  0.9558
 7436SOL    HW229359   7.837  11.531   3.564 -2.3317 -1.0218 -1.9390
 7437SOL     OW29360   8.567  11.842   4.402  0.4642 -0.6111 -0.2656
 7437SOL    HW129361   8.595  11.892   4.479 -0.3242  0.5900 -0.7369
 7437SOL    HW229362   8.639  11.851   4.340 -0.4924  1.7737 -1.1569
 7438SOL     OW29363   5.718   5.158   1.023 -0.3862  0.2840 -0.1378
 7438SOL    HW129364   5.773   5.216   0.970 -0.0052  1.0090  1.0074
 7438SOL    HW229365   5.777   5.124   1.090 -0.8033 -0.8034 -0.3083
 7439SOL     OW29366  12.442   9.783   4.255  0.1111  1.1822 -0.1310
 7439SOL    HW129367  12.401   9.853   4.307 -2.1671  0.8650 -1.3763
 7439SOL    HW229368  12.427   9.704   4.307 -2.3428  0.8346 -1.2467
 7440SOL     OW29369   8.908  12.484  11.682 -0.2916  0.0816 -0.1424
 7440SOL    HW129370   8.974  12.489  11.751 -0.4571  1.3135 -0.0497
 7440SOL    HW229371   8.834  12.440  11.724 -0.6965  1.5167  0.7636
 7441SOL     OW29372   5.503   6.410   0.105 -0.0905  0.4023  0.2454
 7441SOL    HW129373   5.532   6.362   0.182 -1.3090  0.6314  0.8572
 7441SOL    HW229374   5.555   6.491   0.106  0.3566  0.1188  0.4497
 7442SOL     OW29375  10.219   8.800   3.391  0.1152  0.4543 -0.1744
 7442SOL    HW129376  10.166   8.761   3.460  0.3810 -1.8796 -1.1999
 7442SOL    HW229377  10.159   8.858   3.344 -1.2923 -1.2973 -0.6351
 7443SOL     OW29378   6.324   3.943   7.746 -0.0947 -0.1258 -0.3048
 7443SOL    HW129379   6.282   4.030   7.746 -1.4874 -0.7506 -1.3317
 7443SOL    HW229380   6.301   3.907   7.660  0.1605 -1.6560  0.2572
 7444SOL     OW29381   4.497   0.468   1.492  0.2550  0.5387  0.1353
 7444SOL    HW129382   4.523   0.538   1.552 -1.0239  0.9275  0.2662
 7444SOL    HW229383   4.579   0.426   1.468  1.1131  2.3007 -0.2122
 7445SOL     OW29384   7.644   3.290   9.524 -0.4639 -0.3613 -0.0620
 7445SOL    HW129385   7.555   3.273   9.554 -0.9653 -0.9179 -1.7423
 7445SOL    HW229386   7.642   3.271   9.430  1.8571 -2.0474  0.1402
 7446SOL     OW29387   9.953   7.120   5.553  0.2035  0.7449  0.5339
 7446SOL    HW129388  10.028   7.150   5.605  0.7993  1.3233 -0.6099
 7446SOL    HW229389   9.922   7.041   5.598  3.8400 -1.7804 -0.9003
 7447SOL     OW29390   5.272   9.793   5.313  0.0406  0.2317 -0.5696
 7447SOL    HW129391   5.343   9.856   5.303 -1.2277  1.7272 -0.5475
 7447SOL    HW229392   5.192   9.846   5.307 -1.0592 -1.0913  1.3813
 7448SOL     OW29393   8.983  12.123   4.785  0.3444  0.1039  0.4850
 7448SOL    HW129394   9.000  12.028   4.783  0.8001  0.1886  0.1312
 7448SOL    HW229395   9.068  12.162   4.803 -0.1690  0.3680  2.6656
 7449SOL     OW29396   1.988   2.130   1.270  0.4379 -0.0872 -0.0009
 7449SOL    HW129397   1.991   2.177   1.186 -0.3901 -1.6326 -0.9405
 7449SOL    HW229398   2.077   2.133   1.303  1.0473 -0.5037 -1.5551
 7450SOL     OW29399   0.423   0.860   6.351 -0.1291  0.9358 -0.4646
 7450SOL    HW129400   0.380   0.788   6.305 -0.3531  1.5178 -1.1763
 7450SOL    HW229401   0.455   0.917   6.282  0.4349  1.3059  0.0884
 7451SOL     OW29402   2.827   8.932   4.379 -0.7537  0.1203 -1.1222
 7451SOL    HW129403   2.827   9.019   4.419 -1.3756 -0.0295 -0.7875
 7451SOL    HW229404   2.839   8.871   4.452 -3.4520 -0.2455 -0.8812
 7452SOL     OW29405   8.064   2.387   8.827 -0.7456 -0.0750 -0.5411
 7452SOL    HW129406   8.140   2.350   8.871  0.0831  1.1910 -0.8611
 7452SOL    HW229407   8.085   2.381   8.734 -0.0358  2.2286 -0.5884
 7453SOL     OW29408   3.237  11.693   8.884 -0.6102 -0.6562 -0.3626
 7453SOL    HW129409   3.320  11.721   8.845 -1.6191  1.3697 -1.1956
 7453SOL    HW229410   3.232  11.599   8.864 -0.3633 -0.0388 -3.8456
 7454SOL     OW29411   9.794  10.192  11.651  0.1392 -0.2266 -0.2426
 7454SOL    HW129412   9.876  10.144  11.666 -0.6041 -1.2738  0.5967
 7454SOL    HW229413   9.763  10.212  11.739 -1.5131 -1.5955 -0.4748
 7455SOL     OW29414   7.554   9.265   5.932  0.7472 -0.6157 -0.1467
 7455SOL    HW129415   7.562   9.353   5.970 -0.9064  0.3773 -1.9118
 7455SOL    HW229416   7.502   9.216   5.996 -1.0401  0.6914 -0.5046
 7456SOL     OW29417   2.652   0.529  12.418  0.3796  0.4021 -0.2125
 7456SOL    HW129418   2.714   0.473  12.371  1.9471  1.6419  0.2847
 7456SOL    HW229419   2.607   0.578  12.350  1.7015  1.2343 -0.5280
 7457SOL     OW29420   2.279   7.746   4.795  0.6911 -0.4205 -0.1785
 7457SOL    HW129421   2.193   7.731   4.834  0.7267 -0.5332 -0.1433
 7457SOL    HW229422   2.283   7.684   4.722  0.4439  0.0986 -0.6410
 7458SOL     OW29423   1.892   6.118   7.653 -0.2629  0.5311 -0.3047
 7458SOL    HW129424   1.871   6.081   7.567  3.0090 -0.9510 -0.5806
 7458SOL    HW229425   1.829   6.078   7.713 -0.1936 -1.4017 -1.4486
 7459SOL     OW29426  12.429   7.655  11.580 -0.7496  0.1815  0.3458
 7459SOL    HW129427  12.396   7.589  11.519  2.4645 -1.5818  0.3486
 7459SOL    HW229428  12.459   7.726  11.523 -0.9937  0.1113  0.1228
 7460SOL     OW29429   2.293  12.078   6.236  0.2346  0.5455 -0.0930
 7460SOL    HW129430   2.290  12.160   6.186  0.0219 -0.2308 -1.4170
 7460SOL    HW229431   2.354  12.023   6.187 -0.9550 -0.7027 -0.2422
 7461SOL     OW29432   9.820   7.520   9.540  0.1569 -0.5263 -0.6439
 7461SOL    HW129433   9.783   7.602   9.506  0.1228 -1.0954 -2.0841
 7461SOL    HW229434   9.855   7.543   9.626 -0.4343  0.8434 -0.7374
 7462SOL     OW29435  11.088   8.272   5.765 -0.2447 -0.0310  0.1277
 7462SOL    HW129436  11.069   8.238   5.677 -0.8538  2.5518 -0.8144
 7462SOL    HW229437  11.153   8.211   5.801 -2.7697 -3.4276 -0.5140
 7463SOL     OW29438  12.106  10.350   0.011  0.1466  0.1042 -0.7667
 7463SOL    HW129439  12.074  10.415   0.073  1.5544 -0.3079  0.4619
 7463SOL    HW229440  12.115  10.270   0.062 -0.4809 -0.7803 -1.9790
 7464SOL     OW29441   6.616  10.949  11.120 -0.7361 -0.0223 -0.2185
 7464SOL    HW129442   6.603  10.881  11.186  1.3554  0.9331  1.3072
 7464SOL    HW229443   6.707  10.939  11.093 -1.0140  0.8365 -1.5534
 7465SOL     OW29444   7.143  10.736   8.950 -0.4533 -0.2296 -0.3694
 7465SOL    HW129445   7.224  10.787   8.945 -1.1537  0.8086 -2.7265
 7465SOL    HW229446   7.166  10.651   8.913 -0.3771  0.0183 -0.9096
 7466SOL     OW29447   3.342   8.482   2.078 -0.3467  0.5742  0.3558
 7466SOL    HW129448   3.415   8.494   2.139  0.0784  0.8864 -0.2080
 7466SOL    HW229449   3.382   8.446   1.999 -1.2767 -2.7027  1.2170
 7467SOL     OW29450  11.625   5.383   3.859 -0.1140  0.0437  0.0933
 7467SOL    HW129451  11.531   5.393   3.872 -0.0531 -0.3114  0.8581
 7467SOL    HW229452  11.634   5.319   3.789 -0.4358 -0.3764  0.4382
 7468SOL     OW29453   7.826  11.696   2.006  0.0821 -0.4986 -0.3751
 7468SOL    HW129454   7.771  11.622   2.032 -1.5624  0.0637 -2.0570
 7468SOL    HW229455   7.764  11.764   1.979  1.5263  1.6294  1.3308
 7469SOL     OW29456   4.053  11.705   6.573 -0.1740  0.2572  0.6508
 7469SOL    HW129457   4.003  11.633   6.613  0.4832 -1.1150 -0.8942
 7469SOL    HW229458   3.997  11.736   6.502  0.5736 -0.3876 -0.2364
 7470SOL     OW29459   6.780   2.938   3.419  0.8646  0.1015 -0.4783
 7470SOL    HW129460   6.834   2.981   3.352 -1.4015  1.8809 -1.2980
 7470SOL    HW229461   6.702   2.992   3.425  0.3097 -0.8319  2.6145
 7471SOL     OW29462   8.327   3.822   5.105 -0.4954 -0.0089  0.2208
 7471SOL    HW129463   8.352   3.751   5.164 -0.6112 -1.7254 -1.6862
 7471SOL    HW229464   8.395   3.888   5.117  1.2986 -1.7211 -0.0316
 7472SOL     OW29465   7.950   7.976  12.460 -0.3404 -0.2707  0.1537
 7472SOL    HW129466   7.914   8.055  12.500  0.6192  0.6302 -0.6986
 7472SOL    HW229467   7.916   7.904  12.513 -0.8602  0.7404  1.2260
 7473SOL     OW29468   3.843   1.324  11.765 -0.0615 -0.3614  0.3668
 7473SOL    HW129469   3.765   1.273  11.784 -0.3443 -0.3301 -0.6301
 7473SOL    HW229470   3.815   1.387  11.699  0.2548  1.1609  1.6147
 7474SOL     OW29471   6.020   3.078  11.114 -0.2683 -0.3746  0.0988
 7474SOL    HW129472   6.069   3.155  11.143 -1.5467  0.0627  1.1802
 7474SOL    HW229473   6.056   3.058  11.028  2.4754 -0.6727  1.1954
 7475SOL     OW29474   6.198   2.396   0.516  0.3768 -0.0220  0.5489
 7475SOL    HW129475   6.172   2.487   0.531 -0.8930 -0.2894  0.1188
 7475SOL    HW229476   6.220   2.393   0.423  1.1530  0.0059  0.7275
 7476SOL     OW29477   6.481   1.862   8.516 -0.0421  0.3458  0.5913
 7476SOL    HW129478   6.470   1.789   8.456  0.1794  0.2740  0.6367
 7476SOL    HW229479   6.513   1.822   8.597 -0.2372  0.4535  0.7221
 7477SOL     OW29480  11.749   5.409   4.946  0.5700 -0.4907 -0.5461
 7477SOL    HW129481  11.708   5.344   4.890 -0.1601  0.0348 -0.6301
 7477SOL    HW229482  11.738   5.492   4.900 -2.7641  0.4808  1.6546
 7478SOL     OW29483   9.216  10.001   7.150  0.3426 -0.6218 -0.0015
 7478SOL    HW129484   9.298  10.050   7.160  0.4620 -0.9738  0.8842
 7478SOL    HW229485   9.244   9.909   7.150 -0.0056 -0.7259 -0.2076
 7479SOL     OW29486   4.480  10.726   1.590  0.1394 -0.0444 -0.4142
 7479SOL    HW129487   4.557  10.745   1.536  1.6788 -0.2996  1.5319
 7479SOL    HW229488   4.479  10.796   1.655 -1.0784 -0.2630 -0.1742
 7480SOL     OW29489   0.503  10.407   2.680  0.0532 -0.7759 -0.6367
 7480SOL    HW129490   0.554  10.473   2.632  1.6837 -1.2288  0.3947
 7480SOL    HW229491   0.474  10.346   2.612  0.2622 -0.1042 -1.3453
 7481SOL     OW29492   4.423   2.437   9.525  0.1055  0.4545 -0.0179
 7481SOL    HW129493   4.426   2.435   9.430  1.1579  1.5215 -0.0350
 7481SOL    HW229494   4.397   2.349   9.551  0.3804 -0.0069 -1.2740
 7482SOL     OW29495   0.338   4.702  11.245 -0.8165  0.2886  0.3673
 7482SOL    HW129496   0.341   4.701  11.340 -0.0058  1.9979  0.4130
 7482SOL    HW229497   0.281   4.776  11.223 -0.4889  0.3103 -0.4615
 7483SOL     OW29498   6.752   3.621   4.310 -0.0340  0.3046 -0.2106
 7483SOL    HW129499   6.779   3.670   4.387 -2.2686  1.9373 -0.3718
 7483SOL    HW229500   6.679   3.567   4.340 -0.4049  0.3574 -0.9895
 7484SOL     OW29501  10.350   1.923   7.799 -0.3989 -0.1345 -0.3199
 7484SOL    HW129502  10.341   1.940   7.705  0.7060  0.0043 -0.4168
 7484SOL    HW229503  10.327   2.006   7.840 -0.8683 -0.1896 -0.4656
 7485SOL     OW29504   7.096  12.190   6.633  0.0811  0.0548 -0.4765
 7485SOL    HW129505   7.064  12.171   6.544 -1.9373  0.4092  0.1156
 7485SOL    HW229506   7.028  12.153   6.690  0.9924  0.4710  0.9090
 7486SOL     OW29507   3.333  12.025   0.152 -0.3390 -0.0550 -0.3655
 7486SOL    HW129508   3.321  12.096   0.215 -0.2657  0.2419 -0.6812
 7486SOL    HW229509   3.382  12.065   0.081 -1.5187 -0.0527 -1.1986
 7487SOL     OW29510   8.034   5.955   8.285  0.0955 -0.5056  0.2569
 7487SOL    HW129511   8.059   5.947   8.193 -1.7121 -1.6853 -0.1712
 7487SOL    HW229512   8.101   6.013   8.322  1.2429 -0.5217 -1.6256
 7488SOL     OW29513   6.673   4.022   1.988  0.4102  0.1698  0.0122
 7488SOL    HW129514   6.583   4.053   1.987  0.0616 -0.7649  0.8582
 7488SOL    HW229515   6.685   3.985   2.076  1.7253  0.5794  0.0348
 7489SOL     OW29516  11.475  12.382   9.866  0.6850 -0.3201  0.4196
 7489SOL    HW129517  11.417  12.310   9.892  0.3242  0.0371  0.6278
 7489SOL    HW229518  11.462  12.390   9.771  0.6991 -0.5027  0.4017
 7490SOL     OW29519   8.397   6.032   8.264  0.0362 -1.1810 -0.8398
 7490SOL    HW129520   8.430   5.946   8.291  0.7333 -0.6112  0.2239
 7490SOL    HW229521   8.418   6.038   8.171  2.2396 -1.1990 -0.4027
 7491SOL     OW29522   4.370   9.670   7.133  0.1558 -0.7553  0.2380
 7491SOL    HW129523   4.380   9.708   7.046  0.2560 -0.1415  0.5146
 7491SOL    HW229524   4.275   9.670   7.148  0.1937  0.0143  0.5089
 7492SOL     OW29525   3.435  10.501  10.251 -0.0564 -0.2570 -0.1170
 7492SOL    HW129526   3.487  10.425  10.278  0.1988  0.3959  1.3019
 7492SOL    HW229527   3.378  10.519  10.325 -2.0930 -0.7106 -1.4889
 7493SOL     OW29528  11.295  11.982   4.074 -0.5274  0.0342 -0.7031
 7493SOL    HW129529  11.377  11.951   4.112  0.4153  0.7139 -2.0873
 7493SOL    HW229530  11.321  12.056   4.019 -2.1647  0.6600 -0.6809
 7494SOL     OW29531   0.748   0.924   6.650  0.1479  0.0320  0.7750
 7494SOL    HW129532   0.751   0.838   6.692 -1.2575 -1.1946 -1.4062
 7494SOL    HW229533   0.820   0.921   6.587 -0.1124  0.3038  0.4646
 7495SOL     OW29534   3.474   3.191   8.211  0.1212 -0.7799 -0.2230
 7495SOL    HW129535   3.485   3.154   8.299  0.3735 -2.0348 -0.7562
 7495SOL    HW229536   3.408   3.259   8.222 -0.1391 -1.1782  0.8754
 7496SOL     OW29537   7.233   1.302   9.933 -0.4077  0.4989 -0.0434
 7496SOL    HW129538   7.189   1.378   9.971 -0.8001  0.3145 -0.1261
 7496SOL    HW229539   7.216   1.309   9.839 -1.5020 -0.3448  0.0602
 7497SOL     OW29540   5.758   4.990   3.962 -0.2974  1.0617  0.2235
 7497SOL    HW129541   5.714   5.055   4.018 -0.9492  1.1796 -0.4072
 7497SOL    HW229542   5.757   4.910   4.013 -2.8302  0.6041 -0.4205
 7498SOL     OW29543   2.572  10.030   1.127 -0.3105 -0.1829 -0.1571
 7498SOL    HW129544   2.495   9.976   1.106 -1.5708  1.1728  0.8201
 7498SOL    HW229545   2.642   9.966   1.142 -1.9624 -1.6667  1.8912
 7499SOL     OW29546   4.926   9.829  10.597 -0.5069 -0.1086 -0.2665
 7499SOL    HW129547   4.861   9.797  10.660 -0.8865  1.5277  0.2235
 7499SOL    HW229548   4.961   9.909  10.637  0.3297  0.1515 -1.4604
 7500SOL     OW29549   3.421   9.076   6.338  0.1866  0.0312  0.0611
 7500SOL    HW129550   3.347   9.071   6.278  0.4829  2.6625 -0.6550
 7500SOL    HW229551   3.496   9.047   6.286  0.0912  0.1241 -0.1295
 7501SOL     OW29552   5.038   8.019   4.188 -0.1150 -0.3866 -0.1710
 7501SOL    HW129553   5.069   8.014   4.278  0.7367 -2.2838 -0.5199
 7501SOL    HW229554   4.965   7.957   4.184 -0.3351 -0.1020 -0.7148
 7502SOL     OW29555   0.052   0.607   1.597  0.2496 -0.1479  0.4704
 7502SOL    HW129556   0.012   0.661   1.665 -0.4585 -1.3919  1.0721
 7502SOL    HW229557  -0.021   0.564   1.554  0.6447  0.9676 -1.4456
 7503SOL     OW29558   2.833   5.337   6.340 -0.2778 -0.5019  0.4475
 7503SOL    HW129559   2.818   5.267   6.276  0.6066  0.1077 -0.4606
 7503SOL    HW229560   2.777   5.408   6.310  2.8746  1.1824 -1.9868
 7504SOL     OW29561  11.702   7.615   3.111  0.0694  0.0407  0.3393
 7504SOL    HW129562  11.722   7.524   3.134 -0.9808 -0.1552  0.5446
 7504SOL    HW229563  11.778   7.665   3.140  0.3909 -0.6921  0.7860
 7505SOL     OW29564   6.204   4.184   4.708  0.6429  0.5438  0.2754
 7505SOL    HW129565   6.219   4.130   4.786  1.4636 -1.4914 -1.1856
 7505SOL    HW229566   6.277   4.245   4.707  1.1722 -0.0693  0.5966
 7506SOL     OW29567   3.370   1.153   3.451 -0.2544 -0.0697  0.0749
 7506SOL    HW129568   3.338   1.113   3.370  0.7028  0.3290 -0.5150
 7506SOL    HW229569   3.462   1.173   3.434  0.2548 -0.9379  1.6329
 7507SOL     OW29570   3.973  10.731   0.194 -0.4414  0.2260  0.4368
 7507SOL    HW129571   4.010  10.715   0.107  0.5352  0.5496  0.7775
 7507SOL    HW229572   3.999  10.821   0.214  0.3239 -0.2166  1.5205
 7508SOL     OW29573  10.590   1.151   7.645  0.0038  0.6106 -0.4974
 7508SOL    HW129574  10.631   1.068   7.668  0.6224  1.0172 -0.0931
 7508SOL    HW229575  10.560   1.187   7.729  0.0313  0.9387 -0.6258
 7509SOL     OW29576   1.432   3.154  11.053 -0.6235  0.1345 -0.4564
 7509SOL    HW129577   1.482   3.212  11.111 -0.6185  1.0674 -1.3650
 7509SOL    HW229578   1.499   3.107  11.003 -0.6333 -0.4235  0.0444
 7510SOL     OW29579  10.318  12.448   5.233  0.5736 -0.3645 -0.3719
 7510SOL    HW129580  10.241  12.505   5.238  0.6152 -0.2808 -0.6574
 7510SOL    HW229581  10.363  12.476   5.154  0.8484 -0.4782 -0.2559
 7511SOL     OW29582   7.419   7.945   3.306  0.4036  0.4136  0.2770
 7511SOL    HW129583   7.415   7.967   3.213  1.3061  1.2929  0.4379
 7511SOL    HW229584   7.503   7.901   3.317 -0.7498 -1.9558  0.2348
 7512SOL     OW29585  11.632   6.551   8.824  0.6855  0.0924  0.0363
 7512SOL    HW129586  11.602   6.466   8.855 -0.0979 -0.0733 -1.1228
 7512SOL    HW229587  11.552   6.595   8.795  1.2042  0.8352 -0.2945
 7513SOL     OW29588   3.167  10.190   7.170 -0.6000 -0.1036  0.1185
 7513SOL    HW129589   3.247  10.242   7.159 -0.4185 -0.5087 -0.5095
 7513SOL    HW229590   3.096  10.254   7.159 -0.3736  0.3802  1.2973
 7514SOL     OW29591   3.424   1.843   3.552  0.0834 -0.0452  0.2902
 7514SOL    HW129592   3.448   1.888   3.471 -2.2795 -1.4940 -1.3504
 7514SOL    HW229593   3.365   1.773   3.523 -0.4164 -0.9507  3.2311
 7515SOL     OW29594  12.489  10.720   8.826 -0.6014 -0.0758 -0.1650
 7515SOL    HW129595  12.573  10.680   8.802  1.2289  2.8455  0.8110
 7515SOL    HW229596  12.454  10.663   8.894  1.1010 -0.8424  0.1398
 7516SOL     OW29597  11.716   0.470   7.774  0.3027 -0.0359 -0.3074
 7516SOL    HW129598  11.648   0.410   7.746 -0.1963  0.3593  0.0379
 7516SOL    HW229599  11.678   0.517   7.849  0.0079  1.9432 -1.6148
 7517SOL     OW29600   3.891   7.857  11.193 -0.4735 -0.5224  0.4469
 7517SOL    HW129601   3.932   7.875  11.278 -0.8941 -0.4073  0.6306
 7517SOL    HW229602   3.819   7.920  11.188 -0.6178 -0.7127  0.1268
 7518SOL     OW29603   2.948   1.778   8.679  0.0489  0.0346  0.0620
 7518SOL    HW129604   2.897   1.755   8.756  1.1165  2.0116  1.4399
 7518SOL    HW229605   2.982   1.695   8.646 -0.1878 -0.8136  1.8787
 7519SOL     OW29606   4.918   6.013   4.950 -0.7217  0.0112  0.0610
 7519SOL    HW129607   4.897   6.061   4.870  0.5532 -1.7252 -1.4148
 7519SOL    HW229608   5.009   6.035   4.968 -0.9972  0.3698  1.0357
 7520SOL     OW29609   0.437   4.037  11.845 -0.0076 -0.3302 -0.1956
 7520SOL    HW129610   0.343   4.056  11.845  0.2094  0.7892 -0.4973
 7520SOL    HW229611   0.479   4.122  11.861  0.9862 -0.6559 -0.9666
 7521SOL     OW29612   2.388   0.595   3.725  0.3521 -0.0705 -0.3670
 7521SOL    HW129613   2.301   0.574   3.760  0.7785 -0.4638  0.4790
 7521SOL    HW229614   2.445   0.526   3.759  1.3081  1.0753  0.4236
 7522SOL     OW29615   9.989   5.968   0.287 -0.2132  0.0057  0.3712
 7522SOL    HW129616  10.017   5.898   0.228  1.6846  2.1932 -1.5165
 7522SOL    HW229617   9.893   5.962   0.288 -0.1943 -1.2597 -1.4594
 7523SOL     OW29618   0.490   4.122   5.285  0.1153  0.3218  0.2525
 7523SOL    HW129619   0.422   4.161   5.340  0.6890  0.4987  0.8435
 7523SOL    HW229620   0.573   4.153   5.323  0.5937 -1.3027  0.6210
 7524SOL     OW29621   6.942   0.656   5.724 -0.2191  0.1818 -0.4152
 7524SOL    HW129622   7.000   0.732   5.719  0.1175 -0.0858 -0.6365
 7524SOL    HW229623   6.997   0.583   5.696 -1.1730  0.1989 -2.4719
 7525SOL     OW29624   6.777   1.031   1.838 -0.0433 -0.4173  0.5327
 7525SOL    HW129625   6.853   1.084   1.863  0.0663 -0.6499  0.6936
 7525SOL    HW229626   6.715   1.094   1.802 -0.0499 -0.1290  1.0336
 7526SOL     OW29627   8.102  12.193   1.185 -0.0920  0.4600  0.3571
 7526SOL    HW129628   8.184  12.184   1.233  0.5968 -1.7958 -1.0649
 7526SOL    HW229629   8.102  12.284   1.155  0.2106  1.4735  3.1245
 7527SOL     OW29630   0.646   8.865  11.249  0.4800  0.0184 -0.5426
 7527SOL    HW129631   0.693   8.941  11.214  0.0806  0.2115 -0.6762
 7527SOL    HW229632   0.581   8.845  11.182 -0.6463  0.7172  0.2972
 7528SOL     OW29633   9.729   7.278  12.071 -0.2960 -0.0260  0.2505
 7528SOL    HW129634   9.810   7.324  12.051 -1.0894  0.9076 -0.9601
 7528SOL    HW229635   9.752   7.218  12.142  1.4895  0.0426 -0.2404
 7529SOL     OW29636  11.386  10.069   3.661  0.2994 -0.7085  0.0577
 7529SOL    HW129637  11.296  10.054   3.691 -0.0685 -0.8385 -1.0589
 7529SOL    HW229638  11.398  10.164   3.665  0.9483 -0.8371  2.4607
 7530SOL     OW29639   2.927   5.097   9.066  0.1568  0.3842  0.7972
 7530SOL    HW129640   3.006   5.150   9.067  0.4487 -0.0293  0.3537
 7530SOL    HW229641   2.894   5.100   9.155  1.9726 -1.3369  1.6124
 7531SOL     OW29642   1.854   7.966   3.645 -0.9152 -0.0335 -0.8693
 7531SOL    HW129643   1.940   8.007   3.634 -1.4245  0.8376 -1.7559
 7531SOL    HW229644   1.835   7.927   3.560  1.9647 -7.2932  1.0183
 7532SOL     OW29645  10.891   0.492   3.142 -0.1929  0.2864 -0.5768
 7532SOL    HW129646  10.837   0.434   3.196  1.7863 -1.3496 -0.2625
 7532SOL    HW229647  10.928   0.555   3.204 -0.3786  0.3420 -0.5216
 7533SOL     OW29648  12.337  12.198  10.812 -0.1847 -0.3949 -0.3430
 7533SOL    HW129649  12.383  12.211  10.728  0.6791 -0.4303  0.1130
 7533SOL    HW229650  12.395  12.141  10.862 -0.6514 -0.2891  0.3212
 7534SOL     OW29651   4.575   0.075   0.750 -0.0359  0.1049  0.4727
 7534SOL    HW129652   4.588   0.145   0.813  0.9310  0.9480 -0.6291
 7534SOL    HW229653   4.498   0.101   0.700  1.6615  1.6583 -1.5062
 7535SOL     OW29654   9.731   2.425   1.284  0.0929 -0.3145  1.1275
 7535SOL    HW129655   9.757   2.399   1.373  2.1249  1.4249  1.1068
 7535SOL    HW229656   9.723   2.520   1.288  1.2741 -0.0835 -0.8010
 7536SOL     OW29657   0.669   3.126   9.357  0.0132 -0.3453  0.1358
 7536SOL    HW129658   0.590   3.177   9.367  1.1873  1.3756  1.0858
 7536SOL    HW229659   0.642   3.050   9.304 -1.8464  1.1002 -1.1307
 7537SOL     OW29660   6.589   4.086   8.318  0.1709 -0.0477 -0.1562
 7537SOL    HW129661   6.682   4.061   8.320 -0.0020 -0.6312  1.2603
 7537SOL    HW229662   6.586   4.168   8.368 -0.0773  0.0283 -0.2940
 7538SOL     OW29663   7.437   9.344   7.368  0.3990  0.0430  0.3881
 7538SOL    HW129664   7.445   9.315   7.277 -0.0482 -0.1944  0.4181
 7538SOL    HW229665   7.526   9.359   7.397  0.5492  0.0566 -0.0718
 7539SOL     OW29666   5.321  10.474   7.189  0.2581 -0.2792 -0.1824
 7539SOL    HW129667   5.332  10.531   7.265  1.3050 -0.5319 -0.1284
 7539SOL    HW229668   5.393  10.411   7.195  0.5122 -0.1592 -1.5130
 7540SOL     OW29669   6.213   1.446  12.375 -0.7286  0.3667 -0.6789
 7540SOL    HW129670   6.125   1.480  12.392  0.4511  3.7579 -0.7093
 7540SOL    HW229671   6.253   1.439  12.461 -0.2749  1.0804 -0.8307
 7541SOL     OW29672   6.705  12.245  11.409 -0.0191 -0.0570 -0.2408
 7541SOL    HW129673   6.724  12.248  11.315  1.2888  1.2291  0.0267
 7541SOL    HW229674   6.775  12.191  11.445  1.1880  1.7721  0.3096
 7542SOL     OW29675   2.465   1.110   9.524  0.1539 -0.2832 -0.7619
 7542SOL    HW129676   2.495   1.093   9.435 -1.3553  0.7511 -1.5089
 7542SOL    HW229677   2.493   1.200   9.541  2.1116 -1.0749  0.5813
 7543SOL     OW29678   6.579   3.642   8.536  0.7227 -0.7634  0.2335
 7543SOL    HW129679   6.543   3.731   8.541 -0.5474 -1.2829  0.6280
 7543SOL    HW229680   6.666   3.654   8.498  1.1439  0.7956  1.5895
 7544SOL     OW29681   1.892   1.488   6.517 -0.0481 -0.5668 -0.1281
 7544SOL    HW129682   1.922   1.531   6.597  2.8298  1.0238 -1.8919
 7544SOL    HW229683   1.817   1.540   6.489 -0.1163 -0.1979  0.7148
 7545SOL     OW29684  12.286  11.004   9.149  0.1604  0.1406  0.5518
 7545SOL    HW129685  12.284  11.068   9.220  0.0018 -0.6422  1.2582
 7545SOL    HW229686  12.198  10.966   9.149  0.2148  0.0125  0.0466
 7546SOL     OW29687   4.048   9.611   8.165 -0.0307  0.0719 -0.1833
 7546SOL    HW129688   4.009   9.529   8.195  0.2410  0.1063  0.2742
 7546SOL    HW229689   4.008   9.678   8.220 -0.0389  0.2137 -0.3618
 7547SOL     OW29690   3.012   2.903   4.174  0.3450  0.3325  0.0179
 7547SOL    HW129691   3.034   2.853   4.096 -0.2075 -0.6571  0.4823
 7547SOL    HW229692   3.029   2.994   4.150 -1.2582  0.2196 -1.7896
 7548SOL     OW29693   5.216   7.402  10.318 -0.4991 -0.1363  0.3735
 7548SOL    HW129694   5.217   7.389  10.412  0.5208 -0.9780  0.2693
 7548SOL    HW229695   5.301   7.442  10.298  0.1061 -1.6991 -0.3725
 7549SOL     OW29696   7.897  10.609   1.098  0.0861  0.9774 -0.4616
 7549SOL    HW129697   7.817  10.654   1.126  0.2196  0.5938  0.5733
 7549SOL    HW229698   7.958  10.620   1.171  0.0316 -1.0810 -0.0394
 7550SOL     OW29699   1.228   7.184   2.243 -0.5946  0.2811  0.7252
 7550SOL    HW129700   1.284   7.116   2.280  0.0648  1.0739  1.2078
 7550SOL    HW229701   1.247   7.262   2.295 -0.3342  1.1865 -0.6711
 7551SOL     OW29702   7.395  11.515   3.246 -0.0806 -0.5468  0.0481
 7551SOL    HW129703   7.482  11.499   3.208  0.6603 -0.9364  1.8373
 7551SOL    HW229704   7.371  11.602   3.212  1.6565  0.2216  0.6515
 7552SOL     OW29705  12.320   0.116   5.545 -0.1242  0.0932 -0.6401
 7552SOL    HW129706  12.412   0.139   5.559 -0.4371  1.0041  0.0768
 7552SOL    HW229707  12.298   0.157   5.462 -0.1195  0.6562 -0.3691
 7553SOL     OW29708  11.545   0.171   8.985  0.3665 -0.4430  0.2733
 7553SOL    HW129709  11.509   0.140   8.902  0.0911  1.4568 -0.3801
 7553SOL    HW229710  11.639   0.154   8.979  0.1741 -1.4751  0.1186
 7554SOL     OW29711   5.200   1.842   1.273 -0.4439 -0.1421  0.3580
 7554SOL    HW129712   5.202   1.749   1.296  1.2257 -0.6578 -1.6043
 7554SOL    HW229713   5.165   1.844   1.183  2.3336  0.7699 -0.7945
 7555SOL     OW29714   4.682   0.566  11.457 -0.4856 -0.1317  0.3886
 7555SOL    HW129715   4.690   0.473  11.437 -1.2327  0.2325 -1.9207
 7555SOL    HW229716   4.614   0.570  11.525 -0.6348 -1.2645  0.3227
 7556SOL     OW29717   0.669   3.859   6.055 -0.0773  0.2561 -0.2044
 7556SOL    HW129718   0.746   3.909   6.082  0.7443 -1.4073  0.6609
 7556SOL    HW229719   0.635   3.821   6.136 -2.0942  1.2791 -0.5062
 7557SOL     OW29720   3.881   0.099   8.592 -0.7946 -0.5608 -0.2336
 7557SOL    HW129721   3.901   0.162   8.523 -2.2475 -0.8340 -0.9319
 7557SOL    HW229722   3.786   0.085   8.586 -0.7957 -1.3709  1.1504
 7558SOL     OW29723  10.798  10.660   0.235 -0.1528  0.0277  0.5651
 7558SOL    HW129724  10.774  10.752   0.238  3.0592  1.2146 -2.4753
 7558SOL    HW229725  10.874  10.653   0.293 -1.1988 -1.0991  1.8534
 7559SOL     OW29726  10.551   2.455  12.155  0.8633 -0.1666 -0.5270
 7559SOL    HW129727  10.596   2.464  12.239  1.4300 -1.8484 -0.6088
 7559SOL    HW229728  10.468   2.503  12.167  0.0144 -1.9978  1.7110
 7560SOL     OW29729   4.897   1.473   3.708  0.1180  0.1139  0.4244
 7560SOL    HW129730   4.932   1.555   3.743 -1.8805  1.3790 -0.3719
 7560SOL    HW229731   4.818   1.499   3.662  0.9711 -1.8891 -2.3953
 7561SOL     OW29732   4.328   0.741   4.764 -0.3244  0.1231  0.5138
 7561SOL    HW129733   4.409   0.709   4.804  0.1400 -1.0604 -1.2745
 7561SOL    HW229734   4.264   0.741   4.835  0.5694 -1.4898  1.3599
 7562SOL     OW29735   0.789   7.613   7.086 -0.7385 -0.1547  0.4990
 7562SOL    HW129736   0.858   7.561   7.047 -2.1598 -1.1142 -0.8248
 7562SOL    HW229737   0.785   7.584   7.177 -0.2982 -1.0324  0.2411
 7563SOL     OW29738   4.831   1.675  11.921 -0.0340 -0.3678 -0.5427
 7563SOL    HW129739   4.890   1.655  11.993  0.0875  0.1687 -0.4842
 7563SOL    HW229740   4.881   1.656  11.842 -0.4127 -1.6396 -0.4940
 7564SOL     OW29741   8.789   2.405   4.214 -0.0209 -0.7503 -0.7993
 7564SOL    HW129742   8.855   2.395   4.145  1.3010 -0.5804  0.3902
 7564SOL    HW229743   8.771   2.499   4.217  0.9891 -0.5607 -0.0002
 7565SOL     OW29744  10.971   9.698  12.529  0.1619 -0.4712  0.3999
 7565SOL    HW129745  10.962   9.614  12.575  2.3586 -0.1753  1.4525
 7565SOL    HW229746  10.993   9.761  12.597  1.2871  0.4250 -0.7468
 7566SOL     OW29747   4.644   8.272   5.752  0.4364 -0.1388 -0.2506
 7566SOL    HW129748   4.725   8.270   5.802  0.9672  1.3584 -0.9780
 7566SOL    HW229749   4.665   8.228   5.670  0.2200 -0.6176 -0.0512
 7567SOL     OW29750   2.930   0.265   3.663  0.5124  0.8054  0.1883
 7567SOL    HW129751   2.910   0.194   3.724 -1.5541  2.1105  1.1594
 7567SOL    HW229752   3.002   0.312   3.704  0.6276  0.3858  0.4836
 7568SOL     OW29753   7.653   8.104   4.034 -0.0458 -0.3243  0.3652
 7568SOL    HW129754   7.651   8.066   3.947  1.3962 -0.6318  0.4461
 7568SOL    HW229755   7.743   8.092   4.064 -0.4908 -0.1585  1.8693
 7569SOL     OW29756   3.239   5.367   8.591 -0.1363 -0.3927 -0.2730
 7569SOL    HW129757   3.201   5.315   8.661 -0.7821  0.2449 -0.1349
 7569SOL    HW229758   3.210   5.323   8.511 -0.4856 -0.3724 -0.1580
 7570SOL     OW29759   9.924   3.123   1.143 -0.2989  0.0225 -0.5344
 7570SOL    HW129760   9.835   3.135   1.174  0.2678  2.0611  0.4781
 7570SOL    HW229761   9.931   3.180   1.066  0.4131  0.7281  0.0348
 7571SOL     OW29762   2.316   8.496   3.351 -0.5305 -0.3936  0.8398
 7571SOL    HW129763   2.369   8.487   3.271 -0.8089  1.8646  0.3327
 7571SOL    HW229764   2.379   8.520   3.419 -0.7275  1.6055  0.3852
 7572SOL     OW29765   8.587  11.027   7.833  0.0623  0.3751 -0.7684
 7572SOL    HW129766   8.570  11.108   7.880  1.7008 -0.7774  2.0920
 7572SOL    HW229767   8.523  10.965   7.868  1.6798 -0.6521  0.5208
 7573SOL     OW29768   7.833   4.698   6.434 -0.1162 -0.0046  0.6022
 7573SOL    HW129769   7.881   4.663   6.359  0.4636 -1.0379  1.4432
 7573SOL    HW229770   7.841   4.793   6.424 -0.2495 -0.1112 -0.7603
 7574SOL     OW29771  11.590  10.814   9.819  1.0997  0.2776 -0.1138
 7574SOL    HW129772  11.632  10.749   9.875  0.6086  1.4268  1.6942
 7574SOL    HW229773  11.500  10.820   9.853  0.3582  0.0629 -1.9205
 7575SOL     OW29774   4.221   8.950  11.524 -0.0716  0.9498 -0.5151
 7575SOL    HW129775   4.226   9.003  11.603 -0.1288 -1.9068  1.5822
 7575SOL    HW229776   4.142   8.980  11.479 -0.8810  1.6854  1.3124
 7576SOL     OW29777   5.928   8.367   8.776  0.3253  0.5081 -0.1577
 7576SOL    HW129778   5.871   8.311   8.829 -1.2721 -1.4689 -3.5826
 7576SOL    HW229779   5.872   8.399   8.706  2.8079  0.7560 -2.1728
 7577SOL     OW29780   3.214   6.516   5.381  0.1687  0.0649 -0.4320
 7577SOL    HW129781   3.244   6.481   5.465 -0.1683 -1.1372 -0.7871
 7577SOL    HW229782   3.207   6.610   5.395  0.3575 -0.0881  0.8147
 7578SOL     OW29783   7.358   1.188   7.591  0.2343 -0.2694 -0.0466
 7578SOL    HW129784   7.385   1.154   7.506  0.2791  0.0815 -0.1761
 7578SOL    HW229785   7.402   1.273   7.598 -1.3533  0.6271 -0.5388
 7579SOL     OW29786   5.582   9.292   8.122 -0.6925  0.2694 -0.0003
 7579SOL    HW129787   5.602   9.366   8.179  1.8569  0.0196 -0.4190
 7579SOL    HW229788   5.601   9.325   8.033 -1.8869 -0.1729 -0.4313
 7580SOL     OW29789   4.685   8.552   9.580  0.1704  0.7760 -0.1977
 7580SOL    HW129790   4.641   8.631   9.549  0.0713  1.5326  1.7220
 7580SOL    HW229791   4.737   8.581   9.655 -0.3556 -1.0656  0.9535
 7581SOL     OW29792   1.757   1.358  12.490 -0.3042  0.8063 -0.0990
 7581SOL    HW129793   1.674   1.311  12.497 -0.1271  0.4177 -0.6369
 7581SOL    HW229794   1.779   1.379  12.581 -0.4408 -0.0426  0.1360
 7582SOL     OW29795  11.275   3.876   4.333  0.1388 -0.1678  0.4505
 7582SOL    HW129796  11.342   3.932   4.294 -1.3380  0.5741 -1.1816
 7582SOL    HW229797  11.296   3.788   4.301  0.2233  0.0916 -0.2313
 7583SOL     OW29798  11.846   1.195   6.773 -0.2571 -0.1840  1.0301
 7583SOL    HW129799  11.936   1.182   6.801 -0.3369 -0.0293  1.3593
 7583SOL    HW229800  11.852   1.205   6.678 -0.0534 -1.2278  0.9294
 7584SOL     OW29801   1.587   2.502   7.146  0.6901 -0.2628 -0.2756
 7584SOL    HW129802   1.553   2.574   7.199  1.2760 -0.3745  0.2753
 7584SOL    HW229803   1.607   2.433   7.210  1.3675 -0.4156 -0.6385
 7585SOL     OW29804   6.937   7.106   8.493  0.0952  0.4471  0.0832
 7585SOL    HW129805   6.959   7.021   8.454 -0.1627 -0.1589  1.2151
 7585SOL    HW229806   7.013   7.161   8.476  0.3569 -0.0726 -0.4590
 7586SOL     OW29807   2.257   7.046  12.194  0.1422  0.0416  0.1250
 7586SOL    HW129808   2.288   7.025  12.282  1.3178 -0.4052 -0.3645
 7586SOL    HW229809   2.291   7.134  12.177 -0.3849  0.2716  0.2407
 7587SOL     OW29810   8.866   5.101   1.955 -0.5377 -0.9323 -0.3150
 7587SOL    HW129811   8.898   5.149   1.878 -1.3460 -0.2436 -0.2423
 7587SOL    HW229812   8.940   5.046   1.982  0.9412  1.2745  0.4192
 7588SOL     OW29813   8.229  11.268   7.617  0.2181 -0.3914 -0.8597
 7588SOL    HW129814   8.275  11.185   7.603  0.9056  0.0365 -1.1984
 7588SOL    HW229815   8.299  11.334   7.617 -0.1358  0.0419  0.8534
 7589SOL     OW29816  11.766   6.478   9.207  0.3783 -0.0959 -0.2813
 7589SOL    HW129817  11.813   6.483   9.124 -0.2065 -1.6061 -0.7358
 7589SOL    HW229818  11.764   6.568   9.239  0.6381  0.5137 -1.8912
 7590SOL     OW29819   0.083   3.085   4.355 -0.0834  0.1656  0.1625
 7590SOL    HW129820   0.095   3.045   4.269 -1.5766  1.5350 -0.7517
 7590SOL    HW229821   0.169   3.080   4.396  0.4509 -1.3554 -1.0269
 7591SOL     OW29822   4.151   2.584   9.333  0.7708  0.2704 -0.1491
 7591SOL    HW129823   4.091   2.659   9.330  2.3086  1.5589  0.1315
 7591SOL    HW229824   4.099   2.514   9.373 -1.5092  0.3687 -2.6453
 7592SOL     OW29825   3.269  10.486   7.206 -0.0542 -0.0933  0.2512
 7592SOL    HW129826   3.279  10.543   7.282  1.3214  1.6053 -1.1263
 7592SOL    HW229827   3.341  10.423   7.214 -0.0838 -0.0996  0.4935
 7593SOL     OW29828   9.343   5.268   9.127  0.0505  0.1132  0.0559
 7593SOL    HW129829   9.398   5.302   9.056  1.0525 -0.8271  0.3632
 7593SOL    HW229830   9.399   5.268   9.204 -0.5584 -0.3003  0.5115
 7594SOL     OW29831   5.299  11.630   3.876  0.5836  0.4888  0.3150
 7594SOL    HW129832   5.378  11.600   3.832 -0.9864 -0.8446 -1.8472
 7594SOL    HW229833   5.241  11.656   3.804 -2.2519 -2.0362  1.4718
 7595SOL     OW29834   9.326  10.566  11.332  0.0468  0.1370  0.3011
 7595SOL    HW129835   9.233  10.574  11.355 -0.2541 -0.3533 -0.6683
 7595SOL    HW229836   9.368  10.640  11.374 -0.9303  0.8376  0.0778
 7596SOL     OW29837   7.511   6.577   0.392 -0.5646  0.5813  0.2921
 7596SOL    HW129838   7.441   6.617   0.341 -1.1406 -1.3552 -0.5329
 7596SOL    HW229839   7.467   6.539   0.468 -0.2689  0.1396  0.2467
 7597SOL     OW29840   0.326   7.869   0.371 -0.5396  0.0047 -0.2254
 7597SOL    HW129841   0.306   7.878   0.278 -0.4959 -1.4766 -0.3986
 7597SOL    HW229842   0.264   7.804   0.403  0.1177 -0.2596  0.5405
 7598SOL     OW29843   3.058   4.266   3.743 -0.2772 -0.4308 -0.7222
 7598SOL    HW129844   3.099   4.191   3.787  0.2411 -1.1373 -2.3536
 7598SOL    HW229845   2.976   4.232   3.708 -1.4162  0.5058  0.8820
 7599SOL     OW29846  10.643   6.675   8.096  0.0210 -0.2527  0.6798
 7599SOL    HW129847  10.694   6.665   8.016 -0.1319 -1.4900  0.7110
 7599SOL    HW229848  10.706   6.663   8.167  0.1188  0.6370  0.7536
 7600SOL     OW29849  11.429   3.836  11.814 -0.1456  0.0817  0.0199
 7600SOL    HW129850  11.381   3.855  11.894  0.1322  0.2320  0.1537
 7600SOL    HW229851  11.439   3.740  11.814 -0.4754  0.0481 -0.0296
 7601SOL     OW29852   2.078   7.485   0.856 -0.3466  0.1817  0.2482
 7601SOL    HW129853   2.017   7.521   0.791 -0.4338 -0.6218 -0.1226
 7601SOL    HW229854   2.137   7.558   0.875 -3.5928  2.3534  3.4867
 7602SOL     OW29855   9.933   3.869   8.495  0.2532 -0.0231  0.2558
 7602SOL    HW129856   9.998   3.932   8.464  1.7293 -1.1447  0.9290
 7602SOL    HW229857   9.950   3.862   8.589 -0.5514 -0.6694  0.3629
 7603SOL     OW29858   5.608   8.070   8.375  0.1993  0.1858  0.0668
 7603SOL    HW129859   5.601   7.984   8.417 -1.0960  0.2521  0.0209
 7603SOL    HW229860   5.563   8.129   8.435  0.3067  0.6801 -0.3335
 7604SOL     OW29861   9.402  11.960   5.765 -0.5559  0.0610 -0.3487
 7604SOL    HW129862   9.325  11.942   5.819 -0.7836  0.1735 -0.6329
 7604SOL    HW229863   9.467  11.995   5.826 -1.1589  1.1559 -0.3248
 7605SOL     OW29864   4.346   0.680  10.501  0.6886 -0.0815  0.1512
 7605SOL    HW129865   4.312   0.662  10.414  0.2883 -0.7208  0.4400
 7605SOL    HW229866   4.441   0.688  10.489  0.4968  1.5369 -0.6235
 7606SOL     OW29867   5.347   6.802   0.709  0.2059 -0.4234 -0.1820
 7606SOL    HW129868   5.408   6.862   0.666  1.0566  0.3327  1.9633
 7606SOL    HW229869   5.396   6.720   0.717  0.2083 -0.4272 -0.2269
 7607SOL     OW29870   9.087   9.907   7.974  0.6177  0.1032  0.0863
 7607SOL    HW129871   9.016   9.944   8.026  0.6619 -1.4179  1.3131
 7607SOL    HW229872   9.166   9.950   8.008  0.4472  0.5319 -0.0657
 7608SOL     OW29873  11.564   9.201   7.861 -0.3367  1.0696 -0.0373
 7608SOL    HW129874  11.551   9.254   7.940  0.6401  0.6872  0.3991
 7608SOL    HW229875  11.638   9.145   7.883 -1.3149 -0.4662 -0.4827
 7609SOL     OW29876   0.485  12.440   6.841  0.0899  0.1317  0.6551
 7609SOL    HW129877   0.537  12.520   6.856  0.0974 -0.0051  1.4184
 7609SOL    HW229878   0.409  12.471   6.792 -0.0269  0.6641  1.1467
 7610SOL     OW29879   8.220   9.226  11.862 -0.8418 -0.1227  0.5286
 7610SOL    HW129880   8.149   9.284  11.836 -0.8908 -0.1598  0.5828
 7610SOL    HW229881   8.263   9.270  11.935  0.3203  0.7852 -0.6329
 7611SOL     OW29882   8.042   8.628   6.193  0.0941 -0.2797 -0.3288
 7611SOL    HW129883   8.060   8.598   6.281  0.7595  1.6523  0.2548
 7611SOL    HW229884   8.052   8.723   6.198 -2.0381  0.1053 -1.9778
 7612SOL     OW29885   5.075   3.981   0.513 -0.3186  0.1889 -0.0042
 7612SOL    HW129886   5.168   4.001   0.530 -0.9273  4.1499 -0.2734
 7612SOL    HW229887   5.072   3.958   0.420  0.4299 -0.6657  0.1631
 7613SOL     OW29888  10.400   2.254   7.334 -0.2965 -0.3477 -0.3414
 7613SOL    HW129889  10.467   2.259   7.403  0.3203  0.3858 -0.9786
 7613SOL    HW229890  10.445   2.212   7.260 -0.9576 -1.1310 -0.3120
 7614SOL     OW29891   2.454  11.529  11.046 -0.3000 -0.7881 -0.4425
 7614SOL    HW129892   2.505  11.448  11.045  1.2421  0.1510 -1.3515
 7614SOL    HW229893   2.482  11.576  10.968 -0.5504  0.9967  0.4891
 7615SOL     OW29894  11.222  12.072   3.204  0.3859 -0.0430 -0.0634
 7615SOL    HW129895  11.192  12.102   3.289 -1.2897  0.0383 -0.6406
 7615SOL    HW229896  11.163  11.999   3.182  0.5665  0.1522 -1.2776
 7616SOL     OW29897  11.563  11.995  11.830 -0.6844 -0.0698  0.3832
 7616SOL    HW129898  11.531  11.971  11.743 -0.1766 -1.9582  0.6581
 7616SOL    HW229899  11.658  12.003  11.820 -0.4448 -1.6859  0.9964
 7617SOL     OW29900   0.603  10.974   3.914 -0.9532  0.2260  0.2004
 7617SOL    HW129901   0.614  11.003   3.824  1.6680 -0.1028  0.3519
 7617SOL    HW229902   0.581  11.053   3.963 -1.4756  0.5604 -0.5550
 7618SOL     OW29903   6.679   0.108   2.484  0.1317 -0.0929 -0.0905
 7618SOL    HW129904   6.678   0.013   2.482  0.8277 -0.0856 -1.7990
 7618SOL    HW229905   6.610   0.134   2.423  0.2177  0.5166  0.0667
 7619SOL     OW29906   1.923   3.205  10.756 -0.1374  0.4198  0.3286
 7619SOL    HW129907   1.998   3.154  10.787  1.7466  2.9684  0.2812
 7619SOL    HW229908   1.914   3.180  10.664  0.6915  0.1176  0.3185
 7620SOL     OW29909   3.006   3.030   8.789  0.1655  0.1833  0.3935
 7620SOL    HW129910   3.101   3.037   8.783  0.0602  0.8415 -0.8595
 7620SOL    HW229911   2.976   3.118   8.812 -0.2378  0.4734 -1.1087
 7621SOL     OW29912   1.900  12.375   1.621 -0.0641  0.1956  0.2274
 7621SOL    HW129913   1.901  12.364   1.716  0.7902 -1.4828  0.0549
 7621SOL    HW229914   1.813  12.348   1.595  0.0234 -0.2904  0.4363
 7622SOL     OW29915   4.604   3.078   4.156  0.3629 -0.3407 -0.4463
 7622SOL    HW129916   4.582   3.008   4.094  0.8516 -0.3199 -0.6414
 7622SOL    HW229917   4.529   3.081   4.215 -1.0397  0.9494 -2.1772
 7623SOL     OW29918   0.496   4.143   2.013 -0.7253  0.3264 -0.2871
 7623SOL    HW129919   0.486   4.149   2.108 -1.9677 -0.0505 -0.3716
 7623SOL    HW229920   0.568   4.081   2.000 -0.4006  0.5503  0.4033
 7624SOL     OW29921   8.323   6.082   7.246  0.2405  0.1750 -0.8739
 7624SOL    HW129922   8.316   5.993   7.280 -1.0031  0.9026  0.9265
 7624SOL    HW229923   8.415   6.090   7.220  0.7847 -1.1374  0.4565
 7625SOL     OW29924  11.363   2.965   0.361  0.0904 -0.2046  0.2950
 7625SOL    HW129925  11.330   3.034   0.304 -1.1784  0.2250  1.4716
 7625SOL    HW229926  11.332   2.990   0.449 -0.7425 -2.4455  0.7145
 7626SOL     OW29927   3.104   8.415   0.239  0.3812  0.2510  0.0346
 7626SOL    HW129928   3.030   8.375   0.284  1.3924 -0.6290  0.9890
 7626SOL    HW229929   3.068   8.447   0.157 -1.4246  1.4252  1.2132
 7627SOL     OW29930   0.436   5.048   8.102 -0.0857  0.0761  0.8055
 7627SOL    HW129931   0.388   4.999   8.168  1.8177  0.1797  2.3548
 7627SOL    HW229932   0.413   5.139   8.118 -2.1226 -0.0741 -0.8343
 7628SOL     OW29933   6.273  10.118   8.940  0.3883 -0.1476 -0.8871
 7628SOL    HW129934   6.301  10.189   8.883  0.7150  0.7589  0.3711
 7628SOL    HW229935   6.319  10.133   9.022 -0.9597 -0.7559  0.0162
 7629SOL     OW29936   0.941   2.640   5.264  0.4174 -0.3009  0.5802
 7629SOL    HW129937   0.919   2.567   5.322  0.3791 -1.7963 -1.2330
 7629SOL    HW229938   0.926   2.606   5.176  1.0764  1.6866 -0.3487
 7630SOL     OW29939   5.385   6.542   1.707  0.1566  0.1951 -0.3942
 7630SOL    HW129940   5.376   6.636   1.691 -1.7733  0.0353 -0.4840
 7630SOL    HW229941   5.472   6.532   1.747  0.2538  2.0516 -0.0816
 7631SOL     OW29942   0.719   7.507  12.080  0.1588 -0.0241  0.3383
 7631SOL    HW129943   0.773   7.467  12.012 -1.2570  1.3331 -1.6945
 7631SOL    HW229944   0.648   7.444  12.096  0.7333 -0.5373  0.9158
 7632SOL     OW29945  12.209  11.421  10.478  0.3429  0.8210  0.4905
 7632SOL    HW129946  12.143  11.491  10.477  0.8949  1.3438 -0.1602
 7632SOL    HW229947  12.170  11.352  10.531 -1.2143  0.6492 -0.8046
 7633SOL     OW29948   9.255   0.347   3.992  0.2883  0.6576 -0.2380
 7633SOL    HW129949   9.224   0.312   3.908  0.2805  0.0179  0.0274
 7633SOL    HW229950   9.339   0.388   3.970  0.2253  0.6071 -0.5888
 7634SOL     OW29951   1.249  10.924   2.511 -0.6020 -0.2657  0.4087
 7634SOL    HW129952   1.220  10.957   2.596  0.7871  0.8508  0.4920
 7634SOL    HW229953   1.330  10.876   2.530 -1.7360 -2.4409  0.0562
 7635SOL     OW29954   9.282  11.517   5.894 -0.1821 -0.0041  0.0049
 7635SOL    HW129955   9.328  11.452   5.948  1.0997 -0.6785 -1.7845
 7635SOL    HW229956   9.268  11.472   5.811 -1.8724  1.0780 -0.3306
 7636SOL     OW29957   5.133   2.330   7.613 -0.1145 -0.2527  0.1733
 7636SOL    HW129958   5.222   2.298   7.604  0.1015 -0.0064  1.2735
 7636SOL    HW229959   5.139   2.423   7.592  0.2318  0.1356  1.8034
 7637SOL     OW29960   7.683   0.192   9.077  0.4636  0.0860  0.2423
 7637SOL    HW129961   7.772   0.219   9.097  1.5784 -3.3319  0.5204
 7637SOL    HW229962   7.640   0.272   9.046  2.8037  2.4281  2.5543
 7638SOL     OW29963  10.779   9.164   6.100 -0.1229  0.5634  0.0371
 7638SOL    HW129964  10.802   9.074   6.122  0.3426  0.7236  0.2015
 7638SOL    HW229965  10.837   9.218   6.153  1.8147  0.9748 -2.3338
 7639SOL     OW29966   6.989  10.576   8.048 -0.1762  0.4772  0.3206
 7639SOL    HW129967   6.958  10.537   7.967  1.8109 -0.9650  0.1930
 7639SOL    HW229968   7.082  10.593   8.033  0.5907 -1.0657  2.6912
 7640SOL     OW29969   9.394   5.847   1.975  0.4167 -0.3724  0.1096
 7640SOL    HW129970   9.368   5.938   1.986 -0.5967 -0.8454  1.9727
 7640SOL    HW229971   9.324   5.808   1.923  0.8759 -0.1177 -0.7331
 7641SOL     OW29972   1.631   9.432  12.009  0.3897  0.0343  0.0088
 7641SOL    HW129973   1.585   9.393  11.935  0.5125 -0.1017  0.0040
 7641SOL    HW229974   1.675   9.508  11.973  0.3101  0.0654 -0.0227
 7642SOL     OW29975   1.624   7.911   4.829  0.3940 -0.0052 -0.4571
 7642SOL    HW129976   1.593   7.859   4.755  0.6733  0.2056 -0.7219
 7642SOL    HW229977   1.544   7.933   4.878  0.0933  0.6868 -1.2298
 7643SOL     OW29978   8.636   4.922   7.897 -0.2177 -0.1816  0.0343
 7643SOL    HW129979   8.684   4.892   7.820  1.0747  1.3294  0.1872
 7643SOL    HW229980   8.684   4.999   7.926 -0.3271 -1.0337  2.7176
 7644SOL     OW29981  11.786   5.001   3.043  0.1189  0.3696 -0.1205
 7644SOL    HW129982  11.774   5.046   3.126  1.6664  1.9007 -0.6703
 7644SOL    HW229983  11.766   5.067   2.977 -2.3247 -1.1614 -1.0550
 7645SOL     OW29984   5.564   7.035   1.285 -0.1488  0.3537  0.1323
 7645SOL    HW129985   5.639   7.094   1.275  0.2813 -0.4557 -1.9091
 7645SOL    HW229986   5.495   7.076   1.233  0.1518 -0.8756 -1.3033
 7646SOL     OW29987   3.346   6.144   2.884  0.2502 -0.3819  0.0313
 7646SOL    HW129988   3.325   6.101   2.967  0.1160 -1.5283 -0.5773
 7646SOL    HW229989   3.266   6.135   2.832  0.4101  0.1310 -0.3098
 7647SOL     OW29990   7.312   8.460   1.535  0.2642 -0.6631  0.6296
 7647SOL    HW129991   7.370   8.385   1.547  0.2663 -0.7361  0.1877
 7647SOL    HW229992   7.336   8.495   1.450 -1.1958 -1.4621 -0.1547
 7648SOL     OW29993   5.521   4.375   5.150  0.0917 -0.4267 -0.3403
 7648SOL    HW129994   5.479   4.373   5.237 -1.5699 -0.4060 -1.1017
 7648SOL    HW229995   5.476   4.446   5.104  2.2865  0.8766 -0.6298
 7649SOL     OW29996   7.777  11.911   0.363 -0.4154 -0.0726 -0.3141
 7649SOL    HW129997   7.697  11.923   0.414  0.3961  0.3826  0.8880
 7649SOL    HW229998   7.848  11.926   0.425  0.6132  0.0456 -1.4762
 7650SOL     OW29999   1.456   8.953   8.157  0.3218 -0.3922  0.4278
 7650SOL    HW130000   1.374   8.935   8.202  0.2967 -1.2552  0.0618
 7650SOL    HW230001   1.435   9.024   8.097 -0.0568 -0.3486  0.6085
 7651SOL     OW30002   7.048   0.687  10.666 -0.3777 -0.0215 -0.4819
 7651SOL    HW130003   7.134   0.646  10.657 -0.2158  0.1321  0.2686
 7651SOL    HW230004   7.007   0.679  10.580 -0.1919 -1.3972 -0.4561
 7652SOL     OW30005   4.506  10.652   1.050  0.1461  0.1757  0.4283
 7652SOL    HW130006   4.475  10.717   0.987 -0.7434  0.2311  0.8922
 7652SOL    HW230007   4.473  10.684   1.135  1.0859 -0.0338  0.8800
 7653SOL     OW30008   3.408   0.151   9.927  0.1488  0.4482  0.3775
 7653SOL    HW130009   3.434   0.241   9.905 -0.1137  1.0914  2.5039
 7653SOL    HW230010   3.484   0.098   9.905  0.0351  1.0428 -1.6392
 7654SOL     OW30011  11.674   2.185   7.135  0.0879 -0.3456  0.1016
 7654SOL    HW130012  11.594   2.145   7.168 -0.5035  0.5831 -0.1614
 7654SOL    HW230013  11.722   2.212   7.213  0.1281 -0.8592  0.2577
 7655SOL     OW30014   9.493  10.227  12.215 -0.1552  0.3802 -0.6060
 7655SOL    HW130015   9.479  10.243  12.121  2.1636  2.1835 -0.7468
 7655SOL    HW230016   9.587  10.243  12.227 -0.6928  1.8725  2.3270
 7656SOL     OW30017   2.888  10.364   5.130 -0.1503 -0.8696 -0.1362
 7656SOL    HW130018   2.899  10.417   5.209 -0.1613 -1.5661  0.3361
 7656SOL    HW230019   2.964  10.306   5.130  0.1175 -0.5376 -0.9106
 7657SOL     OW30020  10.645   8.739   4.008  0.0235 -0.3547  0.2126
 7657SOL    HW130021  10.734   8.730   4.042  1.1180  0.4516 -2.2177
 7657SOL    HW230022  10.651   8.808   3.941 -1.8094 -2.0904 -1.9333
 7658SOL     OW30023   6.396   2.212   2.208  0.2285  0.3488 -0.3600
 7658SOL    HW130024   6.429   2.219   2.297 -4.3463 -0.4536  1.6512
 7658SOL    HW230025   6.470   2.238   2.153  4.0324 -1.2877  3.4337
 7659SOL     OW30026   3.744   6.609   2.398  0.2359 -0.0569 -0.5875
 7659SOL    HW130027   3.690   6.613   2.477  1.2251 -1.2650  0.1682
 7659SOL    HW230028   3.681   6.617   2.326 -0.7824  0.0645  0.2951
 7660SOL     OW30029   0.176   4.734  10.447 -0.9832 -0.2685  0.2778
 7660SOL    HW130030   0.140   4.695  10.526  0.7142 -1.4472  0.5072
 7660SOL    HW230031   0.143   4.679  10.376 -2.7044  0.9297  0.0754
 7661SOL     OW30032   6.427   8.845  11.861  0.7514 -0.0322  0.1682
 7661SOL    HW130033   6.334   8.857  11.878  0.7226 -0.3292  0.2226
 7661SOL    HW230034   6.433   8.818  11.770  0.7720 -0.1894  0.2169
 7662SOL     OW30035   4.658   9.084   2.879  1.1463 -0.1833  0.4424
 7662SOL    HW130036   4.592   9.123   2.937 -0.0147 -0.1964 -0.8142
 7662SOL    HW230037   4.697   9.159   2.834  1.4366 -0.2338  0.6112
 7663SOL     OW30038   6.538   9.532   8.537 -0.3162  0.2760  0.2394
 7663SOL    HW130039   6.506   9.584   8.463 -1.1153  0.6152  0.8122
 7663SOL    HW230040   6.602   9.472   8.498 -1.6752 -0.4511 -0.9726
 7664SOL     OW30041   9.820   5.671   6.579 -0.4045  0.0352  0.2131
 7664SOL    HW130042   9.762   5.710   6.513 -1.4488 -0.1688  0.9855
 7664SOL    HW230043   9.907   5.671   6.538 -1.2148 -1.1332 -1.6044
 7665SOL     OW30044   7.193   4.038  10.269 -0.5126 -0.2751 -0.2991
 7665SOL    HW130045   7.127   4.026  10.201  0.8039 -0.7881 -1.5559
 7665SOL    HW230046   7.159   3.990  10.345 -1.6471 -0.3646 -0.8507
 7666SOL     OW30047   2.716  10.002  11.792  0.0407  0.0479  0.2006
 7666SOL    HW130048   2.671   9.942  11.852 -2.4285  2.5937  1.1086
 7666SOL    HW230049   2.771  10.056  11.850  0.7302 -0.0515 -0.3549
 7667SOL     OW30050   8.684   4.141   3.412 -0.1910  0.1267 -0.4235
 7667SOL    HW130051   8.612   4.102   3.362 -1.3990  1.9513 -0.2122
 7667SOL    HW230052   8.727   4.067   3.455 -2.8080 -0.9339  0.5472
 7668SOL     OW30053   0.838   3.138   8.789  0.4706  0.1136  0.8734
 7668SOL    HW130054   0.863   3.137   8.881  2.2578  0.0085  0.4292
 7668SOL    HW230055   0.783   3.060   8.778  3.5240 -2.2733  1.0826
 7669SOL     OW30056   3.619   7.168  12.156  0.2553 -0.2888  0.1488
 7669SOL    HW130057   3.547   7.177  12.094 -0.0632 -0.4119  0.4978
 7669SOL    HW230058   3.584   7.112  12.226  0.8864 -0.8588  0.0185
 7670SOL     OW30059   3.436   8.149   0.988  0.1557  0.4967 -0.1409
 7670SOL    HW130060   3.404   8.079   1.044  3.7021 -1.5966 -0.4164
 7670SOL    HW230061   3.392   8.135   0.904  0.6629 -1.3724 -0.1350
 7671SOL     OW30062   1.853   5.382   8.796 -0.9757 -0.6702 -0.5061
 7671SOL    HW130063   1.809   5.332   8.865 -2.5227  0.9588 -0.2489
 7671SOL    HW230064   1.912   5.319   8.755 -0.5681 -1.9127  1.7793
 7672SOL     OW30065  12.436   3.192   1.186 -0.1882  0.6942  0.4009
 7672SOL    HW130066  12.469   3.258   1.126  0.4847 -0.6126 -0.7138
 7672SOL    HW230067  12.513   3.163   1.236 -0.4053  0.4856  0.6206
 7673SOL     OW30068  10.681   9.580   4.429  0.0788  0.0674  0.4614
 7673SOL    HW130069  10.729   9.652   4.388  0.7389  0.1818  1.3815
 7673SOL    HW230070  10.644   9.619   4.509 -2.6995  0.3335 -0.8411
 7674SOL     OW30071   3.754   9.762   2.805  0.3416  0.2413 -0.4798
 7674SOL    HW130072   3.693   9.688   2.810  1.4719 -0.7149 -0.3240
 7674SOL    HW230073   3.780   9.766   2.713 -0.8812  1.4436 -0.7955
 7675SOL     OW30074   8.058   2.398   3.347  0.4073 -0.6959  0.0240
 7675SOL    HW130075   8.037   2.356   3.431 -1.5278 -0.6106 -0.3656
 7675SOL    HW230076   8.090   2.485   3.372  0.1133 -0.7697  0.7007
 7676SOL     OW30077   5.608   2.805   0.627  1.1423 -0.4932 -0.0331
 7676SOL    HW130078   5.534   2.830   0.682  0.3823 -2.9076  0.1420
 7676SOL    HW230079   5.633   2.886   0.583 -2.2982  0.2588 -0.9246
 7677SOL     OW30080   8.524  11.146   1.243 -0.5041  0.0962 -0.0605
 7677SOL    HW130081   8.432  11.126   1.225  0.2565 -1.6831 -2.4922
 7677SOL    HW230082   8.548  11.089   1.316 -0.9720 -0.5029 -0.3694
 7678SOL     OW30083   0.194   8.055   4.682 -0.7775  0.2276  0.0033
 7678SOL    HW130084   0.265   8.057   4.746 -0.8782 -0.4752  0.1434
 7678SOL    HW230085   0.175   7.962   4.670 -1.7035  0.4008  0.0043
 7679SOL     OW30086   6.956   5.235  11.088  0.5381  0.3252 -0.7588
 7679SOL    HW130087   6.878   5.242  11.033 -0.1862  0.7379  0.2845
 7679SOL    HW230088   6.979   5.142  11.086  0.5607  0.3422 -1.7808
 7680SOL     OW30089   9.479   0.956   2.509 -0.9009 -0.3818  0.0336
 7680SOL    HW130090   9.486   1.011   2.431  1.9537  0.3750  0.7011
 7680SOL    HW230091   9.505   0.869   2.480 -0.4280 -0.2309 -0.0083
 7681SOL     OW30092   9.291   8.829   5.511 -0.2341 -0.6273  0.1547
 7681SOL    HW130093   9.258   8.806   5.424  0.3264  0.0747 -0.2640
 7681SOL    HW230094   9.221   8.880   5.551  0.3794  1.0805 -0.8251
 7682SOL     OW30095   9.671   5.973   9.508 -0.1891  0.3531  0.2847
 7682SOL    HW130096   9.630   6.006   9.589  0.1546 -2.3396  1.6575
 7682SOL    HW230097   9.750   6.026   9.499 -0.6234  1.2154  1.2883
 7683SOL     OW30098  10.553   8.712   8.578 -0.3929  0.4569  0.1033
 7683SOL    HW130099  10.470   8.759   8.571 -0.7857  0.3071  2.7981
 7683SOL    HW230100  10.603   8.761   8.643 -0.3889 -2.1495  2.1979
 7684SOL     OW30101   3.340   0.908   8.889 -0.4411  0.3219 -0.4198
 7684SOL    HW130102   3.260   0.897   8.940  0.4279  0.2828  0.9871
 7684SOL    HW230103   3.340   0.835   8.827 -1.5974  0.4644 -0.6183
 7685SOL     OW30104   7.981   7.401   1.219 -1.0705  0.1435  0.4478
 7685SOL    HW130105   7.958   7.484   1.260 -1.0454  0.2370  0.2729
 7685SOL    HW230106   8.072   7.413   1.192 -0.9506 -0.0702  0.7493
 7686SOL     OW30107   3.536  11.724   5.348  0.1300  0.1238  0.3221
 7686SOL    HW130108   3.481  11.663   5.397  0.5437 -0.8178 -0.3495
 7686SOL    HW230109   3.476  11.791   5.316 -0.9475 -1.6289 -1.5889
 7687SOL     OW30110   8.128  12.145   5.825 -0.4391 -0.2699  0.2945
 7687SOL    HW130111   8.089  12.160   5.912 -0.7065 -0.8092  0.2673
 7687SOL    HW230112   8.187  12.220   5.813 -0.0004 -0.4632  1.1669
 7688SOL     OW30113   3.163   6.938   6.592  0.3581 -0.0577 -0.2678
 7688SOL    HW130114   3.084   6.885   6.598 -0.2110  0.8296  0.3353
 7688SOL    HW230115   3.131   7.028   6.598  1.5597  0.2814  1.8409
 7689SOL     OW30116   3.961   4.454  11.191  0.4343  0.5111  0.1820
 7689SOL    HW130117   3.986   4.527  11.247 -1.0103  1.4410 -0.3107
 7689SOL    HW230118   3.876   4.480  11.155  0.3851 -0.9502 -0.8491
 7690SOL     OW30119  12.339   2.134  10.570 -0.4442  0.1101  0.0659
 7690SOL    HW130120  12.365   2.199  10.636 -1.1834  0.3869  0.1028
 7690SOL    HW230121  12.355   2.178  10.486  2.0197 -0.8343 -0.0161
 7691SOL     OW30122   3.082   9.072  12.224 -0.7658  0.0112  0.2742
 7691SOL    HW130123   3.002   9.122  12.208 -0.6793  0.1580  0.3013
 7691SOL    HW230124   3.152   9.136  12.216 -0.6901  0.0021  0.8323
 7692SOL     OW30125   5.357   7.281   3.727 -0.0708 -0.3568 -0.1546
 7692SOL    HW130126   5.399   7.324   3.652 -1.9632 -0.1782 -1.1672
 7692SOL    HW230127   5.390   7.328   3.803  1.8119 -0.4554 -0.8416
 7693SOL     OW30128   1.026   7.239  10.310  0.1141 -0.1052  0.2980
 7693SOL    HW130129   1.006   7.302  10.241  0.4774 -0.3255 -0.0131
 7693SOL    HW230130   1.034   7.155  10.264 -2.6698 -0.8519  0.9619
 7694SOL     OW30131   8.141   6.231  10.119 -0.4421 -0.5481 -0.1992
 7694SOL    HW130132   8.086   6.187  10.184 -1.6972 -0.8708 -1.4223
 7694SOL    HW230133   8.094   6.313  10.099 -0.9573 -1.1960 -1.8410
 7695SOL     OW30134   2.556   3.269   7.654  0.0543 -0.4153  0.3886
 7695SOL    HW130135   2.500   3.198   7.687  0.8921 -1.2142  0.1325
 7695SOL    HW230136   2.585   3.238   7.568  1.7381 -0.5075  0.9559
 7696SOL     OW30137   6.158   8.879  11.917  0.2543  0.0776 -0.0389
 7696SOL    HW130138   6.115   8.901  11.999  0.1932 -3.1510  0.9205
 7696SOL    HW230139   6.130   8.948  11.856 -1.9985  0.9969  1.8768
 7697SOL     OW30140   1.241   8.899   8.577 -0.5008  0.2939  0.0221
 7697SOL    HW130141   1.257   8.921   8.669 -0.4009 -0.3264  0.1522
 7697SOL    HW230142   1.328   8.901   8.537 -0.2578 -1.5597  0.4043
 7698SOL     OW30143   7.109   6.210   8.187 -0.5118 -0.1888 -0.6226
 7698SOL    HW130144   7.122   6.292   8.235  0.1573 -1.0749  0.7723
 7698SOL    HW230145   7.022   6.219   8.148 -0.4703  1.1610 -0.4623
 7699SOL     OW30146   8.755   3.465  11.766  0.0194 -0.1443  0.3831
 7699SOL    HW130147   8.821   3.505  11.823  0.2846  0.4542 -0.3230
 7699SOL    HW230148   8.704   3.539  11.732  0.0812 -0.4520 -0.4103
 7700SOL     OW30149   3.200   7.392   1.476  0.0469 -0.3573  0.4747
 7700SOL    HW130150   3.266   7.430   1.534 -0.1004  1.2517 -0.3633
 7700SOL    HW230151   3.244   7.387   1.391 -0.6647  0.0204  0.0812
 7701SOL     OW30152   4.629   0.866   5.928  0.1866  0.4423  0.0639
 7701SOL    HW130153   4.597   0.905   6.009 -0.9822  0.3365 -0.3235
 7701SOL    HW230154   4.550   0.850   5.876  0.8103 -0.5018 -0.6461
 7702SOL     OW30155  12.113   9.232  10.934  0.1008  0.1117 -0.3236
 7702SOL    HW130156  12.070   9.260  11.014  0.5805 -1.3999  0.4939
 7702SOL    HW230157  12.041   9.203  10.877 -0.0752 -1.2768  0.5774
 7703SOL     OW30158   3.110   6.698  11.085  0.2410  0.1955 -0.7085
 7703SOL    HW130159   3.072   6.744  11.160 -1.1059  0.2392 -1.3854
 7703SOL    HW230160   3.197   6.736  11.075  0.6937 -0.2404  1.1918
 7704SOL     OW30161   8.750   9.021   3.178 -0.3136 -0.0045 -0.4530
 7704SOL    HW130162   8.811   8.950   3.197 -0.2457  0.3964  0.9315
 7704SOL    HW230163   8.673   8.978   3.141  0.6132 -0.5593 -1.8382
 7705SOL     OW30164   1.456  10.798   8.288  0.1208  0.2136 -0.3180
 7705SOL    HW130165   1.449  10.708   8.321 -0.7916  0.4834  0.2524
 7705SOL    HW230166   1.478  10.787   8.196  0.4301 -0.5928 -0.1590
 7706SOL     OW30167  10.650   3.282   9.191 -0.0381 -0.5111 -0.3566
 7706SOL    HW130168  10.665   3.220   9.263 -0.2179  0.5724  0.6461
 7706SOL    HW230169  10.635   3.227   9.115 -0.1713 -1.7060  0.5008
 7707SOL     OW30170   8.683   5.290   2.076 -0.2231 -0.2946  0.0050
 7707SOL    HW130171   8.633   5.301   1.995  0.2218  0.0854 -0.2239
 7707SOL    HW230172   8.755   5.233   2.052  0.9192  1.2208 -0.3354
 7708SOL     OW30173  11.853   7.872   2.602 -0.1940  0.2081  0.2990
 7708SOL    HW130174  11.867   7.890   2.695  0.9595 -0.2975  0.2436
 7708SOL    HW230175  11.776   7.924   2.578  0.5366  1.7244  1.1199
 7709SOL     OW30176   6.949   7.439   9.432 -0.1141  0.5233 -0.0378
 7709SOL    HW130177   6.867   7.399   9.402 -1.6823  3.0192  0.5671
 7709SOL    HW230178   6.927   7.475   9.518  1.2536  2.2998 -0.3737
 7710SOL     OW30179   9.633   7.932   0.146 -0.1715 -0.1664 -0.6171
 7710SOL    HW130180   9.578   7.861   0.113 -1.2844  0.1245  0.5516
 7710SOL    HW230181   9.572   7.996   0.181  0.8969 -0.2924  1.6992
 7711SOL     OW30182   7.958   5.426   8.381  0.4382 -0.3792  0.0069
 7711SOL    HW130183   7.980   5.515   8.351 -0.5863 -0.4559 -1.0704
 7711SOL    HW230184   7.868   5.434   8.414  1.4871 -0.3227  3.1225
 7712SOL     OW30185  11.639   9.767   0.811  0.1718  0.6823  0.1290
 7712SOL    HW130186  11.549   9.800   0.814 -0.6408 -1.3808  0.2690
 7712SOL    HW230187  11.663   9.769   0.718 -0.1111  0.9965  0.0628
 7713SOL     OW30188  10.207  12.222   8.980 -0.2792 -0.1043  0.1030
 7713SOL    HW130189  10.142  12.269   9.032 -0.9535 -0.5587 -0.3124
 7713SOL    HW230190  10.230  12.146   9.035 -1.4404 -0.9179 -0.4745
 7714SOL     OW30191   2.022   1.536   1.005 -0.4079 -0.2951  0.5845
 7714SOL    HW130192   2.055   1.620   1.036 -0.5764 -0.5836  1.5931
 7714SOL    HW230193   2.086   1.508   0.939  0.6141 -0.1906  1.4988
 7715SOL     OW30194  10.151  11.187   4.240 -0.0971  0.3624 -0.5108
 7715SOL    HW130195  10.179  11.197   4.150 -0.5355  2.4596 -0.4691
 7715SOL    HW230196  10.061  11.220   4.241  0.4526  1.9463  0.9766
 7716SOL     OW30197   7.336   3.160   0.260 -0.2327  0.0026 -0.3673
 7716SOL    HW130198   7.339   3.187   0.352  2.6820 -1.1280 -0.0404
 7716SOL    HW230199   7.379   3.231   0.212  2.2160 -1.2932 -0.2275
 7717SOL     OW30200   4.138   2.886   7.780 -0.4473 -0.5704  0.1068
 7717SOL    HW130201   4.097   2.913   7.698 -0.3002 -1.0863 -0.1418
 7717SOL    HW230202   4.077   2.822   7.818 -0.1718 -0.8745  0.0408
 7718SOL     OW30203   0.315   3.624   6.537  0.1619  0.0510  1.2518
 7718SOL    HW130204   0.267   3.569   6.474  0.5116  1.8653 -0.7151
 7718SOL    HW230205   0.385   3.567   6.570  0.0050 -0.9594 -0.0718
 7719SOL     OW30206   4.631   9.392   9.760 -0.0860  0.4298  0.1126
 7719SOL    HW130207   4.609   9.298   9.760 -1.7338  0.7656  1.7456
 7719SOL    HW230208   4.725   9.395   9.780  0.2286 -0.8803 -0.9981
 7720SOL     OW30209  11.004   2.252   8.670  0.1878 -0.0962  0.5759
 7720SOL    HW130210  11.086   2.210   8.645 -1.1993 -2.4628 -0.3219
 7720SOL    HW230211  10.947   2.242   8.594 -0.9016  1.6656  1.0962
 7721SOL     OW30212   4.488   2.824   4.506  0.3490 -0.4116  0.2852
 7721SOL    HW130213   4.530   2.846   4.589 -1.9189  0.1041  1.3692
 7721SOL    HW230214   4.487   2.729   4.503 -0.3067 -0.4501  1.2986
 7722SOL     OW30215   8.527   8.543   7.754 -0.2086  0.2485  0.1797
 7722SOL    HW130216   8.523   8.498   7.670  0.5690  1.5885 -0.6173
 7722SOL    HW230217   8.621   8.557   7.769 -0.3781  0.6920  0.8957
 7723SOL     OW30218   9.379   9.759   1.596  0.6972  0.5873 -0.4205
 7723SOL    HW130219   9.319   9.690   1.567  0.5203  0.7442 -0.4270
 7723SOL    HW230220   9.366   9.762   1.691 -1.5372  2.6723 -0.6864
 7724SOL     OW30221   4.883   6.284   4.848  0.0270 -0.1521  0.0721
 7724SOL    HW130222   4.921   6.309   4.763 -1.8151  0.1226 -0.7156
 7724SOL    HW230223   4.822   6.354   4.868 -0.6994 -0.9945  0.8690
 7725SOL     OW30224   9.561   0.210   5.596  0.4292 -0.4513 -0.0331
 7725SOL    HW130225   9.581   0.301   5.619 -0.7218 -0.5145  1.3477
 7725SOL    HW230226   9.600   0.159   5.667 -0.8604 -0.8509  0.4187
 7726SOL     OW30227   6.038   7.370   6.054  0.2019  0.0637 -0.6524
 7726SOL    HW130228   6.133   7.373   6.059  0.2744  0.3202 -1.9336
 7726SOL    HW230229   6.010   7.461   6.064 -0.0502 -0.2183  1.6617
 7727SOL     OW30230   4.169  12.138   6.210  0.2077 -0.5301 -0.4888
 7727SOL    HW130231   4.233  12.204   6.183  0.8927 -0.7091  0.6698
 7727SOL    HW230232   4.199  12.057   6.169  0.5640 -0.5525 -0.1873
 7728SOL     OW30233   2.277  10.183   4.862 -0.1806  0.0060 -0.2816
 7728SOL    HW130234   2.192  10.168   4.820 -0.1644 -0.1842 -0.2460
 7728SOL    HW230235   2.328  10.230   4.796 -0.3740  0.2807 -0.2365
 7729SOL     OW30236   9.034   2.293   7.933 -0.0587  0.3740 -0.2681
 7729SOL    HW130237   8.958   2.324   7.981 -0.5705 -1.4598  0.1966
 7729SOL    HW230238   9.026   2.332   7.846 -0.9822  0.9866  0.0866
 7730SOL     OW30239  11.690   1.866  10.377 -0.4635 -0.9595  0.2941
 7730SOL    HW130240  11.601   1.849  10.345 -0.5837 -3.5173  1.7049
 7730SOL    HW230241  11.696   1.961  10.380 -2.7334 -0.6898 -0.9276
 7731SOL     OW30242   9.986   1.114  11.004  0.1485  0.1038  0.1122
 7731SOL    HW130243   9.990   1.047  10.936  1.7964  0.2705  0.0090
 7731SOL    HW230244  10.075   1.149  11.009 -0.3966  1.4566  0.9984
 7732SOL     OW30245   7.444   6.352   6.564  0.0868  0.3263  0.2396
 7732SOL    HW130246   7.464   6.323   6.475 -0.2170  0.7762  0.0224
 7732SOL    HW230247   7.529   6.367   6.604  0.2247  0.1480  0.0159
 7733SOL     OW30248   0.281   0.068   9.376  0.3395  0.8211  0.5740
 7733SOL    HW130249   0.228   0.147   9.390  0.5172  0.9979  0.2633
 7733SOL    HW230250   0.275   0.051   9.282 -3.0086 -1.8885  1.1190
 7734SOL     OW30251   9.823   4.493   5.146 -0.0474  0.2166 -0.1926
 7734SOL    HW130252   9.779   4.427   5.200  1.2733  0.4591  1.2638
 7734SOL    HW230253   9.753   4.536   5.098 -1.2139 -0.4534  0.8657
 7735SOL     OW30254   7.704   8.738  10.757 -0.0019 -0.2349  0.3701
 7735SOL    HW130255   7.678   8.680  10.686 -0.3269  0.4238 -0.0528
 7735SOL    HW230256   7.798   8.750  10.745  0.1669 -1.0598  0.7550
 7736SOL     OW30257   5.326  11.207   8.166 -0.1862 -0.3283 -0.2051
 7736SOL    HW130258   5.415  11.222   8.198 -0.3125 -0.2643  0.1238
 7736SOL    HW230259   5.314  11.271   8.096  0.6416 -1.4926 -1.4670
 7737SOL     OW30260   3.122  11.365   6.303  0.1918  0.2052 -0.0840
 7737SOL    HW130261   3.059  11.432   6.331  0.7979  1.3426 -1.3323
 7737SOL    HW230262   3.131  11.379   6.209  1.3082 -0.8172 -0.1442
 7738SOL     OW30263   0.551   1.458   6.243  0.0168 -0.2826  0.4796
 7738SOL    HW130264   0.579   1.530   6.299  3.0807 -0.8401 -0.1989
 7738SOL    HW230265   0.574   1.379   6.291  0.6180 -0.7730 -0.5818
 7739SOL     OW30266   9.418   3.155  12.388 -0.0055 -0.3294  0.0061
 7739SOL    HW130267   9.415   3.206  12.469 -0.4703  0.5999 -0.5817
 7739SOL    HW230268   9.371   3.208  12.324  0.4472 -0.9991 -0.9099
 7740SOL     OW30269   1.360   9.282   3.206 -0.3337  0.0356 -0.0907
 7740SOL    HW130270   1.430   9.229   3.169 -0.6806 -0.0343 -0.6522
 7740SOL    HW230271   1.381   9.372   3.182 -1.0736 -0.1001 -1.3367
 7741SOL     OW30272   0.925   5.591   3.145 -0.6888  0.5117  0.1744
 7741SOL    HW130273   0.985   5.596   3.072 -1.1395  0.1779 -0.2270
 7741SOL    HW230274   0.838   5.583   3.105 -0.8355 -0.9894  0.7289
 7742SOL     OW30275  10.265   0.846   1.525 -0.2793 -0.5164 -0.1633
 7742SOL    HW130276  10.178   0.881   1.504  0.1096  0.3088 -0.4536
 7742SOL    HW230277  10.287   0.790   1.451  0.8786  1.9959 -1.9024
 7743SOL     OW30278  10.449   5.691  10.255  0.3712 -0.2017 -0.7331
 7743SOL    HW130279  10.543   5.698  10.272  0.3419 -0.5265 -0.4398
 7743SOL    HW230280  10.407   5.726  10.334  0.2394 -1.2808 -0.3144
 7744SOL     OW30281   5.133   2.405   5.823 -0.0615 -0.5094  0.7063
 7744SOL    HW130282   5.047   2.439   5.846  0.1904 -0.8696  2.3521
 7744SOL    HW230283   5.128   2.311   5.843  0.8203 -0.4601  1.2476
 7745SOL     OW30284  10.690   5.224   8.136 -0.2952 -0.3647 -0.1277
 7745SOL    HW130285  10.780   5.191   8.131 -0.6654 -1.4203  0.0695
 7745SOL    HW230286  10.640   5.154   8.178 -1.5744 -0.5415 -1.8487
 7746SOL     OW30287   9.037   0.985   7.761 -0.4619  0.2416 -0.4309
 7746SOL    HW130288   9.039   0.928   7.684 -0.7467  0.2751 -0.4633
 7746SOL    HW230289   9.074   1.068   7.731  0.7264 -0.1713 -0.1759
 7747SOL     OW30290   9.861  11.385   1.862 -0.5753 -0.1054 -0.0859
 7747SOL    HW130291   9.879  11.474   1.835 -1.2620  0.1494  0.2755
 7747SOL    HW230292   9.947  11.348   1.881 -0.2442  0.2928 -0.7846
 7748SOL     OW30293   4.184   1.459   0.928 -0.1864 -0.3092  0.9409
 7748SOL    HW130294   4.215   1.536   0.975  0.2067 -0.3379  0.7327
 7748SOL    HW230295   4.112   1.491   0.874  0.3807  0.0416  0.3851
 7749SOL     OW30296   9.109   9.479   0.290 -0.3288  0.3768  0.3240
 7749SOL    HW130297   9.014   9.484   0.283 -0.3642 -0.9246 -0.4616
 7749SOL    HW230298   9.141   9.500   0.202  0.1292  0.9258  0.6128
 7750SOL     OW30299   1.137   3.499   9.931  0.3180  0.1556  0.1432
 7750SOL    HW130300   1.071   3.459   9.874  0.2781 -1.5084  1.2696
 7750SOL    HW230301   1.176   3.568   9.878 -2.1807  1.0840 -0.6528
 7751SOL     OW30302   3.794  12.392   0.228  0.1631 -0.3210  0.1483
 7751SOL    HW130303   3.878  12.348   0.217  1.6840  1.9083  1.9937
 7751SOL    HW230304   3.816  12.479   0.260 -2.8284  0.8170 -0.5543
 7752SOL     OW30305  10.516   7.835   2.151  0.3023  0.1512  0.0743
 7752SOL    HW130306  10.474   7.759   2.111  1.6588 -1.1840  1.1030
 7752SOL    HW230307  10.486   7.835   2.242  1.2390  0.1243  0.3953
 7753SOL     OW30308   5.042   5.116   1.774  0.0914  0.0762  0.4547
 7753SOL    HW130309   5.027   5.106   1.868  1.9264 -0.7509  0.6993
 7753SOL    HW230310   5.100   5.044   1.751 -0.2008  0.3562 -1.3000
 7754SOL     OW30311   4.728  11.829   5.515  0.3271  0.0060  0.4993
 7754SOL    HW130312   4.692  11.772   5.448  0.8286  1.9907 -1.5723
 7754SOL    HW230313   4.782  11.771   5.569 -0.1998 -1.6867 -0.7051
 7755SOL     OW30314   0.697   5.880   4.143 -0.4144  0.6236 -0.1945
 7755SOL    HW130315   0.651   5.941   4.201 -2.5940 -1.6288  0.6611
 7755SOL    HW230316   0.643   5.801   4.145  2.1054 -1.2602 -1.4478
 7756SOL     OW30317   6.674   9.130   3.404 -0.4258 -0.2051 -0.9207
 7756SOL    HW130318   6.626   9.141   3.322  0.2587  0.8202 -1.2119
 7756SOL    HW230319   6.719   9.046   3.395 -0.0015  0.1028 -1.7938
 7757SOL     OW30320   7.148   9.267  10.740 -0.6284  0.2636 -0.7107
 7757SOL    HW130321   7.084   9.226  10.799 -0.5279  1.1010 -0.0004
 7757SOL    HW230322   7.175   9.197  10.681 -0.3380 -0.7363  0.5743
 7758SOL     OW30323   7.667  11.337   3.079  0.2376 -0.1283 -0.3364
 7758SOL    HW130324   7.752  11.363   3.116  0.7857 -0.1825 -1.5295
 7758SOL    HW230325   7.634  11.271   3.140  0.4668  0.7561  0.8111
 7759SOL     OW30326  12.050  10.690   0.399 -0.7543  0.3443  0.4302
 7759SOL    HW130327  12.013  10.604   0.380  1.0732 -0.6903  1.2618
 7759SOL    HW230328  12.014  10.713   0.485 -1.3882  0.5158  0.1245
 7760SOL     OW30329   8.852  12.387   3.423 -0.4819  0.4050 -0.3152
 7760SOL    HW130330   8.778  12.329   3.439 -0.5603  0.1792 -1.4487
 7760SOL    HW230331   8.842  12.457   3.488 -0.2241 -0.9666  1.2864
 7761SOL     OW30332  11.588   7.166   9.236 -0.2454 -0.1319 -0.0450
 7761SOL    HW130333  11.538   7.090   9.205 -0.3074  0.0430 -0.3834
 7761SOL    HW230334  11.655   7.180   9.168  1.4188 -1.4407  1.2497
 7762SOL     OW30335  10.554   2.223   9.003  0.6100 -0.0580 -0.0954
 7762SOL    HW130336  10.636   2.237   8.955  0.5068 -0.0935 -0.2849
 7762SOL    HW230337  10.512   2.149   8.958  0.2866  0.2157 -0.2493
 7763SOL     OW30338   2.372   4.618   4.700  0.2027 -0.9173 -0.8917
 7763SOL    HW130339   2.356   4.524   4.708 -1.7954 -0.6434 -1.1479
 7763SOL    HW230340   2.290   4.659   4.728  2.2986  0.9894  3.3461
 7764SOL     OW30341   8.788   8.839  12.458 -0.2326  0.1830 -0.5841
 7764SOL    HW130342   8.694   8.856  12.467  0.0551  1.3729  0.4843
 7764SOL    HW230343   8.819   8.906  12.397 -0.4100 -1.5772 -2.7322
 7765SOL     OW30344   5.308   2.962   7.650 -0.0784  0.4230 -0.4511
 7765SOL    HW130345   5.312   3.044   7.699  0.3697  0.2248 -0.1412
 7765SOL    HW230346   5.292   2.895   7.717 -1.3698  0.3496 -0.8123
 7766SOL     OW30347   2.061   8.127   1.938  0.1989  0.1226  0.2460
 7766SOL    HW130348   1.979   8.080   1.926 -1.7173  3.5953 -1.8715
 7766SOL    HW230349   2.113   8.105   1.861  0.1449 -0.0569  0.2615
 7767SOL     OW30350   3.932   4.554   1.121 -0.5612 -0.3694  0.2800
 7767SOL    HW130351   3.876   4.630   1.103 -0.9766 -0.6223  0.4794
 7767SOL    HW230352   4.002   4.588   1.176 -0.9847 -0.2149  0.7331
 7768SOL     OW30353   0.094  10.884   2.306  0.1826  0.1366 -0.9516
 7768SOL    HW130354   0.168  10.930   2.345 -1.6970  0.6934  2.3221
 7768SOL    HW230355   0.040  10.953   2.267 -1.6163  0.6845  2.1862
 7769SOL     OW30356   0.431  12.064  11.138  0.2078 -0.6195  0.4013
 7769SOL    HW130357   0.430  11.968  11.136 -0.6174 -0.6263  0.8958
 7769SOL    HW230358   0.364  12.090  11.074  0.1928 -0.3782  0.5139
 7770SOL     OW30359   0.506   5.073  10.538  0.7012  0.0033  0.0500
 7770SOL    HW130360   0.473   4.987  10.512  0.2851 -0.3418  1.6551
 7770SOL    HW230361   0.592   5.056  10.575  0.4429  0.2139  0.7615
 7771SOL     OW30362   1.227  12.184   6.836 -0.0400  0.6691  0.3463
 7771SOL    HW130363   1.265  12.105   6.874  0.2739  0.9373  0.6009
 7771SOL    HW230364   1.163  12.152   6.773 -0.5966  0.2063  1.1289
 7772SOL     OW30365   5.021   1.996   8.138  0.0200 -0.2219  0.2112
 7772SOL    HW130366   5.095   2.055   8.144 -0.9916  1.1496 -0.3362
 7772SOL    HW230367   4.965   2.020   8.212 -0.8346  0.1569 -0.5404
 7773SOL     OW30368   1.671  10.452   2.915  0.0579  0.4191  0.3398
 7773SOL    HW130369   1.759  10.482   2.935 -0.0471  0.4645  0.7490
 7773SOL    HW230370   1.681  10.396   2.837  0.4098  0.6046  0.2508
 7774SOL     OW30371  10.919   2.705   4.319  0.4803 -0.1387 -0.2954
 7774SOL    HW130372  10.991   2.666   4.269  0.0541 -0.6785 -0.4981
 7774SOL    HW230373  10.855   2.634   4.327  0.2657  0.1393  0.4662
 7775SOL     OW30374   3.577   1.955   9.269 -0.2749 -0.0909 -0.1875
 7775SOL    HW130375   3.615   1.907   9.343 -0.1636  3.1948  2.0720
 7775SOL    HW230376   3.482   1.941   9.278 -0.1553 -1.8436 -1.1180
 7776SOL     OW30377   3.367  11.109   1.339  0.1893 -0.4765  0.4699
 7776SOL    HW130378   3.350  11.192   1.296 -2.6772 -1.3764 -0.3286
 7776SOL    HW230379   3.380  11.047   1.267  3.1190 -0.6854  1.0474
 7777SOL     OW30380  11.297   9.888   4.704  0.1043 -0.0435  0.1355
 7777SOL    HW130381  11.213   9.844   4.694  0.0819 -0.6057  2.3306
 7777SOL    HW230382  11.275   9.980   4.720 -0.0272  0.0101 -0.3371
 7778SOL     OW30383   4.418   6.401   2.860  0.1595  0.0766  0.0562
 7778SOL    HW130384   4.332   6.362   2.875  0.4646 -0.5872  0.1198
 7778SOL    HW230385   4.439   6.443   2.943  0.6483 -1.2554  0.6468
 7779SOL     OW30386  11.390   5.528   4.274  0.0928 -0.1525  0.3721
 7779SOL    HW130387  11.458   5.557   4.334  1.0214 -0.8910 -0.2805
 7779SOL    HW230388  11.380   5.434   4.293 -0.4325 -0.1415  0.1658
 7780SOL     OW30389   4.691   8.651  10.749 -0.0459  0.3621  0.5326
 7780SOL    HW130390   4.709   8.718  10.683  2.1951 -1.2744 -0.6581
 7780SOL    HW230391   4.774   8.638  10.794 -0.0782 -2.3092 -0.0122
 7781SOL     OW30392   0.176   6.298   7.541  1.0098  0.8273  0.2270
 7781SOL    HW130393   0.164   6.223   7.599  1.0990  0.6318 -0.0029
 7781SOL    HW230394   0.137   6.271   7.458  1.9708  0.6246 -0.1745
 7782SOL     OW30395   0.625  10.694   9.314 -0.3552 -0.0595  0.0024
 7782SOL    HW130396   0.651  10.695   9.222 -0.5037  0.2748 -0.0376
 7782SOL    HW230397   0.538  10.734   9.315  0.0218  0.7850  0.4026
 7783SOL     OW30398   7.098   3.266   2.218  0.1736  0.3080  0.0417
 7783SOL    HW130399   7.138   3.190   2.175  1.0922  0.4533  0.6293
 7783SOL    HW230400   7.032   3.296   2.156 -0.0320 -0.8188 -0.3089
 7784SOL     OW30401   2.362  11.611  12.059 -0.0004  0.0331 -0.0081
 7784SOL    HW130402   2.322  11.543  12.004  0.2708  0.1070 -0.2971
 7784SOL    HW230403   2.455  11.591  12.057 -0.0892 -0.5954  1.2832
 7785SOL     OW30404  11.513   8.201   2.277  0.3280  0.1064  0.3250
 7785SOL    HW130405  11.473   8.214   2.362  0.1215  2.1540 -0.0378
 7785SOL    HW230406  11.605   8.182   2.296  0.2948  0.5966  1.0006
 7786SOL     OW30407   5.188   7.166   0.656 -0.1385 -0.0549  0.0481
 7786SOL    HW130408   5.134   7.157   0.735 -2.7138  1.4220 -1.3904
 7786SOL    HW230409   5.260   7.105   0.669 -0.3897  0.1829  3.5613
 7787SOL     OW30410   6.646   1.063   2.071  0.6261 -0.1936 -0.2006
 7787SOL    HW130411   6.697   1.047   1.991 -0.0410  0.3543 -0.7536
 7787SOL    HW230412   6.606   0.979   2.091 -0.2708 -0.0322 -1.2259
 7788SOL     OW30413   6.032  11.029   6.839  0.3889 -0.3429 -0.0611
 7788SOL    HW130414   5.968  11.048   6.908  1.6454 -0.6307  1.2406
 7788SOL    HW230415   6.076  11.113   6.824  0.9190 -0.5356  0.3649
 7789SOL     OW30416   8.899   3.042   3.006 -0.3411  0.5430  0.1114
 7789SOL    HW130417   8.960   2.984   2.961 -1.4950 -0.6378  0.0079
 7789SOL    HW230418   8.871   3.104   2.940 -1.4046 -0.6824 -0.6360
 7790SOL     OW30419   7.487   7.774   1.201 -0.1903  0.0505  0.4948
 7790SOL    HW130420   7.550   7.789   1.272  1.3620  0.0279 -0.8197
 7790SOL    HW230421   7.437   7.698   1.229  0.0156  0.3838  1.8168
 7791SOL     OW30422   1.636   0.163  12.058 -0.1851 -0.0828 -0.0697
 7791SOL    HW130423   1.664   0.125  12.141 -1.3636  1.2137  0.9715
 7791SOL    HW230424   1.691   0.241  12.047 -0.7697  0.3535  0.0609
 7792SOL     OW30425  10.048  11.456  11.350  0.2126 -0.2330  0.0607
 7792SOL    HW130426  10.040  11.373  11.304 -2.7372 -0.2863  0.5112
 7792SOL    HW230427  10.036  11.523  11.282 -1.1480 -0.2680  0.2455
 7793SOL     OW30428  11.329   7.184   1.085 -0.0016  0.0091 -0.2994
 7793SOL    HW130429  11.236   7.207   1.088 -0.4782 -1.7268 -0.5272
 7793SOL    HW230430  11.352   7.167   1.177  0.1346  0.5369 -0.2307
 7794SOL     OW30431  10.052  10.416   5.672 -0.7402 -0.8614 -0.1346
 7794SOL    HW130432  10.061  10.456   5.586 -0.8205  0.0339  0.2655
 7794SOL    HW230433  10.079  10.484   5.733  0.4972 -1.8891  0.5063
 7795SOL     OW30434   7.447   4.597   5.790 -0.1469  0.1195  0.3161
 7795SOL    HW130435   7.422   4.518   5.743  0.3808 -0.7506  1.4525
 7795SOL    HW230436   7.490   4.652   5.725  1.2403 -1.3749 -0.0590
 7796SOL     OW30437  10.973  12.166   2.050  0.2449 -0.0718  0.5931
 7796SOL    HW130438  10.999  12.084   2.007 -0.6209 -0.3858  0.6497
 7796SOL    HW230439  10.887  12.147   2.087 -0.4571  1.1814 -0.3125
 7797SOL     OW30440   9.009   3.551   3.381 -0.0781 -0.4943 -0.1563
 7797SOL    HW130441   8.989   3.551   3.475 -0.5868  2.9774 -0.1503
 7797SOL    HW230442   9.104   3.544   3.376 -0.0668 -0.9585  0.5905
 7798SOL     OW30443   0.987   8.293   9.752  0.1502  0.2032  0.2751
 7798SOL    HW130444   1.080   8.315   9.759 -0.4150  2.5559  1.5339
 7798SOL    HW230445   0.942   8.377   9.760 -2.1869 -1.1039  2.3364
 7799SOL     OW30446   5.566  10.620   3.252 -0.0051 -0.0899 -0.2318
 7799SOL    HW130447   5.574  10.535   3.209  0.6346  0.1622 -0.6182
 7799SOL    HW230448   5.483  10.655   3.221 -0.7869 -1.0245  0.7438
 7800SOL     OW30449   5.900   9.356   0.787 -0.1519 -0.1494 -0.2718
 7800SOL    HW130450   5.866   9.267   0.782  1.4851 -0.8989  0.9706
 7800SOL    HW230451   5.893   9.389   0.698 -1.0555 -1.4054 -0.7008
 7801SOL     OW30452   6.225   0.280   6.944 -0.1319  0.6159  0.0820
 7801SOL    HW130453   6.196   0.253   6.856 -0.1338  0.4036  0.1480
 7801SOL    HW230454   6.217   0.375   6.943  0.6527  0.6897 -0.4322
 7802SOL     OW30455   0.159   2.349  11.241  0.2708 -0.2131 -0.5006
 7802SOL    HW130456   0.180   2.340  11.148  0.6216  0.2786 -0.4734
 7802SOL    HW230457   0.066   2.369  11.243 -0.0192 -1.4645 -0.6782
 7803SOL     OW30458   5.125   0.415   9.863 -0.3322  0.0237 -0.3562
 7803SOL    HW130459   5.163   0.484   9.917  1.4596 -0.8600 -0.3808
 7803SOL    HW230460   5.198   0.386   9.807 -1.5426 -0.5735 -1.7007
 7804SOL     OW30461   3.690   5.596  10.411  0.0207  0.0462 -0.1198
 7804SOL    HW130462   3.785   5.598  10.424  0.1002  1.6756 -0.7648
 7804SOL    HW230463   3.677   5.534  10.340  0.6765  0.3838 -0.5414
 7805SOL     OW30464   5.293  11.825   5.473  0.2110  0.0145  0.2716
 7805SOL    HW130465   5.319  11.815   5.565  0.0703 -1.6647  0.1604
 7805SOL    HW230466   5.353  11.768   5.425  1.0240  1.7215 -0.8467
 7806SOL     OW30467   1.275   2.394   5.360  0.2186 -0.3703 -0.6976
 7806SOL    HW130468   1.296   2.487   5.361  0.6874 -0.4758  0.7437
 7806SOL    HW230469   1.180   2.390   5.348 -0.3587  0.4390  2.7052
 7807SOL     OW30470   1.697   6.354   5.850  0.4499 -0.3909  0.2857
 7807SOL    HW130471   1.622   6.338   5.908  1.4577 -2.3844  1.1670
 7807SOL    HW230472   1.728   6.441   5.873 -1.8026  0.6775 -0.4075
 7808SOL     OW30473   4.646   4.081   4.266  0.0200  0.0003  0.4924
 7808SOL    HW130474   4.569   4.062   4.213 -0.0004  0.0935  0.4892
 7808SOL    HW230475   4.656   4.176   4.262  1.0220 -0.1218 -0.7612
 7809SOL     OW30476   2.096   9.100   3.825 -0.2927  0.1025  0.6774
 7809SOL    HW130477   2.163   9.167   3.813 -1.9966  1.7548 -0.2704
 7809SOL    HW230478   2.132   9.040   3.890  1.8807  1.1599  0.5262
 7810SOL     OW30479  10.190   2.897  12.308  0.3854 -0.0627  0.4342
 7810SOL    HW130480  10.159   2.976  12.353  0.8038  0.1925  0.2802
 7810SOL    HW230481  10.120   2.876  12.247 -0.2846 -0.5290  1.3391
 7811SOL     OW30482   7.682   6.253   1.210 -0.0959  0.1306 -0.1936
 7811SOL    HW130483   7.732   6.323   1.166  1.1746  0.1396  1.2170
 7811SOL    HW230484   7.591   6.278   1.196  0.2624  0.5594 -2.1185
 7812SOL     OW30485   6.649   3.514   8.943 -0.8542  0.0221 -1.1070
 7812SOL    HW130486   6.691   3.429   8.928 -0.7997 -0.6983  2.2818
 7812SOL    HW230487   6.715   3.565   8.989 -1.8643  0.8461 -0.5405
 7813SOL     OW30488   1.325   1.537   9.718  0.4621  0.4803 -0.1268
 7813SOL    HW130489   1.295   1.590   9.645  0.4879 -0.5773 -0.9346
 7813SOL    HW230490   1.404   1.494   9.686  0.8966  0.5633  0.7856
 7814SOL     OW30491  10.767   0.859  11.619  0.3436 -0.0348  0.2903
 7814SOL    HW130492  10.730   0.948  11.619  0.0445 -0.1532  0.5586
 7814SOL    HW230493  10.850   0.867  11.573  0.3757  0.4100  0.4199
 7815SOL     OW30494   7.456   5.191   3.730  0.4439  0.0689  0.2657
 7815SOL    HW130495   7.393   5.258   3.702 -1.0923 -2.0501 -1.6522
 7815SOL    HW230496   7.403   5.130   3.783  1.0993 -1.1506 -0.4420
 7816SOL     OW30497   6.386   8.147   5.808 -0.2083  0.0026  0.0407
 7816SOL    HW130498   6.457   8.185   5.861 -0.2547 -1.8571  1.5545
 7816SOL    HW230499   6.336   8.094   5.870 -0.3343 -2.2441 -1.8374
 7817SOL     OW30500   4.410   5.387   1.859 -0.1344 -0.1326 -0.1707
 7817SOL    HW130501   4.487   5.409   1.912 -0.6445  1.3292 -0.0072
 7817SOL    HW230502   4.418   5.293   1.844  1.0372 -0.2241  0.8712
 7818SOL     OW30503   9.061   9.677  10.731  0.2520 -0.0215 -1.1424
 7818SOL    HW130504   9.111   9.753  10.701  0.3166  0.1027 -0.7147
 7818SOL    HW230505   9.127   9.611  10.752  0.2076 -0.0885 -1.2120
 7819SOL     OW30506   6.016   9.502   9.148 -0.1524 -0.1053  0.1459
 7819SOL    HW130507   6.024   9.590   9.111  1.8655 -0.4987 -0.5081
 7819SOL    HW230508   6.008   9.444   9.072  2.0499 -0.7428  0.3115
 7820SOL     OW30509   2.631   9.727  11.647 -0.1037 -0.1836 -0.3054
 7820SOL    HW130510   2.564   9.788  11.679  1.6704  1.5291  0.3690
 7820SOL    HW230511   2.618   9.726  11.552 -0.5708  0.7815 -0.2739
 7821SOL     OW30512   4.983   7.911   3.290 -0.4380  0.3161  0.5843
 7821SOL    HW130513   4.913   7.967   3.256  0.2494  0.7661 -0.1187
 7821SOL    HW230514   4.991   7.936   3.382 -0.9179  0.5516  0.5632
 7822SOL     OW30515   5.062   7.921   9.958 -0.0457 -0.2114  0.2334
 7822SOL    HW130516   4.992   7.983   9.941 -0.1112  0.1568  1.6931
 7822SOL    HW230517   5.025   7.862  10.024  1.1966  0.3607  1.4892
 7823SOL     OW30518   8.521  11.442  12.229 -0.1213  0.9225 -0.2320
 7823SOL    HW130519   8.609  11.423  12.195 -0.6456  0.0284 -1.1490
 7823SOL    HW230520   8.499  11.366  12.283 -0.4861  0.9387 -0.3509
 7824SOL     OW30521   1.500  11.591  11.438 -0.2765 -0.0338 -0.0444
 7824SOL    HW130522   1.587  11.632  11.431  0.2755 -0.8525  1.4290
 7824SOL    HW230523   1.447  11.655  11.487 -0.0371 -0.1693  0.4024
 7825SOL     OW30524   2.702   4.473   4.612 -0.1671  0.8798 -0.1897
 7825SOL    HW130525   2.641   4.430   4.671  0.5719  0.6954  0.4600
 7825SOL    HW230526   2.650   4.496   4.535 -0.3473 -2.3797 -1.2105
 7826SOL     OW30527  12.102   3.905   3.044  0.1698  0.1784  0.5015
 7826SOL    HW130528  12.016   3.864   3.054  0.3856 -0.8873 -1.5148
 7826SOL    HW230529  12.085   3.999   3.047 -0.9464 -0.0248  0.9183
 7827SOL     OW30530   5.107   9.965   6.730 -0.2343  0.0337  0.3854
 7827SOL    HW130531   5.132   9.926   6.814 -0.2507  0.9080  0.8171
 7827SOL    HW230532   5.119  10.059   6.744  1.1701  0.1141 -1.0607
 7828SOL     OW30533  11.685   2.543   9.665  0.7165 -0.2940  0.2618
 7828SOL    HW130534  11.615   2.602   9.692  0.5459 -0.0746 -0.6207
 7828SOL    HW230535  11.759   2.566   9.721  0.4570  0.3320  0.3494
 7829SOL     OW30536   3.799   6.109   9.145  0.1650  0.9918 -0.9868
 7829SOL    HW130537   3.836   6.088   9.232 -2.8745  0.4226  0.2849
 7829SOL    HW230538   3.800   6.205   9.142 -1.0090  1.0842  0.3617
 7830SOL     OW30539   1.541   6.896   5.710  0.0669 -0.3939 -0.0747
 7830SOL    HW130540   1.568   6.960   5.644  1.1823 -0.9320 -0.1535
 7830SOL    HW230541   1.461   6.858   5.675 -0.2140  0.4399 -0.3688
 7831SOL     OW30542   8.820   2.069   7.117  0.0070  0.3843  0.4060
 7831SOL    HW130543   8.765   2.020   7.055  0.7358 -1.7805  1.3914
 7831SOL    HW230544   8.888   2.108   7.063  0.2976 -0.9869 -0.2661
 7832SOL     OW30545   4.506   1.800   8.784  0.1827  0.1297 -0.6121
 7832SOL    HW130546   4.503   1.894   8.768  0.2165  0.0799 -0.9221
 7832SOL    HW230547   4.465   1.761   8.706  0.0127 -0.1042 -0.4118
 7833SOL     OW30548  11.831  11.433  11.851  0.2937  0.0125 -1.3221
 7833SOL    HW130549  11.889  11.438  11.927  0.4651 -2.5216 -1.1951
 7833SOL    HW230550  11.802  11.523  11.837 -1.5729  0.4027  3.1590
 7834SOL     OW30551   1.569   4.645   4.444  0.4315 -0.3607  0.2867
 7834SOL    HW130552   1.500   4.594   4.403  0.5900  0.7463 -1.4697
 7834SOL    HW230553   1.638   4.581   4.463 -0.6864 -1.3255  1.2829
 7835SOL     OW30554   6.729   8.676   7.505 -0.5696 -0.0171  0.1391
 7835SOL    HW130555   6.711   8.686   7.599  0.1099  0.5098  0.2247
 7835SOL    HW230556   6.802   8.736   7.489  0.1970 -1.0832 -0.4538
 7836SOL     OW30557   0.328   2.474   2.078 -0.4663  0.0190 -0.0728
 7836SOL    HW130558   0.374   2.389   2.075 -0.9406 -0.2400 -0.0911
 7836SOL    HW230559   0.397   2.539   2.066 -0.2218 -0.4044 -1.0534
 7837SOL     OW30560   4.164   6.235   5.719 -0.0668 -0.0609 -0.1362
 7837SOL    HW130561   4.079   6.203   5.749 -0.1711  1.7171  1.6793
 7837SOL    HW230562   4.144   6.285   5.640 -0.9385  1.2621  0.8676
 7838SOL     OW30563   1.301   1.720  12.156  0.1708 -0.0093 -0.1847
 7838SOL    HW130564   1.222   1.667  12.164  0.5061 -0.5449 -0.3872
 7838SOL    HW230565   1.320   1.722  12.062  0.3199  0.2242 -0.1492
 7839SOL     OW30566   4.073   5.902   9.454 -0.1162 -0.4960 -0.1543
 7839SOL    HW130567   4.094   5.827   9.398  0.4406 -0.3617 -0.1302
 7839SOL    HW230568   4.046   5.971   9.393  0.4051 -0.3779 -0.2560
 7840SOL     OW30569   5.443   1.718   0.242  0.5150 -0.2106  0.4752
 7840SOL    HW130570   5.506   1.685   0.179 -0.2587 -1.0473  0.1302
 7840SOL    HW230571   5.399   1.640   0.276  0.5212  0.2673  1.6252
 7841SOL     OW30572   2.348   5.960  12.089  0.0407  0.6882  0.0995
 7841SOL    HW130573   2.339   6.001  12.174 -0.1792 -0.4108  0.6267
 7841SOL    HW230574   2.432   5.915  12.093  0.2510  1.0238 -0.4419
 7842SOL     OW30575   6.147  12.160   5.306  0.3747 -0.4568  0.5652
 7842SOL    HW130576   6.080  12.141   5.373  0.1407 -1.3679  0.0918
 7842SOL    HW230577   6.190  12.239   5.338 -0.0797 -0.5748  1.5343
 7843SOL     OW30578   5.755  11.239   7.577  0.3921 -0.1650 -0.2258
 7843SOL    HW130579   5.665  11.267   7.594 -0.6480 -3.0000 -0.5322
 7843SOL    HW230580   5.806  11.282   7.645 -1.6264 -0.5372  1.6516
 7844SOL     OW30581   7.412   1.527   8.571  0.2481  0.1698  0.4814
 7844SOL    HW130582   7.503   1.552   8.556  0.1937  0.4744  0.6607
 7844SOL    HW230583   7.416   1.432   8.587  0.6265  0.3013  1.2069
 7845SOL     OW30584  11.419   0.503   5.064  0.3487  0.0329 -0.2917
 7845SOL    HW130585  11.388   0.418   5.096 -2.0934  0.5409 -1.1036
 7845SOL    HW230586  11.464   0.541   5.140 -0.8943 -0.8664  0.9597
 7846SOL     OW30587   7.671   7.950   4.898 -0.5251 -0.0623 -0.0771
 7846SOL    HW130588   7.763   7.935   4.875 -0.5155  0.6092 -0.5011
 7846SOL    HW230589   7.622   7.895   4.838 -0.4459  0.6422 -0.8025
 7847SOL     OW30590   8.728   8.042  12.210 -0.2128  0.0526 -0.0982
 7847SOL    HW130591   8.714   8.019  12.119 -2.7198 -0.4997  0.3540
 7847SOL    HW230592   8.668   7.986  12.259  0.4727  0.9064  1.8411
 7848SOL     OW30593  10.609   1.879   0.872  0.0385  0.1101 -0.4689
 7848SOL    HW130594  10.532   1.929   0.900  0.8740  1.9075 -1.2232
 7848SOL    HW230595  10.599   1.871   0.778  0.4444 -0.2426 -0.4836
 7849SOL     OW30596   5.357   3.079   0.325 -0.0168  0.1160 -0.2003
 7849SOL    HW130597   5.331   3.157   0.276 -0.6843  0.7635  1.1399
 7849SOL    HW230598   5.453   3.076   0.316 -0.1722 -0.2882 -2.2253
 7850SOL     OW30599   0.673   3.006   3.958  0.2890  0.0307  0.1384
 7850SOL    HW130600   0.747   2.959   3.996  0.4216 -0.9663 -1.2758
 7850SOL    HW230601   0.603   2.941   3.951 -0.2733  0.6177  0.2025
 7851SOL     OW30602  11.881   2.194   3.803 -0.1236  0.0131  0.1605
 7851SOL    HW130603  11.935   2.258   3.758 -1.2195  0.0732 -1.1216
 7851SOL    HW230604  11.876   2.227   3.893  0.5968  0.8916 -0.1045
 7852SOL     OW30605   7.672   2.663  11.137  0.3770  0.1371 -0.5050
 7852SOL    HW130606   7.646   2.665  11.045  0.1144  1.1619 -0.4242
 7852SOL    HW230607   7.590   2.678  11.185  0.7273  1.1252 -0.1717
 7853SOL     OW30608  11.847   0.961   3.735 -0.1664  0.7199  0.0469
 7853SOL    HW130609  11.789   1.037   3.725 -2.3527 -1.1092 -2.6059
 7853SOL    HW230610  11.847   0.944   3.829  0.5445  3.9823  0.7774
 7854SOL     OW30611   2.412   0.621   4.950  0.3532 -0.6808  0.4215
 7854SOL    HW130612   2.448   0.614   5.039  1.4963  0.1832  0.0527
 7854SOL    HW230613   2.345   0.553   4.946 -0.1096 -0.3876  2.1333
 7855SOL     OW30614   6.530  10.551   8.833 -0.0557 -0.0751 -0.9729
 7855SOL    HW130615   6.542  10.457   8.846 -1.3826  0.0525  2.1703
 7855SOL    HW230616   6.439  10.560   8.805 -0.8630  0.3013  1.4779
 7856SOL     OW30617  12.421   9.861  11.887 -0.4167  0.1603  0.0664
 7856SOL    HW130618  12.512   9.882  11.912 -1.0548  1.8086  1.2227
 7856SOL    HW230619  12.408   9.772  11.918  0.3583  0.4470  1.2964
 7857SOL     OW30620  12.264  11.830  10.599  0.0591  0.2886 -0.6317
 7857SOL    HW130621  12.333  11.844  10.664  0.7784  1.8966 -1.6859
 7857SOL    HW230622  12.300  11.763  10.540  0.3250  0.4251 -0.6267
 7858SOL     OW30623   2.574  12.227   8.226 -0.4892  0.6631 -0.4194
 7858SOL    HW130624   2.488  12.244   8.263 -0.3289  1.4148 -0.3811
 7858SOL    HW230625   2.563  12.146   8.176 -1.1191  0.5543 -0.1092
 7859SOL     OW30626   7.314  11.574   3.723 -0.1527 -0.2057  0.4339
 7859SOL    HW130627   7.257  11.509   3.764 -0.9535  0.4480  0.4006
 7859SOL    HW230628   7.364  11.612   3.796 -0.0347 -0.5189  0.5167
 7860SOL     OW30629   6.968   7.687  10.858  0.3898  0.0649  0.1557
 7860SOL    HW130630   6.980   7.722  10.769 -0.2845  0.1655  0.0981
 7860SOL    HW230631   6.986   7.761  10.915 -0.5542  0.4012  0.0478
 7861SOL     OW30632   6.118   4.617   0.743 -0.0869 -0.1936  0.4522
 7861SOL    HW130633   6.065   4.621   0.664 -1.8292  1.8693  1.6489
 7861SOL    HW230634   6.116   4.705   0.779  0.6991 -1.0402  2.7856
 7862SOL     OW30635   5.350   8.479  10.208  0.7556  0.3349 -0.0710
 7862SOL    HW130636   5.417   8.429  10.161 -1.1571 -1.6553 -0.8467
 7862SOL    HW230637   5.284   8.499  10.142 -0.0923  1.0278  0.9499
 7863SOL     OW30638   5.985   6.172   3.490  0.3725  0.0742  0.3450
 7863SOL    HW130639   5.988   6.136   3.579  1.3092 -0.3320  0.1643
 7863SOL    HW230640   5.916   6.122   3.446 -1.8218  1.8950  1.4885
 7864SOL     OW30641   0.585   2.568   7.922 -0.5330 -0.2078  0.2775
 7864SOL    HW130642   0.623   2.639   7.871  0.0240  0.1550  1.1624
 7864SOL    HW230643   0.651   2.548   7.989 -0.2605 -2.2331 -0.5339
 7865SOL     OW30644   6.374   3.885   6.997  0.0480 -0.0410 -0.1762
 7865SOL    HW130645   6.287   3.846   7.003  0.1446 -0.5327 -1.5324
 7865SOL    HW230646   6.370   3.939   6.918  1.5285 -1.6115 -1.3939
 7866SOL     OW30647   2.581  12.410   5.322 -0.0284 -0.1926 -0.4171
 7866SOL    HW130648   2.496  12.453   5.315 -0.2615 -0.6478 -0.4214
 7866SOL    HW230649   2.642  12.471   5.280 -0.5619 -0.4513 -1.6154
 7867SOL     OW30650   0.453   4.727   7.138 -0.4287 -0.0806 -0.2742
 7867SOL    HW130651   0.542   4.725   7.102 -1.1297 -2.0521 -2.0640
 7867SOL    HW230652   0.422   4.636   7.132 -2.8290  0.6745 -0.3842
 7868SOL     OW30653   8.732   0.707  11.352 -0.1889  0.4483  0.1152
 7868SOL    HW130654   8.706   0.695  11.261 -0.9150 -0.6378  0.4420
 7868SOL    HW230655   8.688   0.636  11.399  0.2063  0.9630  1.3069
 7869SOL     OW30656  12.153   1.818  12.208 -0.2529 -0.4163 -0.4411
 7869SOL    HW130657  12.211   1.823  12.284 -0.8797 -1.6050  0.1465
 7869SOL    HW230658  12.064   1.816  12.246 -0.5346 -1.9703 -1.1417
 7870SOL     OW30659   8.595   8.640  12.552  0.6073  0.2152  0.0314
 7870SOL    HW130660   8.530   8.638  12.481  0.2516  1.9762  0.2491
 7870SOL    HW230661   8.679   8.641  12.507  0.4023  0.6492 -0.3497
 7871SOL     OW30662   6.811   2.281   3.649 -0.2160 -0.0801  0.1792
 7871SOL    HW130663   6.847   2.221   3.714  0.1218 -0.9344 -0.7709
 7871SOL    HW230664   6.855   2.258   3.567 -0.7001  0.9041 -0.3824
 7872SOL     OW30665   0.582  10.735   4.072 -0.1507  0.0390 -0.2504
 7872SOL    HW130666   0.584  10.827   4.046 -1.5574  0.5501  1.3121
 7872SOL    HW230667   0.541  10.735   4.158  0.8950 -1.9482  0.3110
 7873SOL     OW30668   0.466   1.220   5.173 -0.0296  0.5288  0.4205
 7873SOL    HW130669   0.437   1.268   5.251 -0.0102  0.2914  0.5748
 7873SOL    HW230670   0.560   1.237   5.168  0.1619 -0.3174  1.0551
 7874SOL     OW30671  10.291  11.767  12.490  0.1792 -0.4751  0.2824
 7874SOL    HW130672  10.345  11.705  12.440  0.7616  0.1109  0.1763
 7874SOL    HW230673  10.314  11.853  12.455 -1.6691 -0.2853 -0.5650
 7875SOL     OW30674  10.925  11.718  10.685 -0.0459 -0.1878  0.6715
 7875SOL    HW130675  10.996  11.667  10.723 -0.6946 -1.9014 -0.2980
 7875SOL    HW230676  10.968  11.773  10.619  0.5874  0.1391  1.3354
 7876SOL     OW30677  10.479   9.697   3.874 -0.0150  0.2282 -0.6155
 7876SOL    HW130678  10.562   9.722   3.914  0.1886 -1.0795 -0.1631
 7876SOL    HW230679  10.503   9.626   3.814 -0.5563  1.0586 -1.8590
 7877SOL     OW30680   5.676   8.865   1.375 -0.5764 -0.5492 -0.0450
 7877SOL    HW130681   5.690   8.851   1.281  0.2294 -1.8386  0.2380
 7877SOL    HW230682   5.734   8.937   1.398 -0.6050 -0.3815 -0.4906
 7878SOL     OW30683   2.877   0.387   9.278  0.2516 -0.1627  0.5317
 7878SOL    HW130684   2.889   0.435   9.196 -0.4543  0.7804  0.9527
 7878SOL    HW230685   2.950   0.416   9.333  1.4613 -1.7572 -0.1620
 7879SOL     OW30686   5.116  11.779  11.167 -0.6254 -0.0464 -0.3211
 7879SOL    HW130687   5.161  11.853  11.125 -0.3578 -0.1376 -0.1976
 7879SOL    HW230688   5.107  11.714  11.097 -0.0722 -0.2460 -0.2119
 7880SOL     OW30689   2.654   1.278  11.892  0.2326 -0.4548 -0.7970
 7880SOL    HW130690   2.742   1.301  11.864 -0.1818  1.5805 -0.6061
 7880SOL    HW230691   2.659   1.274  11.987  0.2116 -0.7233 -0.8081
 7881SOL     OW30692   5.755   7.663   8.946 -0.2208 -0.0893 -0.0780
 7881SOL    HW130693   5.823   7.598   8.960  1.0597  1.4353  1.1340
 7881SOL    HW230694   5.770   7.728   9.014 -3.0358  0.2148  0.3549
 7882SOL     OW30695   9.885   8.470   6.906  0.7486 -0.3442  0.2166
 7882SOL    HW130696   9.810   8.424   6.943  0.2305  1.9498  2.2576
 7882SOL    HW230697   9.960   8.416   6.930 -0.0142 -1.5070  0.0979
 7883SOL     OW30698   4.993   9.660   9.982  0.2099  0.2393  0.2599
 7883SOL    HW130699   4.903   9.687   9.968 -0.6777 -1.7369  1.5913
 7883SOL    HW230700   4.994   9.626  10.071  2.2013 -0.0771  0.1657
 7884SOL     OW30701  12.321   3.576   2.864 -0.6466 -0.5045  0.2379
 7884SOL    HW130702  12.334   3.504   2.926  2.0382 -1.2054 -0.9753
 7884SOL    HW230703  12.304   3.533   2.780  1.4406  0.1625 -0.5981
 7885SOL     OW30704   1.271   9.154   6.503  0.0060  0.0486 -0.2839
 7885SOL    HW130705   1.310   9.119   6.423 -0.3124 -1.1822  0.0804
 7885SOL    HW230706   1.309   9.241   6.512  3.5045 -1.4017  0.5915
 7886SOL     OW30707  11.946   1.894   0.039 -0.1072  0.3089  0.0926
 7886SOL    HW130708  11.851   1.884   0.030 -0.0247  0.4149 -1.0415
 7886SOL    HW230709  11.961   1.988   0.032 -0.0561  0.4905  2.0175
 7887SOL     OW30710   7.997   6.912  12.155  0.1169  0.0410 -0.1574
 7887SOL    HW130711   8.071   6.927  12.214 -0.0639 -0.7563  0.2845
 7887SOL    HW230712   8.006   6.820  12.129 -0.4458  0.0771 -0.4857
 7888SOL     OW30713   7.870   5.247   6.930 -0.2500 -0.0583  0.1268
 7888SOL    HW130714   7.811   5.239   6.855 -0.1841 -0.8817  0.1552
 7888SOL    HW230715   7.863   5.163   6.975  0.4079  0.0957  0.5297
 7889SOL     OW30716   2.456   7.655   0.655 -0.0361  0.0954  0.4415
 7889SOL    HW130717   2.457   7.611   0.739 -1.9307 -0.3188  0.2948
 7889SOL    HW230718   2.398   7.730   0.667 -0.5487 -0.1218 -0.5608
 7890SOL     OW30719  10.523   8.316   3.189  0.6619  0.2238  0.1824
 7890SOL    HW130720  10.592   8.250   3.186  1.3174  0.8433  1.3106
 7890SOL    HW230721  10.457   8.283   3.128  2.2282 -0.0302 -1.4583
 7891SOL     OW30722   3.458   9.709  10.675 -0.4813 -0.1079 -0.1256
 7891SOL    HW130723   3.433   9.671  10.759  0.5105  0.6993  0.5552
 7891SOL    HW230724   3.392   9.677  10.614 -0.8359 -1.2508  0.8238
 7892SOL     OW30725   9.133   2.076   9.164 -0.4067  0.2562  0.1798
 7892SOL    HW130726   9.181   2.125   9.097  3.1114  0.0762  2.3247
 7892SOL    HW230727   9.105   2.143   9.226 -0.4322  0.0784  0.3585
 7893SOL     OW30728   4.637   8.970   4.709  0.0728 -0.7578 -0.2821
 7893SOL    HW130729   4.693   8.929   4.775  2.7220  0.2421 -1.7110
 7893SOL    HW230730   4.559   8.915   4.705  1.7986 -3.4769  0.4764
 7894SOL     OW30731   8.295   0.812   7.462 -0.1052  0.0953  0.4507
 7894SOL    HW130732   8.368   0.855   7.417  0.7456  0.6618  2.2859
 7894SOL    HW230733   8.329   0.725   7.483 -0.7893 -0.4637 -0.6575
 7895SOL     OW30734  11.379  12.239   4.417  0.3964  0.3879 -0.0594
 7895SOL    HW130735  11.470  12.211   4.430  0.2161 -0.4435 -0.5146
 7895SOL    HW230736  11.386  12.323   4.372  0.9566  1.1057  1.3125
 7896SOL     OW30737  10.167   7.291   9.009 -0.3925  0.4721 -0.1020
 7896SOL    HW130738  10.120   7.276   8.927  0.1835  0.7688 -0.4890
 7896SOL    HW230739  10.199   7.381   9.003  0.0387  0.3460  0.2551
 7897SOL     OW30740  10.054   4.950   7.446  0.2429 -0.8543  0.3540
 7897SOL    HW130741  10.012   5.036   7.454 -1.1181 -1.1563 -2.5983
 7897SOL    HW230742  10.127   4.965   7.387  0.7687 -1.5201  0.8202
 7898SOL     OW30743   4.321   0.863   5.869 -0.0614  0.1941  0.3896
 7898SOL    HW130744   4.349   0.775   5.893  0.7673 -0.0537 -1.2927
 7898SOL    HW230745   4.266   0.851   5.792  1.8112  1.2355 -1.2053
 7899SOL     OW30746   7.305   5.468   1.900 -0.2399  0.2305  0.1801
 7899SOL    HW130747   7.237   5.403   1.916 -0.2646  0.4152  0.8569
 7899SOL    HW230748   7.289   5.537   1.965  0.2099  0.5769 -0.0656
 7900SOL     OW30749   1.678   4.167  11.673  0.1270  0.4958  0.2418
 7900SOL    HW130750   1.654   4.193  11.584  2.9887  1.5251 -0.3206
 7900SOL    HW230751   1.657   4.244  11.726 -0.8927  0.1482  0.3662
 7901SOL     OW30752   3.641   1.479  11.570  0.1382 -0.2191  0.5856
 7901SOL    HW130753   3.704   1.471  11.498 -0.6722  0.0909 -0.1830
 7901SOL    HW230754   3.596   1.394  11.571 -2.5309  0.9717 -1.9046
 7902SOL     OW30755   5.622  11.329   9.891 -0.0010  0.1520  0.1768
 7902SOL    HW130756   5.674  11.271   9.835  1.6522  1.8042 -0.1054
 7902SOL    HW230757   5.681  11.352   9.963 -0.5571  1.5751  0.2120
 7903SOL     OW30758   1.860   1.718  12.215 -0.0412  0.2050 -0.1108
 7903SOL    HW130759   1.884   1.656  12.283 -1.4753 -0.5006 -0.2125
 7903SOL    HW230760   1.788   1.676  12.168 -0.2294  1.4153 -0.9659
 7904SOL     OW30761   7.785   2.963   0.976  0.1626  0.2990  0.0742
 7904SOL    HW130762   7.692   2.946   0.984  0.3761 -1.0256 -0.1104
 7904SOL    HW230763   7.824   2.925   1.055  0.4222  2.0436  0.8399
 7905SOL     OW30764   3.109   6.224  12.537  0.3777  0.5147  0.4146
 7905SOL    HW130765   3.133   6.208  12.628 -0.7216 -0.8846  0.4916
 7905SOL    HW230766   3.017   6.251  12.541 -0.1059 -0.8925 -0.3370
 7906SOL     OW30767   8.398  10.401  10.167 -0.1207 -0.6956  1.0472
 7906SOL    HW130768   8.460  10.434  10.101 -1.8498  0.2168 -0.1840
 7906SOL    HW230769   8.414  10.455  10.244 -0.1262  0.2913  0.3717
 7907SOL     OW30770  11.123   5.049   5.530  0.3113  0.2514  0.2899
 7907SOL    HW130771  11.115   4.994   5.452 -1.0866 -0.6740  1.0311
 7907SOL    HW230772  11.041   5.035   5.577  1.7632 -0.5478  2.7567
 7908SOL     OW30773   3.021   3.621   5.675  0.2738  0.1216 -0.3438
 7908SOL    HW130774   3.028   3.525   5.675  0.7849  0.1543 -1.0994
 7908SOL    HW230775   3.017   3.644   5.768  2.6840 -0.4658 -0.0469
 7909SOL     OW30776   8.276   6.612  10.896  0.3802 -0.1202 -0.1539
 7909SOL    HW130777   8.371   6.620  10.887  0.3989 -1.0443 -1.0391
 7909SOL    HW230778   8.242   6.695  10.862  0.8877  0.4635  0.7492
 7910SOL     OW30779   1.756   9.693  12.032  0.6498  0.8717 -0.0783
 7910SOL    HW130780   1.694   9.711  12.103  0.4290 -1.4770  0.3815
 7910SOL    HW230781   1.729   9.753  11.962 -0.8011  1.3617  0.8558
 7911SOL     OW30782   3.623   5.131   8.035 -0.1477 -0.5850  0.1432
 7911SOL    HW130783   3.709   5.163   8.061 -0.3110 -0.5781  0.6854
 7911SOL    HW230784   3.569   5.141   8.113 -0.4417 -1.3172  0.0458
 7912SOL     OW30785   2.054   1.507   8.596 -0.0092 -0.3261 -0.0621
 7912SOL    HW130786   2.067   1.414   8.616 -1.1858 -0.5496 -0.2441
 7912SOL    HW230787   2.138   1.536   8.561  0.3441 -1.3565 -0.1091
 7913SOL     OW30788  10.556  11.677   9.742  0.0541 -0.2997 -0.4149
 7913SOL    HW130789  10.500  11.711   9.812  1.3114  1.5694 -0.2360
 7913SOL    HW230790  10.642  11.668   9.782  0.4879 -0.5398 -1.3639
 7914SOL     OW30791   8.083   7.313   8.340 -0.1056  0.8706 -0.3983
 7914SOL    HW130792   7.988   7.327   8.333 -0.2585 -0.5804 -2.5782
 7914SOL    HW230793   8.093   7.218   8.332  1.5678  1.0533 -0.8354
 7915SOL     OW30794  12.434   9.422  10.849 -0.3729 -0.2802  0.1376
 7915SOL    HW130795  12.456   9.513  10.870 -1.7800 -0.0162  0.5990
 7915SOL    HW230796  12.515   9.385  10.815 -0.0667  1.4768 -1.1831
 7916SOL     OW30797   5.037  10.245   7.663  0.9501  0.1725  0.1490
 7916SOL    HW130798   5.120  10.260   7.618  1.9452 -1.0950  1.4559
 7916SOL    HW230799   5.061  10.239   7.756 -0.4400 -1.2966  0.4550
 7917SOL     OW30800   9.709   0.522  11.997 -0.0733  0.6652 -0.3812
 7917SOL    HW130801   9.622   0.511  11.958 -0.3628  0.3027  0.3419
 7917SOL    HW230802   9.770   0.511  11.924 -0.5245 -1.8099 -0.4588
 7918SOL     OW30803   7.638  10.336   9.141  0.7860 -0.2505  0.1955
 7918SOL    HW130804   7.682  10.361   9.060  1.6516 -1.2537  0.3282
 7918SOL    HW230805   7.709  10.310   9.200  0.0693 -1.1922  0.6724
 7919SOL     OW30806   6.339  11.296   3.808 -0.6174 -0.9519  0.4177
 7919SOL    HW130807   6.273  11.228   3.796  0.2001 -1.5275 -1.1717
 7919SOL    HW230808   6.369  11.285   3.898 -0.2976 -2.9185  0.1092
 7920SOL     OW30809   4.399   0.133   9.172 -0.3558 -0.3309  0.3146
 7920SOL    HW130810   4.402   0.133   9.076 -1.7487 -1.1393  0.2424
 7920SOL    HW230811   4.349   0.211   9.195 -2.1128 -1.3986  0.2489
 7921SOL     OW30812   6.258   7.044   1.586 -0.0480 -0.0985 -0.2581
 7921SOL    HW130813   6.268   7.139   1.592 -1.7739  0.1060 -0.2255
 7921SOL    HW230814   6.341   7.010   1.617  0.2651  1.3830  0.6579
 7922SOL     OW30815   4.880   9.933  11.065  0.2101  0.8502  0.9112
 7922SOL    HW130816   4.802   9.877  11.077 -0.6878  1.8864  0.1160
 7922SOL    HW230817   4.933   9.885  11.002  0.8338 -0.4471  2.3479
 7923SOL     OW30818  12.357   9.488   7.026 -0.0647 -1.0168 -0.1412
 7923SOL    HW130819  12.386   9.397   7.033  1.4006 -0.5264  0.4942
 7923SOL    HW230820  12.309   9.504   7.108  2.4487 -0.3157  1.2953
 7924SOL     OW30821   7.496   7.226   5.409  0.1150 -0.6657  0.1199
 7924SOL    HW130822   7.467   7.144   5.368 -2.5632  0.2379  0.0098
 7924SOL    HW230823   7.482   7.293   5.342  1.5909  0.0088  0.4466
 7925SOL     OW30824   2.600   9.837   7.516 -0.4428 -0.2591 -0.3063
 7925SOL    HW130825   2.552   9.759   7.543 -2.1594  1.6771  2.9409
 7925SOL    HW230826   2.671   9.845   7.580  0.8702 -0.0996 -1.7198
 7926SOL     OW30827   6.047   9.559  11.044  0.1566 -0.7411  0.2987
 7926SOL    HW130828   6.131   9.593  11.012  0.7789  0.5612  3.0189
 7926SOL    HW230829   5.985   9.630  11.027  0.2439 -0.5110  0.9411
 7927SOL     OW30830   9.515   7.004   1.112  0.1569 -0.2057  0.0907
 7927SOL    HW130831   9.528   7.063   1.037 -0.8676  0.0906  0.1311
 7927SOL    HW230832   9.590   6.945   1.109  1.3205  1.2097  0.1531
 7928SOL     OW30833   7.526   2.200   5.800 -0.0213  0.0276  0.0661
 7928SOL    HW130834   7.562   2.255   5.731 -1.5147  0.5774 -0.3060
 7928SOL    HW230835   7.442   2.240   5.822 -0.9155 -1.8073  0.1596
 7929SOL     OW30836  11.624   5.104   7.064  0.0888  0.5473 -0.3189
 7929SOL    HW130837  11.599   5.196   7.057 -0.1232  0.8615  2.9495
 7929SOL    HW230838  11.628   5.087   7.158 -0.6811 -3.0307 -0.7728
 7930SOL     OW30839   4.123  10.922   9.274  0.0688 -0.1958 -0.3217
 7930SOL    HW130840   4.062  10.976   9.323  0.3266 -0.8664  0.7666
 7930SOL    HW230841   4.170  10.983   9.218 -1.1919  0.3981 -0.7618
 7931SOL     OW30842   8.911   5.364  11.649 -0.2348  0.3615 -0.1378
 7931SOL    HW130843   8.933   5.449  11.688 -0.0060 -0.6506  2.1284
 7931SOL    HW230844   8.995   5.327  11.623  0.0633 -0.4083  1.7370
 7932SOL     OW30845  10.528   9.790   0.167 -0.1040  0.0123 -0.3540
 7932SOL    HW130846  10.529   9.820   0.258 -2.1994  0.9013 -0.5693
 7932SOL    HW230847  10.595   9.843   0.124  0.8051 -0.3106  0.6158
 7933SOL     OW30848   1.247   0.759  10.737  0.3589 -0.5469  0.0326
 7933SOL    HW130849   1.266   0.766  10.644  0.5725 -2.6162 -0.1239
 7933SOL    HW230850   1.155   0.785  10.745  0.5747  0.4648 -0.5942
 7934SOL     OW30851   5.663   4.171   2.063  0.2759  0.0389  0.0452
 7934SOL    HW130852   5.569   4.188   2.075  0.3316 -0.0431  0.6268
 7934SOL    HW230853   5.689   4.125   2.143  0.2363 -2.3880 -1.2568
 7935SOL     OW30854   8.157  11.645  10.191  0.1675 -0.2884 -0.4171
 7935SOL    HW130855   8.249  11.642  10.215  0.1027  1.7139  0.3330
 7935SOL    HW230856   8.157  11.675  10.100  0.2630 -0.7166 -0.5585
 7936SOL     OW30857   7.633  11.944  11.309 -0.1953  0.0105  0.2174
 7936SOL    HW130858   7.671  11.860  11.333  0.8559  0.4338  0.1306
 7936SOL    HW230859   7.668  11.962  11.222 -1.0362  0.1817 -0.0945
 7937SOL     OW30860   0.825  10.649   8.806  0.1676 -0.9090  0.1146
 7937SOL    HW130861   0.905  10.703   8.801 -0.8387  0.5582 -1.1643
 7937SOL    HW230862   0.851  10.565   8.769  1.5912 -1.0943  1.4431
 7938SOL     OW30863   1.805   8.199   1.526  0.4402  0.1638 -0.1020
 7938SOL    HW130864   1.723   8.149   1.532  1.6558 -1.9155  0.1636
 7938SOL    HW230865   1.806   8.232   1.436 -1.1518  1.1320  0.1941
 7939SOL     OW30866  12.236  11.041   7.527 -0.4387  0.0573  0.1784
 7939SOL    HW130867  12.168  10.980   7.500 -0.8903  1.3462 -1.7569
 7939SOL    HW230868  12.318  10.993   7.515 -0.7459 -0.0198 -1.8645
 7940SOL     OW30869   0.468   8.286  12.522  0.1471  0.4498  0.3384
 7940SOL    HW130870   0.439   8.198  12.542 -2.0178  1.3055  1.2062
 7940SOL    HW230871   0.505   8.319  12.603  1.3631  0.2220 -0.1020
 7941SOL     OW30872  11.254  10.075   9.661 -0.2917 -0.3249 -0.6863
 7941SOL    HW130873  11.252  10.156   9.610  0.7516 -0.8523 -1.6065
 7941SOL    HW230874  11.178  10.026   9.631 -0.4257 -0.0688 -0.7729
 7942SOL     OW30875   4.149   0.354   4.463  0.4811 -0.2300 -0.3985
 7942SOL    HW130876   4.154   0.266   4.501 -0.3162 -0.2344 -0.2780
 7942SOL    HW230877   4.057   0.364   4.438  0.4690  0.7388 -0.0093
 7943SOL     OW30878   9.494  12.400   2.151  0.5877 -0.4055  0.3053
 7943SOL    HW130879   9.557  12.328   2.150  1.4776  0.2772  2.1762
 7943SOL    HW230880   9.476  12.415   2.243 -0.7384  0.7995 -0.1138
 7944SOL     OW30881  12.415   8.156   8.096  0.0423  0.1744  0.1523
 7944SOL    HW130882  12.349   8.216   8.130  0.8541  0.7157  0.7884
 7944SOL    HW230883  12.396   8.072   8.139 -0.3576  0.2703  0.1665
 7945SOL     OW30884   6.164   9.138   1.675 -0.7494  0.5682 -0.1950
 7945SOL    HW130885   6.080   9.184   1.674 -2.0277 -1.4518 -3.4130
 7945SOL    HW230886   6.147   9.057   1.723 -0.9609 -0.1985 -1.4982
 7946SOL     OW30887   4.886   4.175   0.418  0.2312 -0.5248  0.1039
 7946SOL    HW130888   4.963   4.138   0.460  1.0100 -0.4355 -1.1728
 7946SOL    HW230889   4.899   4.270   0.423  0.6746 -0.5130 -0.8690
 7947SOL     OW30890  12.553   6.239   0.013 -0.1569  0.2050 -0.2698
 7947SOL    HW130891  12.626   6.301   0.020 -0.5421  0.5375  1.1324
 7947SOL    HW230892  12.492   6.280  -0.048  0.5689  0.1873 -1.0165
 7948SOL     OW30893   6.276   4.688   4.414  0.1035 -0.1835  0.5094
 7948SOL    HW130894   6.221   4.665   4.339 -1.5395 -2.5033  2.2785
 7948SOL    HW230895   6.267   4.783   4.423 -1.6604 -0.1894 -0.7558
 7949SOL     OW30896  11.262   0.956   8.166  0.1299  0.1965  0.0564
 7949SOL    HW130897  11.294   1.026   8.110 -0.8663  0.1206 -0.6169
 7949SOL    HW230898  11.217   1.001   8.238  0.2044  0.2549  0.0670
 7950SOL     OW30899  10.328   4.428   5.079  0.3421 -0.0849 -0.2257
 7950SOL    HW130900  10.307   4.352   5.134 -0.4075  0.7156  0.6377
 7950SOL    HW230901  10.255   4.489   5.095  1.9021  1.6465  0.6629
 7951SOL     OW30902   3.492  11.821   9.019 -0.0280 -0.4795 -0.1612
 7951SOL    HW130903   3.441  11.744   9.044 -1.9812  0.7594 -0.1017
 7951SOL    HW230904   3.442  11.895   9.053  2.0342  0.8352  0.2386
 7952SOL     OW30905   7.354  11.857   3.578 -0.4097  0.3748  0.0167
 7952SOL    HW130906   7.346  11.943   3.617  0.1463  0.4295  0.0206
 7952SOL    HW230907   7.429  11.864   3.518 -1.1508  0.2570 -0.9562
 7953SOL     OW30908   1.845   2.939   0.796  0.5849  0.3071  0.4037
 7953SOL    HW130909   1.824   2.873   0.730 -2.7126  1.9180 -0.3746
 7953SOL    HW230910   1.779   2.927   0.864  0.5079  2.1371  0.7010
 7954SOL     OW30911  11.013   7.601   4.937  0.2580 -0.6621  1.0344
 7954SOL    HW130912  10.933   7.549   4.943 -0.5706  0.6363  2.0011
 7954SOL    HW230913  11.003   7.668   5.005  0.8886  1.2565 -0.6629
 7955SOL     OW30914   8.947   0.675  11.973  0.7247  0.2553 -0.5325
 7955SOL    HW130915   8.881   0.660  11.905 -0.3168  0.4573  0.4005
 7955SOL    HW230916   8.980   0.763  11.955 -0.0942  0.6143 -0.3497
 7956SOL     OW30917   5.605   1.197  11.453  0.5064 -0.3957 -0.3727
 7956SOL    HW130918   5.698   1.185  11.432  0.1680  0.6504 -2.7845
 7956SOL    HW230919   5.576   1.267  11.395 -1.8077 -0.6569  0.3669
 7957SOL     OW30920  11.839   9.836   8.413 -0.0625  0.2306 -0.3605
 7957SOL    HW130921  11.760   9.790   8.442 -0.0699 -1.8266 -3.2083
 7957SOL    HW230922  11.907   9.807   8.474 -1.2876  1.5181  1.7291
 7958SOL     OW30923  10.609   3.544   1.626 -0.3509  0.3476  0.2141
 7958SOL    HW130924  10.572   3.628   1.654 -1.5367  0.3230 -1.1779
 7958SOL    HW230925  10.668   3.567   1.554 -1.7411 -0.0925 -1.1256
 7959SOL     OW30926  10.031   7.907   6.042  0.0700 -0.5089 -0.1569
 7959SOL    HW130927   9.993   7.888   6.128 -1.4375  0.2029 -0.6417
 7959SOL    HW230928  10.087   7.831   6.024 -0.4501 -1.1948  0.9666
 7960SOL     OW30929   6.079   8.966   8.768  0.0502  0.4048  0.2816
 7960SOL    HW130930   6.049   8.879   8.743 -1.3625  0.8921  0.1783
 7960SOL    HW230931   5.999   9.014   8.790  0.8872  1.3453  1.4149
 7961SOL     OW30932  12.495   4.970  10.581 -0.3175  0.0376 -0.4775
 7961SOL    HW130933  12.582   4.948  10.614  0.0099 -0.7121 -1.7884
 7961SOL    HW230934  12.508   4.986  10.488 -1.9075 -2.2946 -1.1832
 7962SOL     OW30935   7.835   6.948   2.789  0.2574 -0.1931  0.3281
 7962SOL    HW130936   7.761   6.951   2.729  0.9296 -0.0940 -0.5256
 7962SOL    HW230937   7.816   6.876   2.849 -0.4404 -0.2780  0.0067
 7963SOL     OW30938   8.647   6.481   5.037 -0.7720  0.4836 -0.1577
 7963SOL    HW130939   8.595   6.542   5.089 -1.1161  1.5662 -1.6947
 7963SOL    HW230940   8.732   6.524   5.028 -0.0277 -0.6400  1.1720
 7964SOL     OW30941   6.820   2.245   2.499  0.0979  0.1607  0.4828
 7964SOL    HW130942   6.846   2.330   2.537  0.0762 -0.3255  1.6400
 7964SOL    HW230943   6.832   2.183   2.571  0.3305 -0.8617 -0.4191
 7965SOL     OW30944   7.111   3.182   7.431  0.0751  0.0382 -0.1516
 7965SOL    HW130945   7.046   3.237   7.476 -0.5863 -0.7449 -0.1210
 7965SOL    HW230946   7.059   3.127   7.372  0.9082  0.9636 -1.8292
 7966SOL     OW30947   8.623  11.757   5.565  0.6527 -0.3443 -0.1154
 7966SOL    HW130948   8.645  11.845   5.597  0.3411 -0.0641 -0.6591
 7966SOL    HW230949   8.668  11.751   5.480  1.1842 -0.9449  0.2018
 7967SOL     OW30950   7.704   3.410   9.957 -0.2230 -0.0032 -0.0463
 7967SOL    HW130951   7.708   3.405  10.053  2.1982 -1.6091 -0.1446
 7967SOL    HW230952   7.666   3.327   9.930  0.0983 -0.0035 -0.5073
 7968SOL     OW30953  10.837  11.220  11.255 -0.0146  0.2129 -0.1223
 7968SOL    HW130954  10.851  11.256  11.343  0.3218  1.6618 -0.7255
 7968SOL    HW230955  10.763  11.271  11.220  0.3998  0.2467 -0.9729
 7969SOL     OW30956   3.985   4.034   8.821 -0.2577  0.3825 -0.1852
 7969SOL    HW130957   4.029   3.949   8.816 -0.6657  0.2087 -1.1273
 7969SOL    HW230958   3.976   4.062   8.729 -0.4306  1.2834  0.0974
 7970SOL     OW30959   0.421   0.610   2.576 -0.4225  0.4865  0.0645
 7970SOL    HW130960   0.472   0.597   2.496 -0.5387  1.9635 -0.2702
 7970SOL    HW230961   0.468   0.560   2.643  0.0784 -0.1761 -0.7622
 7971SOL     OW30962   5.222   0.370   2.657  0.4137 -0.5506 -0.5257
 7971SOL    HW130963   5.293   0.311   2.631  0.5953 -0.1634 -0.9363
 7971SOL    HW230964   5.267   0.449   2.686  0.1450  0.1271 -1.8699
 7972SOL     OW30965   1.522  10.950   4.814  0.5961 -0.0813  0.1521
 7972SOL    HW130966   1.582  10.894   4.863  0.8164  0.8419  0.9690
 7972SOL    HW230967   1.564  11.036   4.813  0.0682  0.1880 -0.7207
 7973SOL     OW30968  12.262  12.472   9.111  1.0659  0.3267  0.5475
 7973SOL    HW130969  12.293  12.382   9.121 -0.1170 -0.1657  0.0417
 7973SOL    HW230970  12.280  12.514   9.195  0.1013 -0.8792  1.3994
 7974SOL     OW30971  11.054   2.416   2.364  0.0855  0.2649  0.2327
 7974SOL    HW130972  10.999   2.368   2.302  1.4608 -0.9938 -0.0713
 7974SOL    HW230973  11.014   2.400   2.450  0.7485 -1.8374  0.1965
 7975SOL     OW30974  10.327   0.232   2.589 -0.0003 -0.2034  0.1419
 7975SOL    HW130975  10.387   0.212   2.516  0.8120  0.6260  0.5595
 7975SOL    HW230976  10.367   0.308   2.632 -1.8050  0.9141 -0.0609
 7976SOL     OW30977   8.028   0.669   2.719  0.1728  0.0256 -0.4032
 7976SOL    HW130978   8.106   0.651   2.773 -0.3881 -0.7597  0.1644
 7976SOL    HW230979   7.966   0.600   2.743 -0.4567  0.2539 -1.3446
 7977SOL     OW30980  11.025  11.416   4.245  0.7554 -0.7097 -0.5418
 7977SOL    HW130981  10.990  11.341   4.294 -1.7823 -0.1316 -1.3062
 7977SOL    HW230982  11.119  11.411   4.257  0.3951 -1.6242  2.8854
 7978SOL     OW30983   1.261   7.420   2.402  0.0162 -0.1641 -0.2682
 7978SOL    HW130984   1.261   7.462   2.488 -2.7437  2.4062 -1.3077
 7978SOL    HW230985   1.314   7.479   2.347  1.5595 -1.6532 -0.4491
 7979SOL     OW30986   0.899  12.575   7.699  0.0313 -0.2263  0.3748
 7979SOL    HW130987   0.935  12.664   7.709  1.2787 -0.4629 -1.4535
 7979SOL    HW230988   0.810  12.582   7.733  0.3746  1.5058  1.0703
 7980SOL     OW30989   4.593   3.818  12.322  0.2780  0.3184  0.1917
 7980SOL    HW130990   4.505   3.801  12.288  0.4088 -2.8903  1.1156
 7980SOL    HW230991   4.634   3.873  12.256 -1.7558  0.1520 -1.2993
 7981SOL     OW30992  12.067   9.406   0.531 -1.0173  0.5264 -0.1289
 7981SOL    HW130993  11.987   9.450   0.502 -1.9429 -0.3232  1.0201
 7981SOL    HW230994  12.112   9.472   0.584 -1.4114  0.7246 -0.0377
 7982SOL     OW30995   5.408   5.859   2.009 -0.3594 -0.6388 -0.1916
 7982SOL    HW130996   5.380   5.767   2.002  4.0892 -2.1951 -1.1139
 7982SOL    HW230997   5.413   5.875   2.103 -1.0136 -1.3689 -0.0123
 7983SOL     OW30998   3.495   7.775  12.322  0.2207 -0.2536  0.4564
 7983SOL    HW130999   3.548   7.700  12.297 -0.4795 -0.5812 -0.0704
 7983SOL    HW231000   3.502   7.836  12.248  0.0391 -0.2017  0.4808
 7984SOL     OW31001   4.201  11.180   5.933 -0.1393 -0.1206 -0.1321
 7984SOL    HW131002   4.202  11.264   5.979 -1.0690  0.5405 -1.2842
 7984SOL    HW231003   4.218  11.202   5.842 -1.3296 -1.0734 -0.6075
 7985SOL     OW31004   2.646   0.074   1.895  0.2053  0.3082 -0.1144
 7985SOL    HW131005   2.693   0.005   1.941  0.8440  0.3946 -0.6152
 7985SOL    HW231006   2.555   0.045   1.893 -0.0580  0.7960  2.1259
 7986SOL     OW31007   0.275  11.037   1.117 -0.5145  0.3099 -0.1827
 7986SOL    HW131008   0.243  10.948   1.127 -0.6075  0.5188  1.6488
 7986SOL    HW231009   0.212  11.091   1.164  0.0131  1.2520 -0.5283
 7987SOL     OW31010   2.076   0.582   7.002  0.1924 -0.2923 -0.6289
 7987SOL    HW131011   2.122   0.588   6.918  0.0280 -0.3631 -0.7249
 7987SOL    HW231012   2.010   0.514   6.988  1.4342 -1.7219  0.1527
 7988SOL     OW31013  11.145   1.857   6.955  0.1896 -0.2264 -0.1104
 7988SOL    HW131014  11.180   1.773   6.986 -1.2686 -0.2047  1.8090
 7988SOL    HW231015  11.202   1.922   6.996  1.5210 -0.2291 -1.8597
 7989SOL     OW31016   8.311   4.968   9.035  0.6437 -0.2749  0.8411
 7989SOL    HW131017   8.387   4.954   9.091  1.6093 -1.1729 -0.6092
 7989SOL    HW231018   8.235   4.951   9.091  1.5821 -2.0547  1.6536
 7990SOL     OW31019   8.878   9.232   5.669  0.2928  0.3237 -0.6344
 7990SOL    HW131020   8.920   9.190   5.595  2.8903 -1.2178  1.5347
 7990SOL    HW231021   8.943   9.294   5.702 -1.0051  1.3825  0.0528
 7991SOL     OW31022   2.986   8.636   2.815 -0.1375  0.1390  0.3700
 7991SOL    HW131023   2.968   8.653   2.907  0.8099 -0.7723  0.7443
 7991SOL    HW231024   3.078   8.607   2.813  0.2499  1.3121 -1.0111
 7992SOL     OW31025   1.976   4.589   0.351 -0.5392 -0.5270  0.5009
 7992SOL    HW131026   2.029   4.645   0.408  0.1900  0.0041 -0.6462
 7992SOL    HW231027   1.999   4.500   0.378 -0.0252 -0.2923  0.8772
 7993SOL     OW31028   7.419   5.130   1.263  1.0148  0.0900  0.1853
 7993SOL    HW131029   7.416   5.035   1.271 -2.1127  0.1687  1.3742
 7993SOL    HW231030   7.452   5.161   1.347 -1.2609  0.0370  1.1927
 7994SOL     OW31031   5.370   0.792  10.177 -0.1931  0.3900  0.3870
 7994SOL    HW131032   5.374   0.875  10.226 -0.2134  0.3325  0.4856
 7994SOL    HW231033   5.459   0.758  10.180  0.1182  1.0325 -0.7333
 7995SOL     OW31034   8.134   7.572   7.107 -0.4179  0.4106  0.3910
 7995SOL    HW131035   8.200   7.554   7.040 -2.1124 -0.0439 -1.2314
 7995SOL    HW231036   8.103   7.486   7.133 -0.6498  0.6355  0.8620
 7996SOL     OW31037   9.321   6.426   6.990  0.3257  0.0937  0.1567
 7996SOL    HW131038   9.376   6.396   7.063 -1.2299 -1.3226  0.8160
 7996SOL    HW231039   9.348   6.371   6.916  1.7143  1.3454 -0.3188
 7997SOL     OW31040   5.696   8.376   2.542 -0.1995 -0.2555  0.2177
 7997SOL    HW131041   5.771   8.331   2.580 -1.1960 -0.6049  1.8444
 7997SOL    HW231042   5.624   8.359   2.602 -1.5219  0.3617 -1.1180
 7998SOL     OW31043   1.734   4.135   1.507  0.5882 -0.2590  0.5140
 7998SOL    HW131044   1.812   4.096   1.549  0.7359 -1.7939 -1.0859
 7998SOL    HW231045   1.663   4.117   1.569  1.6334  2.4442  2.7180
 7999SOL     OW31046  10.989   6.617   4.322 -0.4412 -0.5775  0.4369
 7999SOL    HW131047  10.907   6.633   4.369  0.5753 -0.9387  2.4615
 7999SOL    HW231048  11.005   6.698   4.273 -1.3802 -0.0161  1.0318
 8000SOL     OW31049  11.204   5.278   8.582  0.4446 -0.3568  0.9262
 8000SOL    HW131050  11.162   5.192   8.581  0.1878 -0.3529 -2.6844
 8000SOL    HW231051  11.274   5.271   8.517  2.2745  1.3845  2.5750
 8001SOL     OW31052   1.028   5.810   9.573 -0.6956  0.0263  0.1988
 8001SOL    HW131053   1.009   5.720   9.601 -0.1851 -0.3847 -0.7514
 8001SOL    HW231054   1.034   5.859   9.655  1.4541 -1.2802  0.9012
 8002SOL     OW31055   0.407  12.018   0.685  0.0890 -0.2634 -0.1466
 8002SOL    HW131056   0.492  12.033   0.642 -0.7323  1.0129 -1.4271
 8002SOL    HW231057   0.343  12.052   0.622 -1.1877  1.8916  2.1544
 8003SOL     OW31058   4.603   0.838  11.386 -0.3062  0.4037 -0.5661
 8003SOL    HW131059   4.591   0.882  11.302 -0.7350 -0.0229 -0.7276
 8003SOL    HW231060   4.639   0.752  11.363 -0.5856  0.2232 -0.3217
 8004SOL     OW31061  10.578   6.498   8.393  0.1477 -0.2095 -0.0308
 8004SOL    HW131062  10.512   6.517   8.327 -2.0425 -0.0104  2.0448
 8004SOL    HW231063  10.619   6.417   8.364 -2.1116 -1.1920 -0.7149
 8005SOL     OW31064   9.089   3.502   8.863 -0.3697  0.1034  0.1216
 8005SOL    HW131065   9.029   3.488   8.936  0.0286 -0.2879  0.3777
 8005SOL    HW231066   9.048   3.454   8.790 -1.3385  1.4089 -0.2349
 8006SOL     OW31067   1.338   5.028   9.220  0.7531  0.0177  0.4325
 8006SOL    HW131068   1.290   5.103   9.185  0.0194 -1.3671 -1.7229
 8006SOL    HW231069   1.308   5.020   9.311 -0.6710  1.1178  0.0924
 8007SOL     OW31070   4.814   9.088  12.175 -0.1412  0.0873 -0.1426
 8007SOL    HW131071   4.886   9.138  12.136 -0.6607  0.1962 -1.0034
 8007SOL    HW231072   4.768   9.150  12.231 -1.0462  0.7350 -1.5461
 8008SOL     OW31073   8.870  11.786   8.353  0.4025  0.3643  0.1309
 8008SOL    HW131074   8.842  11.839   8.278  0.0517  0.8455  0.5917
 8008SOL    HW231075   8.875  11.697   8.320  0.7814  0.6482 -0.6064
 8009SOL     OW31076   5.481  11.574   9.910  0.2972  0.3696  0.2519
 8009SOL    HW131077   5.546  11.504   9.906 -0.3767 -0.2139 -1.9005
 8009SOL    HW231078   5.445  11.578   9.821 -0.7147  2.4739  0.6947
 8010SOL     OW31079   6.930  12.004   5.030  0.0697  0.1480 -0.1493
 8010SOL    HW131080   7.017  11.996   5.067 -0.9320  1.1722  2.6452
 8010SOL    HW231081   6.941  12.061   4.953  2.0462 -1.1040 -0.8569
 8011SOL     OW31082   6.403   0.439   0.717  0.0580  0.9445  0.5664
 8011SOL    HW131083   6.352   0.388   0.654  0.4639  1.1216  0.0934
 8011SOL    HW231084   6.466   0.376   0.753  2.7818  1.6961 -2.3455
 8012SOL     OW31085   8.546  10.974   8.935 -0.4866  0.0660 -0.2339
 8012SOL    HW131086   8.595  10.914   8.878 -0.9710 -0.9843  0.4256
 8012SOL    HW231087   8.462  10.984   8.892 -0.9985 -1.0448  0.4659
 8013SOL     OW31088   7.072   0.635  12.060 -0.5862  0.0418  0.4673
 8013SOL    HW131089   7.151   0.642  12.006 -1.0195  1.3524 -0.0303
 8013SOL    HW231090   7.000   0.639  11.997 -1.0833  0.4426  1.0561
 8014SOL     OW31091   8.415   0.296   8.453 -0.2629 -0.0037 -0.0683
 8014SOL    HW131092   8.358   0.270   8.525  1.1056 -0.6673  0.8287
 8014SOL    HW231093   8.488   0.341   8.496 -0.5702  1.7052 -1.2597
 8015SOL     OW31094   8.538   2.683   6.587 -0.0012  0.0851  0.0522
 8015SOL    HW131095   8.563   2.592   6.574  1.4046  0.5955 -1.1759
 8015SOL    HW231096   8.594   2.732   6.527 -0.4848  1.7955  0.9174
 8016SOL     OW31097   7.505   1.487   9.756 -0.3263 -0.8557  0.2099
 8016SOL    HW131098   7.458   1.546   9.698  0.5310  1.4714  1.7375
 8016SOL    HW231099   7.554   1.429   9.698  1.2254  1.9478 -1.4640
 8017SOL     OW31100   8.034   6.816  11.477  0.0816  0.2725  0.3974
 8017SOL    HW131101   7.944   6.788  11.460  0.5301 -0.6852 -0.4704
 8017SOL    HW231102   8.049   6.791  11.569 -0.7035  0.9563  0.7304
 8018SOL     OW31103   6.603  12.410   2.540  0.2158 -0.2978 -0.1498
 8018SOL    HW131104   6.540  12.347   2.505  0.5287 -0.1970 -0.9045
 8018SOL    HW231105   6.554  12.456   2.609 -0.4719 -0.3706 -0.5773
 8019SOL     OW31106   3.338   4.415   8.665  0.2844 -0.0184  0.2382
 8019SOL    HW131107   3.427   4.422   8.629 -0.1334  0.4497 -0.7295
 8019SOL    HW231108   3.350   4.429   8.759  0.9805  2.6880 -0.1595
 8020SOL     OW31109   0.679  10.359   6.136 -0.3145 -0.3778  0.8001
 8020SOL    HW131110   0.669  10.377   6.230 -3.6509  1.1394  0.2894
 8020SOL    HW231111   0.590  10.352   6.103  0.7570 -2.4753 -2.0570
 8021SOL     OW31112   7.074  11.805   3.917  0.1172 -0.0905  0.0800
 8021SOL    HW131113   7.106  11.879   3.867  0.4534 -1.4208 -1.7787
 8021SOL    HW231114   6.983  11.826   3.936 -0.0430  0.4456 -1.1775
 8022SOL     OW31115   6.780   0.528   3.222 -0.3509 -0.4554 -0.0240
 8022SOL    HW131116   6.762   0.574   3.304  0.4346  1.9366 -1.0928
 8022SOL    HW231117   6.731   0.577   3.156  0.8708 -0.8916 -1.2958
 8023SOL     OW31118   4.083   1.286   2.677  0.7895 -0.0219  0.3687
 8023SOL    HW131119   4.112   1.251   2.761 -0.5896 -1.2913  0.3551
 8023SOL    HW231120   4.114   1.222   2.612  0.2112 -0.0323  0.1006
 8024SOL     OW31121   5.929   5.110   2.022 -0.2150 -0.0870 -0.8023
 8024SOL    HW131122   5.999   5.086   1.961  0.1947  2.1525 -1.2774
 8024SOL    HW231123   5.849   5.081   1.977  0.1288  0.9912 -2.1642
 8025SOL     OW31124   0.480   1.578  11.209  0.1262 -0.2477  0.1170
 8025SOL    HW131125   0.453   1.560  11.119  0.5699 -0.3091 -0.0038
 8025SOL    HW231126   0.480   1.493  11.252 -0.3997 -0.1797  0.2691
 8026SOL     OW31127   9.525   7.662  10.148  0.4355  0.1954  0.2383
 8026SOL    HW131128   9.490   7.741  10.108  2.2683  0.3304 -1.2517
 8026SOL    HW231129   9.528   7.598  10.077  0.5421 -0.6844  1.0100
 8027SOL     OW31130  11.684   5.353   7.223 -0.3772 -0.2487  0.4189
 8027SOL    HW131131  11.637   5.289   7.275 -0.5535  1.1943  2.1235
 8027SOL    HW231132  11.766   5.310   7.198  0.6238 -0.3872  3.5806
 8028SOL     OW31133  10.025   5.111   8.336 -0.2091 -0.4402  0.3232
 8028SOL    HW131134  10.048   5.169   8.409 -0.3353  2.0202 -1.4505
 8028SOL    HW231135   9.930   5.109   8.336 -0.2035 -0.8218  0.4851
 8029SOL     OW31136   6.710   9.834   3.766 -0.6700 -0.1894 -0.1270
 8029SOL    HW131137   6.794   9.841   3.720 -0.3178 -1.5169  0.2591
 8029SOL    HW231138   6.670   9.920   3.757  0.2855  0.1675 -1.1888
 8030SOL     OW31139   9.301   6.906   6.248 -0.1732 -0.5812 -0.0464
 8030SOL    HW131140   9.238   6.962   6.294  0.4071  0.3673 -0.3873
 8030SOL    HW231141   9.249   6.861   6.181 -0.7612 -0.9492  0.6251
 8031SOL     OW31142  10.083   8.832   8.205 -0.4053  0.0336  0.1777
 8031SOL    HW131143  10.038   8.758   8.165 -1.3339  1.0295 -0.6393
 8031SOL    HW231144  10.055   8.829   8.297  1.7368 -2.2528  0.8769
 8032SOL     OW31145   9.711   9.000   0.784 -0.3208  0.0258  0.1066
 8032SOL    HW131146   9.668   9.085   0.776 -0.3953  0.0000  0.2369
 8032SOL    HW231147   9.708   8.980   0.878 -0.0270  0.0242  0.1187
 8033SOL     OW31148   1.716   0.329   3.258 -0.0060 -0.1976  0.3815
 8033SOL    HW131149   1.651   0.263   3.235 -0.6692  0.1897  1.0968
 8033SOL    HW231150   1.756   0.296   3.338  1.1041 -0.7155 -0.3591
 8034SOL     OW31151   6.494   6.754   8.002  0.0272 -0.3784  0.0529
 8034SOL    HW131152   6.590   6.756   8.006  0.0100  0.8078  0.1475
 8034SOL    HW231153   6.474   6.688   7.935  0.9439  0.2550 -0.8715
 8035SOL     OW31154   1.950  12.121   5.082  0.6050 -0.0529 -0.9950
 8035SOL    HW131155   1.979  12.042   5.128  0.7145  0.4886 -0.1237
 8035SOL    HW231156   1.905  12.173   5.149  3.1639  2.0271 -0.7436
 8036SOL     OW31157   9.261   7.222   3.235 -0.1005 -0.2473 -0.6403
 8036SOL    HW131158   9.312   7.151   3.196 -0.5537 -0.6533 -0.4907
 8036SOL    HW231159   9.181   7.225   3.183 -0.0592  0.1958 -0.6829
 8037SOL     OW31160  12.318   9.346   2.289  0.0552  0.2529  0.3110
 8037SOL    HW131161  12.346   9.437   2.300 -0.8368  0.3126  2.7599
 8037SOL    HW231162  12.400   9.297   2.284  0.5571  1.0252  0.7406
 8038SOL     OW31163   4.012   1.547  10.180  0.3979  0.0764 -0.0237
 8038SOL    HW131164   3.989   1.526  10.270 -0.0799  2.3754  0.4398
 8038SOL    HW231165   3.958   1.488  10.127  0.7699 -1.3842  1.1474
 8039SOL     OW31166   9.185   5.935  10.959 -0.1736 -0.5987 -0.4426
 8039SOL    HW131167   9.280   5.951  10.956 -0.7347  3.6792 -0.7493
 8039SOL    HW231168   9.164   5.904  10.871  0.8001 -0.4312 -0.7563
 8040SOL     OW31169   9.595   6.546   6.187 -0.1236 -0.1123  0.9612
 8040SOL    HW131170   9.567   6.618   6.244 -0.5957 -0.2559  0.9139
 8040SOL    HW231171   9.581   6.578   6.098 -1.0794 -0.5483  0.9464
 8041SOL     OW31172   5.582  10.612   5.931 -0.4105 -0.2245 -0.1218
 8041SOL    HW131173   5.549  10.589   5.845  0.0889  1.9758 -0.9598
 8041SOL    HW231174   5.668  10.651   5.915  0.1250 -0.6281  1.4815
 8042SOL     OW31175  12.026  11.523   2.443  0.1250 -0.2702 -0.2401
 8042SOL    HW131176  12.016  11.582   2.368  1.6948  0.1570 -0.1542
 8042SOL    HW231177  12.047  11.438   2.404 -0.3587 -0.3603 -0.3113
 8043SOL     OW31178  11.076   5.424   2.317 -0.1924  0.6138  0.1480
 8043SOL    HW131179  11.110   5.371   2.245 -2.2052  0.4277 -0.7093
 8043SOL    HW231180  10.984   5.400   2.324 -0.5588  2.2112  1.3747
 8044SOL     OW31181   7.093   9.254   1.844 -0.6644 -0.3580  0.5491
 8044SOL    HW131182   7.181   9.288   1.863 -0.6261 -0.2063  0.1065
 8044SOL    HW231183   7.106   9.159   1.838 -0.0155 -0.1751 -2.0598
 8045SOL     OW31184   5.855   4.195  10.843  0.4766 -0.0671  0.5610
 8045SOL    HW131185   5.848   4.166  10.752 -0.4038 -0.7338  0.8290
 8045SOL    HW231186   5.948   4.218  10.853  0.3266  1.3086 -0.8689
 8046SOL     OW31187   8.226   2.376   8.273 -0.5920 -0.8949 -0.3729
 8046SOL    HW131188   8.224   2.464   8.311 -1.0330 -0.8477 -0.5066
 8046SOL    HW231189   8.312   2.371   8.230  0.8100 -1.6611  2.3054
 8047SOL     OW31190   7.852   9.536   5.668  0.4098 -0.0358 -0.3716
 8047SOL    HW131191   7.881   9.547   5.578 -0.4141  0.1279 -0.6276
 8047SOL    HW231192   7.767   9.579   5.672 -0.0007 -0.8512  0.2418
 8048SOL     OW31193   1.692  12.006   1.129  0.1624 -0.0692 -0.5147
 8048SOL    HW131194   1.743  11.970   1.057  2.0090  0.0619  0.6641
 8048SOL    HW231195   1.635  11.933   1.157  2.0301 -1.3306  0.2002
 8049SOL     OW31196   0.521   9.718   4.771  0.6917  0.5544  0.3381
 8049SOL    HW131197   0.521   9.622   4.765  0.2966  0.5941 -0.3942
 8049SOL    HW231198   0.508   9.736   4.863  2.4277 -0.1105  0.7594
 8050SOL     OW31199   3.553   0.251   1.652 -0.1099 -0.0428 -0.2915
 8050SOL    HW131200   3.628   0.258   1.593 -0.2549 -1.5319 -0.6829
 8050SOL    HW231201   3.590   0.217   1.734  0.0258  1.6359  0.3936
 8051SOL     OW31202   1.595   2.961   9.677 -0.1208  0.2762  0.0689
 8051SOL    HW131203   1.664   2.923   9.732 -0.3592  0.3383  0.4140
 8051SOL    HW231204   1.642   2.997   9.602  0.1855 -0.0117  0.1199
 8052SOL     OW31205   5.095   5.716   8.814  0.0689 -0.5324  0.2679
 8052SOL    HW131206   5.076   5.728   8.721 -3.6423 -1.0272  0.7812
 8052SOL    HW231207   5.135   5.629   8.820 -0.9726 -1.1115 -0.7807
 8053SOL     OW31208   1.545   3.431  12.275 -0.0802  0.6526 -1.0796
 8053SOL    HW131209   1.574   3.517  12.305  2.0012 -0.8527  1.6215
 8053SOL    HW231210   1.625   3.384  12.253 -1.2466 -0.2344 -3.9269
 8054SOL     OW31211   2.654   3.701   0.320 -0.2078 -0.4638 -0.1767
 8054SOL    HW131212   2.571   3.718   0.365 -1.1021 -1.7910 -1.2567
 8054SOL    HW231213   2.712   3.669   0.389 -0.6164  0.3635  0.5677
 8055SOL     OW31214   8.584   5.534   3.150 -0.0275 -0.7780 -0.8109
 8055SOL    HW131215   8.558   5.600   3.086  2.1949  0.6655 -0.3371
 8055SOL    HW231216   8.653   5.576   3.202  0.0981 -2.8082  0.8150
 8056SOL     OW31217   7.407   3.361   8.996  0.0713 -0.4084  0.7609
 8056SOL    HW131218   7.325   3.399   8.964  0.6562 -0.7340 -1.2776
 8056SOL    HW231219   7.390   3.266   9.000 -0.0094 -0.3701  1.5319
 8057SOL     OW31220   7.794   1.830   0.861 -0.5430  0.3721 -0.6416
 8057SOL    HW131221   7.741   1.817   0.782  1.2563 -0.3828 -1.7711
 8057SOL    HW231222   7.734   1.809   0.933 -2.3139  1.3643 -1.7363
 8058SOL     OW31223   0.523   3.944   8.565  0.3025  0.0600  0.2956
 8058SOL    HW131224   0.501   3.863   8.520 -1.1417 -0.2777  1.5593
 8058SOL    HW231225   0.559   3.917   8.649  2.8438  0.6938 -0.4708
 8059SOL     OW31226   0.465   1.762  10.428 -0.3459  0.0194  0.6474
 8059SOL    HW131227   0.463   1.708  10.350 -2.5819 -0.4618  0.9841
 8059SOL    HW231228   0.477   1.699  10.500 -1.7238  0.0632  0.9388
 8060SOL     OW31229  12.518   9.000   8.936  0.4965  0.3013  0.2918
 8060SOL    HW131230  12.451   9.042   8.881  0.0043 -2.0607 -1.0593
 8060SOL    HW231231  12.525   8.911   8.901  2.2454 -0.4348  2.3104
 8061SOL     OW31232   2.356   1.151   5.456 -0.2045 -0.2857 -0.0538
 8061SOL    HW131233   2.417   1.130   5.386 -0.5158  0.4176 -0.5483
 8061SOL    HW231234   2.298   1.217   5.419  1.5381  2.5251  1.7700
 8062SOL     OW31235   5.649   3.385   4.797  0.1268  0.1387  0.3796
 8062SOL    HW131236   5.617   3.318   4.857  0.3480 -0.5753 -0.2847
 8062SOL    HW231237   5.573   3.442   4.782 -0.3673 -0.5672  0.1392
 8063SOL     OW31238   5.088   5.663   0.264  0.0079 -0.4249  0.1466
 8063SOL    HW131239   5.064   5.686   0.354  0.3103  2.3194 -0.3900
 8063SOL    HW231240   5.174   5.621   0.273  0.2215  0.1699  1.1325
 8064SOL     OW31241   1.469  10.166  10.711 -0.4827  0.3025 -0.2514
 8064SOL    HW131242   1.441  10.253  10.687 -0.9694 -0.2339 -1.7147
 8064SOL    HW231243   1.563  10.165  10.692 -0.5369  0.4146 -0.5277
 8065SOL     OW31244   8.842   5.376   2.285 -0.2827 -0.3465  0.5025
 8065SOL    HW131245   8.779   5.366   2.213  0.5432 -1.1305 -0.1323
 8065SOL    HW231246   8.871   5.467   2.278 -0.5515 -0.2854  0.1289
 8066SOL     OW31247   1.968   7.018  10.099  0.2363  0.4328 -0.0728
 8066SOL    HW131248   1.986   7.047  10.189 -0.2889  0.9605 -0.1231
 8066SOL    HW231249   2.024   6.942  10.086  0.4616  0.4667  0.6390
 8067SOL     OW31250  10.873  11.203   6.652 -0.0814 -0.0547  0.8184
 8067SOL    HW131251  10.809  11.214   6.582 -0.3276  1.2268  1.2173
 8067SOL    HW231252  10.883  11.108   6.661 -1.2546 -0.2562  0.1485
 8068SOL     OW31253   3.939   1.039   8.239 -0.1662 -0.7932 -0.4001
 8068SOL    HW131254   3.916   0.992   8.159 -1.2706  0.9370 -1.1629
 8068SOL    HW231255   3.949   1.130   8.211  0.7807 -0.3655  1.2081
 8069SOL     OW31256  10.407  11.856   8.279  0.0596  0.2170  0.4240
 8069SOL    HW131257  10.355  11.793   8.330  0.4590 -0.7277 -0.2923
 8069SOL    HW231258  10.427  11.927   8.340 -0.2131 -0.4633  1.3221
 8070SOL     OW31259   6.079   3.383   0.161 -0.1408 -0.0171  0.5296
 8070SOL    HW131260   6.117   3.471   0.157 -0.0054 -0.0729  0.5675
 8070SOL    HW231261   6.144   3.327   0.119 -1.4682  0.2889 -2.1104
 8071SOL     OW31262  12.367   1.455   1.160  0.4680 -0.0895 -0.7092
 8071SOL    HW131263  12.407   1.447   1.073 -1.4767  0.5069 -1.7197
 8071SOL    HW231264  12.331   1.368   1.178 -0.4638  0.1868 -1.2069
 8072SOL     OW31265  10.403   2.511   7.945 -0.8141 -0.2776  0.7197
 8072SOL    HW131266  10.354   2.429   7.950 -2.4786  0.5886 -0.6115
 8072SOL    HW231267  10.382   2.547   7.859  1.7366  0.4434  0.3038
 8073SOL     OW31268   9.847   5.302   3.439  0.0991 -0.8777 -0.2020
 8073SOL    HW131269   9.865   5.340   3.525  0.6235  0.2973 -0.8038
 8073SOL    HW231270   9.788   5.230   3.457 -2.2640  1.1647  0.8956
 8074SOL     OW31271   9.306   8.539   8.475 -0.1185  0.4475 -0.5354
 8074SOL    HW131272   9.288   8.583   8.558  0.0275  0.1429 -0.3434
 8074SOL    HW231273   9.401   8.530   8.471 -0.2308 -1.4101  0.2405
 8075SOL     OW31274   5.364   0.592   2.487  0.2433 -0.3556  0.1310
 8075SOL    HW131275   5.427   0.622   2.421  0.2578  0.1080  0.3495
 8075SOL    HW231276   5.418   0.559   2.558  0.2642  0.6184  0.5864
 8076SOL     OW31277   4.443   1.338   4.052 -0.5897  0.6048 -0.1095
 8076SOL    HW131278   4.472   1.414   4.102  0.4467  1.0482 -1.3211
 8076SOL    HW231279   4.487   1.263   4.092  0.2156  0.9547 -0.3351
 8077SOL     OW31280   0.452   7.616  10.651 -0.2735 -0.0409  0.0119
 8077SOL    HW131281   0.495   7.690  10.609 -2.3790  1.1359 -0.2059
 8077SOL    HW231282   0.460   7.633  10.744 -0.5473  0.3548 -0.0344
 8078SOL     OW31283   8.646  11.200   0.365 -0.1897 -0.2451  0.1927
 8078SOL    HW131284   8.616  11.193   0.274 -0.5863 -0.5145  0.3379
 8078SOL    HW231285   8.565  11.196   0.417  0.0307 -0.0548  0.5536
 8079SOL     OW31286   0.742   1.261   0.758  0.6075 -0.0915 -0.6401
 8079SOL    HW131287   0.748   1.170   0.732  1.1028 -0.1539 -0.3239
 8079SOL    HW231288   0.717   1.258   0.851 -0.0396  0.1042 -0.8072
 8080SOL     OW31289   7.198   6.267   2.414  0.1836  0.6613 -0.2508
 8080SOL    HW131290   7.125   6.284   2.474 -1.2282 -0.0447 -1.6783
 8080SOL    HW231291   7.179   6.321   2.337  2.4127  2.2175  0.1828
 8081SOL     OW31292  10.739  12.248   7.250  0.4338  0.3024 -0.7160
 8081SOL    HW131293  10.756  12.165   7.206 -0.9052  0.3732 -1.4252
 8081SOL    HW231294  10.777  12.315   7.194  0.1323  0.2754 -0.9535
 8082SOL     OW31295   6.661   9.428  11.546 -0.3827  0.0453 -0.0925
 8082SOL    HW131296   6.610   9.360  11.590 -1.3163  0.7456 -0.0641
 8082SOL    HW231297   6.595   9.483  11.502  0.3557  0.8860 -0.1743
 8083SOL     OW31298   5.450  10.399  12.425 -0.3606  0.4838  0.3642
 8083SOL    HW131299   5.486  10.334  12.486 -0.2493  0.4021  0.2099
 8083SOL    HW231300   5.480  10.483  12.460  1.0281  0.3511 -0.4626
 8084SOL     OW31301   7.756  11.757   4.223  0.6038 -0.0024  0.2757
 8084SOL    HW131302   7.707  11.682   4.256  0.0514 -0.0907 -0.6828
 8084SOL    HW231303   7.810  11.721   4.152 -0.5831  0.6702 -1.0358
 8085SOL     OW31304   1.873   0.747   5.553 -0.5666  0.0553  0.1552
 8085SOL    HW131305   1.928   0.670   5.568  2.2485  1.5968 -1.4452
 8085SOL    HW231306   1.794   0.713   5.512  1.0236 -1.9400 -1.4388
 8086SOL     OW31307  11.754  11.929  10.320  0.0144  0.1742 -0.2854
 8086SOL    HW131308  11.811  11.929  10.244 -0.1549  1.9565 -0.4480
 8086SOL    HW231309  11.760  12.017  10.355 -0.9442 -0.2300  0.9939
 8087SOL     OW31310   4.901  10.669   6.267  0.2372 -0.5586  0.0604
 8087SOL    HW131311   4.976  10.612   6.286  0.2469 -0.3726  0.5923
 8087SOL    HW231312   4.910  10.742   6.327 -0.8517 -0.9686  0.7639
 8088SOL     OW31313   5.099   3.810   2.168  0.0174  0.2646  1.0208
 8088SOL    HW131314   5.080   3.719   2.187  0.1771 -0.1297 -0.5556
 8088SOL    HW231315   5.151   3.840   2.243  0.8920 -1.2527  1.0648
 8089SOL     OW31316   4.186   5.853   9.150 -0.0672 -0.1122  0.2264
 8089SOL    HW131317   4.105   5.841   9.100 -0.3067  0.3651  0.4929
 8089SOL    HW231318   4.247   5.890   9.087  0.0147 -0.6777 -0.0335
 8090SOL     OW31319   8.020   8.904   8.400  0.1760  0.0841  0.3776
 8090SOL    HW131320   7.961   8.891   8.325  0.9493  1.0130 -0.4216
 8090SOL    HW231321   7.972   8.963   8.457 -0.4864 -0.7542  0.7073
 8091SOL     OW31322   2.547   5.507   8.225  0.1578 -0.3052 -0.3442
 8091SOL    HW131323   2.556   5.449   8.300 -0.2166  0.6976  0.4973
 8091SOL    HW231324   2.633   5.548   8.215 -0.3497  1.1529  0.9018
 8092SOL     OW31325  12.273   1.837   2.124  0.9683  0.0306  0.1855
 8092SOL    HW131326  12.194   1.850   2.178  0.2745 -2.4769 -0.0713
 8092SOL    HW231327  12.242   1.788   2.048  2.5114  0.5601 -0.8276
 8093SOL     OW31328  10.763   1.182   9.570  0.4682  0.1815 -0.1626
 8093SOL    HW131329  10.854   1.170   9.597  0.4009  0.2066  0.0792
 8093SOL    HW231330  10.743   1.104   9.519  0.8948  0.5838 -0.9562
 8094SOL     OW31331   4.121   6.630   5.143  0.2656  0.3393  0.0714
 8094SOL    HW131332   4.112   6.634   5.238  0.6107 -0.7314  0.1679
 8094SOL    HW231333   4.035   6.654   5.109  0.2705  1.1772  0.6407
 8095SOL     OW31334   8.338   6.337   9.957  0.1896 -0.5100  0.0746
 8095SOL    HW131335   8.354   6.302   9.869 -0.5728 -2.3840  0.6221
 8095SOL    HW231336   8.271   6.279   9.994 -0.1637  0.7822  1.5772
 8096SOL     OW31337   3.216   0.849   5.562  0.2786 -0.1245 -0.0710
 8096SOL    HW131338   3.147   0.908   5.529  1.4261  1.2028 -0.1987
 8096SOL    HW231339   3.172   0.794   5.626 -0.8662  0.8252 -0.0067
 8097SOL     OW31340   9.267   6.359   8.121  0.0095 -0.3976 -0.2549
 8097SOL    HW131341   9.309   6.379   8.038 -0.2017 -0.1700 -0.3082
 8097SOL    HW231342   9.186   6.314   8.097 -0.1700 -0.1153 -0.1825
 8098SOL     OW31343   5.179   9.594  11.806  0.3860  0.5514  0.4161
 8098SOL    HW131344   5.138   9.673  11.841 -3.0371 -1.7068  2.0575
 8098SOL    HW231345   5.122   9.567  11.734  0.2808 -1.4185  1.1722
 8099SOL     OW31346   2.836   0.577   2.602  0.1038  0.4157 -0.1800
 8099SOL    HW131347   2.836   0.643   2.671  0.7525 -1.7833  2.0467
 8099SOL    HW231348   2.909   0.519   2.623 -0.5438 -1.1369 -1.9178
 8100SOL     OW31349   0.489  10.751   1.688  0.1377  0.2617  0.5050
 8100SOL    HW131350   0.488  10.656   1.676  0.6577  0.2536  0.5057
 8100SOL    HW231351   0.533  10.785   1.610  1.3430  0.3847  1.2035
 8101SOL     OW31352   2.373   2.323   2.787 -0.3072  0.5781  0.2562
 8101SOL    HW131353   2.340   2.408   2.758  0.6296  1.2500  1.1024
 8101SOL    HW231354   2.439   2.344   2.854  2.6209 -0.6095 -2.0075
 8102SOL     OW31355   6.234   0.176   2.445  0.4609 -0.4630 -0.1894
 8102SOL    HW131356   6.145   0.146   2.425  0.4122  0.6192 -1.7886
 8102SOL    HW231357   6.221   0.259   2.490  0.5156  2.0618 -4.2730
 8103SOL     OW31358   0.546   6.174   4.914  0.3936  0.0327  0.0897
 8103SOL    HW131359   0.611   6.113   4.878 -0.4938 -0.3288 -0.9659
 8103SOL    HW231360   0.568   6.181   5.007  1.4115 -0.7447 -0.0756
 8104SOL     OW31361   5.481   6.552   5.260  0.3572 -0.0779  0.2256
 8104SOL    HW131362   5.556   6.495   5.279 -0.9371 -1.8887  0.1620
 8104SOL    HW231363   5.431   6.504   5.194  0.0710  1.9629 -1.1382
 8105SOL     OW31364   9.688   3.759   4.204 -0.1954 -0.2196 -0.7040
 8105SOL    HW131365   9.667   3.666   4.209  1.0437 -0.5074 -0.5442
 8105SOL    HW231366   9.719   3.782   4.292  0.9290 -0.0335 -1.1299
 8106SOL     OW31367   9.756   2.000   2.598  0.2771 -0.3450  0.6359
 8106SOL    HW131368   9.732   1.996   2.505 -0.3883 -1.8509  0.8361
 8106SOL    HW231369   9.851   1.987   2.599  0.4911  1.0077  0.1115
 8107SOL     OW31370   5.331   9.202  11.450 -0.3625  0.2632  0.5518
 8107SOL    HW131371   5.288   9.283  11.421  1.7985  1.6680  1.0395
 8107SOL    HW231372   5.420   9.209  11.415  0.3802 -1.0844  2.0830
 8108SOL     OW31373   0.816   8.258   4.331 -0.0740 -0.3916  0.1968
 8108SOL    HW131374   0.859   8.327   4.280 -1.3866  0.5169  0.2751
 8108SOL    HW231375   0.737   8.237   4.281 -1.3007  0.4036  1.7314
 8109SOL     OW31376  12.400   7.883  10.203 -0.3699  0.3511  0.4073
 8109SOL    HW131377  12.382   7.800  10.248 -0.0255  0.0636  0.0164
 8109SOL    HW231378  12.429   7.857  10.116  0.7235  0.8524  0.6171
 8110SOL     OW31379   7.224   3.032  11.333 -0.2855  0.1433 -0.6836
 8110SOL    HW131380   7.212   3.125  11.354  0.7051 -0.0703  1.0683
 8110SOL    HW231381   7.136   2.996  11.331 -0.5947  0.7491  0.6680
 8111SOL     OW31382   0.706  10.202   5.449  0.1941 -0.3835 -0.4931
 8111SOL    HW131383   0.667  10.115   5.444 -1.2639  0.3267 -2.0156
 8111SOL    HW231384   0.797  10.185   5.475 -0.8240 -2.1206  2.4275
 8112SOL     OW31385   2.513   5.718   6.098  0.0319  0.3522 -0.2505
 8112SOL    HW131386   2.435   5.752   6.143 -0.5890 -0.4617 -0.6921
 8112SOL    HW231387   2.552   5.795   6.057 -0.5457  0.7689 -0.0322
 8113SOL     OW31388   2.265   8.487  11.595 -0.1789  0.6725 -0.1190
 8113SOL    HW131389   2.311   8.432  11.658 -0.4420 -0.1726 -0.6505
 8113SOL    HW231390   2.234   8.561  11.646  0.9149  0.7634  0.4461
 8114SOL     OW31391   0.088  12.450   5.155  0.2519 -0.5271 -0.9578
 8114SOL    HW131392   0.045  12.499   5.226  0.3951 -1.4410 -0.2271
 8114SOL    HW231393   0.025  12.452   5.083 -0.4139 -0.6278 -0.3852
 8115SOL     OW31394   1.011  11.722   6.901  0.3807  0.0191  0.0906
 8115SOL    HW131395   1.046  11.721   6.812  2.0117  0.0925  0.7062
 8115SOL    HW231396   0.927  11.676   6.894  0.3642  0.2389 -1.5176
 8116SOL     OW31397   2.732   4.114   0.759 -0.5119  0.3761 -0.2960
 8116SOL    HW131398   2.819   4.084   0.730  0.1097  3.3972 -2.0628
 8116SOL    HW231399   2.750   4.168   0.836 -1.0127 -0.1325  0.1810
 8117SOL     OW31400   6.115   7.149   6.513  0.3284 -0.0182 -0.5167
 8117SOL    HW131401   6.089   7.235   6.545 -3.6370 -0.7705 -1.2526
 8117SOL    HW231402   6.162   7.110   6.586 -0.8486  1.4925  1.1406
 8118SOL     OW31403   0.330   0.239  12.442 -0.0769 -0.6379  0.2778
 8118SOL    HW131404   0.422   0.238  12.413 -0.4654  1.1317 -1.2058
 8118SOL    HW231405   0.322   0.162  12.498  2.3270 -0.8241  0.4846
 8119SOL     OW31406   9.481   5.803  12.114 -0.4557  0.7707  0.1302
 8119SOL    HW131407   9.388   5.785  12.101 -0.5337 -0.9181  2.4433
 8119SOL    HW231408   9.487   5.826  12.207  1.6394 -0.6624  0.3873
 8120SOL     OW31409   4.875   0.825   0.213  0.2889 -0.1040  0.0365
 8120SOL    HW131410   4.969   0.808   0.225  0.2431 -0.0101  0.5505
 8120SOL    HW231411   4.860   0.810   0.120  0.5590 -1.3496  0.1754
 8121SOL     OW31412  12.260  10.535   2.763 -0.4213 -0.6908 -0.0757
 8121SOL    HW131413  12.342  10.499   2.730 -1.1229 -1.9081 -0.5544
 8121SOL    HW231414  12.221  10.580   2.688  0.1238  0.5340  0.3408
 8122SOL     OW31415  11.936   5.390   5.784 -0.2078 -0.0287 -0.1917
 8122SOL    HW131416  11.865   5.402   5.721  0.0294 -0.4414 -0.5425
 8122SOL    HW231417  11.900   5.330   5.850 -0.0487 -0.5592 -0.5870
 8123SOL     OW31418   1.580   4.504   8.622 -0.0631  0.7499  0.5546
 8123SOL    HW131419   1.523   4.441   8.578  0.7225  0.5856 -0.2651
 8123SOL    HW231420   1.562   4.587   8.578  0.5408  0.6340  0.0640
 8124SOL     OW31421   8.955   5.006   4.604  0.6754  0.1728 -1.0872
 8124SOL    HW131422   9.020   4.942   4.575  1.8102 -0.1942  1.8915
 8124SOL    HW231423   8.881   4.953   4.634  0.8854  0.3249 -0.2768
 8125SOL     OW31424   4.454   3.879   6.614 -0.0694  0.0726  0.4832
 8125SOL    HW131425   4.504   3.960   6.602 -0.5668  0.1788 -0.9643
 8125SOL    HW231426   4.451   3.839   6.528  0.0606 -1.4494  1.1583
 8126SOL     OW31427   6.679   2.197   5.011  0.2795  0.4007 -0.0205
 8126SOL    HW131428   6.731   2.145   4.950  0.1921 -1.0432  1.0797
 8126SOL    HW231429   6.604   2.226   4.959  0.5894 -0.1659 -0.8070
 8127SOL     OW31430   6.040   6.210   4.564  0.3294  0.0059 -0.6217
 8127SOL    HW131431   6.071   6.144   4.502  1.1137 -0.1806 -0.0479
 8127SOL    HW231432   6.080   6.292   4.532 -0.0657  0.0870 -0.9208
 8128SOL     OW31433   2.472   7.422   7.943 -0.1534 -0.0417 -0.1210
 8128SOL    HW131434   2.441   7.487   7.880 -2.4425 -1.0304 -0.1480
 8128SOL    HW231435   2.430   7.446   8.025 -0.2417 -0.8953  0.0978
 8129SOL     OW31436  10.571  10.448   6.823  0.6337 -0.3942 -0.2287
 8129SOL    HW131437  10.589  10.540   6.841  0.4106  0.1768 -2.6779
 8129SOL    HW231438  10.480  10.435   6.849  0.5972  0.1268 -0.0962
 8130SOL     OW31439  11.511   6.287   7.831  0.3621 -0.5675  0.4149
 8130SOL    HW131440  11.416   6.303   7.828  0.3561 -0.7276 -0.2696
 8130SOL    HW231441  11.534   6.299   7.923  0.0442  1.5836  0.2542
 8131SOL     OW31442  12.432  11.272   8.668 -0.4592 -0.5837  0.2158
 8131SOL    HW131443  12.348  11.280   8.622 -0.7948 -0.1556  0.8797
 8131SOL    HW231444  12.458  11.362   8.686  0.9808 -0.6141 -1.4137
 8132SOL     OW31445   9.231   1.055  10.268 -0.2837  0.1846  0.0377
 8132SOL    HW131446   9.236   0.990  10.338 -0.0207  1.1412  0.9179
 8132SOL    HW231447   9.305   1.035  10.211 -0.4898 -0.5869  0.0347
 8133SOL     OW31448   3.179   4.159  10.601  0.5319 -0.2340 -0.0483
 8133SOL    HW131449   3.152   4.091  10.538  0.4234 -1.2366  1.0392
 8133SOL    HW231450   3.162   4.120  10.687  1.1525  0.9075  0.6195
 8134SOL     OW31451  10.455   7.183   3.281  0.5836  0.2827 -0.2314
 8134SOL    HW131452  10.384   7.234   3.241  0.7628  0.3507 -0.4634
 8134SOL    HW231453  10.423   7.093   3.280  0.4637  0.3256 -0.2597
 8135SOL     OW31454   5.388   4.094   5.494  0.1157 -0.0915  0.2372
 8135SOL    HW131455   5.398   4.189   5.485 -1.5609  0.1099  0.2406
 8135SOL    HW231456   5.295   4.078   5.478  0.2346 -1.6623  0.9645
 8136SOL     OW31457   8.386   6.033  10.224  0.3322  0.3040  0.2628
 8136SOL    HW131458   8.393   6.025  10.129  0.1600 -1.4826  0.3710
 8136SOL    HW231459   8.471   6.067  10.251 -0.0549  2.1054 -0.6107
 8137SOL     OW31460   9.690  11.235   8.356 -0.1225  0.2068 -0.7556
 8137SOL    HW131461   9.698  11.259   8.448 -1.3937  0.0774 -0.5860
 8137SOL    HW231462   9.645  11.151   8.357 -2.2315  1.2422 -1.5232
 8138SOL     OW31463   1.999   1.760   8.485  0.4540  0.0613  0.4927
 8138SOL    HW131464   2.002   1.683   8.543  1.8783  1.1704  1.9641
 8138SOL    HW231465   1.953   1.826   8.536 -0.7276  0.2545 -0.7566
 8139SOL     OW31466  10.550   1.284   6.201 -0.2232 -0.4158  0.1306
 8139SOL    HW131467  10.521   1.289   6.292  0.1779 -0.2287  0.2515
 8139SOL    HW231468  10.512   1.361   6.160  0.3389 -0.0053  0.3613
 8140SOL     OW31469   3.718   1.970  10.724 -0.0119  0.3093 -0.1473
 8140SOL    HW131470   3.638   2.016  10.749 -0.1265 -0.2911  0.6581
 8140SOL    HW231471   3.704   1.880  10.756  1.0464  0.2435  0.1571
 8141SOL     OW31472   4.322   1.087  12.516 -0.3017 -0.3388  0.2964
 8141SOL    HW131473   4.339   1.171  12.473 -1.7575 -0.0280  0.2754
 8141SOL    HW231474   4.228   1.075  12.509 -0.5359 -0.5302  2.9455
 8142SOL     OW31475   0.431   0.948   0.223  0.3082 -0.6444  0.6463
 8142SOL    HW131476   0.347   0.923   0.183  0.1869  0.8950 -0.1494
 8142SOL    HW231477   0.494   0.943   0.151  0.7266 -0.9290  1.0295
 8143SOL     OW31478   6.236  12.114   5.790  0.0738  0.1047  0.1906
 8143SOL    HW131479   6.275  12.027   5.782 -0.2718 -0.1453  1.1030
 8143SOL    HW231480   6.256  12.141   5.880  0.4737  1.1184 -0.1880
 8144SOL     OW31481  10.664   3.453   3.261 -0.0332  0.2349 -0.0947
 8144SOL    HW131482  10.684   3.535   3.217 -0.4715 -0.0269 -0.8051
 8144SOL    HW231483  10.704   3.386   3.207  0.8665  0.0038  0.8209
 8145SOL     OW31484   1.471  12.137  11.318 -0.1218  0.0577 -0.2295
 8145SOL    HW131485   1.513  12.057  11.287 -0.6450 -0.0958 -0.5603
 8145SOL    HW231486   1.539  12.183  11.366 -0.1991 -1.2972  1.2585
 8146SOL     OW31487   9.747   2.704  10.412  0.2592  0.1363  0.1825
 8146SOL    HW131488   9.700   2.786  10.427  0.3545  0.1427  0.4569
 8146SOL    HW231489   9.751   2.663  10.498  0.7824  0.1478  0.1678
 8147SOL     OW31490   1.143   7.967   6.088 -0.2233  0.1875 -0.1432
 8147SOL    HW131491   1.077   8.009   6.144  0.4720  1.7274 -0.4177
 8147SOL    HW231492   1.094   7.942   6.010 -0.7616  0.0513  0.2335
 8148SOL     OW31493   6.849   4.125   7.682  0.1558 -0.3379  0.4199
 8148SOL    HW131494   6.909   4.074   7.737  0.4214  0.8646  1.2736
 8148SOL    HW231495   6.794   4.172   7.744 -0.4159  0.0453 -0.3615
 8149SOL     OW31496  10.120   8.836   9.255 -0.5579 -0.0790 -0.0430
 8149SOL    HW131497  10.057   8.875   9.195 -0.8919  0.1684  0.4643
 8149SOL    HW231498  10.073   8.830   9.338 -0.2673 -0.8934  0.0644
 8150SOL     OW31499   4.408   4.507   2.778  0.4095 -0.2368  0.5909
 8150SOL    HW131500   4.318   4.535   2.765  1.7505  3.8743 -1.6900
 8150SOL    HW231501   4.424   4.520   2.872 -1.1025 -0.2284  0.8631
 8151SOL     OW31502   1.285   1.752   5.335  0.1028 -0.2163  0.1056
 8151SOL    HW131503   1.236   1.756   5.253  2.1058  0.6653 -1.1337
 8151SOL    HW231504   1.336   1.672   5.330  0.9162  0.2912  0.0563
 8152SOL     OW31505   0.735   5.868  11.859 -0.0872  0.3347 -0.0501
 8152SOL    HW131506   0.752   5.849  11.766  3.9731 -1.9873  0.8992
 8152SOL    HW231507   0.694   5.788  11.893  1.3636 -0.1595  0.6576
 8153SOL     OW31508  11.392   4.110   5.053  0.2885 -0.3125  0.6240
 8153SOL    HW131509  11.312   4.059   5.043  0.6358 -0.5225 -1.2934
 8153SOL    HW231510  11.463   4.049   5.033  1.0190 -0.2305  2.6456
 8154SOL     OW31511   0.866   6.672   4.307  0.2248  0.1848 -0.2063
 8154SOL    HW131512   0.829   6.590   4.274  0.2455 -0.1673  0.6205
 8154SOL    HW231513   0.803   6.739   4.281 -1.3355 -0.4718  1.6581
 8155SOL     OW31514  11.037   3.711   6.937 -0.1700 -0.1717 -0.0750
 8155SOL    HW131515  10.944   3.735   6.928  0.0584  1.1814  0.8276
 8155SOL    HW231516  11.084   3.790   6.910  0.7126 -0.7086 -0.1204
 8156SOL     OW31517   9.815   5.969   1.604  0.5499 -0.2491  0.2481
 8156SOL    HW131518   9.805   5.897   1.666 -0.0735  1.1515  1.8620
 8156SOL    HW231519   9.867   6.034   1.651  1.2475  0.2964 -1.2304
 8157SOL     OW31520   0.300   7.178   4.109  0.0488  0.1334 -0.1638
 8157SOL    HW131521   0.337   7.163   4.022  1.1644 -0.2711  0.3667
 8157SOL    HW231522   0.368   7.225   4.157 -0.5078  0.2502  0.5408
 8158SOL     OW31523  10.167   5.894   5.895 -0.2312 -0.2602 -0.1104
 8158SOL    HW131524  10.188   5.836   5.822  0.3122 -0.2648  0.0477
 8158SOL    HW231525  10.185   5.842   5.973 -1.1902 -0.3932  0.0348
 8159SOL     OW31526   9.375  10.955   6.336 -0.9556 -0.0120 -0.2061
 8159SOL    HW131527   9.470  10.946   6.342 -0.9385  0.8775  1.8233
 8159SOL    HW231528   9.345  10.873   6.296  0.3852 -2.0681  2.6144
 8160SOL     OW31529  10.172   2.001  10.272  0.0613  0.3404  0.0997
 8160SOL    HW131530  10.189   1.925  10.217  2.0713  1.8652 -1.5463
 8160SOL    HW231531  10.239   1.996  10.340 -0.3209  0.2367  0.4764
 8161SOL     OW31532   2.838   2.118   9.169 -0.1495 -0.3285  0.2983
 8161SOL    HW131533   2.838   2.047   9.105 -0.4070  0.1427 -0.2337
 8161SOL    HW231534   2.839   2.198   9.116 -0.7627  0.0713  0.8729
 8162SOL     OW31535   7.642   3.767  11.193  0.0542 -0.2639 -0.5428
 8162SOL    HW131536   7.603   3.845  11.156 -1.4310 -0.2063  1.0472
 8162SOL    HW231537   7.734   3.771  11.166 -0.2721  1.3476 -1.5239
 8163SOL     OW31538   8.048   5.341   0.683  0.6040  0.2800  0.4836
 8163SOL    HW131539   8.072   5.323   0.592  0.4781 -0.1636  0.5312
 8163SOL    HW231540   7.952   5.337   0.683  0.6321 -1.1568  0.8971
 8164SOL     OW31541  11.517   7.204   1.596 -0.8522 -0.4321 -0.1884
 8164SOL    HW131542  11.549   7.116   1.616 -0.5362 -0.1644  0.4953
 8164SOL    HW231543  11.595   7.259   1.596 -1.1819  0.0482  0.5067
 8165SOL     OW31544   4.247   1.897   8.592 -0.3093 -0.4181 -0.4802
 8165SOL    HW131545   4.200   1.874   8.512  0.2678 -1.9189 -0.4248
 8165SOL    HW231546   4.262   1.813   8.636  1.1002  0.1632  0.2211
 8166SOL     OW31547   2.198   4.540   1.948 -0.2821 -0.1245  0.1765
 8166SOL    HW131548   2.241   4.532   2.033  0.1355 -0.4569 -0.0601
 8166SOL    HW231549   2.108   4.512   1.964 -0.2711  0.0561  0.5595
 8167SOL     OW31550   0.759  10.205  10.972  0.0313 -0.3147 -0.5709
 8167SOL    HW131551   0.694  10.143  10.939 -0.8986  0.4708 -0.2359
 8167SOL    HW231552   0.760  10.276  10.907 -1.6915  1.1640  0.9110
 8168SOL     OW31553   0.570   7.999  10.050 -0.4971 -0.2431 -0.4763
 8168SOL    HW131554   0.533   7.919  10.089 -1.0370 -0.6955 -1.8474
 8168SOL    HW231555   0.592   7.973   9.960 -0.0621  0.9842 -0.7383
 8169SOL     OW31556   7.307   8.011   0.155 -0.0297 -0.1467  0.5596
 8169SOL    HW131557   7.367   8.086   0.153 -0.6064  0.3371  1.1411
 8169SOL    HW231558   7.241   8.031   0.089  0.2481 -0.5213  0.1596
 8170SOL     OW31559  11.632   7.937   5.225 -0.9161 -0.6886 -0.2710
 8170SOL    HW131560  11.721   7.974   5.227 -0.5893 -1.4654 -0.2837
 8170SOL    HW231561  11.575   8.014   5.223 -0.3012 -0.1410  1.4239
 8171SOL     OW31562   1.307   3.128  10.533 -0.5984  0.1556 -0.5520
 8171SOL    HW131563   1.328   3.181  10.456 -0.3388  0.0555 -0.5502
 8171SOL    HW231564   1.216   3.150  10.553 -0.7820 -0.0926 -1.1022
 8172SOL     OW31565  12.409   0.712   7.463  0.2647  0.0338 -0.3992
 8172SOL    HW131566  12.340   0.707   7.397 -1.1016  1.0044  0.9032
 8172SOL    HW231567  12.399   0.632   7.514 -1.1513  1.0095  0.9316
 8173SOL     OW31568   2.172   9.197   8.277 -0.6196  0.3396 -0.3752
 8173SOL    HW131569   2.190   9.207   8.184  0.8776 -1.2821 -0.3022
 8173SOL    HW231570   2.077   9.187   8.283 -0.6341 -0.6209 -1.8462
 8174SOL     OW31571   8.302   3.286   3.255  0.2339 -0.3592 -0.6257
 8174SOL    HW131572   8.250   3.206   3.268  0.7861 -0.4140  1.6875
 8174SOL    HW231573   8.369   3.260   3.191  1.1239 -2.1715  0.9295
 8175SOL     OW31574   3.458   5.343   1.920  0.2459 -0.3993 -0.0105
 8175SOL    HW131575   3.549   5.326   1.943 -0.1918  0.4755  2.7803
 8175SOL    HW231576   3.408   5.274   1.965 -0.4724 -1.6564 -2.5459
 8176SOL     OW31577   7.470   2.802   7.653 -0.3240  0.2743  0.6024
 8176SOL    HW131578   7.542   2.810   7.716 -0.3557  2.2361  0.4455
 8176SOL    HW231579   7.417   2.880   7.667  0.3084  1.4223 -2.6750
 8177SOL     OW31580   1.448   2.959   5.594  0.1044 -0.1203 -0.4137
 8177SOL    HW131581   1.474   2.995   5.509  1.8277 -0.6526 -0.1347
 8177SOL    HW231582   1.415   2.872   5.574  0.5312 -0.2555 -0.5364
 8178SOL     OW31583   6.812   0.085   9.491  0.2467  0.0854  0.2512
 8178SOL    HW131584   6.859   0.054   9.569 -1.3208 -0.5293  0.9895
 8178SOL    HW231585   6.739   0.024   9.482 -0.1886  0.7815 -1.1115
 8179SOL     OW31586  10.941   9.471   3.799  0.0739  0.6619 -0.2358
 8179SOL    HW131587  10.860   9.419   3.794  0.5442 -0.0014 -1.8441
 8179SOL    HW231588  10.923   9.548   3.746  0.1403  1.0583  0.3094
 8180SOL     OW31589   7.553   9.730  11.087 -0.0729 -0.0549 -0.0049
 8180SOL    HW131590   7.519   9.690  11.167 -0.1453  0.0081 -0.0049
 8180SOL    HW231591   7.549   9.824  11.103 -1.5434  0.0237 -0.6747
 8181SOL     OW31592  10.302  12.252   7.450  0.0009  0.4064  0.1658
 8181SOL    HW131593  10.395  12.275   7.455  0.1682  0.1289 -1.2542
 8181SOL    HW231594  10.298  12.160   7.477  0.7809 -0.8685 -3.4240
 8182SOL     OW31595   2.807  10.992   3.699  0.8308  0.0087 -0.6384
 8182SOL    HW131596   2.772  11.061   3.642 -1.5097  0.5179  1.2658
 8182SOL    HW231597   2.865  11.039   3.759 -1.8971  0.7440  1.6181
 8183SOL     OW31598   6.069   3.657   3.140  0.6044  0.4066 -0.4043
 8183SOL    HW131599   6.004   3.726   3.128  0.8878  0.6945 -0.2861
 8183SOL    HW231600   6.148   3.703   3.168  1.2624  0.1999 -1.8554
 8184SOL     OW31601   2.062   4.979  11.781 -0.1361  0.1929 -0.3391
 8184SOL    HW131602   2.010   4.902  11.758  0.2376 -0.6852  1.5813
 8184SOL    HW231603   2.126   4.947  11.845  1.0263  1.8010 -0.6397
 8185SOL     OW31604   1.090   7.015   6.824  0.7655  0.2928 -0.3164
 8185SOL    HW131605   1.040   7.067   6.886 -2.0185 -0.9747 -1.3727
 8185SOL    HW231606   1.071   7.054   6.739 -0.0332 -1.3913 -0.9458
 8186SOL     OW31607   8.887   6.834   7.027 -0.0086 -0.1861  0.0502
 8186SOL    HW131608   8.944   6.894   6.979 -1.6823  2.2104  0.8608
 8186SOL    HW231609   8.881   6.872   7.115 -0.1142 -2.3118  1.0223
 8187SOL     OW31610   3.358   4.314  12.321 -0.3841  0.3045  0.2271
 8187SOL    HW131611   3.398   4.285  12.403 -1.1763  1.7195  1.1668
 8187SOL    HW231612   3.293   4.248  12.300  0.4497 -0.5407  0.2193
 8188SOL     OW31613  10.928   7.964  10.855  0.0705 -0.0827  0.1757
 8188SOL    HW131614  10.987   7.913  10.799  0.4176  0.2361  0.2510
 8188SOL    HW231615  10.853   7.905  10.869 -1.6750  0.9887 -3.3607
 8189SOL     OW31616   7.129   4.402   5.638  0.0306 -0.7555  0.1227
 8189SOL    HW131617   7.197   4.367   5.581  0.0340 -0.7666  0.1335
 8189SOL    HW231618   7.146   4.496   5.641 -1.1086 -0.4625 -1.4306
 8190SOL     OW31619   4.139   7.150  11.553 -0.6015  0.2703 -0.4595
 8190SOL    HW131620   4.117   7.060  11.527 -0.9550  0.3972 -0.6021
 8190SOL    HW231621   4.057   7.198  11.543 -0.0469  0.9750 -1.9845
 8191SOL     OW31622   7.400   7.083   3.125  0.2829  0.1185 -0.4414
 8191SOL    HW131623   7.399   7.052   3.216 -1.0988 -0.0390 -0.4872
 8191SOL    HW231624   7.491   7.075   3.098  0.3011 -2.3396  0.1038
 8192SOL     OW31625   2.433   3.640   5.694  0.4047 -0.4568  0.1074
 8192SOL    HW131626   2.383   3.593   5.628  0.0184 -0.9850  0.7608
 8192SOL    HW231627   2.440   3.579   5.767  0.8389  0.1056  0.5503
 8193SOL     OW31628   1.132   0.801   6.007  0.0359  0.1099 -0.4450
 8193SOL    HW131629   1.131   0.747   6.086 -0.2129 -0.0795 -0.5794
 8193SOL    HW231630   1.043   0.794   5.971 -0.4595  1.7871  0.3441
 8194SOL     OW31631  10.881   5.955   5.300 -0.0157  0.0787 -0.0864
 8194SOL    HW131632  10.918   5.868   5.287  0.9924  0.6138 -0.9836
 8194SOL    HW231633  10.858   5.984   5.211 -1.2954  0.3285  0.3091
 8195SOL     OW31634   3.137   2.150   6.451  0.0446  0.0314 -0.0881
 8195SOL    HW131635   3.124   2.234   6.497  2.8398 -0.4125  1.7540
 8195SOL    HW231636   3.083   2.088   6.500 -0.5934  0.3871 -0.3204
 8196SOL     OW31637   4.037   3.116   7.582 -0.0019 -0.4358 -0.2563
 8196SOL    HW131638   3.947   3.135   7.553  0.4065  0.0416 -1.2348
 8196SOL    HW231639   4.068   3.198   7.619  0.0411 -0.6004  0.0788
 8197SOL     OW31640  11.749   2.611   1.915 -0.4787 -0.2749 -0.3570
 8197SOL    HW131641  11.834   2.600   1.874 -0.1466  2.3544 -0.5683
 8197SOL    HW231642  11.687   2.609   1.843 -0.2224  1.0733 -0.6436
 8198SOL     OW31643   2.498   8.573   9.943 -0.0742  0.0443  0.0883
 8198SOL    HW131644   2.592   8.560   9.942  0.0419  0.3174  2.3820
 8198SOL    HW231645   2.462   8.487   9.967 -0.0307  0.8710  3.7353
 8199SOL     OW31646   0.622   5.781   5.903 -0.4742 -0.0757  0.1616
 8199SOL    HW131647   0.544   5.753   5.951  0.0419 -0.4973  0.7783
 8199SOL    HW231648   0.610   5.875   5.890 -1.1070 -0.1456  0.2019
 8200SOL     OW31649   7.847   5.630   0.081 -0.5891 -0.2793  0.3710
 8200SOL    HW131650   7.835   5.651   0.174  0.2435 -1.9111  0.8859
 8200SOL    HW231651   7.773   5.670   0.038  0.0457  2.2752  1.4485
 8201SOL     OW31652   7.895   8.724   0.688  0.6887  0.6495  0.3217
 8201SOL    HW131653   7.967   8.739   0.751  0.4936  1.0201  0.4591
 8201SOL    HW231654   7.828   8.787   0.713  0.1333  0.0235  0.4581
 8202SOL     OW31655   9.387   6.448   9.458  0.0049  0.6030  0.2264
 8202SOL    HW131656   9.345   6.401   9.386  0.4924 -0.8084  0.8314
 8202SOL    HW231657   9.379   6.389   9.533  2.4365  0.5634  0.5320
 8203SOL     OW31658   5.544   1.922  11.069  0.4472 -0.7341 -0.0264
 8203SOL    HW131659   5.541   1.831  11.097 -0.1447 -0.5550  0.5221
 8203SOL    HW231660   5.486   1.926  10.992  1.9356 -1.1889 -1.2253
 8204SOL     OW31661   9.313   3.608  11.918  0.1258 -0.3711 -0.0331
 8204SOL    HW131662   9.338   3.517  11.903 -0.4764 -0.2139 -2.5862
 8204SOL    HW231663   9.343   3.654  11.840 -2.1059  1.0400 -0.1686
 8205SOL     OW31664   1.022   0.866   4.566 -0.0413 -0.5068  0.0973
 8205SOL    HW131665   1.003   0.842   4.475 -1.3807 -0.2763  0.3112
 8205SOL    HW231666   1.056   0.955   4.561 -0.7491 -0.2503 -0.1070
 8206SOL     OW31667  11.294   2.811   8.029 -0.2845 -0.3992 -0.6179
 8206SOL    HW131668  11.206   2.827   8.064  0.0971 -0.0460  0.2111
 8206SOL    HW231669  11.279   2.764   7.947 -1.3188  0.8932 -1.2174
 8207SOL     OW31670   0.466   6.605   9.841  0.0414 -0.4135 -0.0495
 8207SOL    HW131671   0.551   6.585   9.880  1.4293  0.0939 -2.5877
 8207SOL    HW231672   0.406   6.542   9.880  1.7376 -1.3344  1.2067
 8208SOL     OW31673  11.653   5.767   2.575  0.7525  0.7502  0.2231
 8208SOL    HW131674  11.743   5.744   2.598  1.3766  1.2225 -1.6010
 8208SOL    HW231675  11.599   5.716   2.636  2.2435  1.6764  2.4412
 8209SOL     OW31676   5.511   3.120   1.348  0.0582  0.2816 -0.2658
 8209SOL    HW131677   5.532   3.142   1.257 -1.0006  1.3505 -0.2660
 8209SOL    HW231678   5.421   3.090   1.346  0.2681 -0.4185  0.3297
 8210SOL     OW31679   5.880   7.174   4.580  0.0000 -0.2927 -0.7766
 8210SOL    HW131680   5.917   7.251   4.622 -0.1351 -0.8928  0.5132
 8210SOL    HW231681   5.909   7.101   4.635  0.1554 -1.1710 -1.9806
 8211SOL     OW31682   6.337  11.498   5.840  1.1305 -0.0135 -0.3704
 8211SOL    HW131683   6.300  11.564   5.781  0.3445 -0.8395 -0.8199
 8211SOL    HW231684   6.431  11.517   5.841  0.7360  2.2491  0.9302
 8212SOL     OW31685  12.472   9.096   4.147 -0.1386  0.3634  0.0189
 8212SOL    HW131686  12.390   9.054   4.171 -0.9064  1.4507 -0.6123
 8212SOL    HW231687  12.464   9.185   4.182  2.0127 -0.3088  2.5480
 8213SOL     OW31688   0.892   5.495  11.988  0.3949  0.2909  0.5001
 8213SOL    HW131689   0.969   5.550  11.972  0.6339 -0.3509 -0.6949
 8213SOL    HW231690   0.917   5.409  11.954 -1.1327  0.2618 -0.6566
 8214SOL     OW31691   5.647   8.923   9.886  0.3603  0.0774  0.2376
 8214SOL    HW131692   5.724   8.870   9.865 -0.5874 -1.0055 -0.6974
 8214SOL    HW231693   5.640   8.985   9.814 -0.3317 -0.6672 -0.3642
 8215SOL     OW31694   7.091   5.347   1.062 -0.2487  0.2239  0.1850
 8215SOL    HW131695   7.166   5.352   1.121 -0.7112  0.7469  0.7277
 8215SOL    HW231696   7.038   5.274   1.096 -0.3199  0.2758  0.1848
 8216SOL     OW31697   4.982   8.771  11.890  0.2657 -0.1298  0.1642
 8216SOL    HW131698   4.932   8.852  11.884  0.3970 -0.1428 -1.5220
 8216SOL    HW231699   4.986   8.752  11.984 -1.2852  0.8526  0.4600
 8217SOL     OW31700   6.499  10.340   2.292 -0.9378 -0.5200 -0.4156
 8217SOL    HW131701   6.476  10.308   2.379 -2.0610  2.0914  0.3341
 8217SOL    HW231702   6.594  10.353   2.295 -1.0867  0.3946  0.7368
 8218SOL     OW31703   3.170   5.578   1.590 -0.3256  0.1609 -0.0119
 8218SOL    HW131704   3.156   5.488   1.619 -2.1879  0.0279 -1.1665
 8218SOL    HW231705   3.121   5.632   1.653  0.9657  0.4349  0.8101
 8219SOL     OW31706   8.089   9.851   5.368  0.4911  0.0161 -0.2959
 8219SOL    HW131707   8.014   9.911   5.359 -0.0214 -0.6478 -0.4936
 8219SOL    HW231708   8.051   9.771   5.405  0.9235 -0.6991 -1.3675
 8220SOL     OW31709   0.451   7.591  11.216  0.0547  0.6339  0.0860
 8220SOL    HW131710   0.377   7.648  11.196  1.2893  1.9829 -0.7385
 8220SOL    HW231711   0.499   7.637  11.285 -0.0339 -0.3948  0.8579
 8221SOL     OW31712   9.909   0.541   5.849  0.1847 -0.2793  0.0238
 8221SOL    HW131713   9.848   0.561   5.919 -0.0747 -1.0265  0.0179
 8221SOL    HW231714   9.974   0.611   5.852 -0.4668  0.3163  0.2645
 8222SOL     OW31715   5.775  12.019   9.000 -0.4484  0.0259 -0.4179
 8222SOL    HW131716   5.746  12.029   9.090 -1.2516  0.0578 -0.6728
 8222SOL    HW231717   5.870  12.011   9.006 -0.5871 -1.2331  0.5428
 8223SOL     OW31718  11.752   6.189  10.982  0.4797  0.4963  0.6799
 8223SOL    HW131719  11.670   6.237  10.995 -0.6900 -1.3521  0.4178
 8223SOL    HW231720  11.784   6.219  10.897 -1.2402 -0.5099 -0.3934
 8224SOL     OW31721   9.605   7.211   2.524  0.0046 -0.1100  0.0436
 8224SOL    HW131722   9.620   7.275   2.454 -1.2823 -0.4883 -0.6106
 8224SOL    HW231723   9.602   7.127   2.479  0.2423 -0.4776  0.7045
 8225SOL     OW31724   0.045   6.663   6.431  0.5740  0.4837 -0.2701
 8225SOL    HW131725   0.048   6.608   6.509 -2.6540 -0.6683 -0.7959
 8225SOL    HW231726   0.022   6.750   6.463 -0.1909  0.1438  0.1199
 8226SOL     OW31727   6.942  10.349   6.271  0.5528 -0.1943  0.9304
 8226SOL    HW131728   6.920  10.442   6.260  0.4127 -0.1383  1.6723
 8226SOL    HW231729   6.995  10.329   6.194 -0.9505  0.0139 -0.2210
 8227SOL     OW31730   9.745   7.413   5.669 -0.8256 -0.5839  0.1976
 8227SOL    HW131731   9.745   7.508   5.678 -1.7653 -0.5819  0.3679
 8227SOL    HW231732   9.776   7.381   5.754  0.2060 -0.4251 -0.1136
 8228SOL     OW31733   9.559   3.844   4.914 -0.3161  0.0842  0.2057
 8228SOL    HW131734   9.508   3.895   4.851 -2.4283 -1.3240  0.6354
 8228SOL    HW231735   9.516   3.860   4.998  0.4561 -0.5596  0.7402
 8229SOL     OW31736   1.361   2.721   4.742  0.1949 -0.0420  0.5744
 8229SOL    HW131737   1.285   2.677   4.704 -1.1133  0.7215  2.1617
 8229SOL    HW231738   1.324   2.794   4.791  1.9092  0.0569  1.8140
 8230SOL     OW31739   5.700   3.961   0.220 -0.8964 -0.3572  0.7788
 8230SOL    HW131740   5.655   3.964   0.135  0.2416 -2.6111  0.0187
 8230SOL    HW231741   5.644   4.013   0.278 -2.0250  0.7534 -1.1840
 8231SOL     OW31742   6.250   3.087  10.330  0.2299  0.1647  0.1195
 8231SOL    HW131743   6.266   3.177  10.357  0.3175  0.0680  0.3863
 8231SOL    HW231744   6.277   3.034  10.404 -1.2315 -0.0126  0.5615
 8232SOL     OW31745   2.819   1.614   0.473 -0.2098  0.0403  0.0965
 8232SOL    HW131746   2.863   1.535   0.442  0.7474 -0.1456  1.8001
 8232SOL    HW231747   2.851   1.684   0.416 -0.6912 -0.6963 -1.1195
 8233SOL     OW31748   9.953   8.612   8.373 -0.6521  0.0081  0.4577
 8233SOL    HW131749   9.907   8.637   8.293  1.4354 -0.6499 -1.0119
 8233SOL    HW231750   9.956   8.517   8.370  1.6380  0.0439 -0.0484
 8234SOL     OW31751   6.647   2.755   0.513  0.3971  0.2770 -0.4820
 8234SOL    HW131752   6.669   2.847   0.524  0.9753 -0.0516  1.5013
 8234SOL    HW231753   6.708   2.708   0.571 -1.3329 -1.1577  0.2938
 8235SOL     OW31754   7.945   3.375   2.889  0.6329  0.2490  0.2001
 8235SOL    HW131755   7.850   3.369   2.897  0.5931 -0.9724 -0.8998
 8235SOL    HW231756   7.961   3.465   2.860  0.1293  1.6397  3.6790
 8236SOL     OW31757   2.561   3.678  12.041  0.2996 -0.6345 -0.8929
 8236SOL    HW131758   2.649   3.680  12.005  0.5296 -1.0851 -0.3808
 8236SOL    HW231759   2.568   3.620  12.117 -0.7628 -1.8728 -1.7009
 8237SOL     OW31760   7.528   0.794  12.091 -0.5561 -0.4600 -0.3278
 8237SOL    HW131761   7.484   0.772  12.174 -0.4939 -1.5374 -0.5622
 8237SOL    HW231762   7.539   0.889  12.094 -0.6332 -0.4714  0.8631
 8238SOL     OW31763   9.900   1.245   3.654 -0.0578 -0.0603  0.1834
 8238SOL    HW131764   9.853   1.281   3.579  1.2296  1.1487 -0.0674
 8238SOL    HW231765   9.870   1.297   3.728 -0.2548 -0.3169  0.2884
 8239SOL     OW31766   0.159   3.888   5.111 -0.2387 -0.4432  0.0592
 8239SOL    HW131767   0.202   3.834   5.178  0.1987  0.2615  0.3529
 8239SOL    HW231768   0.138   3.969   5.156  1.1095  0.5062 -0.9428
 8240SOL     OW31769   3.141   5.184   3.294 -0.3434  0.3882 -0.0840
 8240SOL    HW131770   3.228   5.147   3.284 -0.6222 -0.1432 -0.6163
 8240SOL    HW231771   3.123   5.227   3.211 -0.8595 -0.0993 -0.2333
 8241SOL     OW31772   2.495   5.455  10.463 -0.0724  0.2511 -0.3013
 8241SOL    HW131773   2.432   5.418  10.402 -0.0321 -1.7786  0.8134
 8241SOL    HW231774   2.455   5.444  10.549  0.5129  1.7238  0.1966
 8242SOL     OW31775   2.868  11.695   2.246 -0.2467 -0.4576  0.0884
 8242SOL    HW131776   2.840  11.762   2.307  1.1761  0.2406  0.0250
 8242SOL    HW231777   2.846  11.612   2.288 -1.0403  0.0352  0.6536
 8243SOL     OW31778   1.850  11.830   3.186  0.3761 -0.0726  0.0238
 8243SOL    HW131779   1.841  11.747   3.139 -0.1170  0.2579 -0.4790
 8243SOL    HW231780   1.837  11.807   3.278 -0.9772 -0.3717 -0.2244
 8244SOL     OW31781   1.005   2.756   2.494  0.2700 -0.1635 -0.0124
 8244SOL    HW131782   0.960   2.718   2.418  1.4502 -2.1921  0.2218
 8244SOL    HW231783   0.934   2.789   2.549 -0.8551 -1.5789 -0.5178
 8245SOL     OW31784  10.272   4.360   6.483  0.5873 -0.7175  0.7559
 8245SOL    HW131785  10.203   4.357   6.416  0.4913 -0.7012  0.8538
 8245SOL    HW231786  10.353   4.369   6.433  0.7856 -3.2346  0.4910
 8246SOL     OW31787  12.105  11.491  10.168  0.6408 -0.5247  0.4625
 8246SOL    HW131788  12.140  11.577  10.192  2.2685 -0.9668 -0.2211
 8246SOL    HW231789  12.052  11.465  10.243  2.3355 -0.1089  1.8674
 8247SOL     OW31790   4.731   7.147   6.450 -0.4092  0.2047 -0.3544
 8247SOL    HW131791   4.812   7.095   6.446 -0.6974 -0.4826  1.5048
 8247SOL    HW231792   4.677   7.102   6.515 -2.2213  0.7827 -1.3810
 8248SOL     OW31793   5.061  11.655  10.172  0.7389 -0.7340  0.2700
 8248SOL    HW131794   5.126  11.697  10.227  0.3327 -0.6582  0.7009
 8248SOL    HW231795   5.022  11.727  10.122 -0.1204 -0.5523  1.1782
 8249SOL     OW31796   9.026   8.670   8.794  0.4927 -0.1822 -0.3450
 8249SOL    HW131797   9.007   8.738   8.859 -0.4799 -0.0152 -0.7820
 8249SOL    HW231798   9.044   8.718   8.714 -2.0870 -0.4263 -1.1465
 8250SOL     OW31799   1.846   7.973   4.416  0.4490 -0.2773 -0.1249
 8250SOL    HW131800   1.890   7.960   4.332 -1.3594 -2.3059 -0.8482
 8250SOL    HW231801   1.913   8.013   4.472  1.7447  1.0340 -2.4431
 8251SOL     OW31802   8.441   9.027  10.361  0.3619 -0.0561  0.0118
 8251SOL    HW131803   8.513   9.042  10.423 -1.0266  0.2053  1.6304
 8251SOL    HW231804   8.381   8.969  10.408  0.2275 -1.5180 -1.8966
 8252SOL     OW31805   5.467   4.071   0.340  0.1106  0.7859 -0.2217
 8252SOL    HW131806   5.440   4.143   0.283  0.3289  0.7461 -0.3751
 8252SOL    HW231807   5.421   4.087   0.423 -1.6014 -0.0838 -0.9392
 8253SOL     OW31808   4.628   5.587  10.917  0.0239  0.4817 -0.5210
 8253SOL    HW131809   4.609   5.681  10.925 -1.4318  0.3518 -1.8210
 8253SOL    HW231810   4.559   5.554  10.859  1.6071 -1.0282 -1.6457
 8254SOL     OW31811   8.090   0.391   9.892 -0.2760 -0.5264  0.1298
 8254SOL    HW131812   8.014   0.351   9.934 -1.7072  0.8086 -1.0588
 8254SOL    HW231813   8.058   0.416   9.805  1.6317 -0.2117 -0.5137
 8255SOL     OW31814   2.955   4.977   9.380  0.1821 -0.4560 -0.0098
 8255SOL    HW131815   2.958   4.939   9.467 -0.3618 -0.3570  0.0532
 8255SOL    HW231816   2.894   5.050   9.387 -0.6979 -1.1024 -0.7252
 8256SOL     OW31817  10.458   2.801  12.270  0.3684 -0.7436 -0.3432
 8256SOL    HW131818  10.432   2.744  12.198  0.3683 -2.2763  0.8279
 8256SOL    HW231819  10.375   2.833  12.306  0.3789  1.0682 -1.7553
 8257SOL     OW31820  12.389  11.567   6.568  0.0993  0.3767 -0.0396
 8257SOL    HW131821  12.335  11.631   6.615 -1.7495  0.1250 -1.7097
 8257SOL    HW231822  12.471  11.614   6.550 -0.7825  1.8862 -0.2508
 8258SOL     OW31823   4.008   9.967   8.094  0.0435  0.2125 -0.0241
 8258SOL    HW131824   3.933  10.017   8.060  1.0585  2.5030  0.8650
 8258SOL    HW231825   3.976   9.930   8.177 -0.3521  0.4795 -0.0560
 8259SOL     OW31826   1.898   4.277   6.177  0.3046  0.1779  0.3683
 8259SOL    HW131827   1.849   4.263   6.258 -0.7567 -0.8044 -0.4096
 8259SOL    HW231828   1.940   4.193   6.159  0.1804  0.2559 -0.3209
 8260SOL     OW31829  11.095   2.595  10.604 -0.6915 -0.6851  0.1618
 8260SOL    HW131830  11.149   2.673  10.610 -0.5308 -0.6515 -1.3548
 8260SOL    HW231831  11.157   2.522  10.608 -0.7460 -0.7123  0.5534
 8261SOL     OW31832   2.974  11.926   6.639 -0.7541 -0.2948 -0.1926
 8261SOL    HW131833   2.931  11.977   6.570  2.3245  2.1900 -0.5648
 8261SOL    HW231834   2.943  11.964   6.721 -1.0905 -0.2019 -0.3643
 8262SOL     OW31835   1.950   2.683   9.787  0.5953 -0.4071 -0.0843
 8262SOL    HW131836   1.927   2.641   9.705  0.7969  1.9836 -1.4435
 8262SOL    HW231837   2.041   2.657   9.803  1.0457  0.2441 -1.4293
 8263SOL     OW31838   9.895   7.302   6.902  0.2288  1.1130  0.1902
 8263SOL    HW131839   9.988   7.324   6.901  0.6290 -0.4344 -0.7161
 8263SOL    HW231840   9.879   7.264   6.816 -1.1254  0.8820  0.5213
 8264SOL     OW31841  12.491   9.777   7.059  0.0890  0.1796 -0.4205
 8264SOL    HW131842  12.531   9.843   7.116  0.2177  0.2855 -0.6339
 8264SOL    HW231843  12.469   9.705   7.118 -1.2339  0.9301  0.0598
 8265SOL     OW31844   2.964   2.752   7.359  0.0023 -0.1340 -0.0721
 8265SOL    HW131845   2.888   2.743   7.301  0.1399  0.9375 -0.4436
 8265SOL    HW231846   2.939   2.705   7.438 -0.4839 -0.9978 -0.7186
 8266SOL     OW31847   3.236  10.622   9.753 -0.3390 -0.1521 -0.4749
 8266SOL    HW131848   3.188  10.577   9.822 -0.0651  0.1461 -0.0806
 8266SOL    HW231849   3.242  10.559   9.682  1.2496 -1.2767  0.5819
 8267SOL     OW31850   3.576   0.634   9.927 -0.2942 -0.4579 -0.5516
 8267SOL    HW131851   3.575   0.662   9.835  1.1752 -0.0418 -0.4798
 8267SOL    HW231852   3.614   0.546   9.925  1.3556  0.2036 -0.2401
 8268SOL     OW31853   3.325   1.009   3.214  0.0379  0.3245 -0.0944
 8268SOL    HW131854   3.375   1.073   3.165  2.2232 -1.0240  0.2355
 8268SOL    HW231855   3.294   0.947   3.147  0.8397 -0.1147 -0.0716
 8269SOL     OW31856   4.844  10.597   4.566 -0.1905  0.5856  0.3840
 8269SOL    HW131857   4.927  10.622   4.607  0.0316  2.1199 -0.8980
 8269SOL    HW231858   4.778  10.645   4.617 -0.0976  0.9276  0.1867
 8270SOL     OW31859   3.233   7.038   5.461  0.5847 -0.0940  0.2753
 8270SOL    HW131860   3.185   7.071   5.385  0.9224  1.0470  0.5312
 8270SOL    HW231861   3.326   7.047   5.437  0.6903 -0.4718  0.5239
 8271SOL     OW31862   4.010   3.647   2.903 -0.6076 -0.2422 -0.3502
 8271SOL    HW131863   4.083   3.692   2.946 -0.4425 -1.0367  0.2240
 8271SOL    HW231864   3.989   3.702   2.828  0.7407 -0.1162 -0.6717
 8272SOL     OW31865  12.195   5.298   8.063  0.0960 -0.8831  0.1569
 8272SOL    HW131866  12.134   5.253   8.120 -1.2810  0.7507  0.0470
 8272SOL    HW231867  12.164   5.279   7.974 -0.1175 -0.2468  0.0922
 8273SOL     OW31868   5.965   8.724   8.307 -0.2317  0.5087 -0.3295
 8273SOL    HW131869   6.011   8.671   8.242 -0.2601  1.1208 -0.8532
 8273SOL    HW231870   5.890   8.670   8.333  0.6346 -0.4158  0.3838
 8274SOL     OW31871   8.665  10.373   9.723  0.1068  0.2553  0.2821
 8274SOL    HW131872   8.639  10.341   9.637 -0.5118  0.4047  0.4086
 8274SOL    HW231873   8.761  10.378   9.718  0.0754  0.3677 -0.4355
 8275SOL     OW31874   2.484   1.364  11.298  0.2704  0.0621  0.0688
 8275SOL    HW131875   2.576   1.343  11.280 -0.0291 -1.2629 -0.0532
 8275SOL    HW231876   2.479   1.367  11.394  0.4664  0.2604  0.0733
 8276SOL     OW31877   2.749   5.165   2.509 -0.0056  0.7429 -0.0892
 8276SOL    HW131878   2.809   5.232   2.477 -0.8842  2.0497  0.8630
 8276SOL    HW231879   2.675   5.169   2.449 -0.0906  0.6645  0.0108
 8277SOL     OW31880  10.733   8.727   1.934 -0.3902 -0.5740  0.1282
 8277SOL    HW131881  10.647   8.753   1.965 -1.0943 -0.9655 -1.3895
 8277SOL    HW231882  10.775   8.687   2.010 -1.8720 -1.1428  0.6867
 8278SOL     OW31883  12.442   8.246   0.021 -0.2278 -0.0773  0.2395
 8278SOL    HW131884  12.362   8.197   0.004 -0.0065 -0.5525  0.5643
 8278SOL    HW231885  12.487   8.249  -0.063 -0.1691 -0.5648  0.2506
 8279SOL     OW31886   8.942   6.266  11.803  0.5497 -0.0686 -0.0335
 8279SOL    HW131887   8.970   6.350  11.767  1.1041 -0.0461  0.4390
 8279SOL    HW231888   8.913   6.216  11.726  0.2230  0.5461 -0.3138
 8280SOL     OW31889   6.975   1.978   9.970 -0.0567  0.1299 -0.6084
 8280SOL    HW131890   7.063   1.991   9.936  0.3838 -3.5112 -1.2939
 8280SOL    HW231891   6.921   2.041   9.923  1.7419  0.5512 -2.2415
 8281SOL     OW31892   7.599   3.547   4.958 -0.6866  0.4074 -0.1243
 8281SOL    HW131893   7.571   3.458   4.935  0.8957 -0.3417  0.6960
 8281SOL    HW231894   7.611   3.544   5.053  0.6783  1.1116 -0.2572
 8282SOL     OW31895   2.731  10.023   6.488  0.4486  0.1027 -0.1746
 8282SOL    HW131896   2.708   9.938   6.451 -0.0123  0.1813 -0.0755
 8282SOL    HW231897   2.650  10.074   6.483  1.1176  1.1177 -1.8361
 8283SOL     OW31898   4.087   5.896  10.410 -0.7382  0.1237  0.2577
 8283SOL    HW131899   4.069   5.990  10.404 -0.0958  0.1766 -1.4153
 8283SOL    HW231900   4.086   5.877  10.504 -2.8440  1.3843  0.5390
 8284SOL     OW31901   6.220   5.820  12.454  0.2304 -0.6287 -0.1312
 8284SOL    HW131902   6.175   5.840  12.536  1.1066  0.3521  0.1316
 8284SOL    HW231903   6.162   5.757  12.410 -1.4128  0.6106  0.1609
 8285SOL     OW31904   9.006   1.558   3.979  0.4353 -0.5145  0.4093
 8285SOL    HW131905   8.963   1.472   3.979  1.3284 -0.9860 -0.3431
 8285SOL    HW231906   8.943   1.616   4.021 -0.4986 -1.3887  0.2756
 8286SOL     OW31907   6.073  12.424   8.245 -0.3285 -0.3018  0.0100
 8286SOL    HW131908   6.155  12.417   8.294  0.2470  0.1223 -0.8690
 8286SOL    HW231909   6.099  12.456   8.159 -1.5381  0.8518  0.0425
 8287SOL     OW31910   9.131   8.799   3.725 -0.6761  0.0069 -0.3358
 8287SOL    HW131911   9.158   8.828   3.638 -3.0466  0.8264 -0.8768
 8287SOL    HW231912   9.075   8.723   3.708 -0.1916 -0.5729  0.5864
 8288SOL     OW31913   4.615  12.382  10.899 -0.6657 -0.6537 -0.1343
 8288SOL    HW131914   4.577  12.342  10.977 -2.7833 -0.6490 -1.0958
 8288SOL    HW231915   4.624  12.310  10.837  0.7905 -0.6124 -0.0090
 8289SOL     OW31916   7.628   3.115   7.859 -1.0556 -0.1405  0.8448
 8289SOL    HW131917   7.562   3.174   7.823 -0.6315  0.6362  1.3276
 8289SOL    HW231918   7.671   3.078   7.782 -0.7321  0.8503  0.5407
 8290SOL     OW31919   4.438  10.461   2.470  0.3391  0.2891  0.0067
 8290SOL    HW131920   4.494  10.476   2.394 -0.0723  3.3027  0.1846
 8290SOL    HW231921   4.360  10.418   2.435  1.8745 -2.2809 -0.5276
 8291SOL     OW31922   6.118   7.876   5.055  0.0678  0.1806  0.2734
 8291SOL    HW131923   6.145   7.808   5.116  1.1288  0.9419  0.6888
 8291SOL    HW231924   6.200   7.908   5.017 -0.4176  1.1489 -0.0004
 8292SOL     OW31925   7.894  10.637   7.324 -0.7392 -0.6191 -0.0996
 8292SOL    HW131926   7.888  10.558   7.377 -1.0510 -0.4002  0.1916
 8292SOL    HW231927   7.896  10.709   7.388  0.8097 -0.4386 -0.2931
 8293SOL     OW31928   5.019   8.885  10.682 -0.3527 -0.3938  0.1814
 8293SOL    HW131929   4.989   8.795  10.671  2.3140 -1.3260 -0.1217
 8293SOL    HW231930   5.027   8.919  10.593 -2.4305  0.5936  0.3191
 8294SOL     OW31931   9.991   7.027  10.002 -0.3013 -0.0270 -0.6508
 8294SOL    HW131932  10.042   6.953   9.968  1.5448  1.0617 -0.4418
 8294SOL    HW231933  10.020   7.102   9.949 -0.2733  0.9839  0.7306
 8295SOL     OW31934   7.827  11.436   4.145 -0.6090 -0.2409 -0.0479
 8295SOL    HW131935   7.780  11.466   4.068 -0.7799 -0.5569 -0.0673
 8295SOL    HW231936   7.762  11.387   4.195 -1.0779  1.6374  1.3070
 8296SOL     OW31937  11.212   8.372   3.535 -0.5179  0.5115  0.0704
 8296SOL    HW131938  11.273   8.404   3.601 -2.5923  0.8125  2.0002
 8296SOL    HW231939  11.178   8.451   3.493 -0.0306  0.3751 -0.5993
 8297SOL     OW31940   1.806   7.230  10.520 -0.1612  0.2767 -0.2242
 8297SOL    HW131941   1.730   7.274  10.558 -1.0553 -2.0653  0.8909
 8297SOL    HW231942   1.769   7.173  10.452  0.6554 -0.4138 -0.1092
 8298SOL     OW31943  12.310   4.191   5.001 -0.1102  0.1994 -0.0118
 8298SOL    HW131944  12.348   4.140   5.073 -0.3220 -0.8813 -0.6493
 8298SOL    HW231945  12.224   4.151   4.987  0.4428 -0.4639 -1.7227
 8299SOL     OW31946  12.565  10.977  10.105 -0.4572 -0.1558  0.4377
 8299SOL    HW131947  12.582  10.995  10.197  1.2021 -0.9372  0.3318
 8299SOL    HW231948  12.492  11.034  10.082 -0.7296  0.2452  2.1557
 8300SOL     OW31949   2.473   3.860   7.213 -0.2428 -0.5342  0.5690
 8300SOL    HW131950   2.554   3.911   7.217  0.0740 -1.0086  0.2427
 8300SOL    HW231951   2.502   3.770   7.200 -0.8678 -0.4708 -1.5490
 8301SOL     OW31952   5.933   8.539  10.480  0.1797 -0.6938 -0.2782
 8301SOL    HW131953   5.841   8.536  10.456  0.2251  1.5811 -0.8847
 8301SOL    HW231954   5.979   8.517  10.399  0.2005  1.0675 -0.7749
 8302SOL     OW31955   1.445   2.248  10.452  0.5699 -0.2487  0.0362
 8302SOL    HW131956   1.405   2.314  10.509  0.5984 -0.5298  0.3853
 8302SOL    HW231957   1.374   2.218  10.396  0.4934 -0.1126  0.0607
 8303SOL     OW31958   0.008   8.143   8.316 -0.3673  0.0961 -0.1641
 8303SOL    HW131959  -0.052   8.134   8.390  0.4854 -0.0819  0.5272
 8303SOL    HW231960  -0.047   8.174   8.244 -0.8812  2.3592  1.0832
 8304SOL     OW31961   2.754   7.283   6.612 -0.1499  0.5342 -0.0087
 8304SOL    HW131962   2.683   7.347   6.614 -2.2594 -1.6436 -0.8942
 8304SOL    HW231963   2.797   7.297   6.528 -1.4494 -0.0105 -0.7944
 8305SOL     OW31964   6.274   4.457   7.447  0.1270 -0.0061  0.2885
 8305SOL    HW131965   6.260   4.400   7.372 -1.9625 -0.0649  0.6590
 8305SOL    HW231966   6.281   4.545   7.409  1.3507 -0.2724 -0.1281
 8306SOL     OW31967   5.272   2.923   5.538 -0.0897 -0.2400  0.1678
 8306SOL    HW131968   5.236   2.933   5.450  1.0371 -0.8869 -0.3910
 8306SOL    HW231969   5.345   2.984   5.542 -1.4029  1.3308  1.4208
 8307SOL     OW31970   3.214   3.144   2.869  0.2893  0.0351 -0.3747
 8307SOL    HW131971   3.153   3.070   2.868  0.9114 -0.5218  0.7110
 8307SOL    HW231972   3.261   3.135   2.952  2.0860  0.2406 -1.3263
 8308SOL     OW31973   4.656   4.331   0.913 -0.0772  0.9271 -0.1368
 8308SOL    HW131974   4.748   4.311   0.930  0.2443  2.3122 -0.1363
 8308SOL    HW231975   4.643   4.307   0.821 -0.1990 -0.8407  0.2926
 8309SOL     OW31976  10.475   6.385   3.483 -0.6394  0.0607  0.0230
 8309SOL    HW131977  10.570   6.396   3.488 -0.6971  0.8442 -0.4369
 8309SOL    HW231978  10.453   6.414   3.395 -1.4246  0.7956  0.4552
 8310SOL     OW31979   8.520   6.305  11.222 -0.4445 -0.8773  0.0954
 8310SOL    HW131980   8.456   6.373  11.202 -1.8645 -1.9974  0.6736
 8310SOL    HW231981   8.548   6.324  11.311 -1.2178 -1.3302  0.4393
 8311SOL     OW31982   7.951  12.111   5.574 -0.1092  0.0941 -0.4925
 8311SOL    HW131983   7.870  12.151   5.604  0.1275 -0.7937  1.4741
 8311SOL    HW231984   8.012  12.123   5.646  1.0718 -0.5498 -1.3431
 8312SOL     OW31985   2.275  11.362  10.558  0.0281 -0.0045  0.2274
 8312SOL    HW131986   2.356  11.397  10.596 -0.0978  0.6186 -0.0701
 8312SOL    HW231987   2.303  11.286  10.508  0.3728 -0.0450  0.4755
 8313SOL     OW31988   0.426   7.655   4.423 -0.6241 -0.1112  0.1142
 8313SOL    HW131989   0.478   7.718   4.472  0.4365  0.6157 -1.8122
 8313SOL    HW231990   0.457   7.569   4.452  0.5826  0.3113  0.1231
 8314SOL     OW31991   7.691  12.515   3.332  0.5248  0.1404  0.8413
 8314SOL    HW131992   7.676  12.441   3.391  1.1415 -0.6142  0.0714
 8314SOL    HW231993   7.633  12.499   3.258  0.6861  0.4068  0.6545
 8315SOL     OW31994   0.673   6.610   2.359 -0.6148 -0.8740  0.2793
 8315SOL    HW131995   0.605   6.578   2.418  0.7179 -1.1556  1.7182
 8315SOL    HW231996   0.628   6.621   2.275 -2.6113 -0.3646  1.3287
 8316SOL     OW31997   6.729   1.372   6.646  0.5908 -0.3366  0.2812
 8316SOL    HW131998   6.719   1.443   6.709 -2.2095 -1.1375  0.8915
 8316SOL    HW231999   6.699   1.410   6.563  1.2307 -0.2011  0.1043
 8317SOL     OW32000   0.414   6.857   9.729  0.7604  0.5478 -0.0397
 8317SOL    HW132001   0.447   6.922   9.791  1.9060  0.0825 -0.1322
 8317SOL    HW232002   0.415   6.775   9.778 -0.0330  0.4759 -0.1317
 8318SOL     OW32003   1.041   7.463   6.421 -0.4280  0.2110  0.7277
 8318SOL    HW132004   1.016   7.549   6.454 -1.7476  0.4564 -0.7878
 8318SOL    HW232005   1.137   7.465   6.419 -0.4471  2.0439 -0.2685
 8319SOL     OW32006  10.243   4.949   2.443 -0.6513  0.0503  0.4355
 8319SOL    HW132007  10.195   4.923   2.522  0.2245 -1.2050  0.5798
 8319SOL    HW232008  10.201   4.901   2.372 -2.0479  1.8956 -0.0578
 8320SOL     OW32009  12.012   9.074   8.425  0.0168  0.2786  0.3108
 8320SOL    HW132010  11.945   9.034   8.370 -0.1146  1.1672 -0.1887
 8320SOL    HW232011  12.050   9.143   8.371  0.0840  0.9821  1.2308
 8321SOL     OW32012   4.358   1.344   7.153  0.5620  0.6660 -0.2839
 8321SOL    HW132013   4.390   1.288   7.223  0.2458 -1.9033 -2.0437
 8321SOL    HW232014   4.431   1.350   7.091  0.1496  1.0702 -0.7409
 8322SOL     OW32015   9.675   8.488   0.762  0.5445 -0.3388 -1.0229
 8322SOL    HW132016   9.740   8.467   0.828 -0.1438  0.2453 -0.1427
 8322SOL    HW232017   9.661   8.405   0.714 -1.1403 -1.6322  1.4944
 8323SOL     OW32018  12.273   1.233   8.638  0.2251 -0.3413 -0.0113
 8323SOL    HW132019  12.365   1.253   8.623  1.3280 -2.4546  2.9740
 8323SOL    HW232020  12.249   1.287   8.714 -0.7701 -0.4130 -0.2578
 8324SOL     OW32021  11.256   6.177   2.876 -0.2985 -0.2128  0.4107
 8324SOL    HW132022  11.289   6.095   2.914 -1.3206 -0.3021  1.1651
 8324SOL    HW232023  11.329   6.238   2.884  1.3009 -1.6089 -2.2367
 8325SOL     OW32024   8.829   0.651  12.503  0.1058 -0.2506 -0.5715
 8325SOL    HW132025   8.871   0.622  12.422 -0.4784 -1.6756 -0.3898
 8325SOL    HW232026   8.784   0.573  12.536  1.4290 -0.0673  1.8401
 8326SOL     OW32027   1.486  11.219   9.188 -0.4008  0.5324 -0.3713
 8326SOL    HW132028   1.504  11.261   9.273  0.6713  0.8629 -0.7491
 8326SOL    HW232029   1.430  11.144   9.210 -2.0112  1.8681  0.3696
 8327SOL     OW32030  12.365   2.220  10.968 -0.3248 -0.1733  0.0616
 8327SOL    HW132031  12.381   2.227  11.062  1.6349 -1.0615 -0.1455
 8327SOL    HW232032  12.431   2.278  10.929  0.0022 -1.1104 -0.8005
 8328SOL     OW32033  11.932   3.235   3.603  0.2081  0.3217  0.6932
 8328SOL    HW132034  12.024   3.215   3.582  0.6116  1.0959  1.6554
 8328SOL    HW232035  11.918   3.322   3.567 -0.4347 -0.1508 -0.2333
 8329SOL     OW32036  11.698   7.817   2.188 -0.6385  0.2059  0.5998
 8329SOL    HW132037  11.789   7.828   2.160 -0.7759 -3.5262 -2.0233
 8329SOL    HW232038  11.702   7.751   2.257 -1.2518  2.0719  2.5510
 8330SOL     OW32039   6.989   0.729   8.697  0.0725  0.3054 -0.6464
 8330SOL    HW132040   6.943   0.796   8.647 -0.7231  0.6605  0.5284
 8330SOL    HW232041   6.985   0.758   8.788  0.9707 -0.6186 -0.2779
 8331SOL     OW32042  11.347   8.102   5.440  0.1306  0.6696  0.7227
 8331SOL    HW132043  11.430   8.077   5.480  1.1998  0.9685 -1.1621
 8331SOL    HW232044  11.293   8.023   5.445  1.3833 -0.2884 -0.0491
 8332SOL     OW32045   3.711   2.986  11.570  0.3413  0.3248  0.4492
 8332SOL    HW132046   3.803   3.011  11.567  0.3231  0.4933  1.1706
 8332SOL    HW232047   3.709   2.909  11.626  0.2805 -0.8264 -1.0542
 8333SOL     OW32048   3.104  11.266   0.013  0.1885  0.6255  0.1958
 8333SOL    HW132049   3.137  11.182   0.045 -1.3776  0.4189  1.3300
 8333SOL    HW232050   3.063  11.245  -0.071 -2.4971 -0.3012  1.6292
 8334SOL     OW32051   3.376   9.342  10.777 -0.0573 -0.3096  0.0211
 8334SOL    HW132052   3.323   9.354  10.856 -1.2292  2.2791 -1.0790
 8334SOL    HW232053   3.464   9.324  10.811 -0.8716 -1.0941  1.8847
 8335SOL     OW32054   7.798   2.300  11.846  0.0056  0.2301 -0.3858
 8335SOL    HW132055   7.738   2.357  11.894  0.0696  1.5382 -1.7961
 8335SOL    HW232056   7.743   2.233  11.807 -0.2427  0.1311  0.1228
 8336SOL     OW32057   5.320   8.653   4.563  0.6314  0.4029 -0.2184
 8336SOL    HW132058   5.409   8.640   4.596  0.4139 -1.0813 -0.1344
 8336SOL    HW232059   5.331   8.669   4.470  0.9429 -1.3748 -0.5325
 8337SOL     OW32060   9.581  10.302  10.199 -0.1582 -0.0833 -0.4601
 8337SOL    HW132061   9.580  10.207  10.194 -0.7466 -0.1865  1.0393
 8337SOL    HW232062   9.630  10.321  10.279 -0.8244  0.8269 -0.2530
 8338SOL     OW32063   0.827   5.514   7.446 -0.0677 -0.0408 -0.5467
 8338SOL    HW132064   0.796   5.587   7.499  1.1785 -0.2529  0.5421
 8338SOL    HW232065   0.769   5.441   7.469  0.6820 -0.2341  0.8728
 8339SOL     OW32066   6.983   4.707   4.185 -0.3369 -0.5344 -0.3924
 8339SOL    HW132067   6.888   4.707   4.179 -0.6137 -0.2129  2.3438
 8339SOL    HW232068   7.010   4.788   4.142 -1.2068 -1.0010 -1.8574
 8340SOL     OW32069   8.156   3.435   6.070  0.0940 -0.2967 -0.0493
 8340SOL    HW132070   8.164   3.529   6.083  1.9596 -0.7037  2.4838
 8340SOL    HW232071   8.240   3.408   6.033 -0.1146 -1.0728  0.0255
 8341SOL     OW32072   5.089   2.883  12.339 -0.2558  0.0751  0.6242
 8341SOL    HW132073   5.171   2.849  12.375  0.6247  1.9414  0.4751
 8341SOL    HW232074   5.038   2.908  12.415 -0.2750 -0.1478  0.6863
 8342SOL     OW32075   5.601  10.442   2.973  0.1725 -0.4779  0.3177
 8342SOL    HW132076   5.578  10.501   2.901  1.3836 -0.8591 -0.4259
 8342SOL    HW232077   5.688  10.471   3.000 -0.0174 -0.7330  1.2286
 8343SOL     OW32078   4.111   9.239   0.597  0.0561 -0.1289 -0.0204
 8343SOL    HW132079   4.153   9.164   0.639 -0.0093  0.0625  0.3895
 8343SOL    HW232080   4.075   9.204   0.516 -2.6931 -1.2725  1.5716
 8344SOL     OW32081   7.089   0.974  10.158  0.5404 -0.6862 -0.1927
 8344SOL    HW132082   6.999   0.944  10.150  0.5968 -0.9393  0.1077
 8344SOL    HW232083   7.094   1.050  10.100 -0.2519  0.1787  0.8302
 8345SOL     OW32084   4.875   5.795   1.238 -0.5391 -0.2677 -0.5329
 8345SOL    HW132085   4.951   5.761   1.284 -1.2075  0.3633  1.1054
 8345SOL    HW232086   4.900   5.884   1.211 -0.7529  0.0171  0.1905
 8346SOL     OW32087  12.498   1.247  10.198  0.2548  0.3894  0.4740
 8346SOL    HW132088  12.592   1.254  10.177  0.4262 -2.4591 -0.1054
 8346SOL    HW232089  12.491   1.277  10.288  2.1265 -1.3423  1.2577
 8347SOL     OW32090   7.904   9.588   5.217 -0.0563  0.0246  0.3282
 8347SOL    HW132091   7.884   9.505   5.173  0.8618  0.2656 -0.5876
 8347SOL    HW232092   7.870   9.655   5.158  2.4773  0.4110 -0.8343
 8348SOL     OW32093  10.111   2.106  11.183 -0.2829  0.0328  0.2193
 8348SOL    HW132094  10.026   2.148  11.170  0.8530  2.2783 -0.3422
 8348SOL    HW232095  10.144   2.090  11.095  0.3735  0.2224  0.4281
 8349SOL     OW32096   5.486   1.678   6.533 -0.1855  0.1429  0.5452
 8349SOL    HW132097   5.434   1.699   6.455  1.2494 -1.0190 -0.7790
 8349SOL    HW232098   5.577   1.683   6.504  0.3526 -2.4075  1.5281
 8350SOL     OW32099   2.930  11.737   6.924  0.7176 -0.5193  0.9071
 8350SOL    HW132100   2.980  11.788   6.861 -1.2133 -0.5689 -0.7895
 8350SOL    HW232101   2.849  11.787   6.936 -1.3578 -3.0709 -0.9921
 8351SOL     OW32102   5.348   2.842   3.900  0.3849 -0.6369 -0.2723
 8351SOL    HW132103   5.309   2.759   3.928 -1.2043 -0.0395 -0.6128
 8351SOL    HW232104   5.436   2.840   3.936  0.4230 -2.5164 -0.3661
 8352SOL     OW32105   4.032  10.835  11.887  0.3216 -0.6185  0.1110
 8352SOL    HW132106   4.119  10.857  11.854  1.2881 -2.4293  1.3000
 8352SOL    HW232107   4.038  10.847  11.982 -1.7069  2.2295  0.0227
 8353SOL     OW32108   1.168   6.669   2.765  0.6407 -0.4316 -0.4249
 8353SOL    HW132109   1.233   6.598   2.766  0.7565 -0.3637  1.6204
 8353SOL    HW232110   1.188   6.720   2.843 -1.2349  0.2081 -0.3213
 8354SOL     OW32111   4.984   5.717   5.191  0.0843  0.1090  0.1819
 8354SOL    HW132112   5.026   5.633   5.209  0.2411  0.2330  0.3964
 8354SOL    HW232113   4.909   5.719   5.250  0.0376  0.0891  0.1238
 8355SOL     OW32114  10.191  10.917  10.752  0.2967 -0.1752 -0.0172
 8355SOL    HW132115  10.136  10.878  10.820  0.6397 -0.8861 -0.1402
 8355SOL    HW232116  10.281  10.905  10.784  0.9154 -4.6510 -2.5004
 8356SOL     OW32117   5.823   8.195   1.116  0.1654  0.3708 -0.4724
 8356SOL    HW132118   5.821   8.192   1.212 -3.6781  0.0718 -0.3836
 8356SOL    HW232119   5.883   8.267   1.095 -1.1252  2.4723  2.3215
 8357SOL     OW32120   7.734   8.463  10.008 -0.2941 -0.0326  0.1585
 8357SOL    HW132121   7.650   8.509  10.014  0.1977  1.5500 -2.9935
 8357SOL    HW232122   7.799   8.529  10.027  0.3186 -0.2443 -1.0686
 8358SOL     OW32123   2.425  10.911   7.971 -0.2607  0.0761 -0.0747
 8358SOL    HW132124   2.504  10.943   7.927 -0.1684 -0.8925 -0.6370
 8358SOL    HW232125   2.457  10.874   8.053 -0.2004  0.1804 -0.0502
 8359SOL     OW32126  10.608  11.634  10.884  0.1920  0.6019  0.1996
 8359SOL    HW132127  10.652  11.707  10.926 -0.1658 -0.8490  3.4374
 8359SOL    HW232128  10.674  11.595  10.827  1.0391  2.1458  0.0753
 8360SOL     OW32129  11.111   8.489   4.467 -0.6628 -0.1994 -0.2735
 8360SOL    HW132130  11.149   8.534   4.391  1.5925  0.8021  1.3530
 8360SOL    HW232131  11.145   8.400   4.461  0.6370  0.2465  0.2731
 8361SOL     OW32132   6.103   5.155  11.043  0.2918 -0.1915  0.7014
 8361SOL    HW132133   6.101   5.063  11.017  1.2945  0.2388 -1.0431
 8361SOL    HW232134   6.151   5.155  11.126  3.2400 -0.9882 -0.8519
 8362SOL     OW32135  10.647   7.933   8.314 -0.2519  0.5840  0.0800
 8362SOL    HW132136  10.661   7.988   8.237 -2.0761  2.0754  0.7286
 8362SOL    HW232137  10.591   7.862   8.283  0.0413  0.4953 -0.2405
 8363SOL     OW32138   5.337   1.435   0.236  0.4490  0.0405  0.2396
 8363SOL    HW132139   5.248   1.407   0.256  0.6043 -0.1803  0.6290
 8363SOL    HW232140   5.386   1.419   0.316  1.6805 -3.3689 -0.9931
 8364SOL     OW32141   1.138   2.627   4.609  0.1891  0.4983 -0.1964
 8364SOL    HW132142   1.117   2.535   4.624  0.1354  0.3620 -1.0650
 8364SOL    HW232143   1.117   2.642   4.517 -0.4516  1.5586  0.1056
 8365SOL     OW32144  10.420   7.234   9.999 -0.4376 -0.2937  0.3226
 8365SOL    HW132145  10.393   7.303   9.938 -0.2303 -0.1989  0.3368
 8365SOL    HW232146  10.480   7.180   9.948 -2.3134 -1.7977 -0.4214
 8366SOL     OW32147  10.097   8.546   1.794  0.4319 -0.0150 -0.4451
 8366SOL    HW132148  10.110   8.607   1.722  0.3156 -1.1648 -1.4828
 8366SOL    HW232149  10.011   8.507   1.776  0.1081  0.1533  0.6891
 8367SOL     OW32150  11.220   2.178   5.354  0.4128 -0.6989  0.3528
 8367SOL    HW132151  11.178   2.242   5.297  1.6012  1.0755  1.3972
 8367SOL    HW232152  11.312   2.203   5.356  0.3046 -0.1413  3.6519
 8368SOL     OW32153   4.685   8.922   0.186  0.3669 -0.3662  0.4492
 8368SOL    HW132154   4.625   8.994   0.170 -0.0529 -0.3877  1.8258
 8368SOL    HW232155   4.638   8.864   0.246  2.0093 -0.0036  2.1826
 8369SOL     OW32156  10.625   9.895   8.013 -0.0033 -0.6847 -0.3850
 8369SOL    HW132157  10.616   9.912   7.919 -0.6681  0.7947 -0.0672
 8369SOL    HW232158  10.688   9.823   8.018 -1.2889 -2.0041 -2.0483
 8370SOL     OW32159   6.641   8.716   9.295 -0.1687 -0.0076  0.0846
 8370SOL    HW132160   6.662   8.800   9.256  0.6056  0.4200  1.3500
 8370SOL    HW232161   6.662   8.727   9.388 -1.6026 -1.0726  0.5711
 8371SOL     OW32162   5.680   7.402  11.652 -0.0759 -0.2237  0.3937
 8371SOL    HW132163   5.600   7.406  11.600 -0.3244 -0.3680  0.7619
 8371SOL    HW232164   5.696   7.493  11.678  0.5087 -0.0214 -0.6175
 8372SOL     OW32165   0.713   1.530   9.358  0.5494 -0.1486 -0.1113
 8372SOL    HW132166   0.673   1.444   9.346  0.7890 -0.5117  1.5511
 8372SOL    HW232167   0.648   1.591   9.321  1.1861 -1.0888 -3.0338
 8373SOL     OW32168   0.773   7.322   5.486  0.4749  0.1297  0.0299
 8373SOL    HW132169   0.806   7.411   5.471 -0.6623  0.4003 -1.1210
 8373SOL    HW232170   0.793   7.276   5.404  1.2784 -0.7621  0.7126
 8374SOL     OW32171   3.216  10.621   1.469 -0.6147  0.2735  0.0259
 8374SOL    HW132172   3.297  10.648   1.428 -1.2623  1.4149 -0.5477
 8374SOL    HW232173   3.148  10.642   1.405 -1.5072  0.7078  1.0731
 8375SOL     OW32174   1.161  10.933  10.020 -0.3727 -0.0508 -0.7769
 8375SOL    HW132175   1.229  10.993   9.989 -0.4275  0.0271 -0.7480
 8375SOL    HW232176   1.097  10.990  10.062 -1.2110  0.0294 -2.1174
 8376SOL     OW32177  11.688  11.696   7.648  0.2734 -0.1843  0.3652
 8376SOL    HW132178  11.631  11.674   7.722 -1.5139  2.1150 -0.1972
 8376SOL    HW232179  11.649  11.650   7.574 -1.0872  1.5365 -0.0564
 8377SOL     OW32180   0.746   0.588   3.524 -0.9170 -0.3621  0.7031
 8377SOL    HW132181   0.827   0.639   3.515 -1.8105  1.1702  0.9152
 8377SOL    HW232182   0.766   0.504   3.484  0.8275 -0.0786  0.8829
 8378SOL     OW32183  10.411   1.201   2.971 -0.2793  0.0489  0.2366
 8378SOL    HW132184  10.428   1.115   3.009 -0.6458  0.8625  2.3293
 8378SOL    HW232185  10.498   1.234   2.949  0.2254  0.6121  2.8363
 8379SOL     OW32186  11.658   3.601   6.457 -0.2131  0.2457 -0.0083
 8379SOL    HW132187  11.719   3.550   6.404 -0.2396 -0.6260  0.7688
 8379SOL    HW232188  11.572   3.566   6.434 -0.1442 -0.9601  1.4237
 8380SOL     OW32189   7.543   8.108   9.756 -0.9103 -0.5773 -0.4231
 8380SOL    HW132190   7.627   8.089   9.796  0.3074  2.2103 -1.3660
 8380SOL    HW232191   7.565   8.141   9.668 -3.0540 -0.7420 -1.0961
 8381SOL     OW32192  11.130   0.382   1.001 -0.7744  0.4399  0.6410
 8381SOL    HW132193  11.190   0.407   0.931  0.7820  0.4821  1.9184
 8381SOL    HW232194  11.148   0.289   1.016  1.0892  1.0785  2.9043
 8382SOL     OW32195   4.917   0.344   2.999 -0.4377 -0.1278  0.0559
 8382SOL    HW132196   5.009   0.334   3.022 -0.3777  1.4653  0.6454
 8382SOL    HW232197   4.870   0.299   3.070 -0.1295  0.5702  0.7281
 8383SOL     OW32198  11.858   2.844   3.580 -0.0959 -0.0020 -0.0245
 8383SOL    HW132199  11.779   2.852   3.634 -1.1438  0.1440 -1.5203
 8383SOL    HW232200  11.838   2.772   3.519  2.0343 -1.8829  1.3333
 8384SOL     OW32201  10.257   2.994   1.532  0.6430  0.4881  0.0560
 8384SOL    HW132202  10.193   3.048   1.579  0.2835  0.4675 -0.4081
 8384SOL    HW232203  10.342   3.021   1.568  0.2805 -0.7260  1.9644
 8385SOL     OW32204   9.850   1.158   6.826 -0.0893  0.2291  0.2153
 8385SOL    HW132205   9.798   1.113   6.759  0.2633 -0.1737  0.2030
 8385SOL    HW232206   9.883   1.087   6.882  0.3802  0.4827  0.2641
 8386SOL     OW32207  11.034  11.633   7.009  0.0694  0.0781  0.4729
 8386SOL    HW132208  10.940  11.622   6.991  0.3422 -0.9762 -0.3962
 8386SOL    HW232209  11.075  11.633   6.923  0.8285  1.1306  0.8157
 8387SOL     OW32210  11.991   7.025   5.609  0.1402 -0.3708 -0.3031
 8387SOL    HW132211  12.039   6.943   5.613  0.7149 -0.1052 -1.3101
 8387SOL    HW232212  12.053   7.088   5.572 -0.4867  0.3586 -0.1533
 8388SOL     OW32213   3.417  10.189   7.503  0.0036  0.1254 -0.2314
 8388SOL    HW132214   3.322  10.201   7.501  0.0151  0.1365 -1.0117
 8388SOL    HW232215   3.449  10.238   7.427  0.7532  1.1302  0.6808
 8389SOL     OW32216   1.072  11.263   9.953  0.2687  0.0298  0.2948
 8389SOL    HW132217   1.140  11.304   9.900 -0.3974 -0.9934 -1.4055
 8389SOL    HW232218   1.033  11.335  10.002  0.7599  1.0486 -0.7785
 8390SOL     OW32219   5.540   7.561  10.961 -0.1735 -0.0327  0.1530
 8390SOL    HW132220   5.536   7.652  10.991 -0.5226  0.5983 -1.6754
 8390SOL    HW232221   5.623   7.528  10.997 -1.4058  0.0017  3.3474
 8391SOL     OW32222   3.595   0.823   8.444  0.2700  0.0710  0.2696
 8391SOL    HW132223   3.561   0.903   8.404  1.7921  0.4290 -0.3680
 8391SOL    HW232224   3.627   0.851   8.530 -1.2819 -0.3334  1.0150
 8392SOL     OW32225   6.448   7.722   5.505 -0.8593  0.3903  0.5764
 8392SOL    HW132226   6.505   7.759   5.438 -0.6950 -0.8049  0.0335
 8392SOL    HW232227   6.477   7.764   5.586  0.3387  0.3258  0.2093
 8393SOL     OW32228  11.391   1.009   6.985  0.1565 -0.1976  0.3444
 8393SOL    HW132229  11.421   1.048   6.903 -0.7044  0.0801  0.1457
 8393SOL    HW232230  11.329   1.073   7.021 -0.4366 -0.8778  0.5712
 8394SOL     OW32231   5.439   2.199   0.245 -0.1744  0.7027  0.1846
 8394SOL    HW132232   5.431   2.203   0.149  3.0705 -0.8845 -0.3148
 8394SOL    HW232233   5.448   2.290   0.272  0.9068  1.1040 -1.3509
 8395SOL     OW32234  11.886   5.707   9.185  0.3015 -0.1579  0.4346
 8395SOL    HW132235  11.897   5.712   9.090  0.6659 -1.1113  0.4076
 8395SOL    HW232236  11.823   5.635   9.198  1.4900 -1.1441  0.9541
 8396SOL     OW32237   0.912   3.131   0.821 -0.0728  0.0661  0.4423
 8396SOL    HW132238   0.888   3.130   0.913  0.3274  0.8854  0.5670
 8396SOL    HW232239   0.989   3.075   0.815  1.2403  1.6994  1.0275
 8397SOL     OW32240   2.237   2.624   7.555 -0.1445  0.2026  0.6959
 8397SOL    HW132241   2.263   2.682   7.626 -1.3558  0.1764  1.1633
 8397SOL    HW232242   2.144   2.608   7.569  0.0235 -1.3245  0.1907
 8398SOL     OW32243   4.133   4.784  11.878 -0.0922  0.2782  0.1784
 8398SOL    HW132244   4.210   4.746  11.834 -0.1299 -0.0526  0.3945
 8398SOL    HW232245   4.120   4.868  11.834  0.8505  0.6838  0.6538
 8399SOL     OW32246  10.592   7.104  10.670 -0.4509  0.2450 -0.5612
 8399SOL    HW132247  10.582   7.187  10.716 -1.3046  0.4620 -1.1224
 8399SOL    HW232248  10.676   7.112  10.625  0.4512 -0.0162  1.0070
 8400SOL     OW32249   1.118  11.057   8.885  0.0326  0.1189 -0.5812
 8400SOL    HW132250   1.046  11.117   8.903 -0.4041 -0.4186 -0.4914
 8400SOL    HW232251   1.197  11.106   8.907 -0.3548  0.3759  0.2857
 8401SOL     OW32252  10.071   7.592   2.602 -1.2600 -0.6694  0.1961
 8401SOL    HW132253  10.157   7.571   2.565 -2.4786 -0.4353 -3.1809
 8401SOL    HW232254  10.050   7.519   2.659 -0.1775 -2.4507 -1.5615
 8402SOL     OW32255  10.157   3.353   4.743  0.6352 -0.1807  0.0020
 8402SOL    HW132256  10.162   3.446   4.763  1.2586 -0.7256  2.7597
 8402SOL    HW232257  10.125   3.312   4.824 -0.7736 -2.2797 -1.4881
 8403SOL     OW32258   3.954   9.613   8.750  0.8004  0.0059 -0.4238
 8403SOL    HW132259   4.026   9.654   8.702 -0.9032  1.9964 -1.4351
 8403SOL    HW232260   3.914   9.554   8.686 -0.6678  1.6801 -1.1205
 8404SOL     OW32261   6.125   0.779   3.391  0.7219  0.5005 -0.2129
 8404SOL    HW132262   6.119   0.739   3.477 -0.4978  0.6404 -0.2224
 8404SOL    HW232263   6.155   0.869   3.408  0.9853  0.3707  0.0155
 8405SOL     OW32264  11.702   5.642   1.234  0.2790  0.2590  0.3271
 8405SOL    HW132265  11.702   5.599   1.148 -1.5772  0.4574  0.1698
 8405SOL    HW232266  11.765   5.714   1.225 -1.8119  1.9943 -1.8537
 8406SOL     OW32267   9.712   9.297   5.046  0.3769  0.1589 -0.0723
 8406SOL    HW132268   9.723   9.262   4.957  1.4452 -0.4802  0.2865
 8406SOL    HW232269   9.643   9.243   5.084  1.2450 -0.8780  0.1024
 8407SOL     OW32270  11.968   5.934   6.689 -0.0482  0.3464 -0.1167
 8407SOL    HW132271  11.928   5.976   6.613 -0.8323 -1.4441 -0.7376
 8407SOL    HW232272  11.920   5.970   6.764 -0.8041  0.4571 -0.6392
 8408SOL     OW32273   7.993   0.188   2.363  0.0760 -0.1465  0.0756
 8408SOL    HW132274   7.974   0.282   2.366 -1.0533 -0.2623 -1.8227
 8408SOL    HW232275   8.079   0.180   2.403  0.1101  1.6642  0.4774
 8409SOL     OW32276   3.787  11.456   3.473 -0.3819 -0.3460 -0.6086
 8409SOL    HW132277   3.855  11.427   3.412  1.5004 -2.1239  2.0758
 8409SOL    HW232278   3.836  11.502   3.542 -2.1897  0.0831  0.4310
 8410SOL     OW32279  11.127   7.002   8.536 -0.2625  0.1601 -0.1335
 8410SOL    HW132280  11.177   7.002   8.454  0.8174  2.1644  0.4773
 8410SOL    HW232281  11.044   7.044   8.513 -0.8038 -1.1009 -0.6140
 8411SOL     OW32282   3.432   4.359   5.334 -0.0728 -0.2193  0.3348
 8411SOL    HW132283   3.369   4.431   5.339  0.0693 -0.1142  0.6453
 8411SOL    HW232284   3.379   4.280   5.340  0.0073 -0.1679  3.6274
 8412SOL     OW32285   6.511   9.932   3.494 -0.1663 -0.1747  0.6222
 8412SOL    HW132286   6.549   9.988   3.427 -2.1990  0.7117  0.1372
 8412SOL    HW232287   6.582   9.918   3.557  1.8143 -1.0835 -1.6793
 8413SOL     OW32288   4.166  11.864   6.775 -0.1732  0.2082 -0.0647
 8413SOL    HW132289   4.114  11.858   6.856 -1.3875  0.8188 -0.7735
 8413SOL    HW232290   4.116  11.815   6.711  1.0609 -0.7335 -0.3414
 8414SOL     OW32291  10.805   8.917   4.163 -0.2417 -0.5656 -0.1864
 8414SOL    HW132292  10.792   9.006   4.129 -0.2248 -1.3585 -2.4358
 8414SOL    HW232293  10.858   8.929   4.241 -0.3272  1.4209 -0.3763
 8415SOL     OW32294   3.563   4.862   0.073  0.3040  0.0068  0.3025
 8415SOL    HW132295   3.645   4.874   0.121  0.5198  1.2432 -0.3161
 8415SOL    HW232296   3.589   4.866  -0.019 -0.2910 -0.9158  0.0753
 8416SOL     OW32297   2.439   9.421   1.811 -0.4295  0.0451  0.5127
 8416SOL    HW132298   2.501   9.493   1.798  3.4484 -2.7507  1.3318
 8416SOL    HW232299   2.432   9.380   1.725  0.3637 -0.6434  0.7591
 8417SOL     OW32300  11.776   0.790   7.175 -0.0130 -0.2537 -0.6159
 8417SOL    HW132301  11.732   0.709   7.200  1.4523 -0.7829  0.3626
 8417SOL    HW232302  11.867   0.778   7.202  0.2062  1.7888 -0.2736
 8418SOL     OW32303   5.770  10.173   3.701 -0.0263 -0.3166  0.0590
 8418SOL    HW132304   5.863  10.196   3.695 -0.1389 -0.2049 -1.7460
 8418SOL    HW232305   5.726  10.256   3.718  0.0583 -0.0475 -0.9660
 8419SOL     OW32306   8.776  12.362   6.868 -0.7602 -0.4173 -0.1544
 8419SOL    HW132307   8.703  12.423   6.869 -1.2811 -1.0340 -0.5086
 8419SOL    HW232308   8.788  12.338   6.960 -0.4937  0.2727  0.0002
 8420SOL     OW32309   5.902  11.706   5.519  0.7270  0.2337 -0.4243
 8420SOL    HW132310   5.990  11.716   5.556  0.8305 -1.1186 -0.2415
 8420SOL    HW232311   5.915  11.655   5.439  0.1153  0.1249 -0.4611
 8421SOL     OW32312   9.566   1.727   4.861 -0.0674  0.0798  0.2624
 8421SOL    HW132313   9.629   1.778   4.912  0.8074 -0.0237 -0.6802
 8421SOL    HW232314   9.602   1.638   4.861 -0.3329 -0.0305 -0.0825
 8422SOL     OW32315   1.842   1.358  12.222  0.0800  1.0825 -0.1353
 8422SOL    HW132316   1.833   1.265  12.200  1.3882  0.6824  0.8952
 8422SOL    HW232317   1.794   1.368  12.305 -2.0163  1.8637 -1.3643
 8423SOL     OW32318   2.895   9.325   3.763 -0.3236  0.0985  0.3354
 8423SOL    HW132319   2.976   9.372   3.782  0.5040 -0.2375 -1.9974
 8423SOL    HW232320   2.912   9.235   3.788  0.2289 -0.0730 -0.6388
 8424SOL     OW32321  11.490   6.643   6.385  0.0903 -0.7665 -0.5836
 8424SOL    HW132322  11.473   6.549   6.383  1.3794 -1.0366  0.1697
 8424SOL    HW232323  11.514   6.661   6.476  0.6131  0.1544 -0.8958
 8425SOL     OW32324   5.632   9.613   0.206 -0.2923  0.0796  0.0950
 8425SOL    HW132325   5.577   9.681   0.169 -0.6050  0.1552  0.6921
 8425SOL    HW232326   5.619   9.620   0.301  0.9846  0.3178  0.2781
 8426SOL     OW32327   0.068   9.951   8.811 -0.4660 -0.1514  0.0684
 8426SOL    HW132328   0.014   9.954   8.733 -0.5666  0.5638  0.1582
 8426SOL    HW232329   0.025   9.886   8.867 -2.4630  1.8570  1.0115
 8427SOL     OW32330   1.799   3.719   1.311  0.2652  0.5724  0.2159
 8427SOL    HW132331   1.852   3.641   1.296 -0.7255 -0.2244  0.7241
 8427SOL    HW232332   1.812   3.739   1.403 -0.1859  0.4577  0.3075
 8428SOL     OW32333   0.270   8.550   4.622  0.3547  0.3233  0.2788
 8428SOL    HW132334   0.358   8.521   4.598  0.3570 -0.6938  1.4353
 8428SOL    HW232335   0.212   8.486   4.580  0.0411  1.8322 -1.7340
 8429SOL     OW32336   6.941  10.853   1.895  0.0046 -0.0209  0.5428
 8429SOL    HW132337   6.904  10.764   1.898  1.6991 -0.7540  0.7788
 8429SOL    HW232338   6.891  10.897   1.826  0.7449 -1.9375 -1.3081
 8430SOL     OW32339   7.603   3.169   7.532 -0.2856  0.3348 -0.3849
 8430SOL    HW132340   7.578   3.096   7.476 -0.7978 -0.1577  0.4593
 8430SOL    HW232341   7.521   3.216   7.549 -0.3667 -0.2289  0.9139
 8431SOL     OW32342  11.099   8.725   6.110  0.1490  0.1078  0.3312
 8431SOL    HW132343  11.154   8.647   6.116 -0.3679 -0.2013  1.4290
 8431SOL    HW232344  11.160   8.797   6.094  0.6832 -0.4521 -0.1706
 8432SOL     OW32345  10.911  10.001   2.597 -0.3766 -0.0742  0.7333
 8432SOL    HW132346  10.923  10.066   2.667 -0.4726  2.1553 -1.1870
 8432SOL    HW232347  11.000   9.969   2.580 -0.2052  0.1423  1.1744
 8433SOL     OW32348   0.799   3.410   2.588 -0.1340 -0.0033 -0.6771
 8433SOL    HW132349   0.745   3.462   2.648 -1.0157  0.2916 -1.6959
 8433SOL    HW232350   0.771   3.320   2.602 -1.0576  0.1730 -1.3584
 8434SOL     OW32351  10.485   4.744   6.880  0.0170  0.2828  0.2103
 8434SOL    HW132352  10.566   4.789   6.857  0.0664 -0.0559 -0.2849
 8434SOL    HW232353  10.510   4.653   6.895 -0.3639  0.0498 -0.5338
 8435SOL     OW32354   5.490   8.541   6.229  0.5118  0.2684  0.2661
 8435SOL    HW132355   5.495   8.574   6.139  0.8163  1.1055  0.5791
 8435SOL    HW232356   5.572   8.495   6.243  0.3049 -0.1884 -0.0038
 8436SOL     OW32357   4.634   5.200   9.097 -0.1612 -0.1179 -0.0057
 8436SOL    HW132358   4.622   5.291   9.072 -0.1548 -0.3375 -0.8321
 8436SOL    HW232359   4.550   5.175   9.136  0.6373  0.9592  2.6319
 8437SOL     OW32360   7.591   1.917  12.544  0.1678 -0.8229 -0.4865
 8437SOL    HW132361   7.643   1.988  12.507 -1.8082 -0.2579 -2.3999
 8437SOL    HW232362   7.631   1.837  12.510  0.1122 -0.4188 -1.5398
 8438SOL     OW32363  10.342   1.277  12.088 -0.2109 -0.2008  0.1692
 8438SOL    HW132364  10.284   1.353  12.082  0.5056  0.4100  0.7679
 8438SOL    HW232365  10.412   1.295  12.025 -0.6154 -0.8931 -0.4884
 8439SOL     OW32366   5.607  10.998   6.081  0.1580 -0.1044 -0.1220
 8439SOL    HW132367   5.593  10.990   6.175  0.6210 -0.0451 -0.0444
 8439SOL    HW232368   5.688  11.049   6.073  1.6796 -2.4103 -0.4933
 8440SOL     OW32369   8.606   4.131   4.179 -0.3029 -0.0646 -0.7614
 8440SOL    HW132370   8.514   4.106   4.186 -0.2376  0.0056  0.9539
 8440SOL    HW232371   8.652   4.050   4.158 -0.6117 -0.4106 -0.1364
 8441SOL     OW32372   2.463   5.767   1.752 -0.6009 -0.1130  0.4444
 8441SOL    HW132373   2.508   5.851   1.758 -0.3101 -0.2609  0.3557
 8441SOL    HW232374   2.382   5.786   1.704 -1.4598  0.4811  2.0395
 8442SOL     OW32375   0.407   5.232   3.599 -0.2616 -0.1163  0.3448
 8442SOL    HW132376   0.361   5.275   3.671 -0.8897 -0.3859  0.1121
 8442SOL    HW232377   0.357   5.151   3.584  0.1899 -0.3286 -0.0245
 8443SOL     OW32378   5.709   1.393   4.174 -0.0569  0.5587 -0.0364
 8443SOL    HW132379   5.776   1.335   4.138 -2.0466 -1.7405 -0.3149
 8443SOL    HW232380   5.693   1.360   4.262  0.2825  2.1212  0.6464
 8444SOL     OW32381   3.000   2.236   8.569  0.0661 -0.3332 -0.0912
 8444SOL    HW132382   3.035   2.326   8.571 -0.8304  0.0881 -1.5762
 8444SOL    HW232383   3.026   2.199   8.653  1.0849  1.0800  0.2697
 8445SOL     OW32384   9.000   0.286   8.813  0.5579  0.1122 -0.7265
 8445SOL    HW132385   9.093   0.301   8.799  0.3388  1.0945 -1.1536
 8445SOL    HW232386   8.971   0.238   8.735  0.8642 -0.9631 -0.2066
 8446SOL     OW32387   8.847   9.401   7.053  0.1462  0.0180  0.0899
 8446SOL    HW132388   8.871   9.427   7.142 -0.8655 -2.2959  1.1121
 8446SOL    HW232389   8.919   9.347   7.022 -0.0862 -0.2418 -0.0045
 8447SOL     OW32390   5.535  11.940   0.196 -0.5457  0.3774 -0.2507
 8447SOL    HW132391   5.545  11.872   0.130  0.5272 -0.6136  0.8891
 8447SOL    HW232392   5.542  12.022   0.146  3.1565 -0.2803 -1.0929
 8448SOL     OW32393   4.578   9.589  12.031  0.3500  0.5825 -0.1157
 8448SOL    HW132394   4.619   9.537  12.100  0.1695  0.3689 -0.1669
 8448SOL    HW232395   4.648   9.645  11.998  0.4221  0.7219  0.2755
 8449SOL     OW32396   2.721  10.208  10.863  0.3418  0.0962  0.3520
 8449SOL    HW132397   2.782  10.200  10.790  0.4194 -3.2385  0.6334
 8449SOL    HW232398   2.766  10.167  10.937 -0.5363  1.5860  1.7980
 8450SOL     OW32399   7.790  11.331   5.289 -0.0025 -0.2884  0.1846
 8450SOL    HW132400   7.832  11.260   5.241  2.3760  0.9376  0.3235
 8450SOL    HW232401   7.834  11.332   5.374  0.9536  2.0820 -0.2557
 8451SOL     OW32402   9.463   5.759   2.433 -0.0783  0.4336 -0.2440
 8451SOL    HW132403   9.428   5.799   2.512  1.1468  0.0785  0.5166
 8451SOL    HW232404   9.534   5.702   2.464  1.0977  1.0412 -1.6635
 8452SOL     OW32405  10.603   4.443   8.569  0.3370  0.7368  0.4709
 8452SOL    HW132406  10.547   4.373   8.600 -0.8219  2.2723  2.0176
 8452SOL    HW232407  10.572   4.461   8.480  1.7485 -1.7385 -0.6197
 8453SOL     OW32408   5.617   4.920  10.809 -0.4951  0.5469 -0.1105
 8453SOL    HW132409   5.634   5.008  10.775 -1.3648  0.9736  0.5252
 8453SOL    HW232410   5.670   4.914  10.889  0.6140 -0.0217 -0.8520
 8454SOL     OW32411   5.196   6.951   0.125  0.3165 -0.1979  0.3467
 8454SOL    HW132412   5.214   7.045   0.129  2.0659 -0.4576 -0.4381
 8454SOL    HW232413   5.144   6.939   0.045  0.5401  0.0412  0.1658
 8455SOL     OW32414   2.531   8.581   6.928 -0.2645  0.2100  0.5906
 8455SOL    HW132415   2.553   8.533   6.849  1.3329  2.4572 -0.4374
 8455SOL    HW232416   2.533   8.515   6.998 -1.3737 -1.7564 -1.1339
 8456SOL     OW32417   0.429   3.485  11.328  0.3915 -0.1017  0.3501
 8456SOL    HW132418   0.430   3.509  11.420  0.7932  1.4602 -0.0381
 8456SOL    HW232419   0.470   3.398  11.325  1.9695  0.5739  1.4496
 8457SOL     OW32420  11.437  12.073   0.944 -0.0163 -0.6615  0.9509
 8457SOL    HW132421  11.493  12.139   0.902  0.9101 -1.7697  0.3959
 8457SOL    HW232422  11.353  12.081   0.898  0.8141 -1.4694 -0.8008
 8458SOL     OW32423   3.064   5.362   9.490  0.6888  0.2200  0.4736
 8458SOL    HW132424   3.048   5.386   9.399  1.0912  0.4358  0.4607
 8458SOL    HW232425   3.152   5.326   9.491 -0.5797 -3.3067  0.0733
 8459SOL     OW32426   3.313  11.687   1.084  0.5981 -0.0911  0.5746
 8459SOL    HW132427   3.267  11.639   1.153 -0.6559  2.6118  1.7742
 8459SOL    HW232428   3.261  11.674   1.006  1.6689 -2.6501  0.2008
 8460SOL     OW32429   1.769   9.178   8.653  0.3886  0.6826 -0.0608
 8460SOL    HW132430   1.712   9.219   8.718 -0.6853 -1.1157  0.1964
 8460SOL    HW232431   1.743   9.218   8.570 -0.7095  0.4538  0.1579
 8461SOL     OW32432   4.434   1.211   7.407 -0.0223  0.7680  0.2492
 8461SOL    HW132433   4.433   1.116   7.407  0.3233  0.7653  0.3644
 8461SOL    HW232434   4.494   1.235   7.478 -1.3870  1.0775  1.3515
 8462SOL     OW32435   2.824   4.053   8.793 -0.7069  0.7570 -0.8228
 8462SOL    HW132436   2.856   4.046   8.883  0.1177 -3.1679 -1.2583
 8462SOL    HW232437   2.895   4.097   8.746  0.6380 -0.7283 -0.2585
 8463SOL     OW32438   6.019  10.563   7.165 -0.3059 -0.0003 -0.1560
 8463SOL    HW132439   6.066  10.628   7.217 -0.4430  0.6791 -0.8651
 8463SOL    HW232440   5.974  10.508   7.230 -2.4301  2.2557  0.4615
 8464SOL     OW32441   9.246   2.320   1.818 -0.8006  0.1375  0.2993
 8464SOL    HW132442   9.334   2.286   1.833 -0.3574  1.3170  0.4684
 8464SOL    HW232443   9.209   2.261   1.752  0.3420 -0.0122 -0.2378
 8465SOL     OW32444   4.748   2.915   1.733 -0.8384 -0.4163  0.2785
 8465SOL    HW132445   4.813   2.848   1.755 -0.5013 -0.1070  0.2364
 8465SOL    HW232446   4.673   2.866   1.700  0.5066 -0.6875 -2.6691
 8466SOL     OW32447   3.740   7.101   3.804 -0.2492 -0.3737 -0.4019
 8466SOL    HW132448   3.729   7.025   3.747 -1.4914 -0.6724  0.2054
 8466SOL    HW232449   3.834   7.118   3.804 -0.0538 -1.4025 -1.1943
 8467SOL     OW32450   6.461   9.972   1.653  0.3283 -0.1959  0.2439
 8467SOL    HW132451   6.543  10.019   1.636 -0.6552  1.5490  0.1328
 8467SOL    HW232452   6.489   9.890   1.694  2.0732  0.7927  1.1567
 8468SOL     OW32453   9.155   7.358   4.674  0.0834  0.1251  0.0045
 8468SOL    HW132454   9.097   7.413   4.727 -0.4966 -0.3564 -0.1130
 8468SOL    HW232455   9.143   7.392   4.585  0.5535  0.5076  0.0862
 8469SOL     OW32456   2.095   7.966  11.946 -0.0767 -0.1656  0.7643
 8469SOL    HW132457   2.113   7.872  11.937  1.1739  0.1484 -0.3147
 8469SOL    HW232458   2.003   7.975  11.925 -0.3966 -1.2312  1.5781
 8470SOL     OW32459   1.029   9.584   1.360  0.0752  0.6162 -0.2352
 8470SOL    HW132460   1.056   9.540   1.440 -0.4567 -0.1891 -0.4855
 8470SOL    HW232461   0.953   9.636   1.385 -1.2307 -1.0651 -0.5789
 8471SOL     OW32462   3.087   3.376   2.036  0.3109 -0.3247 -0.4726
 8471SOL    HW132463   3.164   3.390   2.092 -1.0537 -0.5310  1.5852
 8471SOL    HW232464   3.079   3.281   2.031  0.9627 -0.3324 -1.8831
 8472SOL     OW32465  11.260   7.546   7.765  0.6386  0.1074  0.0858
 8472SOL    HW132466  11.166   7.564   7.768  0.3094 -1.5595  1.2533
 8472SOL    HW232467  11.279   7.533   7.672  0.1295  2.2751 -0.3692
 8473SOL     OW32468   9.421   8.373   9.602 -0.4062  0.0522 -0.1383
 8473SOL    HW132469   9.480   8.298   9.602  1.0862  1.0830 -2.9734
 8473SOL    HW232470   9.383   8.374   9.690  1.6518 -2.3380  0.8862
 8474SOL     OW32471  12.063   1.142   3.675  0.2187 -0.1222 -0.2724
 8474SOL    HW132472  12.034   1.210   3.736 -1.1312 -0.9136  0.0109
 8474SOL    HW232473  11.990   1.079   3.673  1.2847 -1.3833 -0.7880
 8475SOL     OW32474   7.528   6.683   3.554  0.3153  0.2990  0.1831
 8475SOL    HW132475   7.443   6.718   3.529  0.7192  1.3821  0.2951
 8475SOL    HW232476   7.526   6.681   3.650  0.1794 -0.3119  0.1771
 8476SOL     OW32477   2.658   1.149   4.108 -0.1056 -0.1662 -0.5514
 8476SOL    HW132478   2.654   1.062   4.147 -2.6007 -0.0618 -0.4457
 8476SOL    HW232479   2.567   1.178   4.102  0.6419  2.5859 -0.2795
 8477SOL     OW32480   8.505   7.727   6.833 -0.1236  0.5326  0.1140
 8477SOL    HW132481   8.474   7.639   6.856  2.5886 -0.9700 -1.4197
 8477SOL    HW232482   8.481   7.737   6.741  1.0372  0.6381 -0.1964
 8478SOL     OW32483   0.058   7.277   4.116  0.0148  0.3624 -0.0055
 8478SOL    HW132484  -0.006   7.211   4.089 -0.7370  1.4619 -1.0293
 8478SOL    HW232485   0.141   7.230   4.120 -0.4538 -0.5932 -0.9400
 8479SOL     OW32486   8.978  10.052  11.470 -0.2354  0.1985 -0.6720
 8479SOL    HW132487   8.998  10.145  11.483 -0.7136  0.0962  0.9430
 8479SOL    HW232488   8.946  10.022  11.555 -0.9136 -1.2413 -1.4017
 8480SOL     OW32489  11.482   8.851   7.642  0.5622 -0.6007  0.7781
 8480SOL    HW132490  11.479   8.817   7.732 -0.1864 -0.4605  0.8148
 8480SOL    HW232491  11.435   8.934   7.647 -1.6756 -1.7069 -0.1953
 8481SOL     OW32492   2.821   4.291  10.242  0.2524 -0.4133 -0.4382
 8481SOL    HW132493   2.834   4.363  10.180  0.2454  1.5941  1.7566
 8481SOL    HW232494   2.784   4.333  10.320  1.6598 -2.5534  1.5030
 8482SOL     OW32495   4.272   0.609   9.024 -0.2906 -0.6417 -0.3204
 8482SOL    HW132496   4.194   0.614   8.968 -0.4159 -1.6442 -0.2587
 8482SOL    HW232497   4.343   0.588   8.963 -0.3362 -1.2029 -0.1887
 8483SOL     OW32498   5.331   1.376   8.656  0.1642 -0.5454  0.1807
 8483SOL    HW132499   5.382   1.439   8.605 -1.2665  0.3583 -0.2174
 8483SOL    HW232500   5.361   1.290   8.627  0.3038 -0.0411 -1.2388
 8484SOL     OW32501  10.014   9.776   3.204  0.5981 -0.3317  0.2048
 8484SOL    HW132502   9.970   9.744   3.283  0.4040 -2.7041 -0.7632
 8484SOL    HW232503  10.096   9.815   3.236 -1.1432  2.2604  1.8451
 8485SOL     OW32504  11.152   1.668   6.168  0.0486  0.0456  0.4207
 8485SOL    HW132505  11.059   1.658   6.147  0.2859 -0.3828 -0.4952
 8485SOL    HW232506  11.154   1.737   6.235 -0.8272  0.8817 -0.3731
 8486SOL     OW32507  11.420  11.650   1.247  0.2400 -0.1356 -0.6806
 8486SOL    HW132508  11.475  11.591   1.195  0.9840 -0.5244  0.4870
 8486SOL    HW232509  11.438  11.737   1.213  1.2358 -0.3121 -0.6465
 8487SOL     OW32510   8.859  10.434  10.352 -0.0524  0.5257 -0.2782
 8487SOL    HW132511   8.817  10.446  10.438  0.7187 -0.5523  0.2749
 8487SOL    HW232512   8.930  10.498  10.351 -0.1105  0.5940 -0.1438
 8488SOL     OW32513   0.983   7.419  10.766  0.2624 -0.5142 -0.5967
 8488SOL    HW132514   0.957   7.492  10.711  1.4477  0.8213  0.5376
 8488SOL    HW232515   0.977   7.342  10.709 -2.7525  0.1546 -1.3108
 8489SOL     OW32516   3.414   3.970   1.570  0.9580 -0.1210 -0.4917
 8489SOL    HW132517   3.324   3.988   1.542  1.0640 -0.2759 -0.9430
 8489SOL    HW232518   3.405   3.903   1.637  0.7572 -0.3985 -0.7909
 8490SOL     OW32519   5.717   1.195   0.019 -0.0383 -0.5094 -0.8040
 8490SOL    HW132520   5.775   1.270   0.016 -0.6409 -0.0080 -0.2242
 8490SOL    HW232521   5.770   1.125   0.057 -0.5778  0.6964  2.3996
 8491SOL     OW32522   9.744   1.927   4.588  0.2093  0.2719  0.2549
 8491SOL    HW132523   9.667   1.896   4.541  0.0829  0.0361  0.6109
 8491SOL    HW232524   9.709   1.987   4.654  0.3885  0.6403  0.0146
 8492SOL     OW32525   9.352   6.102  10.203  0.2172  0.4413 -0.3647
 8492SOL    HW132526   9.314   6.113  10.116 -0.8376 -0.0874  0.0098
 8492SOL    HW232527   9.381   6.010  10.205  1.6224  0.8430 -0.6610
 8493SOL     OW32528   9.756   6.307   0.202 -0.3016  0.3524  0.2362
 8493SOL    HW132529   9.840   6.324   0.160  0.0656 -2.5157 -0.4007
 8493SOL    HW232530   9.765   6.341   0.291  1.0696  1.1438 -0.1853
 8494SOL     OW32531   1.363   2.064   0.401  0.1374 -0.1856  0.2957
 8494SOL    HW132532   1.436   2.120   0.374 -1.2583  1.3810 -0.3955
 8494SOL    HW232533   1.353   2.080   0.494 -0.9525  1.6610 -0.0893
 8495SOL     OW32534  11.122   5.906   7.935  0.1013 -0.1473 -0.5893
 8495SOL    HW132535  11.115   5.922   7.841  1.3076  0.5179 -0.6010
 8495SOL    HW232536  11.033   5.912   7.968 -0.1332  1.6831 -1.4122
 8496SOL     OW32537   4.667  10.195   2.965 -0.0441 -0.9742  0.1986
 8496SOL    HW132538   4.572  10.203   2.952 -0.2428  0.4396  2.1147
 8496SOL    HW232539   4.682  10.225   3.054  2.3896  0.1851 -0.5018
 8497SOL     OW32540  10.311   6.519   6.973  0.0869  0.5559 -0.5054
 8497SOL    HW132541  10.368   6.453   7.012  1.1355  1.5427 -0.3222
 8497SOL    HW232542  10.265   6.473   6.903  0.2448 -0.5387  0.0859
 8498SOL     OW32543   9.774   0.818   6.812  0.0490 -0.0479 -0.8906
 8498SOL    HW132544   9.839   0.869   6.862 -0.9579  0.8493 -0.4650
 8498SOL    HW232545   9.809   0.729   6.811  0.3540  0.0177  0.9701
 8499SOL     OW32546  11.698  12.442   5.517  0.5468  0.3617 -0.3741
 8499SOL    HW132547  11.605  12.431   5.499 -0.0012  0.4153  2.0715
 8499SOL    HW232548  11.723  12.361   5.563  1.1796  1.1823  0.7679
 8500SOL     OW32549   8.587   7.765  10.058  0.2234 -0.4233 -0.1961
 8500SOL    HW132550   8.607   7.695  10.120  2.5849 -1.2257 -1.7322
 8500SOL    HW232551   8.672   7.803  10.036 -0.9394  2.7726  0.3167
 8501SOL     OW32552   0.473   0.575   0.160 -0.1978  0.5576 -0.0084
 8501SOL    HW132553   0.517   0.623   0.090 -3.6997  3.5459 -0.4288
 8501SOL    HW232554   0.501   0.619   0.241 -0.6454  0.9890 -0.0829
 8502SOL     OW32555  11.443   2.889   2.900 -0.5411  0.1067 -0.5199
 8502SOL    HW132556  11.474   2.862   2.814 -1.8907  1.6271 -1.5491
 8502SOL    HW232557  11.504   2.956   2.928 -1.0205  0.7817 -1.0627
 8503SOL     OW32558  10.762   7.564   1.687  0.5627  0.2571  0.2339
 8503SOL    HW132559  10.712   7.633   1.643  1.3674  0.8665  0.2470
 8503SOL    HW232560  10.849   7.568   1.647  0.9508  0.0074  1.0355
 8504SOL     OW32561   5.903  12.456  10.067  0.1005  0.2972 -0.1639
 8504SOL    HW132562   5.874  12.520  10.132 -2.3106  0.1547 -0.9986
 8504SOL    HW232563   5.928  12.508   9.991 -0.9458  0.3414 -0.5011
 8505SOL     OW32564   4.059  11.071  11.191  0.1496 -0.5204  0.0326
 8505SOL    HW132565   4.070  11.084  11.285 -0.3438  1.4917 -0.1309
 8505SOL    HW232566   4.148  11.077  11.156  0.2673 -0.6189  0.3152
 8506SOL     OW32567   4.770   3.410   8.722  0.3514 -0.0117  0.4927
 8506SOL    HW132568   4.751   3.327   8.679  1.9629 -0.8453  1.2881
 8506SOL    HW232569   4.761   3.476   8.654 -1.0685 -0.8124 -0.1239
 8507SOL     OW32570   9.360  10.892   7.602 -0.2000  0.4771 -0.2295
 8507SOL    HW132571   9.329  10.898   7.512  1.0186  0.2551 -0.6757
 8507SOL    HW232572   9.281  10.871   7.653 -0.5471 -1.5495 -1.5095
 8508SOL     OW32573   0.957   5.936   5.460 -0.0783 -0.9139  0.4920
 8508SOL    HW132574   0.928   5.968   5.375  0.3870 -1.9500 -0.0750
 8508SOL    HW232575   0.908   5.988   5.524 -1.5487 -1.1411 -0.4064
 8509SOL     OW32576   7.008   5.609   2.621 -0.0263  0.6064  0.4007
 8509SOL    HW132577   7.031   5.667   2.549 -0.8264  1.3061  0.6890
 8509SOL    HW232578   6.917   5.586   2.606  0.7182 -2.0883 -0.7046
 8510SOL     OW32579   4.876   5.478   5.514  0.2949  0.4896  0.3401
 8510SOL    HW132580   4.947   5.413   5.513 -0.4085 -0.3188  0.9551
 8510SOL    HW232581   4.818   5.448   5.584 -0.7593  1.0253 -0.2784
 8511SOL     OW32582   8.777   8.167   6.490 -0.6607  0.1718 -0.1912
 8511SOL    HW132583   8.682   8.168   6.501 -0.5358  0.1851  1.1399
 8511SOL    HW232584   8.795   8.233   6.423 -1.4555  1.5416  0.8860
 8512SOL     OW32585   8.423   9.065   0.156  0.9782 -0.0082 -0.5115
 8512SOL    HW132586   8.358   9.132   0.174  1.2666 -0.2553  1.8315
 8512SOL    HW232587   8.397   8.991   0.211  1.0697 -1.5832 -2.4978
 8513SOL     OW32588   4.168   6.413   1.700  0.5519  0.4523  0.3111
 8513SOL    HW132589   4.197   6.327   1.730 -0.3318  1.0173  3.0367
 8513SOL    HW232590   4.100   6.393   1.635  0.3173 -0.9395  0.9412
 8514SOL     OW32591   4.267   0.498   7.511  0.0633 -0.4015 -0.0925
 8514SOL    HW132592   4.322   0.574   7.492  1.5387  0.1936  5.0852
 8514SOL    HW232593   4.328   0.428   7.532 -1.1798 -1.1667  1.1820
 8515SOL     OW32594   7.727   2.252   8.342 -0.0070 -0.2014  0.0367
 8515SOL    HW132595   7.721   2.167   8.384  2.2629 -0.4655 -0.0619
 8515SOL    HW232596   7.736   2.233   8.249  3.3460 -0.0852  0.2351
 8516SOL     OW32597   4.164  11.123   4.263 -0.3925  0.2917 -0.6812
 8516SOL    HW132598   4.168  11.100   4.170  0.7049  1.1015 -0.8578
 8516SOL    HW232599   4.254  11.113   4.294 -1.0877 -2.0666  0.8514
 8517SOL     OW32600   6.169   9.733   4.344 -0.4131 -0.1683  0.4455
 8517SOL    HW132601   6.162   9.799   4.275 -1.4453  0.0422  0.7334
 8517SOL    HW232602   6.094   9.675   4.330 -0.1604 -0.6105  0.8853
 8518SOL     OW32603   0.527   0.252  10.403 -0.1804 -0.1011 -0.5830
 8518SOL    HW132604   0.539   0.308  10.480  0.7252 -0.5103 -0.4168
 8518SOL    HW232605   0.469   0.182  10.433 -0.9460  0.4770 -0.6655
 8519SOL     OW32606   9.551   4.147   7.081  0.3788 -0.0884  0.6043
 8519SOL    HW132607   9.552   4.111   7.170  0.8127 -0.6411  0.3869
 8519SOL    HW232608   9.609   4.089   7.032 -0.1412 -0.0006 -0.1251
 8520SOL     OW32609   5.640   1.921   1.804 -0.0276 -0.6112  0.4789
 8520SOL    HW132610   5.569   1.876   1.849 -0.9071 -0.1505 -0.4001
 8520SOL    HW232611   5.621   2.014   1.816  0.5358 -0.4836  0.4049
 8521SOL     OW32612  10.903   8.619   1.515  0.2598  0.6439 -0.0287
 8521SOL    HW132613  10.985   8.573   1.536 -0.1249  0.3558  0.8976
 8521SOL    HW232614  10.846   8.599   1.589 -0.3694  1.5286 -0.2720
 8522SOL     OW32615  11.263   2.381   7.005  0.1696 -0.1034  0.2263
 8522SOL    HW132616  11.266   2.293   6.967  0.7446 -0.3704  0.8744
 8522SOL    HW232617  11.241   2.366   7.098 -1.3302  0.5401  0.0137
 8523SOL     OW32618   6.423   9.725  11.619  0.2339 -0.1610 -0.1104
 8523SOL    HW132619   6.419   9.656  11.686  0.5788 -1.3811 -1.2922
 8523SOL    HW232620   6.507   9.769  11.635  0.1856 -0.2534  0.4255
 8524SOL     OW32621   6.702  10.420   6.969 -0.2443  0.9581  0.0856
 8524SOL    HW132622   6.623  10.377   6.938  0.1950 -0.0068  0.2701
 8524SOL    HW232623   6.700  10.408   7.064 -0.7860  2.5232  0.3005
 8525SOL     OW32624  11.540  11.360   0.518  0.3777 -0.1031  0.2605
 8525SOL    HW132625  11.514  11.372   0.609 -1.4479  0.1554 -0.2568
 8525SOL    HW232626  11.607  11.427   0.503  0.2237  0.2817  1.2227
 8526SOL     OW32627   5.520   1.890   4.957  0.1267 -0.3545 -0.2897
 8526SOL    HW132628   5.586   1.957   4.969  1.5827 -1.5431 -1.3148
 8526SOL    HW232629   5.438   1.931   4.984  1.1022  1.5271 -0.0876
 8527SOL     OW32630   1.381   3.815   5.337  0.6123  0.0140 -0.3928
 8527SOL    HW132631   1.363   3.727   5.304  0.4682 -1.1227  2.4848
 8527SOL    HW232632   1.295   3.857   5.341  0.1478 -1.0240  1.5752
 8528SOL     OW32633   2.055   3.237   0.380  0.5137 -0.1322 -0.0504
 8528SOL    HW132634   2.042   3.310   0.440  2.5271  0.1039  0.1649
 8528SOL    HW232635   1.976   3.236   0.326 -1.0770  0.0329  2.1616
 8529SOL     OW32636   7.776   1.632   4.111 -0.3195  0.0924  0.1981
 8529SOL    HW132637   7.758   1.612   4.019 -1.7693  0.6793  0.3277
 8529SOL    HW232638   7.815   1.720   4.109  1.6146 -0.7174  0.0121
 8530SOL     OW32639   7.088   8.756   7.208  0.0273  0.4386  0.2483
 8530SOL    HW132640   7.092   8.851   7.195 -1.4325  0.2600 -2.1817
 8530SOL    HW232641   7.159   8.721   7.155 -0.4429  0.1097 -0.1770
 8531SOL     OW32642   9.302  11.478   1.722 -0.2568 -0.4839  0.4813
 8531SOL    HW132643   9.212  11.508   1.733  0.2196  1.6695 -0.9383
 8531SOL    HW232644   9.301  11.430   1.639  0.2197  1.1996 -0.5503
 8532SOL     OW32645   8.161   6.218   1.542  0.1785  0.3380  0.0543
 8532SOL    HW132646   8.141   6.298   1.591 -0.5705  1.1957 -1.5623
 8532SOL    HW232647   8.216   6.167   1.601 -0.5652  1.3627  1.7157
 8533SOL     OW32648   4.378   3.346   0.022  0.0696  0.0629  0.0148
 8533SOL    HW132649   4.454   3.404   0.013  0.3881 -0.4167 -0.4837
 8533SOL    HW232650   4.415   3.264   0.054 -0.3990  0.1830  0.8880
 8534SOL     OW32651   0.707  12.516   6.479 -0.2615 -0.2261  0.4791
 8534SOL    HW132652   0.757  12.477   6.551  0.1557 -2.0476 -0.7383
 8534SOL    HW232653   0.755  12.595   6.456  0.2999 -0.3004  1.3690
 8535SOL     OW32654  11.725   6.924   6.692 -0.3326  0.1386 -0.5097
 8535SOL    HW132655  11.677   6.996   6.652  0.0211  2.0020  2.1424
 8535SOL    HW232656  11.682   6.911   6.777  1.3014 -0.8957  0.2143
 8536SOL     OW32657   5.903  10.736   6.253  0.1841 -0.2665 -0.7005
 8536SOL    HW132658   5.947  10.821   6.249  0.3092 -0.3110 -0.3622
 8536SOL    HW232659   5.900  10.715   6.347 -0.9434 -0.0755 -0.6818
 8537SOL     OW32660   9.755   6.580   8.114  1.0383  0.1526 -0.2612
 8537SOL    HW132661   9.686   6.545   8.170 -0.6267  3.2498 -0.1404
 8537SOL    HW232662   9.827   6.601   8.174  0.0806  1.5068  0.4726
 8538SOL     OW32663  10.880   7.998   2.794  0.2273  0.6899 -0.4360
 8538SOL    HW132664  10.964   8.044   2.784  1.3077 -1.2215 -0.7086
 8538SOL    HW232665  10.904   7.905   2.799 -1.8366  0.1397  0.2510
 8539SOL     OW32666   6.545   8.797   7.360 -0.2271 -0.0418  0.1301
 8539SOL    HW132667   6.597   8.822   7.283 -0.5922  0.3516  0.0095
 8539SOL    HW232668   6.610   8.764   7.422  0.1627  0.3750 -0.0465
 8540SOL     OW32669   1.954  11.363   7.946  0.6810 -0.3238 -0.1733
 8540SOL    HW132670   1.874  11.372   7.894 -0.7892 -0.2943  1.9271
 8540SOL    HW232671   2.009  11.436   7.919 -0.1374 -0.1662 -1.4739
 8541SOL     OW32672   6.435   4.569   1.863 -0.0493 -0.0914 -0.0044
 8541SOL    HW132673   6.477   4.633   1.922 -0.7359  0.6580 -0.3061
 8541SOL    HW232674   6.480   4.487   1.881  1.5805  0.6826 -0.3360
 8542SOL     OW32675  11.470  12.317   5.381 -0.3799 -0.3097 -0.7278
 8542SOL    HW132676  11.397  12.311   5.319 -1.4924  1.8867  0.2757
 8542SOL    HW232677  11.431  12.297   5.466  0.8453 -1.9442 -0.5119
 8543SOL     OW32678   2.290   1.240   5.199  0.3755 -0.4029  0.5692
 8543SOL    HW132679   2.366   1.223   5.144  0.9865 -0.0249  1.2829
 8543SOL    HW232680   2.250   1.154   5.212  0.1823 -0.4920 -0.4993
 8544SOL     OW32681   3.898  10.176   4.774  0.2490  0.4104  0.3895
 8544SOL    HW132682   3.958  10.107   4.803  1.0724  0.5568 -0.8827
 8544SOL    HW232683   3.841  10.134   4.710  2.2047  1.3071 -2.1257
 8545SOL     OW32684  11.657  10.142   3.660 -0.0640  0.1504 -0.2647
 8545SOL    HW132685  11.639  10.170   3.750  1.1620  0.5042 -0.1024
 8545SOL    HW232686  11.725  10.203   3.630  1.5633 -1.6686 -0.4434
 8546SOL     OW32687   1.251  11.888   1.240  0.2209 -0.2814  0.0943
 8546SOL    HW132688   1.184  11.879   1.309  0.9125 -0.3584  0.7733
 8546SOL    HW232689   1.267  11.982   1.235  0.4856 -0.3093  0.3580
 8547SOL     OW32690  11.317   1.903  10.650 -0.4099 -0.2742  0.2238
 8547SOL    HW132691  11.291   1.980  10.701  1.8828  0.6782  0.0992
 8547SOL    HW232692  11.235   1.866  10.618 -1.6103  2.8626 -0.7742
 8548SOL     OW32693  11.688   6.103   6.849 -0.6251 -0.2972  0.3872
 8548SOL    HW132694  11.757   6.084   6.913 -0.2345 -0.8400 -0.1857
 8548SOL    HW232695  11.721   6.179   6.801 -0.1810 -0.8669 -0.2256
 8549SOL     OW32696   2.537   1.111   9.250 -0.3405 -0.3752 -0.4190
 8549SOL    HW132697   2.542   1.058   9.169 -0.4850 -0.2515 -0.5092
 8549SOL    HW232698   2.583   1.192   9.228  0.9948 -0.9676  0.1279
 8550SOL     OW32699   9.782  12.564  11.751 -0.3282 -0.3656 -0.1055
 8550SOL    HW132700   9.877  12.563  11.761 -0.2216  1.8020 -0.3735
 8550SOL    HW232701   9.764  12.641  11.697 -2.1955 -1.1710 -0.7388
 8551SOL     OW32702   4.210   1.655   7.279 -0.4667  0.0618  0.4951
 8551SOL    HW132703   4.195   1.656   7.373 -1.7429 -0.8205  0.3345
 8551SOL    HW232704   4.301   1.684   7.268 -0.4163  0.5061  1.9582
 8552SOL     OW32705   9.274   2.610  11.558  0.7068 -0.0062  0.1172
 8552SOL    HW132706   9.316   2.620  11.643  0.5646 -0.1419  0.2045
 8552SOL    HW232707   9.244   2.699  11.536  0.5985  0.0009  0.2866
 8553SOL     OW32708   3.216   0.159   2.885 -0.2277 -0.0353  0.3247
 8553SOL    HW132709   3.295   0.209   2.866  0.4846 -1.2849 -0.1328
 8553SOL    HW232710   3.226   0.130   2.975 -0.7277  0.7978  0.6499
 8554SOL     OW32711   3.374   4.066  12.119  0.5244 -0.3726  0.0981
 8554SOL    HW132712   3.443   4.073  12.053  1.5607  1.0824  1.2684
 8554SOL    HW232713   3.417   4.088  12.201 -1.3411  0.6107  0.8738
 8555SOL     OW32714  11.224   5.073  11.825  0.2508 -0.3909  0.0600
 8555SOL    HW132715  11.287   5.013  11.864  0.5643 -0.0916  0.0225
 8555SOL    HW232716  11.165   5.097  11.896  1.5451  1.1136  0.6980
 8556SOL     OW32717   1.736  12.177   7.894  0.1495  0.2687 -0.2485
 8556SOL    HW132718   1.804  12.112   7.914 -0.2416  0.5001  2.1514
 8556SOL    HW232719   1.782  12.244   7.842  1.8985  0.5528  1.5252
 8557SOL     OW32720   1.486  12.096   7.121 -0.3687 -0.1420 -0.0675
 8557SOL    HW132721   1.447  12.050   7.047 -1.8236 -0.0311  0.5901
 8557SOL    HW232722   1.516  12.027   7.179 -0.2619 -0.2408 -0.2403
 8558SOL     OW32723   4.526   8.456   0.788 -0.0685  0.7918 -0.7418
 8558SOL    HW132724   4.517   8.392   0.717  1.0813 -0.3512  0.1123
 8558SOL    HW232725   4.549   8.404   0.865  1.8878  2.2911 -0.2267
 8559SOL     OW32726   9.434   0.111  10.065 -0.1411  0.1409  0.3138
 8559SOL    HW132727   9.492   0.084   9.994  1.6124  0.8891  1.3880
 8559SOL    HW232728   9.352   0.066  10.047  0.7217 -0.8907 -1.3335
 8560SOL     OW32729   5.729   0.929   6.012  0.0185 -0.2745  0.4154
 8560SOL    HW132730   5.767   0.860   6.066  0.8825 -2.2991 -2.5029
 8560SOL    HW232731   5.699   0.884   5.933  1.7050  2.7633 -2.2084
 8561SOL     OW32732   9.335  10.650   0.206  0.4017 -0.5868 -0.1350
 8561SOL    HW132733   9.257  10.705   0.201  1.7146  1.4516  0.5720
 8561SOL    HW232734   9.380  10.665   0.122  1.7497  1.0927  0.8100
 8562SOL     OW32735   2.635   0.661   9.068 -0.3828  0.1190  0.1044
 8562SOL    HW132736   2.560   0.620   9.025 -1.3874  1.7846  0.1825
 8562SOL    HW232737   2.711   0.610   9.038 -0.8961  1.4195 -4.2009
 8563SOL     OW32738  11.019   7.883  11.605 -0.3647  0.2384 -0.1050
 8563SOL    HW132739  10.961   7.959  11.617  2.6305  2.7675 -0.3356
 8563SOL    HW232740  11.088   7.896  11.670  1.0551 -1.4880 -1.1921
 8564SOL     OW32741   7.264   3.634   8.770  0.1347  0.3639 -0.4187
 8564SOL    HW132742   7.233   3.617   8.681  0.7888  0.3106 -0.6395
 8564SOL    HW232743   7.230   3.561   8.822 -1.4942  1.1490 -0.3184
 8565SOL     OW32744   0.028   4.514  11.453 -0.1531 -0.2845 -0.2159
 8565SOL    HW132745   0.120   4.487  11.455 -0.2537 -1.0086 -2.4654
 8565SOL    HW232746  -0.014   4.452  11.392 -1.6083  1.4927 -1.1337
 8566SOL     OW32747  10.046   9.926   4.950  0.2152 -0.0508  0.1849
 8566SOL    HW132748  10.044   9.833   4.928 -0.9985  0.2772 -1.2397
 8566SOL    HW232749  10.015   9.970   4.871  1.1050  1.6016  0.7094
 8567SOL     OW32750   9.359   8.470   4.547  0.4531  0.0537  0.1632
 8567SOL    HW132751   9.315   8.544   4.505 -0.0256 -0.3077  0.0218
 8567SOL    HW232752   9.304   8.450   4.623  0.8976  0.2125  0.5296
 8568SOL     OW32753   9.896  10.358  11.385 -0.2314  0.0339  0.2809
 8568SOL    HW132754   9.846  10.352  11.304 -0.4091 -0.8176  0.4411
 8568SOL    HW232755   9.900  10.268  11.418  1.0658  0.1367  0.4761
 8569SOL     OW32756  10.163   7.654   8.166  0.8340  0.2139  0.4474
 8569SOL    HW132757  10.184   7.635   8.075  0.5553 -0.6204  0.5482
 8569SOL    HW232758  10.237   7.705   8.198  0.6709  0.9976 -0.3960
 8570SOL     OW32759   6.805   2.815  11.229  0.1701 -0.2629  0.5162
 8570SOL    HW132760   6.816   2.874  11.304  1.5636 -1.2143  1.1089
 8570SOL    HW232761   6.831   2.729  11.263  2.7887 -0.4081 -1.5075
 8571SOL     OW32762  10.464   8.620   7.189 -0.1470  0.1125  0.5963
 8571SOL    HW132763  10.448   8.680   7.262 -0.0167 -0.6578  1.2678
 8571SOL    HW232764  10.550   8.582   7.208 -0.1371 -0.1314  0.0620
 8572SOL     OW32765   2.939   0.318   9.678  0.3716  0.3662  0.0538
 8572SOL    HW132766   2.992   0.241   9.657 -0.0342  0.1458 -0.1834
 8572SOL    HW232767   2.864   0.312   9.619 -1.4167 -0.9252  2.3044
 8573SOL     OW32768   5.857   7.047   1.774  0.0551  0.5106  0.2514
 8573SOL    HW132769   5.806   7.002   1.841 -0.7167  1.1832  0.1298
 8573SOL    HW232770   5.808   7.128   1.757  0.5664  0.6340 -0.6825
 8574SOL     OW32771   2.255   9.186   5.944 -0.2590 -0.9887 -0.0950
 8574SOL    HW132772   2.292   9.177   6.032 -0.1019  0.5934  0.0288
 8574SOL    HW232773   2.203   9.107   5.932 -0.6058 -1.0511  1.5828
 8575SOL     OW32774   6.911   0.266   7.548 -0.8545 -0.3154 -0.6252
 8575SOL    HW132775   6.867   0.351   7.550 -1.7008 -0.7435 -0.7815
 8575SOL    HW232776   6.927   0.249   7.455 -0.8606 -0.4139 -0.6080
 8576SOL     OW32777   3.208   7.495   1.940 -0.0812 -0.2004  0.3285
 8576SOL    HW132778   3.266   7.557   1.983  0.3496  0.1441 -0.7191
 8576SOL    HW232779   3.159   7.547   1.876 -0.6053 -0.7236  0.2851
 8577SOL     OW32780   4.989   4.811  12.241  0.1187 -0.3925 -0.3148
 8577SOL    HW132781   4.907   4.764  12.258 -0.9034  0.2941 -2.7871
 8577SOL    HW232782   4.965   4.903  12.246  0.6327 -0.1813 -1.3911
 8578SOL     OW32783   9.941   4.182   2.858  0.2321 -0.0219  0.2260
 8578SOL    HW132784   9.891   4.254   2.820  1.2993  0.6708  0.1053
 8578SOL    HW232785   9.963   4.212   2.946 -1.0604 -1.0619  0.9420
 8579SOL     OW32786   4.438   9.507   5.152  0.4970 -0.1162  0.0106
 8579SOL    HW132787   4.468   9.471   5.235  0.7824 -0.2363 -0.1430
 8579SOL    HW232788   4.467   9.598   5.152  0.6586 -0.1679 -0.0390
 8580SOL     OW32789   4.104  10.653   8.443  0.1199  0.5635  0.1519
 8580SOL    HW132790   4.135  10.742   8.462  0.3344  0.8451 -1.4057
 8580SOL    HW232791   4.010  10.656   8.458  0.4247  0.3588  2.5273
 8581SOL     OW32792   0.696  10.825   5.913  0.4066  0.1594 -0.4447
 8581SOL    HW132793   0.723  10.834   5.821  1.6865 -1.5706 -0.2832
 8581SOL    HW232794   0.738  10.898   5.957  1.2732 -0.0091 -0.9598
 8582SOL     OW32795   7.456   9.051   2.574 -0.1056  0.3982  0.3800
 8582SOL    HW132796   7.363   9.052   2.592 -0.7460 -0.2371 -2.4199
 8582SOL    HW232797   7.494   9.108   2.641 -2.6153  1.5416  0.9536
 8583SOL     OW32798   7.685   2.730   5.375  0.0518 -0.4802  0.3696
 8583SOL    HW132799   7.683   2.723   5.280  3.3605  0.1830  0.1489
 8583SOL    HW232800   7.604   2.688   5.404 -1.3864 -0.0739 -2.7288
 8584SOL     OW32801  12.464   9.976  11.028 -0.1662 -0.1929  0.3151
 8584SOL    HW132802  12.411  10.043  10.984  0.4855  0.5429  0.6341
 8584SOL    HW232803  12.489   9.916  10.958 -2.4495 -1.2685  0.3451
 8585SOL     OW32804   1.605   5.597   4.655 -0.2186 -0.0750 -0.4235
 8585SOL    HW132805   1.534   5.598   4.591 -0.0658 -1.5420 -0.6646
 8585SOL    HW232806   1.613   5.505   4.680  2.4907 -0.2157 -1.4271
 8586SOL     OW32807  10.627   4.185   9.494 -0.0048 -0.4420 -0.6026
 8586SOL    HW132808  10.600   4.232   9.573 -2.3957 -1.7388 -0.5843
 8586SOL    HW232809  10.668   4.105   9.526 -0.4098 -0.6800 -0.6842
 8587SOL     OW32810  11.015   0.638   5.912 -0.5200  0.1061  0.3261
 8587SOL    HW132811  10.926   0.616   5.941 -0.4806  2.0226  2.1184
 8587SOL    HW232812  11.047   0.699   5.978  0.7230  2.4954 -2.3202
 8588SOL     OW32813   5.482   8.911   3.230  0.9349 -0.1055 -0.4215
 8588SOL    HW132814   5.390   8.891   3.243  0.8679 -0.7213 -1.6752
 8588SOL    HW232815   5.528   8.830   3.252  1.0720 -0.1507 -0.8470
 8589SOL     OW32816  11.045   2.081  11.309 -0.3171 -0.0925 -0.2123
 8589SOL    HW132817  10.953   2.055  11.305 -1.0534  1.7483  2.3679
 8589SOL    HW232818  11.042   2.175  11.324  2.0385  0.0939 -0.6137
 8590SOL     OW32819   5.465   9.440   4.214  0.7369  0.1256 -0.1802
 8590SOL    HW132820   5.429   9.465   4.299  0.0488 -1.1037 -0.0778
 8590SOL    HW232821   5.468   9.521   4.164  0.6805  0.7805  0.8485
 8591SOL     OW32822   0.005   7.923   9.331  0.4276  0.4376  0.4365
 8591SOL    HW132823  -0.083   7.958   9.340  0.6470  0.8017  1.2406
 8591SOL    HW232824   0.055   7.993   9.289  0.0196 -0.2947 -1.3762
 8592SOL     OW32825   8.921   5.765  10.498  0.2949 -0.3221  0.2235
 8592SOL    HW132826   9.011   5.746  10.471 -0.2661 -0.1917 -1.8927
 8592SOL    HW232827   8.895   5.840  10.445 -0.9595 -0.1319  1.0618
 8593SOL     OW32828   3.333   2.196   7.534 -0.1913 -0.0277  0.2276
 8593SOL    HW132829   3.337   2.282   7.491 -0.0180  0.0678  0.4312
 8593SOL    HW232830   3.413   2.192   7.587 -0.2951 -0.2348  0.3698
 8594SOL     OW32831   2.011   1.229   4.924 -0.2020  0.5028  0.0869
 8594SOL    HW132832   2.005   1.321   4.952 -0.8920 -0.1786  2.4173
 8594SOL    HW232833   1.927   1.211   4.882 -1.0542  0.3363  1.7781
 8595SOL     OW32834   0.996   3.886   7.656 -0.5773 -0.1326 -0.3277
 8595SOL    HW132835   0.935   3.819   7.626 -0.9055  0.1012 -0.1802
 8595SOL    HW232836   0.947   3.936   7.722  1.0902 -2.6650  3.1724
 8596SOL     OW32837  12.433   3.989   6.224  0.4310 -0.1439  0.5787
 8596SOL    HW132838  12.355   4.041   6.240  0.4285 -0.2142  0.7947
 8596SOL    HW232839  12.484   3.995   6.306 -0.4719 -2.0595  1.3473
 8597SOL     OW32840   7.473   7.362  11.028  0.5189 -0.0042  0.0317
 8597SOL    HW132841   7.440   7.436  10.978  0.2633 -0.9740 -1.2985
 8597SOL    HW232842   7.566   7.357  11.006  0.8371  0.6862  1.1428
 8598SOL     OW32843  12.378   9.681  10.573  0.6502 -0.1823 -0.3584
 8598SOL    HW132844  12.437   9.605  10.576  1.0794  0.1393 -0.4393
 8598SOL    HW232845  12.294   9.645  10.545  0.6436 -0.7507  0.3585
 8599SOL     OW32846   2.513   5.029   3.055  0.3921  0.1211 -0.2418
 8599SOL    HW132847   2.445   5.024   2.987  0.8453 -2.2816 -0.5984
 8599SOL    HW232848   2.566   5.104   3.029  0.1652 -0.3292 -2.2321
 8600SOL     OW32849   3.042   9.670   3.961 -0.0882  0.1052 -0.1261
 8600SOL    HW132850   2.951   9.651   3.939 -0.0042 -0.7189  0.2256
 8600SOL    HW232851   3.036   9.725   4.039 -0.2949  0.6138 -0.4906
 8601SOL     OW32852   2.530   4.484   6.083 -0.3993 -0.2881  0.5867
 8601SOL    HW132853   2.581   4.426   6.026 -2.2077 -0.3926 -1.0396
 8601SOL    HW232854   2.474   4.424   6.133 -0.5773 -0.0569  0.6650
 8602SOL     OW32855   5.565  10.272   8.725 -0.7548  0.2221 -0.0683
 8602SOL    HW132856   5.517  10.202   8.771 -2.3059 -0.2356 -2.2500
 8602SOL    HW232857   5.590  10.233   8.642  0.6537  1.5090 -0.2971
 8603SOL     OW32858   9.358   7.698  11.020 -0.3675 -0.1154 -0.0141
 8603SOL    HW132859   9.268   7.681  11.049  0.5396  0.4081  3.5798
 8603SOL    HW232860   9.355   7.786  10.982 -1.1554  0.4274  1.2602
 8604SOL     OW32861   2.210   7.808  11.322 -0.4160  0.7540  0.3302
 8604SOL    HW132862   2.188   7.766  11.405  1.8154 -0.3291  0.4653
 8604SOL    HW232863   2.177   7.897  11.330 -0.3456  0.6452  2.3552
 8605SOL     OW32864   7.461   3.610   2.773  0.2315  0.4738  0.5598
 8605SOL    HW132865   7.538   3.652   2.736  0.2724  0.9830  1.2128
 8605SOL    HW232866   7.418   3.569   2.697 -0.7078  3.0711 -0.4332
 8606SOL     OW32867   0.502  11.987   9.352  0.5288 -0.3825  0.7078
 8606SOL    HW132868   0.523  11.895   9.367  1.5862 -0.3427 -0.3230
 8606SOL    HW232869   0.526  12.002   9.260 -2.2430  0.2277 -0.0080
 8607SOL     OW32870   3.559   7.846   5.643  0.4715 -0.1220 -0.5399
 8607SOL    HW132871   3.620   7.912   5.610  0.0506  0.4232 -0.2275
 8607SOL    HW232872   3.473   7.886   5.636  0.3295 -0.1181  0.8856
 8608SOL     OW32873  11.074   7.738  11.015 -0.1696  0.2802  0.5870
 8608SOL    HW132874  11.042   7.759  10.927  0.2673  0.4132  0.4579
 8608SOL    HW232875  11.020   7.792  11.073 -0.8590 -0.2489  0.4503
 8609SOL     OW32876   1.286   1.925   8.264 -0.3863 -0.3091 -0.0934
 8609SOL    HW132877   1.359   1.982   8.292 -0.0885 -0.2168 -1.0228
 8609SOL    HW232878   1.306   1.840   8.302 -0.4328  0.0192  0.6729
 8610SOL     OW32879   8.545   1.973   1.848  0.1950  0.0406  0.3208
 8610SOL    HW132880   8.615   2.009   1.902  0.6772  1.6698 -1.2795
 8610SOL    HW232881   8.483   2.046   1.838  0.5298  0.0850 -1.9209
 8611SOL     OW32882   3.396  10.581   4.790 -0.1216  0.0724 -0.1901
 8611SOL    HW132883   3.472  10.525   4.809 -0.4248 -1.4320 -2.9009
 8611SOL    HW232884   3.321  10.526   4.810 -0.4287  0.0074 -1.4207
 8612SOL     OW32885   5.346   0.139   9.955  0.0302 -0.1225 -0.0147
 8612SOL    HW132886   5.333   0.123   9.861 -0.8625  0.5669 -0.0213
 8612SOL    HW232887   5.260   0.124   9.994  0.4501 -0.6316  0.7351
 8613SOL     OW32888  11.135   8.411   2.339  0.0704  0.3760 -0.0333
 8613SOL    HW132889  11.230   8.419   2.345 -0.0004  1.3863 -0.1358
 8613SOL    HW232890  11.107   8.396   2.429  0.1672  2.1109  0.3162
 8614SOL     OW32891  12.533   3.939   2.229 -0.2601 -0.9540  0.3385
 8614SOL    HW132892  12.471   3.868   2.210 -0.3389 -0.2390 -2.4141
 8614SOL    HW232893  12.479   4.017   2.234 -0.1109 -0.9215  2.9219
 8615SOL     OW32894  10.065   3.417   0.500 -0.0132  0.4071  0.3259
 8615SOL    HW132895  10.076   3.329   0.534  1.1039  0.2800 -0.3173
 8615SOL    HW232896  10.141   3.466   0.531 -0.2359  0.9428  0.0610
 8616SOL     OW32897   5.834   0.564   3.377  0.2128 -0.1366  0.6262
 8616SOL    HW132898   5.822   0.646   3.329  0.2287  0.3026  1.3627
 8616SOL    HW232899   5.915   0.527   3.341 -0.9953 -1.0254 -1.3695
 8617SOL     OW32900   8.660   1.189   3.313  0.0883 -0.2322 -0.0377
 8617SOL    HW132901   8.753   1.205   3.322  0.4759 -0.0487 -3.1878
 8617SOL    HW232902   8.633   1.152   3.398  2.8684  0.1501  1.1109
 8618SOL     OW32903   1.346   6.516  10.194 -0.0466  0.0703  0.3454
 8618SOL    HW132904   1.422   6.463  10.171  0.6551  0.9003  0.6849
 8618SOL    HW232905   1.293   6.518  10.115  0.1795 -0.6923  0.1680
 8619SOL     OW32906   4.540   5.354  11.953  0.5553 -0.0682  0.0885
 8619SOL    HW132907   4.460   5.306  11.974 -0.3659  1.0671 -0.6702
 8619SOL    HW232908   4.574   5.384  12.038  1.6932 -2.7836  0.6851
 8620SOL     OW32909   5.931   1.350  12.575  0.1664 -0.2468 -0.7219
 8620SOL    HW132910   5.967   1.436  12.599  2.8766 -0.9070 -1.9399
 8620SOL    HW232911   5.943   1.345  12.481 -1.2533 -1.4536 -0.8718
 8621SOL     OW32912   7.671   8.945   7.915 -0.1074 -0.7685  0.1065
 8621SOL    HW132913   7.753   8.897   7.910 -0.3781 -1.2191 -0.0600
 8621SOL    HW232914   7.616   8.892   7.973  0.6063  0.8564  2.4259
 8622SOL     OW32915   7.784   9.935   6.304  0.3046 -0.3347 -0.0470
 8622SOL    HW132916   7.759  10.028   6.309  1.4153 -0.0393  0.2010
 8622SOL    HW232917   7.848   9.931   6.233 -2.0843 -1.4968 -2.3027
 8623SOL     OW32918   3.152  10.190   7.484 -0.3515  0.2757  0.4004
 8623SOL    HW132919   3.091  10.264   7.480  0.2079  0.7041 -0.6872
 8623SOL    HW232920   3.131  10.138   7.407 -0.2591 -0.3215  0.7748
 8624SOL     OW32921  12.216   0.363   9.710 -0.0666  0.8027  0.2580
 8624SOL    HW132922  12.311   0.361   9.700 -0.0426  0.7323  0.4982
 8624SOL    HW232923  12.184   0.409   9.632  0.1886  1.1506  0.3584
 8625SOL     OW32924  10.381  10.995   5.461 -0.0752 -0.2070 -0.2395
 8625SOL    HW132925  10.390  10.987   5.556 -0.8278 -3.8888 -0.3263
 8625SOL    HW232926  10.470  11.011   5.430  0.4714 -0.7160  0.9843
 8626SOL     OW32927   9.524  10.744   8.220 -0.1615  0.0611 -0.3372
 8626SOL    HW132928   9.524  10.651   8.243 -1.4778 -0.1773 -1.1908
 8626SOL    HW232929   9.446  10.756   8.166 -0.1239  1.7073 -0.0986
 8627SOL     OW32930   0.378  11.756  12.197 -0.1272  0.2389  0.0896
 8627SOL    HW132931   0.312  11.808  12.243  0.9948 -0.1335  2.2542
 8627SOL    HW232932   0.459  11.806  12.208  0.3666 -0.4135 -0.5285
 8628SOL     OW32933   4.543   8.165  12.509 -0.3971 -0.5407  0.2178
 8628SOL    HW132934   4.464   8.123  12.540 -1.0956  0.6486  0.1070
 8628SOL    HW232935   4.611   8.138  12.571 -1.6751  1.5635  2.7036
 8629SOL     OW32936   8.053   6.373   7.599  0.8417  0.0425 -0.6332
 8629SOL    HW132937   7.980   6.321   7.631  1.3261  0.2992  0.9873
 8629SOL    HW232938   8.130   6.319   7.614  1.1691  0.5088 -0.6024
 8630SOL     OW32939   7.162   2.076   4.022  0.0341  0.1384  0.7557
 8630SOL    HW132940   7.107   2.036   4.089  1.2011  0.6999  2.0925
 8630SOL    HW232941   7.207   2.148   4.066  0.4819  0.8436 -0.7527
 8631SOL     OW32942  12.294  10.764   8.266 -0.5605 -0.1938  0.2153
 8631SOL    HW132943  12.230  10.769   8.337 -1.3203  1.6749 -0.5496
 8631SOL    HW232944  12.355  10.835   8.283  0.0988 -0.6399 -0.2277
 8632SOL     OW32945   3.709   2.510   2.553  0.7759  0.4162 -0.0259
 8632SOL    HW132946   3.724   2.489   2.645 -1.2954 -1.7992 -0.1066
 8632SOL    HW232947   3.640   2.577   2.555  0.5708  0.2042  0.0392
 8633SOL     OW32948   5.377   7.386  12.390  0.0352 -0.2446  0.2010
 8633SOL    HW132949   5.472   7.389  12.396 -0.0157  1.5069  0.4440
 8633SOL    HW232950   5.347   7.472  12.419 -1.7449 -1.3599  1.9808
 8634SOL     OW32951  12.359   0.639   6.753 -0.3644  0.0385 -0.2206
 8634SOL    HW132952  12.391   0.551   6.735 -1.1261 -0.4678  0.7779
 8634SOL    HW232953  12.265   0.633   6.742 -0.4913  0.5503  0.5318
 8635SOL     OW32954  10.816  12.462  10.548  0.6309 -0.8348 -0.0050
 8635SOL    HW132955  10.812  12.553  10.576  1.3149 -0.2354 -1.7242
 8635SOL    HW232956  10.822  12.412  10.629 -1.9724  0.4644  1.1237
 8636SOL     OW32957   3.832   3.337   5.785 -0.4564 -0.5805  0.2061
 8636SOL    HW132958   3.820   3.406   5.850 -0.1748 -1.3764  1.1175
 8636SOL    HW232959   3.923   3.344   5.759 -0.7869  0.3114 -0.7906
 8637SOL     OW32960   4.234   6.692   4.621 -0.1908 -0.1389 -0.3709
 8637SOL    HW132961   4.156   6.638   4.615  0.1425 -0.8388  1.1377
 8637SOL    HW232962   4.292   6.659   4.553  0.0060 -1.7250  0.5203
 8638SOL     OW32963   0.237   0.707  12.284 -0.4230 -0.2500 -0.3140
 8638SOL    HW132964   0.170   0.654  12.327  0.1910 -0.0483  0.9269
 8638SOL    HW232965   0.190   0.752  12.213 -1.4326 -0.6839  0.0562
 8639SOL     OW32966   3.831  10.326   7.166 -0.3399  0.1999 -0.3392
 8639SOL    HW132967   3.899  10.337   7.100  1.2590  1.4699  1.4151
 8639SOL    HW232968   3.763  10.388   7.141  0.4213  0.9475 -0.6116
 8640SOL     OW32969   6.954   5.723  12.555  0.4473 -0.1185  0.1896
 8640SOL    HW132970   6.881   5.702  12.497  1.1177 -0.3760 -0.5771
 8640SOL    HW232971   6.913   5.763  12.632 -0.6579 -1.9127  0.5900
 8641SOL     OW32972   9.797   2.272   3.099  0.1031  0.3882 -0.1818
 8641SOL    HW132973   9.773   2.352   3.052  0.7512 -0.0994 -1.3982
 8641SOL    HW232974   9.716   2.222   3.104 -0.1878  0.8825  0.1005
 8642SOL     OW32975  12.351   1.845  11.962  0.1952  0.2194 -0.5406
 8642SOL    HW132976  12.377   1.791  12.037 -2.7821 -0.4864  0.0989
 8642SOL    HW232977  12.327   1.782  11.894 -1.7822  0.7179 -0.3492
 8643SOL     OW32978   8.560  10.496   3.575 -0.0639  0.5573  0.1030
 8643SOL    HW132979   8.540  10.545   3.655 -1.9034  0.6165 -0.3424
 8643SOL    HW232980   8.484  10.439   3.563 -0.0472  0.8719 -1.8299
 8644SOL     OW32981   7.617   5.962   8.190  0.0996 -0.0967 -0.2449
 8644SOL    HW132982   7.626   6.049   8.228  4.1407  0.2696 -1.6361
 8644SOL    HW232983   7.533   5.965   8.144  0.6445  3.5625 -1.3350
 8645SOL     OW32984   2.135   4.481   6.999 -0.3464 -0.1430 -0.3858
 8645SOL    HW132985   2.192   4.423   6.948  1.7541  1.2909  0.2199
 8645SOL    HW232986   2.098   4.541   6.935 -1.6624 -1.3639 -0.8498
 8646SOL     OW32987   1.292   1.963   4.513 -0.2006  0.0050  0.1706
 8646SOL    HW132988   1.282   2.023   4.439  0.5126 -0.4017 -0.2644
 8646SOL    HW232989   1.313   2.019   4.587  0.8604  0.2700 -0.3181
 8647SOL     OW32990  11.514   8.686   9.365 -0.1280 -0.1528 -0.3959
 8647SOL    HW132991  11.436   8.659   9.316  0.4290 -1.1976 -0.7614
 8647SOL    HW232992  11.565   8.737   9.302  0.3842 -1.1297 -0.8014
 8648SOL     OW32993   0.141   0.673   7.943 -0.1582  0.2490  0.9060
 8648SOL    HW132994   0.052   0.671   7.979 -0.6906 -0.9658 -0.3962
 8648SOL    HW232995   0.196   0.637   8.013 -0.8417  0.0278  1.3340
 8649SOL     OW32996   8.784   2.841   9.027 -0.5417 -0.0728  0.0448
 8649SOL    HW132997   8.866   2.793   9.037  0.3151  1.2094 -0.5837
 8649SOL    HW232998   8.722   2.777   8.991  0.5370 -0.7271 -0.6796
 8650SOL     OW32999   2.304   3.309   8.270 -0.4864  0.0900 -0.1607
 8650SOL    HW133000   2.224   3.269   8.304  0.2076 -2.1667 -0.9445
 8650SOL    HW233001   2.374   3.248   8.296  0.6104  0.5963 -1.7258
 8651SOL     OW33002   1.431   2.892   2.439  0.0293  0.9523  0.4671
 8651SOL    HW133003   1.438   2.893   2.534  0.1517 -2.0507  0.5635
 8651SOL    HW233004   1.517   2.920   2.408 -0.1092  2.2685  1.1940
 8652SOL     OW33005   3.641   4.671   1.519 -0.2205 -0.1241 -0.4289
 8652SOL    HW133006   3.647   4.616   1.441 -2.4609  0.1670 -0.8614
 8652SOL    HW233007   3.696   4.747   1.498  0.6129 -0.8503 -0.9814
 8653SOL     OW33008   2.358  10.347  10.138 -0.1196  0.2903 -0.1768
 8653SOL    HW133009   2.316  10.423  10.177  1.1633  0.7176  0.4288
 8653SOL    HW233010   2.440  10.381  10.101  0.9228 -0.9165  0.9112
 8654SOL     OW33011   5.588  10.215   5.170 -0.6629 -0.3316 -0.0196
 8654SOL    HW133012   5.515  10.273   5.147 -0.0511 -0.2753 -2.0479
 8654SOL    HW233013   5.660  10.245   5.115  0.8192 -0.6005  1.6961
 8655SOL     OW33014  10.106   1.699   4.500  0.3603  0.6965  0.1907
 8655SOL    HW133015  10.090   1.726   4.590  1.5617  2.0491  0.0270
 8655SOL    HW233016  10.050   1.755   4.447  0.2588  0.4578  0.0438
 8656SOL     OW33017   7.030   0.661   6.529  0.2879 -0.0962 -0.2235
 8656SOL    HW133018   6.953   0.651   6.472  1.0421  0.3420 -1.3716
 8656SOL    HW233019   7.065   0.572   6.538 -0.1490 -0.2460  0.0040
 8657SOL     OW33020   7.606  11.649   0.352  0.2655  0.0806 -0.5385
 8657SOL    HW133021   7.599  11.635   0.258 -0.9007  2.3513 -0.8474
 8657SOL    HW233022   7.683  11.706   0.362  0.3833 -0.1469 -0.0997
 8658SOL     OW33023   6.442   4.412   9.314 -0.8443 -0.0773 -0.5406
 8658SOL    HW133024   6.525   4.364   9.318 -0.4709  0.4582 -1.4405
 8658SOL    HW233025   6.413   4.418   9.405  0.3452  0.1240 -0.1506
 8659SOL     OW33026   8.300   0.185  11.087  0.1975  0.4323 -0.7747
 8659SOL    HW133027   8.335   0.274  11.098 -2.4173  1.7898 -2.3443
 8659SOL    HW233028   8.363   0.141  11.029  2.4805  0.5502  1.4508
 8660SOL     OW33029   5.638   7.650   2.553 -0.2451  0.3135 -0.5252
 8660SOL    HW133030   5.567   7.631   2.615 -1.2543  0.5990 -1.5539
 8660SOL    HW233031   5.702   7.699   2.605  0.1868 -1.6758  0.9423
 8661SOL     OW33032  10.828   4.681   3.602  0.0736 -0.0868  0.6249
 8661SOL    HW133033  10.921   4.680   3.620  0.5176 -3.5793 -1.0043
 8661SOL    HW233034  10.815   4.758   3.546  1.5784  1.4052  2.2163
 8662SOL     OW33035   1.117  11.915   9.087 -0.1938 -0.4076 -0.0570
 8662SOL    HW133036   1.113  11.830   9.043  0.2750 -1.4307  1.7515
 8662SOL    HW233037   1.049  11.911   9.153 -0.9362  1.1197 -0.6923
 8663SOL     OW33038  10.564   1.835  11.348  0.1108 -0.0419  0.2855
 8663SOL    HW133039  10.488   1.781  11.329 -1.0692  0.6878  2.6165
 8663SOL    HW233040  10.628   1.774  11.384 -0.5582 -0.1950  1.2493
 8664SOL     OW33041  12.467   9.512   5.243  0.9135 -0.1898  0.2089
 8664SOL    HW133042  12.466   9.419   5.221 -1.0573 -0.2987  0.5907
 8664SOL    HW233043  12.496   9.556   5.163  1.3178 -1.0845 -0.1454
 8665SOL     OW33044   1.626   8.447  11.246  0.2287 -0.0410  0.5077
 8665SOL    HW133045   1.654   8.364  11.285  1.8021 -0.1886 -0.8253
 8665SOL    HW233046   1.672   8.514  11.297  0.2750 -0.0793  0.5170
 8666SOL     OW33047   6.010   8.328  12.545 -0.1979 -0.0301 -0.7791
 8666SOL    HW133048   6.105   8.335  12.533 -0.0192 -3.4255 -2.6856
 8666SOL    HW233049   5.998   8.324  12.639  1.7491 -1.0858 -0.5145
 8667SOL     OW33050   2.056   8.606   1.239 -0.2067  0.4239  0.0377
 8667SOL    HW133051   2.063   8.512   1.256  0.1248  0.7383  1.7449
 8667SOL    HW233052   2.141   8.642   1.264  0.3156  0.9739 -2.3168
 8668SOL     OW33053   2.937   0.131   1.143 -0.0268 -0.0113 -0.0496
 8668SOL    HW133054   2.847   0.146   1.114 -0.6310  2.7025  2.7583
 8668SOL    HW233055   2.982   0.213   1.125  1.6644 -0.9612 -0.4007
 8669SOL     OW33056   7.289  10.590   8.178 -0.8922 -0.0493 -0.0553
 8669SOL    HW133057   7.272  10.548   8.262 -3.5039  1.6185  0.3637
 8669SOL    HW233058   7.383  10.609   8.179 -0.8683  0.0623  2.5493
 8670SOL     OW33059  10.122   8.596  12.582 -0.2681  0.5238 -0.0544
 8670SOL    HW133060  10.203   8.545  12.574  0.2817  1.1356  1.3553
 8670SOL    HW233061  10.127   8.658  12.509 -0.3226 -0.5412 -1.0096
 8671SOL     OW33062   1.595   7.990   2.367 -0.0002 -0.4027 -0.5146
 8671SOL    HW133063   1.554   7.928   2.306 -0.2328  0.3912 -1.1830
 8671SOL    HW233064   1.598   8.072   2.319 -0.7800  0.4066  0.7702
 8672SOL     OW33065   6.317   2.576   6.776  0.4032 -0.4691 -0.0524
 8672SOL    HW133066   6.256   2.519   6.823  1.9994 -2.4927 -0.2777
 8672SOL    HW233067   6.364   2.623   6.844  0.6862 -1.1999  0.2668
 8673SOL     OW33068  12.211   3.387   4.322 -0.0571 -0.3271 -0.3525
 8673SOL    HW133069  12.267   3.338   4.261  1.2082 -0.3838  0.8163
 8673SOL    HW233070  12.265   3.460   4.351  0.4354 -1.8009  2.7958
 8674SOL     OW33071   9.382   8.412  12.563  0.2749  0.3573 -0.4710
 8674SOL    HW133072   9.289   8.390  12.556  0.8527 -2.9035  0.3707
 8674SOL    HW233073   9.404   8.452  12.479 -1.2447 -1.7296 -1.9624
 8675SOL     OW33074   5.388   0.919   9.034 -0.3589 -0.0380  0.0492
 8675SOL    HW133075   5.303   0.928   9.076 -1.9735  0.2238 -2.9524
 8675SOL    HW233076   5.442   0.872   9.097 -1.6582  2.5598  3.3732
 8676SOL     OW33077   9.873   5.168   7.470 -0.3136 -0.4907 -0.2092
 8676SOL    HW133078   9.797   5.168   7.412 -1.2818 -0.9328  1.0207
 8676SOL    HW233079   9.837   5.152   7.557  0.9149  1.6981  0.7777
 8677SOL     OW33080   8.592   3.147   1.890 -1.1601 -0.1527 -0.0395
 8677SOL    HW133081   8.592   3.229   1.841  0.6844 -1.4109 -2.3558
 8677SOL    HW233082   8.618   3.081   1.826 -0.2446 -2.2020  2.2952
 8678SOL     OW33083   6.347   9.079  12.096 -0.1090  0.2304 -0.3899
 8678SOL    HW133084   6.299   9.066  12.014 -0.7205  0.6342 -0.1027
 8678SOL    HW233085   6.341   9.173  12.113  3.5133  0.9354 -2.0068
 8679SOL     OW33086   1.443   0.392   2.199 -0.5856  0.0095 -0.7115
 8679SOL    HW133087   1.416   0.464   2.256 -2.0323  0.4999 -1.9746
 8679SOL    HW233088   1.534   0.374   2.225 -0.0025  2.6284 -0.6921
 8680SOL     OW33089   2.485   0.957   3.503  0.7956 -0.0896  0.0795
 8680SOL    HW133090   2.546   0.961   3.578  1.8775 -0.3942 -0.7596
 8680SOL    HW233091   2.467   1.049   3.482  0.3610  0.0013  0.7907
 8681SOL     OW33092   3.394   7.929   8.763  0.5292 -0.1222 -0.0420
 8681SOL    HW133093   3.351   7.945   8.679  0.4264  1.1222  0.2311
 8681SOL    HW233094   3.331   7.878   8.814  0.1863 -0.0082 -0.3561
 8682SOL     OW33095   6.990   6.829   0.988 -0.2807  0.9273 -0.3106
 8682SOL    HW133096   6.920   6.806   0.927 -0.1854  1.2542 -0.5410
 8682SOL    HW233097   7.069   6.790   0.950 -0.2501  0.9859 -0.3063
 8683SOL     OW33098   6.760   3.724   1.310 -0.5186 -0.3972 -0.3249
 8683SOL    HW133099   6.842   3.773   1.307 -0.4421 -0.5259 -0.3043
 8683SOL    HW233100   6.724   3.731   1.221 -1.4187  1.2707  0.1137
 8684SOL     OW33101  11.766   2.900   4.565 -0.1848 -0.1982  0.3851
 8684SOL    HW133102  11.778   2.824   4.622 -0.8724 -2.1373 -1.8866
 8684SOL    HW233103  11.671   2.912   4.562 -0.3023 -1.1514 -1.4748
 8685SOL     OW33104   0.841   6.402  10.606  0.3196 -0.1532  0.2628
 8685SOL    HW133105   0.831   6.494  10.631  0.8641  0.4010 -1.3949
 8685SOL    HW233106   0.795   6.395  10.523 -0.8739 -1.7425  1.0171
 8686SOL     OW33107   1.602   6.903   0.742 -0.0199  0.4206  0.9260
 8686SOL    HW133108   1.626   6.862   0.825  1.4930 -0.2353  0.2015
 8686SOL    HW233109   1.594   6.996   0.763 -0.1523  0.2033  1.9057
 8687SOL     OW33110   8.210  12.009   0.161 -0.3750  0.0972 -0.3165
 8687SOL    HW133111   8.259  11.964   0.092  0.5377  0.3768  0.1335
 8687SOL    HW233112   8.188  11.941   0.224  0.0654  0.0950 -0.1657
 8688SOL     OW33113   9.884   3.734   3.927  0.3380 -0.2706  0.3447
 8688SOL    HW133114   9.805   3.705   3.972  0.8213 -1.0307  0.7345
 8688SOL    HW233115   9.890   3.828   3.945 -0.8539 -0.0594 -0.2962
 8689SOL     OW33116   5.023  11.906   3.954 -0.1486 -0.1011 -0.3672
 8689SOL    HW133117   5.026  11.813   3.976 -0.1865 -0.0144  0.0182
 8689SOL    HW233118   4.930  11.924   3.940 -0.0351 -0.3538 -1.4882
 8690SOL     OW33119  10.425   7.170   6.668 -0.1221 -0.2647  0.3600
 8690SOL    HW133120  10.450   7.161   6.760  1.8870  2.1337  0.1392
 8690SOL    HW233121  10.337   7.207   6.670 -0.3886 -0.9124  1.2823
 8691SOL     OW33122   5.287  11.111   7.235 -0.1642  0.1743 -0.1226
 8691SOL    HW133123   5.380  11.112   7.255 -0.2592  0.1006  0.3214
 8691SOL    HW233124   5.262  11.204   7.232 -0.1369  0.1864  0.0362
 8692SOL     OW33125   7.983   3.158   3.068 -0.3044 -0.3656  0.0725
 8692SOL    HW133126   7.986   3.080   3.012  0.6813 -1.1230  1.1308
 8692SOL    HW233127   7.977   3.231   3.006  2.9457 -1.0003 -1.2447
 8693SOL     OW33128   9.652   8.210  12.073 -0.6895 -0.4127  0.1886
 8693SOL    HW133129   9.626   8.293  12.113  0.4305 -0.2305  0.5779
 8693SOL    HW233130   9.721   8.177  12.129  0.3837 -0.5366 -1.1428
 8694SOL     OW33131   9.355   9.664   0.629  0.2148 -0.5501 -0.1526
 8694SOL    HW133132   9.353   9.648   0.535 -0.0559  1.8313 -0.6213
 8694SOL    HW233133   9.283   9.611   0.664 -0.0698 -0.9987 -1.3626
 8695SOL     OW33134   6.367  11.180   4.853  0.1979  0.3653 -0.4160
 8695SOL    HW133135   6.343  11.123   4.926  1.0225  1.5547  0.8510
 8695SOL    HW233136   6.333  11.266   4.879  1.1467  0.9590 -1.1040
 8696SOL     OW33137   8.364   8.254   0.237 -0.1094 -0.1048  0.8782
 8696SOL    HW133138   8.404   8.270   0.152 -0.0640  1.1936  1.1137
 8696SOL    HW233139   8.415   8.309   0.298  0.7570 -2.0439  2.0074
 8697SOL     OW33140   2.116   0.666   4.716  0.1589 -0.1831  0.0928
 8697SOL    HW133141   2.056   0.658   4.642 -0.3996 -0.7764  0.5964
 8697SOL    HW233142   2.074   0.729   4.775  0.2476 -0.2603  0.2399
 8698SOL     OW33143   4.585   4.154   5.730  0.0357  0.1217 -0.5679
 8698SOL    HW133144   4.552   4.168   5.819  1.3119  0.8415 -0.1780
 8698SOL    HW233145   4.640   4.231   5.712  0.6761 -0.5358 -1.5540
 8699SOL     OW33146   9.510   7.605   5.413 -0.0346  0.2909  0.6211
 8699SOL    HW133147   9.521   7.657   5.492 -0.2756 -1.2988  1.7389
 8699SOL    HW233148   9.596   7.604   5.372  0.5181 -0.2155  1.7478
 8700SOL     OW33149   8.519   7.252   1.841 -0.8484 -0.7086  0.2100
 8700SOL    HW133150   8.463   7.307   1.897 -0.9862 -0.3913 -0.2297
 8700SOL    HW233151   8.460   7.221   1.772 -0.3002  0.3786 -0.7861
 8701SOL     OW33152   3.953   1.045   5.845 -0.2079  0.1286 -0.2232
 8701SOL    HW133153   3.968   1.046   5.751  1.7618  2.4612 -0.0013
 8701SOL    HW233154   3.907   1.128   5.863  0.8490  0.4869  1.0046
 8702SOL     OW33155  10.004   5.512  11.977  0.4523  0.0752  0.0689
 8702SOL    HW133156   9.935   5.456  11.943  0.7267 -0.0505 -0.2825
 8702SOL    HW233157  10.083   5.459  11.972  0.3311 -0.3679  1.9624
 8703SOL     OW33158   3.583   1.502   6.161  0.4392 -0.5409 -0.9377
 8703SOL    HW133159   3.670   1.540   6.163  0.3679 -0.3509  1.4018
 8703SOL    HW233160   3.574   1.467   6.072  3.3444 -1.6269 -0.9131
 8704SOL     OW33161   8.436  10.674   7.349 -0.0103  0.3471 -0.3974
 8704SOL    HW133162   8.350  10.713   7.336  0.0106  0.4333 -0.2785
 8704SOL    HW233163   8.497  10.735   7.308  0.1574  1.1530  0.9950
 8705SOL     OW33164   0.106   2.585  11.555  0.0703 -0.0687 -0.2486
 8705SOL    HW133165   0.138   2.675  11.567  0.8880 -0.2476 -0.9926
 8705SOL    HW233166   0.181   2.538  11.520  0.3210 -1.5683  2.0693
 8706SOL     OW33167   0.935   6.889  10.891 -0.0852 -0.2721 -0.1680
 8706SOL    HW133168   0.845   6.913  10.870  0.1278 -0.2543 -1.1014
 8706SOL    HW233169   0.971   6.966  10.934 -0.0389  0.3150 -1.2399
 8707SOL     OW33170   1.340   3.803  12.325  0.4312  0.3430  0.0859
 8707SOL    HW133171   1.284   3.809  12.248  0.2753 -4.9507 -0.5904
 8707SOL    HW233172   1.281   3.783  12.397  1.0307 -0.8830  0.2643
 8708SOL     OW33173   9.334   4.051   9.603 -0.0061 -0.0078 -0.4097
 8708SOL    HW133174   9.308   4.128   9.653 -1.5806  0.0708 -1.2585
 8708SOL    HW233175   9.422   4.071   9.572  0.3476  0.6218  0.9613
 8709SOL     OW33176   3.621  12.144   9.945 -0.1668 -0.2122 -0.4281
 8709SOL    HW133177   3.533  12.181   9.947 -0.4512 -0.9042 -0.2008
 8709SOL    HW233178   3.673  12.204   9.999 -0.2870  0.7126 -1.3073
 8710SOL     OW33179  11.531   7.230  11.189 -0.4195  0.7855  0.2618
 8710SOL    HW133180  11.531   7.151  11.135 -2.5763  0.9497 -0.0742
 8710SOL    HW233181  11.596   7.214  11.256 -0.8947 -1.3356  0.2589
 8711SOL     OW33182   5.265   1.032   0.110 -1.0394 -0.4254 -0.0734
 8711SOL    HW133183   5.330   1.017   0.042 -0.8092 -1.2241  0.3125
 8711SOL    HW233184   5.197   1.084   0.067  0.3208  1.3529 -0.2010
 8712SOL     OW33185   6.339   1.340   0.354 -0.3942 -0.0893  0.2631
 8712SOL    HW133186   6.253   1.314   0.388  0.0574  0.5348  2.0019
 8712SOL    HW233187   6.401   1.282   0.398  0.2035  0.6714  0.4667
 8713SOL     OW33188   9.092   0.142   7.158  0.1752 -0.0858 -0.2288
 8713SOL    HW133189   9.162   0.077   7.160  0.0443 -0.2139  0.3900
 8713SOL    HW233190   9.011   0.092   7.169  0.1127  0.2208  0.8528
 8714SOL     OW33191   8.633   9.943  10.629  0.0832  0.1500 -0.3414
 8714SOL    HW133192   8.698   9.966  10.562 -0.3267 -0.4743 -0.9653
 8714SOL    HW233193   8.636  10.017  10.690  2.2174 -0.4022  0.3103
 8715SOL     OW33194   5.932   1.345   7.627  0.3108 -0.3814 -0.2274
 8715SOL    HW133195   5.908   1.436   7.642  1.5511  0.5632 -3.2745
 8715SOL    HW233196   5.850   1.296   7.638 -0.3310  0.9903  1.6318
 8716SOL     OW33197  11.588  12.410   6.434 -0.0140  0.0395 -0.0294
 8716SOL    HW133198  11.662  12.407   6.495 -0.2229  0.5180  0.2451
 8716SOL    HW233199  11.624  12.377   6.352  0.4158 -0.0620  0.1967
 8717SOL     OW33200  11.455   1.120   6.062 -0.4123 -0.1290 -0.4193
 8717SOL    HW133201  11.486   1.203   6.025  1.3249  0.4172  1.9833
 8717SOL    HW233202  11.533   1.066   6.068 -0.7301 -0.4433  1.6346
 8718SOL     OW33203   2.685   0.539   0.931  0.1114  0.0779 -0.2004
 8718SOL    HW133204   2.763   0.591   0.949  0.6299 -0.5041 -0.7152
 8718SOL    HW233205   2.711   0.449   0.949 -0.8109 -0.0033  0.7954
 8719SOL     OW33206   4.892   0.969  12.566 -0.5912  0.4209 -0.2330
 8719SOL    HW133207   4.978   1.009  12.551 -1.2765  1.9125 -0.3464
 8719SOL    HW233208   4.867   0.933  12.481 -1.3202  2.5564 -0.9953
 8720SOL     OW33209   4.225   5.676   9.647 -0.6119  0.1745 -0.1978
 8720SOL    HW133210   4.249   5.720   9.728 -1.3516  1.1232 -0.4743
 8720SOL    HW233211   4.263   5.729   9.577 -0.4378 -0.3339 -0.4993
 8721SOL     OW33212  10.370   7.813  10.747  0.2957  0.1898 -0.1999
 8721SOL    HW133213  10.355   7.871  10.673  1.7940  1.2118  0.2352
 8721SOL    HW233214  10.386   7.872  10.821 -0.8537 -0.7949  0.8902
 8722SOL     OW33215  11.323  11.400   7.235  0.3876  0.3009  0.0370
 8722SOL    HW133216  11.299  11.309   7.254  0.4869  0.3220  0.2614
 8722SOL    HW233217  11.373  11.395   7.154 -0.5736  0.2771 -0.5780
 8723SOL     OW33218   2.043  11.391  12.529  0.3353 -0.2212 -0.0866
 8723SOL    HW133219   2.124  11.414  12.575 -0.4889 -0.9677  1.8517
 8723SOL    HW233220   2.014  11.474  12.491  1.0258  0.4725  0.8342
 8724SOL     OW33221   0.467   9.612   5.742  0.0398  0.0842 -0.0567
 8724SOL    HW133222   0.436   9.611   5.652 -2.4217  0.7289  0.7109
 8724SOL    HW233223   0.553   9.653   5.737 -0.5924  1.3136 -1.9552
 8725SOL     OW33224  10.141   4.504   4.524  0.0618 -0.0596 -0.3543
 8725SOL    HW133225  10.200   4.438   4.487 -0.4957 -0.1624 -1.0783
 8725SOL    HW233226  10.195   4.583   4.530  0.1130  0.0198 -1.6106
 8726SOL     OW33227   9.422   8.572  11.527 -0.6020 -0.5355 -0.6083
 8726SOL    HW133228   9.419   8.565  11.431  0.9439 -1.5883 -0.6094
 8726SOL    HW233229   9.331   8.589  11.552 -1.3433 -1.9142 -2.1579
 8727SOL     OW33230   0.960  11.689   5.473  0.4923 -0.2197 -0.7029
 8727SOL    HW133231   0.988  11.774   5.509 -0.6415  0.4946 -1.4518
 8727SOL    HW233232   1.022  11.626   5.509 -0.4641  0.4427  2.4874
 8728SOL     OW33233   5.416   3.172   1.973 -0.2567  0.2784  0.0516
 8728SOL    HW133234   5.352   3.216   2.028  0.0467 -1.9354  2.3754
 8728SOL    HW233235   5.454   3.105   2.029  1.9736 -0.4620 -2.1385
 8729SOL     OW33236  11.370   9.310  11.793 -0.2804  0.6245  0.1100
 8729SOL    HW133237  11.311   9.317  11.718  0.8698 -0.4483 -0.9560
 8729SOL    HW233238  11.323   9.252  11.854 -1.3268  1.6897  0.3535
 8730SOL     OW33239   5.946   9.008   4.216  0.0708 -0.0918 -0.0609
 8730SOL    HW133240   5.897   8.936   4.176  1.3143  0.1417 -2.1527
 8730SOL    HW233241   6.035   8.974   4.224 -0.0188  0.0622  2.1780
 8731SOL     OW33242   6.115   7.964   0.605  0.3253  0.5709 -0.4843
 8731SOL    HW133243   6.184   7.900   0.621 -0.1376  0.3020  0.4892
 8731SOL    HW233244   6.152   8.023   0.539  1.1495 -0.0747 -0.6174
 8732SOL     OW33245   5.766   5.903   8.106 -0.3028  0.1171 -0.1626
 8732SOL    HW133246   5.703   5.974   8.103 -1.7183 -1.0975 -0.0272
 8732SOL    HW233247   5.813   5.908   8.022  0.1664  1.6497  0.1584
 8733SOL     OW33248   4.702   6.286   5.359 -0.4233  0.5262 -0.5707
 8733SOL    HW133249   4.715   6.347   5.286 -0.1264 -0.1716 -1.1212
 8733SOL    HW233250   4.675   6.341   5.432 -0.8887  1.2243 -1.2524
 8734SOL     OW33251   4.598  11.253   2.932 -0.6434 -0.0843 -0.1425
 8734SOL    HW133252   4.585  11.158   2.937  1.4674 -0.5577 -1.8909
 8734SOL    HW233253   4.534  11.283   2.867 -1.8423 -0.1490  0.9790
 8735SOL     OW33254  11.697   2.033   5.925  0.5481  0.4264  0.4987
 8735SOL    HW133255  11.751   2.018   6.002 -2.2734 -1.2169  2.3611
 8735SOL    HW233256  11.624   2.087   5.957 -0.1830  0.5570 -1.2672
 8736SOL     OW33257  11.136  11.151   5.057  0.1275  0.0428 -0.1938
 8736SOL    HW133258  11.157  11.204   4.981  0.1932  0.4003  0.0667
 8736SOL    HW233259  11.040  11.150   5.060 -0.0924  4.2673  2.5003
 8737SOL     OW33260   8.173   9.641   8.246 -0.2825  0.1809 -0.2654
 8737SOL    HW133261   8.156   9.562   8.297  0.2959 -0.0975 -0.4972
 8737SOL    HW233262   8.178   9.611   8.156 -0.1345  0.4929 -0.3627
 8738SOL     OW33263  11.652  10.966   1.027 -0.1970  0.1039 -0.1065
 8738SOL    HW133264  11.693  10.923   1.103 -1.1189 -3.8340 -1.5730
 8738SOL    HW233265  11.568  10.997   1.060 -0.4004 -1.1656  0.6680
 8739SOL     OW33266   0.586   1.987   7.039 -0.5432 -0.0640 -0.5284
 8739SOL    HW133267   0.499   1.948   7.029 -0.1277 -0.7740 -1.3762
 8739SOL    HW233268   0.641   1.943   6.974  0.4090  0.5237 -0.1434
 8740SOL     OW33269   3.489  10.380   2.974  0.0723  0.1354  0.4179
 8740SOL    HW133270   3.463  10.288   2.965  0.0968  0.1825 -0.1992
 8740SOL    HW233271   3.409  10.424   3.001 -0.3449  0.1686 -0.8082
 8741SOL     OW33272   7.366   8.769   0.227  0.0899 -0.3485  0.0489
 8741SOL    HW133273   7.276   8.738   0.219 -0.0755 -0.1158  0.9347
 8741SOL    HW233274   7.358   8.865   0.231  0.3926 -0.3182 -0.0856
 8742SOL     OW33275  11.755   7.519   6.897  0.3036 -0.3959  0.6756
 8742SOL    HW133276  11.744   7.475   6.813  1.2041 -1.6692  1.1810
 8742SOL    HW233277  11.834   7.479   6.935 -0.0513  0.1768  2.0986
 8743SOL     OW33278   5.637  10.477  11.204 -0.4059  0.4201  0.1041
 8743SOL    HW133279   5.591  10.441  11.127 -2.7180  1.7963  0.7375
 8743SOL    HW233280   5.610  10.421  11.276 -1.5148  1.4958  0.5570
 8744SOL     OW33281  10.524   5.988   6.017  0.1734 -0.4329 -0.2440
 8744SOL    HW133282  10.448   6.033   5.980 -0.7921 -1.0969  0.8774
 8744SOL    HW233283  10.595   6.053   6.012 -0.9976  0.9753  0.6597
 8745SOL     OW33284  10.481   3.722   6.985  0.0217 -0.1113  0.5755
 8745SOL    HW133285  10.492   3.666   7.062  1.1910  1.0035  1.2690
 8745SOL    HW233286  10.554   3.698   6.927 -1.5775 -1.8665 -0.8604
 8746SOL     OW33287   1.974  12.081   7.344  0.4916  0.1012  0.7931
 8746SOL    HW133288   2.058  12.045   7.317  0.8138  1.3163  0.1183
 8746SOL    HW233289   1.936  12.116   7.263 -0.8304 -0.7422  1.0218
 8747SOL     OW33290  11.491  10.764   1.237  0.3496  0.1209 -0.0940
 8747SOL    HW133291  11.555  10.719   1.180  0.7684 -1.1807  1.3351
 8747SOL    HW233292  11.426  10.697   1.256  0.2271  0.5296  0.9662
 8748SOL     OW33293   8.060  10.623  12.550  0.2012 -0.9148 -0.1446
 8748SOL    HW133294   7.968  10.649  12.550 -0.1785 -2.1847  0.3937
 8748SOL    HW233295   8.100  10.679  12.617 -0.1232 -0.2038 -0.5335
 8749SOL     OW33296   7.862   0.643  11.170  0.5854 -0.5554  0.1560
 8749SOL    HW133297   7.785   0.686  11.206  0.1925  0.4131 -1.7284
 8749SOL    HW233298   7.827   0.571  11.118  0.6638  1.2301 -2.5984
 8750SOL     OW33299   4.256  12.316  12.472  0.3210 -1.2145 -0.5075
 8750SOL    HW133300   4.258  12.404  12.511 -0.2360 -1.7441  0.7420
 8750SOL    HW233301   4.324  12.319  12.404 -0.6942  0.6469 -1.5232
 8751SOL     OW33302  10.274  11.079   8.462 -0.5441  0.5428  0.1305
 8751SOL    HW133303  10.222  11.131   8.401  0.7639  1.0652 -0.5781
 8751SOL    HW233304  10.245  11.108   8.549 -2.9629 -0.7631 -0.1749
 8752SOL     OW33305  10.547   7.900   1.164 -0.2175 -0.6083  0.2152
 8752SOL    HW133306  10.627   7.849   1.177 -1.7767 -2.7528  2.2196
 8752SOL    HW233307  10.487   7.868   1.231 -2.1947  2.1796 -0.0563
 8753SOL     OW33308   9.252  10.315   3.860 -0.3707  0.1064  0.3337
 8753SOL    HW133309   9.192  10.346   3.792 -1.4711 -0.6586  0.9408
 8753SOL    HW233310   9.289  10.395   3.897  0.3556  0.5496 -1.2269
 8754SOL     OW33311   0.599   4.916   3.875  0.7600  0.3012 -0.5608
 8754SOL    HW133312   0.546   4.838   3.856  0.1658  1.0279 -2.0724
 8754SOL    HW233313   0.587   4.931   3.969 -0.7716 -0.2540 -0.6404
 8755SOL     OW33314   9.723   5.732   6.818  0.6610  0.1637  0.0414
 8755SOL    HW133315   9.758   5.705   6.733  0.0235  0.4218 -0.3090
 8755SOL    HW233316   9.657   5.797   6.797  0.5334  0.2686  0.7458
 8756SOL     OW33317   6.418   8.064   2.153 -0.5227  0.2649  0.5542
 8756SOL    HW133318   6.328   8.071   2.185  0.0336 -1.5425  2.8123
 8756SOL    HW233319   6.437   7.970   2.157  1.1665  0.4971 -0.8229
 8757SOL     OW33320   3.875  10.963   1.218  0.0176 -0.4150  0.6268
 8757SOL    HW133321   3.820  10.893   1.184 -1.6344  0.4390  1.4473
 8757SOL    HW233322   3.851  11.040   1.166  1.6142 -0.3481 -0.0805
 8758SOL     OW33323   0.283   1.607  12.024  0.3814 -0.0572  0.2852
 8758SOL    HW133324   0.265   1.549  11.950  1.2193 -0.3181  0.2815
 8758SOL    HW233325   0.253   1.559  12.101 -3.0994  1.2729 -0.0156
 8759SOL     OW33326   0.474   9.549   8.060  0.4020 -0.7887  0.0910
 8759SOL    HW133327   0.394   9.509   8.026 -0.1477  0.0017  0.4289
 8759SOL    HW233328   0.461   9.553   8.154  0.1240  0.7861  0.0273
 8760SOL     OW33329   1.165   1.141   1.972 -0.3702 -0.2171  0.4076
 8760SOL    HW133330   1.199   1.192   1.898  1.3466  1.2207  2.0872
 8760SOL    HW233331   1.110   1.073   1.931  2.2494 -0.9030 -2.3097
 8761SOL     OW33332   7.365   5.663   3.064  0.2198  0.0845 -0.0812
 8761SOL    HW133333   7.442   5.624   3.024 -0.8245  0.3382 -2.4928
 8761SOL    HW233334   7.293   5.607   3.038 -0.3943 -0.6772  2.8922
 8762SOL     OW33335  12.212  10.233   2.595 -0.1602 -0.2044 -0.3308
 8762SOL    HW133336  12.283  10.210   2.534  0.2671  0.8800 -0.2791
 8762SOL    HW233337  12.249  10.216   2.682  0.1506  0.5675 -0.2932
 8763SOL     OW33338   3.491   2.615   6.267 -0.1730 -0.0850  0.0264
 8763SOL    HW133339   3.421   2.661   6.220 -0.1359  3.4176  2.9959
 8763SOL    HW233340   3.446   2.571   6.339  0.2854 -1.7265 -0.6340
 8764SOL     OW33341   5.721   8.205   9.356  0.9488 -0.6085 -0.1695
 8764SOL    HW133342   5.626   8.211   9.351  1.0186  0.6730 -0.4211
 8764SOL    HW233343   5.750   8.296   9.360  2.1643 -0.9851 -0.0853
 8765SOL     OW33344  11.517   6.392  11.573 -0.1795 -0.7250  0.0087
 8765SOL    HW133345  11.439   6.415  11.523 -0.2538 -0.8086  0.0844
 8765SOL    HW233346  11.496   6.307  11.613  0.2444 -1.1212 -0.5975
 8766SOL     OW33347   7.339  11.821   3.231  0.1198 -0.2533  0.3722
 8766SOL    HW133348   7.422  11.851   3.268 -0.3619  2.6492 -0.6643
 8766SOL    HW233349   7.276  11.887   3.257 -1.6919 -1.8359  0.2027
 8767SOL     OW33350   5.335   9.034   1.956 -0.3793 -0.3509 -0.1925
 8767SOL    HW133351   5.275   8.982   2.010  0.4565  0.3095  1.4651
 8767SOL    HW233352   5.352   8.980   1.879 -2.4905 -0.8775 -0.3697
 8768SOL     OW33353   8.958   1.516   9.691  0.2573  0.1878  0.0506
 8768SOL    HW133354   9.036   1.483   9.647 -0.2879  0.5578 -1.2382
 8768SOL    HW233355   8.937   1.449   9.755  0.8789 -0.5411 -0.4869
 8769SOL     OW33356   5.521   3.964   0.793  0.5624 -0.2572  0.5017
 8769SOL    HW133357   5.498   4.017   0.869  0.7324  0.2911  0.1811
 8769SOL    HW233358   5.464   3.888   0.798 -0.3679  0.4205  0.4636
 8770SOL     OW33359   8.781   9.048   3.556 -0.1690 -0.4605  0.1019
 8770SOL    HW133360   8.769   8.959   3.524  0.0541 -0.3120 -0.3895
 8770SOL    HW233361   8.847   9.086   3.499 -2.3085  0.9721 -1.5766
 8771SOL     OW33362   0.813   6.983  11.517 -0.3407  0.6039 -0.2561
 8771SOL    HW133363   0.846   6.946  11.599  0.9495  0.8569 -0.6427
 8771SOL    HW233364   0.742   6.924  11.492 -2.3468  1.8135  2.2100
 8772SOL     OW33365  10.169  12.176   4.914  0.6148 -0.8142 -0.0856
 8772SOL    HW133366  10.118  12.186   4.994  0.0336  1.5854 -0.6876
 8772SOL    HW233367  10.260  12.168   4.944  0.5259  1.1025  0.8111
 8773SOL     OW33368   1.796   3.631  11.461  0.0596  0.5077  0.3392
 8773SOL    HW133369   1.729   3.698  11.477  1.6325  1.8800  1.4848
 8773SOL    HW233370   1.796   3.618  11.366 -0.9084  1.4346  0.1996
 8774SOL     OW33371   8.119   9.262   4.344  0.0800  0.2575  0.4587
 8774SOL    HW133372   8.086   9.269   4.255 -0.4996 -0.6979  0.5755
 8774SOL    HW233373   8.208   9.226   4.334 -0.0598 -0.0437  0.2661
 8775SOL     OW33374   2.644   7.039   6.570  0.5981  0.3405  0.0166
 8775SOL    HW133375   2.593   7.049   6.490  1.3836 -0.0281 -0.5408
 8775SOL    HW233376   2.676   7.127   6.590  0.2241  0.4709  0.0594
 8776SOL     OW33377   7.213   3.923  11.626 -0.1223 -1.0279  0.0394
 8776SOL    HW133378   7.251   3.954  11.544 -0.8810 -0.8619 -0.2579
 8776SOL    HW233379   7.284   3.931  11.690  0.4515 -1.0817 -0.5783
 8777SOL     OW33380   8.451   5.726   3.780 -0.1551 -0.5063 -0.9635
 8777SOL    HW133381   8.508   5.665   3.733  0.1899 -1.3051  0.4213
 8777SOL    HW233382   8.510   5.796   3.810 -0.1385 -0.6323 -0.6942
 8778SOL     OW33383   8.492   2.818   5.087 -0.0675 -0.3672 -0.2621
 8778SOL    HW133384   8.459   2.728   5.085  1.7799 -1.0651 -1.6020
 8778SOL    HW233385   8.415   2.872   5.069 -1.6472 -1.4690  2.5211
 8779SOL     OW33386  10.216   8.597   5.922 -0.5322 -0.2735 -0.2929
 8779SOL    HW133387  10.150   8.648   5.875 -0.9525 -0.3293  0.2193
 8779SOL    HW233388  10.276   8.567   5.854 -0.7937  0.1400 -0.7151
 8780SOL     OW33389   8.851   0.696   4.972 -0.4547 -0.1713 -0.2251
 8780SOL    HW133390   8.934   0.654   4.950 -0.8953 -1.0499 -0.2500
 8780SOL    HW233391   8.870   0.789   4.970  0.4117 -0.3495 -0.7222
 8781SOL     OW33392  11.310   8.571   9.225  0.1869 -0.2935  0.4649
 8781SOL    HW133393  11.222   8.589   9.258  0.5042  0.1580  1.0884
 8781SOL    HW233394  11.302   8.486   9.181 -0.5910 -0.1868  0.3783
 8782SOL     OW33395   5.576   1.213   5.775 -0.1491 -0.1984  0.1825
 8782SOL    HW133396   5.660   1.184   5.810  0.1692  0.8648  0.3356
 8782SOL    HW233397   5.593   1.230   5.682 -0.1804  0.0795  0.2286
 8783SOL     OW33398   2.782  10.231   4.222  0.1913 -0.1532 -0.5284
 8783SOL    HW133399   2.728  10.310   4.218  1.1920  0.7037  1.4384
 8783SOL    HW233400   2.777  10.193   4.134 -3.2213  0.0934 -0.5413
 8784SOL     OW33401   7.872   7.528   1.007  0.3840  0.8589  0.0181
 8784SOL    HW133402   7.912   7.464   1.066  2.1587  1.2166 -0.7370
 8784SOL    HW233403   7.873   7.610   1.056 -0.2458  0.6884  0.3227
 8785SOL     OW33404   7.826   0.047   8.904  0.4701  0.3003  0.7131
 8785SOL    HW133405   7.908   0.088   8.933  0.3908 -0.6393  2.4078
 8785SOL    HW233406   7.782   0.023   8.985 -0.8310 -0.5005 -0.2001
 8786SOL     OW33407   0.781   9.699   8.315  0.0452 -0.2523 -0.2082
 8786SOL    HW133408   0.826   9.784   8.311  0.9300 -0.6620  0.7399
 8786SOL    HW233409   0.691   9.722   8.340  0.4084  0.3822  0.5911
 8787SOL     OW33410   0.789   3.047  12.221  0.1394 -0.0078 -0.2436
 8787SOL    HW133411   0.831   2.968  12.255 -1.2703 -0.4519  0.5557
 8787SOL    HW233412   0.696   3.033  12.236 -0.1316  1.9118  0.1294
 8788SOL     OW33413   0.692   5.797   0.329  0.3178  0.0027 -0.3375
 8788SOL    HW133414   0.727   5.868   0.382 -0.4740  0.0170  0.1777
 8788SOL    HW233415   0.625   5.838   0.274  0.6184 -0.1501 -0.8311
 8789SOL     OW33416   0.899   9.170   6.606  0.7457  0.2184  0.4924
 8789SOL    HW133417   0.907   9.103   6.674 -1.1541  0.1359  0.6964
 8789SOL    HW233418   0.949   9.135   6.532  1.2520 -0.5859  1.1953
 8790SOL     OW33419  10.715   3.965  11.312  0.1945 -0.2141  0.0659
 8790SOL    HW133420  10.733   3.873  11.294  0.3362 -0.3025  0.6222
 8790SOL    HW233421  10.750   3.979  11.400 -0.7477  0.1097  0.4026
 8791SOL     OW33422   3.711   5.891   3.430 -0.4792  0.7462  0.3365
 8791SOL    HW133423   3.758   5.834   3.369  0.9199  1.2441  0.9063
 8791SOL    HW233424   3.626   5.848   3.442 -0.4636  0.2019 -1.2864
 8792SOL     OW33425   1.134   2.700   8.112  0.0647  0.5640 -0.3472
 8792SOL    HW133426   1.040   2.687   8.117  0.1697 -0.5410 -1.0364
 8792SOL    HW233427   1.156   2.747   8.193 -0.7552 -1.1550  0.9335
 8793SOL     OW33428   1.099   4.170   7.434 -0.3956  0.0772 -0.3283
 8793SOL    HW133429   1.037   4.157   7.506 -0.8390 -0.2840 -0.7756
 8793SOL    HW233430   1.185   4.170   7.477 -0.7547  1.9383  0.4842
 8794SOL     OW33431   7.066   8.624   7.903  0.3068  0.2597  0.8392
 8794SOL    HW133432   7.107   8.560   7.846  2.1022  1.6550  0.4649
 8794SOL    HW233433   6.974   8.626   7.876  0.4891 -1.2200  0.0396
 8795SOL     OW33434  11.085   0.113   0.203 -0.0002  0.7531 -0.1213
 8795SOL    HW133435  11.175   0.146   0.203  0.2096  0.3427  2.2583
 8795SOL    HW233436  11.094   0.018   0.188 -0.0795  0.7640 -0.2438
 8796SOL     OW33437   4.320   1.806   9.414 -0.2844 -0.2396 -0.2577
 8796SOL    HW133438   4.302   1.898   9.394  0.2383 -0.1197 -0.1885
 8796SOL    HW233439   4.414   1.796   9.397 -0.1257 -0.5036  0.7193
 8797SOL     OW33440  11.660   1.872   1.382 -0.2706 -0.3277  0.0102
 8797SOL    HW133441  11.592   1.814   1.417  0.0216 -0.4946  0.3096
 8797SOL    HW233442  11.634   1.889   1.292 -0.3719 -0.9071 -0.0710
 8798SOL     OW33443   4.704  12.005   9.961  0.3508 -0.1539 -0.1042
 8798SOL    HW133444   4.616  12.040   9.974 -0.3003 -1.9775  0.7531
 8798SOL    HW233445   4.696  11.949   9.883  0.1345 -2.0534  1.2076
 8799SOL     OW33446   6.566   0.859   9.951 -0.1615  0.4256 -0.2650
 8799SOL    HW133447   6.582   0.812  10.032  0.1728  0.5993 -0.2311
 8799SOL    HW233448   6.480   0.827   9.921 -0.0517 -0.0138 -0.1118
 8800SOL     OW33449   1.294   5.909   1.641 -0.1159  0.0495  0.0136
 8800SOL    HW133450   1.385   5.938   1.648 -0.1497  0.5104 -1.2172
 8800SOL    HW233451   1.299   5.823   1.601 -0.3204  1.6567 -3.8628
 8801SOL     OW33452   5.756   8.514   9.956 -0.7099 -0.1248  0.0255
 8801SOL    HW133453   5.781   8.580  10.020 -2.1049 -1.9025  2.5905
 8801SOL    HW233454   5.690   8.557   9.901  1.3665  1.8043 -1.1545
 8802SOL     OW33455   0.636   9.578  10.160  0.0369 -0.7100 -0.0538
 8802SOL    HW133456   0.692   9.511  10.200 -1.8147 -1.7999  0.8828
 8802SOL    HW233457   0.684   9.660  10.171  2.0054 -1.7393 -0.4793
 8803SOL     OW33458   6.028   8.328   9.062 -0.5074 -0.3312 -0.1001
 8803SOL    HW133459   6.084   8.357   9.134 -1.1975  0.4944  0.1222
 8803SOL    HW233460   6.062   8.376   8.986 -0.8939  0.1670  0.0341
 8804SOL     OW33461   0.670   6.865   0.867  0.1676  0.6214  0.2132
 8804SOL    HW133462   0.755   6.825   0.849 -0.1188  0.6131 -1.2566
 8804SOL    HW233463   0.670   6.945   0.816 -1.4352 -0.3352 -1.4145
 8805SOL     OW33464  11.906   7.316   1.704  0.0370 -0.0004 -0.2840
 8805SOL    HW133465  11.924   7.396   1.654 -1.8211 -0.8701 -2.5701
 8805SOL    HW233466  11.842   7.343   1.770 -0.7246  0.3941 -1.1616
 8806SOL     OW33467   6.569   2.962  11.448  0.6495  0.4633 -0.0031
 8806SOL    HW133468   6.636   2.894  11.460 -0.4930 -0.6027  0.5005
 8806SOL    HW233469   6.544   2.955  11.356  0.9205  0.5704 -0.0865
 8807SOL     OW33470   6.259   0.948   9.134 -0.7076 -0.0504 -0.3483
 8807SOL    HW133471   6.294   0.989   9.055 -0.2517 -0.1433 -0.1989
 8807SOL    HW233472   6.190   0.889   9.103 -0.5320 -0.0861 -0.6741
 8808SOL     OW33473   3.128   9.786   9.186 -0.5909  0.3082  0.1762
 8808SOL    HW133474   3.130   9.859   9.124  1.8305  0.1161 -0.1016
 8808SOL    HW233475   3.097   9.825   9.268  0.1365  1.5511 -0.1103
 8809SOL     OW33476   9.314   7.597  11.836  0.6257  0.2307 -0.0267
 8809SOL    HW133477   9.249   7.617  11.768  0.5414  1.1750  0.3247
 8809SOL    HW233478   9.381   7.546  11.790 -0.3682 -0.7938 -0.3866
 8810SOL     OW33479   1.678   2.641   4.923  0.0309  0.0029 -0.1847
 8810SOL    HW133480   1.613   2.586   4.965  0.4646  0.6751  1.4639
 8810SOL    HW233481   1.706   2.592   4.846 -2.3011 -0.3460 -0.8703
 8811SOL     OW33482   2.581   7.626  10.413 -0.9797 -0.0993  0.3262
 8811SOL    HW133483   2.643   7.643  10.484  0.0418 -0.9727 -0.3322
 8811SOL    HW233484   2.636   7.618  10.335 -1.9496 -0.6786 -0.3093
 8812SOL     OW33485   3.785   8.869   1.042 -0.1133 -0.5578  0.1168
 8812SOL    HW133486   3.741   8.948   1.074 -0.3920 -1.2466  1.5376
 8812SOL    HW233487   3.726   8.835   0.974 -0.3724  0.0413  0.0332
 8813SOL     OW33488   7.808   7.197   5.549  0.0544 -0.1804 -0.4233
 8813SOL    HW133489   7.779   7.114   5.510  0.6212  0.6680 -2.8520
 8813SOL    HW233490   7.734   7.256   5.539  0.8508  0.5957 -2.1001
 8814SOL     OW33491   3.177  10.582   2.039  0.3073 -0.1103 -0.5331
 8814SOL    HW133492   3.159  10.489   2.055 -2.2413  0.3450 -0.3995
 8814SOL    HW233493   3.166  10.592   1.945  0.3842  0.1091 -0.5189
 8815SOL     OW33494  10.307   6.245  12.392 -0.6803 -0.1869 -0.1513
 8815SOL    HW133495  10.280   6.334  12.369 -0.4852 -0.0864  0.0049
 8815SOL    HW233496  10.229   6.207  12.434 -0.0312  0.7340  2.0531
 8816SOL     OW33497   2.389   8.443   5.346 -0.3331  0.3299 -0.2802
 8816SOL    HW133498   2.473   8.399   5.331 -1.3809 -1.1532 -2.4320
 8816SOL    HW233499   2.348   8.392   5.416  0.0278  0.2639 -0.1115
 8817SOL     OW33500   1.266   7.321   1.162  0.3229 -0.3465 -0.2245
 8817SOL    HW133501   1.260   7.408   1.202  1.4361 -0.4224  0.1267
 8817SOL    HW233502   1.216   7.264   1.221 -1.0903  0.1648 -0.8701
 8818SOL     OW33503   8.782   7.872   5.774  0.4076  0.0827 -0.0119
 8818SOL    HW133504   8.856   7.815   5.795 -0.4089 -1.1180 -0.2603
 8818SOL    HW233505   8.715   7.812   5.740 -1.1115  0.9650  1.2984
 8819SOL     OW33506   8.719   3.533   1.982 -0.2434 -0.2361  0.2197
 8819SOL    HW133507   8.735   3.467   1.914 -1.1291  1.1541 -1.4363
 8819SOL    HW233508   8.788   3.599   1.968 -0.4969  0.1132  0.5982
 8820SOL     OW33509  10.668   6.512   0.423  0.0041  0.2956  0.4298
 8820SOL    HW133510  10.701   6.423   0.437 -0.7658 -0.1791 -0.6415
 8820SOL    HW233511  10.665   6.550   0.511  0.5423 -0.6615  0.8853
 8821SOL     OW33512   4.261   5.719  11.240  0.1850 -0.7060  0.7421
 8821SOL    HW133513   4.252   5.814  11.237 -0.4223 -0.7627  0.6131
 8821SOL    HW233514   4.218   5.688  11.160 -0.9134 -1.1727  1.4937
 8822SOL     OW33515   9.091   2.769   5.681 -0.0442 -0.4644  0.1019
 8822SOL    HW133516   9.019   2.776   5.742  1.0085 -0.8152  1.4395
 8822SOL    HW233517   9.062   2.705   5.616 -0.7287 -1.0079  0.9292
 8823SOL     OW33518   7.367  11.074   3.007 -0.0205  0.2241  0.5972
 8823SOL    HW133519   7.417  11.132   2.949  2.2647  0.3523  2.5485
 8823SOL    HW233520   7.297  11.130   3.041 -1.1964  0.2466 -1.6103
 8824SOL     OW33521   6.516   8.442   7.913 -0.2204  0.1490  0.2064
 8824SOL    HW133522   6.599   8.394   7.904  1.0850  2.4109 -0.6499
 8824SOL    HW233523   6.535   8.511   7.977 -0.7762  1.9357 -1.4550
 8825SOL     OW33524   6.135   8.436   4.285 -0.6192 -0.6258  0.1124
 8825SOL    HW133525   6.087   8.410   4.364 -0.5534 -0.0220  0.3560
 8825SOL    HW233526   6.155   8.529   4.298 -0.1364 -0.6530 -0.3718
 8826SOL     OW33527   7.286   4.877   6.805 -0.0386  0.2343 -0.1441
 8826SOL    HW133528   7.366   4.863   6.856  1.4044  1.8317 -1.7958
 8826SOL    HW233529   7.285   4.805   6.742 -0.6304 -0.5156  0.7108
 8827SOL     OW33530  10.047   2.400   8.498  0.8572  0.0617 -0.4336
 8827SOL    HW133531  10.137   2.429   8.485  0.5829  0.3704 -1.9389
 8827SOL    HW233532  10.016   2.380   8.409 -0.4728 -0.2657  0.0817
 8828SOL     OW33533   7.049   2.250  12.366  0.2009  0.2631  0.0912
 8828SOL    HW133534   7.022   2.249  12.458  0.2626  1.1647  0.1322
 8828SOL    HW233535   6.990   2.189  12.323 -1.5987  1.7586  0.2851
 8829SOL     OW33536   5.410  11.442   5.048  0.2954 -0.0196 -0.3425
 8829SOL    HW133537   5.411  11.535   5.026  2.1139 -0.1813 -1.1062
 8829SOL    HW233538   5.501  11.415   5.042 -0.1809 -1.8354 -0.0167
 8830SOL     OW33539  10.167   3.797   4.576  0.4295  0.6809  0.7406
 8830SOL    HW133540  10.177   3.762   4.487  2.1664 -0.1939  1.2261
 8830SOL    HW233541  10.173   3.892   4.566  0.3927  0.6010 -0.0990
 8831SOL     OW33542  10.925   2.778   3.097 -0.1669  0.0639 -0.2323
 8831SOL    HW133543  10.881   2.860   3.073 -0.1221  0.4273  0.8605
 8831SOL    HW233544  10.890   2.714   3.036  0.3677  1.0369 -1.6133
 8832SOL     OW33545   2.614   6.999   5.487 -0.7094 -0.3595 -0.1276
 8832SOL    HW133546   2.551   6.926   5.491 -0.7508 -0.3747 -0.9631
 8832SOL    HW233547   2.655   6.999   5.574 -2.3986  0.1393  0.7286
 8833SOL     OW33548   3.810   3.819   5.083 -0.2191 -0.7723  0.1181
 8833SOL    HW133549   3.782   3.878   5.013  2.5778  2.6698  1.6044
 8833SOL    HW233550   3.739   3.823   5.147 -0.1751  0.9476  0.1027
 8834SOL     OW33551  12.131   4.685   7.410  0.5618 -0.2200 -0.0013
 8834SOL    HW133552  12.144   4.640   7.327  0.1350 -1.2326  0.4607
 8834SOL    HW233553  12.126   4.777   7.387  1.0118 -0.4379 -1.0314
 8835SOL     OW33554   2.482   1.152   7.152 -0.4685  0.0533 -0.8727
 8835SOL    HW133555   2.478   1.057   7.164  2.1320 -0.1650 -1.1525
 8835SOL    HW233556   2.488   1.163   7.057  0.2960  0.4248 -0.7842
 8836SOL     OW33557  12.392   4.428  10.368  0.0681  0.5166  0.0663
 8836SOL    HW133558  12.342   4.423  10.286  0.1674 -0.3422  0.0483
 8836SOL    HW233559  12.435   4.343  10.375 -0.7376  0.2084  1.5413
 8837SOL     OW33560   6.087  11.361   8.189 -0.0331 -0.3272  0.2747
 8837SOL    HW133561   6.096  11.272   8.155  0.9149 -1.6971  3.6964
 8837SOL    HW233562   6.160  11.372   8.249  0.4783  3.2368 -0.7636
 8838SOL     OW33563   2.557   7.563   3.417 -0.2538  0.1997  0.5618
 8838SOL    HW133564   2.478   7.615   3.431 -1.1139 -1.4977  2.6047
 8838SOL    HW233565   2.587   7.540   3.505  0.7943 -1.6650 -0.2088
 8839SOL     OW33566   8.712   4.628   8.492 -0.3568 -0.1604  0.5286
 8839SOL    HW133567   8.750   4.601   8.408  0.1236  0.8599  0.3965
 8839SOL    HW233568   8.706   4.547   8.543 -2.5227 -1.1738 -1.1778
 8840SOL     OW33569   6.947   1.461   8.212  0.1859 -0.3558 -0.1585
 8840SOL    HW133570   7.007   1.386   8.210  1.6379  0.7168  0.7565
 8840SOL    HW233571   6.957   1.497   8.301 -0.2527  1.0694 -0.6566
 8841SOL     OW33572   1.567   0.965   9.267  0.0704 -0.0101  0.1013
 8841SOL    HW133573   1.645   1.013   9.239  0.2698  0.4409  1.3432
 8841SOL    HW233574   1.562   0.890   9.208  1.9158 -0.4950  0.5031
 8842SOL     OW33575   7.298  10.014   6.210  0.2231 -0.3035  0.1971
 8842SOL    HW133576   7.327  10.031   6.120 -1.0054  0.7496 -0.0472
 8842SOL    HW233577   7.375   9.983   6.256  0.8678 -0.8797 -1.2413
 8843SOL     OW33578  11.707   9.350   3.151  0.2952 -0.1432 -0.2957
 8843SOL    HW133579  11.703   9.402   3.070 -3.1426 -1.9509 -1.4912
 8843SOL    HW233580  11.681   9.411   3.220 -1.9017  0.2628 -1.3906
 8844SOL     OW33581   5.509   5.845   1.546 -0.2965  0.1574 -0.2218
 8844SOL    HW133582   5.486   5.752   1.546 -1.6764  0.4604  1.4409
 8844SOL    HW233583   5.541   5.862   1.635  1.8210  0.8851 -1.0499
 8845SOL     OW33584   3.487   9.532   8.691 -0.4409  0.3963 -0.2282
 8845SOL    HW133585   3.500   9.563   8.781 -0.9676  0.1634 -0.0717
 8845SOL    HW233586   3.474   9.612   8.640 -1.0779  0.4766  0.0554
 8846SOL     OW33587  12.225   4.030   8.104  0.8027 -0.1201 -0.6545
 8846SOL    HW133588  12.199   3.948   8.061 -0.7061  0.6482 -1.3129
 8846SOL    HW233589  12.246   4.089   8.031 -1.7754  1.2007 -0.4587
 8847SOL     OW33590   7.750   7.770   0.487  0.2701  0.1462  0.4857
 8847SOL    HW133591   7.760   7.740   0.577  0.4668  0.6817  0.6485
 8847SOL    HW233592   7.796   7.705   0.434  1.6104  0.6906  0.9222
 8848SOL     OW33593   6.892   5.045  10.804  0.5934 -0.0237 -0.5686
 8848SOL    HW133594   6.939   5.016  10.882  1.3068  1.9187 -0.2174
 8848SOL    HW233595   6.800   5.048  10.832  0.2135 -3.2311 -1.0795
 8849SOL     OW33596  10.132  11.202   4.807  0.4566 -0.1261  0.2240
 8849SOL    HW133597  10.182  11.230   4.883 -0.5655 -0.1346  0.9312
 8849SOL    HW233598  10.083  11.280   4.780 -1.9971 -0.9766  1.8800
 8850SOL     OW33599   4.034   6.329   1.183  0.3125  0.4835  0.5826
 8850SOL    HW133600   4.058   6.307   1.093  0.6608  0.9593  0.5593
 8850SOL    HW233601   3.938   6.324   1.183  0.1573  2.5374 -0.3724
 8851SOL     OW33602   6.815   7.701   4.949  0.2716  0.0502  0.1808
 8851SOL    HW133603   6.773   7.713   4.864 -1.1057  0.3460  0.8678
 8851SOL    HW233604   6.745   7.670   5.006  0.8574  1.0504  1.5056
 8852SOL     OW33605   8.523   8.677   9.643  0.1912  0.6451 -0.4219
 8852SOL    HW133606   8.530   8.646   9.553  1.8171 -0.2392 -0.0338
 8852SOL    HW233607   8.540   8.771   9.636 -2.1055  1.0617 -1.2829
 8853SOL     OW33608   7.898   4.816   2.705  0.2460 -0.7293  0.3895
 8853SOL    HW133609   7.965   4.770   2.656 -0.3508 -1.8040  0.5582
 8853SOL    HW233610   7.880   4.760   2.780 -1.3434 -0.8108 -0.0242
 8854SOL     OW33611   7.605   2.532   5.041 -0.0527 -0.0338  0.3005
 8854SOL    HW133612   7.587   2.477   5.118 -1.6137 -1.0115 -0.7015
 8854SOL    HW233613   7.519   2.569   5.018  0.5924  1.1181 -0.3302
 8855SOL     OW33614   5.117   1.098   4.483  0.8155 -0.3960  0.4126
 8855SOL    HW133615   5.115   1.192   4.467  1.2499 -0.2279  1.2468
 8855SOL    HW233616   5.156   1.090   4.570  0.2934 -1.3249  0.5740
 8856SOL     OW33617   9.414   1.653   0.967 -0.1690  0.1003  0.0429
 8856SOL    HW133618   9.440   1.743   0.987 -0.1189  0.6474 -2.1987
 8856SOL    HW233619   9.437   1.642   0.875 -1.4015 -1.7659 -0.0888
 8857SOL     OW33620   9.219  10.275   9.922 -0.0796  0.6979 -0.1724
 8857SOL    HW133621   9.204  10.259   9.829 -1.4744 -0.0844  0.1515
 8857SOL    HW233622   9.131  10.273   9.961  0.4807  0.9931  1.1595
 8858SOL     OW33623   2.713  10.244   6.967 -0.0263 -0.2956  0.6390
 8858SOL    HW133624   2.734  10.188   6.891  0.7786 -0.5833  1.0571
 8858SOL    HW233625   2.632  10.208   7.001 -0.8193  0.3174 -0.5354
 8859SOL     OW33626   4.796   7.582   5.791  0.5138  0.3926 -0.0261
 8859SOL    HW133627   4.751   7.582   5.706 -2.1428 -0.4379  1.2470
 8859SOL    HW233628   4.794   7.673   5.820 -1.3831  0.2663  0.4098
 8860SOL     OW33629  10.134   1.308   4.043 -0.9651 -0.0034 -0.0631
 8860SOL    HW133630  10.149   1.221   4.005 -0.2054  0.2375 -0.3282
 8860SOL    HW233631  10.147   1.295   4.137 -1.7242 -0.3572  0.0025
 8861SOL     OW33632   4.590   6.553   4.817  0.5424 -0.0977  0.1101
 8861SOL    HW133633   4.520   6.574   4.878  0.9549 -0.5017  0.7389
 8861SOL    HW233634   4.657   6.619   4.835  0.7292 -0.3119  0.2092
 8862SOL     OW33635   4.255   5.576   6.275  0.5449  0.1799  0.0487
 8862SOL    HW133636   4.281   5.588   6.367  0.0002 -0.7844  0.3428
 8862SOL    HW233637   4.211   5.658   6.252  0.2358  0.2393  0.8082
 8863SOL     OW33638   0.565  10.736   0.505 -0.3153 -0.2488  0.3044
 8863SOL    HW133639   0.591  10.661   0.453  0.2786  1.7504 -2.4992
 8863SOL    HW233640   0.490  10.773   0.459 -0.2062  1.2359  1.2433
 8864SOL     OW33641   2.259   3.494   4.325  0.1779  0.3439 -0.1485
 8864SOL    HW133642   2.202   3.512   4.399  0.9974  0.0080  0.5820
 8864SOL    HW233643   2.286   3.403   4.336  0.3696  0.3101 -0.8202
 8865SOL     OW33644   8.589   5.790  10.293  0.7154 -0.3884 -0.0600
 8865SOL    HW133645   8.602   5.828  10.379 -0.3136  0.0185 -0.0718
 8865SOL    HW233646   8.648   5.841  10.236  1.2673 -0.5437  0.3594
 8866SOL     OW33647   1.048   6.900   5.713 -0.5852  0.0718  0.3116
 8866SOL    HW133648   1.101   6.919   5.790 -0.8790  0.7876  0.3509
 8866SOL    HW233649   1.063   6.807   5.695 -0.3279 -0.0450  1.0868
 8867SOL     OW33650  12.038   8.522  10.382 -0.1649  0.1126  0.1576
 8867SOL    HW133651  12.006   8.594  10.436 -0.2206  0.1488  0.0771
 8867SOL    HW233652  11.970   8.510  10.315 -0.2468 -0.1428  0.2864
 8868SOL     OW33653   4.238  12.288   1.954 -0.1458 -0.3999 -0.4137
 8868SOL    HW133654   4.313  12.230   1.957 -1.4054 -2.1105 -0.4424
 8868SOL    HW233655   4.191  12.263   1.874 -0.7563  0.6130 -0.3924
 8869SOL     OW33656  12.586   4.055   5.828 -0.3223 -0.1905 -0.1255
 8869SOL    HW133657  12.531   3.977   5.837  0.2039 -0.4313  1.2460
 8869SOL    HW233658  12.532   4.126   5.864 -0.6982  0.0530 -1.1290
 8870SOL     OW33659   8.973  10.450   6.100  0.9822  0.1428 -0.1007
 8870SOL    HW133660   9.061  10.432   6.135  1.0106 -1.7940 -1.0155
 8870SOL    HW233661   8.982  10.438   6.006 -0.0377  1.0381 -0.3235
 8871SOL     OW33662   5.373  11.708   1.479  0.6674 -0.9297 -0.4491
 8871SOL    HW133663   5.422  11.762   1.542  0.5023 -1.7637  0.4244
 8871SOL    HW233664   5.286  11.747   1.476  0.9487 -0.3249 -0.8839
 8872SOL     OW33665   0.013   5.315   6.911  0.0434 -0.0909  0.1986
 8872SOL    HW133666  -0.053   5.270   6.858 -2.9222  0.3688  3.1891
 8872SOL    HW233667   0.041   5.388   6.855 -2.4236  0.0199 -1.0725
 8873SOL     OW33668  11.521  11.620   8.151  0.3689  0.1064  0.6283
 8873SOL    HW133669  11.615  11.637   8.159  0.5702 -0.3553 -0.4473
 8873SOL    HW233670  11.481  11.662   8.227  1.4104  0.6187  0.9028
 8874SOL     OW33671  12.479   3.036   4.548 -0.4950 -0.1275  0.2609
 8874SOL    HW133672  12.557   3.063   4.500 -1.3008  0.4947 -0.7161
 8874SOL    HW233673  12.476   2.941   4.538 -0.0018 -0.1274  0.0985
 8875SOL     OW33674  11.625   7.737   9.603  0.3337  0.1384  0.8784
 8875SOL    HW133675  11.616   7.812   9.662 -1.3859 -0.5192  1.5076
 8875SOL    HW233676  11.593   7.663   9.654  0.6728 -0.7883 -0.2241
 8876SOL     OW33677   3.342   3.028   8.498 -0.1684  0.3656 -0.0102
 8876SOL    HW133678   3.344   2.982   8.415  0.2772 -1.7619  1.1058
 8876SOL    HW233679   3.260   3.078   8.496 -1.6880 -1.9774 -0.5743
 8877SOL     OW33680   7.720  11.069   4.521 -0.0282 -0.4629  0.1089
 8877SOL    HW133681   7.787  11.001   4.507  0.1561 -0.7147  1.9465
 8877SOL    HW233682   7.715  11.078   4.616 -1.5103  0.6770 -0.0436
 8878SOL     OW33683  11.883  11.685  11.240  0.0985 -0.2560  0.7883
 8878SOL    HW133684  11.902  11.642  11.324  1.7073 -1.6298 -0.2148
 8878SOL    HW233685  11.960  11.737  11.221  0.2037 -0.7762 -0.3025
 8879SOL     OW33686   0.715   9.717   6.475  0.3375 -0.0154  0.0317
 8879SOL    HW133687   0.734   9.732   6.568  0.3094  0.3944 -0.0276
 8879SOL    HW233688   0.799   9.693   6.437 -0.2390 -4.3825  0.9332
 8880SOL     OW33689   0.612   9.122   7.100  0.2339  0.2836  0.3240
 8880SOL    HW133690   0.704   9.127   7.075 -0.0844  0.8898 -0.7928
 8880SOL    HW233691   0.611   9.142   7.194  1.4105 -1.5272  0.7610
 8881SOL     OW33692   5.820   2.448  10.778 -0.1869  0.2643 -0.0150
 8881SOL    HW133693   5.748   2.390  10.801 -0.4574  0.6796  0.1931
 8881SOL    HW233694   5.854   2.478  10.862  0.0224  0.3235 -0.1205
 8882SOL     OW33695  11.736  11.449   7.001  0.3052 -0.0609 -0.3329
 8882SOL    HW133696  11.745  11.541   6.977 -0.3219  0.2578  0.5880
 8882SOL    HW233697  11.823  11.412   6.990  0.8385  0.9329  0.4809
 8883SOL     OW33698   7.358   8.396  12.330 -0.1183 -0.4532  0.8383
 8883SOL    HW133699   7.343   8.308  12.296  0.5498 -0.1245 -0.3560
 8883SOL    HW233700   7.271   8.436  12.334 -0.2685 -0.6746 -0.0397
 8884SOL     OW33701   0.222  10.211   3.428 -0.5930 -0.1722  0.0468
 8884SOL    HW133702   0.164  10.254   3.492  0.2283  1.0793 -0.0137
 8884SOL    HW233703   0.310  10.240   3.453 -0.0858 -1.1794 -0.5240
 8885SOL     OW33704   5.908  11.835   7.591 -0.1399 -0.0756 -0.1703
 8885SOL    HW133705   5.904  11.916   7.640  0.8473 -0.3912  0.4581
 8885SOL    HW233706   5.823  11.829   7.547  0.2765  1.9782 -1.3608
 8886SOL     OW33707   8.043  10.086   3.124 -0.2296 -0.0645 -0.1042
 8886SOL    HW133708   8.020   9.993   3.117  1.0809 -0.3639 -0.6966
 8886SOL    HW233709   8.107  10.100   3.054  1.4710  0.6837  1.5126
 8887SOL     OW33710   4.497   2.467   0.102 -0.4287 -0.7093 -0.3470
 8887SOL    HW133711   4.416   2.481   0.053  0.7537  0.9632 -1.9703
 8887SOL    HW233712   4.511   2.548   0.150 -0.6487 -1.6891  1.4900
 8888SOL     OW33713   5.130   8.930   3.911 -0.1800 -0.3674 -0.0180
 8888SOL    HW133714   5.110   8.968   3.825 -2.4689  2.0914  1.4354
 8888SOL    HW233715   5.087   8.845   3.911 -0.7210 -0.1099 -1.0696
 8889SOL     OW33716   0.743   0.098   2.529  0.1251 -0.0522  0.4704
 8889SOL    HW133717   0.815   0.134   2.581  0.1360 -0.6077  0.8488
 8889SOL    HW233718   0.751   0.003   2.540 -0.2516 -0.1460 -0.0424
 8890SOL     OW33719   4.842   9.665   3.471  0.0869 -0.2362 -0.2815
 8890SOL    HW133720   4.937   9.658   3.462  0.0654  0.5736 -1.5038
 8890SOL    HW233721   4.808   9.593   3.418  0.0242  0.3650 -1.0839
 8891SOL     OW33722   2.466   9.015   5.799 -0.0533  0.4687  0.2889
 8891SOL    HW133723   2.427   9.096   5.831 -0.8575 -0.4407  1.7397
 8891SOL    HW233724   2.535   8.995   5.862 -0.3141 -0.3087  0.3431
 8892SOL     OW33725   1.417   7.811   5.204  0.0646  0.7068 -0.0694
 8892SOL    HW133726   1.474   7.738   5.229 -0.1287 -0.2114 -2.0941
 8892SOL    HW233727   1.350   7.772   5.149 -0.7788  2.2383 -0.1886
 8893SOL     OW33728   5.090   6.486   5.348  0.5181 -0.1852  0.5673
 8893SOL    HW133729   5.089   6.540   5.269 -0.8337 -1.4120 -0.3182
 8893SOL    HW233730   5.099   6.396   5.315 -0.2700 -0.7378  1.7705
 8894SOL     OW33731   7.722  10.788  12.257 -0.7414  0.5280  0.2084
 8894SOL    HW133732   7.763  10.827  12.334 -1.1351  0.7891  0.2891
 8894SOL    HW233733   7.690  10.862  12.206  0.5019  0.4201 -0.7776
 8895SOL     OW33734   1.922   0.897   6.964 -0.1273  0.1805 -1.1266
 8895SOL    HW133735   1.878   0.978   6.939  0.4694  0.6266 -0.7550
 8895SOL    HW233736   1.859   0.852   7.020  0.2084  1.2472  0.1663
 8896SOL     OW33737   8.364   0.494  12.062  0.1823 -0.9558 -0.2246
 8896SOL    HW133738   8.354   0.399  12.052  1.5224 -1.3323  1.4861
 8896SOL    HW233739   8.354   0.510  12.155  0.0796  0.5811 -0.4760
 8897SOL     OW33740   5.608   3.270  10.828  0.5198  0.8077 -0.4822
 8897SOL    HW133741   5.704   3.268  10.832  0.5120  1.1403  0.0171
 8897SOL    HW233742   5.589   3.332  10.758  0.6724  1.3537 -0.0467
 8898SOL     OW33743   2.942  11.782   1.053 -0.2103 -0.5147  0.2033
 8898SOL    HW133744   2.972  11.864   1.013 -0.2359 -1.4140 -1.7839
 8898SOL    HW233745   3.010  11.718   1.030 -1.6538 -1.7043 -0.9985
 8899SOL     OW33746   1.921   3.528   6.563  0.2943  0.0659  0.0484
 8899SOL    HW133747   1.975   3.551   6.487  2.4850  0.4301  1.6322
 8899SOL    HW233748   1.964   3.450   6.599 -1.2566 -0.6422  0.4151
 8900SOL     OW33749   6.162   8.927   4.895  0.0277 -0.1526  0.0326
 8900SOL    HW133750   6.147   9.021   4.885 -0.1923  0.0233  1.7102
 8900SOL    HW233751   6.082   8.886   4.863 -0.3842  0.3034  0.4675
 8901SOL     OW33752   5.526   8.102   3.117 -0.3001  0.1985  0.3771
 8901SOL    HW133753   5.592   8.166   3.146  1.1532 -1.6483  1.3592
 8901SOL    HW233754   5.577   8.033   3.075 -1.4937 -1.6021  1.7491
 8902SOL     OW33755   8.244   8.983   5.379 -0.2551 -0.7655  0.2358
 8902SOL    HW133756   8.208   9.031   5.454  1.1246  0.3159  0.2665
 8902SOL    HW233757   8.195   9.015   5.304  1.2122  1.4568  0.1333
 8903SOL     OW33758   2.943   0.150   9.157  0.2228 -1.2250 -0.2485
 8903SOL    HW133759   3.035   0.126   9.154  0.3686 -0.9606  1.3501
 8903SOL    HW233760   2.942   0.236   9.200 -0.7327 -0.9532 -0.7764
 8904SOL     OW33761   4.715   4.184   3.573  0.6048 -0.1774  0.2851
 8904SOL    HW133762   4.728   4.089   3.561 -1.7032 -0.2053 -3.2809
 8904SOL    HW233763   4.769   4.224   3.505 -0.5980  0.8874 -0.0667
 8905SOL     OW33764  12.114   2.166   0.307  0.5148  0.4267 -0.0349
 8905SOL    HW133765  12.110   2.142   0.215  0.3324  1.1237 -0.2178
 8905SOL    HW233766  12.035   2.217   0.323  0.5528  0.3303  0.5023
 8906SOL     OW33767   1.546  10.317   0.337  0.0047 -0.2219 -0.1392
 8906SOL    HW133768   1.472  10.370   0.368 -0.2981 -0.6636 -0.0872
 8906SOL    HW233769   1.593  10.292   0.417 -0.1913 -0.5152 -0.1130
 8907SOL     OW33770   7.699   1.277   0.347 -0.2159 -0.3867  0.0201
 8907SOL    HW133771   7.769   1.212   0.336 -0.7286 -0.7814 -1.0949
 8907SOL    HW233772   7.618   1.227   0.337 -0.7517 -0.1865  2.6338
 8908SOL     OW33773   1.745  11.654   4.873  0.2776 -0.0337  0.0307
 8908SOL    HW133774   1.819  11.712   4.855  0.7921 -0.8154 -0.4420
 8908SOL    HW233775   1.669  11.701   4.840  0.7826  0.0387 -1.0484
 8909SOL     OW33776   7.330   6.190   2.121 -0.5588  0.1688  0.1700
 8909SOL    HW133777   7.251   6.164   2.073 -0.7095  0.6211  0.1742
 8909SOL    HW233778   7.311   6.278   2.154 -0.4180 -0.0899  0.9761
 8910SOL     OW33779  11.831   8.208   2.655 -0.8402 -0.3698 -0.0566
 8910SOL    HW133780  11.855   8.138   2.715 -0.5473  0.2430  0.5533
 8910SOL    HW233781  11.897   8.204   2.585 -0.2219 -0.0766  0.4942
 8911SOL     OW33782   6.645   5.270   1.308 -0.6965  0.1562 -0.4093
 8911SOL    HW133783   6.597   5.283   1.389 -0.0870 -1.8011  0.3239
 8911SOL    HW233784   6.577   5.264   1.241 -1.4871 -1.8221  0.5007
 8912SOL     OW33785   8.933   4.983  10.209  0.2166 -0.0246  0.1865
 8912SOL    HW133786   8.963   4.905  10.255 -2.0977 -0.4898  1.0322
 8912SOL    HW233787   9.013   5.035  10.195  1.6638 -2.0395  0.4893
 8913SOL     OW33788  10.982  10.340   3.340 -0.6371 -0.3497  0.2570
 8913SOL    HW133789  11.056  10.310   3.285  0.7526  1.7066  0.8902
 8913SOL    HW233790  10.923  10.382   3.278 -0.3860 -0.3912 -0.0181
 8914SOL     OW33791   6.580   8.601   9.755 -0.0556 -0.1969  0.9516
 8914SOL    HW133792   6.539   8.539   9.815 -1.8564  1.1684  1.2097
 8914SOL    HW233793   6.626   8.663   9.812  0.3990 -0.3624  0.7727
 8915SOL     OW33794   1.443   6.054   0.878 -0.5909  0.1393  0.3511
 8915SOL    HW133795   1.443   6.081   0.970  0.3714 -0.3189  0.5018
 8915SOL    HW233796   1.464   6.133   0.829 -0.8674  0.3315  0.5347
 8916SOL     OW33797   9.989   9.800   4.220  0.0023  0.0545 -0.0021
 8916SOL    HW133798   9.942   9.832   4.297  1.3432  1.0955  0.4381
 8916SOL    HW233799  10.042   9.727   4.252  0.2480  0.2213 -0.0257
 8917SOL     OW33800   5.562  10.947  11.156 -0.5569 -0.1710  0.4357
 8917SOL    HW133801   5.556  11.019  11.218  2.2633  0.8520 -0.3378
 8917SOL    HW233802   5.613  10.880  11.201  0.0890 -0.0989 -0.1758
 8918SOL     OW33803   9.419   6.248   7.211 -0.4428  0.5284 -0.1059
 8918SOL    HW133804   9.365   6.219   7.284  1.5833  1.3238  1.8321
 8918SOL    HW233805   9.463   6.168   7.181  0.9531  0.5963  1.5784
 8919SOL     OW33806   0.935   2.627   0.403  0.1366 -0.0471  0.1002
 8919SOL    HW133807   0.883   2.700   0.371 -0.3714 -0.4440 -0.0040
 8919SOL    HW233808   0.902   2.611   0.492 -0.1339 -0.4938 -0.0762
 8920SOL     OW33809   4.088   2.016   7.235 -0.1988 -0.1569  0.0975
 8920SOL    HW133810   4.105   2.110   7.229 -0.8793 -0.1143 -1.8228
 8920SOL    HW233811   3.993   2.008   7.224 -0.3224 -0.9924  1.5838
 8921SOL     OW33812   5.663   5.912   9.766 -0.8465 -0.7740 -0.1000
 8921SOL    HW133813   5.570   5.935   9.767 -1.1353 -1.8937 -0.0989
 8921SOL    HW233814   5.664   5.816   9.763  0.2970 -0.7750 -3.1568
 8922SOL     OW33815   9.309   0.825   7.776  0.0728 -0.7832 -0.3697
 8922SOL    HW133816   9.234   0.835   7.835  1.1264  1.4019  0.6873
 8922SOL    HW233817   9.316   0.730   7.763 -1.3686 -1.2033  1.4732
 8923SOL     OW33818   4.698   1.519   8.305  0.5292  0.0188  0.2034
 8923SOL    HW133819   4.657   1.552   8.225  0.3299 -0.6451  0.0170
 8923SOL    HW233820   4.629   1.465   8.345  0.8069 -0.0841  0.5416
 8924SOL     OW33821   3.270   5.574  11.445  0.2569  0.0883 -0.2592
 8924SOL    HW133822   3.254   5.499  11.388 -1.9339  0.9270 -0.8776
 8924SOL    HW233823   3.362   5.567  11.470  0.5851 -1.7669 -1.7737
 8925SOL     OW33824  12.280   0.544   0.325 -0.0241 -0.2787 -0.1491
 8925SOL    HW133825  12.360   0.504   0.289 -0.0980 -2.7096  2.0738
 8925SOL    HW233826  12.240   0.589   0.250  3.1715  0.7348 -1.4398
 8926SOL     OW33827   3.781   4.321   6.485  0.5054  0.3822 -0.2180
 8926SOL    HW133828   3.687   4.318   6.468  0.5477  0.3970 -0.4691
 8926SOL    HW233829   3.789   4.324   6.580  0.1935  2.5646 -0.2198
 8927SOL     OW33830   6.803   9.510   2.959  0.4165 -0.7055 -0.2687
 8927SOL    HW133831   6.725   9.565   2.956  0.2543 -0.9590 -2.5916
 8927SOL    HW233832   6.804   9.474   3.048 -0.7781  1.1435  0.5546
 8928SOL     OW33833   8.931  10.351   1.903  0.5754  0.1385 -0.1770
 8928SOL    HW133834   8.873  10.288   1.944 -3.1357  1.7732 -2.4202
 8928SOL    HW233835   8.950  10.314   1.817 -0.8507  1.4933 -1.1389
 8929SOL     OW33836   7.619   8.063   3.766  0.1757 -0.2349 -0.1535
 8929SOL    HW133837   7.569   8.008   3.705 -0.4286  0.9927 -0.8166
 8929SOL    HW233838   7.710   8.055   3.737  0.0682 -0.7309 -0.3586
 8930SOL     OW33839   9.518   2.054   2.441  0.0859  0.3033 -0.2244
 8930SOL    HW133840   9.459   1.986   2.475 -0.0724  0.0939 -0.9127
 8930SOL    HW233841   9.549   2.019   2.358  1.8836  0.0119  0.5298
 8931SOL     OW33842   2.947   9.275   7.652 -0.4144 -0.0690 -0.6941
 8931SOL    HW133843   2.972   9.185   7.633 -0.3183  0.1897 -1.8739
 8931SOL    HW233844   3.028   9.325   7.643 -0.8992  0.4672 -2.4293
 8932SOL     OW33845   2.320  10.033   6.814 -0.2519 -0.0045  0.0342
 8932SOL    HW133846   2.274  10.107   6.773  0.0249 -0.0718 -0.3989
 8932SOL    HW233847   2.400  10.071   6.850  1.0058 -0.4581 -2.1315
 8933SOL     OW33848   3.373   0.808   7.971  0.2693  0.0279 -0.3102
 8933SOL    HW133849   3.315   0.753   8.024 -1.4387  1.6900 -0.3642
 8933SOL    HW233850   3.437   0.842   8.033 -1.4247  1.5784  0.6878
 8934SOL     OW33851   2.175   2.298   7.899 -0.3177 -0.5978  0.2214
 8934SOL    HW133852   2.100   2.248   7.866 -0.9193 -0.1608  0.8981
 8934SOL    HW233853   2.242   2.287   7.832 -1.6826  0.7652 -1.4820
 8935SOL     OW33854   1.005   7.963   3.303  0.0965  0.2302 -0.2661
 8935SOL    HW133855   1.057   8.016   3.363  0.8743 -1.0415  0.2180
 8935SOL    HW233856   1.013   8.007   3.219  2.2037 -0.0600 -0.2578
 8936SOL     OW33857  11.936   8.191  10.324  0.2032  0.0860  0.0827
 8936SOL    HW133858  11.900   8.125  10.383 -0.0222  1.6235  1.7415
 8936SOL    HW233859  11.923   8.274  10.370 -0.8997  1.5034 -2.5737
 8937SOL     OW33860   3.039   4.021   2.091  0.1875  0.4916  0.3613
 8937SOL    HW133861   3.064   4.012   2.183  0.5052 -2.1207  0.0831
 8937SOL    HW233862   3.117   3.994   2.042  0.2939  2.5627 -0.7585
 8938SOL     OW33863  11.677  10.255   0.361 -0.4163  0.5133 -0.3340
 8938SOL    HW133864  11.680  10.350   0.351 -1.6502  0.7065  0.7282
 8938SOL    HW233865  11.636  10.224   0.280 -0.8169  0.9892 -0.3239
 8939SOL     OW33866   0.774   5.536   6.826  0.2093  0.5946 -0.2455
 8939SOL    HW133867   0.818   5.534   6.910 -1.0173  0.6245  0.4188
 8939SOL    HW233868   0.788   5.449   6.788 -0.3875  0.1157  0.6093
 8940SOL     OW33869   2.440   9.233  12.343 -0.2752 -0.6109 -0.1952
 8940SOL    HW133870   2.409   9.215  12.431 -0.2442 -0.9439 -0.2518
 8940SOL    HW233871   2.413   9.156  12.292 -2.0089  0.4308 -0.9112
 8941SOL     OW33872   1.909   3.254   3.091 -0.3495 -0.2003  0.3398
 8941SOL    HW133873   1.826   3.248   3.044 -0.5032  0.6447  0.4745
 8941SOL    HW233874   1.936   3.345   3.080  0.7545 -0.5599 -0.0098
 8942SOL     OW33875   4.495   1.717   0.737 -0.1335 -0.4321 -0.0191
 8942SOL    HW133876   4.527   1.627   0.744  0.3937 -0.2586 -0.1721
 8942SOL    HW233877   4.408   1.709   0.699  0.7352 -0.7497 -2.0660
 8943SOL     OW33878   0.705   5.868   3.399 -0.3147  0.0599 -0.0440
 8943SOL    HW133879   0.727   5.955   3.431 -0.8076 -0.4493  1.8419
 8943SOL    HW233880   0.610   5.870   3.386 -0.6610 -0.7190  1.9756
 8944SOL     OW33881   4.268  11.813   4.292 -0.0106  0.6750 -0.1275
 8944SOL    HW133882   4.276  11.728   4.335 -0.0210  1.0086  0.5444
 8944SOL    HW233883   4.340  11.814   4.229  0.6834  0.6100  0.6451
 8945SOL     OW33884   2.193   5.302  10.623 -0.0160 -0.0890 -0.1134
 8945SOL    HW133885   2.205   5.262  10.537 -0.3935 -1.2296  0.3429
 8945SOL    HW233886   2.192   5.228  10.684 -1.0971  0.5877  0.7320
 8946SOL     OW33887   5.185  11.714   6.387 -0.1143 -0.4133  0.1611
 8946SOL    HW133888   5.201  11.625   6.358  0.9011 -0.0406 -0.4723
 8946SOL    HW233889   5.243  11.726   6.462  0.1890 -0.0969 -0.1231
 8947SOL     OW33890   0.208   0.339  11.591  0.4439  0.1176 -0.4662
 8947SOL    HW133891   0.292   0.384  11.582  1.8052 -2.2520 -0.3745
 8947SOL    HW233892   0.198   0.326  11.686 -0.4653  1.0795 -0.4071
 8948SOL     OW33893  10.160   4.837   4.452 -0.1441  0.1640  0.0412
 8948SOL    HW133894  10.172   4.931   4.438 -1.3673  0.0875 -1.8740
 8948SOL    HW233895  10.094   4.812   4.388  1.3144 -2.3132 -0.6168
 8949SOL     OW33896   1.160   5.059   2.371  0.3454  0.3301  0.1904
 8949SOL    HW133897   1.110   5.090   2.446 -0.6509 -0.8219  0.0450
 8949SOL    HW233898   1.201   4.978   2.402  0.3606  0.1273 -0.3451
 8950SOL     OW33899   6.507   3.186   7.993  0.4932  0.1093  0.0053
 8950SOL    HW133900   6.440   3.206   8.059  1.7827 -0.5399  1.6095
 8950SOL    HW233901   6.586   3.229   8.026  1.2093 -0.3339 -1.0815
 8951SOL     OW33902  11.851   1.778   4.067  0.0178  0.0122 -0.5190
 8951SOL    HW133903  11.782   1.804   4.129 -0.5422 -0.5539 -0.8896
 8951SOL    HW233904  11.842   1.841   3.995 -1.6250 -1.3612 -1.6197
 8952SOL     OW33905  10.160  10.710   2.859  0.3095 -0.2502  0.3636
 8952SOL    HW133906  10.168  10.805   2.845 -0.4217 -0.4388 -1.6042
 8952SOL    HW233907  10.094  10.702   2.928 -1.5943  0.6678 -1.2582
 8953SOL     OW33908  11.173   5.866   8.277 -0.5725 -0.3028  0.5766
 8953SOL    HW133909  11.189   5.772   8.272 -2.1853 -0.6083  0.7209
 8953SOL    HW233910  11.166   5.895   8.186  0.5450 -0.1887  0.5135
 8954SOL     OW33911   3.306   0.846   0.866  0.6997 -0.0432 -0.7836
 8954SOL    HW133912   3.248   0.882   0.934  1.6535  0.8964 -0.4368
 8954SOL    HW233913   3.388   0.830   0.911  1.2316  0.2423 -1.6383
 8955SOL     OW33914   6.521   4.837   4.580  0.3841 -0.4701  0.5137
 8955SOL    HW133915   6.469   4.757   4.590  0.2150 -0.2868  1.1923
 8955SOL    HW233916   6.572   4.842   4.662  0.8426 -0.2042  0.2155
 8956SOL     OW33917   5.278   1.582  10.861 -0.2579 -0.4543  0.3421
 8956SOL    HW133918   5.197   1.589  10.810 -0.2848  0.5039  0.4832
 8956SOL    HW233919   5.255   1.526  10.935 -1.1350  0.6607  0.9632
 8957SOL     OW33920  11.488   1.551   7.258 -0.4312  0.3201 -0.0605
 8957SOL    HW133921  11.459   1.640   7.279  0.7939  0.9876 -1.0830
 8957SOL    HW233922  11.491   1.507   7.343 -2.5425  0.7616  0.2904
 8958SOL     OW33923  10.753   6.442   3.466  0.4964 -0.6940  0.2272
 8958SOL    HW133924  10.751   6.504   3.538 -1.2024 -0.4964  0.0561
 8958SOL    HW233925  10.809   6.483   3.400 -0.3214  0.5317  0.2524
 8959SOL     OW33926   0.203   6.582   4.590  0.3353  0.9614 -0.1963
 8959SOL    HW133927   0.176   6.565   4.500 -0.5753 -0.3368  0.3043
 8959SOL    HW233928   0.204   6.678   4.597  0.9144  1.0950 -1.7076
 8960SOL     OW33929   8.931   9.178   3.312  0.1547 -0.1517  0.2101
 8960SOL    HW133930   8.846   9.151   3.276  0.0054  0.3428  0.1822
 8960SOL    HW233931   8.915   9.264   3.349  1.0781  0.8161 -1.5016
 8961SOL     OW33932   7.717  11.809   8.408 -0.5419  0.5060  0.5333
 8961SOL    HW133933   7.718  11.873   8.480 -0.5638  0.0017  0.9889
 8961SOL    HW233934   7.624  11.797   8.388 -0.6838 -0.8669  1.8106
 8962SOL     OW33935  11.613   3.625   1.967 -0.4825 -0.6741  0.2836
 8962SOL    HW133936  11.684   3.677   1.930  1.6834 -2.6337  1.4337
 8962SOL    HW233937  11.616   3.644   2.061 -0.5535 -1.8233  0.5287
 8963SOL     OW33938   7.963   7.244  11.103 -0.8661 -0.1528 -0.3161
 8963SOL    HW133939   7.875   7.206  11.101  0.7952 -4.6316 -2.1191
 8963SOL    HW233940   7.988   7.249  11.011  0.7978  1.1503  0.1612
 8964SOL     OW33941   5.366   7.204  11.966 -0.3123 -0.8970 -0.1579
 8964SOL    HW133942   5.408   7.246  12.041 -2.3110  1.6380 -0.3144
 8964SOL    HW233943   5.415   7.237  11.890 -1.7070  1.1019 -0.2608
 8965SOL     OW33944   2.232   8.759   8.449 -0.2366 -0.2206  0.2962
 8965SOL    HW133945   2.265   8.838   8.405 -0.6307 -0.4139 -0.3616
 8965SOL    HW233946   2.161   8.791   8.506 -1.6340 -0.2988 -1.3233
 8966SOL     OW33947   2.413   4.475   5.702 -0.1233 -0.0206 -0.1556
 8966SOL    HW133948   2.361   4.395   5.706  0.0682 -0.1422 -0.0853
 8966SOL    HW233949   2.363   4.534   5.645 -0.6853  0.1250  0.4815
 8967SOL     OW33950  12.568   0.404  11.445  0.1497 -0.1374 -0.0287
 8967SOL    HW133951  12.640   0.380  11.503 -0.1439  1.5625  1.0921
 8967SOL    HW233952  12.492   0.360  11.482  0.5746 -2.1017 -1.3293
 8968SOL     OW33953   1.236   1.896   5.035  0.4587  0.0660 -0.1879
 8968SOL    HW133954   1.277   1.969   5.081  1.3276  0.4630 -1.5464
 8968SOL    HW233955   1.291   1.881   4.958 -1.0054 -0.4971 -1.1773
 8969SOL     OW33956   2.328  12.478  10.619  0.7166  0.4396  0.9628
 8969SOL    HW133957   2.299  12.388  10.636 -0.1964  0.1548 -1.5740
 8969SOL    HW233958   2.258  12.533  10.653  1.7395  0.3120  3.4390
 8970SOL     OW33959   2.801   1.594   5.699 -0.1179  0.1995 -0.1640
 8970SOL    HW133960   2.860   1.662   5.667 -1.3671  0.9652 -0.9087
 8970SOL    HW233961   2.733   1.641   5.746 -1.0625 -0.5232 -0.7689
 8971SOL     OW33962   9.339  11.988   5.292  0.0976 -0.0836 -0.5467
 8971SOL    HW133963   9.261  12.037   5.266  0.1313 -0.1985 -0.8637
 8971SOL    HW233964   9.375  11.954   5.210  0.2076 -0.4409 -0.3499
 8972SOL     OW33965  12.382   8.067   4.578 -0.0561  0.6904 -0.0072
 8972SOL    HW133966  12.368   8.073   4.672  0.5172  0.7784  0.0736
 8972SOL    HW233967  12.300   8.032   4.544  0.3143 -1.0052  0.7242
 8973SOL     OW33968   4.673   6.246   6.424 -0.6631  0.1463  0.1212
 8973SOL    HW133969   4.707   6.316   6.480 -0.6864 -1.0645  1.7092
 8973SOL    HW233970   4.687   6.166   6.474 -2.9481 -0.7351 -0.5373
 8974SOL     OW33971  11.027   7.836   7.864  0.2230  0.3245 -0.7515
 8974SOL    HW133972  10.990   7.756   7.828  2.1665 -0.3534 -1.3940
 8974SOL    HW233973  11.017   7.901   7.795 -0.7016  0.4659 -0.5014
 8975SOL     OW33974   2.565   8.455   3.235 -0.1386 -0.3633  0.0475
 8975SOL    HW133975   2.584   8.515   3.163 -0.6907 -1.8146 -1.3706
 8975SOL    HW233976   2.623   8.380   3.220 -1.1780 -1.2604  0.3432
 8976SOL     OW33977   3.225  11.018   2.854 -0.1519  0.0411 -0.1195
 8976SOL    HW133978   3.305  11.021   2.803 -1.1264 -0.6376 -1.7781
 8976SOL    HW233979   3.241  11.077   2.927  1.6207  0.3923 -0.7377
 8977SOL     OW33980   6.045  11.286   2.897  0.4413  0.9434 -0.1829
 8977SOL    HW133981   6.041  11.235   2.816 -1.2671 -2.6035  1.8945
 8977SOL    HW233982   5.992  11.364   2.878 -2.1406 -1.0127 -1.7832
 8978SOL     OW33983  11.517   3.915   6.449  0.0811 -0.1233 -0.0063
 8978SOL    HW133984  11.464   3.994   6.457 -1.2866 -0.9265 -0.8458
 8978SOL    HW233985  11.521   3.880   6.537 -0.5545  0.0939  0.1144
 8979SOL     OW33986  12.575  10.627   7.407 -0.5530 -0.0410 -0.0280
 8979SOL    HW133987  12.645  10.601   7.466  0.9338 -1.4501 -2.2819
 8979SOL    HW233988  12.503  10.568   7.427 -0.4653  0.2232  1.0984
 8980SOL     OW33989   9.080   7.154   7.264 -0.4907 -0.2848 -0.2907
 8980SOL    HW133990   9.160   7.170   7.214 -0.6072  0.3872 -0.2672
 8980SOL    HW233991   9.009   7.179   7.205 -0.7546 -1.9641 -0.7387
 8981SOL     OW33992   9.954  11.684   9.364 -0.4001  0.3328  0.7699
 8981SOL    HW133993   9.914  11.655   9.282 -0.4666  1.3000  0.4398
 8981SOL    HW233994   9.964  11.605   9.416 -2.1456 -0.0310  0.5997
 8982SOL     OW33995  10.810   3.155   5.229 -0.4515 -0.3117  0.1134
 8982SOL    HW133996  10.778   3.237   5.191 -0.1652  0.0293  0.5994
 8982SOL    HW233997  10.833   3.178   5.319  1.4493 -0.4667 -0.2950
 8983SOL     OW33998   2.484   5.118   7.908  0.0728 -0.3716 -0.3189
 8983SOL    HW133999   2.463   5.047   7.847  0.3583  0.0462 -0.9200
 8983SOL    HW234000   2.568   5.092   7.947 -0.7775 -1.2971  0.9330
 8984SOL     OW34001  12.224   1.754   7.836  0.2677  0.4850 -0.1573
 8984SOL    HW134002  12.143   1.735   7.788 -0.4336 -1.3025  1.5738
 8984SOL    HW234003  12.203   1.830   7.890 -0.5415 -0.4269  0.8432
 8985SOL     OW34004   7.507   9.624   8.455  0.1874  0.6198 -0.2474
 8985SOL    HW134005   7.486   9.582   8.372  1.1418  0.4767 -0.4271
 8985SOL    HW234006   7.537   9.712   8.431  1.5289  0.2088 -0.1677
 8986SOL     OW34007   9.184   1.198   0.493  0.1619 -0.1511  0.5549
 8986SOL    HW134008   9.211   1.187   0.401 -1.6029 -1.6716  0.1574
 8986SOL    HW234009   9.265   1.221   0.539  1.3715 -0.7745 -1.1498
 8987SOL     OW34010   1.672  12.011   9.339  0.0994  0.3257 -0.5979
 8987SOL    HW134011   1.654  11.984   9.429  0.5317  1.5880 -0.1227
 8987SOL    HW234012   1.585  12.015   9.298 -0.0018 -1.8271 -0.7465
 8988SOL     OW34013   7.793   8.421   7.956  0.0091 -0.0727 -0.5400
 8988SOL    HW134014   7.794   8.442   7.863 -1.0923  0.5592 -0.4172
 8988SOL    HW234015   7.850   8.344   7.963 -1.0979 -1.0640 -1.9468
 8989SOL     OW34016  12.451  10.713   1.239  0.6297  0.6157  0.1924
 8989SOL    HW134017  12.483  10.803   1.245  0.8328  0.6494 -1.1456
 8989SOL    HW234018  12.459  10.679   1.328  2.9123  1.1142  0.2411
 8990SOL     OW34019  10.007   0.344   3.125  0.2840  0.2864 -0.6301
 8990SOL    HW134020  10.002   0.426   3.173  1.1600  0.5181 -0.9220
 8990SOL    HW234021   9.992   0.368   3.034  0.3409  0.0920 -0.6921
 8991SOL     OW34022  12.080   6.194   6.913 -0.2148  0.0239 -0.1507
 8991SOL    HW134023  12.157   6.160   6.958 -1.3844 -2.1749  0.3109
 8991SOL    HW234024  12.113   6.228   6.830  1.3498 -0.0642  0.4102
 8992SOL     OW34025   1.654   2.150   4.267 -0.0818  0.4009 -0.3832
 8992SOL    HW134026   1.716   2.124   4.336 -0.4254  0.6192  0.0163
 8992SOL    HW234027   1.599   2.072   4.254 -0.7686  0.7335  0.4330
 8993SOL     OW34028   9.469   9.265  10.363 -0.0895 -0.2396 -0.4564
 8993SOL    HW134029   9.458   9.269  10.268 -0.2221 -2.7066 -0.5957
 8993SOL    HW234030   9.563   9.259  10.376  0.0044  1.1680 -0.3379
 8994SOL     OW34031  10.699   6.778  11.999  0.0692 -0.3592  0.6710
 8994SOL    HW134032  10.695   6.689  12.031 -0.0086 -0.0045  1.6654
 8994SOL    HW234033  10.667   6.773  11.909 -2.8042 -0.8793  1.6280
 8995SOL     OW34034   3.894  12.422   4.782  0.2121  0.1703  0.1573
 8995SOL    HW134035   3.812  12.462   4.752  0.7523  0.8944 -0.3773
 8995SOL    HW234036   3.920  12.365   4.710  1.0087  1.1817 -0.3918
 8996SOL     OW34037   6.714   9.819   6.266 -0.1573 -0.0151  0.0173
 8996SOL    HW134038   6.634   9.867   6.241  0.7460  0.7530 -1.5787
 8996SOL    HW234039   6.784   9.883   6.255  0.9764 -1.3950 -1.1652
 8997SOL     OW34040   6.625  10.094   0.468  0.0614 -0.5759 -0.0531
 8997SOL    HW134041   6.716  10.070   0.451 -0.5558 -1.7056 -2.1187
 8997SOL    HW234042   6.630  10.178   0.513  2.1482 -1.5267  1.6548
 8998SOL     OW34043   7.653  11.914   1.971 -0.3747 -0.3681 -0.2922
 8998SOL    HW134044   7.592  11.942   1.903 -1.9567 -1.8102  0.4331
 8998SOL    HW234045   7.598  11.902   2.048  1.2514  0.5089  1.0503
 8999SOL     OW34046   4.200   9.728   5.303 -0.0696 -0.0104  0.3519
 8999SOL    HW134047   4.123   9.672   5.295 -0.5982  0.8582 -1.0635
 8999SOL    HW234048   4.223   9.725   5.396 -1.8787 -0.1902  0.8228
 9000SOL     OW34049   1.051   1.381   4.278 -0.2646 -0.2567  0.0504
 9000SOL    HW134050   1.013   1.294   4.287 -1.2206  0.2200  0.7202
 9000SOL    HW234051   0.990   1.429   4.221 -1.2005  0.7799  1.8249
 9001SOL     OW34052   4.487  10.069   9.720 -0.3431  0.4547 -0.1217
 9001SOL    HW134053   4.571  10.039   9.686 -0.1699 -0.4487  1.0558
 9001SOL    HW234054   4.477  10.024   9.803 -3.9942 -3.0607 -2.0907
 9002SOL     OW34055   0.552   1.519   7.578 -0.0454 -0.0945  0.5304
 9002SOL    HW134056   0.601   1.596   7.547  1.5538 -1.4325 -0.4707
 9002SOL    HW234057   0.619   1.465   7.621 -1.0628 -1.0976  0.8847
 9003SOL     OW34058   9.431   6.278   7.895 -0.2346 -0.3265  0.0990
 9003SOL    HW134059   9.497   6.254   7.831 -0.3780 -1.6028  0.3981
 9003SOL    HW234060   9.436   6.209   7.961 -0.9739  0.2685  0.8012
 9004SOL     OW34061  12.437  11.989   5.420  0.0577  0.0793 -0.7782
 9004SOL    HW134062  12.465  12.067   5.467  2.8931 -0.8978 -0.6440
 9004SOL    HW234063  12.403  11.931   5.488 -0.3177  0.5038 -0.6080
 9005SOL     OW34064   4.185   3.926   1.784 -0.3279  0.5757 -0.1404
 9005SOL    HW134065   4.091   3.943   1.778 -0.2433  0.9339 -0.5265
 9005SOL    HW234066   4.192   3.836   1.815 -0.8240 -0.4812 -2.8466
 9006SOL     OW34067  12.000   0.748  10.997  0.5487  0.1616  0.3773
 9006SOL    HW134068  12.076   0.712  10.952 -0.0039 -1.7587  0.9029
 9006SOL    HW234069  11.933   0.756  10.929  0.6893  0.2772  0.2503
 9007SOL     OW34070   6.793  11.938   8.274  0.5312  0.3120  0.3427
 9007SOL    HW134071   6.828  12.018   8.236  0.2013 -0.4297 -1.6563
 9007SOL    HW234072   6.866  11.876   8.274 -0.4223 -1.0702 -3.3471
 9008SOL     OW34073   6.429   2.453   5.670  0.3792 -0.0177 -0.4068
 9008SOL    HW134074   6.361   2.391   5.695 -0.2306  0.6409 -0.4054
 9008SOL    HW234075   6.453   2.498   5.751  0.9002 -0.3195 -0.3868
 9009SOL     OW34076   7.112   6.776   2.218  0.9277 -0.0709  0.6322
 9009SOL    HW134077   7.052   6.851   2.223  0.7799 -0.1488  0.0645
 9009SOL    HW234078   7.157   6.788   2.134  0.6179 -0.8361  0.3556
 9010SOL     OW34079   3.908   1.465   6.274 -0.1076 -0.0566  0.2480
 9010SOL    HW134080   3.826   1.451   6.322  0.3551  0.6256  1.2839
 9010SOL    HW234081   3.936   1.377   6.248 -0.3738 -0.4696  1.2790
 9011SOL     OW34082   6.615   0.141   4.658 -0.0762  0.0238  0.5490
 9011SOL    HW134083   6.523   0.159   4.679  0.1137  0.8363  0.7077
 9011SOL    HW234084   6.641   0.073   4.720 -0.2607  0.5711  1.2325
 9012SOL     OW34085   2.148  12.192   8.738  0.2213  0.1687 -0.1458
 9012SOL    HW134086   2.211  12.191   8.666 -0.8905 -1.7828 -1.1822
 9012SOL    HW234087   2.169  12.114   8.789  1.4275  1.8672  2.1422
 9013SOL     OW34088   3.733  10.650   0.878  0.1319 -0.0471 -0.1930
 9013SOL    HW134089   3.719  10.638   0.784 -3.0174  0.4801  0.1010
 9013SOL    HW234090   3.764  10.564   0.908 -1.0895 -0.9573 -1.3868
 9014SOL     OW34091   0.099   7.213   4.403  0.8095 -0.1956 -0.0604
 9014SOL    HW134092   0.011   7.193   4.435  1.0373 -0.3834  0.4573
 9014SOL    HW234093   0.085   7.248   4.315  0.1091  1.1593  0.5664
 9015SOL     OW34094  10.010   5.164   5.919  0.4705 -0.1370  1.0060
 9015SOL    HW134095  10.080   5.108   5.885 -0.8033 -1.0969 -0.1415
 9015SOL    HW234096   9.972   5.204   5.841 -3.0324 -2.9895  0.9814
 9016SOL     OW34097   4.602   3.722   5.340 -0.2342  0.0624 -0.1080
 9016SOL    HW134098   4.555   3.680   5.268 -1.0662  1.6053 -0.5122
 9016SOL    HW234099   4.669   3.658   5.365 -0.5749 -0.9319 -1.5657
 9017SOL     OW34100   1.855  10.269   7.588 -0.5075 -0.3870 -0.6933
 9017SOL    HW134101   1.806  10.223   7.657  0.1538 -0.0056  0.0460
 9017SOL    HW234102   1.901  10.339   7.634 -1.3866  0.9474 -1.7846
 9018SOL     OW34103   4.327  10.768   4.631  0.8652 -0.0758 -0.0876
 9018SOL    HW134104   4.296  10.700   4.691 -0.9747  1.0391  0.2932
 9018SOL    HW234105   4.292  10.849   4.668  0.7680  0.7833 -1.9874
 9019SOL     OW34106  11.388  10.158   5.075  0.0414  0.1968  0.3097
 9019SOL    HW134107  11.381  10.158   4.980  0.7285  1.0174  0.2383
 9019SOL    HW234108  11.390  10.251   5.099 -3.2905  0.1185  1.4211
 9020SOL     OW34109   9.130   7.077   6.362 -0.2229  0.3923  0.6918
 9020SOL    HW134110   9.060   7.081   6.427  2.1350 -1.2944  3.5972
 9020SOL    HW234111   9.180   7.158   6.375  0.4399 -0.0960  1.2635
 9021SOL     OW34112  10.231   0.655   1.320 -0.2178  0.1095 -0.6017
 9021SOL    HW134113  10.320   0.639   1.287  0.0671 -0.2188  0.2934
 9021SOL    HW234114  10.196   0.722   1.262  0.7701  0.5545 -0.7078
 9022SOL     OW34115  10.495   6.064   5.368 -0.0260  0.3786 -0.3603
 9022SOL    HW134116  10.462   6.054   5.457  0.5104  1.5625 -0.0071
 9022SOL    HW234117  10.522   5.976   5.342 -0.4037 -0.0174  0.5559
 9023SOL     OW34118   3.277   0.544   8.365 -0.6493  0.2525  0.6660
 9023SOL    HW134119   3.216   0.617   8.353 -0.8096  0.2335  1.3313
 9023SOL    HW234120   3.239   0.492   8.436  0.4799  0.5961  1.5477
 9024SOL     OW34121   9.013   8.309   6.890 -0.6236  0.4218  0.1556
 9024SOL    HW134122   8.990   8.327   6.981 -0.9663 -1.5526  0.5198
 9024SOL    HW234123   8.936   8.334   6.840 -1.3698 -0.6663  0.7095
 9025SOL     OW34124   3.185  10.439   4.901 -0.9328 -0.2137 -0.5080
 9025SOL    HW134125   3.141  10.409   4.981 -0.4567  1.3813  0.3934
 9025SOL    HW234126   3.124  10.500   4.861 -0.2815  0.6651 -0.1868
 9026SOL     OW34127  12.076   7.214  10.965  0.7148 -0.3903 -0.3037
 9026SOL    HW134128  12.034   7.204  11.050 -0.7690  1.5178 -0.7511
 9026SOL    HW234129  12.091   7.308  10.956  1.5717 -0.6388 -1.8359
 9027SOL     OW34130   9.359   3.702   7.828 -0.5019  0.1962 -0.1660
 9027SOL    HW134131   9.314   3.721   7.911 -0.5024 -1.3861  0.2231
 9027SOL    HW234132   9.451   3.698   7.852 -0.5470 -0.7972 -0.1176
 9028SOL     OW34133  11.055   9.838   0.273  0.1187  0.2272 -0.5366
 9028SOL    HW134134  10.977   9.891   0.261 -0.4030 -0.5120 -0.5038
 9028SOL    HW234135  11.066   9.833   0.368 -1.5145 -2.0529 -0.3870
 9029SOL     OW34136  11.525   9.277   9.397  0.5507 -0.1839  0.7422
 9029SOL    HW134137  11.605   9.250   9.443  0.4733 -0.5223  0.6788
 9029SOL    HW234138  11.461   9.209   9.418  0.5965 -0.4892 -0.0998
 9030SOL     OW34139   2.414  11.582  12.455 -0.0674  0.4506 -0.0072
 9030SOL    HW134140   2.452  11.652  12.508  0.8476 -0.7328  0.9252
 9030SOL    HW234141   2.320  11.600  12.458  0.0145  0.8071  1.4719
 9031SOL     OW34142   1.542   8.875   8.439 -0.1814  0.8299 -0.1075
 9031SOL    HW134143   1.610   8.867   8.506 -0.2401 -0.5724 -0.1886
 9031SOL    HW234144   1.586   8.920   8.366  0.6124  0.1205 -0.0788
 9032SOL     OW34145  10.280  12.561   3.318  0.0062  0.0409  0.2424
 9032SOL    HW134146  10.287  12.508   3.398 -0.2144  1.0740  0.9666
 9032SOL    HW234147  10.192  12.598   3.321  0.6806  1.7223  0.6051
 9033SOL     OW34148   4.080  10.292   4.562 -0.4392 -0.2243  0.2223
 9033SOL    HW134149   3.988  10.303   4.586 -0.2987  1.5883  0.0764
 9033SOL    HW234150   4.126  10.287   4.646 -0.4643  1.0178  0.3218
 9034SOL     OW34151   4.450   7.750   5.465  0.0229 -0.0928  0.1755
 9034SOL    HW134152   4.360   7.718   5.453 -0.8489  0.8996  3.1198
 9034SOL    HW234153   4.505   7.676   5.440 -1.6122 -0.9548 -1.0668
 9035SOL     OW34154   6.120   0.847   5.732 -0.5043  0.2656  0.8203
 9035SOL    HW134155   6.040   0.799   5.752 -0.6629  1.1366  2.3871
 9035SOL    HW234156   6.190   0.790   5.763 -0.6064  0.3148  1.1440
 9036SOL     OW34157   8.200  10.789   7.274  0.3206 -0.1018 -0.6573
 9036SOL    HW134158   8.109  10.766   7.255  0.7620 -0.3104 -2.7708
 9036SOL    HW234159   8.194  10.874   7.320 -0.9076  0.3724 -1.6363
 9037SOL     OW34160  12.264   6.407   2.448  0.1034 -0.1185 -0.2243
 9037SOL    HW134161  12.296   6.397   2.538  2.0295  0.3986 -0.8030
 9037SOL    HW234162  12.217   6.326   2.429  1.1864 -0.9837  0.6672
 9038SOL     OW34163   0.555   0.993   4.753 -0.0357 -0.3706 -0.6600
 9038SOL    HW134164   0.540   1.087   4.740 -0.0896 -0.2603  0.1915
 9038SOL    HW234165   0.648   0.981   4.735  0.0313 -0.1098 -0.4887
 9039SOL     OW34166  10.785   1.193   1.307 -0.5948  0.2946 -0.0315
 9039SOL    HW134167  10.802   1.283   1.332 -0.3863  0.0681  0.6492
 9039SOL    HW234168  10.871   1.156   1.288 -0.6819  0.2423 -0.3498
 9040SOL     OW34169   7.518   5.279   5.404  0.2517 -0.3852  0.3218
 9040SOL    HW134170   7.451   5.317   5.461 -0.2018 -1.1831  0.3275
 9040SOL    HW234171   7.540   5.196   5.446 -0.7747 -1.4520 -1.1550
 9041SOL     OW34172   7.902   8.179   9.540  0.2673 -0.3805 -0.7178
 9041SOL    HW134173   7.958   8.235   9.594  0.3775 -2.0468  0.9920
 9041SOL    HW234174   7.820   8.173   9.589 -0.8443  0.6560 -2.3616
 9042SOL     OW34175  12.420   4.456   7.961 -0.4973 -0.2546 -0.0082
 9042SOL    HW134176  12.498   4.407   7.935 -0.3975 -0.3208  0.4103
 9042SOL    HW234177  12.453   4.541   7.990 -0.5844 -0.2717  0.1419
 9043SOL     OW34178   5.431   1.945  10.490  0.3527 -0.1201  0.0334
 9043SOL    HW134179   5.443   1.865  10.541 -0.9435 -0.4679 -0.1754
 9043SOL    HW234180   5.518   1.965  10.457  1.0090 -0.4940  1.4844
 9044SOL     OW34181  10.972   9.381   7.046  0.6253  0.1407  0.1857
 9044SOL    HW134182  10.893   9.404   7.095  0.1803  0.6025 -0.7422
 9044SOL    HW234183  11.030   9.456   7.058  0.9653 -0.2302  0.9303
 9045SOL     OW34184   9.754  10.362   4.370  0.1781 -0.0909 -0.5647
 9045SOL    HW134185   9.697  10.305   4.319 -1.0597 -1.3914  2.0645
 9045SOL    HW234186   9.713  10.448   4.364 -0.1859 -0.3034 -1.3580
 9046SOL     OW34187   2.357   3.952   8.563 -0.7596 -0.0824 -0.5279
 9046SOL    HW134188   2.303   3.991   8.631  0.1598 -0.6161  0.5419
 9046SOL    HW234189   2.375   3.863   8.594 -0.5861 -0.4496 -1.6277
 9047SOL     OW34190   2.536   0.003   9.053 -0.7281 -0.5616  0.2466
 9047SOL    HW134191   2.566  -0.041   9.132  0.5595  0.3971  0.3132
 9047SOL    HW234192   2.595   0.078   9.042 -1.4306 -0.1655 -1.1301
 9048SOL     OW34193  10.081  10.449   1.303 -0.2159 -0.2244  0.5494
 9048SOL    HW134194  10.060  10.371   1.355  3.1047  0.2456  2.9086
 9048SOL    HW234195  10.103  10.515   1.368 -0.4592  1.9337 -1.4615
 9049SOL     OW34196  11.211   4.703   5.403  0.0181 -0.1086 -0.0233
 9049SOL    HW134197  11.140   4.703   5.467 -1.1626  0.7699 -1.2645
 9049SOL    HW234198  11.288   4.729   5.453 -0.3816 -1.6404  1.4848
 9050SOL     OW34199   1.871  11.001   9.299  0.5558 -0.2236  0.2004
 9050SOL    HW134200   1.913  11.082   9.325  0.9713 -0.2649 -0.3138
 9050SOL    HW234201   1.904  10.936   9.361  1.0142 -0.1944 -0.0083
 9051SOL     OW34202   2.894   5.780   3.616 -0.1040 -0.2942  0.7557
 9051SOL    HW134203   2.879   5.750   3.526 -0.6064  1.4791  0.2183
 9051SOL    HW234204   2.958   5.718   3.651  0.4875 -0.7294 -0.9924
 9052SOL     OW34205   4.086   6.551   7.737 -0.0215  0.1382 -0.4328
 9052SOL    HW134206   4.041   6.534   7.655  0.9880 -0.3736 -0.8908
 9052SOL    HW234207   4.179   6.557   7.714  0.3753 -0.8535  0.7802
 9053SOL     OW34208   0.047   2.651   3.064  0.1315 -0.7117 -0.0729
 9053SOL    HW134209  -0.023   2.639   3.129 -0.6824 -1.9122 -1.1346
 9053SOL    HW234210   0.128   2.651   3.116 -0.4806 -1.8197  0.9243
 9054SOL     OW34211  11.096   5.529   1.165  0.8030 -0.0704 -0.0186
 9054SOL    HW134212  11.175   5.493   1.204  0.6328  1.0659  1.5014
 9054SOL    HW234213  11.024   5.483   1.208  0.6254  0.3353  0.1317
 9055SOL     OW34214   0.809   4.055   8.674 -0.1252  0.0695  0.2537
 9055SOL    HW134215   0.816   4.123   8.741  0.3545 -0.1707  0.4504
 9055SOL    HW234216   0.761   3.984   8.717  0.4480 -0.2077  0.4484
 9056SOL     OW34217  11.195   9.012   3.536 -0.3059  0.1819  0.4298
 9056SOL    HW134218  11.236   8.927   3.522 -0.9649 -0.2411  0.9907
 9056SOL    HW234219  11.150   9.031   3.454 -2.8908 -1.5708  1.2821
 9057SOL     OW34220   5.733   5.512   0.838 -0.1380 -0.2030 -0.2593
 9057SOL    HW134221   5.785   5.439   0.870 -0.3299 -0.0027  0.5407
 9057SOL    HW234222   5.782   5.590   0.864 -2.0870  0.1315  3.0894
 9058SOL     OW34223   7.189   4.739   1.755 -0.0337  0.2683  0.0121
 9058SOL    HW134224   7.278   4.724   1.722  0.9529 -1.0804  2.9539
 9058SOL    HW234225   7.132   4.697   1.691  1.7540 -2.5389  0.0938
 9059SOL     OW34226   3.769   4.634   6.557 -0.3130  0.1012  0.2678
 9059SOL    HW134227   3.802   4.642   6.467 -1.1500 -0.0560 -0.0559
 9059SOL    HW234228   3.826   4.692   6.608  0.2600  0.0806 -0.3379
 9060SOL     OW34229   3.784  11.099   2.534 -0.2976  0.3228 -0.1457
 9060SOL    HW134230   3.750  11.142   2.613  1.1653  0.6699  0.3190
 9060SOL    HW234231   3.761  11.159   2.463 -2.1725 -0.2807 -0.1149
 9061SOL     OW34232   8.534   4.031   5.117  0.1983 -0.0363 -0.4564
 9061SOL    HW134233   8.546   4.116   5.074 -2.3451  1.8301  2.1293
 9061SOL    HW234234   8.532   4.052   5.210 -0.0144 -3.0638  0.3110
 9062SOL     OW34235   2.867   3.217   3.322  0.5638  0.2330  0.5777
 9062SOL    HW134236   2.932   3.257   3.379  2.8876 -0.4385 -1.3993
 9062SOL    HW234237   2.827   3.148   3.375  3.1221 -0.8478  1.2862
 9063SOL     OW34238  10.760   0.274   5.129  0.2903  0.3368 -0.2509
 9063SOL    HW134239  10.741   0.228   5.048  3.8097  0.1121 -1.0939
 9063SOL    HW234240  10.748   0.208   5.198  1.8090 -0.8800 -1.0962
 9064SOL     OW34241   9.847   8.095   1.447  0.2188  0.3506 -0.0901
 9064SOL    HW134242   9.870   8.110   1.539 -0.5690 -1.2468  0.4050
 9064SOL    HW234243   9.884   8.009   1.427 -0.8140  0.0617 -0.8432
 9065SOL     OW34244   8.637   9.141   6.842  0.0290  0.5768 -0.0006
 9065SOL    HW134245   8.692   9.073   6.802 -0.2636  0.5550 -0.3673
 9065SOL    HW234246   8.655   9.134   6.936  1.8149  1.5839 -0.2296
 9066SOL     OW34247  11.010   1.429   9.676  0.4210 -0.3343  0.5342
 9066SOL    HW134248  10.936   1.487   9.659  1.1002  0.5374  0.4382
 9066SOL    HW234249  11.073   1.450   9.607 -0.0176 -2.4835 -0.5981
 9067SOL     OW34250   8.718  12.232   1.831  0.0700 -0.1119  0.2760
 9067SOL    HW134251   8.688  12.159   1.885  0.5417 -0.4798  0.0461
 9067SOL    HW234252   8.707  12.309   1.887 -2.7031  0.0196 -0.2692
 9068SOL     OW34253   8.909   6.606   4.635 -0.0186  0.2521 -0.6150
 9068SOL    HW134254   8.888   6.611   4.542  0.0177  0.1709 -0.6273
 9068SOL    HW234255   8.917   6.698   4.662 -0.7978  0.2888 -0.5111
 9069SOL     OW34256  12.114   0.134  11.164  0.1672  0.2869  0.4042
 9069SOL    HW134257  12.035   0.111  11.115  0.3457 -0.4905  0.4735
 9069SOL    HW234258  12.103   0.227  11.185 -0.9803  0.0478  0.8954
 9070SOL     OW34259   1.753   1.485   3.558  0.1719  0.1690  0.1390
 9070SOL    HW134260   1.664   1.454   3.573  0.1530 -0.1697 -0.6191
 9070SOL    HW234261   1.755   1.508   3.465  0.2893  2.1534  0.6033
 9071SOL     OW34262   5.088   9.066   1.716  0.0290 -0.5009 -0.6583
 9071SOL    HW134263   5.093   8.984   1.765  1.0804  0.4370  0.9010
 9071SOL    HW234264   5.145   9.053   1.640 -0.0533 -1.3139 -0.5827
 9072SOL     OW34265   1.287   9.250   0.857 -0.1031  0.2041 -0.7634
 9072SOL    HW134266   1.311   9.162   0.830  1.1412  0.1968  0.2776
 9072SOL    HW234267   1.342   9.307   0.804  0.3541  0.2816 -0.2161
 9073SOL     OW34268  12.041  10.361   0.712 -0.1708  0.1337  0.3527
 9073SOL    HW134269  12.092  10.436   0.743 -1.1665  0.6770  0.7230
 9073SOL    HW234270  11.981  10.398   0.648 -0.9583 -0.2746  0.8486
 9074SOL     OW34271   3.409  12.178   5.807 -0.3995 -0.0208  0.8697
 9074SOL    HW134272   3.474  12.155   5.874  0.7959 -0.5609 -0.4200
 9074SOL    HW234273   3.434  12.124   5.732 -2.9368 -0.9696  0.6230
 9075SOL     OW34274   6.592   5.332   4.390 -0.0814 -0.0326 -0.0732
 9075SOL    HW134275   6.575   5.312   4.482 -0.6229 -1.8129 -0.5072
 9075SOL    HW234276   6.591   5.247   4.347 -0.0018  0.7783 -1.7617
 9076SOL     OW34277   5.031  10.617   0.247 -0.2765  0.4296  0.3025
 9076SOL    HW134278   5.103  10.554   0.258  1.1568  1.8960 -0.2543
 9076SOL    HW234279   5.072  10.702   0.259 -1.5981  1.4071 -1.6034
 9077SOL     OW34280   2.077   4.484   9.660 -0.3837  0.1750  0.3208
 9077SOL    HW134281   2.016   4.506   9.589  0.1359 -2.7129 -1.1550
 9077SOL    HW234282   2.020   4.452   9.731 -0.7225 -0.4330 -0.2156
 9078SOL     OW34283   5.629  10.234   4.341 -0.0511  0.0063  0.7175
 9078SOL    HW134284   5.704  10.182   4.371 -0.5266  1.1103  4.3641
 9078SOL    HW234285   5.561  10.217   4.406 -1.9529  1.3931 -0.7844
 9079SOL     OW34286   8.601   3.698   9.787 -0.0359 -0.2853 -0.3459
 9079SOL    HW134287   8.634   3.787   9.799 -1.4340  0.1653  0.3447
 9079SOL    HW234288   8.562   3.699   9.700  2.6210 -1.1457 -1.6700
 9080SOL     OW34289   9.815   2.305   4.757 -0.3377 -0.1481 -0.2543
 9080SOL    HW134290   9.826   2.341   4.845 -0.4035 -2.8681  0.9436
 9080SOL    HW234291   9.756   2.367   4.714 -2.2159  0.0574  2.3938
 9081SOL     OW34292   2.945   8.151   3.485  0.6219 -0.7193 -0.6661
 9081SOL    HW134293   3.026   8.141   3.535 -0.0138 -1.7138  0.2111
 9081SOL    HW234294   2.913   8.238   3.508  0.5994 -0.9654  0.2997
 9082SOL     OW34295  11.146  12.525   2.098  0.0792  0.6066 -0.0265
 9082SOL    HW134296  11.070  12.507   2.042 -0.9067  2.9407  0.4541
 9082SOL    HW234297  11.133  12.470   2.175  0.2615 -0.9409 -1.0696
 9083SOL     OW34298   3.115   3.256  12.581 -0.4343 -0.3978  0.5935
 9083SOL    HW134299   3.021   3.275  12.575 -0.4073  0.1241  1.5947
 9083SOL    HW234300   3.138   3.280  12.671  0.6644 -0.5124  0.3487
 9084SOL     OW34301   6.997   1.850   2.493  0.2972  0.7667  0.2474
 9084SOL    HW134302   6.967   1.762   2.470  0.7941  0.2437  1.5361
 9084SOL    HW234303   6.980   1.858   2.586  0.5964  1.9091  0.2208
 9085SOL     OW34304  10.660   5.197   9.719 -0.1103 -0.7132 -0.5694
 9085SOL    HW134305  10.709   5.237   9.790  0.5210 -3.3911  0.6176
 9085SOL    HW234306  10.569   5.227   9.733 -0.1067 -1.6053  1.7275
 9086SOL     OW34307   6.768   5.553  11.253 -0.2089 -0.1611 -0.1002
 9086SOL    HW134308   6.851   5.599  11.266 -0.0667 -0.9937  2.7180
 9086SOL    HW234309   6.703   5.623  11.245  0.5139  0.5162 -0.1432
 9087SOL     OW34310   4.314   8.798   1.500  0.2764 -0.6641  0.9465
 9087SOL    HW134311   4.389   8.849   1.470 -0.2588 -0.9619 -1.0497
 9087SOL    HW234312   4.239   8.854   1.481 -0.0564 -0.4187  2.8181
 9088SOL     OW34313   8.134   5.995   3.796 -0.3093 -0.0731 -0.4109
 9088SOL    HW134314   8.168   6.026   3.712 -1.3042 -0.7956 -1.0928
 9088SOL    HW234315   8.062   6.055   3.817 -0.9011 -0.6695 -0.7174
 9089SOL     OW34316   3.888   7.011   0.429 -0.1846  0.0894 -0.2447
 9089SOL    HW134317   3.846   7.035   0.346 -0.6689  0.3362  0.0638
 9089SOL    HW234318   3.978   6.988   0.405  0.3004  2.1281 -0.5950
 9090SOL     OW34319  10.818   3.361   3.049  0.0289 -0.6094 -0.0835
 9090SOL    HW134320  10.836   3.438   2.996 -0.1507 -1.9347 -2.2104
 9090SOL    HW234321  10.877   3.294   3.015  0.2514 -1.4000  1.7713
 9091SOL     OW34322   4.463   0.131   4.343 -0.1771  0.1614  0.5720
 9091SOL    HW134323   4.438   0.200   4.281 -1.1332  0.4960  1.3082
 9091SOL    HW234324   4.515   0.070   4.290 -0.6864  0.6072 -0.4820
 9092SOL     OW34325   9.740   5.500   8.409  0.4261 -0.3489 -0.5891
 9092SOL    HW134326   9.779   5.460   8.487 -1.1932 -0.1162  0.3916
 9092SOL    HW234327   9.763   5.593   8.416  0.0978 -0.2898 -0.2551
 9093SOL     OW34328  10.070   7.184   5.865 -0.3769  0.0154  0.0947
 9093SOL    HW134329  10.044   7.096   5.836  1.0396 -0.1374 -0.8221
 9093SOL    HW234330  10.115   7.170   5.948  0.7902 -0.2830 -0.5665
 9094SOL     OW34331  11.746  10.042   1.494  0.0312  0.7516  0.0349
 9094SOL    HW134332  11.822   9.989   1.517 -0.1358  1.1287  1.5481
 9094SOL    HW234333  11.733  10.026   1.400  1.0085 -0.5419  0.0960
 9095SOL     OW34334   6.018   3.378   8.714  0.5712 -0.5429 -0.1516
 9095SOL    HW134335   6.037   3.289   8.685 -1.4718 -1.4106  0.9311
 9095SOL    HW234336   6.030   3.375   8.809  0.2800  0.2685 -0.0810
 9096SOL     OW34337   9.007   1.357  11.410 -0.0951  0.3538 -0.6348
 9096SOL    HW134338   8.953   1.435  11.400 -2.0328 -0.7122  0.8442
 9096SOL    HW234339   8.975   1.296  11.344  0.4505  0.3000 -0.8565
 9097SOL     OW34340   7.868   9.948  11.429  0.1345  0.1486  0.5827
 9097SOL    HW134341   7.877   9.855  11.407 -1.4632  0.2027 -0.5193
 9097SOL    HW234342   7.928   9.993  11.370 -0.4460 -0.0873 -0.2235
 9098SOL     OW34343   6.558  10.723   4.164 -0.1297 -0.1813 -0.2268
 9098SOL    HW134344   6.619  10.696   4.094 -0.5594 -0.2540 -0.5752
 9098SOL    HW234345   6.518  10.803   4.129 -1.5106 -1.0669 -0.7538
 9099SOL     OW34346   6.300   2.761  10.652  0.2428  0.0193  0.4466
 9099SOL    HW134347   6.374   2.703  10.634  0.1138 -0.2483  0.7533
 9099SOL    HW234348   6.339   2.849  10.655  0.5350 -0.1078  0.5104
 9100SOL     OW34349  11.124   9.660   1.283 -0.2022 -0.2567 -0.8081
 9100SOL    HW134350  11.172   9.677   1.202 -1.2492  1.4354 -1.1423
 9100SOL    HW234351  11.079   9.577   1.268  1.3212 -1.0585 -1.0965
 9101SOL     OW34352   7.446   2.412  10.030  0.3303  0.2814 -0.2938
 9101SOL    HW134353   7.442   2.318  10.047  2.0748  0.0696 -0.8567
 9101SOL    HW234354   7.430   2.420   9.936  0.7685  0.4840 -0.3548
 9102SOL     OW34355   9.808   2.097   7.285  0.3127  0.2475 -0.1848
 9102SOL    HW134356   9.776   2.112   7.196  1.8006 -0.9510 -0.9677
 9102SOL    HW234357   9.829   2.185   7.317  1.3318  0.5869 -1.6629
 9103SOL     OW34358  11.449   6.049   9.902 -0.1547 -0.0309  0.0633
 9103SOL    HW134359  11.428   5.983   9.836 -0.1287 -1.0570  1.0410
 9103SOL    HW234360  11.442   6.002   9.985 -0.2693  1.2481  0.7992
 9104SOL     OW34361  11.014   9.493  11.756 -0.4847  0.1024 -0.3844
 9104SOL    HW134362  11.062   9.538  11.826 -2.0412  1.2398 -0.0039
 9104SOL    HW234363  11.083   9.452  11.703  0.8021  0.2469  1.0893
 9105SOL     OW34364   0.224   0.906   7.837 -0.1272  0.2494  0.1790
 9105SOL    HW134365   0.310   0.943   7.855 -0.0189  1.2692 -2.1009
 9105SOL    HW234366   0.217   0.831   7.896  1.5281  1.2297  1.7045
 9106SOL     OW34367   2.491  11.168   6.099 -0.1011 -0.5965 -0.7054
 9106SOL    HW134368   2.581  11.138   6.089 -0.0692 -0.4285 -0.9323
 9106SOL    HW234369   2.438  11.100   6.058 -0.0625 -0.5880 -0.7695
 9107SOL     OW34370   8.882   2.928   1.464 -0.5976  0.0726  0.0644
 9107SOL    HW134371   8.945   2.985   1.508 -0.6846  0.6436 -0.5428
 9107SOL    HW234372   8.935   2.859   1.426 -0.3490  0.4801 -0.3358
 9108SOL     OW34373   6.392   6.500   1.485  0.7245  0.3848 -0.3626
 9108SOL    HW134374   6.383   6.405   1.492  1.3918  0.2701 -0.9442
 9108SOL    HW234375   6.409   6.528   1.575  1.0676 -0.1154 -0.2620
 9109SOL     OW34376   7.086  12.492  12.361  0.0268  0.5661 -0.0232
 9109SOL    HW134377   7.104  12.428  12.292 -0.7393 -0.6791  0.8963
 9109SOL    HW234378   7.032  12.445  12.424  0.9317  1.5711  1.5766
 9110SOL     OW34379   6.366  11.646   5.229  0.0938 -0.2750  0.3932
 9110SOL    HW134380   6.394  11.689   5.310 -0.8177 -0.2402  0.7086
 9110SOL    HW234381   6.301  11.707   5.192 -1.7507 -1.6608  1.2069
 9111SOL     OW34382   5.808   7.102   5.684  0.0263  0.0726  0.1465
 9111SOL    HW134383   5.846   7.103   5.772  1.5910 -2.6268 -0.3813
 9111SOL    HW234384   5.850   7.175   5.639  1.1872 -0.0942  0.9167
 9112SOL     OW34385   2.050  10.782   6.572  0.4750  0.5599  0.0066
 9112SOL    HW134386   2.085  10.870   6.561 -1.0360  1.5578  2.4163
 9112SOL    HW234387   1.959  10.787   6.543  0.6510 -0.4969 -0.7950
 9113SOL     OW34388   8.119   6.401   6.307  0.2924 -0.2788 -0.0356
 9113SOL    HW134389   8.049   6.440   6.254 -0.6919  0.2373  1.5658
 9113SOL    HW234390   8.151   6.327   6.255  1.8395  2.2084 -2.9561
 9114SOL     OW34391   5.811  10.111  10.509  0.3840  0.0284  0.1943
 9114SOL    HW134392   5.872  10.041  10.487  0.1003 -0.3823  0.6925
 9114SOL    HW234393   5.860  10.169  10.567  0.7668  0.4957 -0.5851
 9115SOL     OW34394  11.197  10.950  11.989  0.2090  0.2750  0.2533
 9115SOL    HW134395  11.242  10.866  11.978  1.1621  0.9242 -1.1089
 9115SOL    HW234396  11.254  11.014  11.946 -1.0643  1.4502  0.2312
 9116SOL     OW34397   5.032   0.199   0.728 -0.3848  0.6375 -0.1959
 9116SOL    HW134398   4.969   0.196   0.657 -0.2701  0.1607 -0.2792
 9116SOL    HW234399   4.997   0.265   0.789 -1.9478 -0.9183  0.6740
 9117SOL     OW34400  11.176   2.114   6.186  0.6008 -0.3123  0.2571
 9117SOL    HW134401  11.086   2.081   6.179  0.4080  0.1065  0.6431
 9117SOL    HW234402  11.170   2.182   6.253  1.2148 -0.3014  0.3006
 9118SOL     OW34403  10.280   9.212   9.799  0.3312 -0.3211 -0.6140
 9118SOL    HW134404  10.330   9.292   9.780 -0.9360  0.2223 -1.9048
 9118SOL    HW234405  10.248   9.224   9.889 -0.3262  0.9234 -0.9898
 9119SOL     OW34406  11.417   3.872  11.369 -0.1966  0.4692 -0.2903
 9119SOL    HW134407  11.330   3.906  11.391 -0.8306 -0.3342 -1.4729
 9119SOL    HW234408  11.417   3.783  11.404 -0.7586 -0.3795 -2.3194
 9120SOL     OW34409   8.599   2.246   0.827  0.9097 -0.1970 -0.3084
 9120SOL    HW134410   8.613   2.155   0.853  1.1210 -0.0234  0.1983
 9120SOL    HW234411   8.504   2.255   0.819  0.9206 -0.6470 -1.0587
 9121SOL     OW34412   1.743   4.961   5.322  0.7426  0.0413  0.0005
 9121SOL    HW134413   1.728   5.041   5.372  1.9735  0.9085 -0.9631
 9121SOL    HW234414   1.657   4.938   5.287  0.7332  2.2574 -1.5931
 9122SOL     OW34415   7.754   0.362   1.461 -0.4054 -0.2895 -0.2222
 9122SOL    HW134416   7.711   0.277   1.467  0.7367 -0.9098 -0.5522
 9122SOL    HW234417   7.837   0.345   1.417  0.5129  0.7309  1.0028
 9123SOL     OW34418   6.418   5.483  10.709  0.0377  0.0819 -0.4256
 9123SOL    HW134419   6.414   5.388  10.725 -2.1972  0.2792  0.5557
 9123SOL    HW234420   6.504   5.497  10.669  1.6023 -1.9662  1.9253
 9124SOL     OW34421   0.498   9.889   7.385  1.3885  0.0413  0.7852
 9124SOL    HW134422   0.568   9.919   7.327  0.9226 -0.0570  0.1670
 9124SOL    HW234423   0.521   9.798   7.404  0.8676 -0.3264 -0.2853
 9125SOL     OW34424  11.532   1.311  10.902 -0.6391  1.0115  0.1476
 9125SOL    HW134425  11.539   1.223  10.863  0.4569  1.0417  0.2425
 9125SOL    HW234426  11.601   1.313  10.969 -2.9713  0.6381  2.7904
 9126SOL     OW34427   3.160   9.565   0.256 -0.1629 -0.4476  0.0901
 9126SOL    HW134428   3.178   9.523   0.172  0.7945 -0.0812  0.0904
 9126SOL    HW234429   3.065   9.578   0.257 -0.4278 -2.1274 -0.1140
 9127SOL     OW34430  10.704   7.471   3.412  0.1228  0.0579 -0.1285
 9127SOL    HW134431  10.611   7.495   3.411  0.1455  0.8417  3.3023
 9127SOL    HW234432  10.744   7.530   3.349 -1.4974  0.7891 -0.5441
 9128SOL     OW34433  11.882   5.892   7.531  0.2852  0.6126  0.1532
 9128SOL    HW134434  11.794   5.868   7.505  0.8065 -1.8593  0.4532
 9128SOL    HW234435  11.939   5.850   7.467  1.2903  3.5331 -1.0421
 9129SOL     OW34436   7.774   1.035  12.553 -0.8410  0.0965 -0.2087
 9129SOL    HW134437   7.730   0.958  12.515 -2.2219 -0.5437  2.4751
 9129SOL    HW234438   7.825   1.000  12.626 -0.7126  1.6179  0.4693
 9130SOL     OW34439   0.388   8.833  11.117 -0.7426  0.5125  0.0573
 9130SOL    HW134440   0.409   8.909  11.063  0.2776  1.3704  1.5656
 9130SOL    HW234441   0.370   8.870  11.204 -0.1941 -0.9521  0.8332
 9131SOL     OW34442   2.091   2.426   9.445 -0.1029 -0.0812 -0.3481
 9131SOL    HW134443   2.006   2.444   9.485  0.6463  0.1894  1.1833
 9131SOL    HW234444   2.105   2.332   9.458 -1.4193 -0.7881 -3.2101
 9132SOL     OW34445   9.066  11.441   8.135 -0.6612  0.2258 -0.4415
 9132SOL    HW134446   9.071  11.356   8.179  0.1899  0.7603  0.5457
 9132SOL    HW234447   8.995  11.487   8.180 -0.3147  0.4786 -0.1430
 9133SOL     OW34448   6.666   5.073   7.283 -0.0063 -0.0322  0.4191
 9133SOL    HW134449   6.682   5.155   7.329  0.4389 -0.4484  1.0198
 9133SOL    HW234450   6.752   5.047   7.250 -0.2378  0.0093 -0.2254
 9134SOL     OW34451   2.294   0.976   4.506 -0.0057 -0.5261  0.6122
 9134SOL    HW134452   2.209   1.014   4.483  0.2092  0.3371  1.2060
 9134SOL    HW234453   2.278   0.931   4.589 -0.1835 -1.4968  0.0704
 9135SOL     OW34454  11.635   4.400   4.244 -0.4605 -0.2873 -0.8616
 9135SOL    HW134455  11.700   4.391   4.314  0.9132  1.7871 -1.7600
 9135SOL    HW234456  11.552   4.414   4.289  0.5408  1.8959  0.4156
 9136SOL     OW34457   4.487   3.561   1.621  0.0988  0.1223 -0.0364
 9136SOL    HW134458   4.458   3.647   1.589  0.1715 -0.0391 -0.5501
 9136SOL    HW234459   4.429   3.542   1.695  1.3001  1.4585  1.2988
 9137SOL     OW34460   2.545   8.165   6.612 -0.2408  0.2940 -0.2141
 9137SOL    HW134461   2.468   8.215   6.583 -0.3461 -0.2776 -0.9431
 9137SOL    HW234462   2.513   8.114   6.686 -0.6630 -0.1842 -0.7161
 9138SOL     OW34463   6.299   3.109   3.062  0.4744  0.0534  0.1089
 9138SOL    HW134464   6.310   3.038   2.998  1.5851  0.4611 -0.1665
 9138SOL    HW234465   6.384   3.153   3.065 -0.0387  1.0483  0.6721
 9139SOL     OW34466  11.425   1.755   9.325  0.3137 -0.4551 -0.2815
 9139SOL    HW134467  11.405   1.696   9.252  2.5573 -0.2377 -1.1360
 9139SOL    HW234468  11.386   1.839   9.300  1.3830 -0.2760 -1.4605
 9140SOL     OW34469   7.361   3.565   3.027 -0.1647 -1.0448  0.2075
 9140SOL    HW134470   7.410   3.583   2.946 -0.2396  1.2084  0.5748
 9140SOL    HW234471   7.269   3.576   3.002 -0.2620 -1.6181  0.3196
 9141SOL     OW34472   9.587   8.717   1.075 -0.5337 -0.7189 -0.5354
 9141SOL    HW134473   9.507   8.682   1.115 -0.6656 -1.0394 -1.0726
 9141SOL    HW234474   9.569   8.715   0.981 -0.4704  0.6227 -0.5924
 9142SOL     OW34475   7.388  11.084  12.308 -0.2608 -0.0198 -0.5192
 9142SOL    HW134476   7.344  11.122  12.232 -1.9616 -1.7699 -0.4952
 9142SOL    HW234477   7.322  11.088  12.378  1.6546  2.7070  1.3497
 9143SOL     OW34478  11.465  10.716   7.369 -0.3666 -0.0514 -0.1269
 9143SOL    HW134479  11.401  10.785   7.350 -2.0147 -0.9477  1.7358
 9143SOL    HW234480  11.467  10.662   7.290 -1.4973  0.3427 -0.4498
 9144SOL     OW34481   1.845   1.455  11.891 -0.5294  0.3408  0.0959
 9144SOL    HW134482   1.923   1.449  11.947 -0.6490 -2.2627  0.1155
 9144SOL    HW234483   1.773   1.472  11.952 -0.5799 -1.9207  0.7815
 9145SOL     OW34484  10.388   0.132   3.764  0.1147 -0.0306  0.1535
 9145SOL    HW134485  10.328   0.058   3.777 -1.8881  1.3849 -0.6028
 9145SOL    HW234486  10.405   0.165   3.853  0.6409 -1.0791  0.4577
 9146SOL     OW34487   1.260   4.712   3.447  0.0530 -0.2469 -0.5434
 9146SOL    HW134488   1.219   4.748   3.526 -1.4005 -2.2334 -0.3108
 9146SOL    HW234489   1.329   4.655   3.481  0.1435 -0.2691 -0.7669
 9147SOL     OW34490   6.185  12.494   6.284 -0.2301 -0.2006  0.2282
 9147SOL    HW134491   6.280  12.505   6.291 -0.0603 -0.6471 -1.1191
 9147SOL    HW234492   6.150  12.541   6.360  0.8516  3.2188 -1.1820
 9148SOL     OW34493   2.907   2.358   2.535 -0.1458  0.6821  0.2110
 9148SOL    HW134494   2.835   2.322   2.484  0.4388  1.5056 -1.2476
 9148SOL    HW234495   2.870   2.370   2.623 -1.4186  0.0097 -0.1994
 9149SOL     OW34496   2.029  12.143  11.641 -0.4297 -0.6234 -0.1346
 9149SOL    HW134497   1.956  12.127  11.582 -1.7759 -0.1289  1.3326
 9149SOL    HW234498   2.102  12.167  11.584 -1.6869 -0.1330 -1.5822
 9150SOL     OW34499   2.126   7.300  10.057 -0.1642 -0.0439 -0.7891
 9150SOL    HW134500   2.101   7.209  10.041 -0.3058 -0.3982  1.1315
 9150SOL    HW234501   2.044   7.348  10.055 -0.4068 -0.3669  0.4595
 9151SOL     OW34502   1.298   5.658   6.801  0.1465 -0.1779 -0.4369
 9151SOL    HW134503   1.347   5.741   6.806 -0.0266  0.0228 -1.7005
 9151SOL    HW234504   1.221   5.672   6.856 -0.1130  0.6847 -0.9867
 9152SOL     OW34505  11.994   3.204  11.702 -0.3763  0.3006 -0.2490
 9152SOL    HW134506  11.902   3.181  11.717 -0.6130  0.5594 -1.2354
 9152SOL    HW234507  12.006   3.287  11.748 -0.2689 -0.3671  0.9776
 9153SOL     OW34508   6.616  11.735   8.174  0.1463 -0.1797 -0.4496
 9153SOL    HW134509   6.649  11.809   8.225 -0.5209 -0.0392 -0.2096
 9153SOL    HW234510   6.679  11.665   8.189  1.0080  0.4600 -0.9984
 9154SOL     OW34511   7.177   1.390   6.784 -0.2254  0.0329 -0.2000
 9154SOL    HW134512   7.137   1.477   6.784  0.3448  0.3142  0.8639
 9154SOL    HW234513   7.109   1.332   6.750 -1.4297  0.5415  1.2531
 9155SOL     OW34514   6.482   8.834   1.156 -0.1466 -0.3701 -0.4338
 9155SOL    HW134515   6.454   8.878   1.076 -1.1406 -0.2098 -0.0172
 9155SOL    HW234516   6.532   8.900   1.204 -1.8748  0.4583  0.3218
 9156SOL     OW34517   4.239   2.428   5.088  0.4744 -0.1904  0.0305
 9156SOL    HW134518   4.251   2.414   4.995  0.1695 -2.0039  0.2215
 9156SOL    HW234519   4.147   2.404   5.104  0.7443 -0.6903  0.9090
 9157SOL     OW34520   5.352   2.730   1.884  0.0406 -0.3764 -0.3989
 9157SOL    HW134521   5.310   2.681   1.813 -0.4858 -2.3948  1.2405
 9157SOL    HW234522   5.446   2.715   1.871 -0.0154 -0.3099 -0.9270
 9158SOL     OW34523   7.043   7.399   9.968  0.3880 -0.2514 -0.1859
 9158SOL    HW134524   7.058   7.308   9.996 -0.8243 -0.4794 -0.2229
 9158SOL    HW234525   6.968   7.428  10.020 -0.1985  0.2129 -1.2607
 9159SOL     OW34526   2.006   5.695   8.321  0.7260 -0.4534  0.0745
 9159SOL    HW134527   1.987   5.647   8.240 -0.5363 -0.1862  0.1990
 9159SOL    HW234528   1.931   5.752   8.334  1.6332  0.6538  0.6155
 9160SOL     OW34529   9.227  10.188   7.636  0.2747  0.4985  0.3797
 9160SOL    HW134530   9.192  10.253   7.697 -0.2270  0.6840 -0.0948
 9160SOL    HW234531   9.259  10.117   7.692  0.0298  0.7679  0.8669
 9161SOL     OW34532   8.869  10.765   0.287  0.1571 -0.1538 -0.0344
 9161SOL    HW134533   8.808  10.731   0.351  0.4887  0.8408  0.8429
 9161SOL    HW234534   8.815  10.793   0.213 -0.5148  1.0997  0.8986
 9162SOL     OW34535  12.132   3.721   4.209  0.1808 -0.4055  0.5242
 9162SOL    HW134536  12.050   3.681   4.178 -0.5065  0.3385  1.3208
 9162SOL    HW234537  12.123   3.723   4.304  1.7120 -1.5108  0.7168
 9163SOL     OW34538   8.534  10.132   2.940  0.1595 -0.4835 -0.3808
 9163SOL    HW134539   8.615  10.175   2.965  0.5272 -0.9111 -0.8018
 9163SOL    HW234540   8.465  10.180   2.986  0.7512 -0.8997  1.0051
 9164SOL     OW34541   0.759   3.064   5.372  0.1722  0.3025 -0.1957
 9164SOL    HW134542   0.813   3.038   5.298 -0.5278 -0.2987 -0.5078
 9164SOL    HW234543   0.735   3.154   5.354  0.5367  0.3636 -0.3783
 9165SOL     OW34544  11.873   6.284   5.905 -0.4068  0.1251 -0.1738
 9165SOL    HW134545  11.966   6.302   5.918 -0.2642 -1.3950  1.2384
 9165SOL    HW234546  11.836   6.367   5.876  1.2396  0.9608  0.0053
 9166SOL     OW34547   6.246  11.955   4.805 -0.4725  0.1480 -0.0477
 9166SOL    HW134548   6.322  11.897   4.806 -0.0896  0.6095 -0.9661
 9166SOL    HW234549   6.196  11.926   4.728 -1.0633  0.0648  0.3596
 9167SOL     OW34550   7.082   6.413   9.792  0.2055 -0.1012  0.0267
 9167SOL    HW134551   7.047   6.496   9.822 -2.2968 -1.1276  0.1653
 9167SOL    HW234552   7.086   6.422   9.697 -0.9322 -0.1065 -0.0349
 9168SOL     OW34553   9.796   3.377  10.976  0.5384  0.3152 -0.2152
 9168SOL    HW134554   9.758   3.407  10.893  0.5917  0.7320 -0.0891
 9168SOL    HW234555   9.821   3.457  11.022 -0.0389  0.1126  0.4728
 9169SOL     OW34556   1.895   2.939   2.512  0.4629  0.1369  0.4243
 9169SOL    HW134557   1.879   2.854   2.472  1.6557  0.9193 -1.8831
 9169SOL    HW234558   1.821   2.993   2.483 -0.8075 -0.2669  2.6577
 9170SOL     OW34559  11.541   9.572   7.801 -0.2308 -0.1234 -0.3097
 9170SOL    HW134560  11.502   9.639   7.857  2.9185  1.9937 -0.4257
 9170SOL    HW234561  11.587   9.514   7.862  1.1951  0.7851 -0.4884
 9171SOL     OW34562   9.654   7.287   5.155  0.1843 -0.0180  0.2777
 9171SOL    HW134563   9.683   7.322   5.239  2.2282  1.2991 -0.9017
 9171SOL    HW234564   9.564   7.257   5.171  0.3455  0.6665  2.7742
 9172SOL     OW34565   0.609   6.484  10.070  0.3634 -0.0270 -0.0601
 9172SOL    HW134566   0.596   6.571  10.108 -1.9721  0.4777 -1.7629
 9172SOL    HW234567   0.559   6.425  10.126 -0.2355  0.1702 -0.3775
 9173SOL     OW34568   4.446   4.840   6.250 -0.1970 -0.4127 -0.4309
 9173SOL    HW134569   4.512   4.774   6.230 -0.3167 -0.4315 -0.7721
 9173SOL    HW234570   4.365   4.789   6.261  0.0264 -0.5100  1.0175
 9174SOL     OW34571   0.190   9.444   6.484  0.0752  0.2862 -0.4258
 9174SOL    HW134572   0.270   9.496   6.494  0.0817  0.1907  0.0311
 9174SOL    HW234573   0.166   9.455   6.392  1.4044 -0.8229 -0.9495
 9175SOL     OW34574   0.470   4.474  10.359 -0.0044 -0.2627  0.1889
 9175SOL    HW134575   0.449   4.510  10.445  0.3412 -0.7836  0.4950
 9175SOL    HW234576   0.558   4.440  10.368  0.0611 -0.2595 -0.3972
 9176SOL     OW34577   0.170   8.399   5.108  0.1017 -0.4400  0.3624
 9176SOL    HW134578   0.202   8.348   5.182 -0.3889 -0.0814  0.8335
 9176SOL    HW234579   0.149   8.335   5.040 -0.3272 -0.8454  0.8761
 9177SOL     OW34580   6.279   5.762  11.362  0.5516 -0.2589 -0.4040
 9177SOL    HW134581   6.276   5.682  11.416 -2.4870 -0.3479 -0.5424
 9177SOL    HW234582   6.321   5.734  11.281  0.4248 -1.4702 -0.0822
 9178SOL     OW34583   0.129   6.486   0.060 -0.1222 -1.0110 -0.6068
 9178SOL    HW134584   0.160   6.573   0.083 -0.9032 -1.0553  0.7307
 9178SOL    HW234585   0.150   6.476  -0.033  0.7898  0.2356 -0.5506
 9179SOL     OW34586   3.628   0.186   2.581 -0.5384 -0.2198 -0.1918
 9179SOL    HW134587   3.689   0.226   2.642  0.2131  1.9546 -2.2328
 9179SOL    HW234588   3.653   0.093   2.580  2.6783  0.5412 -0.8060
 9180SOL     OW34589   8.683   1.925   4.345  0.2360  0.7271 -0.1160
 9180SOL    HW134590   8.701   1.968   4.429  1.1470  2.3645 -1.0885
 9180SOL    HW234591   8.602   1.965   4.314 -0.5240 -0.4364  0.3122
 9181SOL     OW34592   4.057   8.961   8.609  0.0265 -0.0423 -0.2987
 9181SOL    HW134593   3.995   8.988   8.541  1.5771  0.7625 -1.4295
 9181SOL    HW234594   4.036   8.869   8.624 -0.2947 -0.2766 -1.9467
 9182SOL     OW34595  10.815   8.961   5.265  0.5194 -0.2822  0.9797
 9182SOL    HW134596  10.897   8.918   5.241  0.0415 -0.1524 -1.0749
 9182SOL    HW234597  10.840   9.049   5.293  1.0739 -0.1120 -0.0138
 9183SOL     OW34598   5.619   2.983   5.466 -0.1931  0.2193  0.0314
 9183SOL    HW134599   5.690   3.033   5.426 -1.0029  0.2821 -1.3835
 9183SOL    HW234600   5.663   2.925   5.528  1.0880  0.3331 -0.7303
 9184SOL     OW34601   2.879   3.978   1.618 -0.1156 -0.4623 -0.0230
 9184SOL    HW134602   2.919   3.901   1.659  2.4460  0.0598 -1.3931
 9184SOL    HW234603   2.906   3.974   1.527 -0.3848  1.7677 -0.2586
 9185SOL     OW34604   5.236   3.843   6.980 -0.0146  0.1667  0.1033
 9185SOL    HW134605   5.195   3.757   6.991 -2.2852  1.2369  0.6306
 9185SOL    HW234606   5.211   3.870   6.891  0.5854  0.3426 -0.0166
 9186SOL     OW34607   7.526  10.933   9.294  0.0532 -0.1750  0.6796
 9186SOL    HW134608   7.557  10.842   9.286 -2.4261 -1.0611  0.0246
 9186SOL    HW234609   7.575  10.968   9.368  0.4944 -2.3514  1.5145
 9187SOL     OW34610   4.593  10.635   4.719 -0.2183  0.3934  0.0915
 9187SOL    HW134611   4.503  10.630   4.687 -0.3544  0.4249  0.4707
 9187SOL    HW234612   4.616  10.544   4.741 -0.6815  0.5811  1.4273
 9188SOL     OW34613  10.756  11.056   7.926 -0.0949 -0.4190  0.6717
 9188SOL    HW134614  10.847  11.068   7.951  0.0082 -2.2246  1.3787
 9188SOL    HW234615  10.754  10.968   7.887 -1.0338  0.6822 -1.9615
 9189SOL     OW34616   6.186   8.353   9.745 -0.1480  0.0374  0.3844
 9189SOL    HW134617   6.141   8.386   9.667 -0.0039  0.2205  0.3796
 9189SOL    HW234618   6.135   8.387   9.818 -0.3852 -0.2802  0.3678
 9190SOL     OW34619   1.880   6.489  11.235 -0.0293 -0.5683  0.4734
 9190SOL    HW134620   1.829   6.416  11.269 -0.2912 -1.0100 -0.8242
 9190SOL    HW234621   1.816   6.559  11.221 -0.1425 -0.8132 -0.2798
 9191SOL     OW34622   5.050   5.800   4.101  0.6666  0.3868  0.0364
 9191SOL    HW134623   5.053   5.883   4.052  0.0743  0.3043 -0.1469
 9191SOL    HW234624   4.974   5.808   4.158 -0.5597 -0.7930 -1.3730
 9192SOL     OW34625   0.557   7.725  11.477  0.3141  0.5322 -0.0639
 9192SOL    HW134626   0.624   7.741  11.543  1.2842  1.1439 -1.1741
 9192SOL    HW234627   0.566   7.798  11.415  0.2480 -0.6678 -1.5450
 9193SOL     OW34628   0.475   5.047   2.028 -0.4650 -0.2547  0.0850
 9193SOL    HW134629   0.558   5.047   2.076 -0.6816 -0.0662  0.4639
 9193SOL    HW234630   0.414   5.000   2.085 -0.6562 -0.2643 -0.1261
 9194SOL     OW34631  10.944   7.489  12.128 -0.1538 -0.4583 -0.0212
 9194SOL    HW134632  11.006   7.417  12.118  1.1814  0.4920  0.9250
 9194SOL    HW234633  10.942   7.506  12.223  0.1459  1.1949 -0.2782
 9195SOL     OW34634   0.324   8.560   1.918  0.2728  0.6827 -0.1209
 9195SOL    HW134635   0.377   8.620   1.970 -0.7276  2.2977 -0.8780
 9195SOL    HW234636   0.255   8.531   1.977  1.5927 -0.9815  0.6975
 9196SOL     OW34637  10.268   7.585   9.476  0.1163 -0.2776  0.3146
 9196SOL    HW134638  10.343   7.530   9.453  0.2851  0.5397 -1.1666
 9196SOL    HW234639  10.192   7.535   9.445  0.3809  1.1801 -3.0221
 9197SOL     OW34640  10.242   6.373   2.011  0.1273  0.2990 -0.4859
 9197SOL    HW134641  10.316   6.314   2.021  0.8842  1.3365  0.2968
 9197SOL    HW234642  10.169   6.328   2.054  1.2943  0.9593  2.4430
 9198SOL     OW34643   9.392   2.359   0.287  0.2851  0.2245  0.4733
 9198SOL    HW134644   9.468   2.340   0.342 -0.0220  0.4170  0.9701
 9198SOL    HW234645   9.364   2.274   0.255 -0.1971 -0.0196  1.5064
 9199SOL     OW34646   5.758   9.786  12.178  0.8718 -0.9169 -0.2289
 9199SOL    HW134647   5.667   9.780  12.150  0.5632  0.3757  0.4182
 9199SOL    HW234648   5.787   9.873  12.148  1.3532 -0.6118  1.0460
 9200SOL     OW34649   2.759   8.686  10.965  0.3712  0.0671  0.4812
 9200SOL    HW134650   2.682   8.733  10.997 -0.1582  0.4233 -1.2007
 9200SOL    HW234651   2.830   8.714  11.022  0.2522  3.5122 -0.8387
 9201SOL     OW34652   6.355   8.298  10.988  0.2942 -0.1428 -0.0762
 9201SOL    HW134653   6.285   8.268  11.047  1.4699 -0.4898  1.1956
 9201SOL    HW234654   6.347   8.393  10.989 -0.0569 -0.1712  0.1920
 9202SOL     OW34655   1.605   8.192   8.789  0.4940 -0.7588 -0.2780
 9202SOL    HW134656   1.510   8.193   8.799  0.2839  1.9051 -1.6265
 9202SOL    HW234657   1.619   8.174   8.696  0.9286  3.7355 -1.3133
 9203SOL     OW34658   9.015   3.945   2.483  0.4059  0.1032  0.4958
 9203SOL    HW134659   9.063   3.883   2.428 -0.9042 -1.1871  0.7506
 9203SOL    HW234660   9.068   3.952   2.563 -0.3061 -2.1605  1.2451
 9204SOL     OW34661  11.109   4.679   2.674 -0.2554 -0.4968  0.8269
 9204SOL    HW134662  11.089   4.773   2.676  0.3945 -0.3724  1.6558
 9204SOL    HW234663  11.153   4.666   2.590  0.1029  0.0374  0.9296
 9205SOL     OW34664   9.189   5.149   8.442  0.1070  0.4880  0.2060
 9205SOL    HW134665   9.190   5.054   8.452  2.9992  0.5513  1.3813
 9205SOL    HW234666   9.247   5.167   8.368  0.5785  1.3775  0.7705
 9206SOL     OW34667   9.665   0.722   4.533 -0.4274 -0.2114  0.3872
 9206SOL    HW134668   9.695   0.745   4.621 -0.6840 -1.6107  0.8798
 9206SOL    HW234669   9.638   0.805   4.494 -0.0299  0.4771  1.5182
 9207SOL     OW34670  10.839   3.132  12.126  0.8385 -0.2225  0.3968
 9207SOL    HW134671  10.757   3.093  12.155  1.9001 -1.6531  1.6097
 9207SOL    HW234672  10.812   3.207  12.072 -1.2333 -0.4582  1.0193
 9208SOL     OW34673   7.155   8.715  11.149 -0.4184 -0.5294 -0.1237
 9208SOL    HW134674   7.216   8.657  11.104  1.0962  0.9520 -0.0552
 9208SOL    HW234675   7.190   8.723  11.238 -0.4450  0.6985 -0.2148
 9209SOL     OW34676   0.076   3.856   4.497 -0.3860 -0.0254  0.3510
 9209SOL    HW134677   0.159   3.887   4.532 -0.7740  1.2599  0.1932
 9209SOL    HW234678   0.037   3.805   4.568  1.1695 -1.9341 -0.0790
 9210SOL     OW34679   0.528  12.286  10.079  0.1838  0.1519  0.2251
 9210SOL    HW134680   0.591  12.321  10.017  0.1283 -0.8708 -0.4256
 9210SOL    HW234681   0.445  12.329  10.057  0.3420  0.4269  0.1601
 9211SOL     OW34682   9.095   8.721   0.877 -0.1067 -0.1100 -0.6081
 9211SOL    HW134683   9.079   8.746   0.968  1.0488 -3.7448  0.7624
 9211SOL    HW234684   9.117   8.803   0.833 -0.2681  1.7347  2.4797
 9212SOL     OW34685  11.143   9.581   4.755 -0.2111 -0.6749  0.3059
 9212SOL    HW134686  11.063   9.531   4.742  1.3156 -2.9992 -0.9427
 9212SOL    HW234687  11.212   9.527   4.715  1.6248  2.4556 -1.1587
 9213SOL     OW34688   6.445   1.330   1.237 -0.0342  0.2620 -0.4419
 9213SOL    HW134689   6.402   1.415   1.248 -0.6649 -0.0318 -0.5876
 9213SOL    HW234690   6.376   1.272   1.206 -0.2313 -0.9340  1.9876
 9214SOL     OW34691   7.142   4.956   5.273 -0.1511 -0.0326  0.6113
 9214SOL    HW134692   7.049   4.975   5.258 -0.4911  0.6011  3.0665
 9214SOL    HW234693   7.188   5.011   5.209 -1.4129 -0.7488 -1.0101
 9215SOL     OW34694  10.180   3.096  11.930 -0.4919 -0.5431  0.4065
 9215SOL    HW134695  10.224   3.169  11.885 -1.5888 -0.7999 -1.1565
 9215SOL    HW234696  10.215   3.099  12.019 -0.2220  1.6719  0.3006
 9216SOL     OW34697   6.509  10.594   7.629  0.0322  0.2855  0.5396
 9216SOL    HW134698   6.554  10.518   7.667  1.0961  0.8498  0.4536
 9216SOL    HW234699   6.480  10.564   7.543 -1.5756 -0.7165  1.3968
 9217SOL     OW34700   7.535   3.374   3.134 -0.2589  0.0177 -0.1422
 9217SOL    HW134701   7.471   3.440   3.108 -0.1352  0.8261  1.4613
 9217SOL    HW234702   7.613   3.395   3.083 -0.0963  1.3954  0.6223
 9218SOL     OW34703   1.936   0.077   9.486 -0.2287  0.1018  0.5444
 9218SOL    HW134704   1.867   0.094   9.422  0.2368 -0.0951 -0.0214
 9218SOL    HW234705   1.947   0.160   9.532 -1.9982 -0.3100  1.8138
 9219SOL     OW34706  10.868   6.520  11.327 -0.6758  0.4679 -0.0954
 9219SOL    HW134707  10.899   6.506  11.238 -0.3842  2.4542 -0.3581
 9219SOL    HW234708  10.802   6.452  11.340 -0.5954  0.0226 -1.7534
 9220SOL     OW34709   3.160   3.440   6.484  0.5588 -0.5949  0.3878
 9220SOL    HW134710   3.097   3.505   6.451 -0.4675 -1.0614  1.3784
 9220SOL    HW234711   3.237   3.492   6.507  0.1694  0.1303  0.1026
 9221SOL     OW34712   2.569   3.207  10.343 -0.5720 -0.2606 -0.0565
 9221SOL    HW134713   2.556   3.293  10.383 -1.5591 -0.0002 -0.9100
 9221SOL    HW234714   2.489   3.158  10.364  0.3335 -1.2992  1.1649
 9222SOL     OW34715   2.852  10.840   2.502  0.2402 -0.0619  0.1794
 9222SOL    HW134716   2.764  10.851   2.540  0.1422  0.9605 -0.3123
 9222SOL    HW234717   2.839  10.851   2.408  0.7015 -1.2508 -0.0430
 9223SOL     OW34718   1.249  10.210   7.910  0.0964 -0.2934  0.3557
 9223SOL    HW134719   1.171  10.154   7.912 -1.0199  1.2171  1.6060
 9223SOL    HW234720   1.215  10.299   7.919  1.8137  0.6483 -1.5925
 9224SOL     OW34721  12.124   8.444   8.856  0.6354  0.1706  0.2358
 9224SOL    HW134722  12.106   8.534   8.884  0.3641  1.0316 -2.4105
 9224SOL    HW234723  12.201   8.418   8.906  0.4987  1.7243  1.3381
 9225SOL     OW34724  10.699   4.463   0.954  0.0469  0.0405  0.0253
 9225SOL    HW134725  10.630   4.507   0.905  1.4723 -0.3895 -2.5207
 9225SOL    HW234726  10.678   4.370   0.949  0.6338 -0.0694 -0.5061
 9226SOL     OW34727   6.276   8.682   8.531 -0.0746  0.0521  0.1583
 9226SOL    HW134728   6.188   8.715   8.515 -0.7801 -2.1260 -0.8734
 9226SOL    HW234729   6.264   8.616   8.600  0.5277 -1.0611 -0.7778
 9227SOL     OW34730   0.139   3.863  10.473  0.2133 -0.4852  0.5478
 9227SOL    HW134731   0.225   3.828  10.450  0.0932 -0.1702 -0.4475
 9227SOL    HW234732   0.155   3.914  10.553  1.1066  0.1640 -0.0220
 9228SOL     OW34733  11.301   6.501   4.097 -0.2247 -0.4163 -0.2559
 9228SOL    HW134734  11.288   6.521   4.189 -1.2366 -0.0943 -0.4648
 9228SOL    HW234735  11.357   6.423   4.097 -0.7781 -0.8225  0.6330
 9229SOL     OW34736   6.341   7.094   8.692  0.4301 -0.3655 -0.0214
 9229SOL    HW134737   6.314   7.030   8.626  0.5864 -0.5461  0.0913
 9229SOL    HW234738   6.328   7.179   8.649  0.5214 -0.4814 -0.2815
 9230SOL     OW34739   0.249   8.788   2.233 -0.5089  0.7285  0.2881
 9230SOL    HW134740   0.328   8.796   2.179 -1.2157 -0.1951 -0.9495
 9230SOL    HW234741   0.205   8.710   2.199 -0.6353 -0.3301  2.7147
 9231SOL     OW34742   5.942   9.795   9.729 -0.1759 -0.1191  0.1950
 9231SOL    HW134743   5.848   9.805   9.715 -0.2630 -0.4083  0.5726
 9231SOL    HW234744   5.968   9.727   9.666 -0.2563 -0.1834  0.2308
 9232SOL     OW34745   8.627   7.606   1.669 -0.5621  0.2872  0.1306
 9232SOL    HW134746   8.642   7.513   1.651 -1.6767  0.3087 -1.1149
 9232SOL    HW234747   8.613   7.611   1.763 -0.5600 -0.8176  0.2004
 9233SOL     OW34748   0.936   6.638   2.099  0.5638 -0.1293  0.0149
 9233SOL    HW134749   0.857   6.691   2.106  0.1975 -0.8646  2.1420
 9233SOL    HW234750   0.993   6.688   2.040 -0.7627  1.3095 -0.1212
 9234SOL     OW34751   2.858  10.892  11.095  0.2219 -0.8741 -0.5902
 9234SOL    HW134752   2.813  10.868  11.015  0.9255 -0.7466 -1.0389
 9234SOL    HW234753   2.910  10.815  11.118  1.8186 -0.1363 -1.5600
 9235SOL     OW34754  12.475   0.084  11.226 -0.0445 -0.3045 -0.2611
 9235SOL    HW134755  12.562   0.058  11.255  0.3107 -0.6162 -1.5499
 9235SOL    HW234756  12.489   0.163  11.173 -0.3886 -0.9746 -1.3844
 9236SOL     OW34757  11.748   6.107   0.627 -0.6587 -0.0915 -0.7222
 9236SOL    HW134758  11.657   6.077   0.619 -0.2553 -1.7733  0.4003
 9236SOL    HW234759  11.770   6.092   0.719  0.7530  0.2935 -0.9728
 9237SOL     OW34760   4.614   0.461  11.766  0.1989  0.5251  0.4789
 9237SOL    HW134761   4.598   0.460  11.860  0.9159 -0.1246  0.6060
 9237SOL    HW234762   4.529   0.480  11.727 -0.3234 -0.2618  1.2192
 9238SOL     OW34763   3.951   3.175   0.580  0.8325 -0.2683  0.1285
 9238SOL    HW134764   3.899   3.192   0.659  0.2993 -0.0138 -0.2735
 9238SOL    HW234765   4.042   3.191   0.607  0.4636  2.7152 -0.0532
 9239SOL     OW34766   1.617   7.187   6.728 -0.8596 -0.4657 -0.2247
 9239SOL    HW134767   1.555   7.115   6.722 -2.0197  0.5485 -1.1734
 9239SOL    HW234768   1.599   7.228   6.813 -0.0014 -1.4279  0.4421
 9240SOL     OW34769   5.690  10.714  11.725  0.0819  0.3259  0.2393
 9240SOL    HW134770   5.702  10.633  11.775 -1.5190 -0.4305 -0.5177
 9240SOL    HW234771   5.652  10.776  11.787  0.5671  0.2463  0.6178
 9241SOL     OW34772  10.718   6.160   3.426  0.7207 -0.2219  0.4760
 9241SOL    HW134773  10.801   6.134   3.384  0.2671 -1.9479  0.5826
 9241SOL    HW234774  10.731   6.253   3.448  1.8752  0.1070 -1.2945
 9242SOL     OW34775  12.401   4.518  11.911  0.1964  0.0851 -0.1957
 9242SOL    HW134776  12.422   4.547  12.000 -0.7535  1.7672 -0.4695
 9242SOL    HW234777  12.486   4.513  11.867  0.6592 -0.6018  0.7370
 9243SOL     OW34778   6.136   3.645   1.731  0.1229 -0.2488 -0.7148
 9243SOL    HW134779   6.195   3.570   1.724 -1.2903 -1.4369 -0.5811
 9243SOL    HW234780   6.138   3.685   1.644  4.4244  2.5062  0.3513
 9244SOL     OW34781   5.808   4.961  11.016 -0.3545 -0.5180 -0.0412
 9244SOL    HW134782   5.901   4.956  11.041  0.2913  0.5658 -1.9785
 9244SOL    HW234783   5.768   5.012  11.086  0.9006  0.5305 -0.0390
 9245SOL     OW34784   8.715   1.596  10.861 -0.1566  0.0553  0.3271
 9245SOL    HW134785   8.641   1.656  10.863  0.1139  0.4146 -0.1070
 9245SOL    HW234786   8.677   1.510  10.844 -0.6899 -0.1484  2.3201
 9246SOL     OW34787   2.773   5.531   2.793  0.4641  0.0897 -0.0221
 9246SOL    HW134788   2.755   5.592   2.865 -1.4171 -0.9282  0.4536
 9246SOL    HW234789   2.734   5.572   2.716  2.7326  1.3188 -0.6151
 9247SOL     OW34790  11.103   2.268  12.073  0.0764  0.9086  0.4614
 9247SOL    HW134791  11.014   2.303  12.067 -0.4788 -0.4771  0.1568
 9247SOL    HW234792  11.153   2.318  12.008 -0.7489  0.9569 -0.1497
 9248SOL     OW34793   0.063   6.050   6.206  0.0444  0.3620  0.0981
 9248SOL    HW134794   0.048   6.137   6.242 -0.9030 -0.1674  1.0199
 9248SOL    HW234795   0.021   6.051   6.120 -0.7539  0.5392  0.4861
 9249SOL     OW34796   3.855  12.166   1.220 -0.2993 -0.4891 -0.7544
 9249SOL    HW134797   3.884  12.146   1.310  0.3636  1.0161 -0.6105
 9249SOL    HW234798   3.781  12.225   1.231  1.6734  2.2589 -1.1314
 9250SOL     OW34799   5.023   7.771  10.180 -0.4022 -0.4809 -0.2398
 9250SOL    HW134800   5.050   7.744  10.267  0.1216 -1.2001 -0.6148
 9250SOL    HW234801   5.072   7.714  10.121  0.7427  1.2706 -1.0756
 9251SOL     OW34802   0.217   0.110   5.163  0.1461 -0.1075  0.2438
 9251SOL    HW134803   0.203   0.116   5.258 -0.3398  1.8209  0.0991
 9251SOL    HW234804   0.142   0.156   5.125  1.0197  0.3155 -1.0299
 9252SOL     OW34805   3.487   7.759   9.501  0.1508  0.0719  0.2472
 9252SOL    HW134806   3.424   7.700   9.461 -1.4483  0.2762  2.3196
 9252SOL    HW234807   3.482   7.741   9.595  1.2961  1.8775  0.7195
 9253SOL     OW34808   9.477   8.154   0.270 -0.2137  0.3793  0.6846
 9253SOL    HW134809   9.394   8.136   0.314 -1.3214 -0.2836 -1.5489
 9253SOL    HW234810   9.487   8.249   0.275 -0.2441  0.3126  2.4058
 9254SOL     OW34811   3.803   8.222  11.608 -0.0798 -0.5706 -0.7598
 9254SOL    HW134812   3.818   8.135  11.570 -0.4710 -1.1547  0.3501
 9254SOL    HW234813   3.785   8.204  11.701  1.7337  0.8483 -0.0718
 9255SOL     OW34814   7.444   8.592   9.560  0.3221 -0.0038 -0.1617
 9255SOL    HW134815   7.495   8.544   9.626 -0.4392  0.7555  1.0201
 9255SOL    HW234816   7.509   8.644   9.513  0.8156 -0.1307  0.3620
 9256SOL     OW34817   5.418   8.555  11.752  0.1671  0.6112  0.4627
 9256SOL    HW134818   5.355   8.625  11.734 -0.2744  0.4570  1.3819
 9256SOL    HW234819   5.424   8.551  11.847  0.9141  0.0349  0.4025
 9257SOL     OW34820  10.104  11.260   1.269  0.0042 -0.1675 -0.1284
 9257SOL    HW134821  10.045  11.191   1.238  0.6224  0.3112 -2.5418
 9257SOL    HW234822  10.176  11.213   1.311 -0.0769 -0.9591 -0.8451
 9258SOL     OW34823   3.383  12.331  11.747 -0.2295 -0.4992 -0.6242
 9258SOL    HW134824   3.378  12.426  11.734  1.3337 -0.2768  0.0322
 9258SOL    HW234825   3.458  12.304  11.694  0.1760 -1.1356  0.2549
 9259SOL     OW34826   2.240   1.692   2.636 -0.3308  0.2723  0.1191
 9259SOL    HW134827   2.276   1.636   2.567 -0.1028 -0.2891  0.6929
 9259SOL    HW234828   2.307   1.694   2.704 -1.4046 -0.9023  1.2681
 9260SOL     OW34829  12.410   8.224   9.421  0.1259  0.6253 -0.2920
 9260SOL    HW134830  12.427   8.219   9.515  1.0699  0.4192 -0.4699
 9260SOL    HW234831  12.381   8.315   9.407 -0.5798  0.4959  0.2805
 9261SOL     OW34832   0.839   5.436   6.041 -0.0034 -0.4787  0.3108
 9261SOL    HW134833   0.839   5.485   6.123  0.5397 -0.3695  0.2475
 9261SOL    HW234834   0.852   5.502   5.973 -0.0253 -0.6211  0.1664
 9262SOL     OW34835   0.400  11.113   7.139  0.1535 -0.2899  0.5020
 9262SOL    HW134836   0.305  11.113   7.126 -0.0818  1.8733  1.6755
 9262SOL    HW234837   0.436  11.076   7.058 -1.6114  1.1668 -1.0346
 9263SOL     OW34838   1.235   2.781   1.894  0.6101 -0.6286  0.7027
 9263SOL    HW134839   1.315   2.829   1.877  1.1900 -1.4914  0.9259
 9263SOL    HW234840   1.169   2.848   1.910  1.1591  0.0988 -0.0068
 9264SOL     OW34841   5.951   1.142   5.129 -0.2931  0.4797  0.3683
 9264SOL    HW134842   6.002   1.193   5.067 -0.2477 -0.7259 -0.6417
 9264SOL    HW234843   6.016   1.092   5.178 -0.3570  1.0840  1.0831
 9265SOL     OW34844  12.580   5.114   5.516 -0.0824  0.3086 -0.0358
 9265SOL    HW134845  12.547   5.082   5.599  1.7172  0.2218  0.7019
 9265SOL    HW234846  12.675   5.102   5.522  0.2830  2.1411 -1.2987
 9266SOL     OW34847  12.552   8.803   1.935 -0.1661  0.0084  0.1352
 9266SOL    HW134848  12.599   8.737   1.986 -1.4390  0.5059  2.0482
 9266SOL    HW234849  12.580   8.886   1.973 -0.7602  0.4266 -0.3350
 9267SOL     OW34850   3.307  10.194   3.931  0.3832  0.0138  0.3771
 9267SOL    HW134851   3.369  10.176   4.001 -0.1244  3.0080  1.7492
 9267SOL    HW234852   3.225  10.154   3.960 -0.0549  1.9658  2.0365
 9268SOL     OW34853   2.028   1.207  10.950 -0.2933  0.4949  0.0866
 9268SOL    HW134854   2.007   1.212  11.044  0.1247 -1.4323  0.3325
 9268SOL    HW234855   2.088   1.280  10.935 -1.7509  1.9252  0.9011
 9269SOL     OW34856  11.385   7.153   3.406  0.6157  0.0744 -0.0309
 9269SOL    HW134857  11.444   7.096   3.456  0.0558  0.1268  0.7095
 9269SOL    HW234858  11.300   7.141   3.447 -0.0147 -0.4259 -1.4511
 9270SOL     OW34859   9.903  12.154   2.330 -0.4924 -0.4298  0.1285
 9270SOL    HW134860   9.989  12.194   2.318 -0.3290 -1.1794 -1.4193
 9270SOL    HW234861   9.846  12.200   2.269 -1.1188 -0.1906  0.8784
 9271SOL     OW34862   9.569   7.471   3.090  0.4355 -0.2802  0.5518
 9271SOL    HW134863   9.656   7.434   3.106  0.6860  0.9086  2.0969
 9271SOL    HW234864   9.579   7.523   3.010  1.2893  0.2957  1.0285
 9272SOL     OW34865  11.569   7.726   8.438  0.3635  0.7747  0.2570
 9272SOL    HW134866  11.634   7.794   8.418  1.4762  0.1654  1.6947
 9272SOL    HW234867  11.617   7.659   8.486 -1.2366  0.0682  0.9531
 9273SOL     OW34868   8.472  12.235   4.144 -0.3241  0.2202  0.6816
 9273SOL    HW134869   8.560  12.230   4.107 -0.2954  4.2533 -0.2892
 9273SOL    HW234870   8.487  12.234   4.239  0.6157 -0.4297  0.5422
 9274SOL     OW34871   3.480   1.634   5.568  0.3253  0.1933  0.2729
 9274SOL    HW134872   3.438   1.600   5.648 -0.1864 -0.3004 -0.1966
 9274SOL    HW234873   3.407   1.665   5.514  0.3377 -2.0884 -1.2260
 9275SOL     OW34874  10.990   2.824   5.719  0.3333  0.3430  0.1776
 9275SOL    HW134875  11.068   2.879   5.713 -0.9641  2.2254 -0.5694
 9275SOL    HW234876  10.929   2.863   5.655 -0.4002 -2.4800 -0.9919
 9276SOL     OW34877   5.165   0.895   0.598  0.1048 -0.2885  0.1860
 9276SOL    HW134878   5.111   0.866   0.524  1.5327  1.1452 -1.5045
 9276SOL    HW234879   5.118   0.971   0.633  0.4262  0.2629 -0.5579
 9277SOL     OW34880   8.117   8.418  12.544  0.4274  0.2654 -0.6708
 9277SOL    HW134881   8.046   8.415  12.608 -0.6862 -0.8334 -1.9105
 9277SOL    HW234882   8.091   8.487  12.483 -0.4163 -1.1719 -2.0100
 9278SOL     OW34883   4.604   4.597   3.734 -0.1652  0.4552  0.3408
 9278SOL    HW134884   4.557   4.535   3.790 -2.2023 -0.0817 -1.8319
 9278SOL    HW234885   4.688   4.554   3.717 -1.1245 -1.2747 -0.2676
 9279SOL     OW34886   9.936  11.255   5.406  0.1747 -0.1917 -0.0076
 9279SOL    HW134887   9.997  11.274   5.335  1.3554  1.2267  1.3280
 9279SOL    HW234888   9.889  11.337   5.420 -0.4226 -0.6090  0.4991
 9280SOL     OW34889   2.804   3.399   8.622  0.0518 -0.3543 -0.3295
 9280SOL    HW134890   2.878   3.341   8.639  0.8756  0.0107 -2.3978
 9280SOL    HW234891   2.823   3.438   8.537 -2.2011  0.2730 -0.6099
 9281SOL     OW34892   8.804   7.652   3.852 -0.2599  0.1588  0.4908
 9281SOL    HW134893   8.761   7.584   3.904  0.2903  0.5705  1.5129
 9281SOL    HW234894   8.800   7.730   3.907  1.3494  0.3175  0.4385
 9282SOL     OW34895   8.905   2.615   5.043 -0.0715  0.0081  0.1741
 9282SOL    HW134896   8.929   2.577   4.958 -1.7297 -2.7994  0.8269
 9282SOL    HW234897   8.838   2.556   5.078 -0.5741  1.9244  2.7774
 9283SOL     OW34898   7.356   3.850   9.315  0.0335  0.0131  0.5425
 9283SOL    HW134899   7.281   3.848   9.255  2.4454  2.3296 -2.9271
 9283SOL    HW234900   7.394   3.763   9.307  1.8405  0.9628 -3.8122
 9284SOL     OW34901   9.121   2.736   8.486  0.0200  0.4311  0.2360
 9284SOL    HW134902   9.160   2.818   8.455  0.0483  0.2963 -0.0911
 9284SOL    HW234903   9.034   2.734   8.445  0.4832 -0.2872 -0.7581
 9285SOL     OW34904   3.549  11.605   3.406 -0.4013  0.1803 -0.3536
 9285SOL    HW134905   3.571  11.698   3.416  1.1146 -0.2695  0.9366
 9285SOL    HW234906   3.631  11.559   3.424 -0.7392 -1.3869 -2.4534
 9286SOL     OW34907   7.783  10.757  12.585  0.2162 -0.0693  0.5126
 9286SOL    HW134908   7.775  10.751  12.681 -3.8200 -2.0544  0.2797
 9286SOL    HW234909   7.721  10.826  12.561  0.0766 -0.6320 -0.7641
 9287SOL     OW34910  10.170   8.816   7.528  0.0884 -0.4246  0.3360
 9287SOL    HW134911  10.148   8.750   7.594  0.3148 -2.0315 -1.1226
 9287SOL    HW234912  10.088   8.830   7.480  0.2477 -0.2748  0.1060
 9288SOL     OW34913   5.668   9.840   2.069 -0.8528 -0.4534 -0.0389
 9288SOL    HW134914   5.620   9.903   2.017 -0.4826  0.5817  0.8349
 9288SOL    HW234915   5.727   9.893   2.123  0.2607 -1.6067 -0.0784
 9289SOL     OW34916   2.433   2.920   2.615  0.2721  0.6045  0.0687
 9289SOL    HW134917   2.382   2.839   2.613  0.1870  0.6777 -1.0932
 9289SOL    HW234918   2.391   2.973   2.683 -1.7798  1.0240 -1.4551
 9290SOL     OW34919   3.441  12.069   2.524  0.4014 -0.0187 -0.1931
 9290SOL    HW134920   3.350  12.079   2.550  0.1018  0.1734 -1.2400
 9290SOL    HW234921   3.479  12.011   2.590 -0.0240  1.2426  1.2155
 9291SOL     OW34922   3.888   8.781   3.404 -0.2877 -0.2899 -0.0205
 9291SOL    HW134923   3.815   8.814   3.457 -0.1583 -0.3643  0.2081
 9291SOL    HW234924   3.952   8.751   3.469  0.2892  0.5108 -0.2017
 9292SOL     OW34925   2.274   0.005   0.323 -0.2183 -0.2181  0.5485
 9292SOL    HW134926   2.364  -0.013   0.349 -0.3949  1.2402  2.4354
 9292SOL    HW234927   2.282   0.057   0.243  0.5518 -0.9950  0.1030
 9293SOL     OW34928   9.049   0.915   4.975  0.4043 -0.3933  0.1316
 9293SOL    HW134929   9.062   1.004   4.943  0.2694 -0.7198 -0.8865
 9293SOL    HW234930   9.038   0.924   5.070  4.2790  0.2785  0.6674
 9294SOL     OW34931   4.192   4.958   2.592 -0.1452  0.0106 -0.4092
 9294SOL    HW134932   4.281   4.974   2.563  0.5009  0.4270  1.6576
 9294SOL    HW234933   4.138   5.015   2.537  0.7531 -0.7637 -2.1468
 9295SOL     OW34934  11.842   0.925  10.342  0.0438  0.5605  0.1658
 9295SOL    HW134935  11.773   0.894  10.401 -2.4644  0.8125 -2.4442
 9295SOL    HW234936  11.870   1.009  10.380 -0.4939  0.1019  1.6681
 9296SOL     OW34937   2.678  10.062   2.047 -0.0420 -0.2303 -0.3446
 9296SOL    HW134938   2.730  10.039   2.125 -0.6394 -0.3595  0.0194
 9296SOL    HW234939   2.597  10.099   2.082  0.0479  0.5325 -0.9157
 9297SOL     OW34940   4.564   5.245   4.728 -0.8101  0.3564  0.2129
 9297SOL    HW134941   4.629   5.225   4.795  0.1736 -1.9954 -1.2948
 9297SOL    HW234942   4.487   5.274   4.777  0.7101  1.3637  2.1578
 9298SOL     OW34943  11.037   2.000  10.632  0.1642  0.1745 -0.1135
 9298SOL    HW134944  11.047   2.022  10.724  1.2682 -1.8385  0.2945
 9298SOL    HW234945  10.972   1.930  10.631 -0.0553  0.3770 -0.9086
 9299SOL     OW34946   4.426   3.806   1.529  0.2485  0.5180  0.1323
 9299SOL    HW134947   4.343   3.854   1.523  0.0208  0.8974  3.7938
 9299SOL    HW234948   4.484   3.851   1.469 -2.0314  0.4894 -2.2710
 9300SOL     OW34949   2.693   9.350   6.137  0.3530  0.2447 -0.3993
 9300SOL    HW134950   2.632   9.405   6.187  1.1652  0.8575 -0.0562
 9300SOL    HW234951   2.728   9.288   6.202 -0.2441 -0.4106 -0.6945
 9301SOL     OW34952   1.638   4.328  11.904  0.8692 -0.4661  0.1921
 9301SOL    HW134953   1.710   4.387  11.925 -0.1305  0.1765  1.9779
 9301SOL    HW234954   1.632   4.270  11.980 -2.4361  1.4928  1.6052
 9302SOL     OW34955   3.880   0.328   5.923 -0.0841 -0.5770  0.0386
 9302SOL    HW134956   3.937   0.259   5.957  1.8838  0.1942 -1.5024
 9302SOL    HW234957   3.850   0.293   5.839 -1.0967 -0.5385  0.3704
 9303SOL     OW34958   5.528   1.666  11.958 -0.4671 -0.1899  0.0620
 9303SOL    HW134959   5.461   1.687  12.022 -2.3294 -1.2791 -1.4136
 9303SOL    HW234960   5.519   1.571  11.945  1.0029 -0.2651 -0.5725
 9304SOL     OW34961  12.165   6.587   6.971 -0.4005  0.1016 -0.5267
 9304SOL    HW134962  12.098   6.565   7.035  0.5794 -0.2128  0.4160
 9304SOL    HW234963  12.197   6.673   6.997  0.5012 -0.3347 -0.1456
 9305SOL     OW34964   5.613   2.846   0.981 -0.6681  0.0490 -0.3799
 9305SOL    HW134965   5.616   2.754   0.955  1.4489 -0.0406 -0.0279
 9305SOL    HW234966   5.696   2.883   0.949  0.0367  1.0012  2.2595
 9306SOL     OW34967  11.482  12.116   2.650  0.2236 -0.2138 -0.2678
 9306SOL    HW134968  11.521  12.032   2.625 -0.5890 -0.7495  0.2239
 9306SOL    HW234969  11.392  12.094   2.673  0.1178  0.7391  0.2453
 9307SOL     OW34970   9.383   7.681   7.064  0.3670 -0.1862 -0.5344
 9307SOL    HW134971   9.341   7.714   7.143  0.3104 -0.2770 -0.5262
 9307SOL    HW234972   9.470   7.719   7.065  0.9986 -1.5592  0.4934
 9308SOL     OW34973   3.409   0.769   1.766  0.2627  0.1057  0.6459
 9308SOL    HW134974   3.394   0.838   1.830  0.2163  0.7961 -0.0901
 9308SOL    HW234975   3.349   0.790   1.694 -1.1426 -1.7542  1.1912
 9309SOL     OW34976   9.405  10.274  11.964  0.2760 -0.2636  0.3109
 9309SOL    HW134977   9.343  10.226  12.020 -1.5701  1.4660 -0.1308
 9309SOL    HW234978   9.384  10.244  11.875  1.6487 -1.3223  0.3202
 9310SOL     OW34979   3.450   1.004   2.176  0.3312 -0.3760  0.3228
 9310SOL    HW134980   3.436   1.026   2.084 -0.3502 -2.1250 -0.0359
 9310SOL    HW234981   3.369   1.030   2.219 -1.1416 -3.3386 -0.3772
 9311SOL     OW34982   6.613   5.091  10.689  0.7408 -0.3458 -0.1070
 9311SOL    HW134983   6.559   5.031  10.741  0.4452 -1.2837 -1.4360
 9311SOL    HW234984   6.551   5.153  10.651  0.7513 -0.6460 -0.6186
 9312SOL     OW34985   5.144   4.708   1.177 -0.6022  0.0115  0.1419
 9312SOL    HW134986   5.191   4.719   1.094 -0.5096  3.4322  0.5115
 9312SOL    HW234987   5.198   4.648   1.228  0.6212 -0.2041 -1.3475
 9313SOL     OW34988   2.516   1.746   2.795  0.5835  0.9264  0.4641
 9313SOL    HW134989   2.545   1.683   2.861 -3.2351  1.5016  2.9926
 9313SOL    HW234990   2.520   1.831   2.839  0.5734  1.7565 -1.0562
 9314SOL     OW34991  11.336   7.524   3.832 -0.0104 -0.0307  0.2474
 9314SOL    HW134992  11.321   7.457   3.766  2.1987 -0.1676 -0.1830
 9314SOL    HW234993  11.426   7.551   3.819  0.2102  0.6114  2.6242
 9315SOL     OW34994   6.915   1.620   2.390  0.4153 -0.1657 -0.3284
 9315SOL    HW134995   6.877   1.533   2.406  2.3694 -0.9169  0.4266
 9315SOL    HW234996   6.974   1.607   2.316  0.6807  0.5474 -0.2468
 9316SOL     OW34997   2.378   9.622   7.579  0.3430  0.4877  0.1621
 9316SOL    HW134998   2.361   9.601   7.488 -0.9764 -1.5002  0.8103
 9316SOL    HW234999   2.341   9.710   7.591 -0.5803  0.2609 -0.9171
 9317SOL     OW35000   4.277   5.007  10.041 -0.1524  1.1043 -0.3275
 9317SOL    HW135001   4.260   5.023  10.134 -0.5535 -0.3570 -0.1269
 9317SOL    HW235002   4.233   5.080   9.997 -1.9643  0.6011  0.5186
 9318SOL     OW35003   2.441  10.279   4.228  0.4557  0.4434  0.0612
 9318SOL    HW135004   2.392  10.262   4.148 -1.3484  1.0122  0.9871
 9318SOL    HW235005   2.468  10.192   4.258  1.6109  0.2656 -1.4000
 9319SOL     OW35006   9.605  11.019   8.721  0.0147 -0.5069 -0.8257
 9319SOL    HW135007   9.546  10.944   8.710  1.1727 -1.7565  0.8466
 9319SOL    HW235008   9.591  11.047   8.811  0.9649  0.0468 -0.8393
 9320SOL     OW35009   5.166  12.381   6.530  0.8681  0.4427  0.9268
 9320SOL    HW135010   5.080  12.389   6.489  0.6868 -1.1038  0.9362
 9320SOL    HW235011   5.227  12.406   6.461  0.4899 -0.4395  0.2509
 9321SOL     OW35012   9.954   1.428   5.219 -0.5889 -0.0686  0.2867
 9321SOL    HW135013  10.005   1.471   5.288 -2.1872  0.7830  0.9742
 9321SOL    HW235014   9.917   1.351   5.262 -0.4344 -0.3177 -0.0259
 9322SOL     OW35015   8.347   0.052   8.094  0.4625  0.3418 -0.3572
 9322SOL    HW135016   8.439   0.068   8.117 -0.0276  0.1492  2.0575
 9322SOL    HW235017   8.298   0.112   8.150 -0.9276 -0.1587 -1.0012
 9323SOL     OW35018   1.327   2.397  10.682 -0.5657 -0.3302 -0.0794
 9323SOL    HW135019   1.305   2.403  10.775  1.8083  1.5568  0.4708
 9323SOL    HW235020   1.296   2.479  10.645  0.1954 -0.2266 -0.5084
 9324SOL     OW35021   8.416  10.535   1.444  0.5887  0.2862 -0.5487
 9324SOL    HW135022   8.374  10.621   1.450 -0.4729 -0.0860 -2.0590
 9324SOL    HW235023   8.407  10.510   1.352  0.2443 -1.7688 -0.0037
 9325SOL     OW35024   7.733   9.213  12.302  0.0177  0.1569 -0.6825
 9325SOL    HW135025   7.771   9.284  12.250  0.5701 -0.3467 -0.9759
 9325SOL    HW235026   7.683   9.161  12.239  0.3818 -0.2420 -0.6508
 9326SOL     OW35027   6.203   7.459   5.745 -0.1168  0.2108  0.0052
 9326SOL    HW135028   6.180   7.407   5.822 -0.6966 -1.2894 -1.1194
 9326SOL    HW235029   6.182   7.402   5.671 -1.3156  2.2742 -1.3469
 9327SOL     OW35030   9.516  10.647  11.782  0.5980  0.0808  0.8956
 9327SOL    HW135031   9.548  10.574  11.835 -0.2705 -1.8655 -1.0375
 9327SOL    HW235032   9.431  10.616  11.749  1.1896  0.9861 -1.7549
 9328SOL     OW35033  11.085   1.997  10.918  0.0316 -0.7612  0.3930
 9328SOL    HW135034  11.028   2.056  10.967 -0.4533  0.0378 -1.0738
 9328SOL    HW235035  11.028   1.924  10.893 -1.7269  1.8375 -4.5055
 9329SOL     OW35036   1.643   5.874   6.422  0.5742  0.3154  0.4142
 9329SOL    HW135037   1.578   5.905   6.359  0.7593  0.4594  0.2930
 9329SOL    HW235038   1.715   5.840   6.368 -0.2788 -1.8037  0.5045
 9330SOL     OW35039   9.481   1.175   0.526  0.3413 -0.8823  0.1032
 9330SOL    HW135040   9.567   1.178   0.568  0.6060 -0.1762 -0.4654
 9330SOL    HW235041   9.475   1.258   0.479 -0.6959 -0.8883  0.2124
 9331SOL     OW35042   4.624   1.058   0.093  0.0517 -0.0599 -0.5281
 9331SOL    HW135043   4.716   1.034   0.101 -0.2274 -0.8713  0.3764
 9331SOL    HW235044   4.625   1.154   0.094  0.7524 -0.0272  1.5538
 9332SOL     OW35045   5.339   9.295   6.308 -0.4406 -0.4695 -0.5185
 9332SOL    HW135046   5.410   9.245   6.269 -1.4826 -1.1668 -1.6096
 9332SOL    HW235047   5.337   9.377   6.259 -0.8361 -0.7559 -0.9967
 9333SOL     OW35048   4.020   5.749  11.953  0.0119  0.4459  0.0126
 9333SOL    HW135049   3.944   5.741  12.011 -0.5155  1.2930 -0.5506
 9333SOL    HW235050   3.986   5.793  11.875  0.6695 -0.8316 -1.0290
 9334SOL     OW35051   7.931   2.903   7.803  0.4765  0.3365 -0.1489
 9334SOL    HW135052   7.934   2.927   7.896 -0.2458 -0.9780  0.2445
 9334SOL    HW235053   7.955   2.811   7.801 -2.0115 -0.3768 -0.9335
 9335SOL     OW35054   6.327   5.048   6.610 -0.1088  0.0275 -0.3235
 9335SOL    HW135055   6.344   4.954   6.619  0.6985  0.0740 -1.2262
 9335SOL    HW235056   6.413   5.088   6.616 -0.3573  0.6388 -0.7838
 9336SOL     OW35057  12.147   6.035   4.575 -0.3613 -0.3871  0.2142
 9336SOL    HW135058  12.135   5.968   4.508  2.0004 -1.5483  0.8193
 9336SOL    HW235059  12.176   6.113   4.528  1.0005 -1.1098 -0.2059
 9337SOL     OW35060  10.583   8.463   7.540  0.1222  0.4390  0.0894
 9337SOL    HW135061  10.591   8.557   7.528  1.3831  0.1933 -1.1598
 9337SOL    HW235062  10.670   8.434   7.567  0.6645 -0.7595 -2.6422
 9338SOL     OW35063  10.436   6.403  10.290 -0.3872 -0.0338  0.7562
 9338SOL    HW135064  10.473   6.401  10.379  0.3562 -1.7887  0.4456
 9338SOL    HW235065  10.493   6.462  10.242 -0.9325  1.1219  1.4720
 9339SOL     OW35066   1.769   1.608   9.823  0.5194 -0.3335 -0.3136
 9339SOL    HW135067   1.782   1.608   9.918  0.1603 -0.1610 -0.2624
 9339SOL    HW235068   1.705   1.538   9.807 -0.5149  0.5800 -0.2659
 9340SOL     OW35069   5.958   3.839  11.192  0.5893  0.1183 -0.3525
 9340SOL    HW135070   6.039   3.837  11.142 -0.0966 -0.6398 -1.4747
 9340SOL    HW235071   5.895   3.883  11.135 -0.7223 -2.4672 -1.0675
 9341SOL     OW35072   2.354   6.807  10.382  0.8426 -0.0491  0.1613
 9341SOL    HW135073   2.401   6.766  10.455  0.0687 -0.5047  0.4164
 9341SOL    HW235074   2.274   6.842  10.422  1.3000  1.3890 -0.1217
 9342SOL     OW35075  10.930  12.243   3.968 -0.1215  0.2040  0.2055
 9342SOL    HW135076  10.879  12.306   4.018  0.4550 -0.1942  1.3166
 9342SOL    HW235077  10.871  12.168   3.955 -0.1833  0.1991  0.5187
 9343SOL     OW35078   3.453   9.488   4.133  0.0408  0.4480 -0.8115
 9343SOL    HW135079   3.500   9.516   4.054  0.0952 -0.3012 -1.0458
 9343SOL    HW235080   3.429   9.397   4.116  0.8535 -0.0140  0.3992
 9344SOL     OW35081  10.356  11.423   8.695 -0.3215 -0.0255 -0.2957
 9344SOL    HW135082  10.416  11.481   8.741 -0.9882  0.7181 -0.3356
 9344SOL    HW235083  10.410  11.379   8.629  0.2014  0.5403 -0.2460
 9345SOL     OW35084   1.838   5.501   5.733  0.2393 -0.4577  0.4627
 9345SOL    HW135085   1.919   5.512   5.782 -0.9094  0.3379  2.2700
 9345SOL    HW235086   1.853   5.548   5.651  0.5772  2.3727  2.0354
 9346SOL     OW35087   1.083   7.152  12.189  0.1714  0.4517 -0.2221
 9346SOL    HW135088   1.175   7.164  12.215  0.5923  0.6915 -1.7293
 9346SOL    HW235089   1.055   7.238  12.160 -0.6881  0.4758  0.6493
 9347SOL     OW35090   6.215  10.619   6.660 -0.7324 -0.1795 -0.2512
 9347SOL    HW135091   6.275  10.556   6.700 -0.2304 -0.0767 -0.8218
 9347SOL    HW235092   6.138  10.618   6.716 -0.8025 -1.4281 -0.3342
 9348SOL     OW35093   2.386   9.522   3.240  0.3883 -0.1698 -0.5340
 9348SOL    HW135094   2.331   9.471   3.181 -0.1445  1.3456 -1.3949
 9348SOL    HW235095   2.325   9.584   3.282  1.0985  0.1137  0.1072
 9349SOL     OW35096   1.648   7.355   0.636  0.4683  0.1892  0.0993
 9349SOL    HW135097   1.696   7.430   0.671  1.7871 -0.8256  0.5332
 9349SOL    HW235098   1.640   7.375   0.542  0.0087  1.2806  0.3524
 9350SOL     OW35099  12.056  10.325   8.661 -0.2167 -0.1932 -0.1541
 9350SOL    HW135100  12.004  10.396   8.700 -0.9565 -0.4174 -0.7155
 9350SOL    HW235101  12.019  10.245   8.699  1.2470 -0.2736  1.2429
 9351SOL     OW35102   8.638   7.527   5.753  0.0668  0.1700  0.2293
 9351SOL    HW135103   8.555   7.572   5.769 -0.0900 -0.1489  0.3240
 9351SOL    HW235104   8.612   7.441   5.721  0.3389 -0.6627  2.1483
 9352SOL     OW35105   0.291   0.708   9.819  0.6663 -0.1057 -0.4679
 9352SOL    HW135106   0.384   0.725   9.834  0.5314  1.3367 -1.0872
 9352SOL    HW235107   0.263   0.658   9.895  1.6641  0.5441  0.3525
 9353SOL     OW35108  12.186   1.313   3.504  0.3983 -0.3967 -0.2154
 9353SOL    HW135109  12.135   1.391   3.526  1.0706 -0.5057  2.0060
 9353SOL    HW235110  12.141   1.242   3.549  0.2809 -1.1842 -1.5253
 9354SOL     OW35111   0.363   5.185   0.549  0.3016 -0.7237 -0.1216
 9354SOL    HW135112   0.330   5.174   0.638  1.3872 -1.9884  0.1538
 9354SOL    HW235113   0.361   5.097   0.511  0.3260 -0.2850 -1.1804
 9355SOL     OW35114   0.206   5.885   9.214  0.0350 -0.5069 -0.0581
 9355SOL    HW135115   0.167   5.971   9.196 -2.0765 -1.5702 -0.9810
 9355SOL    HW235116   0.209   5.879   9.309  3.1068  1.7290  0.1401
 9356SOL     OW35117  10.349   8.345  11.467  0.2851  0.1661 -0.2778
 9356SOL    HW135118  10.365   8.438  11.450  0.5687  0.2107  0.2056
 9356SOL    HW235119  10.257   8.332  11.443 -0.1314  0.8660  0.8359
 9357SOL     OW35120   7.441   7.141   3.594  0.1466  0.2366  0.1479
 9357SOL    HW135121   7.471   7.223   3.555 -0.0458 -0.1798 -0.9031
 9357SOL    HW235122   7.373   7.168   3.656 -1.6409  0.7424 -1.9052
 9358SOL     OW35123   3.094   3.062   7.192 -0.3984 -0.5294 -0.3227
 9358SOL    HW135124   3.094   3.077   7.286  2.2618  1.1402 -0.4874
 9358SOL    HW235125   3.002   3.054   7.168 -1.2031  0.5791  2.1742
 9359SOL     OW35126  11.081   4.878   3.382  0.5126 -0.1368 -0.1617
 9359SOL    HW135127  11.117   4.791   3.364  1.7694  0.4367 -0.5890
 9359SOL    HW235128  10.987   4.865   3.387  0.3220 -1.0225 -3.4755
 9360SOL     OW35129   5.422  11.084   6.949  0.1018  0.1622 -0.6250
 9360SOL    HW135130   5.409  10.989   6.956  0.0529  0.2845  1.4697
 9360SOL    HW235131   5.352  11.122   7.002  0.2558  1.3863 -1.2588
 9361SOL     OW35132   4.016   6.512   3.876 -0.0506 -0.0084  0.2279
 9361SOL    HW135133   3.979   6.424   3.888 -1.0662  0.5758  1.6359
 9361SOL    HW235134   4.030   6.519   3.782 -0.1614 -1.5889  0.0584
 9362SOL     OW35135   2.017   6.271   1.373  0.1470 -0.6129 -0.3037
 9362SOL    HW135136   2.107   6.277   1.406 -0.2327 -1.1599  0.9063
 9362SOL    HW235137   2.005   6.178   1.353 -0.1758 -0.5576 -0.3692
 9363SOL     OW35138   6.977   1.509   6.098  0.0863 -0.0066 -0.0130
 9363SOL    HW135139   7.001   1.511   6.006 -0.5660  0.5004 -0.1801
 9363SOL    HW235140   6.884   1.487   6.099  0.5513 -2.2083  0.6301
 9364SOL     OW35141   6.716   3.300   5.830  0.1328  0.4207 -0.0238
 9364SOL    HW135142   6.755   3.213   5.841 -0.6598  0.1963  1.2671
 9364SOL    HW235143   6.664   3.293   5.750 -0.0770 -0.3630  0.1739
 9365SOL     OW35144   7.967  10.122  11.759 -0.0948 -0.2517 -0.0485
 9365SOL    HW135145   7.961  10.186  11.829  3.2362 -0.1632  0.3192
 9365SOL    HW235146   8.059  10.093  11.760 -0.7765 -2.9305 -2.0408
 9366SOL     OW35147   3.803  11.534  11.654  0.2149  0.2566  0.4451
 9366SOL    HW135148   3.725  11.547  11.708 -0.3588  1.2026 -0.5682
 9366SOL    HW235149   3.799  11.605  11.590  2.0860  0.5181  0.5728
 9367SOL     OW35150   4.768  11.006   1.515 -0.9944  0.6705 -1.0817
 9367SOL    HW135151   4.830  11.041   1.451 -0.0573  0.0236 -0.5463
 9367SOL    HW235152   4.743  11.081   1.568  1.3514  0.5234  0.3552
 9368SOL     OW35153   7.571   4.018   9.235  0.5098 -0.1494  0.0016
 9368SOL    HW135154   7.610   3.948   9.183  0.2122 -0.0985 -0.2847
 9368SOL    HW235155   7.497   3.977   9.280  0.3367 -0.0159 -0.1641
 9369SOL     OW35156  10.267   0.610   5.761  0.5815 -0.0526 -0.3790
 9369SOL    HW135157  10.210   0.639   5.833  0.1941 -0.4670 -0.5141
 9369SOL    HW235158  10.285   0.689   5.711  0.5178  0.1671 -0.0563
 9370SOL     OW35159   0.916   9.950   5.387  0.1868 -0.3457 -0.5400
 9370SOL    HW135160   0.985  10.000   5.345  0.4400 -0.7328 -0.5839
 9370SOL    HW235161   0.927   9.860   5.355  1.4502 -1.0388  1.6342
 9371SOL     OW35162   5.681   9.889   0.760 -0.3400  0.3086 -0.0979
 9371SOL    HW135163   5.632   9.972   0.760  0.5360  0.8331 -0.0589
 9371SOL    HW235164   5.620   9.826   0.721 -0.6882  1.1787 -1.0176
 9372SOL     OW35165  12.491   0.925   3.628  0.4990 -0.4142  0.0297
 9372SOL    HW135166  12.401   0.921   3.659  0.8534 -0.2882  1.0991
 9372SOL    HW235167  12.532   0.993   3.682  0.5138  1.6335 -2.3687
 9373SOL     OW35168   7.580   5.981   6.700 -0.0971 -0.2742 -0.2347
 9373SOL    HW135169   7.627   6.055   6.739 -0.4026 -0.7663  1.0991
 9373SOL    HW235170   7.635   5.905   6.718  0.3841 -0.3680 -1.8913
 9374SOL     OW35171   0.582   8.931   2.760  0.6569  0.0868 -0.5457
 9374SOL    HW135172   0.613   8.841   2.746 -0.4431 -0.8891  2.4424
 9374SOL    HW235173   0.620   8.981   2.689  2.4073 -2.5046 -1.5742
 9375SOL     OW35174  10.562   9.068   7.613 -0.6576 -0.2513 -0.5239
 9375SOL    HW135175  10.590   9.155   7.640  0.5106 -0.9096  0.5037
 9375SOL    HW235176  10.509   9.083   7.535 -0.4134  1.3623 -0.4156
 9376SOL     OW35177   1.453  11.008   7.613  0.3189  0.4410  0.1903
 9376SOL    HW135178   1.473  11.101   7.625  2.8694  0.1111 -0.7523
 9376SOL    HW235179   1.538  10.964   7.620 -0.8252 -1.8555  0.6945
 9377SOL     OW35180   9.703   3.506   6.150  0.1400  0.6650  0.2759
 9377SOL    HW135181   9.621   3.463   6.174 -0.2196  0.2857 -1.4583
 9377SOL    HW235182   9.771   3.443   6.172 -0.1159  0.5235  0.6798
 9378SOL     OW35183   0.203   5.209  11.081  0.2619 -0.0215  0.4584
 9378SOL    HW135184   0.246   5.288  11.114  0.2925  0.1605 -0.0184
 9378SOL    HW235185   0.266   5.139  11.098 -0.9830 -0.5361  3.8400
 9379SOL     OW35186   2.139   6.623   8.463 -0.1131 -0.2580 -0.1900
 9379SOL    HW135187   2.051   6.648   8.433  0.4451  0.6132 -1.1947
 9379SOL    HW235188   2.165   6.552   8.406 -0.3450 -0.8539  0.4316
 9380SOL     OW35189   1.172   3.074   1.479 -0.5800  0.2080 -0.6338
 9380SOL    HW135190   1.125   3.144   1.434 -0.4432  1.1017  0.5788
 9380SOL    HW235191   1.115   3.050   1.552 -0.4419 -0.6898 -0.8051
 9381SOL     OW35192   0.118   5.734   8.881  0.1125 -0.1165 -0.1807
 9381SOL    HW135193   0.088   5.825   8.884 -0.6982 -0.3945  2.3765
 9381SOL    HW235194   0.205   5.736   8.922 -1.1909 -0.8420  2.8522
 9382SOL     OW35195   1.118   9.882   0.529  0.3418 -0.0335 -0.7416
 9382SOL    HW135196   1.022   9.885   0.522  0.2229  0.4814  0.7406
 9382SOL    HW235197   1.134   9.832   0.609  1.3619 -1.2652 -1.6824
 9383SOL     OW35198  11.368   2.017   0.535 -0.0078  0.2614  0.1496
 9383SOL    HW135199  11.369   2.113   0.537 -0.1800  0.2643  0.1050
 9383SOL    HW235200  11.412   1.991   0.616 -0.2643  0.3773  0.3263
 9384SOL     OW35201   3.324   3.152   3.319  0.4118 -0.2470  0.2860
 9384SOL    HW135202   3.407   3.172   3.275 -0.4068  0.0884 -1.1678
 9384SOL    HW235203   3.280   3.090   3.261  0.1690 -1.3938  1.6613
 9385SOL     OW35204   3.027   8.949   0.968 -0.4104  0.2484  0.1994
 9385SOL    HW135205   3.089   8.876   0.968 -1.9633 -1.1110 -0.6004
 9385SOL    HW235206   3.011   8.967   1.061  0.9403  0.4528  0.4178
 9386SOL     OW35207  12.201   0.565   4.393 -0.1917  0.0020  0.6120
 9386SOL    HW135208  12.130   0.618   4.428 -0.1016  1.4690 -1.2614
 9386SOL    HW235209  12.162   0.518   4.319  0.5279 -0.0175  0.2373
 9387SOL     OW35210   4.442   4.433   0.283  0.0418  0.3362 -0.1358
 9387SOL    HW135211   4.505   4.480   0.338  0.3688  0.1118 -0.3149
 9387SOL    HW235212   4.397   4.502   0.235 -0.7648  0.5888  0.9515
 9388SOL     OW35213   3.849  12.153   6.874 -0.1994  0.3623  0.0069
 9388SOL    HW135214   3.810  12.067   6.890 -0.3080  0.3851 -0.1323
 9388SOL    HW235215   3.896  12.142   6.791  1.6600 -0.2016  1.0593
 9389SOL     OW35216  10.744   2.082   7.048 -0.1284  0.8197  0.0996
 9389SOL    HW135217  10.733   2.177   7.040 -1.5015  0.5722 -1.7836
 9389SOL    HW235218  10.655   2.049   7.063 -0.3771 -0.4128 -3.1873
 9390SOL     OW35219   8.729  10.696   2.410 -0.4359 -0.5371 -0.1000
 9390SOL    HW135220   8.707  10.630   2.476  0.4869 -1.1744 -0.4014
 9390SOL    HW235221   8.768  10.645   2.338 -0.3201  0.2705 -0.6240
 9391SOL     OW35222  12.094   3.404   8.568  0.3427 -0.5787  0.3450
 9391SOL    HW135223  12.140   3.344   8.626  1.6361 -0.5947 -0.6621
 9391SOL    HW235224  12.013   3.425   8.614  0.2074 -2.5122  1.0394
 9392SOL     OW35225   9.461  12.515   8.306 -0.3271  0.0958 -0.4525
 9392SOL    HW135226   9.369  12.496   8.325  0.0144 -1.2695 -0.0354
 9392SOL    HW235227   9.499  12.430   8.283  1.7677 -0.1960  3.3284
 9393SOL     OW35228   7.651   3.281   4.615  0.1836 -0.5156 -0.3085
 9393SOL    HW135229   7.679   3.329   4.537 -0.7631 -2.0208 -1.6309
 9393SOL    HW235230   7.582   3.223   4.584 -0.6246 -0.7485  1.7860
 9394SOL     OW35231  11.216   8.651   6.674 -0.1355 -0.8889  0.1879
 9394SOL    HW135232  11.254   8.608   6.597 -0.0670  1.4794 -1.1819
 9394SOL    HW235233  11.156   8.585   6.710 -1.2149 -1.6469 -2.6843
 9395SOL     OW35234   4.446   0.705   7.423 -0.0190 -0.0575  0.4150
 9395SOL    HW135235   4.475   0.661   7.343 -0.1092  2.8191 -1.3391
 9395SOL    HW235236   4.495   0.661   7.493  1.4815 -1.4776 -1.3938
 9396SOL     OW35237   2.808   1.973   5.851  0.1849 -0.4508  0.1868
 9396SOL    HW135238   2.823   2.062   5.818 -1.4740 -0.2056  0.0372
 9396SOL    HW235239   2.881   1.922   5.815  1.0951  0.8110  0.1712
 9397SOL     OW35240   5.053   6.483   0.187  0.0778 -0.6035  0.6598
 9397SOL    HW135241   4.969   6.460   0.148 -0.3911  0.8016  0.7584
 9397SOL    HW235242   5.113   6.414   0.159 -0.3996 -0.0617 -1.9382
 9398SOL     OW35243   4.257   5.574   3.677 -0.1499 -0.0824  0.2411
 9398SOL    HW135244   4.333   5.538   3.630  1.1026 -0.0534  2.1208
 9398SOL    HW235245   4.189   5.508   3.666 -0.0937  0.1376 -1.9584
 9399SOL     OW35246   0.918  11.256   4.475 -0.0668 -0.3725  0.0154
 9399SOL    HW135247   1.008  11.228   4.490 -0.0124  0.3018  1.0616
 9399SOL    HW235248   0.921  11.303   4.392  0.5201 -0.4352 -0.0038
 9400SOL     OW35249   7.414  12.484   7.767 -0.1794  0.0250 -0.0674
 9400SOL    HW135250   7.410  12.510   7.675 -0.1734  0.8615  0.1628
 9400SOL    HW235251   7.480  12.414   7.770 -1.7637 -1.5880 -1.0544
 9401SOL     OW35252   6.961   7.716   9.291  0.1289  0.5717  0.4062
 9401SOL    HW135253   6.883   7.748   9.336 -1.3551 -2.2938  0.0817
 9401SOL    HW235254   6.961   7.622   9.307  1.8195  0.0416 -2.1971
 9402SOL     OW35255  11.184   0.940   1.688 -0.2393 -0.7857 -0.4888
 9402SOL    HW135256  11.177   1.024   1.734  1.4820 -2.0822  2.4385
 9402SOL    HW235257  11.261   0.950   1.632  1.5109 -1.0783  1.7188
 9403SOL     OW35258   1.467   3.078   3.470  0.0045 -0.0777 -0.6488
 9403SOL    HW135259   1.553   3.035   3.466  1.5502  2.4394  1.7126
 9403SOL    HW235260   1.422   3.034   3.543  0.8136  0.8953  0.4902
 9404SOL     OW35261   4.077  11.004   0.189  0.3754 -0.3037  1.3684
 9404SOL    HW135262   4.145  11.040   0.245  0.6703 -0.7713  1.3149
 9404SOL    HW235263   4.007  11.069   0.191  2.0059  1.6843 -0.9982
 9405SOL     OW35264   8.051   2.218   4.235 -0.0554  0.3327  0.7720
 9405SOL    HW135265   8.030   2.283   4.302 -0.0606  0.8147  0.3000
 9405SOL    HW235266   8.143   2.232   4.215  0.7310 -1.6137  2.6513
 9406SOL     OW35267  10.202   3.140  11.305  0.6652 -0.4136 -0.4480
 9406SOL    HW135268  10.161   3.096  11.231  0.2613 -0.8506  0.0321
 9406SOL    HW235269  10.212   3.073  11.372  0.7607  0.0409  0.0054
 9407SOL     OW35270   7.015   8.170   7.871 -0.1108 -0.5455 -0.5406
 9407SOL    HW135271   7.005   8.112   7.946  2.2805  0.9826  1.0884
 9407SOL    HW235272   7.065   8.244   7.904  0.2985  0.6248 -3.4653
 9408SOL     OW35273   6.862  10.351   6.551 -0.1860 -0.2392  0.1236
 9408SOL    HW135274   6.794  10.418   6.563 -0.6405 -0.8559  1.1624
 9408SOL    HW235275   6.909  10.379   6.473 -0.9086  0.8289  0.0384
 9409SOL     OW35276   2.727  10.518   6.971  0.1875  0.5894 -0.2083
 9409SOL    HW135277   2.640  10.519   7.010 -0.1681  3.0154 -0.9422
 9409SOL    HW235278   2.757  10.428   6.983 -2.1011 -0.1217  0.7165
 9410SOL     OW35279   7.267   1.383   1.671  0.1892 -0.2325  0.0243
 9410SOL    HW135280   7.264   1.317   1.601  1.1998  0.0272 -0.2812
 9410SOL    HW235281   7.353   1.371   1.711  0.3844  0.8869 -0.0253
 9411SOL     OW35282  12.437   4.347  11.598  0.0267 -0.1303 -0.0344
 9411SOL    HW135283  12.384   4.367  11.521  2.4454 -0.5108 -1.9204
 9411SOL    HW235284  12.519   4.395  11.584  0.6637 -0.4672  2.1716
 9412SOL     OW35285   3.935  10.815  11.473 -0.6467 -0.1543  0.3143
 9412SOL    HW135286   3.863  10.836  11.414 -0.0598  0.9757 -0.0382
 9412SOL    HW235287   3.983  10.745  11.427 -0.7817 -0.0113 -0.0512
 9413SOL     OW35288   8.353   8.966   6.258  0.6102 -0.5332 -0.0873
 9413SOL    HW135289   8.313   9.053   6.258  0.3368 -0.6585 -0.3291
 9413SOL    HW235290   8.416   8.969   6.330  1.0315  0.0614 -0.4666
 9414SOL     OW35291   4.556  10.986  10.009 -0.4109  0.5011  0.0764
 9414SOL    HW135292   4.615  10.919  10.044  0.0782  0.5409 -0.6524
 9414SOL    HW235293   4.607  11.030   9.941 -1.5255  0.0599 -1.0688
 9415SOL     OW35294   0.819   4.981  10.888  0.0695  0.0194 -0.4686
 9415SOL    HW135295   0.830   5.058  10.833  0.9379  0.7505  0.6766
 9415SOL    HW235296   0.730   4.989  10.923  0.6533  1.3595  0.8283
 9416SOL     OW35297   2.331  10.551   2.719 -0.2030 -0.4530 -0.2233
 9416SOL    HW135298   2.401  10.486   2.726 -0.6428 -0.8366  0.9613
 9416SOL    HW235299   2.340  10.605   2.797  0.1862  0.9730 -1.2143
 9417SOL     OW35300   2.937  12.050   2.512 -0.5246 -0.0688 -0.0521
 9417SOL    HW135301   2.980  12.040   2.427  0.4503 -2.1383  0.6263
 9417SOL    HW235302   2.863  11.990   2.509 -1.0915  0.6035  0.2127
 9418SOL     OW35303  11.980   3.235   3.292  0.6125 -0.5449  0.2494
 9418SOL    HW135304  12.062   3.265   3.330  1.3524 -1.3601 -0.6499
 9418SOL    HW235305  11.912   3.282   3.341  1.5006 -1.5193  2.5379
 9419SOL     OW35306   2.674   9.096  10.767 -0.1313  0.0963  0.1609
 9419SOL    HW135307   2.705   9.006  10.764  1.6323  0.6761 -0.1123
 9419SOL    HW235308   2.696   9.132  10.681  0.5717  1.2078  0.7817
 9420SOL     OW35309   7.078   4.599   1.532  0.7252 -0.0119 -0.1157
 9420SOL    HW135310   6.998   4.547   1.522  1.6092 -1.0278 -2.8712
 9420SOL    HW235311   7.054   4.686   1.498  0.5577 -0.0572 -0.1172
 9421SOL     OW35312  11.917   6.666   9.478  0.0403  0.7536  0.1080
 9421SOL    HW135313  11.945   6.577   9.459 -0.5943  0.4909  0.3569
 9421SOL    HW235314  11.991   6.707   9.523  0.0743  0.1274  0.6272
 9422SOL     OW35315  11.997   0.304   3.025 -0.5986 -0.0703  0.4954
 9422SOL    HW135316  11.911   0.276   2.993 -0.5132 -0.3890  0.5360
 9422SOL    HW235317  12.054   0.229   3.008 -0.6102 -0.3534  1.6177
 9423SOL     OW35318   2.087  11.131  12.481  0.1417  0.1527 -0.0525
 9423SOL    HW135319   2.059  11.221  12.496  0.7643  0.6344 -1.5735
 9423SOL    HW235320   2.133  11.134  12.397  0.7853 -1.4530  0.2042
 9424SOL     OW35321   3.190   0.892   7.809  0.0476  0.8950 -0.4594
 9424SOL    HW135322   3.257   0.923   7.748 -0.7811  1.0086 -1.3226
 9424SOL    HW235323   3.240   0.854   7.882  1.0504  0.6902 -1.2329
 9425SOL     OW35324   6.062  11.050   5.378 -0.2916 -0.5826  0.4119
 9425SOL    HW135325   6.077  11.026   5.469  0.3605  0.6737  0.6458
 9425SOL    HW235326   5.968  11.034   5.365 -0.2958 -1.2238  1.1516
 9426SOL     OW35327   0.861   2.690   7.169  0.2225 -0.0529  0.1251
 9426SOL    HW135328   0.865   2.596   7.188  1.6646 -0.3924 -1.5933
 9426SOL    HW235329   0.924   2.728   7.231 -1.4112  0.0146  1.8147
 9427SOL     OW35330  12.336   1.405   6.847 -0.8503 -0.2495 -0.3894
 9427SOL    HW135331  12.421   1.393   6.806  0.4144 -0.7916  2.1729
 9427SOL    HW235332  12.353   1.395   6.941 -3.7804 -0.5847  0.2093
 9428SOL     OW35333   2.604  10.565   2.506  0.6384  0.5429  0.4538
 9428SOL    HW135334   2.676  10.615   2.544  0.3430 -0.8985  3.1991
 9428SOL    HW235335   2.647  10.490   2.465  0.7992 -0.0901  1.7148
 9429SOL     OW35336   1.803  11.565   3.119 -0.5438 -0.0568  0.1383
 9429SOL    HW135337   1.819  11.471   3.126 -0.4736 -0.2879 -2.3226
 9429SOL    HW235338   1.708  11.574   3.127 -0.5721 -0.3502  0.1235
 9430SOL     OW35339  11.427   1.672  11.734  0.0633  0.1339 -0.2449
 9430SOL    HW135340  11.469   1.695  11.651  0.1288 -1.6979 -0.7797
 9430SOL    HW235341  11.460   1.584  11.753 -0.6057  0.1924  1.2987
 9431SOL     OW35342   9.730   3.960  12.150  0.5543 -0.1360  0.5538
 9431SOL    HW135343   9.764   4.004  12.229  0.1796  0.6147  0.3093
 9431SOL    HW235344   9.653   4.011  12.127 -1.0116 -2.0560  1.3361
 9432SOL     OW35345   4.775   4.177   3.166  0.4494 -0.5094  0.4471
 9432SOL    HW135346   4.698   4.209   3.120  0.3653 -1.2867  0.0397
 9432SOL    HW235347   4.785   4.087   3.138  1.4778 -0.4428  0.5469
 9433SOL     OW35348   6.032   8.876   9.181  0.3307 -0.3511 -0.0844
 9433SOL    HW135349   6.011   8.820   9.106 -1.5470  0.9525 -0.5853
 9433SOL    HW235350   6.061   8.958   9.143  0.7091 -0.1376  0.6400
 9434SOL     OW35351   7.542  10.634   4.421  0.4142 -0.5328  0.2315
 9434SOL    HW135352   7.457  10.615   4.381  1.4213 -1.9970 -1.3401
 9434SOL    HW235353   7.556  10.727   4.403  0.2184 -0.8342 -1.7428
 9435SOL     OW35354   0.422   8.865   6.470  0.1702  0.2636  0.4234
 9435SOL    HW135355   0.381   8.888   6.386 -0.9844  0.5958  1.0666
 9435SOL    HW235356   0.419   8.769   6.473 -1.5336  0.3091  0.9225
 9436SOL     OW35357   4.610   3.762   3.774 -0.1976 -0.2121 -0.5261
 9436SOL    HW135358   4.594   3.759   3.680  1.5763  0.6678 -0.8945
 9436SOL    HW235359   4.554   3.693   3.810 -2.0725  0.4335 -2.0056
 9437SOL     OW35360  12.328   2.794   7.440  0.2315 -0.2117 -0.1128
 9437SOL    HW135361  12.340   2.884   7.409 -1.1753  1.0302  2.6188
 9437SOL    HW235362  12.409   2.774   7.486 -1.0298  1.5437  3.2347
 9438SOL     OW35363   8.529  11.605   2.358 -0.3956  0.4119  0.3161
 9438SOL    HW135364   8.504  11.564   2.441 -2.7854  1.4436  0.1673
 9438SOL    HW235365   8.580  11.681   2.384 -0.4478  0.2863  0.8028
 9439SOL     OW35366   0.553  11.430   0.040  0.2498 -0.2956 -0.5203
 9439SOL    HW135367   0.567  11.387  -0.044  0.0448 -0.7434 -0.3303
 9439SOL    HW235368   0.511  11.513   0.018  0.0152 -0.4978 -0.8514
 9440SOL     OW35369   8.495   4.206   2.525  0.5713  0.0404  0.2093
 9440SOL    HW135370   8.440   4.228   2.600 -0.6320  0.8062 -0.8720
 9440SOL    HW235371   8.477   4.113   2.508  0.0005  0.1556  0.1765
 9441SOL     OW35372  10.033  10.952   6.513  0.6941 -0.1683 -0.2676
 9441SOL    HW135373  10.020  10.922   6.603  0.8563  0.4723 -0.0258
 9441SOL    HW235374  10.075  10.878   6.469  0.2397 -0.6368  0.0709
 9442SOL     OW35375   4.237   7.415  11.537  0.0721 -0.3827  0.1840
 9442SOL    HW135376   4.233   7.350  11.608 -0.0131 -0.5683  0.0116
 9442SOL    HW235377   4.168   7.477  11.558  1.2012  0.5664  1.2276
 9443SOL     OW35378  10.498   1.167   4.581  0.6660 -0.4462 -0.0403
 9443SOL    HW135379  10.466   1.200   4.665  0.7158  1.9295 -0.8969
 9443SOL    HW235380  10.460   1.079   4.574 -1.9234  0.4781  1.0560
 9444SOL     OW35381   7.735   8.038   8.905  0.0778  0.3868  0.6226
 9444SOL    HW135382   7.788   7.961   8.922  2.1477  1.7405  0.6136
 9444SOL    HW235383   7.692   8.057   8.988 -2.3191 -1.9973  0.0848
 9445SOL     OW35384   2.065   6.241   4.637 -0.0683 -0.3745  0.2315
 9445SOL    HW135385   1.996   6.176   4.650  0.5185 -0.6721  2.1999
 9445SOL    HW235386   2.112   6.210   4.560 -1.5313 -0.6921 -0.5700
 9446SOL     OW35387   7.237   1.080   9.696 -0.3415 -0.1537  0.2734
 9446SOL    HW135388   7.217   1.121   9.612 -0.8836  0.3338  0.6356
 9446SOL    HW235389   7.186   1.129   9.760 -2.4576 -2.4780  0.5299
 9447SOL     OW35390   7.132   8.805   0.526 -0.0609 -0.3218 -0.2084
 9447SOL    HW135391   7.114   8.838   0.438  0.6718  0.9552  0.0964
 9447SOL    HW235392   7.197   8.736   0.513  0.4529  0.2317 -0.6395
 9448SOL     OW35393   9.810   8.264   8.660  0.7607 -0.9134  0.0417
 9448SOL    HW135394   9.860   8.343   8.637 -1.0089 -0.1418 -1.4097
 9448SOL    HW235395   9.853   8.194   8.611  0.4218 -0.2494 -1.2478
 9449SOL     OW35396   4.370   3.271  11.541 -0.2769 -0.3501  0.6522
 9449SOL    HW135397   4.350   3.249  11.632  0.2540  0.9083  1.0912
 9449SOL    HW235398   4.448   3.326  11.546 -0.4571  0.0479 -0.5461
 9450SOL     OW35399   2.431   4.146   5.194  0.5149  0.1484  0.2154
 9450SOL    HW135400   2.496   4.133   5.125 -0.0110 -0.4711 -0.1700
 9450SOL    HW235401   2.359   4.192   5.150  1.0549  1.6674  0.8504
 9451SOL     OW35402   6.992  10.010   6.857  0.2107  0.9708 -0.7440
 9451SOL    HW135403   7.008  10.027   6.764  0.5480 -1.0440 -1.0881
 9451SOL    HW235404   6.937   9.932   6.858 -0.2308  1.2663  0.7622
 9452SOL     OW35405   6.162  12.479   7.997 -0.1122  0.3763  0.3297
 9452SOL    HW135406   6.132  12.415   7.932  2.0743 -2.3350  1.7756
 9452SOL    HW235407   6.170  12.561   7.948 -3.7527 -0.1099 -1.4644
 9453SOL     OW35408   8.237   0.959  12.311 -0.1072  0.2985 -0.5462
 9453SOL    HW135409   8.170   0.900  12.277 -1.6934  2.0075 -0.4961
 9453SOL    HW235410   8.242   1.029  12.247  1.1839  0.5490 -0.2022
 9454SOL     OW35411  11.109   3.722   5.376 -0.3402 -0.1542  0.3356
 9454SOL    HW135412  11.057   3.801   5.390  0.6273  0.8759 -1.4657
 9454SOL    HW235413  11.073   3.683   5.296  0.9521  0.0192 -0.3639
 9455SOL     OW35414   4.590   2.933  12.090  0.2164  0.1993 -0.0775
 9455SOL    HW135415   4.527   2.899  12.027 -0.1339  0.8592 -0.0912
 9455SOL    HW235416   4.539   2.944  12.171  0.7590 -1.0461  0.4542
 9456SOL     OW35417   9.846   3.870  10.433 -0.1515 -0.8847 -0.5537
 9456SOL    HW135418   9.876   3.906  10.516 -0.2270 -0.9257 -0.5084
 9456SOL    HW235419   9.810   3.944  10.386  0.7393 -0.6877 -0.9384
 9457SOL     OW35420   6.337   2.907   2.874  0.4257 -0.1370  0.8670
 9457SOL    HW135421   6.356   2.816   2.894 -1.6170 -1.5852 -2.7857
 9457SOL    HW235422   6.242   2.915   2.884  0.5893  1.7034  1.3808
 9458SOL     OW35423   1.814   4.610  10.164 -0.2534 -0.1415 -0.4702
 9458SOL    HW135424   1.725   4.639  10.184  0.0677 -0.3412  1.3332
 9458SOL    HW235425   1.871   4.671  10.211  0.5086 -1.3216  0.1948
 9459SOL     OW35426   9.607  10.641   6.574 -0.5539 -0.1040 -0.0086
 9459SOL    HW135427   9.638  10.630   6.484  0.8178 -2.3881  0.6594
 9459SOL    HW235428   9.523  10.595   6.576 -0.9446  0.5788 -0.2663
 9460SOL     OW35429   1.605   1.929   0.009 -0.7482 -0.1638  0.3052
 9460SOL    HW135430   1.684   1.877   0.027 -0.8704 -0.6036 -0.4242
 9460SOL    HW235431   1.532   1.868   0.023 -0.9923  0.3447  1.3612
 9461SOL     OW35432   7.522  12.547   0.579 -0.0291  0.1582  0.5013
 9461SOL    HW135433   7.616  12.533   0.570 -0.1368 -0.3958  0.1464
 9461SOL    HW235434   7.513  12.639   0.603  0.5853  0.3094  0.1791
 9462SOL     OW35435   8.793  12.486   8.424 -0.5511 -0.2815  0.2299
 9462SOL    HW135436   8.796  12.560   8.485 -1.3044  1.5480 -1.8034
 9462SOL    HW235437   8.868  12.432   8.448  2.9690  3.5707 -1.0044
 9463SOL     OW35438  10.698  11.375  10.196 -0.3945 -0.0820 -0.0469
 9463SOL    HW135439  10.678  11.465  10.172 -2.7020 -0.4889  0.0470
 9463SOL    HW235440  10.767  11.382  10.262 -0.2154  1.5764 -0.3725
 9464SOL     OW35441  11.176   2.417   8.917  0.3606  0.3236  0.5002
 9464SOL    HW135442  11.186   2.497   8.865 -0.0898  0.0820  0.0355
 9464SOL    HW235443  11.144   2.352   8.855 -0.4351  0.0919  1.1354
 9465SOL     OW35444   0.770   2.195   6.652 -0.1291  0.0795 -0.7348
 9465SOL    HW135445   0.696   2.148   6.691 -0.6764  0.8345 -0.8284
 9465SOL    HW235446   0.728   2.263   6.598  0.6422  1.2489  0.1030
 9466SOL     OW35447   2.733   9.843   4.129 -0.1265  0.1139 -0.2567
 9466SOL    HW135448   2.643   9.839   4.162 -0.2994 -0.0130 -0.7414
 9466SOL    HW235449   2.785   9.805   4.199 -0.3847  0.6758  0.2561
 9467SOL     OW35450   9.904  11.758  11.398  0.3079 -0.2836 -0.3895
 9467SOL    HW135451   9.956  11.837  11.384  1.8266 -1.1767  0.0294
 9467SOL    HW235452   9.934  11.697  11.331 -1.3241 -0.3046 -1.1349
 9468SOL     OW35453  10.185   8.071   6.816  0.6983  0.2880  0.0689
 9468SOL    HW135454  10.167   8.009   6.746 -0.2226 -0.4511  0.9199
 9468SOL    HW235455  10.239   8.139   6.776  0.5224 -0.3231 -1.2373
 9469SOL     OW35456   8.456  10.800   7.941 -0.0083  0.1239  0.2020
 9469SOL    HW135457   8.361  10.791   7.947  0.1613 -1.2294  1.3566
 9469SOL    HW235458   8.478  10.761   7.857 -0.4252 -0.0529  0.1705
 9470SOL     OW35459  11.444   0.665  10.331  0.8377  0.4001  0.2706
 9470SOL    HW135460  11.437   0.575  10.298 -0.7824  0.0082  1.5438
 9470SOL    HW235461  11.458   0.718  10.253 -1.4480 -0.6329 -0.9452
 9471SOL     OW35462   2.212   6.548  12.445 -0.1715 -0.0773  0.0008
 9471SOL    HW135463   2.300   6.522  12.473 -0.3126 -1.8231 -0.9870
 9471SOL    HW235464   2.155   6.481  12.483 -0.8150 -0.1288 -1.0194
 9472SOL     OW35465   6.033   4.221   1.324  0.0602  0.6478  0.0807
 9472SOL    HW135466   6.032   4.164   1.401  0.5676 -1.6477 -1.5008
 9472SOL    HW235467   6.119   4.205   1.284 -0.1376  1.8979 -0.8869
 9473SOL     OW35468   8.937  12.042   7.672 -0.3283  0.1733  0.7606
 9473SOL    HW135469   8.905  12.082   7.753  0.6314  0.2738  1.1033
 9473SOL    HW235470   8.898  12.094   7.602 -0.6045  0.5206  1.1688
 9474SOL     OW35471   7.739   5.172  11.482  0.4786  0.3724  0.2348
 9474SOL    HW135472   7.794   5.105  11.440 -0.1578 -0.7403  1.1103
 9474SOL    HW235473   7.774   5.179  11.571 -0.9875 -0.6374  0.9288
 9475SOL     OW35474   4.151   0.309   8.805 -0.5565 -0.2278 -0.2684
 9475SOL    HW135475   4.124   0.278   8.892 -0.5326  1.7404  0.4954
 9475SOL    HW235476   4.069   0.314   8.755 -0.4981 -1.9195 -0.5794
 9476SOL     OW35477   4.620  11.043   5.007  1.2801 -0.7089  0.4896
 9476SOL    HW135478   4.626  10.997   4.923 -1.5575 -0.1385 -0.1122
 9476SOL    HW235479   4.575  10.982   5.065 -0.8637  0.5153  0.2120
 9477SOL     OW35480   1.872   1.732   2.021  0.3127  0.6086 -0.9873
 9477SOL    HW135481   1.946   1.744   1.962  0.9538  2.1542  0.1010
 9477SOL    HW235482   1.895   1.655   2.073  1.5828  1.6061 -0.0430
 9478SOL     OW35483  10.717   7.471   0.884 -0.2361  0.3224  0.7108
 9478SOL    HW135484  10.687   7.448   0.972 -0.2619  1.4600  1.0227
 9478SOL    HW235485  10.639   7.506   0.840 -0.0182  0.5937  0.5367
 9479SOL     OW35486  10.472  11.483   6.266  0.0120  0.1227 -0.1105
 9479SOL    HW135487  10.418  11.538   6.323  0.1401 -0.2383  0.3702
 9479SOL    HW235488  10.532  11.544   6.224  1.5345  0.1602  1.9524
 9480SOL     OW35489   5.675   7.037   6.607  0.0391  0.0657  0.1742
 9480SOL    HW135490   5.733   7.065   6.536  0.8769  0.8138  1.1264
 9480SOL    HW235491   5.713   7.076   6.686 -1.5542  0.2654  0.8850
 9481SOL     OW35492   2.840   1.808   7.711  0.5440 -0.0265  0.3949
 9481SOL    HW135493   2.779   1.816   7.785  0.1137  0.6101 -0.0162
 9481SOL    HW235494   2.838   1.715   7.689 -1.0630  0.1073 -0.2296
 9482SOL     OW35495   5.859   1.721   7.385  1.0491 -0.1221  0.3199
 9482SOL    HW135496   5.869   1.643   7.330  2.7735 -0.9131  1.6626
 9482SOL    HW235497   5.936   1.774   7.366  0.4247  0.7751  0.2059
 9483SOL     OW35498   3.420   4.291   4.851 -0.3716  0.2902 -0.5054
 9483SOL    HW135499   3.486   4.358   4.831 -0.3065  1.0523  1.9284
 9483SOL    HW235500   3.469   4.222   4.896 -1.1550  0.8698  1.3495
 9484SOL     OW35501  10.425   2.316   8.591  0.0403 -0.0745 -0.4790
 9484SOL    HW135502  10.361   2.336   8.659 -0.9108 -0.9316 -1.1038
 9484SOL    HW235503  10.492   2.384   8.602 -0.2069 -0.0339  1.1386
 9485SOL     OW35504   5.953   3.850   5.832  0.1376  0.0843 -0.0475
 9485SOL    HW135505   5.956   3.939   5.867  2.6368  0.9487 -2.1645
 9485SOL    HW235506   5.993   3.796   5.900 -2.7143  0.1885  1.8950
 9486SOL     OW35507   5.431   9.586  11.210 -0.3632 -0.0812 -0.0943
 9486SOL    HW135508   5.416   9.625  11.124  1.1455 -0.2537 -0.4583
 9486SOL    HW235509   5.346   9.548  11.234 -0.3610 -1.6809 -2.3372
 9487SOL     OW35510   8.185   3.626  10.607  0.1166 -0.2953  0.0164
 9487SOL    HW135511   8.095   3.594  10.599  0.4768 -1.2065 -0.6356
 9487SOL    HW235512   8.199   3.635  10.701 -1.3794  2.0515  0.0909
 9488SOL     OW35513  10.459  11.883   9.590  0.0137 -0.1229 -0.1040
 9488SOL    HW135514  10.437  11.943   9.662 -0.7942 -0.1033 -0.3511
 9488SOL    HW235515  10.494  11.805   9.634  1.0953  0.5231  0.2142
 9489SOL     OW35516   1.146   1.673   7.274  0.6652  0.5388  0.2392
 9489SOL    HW135517   1.161   1.591   7.227  0.3029  0.5226  0.1434
 9489SOL    HW235518   1.168   1.654   7.365 -1.6746 -0.3829  0.7025
 9490SOL     OW35519   1.978   1.496   2.179 -0.2912  0.4278 -0.2480
 9490SOL    HW135520   1.977   1.504   2.274  2.0192 -0.4391 -0.0826
 9490SOL    HW235521   1.927   1.417   2.161  1.0910 -0.6838  0.5119
 9491SOL     OW35522  10.110   6.747  10.148 -0.1206 -0.1709  0.3788
 9491SOL    HW135523  10.061   6.779  10.223  1.6123  1.2153  0.9815
 9491SOL    HW235524  10.147   6.663  10.177 -2.2414 -1.3821 -0.1808
 9492SOL     OW35525   7.018   2.763   1.955  0.2026  0.1972 -0.0854
 9492SOL    HW135526   6.953   2.708   1.998 -2.0831  1.9522 -1.0781
 9492SOL    HW235527   6.978   2.787   1.871  2.1897  1.2535 -0.8102
 9493SOL     OW35528   8.231   0.437   4.744  0.0588  0.7368 -0.2042
 9493SOL    HW135529   8.217   0.415   4.652  1.3383  1.0365 -0.4981
 9493SOL    HW235530   8.143   0.444   4.781 -0.4554 -0.7800 -1.0564
 9494SOL     OW35531   5.928   6.875   3.430  0.7310 -0.2409 -0.0806
 9494SOL    HW135532   5.946   6.792   3.387  1.2237 -0.4571  0.5280
 9494SOL    HW235533   5.956   6.941   3.367 -2.0836 -0.4320 -1.6809
 9495SOL     OW35534  10.621   6.720   1.093 -0.4694 -0.6510  0.0755
 9495SOL    HW135535  10.575   6.762   1.021  0.2310 -0.7053 -0.4062
 9495SOL    HW235536  10.573   6.748   1.171  0.7268  2.1609 -0.0735
 9496SOL     OW35537  10.664   3.721   5.465  0.1553 -0.2052 -0.6277
 9496SOL    HW135538  10.650   3.713   5.560  0.0606  0.1366 -0.6112
 9496SOL    HW235539  10.634   3.638   5.429  2.0041 -1.1420 -0.1545
 9497SOL     OW35540  12.366   9.771  11.630 -0.3441  0.1688  0.3535
 9497SOL    HW135541  12.367   9.801  11.721  0.5716 -0.9888  0.7551
 9497SOL    HW235542  12.358   9.851  11.578 -0.7954  0.8555  1.4392
 9498SOL     OW35543  11.232   2.534  11.845  0.1689  0.4453 -0.6922
 9498SOL    HW135544  11.221   2.508  11.754 -1.4134  0.5062 -0.5580
 9498SOL    HW235545  11.146   2.516  11.885  1.3211 -1.3034  1.2141
 9499SOL     OW35546  11.228   8.248   8.598 -0.0336 -0.3875 -0.0511
 9499SOL    HW135547  11.276   8.286   8.524 -0.8629 -0.0833 -0.4453
 9499SOL    HW235548  11.207   8.159   8.571 -1.9518  0.2993 -0.9840
 9500SOL     OW35549   4.657   2.093   6.126  0.0366 -0.0057 -0.6617
 9500SOL    HW135550   4.658   2.010   6.174  0.9887  0.2240 -0.2713
 9500SOL    HW235551   4.618   2.155   6.188  0.6785  0.1500 -0.4023
 9501SOL     OW35552   7.954  11.961  10.059 -0.2461 -1.0086 -0.3025
 9501SOL    HW135553   7.870  11.963  10.014 -0.2245  1.6848 -0.3879
 9501SOL    HW235554   7.958  11.873  10.098 -2.3074 -1.7930 -1.6745
 9502SOL     OW35555   4.912   1.261   1.412  0.2216  0.2495 -0.1668
 9502SOL    HW135556   4.872   1.227   1.332 -0.2024  0.0333  0.1322
 9502SOL    HW235557   4.979   1.196   1.435  0.8027  0.6419 -0.7002
 9503SOL     OW35558   2.635   5.432   9.005  0.2435 -0.5981  0.3569
 9503SOL    HW135559   2.663   5.341   8.997  0.4342 -0.4641 -0.6642
 9503SOL    HW235560   2.550   5.435   8.962  0.8602 -0.0347 -0.9032
 9504SOL     OW35561   0.543   8.811  12.123  0.1915 -0.3934  0.3004
 9504SOL    HW135562   0.559   8.865  12.200 -0.5388  0.2286  0.0338
 9504SOL    HW235563   0.628   8.773  12.102  1.2301  2.2748 -0.7246
 9505SOL     OW35564   0.897   6.780   0.719  0.1677  0.4543 -0.2479
 9505SOL    HW135565   0.951   6.847   0.678  0.2011 -0.4140 -1.6767
 9505SOL    HW235566   0.951   6.701   0.717 -0.0135  0.2763  1.0748
 9506SOL     OW35567   7.906   4.339   4.419 -0.6661  0.5949  0.5106
 9506SOL    HW135568   7.830   4.281   4.424 -0.2023 -0.1985 -0.9208
 9506SOL    HW235569   7.930   4.338   4.326  0.4002  1.7411  0.7482
 9507SOL     OW35570   0.701   3.679   9.238 -0.3475  0.1221 -0.0963
 9507SOL    HW135571   0.731   3.596   9.202  0.6290  0.1178  0.7071
 9507SOL    HW235572   0.614   3.692   9.199 -0.8689 -1.6677  0.3929
 9508SOL     OW35573   5.760   1.022   8.226  0.5157 -0.2766  0.0903
 9508SOL    HW135574   5.804   1.045   8.144 -0.1989 -0.6876 -0.4162
 9508SOL    HW235575   5.795   0.936   8.249  0.5600 -0.2553  0.1022
 9509SOL     OW35576   6.090  11.630   9.875 -0.7783  0.1583 -0.3987
 9509SOL    HW135577   6.112  11.600   9.787  1.4158  1.1950 -0.2771
 9509SOL    HW235578   6.067  11.723   9.863 -3.1289 -0.3345 -0.1848
 9510SOL     OW35579   7.082   4.628  12.544  0.3067  0.0872 -0.0834
 9510SOL    HW135580   7.075   4.722  12.532 -1.5036 -0.0646 -0.5747
 9510SOL    HW235581   7.018   4.607  12.611  0.0441 -0.8965 -0.6131
 9511SOL     OW35582  11.084  12.045   6.320  0.4203  0.2540 -0.0292
 9511SOL    HW135583  11.083  12.133   6.283  0.3916  0.4287  0.3761
 9511SOL    HW235584  11.108  11.988   6.247  1.9491  0.7647  0.0564
 9512SOL     OW35585   9.428   7.819   2.159 -0.6573  0.0546 -0.1171
 9512SOL    HW135586   9.375   7.777   2.226  1.1187 -0.7994  0.8306
 9512SOL    HW235587   9.512   7.835   2.201  1.2219 -2.2521 -2.5713
 9513SOL     OW35588   0.582   0.513   5.621 -0.0587 -0.5222 -0.4215
 9513SOL    HW135589   0.596   0.421   5.602  0.7392 -1.1587  2.7012
 9513SOL    HW235590   0.656   0.538   5.676 -1.0930  1.5452  0.1403
 9514SOL     OW35591   7.583   1.043  11.338 -0.2465  0.5863  0.4542
 9514SOL    HW135592   7.509   0.983  11.342 -0.0118  0.1265 -1.2019
 9514SOL    HW235593   7.547   1.128  11.363 -0.2990 -0.3678  4.1630
 9515SOL     OW35594   1.757   9.941   0.516 -0.6182 -0.9458 -0.0616
 9515SOL    HW135595   1.726   9.852   0.497  0.0714 -1.8319  2.4899
 9515SOL    HW235596   1.681   9.985   0.553 -1.3121  0.0216 -2.4389
 9516SOL     OW35597   8.178  10.670  10.870 -0.0279  0.4430 -0.2380
 9516SOL    HW135598   8.259  10.623  10.888 -1.3160 -0.8493  2.9137
 9516SOL    HW235599   8.186  10.752  10.919 -0.0755  0.9855 -1.1144
 9517SOL     OW35600   6.362   5.092   8.349  0.2069  0.1985 -0.2431
 9517SOL    HW135601   6.327   5.125   8.266  0.9052 -0.6501 -0.8924
 9517SOL    HW235602   6.328   5.152   8.415 -0.8901  0.5139 -1.0706
 9518SOL     OW35603  10.026   3.920   3.439  0.4085  0.5551  0.4611
 9518SOL    HW135604   9.938   3.911   3.475  0.4453 -0.2326  0.3515
 9518SOL    HW235605  10.062   3.832   3.439  0.3325  0.4780 -1.6952
 9519SOL     OW35606   4.925  10.643   0.005  0.1690  0.1812 -0.2032
 9519SOL    HW135607   4.944  10.624   0.097  1.4119 -0.1795 -0.5246
 9519SOL    HW235608   5.009  10.667  -0.033 -0.5590  1.7521 -0.9322
 9520SOL     OW35609  11.277   6.211   4.408 -0.0304 -0.1544 -0.3116
 9520SOL    HW135610  11.232   6.296   4.414 -1.5074 -0.9049 -0.2283
 9520SOL    HW235611  11.214   6.154   4.363  1.6759 -0.7366 -2.0660
 9521SOL     OW35612   4.830   8.363  10.090  0.0306 -0.3575 -0.1902
 9521SOL    HW135613   4.864   8.354  10.179 -0.9938 -0.8620  0.1701
 9521SOL    HW235614   4.747   8.409  10.101  0.1782  0.1074 -0.9569
 9522SOL     OW35615   6.206   7.271   9.684 -0.4979 -0.2603 -0.0678
 9522SOL    HW135616   6.268   7.199   9.678 -1.3446 -1.0482  0.4330
 9522SOL    HW235617   6.258   7.346   9.713  0.1040 -1.0727  0.9936
 9523SOL     OW35618   5.770   9.477   5.803  0.0560 -0.2250  0.6193
 9523SOL    HW135619   5.785   9.410   5.736 -0.4508  0.0076  0.2738
 9523SOL    HW235620   5.832   9.455   5.872 -0.1257 -1.0741  0.5209
 9524SOL     OW35621   1.080   1.260  10.636  0.3165  0.0514  0.7729
 9524SOL    HW135622   1.002   1.208  10.622  0.1328  0.8032 -1.2938
 9524SOL    HW235623   1.144   1.226  10.573 -0.1991  2.9673 -1.5438
 9525SOL     OW35624   3.588   1.875  10.002 -0.0969 -0.5535  0.3553
 9525SOL    HW135625   3.619   1.791  10.035 -1.2116 -1.5409 -0.9750
 9525SOL    HW235626   3.498   1.883  10.036 -0.9336 -1.1647 -1.5794
 9526SOL     OW35627   6.293   0.091   5.579 -0.1624  0.2208 -0.0634
 9526SOL    HW135628   6.296   0.059   5.489 -1.8283 -0.7562  0.2056
 9526SOL    HW235629   6.201   0.088   5.603  0.1694  1.1694  1.4416
 9527SOL     OW35630   0.912   7.618   5.805 -0.0270 -0.1946 -0.4363
 9527SOL    HW135631   0.930   7.524   5.802 -0.4761 -0.2751 -0.9121
 9527SOL    HW235632   0.846   7.632   5.736  0.7815  0.6334 -1.0716
 9528SOL     OW35633   8.295   4.303  10.857  0.2872  0.2907  0.1123
 9528SOL    HW135634   8.384   4.315  10.825  1.0788 -2.3210  1.0518
 9528SOL    HW235635   8.304   4.307  10.953 -1.0872  2.4893  0.2110
 9529SOL     OW35636   4.208   0.655  11.219 -0.5690 -0.0755  0.1756
 9529SOL    HW135637   4.275   0.705  11.266 -1.8895  0.5272  1.4671
 9529SOL    HW235638   4.258   0.588  11.172  0.9812  0.6312  0.7328
 9530SOL     OW35639   0.736   4.633   7.720 -0.2645  0.9240 -0.2548
 9530SOL    HW135640   0.830   4.635   7.742 -0.2565  0.9163 -0.2880
 9530SOL    HW235641   0.701   4.560   7.772 -0.1292  0.5245 -0.7213
 9531SOL     OW35642   7.901   1.691   2.518  0.4814 -0.4241 -0.2889
 9531SOL    HW135643   7.919   1.707   2.611 -2.3872  2.1142 -0.0316
 9531SOL    HW235644   7.810   1.663   2.516  0.0003  1.0712 -2.4119
 9532SOL     OW35645   1.653   9.441   6.188  0.5747 -0.2901 -0.0054
 9532SOL    HW135646   1.746   9.464   6.192  0.9034 -1.2978 -1.1487
 9532SOL    HW235647   1.609   9.507   6.243  2.1318 -0.8376  1.9928
 9533SOL     OW35648   0.479   1.629   1.539 -0.4689  0.0462  0.7048
 9533SOL    HW135649   0.468   1.540   1.572  0.4673  0.0258  1.0037
 9533SOL    HW235650   0.561   1.659   1.580 -0.4822  0.8361  0.1624
 9534SOL     OW35651  11.963   8.557  10.826 -0.6195  0.3026  0.6916
 9534SOL    HW135652  11.875   8.518  10.829 -1.0238  0.9850 -1.1260
 9534SOL    HW235653  12.004   8.529  10.908 -1.8364 -1.6776  0.6978
 9535SOL     OW35654   8.130   2.187   9.900  0.0431 -0.3336  0.4764
 9535SOL    HW135655   8.202   2.138   9.860  3.9931  3.6017  1.8174
 9535SOL    HW235656   8.134   2.163   9.993  1.3862  1.5724  0.9736
 9536SOL     OW35657  10.178   8.887   5.397  0.0139 -0.2621  0.0426
 9536SOL    HW135658  10.172   8.980   5.379  1.4148  0.0605  1.0448
 9536SOL    HW235659  10.250   8.856   5.342  2.0036  0.0409  2.3188
 9537SOL     OW35660   0.716   2.084   5.737  0.0251 -0.1227 -0.1975
 9537SOL    HW135661   0.698   2.175   5.758 -0.1512 -0.1564 -0.2012
 9537SOL    HW235662   0.655   2.034   5.792 -1.3624 -0.1856 -1.7157
 9538SOL     OW35663   7.836   1.222   8.513  0.3666 -0.0380  0.1216
 9538SOL    HW135664   7.851   1.290   8.448  2.2249  0.4507  1.0209
 9538SOL    HW235665   7.800   1.149   8.462 -1.1008  1.3420 -0.9492
 9539SOL     OW35666   3.442   0.084   3.451  0.0992 -0.8080  0.1969
 9539SOL    HW135667   3.425   0.148   3.521  0.9939 -1.1377  0.7391
 9539SOL    HW235668   3.356   0.051   3.427 -0.2071 -0.9469  1.4138
 9540SOL     OW35669   3.970   6.774   4.805 -0.0155 -0.1466  0.2240
 9540SOL    HW135670   3.932   6.753   4.890 -1.2493 -0.3258 -0.3393
 9540SOL    HW235671   3.944   6.701   4.748 -0.8903  0.8800 -0.7615
 9541SOL     OW35672   9.700   1.613   1.243 -0.4022 -0.4433 -0.9096
 9541SOL    HW135673   9.713   1.644   1.154  0.4818 -1.7309 -1.2638
 9541SOL    HW235674   9.652   1.531   1.233 -0.8900 -0.2535 -0.1540
 9542SOL     OW35675   4.902   5.321   3.136  0.1773 -0.2160 -0.3297
 9542SOL    HW135676   4.812   5.289   3.148 -0.2221  1.1593  0.6019
 9542SOL    HW235677   4.893   5.395   3.076  0.7888 -0.4972 -0.7743
 9543SOL     OW35678   5.746   1.535   1.174  0.2896 -0.1712 -0.1706
 9543SOL    HW135679   5.656   1.570   1.175  0.0598 -0.7114  1.5292
 9543SOL    HW235680   5.801   1.612   1.188 -0.0844 -0.1275  1.2465
 9544SOL     OW35681   5.762   4.038   1.320  0.1061 -0.4124  0.9097
 9544SOL    HW135682   5.802   4.118   1.285  0.9417 -1.2968 -0.2165
 9544SOL    HW235683   5.815   4.017   1.397  1.1813 -0.9803  0.0416
 9545SOL     OW35684   1.161  10.777   9.078  0.2818  0.2305  0.0156
 9545SOL    HW135685   1.146  10.682   9.078 -0.8714  0.3804 -1.4690
 9545SOL    HW235686   1.073  10.815   9.078  0.6996  1.3670  2.0219
 9546SOL     OW35687   7.761   3.170   6.561  0.0417 -0.0900 -0.0862
 9546SOL    HW135688   7.785   3.218   6.640 -0.5393 -0.2774  0.2031
 9546SOL    HW235689   7.679   3.126   6.582  0.3802 -0.9421 -0.4578
 9547SOL     OW35690  11.533   5.154   7.357  0.1757 -0.6077 -0.3531
 9547SOL    HW135691  11.547   5.093   7.429  0.4487  0.2805  0.3588
 9547SOL    HW235692  11.449   5.196   7.378  0.0460 -0.6522 -0.7803
 9548SOL     OW35693   9.491   4.518   8.979 -0.2129 -0.5181  0.0935
 9548SOL    HW135694   9.424   4.450   8.989 -0.7982 -0.0724 -0.6561
 9548SOL    HW235695   9.463   4.568   8.901  0.6279  0.0908  0.1666
 9549SOL     OW35696   0.071   4.896   2.051  0.3836 -0.3307  0.4315
 9549SOL    HW135697   0.029   4.975   2.088 -0.9956 -0.8350  0.0233
 9549SOL    HW235698   0.093   4.920   1.961 -1.3529 -0.8202 -0.1630
 9550SOL     OW35699   0.929   9.415   0.474 -0.4316  0.1401  0.4128
 9550SOL    HW135700   0.940   9.337   0.528  2.3150 -1.0791 -1.6482
 9550SOL    HW235701   0.917   9.381   0.385 -0.1351  2.0457 -0.4068
 9551SOL     OW35702  11.389   6.687   3.718  0.5834  0.5309 -0.1840
 9551SOL    HW135703  11.374   6.717   3.807  1.9060  0.0574  0.2167
 9551SOL    HW235704  11.315   6.629   3.699 -0.7324  2.1115 -0.1139
 9552SOL     OW35705   1.951   4.908   2.728  0.1459 -0.1256  0.0525
 9552SOL    HW135706   2.024   4.949   2.682  0.6785 -1.0027  0.0860
 9552SOL    HW235707   1.968   4.926   2.821 -0.0253  0.2114  0.0191
 9553SOL     OW35708   3.284   4.826  10.839 -0.2325  0.1945 -0.1789
 9553SOL    HW135709   3.255   4.774  10.914 -2.1901 -0.3898 -1.2933
 9553SOL    HW235710   3.347   4.770  10.794  0.5208  0.3279  0.6557
 9554SOL     OW35711   9.938  10.985   4.464  0.4138  0.0794 -0.3241
 9554SOL    HW135712   9.953  10.944   4.379  1.2890 -1.4717  0.5390
 9554SOL    HW235713   9.853  10.949   4.492  0.1728  0.5132 -0.4915
 9555SOL     OW35714  11.598   1.063   7.784 -0.6585 -0.4278  0.1601
 9555SOL    HW135715  11.640   1.032   7.704 -1.6029 -1.3043 -0.0143
 9555SOL    HW235716  11.559   0.985   7.823  0.0334 -0.0645  1.6411
 9556SOL     OW35717  11.710   2.627   3.409  0.5179 -0.2498 -0.2815
 9556SOL    HW135718  11.796   2.589   3.390  0.8320 -0.5411  1.5244
 9556SOL    HW235719  11.667   2.562   3.466 -0.3202  0.5346  0.0141
 9557SOL     OW35720   1.162   0.882   8.892  0.1871 -0.1690  0.0717
 9557SOL    HW135721   1.165   0.916   8.803  0.4173  0.3958  0.2858
 9557SOL    HW235722   1.169   0.787   8.883  1.7600 -0.0304 -0.4377
 9558SOL     OW35723   9.613   4.110   0.228 -0.5654 -0.2891  0.1682
 9558SOL    HW135724   9.541   4.050   0.250 -1.0236  0.3596  0.4822
 9558SOL    HW235725   9.612   4.175   0.298 -1.5587  1.3988 -1.3110
 9559SOL     OW35726   7.641   5.859   7.566  0.0083  0.5742  0.0658
 9559SOL    HW135727   7.710   5.926   7.568  0.6144 -0.0285 -0.3725
 9559SOL    HW235728   7.615   5.849   7.657  1.5856 -0.2799  0.4655
 9560SOL     OW35729   3.242   1.925  11.636 -0.3704  0.1108  0.6346
 9560SOL    HW135730   3.233   1.847  11.691 -0.1266  0.3977  1.0892
 9560SOL    HW235731   3.320   1.969  11.669  1.6682 -1.2927 -1.9290
 9561SOL     OW35732  10.606   5.930   9.114  0.0804  0.0841  0.2332
 9561SOL    HW135733  10.619   5.980   9.195  1.7426 -0.6156  0.4272
 9561SOL    HW235734  10.647   5.983   9.046 -1.8214  0.9584 -0.3227
 9562SOL     OW35735   2.920   2.703   8.517 -0.0685  0.1066  0.2228
 9562SOL    HW135736   2.876   2.724   8.599  1.4207  0.7193  0.8971
 9562SOL    HW235737   2.967   2.783   8.494 -0.5077 -0.0355 -1.2714
 9563SOL     OW35738  11.233  12.019  10.840 -0.0067 -0.0115  0.3153
 9563SOL    HW135739  11.211  12.018  10.747  0.8348  0.2379  0.1027
 9563SOL    HW235740  11.162  12.068  10.881  1.1904  2.6881 -0.6316
 9564SOL     OW35741   5.886   3.776   8.187 -0.4839  0.4819  0.1705
 9564SOL    HW135742   5.979   3.791   8.203 -0.2514  0.3153 -0.8967
 9564SOL    HW235743   5.874   3.682   8.197  0.0501  0.0797 -2.1923
 9565SOL     OW35744   6.631   8.230   4.494  0.0881  0.3442  0.3404
 9565SOL    HW135745   6.654   8.222   4.401  0.1538  0.4121  0.3506
 9565SOL    HW235746   6.562   8.165   4.507  0.3248  0.0841  0.3254
 9566SOL     OW35747   4.289   8.241   0.721  0.3860 -0.7899 -0.3251
 9566SOL    HW135748   4.203   8.236   0.763  0.9212  0.6930  1.0529
 9566SOL    HW235749   4.280   8.311   0.657  1.0929  0.8306  1.2755
 9567SOL     OW35750  12.005   3.133   5.028  0.6508 -0.0873 -0.3390
 9567SOL    HW135751  11.978   3.092   5.110  0.3389 -0.3589 -0.5786
 9567SOL    HW235752  11.998   3.227   5.045  3.6715  0.0148  1.0398
 9568SOL     OW35753   7.155  11.655   7.983 -0.4719 -0.3343 -0.4399
 9568SOL    HW135754   7.117  11.568   7.973 -0.5513 -0.5347  1.2283
 9568SOL    HW235755   7.248  11.643   7.967 -0.4622 -0.7766 -0.0884
 9569SOL     OW35756   0.568   2.479  12.061  0.4890 -0.0772  0.2056
 9569SOL    HW135757   0.522   2.551  12.105 -1.5610 -1.3869  0.3468
 9569SOL    HW235758   0.581   2.511  11.972  0.5138  0.8548  0.5294
 9570SOL     OW35759   5.958   1.833   9.413  0.0197 -0.0605  0.7718
 9570SOL    HW135760   6.048   1.802   9.426 -0.3244 -1.3387  0.1399
 9570SOL    HW235761   5.903   1.762   9.444 -0.7968 -0.6675 -1.8899
 9571SOL     OW35762   2.947   7.177   4.789  0.3710 -0.5973 -0.0154
 9571SOL    HW135763   2.930   7.083   4.797 -1.3110 -0.3240 -0.0343
 9571SOL    HW235764   2.891   7.217   4.856  0.6031  0.4329 -0.4226
 9572SOL     OW35765   4.737  12.306  12.296  1.0328  0.1057 -0.3039
 9572SOL    HW135766   4.700  12.342  12.377 -0.4141  0.8381 -1.2440
 9572SOL    HW235767   4.717  12.213  12.300 -0.4101  0.3800 -0.4820
 9573SOL     OW35768  11.803   9.537   0.505 -0.1411  0.2632 -0.1821
 9573SOL    HW135769  11.744   9.497   0.569  0.4848  0.0756  0.2946
 9573SOL    HW235770  11.794   9.631   0.519 -0.8423  0.2565 -0.5876
 9574SOL     OW35771   4.048  11.519   3.382 -0.9548  0.0846 -0.6452
 9574SOL    HW135772   4.096  11.589   3.338 -0.9026  1.0151  0.8138
 9574SOL    HW235773   4.094  11.508   3.465 -0.5854 -2.1453 -1.0978
 9575SOL     OW35774  12.503   6.707   1.627  0.3360  0.1115  0.3439
 9575SOL    HW135775  12.518   6.635   1.565  0.0281  0.7188 -0.4528
 9575SOL    HW235776  12.552   6.781   1.590  0.0707  0.5096  0.7822
 9576SOL     OW35777   2.937   7.185   8.932  0.2877 -0.3555  0.2921
 9576SOL    HW135778   2.964   7.135   9.009  2.6157  0.9056  0.3831
 9576SOL    HW235779   3.010   7.244   8.915 -2.3443  3.2414  0.3692
 9577SOL     OW35780   2.332   1.238  10.238  0.1549 -0.4771  0.1820
 9577SOL    HW135781   2.292   1.316  10.276  1.8292  0.4979  0.0771
 9577SOL    HW235782   2.386   1.203  10.309  0.1695 -0.9659 -0.0729
 9578SOL     OW35783   8.685   0.237   4.005 -0.4552 -0.1714  0.6723
 9578SOL    HW135784   8.772   0.199   3.991 -0.3624  0.4978 -0.7663
 9578SOL    HW235785   8.635   0.167   4.045  0.7028 -0.6242  1.3843
 9579SOL     OW35786   8.683   3.525   6.231 -0.1995  0.3606 -0.0059
 9579SOL    HW135787   8.604   3.485   6.267 -1.3417  1.3435 -1.3196
 9579SOL    HW235788   8.656   3.613   6.205  1.1909  0.5410 -0.9534
 9580SOL     OW35789   8.845   2.288  11.886 -0.1447 -0.1459 -0.0119
 9580SOL    HW135790   8.886   2.374  11.894 -1.4379  0.4464  0.5007
 9580SOL    HW235791   8.809   2.270  11.972  0.1353 -1.2429 -0.0959
 9581SOL     OW35792   3.927   9.865   7.376  0.4525 -0.1317  0.1174
 9581SOL    HW135793   3.941   9.821   7.459  0.5725 -1.5311 -0.6195
 9581SOL    HW235794   4.015   9.886   7.345  0.4329 -0.0536  0.1152
 9582SOL     OW35795   6.743   1.121   6.135 -0.1550 -0.3122 -0.4614
 9582SOL    HW135796   6.667   1.086   6.180  0.7272 -0.4515  0.9855
 9582SOL    HW235797   6.709   1.156   6.052 -1.8389  0.0709  0.3640
 9583SOL     OW35798  10.176   4.086   7.301  0.8913 -0.2258  0.2908
 9583SOL    HW135799  10.098   4.128   7.264  0.2537 -0.5306  1.2578
 9583SOL    HW235800  10.173   3.997   7.266  1.6037  0.1599 -0.8159
 9584SOL     OW35801  12.016  12.195   9.291 -0.0233 -0.2795  0.2234
 9584SOL    HW135802  12.087  12.241   9.336  1.1700  0.0356 -1.8832
 9584SOL    HW235803  12.059  12.124   9.244 -0.7584  1.0614 -2.6559
 9585SOL     OW35804   2.432   9.391  10.157 -0.2657  0.4976 -0.7072
 9585SOL    HW135805   2.525   9.377  10.139 -0.2592  0.0705 -0.3652
 9585SOL    HW235806   2.431   9.439  10.240 -0.3436  0.6968 -0.8236
 9586SOL     OW35807   2.756   5.259  11.437 -0.1431 -0.0426 -0.0762
 9586SOL    HW135808   2.673   5.281  11.479 -0.5177 -0.0632 -0.7992
 9586SOL    HW235809   2.822   5.298  11.494 -0.6286 -0.2589  0.6497
 9587SOL     OW35810   3.628   0.842  11.397  0.1090  0.2795  0.1824
 9587SOL    HW135811   3.556   0.895  11.432  1.4371  1.4886  1.1730
 9587SOL    HW235812   3.699   0.904  11.383  1.4956 -1.1286  0.7053
 9588SOL     OW35813   6.293   8.872   7.311  0.3029 -0.1421  0.1404
 9588SOL    HW135814   6.264   8.942   7.370 -0.7888 -1.1627  0.8500
 9588SOL    HW235815   6.384   8.856   7.337  0.1793  0.1865  0.8024
 9589SOL     OW35816   2.978   7.895   4.811  0.0835  0.3470 -0.5835
 9589SOL    HW135817   3.040   7.862   4.876 -0.1715 -1.2472 -1.0951
 9589SOL    HW235818   3.030   7.904   4.731 -0.2136 -0.5086 -0.8837
 9590SOL     OW35819   8.551   6.343   0.615 -0.4242  0.8188 -0.1495
 9590SOL    HW135820   8.493   6.357   0.540 -1.0794  2.5802  0.6240
 9590SOL    HW235821   8.494   6.313   0.685  0.2444 -1.1908 -0.3984
 9591SOL     OW35822  12.584   3.533   4.938 -0.7027  0.3435 -0.5352
 9591SOL    HW135823  12.662   3.494   4.978 -1.5761  1.0067  1.9428
 9591SOL    HW235824  12.547   3.462   4.885 -0.6180 -1.3112  1.4943
 9592SOL     OW35825   3.183  12.153   4.993 -0.3160 -0.2230 -0.5711
 9592SOL    HW135826   3.159  12.161   5.085  3.2397  0.9008  0.3906
 9592SOL    HW235827   3.196  12.059   4.980  0.2285 -0.2943  0.4026
 9593SOL     OW35828   4.490   5.803   0.750  0.2386  0.3174 -0.4737
 9593SOL    HW135829   4.518   5.869   0.812 -0.3861  0.2095 -0.0598
 9593SOL    HW235830   4.562   5.740   0.747  0.1711  0.1835  0.3558
 9594SOL     OW35831   3.163  10.682   9.399  0.1320 -0.1526 -0.0807
 9594SOL    HW135832   3.228  10.620   9.367  1.5180  1.0334  0.3500
 9594SOL    HW235833   3.174  10.760   9.344 -1.1345 -0.0286 -0.1964
 9595SOL     OW35834   1.904   4.561   9.911  0.1919 -0.2609  0.3532
 9595SOL    HW135835   1.872   4.567  10.001 -1.4444  1.7632 -0.2681
 9595SOL    HW235836   1.868   4.639   9.868  3.2208  0.3329 -1.3649
 9596SOL     OW35837   6.164   7.278   9.964 -0.2536 -0.0002  0.4019
 9596SOL    HW135838   6.149   7.250   9.874  0.9609  0.0627  0.1592
 9596SOL    HW235839   6.150   7.373   9.962  0.9849  0.1932 -0.0234
 9597SOL     OW35840   8.855   1.252   3.707 -0.5855 -0.7181  0.4009
 9597SOL    HW135841   8.911   1.181   3.676 -0.1244 -0.1399 -0.1286
 9597SOL    HW235842   8.891   1.277   3.792  0.2399 -0.0834 -0.1095
 9598SOL     OW35843   3.312  10.944   2.041 -0.4160  0.4887  0.2192
 9598SOL    HW135844   3.324  10.873   1.978 -1.9269  0.4479 -0.0645
 9598SOL    HW235845   3.390  10.940   2.096 -0.3787 -1.2905  0.1138
 9599SOL     OW35846   1.583   1.219  11.706 -0.2435  0.5347 -0.0440
 9599SOL    HW135847   1.568   1.169  11.627 -1.1178  0.2430  0.2970
 9599SOL    HW235848   1.669   1.260  11.693  1.2508 -2.2530  0.3007
 9600SOL     OW35849   4.365  12.163   5.513  0.1198  0.2240  0.0935
 9600SOL    HW135850   4.419  12.236   5.542  1.3486 -0.4446 -0.4647
 9600SOL    HW235851   4.397  12.087   5.561 -1.2073  0.0308  0.7392
 9601SOL     OW35852   8.399   4.617   9.179 -0.0544  0.1681  0.2563
 9601SOL    HW135853   8.363   4.530   9.161  1.3709 -0.5480  0.6917
 9601SOL    HW235854   8.407   4.658   9.093 -1.5938  0.2547  0.1198
 9602SOL     OW35855   1.745   5.612   9.760  0.2732 -0.2153  0.1141
 9602SOL    HW135856   1.829   5.655   9.773 -0.2783  0.7492  0.6332
 9602SOL    HW235857   1.688   5.681   9.725  0.2085 -1.3386 -2.1734
 9603SOL     OW35858   7.478   5.974  10.975  0.3800  0.1644 -0.4130
 9603SOL    HW135859   7.495   6.069  10.975  1.7203 -0.0303 -1.9551
 9603SOL    HW235860   7.471   5.951  10.883  0.8909 -1.3824 -0.0956
 9604SOL     OW35861   3.235  10.863   5.214 -0.3165  0.4847  0.3544
 9604SOL    HW135862   3.207  10.907   5.294 -0.2790  0.4207  0.4021
 9604SOL    HW235863   3.319  10.905   5.193 -2.0723  3.3446 -1.8105
 9605SOL     OW35864   0.945   6.901   5.415  0.6265 -0.0111 -0.0238
 9605SOL    HW135865   1.022   6.934   5.369  1.5404 -1.2745  0.5422
 9605SOL    HW235866   0.939   6.955   5.494  0.2965  0.7834 -0.5857
 9606SOL     OW35867  11.582   9.425   3.685 -0.3458  0.5072 -0.3986
 9606SOL    HW135868  11.516   9.388   3.627 -0.6826 -1.1110  0.9180
 9606SOL    HW235869  11.532   9.473   3.751 -0.2715 -0.7970  0.6526
 9607SOL     OW35870   0.703   6.773   3.583  0.0397 -0.2650 -0.3576
 9607SOL    HW135871   0.660   6.789   3.499  0.2294  2.0954 -0.0609
 9607SOL    HW235872   0.663   6.837   3.643  1.4732 -0.4032  0.7923
 9608SOL     OW35873   0.213   3.281   1.561  0.3453  0.0849  0.0711
 9608SOL    HW135874   0.152   3.308   1.630 -1.8911  0.0120 -1.7658
 9608SOL    HW235875   0.189   3.334   1.485  2.1108 -0.4955 -0.9509
 9609SOL     OW35876  10.160   9.736   8.259  0.3119  0.3292 -0.5145
 9609SOL    HW135877  10.162   9.820   8.215 -1.3172  0.4437 -0.4193
 9609SOL    HW235878  10.175   9.757   8.352  0.2802  0.4702 -0.5419
 9610SOL     OW35879   7.356   2.569   7.771 -0.2178  0.0825 -0.4374
 9610SOL    HW135880   7.313   2.604   7.849  0.4581 -1.3217  0.5962
 9610SOL    HW235881   7.385   2.646   7.723 -0.1983  0.9567  0.9470
 9611SOL     OW35882   7.925   5.733   6.080  0.3698  0.4937  0.3442
 9611SOL    HW135883   7.876   5.659   6.115 -0.0182  1.1798  1.2928
 9611SOL    HW235884   7.979   5.762   6.154  2.2226 -0.2329 -0.6591
 9612SOL     OW35885   0.580   1.435   3.535  0.2322 -0.5143 -0.3455
 9612SOL    HW135886   0.534   1.446   3.618  0.6866 -1.2509  0.0095
 9612SOL    HW235887   0.512   1.440   3.468 -0.2397 -0.7362  0.1203
 9613SOL     OW35888   4.183   7.700   7.987 -0.1415  0.1503 -0.5923
 9613SOL    HW135889   4.134   7.774   8.024  0.2747  0.9877 -1.6638
 9613SOL    HW235890   4.268   7.704   8.029 -0.2897 -0.0317 -0.2727
 9614SOL     OW35891  12.171  10.724   5.713 -0.0187 -0.3982  0.3941
 9614SOL    HW135892  12.238  10.764   5.658 -1.9253  1.6466 -0.6068
 9614SOL    HW235893  12.193  10.751   5.802  0.4194  0.3183  0.0690
 9615SOL     OW35894  10.513   1.665   3.333 -0.1331  0.2073 -0.0127
 9615SOL    HW135895  10.456   1.589   3.325 -0.1116  0.2812 -1.0006
 9615SOL    HW235896  10.598   1.629   3.360 -0.3789 -0.0044  0.4951
 9616SOL     OW35897  10.762   2.999  11.787 -0.4897  0.0754 -0.0686
 9616SOL    HW135898  10.820   2.927  11.807  1.9514  1.9646  0.1026
 9616SOL    HW235899  10.769   3.010  11.692 -0.7384  0.1716 -0.0768
 9617SOL     OW35900   6.962   9.143   2.851 -0.2386 -0.4031  0.1935
 9617SOL    HW135901   7.040   9.160   2.797  0.0453  0.7315  0.9098
 9617SOL    HW235902   6.900   9.211   2.825 -0.3572 -0.2746  0.7961
 9618SOL     OW35903   3.532   1.079   8.344 -0.0526  0.7867  0.4055
 9618SOL    HW135904   3.579   1.161   8.357 -1.2275  1.4386  0.7538
 9618SOL    HW235905   3.458   1.102   8.287 -0.4834  0.0047  0.6209
 9619SOL     OW35906   6.884   1.984  11.163  0.0857  0.3022 -1.0272
 9619SOL    HW135907   6.978   2.003  11.172  0.0165  0.2742 -0.1291
 9619SOL    HW235908   6.850   1.992  11.252 -0.1941 -2.7319 -0.7580
 9620SOL     OW35909  12.320   4.916   9.985  0.0050  0.6033  0.1648
 9620SOL    HW135910  12.314   4.941   9.893  0.9144  0.5785  0.0893
 9620SOL    HW235911  12.239   4.867  10.002 -0.8934  1.9235 -0.1934
 9621SOL     OW35912   1.952   7.054   2.434 -0.2934  0.0296 -0.0730
 9621SOL    HW135913   1.981   7.015   2.516 -2.9026  1.1489  1.5114
 9621SOL    HW235914   1.928   6.980   2.378  2.0284 -0.7674 -0.1257
 9622SOL     OW35915   4.006   9.109   7.441 -0.3241 -0.2268  0.4669
 9622SOL    HW135916   3.975   9.095   7.352  0.6792  0.5891 -0.0258
 9622SOL    HW235917   3.960   9.042   7.493 -1.5679 -0.1597 -0.4954
 9623SOL     OW35918   1.721   3.071   8.882 -0.3353 -0.1268 -0.3696
 9623SOL    HW135919   1.666   3.000   8.915  0.8535 -0.7473  0.3155
 9623SOL    HW235920   1.668   3.112   8.814 -1.2697 -1.3094 -0.3842
 9624SOL     OW35921   3.581   9.006   9.374  0.0118  0.2327 -0.1808
 9624SOL    HW135922   3.607   8.991   9.465 -0.0972  1.8031  0.1472
 9624SOL    HW235923   3.534   9.090   9.377 -1.3628 -0.4595 -1.4399
 9625SOL     OW35924   6.107   9.202   1.273  0.2520 -0.2453 -0.0567
 9625SOL    HW135925   6.083   9.273   1.214  1.3284  0.6179  0.5172
 9625SOL    HW235926   6.189   9.229   1.312  0.5205 -1.6590  0.4398
 9626SOL     OW35927  11.790   4.386   9.293  0.4976 -0.1381 -0.0427
 9626SOL    HW135928  11.849   4.352   9.360 -0.6130 -1.3043  0.3923
 9626SOL    HW235929  11.830   4.361   9.210  0.8338 -0.5482  0.2397
 9627SOL     OW35930  10.088  12.009   5.942  0.1859 -0.0206 -0.1755
 9627SOL    HW135931  10.088  12.030   6.036  0.2981 -0.0615 -0.1668
 9627SOL    HW235932  10.174  11.972   5.926  0.8834  1.7094 -0.6783
 9628SOL     OW35933   5.921   9.741   1.757 -0.2360  0.0309  0.6112
 9628SOL    HW135934   5.958   9.825   1.730  1.9349 -0.2899  2.2649
 9628SOL    HW235935   5.987   9.676   1.730 -0.6581 -0.8360  1.6067
 9629SOL     OW35936   6.394   5.065   7.804 -0.1443 -0.2201 -0.3836
 9629SOL    HW135937   6.334   5.046   7.731 -1.7264 -3.2381  1.4997
 9629SOL    HW235938   6.338   5.102   7.872  1.2190  2.0507 -0.4156
 9630SOL     OW35939   7.219  11.574   9.894 -0.2659  0.1439 -0.5045
 9630SOL    HW135940   7.161  11.508   9.857 -2.2850  0.9065  1.1380
 9630SOL    HW235941   7.199  11.654   9.844 -0.4265  0.3380 -0.1338
 9631SOL     OW35942   9.281   1.133   3.628  0.3501  0.8088 -0.0360
 9631SOL    HW135943   9.256   1.219   3.661  1.1910  1.2317 -0.4565
 9631SOL    HW235944   9.250   1.133   3.537  1.4201  1.1581 -0.4153
 9632SOL     OW35945  10.157   2.246   1.649 -0.8252 -0.3140  0.2292
 9632SOL    HW135946  10.165   2.171   1.708 -0.0732 -0.1205  0.3928
 9632SOL    HW235947  10.113   2.313   1.701  0.3208  0.0437  0.7834
 9633SOL     OW35948   6.873   4.462   0.836  0.2769  0.3649 -0.1957
 9633SOL    HW135949   6.917   4.546   0.846  0.4126  0.5371 -2.0454
 9633SOL    HW235950   6.925   4.416   0.770 -2.0270  0.3987 -2.1405
 9634SOL     OW35951   9.966   2.044   9.749 -0.1732 -0.0043  0.0727
 9634SOL    HW135952   9.975   2.057   9.654  0.4668 -0.7624  0.0153
 9634SOL    HW235953   9.873   2.058   9.766 -0.2969  0.1440 -0.6725
 9635SOL     OW35954   1.296   5.798   0.613  0.2958  0.5291  0.4010
 9635SOL    HW135955   1.237   5.771   0.684  0.5043  1.7453  1.0644
 9635SOL    HW235956   1.244   5.785   0.533  0.1506 -1.1067  0.7320
 9636SOL     OW35957   0.116   0.163   7.594 -0.0275 -0.4230  0.5355
 9636SOL    HW135958   0.079   0.230   7.652 -0.5652  0.2354 -0.5223
 9636SOL    HW235959   0.143   0.092   7.652 -0.7556  0.1193  1.5592
 9637SOL     OW35960   7.868   7.775   6.858 -0.3471  0.7538 -0.5528
 9637SOL    HW135961   7.853   7.799   6.767 -0.5332 -0.0704 -0.7457
 9637SOL    HW235962   7.927   7.843   6.891 -0.1074  0.9440 -1.3471
 9638SOL     OW35963   6.857  11.782   5.192 -0.4811  0.2981  0.4902
 9638SOL    HW135964   6.874  11.860   5.138  1.2645  0.4140  1.1280
 9638SOL    HW235965   6.802  11.726   5.138  0.3223  0.8895 -0.9846
 9639SOL     OW35966  12.104   9.946   5.298 -0.4675 -0.2992  0.5133
 9639SOL    HW135967  12.126   9.871   5.353  1.1844 -0.0097  0.2979
 9639SOL    HW235968  12.011   9.933   5.276 -0.2377 -2.2371  0.5272
 9640SOL     OW35969   8.783   8.626   7.782  0.0857  0.2517 -0.9464
 9640SOL    HW135970   8.834   8.585   7.852 -0.5180  0.7127 -0.2196
 9640SOL    HW235971   8.745   8.704   7.823 -0.2528  0.5457 -1.8019
 9641SOL     OW35972   7.119   0.411   9.523 -0.0772  0.6164  0.2140
 9641SOL    HW135973   7.038   0.463   9.527 -0.2335  0.3507  0.5133
 9641SOL    HW235974   7.187   0.472   9.550 -0.0805  1.0304 -0.6631
 9642SOL     OW35975  10.351   7.080   8.176  0.1197 -0.4247  0.7222
 9642SOL    HW135976  10.280   7.062   8.115  1.7143  1.4357 -1.9228
 9642SOL    HW235977  10.393   6.995   8.191 -0.4351 -0.9705 -0.6685
 9643SOL     OW35978   3.176   8.692   5.194  0.1667 -0.1731 -0.4611
 9643SOL    HW135979   3.254   8.746   5.206  0.3364 -0.7948  1.7125
 9643SOL    HW235980   3.103   8.753   5.206  0.3218  0.1163 -0.9568
 9644SOL     OW35981   9.572   7.438   4.187  1.0488 -0.3014  0.7650
 9644SOL    HW135982   9.601   7.363   4.239  0.7574  0.2749  1.7831
 9644SOL    HW235983   9.478   7.425   4.178  1.4379 -1.9546 -2.1912
 9645SOL     OW35984   9.124  11.493  11.850 -0.3410  0.4006  0.5203
 9645SOL    HW135985   9.108  11.587  11.858  0.7725  0.7135 -0.6576
 9645SOL    HW235986   9.213  11.486  11.815 -0.2914 -1.1052  0.8495
 9646SOL     OW35987   1.698   9.029   6.294  0.5745  0.5628  0.1608
 9646SOL    HW135988   1.682   9.095   6.226 -0.0312  0.2720  0.0096
 9646SOL    HW235989   1.627   8.965   6.283 -0.0450  0.9441  1.5997
 9647SOL     OW35990   2.285   7.991  10.523 -0.9788 -0.0991 -0.0275
 9647SOL    HW135991   2.203   7.968  10.567 -1.1683  1.2362  0.3396
 9647SOL    HW235992   2.341   7.915  10.537 -2.0241 -0.8870  0.0249
 9648SOL     OW35993   7.864   7.614   5.544 -0.0861  0.5541  0.0958
 9648SOL    HW135994   7.771   7.595   5.555  0.2227 -0.2997  1.4115
 9648SOL    HW235995   7.866   7.706   5.516 -1.3309  0.4496 -0.4253
 9649SOL     OW35996   1.215   2.890   5.134 -0.2173  0.3597 -0.0957
 9649SOL    HW135997   1.292   2.946   5.136  1.9280 -2.3614  2.3409
 9649SOL    HW235998   1.238   2.821   5.072 -1.2526  0.1885 -0.2992
 9650SOL     OW35999  11.676   7.606   0.363  0.2068  0.2681  0.0251
 9650SOL    HW136000  11.701   7.676   0.303 -2.1653  1.2567  0.0849
 9650SOL    HW236001  11.634   7.541   0.308  0.0681  0.1134  0.3153
 9651SOL     OW36002   0.297   7.700   0.659  0.3840  0.1451 -0.1548
 9651SOL    HW136003   0.378   7.744   0.632  0.0536  3.0073  2.8806
 9651SOL    HW236004   0.324   7.612   0.684  2.3004  0.6140 -0.4534
 9652SOL     OW36005   6.504  11.148   5.602 -0.6054  0.2641  0.4328
 9652SOL    HW136006   6.455  11.143   5.684  0.5979 -2.1847  1.1028
 9652SOL    HW236007   6.482  11.067   5.556  1.0274  0.1859 -0.2780
 9653SOL     OW36008   6.955   9.214  10.947 -0.1040 -0.4622 -0.3907
 9653SOL    HW136009   6.867   9.183  10.926 -0.1506 -1.2651  0.9093
 9653SOL    HW236010   6.940   9.290  11.003  0.0419  0.1691 -1.1827
 9654SOL     OW36011   0.530   5.894   6.653 -0.2113  0.0946 -0.5601
 9654SOL    HW136012   0.531   5.818   6.595 -1.7976 -1.2726  1.0742
 9654SOL    HW236013   0.514   5.857   6.740  1.1458  2.1469  0.6301
 9655SOL     OW36014   6.242   5.564   7.506  1.0339 -0.0078  0.3821
 9655SOL    HW136015   6.304   5.501   7.469  0.5920 -1.4134  1.8953
 9655SOL    HW236016   6.265   5.570   7.599 -0.0365  0.7288  0.6290
 9656SOL     OW36017   9.567   7.534   9.907 -0.0949  0.2747  0.7220
 9656SOL    HW136018   9.633   7.603   9.898 -0.5580  0.7231  0.7414
 9656SOL    HW236019   9.618   7.454   9.921  0.4456  0.6173  0.7343
 9657SOL     OW36020   0.771   9.090   5.299  0.2342  0.4325 -0.0044
 9657SOL    HW136021   0.844   9.143   5.267 -0.4815  2.4057  1.4003
 9657SOL    HW236022   0.797   8.999   5.282  1.9562  1.1751 -1.6301
 9658SOL     OW36023   5.314   1.362  11.287  0.6210  0.1623  0.7502
 9658SOL    HW136024   5.259   1.417  11.232  1.8494  0.0783 -0.6125
 9658SOL    HW236025   5.383   1.329  11.229  1.5869 -0.4867  2.1743
 9659SOL     OW36026  11.412   4.456   7.820 -0.0850  0.0507  0.1649
 9659SOL    HW136027  11.452   4.411   7.745 -0.0900  1.4602 -0.7062
 9659SOL    HW236028  11.319   4.435   7.813  0.1219 -1.1175  0.7076
 9660SOL     OW36029   0.346   9.436   3.649  0.5986  0.4160 -0.2898
 9660SOL    HW136030   0.380   9.442   3.738  0.0001 -1.1658  0.0721
 9660SOL    HW236031   0.299   9.518   3.636 -0.6474  0.0272  1.4518
 9661SOL     OW36032   5.883   7.100   0.652  0.4588  0.3153  0.7731
 9661SOL    HW136033   5.821   7.089   0.580  0.9944 -1.9620  0.5819
 9661SOL    HW236034   5.828   7.117   0.729 -0.3027 -0.0454  0.3184
 9662SOL     OW36035   4.856   3.840   2.551  0.2372 -0.1546 -0.0703
 9662SOL    HW136036   4.949   3.840   2.574 -0.3074 -0.2864  2.4042
 9662SOL    HW236037   4.837   3.930   2.526  0.9112 -0.0144 -0.0950
 9663SOL     OW36038   2.300   2.952   3.528  0.3131 -0.1822 -0.3359
 9663SOL    HW136039   2.213   2.991   3.531  1.0608  1.5813  0.8166
 9663SOL    HW236040   2.359   3.027   3.514  1.7061 -1.1746 -0.0307
 9664SOL     OW36041   9.127   4.682   8.842 -0.4175  0.1587 -0.1810
 9664SOL    HW136042   9.157   4.626   8.914  1.8010  0.6048 -0.6864
 9664SOL    HW236043   9.048   4.639   8.811 -1.8201  0.2884  2.8776
 9665SOL     OW36044   5.345  11.792   0.637  0.0479  0.0419  0.3519
 9665SOL    HW136045   5.343  11.697   0.646  0.4093 -0.1267 -1.1336
 9665SOL    HW236046   5.421  11.810   0.583  0.6212  1.2804  1.5186
 9666SOL     OW36047   2.359   0.985   5.654  0.0308 -0.2217  0.2164
 9666SOL    HW136048   2.388   0.904   5.611 -2.0399 -0.4483 -0.8710
 9666SOL    HW236049   2.358   1.050   5.584 -3.1804 -0.5454 -0.1817
 9667SOL     OW36050   2.681  11.247   4.562 -0.1360 -0.1977  0.3459
 9667SOL    HW136051   2.725  11.324   4.596 -2.0728  0.6546  1.0522
 9667SOL    HW236052   2.679  11.260   4.467  0.6731 -0.0366  0.3425
 9668SOL     OW36053   6.849   1.983   1.575  0.3055  0.0712  0.0766
 9668SOL    HW136054   6.819   2.016   1.490 -0.3060  3.5367  1.4561
 9668SOL    HW236055   6.882   2.061   1.620  0.9162 -1.6951  2.8928
 9669SOL     OW36056   2.103  11.803   6.832 -0.0623 -0.0988 -0.0425
 9669SOL    HW136057   2.052  11.856   6.770 -1.5846 -0.6767  0.6857
 9669SOL    HW236058   2.042  11.737   6.864  1.0613 -0.6144  1.1232
 9670SOL     OW36059   1.634   0.180   1.866  0.4008  0.2239  0.4315
 9670SOL    HW136060   1.551   0.163   1.823  0.8865  1.0881 -0.9225
 9670SOL    HW236061   1.700   0.154   1.801  1.1640  3.7116 -0.4193
 9671SOL     OW36062   7.232  10.702   6.310 -0.2399  0.2277  0.6671
 9671SOL    HW136063   7.247  10.775   6.369  0.4000  0.8164 -0.2051
 9671SOL    HW236064   7.244  10.738   6.222  3.4304 -1.5859  0.2472
 9672SOL     OW36065  11.934   5.926  12.377  0.4350 -0.4249  0.3374
 9672SOL    HW136066  11.848   5.937  12.417  1.4565  1.1457  2.2205
 9672SOL    HW236067  11.955   5.834  12.391 -0.4239 -0.5436  0.9018
 9673SOL     OW36068   4.265   2.479   0.490 -0.5614  0.2689  0.0421
 9673SOL    HW136069   4.236   2.416   0.555 -1.6417 -2.3753 -2.7468
 9673SOL    HW236070   4.185   2.519   0.456 -0.4045 -0.9677 -1.9666
 9674SOL     OW36071   8.138   7.883   4.215  0.2954  0.3244 -0.2497
 9674SOL    HW136072   8.231   7.906   4.209  0.4158 -0.1274 -0.1431
 9674SOL    HW236073   8.132   7.827   4.292  0.1982 -0.9055 -1.1098
 9675SOL     OW36074   0.670   6.314   7.177  0.2124  0.4177  0.0451
 9675SOL    HW136075   0.590   6.338   7.223  1.0863  0.9544  1.3311
 9675SOL    HW236076   0.674   6.373   7.103 -1.4362 -0.7344 -1.0386
 9676SOL     OW36077  11.277  11.073  10.132  0.2275  0.2669  0.7885
 9676SOL    HW136078  11.294  11.145  10.071 -0.6656 -0.8587 -0.8734
 9676SOL    HW236079  11.251  11.116  10.213 -0.0917  1.8260 -0.0947
 9677SOL     OW36080   7.249   8.697   9.710 -0.0795 -0.0281  0.0149
 9677SOL    HW136081   7.195   8.623   9.738 -2.6398  1.2102 -1.4304
 9677SOL    HW236082   7.328   8.656   9.673 -0.6743 -1.9382  0.7549
 9678SOL     OW36083   8.576   3.762   6.083 -0.2576 -0.0921  0.1538
 9678SOL    HW136084   8.509   3.818   6.120 -0.4696 -0.9981  1.1747
 9678SOL    HW236085   8.535   3.724   6.005  0.2100  1.8562 -1.1291
 9679SOL     OW36086   4.262   6.232  11.708  0.4429  0.3970 -0.4794
 9679SOL    HW136087   4.282   6.187  11.790  0.6839  0.4948 -0.4838
 9679SOL    HW236088   4.263   6.325  11.731  0.9678  0.4445 -0.6938
 9680SOL     OW36089   9.952   6.317   2.121 -0.0640  0.1526  0.3466
 9680SOL    HW136090   9.861   6.292   2.110 -0.2221 -0.0760  1.9925
 9680SOL    HW236091   9.951   6.412   2.127  0.1827  0.4392 -2.6371
 9681SOL     OW36092   0.990   2.930   4.527  0.3158  0.1730 -0.1751
 9681SOL    HW136093   0.976   2.888   4.612  1.6873 -0.3303 -0.1782
 9681SOL    HW236094   0.971   3.022   4.543 -0.7511 -0.1081  0.3292
 9682SOL     OW36095   6.554  12.542   1.173 -0.5411 -0.4368 -0.1248
 9682SOL    HW136096   6.488  12.611   1.164  0.2312  0.6683  1.7804
 9682SOL    HW236097   6.638  12.589   1.168  0.0269 -1.3662  0.3026
 9683SOL     OW36098  11.058   9.012   7.589  0.0700 -0.4073 -0.0788
 9683SOL    HW136099  11.004   8.973   7.520  0.2640 -1.5994  0.4028
 9683SOL    HW236100  11.131   9.052   7.544 -0.9538  0.7979 -0.7102
 9684SOL     OW36101  11.325   9.871  12.009  0.5003  0.7737  0.1274
 9684SOL    HW136102  11.408   9.850  12.053  0.9001  0.7811 -0.6077
 9684SOL    HW236103  11.350   9.930  11.938  0.2263 -1.1007 -1.6337
 9685SOL     OW36104   6.058   7.903   0.995  0.2064 -0.0027  0.3317
 9685SOL    HW136105   5.973   7.910   1.037  0.8810 -2.6018  2.3883
 9685SOL    HW236106   6.070   7.810   0.978  2.3355  0.3710 -0.6124
 9686SOL     OW36107  11.009   7.807   7.173  0.7031 -0.0691 -0.0916
 9686SOL    HW136108  10.958   7.830   7.250  2.4221  2.5366  0.4281
 9686SOL    HW236109  10.955   7.744   7.126 -0.8080 -1.0555  2.7331
 9687SOL     OW36110   6.019   0.797  11.545 -0.2686  0.1704  0.2678
 9687SOL    HW136111   6.095   0.808  11.487 -0.6806 -0.3493 -0.3816
 9687SOL    HW236112   6.049   0.735  11.612  0.5407  1.5576  1.2274
 9688SOL     OW36113   7.720   0.981   4.356 -0.1982 -0.4084 -0.0374
 9688SOL    HW136114   7.810   0.949   4.352  0.8673  2.4281 -0.9200
 9688SOL    HW236115   7.714   1.026   4.440 -0.3439  0.4853 -0.5061
 9689SOL     OW36116   8.718   6.265   8.386 -0.5236  0.3226 -0.0895
 9689SOL    HW136117   8.653   6.229   8.446  0.4617  1.4456  1.7453
 9689SOL    HW236118   8.790   6.294   8.443  2.7149 -2.9078 -2.0565
 9690SOL     OW36119  10.468   9.777   2.896 -0.0375  0.0182  0.0287
 9690SOL    HW136120  10.485   9.745   2.807 -0.6783  1.0502 -0.4937
 9690SOL    HW236121  10.374   9.796   2.897 -0.0510 -0.0695  0.9588
 9691SOL     OW36122   8.962  10.609   2.963  0.0270 -0.3100 -0.1480
 9691SOL    HW136123   8.942  10.537   2.904  1.3347 -0.7362 -0.1118
 9691SOL    HW236124   9.039  10.579   3.012 -0.3810  0.4638  1.0072
 9692SOL     OW36125   3.042  11.046  10.379 -0.1189 -0.1086 -0.2477
 9692SOL    HW136126   3.012  11.133  10.403 -1.8504 -0.4210 -1.0598
 9692SOL    HW236127   3.116  11.061  10.320  2.4341  0.6876  2.9236
 9693SOL     OW36128   6.463   8.054   0.048  0.1321 -0.6158 -0.7442
 9693SOL    HW136129   6.459   8.067  -0.047 -0.0288  0.8467 -0.5753
 9693SOL    HW236130   6.549   8.087   0.073  0.2307 -1.1306 -0.3984
 9694SOL     OW36131   1.929   6.759   0.976 -0.5736  0.3726 -0.6369
 9694SOL    HW136132   1.846   6.726   1.011 -0.6073 -0.8216 -1.7825
 9694SOL    HW236133   1.928   6.852   0.998 -0.7017 -0.1972  2.2959
 9695SOL     OW36134   1.577   5.249  10.457 -0.0973 -0.4032 -0.3130
 9695SOL    HW136135   1.541   5.330  10.420  0.8709  0.5440  0.7691
 9695SOL    HW236136   1.517   5.180  10.427 -1.9501  0.9289  0.1798
 9696SOL     OW36137  11.675   0.481  10.090  0.1867 -0.2758 -0.7507
 9696SOL    HW136138  11.766   0.467  10.117  0.2423 -0.3516 -0.9681
 9696SOL    HW236139  11.668   0.434  10.007  0.0120 -0.0814 -0.8467
 9697SOL     OW36140   7.724   2.845  10.080  0.0690  0.2412  0.1331
 9697SOL    HW136141   7.730   2.900  10.002 -2.1111 -1.0565 -1.0774
 9697SOL    HW236142   7.693   2.760  10.047  0.6556 -0.8705  2.2345
 9698SOL     OW36143  11.575   8.852   2.822  0.4047  0.3939 -0.5679
 9698SOL    HW136144  11.505   8.917   2.822  1.4363  1.5561  0.0778
 9698SOL    HW236145  11.581   8.824   2.913 -0.2424 -0.8602 -0.8991
 9699SOL     OW36146   9.008   5.349   8.390 -0.1281  0.0792 -0.1588
 9699SOL    HW136147   9.068   5.423   8.398 -0.9712  0.7481  0.0937
 9699SOL    HW236148   9.057   5.275   8.425  0.3513  0.7318  0.5934
 9700SOL     OW36149   1.711   4.316   6.700 -0.0410  0.6433 -0.0962
 9700SOL    HW136150   1.746   4.227   6.695 -0.5689  0.4385 -0.2719
 9700SOL    HW236151   1.621   4.308   6.669 -0.2962  1.1297  0.4912
 9701SOL     OW36152   6.817   5.739   3.660 -0.2887  0.0340  0.4368
 9701SOL    HW136153   6.878   5.793   3.710  0.5682  0.7694 -1.3233
 9701SOL    HW236154   6.731   5.779   3.676 -0.0774  0.0759  1.5211
 9702SOL     OW36155   5.129   5.185   3.616 -0.1092  0.0732  0.5784
 9702SOL    HW136156   5.062   5.162   3.552  0.5793  0.4326 -0.3006
 9702SOL    HW236157   5.184   5.107   3.623  1.0479  0.7213 -0.8839
 9703SOL     OW36158   6.342   7.978   1.127  0.4993  0.7125 -0.2918
 9703SOL    HW136159   6.260   8.020   1.098  0.8232  1.7537  0.2682
 9703SOL    HW236160   6.335   7.889   1.094 -0.0549  1.2772 -1.8396
 9704SOL     OW36161   7.952   0.944   0.142 -0.2112 -0.2171  0.4443
 9704SOL    HW136162   7.899   0.919   0.218  0.3920 -0.3607  0.8238
 9704SOL    HW236163   8.011   1.011   0.175  1.4688 -1.7234  0.6438
 9705SOL     OW36164   3.535   3.090   0.361  0.1447 -0.0039  0.0544
 9705SOL    HW136165   3.454   3.050   0.390  0.2165  0.7041  1.3167
 9705SOL    HW236166   3.602   3.056   0.421  0.5287  0.4843 -0.0828
 9706SOL     OW36167   7.906   3.956  11.602 -0.0902 -0.2084  0.0647
 9706SOL    HW136168   7.910   3.917  11.690 -0.1957  0.8593  0.5592
 9706SOL    HW236169   7.817   3.988  11.594  0.1314  0.3646 -0.1349
 9707SOL     OW36170   8.132   9.529   2.024  0.4575  0.5026 -0.3435
 9707SOL    HW136171   8.191   9.503   2.094 -0.5302 -0.9718 -0.0009
 9707SOL    HW236172   8.081   9.450   2.005 -1.1905  1.6244 -0.8265
 9708SOL     OW36173   0.553   4.709   8.082  0.7664  0.2700  0.1004
 9708SOL    HW136174   0.565   4.679   8.172 -3.3867 -0.0930  0.7126
 9708SOL    HW236175   0.568   4.631   8.028  0.6458 -0.1811  0.7123
 9709SOL     OW36176   2.972  10.055   9.980 -0.2166  0.0764  0.7073
 9709SOL    HW136177   2.883  10.058  10.014 -0.4929 -2.9004  0.5432
 9709SOL    HW236178   2.962  10.020   9.891  1.1078 -0.0938  0.6057
 9710SOL     OW36179   5.568   7.813   3.469 -0.1131 -0.1229  0.1824
 9710SOL    HW136180   5.516   7.882   3.427 -1.0089 -0.7036  0.3255
 9710SOL    HW236181   5.519   7.789   3.547  1.1614  0.3980  1.1705
 9711SOL     OW36182   4.758   2.449   0.708 -0.1592  0.3820  0.3147
 9711SOL    HW136183   4.672   2.436   0.669  0.0299  1.4353 -0.4923
 9711SOL    HW236184   4.760   2.389   0.783 -1.2560 -0.2757 -0.1669
 9712SOL     OW36185  10.234   4.653   3.891  0.4038 -0.3953  0.6036
 9712SOL    HW136186  10.295   4.675   3.961 -0.1555 -0.7472  1.2068
 9712SOL    HW236187  10.258   4.564   3.865  0.4414 -0.3619  0.5199
 9713SOL     OW36188  11.719   3.915   0.850 -0.1943 -0.0671  0.4477
 9713SOL    HW136189  11.639   3.864   0.859 -0.7009  0.4483 -0.8393
 9713SOL    HW236190  11.689   4.006   0.842  0.4933  0.1175 -0.1721
 9714SOL     OW36191   8.118   8.958   1.949 -0.3509 -0.0661 -0.0785
 9714SOL    HW136192   8.133   8.869   1.979  0.5479  0.1674  0.1966
 9714SOL    HW236193   8.188   9.009   1.990 -0.0457  0.5359 -1.3092
 9715SOL     OW36194   4.899   4.187   5.186  0.0326 -0.0255 -0.4488
 9715SOL    HW136195   4.849   4.148   5.258  1.0739 -1.0954 -0.2764
 9715SOL    HW236196   4.837   4.245   5.143 -0.3781  1.3823  1.8700
 9716SOL     OW36197  12.503   4.417   5.576  0.5973  0.6577 -0.2022
 9716SOL    HW136198  12.479   4.510   5.572  2.3009  1.1171 -0.8115
 9716SOL    HW236199  12.546   4.400   5.492  1.7442 -0.2435  0.5320
 9717SOL     OW36200   0.639  10.858   8.891  0.1587  0.0187  0.3329
 9717SOL    HW136201   0.667  10.811   8.812  0.5974  1.0422 -0.1394
 9717SOL    HW236202   0.560  10.812   8.919  0.3619 -0.7570 -0.3357
 9718SOL     OW36203   9.000   0.996   3.615 -0.6249 -0.0614 -0.3784
 9718SOL    HW136204   8.984   0.935   3.543 -0.2154  0.0904 -0.5997
 9718SOL    HW236205   9.077   1.045   3.588 -0.1701 -0.3436  0.3863
 9719SOL     OW36206   4.395   3.541   3.836 -0.2272 -1.1467  0.2980
 9719SOL    HW136207   4.358   3.454   3.844  0.9367 -1.5593  1.5778
 9719SOL    HW236208   4.340   3.596   3.893 -0.5814 -1.1715 -0.0194
 9720SOL     OW36209   5.074  10.897   5.018  0.0281 -0.2050  0.5238
 9720SOL    HW136210   5.007  10.954   5.056  1.0150  0.9237  0.6206
 9720SOL    HW236211   5.091  10.832   5.087 -1.2203 -0.7417  0.3479
 9721SOL     OW36212   4.644  10.616   2.644  0.0171 -0.2413 -0.0524
 9721SOL    HW136213   4.576  10.595   2.580 -1.2818  0.7590  0.9425
 9721SOL    HW236214   4.694  10.688   2.604 -2.0549  1.7877  0.8086
 9722SOL     OW36215   9.644  10.420   3.141  0.3197 -0.0327 -0.4262
 9722SOL    HW136216   9.685  10.432   3.226  0.1973 -0.2661 -0.3337
 9722SOL    HW236217   9.711  10.449   3.078  0.7734 -0.7647 -0.2966
 9723SOL     OW36218   4.730  11.444  12.267 -0.0851 -0.6345  0.1257
 9723SOL    HW136219   4.686  11.529  12.258  1.6936  0.8328  3.4763
 9723SOL    HW236220   4.675  11.395  12.329  0.0502 -1.0426 -0.0736
 9724SOL     OW36221  11.476  11.207   5.099 -0.4603 -0.0295 -0.2331
 9724SOL    HW136222  11.410  11.270   5.129  0.0678  0.7329 -0.6187
 9724SOL    HW236223  11.559  11.249   5.121  0.0026  0.8991 -3.3031
 9725SOL     OW36224   9.194   8.569   6.581  0.4153  0.3211 -0.1597
 9725SOL    HW136225   9.169   8.476   6.585 -0.7889  0.6673  1.6121
 9725SOL    HW236226   9.124   8.610   6.530 -0.4170  0.6184  1.1785
 9726SOL     OW36227  10.839   2.362   3.565 -0.2473  0.1872 -0.0704
 9726SOL    HW136228  10.843   2.342   3.658 -1.3981 -1.0474 -0.2611
 9726SOL    HW236229  10.769   2.306   3.531 -0.1877  0.9806 -1.5844
 9727SOL     OW36230  10.710   2.134   0.160 -0.2045  0.3583 -0.2897
 9727SOL    HW136231  10.730   2.073   0.230 -1.4818  0.7261  0.4420
 9727SOL    HW236232  10.624   2.171   0.184  0.5397  2.4793 -0.6535
 9728SOL     OW36233   6.947   9.032   7.213 -0.0577  0.0089 -0.1922
 9728SOL    HW136234   7.018   9.092   7.238  0.1525 -0.7756  1.2046
 9728SOL    HW236235   6.929   9.053   7.121  0.6043  1.6015  0.0061
 9729SOL     OW36236   6.956   7.596   6.286 -0.1200 -0.0955 -0.5517
 9729SOL    HW136237   6.959   7.651   6.208  1.0269 -1.5373 -1.5782
 9729SOL    HW236238   6.969   7.657   6.359 -1.8962  1.3753 -1.3981
 9730SOL     OW36239   5.979   0.196   8.064 -0.1449 -0.2771  0.5294
 9730SOL    HW136240   6.053   0.236   8.110 -0.2920  1.6410 -0.7821
 9730SOL    HW236241   6.009   0.188   7.973 -1.1707 -0.5006  0.1971
 9731SOL     OW36242   2.297   0.949   5.931 -0.2859  0.1909 -0.3069
 9731SOL    HW136243   2.307   0.939   5.837  1.8327  0.1169 -0.1354
 9731SOL    HW236244   2.256   1.034   5.943  0.4600  0.7014 -1.2905
 9732SOL     OW36245  11.742   6.849   3.847 -0.6312  0.1539 -0.1636
 9732SOL    HW136246  11.675   6.908   3.811 -0.3690 -1.0586 -2.9498
 9732SOL    HW236247  11.823   6.900   3.845 -0.6228  0.1280 -1.4625
 9733SOL     OW36248   4.155   3.792   5.161  0.1609  0.2202  0.4256
 9733SOL    HW136249   4.109   3.844   5.227  0.2011  2.3289 -1.1208
 9733SOL    HW236250   4.127   3.702   5.177 -2.0080  1.0304  1.5206
 9734SOL     OW36251   4.260   6.543  11.696 -0.2848 -0.0143 -0.2290
 9734SOL    HW136252   4.182   6.510  11.651 -0.6181 -0.3181  0.5686
 9734SOL    HW236253   4.239   6.633  11.718 -0.5914 -0.2358  0.3942
 9735SOL     OW36254   2.386   1.656  11.097 -0.1578  0.0825  0.6442
 9735SOL    HW136255   2.338   1.645  11.179 -1.0327 -0.3468  0.0805
 9735SOL    HW236256   2.335   1.608  11.032  1.0473 -0.4210  0.0275
 9736SOL     OW36257   6.446   9.043   4.858 -0.3822 -0.3050  0.4190
 9736SOL    HW136258   6.403   8.999   4.931 -0.9214  3.4706  2.6848
 9736SOL    HW236259   6.534   9.005   4.854 -1.1662 -2.3254  1.3350
 9737SOL     OW36260   9.433   5.381   1.465 -0.0809 -0.1248 -0.2445
 9737SOL    HW136261   9.525   5.355   1.469 -0.0489  0.0212 -0.0039
 9737SOL    HW236262   9.435   5.476   1.455 -0.2046 -0.1480 -0.4856
 9738SOL     OW36263   4.051   2.871   8.162 -0.1578  0.2465  0.2819
 9738SOL    HW136264   4.076   2.957   8.194  0.5183  0.3425 -0.4797
 9738SOL    HW236265   4.041   2.818   8.241  1.4594  0.4846  0.6829
 9739SOL     OW36266   5.682   1.930  11.491 -0.0252  0.1942  0.4403
 9739SOL    HW136267   5.604   1.981  11.469  0.0689 -0.5430 -1.9853
 9739SOL    HW236268   5.662   1.890  11.575 -1.5327  1.4215  0.7171
 9740SOL     OW36269   9.494   0.965  10.624 -0.4399 -0.6361  0.6841
 9740SOL    HW136270   9.548   1.013  10.688 -1.0572 -2.2523  2.5329
 9740SOL    HW236271   9.424   1.026  10.601 -0.6145 -0.2313  2.1709
 9741SOL     OW36272  10.090   6.875   5.363  0.2535 -0.1715 -0.1591
 9741SOL    HW136273  10.019   6.812   5.356 -1.0599  0.9480  1.9781
 9741SOL    HW236274  10.060   6.951   5.314 -0.6024  0.7069  1.6175
 9742SOL     OW36275   0.597  11.769   4.511 -0.2413  0.1018  0.2111
 9742SOL    HW136276   0.629  11.679   4.521 -1.5498 -0.3659  0.4891
 9742SOL    HW236277   0.552  11.769   4.426 -0.1833  0.5221  0.1772
 9743SOL     OW36278   1.549   4.222   0.679  0.6140  0.2647  0.6313
 9743SOL    HW136279   1.605   4.157   0.719  0.4658  0.7545  1.6772
 9743SOL    HW236280   1.571   4.220   0.585  2.3513  0.4393  1.0069
 9744SOL     OW36281   2.123  10.626   0.216 -0.2080 -0.2376 -0.4729
 9744SOL    HW136282   2.151  10.540   0.246  1.6979  0.2099 -0.8475
 9744SOL    HW236283   2.080  10.610   0.132  1.7728 -0.6881 -1.4592
 9745SOL     OW36284   4.991   7.647   9.390 -0.0192  0.5424  0.2016
 9745SOL    HW136285   4.986   7.647   9.485  1.0007  0.4661  0.2612
 9745SOL    HW236286   5.044   7.724   9.368  0.9110 -0.2026 -0.2259
 9746SOL     OW36287   4.000  10.782  10.723 -0.0105 -0.3551 -0.0224
 9746SOL    HW136288   4.080  10.821  10.757  0.6009 -0.1880 -1.5765
 9746SOL    HW236289   4.012  10.688  10.736  1.6243 -0.5797 -2.5192
 9747SOL     OW36290   4.114   8.176  12.533 -0.0803 -0.2808  0.3684
 9747SOL    HW136291   4.167   8.246  12.494 -1.5629  1.8340  1.9079
 9747SOL    HW236292   4.163   8.149  12.610 -0.4320  0.5101  0.8809
 9748SOL     OW36293  11.728   4.890   4.355 -0.1602  0.5144 -0.1292
 9748SOL    HW136294  11.759   4.847   4.275 -0.5566  0.8309 -0.4606
 9748SOL    HW236295  11.805   4.895   4.411  0.8351  2.6326 -1.5163
 9749SOL     OW36296  10.401   7.167   1.042  0.3375 -0.0297  0.0244
 9749SOL    HW136297  10.472   7.231   1.043  1.3503 -1.0839  2.2040
 9749SOL    HW236298  10.414   7.115   1.121 -0.2198 -3.1863 -1.7825
 9750SOL     OW36299   3.879   1.869   4.272 -0.7382  0.0359  0.4632
 9750SOL    HW136300   3.926   1.858   4.189  0.5699  1.3947  0.9684
 9750SOL    HW236301   3.874   1.781   4.308  2.7490 -0.0998  1.0172
 9751SOL     OW36302   0.557  10.878   6.363 -0.5992 -0.0375 -0.0885
 9751SOL    HW136303   0.565  10.967   6.329  0.0821  0.9965  2.5298
 9751SOL    HW236304   0.582  10.822   6.290 -0.5384  1.9232 -1.6595
 9752SOL     OW36305   2.857  10.834   8.012 -0.0942 -0.0124  0.0729
 9752SOL    HW136306   2.865  10.825   8.107  2.0224  0.2225 -0.0477
 9752SOL    HW236307   2.772  10.796   7.992 -0.0228 -1.2667  1.9128
 9753SOL     OW36308   1.024   6.287   8.202  0.0691 -0.2018 -0.3007
 9753SOL    HW136309   0.939   6.266   8.162 -0.0046 -0.5658  0.0403
 9753SOL    HW236310   1.008   6.367   8.251  0.5521  1.1806 -2.2757
 9754SOL     OW36311   4.050   4.083   3.661  0.9753  0.3253  0.3788
 9754SOL    HW136312   4.101   4.018   3.710  0.4211 -1.1533 -0.9335
 9754SOL    HW236313   4.043   4.047   3.573 -0.5918  1.4855 -0.0171
 9755SOL     OW36314   8.740   5.518   7.034  0.4499 -0.2881 -0.0318
 9755SOL    HW136315   8.763   5.515   6.941 -2.9467  0.9899 -1.0670
 9755SOL    HW236316   8.740   5.426   7.062 -1.2192 -0.9984 -2.1299
 9756SOL     OW36317   7.801   6.387  10.531 -0.4046 -0.1239  0.4338
 9756SOL    HW136318   7.817   6.413  10.621 -0.9576  0.9515  0.2328
 9756SOL    HW236319   7.819   6.466  10.480 -1.0641 -0.4401 -0.3028
 9757SOL     OW36320   6.466   2.828   0.077 -0.0505 -0.0013  0.4452
 9757SOL    HW136321   6.538   2.764   0.075 -0.0016 -0.0008  1.7277
 9757SOL    HW236322   6.495   2.899   0.020  0.8325 -0.1407  0.7128
 9758SOL     OW36323   2.857   0.441  11.273  0.2597  0.0886 -0.4169
 9758SOL    HW136324   2.857   0.359  11.321  1.1753 -0.4808 -1.3476
 9758SOL    HW236325   2.776   0.439  11.222 -0.8270  0.7942  1.1962
 9759SOL     OW36326   1.137   8.627   7.213  0.0464  0.3098  0.1524
 9759SOL    HW136327   1.090   8.553   7.250  0.9075  0.1686  1.0149
 9759SOL    HW236328   1.073   8.671   7.157 -0.3905 -1.2556 -0.6257
 9760SOL     OW36329   0.904   8.110   9.150  0.5022  0.1025 -0.2846
 9760SOL    HW136330   0.882   8.095   9.058  1.1115  1.7535 -0.7357
 9760SOL    HW236331   0.866   8.196   9.170 -0.8497 -0.8231  1.4460
 9761SOL     OW36332   4.696   6.945   0.282  0.1061 -0.3871 -0.7493
 9761SOL    HW136333   4.732   6.963   0.195  1.0374 -0.6592 -0.4299
 9761SOL    HW236334   4.772   6.924   0.336 -0.7051 -3.4011 -0.6270
 9762SOL     OW36335   1.614   0.120   6.369  0.3124  0.2664 -0.0223
 9762SOL    HW136336   1.650   0.145   6.454  0.6556 -0.1857 -0.0337
 9762SOL    HW236337   1.677   0.057   6.334 -0.5049 -0.5792 -0.0165
 9763SOL     OW36338   7.892   6.031  12.149 -0.6793 -0.2909 -0.4608
 9763SOL    HW136339   7.832   6.076  12.208  0.3050 -1.5865  1.6608
 9763SOL    HW236340   7.843   5.955  12.118 -1.0373  0.1385 -0.9726
 9764SOL     OW36341   1.282   5.880   0.011  0.1678  0.2435 -0.0641
 9764SOL    HW136342   1.315   5.950  -0.045 -0.0481  0.7575  0.4464
 9764SOL    HW236343   1.204   5.917   0.053  1.3065  0.5020  1.9458
 9765SOL     OW36344  11.937  10.100   8.755  0.2336  0.1935  0.3045
 9765SOL    HW136345  11.987  10.019   8.760 -0.7194 -0.4331 -0.1310
 9765SOL    HW236346  11.869  10.083   8.690 -1.2007  0.6580  1.6176
 9766SOL     OW36347   7.319   9.141   2.853  0.4616  0.4905 -0.7024
 9766SOL    HW136348   7.407   9.160   2.820  0.1234 -1.7508 -3.2060
 9766SOL    HW236349   7.263   9.144   2.776 -1.2936 -0.2739  0.4849
 9767SOL     OW36350   7.301   1.266  10.673  0.3879 -0.2863  0.0481
 9767SOL    HW136351   7.337   1.277  10.761  2.1701  0.6185 -0.7267
 9767SOL    HW236352   7.280   1.173  10.667  0.4887 -0.4045  1.3496
 9768SOL     OW36353  11.014  10.172   4.059 -0.1167 -0.0642  0.6206
 9768SOL    HW136354  11.108  10.156   4.056 -0.1148 -0.1189  0.9433
 9768SOL    HW236355  10.999  10.240   3.994  0.1290 -0.1321  0.4892
 9769SOL     OW36356   1.415   9.057   5.670 -0.3447 -0.0517 -0.0189
 9769SOL    HW136357   1.456   9.138   5.701  0.2281 -0.2026 -0.3686
 9769SOL    HW236358   1.340   9.087   5.618  0.8639  0.3462 -1.6216
 9770SOL     OW36359   3.296   6.946   3.080  0.6851  0.4320 -0.3590
 9770SOL    HW136360   3.329   7.031   3.109  1.8876 -0.9290  2.7486
 9770SOL    HW236361   3.367   6.885   3.101 -0.8418 -1.5781 -0.7813
 9771SOL     OW36362  12.179   1.481  12.158  0.1492  0.0715  0.3916
 9771SOL    HW136363  12.112   1.424  12.120  0.2056 -0.2216  0.7244
 9771SOL    HW236364  12.143   1.507  12.243  0.7990 -0.7571  0.9397
 9772SOL     OW36365  10.401   3.930   2.305 -0.2275 -0.5367 -0.7859
 9772SOL    HW136366  10.383   3.953   2.214 -4.7049  0.0554  0.0094
 9772SOL    HW236367  10.414   4.014   2.349 -1.2935 -0.5663 -0.3916
 9773SOL     OW36368   7.892   0.124   9.738  0.2962  0.7175 -0.4100
 9773SOL    HW136369   7.880   0.218   9.727 -0.2475  0.5885 -0.9857
 9773SOL    HW236370   7.846   0.103   9.819 -0.0329  0.8627 -0.5588
 9774SOL     OW36371   8.880   0.192  10.505  0.1432  0.4267 -0.1220
 9774SOL    HW136372   8.825   0.264  10.537 -0.2298  0.8597 -1.6585
 9774SOL    HW236373   8.873   0.197  10.410  0.2145 -1.5766 -0.2736
 9775SOL     OW36374   7.043   3.025   7.667  0.5848 -0.0369  0.0416
 9775SOL    HW136375   6.970   3.068   7.712 -1.3312 -0.3972 -2.4863
 9775SOL    HW236376   7.052   3.073   7.585  3.3835  0.0936  0.3357
 9776SOL     OW36377   1.520   1.062   9.711 -0.3628 -0.1638  0.2421
 9776SOL    HW136378   1.496   0.993   9.649  0.5059 -0.8466  0.6311
 9776SOL    HW236379   1.594   1.106   9.670  0.1240 -0.5276  0.7122
 9777SOL     OW36380  11.422   1.278   1.777 -0.6535  0.4447  0.4173
 9777SOL    HW136381  11.485   1.230   1.723 -0.2945  1.5399 -0.1875
 9777SOL    HW236382  11.473   1.350   1.815 -0.4549 -1.2072  3.6684
 9778SOL     OW36383   5.922  11.589   5.276  0.3976 -0.3084 -0.4694
 9778SOL    HW136384   5.837  11.600   5.234  0.0090  0.7196  0.5534
 9778SOL    HW236385   5.982  11.643   5.224 -0.1014  1.0435  0.3131
 9779SOL     OW36386   7.680  11.149  11.225  0.5204  0.1107 -0.2493
 9779SOL    HW136387   7.590  11.141  11.194  0.8962 -1.6145 -1.0154
 9779SOL    HW236388   7.677  11.221  11.288 -1.6179 -0.5432  0.5014
 9780SOL     OW36389   3.372   0.127   9.533  0.3170  0.2308 -0.2382
 9780SOL    HW136390   3.365   0.032   9.542  0.1965  0.3561  1.3188
 9780SOL    HW236391   3.466   0.144   9.537  0.3939  0.1266 -1.3406
 9781SOL     OW36392   3.629  11.654   7.019  0.3259 -0.0222  0.0880
 9781SOL    HW136393   3.692  11.582   7.016 -0.2819 -0.6564  1.5004
 9781SOL    HW236394   3.683  11.733   7.024  1.0224 -0.5355  0.9452
 9782SOL     OW36395   1.191  11.424   1.693  0.6275 -0.5914  0.1763
 9782SOL    HW136396   1.169  11.492   1.756  1.5033  0.3424 -0.5054
 9782SOL    HW236397   1.142  11.347   1.723  0.9088 -0.1321  1.9044
 9783SOL     OW36398   9.318  10.372  11.516 -0.2015  0.1237 -0.0650
 9783SOL    HW136399   9.329  10.434  11.444  2.6194  0.8444  0.8442
 9783SOL    HW236400   9.305  10.427  11.593 -0.1719 -0.5075  0.4022
 9784SOL     OW36401   7.763   6.663   3.244  0.1664 -0.4519  0.3110
 9784SOL    HW136402   7.778   6.704   3.329 -0.3041 -2.9680  1.6694
 9784SOL    HW236403   7.823   6.710   3.185  1.4487  0.5016  2.2609
 9785SOL     OW36404   6.844  12.149   9.185 -0.4726 -0.0091 -0.3672
 9785SOL    HW136405   6.764  12.110   9.148 -0.4433  0.2986 -0.7607
 9785SOL    HW236406   6.812  12.224   9.235 -0.3757  0.5334 -1.1032
 9786SOL     OW36407   1.919  10.354  10.475 -0.3287 -0.0014 -0.6054
 9786SOL    HW136408   2.004  10.394  10.457 -0.7545  1.2079 -0.0436
 9786SOL    HW236409   1.890  10.322  10.390  0.9322 -0.9622 -0.7045
 9787SOL     OW36410   3.542  11.320   5.301 -0.2125 -0.8016  0.2096
 9787SOL    HW136411   3.492  11.320   5.220 -0.3792  0.1229  0.3055
 9787SOL    HW236412   3.604  11.393   5.292  0.0544 -0.9539  0.7409
 9788SOL     OW36413   0.781  12.538   5.097  0.0827  0.2574 -0.4232
 9788SOL    HW136414   0.686  12.532   5.106  0.2015 -0.8606  0.1790
 9788SOL    HW236415   0.800  12.495   5.013  0.0181  1.0286 -0.8491
 9789SOL     OW36416   1.027   8.871   0.650 -0.4164  0.4569  0.0285
 9789SOL    HW136417   1.008   8.965   0.648 -0.7956  0.3758 -0.2856
 9789SOL    HW236418   1.109   8.864   0.699  0.2401  1.0570 -0.9686
 9790SOL     OW36419   9.408  11.930   2.729 -0.0779 -0.5081  0.3382
 9790SOL    HW136420   9.318  11.962   2.735  0.1624  0.3628 -0.3464
 9790SOL    HW236421   9.445  11.945   2.816  0.0995  1.4116 -0.0174
 9791SOL     OW36422   5.991   5.629   2.439 -0.3025  0.0144  0.3537
 9791SOL    HW136423   6.018   5.563   2.503  0.2147  0.9852  1.1704
 9791SOL    HW236424   6.036   5.603   2.358 -1.3102 -1.4761  0.2244
 9792SOL     OW36425   6.462   8.524   4.208  0.1594  0.2674  0.2438
 9792SOL    HW136426   6.462   8.549   4.301  1.1437 -0.2818  0.4154
 9792SOL    HW236427   6.547   8.554   4.176  0.0190  0.0253 -0.3564
 9793SOL     OW36428   7.605   7.616   9.662 -0.5362 -0.4812  0.4536
 9793SOL    HW136429   7.523   7.657   9.690 -0.6522 -1.2848  1.3174
 9793SOL    HW236430   7.581   7.560   9.589 -0.6999 -0.4900  0.5154
 9794SOL     OW36431   4.044   0.407   6.246 -0.1071  0.2343  0.1729
 9794SOL    HW136432   3.987   0.355   6.303 -2.0976  1.9269 -0.1570
 9794SOL    HW236433   4.011   0.497   6.255  2.5663  1.3242 -0.0369
 9795SOL     OW36434   8.893  11.518  11.132  0.2737 -0.3977  0.0933
 9795SOL    HW136435   8.918  11.478  11.048  0.8320  1.4909 -0.6804
 9795SOL    HW236436   8.974  11.557  11.165 -0.3889  0.7144  0.4515
 9796SOL     OW36437   6.510   5.438   2.996  0.0158 -0.5188  0.0871
 9796SOL    HW136438   6.557   5.513   2.957 -0.7627 -1.0909 -2.0756
 9796SOL    HW236439   6.423   5.443   2.958  0.3429 -3.2872 -1.2172
 9797SOL     OW36440   1.148   6.660   0.950  0.4173 -0.8182 -0.3231
 9797SOL    HW136441   1.238   6.690   0.963 -0.3872  1.7250 -0.0925
 9797SOL    HW236442   1.100   6.698   1.024 -1.6044  1.6228 -2.6859
 9798SOL     OW36443  10.191   2.693   8.035  0.0082  0.6229 -0.1545
 9798SOL    HW136444  10.248   2.618   8.049  0.3874  1.1401  1.1827
 9798SOL    HW236445  10.103   2.660   8.052  0.2649  0.7019  1.4558
 9799SOL     OW36446   1.686  10.439   4.704 -0.0522 -1.0601  0.3026
 9799SOL    HW136447   1.667  10.529   4.679  1.5746  0.1538  3.0107
 9799SOL    HW236448   1.666  10.387   4.626 -0.5110  1.6873 -1.5186
 9800SOL     OW36449   6.891   4.561   5.574  0.2064 -0.3883  0.1553
 9800SOL    HW136450   6.913   4.473   5.541  0.6944 -0.6233  1.0714
 9800SOL    HW236451   6.837   4.545   5.651 -1.1023  0.1630 -0.6110
 9801SOL     OW36452   4.621   0.896   7.215 -0.5631 -0.0427  0.6137
 9801SOL    HW136453   4.624   0.931   7.304  1.3882 -0.7004  0.8757
 9801SOL    HW236454   4.611   0.973   7.159 -1.8070  0.3821  1.3909
 9802SOL     OW36455   5.174   1.561   8.785  0.0106  0.1515 -0.1470
 9802SOL    HW136456   5.124   1.502   8.841  0.8642 -0.8830 -0.4398
 9802SOL    HW236457   5.240   1.505   8.744 -0.9393  0.7705 -2.6405
 9803SOL     OW36458  11.825   0.436   0.838  0.4513 -0.4819  0.2102
 9803SOL    HW136459  11.836   0.386   0.757  1.3099  0.0450 -0.0134
 9803SOL    HW236460  11.730   0.448   0.846  0.3110 -1.1863 -0.3144
 9804SOL     OW36461   3.309   1.539   3.789 -0.3817 -0.4396  0.5113
 9804SOL    HW136462   3.281   1.493   3.869  0.5817 -1.8845  0.0578
 9804SOL    HW236463   3.240   1.520   3.726  1.1245 -3.4074 -0.3965
 9805SOL     OW36464   6.545  11.274   0.111  0.2313 -0.3805  0.3553
 9805SOL    HW136465   6.461  11.281   0.065 -0.5053  0.1223  1.7054
 9805SOL    HW236466   6.570  11.365   0.130  1.0467 -0.5307  0.0576
 9806SOL     OW36467   6.412   7.515   8.828  0.3023 -0.1836  0.1487
 9806SOL    HW136468   6.503   7.539   8.811  0.1648  0.0632 -0.2562
 9806SOL    HW236469   6.369   7.597   8.850  0.1821 -0.3064  0.3801
 9807SOL     OW36470   4.327   1.777   1.613 -0.2732  0.2770  0.6976
 9807SOL    HW136471   4.345   1.770   1.707  0.9469  1.1366  0.5629
 9807SOL    HW236472   4.360   1.864   1.590  0.3369 -0.3014 -0.7023
 9808SOL     OW36473   5.411   0.162   1.258  1.0360 -0.0054 -0.3399
 9808SOL    HW136474   5.441   0.240   1.304 -1.7380  0.8015  0.2537
 9808SOL    HW236475   5.399   0.190   1.167 -2.6492  1.2503  0.3568
 9809SOL     OW36476   5.855   5.145  11.235  0.3706  0.4382  0.2853
 9809SOL    HW136477   5.823   5.107  11.317 -0.0818 -1.0316 -0.5419
 9809SOL    HW236478   5.950   5.151  11.246  0.5615 -1.7273  0.1502
 9810SOL     OW36479  10.442   2.476   6.954 -0.1514 -0.0785  0.7850
 9810SOL    HW136480  10.433   2.532   7.031 -0.3232  1.0614 -0.0493
 9810SOL    HW236481  10.444   2.536   6.880 -2.7683 -1.2584 -0.3638
 9811SOL     OW36482  12.203   9.439   2.036 -0.2541  0.4122  0.6912
 9811SOL    HW136483  12.265   9.409   2.102  0.5530 -0.1245 -0.2864
 9811SOL    HW236484  12.117   9.433   2.079  0.0934 -1.3729  1.1904
 9812SOL     OW36485   7.514   1.876   2.340 -0.3931 -0.0156 -0.3234
 9812SOL    HW136486   7.447   1.845   2.401  0.1047  0.5950  0.5565
 9812SOL    HW236487   7.490   1.836   2.257 -1.2527 -0.6451  0.2007
 9813SOL     OW36488   0.271   4.180   6.068 -0.5411  0.0630 -0.2373
 9813SOL    HW136489   0.252   4.098   6.113 -0.1331  0.9171  1.5871
 9813SOL    HW236490   0.232   4.248   6.123  0.1418  1.1806 -1.0773
 9814SOL     OW36491   1.449  10.374   3.302  0.1173  0.3690  0.3226
 9814SOL    HW136492   1.435  10.424   3.221 -0.3932  0.7534  0.6373
 9814SOL    HW236493   1.531  10.408   3.337  1.3245 -1.0879 -0.9586
 9815SOL     OW36494  10.944  12.019   9.086  0.3912 -0.2686  0.2697
 9815SOL    HW136495  10.912  12.075   9.157  0.3154 -0.3163  0.2735
 9815SOL    HW236496  10.938  11.930   9.120 -3.9191 -0.8185 -1.2744
 9816SOL     OW36497   6.168   7.430   3.758  0.3122 -0.5009  0.7331
 9816SOL    HW136498   6.255   7.431   3.798  0.3484  2.5455  0.8550
 9816SOL    HW236499   6.165   7.510   3.705 -1.3104 -2.1668 -1.9041
 9817SOL     OW36500   9.123   5.971   8.649  0.5853 -0.1725  0.0526
 9817SOL    HW136501   9.178   5.936   8.719  2.0701 -0.1581 -1.0573
 9817SOL    HW236502   9.108   6.062   8.674  0.1751 -0.4618  0.8886
 9818SOL     OW36503  12.521   3.170   7.147  0.2166 -0.4558  0.4325
 9818SOL    HW136504  12.456   3.224   7.100  0.2003 -0.2748  0.6601
 9818SOL    HW236505  12.605   3.198   7.112  0.3254  0.8109  1.6191
 9819SOL     OW36506   9.346   2.847   4.408  0.1732  0.4884 -0.5319
 9819SOL    HW136507   9.419   2.901   4.437 -1.0900  2.3321 -0.5858
 9819SOL    HW236508   9.268   2.899   4.429 -1.1290 -1.4351 -0.4084
 9820SOL     OW36509  10.299   3.343   9.486 -0.3099  0.1397 -0.2165
 9820SOL    HW136510  10.323   3.252   9.498  0.4715  0.5513  1.6291
 9820SOL    HW236511  10.351   3.372   9.410 -0.8772 -1.0306 -1.0668
 9821SOL     OW36512   3.067  11.481   9.539 -0.4914  0.7865  0.0521
 9821SOL    HW136513   3.135  11.548   9.539  0.4203 -0.0748 -1.1423
 9821SOL    HW236514   3.059  11.455   9.631  0.1363  1.5495  0.3385
 9822SOL     OW36515   8.008   5.643   4.854  0.0500 -0.1326  0.2368
 9822SOL    HW136516   7.991   5.708   4.786 -0.6636 -0.4656  0.0865
 9822SOL    HW236517   8.102   5.626   4.848 -0.0824 -0.5115 -0.9852
 9823SOL     OW36518  11.955   6.146   0.391  0.4719  0.0068  0.3225
 9823SOL    HW136519  12.037   6.193   0.409  0.4497  0.1718  0.0124
 9823SOL    HW236520  11.923   6.120   0.477 -0.0222  1.4130  0.5892
 9824SOL     OW36521   4.840   1.014   1.869 -0.0080  0.1074 -0.3683
 9824SOL    HW136522   4.762   0.986   1.820  0.5428 -0.5648 -0.8814
 9824SOL    HW236523   4.827   0.979   1.957 -0.7917  0.9389 -0.1260
 9825SOL     OW36524   9.654   6.638   4.543 -0.2595  0.3083  0.0270
 9825SOL    HW136525   9.588   6.684   4.492 -1.6808 -1.5744  0.0570
 9825SOL    HW236526   9.661   6.552   4.502  1.3069  0.0453  0.7624
 9826SOL     OW36527   7.675   3.340   1.578  0.6310  0.3363  0.5251
 9826SOL    HW136528   7.744   3.394   1.538  1.0820 -1.2175 -0.8926
 9826SOL    HW236529   7.607   3.335   1.511  0.3407 -0.3674  0.8634
 9827SOL     OW36530  12.150   9.106   5.325  0.5263 -0.1953 -0.3871
 9827SOL    HW136531  12.161   9.192   5.285 -2.6215 -0.0786 -1.2797
 9827SOL    HW236532  12.091   9.059   5.265 -0.7177 -1.6629  1.8486
 9828SOL     OW36533   9.446  11.682  11.236 -0.4045 -0.1182  0.1436
 9828SOL    HW136534   9.451  11.708  11.328 -2.2360  1.3575 -0.1369
 9828SOL    HW236535   9.406  11.595  11.238 -0.5472 -0.0428  0.7266
 9829SOL     OW36536   5.005   4.202   3.007  0.3478 -0.2581 -0.2163
 9829SOL    HW136537   4.984   4.148   2.932  1.8071 -0.4848 -0.4915
 9829SOL    HW236538   4.931   4.262   3.016 -0.8070 -1.6044 -0.5349
 9830SOL     OW36539   6.274   6.395   0.734  0.1596 -0.1936 -0.1251
 9830SOL    HW136540   6.348   6.455   0.725 -1.2470  1.5748 -0.5274
 9830SOL    HW236541   6.207   6.446   0.779 -0.7540 -1.8179  0.4420
 9831SOL     OW36542   4.977   3.796  12.528 -0.3648 -0.0831 -0.2783
 9831SOL    HW136543   4.882   3.802  12.539 -0.5094  0.2639 -1.5430
 9831SOL    HW236544   5.007   3.887  12.526 -0.2057 -0.1458 -1.3402
 9832SOL     OW36545   4.395  10.368   6.348  0.1139  0.0326 -0.6593
 9832SOL    HW136546   4.300  10.378   6.350 -0.1059 -1.7069 -1.4787
 9832SOL    HW236547   4.426  10.442   6.296 -0.5940  1.6006  1.0265
 9833SOL     OW36548  10.411   2.509   0.349  0.7401  0.3350  0.7734
 9833SOL    HW136549  10.450   2.451   0.413  0.3937 -0.3749  0.3518
 9833SOL    HW236550  10.318   2.485   0.348  0.9712 -0.6751 -1.0232
 9834SOL     OW36551   6.822   8.544   7.793 -0.0316 -0.3408  0.6256
 9834SOL    HW136552   6.739   8.590   7.780 -1.2188 -1.9708  1.9818
 9834SOL    HW236553   6.797   8.452   7.803  2.1202 -1.1437 -0.6362
 9835SOL     OW36554  11.058   1.202   4.758  0.2906 -0.6884  0.2081
 9835SOL    HW136555  11.050   1.193   4.663  0.3352 -1.8732  0.2905
 9835SOL    HW236556  10.972   1.174   4.792 -0.1645  0.9492  0.4768
 9836SOL     OW36557   1.607   9.264   7.995  0.1222 -0.0082  0.8071
 9836SOL    HW136558   1.643   9.194   7.940 -0.6577  0.3398 -0.1690
 9836SOL    HW236559   1.515   9.241   8.005 -0.0691  0.7085  0.7440
 9837SOL     OW36560   5.372   2.227   7.610 -0.0957  0.3288  0.1439
 9837SOL    HW136561   5.362   2.132   7.609 -0.6012  0.3823  0.1063
 9837SOL    HW236562   5.467   2.240   7.606  0.0744 -0.1938  1.6118
 9838SOL     OW36563   2.019   7.425   4.776  0.2500 -0.2163  0.2860
 9838SOL    HW136564   2.098   7.400   4.728  1.3933  0.7613  1.6030
 9838SOL    HW236565   2.042   7.508   4.819 -0.9875 -0.6434  1.8615
 9839SOL     OW36566   2.361   6.868   4.269  0.0532  0.0169 -0.0298
 9839SOL    HW136567   2.344   6.936   4.203 -2.1724 -1.1592 -0.7467
 9839SOL    HW236568   2.411   6.913   4.337  1.0068  1.6794 -1.7319
 9840SOL     OW36569   9.245   2.152   4.445 -0.1842 -0.3594 -0.2196
 9840SOL    HW136570   9.185   2.081   4.423 -0.6451 -0.1537  0.3437
 9840SOL    HW236571   9.203   2.231   4.412 -0.9822 -0.0217  1.4899
 9841SOL     OW36572   3.087   4.569   0.752 -0.4163  0.7209  0.5133
 9841SOL    HW136573   3.171   4.550   0.792 -0.1032 -0.4889 -0.6321
 9841SOL    HW236574   3.093   4.532   0.664 -1.2836  2.7469 -0.4639
 9842SOL     OW36575   9.765  10.754   6.148  0.2858 -0.0609  0.6592
 9842SOL    HW136576   9.716  10.825   6.191  0.4285  0.4638 -0.0378
 9842SOL    HW236577   9.752  10.769   6.055  0.9877 -0.4876  0.4885
 9843SOL     OW36578   4.865  10.545   6.025  0.1515  0.5872  0.3774
 9843SOL    HW136579   4.891  10.465   6.071 -0.8785  0.6119  1.0336
 9843SOL    HW236580   4.881  10.615   6.088  0.4597  0.8381  0.0271
 9844SOL     OW36581  10.567   1.010   9.148 -0.1633  0.4951  0.1741
 9844SOL    HW136582  10.642   1.049   9.104 -0.4125  2.5316  1.4214
 9844SOL    HW236583  10.495   1.018   9.085  0.5916 -1.4929 -1.0346
 9845SOL     OW36584  11.995   1.310  12.394  0.1528 -0.0219  0.1061
 9845SOL    HW136585  11.996   1.215  12.387  1.5315 -0.0397  0.3487
 9845SOL    HW236586  11.988   1.340  12.303  0.3191 -0.3432 -0.0136
 9846SOL     OW36587   5.706   0.140   1.364  0.3527 -0.7009  0.0862
 9846SOL    HW136588   5.692   0.089   1.284  1.2386  0.0810 -0.5945
 9846SOL    HW236589   5.780   0.198   1.343  0.6288 -0.5046  1.4855
 9847SOL     OW36590   8.958   9.810   1.400  0.1492 -0.4235  0.9411
 9847SOL    HW136591   8.981   9.874   1.467  0.8595 -0.4753  0.7649
 9847SOL    HW236592   8.919   9.738   1.448 -1.7850  0.6189  1.0271
 9848SOL     OW36593   5.190   1.396   5.469 -0.3857  0.0572 -0.3600
 9848SOL    HW136594   5.273   1.443   5.472 -0.7805  0.7455  0.1615
 9848SOL    HW236595   5.193   1.337   5.545 -0.2685 -0.1021 -0.4884
 9849SOL     OW36596   0.004   7.901   5.765 -0.1780  0.0621 -0.4446
 9849SOL    HW136597   0.070   7.962   5.799 -0.0275 -0.2074 -0.2422
 9849SOL    HW236598   0.007   7.827   5.826 -1.6895  0.6672  0.4133
 9850SOL     OW36599   2.767  11.495   8.400  0.1268  0.0121 -0.1062
 9850SOL    HW136600   2.801  11.515   8.488  0.2250  1.7352 -0.5072
 9850SOL    HW236601   2.700  11.560   8.385  1.4900  1.0656 -2.1089
 9851SOL     OW36602   8.785   9.202   2.113  0.5036 -0.1178  0.4061
 9851SOL    HW136603   8.864   9.249   2.084 -0.4920  1.4379  0.0738
 9851SOL    HW236604   8.776   9.224   2.205  2.3281 -3.1279  1.4337
 9852SOL     OW36605   8.164   4.995   5.748 -0.5992 -0.1913 -0.2221
 9852SOL    HW136606   8.125   5.033   5.827 -1.7922 -0.5216 -0.6329
 9852SOL    HW236607   8.249   4.963   5.777 -1.4137 -1.2043  1.2028
 9853SOL     OW36608   3.112   9.593   5.113  0.3434 -0.4645  0.1580
 9853SOL    HW136609   3.175   9.557   5.176 -1.4196 -2.2224  1.0013
 9853SOL    HW236610   3.141   9.683   5.100  1.3673 -0.3355  2.7163
 9854SOL     OW36611  11.032   1.059   3.182 -0.3427 -0.5090 -0.4607
 9854SOL    HW136612  11.122   1.056   3.151  0.1654  0.1227  0.8915
 9854SOL    HW236613  10.983   1.006   3.118  0.7256  0.2362 -1.9614
 9855SOL     OW36614   3.457   2.878  12.185 -0.8770 -0.1166 -0.0589
 9855SOL    HW136615   3.370   2.917  12.174 -0.7259 -0.4562 -3.2146
 9855SOL    HW236616   3.518   2.948  12.161 -0.2021  0.0408  1.8987
 9856SOL     OW36617   5.724  12.214  10.454 -0.5159 -0.6096 -0.0216
 9856SOL    HW136618   5.697  12.299  10.487  0.0387 -0.5508  0.2885
 9856SOL    HW236619   5.643  12.163  10.448 -0.9746  0.1947 -0.9841
 9857SOL     OW36620   2.641   5.591   6.305 -0.5600 -0.2907  0.9065
 9857SOL    HW136621   2.591   5.519   6.342 -0.4977 -1.5374 -1.2651
 9857SOL    HW236622   2.583   5.632   6.242 -0.0692  0.6090  1.0137
 9858SOL     OW36623  11.627   5.499  12.558 -0.2917  0.6291  0.0895
 9858SOL    HW136624  11.550   5.534  12.514 -0.6346 -1.5556 -1.1770
 9858SOL    HW236625  11.595   5.476  12.646 -2.0157 -2.8473 -1.2399
 9859SOL     OW36626   6.390   6.642   4.541 -0.2180 -0.6321 -0.2285
 9859SOL    HW136627   6.383   6.720   4.485  0.6644 -1.1634 -1.0912
 9859SOL    HW236628   6.425   6.675   4.624  0.0235 -0.0896 -0.5434
 9860SOL     OW36629  11.353   9.013  11.707  0.0139  0.2432 -0.2765
 9860SOL    HW136630  11.436   9.045  11.744 -0.0260  0.0367 -0.0140
 9860SOL    HW236631  11.286   9.043  11.768  0.0361 -0.9863  0.3817
 9861SOL     OW36632   6.633   9.598   9.338 -0.2844 -0.2098  0.0320
 9861SOL    HW136633   6.713   9.633   9.298 -0.1634  0.2840  0.6781
 9861SOL    HW236634   6.562   9.634   9.286 -0.0830 -0.9511 -0.7759
 9862SOL     OW36635   9.024   9.575   8.972 -0.4022 -0.7632 -0.3057
 9862SOL    HW136636   8.976   9.507   8.927 -1.2171  0.8742 -2.0303
 9862SOL    HW236637   9.075   9.618   8.904 -1.4881  1.6422  0.2911
 9863SOL     OW36638   9.736   0.004   9.205  0.1878 -0.3392 -0.2614
 9863SOL    HW136639   9.714   0.043   9.289  0.2868 -0.6491 -0.0926
 9863SOL    HW236640   9.826   0.031   9.189  0.1834 -0.3171 -0.2474
 9864SOL     OW36641   9.473   2.078   8.006 -0.1781  0.0061  0.1506
 9864SOL    HW136642   9.378   2.083   7.996 -0.0910 -1.3894 -1.9456
 9864SOL    HW236643   9.492   1.984   8.008  1.1235  0.2692  0.9730
 9865SOL     OW36644   9.451   6.809   2.739 -0.1138 -0.0572  0.0406
 9865SOL    HW136645   9.457   6.750   2.814 -1.6885  0.2132  0.4007
 9865SOL    HW236646   9.530   6.863   2.745  1.3360 -2.0279 -0.2557
 9866SOL     OW36647  10.870   1.218   7.314 -0.3246  0.3101 -0.5388
 9866SOL    HW136648  10.909   1.217   7.402 -1.2852  1.7729 -0.0607
 9866SOL    HW236649  10.775   1.214   7.331 -0.4858 -0.3499 -1.5542
 9867SOL     OW36650  12.151   5.560   3.795  0.1846  0.1884  0.5752
 9867SOL    HW136651  12.115   5.496   3.856  0.5328  0.3094  0.9161
 9867SOL    HW236652  12.110   5.643   3.821 -0.0029  0.1650  0.3577
 9868SOL     OW36653   6.558   8.418  12.548 -0.1743 -0.3133  0.0761
 9868SOL    HW136654   6.621   8.420  12.476  0.2548  1.2755  0.4671
 9868SOL    HW236655   6.597   8.472  12.617 -0.8037 -1.3830  1.3261
 9869SOL     OW36656   5.433   1.280   6.788  0.0057  0.6148  0.4557
 9869SOL    HW136657   5.436   1.344   6.717  0.0814  1.2777  1.0564
 9869SOL    HW236658   5.357   1.225   6.766 -0.5100  1.3590  0.3190
 9870SOL     OW36659   1.648   1.915   3.725  0.2313  0.3195  0.2467
 9870SOL    HW136660   1.600   1.991   3.693  0.4649  1.3676  2.2750
 9870SOL    HW236661   1.711   1.896   3.655 -0.6019  1.2352 -0.7924
 9871SOL     OW36662  12.216  11.935  11.241 -0.1032 -0.1845  0.0128
 9871SOL    HW136663  12.237  12.015  11.193 -0.4358  0.2966  0.6575
 9871SOL    HW236664  12.152  11.891  11.186 -0.1766  0.1588 -0.1824
 9872SOL     OW36665   6.096  10.191   4.274  0.3056 -0.4355 -0.0945
 9872SOL    HW136666   6.068  10.232   4.355  0.1319 -2.3847  0.8691
 9872SOL    HW236667   6.025  10.208   4.212  0.8926  1.9507 -0.2247
 9873SOL     OW36668   2.821   2.571   9.496  0.4447  0.0327 -0.1028
 9873SOL    HW136669   2.817   2.566   9.592 -0.8368  3.8986  0.2294
 9873SOL    HW236670   2.778   2.490   9.466 -2.6336  0.3967  2.7047
 9874SOL     OW36671   2.733   8.546   5.533  0.0964 -0.2155 -0.4168
 9874SOL    HW136672   2.721   8.622   5.590 -0.1038 -0.4528 -0.1412
 9874SOL    HW236673   2.822   8.556   5.499 -0.1974  0.5491 -0.9930
 9875SOL     OW36674  10.314  10.796   1.878 -0.5385  0.1218  0.2609
 9875SOL    HW136675  10.329  10.708   1.914  2.3648 -0.0961 -1.1977
 9875SOL    HW236676  10.317  10.854   1.954  1.2217 -0.7208  0.8745
 9876SOL     OW36677   6.886   2.132   5.255 -0.2869 -0.0225  0.2371
 9876SOL    HW136678   6.828   2.065   5.219  1.1289 -2.2650  1.8411
 9876SOL    HW236679   6.961   2.132   5.196 -0.5650  0.6337 -0.1200
 9877SOL     OW36680   6.107   2.736   4.799 -0.6028 -0.5494  0.1368
 9877SOL    HW136681   6.053   2.815   4.795 -1.0635 -0.7774  1.5124
 9877SOL    HW236682   6.192   2.763   4.763 -0.8033  0.5241  0.4419
 9878SOL     OW36683   5.870  11.098  12.016 -0.6601  0.3253 -0.0761
 9878SOL    HW136684   5.951  11.093  11.965 -0.4424  1.6679  0.1150
 9878SOL    HW236685   5.877  11.180  12.065 -1.4098 -0.3449  1.1927
 9879SOL     OW36686   1.811   5.010   9.491 -0.7883 -0.5295  0.3443
 9879SOL    HW136687   1.817   5.025   9.396  0.6798 -0.3894  0.4245
 9879SOL    HW236688   1.898   4.978   9.515  0.0145  2.5217  2.1495
 9880SOL     OW36689   8.652  10.610  11.126 -0.1462 -0.0698 -0.7172
 9880SOL    HW136690   8.671  10.703  11.115  0.5154 -0.2136 -0.8963
 9880SOL    HW236691   8.636  10.599  11.219  1.8540 -0.1099 -0.3222
 9881SOL     OW36692  11.896   0.232   2.100  0.1993 -0.2338 -0.2726
 9881SOL    HW136693  11.813   0.210   2.141  1.0642 -1.6649  0.7636
 9881SOL    HW236694  11.927   0.150   2.062  0.9508  0.3776 -1.0349
 9882SOL     OW36695   9.240   7.065   2.002 -0.4623 -0.2890  0.1298
 9882SOL    HW136696   9.165   7.036   1.950 -1.2237  2.7600 -0.6759
 9882SOL    HW236697   9.203   7.126   2.066  1.2825  1.5431 -0.4908
 9883SOL     OW36698   6.585   4.320   8.463 -0.4651 -0.2809 -0.2609
 9883SOL    HW136699   6.581   4.331   8.558 -0.2572  0.4467 -0.3310
 9883SOL    HW236700   6.508   4.366   8.431 -0.1782  0.0359 -0.4929
 9884SOL     OW36701  11.935   0.509  10.645 -0.8869  0.2683  0.2867
 9884SOL    HW136702  11.909   0.508  10.553 -1.8661  0.9722  0.5420
 9884SOL    HW236703  11.877   0.447  10.688 -0.0492 -0.4886  0.3445
 9885SOL     OW36704   1.142   7.398   3.802 -0.3119  0.7356  0.1853
 9885SOL    HW136705   1.133   7.406   3.897 -0.5775  1.7363  0.0863
 9885SOL    HW236706   1.205   7.327   3.790 -0.7889  0.1479  1.0928
 9886SOL     OW36707   4.287   5.256   0.675  0.2183  0.3213 -0.2788
 9886SOL    HW136708   4.332   5.328   0.630 -0.1239  0.1549 -0.8989
 9886SOL    HW236709   4.292   5.279   0.768  3.5727 -0.7853 -0.0339
 9887SOL     OW36710   6.398   8.823   6.999 -0.1471 -0.2673 -0.3531
 9887SOL    HW136711   6.484   8.788   7.023 -1.3476 -2.1467  1.5554
 9887SOL    HW236712   6.406   8.917   7.015  0.6800 -0.7677  3.0373
 9888SOL     OW36713   1.571   7.747   1.521 -0.7215 -0.3681  0.6445
 9888SOL    HW136714   1.582   7.840   1.541 -2.2379 -0.4272  1.9697
 9888SOL    HW236715   1.565   7.744   1.426 -1.5850  1.0460  0.6181
 9889SOL     OW36716   0.783   3.996  10.110  0.3973 -0.2152  0.0073
 9889SOL    HW136717   0.847   3.936  10.148 -0.0165 -1.1959 -0.8052
 9889SOL    HW236718   0.816   4.014  10.022  0.5579  0.8167  0.2743
 9890SOL     OW36719   7.036  12.395   1.344 -0.6536  0.6077  0.0456
 9890SOL    HW136720   6.951  12.393   1.387 -0.9378 -2.2959 -0.4307
 9890SOL    HW236721   7.016  12.403   1.251 -0.6518 -2.2056 -0.2891
 9891SOL     OW36722  10.379   1.647   7.434  0.1530  0.2965  0.2670
 9891SOL    HW136723  10.407   1.607   7.516 -0.2443  1.6172  1.0886
 9891SOL    HW236724  10.367   1.740   7.456  0.3639  0.7433 -1.3696
 9892SOL     OW36725  10.053   3.477   8.055 -0.0181 -0.0478 -0.1511
 9892SOL    HW136726  10.131   3.513   8.097 -0.3461 -1.3059  1.6916
 9892SOL    HW236727   9.993   3.550   8.049  0.1404  0.2454  1.4183
 9893SOL     OW36728   6.020   3.366   1.085 -0.5144 -0.4668 -0.9808
 9893SOL    HW136729   5.944   3.351   1.029 -1.2737  0.0122 -0.1023
 9893SOL    HW236730   6.034   3.283   1.130 -0.7928 -0.4294 -0.8227
 9894SOL     OW36731   1.867   6.390   2.527 -0.4030 -0.2507  0.1650
 9894SOL    HW136732   1.832   6.413   2.441  0.0681 -0.4446 -0.0818
 9894SOL    HW236733   1.908   6.305   2.514 -0.2800 -0.2544  0.5696
 9895SOL     OW36734  11.426   8.038   1.897 -0.3788  0.6204  0.3208
 9895SOL    HW136735  11.413   7.969   1.962  2.0979  1.5608  1.9372
 9895SOL    HW236736  11.500   8.089   1.930 -0.8078  2.8376 -1.8536
 9896SOL     OW36737   6.102   5.213   3.786 -0.1063 -0.1838 -0.4283
 9896SOL    HW136738   6.072   5.201   3.695 -4.2162  1.3768  0.4688
 9896SOL    HW236739   6.070   5.135   3.832 -2.2527  1.0707  0.3812
 9897SOL     OW36740   1.220   0.786   5.390  0.4163  0.5765  0.2916
 9897SOL    HW136741   1.163   0.851   5.349  2.6883  1.0240 -2.5134
 9897SOL    HW236742   1.290   0.838   5.429  0.0721 -0.0553  1.8121
 9898SOL     OW36743   8.409   6.463   3.173 -0.0476 -0.0734  0.3904
 9898SOL    HW136744   8.345   6.392   3.172  0.0372 -0.2879  3.0153
 9898SOL    HW236745   8.356   6.542   3.188 -0.1162  0.4957 -2.2726
 9899SOL     OW36746   5.747  12.457   2.622  0.5675  0.2012 -0.1656
 9899SOL    HW136747   5.834  12.479   2.654  0.1024  0.4320  1.0160
 9899SOL    HW236748   5.751  12.364   2.599  0.7405 -0.1603  1.2715
 9900SOL     OW36749  10.085   2.556   5.199  0.4300  0.2033  0.6340
 9900SOL    HW136750  10.037   2.603   5.267  1.6083 -0.1021  1.7096
 9900SOL    HW236751  10.132   2.624   5.152  0.4749  0.3002  0.8211
 9901SOL     OW36752   6.186  10.769  10.857  0.0070  0.0562  0.0981
 9901SOL    HW136753   6.158  10.807  10.941  0.3307  0.2200  0.1313
 9901SOL    HW236754   6.263  10.820  10.832 -0.5693  0.5533 -0.7047
 9902SOL     OW36755   7.653   7.908   2.341 -0.2612  0.1141  0.6679
 9902SOL    HW136756   7.584   7.868   2.394  0.0701 -0.8476  0.3925
 9902SOL    HW236757   7.633   8.002   2.342 -2.1542 -0.2296 -0.2135
 9903SOL     OW36758   4.432   7.817   6.465 -0.3745  0.2784  0.1350
 9903SOL    HW136759   4.436   7.810   6.370  0.8941 -1.6174  0.2731
 9903SOL    HW236760   4.396   7.732   6.493 -0.3444  0.6575  1.3748
 9904SOL     OW36761   9.090   4.754   3.521 -0.2225  0.0607  0.3860
 9904SOL    HW136762   9.013   4.709   3.485  0.4658 -0.7012 -0.1631
 9904SOL    HW236763   9.145   4.683   3.554  1.9979  0.1917 -2.6002
 9905SOL     OW36764   7.817  12.276   3.078 -0.5887 -0.5187  0.5802
 9905SOL    HW136765   7.822  12.188   3.043 -0.4421 -0.5073  0.5730
 9905SOL    HW236766   7.733  12.279   3.123 -0.1493 -0.9966  1.4782
 9906SOL     OW36767   3.287   1.089   0.556 -0.3427 -0.2367  0.4664
 9906SOL    HW136768   3.218   1.042   0.509 -0.5516  1.7230 -1.3107
 9906SOL    HW236769   3.280   1.179   0.525  2.9385  0.0730  0.2974
 9907SOL     OW36770   4.260   4.653   6.181  0.2887 -0.3422 -0.2709
 9907SOL    HW136771   4.251   4.558   6.178 -1.9619 -0.1710 -0.5035
 9907SOL    HW236772   4.170   4.686   6.177  1.0521  1.8236 -0.8892
 9908SOL     OW36773   5.245  12.207   4.527  0.4146  0.5614  0.5977
 9908SOL    HW136774   5.225  12.115   4.508  1.2978  0.8099 -1.9597
 9908SOL    HW236775   5.204  12.256   4.455  2.5281  1.8575  0.2031
 9909SOL     OW36776   4.403   0.716   5.382 -0.2717  0.0055  0.0005
 9909SOL    HW136777   4.483   0.717   5.436  0.7649  0.3602 -1.4678
 9909SOL    HW236778   4.432   0.680   5.298 -1.9113 -0.8194 -0.2445
 9910SOL     OW36779   7.724  11.986  12.253 -0.0150 -0.1594  0.1411
 9910SOL    HW136780   7.757  11.997  12.342  0.4885 -1.6874  0.1874
 9910SOL    HW236781   7.783  11.921  12.214 -0.9426 -0.4017 -0.9129
 9911SOL     OW36782  10.952  11.369   8.743  0.0201  0.0758 -0.1643
 9911SOL    HW136783  10.879  11.428   8.761 -1.1197 -1.4870  0.5865
 9911SOL    HW236784  11.011  11.381   8.817 -1.8198 -2.0477  1.7993
 9912SOL     OW36785   1.104   5.847   1.993 -0.2715  0.5508  0.4396
 9912SOL    HW136786   1.079   5.808   2.077  0.5389  2.2801  1.5357
 9912SOL    HW236787   1.181   5.901   2.013 -0.0061  0.9457 -1.4403
 9913SOL     OW36788  12.406   0.610   4.709  0.5974  0.3335 -0.1473
 9913SOL    HW136789  12.429   0.541   4.647 -2.2108 -0.0453 -0.8699
 9913SOL    HW236790  12.439   0.691   4.669  2.2059 -0.3204 -0.2154
 9914SOL     OW36791  11.945   5.767   9.477 -0.3979  0.3453 -0.2954
 9914SOL    HW136792  11.956   5.712   9.554  1.2245 -0.6856 -1.2085
 9914SOL    HW236793  11.853   5.791   9.477 -1.0181 -1.8541  0.5038
 9915SOL     OW36794  11.828  11.183   6.269  0.4723 -0.4660  0.2093
 9915SOL    HW136795  11.865  11.216   6.351  0.6075  0.1949 -0.1119
 9915SOL    HW236796  11.784  11.259   6.231  3.9992  0.5228 -2.4379
 9916SOL     OW36797   2.445   9.043  12.168 -0.0517 -0.4242 -0.7103
 9916SOL    HW136798   2.423   9.059  12.076  0.8251 -0.6259 -0.9640
 9916SOL    HW236799   2.456   8.948  12.173  0.0762 -0.3949 -0.4332
 9917SOL     OW36800   7.562   4.568   3.236  0.0724 -0.0569 -0.6610
 9917SOL    HW136801   7.548   4.492   3.181  3.1124 -0.3556 -1.2083
 9917SOL    HW236802   7.578   4.532   3.323  1.6033 -0.1444 -0.9380
 9918SOL     OW36803   7.030   1.153   1.371  0.5185  0.2610  0.1480
 9918SOL    HW136804   7.106   1.157   1.430  0.1017  0.3441  0.6844
 9918SOL    HW236805   7.035   1.234   1.321  1.2111 -0.0817 -0.3591
 9919SOL     OW36806   9.533   2.502   7.981 -0.1907 -0.3638 -0.0367
 9919SOL    HW136807   9.457   2.473   8.032 -1.0777 -0.4376 -1.3454
 9919SOL    HW236808   9.520   2.596   7.970  0.6306 -0.1289  0.8658
 9920SOL     OW36809   7.972   7.044   8.916  0.1397  0.4772  0.2658
 9920SOL    HW136810   7.956   7.067   8.825 -0.5584 -0.6835  0.0748
 9920SOL    HW236811   7.904   7.090   8.965  0.2848  0.7992  0.1671
 9921SOL     OW36812   9.837   0.767  11.875  0.1615 -0.0213 -0.3633
 9921SOL    HW136813   9.870   0.701  11.814  0.0831 -0.8565  0.4815
 9921SOL    HW236814   9.916   0.813  11.905  0.2920 -0.2362 -0.3742
 9922SOL     OW36815   6.814   3.569  11.605 -0.0475  0.0391  0.1465
 9922SOL    HW136816   6.726   3.580  11.641  1.3294  0.4980  3.7891
 9922SOL    HW236817   6.826   3.646  11.549 -1.2007  1.1450  1.3531
 9923SOL     OW36818  11.815   7.747   5.398  0.3673  0.2783  0.0201
 9923SOL    HW136819  11.816   7.782   5.309  1.9561  0.5981  0.1239
 9923SOL    HW236820  11.849   7.657   5.389 -0.1465  0.0617  0.2167
 9924SOL     OW36821   3.973   9.003  11.997  0.0129 -0.2022 -0.3443
 9924SOL    HW136822   4.052   8.956  12.023 -0.4210 -0.3255  0.8208
 9924SOL    HW236823   3.987   9.093  12.027 -0.1526 -0.1423 -0.4434
 9925SOL     OW36824   7.833   0.269   2.104  0.3286 -0.2522  0.2785
 9925SOL    HW136825   7.862   0.348   2.151 -2.5978 -0.1607  2.1279
 9925SOL    HW236826   7.745   0.290   2.073  0.0053 -2.3621 -0.3735
 9926SOL     OW36827  12.096   2.944  10.054 -0.1098  0.7282 -0.3274
 9926SOL    HW136828  12.033   2.960  10.124  0.2792 -0.7864  0.4072
 9926SOL    HW236829  12.046   2.896   9.988  0.4865 -1.4799  0.7506
 9927SOL     OW36830   7.903   9.749   7.335 -0.0183  0.0742  0.1770
 9927SOL    HW136831   7.868   9.798   7.410 -1.6120  0.7603 -0.9703
 9927SOL    HW236832   7.826   9.725   7.284  0.9544 -1.3877 -0.6671
 9928SOL     OW36833  12.269   9.883   4.633 -0.4186  0.1701 -0.0054
 9928SOL    HW136834  12.225   9.830   4.698 -0.2166 -0.3732 -0.3046
 9928SOL    HW236835  12.362   9.866   4.646 -0.3166  0.9180  0.2912
 9929SOL     OW36836  11.762   4.331  10.151 -0.7433  0.4739 -0.1758
 9929SOL    HW136837  11.766   4.356  10.244 -0.5002 -1.5440  0.3999
 9929SOL    HW236838  11.819   4.394  10.107  2.2904 -0.7793  1.6331
 9930SOL     OW36839   7.706  11.137   3.987 -0.3711 -0.3591 -0.0750
 9930SOL    HW136840   7.775  11.071   3.998  2.0015  1.6854 -1.7660
 9930SOL    HW236841   7.711  11.190   4.067 -1.3397 -1.3210  0.6551
 9931SOL     OW36842   6.636  12.480   9.454  0.3151  0.4130 -0.0610
 9931SOL    HW136843   6.660  12.466   9.363 -0.3289 -0.2673 -0.1327
 9931SOL    HW236844   6.690  12.418   9.503 -1.2832 -1.1778 -0.2302
 9932SOL     OW36845   8.150   1.056   4.246  0.3654  0.3150  0.2749
 9932SOL    HW136846   8.220   0.991   4.244  0.8883  0.8803 -0.1221
 9932SOL    HW236847   8.134   1.078   4.155  0.5915  1.1568  0.4290
 9933SOL     OW36848   7.984   1.148   0.322 -0.1535  0.3540  0.5624
 9933SOL    HW136849   8.059   1.165   0.379  0.5520 -2.1694  0.4921
 9933SOL    HW236850   8.004   1.194   0.241  1.5766 -0.6095  0.3973
 9934SOL     OW36851   6.787  11.744   9.284 -0.4741 -0.3404  0.5994
 9934SOL    HW136852   6.730  11.668   9.296  1.6941 -2.0105  1.0240
 9934SOL    HW236853   6.781  11.764   9.191  0.4261 -2.3735  0.0483
 9935SOL     OW36854   7.122   3.608   6.821 -0.0566  0.5145 -0.2288
 9935SOL    HW136855   7.050   3.632   6.763 -0.4446  0.4961  0.2331
 9935SOL    HW236856   7.189   3.674   6.806  1.4706 -1.5750 -3.5018
 9936SOL     OW36857   7.191  11.608   0.919  0.1556 -0.9459  0.4799
 9936SOL    HW136858   7.243  11.566   0.850  0.3361  0.3673 -0.2062
 9936SOL    HW236859   7.196  11.547   0.993  0.3965 -2.1253 -0.4847
 9937SOL     OW36860   4.474   0.328   9.416  0.1146  0.2343  0.2769
 9937SOL    HW136861   4.414   0.391   9.375 -0.8486 -1.3105 -0.7936
 9937SOL    HW236862   4.457   0.336   9.510 -2.4395 -0.7284 -0.0205
 9938SOL     OW36863   3.286   2.746   8.944 -0.2237 -0.6361  0.6673
 9938SOL    HW136864   3.278   2.752   9.039 -0.9654 -1.6297  0.6921
 9938SOL    HW236865   3.316   2.656   8.929 -0.7685 -0.6981 -0.0735
 9939SOL     OW36866  10.680   5.260   2.028 -0.4096  0.5443 -0.4680
 9939SOL    HW136867  10.643   5.176   2.053  0.6095 -0.0782 -0.9823
 9939SOL    HW236868  10.682   5.310   2.110 -0.6560 -0.0745 -0.0766
 9940SOL     OW36869   3.203   7.448   3.040  0.0175  0.4229 -0.0526
 9940SOL    HW136870   3.214   7.515   3.107 -1.0358  0.0253  0.5430
 9940SOL    HW236871   3.256   7.374   3.071 -0.1698  0.3755  0.1576
 9941SOL     OW36872   6.657  11.632   1.375 -0.2846 -0.2831 -0.3854
 9941SOL    HW136873   6.634  11.714   1.332 -0.2041  0.0950  0.2664
 9941SOL    HW236874   6.650  11.652   1.469 -0.8706 -1.2024 -0.2285
 9942SOL     OW36875   7.299   0.995   0.840  0.0234  0.1444 -0.4101
 9942SOL    HW136876   7.294   0.991   0.936 -1.5425  1.4772 -0.3819
 9942SOL    HW236877   7.330   1.084   0.821  1.6272 -0.5460 -1.1479
 9943SOL     OW36878   1.395   5.816  11.445 -0.2552  1.0816  0.2437
 9943SOL    HW136879   1.436   5.881  11.502 -0.9444  1.8056 -0.0804
 9943SOL    HW236880   1.368   5.746  11.505 -2.3596  2.5171  1.0675
 9944SOL     OW36881   6.027   1.345  10.738  0.2895  0.5392 -0.3594
 9944SOL    HW136882   5.983   1.308  10.814 -0.1367 -0.5260 -1.1036
 9944SOL    HW236883   6.102   1.288  10.724  0.7738  1.1509 -0.3233
 9945SOL     OW36884   8.490  11.165   1.632  0.0152  0.2694 -0.3205
 9945SOL    HW136885   8.504  11.191   1.723 -1.2059  1.3148 -0.4086
 9945SOL    HW236886   8.403  11.125   1.631  1.2571 -2.7111 -0.4695
 9946SOL     OW36887   6.759  12.411   4.085  0.2408  0.5072 -0.2125
 9946SOL    HW136888   6.825  12.476   4.111 -0.0392  0.4519  0.6835
 9946SOL    HW236889   6.715  12.450   4.010 -0.2774  1.6214  0.6325
 9947SOL     OW36890   3.299   0.519  12.499 -0.0761 -0.1380  0.1076
 9947SOL    HW136891   3.213   0.479  12.485 -1.3880  2.5517 -0.1133
 9947SOL    HW236892   3.335   0.472  12.574 -2.3931 -0.3822  1.1541
 9948SOL     OW36893   9.975   6.574   7.521  0.1608 -0.1864  0.0709
 9948SOL    HW136894   9.895   6.565   7.470 -1.1309  0.8992  1.8130
 9948SOL    HW236895  10.034   6.625   7.466 -1.4652  1.6183 -0.0867
 9949SOL     OW36896   9.147   6.502   7.198 -0.6904 -0.7516 -0.1669
 9949SOL    HW136897   9.206   6.476   7.127 -0.1612  0.7385 -0.3028
 9949SOL    HW236898   9.152   6.597   7.200 -0.4035 -0.7576  2.1121
 9950SOL     OW36899   2.245   8.935   2.371  0.1246  0.6839  0.0865
 9950SOL    HW136900   2.239   8.940   2.275  0.8340  0.1456  0.0096
 9950SOL    HW236901   2.155   8.915   2.399  0.2247 -0.8408 -0.5906
 9951SOL     OW36902  10.344  12.050   8.654  0.1335  0.0228 -0.0939
 9951SOL    HW136903  10.294  12.078   8.730  0.8405 -0.0183  0.3993
 9951SOL    HW236904  10.280  12.012   8.595 -0.6809  1.5758 -0.2534
 9952SOL     OW36905   9.328   9.591   4.306 -0.5241  0.0586  0.2809
 9952SOL    HW136906   9.346   9.679   4.275 -1.4806 -0.0768 -0.6964
 9952SOL    HW236907   9.324   9.599   4.401  0.3555  0.8746  0.2588
 9953SOL     OW36908   1.683  10.946   4.221  0.2348  0.3857 -0.5416
 9953SOL    HW136909   1.655  10.856   4.201 -1.1541  0.9400 -1.2040
 9953SOL    HW236910   1.650  10.998   4.148  1.4536  1.3764 -0.4090
 9954SOL     OW36911   2.781   3.911  11.889 -0.2107 -0.6383 -0.1865
 9954SOL    HW136912   2.809   3.825  11.918 -0.3235 -0.5858  0.0808
 9954SOL    HW236913   2.842   3.934  11.818  0.9484 -0.1788  0.9195
 9955SOL     OW36914  11.241   2.404  12.443  0.0797 -0.8572  0.0818
 9955SOL    HW136915  11.247   2.409  12.539 -0.6898 -1.4105  0.1711
 9955SOL    HW236916  11.205   2.488  12.417  1.1876 -0.3425  0.1877
 9956SOL     OW36917   6.589  12.543   7.888  0.6162  0.3554 -0.0995
 9956SOL    HW136918   6.505  12.524   7.846  0.7021 -2.9579  0.8894
 9956SOL    HW236919   6.650  12.557   7.816 -0.1631 -0.4984 -0.9467
 9957SOL     OW36920   9.288   7.075   9.897 -0.0802  0.0824 -0.1621
 9957SOL    HW136921   9.322   7.139   9.835 -0.2443  1.0917  0.7704
 9957SOL    HW236922   9.346   6.999   9.887  0.0759  0.3429 -1.3216
 9958SOL     OW36923   8.170   3.599   1.488  0.4162  0.2609  0.2101
 9958SOL    HW136924   8.149   3.638   1.404 -1.7335  0.8450  0.9466
 9958SOL    HW236925   8.125   3.654   1.552  1.6312 -0.4225  1.7189
 9959SOL     OW36926   0.175   2.666   8.308  0.2736  0.1175  0.0237
 9959SOL    HW136927   0.107   2.730   8.328  0.1246  0.2772 -0.9619
 9959SOL    HW236928   0.137   2.611   8.240  0.6452 -0.6223  0.4057
 9960SOL     OW36929   5.189   1.032   9.406 -0.2735  0.3431  0.1127
 9960SOL    HW136930   5.174   1.118   9.367  0.7637  1.3170  1.7494
 9960SOL    HW236931   5.217   1.051   9.496 -1.9027 -1.7689  1.1378
 9961SOL     OW36932   3.283  12.587  11.741  0.4500  0.3108 -1.0640
 9961SOL    HW136933   3.201  12.587  11.790 -0.5842  1.6853 -2.7007
 9961SOL    HW236934   3.328  12.667  11.769 -0.3991  1.3985 -2.6818
 9962SOL     OW36935  11.993   6.376   7.118  0.3198  0.3742 -0.7543
 9962SOL    HW136936  11.918   6.348   7.171  0.9636 -0.5734 -0.2948
 9962SOL    HW236937  12.017   6.297   7.069  0.8013  0.7682 -1.1529
 9963SOL     OW36938  12.102   7.785   8.522  0.2311 -0.1001 -0.0421
 9963SOL    HW136939  12.088   7.786   8.427  0.3240 -2.2915 -0.1152
 9963SOL    HW236940  12.015   7.765   8.558  0.0629  1.3175  0.4026
 9964SOL     OW36941   7.896   8.946   0.972 -0.1362  0.8363 -0.4326
 9964SOL    HW136942   7.941   8.892   0.907 -1.4456 -1.8562  0.7520
 9964SOL    HW236943   7.933   8.920   1.056 -1.4031  1.1160  0.2468
 9965SOL     OW36944   3.826  10.327   6.854 -0.2537 -0.9354  0.1097
 9965SOL    HW136945   3.903  10.384   6.851 -0.1549 -1.0909 -0.8096
 9965SOL    HW236946   3.752  10.386   6.855 -0.1350 -0.7878  0.2513
 9966SOL     OW36947   7.769   7.879   3.151 -0.9370 -0.0712 -0.7226
 9966SOL    HW136948   7.768   7.975   3.146  1.5339  0.1055  0.6783
 9966SOL    HW236949   7.732   7.860   3.238  0.4811 -0.2322 -0.1354
 9967SOL     OW36950  11.171   6.082   0.272 -0.4710 -0.5930  0.0450
 9967SOL    HW136951  11.250   6.068   0.221 -0.8116  1.3997 -1.1622
 9967SOL    HW236952  11.202   6.118   0.355 -0.1025  1.1827 -0.8175
 9968SOL     OW36953  10.567   8.442  10.443 -0.1830 -0.6714 -0.0579
 9968SOL    HW136954  10.567   8.351  10.415  1.4400 -0.2388 -1.7214
 9968SOL    HW236955  10.627   8.486  10.381  0.0509  1.2721  1.4393
 9969SOL     OW36956   9.340   3.567   8.914  0.1813 -0.0952 -0.3183
 9969SOL    HW136957   9.255   3.523   8.921  0.4529 -0.7771 -1.1235
 9969SOL    HW236958   9.392   3.510   8.857  1.4730 -0.1120  0.8468
 9970SOL     OW36959   2.094  12.441   8.862  0.4968  0.2348 -0.2618
 9970SOL    HW136960   2.022  12.429   8.923 -0.2687  0.2754 -1.1378
 9970SOL    HW236961   2.115  12.353   8.830 -0.5583  0.4242 -1.5518
 9971SOL     OW36962   9.413   2.819   0.443 -0.0075 -0.4498  0.9913
 9971SOL    HW136963   9.385   2.757   0.376 -0.2524  0.9127 -0.2029
 9971SOL    HW236964   9.332   2.865   0.468  0.0032 -1.1989  2.5320
 9972SOL     OW36965   0.872   8.698   1.508  0.2138  0.0608  0.4448
 9972SOL    HW136966   0.813   8.774   1.508  1.1061  0.7651  0.9391
 9972SOL    HW236967   0.821   8.628   1.549  0.1323  1.0055  2.0175
 9973SOL     OW36968   3.428   0.287   4.851 -0.2362 -0.4613 -0.0552
 9973SOL    HW136969   3.416   0.230   4.927  0.9330  1.0890  1.3632
 9973SOL    HW236970   3.360   0.353   4.860  0.3033  0.0970  0.0431
 9974SOL     OW36971   0.273  12.343  12.465 -0.6601 -0.6349  0.5360
 9974SOL    HW136972   0.321  12.260  12.466 -0.1027 -0.3398 -0.1863
 9974SOL    HW236973   0.264  12.364  12.372 -0.0999  0.4989  0.7185
 9975SOL     OW36974   2.512   9.337   5.134 -0.1494 -0.1811 -0.0706
 9975SOL    HW136975   2.446   9.402   5.158 -0.2492 -0.6008  0.8423
 9975SOL    HW236976   2.470   9.252   5.154  0.1078 -0.5149 -0.9063
 9976SOL     OW36977   0.874   4.746   2.646 -0.1799  0.1320 -0.1635
 9976SOL    HW136978   0.863   4.750   2.741 -0.7349 -1.1154 -0.1665
 9976SOL    HW236979   0.915   4.662   2.629 -1.1325 -0.1675 -1.1172
 9977SOL     OW36980   8.901   2.411  11.275 -0.1565  0.2277 -0.0071
 9977SOL    HW136981   8.918   2.362  11.194  1.4918 -0.1681  0.5542
 9977SOL    HW236982   8.929   2.500  11.256  1.6299 -0.1836  0.5643
 9978SOL     OW36983   9.940   3.392   9.886  0.0617  0.4235  0.1541
 9978SOL    HW136984   9.866   3.334   9.867  2.1013 -3.1785  2.1152
 9978SOL    HW236985  10.008   3.367   9.823  1.6248 -0.7898  2.2068
 9979SOL     OW36986  10.765   5.426   7.084 -0.3303  0.1822 -0.2843
 9979SOL    HW136987  10.786   5.358   7.149  1.2426  0.6857 -0.2270
 9979SOL    HW236988  10.817   5.402   7.007  0.1630  1.2296 -0.2997
 9980SOL     OW36989   9.078   5.312   0.526  0.2187 -0.0594  0.2616
 9980SOL    HW136990   8.991   5.332   0.491  0.5472 -0.2332 -0.6741
 9980SOL    HW236991   9.138   5.330   0.454  1.3412  3.2559  1.8179
 9981SOL     OW36992   7.275   2.556   0.656  0.5621  0.0135  0.1751
 9981SOL    HW136993   7.283   2.466   0.687 -1.2369  0.6567  2.9044
 9981SOL    HW236994   7.364   2.581   0.630  1.5681 -1.7967  1.6726
 9982SOL     OW36995   7.740   3.470   7.129 -0.2814  0.1265  0.1614
 9982SOL    HW136996   7.649   3.491   7.148 -0.4758 -0.9212  0.4598
 9982SOL    HW236997   7.737   3.383   7.088  0.4670  0.7009 -1.1701
 9983SOL     OW36998   4.672   9.006  10.890 -0.0314  0.2125  0.1336
 9983SOL    HW136999   4.580   9.033  10.895 -0.2361 -0.1165 -1.3350
 9983SOL    HW237000   4.693   9.008  10.796  1.1775 -0.6319  0.3511
 9984SOL     OW37001   8.796   0.244  11.467  0.3220  0.0546  0.4008
 9984SOL    HW137002   8.794   0.164  11.415  1.3656 -0.6238  1.3561
 9984SOL    HW237003   8.858   0.226  11.537  0.6707  1.7538  0.5805
 9985SOL     OW37004   0.215  10.021  11.036  0.4522  0.1082  0.1712
 9985SOL    HW137005   0.260  10.077  11.100  0.5940 -1.5827  1.6083
 9985SOL    HW237006   0.147  10.078  10.999  0.5314  1.2149  1.6293
 9986SOL     OW37007   7.175   5.529  12.288  0.2344  0.2137 -0.5065
 9986SOL    HW137008   7.156   5.622  12.304 -1.3863 -0.0968 -0.4276
 9986SOL    HW237009   7.251   5.510  12.342 -0.1447  1.2168  0.4102
 9987SOL     OW37010  12.321   4.659   0.333  0.0585 -0.4727 -0.0913
 9987SOL    HW137011  12.233   4.678   0.367 -0.2303  0.0614 -1.0906
 9987SOL    HW237012  12.310   4.661   0.238  1.0943 -0.7097 -0.2195
 9988SOL     OW37013   1.305  10.621   7.536  1.1826 -0.1218 -0.2976
 9988SOL    HW137014   1.243  10.636   7.607  0.5410  2.3547 -1.2649
 9988SOL    HW237015   1.260  10.562   7.476  0.8164 -0.4067  0.2528
 9989SOL     OW37016   6.873  10.798  11.094  0.0197  0.5638  1.0133
 9989SOL    HW137017   6.832  10.721  11.133  1.2827  0.8701  3.0546
 9989SOL    HW237018   6.932  10.762  11.027 -2.4038  0.0614 -1.0328
 9990SOL     OW37019   6.312   7.035   0.232 -0.1320 -0.1658 -0.1605
 9990SOL    HW137020   6.263   7.025   0.314 -0.9610 -2.2482 -0.8419
 9990SOL    HW237021   6.300   6.951   0.187  0.2347  0.9420 -2.4461
 9991SOL     OW37022  11.938   9.529   9.830 -0.1582  0.1435  0.4998
 9991SOL    HW137023  12.023   9.500   9.863 -1.4247 -2.1361  2.0883
 9991SOL    HW237024  11.910   9.597   9.891 -0.3823 -0.6333  1.2791
 9992SOL     OW37025   3.982   1.720   9.830  0.3808  0.5048 -0.1984
 9992SOL    HW137026   4.066   1.684   9.857  0.3854  0.6076 -0.0758
 9992SOL    HW237027   3.997   1.814   9.821  0.1869  0.5711  0.1775
 9993SOL     OW37028   1.247   2.391  10.959 -0.3724 -0.2194 -0.2071
 9993SOL    HW137029   1.161   2.424  10.936  0.0189 -0.9637 -3.1484
 9993SOL    HW237030   1.234   2.345  11.042 -2.4101  1.0244  0.2225
 9994SOL     OW37031   9.725   9.514   0.339  0.0241  0.0912  0.0634
 9994SOL    HW137032   9.776   9.445   0.380  2.9832  1.3151 -1.2453
 9994SOL    HW237033   9.724   9.490   0.246  1.0395  1.6903 -0.3964
 9995SOL     OW37034   1.854   2.192   3.161  0.1199 -0.1741 -0.1406
 9995SOL    HW137035   1.949   2.184   3.159  0.2272  1.1061 -0.9976
 9995SOL    HW237036   1.823   2.114   3.115  0.8084 -0.0086 -0.9057
 9996SOL     OW37037  10.172  10.365   0.186  0.0273  0.0457 -0.1408
 9996SOL    HW137038  10.263  10.370   0.216  0.5541 -0.9956 -1.4459
 9996SOL    HW237039  10.146  10.457   0.173  1.1983  0.3316 -0.6111
 9997SOL     OW37040   1.716   5.061   8.292  0.9717 -0.1767  0.2820
 9997SOL    HW137041   1.671   5.122   8.233  2.0556  2.7473  2.2671
 9997SOL    HW237042   1.736   4.986   8.236 -1.0581  0.9253 -2.1601
 9998SOL     OW37043   0.304   4.105   3.462 -0.4055 -0.0784  0.2211
 9998SOL    HW137044   0.387   4.136   3.497  0.2893 -1.6740  0.0822
 9998SOL    HW237045   0.247   4.182   3.461  0.4405  0.6134  2.1610
 9999SOL     OW37046  11.177  11.203   6.740  0.3921 -0.0275  0.2555
 9999SOL    HW137047  11.215  11.158   6.664  0.8789  0.4517  0.2101
 9999SOL    HW237048  11.083  11.187   6.733  0.5711 -1.2595  0.3762
10000SOL     OW37049   1.700   5.284   9.007  0.6308  0.1266 -0.8112
10000SOL    HW137050   1.609   5.301   8.985  0.7155  0.0859 -1.2008
10000SOL    HW237051   1.722   5.351   9.072 -0.5752 -1.7288  1.6539
10001SOL     OW37052  12.110   1.827   9.768 -0.0287 -0.1192 -0.4770
10001SOL    HW137053  12.088   1.762   9.701 -1.0425 -0.4063  0.1080
10001SOL    HW237054  12.182   1.788   9.817 -1.6999 -1.6434  0.9421
10002SOL     OW37055   0.445   8.504   8.523 -1.0500 -0.3020  0.7434
10002SOL    HW137056   0.443   8.455   8.605 -0.8564 -0.7594  0.4806
10002SOL    HW237057   0.478   8.590   8.547  1.8670 -1.3110  0.7058
10003SOL     OW37058   4.642   1.291   8.036  0.2163  0.0459 -0.4532
10003SOL    HW137059   4.621   1.219   8.095 -2.1279  1.3888  0.4955
10003SOL    HW237060   4.622   1.257   7.948  1.5577 -1.2161 -0.3143
10004SOL     OW37061  11.729   4.756   0.630  0.1073 -0.3423  0.1013
10004SOL    HW137062  11.719   4.756   0.535  0.1915 -0.8345  0.0883
10004SOL    HW237063  11.702   4.844   0.657  0.4362 -0.0768 -0.4119
10005SOL     OW37064   2.570   9.990   7.042  0.1042 -0.2225 -0.5195
10005SOL    HW137065   2.566   9.907   6.995 -0.0041 -0.8842  0.6277
10005SOL    HW237066   2.625   9.972   7.118  2.3565  1.4526 -1.6174
10006SOL     OW37067  11.713   7.945  10.145 -0.1980  0.3001 -0.4200
10006SOL    HW137068  11.617   7.952  10.153 -0.7122 -2.8074 -2.3480
10006SOL    HW237069  11.731   7.970  10.054  0.4849 -1.2950 -0.7529
10007SOL     OW37070  10.374   6.170   7.283 -0.5261  0.1950 -0.0261
10007SOL    HW137071  10.310   6.133   7.344  0.4489 -0.0855  0.8738
10007SOL    HW237072  10.360   6.123   7.201 -0.0460 -1.4483  0.7869
10008SOL     OW37073  11.794  10.815   9.647  0.5119  0.3823  0.3153
10008SOL    HW137074  11.752  10.774   9.572  1.4426  0.2948 -0.1672
10008SOL    HW237075  11.728  10.813   9.716  0.3453 -1.4512  0.1491
10009SOL     OW37076   0.378   4.139  11.190 -0.4665 -0.6638 -0.1772
10009SOL    HW137077   0.427   4.167  11.113 -0.9385 -0.6247 -0.4693
10009SOL    HW237078   0.317   4.073  11.156 -1.9911  0.7071 -0.2020
10010SOL     OW37079   7.562   8.386   2.606  0.2060 -0.2104 -0.2298
10010SOL    HW137080   7.548   8.292   2.608  1.7239 -0.4492  0.1664
10010SOL    HW237081   7.589   8.408   2.696  1.8908  0.2382 -0.8122
10011SOL     OW37082   2.456   8.892  10.779  0.1519  0.3765 -0.3716
10011SOL    HW137083   2.479   8.933  10.696  0.0598  1.4504  0.1266
10011SOL    HW237084   2.448   8.964  10.841 -3.6071  0.0520 -0.2627
10012SOL     OW37085   7.564  11.676  12.421 -1.0473  0.6923  0.6783
10012SOL    HW137086   7.535  11.611  12.358 -0.2557  1.3596 -0.4125
10012SOL    HW237087   7.652  11.699  12.393 -0.3617  0.4466  2.5058
10013SOL     OW37088  11.415  10.064   7.903 -0.0926 -1.1772 -0.1610
10013SOL    HW137089  11.509  10.084   7.905 -0.1960 -0.5630 -1.1626
10013SOL    HW237090  11.381  10.101   7.984  0.4259 -0.8733 -0.0778
10014SOL     OW37091  11.430   2.743   3.344  0.1956 -0.2704  0.0379
10014SOL    HW137092  11.420   2.752   3.438 -2.6139 -1.0873 -0.1102
10014SOL    HW237093  11.517   2.705   3.332  1.0614  0.8722  2.1766
10015SOL     OW37094   1.475   2.523   2.387 -0.8863 -0.0024 -0.0766
10015SOL    HW137095   1.520   2.608   2.382  0.2561 -0.4993  1.0717
10015SOL    HW237096   1.539   2.460   2.353 -0.1629 -0.8638  2.6007
10016SOL     OW37097   5.956   6.260   9.807 -0.6331  0.0569 -0.3736
10016SOL    HW137098   6.042   6.282   9.843 -0.1526 -1.4144 -0.5811
10016SOL    HW237099   5.909   6.220   9.880 -0.5457 -0.6385 -0.6912
10017SOL     OW37100   4.023   2.909   5.321 -0.3490 -0.4145 -0.0209
10017SOL    HW137101   4.102   2.862   5.348 -0.5626 -2.2413 -2.2940
10017SOL    HW237102   4.004   2.876   5.233 -0.8842  3.5774 -1.6154
10018SOL     OW37103   2.458   6.802   8.254  0.0504  0.1641 -0.6302
10018SOL    HW137104   2.427   6.764   8.172  2.8289  1.2409 -2.3291
10018SOL    HW237105   2.545   6.764   8.267  1.4171  3.0819 -0.4768
10019SOL     OW37106  11.577   4.695  10.256  0.5767 -0.1238 -0.0273
10019SOL    HW137107  11.558   4.666  10.345 -3.0767  1.3896 -0.1402
10019SOL    HW237108  11.629   4.774  10.266  0.9406 -0.4501  0.6964
10020SOL     OW37109   3.032  12.131  11.191  0.0024 -0.5078 -0.3216
10020SOL    HW137110   3.028  12.098  11.101 -1.0466  1.7446 -1.1878
10020SOL    HW237111   3.124  12.124  11.216  0.6361  0.4732 -2.2487
10021SOL     OW37112   2.592   3.483  11.365 -0.6608 -0.3188  0.2166
10021SOL    HW137113   2.639   3.479  11.282 -0.5687 -0.5998  0.2854
10021SOL    HW237114   2.636   3.420  11.421  0.2493  0.9512  0.9795
10022SOL     OW37115  11.812   6.627   3.676  0.1632 -0.3407  0.5088
10022SOL    HW137116  11.767   6.665   3.751  1.3120  0.8557  0.6326
10022SOL    HW237117  11.742   6.594   3.620 -0.8257  0.7478  1.0607
10023SOL     OW37118   9.536  11.963   3.610 -0.8071 -0.2391  0.0976
10023SOL    HW137119   9.594  11.975   3.685  0.4991  0.3222 -0.9570
10023SOL    HW237120   9.490  12.047   3.602 -1.6272 -0.6053  0.7918
10024SOL     OW37121   6.377   9.346  12.059 -0.4994 -0.5715 -0.0051
10024SOL    HW137122   6.470   9.329  12.040 -0.2679  0.0016  0.5811
10024SOL    HW237123   6.351   9.410  11.992  0.2952  1.3840  1.4505
10025SOL     OW37124   1.964  11.290   6.458  0.5266 -0.4782 -0.2979
10025SOL    HW137125   1.949  11.233   6.382  1.0474 -0.7650 -0.1914
10025SOL    HW237126   1.897  11.264   6.521  0.5398 -0.7325 -0.3880
10026SOL     OW37127   9.691   4.675  11.525  0.3967  0.3125  0.5904
10026SOL    HW137128   9.765   4.704  11.472  0.2008  0.3380  0.3292
10026SOL    HW237129   9.691   4.580  11.517  0.7964  0.2592  1.1224
10027SOL     OW37130   6.130  11.431   6.079  0.0886 -0.2352 -0.3428
10027SOL    HW137131   6.163  11.470   6.160 -0.0404  0.5577 -0.6668
10027SOL    HW237132   6.208  11.419   6.025  0.0679 -0.0032 -0.4226
10028SOL     OW37133   3.916   5.882   1.431 -0.3647  0.1848 -0.3850
10028SOL    HW137134   3.862   5.960   1.443 -2.0014 -1.0338  0.6687
10028SOL    HW237135   3.854   5.814   1.406  0.4752 -1.5185  1.8016
10029SOL     OW37136   8.220   8.664   4.392 -0.2832 -0.5290 -0.4031
10029SOL    HW137137   8.274   8.724   4.340 -0.2773  0.2656  0.5072
10029SOL    HW237138   8.158   8.720   4.438  0.6496 -1.0269  1.5928
10030SOL     OW37139   9.407   8.975   3.653 -0.3120 -0.0547  0.0791
10030SOL    HW137140   9.357   9.052   3.678 -0.1563  0.1594 -0.2693
10030SOL    HW237141   9.343   8.917   3.611 -0.8353 -0.9110  1.9354
10031SOL     OW37142   5.559  10.090  10.159  0.0289 -0.7424  0.0254
10031SOL    HW137143   5.559  10.137  10.243 -0.8539  1.9311 -1.3591
10031SOL    HW237144   5.639  10.118  10.116 -0.7740 -0.0220 -1.0525
10032SOL     OW37145   7.466   2.156  12.098 -0.4105 -0.1462  0.0653
10032SOL    HW137146   7.417   2.237  12.117 -0.0144 -0.0931  0.9084
10032SOL    HW237147   7.402   2.099  12.055 -0.5184  0.8579 -1.1635
10033SOL     OW37148   9.359   9.021   8.604  0.3897 -0.1174  0.5633
10033SOL    HW137149   9.394   9.077   8.534 -0.4920  0.4250  0.5368
10033SOL    HW237150   9.374   8.932   8.573 -1.3789  0.0811 -1.0964
10034SOL     OW37151  11.726   7.564   8.591 -0.2462  0.4242  0.2723
10034SOL    HW137152  11.782   7.500   8.546 -0.2159  0.7971 -0.2394
10034SOL    HW237153  11.676   7.513   8.655  1.7106  0.2903  1.7672
10035SOL     OW37154  11.807   1.601   7.440  0.2283  0.1896 -0.3402
10035SOL    HW137155  11.800   1.509   7.415  0.0277  0.0280  0.3030
10035SOL    HW237156  11.873   1.603   7.508  0.0877  0.4962 -0.2118
10036SOL     OW37157  12.173   9.531   7.781  0.6106 -0.5170 -0.0741
10036SOL    HW137158  12.237   9.479   7.830 -0.1085 -0.9607  0.4135
10036SOL    HW237159  12.148   9.601   7.840  2.6884  1.3396 -1.2610
10037SOL     OW37160   7.986   4.596  11.924  0.1788  1.1009  0.1285
10037SOL    HW137161   7.908   4.588  11.870  1.1477 -4.0652 -0.9651
10037SOL    HW237162   8.049   4.643  11.868 -0.8357  1.6730 -0.5564
10038SOL     OW37163   6.521   3.127  12.590  0.2561  0.1056  0.2678
10038SOL    HW137164   6.432   3.155  12.569  0.4447  1.0046  0.6172
10038SOL    HW237165   6.576   3.201  12.562  0.8882 -0.4311  0.0768
10039SOL     OW37166   3.893  10.374   2.996  0.1409  0.6029 -0.2760
10039SOL    HW137167   3.831  10.304   2.973  0.8917 -0.4627  0.8270
10039SOL    HW237168   3.841  10.454   2.994 -1.0151 -0.1327 -0.4199
10040SOL     OW37169   1.470  11.622   5.374  0.2877  0.0453 -0.1015
10040SOL    HW137170   1.437  11.533   5.386 -0.1088  0.3376  1.0599
10040SOL    HW237171   1.506  11.622   5.285  0.9023 -1.4590  0.1219
10041SOL     OW37172   6.282   3.407   2.812  0.2591  0.4221  0.5338
10041SOL    HW137173   6.353   3.414   2.748 -0.7140 -1.9546 -0.9541
10041SOL    HW237174   6.326   3.403   2.897  1.7121  1.6129 -0.1206
10042SOL     OW37175   5.778   6.033   4.564 -0.2818 -0.1946 -0.6290
10042SOL    HW137176   5.816   6.100   4.507  1.3402 -0.3513  0.2269
10042SOL    HW237177   5.814   5.950   4.533 -1.4782 -0.5811 -1.0314
10043SOL     OW37178  10.141   8.230   9.624  0.2524 -0.2480  0.0996
10043SOL    HW137179  10.236   8.226   9.614  0.1985 -0.1672 -0.4594
10043SOL    HW237180  10.110   8.142   9.601 -0.0602  0.4928 -2.6369
10044SOL     OW37181   9.123   5.812   0.481  0.1713 -0.1578 -0.4620
10044SOL    HW137182   9.055   5.747   0.498  1.7462 -1.5935  0.7554
10044SOL    HW237183   9.110   5.879   0.548  1.4595 -1.7633  1.5267
10045SOL     OW37184   8.140   6.625   8.315 -0.2588 -0.0198 -0.2744
10045SOL    HW137185   8.231   6.651   8.302  0.4363 -1.5513  1.1690
10045SOL    HW237186   8.091   6.676   8.251  1.4909  1.5598 -0.4382
10046SOL     OW37187   8.208   6.479   5.915 -0.0274  0.0255 -0.6569
10046SOL    HW137188   8.258   6.560   5.915 -0.3910  0.2527  0.0600
10046SOL    HW237189   8.254   6.423   5.977 -0.2908 -0.0007 -0.4871
10047SOL     OW37190   2.767   2.987   2.161 -0.0560  0.2406  0.1262
10047SOL    HW137191   2.748   3.072   2.201 -1.3090  0.4181 -0.7950
10047SOL    HW237192   2.725   2.923   2.219 -0.7514  0.3968 -0.2037
10048SOL     OW37193   1.489  10.211   7.100  0.0593  0.3555 -0.4088
10048SOL    HW137194   1.546  10.171   7.035  0.8552 -0.2002  0.5912
10048SOL    HW237195   1.401  10.201   7.065  0.3387 -1.2637 -0.7212
10049SOL     OW37196   9.848   1.279   4.954 -0.0485  0.6976 -0.0751
10049SOL    HW137197   9.898   1.341   5.008  0.2459  0.6086 -0.2416
10049SOL    HW237198   9.764   1.323   4.939 -0.2794  0.5699  0.7589
10050SOL     OW37199  11.955   4.407   3.536 -0.2041  0.1891  0.3085
10050SOL    HW137200  11.936   4.340   3.602 -1.4062  1.9673  1.8793
10050SOL    HW237201  11.879   4.407   3.479  0.0645 -0.1666 -0.0575
10051SOL     OW37202  11.279   8.171   7.406  0.2216  0.6826 -0.5171
10051SOL    HW137203  11.352   8.124   7.446  0.0508  1.1309  0.3694
10051SOL    HW237204  11.216   8.182   7.478 -0.5703  0.6004 -1.1802
10052SOL     OW37205   1.007   0.209   7.836  0.9819 -0.5466  0.0990
10052SOL    HW137206   1.101   0.202   7.821  1.1033  1.8960 -0.8476
10052SOL    HW237207   0.997   0.196   7.931  2.1043 -1.9088  0.0586
10053SOL     OW37208   2.683   5.317   1.931  0.2166 -0.3462  0.7069
10053SOL    HW137209   2.671   5.409   1.907  3.2892 -0.2223 -0.8899
10053SOL    HW237210   2.690   5.317   2.026 -0.8520  0.8960  0.8078
10054SOL     OW37211   6.679  11.495   8.691  0.2944 -0.0241 -0.0167
10054SOL    HW137212   6.685  11.453   8.776  0.7358  0.5386  0.2381
10054SOL    HW237213   6.680  11.423   8.628 -1.4754 -0.5334  0.4903
10055SOL     OW37214   1.523   4.613  10.992  0.1104 -0.3051 -0.3591
10055SOL    HW137215   1.519   4.576  11.080 -0.9822 -0.1388 -0.3200
10055SOL    HW237216   1.432   4.638  10.973  0.4822  0.4454 -1.1942
10056SOL     OW37217  10.836  11.790   5.431  0.5678  0.5633 -0.4435
10056SOL    HW137218  10.842  11.817   5.339 -0.5196 -0.7305 -0.9291
10056SOL    HW237219  10.828  11.695   5.428 -1.5817  0.6184  0.8260
10057SOL     OW37220  11.849   2.683   4.749 -0.4410  0.0222 -0.4752
10057SOL    HW137221  11.795   2.609   4.778 -0.5460  0.1654 -0.3069
10057SOL    HW237222  11.909   2.698   4.821 -3.2038  2.9167  1.5206
10058SOL     OW37223   5.403   7.849   8.994  0.4369  0.1837 -0.8953
10058SOL    HW137224   5.478   7.876   8.940  0.5043 -0.0950 -0.9390
10058SOL    HW237225   5.442   7.821   9.077  0.3283  0.6677 -0.6733
10059SOL     OW37226   3.804   0.615   5.718 -0.4606 -0.2709  0.1715
10059SOL    HW137227   3.789   0.523   5.698 -0.7892 -0.1118 -0.3307
10059SOL    HW237228   3.870   0.644   5.655 -0.8055 -0.0121 -0.0789
10060SOL     OW37229   6.757   8.327   5.922  0.0856 -0.0952 -0.1978
10060SOL    HW137230   6.671   8.368   5.918  0.8541  1.5383 -0.9411
10060SOL    HW237231   6.771   8.308   6.015  0.2604  2.7198  0.4421
10061SOL     OW37232   5.697   5.165  10.723 -0.0064 -0.6248  0.1726
10061SOL    HW137233   5.780   5.203  10.751  0.4413 -1.0415 -0.5761
10061SOL    HW237234   5.635   5.237  10.727  0.8471  0.2151 -1.2993
10062SOL     OW37235   7.169  10.705  12.136 -0.2414 -0.5659 -0.2767
10062SOL    HW137236   7.122  10.634  12.092 -0.5114 -0.6638  0.1707
10062SOL    HW237237   7.257  10.701  12.100 -0.2377 -1.1734 -0.1984
10063SOL     OW37238   5.139   1.400   6.206 -0.8111  0.7869  0.2222
10063SOL    HW137239   5.231   1.414   6.187  0.4989 -1.7454  3.7505
10063SOL    HW237240   5.093   1.447   6.137  3.0530  2.8549 -1.2229
10064SOL     OW37241   7.297   9.199   6.380 -0.0701 -0.4088  0.0983
10064SOL    HW137242   7.336   9.180   6.295  0.4775  3.0650 -0.5768
10064SOL    HW237243   7.355   9.158   6.443  1.0326 -0.7740 -1.1110
10065SOL     OW37244   1.362   4.617   9.527 -0.0141  0.0889 -0.2198
10065SOL    HW137245   1.428   4.670   9.483  0.1108 -0.3390 -0.5515
10065SOL    HW237246   1.405   4.533   9.542 -0.5246 -0.2311 -0.5449
10066SOL     OW37247   2.050   7.978   2.467 -0.5012 -0.4970  0.3835
10066SOL    HW137248   1.965   7.977   2.512 -0.8542 -0.9770 -0.2679
10066SOL    HW237249   2.030   8.010   2.379  0.5271  2.6388  1.1509
10067SOL     OW37250   3.767   1.526   1.655 -0.3086  0.2081 -0.1029
10067SOL    HW137251   3.796   1.579   1.730 -0.1109  1.1137 -0.7957
10067SOL    HW237252   3.835   1.459   1.646 -0.2503  0.1860  0.4280
10068SOL     OW37253  12.184   5.426   1.040  0.3174 -0.1649  0.1903
10068SOL    HW137254  12.265   5.475   1.026 -0.1812  0.8864  0.8903
10068SOL    HW237255  12.147   5.462   1.120 -1.4012  0.1555 -0.6940
10069SOL     OW37256   2.086   4.697   7.587 -0.4147  0.4884 -0.0137
10069SOL    HW137257   2.121   4.652   7.665 -1.8905 -0.1534  0.3089
10069SOL    HW237258   2.163   4.711   7.532  0.5866  0.4931  1.3291
10070SOL     OW37259   2.581   5.725   2.319 -0.1678 -0.1179  0.1618
10070SOL    HW137260   2.503   5.756   2.273 -0.8411 -0.8558  0.7775
10070SOL    HW237261   2.628   5.672   2.254 -1.0461 -1.0466  0.2678
10071SOL     OW37262   8.702   6.213   5.099  0.0919  0.3452 -0.1677
10071SOL    HW137263   8.620   6.211   5.149 -0.7864  0.8440 -1.5155
10071SOL    HW237264   8.700   6.298   5.055 -0.1657 -0.8287 -2.5761
10072SOL     OW37265   8.582   3.154   5.649 -0.3395 -0.3272 -0.5058
10072SOL    HW137266   8.553   3.242   5.626 -0.4590  0.3846  2.0000
10072SOL    HW237267   8.537   3.135   5.732  0.6054 -2.2710 -0.3732
10073SOL     OW37268   3.706  10.039   4.227  0.2932 -0.3982  0.0157
10073SOL    HW137269   3.692   9.946   4.245 -0.0180 -0.6595 -1.4484
10073SOL    HW237270   3.796  10.043   4.194  0.3174 -0.1707  0.1082
10074SOL     OW37271   1.539  11.132   3.963 -0.5039 -0.2401 -0.6784
10074SOL    HW137272   1.536  11.187   3.885  0.8421 -0.3954 -0.8643
10074SOL    HW237273   1.469  11.068   3.950 -0.3561 -0.2081 -1.7117
10075SOL     OW37274   9.479  10.725   5.125  0.1297 -0.3011 -0.5009
10075SOL    HW137275   9.513  10.654   5.179  1.3493 -0.0117 -0.8412
10075SOL    HW237276   9.554  10.785   5.115 -0.5240  0.4217 -1.2086
10076SOL     OW37277  10.377   2.660   9.670  0.4673  0.3377  0.0514
10076SOL    HW137278  10.303   2.658   9.731  0.7633  1.5667  0.4972
10076SOL    HW237279  10.358   2.592   9.606 -1.4748  1.1921 -0.3301
10077SOL     OW37280  10.228   6.958   2.408  0.2570  0.0858  0.5975
10077SOL    HW137281  10.188   6.912   2.482  0.0438  0.6537  0.8366
10077SOL    HW237282  10.183   6.923   2.331 -0.8494  0.8613  0.8728
10078SOL     OW37283   2.203   4.963  12.021  0.0702  0.2766 -0.3247
10078SOL    HW137284   2.218   5.026  12.092  2.0123 -0.0505 -0.4148
10078SOL    HW237285   2.189   4.879  12.065  0.7128  0.1799 -0.2957
10079SOL     OW37286   7.710   3.642  10.769  0.1441 -0.0930  0.1820
10079SOL    HW137287   7.795   3.675  10.798  0.9938 -1.4078 -0.6608
10079SOL    HW237288   7.732   3.567  10.712 -1.5428  0.0933 -0.7867
10080SOL     OW37289   4.348   3.602   1.330  0.0842 -0.6211  0.1109
10080SOL    HW137290   4.313   3.679   1.285  0.8080 -1.4487 -1.9702
10080SOL    HW237291   4.394   3.639   1.406 -3.2518  0.6306  1.7017
10081SOL     OW37292   1.118   6.587   5.161  0.1585 -0.7932 -0.8896
10081SOL    HW137293   1.058   6.604   5.088 -1.2194 -1.3561  0.0606
10081SOL    HW237294   1.183   6.526   5.126  0.4194  0.1127 -2.0465
10082SOL     OW37295  10.454   4.538   8.325 -0.8099  0.2546  0.0398
10082SOL    HW137296  10.478   4.451   8.293  0.1975  0.6217 -0.2363
10082SOL    HW237297  10.469   4.596   8.250  1.0027  1.0341  0.9442
10083SOL     OW37298   2.299   9.793   8.394  0.4790  0.0342  0.0187
10083SOL    HW137299   2.368   9.734   8.425  1.2209  1.3865  0.9987
10083SOL    HW237300   2.327   9.816   8.305  0.4232 -0.7031 -0.2020
10084SOL     OW37301   4.349   8.049   0.072 -0.3186 -0.5615 -0.4204
10084SOL    HW137302   4.382   8.102   0.145 -1.5606  1.5536 -1.3026
10084SOL    HW237303   4.308   7.973   0.114  0.8322 -0.4644  0.9458
10085SOL     OW37304   9.991  12.251   7.928 -0.0103  0.6862  0.1970
10085SOL    HW137305  10.066  12.310   7.923  1.0925 -0.6126  1.0172
10085SOL    HW237306   9.942  12.281   8.005  0.8076  0.2377  0.8955
10086SOL     OW37307   8.625   3.312   4.884 -0.9023 -0.0438 -0.6867
10086SOL    HW137308   8.675   3.365   4.821 -1.3387  1.0258 -0.1701
10086SOL    HW237309   8.596   3.375   4.949 -1.5451 -0.9268 -0.1015
10087SOL     OW37310   1.662   8.382   5.344 -0.2421  0.0056 -0.3006
10087SOL    HW137311   1.733   8.375   5.280  0.0561 -1.0795  0.1278
10087SOL    HW237312   1.631   8.292   5.355  0.7852 -0.1162  2.2558
10088SOL     OW37313   9.167   7.244  11.734  0.2539  0.1631 -0.7353
10088SOL    HW137314   9.140   7.192  11.658  0.0152 -1.8900  0.6574
10088SOL    HW237315   9.195   7.178  11.799 -0.1725  1.7940  1.1955
10089SOL     OW37316   4.982   5.217   5.451  0.1729  0.0991  0.5934
10089SOL    HW137317   5.062   5.232   5.402 -0.0221  0.0742  0.2624
10089SOL    HW237318   4.919   5.186   5.385  0.3080 -1.2980  1.0890
10090SOL     OW37319   2.882   2.242   1.635  0.0275  0.3339  0.1118
10090SOL    HW137320   2.976   2.252   1.617  0.1386  0.1905  0.6108
10090SOL    HW237321   2.840   2.297   1.569  0.3311 -1.6504 -1.8387
10091SOL     OW37322   2.933  11.148   4.336 -0.0566  0.2109  0.3856
10091SOL    HW137323   2.854  11.198   4.358 -0.6388  1.3718 -3.5288
10091SOL    HW237324   2.994  11.214   4.302  0.8434 -1.1952 -0.8445
10092SOL     OW37325   9.015   1.849   6.741 -0.3854 -0.2072 -0.2701
10092SOL    HW137326   9.079   1.779   6.748  0.7423  0.9635  1.9692
10092SOL    HW237327   8.945   1.811   6.687  2.8927 -0.9294 -4.6173
10093SOL     OW37328   6.767   0.594  10.199 -0.1191  0.3859 -0.4518
10093SOL    HW137329   6.674   0.584  10.183 -0.2048  0.9769 -0.3312
10093SOL    HW237330   6.802   0.505  10.190 -0.8857 -0.0670  0.7933
10094SOL     OW37331   4.077   3.121  11.609 -0.2627  0.1791  0.3322
10094SOL    HW137332   4.044   3.052  11.667  0.7557 -1.5372 -1.0515
10094SOL    HW237333   4.122   3.181  11.668  2.7448 -2.6841  1.2369
10095SOL     OW37334   1.985   3.208  10.457 -0.0120 -0.7067 -0.4476
10095SOL    HW137335   2.080   3.193  10.450  0.2861 -0.4548  2.1501
10095SOL    HW237336   1.968   3.282  10.399  1.4101 -0.6257 -0.7968
10096SOL     OW37337   9.451  11.847  10.447  0.7074  0.0837  0.2197
10096SOL    HW137338   9.429  11.830  10.355  0.6003  1.6057 -0.0574
10096SOL    HW237339   9.422  11.769  10.493 -0.6101 -0.0925 -0.8464
10097SOL     OW37340  10.583   1.033   5.335  0.1805  0.1791 -1.0311
10097SOL    HW137341  10.563   0.960   5.393  0.2880  1.5114  0.7819
10097SOL    HW237342  10.678   1.029   5.324  0.3338  0.6200 -0.0485
10098SOL     OW37343   6.845   8.611   9.167  0.3006 -0.1144 -0.5924
10098SOL    HW137344   6.754   8.628   9.191  0.5400 -0.2618  0.4545
10098SOL    HW237345   6.888   8.589   9.250  1.8443  2.3383 -0.6499
10099SOL     OW37346   1.998  11.795   7.112 -0.3455  0.1627 -0.5112
10099SOL    HW137347   2.057  11.849   7.060  2.7938 -1.0034  1.5946
10099SOL    HW237348   2.015  11.706   7.083 -1.3425 -0.1860 -0.0661
10100SOL     OW37349  12.303  10.111   1.966  0.4556 -0.6880  0.6538
10100SOL    HW137350  12.310  10.145   1.877 -0.9081 -0.1678  0.7174
10100SOL    HW237351  12.272  10.021   1.955  2.0710 -1.2640  0.5611
10101SOL     OW37352   1.774   0.276   5.634 -0.6870 -0.2560 -0.1642
10101SOL    HW137353   1.840   0.340   5.663 -1.2638 -0.2400  1.2317
10101SOL    HW237354   1.819   0.222   5.570  0.4479  0.2575  0.1731
10102SOL     OW37355   2.899   6.517   8.513  0.1511 -0.1981  0.3584
10102SOL    HW137356   2.928   6.436   8.556 -2.2985 -0.7493  1.1297
10102SOL    HW237357   2.846   6.487   8.440 -2.0545  0.6225  1.5419
10103SOL     OW37358   6.383   7.479   1.344  0.2752 -0.4097  0.2884
10103SOL    HW137359   6.406   7.410   1.407  1.7761  0.4903  0.7939
10103SOL    HW237360   6.336   7.434   1.274  0.1151 -1.7258  1.2118
10104SOL     OW37361   7.046   5.733   8.943  0.1485  0.6243 -0.8813
10104SOL    HW137362   7.050   5.828   8.952 -1.1082  0.5180  1.6005
10104SOL    HW237363   6.960   5.716   8.905 -1.3463  0.4126  2.2968
10105SOL     OW37364   0.954   5.069   2.922  0.5816  0.3088 -0.0541
10105SOL    HW137365   1.031   5.080   2.978  0.8622 -1.2696 -0.0772
10105SOL    HW237366   0.880   5.096   2.976  1.1513  2.2328 -0.1619
10106SOL     OW37367   1.233   6.463   6.529 -0.5539  0.2566 -0.6222
10106SOL    HW137368   1.142   6.488   6.543 -0.2902  0.6839  0.4208
10106SOL    HW237369   1.233   6.420   6.443 -1.8868 -0.5394 -0.2571
10107SOL     OW37370   2.926   3.439   7.831  0.5620 -0.1796 -0.2237
10107SOL    HW137371   3.004   3.494   7.826  0.9656 -0.8589 -2.0011
10107SOL    HW237372   2.950   3.370   7.894  1.0959  0.0557 -0.1585
10108SOL     OW37373   0.188   9.753   8.289  0.0347  0.0781 -0.0883
10108SOL    HW137374   0.263   9.728   8.343 -0.1482  0.7004  0.4561
10108SOL    HW237375   0.146   9.670   8.267  1.3340 -0.3598 -1.0757
10109SOL     OW37376  10.684   0.685   8.243 -0.1820 -0.6184  0.4454
10109SOL    HW137377  10.772   0.688   8.206 -0.2328 -1.0048  0.2883
10109SOL    HW237378  10.685   0.750   8.313 -0.1584  0.3162 -0.3946
10110SOL     OW37379   3.463   8.450   2.568 -0.0556 -0.4012  0.2667
10110SOL    HW137380   3.413   8.368   2.573 -0.6680 -0.3843 -3.1959
10110SOL    HW237381   3.410   8.507   2.512  2.4284  0.6848 -1.1633
10111SOL     OW37382  11.434   7.707   5.635 -0.2442 -0.1285 -0.1196
10111SOL    HW137383  11.524   7.682   5.656 -0.6555 -1.5089  0.0742
10111SOL    HW237384  11.439   7.739   5.545  0.3440 -0.7594 -0.3197
10112SOL     OW37385   8.381   0.016   3.787 -0.3482 -0.5201  0.0812
10112SOL    HW137386   8.302   0.071   3.782  0.5738  0.7770 -1.4716
10112SOL    HW237387   8.348  -0.072   3.803 -2.0178  0.1972  0.8084
10113SOL     OW37388   5.568  11.762  11.170 -0.3743  0.4663  0.3885
10113SOL    HW137389   5.509  11.693  11.200 -1.0411  1.3957  1.2241
10113SOL    HW237390   5.584  11.816  11.246  0.1443  1.2587 -0.2630
10114SOL     OW37391   7.327   7.500   7.995  0.0186  0.1618  0.3024
10114SOL    HW137392   7.288   7.415   7.973  0.7473 -0.0211 -0.3105
10114SOL    HW237393   7.398   7.478   8.056  0.5973  0.2650 -0.3277
10115SOL     OW37394   0.948   7.103   8.714  0.4062 -0.0062 -0.1747
10115SOL    HW137395   0.979   7.056   8.792  1.0905  0.4085 -0.1909
10115SOL    HW237396   0.946   7.036   8.646  0.1486 -0.2935  0.1106
10116SOL     OW37397  11.489   4.830   9.861  0.2562 -0.3977 -0.1825
10116SOL    HW137398  11.480   4.744   9.820  0.8894 -0.9447  0.7879
10116SOL    HW237399  11.402   4.871   9.851  0.2115 -0.7836 -1.4350
10117SOL     OW37400   6.571   7.490   9.461  0.0665 -0.1535 -0.2239
10117SOL    HW137401   6.594   7.397   9.463 -0.7546 -0.3471  0.4111
10117SOL    HW237402   6.527   7.502   9.377  0.4365 -0.2644 -0.4383
10118SOL     OW37403   6.512   7.705   2.329  0.3262 -0.2491 -0.3038
10118SOL    HW137404   6.576   7.775   2.338  0.4593 -0.4384  0.3318
10118SOL    HW237405   6.430   7.742   2.362  0.3619 -0.3436 -0.1065
10119SOL     OW37406   4.139   3.562   9.313 -0.4523  0.2620  0.5412
10119SOL    HW137407   4.064   3.543   9.370 -1.9989  0.9346 -1.1803
10119SOL    HW237408   4.124   3.507   9.236  1.2088 -0.0727  0.4280
10120SOL     OW37409   5.248   2.770  11.916 -0.1527 -0.5577 -0.2688
10120SOL    HW137410   5.195   2.696  11.886 -0.1012 -1.4728  1.7654
10120SOL    HW237411   5.312   2.731  11.976 -2.1903  1.3937  3.5390
10121SOL     OW37412  12.322   5.556   0.122  0.8000 -0.2642 -0.9361
10121SOL    HW137413  12.384   5.500   0.076 -0.2374 -1.3232 -1.1276
10121SOL    HW237414  12.237   5.535   0.082  0.4299  1.8578 -1.3617
10122SOL     OW37415  10.122  10.719  10.321 -0.1553  0.2420 -0.5506
10122SOL    HW137416  10.173  10.782  10.374 -1.7141  0.0454  1.2920
10122SOL    HW237417  10.175  10.640  10.322 -0.7811 -0.2711  2.1629
10123SOL     OW37418   9.156   8.185   3.518  0.5461 -0.0778  0.6251
10123SOL    HW137419   9.081   8.223   3.564  1.6324  2.1900  0.6912
10123SOL    HW237420   9.186   8.114   3.575 -1.3224 -0.8307  0.7362
10124SOL     OW37421   6.510   1.007   5.887  0.6030  0.5048 -0.5623
10124SOL    HW137422   6.589   0.953   5.882 -0.4529 -1.0504 -1.6275
10124SOL    HW237423   6.449   0.953   5.938  0.8338  2.5741  2.1352
10125SOL     OW37424   6.029   6.570  12.227  0.5482 -0.0144 -0.0768
10125SOL    HW137425   5.983   6.655  12.226  1.7219  0.6360 -0.0485
10125SOL    HW237426   6.021   6.540  12.318 -0.1316 -0.0894 -0.1549
10126SOL     OW37427   0.130   8.641   0.599  0.2211 -0.5571 -0.4991
10126SOL    HW137428   0.220   8.609   0.590  0.1849 -0.9671  0.4384
10126SOL    HW237429   0.075   8.568   0.572  0.1525  0.3135 -2.9068
10127SOL     OW37430   8.875   7.480  10.202  1.1581 -0.1529 -0.3985
10127SOL    HW137431   8.949   7.440  10.249  2.5158  0.4663 -1.8963
10127SOL    HW237432   8.889   7.574  10.210 -0.4595  0.0249  0.7399
10128SOL     OW37433   5.061   6.200   9.821 -0.3057  0.1915 -0.0678
10128SOL    HW137434   5.143   6.156   9.841  0.4771  1.8045  0.5268
10128SOL    HW237435   4.996   6.130   9.813  1.1172 -1.1181 -0.5799
10129SOL     OW37436   4.593   0.231   0.198 -0.3222  0.0687 -0.3569
10129SOL    HW137437   4.649   0.296   0.240 -0.5949  0.5279 -0.7007
10129SOL    HW237438   4.508   0.273   0.191 -0.2967 -0.0303 -1.3079
10130SOL     OW37439   6.128  12.311  11.708 -0.1538  0.7511 -0.2068
10130SOL    HW137440   6.119  12.219  11.684  1.5414  0.0028  1.6569
10130SOL    HW237441   6.213  12.337  11.671 -0.4050  1.4281 -0.3205
10131SOL     OW37442  10.934   7.084   1.017  0.1431  0.2312  0.5360
10131SOL    HW137443  10.911   7.071   0.925 -0.5300  2.9883  0.2232
10131SOL    HW237444  10.920   6.999   1.058 -2.4235 -0.3523 -1.3236
10132SOL     OW37445  12.168   0.887   6.347  0.2813 -0.3610 -0.1164
10132SOL    HW137446  12.244   0.848   6.390 -0.1349 -1.6857 -0.5313
10132SOL    HW237447  12.192   0.890   6.254 -0.1555 -0.7594 -0.2457
10133SOL     OW37448  11.247   3.479   1.475 -0.1417  0.6973 -0.0043
10133SOL    HW137449  11.200   3.465   1.557  1.0625  0.7707  0.7308
10133SOL    HW237450  11.222   3.405   1.420 -3.1195  2.0434 -0.6625
10134SOL     OW37451   5.549   3.228   1.616  0.6539 -0.9994 -0.2859
10134SOL    HW137452   5.581   3.317   1.628  0.8866 -1.2066  0.7328
10134SOL    HW237453   5.551   3.214   1.521  1.1487 -0.1209 -0.4132
10135SOL     OW37454   0.567   6.988   2.028  0.8708  0.2317 -0.1720
10135SOL    HW137455   0.491   7.046   2.037 -0.6296 -1.8490  1.8331
10135SOL    HW237456   0.530   6.903   2.006  2.3911 -1.1963  2.2875
10136SOL     OW37457  10.052   8.709   3.593  0.0017  0.6938 -0.3923
10136SOL    HW137458   9.963   8.692   3.561 -0.0075  1.2129 -0.6600
10136SOL    HW237459  10.063   8.649   3.667 -0.5181  0.5261 -0.4449
10137SOL     OW37460   7.552   3.293   4.870  0.0913 -0.5685 -0.3143
10137SOL    HW137461   7.459   3.271   4.872 -0.2123  0.6243  1.9427
10137SOL    HW237462   7.580   3.270   4.781 -2.3215 -1.0003 -1.0432
10138SOL     OW37463  10.562   1.900   7.257  0.2972 -0.1502 -0.4289
10138SOL    HW137464  10.597   1.988   7.248  0.0720 -0.1942 -2.1224
10138SOL    HW237465  10.639   1.846   7.278  0.5752  0.3199 -0.2234
10139SOL     OW37466   9.861   2.561  11.638 -0.2512 -0.0703 -0.1062
10139SOL    HW137467   9.768   2.579  11.654 -0.3656 -0.3025 -0.4867
10139SOL    HW237468   9.863   2.523  11.550  0.2763  0.4932 -0.3409
10140SOL     OW37469   5.841  10.987   0.564 -0.3175 -0.0790 -0.3813
10140SOL    HW137470   5.884  10.909   0.598 -0.3156 -0.2765 -0.8318
10140SOL    HW237471   5.801  11.028   0.641 -0.7081 -0.7601 -0.2103
10141SOL     OW37472   9.332  12.170   1.180  0.1652  0.4251  0.2747
10141SOL    HW137473   9.288  12.207   1.103 -0.0559  0.7653  0.5631
10141SOL    HW237474   9.425  12.171   1.157 -0.0109 -0.9375 -0.6190
10142SOL     OW37475  10.824   5.327   2.383 -0.3707 -0.2094 -0.1633
10142SOL    HW137476  10.769   5.405   2.381 -0.6450 -0.4005 -0.2587
10142SOL    HW237477  10.788   5.274   2.455  0.6193  0.3228  0.7537
10143SOL     OW37478  11.898   5.525   7.840  0.2202  0.0771  0.2870
10143SOL    HW137479  11.805   5.522   7.862  0.5138 -0.6533  1.5244
10143SOL    HW237480  11.920   5.618   7.845 -0.4868  0.2868 -0.2488
10144SOL     OW37481  11.236   2.294  10.393 -0.0848  0.1918  0.5708
10144SOL    HW137482  11.297   2.303  10.320  0.0219  2.2906  0.8544
10144SOL    HW237483  11.280   2.337  10.466 -1.3740  0.6638  1.1009
10145SOL     OW37484  10.074   6.310   6.634 -0.6452  0.0477 -0.3457
10145SOL    HW137485  10.055   6.396   6.598 -0.8016  0.0765 -0.1985
10145SOL    HW237486  10.070   6.251   6.559 -1.9719 -0.0435 -0.2345
10146SOL     OW37487   8.910   1.646   3.109 -0.0770 -0.3432  0.2892
10146SOL    HW137488   8.916   1.685   3.196 -0.2989 -2.0846  1.1342
10146SOL    HW237489   9.001   1.637   3.080  0.0106  0.0066  0.4557
10147SOL     OW37490  11.698   5.389   8.147 -0.3388 -0.3328  0.5277
10147SOL    HW137491  11.772   5.444   8.120 -0.6182  0.6544  1.6941
10147SOL    HW237492  11.685   5.410   8.239 -3.9119  1.7107 -0.2644
10148SOL     OW37493   9.279   0.715   3.772 -0.5817 -0.0067 -0.1428
10148SOL    HW137494   9.339   0.648   3.805 -0.1138  0.1483 -0.6592
10148SOL    HW237495   9.293   0.715   3.677 -3.7978 -2.3323 -0.7741
10149SOL     OW37496   3.673   9.507   0.634 -0.5739 -0.6687  0.6042
10149SOL    HW137497   3.658   9.586   0.583  3.6175  1.0127  1.5382
10149SOL    HW237498   3.600   9.504   0.695 -2.4512  0.7086 -1.4287
10150SOL     OW37499  11.852   4.582   8.315  0.2724 -0.0317  0.1940
10150SOL    HW137500  11.935   4.570   8.269  0.2051  0.3345 -0.0323
10150SOL    HW237501  11.869   4.555   8.405  1.0665  1.4597  0.5356
10151SOL     OW37502   1.369  11.755   0.485 -0.4678  0.1009  0.8525
10151SOL    HW137503   1.451  11.716   0.455  0.1751  1.5923  0.5700
10151SOL    HW237504   1.322  11.684   0.528  0.6506 -0.9525  0.3665
10152SOL     OW37505   5.268  10.983   4.660  0.2758  0.4324 -0.2688
10152SOL    HW137506   5.357  11.018   4.664  0.1303  0.7942 -0.1532
10152SOL    HW237507   5.227  11.014   4.741  0.1991 -0.1548 -0.0841
10153SOL     OW37508   7.243  11.529   7.002  0.3413 -0.0378  0.0078
10153SOL    HW137509   7.332  11.561   6.995  0.0567  0.9120  0.5668
10153SOL    HW237510   7.252  11.440   7.037  1.1486 -0.7405 -1.8364
10154SOL     OW37511   7.143   7.949  10.693  0.0056  0.3150 -0.2033
10154SOL    HW137512   7.189   7.879  10.646 -1.0814 -0.6066  0.0492
10154SOL    HW237513   7.198   7.968  10.768 -0.8103 -2.0608  1.1087
10155SOL     OW37514   0.331  10.370   7.340 -0.1831 -0.4221 -0.1326
10155SOL    HW137515   0.394  10.423   7.291  0.6789  0.1847  1.5170
10155SOL    HW237516   0.339  10.401   7.430 -2.2410 -0.9486  0.2940
10156SOL     OW37517   6.267  11.232   5.293  0.5559  0.0662 -0.5955
10156SOL    HW137518   6.230  11.158   5.341  2.6165 -0.3047  0.5766
10156SOL    HW237519   6.192  11.275   5.252 -1.1657 -0.4928  1.7448
10157SOL     OW37520   8.475   9.984   4.620 -0.1815  0.4265 -0.2747
10157SOL    HW137521   8.455  10.077   4.609 -1.1634  0.1627 -0.8127
10157SOL    HW237522   8.559   9.983   4.667 -0.1375  1.5766 -0.3010
10158SOL     OW37523   1.570  11.339   6.276  0.0156  0.2000 -0.1997
10158SOL    HW137524   1.641  11.395   6.308  0.1480  0.3292 -0.7094
10158SOL    HW237525   1.585  11.332   6.182 -0.6606  0.2446 -0.3200
10159SOL     OW37526   1.891  12.380  12.228 -0.4739  0.4202 -0.5416
10159SOL    HW137527   1.872  12.458  12.279 -3.7069 -0.5995  0.0472
10159SOL    HW237528   1.889  12.410  12.137  0.1542  1.3057 -0.2790
10160SOL     OW37529   9.831   4.133   4.499  0.5119  0.1624 -0.3278
10160SOL    HW137530   9.748   4.173   4.524  0.7717  0.5127 -0.0076
10160SOL    HW237531   9.848   4.166   4.410  0.9892  1.2294  0.1287
10161SOL     OW37532   8.019   7.661   3.978  0.0758  0.7676  0.2161
10161SOL    HW137533   8.070   7.594   3.933  0.0364 -0.8504  2.3805
10161SOL    HW237534   8.011   7.628   4.068 -3.6892  1.5437  0.3334
10162SOL     OW37535   9.510   0.030   4.344 -0.2272 -0.2940 -0.3951
10162SOL    HW137536   9.463   0.096   4.294  0.6412  0.3474 -0.3985
10162SOL    HW237537   9.503   0.060   4.435  1.2255  0.5270 -0.5161
10163SOL     OW37538   5.839   9.021   9.409  0.0893  0.1310  0.3729
10163SOL    HW137539   5.813   8.950   9.350 -0.7989 -0.2010  1.1408
10163SOL    HW237540   5.904   9.071   9.360 -1.1316  0.2762 -1.1547
10164SOL     OW37541   7.333   0.671   9.288  0.4123 -0.0803 -0.3062
10164SOL    HW137542   7.346   0.673   9.383 -1.5833 -1.7036  0.0561
10164SOL    HW237543   7.422   0.674   9.252  1.2206  0.4213  1.5799
10165SOL     OW37544   5.962   1.240   6.868  0.2978 -0.1339 -0.1417
10165SOL    HW137545   5.925   1.328   6.869  0.6240  0.0769 -2.3838
10165SOL    HW237546   5.915   1.195   6.797  2.2411 -0.7673 -1.0842
10166SOL     OW37547   2.954   1.334  11.964  0.5177 -0.3848 -0.2348
10166SOL    HW137548   2.966   1.372  11.876  1.0737  1.8004  0.7231
10166SOL    HW237549   3.027   1.369  12.015 -0.7097 -0.2785  1.5208
10167SOL     OW37550   5.173   9.967   7.513 -0.5150  0.0184 -0.0527
10167SOL    HW137551   5.225   9.993   7.589 -1.1187 -1.6187  0.9815
10167SOL    HW237552   5.183  10.039   7.451  0.5726  1.0804  1.2918
10168SOL     OW37553   2.074   2.592   3.239 -0.2843 -0.1644 -0.4999
10168SOL    HW137554   2.075   2.504   3.277  0.2219 -0.0265 -0.1818
10168SOL    HW237555   2.128   2.644   3.299 -0.3254  0.2896 -0.8551
10169SOL     OW37556   6.525   7.386   3.565 -1.2213 -0.1300  0.0887
10169SOL    HW137557   6.452   7.358   3.510 -0.6845 -1.5936  0.0776
10169SOL    HW237558   6.565   7.458   3.517 -1.0818 -1.0422 -1.1997
10170SOL     OW37559   0.655   5.525   8.343 -0.0245 -0.0364  0.0380
10170SOL    HW137560   0.667   5.619   8.356 -0.0496  0.3366 -2.2283
10170SOL    HW237561   0.736   5.486   8.377  0.5588  0.9318 -0.1996
10171SOL     OW37562  11.807  11.270   8.158 -0.0379 -0.1099  0.2339
10171SOL    HW137563  11.731  11.318   8.192  0.8517  1.0011  0.7288
10171SOL    HW237564  11.866  11.339   8.126  1.1069 -0.8996  0.5868
10172SOL     OW37565   7.488   7.689   2.163  0.0789 -0.0161 -0.1053
10172SOL    HW137566   7.443   7.738   2.232 -3.1875 -0.1905 -1.9206
10172SOL    HW237567   7.492   7.599   2.197  0.5038  0.3001  0.7107
10173SOL     OW37568  11.992   9.391   3.164 -0.1407 -0.5359  0.0831
10173SOL    HW137569  11.897   9.390   3.169 -0.1315 -1.0856  0.2184
10173SOL    HW237570  12.019   9.451   3.234 -0.4433  1.2916 -1.3138
10174SOL     OW37571   8.219   9.937  12.066  0.3262 -0.1474  0.1433
10174SOL    HW137572   8.216   9.973  11.977 -1.0792 -2.7810 -1.0012
10174SOL    HW237573   8.312   9.941  12.090  0.9084 -0.2107 -1.8548
10175SOL     OW37574  10.233   9.952   3.286 -0.3038 -0.3255  0.1682
10175SOL    HW137575  10.189   9.936   3.369  0.7765 -0.7251  0.6768
10175SOL    HW237576  10.186  10.027   3.248 -0.6219  0.0437  1.2655
10176SOL     OW37577   2.352   4.167   6.491  0.8092  0.1101  0.0892
10176SOL    HW137578   2.361   4.078   6.458  0.6382 -0.6011  1.8648
10176SOL    HW237579   2.408   4.220   6.433  0.8526 -1.1094 -1.0362
10177SOL     OW37580  11.007   1.660  10.985 -0.5055 -1.0350 -0.3335
10177SOL    HW137581  11.008   1.694  10.896 -1.2240  0.9845  0.3607
10177SOL    HW237582  10.915   1.645  11.005 -0.2502 -2.9992 -0.4148
10178SOL     OW37583   8.688   1.612   7.716  0.0002  0.1053 -0.2648
10178SOL    HW137584   8.756   1.670   7.683  0.2324  0.7727  1.3124
10178SOL    HW237585   8.618   1.671   7.745 -0.2600 -0.4474  0.2623
10179SOL     OW37586   4.277   0.111   1.195 -0.2145 -0.2568 -0.2698
10179SOL    HW137587   4.186   0.082   1.189 -0.4062  0.3364 -0.2576
10179SOL    HW237588   4.297   0.147   1.109  0.8047 -2.6346 -1.1105
10180SOL     OW37589   2.256  11.621   4.912 -0.3777 -0.2616 -0.2132
10180SOL    HW137590   2.320  11.560   4.875 -1.3451 -1.0040 -0.6895
10180SOL    HW237591   2.308  11.677   4.970  0.6947 -0.8856 -0.5330
10181SOL     OW37592  12.194   8.871   6.020  0.5218  0.3837 -0.2742
10181SOL    HW137593  12.285   8.889   5.997  0.3220  0.6043 -0.9033
10181SOL    HW237594  12.188   8.896   6.112  0.9372  0.9983 -0.4002
10182SOL     OW37595   9.999   0.553   9.728  0.2242 -0.2984  0.3419
10182SOL    HW137596   9.993   0.548   9.633  1.9045 -1.9007  0.2686
10182SOL    HW237597   9.915   0.519   9.759 -0.3067  0.1615 -0.5457
10183SOL     OW37598   6.429   1.060  12.218 -0.0164  0.0655  0.1178
10183SOL    HW137599   6.426   0.969  12.191 -0.5435  0.4220 -1.0767
10183SOL    HW237600   6.412   1.058  12.313  0.7531 -1.1164  0.2402
10184SOL     OW37601   4.791   8.364   5.422 -0.1803 -0.2463 -0.3591
10184SOL    HW137602   4.861   8.380   5.359  0.8896  0.7933  1.0539
10184SOL    HW237603   4.777   8.448   5.466 -0.4099 -1.0928  1.2755
10185SOL     OW37604  10.466   1.415   6.870  0.7132 -0.0760 -0.2175
10185SOL    HW137605  10.391   1.355   6.871  0.0612  0.7234  0.0865
10185SOL    HW237606  10.520   1.389   6.944  1.9623 -2.1251 -1.7345
10186SOL     OW37607   7.485   1.503   6.564  0.3928  0.1905  0.1473
10186SOL    HW137608   7.451   1.422   6.527 -0.2687 -0.5439  2.2410
10186SOL    HW237609   7.531   1.546   6.491  0.0344 -1.6389 -1.2048
10187SOL     OW37610   5.346   5.786   2.570  0.1226  0.2388 -0.3274
10187SOL    HW137611   5.257   5.761   2.594  0.0880  1.1291  0.5468
10187SOL    HW237612   5.402   5.724   2.617  0.0100  1.0492  0.9250
10188SOL     OW37613   2.405   2.833   9.773 -0.2681  0.4107  0.1931
10188SOL    HW137614   2.324   2.864   9.734 -0.1554  1.0974  0.4892
10188SOL    HW237615   2.470   2.841   9.703 -0.3572  0.2911  0.0964
10189SOL     OW37616   7.566  10.569   2.335  0.2493  0.2544  0.5206
10189SOL    HW137617   7.538  10.598   2.249  1.7228 -0.4497 -0.2395
10189SOL    HW237618   7.526  10.483   2.346 -0.3358  0.5546  0.7581
10190SOL     OW37619   0.446   3.724   2.570  0.1947  0.0787 -0.2317
10190SOL    HW137620   0.475   3.803   2.523  1.1641 -0.2063 -0.1363
10190SOL    HW237621   0.458   3.653   2.506 -2.2794  0.1867 -0.9197
10191SOL     OW37622  11.219  10.174  11.025 -0.6105 -0.5372 -0.1200
10191SOL    HW137623  11.156  10.245  11.012 -0.3574 -0.3334 -0.2396
10191SOL    HW237624  11.232  10.170  11.119  1.4069  1.3691 -0.2413
10192SOL     OW37625   4.882   8.830  12.191  0.2712 -0.5860  0.0671
10192SOL    HW137626   4.791   8.810  12.170  0.3777 -0.8953 -0.1080
10192SOL    HW237627   4.886   8.926  12.193  0.4566 -0.4919 -2.2400
10193SOL     OW37628   0.363   5.791   1.922 -0.1023  0.4315 -0.3915
10193SOL    HW137629   0.311   5.735   1.865  0.9299  1.2435 -2.2306
10193SOL    HW237630   0.365   5.745   2.007 -1.3051 -1.0457 -1.1227
10194SOL     OW37631  12.244   5.460  12.185  0.4027  0.6954 -0.6781
10194SOL    HW137632  12.280   5.389  12.238  0.1219 -0.7070 -2.2757
10194SOL    HW237633  12.184   5.506  12.244  1.1342  0.0673  0.6022
10195SOL     OW37634   6.830   1.157  12.132 -0.2543 -0.8936  0.3384
10195SOL    HW137635   6.849   1.182  12.223  0.1108  2.5265 -0.5655
10195SOL    HW237636   6.757   1.212  12.107  0.6107 -0.6871 -1.9093
10196SOL     OW37637   5.247   5.810   7.373  0.4423 -0.1509 -0.0684
10196SOL    HW137638   5.207   5.819   7.460  1.2258 -2.1573  0.5316
10196SOL    HW237639   5.338   5.836   7.385  0.0770  1.6942 -0.8322
10197SOL     OW37640  10.298   3.057   4.097 -0.8519  0.2124 -0.2606
10197SOL    HW137641  10.271   2.965   4.096 -1.0869  0.1921  2.4547
10197SOL    HW237642  10.382   3.057   4.051  0.0084 -1.6954  1.1497
10198SOL     OW37643   6.131  11.497  12.320  0.1845  0.2098  0.0215
10198SOL    HW137644   6.101  11.570  12.266  0.8630 -0.1218 -0.8144
10198SOL    HW237645   6.190  11.537  12.384 -1.5364  0.7952  1.3558
10199SOL     OW37646   0.837   1.557   4.138 -0.0233 -0.1858 -0.5960
10199SOL    HW137647   0.865   1.600   4.057 -0.0806 -0.7060 -0.8941
10199SOL    HW237648   0.809   1.470   4.111 -0.2425 -0.2909 -0.0438
10200SOL     OW37649   2.908  10.451  10.132 -0.4443  0.2312 -0.5077
10200SOL    HW137650   2.941  10.537  10.156  2.7490 -1.0654  0.3144
10200SOL    HW237651   2.917  10.446  10.037  2.2623 -0.1484 -0.3040
10201SOL     OW37652  11.713   2.640   7.944 -0.6228 -0.0628  0.1087
10201SOL    HW137653  11.737   2.733   7.949  0.3324 -0.2744 -0.2301
10201SOL    HW237654  11.641   2.630   8.006 -2.1962  1.3473 -1.3759
10202SOL     OW37655   4.652   2.171   6.721 -0.3813  0.0846  0.3130
10202SOL    HW137656   4.656   2.128   6.807  1.6209  0.4751  0.4848
10202SOL    HW237657   4.625   2.102   6.661  0.8426 -0.9548  0.8848
10203SOL     OW37658   4.329  10.877   4.936 -0.2484  0.1433 -0.5878
10203SOL    HW137659   4.327  10.972   4.943 -1.2724  0.0617  0.7946
10203SOL    HW237660   4.417  10.852   4.963 -0.7794  0.5800  1.7682
10204SOL     OW37661   2.369   1.564   2.407  0.1056 -0.6474  0.2426
10204SOL    HW137662   2.456   1.586   2.373 -0.7927  0.5521 -1.4151
10204SOL    HW237663   2.372   1.469   2.420  1.8306 -0.5627  0.8083
10205SOL     OW37664   9.138   5.883   9.662 -0.5307  0.0944 -0.0018
10205SOL    HW137665   9.200   5.811   9.675  0.4003  1.2222  2.3557
10205SOL    HW237666   9.093   5.892   9.746 -2.3774  0.7416 -0.9924
10206SOL     OW37667   3.382   3.808   3.195  0.4655 -0.0607 -0.6457
10206SOL    HW137668   3.467   3.765   3.185  1.0926  1.2970 -1.4256
10206SOL    HW237669   3.352   3.825   3.105 -0.9034 -0.9896 -0.4009
10207SOL     OW37670   1.074   1.781   8.530  0.2483 -0.0483  0.5982
10207SOL    HW137671   1.120   1.753   8.451 -0.3871 -0.4019  0.3472
10207SOL    HW237672   1.143   1.795   8.594  0.5893 -2.6955  0.9076
10208SOL     OW37673   6.112   7.947   2.715 -0.6869 -0.2292  0.2619
10208SOL    HW137674   6.109   7.856   2.685 -1.1423 -0.5582  1.2711
10208SOL    HW237675   6.020   7.975   2.717 -0.4868  0.7255 -1.3546
10209SOL     OW37676   9.784   1.022   2.248 -0.6275 -0.1274  0.3506
10209SOL    HW137677   9.855   0.969   2.286 -0.0180 -0.7262 -1.5123
10209SOL    HW237678   9.721   1.032   2.319  0.9975 -0.1417  1.8829
10210SOL     OW37679   1.722   6.321   6.710 -0.8325  0.0539  0.0014
10210SOL    HW137680   1.630   6.346   6.720 -1.0604 -1.1139  1.0742
10210SOL    HW237681   1.761   6.392   6.658 -2.2402  0.7607 -0.1285
10211SOL     OW37682   4.919   1.599   2.417 -0.3038 -0.2520 -0.4781
10211SOL    HW137683   4.836   1.627   2.454 -0.0535  0.1885 -0.2453
10211SOL    HW237684   4.931   1.510   2.451 -1.4830 -0.9724 -1.8566
10212SOL     OW37685   0.105   6.825   2.842  0.1539  0.2660  0.5208
10212SOL    HW137686   0.117   6.916   2.866 -1.0734  0.2599  1.2480
10212SOL    HW237687   0.193   6.787   2.844  0.9007  1.7609 -1.2839
10213SOL     OW37688   8.130   9.828   5.004  0.8117 -0.9814 -0.5970
10213SOL    HW137689   8.183   9.885   5.060 -1.0393 -0.2279  0.4635
10213SOL    HW237690   8.040   9.842   5.033 -0.0681 -1.7677 -2.7277
10214SOL     OW37691   8.448  12.493  12.077 -0.2538 -0.1322  0.0300
10214SOL    HW137692   8.524  12.435  12.086  0.6954  0.7770 -1.5732
10214SOL    HW237693   8.373  12.434  12.068  0.6130 -1.1123 -1.0178
10215SOL     OW37694   2.487   0.369   6.839  0.5555  0.0703  0.2825
10215SOL    HW137695   2.547   0.322   6.898 -0.2187 -0.9491  0.2863
10215SOL    HW237696   2.510   0.338   6.752 -0.1631 -0.5790  0.3121
10216SOL     OW37697   4.560   7.602   5.123  0.2949  0.1153 -0.4530
10216SOL    HW137698   4.514   7.550   5.189 -0.3359 -0.2808 -1.1883
10216SOL    HW237699   4.520   7.689   5.129 -0.6225 -0.2463 -1.1361
10217SOL     OW37700   6.001   1.916   0.371 -0.0390  0.3702 -0.0381
10217SOL    HW137701   5.977   2.000   0.331 -3.0525 -0.2608  0.1841
10217SOL    HW237702   5.932   1.856   0.342  1.7171 -1.9160  0.2741
10218SOL     OW37703   6.858  11.542  11.688  0.3054  0.1721  0.0943
10218SOL    HW137704   6.869  11.525  11.782 -0.8446 -2.1303 -0.1342
10218SOL    HW237705   6.763  11.549  11.676  0.2965 -1.6730 -1.2019
10219SOL     OW37706   4.730   7.497   0.551  0.3477 -0.1467 -0.1308
10219SOL    HW137707   4.738   7.418   0.606 -1.4582 -0.2191  0.0919
10219SOL    HW237708   4.755   7.468   0.464  1.0505 -0.6123  0.2158
10220SOL     OW37709   5.538   8.977  11.073  0.2845 -0.1549 -0.5398
10220SOL    HW137710   5.450   8.942  11.064 -0.8514  2.3237 -0.0123
10220SOL    HW237711   5.545   9.003  11.165  1.6952 -0.6169 -0.4882
10221SOL     OW37712  10.758  10.719   2.001 -0.6532  0.1087  0.1715
10221SOL    HW137713  10.763  10.789   2.067 -1.3506 -0.4752  0.8621
10221SOL    HW237714  10.714  10.761   1.926 -0.9557  0.4505  0.5316
10222SOL     OW37715   9.918  11.773   7.771  0.4730 -0.4796 -0.3180
10222SOL    HW137716   9.897  11.826   7.695 -1.3235  0.6235  0.8757
10222SOL    HW237717   9.925  11.836   7.843  2.2809 -1.4690  0.4404
10223SOL     OW37718   1.231   4.296   6.782 -0.1035 -0.0091 -0.4252
10223SOL    HW137719   1.277   4.306   6.866 -2.0507  0.3993  0.6417
10223SOL    HW237720   1.295   4.253   6.725  1.4209  0.0972  1.1272
10224SOL     OW37721   9.833   7.819  10.378  0.0651  0.0534  0.1475
10224SOL    HW137722   9.890   7.866  10.439  2.2099 -1.9646 -0.1812
10224SOL    HW237723   9.838   7.869  10.297  1.1987  0.0489  0.1952
10225SOL     OW37724   9.469   0.666   2.994 -0.1049 -0.1060  0.4763
10225SOL    HW137725   9.394   0.709   2.954 -0.4265  0.6433  1.8112
10225SOL    HW237726   9.545   0.716   2.963 -0.2057 -0.4707 -0.3696
10226SOL     OW37727   8.298   7.978   4.602  0.6342 -0.2792 -0.5622
10226SOL    HW137728   8.218   7.998   4.553  1.2374  1.7667 -0.8112
10226SOL    HW237729   8.368   7.989   4.538  1.2805  0.4253  0.2521
10227SOL     OW37730  11.196   9.702   2.641 -0.4035 -0.3198  0.3004
10227SOL    HW137731  11.147   9.635   2.594 -0.4512 -0.3080  0.3332
10227SOL    HW237732  11.136   9.733   2.709 -0.6492  0.2728 -0.1726
10228SOL     OW37733   2.823   8.114   5.341 -0.4960 -0.0075 -0.6562
10228SOL    HW137734   2.746   8.141   5.391 -0.8289  0.1229 -1.2355
10228SOL    HW237735   2.791   8.101   5.252  0.8351  3.7806 -1.8858
10229SOL     OW37736   9.726   3.753   7.108 -0.1498  0.6059 -0.8043
10229SOL    HW137737   9.690   3.681   7.159  0.4766 -0.6684 -2.0923
10229SOL    HW237738   9.814   3.724   7.084  0.3000  2.0040 -0.9522
10230SOL     OW37739   6.111   1.214  10.222 -0.3703  0.2690 -0.2184
10230SOL    HW137740   6.171   1.140  10.211 -2.3750 -1.2629 -2.1932
10230SOL    HW237741   6.126   1.246  10.310  1.7581 -1.4489  0.1117
10231SOL     OW37742   3.990   2.947  11.018  0.1215  0.0457  0.0332
10231SOL    HW137743   4.057   2.953  11.087  0.7153  0.2352 -0.5583
10231SOL    HW237744   4.031   2.896  10.949 -0.7250 -0.7449  0.0981
10232SOL     OW37745  12.100   7.435   8.308  0.0242  0.1513 -0.5917
10232SOL    HW137746  12.065   7.450   8.220 -1.2296  2.4700  0.2141
10232SOL    HW237747  12.125   7.522   8.339  0.4754 -0.6177  1.3327
10233SOL     OW37748   1.118   4.715   9.340  0.3286  0.8304  0.2864
10233SOL    HW137749   1.192   4.656   9.330  0.0733  0.3268  1.2424
10233SOL    HW237750   1.090   4.704   9.431 -0.2048  1.8598  0.2677
10234SOL     OW37751  10.701   9.578   1.126  0.0172  0.4271 -0.6442
10234SOL    HW137752  10.741   9.578   1.039 -0.7788  0.2914 -1.0180
10234SOL    HW237753  10.703   9.486   1.153  2.1664  0.7063  0.4019
10235SOL     OW37754   5.912   3.164   2.156 -0.5990 -0.5974  0.6326
10235SOL    HW137755   5.988   3.107   2.167 -0.6564 -0.9394 -0.5930
10235SOL    HW237756   5.930   3.213   2.076 -0.7991  0.7519  1.3642
10236SOL     OW37757   1.185   2.515   9.989 -0.0525  0.2591 -0.3567
10236SOL    HW137758   1.109   2.465  10.016  0.0019 -0.5157 -1.5667
10236SOL    HW237759   1.219   2.553  10.070 -1.3273  0.0737  0.2835
10237SOL     OW37760   0.400  11.150   1.468  0.3754 -0.0239 -0.3915
10237SOL    HW137761   0.444  11.067   1.486  0.8001  0.2250 -0.2738
10237SOL    HW237762   0.446  11.214   1.522 -0.7915  0.0716  0.5288
10238SOL     OW37763  10.404   5.392   8.760 -0.2972 -0.2550 -0.1144
10238SOL    HW137764  10.387   5.451   8.686  0.2357  1.1896  0.8747
10238SOL    HW237765  10.455   5.321   8.722  0.3744  0.7005 -1.0709
10239SOL     OW37766  12.114   0.640   2.149  0.8701  0.5093 -0.1377
10239SOL    HW137767  12.027   0.626   2.113  1.7293 -0.0047 -2.1642
10239SOL    HW237768  12.149   0.552   2.163  1.0634  0.7093  0.7013
10240SOL     OW37769   6.793   9.738  10.218  0.1750 -0.3715  0.1902
10240SOL    HW137770   6.850   9.672  10.180 -1.0022 -1.6366  0.5424
10240SOL    HW237771   6.816   9.738  10.311  0.7987  0.3748  0.0399
10241SOL     OW37772   8.210   2.073   0.912 -0.5969 -0.1421 -0.5815
10241SOL    HW137773   8.129   2.029   0.938  0.1163 -0.1690  1.8306
10241SOL    HW237774   8.186   2.166   0.905 -1.3313 -0.4195 -2.3122
10242SOL     OW37775   9.686   5.396  10.343 -0.1424 -0.0234 -0.0439
10242SOL    HW137776   9.604   5.354  10.316 -0.8052  1.1136  0.1268
10242SOL    HW237777   9.739   5.399  10.264 -0.7015  0.2032 -0.4109
10243SOL     OW37778   8.508  11.820   0.481  0.1061  0.0703  1.0847
10243SOL    HW137779   8.449  11.888   0.451  1.6378  0.6552 -0.8095
10243SOL    HW237780   8.584  11.867   0.516  0.4722 -0.6467  1.2910
10244SOL     OW37781   2.046   7.825   7.951  0.3237 -0.2613  0.1438
10244SOL    HW137782   2.129   7.850   7.992  0.0620  0.2190  0.3848
10244SOL    HW237783   2.068   7.750   7.896  0.7482 -0.7154  0.9151
10245SOL     OW37784   3.955  10.788  10.025  0.8510  0.3946  0.7493
10245SOL    HW137785   4.042  10.748  10.026  0.1979 -1.1653 -0.2330
10245SOL    HW237786   3.939  10.807   9.932 -0.4692 -0.8928  0.6677
10246SOL     OW37787   8.792   9.076   4.479  0.2443  0.4344 -0.4238
10246SOL    HW137788   8.742   9.152   4.508  2.6546  1.3829  1.6258
10246SOL    HW237789   8.770   9.007   4.542 -0.0384  0.1980 -0.7766
10247SOL     OW37790   9.911   1.849   4.373 -0.1891 -0.1553 -0.2582
10247SOL    HW137791   9.886   1.895   4.453  0.1558  0.1255 -0.3107
10247SOL    HW237792   9.838   1.862   4.313  0.2324  0.9853 -0.5459
10248SOL     OW37793   8.349   8.475   7.933  0.0684  0.0652 -0.3011
10248SOL    HW137794   8.381   8.425   8.008 -0.2319 -0.5870 -0.5973
10248SOL    HW237795   8.427   8.498   7.884  0.2746  0.5612  0.2458
10249SOL     OW37796   6.131   2.553   8.594  0.0452 -0.0382  0.6188
10249SOL    HW137797   6.072   2.618   8.556  1.3104 -0.6083 -2.6477
10249SOL    HW237798   6.086   2.523   8.673 -2.4447  1.8735  0.0477
10250SOL     OW37799   2.425   6.408  11.981 -0.0397  0.4659 -0.0837
10250SOL    HW137800   2.359   6.452  12.036  1.9632  3.7741 -0.0383
10250SOL    HW237801   2.381   6.395  11.897 -2.5968 -3.0858  1.5241
10251SOL     OW37802  11.229   6.271   6.462  0.4659 -0.0749  0.2740
10251SOL    HW137803  11.206   6.179   6.476  2.4605 -0.3909  1.9828
10251SOL    HW237804  11.195   6.316   6.539  0.7282  0.3615  0.1360
10252SOL     OW37805   1.634   7.270   6.131 -0.1731 -0.1543  0.0226
10252SOL    HW137806   1.647   7.195   6.072  2.6072  0.3495 -0.1453
10252SOL    HW237807   1.607   7.231   6.214  0.3387 -1.2852 -0.3209
10253SOL     OW37808   0.713   1.253   1.034  0.2264  0.2232 -0.6254
10253SOL    HW137809   0.760   1.173   1.011 -0.6263 -0.1918 -0.9890
10253SOL    HW237810   0.748   1.278   1.119 -0.9900 -1.7639  0.5479
10254SOL     OW37811   6.076   4.780   3.061  0.1418  0.6463  0.1152
10254SOL    HW137812   6.166   4.775   3.030  0.7208  1.4604  1.5662
10254SOL    HW237813   6.043   4.690   3.053  1.0786  0.3389 -0.4196
10255SOL     OW37814   9.423   1.832  10.142  0.0915 -0.4111  0.0175
10255SOL    HW137815   9.463   1.887  10.209 -1.4584 -1.2713  1.7438
10255SOL    HW237816   9.491   1.823  10.075  1.2516  1.5400  0.8320
10256SOL     OW37817   3.130   9.881   8.314  0.1521 -0.5849  0.1237
10256SOL    HW137818   3.136   9.947   8.383 -0.7282 -1.3010  0.9261
10256SOL    HW237819   3.201   9.901   8.254  0.7292  0.2657  1.0687
10257SOL     OW37820   0.632   2.240   7.325  0.3232  1.1957  0.2843
10257SOL    HW137821   0.598   2.309   7.268 -0.2446  0.4334 -0.3415
10257SOL    HW237822   0.631   2.277   7.413 -0.0912  1.9356 -0.0252
10258SOL     OW37823   9.842   9.305   0.512 -0.2072 -0.2317 -0.1907
10258SOL    HW137824   9.758   9.297   0.558 -0.4037 -0.0854 -0.5146
10258SOL    HW237825   9.907   9.271   0.574 -0.5971 -1.0578 -0.2151
10259SOL     OW37826   6.947  10.633   4.202  0.3801 -0.5963  0.3489
10259SOL    HW137827   6.906  10.547   4.197 -0.2581 -0.2148 -2.0622
10259SOL    HW237828   6.873  10.694   4.211  0.5039 -0.0689 -1.7692
10260SOL     OW37829   1.088  11.332   3.389 -0.5743  0.2599  0.3957
10260SOL    HW137830   1.171  11.377   3.377 -0.1488 -0.8248 -0.9793
10260SOL    HW237831   1.026  11.379   3.333 -0.2753 -0.4384 -0.5497
10261SOL     OW37832   4.172   3.365   2.384 -0.0976  0.1164  0.0343
10261SOL    HW137833   4.225   3.407   2.451 -1.1103  2.0487 -0.3101
10261SOL    HW237834   4.202   3.274   2.384 -0.4482 -0.1230  3.4727
10262SOL     OW37835   8.703   8.035   3.172 -0.3428  0.2802  0.3938
10262SOL    HW137836   8.739   8.117   3.138 -1.0721 -0.0967 -1.3869
10262SOL    HW237837   8.677   8.056   3.261  1.6514  1.3241  0.7964
10263SOL     OW37838  11.498   8.764   6.086 -0.0484  1.0320 -0.1901
10263SOL    HW137839  11.457   8.705   6.022 -0.1454  2.1578 -1.1941
10263SOL    HW237840  11.581   8.788   6.046 -0.1600  1.8342  0.0518
10264SOL     OW37841   4.881   0.908   6.079  0.4023 -0.0885 -0.4617
10264SOL    HW137842   4.812   0.921   6.014  0.1657  1.3387  0.0297
10264SOL    HW237843   4.955   0.959   6.046  0.3826  0.3909  0.1997
10265SOL     OW37844   5.987   8.358   3.739  0.0491  0.3416 -1.0092
10265SOL    HW137845   5.936   8.288   3.779  0.4332 -0.8820 -2.5696
10265SOL    HW237846   6.070   8.360   3.787 -0.1713  0.0945 -0.6208
10266SOL     OW37847   5.311   9.653   4.771  0.3278  0.0541 -0.3306
10266SOL    HW137848   5.299   9.662   4.865  0.0599  0.6027 -0.4140
10266SOL    HW237849   5.376   9.584   4.761  1.1271  0.6970  0.2955
10267SOL     OW37850   3.868   1.192   1.775 -0.0011  0.2600  0.0980
10267SOL    HW137851   3.883   1.262   1.712  0.8716  0.6309  0.6897
10267SOL    HW237852   3.910   1.115   1.737  1.0915  0.6397  0.5092
10268SOL     OW37853   2.405   9.840   5.878  0.0344 -0.5804  0.5415
10268SOL    HW137854   2.461   9.817   5.804 -0.1045 -1.8830  0.8143
10268SOL    HW237855   2.414   9.935   5.887  1.2513 -0.6127 -0.1690
10269SOL     OW37856   1.841   2.742   4.283  0.5700 -0.1912 -0.7317
10269SOL    HW137857   1.753   2.779   4.272  0.0027 -0.9080  0.9907
10269SOL    HW237858   1.860   2.753   4.376  1.3188 -2.1047 -0.6057
10270SOL     OW37859   6.176   5.155   5.516 -0.4980 -0.1145  0.0855
10270SOL    HW137860   6.133   5.143   5.600  1.7331  3.7399  2.0628
10270SOL    HW237861   6.115   5.208   5.465 -0.5079  0.4162  0.6356
10271SOL     OW37862  11.666   6.219   9.896 -0.3478  0.0380  0.5220
10271SOL    HW137863  11.676   6.199   9.989 -1.6267 -1.0137  0.4684
10271SOL    HW237864  11.583   6.178   9.872 -1.0717  2.0480 -0.6148
10272SOL     OW37865  12.585   2.784   5.285 -0.0500 -0.1495  0.6491
10272SOL    HW137866  12.614   2.874   5.300  0.1377  0.3482 -2.1506
10272SOL    HW237867  12.659   2.741   5.242 -1.6927 -0.1885 -2.4080
10273SOL     OW37868  11.133   0.664   6.819  0.0396 -0.5096 -0.1590
10273SOL    HW137869  11.118   0.707   6.735 -0.1676 -0.9232 -0.3335
10273SOL    HW237870  11.228   0.656   6.826  0.2028  1.4539  0.6161
10274SOL     OW37871   5.643   9.238   2.956  0.4121  0.3196 -0.0553
10274SOL    HW137872   5.595   9.260   2.876  0.6292 -0.5558 -0.4338
10274SOL    HW237873   5.735   9.243   2.931  0.6559  3.1382  0.9549
10275SOL     OW37874   5.484   9.473   1.994 -0.3913 -0.4384 -0.4714
10275SOL    HW137875   5.552   9.534   2.024 -0.7901  0.1155 -0.6823
10275SOL    HW237876   5.532   9.391   1.976  0.1723 -0.1450 -0.3338
10276SOL     OW37877   2.354   4.155   4.549 -0.4006 -0.3394  0.0447
10276SOL    HW137878   2.424   4.102   4.510 -1.0102 -2.4177  1.6073
10276SOL    HW237879   2.376   4.162   4.642 -0.9068  1.3000  0.0855
10277SOL     OW37880   4.724   9.439   7.469 -0.1634  0.2852  0.1318
10277SOL    HW137881   4.706   9.498   7.396  1.5100  0.0200 -0.5417
10277SOL    HW237882   4.734   9.496   7.545  1.8111  0.9776 -0.5731
10278SOL     OW37883   8.162   9.005   8.742  0.0396  1.4223 -0.2926
10278SOL    HW137884   8.217   9.084   8.739 -0.3580  1.8447  2.0435
10278SOL    HW237885   8.222   8.934   8.719  1.1536  2.0824  0.4506
10279SOL     OW37886   2.094   2.002   3.935  0.3270 -0.3329  0.4547
10279SOL    HW137887   2.139   2.080   3.903  0.8997 -0.6465  0.4919
10279SOL    HW237888   2.008   2.005   3.891  0.8723 -0.4425 -0.6565
10280SOL     OW37889   6.046   5.960   2.755  0.2198 -0.3489  0.2192
10280SOL    HW137890   6.129   5.968   2.801  1.0482 -1.6049 -0.9822
10280SOL    HW237891   6.016   6.050   2.743  0.6386  0.0505  1.9894
10281SOL     OW37892   0.445   6.632   4.377  0.0642  0.0253  0.2997
10281SOL    HW137893   0.514   6.623   4.312 -0.3181  0.0992 -0.1271
10281SOL    HW237894   0.466   6.568   4.445 -0.2979 -1.0798 -0.5996
10282SOL     OW37895   2.058   3.931   3.205  0.3686 -0.0126 -0.1111
10282SOL    HW137896   2.040   3.919   3.112 -0.4410  0.5311 -0.0343
10282SOL    HW237897   2.129   3.869   3.224 -0.1663 -0.8722 -0.8502
10283SOL     OW37898   9.802   3.258   3.575 -0.2610 -0.0860 -0.2661
10283SOL    HW137899   9.795   3.243   3.670 -1.4554 -2.2998 -0.6207
10283SOL    HW237900   9.896   3.253   3.557 -0.0511 -0.1116  0.7475
10284SOL     OW37901  12.510  12.555   2.207  0.2806  0.3800  0.0800
10284SOL    HW137902  12.582  12.598   2.254 -0.2872  1.6986 -0.2130
10284SOL    HW237903  12.522  12.583   2.116  0.2717 -0.6293 -0.2362
10285SOL     OW37904   4.731   9.163   3.548  0.2659 -0.0664  0.1713
10285SOL    HW137905   4.815   9.166   3.501  1.4739 -3.7245  1.7270
10285SOL    HW237906   4.756   9.166   3.640 -1.4914  0.1448  0.6712
10286SOL     OW37907  12.360   8.330   3.453  0.4483 -0.0183  0.2930
10286SOL    HW137908  12.275   8.371   3.438 -0.6017 -1.5025  1.7511
10286SOL    HW237909  12.351   8.242   3.416  0.9043 -0.5951  1.4977
10287SOL     OW37910   5.662  10.507   7.848 -0.1506  0.1640  0.1959
10287SOL    HW137911   5.601  10.576   7.876 -1.0324 -0.6505  0.3491
10287SOL    HW237912   5.618  10.426   7.872  1.1387 -0.4544  0.5671
10288SOL     OW37913   7.448   1.176   0.277 -0.1021 -0.1329  0.3078
10288SOL    HW137914   7.397   1.131   0.344 -1.1605 -1.0083 -1.0407
10288SOL    HW237915   7.388   1.186   0.203  1.3465 -0.2273 -0.9341
10289SOL     OW37916   5.468   6.998   0.286 -0.7920  0.6298  0.3359
10289SOL    HW137917   5.422   7.081   0.275 -1.4704  0.1799 -0.2952
10289SOL    HW237918   5.433   6.942   0.217  1.4603  0.6056 -0.8882
10290SOL     OW37919   5.696   0.568   5.378 -0.2654  0.3438  0.1898
10290SOL    HW137920   5.686   0.504   5.308 -2.9165 -1.5064  2.0167
10290SOL    HW237921   5.742   0.641   5.338 -2.1171 -0.3255 -3.6426
10291SOL     OW37922   3.955   1.562   0.809 -0.4063 -0.0098 -0.0229
10291SOL    HW137923   3.891   1.492   0.795  0.7552 -1.0588 -0.2924
10291SOL    HW237924   3.904   1.635   0.844 -1.8938 -0.4964 -1.0601
10292SOL     OW37925  12.530   0.608   1.159 -0.1101  0.3379  0.1913
10292SOL    HW137926  12.590   0.650   1.220 -1.5392  2.0776  0.4899
10292SOL    HW237927  12.443   0.628   1.193 -0.8911 -1.1373 -0.8443
10293SOL     OW37928   2.789   8.423   2.070 -0.7719  0.6269  0.6525
10293SOL    HW137929   2.806   8.422   2.164 -0.0074  0.5153  0.5157
10293SOL    HW237930   2.763   8.334   2.049  0.9953  0.1202  0.4258
10294SOL     OW37931  11.514   9.548  10.455 -0.3672  0.2636 -0.2701
10294SOL    HW137932  11.506   9.622  10.394 -0.4743 -0.5985 -1.3401
10294SOL    HW237933  11.435   9.496  10.440 -0.1000 -0.2802  0.1629
10295SOL     OW37934   4.572   9.653   4.579  0.7838  0.0711  0.2593
10295SOL    HW137935   4.572   9.711   4.502  0.3350  0.5687  0.6300
10295SOL    HW237936   4.535   9.571   4.547  2.1919 -0.3102 -0.4773
10296SOL     OW37937   4.110   9.338   8.332 -0.3587  0.4839  0.3794
10296SOL    HW137938   4.052   9.352   8.407 -0.6455 -0.8069  0.4208
10296SOL    HW237939   4.198   9.348   8.368 -0.5003  0.0738  0.8469
10297SOL     OW37940   4.900   8.161   4.604 -0.0067  1.1200 -0.0540
10297SOL    HW137941   4.838   8.116   4.661  1.5337  0.6560  1.3148
10297SOL    HW237942   4.879   8.254   4.613  1.6522  1.3060  3.1939
10298SOL     OW37943   2.442   0.130   4.024  0.8521 -0.3098 -0.0729
10298SOL    HW137944   2.535   0.117   4.041  1.3864 -0.7491 -2.8607
10298SOL    HW237945   2.439   0.202   3.960 -0.4461 -2.0729 -2.1436
10299SOL     OW37946   2.364   1.486   9.472  0.2245  0.0800  0.0761
10299SOL    HW137947   2.301   1.532   9.527 -0.7187 -0.9998 -0.0441
10299SOL    HW237948   2.325   1.490   9.384  0.9717  0.5039 -0.2393
10300SOL     OW37949   9.888   5.775  12.434  0.0027 -0.1917  0.3327
10300SOL    HW137950   9.931   5.692  12.412  1.1812  0.7121 -0.9330
10300SOL    HW237951   9.825   5.752  12.502 -0.9133 -2.4225 -1.1668
10301SOL     OW37952   3.645   4.729   0.326 -0.3427 -0.4515 -0.3200
10301SOL    HW137953   3.614   4.727   0.417  0.2603  0.6941 -0.0610
10301SOL    HW237954   3.682   4.817   0.316 -1.7944  0.0233 -2.1409
10302SOL     OW37955   3.678   8.725   4.986  0.3823  0.3854 -0.3631
10302SOL    HW137956   3.756   8.697   4.939  0.4815  0.8360 -0.4719
10302SOL    HW237957   3.697   8.707   5.078 -0.1389 -1.2748 -0.5517
10303SOL     OW37958   7.569  11.025   7.423 -0.1957  0.0731  0.4085
10303SOL    HW137959   7.627  10.967   7.473  0.0814  1.0185  1.2057
10303SOL    HW237960   7.614  11.109   7.421 -0.9925  0.5035  0.0125
10304SOL     OW37961   3.312   1.191  10.646  0.1631  0.2435  0.1228
10304SOL    HW137962   3.307   1.173  10.552  1.3143 -0.7217  0.2183
10304SOL    HW237963   3.276   1.113  10.688 -0.3520  0.6708  0.5004
10305SOL     OW37964   3.109   1.013   4.001 -0.0122  0.5413  0.1084
10305SOL    HW137965   3.108   1.068   4.079 -1.0814  1.6022 -0.6195
10305SOL    HW237966   3.112   0.923   4.035 -1.7940  0.9222  1.4297
10306SOL     OW37967   2.410   1.325   0.993  0.6808 -0.1210 -0.4205
10306SOL    HW137968   2.411   1.284   0.907  1.8349  0.0623 -0.5107
10306SOL    HW237969   2.502   1.328   1.019  0.4672  0.9506  0.2781
10307SOL     OW37970   3.644   2.424   2.298 -0.4392  0.2975  0.2542
10307SOL    HW137971   3.571   2.483   2.279  1.5691  2.8530  0.0057
10307SOL    HW237972   3.651   2.423   2.394 -0.2477  0.7870  0.2469
10308SOL     OW37973  10.605  11.177   3.868 -0.2658  0.6674  0.2184
10308SOL    HW137974  10.587  11.098   3.920  0.8344  0.1951 -0.0955
10308SOL    HW237975  10.589  11.249   3.929 -1.8276  0.2578  0.3528
10309SOL     OW37976   7.280   2.609   9.814 -0.1870  0.1794 -0.1699
10309SOL    HW137977   7.258   2.617   9.907 -1.3402 -1.0461 -0.3146
10309SOL    HW237978   7.277   2.515   9.796 -0.0792  0.4023 -1.4733
10310SOL     OW37979   6.576   4.920   8.074 -0.8091 -0.1383 -0.0256
10310SOL    HW137980   6.544   4.981   8.140 -1.0328 -1.3060  0.9810
10310SOL    HW237981   6.645   4.968   8.028  0.4102  0.1913  2.0606
10311SOL     OW37982  10.387   0.633   8.562 -0.1809 -0.2794  0.1688
10311SOL    HW137983  10.399   0.696   8.633 -0.3350 -0.8672  0.7312
10311SOL    HW237984  10.346   0.557   8.604  1.6524 -1.4879 -0.0933
10312SOL     OW37985  10.993  12.329   3.186 -0.2912  0.5009 -0.6822
10312SOL    HW137986  11.026  12.418   3.174 -1.9039  1.5194  1.7467
10312SOL    HW237987  11.029  12.300   3.270 -2.7547  0.4100  0.4533
10313SOL     OW37988   5.141   9.114   6.332  0.0707  0.3211 -0.1418
10313SOL    HW137989   5.185   9.055   6.393 -1.3937 -0.5208  0.1480
10313SOL    HW237990   5.210   9.173   6.302  1.7101 -1.7459 -0.7334
10314SOL     OW37991  11.689   3.846  11.396  0.9066  0.2815  0.2589
10314SOL    HW137992  11.595   3.832  11.388  1.0523 -0.1887 -0.8083
10314SOL    HW237993  11.717   3.784  11.464  0.7443 -1.0248 -0.8334
10315SOL     OW37994  11.690   6.029   1.389 -1.0696 -0.0555  0.2270
10315SOL    HW137995  11.717   5.975   1.315  0.2010 -1.0808  1.3800
10315SOL    HW237996  11.704   6.119   1.360 -0.1408 -0.4555 -0.6218
10316SOL     OW37997   4.295   9.360   7.629  0.4035  0.1346 -0.0708
10316SOL    HW137998   4.310   9.452   7.610  1.2885 -0.2169 -1.1613
10316SOL    HW237999   4.218   9.359   7.686 -0.4683  1.4385 -1.2005
10317SOL     OW38000   7.761   9.641   1.126 -0.2754  0.9898  0.9859
10317SOL    HW138001   7.737   9.730   1.100  0.7850  0.9546 -0.1737
10317SOL    HW238002   7.773   9.594   1.043  2.9352  0.7852  1.4495
10318SOL     OW38003  11.116   3.246   2.082 -0.3978 -0.2576 -0.2248
10318SOL    HW138004  11.139   3.336   2.060  1.4348 -1.3225 -3.2656
10318SOL    HW238005  11.197   3.206   2.112 -1.1409 -0.9767  0.8999
10319SOL     OW38006  10.677  10.271  12.051  0.5847 -0.0844  0.0546
10319SOL    HW138007  10.607  10.285  12.114  2.4002  2.2826  1.7739
10319SOL    HW238008  10.641  10.302  11.968 -0.5485  0.7001  0.8078
10320SOL     OW38009   3.054   8.624   4.661  0.0790  0.0319 -0.1715
10320SOL    HW138010   3.039   8.624   4.566  0.4453 -0.0022 -0.2313
10320SOL    HW238011   3.147   8.643   4.670  0.3635 -1.3915  0.1345
10321SOL     OW38012   1.096   5.661   3.475 -0.1148 -0.5766 -0.7600
10321SOL    HW138013   1.096   5.619   3.560 -0.0267 -0.0383 -0.4892
10321SOL    HW238014   1.006   5.650   3.443 -0.4715  0.2500 -0.0729
10322SOL     OW38015   4.127   9.548   3.543  0.1418  0.2078  0.1757
10322SOL    HW138016   4.178   9.539   3.462  0.6478 -0.7049  0.5831
10322SOL    HW238017   4.193   9.552   3.612 -0.2927  0.9395  0.5562
10323SOL     OW38018   5.243   3.964   2.726  0.1240  0.3654  1.2016
10323SOL    HW138019   5.222   3.871   2.722 -0.9072  0.6076  0.3339
10323SOL    HW238020   5.272   3.979   2.816  0.2864 -0.7827  1.3523
10324SOL     OW38021   3.193   4.024   3.798 -0.1670  0.4449 -0.0105
10324SOL    HW138022   3.194   3.942   3.847 -2.2766 -0.1169 -0.8035
10324SOL    HW238023   3.197   3.997   3.706 -0.9020  1.2019 -0.2842
10325SOL     OW38024   0.364   3.760  10.217 -0.3406  0.5073  0.1524
10325SOL    HW138025   0.297   3.808  10.170 -1.7230 -0.7980  0.6968
10325SOL    HW238026   0.324   3.675  10.237  0.3971  0.7180  3.0533
10326SOL     OW38027   8.508   0.601   9.701  0.0703  0.1499 -0.1297
10326SOL    HW138028   8.600   0.605   9.675  0.0038 -1.7385 -0.8455
10326SOL    HW238029   8.463   0.563   9.625 -0.6027 -2.7791  1.5509
10327SOL     OW38030   8.347   5.834   0.571  0.3342  0.8440  0.4711
10327SOL    HW138031   8.435   5.827   0.608  0.3116  0.3393  0.4351
10327SOL    HW238032   8.300   5.758   0.607  0.4156  0.1441 -0.8618
10328SOL     OW38033   8.138   2.747   8.075 -0.0762 -0.3168 -0.1681
10328SOL    HW138034   8.061   2.743   8.132  1.5069  0.7348  2.2067
10328SOL    HW238035   8.198   2.807   8.120  2.1308 -1.0593 -1.9368
10329SOL     OW38036   1.503  11.053   0.649  0.3190 -1.0910 -0.6341
10329SOL    HW138037   1.485  11.129   0.705 -2.6846 -0.4216 -2.2986
10329SOL    HW238038   1.516  11.090   0.562  2.7853 -2.2820 -0.8499
10330SOL     OW38039   7.592   7.861   5.148 -0.1781 -0.5595  0.4148
10330SOL    HW138040   7.500   7.833   5.153 -1.2496  2.6261  1.5568
10330SOL    HW238041   7.600   7.900   5.061 -0.1805 -0.0855  0.6237
10331SOL     OW38042  11.743   3.369   8.645  0.6651  0.1661  0.3098
10331SOL    HW138043  11.768   3.340   8.557  1.0506 -0.1958  0.5387
10331SOL    HW238044  11.663   3.320   8.664  0.9191 -0.2146  0.4060
10332SOL     OW38045   7.899   5.169   6.605 -0.0437  0.4146 -0.2921
10332SOL    HW138046   7.825   5.163   6.664 -0.7758  0.6204 -1.1638
10332SOL    HW238047   7.875   5.113   6.530  2.4749 -3.0240  1.2039
10333SOL     OW38048   3.004   8.365   4.158  0.3759 -0.0466 -0.5979
10333SOL    HW138049   3.064   8.355   4.232  0.7719 -3.6045 -1.2015
10333SOL    HW238050   3.057   8.404   4.089  1.2504 -0.6400 -0.2756
10334SOL     OW38051   6.648   1.792  12.004 -0.6268 -0.4270 -0.1225
10334SOL    HW138052   6.664   1.702  12.033 -1.0166 -0.0592  1.3053
10334SOL    HW238053   6.729   1.839  12.027 -1.4569  0.1772  1.7943
10335SOL     OW38054   9.781   5.215   4.698  0.1327 -0.7596  0.0945
10335SOL    HW138055   9.777   5.137   4.642  1.1728 -1.3435  0.8028
10335SOL    HW238056   9.853   5.267   4.664 -0.4116 -0.2090 -0.2334
10336SOL     OW38057   5.331   1.711   6.310 -0.0084  0.1623 -0.3090
10336SOL    HW138058   5.369   1.625   6.288 -0.0789  0.0094  0.1538
10336SOL    HW238059   5.320   1.754   6.225  0.1528 -0.2345 -0.5382
10337SOL     OW38060   9.669   1.788   5.784 -0.0241  0.3125 -0.2859
10337SOL    HW138061   9.696   1.878   5.770  1.8481  0.1745  1.8404
10337SOL    HW238062   9.606   1.792   5.857  0.8345 -0.1534  0.5034
10338SOL     OW38063   9.739   3.551   8.864  0.7924 -0.1379 -0.0225
10338SOL    HW138064   9.755   3.482   8.799  3.3830 -0.8893  1.2514
10338SOL    HW238065   9.826   3.575   8.895 -0.2535  1.3672  1.9796
10339SOL     OW38066   9.227   2.069  12.092  0.3624  0.1438  0.1450
10339SOL    HW138067   9.194   2.019  12.166 -0.1256 -2.3459 -1.6420
10339SOL    HW238068   9.218   2.011  12.017  3.5497  1.4199 -1.4423
10340SOL     OW38069   0.040   3.922   7.681 -0.5127  0.0555 -0.4541
10340SOL    HW138070  -0.036   3.917   7.623 -0.6423 -0.5952 -0.2455
10340SOL    HW238071   0.116   3.915   7.622 -0.5862  1.3479 -0.7253
10341SOL     OW38072   5.730  12.539   9.462 -0.6900 -0.1232 -0.2015
10341SOL    HW138073   5.744  12.479   9.389  0.7287 -0.8583  0.6283
10341SOL    HW238074   5.702  12.621   9.421 -2.2044 -1.1813 -1.3888
10342SOL     OW38075   0.739  11.007   5.174  0.1318  0.1389  0.8118
10342SOL    HW138076   0.737  11.100   5.151 -1.8967  0.2723  1.3319
10342SOL    HW238077   0.738  11.007   5.270 -2.4335 -0.3576  0.8457
10343SOL     OW38078   0.543   8.691   2.600  0.2918 -0.1887  0.0493
10343SOL    HW138079   0.476   8.627   2.575 -0.4725  0.4465  0.4129
10343SOL    HW238080   0.512   8.773   2.561  1.2507 -0.0314 -0.4004
10344SOL     OW38081   0.527   3.880   5.825  0.0113  0.4869 -0.2005
10344SOL    HW138082   0.555   3.870   5.916 -1.4152 -1.0803  0.0988
10344SOL    HW238083   0.462   3.950   5.828  3.4946  4.1172 -0.8934
10345SOL     OW38084  10.446   2.040  10.148  0.5592  0.3363 -0.0351
10345SOL    HW138085  10.443   2.013  10.057  0.1781  0.6270 -0.1140
10345SOL    HW238086  10.367   2.094  10.159  0.0927 -0.4746  0.7114
10346SOL     OW38087   9.761   9.269   8.418  0.1888  0.0575 -0.0100
10346SOL    HW138088   9.820   9.237   8.486  0.3267  1.1368  0.3904
10346SOL    HW238089   9.817   9.282   8.342  0.5168  1.2105  0.4091
10347SOL     OW38090   8.658   8.446   1.013  0.0364  0.1163 -0.0177
10347SOL    HW138091   8.679   8.352   1.009  1.2545  0.1817  2.5444
10347SOL    HW238092   8.569   8.452   0.980  0.4446 -1.7132 -1.6645
10348SOL     OW38093   3.922   7.721  10.710 -0.1991 -0.2795 -0.0280
10348SOL    HW138094   3.918   7.668  10.790  0.0364  0.7048  0.6568
10348SOL    HW238095   3.958   7.662  10.644 -3.8794 -2.3491 -0.4858
10349SOL     OW38096  12.100   8.158  10.676  0.4900 -0.0625 -0.0882
10349SOL    HW138097  12.118   8.071  10.711 -2.8367 -0.1007  1.9651
10349SOL    HW238098  12.088   8.144  10.582  0.4975 -1.7362  0.1334
10350SOL     OW38099  10.306   1.076   5.937  0.2645 -0.0880 -0.3596
10350SOL    HW138100  10.223   1.030   5.929  1.4274 -2.0703 -1.8797
10350SOL    HW238101  10.354   1.027   6.003  0.6987  0.2865 -0.3942
10351SOL     OW38102   3.230   0.939   2.411 -0.5795 -0.0090 -0.3597
10351SOL    HW138103   3.301   0.875   2.409 -0.8676 -0.3110 -2.1025
10351SOL    HW238104   3.224   0.965   2.503  1.0145 -0.8273  0.0081
10352SOL     OW38105   0.378  10.063   5.575 -0.3441  0.2540 -0.2359
10352SOL    HW138106   0.454  10.013   5.548 -0.0346  0.0773  0.9311
10352SOL    HW238107   0.320  10.061   5.498 -0.3737 -1.9317 -0.2285
10353SOL     OW38108   5.666   1.384   9.744 -0.2634 -0.6504  0.2716
10353SOL    HW138109   5.738   1.385   9.680  3.2174 -1.7439  3.7458
10353SOL    HW238110   5.678   1.465   9.794 -0.6465 -1.4653  1.7150
10354SOL     OW38111   5.700   3.858   7.107  0.7929  0.1093 -0.1588
10354SOL    HW138112   5.632   3.800   7.073 -1.3864  1.0551  2.2244
10354SOL    HW238113   5.757   3.800   7.157  0.2994 -0.3802 -0.1508
10355SOL     OW38114   7.659  11.527   5.547  0.3400 -0.3982  0.0838
10355SOL    HW138115   7.626  11.616   5.540 -0.2928 -0.5848  0.5911
10355SOL    HW238116   7.652  11.491   5.458 -1.5074 -0.6632  0.3053
10356SOL     OW38117   0.005   2.815   3.783 -0.2606 -0.6694  0.3392
10356SOL    HW138118   0.034   2.726   3.804 -0.2856 -0.5001  1.1265
10356SOL    HW238119   0.083   2.869   3.794 -0.2629 -0.5789 -0.0709
10357SOL     OW38120   2.426   1.246   0.739  0.3677 -0.1869 -0.2171
10357SOL    HW138121   2.458   1.171   0.690  1.5981 -0.9655  1.6563
10357SOL    HW238122   2.435   1.320   0.679 -0.8073 -1.4811 -2.0813
10358SOL     OW38123  11.716   7.127   2.590  0.6586 -0.0292  0.6013
10358SOL    HW138124  11.749   7.210   2.624  1.8999  0.4592 -1.6510
10358SOL    HW238125  11.789   7.066   2.598  0.7290 -0.0997 -0.4256
10359SOL     OW38126   6.445   3.311  12.149  0.0708  0.2303 -0.3386
10359SOL    HW138127   6.466   3.391  12.197  0.7754 -0.6976  0.9628
10359SOL    HW238128   6.512   3.306  12.081  1.1049 -0.1179  0.6675
10360SOL     OW38129   8.989  10.312  12.242  0.5561  0.1849 -0.2515
10360SOL    HW138130   9.040  10.299  12.322  1.1949  0.8442 -0.5332
10360SOL    HW238131   8.974  10.407  12.239 -0.3232  0.0455 -0.4019
10361SOL     OW38132  12.231   8.106  12.495 -0.2096  0.1833  0.0048
10361SOL    HW138133  12.232   8.011  12.482  1.0674 -0.3413  3.0303
10361SOL    HW238134  12.144   8.124  12.532 -0.5978  0.2928 -0.9334
10362SOL     OW38135   5.584   8.023   8.903  0.6320 -0.6811 -0.3230
10362SOL    HW138136   5.560   8.113   8.879  1.4846 -0.9790 -2.5533
10362SOL    HW238137   5.672   8.031   8.938  0.6721 -0.6255 -0.4333
10363SOL     OW38138  11.926  11.844   8.389 -0.7731 -0.6096 -0.1795
10363SOL    HW138139  12.003  11.840   8.332 -1.9030 -0.9378 -1.7481
10363SOL    HW238140  11.854  11.865   8.330 -1.7639  0.6648  1.4013
10364SOL     OW38141  11.254   9.671   0.173 -0.1250  0.0989 -0.4243
10364SOL    HW138142  11.197   9.737   0.213  0.9391  0.3555  0.7330
10364SOL    HW238143  11.272   9.609   0.244  0.8016 -0.1136 -0.8294
10365SOL     OW38144   8.709   2.794   2.808  0.2975  0.0968 -0.2377
10365SOL    HW138145   8.752   2.812   2.892 -1.8830 -0.1651  1.0292
10365SOL    HW238146   8.688   2.701   2.811 -0.4330  0.2383 -0.7507
10366SOL     OW38147   0.809   0.146  10.246  0.3088  0.1065 -0.5675
10366SOL    HW138148   0.869   0.220  10.241 -0.6604  0.8695 -1.3676
10366SOL    HW238149   0.723   0.185  10.264 -0.0216 -0.9237  0.1668
10367SOL     OW38150   4.158   2.238   9.201 -0.1426 -0.4326  0.0914
10367SOL    HW138151   4.122   2.151   9.185 -0.7406  0.0711 -1.4918
10367SOL    HW238152   4.093   2.299   9.165  0.6518  0.6354  0.3951
10368SOL     OW38153   3.821   5.760   8.695 -0.8592  0.5331  0.2082
10368SOL    HW138154   3.872   5.839   8.677  0.3466 -0.0171  1.0772
10368SOL    HW238155   3.752   5.788   8.755 -1.4966  1.2420 -0.8145
10369SOL     OW38156  10.977   6.895   4.229 -0.4372  0.9817  0.3445
10369SOL    HW138157  10.890   6.885   4.190 -0.3650  0.1493  0.3627
10369SOL    HW238158  11.038   6.875   4.157 -0.2380  2.2216  0.1530
10370SOL     OW38159   5.375   4.385   6.671 -0.5711  0.3721 -0.4871
10370SOL    HW138160   5.325   4.459   6.704 -1.1637 -0.1019 -0.3165
10370SOL    HW238161   5.397   4.334   6.748  0.7422  0.9037 -0.4771
10371SOL     OW38162   1.444  10.309   8.973  0.4921 -0.2007 -0.4125
10371SOL    HW138163   1.414  10.219   8.958 -0.0587 -0.2673  0.9151
10371SOL    HW238164   1.505  10.301   9.047  0.1455  0.5509 -0.0334
10372SOL     OW38165   8.469   3.409   2.219  0.9155  0.3601 -0.1935
10372SOL    HW138166   8.469   3.317   2.195  2.8460  0.4360 -0.6525
10372SOL    HW238167   8.556   3.440   2.194  0.6762  2.0514  0.9227
10373SOL     OW38168   4.709   3.164   4.706 -0.0700 -0.0770 -0.0889
10373SOL    HW138169   4.779   3.138   4.647  0.4881  0.4822  0.3073
10373SOL    HW238170   4.713   3.260   4.708 -1.0266 -0.0179 -0.2694
10374SOL     OW38171   6.039  12.149   5.052  1.0321 -0.2557 -0.1208
10374SOL    HW138172   6.053  12.055   5.049  1.2271 -0.3717  2.3325
10374SOL    HW238173   6.092  12.179   5.125 -0.0144  1.5721 -0.0388
10375SOL     OW38174   7.035   4.700   0.850  0.0492  0.0200  0.3377
10375SOL    HW138175   7.027   4.787   0.889  1.5767 -0.4466  1.7867
10375SOL    HW238176   7.078   4.716   0.765  1.8665  0.5909  1.3019
10376SOL     OW38177   8.753   7.130   9.300  0.1820 -0.0349  0.4549
10376SOL    HW138178   8.760   7.035   9.306  1.9733  0.0514  0.1523
10376SOL    HW238179   8.748   7.159   9.391  0.3002 -0.3668  0.5683
10377SOL     OW38180   4.987  12.263  11.575  0.0282 -0.2611 -0.0765
10377SOL    HW138181   4.937  12.186  11.548  0.6175 -0.1888 -1.4404
10377SOL    HW238182   4.921  12.324  11.609 -1.1062  0.4029 -3.1410
10378SOL     OW38183   7.200   6.068  11.888  0.4407  0.1396  0.5691
10378SOL    HW138184   7.141   6.128  11.934 -0.4128  0.4759 -0.9027
10378SOL    HW238185   7.287   6.109  11.896 -0.3157  2.4630 -1.6801
10379SOL     OW38186  10.769   5.997  11.765 -0.0583 -0.4020  0.0234
10379SOL    HW138187  10.723   6.019  11.846 -0.0105  0.3283 -0.1328
10379SOL    HW238188  10.723   5.921  11.730 -1.5929  0.6959 -0.4739
10380SOL     OW38189   0.100  11.964   6.583  0.4547 -0.3209  0.0065
10380SOL    HW138190   0.061  11.877   6.572 -0.2159 -0.0317  0.0388
10380SOL    HW238191   0.194  11.951   6.570  0.1624 -0.7197 -1.9044
10381SOL     OW38192   8.265   1.043  11.192  0.0949 -0.4015 -0.2342
10381SOL    HW138193   8.279   1.063  11.099  0.2829 -0.6248 -0.2551
10381SOL    HW238194   8.172   1.059  11.206  0.1026 -0.1743 -0.4135
10382SOL     OW38195   1.636   4.260   1.905 -0.2647 -0.2559  0.1484
10382SOL    HW138196   1.723   4.261   1.943 -0.6392 -2.2321  1.1971
10382SOL    HW238197   1.635   4.334   1.844  1.7678  0.4249  0.8712
10383SOL     OW38198  10.836   1.843   7.337 -0.0702 -0.0606 -0.2041
10383SOL    HW138199  10.892   1.919   7.345 -0.6427  0.3605 -0.1436
10383SOL    HW238200  10.831   1.807   7.426  0.1158 -0.1111 -0.2138
10384SOL     OW38201   9.280   4.311  11.811  0.1277 -0.6231 -0.8210
10384SOL    HW138202   9.209   4.369  11.840  0.2652 -0.0098 -1.6751
10384SOL    HW238203   9.235   4.235  11.774 -0.0559 -1.4545  0.9565
10385SOL     OW38204   1.936  10.065   1.198  0.0564 -0.1055  0.2843
10385SOL    HW138205   1.965  10.034   1.284 -2.3517  0.2038  1.3017
10385SOL    HW238206   1.841  10.059   1.202 -0.1508  0.6913 -2.0958
10386SOL     OW38207   4.689   1.718   4.957 -0.0273  0.2770  0.7576
10386SOL    HW138208   4.650   1.728   4.870  2.9083  1.7118 -0.5164
10386SOL    HW238209   4.624   1.668   5.006 -1.6171 -1.0159 -2.3714
10387SOL     OW38210   1.623  11.696  10.468  0.0494  0.1532  0.0991
10387SOL    HW138211   1.555  11.638  10.432 -0.2051  1.1916 -1.1740
10387SOL    HW238212   1.694  11.693  10.404  0.1258  1.0573  0.1280
10388SOL     OW38213   4.439  12.569   5.665 -0.3841 -0.2269  0.2997
10388SOL    HW138214   4.362  12.603   5.711  0.5725  1.5429  0.6795
10388SOL    HW238215   4.453  12.632   5.594  0.8899 -0.3505  0.4261
10389SOL     OW38216   2.778   9.555   4.469 -0.2222 -0.7166  0.5043
10389SOL    HW138217   2.833   9.515   4.536  1.1660  1.3367  0.6874
10389SOL    HW238218   2.806   9.513   4.387 -0.9014 -2.1897  0.9979
10390SOL     OW38219   5.936   7.609   4.941 -0.1068  0.8012 -0.8543
10390SOL    HW138220   6.028   7.588   4.926  0.0465  0.2121  0.7116
10390SOL    HW238221   5.918   7.576   5.029 -1.0243  3.4700  0.0555
10391SOL     OW38222   5.620   7.135   7.044 -0.0828 -0.4536 -0.2677
10391SOL    HW138223   5.565   7.104   7.116 -0.9504 -0.4386 -0.9137
10391SOL    HW238224   5.632   7.228   7.062  1.0146 -0.7588  0.6912
10392SOL     OW38225   2.627  11.277   3.243  1.0329  0.4644 -0.3210
10392SOL    HW138226   2.548  11.224   3.255  1.1900  0.1995 -0.4618
10392SOL    HW238227   2.698  11.214   3.242  0.9297  0.1761 -4.5548
10393SOL     OW38228   1.164  11.382   4.773 -0.4014  0.5240  0.1538
10393SOL    HW138229   1.110  11.457   4.749  1.2894  1.4314 -0.9763
10393SOL    HW238230   1.245  11.419   4.807  0.9025 -0.7211 -1.4001
10394SOL     OW38231  10.380   8.424   2.174  0.1867  0.0096 -0.0276
10394SOL    HW138232  10.404   8.508   2.211 -1.4764  0.2719  0.5360
10394SOL    HW238233  10.436   8.361   2.219 -0.0253  0.5990  1.0890
10395SOL     OW38234  12.456   1.741   2.274  0.2406  0.2307  0.3561
10395SOL    HW138235  12.406   1.666   2.306 -0.8566  1.6507  2.1505
10395SOL    HW238236  12.400   1.782   2.209  1.0274 -0.6901 -0.9590
10396SOL     OW38237  11.684   2.200   4.718  0.3238  0.1538 -0.0451
10396SOL    HW138238  11.724   2.282   4.747 -0.2564  1.1180 -1.8290
10396SOL    HW238239  11.750   2.134   4.735  1.0656  1.0883  0.8306
10397SOL     OW38240   1.086   4.687  11.884  0.0919 -0.3701 -0.0587
10397SOL    HW138241   1.080   4.697  11.979 -1.6035 -2.9512  0.1939
10397SOL    HW238242   1.140   4.609  11.872 -0.0220 -0.2792 -1.2228
10398SOL     OW38243   7.236  10.461   2.430 -0.5301  0.3449 -0.2412
10398SOL    HW138244   7.213  10.384   2.481  1.0042 -0.2413 -0.3866
10398SOL    HW238245   7.285  10.517   2.490  0.6327 -0.0035 -0.8546
10399SOL     OW38246   6.082   4.188  11.946 -0.2185  0.9771  0.2878
10399SOL    HW138247   6.000   4.237  11.956 -0.2153  1.2707 -1.0059
10399SOL    HW238248   6.132   4.237  11.881  0.1362 -0.2998 -0.4444
10400SOL     OW38249   9.710   5.834  11.765 -0.0303  0.3163  0.0463
10400SOL    HW138250   9.777   5.816  11.831 -0.4144 -0.3768  0.2644
10400SOL    HW238251   9.728   5.772  11.695  0.9957  1.7234 -0.9994
10401SOL     OW38252  11.587   5.553   1.482 -0.1268  0.3175 -0.5277
10401SOL    HW138253  11.606   5.641   1.513 -1.9827  0.8241 -0.7220
10401SOL    HW238254  11.620   5.551   1.392  0.0051  0.7831 -0.4902
10402SOL     OW38255  12.425   6.081  12.313 -0.7122 -0.1916  0.4753
10402SOL    HW138256  12.428   6.024  12.390  1.7180 -0.1584  0.4788
10402SOL    HW238257  12.383   6.161  12.344 -2.8717 -1.3591  0.8292
10403SOL     OW38258   2.137   6.655   1.298 -0.3091  0.4485  0.5563
10403SOL    HW138259   2.049   6.621   1.283  0.3914 -1.0676 -0.2944
10403SOL    HW238260   2.174   6.598   1.365  1.0458 -0.8519 -1.2108
10404SOL     OW38261   0.292  12.069   9.835 -0.1201 -0.0051 -0.4817
10404SOL    HW138262   0.258  12.072   9.745 -1.6218 -0.7464  0.0332
10404SOL    HW238263   0.271  11.981   9.866  1.2392 -0.0801  0.2919
10405SOL     OW38264   2.649  12.395   6.818  0.8578 -0.1070  0.1132
10405SOL    HW138265   2.580  12.390   6.752 -0.0540 -3.6056  1.0910
10405SOL    HW238266   2.631  12.477   6.865 -1.8090 -0.2000 -0.5666
10406SOL     OW38267   8.826   0.940   2.232  0.2431  0.5885  0.5906
10406SOL    HW138268   8.731   0.936   2.245 -0.0669 -1.3402 -1.5939
10406SOL    HW238269   8.859   0.860   2.271  0.3722 -0.8075 -2.1368
10407SOL     OW38270   1.108   8.043  11.587  0.2169 -0.1704  0.4671
10407SOL    HW138271   1.124   8.136  11.605  1.2415 -0.2261 -0.1063
10407SOL    HW238272   1.103   8.037  11.492  0.9585 -0.8159  0.4566
10408SOL     OW38273   3.725  11.282   1.188 -0.4998 -0.2497 -0.1714
10408SOL    HW138274   3.715  11.248   1.277  0.6854  2.8542  1.2968
10408SOL    HW238275   3.658  11.350   1.181 -0.9038 -0.7809 -1.8978
10409SOL     OW38276   1.289   5.248   1.860 -0.4958 -0.0353 -0.0641
10409SOL    HW138277   1.275   5.331   1.813  0.1258 -0.4698 -1.0355
10409SOL    HW238278   1.217   5.192   1.831  0.2960 -0.5487 -1.0886
10410SOL     OW38279   9.068   2.587   3.676 -0.1793  0.6822  0.2688
10410SOL    HW138280   9.099   2.604   3.587 -1.3854 -0.1020 -0.3329
10410SOL    HW238281   9.061   2.492   3.681 -0.1132  0.7191  1.2161
10411SOL     OW38282   0.654   5.771   8.465 -0.4354  0.4519 -0.6377
10411SOL    HW138283   0.727   5.781   8.526  1.1739 -1.4843 -2.1296
10411SOL    HW238284   0.580   5.748   8.521  0.6334  0.1774  0.7281
10412SOL     OW38285   7.866  11.980   0.621 -0.3863 -0.7122 -0.1447
10412SOL    HW138286   7.863  12.002   0.714 -3.5896 -2.6414  0.3771
10412SOL    HW238287   7.913  11.897   0.617 -1.4392 -1.3414  0.0135
10413SOL     OW38288   2.501  10.540   6.766  0.2992  0.2689  0.2867
10413SOL    HW138289   2.479  10.500   6.850  1.9823 -0.0138  0.6234
10413SOL    HW238290   2.594  10.558   6.772  0.9818 -1.7841 -2.3299
10414SOL     OW38291   8.506   7.154   0.610  0.0651 -0.0691  0.1246
10414SOL    HW138292   8.527   7.170   0.518 -0.4913  0.5324  0.0944
10414SOL    HW238293   8.449   7.077   0.608 -1.8729  1.3091 -0.2781
10415SOL     OW38294  10.418   7.359   9.733  0.0376 -0.5101  0.4643
10415SOL    HW138295  10.339   7.309   9.716 -0.9458  1.1195  0.0187
10415SOL    HW238296  10.489   7.302   9.705 -1.0592 -1.4251 -0.5761
10416SOL     OW38297   9.613  11.646  12.503 -0.0094 -0.3350 -0.9537
10416SOL    HW138298   9.522  11.622  12.519  0.1761 -0.7951 -0.5610
10416SOL    HW238299   9.640  11.695  12.581  0.0336 -0.0576 -1.1395
10417SOL     OW38300   0.143   8.186   4.239 -0.2383 -0.3800 -0.0725
10417SOL    HW138301   0.136   8.126   4.165  1.8843 -1.4957  0.5687
10417SOL    HW238302   0.116   8.135   4.315 -0.7155  0.2329  0.1845
10418SOL     OW38303   4.908  11.618   4.562  0.0852 -0.6907  0.6579
10418SOL    HW138304   4.840  11.574   4.511 -1.6203  2.2279  0.2067
10418SOL    HW238305   4.869  11.700   4.590  3.3643  1.1268  0.4816
10419SOL     OW38306   7.477  11.244   9.153  0.8566 -0.0794 -0.1273
10419SOL    HW138307   7.434  11.310   9.098 -1.5142 -1.5524 -0.1654
10419SOL    HW238308   7.418  11.231   9.227  0.9221 -2.5462 -0.4086
10420SOL     OW38309   2.606   2.470   6.829  0.3733 -0.1713 -0.2963
10420SOL    HW138310   2.666   2.423   6.887  0.3174  1.5006  1.1944
10420SOL    HW238311   2.519   2.443   6.857  0.1589  3.1351  2.8973
10421SOL     OW38312   3.747   6.420   5.708 -0.3518 -0.4886 -0.2818
10421SOL    HW138313   3.775   6.498   5.756  0.5729  0.1415 -1.7817
10421SOL    HW238314   3.788   6.347   5.754 -0.2815  0.0084  0.4573
10422SOL     OW38315   1.463  11.280   0.777  0.2830 -0.4019  0.5048
10422SOL    HW138316   1.553  11.311   0.788  0.2729 -0.3878  0.5478
10422SOL    HW238317   1.408  11.355   0.798  0.2831  0.2332 -1.6093
10423SOL     OW38318   7.659   0.063   7.149  0.0244  0.0589  0.3903
10423SOL    HW138319   7.696   0.124   7.212  0.5719  1.7669 -1.4802
10423SOL    HW238320   7.732   0.042   7.089 -1.0811  0.6155 -1.2215
10424SOL     OW38321   3.043  11.770   2.033 -0.5549 -0.4062 -0.2623
10424SOL    HW138322   3.011  11.748   2.120  1.2069  1.6904  1.0048
10424SOL    HW238323   3.070  11.686   1.995 -1.6736 -1.3899  1.0147
10425SOL     OW38324  12.103   8.008   8.900 -0.8037 -0.1304 -0.0584
10425SOL    HW138325  12.026   8.065   8.895 -0.9949 -0.1231  2.1038
10425SOL    HW238326  12.167   8.058   8.951  0.3032 -0.5104 -1.0476
10426SOL     OW38327   2.923   0.953   1.274 -0.0274  0.4684 -0.1165
10426SOL    HW138328   2.969   1.037   1.269 -1.4474  1.2831 -0.1185
10426SOL    HW238329   2.857   0.966   1.342 -0.4933 -0.5333 -0.3621
10427SOL     OW38330  10.197   3.341  10.568 -0.1168  0.1662 -0.0147
10427SOL    HW138331  10.167   3.396  10.496  1.5224  0.5639 -0.4465
10427SOL    HW238332  10.253   3.275  10.527  0.5413  0.1678  0.8367
10428SOL     OW38333  11.548   1.891  12.391 -0.0034  0.1671 -0.0579
10428SOL    HW138334  11.463   1.857  12.419  0.4340 -1.0200 -0.0811
10428SOL    HW238335  11.593   1.911  12.473 -0.6627  1.7814 -0.0643
10429SOL     OW38336  10.269   3.730   2.042 -0.2113  0.0440 -0.1710
10429SOL    HW138337  10.308   3.816   2.027  1.2183 -0.4733  0.4289
10429SOL    HW238338  10.176   3.743   2.026  0.0059  1.6550 -0.2832
10430SOL     OW38339   6.949  11.235  12.039 -0.3857  0.3211 -0.8044
10430SOL    HW138340   6.919  11.145  12.022  0.6654 -0.2805  0.3457
10430SOL    HW238341   7.029  11.244  11.988 -0.3661  0.5357 -0.7360
10431SOL     OW38342  11.047  10.262   2.791  0.1477 -0.5281  0.2609
10431SOL    HW138343  10.969  10.216   2.821 -0.0225 -0.4105 -0.0008
10431SOL    HW238344  11.120  10.207   2.821 -0.0645 -1.1818 -0.3927
10432SOL     OW38345   0.960   1.343   6.637  0.5737  0.2189  0.1794
10432SOL    HW138346   0.978   1.420   6.691  0.0376  0.2013  0.3833
10432SOL    HW238347   1.010   1.273   6.679  0.6202  0.3325  0.3133
10433SOL     OW38348   0.874   0.266   7.438 -0.1039  0.5732 -0.5385
10433SOL    HW138349   0.903   0.297   7.524 -0.7974  1.8934 -0.7497
10433SOL    HW238350   0.787   0.227   7.455 -0.2952  0.9461 -0.6567
10434SOL     OW38351   7.437   9.628   1.729  0.1229 -0.0335 -0.2341
10434SOL    HW138352   7.438   9.617   1.634  2.1589  1.8075 -0.5028
10434SOL    HW238353   7.491   9.556   1.762 -0.2085 -0.4091 -0.5068
10435SOL     OW38354   6.092  12.055  11.536 -0.5604 -0.2979 -0.0257
10435SOL    HW138355   6.118  11.968  11.506 -0.0807 -0.1776  0.0371
10435SOL    HW238356   6.034  12.039  11.610 -1.0606 -0.5788 -0.4730
10436SOL     OW38357   8.899  12.398  12.529 -0.3485  0.6033 -0.0792
10436SOL    HW138358   8.950  12.435  12.457  0.1519 -0.0130 -0.0493
10436SOL    HW238359   8.959  12.398  12.604  0.0787 -1.3665 -0.3747
10437SOL     OW38360   8.325   3.505   9.697 -0.7610  0.5582  0.2419
10437SOL    HW138361   8.392   3.500   9.629 -0.1380 -0.9541  0.9202
10437SOL    HW238362   8.242   3.503   9.649 -0.4801  4.3620 -0.7615
10438SOL     OW38363   9.185   8.879   6.321 -0.6414  0.1075 -0.3103
10438SOL    HW138364   9.145   8.846   6.402 -0.4034 -1.4077 -0.7911
10438SOL    HW238365   9.121   8.943   6.288 -0.8230  0.6263  0.9633
10439SOL     OW38366   6.279   9.164   7.276 -0.2559 -0.4184 -0.0345
10439SOL    HW138367   6.360   9.155   7.327 -1.7629 -1.2882  2.3713
10439SOL    HW238368   6.296   9.114   7.196  2.2064  0.9980 -0.4936
10440SOL     OW38369  11.541  11.731  11.355 -0.0279 -0.1122 -0.7282
10440SOL    HW138370  11.578  11.810  11.316  2.7372 -0.8339  0.1891
10440SOL    HW238371  11.570  11.660  11.297 -0.4267 -0.6719 -0.2584
10441SOL     OW38372   3.134  12.544   6.936  0.1411  0.1187 -0.3362
10441SOL    HW138373   3.083  12.620   6.964 -0.8688 -0.3723 -0.7847
10441SOL    HW238374   3.122  12.540   6.841  1.1040  0.0402 -0.4665
10442SOL     OW38375   8.250   1.939   5.605  0.3987 -0.3967  0.2137
10442SOL    HW138376   8.307   1.975   5.537  1.3817 -0.9603  0.7159
10442SOL    HW238377   8.233   2.013   5.663  1.3655 -0.4171  0.5457
10443SOL     OW38378   1.328   6.459   2.649 -0.0718  0.5101 -0.7336
10443SOL    HW138379   1.403   6.492   2.600  0.3405  1.3710  0.4269
10443SOL    HW238380   1.305   6.377   2.606  3.0791 -1.0937  0.3121
10444SOL     OW38381   8.014  10.442  10.965 -0.0081  0.3933 -0.6500
10444SOL    HW138382   8.035  10.520  10.912 -0.1794  1.1383  0.3420
10444SOL    HW238383   7.959  10.476  11.035 -0.7852 -0.7840 -0.6667
10445SOL     OW38384  10.842  10.299  12.328 -0.1039 -0.2764 -0.1181
10445SOL    HW138385  10.800  10.254  12.255 -2.0466  1.1926 -0.0132
10445SOL    HW238386  10.837  10.238  12.402 -1.4722 -0.4032 -0.3023
10446SOL     OW38387   7.359   2.376   7.109 -0.8368  0.1504 -0.6974
10446SOL    HW138388   7.430   2.408   7.164 -0.5272 -0.1027 -0.9522
10446SOL    HW238389   7.338   2.290   7.146 -1.1045  0.2816 -0.5379
10447SOL     OW38390   5.928   2.830   2.604 -0.7125 -0.2812  0.1754
10447SOL    HW138391   5.892   2.910   2.565 -0.3715  0.5099  1.4231
10447SOL    HW238392   6.018   2.825   2.571  0.2874  1.5375  2.4063
10448SOL     OW38393   4.974   0.724   1.809 -0.6407  0.2551 -0.5396
10448SOL    HW138394   5.049   0.783   1.819 -0.3536 -0.3185  0.7939
10448SOL    HW238395   4.926   0.731   1.891  1.1027 -3.6953  1.0404
10449SOL     OW38396   4.312   1.681  10.583  0.6742 -0.1439  0.0276
10449SOL    HW138397   4.365   1.714  10.656  0.0673 -0.4668  0.6258
10449SOL    HW238398   4.360   1.708  10.505  1.1822  0.4749  0.5376
10450SOL     OW38399   4.843   6.029   8.062 -0.1807 -0.1454  0.2446
10450SOL    HW138400   4.805   5.985   7.986 -0.3244 -0.7021  0.6226
10450SOL    HW238401   4.864   6.117   8.032  2.5207 -1.1941 -1.3137
10451SOL     OW38402  10.361   5.065  11.306  0.8049 -0.0942 -0.3780
10451SOL    HW138403  10.418   5.018  11.245 -0.1406 -1.2760 -0.3827
10451SOL    HW238404  10.395   5.042  11.393  0.3150 -0.8724 -0.3776
10452SOL     OW38405  11.899   0.866   0.176 -0.0300 -0.6735 -0.4097
10452SOL    HW138406  11.968   0.916   0.133  1.4446 -0.2255  2.2756
10452SOL    HW238407  11.853   0.930   0.230  0.2144 -1.7358  1.0978
10453SOL     OW38408   2.657   5.311   9.691  0.0826  0.2270 -0.1822
10453SOL    HW138409   2.700   5.388   9.728  1.2477  1.2732 -3.3668
10453SOL    HW238410   2.683   5.311   9.599 -0.9835 -3.2461 -0.6279
10454SOL     OW38411   6.490   9.637   0.376  0.1019 -0.0439  0.3276
10454SOL    HW138412   6.481   9.555   0.425  1.1949 -0.3521  0.0467
10454SOL    HW238413   6.422   9.694   0.412  1.3013  0.0020  2.7171
10455SOL     OW38414   0.355   4.586  12.054 -0.4200  0.7262 -0.0896
10455SOL    HW138415   0.349   4.598  12.149 -1.4267 -1.6704  0.2212
10455SOL    HW238416   0.327   4.670  12.017  0.0375  1.7171  1.7101
10456SOL     OW38417   3.692   2.415   1.672  0.2252 -0.0952  0.4697
10456SOL    HW138418   3.724   2.488   1.725  0.8988 -0.2101  0.2351
10456SOL    HW238419   3.598   2.432   1.661  0.5191  1.1354 -0.2226
10457SOL     OW38420   7.614   5.131   2.878 -0.2857  0.0943 -0.7380
10457SOL    HW138421   7.529   5.158   2.913 -0.1393  2.1992 -1.8178
10457SOL    HW238422   7.663   5.100   2.954 -0.4105  3.2656  0.7918
10458SOL     OW38423  11.935   1.935  10.598 -0.0449 -0.0111  0.1108
10458SOL    HW138424  11.944   1.975  10.511 -0.7355  1.4458  0.6755
10458SOL    HW238425  11.856   1.974  10.634 -1.7868 -3.1874  0.0784
10459SOL     OW38426   4.035   7.962   2.462 -0.0628 -0.0853  0.4054
10459SOL    HW138427   3.994   7.892   2.411  0.8414  1.1589 -2.1940
10459SOL    HW238428   4.069   7.919   2.540 -2.9703 -1.7999  0.8689
10460SOL     OW38429   8.166   6.493   1.675  0.0127 -0.3271 -0.0124
10460SOL    HW138430   8.093   6.496   1.737  0.1899 -1.1846  0.2523
10460SOL    HW238431   8.239   6.533   1.723 -0.0741 -0.1943  0.0106
10461SOL     OW38432   0.777   3.087  10.504  0.1429 -0.1335  0.2396
10461SOL    HW138433   0.742   3.130  10.425 -1.9650 -1.4791  0.3785
10461SOL    HW238434   0.839   3.023  10.470 -0.2993 -0.2849 -0.3153
10462SOL     OW38435   1.193   7.301  11.143  0.0798  0.3291  0.4808
10462SOL    HW138436   1.226   7.370  11.086  1.8983  0.1142  1.2105
10462SOL    HW238437   1.140   7.246  11.085 -0.4127  1.6594 -0.3672
10463SOL     OW38438   3.749   1.630   0.121  0.3009  0.3469 -0.4616
10463SOL    HW138439   3.711   1.637   0.209  0.3477 -0.0918 -0.4038
10463SOL    HW238440   3.794   1.545   0.121  1.2040  0.8116 -0.5649
10464SOL     OW38441   4.827   3.410   2.365  0.4361 -0.3448  0.1030
10464SOL    HW138442   4.792   3.357   2.436 -0.3446 -1.1635 -0.8652
10464SOL    HW238443   4.862   3.346   2.302 -0.5504  0.2631 -1.0985
10465SOL     OW38444   9.605   4.013   1.557 -0.4116  0.1679  0.2119
10465SOL    HW138445   9.584   4.095   1.511  0.2352 -0.0271 -0.4467
10465SOL    HW238446   9.685   4.032   1.605  0.2269 -0.3238 -0.6356
10466SOL     OW38447   4.412   7.867   4.146  0.1418 -0.1754 -0.4582
10466SOL    HW138448   4.343   7.916   4.191  0.5368 -0.7564  0.8464
10466SOL    HW238449   4.366   7.796   4.102 -0.0114 -1.8360  2.1234
10467SOL     OW38450   4.601  10.847   4.481  0.6437 -0.2707 -0.1236
10467SOL    HW138451   4.686  10.872   4.517  0.0826  4.3309 -1.3045
10467SOL    HW238452   4.537  10.878   4.545 -0.2227 -1.8755 -0.1608
10468SOL     OW38453   6.937   3.003   7.284  0.0074 -0.1686  0.0415
10468SOL    HW138454   6.986   3.032   7.206 -0.2062  0.2264  0.0487
10468SOL    HW238455   6.867   2.948   7.249 -0.6719  0.7845 -0.1442
10469SOL     OW38456   6.097   2.945   4.229 -0.3712  0.2796 -0.0016
10469SOL    HW138457   6.143   2.936   4.146 -0.1398 -0.9976  0.2519
10469SOL    HW238458   6.073   3.038   4.233 -0.4639  0.3459 -1.5268
10470SOL     OW38459   5.021   2.305   1.702 -0.4516 -0.2351  0.0010
10470SOL    HW138460   4.960   2.368   1.740 -1.4318 -0.2214 -1.5287
10470SOL    HW238461   4.969   2.225   1.689  0.6688 -1.2727  1.5283
10471SOL     OW38462   4.991  10.816   2.145  0.1205 -0.5940 -0.2014
10471SOL    HW138463   4.942  10.777   2.219  0.3435  0.5062  0.5447
10471SOL    HW238464   5.070  10.763   2.139 -0.0416 -0.8873  0.1444
10472SOL     OW38465   3.426   4.215  10.927  0.5355 -0.0722  0.0996
10472SOL    HW138466   3.443   4.299  10.971 -1.0614  1.4650 -2.0180
10472SOL    HW238467   3.336   4.192  10.953  0.0670  0.1688 -1.2601
10473SOL     OW38468   4.492   1.853  11.193 -0.1195 -0.4750  0.1780
10473SOL    HW138469   4.473   1.769  11.152  1.0516 -1.6222  1.8478
10473SOL    HW238470   4.568   1.886  11.145  1.6107 -2.0852  1.6516
10474SOL     OW38471  10.544   4.467   6.922 -0.4455 -0.1129  0.1271
10474SOL    HW138472  10.606   4.444   6.991  0.3470  0.1077 -0.4941
10474SOL    HW238473  10.478   4.398   6.924  0.7197 -1.2851 -0.2964
10475SOL     OW38474   7.617   1.007   9.268  0.0775 -0.3375  0.2351
10475SOL    HW138475   7.674   0.939   9.232 -1.8758 -1.2614 -1.2751
10475SOL    HW238476   7.593   1.061   9.193  0.0921  0.9312  1.0976
10476SOL     OW38477   5.818  12.437   9.711  0.1654 -0.4053  0.1620
10476SOL    HW138478   5.782  12.482   9.634  0.1903 -0.0290  0.3666
10476SOL    HW238479   5.744  12.387   9.745  0.0447 -0.2574  0.1224
10477SOL     OW38480  10.019  10.890   7.933 -0.1462  0.0778  0.0474
10477SOL    HW138481  10.003  10.837   8.010 -0.1449 -0.0910 -0.0671
10477SOL    HW238482  10.092  10.948   7.957  0.0471 -0.1758  0.0762
10478SOL     OW38483   3.922   8.824   4.723  0.2284 -0.2312  0.4719
10478SOL    HW138484   3.983   8.812   4.650 -0.3615  0.0395 -0.0752
10478SOL    HW238485   3.835   8.826   4.682  0.0114  2.5281  0.8370
10479SOL     OW38486   1.418  11.750   7.712 -0.7614  1.0018  0.1163
10479SOL    HW138487   1.395  11.691   7.641  0.4979  0.4223  0.1624
10479SOL    HW238488   1.484  11.809   7.675 -0.0392  0.6446  0.8074
10480SOL     OW38489   3.374  11.952   9.922  0.1319  0.0667  0.1555
10480SOL    HW138490   3.430  11.883   9.886  0.5847  0.7109 -0.4075
10480SOL    HW238491   3.287  11.912   9.928  0.8524 -1.3737  2.2154
10481SOL     OW38492   7.418   0.244   5.402 -0.6460  0.1001  0.4328
10481SOL    HW138493   7.356   0.234   5.473  0.5597 -0.4368  1.4466
10481SOL    HW238494   7.452   0.333   5.412  0.3013 -0.3289  1.2143
10482SOL     OW38495   8.386   8.132  11.646  0.2771 -0.0604 -0.7079
10482SOL    HW138496   8.474   8.154  11.617  0.4800 -1.6805 -1.4299
10482SOL    HW238497   8.334   8.128  11.565 -0.0847 -0.6796 -0.4546
10483SOL     OW38498   3.244   4.568  11.418  0.3018 -0.3282 -0.1872
10483SOL    HW138499   3.284   4.631  11.479  0.9351  0.1629 -1.0804
10483SOL    HW238500   3.195   4.622  11.356  0.6006 -0.7268 -0.7839
10484SOL     OW38501   1.184   4.058   5.041 -0.2417 -0.0882 -0.3249
10484SOL    HW138502   1.158   3.974   5.079 -1.5947  0.3114 -0.3220
10484SOL    HW238503   1.278   4.050   5.028  0.2782 -0.3156  2.8980
10485SOL     OW38504   2.196   8.708   5.352 -0.7617 -0.0561 -0.2798
10485SOL    HW138505   2.184   8.626   5.305  2.6850 -1.6558  1.2613
10485SOL    HW238506   2.143   8.699   5.431 -0.4012 -0.8334 -0.1216
10486SOL     OW38507  10.758   4.459  10.343  0.2410  0.4344 -0.7992
10486SOL    HW138508  10.831   4.406  10.311  0.7789  0.5970  0.1354
10486SOL    HW238509  10.689   4.395  10.364  0.2254  0.2567 -1.3746
10487SOL     OW38510   9.127   6.071  12.127 -0.0103 -0.1698 -0.2954
10487SOL    HW138511   9.165   6.134  12.066 -1.3923 -0.0055 -1.0415
10487SOL    HW238512   9.042   6.110  12.151  0.6580 -0.0204  2.0985
10488SOL     OW38513   7.376   5.483  11.857 -0.0749 -0.5320 -0.3753
10488SOL    HW138514   7.284   5.488  11.830  0.0076 -0.5463 -0.6667
10488SOL    HW238515   7.394   5.568  11.897 -1.2368 -1.7278  3.0630
10489SOL     OW38516  10.085   6.608   9.532  0.8850 -0.6428  0.0543
10489SOL    HW138517  10.165   6.601   9.584  0.1625 -0.6081  1.2084
10489SOL    HW238518  10.046   6.521   9.537  0.1637 -0.2998  0.6660
10490SOL     OW38519   4.115   0.058  10.516 -0.7262  0.2943 -0.1088
10490SOL    HW138520   4.144   0.112  10.443  2.3829 -1.9057 -0.6979
10490SOL    HW238521   4.080  -0.021  10.475 -0.5185 -0.2683  0.7584
10491SOL     OW38522   2.473   6.743   5.464 -0.1969 -0.3764 -0.0624
10491SOL    HW138523   2.409   6.758   5.534  1.8792 -0.9246  2.0777
10491SOL    HW238524   2.425   6.692   5.399 -1.9939 -0.5709  1.3261
10492SOL     OW38525   0.965  10.557  11.492  0.5177  0.6239  0.1514
10492SOL    HW138526   0.933  10.482  11.442  0.8972 -0.6883  1.8137
10492SOL    HW238527   0.930  10.544  11.580  0.1452  2.7038  0.3671
10493SOL     OW38528   2.730   8.639   2.436 -0.2017 -0.2160  0.1273
10493SOL    HW138529   2.812   8.590   2.436 -0.3404 -0.4546 -0.1681
10493SOL    HW238530   2.734   8.694   2.357 -1.5651 -2.3805 -1.5842
10494SOL     OW38531   1.395  10.638   4.348 -0.4087 -0.5928  0.0381
10494SOL    HW138532   1.424  10.606   4.434 -0.0706  3.2518  1.5903
10494SOL    HW238533   1.475  10.671   4.307 -0.9443 -0.0558 -0.5964
10495SOL     OW38534  12.071   6.158   0.664 -0.1387 -0.1824 -0.1638
10495SOL    HW138535  12.022   6.139   0.744 -0.0449 -2.8385 -0.6350
10495SOL    HW238536  12.135   6.087   0.658  0.6484  0.6155 -1.9904
10496SOL     OW38537   6.493  12.279   4.012 -0.0783 -0.2247  0.0349
10496SOL    HW138538   6.580  12.255   4.043  0.0028 -0.3618 -0.2948
10496SOL    HW238539   6.434  12.222   4.062 -0.1336  1.1682  1.6478
10497SOL     OW38540   7.603   9.277   7.596  0.1924  0.5332  0.6600
10497SOL    HW138541   7.667   9.346   7.613  1.5928 -0.9150  1.5316
10497SOL    HW238542   7.520   9.313   7.627  1.0040  1.5929  1.6605
10498SOL     OW38543   8.028   9.277   2.037  0.1236 -0.6119  0.1228
10498SOL    HW138544   8.038   9.183   2.053  1.9116 -0.2781  1.2441
10498SOL    HW238545   7.944   9.299   2.078  0.6505 -1.3722  1.7112
10499SOL     OW38546   2.672   2.854   1.455 -0.3954  0.6147 -0.5713
10499SOL    HW138547   2.726   2.917   1.503 -0.3807 -0.5473  1.0082
10499SOL    HW238548   2.685   2.876   1.362 -0.2061  2.7537 -0.0861
10500SOL     OW38549  11.625   6.402   2.611  0.1387  0.3955 -0.3431
10500SOL    HW138550  11.616   6.319   2.563 -0.1506  0.4110 -0.3195
10500SOL    HW238551  11.719   6.413   2.623  0.1715 -0.0269 -0.1831
10501SOL     OW38552   1.595  12.312   1.602  0.1273 -0.5182 -0.4173
10501SOL    HW138553   1.631  12.341   1.686 -1.2528 -0.6714  0.2581
10501SOL    HW238554   1.516  12.365   1.590 -0.2964 -1.2741 -1.0632
10502SOL     OW38555   1.639   9.625   8.284  0.3072  0.2638  0.4180
10502SOL    HW138556   1.726   9.597   8.314  1.3581  1.5007 -1.3185
10502SOL    HW238557   1.592   9.543   8.270  1.0670 -0.4234  1.6712
10503SOL     OW38558  12.356   3.043   0.522 -0.2756 -0.0276 -0.0050
10503SOL    HW138559  12.401   3.116   0.481 -0.5687  0.0950 -0.1152
10503SOL    HW238560  12.278   3.029   0.467 -0.5833  0.0303  0.4092
10504SOL     OW38561   2.339   1.499   7.516 -0.0056  0.1905  0.2281
10504SOL    HW138562   2.369   1.439   7.448 -2.0213 -0.3364 -0.2336
10504SOL    HW238563   2.249   1.474   7.534  0.0114  1.2409  2.1043
10505SOL     OW38564   9.747   1.200   7.825 -0.0215  0.4493  0.0161
10505SOL    HW138565   9.690   1.237   7.757 -1.1928 -0.3253  0.5303
10505SOL    HW238566   9.695   1.129   7.863  1.5911 -0.8086 -0.0036
10506SOL     OW38567  12.008   9.156   7.430 -0.2337  0.3576 -0.2497
10506SOL    HW138568  12.010   9.192   7.519 -0.5677  0.0593 -0.1183
10506SOL    HW238569  12.096   9.169   7.397  1.4524 -3.9287  1.8831
10507SOL     OW38570  11.997   5.058   1.653  0.1845 -0.3240  0.0013
10507SOL    HW138571  11.960   5.053   1.565 -1.0427  2.8144  0.2129
10507SOL    HW238572  11.935   5.009   1.708 -1.1809  0.9421 -0.3581
10508SOL     OW38573   2.213   0.739   8.410 -0.1564 -0.1907  0.2685
10508SOL    HW138574   2.136   0.690   8.440  0.0079  0.2424  1.4402
10508SOL    HW238575   2.178   0.815   8.365 -0.4443  0.2968  1.2804
10509SOL     OW38576   6.674  12.540   4.830  0.2266 -0.0769 -0.2415
10509SOL    HW138577   6.716  12.570   4.911 -0.1629  0.5447 -0.2672
10509SOL    HW238578   6.598  12.491   4.859 -0.5705  1.1126 -0.2270
10510SOL     OW38579   7.600  10.620   0.398 -0.5557  0.2654 -0.2825
10510SOL    HW138580   7.623  10.708   0.429 -1.1011 -0.2861  1.8054
10510SOL    HW238581   7.548  10.636   0.319 -0.0892  1.7859 -0.3174
10511SOL     OW38582  10.827   2.022   6.157 -0.1094  0.0736  0.2495
10511SOL    HW138583  10.814   2.002   6.250  0.3462  0.7223  0.4669
10511SOL    HW238584  10.792   1.947   6.111 -4.0466  1.3631  0.7571
10512SOL     OW38585   7.993   4.408   7.284 -0.7374  0.0694 -0.0805
10512SOL    HW138586   8.004   4.476   7.218  1.3488 -0.6953 -0.6029
10512SOL    HW238587   8.001   4.326   7.236 -0.5179 -0.5208  0.9238
10513SOL     OW38588  12.562   9.878   0.903  0.2308 -0.7792  0.2322
10513SOL    HW138589  12.636   9.938   0.910 -0.0799 -0.0738 -2.0280
10513SOL    HW238590  12.570   9.839   0.816 -1.5329 -1.3877  0.3058
10514SOL     OW38591   4.888   5.432   1.171 -0.0422  0.2206 -0.1755
10514SOL    HW138592   4.918   5.440   1.262  0.4853  0.3644 -0.3568
10514SOL    HW238593   4.805   5.386   1.177 -0.0413  0.2848  0.3880
10515SOL     OW38594  11.591  11.488   6.330  0.0017 -0.1667  0.0999
10515SOL    HW138595  11.561  11.579   6.326 -1.1167 -0.4894  0.7026
10515SOL    HW238596  11.609  11.473   6.423 -1.9007 -1.1730  0.3558
10516SOL     OW38597  12.148   3.120   8.191 -0.2655 -0.3802 -0.4521
10516SOL    HW138598  12.144   3.031   8.226 -0.1740 -1.7982 -3.7177
10516SOL    HW238599  12.218   3.162   8.240 -2.1031 -1.0973  3.0827
10517SOL     OW38600   8.545   6.829   3.949  0.5713 -0.0613  0.1608
10517SOL    HW138601   8.515   6.850   4.038  0.0408  0.3524 -0.1084
10517SOL    HW238602   8.605   6.900   3.926 -0.2899  0.5444 -0.2908
10518SOL     OW38603   3.737   0.600   3.769  0.4587 -0.5358  0.1823
10518SOL    HW138604   3.774   0.519   3.734  0.6656  0.1890 -1.3701
10518SOL    HW238605   3.691   0.639   3.695 -0.3181  0.3878  1.1141
10519SOL     OW38606   7.005  11.330   2.320  0.1228  0.0506 -0.3479
10519SOL    HW138607   7.091  11.331   2.278  0.5052 -1.3993  0.3404
10519SOL    HW238608   6.978  11.239   2.317 -1.5426  0.5268 -0.8028
10520SOL     OW38609   2.153  10.788   9.430 -0.2767  0.1249 -0.5253
10520SOL    HW138610   2.062  10.764   9.447 -0.4761  1.5628  0.6554
10520SOL    HW238611   2.188  10.715   9.378 -1.8808 -0.8009 -0.3741
10521SOL     OW38612   1.023   0.298   4.021  0.2726 -0.1656 -0.2713
10521SOL    HW138613   1.053   0.255   4.101 -1.3642 -0.6367  0.1405
10521SOL    HW238614   1.055   0.388   4.027  1.0428 -0.4806  0.4054
10522SOL     OW38615   3.641   8.338   9.586 -0.3721 -0.1507  0.1349
10522SOL    HW138616   3.597   8.263   9.625 -2.2429  0.8529  0.0664
10522SOL    HW238617   3.570   8.399   9.564  1.0609  1.5553  0.0162
10523SOL     OW38618   3.817  11.903   2.609 -0.0047 -0.2783  0.1972
10523SOL    HW138619   3.800  11.867   2.522  1.0546 -0.2645 -0.0294
10523SOL    HW238620   3.894  11.856   2.639  1.5063  1.8315 -0.1442
10524SOL     OW38621   1.789   0.159   9.256 -0.9132  0.0842  0.2313
10524SOL    HW138622   1.827   0.243   9.230  0.1593 -0.1849  0.8908
10524SOL    HW238623   1.729   0.137   9.184  0.6127  0.2365 -1.1555
10525SOL     OW38624  10.413   6.561   3.777 -0.3088 -0.5882 -0.1928
10525SOL    HW138625  10.425   6.468   3.794  0.7069 -0.1540  1.8066
10525SOL    HW238626  10.365   6.593   3.854 -0.1213  0.6484 -0.5626
10526SOL     OW38627   0.757   9.871   5.646  0.9225  0.0663  0.4181
10526SOL    HW138628   0.821   9.939   5.628 -0.5240  0.8274 -2.4105
10526SOL    HW238629   0.800   9.789   5.620  1.0446  0.4745 -0.6853
10527SOL     OW38630   0.448   5.155   2.438  0.2565 -0.4644 -0.2974
10527SOL    HW138631   0.531   5.168   2.391 -1.1267 -2.6488 -3.7931
10527SOL    HW238632   0.474   5.126   2.525  3.0713  2.2933 -0.0308
10528SOL     OW38633   0.222   7.085   6.689 -0.0955 -0.0667 -0.7499
10528SOL    HW138634   0.261   7.134   6.617  0.2964  2.1084  0.8426
10528SOL    HW238635   0.281   7.010   6.701 -0.0679 -0.3769 -2.4995
10529SOL     OW38636   6.209   8.450  10.074 -0.4190 -0.1521 -0.3584
10529SOL    HW138637   6.242   8.365  10.105  1.4532  0.2223 -1.1744
10529SOL    HW238638   6.120   8.432  10.045 -0.8277 -1.3496  1.4954
10530SOL     OW38639   6.015   1.660   6.813  0.0146 -0.2283 -0.1372
10530SOL    HW138640   6.032   1.708   6.732 -0.4858 -1.5026 -1.0411
10530SOL    HW238641   6.102   1.635   6.845  0.2408  0.6709 -0.0198
10531SOL     OW38642  11.553   4.540   4.028  0.5574  0.0784 -0.0274
10531SOL    HW138643  11.573   4.502   4.113 -0.8204 -2.1097 -0.5863
10531SOL    HW238644  11.535   4.464   3.972 -0.1828  1.5183 -1.8266
10532SOL     OW38645   3.173  12.029  10.552 -0.1137  0.1507  0.2468
10532SOL    HW138646   3.244  12.010  10.613  1.5255 -2.6152 -2.2545
10532SOL    HW238647   3.192  12.117  10.519  0.2455  0.7543  1.9786
10533SOL     OW38648   7.541   3.379  11.037 -0.3484 -0.1683  0.0493
10533SOL    HW138649   7.530   3.323  10.960  0.5268 -0.3698  0.0606
10533SOL    HW238650   7.595   3.328  11.097 -1.9242 -0.4687  1.2828
10534SOL     OW38651   7.861   7.625   9.726 -0.4477 -0.2060 -0.0802
10534SOL    HW138652   7.858   7.707   9.776  1.0036  0.6484 -1.3169
10534SOL    HW238653   7.771   7.612   9.696 -1.0439  0.0415  1.4998
10535SOL     OW38654   4.205   8.004   1.999  0.2454 -0.6073 -0.4584
10535SOL    HW138655   4.165   8.063   2.063 -0.7563 -0.8407 -0.8397
10535SOL    HW238656   4.247   7.936   2.052  0.3279 -0.2279 -0.0366
10536SOL     OW38657  10.357   5.482   1.807 -0.4512  0.3927 -0.1566
10536SOL    HW138658  10.392   5.571   1.804 -0.3653  0.4985  2.0952
10536SOL    HW238659  10.332   5.469   1.899  2.3203 -2.9597  0.3167
10537SOL     OW38660   0.763   9.357   5.707 -0.4753  0.1784  0.2794
10537SOL    HW138661   0.717   9.297   5.648  1.0176 -0.0213 -0.7434
10537SOL    HW238662   0.699   9.378   5.774 -1.8656 -0.5293 -0.7627
10538SOL     OW38663  11.815   8.529   5.948  0.0900  0.1593  0.0125
10538SOL    HW138664  11.839   8.456   6.005  0.1389 -0.5302 -0.8682
10538SOL    HW238665  11.802   8.603   6.008 -2.8036 -1.2223  1.2906
10539SOL     OW38666   5.140   0.429   8.507 -0.0148  0.2990  0.5329
10539SOL    HW138667   5.221   0.379   8.511 -0.5517 -0.4887  2.2510
10539SOL    HW238668   5.165   0.518   8.531  0.2442 -0.0971  1.8084
10540SOL     OW38669   2.941   5.797   2.763  0.5447  0.4802  0.1608
10540SOL    HW138670   2.926   5.789   2.858 -0.1004  0.1823  0.0427
10540SOL    HW238671   2.853   5.803   2.726  0.7801  0.1911 -0.4559
10541SOL     OW38672   8.389  12.348   6.340  0.0853 -0.1813  0.4179
10541SOL    HW138673   8.471  12.368   6.384  0.2815 -0.4635  0.1894
10541SOL    HW238674   8.405  12.263   6.297 -1.4949 -2.1755  3.3935
10542SOL     OW38675   2.724   7.270   5.317  0.2557  0.1128 -0.6697
10542SOL    HW138676   2.742   7.243   5.407 -0.3566 -1.8559 -1.0852
10542SOL    HW238677   2.696   7.361   5.324 -0.3940 -0.1944  1.2092
10543SOL     OW38678  10.340   5.348   5.943 -0.0578  0.0845 -0.3108
10543SOL    HW138679  10.405   5.368   5.875 -1.6412 -0.2989 -2.0233
10543SOL    HW238680  10.272   5.297   5.898 -3.1043  3.0023  0.5707
10544SOL     OW38681   3.882   8.823   4.323  0.5803 -0.0547 -0.0639
10544SOL    HW138682   3.920   8.759   4.262  0.1810 -0.1155 -0.2492
10544SOL    HW238683   3.788   8.820   4.306  0.3989 -0.4642  0.9390
10545SOL     OW38684   5.125   8.393   9.192 -0.0293  0.3893  0.5213
10545SOL    HW138685   5.050   8.361   9.242 -0.2517  1.0105  0.5844
10545SOL    HW238686   5.162   8.314   9.152 -1.1006  0.1541 -0.0460
10546SOL     OW38687   1.595  12.130  12.579  0.0427 -0.2079 -0.3033
10546SOL    HW138688   1.601  12.223  12.561 -0.7328  0.1762  1.2633
10546SOL    HW238689   1.502  12.114  12.595  0.0798 -1.3762 -1.1402
10547SOL     OW38690  11.123   9.968   9.336  0.0923 -0.3292  0.0265
10547SOL    HW138691  11.053   9.923   9.383 -0.7539  1.1427  0.2387
10547SOL    HW238692  11.098   9.964   9.244 -0.0385 -0.1886  0.0567
10548SOL     OW38693  10.064   1.455   8.066  0.3378  0.1066 -0.2473
10548SOL    HW138694  10.132   1.452   7.999  0.0505  0.2254 -0.5463
10548SOL    HW238695  10.021   1.540   8.053 -0.9365 -0.6474 -1.1274
10549SOL     OW38696   5.917  11.077   3.034 -0.0457  0.7168  0.0984
10549SOL    HW138697   5.956  11.139   2.972  0.6941  0.2825  0.1132
10549SOL    HW238698   5.992  11.038   3.078 -0.5213  0.0837  0.3524
10550SOL     OW38699   4.491   3.749   3.051  0.0830 -0.5362  0.0501
10550SOL    HW138700   4.535   3.738   3.135 -1.2170 -0.1501  0.8136
10550SOL    HW238701   4.558   3.785   2.993  1.2276 -1.6055  0.6784
10551SOL     OW38702   6.965   0.321   9.110 -0.0784  0.3976  0.1608
10551SOL    HW138703   6.897   0.372   9.155 -0.4476 -0.4740  0.6237
10551SOL    HW238704   7.047   0.351   9.148 -0.2069  1.4099 -0.3444
10552SOL     OW38705   5.828   9.169   1.084  0.2008  0.0522  0.6583
10552SOL    HW138706   5.915   9.201   1.058  0.9158 -1.8986  0.4212
10552SOL    HW238707   5.847   9.093   1.140 -1.3537 -0.5283  0.4308
10553SOL     OW38708   1.143   6.903  11.209 -1.1797 -0.2610  0.5187
10553SOL    HW138709   1.099   6.983  11.235  1.5798  1.6694 -0.3254
10553SOL    HW238710   1.205   6.885  11.281 -0.9260 -0.9373  0.1441
10554SOL     OW38711   0.084   0.693   3.000 -0.2605  0.4693 -0.4331
10554SOL    HW138712   0.176   0.685   3.028 -0.0929  0.0498 -1.0786
10554SOL    HW238713   0.050   0.766   3.051  0.6718  1.1700 -0.7813
10555SOL     OW38714   6.777  12.466   2.902 -0.0195  0.2046  0.0422
10555SOL    HW138715   6.858  12.485   2.854  0.1044  1.2857  0.6551
10555SOL    HW238716   6.801  12.397   2.964  0.1157 -0.3362 -0.5948
10556SOL     OW38717  12.179  10.003   1.063  0.2439  0.0517  0.0491
10556SOL    HW138718  12.117  10.021   1.133 -0.4424 -0.4996 -0.3932
10556SOL    HW238719  12.264  10.031   1.097 -0.3557  1.5949  0.3612
10557SOL     OW38720  11.002   1.624   8.167  0.0591  0.5703  0.4199
10557SOL    HW138721  11.055   1.703   8.152 -0.5866  1.4988  2.6305
10557SOL    HW238722  11.051   1.575   8.234  0.3173 -0.8247 -0.7366
10558SOL     OW38723   6.875   7.323   6.074 -0.0505  0.4958 -0.2475
10558SOL    HW138724   6.814   7.385   6.034  0.4514  1.2429  0.1087
10558SOL    HW238725   6.950   7.322   6.014 -1.5973 -2.8613 -2.4435
10559SOL     OW38726   2.202   9.891   7.009 -0.2385 -0.1275  0.4599
10559SOL    HW138727   2.238   9.962   6.955  0.1610 -0.1097  0.7453
10559SOL    HW238728   2.196   9.928   7.097  0.5367 -0.6249  0.7343
10560SOL     OW38729   7.208  12.394   5.375 -0.3555  0.4506  0.1845
10560SOL    HW138730   7.168  12.310   5.354 -0.2688  0.9066 -2.1123
10560SOL    HW238731   7.144  12.460   5.347  0.4707  1.1514 -0.1344
10561SOL     OW38732   4.427   8.531  10.885 -0.5527 -0.2374  0.4981
10561SOL    HW138733   4.499   8.564  10.831 -0.4111 -1.4983 -0.1226
10561SOL    HW238734   4.391   8.608  10.928  0.6896  0.5126  0.2257
10562SOL     OW38735  10.553   1.239   2.509  0.1148  0.3763  0.3961
10562SOL    HW138736  10.485   1.289   2.463 -0.5406 -1.3135 -0.5436
10562SOL    HW238737  10.505   1.182   2.568  0.7388 -0.3996  0.1612
10563SOL     OW38738   3.610   8.257  10.872 -0.4570 -0.2698  0.2400
10563SOL    HW138739   3.520   8.225  10.870  0.0410 -1.7452 -0.4376
10563SOL    HW238740   3.664   8.177  10.873  0.8605  0.5500 -0.9862
10564SOL     OW38741   5.055   9.126  11.798 -0.1655  0.4885  0.2356
10564SOL    HW138742   5.048   9.207  11.746  2.5433  0.0058 -1.0563
10564SOL    HW238743   5.065   9.057  11.733  3.9663 -0.0799  1.2048
10565SOL     OW38744   2.771  10.550   2.096  0.4345 -0.7117  0.5562
10565SOL    HW138745   2.746  10.642   2.087  0.2553 -0.7284  0.8571
10565SOL    HW238746   2.824  10.547   2.175  0.5386 -0.8463  0.4807
10566SOL     OW38747   3.592  10.023  11.926  0.2828 -0.3307 -0.2090
10566SOL    HW138748   3.541  10.104  11.936 -0.9304 -1.2719  1.8120
10566SOL    HW238749   3.530   9.960  11.890  1.1218 -0.5025 -1.4096
10567SOL     OW38750   6.347   8.649  11.044 -0.1135  0.2391  0.0965
10567SOL    HW138751   6.396   8.727  11.072 -0.0319  0.4132 -0.5221
10567SOL    HW238752   6.255   8.675  11.051 -0.0879  0.3599 -0.0186
10568SOL     OW38753   3.434  10.507  10.691 -0.1417 -0.1960  0.1460
10568SOL    HW138754   3.461  10.581  10.637 -2.3082  0.9956  0.5807
10568SOL    HW238755   3.501  10.440  10.675  1.3740  1.4947 -0.9843
10569SOL     OW38756  10.900   0.438  10.626  0.0739 -0.2880 -0.2559
10569SOL    HW138757  10.903   0.410  10.534 -0.3144 -0.9001 -0.0846
10569SOL    HW238758  10.939   0.525  10.625  0.4502 -0.4569 -0.9406
10570SOL     OW38759   3.610  11.962   2.760  0.0412  0.1021  0.2679
10570SOL    HW138760   3.643  11.915   2.836  1.5776  0.0984 -0.3685
10570SOL    HW238761   3.671  11.941   2.690 -1.8963 -0.7376 -1.2898
10571SOL     OW38762   0.175  10.677   3.115  0.4235 -0.0883  0.0530
10571SOL    HW138763   0.245  10.659   3.178  0.0081 -0.1762  0.4976
10571SOL    HW238764   0.171  10.773   3.111  0.8406 -0.0814 -0.2875
10572SOL     OW38765   1.128   6.249   6.819 -0.3183  0.5742  0.0830
10572SOL    HW138766   1.074   6.324   6.846 -0.9682 -0.0480  0.5325
10572SOL    HW238767   1.073   6.199   6.759 -0.2213 -0.0259  0.4861
10573SOL     OW38768   1.560   8.909   4.448  0.2911  0.2041 -0.0978
10573SOL    HW138769   1.515   8.856   4.514  0.6901  1.5674  1.3226
10573SOL    HW238770   1.602   8.979   4.498  0.2007  1.5826 -1.8603
10574SOL     OW38771   2.964   7.500   4.703  0.5596  0.0078 -0.7149
10574SOL    HW138772   2.903   7.452   4.759  1.3406  0.4005  0.5107
10574SOL    HW238773   3.048   7.495   4.749  0.8950  1.6149 -1.1068
10575SOL     OW38774   4.971  10.771   4.278  0.2477  0.5787 -0.3269
10575SOL    HW138775   5.029  10.816   4.340 -0.8792  0.8470  0.5749
10575SOL    HW238776   4.919  10.712   4.333 -0.6074  0.6404 -1.0544
10576SOL     OW38777   0.218  10.134   2.614  0.6319 -0.5282 -0.4574
10576SOL    HW138778   0.252  10.044   2.619  2.4549  0.1642  0.2956
10576SOL    HW238779   0.184  10.151   2.702  0.2109 -0.4962 -0.6250
10577SOL     OW38780   3.678   0.850   2.477  0.2020  0.1193  0.3184
10577SOL    HW138781   3.697   0.920   2.540  3.4621 -0.5371  0.2660
10577SOL    HW238782   3.689   0.892   2.391  0.3589 -0.0349  0.2621
10578SOL     OW38783  11.360   6.023   3.431  0.4355 -0.0839 -0.1610
10578SOL    HW138784  11.335   6.039   3.340  2.7532  0.4412 -0.7681
10578SOL    HW238785  11.450   5.993   3.426  0.2033 -1.2788  1.9043
10579SOL     OW38786   8.329  11.742   4.248 -0.0799  0.2380  0.0144
10579SOL    HW138787   8.318  11.818   4.190 -0.1165  1.1091  1.1137
10579SOL    HW238788   8.403  11.766   4.304 -1.9086  0.7928  2.3536
10580SOL     OW38789   5.761   2.042  11.188 -0.6753  0.0008  0.1132
10580SOL    HW138790   5.687   1.991  11.153  0.9259  0.0629 -4.0089
10580SOL    HW238791   5.830   1.977  11.200  0.1525  0.5561 -1.3285
10581SOL     OW38792   3.038   7.131   5.298  0.1412  0.1718  0.4536
10581SOL    HW138793   3.061   7.126   5.205  0.0140 -0.3919  0.4494
10581SOL    HW238794   2.947   7.160   5.299  0.1704  0.2681  0.4105
10582SOL     OW38795   2.329   8.369   6.831  0.1318  0.1109 -0.1441
10582SOL    HW138796   2.416   8.389   6.796  0.3389 -0.1369  0.2279
10582SOL    HW238797   2.291   8.309   6.767  0.1645  0.3592 -0.3977
10583SOL     OW38798  10.765   4.555  12.439  0.4207 -0.0723 -0.5908
10583SOL    HW138799  10.797   4.471  12.407  1.4384  0.4492 -0.9736
10583SOL    HW238800  10.831   4.586  12.500 -0.8652 -0.4144  1.0628
10584SOL     OW38801   3.046   3.817  10.149 -0.1652  0.3272 -0.1664
10584SOL    HW138802   2.990   3.890  10.173  0.7106  0.9645 -0.0009
10584SOL    HW238803   2.996   3.739  10.173 -2.2733  0.7339 -2.7478
10585SOL     OW38804   2.272   2.084   0.507 -0.3483 -0.1687  0.6673
10585SOL    HW138805   2.341   2.022   0.528  1.1654  1.0282 -0.5329
10585SOL    HW238806   2.263   2.079   0.412 -2.4404 -0.7967  0.8558
10586SOL     OW38807   9.996  11.574   0.625 -0.1716 -0.4633  0.2754
10586SOL    HW138808   9.937  11.606   0.694 -0.8799 -1.7576  0.2885
10586SOL    HW238809   9.939  11.557   0.550 -0.1199 -3.1314  0.7383
10587SOL     OW38810   7.932   9.250   3.861 -0.1811 -0.0023 -0.7381
10587SOL    HW138811   7.864   9.263   3.927 -0.1307  1.3797 -0.9440
10587SOL    HW238812   8.014   9.274   3.905  0.2035 -1.6169 -0.5018
10588SOL     OW38813   7.860   1.071   9.655 -0.0689 -0.1189  0.3201
10588SOL    HW138814   7.932   1.101   9.710 -0.3632 -1.0989  1.2854
10588SOL    HW238815   7.859   1.131   9.580  2.9292 -1.1962 -0.7055
10589SOL     OW38816  10.409  12.461   9.907 -0.7467  0.2186  0.5439
10589SOL    HW138817  10.391  12.549   9.941  0.6212  0.4620  0.6768
10589SOL    HW238818  10.490  12.470   9.858 -0.0883 -1.1586  1.3266
10590SOL     OW38819   0.315   4.383   6.863  0.1013  0.8112 -0.0941
10590SOL    HW138820   0.322   4.412   6.954 -0.3433  0.3647  0.0836
10590SOL    HW238821   0.258   4.307   6.866 -0.4356  1.1717 -0.8269
10591SOL     OW38822   3.767   2.538   5.010 -0.0984 -0.1392  0.4934
10591SOL    HW138823   3.696   2.501   5.064  0.5263  0.4051  1.7124
10591SOL    HW238824   3.762   2.632   5.025  0.1150  0.0265 -0.3979
10592SOL     OW38825   8.739   5.620   6.499 -0.0152 -0.2319  0.4401
10592SOL    HW138826   8.827   5.599   6.467  0.0838  0.5890  0.1494
10592SOL    HW238827   8.751   5.643   6.591  0.0632 -0.2008  0.4223
10593SOL     OW38828   6.667  10.668   9.962 -0.0003 -0.5353 -0.3761
10593SOL    HW138829   6.585  10.621   9.945 -0.4881  0.2018 -0.0843
10593SOL    HW238830   6.705  10.682   9.876 -0.9493  0.4835 -0.6441
10594SOL     OW38831  10.714   9.193   0.945 -0.2759  0.7133  0.0695
10594SOL    HW138832  10.673   9.254   1.007  1.2592  1.0708  0.8031
10594SOL    HW238833  10.727   9.113   0.996 -0.0753  0.6025 -0.1540
10595SOL     OW38834   2.700   7.719   7.817  0.7230  0.0185  0.7908
10595SOL    HW138835   2.682   7.800   7.865 -0.2418 -0.7029  1.6881
10595SOL    HW238836   2.715   7.747   7.727 -1.2757  1.0472  0.7476
10596SOL     OW38837  11.667   8.587   7.920  1.0218 -0.2645 -0.2362
10596SOL    HW138838  11.645   8.537   7.999 -0.9596  0.2246 -0.4169
10596SOL    HW238839  11.628   8.673   7.935  2.0362  0.3507 -1.0793
10597SOL     OW38840   5.147   3.567   6.921  0.1030 -0.7382 -0.0061
10597SOL    HW138841   5.194   3.557   6.838 -1.2173 -0.6411 -0.8109
10597SOL    HW238842   5.193   3.511   6.983 -0.0815 -2.4588 -1.3484
10598SOL     OW38843   4.318   4.362   0.512  0.2495  0.1802  0.0447
10598SOL    HW138844   4.350   4.383   0.425  1.2417  0.2636  0.4136
10598SOL    HW238845   4.330   4.268   0.521  0.0578  0.1560  0.0560
10599SOL     OW38846   8.443   9.958   1.984 -0.1831  0.6235 -0.1565
10599SOL    HW138847   8.502   9.907   1.928  0.1565  1.3801 -0.5042
10599SOL    HW238848   8.423  10.036   1.933  0.9547  1.8250  1.1609
10600SOL     OW38849   2.513   7.713   6.145 -0.2057 -0.1886  0.4961
10600SOL    HW138850   2.592   7.662   6.165 -0.2460  0.0130  1.2306
10600SOL    HW238851   2.442   7.650   6.153  0.0009 -0.8058 -1.9652
10601SOL     OW38852   4.583  11.956   5.186 -0.3541  0.0518  0.0636
10601SOL    HW138853   4.546  11.869   5.200  1.0984 -0.6255 -0.1271
10601SOL    HW238854   4.511  12.016   5.206 -1.2210 -1.1659  0.7533
10602SOL     OW38855   6.159   8.513   2.760  0.0877  0.0352 -0.1029
10602SOL    HW138856   6.211   8.569   2.818  0.3376  1.1671 -1.3443
10602SOL    HW238857   6.220   8.444   2.733 -0.3321 -1.1073  1.7388
10603SOL     OW38858   7.771  10.164  11.562  0.2713  0.1920  0.1618
10603SOL    HW138859   7.782  10.081  11.515  0.3309  0.0757  0.3843
10603SOL    HW238860   7.828  10.157  11.638  1.9504  1.3048 -0.9468
10604SOL     OW38861   8.873  10.633   8.209 -0.3059 -0.1777 -0.0339
10604SOL    HW138862   8.878  10.636   8.114  1.0398  1.4524  0.0363
10604SOL    HW238863   8.790  10.676   8.231  0.4884  1.6503 -0.4383
10605SOL     OW38864   3.654  10.502   2.191  0.1793 -0.2955 -0.5095
10605SOL    HW138865   3.567  10.542   2.194  0.4255  0.1958  1.0804
10605SOL    HW238866   3.650  10.441   2.118 -1.2218  0.3456 -1.0087
10606SOL     OW38867   1.347   9.007  10.723 -0.4017  0.1426 -0.2924
10606SOL    HW138868   1.267   9.060  10.729  0.1285  0.8369  1.0589
10606SOL    HW238869   1.363   8.999  10.629 -1.2966  1.1845 -0.5565
10607SOL     OW38870  11.460   1.692  10.727 -0.6857  0.1920 -0.1740
10607SOL    HW138871  11.504   1.728  10.804  0.2492  0.7317 -0.9400
10607SOL    HW238872  11.416   1.767  10.687 -1.1178 -0.0742 -0.2005
10608SOL     OW38873   0.719  12.450   2.110 -0.0513  0.0384 -0.3277
10608SOL    HW138874   0.758  12.393   2.176  1.2396  0.8316 -0.3731
10608SOL    HW238875   0.656  12.394   2.064  0.9341 -1.2613 -0.1539
10609SOL     OW38876   6.474   1.295   3.466  0.3593  0.1255  0.1290
10609SOL    HW138877   6.499   1.248   3.387 -2.2758 -0.6390 -0.3457
10609SOL    HW238878   6.393   1.340   3.443 -0.3315  0.1040  2.2844
10610SOL     OW38879   0.019   3.291   2.460 -0.4451  0.0966 -0.6763
10610SOL    HW138880   0.040   3.326   2.374 -0.7874  0.6046 -0.5594
10610SOL    HW238881   0.078   3.337   2.520 -1.4118  1.0496 -0.4272
10611SOL     OW38882   1.311   0.997   6.142  0.0931  0.1427 -0.6385
10611SOL    HW138883   1.386   0.979   6.085  0.2296 -2.3595  0.1950
10611SOL    HW238884   1.237   0.957   6.097  0.1419 -1.5536  0.6801
10612SOL     OW38885   5.473   3.739   7.024  0.0156  0.0894  0.3110
10612SOL    HW138886   5.473   3.685   6.946 -1.5375 -1.5829  1.3766
10612SOL    HW238887   5.393   3.792   7.017  1.2668  1.9949 -0.4845
10613SOL     OW38888  12.039   8.200   1.972 -0.1590  0.0721  0.3899
10613SOL    HW138889  12.094   8.278   1.972  0.0612 -0.0806 -0.0897
10613SOL    HW238890  12.090   8.134   2.019 -1.3706  0.9130  3.0707
10614SOL     OW38891   0.834   6.978   9.568  0.2033 -0.0546 -0.0304
10614SOL    HW138892   0.841   7.005   9.659  0.9081  0.4297 -0.2194
10614SOL    HW238893   0.747   7.005   9.541  0.4156  0.8446  0.1678
10615SOL     OW38894   0.308   9.642   6.200  0.1636 -0.0580 -0.3064
10615SOL    HW138895   0.287   9.735   6.207  1.3986  0.1540  0.9342
10615SOL    HW238896   0.373   9.626   6.268 -0.8215 -2.0813  0.2640
10616SOL     OW38897  12.437   2.934   5.790 -0.6423 -0.9989  0.5422
10616SOL    HW138898  12.414   2.968   5.704  0.4398  1.2887  1.0665
10616SOL    HW238899  12.362   2.957   5.845 -0.6179 -0.9395  0.5505
10617SOL     OW38900  10.788   7.822   3.654 -0.7415  0.2734  0.0154
10617SOL    HW138901  10.825   7.734   3.657 -2.6063 -0.5447  0.6262
10617SOL    HW238902  10.811   7.861   3.738 -2.1821 -0.6749  0.9066
10618SOL     OW38903   9.445   2.137   8.815 -1.1346 -0.0229 -0.2684
10618SOL    HW138904   9.482   2.052   8.790  0.1087  0.1713  0.7958
10618SOL    HW238905   9.514   2.200   8.793 -0.1890  0.2192  2.9465
10619SOL     OW38906  10.928  10.703  12.514 -0.1792  0.7208  0.1175
10619SOL    HW138907  10.980  10.637  12.560 -0.9125  0.3257  0.3965
10619SOL    HW238908  10.915  10.772  12.579  0.6650  1.1925 -0.2023
10620SOL     OW38909   7.082   2.591   4.521  0.4563 -0.0582 -0.1083
10620SOL    HW138910   7.079   2.628   4.609  1.4630  0.9291 -0.4585
10620SOL    HW238911   7.167   2.617   4.487 -0.3345  0.5058 -1.7667
10621SOL     OW38912   5.911   5.614  11.141 -0.5065 -0.1688  0.4205
10621SOL    HW138913   5.936   5.642  11.053  0.1423 -1.3839  0.2039
10621SOL    HW238914   5.882   5.524  11.131 -2.4441  0.3316  1.1366
10622SOL     OW38915  12.018   6.243   1.254 -0.2027  0.3405  0.0442
10622SOL    HW138916  11.987   6.157   1.279  1.3087  0.1407  1.4041
10622SOL    HW238917  11.954   6.275   1.190 -0.0575 -2.3307 -1.5566
10623SOL     OW38918  11.606   3.722   7.311  0.4285  0.3609  0.3626
10623SOL    HW138919  11.606   3.661   7.238 -1.4256  0.8061 -0.0512
10623SOL    HW238920  11.680   3.694   7.366  2.3373  0.4510 -1.9801
10624SOL     OW38921   5.132   6.846   1.931 -0.0983 -0.2495  0.3490
10624SOL    HW138922   5.049   6.824   1.889  0.3816  1.9260 -1.9891
10624SOL    HW238923   5.152   6.935   1.901  1.8644  0.3018  2.8620
10625SOL     OW38924  10.586   4.729   3.217 -0.1096  0.0260 -0.1376
10625SOL    HW138925  10.497   4.752   3.248  0.0068 -0.8707  0.9254
10625SOL    HW238926  10.644   4.780   3.274  0.0727  0.0641 -0.3589
10626SOL     OW38927  11.487  10.180  11.514  0.1182 -0.3426  0.0366
10626SOL    HW138928  11.583  10.186  11.512  0.1478 -0.4929 -2.4206
10626SOL    HW238929  11.459  10.259  11.560  1.4201 -0.5647  1.2682
10627SOL     OW38930   8.291  10.746   2.416 -0.1469  0.2395 -0.1270
10627SOL    HW138931   8.220  10.714   2.361 -0.4303 -0.1802  0.4686
10627SOL    HW238932   8.367  10.752   2.357 -0.2199 -1.0375 -0.3714
10628SOL     OW38933   2.221   3.887   7.076 -0.7638  0.3469 -0.0225
10628SOL    HW138934   2.155   3.830   7.116 -0.6262  0.8967  1.0256
10628SOL    HW238935   2.299   3.876   7.131 -0.4148  0.7471 -0.4287
10629SOL     OW38936   8.254  10.387  11.948  0.2779 -0.5103 -0.1658
10629SOL    HW138937   8.234  10.392  11.855  0.2841 -0.6067 -0.1721
10629SOL    HW238938   8.348  10.405  11.954 -0.1228  1.9938  0.0370
10630SOL     OW38939   0.049   8.264   9.861  0.4017 -0.4021 -0.0334
10630SOL    HW138940   0.115   8.244   9.928 -0.6756  0.2849  1.2972
10630SOL    HW238941   0.076   8.349   9.826 -0.0063  0.1232  0.8704
10631SOL     OW38942   1.000   7.492   6.952  0.1773  0.2145  0.4161
10631SOL    HW138943   1.048   7.550   6.892 -1.2016  0.3956 -0.5642
10631SOL    HW238944   1.057   7.416   6.962  0.1473 -0.1768 -1.8053
10632SOL     OW38945   8.438   0.800  12.270  0.3795  0.5307 -0.2818
10632SOL    HW138946   8.362   0.857  12.267 -0.2798 -0.3115  0.0649
10632SOL    HW238947   8.402   0.711  12.272  1.3466  0.1410  0.8127
10633SOL     OW38948  10.279   2.029   0.104  0.2104 -0.5053  0.8447
10633SOL    HW138949  10.264   2.099   0.041 -0.3784 -0.6323  0.8398
10633SOL    HW238950  10.202   1.973   0.096  0.9300 -1.4635  0.4456
10634SOL     OW38951   3.206   8.667  11.917 -0.1471  0.0245  0.3729
10634SOL    HW138952   3.247   8.750  11.938  1.4051 -0.4097 -0.7249
10634SOL    HW238953   3.121   8.690  11.882  0.1172  1.1243  0.4268
10635SOL     OW38954  12.082   1.019  12.378  0.3992 -0.1072  0.1058
10635SOL    HW138955  12.161   1.031  12.327  0.1986 -0.9692 -0.4427
10635SOL    HW238956  12.011   1.020  12.314  0.0716 -0.4704  0.4507
10636SOL     OW38957   1.947   9.050   9.480  1.0789 -0.2058  0.3258
10636SOL    HW138958   1.904   9.020   9.560  0.1804  1.0601  0.3422
10636SOL    HW238959   1.876   9.059   9.416  1.8283 -1.5545 -0.7492
10637SOL     OW38960   3.774  11.862   8.578  0.3132 -0.5129 -0.1652
10637SOL    HW138961   3.802  11.850   8.669  1.1183 -1.3346 -0.5037
10637SOL    HW238962   3.837  11.925   8.542  0.8907 -1.2867 -0.5386
10638SOL     OW38963   8.942   6.642   3.157  0.1059 -0.1905  0.3514
10638SOL    HW138964   8.929   6.561   3.205 -0.6240  0.1333  0.7087
10638SOL    HW238965   9.032   6.668   3.179  0.8047 -1.5404 -0.7705
10639SOL     OW38966   7.944   5.952  10.542  0.1591 -0.1411 -0.1803
10639SOL    HW138967   7.990   6.015  10.486  1.7063 -2.3239 -1.5305
10639SOL    HW238968   8.010   5.924  10.605 -0.6029 -0.1901  0.6050
10640SOL     OW38969  11.069   5.396  12.352  0.1106  0.8968 -0.3677
10640SOL    HW138970  11.068   5.450  12.273 -0.2266 -0.7668 -1.5615
10640SOL    HW238971  10.983   5.356  12.354  0.1470  0.8514  0.8222
10641SOL     OW38972   4.440   7.585   2.743 -0.4341 -0.3979 -0.1866
10641SOL    HW138973   4.429   7.555   2.653 -0.6617  1.0870 -0.6762
10641SOL    HW238974   4.351   7.603   2.774 -0.2873  0.0200  0.0030
10642SOL     OW38975  12.366   0.121   7.469 -0.0440  0.3431  0.5510
10642SOL    HW138976  12.445   0.115   7.415 -0.5994 -2.5454 -0.1074
10642SOL    HW238977  12.388   0.076   7.550 -0.3569  1.5089  1.3140
10643SOL     OW38978   8.461   4.726  11.511  0.9799  0.5457  0.4995
10643SOL    HW138979   8.502   4.700  11.593  1.8886  1.9728  0.5210
10643SOL    HW238980   8.406   4.800  11.533 -1.6234 -1.2479  0.4420
10644SOL     OW38981   9.451   9.768   9.089 -0.0273  0.9047  0.2910
10644SOL    HW138982   9.388   9.807   9.150  0.1539  0.4349  0.7843
10644SOL    HW238983   9.405   9.766   9.005 -1.1807 -0.6346  0.9163
10645SOL     OW38984  10.607   9.711   5.633 -0.1553 -0.3481  0.2562
10645SOL    HW138985  10.608   9.724   5.538 -0.0206  3.9145  0.6119
10645SOL    HW238986  10.699   9.718   5.659 -0.0022 -2.9866  0.6885
10646SOL     OW38987  12.499  12.177   1.714 -0.8481 -0.2937 -0.9548
10646SOL    HW138988  12.556  12.100   1.713 -2.9819 -1.9985 -0.2189
10646SOL    HW238989  12.549  12.243   1.761  0.5620 -1.6604 -0.4492
10647SOL     OW38990   6.891   9.553   5.408  0.0054 -0.5048  0.1258
10647SOL    HW138991   6.962   9.501   5.371 -0.8205 -0.9598 -0.8805
10647SOL    HW238992   6.933   9.634   5.437  0.8524 -0.5464 -0.9275
10648SOL     OW38993   2.176   0.784  10.901 -0.0001  0.0558 -0.0735
10648SOL    HW138994   2.161   0.878  10.887 -0.1593  0.0089 -0.2168
10648SOL    HW238995   2.100   0.742  10.861 -0.5814 -0.0729  1.1143
10649SOL     OW38996  10.949  12.497   5.655  0.0270 -0.4343 -0.0463
10649SOL    HW138997  11.036  12.530   5.632 -0.0930 -0.4755 -0.5848
10649SOL    HW238998  10.889  12.551   5.603 -0.1754 -1.4570 -0.8998
10650SOL     OW38999   2.009   5.659   4.708  0.2454  0.4537 -0.2939
10650SOL    HW139000   1.990   5.573   4.670  1.7277  1.4188 -3.5415
10650SOL    HW239001   2.100   5.676   4.685 -0.0551  2.9845  0.0964
10651SOL     OW39002   7.032   9.425   6.076 -0.5197  0.0040 -0.3503
10651SOL    HW139003   7.102   9.376   6.033  0.4380  0.1699  0.9502
10651SOL    HW239004   6.957   9.417   6.017  0.6988  0.1675 -1.9664
10652SOL     OW39005   3.825   4.522   6.302 -0.2179  0.1082 -0.1581
10652SOL    HW139006   3.748   4.503   6.248 -0.4345  1.7872 -0.4698
10652SOL    HW239007   3.822   4.456   6.371 -1.4947 -0.3435 -0.6157
10653SOL     OW39008   2.919   4.213   3.987  0.4249 -0.0033  0.4638
10653SOL    HW139009   2.900   4.171   3.903  0.4268 -0.6254  0.7668
10653SOL    HW239010   2.845   4.190   4.043  0.2160  0.7584  0.5145
10654SOL     OW39011   5.583  12.403   5.384  0.1449 -0.3004  0.0314
10654SOL    HW139012   5.551  12.489   5.409  0.6519  0.6330 -2.3130
10654SOL    HW239013   5.530  12.378   5.309  1.7966 -0.7818 -1.0332
10655SOL     OW39014  11.827   5.422  10.069  0.2822  0.6577  0.5936
10655SOL    HW139015  11.832   5.461   9.982 -1.5105  0.2287  0.2515
10655SOL    HW239016  11.913   5.384  10.084 -0.0636 -1.4841 -2.1052
10656SOL     OW39017   8.570   9.453  11.895 -0.2671  0.3442 -0.0853
10656SOL    HW139018   8.527   9.427  11.977 -0.4611 -1.2683 -0.6536
10656SOL    HW239019   8.592   9.545  11.907  0.3773 -0.0327  2.0911
10657SOL     OW39020  11.141  12.161  10.546 -0.1300 -0.5232 -0.5555
10657SOL    HW139021  11.105  12.214  10.475  0.7433  0.7950 -0.0510
10657SOL    HW239022  11.235  12.156  10.527 -0.3396 -3.0859 -1.3297
10658SOL     OW39023   5.875   9.808  11.474 -0.7181 -0.1336 -0.3905
10658SOL    HW139024   5.953   9.778  11.427  0.1689  0.8942  0.3468
10658SOL    HW239025   5.911   9.850  11.553 -2.0387  0.2469  0.0244
10659SOL     OW39026   7.743   4.923  12.104 -0.0617  0.0886  0.3825
10659SOL    HW139027   7.783   4.842  12.136  0.6338  0.4823  0.5396
10659SOL    HW239028   7.816   4.985  12.099 -0.3894  0.4059 -0.7505
10660SOL     OW39029   7.196  10.236   9.226  0.2599 -0.2150 -0.4344
10660SOL    HW139030   7.232  10.156   9.265 -0.2210 -0.3858 -0.3389
10660SOL    HW239031   7.108  10.242   9.262 -0.5921 -0.9539 -2.2945
10661SOL     OW39032  12.294   8.351  11.620  0.1146  0.0246  0.5479
10661SOL    HW139033  12.225   8.399  11.667  0.7861  1.4577  0.1366
10661SOL    HW239034  12.266   8.260  11.623 -2.3502  0.6748 -0.5024
10662SOL     OW39035   2.669   2.776  10.450 -0.1202  0.2234 -0.0490
10662SOL    HW139036   2.728   2.710  10.485 -0.3502  0.2928  0.4864
10662SOL    HW239037   2.637   2.823  10.528  1.3794  2.1084 -0.4842
10663SOL     OW39038  10.704   0.988   1.609 -0.0592  0.0529  0.0981
10663SOL    HW139039  10.766   1.061   1.602 -0.8974  0.6363 -1.7388
10663SOL    HW239040  10.621   1.030   1.634 -0.6434 -0.1816 -1.3557
10664SOL     OW39041   5.441   0.905   5.691 -0.3733  0.3138  0.3093
10664SOL    HW139042   5.529   0.880   5.719 -0.2316  0.0381 -0.3540
10664SOL    HW239043   5.453   0.988   5.645 -0.4915  0.3928  0.4204
10665SOL     OW39044   5.951   6.456   0.830 -0.8912 -0.2680 -0.5108
10665SOL    HW139045   6.031   6.501   0.856 -0.3547 -1.0918 -0.6659
10665SOL    HW239046   5.972   6.363   0.838 -2.0366 -0.5007  0.0349
10666SOL     OW39047   2.406   4.922  11.424 -0.9015 -0.1275 -0.1507
10666SOL    HW139048   2.361   4.884  11.500  0.3431 -2.2063 -0.3557
10666SOL    HW239049   2.488   4.957  11.460 -2.1928  2.8666  0.0892
10667SOL     OW39050  11.958  11.676  12.010 -0.0989 -0.3456 -0.8284
10667SOL    HW139051  11.863  11.665  12.016 -0.1847  0.5602 -0.3838
10667SOL    HW239052  11.976  11.756  12.059  1.2699 -2.1456  1.8248
10668SOL     OW39053   9.823   3.020   8.282  0.1373 -0.3649 -0.0511
10668SOL    HW139054   9.859   3.039   8.369  0.7571  1.3136 -0.6466
10668SOL    HW239055   9.751   3.081   8.272 -0.7196 -1.3791 -0.2658
10669SOL     OW39056  11.189   7.721   1.863 -0.1757 -0.0664 -0.3151
10669SOL    HW139057  11.094   7.717   1.860 -0.2848  1.8807 -1.2161
10669SOL    HW239058  11.215   7.754   1.777  1.6471 -4.0127 -1.5676
10670SOL     OW39059  10.190   1.229   4.295 -0.1845  0.3121  0.4746
10670SOL    HW139060  10.209   1.227   4.388 -0.1925 -0.1585  0.4721
10670SOL    HW239061  10.275   1.236   4.252 -0.0915 -0.5811  0.4937
10671SOL     OW39062   6.005  10.716  10.263  0.2398 -0.0832 -0.0882
10671SOL    HW139063   5.994  10.756  10.349  0.7961 -0.3927  0.1331
10671SOL    HW239064   6.037  10.786  10.207 -1.0039  0.3607 -0.2883
10672SOL     OW39065   3.842   5.254   8.670  0.4862 -0.2968  0.1504
10672SOL    HW139066   3.918   5.243   8.614 -0.2842  0.6629 -1.1292
10672SOL    HW239067   3.807   5.340   8.648  0.0306  0.0453  1.9855
10673SOL     OW39068   7.119  10.841   4.153 -0.1420 -0.1944 -0.2437
10673SOL    HW139069   7.207  10.820   4.123 -0.0871  0.8613 -0.8868
10673SOL    HW239070   7.074  10.756   4.158  0.7543 -0.6846 -0.3989
10674SOL     OW39071   9.335  12.155  12.102  0.5851 -0.3643 -0.1228
10674SOL    HW139072   9.365  12.111  12.182  0.8549 -0.3973 -0.2411
10674SOL    HW239073   9.399  12.130  12.036 -0.2724 -1.3002 -0.6409
10675SOL     OW39074   6.358   8.138   4.411  0.2795 -0.5925  0.0136
10675SOL    HW139075   6.262   8.129   4.414  0.4027 -2.1737  0.3801
10675SOL    HW239076   6.375   8.189   4.332 -0.9373  1.3627  0.9405
10676SOL     OW39077   5.311   9.223   9.725  0.2911  0.1446 -0.3692
10676SOL    HW139078   5.224   9.192   9.699  0.8950 -0.7470 -1.4101
10676SOL    HW239079   5.299   9.316   9.741 -0.8661  0.0342 -0.4923
10677SOL     OW39080   0.642   6.409   6.882  0.1286  0.3557 -0.0914
10677SOL    HW139081   0.601   6.331   6.845  0.1171  1.2880 -2.1615
10677SOL    HW239082   0.573   6.474   6.885  0.3710  0.5884  0.7254
10678SOL     OW39083  11.684   8.578  11.832  0.4439 -0.6909  0.0331
10678SOL    HW139084  11.617   8.532  11.782 -0.6899  0.5060  0.4018
10678SOL    HW239085  11.749   8.511  11.852 -0.1617 -1.6703 -1.1446
10679SOL     OW39086   8.306  10.968   4.066  0.1031  0.6582 -0.3731
10679SOL    HW139087   8.359  11.042   4.095  3.1505 -1.4759 -0.0279
10679SOL    HW239088   8.279  10.992   3.977  0.1391  2.5683  0.0857
10680SOL     OW39089   7.695   4.650  10.810  0.1754  0.0156 -0.4998
10680SOL    HW139090   7.706   4.561  10.843 -0.9280  0.2568  0.5883
10680SOL    HW239091   7.618   4.684  10.857  1.1153  1.8595 -0.1798
10681SOL     OW39092   7.179   0.590   4.612 -0.1001  0.0619  0.2780
10681SOL    HW139093   7.136   0.632   4.538 -1.1381 -0.2634  0.6718
10681SOL    HW239094   7.158   0.497   4.602 -0.9177  0.1018  1.3749
10682SOL     OW39095   9.662   9.920  11.924  0.4699 -0.2233  0.6233
10682SOL    HW139096   9.640   9.839  11.970 -1.4760 -0.9287 -1.3614
10682SOL    HW239097   9.606   9.919  11.846  1.4743  2.3234 -0.2296
10683SOL     OW39098   6.892  11.501   7.783 -0.2190  0.2963 -0.2322
10683SOL    HW139099   6.935  11.439   7.843  0.7275  0.9161 -0.2599
10683SOL    HW239100   6.846  11.562   7.841 -0.7542 -0.1270 -0.1952
10684SOL     OW39101   9.368   1.552   4.315  0.5127  0.4724  0.4407
10684SOL    HW139102   9.351   1.463   4.286  2.7929  0.4024 -0.9618
10684SOL    HW239103   9.311   1.607   4.262  1.0331  0.0037 -0.6181
10685SOL     OW39104   5.120   0.511   0.420 -0.2472  0.1408 -0.2617
10685SOL    HW139105   5.067   0.500   0.340 -0.1794 -0.8881 -0.1881
10685SOL    HW239106   5.195   0.563   0.393  0.2161 -0.9241 -1.0964
10686SOL     OW39107   2.062   5.163   9.821  0.3589  0.1551  0.3972
10686SOL    HW139108   2.147   5.126   9.846  0.8881 -0.3682 -2.0095
10686SOL    HW239109   2.082   5.254   9.798  0.0621  0.3415  0.8725
10687SOL     OW39110   6.752   3.881  10.781  0.1539 -0.0129  0.5141
10687SOL    HW139111   6.660   3.856  10.776  0.5517 -1.8338  1.4939
10687SOL    HW239112   6.776   3.865  10.872  1.4145  0.5409  0.2970
10688SOL     OW39113   1.665   4.037   2.895  0.1098 -0.1978 -0.2554
10688SOL    HW139114   1.645   4.002   2.981 -1.8298  2.2325  0.3906
10688SOL    HW239115   1.582   4.072   2.863  0.9484 -0.3249 -2.7915
10689SOL     OW39116   3.121  12.377   4.220  0.5877  0.0492 -0.2487
10689SOL    HW139117   3.178  12.433   4.273  0.8326 -0.3599 -0.0703
10689SOL    HW239118   3.033  12.394   4.253  0.5023  1.2863 -1.0684
10690SOL     OW39119   1.910  12.569   3.937 -0.3611  0.1846 -0.6211
10690SOL    HW139120   1.824  12.549   3.973 -0.1835 -0.1276 -0.3628
10690SOL    HW239121   1.971  12.516   3.988  0.1745  1.6803  0.3565
10691SOL     OW39122   2.309   4.747   7.444 -0.3892 -0.3473  0.2100
10691SOL    HW139123   2.374   4.681   7.465  1.2653  0.9722 -0.5236
10691SOL    HW239124   2.306   4.748   7.348 -1.2631 -0.1808  0.2332
10692SOL     OW39125   5.443   5.747   0.332  0.3288  0.2351 -0.3267
10692SOL    HW139126   5.433   5.761   0.426 -0.9781  0.4255 -0.4843
10692SOL    HW239127   5.410   5.658   0.317  0.6532  0.1555 -0.5999
10693SOL     OW39128   1.640   5.177   2.405 -0.0726 -0.4950  0.5775
10693SOL    HW139129   1.544   5.174   2.407 -0.1312 -0.2298  3.4896
10693SOL    HW239130   1.666   5.092   2.369 -1.3417  0.0012 -1.6473
10694SOL     OW39131   6.698   1.074  11.378 -0.0104  0.0080  0.2586
10694SOL    HW139132   6.742   1.127  11.311  1.2748 -2.1268 -0.6673
10694SOL    HW239133   6.702   1.129  11.457  1.4002  1.2433 -0.5987
10695SOL     OW39134   2.550   2.161   8.374 -0.3509 -0.5708 -0.3048
10695SOL    HW139135   2.480   2.171   8.438  0.8122 -0.3061  0.9824
10695SOL    HW239136   2.524   2.085   8.322 -1.0966 -1.1368  0.8348
10696SOL     OW39137   8.146   2.464   6.856  0.4911 -0.1687 -0.2701
10696SOL    HW139138   8.208   2.518   6.806  0.3504  0.2954  0.0501
10696SOL    HW239139   8.144   2.504   6.943  0.2308 -0.5746 -0.0882
10697SOL     OW39140   5.639   6.638   1.814  0.1338 -0.2579  0.6973
10697SOL    HW139141   5.573   6.699   1.843 -0.2647 -0.5659  0.4504
10697SOL    HW239142   5.677   6.678   1.735 -1.0447 -0.9262 -0.2419
10698SOL     OW39143   6.163   5.543   2.114  0.3460  0.1370  0.0668
10698SOL    HW139144   6.084   5.595   2.132  0.0703  0.6425 -2.2546
10698SOL    HW239145   6.145   5.458   2.153 -0.5212  0.8345  1.2476
10699SOL     OW39146   4.264   9.027   2.261 -0.1335 -0.4398 -0.2662
10699SOL    HW139147   4.190   9.070   2.304  1.0071 -0.0954  1.4367
10699SOL    HW239148   4.223   8.959   2.207 -1.6777 -1.1565  1.6475
10700SOL     OW39149   4.865   5.633   7.204  0.5147 -0.1085 -0.1057
10700SOL    HW139150   4.958   5.620   7.184  0.5261  1.1353 -1.0062
10700SOL    HW239151   4.864   5.697   7.275  0.3481 -0.5631  0.3092
10701SOL     OW39152   5.326   7.478   5.830  0.1514  0.3007 -0.1154
10701SOL    HW139153   5.279   7.448   5.751 -0.7485  1.4212 -0.0391
10701SOL    HW239154   5.266   7.458   5.902  0.2201  0.8373  0.0929
10702SOL     OW39155   4.106   0.011   9.206 -0.0661 -0.3248 -0.1457
10702SOL    HW139156   4.190   0.035   9.244  0.2447 -0.5238 -0.6912
10702SOL    HW239157   4.121  -0.076   9.169 -0.5238 -0.3774 -0.2072
10703SOL     OW39158   0.034   8.942   7.406  0.4681 -0.0707 -0.1567
10703SOL    HW139159   0.011   8.934   7.313  0.8805 -4.5771 -0.1256
10703SOL    HW239160   0.113   8.889   7.416 -0.0524 -0.4813  2.8828
10704SOL     OW39161   8.036   7.892   3.272  0.1736 -0.0489  0.4639
10704SOL    HW139162   8.035   7.797   3.260  1.9593  0.0338 -0.8785
10704SOL    HW239163   8.028   7.927   3.183  0.8944  1.0205  0.8030
10705SOL     OW39164  12.307   3.118  10.192  0.0992  0.5422 -0.5728
10705SOL    HW139165  12.243   3.073  10.137  2.0101 -0.0176 -2.4521
10705SOL    HW239166  12.303   3.071  10.276 -0.2635 -1.0358 -1.4283
10706SOL     OW39167   2.825   1.249   0.718  0.3926 -0.7961 -0.4888
10706SOL    HW139168   2.810   1.334   0.760 -1.1425 -0.9844 -0.6165
10706SOL    HW239169   2.856   1.193   0.789  2.0915 -0.0005 -0.5321
10707SOL     OW39170   5.172   6.103   7.315 -0.1672 -0.3780  0.1494
10707SOL    HW139171   5.129   6.060   7.241 -1.0715  0.3375  0.2346
10707SOL    HW239172   5.219   6.033   7.360 -0.3468 -0.9811 -0.5824
10708SOL     OW39173   7.515   6.878   7.516  0.7467  0.1197  0.2425
10708SOL    HW139174   7.464   6.830   7.582 -0.1612 -0.1201 -0.6051
10708SOL    HW239175   7.601   6.887   7.555  0.2481 -0.0743  1.4381
10709SOL     OW39176   0.860   3.693  10.352 -0.3820 -0.3836 -0.0756
10709SOL    HW139177   0.888   3.772  10.306 -2.2385  0.2191 -0.2422
10709SOL    HW239178   0.942   3.646  10.371  0.6716  1.0280 -0.9332
10710SOL     OW39179  11.341  12.127   1.193  0.1234  0.1257 -0.6506
10710SOL    HW139180  11.386  12.095   1.115  1.1186 -1.3017  0.4433
10710SOL    HW239181  11.266  12.068   1.203 -0.0612  0.3696 -0.5790
10711SOL     OW39182  10.286   5.910  10.944 -0.0659  0.2226 -0.4486
10711SOL    HW139183  10.299   6.004  10.933 -0.6782  0.2880 -0.6895
10711SOL    HW239184  10.360   5.881  10.997 -0.5458  1.0579  0.7104
10712SOL     OW39185   2.260   2.890  10.666 -0.1799 -0.2496 -0.8294
10712SOL    HW139186   2.253   2.943  10.587  1.8049  0.5776 -0.5073
10712SOL    HW239187   2.226   2.946  10.736  0.8369  0.1766 -0.6649
10713SOL     OW39188   2.761   8.877   7.745 -0.9107  0.6928  0.2234
10713SOL    HW139189   2.845   8.894   7.702 -0.9601  0.2424 -0.0612
10713SOL    HW239190   2.696   8.906   7.681 -0.9968  3.4341  1.4214
10714SOL     OW39191   9.945   1.927   0.925  0.7269 -0.2108  0.3855
10714SOL    HW139192  10.002   1.889   0.857  1.4833 -0.9733  1.4023
10714SOL    HW239193   9.857   1.917   0.890  1.1080 -0.3707 -0.5899
10715SOL     OW39194  11.446   3.667  10.195  0.2924 -0.0909  0.4384
10715SOL    HW139195  11.487   3.717  10.124 -0.3277 -0.5034 -0.2254
10715SOL    HW239196  11.495   3.585  10.198  0.9236  0.2916  1.1307
10716SOL     OW39197  11.977   5.685  10.722 -0.3755  0.4275  0.6247
10716SOL    HW139198  11.905   5.746  10.713 -0.7441 -0.0167  0.5383
10716SOL    HW239199  11.938   5.607  10.761  0.1531  0.3682  1.0496
10717SOL     OW39200  10.493   2.216   7.029 -0.1342  0.0376 -0.2065
10717SOL    HW139201  10.487   2.308   7.000  1.4607  0.6684  1.2684
10717SOL    HW239202  10.453   2.166   6.958 -0.0164  1.7905 -1.5904
10718SOL     OW39203   5.058  12.140   9.108  0.4660 -0.5047  0.2694
10718SOL    HW139204   4.974  12.173   9.075 -0.2348 -1.6492  0.8340
10718SOL    HW239205   5.120  12.211   9.092 -0.9259  1.0074  1.2228
10719SOL     OW39206   1.124   0.306   2.835  0.2933 -0.1896 -0.0600
10719SOL    HW139207   1.178   0.361   2.779 -0.8604  0.4834 -0.5400
10719SOL    HW239208   1.187   0.249   2.880  1.3153 -0.1149 -1.3263
10720SOL     OW39209   0.406   4.983   5.494 -0.4528 -0.2086  0.2526
10720SOL    HW139210   0.352   5.010   5.568 -0.3625  2.1771 -0.4769
10720SOL    HW239211   0.489   4.957   5.534 -1.6240 -2.7942  1.2710
10721SOL     OW39212   6.450   2.409   2.926  0.6527  0.1469  0.1842
10721SOL    HW139213   6.474   2.337   2.867  1.7894  0.6446  0.0074
10721SOL    HW239214   6.459   2.371   3.013 -1.4669 -0.7246  0.0786
10722SOL     OW39215   5.810   1.772   7.829  0.0289  0.0329 -0.0675
10722SOL    HW139216   5.805   1.774   7.925 -3.1313  0.2772 -0.1513
10722SOL    HW239217   5.765   1.691   7.804  0.0425  0.4076 -1.3970
10723SOL     OW39218   2.889   2.409   3.205  0.4601  0.3099  0.1609
10723SOL    HW139219   2.957   2.407   3.272  1.1508 -1.8587 -0.5208
10723SOL    HW239220   2.808   2.426   3.253  0.9086 -1.4134  1.5965
10724SOL     OW39221   4.434  11.904   2.205  0.0864 -0.4542 -0.1754
10724SOL    HW139222   4.392  11.847   2.270  0.7863  0.3049  0.9766
10724SOL    HW239223   4.527  11.886   2.213  0.1502 -0.7349 -1.3671
10725SOL     OW39224   0.602  11.749  10.799  0.0049 -0.3907 -0.0527
10725SOL    HW139225   0.670  11.808  10.767 -2.2525  2.6692  0.2216
10725SOL    HW239226   0.631  11.726  10.888  1.1434  0.0421 -0.2921
10726SOL     OW39227   1.182  11.335   3.808 -0.3533  0.2272 -0.2777
10726SOL    HW139228   1.143  11.306   3.890  1.2362  1.6864  1.0989
10726SOL    HW239229   1.241  11.264   3.783 -0.8233 -0.2132 -0.1420
10727SOL     OW39230   6.444   1.062   5.311 -0.0325  0.2128 -0.0377
10727SOL    HW139231   6.444   1.149   5.272  0.8513  0.2654  0.0698
10727SOL    HW239232   6.444   1.077   5.405 -0.5571  0.0856 -0.0104
10728SOL     OW39233   7.912   7.669   2.976  0.3276  0.2677 -0.1813
10728SOL    HW139234   7.859   7.738   3.015 -1.3795 -0.7657 -0.5734
10728SOL    HW239235   7.874   7.654   2.889 -0.0338 -1.8471  0.2768
10729SOL     OW39236   5.114   3.685   1.383  0.8139  0.0590  0.5380
10729SOL    HW139237   5.160   3.732   1.452  1.0719  1.2959 -0.4473
10729SOL    HW239238   5.181   3.631   1.343  0.7871 -0.2275  0.8700
10730SOL     OW39239  10.159  10.517   1.816 -0.0675  0.4576 -0.5152
10730SOL    HW139240  10.254  10.523   1.807  0.0693 -1.5873 -0.9989
10730SOL    HW239241  10.146  10.452   1.885 -1.1073  0.4514 -0.6982
10731SOL     OW39242  10.320   3.058   7.173 -0.2806 -0.2432  0.6917
10731SOL    HW139243  10.265   3.047   7.251  0.8499 -0.7620  1.4305
10731SOL    HW239244  10.275   3.126   7.123 -0.4969  0.8529  2.2883
10732SOL     OW39245   6.183   4.309  11.725 -0.3665  1.3027 -0.6709
10732SOL    HW139246   6.199   4.277  11.636 -0.0777  0.8958 -0.4754
10732SOL    HW239247   6.263   4.355  11.748 -0.1914  0.8580 -0.3838
10733SOL     OW39248   2.658   4.981  11.511  0.8678 -0.0865 -0.0054
10733SOL    HW139249   2.654   5.020  11.599 -0.3851 -0.3780  0.0871
10733SOL    HW239250   2.728   5.029  11.467  1.0508  0.5371  0.9267
10734SOL     OW39251   9.376  11.808   0.048  0.1388 -0.0545 -0.3696
10734SOL    HW139252   9.348  11.734  -0.005  0.5470  0.2431 -1.0142
10734SOL    HW239253   9.306  11.872   0.039  0.6670  0.4005 -1.3910
10735SOL     OW39254   5.777  12.480   9.059 -0.3807 -0.0558  0.2407
10735SOL    HW139255   5.779  12.419   9.134  1.0974 -1.1727 -0.6503
10735SOL    HW239256   5.712  12.443   9.000  1.9142 -2.0943 -1.2416
10736SOL     OW39257  12.193   4.877   1.578 -0.1995  0.4704  0.2428
10736SOL    HW139258  12.212   4.902   1.488 -3.5176  0.0171 -0.7283
10736SOL    HW239259  12.123   4.937   1.606 -1.4799 -1.3988  1.3110
10737SOL     OW39260   5.703   7.284   7.362  0.2167  0.1073  0.5628
10737SOL    HW139261   5.665   7.332   7.289  0.0509  0.4152  0.8484
10737SOL    HW239262   5.655   7.201   7.363 -1.1094  0.8342  1.4682
10738SOL     OW39263  10.905  12.121   5.005 -0.0359  0.0363  0.1487
10738SOL    HW139264  10.865  12.038   5.034  0.6293 -0.2162  0.3673
10738SOL    HW239265  10.921  12.169   5.086 -0.9552  0.6384 -0.0149
10739SOL     OW39266   1.950   5.039   7.333 -0.0157  0.0492 -0.4331
10739SOL    HW139267   1.872   4.988   7.310 -0.5969  0.9008 -0.4044
10739SOL    HW239268   1.973   5.009   7.420 -0.0185 -0.5572 -0.6357
10740SOL     OW39269   1.403  11.719  11.168  0.3955  0.3274 -0.0143
10740SOL    HW139270   1.338  11.786  11.191 -0.7775 -0.2962 -1.3127
10740SOL    HW239271   1.380  11.644  11.224  0.5391  0.3901  0.1292
10741SOL     OW39272   6.338  11.780   8.358 -0.2173 -0.7653 -0.0511
10741SOL    HW139273   6.350  11.699   8.310 -0.2329 -0.9975  0.3300
10741SOL    HW239274   6.318  11.846   8.291  0.2386 -0.9806 -0.3997
10742SOL     OW39275  10.176   0.653   7.143 -0.0728 -0.9437  0.1414
10742SOL    HW139276  10.261   0.684   7.111  0.1779 -1.4592  0.2889
10742SOL    HW239277  10.121   0.731   7.145  0.8344 -0.2979  1.4778
10743SOL     OW39278   4.638   3.565   0.465 -0.5915  0.4341 -0.8631
10743SOL    HW139279   4.697   3.585   0.537  1.5524 -3.4980 -1.2670
10743SOL    HW239280   4.583   3.493   0.497  0.2945 -1.2962 -2.9346
10744SOL     OW39281   3.483  10.645   9.842 -0.2420 -0.4289 -0.4567
10744SOL    HW139282   3.500  10.554   9.868 -0.6631 -1.4890 -3.4865
10744SOL    HW239283   3.389  10.648   9.824 -0.3832  0.8733  0.3389
10745SOL     OW39284   0.462   9.617   1.816 -0.3573  0.7053  0.5360
10745SOL    HW139285   0.471   9.711   1.799  0.0497  0.8147  1.2903
10745SOL    HW239286   0.516   9.576   1.748  0.3066  1.0708  0.8313
10746SOL     OW39287   3.758   7.045   5.930 -0.6746 -0.7429  0.1008
10746SOL    HW139288   3.727   6.957   5.952  0.2704 -0.5464  2.5665
10746SOL    HW239289   3.761   7.091   6.014  0.6676  1.0712 -0.8631
10747SOL     OW39290   6.543   4.509  11.233  0.1341 -0.0473 -0.3410
10747SOL    HW139291   6.562   4.424  11.272  1.3033  0.5264  0.4073
10747SOL    HW239292   6.615   4.565  11.262 -1.2542  1.5382  0.2094
10748SOL     OW39293  10.018   6.199  11.727 -0.0426 -0.4596  0.7206
10748SOL    HW139294  10.036   6.119  11.776  1.1360 -0.6805 -0.0382
10748SOL    HW239295  10.091   6.258  11.749  0.3527 -0.4580 -0.5243
10749SOL     OW39296  10.599  12.115   9.454  0.5108 -0.2367  0.4408
10749SOL    HW139297  10.543  12.185   9.421  1.8296  1.0353  0.7617
10749SOL    HW239298  10.539  12.046   9.480 -0.6989 -0.4653 -2.6050
10750SOL     OW39299  11.440   6.219   5.190  0.3004  0.6698 -0.3493
10750SOL    HW139300  11.408   6.310   5.195  2.7418  1.6048 -0.6591
10750SOL    HW239301  11.409   6.188   5.105 -1.3523  0.8356  0.1444
10751SOL     OW39302   9.480   9.608  11.694  0.0052 -0.1491  0.4613
10751SOL    HW139303   9.546   9.539  11.697 -0.2672 -0.4899 -0.6458
10751SOL    HW239304   9.527   9.685  11.663 -0.0002 -0.2625  0.1598
10752SOL     OW39305   3.266  11.899  10.882  0.1899 -0.1918  0.1030
10752SOL    HW139306   3.323  11.940  10.947  1.4091  2.2827 -2.3083
10752SOL    HW239307   3.326  11.860  10.819 -0.6799  1.6022 -1.9664
10753SOL     OW39308   2.793   0.218   6.743 -0.0187 -0.3569  0.4521
10753SOL    HW139309   2.737   0.235   6.668 -1.2894 -1.1323  1.1804
10753SOL    HW239310   2.882   0.239   6.713 -0.6609  0.6831 -0.8027
10754SOL     OW39311   6.497  10.290  12.183  0.2745  0.2790 -0.4689
10754SOL    HW139312   6.482  10.198  12.162 -0.0782 -0.3957  2.3573
10754SOL    HW239313   6.581  10.291  12.229  1.3016  1.7369 -2.2295
10755SOL     OW39314  11.081   1.685   4.762 -0.0359  0.4681 -0.1819
10755SOL    HW139315  11.069   1.722   4.675 -0.9753 -0.5401 -0.5219
10755SOL    HW239316  10.993   1.688   4.801  0.2045  0.1347  0.3980
10756SOL     OW39317   3.176  12.142   0.661  0.3438 -0.5537 -0.6412
10756SOL    HW139318   3.263  12.115   0.631 -0.0586 -1.6486 -0.8545
10756SOL    HW239319   3.142  12.196   0.590  0.8408 -0.1175 -0.5555
10757SOL     OW39320   7.039   4.390   4.720  0.0969 -0.2940  0.3825
10757SOL    HW139321   7.030   4.346   4.804 -2.3181 -0.0821  0.2941
10757SOL    HW239322   7.104   4.338   4.672  0.5910 -1.1305  1.8941
10758SOL     OW39323   5.222   1.023  10.030 -0.0752 -0.4347 -0.1048
10758SOL    HW139324   5.205   1.009  10.123  2.1333  0.1183  0.4427
10758SOL    HW239325   5.261   0.940  10.001  0.0909 -0.2870 -0.3024
10759SOL     OW39326   4.368   1.340   4.767  0.1668 -0.4956  0.4155
10759SOL    HW139327   4.453   1.365   4.730  0.0149 -0.3361  0.1749
10759SOL    HW239328   4.336   1.420   4.808 -0.0406 -0.4529  0.1741
10760SOL     OW39329  12.585   1.114   6.148 -0.2069 -0.7537 -0.2628
10760SOL    HW139330  12.652   1.067   6.099  2.8142  1.0359  1.8328
10760SOL    HW239331  12.567   1.057   6.223 -0.8768 -1.1060 -0.6809
10761SOL     OW39332   6.329   0.799   1.926 -0.6108 -0.2227 -0.1316
10761SOL    HW139333   6.394   0.796   1.997 -0.3260 -1.1609 -0.4273
10761SOL    HW239334   6.342   0.885   1.886 -0.1544 -0.0488  0.3706
10762SOL     OW39335   3.715   6.693  11.720  0.1875  0.1995 -0.1658
10762SOL    HW139336   3.629   6.735  11.718 -0.1966 -0.5979 -1.1367
10762SOL    HW239337   3.710   6.624  11.655  1.0180 -0.9737  0.9588
10763SOL     OW39338   4.922  12.550   2.194  0.3884  0.5132 -0.5120
10763SOL    HW139339   4.998  12.529   2.140  2.6540  0.7628  2.3319
10763SOL    HW239340   4.900  12.468   2.238  1.2525  1.1367  1.1883
10764SOL     OW39341   7.504   9.089   0.410 -0.6667 -0.0229 -0.2113
10764SOL    HW139342   7.581   9.041   0.441 -0.8727 -0.9246 -1.0784
10764SOL    HW239343   7.535   9.180   0.401  0.1558 -0.2789 -0.0606
10765SOL     OW39344  11.085   5.035   3.077 -0.1315  0.1483 -0.2257
10765SOL    HW139345  11.063   5.065   3.165  2.1689 -2.0041  1.2128
10765SOL    HW239346  11.007   4.989   3.047 -0.8060  0.5284  0.8934
10766SOL     OW39347   9.203  12.012   4.057  0.2646  0.0198  0.2977
10766SOL    HW139348   9.274  12.022   4.120 -1.4801  1.5227  2.1653
10766SOL    HW239349   9.125  11.999   4.111 -1.5854  3.0375 -1.3558
10767SOL     OW39350   6.950   1.209   6.705  0.0538 -0.0916 -0.4262
10767SOL    HW139351   6.905   1.272   6.648  2.8893 -0.5597 -3.5121
10767SOL    HW239352   6.923   1.123   6.672  1.4264 -0.3753 -0.8742
10768SOL     OW39353   7.105  12.516   3.160  0.6236  0.5128 -0.1457
10768SOL    HW139354   7.129  12.537   3.070  0.0171  0.5623 -0.3003
10768SOL    HW239355   7.016  12.550   3.170  0.4164 -0.1167  0.2531
10769SOL     OW39356   0.753   0.042  10.764  0.0158 -0.7093 -0.1137
10769SOL    HW139357   0.693  -0.028  10.789  0.4931 -0.5934  1.4473
10769SOL    HW239358   0.839  -0.001  10.758  0.2740 -0.3147  0.6479
10770SOL     OW39359   9.876   8.402   7.940  0.1711 -0.1008 -0.5496
10770SOL    HW139360   9.885   8.466   7.870 -0.2187  0.5597 -0.0072
10770SOL    HW239361   9.960   8.406   7.986  0.3940 -0.4711 -0.9136
10771SOL     OW39362   9.085   7.063  11.545 -0.3549  0.0014 -0.0179
10771SOL    HW139363   9.008   7.007  11.557  0.0276 -0.8172 -1.1771
10771SOL    HW239364   9.092   7.074  11.450  0.9896  0.0007  0.0575
10772SOL     OW39365   1.912   3.293   3.646  0.3435  0.0122 -0.1453
10772SOL    HW139366   1.853   3.225   3.679  1.3271 -0.3485  0.9371
10772SOL    HW239367   1.954   3.328   3.724  1.3094  0.4973 -0.8628
10773SOL     OW39368   8.628   0.882   6.693  0.3425 -0.3643  0.3392
10773SOL    HW139369   8.659   0.962   6.649  0.0901 -0.4302  0.0351
10773SOL    HW239370   8.698   0.818   6.678 -0.0931 -0.6289 -0.6849
10774SOL     OW39371   0.656  10.986   3.223  0.6084  0.1132 -0.3103
10774SOL    HW139372   0.610  11.060   3.184  0.4817  0.5538  0.6348
10774SOL    HW239373   0.592  10.949   3.285  0.8819 -0.4187 -0.3394
10775SOL     OW39374   9.460   6.862   0.588 -0.7718  0.1474  0.3959
10775SOL    HW139375   9.463   6.943   0.535  2.6643  1.3924  2.2112
10775SOL    HW239376   9.450   6.792   0.523  2.5451  1.6305 -2.0378
10776SOL     OW39377   2.454  10.482   1.217 -0.0715  0.2989 -0.6549
10776SOL    HW139378   2.374  10.532   1.235  0.3984  0.5960  0.7659
10776SOL    HW239379   2.428  10.416   1.153 -1.2796  0.8328 -0.7373
10777SOL     OW39380   9.852  11.874   0.817 -0.2896  0.0776 -0.0215
10777SOL    HW139381   9.856  11.801   0.879  1.2170 -0.1552 -0.3636
10777SOL    HW239382   9.807  11.838   0.741 -0.8980 -0.0487  0.3922
10778SOL     OW39383  10.263   1.042   5.450  0.1776 -0.3658 -0.3070
10778SOL    HW139384  10.322   1.058   5.523  0.5876  0.8436 -0.8814
10778SOL    HW239385  10.182   1.088   5.473 -0.0587 -0.8523 -0.1528
10779SOL     OW39386   7.946   7.529   6.497 -0.0348 -0.0484  0.4167
10779SOL    HW139387   7.962   7.619   6.470 -0.9706  0.3455  1.1564
10779SOL    HW239388   7.949   7.531   6.593  0.2695 -0.8707  0.4395
10780SOL     OW39389   2.004  12.326   3.115 -0.2089 -0.0968 -0.1635
10780SOL    HW139390   1.930  12.266   3.111 -0.5659  0.3749 -0.9189
10780SOL    HW239391   2.038  12.327   3.025 -0.0319  0.6089 -0.0918
10781SOL     OW39392   3.645   8.217   4.570 -0.1867  0.4014  0.0291
10781SOL    HW139393   3.584   8.174   4.510  2.0504  0.3229 -2.3788
10781SOL    HW239394   3.707   8.148   4.595 -0.9626  0.4738  2.4158
10782SOL     OW39395   1.933   7.811   6.250  0.0910 -0.1793  0.2969
10782SOL    HW139396   1.929   7.721   6.217 -0.0530 -0.0840  0.0489
10782SOL    HW239397   1.921   7.802   6.345 -0.8229 -0.3556  0.1786
10783SOL     OW39398   0.852  10.261   5.904 -0.4319 -0.5900  0.5853
10783SOL    HW139399   0.811  10.326   5.961 -2.5986 -1.7217  0.4198
10783SOL    HW239400   0.881  10.192   5.963 -0.1442 -0.5059  0.5479
10784SOL     OW39401  11.536   6.124  11.661 -0.7456 -0.4198  0.1663
10784SOL    HW139402  11.469   6.061  11.689 -1.3554  0.0602 -0.1747
10784SOL    HW239403  11.577   6.153  11.743 -0.6483 -1.0549  0.3443
10785SOL     OW39404   7.945   3.223   3.334 -0.2425 -0.4486 -0.1840
10785SOL    HW139405   7.960   3.318   3.335  2.7876 -0.7314  2.8371
10785SOL    HW239406   7.966   3.196   3.245  3.0900  1.3628 -0.1154
10786SOL     OW39407  10.327   8.384  11.947  0.0037  0.2764  0.1200
10786SOL    HW139408  10.328   8.338  11.863  2.1500 -0.8763  0.6905
10786SOL    HW239409  10.390   8.456  11.936  0.2579  0.1532  0.6857
10787SOL     OW39410  11.221   8.600   8.847 -0.4816 -0.2598  0.2480
10787SOL    HW139411  11.148   8.631   8.793  0.6730 -2.5279 -2.9624
10787SOL    HW239412  11.197   8.509   8.868  0.8847 -0.6760  0.0913
10788SOL     OW39413  12.267   2.966   3.477 -0.0208  0.0968 -0.5745
10788SOL    HW139414  12.239   3.037   3.535 -0.4979 -0.7872  0.3127
10788SOL    HW239415  12.188   2.912   3.467 -0.2169  0.7009 -2.7945
10789SOL     OW39416  12.371   6.665   6.363 -0.0847 -0.2231  0.1346
10789SOL    HW139417  12.346   6.757   6.349 -2.5127 -0.7285  0.7423
10789SOL    HW239418  12.466   6.668   6.376 -0.2608  2.3623  1.4641
10790SOL     OW39419   3.886  11.563  10.069 -0.2843  0.0434 -0.1777
10790SOL    HW139420   3.893  11.614  10.149 -1.0361  2.3965 -1.5185
10790SOL    HW239421   3.921  11.477  10.093  2.4008  1.5153  1.8401
10791SOL     OW39422   6.296   4.532   2.221 -0.3168 -0.4049 -0.3910
10791SOL    HW139423   6.330   4.445   2.198 -1.6042 -0.6264 -1.5693
10791SOL    HW239424   6.272   4.525   2.313  0.7764 -0.8964 -0.1253
10792SOL     OW39425   0.709  12.335   8.695 -0.0792  0.4775 -0.1638
10792SOL    HW139426   0.743  12.246   8.703 -0.5430  0.3833  0.9751
10792SOL    HW239427   0.615  12.323   8.679 -0.1374  0.7562 -0.0367
10793SOL     OW39428   9.167   9.456   0.543 -0.0622  0.9005 -0.5012
10793SOL    HW139429   9.148   9.366   0.568 -0.4308  0.7135 -1.3822
10793SOL    HW239430   9.149   9.458   0.448 -0.8231  2.0893 -0.3541
10794SOL     OW39431   0.672   7.156   0.780  0.0789  0.1422 -0.2721
10794SOL    HW139432   0.748   7.164   0.722  0.1506 -0.6729 -0.3000
10794SOL    HW239433   0.660   7.244   0.815 -0.5339  0.8941 -2.2324
10795SOL     OW39434   0.424  11.498   5.839  0.4924 -0.2608 -0.0772
10795SOL    HW139435   0.347  11.442   5.834  0.8232 -0.6823 -0.5510
10795SOL    HW239436   0.439  11.511   5.933 -0.9845  1.0040  0.0274
10796SOL     OW39437   4.566   1.548  10.015  0.0079  0.6622 -0.1630
10796SOL    HW139438   4.479   1.509  10.010  0.5265 -0.5480 -0.1458
10796SOL    HW239439   4.559   1.628   9.964 -1.2976  0.9399  0.4049
10797SOL     OW39440   4.658   6.876   9.108 -0.0269 -0.3952 -0.2441
10797SOL    HW139441   4.591   6.900   9.173 -0.5862 -1.7544 -0.2945
10797SOL    HW239442   4.705   6.958   9.091  1.5403 -0.3459  3.4416
10798SOL     OW39443   3.450   6.136   6.983 -0.4469 -0.3086 -0.1512
10798SOL    HW139444   3.452   6.208   6.920 -0.2820  0.5731  0.8193
10798SOL    HW239445   3.428   6.179   7.066  0.6505 -1.2218  0.6354
10799SOL     OW39446   6.678   8.884   3.067 -0.5419  0.4347 -0.4824
10799SOL    HW139447   6.724   8.963   3.094 -2.3222  0.6320  2.4222
10799SOL    HW239448   6.595   8.916   3.030 -1.4614 -0.0156  1.1096
10800SOL     OW39449  12.210   5.379   4.265  0.3588 -0.3482 -0.2208
10800SOL    HW139450  12.305   5.368   4.273  0.3370 -0.7301 -0.4517
10800SOL    HW239451  12.184   5.311   4.203 -0.1639 -0.6829  0.3624
10801SOL     OW39452   6.787   0.387   5.524  0.2585  0.1075  0.0247
10801SOL    HW139453   6.697   0.385   5.556  0.0919 -0.2878 -0.4632
10801SOL    HW239454   6.782   0.358   5.433  0.9678 -0.6913  0.2216
10802SOL     OW39455   3.160  12.285  11.894  0.7551  0.2183 -0.2928
10802SOL    HW139456   3.179  12.359  11.951  1.1668 -0.2853  0.2406
10802SOL    HW239457   3.237  12.276  11.839  0.6384  0.2882 -0.4678
10803SOL     OW39458   8.489  11.594  11.395  0.0625  0.2349 -0.9014
10803SOL    HW139459   8.558  11.642  11.441 -1.9737  0.3341  2.3287
10803SOL    HW239460   8.533  11.515  11.362  2.1648  1.3628 -0.9794
10804SOL     OW39461   5.825   0.512   6.249 -0.1674 -0.3304  0.2163
10804SOL    HW139462   5.901   0.479   6.201  0.7590  0.1322  1.3175
10804SOL    HW239463   5.752   0.459   6.217  0.3546  0.1491 -1.8797
10805SOL     OW39464   8.382   5.649   0.309  0.0986 -0.5129 -0.0839
10805SOL    HW139465   8.449   5.594   0.270  1.2636  0.7514  0.0450
10805SOL    HW239466   8.387   5.632   0.403 -0.3709 -1.0569 -0.1534
10806SOL     OW39467   4.285   1.475   6.563  0.0005 -0.5839 -0.0673
10806SOL    HW139468   4.275   1.567   6.587  0.6450 -0.9129  1.5943
10806SOL    HW239469   4.338   1.477   6.483 -1.3984  0.5274 -1.0135
10807SOL     OW39470   4.095   4.809   8.166 -0.2882  0.0608  0.2073
10807SOL    HW139471   4.135   4.726   8.192  0.8681 -0.3512 -2.6210
10807SOL    HW239472   4.003   4.786   8.150 -0.2731 -0.3634  0.6626
10808SOL     OW39473   8.034   8.128  10.176  0.2052 -0.7674  0.1990
10808SOL    HW139474   8.050   8.161  10.264  0.4346 -0.2052 -0.0537
10808SOL    HW239475   8.095   8.055  10.167 -0.3926 -1.3599  0.8023
10809SOL     OW39476   1.088   9.833   2.324 -0.6918  0.0954  0.5812
10809SOL    HW139477   1.036   9.877   2.391  1.3005 -0.3751  2.5200
10809SOL    HW239478   1.173   9.877   2.326 -0.4401 -0.2162 -1.3645
10810SOL     OW39479   2.716   0.411   7.219 -0.0055 -0.1735 -0.6529
10810SOL    HW139480   2.757   0.360   7.289 -0.0888  0.8680  0.1995
10810SOL    HW239481   2.778   0.406   7.146  1.2136  0.5854  0.2787
10811SOL     OW39482  11.943   6.888  11.394  0.1806 -0.1152 -0.0035
10811SOL    HW139483  11.864   6.866  11.345 -0.6151 -0.3160  1.3020
10811SOL    HW239484  11.913   6.951  11.460  1.3089  0.5419 -0.0981
10812SOL     OW39485   4.160   8.629   5.644  0.1387  0.4341  0.0149
10812SOL    HW139486   4.176   8.599   5.733 -2.3092 -1.4020 -0.0638
10812SOL    HW239487   4.071   8.664   5.645 -0.3721 -0.6427 -1.8876
10813SOL     OW39488   5.071   6.319   0.843 -0.1407 -0.3040  0.4012
10813SOL    HW139489   5.061   6.391   0.904  0.2765  1.9837 -2.0291
10813SOL    HW239490   5.164   6.322   0.817 -0.4871 -0.5696 -0.9846
10814SOL     OW39491  10.926   0.225   3.314  0.4766 -0.3131 -0.0015
10814SOL    HW139492  10.843   0.269   3.297  1.2552  2.0448  1.7590
10814SOL    HW239493  10.925   0.207   3.408  1.6247 -0.9884 -0.1046
10815SOL     OW39494   7.529   5.103   3.337 -0.4162  0.4007  0.2094
10815SOL    HW139495   7.506   5.196   3.332  0.1877  0.4992 -0.9615
10815SOL    HW239496   7.471   5.061   3.275 -0.8918 -0.0659  0.9524
10816SOL     OW39497   7.907   1.641   3.418 -0.2296 -0.1878 -1.2753
10816SOL    HW139498   7.896   1.669   3.509  1.5678  2.1177 -1.6520
10816SOL    HW239499   7.845   1.570   3.407 -0.9865 -0.0960  1.5561
10817SOL     OW39500   5.679   2.591   9.561  0.1813 -0.4501 -0.2069
10817SOL    HW139501   5.698   2.577   9.654 -0.7605  1.0034  0.2370
10817SOL    HW239502   5.686   2.504   9.522  0.4190 -1.1166  1.2539
10818SOL     OW39503  11.029   0.041   3.132  0.3090 -0.1150  0.1518
10818SOL    HW139504  11.105   0.099   3.135  1.1273 -1.1853  0.8042
10818SOL    HW239505  10.965   0.082   3.190  0.3332  0.8488 -0.4849
10819SOL     OW39506   7.710   4.935  11.044  0.5154  0.0879  0.3387
10819SOL    HW139507   7.799   4.967  11.053  0.0812  1.5294 -0.1461
10819SOL    HW239508   7.686   4.904  11.131  2.1942 -2.4109  0.0167
10820SOL     OW39509   7.498   9.180  11.024 -0.2179 -0.5144 -0.3483
10820SOL    HW139510   7.487   9.265  10.981  1.8644  0.2250  0.4789
10820SOL    HW239511   7.542   9.126  10.959 -0.7486 -0.7127 -0.5552
10821SOL     OW39512   5.124   9.632   3.481  0.1103 -0.0035 -0.1098
10821SOL    HW139513   5.129   9.710   3.425 -0.9996 -0.2357 -0.5498
10821SOL    HW239514   5.152   9.662   3.567  0.6788  0.6410 -0.5125
10822SOL     OW39515   7.940   2.868   4.152 -0.4357  0.0550  0.3723
10822SOL    HW139516   7.977   2.794   4.200  1.5860  0.3186 -0.6901
10822SOL    HW239517   7.981   2.946   4.191 -0.8752  0.4590  0.0473
10823SOL     OW39518  10.628   5.721   8.240  0.3667 -0.0571 -0.1479
10823SOL    HW139519  10.712   5.725   8.286  0.7454  0.0348 -0.8362
10823SOL    HW239520  10.650   5.690   8.152 -0.4051 -0.6730 -0.1311
10824SOL     OW39521   2.388   7.955   1.262 -0.7189 -0.1297 -0.0644
10824SOL    HW139522   2.398   7.866   1.229 -1.8722  0.7340 -3.1450
10824SOL    HW239523   2.298   7.958   1.296 -0.1632 -0.4997  1.5212
10825SOL     OW39524  11.124   3.471   0.776 -0.5030  0.0038 -0.2141
10825SOL    HW139525  11.121   3.375   0.773 -1.4785 -0.0074  0.5919
10825SOL    HW239526  11.202   3.491   0.828 -2.0244 -0.4694  2.4383
10826SOL     OW39527   9.797   1.069   0.825 -0.3349  0.4684 -0.3641
10826SOL    HW139528   9.708   1.048   0.851 -1.0187  2.0664 -1.2339
10826SOL    HW239529   9.787   1.118   0.743  1.4066 -0.1349 -0.9726
10827SOL     OW39530   7.912  12.025  10.335  0.7808  0.2520 -0.3725
10827SOL    HW139531   7.817  12.014  10.346  0.6607  1.6936  0.3770
10827SOL    HW239532   7.928  12.009  10.242 -0.2356  0.1755 -0.5426
10828SOL     OW39533   6.027   1.233   6.461  0.5483  0.4104 -0.4409
10828SOL    HW139534   6.070   1.314   6.488  0.7844  0.6303 -1.4484
10828SOL    HW239535   5.964   1.260   6.394  0.2858 -0.1824 -0.4453
10829SOL     OW39536   2.571   3.834   6.684 -0.2357 -0.0099 -0.0675
10829SOL    HW139537   2.482   3.850   6.716 -0.5062 -1.5562  0.0388
10829SOL    HW239538   2.573   3.740   6.667  0.6907  0.3432 -2.2033
10830SOL     OW39539   1.564   2.789   3.609 -0.2596 -0.2222  0.2961
10830SOL    HW139540   1.597   2.824   3.526 -0.2968  0.9303  0.7540
10830SOL    HW239541   1.634   2.807   3.672  0.1186 -1.8177  0.3771
10831SOL     OW39542   5.738   6.575   0.660 -0.3885  0.6212  0.3763
10831SOL    HW139543   5.820   6.556   0.705  0.0474 -1.2501 -1.1244
10831SOL    HW239544   5.723   6.669   0.677  1.1323  0.6126  2.0808
10832SOL     OW39545   2.573   0.222   0.337  0.1755  0.3081 -0.2880
10832SOL    HW139546   2.562   0.150   0.399  1.8263 -0.6335 -1.0215
10832SOL    HW239547   2.667   0.243   0.341  0.1512  0.8219 -1.8138
10833SOL     OW39548   9.293   8.224   6.370 -0.3630 -0.2900  0.9771
10833SOL    HW139549   9.267   8.254   6.457 -0.3673  0.7778  0.6228
10833SOL    HW239550   9.215   8.179   6.337 -0.5872 -0.1306  1.2731
10834SOL     OW39551  12.510   7.744   8.175  0.1436  0.1653  0.1947
10834SOL    HW139552  12.578   7.810   8.192  1.1109  0.1176 -2.8983
10834SOL    HW239553  12.542   7.666   8.220  1.1445  0.6677  0.4014
10835SOL     OW39554   5.260   8.911  10.819  0.3850 -0.5566  0.2731
10835SOL    HW139555   5.200   8.860  10.765  0.3474  0.0673 -0.2884
10835SOL    HW239556   5.207   8.983  10.854  0.6435 -0.3830  0.3169
10836SOL     OW39557   4.074   2.597   8.086  0.1944  0.7670  0.2080
10836SOL    HW139558   4.001   2.600   8.149 -0.6905  0.4618 -0.7684
10836SOL    HW239559   4.098   2.504   8.083 -0.5752  0.5763 -0.7651
10837SOL     OW39560   2.171   7.218   0.723 -0.2080 -0.7618  0.5532
10837SOL    HW139561   2.098   7.272   0.753 -0.5448 -0.9956  0.1677
10837SOL    HW239562   2.233   7.218   0.796  0.3954  1.2027  0.1025
10838SOL     OW39563   6.615   3.862  11.925 -0.5574  0.6138  0.0857
10838SOL    HW139564   6.708   3.876  11.942 -0.2012 -1.0319 -0.3153
10838SOL    HW239565   6.603   3.883  11.833  0.3848 -3.0886 -1.0573
10839SOL     OW39566  10.100   4.702   6.404 -0.2032 -0.5865  0.0351
10839SOL    HW139567  10.046   4.716   6.326 -1.6492 -2.8545  0.5352
10839SOL    HW239568  10.090   4.609   6.424  2.3903 -0.6800  1.3213
10840SOL     OW39569   9.627   6.097   3.069  0.1681  0.4134  0.2361
10840SOL    HW139570   9.669   6.104   2.983  1.3377 -0.7056  0.6944
10840SOL    HW239571   9.674   6.159   3.124  2.1925 -1.7511  1.0851
10841SOL     OW39572  11.801   2.090   9.133  0.5126  0.6195 -0.5973
10841SOL    HW139573  11.762   2.085   9.045 -3.3284  1.4363  0.8866
10841SOL    HW239574  11.780   2.006   9.174  0.8595  0.8694  0.1104
10842SOL     OW39575   7.619   0.937   1.196 -0.7027 -0.3253  0.0363
10842SOL    HW139576   7.677   1.004   1.232 -1.7843  0.2299  0.8138
10842SOL    HW239577   7.539   0.985   1.173 -1.3802 -1.2885  0.3257
10843SOL     OW39578  11.391  11.105  11.843 -0.2329  0.5190 -0.5712
10843SOL    HW139579  11.458  11.042  11.869  0.3884 -0.3449 -3.8692
10843SOL    HW239580  11.438  11.187  11.828  0.1795 -0.0481 -2.7371
10844SOL     OW39581   0.479   7.463   2.313  0.1797 -0.8277 -0.1789
10844SOL    HW139582   0.392   7.466   2.353 -0.7511 -2.7736 -1.9009
10844SOL    HW239583   0.537   7.438   2.385 -0.5011  1.1383  1.1435
10845SOL     OW39584   8.678   8.924   7.791  0.1181  0.4513  0.4982
10845SOL    HW139585   8.697   8.945   7.700  1.1477 -2.4429 -0.0879
10845SOL    HW239586   8.709   8.999   7.841  1.3627  1.2767 -1.4205
10846SOL     OW39587  11.932   5.774   3.801 -0.2417 -0.8486 -0.2561
10846SOL    HW139588  11.909   5.780   3.894 -0.7430 -0.8769 -0.3760
10846SOL    HW239589  11.886   5.696   3.771  0.0943 -0.9582 -0.4786
10847SOL     OW39590   8.131  11.130   6.103 -0.5081  0.4384 -0.4213
10847SOL    HW139591   8.100  11.133   6.194  0.5368 -0.1876 -0.0329
10847SOL    HW239592   8.051  11.141   6.051 -1.2407  0.0123  0.5628
10848SOL     OW39593   9.574   6.397   2.973  0.0648  0.1003  0.1543
10848SOL    HW139594   9.538   6.367   2.889 -2.8803  0.1606  1.2868
10848SOL    HW239595   9.667   6.408   2.956 -0.6095  1.6626 -3.6032
10849SOL     OW39596  10.833   6.077   0.015  0.3767  0.0296  0.7358
10849SOL    HW139597  10.919   6.118   0.025  0.5804  0.0218 -0.7928
10849SOL    HW239598  10.772   6.140   0.053  0.8190  1.1879 -0.4179
10850SOL     OW39599   3.999   3.989   5.982 -0.1625  0.0028 -0.3437
10850SOL    HW139600   3.990   3.983   5.887 -1.3361  0.0653 -0.2477
10850SOL    HW239601   3.945   3.918   6.017  0.3192 -0.0696  0.2777
10851SOL     OW39602   9.837   2.377   1.535 -0.3331  0.2002  0.2103
10851SOL    HW139603   9.811   2.310   1.598 -0.5407 -0.3116 -0.4052
10851SOL    HW239604   9.930   2.359   1.518 -0.2996  0.2810  0.3059
10852SOL     OW39605   7.354   7.620   6.657 -0.3779  0.3066 -0.2191
10852SOL    HW139606   7.438   7.578   6.678  0.8385  1.0737 -3.1105
10852SOL    HW239607   7.300   7.550   6.622 -0.5960  0.0202  0.6583
10853SOL     OW39608   0.269   0.538   0.903 -0.0355 -0.5835  0.1942
10853SOL    HW139609   0.328   0.568   0.972 -1.0313 -0.2937  0.9504
10853SOL    HW239610   0.282   0.601   0.832  0.1237 -0.1640  0.5884
10854SOL     OW39611   7.320   6.843   3.803  0.2247 -0.5590  0.2162
10854SOL    HW139612   7.381   6.771   3.822  0.5459 -0.0241  1.2972
10854SOL    HW239613   7.351   6.915   3.858  0.9945  1.0203 -2.1390
10855SOL     OW39614   3.876   8.393   2.718 -0.4425  0.4991 -0.6732
10855SOL    HW139615   3.923   8.476   2.708 -1.7810  1.1816 -1.6229
10855SOL    HW239616   3.944   8.329   2.739  0.6604  1.7697 -0.2321
10856SOL     OW39617  10.439   9.711   6.370 -0.0814 -0.0679  0.2720
10856SOL    HW139618  10.486   9.650   6.313  1.7781  1.4688  0.0613
10856SOL    HW239619  10.506   9.773   6.399 -1.8032  1.6438  0.7846
10857SOL     OW39620   0.464   5.260   6.511  0.1074 -0.3754  0.1438
10857SOL    HW139621   0.444   5.353   6.514  0.1031 -0.3730  0.0459
10857SOL    HW239622   0.421   5.223   6.588 -0.4691 -0.4089 -0.1842
10858SOL     OW39623   2.677   0.580   9.452 -0.1003 -0.2120  0.4719
10858SOL    HW139624   2.620   0.643   9.496  1.1919  1.0703  0.3856
10858SOL    HW239625   2.741   0.634   9.405  2.4246 -1.5420  2.1618
10859SOL     OW39626  12.489   3.461   9.572 -0.0551 -0.2195  0.1772
10859SOL    HW139627  12.540   3.497   9.644  0.4508 -0.9989  0.2295
10859SOL    HW239628  12.399   3.460   9.604  0.0187  0.3769  0.4115
10860SOL     OW39629   8.358   0.063   5.210  0.2932  0.0201  0.8065
10860SOL    HW139630   8.289   0.084   5.273 -1.4226 -1.5719 -0.4527
10860SOL    HW239631   8.313   0.059   5.126  2.1768  0.1485 -0.2593
10861SOL     OW39632   0.317   1.849   1.608  0.1200 -0.2240 -0.0290
10861SOL    HW139633   0.339   1.758   1.591 -1.0062 -0.1293 -2.4728
10861SOL    HW239634   0.396   1.898   1.586  0.4319 -0.5338  0.4002
10862SOL     OW39635   2.238   3.105   6.888  0.5495  0.0784  0.0899
10862SOL    HW139636   2.309   3.068   6.942 -0.0149 -0.7405  0.2906
10862SOL    HW239637   2.249   3.063   6.803 -0.0011 -0.4569  0.2731
10863SOL     OW39638   7.340   8.482   9.311  0.3176 -0.4534  0.2361
10863SOL    HW139639   7.302   8.403   9.348 -0.6010  0.4040  1.1865
10863SOL    HW239640   7.368   8.533   9.387  1.1047  0.0397 -0.3668
10864SOL     OW39641   8.582   5.768   4.056  0.1194  0.6155 -0.0809
10864SOL    HW139642   8.637   5.777   3.978 -1.2708  0.3448 -1.1224
10864SOL    HW239643   8.510   5.711   4.030 -0.2295  0.2595  1.5029
10865SOL     OW39644   3.806   2.106   4.909 -0.7262  0.1350  0.4540
10865SOL    HW139645   3.881   2.053   4.883  1.2983  2.2653  1.5400
10865SOL    HW239646   3.807   2.103   5.005 -2.2893 -0.0612  0.4919
10866SOL     OW39647   0.401   5.887   4.977 -0.0812  0.1882  0.2383
10866SOL    HW139648   0.308   5.878   4.956 -0.0944 -0.1670  0.4374
10866SOL    HW239649   0.447   5.871   4.895 -0.2342  1.4958 -0.1290
10867SOL     OW39650   3.914   5.194   9.048  0.2822 -0.1864 -0.8381
10867SOL    HW139651   3.910   5.272   9.104 -0.0944 -1.1850  0.5704
10867SOL    HW239652   3.825   5.187   9.011  0.1846 -0.1969 -0.6048
10868SOL     OW39653   8.595   3.419   0.178  1.0383 -0.1578  0.5460
10868SOL    HW139654   8.602   3.332   0.217  1.6467 -1.1004 -1.4931
10868SOL    HW239655   8.551   3.403   0.094  0.6871  1.5789  0.3768
10869SOL     OW39656   1.150   8.484   8.585  0.2256 -0.5694  0.1733
10869SOL    HW139657   1.061   8.509   8.561  1.2195  2.3604 -0.9337
10869SOL    HW239658   1.195   8.471   8.502  1.3399  0.2021  0.6293
10870SOL     OW39659   0.805   2.270  12.019  0.5017 -0.2502  0.3465
10870SOL    HW139660   0.877   2.299  11.962  0.1202 -0.4308 -0.2369
10870SOL    HW239661   0.767   2.352  12.051  0.5129 -0.1387  0.0810
10871SOL     OW39662   2.231   7.365   7.073  0.5080 -0.8382 -0.8496
10871SOL    HW139663   2.243   7.292   7.133  0.6851 -0.4545 -0.4055
10871SOL    HW239664   2.206   7.438   7.130  3.5635  0.3337 -0.8356
10872SOL     OW39665   1.922   5.719   6.672  0.1224 -0.0157 -0.0198
10872SOL    HW139666   1.936   5.659   6.598  1.4937 -0.4422  0.5611
10872SOL    HW239667   1.840   5.690   6.712 -0.6499  0.2217 -1.3493
10873SOL     OW39668   6.454   9.258   5.722 -0.1667 -0.4824 -0.4028
10873SOL    HW139669   6.508   9.335   5.738 -0.0331 -0.7850  0.6912
10873SOL    HW239670   6.365   9.288   5.739 -0.2882 -0.1604 -1.5490
10874SOL     OW39671   7.516   3.697  11.656  0.2854 -0.0197  0.4663
10874SOL    HW139672   7.425   3.685  11.631  0.1373  1.8197 -0.0548
10874SOL    HW239673   7.558   3.613  11.636 -1.2573 -0.8548  0.6227
10875SOL     OW39674   2.230   9.281   8.915 -0.2672  0.8741 -0.3120
10875SOL    HW139675   2.311   9.266   8.866 -1.2625  1.7241 -2.3322
10875SOL    HW239676   2.162   9.238   8.863 -0.9647 -1.5002  2.3160
10876SOL     OW39677   9.293   8.533   0.924 -0.5458 -0.0258  0.0995
10876SOL    HW139678   9.224   8.600   0.926  0.1471  0.6796  1.7715
10876SOL    HW239679   9.363   8.573   0.873 -0.1217  0.5634  1.1194
10877SOL     OW39680   9.559   8.927  10.705 -0.0346 -0.3688  0.0581
10877SOL    HW139681   9.500   8.929  10.781  0.4642 -1.1302  0.4775
10877SOL    HW239682   9.617   8.853  10.722  0.8058  0.1441 -0.5284
10878SOL     OW39683  11.320   2.432   5.675  0.3905  0.1179 -0.1969
10878SOL    HW139684  11.275   2.515   5.688  0.6330  0.4745 -1.4589
10878SOL    HW239685  11.251   2.366   5.672  0.1408  0.3673  0.0620
10879SOL     OW39686   8.200   8.882   9.000 -0.1725 -0.6139 -0.1901
10879SOL    HW139687   8.261   8.830   8.947  0.7629 -0.1317  0.3874
10879SOL    HW239688   8.166   8.948   8.939  1.0422  0.0585 -0.1700
10880SOL     OW39689   4.689   5.064  12.233  0.1794 -0.2835 -0.3407
10880SOL    HW139690   4.670   5.047  12.141 -0.4130  0.5197 -0.3768
10880SOL    HW239691   4.748   5.139  12.233  1.5905 -1.3565 -0.1247
10881SOL     OW39692  11.115   3.311  10.165 -0.3805 -0.8551  0.4712
10881SOL    HW139693  11.078   3.223  10.169 -3.3297  0.2129 -0.8547
10881SOL    HW239694  11.151   3.318  10.077  0.0625 -0.7771  0.6525
10882SOL     OW39695  10.913   2.458   7.749 -0.7344  0.6312  0.1689
10882SOL    HW139696  10.937   2.537   7.797 -1.6623  1.6193 -0.9434
10882SOL    HW239697  10.822   2.441   7.773 -0.6941  0.1782  0.0231
10883SOL     OW39698   5.637   2.287   7.909 -0.1676  0.0396 -0.1735
10883SOL    HW139699   5.713   2.255   7.860 -0.6877 -1.1420 -0.2392
10883SOL    HW239700   5.597   2.208   7.946 -0.5544  0.7866  1.0595
10884SOL     OW39701   2.477   7.595  10.829 -0.2522  0.0509 -0.1652
10884SOL    HW139702   2.476   7.504  10.859 -0.3438  0.5900  1.5725
10884SOL    HW239703   2.387   7.625  10.837 -0.0048  0.6528  0.4744
10885SOL     OW39704   6.213   7.936  10.803 -0.1822 -0.2540  0.2586
10885SOL    HW139705   6.270   7.864  10.777 -1.8169 -1.1664 -0.9897
10885SOL    HW239706   6.254   8.014  10.763 -1.2582 -1.2725 -3.2337
10886SOL     OW39707   8.480   5.457   3.387  0.2887  0.0849 -0.1569
10886SOL    HW139708   8.398   5.497   3.415 -0.6171 -0.5676 -1.7611
10886SOL    HW239709   8.498   5.495   3.301  0.4297 -1.4526 -0.8425
10887SOL     OW39710  12.152  12.188   9.953 -0.4950 -0.3024  0.0232
10887SOL    HW139711  12.158  12.147  10.039 -2.7442  0.3290  0.5576
10887SOL    HW239712  12.093  12.132   9.903  0.6441 -0.5624 -1.1011
10888SOL     OW39713  12.041   2.780   3.775 -0.3641 -0.0039 -0.0851
10888SOL    HW139714  11.999   2.834   3.842 -0.4240  1.3155 -1.1341
10888SOL    HW239715  11.995   2.803   3.694  2.1058  1.2534 -1.2254
10889SOL     OW39716   9.646  11.040   0.027 -0.2635  0.5850 -0.3306
10889SOL    HW139717   9.726  11.004   0.066 -0.2393 -0.7256 -1.5166
10889SOL    HW239718   9.623  11.113   0.084  0.6134 -0.2982  1.2449
10890SOL     OW39719  11.475   3.431  12.409  0.2881 -0.1670  0.0712
10890SOL    HW139720  11.443   3.455  12.322 -0.7781 -1.6274  0.0180
10890SOL    HW239721  11.399   3.439  12.466  0.5057 -0.9864  0.5012
10891SOL     OW39722  11.150   0.376   3.405  0.5119  0.3887 -0.0396
10891SOL    HW139723  11.113   0.445   3.460 -1.8776  0.3337 -1.4326
10891SOL    HW239724  11.075   0.340   3.358  2.2726 -0.3218 -2.4848
10892SOL     OW39725  11.429   8.116   7.092 -0.9876  0.1761  0.3500
10892SOL    HW139726  11.463   8.043   7.145 -0.0447 -0.7488 -1.4356
10892SOL    HW239727  11.490   8.188   7.109 -0.6622 -0.1253  0.4655
10893SOL     OW39728  10.868   0.416   1.080 -0.4991  0.1806  0.2056
10893SOL    HW139729  10.833   0.478   1.016  0.2155 -0.0820 -0.4535
10893SOL    HW239730  10.953   0.389   1.044 -1.1331 -1.7856  0.0656
10894SOL     OW39731   1.210   1.223  12.550 -0.6756 -0.0304 -0.1570
10894SOL    HW139732   1.177   1.293  12.607  1.2662  0.2671  0.6947
10894SOL    HW239733   1.160   1.146  12.575 -0.8667  0.4325  0.9557
10895SOL     OW39734   0.015   4.518  10.597 -0.2022 -0.8463 -0.2533
10895SOL    HW139735  -0.054   4.486  10.539  1.5285 -1.9617 -1.8256
10895SOL    HW239736   0.096   4.491  10.554  1.2114 -0.1462  1.8354
10896SOL     OW39737   2.717   7.569   5.076  0.3197  0.1997 -0.5752
10896SOL    HW139738   2.628   7.561   5.041  0.0414 -0.4187  0.2473
10896SOL    HW239739   2.708   7.551   5.170  1.7684 -3.1361 -0.9341
10897SOL     OW39740   6.995   1.192   3.793  0.1810 -0.3683  0.2788
10897SOL    HW139741   6.927   1.128   3.771 -0.0892 -0.0159  0.0781
10897SOL    HW239742   7.052   1.195   3.716 -1.1192  1.3274 -0.6799
10898SOL     OW39743   6.928   5.647   2.030  0.1566  0.0233 -0.2506
10898SOL    HW139744   6.932   5.553   2.048  1.2587 -0.0644 -0.8521
10898SOL    HW239745   7.020   5.674   2.025 -0.1492  1.1069 -0.2494
10899SOL     OW39746   7.769   5.997   2.947  0.0935  0.2968  0.3551
10899SOL    HW139747   7.730   5.936   3.010 -0.1043  0.2153  0.1558
10899SOL    HW239748   7.833   5.943   2.899  1.8010  0.8366  1.8868
10900SOL     OW39749   4.613   6.610   6.173  0.0870 -0.4354 -0.0487
10900SOL    HW139750   4.596   6.598   6.267 -1.1702  3.4740  0.4113
10900SOL    HW239751   4.526   6.612   6.133  0.5566 -0.9701 -1.1265
10901SOL     OW39752   3.930   3.212   5.271  0.4144  0.6321 -0.5143
10901SOL    HW139753   3.992   3.142   5.253  1.4515  1.4248 -0.1421
10901SOL    HW239754   3.939   3.271   5.195  0.1946  0.8096 -0.4032
10902SOL     OW39755   4.379   2.085  10.276 -0.6493  0.4574  0.1331
10902SOL    HW139756   4.289   2.073  10.245 -0.7356 -0.0114  0.5557
10902SOL    HW239757   4.371   2.092  10.371 -0.3281  1.3224  0.1078
10903SOL     OW39758  10.882  11.733   4.244 -0.5525  0.5344  0.2811
10903SOL    HW139759  10.950  11.681   4.200 -0.6898 -0.4761  1.2142
10903SOL    HW239760  10.893  11.821   4.209  3.7373  1.3889  3.0094
10904SOL     OW39761   8.982   5.385   1.436 -0.1405 -0.3247 -0.3592
10904SOL    HW139762   8.915   5.417   1.496  0.7759 -0.9212  1.0322
10904SOL    HW239763   8.997   5.457   1.375  0.9161  1.4374  1.8485
10905SOL     OW39764   7.767  10.318   3.199 -0.0081  0.1950 -0.5262
10905SOL    HW139765   7.743  10.331   3.107 -0.1712  0.5687 -0.4370
10905SOL    HW239766   7.724  10.391   3.245 -2.1202 -1.3987  0.2224
10906SOL     OW39767   5.650  10.361   5.393  0.0088  0.6086  0.1310
10906SOL    HW139768   5.626  10.287   5.338  0.5186 -0.6100  1.5044
10906SOL    HW239769   5.683  10.322   5.474 -0.9833  2.3531  1.4405
10907SOL     OW39770  10.700   3.988   2.046  0.1577 -0.1249  0.5556
10907SOL    HW139771  10.705   4.005   2.140  0.2863  1.8135  0.2435
10907SOL    HW239772  10.607   3.994   2.025 -0.2498 -3.3827  0.9614
10908SOL     OW39773   5.652  11.582   3.774 -0.2428  0.1968  0.3319
10908SOL    HW139774   5.697  11.642   3.714  2.8074 -0.2841  1.9049
10908SOL    HW239775   5.607  11.520   3.717 -0.8860  2.0994 -1.3459
10909SOL     OW39776  10.270   4.379   8.947  0.2047  0.2330  0.3023
10909SOL    HW139777  10.314   4.398   9.030 -0.8610 -0.1829  0.9745
10909SOL    HW239778  10.212   4.306   8.967  0.3121 -0.2040 -0.9416
10910SOL     OW39779   1.893  11.803   8.839 -0.5040 -0.3677 -0.1947
10910SOL    HW139780   1.972  11.834   8.883 -1.5477  2.7410 -0.1976
10910SOL    HW239781   1.862  11.731   8.893  1.8019 -1.0700  0.3101
10911SOL     OW39782   4.294   5.724   4.404  0.1610 -0.4866 -0.4674
10911SOL    HW139783   4.269   5.650   4.348  1.0213  0.4129 -2.1335
10911SOL    HW239784   4.241   5.714   4.483  0.7722 -3.2796 -0.2982
10912SOL     OW39785   0.078  11.341   7.174  0.4023  0.2360  0.1685
10912SOL    HW139786   0.062  11.302   7.088 -1.2771  1.1657  0.0077
10912SOL    HW239787   0.077  11.267   7.234  3.2953 -0.6522 -0.7394
10913SOL     OW39788   6.134  12.248   3.824 -0.2148 -0.6992  0.9074
10913SOL    HW139789   6.077  12.272   3.897 -0.2560 -1.1554  1.0219
10913SOL    HW239790   6.132  12.325   3.767 -3.1400 -1.6723 -0.4837
10914SOL     OW39791   3.534   5.519   0.649 -0.7301  0.0039  0.0350
10914SOL    HW139792   3.555   5.501   0.741  0.6909  0.9593 -0.0783
10914SOL    HW239793   3.439   5.508   0.644 -1.3707  3.0738  2.3970
10915SOL     OW39794  10.212  11.878   2.005  0.2303  0.3076 -0.5582
10915SOL    HW139795  10.274  11.812   1.973  1.7412  0.3420  1.9854
10915SOL    HW239796  10.264  11.932   2.065 -1.7512  1.7916 -0.0741
10916SOL     OW39797   8.328   1.008   8.222 -0.3195  0.0925 -0.2743
10916SOL    HW139798   8.251   0.953   8.205  0.1178  0.0603 -2.4884
10916SOL    HW239799   8.296   1.098   8.209 -0.4380  0.2209  0.8279
10917SOL     OW39800  11.489   7.170  11.875  0.2271  0.2148 -0.0655
10917SOL    HW139801  11.545   7.101  11.910 -2.1002 -0.8608  1.8521
10917SOL    HW239802  11.501   7.244  11.935  2.3267  1.4486 -1.8278
10918SOL     OW39803   9.862   0.988   7.629  0.0425  0.3263  0.6784
10918SOL    HW139804   9.917   0.912   7.646 -0.5527 -0.5678 -1.1075
10918SOL    HW239805   9.818   1.005   7.712  0.9550 -0.6356  1.3829
10919SOL     OW39806  10.736   0.813   8.932 -0.5865  0.0986  0.1774
10919SOL    HW139807  10.720   0.906   8.946  0.9895  0.0732  2.6401
10919SOL    HW239808  10.652   0.771   8.951 -1.0122  0.9153  0.1359
10920SOL     OW39809  12.431   7.627   7.294  0.0371  0.0533 -0.2414
10920SOL    HW139810  12.424   7.577   7.213  0.4964  0.0987 -0.3119
10920SOL    HW239811  12.427   7.562   7.363 -1.7542  0.1282 -0.2351
10921SOL     OW39812   7.794   9.339   4.058  0.1944 -0.5372  0.3357
10921SOL    HW139813   7.830   9.270   4.113 -0.1295  1.0285  2.6734
10921SOL    HW239814   7.711   9.363   4.100 -0.3502  0.3960 -1.1540
10922SOL     OW39815   7.533   4.517   4.610 -0.0481 -0.4971  0.4457
10922SOL    HW139816   7.628   4.523   4.619 -0.1402  1.2415  0.4574
10922SOL    HW239817   7.508   4.448   4.672  1.0384  0.0775  1.5623
10923SOL     OW39818  10.255   5.423   3.817  0.4425 -0.3360  0.6443
10923SOL    HW139819  10.217   5.447   3.733  1.2689  1.4020  0.7119
10923SOL    HW239820  10.222   5.490   3.878 -0.1271 -1.5435  1.7162
10924SOL     OW39821  11.556   0.824   5.433 -0.4541 -0.4034  0.1536
10924SOL    HW139822  11.602   0.865   5.360 -0.5822 -1.7499 -0.7269
10924SOL    HW239823  11.615   0.831   5.507 -0.5885  1.5851  0.1283
10925SOL     OW39824   1.964   1.179   8.734  0.3980 -0.6086 -0.2233
10925SOL    HW139825   1.969   1.088   8.704 -0.0575 -0.4534 -0.8041
10925SOL    HW239826   2.034   1.224   8.687 -0.7920 -0.2045 -1.7270
10926SOL     OW39827  10.461   5.357   9.834  0.1321 -0.3897  0.1325
10926SOL    HW139828  10.408   5.311   9.899  0.6818  1.0097  1.6341
10926SOL    HW239829  10.402   5.423   9.797  0.1453 -0.4246  0.0484
10927SOL     OW39830   4.251   5.788   5.977 -0.1082  0.0893  0.1256
10927SOL    HW139831   4.330   5.839   5.992 -3.0231  4.5396  2.6044
10927SOL    HW239832   4.221   5.764   6.065 -1.5848 -1.3635 -0.7214
10928SOL     OW39833  10.964  11.660   8.760 -0.8534 -0.3518 -0.4813
10928SOL    HW139834  10.904  11.731   8.742  0.9454  1.2081 -0.6562
10928SOL    HW239835  11.051  11.699   8.752  0.2060 -1.7892  2.4335
10929SOL     OW39836   2.918   4.508   3.435  0.3892  0.0290  0.2196
10929SOL    HW139837   2.833   4.531   3.398  1.6627  1.6929 -1.9574
10929SOL    HW239838   2.949   4.435   3.381  0.8938  0.3241  0.1002
10930SOL     OW39839   0.794   0.563  10.170  0.2231  0.3070 -0.5201
10930SOL    HW139840   0.715   0.519  10.139 -0.5588 -0.6457  2.5300
10930SOL    HW239841   0.854   0.492  10.193  0.4143  0.9033  0.9149
10931SOL     OW39842   7.297  12.101   7.044 -0.2169  0.2595  0.1296
10931SOL    HW139843   7.378  12.051   7.051 -0.6480 -1.0877 -2.8512
10931SOL    HW239844   7.234  12.051   7.097  0.6125  0.8080  1.7029
10932SOL     OW39845   9.399   0.567   5.491 -0.5142 -0.0932  0.3097
10932SOL    HW139846   9.433   0.648   5.529 -2.5252  1.1112 -0.3017
10932SOL    HW239847   9.384   0.509   5.565  1.9161 -0.3443  0.6669
10933SOL     OW39848  10.584   1.581   4.836  0.3902  0.3374  0.2213
10933SOL    HW139849  10.544   1.620   4.758  0.0505  1.8470  1.0968
10933SOL    HW239850  10.511   1.562   4.894  0.6102 -1.1017  0.0717
10934SOL     OW39851  11.425   8.290   8.420 -0.4827  0.6496 -0.3597
10934SOL    HW139852  11.429   8.213   8.363  2.9650 -0.4363  1.0421
10934SOL    HW239853  11.460   8.362   8.366 -0.9662  0.5555 -0.7994
10935SOL     OW39854   0.785  10.463   6.717  0.3131  0.5637 -0.5596
10935SOL    HW139855   0.773  10.404   6.644  2.3556  1.3128 -1.5655
10935SOL    HW239856   0.869  10.439   6.755 -0.0547  1.1074  0.6628
10936SOL     OW39857   2.839   5.127   6.171  0.4388 -0.0433  0.4023
10936SOL    HW139858   2.818   5.058   6.109  0.5262  1.7023 -1.6955
10936SOL    HW239859   2.927   5.106   6.203  0.0977 -1.3547  0.5158
10937SOL     OW39860   0.877  11.362   7.430 -0.0161  0.2881 -0.1569
10937SOL    HW139861   0.885  11.448   7.471  0.3220  0.0533  0.2835
10937SOL    HW239862   0.963  11.346   7.390 -0.2361  0.3685 -0.6671
10938SOL     OW39863   8.337   0.236   0.914  0.1028  0.2263  0.5771
10938SOL    HW139864   8.242   0.224   0.919  0.3109 -2.1049  0.3076
10938SOL    HW239865   8.350   0.330   0.919 -2.2349  0.6141  0.4646
10939SOL     OW39866   8.307   9.840   8.345  0.1311 -0.2040 -0.4929
10939SOL    HW139867   8.255   9.763   8.323 -2.1068  1.7705 -2.6448
10939SOL    HW239868   8.265   9.877   8.423 -1.2153  0.8975 -1.7079
10940SOL     OW39869   7.172  10.415  12.245  0.5674  0.5481 -0.4083
10940SOL    HW139870   7.158  10.430  12.152  0.9970  0.6096 -0.4680
10940SOL    HW239871   7.095  10.451  12.288  0.0291 -0.1333 -0.7900
10941SOL     OW39872   9.312   6.326  11.665 -0.3569 -0.4117  0.0816
10941SOL    HW139873   9.385   6.349  11.607  1.4653 -1.0337  2.0161
10941SOL    HW239874   9.256   6.404  11.664  0.8924  0.5152 -0.5932
10942SOL     OW39875   5.329   4.041   0.569  0.1080  0.0467 -0.3624
10942SOL    HW139876   5.368   3.974   0.625  0.2439 -0.7557 -1.3815
10942SOL    HW239877   5.339   4.123   0.619  0.0428 -0.6634  0.8485
10943SOL     OW39878   7.334   5.085   6.651 -0.3493  0.3956  0.3454
10943SOL    HW139879   7.333   5.161   6.709  0.3918  0.0488  0.8296
10943SOL    HW239880   7.301   5.013   6.705 -1.7522  0.5064 -0.3298
10944SOL     OW39881   0.322   5.665  10.532 -0.0440  0.2448 -1.0493
10944SOL    HW139882   0.340   5.748  10.490  0.8178  0.5287 -0.1671
10944SOL    HW239883   0.358   5.599  10.473  1.9174  0.6820 -0.4129
10945SOL     OW39884   4.976   2.330  10.197  0.2294 -0.6046  0.0481
10945SOL    HW139885   4.998   2.246  10.157  1.1630 -0.7285  0.7787
10945SOL    HW239886   4.891   2.353  10.159  0.0672 -1.7554 -0.3404
10946SOL     OW39887  12.524   5.041  10.316  0.7689 -0.0698  0.3394
10946SOL    HW139888  12.554   5.008  10.231  2.0213 -1.2419  1.1915
10946SOL    HW239889  12.489   5.128  10.297  2.0866  0.1734 -1.1893
10947SOL     OW39890   6.300  10.731   1.030 -0.3608 -0.1855  0.0746
10947SOL    HW139891   6.388  10.762   1.047 -0.6060 -0.4622  2.1451
10947SOL    HW239892   6.287  10.743   0.936  1.5026  0.7839 -0.0912
10948SOL     OW39893  11.582   9.537   7.534  0.7208 -0.0421  0.3951
10948SOL    HW139894  11.578   9.557   7.628 -0.0948  1.5947  0.0412
10948SOL    HW239895  11.493   9.511   7.512  1.2279 -1.8587  0.3343
10949SOL     OW39896  11.147   3.813   1.020  0.3135  0.0334 -1.1637
10949SOL    HW139897  11.155   3.882   0.953 -1.5745  0.0576 -1.4310
10949SOL    HW239898  11.084   3.752   0.983 -0.6263 -0.0577  0.5029
10950SOL     OW39899   0.923  10.035   6.431  0.6443  0.1211  0.4807
10950SOL    HW139900   0.912   9.945   6.462  1.4180 -0.4921 -0.9254
10950SOL    HW239901   0.886  10.034   6.343  0.4488  1.2470  0.5449
10951SOL     OW39902   8.928   9.738   7.266  0.1087 -0.4076 -0.0988
10951SOL    HW139903   8.833   9.735   7.254  0.0196  1.3040  0.0249
10951SOL    HW239904   8.942   9.702   7.353 -0.3165 -1.5011 -0.4530
10952SOL     OW39905  11.594   4.592   8.790  0.3986  0.1770 -0.3372
10952SOL    HW139906  11.552   4.582   8.705  0.2843 -0.9865 -0.1583
10952SOL    HW239907  11.555   4.671   8.827 -0.1254  0.2558 -1.0376
10953SOL     OW39908  10.575  12.522   6.924 -0.4942  0.4152 -0.0890
10953SOL    HW139909  10.570  12.580   6.849 -2.6976  0.3233 -0.0832
10953SOL    HW239910  10.487  12.484   6.932  0.6323 -2.4012  0.3259
10954SOL     OW39911  11.088   0.522  11.632  0.3726  0.1596 -0.0635
10954SOL    HW139912  11.050   0.441  11.665 -1.3224  0.9014 -0.1238
10954SOL    HW239913  11.141   0.496  11.557  1.5797 -1.1284  1.1693
10955SOL     OW39914   8.641  11.236   7.976 -0.1519 -0.4443 -0.1553
10955SOL    HW139915   8.662  11.330   7.970  0.6938 -0.7028 -2.1123
10955SOL    HW239916   8.695  11.205   8.049 -0.3903  0.5603  0.4789
10956SOL     OW39917  12.438  12.027   2.319  0.3395  0.4037 -0.5177
10956SOL    HW139918  12.416  12.015   2.412  1.0889 -0.6130 -0.4536
10956SOL    HW239919  12.421  12.119   2.302 -1.3316  0.2748  0.2224
10957SOL     OW39920  10.444  11.000  11.931  0.1335  0.2029 -0.3567
10957SOL    HW139921  10.380  11.067  11.906 -0.5945 -0.2715  0.2014
10957SOL    HW239922  10.436  10.994  12.026  0.5483 -0.3290 -0.3537
10958SOL     OW39923  10.822   1.707   4.870 -0.0016  0.1925  0.0459
10958SOL    HW139924  10.748   1.649   4.891 -1.2377  0.7009 -2.5174
10958SOL    HW239925  10.784   1.776   4.815  2.1426  1.2942 -0.1691
10959SOL     OW39926   7.145   2.916   6.232  0.4881  0.4219 -0.5676
10959SOL    HW139927   7.087   2.840   6.221 -0.7614  1.3705 -0.7254
10959SOL    HW239928   7.089   2.991   6.213  1.4555  1.4467  0.5358
10960SOL     OW39929   4.151   1.173   1.463 -0.6670  0.0400  0.0032
10960SOL    HW139930   4.101   1.184   1.383 -1.7057 -1.1054  0.4750
10960SOL    HW239931   4.242   1.180   1.435 -1.0420  1.1829 -1.0216
10961SOL     OW39932   1.863   4.953  11.256  0.0206 -0.1371  0.0316
10961SOL    HW139933   1.952   4.933  11.225  0.9146  1.1749  1.5589
10961SOL    HW239934   1.806   4.897  11.204  1.8261 -1.7888 -0.3016
10962SOL     OW39935   2.386   2.353   6.148  0.0798  0.2105 -0.0364
10962SOL    HW139936   2.461   2.302   6.120  0.5500  0.3175  0.9846
10962SOL    HW239937   2.310   2.299   6.127  0.2095  1.1672 -3.4787
10963SOL     OW39938   9.770  12.001   6.357  0.8309  0.0732  0.1069
10963SOL    HW139939   9.706  12.034   6.294 -0.5177  1.5191  2.0913
10963SOL    HW239940   9.738  11.913   6.379  0.4466  0.1521 -0.1275
10964SOL     OW39941   6.870   9.540  11.434  0.2841  0.2795  0.3601
10964SOL    HW139942   6.933   9.474  11.462  0.7082  0.3881 -0.3187
10964SOL    HW239943   6.785   9.506  11.461  0.4226 -0.8716 -0.5838
10965SOL     OW39944  12.339   3.327   2.326 -0.2257  0.3319 -0.0525
10965SOL    HW139945  12.294   3.338   2.410  1.7449  1.2275  0.9484
10965SOL    HW239946  12.428   3.301   2.349  0.8078  2.0315 -1.7635
10966SOL     OW39947   3.415  10.413   0.496 -0.1525 -0.2990  0.0649
10966SOL    HW139948   3.356  10.453   0.559 -0.7509  0.6867 -1.0884
10966SOL    HW239949   3.374  10.329   0.474  0.4272 -0.9980  1.4785
10967SOL     OW39950   1.155   7.275   8.632 -0.2642  0.5597  0.4175
10967SOL    HW139951   1.082   7.223   8.666 -0.5233  0.9114  0.3925
10967SOL    HW239952   1.215   7.282   8.706 -0.4506  0.6343  0.5610
10968SOL     OW39953   6.418   4.305   7.626 -0.2516  0.1710  0.3648
10968SOL    HW139954   6.381   4.367   7.564 -0.6608 -0.3673  0.0682
10968SOL    HW239955   6.353   4.299   7.696 -1.8483 -2.4437 -1.1978
10969SOL     OW39956   3.935  11.071   4.961  0.4293 -0.2477  0.5376
10969SOL    HW139957   3.902  10.987   4.995  0.0361 -0.3349 -0.0597
10969SOL    HW239958   3.859  11.130   4.964  0.7156  0.1072  0.9970
10970SOL     OW39959   5.371   4.021   3.169 -0.1521  0.3135  0.7881
10970SOL    HW139960   5.392   3.964   3.242  1.1034 -2.0463 -1.2574
10970SOL    HW239961   5.291   3.983   3.132 -0.4748  1.1514  0.6105
10971SOL     OW39962   9.923  11.338   7.710 -0.2502  0.3619 -0.2764
10971SOL    HW139963   9.970  11.353   7.792  0.5692 -0.8346 -0.5098
10971SOL    HW239964   9.958  11.256   7.676 -0.9427  0.5735 -1.5813
10972SOL     OW39965   4.531   4.009   2.065 -0.0455 -0.1222  0.3166
10972SOL    HW139966   4.534   3.914   2.054  1.7265  0.0379 -0.9092
10972SOL    HW239967   4.612   4.041   2.024 -1.0506  1.9964 -0.1602
10973SOL     OW39968  10.218   4.045  12.246 -0.1479  0.4657  0.6272
10973SOL    HW139969  10.168   4.083  12.318 -1.5405 -0.6443  0.2917
10973SOL    HW239970  10.153   3.999  12.194  0.8327  1.1791 -1.3190
10974SOL     OW39971   5.132   2.895   9.043 -0.0361 -0.0698 -0.3693
10974SOL    HW139972   5.200   2.872   8.980 -1.1187  0.6347 -1.8600
10974SOL    HW239973   5.104   2.983   9.018 -1.4944 -0.3384  0.1664
10975SOL     OW39974   3.625   1.377  10.930  0.0852 -0.2784 -0.6203
10975SOL    HW139975   3.531   1.395  10.938 -0.0244  0.4827 -2.8876
10975SOL    HW239976   3.660   1.396  11.017 -2.1100 -2.5897  0.9054
10976SOL     OW39977   1.502   7.879   2.076 -0.0082  0.1618 -0.3422
10976SOL    HW139978   1.508   7.789   2.043  1.2582 -0.7774  2.2175
10976SOL    HW239979   1.557   7.930   2.016  0.3821 -1.0068 -1.0090
10977SOL     OW39980   0.758   3.306   5.022 -0.3815 -0.5483  0.2337
10977SOL    HW139981   0.771   3.337   4.933  1.6167 -1.5891  0.0973
10977SOL    HW239982   0.809   3.367   5.077  0.5478 -1.3974  0.3475
10978SOL     OW39983   2.446   5.921   6.320 -0.5343  0.2485 -0.0678
10978SOL    HW139984   2.435   5.992   6.257  0.1010  0.9380  0.5831
10978SOL    HW239985   2.358   5.884   6.330 -0.4990 -0.5034 -2.0542
10979SOL     OW39986   5.053   3.714   4.705  0.4375  0.0663 -0.5865
10979SOL    HW139987   5.072   3.807   4.716  0.5179  0.0620 -0.6857
10979SOL    HW239988   5.003   3.709   4.624  0.3200  0.0376 -0.5123
10980SOL     OW39989   1.761   2.720   9.369  0.1187 -0.2870  0.2243
10980SOL    HW139990   1.830   2.779   9.401 -1.0488  0.5937  1.2057
10980SOL    HW239991   1.773   2.719   9.274  0.9459  0.5363  0.3027
10981SOL     OW39992  11.734   4.966   9.993  0.5120  0.0445  0.4389
10981SOL    HW139993  11.733   4.955  10.088 -0.1616  2.1514  0.7480
10981SOL    HW239994  11.649   4.933   9.964  0.9051 -1.0391  0.4846
10982SOL     OW39995  11.371   8.664   4.617 -0.2543  0.4474  0.5106
10982SOL    HW139996  11.384   8.713   4.699  0.5270  1.2988 -0.1006
10982SOL    HW239997  11.329   8.583   4.645 -3.1870  2.1028  1.4299
10983SOL     OW39998   7.401   6.533  11.903  0.0053 -0.3106  0.0175
10983SOL    HW139999   7.329   6.594  11.888 -0.4536 -1.1903 -1.7036
10983SOL    HW240000   7.472   6.587  11.938 -1.0742  0.7928  0.5607
10984SOL     OW40001   2.048   5.283  12.490 -0.1821 -0.4339 -0.5028
10984SOL    HW140002   2.113   5.213  12.487 -1.1000 -1.3083 -0.4940
10984SOL    HW240003   2.008   5.282  12.403 -1.4071 -1.1220  0.0432
10985SOL     OW40004   2.035   2.589   7.857  0.4799  0.6730  0.1348
10985SOL    HW140005   2.066   2.528   7.923  0.1137  0.4371  0.0966
10985SOL    HW240006   2.111   2.642   7.834  1.5797 -1.5516 -1.8263
10986SOL     OW40007   4.982   1.865   8.566 -0.0924  0.1124  0.0948
10986SOL    HW140008   4.948   1.950   8.539 -1.3311 -0.0666  1.0120
10986SOL    HW240009   4.932   1.801   8.514  0.9903 -0.0681 -0.7587
10987SOL     OW40010   3.798   5.038   3.374 -0.1302 -0.1697  0.0964
10987SOL    HW140011   3.863   5.000   3.433 -0.9432 -1.1030  0.4204
10987SOL    HW240012   3.811   4.991   3.291  0.3547  0.4366 -0.1697
10988SOL     OW40013   8.751   8.276  12.334 -0.6936  0.0403 -0.0970
10988SOL    HW140014   8.760   8.183  12.311 -0.7822  0.1517 -0.6043
10988SOL    HW240015   8.745   8.321  12.249 -3.5444  0.2107  0.0783
10989SOL     OW40016  10.604   2.482   8.753  0.4700  0.3641 -0.4152
10989SOL    HW140017  10.573   2.522   8.834  0.2192 -0.2886 -0.1793
10989SOL    HW240018  10.694   2.454   8.773  0.3542  0.0650 -0.3132
10990SOL     OW40019   0.536   9.252   6.875  0.2006  0.4170 -0.0934
10990SOL    HW140020   0.617   9.301   6.887  0.0277  0.6208  0.2706
10990SOL    HW240021   0.526   9.201   6.955 -1.3834  2.4203  1.1013
10991SOL     OW40022   3.677   8.497  10.951 -0.2677  0.4531 -0.1677
10991SOL    HW140023   3.739   8.496  11.024  0.8252  1.3831 -1.0487
10991SOL    HW240024   3.660   8.404  10.933  0.5782  0.1852  0.3440
10992SOL     OW40025   4.156   5.891   5.718 -0.3034 -0.3333 -0.0123
10992SOL    HW140026   4.103   5.959   5.759 -0.2160 -0.6249  0.5857
10992SOL    HW240027   4.183   5.834   5.790  0.8316 -0.1871 -0.3026
10993SOL     OW40028  10.389   9.330   3.888 -0.7216  0.2916 -0.0986
10993SOL    HW140029  10.340   9.363   3.813 -0.9241  0.5985  0.1689
10993SOL    HW240030  10.349   9.372   3.964 -2.4501 -2.2428  0.5001
10994SOL     OW40031   1.006   5.537   2.000 -0.1411  0.0889  0.2400
10994SOL    HW140032   1.049   5.497   2.076  0.4967  0.4624  0.0879
10994SOL    HW240033   0.949   5.469   1.965  0.7594 -0.6132  0.1162
10995SOL     OW40034   9.122   2.058   3.706 -0.2034  0.0574 -0.1497
10995SOL    HW140035   9.080   1.972   3.712 -0.2425 -0.0898 -2.0071
10995SOL    HW240036   9.198   2.044   3.649  2.0412  0.4832  2.4817
10996SOL     OW40037   8.407   1.024   9.310 -0.1195  0.1922  0.2652
10996SOL    HW140038   8.341   1.022   9.240  0.5564  0.8979 -0.4122
10996SOL    HW240039   8.375   0.961   9.375 -1.8632  1.0970  0.3336
10997SOL     OW40040  12.243   5.520   8.303  0.5787  0.1051  0.0106
10997SOL    HW140041  12.206   5.548   8.387 -1.3893  0.2346 -0.8554
10997SOL    HW240042  12.293   5.441   8.324  0.2968  0.2528  1.3326
10998SOL     OW40043  10.210  12.245   5.658 -0.0817 -0.8840 -0.1567
10998SOL    HW140044  10.272  12.229   5.587  1.6113  1.8524  0.5319
10998SOL    HW240045  10.258  12.221   5.737 -1.7007 -3.2499  0.1971
10999SOL     OW40046   0.121   4.191   7.363 -0.4678 -0.3504  0.0579
10999SOL    HW140047   0.170   4.271   7.383 -4.3939  2.6181 -0.8613
10999SOL    HW240048   0.160   4.159   7.281  1.6811  0.0603  0.8479
11000SOL     OW40049  10.895   4.633  11.159 -0.3241 -0.0039 -0.2165
11000SOL    HW140050  10.963   4.583  11.205 -0.4081 -0.2189 -0.3241
11000SOL    HW240051  10.859   4.571  11.096 -0.8572  0.0053  0.0760
11001SOL     OW40052   7.015  12.129   2.456  0.6535 -0.1385 -0.4558
11001SOL    HW140053   6.970  12.205   2.493  0.1872 -1.0955  1.0326
11001SOL    HW240054   7.099  12.127   2.501  2.0536  1.2840 -2.7842
11002SOL     OW40055   7.016   2.626   0.019  0.7057  0.2935  0.3699
11002SOL    HW140056   7.037   2.692  -0.047  0.5943  0.6855  0.7201
11002SOL    HW240057   7.088   2.563   0.015  0.7329  0.3495 -0.0747
11003SOL     OW40058   1.515   5.066   1.768 -0.4126 -0.5742  0.1705
11003SOL    HW140059   1.442   5.128   1.777 -0.7473 -0.7013 -1.3054
11003SOL    HW240060   1.519   5.021   1.852  0.8522  2.4853  1.9413
11004SOL     OW40061   8.324   1.399   7.359 -0.5780  0.7398  0.1667
11004SOL    HW140062   8.387   1.402   7.432  0.0057 -0.2688 -0.2713
11004SOL    HW240063   8.302   1.306   7.350  1.7782  0.3114 -2.9080
11005SOL     OW40064   9.533   5.654   7.161 -0.5627 -0.6817  0.1715
11005SOL    HW140065   9.469   5.582   7.155 -0.9488 -0.3489  0.2129
11005SOL    HW240066   9.511   5.698   7.243  0.6206 -1.3947  0.8859
11006SOL     OW40067   5.524   0.407   4.634  0.2177 -0.1070 -0.3820
11006SOL    HW140068   5.548   0.447   4.551 -0.4895 -0.3969 -0.7402
11006SOL    HW240069   5.523   0.313   4.616 -0.8477 -0.1288 -0.3152
11007SOL     OW40070  10.899   3.934  10.985 -0.8717 -0.1165  0.1944
11007SOL    HW140071  10.936   4.009  11.031  0.7907 -0.8713  0.1781
11007SOL    HW240072  10.912   3.954  10.892  1.9077 -1.4233  0.1952
11008SOL     OW40073   4.312   0.303   0.990  0.0219  0.7574 -0.2750
11008SOL    HW140074   4.329   0.331   0.900 -0.6568  1.0313 -0.3241
11008SOL    HW240075   4.389   0.330   1.038 -0.2747  2.0347 -0.4802
11009SOL     OW40076   8.410   7.244  10.505 -0.0290 -0.5444  0.0126
11009SOL    HW140077   8.333   7.231  10.450  0.1974 -1.8752 -0.0338
11009SOL    HW240078   8.472   7.178  10.475  0.3244 -0.9145  1.4552
11010SOL     OW40079   8.857   2.729  10.344  0.1735 -0.3860  0.2237
11010SOL    HW140080   8.821   2.682  10.268 -0.2258 -1.0350  0.8067
11010SOL    HW240081   8.790   2.719  10.412  0.7356 -0.2025  0.8068
11011SOL     OW40082   1.844   1.872   3.535 -0.1393  0.1346 -0.7580
11011SOL    HW140083   1.856   1.833   3.449 -1.8593 -2.3651  0.0298
11011SOL    HW240084   1.910   1.829   3.591  0.0097  0.6706 -0.5122
11012SOL     OW40085  11.274   1.343   8.702 -0.5429  0.3816  0.0515
11012SOL    HW140086  11.250   1.355   8.794 -0.8003  0.2843 -0.0026
11012SOL    HW240087  11.369   1.330   8.703 -0.7236 -1.1917  0.4670
11013SOL     OW40088   3.812   7.876   0.562 -0.3952  0.0243  0.1026
11013SOL    HW140089   3.759   7.909   0.488  0.9897 -0.0434 -0.9650
11013SOL    HW240090   3.753   7.881   0.637 -1.4724  1.2937 -0.7606
11014SOL     OW40091   4.760   9.523  12.248  0.4238  0.4867 -0.2602
11014SOL    HW140092   4.733   9.436  12.278  1.6249  0.1534 -0.1254
11014SOL    HW240093   4.724   9.583  12.312  2.1005 -0.1367  1.3403
11015SOL     OW40094   9.918   4.194   6.015  0.3430 -1.0124  0.2216
11015SOL    HW140095   9.910   4.202   5.920 -0.7544 -1.0211  0.3032
11015SOL    HW240096   9.884   4.276   6.049  0.7659 -0.9969  0.6067
11016SOL     OW40097   8.529   4.283   6.648  0.4869 -0.3604 -0.4080
11016SOL    HW140098   8.564   4.230   6.578 -1.9874 -1.9796 -0.5567
11016SOL    HW240099   8.471   4.346   6.604  0.2726 -0.2285  0.0536
11017SOL     OW40100  12.253   9.774   2.473 -0.1103 -0.4646 -0.7455
11017SOL    HW140101  12.338   9.815   2.486  0.6672 -1.8159 -1.3560
11017SOL    HW240102  12.255   9.697   2.530 -0.6735 -0.8565 -1.2474
11018SOL     OW40103   4.680   1.670   7.341  0.2837  0.0619  0.1757
11018SOL    HW140104   4.603   1.697   7.292  2.4385  0.0366 -3.6383
11018SOL    HW240105   4.728   1.751   7.358  0.9812 -0.2114 -0.4450
11019SOL     OW40106   7.618  12.308   4.787 -0.0156  0.3476  0.1810
11019SOL    HW140107   7.628  12.375   4.855 -0.4574 -0.1847  0.7905
11019SOL    HW240108   7.696  12.253   4.796  0.0514  0.4259  0.0823
11020SOL     OW40109  12.249   0.284   6.660 -0.0423 -0.6359 -0.4754
11020SOL    HW140110  12.183   0.331   6.609 -0.8515 -2.3748 -1.0989
11020SOL    HW240111  12.209   0.271   6.746 -0.3127 -1.2070 -0.6809
11021SOL     OW40112   1.087   9.316  11.555 -0.2323  0.4100  0.1473
11021SOL    HW140113   1.137   9.292  11.634 -0.1350  1.7533  0.5338
11021SOL    HW240114   1.038   9.394  11.582 -2.9003 -1.0779 -0.1027
11022SOL     OW40115   7.799   5.561  11.566  0.5537 -0.3143  0.5716
11022SOL    HW140116   7.804   5.528  11.656  2.3130 -1.0656  0.2377
11022SOL    HW240117   7.711   5.599  11.559 -0.5585 -2.4431  1.8439
11023SOL     OW40118   5.550   7.553   0.406  0.3422  0.4102  0.2959
11023SOL    HW140119   5.552   7.647   0.390  0.7547  0.0708 -1.8789
11023SOL    HW240120   5.556   7.513   0.319  0.5967 -1.6302  1.1909
11024SOL     OW40121   4.711   7.408  10.582 -0.5944  0.6176  0.6545
11024SOL    HW140122   4.647   7.400  10.512  0.9085  0.6484 -0.7758
11024SOL    HW240123   4.755   7.323  10.584 -0.3718  0.7414  1.3245
11025SOL     OW40124   1.129   3.134  10.205  0.5058  0.2504  0.6440
11025SOL    HW140125   1.179   3.180  10.272  0.8330  1.9222 -0.6647
11025SOL    HW240126   1.051   3.189  10.192  0.5017  0.0227 -0.3923
11026SOL     OW40127   5.869   9.155   9.648 -0.2109  0.4423  0.0256
11026SOL    HW140128   5.862   9.107   9.566  0.1425 -0.9502  0.7946
11026SOL    HW240129   5.780   9.159   9.682 -0.0856 -0.6662  0.5050
11027SOL     OW40130   3.583   1.986   7.447  0.3428  0.6328  0.7520
11027SOL    HW140131   3.495   1.970   7.412 -0.0158  2.3199  0.7574
11027SOL    HW240132   3.642   1.944   7.385 -0.4616 -0.5779  0.7821
11028SOL     OW40133  11.122  11.214  12.374  0.2422  0.7355 -0.0610
11028SOL    HW140134  11.168  11.255  12.301  2.0284 -0.2552  0.4451
11028SOL    HW240135  11.138  11.120  12.362 -0.6642  0.4509  0.8186
11029SOL     OW40136  11.551   2.943   8.283  0.3832 -0.5495  0.4951
11029SOL    HW140137  11.468   2.991   8.288  0.5605 -0.1847 -0.0537
11029SOL    HW240138  11.529   2.864   8.233  0.4339 -0.2905  0.0523
11030SOL     OW40139   0.913   2.871   6.571 -0.3080 -0.3523  0.0883
11030SOL    HW140140   1.005   2.887   6.548 -0.4520 -1.3182 -1.2948
11030SOL    HW240141   0.911   2.878   6.667  1.0582  0.3824  0.0935
11031SOL     OW40142   5.810   7.395   2.740  0.6065  0.1639 -0.0669
11031SOL    HW140143   5.863   7.370   2.816  0.2170  0.2732  0.2460
11031SOL    HW240144   5.742   7.452   2.776  0.9940  1.0190 -0.6457
11032SOL     OW40145   5.166   6.249   3.466 -0.6269  0.2427  0.1988
11032SOL    HW140146   5.124   6.253   3.380 -0.1325  1.4150 -0.0148
11032SOL    HW240147   5.242   6.192   3.454 -0.8390  0.0046 -0.0091
11033SOL     OW40148   1.167  12.528   0.731  0.1574 -0.4151 -0.1836
11033SOL    HW140149   1.105  12.456   0.741 -0.5314  0.1755 -0.1238
11033SOL    HW240150   1.232  12.512   0.799  1.1926 -2.1334 -1.4905
11034SOL     OW40151   1.585   5.812   7.932 -0.1405  0.0410 -0.5257
11034SOL    HW140152   1.593   5.756   8.009 -1.3360 -0.3153 -0.6357
11034SOL    HW240153   1.622   5.761   7.860 -2.4022 -1.2302 -0.8862
11035SOL     OW40154   3.985   7.804  10.198 -0.4373 -0.1318 -0.1466
11035SOL    HW140155   4.079   7.801  10.214 -0.1894  1.2587 -1.1616
11035SOL    HW240156   3.967   7.896  10.178 -2.1149 -0.2653  0.5649
11036SOL     OW40157   4.788  12.360  11.868 -0.8495  0.1889 -0.0828
11036SOL    HW140158   4.728  12.322  11.932  0.2262 -0.1514  0.7755
11036SOL    HW240159   4.806  12.447  11.901 -0.0631 -0.0918  0.2587
11037SOL     OW40160   6.053   6.720  10.518 -0.2218  0.0673  0.7880
11037SOL    HW140161   6.118   6.650  10.517 -1.0506 -0.7337 -1.0213
11037SOL    HW240162   6.093   6.790  10.466 -1.6422 -1.3349 -2.4219
11038SOL     OW40163   8.518   3.176   8.293 -0.2764 -0.0301  0.6017
11038SOL    HW140164   8.607   3.157   8.262 -0.2122 -0.2719  0.9322
11038SOL    HW240165   8.501   3.109   8.359 -1.6993 -1.6364 -1.2902
11039SOL     OW40166   4.126  11.735   5.328  0.0327  0.6754 -0.5631
11039SOL    HW140167   4.110  11.649   5.289  0.4254  0.5100 -0.3680
11039SOL    HW240168   4.217  11.732   5.355 -0.5991  0.2040  1.7512
11040SOL     OW40169   8.792   0.453   8.715 -0.4381 -0.0885  0.0255
11040SOL    HW140170   8.843   0.521   8.671 -1.5307  0.1363 -0.9551
11040SOL    HW240171   8.858   0.395   8.754  0.5319  0.8631 -0.1411
11041SOL     OW40172  11.694  10.461  11.406  0.5332  0.0225  0.4692
11041SOL    HW140173  11.623  10.450  11.469  0.0914 -1.5545 -0.2369
11041SOL    HW240174  11.650  10.489  11.325  0.9904  1.2021  0.6174
11042SOL     OW40175   4.627   9.358   8.513  0.0386 -0.4231 -0.0693
11042SOL    HW140176   4.687   9.316   8.452 -1.0671 -0.9564 -0.8231
11042SOL    HW240177   4.655   9.450   8.515  1.1632 -0.7559 -0.0295
11043SOL     OW40178   4.188   8.267   1.801  0.1983 -0.0847 -0.4034
11043SOL    HW140179   4.230   8.235   1.880 -1.2285  1.3123  0.9843
11043SOL    HW240180   4.260   8.289   1.742  1.4054  1.3288  1.5180
11044SOL     OW40181   9.254   6.714   6.835  0.1552 -0.1522 -0.4291
11044SOL    HW140182   9.168   6.697   6.795  0.4624 -0.2244 -1.0604
11044SOL    HW240183   9.306   6.637   6.812  0.6767  0.3268 -0.8505
11045SOL     OW40184   8.726   7.703   7.469  0.1338  0.1705  0.3445
11045SOL    HW140185   8.695   7.666   7.552  2.1752 -0.3828  0.9294
11045SOL    HW240186   8.658   7.680   7.405 -1.5117  0.6563  1.8359
11046SOL     OW40187   7.076   9.443   4.023  0.0462  0.3878  0.4597
11046SOL    HW140188   6.982   9.451   4.040  0.0500  1.6445  0.0208
11046SOL    HW240189   7.090   9.496   3.945  0.8074 -1.4022 -0.6522
11047SOL     OW40190   0.078   5.595   2.866 -0.4204 -0.0414  0.2764
11047SOL    HW140191  -0.013   5.599   2.896 -0.5748  0.8529 -0.2656
11047SOL    HW240192   0.126   5.652   2.925 -0.2794 -0.2156  0.3300
11048SOL     OW40193   4.485   9.203   0.581  0.2775 -0.1785 -0.4509
11048SOL    HW140194   4.505   9.191   0.674  0.0684 -1.1291 -0.5155
11048SOL    HW240195   4.550   9.266   0.550  0.7388 -0.3164  0.2074
11049SOL     OW40196   7.067   3.738  12.143  0.2016  0.0321 -0.4361
11049SOL    HW140197   7.113   3.780  12.070 -1.8571  1.2620 -1.1173
11049SOL    HW240198   7.073   3.801  12.214  0.7272 -0.4087 -0.0849
11050SOL     OW40199   5.812   8.793   2.836 -0.2629  0.0791  0.0209
11050SOL    HW140200   5.776   8.860   2.778 -1.4481 -0.0520  0.5823
11050SOL    HW240201   5.840   8.723   2.776 -1.2106  0.0594 -0.4095
11051SOL     OW40202  10.191   9.267   7.103 -0.5587  0.0202  0.5258
11051SOL    HW140203  10.142   9.204   7.156 -0.2775 -0.5371  0.1216
11051SOL    HW240204  10.138   9.279   7.024  0.2221 -1.0012 -0.1598
11052SOL     OW40205   7.832   7.616   2.723  0.0922  0.5124 -0.0073
11052SOL    HW140206   7.842   7.524   2.700  1.0848  0.6043 -0.0034
11052SOL    HW240207   7.866   7.664   2.647 -2.6336  0.9626 -1.0592
11053SOL     OW40208   6.036   4.018   1.814 -0.1296  0.1775 -0.3266
11053SOL    HW140209   6.034   3.959   1.889  0.2807 -0.7946 -1.0492
11053SOL    HW240210   6.000   4.100   1.846 -2.0861 -0.8798  0.3383
11054SOL     OW40211   1.065   5.296   9.473  0.2005 -0.1709 -0.0136
11054SOL    HW140212   1.022   5.362   9.527  0.0654  1.1135 -1.6041
11054SOL    HW240213   1.151   5.284   9.512  0.7750  2.0375 -0.4692
11055SOL     OW40214   7.931   8.351   8.788  0.0076 -0.0204  0.0302
11055SOL    HW140215   7.922   8.256   8.773  0.9398 -0.3748  1.5255
11055SOL    HW240216   7.928   8.389   8.700  1.6136 -1.6171 -0.7922
11056SOL     OW40217   2.227  11.252  12.219  0.8491 -0.1547 -0.5311
11056SOL    HW140218   2.266  11.315  12.158 -0.3450  0.0315 -1.1435
11056SOL    HW240219   2.145  11.226  12.177  0.6731 -1.0987  0.3530
11057SOL     OW40220  11.032   2.149  10.202 -0.1959 -0.4234 -0.0357
11057SOL    HW140221  11.090   2.129  10.275  0.2073 -1.3424 -0.5784
11057SOL    HW240222  10.956   2.191  10.242 -1.1023 -3.0634  1.2635
11058SOL     OW40223   4.328  11.214   5.462  0.2894 -0.1646  0.0542
11058SOL    HW140224   4.370  11.128   5.464  1.5148  0.4106  1.5974
11058SOL    HW240225   4.395  11.274   5.495 -1.0504  1.1408  0.5381
11059SOL     OW40226   6.060   9.359   1.975  0.0462  0.4430 -0.4018
11059SOL    HW140227   6.146   9.362   1.934  0.4894  0.8813  0.5348
11059SOL    HW240228   6.040   9.265   1.982  1.1094  0.2742  0.6989
11060SOL     OW40229   3.905  11.294   4.628  0.2721  0.1505 -0.4902
11060SOL    HW140230   3.868  11.381   4.645  0.0595  0.1848 -1.1022
11060SOL    HW240231   3.961  11.307   4.552  0.7505 -0.1154 -0.1833
11061SOL     OW40232  11.949   4.404   5.814 -0.1331 -0.2001  0.0914
11061SOL    HW140233  11.854   4.392   5.817  0.0767 -2.3400 -0.3352
11061SOL    HW240234  11.975   4.406   5.906 -0.2231 -4.0221  0.3893
11062SOL     OW40235   4.041   7.167   4.357  0.2961 -0.2500 -0.5562
11062SOL    HW140236   4.063   7.259   4.372 -1.0269 -0.1371  0.9910
11062SOL    HW240237   4.125   7.121   4.363  0.9794  0.8267 -1.3862
11063SOL     OW40238   7.191   7.567  12.124 -0.3992 -0.3545 -0.1299
11063SOL    HW140239   7.197   7.499  12.057 -2.1798  0.2730 -0.9892
11063SOL    HW240240   7.235   7.530  12.201  0.3653 -1.6791 -1.1764
11064SOL     OW40241  10.267  11.242   3.997 -0.4919  0.0698 -0.3687
11064SOL    HW140242  10.234  11.312   3.941  0.2519 -1.9466 -3.6288
11064SOL    HW240243  10.362  11.249   3.991 -0.3770  0.2257  1.2925
11065SOL     OW40244   2.604   7.959  12.116  0.5012 -0.5204 -0.0077
11065SOL    HW140245   2.523   7.989  12.074  0.8229  0.1762 -0.1520
11065SOL    HW240246   2.668   7.956  12.045  0.8709 -0.0131  0.2926
11066SOL     OW40247   6.020   5.983   2.031  0.0921 -0.0226  0.0815
11066SOL    HW140248   6.108   5.977   2.069  0.5501 -2.4106 -1.1696
11066SOL    HW240249   6.030   6.045   1.959  1.6284 -2.4345 -1.9655
11067SOL     OW40250   1.341   1.295   8.034 -0.3996 -0.8495  0.0192
11067SOL    HW140251   1.256   1.338   8.044  0.3921  0.6837  0.4474
11067SOL    HW240252   1.338   1.255   7.947 -0.6868  1.2842 -1.0256
11068SOL     OW40253   7.658   8.110  11.676  0.0933 -0.8844  0.2674
11068SOL    HW140254   7.572   8.122  11.716  0.1505 -2.1503  0.8262
11068SOL    HW240255   7.714   8.081  11.748  0.9448 -0.2745 -0.1333
11069SOL     OW40256   2.133   5.631   1.802 -0.4327  0.4280 -0.2707
11069SOL    HW140257   2.143   5.660   1.711  1.6118  0.5806 -0.0576
11069SOL    HW240258   2.048   5.588   1.804 -0.3633  0.0692 -2.3605
11070SOL     OW40259   9.724   5.141   4.267  0.8665  0.7117 -0.2006
11070SOL    HW140260   9.778   5.215   4.293  0.8471  0.2047  1.3723
11070SOL    HW240261   9.653   5.140   4.330  1.3162 -1.1203  0.3308
11071SOL     OW40262   1.291   1.816   0.926  0.1838 -0.8720  0.1986
11071SOL    HW140263   1.281   1.871   1.004 -0.3780  0.8917 -1.0743
11071SOL    HW240264   1.379   1.779   0.934  0.5983  0.2462  1.0749
11072SOL     OW40265   4.105   2.415   2.414 -0.5823 -0.1060 -0.0242
11072SOL    HW140266   4.019   2.455   2.400 -0.6136 -0.1741 -0.0265
11072SOL    HW240267   4.151   2.428   2.332 -1.0234 -1.1373 -0.4548
11073SOL     OW40268   2.624   4.450   5.368 -0.0159 -0.0261  0.1577
11073SOL    HW140269   2.645   4.500   5.447 -1.5144  0.4485  0.2928
11073SOL    HW240270   2.693   4.472   5.306  0.2991  0.8500  0.8001
11074SOL     OW40271   6.491  10.867   5.788  0.2905 -0.0937  0.3639
11074SOL    HW140272   6.539  10.839   5.710  2.6027 -0.3679  1.7729
11074SOL    HW240273   6.484  10.788   5.841 -1.5008  0.0250  0.3702
11075SOL     OW40274   7.943   3.426   5.245  0.1788  0.2421 -0.4875
11075SOL    HW140275   8.009   3.495   5.232 -0.1897  0.7913  0.4305
11075SOL    HW240276   7.943   3.411   5.339 -0.5459 -0.2316 -0.5573
11076SOL     OW40277   8.771   1.656   9.111 -0.0467 -0.4708 -0.1372
11076SOL    HW140278   8.790   1.568   9.079  1.2839 -0.1841 -0.2189
11076SOL    HW240279   8.715   1.695   9.044  2.7834  0.1637 -2.3250
11077SOL     OW40280   0.226   8.948  12.279 -0.3191 -0.9248  0.0792
11077SOL    HW140281   0.193   8.874  12.330  0.4712 -1.3030  0.0636
11077SOL    HW240282   0.235   8.914  12.190 -0.3701 -0.6781 -0.0216
11078SOL     OW40283   7.400  10.597   3.381  0.1014 -0.3697 -0.3031
11078SOL    HW140284   7.330  10.542   3.345  0.1498 -1.2839  0.9235
11078SOL    HW240285   7.364  10.686   3.380 -1.2373 -0.8702  0.6269
11079SOL     OW40286   4.825   1.056   3.146 -0.1159 -0.5711  0.0657
11079SOL    HW140287   4.892   1.103   3.196 -0.3913  0.6654 -0.6862
11079SOL    HW240288   4.874   0.989   3.098  0.4478 -0.3194  0.2798
11080SOL     OW40289   6.300  11.573   6.720 -0.7669 -0.1605  0.3765
11080SOL    HW140290   6.259  11.641   6.773 -0.6730 -2.0494  3.0802
11080SOL    HW240291   6.264  11.585   6.633 -1.9632  2.3092  1.1285
11081SOL     OW40292   3.259   7.405   0.122  0.1967 -0.1944 -0.1125
11081SOL    HW140293   3.180   7.361   0.156 -0.0108 -0.3040 -0.7292
11081SOL    HW240294   3.330   7.344   0.140  0.3421  0.4075  1.5306
11082SOL     OW40295  11.732   9.508   6.650 -0.0960 -0.1714  0.4220
11082SOL    HW140296  11.823   9.480   6.657  0.4110  1.0958 -0.7009
11082SOL    HW240297  11.736   9.593   6.606 -1.9405 -0.8557 -1.2027
11083SOL     OW40298   8.867   5.930   1.707  0.1914 -0.4482 -0.6699
11083SOL    HW140299   8.821   5.993   1.652 -1.2065 -0.6852  0.1671
11083SOL    HW240300   8.890   5.858   1.648 -0.3846 -0.2486 -1.1451
11084SOL     OW40301   6.248  11.327  10.521  0.0169 -0.3912 -0.1119
11084SOL    HW140302   6.316  11.308  10.585 -1.2303  0.6859  1.6430
11084SOL    HW240303   6.166  11.323  10.571 -0.8044  3.5441 -0.8003
11085SOL     OW40304   2.394   8.388   9.393 -0.7085 -0.1618 -0.4465
11085SOL    HW140305   2.477   8.434   9.376  0.2541 -1.6982 -0.1017
11085SOL    HW240306   2.403   8.355   9.482 -3.2884  2.8047  1.1358
11086SOL     OW40307   3.520   9.347   8.331  0.3173 -0.1105 -0.8326
11086SOL    HW140308   3.545   9.305   8.249  0.1166 -0.5338 -0.6822
11086SOL    HW240309   3.589   9.411   8.348  1.0480 -0.9326 -0.6601
11087SOL     OW40310   9.343   0.206   7.302 -0.3190 -0.0640  0.2194
11087SOL    HW140311   9.277   0.246   7.246  1.1473  0.6607 -1.0425
11087SOL    HW240312   9.395   0.279   7.335 -0.7801 -0.5176  2.1132
11088SOL     OW40313   1.493  10.263  12.178 -0.4384 -0.2708  0.0001
11088SOL    HW140314   1.463  10.323  12.247  0.6157  0.0945  0.1612
11088SOL    HW240315   1.503  10.178  12.223 -0.5094 -0.2189  0.1141
11089SOL     OW40316   8.658  11.571   8.851 -0.3339 -0.0390 -0.2921
11089SOL    HW140317   8.630  11.652   8.808 -0.0036  0.7973  1.0074
11089SOL    HW240318   8.648  11.589   8.944  2.4920 -0.4299  0.1843
11090SOL     OW40319   3.020   1.068   6.216  0.0675  0.6481 -0.3790
11090SOL    HW140320   2.950   1.133   6.218  0.4340  1.1517  3.1127
11090SOL    HW240321   3.099   1.118   6.236  0.7570 -0.4969 -0.1329
11091SOL     OW40322   3.890   2.137   5.957 -0.1782 -0.3463 -0.2607
11091SOL    HW140323   3.827   2.128   6.028  0.0946 -1.4499 -0.1370
11091SOL    HW240324   3.973   2.157   6.001 -0.1013 -0.5726 -0.3038
11092SOL     OW40325  10.639   4.849  11.555 -0.4467 -0.2702 -0.1854
11092SOL    HW140326  10.685   4.767  11.568 -0.1182  0.1408  1.5469
11092SOL    HW240327  10.655   4.872  11.464  0.1959 -1.6634 -0.4486
11093SOL     OW40328   7.679   6.014   6.204  0.2853  0.0738 -0.4815
11093SOL    HW140329   7.654   5.977   6.289  1.2130  0.8093  0.1345
11093SOL    HW240330   7.642   5.953   6.140  0.1916 -0.8962  0.4577
11094SOL     OW40331   9.362   9.259   8.741 -0.1732  0.3058  1.1673
11094SOL    HW140332   9.352   9.172   8.705  1.1712  1.2462 -1.8285
11094SOL    HW240333   9.457   9.271   8.748 -0.3248  1.5559  1.3685
11095SOL     OW40334  11.478   4.316   5.210  0.0338  0.0431 -0.1949
11095SOL    HW140335  11.453   4.248   5.147 -0.1281  0.8947 -1.0725
11095SOL    HW240336  11.400   4.371   5.219  0.1668  0.1325  0.4938
11096SOL     OW40337   7.744   5.571   4.144 -0.5514  0.4268 -0.1415
11096SOL    HW140338   7.755   5.497   4.203  0.5264  0.1628 -0.6444
11096SOL    HW240339   7.651   5.593   4.150 -0.4871  0.3561  1.5591
11097SOL     OW40340  10.623  11.208   5.560  0.2750 -0.5209  0.2350
11097SOL    HW140341  10.644  11.163   5.478 -1.2093 -0.1322 -0.3952
11097SOL    HW240342  10.596  11.138   5.620  0.8813 -0.7525  0.2473
11098SOL     OW40343   7.350   8.301   9.858  0.2931  0.7113 -0.1500
11098SOL    HW140344   7.413   8.232   9.839 -0.5673  0.2908 -1.7438
11098SOL    HW240345   7.402   8.381   9.857  1.1900  0.1656  1.0267
11099SOL     OW40346   4.096  10.464   7.377 -0.1109  0.1933  0.8681
11099SOL    HW140347   4.117  10.418   7.296  0.9720  1.0062  0.6594
11099SOL    HW240348   4.006  10.439   7.397 -0.1418 -0.5858 -0.1918
11100SOL     OW40349  11.067  12.408   8.353  0.4772 -0.0821 -0.1676
11100SOL    HW140350  10.999  12.395   8.419 -0.5013  1.6814 -0.7695
11100SOL    HW240351  11.027  12.380   8.271  0.6604  0.4314 -0.4410
11101SOL     OW40352   7.570   0.864   4.182 -0.1509 -0.2226  0.0480
11101SOL    HW140353   7.486   0.909   4.194  1.1609  2.2980  0.5517
11101SOL    HW240354   7.629   0.906   4.245  1.8709 -0.7915 -1.3541
11102SOL     OW40355   3.740   9.402   3.909 -0.7123 -0.6366 -0.2944
11102SOL    HW140356   3.807   9.442   3.853  0.9207  0.0330  1.9624
11102SOL    HW240357   3.789   9.372   3.986 -3.1226  1.1985  2.1660
11103SOL     OW40358   9.059   6.217   2.550 -0.2144  0.0230 -0.1710
11103SOL    HW140359   9.088   6.287   2.608  0.5971 -0.1180 -0.3833
11103SOL    HW240360   9.049   6.141   2.607 -1.5198  0.4063  0.1320
11104SOL     OW40361   1.849   5.284  10.396 -0.5098 -0.0393  0.1070
11104SOL    HW140362   1.774   5.256  10.448 -0.4884 -1.6444 -0.6476
11104SOL    HW240363   1.829   5.253  10.308 -0.1330  1.8255 -0.6639
11105SOL     OW40364   5.502   1.989   6.278  0.1138  0.0918  0.0291
11105SOL    HW140365   5.541   2.011   6.363 -0.0373 -0.4929  0.2478
11105SOL    HW240366   5.416   2.031   6.280  1.0250  2.1792 -0.8118
11106SOL     OW40367   4.219   6.750   7.541 -0.0218  0.0621  0.4955
11106SOL    HW140368   4.288   6.808   7.508  0.9567 -0.2441  1.8973
11106SOL    HW240369   4.260   6.664   7.545 -0.6379 -0.2154  0.8947
11107SOL     OW40370   6.255   9.524  12.519  0.4502  0.1235 -0.3657
11107SOL    HW140371   6.308   9.550  12.595 -1.7006  1.2912  0.8345
11107SOL    HW240372   6.295   9.442  12.490  4.4227  2.0908 -1.1482
11108SOL     OW40373   2.178   1.058   4.777  0.4198 -0.2292  0.2495
11108SOL    HW140374   2.163   1.127   4.842  1.1024  0.2961 -0.1302
11108SOL    HW240375   2.092   1.040   4.741  0.2100  0.3315  0.4525
11109SOL     OW40376   8.717  10.617   7.474 -0.9247  0.7166  0.0937
11109SOL    HW140377   8.785  10.556   7.444 -0.5031  0.7590  0.9310
11109SOL    HW240378   8.636  10.583   7.436 -0.8741 -1.0230  1.3709
11110SOL     OW40379   3.458   7.591   5.573 -0.1410 -0.5669  0.3456
11110SOL    HW140380   3.375   7.633   5.552 -0.4545 -1.3370 -0.0154
11110SOL    HW240381   3.512   7.660   5.610 -0.7457  0.0709  0.0501
11111SOL     OW40382   7.056   8.935   0.279 -0.2301 -0.6255 -0.1968
11111SOL    HW140383   7.092   8.995   0.213 -0.4772  0.8115  0.9017
11111SOL    HW240384   6.964   8.962   0.288  0.3755  0.9715  2.4617
11112SOL     OW40385  11.050   2.510   8.459  0.1234  0.2160  0.0637
11112SOL    HW140386  11.061   2.529   8.552 -0.0641  0.6191  0.0076
11112SOL    HW240387  10.961   2.478   8.451  0.1106  0.2640  0.0117
11113SOL     OW40388   7.281  10.356  10.327  0.5215  0.2455 -0.4289
11113SOL    HW140389   7.333  10.276  10.327  0.6789  0.2620 -2.7008
11113SOL    HW240390   7.271  10.377  10.234 -3.0380  0.5867 -0.0868
11114SOL     OW40391   8.627  11.107   9.767  0.2102 -0.2272 -0.2931
11114SOL    HW140392   8.701  11.065   9.811  0.5436 -1.1026 -1.6216
11114SOL    HW240393   8.631  11.198   9.795  1.8107 -0.2435 -0.3378
11115SOL     OW40394   8.343   8.817   9.855  0.2633 -0.0621 -0.1733
11115SOL    HW140395   8.416   8.822   9.793  0.0452 -2.1275 -0.6721
11115SOL    HW240396   8.325   8.908   9.878  1.6650  0.6301 -1.5986
11116SOL     OW40397  12.398   1.428   2.195 -0.5585  0.2374  0.2017
11116SOL    HW140398  12.317   1.415   2.244  0.0818  0.5311  1.3836
11116SOL    HW240399  12.467   1.393   2.252  0.0567 -1.1641 -1.2941
11117SOL     OW40400   3.247  12.396   5.728 -0.2509  0.1460  0.3430
11117SOL    HW140401   3.312  12.330   5.754  1.4872  1.7200  0.2388
11117SOL    HW240402   3.258  12.405   5.634 -0.2622  0.8015  0.4038
11118SOL     OW40403   0.956   8.538   3.495 -0.6493  0.3212  0.6082
11118SOL    HW140404   1.016   8.513   3.425 -1.9110  0.8189 -0.7217
11118SOL    HW240405   0.949   8.460   3.551 -1.3909 -0.9463 -1.1556
11119SOL     OW40406  12.440   2.509   3.877 -0.5462 -0.1454 -0.0893
11119SOL    HW140407  12.416   2.520   3.969  0.7490 -0.5354  0.3060
11119SOL    HW240408  12.396   2.428   3.850 -1.4350  0.2991 -0.0065
11120SOL     OW40409   6.113   5.868   4.210  0.4487 -0.2698 -0.0776
11120SOL    HW140410   6.163   5.855   4.129 -0.5216 -1.0831 -0.5743
11120SOL    HW240411   6.093   5.961   4.211  1.3071 -0.0740 -0.2643
11121SOL     OW40412   1.872   2.185   2.364  0.3084 -0.1459 -0.3063
11121SOL    HW140413   1.892   2.097   2.332  1.9171  0.3197 -0.6470
11121SOL    HW240414   1.957   2.221   2.390 -0.3818  1.1654  0.2126
11122SOL     OW40415   7.163  11.894   0.941  0.1452  0.1771 -0.3692
11122SOL    HW140416   7.068  11.905   0.949  0.2344  0.3270  0.5728
11122SOL    HW240417   7.176  11.800   0.929 -0.0981  0.1118 -0.1134
11123SOL     OW40418   0.390  11.817  11.926  0.1906 -0.3321 -0.0625
11123SOL    HW140419   0.462  11.811  11.863 -0.7293 -1.0663 -1.0888
11123SOL    HW240420   0.429  11.791  12.009  0.9410 -1.4966 -0.7448
11124SOL     OW40421   0.594   5.366   8.915 -0.5324 -0.1642 -0.6862
11124SOL    HW140422   0.547   5.432   8.865  1.7514  0.9881 -1.4112
11124SOL    HW240423   0.600   5.403   9.003 -0.0254  0.1988 -0.8709
11125SOL     OW40424   8.703   6.607   1.140  0.0929 -0.1969 -0.3188
11125SOL    HW140425   8.671   6.609   1.230 -0.3594 -3.5817 -0.2754
11125SOL    HW240426   8.763   6.533   1.137  0.0592 -0.2071 -2.8159
11126SOL     OW40427   8.668   8.187   7.786 -0.6689 -0.5367  0.4280
11126SOL    HW140428   8.735   8.194   7.855  0.8907  1.8323 -1.1640
11126SOL    HW240429   8.688   8.105   7.742  1.1799  0.0139  0.1168
11127SOL     OW40430   8.048  12.001  12.299  0.0363  0.0973 -0.0517
11127SOL    HW140431   8.028  12.036  12.213 -2.1337  1.3816  0.9013
11127SOL    HW240432   7.974  12.027  12.354  1.4950 -0.3576  2.2916
11128SOL     OW40433   8.189  12.076  11.388 -0.5021  0.2527  0.0677
11128SOL    HW140434   8.128  12.017  11.343 -1.2786  0.7108  0.4946
11128SOL    HW240435   8.136  12.153  11.409 -0.5978 -0.5132  3.0551
11129SOL     OW40436   2.149   3.859   6.102  0.5212 -0.1156  0.5207
11129SOL    HW140437   2.068   3.819   6.071  0.6104  0.5243 -0.6210
11129SOL    HW240438   2.159   3.829   6.192 -1.8552  1.0806  1.2776
11130SOL     OW40439   6.349   5.878   4.002 -0.5389 -0.2963  0.4666
11130SOL    HW140440   6.331   5.835   3.918 -1.5064  0.4873  0.2435
11130SOL    HW240441   6.386   5.963   3.978  0.4139 -0.5784  0.8786
11131SOL     OW40442   6.440   7.461  10.702 -0.1591  0.6293  0.1713
11131SOL    HW140443   6.351   7.445  10.733 -0.2106 -0.1178 -0.3552
11131SOL    HW240444   6.445   7.556  10.691  0.1542  1.1061  3.3833
11132SOL     OW40445   9.747   0.161   8.594  0.3023 -0.0579 -0.4153
11132SOL    HW140446   9.824   0.161   8.537  0.5030  1.7320 -0.2223
11132SOL    HW240447   9.699   0.239   8.569 -0.0081  0.3622  1.3098
11133SOL     OW40448   4.786   5.194  11.321 -0.2499 -0.0134 -0.0936
11133SOL    HW140449   4.864   5.228  11.364 -0.0832  1.0902 -1.2232
11133SOL    HW240450   4.727   5.171  11.394  1.2788 -1.3333  0.7860
11134SOL     OW40451   7.387  11.580   6.376 -0.0963  0.0381  0.6968
11134SOL    HW140452   7.421  11.631   6.449 -0.1532 -0.8889  1.3912
11134SOL    HW240453   7.296  11.563   6.400 -1.0194  2.1692 -0.9564
11135SOL     OW40454   9.728   0.060   6.591  0.8522  0.2499  0.0317
11135SOL    HW140455   9.650   0.023   6.632 -0.0634  2.4933  0.4500
11135SOL    HW240456   9.797   0.051   6.657  0.0448  1.4019  1.0892
11136SOL     OW40457   5.818   2.565   6.924  0.6438 -0.3111 -0.4241
11136SOL    HW140458   5.763   2.539   6.998  0.0389  2.4745  0.2047
11136SOL    HW240459   5.844   2.655   6.943  3.0808 -0.5454 -2.1190
11137SOL     OW40460   2.052   5.479   3.130 -0.5024 -0.0369 -0.4342
11137SOL    HW140461   1.969   5.432   3.137 -0.2114 -0.6157 -0.7764
11137SOL    HW240462   2.077   5.498   3.220 -0.1072 -1.4763 -0.2109
11138SOL     OW40463   0.536  10.095  10.883  0.0034 -0.1491  0.1499
11138SOL    HW140464   0.546  10.087  10.788 -0.1941  0.7227  0.0457
11138SOL    HW240465   0.466  10.159  10.894 -0.8592 -1.1708  0.8867
11139SOL     OW40466   1.714  10.675   3.448 -0.1075  0.1630  0.8355
11139SOL    HW140467   1.713  10.580   3.444 -0.1838  0.1683  0.7070
11139SOL    HW240468   1.779  10.697   3.514  0.7434  0.0498  0.0445
11140SOL     OW40469  11.819   2.666  11.491  0.1026 -0.2543 -0.4680
11140SOL    HW140470  11.890   2.623  11.539 -0.3124  0.5510  0.9346
11140SOL    HW240471  11.844   2.660  11.399  2.0430  0.0915  0.0038
11141SOL     OW40472   4.664   1.994   0.004 -0.2175  0.6727  0.0755
11141SOL    HW140473   4.588   2.047  -0.020 -0.3607  0.2287 -0.4792
11141SOL    HW240474   4.740   2.051  -0.014 -0.3455  0.5376 -0.9746
11142SOL     OW40475  10.838   4.987   8.297 -0.3423 -0.0831  0.5522
11142SOL    HW140476  10.777   4.919   8.326 -0.1531  0.0723  1.3395
11142SOL    HW240477  10.919   4.940   8.278 -1.0965 -0.5183 -1.9716
11143SOL     OW40478   3.735  12.562   4.226  0.5850  0.1276 -0.1111
11143SOL    HW140479   3.657  12.509   4.207  0.2624  0.1273  1.1383
11143SOL    HW240480   3.806  12.498   4.234  0.2589 -0.1001  1.0674
11144SOL     OW40481   9.734   3.395   7.102 -0.5599  0.1565  0.0412
11144SOL    HW140482   9.683   3.418   7.179 -0.6625 -1.3984  0.4709
11144SOL    HW240483   9.817   3.442   7.113 -1.0588  0.9567  0.4351
11145SOL     OW40484   0.816  12.431   1.625  0.2541  0.0829  0.5020
11145SOL    HW140485   0.786  12.385   1.703 -2.1062 -0.4834 -0.6506
11145SOL    HW240486   0.736  12.449   1.575  1.7665 -1.1917 -2.6749
11146SOL     OW40487   8.414  12.026   5.527 -0.2002 -0.2438 -0.5034
11146SOL    HW140488   8.468  12.034   5.606  1.7759  0.2678 -1.8219
11146SOL    HW240489   8.325  12.013   5.560  0.5210  0.1389  1.7946
11147SOL     OW40490  11.696   4.124  11.463 -0.1943 -0.3982 -0.0680
11147SOL    HW140491  11.666   4.035  11.443  1.8149 -1.2274  0.3501
11147SOL    HW240492  11.748   4.113  11.543  1.1258  0.9262 -0.7109
11148SOL     OW40493   8.164   2.857  11.067  0.3527  0.0636 -0.3129
11148SOL    HW140494   8.128   2.868  11.155  0.8458 -0.1608 -0.0800
11148SOL    HW240495   8.101   2.900  11.010  0.0569  0.2591  0.1551
11149SOL     OW40496  11.936   9.388   2.118  0.0634 -1.0103  0.6952
11149SOL    HW140497  11.854   9.430   2.093  0.6432  0.5559  1.2967
11149SOL    HW240498  11.931   9.382   2.213  1.0316  0.0088  0.8309
11150SOL     OW40499   8.646   5.681   9.300  0.2091 -0.1213 -0.1804
11150SOL    HW140500   8.648   5.673   9.396 -2.1937 -0.9807 -0.1226
11150SOL    HW240501   8.575   5.742   9.282  0.0042 -0.6823 -1.4168
11151SOL     OW40502   7.617   2.227  11.243  0.0484  0.1121 -0.0630
11151SOL    HW140503   7.598   2.257  11.332  0.1981  0.2630 -0.0822
11151SOL    HW240504   7.673   2.294  11.206  1.0664 -0.5873  0.1746
11152SOL     OW40505   9.435   6.288   1.362  0.3850 -0.1720  0.4196
11152SOL    HW140506   9.406   6.311   1.450 -1.4267  2.3772 -0.7042
11152SOL    HW240507   9.515   6.237   1.375 -0.7176 -1.3515  3.5419
11153SOL     OW40508   7.512   0.821   7.715 -0.2100  0.1772  0.0154
11153SOL    HW140509   7.557   0.766   7.651  0.5403  0.2625  0.4620
11153SOL    HW240510   7.465   0.759   7.771 -0.8279  0.0990 -0.5679
11154SOL     OW40511  11.574   8.522   3.666 -0.0110 -0.4853  0.1565
11154SOL    HW140512  11.493   8.568   3.688 -0.3383 -0.5345 -0.8562
11154SOL    HW240513  11.550   8.429   3.669  0.5606 -0.6064  1.8690
11155SOL     OW40514   4.002   8.589   9.503  0.7294 -0.3759  0.3189
11155SOL    HW140515   3.986   8.496   9.515 -1.9153  0.2144  2.4791
11155SOL    HW240516   3.961   8.610   9.419  1.6961 -1.1738 -0.3729
11156SOL     OW40517   1.024   6.815  11.642  0.3139 -0.4397  0.2441
11156SOL    HW140518   1.037   6.750  11.711  1.6075  0.7128  1.1295
11156SOL    HW240519   1.015   6.763  11.562 -0.0030 -1.7548  1.0963
11157SOL     OW40520  10.779   9.101   1.262  0.1568  0.2421  0.1460
11157SOL    HW140521  10.771   9.037   1.191  2.2401 -0.1217  0.1687
11157SOL    HW240522  10.796   9.049   1.340 -0.4435  0.7332  0.6230
11158SOL     OW40523   3.321  11.871   0.394  0.3189 -0.6825 -0.5509
11158SOL    HW140524   3.382  11.923   0.446  0.3900 -0.6516 -0.6664
11158SOL    HW240525   3.355  11.874   0.305 -0.2380 -0.0629 -0.7528
11159SOL     OW40526   2.352   8.348   1.739 -0.5473  0.1270 -0.1912
11159SOL    HW140527   2.357   8.408   1.813  0.2418 -0.1165 -0.0440
11159SOL    HW240528   2.417   8.281   1.758 -0.8119 -0.3030 -0.7802
11160SOL     OW40529   3.033   1.683   8.294  0.2273  0.0061  1.0915
11160SOL    HW140530   2.955   1.661   8.346 -0.9784  0.9620 -0.2242
11160SOL    HW240531   2.998   1.724   8.214  2.1170  2.0915  1.2160
11161SOL     OW40532   6.732   3.096   6.281 -0.1734 -0.1437  0.2537
11161SOL    HW140533   6.729   3.181   6.236  0.4987 -0.4534 -0.3948
11161SOL    HW240534   6.643   3.062   6.274 -0.3891  0.3930  0.3001
11162SOL     OW40535  10.619   7.632   7.862  0.5677 -0.3414 -0.0695
11162SOL    HW140536  10.541   7.589   7.827  1.5983 -2.4757  0.0923
11162SOL    HW240537  10.595   7.724   7.868 -1.0470 -0.5101 -2.4718
11163SOL     OW40538  11.696   3.718   7.973 -0.4187  0.2667  0.7127
11163SOL    HW140539  11.619   3.732   7.918  0.8294  0.2424 -1.1421
11163SOL    HW240540  11.678   3.635   8.017 -0.7160 -0.6861 -1.0908
11164SOL     OW40541   3.780   0.322   5.664 -0.2040  0.1526  0.3186
11164SOL    HW140542   3.688   0.341   5.647  0.0997  0.0267 -1.6790
11164SOL    HW240543   3.797   0.241   5.615  0.8616 -0.0840  1.0465
11165SOL     OW40544   3.606   0.560  11.818  0.4408  0.2539  0.0272
11165SOL    HW140545   3.697   0.562  11.848 -0.0566 -3.5726  2.4422
11165SOL    HW240546   3.608   0.510  11.737  0.3465 -1.9628  1.3251
11166SOL     OW40547  10.149   5.008   2.932 -0.6245 -0.0455 -0.0106
11166SOL    HW140548  10.161   4.957   3.011  0.0240  0.5295  0.2783
11166SOL    HW240549  10.195   5.091   2.949 -2.1196  0.8718 -0.2348
11167SOL     OW40550  12.136   9.895   1.941 -0.2507  0.1686  0.2300
11167SOL    HW140551  12.113   9.842   1.864  1.5218 -2.7890  1.5626
11167SOL    HW240552  12.070   9.872   2.006  0.3255 -0.1515  0.7089
11168SOL     OW40553   1.393   7.791  10.199  0.8327  0.3708 -0.3635
11168SOL    HW140554   1.401   7.876  10.243  1.0442  0.2122 -0.0944
11168SOL    HW240555   1.360   7.732  10.267 -0.6538  0.5439 -0.9056
11169SOL     OW40556   6.519   4.436   2.473  0.2503  0.3978 -0.5381
11169SOL    HW140557   6.526   4.385   2.554 -1.2938 -2.3247 -1.9914
11169SOL    HW240558   6.429   4.469   2.473  0.0437 -0.1341 -1.3918
11170SOL     OW40559  11.587   2.802   9.878  0.6885  0.3756 -0.0222
11170SOL    HW140560  11.540   2.758   9.948  0.7615 -0.5377 -0.5354
11170SOL    HW240561  11.526   2.802   9.804  1.0462  0.2589 -0.3222
11171SOL     OW40562  10.125   9.968  11.464  0.2851 -0.3020  0.1096
11171SOL    HW140563  10.113  10.036  11.530 -0.2920 -1.4116  1.2052
11171SOL    HW240564  10.199   9.916  11.495 -0.2226 -1.0543  0.1077
11172SOL     OW40565   3.296   3.886  10.618  0.2099  0.1714  0.1741
11172SOL    HW140566   3.351   3.809  10.632 -1.2916 -0.8576  0.5787
11172SOL    HW240567   3.268   3.911  10.706 -1.7451 -0.6632 -0.1842
11173SOL     OW40568   2.803   1.276   9.281  0.7435  0.4643  0.2067
11173SOL    HW140569   2.807   1.181   9.292 -0.6383  0.2448 -0.9243
11173SOL    HW240570   2.830   1.310   9.367 -1.4824 -1.0101  1.6101
11174SOL     OW40571   0.155  12.592   2.875  0.3806  0.4912  0.7364
11174SOL    HW140572   0.248  12.607   2.860  0.5078 -0.6297  0.3305
11174SOL    HW240573   0.119  12.569   2.790 -0.2953  0.9881  0.8723
11175SOL     OW40574   6.720   6.671   0.610 -0.6990 -0.0324  0.3038
11175SOL    HW140575   6.762   6.699   0.528 -2.5912  0.1553 -0.6705
11175SOL    HW240576   6.635   6.636   0.582 -0.8119 -1.2767  2.0800
11176SOL     OW40577   8.016   0.131  10.539 -0.5849 -0.1665  0.0498
11176SOL    HW140578   8.036   0.040  10.515 -1.3066 -0.6377  1.1498
11176SOL    HW240579   8.049   0.140  10.628 -0.1782  0.7804 -0.1817
11177SOL     OW40580   0.960   8.816   4.646  0.0084 -0.3284  0.5882
11177SOL    HW140581   1.036   8.835   4.700  1.2327 -2.4410 -0.2520
11177SOL    HW240582   0.907   8.758   4.700 -0.9684  0.9947  1.1021
11178SOL     OW40583  11.182  10.006  11.610  0.1103 -0.0165 -0.8784
11178SOL    HW140584  11.182  10.052  11.527  1.8850  1.5395 -0.0689
11178SOL    HW240585  11.268   9.964  11.615  0.6780  1.2548  0.8417
11179SOL     OW40586   6.515  12.456  11.362  0.4845  0.0098  0.2492
11179SOL    HW140587   6.593  12.409  11.392  1.2107  0.9593 -0.1154
11179SOL    HW240588   6.485  12.407  11.285  2.8167  1.6032 -1.8072
11180SOL     OW40589   1.595   6.554   5.437  0.9617  0.1209  0.5543
11180SOL    HW140590   1.563   6.544   5.527 -0.7535 -2.5715 -0.2208
11180SOL    HW240591   1.517   6.573   5.386  1.5443 -0.5658 -0.6283
11181SOL     OW40592   6.773   1.892   7.316  0.5909 -0.3777 -0.1099
11181SOL    HW140593   6.794   1.827   7.248  2.3815  0.7923 -0.7347
11181SOL    HW240594   6.771   1.842   7.397  2.4643 -1.1834 -0.4975
11182SOL     OW40595   1.741   8.571   5.802  0.3676 -0.3270 -0.4602
11182SOL    HW140596   1.667   8.512   5.787  0.2817  0.0451 -1.6312
11182SOL    HW240597   1.724   8.646   5.746  0.5835  0.7426  0.8603
11183SOL     OW40598   9.834   6.013   7.297 -0.7145 -0.8527 -0.1705
11183SOL    HW140599   9.891   6.075   7.251  0.5225 -0.1868  2.0998
11183SOL    HW240600   9.876   5.928   7.283 -0.6684 -0.7497 -0.7041
11184SOL     OW40601   9.909   1.398   1.060 -0.4027 -0.7403 -0.5607
11184SOL    HW140602   9.943   1.488   1.066  1.7761 -1.5363 -0.2363
11184SOL    HW240603   9.889   1.387   0.967 -0.4321 -0.0059 -0.6492
11185SOL     OW40604   6.722  12.253   5.252 -0.3343  0.4999  0.5832
11185SOL    HW140605   6.665  12.223   5.323 -1.0161  2.1642  0.7985
11185SOL    HW240606   6.672  12.234   5.172  1.0811 -2.7682  0.3657
11186SOL     OW40607   9.285   8.366   8.251 -0.3452 -0.5341 -0.2360
11186SOL    HW140608   9.204   8.315   8.245 -0.4427 -0.3722 -0.3126
11186SOL    HW240609   9.257   8.451   8.285 -0.3945 -0.0617 -1.3889
11187SOL     OW40610   0.626   3.277   2.270 -0.1559 -0.6197  0.4121
11187SOL    HW140611   0.717   3.262   2.295 -0.2337 -0.3844  0.8540
11187SOL    HW240612   0.594   3.192   2.240  0.5629 -0.4438 -0.9063
11188SOL     OW40613   9.497   2.046  10.318  0.1778  0.0924 -0.3848
11188SOL    HW140614   9.496   2.095  10.235  0.5219  0.5492 -0.1236
11188SOL    HW240615   9.579   2.073  10.360 -0.3127  0.3774  0.4124
11189SOL     OW40616   9.089  10.124   3.970 -0.0463  0.1241 -0.0509
11189SOL    HW140617   9.156  10.169   3.919 -1.3780  2.2933 -0.0468
11189SOL    HW240618   9.137  10.076   4.037  1.6471 -1.4428 -2.2505
11190SOL     OW40619   9.820   5.567   3.902 -0.8551 -0.5586  0.3248
11190SOL    HW140620   9.861   5.652   3.920 -2.3956  0.7794 -1.9120
11190SOL    HW240621   9.726   5.585   3.904 -1.2229 -1.5686 -2.5449
11191SOL     OW40622   8.306   3.542  11.430 -0.1320  0.0152 -0.2156
11191SOL    HW140623   8.265   3.564  11.514 -0.7301  1.3975 -0.8350
11191SOL    HW240624   8.310   3.446  11.429  0.2297 -0.0126  1.5351
11192SOL     OW40625  11.037   1.140   3.788  0.1092  0.0060  0.0773
11192SOL    HW140626  11.032   1.046   3.803  0.1814  0.1620  1.2292
11192SOL    HW240627  11.104   1.151   3.720 -0.0805 -0.7812 -0.2406
11193SOL     OW40628   4.435   4.721   5.959  0.5181 -0.3296  0.1352
11193SOL    HW140629   4.497   4.650   5.974 -0.5629 -1.1831  0.7024
11193SOL    HW240630   4.373   4.715   6.032  1.0110  1.9020  0.8373
11194SOL     OW40631   4.615   5.728   6.354 -0.3550 -0.4871  0.1576
11194SOL    HW140632   4.542   5.681   6.396 -2.0488  1.5178 -0.3762
11194SOL    HW240633   4.601   5.713   6.260  0.6259 -1.0218  0.0862
11195SOL     OW40634  10.237   1.869   0.368 -0.5052 -0.2423  0.5640
11195SOL    HW140635  10.217   1.775   0.367 -1.1749 -0.0991  0.5257
11195SOL    HW240636  10.171   1.909   0.313 -0.3644  0.2871  0.7710
11196SOL     OW40637   3.812   7.351   0.815 -0.0819  0.4043 -0.1778
11196SOL    HW140638   3.889   7.302   0.844  0.7665  2.4950  1.3489
11196SOL    HW240639   3.848   7.426   0.767 -1.3015  0.0980 -1.6541
11197SOL     OW40640   4.893   1.662   3.260 -0.5807  0.2110  0.7215
11197SOL    HW140641   4.941   1.587   3.225 -0.7199  1.0461 -1.4328
11197SOL    HW240642   4.961   1.729   3.274 -0.5749 -0.0039  1.8089
11198SOL     OW40643   1.703   6.933   6.428 -0.0605  0.4054 -0.0715
11198SOL    HW140644   1.674   6.870   6.493  0.8633  0.2851  0.2292
11198SOL    HW240645   1.799   6.932   6.434 -0.0341  2.4898  0.5729
11199SOL     OW40646  12.191   8.194   1.006 -0.7006 -0.2067 -0.3024
11199SOL    HW140647  12.232   8.237   0.931 -3.3074 -0.8280 -2.2129
11199SOL    HW240648  12.216   8.102   0.996 -0.0670 -0.1183  0.3431
11200SOL     OW40649   2.705   9.398   2.274  0.5048  0.1572 -0.4044
11200SOL    HW140650   2.697   9.408   2.369  3.0658 -1.8154  0.1460
11200SOL    HW240651   2.760   9.471   2.246 -0.7179  1.0647 -0.5089
11201SOL     OW40652   8.529   5.040   2.636 -0.4208  0.0287  0.9167
11201SOL    HW140653   8.512   5.022   2.728 -4.3452 -0.0651  0.3627
11201SOL    HW240654   8.501   4.960   2.590 -1.2743  1.0483 -0.4559
11202SOL     OW40655   2.321  12.033   7.162 -0.1626 -0.1490 -0.0155
11202SOL    HW140656   2.327  12.128   7.164  0.3236 -0.1649 -0.5619
11202SOL    HW240657   2.239  12.015   7.117  0.4664  0.0053 -1.2501
11203SOL     OW40658   3.599   1.063  10.243 -0.2093 -0.3675 -0.1156
11203SOL    HW140659   3.603   0.978  10.199 -0.6553 -1.8384  2.4663
11203SOL    HW240660   3.522   1.106  10.205  0.1092 -1.0139 -1.5783
11204SOL     OW40661   0.695   1.780  10.625 -0.3686 -0.3643 -0.2023
11204SOL    HW140662   0.616   1.812  10.582  0.6723  1.5268 -0.7904
11204SOL    HW240663   0.735   1.720  10.561  0.4372  1.3484 -1.3731
11205SOL     OW40664  11.724   1.076   0.386  0.2185  0.2228  0.5039
11205SOL    HW140665  11.750   1.102   0.474 -1.2987 -0.4165  1.1749
11205SOL    HW240666  11.714   1.158   0.338  2.2687  0.5316  0.5241
11206SOL     OW40667   3.228   0.558   1.589 -0.0865 -0.1016  0.3267
11206SOL    HW140668   3.192   0.647   1.583 -1.1934 -0.4502  1.3450
11206SOL    HW240669   3.158   0.507   1.631  0.5995 -1.4190 -0.0740
11207SOL     OW40670   9.510   8.819   1.718  0.1276  0.2151  0.3054
11207SOL    HW140671   9.563   8.868   1.782 -1.2881  1.4583  0.5741
11207SOL    HW240672   9.461   8.756   1.770 -0.2537  0.5292  0.3323
11208SOL     OW40673  11.965   5.743   0.690 -0.2106 -0.0002  0.2585
11208SOL    HW140674  12.035   5.745   0.625 -0.1179  1.8977  0.3550
11208SOL    HW240675  11.982   5.664   0.741  1.8508  0.3648  0.2248
11209SOL     OW40676   7.318   7.843  11.847  0.0519 -0.0417 -0.5751
11209SOL    HW140677   7.327   7.837  11.943 -2.5219 -0.7880 -0.3022
11209SOL    HW240678   7.294   7.934  11.831  0.2645  0.0311 -0.4810
11210SOL     OW40679   7.140  11.399  10.479 -0.0429 -0.5173  0.2979
11210SOL    HW140680   7.068  11.336  10.487 -1.3106  0.9529  0.8441
11210SOL    HW240681   7.194  11.364  10.407 -1.5125 -1.4590 -0.3995
11211SOL     OW40682  12.047   9.333   7.090 -0.0210 -0.0705 -0.1717
11211SOL    HW140683  12.021   9.337   6.998  0.4318 -0.5566 -0.3277
11211SOL    HW240684  12.034   9.241   7.114  0.4359 -0.0686  0.0789
11212SOL     OW40685   2.666  11.874  12.080  0.0854 -0.5309  0.7280
11212SOL    HW140686   2.642  11.803  12.140 -1.0993 -0.0008  0.9194
11212SOL    HW240687   2.621  11.951  12.116  0.4670  0.0796 -0.0858
11213SOL     OW40688   7.207   1.841   6.741 -0.3421  0.0937 -0.6547
11213SOL    HW140689   7.211   1.864   6.649 -0.0589 -0.4668 -0.7896
11213SOL    HW240690   7.288   1.792   6.757  1.4239  3.2059  0.7378
11214SOL     OW40691   1.032   8.721   3.121  0.4071 -0.2967  0.3884
11214SOL    HW140692   1.110   8.666   3.111 -0.3771 -1.6566  1.3614
11214SOL    HW240693   1.047   8.770   3.202  0.0033 -1.0682  0.9542
11215SOL     OW40694   9.714   5.630   2.524  0.1096 -0.7121 -0.2474
11215SOL    HW140695   9.732   5.537   2.507  0.4869 -0.3632 -1.8645
11215SOL    HW240696   9.772   5.677   2.464  0.3263  0.6038  0.9237
11216SOL     OW40697   1.097  10.636   1.872  0.3851  0.5960  0.5388
11216SOL    HW140698   1.066  10.722   1.843 -0.3482 -0.0301 -0.5868
11216SOL    HW240699   1.095  10.641   1.967 -0.4849  1.5304  0.4894
11217SOL     OW40700   1.202   4.540  10.154 -0.3461  0.3023  0.0817
11217SOL    HW140701   1.108   4.544  10.134 -0.2940  0.6015 -0.1083
11217SOL    HW240702   1.206   4.511  10.245 -0.5645 -3.8986 -1.0362
11218SOL     OW40703   7.963  10.134   5.228  0.1207  0.4361 -0.0654
11218SOL    HW140704   8.010  10.208   5.267  0.0914  1.4615 -1.8811
11218SOL    HW240705   7.995  10.130   5.138 -1.6756 -0.2258 -0.7124
11219SOL     OW40706  10.759   7.774   0.076  0.8247  0.2888 -0.0209
11219SOL    HW140707  10.677   7.752   0.032  0.7681  1.3096 -0.4609
11219SOL    HW240708  10.761   7.720   0.154  0.9412 -1.6247 -1.2895
11220SOL     OW40709  11.027   3.195   3.005 -0.0692 -0.2522  0.2192
11220SOL    HW140710  11.072   3.127   2.955 -0.2145  0.2045 -0.5546
11220SOL    HW240711  11.096   3.254   3.035 -0.1041  0.2459 -0.6542
11221SOL     OW40712   0.504  12.062  10.388 -0.0880  0.5978  0.8131
11221SOL    HW140713   0.574  12.030  10.331 -1.4886  0.7229 -1.0655
11221SOL    HW240714   0.485  11.988  10.446  0.7110  0.1193  0.4878
11222SOL     OW40715  10.780   8.277   4.572  0.1811 -0.0413  0.5443
11222SOL    HW140716  10.692   8.240   4.561 -0.0954  0.3137  1.4482
11222SOL    HW240717  10.815   8.282   4.483 -0.2467 -1.2956  0.2836
11223SOL     OW40718   5.832   5.649   3.414 -0.0555  0.3159 -0.3133
11223SOL    HW140719   5.758   5.650   3.353 -0.6695 -0.0104  0.4105
11223SOL    HW240720   5.908   5.674   3.361 -0.1611 -2.1394 -1.7347
11224SOL     OW40721  12.184   7.679   2.648  0.4781 -0.4099 -0.3519
11224SOL    HW140722  12.266   7.638   2.677  0.8610 -0.4215 -1.4037
11224SOL    HW240723  12.210   7.768   2.622  0.6076 -1.0906 -2.7645
11225SOL     OW40724  12.354   2.139  11.243 -0.4165 -0.3184  0.4533
11225SOL    HW140725  12.425   2.079  11.223  0.4356 -0.1795  2.7207
11225SOL    HW240726  12.275   2.085  11.238  0.1478 -1.1894  0.6585
11226SOL     OW40727   3.535  11.191  11.633 -0.1680 -0.1706  0.3856
11226SOL    HW140728   3.478  11.162  11.704 -0.4109  0.8874  0.6524
11226SOL    HW240729   3.517  11.285  11.626  1.1023  0.0652  0.0649
11227SOL     OW40730   4.826   0.525   7.252 -0.2877 -0.2399 -0.0866
11227SOL    HW140731   4.768   0.579   7.198  0.1543 -0.2990 -0.6293
11227SOL    HW240732   4.767   0.470   7.303 -0.7162 -0.0025 -0.3229
11228SOL     OW40733   7.711  11.388   3.398  0.2653 -0.5863  0.0384
11228SOL    HW140734   7.750  11.327   3.461 -0.6059  0.3581  1.5323
11228SOL    HW240735   7.635  11.340   3.364  0.8850 -1.2000 -0.5326
11229SOL     OW40736  11.401   4.183   3.437 -0.2049  0.0354 -0.1548
11229SOL    HW140737  11.374   4.270   3.464  1.7634  0.6627 -0.0750
11229SOL    HW240738  11.322   4.130   3.444 -1.3040  1.6812  0.3235
11230SOL     OW40739  11.718   9.179   5.287  0.1391 -0.1736  0.4108
11230SOL    HW140740  11.789   9.170   5.224  0.4680 -0.5512  0.8218
11230SOL    HW240741  11.670   9.257   5.259 -0.1307 -0.7244 -0.7008
11231SOL     OW40742   1.377   4.793   8.284 -0.0311 -0.1316 -0.1156
11231SOL    HW140743   1.293   4.838   8.275  0.2910  0.5797  0.3846
11231SOL    HW240744   1.431   4.831   8.215  0.8212  1.6127  1.4486
11232SOL     OW40745   7.343   7.952   5.501 -0.3875 -0.0154  0.1622
11232SOL    HW140746   7.340   7.993   5.415  0.5150  0.4747  0.3550
11232SOL    HW240747   7.435   7.930   5.514 -0.3174  0.9754  1.4959
11233SOL     OW40748   6.833   2.049   4.819 -0.1524  0.6749 -0.3566
11233SOL    HW140749   6.763   1.984   4.823  1.5656 -1.2167  1.1955
11233SOL    HW240750   6.890   2.017   4.749 -0.0326  1.3543 -0.5766
11234SOL     OW40751   0.978   6.233  10.373  0.5270  0.0541  0.5059
11234SOL    HW140752   0.962   6.296  10.303  1.5973 -3.0949 -2.8619
11234SOL    HW240753   1.060   6.263  10.413 -0.0218  1.8442  0.3589
11235SOL     OW40754   3.622   0.730  12.464 -0.4277  0.0882  0.2455
11235SOL    HW140755   3.585   0.742  12.377 -3.0851 -1.1085  1.0729
11235SOL    HW240756   3.563   0.779  12.522  0.1220 -0.7088  1.5335
11236SOL     OW40757   7.252   6.178  12.484 -0.2855  0.0567 -0.3500
11236SOL    HW140758   7.299   6.121  12.424  1.2826 -0.6901  1.4875
11236SOL    HW240759   7.171   6.130  12.504 -0.0644 -0.4386 -0.6201
11237SOL     OW40760   7.668   3.167   3.420  0.3364 -0.6761 -0.4312
11237SOL    HW140761   7.749   3.216   3.408 -0.0660  0.2046  0.3605
11237SOL    HW240762   7.602   3.216   3.372  0.1960 -1.2099 -0.7980
11238SOL     OW40763   0.178  10.690  11.983 -0.3498  0.1595 -0.1770
11238SOL    HW140764   0.212  10.605  12.011 -0.3177 -0.0094 -0.7161
11238SOL    HW240765   0.120  10.717  12.054 -0.1693 -0.2023  0.1096
11239SOL     OW40766  10.943   2.729  10.035 -0.5306  0.4549 -0.4281
11239SOL    HW140767  10.995   2.660  10.077  0.9305  1.9012  0.2736
11239SOL    HW240768  10.881   2.757  10.102 -2.5097 -1.4445 -1.3467
11240SOL     OW40769   6.890  11.308   5.200 -0.0975 -0.4557 -0.4657
11240SOL    HW140770   6.802  11.328   5.167 -0.2607 -1.2886 -0.5738
11240SOL    HW240771   6.884  11.217   5.229  0.1865  0.0828  1.3902
11241SOL     OW40772   4.606  10.576   1.882 -0.3700 -0.1986  0.1219
11241SOL    HW140773   4.589  10.564   1.788 -2.1685  0.5223  0.3215
11241SOL    HW240774   4.523  10.556   1.924  0.0216  0.8601  1.4554
11242SOL     OW40775  10.713   6.722   5.369 -0.4397  0.3553 -0.0035
11242SOL    HW140776  10.697   6.795   5.310 -0.9263  0.1015 -0.1909
11242SOL    HW240777  10.627   6.681   5.381 -0.0074 -0.8223 -0.7420
11243SOL     OW40778   2.693  10.192   3.161 -0.0799  0.1289  0.1762
11243SOL    HW140779   2.730  10.134   3.094  0.5752 -0.2552  0.8469
11243SOL    HW240780   2.664  10.269   3.113 -1.3920 -0.9420 -0.7985
11244SOL     OW40781   7.291  11.344   2.265 -0.4736 -0.3972  0.5930
11244SOL    HW140782   7.319  11.273   2.323 -1.5420 -1.2958  0.0556
11244SOL    HW240783   7.274  11.302   2.181 -1.3784  0.4376  0.3299
11245SOL     OW40784   4.898  12.564  12.303 -0.0935 -0.0279 -0.0244
11245SOL    HW140785   4.957  12.517  12.244  0.5560 -1.0524  1.3598
11245SOL    HW240786   4.817  12.513  12.301 -0.4210  0.5173 -0.7869
11246SOL     OW40787   9.724   5.352  12.124 -0.2977 -0.0546  0.9143
11246SOL    HW140788   9.753   5.346  12.033  3.1882 -0.5630  1.9187
11246SOL    HW240789   9.703   5.445  12.136  0.8176  0.3516 -0.0294
11247SOL     OW40790   8.665   9.298   0.782 -0.4893  0.1155  0.4588
11247SOL    HW140791   8.602   9.340   0.723  0.3650 -0.1555 -0.6652
11247SOL    HW240792   8.667   9.356   0.859 -1.5452  0.5218  0.2081
11248SOL     OW40793   0.056   9.552   6.878  0.4623 -0.1965  0.3710
11248SOL    HW140794   0.002   9.616   6.925 -0.0717  0.1997 -0.7280
11248SOL    HW240795   0.101   9.503   6.946  1.0633  1.4978  1.2517
11249SOL     OW40796   7.933   0.777   5.359 -0.5309  1.0166  0.0864
11249SOL    HW140797   8.017   0.736   5.338 -1.2698  0.4543 -2.0880
11249SOL    HW240798   7.931   0.857   5.306 -0.7088  1.9109  1.3905
11250SOL     OW40799   6.000  10.576   1.360 -0.7296  0.5522 -0.5509
11250SOL    HW140800   6.058  10.539   1.427 -0.1389  0.6239 -1.0178
11250SOL    HW240801   5.942  10.503   1.337  0.2292 -0.0183 -1.2456
11251SOL     OW40802   8.564  10.711  12.463 -0.0875 -0.1021  0.5552
11251SOL    HW140803   8.496  10.748  12.406 -1.6595 -0.9153  1.8310
11251SOL    HW240804   8.572  10.620  12.435  0.8135  0.0893  0.1450
11252SOL     OW40805   6.690   5.555   2.820 -0.3289 -0.0361 -0.2608
11252SOL    HW140806   6.655   5.603   2.744  0.9766 -0.9290 -1.4903
11252SOL    HW240807   6.727   5.475   2.782  3.1249  0.8821  0.8448
11253SOL     OW40808   0.316   0.433   5.589 -0.0276 -0.0000 -0.6861
11253SOL    HW140809   0.266   0.481   5.655  0.6932 -0.8909  0.5565
11253SOL    HW240810   0.405   0.468   5.596  0.0170  0.0126 -1.2980
11254SOL     OW40811  11.401   7.968   3.409  0.2977  0.3162 -0.2015
11254SOL    HW140812  11.313   7.995   3.436 -0.6614 -1.5218 -1.2781
11254SOL    HW240813  11.424   8.029   3.338 -1.1496 -0.6104 -1.5298
11255SOL     OW40814   8.365   7.593  11.440 -0.4722 -0.1885  0.2372
11255SOL    HW140815   8.388   7.522  11.379 -0.9862  0.3632 -0.6150
11255SOL    HW240816   8.413   7.571  11.520  0.1585 -0.9729 -0.3281
11256SOL     OW40817  11.590   5.689  10.094  0.1348  0.3519 -0.6889
11256SOL    HW140818  11.599   5.749  10.167  1.7552 -1.0438  0.3136
11256SOL    HW240819  11.495   5.678  10.084 -0.1246  0.9649  0.8424
11257SOL     OW40820  12.128   2.395  10.744  0.0892 -0.8846 -0.8029
11257SOL    HW140821  12.124   2.453  10.820  1.1130 -1.2208 -0.4642
11257SOL    HW240822  12.135   2.307  10.782 -1.5925 -1.2653 -1.3037
11258SOL     OW40823   1.245  10.136   1.885  0.2602 -0.2976 -0.4566
11258SOL    HW140824   1.227  10.208   1.825  1.6360  0.1291 -0.3949
11258SOL    HW240825   1.179  10.070   1.864  0.6007 -0.0970 -2.3572
11259SOL     OW40826   9.434  11.974   7.050  0.3482 -0.6544  0.2953
11259SOL    HW140827   9.462  12.040   6.987  0.0886 -2.0516 -1.3614
11259SOL    HW240828   9.515  11.944   7.091  0.3442  1.7919  2.3187
11260SOL     OW40829   2.263   1.821  10.628 -0.3690 -0.0125 -0.1034
11260SOL    HW140830   2.181   1.833  10.580 -0.8635  0.9801  0.9342
11260SOL    HW240831   2.236   1.817  10.720  0.7980  1.0694  0.3069
11261SOL     OW40832  11.234  11.462   9.797 -0.3645 -0.2153  0.2914
11261SOL    HW140833  11.209  11.496   9.711 -1.2379 -0.5826  0.3839
11261SOL    HW240834  11.216  11.533   9.857  0.9399  0.3028  0.0986
11262SOL     OW40835   1.513   2.874  12.442  0.0779 -0.0775  0.3061
11262SOL    HW140836   1.435   2.828  12.476 -1.3291 -0.3340 -2.9322
11262SOL    HW240837   1.478   2.953  12.401  1.9770  1.5299  1.6255
11263SOL     OW40838   4.932   0.792   8.792 -0.3445  0.1982 -0.1885
11263SOL    HW140839   5.013   0.842   8.796 -1.3071  1.9949 -1.7514
11263SOL    HW240840   4.865   0.852   8.823 -1.3879 -0.5129 -1.0143
11264SOL     OW40841   4.265   2.551  12.517  0.2968 -0.0437 -0.4808
11264SOL    HW140842   4.349   2.597  12.511 -0.1185  0.9024  0.5319
11264SOL    HW240843   4.199   2.620  12.508 -0.3611 -0.6204 -0.2003
11265SOL     OW40844   1.617   0.991   3.237  0.2788  0.3044  0.6127
11265SOL    HW140845   1.601   1.065   3.295  0.2642  1.1189 -0.4006
11265SOL    HW240846   1.537   0.984   3.185  0.0182 -0.8533  1.1537
11266SOL     OW40847  11.183   9.923   5.875 -0.8182  0.3726 -0.1679
11266SOL    HW140848  11.108   9.864   5.885  0.4423 -1.2625 -0.1603
11266SOL    HW240849  11.236   9.884   5.806 -0.3598  1.9568 -0.7564
11267SOL     OW40850   7.138   8.551  12.381 -1.1274  0.6142 -0.4128
11267SOL    HW140851   7.132   8.577  12.289 -0.2288 -0.0788 -0.6837
11267SOL    HW240852   7.178   8.625  12.425 -2.7828  1.4950 -0.3047
11268SOL     OW40853   4.892   6.582   0.430  0.2373 -0.4471  0.2169
11268SOL    HW140854   4.894   6.529   0.351  0.7554 -1.4845  0.8989
11268SOL    HW240855   4.970   6.555   0.479  0.1555  0.4746  0.8929
11269SOL     OW40856   2.755   3.462   7.611 -0.4852  0.0317 -0.1056
11269SOL    HW140857   2.710   3.380   7.632  0.3342 -0.8241 -1.5282
11269SOL    HW240858   2.834   3.460   7.665 -1.5648  1.0252  1.5900
11270SOL     OW40859   6.288   3.888   6.254 -0.4828  0.6726  0.1285
11270SOL    HW140860   6.284   3.932   6.339  0.3279  1.5970 -0.2892
11270SOL    HW240861   6.361   3.930   6.209  1.3500 -2.1129  0.2654
11271SOL     OW40862   5.730   0.827   1.260 -0.0371  0.0817  0.1740
11271SOL    HW140863   5.707   0.736   1.241 -0.1106  0.1512 -0.0702
11271SOL    HW240864   5.819   0.823   1.296  0.4201  0.0234 -0.9268
11272SOL     OW40865  10.677   0.601   9.746  0.4886  0.0129  0.4887
11272SOL    HW140866  10.706   0.521   9.702  1.1990  0.5213 -0.0057
11272SOL    HW240867  10.758   0.652   9.759  0.3099 -0.0860  2.3438
11273SOL     OW40868   7.740   1.282   1.445  0.0146  0.2201  0.2370
11273SOL    HW140869   7.787   1.204   1.417  1.1117  0.4844  1.2635
11273SOL    HW240870   7.671   1.248   1.503 -1.4753 -0.2122 -1.6669
11274SOL     OW40871   8.654   9.871   6.989 -0.4040  0.4461 -0.0091
11274SOL    HW140872   8.642   9.957   6.948  0.9185  0.2454 -0.8629
11274SOL    HW240873   8.743   9.873   7.025 -0.6090 -0.3321  0.5861
11275SOL     OW40874   5.170   0.019  10.879  0.5673 -0.0100 -0.3307
11275SOL    HW140875   5.224  -0.059  10.863  1.5405  0.4131  0.7149
11275SOL    HW240876   5.209   0.086  10.823  1.6817  0.5027  0.9846
11276SOL     OW40877  10.228   5.472   0.904 -0.6485 -0.1521  0.0950
11276SOL    HW140878  10.242   5.512   0.990  2.3480 -2.2022  0.7123
11276SOL    HW240879  10.260   5.536   0.841 -0.5206  0.3706  0.6930
11277SOL     OW40880  10.800   2.349   8.483  0.0682  0.2288 -0.0423
11277SOL    HW140881  10.756   2.266   8.468  1.5923 -0.5611 -0.3947
11277SOL    HW240882  10.791   2.397   8.401  2.5723 -1.2806 -1.3201
11278SOL     OW40883   5.247   6.864   9.822 -0.6147  0.4429  0.1887
11278SOL    HW140884   5.193   6.940   9.800 -3.1107 -2.0691 -3.2808
11278SOL    HW240885   5.289   6.839   9.740  1.2617 -1.2039  1.5436
11279SOL     OW40886   9.155  11.147   7.899 -0.3849  0.6366 -0.2681
11279SOL    HW140887   9.161  11.080   7.831  1.1254  0.1816  0.2561
11279SOL    HW240888   9.097  11.109   7.965 -0.8328  0.5323 -0.7200
11280SOL     OW40889   6.773   2.846   7.554  0.6818  0.1867  0.1028
11280SOL    HW140890   6.840   2.779   7.541 -1.2631 -2.0644  0.8057
11280SOL    HW240891   6.784   2.875   7.644  1.4104  0.6774 -0.1404
11281SOL     OW40892   1.435   5.700   2.116  0.5677 -0.7499  0.3009
11281SOL    HW140893   1.479   5.775   2.075 -0.6315 -0.2221 -0.0554
11281SOL    HW240894   1.488   5.625   2.091 -0.3695 -0.5527 -2.7247
11282SOL     OW40895  11.017   4.407   5.719  0.2352  0.1775  0.4723
11282SOL    HW140896  11.110   4.384   5.719  0.0154 -0.8388 -0.7908
11282SOL    HW240897  11.009   4.476   5.653  0.2333  1.0302  1.3337
11283SOL     OW40898   3.377   9.215   3.484 -0.6493  0.0799 -0.4274
11283SOL    HW140899   3.414   9.169   3.560  0.9232  1.6612 -0.1690
11283SOL    HW240900   3.345   9.145   3.427 -0.6413 -1.2062  1.0679
11284SOL     OW40901   5.616   6.904   6.321 -0.2540 -0.7943 -0.4824
11284SOL    HW140902   5.608   6.905   6.226 -0.1986 -0.5047 -0.4842
11284SOL    HW240903   5.706   6.933   6.338 -0.3205 -0.6716 -0.3365
11285SOL     OW40904   1.619  11.935   3.068 -0.1739  0.6838  0.3440
11285SOL    HW140905   1.556  11.864   3.058  0.1554  0.5679 -1.0025
11285SOL    HW240906   1.693  11.895   3.115 -0.2897  0.3222  0.2169
11286SOL     OW40907  11.444   7.399   1.835  0.4895 -0.1791 -0.0582
11286SOL    HW140908  11.469   7.421   1.746 -1.4134  0.5939 -0.4519
11286SOL    HW240909  11.353   7.369   1.828  0.4358 -0.5023  1.5672
11287SOL     OW40910   9.231   7.369   6.749  0.0417 -0.0305  0.0570
11287SOL    HW140911   9.212   7.276   6.754 -1.6086  0.1968 -1.0928
11287SOL    HW240912   9.153   7.412   6.785  0.8898  0.9163  0.8379
11288SOL     OW40913  11.864   8.024   9.913 -0.3267  0.1828  0.6240
11288SOL    HW140914  11.861   8.093   9.979 -1.3650  0.4512  0.3085
11288SOL    HW240915  11.930   7.963   9.945 -0.2018  0.7479  1.4721
11289SOL     OW40916   6.972   8.462   5.245 -0.1536  0.5121 -0.7503
11289SOL    HW140917   6.900   8.484   5.305  0.2045  1.4619 -0.6500
11289SOL    HW240918   6.971   8.532   5.180  1.4339  1.2502 -0.0553
11290SOL     OW40919  10.319   3.341  12.558 -0.2413 -0.0926  0.4169
11290SOL    HW140920  10.359   3.356  12.644  0.6884 -0.7191  0.1145
11290SOL    HW240921  10.237   3.296  12.577  0.2969 -0.8784  0.9572
11291SOL     OW40922   4.976   0.477   9.527  0.4420  0.0633 -0.1301
11291SOL    HW140923   4.923   0.487   9.606  0.6971  2.5942 -0.2193
11291SOL    HW240924   4.916   0.501   9.456  1.2142  1.4347 -0.3546
11292SOL     OW40925   6.406   6.084   1.794 -0.3253 -0.0985 -0.5484
11292SOL    HW140926   6.341   6.016   1.776 -0.9879  0.6366 -0.9359
11292SOL    HW240927   6.443   6.058   1.879  0.3663 -1.6605 -1.2866
11293SOL     OW40928   7.655  10.547   3.327 -0.2264 -0.2508  0.1554
11293SOL    HW140929   7.562  10.569   3.339  0.1009  0.2718  2.1788
11293SOL    HW240930   7.691  10.619   3.276 -0.9790 -0.6044 -0.9018
11294SOL     OW40931   9.332   2.041   9.584 -0.5409 -0.0174  0.2971
11294SOL    HW140932   9.258   1.988   9.611 -1.5060  0.3430 -1.5102
11294SOL    HW240933   9.339   2.027   9.489  0.2974  1.6612  0.0692
11295SOL     OW40934   1.440   5.678   8.729  0.5628  0.1229  0.3541
11295SOL    HW140935   1.437   5.626   8.649 -1.2579 -1.4070  1.3420
11295SOL    HW240936   1.532   5.677   8.756  1.3384  1.2286 -2.0125
11296SOL     OW40937   1.267   7.287   5.914  0.0170  0.0051  0.4475
11296SOL    HW140938   1.347   7.333   5.943 -0.9312  2.8689 -1.0659
11296SOL    HW240939   1.290   7.251   5.829  0.5084 -1.7189  1.2764
11297SOL     OW40940   4.296  12.545   2.025  0.1542 -0.6737 -0.1673
11297SOL    HW140941   4.275  12.454   2.001 -1.7471 -0.2320 -0.3749
11297SOL    HW240942   4.382  12.540   2.066  0.7666 -2.3474 -1.5452
11298SOL     OW40943  11.396   5.173   0.666  0.6603  0.5936 -0.7405
11298SOL    HW140944  11.454   5.227   0.611  1.5958  0.4801  0.1083
11298SOL    HW240945  11.336   5.132   0.604  1.4594  0.7500 -1.6436
11299SOL     OW40946   6.677  11.805   3.821 -0.6134 -0.4681 -0.2025
11299SOL    HW140947   6.616  11.879   3.825 -0.0277 -0.0138  0.3110
11299SOL    HW240948   6.675  11.768   3.909 -1.1600 -1.2846 -0.5425
11300SOL     OW40949   3.783   9.775   3.886 -0.3079 -0.5027 -0.6770
11300SOL    HW140950   3.782   9.684   3.858 -0.8255 -0.8314  0.3892
11300SOL    HW240951   3.876   9.796   3.895 -0.2028 -1.1935 -0.0763
11301SOL     OW40952   6.049   1.583  10.624  0.1724 -0.0513  0.0109
11301SOL    HW140953   6.018   1.505  10.672 -0.5798  0.3178  0.1343
11301SOL    HW240954   5.974   1.642  10.623  0.6297  0.5326 -0.3984
11302SOL     OW40955   4.632   0.942   3.972  0.1958 -0.0066 -0.3253
11302SOL    HW140956   4.716   0.933   3.927 -0.0490  0.8341 -0.9962
11302SOL    HW240957   4.569   0.895   3.917  0.5558 -2.5881  1.3338
11303SOL     OW40958  10.938   6.598   6.942  0.3876  0.0556 -0.2559
11303SOL    HW140959  11.009   6.578   6.881 -0.4915 -1.1725 -0.9346
11303SOL    HW240960  10.859   6.565   6.898 -0.3027 -0.7676  1.4791
11304SOL     OW40961  11.923   2.018   4.651  0.1051  0.3880 -0.0486
11304SOL    HW140962  12.001   2.028   4.597 -1.9739  1.3445 -3.1529
11304SOL    HW240963  11.906   1.924   4.652  0.9540  0.2351  0.1302
11305SOL     OW40964   0.153  12.093   2.768 -0.2105 -0.0381 -0.3159
11305SOL    HW140965   0.196  12.070   2.686 -0.2533  1.5197 -0.8093
11305SOL    HW240966   0.074  12.141   2.742 -0.8127 -0.4897  0.6182
11306SOL     OW40967  10.194  10.500   5.049  0.2802  0.0610  0.3394
11306SOL    HW140968  10.221  10.410   5.067  1.4659  0.2332 -0.4970
11306SOL    HW240969  10.177  10.537   5.135  0.4675 -0.7460  0.7383
11307SOL     OW40970   9.229  11.275   1.094 -0.9683  0.5252  0.7388
11307SOL    HW140971   9.177  11.206   1.051 -0.0255  0.1036  0.2512
11307SOL    HW240972   9.163  11.332   1.134 -1.7587 -1.0070  1.7420
11308SOL     OW40973   5.905   6.617   1.317  0.0585  0.3874  0.0653
11308SOL    HW140974   5.927   6.626   1.224  0.5015 -0.3982  0.0877
11308SOL    HW240975   5.883   6.706   1.345  0.7038  0.7667 -0.5933
11309SOL     OW40976   3.672   1.710   4.464 -0.4562 -0.1919 -0.3970
11309SOL    HW140977   3.585   1.739   4.489 -0.9557 -1.1110 -0.9929
11309SOL    HW240978   3.711   1.786   4.420 -0.5212  0.5834  0.8540
11310SOL     OW40979  10.967   0.811   3.484  0.1480  0.2403 -0.3351
11310SOL    HW140980  10.911   0.832   3.559  0.6798 -0.5720  0.3034
11310SOL    HW240981  11.024   0.887   3.475  0.3769  0.1548  0.3633
11311SOL     OW40982   5.217   9.644   0.760  0.2998  0.5797 -0.1385
11311SOL    HW140983   5.189   9.671   0.847  0.9699  0.1308  0.2254
11311SOL    HW240984   5.135   9.621   0.715 -0.1792  2.1252 -0.1091
11312SOL     OW40985   5.499  10.945   2.633 -0.0729 -0.7268  0.2921
11312SOL    HW140986   5.573  11.001   2.655 -0.1414 -1.3998  2.4453
11312SOL    HW240987   5.483  10.961   2.540  0.5384  2.0492  0.5892
11313SOL     OW40988   1.131   6.437   1.724  0.0269 -0.3717  0.6442
11313SOL    HW140989   1.066   6.489   1.676 -0.6208 -0.6723  1.1733
11313SOL    HW240990   1.110   6.346   1.701 -0.2638 -0.5177  1.4562
11314SOL     OW40991   1.921   4.410   5.603  0.1026  0.0947 -0.7032
11314SOL    HW140992   1.827   4.425   5.616 -0.1144 -0.4829 -1.4700
11314SOL    HW240993   1.961   4.429   5.687 -0.8354 -0.6843 -0.0647
11315SOL     OW40994   4.145   6.863   2.015  0.7221  0.4200  0.0341
11315SOL    HW140995   4.201   6.788   1.994 -0.6358 -1.1989  1.8086
11315SOL    HW240996   4.078   6.863   1.947  0.9765  0.2946 -0.2187
11316SOL     OW40997   0.172   0.159  10.640  0.0337  0.0097 -0.5908
11316SOL    HW140998   0.113   0.093  10.605  1.2396 -1.7055  0.4949
11316SOL    HW240999   0.259   0.120  10.634  0.5456  0.5061  2.1762
11317SOL     OW41000  11.190   7.129   4.522 -0.2342  0.1451  0.3033
11317SOL    HW141001  11.143   7.191   4.466  0.0379  0.5943  0.5571
11317SOL    HW241002  11.129   7.057   4.536  0.2530 -0.7802 -1.8796
11318SOL     OW41003   2.562  11.782   7.431  0.2779  0.1112 -0.1922
11318SOL    HW141004   2.593  11.851   7.372  2.2597  0.8314  1.5668
11318SOL    HW241005   2.641  11.734   7.456 -0.3045  0.4204  2.5553
11319SOL     OW41006   3.234  11.981   9.059 -0.5612  0.3371  0.0754
11319SOL    HW141007   3.200  12.068   9.035 -1.1030  0.1222  0.0526
11319SOL    HW241008   3.274  11.995   9.145  1.2854  1.0764 -0.8598
11320SOL     OW41009  12.488   8.071   6.319 -0.1359 -0.2220 -0.0551
11320SOL    HW141010  12.449   7.994   6.277  0.6877 -0.4692 -0.3870
11320SOL    HW241011  12.421   8.102   6.379 -2.1302  1.2247 -2.7962
11321SOL     OW41012  11.119  11.386   2.871 -0.3099 -0.6203  0.3565
11321SOL    HW141013  11.205  11.422   2.846 -0.8801  0.5508  0.0027
11321SOL    HW241014  11.120  11.390   2.967 -0.7315  1.3638  0.3260
11322SOL     OW41015   7.743   7.361   9.835 -0.2582  0.2911 -0.1757
11322SOL    HW141016   7.670   7.394   9.887  0.2037 -0.5590  1.0932
11322SOL    HW241017   7.817   7.417   9.859 -0.4782  1.1513 -1.4584
11323SOL     OW41018   4.705   8.975   4.420  0.2935 -0.0131 -0.2973
11323SOL    HW141019   4.659   9.052   4.454 -0.5245 -0.5716 -0.1111
11323SOL    HW241020   4.719   8.920   4.497 -1.8281 -1.4234 -0.8385
11324SOL     OW41021   6.992  11.313  11.577 -0.2237 -0.5745  0.1335
11324SOL    HW141022   6.971  11.270  11.495 -0.2296 -2.4358  1.0657
11324SOL    HW241023   6.922  11.377  11.589  0.4437  0.6170 -1.8686
11325SOL     OW41024   0.472   0.872   4.337  0.3123  0.1242 -0.1713
11325SOL    HW141025   0.532   0.946   4.347  2.1952 -1.2715 -0.6769
11325SOL    HW241026   0.466   0.833   4.424 -0.1692  0.4839 -0.0411
11326SOL     OW41027   9.627   8.383   8.283 -0.2741  0.4282 -0.6469
11326SOL    HW141028   9.716   8.350   8.294 -1.1380 -1.8167  0.3016
11326SOL    HW241029   9.602   8.415   8.370 -0.6523  0.3395 -0.7205
11327SOL     OW41030  10.016   8.193   6.318  0.6987 -0.0767  0.0530
11327SOL    HW141031   9.987   8.247   6.392  0.8241  0.4647 -0.2835
11327SOL    HW241032  10.105   8.167   6.341  0.1673 -1.2784  0.8345
11328SOL     OW41033   5.674  11.641   5.656  0.0532 -0.2258 -0.4095
11328SOL    HW141034   5.756  11.655   5.609  0.8052 -1.2939  0.5547
11328SOL    HW241035   5.679  11.551   5.687 -1.3967 -0.2423 -0.1535
11329SOL     OW41036   8.213   9.966   9.988 -0.9039 -0.2103  0.3008
11329SOL    HW141037   8.273   9.895  10.012  0.0225  0.3474 -0.3516
11329SOL    HW241038   8.233  10.036  10.049 -0.8167  0.0226  0.0040
11330SOL     OW41039   6.696   3.993   5.258 -0.0535  0.0192  0.0991
11330SOL    HW141040   6.772   3.940   5.234 -0.0764 -0.3481  0.8007
11330SOL    HW241041   6.712   4.078   5.218 -0.1983 -0.6202 -1.3873
11331SOL     OW41042   5.172   9.842   6.519 -0.1230 -0.1426 -0.0659
11331SOL    HW141043   5.139   9.895   6.592 -1.0380 -0.3369 -0.3238
11331SOL    HW241044   5.097   9.833   6.461  0.0621 -1.5733 -0.1217
11332SOL     OW41045   5.891   1.201  12.278 -0.3447  0.0960 -0.3526
11332SOL    HW141046   5.838   1.179  12.202 -1.4600  0.7260  0.2118
11332SOL    HW241047   5.910   1.295  12.268 -0.1650  0.0932 -0.0608
11333SOL     OW41048  12.507   7.206   3.816  0.2729 -0.1391  0.6125
11333SOL    HW141049  12.486   7.240   3.903 -1.9691  0.6327 -0.1411
11333SOL    HW241050  12.575   7.264   3.783  0.7858 -0.1281  1.6555
11334SOL     OW41051  12.500   0.294  11.051  0.0593  0.6752  0.0201
11334SOL    HW141052  12.593   0.273  11.044  0.0008  0.1007  0.8177
11334SOL    HW241053  12.469   0.296  10.960  0.8659  0.9716 -0.2579
11335SOL     OW41054   6.800  11.112   8.641  0.0773  0.1744 -0.1195
11335SOL    HW141055   6.769  11.163   8.567  1.9220  1.0681 -0.3295
11335SOL    HW241056   6.818  11.176   8.710  0.3453 -0.4235  0.3859
11336SOL     OW41057   7.548   3.852   2.145  0.1152 -0.2714 -0.0792
11336SOL    HW141058   7.637   3.879   2.120  0.3868 -1.1316 -0.0605
11336SOL    HW241059   7.545   3.758   2.126 -0.8523 -0.2121 -0.2433
11337SOL     OW41060   9.486   5.193  10.946 -0.3405 -0.0249  0.0962
11337SOL    HW141061   9.474   5.286  10.929 -0.4820  0.0248  0.4699
11337SOL    HW241062   9.544   5.188  11.021 -1.5992 -0.2036  1.0938
11338SOL     OW41063  11.999   5.192  10.210 -0.0911  0.0089  0.7817
11338SOL    HW141064  11.987   5.100  10.188 -1.8807  0.3337  0.2527
11338SOL    HW241065  11.968   5.199  10.301  0.6533 -0.0208  1.0427
11339SOL     OW41066   4.814  11.255   8.459 -0.0517  0.2770  0.5421
11339SOL    HW141067   4.880  11.230   8.395 -0.1305 -0.4357  0.7311
11339SOL    HW241068   4.810  11.181   8.519 -1.7670 -0.1579 -0.0546
11340SOL     OW41069  10.501  11.304   8.478  0.3604 -0.4120  0.3459
11340SOL    HW141070  10.483  11.288   8.386  4.6878  0.1035 -0.7863
11340SOL    HW241071  10.520  11.218   8.515  0.6194 -0.3996  0.2416
11341SOL     OW41072   8.401   5.795   9.304  0.3836  0.1736 -0.1882
11341SOL    HW141073   8.398   5.827   9.214 -0.8088 -2.0912 -1.0229
11341SOL    HW241074   8.383   5.872   9.357  1.0523  1.5508 -1.8674
11342SOL     OW41075   9.264   1.126   5.848  0.1838  1.1745 -0.6119
11342SOL    HW141076   9.176   1.109   5.882  0.2185 -0.0826 -1.0978
11342SOL    HW241077   9.271   1.222   5.846 -1.1426  1.2892 -0.5038
11343SOL     OW41078   7.636   3.574   4.008 -0.0217 -0.2563  0.5419
11343SOL    HW141079   7.721   3.579   4.051  0.1084 -0.9385  0.3899
11343SOL    HW241080   7.573   3.575   4.080  0.1276 -0.0277  0.6719
11344SOL     OW41081   4.104  10.213   5.695  0.2854 -0.4046 -0.2317
11344SOL    HW141082   4.124  10.134   5.645  1.7571 -0.5903  0.5964
11344SOL    HW241083   4.016  10.198   5.730 -0.3591 -0.7056 -1.8613
11345SOL     OW41084   2.492   0.828   1.419  0.0724 -0.0282 -0.1154
11345SOL    HW141085   2.478   0.789   1.333  0.9993 -1.3642  0.3087
11345SOL    HW241086   2.568   0.885   1.408  0.1225 -0.1128 -0.2055
11346SOL     OW41087   9.849   7.538   4.858  0.1409 -0.5527 -0.2809
11346SOL    HW141088   9.886   7.455   4.831  0.4455 -0.6940  0.5549
11346SOL    HW241089   9.885   7.602   4.796  1.8151 -0.6779  0.5272
11347SOL     OW41090   7.154   9.071   0.812 -0.7762 -0.4735  0.3313
11347SOL    HW141091   7.177   9.054   0.721  0.0610 -0.5833  0.5532
11347SOL    HW241092   7.078   9.015   0.829 -0.4127 -1.0939 -0.0562
11348SOL     OW41093   1.726   1.372   1.281  0.0670  0.1231  0.0420
11348SOL    HW141094   1.724   1.277   1.272  0.8128  0.2679 -2.1729
11348SOL    HW241095   1.755   1.387   1.371 -0.9408 -1.7077  0.7262
11349SOL     OW41096   0.818   2.025  12.284 -0.2178  0.0940 -0.3105
11349SOL    HW141097   0.768   2.013  12.204 -0.1090  0.1871 -0.3918
11349SOL    HW241098   0.908   2.036  12.255 -0.2054  0.3148 -0.1847
11350SOL     OW41099   0.186   1.377   3.149 -0.2059  0.4966  0.5001
11350SOL    HW141100   0.214   1.387   3.059  0.4193  0.0374  0.6347
11350SOL    HW241101   0.103   1.425   3.155 -0.0979  0.7722 -0.2352
11351SOL     OW41102   3.020   7.246   0.229  0.2218 -0.4074 -0.6685
11351SOL    HW141103   2.932   7.276   0.209 -1.5394 -2.7536  2.5895
11351SOL    HW241104   3.009   7.153   0.249  3.0978 -0.4307  1.4515
11352SOL     OW41105  11.465   8.312   6.655 -0.0621 -0.3748 -1.0077
11352SOL    HW141106  11.507   8.258   6.721 -1.4154  1.2662  1.3167
11352SOL    HW241107  11.485   8.402   6.681 -2.2317  0.3695 -1.7104
11353SOL     OW41108   8.103   7.382   0.766  0.4887  0.0859 -0.4309
11353SOL    HW141109   8.092   7.307   0.824 -0.0403 -0.9881 -1.8711
11353SOL    HW241110   8.110   7.457   0.826  1.6575 -1.1458  1.0658
11354SOL     OW41111   7.967   0.443   4.786  0.1038 -0.8847  0.2040
11354SOL    HW141112   7.945   0.526   4.828 -1.1284 -0.2313 -1.6019
11354SOL    HW241113   7.915   0.378   4.833  1.0873 -0.6673  1.6444
11355SOL     OW41114   2.835   8.202  12.549  0.0246  0.1865  0.0912
11355SOL    HW141115   2.792   8.138  12.605  0.2818 -2.0573 -2.1432
11355SOL    HW241116   2.928   8.188  12.563  0.0944  0.9043  0.4276
11356SOL     OW41117   3.344  11.829   9.452  0.1810  0.3241  0.2903
11356SOL    HW141118   3.356  11.898   9.387  1.7059 -0.8627 -0.7847
11356SOL    HW241119   3.252  11.806   9.445  0.2669  0.3235 -1.4021
11357SOL     OW41120  11.694  11.457   9.832 -0.3040  0.1285  0.0418
11357SOL    HW141121  11.758  11.415   9.889  0.3339  1.8613  0.6759
11357SOL    HW241122  11.650  11.521   9.889 -0.5786  0.9697 -1.0836
11358SOL     OW41123  10.988   1.794   9.929  0.0952  0.1756  0.2942
11358SOL    HW141124  10.956   1.884   9.929  0.6790  0.4081 -1.0306
11358SOL    HW241125  11.074   1.799   9.973  1.3457  0.7880 -2.0451
11359SOL     OW41126   0.567   2.646   3.282  0.3357  0.1489  0.0598
11359SOL    HW141127   0.631   2.686   3.222  1.7265 -1.3301  0.4670
11359SOL    HW241128   0.583   2.552   3.274 -2.4047 -0.3617 -0.4281
11360SOL     OW41129   4.709   5.251   6.014  0.3804  0.7760  0.0686
11360SOL    HW141130   4.636   5.191   6.003 -0.1868  1.7087 -1.5042
11360SOL    HW241131   4.728   5.248   6.108 -0.3826 -0.9471  0.1976
11361SOL     OW41132   6.673   7.677  10.485 -0.1369 -0.8490  0.0266
11361SOL    HW141133   6.658   7.719  10.569 -1.0835  0.3891 -0.7144
11361SOL    HW241134   6.642   7.741  10.421  2.9043 -0.6323 -1.4177
11362SOL     OW41135   0.563   5.957   1.841 -0.0763 -0.6147 -0.0949
11362SOL    HW141136   0.522   6.042   1.824  0.1787 -0.4380  0.1599
11362SOL    HW241137   0.493   5.904   1.880 -1.0048 -1.4003 -2.6289
11363SOL     OW41138   3.754   1.106   5.521  0.3967 -0.5165 -0.3230
11363SOL    HW141139   3.843   1.072   5.530  0.6626 -0.0666 -1.1013
11363SOL    HW241140   3.722   1.069   5.439  0.3758  0.3741 -0.7399
11364SOL     OW41141   3.274   6.766   6.214  0.0428 -0.3115  0.6074
11364SOL    HW141142   3.261   6.848   6.168 -0.7145 -0.9455 -0.3517
11364SOL    HW241143   3.346   6.783   6.275 -0.5284  1.2347  0.8942
11365SOL     OW41144   1.311   8.355   7.867  0.3154  0.4970 -0.2351
11365SOL    HW141145   1.233   8.375   7.815 -0.8287  2.3178  2.0638
11365SOL    HW241146   1.375   8.327   7.802 -1.6547  0.6992 -2.4075
11366SOL     OW41147  11.990   0.746  11.737  0.6266 -1.0361 -0.0977
11366SOL    HW141148  11.905   0.769  11.700  0.4720 -0.4708  0.5735
11366SOL    HW241149  11.969   0.707  11.822  1.0697  0.2763  0.6494
11367SOL     OW41150   6.574  11.088   5.146 -0.0247 -0.1342 -0.0480
11367SOL    HW141151   6.488  11.086   5.104  0.1784  0.8633 -0.5218
11367SOL    HW241152   6.569  11.019   5.213 -1.9171  1.2284  1.3271
11368SOL     OW41153   0.087  11.300  11.901  0.4877 -0.1504 -0.2145
11368SOL    HW141154   0.163  11.357  11.887  0.9946 -0.7301  0.1331
11368SOL    HW241155   0.089  11.239  11.827  1.2204 -1.0881  0.5494
11369SOL     OW41156   5.923  12.077   7.746  0.0895  0.2672  0.1840
11369SOL    HW141157   5.882  12.108   7.826 -0.0687 -2.3469  1.2260
11369SOL    HW241158   5.997  12.137   7.731 -0.7223  1.6412  1.4414
11370SOL     OW41159   8.937   3.834   1.560  0.6431  0.1390 -0.2245
11370SOL    HW141160   8.959   3.921   1.528  0.6227  0.5711  0.8847
11370SOL    HW241161   9.015   3.782   1.543  1.1528  0.7141  0.2761
11371SOL     OW41162   5.249  10.871   6.804 -0.2751  0.1120 -0.4673
11371SOL    HW141163   5.242  10.948   6.861 -0.4036 -0.6858  0.6253
11371SOL    HW241164   5.273  10.800   6.863  3.1404 -0.1055 -1.9206
11372SOL     OW41165  12.527  12.309   5.474  0.2546 -0.5657  0.0029
11372SOL    HW141166  12.517  12.401   5.449  0.4447 -0.4040  0.5005
11372SOL    HW241167  12.530  12.311   5.570 -0.9229 -1.2062  0.0750
11373SOL     OW41168   0.877  12.123   8.704 -0.2116 -0.0340  0.1494
11373SOL    HW141169   0.860  12.033   8.732  0.3748 -0.2210 -0.0782
11373SOL    HW241170   0.855  12.124   8.610 -1.4891  0.4088  0.4284
11374SOL     OW41171   0.338   7.805   5.610  0.5093  0.8095 -0.0221
11374SOL    HW141172   0.308   7.819   5.520 -2.4999 -0.3099  0.7169
11374SOL    HW241173   0.369   7.891   5.638 -0.5278  1.6851 -1.4446
11375SOL     OW41174   2.152   5.793   2.807  0.6432  0.1535  0.5096
11375SOL    HW141175   2.234   5.774   2.853  1.4589  1.4610 -0.3360
11375SOL    HW241176   2.110   5.862   2.859 -0.3430 -1.0618  1.3786
11376SOL     OW41177  11.011   9.455   4.483 -0.7165 -0.1315 -0.3090
11376SOL    HW141178  11.007   9.551   4.477  0.1242  0.1532  2.2819
11376SOL    HW241179  11.099   9.433   4.455 -0.1957  0.1168  1.0522
11377SOL     OW41180   8.474   0.589  11.749  0.3980 -0.2740 -0.4274
11377SOL    HW141181   8.466   0.493  11.752  0.9522 -0.5671 -3.8566
11377SOL    HW241182   8.416   0.615  11.677  1.8705  1.6857 -0.9788
11378SOL     OW41183  12.079   3.601   5.971  0.3109 -0.2013 -0.0795
11378SOL    HW141184  12.000   3.558   5.939 -0.3213  0.6223  0.3176
11378SOL    HW241185  12.087   3.679   5.916 -0.6381  1.0868  1.5167
11379SOL     OW41186   3.792   8.611   9.329 -0.5365 -0.4042  0.1996
11379SOL    HW141187   3.742   8.638   9.406 -2.1236  0.2515 -1.0221
11379SOL    HW241188   3.729   8.563   9.275  0.6814 -1.2810 -0.4811
11380SOL     OW41189   3.631   6.533   7.028 -0.5174  0.0225 -0.0122
11380SOL    HW141190   3.657   6.622   7.051  1.1616 -0.4327  0.0160
11380SOL    HW241191   3.659   6.522   6.937 -1.2718 -0.2785 -0.2154
11381SOL     OW41192  10.398   6.793   7.483  0.1630 -0.4363 -0.3311
11381SOL    HW141193  10.387   6.776   7.390  0.7157 -0.3659 -0.4113
11381SOL    HW241194  10.478   6.746   7.507 -0.9999 -2.0847  0.5262
11382SOL     OW41195  11.681   3.526   0.484 -0.3880 -0.2593  0.3138
11382SOL    HW141196  11.769   3.491   0.499 -0.9601 -0.9943  2.3328
11382SOL    HW241197  11.622   3.456   0.515 -1.6325  1.0451  1.0229
11383SOL     OW41198   8.303   3.796   6.814 -0.3377  0.4223  0.2221
11383SOL    HW141199   8.393   3.771   6.835 -0.2912 -0.6523 -1.1078
11383SOL    HW241200   8.253   3.772   6.892  0.7133  2.5207  1.6452
11384SOL     OW41201   0.975   0.784  10.788 -0.1122  0.5353  0.4897
11384SOL    HW141202   0.962   0.822  10.875 -1.7621  2.0781 -0.3504
11384SOL    HW241203   0.887   0.759  10.759  0.0847  1.8761 -1.4819
11385SOL     OW41204   7.861  10.750   8.629  0.0698  0.0036  0.6222
11385SOL    HW141205   7.835  10.775   8.540  1.4653  0.4808  0.3165
11385SOL    HW241206   7.806  10.675   8.650  0.5648 -0.9263 -1.1610
11386SOL     OW41207   7.899   3.146   8.983 -0.5792  0.3025  0.2688
11386SOL    HW141208   7.863   3.059   8.963 -0.1346  0.2565 -0.3671
11386SOL    HW241209   7.828   3.206   8.959 -1.0224  0.0987  1.0568
11387SOL     OW41210   6.816   4.919   6.883 -0.2325  0.1811 -0.1043
11387SOL    HW141211   6.818   4.984   6.953 -1.9173  0.9079 -0.6709
11387SOL    HW241212   6.756   4.956   6.818  0.6177 -0.8630 -1.5458
11388SOL     OW41213   4.129   7.548   0.171  0.0353  0.4770  0.0519
11388SOL    HW141214   4.121   7.453   0.186 -0.2583  0.4602 -0.2086
11388SOL    HW241215   4.065   7.587   0.230 -0.8614  0.4306 -0.8598
11389SOL     OW41216   0.913   6.566   4.984  0.1662  0.0099  0.1824
11389SOL    HW141217   0.837   6.598   5.032 -0.7171  0.1167 -1.2656
11389SOL    HW241218   0.903   6.470   4.984 -0.2066  0.0476 -0.3883
11390SOL     OW41219   7.328   0.225   9.131  0.0121 -0.2494 -0.3223
11390SOL    HW141220   7.269   0.294   9.160 -2.3186 -2.2914  0.1669
11390SOL    HW241221   7.396   0.270   9.081 -1.6359  2.3167 -0.4074
11391SOL     OW41222  11.623   8.160   0.906  0.0685  0.1105  0.4088
11391SOL    HW141223  11.573   8.201   0.835  1.2876  1.0637  0.0736
11391SOL    HW241224  11.583   8.194   0.986  0.0874  0.7559  0.1478
11392SOL     OW41225  12.479   8.786  10.648  0.2072  0.5499 -1.1302
11392SOL    HW141226  12.501   8.872  10.686  1.3258 -0.8932  1.8104
11392SOL    HW241227  12.556   8.732  10.667 -0.9796 -1.4345 -1.7548
11393SOL     OW41228   8.343   3.110   4.811  0.2747 -0.1648  0.3494
11393SOL    HW141229   8.304   3.068   4.888  1.2101 -1.2551  0.2557
11393SOL    HW241230   8.282   3.093   4.740 -0.2456  0.2346  0.6883
11394SOL     OW41231   7.238   4.197  12.495  0.0914 -0.1231  1.0168
11394SOL    HW141232   7.316   4.226  12.540 -0.6093 -1.4502  3.2402
11394SOL    HW241233   7.174   4.180  12.564 -2.1964  0.8593 -0.6956
11395SOL     OW41234   1.780   7.904   0.653 -0.2288  0.4979  0.2217
11395SOL    HW141235   1.701   7.876   0.699  0.0284  1.5936  1.3948
11395SOL    HW241236   1.852   7.878   0.712  0.1922  0.8130 -0.1506
11396SOL     OW41237   1.147   9.892   3.067  0.1960  0.3985 -0.1565
11396SOL    HW141238   1.083   9.830   3.101  1.8255 -1.8177 -0.8430
11396SOL    HW241239   1.103   9.935   2.994 -1.2816  0.7616  0.9142
11397SOL     OW41240   0.170   3.391   4.642  0.2410  0.3545 -0.6582
11397SOL    HW141241   0.222   3.324   4.598  0.0101 -0.9139  0.8935
11397SOL    HW241242   0.096   3.342   4.680  0.5842  1.3051  1.3467
11398SOL     OW41243   4.361   0.109   3.961  0.0538  0.1101 -0.4034
11398SOL    HW141244   4.271   0.076   3.965 -0.2540  0.8876 -0.7561
11398SOL    HW241245   4.399   0.062   3.886 -0.0912 -0.1307 -0.3297
11399SOL     OW41246   7.099  10.437  10.107  0.7578 -0.1908  0.0156
11399SOL    HW141247   7.024  10.385  10.135  0.7320  0.1567  0.5973
11399SOL    HW241248   7.109  10.504  10.174  2.7722 -1.3617  0.9692
11400SOL     OW41249  11.878  11.948   8.631  0.3204  0.0490  0.1609
11400SOL    HW141250  11.785  11.929   8.625  0.4379 -0.1245 -1.6377
11400SOL    HW241251  11.914  11.922   8.546  2.0739 -0.2023  0.9186
11401SOL     OW41252   2.309  10.865   8.529 -0.0623 -0.6397 -0.4929
11401SOL    HW141253   2.224  10.826   8.552 -0.2134  0.0953  0.2292
11401SOL    HW241254   2.373  10.796   8.547 -0.6360 -1.8939 -2.8394
11402SOL     OW41255   7.869   5.991   9.495 -0.3385  0.3502 -0.4108
11402SOL    HW141256   7.951   5.976   9.541 -0.6176  2.4832  0.8913
11402SOL    HW241257   7.876   6.080   9.461 -2.4619  0.9626  0.5773
11403SOL     OW41258   1.797   9.294   4.258 -0.0093 -0.6252  0.1102
11403SOL    HW141259   1.884   9.277   4.220  1.3675 -0.1861  2.8186
11403SOL    HW241260   1.744   9.219   4.231  0.7449 -0.2469 -2.7425
11404SOL     OW41261  11.313   9.364  12.380 -0.0931 -0.0306  0.1895
11404SOL    HW141262  11.282   9.379  12.469  1.6611 -0.8923  1.0142
11404SOL    HW241263  11.317   9.268  12.372  3.2673 -0.0451  0.5979
11405SOL     OW41264   2.288   6.041  10.701  0.5446  0.8059 -0.4252
11405SOL    HW141265   2.265   6.022  10.792 -1.4665  1.6976 -0.6957
11405SOL    HW241266   2.235   5.980  10.649  0.7407  1.1438 -1.0367
11406SOL     OW41267   1.497   4.668   4.938  0.0341 -0.3605  0.4683
11406SOL    HW141268   1.532   4.756   4.954  1.8033 -0.8524 -0.3947
11406SOL    HW241269   1.504   4.623   5.022  2.5456 -0.7284  0.1635
11407SOL     OW41270   3.994   8.193   8.113  0.0821  0.0458 -0.0894
11407SOL    HW141271   3.904   8.182   8.145 -0.9795  1.7380 -2.1964
11407SOL    HW241272   4.017   8.283   8.139  1.2639 -0.4322  0.5854
11408SOL     OW41273  12.173  11.674   1.115  0.1079 -0.5108 -0.2522
11408SOL    HW141274  12.177  11.614   1.040 -1.0934  1.4816 -2.0236
11408SOL    HW241275  12.253  11.726   1.108 -0.4940  0.3759 -0.8460
11409SOL     OW41276  11.650   3.050   8.532  0.3468  0.6387  0.1870
11409SOL    HW141277  11.557   3.039   8.554  0.3286 -1.5213 -0.7124
11409SOL    HW241278  11.658   3.014   8.444  1.9927  1.1142  0.1194
11410SOL     OW41279   0.956   4.394   6.834  0.3178  0.5223  0.2477
11410SOL    HW141280   1.042   4.356   6.853  0.5245 -0.5598 -2.4809
11410SOL    HW241281   0.975   4.486   6.813  0.8021  0.3266 -0.2006
11411SOL     OW41282   2.876   9.240   8.515  0.0312 -0.1756  0.0836
11411SOL    HW141283   2.873   9.258   8.421  0.3794 -2.0059 -0.3159
11411SOL    HW241284   2.841   9.319   8.556 -1.9804 -0.0683 -1.6800
11412SOL     OW41285   4.788   3.919   3.050 -0.0184  0.1079 -0.1124
11412SOL    HW141286   4.766   3.883   2.964 -1.3697  0.0231  0.2424
11412SOL    HW241287   4.851   3.857   3.086 -0.0074 -0.2599 -0.7359
11413SOL     OW41288   6.055   6.424   5.084  0.6411  0.6778  0.0713
11413SOL    HW141289   6.121   6.485   5.116  0.4987 -0.2905  2.4542
11413SOL    HW241290   6.105   6.350   5.050  0.8360  0.0394  1.6739
11414SOL     OW41291   8.719   9.067  10.478 -0.2891  0.0754 -0.0637
11414SOL    HW141292   8.780   9.018  10.422  0.2022  1.5110 -0.8567
11414SOL    HW241293   8.712   9.015  10.558  0.1677 -1.2845 -0.8760
11415SOL     OW41294   5.871   9.652  10.156  0.4915  0.5974  0.7125
11415SOL    HW141295   5.904   9.741  10.146  1.3901  0.2503  0.5482
11415SOL    HW241296   5.928   9.599  10.101 -1.1717  0.1603 -0.7118
11416SOL     OW41297   9.436   8.349  10.206  0.5487  0.8024 -0.1431
11416SOL    HW141298   9.438   8.350  10.302 -1.1928 -0.2271 -0.0484
11416SOL    HW241299   9.469   8.435  10.180  2.1734  0.6738  1.3243
11417SOL     OW41300   5.261   8.091   2.243  0.3169  0.4014 -0.2341
11417SOL    HW141301   5.193   8.025   2.252  0.0865  0.5775 -0.6275
11417SOL    HW241302   5.293   8.080   2.153  1.7427 -0.5646  0.3563
11418SOL     OW41303   6.057   6.223   0.942  0.4651 -0.3999 -0.2035
11418SOL    HW141304   6.020   6.193   1.025 -0.7259 -0.1970 -0.6352
11418SOL    HW241305   6.133   6.275   0.966 -0.5423  0.6470  0.8514
11419SOL     OW41306  11.070   0.882   9.546 -0.4941  0.2158 -0.5303
11419SOL    HW141307  11.068   0.972   9.512 -0.9626  0.2287 -0.4751
11419SOL    HW241308  11.087   0.893   9.640  1.1102  0.1669 -0.7821
11420SOL     OW41309  11.876   9.887   4.386  0.5719  0.0570  0.6702
11420SOL    HW141310  11.849   9.932   4.466 -0.8703  1.6916 -0.6435
11420SOL    HW241311  11.915   9.957   4.332  2.5593 -1.2246  0.3581
11421SOL     OW41312   2.063  10.664   2.301 -0.4136  0.0312 -0.1056
11421SOL    HW141313   2.045  10.622   2.386 -3.2725  1.4089  0.1065
11421SOL    HW241314   2.125  10.733   2.322  0.1751 -0.6639  0.5359
11422SOL     OW41315   5.978  10.903   5.134  0.2239 -0.3227  0.3161
11422SOL    HW141316   6.013  10.834   5.190  2.2136  0.8386  0.5965
11422SOL    HW241317   6.000  10.985   5.180 -0.0325  0.5776 -1.0993
11423SOL     OW41318   1.586   2.115   8.498  0.3163 -0.1531 -0.0028
11423SOL    HW141319   1.517   2.049   8.504 -0.2624  0.4927  0.8153
11423SOL    HW241320   1.571   2.172   8.574  1.5118  0.2381 -0.0353
11424SOL     OW41321  11.563  11.464   9.350  0.0854  0.2369 -0.4136
11424SOL    HW141322  11.616  11.531   9.306 -0.3359  0.1457 -1.0774
11424SOL    HW241323  11.625  11.415   9.403  0.3539  1.3697  0.3556
11425SOL     OW41324   9.145   5.928   5.916  0.2026 -0.7111  0.1256
11425SOL    HW141325   9.151   6.013   5.959  0.7361 -0.2333 -0.8673
11425SOL    HW241326   9.200   5.936   5.838 -1.5994 -1.1842 -1.2714
11426SOL     OW41327   9.394  11.502   8.460  0.5899 -0.3259 -0.6582
11426SOL    HW141328   9.315  11.556   8.467  1.5644  0.9609  1.3851
11426SOL    HW241329   9.365  11.413   8.482 -0.4679 -0.0605 -0.9325
11427SOL     OW41330  11.859   9.012   4.632  0.0794  0.2061 -0.3591
11427SOL    HW141331  11.831   8.974   4.715  1.9747 -1.1954 -0.3072
11427SOL    HW241332  11.880   9.103   4.653 -1.7458  0.5474  0.1406
11428SOL     OW41333   3.470  11.023  11.402 -0.4767 -0.1966  0.4566
11428SOL    HW141334   3.391  11.060  11.363 -0.1968  0.6036  0.6305
11428SOL    HW241335   3.504  11.092  11.459  1.2164  0.1101 -0.8340
11429SOL     OW41336  10.340   5.883   0.906 -0.7465 -0.0596  0.2215
11429SOL    HW141337  10.400   5.888   0.980 -1.0541  0.0671  0.4626
11429SOL    HW241338  10.257   5.915   0.940 -0.4652  1.6804 -0.6206
11430SOL     OW41339   8.506   5.379   1.881  0.3976  0.2821 -0.0020
11430SOL    HW141340   8.486   5.347   1.793  2.2392  0.1338 -0.4038
11430SOL    HW241341   8.421   5.402   1.918 -0.5498 -0.9413 -1.3157
11431SOL     OW41342   3.358   5.580   0.320  0.2237  0.3329 -0.2947
11431SOL    HW141343   3.284   5.524   0.344  0.3106  0.8470  1.3033
11431SOL    HW241344   3.317   5.659   0.283 -0.0267  0.4629  0.2474
11432SOL     OW41345   4.686   9.699   5.328 -0.5912 -0.1420  0.2219
11432SOL    HW141346   4.617   9.663   5.383 -0.0904 -0.6061  0.5607
11432SOL    HW241347   4.640   9.742   5.256 -1.2185 -1.3611 -0.1312
11433SOL     OW41348  10.512   8.841   4.266  0.3243  0.3668  0.1415
11433SOL    HW141349  10.562   8.784   4.326  0.0651 -2.2313 -1.9121
11433SOL    HW241350  10.558   8.833   4.182 -0.0284  2.9274 -0.3791
11434SOL     OW41351   3.928   9.210   9.390  0.3728 -1.1959 -0.0824
11434SOL    HW141352   3.889   9.183   9.473 -2.6863 -3.5819 -2.0701
11434SOL    HW241353   4.008   9.157   9.382  1.2197 -0.2581  1.6465
11435SOL     OW41354   2.804  11.594   6.659  0.3779 -0.1088 -0.2601
11435SOL    HW141355   2.839  11.630   6.741  1.0308 -0.1596 -0.5073
11435SOL    HW241356   2.727  11.648   6.640 -0.8502 -1.2173  1.3012
11436SOL     OW41357   2.543  11.993  10.775 -0.1155  0.0586  0.2567
11436SOL    HW141358   2.491  11.973  10.697 -2.2806  1.7604  1.1359
11436SOL    HW241359   2.593  12.071  10.751 -0.9844  0.7409  0.6167
11437SOL     OW41360   7.904   0.178   1.130 -0.1287  0.5827 -0.3677
11437SOL    HW141361   7.924   0.209   1.042  0.5431  2.5281  0.4156
11437SOL    HW241362   7.815   0.207   1.146 -0.2448  0.2426 -0.3890
11438SOL     OW41363   2.265   0.958   0.578 -0.0662  0.2229  0.0168
11438SOL    HW141364   2.357   0.933   0.590 -0.0393  0.1859 -0.2709
11438SOL    HW241365   2.222   0.930   0.660  0.5966  2.2503  1.1156
11439SOL     OW41366  12.348   6.280   3.401 -0.2811 -0.2741 -0.1174
11439SOL    HW141367  12.392   6.359   3.370  0.0490 -0.5695 -0.4129
11439SOL    HW241368  12.320   6.235   3.322  1.8238 -1.7538 -0.1017
11440SOL     OW41369  12.560   0.412   7.179 -0.3870 -0.4919  0.4781
11440SOL    HW141370  12.506   0.380   7.107  0.7080  0.9011 -1.0463
11440SOL    HW241371  12.561   0.340   7.242 -1.2789 -1.8206 -0.9432
11441SOL     OW41372   7.269   4.664   4.853 -0.6849  0.3699  0.4736
11441SOL    HW141373   7.318   4.657   4.771 -0.2199  0.0912  0.7701
11441SOL    HW241374   7.241   4.755   4.857  0.1685  0.6425  0.4993
11442SOL     OW41375   6.430   4.959   5.661  0.0300  0.4049  0.5203
11442SOL    HW141376   6.470   4.879   5.696 -1.3375 -0.4792  0.1272
11442SOL    HW241377   6.348   4.968   5.708 -1.0716  0.0952 -1.2572
11443SOL     OW41378   6.095   1.890   0.073  0.4864 -0.0930 -0.0994
11443SOL    HW141379   6.079   1.948  -0.001 -1.7980 -0.7008 -0.1639
11443SOL    HW241380   6.116   1.948   0.146  1.4333  0.5909 -0.9022
11444SOL     OW41381   8.464   1.721   8.584  0.3186  0.1118  0.2737
11444SOL    HW141382   8.456   1.653   8.518 -0.0194  0.2358  0.1825
11444SOL    HW241383   8.520   1.788   8.544  0.9753 -0.2885  0.5139
11445SOL     OW41384   8.202   9.669   2.439  0.2822  0.4575 -0.1909
11445SOL    HW141385   8.259   9.668   2.361  0.2559  0.5447 -0.2111
11445SOL    HW241386   8.129   9.612   2.416  1.4925 -1.5295  0.6869
11446SOL     OW41387   6.278   3.322  10.844 -0.2141  0.5428  0.0660
11446SOL    HW141388   6.299   3.243  10.793 -1.3036  0.2299  0.0721
11446SOL    HW241389   6.352   3.332  10.904  0.1643 -0.2013 -0.2567
11447SOL     OW41390   6.199   9.508   0.482  0.0864 -0.9371  0.1455
11447SOL    HW141391   6.200   9.414   0.462 -0.8510 -1.1920  1.2332
11447SOL    HW241392   6.108   9.527   0.505 -0.2867  0.7477 -2.2929
11448SOL     OW41393   4.879   3.843   5.451 -0.6375 -0.1702  0.0928
11448SOL    HW141394   4.906   3.826   5.361 -0.3661  0.9760 -0.0459
11448SOL    HW241395   4.811   3.910   5.443  1.3987  2.1196  0.9050
11449SOL     OW41396  12.193   7.637  10.036  0.0991 -0.1786 -0.3854
11449SOL    HW141397  12.284   7.616  10.019  0.0603 -2.2887  1.6362
11449SOL    HW241398  12.144   7.561  10.006 -0.7557 -0.0871  0.7050
11450SOL     OW41399   7.863   2.277   2.636  0.6055 -0.3632 -0.5713
11450SOL    HW141400   7.814   2.269   2.718  0.7108 -0.5299 -0.5245
11450SOL    HW241401   7.954   2.260   2.661  0.5377 -1.1750 -0.8579
11451SOL     OW41402   9.301   3.395   8.068 -0.5338  0.1945 -0.2600
11451SOL    HW141403   9.354   3.441   8.134 -0.6671 -0.0396  0.0141
11451SOL    HW241404   9.248   3.334   8.119  0.2908 -0.9158 -0.6889
11452SOL     OW41405   5.815  11.760   4.243 -0.3436 -0.0579 -0.2373
11452SOL    HW141406   5.771  11.761   4.158 -0.5184 -1.7035 -0.2114
11452SOL    HW241407   5.745  11.773   4.307 -0.7274 -1.7758 -0.2417
11453SOL     OW41408  11.654  10.218   8.012 -0.1087  0.4075 -0.5196
11453SOL    HW141409  11.567  10.239   8.046 -0.3043 -2.1964  0.8825
11453SOL    HW241410  11.713  10.281   8.054 -0.9879  0.3900  0.7938
11454SOL     OW41411   8.906   0.651   8.963 -0.3053 -0.1888  0.1254
11454SOL    HW141412   8.998   0.660   8.940 -0.7274  1.7391 -1.0026
11454SOL    HW241413   8.859   0.678   8.884 -1.8526 -1.3356  0.6001
11455SOL     OW41414   5.417   7.809  11.280 -0.6012  0.2414 -0.4142
11455SOL    HW141415   5.465   7.873  11.332  1.3390 -1.8290  0.5069
11455SOL    HW241416   5.471   7.797  11.202 -1.2874  0.1927 -0.8917
11456SOL     OW41417  10.278   3.318   8.041 -0.0014 -0.5109  0.1649
11456SOL    HW141418  10.322   3.369   8.109 -0.7655  1.5659 -0.8034
11456SOL    HW241419  10.199   3.284   8.083 -0.5591  0.9077  0.3250
11457SOL     OW41420  11.656  10.646   9.475 -0.1837 -0.7512 -0.0263
11457SOL    HW141421  11.666  10.581   9.406 -1.1401 -3.1316  1.9599
11457SOL    HW241422  11.597  10.712   9.437  1.2818 -0.6577 -2.2817
11458SOL     OW41423   8.180   8.994   8.107  1.0835  0.3996  0.1755
11458SOL    HW141424   8.230   8.941   8.170  0.4450  1.4984  1.6791
11458SOL    HW241425   8.093   8.955   8.107  0.9845  0.6207  0.2410
11459SOL     OW41426   9.196   0.279   3.738  0.1303 -0.3752  0.2722
11459SOL    HW141427   9.225   0.191   3.713 -2.3183 -1.0448 -0.5522
11459SOL    HW241428   9.197   0.329   3.657 -1.8119 -0.7175 -0.0180
11460SOL     OW41429  10.035   2.173   4.868  0.0592 -1.0618  0.2638
11460SOL    HW141430   9.972   2.222   4.816  0.2441 -0.8020  0.2814
11460SOL    HW241431   9.985   2.139   4.942  0.1763  0.1406  0.9219
11461SOL     OW41432   8.125   4.493  11.380 -0.2965 -0.2667  0.1755
11461SOL    HW141433   8.112   4.566  11.319 -0.5057 -1.2743 -1.0079
11461SOL    HW241434   8.043   4.444  11.376  0.9036 -2.2509 -1.3536
11462SOL     OW41435   2.210   3.401   5.076 -0.2614 -0.2073 -0.3667
11462SOL    HW141436   2.234   3.309   5.066 -1.1791 -0.4057 -0.8929
11462SOL    HW241437   2.280   3.439   5.128 -1.5925 -1.9592  2.9962
11463SOL     OW41438  10.144   3.104   8.879  0.1602  0.3255 -0.1571
11463SOL    HW141439  10.120   3.162   8.952  1.8567  0.2737  0.5078
11463SOL    HW241440  10.120   3.016   8.909  4.4885 -0.3223  2.3091
11464SOL     OW41441   2.236  11.802   2.967 -0.7546  0.3861 -0.1521
11464SOL    HW141442   2.153  11.848   2.956 -0.7205  0.9031  1.4911
11464SOL    HW241443   2.213  11.709   2.963 -1.6173  0.4999  1.3280
11465SOL     OW41444   2.826  12.387   0.500 -0.2315  0.0774  0.6889
11465SOL    HW141445   2.740  12.378   0.460 -0.3080 -0.2875  0.9303
11465SOL    HW241446   2.815  12.459   0.563 -0.0996  0.6773  0.0399
11466SOL     OW41447   4.183  11.997   4.477  0.2511  0.3245 -0.5592
11466SOL    HW141448   4.238  11.965   4.549  0.5361  0.5135 -0.6905
11466SOL    HW241449   4.205  11.939   4.404 -0.9712 -0.6905 -0.1630
11467SOL     OW41450   8.447   4.096   8.147  0.0817  0.1177  0.3488
11467SOL    HW141451   8.451   4.039   8.224 -3.0431 -1.4126 -0.4513
11467SOL    HW241452   8.465   4.039   8.073 -2.9024  0.0456 -0.4597
11468SOL     OW41453   7.626   1.575   3.375 -0.0482  0.7621 -0.5476
11468SOL    HW141454   7.623   1.670   3.361 -1.8353  0.5564 -1.9889
11468SOL    HW241455   7.646   1.539   3.289  0.9808 -0.1858  0.0600
11469SOL     OW41456   3.683   2.470  11.371  0.6042 -0.0996 -0.1318
11469SOL    HW141457   3.625   2.488  11.297  0.8449 -0.5681 -0.4358
11469SOL    HW241458   3.757   2.423  11.334 -0.7984 -3.3615  0.8151
11470SOL     OW41459  10.784   3.447   0.676 -0.1793 -0.1952 -0.3475
11470SOL    HW141460  10.832   3.458   0.757 -2.5607 -1.8016  1.4232
11470SOL    HW241461  10.701   3.493   0.690  0.4274  2.0030 -3.0624
11471SOL     OW41462   7.955   5.725   8.440 -0.3480 -0.1142 -0.4831
11471SOL    HW141463   7.994   5.803   8.400 -1.9932  0.6848 -0.6208
11471SOL    HW241464   7.984   5.727   8.531 -1.8631  1.7532  0.0239
11472SOL     OW41465   9.697   3.430   6.436 -0.0382  0.6837 -0.7869
11472SOL    HW141466   9.644   3.468   6.505  0.4191 -1.4801  0.8599
11472SOL    HW241467   9.633   3.397   6.372 -0.4596  2.6126 -1.4511
11473SOL     OW41468   1.134   1.062   7.750  0.1512  0.2933 -0.5225
11473SOL    HW141469   1.191   1.012   7.808 -1.5694 -1.1318  0.0275
11473SOL    HW241470   1.180   1.063   7.666  0.7853 -1.1995 -0.2199
11474SOL     OW41471  11.134   3.447   1.727 -0.0017  0.0051  0.1574
11474SOL    HW141472  11.122   3.541   1.722  0.1422 -0.0174 -0.8003
11474SOL    HW241473  11.166   3.431   1.816 -0.5871  0.7838  0.5128
11475SOL     OW41474   5.684   7.900   3.023 -0.1550  0.0539  0.1679
11475SOL    HW141475   5.693   7.808   2.996 -0.6907 -0.2692  1.0202
11475SOL    HW241476   5.771   7.938   3.012  0.4055 -0.9170  1.0609
11476SOL     OW41477   4.395   9.391   8.367 -0.1910 -0.0885  0.5986
11476SOL    HW141478   4.487   9.387   8.340 -0.5089 -0.2001 -0.5162
11476SOL    HW241479   4.398   9.388   8.463  0.9859  0.3775  0.5929
11477SOL     OW41480   5.468   6.726   0.372  0.2473 -0.1149 -0.7703
11477SOL    HW141481   5.385   6.700   0.332 -0.0557 -0.5041  0.0830
11477SOL    HW241482   5.486   6.813   0.336  0.1518 -0.5689 -1.9787
11478SOL     OW41483   5.137   6.238   5.821  0.3396  0.0322  0.2146
11478SOL    HW141484   5.150   6.332   5.829 -2.3040  0.4202  0.9732
11478SOL    HW241485   5.085   6.214   5.897 -2.1213 -1.3307 -1.7232
11479SOL     OW41486   3.431   3.707   4.475  0.1920  0.2538  0.1931
11479SOL    HW141487   3.421   3.664   4.560  0.2898  0.3962  0.2779
11479SOL    HW241488   3.342   3.732   4.450  0.2852  1.2829  0.8212
11480SOL     OW41489   9.224  12.553   0.907 -0.2264  0.2970 -0.5453
11480SOL    HW141490   9.271  12.585   0.984  0.5335 -1.3353 -0.2831
11480SOL    HW241491   9.133  12.549   0.935 -0.2109  1.3434 -0.3046
11481SOL     OW41492   0.406   7.664   9.855 -0.1301 -0.1651 -0.9515
11481SOL    HW141493   0.481   7.698   9.807 -0.6155  2.0298 -0.2672
11481SOL    HW241494   0.341   7.734   9.850 -1.1034 -0.8960  0.7965
11482SOL     OW41495  11.007   3.771  11.173  0.3293  0.0033  0.8506
11482SOL    HW141496  10.967   3.832  11.111  0.4649 -1.4086 -0.6830
11482SOL    HW241497  10.932   3.724  11.211  0.3548 -2.0030 -1.3535
11483SOL     OW41498   8.961   8.485   1.135  0.3463 -0.7074  0.1900
11483SOL    HW141499   8.996   8.574   1.142 -0.0667 -0.3437 -1.7724
11483SOL    HW241500   8.869   8.497   1.113  0.4384 -1.6077 -0.7651
11484SOL     OW41501   3.500   0.988   9.522  0.1784 -0.0705 -0.1685
11484SOL    HW141502   3.419   0.980   9.471 -0.1426  0.9988  0.1467
11484SOL    HW241503   3.564   0.935   9.474 -1.1760 -2.6616  0.6406
11485SOL     OW41504   9.949   1.708   8.662 -0.4179 -0.1668  0.0433
11485SOL    HW141505   9.927   1.616   8.648  0.3029 -0.2771 -0.4653
11485SOL    HW241506  10.032   1.705   8.709  0.1164  0.2072 -0.8442
11486SOL     OW41507   5.377  11.941   7.770  0.2356  0.2624  0.1578
11486SOL    HW141508   5.344  11.995   7.842 -0.9309  0.2195 -0.3155
11486SOL    HW241509   5.299  11.899   7.735  0.5890  1.2772 -1.9649
11487SOL     OW41510  10.473   9.691   7.446 -0.2571 -0.2931  0.0631
11487SOL    HW141511  10.480   9.725   7.357 -1.2048  0.3067  0.2030
11487SOL    HW241512  10.534   9.617   7.448  0.5067  0.2926 -0.7795
11488SOL     OW41513   1.695   1.625   7.964  1.0338 -0.5787 -0.5138
11488SOL    HW141514   1.737   1.550   8.007  0.4501 -1.2615 -1.1177
11488SOL    HW241515   1.768   1.679   7.933  1.4611 -0.6466  0.3231
11489SOL     OW41516   7.770  10.870  11.672 -0.2665  0.9999  0.1157
11489SOL    HW141517   7.803  10.958  11.659 -0.4648  0.9600 -0.7180
11489SOL    HW241518   7.686  10.869  11.626  0.7205 -0.2445 -1.8027
11490SOL     OW41519   0.335   2.490   8.011  0.2368 -0.5477  0.2918
11490SOL    HW141520   0.411   2.521   7.961  1.5712 -2.9623  0.6294
11490SOL    HW241521   0.342   2.534   8.095  0.4559  0.2993 -0.1563
11491SOL     OW41522   8.783   4.241   6.927  0.2127 -0.3680 -0.2141
11491SOL    HW141523   8.855   4.261   6.867  0.1910  0.9657  0.1613
11491SOL    HW241524   8.759   4.151   6.908 -0.9000  0.4737 -3.3956
11492SOL     OW41525   1.221   1.432   7.200 -0.0149  0.4827  1.0369
11492SOL    HW141526   1.188   1.380   7.127  0.6388  0.8006  0.5040
11492SOL    HW241527   1.258   1.367   7.260 -0.6633  0.2106  1.1518
11493SOL     OW41528  10.220   7.910   7.031  0.2327 -0.1579  0.5589
11493SOL    HW141529  10.222   7.974   6.960  2.2668 -0.0707  0.6297
11493SOL    HW241530  10.287   7.846   7.007  1.1632  0.0204  2.4937
11494SOL     OW41531  11.194   3.417   4.183 -0.5302 -0.1183 -0.4154
11494SOL    HW141532  11.132   3.414   4.111 -0.0573 -3.4676 -0.8485
11494SOL    HW241533  11.176   3.338   4.234  0.4509  1.1378  2.0391
11495SOL     OW41534  11.770   7.992   4.922  0.3360 -0.0554 -0.4295
11495SOL    HW141535  11.695   7.935   4.938 -0.1912  0.6906 -0.1995
11495SOL    HW241536  11.812   8.001   5.007  0.6856 -0.4617 -0.5553
11496SOL     OW41537   4.725   0.987   6.837 -0.7418  0.2944 -0.4724
11496SOL    HW141538   4.809   0.941   6.832 -1.6135 -1.3007 -1.0536
11496SOL    HW241539   4.719   1.035   6.754 -0.6932 -0.1379 -0.7308
11497SOL     OW41540  12.049   4.523   3.262 -0.1854 -0.3241  0.1283
11497SOL    HW141541  11.998   4.442   3.262  0.3011 -0.6466 -0.9233
11497SOL    HW241542  12.030   4.563   3.347  1.1696 -2.5373  1.5808
11498SOL     OW41543  11.213   4.216  10.829 -0.1137  0.6021 -0.0635
11498SOL    HW141544  11.282   4.163  10.791 -2.2020 -3.0424  0.7585
11498SOL    HW241545  11.222   4.302  10.787  4.3648  0.1651 -0.4563
11499SOL     OW41546  12.538   7.881   2.954 -0.2895  0.4389 -0.4088
11499SOL    HW141547  12.612   7.897   3.013 -0.8480  0.1516  0.3853
11499SOL    HW241548  12.503   7.797   2.981 -1.4570  0.9774 -0.1793
11500SOL     OW41549   5.278   2.247   6.687  0.0441 -0.1128 -0.1128
11500SOL    HW141550   5.371   2.227   6.683  0.2493  0.7769 -0.0703
11500SOL    HW241551   5.274   2.333   6.729 -0.8509 -0.5681  0.7857
11501SOL     OW41552   9.764  10.026   7.540  0.1310  0.3186  0.3328
11501SOL    HW141553   9.843  10.015   7.591  0.0946  0.6491  0.4632
11501SOL    HW241554   9.701  10.066   7.601 -0.4330 -0.7991  0.5004
11502SOL     OW41555  11.157   0.459   3.036  0.6269 -0.7821  0.0672
11502SOL    HW141556  11.187   0.548   3.020  0.7266 -1.1193 -1.9131
11502SOL    HW241557  11.063   0.467   3.053  0.6200 -0.2898 -0.1919
11503SOL     OW41558   8.820   3.359  10.622  0.1354 -0.3892  0.4493
11503SOL    HW141559   8.759   3.295  10.584  0.4691 -0.7024  0.4370
11503SOL    HW241560   8.902   3.346  10.574  0.4416 -0.5124  0.9987
11504SOL     OW41561  11.984   1.732  10.807 -0.1355 -0.0487  0.1130
11504SOL    HW141562  11.937   1.651  10.787 -0.7535 -0.0145  1.3296
11504SOL    HW241563  11.974   1.785  10.728 -0.7983 -0.6644 -0.2351
11505SOL     OW41564   7.508   6.928   8.269 -0.2946 -0.6322  0.2524
11505SOL    HW141565   7.509   6.940   8.174 -1.9364  1.0245  0.3870
11505SOL    HW241566   7.451   6.998   8.301 -0.6242 -1.7910  2.3733
11506SOL     OW41567   3.546   8.141   6.441  0.3556  0.0866 -0.4941
11506SOL    HW141568   3.523   8.189   6.521  0.5778 -0.8158  0.1254
11506SOL    HW241569   3.540   8.207   6.372 -3.0405  0.1761 -0.2571
11507SOL     OW41570   2.965   3.683   7.143  0.3744 -0.2676 -0.1188
11507SOL    HW141571   2.901   3.613   7.130  0.5045 -0.0982 -1.8737
11507SOL    HW241572   2.999   3.701   7.056 -1.7273  3.9846 -0.3442
11508SOL     OW41573  11.952   6.612   6.795  0.1408  0.4399  0.1602
11508SOL    HW141574  11.888   6.576   6.856  0.2728 -0.2438 -0.0983
11508SOL    HW241575  12.037   6.582   6.828  0.1823 -0.3398 -0.6097
11509SOL     OW41576  10.430  11.979   6.704  0.2198  0.0108  0.9377
11509SOL    HW141577  10.337  12.002   6.706  0.3556  0.6602  0.3309
11509SOL    HW241578  10.464  12.011   6.788 -0.2598 -0.9873  1.5318
11510SOL     OW41579  12.392   9.925  10.705 -0.7836 -0.1958  0.0233
11510SOL    HW141580  12.439   9.986  10.649 -0.0947 -0.0606  0.7329
11510SOL    HW241581  12.406   9.839  10.664  0.4665 -0.2179  0.4524
11511SOL     OW41582   0.337   7.476   5.408 -0.1327 -0.3248 -0.2721
11511SOL    HW141583   0.243   7.491   5.401 -0.2442 -1.0016 -0.3318
11511SOL    HW241584   0.345   7.388   5.445  0.4816  0.0895  0.6209
11512SOL     OW41585   1.467   0.297   0.161  0.4199 -0.0491 -0.3253
11512SOL    HW141586   1.461   0.376   0.213  0.0996  0.3689 -0.9799
11512SOL    HW241587   1.474   0.328   0.070 -1.3590 -0.7719 -0.7483
11513SOL     OW41588   3.880   9.482   0.843 -0.0894  0.1236 -0.3450
11513SOL    HW141589   3.825   9.491   0.765 -1.4957 -0.6749  0.5163
11513SOL    HW241590   3.878   9.389   0.865 -0.8554  0.5118  1.4181
11514SOL     OW41591   5.793  11.441   0.706 -0.7870  0.1714  0.3094
11514SOL    HW141592   5.785  11.535   0.692 -1.9226  0.1041  0.3505
11514SOL    HW241593   5.703  11.412   0.723 -0.4008 -0.8579  0.6904
11515SOL     OW41594   3.315   9.608  11.923  0.1779 -0.4298 -0.0837
11515SOL    HW141595   3.364   9.534  11.886  0.9386 -0.3367  0.7115
11515SOL    HW241596   3.224   9.579  11.923  0.1124 -0.3884 -2.1409
11516SOL     OW41597  11.198   3.655   3.480 -0.3621  0.1598 -0.2892
11516SOL    HW141598  11.117   3.615   3.514  0.4850 -0.6110  0.9228
11516SOL    HW241599  11.234   3.703   3.555  1.6720 -1.7414  0.0455
11517SOL     OW41600   0.564   9.112   4.778  0.6470  0.0745 -0.3774
11517SOL    HW141601   0.499   9.157   4.833  1.3419 -0.4907  0.9398
11517SOL    HW241602   0.521   9.030   4.754  0.7057 -0.1093  0.1360
11518SOL     OW41603   5.232   5.575   3.546 -0.0948 -0.1517  0.1817
11518SOL    HW141604   5.212   5.502   3.488 -0.2350 -0.3097  0.4240
11518SOL    HW241605   5.146   5.609   3.571 -0.0332 -0.0212  0.2154
11519SOL     OW41606  11.514   6.839   3.533 -0.0166 -0.6752 -0.4459
11519SOL    HW141607  11.489   6.799   3.449  0.8042 -2.0641 -0.0638
11519SOL    HW241608  11.463   6.792   3.598  1.3259 -1.4706  0.0593
11520SOL     OW41609   5.338   6.571  12.533  0.2848 -0.1580 -0.3658
11520SOL    HW141610   5.358   6.532  12.619  0.2363  0.8932  0.1427
11520SOL    HW241611   5.412   6.547  12.478  0.1043 -1.2159 -0.1559
11521SOL     OW41612   9.115   2.656  11.955 -0.5960  0.1053  0.0860
11521SOL    HW141613   9.030   2.695  11.934  0.1883  1.8313 -0.0125
11521SOL    HW241614   9.104   2.563  11.933 -1.2165  0.9268 -4.0695
11522SOL     OW41615  11.930  11.878   1.771  0.1924  0.3637  0.7912
11522SOL    HW141616  11.916  11.821   1.695 -1.9510  0.6211  0.9138
11522SOL    HW241617  11.891  11.962   1.745 -0.5514  0.4584  2.1315
11523SOL     OW41618   4.884  12.529   3.691 -0.5962 -0.2085  0.5401
11523SOL    HW141619   4.888  12.436   3.672  0.9541 -0.0288 -0.1402
11523SOL    HW241620   4.896  12.535   3.785  2.1785 -0.5982  0.2937
11524SOL     OW41621   0.658   9.183   5.523  0.2707  0.4324 -0.6947
11524SOL    HW141622   0.694   9.143   5.444 -0.0060  0.7224 -0.9714
11524SOL    HW241623   0.564   9.163   5.519  0.3591 -0.1538 -0.0786
11525SOL     OW41624   4.452  11.003   9.027 -0.3937  0.2164 -0.2251
11525SOL    HW141625   4.547  11.012   9.025 -0.4394  0.8377  0.1698
11525SOL    HW241626   4.423  11.068   9.092 -1.1813  0.8202 -1.1576
11526SOL     OW41627   5.977   0.171  11.055  0.1491  0.1234  0.5841
11526SOL    HW141628   5.905   0.232  11.038  1.2564  0.9270 -1.6146
11526SOL    HW241629   6.031   0.214  11.120 -1.0578 -0.2837  1.9129
11527SOL     OW41630  10.532   1.543   7.657  0.0406 -0.4560 -0.5277
11527SOL    HW141631  10.566   1.482   7.723  1.4184  0.8681  0.0580
11527SOL    HW241632  10.546   1.630   7.696  2.2766  0.4832 -3.0868
11528SOL     OW41633   1.230   7.771   0.349 -0.6386 -0.0818  0.0261
11528SOL    HW141634   1.233   7.681   0.318 -0.2491  0.8194 -2.8183
11528SOL    HW241635   1.154   7.810   0.305  1.0169  1.7634 -1.3951
11529SOL     OW41636   8.294   4.679   2.717  0.1402 -0.0505 -0.7463
11529SOL    HW141637   8.338   4.621   2.779 -0.8072  0.2806  0.2638
11529SOL    HW241638   8.361   4.700   2.652  1.7078  0.9803  1.1080
11530SOL     OW41639   6.145   9.572   7.980 -0.1796  0.1354 -0.6293
11530SOL    HW141640   6.110   9.513   8.047  1.4374  1.2671  1.3479
11530SOL    HW241641   6.144   9.658   8.022 -0.9288  1.2704 -2.8299
11531SOL     OW41642  10.280   2.542   7.688 -0.3240 -0.2666  0.2128
11531SOL    HW141643  10.278   2.519   7.595 -0.2472 -0.8252  0.3469
11531SOL    HW241644  10.254   2.634   7.690 -0.0235 -0.1610 -0.3890
11532SOL     OW41645   9.963  11.516  10.143  0.2009 -0.1043 -0.4257
11532SOL    HW141646   9.999  11.553  10.224 -0.0424 -2.5939  0.9059
11532SOL    HW241647   9.869  11.513  10.158  0.2362 -1.4052 -0.4182
11533SOL     OW41648   6.484   3.978   2.937  0.1285 -0.4533  0.4060
11533SOL    HW141649   6.529   3.938   2.863 -1.1286  0.7664 -1.0914
11533SOL    HW241650   6.547   4.041   2.972 -0.0264  0.5328 -1.0334
11534SOL     OW41651   3.635  12.387   3.281 -0.3736  0.6678 -0.0708
11534SOL    HW141652   3.601  12.312   3.330 -0.6238  1.2736  0.6938
11534SOL    HW241653   3.712  12.415   3.330  0.4760  0.1398 -1.0532
11535SOL     OW41654   6.848   0.058   0.061  0.2317  0.0979 -0.4780
11535SOL    HW141655   6.887   0.009  -0.012 -1.3703  1.4420 -2.3347
11535SOL    HW241656   6.849   0.149   0.032 -1.2047  0.5778  0.8365
11536SOL     OW41657  10.064   0.998   6.051  0.3048 -0.1154  0.3480
11536SOL    HW141658  10.133   1.030   6.109  2.3648  2.3809 -3.1410
11536SOL    HW241659   9.985   1.045   6.080  1.4823  1.8235  0.5501
11537SOL     OW41660   8.941   0.116   3.819 -0.1372  0.5659  0.7669
11537SOL    HW141661   9.003   0.171   3.770 -0.8650 -0.0534 -0.9127
11537SOL    HW241662   8.996   0.057   3.869  0.6425  1.5163  1.0643
11538SOL     OW41663   8.013   2.297   2.398 -0.3249 -0.1831  0.0235
11538SOL    HW141664   7.932   2.295   2.448 -0.6461  0.3870 -0.4522
11538SOL    HW241665   8.039   2.390   2.397  0.0438 -0.2841 -0.2706
11539SOL     OW41666   4.373  11.382   1.251 -0.5500 -0.3324 -0.2689
11539SOL    HW141667   4.445  11.406   1.192 -2.2807  0.2955 -2.2472
11539SOL    HW241668   4.306  11.448   1.235 -2.0186 -1.5246  0.6976
11540SOL     OW41669   4.662   5.141  11.563 -0.1952 -0.2269  0.3036
11540SOL    HW141670   4.600   5.090  11.614 -1.1063 -0.0510 -0.6064
11540SOL    HW241671   4.693   5.209  11.623 -0.9197 -0.2854  0.7492
11541SOL     OW41672  11.369   6.654  11.899  1.0019  0.0578  0.0315
11541SOL    HW141673  11.382   6.716  11.827  0.4616 -0.7093 -0.7548
11541SOL    HW241674  11.283   6.616  11.882  0.3032  0.7278  1.7806
11542SOL     OW41675   1.900   0.594   3.704  0.5566  0.8066 -0.4562
11542SOL    HW141676   1.852   0.513   3.688 -0.9615  1.1278  1.9064
11542SOL    HW241677   1.838   0.663   3.680  1.0719  1.2642 -0.4937
11543SOL     OW41678  10.786   1.591   5.668 -0.1793  0.1072  0.2784
11543SOL    HW141679  10.827   1.678   5.668  2.7845 -1.1524  1.2541
11543SOL    HW241680  10.750   1.582   5.757 -0.6148  0.3572  0.1324
11544SOL     OW41681   8.711   7.304   2.293 -0.3059 -0.5588  0.3504
11544SOL    HW141682   8.713   7.377   2.231 -3.1269 -0.9000 -0.2792
11544SOL    HW241683   8.710   7.226   2.238 -2.3038 -0.8842  0.7771
11545SOL     OW41684   4.256   2.355   3.658 -0.2327 -0.6164  0.6183
11545SOL    HW141685   4.314   2.428   3.679 -0.6448  0.2242 -0.9842
11545SOL    HW241686   4.313   2.278   3.659  0.4920 -0.0884  1.0016
11546SOL     OW41687  11.205  11.194   4.815  0.3737 -0.2311  0.6571
11546SOL    HW141688  11.289  11.194   4.769 -0.2985 -2.4250 -0.7103
11546SOL    HW241689  11.151  11.256   4.765  0.2791 -1.0639 -0.2868
11547SOL     OW41690   5.423  10.218   4.522 -0.4621  0.2084 -0.5937
11547SOL    HW141691   5.332  10.201   4.546 -1.3103  0.9749 -2.9124
11547SOL    HW241692   5.432  10.313   4.529  0.4549  0.0513  0.4952
11548SOL     OW41693  10.483   8.782   3.285  0.4762 -0.1062 -0.1504
11548SOL    HW141694  10.397   8.787   3.327  0.3893  2.1551 -0.5106
11548SOL    HW241695  10.543   8.821   3.348  1.3008 -1.6707  0.1003
11549SOL     OW41696   1.066  12.490   0.189  0.3147  0.1046 -0.3215
11549SOL    HW141697   1.137  12.551   0.168  0.6825  0.0025  0.5529
11549SOL    HW241698   1.052  12.440   0.109 -0.2176  1.5451 -1.1602
11550SOL     OW41699  12.204   4.428   2.920 -0.3463  0.2379  0.0760
11550SOL    HW141700  12.142   4.376   2.868 -0.8767  0.6008  0.3423
11550SOL    HW241701  12.289   4.386   2.904 -0.6942 -0.4219 -0.0860
11551SOL     OW41702   9.805   0.912   8.740 -0.1535  0.2547 -0.6706
11551SOL    HW141703   9.762   0.829   8.716  0.4647 -0.7726  1.5284
11551SOL    HW241704   9.858   0.934   8.664 -0.2226 -1.4523 -1.2652
11552SOL     OW41705   9.340   7.237   1.424  0.3294 -0.0823 -0.7351
11552SOL    HW141706   9.365   7.192   1.505  0.5507  0.2879 -0.5930
11552SOL    HW241707   9.280   7.177   1.381  0.4633 -0.4255 -0.4521
11553SOL     OW41708   3.386  10.143   9.846  0.2271  0.5366 -0.3538
11553SOL    HW141709   3.381  10.238   9.851  0.6674  0.4965  2.0898
11553SOL    HW241710   3.411  10.116   9.934  0.0461 -1.8571 -0.9752
11554SOL     OW41711   9.759   5.130   2.050  0.0383  0.6304 -0.1798
11554SOL    HW141712   9.719   5.205   2.007 -0.5046  0.6239  0.3059
11554SOL    HW241713   9.763   5.154   2.142 -0.3614 -0.0245  0.0166
11555SOL     OW41714   0.393   1.261   8.483  0.5854 -0.0112 -0.2663
11555SOL    HW141715   0.452   1.244   8.410 -1.0727 -1.5002 -1.3284
11555SOL    HW241716   0.409   1.190   8.544 -1.5036 -1.6883 -1.5399
11556SOL     OW41717   6.298   4.071   7.211 -0.9805  0.1600  0.0480
11556SOL    HW141718   6.307   4.017   7.132 -2.7248 -2.0294  1.2222
11556SOL    HW241719   6.312   4.009   7.283  1.3620  2.2455  1.5468
11557SOL     OW41720   3.109  12.207   9.396  0.3704 -0.4019 -0.0528
11557SOL    HW141721   3.201  12.233   9.402 -0.3503  2.1673  0.8747
11557SOL    HW241722   3.101  12.134   9.459  1.3171  0.8832  1.6428
11558SOL     OW41723  10.885  11.918  10.275  0.4541 -0.3425 -0.1817
11558SOL    HW141724  10.942  11.949  10.204  0.5701 -0.2321 -0.0408
11558SOL    HW241725  10.816  11.985  10.281  0.5913 -0.2173 -0.0129
11559SOL     OW41726   0.319   4.603   3.292  0.7031 -0.5225  0.4677
11559SOL    HW141727   0.285   4.515   3.305  0.5844 -0.4702  0.5172
11559SOL    HW241728   0.241   4.658   3.283  0.7689 -0.3661  0.8238
11560SOL     OW41729   7.319   5.988   7.302  0.1033  0.1519  0.1391
11560SOL    HW141730   7.349   6.045   7.374 -0.2464  0.1406  0.2954
11560SOL    HW241731   7.255   5.930   7.343  0.5169 -0.4126 -0.0028
11561SOL     OW41732   9.554   3.555  11.079  0.3013  0.0837 -0.2238
11561SOL    HW141733   9.505   3.487  11.032  1.3937 -1.0371  0.1909
11561SOL    HW241734   9.564   3.520  11.167 -1.4683  2.0311  0.8262
11562SOL     OW41735   1.425   6.624   7.990 -0.2020 -0.1056 -0.4080
11562SOL    HW141736   1.374   6.543   7.991  0.4959 -0.5479  0.2045
11562SOL    HW241737   1.435   6.645   7.897 -3.1979  1.1085 -0.5569
11563SOL     OW41738   3.107  11.373   4.712 -0.9700  0.1684 -0.1255
11563SOL    HW141739   3.029  11.427   4.701 -0.8121  0.8675  1.8501
11563SOL    HW241740   3.169  11.406   4.647 -1.7030  0.7734 -0.5333
11564SOL     OW41741   0.704   7.054   9.027  0.6025  0.3585  0.6135
11564SOL    HW141742   0.662   7.096   8.951  1.3081  0.7432  0.4311
11564SOL    HW241743   0.631   7.015   9.075  0.2179 -0.7308 -0.7731
11565SOL     OW41744  10.414   2.793   4.161  0.0531 -0.3954  0.6686
11565SOL    HW141745  10.413   2.843   4.243 -0.9223 -2.3119  1.9156
11565SOL    HW241746  10.496   2.818   4.118 -0.0442  1.6614  1.5469
11566SOL     OW41747   8.841  10.468   4.241 -0.5935  0.0304 -0.1962
11566SOL    HW141748   8.841  10.491   4.148 -2.6849  1.0405 -0.0115
11566SOL    HW241749   8.921  10.509   4.276 -0.1806  0.2854 -1.4010
11567SOL     OW41750   8.620   2.019  10.545  0.1968 -0.0001 -0.0380
11567SOL    HW141751   8.662   2.033  10.630  1.6135 -0.4247 -0.6447
11567SOL    HW241752   8.547   1.960  10.564 -0.8718  1.5991  1.2154
11568SOL     OW41753   8.493   3.619   4.062 -0.1563  0.4290  0.1216
11568SOL    HW141754   8.476   3.569   4.142 -0.5859 -2.4482 -1.6246
11568SOL    HW241755   8.408   3.658   4.040  0.3109  2.5912  1.8074
11569SOL     OW41756  12.023   8.325   7.098 -0.2383  0.5281 -0.2010
11569SOL    HW141757  12.008   8.417   7.118  0.2460  0.7292 -0.7471
11569SOL    HW241758  12.102   8.302   7.146  0.1661  0.6505 -0.7986
11570SOL     OW41759   8.435   9.732   4.456  0.0619 -0.2746  0.8494
11570SOL    HW141760   8.497   9.676   4.503 -1.7341 -1.5030  1.8954
11570SOL    HW241761   8.401   9.792   4.522  0.3713  0.6316  0.2084
11571SOL     OW41762  11.250   7.187  11.458  0.4446  0.4716  0.0470
11571SOL    HW141763  11.281   7.154  11.543  1.1413  2.5696  0.6805
11571SOL    HW241764  11.322   7.241  11.425  0.8305 -1.5178 -2.7027
11572SOL     OW41765   7.069   7.477   5.287  0.1204  0.1210 -0.4617
11572SOL    HW141766   7.058   7.416   5.360  3.0183 -1.1690 -0.9673
11572SOL    HW241767   7.127   7.545   5.321  0.3977  0.2501 -1.1706
11573SOL     OW41768   7.664   7.330   0.987 -0.1069 -0.3886 -0.5118
11573SOL    HW141769   7.708   7.412   1.014 -0.7946 -0.3028  0.4131
11573SOL    HW241770   7.729   7.284   0.934  0.3363  0.7050 -0.9503
11574SOL     OW41771   8.203   6.296  10.910 -0.1784 -0.4749  0.1541
11574SOL    HW141772   8.181   6.278  11.001  0.8158  3.7833  1.5050
11574SOL    HW241773   8.294   6.266  10.902  0.2682  0.5130  1.1449
11575SOL     OW41774  12.420   7.518   7.027  0.7919  0.5238 -0.4428
11575SOL    HW141775  12.338   7.556   6.997  0.8253  1.1163  0.2026
11575SOL    HW241776  12.395   7.437   7.071  0.4545  1.1550  0.5593
11576SOL     OW41777  11.953   6.822   3.524  0.1742 -0.0619 -0.0445
11576SOL    HW141778  12.038   6.786   3.500  0.7697  0.0941  1.6949
11576SOL    HW241779  11.908   6.750   3.567  0.0196  0.2681  0.3560
11577SOL     OW41780   5.680   9.086   3.311 -0.0384  0.0893  0.3654
11577SOL    HW141781   5.604   9.042   3.271 -0.0363  0.6709 -0.2923
11577SOL    HW241782   5.750   9.022   3.305 -0.6135 -0.6719  1.4946
11578SOL     OW41783   2.374  11.956   4.765  0.2900 -0.0269  0.1739
11578SOL    HW141784   2.464  11.942   4.796 -0.2120 -1.5133  1.0351
11578SOL    HW241785   2.369  11.906   4.683  0.6297  1.1878 -0.6151
11579SOL     OW41786   3.980  10.556   3.607 -0.0351 -0.6087  0.0146
11579SOL    HW141787   4.075  10.559   3.617 -0.1487 -1.7913  2.0359
11579SOL    HW241788   3.952  10.646   3.619  0.8900 -0.0479 -1.7464
11580SOL     OW41789  12.260   5.641   6.109 -0.1910 -0.1623  0.5369
11580SOL    HW141790  12.345   5.678   6.134 -0.2627  0.1169  0.3710
11580SOL    HW241791  12.202   5.663   6.181 -0.8393  2.1802 -0.5948
11581SOL     OW41792  12.149   9.128   9.476  0.3462 -1.1476 -0.0610
11581SOL    HW141793  12.099   9.210   9.473 -0.9177 -1.9081 -0.6073
11581SOL    HW241794  12.235   9.151   9.443  0.6249  0.3634  1.5580
11582SOL     OW41795   0.706   2.356   8.386  0.4127 -0.2798  0.0171
11582SOL    HW141796   0.798   2.375   8.400  0.1356  1.2180 -0.0161
11582SOL    HW241797   0.690   2.275   8.434  1.5141 -0.0351  0.8196
11583SOL     OW41798   9.293   2.126   2.770  0.5577 -0.0600 -0.4231
11583SOL    HW141799   9.271   2.141   2.862  0.7730  0.2295 -0.4165
11583SOL    HW241800   9.227   2.176   2.722  0.0053 -0.8000 -0.4411
11584SOL     OW41801   5.925   1.466  12.313 -0.3856  0.4001  0.4235
11584SOL    HW141802   5.833   1.454  12.339 -0.2573  1.9478  1.7694
11584SOL    HW241803   5.927   1.552  12.271  0.2506 -0.1526 -0.7133
11585SOL     OW41804   1.204   4.557  12.343  0.0823  0.2740 -0.5177
11585SOL    HW141805   1.284   4.543  12.292  2.0848 -1.7307  2.8234
11585SOL    HW241806   1.145   4.488  12.314  1.1922 -0.8582 -0.1637
11586SOL     OW41807   1.051   5.534   1.335 -0.4890 -0.0466  0.3086
11586SOL    HW141808   1.122   5.473   1.357  0.4193  0.5128 -0.9676
11586SOL    HW241809   1.008   5.552   1.419  2.3687  1.4845  1.5685
11587SOL     OW41810   5.995   5.109  12.018  0.3383  0.1045 -0.0604
11587SOL    HW141811   6.089   5.101  12.005  0.2983  0.4947 -0.6187
11587SOL    HW241812   5.972   5.032  12.070  0.5681 -1.4057 -2.0455
11588SOL     OW41813   8.419   8.697   1.722  0.0146 -0.2388 -0.4424
11588SOL    HW141814   8.329   8.664   1.733 -0.8107  1.6164 -1.1960
11588SOL    HW241815   8.449   8.715   1.811 -1.8933  2.8184 -0.2620
11589SOL     OW41816  12.561  11.732   5.833 -0.4230  0.3458 -0.0246
11589SOL    HW141817  12.633  11.755   5.892  1.1857  1.3754 -2.2751
11589SOL    HW241818  12.598  11.667   5.774 -1.7168 -0.0036 -0.4770
11590SOL     OW41819   1.028   3.809   6.162  0.2321  0.3194 -0.8767
11590SOL    HW141820   1.095   3.837   6.099  0.3408 -0.3602 -1.0767
11590SOL    HW241821   0.958   3.873   6.152  0.6872  0.8200 -0.9446
11591SOL     OW41822   6.382   6.858   4.384  0.0603 -0.6122  0.6116
11591SOL    HW141823   6.335   6.809   4.316 -1.3492  0.2149  0.9521
11591SOL    HW241824   6.469   6.873   4.347  0.2989 -2.7190  0.2102
11592SOL     OW41825  10.137   2.929   3.158 -0.4020 -0.2795  0.1325
11592SOL    HW141826  10.220   2.976   3.161  0.9242 -2.4247 -0.5448
11592SOL    HW241827  10.123   2.900   3.248  0.1205 -0.7474  0.0702
11593SOL     OW41828   1.735   8.982  11.665 -0.4046 -0.5792  0.6781
11593SOL    HW141829   1.722   8.907  11.608 -1.0100 -0.0350  0.0771
11593SOL    HW241830   1.818   9.020  11.637  1.3855 -2.5908  2.8336
11594SOL     OW41831   1.537   3.728   7.459  0.1205 -0.0723 -0.0130
11594SOL    HW141832   1.616   3.678   7.441  0.5610  0.0958  1.3644
11594SOL    HW241833   1.479   3.667   7.503 -0.2227  0.0240 -0.3213
11595SOL     OW41834   3.954   8.090   0.659 -0.0090 -0.0465 -0.2041
11595SOL    HW141835   3.936   7.999   0.636  0.2731  0.0072 -0.6406
11595SOL    HW241836   3.983   8.131   0.578  0.1226  0.3711  0.0460
11596SOL     OW41837   6.413   6.730  10.310 -0.1288 -0.4294  0.1018
11596SOL    HW141838   6.440   6.817  10.339 -0.8142 -0.6637  1.5569
11596SOL    HW241839   6.411   6.735  10.215 -0.9728  1.4116  0.1797
11597SOL     OW41840   7.137   9.039   4.173  0.4012 -0.6870  0.4251
11597SOL    HW141841   7.157   9.079   4.258 -1.3578 -1.4716  1.2464
11597SOL    HW241842   7.184   8.956   4.174  1.5495 -0.0732 -0.0083
11598SOL     OW41843   3.226   2.337   3.118 -0.0932  0.5512  0.7505
11598SOL    HW141844   3.263   2.288   3.044 -3.3486 -2.3888  0.7846
11598SOL    HW241845   3.209   2.270   3.184 -2.7802  2.0808  1.7447
11599SOL     OW41846   7.443  12.413  11.862  0.1330  0.0044  0.5483
11599SOL    HW141847   7.424  12.481  11.926 -1.0184  1.1563 -0.9409
11599SOL    HW241848   7.539  12.412  11.857  0.1748  1.6489  0.4853
11600SOL     OW41849   0.579  11.042   7.332  0.5751 -0.3092  0.3870
11600SOL    HW141850   0.638  11.116   7.318  0.0408  0.0336 -0.0744
11600SOL    HW241851   0.512  11.051   7.265  0.3718 -1.0833  0.4729
11601SOL     OW41852   3.492   0.612   5.425  0.2913  0.2502 -0.3186
11601SOL    HW141853   3.566   0.583   5.373  2.2704  1.1081  1.8698
11601SOL    HW241854   3.418   0.610   5.364  2.1028 -0.4220 -2.6423
11602SOL     OW41855   1.133   2.848  10.784  0.2956 -0.2776  0.1381
11602SOL    HW141856   1.126   2.853  10.879  2.5438  1.4579  0.2871
11602SOL    HW241857   1.093   2.929  10.752  1.1837  0.0285 -0.2425
11603SOL     OW41858   1.738   2.868   7.069  0.3764 -0.1496 -0.1892
11603SOL    HW141859   1.769   2.782   7.099  0.6768  0.0248  0.0048
11603SOL    HW241860   1.674   2.847   7.001  1.3612 -0.5228 -1.0379
11604SOL     OW41861   4.819   3.599   0.679 -0.6892  0.6152  0.0904
11604SOL    HW141862   4.803   3.689   0.708  0.0825  1.1848 -1.1727
11604SOL    HW241863   4.856   3.556   0.756 -0.3021  1.6111  0.4817
11605SOL     OW41864   9.729   7.758  12.283  0.0173 -0.6027 -0.6824
11605SOL    HW141865   9.727   7.790  12.193  0.9581  1.0760 -0.1414
11605SOL    HW241866   9.659   7.805  12.327  0.7071 -0.0764 -0.1305
11606SOL     OW41867   9.053   8.626   3.536  0.3689 -0.8386  0.1109
11606SOL    HW141868   9.035   8.562   3.466  0.6162  0.9366 -1.6526
11606SOL    HW241869   9.143   8.607   3.561  0.1213 -1.8166  0.3347
11607SOL     OW41870   4.763  12.318   0.469  0.5339  0.2175 -0.1750
11607SOL    HW141871   4.801  12.232   0.485 -1.0448 -0.5533 -0.4105
11607SOL    HW241872   4.737  12.349   0.556 -2.4155 -1.2823 -0.4173
11608SOL     OW41873   7.250   6.621   3.204 -0.6713  0.0576 -0.4080
11608SOL    HW141874   7.341   6.649   3.192 -0.7335  0.2481 -0.4382
11608SOL    HW241875   7.224   6.660   3.287 -0.1469 -1.4972  0.5350
11609SOL     OW41876   5.083   8.520   0.861  0.2296 -0.2061 -0.4220
11609SOL    HW141877   5.161   8.514   0.915 -1.4216 -0.8625  2.0330
11609SOL    HW241878   5.040   8.601   0.888 -0.5402 -0.4412 -0.8976
11610SOL     OW41879   7.341   6.029   0.144 -0.3956 -0.0655 -0.1251
11610SOL    HW141880   7.318   6.100   0.084 -1.2523 -0.5020 -0.3379
11610SOL    HW241881   7.386   6.072   0.216 -1.4605  0.7976  0.0599
11611SOL     OW41882   4.606  10.299   2.614 -1.0082 -0.0294 -0.1125
11611SOL    HW141883   4.575  10.387   2.592  1.5963  1.0082  0.0601
11611SOL    HW241884   4.590  10.248   2.535 -0.0229  1.3409 -1.2448
11612SOL     OW41885   1.983   0.997   2.852  0.0514  0.0121  0.9291
11612SOL    HW141886   2.071   0.979   2.821 -0.5588 -0.4724 -0.5986
11612SOL    HW241887   1.958   0.918   2.901  0.1898 -0.1574  0.7274
11613SOL     OW41888   6.347   0.514   8.291 -0.5575 -0.0272  0.5163
11613SOL    HW141889   6.389   0.561   8.363  0.7186  1.2397 -0.9625
11613SOL    HW241890   6.393   0.545   8.212 -0.4230 -2.8996 -0.6847
11614SOL     OW41891   8.322   5.498   6.685  0.3049  0.6942 -0.4411
11614SOL    HW141892   8.379   5.421   6.694  0.8479  1.1383 -0.0088
11614SOL    HW241893   8.233   5.461   6.678  0.5083  0.0495  0.2565
11615SOL     OW41894   3.097   0.511   2.170 -0.5372  0.2134  0.1464
11615SOL    HW141895   3.135   0.598   2.159 -0.7703  0.2413 -0.4889
11615SOL    HW241896   3.037   0.520   2.244 -0.4290  0.5491  0.1933
11616SOL     OW41897   6.717   1.479   1.391 -0.1473 -0.5035 -0.0715
11616SOL    HW141898   6.760   1.412   1.338 -1.5369 -0.8565 -0.8091
11616SOL    HW241899   6.646   1.433   1.435 -0.7128  0.3537 -0.0703
11617SOL     OW41900   1.232   8.699   8.063  0.1577 -0.6428  0.6833
11617SOL    HW141901   1.238   8.786   8.102 -0.7824  0.4417 -1.4090
11617SOL    HW241902   1.169   8.653   8.118 -0.1198  0.3509  1.2338
11618SOL     OW41903   0.092   2.430   4.925 -0.0670  0.2333 -0.0795
11618SOL    HW141904   0.047   2.347   4.909  0.4652 -0.2786  0.9263
11618SOL    HW241905   0.058   2.459   5.010  0.8453  0.2696  0.2868
11619SOL     OW41906   3.257   7.716  12.590 -0.1710 -0.1915 -0.0976
11619SOL    HW141907   3.260   7.643  12.528  0.3900 -0.7980  0.6227
11619SOL    HW241908   3.225   7.677  12.671 -0.6010  0.5305  0.0819
11620SOL     OW41909   4.602   0.632   7.132  0.2951 -0.6731  0.5173
11620SOL    HW141910   4.598   0.726   7.150 -0.5520 -1.0508  2.6470
11620SOL    HW241911   4.510   0.606   7.122  0.5997 -0.9772 -2.2485
11621SOL     OW41912   0.929   8.042   2.477 -0.3983  0.0648 -0.2049
11621SOL    HW141913   0.928   8.097   2.555  2.1768  0.8297 -0.6193
11621SOL    HW241914   0.860   7.977   2.492 -1.4208  1.5052  1.6874
11622SOL     OW41915   7.353  12.204   9.209 -0.3018  0.8391  0.7229
11622SOL    HW141916   7.362  12.235   9.300 -1.2867  2.7173  0.2474
11622SOL    HW241917   7.260  12.216   9.189  0.0699  1.3707 -0.8278
11623SOL     OW41918   6.378   2.385  11.593 -0.2345  0.1807  0.2816
11623SOL    HW141919   6.400   2.451  11.658  0.0568  1.6659 -1.2524
11623SOL    HW241920   6.462   2.351  11.564 -0.1602  1.5546 -1.2780
11624SOL     OW41921   4.115  11.344   4.427  0.0311 -0.8707  1.0601
11624SOL    HW141922   4.120  11.268   4.369  1.3444  1.6433 -2.4512
11624SOL    HW241923   4.188  11.399   4.401 -2.3137  2.8255  1.5163
11625SOL     OW41924  11.735  11.765   9.506  0.1465 -0.6509 -0.4695
11625SOL    HW141925  11.793  11.690   9.512 -0.5823 -1.2410 -0.6331
11625SOL    HW241926  11.737  11.804   9.593  0.4674 -0.9087 -0.3610
11626SOL     OW41927   3.567  10.639  10.499  0.2942  0.2334  0.2316
11626SOL    HW141928   3.614  10.698  10.559  0.3130 -0.3620  0.8197
11626SOL    HW241929   3.629  10.621  10.429 -0.1578  1.9461 -0.6720
11627SOL     OW41930   7.130   9.796   0.857 -0.1170  0.4803 -0.0225
11627SOL    HW141931   7.124   9.773   0.764 -1.1132 -0.2642  0.2136
11627SOL    HW241932   7.040   9.791   0.889  0.1736  1.0259  0.9199
11628SOL     OW41933   2.985   1.613  11.819  0.3184  0.6236 -0.2200
11628SOL    HW141934   3.055   1.665  11.860 -0.7041  1.4064  0.5935
11628SOL    HW241935   2.911   1.674  11.814 -0.8999 -0.7166  0.7006
11629SOL     OW41936   2.531   5.116  10.920 -0.4623 -0.0555  0.2256
11629SOL    HW141937   2.554   5.186  10.980 -0.8283 -0.6254  1.0516
11629SOL    HW241938   2.613   5.069  10.905  0.0850  1.3406 -1.4324
11630SOL     OW41939  10.548   5.228   5.722  0.4943 -1.0681  0.4749
11630SOL    HW141940  10.583   5.212   5.810  0.4220 -0.2353  0.6681
11630SOL    HW241941  10.534   5.141   5.686  0.9830 -1.4258  1.1057
11631SOL     OW41942   3.459   9.278  11.155 -0.0933 -0.1872  0.0619
11631SOL    HW141943   3.404   9.342  11.110  0.6519  0.4175 -0.0159
11631SOL    HW241944   3.403   9.242  11.224 -1.0023 -0.5629 -0.8360
11632SOL     OW41945   5.257   1.897   3.475  0.5802 -0.0010 -0.5612
11632SOL    HW141946   5.340   1.942   3.490  0.1606  0.7267 -0.3686
11632SOL    HW241947   5.194   1.944   3.530  0.2012 -1.0888 -0.0245
11633SOL     OW41948   8.678   6.545   2.730 -1.0095  0.3395 -0.1173
11633SOL    HW141949   8.710   6.610   2.792  1.0230  0.1727 -0.9217
11633SOL    HW241950   8.605   6.503   2.775 -0.4585  1.1346  1.6097
11634SOL     OW41951   4.636   9.404  10.725  0.3788  0.1299  0.3725
11634SOL    HW141952   4.544   9.381  10.739  0.2093 -1.9831 -3.0888
11634SOL    HW241953   4.685   9.346  10.782 -0.3937 -0.3462  0.5627
11635SOL     OW41954   7.736   0.255  11.155 -0.5414 -0.2699 -0.3504
11635SOL    HW141955   7.700   0.309  11.225 -0.5207 -2.6900  1.6636
11635SOL    HW241956   7.661   0.203  11.124  0.1872 -2.0856  0.7438
11636SOL     OW41957  10.780   4.601  11.584 -0.0323 -0.2166 -0.0869
11636SOL    HW141958  10.727   4.560  11.652  1.8465 -2.3443  0.2183
11636SOL    HW241959  10.774   4.542  11.509 -0.6807  1.2150 -1.2076
11637SOL     OW41960   0.052  11.766   9.877  0.1944  0.5290  0.4236
11637SOL    HW141961   0.041  11.845   9.930  0.7946  0.5824  0.4669
11637SOL    HW241962  -0.029  11.717   9.891 -0.6112  1.5756 -0.3531
11638SOL     OW41963  10.814   0.617   0.901  0.2609  0.5962 -0.0356
11638SOL    HW141964  10.776   0.634   0.815 -2.1069  0.9625  0.9932
11638SOL    HW241965  10.818   0.703   0.943  1.8080  0.4872  0.1149
11639SOL     OW41966   2.847   3.951  10.894  0.4000  0.7964  0.0541
11639SOL    HW141967   2.779   3.938  10.829  0.3650 -1.0966  0.3921
11639SOL    HW241968   2.816   4.023  10.949 -1.1147  0.2598 -0.0659
11640SOL     OW41969   9.975   3.595   5.024  0.2413  0.2452 -0.3383
11640SOL    HW141970  10.067   3.607   5.002  0.2635 -1.8693 -1.6787
11640SOL    HW241971   9.959   3.501   5.014 -1.6992  0.3051  1.4182
11641SOL     OW41972  10.868  11.028  11.616 -0.0321 -0.2001  0.0212
11641SOL    HW141973  10.817  11.040  11.696  0.6301 -0.1154  0.4429
11641SOL    HW241974  10.936  10.965  11.641 -0.7736 -1.4131 -0.9201
11642SOL     OW41975   0.770   3.186   7.351  0.3160 -0.2168 -0.8703
11642SOL    HW141976   0.729   3.269   7.376  2.2622  0.9941 -1.5192
11642SOL    HW241977   0.863   3.199   7.367  0.5995 -2.6233 -0.1384
11643SOL     OW41978   0.110  11.062   4.901  0.4997  1.1547 -0.3844
11643SOL    HW141979   0.016  11.060   4.916  0.2290  1.1269 -2.0001
11643SOL    HW241980   0.131  10.974   4.868  0.8548  1.5847 -1.3205
11644SOL     OW41981   6.646   3.768   9.445 -0.3617  0.3139  0.4919
11644SOL    HW141982   6.732   3.808   9.452  0.3837 -0.5839 -2.1723
11644SOL    HW241983   6.649   3.694   9.506 -0.4140  2.0050  2.6520
11645SOL     OW41984   4.009   1.912   2.386 -0.1916 -0.0313  0.0641
11645SOL    HW141985   4.033   2.004   2.392  0.7610 -0.2046 -0.8559
11645SOL    HW241986   3.922   1.913   2.346 -1.4635  0.5539  2.5982
11646SOL     OW41987   2.913   0.574   8.484  0.1125 -0.1242  0.0164
11646SOL    HW141988   2.961   0.495   8.507  1.8371  0.5859 -1.0127
11646SOL    HW241989   2.877   0.557   8.397 -2.5190 -1.0493  1.1666
11647SOL     OW41990   7.167   5.124  10.661  0.9435  0.3617  0.2037
11647SOL    HW141991   7.118   5.206  10.656  1.3870  0.5659 -1.3188
11647SOL    HW241992   7.100   5.056  10.661  0.6077  0.6917  0.2182
11648SOL     OW41993   4.928   9.990   7.721  0.5544  0.3401  0.2470
11648SOL    HW141994   4.941   9.972   7.814  2.0716  0.1399  0.0192
11648SOL    HW241995   4.987  10.063   7.702 -0.5836  1.1467 -0.3250
11649SOL     OW41996  10.603   5.316   6.345  0.3864  0.1034 -0.1788
11649SOL    HW141997  10.574   5.230   6.314  2.1797 -0.5774 -0.1126
11649SOL    HW241998  10.661   5.296   6.419  1.9074  1.2681 -0.9951
11650SOL     OW41999   6.572   2.401   2.619 -0.2090  0.3408  0.0530
11650SOL    HW142000   6.569   2.314   2.578  3.2168  0.5904 -1.0762
11650SOL    HW242001   6.630   2.390   2.694 -1.7958  1.1558  1.4362
11651SOL     OW42002   3.685   6.852   5.644 -0.1313  0.1842  0.1897
11651SOL    HW142003   3.646   6.936   5.669  1.0890  0.5964  0.7519
11651SOL    HW242004   3.779   6.866   5.650  0.0891 -1.4753  1.0738
11652SOL     OW42005  10.330  11.751   7.611 -0.0794 -0.2209  0.1140
11652SOL    HW142006  10.301  11.712   7.693 -0.4167 -0.6740 -0.2177
11652SOL    HW242007  10.351  11.676   7.555  1.4916  0.0808  0.2498
11653SOL     OW42008   4.395  11.451   7.550 -0.5132  0.2826  0.7946
11653SOL    HW142009   4.303  11.454   7.574 -0.7674 -0.0352 -0.1044
11653SOL    HW242010   4.409  11.363   7.517  0.9287 -0.8321  3.9305
11654SOL     OW42011   4.116  10.912   5.675 -0.3929  0.0604 -0.8603
11654SOL    HW142012   4.084  10.865   5.753 -0.7433 -1.2679 -1.7636
11654SOL    HW242013   4.210  10.923   5.691 -0.3232 -0.8360 -0.5503
11655SOL     OW42014   5.701  10.675   1.093 -0.0983  0.1327 -0.0453
11655SOL    HW142015   5.695  10.770   1.084  0.3969  0.1156 -0.6138
11655SOL    HW242016   5.791  10.654   1.071  0.1275 -0.3506  1.2528
11656SOL     OW42017   2.640   0.706   1.628  0.0800 -0.0948 -0.1539
11656SOL    HW142018   2.588   0.742   1.556 -0.5692 -0.2681  0.2184
11656SOL    HW242019   2.653   0.780   1.688 -1.1612 -0.4239  0.5578
11657SOL     OW42020   5.661   9.681   1.560  0.0349  0.1857  0.3554
11657SOL    HW142021   5.674   9.670   1.654  0.5162  0.3216  0.3077
11657SOL    HW242022   5.597   9.614   1.536 -0.3466  0.3699  0.8400
11658SOL     OW42023   5.486  10.403  10.991 -0.6182  0.1138 -0.7387
11658SOL    HW142024   5.535  10.362  10.920  1.5887  0.8728  0.2710
11658SOL    HW242025   5.452  10.485  10.953  0.5134  0.4965 -0.9681
11659SOL     OW42026   2.815  10.662   3.142 -0.1926  0.0141 -0.7910
11659SOL    HW142027   2.906  10.678   3.115 -0.4835  2.4290 -0.5566
11659SOL    HW242028   2.822  10.633   3.233  0.3211  2.1855 -0.0674
11660SOL     OW42029   2.117   1.425  12.151  0.3146  0.0725 -0.4684
11660SOL    HW142030   2.024   1.448  12.147  0.7455  2.3287  0.9716
11660SOL    HW242031   2.129   1.390  12.240  0.6479 -1.4370 -1.0693
11661SOL     OW42032  11.768   3.497   2.900  0.1163 -0.4726  0.1207
11661SOL    HW142033  11.685   3.533   2.869 -0.3569 -2.3404 -0.9155
11661SOL    HW242034  11.764   3.508   2.995 -0.9899  0.1091  0.0219
11662SOL     OW42035   9.741  12.340   9.256  0.2812  0.4630 -0.1300
11662SOL    HW142036   9.733  12.435   9.244 -1.2030  0.2833 -0.8415
11662SOL    HW242037   9.673  12.319   9.320  0.2276 -0.2069 -0.4091
11663SOL     OW42038  11.109   6.111   9.839 -0.4978 -0.7319  0.1069
11663SOL    HW142039  11.040   6.178   9.843 -0.1008 -0.3356  4.0178
11663SOL    HW242040  11.063   6.029   9.853 -0.4116 -0.7073  0.5351
11664SOL     OW42041   1.209   8.098  12.016  0.2168 -0.0399 -0.1207
11664SOL    HW142042   1.272   8.095  11.943  0.0101  0.7375 -0.3461
11664SOL    HW242043   1.262   8.085  12.094  0.6953  0.8153 -0.2920
11665SOL     OW42044   0.170   5.381  11.586 -0.7544 -0.1733  1.1355
11665SOL    HW142045   0.169   5.442  11.513 -0.6444 -1.1972  0.2546
11665SOL    HW242046   0.251   5.331  11.575 -0.6149 -0.1808  2.0982
11666SOL     OW42047   0.655   5.147  12.023 -0.0625  0.0459  0.4004
11666SOL    HW142048   0.575   5.170  11.976 -0.1605 -0.8486  0.1252
11666SOL    HW242049   0.693   5.232  12.048 -0.1009  0.5294 -1.1080
11667SOL     OW42050   6.250   6.221   3.729  0.3784 -0.0785  0.4046
11667SOL    HW142051   6.323   6.166   3.701 -0.6239 -0.6650 -1.2423
11667SOL    HW242052   6.191   6.162   3.776  0.0012 -0.1096 -0.0889
11668SOL     OW42053   9.412  10.499   2.324  0.0353  0.1393  0.0530
11668SOL    HW142054   9.440  10.435   2.389 -2.4718 -0.4332  0.6893
11668SOL    HW242055   9.382  10.446   2.249  0.3680  0.6800 -0.4748
11669SOL     OW42056   2.914   1.284   9.529  0.1434  0.6267 -0.2813
11669SOL    HW142057   2.866   1.262   9.609  0.2905  1.3411  0.0107
11669SOL    HW242058   2.977   1.213   9.518 -1.2679 -0.5751 -0.9202
11670SOL     OW42059   8.352   2.392   3.004  0.3802  0.0408 -0.1426
11670SOL    HW142060   8.348   2.443   3.085  0.2173 -0.9103  0.4590
11670SOL    HW242061   8.429   2.427   2.958  0.9515  0.0596  0.7933
11671SOL     OW42062   8.296   3.834   2.931 -0.5507  0.0724 -0.4450
11671SOL    HW142063   8.377   3.820   2.883 -1.6320 -3.0297 -1.6640
11671SOL    HW242064   8.248   3.898   2.879  0.7076  1.2582 -0.1922
11672SOL     OW42065   5.754   6.011   2.719 -0.0426  0.6159  0.5759
11672SOL    HW142066   5.729   6.044   2.633  1.1292 -1.0529 -0.4595
11672SOL    HW242067   5.758   6.089   2.775 -0.9211  1.7115 -0.8413
11673SOL     OW42068   8.419   6.160  10.963  0.2867 -0.9312 -0.2687
11673SOL    HW142069   8.434   6.172  11.056 -0.2396 -2.0249 -0.0363
11673SOL    HW242070   8.504   6.134  10.928  0.9085  1.0797 -0.4124
11674SOL     OW42071   5.912  10.770  12.220  0.7082  0.5432  0.4992
11674SOL    HW142072   5.817  10.779  12.231  0.7057  0.6889  0.3630
11674SOL    HW242073   5.942  10.733  12.303  0.1781 -2.1330 -0.4077
11675SOL     OW42074  11.446   0.984   8.808  0.5654  0.0613  0.1613
11675SOL    HW142075  11.441   1.049   8.879 -1.0593 -1.4926  1.5655
11675SOL    HW242076  11.493   1.029   8.738  0.7115  2.2688  1.5702
11676SOL     OW42077   2.783  10.578  10.380  0.3635 -0.3083 -0.3190
11676SOL    HW142078   2.785  10.520  10.304 -1.8249 -0.2089 -0.4995
11676SOL    HW242079   2.809  10.663  10.347  0.2539 -0.4485 -0.7698
11677SOL     OW42080   6.547   5.908  10.552  0.1642  0.3493 -0.0304
11677SOL    HW142081   6.516   5.997  10.540 -0.5068  0.0311 -0.8010
11677SOL    HW242082   6.470   5.860  10.584  0.5099  0.0402  0.3510
11678SOL     OW42083   8.693   7.698   0.264 -0.2941  0.0791  0.2627
11678SOL    HW142084   8.644   7.723   0.342 -0.4785 -0.7554  0.4160
11678SOL    HW242085   8.726   7.610   0.283 -1.6285 -0.7749 -1.2020
11679SOL     OW42086   7.869   9.685   3.506 -0.2927 -0.2851  0.0121
11679SOL    HW142087   7.917   9.684   3.589 -1.1181 -1.7504  0.5259
11679SOL    HW242088   7.913   9.750   3.453  0.1357  0.8393  1.6764
11680SOL     OW42089   6.649   0.772   4.020 -0.4030  0.2500  0.3439
11680SOL    HW142090   6.732   0.803   3.984 -0.4741  0.8720  0.6980
11680SOL    HW242091   6.673   0.739   4.107 -0.4988  0.2840  0.3829
11681SOL     OW42092   2.571   3.928   3.905 -0.4662  0.1402 -0.4325
11681SOL    HW142093   2.579   3.892   3.817  0.1732 -0.9202  0.0407
11681SOL    HW242094   2.581   3.852   3.963  1.1798  1.0969  0.6026
11682SOL     OW42095  10.019   5.219   8.069  0.2792 -0.0350  0.0941
11682SOL    HW142096  10.070   5.169   8.133 -1.0373  0.5998  1.7351
11682SOL    HW242097  10.003   5.303   8.112 -1.5465  0.0253 -0.6089
11683SOL     OW42098   7.725   4.200   3.884 -0.1403  0.3894 -0.1365
11683SOL    HW142099   7.684   4.190   3.970  0.4446 -1.4479 -0.0513
11683SOL    HW242100   7.818   4.212   3.902  0.1371 -0.9949 -0.5137
11684SOL     OW42101   3.576   3.413  11.948 -0.3421 -0.3852 -0.1423
11684SOL    HW142102   3.564   3.355  12.024 -1.7526  0.1447  0.0731
11684SOL    HW242103   3.667   3.441  11.954  0.1090 -1.8270  0.2830
11685SOL     OW42104   1.942   7.961   7.742 -0.2473  0.1585  0.4627
11685SOL    HW142105   2.033   7.956   7.771 -0.2923  0.3431  0.6404
11685SOL    HW242106   1.896   8.002   7.815 -0.7164 -1.0982  0.8895
11686SOL     OW42107   1.824   4.608   3.490  0.2035  0.0478 -0.6209
11686SOL    HW142108   1.866   4.590   3.406  2.4295 -0.0592  0.4434
11686SOL    HW242109   1.829   4.525   3.537 -0.5058  0.2540 -0.1674
11687SOL     OW42110   0.104  11.072  11.660 -0.6450 -0.3695 -0.1017
11687SOL    HW142111   0.177  11.015  11.685 -1.5616 -1.2718  0.6284
11687SOL    HW242112   0.028  11.014  11.660 -1.3794  0.5779 -0.7273
11688SOL     OW42113   3.607   4.706   8.740  0.9313 -0.0563  0.6570
11688SOL    HW142114   3.680   4.767   8.734  1.1267 -0.4218 -1.9894
11688SOL    HW242115   3.621   4.644   8.668 -1.9132 -0.1794  0.0579
11689SOL     OW42116  11.951   8.910   5.897 -0.2422 -0.1198 -0.9346
11689SOL    HW142117  12.027   8.883   5.948  0.0399 -1.2757 -1.9079
11689SOL    HW242118  11.976   8.994   5.858  0.5392 -0.4798 -1.2283
11690SOL     OW42119   3.722   1.962   8.758  0.2412 -0.0925 -0.0774
11690SOL    HW142120   3.802   2.007   8.730  1.0173  0.2591  2.4166
11690SOL    HW242121   3.735   1.871   8.730  0.3305  0.4464 -1.9130
11691SOL     OW42122   1.509   7.996   1.084  0.6906  0.0221 -0.0529
11691SOL    HW142123   1.480   8.073   1.133  1.1752  0.0803  0.1533
11691SOL    HW242124   1.433   7.970   1.033  0.4660  0.5304  0.0133
11692SOL     OW42125   0.206   1.361   6.978 -0.0762  0.0411  0.0588
11692SOL    HW142126   0.253   1.353   7.061  0.7652  0.8884 -0.3118
11692SOL    HW242127   0.259   1.311   6.916  0.0247  0.5110 -0.2400
11693SOL     OW42128   6.780   8.067  11.233 -0.2722 -0.7458  0.1448
11693SOL    HW142129   6.701   8.107  11.196  0.1999 -0.8991 -1.1017
11693SOL    HW242130   6.820   8.137  11.285 -0.1105  0.0361 -0.9838
11694SOL     OW42131   5.575   5.258   0.347 -0.1731  0.3799 -0.1482
11694SOL    HW142132   5.667   5.285   0.335 -0.2749 -0.4487 -3.9871
11694SOL    HW242133   5.581   5.173   0.392  0.8736  0.6481  0.2641
11695SOL     OW42134   2.849   3.345   4.772  0.3467 -0.2449 -0.1283
11695SOL    HW142135   2.823   3.253   4.766  0.4328 -0.3809  1.1713
11695SOL    HW242136   2.834   3.367   4.864 -1.0602  1.4710 -0.7344
11696SOL     OW42137   7.179  11.944   9.941 -0.6369 -1.2155  0.0010
11696SOL    HW142138   7.152  11.897   9.863 -2.4946 -1.2230  0.6082
11696SOL    HW242139   7.186  11.876  10.009  0.0024 -1.0667  0.0977
11697SOL     OW42140   1.998   0.177   5.477  0.3955 -0.2740  0.1567
11697SOL    HW142141   1.985   0.200   5.385 -1.3863 -1.3853  0.0724
11697SOL    HW242142   2.012   0.082   5.476 -0.8748 -0.4989  1.0824
11698SOL     OW42143   0.722   0.264   9.834  0.3426 -0.7494  0.0570
11698SOL    HW142144   0.663   0.313   9.891  1.7539  0.6590  0.3992
11698SOL    HW242145   0.759   0.196   9.890  0.8464 -0.1034  0.5305
11699SOL     OW42146   9.463   3.469   0.889  0.0655  0.2244 -0.1402
11699SOL    HW142147   9.499   3.527   0.956 -0.1361 -0.1461  0.2958
11699SOL    HW242148   9.456   3.523   0.811 -1.4746  1.1998  0.6245
11700SOL     OW42149   1.491   7.882   6.771  0.1252 -0.2590 -0.0956
11700SOL    HW142150   1.424   7.847   6.830  1.3850 -1.2450  0.8163
11700SOL    HW242151   1.505   7.972   6.801  0.2824 -0.5390  0.6948
11701SOL     OW42152   7.125   8.340   3.148  0.1416  0.3952  0.0727
11701SOL    HW142153   7.069   8.332   3.071 -1.0163  0.6089  0.8846
11701SOL    HW242154   7.104   8.426   3.185  1.9611  1.0734 -0.3346
11702SOL     OW42155   5.888   8.875  11.378 -0.5354 -0.2813  0.4019
11702SOL    HW142156   5.802   8.902  11.344 -0.9106 -0.0713  1.4659
11702SOL    HW242157   5.876   8.782  11.400 -1.4809  0.4035  3.3197
11703SOL     OW42158   4.015  10.530  10.887 -0.5275 -0.5285 -0.0908
11703SOL    HW142159   4.068  10.590  10.941  0.6706  0.6395 -2.3846
11703SOL    HW242160   4.061  10.446  10.893  1.6843  0.4377 -1.9543
11704SOL     OW42161   6.700   0.200   8.521  0.1427  0.1898 -0.2292
11704SOL    HW142162   6.646   0.233   8.450  0.2026  1.9330  0.4872
11704SOL    HW242163   6.662   0.239   8.600  1.2705 -0.0968  0.4777
11705SOL     OW42164  12.339  12.344   9.777 -0.3086 -0.1664  0.2048
11705SOL    HW142165  12.305  12.321   9.863 -0.6380 -2.7592 -0.5267
11705SOL    HW242166  12.272  12.314   9.716  0.3404  0.7629 -1.0075
11706SOL     OW42167   4.578  10.721   7.172 -0.1524 -0.4678  0.5246
11706SOL    HW142168   4.595  10.764   7.089 -1.5109 -1.8329 -0.5170
11706SOL    HW242169   4.654  10.742   7.226  0.6823  0.5878 -0.9886
11707SOL     OW42170   9.546   7.316   4.530  0.1169  0.2441  0.4400
11707SOL    HW142171   9.563   7.244   4.590 -0.5413 -0.1556  0.1470
11707SOL    HW242172   9.579   7.285   4.446 -0.4249  0.1743  0.2529
11708SOL     OW42173   5.711   2.045   8.158 -0.4778 -0.0380 -0.8023
11708SOL    HW142174   5.654   2.065   8.232  0.2863 -0.6172 -0.0292
11708SOL    HW242175   5.796   2.082   8.183  0.4661 -2.4098 -0.2029
11709SOL     OW42176   9.563  11.207   5.494 -0.2805 -0.7633  0.4605
11709SOL    HW142177   9.532  11.147   5.562  0.2018 -2.2385 -0.5713
11709SOL    HW242178   9.650  11.234   5.523 -0.2077 -1.1207  0.5717
11710SOL     OW42179  10.812   5.000   7.890  0.8363  0.2188 -0.6326
11710SOL    HW142180  10.789   5.068   7.826  1.1685  1.9046  0.9450
11710SOL    HW242181  10.729   4.982   7.936  0.8164 -0.2102 -0.8368
11711SOL     OW42182  12.419  11.762   1.074  0.4417  0.7151 -0.2859
11711SOL    HW142183  12.489  11.783   1.012  0.0720  0.5889 -0.7532
11711SOL    HW242184  12.459  11.701   1.136  0.3956 -0.4638 -1.3545
11712SOL     OW42185   7.651   1.746   5.432  0.1542  0.1980 -0.3311
11712SOL    HW142186   7.739   1.785   5.437  0.2522 -0.0030 -0.4646
11712SOL    HW242187   7.667   1.651   5.430 -0.0741  0.1555 -0.1831
11713SOL     OW42188  11.116   8.295   4.943 -0.3437 -0.0591  0.4330
11713SOL    HW142189  11.155   8.369   4.989  2.9432 -2.2605  1.5363
11713SOL    HW242190  11.162   8.218   4.977 -1.3678 -2.3666 -2.8486
11714SOL     OW42191   9.871   5.121  11.293 -0.4939  0.3900 -0.3324
11714SOL    HW142192   9.964   5.144  11.291  0.1517 -1.8114  1.0991
11714SOL    HW242193   9.836   5.170  11.367  0.0374 -0.3727  0.4439
11715SOL     OW42194   8.462   5.597  10.489  0.1531  0.5573 -0.2622
11715SOL    HW142195   8.478   5.663  10.557  1.4591 -0.9930  1.0198
11715SOL    HW242196   8.543   5.596  10.438 -0.1797  0.5141 -0.7954
11716SOL     OW42197   6.778   6.497   2.298 -0.6113 -0.6932  1.0517
11716SOL    HW142198   6.691   6.521   2.328 -2.4951 -1.3828 -3.1449
11716SOL    HW242199   6.780   6.402   2.302 -0.4094 -0.7255  0.2911
11717SOL     OW42200   3.985  11.357  12.524  0.3013 -0.2151  0.0932
11717SOL    HW142201   4.073  11.370  12.559  0.4309  0.1273 -0.3492
11717SOL    HW242202   3.934  11.429  12.561  0.3069 -0.1724  0.0183
11718SOL     OW42203   7.543   8.108   8.177  0.5484  0.2947  0.4904
11718SOL    HW142204   7.625   8.059   8.174  0.9273  0.9749 -1.0369
11718SOL    HW242205   7.558   8.184   8.121 -0.9542  0.7004  0.5959
11719SOL     OW42206  10.689   5.864   5.699 -0.2089 -0.1614 -0.2239
11719SOL    HW142207  10.631   5.937   5.718  0.6955  0.3848  0.5486
11719SOL    HW242208  10.770   5.905   5.669 -0.0174 -0.8852 -0.7254
11720SOL     OW42209   4.015  12.491  10.971 -0.4695 -0.6201  0.2519
11720SOL    HW142210   3.973  12.428  11.030  0.4229 -0.7148  0.7992
11720SOL    HW242211   4.107  12.492  10.998 -0.4088  0.7010  0.0688
11721SOL     OW42212   0.726   5.917   9.753  0.5238  0.0204  0.0402
11721SOL    HW142213   0.737   5.828   9.720  0.9319  0.6108 -1.4801
11721SOL    HW242214   0.690   5.967   9.680 -0.7084  0.8967  1.1897
11722SOL     OW42215   9.152   6.630   0.791 -0.0040  0.1779 -0.0328
11722SOL    HW142216   9.128   6.599   0.878 -0.9062 -0.3879 -0.4729
11722SOL    HW242217   9.191   6.716   0.806  0.3252 -0.1344  0.9736
11723SOL     OW42218   9.249   9.601   4.614  0.7004  0.4224 -0.1139
11723SOL    HW142219   9.206   9.667   4.668 -0.9416  0.0225 -0.8914
11723SOL    HW242220   9.340   9.601   4.645  0.8576  3.2724 -0.3401
11724SOL     OW42221  11.252   7.809   9.788 -0.3886  0.0019 -0.5959
11724SOL    HW142222  11.223   7.804   9.879 -1.1626  1.6389 -0.7176
11724SOL    HW242223  11.206   7.884   9.752  1.6939  0.8368 -1.6874
11725SOL     OW42224   5.990   9.697   7.742  0.1187 -0.1584 -0.3941
11725SOL    HW142225   6.040   9.644   7.804 -0.1167  2.3447  2.1515
11725SOL    HW242226   6.053   9.764   7.713 -0.8601  1.1747  0.4502
11726SOL     OW42227   5.750  11.616  11.561 -0.4408  0.0522  0.3948
11726SOL    HW142228   5.740  11.604  11.656  1.9447 -2.9581  0.4395
11726SOL    HW242229   5.665  11.593  11.525 -0.3833 -2.5016  1.6750
11727SOL     OW42230  11.653   9.727   6.845  0.1506 -0.3760  0.0260
11727SOL    HW142231  11.624   9.660   6.783  1.8582  0.1431 -1.4159
11727SOL    HW242232  11.578   9.785   6.854 -0.3726 -0.8558 -1.0208
11728SOL     OW42233   6.393   1.538   0.895  0.1847 -0.2807  0.3279
11728SOL    HW142234   6.336   1.462   0.907 -1.6740  1.0280  0.2302
11728SOL    HW242235   6.380   1.590   0.974 -1.7630  1.8585 -1.2435
11729SOL     OW42236   8.362  11.541   7.628  0.5839 -0.0663  0.4199
11729SOL    HW142237   8.313  11.579   7.555 -0.4677  0.9023  1.5855
11729SOL    HW242238   8.452  11.536   7.597 -0.0088 -0.6848 -1.3219
11730SOL     OW42239   2.879   4.688   1.788 -0.3960  0.7740  0.3571
11730SOL    HW142240   2.852   4.732   1.707 -0.9482  0.2697  0.2681
11730SOL    HW242241   2.959   4.735   1.814 -1.3727  2.3467  0.6709
11731SOL     OW42242   8.577   1.789   0.364 -0.1717 -0.0504  0.3733
11731SOL    HW142243   8.587   1.857   0.431  0.2822 -0.5478  0.8168
11731SOL    HW242244   8.666   1.755   0.351 -0.2064  0.2273 -0.6842
11732SOL     OW42245   7.243  10.647   4.687 -0.3452  0.0444 -0.1261
11732SOL    HW142246   7.216  10.656   4.595 -1.3356 -1.3043 -0.0030
11732SOL    HW242247   7.162  10.661   4.737  0.1546  0.6120  0.5376
11733SOL     OW42248  11.402   1.568   8.190  0.1258  0.3164  0.1492
11733SOL    HW142249  11.412   1.498   8.126  0.8913 -0.2066  0.8262
11733SOL    HW242250  11.425   1.648   8.142  0.2117 -0.0099 -0.3585
11734SOL     OW42251   0.628   0.710  11.544  0.0346 -0.4467  0.6874
11734SOL    HW142252   0.687   0.635  11.539  0.1827 -0.2992  0.1080
11734SOL    HW242253   0.687   0.786  11.552 -0.1286 -0.4461  2.1810
11735SOL     OW42254   1.561   8.130  10.917 -0.1807  0.4225 -0.2421
11735SOL    HW142255   1.512   8.127  10.999 -0.8556  0.4457 -0.6351
11735SOL    HW242256   1.639   8.182  10.937  0.6565 -1.1796  0.9053
11736SOL     OW42257  11.535   9.179  10.237  1.0840  0.1474 -0.0789
11736SOL    HW142258  11.559   9.086  10.238 -1.7849 -0.7137  1.9546
11736SOL    HW242259  11.612   9.224  10.272  2.9632 -1.2364 -2.1497
11737SOL     OW42260  11.308   8.244   4.250  0.0510 -0.2020  0.3220
11737SOL    HW142261  11.229   8.230   4.303 -0.1564  1.1591  0.4220
11737SOL    HW242262  11.275   8.256   4.161  0.1379  0.2899  0.3515
11738SOL     OW42263   7.318  10.748   6.050  0.0566  0.2708  0.0583
11738SOL    HW142264   7.386  10.711   5.994  0.1216 -0.7128  0.7733
11738SOL    HW242265   7.236  10.729   6.004  0.1946  0.6341 -0.3440
11739SOL     OW42266   0.897   4.465   8.656  0.2043 -0.2231 -0.2118
11739SOL    HW142267   0.887   4.560   8.645 -1.0405  0.1848  3.2000
11739SOL    HW242268   0.807   4.431   8.651  0.3693 -0.8632  0.9483
11740SOL     OW42269   1.755   0.818   7.196  0.4002  0.5458  0.1350
11740SOL    HW142270   1.782   0.798   7.286  1.2907  0.9668 -0.0309
11740SOL    HW242271   1.683   0.881   7.206 -0.2582 -0.2519  0.5715
11741SOL     OW42272   9.595   5.392   5.847  0.2995  0.3108 -0.0616
11741SOL    HW142273   9.624   5.464   5.903  0.9410 -0.6927  0.9371
11741SOL    HW242274   9.507   5.371   5.879  0.7988 -0.4935  0.8587
11742SOL     OW42275   8.225   2.980   1.064 -0.0139 -0.5752 -0.2090
11742SOL    HW142276   8.205   2.998   1.156  0.7559 -1.4820  0.1601
11742SOL    HW242277   8.320   2.963   1.064  0.0410 -0.3073 -1.2176
11743SOL     OW42278   1.296  11.042   8.004 -0.0244 -0.2220 -0.1334
11743SOL    HW142279   1.248  11.003   7.930  2.0388 -2.7240 -0.3072
11743SOL    HW242280   1.235  11.036   8.078 -0.8838 -0.9607 -0.8725
11744SOL     OW42281   8.787   5.716   9.547  0.1540 -0.0196 -0.3560
11744SOL    HW142282   8.776   5.758   9.633 -0.9765 -0.3756 -0.3062
11744SOL    HW242283   8.825   5.631   9.567  0.1592  0.0117 -0.2270
11745SOL     OW42284  11.900   8.185   8.837  0.4525 -0.7612 -0.0029
11745SOL    HW142285  11.892   8.257   8.899 -0.5259 -1.2491  0.4597
11745SOL    HW242286  11.936   8.225   8.757  1.9417 -0.1616  0.9200
11746SOL     OW42287   7.951  12.333   2.171 -0.0433 -0.2202 -0.0455
11746SOL    HW142288   7.897  12.407   2.202 -0.5264 -0.0623 -1.2183
11746SOL    HW242289   7.901  12.256   2.198 -0.1405 -0.1030  0.1234
11747SOL     OW42290   9.388   2.125  10.977  0.5811 -0.1130  0.7359
11747SOL    HW142291   9.298   2.101  11.000 -0.0445  1.1520 -0.2305
11747SOL    HW242292   9.400   2.211  11.018  1.1899 -0.0730  0.4743
11748SOL     OW42293   1.888   5.205  12.245 -0.4695 -0.0123  0.2978
11748SOL    HW142294   1.975   5.187  12.210 -0.7300  0.0420 -0.3798
11748SOL    HW242295   1.843   5.251  12.175 -0.5816  1.2211  1.1600
11749SOL     OW42296  10.189   6.373  11.853  0.1088 -0.1556 -0.0408
11749SOL    HW142297  10.261   6.410  11.903 -0.3855  1.3493 -0.3660
11749SOL    HW242298  10.110   6.399  11.902 -0.2417 -1.3676  0.0631
11750SOL     OW42299   6.064   2.071  11.585  0.3919 -0.2711 -0.1935
11750SOL    HW142300   6.138   2.115  11.544  0.4689 -0.3337 -0.1203
11750SOL    HW242301   6.070   1.980  11.556  1.4473 -0.7221  1.3367
11751SOL     OW42302   3.442  10.833  12.137 -0.1677  0.1548  0.4967
11751SOL    HW142303   3.480  10.865  12.219 -1.0143  0.5329  0.7505
11751SOL    HW242304   3.460  10.903  12.074  2.8627 -1.2293 -0.3886
11752SOL     OW42305   4.240  11.665   2.869  0.2043 -0.3367 -0.1006
11752SOL    HW142306   4.300  11.736   2.850 -0.8787  1.6743  3.1100
11752SOL    HW242307   4.155  11.694   2.835 -0.8262  1.3727  3.4276
11753SOL     OW42308  12.386  10.065   1.271  0.2194 -0.1859  1.0470
11753SOL    HW142309  12.422  10.153   1.284  1.4140 -0.7117  1.4697
11753SOL    HW242310  12.459  10.007   1.290  0.3198 -1.2222 -1.9828
11754SOL     OW42311   1.899   2.117   0.852  0.0093  0.1713  0.5831
11754SOL    HW142312   1.848   2.103   0.931 -2.6733 -2.3513 -1.3689
11754SOL    HW242313   1.989   2.097   0.877 -0.8615 -1.2418  2.8342
11755SOL     OW42314   8.118   6.878   6.440  0.4656 -0.1360  0.2431
11755SOL    HW142315   8.060   6.807   6.411 -0.1011 -0.2489  1.5940
11755SOL    HW242316   8.188   6.879   6.375 -0.2230 -1.0452 -0.5469
11756SOL     OW42317   8.465   9.031   1.282 -0.1608  0.1247 -0.0631
11756SOL    HW142318   8.465   8.983   1.365 -2.1098  2.1014  1.1787
11756SOL    HW242319   8.377   9.068   1.275  0.4878  1.4368 -2.1746
11757SOL     OW42320   6.880   1.642   8.786 -0.5124 -0.3143 -0.3763
11757SOL    HW142321   6.934   1.665   8.710  1.8871 -1.3465  0.8716
11757SOL    HW242322   6.881   1.546   8.787 -0.2909 -0.3226  1.0325
11758SOL     OW42323  10.628   1.098  11.581  0.2721  0.1383 -0.2392
11758SOL    HW142324  10.686   1.172  11.601 -1.5161  1.2813  1.0324
11758SOL    HW242325  10.540   1.134  11.590 -0.6625 -2.1275  0.2788
11759SOL     OW42326   7.831  12.471   5.800  0.0492 -0.2794  0.2276
11759SOL    HW142327   7.869  12.501   5.882  1.5290 -0.2747 -0.4182
11759SOL    HW242328   7.762  12.535   5.781 -0.3511 -0.3146  1.4770
11760SOL     OW42329   9.206   9.653   1.193  0.3132  0.5199 -0.0158
11760SOL    HW142330   9.114   9.675   1.177 -0.1199  0.2043  1.8233
11760SOL    HW242331   9.203   9.563   1.225  1.0592  1.0954  1.7640
11761SOL     OW42332  11.268   4.850   4.926 -0.6623  0.1731  0.4632
11761SOL    HW142333  11.298   4.929   4.971  0.9759 -0.8894  1.3359
11761SOL    HW242334  11.236   4.793   4.996  1.2334 -1.2110  0.2726
11762SOL     OW42335   6.225   3.660   5.422 -0.1570  0.4829  0.2594
11762SOL    HW142336   6.137   3.645   5.457 -0.4116  1.6668  0.1601
11762SOL    HW242337   6.220   3.746   5.380  1.1171  0.6722  0.4625
11763SOL     OW42338  11.539   1.196   1.474  0.8008 -0.3951 -0.1973
11763SOL    HW142339  11.532   1.213   1.380 -1.2906  1.1152  0.1568
11763SOL    HW242340  11.559   1.281   1.513  1.7886 -1.0265  0.7551
11764SOL     OW42341  11.220   7.483   5.198  0.2066 -0.3254  1.3947
11764SOL    HW142342  11.181   7.561   5.237 -1.4461 -1.5997  2.4322
11764SOL    HW242343  11.147   7.421   5.191  1.6979 -2.1953  1.6854
11765SOL     OW42344   5.651  12.464   4.924  0.0618  0.6203 -0.6280
11765SOL    HW142345   5.672  12.383   4.970 -1.9714  0.1501 -0.4247
11765SOL    HW242346   5.607  12.435   4.844  0.7259  1.5126 -1.3449
11766SOL     OW42347   0.394   1.031   2.550  0.3210  0.5332  0.3032
11766SOL    HW142348   0.331   1.089   2.508  0.0850 -0.4379 -0.7226
11766SOL    HW242349   0.477   1.048   2.506  0.2027 -0.0465 -0.1628
11767SOL     OW42350   2.369  10.418   8.717 -0.1949 -0.0036 -0.0841
11767SOL    HW142351   2.447  10.385   8.674 -0.8515 -0.1147 -1.2508
11767SOL    HW242352   2.306  10.346   8.711 -0.7826  0.5153 -0.2893
11768SOL     OW42353   1.744   4.409   8.815 -0.9222  0.1668 -0.2761
11768SOL    HW142354   1.694   4.437   8.739 -1.0099 -1.1962 -0.7595
11768SOL    HW242355   1.737   4.313   8.814 -1.7977  0.1329  2.0397
11769SOL     OW42356   7.603   9.243   2.323  0.2192 -0.5929  0.5766
11769SOL    HW142357   7.606   9.153   2.356 -0.6093 -0.8470 -0.0250
11769SOL    HW242358   7.650   9.240   2.240 -0.3466 -0.6112  0.2508
11770SOL     OW42359   1.677   5.784   8.853 -0.7898 -0.0842  1.0667
11770SOL    HW142360   1.725   5.734   8.786 -2.1474 -0.8144  0.6009
11770SOL    HW242361   1.643   5.860   8.806  0.6091  0.8993  1.5974
11771SOL     OW42362   1.631   3.464   7.992 -0.2973 -0.0646 -0.3440
11771SOL    HW142363   1.552   3.417   7.966 -0.4213  0.4766 -0.9996
11771SOL    HW242364   1.669   3.494   7.909  1.5421 -1.7778 -0.1992
11772SOL     OW42365   8.490  11.439   2.560 -0.0949 -0.2115 -0.0312
11772SOL    HW142366   8.421  11.380   2.529  0.6735 -0.8042 -0.6343
11772SOL    HW242367   8.484  11.434   2.655  0.1691 -1.5242 -0.0697
11773SOL     OW42368   2.292  11.718   3.946 -0.3286 -0.9098 -0.4564
11773SOL    HW142369   2.368  11.771   3.971 -0.3204 -0.6113 -1.1013
11773SOL    HW242370   2.225  11.740   4.011  0.0557 -1.0079 -0.0151
11774SOL     OW42371  11.800   9.292   5.888  0.1366  0.2843  0.3206
11774SOL    HW142372  11.814   9.295   5.793 -2.3251  2.7423 -0.0995
11774SOL    HW242373  11.714   9.253   5.898  0.2811  0.2431  1.5422
11775SOL     OW42374  10.712   5.154   4.864  0.2530  0.4749  0.4144
11775SOL    HW142375  10.645   5.214   4.830  2.1473  2.7562  0.4763
11775SOL    HW242376  10.761   5.126   4.787 -0.9227 -1.5230  0.3177
11776SOL     OW42377   3.819   0.113   8.921  0.0357 -0.0604  0.1646
11776SOL    HW142378   3.778   0.026   8.928  2.9628 -1.7003 -1.0275
11776SOL    HW242379   3.746   0.173   8.911 -2.1545 -2.3568  1.1883
11777SOL     OW42380   0.015   3.489   6.115  0.2816 -0.5318 -0.0009
11777SOL    HW142381   0.102   3.504   6.078  0.0381 -1.1253 -0.8438
11777SOL    HW242382  -0.033   3.570   6.097  0.8403  0.0641  1.0655
11778SOL     OW42383   1.276   6.035   7.461 -0.3281  0.4240  0.2768
11778SOL    HW142384   1.268   5.940   7.458  1.8248  0.1848  0.8399
11778SOL    HW242385   1.285   6.061   7.369 -0.2672  0.0187  0.1654
11779SOL     OW42386   8.490   4.660   3.283 -0.0080  0.2939 -0.4982
11779SOL    HW142387   8.524   4.728   3.224 -0.1280 -1.0983 -2.2455
11779SOL    HW242388   8.486   4.703   3.368  0.7638  2.2090 -1.3598
11780SOL     OW42389   6.492   4.306   0.106 -0.1175  0.3512  0.1878
11780SOL    HW142390   6.398   4.298   0.118 -0.3062  1.9908  0.0365
11780SOL    HW242391   6.502   4.380   0.045  1.2722  0.5965  0.6802
11781SOL     OW42392   8.296   5.932   8.722 -0.3451 -0.2716  0.4792
11781SOL    HW142393   8.365   5.989   8.688 -0.7664  0.3366  0.6217
11781SOL    HW242394   8.287   5.957   8.814 -0.7135 -0.3818  0.4767
11782SOL     OW42395   5.027   6.285  12.553  0.7587  0.0067  0.1021
11782SOL    HW142396   5.054   6.376  12.544  2.0750 -0.4260 -0.5080
11782SOL    HW242397   5.063   6.258  12.637 -1.2382  0.5579  1.1965
11783SOL     OW42398   4.561   1.118   6.095 -0.4052  0.5609  0.0009
11783SOL    HW142399   4.495   1.185   6.110 -2.2106 -1.2155  0.3725
11783SOL    HW242400   4.623   1.159   6.034 -1.9994  2.1789 -0.6295
11784SOL     OW42401  11.461   1.956   1.940  0.3416 -0.2195  0.3261
11784SOL    HW142402  11.436   2.011   2.014 -0.2382  1.2119 -0.8793
11784SOL    HW242403  11.500   1.878   1.980 -0.8632  0.0463  2.1433
11785SOL     OW42404  12.476  11.854  10.762  0.3340  0.4623  0.2458
11785SOL    HW142405  12.571  11.868  10.759  0.5113 -0.3836  1.2760
11785SOL    HW242406  12.452  11.871  10.853 -0.3976  0.0898  0.1287
11786SOL     OW42407   2.993  10.414   7.506  0.3113 -0.4843 -0.2941
11786SOL    HW142408   2.987  10.459   7.422  1.1598  1.0039  0.3913
11786SOL    HW242409   2.967  10.480   7.570  2.8552 -0.4851  0.8707
11787SOL     OW42410   2.785   5.582   1.183  0.2892 -0.1024 -0.2549
11787SOL    HW142411   2.764   5.489   1.177 -0.8136 -0.0658  2.1811
11787SOL    HW242412   2.869   5.585   1.229  0.7229  0.1050 -1.0426
11788SOL     OW42413   5.665   0.009  10.742  0.3483 -0.0448  0.3343
11788SOL    HW142414   5.681   0.002  10.836 -1.3339  0.8463  0.7322
11788SOL    HW242415   5.626   0.096  10.732 -0.0838 -0.3866 -1.0942
11789SOL     OW42416   4.691   8.635   0.595 -0.3912 -0.0774 -0.0803
11789SOL    HW142417   4.671   8.582   0.672 -1.6622  0.0950 -0.2839
11789SOL    HW242418   4.773   8.680   0.618  0.1378 -1.2984  0.5063
11790SOL     OW42419   2.252   4.737   4.330 -0.1683  0.0437 -0.1957
11790SOL    HW142420   2.314   4.743   4.257  0.9730  1.6446  0.8371
11790SOL    HW242421   2.269   4.815   4.383  0.6820 -2.1411  3.0668
11791SOL     OW42422   2.927   7.953   7.224  0.9352  0.3708  0.2150
11791SOL    HW142423   2.913   8.005   7.303  1.0103 -1.8856  1.8017
11791SOL    HW242424   2.981   8.009   7.168 -1.2432  3.0704  0.5625
11792SOL     OW42425   9.923   7.985   6.489  0.4226  0.0178 -0.1544
11792SOL    HW142426   9.877   7.921   6.542  0.0158 -0.2415 -0.8044
11792SOL    HW242427   9.936   7.942   6.405  1.8467  0.0863  0.0010
11793SOL     OW42428   9.730   8.152   4.208  0.4601  0.3142  0.0157
11793SOL    HW142429   9.639   8.125   4.216 -0.0100  2.1617  1.6103
11793SOL    HW242430   9.778   8.092   4.266  0.1193  0.0472  0.0256
11794SOL     OW42431   1.347  11.937   9.235 -0.1802 -0.5962  0.6843
11794SOL    HW142432   1.373  12.029   9.233 -0.0937 -0.6326 -1.0225
11794SOL    HW242433   1.265  11.934   9.186  0.7379 -1.6754 -0.8613
11795SOL     OW42434   3.967   3.286   1.274 -0.1457  0.1158 -0.1448
11795SOL    HW142435   3.993   3.330   1.355 -1.4744  0.3515  0.1799
11795SOL    HW242436   4.043   3.232   1.251  0.8755  1.2744  0.3619
11796SOL     OW42437  12.034  10.520   2.916 -0.4619  0.1602 -0.0871
11796SOL    HW142438  11.971  10.530   2.845 -0.0200  1.0355 -0.3728
11796SOL    HW242439  12.120  10.527   2.873 -0.1497 -1.1089  0.2744
11797SOL     OW42440   9.451   8.608   7.465  0.4938 -0.0065 -0.2279
11797SOL    HW142441   9.362   8.579   7.485  0.4802  0.4724  0.4418
11797SOL    HW242442   9.508   8.550   7.517  0.4810  0.9086  0.8404
11798SOL     OW42443   1.492   0.002   6.675  0.1278 -0.0852  0.3262
11798SOL    HW142444   1.581   0.038   6.679 -0.6297  2.1867 -0.9802
11798SOL    HW242445   1.496  -0.080   6.724  2.8866  0.0348  0.4274
11799SOL     OW42446   3.510   6.989  11.349  0.6178  0.3703 -0.3914
11799SOL    HW142447   3.567   6.920  11.315  2.3386  0.6766  1.6673
11799SOL    HW242448   3.460   6.948  11.419 -0.6810  0.4881 -1.2009
11800SOL     OW42449   9.101   0.564   0.347 -0.2016  0.2789 -0.7900
11800SOL    HW142450   9.125   0.646   0.304 -0.1877  1.1420  0.7711
11800SOL    HW242451   9.177   0.542   0.401 -0.1978 -0.7868 -1.2110
11801SOL     OW42452   4.427   9.415   4.505 -0.6332 -0.0931 -0.0311
11801SOL    HW142453   4.440   9.401   4.411 -1.3708 -0.4232 -0.0896
11801SOL    HW242454   4.382   9.337   4.535  0.3625 -0.3748  0.7814
11802SOL     OW42455   2.996   7.917   5.673  0.0830 -0.7904 -1.4766
11802SOL    HW142456   2.904   7.939   5.686  0.5868 -0.0629  1.4743
11802SOL    HW242457   3.004   7.900   5.579 -3.1709 -1.5445 -1.7112
11803SOL     OW42458   2.374  11.150  10.413 -0.4653 -0.0692 -0.2877
11803SOL    HW142459   2.328  11.188  10.338  1.3693  3.0109 -0.0122
11803SOL    HW242460   2.372  11.056  10.396 -2.4884  0.2951 -2.7682
11804SOL     OW42461   1.142   8.344  11.034  0.6720 -0.9412  0.1149
11804SOL    HW142462   1.077   8.275  11.020  0.5658 -0.8441  0.1284
11804SOL    HW242463   1.192   8.347  10.953  0.0048 -0.3229 -0.2869
11805SOL     OW42464   3.532   0.533   1.801  0.1499 -0.0614  0.3074
11805SOL    HW142465   3.494   0.621   1.808 -0.3740 -0.3729  1.9576
11805SOL    HW242466   3.464   0.481   1.758  0.4263  0.3011 -0.5933
11806SOL     OW42467   5.932   2.824   0.641 -0.0237 -0.1984  0.1450
11806SOL    HW142468   5.931   2.857   0.731 -0.6200 -1.0202  0.4467
11806SOL    HW242469   5.961   2.898   0.588 -2.0482  1.0487  0.7040
11807SOL     OW42470  12.394   6.938   3.433 -0.0692 -0.2326 -0.6330
11807SOL    HW142471  12.440   6.890   3.501  0.3169  1.4612  0.3732
11807SOL    HW242472  12.444   6.920   3.353  1.0072 -0.2362  0.0170
11808SOL     OW42473  11.398  10.332   3.722 -0.0537 -0.3390  0.6474
11808SOL    HW142474  11.419  10.417   3.685  1.1577 -0.9628 -0.1439
11808SOL    HW242475  11.463  10.317   3.790 -1.5307  0.2584  2.2734
11809SOL     OW42476   2.059   5.765  12.230  0.6017  0.0605  0.4023
11809SOL    HW142477   2.140   5.794  12.271  0.3301  1.1839  0.1857
11809SOL    HW242478   2.029   5.841  12.180  0.6430 -1.0799 -1.4365
11810SOL     OW42479   7.731   5.279  11.756 -0.5104 -0.3597  0.3453
11810SOL    HW142480   7.664   5.249  11.818 -0.9710  0.4235  0.2453
11810SOL    HW242481   7.743   5.372  11.778  0.2696 -0.4025  0.1073
11811SOL     OW42482   9.547   4.138   9.500  0.0990 -0.3537 -0.0481
11811SOL    HW142483   9.573   4.210   9.559 -0.3382  0.1037 -0.4037
11811SOL    HW242484   9.520   4.182   9.420  0.4763 -0.9647 -0.5170
11812SOL     OW42485   0.810   6.405   7.980 -0.2494  0.4027 -0.3861
11812SOL    HW142486   0.717   6.383   7.967 -0.7060  0.8163  1.8142
11812SOL    HW242487   0.845   6.414   7.891 -1.8220 -1.7179 -1.3112
11813SOL     OW42488   5.580   5.570   0.102  0.2605  0.1298  0.5251
11813SOL    HW142489   5.665   5.580   0.060 -0.3578 -1.1035 -1.1682
11813SOL    HW242490   5.577   5.639   0.169  3.4359 -1.1725  2.1978
11814SOL     OW42491   4.062   7.072   7.396 -0.4660 -0.1463 -0.0129
11814SOL    HW142492   4.145   7.030   7.374 -1.2002 -0.6866 -2.0184
11814SOL    HW242493   3.997   7.003   7.389 -1.3564  0.7206 -0.6758
11815SOL     OW42494   3.553   0.138  11.314  0.1761  0.0626  0.5609
11815SOL    HW142495   3.462   0.147  11.343 -0.1637 -1.9538  0.2361
11815SOL    HW242496   3.592   0.077  11.376  1.6426  1.6574  1.2973
11816SOL     OW42497   3.254   9.348   0.562  0.9816  0.5058 -0.0364
11816SOL    HW142498   3.259   9.300   0.644 -0.9211  0.6080  0.1785
11816SOL    HW242499   3.326   9.313   0.509  0.0727 -2.1006  0.3520
11817SOL     OW42500   4.915   4.071   2.747 -0.1345 -0.6434  0.5467
11817SOL    HW142501   4.851   4.003   2.767 -0.9463  0.5218  2.0753
11817SOL    HW242502   4.865   4.153   2.747  0.8686  0.0205 -0.9648
11818SOL     OW42503   8.285  10.102   7.872 -0.4702  0.7894 -0.1552
11818SOL    HW142504   8.293  10.008   7.890 -2.7177  0.4369 -0.7538
11818SOL    HW242505   8.208  10.110   7.816  0.9929  2.7929 -2.0726
11819SOL     OW42506   2.412   6.775   1.697  0.2950  0.4252 -0.3817
11819SOL    HW142507   2.444   6.710   1.760 -1.7510  0.9433  1.3278
11819SOL    HW242508   2.453   6.857   1.725  1.6320  0.2030 -1.5655
11820SOL     OW42509   3.236   7.369   8.177 -0.4092 -0.4656  0.4738
11820SOL    HW142510   3.196   7.283   8.187 -1.1590 -0.4138 -1.6773
11820SOL    HW242511   3.173   7.420   8.126  0.8121  0.7902  0.1373
11821SOL     OW42512   0.974   0.534  11.818  0.0905  0.3437  0.1423
11821SOL    HW142513   0.940   0.509  11.732  0.1233 -1.2666  0.5633
11821SOL    HW242514   0.898   0.568  11.864 -0.8890 -2.4279  0.7770
11822SOL     OW42515   6.686   4.563   4.947  0.0575  0.5855  0.1457
11822SOL    HW142516   6.728   4.564   4.861 -0.6653  0.7965 -0.2184
11822SOL    HW242517   6.677   4.470   4.968  0.3936  0.5356  0.0660
11823SOL     OW42518  10.761   1.569   1.895 -0.0301  0.1103  0.2539
11823SOL    HW142519  10.688   1.630   1.882  1.1554  1.6076  0.3412
11823SOL    HW242520  10.815   1.611   1.962  1.4228 -0.4859 -0.5167
11824SOL     OW42521   6.320   6.022  11.477 -0.1136  0.3717 -0.4244
11824SOL    HW142522   6.306   5.980  11.392  2.1612  0.3085 -0.8267
11824SOL    HW242523   6.330   6.115  11.458  0.9800  0.2888 -0.3344
11825SOL     OW42524   0.463   8.809   4.724 -0.1237 -0.3707  0.2457
11825SOL    HW142525   0.462   8.729   4.671  1.8974 -1.1751  1.3388
11825SOL    HW242526   0.467   8.778   4.814  2.1423  0.9091  0.6551
11826SOL     OW42527   6.267   3.542  12.512 -0.1894 -0.5268 -0.4920
11826SOL    HW142528   6.239   3.452  12.525 -2.6714  0.1520 -0.4986
11826SOL    HW242529   6.244   3.586  12.594 -0.5901  0.4149 -1.0858
11827SOL     OW42530  10.069  11.386   7.927 -0.3803  0.1961 -0.4240
11827SOL    HW142531  10.007  11.412   7.995 -1.7625  2.6898 -2.5092
11827SOL    HW242532  10.152  11.378   7.974 -1.5031  0.4884  1.7813
11828SOL     OW42533   2.435   1.373   8.463  0.7042 -0.2211 -0.9544
11828SOL    HW142534   2.411   1.460   8.431 -1.6086 -0.3261  0.2461
11828SOL    HW242535   2.448   1.385   8.557 -0.5480 -1.2859 -0.6118
11829SOL     OW42536   9.743   0.425   8.836 -0.1277 -0.1597  0.0541
11829SOL    HW142537   9.705   0.344   8.870 -1.3931  0.7842  0.9669
11829SOL    HW242538   9.818   0.443   8.893 -0.0413 -0.5098  0.0497
11830SOL     OW42539   7.781   4.588   0.817  0.0033 -0.0702 -0.2328
11830SOL    HW142540   7.876   4.580   0.815  0.0496  0.4619 -0.5836
11830SOL    HW242541   7.749   4.517   0.762  0.3262  1.2815 -2.2750
11831SOL     OW42542   1.026   0.086   9.583 -0.1360 -0.1280  0.3910
11831SOL    HW142543   0.931   0.083   9.591 -0.5621  1.2536 -2.7004
11831SOL    HW242544   1.051   0.000   9.549 -0.4516 -0.0723  0.0183
11832SOL     OW42545   6.988   9.802   2.567  0.3124 -0.0136 -0.1565
11832SOL    HW142546   7.030   9.884   2.538 -0.2524 -0.0328 -1.0776
11832SOL    HW242547   6.960   9.760   2.485 -3.0083  0.7816  0.4215
11833SOL     OW42548   3.454   8.096   4.436 -0.0329 -0.0300 -0.1911
11833SOL    HW142549   3.459   8.002   4.451 -0.4815  0.0984  0.9001
11833SOL    HW242550   3.378   8.124   4.487 -1.1511  0.6313 -2.1057
11834SOL     OW42551  10.488   8.442   4.473  0.2204 -0.1084  0.9191
11834SOL    HW142552  10.398   8.429   4.503 -0.0806 -1.7437 -0.5594
11834SOL    HW242553  10.525   8.354   4.465  0.6948  0.2439 -2.0921
11835SOL     OW42554   1.997   3.794  12.400 -0.2227  0.2809 -0.0846
11835SOL    HW142555   1.954   3.766  12.481  2.4916 -0.4337  1.2301
11835SOL    HW242556   2.057   3.722  12.378  0.6295  1.3700 -1.5334
11836SOL     OW42557  11.290  10.145   4.300  0.3008  0.2061 -0.1621
11836SOL    HW142558  11.279  10.123   4.208 -0.3220 -1.3936  0.2636
11836SOL    HW242559  11.365  10.093   4.329 -0.4625 -0.5121  0.5866
11837SOL     OW42560   8.092   2.574   2.049 -0.5225  0.6624  0.1432
11837SOL    HW142561   8.138   2.611   1.974  0.6236  1.0824  1.0225
11837SOL    HW242562   8.025   2.639   2.072  0.5444  1.5714  0.7948
11838SOL     OW42563   9.561   0.351  10.077 -0.0729  0.9282 -0.2445
11838SOL    HW142564   9.524   0.263  10.068 -0.3261  1.1390 -1.4996
11838SOL    HW242565   9.655   0.338  10.076 -0.1115  0.6154  0.1896
11839SOL     OW42566   8.230  11.720  11.376  0.3693 -0.0627  0.3236
11839SOL    HW142567   8.314  11.674  11.376 -0.1626 -1.1148  1.6822
11839SOL    HW242568   8.192  11.701  11.290  1.8337  1.0907 -0.6226
11840SOL     OW42569   4.989  10.427   3.506 -0.6682 -0.3900 -0.1727
11840SOL    HW142570   4.938  10.409   3.585  0.0429 -1.4441  0.0771
11840SOL    HW242571   5.075  10.453   3.538 -0.9418  1.1522 -0.5952
11841SOL     OW42572   9.482   1.128   2.274  0.0691  0.4292  0.2924
11841SOL    HW142573   9.497   1.057   2.212  0.0807  1.6281 -1.1456
11841SOL    HW242574   9.535   1.201   2.240  0.6827  0.9067  2.1526
11842SOL     OW42575   1.023   8.149   0.669 -0.3468  0.1189  0.2520
11842SOL    HW142576   1.093   8.123   0.609  0.2565  1.4839  0.3360
11842SOL    HW242577   1.065   8.205   0.734 -0.8883 -1.7243  2.3147
11843SOL     OW42578   8.104   6.767   1.546  0.5663  0.1875  0.0263
11843SOL    HW142579   8.112   6.681   1.586 -1.5480 -0.5218 -0.9665
11843SOL    HW242580   8.046   6.816   1.603 -0.0754  0.1737 -0.6032
11844SOL     OW42581   5.957   7.786  12.223  0.1728  0.1341  0.3119
11844SOL    HW142582   6.013   7.711  12.242  1.1594  0.8064  0.1501
11844SOL    HW242583   5.957   7.793  12.128 -0.6051 -0.1673  0.2887
11845SOL     OW42584   0.271   1.560   5.715  0.4440 -0.1901  0.3163
11845SOL    HW142585   0.343   1.543   5.653 -0.1119 -0.0519 -0.3795
11845SOL    HW242586   0.296   1.642   5.759  1.1148 -0.5862  0.6870
11846SOL     OW42587   3.350   9.032   8.257  0.4674  0.5768  0.0855
11846SOL    HW142588   3.257   9.021   8.238  0.7583  1.0561 -1.8081
11846SOL    HW242589   3.364   9.127   8.253  0.7934  0.6319  1.7569
11847SOL     OW42590  10.933  11.337   2.098 -0.5244 -0.1156 -0.5747
11847SOL    HW142591  11.017  11.361   2.059 -0.1758  2.1531  1.3396
11847SOL    HW242592  10.940  11.243   2.113  1.6992  0.0038 -0.4581
11848SOL     OW42593   4.770   2.317   8.657 -0.6237  0.0892 -0.2539
11848SOL    HW142594   4.698   2.312   8.595  0.2499  1.2837 -1.4221
11848SOL    HW242595   4.751   2.397   8.708 -0.7454 -0.2619  0.2573
11849SOL     OW42596   4.962  10.441   0.595 -0.0482  0.0139  0.0630
11849SOL    HW142597   5.001  10.528   0.598 -1.7909  0.9283 -1.5176
11849SOL    HW242598   5.036  10.381   0.595  1.2192  1.5238  0.1463
11850SOL     OW42599  10.390   5.738   4.504 -0.4559 -0.0017 -0.0480
11850SOL    HW142600  10.431   5.652   4.489  0.4466  0.6256 -1.3222
11850SOL    HW242601  10.357   5.733   4.594  2.6090 -0.5045  1.1933
11851SOL     OW42602   4.471   8.409   6.339 -0.3781  0.5660  0.0330
11851SOL    HW142603   4.430   8.324   6.323 -0.4670  0.7334 -0.6862
11851SOL    HW242604   4.532   8.420   6.266 -0.3747  1.1164  0.1157
11852SOL     OW42605   1.983  12.261  10.728  0.5562 -0.1995  0.0660
11852SOL    HW142606   1.951  12.333  10.675 -1.6695  1.0812  2.8793
11852SOL    HW242607   1.909  12.199  10.731  1.6932 -1.6651 -0.5975
11853SOL     OW42608   1.995   2.999   8.970  0.3357  0.3016  0.0273
11853SOL    HW142609   1.996   2.903   8.972 -2.3241  0.1874 -0.4984
11853SOL    HW242610   1.902   3.022   8.978  0.9826  2.8814  0.9067
11854SOL     OW42611   5.554   8.335   6.597  0.3163 -0.0183 -0.3538
11854SOL    HW142612   5.565   8.421   6.557 -1.3033 -0.4072 -1.7535
11854SOL    HW242613   5.521   8.280   6.526 -0.9201 -1.2209  1.0893
11855SOL     OW42614   8.182   6.757   9.207  0.1747 -0.3453  0.8222
11855SOL    HW142615   8.181   6.714   9.293 -0.9061 -3.3572 -0.5684
11855SOL    HW242616   8.259   6.722   9.163 -0.6180 -0.7337 -0.2932
11856SOL     OW42617   3.182  11.842   4.711  0.9983 -0.0093 -0.6839
11856SOL    HW142618   3.105  11.890   4.741  0.4065  0.2796 -2.5787
11856SOL    HW242619   3.229  11.821   4.792 -0.7106  0.3784  0.4724
11857SOL     OW42620  11.790   3.529   6.162 -0.0068  0.4084 -0.1202
11857SOL    HW142621  11.852   3.564   6.226  2.1537 -3.4379  0.2107
11857SOL    HW242622  11.816   3.569   6.079  1.4669  0.6016  0.4007
11858SOL     OW42623   6.430   9.565   2.202  0.5624 -0.3637 -0.1342
11858SOL    HW142624   6.464   9.518   2.126 -0.1482 -0.9419 -0.1008
11858SOL    HW242625   6.401   9.496   2.262 -1.5311  0.0916 -0.5528
11859SOL     OW42626   6.384  11.091   5.856 -0.2415  0.4856  0.2232
11859SOL    HW142627   6.407  11.000   5.837 -0.6619  0.1018  1.4996
11859SOL    HW242628   6.367  11.093   5.950  0.2479  1.9954  0.3081
11860SOL     OW42629  12.588   5.894   4.986  0.6283  0.1087  0.2414
11860SOL    HW142630  12.582   5.799   4.971  2.9121 -0.2690  1.3325
11860SOL    HW242631  12.638   5.927   4.911 -2.1550  0.9328 -1.4116
11861SOL     OW42632   5.876   1.327   9.595  0.0333  0.1718 -0.3964
11861SOL    HW142633   5.902   1.318   9.504  0.6263 -0.6417 -0.1617
11861SOL    HW242634   5.938   1.272   9.643 -0.8152 -0.1079  0.4059
11862SOL     OW42635  11.688  10.366   5.524 -0.1733 -0.3835 -0.4503
11862SOL    HW142636  11.673  10.458   5.546 -2.7390 -0.9933  0.8244
11862SOL    HW242637  11.700  10.323   5.609 -2.6987 -1.6874 -0.6586
11863SOL     OW42638   4.211   0.490   0.555 -0.2049  0.2917 -0.0248
11863SOL    HW142639   4.165   0.454   0.480  0.1910  0.5650 -0.4065
11863SOL    HW242640   4.192   0.584   0.553 -2.5717 -0.0491  1.8992
11864SOL     OW42641   2.881  12.290  10.889  0.2748  0.1898 -0.6917
11864SOL    HW142642   2.964  12.251  10.917  0.3064 -0.2622 -1.3757
11864SOL    HW242643   2.864  12.359  10.952  1.2773  0.4216 -0.6606
11865SOL     OW42644   8.041  12.094   4.984  0.4430 -0.0731 -0.2054
11865SOL    HW142645   8.113  12.110   4.922  0.4476 -2.2091 -0.8566
11865SOL    HW242646   8.080  12.109   5.070  0.8987  1.3910 -0.6383
11866SOL     OW42647   0.806   2.358   9.476  0.0781  0.3013 -0.1984
11866SOL    HW142648   0.720   2.356   9.518 -0.5032  0.9688 -1.3192
11866SOL    HW242649   0.838   2.268   9.482 -0.7242  0.0341  0.1678
11867SOL     OW42650   9.076   1.730   0.377 -0.0483  0.0623 -0.4448
11867SOL    HW142651   9.124   1.763   0.453 -1.0258 -0.3962  0.4027
11867SOL    HW242652   9.078   1.635   0.388 -3.4819  0.0085  1.2174
11868SOL     OW42653   7.046   3.321   3.746  0.2556  0.3186 -0.4320
11868SOL    HW142654   7.005   3.326   3.832 -0.3097  0.5258 -0.7086
11868SOL    HW242655   7.136   3.293   3.763  0.2149  0.5911  0.2433
11869SOL     OW42656   5.316   0.492   1.154  0.2175 -0.3416  0.5431
11869SOL    HW142657   5.257   0.451   1.217 -0.1031 -0.8115 -0.0455
11869SOL    HW242658   5.348   0.419   1.100  0.0041  0.1165 -0.2283
11870SOL     OW42659   4.070   9.150   2.685  0.3879  0.1106 -0.0259
11870SOL    HW142660   4.155   9.110   2.670  0.3423 -0.0497  0.1348
11870SOL    HW242661   4.077   9.238   2.648  0.1971 -0.3477 -1.1679
11871SOL     OW42662   8.308  10.750   3.643 -0.6872 -0.2620  0.6394
11871SOL    HW142663   8.222  10.745   3.684 -0.6789  0.7903  0.8012
11871SOL    HW242664   8.368  10.719   3.711 -0.8072  0.2463  0.9840
11872SOL     OW42665   8.338   7.990   3.604 -0.2279  0.6384  0.2721
11872SOL    HW142666   8.408   7.926   3.590  1.4054  2.4373 -0.2227
11872SOL    HW242667   8.257   7.942   3.585  0.6094 -2.1069  2.7259
11873SOL     OW42668   6.660   6.190   8.402 -0.7201  0.2849  0.1418
11873SOL    HW142669   6.674   6.115   8.344 -0.7914 -1.7083  2.5451
11873SOL    HW242670   6.737   6.245   8.388 -0.4607 -0.3984 -1.3956
11874SOL     OW42671   8.172   2.655   5.314 -0.0964  0.1085 -0.0812
11874SOL    HW142672   8.090   2.636   5.360  0.2994 -1.0640  0.1997
11874SOL    HW242673   8.170   2.749   5.298 -0.4655  0.5000  1.9486
11875SOL     OW42674   3.746  11.518   6.439 -0.5562  0.8453  0.0383
11875SOL    HW142675   3.674  11.580   6.452 -1.3784  0.1256 -0.9664
11875SOL    HW242676   3.778  11.538   6.351 -0.3337  0.3498  0.0059
11876SOL     OW42677  11.696   8.812   7.276  0.2314  0.6152  0.1592
11876SOL    HW142678  11.649   8.895   7.278 -0.1637  0.4011 -0.1877
11876SOL    HW242679  11.784   8.833   7.308  0.0515  1.1120  0.3301
11877SOL     OW42680  12.451  11.466  11.790  0.1096 -0.0919 -0.0743
11877SOL    HW142681  12.458  11.371  11.782  5.2366 -0.1169  0.9893
11877SOL    HW242682  12.428  11.481  11.881 -0.5236 -0.2763 -0.1989
11878SOL     OW42683   8.393   0.340   7.803 -0.0263  0.3015 -0.7531
11878SOL    HW142684   8.310   0.300   7.828 -1.2806  1.9599 -2.0382
11878SOL    HW242685   8.405   0.314   7.711  1.5807 -0.9935 -0.2269
11879SOL     OW42686  12.321   1.279   9.154  0.6344 -0.2046 -0.4548
11879SOL    HW142687  12.390   1.327   9.200  1.0682  0.1885 -1.4723
11879SOL    HW242688  12.369   1.221   9.095  0.0949 -0.9702 -0.1417
11880SOL     OW42689   5.381   4.683   1.797  0.0478  0.0317  0.1456
11880SOL    HW142690   5.411   4.592   1.807  0.6599  0.0370 -1.3508
11880SOL    HW242691   5.313   4.678   1.730  0.2968  0.7094 -0.1644
11881SOL     OW42692   4.090   0.329   8.470 -0.3956  0.7869  0.0876
11881SOL    HW142693   4.093   0.239   8.502  0.8324  0.7261 -0.1847
11881SOL    HW242694   4.033   0.374   8.533  0.5147  0.2569  1.3312
11882SOL     OW42695   3.273   8.516   5.669 -0.0243  0.3007  0.5564
11882SOL    HW142696   3.362   8.525   5.638 -0.0602 -0.3883  0.2541
11882SOL    HW242697   3.268   8.428   5.705 -0.6379  0.2600  0.3901
11883SOL     OW42698   8.617   7.205   7.089  0.3245  0.0731  0.0052
11883SOL    HW142699   8.621   7.270   7.160 -1.3788  0.0107  0.2089
11883SOL    HW242700   8.534   7.159   7.104  1.3255 -1.9281 -0.3402
11884SOL     OW42701   6.325  10.625   7.828 -0.6461  0.2621 -0.1618
11884SOL    HW142702   6.379  10.627   7.749 -0.8297  1.5266 -0.2682
11884SOL    HW242703   6.313  10.716   7.852 -1.4919 -0.0621  0.7258
11885SOL     OW42704   3.660  10.614   9.195  0.0283  0.5207 -0.1217
11885SOL    HW142705   3.686  10.625   9.287  1.2878  0.4608 -0.4638
11885SOL    HW242706   3.651  10.704   9.162  2.0216  0.5770 -0.6013
11886SOL     OW42707  11.474  10.255   0.554 -0.6181 -0.1222  0.5611
11886SOL    HW142708  11.560  10.258   0.512 -1.1635  1.0645 -0.5525
11886SOL    HW242709  11.477  10.177   0.608  1.3299  0.1410  0.9236
11887SOL     OW42710   3.564   2.749   2.030 -0.3393 -0.0407 -0.4949
11887SOL    HW142711   3.502   2.816   2.059  0.5668  1.1105 -1.1442
11887SOL    HW242712   3.632   2.748   2.097 -0.5350 -0.5874 -0.2981
11888SOL     OW42713   8.625   7.811   3.053  0.1049  0.1856  0.4822
11888SOL    HW142714   8.711   7.794   3.013 -0.5474 -0.9000 -0.5272
11888SOL    HW242715   8.631   7.901   3.084  1.2755  0.4638 -0.4594
11889SOL     OW42716  12.027   8.283   7.476  0.2195 -0.0399 -0.5178
11889SOL    HW142717  12.004   8.203   7.428  3.1169  0.1407 -2.4857
11889SOL    HW242718  12.059   8.253   7.561  1.0152 -0.9970 -1.1368
11890SOL     OW42719  11.539  11.556   2.106  0.6772  0.0506  0.1875
11890SOL    HW142720  11.555  11.482   2.047  0.6277 -0.8892  1.3347
11890SOL    HW242721  11.560  11.523   2.193 -0.6316  0.9755  0.8849
11891SOL     OW42722   4.664   2.639   3.246  0.3804 -0.5878  0.0815
11891SOL    HW142723   4.604   2.569   3.273  0.7021 -0.3993  1.3754
11891SOL    HW242724   4.748   2.594   3.233 -0.0486 -0.8765 -1.8782
11892SOL     OW42725   1.557  10.342   7.385 -0.2069 -0.1782 -0.0842
11892SOL    HW142726   1.567  10.264   7.329  0.5464  0.3654 -0.7377
11892SOL    HW242727   1.532  10.307   7.470  0.5567 -1.1785 -0.2427
11893SOL     OW42728   2.551  12.061   3.108  0.0051 -0.1309 -0.5222
11893SOL    HW142729   2.551  11.979   3.058  0.6927 -1.5002  1.6240
11893SOL    HW242730   2.566  12.034   3.198  2.9145  2.5363 -0.0518
11894SOL     OW42731   2.759  11.232  12.147 -0.7366 -0.1193  0.0765
11894SOL    HW142732   2.750  11.207  12.055 -1.5427  0.9010 -0.1360
11894SOL    HW242733   2.672  11.221  12.184 -0.4349 -0.4443  0.7103
11895SOL     OW42734  11.764   0.745   5.635  0.4131 -0.5404 -0.1759
11895SOL    HW142735  11.860   0.748   5.633  0.4062  0.5530  0.2589
11895SOL    HW242736  11.741   0.671   5.580  1.4875 -0.2832 -0.9985
11896SOL     OW42737   1.914   6.130  11.029  0.0372 -0.3717 -0.5477
11896SOL    HW142738   1.843   6.162  11.085  1.5270  1.5315  0.3721
11896SOL    HW242739   1.961   6.068  11.084  0.2341 -0.1395 -0.4535
11897SOL     OW42740   0.365   7.082  10.547  0.2559  0.5026  0.4025
11897SOL    HW142741   0.391   7.112  10.460  0.4885  0.7801  0.5670
11897SOL    HW242742   0.421   7.131  10.608 -0.8763  1.3675  0.7829
11898SOL     OW42743   4.254   9.551  10.661  0.3981  0.4512 -0.1045
11898SOL    HW142744   4.218   9.593  10.583 -1.3052 -0.6155  0.0504
11898SOL    HW242745   4.231   9.610  10.733  0.2394  0.4911 -0.1864
11899SOL     OW42746   3.001   1.196   3.636 -0.2350 -0.5176  0.1560
11899SOL    HW142747   2.952   1.119   3.608 -1.6728 -0.0679  1.2769
11899SOL    HW242748   2.944   1.270   3.615  0.1496  0.0622  1.0753
11900SOL     OW42749  10.267   5.028   3.627  0.5793  0.3206 -0.1449
11900SOL    HW142750  10.206   5.023   3.701  0.2807 -0.1917 -0.4271
11900SOL    HW242751  10.272   5.122   3.608 -0.0693  0.3753 -0.0784
11901SOL     OW42752   1.689  10.716   0.518  0.4270 -0.2946 -0.1587
11901SOL    HW142753   1.776  10.681   0.501  1.3552  2.0423 -0.5902
11901SOL    HW242754   1.705  10.804   0.552 -1.7824  0.5075 -1.0479
11902SOL     OW42755  11.243   1.254   2.944 -0.4167 -0.8632 -0.0740
11902SOL    HW142756  11.254   1.218   3.032 -2.6103  0.6971  0.9286
11902SOL    HW242757  11.276   1.343   2.949  0.0887 -0.9819 -1.0397
11903SOL     OW42758   3.834  12.377   9.454  0.2774  0.3755  0.2181
11903SOL    HW142759   3.793  12.363   9.539 -0.9428 -1.0681 -0.5586
11903SOL    HW242760   3.908  12.315   9.452  0.4571  0.5856  0.3189
11904SOL     OW42761  11.060   3.918   1.256 -0.3366 -0.5827  0.2539
11904SOL    HW142762  11.063   3.863   1.178 -0.7944 -1.5138  0.8748
11904SOL    HW242763  11.040   3.857   1.327 -1.2941  0.4483  0.8957
11905SOL     OW42764   6.147   9.771  11.408 -0.3655  0.2283 -0.3585
11905SOL    HW142765   6.144   9.856  11.451  2.9238  0.7035 -0.7747
11905SOL    HW242766   6.203   9.785  11.331 -1.6988 -1.7921 -1.8126
11906SOL     OW42767   2.360   8.373   2.924  0.5542 -0.4048 -0.6376
11906SOL    HW142768   2.447   8.388   2.887  1.3661 -1.7422  0.5729
11906SOL    HW242769   2.373   8.299   2.984 -0.6633  1.4400  2.1375
11907SOL     OW42770  12.105   1.415   8.151  0.5079 -0.5897  0.0782
11907SOL    HW142771  12.061   1.335   8.179 -0.1172 -1.4270 -2.9824
11907SOL    HW242772  12.198   1.398   8.165  0.3535 -1.6898 -0.1445
11908SOL     OW42773   2.457   6.733   6.926  0.5616 -0.2932 -0.2526
11908SOL    HW142774   2.480   6.804   6.985  0.4538 -1.7151  1.6071
11908SOL    HW242775   2.376   6.696   6.962  0.0807 -0.7771 -1.7253
11909SOL     OW42776   9.043  12.189   1.516  0.1831  0.5079  0.3424
11909SOL    HW142777   8.985  12.142   1.575  1.3672 -2.6975 -0.8291
11909SOL    HW242778   9.129  12.149   1.529  1.6306  3.2892  0.1210
11910SOL     OW42779  11.300   6.197   4.704  0.2605  0.1048  0.1498
11910SOL    HW142780  11.315   6.291   4.714  0.8695 -0.0907  1.3019
11910SOL    HW242781  11.302   6.181   4.610 -0.5703  1.3572 -0.0902
11911SOL     OW42782   2.007  10.508   6.916  0.2555 -0.1784 -0.0815
11911SOL    HW142783   1.955  10.588   6.909  1.8956  1.1810  1.8408
11911SOL    HW242784   1.945  10.440   6.942 -0.6553  1.4003  2.2682
11912SOL     OW42785   2.315   0.501  10.837 -0.0271  0.2659  0.6014
11912SOL    HW142786   2.344   0.581  10.794  1.2816 -1.0881 -1.2115
11912SOL    HW242787   2.225   0.488  10.806 -0.5626  1.4334  1.5889
11913SOL     OW42788  11.167   9.507   9.107 -0.2176  0.1926  0.4748
11913SOL    HW142789  11.249   9.505   9.056 -0.7316 -0.7317 -0.3451
11913SOL    HW242790  11.175   9.586   9.161  0.2275  1.3668 -1.2350
11914SOL     OW42791  11.982   9.449  12.151 -0.2084  0.0850 -0.2564
11914SOL    HW142792  11.958   9.429  12.241 -0.5597  0.7172 -0.2041
11914SOL    HW242793  11.974   9.365  12.105  0.1467 -0.2803  0.3272
11915SOL     OW42794   1.374   2.968   6.463 -0.4492  0.1956 -0.4383
11915SOL    HW142795   1.458   3.015   6.465 -0.4869  0.2700 -0.5892
11915SOL    HW242796   1.358   2.944   6.554  1.2825 -2.5688 -0.7472
11916SOL     OW42797   5.864  11.353   7.807 -0.0647  0.5051 -0.5533
11916SOL    HW142798   5.788  11.368   7.863 -0.2176  0.6505 -0.7972
11916SOL    HW242799   5.930  11.414   7.840 -0.0821  0.4434 -0.3996
11917SOL     OW42800   1.083   7.385   0.565 -0.0921 -0.2596  0.2395
11917SOL    HW142801   1.156   7.328   0.590  1.6638  1.3477 -0.9065
11917SOL    HW242802   1.125   7.468   0.543 -2.3573  0.8815 -0.0114
11918SOL     OW42803   3.004   2.298   4.458 -0.0858  0.4803  0.0059
11918SOL    HW142804   3.075   2.295   4.523 -0.7530  2.5815  0.9048
11918SOL    HW242805   3.046   2.269   4.377  1.3690  0.0426  0.8613
11919SOL     OW42806  12.234   8.291   4.344 -0.3443 -0.7413 -0.2127
11919SOL    HW142807  12.286   8.217   4.377 -0.2259 -0.5694 -0.0152
11919SOL    HW242808  12.172   8.310   4.415  0.5866  0.2999  0.3516
11920SOL     OW42809  11.537  10.709   6.728 -0.1727 -0.3953 -0.5133
11920SOL    HW142810  11.573  10.743   6.646 -1.0132 -1.1359 -1.2020
11920SOL    HW242811  11.488  10.631   6.703 -0.8383 -0.3712  0.6306
11921SOL     OW42812   4.419   6.320   1.036  0.0994 -0.3228 -0.4315
11921SOL    HW142813   4.436   6.237   1.080  1.0482 -0.1170 -0.3917
11921SOL    HW242814   4.351   6.300   0.971 -0.8827 -0.7556  0.6932
11922SOL     OW42815   9.671   5.090   6.572 -0.1096  0.5284  0.6251
11922SOL    HW142816   9.618   5.098   6.651 -0.1675  0.4462  0.5956
11922SOL    HW242817   9.634   5.155   6.512 -0.3228  0.3180  0.5245
11923SOL     OW42818   9.371   9.205   4.638 -0.0205 -0.3294 -0.5120
11923SOL    HW142819   9.372   9.286   4.586  0.4160 -0.1280 -0.1934
11923SOL    HW242820   9.278   9.190   4.656 -0.0613  0.5333  0.0931
11924SOL     OW42821   1.256   5.920  11.053  0.2092 -0.1686 -0.2370
11924SOL    HW142822   1.329   5.968  11.091 -0.7724  0.9223  0.3228
11924SOL    HW242823   1.254   5.946  10.961 -0.5363  1.1851  0.1397
11925SOL     OW42824   2.202   4.147   4.089 -0.4732  0.0511  0.0959
11925SOL    HW142825   2.246   4.063   4.077 -1.4274 -0.1358 -2.7835
11925SOL    HW242826   2.169   4.144   4.179 -1.3090 -3.1144 -0.1941
11926SOL     OW42827   3.674   7.862   9.712  0.2819  0.0796 -0.2813
11926SOL    HW142828   3.607   7.795   9.724  1.7851 -1.8599 -2.0060
11926SOL    HW242829   3.625   7.945   9.713 -1.5365 -0.8550  2.8655
11927SOL     OW42830  11.914   1.260   2.549 -0.4687  0.2705 -0.1546
11927SOL    HW142831  11.964   1.270   2.468 -1.6361  1.3605 -0.7723
11927SOL    HW242832  11.838   1.208   2.524 -1.2635  1.3166  0.0384
11928SOL     OW42833   3.057   2.626   0.736  0.4451 -0.2508 -0.4422
11928SOL    HW142834   3.065   2.532   0.753 -0.1656 -0.3289 -0.5615
11928SOL    HW242835   2.968   2.648   0.762  0.5669  0.2869 -0.4653
11929SOL     OW42836   2.706   5.655  12.442 -0.0181  0.4124 -0.0953
11929SOL    HW142837   2.698   5.655  12.347  1.8510  0.3602 -0.2984
11929SOL    HW242838   2.780   5.714  12.459 -0.4385  0.5625  1.3468
11930SOL     OW42839   4.709   9.395   4.340  0.4859 -0.2095  0.0019
11930SOL    HW142840   4.797   9.405   4.306  1.9658 -0.7038  3.2925
11930SOL    HW242841   4.700   9.301   4.359 -0.1409  0.0407  1.0749
11931SOL     OW42842   2.868   1.361   5.566 -0.0719 -0.3923 -0.3335
11931SOL    HW142843   2.834   1.418   5.634 -0.1846 -1.5480  0.6096
11931SOL    HW242844   2.802   1.291   5.558  1.4157 -1.9807  0.6348
11932SOL     OW42845  12.206  11.761   8.337 -0.1950  0.1274 -0.4013
11932SOL    HW142846  12.279  11.760   8.275 -0.0965 -1.6137 -0.3189
11932SOL    HW242847  12.238  11.711   8.412 -0.8568  0.8966  0.4145
11933SOL     OW42848   8.210   6.888  10.109  0.5528  0.0998 -0.5360
11933SOL    HW142849   8.256   6.832  10.047  1.0416  0.3153 -0.3762
11933SOL    HW242850   8.276   6.950  10.139  1.1046 -1.6800  2.2901
11934SOL     OW42851   9.943   2.058   3.565  0.0659  0.2443 -0.2299
11934SOL    HW142852  10.025   2.093   3.530 -0.9330  0.3477 -2.6260
11934SOL    HW242853   9.893   2.136   3.591  1.0102  0.1530  2.1259
11935SOL     OW42854   6.581  11.569   3.474 -0.5065  0.0877 -0.1431
11935SOL    HW142855   6.606  11.650   3.430 -0.9288  0.7742  0.8581
11935SOL    HW242856   6.527  11.522   3.410  0.0458  0.4170 -0.8599
11936SOL     OW42857   9.350   1.920   4.839  0.2901  0.3686 -0.0714
11936SOL    HW142858   9.382   1.990   4.896  2.1720  1.3931 -2.2178
11936SOL    HW242859   9.417   1.851   4.847  0.0794  0.1325 -0.3269
11937SOL     OW42860   5.841   4.969  10.540  0.1889  0.1731  0.2056
11937SOL    HW142861   5.905   5.025  10.585 -0.6923 -0.3695  2.2306
11937SOL    HW242862   5.757   4.991  10.580 -0.5844 -0.6858 -0.8711
11938SOL     OW42863  11.468   2.777  10.189 -0.1187  0.1788  0.7066
11938SOL    HW142864  11.530   2.714  10.227  0.3169  0.2852  0.1796
11938SOL    HW242865  11.411   2.724  10.134 -2.8905 -0.5456  3.9388
11939SOL     OW42866   6.102   4.006   3.214 -0.0705  0.1386  0.0586
11939SOL    HW142867   6.190   3.998   3.178 -0.5003 -1.6074 -0.6795
11939SOL    HW242868   6.043   3.989   3.141 -1.0085 -0.1401  0.8506
11940SOL     OW42869   5.522  11.993   4.976  0.1191 -0.1972  0.5860
11940SOL    HW142870   5.461  12.040   4.919 -0.8120  1.2646  2.6625
11940SOL    HW242871   5.605  11.994   4.928 -0.9864 -0.5729 -1.4696
11941SOL     OW42872   1.938   6.333   3.866  0.3881 -0.0160 -0.5016
11941SOL    HW142873   2.025   6.304   3.893 -0.0074 -0.3548  0.4735
11941SOL    HW242874   1.885   6.253   3.868 -0.5265  0.5626  1.4114
11942SOL     OW42875  11.737   9.975  11.776  0.3979  0.1171  0.1399
11942SOL    HW142876  11.782   9.985  11.692  0.3964 -0.0528  0.1208
11942SOL    HW242877  11.808   9.971  11.840  0.3854  1.4730  0.2797
11943SOL     OW42878   1.535   0.530   3.842 -0.1349 -0.5601 -0.0645
11943SOL    HW142879   1.605   0.543   3.906 -1.5125 -2.2630  1.9040
11943SOL    HW242880   1.456   0.515   3.894 -1.8869  0.6136 -2.1903
11944SOL     OW42881   4.598   0.944   0.337  0.1779  0.2573 -0.3599
11944SOL    HW142882   4.680   0.896   0.329  0.5959  0.7669  0.5702
11944SOL    HW242883   4.573   0.965   0.247  0.5664 -0.7181 -0.7074
11945SOL     OW42884   4.002   6.200   2.659 -0.3489 -0.1425  0.4151
11945SOL    HW142885   4.067   6.258   2.620  0.4174 -0.0581  1.7714
11945SOL    HW242886   4.031   6.112   2.636 -0.6474 -0.0553 -0.3212
11946SOL     OW42887   7.157   4.956   2.580 -0.2405 -0.0227  0.8003
11946SOL    HW142888   7.092   4.898   2.620 -0.9821  0.2479  0.0065
11946SOL    HW242889   7.240   4.931   2.621 -0.9431  0.1409  2.3894
11947SOL     OW42890  11.730   1.462   4.607  0.2074  0.2309 -0.0348
11947SOL    HW142891  11.757   1.392   4.667 -0.7177  0.1283  0.2869
11947SOL    HW242892  11.747   1.542   4.656 -1.1211  0.1305  0.6532
11948SOL     OW42893   3.697   9.770   4.288  0.1139  0.5701  0.2451
11948SOL    HW142894   3.788   9.787   4.310 -0.0295  1.2170  0.3792
11948SOL    HW242895   3.648   9.797   4.366 -0.1460 -0.4270  0.4424
11949SOL     OW42896   0.775  12.351   8.362  0.2299 -0.2361  0.9533
11949SOL    HW142897   0.718  12.426   8.381  0.5424  0.6598 -1.3969
11949SOL    HW242898   0.864  12.387   8.365  0.3581 -0.3254 -0.7384
11950SOL     OW42899  10.836   9.727   7.999 -0.3410 -0.1305  0.2621
11950SOL    HW142900  10.851   9.642   7.957 -2.2376 -0.4581  0.1494
11950SOL    HW242901  10.923   9.755   8.029  0.4645 -1.6581 -0.5361
11951SOL     OW42902   3.554   7.749   1.920  0.3961 -0.2174  0.2764
11951SOL    HW142903   3.564   7.672   1.864  0.4034 -0.0087 -0.0125
11951SOL    HW242904   3.634   7.799   1.906 -0.5391  0.9517 -1.2554
11952SOL     OW42905  11.851  12.505   4.355 -0.5133  0.1291 -0.1050
11952SOL    HW142906  11.887  12.434   4.303  0.1316  1.0094 -0.9010
11952SOL    HW242907  11.887  12.492   4.443  1.7718  0.9411 -0.8561
11953SOL     OW42908   0.825   7.518   0.302 -0.2857 -0.1651 -0.2404
11953SOL    HW142909   0.771   7.597   0.301 -1.6602 -0.9737  1.7965
11953SOL    HW242910   0.900   7.539   0.247  0.6774  3.4901  2.1254
11954SOL     OW42911  10.851   1.065   5.319  0.0011 -0.0611 -0.4427
11954SOL    HW142912  10.899   1.082   5.400  2.3948 -2.4940 -1.2075
11954SOL    HW242913  10.914   1.080   5.249 -0.6498 -2.1532 -1.5805
11955SOL     OW42914  11.822  11.084   1.943  0.0370  0.5314 -0.1940
11955SOL    HW142915  11.749  11.106   2.001  0.0945  2.4646 -0.7820
11955SOL    HW242916  11.822  11.153   1.877  0.7148 -0.9489 -1.8211
11956SOL     OW42917   6.505   0.679  12.474 -0.0522  0.2026  0.8388
11956SOL    HW142918   6.454   0.606  12.507  0.3203 -1.7096 -2.3720
11956SOL    HW242919   6.457   0.709  12.396  1.0595  1.7903  0.7087
11957SOL     OW42920   2.413   5.857   3.487  0.8147  0.7824  0.5933
11957SOL    HW142921   2.480   5.843   3.420 -0.4817 -0.4154 -0.5020
11957SOL    HW242922   2.435   5.943   3.525  0.8333  2.1830 -2.3041
11958SOL     OW42923   1.818   8.935   8.335 -0.0596  0.0869 -0.1442
11958SOL    HW142924   1.808   8.940   8.430  1.8393 -0.4976  0.1314
11958SOL    HW242925   1.836   9.025   8.308 -2.9357  0.7159 -0.3461
11959SOL     OW42926   2.992  11.438   5.008 -0.8765 -0.3335  0.5657
11959SOL    HW142927   2.953  11.509   4.956 -1.8287 -0.2361  1.3786
11959SOL    HW242928   3.039  11.483   5.078  1.8279 -0.3942 -1.0537
11960SOL     OW42929  10.719   4.908   6.783 -0.4168  0.3623  0.3525
11960SOL    HW142930  10.655   4.887   6.715 -0.6939  0.5488  0.5481
11960SOL    HW242931  10.696   4.997   6.810 -0.7170  0.0655  1.1259
11961SOL     OW42932  10.571  11.488   2.791  0.7462  0.6345  0.1223
11961SOL    HW142933  10.552  11.581   2.804  1.6664  0.8028  0.3335
11961SOL    HW242934  10.490  11.452   2.754  0.0411  1.3159  0.9462
11962SOL     OW42935   5.236   5.168  10.501 -0.3912 -0.7137 -0.3862
11962SOL    HW142936   5.255   5.157  10.594 -1.9450  0.2908  0.0986
11962SOL    HW242937   5.320   5.161  10.457  0.7748  1.2497  1.3584
11963SOL     OW42938  11.818   8.335  11.852  0.3448 -0.1429  0.1450
11963SOL    HW142939  11.859   8.317  11.936 -2.0823  1.0065  1.7091
11963SOL    HW242940  11.742   8.277  11.849  0.9841 -0.9836 -1.8378
11964SOL     OW42941  11.959  11.872   7.452 -0.7373 -0.1664  0.3684
11964SOL    HW142942  11.936  11.887   7.544 -0.9772  1.9580  0.0012
11964SOL    HW242943  12.053  11.852   7.454 -0.8215 -0.5138  1.1049
11965SOL     OW42944   7.180   0.185  12.054  0.1468  0.1604 -0.6274
11965SOL    HW142945   7.167   0.186  12.149  1.6856  0.2057 -0.3794
11965SOL    HW242946   7.148   0.269  12.024 -0.2076  0.2123 -0.1145
11966SOL     OW42947   5.711   7.525   1.000  0.2863 -0.0917  0.0408
11966SOL    HW142948   5.683   7.617   0.997  0.1171 -0.1619 -0.8882
11966SOL    HW242949   5.648   7.479   0.945  0.8794 -0.6234 -0.2086
11967SOL     OW42950   0.161   5.798   3.058  0.4646 -0.0628 -0.4665
11967SOL    HW142951   0.156   5.887   3.022  0.1801  0.2054  0.2236
11967SOL    HW242952   0.108   5.801   3.137  1.2055 -0.5971  0.0686
11968SOL     OW42953   8.073   9.022   2.257  0.3639  0.0592  0.5838
11968SOL    HW142954   8.150   9.067   2.221 -0.1467  1.2468  0.9428
11968SOL    HW242955   8.061   9.061   2.344 -0.8579  0.1332  0.3861
11969SOL     OW42956   4.860   8.389   2.424  0.1303  0.1388 -0.3153
11969SOL    HW142957   4.800   8.428   2.487 -0.0124 -1.4576  0.5896
11969SOL    HW242958   4.926   8.346   2.478  1.1076  0.3773 -1.2925
11970SOL     OW42959   9.567   3.177   6.696 -0.1182  0.3312 -0.7151
11970SOL    HW142960   9.638   3.206   6.639 -1.2454  1.3547 -1.6454
11970SOL    HW242961   9.604   3.102   6.744  0.9824 -0.3456 -2.5262
11971SOL     OW42962   6.734   4.316   7.492  0.3469 -0.3004 -0.2634
11971SOL    HW142963   6.646   4.341   7.520  0.7283 -0.3552  1.0620
11971SOL    HW242964   6.770   4.268   7.567  1.1349 -1.1754 -1.1767
11972SOL     OW42965   3.317  11.463  10.340  0.1136  0.4595  0.4451
11972SOL    HW142966   3.312  11.558  10.349 -0.4115  0.2216  3.5851
11972SOL    HW242967   3.233  11.431  10.372  0.4668 -1.0969 -0.1008
11973SOL     OW42968   5.196   5.236   9.403 -0.1691 -0.2224 -0.2335
11973SOL    HW142969   5.138   5.304   9.368 -0.4361 -0.0500  0.5319
11973SOL    HW242970   5.161   5.155   9.365 -0.6589 -0.0756 -0.1049
11974SOL     OW42971   4.497   9.927   7.161 -0.2450 -0.0217  0.1404
11974SOL    HW142972   4.477   9.846   7.114  1.1185 -0.2378 -0.0951
11974SOL    HW242973   4.589   9.919   7.185 -0.2117  1.2751  0.5036
11975SOL     OW42974   5.591  10.383   0.947 -0.8461 -0.5070  0.6349
11975SOL    HW142975   5.684  10.402   0.956 -0.8226 -0.2096 -0.1312
11975SOL    HW242976   5.546  10.460   0.981 -0.7811  0.0019 -0.3861
11976SOL     OW42977   7.600  10.020   4.849  1.3735  0.1110  0.0827
11976SOL    HW142978   7.630   9.993   4.936  0.3979  1.1764  0.7819
11976SOL    HW242979   7.554  10.103   4.864  1.4071  0.4518 -1.4946
11977SOL     OW42980   5.915   2.455   8.320 -0.6252 -0.0498  0.2501
11977SOL    HW142981   6.009   2.464   8.331 -0.3719 -1.1831 -0.8076
11977SOL    HW242982   5.878   2.504   8.394  0.7463  1.2741  0.1154
11978SOL     OW42983   1.982   8.638   0.188  0.2032 -0.9828 -0.0706
11978SOL    HW142984   1.890   8.667   0.188  0.7811  0.9863  0.1852
11978SOL    HW242985   1.997   8.608   0.277  0.3355  0.6390  0.4915
11979SOL     OW42986   7.916   2.143   9.314 -0.0483 -0.6318  0.3459
11979SOL    HW142987   7.865   2.214   9.275 -1.0991 -1.3814  0.2988
11979SOL    HW242988   7.879   2.134   9.402 -1.1630 -2.2669 -0.2447
11980SOL     OW42989  11.124   3.326  10.546  0.3657  0.5254 -0.2757
11980SOL    HW142990  11.202   3.349  10.596  1.3527 -3.0368  0.0844
11980SOL    HW242991  11.068   3.279  10.607  0.4152 -1.6198 -1.7432
11981SOL     OW42992  11.219   6.880   9.524  0.0351  0.3663 -0.0285
11981SOL    HW142993  11.168   6.922   9.455  0.5122 -0.3305 -0.8243
11981SOL    HW242994  11.289   6.834   9.478 -0.4727 -1.3190  0.7913
11982SOL     OW42995  10.099  10.444  10.921  0.3772  0.0070 -0.0263
11982SOL    HW142996  10.138  10.422  10.837  0.5032  1.1683 -0.2854
11982SOL    HW242997  10.023  10.498  10.899 -0.1932 -0.5357  0.5672
11983SOL     OW42998   9.528   7.188   7.381 -0.2700  0.3784 -0.4558
11983SOL    HW142999   9.538   7.260   7.318  0.2267  0.1496 -0.6386
11983SOL    HW243000   9.545   7.109   7.330 -1.3377  0.0831 -0.3777
11984SOL     OW43001   4.777   8.131  11.222  0.3009 -0.1867 -0.2106
11984SOL    HW143002   4.805   8.180  11.299  2.3849  0.5537 -1.3442
11984SOL    HW243003   4.692   8.169  11.199  0.2377  0.4318  0.9833
11985SOL     OW43004   6.424   0.187   3.644 -0.4661 -0.3929 -0.0266
11985SOL    HW143005   6.397   0.225   3.560 -0.3086  1.9899  0.9117
11985SOL    HW243006   6.516   0.212   3.653  0.6970 -3.8547 -0.7574
11986SOL     OW43007   6.913   6.696   0.408 -0.2946  0.3661 -0.2348
11986SOL    HW143008   6.910   6.656   0.321  0.8148  1.5804 -0.8574
11986SOL    HW243009   6.938   6.787   0.393  0.7202  0.4109  1.4010
11987SOL     OW43010   7.395  10.084   0.836  0.4883 -0.3566  0.5379
11987SOL    HW143011   7.333  10.056   0.768  0.5498  0.8423 -0.0450
11987SOL    HW243012   7.340  10.097   0.914 -0.1276  1.1943 -0.1078
11988SOL     OW43013   7.992   6.069   8.614  0.1664  0.4688  0.5453
11988SOL    HW143014   8.005   5.978   8.643 -0.3580  0.2723  0.1661
11988SOL    HW243015   8.065   6.085   8.554 -0.2495 -0.0190 -0.1140
11989SOL     OW43016   5.511   6.862   0.032  0.1918  0.5763  0.2733
11989SOL    HW143017   5.465   6.923  -0.027 -0.2894  0.0933  0.1452
11989SOL    HW243018   5.600   6.898   0.038  0.3818  0.3829 -1.1176
11990SOL     OW43019  10.469  11.500   1.932  0.1451 -0.6932 -0.1788
11990SOL    HW143020  10.405  11.538   1.872  0.5344 -1.4372 -1.0845
11990SOL    HW243021  10.421  11.487   2.013 -1.2829 -2.5583 -1.2560
11991SOL     OW43022   4.643  10.263   5.387 -0.3950 -0.2869  0.1641
11991SOL    HW143023   4.602  10.328   5.445 -0.4776  0.5248 -0.7771
11991SOL    HW243024   4.571  10.227   5.336 -0.0767  0.6278 -0.9909
11992SOL     OW43025   6.742   7.415  11.237 -0.1630  0.4856  0.1425
11992SOL    HW143026   6.768   7.478  11.304 -0.9430  0.2055  0.7101
11992SOL    HW243027   6.755   7.462  11.154  0.9371  0.7838  0.4616
11993SOL     OW43028   1.751   9.829   4.924 -0.4520  0.3487 -0.3360
11993SOL    HW143029   1.732   9.908   4.874 -0.6482  0.0429 -0.7406
11993SOL    HW243030   1.774   9.763   4.859 -0.1288  0.1132  0.0109
11994SOL     OW43031   3.472   1.457  10.413 -0.5707 -0.1893  0.0213
11994SOL    HW143032   3.493   1.412  10.331 -0.5046  0.7942 -0.5301
11994SOL    HW243033   3.535   1.423  10.476  1.1143  0.8801 -0.9865
11995SOL     OW43034   5.913   4.101   3.499 -0.3716 -0.3314  0.0419
11995SOL    HW143035   5.990   4.156   3.518 -0.3145  0.3408 -1.9589
11995SOL    HW243036   5.949   4.015   3.480  0.1213  0.3766 -2.5831
11996SOL     OW43037   0.245   8.052   1.037 -0.3279 -0.2402  0.2827
11996SOL    HW143038   0.321   8.104   1.062 -0.7181  1.1432 -1.2403
11996SOL    HW243039   0.174   8.083   1.093 -0.0665 -0.6897  0.8741
11997SOL     OW43040   1.674  11.656  12.260 -0.3985  0.2357 -0.3884
11997SOL    HW143041   1.754  11.628  12.306 -1.2342 -3.3594 -0.8375
11997SOL    HW243042   1.696  11.649  12.167 -1.4892 -1.9345 -0.5364
11998SOL     OW43043   8.977   4.042   8.165  0.2119  0.0057  0.0212
11998SOL    HW143044   8.891   4.001   8.171  0.4391 -0.3201  2.0655
11998SOL    HW243045   8.959   4.135   8.157 -0.3280 -0.1034 -0.0909
11999SOL     OW43046   8.532  10.368  11.882  0.1125  0.4548  0.3100
11999SOL    HW143047   8.589  10.444  11.872  0.3926  0.3242  0.9225
11999SOL    HW243048   8.494  10.355  11.795  0.1719  1.2084  0.1665
12000SOL     OW43049   5.269   4.719   0.926  0.2932  0.1322  0.0390
12000SOL    HW143050   5.345   4.735   0.870 -0.2888  0.0901 -0.7853
12000SOL    HW243051   5.207   4.789   0.903 -0.6393 -0.8849 -0.6352
12001SOL     OW43052   3.608  11.323   8.432 -0.4838  0.3219  0.3397
12001SOL    HW143053   3.528  11.373   8.418 -0.3888  0.4265  0.1593
12001SOL    HW243054   3.594  11.277   8.515  0.3546  2.5224  1.7993
12002SOL     OW43055   7.779  10.724  10.804 -0.8219  0.1764  0.1004
12002SOL    HW143056   7.853  10.721  10.743 -0.4950 -0.8902  0.5317
12002SOL    HW243057   7.797  10.799  10.860  0.7015 -0.9236  1.1337
12003SOL     OW43058   4.494   8.179   2.399 -0.1102 -0.7227 -0.2459
12003SOL    HW143059   4.469   8.267   2.371  0.7993 -0.7380 -1.1395
12003SOL    HW243060   4.415   8.126   2.383 -0.9797  0.0809  1.1622
12004SOL     OW43061  10.546   0.360   4.331  0.0965  0.1885  0.6029
12004SOL    HW143062  10.532   0.438   4.277 -0.7994 -0.3439  0.0341
12004SOL    HW243063  10.466   0.353   4.383 -0.2650 -0.9005 -0.0690
12005SOL     OW43064  11.798   3.515   1.644 -0.1738 -0.3538 -0.6011
12005SOL    HW143065  11.712   3.487   1.611  0.3450 -1.1953 -1.3132
12005SOL    HW243066  11.811   3.464   1.723 -0.4626  0.0107 -0.3156
12006SOL     OW43067   3.267   0.659   3.781 -0.5886  0.3161  0.4467
12006SOL    HW143068   3.318   0.620   3.853  0.1927 -0.2380 -0.3808
12006SOL    HW243069   3.315   0.739   3.759  0.1940 -0.4176 -0.6103
12007SOL     OW43070   8.794   1.646   2.193 -0.1344  0.0120  0.0772
12007SOL    HW143071   8.726   1.588   2.228 -0.8071  1.3768  1.1231
12007SOL    HW243072   8.809   1.710   2.262 -0.0759  1.6347 -1.3820
12008SOL     OW43073   4.057   4.022   8.248 -0.2254 -0.1542 -0.0822
12008SOL    HW143074   3.974   4.036   8.294 -0.0796  0.1378  0.0900
12008SOL    HW243075   4.090   3.939   8.282 -0.1812 -0.0035  0.2414
12009SOL     OW43076  10.738   8.916   9.939  0.0051  0.1047  0.5640
12009SOL    HW143077  10.761   9.004   9.910  0.4541 -0.9846 -2.8919
12009SOL    HW243078  10.642   8.918   9.947 -0.1023  0.6491 -0.6182
12010SOL     OW43079   0.147   6.759  11.773 -0.0564 -0.3501 -0.2709
12010SOL    HW143080   0.109   6.724  11.692 -0.1501  0.8309 -0.7601
12010SOL    HW243081   0.217   6.817  11.743 -0.8105  0.9680  0.4117
12011SOL     OW43082   4.018   1.973   0.321 -0.0197 -0.4080  0.3175
12011SOL    HW143083   3.962   1.972   0.243  0.0735 -1.3450  0.2495
12011SOL    HW243084   3.991   2.051   0.368 -1.0765 -0.5938  0.0537
12012SOL     OW43085   8.085   3.670   3.042 -0.5010  0.2816  0.1653
12012SOL    HW143086   8.113   3.761   3.049  0.6762 -0.0311 -0.0962
12012SOL    HW243087   8.164   3.619   3.065 -0.8106 -0.6651 -0.7690
12013SOL     OW43088   9.588   2.152   5.293  0.2371 -0.7642  0.2169
12013SOL    HW143089   9.597   2.247   5.288  2.3191 -0.9546 -0.5683
12013SOL    HW243090   9.644   2.126   5.366  0.2982 -1.4480 -0.0616
12014SOL     OW43091   6.052  11.755   2.872 -0.0861  0.5788 -0.0193
12014SOL    HW143092   6.108  11.686   2.907  0.8683  1.5238  0.3613
12014SOL    HW243093   6.098  11.836   2.893 -0.0628  1.2555 -2.3982
12015SOL     OW43094   9.089  11.041   4.906  0.0326  0.0469  0.6309
12015SOL    HW143095   9.053  11.118   4.950  1.6117  0.0190  2.0886
12015SOL    HW243096   9.167  11.019   4.957  0.2268 -1.8712 -0.4045
12016SOL     OW43097   8.994   7.613   2.302  0.2951  0.2573 -0.0506
12016SOL    HW143098   9.060   7.678   2.324  0.9588 -0.4632  0.1481
12016SOL    HW243099   9.006   7.543   2.366  0.2795 -0.5194 -0.8646
12017SOL     OW43100   6.554   9.309   7.101 -0.2508  0.0008  0.6273
12017SOL    HW143101   6.558   9.304   7.196  0.4101 -1.3567  0.5583
12017SOL    HW243102   6.644   9.329   7.075 -0.6925  1.7333  0.3246
12018SOL     OW43103   6.153   0.404   5.337 -0.0858 -0.4152  0.0649
12018SOL    HW143104   6.233   0.355   5.358  0.3632  0.9524  1.8171
12018SOL    HW243105   6.184   0.490   5.309 -0.9173 -0.1722 -0.1348
12019SOL     OW43106   9.466   2.832   7.991  0.2625 -0.7443 -0.0674
12019SOL    HW143107   9.384   2.805   7.950  0.3519  0.3069 -0.9854
12019SOL    HW243108   9.532   2.821   7.923  0.5336  0.3887 -0.0098
12020SOL     OW43109   2.572   8.248   5.982  0.4037 -0.1649  0.1548
12020SOL    HW143110   2.581   8.343   5.989 -1.4021  0.0916 -0.4482
12020SOL    HW243111   2.649   8.221   5.931 -0.4515  1.3788 -2.1413
12021SOL     OW43112   4.460  10.599   9.745  0.0452  0.4412  0.0318
12021SOL    HW143113   4.555  10.595   9.730  0.7035  0.1881  3.4423
12021SOL    HW243114   4.430  10.509   9.735  0.6297  0.0989  1.2290
12022SOL     OW43115   7.106   2.888   2.263  0.3759 -0.3164  0.1422
12022SOL    HW143116   7.187   2.837   2.264  0.6673  0.1253  1.2415
12022SOL    HW243117   7.098   2.922   2.352  0.0739  1.3409 -0.4712
12023SOL     OW43118   8.254   4.322  12.249 -0.2727 -0.2811 -0.1885
12023SOL    HW143119   8.255   4.254  12.317  1.0941  0.1588  0.2583
12023SOL    HW243120   8.325   4.381  12.273 -1.5525  1.4297 -0.4604
12024SOL     OW43121   3.693   1.719   5.479 -0.6009  0.0554  0.1657
12024SOL    HW143122   3.610   1.686   5.513 -1.5574  1.8537 -0.2813
12024SOL    HW243123   3.732   1.765   5.553  0.1725 -1.0242  0.4566
12025SOL     OW43124   4.172   8.584   6.537 -0.2881  0.2822  0.0522
12025SOL    HW143125   4.102   8.624   6.588 -0.8174 -0.7028  0.1224
12025SOL    HW243126   4.193   8.649   6.470 -0.9486  0.7681  0.3038
12026SOL     OW43127  10.201   1.122   7.257 -0.0244 -0.1221 -0.2966
12026SOL    HW143128  10.271   1.136   7.320 -0.0553  1.3688 -0.5637
12026SOL    HW243129  10.147   1.201   7.262 -0.6067 -0.4142 -1.4595
12027SOL     OW43130   2.852   1.743   6.265 -0.1583 -1.2265  0.1838
12027SOL    HW143131   2.876   1.778   6.351 -3.1541 -0.6879  0.9156
12027SOL    HW243132   2.782   1.679   6.284 -0.2801 -1.7383 -1.7864
12028SOL     OW43133   7.577   7.768   8.157  0.2285  0.1839 -0.0227
12028SOL    HW143134   7.551   7.680   8.185  0.8077 -0.4206 -1.2850
12028SOL    HW243135   7.581   7.819   8.238  2.1099 -1.5394  1.0787
12029SOL     OW43136   6.969   1.889  12.585  0.9699  0.0465  0.2189
12029SOL    HW143137   7.044   1.948  12.594  1.7891 -0.4777 -2.3512
12029SOL    HW243138   6.897   1.946  12.557  1.4095  0.0723 -0.9273
12030SOL     OW43139   7.285   8.844   6.579 -0.3654  0.4640  0.1082
12030SOL    HW143140   7.346   8.793   6.526  0.0503  1.6753 -0.6193
12030SOL    HW243141   7.328   8.929   6.590 -2.1430  1.5511 -0.9034
12031SOL     OW43142   8.584  10.202   4.458 -0.3979  0.1278  0.2714
12031SOL    HW143143   8.675  10.228   4.443 -0.4718  1.4336  1.8504
12031SOL    HW243144   8.540  10.223   4.376  0.6653 -0.2736 -0.4253
12032SOL     OW43145   7.078   1.721   5.217 -0.4568  0.7420  0.1091
12032SOL    HW143146   7.164   1.698   5.252 -0.4404  1.9251  0.9140
12032SOL    HW243147   7.023   1.734   5.294 -1.5023 -0.4555 -0.4036
12033SOL     OW43148   3.221   3.762   6.156  0.4488  0.1056  0.2514
12033SOL    HW143149   3.132   3.746   6.124  0.8076  0.2314 -0.8652
12033SOL    HW243150   3.268   3.680   6.138  0.0577 -0.7462  2.7888
12034SOL     OW43151   4.371   3.023   4.286  0.1080 -0.0150  0.1024
12034SOL    HW143152   4.302   3.070   4.238 -0.6117  0.0449  1.1747
12034SOL    HW243153   4.376   3.068   4.370 -1.0884 -2.2678  1.4537
12035SOL     OW43154   5.574  10.431   3.742  0.0844  0.3529  0.0845
12035SOL    HW143155   5.499  10.390   3.697  1.3996 -1.4206 -0.5924
12035SOL    HW243156   5.610  10.492   3.677 -1.2175  1.8639  0.7086
12036SOL     OW43157  11.653   1.650   0.917  0.0329  0.2548 -0.0196
12036SOL    HW143158  11.585   1.710   0.949  0.8560  0.6449  1.0861
12036SOL    HW243159  11.734   1.687   0.952  0.4986 -1.8810  1.3183
12037SOL     OW43160   1.364   8.730   6.429  0.2226  0.2248 -0.2342
12037SOL    HW143161   1.344   8.696   6.516  0.1923 -0.9322 -0.6777
12037SOL    HW243162   1.284   8.777   6.403  0.5961  1.4402  0.7547
12038SOL     OW43163   3.447   1.288  11.566  0.1008 -0.0356  0.4262
12038SOL    HW143164   3.360   1.325  11.582 -0.0035 -0.2009  0.2523
12038SOL    HW243165   3.442   1.198  11.600  0.2089 -0.0402  0.4313
12039SOL     OW43166   0.525  10.589  11.466  0.3088 -1.0634  0.2748
12039SOL    HW143167   0.575  10.613  11.387  2.5432 -0.7599  1.6868
12039SOL    HW243168   0.505  10.496  11.454 -0.5810 -0.7118 -1.2269
12040SOL     OW43169   7.863   6.494  10.779  0.5136  0.3453  0.2886
12040SOL    HW143170   7.869   6.541  10.862 -0.4672  0.7805  0.1301
12040SOL    HW243171   7.951   6.461  10.763  0.6479  0.0124  1.6434
12041SOL     OW43172  12.419   6.956  10.028  0.0636  0.5382 -0.6184
12041SOL    HW143173  12.446   7.027  10.087  1.5157  0.0642 -0.6662
12041SOL    HW243174  12.411   6.999   9.942  2.1320  0.4863 -0.8999
12042SOL     OW43175   3.672   3.344  12.558 -0.3099 -0.4876 -0.3588
12042SOL    HW143176   3.710   3.389  12.483  0.0960 -0.3661 -0.0795
12042SOL    HW243177   3.626   3.413  12.606 -0.1332 -0.4699 -0.2162
12043SOL     OW43178   0.827   2.797   4.364  0.1021 -0.1561 -0.0633
12043SOL    HW143179   0.878   2.872   4.397 -0.0008  0.8718 -2.1066
12043SOL    HW243180   0.872   2.721   4.400  0.2656  0.8386  2.0274
12044SOL     OW43181  10.147   8.868   2.978  0.3953 -1.0928  0.0146
12044SOL    HW143182  10.124   8.778   3.002 -0.2955 -0.3745  2.2850
12044SOL    HW243183  10.206   8.858   2.903 -2.6889 -3.2645 -2.4464
12045SOL     OW43184   5.028   8.802   4.188  0.0237  0.4928 -0.0919
12045SOL    HW143185   5.006   8.896   4.192 -1.7089  0.1760 -0.9318
12045SOL    HW243186   4.943   8.758   4.193  0.8221 -1.0609  0.4673
12046SOL     OW43187   4.679   7.802   4.272 -0.4442 -0.4402  0.2858
12046SOL    HW143188   4.598   7.830   4.230 -1.9657 -0.8208  2.7545
12046SOL    HW243189   4.688   7.860   4.348  1.7248 -0.2892 -0.0352
12047SOL     OW43190   9.547   1.177   6.238  0.6702  0.2042  0.5227
12047SOL    HW143191   9.468   1.192   6.289  0.9718  0.2896  0.9672
12047SOL    HW243192   9.615   1.229   6.281  1.1097 -0.3433  0.5148
12048SOL     OW43193   0.609   1.902   4.281 -0.1162  0.3327  0.0147
12048SOL    HW143194   0.602   1.889   4.187 -0.5472  1.4185 -0.1192
12048SOL    HW243195   0.663   1.980   4.291  1.9603 -1.1076  0.7509
12049SOL     OW43196   6.074   0.517   8.858 -0.1304 -0.4677 -0.1633
12049SOL    HW143197   6.110   0.553   8.778  0.3332 -1.4864 -0.4349
12049SOL    HW243198   5.981   0.506   8.840 -0.0245 -0.7117 -0.5797
12050SOL     OW43199  10.471   3.409   8.833  0.0688  0.1404 -0.7535
12050SOL    HW143200  10.445   3.379   8.920 -0.7643 -1.0964 -1.4015
12050SOL    HW243201  10.492   3.501   8.845 -0.9955  0.2436  0.5684
12051SOL     OW43202   3.437   2.624   5.566 -0.2403  0.1637  0.3195
12051SOL    HW143203   3.401   2.539   5.539  2.0717 -1.2128  1.2576
12051SOL    HW243204   3.362   2.671   5.603 -1.7043 -1.2049 -0.7290
12052SOL     OW43205   1.827  10.849   7.971 -0.1234 -0.0806  0.1944
12052SOL    HW143206   1.879  10.883   8.043  0.5710  0.1697 -0.4053
12052SOL    HW243207   1.800  10.926   7.922  1.4552 -0.3213 -1.1714
12053SOL     OW43208   8.996  11.378   1.811  0.1597  0.3500  0.0347
12053SOL    HW143209   8.908  11.341   1.813  0.0032  0.7298  0.3175
12053SOL    HW243210   9.042  11.327   1.745 -0.6730  1.0609 -1.1357
12054SOL     OW43211  10.152  10.381  10.061  0.5097 -0.3046 -0.6065
12054SOL    HW143212  10.217  10.425  10.115 -0.5268 -2.4909  2.7138
12054SOL    HW243213  10.078  10.441  10.059  0.5616 -0.1927  0.4475
12055SOL     OW43214   5.389   2.148   9.822  0.1817 -0.0867 -0.0371
12055SOL    HW143215   5.377   2.105   9.738  0.2197 -1.9027  0.8468
12055SOL    HW243216   5.449   2.091   9.871  0.3004  1.0039  1.1707
12056SOL     OW43217   3.860  11.805   6.429 -0.5985  0.9749  0.4222
12056SOL    HW143218   3.784  11.828   6.375  0.2775  1.1453 -0.7963
12056SOL    HW243219   3.865  11.875   6.494 -1.7979  0.6601  0.8747
12057SOL     OW43220   7.868   4.833   0.422 -0.5005 -0.4972  0.0793
12057SOL    HW143221   7.826   4.911   0.459  0.4959  0.2894 -0.3825
12057SOL    HW243222   7.940   4.814   0.483  0.6489  0.3217 -0.9890
12058SOL     OW43223   1.164   0.207   8.786  0.0757  0.3098  0.9840
12058SOL    HW143224   1.083   0.251   8.759 -0.1448 -1.1699 -0.9951
12058SOL    HW243225   1.134   0.138   8.845 -0.5558 -1.9170 -1.7201
12059SOL     OW43226   7.834  11.501   7.230  0.7403 -0.4307  0.1219
12059SOL    HW143227   7.853  11.552   7.151  0.9712  0.6647  0.8677
12059SOL    HW243228   7.916  11.456   7.251  0.4024 -1.5418 -0.8149
12060SOL     OW43229   4.097   0.741   0.532 -0.3051 -0.2704 -0.5001
12060SOL    HW143230   4.123   0.812   0.474 -0.1325 -0.2635 -0.4140
12060SOL    HW243231   4.079   0.784   0.616 -0.9885 -0.2185 -0.6654
12061SOL     OW43232   9.353   8.849   7.975 -0.2799  0.0583  0.2188
12061SOL    HW143233   9.366   8.861   7.880 -0.8995 -1.0352 -0.0209
12061SOL    HW243234   9.287   8.914   7.998  1.1128  1.5143  0.2601
12062SOL     OW43235   3.497   2.721   8.253 -0.3993  0.0405  0.3246
12062SOL    HW143236   3.445   2.800   8.265 -1.3763 -0.7598  1.5291
12062SOL    HW243237   3.439   2.649   8.280  0.9167 -0.9795  0.5442
12063SOL     OW43238   9.468   2.515  10.887 -0.2549 -0.2586 -0.4751
12063SOL    HW143239   9.411   2.477  10.820  1.9843 -2.2722 -1.3658
12063SOL    HW243240   9.556   2.484  10.865  0.9733  1.2058  1.8952
12064SOL     OW43241   1.141   9.028   9.426  0.2826  0.0839 -0.2725
12064SOL    HW143242   1.177   8.941   9.409  1.7536  0.1993  1.8782
12064SOL    HW243243   1.046   9.016   9.422  0.4557 -1.6785  0.2051
12065SOL     OW43244  10.418   7.753   6.910  0.3446  0.7368 -0.2788
12065SOL    HW143245  10.439   7.794   6.827  1.6923  0.2345 -0.2111
12065SOL    HW243246  10.406   7.660   6.889  1.2455  0.5105  0.1508
12066SOL     OW43247   5.011   8.392  11.627 -0.1570  0.2075 -0.0883
12066SOL    HW143248   4.971   8.477  11.648  0.2158  0.5838 -0.8650
12066SOL    HW243249   4.946   8.328  11.656 -1.5447  0.8075 -1.6731
12067SOL     OW43250   5.393  10.650   5.230 -0.2835 -0.0686 -0.1133
12067SOL    HW143251   5.384  10.699   5.312 -1.2137  1.1738 -0.9231
12067SOL    HW243252   5.487  10.655   5.211 -0.3244  1.2769 -0.0801
12068SOL     OW43253   1.009   0.263   3.089  0.0141  0.1185  0.4221
12068SOL    HW143254   0.981   0.289   3.001  0.9438  0.7999  0.3157
12068SOL    HW243255   0.929   0.265   3.141 -0.5190 -0.1450 -0.3738
12069SOL     OW43256   8.768   0.178   6.376 -0.7902 -0.1842 -0.0318
12069SOL    HW143257   8.774   0.199   6.470  0.8707  0.1353 -0.1736
12069SOL    HW243258   8.707   0.105   6.372 -0.9508 -0.1596  1.3031
12070SOL     OW43259  12.481   8.442   6.382  0.2020  0.0079 -0.1003
12070SOL    HW143260  12.513   8.465   6.469 -0.2513 -0.0537  0.0865
12070SOL    HW243261  12.431   8.361   6.396 -0.8109  0.5918 -0.2204
12071SOL     OW43262  11.462   2.882   2.631 -0.0780  0.4916  0.4448
12071SOL    HW143263  11.366   2.880   2.631 -0.1427 -1.3263  2.5736
12071SOL    HW243264  11.488   2.812   2.572 -0.1824 -0.8085  1.8734
12072SOL     OW43265  11.653  10.930  11.658 -0.4901 -0.1212 -0.5193
12072SOL    HW143266  11.595  11.004  11.639  0.8484  0.2786 -3.8233
12072SOL    HW243267  11.722  10.967  11.713 -0.6034  0.7538 -0.9440
12073SOL     OW43268   7.395   1.825   7.872 -0.7252  0.1363 -0.8928
12073SOL    HW143269   7.322   1.763   7.880 -0.8545  0.4000  0.1363
12073SOL    HW243270   7.364   1.905   7.914  1.1276 -0.6477  2.3588
12074SOL     OW43271   4.048   5.110   1.826  0.1871 -0.6356  0.4023
12074SOL    HW143272   4.068   5.200   1.799  0.0378 -1.5630 -3.2939
12074SOL    HW243273   4.001   5.121   1.909 -1.2707  2.8432 -0.6724
12075SOL     OW43274   3.749  10.260   3.895 -0.2517  0.2107 -0.2868
12075SOL    HW143275   3.718  10.349   3.910 -0.8425 -0.2983  1.8356
12075SOL    HW243276   3.689  10.204   3.945  0.5265 -1.3233 -0.9836
12076SOL     OW43277  12.565   3.447   1.275  0.4603 -0.1016 -0.1440
12076SOL    HW143278  12.583   3.464   1.367 -0.3193 -0.2903  0.0418
12076SOL    HW243279  12.644   3.404   1.243  1.3931  1.3740  0.0401
12077SOL     OW43280  10.535   4.627  11.335 -0.2882  0.0712 -0.2087
12077SOL    HW143281  10.597   4.679  11.283 -1.3608  1.4006 -0.2267
12077SOL    HW243282  10.553   4.536  11.310  2.1676  0.3372  0.3869
12078SOL     OW43283   3.302   7.686   8.362  0.0993  0.1886 -0.1596
12078SOL    HW143284   3.266   7.601   8.386  1.8663 -0.5420  0.0870
12078SOL    HW243285   3.291   7.692   8.267 -1.0444  0.2104 -0.0407
12079SOL     OW43286   1.608  10.863   9.070  0.2331  0.1643 -0.3936
12079SOL    HW143287   1.529  10.852   9.017 -0.8794  2.1751  0.7246
12079SOL    HW243288   1.664  10.920   9.018  0.7300 -0.7980 -0.9370
12080SOL     OW43289   5.898   5.256   4.605  0.6857 -0.3964  0.4668
12080SOL    HW143290   5.877   5.334   4.554 -0.9829  1.2236  3.3554
12080SOL    HW243291   5.987   5.232   4.577  0.6953  1.6448 -1.5482
12081SOL     OW43292  11.953   1.128   8.985  0.2790 -0.3345  0.4611
12081SOL    HW143293  11.982   1.117   9.075 -0.5399  0.3298  0.8254
12081SOL    HW243294  11.896   1.205   8.987  0.0383 -0.4622 -0.5690
12082SOL     OW43295  12.555   5.647   4.600 -0.0262  0.0603  0.7544
12082SOL    HW143296  12.580   5.554   4.601  0.4887  0.1917  0.6285
12082SOL    HW243297  12.497   5.657   4.675  0.1783 -0.2966  0.9636
12083SOL     OW43298  12.455   3.002   8.907 -0.0265  0.4797  0.0856
12083SOL    HW143299  12.538   3.049   8.903  0.2733  0.5215  3.6302
12083SOL    HW243300  12.389   3.071   8.919 -0.3324  0.3359 -0.7453
12084SOL     OW43301  10.407   9.401   1.942 -0.0003  0.6212  0.0743
12084SOL    HW143302  10.362   9.342   2.003  0.9957  0.2566  0.4806
12084SOL    HW243303  10.413   9.484   1.989 -0.7054  0.8299 -0.1902
12085SOL     OW43304   8.333   3.409   6.770  0.0613  0.0464 -0.4370
12085SOL    HW143305   8.336   3.324   6.815  0.6082  0.2857 -0.0090
12085SOL    HW243306   8.412   3.454   6.799 -1.2313  1.5145  0.9557
12086SOL     OW43307   1.274   5.566   1.843 -0.0514 -0.3795  0.2715
12086SOL    HW143308   1.211   5.605   1.905  1.8511  3.1372  0.2312
12086SOL    HW243309   1.229   5.571   1.758 -0.2140  1.0885  0.4028
12087SOL     OW43310   2.569  11.809   1.553 -0.8443 -0.5001 -0.2857
12087SOL    HW143311   2.473  11.809   1.550 -0.8922 -0.9698  0.8121
12087SOL    HW243312   2.590  11.876   1.619 -0.4839 -1.4763  0.6163
12088SOL     OW43313  10.906   2.191   5.965  0.8264  0.4149  0.3492
12088SOL    HW143314  10.877   2.143   6.042 -1.8029  0.7313 -0.3770
12088SOL    HW243315  10.915   2.282   5.995  3.2811  0.0151  1.0741
12089SOL     OW43316   1.170   0.498   2.600  0.1880  0.0191  0.2237
12089SOL    HW143317   1.240   0.526   2.658  0.3952  0.1084 -0.0708
12089SOL    HW243318   1.090   0.533   2.641  0.1994 -0.8707  1.0638
12090SOL     OW43319  12.498  11.255   1.974 -0.1060  0.4734 -0.1046
12090SOL    HW143320  12.472  11.215   1.891 -0.2526  1.4590 -0.5502
12090SOL    HW243321  12.553  11.330   1.949  1.5015 -0.3503  0.7496
12091SOL     OW43322  11.347   8.150   0.830  0.8136  0.0152 -0.2381
12091SOL    HW143323  11.260   8.185   0.814 -0.0359 -2.0527 -0.4782
12091SOL    HW243324  11.380   8.125   0.744  1.5929  0.6308 -0.1314
12092SOL     OW43325   1.153  11.520  12.125 -0.1879  0.2671  0.0090
12092SOL    HW143326   1.222  11.587  12.124 -0.8559  1.0166  1.1775
12092SOL    HW243327   1.090  11.550  12.060  1.2433 -1.2223 -2.1971
12093SOL     OW43328  12.286   3.157   4.936  0.0697  0.6605  0.0305
12093SOL    HW143329  12.275   3.114   4.851  1.9199 -1.1598  0.6232
12093SOL    HW243330  12.209   3.132   4.986  0.2891 -0.5782 -0.2264
12094SOL     OW43331  11.043  12.273   8.805  0.7945  0.5738  0.0174
12094SOL    HW143332  11.134  12.297   8.786  0.7283  0.9777  0.2172
12094SOL    HW243333  11.012  12.339   8.866 -0.0298  1.1879 -1.0203
12095SOL     OW43334   3.897   3.151   8.969  0.1025  0.4644 -0.2539
12095SOL    HW143335   3.817   3.103   8.946 -0.5207  0.9847  0.7944
12095SOL    HW243336   3.956   3.083   9.002 -0.6596  0.3435  0.9130
12096SOL     OW43337   3.473   2.288  12.240  0.5371 -0.0275  0.1301
12096SOL    HW143338   3.485   2.288  12.145  0.1301 -0.1188  0.0759
12096SOL    HW243339   3.554   2.249  12.274  0.4340 -0.5667 -0.2187
12097SOL     OW43340  10.064   0.788   8.597 -0.2479 -0.0642 -0.2972
12097SOL    HW143341  10.066   0.746   8.511 -1.2646 -0.3559 -0.1923
12097SOL    HW243342  10.060   0.882   8.578 -0.4701 -0.1280 -0.5701
12098SOL     OW43343   0.014   1.139   7.039 -0.3102  0.7249 -0.1560
12098SOL    HW143344   0.071   1.215   7.046  0.5885  0.0458  0.0799
12098SOL    HW243345  -0.060   1.158   7.096 -0.1967  1.5070 -0.2648
12099SOL     OW43346   2.783   1.567   8.368  0.0985 -0.7316 -0.5648
12099SOL    HW143347   2.721   1.562   8.295 -0.6052 -0.1687 -0.0304
12099SOL    HW243348   2.740   1.519   8.439 -0.1562  0.4198  0.0897
12100SOL     OW43349   9.866   4.517   0.840  0.0272  0.3103  0.0271
12100SOL    HW143350   9.957   4.523   0.814 -0.4290  1.4378 -1.4393
12100SOL    HW243351   9.839   4.607   0.856 -0.5814 -0.0924  1.4242
12101SOL     OW43352  10.902   7.638   9.497 -0.1777 -0.1500 -0.1685
12101SOL    HW143353  10.869   7.686   9.421  0.6722 -0.9683 -1.0695
12101SOL    HW243354  10.988   7.676   9.514 -1.6656  2.4349  2.5782
12102SOL     OW43355   0.598   6.147   3.827 -0.0237  0.4097  0.4820
12102SOL    HW143356   0.565   6.057   3.827 -0.1378  0.4493  1.0310
12102SOL    HW243357   0.645   6.155   3.911  1.4654  0.3159 -0.2972
12103SOL     OW43358  12.020   2.499  11.630 -0.1557 -0.4530  0.5407
12103SOL    HW143359  12.032   2.425  11.570 -0.3119  1.5592 -2.2057
12103SOL    HW243360  12.085   2.563  11.601 -0.3041  0.6756  2.5442
12104SOL     OW43361   3.123  11.238   9.803  0.3101 -0.0258 -0.5694
12104SOL    HW143362   3.181  11.209   9.873  0.4276  0.7036 -0.3616
12104SOL    HW243363   3.035  11.223   9.837  0.3616  0.7038 -0.0976
12105SOL     OW43364  12.414   2.534   8.313 -0.5058  0.3315 -0.0537
12105SOL    HW143365  12.388   2.548   8.222  0.9741  1.8716 -0.2892
12105SOL    HW243366  12.414   2.622   8.351  0.1884 -0.1364  1.0673
12106SOL     OW43367  11.664   1.274   0.644  0.4486 -0.0444 -0.6151
12106SOL    HW143368  11.638   1.311   0.728  1.0295  0.9433 -0.8497
12106SOL    HW243369  11.607   1.318   0.580  1.5243  0.9201 -0.9547
12107SOL     OW43370   0.080   2.396   5.212  0.6751 -0.2201 -0.1063
12107SOL    HW143371   0.043   2.370   5.297  0.5510  0.0036 -0.0922
12107SOL    HW243372   0.070   2.491   5.209 -0.0413 -0.3005 -0.7043
12108SOL     OW43373  12.216   6.056   1.995  0.0012 -0.4038 -0.2505
12108SOL    HW143374  12.242   5.990   2.059 -0.3803 -0.0345  0.2970
12108SOL    HW243375  12.206   6.136   2.047 -2.3744 -0.5496 -0.4100
12109SOL     OW43376   2.284   5.607   4.657 -0.3073  0.4778  0.0356
12109SOL    HW143377   2.262   5.563   4.739 -0.0686 -0.9248 -0.6325
12109SOL    HW243378   2.302   5.537   4.595  1.1328  1.5194 -0.8055
12110SOL     OW43379  10.316   6.336   1.013  0.4386  0.5378 -0.2007
12110SOL    HW143380  10.378   6.404   1.037  0.3851  0.7952 -0.7526
12110SOL    HW243381  10.286   6.299   1.096  1.9211 -0.1434  0.0511
12111SOL     OW43382   6.235   1.080   6.450 -0.0600  0.2763 -0.2903
12111SOL    HW143383   6.158   1.137   6.445  0.1394  0.5165 -0.7591
12111SOL    HW243384   6.307   1.135   6.419 -0.3341 -1.0832 -3.9314
12112SOL     OW43385   4.591  11.400  11.540 -0.2242 -0.3357 -0.0841
12112SOL    HW143386   4.673  11.388  11.492 -0.6138  0.6952 -1.0453
12112SOL    HW243387   4.614  11.382  11.631  1.1540  0.2830 -0.2814
12113SOL     OW43388   7.392   9.382   2.425  0.5743  0.1193 -0.0255
12113SOL    HW143389   7.341   9.392   2.345  0.5035 -0.2897 -0.0333
12113SOL    HW243390   7.468   9.330   2.399  2.2289  2.6299 -0.5455
12114SOL     OW43391   4.079   7.948   7.962 -0.2172  0.0982 -0.1457
12114SOL    HW143392   3.992   7.976   7.990 -1.1118 -1.7741 -0.8736
12114SOL    HW243393   4.140   8.004   8.010 -1.8166  1.4405  0.3874
12115SOL     OW43394   6.545  10.488   3.780  0.2729  0.2588  0.2772
12115SOL    HW143395   6.503  10.425   3.720 -2.1497  0.5420  1.5636
12115SOL    HW243396   6.611  10.531   3.726 -1.9547  0.6740 -2.3406
12116SOL     OW43397   1.774   2.875   9.849  0.5515  0.2229 -0.2902
12116SOL    HW143398   1.812   2.788   9.841 -1.0681 -0.4784 -0.7525
12116SOL    HW243399   1.782   2.897   9.942  0.8914 -0.4414 -0.1571
12117SOL     OW43400   8.804  10.958   1.899  0.3707  0.0474  0.1606
12117SOL    HW143401   8.860  11.030   1.927  1.2486  0.0167 -1.4138
12117SOL    HW243402   8.855  10.911   1.834 -1.4143 -0.0735 -1.2410
12118SOL     OW43403   7.449  10.729   1.032 -0.0355 -0.0419 -0.4042
12118SOL    HW143404   7.376  10.691   1.080 -1.0410 -0.0387 -1.8713
12118SOL    HW243405   7.476  10.660   0.971  0.4225  0.3642 -0.6658
12119SOL     OW43406   2.810   0.064  12.140 -0.2073  0.4828  0.5248
12119SOL    HW143407   2.741   0.125  12.165 -1.8561 -1.4299  0.9421
12119SOL    HW243408   2.800   0.055  12.045  0.5017  1.3342  0.3508
12120SOL     OW43409   7.931  10.646   7.987  0.1881 -0.1369  0.1269
12120SOL    HW143410   7.966  10.630   7.900  0.3916 -2.0632  0.5260
12120SOL    HW243411   7.838  10.625   7.981 -0.4723  2.4603 -0.2684
12121SOL     OW43412  12.218   3.162   1.735 -0.0720 -0.2439 -0.5621
12121SOL    HW143413  12.125   3.153   1.758  0.1318 -3.5500 -0.4532
12121SOL    HW243414  12.256   3.213   1.806 -1.2822 -1.5180  1.0834
12122SOL     OW43415   7.997   3.671   1.729  0.6824  0.4619  0.8153
12122SOL    HW143416   7.906   3.695   1.712  1.2245  1.2167 -1.2789
12122SOL    HW243417   8.035   3.749   1.769  0.8466  0.8055  0.0009
12123SOL     OW43418   5.882  11.897   5.197  0.0466  0.1085 -0.6349
12123SOL    HW143419   5.809  11.846   5.231  0.8317 -0.6433 -0.0304
12123SOL    HW243420   5.856  11.988   5.212 -1.5252 -0.0656 -2.0661
12124SOL     OW43421   0.328  12.314  10.319 -0.6803 -0.0074  0.3797
12124SOL    HW143422   0.415  12.285  10.290 -0.1471  1.3327  0.5889
12124SOL    HW243423   0.309  12.390  10.265 -1.8259 -0.3918  0.2090
12125SOL     OW43424   2.502  12.269  10.164  0.0291 -0.7469 -0.2033
12125SOL    HW143425   2.518  12.213  10.241  1.3441 -0.6750 -0.3988
12125SOL    HW243426   2.461  12.348  10.200  1.7965 -0.1497  0.6570
12126SOL     OW43427   4.405   3.254   1.352 -0.4721 -0.0197  0.1202
12126SOL    HW143428   4.393   3.244   1.257 -0.5003 -1.3078  0.2379
12126SOL    HW243429   4.493   3.291   1.361 -0.1172 -0.7176 -0.3921
12127SOL     OW43430   8.187   9.603   9.612  0.2291 -0.3410  0.4125
12127SOL    HW143431   8.268   9.612   9.661  0.0864  0.4893  0.5231
12127SOL    HW243432   8.174   9.509   9.602  0.1798 -0.5425  2.1132
12128SOL     OW43433   5.455  11.758  12.078 -0.2524  0.1782  0.2841
12128SOL    HW143434   5.389  11.826  12.087 -0.9915 -0.2734 -1.3622
12128SOL    HW243435   5.458  11.739  11.984  1.5033 -0.5269  0.4429
12129SOL     OW43436   7.667   1.488   1.242  0.0759 -0.1079  0.0691
12129SOL    HW143437   7.689   1.427   1.313  1.9459  0.6488  0.2106
12129SOL    HW243438   7.745   1.488   1.186 -1.1106 -0.1962 -1.6531
12130SOL     OW43439   9.214   2.120   8.010  0.4544 -0.3661  0.2409
12130SOL    HW143440   9.148   2.165   7.957  1.1848 -0.1421 -0.5161
12130SOL    HW243441   9.172   2.039   8.039 -0.2814 -0.0319  0.1231
12131SOL     OW43442   3.193   4.401   4.923  0.1752 -0.1753  0.2028
12131SOL    HW143443   3.138   4.323   4.933  0.0973 -0.1644 -0.1103
12131SOL    HW243444   3.280   4.367   4.904  0.1733 -0.1871  0.2150
12132SOL     OW43445  10.458   1.113   8.536  0.2929  0.2576  0.2439
12132SOL    HW143446  10.387   1.147   8.481  1.0839  3.0048  0.7924
12132SOL    HW243447  10.536   1.121   8.482  0.7607  1.0052  1.0210
12133SOL     OW43448  10.183   1.305   6.754  0.6239  0.5575  0.2470
12133SOL    HW143449  10.190   1.349   6.669  1.0274  0.7421  0.3750
12133SOL    HW243450  10.090   1.313   6.778 -0.2816 -2.3126 -1.7036
12134SOL     OW43451   5.895   4.730   4.942  0.0709  0.1189 -0.0353
12134SOL    HW143452   5.828   4.668   4.971  0.3885  0.7655  2.2935
12134SOL    HW243453   5.976   4.679   4.941  0.2160  0.2762  1.2414
12135SOL     OW43454   1.549   4.415   9.624 -0.0120  0.2109  0.1192
12135SOL    HW143455   1.498   4.377   9.696  0.4360 -0.0828  0.2889
12135SOL    HW243456   1.582   4.339   9.576  0.2981  0.3984  0.0348
12136SOL     OW43457  10.463   4.752   5.738 -0.1000  0.1713 -0.1214
12136SOL    HW143458  10.421   4.666   5.738  1.1446 -0.4584 -0.1494
12136SOL    HW243459  10.393   4.812   5.713 -0.8972 -0.8797 -0.5237
12137SOL     OW43460   8.278   1.529   1.715 -0.2686  0.0705  0.0166
12137SOL    HW143461   8.366   1.502   1.690 -0.1284 -1.7815  2.1796
12137SOL    HW243462   8.281   1.624   1.717  1.3689  0.0683 -0.8811
12138SOL     OW43463   2.676   7.579   6.590 -0.3661  0.0390  0.3001
12138SOL    HW143464   2.651   7.563   6.499 -0.4167  0.9817  0.1397
12138SOL    HW243465   2.646   7.668   6.608 -1.3596 -0.5173  1.5974
12139SOL     OW43466   0.556   1.898   6.239  0.0086  0.0489  0.0050
12139SOL    HW143467   0.500   1.952   6.183 -0.5876  0.3500  0.8715
12139SOL    HW243468   0.571   1.952   6.316  0.4334 -0.5436  0.3403
12140SOL     OW43469   4.583  11.663   4.643 -0.7850  0.3677  0.5576
12140SOL    HW143470   4.668  11.704   4.629 -1.9780  2.5769 -0.8510
12140SOL    HW243471   4.578  11.594   4.576 -0.4789  0.8850 -0.0034
12141SOL     OW43472   4.035   0.022   4.269  0.0562 -0.5327  0.6301
12141SOL    HW143473   4.097   0.062   4.330 -1.3808 -0.2619  1.9742
12141SOL    HW243474   4.006  -0.058   4.313  0.1834 -1.1768 -0.4246
12142SOL     OW43475   6.729   6.464   8.041 -0.3721  0.1328 -0.5447
12142SOL    HW143476   6.748   6.372   8.058 -0.4840  0.1979 -0.0666
12142SOL    HW243477   6.669   6.490   8.111  1.3448  1.1633  0.5873
12143SOL     OW43478   5.618   8.609  11.134 -0.0686 -0.6565  0.0859
12143SOL    HW143479   5.545   8.552  11.111 -0.0751 -0.4527 -0.4132
12143SOL    HW243480   5.588   8.656  11.212 -0.8862  0.1670 -0.6986
12144SOL     OW43481   6.496   3.905  10.669  0.3327 -0.1109 -0.5294
12144SOL    HW143482   6.405   3.921  10.644  0.6295  1.1566 -0.8386
12144SOL    HW243483   6.547   3.963  10.613  1.1612  1.3084  1.5690
12145SOL     OW43484   3.050  10.975   1.331 -0.1414 -0.2934  0.0408
12145SOL    HW143485   3.092  10.952   1.414 -0.4766 -0.1983  0.2371
12145SOL    HW243486   3.103  10.931   1.264  1.1005  0.9048  0.1732
12146SOL     OW43487   8.547  11.127   4.857  0.1746  0.1884 -0.7360
12146SOL    HW143488   8.481  11.153   4.793 -0.7857  0.2187  0.2294
12146SOL    HW243489   8.503  11.135   4.941  2.2123  2.8478  0.2138
12147SOL     OW43490   0.183   8.916   8.044 -0.1387  0.3160 -0.0341
12147SOL    HW143491   0.263   8.942   7.999  0.7870 -1.7366  0.2881
12147SOL    HW243492   0.186   8.963   8.127  1.4294 -0.6777  0.5224
12148SOL     OW43493  11.678   6.799   2.875  0.3704  0.2014 -0.1239
12148SOL    HW143494  11.621   6.870   2.845 -0.2784 -0.7828 -1.3032
12148SOL    HW243495  11.650   6.783   2.966 -2.7669 -1.6308 -1.2569
12149SOL     OW43496   0.799   9.559  10.977  0.2162  0.3480 -0.2412
12149SOL    HW143497   0.746   9.487  11.011  1.3690 -0.9890 -1.1800
12149SOL    HW243498   0.879   9.556  11.028  0.2332  1.0345 -0.2219
12150SOL     OW43499   2.831   6.536   1.145  0.3086  0.1670  0.1555
12150SOL    HW143500   2.910   6.499   1.108  1.2335  2.2193 -0.0755
12150SOL    HW243501   2.845   6.533   1.240  0.0614 -0.6843  0.1696
12151SOL     OW43502   6.356   3.289   2.363 -0.4125  0.3020  0.1893
12151SOL    HW143503   6.382   3.355   2.299  1.7796  0.2665  0.9426
12151SOL    HW243504   6.380   3.206   2.323 -0.7568  0.1426  0.3066
12152SOL     OW43505  10.818   4.862   5.126 -0.2195  0.1604  0.2999
12152SOL    HW143506  10.749   4.859   5.060 -1.1168  3.5925  0.8417
12152SOL    HW243507  10.798   4.789   5.185 -1.0641 -1.2388 -1.6314
12153SOL     OW43508   4.125   6.201   4.133  0.0847  0.3901  0.5186
12153SOL    HW143509   4.184   6.271   4.162  0.2044  0.0202  1.1774
12153SOL    HW243510   4.157   6.122   4.176  1.3698 -0.5720 -1.9990
12154SOL     OW43511   1.101   6.165   4.529 -0.2036  0.1306 -0.4352
12154SOL    HW143512   1.114   6.222   4.605 -0.3559 -0.1454 -0.2012
12154SOL    HW243513   1.028   6.205   4.481 -0.0876  0.3209 -0.4553
12155SOL     OW43514   0.654   4.139   7.356 -0.2533 -0.7431  0.2015
12155SOL    HW143515   0.723   4.115   7.419  0.6960 -0.2455 -0.6278
12155SOL    HW243516   0.655   4.235   7.355 -0.6914 -0.7408 -0.1164
12156SOL     OW43517   3.213   8.934   7.905 -0.0125  0.2141 -0.2857
12156SOL    HW143518   3.237   8.847   7.938 -1.1086  0.0973  0.2536
12156SOL    HW243519   3.203   8.921   7.811  0.8642  0.0075 -0.3576
12157SOL     OW43520   1.980   4.345   0.147  0.0416 -0.2243  0.2053
12157SOL    HW143521   2.072   4.329   0.168 -0.1709  0.7982  2.2601
12157SOL    HW243522   1.982   4.413   0.080  0.7937 -0.5281 -0.0844
12158SOL     OW43523   6.127   1.262   4.099 -0.6120 -0.4857 -0.3515
12158SOL    HW143524   6.039   1.229   4.082 -1.5616  0.4337  2.2771
12158SOL    HW243525   6.126   1.353   4.070 -0.9991 -0.0795  0.8657
12159SOL     OW43526   6.421   6.040   0.390 -0.2282 -0.1440 -0.0264
12159SOL    HW143527   6.327   6.056   0.383 -0.3874 -1.1842 -0.5271
12159SOL    HW243528   6.438   6.038   0.484 -0.5231  0.9738  0.0648
12160SOL     OW43529   7.319  12.320  12.420  0.2870  0.7471  0.6685
12160SOL    HW143530   7.292  12.336  12.511 -0.0444  2.0577  0.3631
12160SOL    HW243531   7.386  12.252  12.427 -0.0299  0.5284  1.8544
12161SOL     OW43532   1.171  11.957   8.217  1.0010 -0.1363 -0.3570
12161SOL    HW143533   1.162  12.042   8.172  1.4542  0.2108  0.1996
12161SOL    HW243534   1.161  11.893   8.147  2.7041  0.4074 -1.1684
12162SOL     OW43535   5.831   0.209  12.243 -0.0378  0.1552  0.2153
12162SOL    HW143536   5.833   0.123  12.200 -0.4560 -0.3743  1.2107
12162SOL    HW243537   5.923   0.229  12.261  0.1140  0.2322 -0.6154
12163SOL     OW43538   2.388  10.888  10.351  0.3722 -0.2076  0.0534
12163SOL    HW143539   2.415  10.808  10.397  0.4620 -0.9902 -1.3142
12163SOL    HW243540   2.300  10.867  10.318  0.4184  0.2537 -0.3594
12164SOL     OW43541  10.462   1.797   5.489  0.0534  0.2219  0.1138
12164SOL    HW143542  10.510   1.852   5.551  1.7959 -1.8432  0.6956
12164SOL    HW243543  10.529   1.742   5.448 -1.2724  0.2873 -2.3562
12165SOL     OW43544   9.087  10.335   0.896  0.5079  0.2458 -0.0902
12165SOL    HW143545   9.080  10.240   0.905  0.1163  0.3330  0.6597
12165SOL    HW243546   9.099  10.366   0.986 -2.6924  1.1586  0.1327
12166SOL     OW43547   2.521   5.937   1.405  0.5767 -0.1390  0.0601
12166SOL    HW143548   2.438   5.978   1.381 -0.0392 -1.5111 -0.2752
12166SOL    HW243549   2.574   6.008   1.440  0.0573  1.1908 -1.7331
12167SOL     OW43550   9.426  10.766   0.999  0.9555  0.0658  0.4662
12167SOL    HW143551   9.416  10.852   1.038 -0.2379 -0.6570  1.8640
12167SOL    HW243552   9.365  10.767   0.925  2.2570  0.9917 -0.6343
12168SOL     OW43553  11.474   7.992   4.720 -0.3048 -0.5524 -0.0981
12168SOL    HW143554  11.461   7.898   4.729 -0.3886 -0.5203  0.1136
12168SOL    HW243555  11.444   8.012   4.631  1.7199 -1.0734 -0.9535
12169SOL     OW43556   8.710   4.793   7.239 -0.2677  1.0506  0.1124
12169SOL    HW143557   8.770   4.783   7.312  0.2751 -0.4764 -0.5130
12169SOL    HW243558   8.637   4.734   7.260  0.2190  0.0693 -0.8846
12170SOL     OW43559  11.980   3.149   6.732  0.0057 -0.0327 -0.0552
12170SOL    HW143560  11.978   3.066   6.780  0.9097  0.3400  0.6746
12170SOL    HW243561  11.924   3.207   6.784  1.0493  0.3946  0.6179
12171SOL     OW43562   8.706   9.847   6.184  0.1526  0.1529  0.1617
12171SOL    HW143563   8.645   9.829   6.255  0.1882 -0.9084 -0.0465
12171SOL    HW243564   8.793   9.833   6.222  0.2643  1.2925  0.3584
12172SOL     OW43565  12.155   7.158   3.239 -0.0407 -0.1301 -1.0975
12172SOL    HW143566  12.075   7.206   3.261  0.0462 -0.3213 -0.3518
12172SOL    HW243567  12.155   7.083   3.297  0.5438 -0.2870 -1.2898
12173SOL     OW43568   5.296   6.161   9.074 -0.5494 -0.4994 -0.7203
12173SOL    HW143569   5.241   6.114   9.011 -1.6240  0.6631 -0.6791
12173SOL    HW243570   5.350   6.219   9.020 -1.5065  0.5342 -0.6185
12174SOL     OW43571   6.854   6.987   5.804  0.0801 -0.7286  0.4755
12174SOL    HW143572   6.810   7.008   5.887  0.4312  0.8478  0.2890
12174SOL    HW243573   6.906   6.909   5.824  1.2754  0.4340  2.1626
12175SOL     OW43574   2.035   9.416   7.488 -0.0572 -0.2732 -0.2230
12175SOL    HW143575   2.032   9.503   7.526 -0.7225 -0.8741  1.1679
12175SOL    HW243576   2.128   9.400   7.471  0.1155  0.5038 -0.0240
12176SOL     OW43577   1.753   7.495   4.748 -0.1721  0.1567 -0.0220
12176SOL    HW143578   1.846   7.477   4.731 -0.5781 -1.8451 -0.3650
12176SOL    HW243579   1.745   7.489   4.843  0.0084  0.1852 -0.0035
12177SOL     OW43580   5.686   4.201  12.468  0.8215 -0.3474  0.2891
12177SOL    HW143581   5.683   4.296  12.458 -0.5253 -0.3820  0.2948
12177SOL    HW243582   5.638   4.183  12.548  0.5175 -1.0856 -0.0555
12178SOL     OW43583  10.191   5.746   6.140  0.2998  0.3171 -0.0544
12178SOL    HW143584  10.211   5.834   6.173 -0.6003 -0.4513  2.8050
12178SOL    HW243585  10.263   5.692   6.170  0.7036 -0.0405 -1.5615
12179SOL     OW43586   4.614   1.918   3.710  0.3214  0.2302  0.2585
12179SOL    HW143587   4.555   1.860   3.758 -0.2316  0.8647  0.3717
12179SOL    HW243588   4.671   1.860   3.661 -1.2825 -0.3981 -0.9310
12180SOL     OW43589   1.640   2.055   8.832  0.0020  0.1553 -0.2390
12180SOL    HW143590   1.604   1.980   8.879  1.3467 -0.0217  0.5814
12180SOL    HW243591   1.605   2.132   8.878  1.0731 -0.0161  0.9245
12181SOL     OW43592  10.647   0.034   5.595 -0.2900 -0.0153  0.3941
12181SOL    HW143593  10.583  -0.009   5.538 -0.9380  1.3003  0.0909
12181SOL    HW243594  10.617   0.014   5.683 -1.4072  0.9468  0.2605
12182SOL     OW43595  10.495  10.438   4.732  0.0390  0.2606 -0.5735
12182SOL    HW143596  10.529  10.425   4.820 -1.0984  1.1018  0.0235
12182SOL    HW243597  10.412  10.391   4.731 -0.4143  1.0311 -0.8680
12183SOL     OW43598   6.331  10.197   7.067  0.1928 -0.1538 -0.0297
12183SOL    HW143599   6.249  10.226   7.106 -1.1739 -0.7616 -2.2496
12183SOL    HW243600   6.324  10.220   6.975  2.0147 -1.2853 -0.5182
12184SOL     OW43601   4.651   9.859   1.590 -0.4720 -0.1551  0.4798
12184SOL    HW143602   4.733   9.833   1.549 -1.0177  0.9311 -1.4068
12184SOL    HW243603   4.584   9.811   1.542 -1.0666  0.4790  0.6563
12185SOL     OW43604   8.347   4.285   1.621  0.4005  0.4285 -0.0199
12185SOL    HW143605   8.335   4.363   1.676  1.1891  0.2512  0.4258
12185SOL    HW243606   8.404   4.316   1.550 -2.1568  1.1604 -1.8738
12186SOL     OW43607   1.520   1.450   3.744 -0.4961 -0.0942  0.2920
12186SOL    HW143608   1.470   1.384   3.791 -0.0150  0.0018  0.9390
12186SOL    HW243609   1.588   1.478   3.805  0.4029 -0.2693 -0.6002
12187SOL     OW43610  10.473   2.968   6.196 -0.3004  0.1504 -0.0523
12187SOL    HW143611  10.426   2.887   6.215  0.9424 -0.4951  0.4330
12187SOL    HW243612  10.562   2.939   6.174 -0.5159  1.1694 -2.6724
12188SOL     OW43613   6.208   4.277   5.771 -0.3734 -0.1085  0.3618
12188SOL    HW143614   6.164   4.232   5.842 -1.3839  0.0702 -0.1377
12188SOL    HW243615   6.175   4.367   5.774 -0.4196 -0.0968 -0.3250
12189SOL     OW43616   7.531   0.956   9.992  0.2607 -0.0978 -0.1456
12189SOL    HW143617   7.458   0.943  10.052  0.3749 -0.4980 -0.0851
12189SOL    HW243618   7.593   0.886  10.015  0.3364 -0.2133 -0.6818
12190SOL     OW43619  10.977   7.124  12.191 -0.8233  0.7389 -0.0047
12190SOL    HW143620  10.924   7.148  12.115 -0.7356 -0.5440 -0.4913
12190SOL    HW243621  10.914   7.119  12.263 -1.0748  0.9461 -0.2089
12191SOL     OW43622   4.722   9.763  10.781  0.1470  0.2813 -0.1514
12191SOL    HW143623   4.730   9.724  10.869  0.8975  1.1149  0.1707
12191SOL    HW243624   4.631   9.746  10.756 -0.0867  0.0391  0.7924
12192SOL     OW43625  11.821   6.725   5.097  0.0701 -0.1253  0.2251
12192SOL    HW143626  11.807   6.788   5.026  0.9359  0.1920  0.3215
12192SOL    HW243627  11.738   6.724   5.144  0.1759  1.3386  0.5186
12193SOL     OW43628   3.133   9.864  10.804  0.0760 -0.1272 -0.1137
12193SOL    HW143629   3.147   9.774  10.775  1.5816 -0.3222  1.1022
12193SOL    HW243630   3.124   9.914  10.723 -0.5532 -1.3195 -0.8121
12194SOL     OW43631   4.476   1.839   0.254  0.0772  1.6234 -0.0038
12194SOL    HW143632   4.503   1.777   0.321  0.4144  0.2062 -1.3687
12194SOL    HW243633   4.408   1.892   0.295  0.3743  0.8957  1.4677
12195SOL     OW43634   6.485   6.553   0.672 -0.6706  0.0792  0.2515
12195SOL    HW143635   6.444   6.589   0.593 -0.0966  0.1504 -0.0145
12195SOL    HW243636   6.479   6.624   0.736 -0.0339  0.4671 -0.1070
12196SOL     OW43637   9.385   5.413   4.967 -0.0075  0.1165  0.5390
12196SOL    HW143638   9.451   5.383   4.904 -0.9600  0.3908 -0.6375
12196SOL    HW243639   9.399   5.507   4.974  0.0085  0.1084  0.6120
12197SOL     OW43640   7.083  11.489   6.786  0.0138  0.3537 -0.3370
12197SOL    HW143641   7.150  11.529   6.841 -0.0772 -0.1329  0.1281
12197SOL    HW243642   7.086  11.396   6.808  0.5719  0.0017 -1.7591
12198SOL     OW43643   3.823  10.101  11.751  0.2364  0.0210  0.0467
12198SOL    HW143644   3.827  10.021  11.803  0.8403  0.2475  0.3640
12198SOL    HW243645   3.754  10.085  11.687  1.0019 -1.1117 -0.5195
12199SOL     OW43646   8.887   2.445   1.592 -1.1486 -0.2165  0.4621
12199SOL    HW143647   8.807   2.495   1.607 -1.5293 -0.6078 -0.2238
12199SOL    HW243648   8.880   2.415   1.502 -0.2412 -0.2901  0.4072
12200SOL     OW43649  11.383   4.596   8.591  0.2182 -0.7175  0.2212
12200SOL    HW143650  11.341   4.511   8.603 -1.7183 -0.2659 -2.3789
12200SOL    HW243651  11.325   4.658   8.635  0.0546 -0.4554 -0.3528
12201SOL     OW43652   6.110   2.646   0.541 -0.2455  0.2137 -0.7615
12201SOL    HW143653   6.187   2.701   0.554  0.0682 -0.2038 -0.8138
12201SOL    HW243654   6.042   2.686   0.595  0.7159 -0.8769  1.3732
12202SOL     OW43655  11.149   4.015   3.426 -0.4460 -0.0288  0.0914
12202SOL    HW143656  11.074   4.023   3.485 -0.8097 -1.3509 -0.1646
12202SOL    HW243657  11.137   3.930   3.384  1.1140 -0.1888 -0.0695
12203SOL     OW43658   8.055   4.123  12.515 -0.2606 -0.8765 -0.1777
12203SOL    HW143659   8.148   4.133  12.539 -0.9122  2.9691  1.5738
12203SOL    HW243660   8.057   4.077  12.432  3.3144 -0.2238 -0.6504
12204SOL     OW43661   8.007   8.051   8.336 -0.0564  0.2733 -0.6037
12204SOL    HW143662   8.080   8.102   8.300  0.2100 -1.2828 -2.4618
12204SOL    HW243663   8.047   7.996   8.404  0.4082 -0.1480 -1.2077
12205SOL     OW43664   1.182  11.626   9.653 -0.1237 -0.1061 -0.0929
12205SOL    HW143665   1.182  11.718   9.630 -0.1521  0.0430  0.4848
12205SOL    HW243666   1.093  11.608   9.685  0.7787  0.5782  3.2135
12206SOL     OW43667   2.612   1.672   2.302 -0.0692 -0.0714 -0.4055
12206SOL    HW143668   2.588   1.754   2.259 -0.6216  0.6999  1.2963
12206SOL    HW243669   2.612   1.607   2.231 -1.0005  1.1179 -1.5448
12207SOL     OW43670  10.533   4.453   4.602  0.1724 -0.5785 -0.7165
12207SOL    HW143671  10.455   4.498   4.569 -0.1416 -1.9464 -1.9321
12207SOL    HW243672  10.501   4.399   4.674  0.0335 -0.9260 -1.0344
12208SOL     OW43673   4.029   1.820   0.553  0.1111  0.9227  0.0589
12208SOL    HW143674   3.938   1.825   0.583  0.8138  1.3640  2.2695
12208SOL    HW243675   4.028   1.861   0.467 -1.5408  2.1515  0.6124
12209SOL     OW43676   9.583   4.029  11.229  0.4139  0.1120 -0.5328
12209SOL    HW143677   9.667   4.073  11.247  0.7284  0.1304 -1.9233
12209SOL    HW243678   9.585   3.951  11.283  1.9237 -0.5487 -1.4542
12210SOL     OW43679   0.598   3.761   1.330  0.1450 -0.4846  0.1034
12210SOL    HW143680   0.545   3.825   1.283  0.4361  1.1485  1.8839
12210SOL    HW243681   0.534   3.703   1.372 -0.1391 -0.6230 -0.5062
12211SOL     OW43682   8.731  12.542  11.922 -0.1278 -0.5601  0.1024
12211SOL    HW143683   8.799  12.485  11.958  1.0905 -0.0014 -1.1901
12211SOL    HW243684   8.750  12.628  11.959 -0.1138 -0.3957 -0.2860
12212SOL     OW43685   0.537   1.956   0.966 -0.4595  0.0659  0.0277
12212SOL    HW143686   0.592   1.878   0.956  0.1753  0.3874  0.9206
12212SOL    HW243687   0.506   1.974   0.877 -0.0603 -0.8045 -0.3031
12213SOL     OW43688   7.080   4.420  12.384  0.4942  0.0316  0.5123
12213SOL    HW143689   7.059   4.494  12.441 -2.3123  1.4324 -2.0611
12213SOL    HW243690   7.023   4.349  12.414  0.1342  0.2740  0.4058
12214SOL     OW43691  10.368   7.291   1.977  0.2943  0.0127  0.4014
12214SOL    HW143692  10.318   7.214   2.001 -1.6131  1.4576  1.3639
12214SOL    HW243693  10.396   7.329   2.060  0.4379  0.8160 -0.0017
12215SOL     OW43694   1.879   5.913   2.612  1.0373  0.3562 -0.2354
12215SOL    HW143695   1.968   5.938   2.587  1.0224  0.6398 -0.0170
12215SOL    HW243696   1.833   5.901   2.530  2.0791 -2.8705 -0.4917
12216SOL     OW43697   9.952   6.685   9.830 -0.0448  0.1146  0.2000
12216SOL    HW143698  10.024   6.662   9.890 -0.9921 -0.8227  1.0266
12216SOL    HW243699   9.986   6.759   9.779  0.8945  0.7675  1.7049
12217SOL     OW43700   3.531   3.417   5.046  0.3181  0.1994 -0.0224
12217SOL    HW143701   3.572   3.460   4.971 -1.4595 -0.4925 -1.4595
12217SOL    HW243702   3.464   3.479   5.075  0.1134 -0.1026  0.1546
12218SOL     OW43703   9.740   1.076  12.226  0.0941  0.2360  0.3980
12218SOL    HW143704   9.684   1.012  12.181  0.9011 -0.2911  0.1312
12218SOL    HW243705   9.771   1.133  12.156 -0.4428  0.7894  0.6048
12219SOL     OW43706   4.974   9.377   4.254  0.3150 -0.1402 -0.3710
12219SOL    HW143707   5.057   9.349   4.216  0.4325 -0.1983 -0.0741
12219SOL    HW243708   4.972   9.472   4.238 -0.2174 -0.3509 -1.6292
12220SOL     OW43709  11.038   4.733   8.966  0.3024 -0.2524 -0.2010
12220SOL    HW143710  11.083   4.773   9.040 -0.6683  1.3011 -0.4082
12220SOL    HW243711  10.951   4.711   9.000  0.1027 -0.2057 -0.6801
12221SOL     OW43712   5.364   7.642   9.458  0.2483  0.1643 -0.3359
12221SOL    HW143713   5.393   7.732   9.468 -0.7150  0.3809  0.6194
12221SOL    HW243714   5.283   7.636   9.508 -0.9000 -0.6504 -2.1578
12222SOL     OW43715   2.200   3.119   5.000 -0.4956 -0.2075  0.2776
12222SOL    HW143716   2.105   3.130   4.994 -0.3164  0.9805 -1.1525
12222SOL    HW243717   2.227   3.095   4.911  0.8482  2.5744 -0.1841
12223SOL     OW43718   4.988   8.458   8.631 -0.0639  0.0816  0.0188
12223SOL    HW143719   5.082   8.476   8.628  0.1282 -1.0052 -0.9918
12223SOL    HW243720   4.952   8.506   8.556 -0.2826  0.3227  0.2780
12224SOL     OW43721  10.621   2.697   2.926 -0.3451  0.2432  0.0651
12224SOL    HW143722  10.557   2.727   2.990  0.3239  0.1855  0.7808
12224SOL    HW243723  10.663   2.622   2.967  1.1249  1.1007  0.2174
12225SOL     OW43724  11.381  11.467   2.841  0.2103  0.3678  0.3242
12225SOL    HW143725  11.459  11.425   2.806 -1.4545 -0.1749 -3.1479
12225SOL    HW243726  11.404  11.490   2.931  4.2971  0.2454 -0.5168
12226SOL     OW43727   5.588   3.561   0.185 -0.0658 -0.3816  0.3013
12226SOL    HW143728   5.670   3.606   0.164 -1.5047  1.1755 -2.6451
12226SOL    HW243729   5.525   3.632   0.197 -1.4914 -1.5618  0.0917
12227SOL     OW43730   9.798  11.809   3.053  0.4073  0.8662 -0.2466
12227SOL    HW143731   9.792  11.819   3.148  0.4157 -1.1431  0.0073
12227SOL    HW243732   9.876  11.755   3.039  0.1110  0.6974 -1.3568
12228SOL     OW43733   0.872  12.509   7.029  0.3473  0.6607  0.4340
12228SOL    HW143734   0.861  12.540   7.119 -2.1027 -2.6902  1.4583
12228SOL    HW243735   0.791  12.534   6.985  0.4801  0.0900 -0.1405
12229SOL     OW43736   5.020   3.265  10.075 -0.0204 -0.4166 -1.1421
12229SOL    HW143737   5.086   3.197  10.084  0.5788  0.4053  1.4692
12229SOL    HW243738   5.070   3.345  10.058 -0.3664  0.0962  0.1833
12230SOL     OW43739   5.677   2.107   5.068  0.0584 -0.2309  0.1712
12230SOL    HW143740   5.671   2.186   5.122  0.2552  0.7114 -1.1251
12230SOL    HW243741   5.769   2.104   5.041 -0.4869  0.6750 -1.9930
12231SOL     OW43742   4.433   9.477   0.890 -0.4311 -0.4308  0.0743
12231SOL    HW143743   4.337   9.469   0.886 -0.5800  1.4867 -2.1335
12231SOL    HW243744   4.448   9.558   0.938  0.1195 -0.9340  0.7619
12232SOL     OW43745   6.956   7.703   5.990  0.5311 -0.6019  0.0747
12232SOL    HW143746   7.022   7.769   5.967  0.4860 -0.4854  0.2821
12232SOL    HW243747   6.884   7.721   5.930 -0.1244  0.5436  1.1557
12233SOL     OW43748   7.402   4.282   0.394  0.4003  0.0273  0.1198
12233SOL    HW143749   7.340   4.220   0.432  0.2447 -0.2122 -0.5180
12233SOL    HW243750   7.487   4.239   0.400  0.3424 -0.1041 -0.0132
12234SOL     OW43751   8.343   6.026   7.939  0.4286 -0.2251 -0.0222
12234SOL    HW143752   8.397   6.105   7.931  0.9869 -0.7183 -1.5041
12234SOL    HW243753   8.353   5.981   7.854 -1.4360 -0.9023  0.0677
12235SOL     OW43754  11.057   3.529   6.701 -0.6462  0.5973  0.3303
12235SOL    HW143755  11.078   3.577   6.781  3.1926 -1.4542  0.8328
12235SOL    HW243756  11.079   3.589   6.630  1.9547  0.4870  0.9430
12236SOL     OW43757   1.452   0.964   2.300  0.8665  0.2129  0.8228
12236SOL    HW143758   1.514   1.015   2.352  0.2649  2.7199 -0.7340
12236SOL    HW243759   1.467   0.993   2.210 -0.4250 -1.4586  0.0284
12237SOL     OW43760   4.456   7.447   5.339  0.3081  0.0939 -0.4407
12237SOL    HW143761   4.374   7.471   5.384  0.1905  1.0206 -1.1173
12237SOL    HW243762   4.505   7.397   5.404 -0.1281  0.8650  0.5017
12238SOL     OW43763   5.831   0.397   9.934 -0.4981  0.0997 -0.0179
12238SOL    HW143764   5.878   0.476   9.960  0.4929 -0.5662  0.2669
12238SOL    HW243765   5.897   0.342   9.893 -0.9506 -0.9789  0.6510
12239SOL     OW43766   5.944   0.631   5.783  0.5504  0.2337  0.0869
12239SOL    HW143767   5.953   0.544   5.744  1.4941  0.3359  0.0336
12239SOL    HW243768   5.981   0.621   5.871  1.3846  0.7509 -0.1922
12240SOL     OW43769   5.612   4.151  12.100 -0.2353  0.1022 -0.1037
12240SOL    HW143770   5.700   4.131  12.131 -0.3928 -1.1943 -0.4449
12240SOL    HW243771   5.554   4.097  12.153 -0.8550  1.1021  0.2581
12241SOL     OW43772   0.641   4.417   7.389 -0.0231 -0.3534  0.1096
12241SOL    HW143773   0.700   4.479   7.345 -0.1940  0.3217  0.8113
12241SOL    HW243774   0.557   4.429   7.344 -0.7966  1.9392  1.9660
12242SOL     OW43775   8.837  11.106   9.923 -0.4218  0.6468  0.5563
12242SOL    HW143776   8.797  11.071  10.003  0.5818 -0.6036  0.5440
12242SOL    HW243777   8.903  11.168   9.954  1.6151 -1.5510  0.8704
12243SOL     OW43778   9.448  12.491   6.320  0.3716  0.1069  0.3431
12243SOL    HW143779   9.357  12.507   6.347  0.8576  1.6775  1.1645
12243SOL    HW243780   9.480  12.577   6.293  0.5478 -0.9960 -3.5371
12244SOL     OW43781  10.088   3.928  10.337  0.2835 -0.4239 -0.7566
12244SOL    HW143782  10.097   3.917  10.242  0.4414  0.9129 -0.9240
12244SOL    HW243783   9.997   3.906  10.355 -0.3719  1.4022 -1.5870
12245SOL     OW43784   6.450   8.123  11.448  0.7144 -0.5109 -0.0183
12245SOL    HW143785   6.525   8.123  11.508  1.1588  0.8489 -0.5250
12245SOL    HW243786   6.374   8.107  11.504  1.0511  1.2173  1.0221
12246SOL     OW43787  11.980   4.376   9.486  0.4009 -0.3011  0.3140
12246SOL    HW143788  12.020   4.299   9.445  0.2893 -1.4075  2.1670
12246SOL    HW243789  12.011   4.374   9.577 -0.8561  0.9667  0.8125
12247SOL     OW43790   5.605   6.782   1.395 -0.5109  0.0766 -0.2011
12247SOL    HW143791   5.666   6.765   1.466 -0.8136  2.2131  0.6369
12247SOL    HW243792   5.608   6.877   1.382 -2.3734  0.0460 -1.2993
12248SOL     OW43793  12.148   2.801  11.441 -0.5393  0.1215 -0.2014
12248SOL    HW143794  12.181   2.712  11.425 -1.7771 -0.3627 -0.1771
12248SOL    HW243795  12.174   2.851  11.364 -0.8119 -0.5575 -0.7502
12249SOL     OW43796  12.074   6.478  10.247  0.0816  0.1090 -0.1349
12249SOL    HW143797  12.077   6.563  10.291 -0.0062 -0.7307  1.5645
12249SOL    HW243798  11.999   6.485  10.188 -0.2575  1.0382  0.3731
12250SOL     OW43799   4.200   1.354   9.672  0.2688 -0.1058 -0.5043
12250SOL    HW143800   4.216   1.373   9.765  0.2836 -0.4380 -0.4381
12250SOL    HW243801   4.131   1.415   9.646  1.7712  1.5241 -0.8470
12251SOL     OW43802  11.986   2.796   6.099  0.0953  0.1225  0.0899
12251SOL    HW143803  11.905   2.842   6.120 -0.7955 -1.5748  0.6201
12251SOL    HW243804  12.014   2.757   6.183  1.0447  0.0710 -0.2393
12252SOL     OW43805   7.691   7.330   9.112  0.1609  0.1449 -0.8751
12252SOL    HW143806   7.670   7.412   9.158  0.3493 -0.1775 -0.1993
12252SOL    HW243807   7.747   7.357   9.040 -0.8630  0.7692 -1.4618
12253SOL     OW43808   1.262   0.450  10.244 -0.2053 -0.1063  0.4354
12253SOL    HW143809   1.255   0.512  10.316 -0.7046  0.4468 -0.0776
12253SOL    HW243810   1.301   0.501  10.172  0.7673 -0.7826  0.4590
12254SOL     OW43811   8.260   6.035   5.362 -0.4504 -0.2939 -0.1406
12254SOL    HW143812   8.301   6.091   5.429  0.4218 -1.1009  0.0197
12254SOL    HW243813   8.202   6.094   5.314  0.4398  0.7546  0.0253
12255SOL     OW43814   4.906   2.557   8.023 -0.2385  0.1710 -0.2383
12255SOL    HW143815   4.965   2.496   8.068  0.5790  0.3345 -1.0692
12255SOL    HW243816   4.942   2.644   8.043 -1.4352  0.4261  0.9947
12256SOL     OW43817   0.255   2.227   0.258  0.3393  0.0635  0.4514
12256SOL    HW143818   0.174   2.189   0.225  0.1509  1.0592 -0.2611
12256SOL    HW243819   0.307   2.245   0.180  0.2028  1.7374  0.7196
12257SOL     OW43820   8.100   5.769  10.107  0.0033  0.0932 -0.7690
12257SOL    HW143821   8.060   5.682  10.112  2.1044 -0.9128  3.1333
12257SOL    HW243822   8.031   5.828  10.138 -0.4115 -0.7368 -0.0251
12258SOL     OW43823   0.388   5.719   6.012  0.2314  0.3452 -0.3194
12258SOL    HW143824   0.364   5.636   5.972 -0.2254 -0.1668  0.9550
12258SOL    HW243825   0.315   5.740   6.070  0.1421  1.8635 -0.9486
12259SOL     OW43826   6.540  12.167   1.727  0.0989  0.2389 -0.5563
12259SOL    HW143827   6.472  12.210   1.779 -0.3817 -0.2090 -0.8051
12259SOL    HW243828   6.616  12.167   1.784  0.2546  1.8165 -0.7214
12260SOL     OW43829   3.542   8.395   7.814 -0.4326 -0.3400  0.6917
12260SOL    HW143830   3.501   8.323   7.767 -0.9351  0.6557 -0.4561
12260SOL    HW243831   3.468   8.442   7.855 -0.1329 -0.3254  1.2327
12261SOL     OW43832   4.742  11.938   0.633  0.0462  0.1447  0.2264
12261SOL    HW143833   4.756  11.939   0.538 -1.2678  0.2120  0.0151
12261SOL    HW243834   4.650  11.913   0.643  0.1509  0.2229  1.4855
12262SOL     OW43835   8.117   2.236   2.660 -0.5778 -0.2216 -0.4063
12262SOL    HW143836   8.161   2.265   2.580 -1.8304 -1.7688 -1.7210
12262SOL    HW243837   8.182   2.180   2.703 -0.5094 -0.8739 -1.3091
12263SOL     OW43838  12.372   1.733   8.836  0.1237  0.2604 -0.2557
12263SOL    HW143839  12.399   1.645   8.862  3.1794  0.5350 -2.0646
12263SOL    HW243840  12.410   1.790   8.903  1.8196  0.4443 -1.3232
12264SOL     OW43841  11.681   9.243   8.726  0.0619 -0.1523 -0.5226
12264SOL    HW143842  11.702   9.332   8.755  1.2598 -0.2623 -1.0231
12264SOL    HW243843  11.765   9.198   8.723 -0.1425 -0.5033 -2.9840
12265SOL     OW43844   7.906  12.019   3.465 -0.0792  0.3928 -0.1874
12265SOL    HW143845   7.813  12.031   3.445 -0.2657 -0.3852  0.1817
12265SOL    HW243846   7.920  12.070   3.545 -0.6487 -0.9812  0.8370
12266SOL     OW43847   6.569   7.101   0.504 -0.2248 -0.1325  0.6080
12266SOL    HW143848   6.494   7.090   0.563 -0.9286  1.9336  0.1772
12266SOL    HW243849   6.634   7.146   0.557  0.0518 -0.3768  0.4778
12267SOL     OW43850   5.715  10.868   8.744 -0.2515  0.1036  0.5469
12267SOL    HW143851   5.637  10.886   8.692  0.1038  0.2003  0.0421
12267SOL    HW243852   5.779  10.837   8.681 -0.3617 -1.4824  1.1705
12268SOL     OW43853   9.300   5.137   5.519 -0.3423 -0.4792 -0.1074
12268SOL    HW143854   9.320   5.141   5.612 -0.1244  2.3535 -0.2024
12268SOL    HW243855   9.225   5.196   5.508  1.0170  1.0431 -1.9885
12269SOL     OW43856   3.765   9.550   6.224 -0.3300 -0.5339 -0.0163
12269SOL    HW143857   3.748   9.632   6.178 -1.7340 -2.1681 -2.6894
12269SOL    HW243858   3.860   9.538   6.217 -0.5102 -0.9706 -3.2494
12270SOL     OW43859   1.017   7.574   0.110  0.0746 -0.5849  0.9302
12270SOL    HW143860   1.046   7.579   0.019 -0.2651 -2.3770  0.6895
12270SOL    HW243861   0.988   7.663   0.131 -1.5882 -0.5314 -1.2993
12271SOL     OW43862   4.525   0.878   8.475  0.2735 -0.8638  0.6165
12271SOL    HW143863   4.468   0.822   8.423  1.0986 -0.6120 -0.5892
12271SOL    HW243864   4.524   0.838   8.562 -0.1742 -1.9963  0.1125
12272SOL     OW43865   0.195   6.614   5.053 -0.0032  0.5329  0.0035
12272SOL    HW143866   0.132   6.576   5.114  0.2462  0.2368  0.0800
12272SOL    HW243867   0.161   6.592   4.966  0.7704 -0.9799  0.0338
12273SOL     OW43868   5.820  12.087   2.274 -0.2905  0.2910  0.1560
12273SOL    HW143869   5.835  12.005   2.320  0.6512 -0.6961 -1.8021
12273SOL    HW243870   5.728  12.083   2.247 -0.3447  0.0440  0.3762
12274SOL     OW43871   7.032   9.028   6.921  0.5879  0.1700  0.4645
12274SOL    HW143872   6.983   9.108   6.907  1.4361  0.8323  1.1462
12274SOL    HW243873   6.989   8.963   6.866 -0.5208  0.9254  0.4176
12275SOL     OW43874  11.137  12.373  10.768 -0.1890 -0.0236  0.0210
12275SOL    HW143875  11.102  12.290  10.800  0.3601  0.0484  0.8332
12275SOL    HW243876  11.136  12.364  10.673 -0.8794 -0.6464  0.0713
12276SOL     OW43877   7.750   5.301  12.353  0.5082  0.1384 -0.2414
12276SOL    HW143878   7.741   5.213  12.316 -0.6127  0.9052 -1.9342
12276SOL    HW243879   7.690   5.354  12.301  0.5782  1.7561  1.2722
12277SOL     OW43880  11.951   8.869  12.479  0.3456  0.0518  0.4972
12277SOL    HW143881  12.029   8.819  12.455  0.4013  0.2237  0.3181
12277SOL    HW243882  11.921   8.909  12.397 -0.0097 -0.1206  0.5407
12278SOL     OW43883   7.071   6.013   8.971 -0.0086  0.2267 -0.2976
12278SOL    HW143884   7.166   6.018   8.974 -0.0471  1.0567 -0.0129
12278SOL    HW243885   7.043   6.102   8.948 -0.7352  0.2161  0.4870
12279SOL     OW43886   7.920  10.804   1.421 -0.2700  0.6610  0.4190
12279SOL    HW143887   7.995  10.754   1.389 -0.4683  1.1434 -0.8646
12279SOL    HW243888   7.845  10.768   1.374 -0.6700  0.9760  0.8063
12280SOL     OW43889   2.634  11.412  10.368  0.2154 -0.2145  0.6739
12280SOL    HW143890   2.621  11.507  10.375  1.4315  0.0027  0.1303
12280SOL    HW243891   2.683  11.400  10.287  0.0477 -1.3249  0.7173
12281SOL     OW43892  10.254   7.694  11.332 -0.1416  0.2509  0.1981
12281SOL    HW143893  10.316   7.647  11.275  1.5042  2.6867 -0.1601
12281SOL    HW243894  10.169   7.658  11.310  0.7985 -1.0011 -1.6112
12282SOL     OW43895   9.178  10.199   2.872  0.3892 -0.7255  0.0188
12282SOL    HW143896   9.264  10.241   2.864 -0.4887  1.1918 -0.0042
12282SOL    HW243897   9.152  10.215   2.963 -0.4416 -0.2387 -0.2970
12283SOL     OW43898   0.582   3.816   9.779 -0.3697 -0.0532  0.2888
12283SOL    HW143899   0.617   3.729   9.759  0.0991  0.1864  0.0432
12283SOL    HW243900   0.585   3.863   9.695  1.1521  0.8008  0.7805
12284SOL     OW43901   1.590   2.867   4.266 -0.1677 -0.5398  0.2582
12284SOL    HW143902   1.621   2.956   4.247 -1.3900 -0.6510 -2.8757
12284SOL    HW243903   1.526   2.878   4.336  0.2954  0.9145  0.4871
12285SOL     OW43904   6.456   8.030   0.504  0.8066  0.5729 -0.6126
12285SOL    HW143905   6.415   8.091   0.442  0.4798 -1.1589 -2.2118
12285SOL    HW243906   6.550   8.041   0.490  0.7456  0.5646 -1.0397
12286SOL     OW43907   9.625   4.158   1.910  0.0827 -0.6693  0.4395
12286SOL    HW143908   9.542   4.113   1.924 -0.1394 -0.9827 -1.6473
12286SOL    HW243909   9.669   4.107   1.842  1.2215  0.4847  0.2740
12287SOL     OW43910   3.094   7.530  11.201 -0.2857 -0.2442  0.3252
12287SOL    HW143911   3.131   7.579  11.275  1.5797  2.4342 -2.1643
12287SOL    HW243912   3.003   7.557  11.198 -0.2618 -0.0088  1.3389
12288SOL     OW43913   0.143   2.878   1.777  0.0085 -0.3950 -0.0866
12288SOL    HW143914   0.104   2.927   1.849 -0.6945  0.3297 -0.9363
12288SOL    HW243915   0.179   2.799   1.817  0.1176  0.2578  1.1315
12289SOL     OW43916   0.150   5.967   4.772 -0.1588 -0.0471 -0.2799
12289SOL    HW143917   0.185   5.950   4.684  0.8587  0.2030  0.0553
12289SOL    HW243918   0.144   6.062   4.777 -0.4931 -0.0731 -0.1798
12290SOL     OW43919   3.435  11.576   8.422  0.0314  0.2534 -0.1200
12290SOL    HW143920   3.340  11.570   8.428 -0.2224  2.9041 -0.3361
12290SOL    HW243921   3.452  11.667   8.395  2.6584  0.2412  1.1516
12291SOL     OW43922   9.883   8.041   4.675  0.7705 -0.3533 -0.2190
12291SOL    HW143923   9.893   8.128   4.713  0.7335  0.0652 -1.1473
12291SOL    HW243924   9.907   7.981   4.746  2.2564  0.4359 -0.0201
12292SOL     OW43925  10.883   7.692   5.484 -0.2345 -0.1191 -0.3162
12292SOL    HW143926  10.870   7.764   5.546  1.0191 -1.1236  1.2186
12292SOL    HW243927  10.978   7.686   5.474 -0.3973 -0.4666 -1.7672
12293SOL     OW43928  12.110   5.775   5.686  0.4703  0.3673  0.1542
12293SOL    HW143929  12.023   5.760   5.721  0.1633  1.2155 -0.2236
12293SOL    HW243930  12.146   5.688   5.673 -0.0650  0.0202  0.9395
12294SOL     OW43931   3.229   2.253   1.263  0.1268 -0.1422 -0.2046
12294SOL    HW143932   3.284   2.274   1.338 -0.6841  2.2445 -0.1645
12294SOL    HW243933   3.289   2.252   1.189  0.7219 -1.1079  0.2759
12295SOL     OW43934   0.632  10.080   2.535 -0.7247  0.0447  0.0435
12295SOL    HW143935   0.590  10.003   2.573 -0.2302 -0.3636 -0.2244
12295SOL    HW243936   0.637  10.061   2.441 -2.7202  1.4157 -0.3933
12296SOL     OW43937   7.198   2.608   6.602  0.4897  0.5422 -0.6934
12296SOL    HW143938   7.240   2.550   6.538  0.5258 -0.3417  0.1135
12296SOL    HW243939   7.244   2.591   6.684 -0.8541  0.1819  0.0199
12297SOL     OW43940   2.034   1.770   0.224 -0.4766 -0.3839 -0.5829
12297SOL    HW143941   2.109   1.725   0.263 -0.5231 -0.7368 -0.8990
12297SOL    HW243942   2.019   1.846   0.281 -0.1447 -0.5456 -0.2802
12298SOL     OW43943   8.059   8.347   1.581  0.0351 -0.0757 -0.2815
12298SOL    HW143944   7.980   8.303   1.614  1.2300 -0.2095  2.8157
12298SOL    HW243945   8.028   8.431   1.548 -1.4557 -0.2894  0.4915
12299SOL     OW43946   5.327  10.035   0.649 -0.2226 -0.0911  0.0958
12299SOL    HW143947   5.396  10.081   0.697 -1.4494  0.6500  1.1849
12299SOL    HW243948   5.258  10.019   0.713 -2.1720  1.4319 -1.4691
12300SOL     OW43949  11.503   8.314   1.219 -0.5810 -0.6019 -1.0341
12300SOL    HW143950  11.481   8.405   1.237 -0.6581 -0.8712  0.3375
12300SOL    HW243951  11.439   8.264   1.270 -0.8266 -1.4318 -2.1275
12301SOL     OW43952   5.826   8.624  11.526  0.1564  0.2807  0.1633
12301SOL    HW143953   5.744   8.669  11.547  0.0291 -0.3242  1.0125
12301SOL    HW243954   5.859   8.592  11.610  0.4452 -0.8585 -0.3561
12302SOL     OW43955   0.318  10.212   6.605 -0.1794  0.0044  0.1733
12302SOL    HW143956   0.251  10.278   6.585 -0.3452 -0.2123  0.0133
12302SOL    HW243957   0.352  10.237   6.691  0.2455  0.7046 -0.1828
12303SOL     OW43958   4.457  12.360   0.442  0.3616  0.4495  0.0649
12303SOL    HW143959   4.450  12.371   0.347 -0.1227  2.0627  0.2447
12303SOL    HW243960   4.551  12.354   0.458  0.4455  0.0695 -0.5176
12304SOL     OW43961   1.139  10.965   6.175  0.3673  0.0456 -0.7319
12304SOL    HW143962   1.160  11.051   6.211  0.8644 -0.1220 -0.6201
12304SOL    HW243963   1.157  10.904   6.246  1.6901 -0.3228 -1.3551
12305SOL     OW43964   5.714  12.227   2.925 -0.1961  0.0375 -0.1380
12305SOL    HW143965   5.667  12.297   2.970  1.3093  1.4918 -0.7229
12305SOL    HW243966   5.648  12.184   2.871 -1.6242 -0.4623  1.8914
12306SOL     OW43967   4.510   4.810   2.772  0.1703 -0.4284 -0.0151
12306SOL    HW143968   4.466   4.839   2.852 -0.1812  0.8637 -0.6414
12306SOL    HW243969   4.467   4.728   2.748 -0.5181 -0.2214  0.4956
12307SOL     OW43970   1.900   0.832  11.096  0.1674 -0.5650 -0.1326
12307SOL    HW143971   1.812   0.796  11.089  0.2106 -0.9966  1.2317
12307SOL    HW243972   1.919   0.867  11.009 -0.7240 -1.8894 -0.8871
12308SOL     OW43973   4.617  10.538  11.164 -0.9615  0.2785 -0.0423
12308SOL    HW143974   4.636  10.476  11.234 -0.1400 -0.7320 -1.1256
12308SOL    HW243975   4.554  10.493  11.108  0.3348  0.0192 -1.3448
12309SOL     OW43976   9.469  11.320   4.861  0.7290  0.0631 -0.3520
12309SOL    HW143977   9.544  11.273   4.825 -0.2809 -0.7818 -1.4121
12309SOL    HW243978   9.455  11.393   4.801  1.6989  1.2268  0.7662
12310SOL     OW43979   3.225   5.808   9.048  0.4873  0.1645  0.3416
12310SOL    HW143980   3.318   5.816   9.027  0.0806  0.7251 -1.4963
12310SOL    HW243981   3.216   5.719   9.083  1.2419 -1.2496 -2.6643
12311SOL     OW43982   4.765  10.647   0.383 -0.3057 -0.5650  0.5595
12311SOL    HW143983   4.849  10.631   0.340  0.1446  1.2698  0.6518
12311SOL    HW243984   4.784  10.715   0.448 -1.8037 -0.3220  0.7932
12312SOL     OW43985  10.071   8.390  10.595 -0.3722 -0.2032  0.3086
12312SOL    HW143986  10.161   8.392  10.628  0.0677 -0.0120 -0.8569
12312SOL    HW243987  10.064   8.467  10.538 -1.0690 -0.5697 -0.1179
12313SOL     OW43988   9.985   7.960  10.550  0.3986 -0.1389 -0.2415
12313SOL    HW143989   9.962   8.050  10.529 -0.3737  0.0515  1.2499
12313SOL    HW243990  10.035   7.967  10.631  0.1040 -1.0566  0.0338
12314SOL     OW43991   7.975   8.238   3.812  0.0852  0.1420 -0.3042
12314SOL    HW143992   7.992   8.306   3.878 -0.7311 -0.3897  0.4811
12314SOL    HW243993   7.979   8.156   3.861 -2.3396 -0.1684 -0.5049
12315SOL     OW43994   5.722   7.102  11.930  0.1015 -0.5985 -0.1700
12315SOL    HW143995   5.715   7.068  12.019 -0.4967 -2.3687 -0.8272
12315SOL    HW243996   5.708   7.196  11.938  0.4439 -0.6699  1.6385
12316SOL     OW43997   2.135   1.042   9.064 -0.2281 -0.0930 -0.3686
12316SOL    HW143998   2.040   1.041   9.073 -0.4024  0.9722 -1.8021
12316SOL    HW243999   2.156   0.957   9.025 -0.4899 -0.5935  0.5288
12317SOL     OW44000   0.585  10.934   1.480  0.4292  0.0810 -0.2304
12317SOL    HW144001   0.676  10.962   1.469  0.0593  0.7957 -1.6857
12317SOL    HW244002   0.558  10.905   1.393 -1.8523  3.3361 -0.7857
12318SOL     OW44003   7.728   6.903   7.724 -0.0375  0.3919 -0.0051
12318SOL    HW144004   7.717   6.915   7.819  0.4395 -0.1686  0.1276
12318SOL    HW244005   7.779   6.822   7.716  0.4632  0.7700 -0.7210
12319SOL     OW44006   8.868   5.305   8.982  0.1496  0.7346 -0.5773
12319SOL    HW144007   8.923   5.379   9.005 -0.5227  1.0796 -0.0492
12319SOL    HW244008   8.882   5.293   8.888 -0.8057  2.4369 -0.9787
12320SOL     OW44009   9.301   6.352   1.116 -0.7203 -0.3618 -0.3030
12320SOL    HW144010   9.283   6.259   1.104  0.3786 -0.5635 -0.4292
12320SOL    HW244011   9.379   6.355   1.171 -0.1858  0.4817 -1.0857
12321SOL     OW44012   1.332   0.872   6.405  0.0813  0.0754 -0.1911
12321SOL    HW144013   1.423   0.858   6.432  0.2042  2.4088  0.8763
12321SOL    HW244014   1.337   0.905   6.316  0.3292  0.7677  0.0785
12322SOL     OW44015  12.059   0.568   7.001  0.9520  0.2848  0.9716
12322SOL    HW144016  12.054   0.559   6.906  0.8714 -0.9810  1.0705
12322SOL    HW244017  12.002   0.499   7.034  0.4177  1.1778  1.9409
12323SOL     OW44018   2.332   0.812   6.572 -0.0567 -0.3972 -0.1850
12323SOL    HW144019   2.427   0.809   6.562 -0.0171  0.7544 -0.2686
12323SOL    HW244020   2.317   0.876   6.642 -0.8578  1.8422 -2.2723
12324SOL     OW44021  10.092   0.619  10.479  0.0320  0.3274  0.2538
12324SOL    HW144022  10.028   0.632  10.549 -1.0593  0.0039 -0.6547
12324SOL    HW244023  10.170   0.586  10.524 -0.8365 -0.4501  1.2516
12325SOL     OW44024  11.958   5.503  11.826  0.2096 -0.0227 -0.0073
12325SOL    HW144025  11.887   5.446  11.797 -1.3179  1.0485  1.4344
12325SOL    HW244026  11.981   5.553  11.747 -0.2551 -0.7678 -0.6327
12326SOL     OW44027   2.944   3.331   0.288  0.2248 -0.0661 -0.3046
12326SOL    HW144028   2.953   3.236   0.281 -1.2224 -0.2545  0.0705
12326SOL    HW244029   2.854   3.349   0.260  0.9033  1.3581 -1.6836
12327SOL     OW44030   6.855   1.073   9.917 -0.0235 -0.4941  0.1328
12327SOL    HW144031   6.764   1.105   9.914 -0.3067 -1.1495  1.3235
12327SOL    HW244032   6.850   0.992   9.967  1.3264 -0.2064  0.7646
12328SOL     OW44033   5.634   7.405   7.051  0.7106  0.3000  0.0529
12328SOL    HW144034   5.619   7.420   6.957  0.3056  0.4955  0.1479
12328SOL    HW244035   5.661   7.490   7.085 -1.9582  0.9918  0.6656
12329SOL     OW44036   7.144   6.788   8.630  0.4369  0.2600 -0.0144
12329SOL    HW144037   7.192   6.710   8.600  1.2397  1.0364 -0.8132
12329SOL    HW244038   7.111   6.764   8.716 -0.6586 -1.5164 -0.8595
12330SOL     OW44039   3.682   2.204   0.528 -0.0228 -0.4852 -0.0105
12330SOL    HW144040   3.698   2.133   0.467  0.2012 -0.2862 -0.1868
12330SOL    HW244041   3.668   2.281   0.472  1.0577 -0.1242  0.1996
12331SOL     OW44042  11.088   5.684   3.944  0.8906  0.2077  0.3369
12331SOL    HW144043  11.098   5.637   3.862 -1.0116  1.1772 -0.5162
12331SOL    HW244044  10.996   5.711   3.945  1.5997  2.8749  1.3210
12332SOL     OW44045   7.186   2.972   1.429 -0.3342  0.0048  0.9985
12332SOL    HW144046   7.124   3.031   1.472  0.8569  1.8765  0.2756
12332SOL    HW244047   7.271   3.012   1.443  0.2257  0.1777 -2.1320
12333SOL     OW44048   5.640   1.878   3.027  0.6982 -0.1568  0.2381
12333SOL    HW144049   5.602   1.925   3.102  0.7505 -1.6449  1.2435
12333SOL    HW244050   5.730   1.860   3.054  0.1604 -2.4785  0.7576
12334SOL     OW44051   6.265   5.912   3.285 -0.0918 -0.2807 -0.1148
12334SOL    HW144052   6.305   5.876   3.206  2.0241 -0.3355  0.9080
12334SOL    HW244053   6.252   5.836   3.342 -2.6788 -0.4223 -0.7565
12335SOL     OW44054   2.114   1.609   5.490 -0.0189  0.2485 -0.3312
12335SOL    HW144055   2.158   1.659   5.558  0.2151 -1.5405  0.8943
12335SOL    HW244056   2.023   1.604   5.519 -0.1364  0.3668 -0.6790
12336SOL     OW44057   4.036   0.393   6.820  0.4192 -0.1227  0.0725
12336SOL    HW144058   4.015   0.421   6.731 -0.5581 -0.3348  0.2194
12336SOL    HW244059   4.128   0.415   6.832  0.2406  1.0197 -0.5677
12337SOL     OW44060  10.624   8.590   9.687 -0.4410  0.3295  0.2611
12337SOL    HW144061  10.696   8.548   9.640 -0.8410 -1.0388  0.8075
12337SOL    HW244062  10.553   8.597   9.623 -0.3433  0.2157  0.1414
12338SOL     OW44063   3.259   8.122   5.952  0.5827 -0.2065  0.5113
12338SOL    HW144064   3.231   8.031   5.952 -1.0773  0.2486 -0.8431
12338SOL    HW244065   3.235   8.155   5.865  0.6359  1.6588  1.1455
12339SOL     OW44066   9.961  12.150  10.426  0.0212 -0.8287 -0.1834
12339SOL    HW144067   9.899  12.205  10.474  0.5910 -1.1475  0.9426
12339SOL    HW244068   9.907  12.097  10.368 -0.6139  0.1585 -0.5051
12340SOL     OW44069   6.007   7.832   2.020  0.4125  0.3717 -0.3544
12340SOL    HW144070   5.914   7.853   2.014  0.5668  0.8572 -1.2501
12340SOL    HW244071   6.010   7.745   2.060 -0.3826  0.7000  0.4776
12341SOL     OW44072   7.942  12.229   9.244 -0.1686 -0.1321 -0.1564
12341SOL    HW144073   8.028  12.238   9.287 -0.3182  2.4248 -0.2938
12341SOL    HW244074   7.952  12.150   9.190  2.2993  0.3380 -0.5523
12342SOL     OW44075   3.098  12.443   8.032 -0.7461 -0.1133 -0.0810
12342SOL    HW144076   3.190  12.461   8.052 -0.6976  1.1327 -1.2976
12342SOL    HW244077   3.059  12.529   8.018 -2.1539 -0.6146  0.5603
12343SOL     OW44078   7.541   2.535   0.496  0.2555  0.0217 -0.4884
12343SOL    HW144079   7.565   2.489   0.577 -0.9237  1.8101  0.9769
12343SOL    HW244080   7.493   2.471   0.445 -0.5159 -0.6929  1.0513
12344SOL     OW44081   1.457   3.178   0.223  0.2124 -0.3095 -0.7839
12344SOL    HW144082   1.460   3.193   0.129  1.1859  2.5381 -0.3904
12344SOL    HW244083   1.385   3.233   0.254  1.8661  1.2980  0.4293
12345SOL     OW44084  11.856   7.813  10.831  0.2145 -0.2160  0.2865
12345SOL    HW144085  11.831   7.835  10.742  0.8231  0.2691  0.2218
12345SOL    HW244086  11.821   7.725  10.846  1.0781 -0.7849 -0.8386
12346SOL     OW44087   6.137   7.266   8.197 -0.0567 -0.0689 -0.1190
12346SOL    HW144088   6.058   7.296   8.241 -0.4421 -1.0355 -0.1216
12346SOL    HW244089   6.105   7.222   8.118  0.4806 -0.4772 -0.1133
12347SOL     OW44090  12.277   0.219  10.519  0.3919 -0.3954  0.5669
12347SOL    HW144091  12.245   0.307  10.504  1.2892 -0.0962  0.3309
12347SOL    HW244092  12.198   0.164  10.522 -0.1524  0.3782  0.5161
12348SOL     OW44093  12.442   2.262   8.776  0.3835  0.1412 -0.7338
12348SOL    HW144094  12.366   2.278   8.831  1.0328  1.9906 -0.3033
12348SOL    HW244095  12.405   2.239   8.690 -0.6390 -2.7891  0.3624
12349SOL     OW44096   0.154   2.402   8.640  0.6698  0.0233  0.5632
12349SOL    HW144097   0.140   2.390   8.546 -1.3384  0.5939  0.7545
12349SOL    HW244098   0.121   2.322   8.681 -1.1115  0.9002  0.9409
12350SOL     OW44099   8.477   7.870  11.241 -0.0999  0.3372 -0.1356
12350SOL    HW144100   8.463   7.884  11.147  0.6132  0.2123 -0.2729
12350SOL    HW244101   8.509   7.780  11.246  1.8797  0.9959 -0.0224
12351SOL     OW44102   5.893   8.173  12.233  0.0601 -0.0464 -0.4240
12351SOL    HW144103   5.865   8.159  12.324  0.5431 -0.7134 -0.3698
12351SOL    HW244104   5.840   8.112  12.182  1.4611 -1.4259 -0.3048
12352SOL     OW44105  12.000   7.232   4.189  0.2209 -0.3767 -0.3196
12352SOL    HW144106  11.923   7.184   4.157 -1.8766  1.1909  1.9799
12352SOL    HW244107  11.993   7.319   4.149  1.0498 -0.3450 -0.4125
12353SOL     OW44108   8.687   7.982  12.563 -0.0755  0.5258 -0.0748
12353SOL    HW144109   8.664   8.006  12.472  2.9339  1.1555 -0.7842
12353SOL    HW244110   8.667   8.061  12.613 -2.2818 -0.0062 -0.0099
12354SOL     OW44111   5.681   8.338  10.966 -0.1690  0.0272  0.3502
12354SOL    HW144112   5.775   8.338  10.979 -0.0783 -0.9066 -0.2457
12354SOL    HW244113   5.662   8.424  10.928  0.5194 -0.0043 -0.0835
12355SOL     OW44114   8.299   4.383   9.039  0.1983  0.4591 -0.3089
12355SOL    HW144115   8.342   4.406   8.956  4.0166  1.0992  1.6109
12355SOL    HW244116   8.318   4.290   9.050  2.6022  1.0476  1.2154
12356SOL     OW44117  11.976   5.894   4.771  0.0589 -0.0356  0.5370
12356SOL    HW144118  11.953   5.828   4.705 -0.1953  0.6004 -0.0147
12356SOL    HW244119  11.913   5.965   4.757  0.7516  0.6142  0.7007
12357SOL     OW44120   1.245   4.901   5.984 -0.2272  0.2819 -0.1619
12357SOL    HW144121   1.150   4.893   5.991 -0.0550 -0.6429  1.9517
12357SOL    HW244122   1.265   4.984   6.026 -0.0086 -0.2174  0.7481
12358SOL     OW44123   4.505   0.810   9.727  0.6455 -0.3274 -0.0099
12358SOL    HW144124   4.464   0.724   9.732  0.7504 -0.3367  0.9352
12358SOL    HW244125   4.432   0.871   9.720  0.2894 -0.2439  2.9086
12359SOL     OW44126   9.605   4.497  10.673  0.0434 -0.6059  0.2194
12359SOL    HW144127   9.681   4.544  10.706  0.0107 -0.1444 -0.3544
12359SOL    HW244128   9.577   4.547  10.597 -1.8148  0.1389  1.3464
12360SOL     OW44129   9.532  11.068   9.845 -0.5674 -0.0777 -0.3224
12360SOL    HW144130   9.444  11.099   9.821 -1.1543 -1.5385 -0.1801
12360SOL    HW244131   9.525  11.047   9.938  0.2773  0.8391 -0.0321
12361SOL     OW44132   3.918   7.646   4.130 -0.9481  0.2080 -0.2505
12361SOL    HW144133   3.925   7.689   4.215  0.4525 -1.0264  0.3145
12361SOL    HW244134   3.888   7.557   4.151 -0.1093 -0.2620 -0.9858
12362SOL     OW44135   4.219   4.645   4.111  0.1112 -0.4018  0.4598
12362SOL    HW144136   4.197   4.731   4.074  0.0440  0.5759  2.6449
12362SOL    HW244137   4.212   4.585   4.036 -1.1034  1.2690 -0.8569
12363SOL     OW44138   6.183   8.651  12.417  0.2954 -0.0788  0.4498
12363SOL    HW144139   6.227   8.700  12.347  1.5629 -0.3772  1.0130
12363SOL    HW244140   6.109   8.706  12.441  0.5290  0.5959 -0.3230
12364SOL     OW44141  10.718   7.174   9.252  0.3315 -0.4288 -0.5520
12364SOL    HW144142  10.750   7.199   9.166  2.1868 -0.9661 -0.0680
12364SOL    HW244143  10.737   7.249   9.308 -0.7918 -0.1112 -0.5803
12365SOL     OW44144   1.339   3.848   9.383  0.0895  0.1947 -0.4459
12365SOL    HW144145   1.393   3.774   9.354  2.0026  1.8984 -1.4193
12365SOL    HW244146   1.318   3.895   9.303 -1.8796  0.2918  0.0590
12366SOL     OW44147   7.046  12.194   0.406  0.0726 -0.3001 -0.4022
12366SOL    HW144148   6.960  12.159   0.429  0.2776 -1.5609 -1.4535
12366SOL    HW244149   7.028  12.281   0.372 -0.9816 -1.1368 -2.0753
12367SOL     OW44150   4.818   9.695   9.547 -0.1906 -0.2010  0.1325
12367SOL    HW144151   4.739   9.708   9.599  0.0941  0.7913  0.3401
12367SOL    HW244152   4.825   9.773   9.493  0.2985 -0.5772 -0.3668
12368SOL     OW44153   7.603   9.734   5.645 -0.1543 -0.6214 -0.2305
12368SOL    HW144154   7.603   9.693   5.559 -0.5179  1.5835 -1.3557
12368SOL    HW244155   7.512   9.729   5.674 -0.0147 -1.4453  0.0869
12369SOL     OW44156  10.212  11.808   3.484  0.2316 -0.0822 -0.5275
12369SOL    HW144157  10.254  11.742   3.539  0.5531  0.4160 -0.1564
12369SOL    HW244158  10.251  11.797   3.398  1.2455  0.4542 -0.1579
12370SOL     OW44159   2.993   4.074   8.565 -0.0913 -0.6075 -0.7404
12370SOL    HW144160   2.923   4.015   8.590 -0.4764  0.2821  0.3829
12370SOL    HW244161   3.072   4.034   8.601 -0.5147  0.1706  1.1906
12371SOL     OW44162   2.913  11.385   8.153  0.4878 -0.1156  0.2013
12371SOL    HW144163   2.873  11.424   8.231  1.4749 -0.0673  0.7016
12371SOL    HW244164   2.868  11.302   8.142  0.1521  0.0005  0.6669
12372SOL     OW44165   3.097   8.897   3.066 -0.1392 -0.4134 -0.0693
12372SOL    HW144166   3.068   8.894   3.157  0.3416 -0.6898  0.0757
12372SOL    HW244167   3.020   8.928   3.017 -1.0370 -2.1875  0.1561
12373SOL     OW44168   2.527  11.168   7.092 -0.7227 -0.0761 -0.4919
12373SOL    HW144169   2.509  11.078   7.119 -0.8339 -0.4182 -1.6486
12373SOL    HW244170   2.488  11.223   7.160  0.4259 -0.9053  0.8882
12374SOL     OW44171   8.999   3.798   0.964  0.1781  0.4052  0.5376
12374SOL    HW144172   9.049   3.877   0.983 -0.5517  0.6191  1.6275
12374SOL    HW244173   9.018   3.739   1.037  1.4010 -0.8003 -0.6869
12375SOL     OW44174   3.344   8.001   7.294  0.1944 -0.0961 -0.3406
12375SOL    HW144175   3.377   7.913   7.311  0.0848 -0.1295 -0.3006
12375SOL    HW244176   3.402   8.059   7.343  0.2180 -0.1515 -0.3028
12376SOL     OW44177  11.399   0.792   0.812  0.4114 -0.0120 -0.0483
12376SOL    HW144178  11.362   0.871   0.773  0.4842 -0.2837 -0.6667
12376SOL    HW244179  11.481   0.822   0.853  0.2047  0.3210  0.1265
12377SOL     OW44180   1.315   4.111   3.085  0.4742  0.3656 -0.1637
12377SOL    HW144181   1.246   4.129   3.149  0.5248  0.5739 -0.1670
12377SOL    HW244182   1.298   4.022   3.056  0.6795  0.1244  0.4270
12378SOL     OW44183   8.300   0.162   1.801  0.6758  0.1128  0.4167
12378SOL    HW144184   8.227   0.177   1.861  1.4265  2.4050  0.8752
12378SOL    HW244185   8.333   0.075   1.824 -0.3462  0.0861  1.9061
12379SOL     OW44186  12.318  10.861   7.820  0.3181  0.0576  0.1580
12379SOL    HW144187  12.340  10.913   7.897 -0.9486 -1.2693  1.4924
12379SOL    HW244188  12.222  10.864   7.816  0.1863 -2.0468  0.2808
12380SOL     OW44189   4.126   5.793  10.804  0.7713  0.3031  0.1323
12380SOL    HW144190   4.169   5.876  10.785  1.6046 -0.5252 -1.8820
12380SOL    HW244191   4.195   5.727  10.796  0.3373 -0.5761  2.5963
12381SOL     OW44192   8.900  11.607   1.311  0.5032  1.0963  0.7961
12381SOL    HW144193   8.917  11.693   1.273  0.5027  0.5596 -0.4647
12381SOL    HW244194   8.817  11.618   1.357  0.4417  1.7462  0.5432
12382SOL     OW44195   9.464   5.636   1.748  0.5329 -0.2710  0.3419
12382SOL    HW144196   9.371   5.657   1.746  0.2584 -1.5048 -0.8522
12382SOL    HW244197   9.470   5.557   1.803  1.0933  0.6655  1.6919
12383SOL     OW44198  12.137   1.970   8.777  0.1110 -0.6263  0.1270
12383SOL    HW144199  12.121   1.957   8.870 -0.0727 -2.5621 -0.1379
12383SOL    HW244200  12.068   2.030   8.749 -1.8100 -2.4639  0.6455
12384SOL     OW44201   6.651   9.564  12.537 -0.7532 -0.5360 -0.0106
12384SOL    HW144202   6.580   9.561  12.602 -1.6361 -1.8450 -1.0030
12384SOL    HW244203   6.633   9.643  12.486 -1.0799 -0.4726  0.2014
12385SOL     OW44204   1.013   5.109  11.672  0.1632 -0.1053  0.9957
12385SOL    HW144205   1.082   5.156  11.626  0.3608 -1.1054  0.2369
12385SOL    HW244206   1.060   5.044  11.725 -0.1951 -1.9720 -0.8449
12386SOL     OW44207  11.231   6.251   7.886  0.3158 -0.0167  0.8552
12386SOL    HW144208  11.196   6.265   7.973  1.0976  1.0539  1.0353
12386SOL    HW244209  11.158   6.268   7.827 -0.7728 -2.7671  1.3169
12387SOL     OW44210   8.886  11.683   2.921 -0.0987 -0.0871 -0.1171
12387SOL    HW144211   8.928  11.658   2.838  0.2966 -2.0017  0.6151
12387SOL    HW244212   8.792  11.668   2.906 -0.0267 -0.4412 -0.2085
12388SOL     OW44213   2.190   5.246   7.717 -0.6023 -0.1281  0.2654
12388SOL    HW144214   2.206   5.263   7.810  1.6908  1.8106 -0.3638
12388SOL    HW244215   2.125   5.313   7.691 -0.7317 -0.2259  0.3392
12389SOL     OW44216   9.644   9.821   4.115  0.4160  0.4654  0.1055
12389SOL    HW144217   9.673   9.813   4.206 -1.7915 -1.3380  0.7238
12389SOL    HW244218   9.665   9.736   4.076 -0.6107  0.4484 -0.4407
12390SOL     OW44219   2.967   3.786  10.578 -0.0607 -0.1301 -0.2343
12390SOL    HW144220   3.034   3.725  10.610  0.7182  1.6935  1.7907
12390SOL    HW244221   2.896   3.729  10.548  1.8455 -2.0996 -1.3037
12391SOL     OW44222   8.387   9.972  10.818  0.0242 -0.9097  0.2593
12391SOL    HW144223   8.366  10.034  10.887 -2.5819 -1.5000  0.0980
12391SOL    HW244224   8.445  10.020  10.759 -1.8252  1.4236  0.1794
12392SOL     OW44225   6.462   2.173  12.069 -0.2897 -0.0673 -0.0108
12392SOL    HW144226   6.483   2.240  12.135  0.5564 -0.7809  0.4706
12392SOL    HW244227   6.386   2.127  12.104 -0.4332  0.1745 -0.0002
12393SOL     OW44228   1.375   6.740   8.790 -0.3216  0.3958  1.0060
12393SOL    HW144229   1.368   6.653   8.827  1.7043 -0.0587  0.4746
12393SOL    HW244230   1.355   6.728   8.697  0.3963  0.3916  0.8455
12394SOL     OW44231   3.459  10.807   1.827 -0.2218  0.1709  0.0265
12394SOL    HW144232   3.400  10.733   1.814 -0.2357  0.1977 -0.0659
12394SOL    HW244233   3.531  10.791   1.766 -0.0077  0.0051  0.3184
12395SOL     OW44234   4.386   7.630   1.683  0.3375 -0.3775  0.6732
12395SOL    HW144235   4.373   7.719   1.716  1.2112 -0.3623  0.9958
12395SOL    HW244236   4.451   7.592   1.741  1.6956 -0.4602 -0.8347
12396SOL     OW44237  12.467   1.227   0.670 -0.5485 -1.3037  0.3310
12396SOL    HW144238  12.412   1.152   0.692 -2.4805  0.2828  1.2624
12396SOL    HW244239  12.413   1.280   0.611  0.8922 -0.7702 -0.5781
12397SOL     OW44240  12.011   0.205  11.744  0.2169  0.0493  0.0166
12397SOL    HW144241  11.934   0.246  11.783  0.6970  2.1048 -1.0251
12397SOL    HW244242  12.052   0.156  11.816  0.0135  2.0712  1.5985
12398SOL     OW44243   1.882   3.613  11.739  0.1183 -0.0059 -0.1993
12398SOL    HW144244   1.824   3.646  11.671 -0.3509 -0.1332  0.1320
12398SOL    HW244245   1.968   3.611  11.698  0.1992  1.7141 -0.2181
12399SOL     OW44246  11.765   5.835   6.366  0.9615  0.5288 -0.1427
12399SOL    HW144247  11.780   5.742   6.380 -0.2521  0.4543  0.8230
12399SOL    HW244248  11.735   5.868   6.451 -0.7060  1.3505 -0.9972
12400SOL     OW44249  10.570   6.461  12.399 -0.0130  0.5283 -0.3151
12400SOL    HW144250  10.655   6.448  12.357 -1.3053 -1.8357 -2.5140
12400SOL    HW244251  10.532   6.535  12.352 -0.0161  0.1954 -0.8444
12401SOL     OW44252   1.785   3.895   7.267  0.1711 -0.2218 -0.5245
12401SOL    HW144253   1.814   3.875   7.178  0.6253 -1.1629 -0.1735
12401SOL    HW244254   1.763   3.810   7.305  0.3518  0.1322  0.3985
12402SOL     OW44255   9.883  10.726   1.063  0.4604 -0.8758 -0.1838
12402SOL    HW144256   9.829  10.723   0.984 -0.6043  0.3791  0.4644
12402SOL    HW244257   9.883  10.636   1.095 -1.2018 -0.9260 -0.2463
12403SOL     OW44258  12.591   6.617   7.665 -0.6215  0.2559 -0.0224
12403SOL    HW144259  12.540   6.668   7.603 -1.2895  1.5991  1.5441
12403SOL    HW244260  12.561   6.646   7.751  1.2119 -0.5352  0.9559
12404SOL     OW44261  11.121   2.660   1.373  0.2249 -0.3656 -0.4839
12404SOL    HW144262  11.194   2.707   1.414 -0.7735  0.3863  0.4920
12404SOL    HW244263  11.139   2.665   1.279  1.0300  0.5007 -0.3016
12405SOL     OW44264   3.603   8.512  10.195  0.4008 -0.4387  0.0377
12405SOL    HW144265   3.661   8.576  10.156 -0.0981  0.0414  0.0647
12405SOL    HW244266   3.519   8.558  10.202 -0.0918 -1.2611 -0.4033
12406SOL     OW44267   1.113  10.736   0.608 -0.2126 -0.3081  0.2311
12406SOL    HW144268   1.122  10.641   0.613 -1.4862 -0.5111 -0.7933
12406SOL    HW244269   1.182  10.770   0.665  0.3518 -1.8378  0.4999
12407SOL     OW44270  12.119   7.569   0.611 -0.2188  0.6493  0.0864
12407SOL    HW144271  12.044   7.603   0.660  0.7444 -1.1775  3.1639
12407SOL    HW244272  12.187   7.635   0.622  0.5656 -0.5018  3.0383
12408SOL     OW44273   9.099   2.863   0.559  0.1915 -0.1004  0.1339
12408SOL    HW144274   9.029   2.812   0.520  1.1492 -1.4081  0.0601
12408SOL    HW244275   9.112   2.824   0.645  0.4235  0.5310  0.3942
12409SOL     OW44276  11.192  11.828   7.076 -0.1465 -0.2302  0.1772
12409SOL    HW144277  11.147  11.889   7.017 -0.3436  0.5710  1.1284
12409SOL    HW244278  11.152  11.743   7.058 -0.0358 -0.0557 -1.0002
12410SOL     OW44279   2.446   5.399   1.728 -0.0682 -0.3557  0.0585
12410SOL    HW144280   2.489   5.431   1.807 -0.2204 -0.3684  0.1461
12410SOL    HW244281   2.507   5.421   1.657 -0.9974  1.8996 -0.1453
12411SOL     OW44282  11.611   0.656  11.715  0.1480  0.1009 -0.7737
12411SOL    HW144283  11.558   0.576  11.722  3.4386 -2.2606 -0.7310
12411SOL    HW244284  11.553   0.719  11.671 -2.5345 -2.3349 -1.0440
12412SOL     OW44285   0.060   8.230   2.400  0.5095  0.5135 -0.3686
12412SOL    HW144286  -0.017   8.184   2.367  0.0049  1.2119 -0.1689
12412SOL    HW244287   0.087   8.287   2.328  0.9314  0.1747 -0.4884
12413SOL     OW44288   1.130  12.486   7.836  0.0665  0.5958  0.0730
12413SOL    HW144289   1.200  12.551   7.838  0.9482 -0.3349  0.6236
12413SOL    HW244290   1.058  12.529   7.790  1.3012  1.2830 -1.2983
12414SOL     OW44291   3.628   3.831   7.041  1.0739 -0.2164 -0.1749
12414SOL    HW144292   3.574   3.770   6.990  0.6095 -0.9410  1.1266
12414SOL    HW244293   3.716   3.821   7.005  1.4104 -3.0622  1.1376
12415SOL     OW44294   8.208   2.029   9.500  0.5110 -0.4392 -0.3051
12415SOL    HW144295   8.220   2.076   9.418  1.4398  2.4808  1.3578
12415SOL    HW244296   8.130   2.068   9.539 -0.0928 -1.9922  0.1190
12416SOL     OW44297   3.207   1.868   3.048 -0.3944  0.4860 -0.2466
12416SOL    HW144298   3.195   1.905   3.135 -0.4147  1.5512 -0.6908
12416SOL    HW244299   3.163   1.930   2.989  0.9902  0.6379 -1.1654
12417SOL     OW44300   4.629   1.519   3.655  0.7829  0.1067  0.6519
12417SOL    HW144301   4.551   1.482   3.697  0.4950 -0.0470 -0.0056
12417SOL    HW244302   4.616   1.504   3.561 -0.0605  3.1792  0.1780
12418SOL     OW44303   8.054   6.585  11.836  0.0416 -0.4408  0.0712
12418SOL    HW144304   7.979   6.641  11.817  0.3260 -0.3187 -0.7378
12418SOL    HW244305   8.115   6.602  11.765  0.6580 -0.8592  0.4924
12419SOL     OW44306   9.525  11.614  10.222  0.0206 -0.1099  0.0639
12419SOL    HW144307   9.562  11.579  10.141 -0.4255 -0.9128  0.2075
12419SOL    HW244308   9.588  11.590  10.290 -0.9456 -1.8765  0.3809
12420SOL     OW44309   5.807   4.696   8.140  0.8664  0.2044 -0.1284
12420SOL    HW144310   5.824   4.672   8.231  0.7559  0.9500  0.0947
12420SOL    HW244311   5.793   4.791   8.142 -0.8414 -0.0022 -0.6655
12421SOL     OW44312  10.702   4.946  12.366  0.1632  0.2352 -0.1432
12421SOL    HW144313  10.701   5.024  12.422 -0.7532 -0.4706  0.8858
12421SOL    HW244314  10.612   4.914  12.370  1.0625 -2.3837  1.6739
12422SOL     OW44315  11.531  11.132   9.262  0.5481 -0.0350 -0.5178
12422SOL    HW144316  11.525  11.177   9.178 -1.8706  0.3864 -0.1975
12422SOL    HW244317  11.471  11.179   9.319  2.6420  0.1528  1.7284
12423SOL     OW44318   3.372   3.293   3.945  0.6829 -0.4270 -0.0756
12423SOL    HW144319   3.352   3.320   4.035 -0.4528  0.3222 -0.5310
12423SOL    HW244320   3.467   3.294   3.940  0.7218  1.4424  0.5493
12424SOL     OW44321  11.324   0.969   3.159  0.0933  0.2839  0.3268
12424SOL    HW144322  11.392   0.925   3.109 -0.4749  0.0405 -0.2489
12424SOL    HW244323  11.351   0.961   3.250  0.9176  0.3404  0.0902
12425SOL     OW44324   4.580   7.874   0.027  0.0499 -0.2965 -0.8062
12425SOL    HW144325   4.493   7.914   0.017 -0.5508 -1.9813 -3.0817
12425SOL    HW244326   4.562   7.788   0.065  0.9368  0.0144  0.3724
12426SOL     OW44327   6.377   2.278   3.536 -0.0550 -0.0681  0.5497
12426SOL    HW144328   6.377   2.351   3.597  0.6697 -0.1191  0.6159
12426SOL    HW244329   6.445   2.219   3.568 -0.3350 -0.5638  0.2518
12427SOL     OW44330   5.489   0.701   9.761 -0.6064  0.9173  0.1652
12427SOL    HW144331   5.531   0.616   9.769  0.3791  1.2219 -1.2796
12427SOL    HW244332   5.557   0.764   9.785  0.0253  1.4379 -2.5811
12428SOL     OW44333  11.317   8.764   1.622 -0.3231  0.5939  0.4305
12428SOL    HW144334  11.234   8.783   1.665 -2.2358 -0.1049 -2.6069
12428SOL    HW244335  11.355   8.694   1.673 -2.2009  0.1342  1.2839
12429SOL     OW44336   2.488  11.538  10.046  0.1825 -0.0145 -0.2838
12429SOL    HW144337   2.434  11.477  10.096  0.5992 -2.1444 -2.2314
12429SOL    HW244338   2.517  11.603  10.109 -2.5820 -0.2304  1.3470
12430SOL     OW44339   2.417  11.914   3.443  0.1862  0.1954  0.0041
12430SOL    HW144340   2.361  11.991   3.432  1.5624  1.3795  0.8191
12430SOL    HW244341   2.397  11.882   3.531  0.4334  0.3311  0.1113
12431SOL     OW44342   5.949   0.647   1.066  0.5952  0.2726  0.2388
12431SOL    HW144343   5.917   0.737   1.062  0.5458  0.2106 -1.8192
12431SOL    HW244344   5.955   0.627   1.159 -0.5989  1.9715  0.7103
12432SOL     OW44345   4.938   9.651  12.090 -0.4376 -0.4866 -0.7888
12432SOL    HW144346   5.027   9.652  12.126  0.2078  0.3568 -2.3255
12432SOL    HW244347   4.887   9.603  12.155  0.3634  2.0782  1.9226
12433SOL     OW44348   9.402   2.420   7.246 -0.7451  0.5331 -0.2554
12433SOL    HW144349   9.389   2.391   7.156  0.8966 -0.0863 -0.3235
12433SOL    HW244350   9.395   2.340   7.298 -0.5912  0.7131  0.0454
12434SOL     OW44351   0.313   8.173  10.024  0.2027 -0.4331 -0.1559
12434SOL    HW144352   0.341   8.264  10.028  1.6346 -0.8546  0.2856
12434SOL    HW244353   0.394   8.123  10.039 -0.4435 -1.7742 -0.9621
12435SOL     OW44354   2.382   2.135  12.447  0.2916  0.6198  0.0113
12435SOL    HW144355   2.449   2.200  12.425  0.8066 -0.3472 -1.4988
12435SOL    HW244356   2.391   2.122  12.541  1.5372  1.2723  0.0048
12436SOL     OW44357  11.442   3.649   4.041  0.2361  0.0483 -0.3751
12436SOL    HW144358  11.369   3.619   3.987 -1.1617  2.1254  0.2545
12436SOL    HW244359  11.473   3.729   3.999  0.1411  0.8458  0.9965
12437SOL     OW44360   8.193   5.115   0.936 -0.1518  0.3063 -0.2346
12437SOL    HW144361   8.191   5.060   0.857  0.3477 -0.7021  0.4180
12437SOL    HW244362   8.141   5.066   1.000  0.4912  0.4691  0.4312
12438SOL     OW44363   5.948   9.339   8.916  0.1412 -0.0580 -0.0935
12438SOL    HW144364   5.855   9.323   8.901 -0.1357  1.9002 -0.7011
12438SOL    HW244365   5.992   9.292   8.845 -0.4712  0.0447 -0.5487
12439SOL     OW44366   8.867   2.253   1.381  0.6476 -0.2396  0.2853
12439SOL    HW144367   8.866   2.187   1.450  2.6976  0.1288  0.7407
12439SOL    HW244368   8.927   2.219   1.315  1.1488  0.8024  0.1738
12440SOL     OW44369  10.944  11.224   2.703  0.0824 -0.0535 -0.0575
12440SOL    HW144370  10.986  11.142   2.726  1.7753  0.2341 -1.8545
12440SOL    HW244371  10.986  11.289   2.760  1.5550  0.1021 -1.2617
12441SOL     OW44372   7.388   1.416   6.928  0.0715 -0.2507 -0.0530
12441SOL    HW144373   7.307   1.431   6.879  1.2809  2.4406 -1.4549
12441SOL    HW244374   7.388   1.322   6.947 -2.6593 -0.5715 -1.2407
12442SOL     OW44375   2.772   6.291  10.731  0.3152  0.1281  0.2716
12442SOL    HW144376   2.835   6.349  10.689  0.6974 -1.0243 -0.8046
12442SOL    HW244377   2.695   6.346  10.746  0.2492  0.6466 -1.7519
12443SOL     OW44378   6.273   8.844   1.579 -0.0961 -0.4944  0.2017
12443SOL    HW144379   6.360   8.874   1.602 -0.3991 -0.7494  1.8006
12443SOL    HW244380   6.276   8.749   1.587 -0.5945 -0.4877  0.5330
12444SOL     OW44381  10.612   8.610   0.603 -0.0974 -1.2815 -0.3814
12444SOL    HW144382  10.641   8.603   0.512  0.2502  1.2336 -0.5487
12444SOL    HW244383  10.687   8.582   0.655  2.0547  2.7763 -0.8635
12445SOL     OW44384   5.009  10.594   6.713 -0.1748  0.1657 -0.3049
12445SOL    HW144385   5.082  10.590   6.650 -0.4947  2.7294 -0.9548
12445SOL    HW244386   4.941  10.539   6.673  0.4597 -0.1470 -0.9977
12446SOL     OW44387   1.328  10.471   6.868  0.2194  0.0763  0.0614
12446SOL    HW144388   1.314  10.377   6.874 -0.2891  0.1768  0.6038
12446SOL    HW244389   1.344  10.488   6.776  1.4404 -0.6923  0.1052
12447SOL     OW44390   7.233   0.914   3.418 -0.6894 -0.6556 -0.6049
12447SOL    HW144391   7.154   0.863   3.401 -1.0031 -0.3939  0.0333
12447SOL    HW244392   7.299   0.849   3.442 -0.5123 -0.9386 -1.7771
12448SOL     OW44393   9.063   7.706   6.440  0.4581 -0.2792  0.1359
12448SOL    HW144394   9.142   7.729   6.488 -0.7320  0.4338  1.8386
12448SOL    HW244395   9.032   7.625   6.481 -0.8551  0.6139  0.9867
12449SOL     OW44396  11.104   9.590   5.661  0.2023 -0.0460  0.0953
12449SOL    HW144397  11.174   9.642   5.622 -0.3634 -0.4498 -1.5237
12449SOL    HW244398  11.055   9.555   5.586 -1.1731 -0.5262  1.1752
12450SOL     OW44399   1.577   7.143   3.056 -0.0480 -0.3070 -0.0730
12450SOL    HW144400   1.543   7.229   3.029  3.5220  2.2117  2.4238
12450SOL    HW244401   1.528   7.123   3.136 -1.0198 -0.7809 -0.7604
12451SOL     OW44402   3.457   8.861  10.980  0.3321 -0.4754  0.3258
12451SOL    HW144403   3.467   8.786  11.039  0.3009 -0.4594  0.3512
12451SOL    HW244404   3.379   8.907  11.013  0.8385  0.0388  0.8146
12452SOL     OW44405   4.598   7.982   3.955 -0.1653 -0.3644 -0.2672
12452SOL    HW144406   4.616   8.075   3.970  0.3695 -0.5507  0.2517
12452SOL    HW244407   4.516   7.966   4.001 -1.9541  0.5602 -2.9019
12453SOL     OW44408   9.542   2.697   4.113 -0.8270 -0.0765 -0.0867
12453SOL    HW144409   9.591   2.749   4.049 -0.3193 -0.0144  0.3416
12453SOL    HW244410   9.599   2.695   4.190 -2.1122  1.2366  0.9582
12454SOL     OW44411   0.855   9.662   1.950 -0.4852 -0.0652  0.0853
12454SOL    HW144412   0.784   9.670   2.014  1.7078 -0.4056  2.7533
12454SOL    HW244413   0.882   9.752   1.933 -1.0136  0.0239 -0.2929
12455SOL     OW44414   6.623   5.196  10.020  0.5500 -0.5738 -0.8151
12455SOL    HW144415   6.673   5.120   9.987 -1.0624 -1.2128 -1.9214
12455SOL    HW244416   6.625   5.258   9.947  4.6673  2.0567  1.1667
12456SOL     OW44417   4.270   9.743   5.939  0.2821 -0.1672 -0.5084
12456SOL    HW144418   4.281   9.739   5.844 -1.4581 -1.1674 -0.7091
12456SOL    HW244419   4.180   9.774   5.952  0.8557  1.0363  0.8453
12457SOL     OW44420  10.797  11.006   6.006 -0.3290  0.2178  0.2167
12457SOL    HW144421  10.834  10.937   5.951 -1.7209 -0.3662 -0.0084
12457SOL    HW244422  10.874  11.047   6.046  0.6296 -0.2976 -1.0091
12458SOL     OW44423   4.786   8.682   4.295 -0.2551 -0.2779 -0.0096
12458SOL    HW144424   4.822   8.599   4.324 -0.2525 -0.0975  0.5146
12458SOL    HW244425   4.800   8.742   4.369  1.5042  0.7241 -1.0930
12459SOL     OW44426  10.942   0.784   0.336 -0.3006  0.1284 -0.1255
12459SOL    HW144427  10.928   0.863   0.284  1.3388  1.2738  1.0635
12459SOL    HW244428  10.942   0.814   0.427  2.6646 -0.7734  0.2845
12460SOL     OW44429  12.467   9.867  10.038 -0.2490 -0.0557 -0.2431
12460SOL    HW144430  12.514   9.946  10.015 -0.7409  0.3931  0.2601
12460SOL    HW244431  12.518   9.829  10.110  0.2033 -0.4192 -0.7433
12461SOL     OW44432  10.686   2.469  10.801  0.3880  0.7527 -0.0119
12461SOL    HW144433  10.742   2.528  10.750 -0.3658  0.4356 -1.2528
12461SOL    HW244434  10.620   2.527  10.839  0.5622  0.9049  0.0641
12462SOL     OW44435   1.216   6.146  10.851 -0.1060 -0.0338 -0.5141
12462SOL    HW144436   1.141   6.195  10.818  0.3004  1.1300  0.2285
12462SOL    HW244437   1.278   6.213  10.880  0.0847 -0.9516  1.3860
12463SOL     OW44438   1.392   7.050  10.980 -0.1729 -0.2632  0.1742
12463SOL    HW144439   1.338   6.996  10.922  1.1677 -1.7550  0.2273
12463SOL    HW244440   1.333   7.079  11.049 -1.4092  0.1212 -1.0187
12464SOL     OW44441   7.426   2.838   0.612 -0.4852 -0.5532  0.4655
12464SOL    HW144442   7.343   2.801   0.584  0.0550 -0.1312 -1.8360
12464SOL    HW244443   7.488   2.812   0.544  0.4325  2.4619  0.0188
12465SOL     OW44444   2.302  11.815   4.546  0.2402 -0.4782 -0.1263
12465SOL    HW144445   2.217  11.800   4.505  0.6668 -2.6208 -0.3582
12465SOL    HW244446   2.334  11.727   4.566  1.9702  0.3321  0.8512
12466SOL     OW44447   6.821   8.965   2.482 -0.0538 -0.0121 -0.0674
12466SOL    HW144448   6.902   9.005   2.448 -1.4665  2.7031 -0.5566
12466SOL    HW244449   6.758   8.974   2.410 -1.2428 -0.5306  0.8839
12467SOL     OW44450   4.330   9.647   9.007  0.1216 -0.0046  0.4123
12467SOL    HW144451   4.390   9.586   9.050 -2.2954 -0.7563  2.9733
12467SOL    HW244452   4.274   9.592   8.953  0.4024  0.4483 -0.3585
12468SOL     OW44453  12.450   3.777   5.088  0.3764  0.2609 -0.0860
12468SOL    HW144454  12.417   3.812   5.005  3.0895  1.5497 -0.7473
12468SOL    HW244455  12.539   3.749   5.068  1.0769  0.5414  2.3566
12469SOL     OW44456  10.727   8.157   7.571 -0.4103  0.2701  0.1910
12469SOL    HW144457  10.777   8.095   7.517 -0.8953 -0.0430  0.0949
12469SOL    HW244458  10.747   8.243   7.533 -0.1284  0.1267  0.0088
12470SOL     OW44459  10.114   9.299   1.648  0.8758  0.0805  0.4039
12470SOL    HW144460  10.062   9.327   1.572  0.8222 -0.6219  0.1649
12470SOL    HW244461  10.192   9.353   1.646  0.8330  0.1255 -0.1103
12471SOL     OW44462  11.217  12.151  12.274  0.2178  0.8708  0.0654
12471SOL    HW144463  11.135  12.142  12.323  0.0973 -0.8319 -0.3887
12471SOL    HW244464  11.193  12.203  12.197 -0.8982 -1.0524 -0.9675
12472SOL     OW44465   6.910   2.554  12.244 -0.8598 -0.4496 -0.1150
12472SOL    HW144466   6.835   2.612  12.235 -1.4704 -1.3193 -0.9040
12472SOL    HW244467   6.880   2.483  12.300 -0.6721 -0.8558 -0.5147
12473SOL     OW44468   4.909  11.520   5.846  0.0170 -0.6672 -0.1966
12473SOL    HW144469   4.900  11.611   5.820  2.0339 -0.1426  0.7742
12473SOL    HW244470   4.920  11.473   5.763  1.7746  0.3700 -0.6033
12474SOL     OW44471   1.991   5.943   7.256  0.3649 -0.1467 -0.1446
12474SOL    HW144472   1.945   5.860   7.271 -0.5217 -0.2224 -2.6714
12474SOL    HW244473   1.925   6.010   7.273  0.1233 -0.1353 -1.0469
12475SOL     OW44474   8.447   6.888   0.573  0.4027 -0.1977  0.4445
12475SOL    HW144475   8.391   6.811   0.588 -0.1556  0.5910  2.8708
12475SOL    HW244476   8.516   6.880   0.639 -1.7425  3.1818  3.4741
12476SOL     OW44477  11.182   9.068   0.671  0.3221 -0.0241  0.0603
12476SOL    HW144478  11.137   9.130   0.729 -0.5405  0.4760 -1.1040
12476SOL    HW244479  11.116   9.002   0.651 -0.4005  1.3672 -2.6449
12477SOL     OW44480   7.210  10.646   9.765  0.6733 -0.3375 -0.1119
12477SOL    HW144481   7.281  10.600   9.810 -1.5525 -1.9182  2.0542
12477SOL    HW244482   7.232  10.739   9.775  1.2516 -0.6810  2.7312
12478SOL     OW44483   8.301  10.245   5.690  0.4369 -0.4515 -0.1540
12478SOL    HW144484   8.229  10.305   5.671  1.7470  1.3671  0.3615
12478SOL    HW244485   8.288  10.172   5.629 -1.9240 -0.3073  0.0668
12479SOL     OW44486  11.497   0.808   7.856  0.0679 -0.4231  0.4966
12479SOL    HW144487  11.429   0.775   7.914 -0.5840 -0.9922 -0.5490
12479SOL    HW244488  11.452   0.823   7.772  1.1980 -0.7249 -0.1949
12480SOL     OW44489  12.461   8.587   1.381  0.0209 -0.5496  0.7667
12480SOL    HW144490  12.394   8.573   1.314 -0.6596 -1.4513  1.5918
12480SOL    HW244491  12.490   8.499   1.404  1.3875 -0.1753  0.5553
12481SOL     OW44492   5.139   8.395   1.843 -0.1401  0.0138  0.0689
12481SOL    HW144493   5.143   8.397   1.748  2.6681 -4.2251 -0.1731
12481SOL    HW244494   5.205   8.459   1.871  0.0945  0.2182 -0.9091
12482SOL     OW44495   2.079  10.063   4.538 -0.0082 -0.0894  0.2718
12482SOL    HW144496   2.169  10.066   4.571 -0.1712  0.7808  0.6948
12482SOL    HW244497   2.075   9.984   4.486  0.3493 -1.4174  2.1514
12483SOL     OW44498   5.632   4.753   0.308  0.3052 -0.3407  0.1574
12483SOL    HW144499   5.678   4.677   0.346  0.6327  0.2777  1.0339
12483SOL    HW244500   5.540   4.726   0.305  0.2302 -0.3120  1.6679
12484SOL     OW44501   2.343   7.723   7.740  0.2773  0.0678  0.1240
12484SOL    HW144502   2.437   7.733   7.760  0.2498  0.0104  0.2869
12484SOL    HW244503   2.305   7.809   7.756  0.1797 -0.0885  0.7438
12485SOL     OW44504   4.351   8.076   4.347 -0.1122  0.1001  0.0372
12485SOL    HW144505   4.415   8.069   4.418 -0.4492 -0.4828  0.2899
12485SOL    HW244506   4.399   8.121   4.277  0.7143 -0.6942  0.0676
12486SOL     OW44507  10.859   9.564   4.043 -0.4038  0.3661  0.0182
12486SOL    HW144508  10.889   9.547   3.954 -0.5691  2.4535 -0.4926
12486SOL    HW244509  10.931   9.610   4.085  0.1069 -1.5652  1.3657
12487SOL     OW44510  11.690   5.701  11.277  0.7690  0.1904  0.4661
12487SOL    HW144511  11.745   5.669  11.205  0.1646  1.0064 -0.3873
12487SOL    HW244512  11.636   5.626  11.301 -1.4376  0.7376 -2.2715
12488SOL     OW44513   6.972   5.885   4.743 -0.0816 -0.9276  0.2917
12488SOL    HW144514   7.051   5.882   4.689 -0.4156 -1.8989 -0.1631
12488SOL    HW244515   6.900   5.872   4.682 -0.4025 -3.4371  1.0558
12489SOL     OW44516   2.533   1.655   0.740 -0.5515  0.0102 -0.0075
12489SOL    HW144517   2.627   1.653   0.725 -0.5371  0.6821 -0.0316
12489SOL    HW244518   2.523   1.680   0.832 -0.6804 -2.1807  0.6404
12490SOL     OW44519   9.715   6.833   9.400  0.2212  0.0230  0.4014
12490SOL    HW144520   9.777   6.864   9.334  0.0267 -0.0463  0.1876
12490SOL    HW244521   9.766   6.772   9.454  0.0713 -0.8529 -0.4153
12491SOL     OW44522   3.922   0.881   3.578  0.1316 -0.2229  0.4891
12491SOL    HW144523   3.833   0.911   3.559  0.0855 -0.5055  0.2520
12491SOL    HW244524   3.926   0.792   3.544  0.1450 -0.6415  1.5620
12492SOL     OW44525   9.736   5.016   4.949 -0.0972  0.4805 -0.5610
12492SOL    HW144526   9.693   5.070   4.883  0.3255 -0.7638 -1.9193
12492SOL    HW244527   9.721   4.926   4.920  0.5987 -0.0867  0.7423
12493SOL     OW44528   7.610   0.435   7.817 -0.7348 -0.0308  0.5892
12493SOL    HW144529   7.582   0.347   7.790 -0.2725  0.0264 -0.1127
12493SOL    HW244530   7.647   0.473   7.738  2.9572 -0.7616  1.7513
12494SOL     OW44531   7.908   5.239   3.703  0.0250  0.2221 -0.3893
12494SOL    HW144532   7.908   5.265   3.795  0.8743  3.4323 -1.1625
12494SOL    HW244533   7.815   5.234   3.680 -0.1930 -0.2615  0.5132
12495SOL     OW44534   8.011  10.964   2.468 -0.2644 -0.1966  0.1416
12495SOL    HW144535   7.958  10.977   2.547  0.7240 -2.5579  1.2998
12495SOL    HW244536   7.997  10.872   2.445  2.4505 -0.6204 -0.1223
12496SOL     OW44537   3.548   3.625   6.274  0.0112  0.3940  0.3839
12496SOL    HW144538   3.499   3.646   6.194  2.3888 -0.2472 -1.3513
12496SOL    HW244539   3.531   3.532   6.288  0.5196  0.2245 -0.0866
12497SOL     OW44540   3.399  10.530   9.333  0.4447 -0.1084  0.0038
12497SOL    HW144541   3.494  10.530   9.317  0.7606 -1.6542  1.5506
12497SOL    HW244542   3.364  10.468   9.270  0.3982  0.6686 -0.7548
12498SOL     OW44543   6.042   4.009   6.820  0.0626 -0.5049 -0.5356
12498SOL    HW144544   6.006   4.015   6.731 -0.2709  0.8123 -0.3279
12498SOL    HW244545   5.966   4.023   6.877  0.3671 -0.8480 -0.0434
12499SOL     OW44546   9.473   3.773   2.540  0.5284 -0.0679 -0.0830
12499SOL    HW144547   9.555   3.758   2.587  2.0350 -1.0927 -2.7666
12499SOL    HW244548   9.425   3.690   2.549  1.2973 -0.6587 -1.1190
12500SOL     OW44549   8.099   8.980   0.215  0.4586 -0.2721  0.2167
12500SOL    HW144550   8.108   8.908   0.153 -0.7818 -1.4232  1.2938
12500SOL    HW244551   8.161   8.960   0.285 -0.3240 -0.6804  0.8215
12501SOL     OW44552   1.050   0.169  11.541 -0.5507 -0.6925  0.2206
12501SOL    HW144553   1.023   0.163  11.633 -1.0195 -0.9986  0.0601
12501SOL    HW244554   0.969   0.169  11.492 -0.3782  0.8462 -0.1367
12502SOL     OW44555   7.942   7.377   2.346  0.3169 -0.2582 -0.3852
12502SOL    HW144556   7.860   7.344   2.383 -0.3269  0.2060 -1.3712
12502SOL    HW244557   7.980   7.432   2.415 -1.0341  0.8803 -0.5162
12503SOL     OW44558   3.451   6.649  10.732  0.1144 -0.1557  0.1643
12503SOL    HW144559   3.465   6.723  10.672 -0.7329 -0.5489 -0.5476
12503SOL    HW244560   3.433   6.690  10.817  0.7493  0.4297  0.0245
12504SOL     OW44561   7.447   8.208  10.349 -0.5016  0.2008 -0.0299
12504SOL    HW144562   7.511   8.221  10.278 -0.1119 -1.3023  0.0107
12504SOL    HW244563   7.424   8.296  10.376  1.1740  0.7983 -0.4023
12505SOL     OW44564   3.162   2.860   4.949 -0.3064 -0.0035  0.0222
12505SOL    HW144565   3.123   2.925   5.008 -0.4324 -0.5814  0.5923
12505SOL    HW244566   3.222   2.811   5.005 -0.4745 -0.6057 -0.3193
12506SOL     OW44567  10.771  10.107   8.440  0.0988 -0.0511  0.0002
12506SOL    HW144568  10.769  10.070   8.352 -0.4086 -0.3223  0.1229
12506SOL    HW244569  10.811  10.193   8.430  0.6284 -0.3408 -0.3997
12507SOL     OW44570   1.867   9.252   0.140 -0.1240  0.4824  0.4426
12507SOL    HW144571   1.877   9.346   0.125  0.5858  0.4715  0.7991
12507SOL    HW244572   1.834   9.217   0.057  0.7396  0.8712 -0.0724
12508SOL     OW44573   3.620   6.618   0.950  0.4018  0.0388  0.3961
12508SOL    HW144574   3.639   6.700   0.905  3.9689 -0.5822  0.4487
12508SOL    HW244575   3.586   6.560   0.882  0.9121  0.6291 -0.3740
12509SOL     OW44576   1.222   4.243   7.085  0.0786  0.1422 -0.2709
12509SOL    HW144577   1.277   4.283   7.152 -0.6665 -2.5990  2.1429
12509SOL    HW244578   1.276   4.175   7.046 -0.6628 -0.7144  0.1654
12510SOL     OW44579   5.286   8.014   8.709  0.2168 -0.3293  0.0815
12510SOL    HW144580   5.343   8.090   8.707  0.2777 -0.3802 -1.5114
12510SOL    HW244581   5.345   7.940   8.724  0.6417 -0.3949 -1.6854
12511SOL     OW44582   3.345   7.508  11.037  0.2052 -0.3577 -0.0935
12511SOL    HW144583   3.340   7.421  10.996  1.4099 -1.1055  1.2289
12511SOL    HW244584   3.274   7.507  11.102  0.9097 -0.8367  0.7039
12512SOL     OW44585   7.040   3.513   5.310 -0.3379 -0.0913 -0.8886
12512SOL    HW144586   7.075   3.584   5.364  1.1691 -2.9117  2.2327
12512SOL    HW244587   7.116   3.480   5.262  0.3254 -2.6862  1.6520
12513SOL     OW44588  12.047   0.794   5.616 -0.2985 -0.1282  1.0353
12513SOL    HW144589  12.087   0.715   5.580  1.1390  0.1523  1.9551
12513SOL    HW244590  12.119   0.856   5.624 -1.5999  1.7274 -0.7768
12514SOL     OW44591   9.622   3.354   1.950  0.0774  0.1914 -0.1741
12514SOL    HW144592   9.685   3.288   1.921 -0.7515 -0.3249 -0.8546
12514SOL    HW244593   9.671   3.409   2.012  1.8552  1.1780 -2.3237
12515SOL     OW44594   3.528   2.994  11.228 -0.0753 -0.4494  0.1123
12515SOL    HW144595   3.476   3.035  11.159  0.9978  0.5268 -0.1432
12515SOL    HW244596   3.528   3.059  11.299  0.3463 -0.6606  0.3078
12516SOL     OW44597  10.542   2.671   8.541 -0.3705 -0.3924  0.2692
12516SOL    HW144598  10.599   2.595   8.552  0.0367 -0.0939  0.2361
12516SOL    HW244599  10.548   2.717   8.625 -0.4836 -0.3076  0.2301
12517SOL     OW44600   0.766   4.361   1.274  0.8046 -0.3509  0.3416
12517SOL    HW144601   0.804   4.340   1.189 -0.4180  0.1859 -0.3707
12517SOL    HW244602   0.695   4.298   1.285  0.7450 -0.2054  0.8190
12518SOL     OW44603   5.883   9.946   4.835 -0.7853 -0.4494 -0.1731
12518SOL    HW144604   5.953   9.880   4.839 -0.4955 -0.1392 -0.0853
12518SOL    HW244605   5.928  10.029   4.851 -0.9238 -0.0685 -1.6692
12519SOL     OW44606   8.815  11.549   3.408  0.4190 -0.0824 -0.3537
12519SOL    HW144607   8.739  11.498   3.379 -0.8386  1.7146 -0.3548
12519SOL    HW244608   8.851  11.587   3.328 -1.2723  2.4659 -0.0141
12520SOL     OW44609   3.423  10.322  10.993 -0.7968 -0.3201 -0.0003
12520SOL    HW144610   3.426  10.414  11.020 -1.7705  0.3243 -1.9077
12520SOL    HW244611   3.498  10.311  10.935 -0.9814 -0.5836 -0.1903
12521SOL     OW44612   3.270   8.435   0.640 -0.0021 -0.0291 -0.0583
12521SOL    HW144613   3.209   8.449   0.712  0.8986 -0.3054  0.7793
12521SOL    HW244614   3.220   8.388   0.574 -1.6593  2.5317 -0.8021
12522SOL     OW44615   9.324   0.909   7.459  0.2323  0.3435  0.0022
12522SOL    HW144616   9.371   0.912   7.542 -0.1886  0.7837  0.2335
12522SOL    HW244617   9.255   0.843   7.472  0.4040  0.1389 -0.1268
12523SOL     OW44618   9.855   3.591   6.723 -0.2502  0.2792  0.4493
12523SOL    HW144619   9.785   3.526   6.732 -2.0145  1.4894 -2.8187
12523SOL    HW244620   9.913   3.555   6.656  0.6201  0.6685  0.9722
12524SOL     OW44621   6.398   5.472   1.958 -0.1245  0.6045  0.1546
12524SOL    HW144622   6.319   5.501   2.004  0.0111  0.1643  0.6836
12524SOL    HW244623   6.399   5.522   1.877 -1.3608  0.0755 -0.2169
12525SOL     OW44624  11.999   3.017   7.724 -0.3612  0.2128  0.2639
12525SOL    HW144625  12.094   3.025   7.729 -0.2102  0.5237 -1.8195
12525SOL    HW244626  11.973   3.089   7.666 -2.2728  2.1441  3.2245
12526SOL     OW44627   3.699   8.905  10.343  0.0777  0.3229  0.1990
12526SOL    HW144628   3.637   8.919  10.415 -0.1802 -0.1106  0.0681
12526SOL    HW244629   3.785   8.911  10.384 -0.0376  1.1316  0.3495
12527SOL     OW44630   8.812  12.546   3.644 -0.3765 -0.2008  0.1289
12527SOL    HW144631   8.890  12.593   3.674  1.0136 -1.1316 -1.8477
12527SOL    HW244632   8.741  12.610   3.652  1.1803  1.7808 -1.1091
12528SOL     OW44633   4.277   3.891   3.391 -0.3100  0.5122  0.2303
12528SOL    HW144634   4.260   3.986   3.392  0.3651  0.6625 -0.8807
12528SOL    HW244635   4.194   3.852   3.415 -0.4242  1.4045  1.3804
12529SOL     OW44636   2.971   0.623   3.878 -0.5199  0.9182  0.5303
12529SOL    HW144637   2.945   0.664   3.795 -1.3748 -0.8695 -0.1427
12529SOL    HW244638   2.889   0.610   3.925 -0.3896 -0.5715  0.4112
12530SOL     OW44639   2.321   0.145   9.244  0.3126 -0.4501 -0.1537
12530SOL    HW144640   2.350   0.105   9.163  1.1117 -1.0018  0.3903
12530SOL    HW244641   2.382   0.219   9.257  0.5278 -0.6910  0.2157
12531SOL     OW44642  12.358   2.180   1.214 -0.4476  0.2310  0.5245
12531SOL    HW144643  12.345   2.267   1.251  0.1982  0.5003  0.1481
12531SOL    HW244644  12.286   2.127   1.249  0.4140  0.3243  2.5897
12532SOL     OW44645   8.489  12.026  10.477 -0.3535 -0.3260  0.2563
12532SOL    HW144646   8.478  12.117  10.505  1.2624 -1.0187  3.7683
12532SOL    HW244647   8.582  12.017  10.460 -0.0265 -1.8066  2.4072
12533SOL     OW44648   9.395   3.626  12.174  0.2986 -0.8179 -0.3455
12533SOL    HW144649   9.352   3.549  12.210 -0.3482 -0.5753 -0.5862
12533SOL    HW244650   9.375   3.624  12.081 -0.2980  0.0013 -0.2436
12534SOL     OW44651   5.196   7.394  12.138  0.4494  0.4569  0.0479
12534SOL    HW144652   5.212   7.470  12.082  2.8141 -0.5517 -0.7759
12534SOL    HW244653   5.268   7.395  12.201  0.0217 -0.6289  0.5871
12535SOL     OW44654   5.869  10.016  12.047 -0.7219 -0.6529  0.1393
12535SOL    HW144655   5.927   9.990  11.976 -0.2952  2.1889 -0.6910
12535SOL    HW244656   5.836  10.103  12.021 -1.1025  0.1927  3.0639
12536SOL     OW44657   4.417   8.163   3.307  0.1246  0.3531 -0.2705
12536SOL    HW144658   4.496   8.169   3.360 -0.0676 -2.0528  0.4269
12536SOL    HW244659   4.374   8.248   3.318  0.0453  0.0195  3.6431
12537SOL     OW44660   8.251  11.272   1.323 -0.5074  0.1329  0.0813
12537SOL    HW144661   8.213  11.202   1.270  2.7124 -1.4490 -0.4392
12537SOL    HW244662   8.265  11.344   1.262 -1.9134  0.4827  0.1383
12538SOL     OW44663   2.810  11.977   7.889  0.3876  0.0822  0.3128
12538SOL    HW144664   2.814  12.053   7.948 -0.4096 -0.5059  1.1508
12538SOL    HW244665   2.743  12.001   7.825  0.6343  0.3656  0.1557
12539SOL     OW44666   4.678   5.725   6.863 -0.1113  0.7071  0.1951
12539SOL    HW144667   4.748   5.766   6.913 -0.4019  0.6747  0.6332
12539SOL    HW244668   4.700   5.744   6.772 -0.0363  1.5131  0.3669
12540SOL     OW44669   3.541   1.105   7.086  0.3781 -0.0186 -0.1130
12540SOL    HW144670   3.450   1.128   7.108  0.4430 -0.9713  1.2910
12540SOL    HW244671   3.571   1.179   7.033 -0.7614  1.0339  0.6252
12541SOL     OW44672  11.840  10.019   4.625 -0.4998 -0.2757 -0.2857
12541SOL    HW144673  11.911   9.968   4.665 -0.2454  0.4710  0.2562
12541SOL    HW244674  11.764  10.002   4.681 -0.4110 -0.0454 -0.0950
12542SOL     OW44675   7.358   4.574  12.413  0.7612 -0.2989 -0.1213
12542SOL    HW144676   7.267   4.575  12.443  1.1411 -0.2533  1.0742
12542SOL    HW244677   7.391   4.662  12.433  1.0965 -0.3347 -0.4962
12543SOL     OW44678   9.532  10.313   8.306  0.2069 -0.8059 -0.1994
12543SOL    HW144679   9.585  10.251   8.356 -1.8673 -1.5998  1.1822
12543SOL    HW244680   9.518  10.387   8.366  0.2877 -0.3176 -0.7743
12544SOL     OW44681   7.568   6.517   0.942  1.1763  0.2349  0.6391
12544SOL    HW144682   7.601   6.531   0.853 -0.2829 -1.2495 -0.1799
12544SOL    HW244683   7.645   6.490   0.992  1.5967 -1.3577 -0.7750
12545SOL     OW44684   1.011   8.141   5.284 -0.0553 -0.0899 -0.3763
12545SOL    HW144685   1.093   8.125   5.236 -0.2130 -1.6415 -0.1998
12545SOL    HW244686   0.945   8.094   5.234 -0.6347  0.2000  0.1107
12546SOL     OW44687   9.092  10.330   8.398  0.4968  0.1073  0.6662
12546SOL    HW144688   9.129  10.248   8.429  0.1452 -0.3036  0.0190
12546SOL    HW244689   9.037  10.360   8.470  0.0489 -0.6033  0.6309
12547SOL     OW44690   8.189   9.422   3.501 -0.2843  0.0879  0.4021
12547SOL    HW144691   8.194   9.432   3.596  0.8607  1.2115  0.2538
12547SOL    HW244692   8.280   9.426   3.471 -0.6394 -0.0215 -0.7557
12548SOL     OW44693   2.043   4.294  10.776  0.0011 -0.2733 -0.3383
12548SOL    HW144694   2.039   4.250  10.692  0.8746 -0.3402 -0.3590
12548SOL    HW244695   2.127   4.341  10.774  0.1513 -0.4859  0.5893
12549SOL     OW44696   5.174   2.217   0.010 -0.0494 -0.1977  0.6980
12549SOL    HW144697   5.219   2.299   0.030  0.0897 -0.6724  2.5375
12549SOL    HW244698   5.125   2.196   0.090 -0.6487 -1.5420  0.0170
12550SOL     OW44699   0.729  11.261   1.369 -0.6081  0.2283  0.7117
12550SOL    HW144700   0.758  11.213   1.446  0.7437  0.3624  0.3073
12550SOL    HW244701   0.801  11.320   1.349 -0.5567 -0.3904 -1.1266
12551SOL     OW44702  12.092  11.031  11.416 -0.2557  0.3527  0.1286
12551SOL    HW144703  12.079  10.939  11.395 -3.5420  1.3059 -2.9892
12551SOL    HW244704  12.187  11.043  11.415  0.2511 -2.7866 -0.1231
12552SOL     OW44705   9.384   8.606   1.235  0.0766 -0.1887 -0.0613
12552SOL    HW144706   9.362   8.517   1.206  0.1070 -0.2041 -0.0357
12552SOL    HW244707   9.341   8.615   1.320 -3.1067  1.1016 -1.6296
12553SOL     OW44708   9.249   5.646   5.692 -0.0987 -0.6967  0.1018
12553SOL    HW144709   9.308   5.708   5.735 -1.0050 -0.7650  1.5132
12553SOL    HW244710   9.248   5.674   5.601 -0.3542  1.2970  0.6531
12554SOL     OW44711  12.140   6.782   9.592 -0.1825  0.8162  0.1116
12554SOL    HW144712  12.121   6.874   9.611 -0.6684  0.2693  2.5314
12554SOL    HW244713  12.183   6.749   9.670  1.1507 -0.7429 -1.1873
12555SOL     OW44714   9.453   0.092  12.419 -0.4826 -0.2033 -0.1091
12555SOL    HW144715   9.470   0.132  12.334 -0.8366  1.6145  0.6294
12555SOL    HW244716   9.516   0.020  12.425  0.8734  0.8445 -1.1017
12556SOL     OW44717   2.969  12.433   3.019 -0.1595 -0.1226  0.2386
12556SOL    HW144718   2.890  12.443   3.072  0.1444  0.6600  0.5789
12556SOL    HW244719   2.947  12.472   2.935  0.0469  0.6925  0.5452
12557SOL     OW44720   6.421   6.090   3.515 -0.0342 -0.3663 -0.7045
12557SOL    HW144721   6.485   6.113   3.448  0.1968 -0.2672 -0.4498
12557SOL    HW244722   6.338   6.121   3.479  0.1893  0.3453 -0.6312
12558SOL     OW44723   3.852  12.446   0.582  0.1515  0.3035  0.2318
12558SOL    HW144724   3.798  12.507   0.531 -3.6852 -1.2711  2.0628
12558SOL    HW244725   3.883  12.499   0.656  1.6639  1.3288 -1.0488
12559SOL     OW44726  10.488   4.490   7.947 -0.8050  0.0537  0.9196
12559SOL    HW144727  10.465   4.397   7.952 -0.7181 -0.0389 -0.1232
12559SOL    HW244728  10.436   4.523   7.874 -0.1291  0.6049  0.6793
12560SOL     OW44729   9.804   2.022   5.804 -0.0146  0.0003 -0.1482
12560SOL    HW144730   9.874   2.084   5.821  0.2321 -0.0664 -0.8662
12560SOL    HW244731   9.724   2.066   5.833  0.3005  0.1585  0.4787
12561SOL     OW44732   4.876  10.864   0.489  0.2157 -0.1362 -0.0226
12561SOL    HW144733   4.894  10.915   0.568  0.1315  0.6991 -0.5211
12561SOL    HW244734   4.958  10.867   0.440 -0.0453  0.2711 -0.4509
12562SOL     OW44735  11.702   5.594   7.382  0.1965 -0.3271  0.5866
12562SOL    HW144736  11.791   5.629   7.394  0.0633 -0.4224  2.0709
12562SOL    HW244737  11.710   5.530   7.312  0.7450  1.6034 -1.1982
12563SOL     OW44738   2.438   8.829   6.186 -0.3752  0.6847 -0.2860
12563SOL    HW144739   2.371   8.767   6.159 -0.5954  0.2979  1.0403
12563SOL    HW244740   2.391   8.892   6.242  0.6109 -0.5880  2.0909
12564SOL     OW44741  10.954   8.708   7.605  0.5464 -0.0952 -0.0945
12564SOL    HW144742  11.028   8.758   7.638 -0.0600  0.3372  0.6503
12564SOL    HW244743  10.968   8.703   7.511  1.3156  0.3128 -0.0061
12565SOL     OW44744   3.181   2.559   2.121  0.9592  0.3000 -0.1022
12565SOL    HW144745   3.244   2.487   2.126  0.9872  0.2974 -0.4752
12565SOL    HW244746   3.135   2.556   2.205  0.5761 -0.5090 -0.3332
12566SOL     OW44747   3.441   1.745   2.986 -0.2158  0.4730  0.0778
12566SOL    HW144748   3.496   1.784   3.055 -0.1344  1.1291 -0.3516
12566SOL    HW244749   3.356   1.788   2.996 -0.5092 -0.1889  0.4311
12567SOL     OW44750   5.692   6.496   7.843  0.0789  0.0031 -0.3612
12567SOL    HW144751   5.712   6.426   7.780  2.3229  0.2526 -0.0070
12567SOL    HW244752   5.766   6.497   7.902 -0.7869  1.4899  0.7661
12568SOL     OW44753   3.232   0.398   2.415  0.6601  0.0072 -0.4204
12568SOL    HW144754   3.292   0.466   2.384 -1.3948  2.0879 -0.0671
12568SOL    HW244755   3.227   0.336   2.342  1.3987  1.0377 -1.3893
12569SOL     OW44756   1.494   1.139   7.830  0.0816  0.3307 -0.4069
12569SOL    HW144757   1.506   1.157   7.736 -3.3448 -0.5572 -1.1602
12569SOL    HW244758   1.565   1.187   7.873  0.3156  2.8576 -3.2692
12570SOL     OW44759   1.915  10.375   7.992  0.5336  0.3223 -0.0071
12570SOL    HW144760   1.893  10.467   7.984  1.9400  0.7403  0.5918
12570SOL    HW244761   1.997  10.365   7.942  0.6390 -0.4940  0.3009
12571SOL     OW44762   9.283   9.158  10.733  0.2433 -0.1994  0.1678
12571SOL    HW144763   9.212   9.095  10.737 -0.6854  0.7280 -0.9845
12571SOL    HW244764   9.294   9.188  10.823 -2.6637  1.5659  0.0778
12572SOL     OW44765  11.592  10.362   0.837 -0.3566  0.0463  0.0480
12572SOL    HW144766  11.509  10.380   0.882  0.1100  0.4769  0.7641
12572SOL    HW244767  11.635  10.448   0.831 -0.0345 -0.1469 -0.4661
12573SOL     OW44768   9.352  10.364   3.270  0.3828  0.6153 -0.3595
12573SOL    HW144769   9.400  10.345   3.350 -1.0747 -3.4669 -0.2326
12573SOL    HW244770   9.397  10.314   3.202 -1.6472 -0.6695 -0.8590
12574SOL     OW44771  11.677   6.784   1.878  0.1585  0.0426 -0.0684
12574SOL    HW144772  11.734   6.840   1.931  1.8341 -0.5547 -1.1664
12574SOL    HW244773  11.708   6.695   1.895  0.6924 -0.1703 -1.9504
12575SOL     OW44774  11.198   2.641   4.579 -0.0905  0.3688  0.2036
12575SOL    HW144775  11.195   2.555   4.537  0.6474 -0.2089  1.2718
12575SOL    HW244776  11.157   2.626   4.665 -0.4745  1.2259  0.1797
12576SOL     OW44777   6.036   9.918   7.460 -0.6498 -0.2085 -0.4441
12576SOL    HW144778   6.086   9.975   7.518 -1.8231  0.2160  0.1680
12576SOL    HW244779   6.078   9.928   7.374  1.3408 -1.1493  0.3680
12577SOL     OW44780  10.328   5.676   5.819 -0.0958 -0.1355 -0.4879
12577SOL    HW144781  10.417   5.672   5.856 -0.1918 -0.0419 -0.2406
12577SOL    HW244782  10.295   5.586   5.827  0.2832 -0.3603 -1.3616
12578SOL     OW44783   0.109   9.422   3.867 -0.2359 -0.0479  0.3621
12578SOL    HW144784   0.134   9.393   3.780  2.2350  0.5305  0.8182
12578SOL    HW244785   0.124   9.346   3.923 -1.3687 -0.2711  0.3942
12579SOL     OW44786   5.523   8.237  10.584  0.3099 -0.0688  0.2021
12579SOL    HW144787   5.481   8.324  10.589 -0.2349 -0.3971  2.3651
12579SOL    HW244788   5.585   8.245  10.511  0.7494  2.3654  0.7290
12580SOL     OW44789  12.532   7.924   1.854 -0.0796  0.5156  0.0384
12580SOL    HW144790  12.458   7.863   1.861 -0.9463  1.4602 -0.4573
12580SOL    HW244791  12.537   7.966   1.939  0.9454 -0.6755  0.6018
12581SOL     OW44792  10.937   7.032   1.868  0.2372  0.1216  0.1037
12581SOL    HW144793  10.909   6.960   1.812 -0.7857  1.3100 -0.9784
12581SOL    HW244794  11.010   6.996   1.918 -0.1292 -1.6006 -0.5211
12582SOL     OW44795   7.688  11.668   7.390 -0.5838  0.2092 -0.3507
12582SOL    HW144796   7.748  11.691   7.461 -1.1615  0.5814  0.0243
12582SOL    HW244797   7.739  11.610   7.334 -0.1099 -0.0757  0.3553
12583SOL     OW44798  10.096   4.910   2.669  0.4351 -0.8472  0.6129
12583SOL    HW144799  10.054   4.829   2.698  0.5642 -0.7031  1.2218
12583SOL    HW244800  10.146   4.940   2.746  0.7545 -0.4329  0.2506
12584SOL     OW44801   3.441   0.059   2.284 -0.3339 -0.1298  0.3003
12584SOL    HW144802   3.465   0.151   2.289  0.0952 -0.2456  0.4284
12584SOL    HW244803   3.515   0.013   2.324 -0.2471 -0.5775 -0.3677
12585SOL     OW44804   0.336   4.719   5.927 -0.0383  0.3748  0.2436
12585SOL    HW144805   0.386   4.793   5.893  2.1824  0.4567  3.2344
12585SOL    HW244806   0.399   4.647   5.933 -0.9297 -0.3366  1.6767
12586SOL     OW44807   0.313   0.882   3.755  0.0387 -0.0607  0.0126
12586SOL    HW144808   0.333   0.928   3.673 -0.1680 -0.2762 -0.1632
12586SOL    HW244809   0.344   0.940   3.824  1.3701 -0.4418 -0.2428
12587SOL     OW44810  11.528   8.206   0.622  0.3072  0.3901  0.5802
12587SOL    HW144811  11.607   8.231   0.574 -0.0180  1.7425  0.6932
12587SOL    HW244812  11.470   8.282   0.614 -0.8954 -0.4838  0.7001
12588SOL     OW44813   7.690  10.634   4.649  0.3844  0.4588 -0.2193
12588SOL    HW144814   7.759  10.568   4.641 -1.6565 -2.1555  1.8674
12588SOL    HW244815   7.652  10.640   4.561  2.0017  0.5419 -0.9410
12589SOL     OW44816   4.467  10.705   5.683  0.0572  0.3738 -0.3297
12589SOL    HW144817   4.471  10.785   5.737  0.1205  0.5239 -0.5575
12589SOL    HW244818   4.406  10.727   5.613  0.1382  0.2496 -0.4383
12590SOL     OW44819   7.297  11.312   4.569 -0.2058 -0.0300 -0.1316
12590SOL    HW144820   7.260  11.229   4.599  0.9168 -0.4252  0.2350
12590SOL    HW244821   7.249  11.378   4.617 -0.1940 -0.5467  0.6184
12591SOL     OW44822   5.948   9.467   6.879  0.2963  0.3888  0.5730
12591SOL    HW144823   6.009   9.536   6.854  0.0898 -0.1373 -1.6777
12591SOL    HW244824   5.880   9.511   6.929 -1.1485  2.4522 -2.8352
12592SOL     OW44825   2.883   6.344   7.872  0.1688 -0.2261 -0.1885
12592SOL    HW144826   2.878   6.439   7.880  0.7814 -0.0555 -1.4974
12592SOL    HW244827   2.905   6.314   7.960  2.6723  1.0770 -0.2716
12593SOL     OW44828  10.092   1.354   0.194  0.1456  0.1630 -0.1412
12593SOL    HW144829   9.998   1.342   0.207  0.3572 -1.5745 -0.0034
12593SOL    HW244830  10.098   1.405   0.113 -0.9426  3.3687  1.6002
12594SOL     OW44831   5.682   7.720  11.686 -0.2285 -0.2758  0.0327
12594SOL    HW144832   5.759   7.692  11.636  0.3191 -0.4761  0.9532
12594SOL    HW244833   5.608   7.703  11.628  0.3390 -1.0294 -0.4911
12595SOL     OW44834   1.263   6.883   2.927  0.6494 -0.2731 -0.4148
12595SOL    HW144835   1.228   6.941   2.995 -2.1931 -1.2432 -0.8738
12595SOL    HW244836   1.291   6.941   2.857 -1.2836  0.6452 -0.4957
12596SOL     OW44837   9.234  11.897  12.375  0.1635  0.6640  0.5399
12596SOL    HW144838   9.168  11.835  12.407 -0.1571  0.3706 -0.6542
12596SOL    HW244839   9.184  11.975  12.353 -0.1345 -0.2315 -2.2537
12597SOL     OW44840   9.272   2.234   9.013 -0.0353 -0.3347  0.3148
12597SOL    HW144841   9.340   2.196   8.958 -0.1409  1.3847 -1.0925
12597SOL    HW244842   9.301   2.324   9.029 -1.0331 -0.1635  1.3216
12598SOL     OW44843  12.104   1.696  11.449 -0.1157 -0.5610  0.6359
12598SOL    HW144844  12.081   1.641  11.525  0.6023 -2.8817 -0.7096
12598SOL    HW244845  12.116   1.633  11.378  2.7524  1.1733 -0.5759
12599SOL     OW44846  10.589  11.132  11.573  0.5000 -0.0403  0.2001
12599SOL    HW144847  10.527  11.073  11.531  0.2543  0.5260 -0.2432
12599SOL    HW244848  10.587  11.108  11.665  0.6729 -0.9645 -0.0357
12600SOL     OW44849   5.330   9.491  10.058  0.6103  0.2240  0.2086
12600SOL    HW144850   5.236   9.472  10.048  0.8146  0.1677 -2.3240
12600SOL    HW244851   5.333   9.582  10.087 -0.2312 -0.0618  1.2568
12601SOL     OW44852   0.277   9.913   6.863 -0.2552 -0.1428 -0.2472
12601SOL    HW144853   0.282   9.859   6.785 -0.5746 -1.8314  0.8596
12601SOL    HW244854   0.277   9.851   6.936  1.4620  1.4169  1.1797
12602SOL     OW44855  12.044   8.072   1.362 -0.1540  0.3940 -0.4709
12602SOL    HW144856  12.096   8.004   1.317  0.3346  0.2335  0.3109
12602SOL    HW244857  12.006   8.027   1.437 -0.3876  0.8294 -0.3260
12603SOL     OW44858   8.599   2.822   3.749 -0.4389 -0.2801 -0.5610
12603SOL    HW144859   8.647   2.883   3.805 -1.0780 -1.4593  1.3756
12603SOL    HW244860   8.667   2.780   3.696  0.6748 -1.4056  1.6156
12604SOL     OW44861   1.190   2.119  10.704  0.5950 -0.0861  0.0468
12604SOL    HW144862   1.117   2.180  10.703 -0.2511 -1.0552 -1.1458
12604SOL    HW244863   1.268   2.174  10.701 -0.0922  0.9578  0.7869
12605SOL     OW44864   6.826  11.259   9.437 -0.5879 -0.3803 -0.0058
12605SOL    HW144865   6.820  11.212   9.520 -1.0222 -0.9946 -0.3804
12605SOL    HW244866   6.750  11.230   9.386 -2.1304  2.3209  0.5459
12606SOL     OW44867   5.345   1.647   9.566 -0.3791 -0.1476 -0.3335
12606SOL    HW144868   5.344   1.726   9.619  0.0357  0.1051 -0.7030
12606SOL    HW244869   5.403   1.667   9.493  2.2437 -1.8118  1.1437
12607SOL     OW44870   2.952   1.002   0.847  0.7416  0.3653 -0.3530
12607SOL    HW144871   2.867   0.958   0.852 -0.1377  1.8433 -1.3681
12607SOL    HW244872   3.003   0.950   0.785  0.4655 -0.3554  0.0219
12608SOL     OW44873   6.175   5.245  12.253  0.0812  0.1980 -0.1612
12608SOL    HW144874   6.234   5.321  12.260  0.8010 -0.0707 -2.4264
12608SOL    HW244875   6.209   5.196  12.178 -2.6822 -0.2728 -1.2134
12609SOL     OW44876   4.945   1.015  11.387  0.2376 -0.2022 -0.0220
12609SOL    HW144877   5.027   0.968  11.402  0.5986  0.3873 -0.1294
12609SOL    HW244878   4.906   1.024  11.475 -1.2670 -3.2149 -0.2607
12610SOL     OW44879   1.561   2.478   4.139  0.0211  0.0842 -0.0988
12610SOL    HW144880   1.623   2.513   4.203  1.5750 -2.1311 -0.2866
12610SOL    HW244881   1.578   2.530   4.060  1.6928 -0.4732 -0.1447
12611SOL     OW44882   0.541   0.095   6.371  0.0990 -0.3134 -0.4428
12611SOL    HW144883   0.580   0.014   6.404 -0.6349 -0.0532  1.1323
12611SOL    HW244884   0.546   0.156   6.444  0.3987  0.9937 -1.5286
12612SOL     OW44885   0.580  10.060   4.081  0.1262 -0.3191  0.1701
12612SOL    HW144886   0.595  10.089   4.171 -0.7479  1.9077 -0.3230
12612SOL    HW244887   0.645  10.107   4.029 -0.0433 -0.7769 -0.4672
12613SOL     OW44888   2.230  12.066   7.647  0.4619 -0.1216  0.1776
12613SOL    HW144889   2.298  12.080   7.581  0.1354  1.2998  0.1189
12613SOL    HW244890   2.274  12.017   7.717  0.5620 -2.6351 -1.4937
12614SOL     OW44891   1.881   9.955  12.581  0.7371 -0.2294 -0.2233
12614SOL    HW144892   1.921   9.964  12.667  1.6053 -3.8232 -0.0709
12614SOL    HW244893   1.787   9.963  12.597  0.9722  1.0047  0.6798
12615SOL     OW44894   1.763   8.813   2.928  0.1690  0.9920 -0.2955
12615SOL    HW144895   1.670   8.822   2.908  0.0894  1.6436  0.3091
12615SOL    HW244896   1.789   8.731   2.887 -1.0410  0.0244  0.7782
12616SOL     OW44897   2.746   1.608   2.544 -0.2777 -0.0947  0.0994
12616SOL    HW144898   2.695   1.649   2.474  0.0527  0.1242 -0.0137
12616SOL    HW244899   2.787   1.681   2.590 -0.0779 -0.2676  0.1987
12617SOL     OW44900   6.362   0.383   4.512 -0.6490 -0.2710  0.1528
12617SOL    HW144901   6.381   0.351   4.600 -2.1303  0.8744  0.9418
12617SOL    HW244902   6.302   0.317   4.476  0.9836 -1.4334 -0.5510
12618SOL     OW44903   8.875  11.130   8.707 -0.2275  0.6450  0.2150
12618SOL    HW144904   8.853  11.223   8.709  0.9376  0.9257  1.6027
12618SOL    HW244905   8.867  11.101   8.798  1.7168 -0.0120  0.2338
12619SOL     OW44906   5.187   8.734   2.570  0.0620  0.1931  0.0673
12619SOL    HW144907   5.215   8.731   2.662 -0.9726 -2.1466  0.3841
12619SOL    HW244908   5.219   8.652   2.533 -1.4154  0.0931 -1.0674
12620SOL     OW44909   9.184   7.399   9.950  0.8344 -0.0351  0.0780
12620SOL    HW144910   9.247   7.398   9.878  0.6225  0.9026 -0.1332
12620SOL    HW244911   9.182   7.490   9.979 -0.5260 -0.0128 -0.0040
12621SOL     OW44912  12.090  12.348   2.364 -0.1303  0.0252 -0.6739
12621SOL    HW144913  12.184  12.336   2.376  0.2100 -0.3483 -3.1203
12621SOL    HW244914  12.051  12.268   2.399  0.5935 -0.3618 -0.7299
12622SOL     OW44915   6.558  10.816   9.654  0.0961  0.1007  0.3016
12622SOL    HW144916   6.570  10.838   9.561 -0.4654  1.4085  0.5171
12622SOL    HW244917   6.525  10.896   9.694  0.5568 -0.3739  1.6946
12623SOL     OW44918   5.208   5.688   2.934  0.0622  0.3273 -0.5340
12623SOL    HW144919   5.150   5.670   2.860 -1.8111 -0.1831  0.9733
12623SOL    HW244920   5.258   5.608   2.945 -1.3648 -0.5033  0.1894
12624SOL     OW44921   7.769   8.515  11.074  0.2314  0.1660 -0.3937
12624SOL    HW144922   7.696   8.485  11.019  2.5744 -3.6023 -1.8876
12624SOL    HW244923   7.832   8.443  11.070  2.1529  1.2247  4.4618
12625SOL     OW44924   0.201   3.364   0.350  0.2827  0.5093  0.6058
12625SOL    HW144925   0.229   3.281   0.312 -0.5539  0.7527 -0.6238
12625SOL    HW244926   0.262   3.380   0.422  1.3540 -0.4470 -0.0580
12626SOL     OW44927   8.871   7.236   2.499  0.0121 -0.3810  0.2039
12626SOL    HW144928   8.804   7.187   2.547 -1.8352  1.2898 -0.5215
12626SOL    HW244929   8.825   7.269   2.422  2.1013 -0.4034 -1.1236
12627SOL     OW44930   2.069   2.171   7.441 -0.3359  0.3703 -0.4848
12627SOL    HW144931   2.000   2.167   7.508  1.2762  0.6842  1.2967
12627SOL    HW244932   2.033   2.123   7.367 -1.6109 -1.5169  1.2278
12628SOL     OW44933   6.306   4.685  12.277 -0.2798  0.2872 -0.0137
12628SOL    HW144934   6.336   4.598  12.252 -2.5727 -0.1778 -1.5266
12628SOL    HW244935   6.285   4.728  12.194 -0.4406  1.7857  0.7730
12629SOL     OW44936   7.180   5.342  11.344 -0.5925 -0.2447 -0.1706
12629SOL    HW144937   7.221   5.355  11.430 -0.4701 -1.3847 -0.0470
12629SOL    HW244938   7.088   5.367  11.358 -0.1280  1.6605 -0.2789
12630SOL     OW44939   0.865   5.169   8.206 -0.5263  0.2689  0.1311
12630SOL    HW144940   0.811   5.096   8.175 -0.8329  1.0293 -1.2209
12630SOL    HW244941   0.925   5.186   8.133  0.5938  0.3628  1.0501
12631SOL     OW44942   2.281  11.558   4.566  0.0942 -0.1058 -0.2740
12631SOL    HW144943   2.294  11.464   4.579  1.3722  0.1964  0.9334
12631SOL    HW244944   2.189  11.566   4.544 -0.1149 -1.6232 -0.1126
12632SOL     OW44945   9.662   6.365   4.477 -0.2354  0.4572  0.0155
12632SOL    HW144946   9.641   6.277   4.509  2.6992 -0.0413  0.8342
12632SOL    HW244947   9.660   6.357   4.382  1.8887 -1.1200  0.0175
12633SOL     OW44948   8.996   3.433   9.760 -0.1613 -0.3537  0.1969
12633SOL    HW144949   8.970   3.405   9.848  1.0315 -0.0093  0.6718
12633SOL    HW244950   8.929   3.497   9.734  0.7028  1.2481  1.7844
12634SOL     OW44951   0.235   1.364  11.849 -0.2369 -0.5286  0.3962
12634SOL    HW144952   0.294   1.318  11.909 -0.9046 -1.6865  0.2064
12634SOL    HW244953   0.156   1.309  11.847 -1.1691  0.7653  0.3283
12635SOL     OW44954   1.985   0.946   7.668  0.1035 -0.3847 -0.4061
12635SOL    HW144955   1.989   0.864   7.717 -0.2633  0.8048  1.7699
12635SOL    HW244956   1.900   0.944   7.625  0.5626 -1.5998 -1.3188
12636SOL     OW44957   5.974   8.883  12.118  0.2797  0.1732 -0.1887
12636SOL    HW144958   5.879   8.869  12.113  0.2010  0.3107  0.7370
12636SOL    HW244959   5.983   8.967  12.162  0.8411 -0.1644  0.3541
12637SOL     OW44960   6.315   2.640   2.950  0.2375  0.4463  0.1111
12637SOL    HW144961   6.267   2.648   3.032  2.4870 -0.0484  1.5742
12637SOL    HW244962   6.363   2.557   2.958  0.8833  0.6083 -1.4992
12638SOL     OW44963   4.607   3.900   1.349 -0.4063  0.2296  0.5086
12638SOL    HW144964   4.606   3.822   1.293 -1.7816  0.1418  0.6262
12638SOL    HW244965   4.694   3.899   1.389 -0.7890 -1.9390  1.4384
12639SOL     OW44966   0.481   1.355   0.895 -0.1606  0.3420  0.0755
12639SOL    HW144967   0.535   1.302   0.953 -1.1831 -1.0920 -0.2387
12639SOL    HW244968   0.462   1.299   0.820 -1.6901  0.9406 -0.0401
12640SOL     OW44969   4.109   1.359   6.079 -0.0650  0.1214 -0.2492
12640SOL    HW144970   4.091   1.267   6.098 -2.0568  0.6929  0.9598
12640SOL    HW244971   4.069   1.406   6.152 -0.6286  2.0257 -1.7216
12641SOL     OW44972   5.440   9.037   2.975  0.0413 -0.5752 -0.4062
12641SOL    HW144973   5.419   9.021   3.067  0.0812  0.1177 -0.2707
12641SOL    HW244974   5.530   9.071   2.977  0.0631 -0.6140 -0.7040
12642SOL     OW44975   7.389   3.192  10.474  0.4013  0.1612  0.8944
12642SOL    HW144976   7.383   3.286  10.490 -2.6613  0.2377 -0.1263
12642SOL    HW244977   7.384   3.152  10.561 -0.8140  0.9250  1.2047
12643SOL     OW44978   8.062   1.966   4.327  0.3947  0.4016  0.7226
12643SOL    HW144979   8.070   2.059   4.305 -1.2829  0.4595  0.2262
12643SOL    HW244980   8.101   1.921   4.252  0.1846  0.6953  0.4337
12644SOL     OW44981  11.944   9.513   1.148  0.3148 -0.2057  0.1434
12644SOL    HW144982  11.891   9.583   1.188  0.4435 -0.3887  0.6363
12644SOL    HW244983  11.880   9.450   1.116  0.2170 -0.1227  0.1730
12645SOL     OW44984  10.706   0.639   4.963 -0.1283 -0.3816 -0.2478
12645SOL    HW144985  10.762   0.566   4.989 -0.2337 -0.3285  0.1337
12645SOL    HW244986  10.739   0.713   5.012 -0.5050 -0.3393 -0.0505
12646SOL     OW44987   9.158  10.673   4.733 -0.0268  0.9676 -0.1335
12646SOL    HW144988   9.216  10.708   4.800 -0.0783  0.6207  0.0960
12646SOL    HW244989   9.130  10.587   4.767 -0.1881  0.8627 -0.5180
12647SOL     OW44990  12.537  10.637   0.387 -0.6245  0.5603 -0.0077
12647SOL    HW144991  12.508  10.564   0.441  1.0394  0.0604  0.2763
12647SOL    HW244992  12.462  10.697   0.385 -2.0379 -1.1456 -0.2771
12648SOL     OW44993   9.265   4.404   1.895 -0.2662 -0.3779 -0.1270
12648SOL    HW144994   9.327   4.345   1.851  0.2604  0.6411 -0.7866
12648SOL    HW244995   9.237   4.355   1.972 -1.8456 -2.5765 -1.9575
12649SOL     OW44996  10.937  11.701   7.998  0.4423 -0.3086 -0.1398
12649SOL    HW144997  10.845  11.706   7.972  1.1222  0.3522 -2.6922
12649SOL    HW244998  10.955  11.786   8.039  0.2616  0.1624 -1.0103
12650SOL     OW44999  11.507   3.398   1.857  0.0985  0.0275  0.1471
12650SOL    HW145000  11.521   3.431   1.769  0.6078  0.2800  0.3233
12650SOL    HW245001  11.538   3.468   1.915  3.0421 -1.4852  0.5449
12651SOL     OW45002   4.969   9.240   2.231  0.1668 -0.0085 -0.6801
12651SOL    HW145003   4.895   9.209   2.283  1.0395  2.2807  2.1960
12651SOL    HW245004   5.046   9.210   2.278  1.0310  1.2585 -1.2358
12652SOL     OW45005   7.220   4.824  11.690  0.4268 -0.3843 -0.7013
12652SOL    HW145006   7.229   4.757  11.757 -0.1006 -0.3347 -0.5794
12652SOL    HW245007   7.144   4.797  11.638 -0.3989  0.6148 -0.0550
12653SOL     OW45008   4.120  10.292   3.647 -0.1982 -0.1672 -0.0890
12653SOL    HW145009   4.070  10.363   3.607  0.7008  0.9040  0.6144
12653SOL    HW245010   4.054  10.230   3.678 -0.9985  0.3428 -0.7451
12654SOL     OW45011   9.615  12.553   8.712  0.0404 -0.7986  0.1843
12654SOL    HW145012   9.579  12.598   8.789 -1.5898 -0.6586 -0.6097
12654SOL    HW245013   9.675  12.617   8.673 -0.7880 -0.0199  0.1515
12655SOL     OW45014   8.160  12.035   8.308  0.0799 -0.4290 -0.0099
12655SOL    HW145015   8.094  12.103   8.296 -2.5689 -2.4269  1.9935
12655SOL    HW245016   8.179  12.005   8.219 -0.9224  0.9129 -0.7131
12656SOL     OW45017   6.678   8.073  12.232 -0.2284 -0.0554  0.4065
12656SOL    HW145018   6.600   8.025  12.258 -0.3120 -0.7100 -0.9680
12656SOL    HW245019   6.645   8.142  12.174 -0.0050  1.1198  1.6078
12657SOL     OW45020   9.933   4.048   6.995  0.0435 -0.1971 -0.0468
12657SOL    HW145021   9.887   4.130   6.981 -0.1591 -0.6774 -2.7415
12657SOL    HW245022   9.871   3.980   6.967  1.0389 -1.0994 -0.1584
12658SOL     OW45023  10.417   8.551   2.524 -0.3108 -0.0391 -0.7842
12658SOL    HW145024  10.411   8.646   2.534  0.0631 -0.0905  0.0716
12658SOL    HW245025  10.508   8.531   2.543 -0.8233 -0.7714  1.2249
12659SOL     OW45026   2.830   4.732   1.530 -0.1017 -0.3486 -0.4193
12659SOL    HW145027   2.812   4.803   1.469 -0.5169 -0.3325 -0.2777
12659SOL    HW245028   2.882   4.670   1.479  1.4449  0.6781 -0.1574
12660SOL     OW45029   0.894   4.034   7.068  0.1338 -0.1943  0.7910
12660SOL    HW145030   0.918   4.116   7.111 -1.4571  0.4467  0.5479
12660SOL    HW245031   0.896   3.969   7.138  0.8622  0.1525  1.1051
12661SOL     OW45032   5.370   5.500   6.912  0.2005  0.4136  0.4974
12661SOL    HW145033   5.326   5.416   6.900  0.3885  0.3454  0.2823
12661SOL    HW245034   5.446   5.481   6.967  0.6197  0.3215 -0.1087
12662SOL     OW45035   4.552  11.177   2.351  1.0750 -0.2750 -0.2106
12662SOL    HW145036   4.495  11.251   2.332  0.8223 -0.1351  1.0068
12662SOL    HW245037   4.637  11.202   2.315  0.2119 -0.9101 -2.9862
12663SOL     OW45038   7.346   2.159   1.350  0.3979  0.5138  0.1925
12663SOL    HW145039   7.390   2.086   1.394  0.2171 -1.8314 -3.0810
12663SOL    HW245040   7.396   2.172   1.269 -2.2230  0.8097 -1.5226
12664SOL     OW45041   6.057   4.581   2.655 -0.5826 -0.0976 -0.0022
12664SOL    HW145042   6.000   4.639   2.706 -0.6897  0.3688 -0.6451
12664SOL    HW245043   6.055   4.498   2.702  1.2882  0.9832  2.1843
12665SOL     OW45044   9.079  11.112   2.704  0.2835 -0.8868 -0.1495
12665SOL    HW145045   9.004  11.147   2.656  0.1756 -1.5725 -0.4812
12665SOL    HW245046   9.143  11.091   2.636  0.5982 -0.7393  0.0991
12666SOL     OW45047   3.394   4.762  11.145 -0.1065  0.2813 -0.1955
12666SOL    HW145048   3.404   4.667  11.140 -1.4235  0.0229  1.3892
12666SOL    HW245049   3.303   4.775  11.171  0.1125  1.9794 -0.1773
12667SOL     OW45050   1.703   8.172  11.327  0.4040 -0.3996 -0.6973
12667SOL    HW145051   1.677   8.180  11.419  0.0535 -1.3817 -0.6881
12667SOL    HW245052   1.788   8.129  11.330  0.6633  0.1093 -0.8128
12668SOL     OW45053   5.561  10.889   5.549  0.7367 -0.0680  0.2751
12668SOL    HW145054   5.606  10.893   5.633  0.0310 -0.6238  0.6862
12668SOL    HW245055   5.468  10.889   5.571  0.5345  0.1592 -0.5242
12669SOL     OW45056   0.323   4.562   4.347  0.2012 -0.3964  0.7500
12669SOL    HW145057   0.315   4.471   4.322  0.1111  0.2273 -1.6960
12669SOL    HW245058   0.404   4.566   4.398  0.7380 -1.6749  0.0387
12670SOL     OW45059   2.951   3.582   3.123  0.2780 -0.0763  0.0651
12670SOL    HW145060   3.041   3.561   3.146  0.6398  1.9405  0.7252
12670SOL    HW245061   2.955   3.609   3.031  0.6427  1.3656  0.4776
12671SOL     OW45062   7.436   0.739   3.959  0.1788  0.3918 -0.1999
12671SOL    HW145063   7.491   0.752   4.036 -0.3836 -0.4622  0.3617
12671SOL    HW245064   7.497   0.732   3.886  0.7609  0.3292  0.2879
12672SOL     OW45065   9.329   6.674   7.656  0.2277  0.3345  0.2409
12672SOL    HW145066   9.376   6.611   7.601 -0.1976  0.2660 -0.0428
12672SOL    HW245067   9.340   6.640   7.745 -0.9831 -0.7950 -0.0153
12673SOL     OW45068   6.786   7.728   5.775 -0.2296 -0.3093 -0.2155
12673SOL    HW145069   6.854   7.702   5.713 -0.2047  0.4438 -0.5076
12673SOL    HW245070   6.748   7.807   5.738 -0.8947 -0.4086  0.2303
12674SOL     OW45071  11.612   5.070   3.829  0.6181  0.6591 -0.5545
12674SOL    HW145072  11.598   4.976   3.845  0.2868  0.6240 -1.0422
12674SOL    HW245073  11.532   5.112   3.861  0.5257  0.7177 -0.8563
12675SOL     OW45074  10.260   6.458   1.763 -0.4421 -0.4166 -0.2437
12675SOL    HW145075  10.235   6.425   1.850 -0.0821 -0.1392 -0.0285
12675SOL    HW245076  10.199   6.416   1.703 -0.5268 -0.8202  0.1163
12676SOL     OW45077   3.562  10.778   6.405 -0.2233 -0.2873 -0.3275
12676SOL    HW145078   3.637  10.719   6.417  0.6275  1.0762  1.7301
12676SOL    HW245079   3.486  10.727   6.434  0.3874 -0.6805  0.6368
12677SOL     OW45080   2.315   4.014   0.460  0.2895  0.4228 -0.8310
12677SOL    HW145081   2.390   4.065   0.493  1.0027 -0.1601 -1.5055
12677SOL    HW245082   2.332   4.005   0.366 -1.4575  1.6274 -1.3059
12678SOL     OW45083   7.970  11.559   2.265  0.4312  0.0563  0.2472
12678SOL    HW145084   7.902  11.494   2.285 -0.3483  1.3696  2.2931
12678SOL    HW245085   8.023  11.519   2.197 -0.0574 -2.6939  1.3478
12679SOL     OW45086   0.094   0.818   6.794  0.1682  0.6571 -0.3006
12679SOL    HW145087   0.070   0.738   6.841  1.9804 -0.1520 -0.6550
12679SOL    HW245088   0.028   0.882   6.821 -0.5842 -0.5922  0.9996
12680SOL     OW45089  11.111  11.778   6.441  0.5308 -0.4943  0.3187
12680SOL    HW145090  11.176  11.759   6.508 -0.2536  0.3296  1.3375
12680SOL    HW245091  11.105  11.873   6.439 -1.0351 -0.5591  0.6534
12681SOL     OW45092   2.875   4.529  11.343 -0.5187 -0.8310 -0.7519
12681SOL    HW145093   2.813   4.600  11.361  0.2213  0.4546 -2.9316
12681SOL    HW245094   2.872   4.475  11.422 -0.1198  2.3361  1.6707
12682SOL     OW45095   2.508   6.717   2.834 -0.2763 -0.0588  0.0996
12682SOL    HW145096   2.423   6.721   2.877 -0.3579 -1.1094  0.0668
12682SOL    HW245097   2.558   6.654   2.886  0.2967  0.1444 -0.1966
12683SOL     OW45098   7.786   6.113  12.435 -0.0431 -0.2790 -0.0748
12683SOL    HW145099   7.692   6.103  12.453 -0.0479  0.9326  0.6442
12683SOL    HW245100   7.830   6.071  12.509 -0.0352  0.7252  0.4963
12684SOL     OW45101   6.709   2.570   2.906 -0.2386  0.1899 -0.1965
12684SOL    HW145102   6.660   2.642   2.865  1.3264  1.7680  0.5809
12684SOL    HW245103   6.643   2.522   2.956 -1.6376  0.0010 -2.1064
12685SOL     OW45104   4.564  11.478   7.764  0.3885 -0.8273  0.5325
12685SOL    HW145105   4.497  11.461   7.698 -1.2547 -1.6080  2.3007
12685SOL    HW245106   4.554  11.406   7.827  2.5115 -0.6274  1.1616
12686SOL     OW45107   7.777   7.400   0.623 -1.0404 -0.4923 -0.6100
12686SOL    HW145108   7.753   7.321   0.671 -0.0464  0.0611  0.8454
12686SOL    HW245109   7.841   7.371   0.559 -1.4886 -1.0347 -0.8241
12687SOL     OW45110   1.912  10.921  10.914 -0.0169 -0.0671 -0.7402
12687SOL    HW145111   1.859  10.963  10.847  1.7462  2.0658 -0.9020
12687SOL    HW245112   1.891  10.967  10.995  2.3645  1.7265 -1.0186
12688SOL     OW45113   7.314  11.364   5.673 -0.1659  0.2781 -0.2169
12688SOL    HW145114   7.234  11.319   5.698  0.8673 -1.8107 -0.4926
12688SOL    HW245115   7.371  11.357   5.750  0.4681 -0.0152 -0.6975
12689SOL     OW45116   1.881   9.043   9.060 -0.0943 -0.1062  0.4888
12689SOL    HW145117   1.809   9.100   9.033  0.1795  0.9680  1.8659
12689SOL    HW245118   1.922   9.090   9.133  1.4745 -1.0947  0.2912
12690SOL     OW45119   0.901   4.605  10.113 -0.0765 -0.1192  0.3006
12690SOL    HW145120   0.874   4.533  10.056  1.8545  0.5467 -1.5873
12690SOL    HW245121   0.838   4.675  10.095 -0.8632 -0.7019  0.7608
12691SOL     OW45122   7.530   5.100   6.991  0.3722 -0.2914  0.3300
12691SOL    HW145123   7.527   5.005   7.000 -0.1150 -0.2225  1.0644
12691SOL    HW245124   7.570   5.131   7.072  0.3551  0.1351  0.1801
12692SOL     OW45125   6.849  10.368   0.840  0.1687 -0.1005 -0.1620
12692SOL    HW145126   6.901  10.394   0.764  0.0678  2.7159  0.6139
12692SOL    HW245127   6.847  10.447   0.895 -1.6514 -1.3510  1.6791
12693SOL     OW45128   1.272   8.724   0.176  0.4642  0.4639 -0.1320
12693SOL    HW145129   1.250   8.780   0.250 -3.1056 -0.4476 -0.3295
12693SOL    HW245130   1.264   8.635   0.211  0.6267  0.0395 -1.1569
12694SOL     OW45131   3.486   9.768   7.253 -0.5187  0.1604  0.0532
12694SOL    HW145132   3.446   9.691   7.293  0.4886 -0.0476  0.6974
12694SOL    HW245133   3.425   9.840   7.271 -1.0218 -0.3099  0.2443
12695SOL     OW45134   3.636   2.527   4.765 -0.1619  0.2782  0.0218
12695SOL    HW145135   3.712   2.514   4.822 -0.3079  0.5314  0.2766
12695SOL    HW245136   3.591   2.603   4.803 -1.3941 -0.8138  0.7937
12696SOL     OW45137  12.562   2.963   7.615 -0.0040  0.5371 -0.5597
12696SOL    HW145138  12.615   3.016   7.555 -0.2031  2.2201  0.6797
12696SOL    HW245139  12.587   2.872   7.595 -0.4598  0.9447 -3.5306
12697SOL     OW45140   4.714   2.192  11.518 -0.4101 -0.3346  0.2824
12697SOL    HW145141   4.718   2.102  11.485 -1.2440 -0.5261  0.6895
12697SOL    HW245142   4.745   2.245  11.444  0.6762 -0.9858  0.2365
12698SOL     OW45143  11.462   2.293   6.663 -0.2685  0.5044  0.0366
12698SOL    HW145144  11.386   2.316   6.610 -0.1524  1.9827  0.4872
12698SOL    HW245145  11.426   2.238   6.733 -0.6511 -0.1809 -0.6726
12699SOL     OW45146   0.870   2.354   9.789  0.1073 -0.6016 -0.1897
12699SOL    HW145147   0.933   2.418   9.754 -0.1390 -0.0648  0.3310
12699SOL    HW245148   0.785   2.392   9.768 -0.1056  0.6527  2.5032
12700SOL     OW45149   2.717  10.407   7.765  1.5189 -0.1222  0.0265
12700SOL    HW145150   2.770  10.475   7.724 -0.3261  1.5019  0.1686
12700SOL    HW245151   2.744  10.326   7.723  1.6562  1.1011 -2.4053
12701SOL     OW45152  12.050   0.339   2.296 -0.1469  0.2934  0.2308
12701SOL    HW145153  11.989   0.329   2.223  0.4229 -1.5469 -0.0380
12701SOL    HW245154  12.075   0.250   2.319  1.8796  0.9495  0.8072
12702SOL     OW45155   6.305   2.931  11.596  0.3279 -0.4356 -0.1791
12702SOL    HW145156   6.394   2.909  11.623  0.9199 -0.0976 -1.7571
12702SOL    HW245157   6.314   2.965  11.507 -1.2710  0.4994 -0.0282
12703SOL     OW45158   9.060   8.254   2.657 -0.3121  0.0901  0.2736
12703SOL    HW145159   9.043   8.252   2.562 -1.8496 -1.6528  0.5387
12703SOL    HW245160   9.150   8.223   2.665 -0.4872 -0.6914 -0.5726
12704SOL     OW45161   3.363   7.408   7.531 -0.4857 -0.0564  0.5379
12704SOL    HW145162   3.345   7.315   7.550 -0.5545  0.2007  1.8268
12704SOL    HW245163   3.276   7.448   7.526 -0.4517 -0.0365  0.1228
12705SOL     OW45164   6.926   6.630   9.872 -0.8170  0.0661  0.8951
12705SOL    HW145165   6.848   6.661   9.918 -1.7116  0.5098 -0.8343
12705SOL    HW245166   6.892   6.577   9.800  0.3384  1.7735 -1.0226
12706SOL     OW45167   8.488  10.899   2.959 -0.4456  0.5591  0.2230
12706SOL    HW145168   8.402  10.906   2.918 -0.1146 -0.2570 -0.6365
12706SOL    HW245169   8.549  10.929   2.891  0.0681 -0.3399  0.2769
12707SOL     OW45170   1.692   3.703   1.957  0.2372  0.1541  0.4155
12707SOL    HW145171   1.619   3.642   1.964  0.2444  0.1771  0.6838
12707SOL    HW245172   1.661   3.772   1.898  0.8350 -0.9985 -1.3375
12708SOL     OW45173  11.067   3.839  12.268  0.0357 -0.2050 -0.8489
12708SOL    HW145174  11.001   3.860  12.334 -0.0487 -0.6191 -0.7948
12708SOL    HW245175  11.144   3.815  12.319  0.4450  0.9236 -0.9167
12709SOL     OW45176   3.783  10.105   6.148 -0.8020  0.4334  0.6944
12709SOL    HW145177   3.771  10.118   6.054 -1.3166 -1.0334  0.5371
12709SOL    HW245178   3.745  10.183   6.188 -1.6453  0.5357 -0.2637
12710SOL     OW45179   3.797   4.177   5.669 -0.0145  0.4648 -0.2869
12710SOL    HW145180   3.814   4.210   5.581  1.0630 -1.1509 -0.7205
12710SOL    HW245181   3.874   4.125   5.690 -0.5223  0.3388  1.3912
12711SOL     OW45182   7.108   6.630   6.083 -0.0167  0.0717  0.2810
12711SOL    HW145183   7.077   6.610   6.171 -0.5527  1.1492  0.3427
12711SOL    HW245184   7.179   6.567   6.068 -0.3567 -0.5529  1.2152
12712SOL     OW45185   0.089   4.213   8.869  0.3962  0.5711  0.2719
12712SOL    HW145186   0.024   4.152   8.833  0.4380  1.6927 -1.8311
12712SOL    HW245187   0.045   4.252   8.945 -0.4481 -0.4754  0.3506
12713SOL     OW45188   7.096  11.284   5.895  0.1231 -0.6654 -0.2940
12713SOL    HW145189   7.076  11.190   5.902 -0.5114 -0.6948 -2.0863
12713SOL    HW245190   7.066  11.309   5.808 -2.2353  1.8038  1.0617
12714SOL     OW45191   9.718   0.249   0.463  0.8240  0.0820 -0.1602
12714SOL    HW145192   9.805   0.209   0.467  1.1036  0.5556 -1.1401
12714SOL    HW245193   9.728   0.322   0.402  0.0108  0.8516  0.5920
12715SOL     OW45194   8.032   0.527   1.225  0.2171  0.4006 -0.0029
12715SOL    HW145195   7.984   0.592   1.277  0.5395 -0.1435  0.9960
12715SOL    HW245196   8.012   0.550   1.134  0.9533  2.3840  0.2847
12716SOL     OW45197  11.388   2.594   1.004 -0.0715 -0.7362  0.1117
12716SOL    HW145198  11.425   2.651   0.936  0.0553 -1.3282 -0.3189
12716SOL    HW245199  11.456   2.591   1.071 -0.6839  0.8429  0.8597
12717SOL     OW45200   7.704   3.159  12.568  0.1660 -0.0471  0.5760
12717SOL    HW145201   7.638   3.120  12.511  0.7929 -0.8133  0.3712
12717SOL    HW245202   7.777   3.097  12.568  0.0058 -0.3090  2.5853
12718SOL     OW45203   2.252   3.410   7.181  0.3915 -0.3284 -0.5222
12718SOL    HW145204   2.295   3.328   7.208  2.0954  0.5318 -0.4816
12718SOL    HW245205   2.183   3.382   7.121  1.9967 -1.7152 -1.8043
12719SOL     OW45206   7.830   9.860   5.573 -0.0541 -0.7920  0.0549
12719SOL    HW145207   7.871   9.910   5.644  0.8408 -1.7767  0.2545
12719SOL    HW245208   7.745   9.833   5.610  0.3100 -1.1076  0.6712
12720SOL     OW45209   2.502   1.384   5.575 -0.2195  0.1456  0.2179
12720SOL    HW145210   2.542   1.378   5.661 -0.4501 -1.0010  0.2597
12720SOL    HW245211   2.450   1.304   5.567 -0.0209  0.1284 -1.0781
12721SOL     OW45212  12.499  10.553  10.189  0.0647  0.2970 -0.0424
12721SOL    HW145213  12.513  10.459  10.183 -0.7469  0.1947 -0.5338
12721SOL    HW245214  12.404  10.564  10.180  0.1929  1.1918 -0.4768
12722SOL     OW45215   8.612  11.634   9.108  0.5012  0.0653  0.0060
12722SOL    HW145216   8.535  11.579   9.121 -0.7036  1.7893  0.5620
12722SOL    HW245217   8.637  11.661   9.197  0.6472  0.9454 -0.2940
12723SOL     OW45218   8.575   8.525  12.072  0.0244  0.0198  0.5972
12723SOL    HW145219   8.644   8.460  12.067 -0.9758 -1.1198  1.1495
12723SOL    HW245220   8.621   8.609  12.076  1.3367 -0.6493  0.1060
12724SOL     OW45221   6.440   8.410   4.605 -0.0763  0.0007 -0.2433
12724SOL    HW145222   6.448   8.496   4.564  0.9202  0.5718  1.0341
12724SOL    HW245223   6.515   8.361   4.573 -1.0002 -0.6381 -1.4743
12725SOL     OW45224   6.786   3.147  11.038 -0.4889 -0.5184  0.2182
12725SOL    HW145225   6.695   3.117  11.036 -0.2585 -1.1753 -0.3810
12725SOL    HW245226   6.837   3.074  11.004  0.3611 -0.4596  1.2942
12726SOL     OW45227  11.293   1.932   9.998 -0.7557 -0.0336 -0.0667
12726SOL    HW145228  11.376   1.938  10.046 -0.4014  1.0078 -0.7653
12726SOL    HW245229  11.237   1.878  10.054  0.7772 -1.8163 -0.1302
12727SOL     OW45230   5.939   0.990   0.739  0.0076  0.6729 -0.0621
12727SOL    HW145231   5.871   1.042   0.696 -1.1233 -1.3802 -0.9168
12727SOL    HW245232   5.904   0.901   0.738  2.6436 -0.4350 -0.3368
12728SOL     OW45233   5.847  11.140   4.244  0.1080 -0.3065 -0.1163
12728SOL    HW145234   5.900  11.183   4.177  0.5218  0.4257  0.6575
12728SOL    HW245235   5.771  11.106   4.197  1.0203 -0.9748 -1.1709
12729SOL     OW45236   8.393   6.788  12.243  0.4082  0.3363  0.0784
12729SOL    HW145237   8.465   6.841  12.278 -0.3788  2.1571 -0.9283
12729SOL    HW245238   8.317   6.813  12.296 -0.3391  1.5787 -1.5052
12730SOL     OW45239   9.571   7.373   7.895 -0.0158  0.5624  0.8171
12730SOL    HW145240   9.563   7.331   7.809  1.8574  0.1687  0.7866
12730SOL    HW245241   9.482   7.375   7.929 -0.9284  1.3464 -1.4116
12731SOL     OW45242   2.551   3.692   6.934 -0.1182 -0.0033  0.0340
12731SOL    HW145243   2.549   3.671   7.027  0.3966  1.9480  0.5294
12731SOL    HW245244   2.635   3.657   6.903 -0.7598 -1.6112  0.0180
12732SOL     OW45245   0.521   1.674   9.214 -0.2339 -0.3932 -0.7456
12732SOL    HW145246   0.452   1.731   9.248  1.9540  1.0951  1.4873
12732SOL    HW245247   0.533   1.703   9.124 -1.6214  0.1850 -0.7721
12733SOL     OW45248   0.267   1.676  12.400 -0.1615 -0.2759  0.0801
12733SOL    HW145249   0.172   1.663  12.396 -0.0385 -1.0695 -0.5369
12733SOL    HW245250   0.299   1.604  12.455 -0.1252  1.3069  2.2831
12734SOL     OW45251   7.196   0.054   5.126  0.1809 -0.0319 -0.1033
12734SOL    HW145252   7.290   0.048   5.143  0.0423 -0.9417  0.4441
12734SOL    HW245253   7.176   0.147   5.131  0.7774  0.0459  1.3728
12735SOL     OW45254   3.923  12.082   7.861  0.2222  0.1531  0.2323
12735SOL    HW145255   3.967  12.008   7.818  1.3720  1.6812 -1.3444
12735SOL    HW245256   3.837  12.048   7.883  0.4877 -1.4806 -1.0191
12736SOL     OW45257  12.383   9.370   7.865  0.5776 -0.0128 -0.0568
12736SOL    HW145258  12.366   9.276   7.855 -0.3876  0.1375  0.0976
12736SOL    HW245259  12.441   9.375   7.941  2.0469 -0.5960 -1.0774
12737SOL     OW45260   0.675   1.365   5.761 -0.3326 -0.3042 -0.4166
12737SOL    HW145261   0.688   1.449   5.805 -1.0587 -0.9266  1.0251
12737SOL    HW245262   0.763   1.337   5.736  0.0390  0.3262  0.1650
12738SOL     OW45263  11.764   4.162   9.954 -0.4406  0.1164  0.1954
12738SOL    HW145264  11.856   4.148   9.930 -0.9548 -1.3992 -1.0491
12738SOL    HW245265  11.768   4.219  10.030  1.6174 -1.1662  1.1476
12739SOL     OW45266   7.657   9.712   2.728 -0.2768 -0.3843  0.7017
12739SOL    HW145267   7.692   9.783   2.674  2.6364 -1.6246  0.7756
12739SOL    HW245268   7.600   9.663   2.669  0.6349 -0.0986 -0.4699
12740SOL     OW45269   8.527  10.558   9.341  0.1490 -0.2150  0.1526
12740SOL    HW145270   8.560  10.607   9.417  1.4009 -0.5675 -0.1505
12740SOL    HW245271   8.452  10.610   9.311 -0.1246  0.1433  1.3765
12741SOL     OW45272   1.337   4.172   9.493  0.4301  0.0138  0.1321
12741SOL    HW145273   1.294   4.169   9.578 -1.4530  0.1717 -0.7713
12741SOL    HW245274   1.293   4.105   9.441 -0.0585  1.4762 -1.4179
12742SOL     OW45275   4.218   8.412   3.027 -0.2845  0.2966 -0.2087
12742SOL    HW145276   4.306   8.400   2.993 -0.1397 -0.8272  0.4763
12742SOL    HW245277   4.160   8.395   2.953  0.0669  0.5954 -0.5502
12743SOL     OW45278   5.240   5.043   3.999 -0.1640  0.1695  0.4797
12743SOL    HW145279   5.144   5.046   3.996 -0.2343 -0.6084  1.3377
12743SOL    HW245280   5.267   5.135   4.006 -0.6998  0.6037 -2.2604
12744SOL     OW45281   0.552   4.442   4.859  0.2524 -0.2982  0.5906
12744SOL    HW145282   0.515   4.386   4.926 -0.3660  0.5098  0.9479
12744SOL    HW245283   0.591   4.515   4.907  0.2118  0.0522  0.1105
12745SOL     OW45284   5.668   1.900   3.396  0.3406  0.1700 -0.2213
12745SOL    HW145285   5.599   1.918   3.460  1.0080  0.2641  0.4924
12745SOL    HW245286   5.662   1.972   3.334  1.1880  1.3938  1.0523
12746SOL     OW45287   8.531   3.583   0.953  0.3578 -0.9906  0.3124
12746SOL    HW145288   8.555   3.674   0.971  0.5002 -1.4647  2.7983
12746SOL    HW245289   8.436   3.581   0.959  0.2244 -0.7557 -1.2544
12747SOL     OW45290   7.855   2.635   4.955  0.7092  0.3724 -0.4952
12747SOL    HW145291   7.771   2.613   4.996  1.1442 -2.0560 -0.7527
12747SOL    HW245292   7.905   2.678   5.025 -0.0646  0.1609  0.2116
12748SOL     OW45293  12.457  10.514   5.766 -0.0515  0.8468 -0.3651
12748SOL    HW145294  12.371  10.517   5.809 -0.2478  2.6018 -0.8183
12748SOL    HW245295  12.470  10.602   5.731  1.7358  0.4852 -0.7249
12749SOL     OW45296  11.801   8.496   5.534  0.5342 -0.7938  0.0010
12749SOL    HW145297  11.896   8.508   5.545  0.8850 -3.6917  0.8456
12749SOL    HW245298  11.793   8.419   5.478 -1.3909  0.5784 -1.7720
12750SOL     OW45299  11.054   9.992   3.449  0.6013  0.1209  0.5906
12750SOL    HW145300  11.093   9.975   3.363  0.1792  1.0581  0.2065
12750SOL    HW245301  10.970  10.034   3.430  0.3537  0.0413  1.4562
12751SOL     OW45302   0.222  10.293   8.758  0.2477  0.0498 -1.0831
12751SOL    HW145303   0.272  10.365   8.720  1.2350 -0.0989 -0.1317
12751SOL    HW245304   0.232  10.221   8.696  3.5247 -0.8461  0.2268
12752SOL     OW45305   7.724   4.824   6.775  0.4834 -0.4630  0.3469
12752SOL    HW145306   7.637   4.809   6.813  0.8271 -1.7027  0.6748
12752SOL    HW245307   7.708   4.879   6.699 -0.6557 -1.1455  0.0813
12753SOL     OW45308   2.808   6.628  11.979 -0.0336 -0.4564  0.4419
12753SOL    HW145309   2.857   6.562  12.029  0.1626 -0.6069  0.0569
12753SOL    HW245310   2.719   6.623  12.014 -0.1207 -1.2286  0.1386
12754SOL     OW45311  12.452   0.427   5.315 -0.4108  0.2243 -0.0836
12754SOL    HW145312  12.482   0.465   5.398  1.3457  0.3040 -0.7302
12754SOL    HW245313  12.393   0.493   5.279 -1.7762 -0.1146  1.4113
12755SOL     OW45314   0.687  10.436   3.297  0.5266  0.2042 -0.0247
12755SOL    HW145315   0.762  10.495   3.307  1.2428 -0.8635  1.2749
12755SOL    HW245316   0.702  10.394   3.212  1.2411  0.2269  0.0790
12756SOL     OW45317   1.496   3.717   3.101  0.2518 -0.0708 -0.4699
12756SOL    HW145318   1.468   3.780   3.035  2.4216  0.5226 -0.8861
12756SOL    HW245319   1.563   3.664   3.058  1.0592 -0.2635  0.9594
12757SOL     OW45320   6.085   5.025   4.783  0.3551  0.2258  0.6332
12757SOL    HW145321   6.159   4.978   4.822  1.3826  0.9977 -0.3094
12757SOL    HW245322   6.067   4.977   4.702  0.4268  0.5728  0.4110
12758SOL     OW45323   1.055   0.577   3.904  0.1025 -0.7686 -0.3726
12758SOL    HW145324   1.142   0.589   3.943 -0.3680 -0.6706  0.6857
12758SOL    HW245325   1.051   0.642   3.834  1.5777 -2.0143 -1.7021
12759SOL     OW45326   8.771   0.429   4.610 -0.7279 -0.4094 -0.1766
12759SOL    HW145327   8.716   0.490   4.659  0.7433  1.5309 -0.8440
12759SOL    HW245328   8.778   0.467   4.522  0.8626 -1.1237 -0.3931
12760SOL     OW45329   1.032  10.288   3.196  0.6508  0.7343 -0.4110
12760SOL    HW145330   0.999  10.372   3.226  0.9928  0.0342  2.1095
12760SOL    HW245331   0.956  10.230   3.197  0.9205  0.3822  0.4237
12761SOL     OW45332   0.381   0.396   5.091  0.2414  0.1122  0.6625
12761SOL    HW145333   0.312   0.387   5.026  1.0041 -0.4644 -0.0787
12761SOL    HW245334   0.362   0.480   5.135 -0.1024  0.6540 -0.4920
12762SOL     OW45335   9.700   8.045   5.642 -0.2629  0.0374  0.3232
12762SOL    HW145336   9.616   8.031   5.685 -0.0748 -0.2346  0.6074
12762SOL    HW245337   9.752   7.968   5.666  0.6517  1.0092  1.5506
12763SOL     OW45338   0.389   2.793   8.724 -0.0909 -0.3526  0.1821
12763SOL    HW145339   0.389   2.872   8.777  1.8599  0.9075 -1.5506
12763SOL    HW245340   0.409   2.823   8.635  0.6164 -2.7616 -0.5493
12764SOL     OW45341   7.544   0.091  10.532 -0.2829 -0.3940  0.6083
12764SOL    HW145342   7.622   0.146  10.540 -0.9859  0.7203  0.0794
12764SOL    HW245343   7.512   0.106  10.443 -0.2150 -2.0798  0.2642
12765SOL     OW45344   7.280   5.939   5.770  0.1453  0.5066  0.0324
12765SOL    HW145345   7.368   5.940   5.733 -0.1202  0.6229 -0.6175
12765SOL    HW245346   7.238   5.862   5.731  0.7424 -1.0694  2.2916
12766SOL     OW45347  10.837  12.574   6.141 -0.1863  0.4984 -0.0244
12766SOL    HW145348  10.867  12.519   6.068  1.1424 -0.7721  1.4135
12766SOL    HW245349  10.742  12.567   6.140 -0.0957 -0.8919 -0.5951
12767SOL     OW45350   9.526  12.213   8.005 -0.5209  0.2588  0.1385
12767SOL    HW145351   9.589  12.146   7.977  0.1514  0.3107  1.4618
12767SOL    HW245352   9.533  12.281   7.939  0.3269 -0.0422 -0.1004
12768SOL     OW45353   4.508  10.667   3.101 -0.3172  0.4551  0.3418
12768SOL    HW145354   4.443  10.724   3.059 -0.0474  1.1856  0.8795
12768SOL    HW245355   4.456  10.605   3.152 -0.6786 -0.9319 -1.6035
12769SOL     OW45356   6.491   6.031   2.046 -0.3586  0.3303  0.1501
12769SOL    HW145357   6.564   6.080   2.083  0.8644 -1.4170  0.1729
12769SOL    HW245358   6.431   6.019   2.120 -0.0788  0.7121  0.4457
12770SOL     OW45359   3.039   7.007   1.390 -0.2301 -0.0270 -0.3384
12770SOL    HW145360   3.075   6.982   1.304 -1.8613  1.7730 -1.6078
12770SOL    HW245361   2.991   7.088   1.373  0.9822  1.4576  2.6793
12771SOL     OW45362  12.062   7.806   5.118 -0.4345 -0.3866 -0.3674
12771SOL    HW145363  12.023   7.894   5.116  0.0592 -0.1349  0.4331
12771SOL    HW245364  11.988   7.748   5.136 -0.4235  0.1386  1.6387
12772SOL     OW45365   4.757   0.519  12.043 -0.4554 -0.2473  0.5326
12772SOL    HW145366   4.833   0.520  12.102 -0.2445  0.6020  0.2557
12772SOL    HW245367   4.784   0.571  11.967 -0.5958 -1.6361 -0.5019
12773SOL     OW45368   2.071   4.930  12.401 -0.3918  0.0554  0.4332
12773SOL    HW145369   2.053   4.889  12.485  2.1939 -2.9637 -0.2787
12773SOL    HW245370   2.147   4.882  12.367  1.2166  3.7730 -1.8412
12774SOL     OW45371   5.781   4.474   7.091  0.1220  0.0058  0.7618
12774SOL    HW145372   5.851   4.415   7.063 -0.8992 -0.3948 -1.1716
12774SOL    HW245373   5.776   4.539   7.021 -2.2570 -0.7438  0.1235
12775SOL     OW45374   8.117   3.573   8.297  0.4645 -0.6513 -0.0412
12775SOL    HW145375   8.154   3.558   8.384 -1.1553  0.1968  0.8232
12775SOL    HW245376   8.112   3.485   8.258 -1.8016 -1.5135  1.9956
12776SOL     OW45377   2.564   0.543   0.261 -0.4159  0.3024  0.2609
12776SOL    HW145378   2.586   0.628   0.223  0.6934  0.3572  0.9805
12776SOL    HW245379   2.594   0.479   0.196  0.1526  0.4303  0.3913
12777SOL     OW45380   5.710   3.048   0.542  0.2666  0.6390 -0.3317
12777SOL    HW145381   5.802   3.064   0.566 -0.0281  0.7455  0.7732
12777SOL    HW245382   5.691   3.116   0.477  0.9030  0.7741 -0.3852
12778SOL     OW45383   8.237   6.988   9.024  0.0575 -0.3890  0.1229
12778SOL    HW145384   8.219   6.901   9.059  0.9360 -1.1602 -1.2713
12778SOL    HW245385   8.166   7.005   8.963 -0.5241  0.2219  0.9408
12779SOL     OW45386   3.025   5.776   2.416  0.2288 -0.8097  0.0261
12779SOL    HW145387   2.933   5.801   2.427  0.1141 -0.6652 -1.0903
12779SOL    HW245388   3.048   5.731   2.497 -0.7597 -0.6483  0.4096
12780SOL     OW45389   7.270  10.028   9.400 -0.2917  0.1788 -0.4378
12780SOL    HW145390   7.354   9.987   9.382 -0.3816  0.2940 -1.1371
12780SOL    HW245391   7.261  10.024   9.495  0.6917  0.5406 -0.3193
12781SOL     OW45392   3.281   6.551   7.290 -0.4175  0.8412 -0.0131
12781SOL    HW145393   3.232   6.568   7.210 -3.0948  2.3602  1.8317
12781SOL    HW245394   3.259   6.461   7.313 -2.4463  1.5109  0.7990
12782SOL     OW45395   0.237  11.382   2.232  0.0864 -0.1397 -0.1631
12782SOL    HW145396   0.158  11.431   2.206 -1.1079 -1.4896  0.7637
12782SOL    HW245397   0.218  11.351   2.321  1.7176 -0.4307  0.1174
12783SOL     OW45398   2.796  10.024   2.321 -0.3005 -0.2181  0.0491
12783SOL    HW145399   2.735  10.075   2.374  0.5626  0.1018  0.7546
12783SOL    HW245400   2.795   9.937   2.360 -0.9228 -0.4469 -0.4585
12784SOL     OW45401   5.919   4.296  11.188  0.0214 -0.4238 -0.1506
12784SOL    HW145402   5.979   4.335  11.125 -0.3657 -0.1921 -0.3783
12784SOL    HW245403   5.856   4.365  11.207  0.3488 -0.3693  0.7789
12785SOL     OW45404   7.174   9.706   1.867 -0.4702  0.3634  0.0350
12785SOL    HW145405   7.244   9.641   1.863 -0.6629  0.2225 -1.5804
12785SOL    HW245406   7.220   9.790   1.870 -0.2388  0.2317  0.3018
12786SOL     OW45407   8.276   2.759   9.308  0.3672  0.2422  0.4064
12786SOL    HW145408   8.356   2.736   9.355  1.6324 -0.0596 -1.7514
12786SOL    HW245409   8.296   2.740   9.216 -2.4350 -0.5067 -0.1497
12787SOL     OW45410   7.741   4.927   3.266 -0.2488  0.0487 -0.3308
12787SOL    HW145411   7.747   4.980   3.187 -1.5035 -0.0027 -0.4794
12787SOL    HW245412   7.676   4.971   3.320  0.4896  0.0089  0.6335
12788SOL     OW45413   0.810  11.962  11.964 -0.2868  0.3418 -0.4647
12788SOL    HW145414   0.756  11.962  12.043  0.7420  0.5664  0.2634
12788SOL    HW245415   0.900  11.972  11.997  0.1357  0.6729 -1.6773
12789SOL     OW45416   3.690  10.935   0.827  0.4102 -0.4017 -0.0324
12789SOL    HW145417   3.630  10.947   0.900 -0.0908 -1.5144 -0.2541
12789SOL    HW245418   3.692  10.841   0.812 -0.4668 -0.1196 -2.2463
12790SOL     OW45419   2.423  11.195   2.793  0.0931 -0.2182 -0.9563
12790SOL    HW145420   2.496  11.132   2.799 -1.3699 -1.9373 -0.2461
12790SOL    HW245421   2.443  11.261   2.859  1.7598  0.2162 -1.8331
12791SOL     OW45422   9.915   5.608   3.552  0.4949 -0.1131  0.2255
12791SOL    HW145423   9.832   5.653   3.542  0.1291 -0.9128 -0.4581
12791SOL    HW245424   9.893   5.525   3.594  1.2767  0.6986  2.3404
12792SOL     OW45425   0.913   2.361   0.933 -0.1735  0.1028  0.0754
12792SOL    HW145426   0.888   2.282   0.886  0.8831 -0.2618  0.0877
12792SOL    HW245427   0.830   2.400   0.961 -0.9191  0.9112 -2.9355
12793SOL     OW45428   2.839   4.767   3.592 -0.3406  0.4146 -0.6103
12793SOL    HW145429   2.755   4.808   3.611 -1.0137 -1.5192  0.9590
12793SOL    HW245430   2.841   4.690   3.649  2.6088  0.5259 -0.4195
12794SOL     OW45431   6.412   2.792   7.164  0.0753 -0.1363 -0.3634
12794SOL    HW145432   6.432   2.818   7.074  0.8155 -0.6078 -0.3430
12794SOL    HW245433   6.327   2.833   7.182 -1.6598 -2.5485 -2.3424
12795SOL     OW45434  11.010   5.641  10.397 -0.7240  0.8030  0.1753
12795SOL    HW145435  11.049   5.677  10.476 -1.0123 -0.4929  0.9271
12795SOL    HW245436  10.935   5.590  10.427 -1.6786  1.4200 -1.0595
12796SOL     OW45437  12.576   8.628   9.264  0.4331  0.5857  0.1205
12796SOL    HW145438  12.482   8.614   9.278  0.0524  2.5763 -0.0804
12796SOL    HW245439  12.612   8.639   9.352  0.4128  0.1168  0.1854
12797SOL     OW45440   5.608   2.052   9.956  0.1165 -0.1980  0.3315
12797SOL    HW145441   5.593   2.111  10.030  1.0661 -0.8292  1.0488
12797SOL    HW245442   5.589   1.965   9.990  2.3544 -0.7200  0.4458
12798SOL     OW45443   6.132   4.691  11.202 -0.4561 -0.3049 -0.3160
12798SOL    HW145444   6.041   4.681  11.175 -0.4027  0.8524 -1.0153
12798SOL    HW245445   6.162   4.602  11.218 -1.7983 -0.6852  0.2553
12799SOL     OW45446   2.662   6.753   2.302  0.3404  0.3406  0.3746
12799SOL    HW145447   2.713   6.758   2.221  1.0955 -1.2098  0.7185
12799SOL    HW245448   2.651   6.844   2.328  0.5768  0.8431 -1.1602
12800SOL     OW45449   1.537   2.974   8.023  0.3141 -0.4375  0.0350
12800SOL    HW145450   1.530   2.995   8.116  1.1615  0.7211 -0.1429
12800SOL    HW245451   1.447   2.961   7.994 -0.0220  0.0531  0.8203
12801SOL     OW45452   0.654   5.170   2.249 -0.2813 -0.6069 -0.0151
12801SOL    HW145453   0.705   5.093   2.274 -1.3047 -1.0042  0.9442
12801SOL    HW245454   0.716   5.225   2.201  0.4947 -1.9867 -0.6742
12802SOL     OW45455   5.994   8.286   4.101 -0.0191 -0.1987  0.4908
12802SOL    HW145456   6.038   8.340   4.166 -0.8565 -0.5556  1.3906
12802SOL    HW245457   6.003   8.197   4.134 -0.0476 -0.4394 -0.1361
12803SOL     OW45458   6.275  11.548  12.586  0.6670 -0.2389  0.3446
12803SOL    HW145459   6.208  11.585  12.642 -1.6622  0.3416 -2.5868
12803SOL    HW245460   6.251  11.456  12.576  0.6459 -0.1746 -0.2405
12804SOL     OW45461   0.784   2.384   4.198 -0.3898 -0.4992 -0.3160
12804SOL    HW145462   0.864   2.395   4.147 -0.0721  0.1137  0.2915
12804SOL    HW245463   0.721   2.443   4.156 -0.6176 -1.1880 -0.9634
12805SOL     OW45464   7.357   9.000   9.083  0.3287  0.1908 -0.0869
12805SOL    HW145465   7.333   9.065   9.017 -0.0563 -0.6739 -0.8114
12805SOL    HW245466   7.435   8.957   9.047  0.7546  0.4406  0.5219
12806SOL     OW45467   4.118   6.727  12.060  0.4505  0.2595 -0.1783
12806SOL    HW145468   4.181   6.656  12.048  2.0347  1.9066 -2.3497
12806SOL    HW245469   4.034   6.690  12.031  1.2622 -0.7223 -1.3856
12807SOL     OW45470   7.802  11.840   5.648 -0.4102  0.7159 -0.6228
12807SOL    HW145471   7.892  11.857   5.674 -0.0274 -0.1818 -1.3080
12807SOL    HW245472   7.797  11.867   5.556  0.0577 -2.0971 -1.5626
12808SOL     OW45473   7.186   2.151   2.442 -0.3216  0.5154  0.2433
12808SOL    HW145474   7.126   2.161   2.368 -1.8600 -0.6701  1.2483
12808SOL    HW245475   7.175   2.061   2.470  1.8496  0.3027  0.6128
12809SOL     OW45476  11.178   2.765  11.651 -0.2804 -0.3381  1.3329
12809SOL    HW145477  11.216   2.684  11.619 -1.6508 -0.6461  0.3715
12809SOL    HW245478  11.253   2.822  11.671  0.6683 -1.4159  0.9121
12810SOL     OW45479   8.697  10.407   8.215  0.0989 -0.1787  0.1682
12810SOL    HW145480   8.778  10.458   8.211 -1.3310  2.1207 -1.5591
12810SOL    HW245481   8.653  10.438   8.294 -1.5239  2.6741 -1.7124
12811SOL     OW45482   3.166   1.323   9.360  0.3160 -0.7933 -0.3062
12811SOL    HW145483   3.197   1.236   9.335 -0.8240 -0.6580 -2.4097
12811SOL    HW245484   3.110   1.350   9.288  1.3550  2.0927 -0.1551
12812SOL     OW45485  10.950  11.121   1.733  0.4243  0.1171  0.5455
12812SOL    HW145486  10.991  11.129   1.647  0.0911  1.6894  0.5010
12812SOL    HW245487  10.988  11.193   1.784 -1.0462  0.5910  1.0022
12813SOL     OW45488   8.239   3.630   6.399 -0.6068 -0.4787 -0.1031
12813SOL    HW145489   8.249   3.547   6.352  3.3328 -0.3797  0.2308
12813SOL    HW245490   8.292   3.692   6.349 -0.9439  1.0614  1.3732
12814SOL     OW45491   6.524   0.764  11.728  0.1308 -0.5626 -0.3256
12814SOL    HW145492   6.498   0.671  11.727  1.2164 -0.9095 -2.6885
12814SOL    HW245493   6.589   0.769  11.799  0.6545 -1.7980 -0.6793
12815SOL     OW45494   9.127   6.831   4.284 -0.3144  0.2059  0.4330
12815SOL    HW145495   9.110   6.874   4.200 -1.0915  3.5216  2.1614
12815SOL    HW245496   9.213   6.864   4.311 -0.9012  0.6867  1.7865
12816SOL     OW45497   6.711   8.108  11.562  0.6946 -0.6920 -0.2453
12816SOL    HW145498   6.752   8.178  11.512  0.3316  0.0751  0.5023
12816SOL    HW245499   6.743   8.027  11.521  0.0833 -0.1119 -1.9684
12817SOL     OW45500   9.432  10.281   2.167  0.0233 -0.2161  0.0768
12817SOL    HW145501   9.393  10.293   2.080 -0.1436  0.8278  0.2785
12817SOL    HW245502   9.389  10.203   2.202 -4.0683  2.3143  1.3977
12818SOL     OW45503   8.935   0.645  11.666 -0.2519 -0.3592 -0.0777
12818SOL    HW145504   8.966   0.707  11.600 -0.8697  0.1669  0.1143
12818SOL    HW245505   8.861   0.690  11.708 -0.8720 -1.3297 -0.1049
12819SOL     OW45506  11.160  10.809   8.883  0.0737 -0.5851 -0.5411
12819SOL    HW145507  11.255  10.802   8.892  0.2805  1.8413 -0.2628
12819SOL    HW245508  11.146  10.820   8.789 -0.0358 -1.7344 -0.6766
12820SOL     OW45509   8.338   9.084   3.234 -0.3600  0.3465  0.0495
12820SOL    HW145510   8.364   9.080   3.326  1.3069  1.9461 -0.2925
12820SOL    HW245511   8.418   9.107   3.188 -1.5924  1.5734 -1.5836
12821SOL     OW45512   7.556   2.724   8.062  0.0521  0.4155 -0.2451
12821SOL    HW145513   7.613   2.700   7.989 -0.3670 -0.9861 -0.1311
12821SOL    HW245514   7.591   2.677   8.137 -1.3632 -0.6905 -0.2266
12822SOL     OW45515   2.122   7.116  11.735  0.0959 -0.3259 -0.5493
12822SOL    HW145516   2.187   7.152  11.795 -1.8719  0.6853  1.1191
12822SOL    HW245517   2.063   7.066  11.791 -2.1357  1.1103 -1.4900
12823SOL     OW45518   8.081  11.229   2.729  0.1839  0.5178  0.3882
12823SOL    HW145519   8.062  11.263   2.817 -0.5056  1.1160  0.0122
12823SOL    HW245520   8.064  11.303   2.671 -1.3497 -0.4647 -0.4521
12824SOL     OW45521  12.590   4.486   8.776 -0.7173  0.4306  0.0862
12824SOL    HW145522  12.561   4.429   8.847 -0.4212 -1.1125 -0.9818
12824SOL    HW245523  12.673   4.448   8.747  0.2653  2.2913  0.2980
12825SOL     OW45524   5.124  10.268  10.511  0.0404  0.3450  0.4987
12825SOL    HW145525   5.179  10.294  10.584 -2.2705 -0.3676  2.6297
12825SOL    HW245526   5.071  10.346  10.491 -0.8142 -0.0880  1.0380
12826SOL     OW45527   0.152  11.212   3.161 -0.3707  0.1266 -0.3116
12826SOL    HW145528   0.153  11.250   3.073 -3.3674  0.6926 -0.2138
12826SOL    HW245529   0.168  11.286   3.219 -1.6625  0.4179 -0.2979
12827SOL     OW45530   2.447   4.902   8.219 -0.1508  0.5187 -0.2365
12827SOL    HW145531   2.374   4.841   8.227 -1.9333  2.1276 -2.6721
12827SOL    HW245532   2.412   4.985   8.252  0.1661  1.5375 -2.2801
12828SOL     OW45533  11.472   6.038   3.853 -0.7443 -0.0757  0.1671
12828SOL    HW145534  11.456   6.124   3.891  1.5019  1.1068 -1.3196
12828SOL    HW245535  11.387   6.010   3.819 -2.0233  0.4440  2.7138
12829SOL     OW45536  11.589   4.444   0.818 -0.4011 -0.0265  0.2354
12829SOL    HW145537  11.676   4.477   0.799 -0.2696  0.4232  1.5136
12829SOL    HW245538  11.534   4.522   0.822 -0.7687 -0.2651 -0.1006
12830SOL     OW45539   2.486   9.788   4.220 -0.4106 -0.2330  0.5544
12830SOL    HW145540   2.504   9.774   4.313 -1.2823 -0.9550  0.6184
12830SOL    HW245541   2.436   9.712   4.192  1.2346 -0.8548 -0.9285
12831SOL     OW45542   7.284  10.392  11.772  0.4847  0.3514  0.5192
12831SOL    HW145543   7.336  10.430  11.842  1.1853 -1.8695  1.3005
12831SOL    HW245544   7.211  10.453  11.760  1.9208  2.2838  1.0892
12832SOL     OW45545  10.597   7.882   9.660 -0.2551 -0.3655 -0.4547
12832SOL    HW145546  10.543   7.885   9.581 -1.3668 -0.6153  0.2708
12832SOL    HW245547  10.573   7.799   9.702  0.8022 -0.5471 -0.1736
12833SOL     OW45548   0.074   5.349   4.947 -0.6662  0.2509 -0.0442
12833SOL    HW145549   0.110   5.321   5.032 -1.0562 -0.5670 -0.1489
12833SOL    HW245550   0.122   5.297   4.882  0.2562  1.4940 -0.4062
12834SOL     OW45551  10.483   0.368   0.360 -0.2853  0.1326  0.4459
12834SOL    HW145552  10.439   0.384   0.277  0.6045 -1.9006 -0.5049
12834SOL    HW245553  10.414   0.338   0.419 -0.6693 -0.0023 -0.0681
12835SOL     OW45554   9.278   7.612   8.015 -0.2796  0.0973  0.2160
12835SOL    HW145555   9.229   7.635   8.094 -0.7732  1.0995 -0.3695
12835SOL    HW245556   9.265   7.517   8.006 -0.2723 -0.0189  1.2862
12836SOL     OW45557   0.364   0.544  11.881  0.3910  0.0701 -0.4665
12836SOL    HW145558   0.443   0.509  11.923  0.3602 -0.2169 -0.6468
12836SOL    HW245559   0.309   0.468  11.865  0.9483 -0.0057 -2.1966
12837SOL     OW45560   2.333  12.455   7.406  0.0170 -0.3142 -0.3080
12837SOL    HW145561   2.384  12.453   7.488 -0.5047  0.4007  0.0438
12837SOL    HW245562   2.249  12.415   7.429 -0.4141  0.5729 -0.2774
12838SOL     OW45563   7.484   7.127   7.950 -0.5771  0.5879  0.1181
12838SOL    HW145564   7.571   7.095   7.925 -1.7036 -2.3945 -0.3574
12838SOL    HW245565   7.424   7.087   7.887 -2.3617  2.3942  0.5676
12839SOL     OW45566   7.702  10.071   5.389  0.3131 -0.4061  0.2556
12839SOL    HW145567   7.762  10.145   5.397 -1.1660  0.6500  2.3585
12839SOL    HW245568   7.757   9.994   5.399  1.5683  0.4664  0.2390
12840SOL     OW45569  11.194   4.608   1.849  0.2020 -0.3768  0.1000
12840SOL    HW145570  11.222   4.517   1.836 -1.0567 -0.8876  0.7837
12840SOL    HW245571  11.166   4.637   1.762  1.2551 -0.3908 -0.2619
12841SOL     OW45572  10.290   2.600   5.994 -0.9121  0.1292 -0.0423
12841SOL    HW145573  10.358   2.618   6.059 -1.1058  0.6976  0.0107
12841SOL    HW245574  10.228   2.672   6.004 -1.0508  0.1086 -0.7157
12842SOL     OW45575   6.828   6.485  11.509 -0.3824  0.3234  0.4124
12842SOL    HW145576   6.818   6.566  11.559 -2.5347  0.8394 -0.7719
12842SOL    HW245577   6.854   6.514  11.421  2.3364 -0.5243  0.8235
12843SOL     OW45578   4.540   5.821   8.294  0.3090 -0.1398 -0.5274
12843SOL    HW145579   4.576   5.776   8.217 -2.8490  1.3999 -3.1503
12843SOL    HW245580   4.447   5.799   8.294 -0.2649  1.8948  1.3926
12844SOL     OW45581   0.963   7.316   2.356  0.1635 -0.2396  0.1964
12844SOL    HW145582   1.034   7.299   2.419 -0.1674  0.2951  0.7274
12844SOL    HW245583   0.940   7.230   2.322 -0.4711 -0.7125  1.7272
12845SOL     OW45584   7.491  11.955   6.191 -0.0990 -0.1522  0.2096
12845SOL    HW145585   7.515  11.874   6.145  0.8785 -0.1492  0.6984
12845SOL    HW245586   7.516  11.940   6.282  1.8577  1.3730 -0.0091
12846SOL     OW45587   4.996  10.658   9.599 -0.0598  0.0109 -0.2182
12846SOL    HW145588   4.960  10.581   9.642  0.5356 -1.1705 -1.7358
12846SOL    HW245589   4.921  10.699   9.555 -0.7659  1.4979  2.1990
12847SOL     OW45590   7.802   8.994   7.198  0.0479  0.3754 -0.3675
12847SOL    HW145591   7.803   8.960   7.108  0.0094 -2.2037  0.5195
12847SOL    HW245592   7.714   8.973   7.230  0.0852  1.2134  0.3166
12848SOL     OW45593   7.676   0.202  11.765 -0.5739 -0.4383 -0.5385
12848SOL    HW145594   7.732   0.178  11.692 -0.3901 -0.0926 -0.5120
12848SOL    HW245595   7.720   0.275  11.806 -0.9824 -0.2391 -0.4470
12849SOL     OW45596  10.029   0.989   3.668  0.8309 -0.0598  0.4138
12849SOL    HW145597  10.064   1.023   3.585 -1.3640  2.2925  0.3424
12849SOL    HW245598   9.944   1.031   3.677  0.9056 -0.3896  3.7916
12850SOL     OW45599   3.592  10.997   6.586  0.5431 -1.0507 -0.1715
12850SOL    HW145600   3.585  10.922   6.527  0.0833  0.3382 -1.9796
12850SOL    HW245601   3.526  10.981   6.654 -0.4260 -1.6941 -1.2288
12851SOL     OW45602   8.793   8.854   6.956 -0.1249  0.0213 -0.5187
12851SOL    HW145603   8.717   8.796   6.956  0.3358 -0.6621  1.6577
12851SOL    HW245604   8.779   8.911   7.032  0.9566  0.6951 -0.8067
12852SOL     OW45605   7.723   0.121   5.691  0.0619  0.2222  0.5069
12852SOL    HW145606   7.636   0.161   5.698 -0.3016 -0.4315 -0.0402
12852SOL    HW245607   7.779   0.173   5.748 -1.0529 -0.3567  2.2002
12853SOL     OW45608   3.475   7.461   7.829  0.7494  0.1961  0.3215
12853SOL    HW145609   3.394   7.508   7.807 -0.1004 -1.0280  0.7278
12853SOL    HW245610   3.544   7.510   7.783 -0.4955 -0.1307 -2.0922
12854SOL     OW45611   0.356   8.651   1.278 -0.6699 -0.4239  0.1017
12854SOL    HW145612   0.290   8.662   1.346 -0.2672  0.0624  0.4263
12854SOL    HW245613   0.325   8.578   1.225 -1.4967 -0.1603  0.2130
12855SOL     OW45614   5.041   0.081   5.492  0.0079  0.2419 -0.5529
12855SOL    HW145615   4.981   0.117   5.427  0.4643  0.6887 -0.7340
12855SOL    HW245616   5.105   0.151   5.507  0.3656 -0.1520 -0.2190
12856SOL     OW45617   2.852   7.804   2.176  0.3530  0.1716 -0.8351
12856SOL    HW145618   2.944   7.801   2.149  0.2508 -1.1433 -1.0913
12856SOL    HW245619   2.851   7.764   2.263  0.0907  0.6395 -0.6201
12857SOL     OW45620  10.967   6.703   3.004  0.1235  0.1480 -0.4950
12857SOL    HW145621  10.909   6.753   3.062  0.1863  1.9289 -1.8607
12857SOL    HW245622  10.937   6.613   3.010  0.3619  0.1785  2.5594
12858SOL     OW45623   2.835   1.522  11.153 -0.1035  0.2409 -0.0890
12858SOL    HW145624   2.756   1.564  11.186  0.9951  0.5894  2.3293
12858SOL    HW245625   2.842   1.440  11.203  0.6751 -0.1506 -0.8095
12859SOL     OW45626  12.145   5.886   4.325  0.4023 -0.1209 -0.0782
12859SOL    HW145627  12.172   5.942   4.252 -0.4710 -0.0803 -0.3879
12859SOL    HW245628  12.166   5.797   4.296 -2.5152 -0.4223 -1.6778
12860SOL     OW45629   3.164   1.055  11.871 -0.5643  0.2234 -0.0179
12860SOL    HW145630   3.159   0.959  11.867 -0.6801  0.1524  1.4209
12860SOL    HW245631   3.072   1.083  11.867 -0.4957  0.3583 -1.4215
12861SOL     OW45632   0.426   5.020  11.062  0.7716  0.2512  0.6547
12861SOL    HW145633   0.507   5.070  11.074  1.7389 -0.5986 -1.7518
12861SOL    HW245634   0.451   4.948  11.004 -1.6364 -0.2512  0.1609
12862SOL     OW45635  10.019   8.747   1.554 -0.2734  0.2594 -0.0332
12862SOL    HW145636   9.966   8.711   1.483 -1.2589  0.7835  0.4131
12862SOL    HW245637  10.088   8.797   1.510 -0.2387 -0.2943 -0.6222
12863SOL     OW45638   1.125   2.499  10.334 -0.4176 -0.1350  0.0936
12863SOL    HW145639   1.128   2.536  10.422 -1.1131  2.8115 -1.0102
12863SOL    HW245640   1.212   2.518  10.297 -0.7323  0.2821 -0.4455
12864SOL     OW45641   0.668   1.919  12.060 -0.0193 -0.2616  0.1905
12864SOL    HW145642   0.584   1.964  12.057 -0.1729 -0.5071  0.6410
12864SOL    HW245643   0.707   1.935  11.975 -0.7021 -0.4946 -0.1722
12865SOL     OW45644   5.984  10.215   2.244  0.1321  0.4389 -0.0559
12865SOL    HW145645   5.998  10.310   2.239 -1.9816  0.8485  0.5998
12865SOL    HW245646   5.982  10.196   2.338 -1.0788  0.0530 -0.1437
12866SOL     OW45647   0.623   1.970   6.714  0.0424 -0.5432 -0.4002
12866SOL    HW145648   0.583   1.888   6.744  1.2971 -0.4299  1.7662
12866SOL    HW245649   0.549   2.029   6.700 -0.7169 -0.9262  1.6551
12867SOL     OW45650  11.204   8.497   5.565  0.0095 -0.0366 -0.2037
12867SOL    HW145651  11.166   8.468   5.648  0.4433 -2.2138 -0.6947
12867SOL    HW245652  11.285   8.446   5.558 -0.4332 -0.5210 -2.3346
12868SOL     OW45653   8.930   4.376   0.686 -0.1879 -0.1025 -0.6336
12868SOL    HW145654   8.923   4.291   0.641  0.5891 -1.2287  1.2760
12868SOL    HW245655   9.023   4.395   0.687  0.0158 -0.9197  1.8433
12869SOL     OW45656   0.927   2.543   6.527  0.3369 -0.0490 -0.1044
12869SOL    HW145657   0.943   2.637   6.525  0.2987 -0.0511 -0.5507
12869SOL    HW245658   0.977   2.508   6.454 -1.6275 -0.0576 -1.5384
12870SOL     OW45659   1.256   3.037   8.711  0.0432 -0.2376 -0.2125
12870SOL    HW145660   1.198   3.032   8.635 -0.5594  2.8610 -0.1069
12870SOL    HW245661   1.283   3.129   8.714  2.6231 -0.9365  1.5006
12871SOL     OW45662   1.058   6.764   1.184  0.0336 -0.0637 -0.1460
12871SOL    HW145663   0.991   6.755   1.251  0.4464  0.7742  0.3850
12871SOL    HW245664   1.133   6.804   1.228  0.2548  0.6679 -1.1346
12872SOL     OW45665   4.314   0.253  12.481 -0.1382  0.1738 -0.5766
12872SOL    HW145666   4.259   0.289  12.412 -1.5829 -1.0925 -0.1338
12872SOL    HW245667   4.259   0.251  12.559  0.8737 -0.1136  0.1641
12873SOL     OW45668  11.782  11.876   2.816 -0.0344 -0.1108  0.1745
12873SOL    HW145669  11.721  11.827   2.760 -0.6987 -0.9720  1.5938
12873SOL    HW245670  11.758  11.968   2.802  0.0064 -0.2830 -1.1460
12874SOL     OW45671   1.907   9.875   7.010 -0.9820  0.0923 -0.3070
12874SOL    HW145672   1.983   9.861   6.953 -1.0473  0.0739 -0.3911
12874SOL    HW245673   1.927   9.826   7.089 -0.5499  0.7408 -0.0072
12875SOL     OW45674   8.680   5.598  12.089 -0.4047 -0.3149 -0.8075
12875SOL    HW145675   8.606   5.639  12.134  0.1811  0.9060 -0.9132
12875SOL    HW245676   8.646   5.514  12.059 -0.9651 -0.9141  1.3844
12876SOL     OW45677   8.610   7.643  11.230 -0.0241 -0.1682  0.1526
12876SOL    HW145678   8.573   7.586  11.162 -0.3546  1.3256 -0.9813
12876SOL    HW245679   8.672   7.587  11.277  0.8392 -1.0716 -1.9179
12877SOL     OW45680   2.388   1.291   2.421 -0.1361 -0.0433 -0.5038
12877SOL    HW145681   2.354   1.239   2.494 -0.4183  0.7048 -0.0913
12877SOL    HW245682   2.339   1.261   2.345  0.9143 -1.6082 -0.6275
12878SOL     OW45683   6.829   6.218   8.067 -0.5011 -0.2808 -0.1246
12878SOL    HW145684   6.803   6.130   8.096  0.6689 -0.2034  1.3081
12878SOL    HW245685   6.845   6.208   7.973 -1.4691 -1.3118 -0.2136
12879SOL     OW45686   6.291   2.630  10.203 -0.2154  0.3478 -0.2909
12879SOL    HW145687   6.302   2.674  10.119 -1.3881  1.0850 -0.0812
12879SOL    HW245688   6.308   2.538  10.185 -2.3774  0.1639 -1.8020
12880SOL     OW45689  11.479   9.830   7.624  0.2036 -0.1440 -0.1897
12880SOL    HW145690  11.485   9.917   7.585 -0.1943 -0.0846 -0.1177
12880SOL    HW245691  11.545   9.778   7.577 -1.8538 -0.7184 -2.6497
12881SOL     OW45692   5.171   0.159  11.284 -0.3770  0.1718  0.4348
12881SOL    HW145693   5.120   0.081  11.307  2.0899 -1.7846 -0.2069
12881SOL    HW245694   5.222   0.178  11.363  0.9513 -0.5550 -0.2084
12882SOL     OW45695   6.299   7.395   7.742 -0.1275 -0.5507  0.2574
12882SOL    HW145696   6.345   7.452   7.804  2.1305 -2.0171  0.0581
12882SOL    HW245697   6.231   7.450   7.705  2.9482  2.6714 -1.2000
12883SOL     OW45698   1.378  10.280   8.285 -0.2136 -0.5671  0.0652
12883SOL    HW145699   1.470  10.302   8.295 -0.6525  2.3881 -1.2281
12883SOL    HW245700   1.344  10.275   8.374  1.4482 -3.4180  0.6391
12884SOL     OW45701   7.552  11.656   7.738 -0.6221  0.1646  0.0184
12884SOL    HW145702   7.587  11.685   7.822  0.6411 -1.9072  0.2827
12884SOL    HW245703   7.502  11.578   7.759 -0.5456 -0.2045 -1.1174
12885SOL     OW45704   3.666   2.975   4.304  0.4003  0.2239 -0.1562
12885SOL    HW145705   3.747   2.930   4.325  0.8519 -0.0041 -2.2132
12885SOL    HW245706   3.598   2.924   4.348  1.2953  0.1311  1.1788
12886SOL     OW45707   3.756   3.910   2.987  0.6615 -0.6641  0.2379
12886SOL    HW145708   3.770   3.972   2.916 -1.1704 -0.7681 -0.2762
12886SOL    HW245709   3.807   3.944   3.060  3.0083 -0.8166 -1.2247
12887SOL     OW45710   5.259   0.369   7.909  0.3167 -0.1866  0.0083
12887SOL    HW145711   5.296   0.423   7.978  0.7392 -1.4753  0.8411
12887SOL    HW245712   5.319   0.378   7.835  1.5215 -1.0880  0.8429
12888SOL     OW45713   2.250  10.008   2.331 -0.1628  0.7404  0.3663
12888SOL    HW145714   2.316   9.940   2.317 -0.7016  0.1288  0.7290
12888SOL    HW245715   2.241  10.013   2.427 -2.1914 -0.7353  0.3201
12889SOL     OW45716   6.408   5.149  11.557 -0.1648 -0.1965  0.3538
12889SOL    HW145717   6.351   5.092  11.609  1.4114 -0.3762  1.9583
12889SOL    HW245718   6.479   5.092  11.528  1.1086  0.7606  1.4662
12890SOL     OW45719   4.112  11.964   4.111  0.1871  0.1258 -0.5345
12890SOL    HW145720   4.095  11.899   4.042 -1.6832 -0.5606  0.4972
12890SOL    HW245721   4.154  11.913   4.181  0.1721  0.3664 -0.3515
12891SOL     OW45722   6.536   0.476   1.774 -0.0788 -0.5980 -0.3320
12891SOL    HW145723   6.511   0.537   1.705  0.1599  2.0343  1.7675
12891SOL    HW245724   6.492   0.509   1.852  2.8604 -1.0355  1.6359
12892SOL     OW45725   7.580   9.041   0.131  0.8975 -0.3420 -0.2515
12892SOL    HW145726   7.576   9.058   0.225 -0.1145 -1.1794 -0.1174
12892SOL    HW245727   7.524   9.108   0.092 -1.3202 -1.8794  0.0781
12893SOL     OW45728  11.970   0.842   8.710 -0.4986 -0.3287  0.1205
12893SOL    HW145729  12.026   0.914   8.739 -0.7349  0.3208 -0.9624
12893SOL    HW245730  11.894   0.847   8.768 -0.3974  0.1318  0.2201
12894SOL     OW45731   7.064   0.399   8.838 -0.0352  0.3313  0.5044
12894SOL    HW145732   7.044   0.373   8.928 -2.2802  3.5867  1.1113
12894SOL    HW245733   7.154   0.431   8.842  0.0343  0.0460  1.4839
12895SOL     OW45734   2.211   4.649   0.237 -0.1414 -0.0934 -0.2379
12895SOL    HW145735   2.147   4.583   0.262 -0.1130  0.0457  0.1996
12895SOL    HW245736   2.189   4.670   0.146 -1.0600  0.3600  0.0863
12896SOL     OW45737  12.460   3.640   7.971 -0.0333  0.3212 -0.2284
12896SOL    HW145738  12.421   3.727   7.971 -0.6440  0.0592  0.4727
12896SOL    HW245739  12.446   3.607   8.060  1.0392 -0.1203 -0.2010
12897SOL     OW45740   0.758   2.409   8.727  0.4310 -0.6649  0.2244
12897SOL    HW145741   0.748   2.316   8.744  0.3021 -0.6880  0.0216
12897SOL    HW245742   0.671   2.446   8.740  0.1699 -0.7967 -1.0993
12898SOL     OW45743   0.924  11.246   2.416 -0.0544  0.0353 -0.1228
12898SOL    HW145744   1.002  11.259   2.470 -1.7519 -0.0489  2.5411
12898SOL    HW245745   0.933  11.158   2.379  1.0801  0.0315  0.1510
12899SOL     OW45746  12.292   9.031   2.059 -0.1140  0.0837 -0.0778
12899SOL    HW145747  12.311   9.018   1.966  1.7420 -0.8726  0.3783
12899SOL    HW245748  12.207   9.075   2.060 -1.4566 -2.1888 -2.1525
12900SOL     OW45749  12.221   3.661   6.195  0.1682  0.1499 -0.4271
12900SOL    HW145750  12.149   3.647   6.133  0.5466  2.8437 -1.6401
12900SOL    HW245751  12.181   3.707   6.268  0.2737 -0.2886 -0.0919
12901SOL     OW45752   1.791   3.876  12.251  0.0388  0.5602  0.7975
12901SOL    HW145753   1.790   3.847  12.160  0.2169  2.2181  0.2254
12901SOL    HW245754   1.879   3.855  12.282 -0.6521 -1.9305  1.3131
12902SOL     OW45755   1.470   5.277   0.661  0.0144 -0.0739 -0.3513
12902SOL    HW145756   1.535   5.278   0.591  1.2103 -0.6367  0.7114
12902SOL    HW245757   1.429   5.363   0.657  0.9407  0.3530 -0.9533
12903SOL     OW45758  10.938   7.804   1.922 -0.4096 -0.2429  0.5183
12903SOL    HW145759  10.879   7.813   1.846  1.3018 -0.0656 -0.8411
12903SOL    HW245760  10.976   7.891   1.933  0.3465 -0.5975  0.7460
12904SOL     OW45761   7.044   2.685   9.330  0.1337 -0.1235 -0.1283
12904SOL    HW145762   7.093   2.629   9.392 -3.0537 -2.6396  0.3851
12904SOL    HW245763   6.969   2.715   9.380 -0.7031  0.7122 -1.8309
12905SOL     OW45764   6.065   2.980   0.248 -0.1220  0.2968  0.2262
12905SOL    HW145765   6.064   3.059   0.194 -3.6262  1.0404  1.1108
12905SOL    HW245766   5.991   2.929   0.217  0.1727 -1.1379  1.7599
12906SOL     OW45767   6.908  11.418  11.139  0.1363 -0.2484 -0.0263
12906SOL    HW145768   6.981  11.361  11.160  0.0630 -0.6263 -0.7897
12906SOL    HW245769   6.947  11.505  11.130  0.3776 -0.3253  0.2797
12907SOL     OW45770   8.776   5.194   6.190  0.1892  0.1488 -0.5875
12907SOL    HW145771   8.717   5.267   6.209 -0.0635 -0.2130  0.0104
12907SOL    HW245772   8.759   5.174   6.098 -2.0407 -1.2082  0.0511
12908SOL     OW45773   0.085   9.558   9.737  0.8334  0.2033 -0.1718
12908SOL    HW145774   0.078   9.466   9.710 -2.2992  0.4415 -0.6495
12908SOL    HW245775   0.093   9.554   9.833  1.4180 -0.5749 -0.2429
12909SOL     OW45776   5.321   1.817   7.110 -0.0744 -0.1517  0.3161
12909SOL    HW145777   5.273   1.830   7.028  1.0705 -0.5750 -0.4368
12909SOL    HW245778   5.337   1.723   7.114  2.2726  0.1497 -0.4007
12910SOL     OW45779   2.507  11.175  11.150  0.0878  0.2810  0.8633
12910SOL    HW145780   2.519  11.106  11.084  1.0205  0.0419  1.2626
12910SOL    HW245781   2.414  11.198  11.144  0.1381  0.2047 -0.4634
12911SOL     OW45782  11.091  11.775   7.793 -0.3580  0.7836 -0.6395
12911SOL    HW145783  11.042  11.744   7.868 -0.1992  1.5333 -0.2101
12911SOL    HW245784  11.066  11.867   7.784 -0.2701  0.7418 -1.4204
12912SOL     OW45785   1.711   5.920   0.271 -0.2780 -0.5194  0.0460
12912SOL    HW145786   1.725   5.831   0.239 -2.1321 -0.9304  0.2183
12912SOL    HW245787   1.702   5.910   0.366 -1.0738 -0.2672  0.0108
12913SOL     OW45788   4.172  11.121   6.652  0.1707  0.0497  0.1904
12913SOL    HW145789   4.209  11.149   6.736 -0.9632 -0.1135  0.7687
12913SOL    HW245790   4.246  11.083   6.604  1.1653  1.5211  0.4861
12914SOL     OW45791   0.135   5.542   7.352 -0.1579  0.5095 -0.1915
12914SOL    HW145792   0.170   5.531   7.264 -0.6918  1.9873 -0.6210
12914SOL    HW245793   0.202   5.506   7.410  0.6916  0.5290 -1.1451
12915SOL     OW45794   3.206   8.320   1.330  0.4851 -0.3810 -0.3863
12915SOL    HW145795   3.198   8.230   1.360  0.6141 -0.5254 -0.7808
12915SOL    HW245796   3.296   8.328   1.300  0.6238  0.0325  0.1307
12916SOL     OW45797   8.547  12.349   9.926  0.1221  0.4510 -0.0268
12916SOL    HW145798   8.638  12.322   9.928 -0.0734 -0.3369 -0.9810
12916SOL    HW245799   8.541  12.418   9.992  1.0942 -0.4061  0.9928
12917SOL     OW45800   1.576   4.991   2.033 -0.1677  0.2072 -0.6768
12917SOL    HW145801   1.544   5.076   2.066  0.3996  0.8362 -1.7102
12917SOL    HW245802   1.670   4.992   2.051 -0.5561 -1.5157  2.0688
12918SOL     OW45803   3.624   0.419  12.557  0.6741  0.3664 -0.6887
12918SOL    HW145804   3.631   0.502  12.510  0.5558  0.4856 -0.5008
12918SOL    HW245805   3.568   0.364  12.501  0.5058  0.5187 -0.6715
12919SOL     OW45806   9.592   9.039   6.515  0.1351  0.7815 -0.4557
12919SOL    HW145807   9.604   9.119   6.565 -1.2615  2.9109 -3.2278
12919SOL    HW245808   9.570   8.972   6.580  0.0888  2.9121  1.8579
12920SOL     OW45809  11.045   7.823  10.241 -0.3286 -0.5076 -0.1965
12920SOL    HW145810  10.967   7.768  10.243 -1.1236  0.5745 -0.5976
12920SOL    HW245811  11.016   7.907  10.276 -0.1424  0.8460 -3.0508
12921SOL     OW45812   7.286   2.394   0.912 -0.5877  0.2225  0.2084
12921SOL    HW145813   7.195   2.408   0.938 -0.1282 -0.2304  2.2444
12921SOL    HW245814   7.299   2.299   0.922 -0.7849 -0.3172 -3.3685
12922SOL     OW45815   0.971   4.946   4.665  0.0302 -0.4889  0.2232
12922SOL    HW145816   1.064   4.943   4.687 -0.1895 -0.4818  1.2204
12922SOL    HW245817   0.928   4.901   4.738 -0.9161  1.3538  0.8483
12923SOL     OW45818  11.368   7.574   7.113  0.3168  0.0847 -0.2470
12923SOL    HW145819  11.358   7.650   7.171  1.1135  1.2306 -1.5637
12923SOL    HW245820  11.461   7.552   7.119  0.4338  0.3055 -1.1901
12924SOL     OW45821   8.544   0.045   0.293 -0.4305  0.2307 -0.2486
12924SOL    HW145822   8.625   0.096   0.290 -1.1513  1.3887 -1.1826
12924SOL    HW245823   8.517   0.039   0.201 -0.6568 -1.3946 -0.0967
12925SOL     OW45824   5.684   6.913  12.375 -0.0412 -0.1436  0.2542
12925SOL    HW145825   5.647   6.825  12.374 -0.1288 -0.1082 -0.5804
12925SOL    HW245826   5.777   6.900  12.395  0.2042 -0.5520 -1.0338
12926SOL     OW45827   1.162   5.088   4.963  0.4484  0.2260 -0.1277
12926SOL    HW145828   1.145   4.999   4.992  0.9353  0.5270  1.1745
12926SOL    HW245829   1.223   5.079   4.890  2.0825 -0.4746  1.2344
12927SOL     OW45830   2.083   0.955   0.075 -0.5315  0.2897  0.3524
12927SOL    HW145831   2.055   0.865   0.058  1.1287 -0.3869  1.0070
12927SOL    HW245832   2.077   0.964   0.170 -0.1834  0.6935  0.3360
12928SOL     OW45833   5.458   4.039  11.664 -0.3388  0.4876  0.5651
12928SOL    HW145834   5.466   4.129  11.695 -1.6331 -0.7126  5.1453
12928SOL    HW245835   5.366   4.016  11.678 -0.1442 -1.4744 -0.8455
12929SOL     OW45836   9.581   4.484   5.776 -0.2402  0.3687  0.3457
12929SOL    HW145837   9.635   4.544   5.828 -0.0077  0.6087 -0.1653
12929SOL    HW245838   9.536   4.541   5.713 -0.0488  0.0154 -0.1155
12930SOL     OW45839   8.971   7.459   6.809  0.1069  0.1228  0.1325
12930SOL    HW145840   9.004   7.517   6.878  1.0938  1.2689 -1.2558
12930SOL    HW245841   8.879   7.446   6.832 -0.2552  2.5412  0.3186
12931SOL     OW45842   3.842   8.827   6.998 -0.2597  0.2897  0.0851
12931SOL    HW145843   3.765   8.883   6.984  0.0917  0.7063 -0.2085
12931SOL    HW245844   3.807   8.738   6.995 -0.6126  0.4383 -0.8935
12932SOL     OW45845  10.761   1.150   3.632  0.0148  0.0207  0.1820
12932SOL    HW145846  10.777   1.091   3.705  0.3457 -0.4923 -0.2944
12932SOL    HW245847  10.801   1.106   3.556  0.6333  1.0293 -0.1077
12933SOL     OW45848   6.188   9.700   2.221  0.1440  0.3615 -0.6726
12933SOL    HW145849   6.268   9.648   2.233 -1.3749 -1.7721  0.8734
12933SOL    HW245850   6.136   9.650   2.158 -0.5983  1.0108 -0.5850
12934SOL     OW45851   7.544   5.592  11.462 -0.1364  0.4376  0.2148
12934SOL    HW145852   7.531   5.626  11.550  0.3357 -1.0368  0.8839
12934SOL    HW245853   7.468   5.623  11.412 -0.2741  1.4992  1.0473
12935SOL     OW45854   5.786  11.384   5.751 -0.6246 -0.1176 -0.6470
12935SOL    HW145855   5.854  11.328   5.713  0.0681  0.1673  0.1296
12935SOL    HW245856   5.704  11.338   5.734 -0.0856 -1.2947 -0.1681
12936SOL     OW45857   2.980   5.753   1.770 -0.0186 -0.1175 -0.2566
12936SOL    HW145858   2.938   5.780   1.852 -0.8215  0.8882 -0.9792
12936SOL    HW245859   2.924   5.682   1.738  0.7898 -1.1293  0.4715
12937SOL     OW45860   8.244   9.988   2.360 -0.0647 -1.0215  0.1057
12937SOL    HW145861   8.220   9.906   2.315  0.9292 -0.2103 -2.0541
12937SOL    HW245862   8.327   9.967   2.403  0.1866 -1.1675 -0.4360
12938SOL     OW45863   5.133   6.082   5.387 -0.2038  0.0687  0.3187
12938SOL    HW145864   5.108   6.105   5.297 -0.7673 -2.0492 -0.1057
12938SOL    HW245865   5.058   6.107   5.440 -0.8918 -0.9188 -0.1625
12939SOL     OW45866   9.454  11.461   1.112 -0.2612  0.8738 -0.0142
12939SOL    HW145867   9.541  11.427   1.091 -0.4424  1.0911 -1.1717
12939SOL    HW245868   9.394  11.400   1.070 -0.6533  1.0705  0.2619
12940SOL     OW45869  11.692  11.082  10.519 -0.1349  0.1655 -0.0167
12940SOL    HW145870  11.680  11.051  10.429  0.7256 -1.8183  0.4933
12940SOL    HW245871  11.627  11.151  10.529 -0.2408  0.4464 -2.1623
12941SOL     OW45872   6.481   1.836   0.804 -0.6129  0.6040  0.2222
12941SOL    HW145873   6.516   1.749   0.825 -0.7974  0.7253  1.0612
12941SOL    HW245874   6.456   1.830   0.712  0.3902  0.1080 -0.0341
12942SOL     OW45875   1.947   3.747  10.686 -0.1799  0.2301  0.1178
12942SOL    HW145876   1.938   3.657  10.716 -1.6947 -0.0228 -1.0109
12942SOL    HW245877   2.041   3.765  10.693  0.0639 -1.1995  0.9579
12943SOL     OW45878   2.395   1.036   8.171 -0.0618 -0.0680 -0.0759
12943SOL    HW145879   2.484   1.034   8.135  1.1030 -2.4852  2.5371
12943SOL    HW245880   2.342   0.990   8.106  0.7249  0.6965 -1.3101
12944SOL     OW45881   4.867   3.193   0.963  0.2256 -0.7313  0.5278
12944SOL    HW145882   4.929   3.136   1.009  0.2638 -1.2589 -0.1619
12944SOL    HW245883   4.871   3.276   1.011  0.5751 -1.1341  1.2119
12945SOL     OW45884   5.531   3.182   3.356  0.3703 -0.5025  0.2959
12945SOL    HW145885   5.500   3.214   3.272  2.4597  0.1994 -0.2645
12945SOL    HW245886   5.527   3.259   3.414  0.1008 -0.6735  0.5078
12946SOL     OW45887   6.647  10.570   3.538  0.4031 -0.2615 -0.5993
12946SOL    HW145888   6.681  10.506   3.476  1.1490 -0.4167 -0.0378
12946SOL    HW245889   6.589  10.625   3.486 -1.2420 -2.1304 -0.8556
12947SOL     OW45890  11.538   6.596   7.782 -0.2723  0.3081 -0.4003
12947SOL    HW145891  11.457   6.622   7.737 -0.9036 -0.1049  0.4597
12947SOL    HW245892  11.509   6.532   7.847  0.6347  0.7840  0.4886
12948SOL     OW45893   5.707  11.841   5.873  0.0522  0.6546  0.1905
12948SOL    HW145894   5.775  11.884   5.821  0.3824  0.0682  0.1353
12948SOL    HW245895   5.701  11.752   5.837  0.0251  0.3592  0.9097
12949SOL     OW45896   6.992   5.994   8.335 -0.2837  0.4730  0.1268
12949SOL    HW145897   7.048   6.056   8.287  0.5823  0.8736  1.5935
12949SOL    HW245898   6.905   6.005   8.297 -0.1013  2.4438  0.2050
12950SOL     OW45899  12.181   5.106   5.948 -0.6852 -0.1306  0.2438
12950SOL    HW145900  12.176   5.125   5.855  0.5212 -0.5815  0.0705
12950SOL    HW245901  12.117   5.164   5.988 -2.6798 -1.2926 -1.0511
12951SOL     OW45902   6.951   3.710   6.612  0.1300 -0.3186  0.2748
12951SOL    HW145903   6.970   3.782   6.553  0.6387 -0.0132  0.8006
12951SOL    HW245904   6.864   3.729   6.647  0.6008  0.4793  1.0390
12952SOL     OW45905   7.504   2.735   2.095  0.3805 -0.0888  0.1832
12952SOL    HW145906   7.554   2.781   2.028 -0.0436 -0.7642 -0.6166
12952SOL    HW245907   7.567   2.675   2.135  0.8950  1.0376  1.1196
12953SOL     OW45908   9.594   8.387   6.627  0.0809 -0.4667 -0.2792
12953SOL    HW145909   9.676   8.430   6.602  0.5878 -0.7743  0.8056
12953SOL    HW245910   9.592   8.307   6.574 -0.1179  0.1233 -1.1814
12954SOL     OW45911  11.795   1.239  10.731  0.0328  0.0179  0.0926
12954SOL    HW145912  11.870   1.193  10.768  0.1271 -0.0055 -0.1263
12954SOL    HW245913  11.727   1.172  10.724  0.2859 -0.1813 -0.5703
12955SOL     OW45914   4.069   6.935   2.731 -0.4687  0.3745  0.0226
12955SOL    HW145915   4.018   6.855   2.720 -0.7081  0.5029  0.1768
12955SOL    HW245916   4.120   6.944   2.651 -0.8768  0.3777 -0.2371
12956SOL     OW45917   2.729   3.879   9.392 -0.2533  0.1717  0.8825
12956SOL    HW145918   2.782   3.958   9.382 -1.4125  0.7326 -1.7378
12956SOL    HW245919   2.689   3.887   9.478  1.5116  1.2281  1.6399
12957SOL     OW45920  11.992   9.212  10.652  0.3663  0.1649  0.3326
12957SOL    HW145921  12.018   9.171  10.570  0.1205  0.2411  0.2182
12957SOL    HW245922  12.064   9.272  10.672 -0.5531  1.7999 -0.9679
12958SOL     OW45923   1.546   4.765   9.349  0.0784  0.2244 -0.1899
12958SOL    HW145924   1.518   4.827   9.282  0.2618 -0.6263 -1.0849
12958SOL    HW245925   1.620   4.720   9.310 -1.6985 -2.4706 -0.7479
12959SOL     OW45926   5.481   9.376   0.299 -0.0019  0.1412  0.0136
12959SOL    HW145927   5.392   9.400   0.276 -0.8617  1.5686  3.9792
12959SOL    HW245928   5.536   9.443   0.259 -0.8156  0.1043 -1.2075
12960SOL     OW45929  12.462  11.452  10.595  0.2012 -0.1384 -0.2264
12960SOL    HW145930  12.492  11.519  10.533 -0.2379  0.4558  0.1838
12960SOL    HW245931  12.385  11.414  10.553  1.2121 -1.3220 -1.0567
12961SOL     OW45932   4.965   0.377   7.929 -0.6646  0.1059 -0.8078
12961SOL    HW145933   5.059   0.367   7.918 -0.7222 -1.1010 -0.3440
12961SOL    HW245934   4.954   0.413   8.017 -0.6757 -1.0831 -0.3031
12962SOL     OW45935   7.503   3.942   3.418  0.5924  0.4974 -0.5041
12962SOL    HW145936   7.464   3.924   3.332  0.8505  0.0945 -0.5365
12962SOL    HW245937   7.449   4.013   3.453  0.3346  0.5027 -0.8965
12963SOL     OW45938   3.943   0.163   3.444 -0.1482  0.5314 -0.0984
12963SOL    HW145939   3.889   0.086   3.427 -0.1636  0.3329  0.8341
12963SOL    HW245940   4.023   0.148   3.393  0.2276 -0.5238  0.7726
12964SOL     OW45941   7.515   4.275   3.729  0.3804  0.3616  0.4486
12964SOL    HW145942   7.600   4.241   3.757  0.6120  0.0409 -0.5983
12964SOL    HW245943   7.452   4.207   3.754  0.5954  0.0366  0.1161
12965SOL     OW45944   8.255   5.358   5.996 -0.2902 -0.4808 -0.0248
12965SOL    HW145945   8.254   5.441   6.043  0.9462 -0.7889  0.5780
12965SOL    HW245946   8.263   5.382   5.903  1.8483  0.0752  0.2571
12966SOL     OW45947   0.147   8.173  11.083 -0.2192  0.1068  0.2794
12966SOL    HW145948   0.104   8.094  11.116  0.2330 -0.4343 -0.3895
12966SOL    HW245949   0.197   8.143  11.007 -0.9617  1.2516 -0.7017
12967SOL     OW45950   7.846   8.651   0.242  0.2187 -0.5615  0.2013
12967SOL    HW145951   7.765   8.686   0.279  0.6747 -0.0590  0.7344
12967SOL    HW245952   7.912   8.670   0.308  1.0139  0.2060 -0.7864
12968SOL     OW45953   9.788   3.740   6.293 -0.1389 -0.1450 -0.0639
12968SOL    HW145954   9.871   3.693   6.292  0.1785  0.3925 -0.8107
12968SOL    HW245955   9.724   3.676   6.264  0.5418  0.2618 -2.7418
12969SOL     OW45956  11.219   8.713  11.374  0.5385 -0.4450 -0.0936
12969SOL    HW145957  11.181   8.735  11.289 -0.5080 -1.8978 -0.0406
12969SOL    HW245958  11.163   8.758  11.438 -0.4059 -1.5771 -0.0774
12970SOL     OW45959  12.586   7.624   5.877 -0.6281 -0.1883  0.0547
12970SOL    HW145960  12.602   7.531   5.861 -3.1670 -0.3592 -2.2100
12970SOL    HW245961  12.491   7.631   5.890 -0.4259  2.0336  0.8439
12971SOL     OW45962   9.238   1.991   8.568 -0.1156  0.3074  0.1374
12971SOL    HW145963   9.240   1.955   8.656  0.3377  0.6668  0.2756
12971SOL    HW245964   9.245   1.915   8.510 -1.3510 -0.0215  0.3871
12972SOL     OW45965   8.290   7.205   9.208  0.1553 -0.3024  0.1977
12972SOL    HW145966   8.216   7.244   9.161  2.1559  1.0754 -2.0010
12972SOL    HW245967   8.302   7.120   9.166 -2.5784 -2.4964  3.2928
12973SOL     OW45968   2.518   0.572   5.513 -0.0610 -0.4743  0.2378
12973SOL    HW145969   2.513   0.667   5.515 -0.5756 -0.4759 -0.4465
12973SOL    HW245970   2.612   0.553   5.512  0.0489  0.0694 -0.6515
12974SOL     OW45971   1.746   1.885   1.213  0.1420 -0.1113 -0.2392
12974SOL    HW145972   1.839   1.868   1.226 -0.2117 -0.5339  2.2283
12974SOL    HW245973   1.703   1.844   1.289 -1.9597  0.8349 -0.8427
12975SOL     OW45974   4.025  10.958   7.493 -0.0401  0.5931 -0.0162
12975SOL    HW145975   4.001  10.925   7.580  1.7263 -0.5771  0.0721
12975SOL    HW245976   4.049  11.050   7.509 -0.7609  0.7007  0.5240
12976SOL     OW45977   0.395  11.902   3.435 -0.1716 -0.1047  0.2312
12976SOL    HW145978   0.483  11.896   3.397 -0.6237  0.2152 -0.9204
12976SOL    HW245979   0.389  11.992   3.466 -0.3595  0.1260 -0.4368
12977SOL     OW45980   6.397   6.101   7.599 -0.4042 -0.4826 -0.3371
12977SOL    HW145981   6.462   6.159   7.638 -0.1451 -0.6944 -0.4496
12977SOL    HW245982   6.315   6.121   7.645 -0.4061  0.2615 -0.6543
12978SOL     OW45983   9.097   9.352   9.463 -0.5030  0.0162 -1.0055
12978SOL    HW145984   9.058   9.369   9.377  1.2799 -2.5659 -2.4650
12978SOL    HW245985   9.171   9.413   9.468 -1.2509  0.9333 -0.7594
12979SOL     OW45986   4.482   4.488   5.590 -0.4373 -0.5660 -0.0302
12979SOL    HW145987   4.551   4.482   5.656 -0.0065  0.3725 -0.3722
12979SOL    HW245988   4.493   4.410   5.536 -0.1159 -0.7985  0.3641
12980SOL     OW45989   5.672   6.268   5.311  0.7265  0.3475 -0.3869
12980SOL    HW145990   5.597   6.211   5.298  1.1246 -0.0707 -0.8833
12980SOL    HW245991   5.724   6.260   5.231  1.8154 -0.1575  0.3330
12981SOL     OW45992  11.944   5.943   8.712 -0.5634 -0.4046 -0.7338
12981SOL    HW145993  11.850   5.926   8.703 -0.1197 -2.9584 -1.4542
12981SOL    HW245994  11.974   5.881   8.778  0.4609  1.2089  0.3913
12982SOL     OW45995   6.110  11.838  10.758 -0.2075  0.5166  0.3053
12982SOL    HW145996   6.074  11.891  10.829 -3.1087 -0.8433 -0.0203
12982SOL    HW245997   6.205  11.852  10.764 -0.5504  2.6219  2.6417
12983SOL     OW45998   1.555  11.627   9.511  0.0369 -0.0185 -0.3578
12983SOL    HW145999   1.524  11.639   9.421  0.6305  0.6001 -0.4881
12983SOL    HW246000   1.501  11.687   9.563 -0.6117 -0.7040 -0.2292
12984SOL     OW46001   3.887   0.045   9.404 -0.5427  0.2168 -0.1693
12984SOL    HW146002   3.864  -0.046   9.424 -1.0480  0.4788  0.4904
12984SOL    HW246003   3.960   0.038   9.343 -0.2471 -0.6338  0.2506
12985SOL     OW46004   2.650   7.441   3.978  0.6439 -0.1490 -0.3783
12985SOL    HW146005   2.678   7.492   3.901  0.8819  1.6747  0.8388
12985SOL    HW246006   2.731   7.424   4.025  0.2672  1.1024  0.7984
12986SOL     OW46007   5.916   9.558   4.843 -0.1137 -0.0165 -0.0467
12986SOL    HW146008   5.926   9.488   4.779  0.7092  2.2318 -2.5620
12986SOL    HW246009   5.825   9.586   4.835  0.1876  0.7628 -0.8071
12987SOL     OW46010   8.337   5.997   0.111  0.0136 -0.1108 -0.3780
12987SOL    HW146011   8.292   5.952   0.039  1.4846 -2.5501  0.0961
12987SOL    HW246012   8.267   6.028   0.168 -1.1185 -0.5701 -1.4813
12988SOL     OW46013  11.177   2.663   4.878  0.5151  0.0327 -0.1080
12988SOL    HW146014  11.250   2.724   4.888  1.3600 -1.1372  1.1139
12988SOL    HW246015  11.107   2.701   4.931 -0.0523  1.5105 -1.8189
12989SOL     OW46016   8.886   0.215   6.619  0.4618  0.1694  0.4092
12989SOL    HW146017   8.959   0.259   6.661  0.6872 -0.7464  0.9964
12989SOL    HW246018   8.871   0.137   6.672  0.3089 -0.6557 -0.8125
12990SOL     OW46019   2.673   0.920   0.908  0.0076  0.5349  0.2357
12990SOL    HW146020   2.677   0.918   0.812 -0.3135  2.2354  0.1650
12990SOL    HW246021   2.581   0.906   0.929  0.3095 -1.5759  0.4105
12991SOL     OW46022   9.967   1.876   5.274  0.3329 -0.1383  0.4544
12991SOL    HW146023   9.973   1.807   5.341  0.8302 -0.3592  0.1885
12991SOL    HW246024   9.978   1.958   5.323 -2.1864 -0.0744  1.0757
12992SOL     OW46025   9.607   4.990   2.717  0.4607 -0.6185 -0.2010
12992SOL    HW146026   9.618   4.919   2.654  0.9872 -0.1149 -0.6882
12992SOL    HW246027   9.675   5.053   2.695 -0.8131  0.6656 -0.6342
12993SOL     OW46028  12.307   2.541   7.257  0.1775 -0.8321  0.2054
12993SOL    HW146029  12.323   2.572   7.346 -1.5682 -0.4067  0.3937
12993SOL    HW246030  12.318   2.447   7.262  1.8814 -0.6544  0.4443
12994SOL     OW46031   5.200  11.498  11.397 -0.0147 -0.4307  0.2670
12994SOL    HW146032   5.225  11.570  11.455 -0.2875  0.4645 -0.6881
12994SOL    HW246033   5.280  11.477  11.349  0.1400 -0.9777  0.7554
12995SOL     OW46034   1.503   1.096   2.053 -0.2267 -0.5946 -0.2159
12995SOL    HW146035   1.528   1.163   1.990 -0.4130  0.3697  0.7073
12995SOL    HW246036   1.443   1.039   2.006 -2.9489  1.9362 -0.0629
12996SOL     OW46037   0.521   7.235  11.817 -0.6525 -0.0363 -0.3338
12996SOL    HW146038   0.473   7.159  11.851 -0.4449  0.2530  0.6457
12996SOL    HW246039   0.476   7.258  11.736 -0.9139 -1.0068 -0.4737
12997SOL     OW46040   4.466   7.364  11.930 -0.2091  0.8205  0.8156
12997SOL    HW146041   4.397   7.309  11.891  0.5423  0.6410 -0.3018
12997SOL    HW246042   4.473   7.439  11.872  1.2187  0.3549  0.3441
12998SOL     OW46043   0.520   1.928   0.126 -0.7438 -0.2067 -0.6599
12998SOL    HW146044   0.529   1.844   0.080 -0.0728 -1.2808  1.3437
12998SOL    HW246045   0.456   1.911   0.194 -1.3656  1.2295 -0.8567
12999SOL     OW46046   0.139  11.959   5.647  0.3477 -0.7222  0.2130
12999SOL    HW146047   0.189  11.918   5.717  0.5625 -0.2052  0.3719
12999SOL    HW246048   0.106  11.887   5.595 -1.2655 -1.2262  1.8232
13000SOL     OW46049   1.774   8.905   8.597  0.2171  0.1721  0.3489
13000SOL    HW146050   1.860   8.872   8.624  1.0751  2.8154  1.1946
13000SOL    HW246051   1.777   8.999   8.618 -2.4006  0.6106 -0.8568
13001SOL     OW46052   0.197   5.773   4.550  0.3426  0.2134  0.6056
13001SOL    HW146053   0.161   5.795   4.465  1.9492  0.1930 -0.1128
13001SOL    HW246054   0.123   5.739   4.600 -1.4418  3.4699  0.4481
13002SOL     OW46055   1.011   2.567   4.362  0.8647  0.0161 -0.6426
13002SOL    HW146056   1.004   2.471   4.366  2.0218 -0.0641  2.2011
13002SOL    HW246057   1.081   2.583   4.299  1.4099 -1.0934 -0.3443
13003SOL     OW46058   1.531   4.037  12.350 -0.2106  0.2582  0.3055
13003SOL    HW146059   1.438   4.017  12.347 -0.6453  2.1341 -1.2889
13003SOL    HW246060   1.570   3.983  12.281 -0.4677  0.8258 -0.3003
13004SOL     OW46061   6.354   8.271   4.175  0.2720 -0.1952  0.0742
13004SOL    HW146062   6.260   8.278   4.191  0.3592  0.0137  0.5067
13004SOL    HW246063   6.389   8.359   4.191  0.1993  0.3817 -2.5178
13005SOL     OW46064   5.468  10.525   5.684  0.1476  0.1025  0.6170
13005SOL    HW146065   5.537  10.576   5.642  0.2033  0.1864  0.8066
13005SOL    HW246066   5.394  10.585   5.690 -0.5622 -0.5263 -1.2153
13006SOL     OW46067   5.942   9.943   3.917  0.0918  0.3007  0.2199
13006SOL    HW146068   5.860   9.897   3.902 -0.2728  0.5970  1.2411
13006SOL    HW246069   5.985   9.944   3.831  0.5490 -2.6878  0.3034
13007SOL     OW46070   5.846   7.172  12.558  0.6440 -0.6810  0.3982
13007SOL    HW146071   5.875   7.082  12.576  1.2423 -0.4465  0.6308
13007SOL    HW246072   5.920   7.212  12.512 -0.2675 -0.8153 -1.2636
13008SOL     OW46073   4.570   3.080   1.909  0.0412  0.1007 -0.0569
13008SOL    HW146074   4.477   3.058   1.914  0.0580 -0.1550 -0.7293
13008SOL    HW246075   4.606   3.018   1.845  0.4037  1.0770 -0.8215
13009SOL     OW46076   5.832   5.320   0.429 -0.2519 -0.0010 -0.4171
13009SOL    HW146077   5.900   5.388   0.432  0.1623 -0.4313  1.1735
13009SOL    HW246078   5.779   5.335   0.507 -1.4882 -0.2035 -1.1877
13010SOL     OW46079   5.082   8.652  12.131 -0.1007  0.5543  0.2871
13010SOL    HW146080   5.013   8.703  12.173  0.5257  1.0490  0.7507
13010SOL    HW246081   5.162   8.679  12.176  0.7391  1.7627 -1.7574
13011SOL     OW46082   8.886   2.050   8.293 -0.3283  0.0684 -0.4819
13011SOL    HW146083   8.875   2.138   8.258 -1.0906  0.8540  1.5688
13011SOL    HW246084   8.954   2.059   8.361  1.0115 -1.3574 -1.5534
13012SOL     OW46085   1.003   3.679   0.121  0.4823 -0.3439  0.0913
13012SOL    HW146086   0.921   3.706   0.079 -0.6881 -2.0985  1.1437
13012SOL    HW246087   1.007   3.732   0.201  0.2337 -0.4783  0.1908
13013SOL     OW46088   1.774   1.831   7.237  0.5152 -0.0206 -0.0408
13013SOL    HW146089   1.768   1.736   7.245 -0.7919 -0.0615 -1.0356
13013SOL    HW246090   1.708   1.864   7.298 -0.6732  0.1197 -1.3374
13014SOL     OW46091  10.660   6.224   8.240  0.2127 -0.2402 -0.7084
13014SOL    HW146092  10.743   6.190   8.273  0.5794 -0.1386 -1.4847
13014SOL    HW246093  10.609   6.146   8.218 -0.8262 -0.3656  1.8757
13015SOL     OW46094   6.090   2.446   5.679  0.2141 -0.5025 -0.1815
13015SOL    HW146095   6.068   2.497   5.757  1.9759 -0.2729  0.2218
13015SOL    HW246096   6.024   2.470   5.615  0.7216  1.9942  0.1275
13016SOL     OW46097   8.759  11.042   7.304 -0.3312 -0.3270 -0.2167
13016SOL    HW146098   8.812  11.120   7.319  0.5558 -0.8972 -0.3099
13016SOL    HW246099   8.717  11.026   7.388 -0.6825  0.3613 -0.2519
13017SOL     OW46100   8.378   6.881   6.709  0.3730  0.6065 -0.2814
13017SOL    HW146101   8.453   6.928   6.747  1.1885  0.5083 -1.6781
13017SOL    HW246102   8.329   6.948   6.661  0.2069  0.4600 -0.3165
13018SOL     OW46103  11.994   2.671   2.991  0.1583 -0.2165  0.3952
13018SOL    HW146104  12.085   2.644   3.004  0.4136 -0.0183 -0.8251
13018SOL    HW246105  11.946   2.589   2.979  0.1057 -0.3389  1.4354
13019SOL     OW46106  12.421   7.835   9.054  0.8114 -0.1317 -0.1059
13019SOL    HW146107  12.334   7.823   9.016  0.6972  1.0052 -0.2353
13019SOL    HW246108  12.412   7.912   9.111  1.9773  0.6864 -0.9815
13020SOL     OW46109  11.700  11.644  12.087 -0.1499 -0.1126  0.2444
13020SOL    HW146110  11.608  11.623  12.104 -0.1027  0.4320  1.2330
13020SOL    HW246111  11.701  11.739  12.076  0.7550  0.4299  3.7743
13021SOL     OW46112   3.188   0.292   4.588 -0.1577 -0.0654  0.1034
13021SOL    HW146113   3.155   0.291   4.498  0.4732  2.9023 -0.2570
13021SOL    HW246114   3.257   0.224   4.589 -2.4076 -2.5295 -0.5986
13022SOL     OW46115  10.461  10.672   0.927 -0.1231  0.5723 -0.2474
13022SOL    HW146116  10.371  10.673   0.959 -0.2424  1.3962 -0.5967
13022SOL    HW246117  10.480  10.579   0.911 -0.0742  0.1116  2.1154
13023SOL     OW46118   1.824   2.263  12.111 -0.2030 -0.0755 -0.0905
13023SOL    HW146119   1.764   2.314  12.165 -0.9720 -1.2568  0.1968
13023SOL    HW246120   1.912   2.290  12.139 -0.5382  2.1570 -0.9701
13024SOL     OW46121   9.244  11.513   4.452 -0.5124 -0.0449  0.0748
13024SOL    HW146122   9.297  11.566   4.511 -1.5771  0.2219  0.8285
13024SOL    HW246123   9.221  11.436   4.504 -3.8958  1.5125  1.1549
13025SOL     OW46124   7.772   0.211  12.565  0.0832 -0.3361 -0.2875
13025SOL    HW146125   7.760   0.304  12.584  0.8263 -0.2116 -0.3919
13025SOL    HW246126   7.864   0.194  12.586 -0.2297 -1.2219  0.4363
13026SOL     OW46127   7.571   3.639   5.842 -0.2657 -0.4683  0.7966
13026SOL    HW146128   7.610   3.661   5.927  0.2533  0.3789  0.3422
13026SOL    HW246129   7.477   3.650   5.856 -0.2014 -0.5162  1.3116
13027SOL     OW46130   0.375   8.520   0.588 -0.5135 -0.5806  0.1735
13027SOL    HW146131   0.313   8.482   0.527  0.5829 -1.1110 -0.6258
13027SOL    HW246132   0.398   8.449   0.647  0.2716 -0.7216 -0.2959
13028SOL     OW46133  12.131   0.868   8.062 -0.0743 -0.4764 -0.3232
13028SOL    HW146134  12.115   0.860   7.968 -0.5819 -0.0055 -0.2818
13028SOL    HW246135  12.044   0.864   8.102  0.2113 -1.6522  0.2102
13029SOL     OW46136   0.861   9.792   7.063 -0.0353 -0.9432  0.1790
13029SOL    HW146137   0.885   9.882   7.039 -2.3120 -0.2225  0.3367
13029SOL    HW246138   0.931   9.762   7.120  1.3001  0.3444 -0.7208
13030SOL     OW46139   0.301   1.344  10.493 -0.7645 -0.9159 -0.0994
13030SOL    HW146140   0.316   1.423  10.545  1.0767 -1.6380  0.5528
13030SOL    HW246141   0.248   1.287  10.548 -0.5472 -0.8583  0.1697
13031SOL     OW46142   2.119   3.248   1.579  0.1426  0.2241  0.3585
13031SOL    HW146143   2.206   3.210   1.578 -0.2243 -0.7379  1.6548
13031SOL    HW246144   2.125   3.326   1.523  1.8410  0.2390  0.5290
13032SOL     OW46145   2.618   8.022  11.178  0.2223  0.3288  0.3547
13032SOL    HW146146   2.676   8.079  11.228  1.2773 -1.9205  1.8208
13032SOL    HW246147   2.588   7.956  11.240  1.6959 -2.7239 -1.8900
13033SOL     OW46148  11.300   6.673   7.677  0.0063 -0.1746 -0.8877
13033SOL    HW146149  11.300   6.767   7.657  0.7194 -0.3619 -1.7988
13033SOL    HW246150  11.258   6.632   7.602 -1.9460 -0.4560  0.2973
13034SOL     OW46151   5.475   6.238   3.094 -0.8250  0.1003 -0.6996
13034SOL    HW146152   5.478   6.321   3.142 -0.1209  0.7099 -1.7638
13034SOL    HW246153   5.408   6.252   3.028 -1.3746 -0.5321 -0.2905
13035SOL     OW46154  11.671  12.511   1.576  0.4420 -0.0904  0.0108
13035SOL    HW146155  11.622  12.549   1.649 -0.0971  0.3888 -0.5896
13035SOL    HW246156  11.623  12.432   1.553  1.4092 -1.0267  1.0793
13036SOL     OW46157   7.811   1.528   0.390  0.4347  0.5365  0.3028
13036SOL    HW146158   7.793   1.578   0.310 -0.6704  1.3628  1.0356
13036SOL    HW246159   7.785   1.438   0.368  0.7715  0.6205 -0.4683
13037SOL     OW46160   3.632   6.696   3.919 -0.0749 -0.1850 -0.0300
13037SOL    HW146161   3.566   6.757   3.951 -0.8991 -0.9383 -0.2608
13037SOL    HW246162   3.606   6.676   3.829 -0.5993 -1.8829  0.4485
13038SOL     OW46163   6.404  11.130   8.880  0.2752  0.1557 -0.0635
13038SOL    HW146164   6.441  11.060   8.934 -1.8008  0.0692  1.3361
13038SOL    HW246165   6.398  11.092   8.792  0.7127 -0.8353  0.3256
13039SOL     OW46166   0.325   1.402   5.339 -0.2278  0.0259  0.2684
13039SOL    HW146167   0.264   1.346   5.387  0.8691 -1.2729  0.2101
13039SOL    HW246168   0.366   1.456   5.406  0.4240 -0.9339  0.6651
13040SOL     OW46169   7.734   5.209   5.034 -0.4319  0.6260  0.4749
13040SOL    HW146170   7.674   5.277   5.066  0.0702  0.6819  1.3242
13040SOL    HW246171   7.813   5.220   5.087  0.6079  0.9765 -1.0662
13041SOL     OW46172   6.612   0.246   5.335 -0.0537 -0.2886 -0.1739
13041SOL    HW146173   6.521   0.272   5.321  0.0187  0.1626  0.1451
13041SOL    HW246174   6.615   0.154   5.311 -0.2928  0.0307 -1.4895
13042SOL     OW46175   2.605   4.144   2.588 -0.0752 -1.1253  0.6130
13042SOL    HW146176   2.541   4.150   2.517  1.0969 -0.1721 -0.4140
13042SOL    HW246177   2.586   4.219   2.644 -0.3001 -1.2478  0.7020
13043SOL     OW46178   2.050   4.362   0.496  0.6506  0.0295  0.4392
13043SOL    HW146179   2.037   4.271   0.523 -0.1879  0.3325  1.1172
13043SOL    HW246180   2.033   4.413   0.575 -1.6617  0.9320 -0.5568
13044SOL     OW46181   4.195   1.551   6.959  0.6941 -0.2677 -0.2385
13044SOL    HW146182   4.233   1.526   7.044  0.0872  1.5835  0.6187
13044SOL    HW246183   4.163   1.640   6.972  2.3769  0.8937 -3.0004
13045SOL     OW46184   9.060  12.343   4.339 -0.8284 -0.2462 -0.1624
13045SOL    HW146185   9.142  12.351   4.291 -1.1758 -0.3954 -0.7996
13045SOL    HW246186   9.063  12.413   4.405 -1.3012  1.4790 -1.8556
13046SOL     OW46187   1.468   1.536   0.197 -0.3653 -0.0615 -0.2648
13046SOL    HW146188   1.481   1.468   0.131  2.1148 -0.3984  0.4582
13046SOL    HW246189   1.489   1.494   0.280 -2.6810  0.5618  0.6980
13047SOL     OW46190  10.704   2.811   8.055 -0.1248 -0.3811 -0.4360
13047SOL    HW146191  10.642   2.738   8.055 -1.0338  0.2396  2.7695
13047SOL    HW246192  10.672   2.870   7.987 -0.7396 -1.8718 -1.4860
13048SOL     OW46193   5.292   1.132   4.102  0.7042 -0.1328  0.4499
13048SOL    HW146194   5.262   1.184   4.028  0.7803  0.2798  0.7054
13048SOL    HW246195   5.383   1.157   4.114  0.7150 -0.2581  0.6309
13049SOL     OW46196   3.689   7.529  11.982  0.1137  0.2970  0.2894
13049SOL    HW146197   3.599   7.538  11.951 -1.0421 -0.6214  3.0569
13049SOL    HW246198   3.727   7.460  11.927 -0.2716  1.7682 -1.9531
13050SOL     OW46199   8.936  11.044   9.686  0.8815  0.6804 -0.0263
13050SOL    HW146200   9.006  10.980   9.702  0.0218  0.1494  1.7341
13050SOL    HW246201   8.912  11.076   9.772 -0.9016  1.0480 -0.6299
13051SOL     OW46202   1.862  11.772   8.286 -0.2813  0.2496 -0.1358
13051SOL    HW146203   1.850  11.788   8.192 -0.2853 -0.4065 -0.2523
13051SOL    HW246204   1.783  11.727   8.313  0.4759 -1.1762 -0.2083
13052SOL     OW46205   6.518   1.719   4.997  0.1187 -0.0906  0.0071
13052SOL    HW146206   6.540   1.711   5.090  0.4565  2.4528  0.2221
13052SOL    HW246207   6.601   1.741   4.955 -0.2948  0.2067 -0.6625
13053SOL     OW46208  12.360  11.295   6.539  0.0597  0.3981  0.1094
13053SOL    HW146209  12.339  11.267   6.629 -0.9605  0.8790  0.0425
13053SOL    HW246210  12.349  11.390   6.541  0.6920  0.4819 -0.3614
13054SOL     OW46211   8.450  12.513   4.687 -0.3999 -1.1768  0.5315
13054SOL    HW146212   8.451  12.483   4.596 -0.2146 -0.2047  0.2040
13054SOL    HW246213   8.357  12.521   4.708 -0.5961  2.5732 -0.9728
13055SOL     OW46214  10.038   2.253  10.296 -0.7298 -0.1210  0.6613
13055SOL    HW146215  10.104   2.313  10.263 -2.0762  0.1037 -1.8561
13055SOL    HW246216  10.071   2.166  10.273 -1.3621  0.0029 -0.8195
13056SOL     OW46217   8.663   4.931  11.603  0.3400 -0.2599  0.1288
13056SOL    HW146218   8.640   4.866  11.670  0.7414 -0.9011 -0.3361
13056SOL    HW246219   8.579   4.959  11.567  0.0244  1.1357  1.8317
13057SOL     OW46220  11.899   8.523   6.605  0.1923 -0.3839 -0.1693
13057SOL    HW146221  11.983   8.560   6.576  0.0340 -0.7665 -1.1432
13057SOL    HW246222  11.881   8.567   6.688  0.7220  0.6519 -0.5883
13058SOL     OW46223   9.081   8.012   0.574  0.3243  0.1598  0.2182
13058SOL    HW146224   9.025   8.082   0.544 -0.3106 -0.2674  0.3822
13058SOL    HW246225   9.166   8.053   0.588  0.4845  0.5004 -1.5263
13059SOL     OW46226  11.593   8.926  10.253 -0.1864 -0.4101  0.0138
13059SOL    HW146227  11.674   8.875  10.256  0.6542  0.8572 -0.3451
13059SOL    HW246228  11.570   8.940  10.345  1.2479  1.0806  0.1943
13060SOL     OW46229   6.600   0.480   5.887  0.3322  0.2003 -0.5995
13060SOL    HW146230   6.689   0.483   5.924 -0.2044 -2.8635  1.2441
13060SOL    HW246231   6.543   0.490   5.963 -0.8863 -0.3103 -1.4268
13061SOL     OW46232   7.499   4.348   9.599 -0.3810 -0.1053  0.0511
13061SOL    HW146233   7.552   4.325   9.523 -0.4086  2.4603 -0.8072
13061SOL    HW246234   7.561   4.352   9.671 -0.1060 -1.0751 -0.1178
13062SOL     OW46235   0.255   4.902   7.283  0.2181 -0.0115  0.0666
13062SOL    HW146236   0.179   4.844   7.276  1.3514 -1.5168 -0.1658
13062SOL    HW246237   0.328   4.849   7.252  0.9281  2.4196 -2.9243
13063SOL     OW46238   5.749   3.957   0.642 -0.1343 -0.0102 -0.7501
13063SOL    HW146239   5.735   4.034   0.587 -2.2513 -0.3230 -0.7660
13063SOL    HW246240   5.682   3.964   0.710  0.5214 -1.1431  0.0545
13064SOL     OW46241   4.224   1.781   6.533  0.5615 -0.5089 -0.1457
13064SOL    HW146242   4.147   1.735   6.500  0.4217  0.1489 -0.7653
13064SOL    HW246243   4.295   1.754   6.474  0.4810  0.0516 -0.5053
13065SOL     OW46244   9.815   2.854   0.284 -0.2088  0.1067 -0.1538
13065SOL    HW146245   9.840   2.944   0.264  1.8955 -0.1721  0.9760
13065SOL    HW246246   9.884   2.822   0.342 -1.5299 -1.8673  0.4287
13066SOL     OW46247   8.768  11.267   5.765 -0.7163 -0.1918  0.6362
13066SOL    HW146248   8.798  11.331   5.829  1.7136 -0.2160 -0.3616
13066SOL    HW246249   8.796  11.182   5.801  0.9737 -0.1791 -0.5281
13067SOL     OW46250   6.427  12.032   9.272 -0.0535  0.4509 -0.6594
13067SOL    HW146251   6.504  12.050   9.326 -0.9941 -0.2041  0.9621
13067SOL    HW246252   6.366  11.987   9.330 -2.3967  2.4575 -1.3747
13068SOL     OW46253  12.411  11.984   5.796  0.7346  0.6255 -0.0267
13068SOL    HW146254  12.459  12.060   5.763  0.4624  1.1331  0.7338
13068SOL    HW246255  12.480  11.921   5.820  0.9664  0.7149 -0.4520
13069SOL     OW46256   6.410   3.720   8.289 -0.4361  0.0211 -0.4962
13069SOL    HW146257   6.505   3.723   8.275 -0.6998  0.8379 -2.3416
13069SOL    HW246258   6.399   3.747   8.380  1.1415 -1.0041  0.0470
13070SOL     OW46259  10.935   5.112  10.918 -0.1240  0.4218  0.1210
13070SOL    HW146260  10.985   5.191  10.940  0.1049  0.1281  0.6501
13070SOL    HW246261  10.986   5.040  10.954  0.8318 -0.1939 -2.2576
13071SOL     OW46262   7.524   1.686   2.856  0.9374 -0.4066  0.1940
13071SOL    HW146263   7.444   1.738   2.862 -0.1773 -1.8360 -1.3565
13071SOL    HW246264   7.538   1.653   2.945  0.1724  0.3628  0.6149
13072SOL     OW46265   3.537  12.074   1.445 -0.1953 -0.2542 -0.2097
13072SOL    HW146266   3.477  12.143   1.474 -0.1031  0.3683 -1.4815
13072SOL    HW246267   3.494  12.035   1.369 -0.2800 -1.6641  0.5277
13073SOL     OW46268   5.324   6.124   9.863 -0.1357  0.3599 -0.7771
13073SOL    HW146269   5.362   6.207   9.836  0.1496  0.5710  0.2356
13073SOL    HW246270   5.386   6.089   9.926 -0.5789 -0.3160 -0.7030
13074SOL     OW46271   7.549   7.658   5.939 -0.0241 -0.3577 -0.2346
13074SOL    HW146272   7.574   7.749   5.923  0.0573 -0.3823 -0.2480
13074SOL    HW246273   7.525   7.657   6.032  0.0793 -0.3461 -0.2069
13075SOL     OW46274  10.245  10.048   4.140 -0.1922  0.0929 -0.5269
13075SOL    HW146275  10.217  10.125   4.190  0.6226  1.7671 -2.4863
13075SOL    HW246276  10.168  10.023   4.089  0.5168  2.1840 -2.8600
13076SOL     OW46277   6.355   7.281   2.412  0.3975  0.1876 -0.0850
13076SOL    HW146278   6.420   7.214   2.433 -1.3028 -1.3282  0.6769
13076SOL    HW246279   6.305   7.291   2.493  0.2561  2.0150 -0.3647
13077SOL     OW46280  10.688   4.341   2.605 -0.5599  0.1707 -0.4232
13077SOL    HW146281  10.763   4.375   2.557  0.6776 -0.5468  0.9581
13077SOL    HW246282  10.619   4.407   2.591  0.3802  0.9608 -1.4909
13078SOL     OW46283   4.700   9.587   1.942 -0.0667  0.3992  0.3807
13078SOL    HW146284   4.687   9.496   1.915  2.1490  0.3825 -0.8661
13078SOL    HW246285   4.754   9.581   2.021  0.6113  0.5994 -0.0528
13079SOL     OW46286   8.982   6.849   4.698 -0.0238  0.2275  0.0101
13079SOL    HW146287   8.961   6.939   4.722 -0.5601  0.3605 -0.9026
13079SOL    HW246288   9.069   6.854   4.659  0.7577  0.0421  1.6552
13080SOL     OW46289   4.776  11.911   7.777 -0.4127 -0.4021  0.3859
13080SOL    HW146290   4.751  11.827   7.738  1.5043 -1.0213  0.4118
13080SOL    HW246291   4.787  11.970   7.702 -0.5200 -0.5096  0.2856
13081SOL     OW46292   7.594   2.456   7.694 -0.0434 -0.4831 -0.1622
13081SOL    HW146293   7.626   2.546   7.704  0.5797 -0.8347  1.3380
13081SOL    HW246294   7.500   2.463   7.709  0.1031 -0.1583  0.7111
13082SOL     OW46295  10.073   1.815   1.544 -0.4741  0.3601  0.3454
13082SOL    HW146296  10.067   1.878   1.472  0.1536  1.0688  0.9052
13082SOL    HW246297  10.037   1.734   1.507 -1.0889  0.9751 -0.4494
13083SOL     OW46298   8.163   0.720   3.897  0.0054  0.3046 -0.1052
13083SOL    HW146299   8.257   0.719   3.878  0.6623 -1.1138  2.6272
13083SOL    HW246300   8.158   0.702   3.991 -2.9577  2.2072  0.2194
13084SOL     OW46301  11.050   2.133   2.173 -0.1574 -0.3638 -0.3990
13084SOL    HW146302  11.145   2.131   2.177 -0.0729  0.7903 -1.4474
13084SOL    HW246303  11.022   2.060   2.229  1.3208 -0.5468  0.1370
13085SOL     OW46304   8.057   4.060  11.880 -0.6289 -1.0761 -0.4572
13085SOL    HW146305   8.074   4.147  11.843  0.2089 -0.9917  0.0968
13085SOL    HW246306   7.966   4.063  11.907 -0.4746 -0.1878  0.0161
13086SOL     OW46307   2.233  11.410   3.726  0.6773 -0.2386  0.5189
13086SOL    HW146308   2.141  11.435   3.730  1.0549  1.3562 -0.2075
13086SOL    HW246309   2.241  11.339   3.790 -1.1464 -0.7596  0.2298
13087SOL     OW46310   5.391  10.651   7.978 -0.2002 -1.0440  0.4923
13087SOL    HW146311   5.373  10.728   7.925 -1.1623 -0.5975  1.4195
13087SOL    HW246312   5.461  10.677   8.037 -0.8411 -0.6983  1.1227
13088SOL     OW46313   2.162   9.099   4.630 -0.2585  0.2711 -0.4166
13088SOL    HW146314   2.144   9.027   4.569  0.5595 -0.2305 -0.0895
13088SOL    HW246315   2.076   9.127   4.660 -0.5728 -1.0482 -0.0188
13089SOL     OW46316   5.112   3.558   9.231  0.1222  0.3832  0.5024
13089SOL    HW146317   5.177   3.625   9.256  0.0299  0.3401  0.8539
13089SOL    HW246318   5.028   3.601   9.244 -0.0026  1.8448 -3.5303
13090SOL     OW46319   7.760  10.892   3.879  0.2519 -0.6264  0.1806
13090SOL    HW146320   7.711  10.813   3.856 -0.5738  0.2970 -1.4410
13090SOL    HW246321   7.798  10.921   3.797  1.6370 -0.0396  1.0003
13091SOL     OW46322   3.140   1.812   7.421 -0.3171  0.0741 -0.2730
13091SOL    HW146323   3.179   1.725   7.417  0.9686  0.6119  0.0336
13091SOL    HW246324   3.113   1.822   7.512 -1.9464 -0.6087 -0.6628
13092SOL     OW46325  10.414   4.735   8.522  0.7385  0.1857  0.4366
13092SOL    HW146326  10.442   4.709   8.610 -2.1347 -0.2015  1.3305
13092SOL    HW246327  10.405   4.653   8.474 -2.6864 -0.1799  1.4698
13093SOL     OW46328   0.445   6.494   0.770 -0.5458  0.3399  0.2974
13093SOL    HW146329   0.435   6.405   0.804  1.7160 -0.6942 -1.4644
13093SOL    HW246330   0.454   6.482   0.676  0.1785  2.4167  0.0687
13094SOL     OW46331   6.063   6.165  11.568  0.0264  0.2379 -0.9314
13094SOL    HW146332   6.071   6.226  11.641 -2.0300  0.2875 -0.6803
13094SOL    HW246333   6.084   6.079  11.606  2.3093  0.6627 -1.1368
13095SOL     OW46334   3.476   0.672   6.676 -0.0421 -0.1170 -0.0949
13095SOL    HW146335   3.538   0.600   6.691  1.8507  1.4021 -0.1693
13095SOL    HW246336   3.530   0.751   6.684 -2.1690  1.3349  0.6757
13096SOL     OW46337   8.841  11.355   4.506 -0.3638  0.2836  0.0996
13096SOL    HW146338   8.936  11.349   4.519 -0.3547  1.2254  0.5635
13096SOL    HW246339   8.804  11.288   4.563  0.0835 -1.2546 -1.3344
13097SOL     OW46340  10.445   1.333   9.238  0.2176 -0.1905 -0.8641
13097SOL    HW146341  10.536   1.305   9.250 -0.2853 -1.6456 -0.2493
13097SOL    HW246342  10.394   1.253   9.248 -1.1262  0.5671 -1.4399
13098SOL     OW46343   3.316  11.947   3.334  0.2820  0.4836  0.3518
13098SOL    HW146344   3.377  11.923   3.265 -1.0054  0.1023 -0.7060
13098SOL    HW246345   3.250  12.000   3.290 -1.5777 -1.2742  0.8361
13099SOL     OW46346   0.326   3.364   0.602  0.0831  0.0381 -0.9952
13099SOL    HW146347   0.315   3.272   0.576  1.7857 -0.3112 -0.6208
13099SOL    HW246348   0.419   3.383   0.585  0.2239  1.1113  0.6637
13100SOL     OW46349   7.891   5.232  10.648 -0.1989 -0.2350 -0.1982
13100SOL    HW146350   7.898   5.167  10.718  0.0166  0.3136  0.2935
13100SOL    HW246351   7.964   5.292  10.663  1.3531 -1.4506 -2.3232
13101SOL     OW46352   1.407  10.661  12.503  0.1187 -0.2849 -1.1800
13101SOL    HW146353   1.483  10.712  12.475  0.9537 -1.9022 -1.9556
13101SOL    HW246354   1.418  10.651  12.598  1.1467 -0.9028 -1.3503
13102SOL     OW46355   9.451   0.051   0.126  0.5996 -0.2308 -0.2624
13102SOL    HW146356   9.359   0.065   0.148  1.0751  0.0029  1.8085
13102SOL    HW246357   9.452   0.036   0.032 -1.8891 -2.9576  0.0056
13103SOL     OW46358   4.909  11.564  10.938 -0.5048  0.2847 -0.2115
13103SOL    HW146359   4.978  11.521  10.988 -0.7361 -0.1395 -0.2552
13103SOL    HW246360   4.944  11.572  10.850 -0.3760  0.3917 -0.1520
13104SOL     OW46361  12.183   6.738   3.433  0.1506 -0.2126 -0.0386
13104SOL    HW146362  12.265   6.689   3.441  0.3500 -0.2155 -1.7360
13104SOL    HW246363  12.208   6.829   3.451  0.4394 -0.2708 -0.1330
13105SOL     OW46364   4.988  11.489   0.042 -0.8438 -0.2072 -0.4014
13105SOL    HW146365   5.025  11.402   0.060  0.4366  0.9135  3.4207
13105SOL    HW246366   5.047  11.527  -0.023  0.0233 -1.3628 -0.3287
13106SOL     OW46367   4.408  11.253  10.506 -0.1109  0.0432  0.0225
13106SOL    HW146368   4.366  11.339  10.511 -0.6558 -0.1489 -1.0483
13106SOL    HW246369   4.338  11.191  10.527  0.4077 -0.1363  1.3369
13107SOL     OW46370  11.063   4.823   9.560  0.0566 -0.4506  0.3983
13107SOL    HW146371  11.052   4.896   9.500 -0.3368 -1.3636 -0.6922
13107SOL    HW246372  11.156   4.801   9.556 -0.2692 -1.6911 -1.3748
13108SOL     OW46373   1.718   1.758   5.855 -0.2470  0.0213  0.0183
13108SOL    HW146374   1.675   1.677   5.829 -0.6307 -0.1585  1.1649
13108SOL    HW246375   1.748   1.742   5.944 -1.4346  1.5293  0.7532
13109SOL     OW46376   1.534  11.066   9.868  0.3309  0.2019 -0.1047
13109SOL    HW146377   1.461  11.040   9.811  1.7667 -3.0940 -0.6454
13109SOL    HW246378   1.491  11.107   9.943 -2.0591 -0.9181 -0.7495
13110SOL     OW46379   0.325  12.163   8.456 -0.0131  0.0355  0.3343
13110SOL    HW146380   0.237  12.185   8.488  0.5262 -0.4985  2.3283
13110SOL    HW246381   0.350  12.237   8.401 -1.3957  0.5634  0.3695
13111SOL     OW46382   8.996   4.886   5.359  0.2195 -0.0042  0.4910
13111SOL    HW146383   8.971   4.967   5.315 -0.0758 -0.5453 -0.3636
13111SOL    HW246384   9.087   4.901   5.386  0.4107  0.3453 -0.3170
13112SOL     OW46385   5.698   2.863   1.441 -0.0715 -0.1080  0.3245
13112SOL    HW146386   5.610   2.834   1.416 -0.3049 -0.1384  1.1263
13112SOL    HW246387   5.718   2.809   1.518 -0.3121  1.5142  1.5657
13113SOL     OW46388   9.302  12.456  12.214 -0.3988  0.1338  0.3482
13113SOL    HW146389   9.289  12.513  12.138 -1.0812 -1.2857 -0.6378
13113SOL    HW246390   9.397  12.448  12.222 -0.2885  1.3408  0.4791
13114SOL     OW46391   9.755   7.646   2.209 -0.1458  0.3922 -0.0041
13114SOL    HW146392   9.771   7.604   2.124 -0.2857  2.3728 -1.0776
13114SOL    HW246393   9.789   7.585   2.273  1.6454 -0.3655 -1.5917
13115SOL     OW46394  11.220  10.164  11.910  0.3035  0.0397  0.1332
13115SOL    HW146395  11.204  10.250  11.873  1.5225 -0.2553 -1.1537
13115SOL    HW246396  11.294  10.129  11.860  0.0198 -1.6413  0.8094
13116SOL     OW46397   6.113   7.465   7.992 -0.2191 -0.4066 -0.6591
13116SOL    HW146398   6.124   7.447   8.086 -1.9152  0.1788 -0.2997
13116SOL    HW246399   6.094   7.380   7.954 -0.0951 -0.5670 -0.3667
13117SOL     OW46400   1.501  10.001   6.848 -0.1638 -0.2360 -0.2708
13117SOL    HW146401   1.422  10.054   6.861  0.6087  0.9063 -0.0974
13117SOL    HW246402   1.474   9.912   6.872 -1.6802 -0.0771 -1.1986
13118SOL     OW46403   4.242   0.428   3.255  0.0985  0.3947  0.1628
13118SOL    HW146404   4.251   0.352   3.197  0.5404 -1.2588  2.2600
13118SOL    HW246405   4.271   0.502   3.202  0.0095 -0.9240 -1.8546
13119SOL     OW46406   5.618   1.695   0.030  0.2063  0.1814 -0.1114
13119SOL    HW146407   5.605   1.648  -0.052 -0.1159 -0.3883  0.2613
13119SOL    HW246408   5.602   1.787   0.007 -0.3209 -0.0222 -0.5946
13120SOL     OW46409   5.608   1.443   4.657  0.1634 -0.0929  0.0723
13120SOL    HW146410   5.636   1.375   4.719 -0.8361 -0.5389  0.0570
13120SOL    HW246411   5.535   1.486   4.701  2.2322  2.6148  1.1310
13121SOL     OW46412   7.448  11.388   6.558 -0.2551 -0.2545 -0.2040
13121SOL    HW146413   7.480  11.427   6.639  0.9698 -0.7724 -0.4152
13121SOL    HW246414   7.410  11.461   6.509  0.8915  0.4636 -0.0581
13122SOL     OW46415   3.526   4.811  10.191  0.6231  0.2144  0.2041
13122SOL    HW146416   3.511   4.722  10.157  0.0956 -0.2151  1.5018
13122SOL    HW246417   3.621   4.821  10.191  0.6769 -0.2294 -0.2464
13123SOL     OW46418   6.817   1.317   1.067 -0.2751  0.6304  0.4568
13123SOL    HW146419   6.791   1.279   1.151 -3.1258 -1.8033 -1.3378
13123SOL    HW246420   6.777   1.404   1.066 -1.0858  0.2750  1.2002
13124SOL     OW46421  12.021   9.851   9.843  0.4805  0.1878 -0.4524
13124SOL    HW146422  11.992   9.929   9.796 -0.6944  0.1722  0.2080
13124SOL    HW246423  12.063   9.885   9.922 -1.1593  0.1596  0.4665
13125SOL     OW46424   9.178  12.352   9.595 -0.4993 -0.4390  0.2327
13125SOL    HW146425   9.211  12.405   9.522  1.0219 -1.0227  0.4534
13125SOL    HW246426   9.171  12.414   9.668 -2.1531  0.1762 -0.4034
13126SOL     OW46427  10.060  12.117   8.278 -0.2074 -0.5597  0.1366
13126SOL    HW146428  10.065  12.201   8.325 -0.8443  0.5160 -1.6208
13126SOL    HW246429  10.144  12.111   8.232  0.0461 -1.1592  0.6686
13127SOL     OW46430  11.735  11.219   5.897 -0.3856 -0.1192  0.2894
13127SOL    HW146431  11.763  11.266   5.975  0.7266  0.8801 -0.6599
13127SOL    HW246432  11.641  11.207   5.907 -0.0079 -1.7368  2.6442
13128SOL     OW46433  10.857   2.988   8.884 -0.1625 -0.2808 -0.1399
13128SOL    HW146434  10.806   2.913   8.853  0.0176 -1.0016  1.2219
13128SOL    HW246435  10.936   2.987   8.831 -0.3777 -0.7732 -0.4600
13129SOL     OW46436   7.322   0.096   1.016  0.1082 -0.0181  0.0721
13129SOL    HW146437   7.392   0.162   1.012  0.6839 -0.6607 -2.0177
13129SOL    HW246438   7.278   0.104   0.931 -1.9192 -0.1430  1.0604
13130SOL     OW46439   9.523   5.910   7.615  0.2425 -0.1620 -0.0501
13130SOL    HW146440   9.474   5.919   7.696  0.2819 -0.2528 -0.0150
13130SOL    HW246441   9.596   5.851   7.638 -1.1301 -2.2663 -0.7547
13131SOL     OW46442   7.808   7.834  12.002 -0.9582  0.3634 -0.4831
13131SOL    HW146443   7.774   7.862  12.088  0.3959  1.4672 -0.2746
13131SOL    HW246444   7.743   7.771  11.970 -0.9214 -1.0025  1.8760
13132SOL     OW46445   5.362   4.605   8.185 -0.2587  0.1014 -0.4727
13132SOL    HW146446   5.281   4.620   8.234  0.9338  2.1919  1.0388
13132SOL    HW246447   5.424   4.574   8.251  0.3709 -0.8587 -1.4856
13133SOL     OW46448   0.917   9.853   4.569  0.4480 -0.0747 -0.2182
13133SOL    HW146449   1.008   9.860   4.539  0.8920  0.3219  1.1701
13133SOL    HW246450   0.889   9.766   4.540  1.3093 -0.2516 -0.5423
13134SOL     OW46451   3.528   2.873   0.093  0.0370  0.1869 -0.2792
13134SOL    HW146452   3.548   2.936   0.162 -0.5101  0.2976 -0.2128
13134SOL    HW246453   3.548   2.919   0.011 -1.6425  0.9604 -0.2959
13135SOL     OW46454   0.433  12.306   2.416  0.3139 -0.6485 -0.6405
13135SOL    HW146455   0.440  12.220   2.457  0.1114 -1.2067 -1.7564
13135SOL    HW246456   0.339  12.326   2.417  0.0945 -1.4615 -2.3996
13136SOL     OW46457  11.389   2.936  12.004 -0.5472  0.2234  0.1545
13136SOL    HW146458  11.401   2.863  12.065  0.1029  1.0901  1.1014
13136SOL    HW246459  11.299   2.966  12.019 -0.6741 -0.1093  0.0625
13137SOL     OW46460  10.131   2.712   4.946 -0.2414 -0.5093  0.3908
13137SOL    HW146461  10.219   2.692   4.914  0.1789  0.6098  0.8385
13137SOL    HW246462  10.082   2.736   4.867  0.2874  0.4091  0.3362
13138SOL     OW46463   2.169   9.681   5.869  0.4975  0.3068 -0.1266
13138SOL    HW146464   2.250   9.729   5.889  0.8799  0.7312 -2.4299
13138SOL    HW246465   2.113   9.746   5.827 -0.3136 -0.4551 -0.2397
13139SOL     OW46466   9.744   9.153   1.784  0.1145  0.3913  0.4620
13139SOL    HW146467   9.804   9.225   1.802 -0.3661  0.2909  2.8384
13139SOL    HW246468   9.799   9.076   1.777  0.4756  0.7075 -0.3497
13140SOL     OW46469   7.365   2.672  12.379 -0.5920  0.4295  0.3385
13140SOL    HW146470   7.415   2.662  12.298  0.0547  0.2451  0.7507
13140SOL    HW246471   7.415   2.623  12.444 -0.1427  1.9958  1.2454
13141SOL     OW46472   1.466   2.595   9.025 -0.3947 -1.0293 -0.0965
13141SOL    HW146473   1.399   2.578   8.959 -0.6827 -2.3181  0.4979
13141SOL    HW246474   1.526   2.520   9.019  0.4931 -0.3530  0.0046
13142SOL     OW46475   4.722   2.874   3.102 -0.8796  0.3154  0.6795
13142SOL    HW146476   4.638   2.920   3.110 -1.1833 -0.0208 -0.4527
13142SOL    HW246477   4.712   2.796   3.157 -1.8232 -0.4363 -0.5313
13143SOL     OW46478  12.571   1.775   6.362  0.6347  0.2757  0.2762
13143SOL    HW146479  12.611   1.690   6.377  1.1040  0.4801  0.1860
13143SOL    HW246480  12.555   1.810   6.450  1.3420  0.5154  0.3122
13144SOL     OW46481   8.095   8.109  12.052  0.0626  0.4263  0.9819
13144SOL    HW146482   8.146   8.128  11.973 -0.0483 -0.1425  0.7633
13144SOL    HW246483   8.090   8.192  12.098  1.9454  0.3225  1.4568
13145SOL     OW46484   5.521   8.053  11.364  0.3710  0.7695  0.6720
13145SOL    HW146485   5.612   8.022  11.368  0.1379 -1.2362 -3.6021
13145SOL    HW246486   5.524   8.129  11.307 -0.5902  0.7842  0.6319
13146SOL     OW46487   5.582  11.066  12.110 -0.3619  0.5734  0.0541
13146SOL    HW146488   5.511  11.129  12.099  0.0059  0.8510 -0.8248
13146SOL    HW246489   5.655  11.119  12.142 -0.1297  0.5474 -0.4284
13147SOL     OW46490   6.093   0.710   7.604  0.7496  0.3665  0.3255
13147SOL    HW146491   6.016   0.677   7.558 -0.4634  1.6472  1.3649
13147SOL    HW246492   6.150   0.743   7.534  1.1483 -2.0502 -0.5810
13148SOL     OW46493   6.810   7.226   6.565  0.3670 -0.0630 -0.0472
13148SOL    HW146494   6.874   7.213   6.635  0.3410  0.8481  0.1660
13148SOL    HW246495   6.861   7.263   6.493 -0.1854  2.6723  0.8300
13149SOL     OW46496  10.435  11.245   1.830 -0.0831  0.5654 -0.1686
13149SOL    HW146497  10.502  11.314   1.833  1.2955 -0.6757 -1.0328
13149SOL    HW246498  10.468  11.182   1.766 -0.9026 -1.2950  1.1313
13150SOL     OW46499   2.446  10.989   7.650  0.2054  0.0375 -0.1874
13150SOL    HW146500   2.378  11.057   7.648  1.1725  1.1521  1.8221
13150SOL    HW246501   2.526  11.036   7.677  2.0441 -1.0529 -3.2304
13151SOL     OW46502  11.306   1.445   6.880  0.1560 -0.5691 -0.4457
13151SOL    HW146503  11.261   1.509   6.936 -0.8492 -0.7914 -0.9655
13151SOL    HW246504  11.395   1.442   6.914 -0.2180 -0.1086  0.6335
13152SOL     OW46505   5.819   7.001   8.597 -0.5273  0.0230  0.4855
13152SOL    HW146506   5.901   7.047   8.612  0.5772 -2.0975  1.4229
13152SOL    HW246507   5.762   7.066   8.556  1.8949  1.3266 -1.0619
13153SOL     OW46508  12.499   8.934   7.147 -0.0627  0.0347  0.0880
13153SOL    HW146509  12.453   8.852   7.165 -0.4094  0.4710  1.3167
13153SOL    HW246510  12.512   8.934   7.053  0.4007 -1.6743  0.1255
13154SOL     OW46511   6.215   1.887   8.405  0.4011  0.0149 -0.0265
13154SOL    HW146512   6.236   1.975   8.373  0.4902  0.3018  0.7970
13154SOL    HW246513   6.298   1.854   8.439  0.3549 -0.3742 -0.2801
13155SOL     OW46514   0.798   7.433  11.301 -0.3797 -0.1850  0.4011
13155SOL    HW146515   0.839   7.476  11.376 -3.6725 -0.3786  2.4890
13155SOL    HW246516   0.813   7.494  11.228 -0.6586  2.1137  2.1430
13156SOL     OW46517   2.437   3.149  11.438  0.0017 -0.0231  0.2107
13156SOL    HW146518   2.408   3.235  11.408 -0.0466  0.0452  0.4505
13156SOL    HW246519   2.525   3.164  11.473 -1.2587  0.6430  3.4455
13157SOL     OW46520   6.202   9.656  10.673  0.0357  0.8731 -0.1138
13157SOL    HW146521   6.214   9.562  10.692 -0.2879  0.7046 -0.7256
13157SOL    HW246522   6.180   9.695  10.757  1.2925  0.5865  0.3655
13158SOL     OW46523  11.142   1.684   6.581  0.4959  0.3596 -0.7478
13158SOL    HW146524  11.076   1.718   6.641 -0.2243  1.4467 -2.0945
13158SOL    HW246525  11.147   1.591   6.601  0.0739  0.6418  0.7795
13159SOL     OW46526  11.731   0.565  12.396 -0.4178 -0.4448  0.0305
13159SOL    HW146527  11.651   0.519  12.420 -0.3233 -0.2127  0.8027
13159SOL    HW246528  11.770   0.591  12.479 -0.4720  1.0417 -0.3931
13160SOL     OW46529   2.847  10.728   5.580 -0.6906  0.4076 -0.0767
13160SOL    HW146530   2.876  10.681   5.659  0.4492 -0.3332 -0.9101
13160SOL    HW246531   2.801  10.805   5.614 -1.4317 -0.5949  1.3185
13161SOL     OW46532   0.352   3.250   7.901 -0.4620  0.5050  0.2034
13161SOL    HW146533   0.400   3.184   7.951 -0.0154 -1.0709 -2.1661
13161SOL    HW246534   0.381   3.238   7.811 -1.1517  3.2976 -0.4875
13162SOL     OW46535  10.442  10.857   8.753  0.0802 -0.7496 -0.4500
13162SOL    HW146536  10.490  10.888   8.829  0.0796  2.4989 -1.6511
13162SOL    HW246537  10.354  10.838   8.786  0.5623 -1.1365  0.6460
13163SOL     OW46538   7.510   5.108  12.387 -0.3428 -0.3216  0.2011
13163SOL    HW146539   7.512   5.029  12.441 -0.8329 -0.0403  0.6487
13163SOL    HW246540   7.540   5.178  12.446  1.7139 -0.4160 -0.6583
13164SOL     OW46541  11.428   6.559   2.517  0.2436 -0.5808 -0.2704
13164SOL    HW146542  11.493   6.507   2.563  0.1573 -1.8781 -1.5275
13164SOL    HW246543  11.478   6.627   2.472  0.5316 -0.5057  0.1644
13165SOL     OW46544   5.411   7.498   4.225 -0.1242 -0.1195 -0.1042
13165SOL    HW146545   5.317   7.511   4.236 -0.3224 -1.8495  0.5541
13165SOL    HW246546   5.432   7.421   4.279  1.6550  0.1700 -0.3002
13166SOL     OW46547   3.098  11.203   7.106  0.6389 -0.2614 -0.2061
13166SOL    HW146548   3.096  11.205   7.010  0.9317 -0.7511 -0.2236
13166SOL    HW246549   3.135  11.288   7.130  0.4188 -0.0735 -0.5244
13167SOL     OW46550   0.053  11.564   0.619  0.2465 -0.2052  0.3029
13167SOL    HW146551  -0.033  11.523   0.623  0.5898 -1.1110 -1.0287
13167SOL    HW246552   0.112  11.499   0.658  0.3160  0.4799  1.3610
13168SOL     OW46553   4.383   2.478  12.037 -0.5603 -0.0026 -0.3335
13168SOL    HW146554   4.445   2.412  12.067  0.1910  0.8712  0.0676
13168SOL    HW246555   4.324   2.490  12.112 -0.5914 -0.0944 -0.3430
13169SOL     OW46556   4.934   5.219   8.923 -0.3010 -0.2746 -0.6008
13169SOL    HW146557   4.862   5.246   8.981  0.2931  2.0563 -0.8681
13169SOL    HW246558   4.893   5.156   8.863 -1.5567 -0.7113  0.6442
13170SOL     OW46559   2.035  10.787   3.198 -0.2475 -0.3558  0.4175
13170SOL    HW146560   1.950  10.829   3.186  0.2056  1.3858  2.5924
13170SOL    HW246561   2.032  10.754   3.288  1.0665 -1.0936  0.2084
13171SOL     OW46562   4.527   1.572   8.916 -0.1878  0.3517  0.2355
13171SOL    HW146563   4.623   1.570   8.915 -0.1809  0.0816  0.8505
13171SOL    HW246564   4.504   1.646   8.861  0.3927  0.7742  0.5465
13172SOL     OW46565   2.922   3.237   3.850 -0.0098  0.3290 -0.5034
13172SOL    HW146566   2.982   3.184   3.903  1.9440  0.4993 -2.3807
13172SOL    HW246567   2.872   3.173   3.799 -1.1311  0.2049  0.6956
13173SOL     OW46568  11.592   6.143   8.098 -0.5937 -0.3285 -0.3462
13173SOL    HW146569  11.673   6.168   8.054 -0.1493  0.0681  0.6574
13173SOL    HW246570  11.549   6.084   8.037  0.6917 -0.9468 -0.7008
13174SOL     OW46571   3.978   0.769   7.821 -0.0219 -0.1916  0.2966
13174SOL    HW146572   3.945   0.680   7.806  0.4875 -0.4437  0.6696
13174SOL    HW246573   3.980   0.808   7.733 -0.2886 -0.5327  0.1357
13175SOL     OW46574   1.704  10.292   0.567 -0.5070  0.3209 -0.0806
13175SOL    HW146575   1.757  10.315   0.643  0.2628 -0.1549 -0.4540
13175SOL    HW246576   1.672  10.204   0.587  0.8504 -0.3916 -0.8828
13176SOL     OW46577   1.770   1.258   8.451  0.3872  0.0171 -0.2674
13176SOL    HW146578   1.831   1.316   8.405  2.2014 -0.4470  1.4189
13176SOL    HW246579   1.736   1.310   8.523  0.2694 -0.3069 -0.0852
13177SOL     OW46580   9.614   8.346   1.129  0.3714  0.3612 -0.0882
13177SOL    HW146581   9.629   8.440   1.138 -0.1095  0.4466 -0.1358
13177SOL    HW246582   9.694   8.305   1.162 -0.0054  0.7548  1.3663
13178SOL     OW46583   2.347   3.440  10.498 -0.4394  0.4690 -0.2084
13178SOL    HW146584   2.269   3.494  10.490  0.0214  0.9908 -1.4871
13178SOL    HW246585   2.324   3.357  10.455 -0.9043 -0.1121  1.1105
13179SOL     OW46586  10.303   8.039   7.475 -0.2267  0.1116  0.0052
13179SOL    HW146587  10.322   8.118   7.425 -0.2734  0.9769  1.2997
13179SOL    HW246588  10.381   8.026   7.529  0.1706 -1.2826 -0.8491
13180SOL     OW46589   2.000   1.828  10.052 -0.2543 -0.6929 -0.6024
13180SOL    HW146590   1.925   1.868  10.095 -0.4146 -1.2594 -0.3402
13180SOL    HW246591   2.043   1.900  10.005 -0.3853 -0.1722  0.0579
13181SOL     OW46592   8.084   8.252   5.658  0.2359 -0.4568  0.1664
13181SOL    HW146593   8.120   8.261   5.746  0.4707 -0.0322  0.0278
13181SOL    HW246594   8.054   8.161   5.654 -0.5731 -0.2433  0.9894
13182SOL     OW46595   4.086   2.735  10.406 -0.0042 -0.2611 -1.2215
13182SOL    HW146596   4.037   2.799  10.458 -0.7918 -0.2636 -1.9413
13182SOL    HW246597   4.020   2.674  10.373  0.7185 -1.3783 -0.6654
13183SOL     OW46598   5.907   9.277   2.653 -0.4316  0.2273 -0.1041
13183SOL    HW146599   5.931   9.244   2.739  0.6783 -0.6990 -0.7312
13183SOL    HW246600   5.975   9.342   2.633 -1.7371  1.8421  0.4723
13184SOL     OW46601   0.427   6.185   2.458  0.0482  0.0680 -0.3549
13184SOL    HW146602   0.475   6.266   2.477  1.8171 -0.5528 -1.8260
13184SOL    HW246603   0.423   6.181   2.362 -0.2610 -1.4388 -0.3084
13185SOL     OW46604   4.023  11.791   3.919 -0.1514  0.0202 -0.4900
13185SOL    HW146605   3.940  11.768   3.959 -0.5733  0.0977 -1.3098
13185SOL    HW246606   4.001  11.854   3.850  0.5334 -0.2725 -0.9929
13186SOL     OW46607   1.680   8.179  11.828  0.1461 -0.1813  0.1347
13186SOL    HW146608   1.634   8.216  11.753 -0.6873 -0.2307  0.6090
13186SOL    HW246609   1.766   8.221  11.826 -0.7718  1.8729  0.6858
13187SOL     OW46610   4.765   0.783   8.386 -0.4521 -0.1997 -0.8469
13187SOL    HW146611   4.770   0.696   8.424 -1.9866  0.0214 -0.0360
13187SOL    HW246612   4.680   0.817   8.416  0.7908  2.1933  0.2071
13188SOL     OW46613   5.508   9.875  11.190 -0.3943 -0.1207  0.0509
13188SOL    HW146614   5.454   9.940  11.234 -1.1847  0.1082 -1.1890
13188SOL    HW246615   5.562   9.837  11.259 -0.1386  1.6226  0.8713
13189SOL     OW46616  12.237  11.582   6.345  0.0250  0.0386  0.4446
13189SOL    HW146617  12.147  11.580   6.376  0.0144  3.0327  0.8915
13189SOL    HW246618  12.290  11.576   6.425  0.2294 -0.4869  0.2801
13190SOL     OW46619   4.916   4.758   4.632  0.0870  0.6088  0.6807
13190SOL    HW146620   4.968   4.803   4.700  0.7188 -0.1733  0.7330
13190SOL    HW246621   4.982   4.722   4.573 -0.3827 -0.6049  0.8706
13191SOL     OW46622   6.771   5.149   7.910  0.3453  0.2526 -0.4874
13191SOL    HW146623   6.733   5.154   7.822 -2.3063  1.1575  0.6215
13191SOL    HW246624   6.776   5.240   7.939 -1.9718 -0.1530  1.4766
13192SOL     OW46625   8.416   1.705   9.969 -0.4699  0.1130  0.0361
13192SOL    HW146626   8.460   1.786   9.943  1.7967 -1.1229 -0.2669
13192SOL    HW246627   8.479   1.661  10.027 -0.9537 -2.1036 -0.9906
13193SOL     OW46628   2.470   6.186   4.751  0.5399  0.1058 -0.1464
13193SOL    HW146629   2.423   6.262   4.716  1.6394  0.3706 -1.1140
13193SOL    HW246630   2.482   6.128   4.677 -0.1987 -0.9916  0.5695
13194SOL     OW46631   3.025   0.407   1.899  0.3406  0.5026  0.6803
13194SOL    HW146632   2.952   0.398   1.960 -0.0302  0.3067  0.2162
13194SOL    HW246633   2.986   0.388   1.813  1.1910 -0.8150  0.5631
13195SOL     OW46634   0.760   1.461   1.305 -0.3671 -0.3945 -0.0907
13195SOL    HW146635   0.818   1.501   1.369 -0.0813  0.9387 -1.1465
13195SOL    HW246636   0.714   1.393   1.354  2.9770 -2.4383  0.4999
13196SOL     OW46637   9.015   0.982   2.426  0.0636 -0.2495  0.4050
13196SOL    HW146638   8.943   0.969   2.364  0.9121 -4.6360 -0.0027
13196SOL    HW246639   9.086   1.016   2.373 -0.2716 -0.6189 -0.3059
13197SOL     OW46640   0.816  11.226   2.963  0.8708  0.0223 -0.0177
13197SOL    HW146641   0.736  11.173   2.961  0.6252  0.3283  1.1655
13197SOL    HW246642   0.865  11.197   2.886 -0.8888  0.6341 -1.4566
13198SOL     OW46643   2.909  10.133   6.219  0.7546 -0.6028 -0.1065
13198SOL    HW146644   2.870  10.050   6.249 -0.9861  0.0390 -0.4770
13198SOL    HW246645   2.928  10.118   6.127  2.4990 -1.2742  0.3071
13199SOL     OW46646   6.640  11.152   2.708  0.2115 -0.6219  0.2265
13199SOL    HW146647   6.635  11.120   2.798  0.9409  0.4768  0.6739
13199SOL    HW246648   6.576  11.098   2.660 -2.3296  0.6546  1.9628
13200SOL     OW46649   5.610   5.566   1.857  0.0754  0.0776 -0.3587
13200SOL    HW146650   5.698   5.537   1.881 -0.4927 -2.8324 -1.3713
13200SOL    HW246651   5.588   5.514   1.780 -1.3871  2.9849 -2.0742
13201SOL     OW46652   3.468   5.529   3.328 -0.0450 -0.2578 -0.2402
13201SOL    HW146653   3.425   5.544   3.243 -0.0977  0.7002 -0.0551
13201SOL    HW246654   3.538   5.467   3.309 -0.3216 -0.3789 -0.9025
13202SOL     OW46655   0.279   3.926   6.184  0.2534  0.0950  0.1768
13202SOL    HW146656   0.359   3.883   6.214  0.7837  0.1618 -1.0851
13202SOL    HW246657   0.242   3.866   6.120 -1.0562 -0.2230  1.1978
13203SOL     OW46658   8.559   3.294  11.921 -0.3972  0.0346  0.1756
13203SOL    HW146659   8.645   3.314  11.957  0.2601  1.9879 -2.2172
13203SOL    HW246660   8.571   3.212  11.873  0.2301  0.4783 -0.4317
13204SOL     OW46661  10.454   8.363   0.484  0.1593  0.1385 -0.9109
13204SOL    HW146662  10.490   8.433   0.539  0.1767 -0.2558 -0.4144
13204SOL    HW246663  10.475   8.390   0.394  1.8411 -0.1638 -0.6330
13205SOL     OW46664  10.541  11.378   4.478  0.0607  0.3538  0.1303
13205SOL    HW146665  10.478  11.394   4.407 -0.1270 -0.8519  0.0038
13205SOL    HW246666  10.582  11.464   4.493  1.2151  0.3629 -2.4800
13206SOL     OW46667   4.107   3.483   2.147 -0.1793 -0.0092 -0.3612
13206SOL    HW146668   4.135   3.442   2.228 -0.8294 -1.0658 -0.6460
13206SOL    HW246669   4.156   3.438   2.078  0.0361  0.5694 -0.5959
13207SOL     OW46670   1.843   8.446   6.828  0.7987 -0.6026  0.1260
13207SOL    HW146671   1.893   8.408   6.756  2.7822  1.1132  0.5154
13207SOL    HW246672   1.886   8.414   6.907 -0.6697 -1.5551  0.5899
13208SOL     OW46673   0.022   0.697   5.890 -0.5479 -0.5116 -0.3954
13208SOL    HW146674   0.101   0.660   5.850 -0.5470 -0.7502 -0.1743
13208SOL    HW246675   0.016   0.786   5.854  1.5850  0.7188  1.9807
13209SOL     OW46676   6.539   3.087   3.393 -0.3729 -0.2663 -0.6660
13209SOL    HW146677   6.554   3.153   3.325 -0.7184 -0.1915 -0.6745
13209SOL    HW246678   6.496   3.135   3.464 -0.0000 -0.3422 -0.3856
13210SOL     OW46679   0.387   1.453   9.112  0.0506 -0.1422 -0.1469
13210SOL    HW146680   0.430   1.429   9.031  0.9659 -1.6553  0.7473
13210SOL    HW246681   0.444   1.520   9.151 -1.0621  1.5726 -1.3085
13211SOL     OW46682   0.344   2.592   1.665 -0.0581 -0.6313 -0.2794
13211SOL    HW146683   0.328   2.502   1.695  0.1934 -0.0243  1.8504
13211SOL    HW246684   0.285   2.646   1.718 -1.2651  0.4143 -2.5118
13212SOL     OW46685  10.454   0.078   9.682  0.3787  0.1466 -0.5288
13212SOL    HW146686  10.462  -0.016   9.692  2.2732  0.3358  0.2096
13212SOL    HW246687  10.494   0.098   9.597 -1.8267  0.1268 -1.6355
13213SOL     OW46688   0.878   4.003   5.592  0.1351  0.0720 -0.1216
13213SOL    HW146689   0.966   4.032   5.615  0.1941 -0.8142  0.8382
13213SOL    HW246690   0.833   3.993   5.676 -0.5931 -0.3681 -0.5534
13214SOL     OW46691   9.656   0.420   8.393 -0.1773  0.3007  0.3319
13214SOL    HW146692   9.725   0.485   8.410 -0.3429  0.7782 -0.8051
13214SOL    HW246693   9.575   0.465   8.415 -0.2189  0.1424  0.5020
13215SOL     OW46694   0.918   7.407   5.251  0.0805  0.4846  0.3742
13215SOL    HW146695   0.949   7.450   5.331 -1.9121 -1.0154  2.0491
13215SOL    HW246696   0.991   7.351   5.224  0.6789  0.8088  1.2914
13216SOL     OW46697   0.280   4.006   2.671  0.1831  0.2093 -0.7520
13216SOL    HW146698   0.335   3.947   2.619 -0.1939 -0.3818 -0.4941
13216SOL    HW246699   0.223   4.049   2.607  0.8095  0.6807 -0.9973
13217SOL     OW46700   4.540   0.456  10.166 -0.1041  0.2354 -0.2269
13217SOL    HW146701   4.530   0.373  10.119  1.2485 -0.8383  1.2690
13217SOL    HW246702   4.543   0.432  10.258  0.7551  1.9030  0.2320
13218SOL     OW46703   9.399   4.974  10.253 -0.3721 -0.0369  0.2185
13218SOL    HW146704   9.344   4.960  10.176  0.3823 -1.0919 -0.1548
13218SOL    HW246705   9.444   5.057  10.235 -3.0355  1.7675  1.3069
13219SOL     OW46706   4.668   5.334  10.997  0.5000  0.4406  0.5221
13219SOL    HW146707   4.650   5.428  10.984 -2.3893 -0.1072 -0.2255
13219SOL    HW246708   4.603   5.306  11.061  0.1669 -1.3565 -0.5331
13220SOL     OW46709  11.405   8.839   5.750  0.2119  0.4256  0.3086
13220SOL    HW146710  11.348   8.887   5.690 -1.3951  0.1379  1.5720
13220SOL    HW246711  11.476   8.808   5.694 -0.8973  0.7138 -1.3303
13221SOL     OW46712  11.570   1.225   3.026 -0.1777  0.7534  0.4220
13221SOL    HW146713  11.536   1.145   2.985  0.4692  0.9888 -0.6194
13221SOL    HW246714  11.665   1.212   3.029  0.0756  1.9673 -0.9293
13222SOL     OW46715   2.979   3.517  12.129  0.1292  0.6396 -0.5538
13222SOL    HW146716   3.016   3.588  12.181  0.3840  0.6976 -0.8131
13222SOL    HW246717   2.897   3.495  12.174 -1.2679  2.8117 -1.8604
13223SOL     OW46718   2.720  12.425   1.168 -0.2819 -0.3684  0.0125
13223SOL    HW146719   2.680  12.340   1.185 -1.8761  0.3154 -0.1619
13223SOL    HW246720   2.720  12.433   1.072  1.4680 -0.8749 -0.0729
13224SOL     OW46721  11.070   5.938  12.473  0.1151  0.6379  0.0151
13224SOL    HW146722  11.004   5.898  12.417  0.3101  1.2136 -0.6321
13224SOL    HW246723  11.126   5.989  12.414  0.5778  0.9149  0.6688
13225SOL     OW46724   2.622   6.600   6.707 -0.7277  0.1547  0.3362
13225SOL    HW146725   2.543   6.566   6.665 -0.2909  1.6313 -1.8595
13225SOL    HW246726   2.590   6.654   6.779 -1.5990 -1.0266  0.8573
13226SOL     OW46727   0.618   2.260   3.402 -0.3063  0.0022  0.3200
13226SOL    HW146728   0.580   2.246   3.489  0.6959  0.8035  0.9030
13226SOL    HW246729   0.712   2.267   3.418  0.4385 -3.7435 -1.2768
13227SOL     OW46730   8.255   2.392   5.427 -0.4480 -0.0390 -0.7264
13227SOL    HW146731   8.213   2.437   5.354 -0.8470 -0.4339 -0.7398
13227SOL    HW246732   8.297   2.316   5.387  0.7815  0.6508 -0.8087
13228SOL     OW46733  12.525   6.117   3.561  0.5388 -0.5164  0.6997
13228SOL    HW146734  12.498   6.025   3.566  0.6147 -0.5589  0.3378
13228SOL    HW246735  12.454   6.161   3.516 -0.3369 -0.0505  2.4708
13229SOL     OW46736   3.927  11.041   4.690 -0.5228 -0.2407  0.1987
13229SOL    HW146737   3.913  11.051   4.784 -0.3362  1.5874  0.0661
13229SOL    HW246738   3.909  11.128   4.653  0.1792 -0.7119 -1.3513
13230SOL     OW46739   3.959   5.100   3.723  0.2147 -0.4439 -0.7621
13230SOL    HW146740   3.997   5.169   3.777  0.9308 -0.3271 -1.3879
13230SOL    HW246741   4.035   5.057   3.682 -0.2248 -1.5331 -0.4688
13231SOL     OW46742  11.445   9.771   3.594  0.3913  0.4069 -1.1262
13231SOL    HW146743  11.449   9.677   3.576 -0.9085  0.0828  0.0914
13231SOL    HW246744  11.356   9.796   3.570 -0.3936  0.5982  1.6318
13232SOL     OW46745   9.944   3.046  11.815 -0.2607 -0.2869  0.1755
13232SOL    HW146746  10.025   3.061  11.864 -1.7042  1.2110  2.2434
13232SOL    HW246747   9.922   3.132  11.778 -0.5052 -0.8674 -1.0891
13233SOL     OW46748   6.690   8.512   0.194 -0.0235  0.0420 -0.0887
13233SOL    HW146749   6.724   8.599   0.174 -1.4648  0.4258 -1.0235
13233SOL    HW246750   6.624   8.528   0.261 -0.8213 -0.2154 -0.7968
13234SOL     OW46751   4.209   9.128   0.125  0.3389  0.2307 -0.1133
13234SOL    HW146752   4.147   9.132   0.198  0.3796  2.2597 -0.1135
13234SOL    HW246753   4.288   9.171   0.158  0.3524  1.1951 -1.2991
13235SOL     OW46754  10.236   1.672   2.362  0.2471 -0.5420  0.5074
13235SOL    HW146755  10.324   1.709   2.373  0.7394 -1.3062 -0.7158
13235SOL    HW246756  10.239   1.628   2.277 -1.7221  0.5147 -0.1534
13236SOL     OW46757   5.184   5.955   1.204  0.2117  0.6173 -0.4787
13236SOL    HW146758   5.258   5.995   1.249  0.1418  1.5569 -1.1712
13236SOL    HW246759   5.224   5.899   1.137  0.3817 -2.1795  1.7320
13237SOL     OW46760   6.845   9.927   8.290  0.0364  0.0980 -0.0197
13237SOL    HW146761   6.885  10.014   8.300 -0.7977  0.2142  3.1922
13237SOL    HW246762   6.904   9.868   8.337 -1.9132 -0.2070  2.1894
13238SOL     OW46763  11.200   8.190   3.338  0.5534 -0.0008  0.4037
13238SOL    HW146764  11.239   8.213   3.254 -0.2071  0.4938  0.1821
13238SOL    HW246765  11.225   8.262   3.396  1.0951 -0.3521  0.6149
13239SOL     OW46766   7.690   2.330  11.508  0.6883 -0.1164 -0.1596
13239SOL    HW146767   7.602   2.337  11.545  1.7917 -2.2619  3.3954
13239SOL    HW246768   7.712   2.419  11.482 -2.5431  0.4678 -1.3675
13240SOL     OW46769  10.046   3.132   0.645 -0.4554  0.4912  0.4678
13240SOL    HW146770   9.956   3.111   0.621 -0.2588 -0.3655  0.4555
13240SOL    HW246771  10.053   3.105   0.737  0.1419 -0.6217  0.1081
13241SOL     OW46772   1.210   9.775  12.254 -0.1460  0.0496 -0.2176
13241SOL    HW146773   1.282   9.810  12.201  0.8383 -1.4457  0.0498
13241SOL    HW246774   1.254   9.726  12.324 -1.4262 -0.6071  0.1599
13242SOL     OW46775   1.826   3.464  10.776 -0.8652  0.6249  0.2685
13242SOL    HW146776   1.858   3.374  10.773  0.2816  0.9963 -2.9720
13242SOL    HW246777   1.736   3.457  10.808  0.5055 -1.0717  4.3704
13243SOL     OW46778   4.549   4.651  12.559  0.0610 -0.2056 -0.1584
13243SOL    HW146779   4.543   4.582  12.493  0.6059  0.2540 -0.7022
13243SOL    HW246780   4.598   4.721  12.516  2.0021 -0.5925  1.3060
13244SOL     OW46781   1.501   9.885  10.448  0.0459  0.0531 -0.1903
13244SOL    HW146782   1.439   9.950  10.480 -0.0295 -0.6902  1.2312
13244SOL    HW246783   1.553   9.932  10.383 -0.1490  1.4681  0.6374
13245SOL     OW46784   0.323   4.478  10.992 -0.3271  0.3469  0.2629
13245SOL    HW146785   0.336   4.442  11.079  1.5347 -0.2995 -0.2499
13245SOL    HW246786   0.254   4.545  11.004  0.2707  0.6701  2.3066
13246SOL     OW46787   1.855   3.379   1.365 -0.6384 -0.2837  0.3163
13246SOL    HW146788   1.882   3.312   1.427  0.8132  0.1944  0.2448
13246SOL    HW246789   1.879   3.343   1.279 -1.0208 -0.2086  0.1772
13247SOL     OW46790   4.365  10.978   5.872 -0.7531 -0.6980  0.3338
13247SOL    HW146791   4.315  11.057   5.893  0.3705  0.5323 -1.2732
13247SOL    HW246792   4.394  10.945   5.956  1.8859  2.8251  1.0894
13248SOL     OW46793  10.624   3.297   7.498  0.4884 -0.1492 -0.5381
13248SOL    HW146794  10.540   3.262   7.471  0.3499 -0.6130  0.4655
13248SOL    HW246795  10.619   3.390   7.476 -1.3721  0.4430  1.9832
13249SOL     OW46796   2.467  10.846   1.920 -0.0472  0.5132  0.9547
13249SOL    HW146797   2.398  10.785   1.947  0.1561 -0.1810 -0.0534
13249SOL    HW246798   2.548  10.806   1.953  0.2105 -0.3722 -0.6545
13250SOL     OW46799   1.859   6.039  10.213 -0.1774 -0.1297 -0.1942
13250SOL    HW146800   1.941   5.995  10.235 -0.9458 -0.8153  1.4938
13250SOL    HW246801   1.884   6.129  10.194  1.3813 -1.1052 -3.2624
13251SOL     OW46802   2.094  11.953  11.365 -0.2712 -0.1318  0.9502
13251SOL    HW146803   2.156  11.928  11.434  0.9362  1.0599  0.3451
13251SOL    HW246804   2.117  12.044  11.345  0.5020 -0.9072 -2.1393
13252SOL     OW46805   1.722   4.159   8.619  0.2338  0.4194 -0.4595
13252SOL    HW146806   1.816   4.141   8.622  0.2320  0.4985  2.2449
13252SOL    HW246807   1.689   4.131   8.705 -2.2528  0.2675 -1.3689
13253SOL     OW46808  11.451   5.598   7.482  0.7274 -0.1788 -0.2754
13253SOL    HW146809  11.532   5.593   7.432  0.8644 -0.1619 -0.0546
13253SOL    HW246810  11.461   5.534   7.552  1.7539  1.7524  1.4749
13254SOL     OW46811   9.115  10.566  12.003  0.4198  0.2277  0.2541
13254SOL    HW146812   9.063  10.623  12.059 -0.7103 -0.5203  0.0170
13254SOL    HW246813   9.174  10.520  12.063 -0.0971  0.1436  0.7022
13255SOL     OW46814  11.172   3.341   2.422 -0.4925 -0.3950  0.4416
13255SOL    HW146815  11.253   3.347   2.372 -0.0388  2.6239  1.3420
13255SOL    HW246816  11.200   3.341   2.514 -1.4794 -1.5678  0.7761
13256SOL     OW46817   8.790  10.442   9.273 -0.3082 -0.2690 -0.1195
13256SOL    HW146818   8.815  10.367   9.219 -0.6789 -0.0833 -0.5555
13256SOL    HW246819   8.695  10.437   9.279 -0.2892 -0.1412  0.3057
13257SOL     OW46820  11.699   0.327   5.098 -0.6047  0.7094  0.4090
13257SOL    HW146821  11.694   0.422   5.106 -2.3241  0.7141 -0.3487
13257SOL    HW246822  11.708   0.311   5.004 -1.2470  0.1063  0.4418
13258SOL     OW46823  10.235   9.796   1.369 -0.5817  0.0649 -0.1904
13258SOL    HW146824  10.302   9.767   1.307  0.0759 -1.3872  1.1312
13258SOL    HW246825  10.152   9.777   1.326 -0.1565 -2.1201 -0.1835
13259SOL     OW46826   8.351  10.514   4.220  0.8015 -0.1026  0.3650
13259SOL    HW146827   8.383  10.572   4.151  1.3720  0.0299  0.7296
13259SOL    HW246828   8.305  10.573   4.280 -1.9817 -0.5491 -1.1702
13260SOL     OW46829  10.651   2.051  11.557 -0.7784 -0.4898  0.0990
13260SOL    HW146830  10.570   2.007  11.585 -0.2156 -1.3573  0.3926
13260SOL    HW246831  10.656   2.129  11.612 -1.5797 -0.2594 -0.1406
13261SOL     OW46832   5.933   8.606   3.720 -0.1228  0.5025 -0.5458
13261SOL    HW146833   5.961   8.647   3.802 -0.3069 -0.3029 -0.0686
13261SOL    HW246834   5.957   8.514   3.730 -2.6904 -0.2036 -0.2029
13262SOL     OW46835   8.562   3.933   7.959 -0.4957 -0.2452  0.2293
13262SOL    HW146836   8.634   3.944   7.897  0.4083  0.1043  1.2920
13262SOL    HW246837   8.577   3.848   7.999  0.0052  0.2973  1.2510
13263SOL     OW46838  10.152   1.554   3.148 -0.6308 -0.0054 -0.0683
13263SOL    HW146839  10.157   1.490   3.077  0.5942 -0.9791  0.8474
13263SOL    HW246840  10.133   1.502   3.226  3.8459  0.0679  1.3637
13264SOL     OW46841   7.564   6.672   3.836 -0.8306 -0.1229 -0.4471
13264SOL    HW146842   7.544   6.618   3.912  0.4975 -1.4277 -0.9658
13264SOL    HW246843   7.641   6.723   3.862  0.2608 -1.3253 -1.2124
13265SOL     OW46844  10.701   6.876   8.739  0.1965 -0.6868 -0.1505
13265SOL    HW146845  10.750   6.898   8.660  0.7828  1.8202  0.8344
13265SOL    HW246846  10.621   6.929   8.733  0.5295 -0.0056  1.1978
13266SOL     OW46847  10.544  10.453   7.482  0.3380  0.1604  0.0266
13266SOL    HW146848  10.489  10.532   7.482  2.7126  1.9094  0.0217
13266SOL    HW246849  10.558  10.434   7.389 -0.4757 -0.4608  0.0264
13267SOL     OW46850   5.179   4.666   5.090 -0.0872 -0.1964 -0.5570
13267SOL    HW146851   5.126   4.664   5.010 -1.4675 -2.0926  0.3189
13267SOL    HW246852   5.265   4.636   5.063 -0.2116  0.2653 -1.5173
13268SOL     OW46853   8.058   3.669   3.796 -0.0075  0.1095 -0.7156
13268SOL    HW146854   8.105   3.671   3.713  1.3925 -2.5503 -0.0997
13268SOL    HW246855   8.012   3.585   3.796  0.7182 -0.3707  1.5077
13269SOL     OW46856   3.546   2.242   7.987 -0.4252 -0.0688  0.5030
13269SOL    HW146857   3.541   2.301   7.911  1.9489  0.6186  0.7981
13269SOL    HW246858   3.454   2.223   8.009 -1.2294 -1.0778 -3.0871
13270SOL     OW46859   6.213  12.262  12.186  0.4106  0.2194 -0.3734
13270SOL    HW146860   6.297  12.224  12.161  0.5072  0.3759 -0.2887
13270SOL    HW246861   6.219  12.354  12.160 -0.5679 -0.2331 -2.4164
13271SOL     OW46862   0.546  12.410  12.315  0.5490  0.1451  0.0253
13271SOL    HW146863   0.582  12.346  12.254  1.7872  1.7580 -1.0212
13271SOL    HW246864   0.470  12.447  12.269  0.5125  0.2250  0.1497
13272SOL     OW46865   7.805   6.491   1.093  0.0103  0.1172 -0.2589
13272SOL    HW146866   7.813   6.578   1.130 -0.2400 -0.0905  0.2924
13272SOL    HW246867   7.887   6.477   1.045  1.0662 -0.2361  1.5623
13273SOL     OW46868   5.260   4.520   2.622 -0.2580  0.1211  0.2379
13273SOL    HW146869   5.204   4.549   2.694 -0.7834  0.5648 -0.3324
13273SOL    HW246870   5.349   4.543   2.649 -0.4161  0.0143  0.8663
13274SOL     OW46871  10.754  10.265   9.238  0.4589  0.0420 -0.2557
13274SOL    HW146872  10.737  10.342   9.185 -0.1044 -0.0046 -0.1452
13274SOL    HW246873  10.689  10.201   9.210  1.2778 -0.5959 -0.7441
13275SOL     OW46874   1.983   5.823   0.415  0.3600 -0.4105  0.0838
13275SOL    HW146875   1.917   5.879   0.455 -0.7389 -0.5494 -1.4596
13275SOL    HW246876   2.065   5.870   0.430 -0.3018  0.6977  0.4187
13276SOL     OW46877   8.224  10.112  11.839 -0.9453 -0.3162  0.3829
13276SOL    HW146878   8.249  10.177  11.904 -0.1380  1.6701 -1.7643
13276SOL    HW246879   8.305  10.096  11.790 -0.9582 -3.4704  1.2006
13277SOL     OW46880   8.535   4.094   0.433 -0.1161  0.2946 -0.4579
13277SOL    HW146881   8.498   4.064   0.517 -2.8098  2.4231 -0.7570
13277SOL    HW246882   8.524   4.019   0.375  0.6632 -0.7894  0.7150
13278SOL     OW46883  12.142   6.501   8.030  0.0946  0.0540  0.2495
13278SOL    HW146884  12.139   6.440   8.104  0.8481 -1.0183 -0.5757
13278SOL    HW246885  12.067   6.476   7.976  0.5498 -0.3226 -0.2172
13279SOL     OW46886   9.932   4.397   9.009  0.2068  0.0481  0.6293
13279SOL    HW146887  10.013   4.385   9.059  0.9028 -2.0445 -0.8310
13279SOL    HW246888   9.946   4.347   8.928 -1.9473  0.9454 -0.3916
13280SOL     OW46889   2.404  12.410   2.345  0.1770  0.2783 -0.3718
13280SOL    HW146890   2.496  12.410   2.370  0.3836 -1.2171 -1.0003
13280SOL    HW246891   2.357  12.443   2.422  1.1349 -0.0634  0.3689
13281SOL     OW46892   0.178   2.298   9.784 -0.5355 -0.4534  0.0705
13281SOL    HW146893   0.211   2.386   9.769 -1.3983 -0.6332 -3.7894
13281SOL    HW246894   0.141   2.301   9.872  1.1517  2.4122  0.8122
13282SOL     OW46895   3.597   1.534   5.254  0.0742 -0.0915  0.2534
13282SOL    HW146896   3.547   1.474   5.310 -0.7244  0.2059 -0.1389
13282SOL    HW246897   3.600   1.616   5.304  1.1891 -0.4411  0.8015
13283SOL     OW46898   5.020  12.499   9.577 -0.0891  0.0388  1.0039
13283SOL    HW146899   4.924  12.506   9.577  0.0369  3.1815  0.4665
13283SOL    HW246900   5.040  12.445   9.501 -1.4184  0.6142  0.2057
13284SOL     OW46901   7.033  11.433  12.218 -0.0905  0.2380  0.2648
13284SOL    HW146902   7.013  11.349  12.177  0.6625  1.1549 -2.1702
13284SOL    HW246903   7.088  11.479  12.154 -0.9304  2.8081  1.2412
13285SOL     OW46904   0.897   4.680  10.864  0.6964  0.2940  0.2646
13285SOL    HW146905   0.906   4.773  10.847  1.8670  0.2641  0.6667
13285SOL    HW246906   0.845   4.674  10.944  1.3000  0.6265  0.6838
13286SOL     OW46907   8.167  10.858   3.300  0.2174 -0.4085  0.4837
13286SOL    HW146908   8.158  10.928   3.236  2.0797 -0.2052  0.3742
13286SOL    HW246909   8.234  10.799   3.263  0.2611 -1.0735  1.5573
13287SOL     OW46910   0.005   8.197  11.771  0.1513 -0.5295  0.2740
13287SOL    HW146911   0.015   8.141  11.694 -1.8303 -0.4418 -0.1250
13287SOL    HW246912   0.027   8.285  11.740 -3.8914  0.1469 -1.3325
13288SOL     OW46913   9.452   4.793   5.919 -0.2792  0.5224 -0.4671
13288SOL    HW146914   9.521   4.753   5.973 -1.1640  0.2567  0.5048
13288SOL    HW246915   9.495   4.867   5.877  0.4846  0.6753  0.5305
13289SOL     OW46916   6.873   0.057   7.069 -0.3239  0.0896  0.1940
13289SOL    HW146917   6.800   0.064   7.130  0.1666 -0.3476  0.8472
13289SOL    HW246918   6.832   0.041   6.984 -0.9710 -0.4701  0.6060
13290SOL     OW46919   4.417   3.087   1.581  0.3600  0.0214 -0.5033
13290SOL    HW146920   4.450   3.118   1.497  0.6850  0.3762 -0.2502
13290SOL    HW246921   4.468   3.135   1.646 -0.8072  0.7523 -0.0937
13291SOL     OW46922   4.789   2.934  12.441  0.3654  0.0765 -0.0779
13291SOL    HW146923   4.727   2.908  12.509 -0.2384  0.1844 -0.5709
13291SOL    HW246924   4.814   3.024  12.465  0.8607 -0.2060  0.4907
13292SOL     OW46925   2.688   9.915   5.446  0.5796 -0.0764 -0.9078
13292SOL    HW146926   2.770   9.957   5.420 -0.5304  2.9694  0.0689
13292SOL    HW246927   2.647   9.889   5.363  1.2024  1.0427 -1.5876
13293SOL     OW46928   0.053   5.402   3.170 -0.6088  0.2654  0.0770
13293SOL    HW146929   0.075   5.490   3.198 -0.1808 -0.0814  0.8463
13293SOL    HW246930   0.133   5.352   3.181 -1.1367 -0.4738  0.6913
13294SOL     OW46931   4.345  12.120   5.247  0.0406  0.2877  0.1144
13294SOL    HW146932   4.323  12.201   5.201  1.9917  1.0429  0.4229
13294SOL    HW246933   4.352  12.146   5.339 -0.2180 -0.4499  0.3522
13295SOL     OW46934   8.399   9.984   0.467  0.1139 -0.3455  0.6231
13295SOL    HW146935   8.449   9.992   0.549  1.0647  2.7554 -0.1286
13295SOL    HW246936   8.464   9.959   0.402  0.1357  0.6841  0.2206
13296SOL     OW46937   1.160   6.346  11.326 -0.1876  0.6229  0.2955
13296SOL    HW146938   1.238   6.392  11.358 -0.6516  0.6154  1.4896
13296SOL    HW246939   1.146   6.380  11.238  0.1778  1.8852  0.7074
13297SOL     OW46940   1.484   6.859  12.516  0.0086  0.5370 -0.5657
13297SOL    HW146941   1.510   6.793  12.581  0.3975 -0.8646 -2.0756
13297SOL    HW246942   1.391   6.874  12.532  0.0368 -0.0099  0.1263
13298SOL     OW46943   1.118  11.314   0.429  0.5112  1.0525 -0.1606
13298SOL    HW146944   1.174  11.312   0.351  0.0645 -0.6208 -0.4784
13298SOL    HW246945   1.034  11.279   0.399  0.2030  0.7773  0.9775
13299SOL     OW46946   1.304  12.366   4.322  0.3414 -0.0194  0.1610
13299SOL    HW146947   1.325  12.423   4.248  0.2134  0.4220  0.4615
13299SOL    HW246948   1.258  12.423   4.384 -0.8631 -0.7265 -0.0497
13300SOL     OW46949  11.151  10.642   6.599 -0.4400  0.3170 -0.1877
13300SOL    HW146950  11.144  10.665   6.507 -0.7134  2.1205  0.2458
13300SOL    HW246951  11.234  10.596   6.607 -0.3550  0.2673 -1.2941
13301SOL     OW46952   9.563   0.500   4.716 -0.1005 -0.0546  0.0856
13301SOL    HW146953   9.542   0.585   4.755 -0.7240 -0.7994  1.4726
13301SOL    HW246954   9.648   0.477   4.753  0.3822  0.2479 -0.8108
13302SOL     OW46955   1.114   9.026   5.391 -0.0672  0.3935  0.2786
13302SOL    HW146956   1.153   9.092   5.449  0.8570 -1.1550  1.5121
13302SOL    HW246957   1.189   8.978   5.357 -0.7375 -0.3025 -0.2392
13303SOL     OW46958   8.138   7.247  10.413 -0.5891 -0.7304 -0.1052
13303SOL    HW146959   8.175   7.306  10.347 -1.3037 -0.3824 -0.1977
13303SOL    HW246960   8.070   7.298  10.456  1.4462 -0.0713  2.6154
13304SOL     OW46961   3.243  12.335   3.257 -0.3935 -0.3781 -0.0311
13304SOL    HW146962   3.261  12.405   3.320 -0.5291 -0.1299 -0.2666
13304SOL    HW246963   3.305  12.352   3.186  0.7213 -1.4595  0.6477
13305SOL     OW46964   2.170   2.902   5.678  0.8079  0.2403  0.2206
13305SOL    HW146965   2.095   2.844   5.667  1.6121 -1.1841  1.7913
13305SOL    HW246966   2.191   2.897   5.771  2.6422  0.8482 -0.1173
13306SOL     OW46967   4.374   7.856   9.731  0.0327 -0.0897 -0.1023
13306SOL    HW146968   4.293   7.808   9.743  0.4351 -1.0603 -1.0761
13306SOL    HW246969   4.347   7.947   9.721 -0.8171 -0.2291  0.8761
13307SOL     OW46970   8.650   0.390   0.017 -0.1849 -0.0324 -0.1553
13307SOL    HW146971   8.607   0.305   0.018  0.6074 -0.4698 -0.9692
13307SOL    HW246972   8.739   0.371  -0.015 -0.0071  1.0985 -0.3752
13308SOL     OW46973  10.050  12.233   3.629 -0.4241  0.0384 -0.3101
13308SOL    HW146974  10.022  12.198   3.714  0.6029  0.4485  0.2074
13308SOL    HW246975   9.968  12.253   3.584 -0.9855  0.0333  0.6770
13309SOL     OW46976   6.099   1.244   5.679  0.7431  0.2250 -0.0067
13309SOL    HW146977   6.188   1.277   5.667 -0.0792  2.3195 -0.6792
13309SOL    HW246978   6.099   1.208   5.768  2.2915  0.0255 -0.0593
13310SOL     OW46979  12.437  10.802   9.380  0.8276 -0.2417  0.3396
13310SOL    HW146980  12.402  10.884   9.415 -0.9943 -1.0267  0.4202
13310SOL    HW246981  12.423  10.808   9.286  0.9757 -0.3387  0.3107
13311SOL     OW46982   8.192   0.488   3.215  0.0481  0.3133  0.7769
13311SOL    HW146983   8.191   0.432   3.137 -1.2971  1.1105  0.2014
13311SOL    HW246984   8.260   0.449   3.270  1.7391  0.3062 -1.1922
13312SOL     OW46985  12.056   1.574   5.585 -0.1015 -0.0324 -0.1214
13312SOL    HW146986  12.108   1.538   5.657  0.7379 -0.3811 -0.8769
13312SOL    HW246987  11.972   1.528   5.590 -1.0281  1.7492  2.1599
13313SOL     OW46988   2.270   6.539  12.154  0.5932 -0.2218 -0.3502
13313SOL    HW146989   2.259   6.542  12.249 -0.4217  0.3857 -0.4725
13313SOL    HW246990   2.197   6.487  12.122  0.2757  0.5203 -0.8823
13314SOL     OW46991  11.309  11.326  10.934  0.1823  0.5826  0.0966
13314SOL    HW146992  11.323  11.420  10.922  0.2351  1.0219  2.8184
13314SOL    HW246993  11.262  11.319  11.017  0.5967 -1.8306  0.2123
13315SOL     OW46994   8.913   9.626   2.049 -0.0720 -1.1445 -0.1229
13315SOL    HW146995   8.941   9.584   2.130 -0.6417  1.9126  1.7972
13315SOL    HW246996   8.990   9.674   2.019 -0.9917  1.3268  1.1629
13316SOL     OW46997   8.718   0.824   3.828 -0.0009 -0.2455  0.0228
13316SOL    HW146998   8.671   0.817   3.744  0.5224 -0.7243 -0.2358
13316SOL    HW246999   8.796   0.770   3.816  1.2294  1.4673  0.0254
13317SOL     OW47000  12.217   0.032   3.495 -0.1777 -0.1399 -0.3181
13317SOL    HW147001  12.294   0.076   3.531 -1.1846  1.9762 -0.6140
13317SOL    HW247002  12.176  -0.010   3.571 -0.2200  1.0763  0.3619
13318SOL     OW47003   2.458   1.241  12.292 -0.1797  0.6533 -0.0310
13318SOL    HW147004   2.401   1.229  12.216 -0.1312  1.1355 -0.1506
13318SOL    HW247005   2.544   1.259  12.253 -0.6088  3.2932  0.0615
13319SOL     OW47006   7.087   3.697  10.245 -0.4036  0.6218 -0.1611
13319SOL    HW147007   7.083   3.759  10.318  5.0908 -0.7371  1.7501
13319SOL    HW247008   7.083   3.611  10.287  1.3709 -0.2066 -1.5575
13320SOL     OW47009   5.936   7.642   7.331 -0.0053 -0.5486 -0.5193
13320SOL    HW147010   6.031   7.649   7.325 -0.1142  1.6350 -0.4423
13320SOL    HW247011   5.916   7.658   7.423 -0.4888 -0.3654 -0.6524
13321SOL     OW47012   0.198   9.835  12.380 -0.2862  0.2915  0.3789
13321SOL    HW147013   0.265   9.866  12.441  0.9159  0.6248 -1.0648
13321SOL    HW247014   0.203   9.740  12.384  0.7434  0.3077 -0.1806
13322SOL     OW47015   5.744   7.937   9.350  0.2617 -0.2290 -0.0896
13322SOL    HW147016   5.746   8.031   9.331  0.1088  0.0090  1.0418
13322SOL    HW247017   5.653   7.912   9.334  0.1575 -0.0517  0.2096
13323SOL     OW47018   1.521   5.004   3.409  0.3685 -0.0518  0.3178
13323SOL    HW147019   1.604   4.957   3.400 -0.4130 -1.1894 -2.0416
13323SOL    HW247020   1.496   4.992   3.500  1.6502 -1.7567  0.4973
13324SOL     OW47021  12.159  10.459   9.480 -1.1396 -0.1994  0.6561
13324SOL    HW147022  12.242  10.429   9.441 -1.9311 -1.0953 -0.4106
13324SOL    HW247023  12.146  10.402   9.555  0.4906  1.6556  2.4746
13325SOL     OW47024  11.280   1.921   1.702 -0.1591 -0.4769 -0.3486
13325SOL    HW147025  11.236   1.843   1.668 -1.8629  0.4250 -0.2747
13325SOL    HW247026  11.268   1.917   1.796  0.7371 -0.6851 -0.2314
13326SOL     OW47027   9.830   8.016   3.033 -0.5500 -0.6314 -0.0350
13326SOL    HW147028   9.892   8.072   2.986  0.1626 -0.6158  0.8905
13326SOL    HW247029   9.826   8.053   3.121  0.7932 -2.6178  0.9573
13327SOL     OW47030  10.639   3.212   4.308  0.4497  0.4800 -0.3750
13327SOL    HW147031  10.582   3.136   4.319  1.5060 -0.7093 -2.4261
13327SOL    HW247032  10.725   3.182   4.339  0.3424  1.7478  1.2574
13328SOL     OW47033  11.381   9.773   6.476  0.4694  0.6580 -0.5340
13328SOL    HW147034  11.464   9.796   6.517  0.3961 -0.5094  0.3553
13328SOL    HW247035  11.318   9.835   6.513  0.6385  0.4251  0.1708
13329SOL     OW47036  12.461   3.991   6.787  0.6518 -0.0939 -0.1437
13329SOL    HW147037  12.466   4.050   6.862  0.5158  0.0448 -0.2437
13329SOL    HW247038  12.551   3.983   6.756  0.9101 -1.1776  0.8317
13330SOL     OW47039  12.201   9.336   5.195  0.3091 -0.1422  0.5307
13330SOL    HW147040  12.187   9.312   5.103 -3.3530  1.4428  0.5396
13330SOL    HW247041  12.255   9.415   5.191 -0.4866  0.3754 -0.3273
13331SOL     OW47042   1.771   2.114   1.441 -0.2601 -0.0148  0.0546
13331SOL    HW147043   1.853   2.099   1.395 -1.0103 -0.8079 -1.0955
13331SOL    HW247044   1.791   2.180   1.507  0.9147  1.0024 -1.2860
13332SOL     OW47045   7.597   2.517  12.519 -0.4777  0.3314  0.1825
13332SOL    HW147046   7.656   2.593  12.520  0.0497 -0.0548 -0.5731
13332SOL    HW247047   7.565   2.510  12.609 -0.3101  1.2793  0.3264
13333SOL     OW47048   8.285  12.410  10.942  0.1431  0.7209 -0.2365
13333SOL    HW147049   8.278  12.496  10.900  0.2759  0.3077 -1.1327
13333SOL    HW247050   8.340  12.359  10.883  1.5565  0.5408  1.1595
13334SOL     OW47051   6.964   4.253   8.280 -0.0316  0.7596  0.1094
13334SOL    HW147052   7.024   4.234   8.352  0.4764 -0.1884 -0.5452
13334SOL    HW247053   6.916   4.171   8.267  0.2625  0.7365 -0.9625
13335SOL     OW47054   6.582   5.912   4.809 -0.3613 -0.6177  0.1520
13335SOL    HW147055   6.600   5.851   4.881  0.6696 -0.2408  0.2333
13335SOL    HW247056   6.620   5.995   4.838  2.7997 -1.1046 -1.9746
13336SOL     OW47057   0.042   0.052   4.406  0.2907 -0.0867  0.0597
13336SOL    HW147058  -0.033   0.109   4.425 -0.2896 -0.7757 -0.1293
13336SOL    HW247059   0.058   0.064   4.312 -2.1146 -2.8350 -0.8612
13337SOL     OW47060   5.346  10.599   6.959 -0.8405 -0.3156 -0.0250
13337SOL    HW147061   5.321  10.559   7.041 -1.5744 -1.0072 -0.5761
13337SOL    HW247062   5.334  10.531   6.893  1.1183 -0.2401 -0.5291
13338SOL     OW47063   1.474   1.648   8.482  0.7909  0.3152 -0.6526
13338SOL    HW147064   1.547   1.657   8.543  0.1289  0.5115  0.1412
13338SOL    HW247065   1.494   1.571   8.430  0.1686 -1.4624  1.5784
13339SOL     OW47066   9.403   4.991  10.572 -0.1993  0.6347 -0.4472
13339SOL    HW147067   9.481   5.042  10.592 -0.2248  0.3353  0.4603
13339SOL    HW247068   9.402   4.985  10.477  0.2337  1.6440 -0.5240
13340SOL     OW47069   3.008   5.727   6.803  0.4207  0.0742 -0.0328
13340SOL    HW147070   2.931   5.674   6.778 -0.5126  1.0241  0.7440
13340SOL    HW247071   2.978   5.778   6.878  2.3250 -0.7126  1.3269
13341SOL     OW47072  10.875  12.171   2.985 -0.5564 -0.1986 -0.3022
13341SOL    HW147073  10.905  12.231   3.054 -0.6564 -1.5320  0.9644
13341SOL    HW247074  10.787  12.202   2.963  0.1227  1.2700 -1.0973
13342SOL     OW47075   3.470   9.172   0.206  0.1397  0.2724 -0.4385
13342SOL    HW147076   3.471   9.109   0.134 -1.3892 -0.3801  0.0777
13342SOL    HW247077   3.468   9.257   0.163 -0.6427 -0.1077 -1.1789
13343SOL     OW47078   5.229   9.510   7.780 -0.2882  0.4029 -0.7070
13343SOL    HW147079   5.146   9.485   7.821 -1.0169 -1.2087 -2.9274
13343SOL    HW247080   5.282   9.430   7.783  1.5071  1.5607  1.1951
13344SOL     OW47081  10.164   9.487   8.945  0.6412 -0.1075 -0.1995
13344SOL    HW147082  10.094   9.438   8.901 -0.7768  1.2133  0.5075
13344SOL    HW247083  10.225   9.419   8.975 -1.3743 -1.4890  0.9768
13345SOL     OW47084   9.441   0.870   6.476  0.7375 -0.0246  0.0196
13345SOL    HW147085   9.434   0.965   6.484 -0.5068  0.0957 -1.9604
13345SOL    HW247086   9.379   0.836   6.541  1.1419  0.4927  0.6953
13346SOL     OW47087   5.800   3.100  11.900  0.3684  0.1342 -0.2047
13346SOL    HW147088   5.726   3.096  11.960 -0.1247  1.3758 -0.6950
13346SOL    HW247089   5.841   3.184  11.918  1.3849 -0.3299 -0.2769
13347SOL     OW47090  10.319   5.704   0.716 -0.2602  0.0779  0.7153
13347SOL    HW147091  10.334   5.774   0.780  0.5422  0.6733 -0.1054
13347SOL    HW247092  10.285   5.749   0.639 -0.8565 -0.5878  0.5827
13348SOL     OW47093   4.790   4.842   2.801 -0.4141  0.2802  0.4251
13348SOL    HW147094   4.736   4.855   2.723 -0.8795  1.1510  0.8771
13348SOL    HW247095   4.746   4.894   2.869  0.6185  0.4553  0.9702
13349SOL     OW47096   5.597   1.869   5.544 -0.6603 -0.4814  0.1595
13349SOL    HW147097   5.690   1.882   5.562 -0.1370 -2.8151 -0.5274
13349SOL    HW247098   5.591   1.861   5.449 -1.4621 -0.9355  0.2367
13350SOL     OW47099   3.392   6.730  11.103 -0.1951  0.1024 -0.2276
13350SOL    HW147100   3.455   6.722  11.175  0.0736 -2.3877 -0.6433
13350SOL    HW247101   3.430   6.797  11.046 -0.1234  1.7110  1.6035
13351SOL     OW47102   9.239   4.898   5.449 -0.1134 -0.2912  0.6676
13351SOL    HW147103   9.260   4.990   5.464 -0.7022 -0.0262 -0.0541
13351SOL    HW247104   9.258   4.854   5.532  0.7309  0.3798  0.8350
13352SOL     OW47105   6.411   6.813   4.997 -0.5654 -0.4458  0.8974
13352SOL    HW147106   6.336   6.834   4.941  1.0641 -1.2592 -1.7673
13352SOL    HW247107   6.389   6.729   5.036 -1.4247 -0.2281  0.9021
13353SOL     OW47108   2.225  11.716   0.399  0.8148  0.3279  0.0012
13353SOL    HW147109   2.303  11.668   0.372  1.0720  1.6578 -1.8447
13353SOL    HW247110   2.163  11.648   0.426  2.7389 -0.7322  2.0831
13354SOL     OW47111   0.223  10.896   0.855  0.1892  0.4422 -0.2226
13354SOL    HW147112   0.255  10.929   0.938  0.2323  0.8535 -0.4031
13354SOL    HW247113   0.302  10.872   0.806  0.2686  1.8797 -0.8462
13355SOL     OW47114   4.197  11.592   4.056  0.4745 -0.3901 -0.6984
13355SOL    HW147115   4.146  11.642   3.992 -0.2484  0.1205  0.2458
13355SOL    HW247116   4.137  11.525   4.088 -0.1278  1.0277  1.3892
13356SOL     OW47117   8.761  10.341  11.410 -0.1455 -0.4954  0.2967
13356SOL    HW147118   8.854  10.339  11.435  0.3673 -0.0909 -1.4009
13356SOL    HW247119   8.743  10.433  11.392 -0.2708 -0.7987 -1.3315
13357SOL     OW47120   5.964   7.417  12.551  0.3705  0.3010 -0.3997
13357SOL    HW147121   6.050   7.442  12.518  0.3598 -1.2267 -1.7313
13357SOL    HW247122   5.904   7.481  12.512  0.8092  1.0367  0.0930
13358SOL     OW47123  10.307   6.758   4.555  0.1556  0.3161  0.0701
13358SOL    HW147124  10.220   6.721   4.566 -0.8478  2.5922  0.4490
13358SOL    HW247125  10.355   6.730   4.633 -0.4935 -0.2815  0.2613
13359SOL     OW47126  10.134   1.417   3.397 -0.1149 -0.7338 -0.2084
13359SOL    HW147127  10.106   1.475   3.468 -1.3969 -1.8128  0.2349
13359SOL    HW247128  10.228   1.405   3.410 -0.2311 -0.4553  0.9698
13360SOL     OW47129  12.007   5.701   1.383 -0.4852 -0.2218  1.1245
13360SOL    HW147130  12.079   5.654   1.426  1.7721  0.1844 -1.8532
13360SOL    HW247131  12.016   5.679   1.291 -1.8985  2.8008  0.1330
13361SOL     OW47132   2.726   3.589   2.405  0.2653  0.6410 -0.3783
13361SOL    HW147133   2.783   3.656   2.367  2.5644 -1.3848 -0.7215
13361SOL    HW247134   2.679   3.552   2.330  1.6291 -0.4640 -0.7249
13362SOL     OW47135  12.035  12.339   6.387  0.1729 -0.2583 -0.1692
13362SOL    HW147136  12.026  12.283   6.464 -2.0301 -2.0023 -1.5730
13362SOL    HW247137  12.042  12.427   6.422  0.6334 -1.1151  2.0410
13363SOL     OW47138   8.050   8.747   0.068  0.5758  0.0102 -0.3397
13363SOL    HW147139   7.977   8.706   0.116  0.7292 -0.4380 -0.4821
13363SOL    HW247140   8.031   8.729  -0.024  0.1953  1.0160 -0.4689
13364SOL     OW47141   3.869   3.938   5.406 -0.4226  0.1844 -0.0583
13364SOL    HW147142   3.887   3.957   5.314  0.1582  2.2282  0.4349
13364SOL    HW247143   3.774   3.947   5.414 -0.4615  0.1213 -0.4139
13365SOL     OW47144   8.383   8.328   7.205  0.2230 -0.3948  0.0383
13365SOL    HW147145   8.303   8.335   7.153  0.5929  1.3169 -0.3568
13365SOL    HW247146   8.432   8.255   7.165 -0.6078 -0.7073 -0.4246
13366SOL     OW47147   8.834   8.808   9.335  0.0727 -0.3561 -0.1841
13366SOL    HW147148   8.928   8.823   9.337 -0.1648  1.6375 -1.0197
13366SOL    HW247149   8.824   8.715   9.315  1.8364 -0.7678  0.6796
13367SOL     OW47150   3.331   3.937   2.567 -0.2924 -0.1640 -0.3294
13367SOL    HW147151   3.313   3.884   2.645  3.1467  1.1878  1.6466
13367SOL    HW247152   3.378   4.014   2.601 -2.2053  2.6213 -3.3761
13368SOL     OW47153   7.727   8.142   3.139 -0.4208 -0.7609 -0.0341
13368SOL    HW147154   7.641   8.116   3.107 -0.7779  0.6534 -0.2876
13368SOL    HW247155   7.721   8.236   3.151  1.5628 -0.3801 -1.5238
13369SOL     OW47156   5.474  10.814  10.510 -0.3374 -0.1195  0.2374
13369SOL    HW147157   5.412  10.741  10.506 -1.0003  0.4757 -1.3966
13369SOL    HW247158   5.558  10.774  10.528 -1.1136 -0.9883  2.1891
13370SOL     OW47159   9.106   2.801   2.254  0.0600  0.4182 -0.1930
13370SOL    HW147160   9.147   2.786   2.340  2.8677  1.1916 -1.2850
13370SOL    HW247161   9.090   2.896   2.252 -0.0679  0.3909 -0.5073
13371SOL     OW47162   0.073  11.635   4.912  0.3704 -0.1919  0.0087
13371SOL    HW147163   0.065  11.596   5.000  0.0557  1.4129  0.7327
13371SOL    HW247164   0.123  11.570   4.862  0.4179 -1.2275  1.3201
13372SOL     OW47165   2.971   7.853   6.840  0.0374  0.2218 -0.7043
13372SOL    HW147166   2.962   7.918   6.770 -0.6431 -0.6910 -1.4842
13372SOL    HW247167   3.051   7.879   6.886 -0.3343  1.7434 -0.8496
13373SOL     OW47168   3.191   9.779   4.593  0.0085 -0.2885  0.2713
13373SOL    HW147169   3.245   9.774   4.514 -0.6633 -1.4028 -0.1380
13373SOL    HW247170   3.252   9.809   4.661  0.3734  1.6725 -0.8336
13374SOL     OW47171   5.677   7.382  12.435 -0.2928 -0.3256 -0.2854
13374SOL    HW147172   5.743   7.330  12.482  0.6087 -0.1953 -1.3630
13374SOL    HW247173   5.720   7.466  12.417 -1.2296  0.2671  0.1611
13375SOL     OW47174   3.423   5.898   7.795  0.3906  0.5128 -0.2718
13375SOL    HW147175   3.468   5.887   7.879  2.0354  0.0901 -1.1662
13375SOL    HW247176   3.481   5.953   7.743 -1.4445  2.2967 -0.5593
13376SOL     OW47177   8.231   7.183   6.914  0.1210  0.3359 -0.2776
13376SOL    HW147178   8.243   7.126   6.838  0.9139  1.3128 -0.9174
13376SOL    HW247179   8.141   7.169   6.942  0.9122 -2.9735  1.0460
13377SOL     OW47180  10.820   2.866   2.625 -0.5696 -0.0440  0.2411
13377SOL    HW147181  10.849   2.796   2.567  0.2235 -1.2696  1.9941
13377SOL    HW247182  10.726   2.850   2.636 -0.3754 -0.9484  0.7161
13378SOL     OW47183   8.873   8.116  10.690  0.4659  0.1911  0.0416
13378SOL    HW147184   8.936   8.060  10.734 -0.4492 -0.4508  0.5854
13378SOL    HW247185   8.864   8.077  10.602  0.9618  0.4033 -0.1061
13379SOL     OW47186   0.057   0.672   4.249 -0.1954 -0.2147 -0.3262
13379SOL    HW147187  -0.037   0.668   4.232 -0.2905 -3.2151  0.2397
13379SOL    HW247188   0.065   0.680   4.344  0.0415 -1.8814 -0.1772
13380SOL     OW47189   1.170  11.887   3.255  0.2997  0.6605 -0.2849
13380SOL    HW147190   1.149  11.972   3.216  2.7628  0.4964 -2.1930
13380SOL    HW247191   1.170  11.826   3.181  0.0434 -0.7204  0.8164
13381SOL     OW47192  12.309   5.611  10.773 -0.2711 -0.8038  0.8237
13381SOL    HW147193  12.333   5.679  10.711 -0.8847 -0.3752  1.0510
13381SOL    HW247194  12.216   5.594  10.756 -0.3301 -0.9977  1.3198
13382SOL     OW47195  11.722  10.524   2.738 -0.1223  0.5807 -0.4905
13382SOL    HW147196  11.687  10.576   2.811  0.3263  0.3380 -0.0939
13382SOL    HW247197  11.691  10.435   2.755  1.2919  0.2068  0.2950
13383SOL     OW47198   1.395  12.359   1.961 -0.1785  0.1896 -0.3413
13383SOL    HW147199   1.455  12.406   1.903 -0.1972  0.2045 -0.3487
13383SOL    HW247200   1.358  12.426   2.018  0.9550 -0.0153  0.6806
13384SOL     OW47201   0.301   6.991   5.395  0.3993  0.1156 -0.1893
13384SOL    HW147202   0.261   6.916   5.351 -1.5024  0.0616  1.4527
13384SOL    HW247203   0.386   7.002   5.353  1.5175 -3.9891  0.5442
13385SOL     OW47204   2.543   6.384   5.611  0.2806 -0.0511 -0.4845
13385SOL    HW147205   2.474   6.354   5.670  0.7313  1.4696  0.8795
13385SOL    HW247206   2.501   6.386   5.525 -1.4271  0.8538  0.3079
13386SOL     OW47207   8.136   3.013   4.618  0.3305 -0.3665 -0.6868
13386SOL    HW147208   8.130   3.108   4.603  0.9838 -0.1349  0.4085
13386SOL    HW247209   8.070   2.976   4.560  0.3936  0.7174 -1.4967
13387SOL     OW47210   1.191   3.030  11.054 -0.0513 -0.1849  0.0359
13387SOL    HW147211   1.275   3.076  11.059  0.5130 -0.5839 -3.2192
13387SOL    HW247212   1.125   3.099  11.065  0.7230  0.4537  0.7637
13388SOL     OW47213   5.151   9.340   4.818  0.6280 -0.1087 -0.8633
13388SOL    HW147214   5.110   9.369   4.737 -1.9313 -0.4691  0.1902
13388SOL    HW247215   5.143   9.244   4.816  1.5007 -0.1918 -0.6546
13389SOL     OW47216   5.499   5.236   3.459 -0.3563 -0.0108 -0.0647
13389SOL    HW147217   5.481   5.216   3.550  0.6557  0.7925  0.3363
13389SOL    HW247218   5.575   5.294   3.462 -0.4315  0.1897 -1.4068
13390SOL     OW47219   3.286  12.542  10.184 -0.3250 -0.2406  0.3346
13390SOL    HW147220   3.322  12.584  10.107 -0.2296  0.4525  0.7458
13390SOL    HW247221   3.351  12.477  10.210 -0.3346 -0.4366 -0.1299
13391SOL     OW47222   9.195   4.344   6.254 -0.0635  0.6000 -0.0191
13391SOL    HW147223   9.223   4.354   6.163 -1.3229 -0.3881 -0.5385
13391SOL    HW247224   9.142   4.421   6.271 -2.3236 -0.6027 -1.1367
13392SOL     OW47225   9.255  10.226   1.968  0.1302  0.2114  0.0705
13392SOL    HW147226   9.277  10.216   1.876  2.2978 -1.0645  0.6705
13392SOL    HW247227   9.188  10.159   1.984  1.2639 -0.9986 -0.1270
13393SOL     OW47228   3.397   5.530  11.867 -0.7342  0.0295 -0.1032
13393SOL    HW147229   3.302   5.537  11.868 -0.6462  1.4316 -0.1430
13393SOL    HW247230   3.414   5.436  11.862 -2.1087 -0.2417  0.0350
13394SOL     OW47231   4.228   4.153   3.380 -0.4768  0.0917  0.1440
13394SOL    HW147232   4.146   4.158   3.331 -1.2317  0.3431  1.3899
13394SOL    HW247233   4.259   4.244   3.384 -0.3460  0.0519  0.0027
13395SOL     OW47234   7.562   3.419   1.147  0.2653 -0.0352  0.0820
13395SOL    HW147235   7.522   3.483   1.088  1.9834  0.4619 -0.6037
13395SOL    HW247236   7.509   3.424   1.227 -0.5361  1.1612 -0.4828
13396SOL     OW47237   0.730  10.909   7.922 -0.2135  0.0880  0.3652
13396SOL    HW147238   0.670  10.946   7.987  0.6330  2.3990 -0.0903
13396SOL    HW247239   0.817  10.929   7.955  0.2415  0.3267 -0.9123
13397SOL     OW47240   5.162   3.555   5.218  0.5642 -0.0665  0.6133
13397SOL    HW147241   5.121   3.562   5.305  0.3400  0.1347  0.4931
13397SOL    HW247242   5.153   3.462   5.196 -0.4583  0.0877  0.2966
13398SOL     OW47243   2.829   5.194   1.109  0.0768 -0.0452 -0.0338
13398SOL    HW147244   2.755   5.244   1.143 -0.4797 -0.6455 -0.3242
13398SOL    HW247245   2.906   5.236   1.147 -0.3996  0.6975  0.1401
13399SOL     OW47246   2.001   0.410   0.174 -0.1607  0.4496 -0.1234
13399SOL    HW147247   2.062   0.457   0.232 -0.6534  1.4846 -0.4128
13399SOL    HW247248   2.055   0.382   0.100  0.3532 -0.3620  0.5386
13400SOL     OW47249  11.841   5.287   1.084  0.2856  0.1552  0.1161
13400SOL    HW147250  11.782   5.228   1.130  0.3465 -0.5274 -0.6567
13400SOL    HW247251  11.790   5.367   1.072 -0.9800 -0.8287 -1.6074
13401SOL     OW47252   8.092   0.039   7.690 -0.0572 -0.5739 -0.4016
13401SOL    HW147253   8.107   0.074   7.777 -1.3058 -2.3549  0.6146
13401SOL    HW247254   8.025   0.095   7.652 -0.2465 -0.3890  0.2027
13402SOL     OW47255  12.477   1.270   4.541 -0.3314 -0.6601 -0.1540
13402SOL    HW147256  12.470   1.341   4.605 -1.9671 -1.4559  0.6144
13402SOL    HW247257  12.387   1.258   4.509  0.1744 -1.4218 -1.3338
13403SOL     OW47258   6.793  11.744   9.733  0.0614  0.3027 -0.6068
13403SOL    HW147259   6.731  11.817   9.742  0.6865  0.9144 -1.1312
13403SOL    HW247260   6.786  11.696   9.815 -1.4641  0.0766 -0.8425
13404SOL     OW47261  10.172   9.005   6.000 -0.5359  0.3074 -0.2635
13404SOL    HW147262  10.262   9.010   5.967  0.2487  0.1215  1.7178
13404SOL    HW247263  10.130   8.941   5.943  1.0920 -0.8828 -0.2358
13405SOL     OW47264   3.153  12.476  12.509  0.2861  0.0290 -0.1457
13405SOL    HW147265   3.210  12.464  12.433  1.3892 -0.1125  0.6759
13405SOL    HW247266   3.133  12.388  12.538 -0.6209  0.0717 -0.6045
13406SOL     OW47267   2.189   3.375   2.232 -0.0202  0.3090  0.5317
13406SOL    HW147268   2.197   3.298   2.175  3.0820  0.5509  0.4791
13406SOL    HW247269   2.253   3.437   2.197 -0.9032  2.0817  1.9061
13407SOL     OW47270   6.779  12.479   1.935  0.0635  0.1210 -0.2342
13407SOL    HW147271   6.745  12.498   2.023 -0.7260  0.0601 -0.5232
13407SOL    HW247272   6.871  12.505   1.940 -0.5716  2.6323 -0.1501
13408SOL     OW47273   6.475   8.925   9.785 -0.1314  0.0735 -0.3453
13408SOL    HW147274   6.399   8.971   9.818  0.2408 -0.8973  2.0525
13408SOL    HW247275   6.454   8.832   9.796  0.2358 -0.3353 -2.4897
13409SOL     OW47276   2.490   1.826   3.709  0.1633 -0.3936  0.0509
13409SOL    HW147277   2.571   1.780   3.732  0.3967  0.0800  0.1777
13409SOL    HW247278   2.514   1.919   3.709 -0.0895 -0.3193 -1.0775
13410SOL     OW47279  12.344   0.469   3.269 -0.1487 -0.0583 -0.0804
13410SOL    HW147280  12.296   0.549   3.292 -0.0850  0.0849 -0.4476
13410SOL    HW247281  12.275   0.402   3.262 -0.5590  0.5221 -2.4077
13411SOL     OW47282   5.930  10.522   6.089  0.3968  0.1102 -0.8575
13411SOL    HW147283   6.020  10.491   6.100  0.2361 -0.2255 -0.4524
13411SOL    HW247284   5.915  10.578   6.165  0.2465  0.1311 -0.9034
13412SOL     OW47285   3.036   0.559   4.445 -0.1780  0.2842  0.2519
13412SOL    HW147286   3.034   0.653   4.424 -3.4947 -0.0139 -1.4866
13412SOL    HW247287   3.080   0.519   4.370 -0.4900  0.3192  0.0454
13413SOL     OW47288   6.970   5.574   7.309  0.2426 -0.0783 -0.1639
13413SOL    HW147289   6.921   5.535   7.381  0.3037 -1.7440 -0.9742
13413SOL    HW247290   7.052   5.524   7.307  1.8529  2.3599  0.8961
13414SOL     OW47291   8.757   9.143   8.480 -0.1913  0.5656 -0.4078
13414SOL    HW147292   8.707   9.186   8.549 -0.7132  1.0613 -1.0812
13414SOL    HW247293   8.692   9.120   8.414  0.4823  1.5451 -1.4666
13415SOL     OW47294   8.587   6.584  12.141  0.2667 -0.5713  0.4956
13415SOL    HW147295   8.517   6.649  12.148  0.6366  0.0276 -1.0093
13415SOL    HW247296   8.599   6.551  12.231 -0.1421  1.2052  1.2421
13416SOL     OW47297   6.923   9.841   9.623  0.3367  0.5529 -0.0029
13416SOL    HW147298   6.929   9.884   9.537  0.4672  1.3264  0.3880
13416SOL    HW247299   6.960   9.904   9.684 -0.1918  0.1971  0.6959
13417SOL     OW47300   5.558   0.645   8.538 -0.6853  0.1306  0.0478
13417SOL    HW147301   5.551   0.553   8.512  0.7466  0.0186 -0.0025
13417SOL    HW247302   5.512   0.692   8.469 -0.1177 -0.4530 -0.7527
13418SOL     OW47303   4.619   2.862   7.167  0.1896  0.4167  0.4993
13418SOL    HW147304   4.563   2.932   7.134  0.9530 -0.0885 -2.0328
13418SOL    HW247305   4.579   2.781   7.135 -0.5735 -0.4128  3.2197
13419SOL     OW47306   7.152   9.167   2.626  0.3095  0.1540 -0.2225
13419SOL    HW147307   7.142   9.262   2.622 -0.4373  0.2054  1.6880
13419SOL    HW247308   7.121   9.135   2.541  0.4098  1.6021 -0.8173
13420SOL     OW47309   1.473   1.274   0.900 -0.2806 -0.1183 -0.5688
13420SOL    HW147310   1.501   1.310   0.816  0.5011  0.5315 -0.0424
13420SOL    HW247311   1.439   1.349   0.949  0.1573 -0.3140  0.0546
13421SOL     OW47312   8.712  10.106   7.351 -0.1598  0.0938  0.3107
13421SOL    HW147313   8.804  10.087   7.370  0.1138  0.3731 -0.6605
13421SOL    HW247314   8.715  10.166   7.276 -1.1359 -0.1162  0.0888
13422SOL     OW47315   6.530  11.894   3.138 -0.7741 -0.2555 -0.0308
13422SOL    HW147316   6.608  11.941   3.110 -1.5028  0.5602 -0.7646
13422SOL    HW247317   6.554  11.855   3.223  0.6960 -0.7700 -0.6458
13423SOL     OW47318   9.262   0.330   9.703  0.1814  0.4268  0.3735
13423SOL    HW147319   9.249   0.305   9.611 -0.2571 -0.2722  0.6288
13423SOL    HW247320   9.182   0.302   9.748  0.9089 -0.3690  1.2079
13424SOL     OW47321   5.822   4.288   6.633  0.3569 -0.0155 -0.3560
13424SOL    HW147322   5.896   4.279   6.693 -0.0312 -0.4452  0.0669
13424SOL    HW247323   5.851   4.247   6.552  1.3156  1.5750 -0.8750
13425SOL     OW47324   8.347   8.178   3.824 -0.3560 -0.5216 -0.8979
13425SOL    HW147325   8.363   8.130   3.743  0.8829  1.5823 -1.9763
13425SOL    HW247326   8.291   8.251   3.799 -1.0687 -0.5801  0.4281
13426SOL     OW47327   7.321   4.157  10.501 -0.0439  0.1859 -0.3074
13426SOL    HW147328   7.326   4.096  10.427  2.8136 -0.4378  0.2503
13426SOL    HW247329   7.298   4.103  10.576  0.9068  0.0374 -0.1013
13427SOL     OW47330   7.026  11.669  11.172  0.3759 -0.4613 -0.2116
13427SOL    HW147331   7.035  11.643  11.264 -1.7009  0.8895  0.4170
13427SOL    HW247332   7.109  11.712  11.152  0.3993  0.3601  1.4393
13428SOL     OW47333  12.267   2.343   9.821  0.1673 -0.5247  0.5359
13428SOL    HW147334  12.308   2.258   9.806  0.7061 -0.4559  1.5661
13428SOL    HW247335  12.263   2.383   9.734  2.3855 -0.4984  0.3851
13429SOL     OW47336   6.783   3.262  10.604 -0.0109  0.5269  0.4543
13429SOL    HW147337   6.829   3.303  10.678 -0.1270  1.0410  0.2428
13429SOL    HW247338   6.759   3.175  10.637  1.4645  0.0907  0.4282
13430SOL     OW47339   0.880   0.878  11.031  0.7334 -0.1247 -0.1541
13430SOL    HW147340   0.796   0.925  11.031  0.3265 -0.8297  0.0311
13430SOL    HW247341   0.931   0.921  11.100 -0.1179 -0.7673  0.9281
13431SOL     OW47342   6.442   2.117   8.458  0.2260  0.1240  0.0900
13431SOL    HW147343   6.473   2.027   8.468  0.3201  0.2124  0.6275
13431SOL    HW247344   6.491   2.151   8.383 -1.7228 -1.0891 -1.8475
13432SOL     OW47345   9.184  11.951   5.933 -0.0035  0.3211 -0.3033
13432SOL    HW147346   9.124  11.981   6.001 -1.0262 -0.0541 -1.0152
13432SOL    HW247347   9.213  12.031   5.889 -0.5171  0.4627 -0.3880
13433SOL     OW47348   2.022   0.805   3.461  0.3214  0.2433  0.4253
13433SOL    HW147349   2.027   0.735   3.526  0.5021  0.2962  0.4691
13433SOL    HW247350   2.112   0.836   3.452  0.4560 -0.3781 -0.5268
13434SOL     OW47351  12.064  12.572   9.632 -0.1896  0.1677 -0.8073
13434SOL    HW147352  12.015  12.652   9.610 -0.8970 -0.5054 -1.7901
13434SOL    HW247353  12.017  12.535   9.707  0.6996  1.1387  0.2639
13435SOL     OW47354  10.315   9.343   4.423 -0.5102 -0.3941 -0.5220
13435SOL    HW147355  10.312   9.304   4.335 -2.1486  1.0182 -1.1595
13435SOL    HW247356  10.402   9.382   4.429 -0.4288 -0.3635 -1.6014
13436SOL     OW47357  10.178  12.037   9.180  0.1662 -0.1543 -0.3141
13436SOL    HW147358  10.092  12.010   9.147 -0.1883  1.3344 -0.6620
13436SOL    HW247359  10.191  11.982   9.258 -0.3069 -1.6027 -1.2097
13437SOL     OW47360   2.649  11.365   7.902 -0.1462 -0.3212 -0.5466
13437SOL    HW147361   2.727  11.379   7.847 -0.0468  1.4447 -0.0136
13437SOL    HW247362   2.622  11.452   7.928 -1.6127 -0.9852  0.2886
13438SOL     OW47363   3.070   8.368  12.037  0.6103 -0.1687  0.1941
13438SOL    HW147364   3.029   8.362  11.950  0.5759  1.2401  0.0876
13438SOL    HW247365   3.082   8.462  12.051  1.8394 -0.4416  1.1565
13439SOL     OW47366   9.663  10.092   7.987  0.5512  0.1462 -0.0805
13439SOL    HW147367   9.600  10.140   7.933  1.8697  0.2103 -1.6154
13439SOL    HW247368   9.625  10.004   7.995  0.2663  0.1745 -0.9994
13440SOL     OW47369   8.669  12.099   2.339  0.2181  0.1213 -0.4079
13440SOL    HW147370   8.665  12.118   2.433  0.0761 -0.5372 -0.2768
13440SOL    HW247371   8.723  12.170   2.303 -0.4860  0.8999  0.0214
13441SOL     OW47372   6.122   3.362   8.981 -0.3155  0.1196  0.0029
13441SOL    HW147373   6.182   3.398   9.047  0.8551  1.0411 -1.4876
13441SOL    HW247374   6.043   3.341   9.030  1.7106 -2.7974  2.4348
13442SOL     OW47375   4.654   1.591   2.563 -0.2357  0.1753 -0.0924
13442SOL    HW147376   4.620   1.563   2.479  1.5767  0.8676 -1.1100
13442SOL    HW247377   4.581   1.580   2.624 -0.4944 -4.0242 -0.9021
13443SOL     OW47378   8.977  10.361  11.863  0.0547  0.1586 -0.1769
13443SOL    HW147379   9.019  10.436  11.904  0.7221  0.4031 -1.2658
13443SOL    HW247380   8.883  10.378  11.874  0.1631 -0.5831  2.5936
13444SOL     OW47381   7.314   7.691   7.628 -0.5079 -0.7596  0.1872
13444SOL    HW147382   7.328   7.652   7.542 -3.2033  0.6729 -1.0168
13444SOL    HW247383   7.287   7.617   7.683  0.4686 -1.5629 -0.3711
13445SOL     OW47384   4.763  11.217  12.147 -0.0183 -0.0998  0.1454
13445SOL    HW147385   4.739  11.308  12.163  2.8138  0.4336  1.9647
13445SOL    HW247386   4.807  11.218  12.062  1.4163  0.5867  0.8663
13446SOL     OW47387   8.678   9.360   9.874  0.2537  0.2652 -0.0012
13446SOL    HW147388   8.680   9.289   9.937 -0.0609  0.0838 -0.1945
13446SOL    HW247389   8.585   9.376   9.857  0.2121  2.0907  1.5730
13447SOL     OW47390   1.449   6.445  10.497 -0.5076 -0.6014  0.2326
13447SOL    HW147391   1.507   6.446  10.573  0.3850  1.2693 -0.4047
13447SOL    HW247392   1.503   6.477  10.425 -2.1077  0.4515 -0.5586
13448SOL     OW47393   0.565  10.986  11.423 -0.5512  0.1203 -0.3591
13448SOL    HW147394   0.586  10.938  11.343  0.6124 -0.0369  0.0341
13448SOL    HW247395   0.495  10.935  11.464 -0.3260 -0.4435 -0.6738
13449SOL     OW47396  12.435   5.617   5.542  0.2822  0.0891 -0.3007
13449SOL    HW147397  12.451   5.642   5.633 -2.8560 -0.4006  0.5024
13449SOL    HW247398  12.456   5.524   5.537 -2.4664 -0.7038  0.8934
13450SOL     OW47399   6.686   6.315   5.154 -0.3114 -0.1935 -0.6674
13450SOL    HW147400   6.773   6.280   5.174  0.5335  2.6657  1.2702
13450SOL    HW247401   6.637   6.304   5.235 -0.6257  1.2455 -0.6399
13451SOL     OW47402   6.560   5.166   2.850 -0.7037  0.1285  0.4312
13451SOL    HW147403   6.502   5.131   2.917 -0.6157  1.3862  1.2125
13451SOL    HW247404   6.590   5.250   2.886  1.0207 -0.1480 -0.2578
13452SOL     OW47405   3.945   2.552  11.031 -0.1990  0.5141  0.3243
13452SOL    HW147406   3.977   2.572  11.120 -0.5501  0.2845  0.5021
13452SOL    HW247407   3.852   2.536  11.042 -0.2274  0.4015 -0.0767
13453SOL     OW47408   5.231   3.076   2.731  0.0375 -0.1127  0.3316
13453SOL    HW147409   5.260   3.074   2.640  1.0704 -2.6165  0.6261
13453SOL    HW247410   5.304   3.115   2.779  0.2014 -0.3757  0.2947
13454SOL     OW47411  10.476   9.120   5.345  0.1678 -1.0554 -0.8946
13454SOL    HW147412  10.393   9.145   5.302 -0.8253 -2.7190 -0.0388
13454SOL    HW247413  10.503   9.041   5.299  0.4110 -1.4495 -0.0839
13455SOL     OW47414   7.542  11.004  10.835  0.4668  0.5155 -0.2420
13455SOL    HW147415   7.517  10.928  10.783  0.7421  1.4673 -1.8223
13455SOL    HW247416   7.544  10.972  10.925 -2.2928 -0.6526 -0.4891
13456SOL     OW47417   9.243   1.818   7.965  0.1519 -0.1206  0.2786
13456SOL    HW147418   9.337   1.800   7.960  0.1833  0.2846 -0.6998
13456SOL    HW247419   9.211   1.755   8.030  0.8020 -1.4766 -0.6465
13457SOL     OW47420   8.583   9.601  11.084 -0.2272 -0.3751 -0.2006
13457SOL    HW147421   8.633   9.665  11.135 -1.2525  0.2529  0.0519
13457SOL    HW247422   8.599   9.626  10.993  0.5572 -0.6814 -0.1532
13458SOL     OW47423   3.594   7.757   5.902  0.3793 -0.1062  0.6567
13458SOL    HW147424   3.508   7.719   5.923 -0.2026  1.1956  0.7291
13458SOL    HW247425   3.589   7.776   5.809  0.1432  0.9936  0.8725
13459SOL     OW47426   7.798   0.613   4.274 -0.3950 -0.1698 -0.4317
13459SOL    HW147427   7.855   0.619   4.351 -1.9402  1.3708  0.6760
13459SOL    HW247428   7.715   0.649   4.304 -0.4824  2.4460 -3.4118
13460SOL     OW47429   0.993   6.704   9.886 -0.6108  0.3253 -0.2101
13460SOL    HW147430   0.975   6.788   9.929 -0.5423  1.2974 -1.9583
13460SOL    HW247431   0.907   6.666   9.869 -0.6460  0.0864  0.4650
13461SOL     OW47432  10.835  11.664   8.364  0.4037 -0.3114  0.2129
13461SOL    HW147433  10.769  11.613   8.410  0.8266 -0.0914  1.0773
13461SOL    HW247434  10.787  11.707   8.293 -0.5451  0.4623  1.2881
13462SOL     OW47435   8.676   9.981  12.396 -0.0302 -0.1113  0.1557
13462SOL    HW147436   8.726  10.013  12.471 -0.2927  0.0706  0.2559
13462SOL    HW247437   8.673  10.056  12.336 -1.9400  0.5805  1.0457
13463SOL     OW47438  10.129   2.940   0.246 -0.3050  0.0923 -0.1499
13463SOL    HW147439  10.192   2.949   0.175 -1.1292  0.4477 -0.8631
13463SOL    HW247440  10.162   2.997   0.315  0.0723  0.3833 -0.5644
13464SOL     OW47441  10.508   8.812   2.014  1.0338  0.0674  0.1733
13464SOL    HW147442  10.486   8.819   2.106 -0.7648  0.9522 -0.2803
13464SOL    HW247443  10.461   8.734   1.983 -0.4844  1.1923 -0.5024
13465SOL     OW47444   6.646   2.327   9.132 -0.4017  0.0914 -0.9219
13465SOL    HW147445   6.722   2.344   9.188 -0.9220  0.6215 -0.3656
13465SOL    HW247446   6.664   2.374   9.051  1.2393 -2.2034 -1.9972
13466SOL     OW47447   5.255   1.576   6.712 -0.3513  0.2435  0.2161
13466SOL    HW147448   5.204   1.564   6.632  0.3864 -1.4871 -0.0385
13466SOL    HW247449   5.341   1.605   6.682  0.0982 -0.9344  0.3025
13467SOL     OW47450   8.561   1.458   7.525 -0.1558  0.3597 -0.2581
13467SOL    HW147451   8.599   1.503   7.601 -0.2625  0.9685 -0.5610
13467SOL    HW247452   8.569   1.521   7.453 -2.2303  0.7549 -0.2219
13468SOL     OW47453   4.716   9.205  11.803 -0.3878 -0.9967  0.0948
13468SOL    HW147454   4.745   9.126  11.849  0.5287  0.1938  1.6668
13468SOL    HW247455   4.767   9.275  11.843  0.3271  0.1722 -2.6565
13469SOL     OW47456   0.850   8.412  11.121 -0.4964  0.2511  0.0596
13469SOL    HW147457   0.933   8.453  11.099 -0.3923  0.1274  0.2191
13469SOL    HW247458   0.795   8.484  11.151 -1.0668  0.6316 -1.7949
13470SOL     OW47459   5.836   0.564  12.474 -0.7163 -0.2866  0.1407
13470SOL    HW147460   5.905   0.510  12.512 -0.4230 -0.4266 -0.5814
13470SOL    HW247461   5.755   0.528  12.510 -0.4675 -0.6311  0.3630
13471SOL     OW47462   0.063  10.078   9.085  0.3506  0.1828  0.1507
13471SOL    HW147463   0.044  10.169   9.062  2.4293  0.5913 -0.0754
13471SOL    HW247464   0.109  10.042   9.010  1.1542 -0.5013  0.9377
13472SOL     OW47465  11.236   2.775   7.309 -0.4217 -0.6465  0.0621
13472SOL    HW147466  11.232   2.681   7.328  2.7233 -1.5153 -2.5501
13472SOL    HW247467  11.321   2.787   7.267  0.4127  3.8749  2.3782
13473SOL     OW47468   1.019   1.253   1.601 -0.0720  0.2886 -0.4110
13473SOL    HW147469   0.985   1.179   1.551 -1.6005 -0.2830  1.3518
13473SOL    HW247470   0.946   1.279   1.658  1.5821  0.7415  1.6457
13474SOL     OW47471   3.195  10.835  10.532  0.0681 -0.3918  0.4394
13474SOL    HW147472   3.116  10.783  10.518  0.7795 -1.2683 -0.4810
13474SOL    HW247473   3.169  10.925  10.513 -0.2405 -0.9141 -1.9889
13475SOL     OW47474   1.200  12.557   4.071 -0.6767  0.1221 -0.7070
13475SOL    HW147475   1.280  12.517   4.039 -0.9488  0.1659 -1.4615
13475SOL    HW247476   1.131  12.520   4.016 -0.8501  2.2070 -2.0105
13476SOL     OW47477   2.516   3.986   1.100 -0.1621  0.2156  0.2231
13476SOL    HW147478   2.575   3.934   1.154 -0.4392 -0.9152 -0.5356
13476SOL    HW247479   2.542   3.968   1.010 -0.3007  1.3603 -0.0604
13477SOL     OW47480   2.378   0.183   3.098  0.5272  0.5468  0.5972
13477SOL    HW147481   2.289   0.154   3.118 -0.0841  1.3651 -0.7995
13477SOL    HW247482   2.377   0.277   3.115  0.8033  0.7454 -0.4059
13478SOL     OW47483   4.337   2.671   3.530  0.1521  0.7433 -0.3017
13478SOL    HW147484   4.399   2.622   3.585 -1.3234 -0.3726  0.4210
13478SOL    HW247485   4.369   2.761   3.533  1.4800  0.2777  0.4211
13479SOL     OW47486   8.281  12.017   4.117 -0.1311  0.0098  0.1011
13479SOL    HW147487   8.331  12.098   4.110  0.0171 -0.1948 -1.8050
13479SOL    HW247488   8.238  12.008   4.033 -0.5395 -1.6454  0.4484
13480SOL     OW47489   8.592  12.535   5.146  0.3717 -0.3142  0.2307
13480SOL    HW147490   8.524  12.568   5.205  0.5687  0.4601  0.0370
13480SOL    HW247491   8.571  12.574   5.062  0.7573 -0.5010  0.0470
13481SOL     OW47492  12.359   0.191   1.969  0.1003  0.0613 -0.5118
13481SOL    HW147493  12.350   0.237   1.885  0.3133 -1.3486 -1.3394
13481SOL    HW247494  12.445   0.150   1.964  0.0642 -0.1375  0.3681
13482SOL     OW47495   6.892  12.265  10.467 -0.8604 -0.1922 -0.0816
13482SOL    HW147496   6.977  12.290  10.503 -0.1209 -0.0301 -1.8355
13482SOL    HW247497   6.835  12.340  10.486 -0.2300  0.3121 -0.1395
13483SOL     OW47498   5.371   9.360  12.271 -0.5866 -0.0632 -0.3651
13483SOL    HW147499   5.418   9.387  12.192  0.3471  1.1080  0.5382
13483SOL    HW247500   5.386   9.432  12.333 -2.3800 -0.3364  0.4502
13484SOL     OW47501   6.933   2.962  12.394 -0.0181 -0.3732  0.1448
13484SOL    HW147502   6.992   2.982  12.466 -0.2725  0.4942  0.1231
13484SOL    HW247503   6.947   2.869  12.376 -0.7215 -0.8872  2.0073
13485SOL     OW47504   3.771  12.098   8.765  0.5300 -0.1729 -0.2313
13485SOL    HW147505   3.682  12.080   8.736 -0.2120 -0.4292  2.0193
13485SOL    HW247506   3.799  12.018   8.808  1.8412 -0.0551 -0.8068
13486SOL     OW47507   3.584   2.485   2.945 -0.0966  0.7087  0.3027
13486SOL    HW147508   3.658   2.465   2.888  1.9145  0.3121  2.8747
13486SOL    HW247509   3.576   2.408   3.002 -1.0811  1.6247  1.4644
13487SOL     OW47510   0.893   9.389   7.309 -0.0018 -0.6902 -0.1641
13487SOL    HW147511   0.799   9.377   7.322 -0.0990 -0.3759 -0.5460
13487SOL    HW247512   0.912   9.345   7.226 -0.6734  2.9041 -2.4592
13488SOL     OW47513   5.657  11.333  12.290  0.3126  0.1512 -0.0969
13488SOL    HW147514   5.661  11.414  12.341 -1.1480  0.9023 -1.1287
13488SOL    HW247515   5.613  11.271  12.348  0.0228  0.5486  0.1122
13489SOL     OW47516   1.685   5.977   9.761  0.1325  0.1436  0.3373
13489SOL    HW147517   1.592   5.959   9.771 -0.1219  0.4897 -1.1011
13489SOL    HW247518   1.727   5.932   9.834 -1.0712 -0.8099  0.4651
13490SOL     OW47519   8.435  10.091   3.881  0.2007  0.7237  0.0635
13490SOL    HW147520   8.351  10.068   3.921  0.1142 -1.5818 -1.2897
13490SOL    HW247521   8.412  10.156   3.815 -0.9364 -1.3734 -1.7367
13491SOL     OW47522   4.114   0.374  10.470  0.0352 -0.0884 -0.2859
13491SOL    HW147523   4.146   0.391  10.559 -1.8746  0.7652  0.2790
13491SOL    HW247524   4.020   0.391  10.475 -0.2927 -1.1304 -2.2104
13492SOL     OW47525  12.502   4.802   6.061  0.2697  0.5682 -0.1188
13492SOL    HW147526  12.474   4.817   6.151 -0.1184  2.3370 -0.4763
13492SOL    HW247527  12.421   4.812   6.010  0.4058 -0.8460 -0.6388
13493SOL     OW47528   8.044  10.786   6.852  0.0922  0.0178 -0.3738
13493SOL    HW147529   8.015  10.870   6.888  1.3449  0.0589  0.6138
13493SOL    HW247530   8.037  10.725   6.925  2.8914  0.1458  0.1043
13494SOL     OW47531   3.464   7.680   9.771  0.0382  0.4022 -0.2200
13494SOL    HW147532   3.488   7.655   9.860  0.2868  0.1210 -0.3646
13494SOL    HW247533   3.370   7.698   9.776  0.3994  2.3107  0.5296
13495SOL     OW47534  11.304   3.385   9.588 -1.2981  0.0983 -0.6205
13495SOL    HW147535  11.295   3.419   9.678 -0.6551  0.0892 -0.5509
13495SOL    HW247536  11.358   3.307   9.597  0.3675  1.1081 -1.2101
13496SOL     OW47537   9.828   7.924  10.128 -0.3696 -0.4539 -0.0366
13496SOL    HW147538   9.754   7.983  10.117  0.7912  1.2365  0.7009
13496SOL    HW247539   9.889   7.949  10.059  1.1034  0.8588  1.6295
13497SOL     OW47540  10.474   7.101   4.381  0.1592 -0.7405  1.2398
13497SOL    HW147541  10.542   7.078   4.445  1.2885 -1.2758 -0.1101
13497SOL    HW247542  10.483   7.035   4.312 -0.2129  0.5168 -0.0545
13498SOL     OW47543   7.893   6.419   6.807  0.9970  0.1576  0.0603
13498SOL    HW147544   7.914   6.480   6.737 -0.7684  0.9861  0.1860
13498SOL    HW247545   7.865   6.474   6.880 -1.7223 -0.7064 -0.1880
13499SOL     OW47546   5.566   8.173   9.841 -0.2970 -0.0562 -0.1709
13499SOL    HW147547   5.533   8.237   9.903  1.0414 -0.4654  1.0150
13499SOL    HW247548   5.538   8.206   9.755 -1.8578  0.7044  0.6028
13500SOL     OW47549   6.926   2.130  11.775  0.1253 -0.6321  0.0173
13500SOL    HW147550   6.887   2.210  11.739 -0.4412 -0.0258  1.8218
13500SOL    HW247551   6.864   2.061  11.752 -0.0078 -0.3400 -0.5205
13501SOL     OW47552  10.179  10.356   9.763 -0.2242 -0.2244  0.4420
13501SOL    HW147553  10.182  10.445   9.800  0.5130 -0.7988  1.8367
13501SOL    HW247554  10.086  10.340   9.747 -0.4252  0.5842  0.7525
13502SOL     OW47555  11.645   4.798   7.235  0.5463 -0.2119  0.3455
13502SOL    HW147556  11.649   4.761   7.147  0.7911 -1.2823  0.7939
13502SOL    HW247557  11.732   4.833   7.251  0.9865 -1.4506  0.7532
13503SOL     OW47558  11.872   3.431   1.892  0.1177  0.0432 -0.4309
13503SOL    HW147559  11.786   3.433   1.935 -0.6995  0.5704 -2.0300
13503SOL    HW247560  11.899   3.339   1.898 -1.1981 -0.4174 -1.1046
13504SOL     OW47561  12.549   7.996  11.060  0.5975  0.0847 -0.1514
13504SOL    HW147562  12.594   7.945  10.993  2.3898  2.3784 -0.8320
13504SOL    HW247563  12.510   8.069  11.013  0.1577  0.6616  1.0549
13505SOL     OW47564   6.849   4.311   5.429 -0.6035  0.1098  0.8433
13505SOL    HW147565   6.806   4.286   5.347  1.3940  1.0709 -0.5700
13505SOL    HW247566   6.878   4.227   5.466 -1.7922 -0.3644  0.7514
13506SOL     OW47567  12.060  11.123   1.631 -0.0986 -0.2654 -0.4333
13506SOL    HW147568  12.054  11.034   1.666  1.7682 -1.2007 -2.2929
13506SOL    HW247569  12.071  11.178   1.709 -0.7288 -1.6960  0.7247
13507SOL     OW47570  10.301   7.755  12.418 -0.3968 -0.5477  0.5066
13507SOL    HW147571  10.356   7.708  12.356  1.9233  1.5462  0.8258
13507SOL    HW247572  10.246   7.812  12.364 -1.7013 -1.9919  0.2366
13508SOL     OW47573  12.562   4.196   3.146  0.2116 -0.3552 -0.0520
13508SOL    HW147574  12.515   4.255   3.088 -0.2045 -0.9508 -0.3298
13508SOL    HW247575  12.505   4.187   3.223  0.6888  0.3078  0.3933
13509SOL     OW47576  10.361   0.497  11.850 -0.2544 -0.4867  0.2312
13509SOL    HW147577  10.411   0.489  11.932  1.1593  1.6767 -0.3319
13509SOL    HW247578  10.422   0.470  11.782 -0.1056  1.2736 -0.3918
13510SOL     OW47579  11.683   5.661   3.113 -0.0513 -0.2280  0.1656
13510SOL    HW147580  11.679   5.726   3.042 -1.8954  0.7494  1.0988
13510SOL    HW247581  11.593   5.628   3.120  0.5001 -1.6674  0.8481
13511SOL     OW47582  10.236  11.136   7.376  0.1974  0.2760  0.6872
13511SOL    HW147583  10.232  11.079   7.453 -0.1029 -0.1434  0.3666
13511SOL    HW247584  10.324  11.173   7.378  0.7111 -0.9001  0.4117
13512SOL     OW47585   6.004   2.268   2.908 -0.0684 -0.0944  0.5315
13512SOL    HW147586   5.937   2.215   2.865  0.4438 -0.8239  0.6123
13512SOL    HW247587   6.046   2.208   2.969  1.4505  0.0229 -0.3484
13513SOL     OW47588   7.752   8.642   6.298  0.3156  0.2463  0.1273
13513SOL    HW147589   7.708   8.574   6.349  0.5584  0.3581  0.4958
13513SOL    HW247590   7.830   8.600   6.263  0.6560  0.4247  0.6548
13514SOL     OW47591   1.611  11.556   1.924 -0.2252  0.0555  0.2079
13514SOL    HW147592   1.615  11.622   1.992  1.2773 -0.9526  1.1649
13514SOL    HW247593   1.682  11.495   1.945 -0.3376 -0.8280 -1.7036
13515SOL     OW47594   4.261   3.433   5.217 -0.2105 -0.1883 -0.0695
13515SOL    HW147595   4.247   3.352   5.266 -0.1980  0.4652  1.0353
13515SOL    HW247596   4.178   3.480   5.225 -0.0094  0.1885 -0.1587
13516SOL     OW47597   2.796   5.905   0.442 -0.2597  0.4262  0.0022
13516SOL    HW147598   2.887   5.882   0.462 -0.4096 -0.4725 -0.3141
13516SOL    HW247599   2.744   5.859   0.509 -0.5014  0.6424 -0.0346
13517SOL     OW47600  10.465  12.182   4.318 -0.1379 -0.0912 -0.7728
13517SOL    HW147601  10.370  12.170   4.320 -0.3370  0.9792 -2.1332
13517SOL    HW247602  10.484  12.240   4.392 -0.6728  0.4025 -1.0176
13518SOL     OW47603   0.510  10.987  10.355 -0.0988  0.4813  0.5174
13518SOL    HW147604   0.458  11.067  10.355  0.2980  0.7458  0.4294
13518SOL    HW247605   0.462  10.926  10.411  0.2055  1.1795  1.5541
13519SOL     OW47606  12.120   9.892   3.509 -0.5788  0.5756  0.5691
13519SOL    HW147607  12.173   9.942   3.572  1.2459  0.9987 -1.2058
13519SOL    HW247608  12.183   9.838   3.462 -1.7652  0.8275 -1.4193
13520SOL     OW47609  10.829  11.192  10.062  0.3667  0.3749  0.2943
13520SOL    HW147610  10.909  11.229  10.025 -0.3484  1.1942 -0.4968
13520SOL    HW247611  10.786  11.266  10.105 -0.7282  0.3392 -0.6817
13521SOL     OW47612  10.544   4.674  12.342  0.5447 -0.0332  0.2029
13521SOL    HW147613  10.521   4.597  12.291  0.6706 -0.1513  0.3261
13521SOL    HW247614  10.633   4.657  12.374  1.0195  0.6444 -0.6993
13522SOL     OW47615   8.833   2.890   6.187 -0.0661 -0.4963 -0.5856
13522SOL    HW147616   8.845   2.985   6.194 -0.7832 -0.4358 -0.0926
13522SOL    HW247617   8.854   2.870   6.096  1.3766 -0.0699 -0.3759
13523SOL     OW47618   4.989   9.850  11.807 -0.0515 -0.0129  0.3563
13523SOL    HW147619   5.055   9.862  11.739 -1.6525 -1.1518 -1.5022
13523SOL    HW247620   4.924   9.918  11.790 -0.1842  0.0686  1.1450
13524SOL     OW47621  10.969   9.706   3.594  0.1229  0.1228 -0.1735
13524SOL    HW147622  10.883   9.732   3.561 -1.3164 -1.5425  1.9810
13524SOL    HW247623  11.012   9.788   3.616 -1.0080  0.9882 -1.0795
13525SOL     OW47624   8.350   5.998   3.973  0.4037  0.4233 -0.1267
13525SOL    HW147625   8.425   5.973   3.919 -0.0759 -3.1177  0.5683
13525SOL    HW247626   8.275   5.992   3.914  0.3005  0.2954  0.0165
13526SOL     OW47627   0.115  10.866   7.356  0.5537 -0.1695 -0.4701
13526SOL    HW147628   0.087  10.778   7.382 -2.7267  1.5126  2.6278
13526SOL    HW247629   0.203  10.875   7.392  0.0386 -1.4453  1.2195
13527SOL     OW47630   4.959  10.281  10.134 -0.0891 -0.1964  0.0305
13527SOL    HW147631   4.968  10.208  10.072  2.5198  0.3867 -0.4043
13527SOL    HW247632   4.959  10.239  10.220  0.3261 -0.7776 -0.2463
13528SOL     OW47633   8.397   4.151  11.764  0.1311 -0.6371 -0.7175
13528SOL    HW147634   8.395   4.056  11.757  4.4719 -1.0730  1.0799
13528SOL    HW247635   8.357   4.170  11.849  0.2620 -0.9471 -0.5880
13529SOL     OW47636   3.317   1.365  11.228  0.4255 -0.4321 -0.0638
13529SOL    HW147637   3.359   1.281  11.242 -1.1109 -1.0819  0.8801
13529SOL    HW247638   3.230   1.356  11.267  0.9572  2.2900  2.0868
13530SOL     OW47639   2.283   8.413   6.224 -0.6961 -0.2026  0.0880
13530SOL    HW147640   2.188   8.403   6.214 -0.4761 -3.1789  0.1856
13530SOL    HW247641   2.320   8.342   6.172  1.3637 -0.7325  2.1237
13531SOL     OW47642   8.072   5.100   7.317 -0.1865 -0.1409 -0.5441
13531SOL    HW147643   8.163   5.091   7.346 -0.7537 -1.0294  1.0880
13531SOL    HW247644   8.074   5.075   7.225  0.9869 -1.7126 -0.1402
13532SOL     OW47645   8.179   2.837   6.661 -0.3801 -0.1336  0.2306
13532SOL    HW147646   8.193   2.743   6.672 -0.9030 -0.4865 -1.8482
13532SOL    HW247647   8.214   2.857   6.574 -1.1729  1.4028  0.2310
13533SOL     OW47648  10.082  10.495  11.588  0.2538  0.3292  0.5869
13533SOL    HW147649   9.998  10.473  11.628  0.0121 -0.8423 -0.5001
13533SOL    HW247650  10.111  10.414  11.547  1.0386  1.1785 -0.6190
13534SOL     OW47651   4.473   4.110   6.180 -0.1307  0.2886 -0.0714
13534SOL    HW147652   4.563   4.130   6.203 -0.3263 -0.2913  1.3136
13534SOL    HW247653   4.425   4.120   6.263 -1.6909  2.5446 -1.1485
13535SOL     OW47654   0.913   8.835   1.191 -0.1211  0.1337 -0.3802
13535SOL    HW147655   0.882   8.923   1.212  0.2038  0.2019 -0.1832
13535SOL    HW247656   0.997   8.849   1.147 -0.0856 -0.0764 -0.3802
13536SOL     OW47657   7.275  10.936   5.047 -0.8676  0.7962  0.3948
13536SOL    HW147658   7.336  10.997   5.089  0.0208 -0.2645  0.6946
13536SOL    HW247659   7.331  10.872   5.003 -1.7515  1.9572 -2.6408
13537SOL     OW47660   4.336   7.278   3.750  0.2993 -0.1230  0.1083
13537SOL    HW147661   4.264   7.223   3.718  0.3575  0.0785 -0.3772
13537SOL    HW247662   4.314   7.295   3.841 -1.0778  1.2163 -0.4170
13538SOL     OW47663   1.507   9.158   3.720 -0.0545 -0.2062  0.2429
13538SOL    HW147664   1.529   9.199   3.804 -3.4300  0.1925  1.0900
13538SOL    HW247665   1.491   9.231   3.661 -2.4283 -0.2694  0.7106
13539SOL     OW47666   5.044   1.084   2.871  0.2653  0.0927  0.0919
13539SOL    HW147667   5.088   1.018   2.818 -0.0716  0.5548 -0.7714
13539SOL    HW247668   4.953   1.054   2.876  0.3541 -0.0957  0.6509
13540SOL     OW47669   7.870   3.567   0.333  0.0802  0.6617  0.2652
13540SOL    HW147670   7.955   3.563   0.290 -0.0520  0.2085  0.0421
13540SOL    HW247671   7.867   3.655   0.371  1.0847  0.3255  1.1868
13541SOL     OW47672   9.182   5.323   9.552  0.0859 -0.2868  0.0232
13541SOL    HW147673   9.184   5.263   9.477  2.3560  0.6822 -0.7806
13541SOL    HW247674   9.180   5.410   9.513  0.9226  0.2302  1.0688
13542SOL     OW47675   1.324   5.962   5.382 -0.0312  0.3187 -0.1679
13542SOL    HW147676   1.307   5.891   5.319  0.6839 -1.6573  1.7139
13542SOL    HW247677   1.417   5.982   5.370  0.3269 -0.6649  0.7572
13543SOL     OW47678  10.531   4.975  10.406 -0.0268 -0.6869 -0.1638
13543SOL    HW147679  10.468   5.042  10.434 -0.2539 -0.3946 -1.3219
13543SOL    HW247680  10.605   4.986  10.466  0.5301  1.5569 -1.1373
13544SOL     OW47681   6.675   3.580   6.181  0.1193 -0.3035  0.1324
13544SOL    HW147682   6.715   3.656   6.139 -0.0202  0.1420  0.7931
13544SOL    HW247683   6.582   3.588   6.162  0.2407 -1.0031 -0.8701
13545SOL     OW47684   1.097  12.390   5.131 -1.0243 -0.4153 -0.0823
13545SOL    HW147685   1.038  12.373   5.058 -3.5875  2.8985  0.9795
13545SOL    HW247686   1.144  12.470   5.107 -0.0821 -0.6379  0.8924
13546SOL     OW47687  11.489   1.435   0.505  0.5015  0.1535 -0.1495
13546SOL    HW147688  11.434   1.497   0.552  0.7740  0.0653  0.2917
13546SOL    HW247689  11.444   1.351   0.516 -0.1981  0.3648 -1.2752
13547SOL     OW47690   5.824   2.532   2.012  0.2312  0.0876  0.4184
13547SOL    HW147691   5.831   2.446   1.970  1.1169  1.3027 -2.1807
13547SOL    HW247692   5.867   2.522   2.097  0.0851 -2.0763  0.2790
13548SOL     OW47693   3.482   2.480   1.913 -0.2381 -0.1093  0.1917
13548SOL    HW147694   3.405   2.489   1.856  0.1213 -0.3317 -0.3367
13548SOL    HW247695   3.481   2.560   1.967 -1.2858 -0.4814  0.7592
13549SOL     OW47696   1.905   7.142  12.413  0.0907  0.8212  0.4521
13549SOL    HW147697   1.926   7.234  12.395 -2.8587  1.4351 -0.3081
13549SOL    HW247698   1.813   7.143  12.439  0.4822 -1.7356  2.3596
13550SOL     OW47699   5.639   1.434   2.245 -0.2993 -0.0686  0.2798
13550SOL    HW147700   5.638   1.475   2.332  2.0607 -0.3005  0.4828
13550SOL    HW247701   5.684   1.497   2.189  0.6176 -1.0662 -0.1300
13551SOL     OW47702   3.956  10.687   9.124 -0.0079  0.1820 -0.4415
13551SOL    HW147703   3.870  10.650   9.106 -0.0351  0.5691 -1.1075
13551SOL    HW247704   3.944  10.782   9.122  0.0906  0.2596  1.1431
13552SOL     OW47705   5.839   5.632  12.566 -0.3874  0.8229  0.2433
13552SOL    HW147706   5.916   5.689  12.570  0.5086 -0.1795 -1.3071
13552SOL    HW247707   5.875   5.544  12.554 -1.7410 -0.0481  2.0830
13553SOL     OW47708   0.342   5.923   5.350  0.5468 -0.3274  0.6551
13553SOL    HW147709   0.399   5.873   5.409  1.0234 -0.4841  0.0688
13553SOL    HW247710   0.254   5.893   5.372  0.7589 -0.7741  0.9294
13554SOL     OW47711   1.335   5.197   7.655  0.0100 -0.3621 -0.1565
13554SOL    HW147712   1.407   5.148   7.694 -0.3751  0.4144  1.6771
13554SOL    HW247713   1.370   5.286   7.644 -0.3630 -0.2026 -0.0948
13555SOL     OW47714   1.568  11.207  11.550 -0.6177 -0.4724 -0.0190
13555SOL    HW147715   1.499  11.269  11.574 -0.6779 -1.0680  1.4126
13555SOL    HW247716   1.536  11.167  11.469 -0.6733  1.1865 -0.8567
13556SOL     OW47717   3.842   6.449   7.384  0.2587 -0.0948  0.5735
13556SOL    HW147718   3.754   6.451   7.345  0.2368  0.1220  0.6321
13556SOL    HW247719   3.828   6.479   7.474  0.6662  1.8289  0.0427
13557SOL     OW47720   5.063   7.089   3.101  0.0970 -0.1725  0.2834
13557SOL    HW147721   5.074   7.133   3.186  0.1774 -0.4357  0.4092
13557SOL    HW247722   5.084   7.157   3.037 -3.4372  1.2011  0.3180
13558SOL     OW47723  12.507  10.321   4.944  0.6280  0.4607  0.3334
13558SOL    HW147724  12.448  10.357   5.010 -0.6761 -0.9199 -0.0047
13558SOL    HW247725  12.501  10.380   4.870 -1.9397 -0.6571 -0.4458
13559SOL     OW47726   4.202   7.217  12.234  0.1515 -0.1605 -0.3543
13559SOL    HW147727   4.247   7.141  12.195 -0.0831 -1.5561  1.8854
13559SOL    HW247728   4.272   7.281  12.249  0.4264 -0.0709 -1.9125
13560SOL     OW47729   3.375   3.396   8.783 -0.2812  0.1971 -0.9881
13560SOL    HW147730   3.420   3.454   8.722 -1.2400  0.6802 -1.2719
13560SOL    HW247731   3.390   3.434   8.869  0.5411 -0.1242 -0.9814
13561SOL     OW47732  12.276   9.042  10.031 -0.5695  0.2500 -0.0515
13561SOL    HW147733  12.223   9.037  10.110  1.9476  0.0034  1.7593
13561SOL    HW247734  12.366   9.047  10.063  0.6017 -0.3326 -2.9311
13562SOL     OW47735  12.226  11.481   5.262 -0.2120 -0.3630  0.6280
13562SOL    HW147736  12.167  11.444   5.328  0.2593 -1.4511  0.4430
13562SOL    HW247737  12.244  11.569   5.295 -1.4375 -0.2219  1.0052
13563SOL     OW47738   8.324   1.785   0.454  0.0529  0.2506 -0.0237
13563SOL    HW147739   8.349   1.876   0.470 -0.5225  0.6863 -1.4533
13563SOL    HW247740   8.403   1.743   0.421 -0.1300  0.7140 -1.0973
13564SOL     OW47741   9.902   8.038   7.484  0.4184 -0.1078  0.0068
13564SOL    HW147742   9.834   8.059   7.548 -0.1423  0.8689 -0.8715
13564SOL    HW247743   9.854   7.997   7.411  0.9174 -0.3864 -0.1686
13565SOL     OW47744   2.515  10.831   8.293  0.5107 -0.2572  0.0687
13565SOL    HW147745   2.578  10.860   8.360  0.4005 -1.7488  0.8599
13565SOL    HW247746   2.431  10.831   8.338  0.4190 -1.1673 -0.0877
13566SOL     OW47747   3.664   0.062   9.840 -0.1007 -0.5101  0.2763
13566SOL    HW147748   3.642   0.097   9.754 -0.3203 -2.6436 -0.6172
13566SOL    HW247749   3.756   0.036   9.833  0.2434  0.4257  1.1134
13567SOL     OW47750   4.414  11.600  11.596  1.0062 -0.7973  0.1886
13567SOL    HW147751   4.469  11.669  11.631  1.2777 -1.9600  2.2291
13567SOL    HW247752   4.473  11.526  11.582  0.9734 -0.3260 -3.1943
13568SOL     OW47753   8.138   2.951   7.618  0.4161  0.4217 -0.6177
13568SOL    HW147754   8.055   2.968   7.663  0.2544  2.0121 -1.4434
13568SOL    HW247755   8.124   2.867   7.573 -0.3883  0.1839  0.0515
13569SOL     OW47756   7.000   0.478   5.348  0.1009  0.6891  0.0511
13569SOL    HW147757   6.922   0.440   5.389  0.7066 -0.5051  0.1341
13569SOL    HW247758   7.065   0.482   5.419  0.5977  0.2567 -0.3713
13570SOL     OW47759   9.986   6.445   1.676  0.3148  0.1544 -0.4313
13570SOL    HW147760   9.959   6.510   1.741  2.1159 -0.9498  1.5257
13570SOL    HW247761  10.024   6.497   1.605  0.9936  1.2917  0.7265
13571SOL     OW47762   3.818  10.297   8.144 -0.2828 -0.2966  0.0699
13571SOL    HW147763   3.825  10.232   8.074 -0.1604 -0.4608  0.2316
13571SOL    HW247764   3.798  10.379   8.099  0.4958 -0.2556 -0.2261
13572SOL     OW47765   7.926   8.991   3.546 -0.1201  0.0051 -0.4521
13572SOL    HW147766   7.875   8.925   3.593  0.1909 -0.5040 -0.8180
13572SOL    HW247767   7.861   9.047   3.504 -0.3870 -0.6320 -0.9080
13573SOL     OW47768   5.725   8.264   0.199  0.0133 -0.3026  0.2523
13573SOL    HW147769   5.663   8.191   0.196  0.3025 -0.7435  2.8458
13573SOL    HW247770   5.672   8.341   0.221  0.0685 -0.2243  0.1158
13574SOL     OW47771   7.615   6.729  10.488 -0.1633  0.1173 -0.2793
13574SOL    HW147772   7.646   6.819  10.482  1.1982 -0.3725 -0.9289
13574SOL    HW247773   7.520   6.736  10.480 -0.1298  1.5411  0.3201
13575SOL     OW47774  10.646   3.216   0.342  0.8264 -0.4971  0.0233
13575SOL    HW147775  10.708   3.289   0.339  1.0445 -0.6955 -1.6397
13575SOL    HW247776  10.692   3.147   0.390  2.8385 -1.3821 -2.8791
13576SOL     OW47777   1.443   5.152   6.386  0.4569  0.2281 -0.7198
13576SOL    HW147778   1.513   5.209   6.417  0.0199  0.0363  0.6561
13576SOL    HW247779   1.436   5.084   6.452  0.0791 -0.7070 -1.6835
13577SOL     OW47780   3.764   4.143  12.128  0.3486  0.0658 -0.4292
13577SOL    HW147781   3.699   4.115  12.193  2.0540 -1.0909  0.8429
13577SOL    HW247782   3.802   4.223  12.165  0.7622 -0.1501 -0.3798
13578SOL     OW47783  11.324   4.307   2.260  0.6560  0.0156 -0.4783
13578SOL    HW147784  11.375   4.310   2.342  2.3788  0.5501 -1.5211
13578SOL    HW247785  11.242   4.351   2.281  1.0325  0.0776  0.9828
13579SOL     OW47786   0.990  11.818  10.847  0.3044  0.0091 -0.5192
13579SOL    HW147787   0.956  11.818  10.936 -0.6997  1.1904 -0.8817
13579SOL    HW247788   1.083  11.796  10.857  0.7723  2.3693  1.0491
13580SOL     OW47789   5.027  12.501   5.012 -0.1929 -0.0937 -0.9165
13580SOL    HW147790   4.961  12.528   5.076  0.6722  0.7369 -0.3447
13580SOL    HW247791   5.098  12.565   5.023  1.4618 -1.9297 -0.2981
13581SOL     OW47792  10.856  11.108   3.526  0.2120  0.2379 -0.0614
13581SOL    HW147793  10.841  11.162   3.604  0.1733  0.0670  0.0501
13581SOL    HW247794  10.891  11.026   3.560  0.7439  0.3750 -0.2686
13582SOL     OW47795   3.671   8.086  10.000  0.0580 -0.2773 -0.2088
13582SOL    HW147796   3.641   8.176  10.009  0.3314 -0.0787 -1.1375
13582SOL    HW247797   3.659   8.047  10.087  1.4429  1.1031  0.6568
13583SOL     OW47798   3.142   6.940   3.878  0.5827  0.5202  0.0349
13583SOL    HW147799   3.065   6.907   3.924  0.4360  0.5944 -0.1543
13583SOL    HW247800   3.109   6.966   3.792  0.8671  0.3245 -0.1346
13584SOL     OW47801   3.233  10.486   3.091 -0.1589  0.5113  0.9328
13584SOL    HW147802   3.185  10.562   3.125  0.8106  0.9777  1.2908
13584SOL    HW247803   3.179  10.455   3.018 -0.1497  2.0987  0.1942
13585SOL     OW47804  11.194   0.352  12.138 -0.2762 -0.1909 -0.7120
13585SOL    HW147805  11.135   0.419  12.171 -2.2381 -1.5022 -1.3722
13585SOL    HW247806  11.179   0.276  12.194  1.3498 -0.3608 -0.4469
13586SOL     OW47807  11.310   6.486   8.222 -0.0263  0.5290  0.3403
13586SOL    HW147808  11.225   6.466   8.184  0.5171  0.9805 -1.1585
13586SOL    HW247809  11.292   6.556   8.285 -0.8639  0.0847  0.6207
13587SOL     OW47810  10.408   0.908   8.769  0.0537  0.2189  0.1106
13587SOL    HW147811  10.366   0.970   8.829  0.9965  0.9227  0.0590
13587SOL    HW247812  10.446   0.962   8.701 -2.7753 -0.6677 -2.3661
13588SOL     OW47813   6.399   9.762   3.998  0.1531 -0.0918  0.1043
13588SOL    HW147814   6.332   9.793   3.936 -0.6723  2.0401  1.9121
13588SOL    HW247815   6.433   9.843   4.037  2.0213 -1.2805  1.0279
13589SOL     OW47816  10.986   1.100   5.551  0.2551 -0.2582  0.3354
13589SOL    HW147817  10.941   1.043   5.613  0.1303 -0.2215  0.2781
13589SOL    HW247818  10.938   1.183   5.555 -1.1571 -0.9239 -1.4481
13590SOL     OW47819   2.193  12.144   4.674  0.1059 -0.0376 -0.3371
13590SOL    HW147820   2.110  12.099   4.687  0.5457 -0.7953 -0.0861
13590SOL    HW247821   2.258  12.087   4.714  0.7675  0.4759 -0.6553
13591SOL     OW47822   2.727   2.778   1.117 -0.2309  0.3209  0.1743
13591SOL    HW147823   2.813   2.810   1.090 -0.0579 -0.5408 -0.3560
13591SOL    HW247824   2.742   2.687   1.142 -1.0685  0.0088 -0.3903
13592SOL     OW47825   8.748   3.316  12.441  0.0305 -0.6337 -0.3693
13592SOL    HW147826   8.812   3.335  12.511 -0.6976  0.1318  0.1047
13592SOL    HW247827   8.663   3.317  12.486 -0.5335  0.7563 -1.4165
13593SOL     OW47828   1.218   9.763  11.081  0.2629  0.2417  0.2950
13593SOL    HW147829   1.168   9.685  11.060  2.3783 -0.8116 -1.1242
13593SOL    HW247830   1.158   9.817  11.133 -2.1165 -1.1470 -0.8819
13594SOL     OW47831   0.111  11.863   9.491 -0.5638 -0.5326 -0.2591
13594SOL    HW147832   0.147  11.819   9.568 -2.2150  0.5506  1.1929
13594SOL    HW247833   0.161  11.944   9.484 -0.4669 -0.5936 -0.2765
13595SOL     OW47834   0.633   9.026   1.152 -0.2784  0.0135  0.2522
13595SOL    HW147835   0.627   9.029   1.057  0.2206 -0.5983  0.1958
13595SOL    HW247836   0.719   9.062   1.173 -0.0298 -0.6637  0.4138
13596SOL     OW47837   7.357   5.316   7.472  0.0404 -0.5073 -0.1403
13596SOL    HW147838   7.418   5.303   7.400  3.7861  1.2903  2.3976
13596SOL    HW247839   7.307   5.394   7.447  1.9997  0.7143 -0.4764
13597SOL     OW47840   3.224  10.620   2.554  0.1711 -0.4062  0.3547
13597SOL    HW147841   3.231  10.564   2.631 -1.5654 -0.5161  0.4893
13597SOL    HW247842   3.272  10.574   2.485  0.0543 -1.3009  0.8644
13598SOL     OW47843   9.633   8.160  11.469  0.1379  0.5351 -0.1339
13598SOL    HW147844   9.551   8.201  11.441  0.7564  1.3814 -0.7344
13598SOL    HW247845   9.681   8.229  11.514  0.5550  0.0651  0.1516
13599SOL     OW47846  10.548   1.247   0.893 -0.6180 -0.0388  0.3923
13599SOL    HW147847  10.581   1.325   0.848  1.5926 -1.4195 -0.5543
13599SOL    HW247848  10.482   1.211   0.834  0.5050 -0.4705 -0.6572
13600SOL     OW47849   2.485  10.890   3.703  0.0986  0.2196 -0.0847
13600SOL    HW147850   2.390  10.882   3.702  0.2316 -3.5437  0.8614
13600SOL    HW247851   2.510  10.902   3.611 -1.2255 -0.7462 -0.5967
13601SOL     OW47852   9.913  10.720  12.226 -0.4218  0.7680  0.2544
13601SOL    HW147853   9.890  10.653  12.290 -1.7512  0.2161 -0.7390
13601SOL    HW247854   9.940  10.795  12.278  0.6712 -0.3687  1.4082
13602SOL     OW47855   1.389  12.390   6.812  0.8056  0.1517  0.4683
13602SOL    HW147856   1.343  12.467   6.778 -0.5782 -1.2199 -0.9792
13602SOL    HW247857   1.322  12.322   6.815  2.2361 -1.3053  0.6018
13603SOL     OW47858   3.009   8.931  10.054  0.6285  0.2238 -0.1595
13603SOL    HW147859   2.985   9.024  10.056  0.7869  0.2620  0.0387
13603SOL    HW247860   2.942   8.888  10.107  0.7340  0.2678  0.0117
13604SOL     OW47861  10.165   5.436   1.584  0.6579  0.4018 -0.3059
13604SOL    HW147862  10.125   5.349   1.582  0.3465  0.5510 -1.6001
13604SOL    HW247863  10.239   5.427   1.644 -0.1142 -0.4114  0.5563
13605SOL     OW47864   2.636  10.199   5.262  0.1929 -0.1239  0.5611
13605SOL    HW147865   2.690  10.174   5.337  3.1648 -1.4604 -1.8375
13605SOL    HW247866   2.698  10.233   5.198 -2.3037  1.5845 -1.1147
13606SOL     OW47867   4.279  11.904   1.105  0.1158  0.0936  0.2148
13606SOL    HW147868   4.326  11.968   1.052  0.4343  0.0166  0.4004
13606SOL    HW247869   4.189  11.907   1.073  0.3364 -0.0634 -0.4359
13607SOL     OW47870   9.591  10.160  10.659 -0.2387  0.5211 -0.0738
13607SOL    HW147871   9.646  10.238  10.655  1.4931 -0.6825 -1.4026
13607SOL    HW247872   9.585  10.129  10.569  0.4489 -1.7142  0.5590
13608SOL     OW47873   3.174   0.842  11.062 -0.3458  0.5061  0.0944
13608SOL    HW147874   3.151   0.763  11.014  0.1420  1.4764 -1.8174
13608SOL    HW247875   3.174   0.815  11.154 -1.3537 -1.4019 -0.4212
13609SOL     OW47876   4.471   9.220   2.166 -0.1706  0.2670  0.1749
13609SOL    HW147877   4.538   9.210   2.233  0.1053 -0.3056 -0.1851
13609SOL    HW247878   4.403   9.157   2.190 -0.2103  0.2773  0.0891
13610SOL     OW47879  10.612   2.316   1.088  0.3790  0.1192  0.4391
13610SOL    HW147880  10.646   2.375   1.022 -0.1729  1.7988  1.5954
13610SOL    HW247881  10.686   2.261   1.112  0.6597 -0.3090 -1.3075
13611SOL     OW47882   7.716   1.461   3.148 -0.0393 -0.2796 -0.2080
13611SOL    HW147883   7.786   1.400   3.124 -0.1992 -1.0838  1.2226
13611SOL    HW247884   7.736   1.541   3.100  2.4045 -0.1851  0.8132
13612SOL     OW47885  12.179   0.231   6.308 -0.4992  0.4079 -0.0544
13612SOL    HW147886  12.208   0.142   6.287  0.4810  0.9949 -1.3364
13612SOL    HW247887  12.087   0.233   6.284 -0.4466 -0.1657 -0.3132
13613SOL     OW47888   3.968  10.106   0.696  0.3606  0.0330  0.4008
13613SOL    HW147889   4.060  10.079   0.698  0.4052  0.0025 -0.9692
13613SOL    HW247890   3.927  10.046   0.634 -0.3812  0.6551  0.2765
13614SOL     OW47891   0.452   4.429   9.368  0.1204 -0.6572 -0.4862
13614SOL    HW147892   0.392   4.355   9.355  1.4979 -1.5891 -1.9131
13614SOL    HW247893   0.454   4.474   9.284  2.0690 -1.1950 -0.7753
13615SOL     OW47894   5.863  10.701   4.438  0.3608  0.0690  0.2980
13615SOL    HW147895   5.829  10.626   4.389 -0.9592  0.8621 -0.0419
13615SOL    HW247896   5.930  10.738   4.380  1.0959 -0.8958  0.5143
13616SOL     OW47897   0.772   6.834   5.218 -0.3181  0.1592  0.1991
13616SOL    HW147898   0.827   6.849   5.295 -0.2755  0.2590  0.1502
13616SOL    HW247899   0.833   6.835   5.144 -0.3648  0.1155  0.1597
13617SOL     OW47900   9.078  11.395   7.848  0.1443 -0.0677 -0.8812
13617SOL    HW147901   9.095  11.301   7.851  0.7748  0.0418 -0.9795
13617SOL    HW247902   9.100  11.427   7.936 -2.3769 -0.3761 -0.0450
13618SOL     OW47903   5.828   1.464   6.813 -0.5714  0.9352  0.2312
13618SOL    HW147904   5.902   1.523   6.798  0.8885 -0.8902 -0.1137
13618SOL    HW247905   5.778   1.467   6.731  1.2570 -0.6430 -1.0187
13619SOL     OW47906   4.095   0.618  11.699  0.6538  0.4987  0.0020
13619SOL    HW147907   4.118   0.711  11.699 -0.0822  0.8332  3.5338
13619SOL    HW247908   4.037   0.607  11.623  0.5505  2.9705 -0.3437
13620SOL     OW47909   8.010   1.505   0.838  0.1531  0.3732  0.1365
13620SOL    HW147910   8.081   1.564   0.812 -0.1984  2.1435  2.7961
13620SOL    HW247911   7.939   1.525   0.778  1.3305 -0.3465 -1.5937
13621SOL     OW47912   8.948  11.749   7.596 -0.4339  0.5317  0.0131
13621SOL    HW147913   9.026  11.718   7.643  0.4965  0.5357 -1.4680
13621SOL    HW247914   8.951  11.844   7.606  1.5172  0.8601 -2.5115
13622SOL     OW47915   8.048   9.229   8.258  0.0559  0.0146 -0.5494
13622SOL    HW147916   8.024   9.146   8.298 -2.2211  1.0277  0.3399
13622SOL    HW247917   8.049   9.211   8.164 -1.7726 -0.7374 -0.4590
13623SOL     OW47918   4.128   9.214  11.550 -0.2670  0.2208  0.1103
13623SOL    HW147919   4.201   9.214  11.488  0.1075 -1.9658  0.4744
13623SOL    HW247920   4.113   9.307  11.569  1.1112  0.8186 -1.4751
13624SOL     OW47921   9.810  10.289   8.157 -0.3065  0.3158 -0.2966
13624SOL    HW147922   9.767  10.207   8.132 -0.1726  0.0656  0.2817
13624SOL    HW247923   9.890  10.290   8.106  0.4425 -0.6637  0.7987
13625SOL     OW47924  11.002   5.979   9.468 -0.6968  0.0311  0.0592
13625SOL    HW147925  11.032   6.065   9.498 -1.7132  0.5423 -0.3530
13625SOL    HW247926  10.953   5.998   9.388 -0.4055 -1.0091 -0.3754
13626SOL     OW47927   1.269   5.040   7.957 -0.0034 -0.1948  0.4071
13626SOL    HW147928   1.241   5.125   7.989  2.6150  1.0123 -0.2623
13626SOL    HW247929   1.214   5.024   7.880 -0.0621  1.2167  0.1366
13627SOL     OW47930   2.525   9.717   4.481  0.3408  0.4260 -0.6131
13627SOL    HW147931   2.586   9.643   4.484  1.3772  1.1891 -1.8616
13627SOL    HW247932   2.471   9.706   4.559  2.4573  0.0208  0.8901
13628SOL     OW47933   8.104   8.825   0.834  0.4694 -0.1153 -0.3119
13628SOL    HW147934   8.155   8.840   0.914 -1.4145  2.6715  0.5087
13628SOL    HW247935   8.160   8.859   0.764  1.7577 -1.7463 -0.1250
13629SOL     OW47936   8.916   0.217   0.705 -0.1272 -0.7378  0.3250
13629SOL    HW147937   8.998   0.214   0.755  0.5810 -0.6038 -0.8026
13629SOL    HW247938   8.851   0.250   0.768  0.8604 -0.0089  0.9984
13630SOL     OW47939   1.632   2.429   5.377 -1.0541  0.2843  0.2654
13630SOL    HW147940   1.638   2.337   5.403 -0.3047  0.5607  1.1500
13630SOL    HW247941   1.576   2.469   5.443  0.8989  1.0020  1.5782
13631SOL     OW47942   6.473   3.538  12.295 -0.2316 -0.0754 -0.0146
13631SOL    HW147943   6.451   3.613  12.240 -1.1038 -1.5673 -1.8238
13631SOL    HW247944   6.408   3.539  12.364 -0.7690  0.3473 -0.5198
13632SOL     OW47945   6.572   2.763   2.741  0.0082 -0.3387  0.4736
13632SOL    HW147946   6.500   2.824   2.755 -0.0479 -0.6736  1.8223
13632SOL    HW247947   6.588   2.764   2.647 -1.6248 -0.1131  0.1808
13633SOL     OW47948  11.058   5.291   2.863  0.2673 -0.4754 -0.1122
13633SOL    HW147949  11.099   5.335   2.938  0.8644 -1.7290  0.3303
13633SOL    HW247950  11.105   5.325   2.787  2.3116 -1.9726  0.3902
13634SOL     OW47951   2.176   0.105   1.192  0.3761 -0.9320  0.2746
13634SOL    HW147952   2.108   0.042   1.216  0.9012 -0.8974  1.9935
13634SOL    HW247953   2.189   0.092   1.098 -2.6739 -0.2656 -0.3477
13635SOL     OW47954   1.906   4.980   3.812  0.0935 -0.1266  0.1364
13635SOL    HW147955   1.854   5.048   3.856 -1.2075 -0.4628 -0.8240
13635SOL    HW247956   1.866   4.898   3.840  1.5672 -0.5373  1.1715
13636SOL     OW47957  11.187   4.180   5.881 -0.3735 -0.1002 -0.2023
13636SOL    HW147958  11.228   4.265   5.899  0.8598 -0.8950  0.8872
13636SOL    HW247959  11.245   4.116   5.922 -1.7940 -1.4095 -0.1574
13637SOL     OW47960   0.444   0.960  12.071 -0.3548  0.2904 -0.6305
13637SOL    HW147961   0.501   0.951  12.147 -0.5996  0.7873 -0.3858
13637SOL    HW247962   0.504   0.963  11.996 -0.1047  0.0081 -0.4427
13638SOL     OW47963   7.299   5.007   3.212 -0.4316  0.0693  0.2736
13638SOL    HW147964   7.321   4.917   3.237 -0.9103 -0.0323  0.3530
13638SOL    HW247965   7.235   5.035   3.278 -0.1652  0.5267  0.3430
13639SOL     OW47966   2.086   0.654   9.373 -0.1717 -0.0572  0.3983
13639SOL    HW147967   2.116   0.723   9.433  0.1588 -1.2006  1.6008
13639SOL    HW247968   2.003   0.625   9.410  0.0283 -0.7662  0.3031
13640SOL     OW47969   9.047  10.585   4.396  0.3004 -0.3238 -0.6019
13640SOL    HW147970   9.017  10.632   4.474 -0.2178  1.8222 -1.9841
13640SOL    HW247971   9.098  10.512   4.430 -0.0297  0.4366  1.7377
13641SOL     OW47972  11.216   0.529   8.202  0.0077 -0.2801  0.2010
13641SOL    HW147973  11.215   0.558   8.293 -0.8070  0.9079 -0.1601
13641SOL    HW247974  11.245   0.438   8.206  1.0899  0.0965  1.5348
13642SOL     OW47975   6.123   5.652   9.592 -0.2207  0.6378  0.7979
13642SOL    HW147976   6.058   5.582   9.598 -0.6310  0.9617  0.1741
13642SOL    HW247977   6.091   5.720   9.650 -0.9839  1.2243 -0.2948
13643SOL     OW47978   3.228   8.444  12.410  0.2842  0.1577 -0.1182
13643SOL    HW147979   3.318   8.449  12.379  1.1830  0.6143  2.3510
13643SOL    HW247980   3.191   8.530  12.388  0.9325  0.5211  0.1727
13644SOL     OW47981   4.851   9.815   2.828  0.4455 -0.2048  0.4204
13644SOL    HW147982   4.809   9.895   2.796  3.2404  1.0460 -0.4620
13644SOL    HW247983   4.944   9.837   2.832  1.3461 -3.4286  0.1574
13645SOL     OW47984   6.517   3.314   9.419  0.1908  0.2791  0.0809
13645SOL    HW147985   6.490   3.284   9.332  0.4015  0.3344 -0.0030
13645SOL    HW247986   6.610   3.333   9.411  0.5723 -1.1490  0.7070
13646SOL     OW47987   2.323   8.229   0.107  0.1302  0.0289 -0.0983
13646SOL    HW147988   2.254   8.294   0.117  1.1911  1.2312 -0.3093
13646SOL    HW247989   2.343   8.229   0.013 -0.2273 -1.0200 -0.1885
13647SOL     OW47990   1.811   6.632   1.911  0.4909 -0.3297  0.0018
13647SOL    HW147991   1.893   6.656   1.955  1.5036  1.0327 -2.4437
13647SOL    HW247992   1.834   6.623   1.819 -2.3671  1.8850 -1.1007
13648SOL     OW47993   1.173  10.238   9.221  0.3044  0.3747  0.4992
13648SOL    HW147994   1.237  10.191   9.275 -1.0195 -1.2297  0.7645
13648SOL    HW247995   1.157  10.179   9.147  0.7278  1.7339 -0.7121
13649SOL     OW47996   9.588   5.746   3.872 -0.4051 -0.2716  0.5293
13649SOL    HW147997   9.609   5.826   3.822 -0.9166 -0.7361 -0.4584
13649SOL    HW247998   9.527   5.698   3.816 -0.9821 -0.8321  1.6104
13650SOL     OW47999   6.289   7.720   5.877  0.2569  0.1057 -0.0862
13650SOL    HW148000   6.269   7.698   5.968  1.3311 -0.5071  0.0162
13650SOL    HW248001   6.277   7.639   5.829 -0.0060  0.3544 -0.4496
13651SOL     OW48002   3.627   2.773   1.097 -0.9784 -0.0034  0.3165
13651SOL    HW148003   3.585   2.831   1.160 -1.8518 -0.2692 -0.0060
13651SOL    HW248004   3.594   2.686   1.119  1.1534 -0.5856  1.4961
13652SOL     OW48005   7.579   1.762  10.702  0.1576  0.1708  0.4873
13652SOL    HW148006   7.665   1.733  10.731  1.3456  2.6037 -0.3756
13652SOL    HW248007   7.550   1.694  10.640  0.8569 -1.2882  1.7144
13653SOL     OW48008  10.496   0.087   2.411 -0.1062  0.3658  0.6346
13653SOL    HW148009  10.514  -0.001   2.377 -0.9201 -0.6503  2.6853
13653SOL    HW248010  10.555   0.098   2.485  0.4322  1.8487  0.0305
13654SOL     OW48011  10.028   5.007   1.487 -0.1853 -0.5727 -0.2552
13654SOL    HW148012  10.071   5.060   1.554  0.6145 -2.0088  0.4202
13654SOL    HW248013  10.082   4.929   1.480 -0.6528 -0.7762 -2.0987
13655SOL     OW48014   9.946   6.602   2.186 -0.2901  0.3821 -0.3854
13655SOL    HW148015  10.004   6.600   2.110  0.5794 -1.5836  0.2651
13655SOL    HW248016  10.005   6.603   2.261 -1.1278  0.6022  0.2870
13656SOL     OW48017   9.973  10.520   3.821 -0.2116  0.5455  0.2403
13656SOL    HW148018   9.898  10.475   3.860 -0.4268  0.4872 -0.2354
13656SOL    HW248019   9.972  10.607   3.860 -0.7692  0.6802 -0.0642
13657SOL     OW48020  11.507   7.392   6.229  0.0293  0.5055  0.4876
13657SOL    HW148021  11.552   7.338   6.295  0.8087  1.5224  0.8211
13657SOL    HW248022  11.498   7.335   6.153 -0.0876 -0.4106  1.1760
13658SOL     OW48023   8.778   7.004   1.769  0.0807 -1.0409  0.2264
13658SOL    HW148024   8.687   6.978   1.759  0.0128 -1.0154  0.7173
13658SOL    HW248025   8.806   6.961   1.850  0.9011 -2.1207 -0.6209
13659SOL     OW48026  11.846  12.567   3.419  0.0214 -0.2606  0.1987
13659SOL    HW148027  11.874  12.570   3.327 -1.5756 -1.2472 -0.3634
13659SOL    HW248028  11.752  12.547   3.415  0.0730 -1.0941  2.0581
13660SOL     OW48029   3.987   4.666   6.125 -0.3850 -0.0041 -0.9241
13660SOL    HW148030   3.936   4.634   6.200 -0.6781 -0.5825 -1.3651
13660SOL    HW248031   3.924   4.673   6.054  0.2487 -1.3697 -1.6679
13661SOL     OW48032   4.431   4.967   8.959 -0.6600 -0.0614 -0.1594
13661SOL    HW148033   4.392   4.880   8.961 -0.2657 -0.2691 -0.9970
13661SOL    HW248034   4.415   5.003   9.046 -2.8257 -0.0919 -0.4876
13662SOL     OW48035   0.893   2.268   3.450 -0.0109 -0.1638 -0.3141
13662SOL    HW148036   0.924   2.201   3.511 -2.2043 -0.8356  0.1575
13662SOL    HW248037   0.965   2.280   3.389  2.0343  0.0559  1.9873
13663SOL     OW48038  12.371   8.265   5.555 -0.0332  0.6195  0.5066
13663SOL    HW148039  12.353   8.184   5.603 -1.9389  0.0110 -1.0995
13663SOL    HW248040  12.310   8.329   5.592  0.4010  0.9018  0.7361
13664SOL     OW48041   1.673   1.158   3.995 -0.4389 -0.3628  0.5948
13664SOL    HW148042   1.761   1.191   4.015 -0.4266  0.2857 -0.4706
13664SOL    HW248043   1.688   1.068   3.965  0.0340  0.1776 -0.8823
13665SOL     OW48044  10.686   9.462   9.804 -0.2134  0.1678  0.5817
13665SOL    HW148045  10.722   9.544   9.838 -0.6373  0.1390  1.1179
13665SOL    HW248046  10.713   9.460   9.712  1.8279 -0.2324  1.1386
13666SOL     OW48047  10.267  11.583   8.340 -0.1475 -0.6169 -0.0621
13666SOL    HW148048  10.183  11.580   8.387 -0.3941 -0.9274 -0.5144
13666SOL    HW248049  10.243  11.599   8.249  0.3740  0.8633  0.0371
13667SOL     OW48050   8.012  11.632   3.092 -0.4288  0.4412  0.6765
13667SOL    HW148051   8.015  11.713   3.142 -0.3225  1.9144 -1.5734
13667SOL    HW248052   7.959  11.653   3.015 -0.0675 -1.5119 -0.1712
13668SOL     OW48053   9.697   0.454   5.666 -0.1550  0.1716  0.5480
13668SOL    HW148054   9.671   0.523   5.605 -0.1298 -0.0737  0.2565
13668SOL    HW248055   9.791   0.467   5.678 -0.2131  0.3917  0.7491
13669SOL     OW48056  11.635   3.956   6.878  0.4487 -0.4279 -0.8689
13669SOL    HW148057  11.581   4.035   6.872  0.7452 -0.3104 -2.5745
13669SOL    HW248058  11.723   3.990   6.900  0.2858 -0.4270 -0.1982
13670SOL     OW48059   6.512   4.639  12.027 -0.0361 -0.1730 -0.0314
13670SOL    HW148060   6.432   4.587  12.016  0.3427 -0.7118 -0.2407
13670SOL    HW248061   6.583   4.575  12.030  0.4789  0.3528 -0.6522
13671SOL     OW48062   7.716   1.785   0.518  0.5252  0.3193  0.1621
13671SOL    HW148063   7.794   1.797   0.464  0.1319  2.9553  0.0760
13671SOL    HW248064   7.664   1.719   0.472  1.8818 -0.1961 -0.6774
13672SOL     OW48065  10.750  11.921   6.761 -0.1758 -0.5119 -0.1812
13672SOL    HW148066  10.684  11.889   6.822 -1.5686  3.6061  0.8064
13672SOL    HW248067  10.831  11.923   6.812 -0.3212 -1.2656  0.0877
13673SOL     OW48068   7.625   8.341   7.231  0.7467  0.2414 -0.5072
13673SOL    HW148069   7.709   8.298   7.246  1.3236  1.1841 -0.9110
13673SOL    HW248070   7.597   8.309   7.145  0.8901  0.2244 -0.5482
13674SOL     OW48071   1.840  10.181   5.533 -0.6368 -0.1486  0.0855
13674SOL    HW148072   1.825  10.093   5.498 -0.8296 -1.1197  2.4639
13674SOL    HW248073   1.933  10.197   5.520 -0.5867 -0.7303 -0.2880
13675SOL     OW48074   1.445   2.397   0.555  0.0435  0.2075 -0.0602
13675SOL    HW148075   1.453   2.349   0.472  0.2181 -1.4738  0.8957
13675SOL    HW248076   1.398   2.338   0.613 -0.6144  1.6053  0.8814
13676SOL     OW48077  10.684   4.347   4.263 -0.2650 -0.3034  0.2930
13676SOL    HW148078  10.734   4.376   4.187 -2.3308 -2.3509 -2.0347
13676SOL    HW248079  10.750   4.334   4.331  1.6440  1.8758 -0.9908
13677SOL     OW48080   6.518   6.366   8.211  0.1463  0.2015 -0.4808
13677SOL    HW148081   6.566   6.431   8.261  2.1473  0.3383 -2.4439
13677SOL    HW248082   6.556   6.282   8.236 -0.2848  0.0748 -0.2416
13678SOL     OW48083   9.621   2.529   2.012  0.6159  0.4090 -0.4611
13678SOL    HW148084   9.538   2.559   2.050  0.4178  0.4280 -0.9051
13678SOL    HW248085   9.655   2.606   1.966  0.2433  0.0459 -1.3672
13679SOL     OW48086   9.917   6.425   8.754  0.3786  0.6179 -0.3261
13679SOL    HW148087   9.866   6.483   8.697  0.7902  1.6853  0.3676
13679SOL    HW248088   9.903   6.459   8.842 -0.1217 -0.9254  0.2122
13680SOL     OW48089   0.838   6.506   5.850 -0.2075 -0.0601  0.1762
13680SOL    HW148090   0.860   6.423   5.893  0.7662  0.2643  0.3296
13680SOL    HW248091   0.768   6.483   5.789 -0.5476 -0.8272  0.8307
13681SOL     OW48092   5.034   4.937  11.474 -0.1844 -0.5409 -0.0039
13681SOL    HW148093   4.940   4.917  11.485  0.0278 -1.8182 -0.3165
13681SOL    HW248094   5.075   4.897  11.550 -0.0237  1.3181  0.9363
13682SOL     OW48095   3.067   1.998   8.137 -0.8120  0.5451 -0.1997
13682SOL    HW148096   2.996   2.062   8.142 -1.6643 -0.2895 -1.2749
13682SOL    HW248097   3.028   1.921   8.097  0.8953  0.3264 -1.5864
13683SOL     OW48098  12.095   8.458   9.972  0.8469 -0.6817 -0.0523
13683SOL    HW148099  12.101   8.415  10.057 -1.5549  0.4710  0.7887
13683SOL    HW248100  12.027   8.524   9.983  0.0603 -0.8546 -3.0259
13684SOL     OW48101   1.153   8.651   2.459  0.4264 -0.0089  0.2997
13684SOL    HW148102   1.223   8.587   2.471 -0.9459 -1.4715  0.8996
13684SOL    HW248103   1.198   8.735   2.454  2.2740 -0.9855 -0.2698
13685SOL     OW48104  11.542  10.142   6.291  0.0137 -0.1650  0.1331
13685SOL    HW148105  11.501  10.104   6.213 -0.5642  0.3600  0.1669
13685SOL    HW248106  11.623  10.181   6.258 -1.2020  1.8762 -0.6442
13686SOL     OW48107   6.805   2.246   8.887  0.5642  0.2237  0.2117
13686SOL    HW148108   6.787   2.186   8.815  0.0581  1.0189 -0.3464
13686SOL    HW248109   6.873   2.202   8.939 -0.7162 -1.4211  0.5711
13687SOL     OW48110   4.569   8.532   4.677 -0.3182  0.2604  0.1078
13687SOL    HW148111   4.485   8.540   4.633 -0.6281  1.1458  0.8140
13687SOL    HW248112   4.555   8.570   4.764  0.8860  0.7348  0.1270
13688SOL     OW48113   8.844   1.418   0.576  0.2236  0.6404 -0.0508
13688SOL    HW148114   8.817   1.471   0.651 -1.2209  0.8055 -0.6652
13688SOL    HW248115   8.782   1.345   0.574  1.1461 -0.1696 -0.2439
13689SOL     OW48116   2.907   1.207  10.269 -1.0170 -0.4824  0.6999
13689SOL    HW148117   2.956   1.250  10.339  2.3232 -0.7863 -1.2755
13689SOL    HW248118   2.917   1.113  10.287 -1.6622 -0.5430  0.7632
13690SOL     OW48119   1.360  10.363   1.475  0.0679 -0.5469  0.4051
13690SOL    HW148120   1.274  10.384   1.511 -0.0470 -0.8392  0.2959
13690SOL    HW248121   1.366  10.417   1.396  0.8137  1.0433  1.4817
13691SOL     OW48122   7.011   8.015   6.623  0.3205  0.2517  0.1961
13691SOL    HW148123   7.048   8.095   6.661 -2.6077  1.4428  0.8291
13691SOL    HW248124   6.999   8.036   6.531 -0.9761  0.8058  0.4725
13692SOL     OW48125  11.628   7.951   2.479  0.3820  0.6336 -0.1826
13692SOL    HW148126  11.553   7.998   2.515 -0.0620 -0.7059  0.6873
13692SOL    HW248127  11.599   7.921   2.393  0.5269  1.5761 -0.5683
13693SOL     OW48128   8.755   9.335   8.126  0.1723 -0.7920  0.0620
13693SOL    HW148129   8.666   9.344   8.158  0.4732  0.5825  0.6245
13693SOL    HW248130   8.778   9.422   8.094  1.3648 -1.0739  0.0820
13694SOL     OW48131   4.721   2.216  10.673 -0.2732  0.2185 -0.2561
13694SOL    HW148132   4.741   2.184  10.584 -1.2233  1.9268 -1.1217
13694SOL    HW248133   4.806   2.245  10.707 -0.1369  1.0345 -1.2439
13695SOL     OW48134   1.429   3.017   1.897  0.3883 -0.0319 -0.9395
13695SOL    HW148135   1.338   3.032   1.920  0.5478 -0.6945  0.2105
13695SOL    HW248136   1.428   3.003   1.802 -0.7641 -0.4945 -0.8755
13696SOL     OW48137   4.984   1.748   5.573  0.0938 -0.0244 -0.0022
13696SOL    HW148138   5.050   1.791   5.628 -0.2853 -0.3655  0.7308
13696SOL    HW248139   5.033   1.717   5.497  0.5732  0.7225 -0.0083
13697SOL     OW48140   6.186   8.966   0.064  0.1297 -0.1659  0.4564
13697SOL    HW148141   6.268   8.916   0.068  0.8295  0.9958  0.8719
13697SOL    HW248142   6.189   9.009  -0.021  1.0646  1.6845  1.3646
13698SOL     OW48143   4.932   3.265   3.298  0.7994 -0.1426 -0.0962
13698SOL    HW148144   4.855   3.212   3.316  0.2406  1.0055  1.0545
13698SOL    HW248145   5.005   3.203   3.297 -0.0151 -1.1194 -0.3422
13699SOL     OW48146   0.345   5.060  10.214  0.0610 -0.1201 -0.2063
13699SOL    HW148147   0.289   5.074  10.291  1.1154  0.4027  0.4944
13699SOL    HW248148   0.398   4.983  10.237  1.3514  0.8515  0.2101
13700SOL     OW48149   5.053   3.019   0.094 -0.2931  0.1855  0.3560
13700SOL    HW148150   5.063   2.928   0.121 -1.1885  0.0539  0.2747
13700SOL    HW248151   5.137   3.042   0.055  0.1228 -0.4307  0.8911
13701SOL     OW48152   6.671  10.590  10.230  0.5900 -0.1687 -0.2508
13701SOL    HW148153   6.616  10.667  10.247  0.0573 -0.4920 -0.4832
13701SOL    HW248154   6.685  10.592  10.135  1.0295 -0.0557 -0.1832
13702SOL     OW48155   9.950   5.617   3.267 -0.1938  0.4222 -0.7625
13702SOL    HW148156   9.950   5.587   3.359 -2.4045 -3.1715 -1.6871
13702SOL    HW248157  10.040   5.604   3.237 -0.1807 -1.7969  0.0510
13703SOL     OW48158  12.201  11.099   5.686  0.2921  0.3998 -0.2933
13703SOL    HW148159  12.123  11.086   5.740  0.7910 -2.1976 -0.0314
13703SOL    HW248160  12.274  11.080   5.745  0.8779 -1.8369 -1.6030
13704SOL     OW48161   6.074   3.496  10.904 -0.0167  0.6299 -0.1417
13704SOL    HW148162   6.149   3.452  10.864 -0.5256  0.3782 -0.8306
13704SOL    HW248163   6.089   3.589  10.884  0.5965  0.6911  0.5491
13705SOL     OW48164   1.386   3.310   8.779  0.5020  0.3025 -0.2067
13705SOL    HW148165   1.373   3.346   8.691 -0.5941  0.9592  0.2029
13705SOL    HW248166   1.457   3.362   8.816 -0.4415  1.4494  0.0417
13706SOL     OW48167   8.270   6.690  10.515  0.2225  0.3486 -0.0112
13706SOL    HW148168   8.311   6.610  10.547  0.0769  0.2711 -0.0199
13706SOL    HW248169   8.324   6.761  10.551  1.4470  0.2118 -1.4898
13707SOL     OW48170   5.264   2.505   1.693  0.4097  0.7040 -0.2393
13707SOL    HW148171   5.203   2.447   1.740  1.7132  0.6674  1.5062
13707SOL    HW248172   5.227   2.512   1.605 -1.9044  0.3918  0.6443
13708SOL     OW48173   2.363   3.975   0.201  0.2635  0.1714  0.1608
13708SOL    HW148174   2.334   4.046   0.143 -1.9573 -1.8447 -1.4090
13708SOL    HW248175   2.442   3.940   0.158 -0.0161  0.1875 -0.3737
13709SOL     OW48176   0.755  11.362  12.277  0.3383  0.3819 -0.2189
13709SOL    HW148177   0.768  11.407  12.193  0.2732  1.5980  0.4016
13709SOL    HW248178   0.820  11.402  12.336  0.0326 -0.0861  0.4423
13710SOL     OW48179   2.633  10.467   3.027 -0.3007  0.2477 -0.2220
13710SOL    HW148180   2.668  10.434   2.944  0.1061  0.5769 -0.1834
13710SOL    HW248181   2.702  10.524   3.061 -0.4883  0.1551  0.3168
13711SOL     OW48182   8.530  11.258   8.433  0.1127 -0.6355 -0.8335
13711SOL    HW148183   8.532  11.249   8.528  1.3219  0.1415 -0.7559
13711SOL    HW248184   8.621  11.276   8.409 -0.2986 -0.0363 -2.0510
13712SOL     OW48185   7.780   6.720   3.510  0.1778 -0.2028 -0.0719
13712SOL    HW148186   7.687   6.699   3.522  0.4849 -2.1522 -0.6097
13712SOL    HW248187   7.822   6.691   3.591 -0.0278  3.9121  1.7050
13713SOL     OW48188   9.788   3.065   4.978  0.4945  0.0137  0.3155
13713SOL    HW148189   9.698   3.034   4.988  0.0492  0.8835 -0.7842
13713SOL    HW248190   9.781   3.160   4.975  1.4968  0.1061  0.6178
13714SOL     OW48191   7.040   0.047  11.540  0.3600  0.2813  0.5503
13714SOL    HW148192   7.095   0.114  11.581  0.0764  0.4237  0.7008
13714SOL    HW248193   7.102  -0.013  11.499  0.6130  0.7554  0.2264
13715SOL     OW48194   6.437   2.328   1.247 -0.3845  0.1379 -0.1676
13715SOL    HW148195   6.473   2.243   1.218 -0.5443  0.0113  0.0047
13715SOL    HW248196   6.384   2.357   1.172 -1.2877 -0.4759  0.2111
13716SOL     OW48197   6.105   4.083  11.274  0.2133  0.4012 -0.1734
13716SOL    HW148198   6.035   4.142  11.244  0.6848  0.2604 -1.6351
13716SOL    HW248199   6.069   3.995  11.261  0.5887  0.3321 -0.7987
13717SOL     OW48200   8.507   4.285   0.755 -0.0083  0.0014 -0.1925
13717SOL    HW148201   8.564   4.213   0.726  0.5286  0.9602 -1.6185
13717SOL    HW248202   8.555   4.364   0.733 -0.0743  0.8509  2.4178
13718SOL     OW48203   9.852   6.611   2.669  0.0396 -0.3832 -0.1263
13718SOL    HW148204   9.816   6.682   2.617  0.9405 -1.0482 -1.7404
13718SOL    HW248205   9.830   6.532   2.619 -0.4279 -1.1943  1.3222
13719SOL     OW48206   1.751   0.542   8.107 -0.4162 -0.1092 -0.7397
13719SOL    HW148207   1.817   0.480   8.137 -0.1487  1.5607  2.5945
13719SOL    HW248208   1.668   0.497   8.122 -0.2868  0.5717  2.7759
13720SOL     OW48209  11.535   7.580   6.452  0.0336 -0.7580  0.2823
13720SOL    HW148210  11.548   7.543   6.365  0.1154 -1.2429  0.4940
13720SOL    HW248211  11.577   7.666   6.449 -1.3231 -0.0992 -0.6242
13721SOL     OW48212   7.015  11.473   4.369  0.2798 -0.3689 -0.0831
13721SOL    HW148213   7.107  11.451   4.350  0.1242 -0.9816 -0.1555
13721SOL    HW248214   6.965  11.421   4.306 -0.0911  0.6634 -0.6637
13722SOL     OW48215   4.938   1.536   6.791  0.4193 -0.1933 -0.4782
13722SOL    HW148216   4.969   1.622   6.765 -1.3086  0.7909  0.5149
13722SOL    HW248217   4.991   1.513   6.867  0.0110  0.6175  0.0690
13723SOL     OW48218   5.329   8.623   9.623  0.5214 -0.1132  0.3193
13723SOL    HW148219   5.302   8.709   9.656 -0.1868 -1.0413  2.3460
13723SOL    HW248220   5.255   8.595   9.568 -0.1347 -0.2308  1.2399
13724SOL     OW48221  10.783  10.722   5.579  0.0324  0.0051 -0.6520
13724SOL    HW148222  10.711  10.722   5.516 -2.2846 -2.4534  1.7023
13724SOL    HW248223  10.790  10.631   5.607  0.9429  0.9148  2.5180
13725SOL     OW48224   9.940  11.647   1.813  0.1275 -0.3676 -0.7414
13725SOL    HW148225   9.861  11.701   1.800  0.5706  0.2380 -0.9658
13725SOL    HW248226  10.001  11.679   1.747  1.5419  1.0470  1.1556
13726SOL     OW48227   3.037   0.012  11.840  0.2846 -0.4656  0.4663
13726SOL    HW148228   2.991   0.058  11.769  3.8727 -0.5764 -2.1961
13726SOL    HW248229   3.047   0.079  11.908  1.0495  1.2921 -1.2610
13727SOL     OW48230  10.387  11.444   7.826 -0.6815  0.0504 -0.3984
13727SOL    HW148231  10.447  11.444   7.751  1.5762  0.0035  1.3083
13727SOL    HW248232  10.418  11.373   7.881 -4.5595 -2.3531 -0.9880
13728SOL     OW48233   2.989   8.746   1.662  0.3650  0.8992 -0.4775
13728SOL    HW148234   3.027   8.768   1.747 -0.0550  1.8416 -0.5150
13728SOL    HW248235   2.941   8.664   1.678  2.0325 -0.0882 -0.3427
13729SOL     OW48236  11.028   9.035   8.492  0.6012 -0.1921 -0.1560
13729SOL    HW148237  11.088   9.054   8.563 -0.3258 -0.1435  0.6321
13729SOL    HW248238  11.008   8.941   8.501 -0.9631  0.1858  0.8403
13730SOL     OW48239   8.311   2.971   7.272 -0.2197 -0.2265 -0.1491
13730SOL    HW148240   8.215   2.974   7.278 -0.2799  1.6929 -1.3550
13730SOL    HW248241   8.329   2.893   7.220 -1.0418 -1.2163  0.9945
13731SOL     OW48242   6.520   0.820   8.772 -0.1485  0.5949 -0.0782
13731SOL    HW148243   6.592   0.848   8.829  2.0651 -0.4090 -2.2193
13731SOL    HW248244   6.501   0.730   8.799  1.1922 -0.0324 -1.1070
13732SOL     OW48245   0.816   8.068  10.751 -0.1993 -0.0845 -0.5862
13732SOL    HW148246   0.729   8.029  10.741  0.1640 -0.7613 -1.1673
13732SOL    HW248247   0.807   8.156  10.714 -0.8278  0.1302  0.0509
13733SOL     OW48248   1.118   5.999   2.534 -0.1162 -0.2156 -0.1697
13733SOL    HW148249   1.088   6.090   2.542  0.1307 -0.1064 -0.4633
13733SOL    HW248250   1.208   6.006   2.503 -0.7251 -0.5763 -2.2509
13734SOL     OW48251  10.162  11.822  10.871 -0.5335 -0.2718 -0.4049
13734SOL    HW148252  10.153  11.915  10.851 -0.7801 -0.3982 -0.8907
13734SOL    HW248253  10.121  11.812  10.957  1.7724  0.5263  0.8554
13735SOL     OW48254   9.311   4.883  12.421 -0.1476 -0.3757 -0.4429
13735SOL    HW148255   9.349   4.896  12.333 -1.1511 -3.3175 -1.4208
13735SOL    HW248256   9.259   4.962  12.436 -0.5648 -0.0937 -2.8617
13736SOL     OW48257  11.290  12.156   9.936 -1.0987 -0.0472 -0.0414
13736SOL    HW148258  11.219  12.092   9.944 -1.6421  0.5162 -0.2898
13736SOL    HW248259  11.333  12.154  10.022 -0.7494 -1.1455 -0.2221
13737SOL     OW48260   4.540  10.841   8.668 -0.0622  0.3036  0.2893
13737SOL    HW148261   4.491  10.798   8.738 -0.4595  1.9602  1.0654
13737SOL    HW248262   4.513  10.795   8.588 -0.4637 -0.8663  1.0691
13738SOL     OW48263  12.079   3.604   2.148 -0.3257 -0.1197  0.0054
13738SOL    HW148264  12.080   3.589   2.054  0.8016 -0.8584  0.1100
13738SOL    HW248265  12.038   3.527   2.185 -2.1684  0.8340  0.0564
13739SOL     OW48266   4.072   2.520   6.472  0.2879 -0.1389  0.7937
13739SOL    HW148267   4.019   2.503   6.550 -0.5855 -0.0551  0.2368
13739SOL    HW248268   4.122   2.439   6.459 -0.6197 -0.6950  0.6387
13740SOL     OW48269   9.273   1.324   1.234  0.3557 -0.2195  0.3221
13740SOL    HW148270   9.309   1.236   1.250 -0.7521 -0.8154 -0.3590
13740SOL    HW248271   9.340   1.368   1.183 -0.5664 -1.9616 -2.5934
13741SOL     OW48272  10.135   4.931   7.065  0.2333  0.1896 -0.0989
13741SOL    HW148273  10.164   4.975   6.985  0.6655  0.6236  0.2876
13741SOL    HW248274  10.041   4.949   7.070 -0.7374 -3.1593 -2.6042
13742SOL     OW48275   0.086   5.828   5.331 -0.0462  0.2719  0.2774
13742SOL    HW148276   0.042   5.846   5.414  1.8713  1.8682  1.0422
13742SOL    HW248277   0.045   5.887   5.268 -2.3009 -1.7532 -0.2735
13743SOL     OW48278   8.419   7.249   1.580 -0.3916  0.3595  0.0048
13743SOL    HW148279   8.377   7.333   1.599 -0.4194 -0.0362  1.8617
13743SOL    HW248280   8.346   7.188   1.570 -0.3680  0.5107 -1.2687
13744SOL     OW48281   2.865   2.057   6.825 -0.2508  0.0332 -0.3812
13744SOL    HW148282   2.869   1.986   6.761  2.2091 -0.5725  0.3128
13744SOL    HW248283   2.917   2.025   6.899 -0.3253  1.9758  0.5661
13745SOL     OW48284   5.541   3.162   7.442 -0.2538  0.2622  0.1058
13745SOL    HW148285   5.562   3.080   7.486 -0.0411 -0.2738 -0.9572
13745SOL    HW248286   5.602   3.226   7.478  1.2361 -0.5953 -0.7704
13746SOL     OW48287   1.614   7.170   1.065 -0.0329  0.6103 -0.0681
13746SOL    HW148288   1.582   7.185   0.976  0.3054  0.4158 -0.2255
13746SOL    HW248289   1.535   7.171   1.119 -0.6051 -2.0031 -0.7177
13747SOL     OW48290   4.653   8.243   4.051  0.8350  0.1626 -0.3242
13747SOL    HW148291   4.743   8.271   4.038  0.9856 -0.4015 -0.5234
13747SOL    HW248292   4.601   8.322   4.035  1.3092  0.5589  0.0938
13748SOL     OW48293   4.592   6.208   5.030  0.7225  0.0007  0.0731
13748SOL    HW148294   4.616   6.282   5.086 -3.8605  1.0539  1.1004
13748SOL    HW248295   4.613   6.238   4.942  2.5395  0.8689  0.7560
13749SOL     OW48296   8.122   1.959   7.821  0.2669 -0.6169 -0.5625
13749SOL    HW148297   8.034   1.977   7.787 -0.2544  0.6538  1.3219
13749SOL    HW248298   8.110   1.885   7.880 -0.1985  1.3259  1.9572
13750SOL     OW48299   5.013   5.795   7.906 -0.4243  0.2488  0.0614
13750SOL    HW148300   4.963   5.753   7.976  1.0992 -0.7343  0.6108
13750SOL    HW248301   4.949   5.846   7.858 -1.5283  0.9788  2.1923
13751SOL     OW48302   3.903   3.480  11.995 -0.0682  0.5575  0.1933
13751SOL    HW148303   3.926   3.573  11.999 -0.2408  0.6200 -0.2177
13751SOL    HW248304   3.933   3.444  12.079  1.2249  0.6926 -0.1976
13752SOL     OW48305   2.346  11.643   6.667  0.3106 -0.1942  0.2027
13752SOL    HW148306   2.318  11.618   6.755  1.7362  1.3572  1.1496
13752SOL    HW248307   2.282  11.709   6.640  0.7866  0.4984  0.7478
13753SOL     OW48308   2.736   0.347   8.850  0.0719  0.1600  0.5246
13753SOL    HW148309   2.742   0.262   8.892 -1.0994 -0.5584 -0.6929
13753SOL    HW248310   2.652   0.346   8.805 -0.6993  2.5630  1.7401
13754SOL     OW48311   6.669  10.289   8.773 -0.2669  0.5461  0.2857
13754SOL    HW148312   6.635  10.310   8.686 -1.2642 -0.9867  0.2792
13754SOL    HW248313   6.681  10.194   8.772 -0.5411  0.4718  1.9010
13755SOL     OW48314   7.254   8.257   7.235 -0.7045 -0.3734  0.4486
13755SOL    HW148315   7.227   8.314   7.164  0.6376 -1.8947 -1.3885
13755SOL    HW248316   7.262   8.315   7.311 -0.8282  1.5601 -0.9475
13756SOL     OW48317   3.168  12.357   6.372  0.1972  0.1753 -0.5502
13756SOL    HW148318   3.158  12.401   6.287  1.0003 -2.1326 -1.9065
13756SOL    HW248319   3.103  12.287   6.370  0.6580 -0.2868  0.5045
13757SOL     OW48320   5.748  11.007   2.733 -0.2933  0.2064  0.3001
13757SOL    HW148321   5.816  10.984   2.796 -0.6676  0.2860  0.7388
13757SOL    HW248322   5.795  11.024   2.651  0.1863  0.0184  0.5373
13758SOL     OW48323  12.097  10.807   5.253 -0.0529 -0.4651 -0.4210
13758SOL    HW148324  12.076  10.786   5.162  2.3126 -3.1393 -0.4842
13758SOL    HW248325  12.132  10.726   5.288 -0.0914  0.7434  2.6756
13759SOL     OW48326   1.559   7.728   7.818  0.5817  0.1732  0.2180
13759SOL    HW148327   1.565   7.823   7.824  1.0229  0.1408  0.2921
13759SOL    HW248328   1.573   7.697   7.908 -0.1518  0.0673  0.3009
13760SOL     OW48329  10.892   8.022   9.235  0.2330 -0.6215  0.0163
13760SOL    HW148330  10.964   8.034   9.173  0.2172  0.3387  0.1679
13760SOL    HW248331  10.883   7.928   9.244  0.0660 -0.7958 -1.6566
13761SOL     OW48332   2.016   8.113   4.600 -0.4876  0.8249  0.1416
13761SOL    HW148333   2.106   8.092   4.623 -0.5113  0.5544 -0.0107
13761SOL    HW248334   1.970   8.115   4.684 -0.6143 -0.3486  0.1122
13762SOL     OW48335   7.404  10.123   8.091 -0.4175  0.0906  0.8769
13762SOL    HW148336   7.448  10.042   8.065  0.1971  0.0918  1.8613
13762SOL    HW248337   7.363  10.155   8.010 -2.2224 -2.1407  0.8009
13763SOL     OW48338   9.460  11.589   7.564 -0.0614 -0.3473 -0.0461
13763SOL    HW148339   9.429  11.671   7.525  1.7419  0.4489  0.0780
13763SOL    HW248340   9.539  11.614   7.611  0.0034 -2.0166  0.7903
13764SOL     OW48341   6.289  11.419   5.004 -0.2206 -0.0646 -0.3315
13764SOL    HW148342   6.309  11.488   5.067  0.0264  0.0491 -0.5363
13764SOL    HW248343   6.206  11.382   5.036 -0.7275  0.7938 -0.6212
13765SOL     OW48344  12.336  12.016   7.973 -0.3823 -0.3960  0.2683
13765SOL    HW148345  12.311  12.068   8.049 -0.9503 -0.0943 -0.1178
13765SOL    HW248346  12.295  12.060   7.899  1.0374 -0.0617 -0.3591
13766SOL     OW48347  10.683   9.936   5.435  0.0583  0.0932  0.6464
13766SOL    HW148348  10.614   9.921   5.370 -0.5842 -1.7684  1.6915
13766SOL    HW248349  10.749   9.870   5.416 -0.4769 -0.9889  2.2590
13767SOL     OW48350  11.127   6.686  10.442 -0.0249  0.2733  0.4660
13767SOL    HW148351  11.062   6.727  10.498 -0.3241  1.1827 -0.5299
13767SOL    HW248352  11.197   6.658  10.502  0.1423  2.1377  1.1772
13768SOL     OW48353   4.490   8.111   8.725  0.7075 -0.1910 -0.2030
13768SOL    HW148354   4.477   8.082   8.635 -0.1922  0.1389 -0.1862
13768SOL    HW248355   4.421   8.067   8.775  1.5883 -0.8821  0.4450
13769SOL     OW48356   4.355  11.797   1.914  0.7512  0.0636  0.0994
13769SOL    HW148357   4.430  11.846   1.949  1.8357 -0.5089 -1.3148
13769SOL    HW248358   4.280  11.851   1.935  1.7912  1.7576 -0.3363
13770SOL     OW48359   9.193   0.456   6.215 -0.8919 -0.5058  0.0424
13770SOL    HW148360   9.260   0.511   6.174  0.3619 -1.8569  0.2220
13770SOL    HW248361   9.110   0.497   6.190 -0.0226  1.1221 -0.3079
13771SOL     OW48362   6.376   4.503   0.690  0.3638  0.2614  0.0161
13771SOL    HW148363   6.314   4.559   0.737  1.1738  0.5485  0.7727
13771SOL    HW248364   6.345   4.504   0.599 -2.1612 -1.5130  0.7275
13772SOL     OW48365   4.968   0.451   2.752  0.7069 -0.1121  0.2284
13772SOL    HW148366   4.953   0.431   2.844  1.6872  0.6978  0.5881
13772SOL    HW248367   5.062   0.437   2.740  1.0941  2.2792  0.0384
13773SOL     OW48368   2.669  11.434   5.553 -0.5441 -0.6069 -0.4671
13773SOL    HW148369   2.706  11.416   5.467 -1.0553  0.4167 -0.9094
13773SOL    HW248370   2.706  11.518   5.578  2.2314 -2.3171  1.8115
13774SOL     OW48371   8.660   9.405   4.359 -0.1562  0.4137  0.6886
13774SOL    HW148372   8.682   9.496   4.341 -2.0052  0.6520 -0.6362
13774SOL    HW248373   8.597   9.409   4.431 -0.8187  0.2572  0.1271
13775SOL     OW48374  11.776  11.023   3.740 -0.8314  0.1157 -0.0629
13775SOL    HW148375  11.797  10.936   3.774  3.4906 -0.7691 -3.8859
13775SOL    HW248376  11.851  11.077   3.763 -1.3821  1.5616 -1.4241
13776SOL     OW48377  10.030  10.142   3.182 -0.2062 -0.2665  0.3556
13776SOL    HW148378  10.064  10.218   3.134  0.2199 -0.4808  0.3142
13776SOL    HW248379   9.958  10.109   3.127  0.5981 -0.8042 -0.3999
13777SOL     OW48380   3.942  12.278   6.059 -0.1941  0.3043  0.4434
13777SOL    HW148381   4.008  12.271   6.128 -0.5669  0.2048  0.7975
13777SOL    HW248382   3.952  12.199   6.007 -0.2229  0.1518  0.6683
13778SOL     OW48383   2.487   2.786   5.173 -0.1583  0.1719  0.6506
13778SOL    HW148384   2.536   2.811   5.095  1.5308 -0.3524  1.4893
13778SOL    HW248385   2.502   2.858   5.235 -0.3325 -0.0701  0.9778
13779SOL     OW48386   7.787   0.613   1.377 -0.8078  0.1802 -0.1210
13779SOL    HW148387   7.773   0.525   1.410 -1.4538 -0.3265 -1.6653
13779SOL    HW248388   7.745   0.614   1.291 -1.5264  2.2312  0.1866
13780SOL     OW48389   6.242  12.372   5.697  0.1394 -0.0799 -0.4261
13780SOL    HW148390   6.226  12.278   5.708 -2.1783 -0.0430 -2.5295
13780SOL    HW248391   6.327  12.387   5.737 -0.0485 -2.7985  1.2302
13781SOL     OW48392   4.613   9.918   0.907  0.3772  0.2353  0.5440
13781SOL    HW148393   4.609   9.961   0.993  0.0339  1.4643 -0.0568
13781SOL    HW248394   4.589   9.987   0.845  3.1125  0.1148 -0.7837
13782SOL     OW48395   7.984   2.604   6.606 -0.3400  0.1521 -0.0559
13782SOL    HW148396   7.914   2.668   6.591 -0.1428  0.2350 -0.6274
13782SOL    HW248397   8.002   2.611   6.700 -0.8632  0.3736  0.0360
13783SOL     OW48398   4.192   7.553   9.424 -0.0585 -0.3587  0.4594
13783SOL    HW148399   4.198   7.647   9.438  1.2308  0.0399 -2.2566
13783SOL    HW248400   4.280   7.520   9.439 -0.4563 -1.1479  1.2001
13784SOL     OW48401   1.345   6.468  11.485  0.4963  0.8230 -0.0634
13784SOL    HW148402   1.382   6.556  11.498  1.0143  0.3808  1.8661
13784SOL    HW248403   1.336   6.433  11.574 -1.7281 -0.2832 -0.6336
13785SOL     OW48404   3.579  11.641   8.731 -0.0640 -0.4738  0.1444
13785SOL    HW148405   3.611  11.710   8.788 -0.5058  0.4556 -0.6911
13785SOL    HW248406   3.639  11.640   8.657 -1.3185  0.6048 -0.9495
13786SOL     OW48407   1.943   9.409   5.743 -0.0115  0.0346  0.5612
13786SOL    HW148408   1.943   9.338   5.807  0.0631  0.2075  0.7572
13786SOL    HW248409   1.916   9.486   5.793  0.5177  0.2706  0.5013
13787SOL     OW48410   3.999   1.115   7.976 -0.0905  0.1786  0.5521
13787SOL    HW148411   4.087   1.077   7.984 -0.2472 -0.1531  0.7366
13787SOL    HW248412   3.970   1.089   7.888 -0.8950 -1.6705  1.3107
13788SOL     OW48413   8.149  10.268  10.662  0.4533 -0.1227 -0.2240
13788SOL    HW148414   8.209  10.227  10.599  1.7863  2.1811 -0.5442
13788SOL    HW248415   8.185  10.244  10.747  0.6538 -0.3918 -0.3791
13789SOL     OW48416   1.905   6.169   5.877 -0.0724 -0.3468 -0.2086
13789SOL    HW148417   1.904   6.155   5.782  0.3202 -3.2739  0.1288
13789SOL    HW248418   1.841   6.239   5.892 -0.2491  0.0869 -2.5921
13790SOL     OW48419   1.343   6.725   5.676  0.0455  0.0550 -0.1277
13790SOL    HW148420   1.404   6.651   5.673 -1.9098 -1.6612 -0.0478
13790SOL    HW248421   1.291   6.710   5.755  0.7423  2.5566  0.8933
13791SOL     OW48422   0.418   3.404   4.790 -0.1991 -0.7559 -0.3747
13791SOL    HW148423   0.328   3.402   4.756 -0.2942  0.4885 -0.2290
13791SOL    HW248424   0.473   3.397   4.712 -0.4282  0.2693 -0.6533
13792SOL     OW48425   2.315   8.928   5.276 -0.1848 -0.6083  0.3154
13792SOL    HW148426   2.362   8.955   5.355 -0.5428 -1.4949  0.8470
13792SOL    HW248427   2.281   8.841   5.297 -0.4717 -0.7617 -0.7422
13793SOL     OW48428   1.487   3.515   1.782  0.0363  0.4977 -0.2141
13793SOL    HW148429   1.469   3.422   1.768  0.7194 -0.1708  2.6486
13793SOL    HW248430   1.499   3.550   1.694  3.0616 -2.8070 -1.3848
13794SOL     OW48431  10.072   5.664   6.388  0.8705  0.4116 -0.2236
13794SOL    HW148432  10.133   5.682   6.316 -0.5798  0.0056 -1.6316
13794SOL    HW248433  10.127   5.642   6.462  2.4314  0.2991 -1.3693
13795SOL     OW48434   9.832   8.750   8.779  0.1844 -0.5126 -0.3473
13795SOL    HW148435   9.808   8.790   8.862  0.0848 -0.7693 -0.2505
13795SOL    HW248436   9.769   8.785   8.716  0.0681 -0.5542 -0.2538
13796SOL     OW48437  10.888   7.161   4.201 -0.4126  0.2157 -0.4059
13796SOL    HW148438  10.912   7.071   4.221 -2.7921 -0.1945  0.9592
13796SOL    HW248439  10.877   7.162   4.106  0.4748 -0.6886 -0.5357
13797SOL     OW48440   6.307  10.471   9.512 -0.5405  0.6123 -0.0093
13797SOL    HW148441   6.249  10.547   9.511 -1.0446  0.2673  1.0411
13797SOL    HW248442   6.368  10.489   9.584 -0.4640  0.1731  0.0397
13798SOL     OW48443   4.975   8.615  10.627 -0.5032  0.3025  0.2585
13798SOL    HW148444   4.981   8.535  10.575  0.7050  0.4840  0.0893
13798SOL    HW248445   4.906   8.666  10.585  1.0217  0.8389 -1.7681
13799SOL     OW48446   1.589   7.186   9.125 -0.2370  0.0516 -0.1448
13799SOL    HW148447   1.535   7.121   9.171 -0.8167  1.1170  0.7492
13799SOL    HW248448   1.529   7.227   9.064 -0.2023  0.5929  0.1808
13800SOL     OW48449   4.648   8.896  11.442 -0.0038  0.1622  0.1094
13800SOL    HW148450   4.646   8.977  11.492 -0.2671 -1.1646  2.3738
13800SOL    HW248451   4.567   8.898  11.391 -1.0097  0.4743  1.6376
13801SOL     OW48452   6.953  10.367   1.987 -0.0472 -0.0753 -0.2240
13801SOL    HW148453   7.025  10.363   2.051 -1.1552 -0.0513  1.0676
13801SOL    HW248454   6.981  10.309   1.916  2.0110  1.2802 -0.5945
13802SOL     OW48455   0.834   0.137   2.149 -0.3945 -0.8764 -0.6039
13802SOL    HW148456   0.927   0.137   2.169 -0.5783  1.0310  0.4570
13802SOL    HW248457   0.796   0.076   2.212 -0.1689  0.3366  0.7395
13803SOL     OW48458   1.249   0.478   0.996  0.2833 -0.2257 -0.6362
13803SOL    HW148459   1.234   0.560   1.042  0.3483  1.1466 -2.9337
13803SOL    HW248460   1.161   0.446   0.974  0.1018 -2.0346  2.1248
13804SOL     OW48461   9.254   8.595   8.013 -0.0574  0.2953  0.1677
13804SOL    HW148462   9.165   8.595   8.047 -1.1156 -1.0052 -2.3409
13804SOL    HW248463   9.275   8.688   8.002 -0.7440  0.6465  1.5672
13805SOL     OW48464  10.557   5.574   0.643 -0.2824 -0.4563  0.2502
13805SOL    HW148465  10.482   5.582   0.702 -0.8160 -0.1339 -0.4461
13805SOL    HW248466  10.629   5.618   0.688  0.0629 -2.4647  1.8102
13806SOL     OW48467   6.113   0.963   8.366  0.0534  0.3717 -0.0815
13806SOL    HW148468   6.064   0.900   8.314 -1.7911  1.0558  0.7408
13806SOL    HW248469   6.181   0.995   8.307  0.9201 -2.1588 -0.5987
13807SOL     OW48470   7.527   6.187   9.744  0.2641 -0.7402  0.3926
13807SOL    HW148471   7.555   6.096   9.729  3.3658 -0.0077  0.9120
13807SOL    HW248472   7.512   6.223   9.657  1.3081 -1.1474  0.0314
13808SOL     OW48473   2.085   2.813   4.811 -0.3228 -0.1344 -0.3024
13808SOL    HW148474   2.142   2.889   4.798 -0.6828  0.3143  0.6826
13808SOL    HW248475   1.996   2.849   4.805 -0.6039  0.2879  3.6605
13809SOL     OW48476   9.648   9.436  11.159  0.4240  0.6325 -0.3355
13809SOL    HW148477   9.589   9.435  11.234  2.8222  0.0273  1.6770
13809SOL    HW248478   9.631   9.520  11.117 -2.7574 -0.0651 -0.7118
13810SOL     OW48479   5.917  11.633   8.166 -0.0650 -0.3317  0.0362
13810SOL    HW148480   5.836  11.675   8.138  0.6584  0.2921 -1.1953
13810SOL    HW248481   5.916  11.639   8.262 -0.0021  2.4955 -0.0661
13811SOL     OW48482   0.075   5.713   0.394  0.1931 -0.8579  0.6766
13811SOL    HW148483   0.035   5.646   0.338  0.5912 -0.0600 -0.6173
13811SOL    HW248484   0.015   5.787   0.389  1.3489  0.0523 -0.6108
13812SOL     OW48485  10.313  10.659   6.660 -0.0504 -0.0148  0.0791
13812SOL    HW148486  10.311  10.724   6.730  0.2658 -0.7228  0.7532
13812SOL    HW248487  10.397  10.615   6.670  1.3946  1.8440 -2.5960
13813SOL     OW48488  10.062   3.814  10.063 -0.1665 -0.0653  0.9046
13813SOL    HW148489  10.065   3.770   9.978  1.1794  0.5324  0.6219
13813SOL    HW248490   9.969   3.822  10.082 -0.4716 -1.0700 -0.0580
13814SOL     OW48491   9.661   8.603  10.409 -0.4483 -0.2254 -0.4610
13814SOL    HW148492   9.617   8.646  10.482 -0.6916  0.9361 -1.2665
13814SOL    HW248493   9.664   8.669  10.340  0.9565 -0.8625 -1.0584
13815SOL     OW48494   8.295  10.987   0.146  0.2011 -0.2488 -0.3574
13815SOL    HW148495   8.293  10.892   0.137  0.8311 -0.3934  0.8135
13815SOL    HW248496   8.243  11.020   0.072 -0.3225 -1.5078 -0.5670
13816SOL     OW48497   8.583   4.403   0.044 -0.7143 -0.1763 -0.7101
13816SOL    HW148498   8.602   4.495   0.064 -2.7218  0.5355 -1.8078
13816SOL    HW248499   8.586   4.359   0.129 -0.9468  1.1413  0.0112
13817SOL     OW48500   3.355  10.807   3.786 -0.5193  0.0421 -0.0452
13817SOL    HW148501   3.403  10.741   3.735 -1.7625 -0.7914 -0.1572
13817SOL    HW248502   3.340  10.878   3.723  0.4609  0.2784 -0.0361
13818SOL     OW48503   6.955   3.178  12.145 -0.5297  0.4060 -0.4558
13818SOL    HW148504   6.861   3.160  12.144 -0.3016 -1.0128  0.7020
13818SOL    HW248505   6.971   3.221  12.229  0.2121 -1.6820  0.5212
13819SOL     OW48506   6.165   0.460   2.605 -0.2981 -0.0255 -0.1228
13819SOL    HW148507   6.070   0.450   2.617 -0.5902  3.4080  1.7817
13819SOL    HW248508   6.204   0.422   2.684 -0.3565  0.9125  0.3793
13820SOL     OW48509   3.246   2.199   6.856 -0.5633 -0.2877  1.0932
13820SOL    HW148510   3.306   2.214   6.929  0.0241 -1.6302  0.9124
13820SOL    HW248511   3.204   2.283   6.842 -1.0727 -0.0932  3.3262
13821SOL     OW48512   4.766   9.104   9.052 -0.2812  0.3511 -0.2551
13821SOL    HW148513   4.780   9.191   9.014 -0.5930 -0.0727 -1.3873
13821SOL    HW248514   4.826   9.101   9.127 -0.0061  1.4067 -0.4098
13822SOL     OW48515   7.784   3.046  10.550 -0.7006 -0.4412  0.6518
13822SOL    HW148516   7.728   2.986  10.598 -0.2219 -1.1534  0.3481
13822SOL    HW248517   7.757   3.036  10.458  1.1044 -2.2199  0.2189
13823SOL     OW48518  12.406   0.530   2.358 -0.6301 -0.1800 -0.0258
13823SOL    HW148519  12.466   0.456   2.351  0.3420  0.6533 -0.9924
13823SOL    HW248520  12.384   0.552   2.268 -0.7047  0.8562  0.2291
13824SOL     OW48521   0.757   6.528  10.936 -0.3919 -0.5641  0.2863
13824SOL    HW148522   0.666   6.555  10.950 -0.2944 -0.6955  1.2661
13824SOL    HW248523   0.808   6.586  10.991  0.1297 -0.4704 -0.2884
13825SOL     OW48524   8.842   0.532   0.323  0.0793  0.0492 -0.4248
13825SOL    HW148525   8.817   0.496   0.408  0.3431 -0.3432 -0.5084
13825SOL    HW248526   8.937   0.545   0.329  0.2068 -0.6035 -0.8777
13826SOL     OW48527   8.776   9.126  11.497 -0.0781  0.0252 -0.2826
13826SOL    HW148528   8.830   9.106  11.420 -0.2302 -2.7258  0.2075
13826SOL    HW248529   8.837   9.163  11.560  0.2956  1.1569 -1.2731
13827SOL     OW48530  12.539  12.113  12.465  0.3736 -0.3069  0.3010
13827SOL    HW148531  12.529  12.120  12.560 -0.6127 -0.5092  0.2242
13827SOL    HW248532  12.501  12.028  12.443  0.5318 -0.2285 -0.2886
13828SOL     OW48533  12.127  10.658   8.568 -0.1680 -0.7089  0.4552
13828SOL    HW148534  12.202  10.715   8.589 -0.2209 -0.4913  0.0683
13828SOL    HW248535  12.109  10.612   8.649  0.1010 -0.4268  0.6796
13829SOL     OW48536   5.375  10.639  10.848 -0.3814  0.3070  0.0474
13829SOL    HW148537   5.395  10.641  10.755  5.9478 -2.5567  0.8316
13829SOL    HW248538   5.409  10.722  10.882 -0.5854  0.3654  0.1137
13830SOL     OW48539   9.554   8.511  12.059 -0.4623 -0.2530 -0.4090
13830SOL    HW148540   9.508   8.530  11.977 -0.8460 -2.0925 -0.6700
13830SOL    HW248541   9.616   8.583  12.069  0.2385 -0.4385 -2.8153
13831SOL     OW48542  12.529   8.208   6.788 -0.5802  0.0173 -0.6245
13831SOL    HW148543  12.588   8.204   6.863 -0.1606 -0.9804 -0.9829
13831SOL    HW248544  12.444   8.179   6.822 -0.7086  0.7873 -0.2641
13832SOL     OW48545  10.875   0.478   6.233  0.5458  0.2105  0.3134
13832SOL    HW148546  10.894   0.563   6.273  1.1486  0.8247 -1.1895
13832SOL    HW248547  10.886   0.493   6.139 -2.0624 -0.8151 -0.2504
13833SOL     OW48548   8.421   8.179   8.914  0.2388  0.9916  0.0407
13833SOL    HW148549   8.332   8.146   8.906  0.4158  0.3573  0.6358
13833SOL    HW248550   8.416   8.247   8.982  0.0651  1.5156 -0.4860
13834SOL     OW48551   1.469   5.295   1.260 -0.1154 -0.1523 -0.1180
13834SOL    HW148552   1.519   5.217   1.281  0.4403 -0.2154 -1.5799
13834SOL    HW248553   1.534   5.361   1.237 -0.4831  1.2519  2.4903
13835SOL     OW48554  12.510   8.774   2.804 -1.1422  0.3567 -0.2344
13835SOL    HW148555  12.564   8.851   2.788 -0.1206 -0.2288  0.2471
13835SOL    HW248556  12.468   8.755   2.720 -1.5601  1.5254 -0.3132
13836SOL     OW48557   4.180   3.014   4.663  0.4666  0.4058 -0.2125
13836SOL    HW148558   4.264   3.060   4.655  0.9229 -0.4127 -0.1785
13836SOL    HW248559   4.203   2.928   4.699 -0.1084 -0.7317 -2.4330
13837SOL     OW48560   4.138   6.257   9.657  0.4940  0.1083 -0.2188
13837SOL    HW148561   4.193   6.217   9.724 -0.2468  0.0879  0.3979
13837SOL    HW248562   4.059   6.203   9.657 -1.0836  2.2064  1.5144
13838SOL     OW48563   6.090  11.188   3.324 -0.2531 -0.3515  0.5489
13838SOL    HW148564   6.164  11.248   3.336 -0.5157 -0.2270  1.6750
13838SOL    HW248565   6.028  11.236   3.270  0.3836 -0.3714 -0.2175
13839SOL     OW48566   7.046   2.799   2.721  0.3116 -0.6756 -0.2951
13839SOL    HW148567   7.022   2.732   2.785 -2.3429  0.2659 -0.1901
13839SOL    HW248568   6.977   2.795   2.655  1.1013  0.7457 -1.2698
13840SOL     OW48569   1.061   8.325   0.871 -0.4926  0.3667 -0.2245
13840SOL    HW148570   1.137   8.369   0.832  2.1296 -2.5362  1.2046
13840SOL    HW248571   1.023   8.390   0.930  2.2844  1.2943  0.6822
13841SOL     OW48572   5.121   2.372   2.488 -0.7260 -0.6404 -0.1620
13841SOL    HW148573   5.064   2.436   2.446  1.4116  0.4899 -1.4949
13841SOL    HW248574   5.179   2.341   2.418  1.4926 -0.3758  1.4291
13842SOL     OW48575   6.246   2.156   4.007 -0.3083 -0.1589  0.2971
13842SOL    HW148576   6.220   2.195   3.923  1.8904  0.8100 -0.0039
13842SOL    HW248577   6.269   2.066   3.986  0.3226  0.1048 -0.2027
13843SOL     OW48578   1.623   0.878   5.755  0.2768 -0.0118 -0.1669
13843SOL    HW148579   1.613   0.910   5.665  1.2239  1.3405  0.1822
13843SOL    HW248580   1.665   0.793   5.745  0.3118  0.0911 -1.0113
13844SOL     OW48581  11.418   4.161   1.650  0.3848 -0.5327  0.3369
13844SOL    HW148582  11.456   4.137   1.566 -0.5888  0.7856 -0.5238
13844SOL    HW248583  11.429   4.084   1.705 -0.7469 -2.1883 -1.6289
13845SOL     OW48584   7.064  11.095   8.515 -0.0471 -0.3528  0.1134
13845SOL    HW148585   6.993  11.076   8.576 -0.2516  1.1224  0.3707
13845SOL    HW248586   7.113  11.167   8.556  1.7440 -1.4784  0.0438
13846SOL     OW48587  11.715   7.145   8.502  0.2283 -0.0814  0.4311
13846SOL    HW148588  11.635   7.122   8.455 -0.9988  1.8347  1.4263
13846SOL    HW248589  11.753   7.216   8.451  0.1374  0.4246  1.0494
13847SOL     OW48590   6.331   9.521   4.033  1.1385  0.3361  0.4361
13847SOL    HW148591   6.356   9.614   4.029  0.4591  0.5650  1.3204
13847SOL    HW248592   6.249   9.517   3.984 -0.3518  0.7645  2.7438
13848SOL     OW48593   6.707   0.971   2.966 -0.5954  0.3459  0.5080
13848SOL    HW148594   6.786   1.011   2.931 -0.2703 -1.6853 -1.2382
13848SOL    HW248595   6.635   1.024   2.931 -0.1016  0.9380  0.3856
13849SOL     OW48596   0.393   6.781   6.406  0.0415 -0.0586  0.3951
13849SOL    HW148597   0.371   6.735   6.488 -0.3771 -1.2042 -0.3331
13849SOL    HW248598   0.483   6.755   6.388  0.5600  1.1755  1.1144
13850SOL     OW48599  11.532   0.701   8.822  0.0193 -0.3691 -0.4011
13850SOL    HW148600  11.621   0.683   8.854  0.2513  0.5456 -0.5148
13850SOL    HW248601  11.508   0.784   8.863 -0.6328 -0.4128 -0.6840
13851SOL     OW48602   0.209   8.084   2.715 -0.1305 -0.3882  0.9335
13851SOL    HW148603   0.187   8.176   2.701  1.4932 -0.0226  0.6097
13851SOL    HW248604   0.178   8.039   2.636  2.3914  0.5022 -0.6533
13852SOL     OW48605   8.247   3.672   4.226  0.1886  0.3160 -0.0092
13852SOL    HW148606   8.294   3.745   4.266 -2.0431  1.3759  0.8070
13852SOL    HW248607   8.223   3.703   4.139  0.0206  0.2029 -0.0032
13853SOL     OW48608  10.294  10.530   8.104 -0.3472  0.2534  0.0118
13853SOL    HW148609  10.234  10.524   8.030 -1.6884  0.0246  1.0860
13853SOL    HW248610  10.258  10.471   8.170  0.3689  1.0521  1.1604
13854SOL     OW48611   7.466   7.855   6.587 -0.0764  0.0249 -0.0703
13854SOL    HW148612   7.442   7.770   6.624 -0.6672 -0.6143 -1.8425
13854SOL    HW248613   7.492   7.836   6.497  1.1789  1.5489 -0.0796
13855SOL     OW48614   4.314   5.291  10.396 -0.6713  0.8004  0.3736
13855SOL    HW148615   4.256   5.218  10.373 -0.3000  0.5651  0.1705
13855SOL    HW248616   4.380   5.292  10.327  0.0631  0.5244  1.0501
13856SOL     OW48617   8.230   1.328  11.261 -0.3350  0.3327  0.1640
13856SOL    HW148618   8.148   1.287  11.288  0.2560 -0.4622  0.7953
13856SOL    HW248619   8.288   1.255  11.240 -0.1625  0.8875 -1.5092
13857SOL     OW48620   5.380  11.166   6.022  0.4064 -0.0128  0.3357
13857SOL    HW148621   5.334  11.158   6.105  1.5058 -0.6458  0.8974
13857SOL    HW248622   5.344  11.096   5.967 -0.5450  0.6043  0.1507
13858SOL     OW48623   7.392   2.030   4.294  0.2323  0.0147  0.2968
13858SOL    HW148624   7.454   1.998   4.228 -1.2982  0.7544 -1.6195
13858SOL    HW248625   7.409   2.125   4.298 -1.5489  0.4844 -1.2871
13859SOL     OW48626   8.886   0.442   4.322 -0.0494 -0.1034  0.1197
13859SOL    HW148627   8.906   0.414   4.233 -1.2077 -0.8788  0.0888
13859SOL    HW248628   8.889   0.538   4.318 -0.7602 -0.1073 -0.9309
13860SOL     OW48629   8.603   7.384   6.697 -0.4283  0.5664 -0.0962
13860SOL    HW148630   8.629   7.414   6.784 -0.9069  0.0198  0.2471
13860SOL    HW248631   8.646   7.444   6.637  2.4888 -0.9058  0.3834
13861SOL     OW48632   1.764  11.191   6.634 -0.6140  0.5988  0.1232
13861SOL    HW148633   1.683  11.150   6.606  0.2443 -1.0461 -0.1020
13861SOL    HW248634   1.739  11.280   6.659 -2.4258  0.2001 -0.1339
13862SOL     OW48635   1.577   1.480   9.144  0.4556  0.2806  0.2520
13862SOL    HW148636   1.491   1.492   9.185  1.4245  0.2424  2.4417
13862SOL    HW248637   1.610   1.568   9.130  0.1243  0.2939 -0.4563
13863SOL     OW48638   7.971   1.590   5.976 -0.0270  0.1433 -0.4030
13863SOL    HW148639   7.958   1.671   6.026 -0.7007 -1.2173  1.7604
13863SOL    HW248640   7.891   1.581   5.923  0.5451  1.4302 -1.5338
13864SOL     OW48641   9.241   5.172   0.141 -0.0483 -0.1367 -0.2803
13864SOL    HW148642   9.322   5.220   0.158 -1.1537  1.3092  1.2404
13864SOL    HW248643   9.204   5.155   0.227 -0.3495 -2.6937 -0.8298
13865SOL     OW48644   0.395   6.206  12.387 -0.4619  0.3843 -0.0138
13865SOL    HW148645   0.318   6.159  12.421  0.3244 -0.7706  0.2382
13865SOL    HW248646   0.417   6.160  12.306 -0.3857  1.0828 -0.3905
13866SOL     OW48647   0.514  11.235   9.377 -0.1514 -0.0885  0.2846
13866SOL    HW148648   0.550  11.187   9.303  0.6502 -2.0555  1.8455
13866SOL    HW248649   0.464  11.169   9.426  0.8750  0.6703  2.4546
13867SOL     OW48650   0.092   4.869   9.372 -0.1234 -0.3325  0.0512
13867SOL    HW148651   0.034   4.803   9.333 -1.8581  0.7866  0.6171
13867SOL    HW248652   0.177   4.826   9.377 -1.0456 -2.2908 -0.2041
13868SOL     OW48653   0.680   6.211   9.293 -0.6367 -0.0494  0.0793
13868SOL    HW148654   0.754   6.199   9.352  0.1577 -1.6665 -1.1614
13868SOL    HW248655   0.648   6.123   9.276 -1.8927  0.5076 -0.6095
13869SOL     OW48656  11.982   6.586   6.040 -0.3651 -0.2416 -0.1544
13869SOL    HW148657  11.995   6.564   6.132 -0.9208  2.3629  0.6455
13869SOL    HW248658  11.886   6.589   6.029 -0.3034 -0.2140 -0.7253
13870SOL     OW48659   0.476   7.797   6.389 -0.7052 -0.4325 -0.7300
13870SOL    HW148660   0.547   7.750   6.347  1.5549  0.8117  1.3812
13870SOL    HW248661   0.481   7.771   6.481 -0.8619  2.0401  0.0663
13871SOL     OW48662  10.196   8.921   1.454 -0.0638 -0.7239  0.0029
13871SOL    HW148663  10.237   8.934   1.539  0.6237  3.1447 -0.7245
13871SOL    HW248664  10.269   8.907   1.394 -0.4598 -2.1094 -0.1854
13872SOL     OW48665   2.867  10.480   9.854 -0.6637  0.5749  0.4626
13872SOL    HW148666   2.860  10.407   9.792  1.8139 -0.1920  1.0014
13872SOL    HW248667   2.907  10.551   9.803  0.5194  0.2531  0.9355
13873SOL     OW48668  11.852   5.614   2.492  0.3340 -0.7340  0.1149
13873SOL    HW148669  11.787   5.646   2.429  0.5417  0.1508  0.3460
13873SOL    HW248670  11.909   5.688   2.508  0.0309 -0.8040  1.6868
13874SOL     OW48671   7.757   5.890   9.984 -0.3537  0.2741  0.6150
13874SOL    HW148672   7.804   5.875   9.902 -0.2456  0.7233  0.5932
13874SOL    HW248673   7.826   5.912  10.047 -0.5527  1.1946  0.5228
13875SOL     OW48674   7.833  10.962   6.878  0.0269  0.0270 -0.7010
13875SOL    HW148675   7.799  11.049   6.897  1.1706  0.3969 -0.2395
13875SOL    HW248676   7.756  10.906   6.874 -0.5901  0.6612  1.1576
13876SOL     OW48677   3.650  10.767   3.954  0.5262  0.2463 -0.6150
13876SOL    HW148678   3.651  10.837   4.020  0.1663 -0.4464  0.1444
13876SOL    HW248679   3.650  10.814   3.870 -0.9818  1.2035 -0.1326
13877SOL     OW48680   1.004   0.272   3.684  0.3937  0.1220  0.1697
13877SOL    HW148681   0.984   0.294   3.775  0.2574  0.2478  0.1083
13877SOL    HW248682   1.004   0.176   3.683  1.7280  0.0947  0.6003
13878SOL     OW48683  10.621  10.415   7.879 -0.1859 -0.1633 -0.7692
13878SOL    HW148684  10.623  10.497   7.929  2.7408  0.0403 -1.0007
13878SOL    HW248685  10.630  10.442   7.788  1.0389 -0.7054 -0.8315
13879SOL     OW48686  11.929   9.722   4.192 -0.2759  0.0114  0.0727
13879SOL    HW148687  11.987   9.658   4.234  0.2620  0.9197  0.7518
13879SOL    HW248688  11.899   9.777   4.263  0.3531  1.3502 -0.6607
13880SOL     OW48689   2.288   0.503   8.075 -0.0027  0.2780 -0.5219
13880SOL    HW148690   2.303   0.514   7.981 -1.1557  1.3897 -0.5908
13880SOL    HW248691   2.376   0.509   8.113  0.3983  0.6245 -1.4468
13881SOL     OW48692   4.099   8.213   4.385 -0.2501  0.3208  0.2457
13881SOL    HW148693   4.167   8.149   4.366 -0.1117  0.1486  1.2458
13881SOL    HW248694   4.108   8.230   4.479 -1.6092  0.2510  0.4108
13882SOL     OW48695   9.100   0.423   2.540 -0.0418  0.0632  0.3034
13882SOL    HW148696   9.007   0.445   2.541 -0.5996 -2.0390  1.9367
13882SOL    HW248697   9.109   0.360   2.469 -0.3942 -1.5275  1.6160
13883SOL     OW48698  11.907   9.384   2.390  0.0077  0.2498  0.1920
13883SOL    HW148699  11.960   9.304   2.393  1.3918  1.1652  0.7778
13883SOL    HW248700  11.844   9.374   2.461 -0.0794 -0.4758  0.0216
13884SOL     OW48701   1.556   3.407   1.462 -0.1009  0.2757 -0.0460
13884SOL    HW148702   1.570   3.334   1.523 -1.7258 -1.3934 -1.5261
13884SOL    HW248703   1.639   3.416   1.415 -0.3705 -1.8858 -1.0568
13885SOL     OW48704   1.243  11.926   7.373 -0.4290  0.0027  0.0817
13885SOL    HW148705   1.199  12.004   7.408 -0.7639  0.4993 -1.3641
13885SOL    HW248706   1.188  11.899   7.299 -0.8493 -2.1944  1.1011
13886SOL     OW48707  12.370  11.739   8.824  0.3537  0.0421 -1.2960
13886SOL    HW148708  12.392  11.767   8.914  0.3531 -1.1660 -0.9084
13886SOL    HW248709  12.282  11.773   8.810  0.4336  0.4222 -0.9173
13887SOL     OW48710  12.010   3.844   8.263 -0.0393 -0.7377  0.4239
13887SOL    HW148711  12.023   3.751   8.286  1.1171 -0.8437 -0.5625
13887SOL    HW248712  12.061   3.856   8.183 -3.0040 -0.1027 -1.5190
13888SOL     OW48713  10.540  11.759   6.873  0.5251  0.4705 -0.1342
13888SOL    HW148714  10.509  11.795   6.790  1.0178 -0.6671 -0.8427
13888SOL    HW248715  10.482  11.796   6.939 -1.1096 -0.1030 -1.2008
13889SOL     OW48716  10.186   4.704  12.405 -0.7546 -0.3325 -0.3533
13889SOL    HW148717  10.135   4.728  12.327 -1.0032  1.7954  0.4102
13889SOL    HW248718  10.234   4.783  12.428  0.4722 -1.3621  0.8180
13890SOL     OW48719   1.961   9.874   1.895  0.1607  0.4990 -0.2358
13890SOL    HW148720   1.892   9.848   1.834 -0.7610  0.7536  0.6649
13890SOL    HW248721   1.962   9.970   1.889  1.0543  0.4553 -0.8921
13891SOL     OW48722   3.922   5.452  11.316 -0.0982 -0.7441  0.0788
13891SOL    HW148723   3.990   5.515  11.289 -1.2161  0.3195 -0.3332
13891SOL    HW248724   3.867   5.441  11.239 -1.9995  0.5616  1.1599
13892SOL     OW48725   6.952   7.205   0.121 -0.0101 -0.4480 -0.3235
13892SOL    HW148726   6.922   7.115   0.133 -1.4011  0.0307 -0.0478
13892SOL    HW248727   6.987   7.230   0.206 -0.5096 -0.4190 -0.1232
13893SOL     OW48728   0.414   9.128   6.505 -0.0300 -0.4184  0.4455
13893SOL    HW148729   0.418   9.032   6.500 -0.3794 -0.5098  1.5765
13893SOL    HW248730   0.506   9.155   6.506  0.0855 -0.5999 -1.6176
13894SOL     OW48731   4.217   3.918   3.804  0.3298 -0.4673 -0.1354
13894SOL    HW148732   4.307   3.886   3.799  0.6503 -0.0494  2.0059
13894SOL    HW248733   4.216   3.972   3.883 -2.0685 -1.2927  0.4646
13895SOL     OW48734   3.133  12.450  10.641 -0.4349 -0.0648  0.1931
13895SOL    HW148735   3.221  12.454  10.678  0.0227  0.5671 -0.9518
13895SOL    HW248736   3.144  12.409  10.556 -0.7370  2.9294 -1.4123
13896SOL     OW48737   6.389  10.663   9.102  0.0407  0.0610  0.4234
13896SOL    HW148738   6.370  10.751   9.133 -0.4677 -0.2557  1.0105
13896SOL    HW248739   6.407  10.675   9.008 -1.4615  0.5938  0.1740
13897SOL     OW48740   4.229  10.707   7.018  0.4025 -0.2532 -0.0916
13897SOL    HW148741   4.273  10.702   7.102  0.0544  0.2305  0.1295
13897SOL    HW248742   4.299  10.715   6.954  0.6886 -1.2568  0.0943
13898SOL     OW48743   7.460  10.586   0.141 -0.0206  0.0526  0.7963
13898SOL    HW148744   7.478  10.543   0.057 -1.3345  0.3961  0.3148
13898SOL    HW248745   7.367  10.569   0.157 -0.1458  1.2594  1.4488
13899SOL     OW48746   9.590   7.474   5.980 -0.7897 -0.3342 -0.4669
13899SOL    HW148747   9.665   7.418   5.959 -0.2288  1.0057 -2.3492
13899SOL    HW248748   9.516   7.432   5.936 -0.7336 -0.5586 -0.3512
13900SOL     OW48749   6.707   7.064   8.382 -0.0041 -0.8713  0.1672
13900SOL    HW148750   6.780   7.095   8.435 -0.1379 -2.3755  1.3092
13900SOL    HW248751   6.629   7.090   8.432 -0.1630 -1.4999  0.2492
13901SOL     OW48752   2.195   4.995   4.739  0.0485 -0.5413  0.1543
13901SOL    HW148753   2.107   4.959   4.726 -0.4630  0.4076  0.9163
13901SOL    HW248754   2.200   5.014   4.832  0.8354  0.0126  0.0067
13902SOL     OW48755   4.194   7.419   0.910  0.6508  0.2896 -0.6010
13902SOL    HW148756   4.157   7.332   0.896  1.6394 -0.0806 -0.9576
13902SOL    HW248757   4.166   7.470   0.834  1.0043 -0.0361 -0.9508
13903SOL     OW48758   2.052  11.228  10.914  0.3910 -0.0725 -0.1417
13903SOL    HW148759   2.045  11.291  10.843  1.6247 -0.2505 -0.4466
13903SOL    HW248760   2.036  11.143  10.873  0.4270 -0.1129 -0.0718
13904SOL     OW48761   8.702   7.032   8.628  0.2456 -0.4352  0.2202
13904SOL    HW148762   8.647   7.013   8.705 -1.0676 -0.2613 -0.6426
13904SOL    HW248763   8.758   6.956   8.619  0.0705 -0.6799  1.0527
13905SOL     OW48764   9.007   8.697   3.982 -0.0624  0.0336 -0.2706
13905SOL    HW148765   8.960   8.717   4.062 -0.5556  1.1877 -0.8223
13905SOL    HW248766   9.017   8.782   3.939  1.3157 -0.3859 -0.8229
13906SOL     OW48767   5.148  11.600   4.736 -0.2454  0.1336  0.3937
13906SOL    HW148768   5.202  11.678   4.753  0.7473 -0.3031 -0.6481
13906SOL    HW248769   5.096  11.623   4.659 -0.7979  0.1711  0.7724
13907SOL     OW48770   7.233   4.437   3.560  0.6326  0.3082  0.0549
13907SOL    HW148771   7.235   4.381   3.483 -2.4808  0.4331 -0.2398
13907SOL    HW248772   7.150   4.484   3.554 -0.0562 -0.1005  3.7644
13908SOL     OW48773   7.122  12.229   9.024 -0.1683  0.6524 -0.1658
13908SOL    HW148774   7.051  12.268   8.974 -0.0866  1.2217  0.1540
13908SOL    HW248775   7.119  12.135   9.002 -1.0257  0.6682 -0.1314
13909SOL     OW48776   2.201  10.535   9.297  0.5219  0.1826  0.6027
13909SOL    HW148777   2.143  10.509   9.226 -0.8100  1.5756  1.1285
13909SOL    HW248778   2.222  10.453   9.343  2.6467 -0.9910 -2.1780
13910SOL     OW48779   2.769   2.101   2.637 -0.5428  0.1344  0.2069
13910SOL    HW148780   2.768   2.143   2.550  0.6731  0.9589  0.5572
13910SOL    HW248781   2.682   2.117   2.672 -0.6763  0.8343 -0.4064
13911SOL     OW48782   5.497  12.118   6.840  0.2415 -0.2550 -0.5091
13911SOL    HW148783   5.480  12.026   6.822 -0.6244 -0.2492  0.2153
13911SOL    HW248784   5.419  12.163   6.807 -0.1437  0.0285  0.7666
13912SOL     OW48785   1.849  12.439  10.559  0.1594 -0.4435  0.2366
13912SOL    HW148786   1.885  12.526  10.577  0.9060 -0.6854 -0.0487
13912SOL    HW248787   1.757  12.455  10.541  0.4996  0.4267 -0.8334
13913SOL     OW48788   6.507   8.843   6.057 -0.3342  0.6141  0.0517
13913SOL    HW148789   6.523   8.761   6.103 -0.8582  1.1649  1.2558
13913SOL    HW248790   6.559   8.836   5.977  0.1573 -0.6036  0.4557
13914SOL     OW48791   3.934   2.079   7.950  0.1138 -0.1514 -0.3576
13914SOL    HW148792   3.908   2.077   8.042 -0.4396 -0.0339 -0.5078
13914SOL    HW248793   3.893   2.001   7.912  0.6220 -0.3868 -0.4364
13915SOL     OW48794  11.931   8.691   0.322  1.0288  0.2813  0.1073
13915SOL    HW148795  11.837   8.681   0.310  0.9138 -0.5234  1.5649
13915SOL    HW248796  11.940   8.741   0.403  1.8682  0.5268 -0.1241
13916SOL     OW48797   2.457   0.861   6.838 -0.1204  0.4483  0.1681
13916SOL    HW148798   2.450   0.947   6.796 -1.2527  0.9027  1.2434
13916SOL    HW248799   2.455   0.880   6.931  0.0451 -0.7314  0.4241
13917SOL     OW48800  12.228   2.644   1.371  0.2722 -0.5922  0.1336
13917SOL    HW148801  12.306   2.589   1.373 -0.4635 -1.6582  0.7235
13917SOL    HW248802  12.175   2.613   1.444 -0.2392  0.8330  0.4032
13918SOL     OW48803  11.758   5.452   2.910 -0.0824 -0.4274 -0.6386
13918SOL    HW148804  11.770   5.433   3.003 -1.3727  0.4172 -0.2667
13918SOL    HW248805  11.836   5.501   2.885 -0.1516  0.1696  0.2597
13919SOL     OW48806  12.454   7.001   7.057  0.4563  0.0309 -0.1718
13919SOL    HW148807  12.529   6.945   7.081 -0.7514 -1.2308  0.8644
13919SOL    HW248808  12.384   6.939   7.036 -0.7252  1.1563  0.2940
13920SOL     OW48809   1.840  11.334  11.524  0.1793 -0.1505 -0.5972
13920SOL    HW148810   1.818  11.378  11.442 -0.9057 -0.3373 -0.4211
13920SOL    HW248811   1.759  11.291  11.550  0.3552  0.3570  0.8633
13921SOL     OW48812   4.170   0.761  10.202  0.3396 -0.3204 -0.2150
13921SOL    HW148813   4.084   0.741  10.239  0.8956 -2.4799  0.0729
13921SOL    HW248814   4.164   0.852  10.174 -1.0727  0.5282  2.4948
13922SOL     OW48815   2.195   7.676  11.546  0.0981 -0.1518 -0.1523
13922SOL    HW148816   2.217   7.651  11.636  0.1392 -1.9921 -0.6403
13922SOL    HW248817   2.202   7.595  11.496  0.6975  0.9633 -1.9515
13923SOL     OW48818   9.741   9.275  10.927 -0.4280  0.4659  0.3304
13923SOL    HW148819   9.683   9.250  10.855  0.0922  0.6105 -0.1415
13923SOL    HW248820   9.681   9.312  10.992 -0.9147  0.2674  0.0082
13924SOL     OW48821  12.351   7.370  10.992 -0.3013  0.1696  0.3360
13924SOL    HW148822  12.306   7.453  10.979 -1.3196 -0.6258 -1.7908
13924SOL    HW248823  12.390   7.350  10.906  2.8954  0.0606  1.6614
13925SOL     OW48824   0.014   9.106   8.625 -0.4783 -0.2941  0.1615
13925SOL    HW148825   0.004   9.136   8.535  0.7450  0.7290  0.3312
13925SOL    HW248826   0.103   9.071   8.629 -0.7388 -0.9179  0.8184
13926SOL     OW48827   6.117   3.100   3.843  0.0001  0.3156  0.0846
13926SOL    HW148828   6.023   3.116   3.841 -0.1512 -0.5513 -0.8300
13926SOL    HW248829   6.150   3.140   3.762  0.3442  0.2307  0.1820
13927SOL     OW48830   4.696   7.894   9.392  0.2036  0.2168 -0.3191
13927SOL    HW148831   4.739   7.924   9.311  1.0116  0.3369  0.1458
13927SOL    HW248832   4.728   7.954   9.459  0.8159 -0.8726  0.3853
13928SOL     OW48833   2.060  12.593   9.173 -0.6265 -0.1590 -0.2049
13928SOL    HW148834   2.103  12.598   9.087  0.5387  1.6786  0.4126
13928SOL    HW248835   1.967  12.593   9.153 -0.3870  0.7087 -1.4840
13929SOL     OW48836   2.060   5.967   6.285  0.1713  0.3422 -0.2390
13929SOL    HW148837   2.012   6.022   6.224 -2.0384  0.6058  1.5930
13929SOL    HW248838   2.032   5.997   6.371  1.6367 -1.3207  0.8848
13930SOL     OW48839   5.803  10.107   7.369  0.0739  0.1221 -0.0429
13930SOL    HW148840   5.785  10.079   7.279  0.7395  1.5689 -0.6767
13930SOL    HW248841   5.863  10.042   7.403 -0.0991 -0.3888 -0.6935
13931SOL     OW48842  12.293   4.674   2.992  0.4907 -0.0012  0.4943
13931SOL    HW148843  12.223   4.718   3.040  2.3524  2.0758  1.4898
13931SOL    HW248844  12.258   4.587   2.972 -2.2566  0.8832  1.1000
13932SOL     OW48845   0.655   0.099   3.307  0.4222  0.3369  0.2256
13932SOL    HW148846   0.600   0.050   3.368 -0.4649  2.4964  1.2602
13932SOL    HW248847   0.663   0.042   3.231 -1.6581 -0.8643  0.8295
13933SOL     OW48848   1.944   5.889   6.881  0.0531 -0.2212 -0.0962
13933SOL    HW148849   1.867   5.942   6.862  0.5915  0.7116  0.2003
13933SOL    HW248850   1.944   5.821   6.815 -0.7169  0.0984 -0.4375
13934SOL     OW48851   1.209   9.795   8.673  0.1452  0.1883  0.1302
13934SOL    HW148852   1.121   9.768   8.648  0.0511  0.2637  0.3790
13934SOL    HW248853   1.221   9.881   8.632 -0.2152  0.5627  0.7858
13935SOL     OW48854   9.630   5.070   1.087 -0.2069 -0.2914  0.2905
13935SOL    HW148855   9.624   5.028   1.001  2.0105 -0.9596  0.3951
13935SOL    HW248856   9.549   5.047   1.131 -1.0989 -0.4822 -1.3759
13936SOL     OW48857  12.420   3.108  11.025  0.1324  0.7600  0.0715
13936SOL    HW148858  12.338   3.156  11.032 -0.0054  0.4542  0.6569
13936SOL    HW248859  12.481   3.155  11.082 -0.3485 -0.4276  1.6600
13937SOL     OW48860   6.758   7.647   4.581  0.5668  0.2694  0.0753
13937SOL    HW148861   6.830   7.708   4.598  1.7931 -0.8212 -1.0218
13937SOL    HW248862   6.772   7.575   4.642  0.4163  0.0255 -0.1776
13938SOL     OW48863   3.488  10.044   1.108 -0.3455  0.3359  0.2681
13938SOL    HW148864   3.527  10.131   1.097 -0.4388  0.4472  0.8091
13938SOL    HW248865   3.543   9.987   1.055 -0.4141  0.7578 -0.2735
13939SOL     OW48866  10.870   2.887   9.816  0.1270  0.3387  0.1222
13939SOL    HW148867  10.911   2.848   9.893  2.0875  0.3801 -0.8386
13939SOL    HW248868  10.837   2.972   9.847  1.2021  0.5066  0.8555
13940SOL     OW48869  12.307   4.733   8.799  0.3920  0.0956  0.4573
13940SOL    HW148870  12.345   4.816   8.828 -0.4801  1.1655 -1.2948
13940SOL    HW248871  12.360   4.707   8.724 -0.7976  0.3756 -0.5235
13941SOL     OW48872   3.023   9.493   6.661 -0.0745  0.0191  0.0393
13941SOL    HW148873   2.980   9.534   6.586 -2.4329 -0.7859  0.8360
13941SOL    HW248874   3.012   9.556   6.732  0.8507  0.1597  0.0654
13942SOL     OW48875   4.268  10.762   1.848  0.5719 -0.1879 -0.1385
13942SOL    HW148876   4.265  10.704   1.772  0.8074  1.0578 -1.1330
13942SOL    HW248877   4.332  10.829   1.824 -0.0324  0.7452  0.7837
13943SOL     OW48878  11.011  12.038   6.896  0.5887 -0.0776  0.0520
13943SOL    HW148879  10.983  12.099   6.828  0.7650  0.2045  0.2341
13943SOL    HW248880  11.105  12.051   6.903  0.8495 -1.2827 -0.8089
13944SOL     OW48881   3.229   5.165   0.232  0.0957  0.1117 -0.2131
13944SOL    HW148882   3.291   5.094   0.219 -0.2620  0.0569 -1.7200
13944SOL    HW248883   3.216   5.168   0.327  0.5310 -1.4696 -0.0808
13945SOL     OW48884   3.282   6.676   3.305  0.3913  0.2785 -0.1602
13945SOL    HW148885   3.235   6.663   3.224 -0.5889 -0.7653  0.5529
13945SOL    HW248886   3.355   6.614   3.302 -0.6577 -1.0155  0.5015
13946SOL     OW48887   0.278  11.149   2.063  0.1152 -0.6763 -0.6863
13946SOL    HW148888   0.292  11.202   2.141 -1.5765 -3.3571  1.6351
13946SOL    HW248889   0.339  11.076   2.072 -1.5498 -2.1359 -0.6744
13947SOL     OW48890   4.939   4.878   3.536  0.1552  0.4482  0.0902
13947SOL    HW148891   4.870   4.826   3.496  0.1499  0.9951 -0.6373
13947SOL    HW248892   5.003   4.814   3.569  0.1917 -0.0175 -0.8557
13948SOL     OW48893   1.528   1.400   3.404  0.1851  0.1568  0.7747
13948SOL    HW148894   1.434   1.390   3.393  0.4486 -1.4677 -0.5235
13948SOL    HW248895   1.558   1.316   3.438  1.5107 -0.6394 -2.0043
13949SOL     OW48896  11.697   2.738   0.227 -0.1763 -0.4958 -0.8495
13949SOL    HW148897  11.681   2.658   0.178  1.2987  0.3072 -2.7758
13949SOL    HW248898  11.639   2.803   0.188  1.0153  0.1560 -1.5760
13950SOL     OW48899   7.194  12.104   1.260  0.2070  0.0293 -0.0315
13950SOL    HW148900   7.110  12.072   1.228  0.7572  0.7807 -2.4324
13950SOL    HW248901   7.172  12.158   1.336 -1.4926  0.2997 -0.6714
13951SOL     OW48902  11.833   6.453  12.293 -0.5992  0.5597 -0.3166
13951SOL    HW148903  11.791   6.521  12.345 -2.4635 -0.9583  0.2983
13951SOL    HW248904  11.760   6.413  12.244  1.0101  1.9046 -4.2080
13952SOL     OW48905   3.082   7.193   7.294  0.6168  0.0207  0.5545
13952SOL    HW148906   3.158   7.175   7.350  0.8235  0.3270  0.3742
13952SOL    HW248907   3.080   7.288   7.287 -0.0675  0.0401  0.9457
13953SOL     OW48908   9.395  10.511  10.148 -0.3220  0.2910 -0.5684
13953SOL    HW148909   9.464  10.448  10.170  0.9585  1.5953 -0.6524
13953SOL    HW248910   9.404  10.525  10.054 -0.6732  0.4876 -0.5759
13954SOL     OW48911  11.305   6.969  10.816 -0.0040  0.3173 -0.3045
13954SOL    HW148912  11.313   6.945  10.908  1.0448  1.5383 -0.0529
13954SOL    HW248913  11.220   6.934  10.789  0.0683 -0.8253  0.8734
13955SOL     OW48914   1.085   3.616   1.041 -0.4995 -0.0878  0.4819
13955SOL    HW148915   1.045   3.690   1.085  0.3481  0.6975 -0.0487
13955SOL    HW248916   1.165   3.598   1.091 -0.8280 -0.8342  0.7701
13956SOL     OW48917   6.260  11.473   0.403 -0.1527  0.2701 -0.1333
13956SOL    HW148918   6.259  11.378   0.389  0.6265 -0.0914  1.8816
13956SOL    HW248919   6.216  11.509   0.327 -2.0663 -1.8288 -0.1193
13957SOL     OW48920   5.282  11.182   2.882 -0.1225 -0.4200 -0.1744
13957SOL    HW148921   5.371  11.159   2.910 -0.2816 -0.9955 -0.1431
13957SOL    HW248922   5.295  11.255   2.821  0.4597 -1.2431 -1.0682
13958SOL     OW48923   4.327   7.281   6.275 -0.6638 -0.0173  0.0605
13958SOL    HW148924   4.356   7.372   6.279 -2.4928  0.5784  2.4127
13958SOL    HW248925   4.408   7.229   6.274  0.4094  1.6029  0.0031
13959SOL     OW48926  11.560   1.118  10.427  0.4961 -0.1713  0.4704
13959SOL    HW148927  11.537   1.196  10.477 -0.8698 -0.2132 -0.0618
13959SOL    HW248928  11.491   1.055  10.448  0.4956 -0.5558 -0.6342
13960SOL     OW48929   1.045   0.576   0.239  0.0944 -0.5020 -0.1316
13960SOL    HW148930   1.060   0.648   0.179  2.8053 -0.7364  0.1314
13960SOL    HW248931   1.047   0.616   0.326  0.0311 -0.6796 -0.0475
13961SOL     OW48932   9.907   6.417   5.995 -0.0689 -0.5513  0.4031
13961SOL    HW148933   9.833   6.389   5.941  0.7325 -0.8358 -0.5844
13961SOL    HW248934   9.984   6.385   5.947  0.7630  1.0917  0.5950
13962SOL     OW48935   9.883   1.187   8.755 -0.0127 -0.1852 -0.2216
13962SOL    HW148936   9.879   1.098   8.721 -0.3904 -0.6314  0.9599
13962SOL    HW248937   9.891   1.177   8.850  0.1375  1.0356 -0.0828
13963SOL     OW48938   1.342   1.332   2.854  0.0078 -0.2082  0.2859
13963SOL    HW148939   1.334   1.402   2.790 -1.6733 -1.5437 -1.0619
13963SOL    HW248940   1.375   1.257   2.804 -0.2884 -0.9827  1.2257
13964SOL     OW48941   0.937   5.987   7.571  0.1290  0.4685 -0.5070
13964SOL    HW148942   0.850   6.011   7.602  0.4614  0.2262  0.6372
13964SOL    HW248943   0.989   5.974   7.650 -0.0729 -4.4163 -0.8630
13965SOL     OW48944   9.651   8.531   3.306  0.2755  0.2598  0.1021
13965SOL    HW148945   9.560   8.559   3.296 -0.3114 -1.5491  0.0277
13965SOL    HW248946   9.646   8.436   3.314  2.1006  0.2019  1.0346
13966SOL     OW48947   4.606   0.967   5.179 -0.3970  0.1953  0.2283
13966SOL    HW148948   4.535   0.991   5.119 -0.7757  1.0017  0.9818
13966SOL    HW248949   4.646   0.890   5.138  0.2069  1.4677 -1.7416
13967SOL     OW48950   6.587   0.243   0.852  0.0116 -0.4238  0.3503
13967SOL    HW148951   6.505   0.202   0.878 -0.1725 -0.0294  0.3952
13967SOL    HW248952   6.651   0.171   0.852 -0.1510 -0.5778  1.1251
13968SOL     OW48953  10.049   2.103   3.106 -0.1866  0.2513 -0.4817
13968SOL    HW148954   9.973   2.144   3.065 -0.9175 -1.4123 -0.8375
13968SOL    HW248955  10.101   2.177   3.137 -1.8160  1.4408 -0.4335
13969SOL     OW48956  11.541   6.971   2.727 -0.2114 -0.0783 -0.6602
13969SOL    HW148957  11.523   7.024   2.804 -1.6443  1.0827 -1.7370
13969SOL    HW248958  11.608   7.021   2.679  1.0086 -1.0181  0.0022
13970SOL     OW48959   6.693   8.735   4.118 -0.1896 -0.5379 -0.0901
13970SOL    HW148960   6.722   8.647   4.142  1.9292  0.2879  0.6816
13970SOL    HW248961   6.766   8.792   4.142 -0.8040  1.2647 -2.1019
13971SOL     OW48962  11.544   3.175   0.764  0.2310  0.1760  0.2001
13971SOL    HW148963  11.553   3.244   0.830 -1.4884  1.1159 -0.4796
13971SOL    HW248964  11.478   3.116   0.800  1.1265 -0.7153  0.4236
13972SOL     OW48965   6.022   4.892   1.276 -0.0268 -0.0243 -0.0995
13972SOL    HW148966   5.998   4.804   1.305  1.1312  0.0153  1.0236
13972SOL    HW248967   6.116   4.889   1.263  0.4171  1.5876  2.0514
13973SOL     OW48968   2.435   6.543   4.871  0.4082 -0.1693  0.1943
13973SOL    HW148969   2.347   6.563   4.902  0.9195 -0.2916  1.8192
13973SOL    HW248970   2.421   6.493   4.791 -1.0554 -1.4893  1.2096
13974SOL     OW48971   1.082  12.508   2.860  0.4287 -0.4856 -0.4035
13974SOL    HW148972   1.054  12.417   2.865  0.5871 -0.5995 -1.3940
13974SOL    HW248973   1.019  12.549   2.800  1.6844 -0.4913 -1.7803
13975SOL     OW48974  10.537   8.818   2.523  0.1753 -0.9006  1.0744
13975SOL    HW148975  10.609   8.759   2.542  0.9939 -0.1485  0.3931
13975SOL    HW248976  10.579   8.901   2.500 -0.9315  0.0610  2.2971
13976SOL     OW48977   5.224   7.220   4.956  0.4666  0.1715 -0.0480
13976SOL    HW148978   5.211   7.228   5.050 -0.9294 -0.5192 -0.1594
13976SOL    HW248979   5.219   7.126   4.939 -0.6613  0.3696 -0.9665
13977SOL     OW48980   7.721   9.965  10.910 -0.3263  0.1417  0.2165
13977SOL    HW148981   7.733   9.967  10.815 -0.6396 -0.9209  0.1443
13977SOL    HW248982   7.644  10.020  10.925 -0.6883 -0.2396 -0.2169
13978SOL     OW48983   9.819   0.760  11.344 -0.5096  0.2855  0.4998
13978SOL    HW148984   9.747   0.740  11.284 -0.4557  1.0594  0.1655
13978SOL    HW248985   9.776   0.779  11.428 -0.6075 -0.4496  0.6181
13979SOL     OW48986   5.715   8.462   2.277  0.5053  0.3136 -0.0290
13979SOL    HW148987   5.702   8.431   2.367  0.0178  0.2404 -0.1211
13979SOL    HW248988   5.635   8.511   2.257  1.8574  3.0502  0.6904
13980SOL     OW48989  11.588   6.431  11.156  0.0854  0.2166  0.5467
13980SOL    HW148990  11.603   6.468  11.070  1.1224 -1.1417  0.1063
13980SOL    HW248991  11.542   6.348  11.139  0.7660 -0.3222  1.2486
13981SOL     OW48992   0.948   9.782   9.932 -1.1680  0.6931 -0.0613
13981SOL    HW148993   0.878   9.717   9.924  1.4095 -2.3687  0.1443
13981SOL    HW248994   1.028   9.730   9.928  1.0892  3.8339  1.1508
13982SOL     OW48995   1.783   5.112   9.781  0.1172  0.1241  0.2712
13982SOL    HW148996   1.874   5.137   9.797  0.3114 -0.2662 -0.1661
13982SOL    HW248997   1.782   5.088   9.688 -0.3130 -0.3825  0.4059
13983SOL     OW48998   3.709   8.743  10.128  0.1623 -0.9636  0.1553
13983SOL    HW148999   3.712   8.801  10.204 -1.3119 -2.0557  1.1146
13983SOL    HW249000   3.792   8.758  10.083  0.0853  1.4069  0.6741
13984SOL     OW49001   4.495   5.016  10.438  0.0034 -0.2620 -0.1800
13984SOL    HW149002   4.536   4.967  10.367  0.3902 -2.1380  1.2628
13984SOL    HW249003   4.408   5.037  10.405  0.3876 -0.5471 -1.4356
13985SOL     OW49004   7.771  12.280   2.613 -0.2185 -0.0515  0.1543
13985SOL    HW149005   7.748  12.189   2.633  0.7218 -0.1733  0.6832
13985SOL    HW249006   7.864  12.278   2.592 -0.4248  0.6215 -0.9335
13986SOL     OW49007   4.468   6.920   3.949 -0.5975  0.0302  0.1600
13986SOL    HW149008   4.479   6.845   4.007 -0.7106  0.2181  0.4225
13986SOL    HW249009   4.550   6.968   3.955 -2.2941  2.9314  4.2091
13987SOL     OW49010   6.756   9.956   4.973  0.0795  0.0921  0.2336
13987SOL    HW149011   6.792   9.873   4.939 -0.6267 -0.8184  1.6380
13987SOL    HW249012   6.755   9.945   5.068  0.3617  1.9027  0.4798
13988SOL     OW49013   0.409  11.793   8.249 -0.8604  0.2232 -0.3515
13988SOL    HW149014   0.341  11.747   8.200  1.0184  0.2409 -3.2067
13988SOL    HW249015   0.426  11.872   8.199  0.9199  0.4748  0.5605
13989SOL     OW49016   6.583   1.395   5.350  0.5490  0.7959  0.0547
13989SOL    HW149017   6.493   1.381   5.319  0.3367 -1.0319  1.3641
13989SOL    HW249018   6.637   1.338   5.295  0.5420 -0.1700  1.0222
13990SOL     OW49019   3.571   5.697   0.421  0.5575 -0.3292  0.0654
13990SOL    HW149020   3.517   5.636   0.369 -0.7953  1.2256 -0.4525
13990SOL    HW249021   3.583   5.653   0.505 -0.8869 -1.0822 -0.0841
13991SOL     OW49022   4.865   2.543   0.171 -0.3704 -0.6266 -0.7360
13991SOL    HW149023   4.803   2.472   0.186 -0.6989 -0.3721 -0.8596
13991SOL    HW249024   4.886   2.537   0.078 -1.6325  0.3954 -1.1317
13992SOL     OW49025   9.280  11.903   7.842  0.5225 -0.0585 -0.3812
13992SOL    HW149026   9.216  11.849   7.888 -0.2154  1.2398  0.1578
13992SOL    HW249027   9.360  11.850   7.842 -0.9638 -2.5987 -2.7761
13993SOL     OW49028  12.406   5.601   1.006  0.3757 -0.0336 -0.1447
13993SOL    HW149029  12.416   5.668   1.074 -0.8515  0.6858 -0.6482
13993SOL    HW249030  12.402   5.651   0.924 -1.4130 -0.6466 -0.4573
13994SOL     OW49031  11.712  10.387   1.954 -0.0002  0.6227  0.4596
13994SOL    HW149032  11.729  10.347   1.869 -0.1512  0.9322  0.2789
13994SOL    HW249033  11.775  10.346   2.013 -1.4944 -1.4081  0.7541
13995SOL     OW49034  11.678   4.461  12.088 -0.0696  0.2661  0.4476
13995SOL    HW149035  11.620   4.385  12.078  0.9493 -0.6252  1.0889
13995SOL    HW249036  11.712   4.476  12.000 -0.2851 -0.0161  0.3132
13996SOL     OW49037   4.789  10.050   6.530 -0.2361 -0.1142 -0.5208
13996SOL    HW149038   4.723  10.028   6.464 -2.5018  0.6156  1.3512
13996SOL    HW249039   4.744  10.111   6.589  1.3259 -1.4360  2.2476
13997SOL     OW49040   2.649  10.679   7.926 -0.0866  0.7322  0.5743
13997SOL    HW149041   2.569  10.729   7.909 -0.4273  0.6259  1.7428
13997SOL    HW249042   2.639  10.599   7.875  0.3129  1.6934 -1.0639
13998SOL     OW49043   1.348   2.606   0.675 -0.4191  0.2241  0.6880
13998SOL    HW149044   1.385   2.543   0.613  0.9790  1.3641  0.3100
13998SOL    HW249045   1.274   2.645   0.628  1.0085  1.5236 -0.5547
13999SOL     OW49046   2.542  11.332   8.807  0.0091  0.2345 -0.5924
13999SOL    HW149047   2.582  11.304   8.724 -0.4420 -1.5366 -0.2553
13999SOL    HW249048   2.565  11.263   8.868 -0.2106  1.2077  0.6217
14000SOL     OW49049   5.344   5.843   3.171  0.2698 -0.4852  0.8239
14000SOL    HW149050   5.370   5.759   3.133 -1.9409 -1.0423  0.4317
14000SOL    HW249051   5.305   5.891   3.098  1.5815  0.9495  1.0261
14001SOL     OW49052  11.756   9.097   8.249 -0.0427 -0.5958  0.4803
14001SOL    HW149053  11.814   9.070   8.178 -0.1972 -1.7236  0.7624
14001SOL    HW249054  11.673   9.120   8.205  0.0004 -0.8597  0.2629
14002SOL     OW49055   8.131  10.000   0.306  0.1384  0.0390  0.3105
14002SOL    HW149056   8.148  10.094   0.299 -1.1461  0.1600 -2.8486
14002SOL    HW249057   8.157   9.964   0.221 -1.3917 -2.0877  0.6435
14003SOL     OW49058   1.677   6.077  12.228  0.4028  0.0386  0.1024
14003SOL    HW149059   1.710   6.086  12.317  1.4127  0.3524 -0.2860
14003SOL    HW249060   1.607   6.012  12.234  0.8398 -0.3570  1.0253
14004SOL     OW49061  12.254   1.077  10.706 -0.0456 -0.0543  0.3722
14004SOL    HW149062  12.318   1.045  10.641 -0.5568  1.0078 -0.6960
14004SOL    HW249063  12.304   1.084  10.787  0.9492 -0.2007 -0.2111
14005SOL     OW49064   2.611  11.399   3.816  0.0989 -0.1688 -0.0106
14005SOL    HW149065   2.694  11.443   3.835 -0.5519  0.2814  2.0374
14005SOL    HW249066   2.635  11.326   3.759  1.9819 -0.3869  0.9999
14006SOL     OW49067   2.207   3.863   5.621  0.0193 -0.5319 -0.1739
14006SOL    HW149068   2.223   3.805   5.547 -0.5116 -0.2614 -0.5040
14006SOL    HW249069   2.161   3.938   5.583  0.8950  0.2106  0.2026
14007SOL     OW49070   8.733   8.240   1.687  0.0970  0.2723 -0.2304
14007SOL    HW149071   8.722   8.156   1.732  0.6084 -0.2207 -0.9885
14007SOL    HW249072   8.676   8.301   1.733  1.2545  0.0138  1.6540
14008SOL     OW49073   0.033   8.806   3.864  0.0074 -0.5047 -0.2167
14008SOL    HW149074   0.080   8.831   3.944  1.7372  0.1268 -1.3723
14008SOL    HW249075  -0.024   8.734   3.891  0.5606 -0.3177  1.5761
14009SOL     OW49076   2.670   7.181   4.804  0.6624 -0.0709  0.3478
14009SOL    HW149077   2.593   7.166   4.749  0.6171 -0.2982  0.4725
14009SOL    HW249078   2.641   7.157   4.893  0.4765  1.0975  0.6169
14010SOL     OW49079  11.201   5.109   3.432  0.8468  0.2006 -0.1007
14010SOL    HW149080  11.178   5.016   3.430 -0.9131  0.5232  1.8333
14010SOL    HW249081  11.154   5.147   3.358  1.8778 -0.4697 -1.1317
14011SOL     OW49082  10.599  10.781   1.763 -0.1536 -0.2087  0.0834
14011SOL    HW149083  10.593  10.877   1.764  1.6946  0.0392 -2.4106
14011SOL    HW249084  10.509  10.751   1.770 -0.8781  1.7441 -0.1957
14012SOL     OW49085   9.511   4.693   0.362 -0.3501  0.4440 -0.4588
14012SOL    HW149086   9.474   4.740   0.288 -1.8943 -0.5719 -0.3667
14012SOL    HW249087   9.540   4.610   0.326 -2.2259 -0.5633  0.2491
14013SOL     OW49088   5.767   4.006  10.318 -0.2612  0.4074  0.2923
14013SOL    HW149089   5.797   3.918  10.340 -1.5598 -0.4106 -1.0162
14013SOL    HW249090   5.780   4.056  10.398  0.5848 -0.9372  1.0497
14014SOL     OW49091   1.058   5.931  10.385 -0.0702  0.0562  0.0915
14014SOL    HW149092   1.057   5.891  10.298  1.5815 -0.1882  0.1548
14014SOL    HW249093   1.097   5.864  10.441 -0.7548  0.3632  0.9446
14015SOL     OW49094   0.715   8.200   6.720 -0.2115 -0.1168  0.0054
14015SOL    HW149095   0.808   8.211   6.738 -0.2622  0.2693  0.0422
14015SOL    HW249096   0.680   8.157   6.798 -0.1740  0.2913  0.2530
14016SOL     OW49097  11.915  10.520  10.832  0.0374  0.1159 -0.3871
14016SOL    HW149098  11.976  10.539  10.904 -1.2750  1.0651  0.5154
14016SOL    HW249099  11.927  10.593  10.771  0.1298  0.0657 -0.4283
14017SOL     OW49100   9.300  12.101  10.207 -0.0433 -0.2321 -0.0189
14017SOL    HW149101   9.325  12.012  10.181 -0.1332 -0.3377  0.2441
14017SOL    HW249102   9.330  12.156  10.136 -0.6307 -0.5550 -0.5345
14018SOL     OW49103   1.706   0.383   3.664  0.0179 -0.7967  0.6184
14018SOL    HW149104   1.661   0.447   3.608  0.3394  0.4408  1.7307
14018SOL    HW249105   1.650   0.376   3.741  2.2781  1.8947  2.7198
14019SOL     OW49106   0.668   0.661   8.392  0.1865  0.7946  0.0928
14019SOL    HW149107   0.721   0.602   8.339  0.6663  1.4030 -0.1068
14019SOL    HW249108   0.606   0.603   8.437  0.9593  0.0936  0.2686
14020SOL     OW49109   3.876   4.398   4.278  0.0944  0.0525 -0.1743
14020SOL    HW149110   3.784   4.387   4.302  0.3159  0.6265  1.0364
14020SOL    HW249111   3.924   4.341   4.339  0.5908  0.4854 -0.1433
14021SOL     OW49112  10.444   5.122   2.460  0.4480  0.3030 -0.0653
14021SOL    HW149113  10.372   5.058   2.459  0.4679  0.2887 -0.4719
14021SOL    HW249114  10.497   5.100   2.384  1.0066  0.1762  0.3581
14022SOL     OW49115   7.975   7.217   4.416  0.1865  0.9354 -0.0295
14022SOL    HW149116   8.006   7.240   4.504 -1.3413 -0.2501  0.8707
14022SOL    HW249117   7.879   7.224   4.422 -0.3797 -3.7096 -0.1302
14023SOL     OW49118   8.601   3.123  10.885  0.0822 -0.4099 -0.5134
14023SOL    HW149119   8.550   3.051  10.923  0.4456 -0.9312 -0.9888
14023SOL    HW249120   8.656   3.154  10.956 -0.4752 -0.2316 -0.1518
14024SOL     OW49121  10.604   6.857   6.146 -0.4810  0.2646  0.0477
14024SOL    HW149122  10.640   6.804   6.075  0.5314  1.4722 -0.3658
14024SOL    HW249123  10.595   6.795   6.219  1.2805 -0.3685 -0.2218
14025SOL     OW49124   5.098   7.876  11.461 -0.0517 -0.0253 -0.4878
14025SOL    HW149125   5.141   7.961  11.465  1.0006 -0.6030  1.3693
14025SOL    HW249126   5.152   7.825  11.401 -0.4511  0.4626 -1.2802
14026SOL     OW49127   7.693   6.590  10.256 -0.0507  0.4120  0.4967
14026SOL    HW149128   7.771   6.638  10.225  1.0187 -1.3010  0.4180
14026SOL    HW249129   7.664   6.640  10.332  0.3603  1.7991 -0.2158
14027SOL     OW49130   9.297  10.151   9.125 -0.5922 -0.1421 -1.4206
14027SOL    HW149131   9.329  10.092   9.193 -2.1000 -0.8246 -1.2503
14027SOL    HW249132   9.327  10.113   9.043  0.3518  0.1175 -1.2111
14028SOL     OW49133  11.548   7.922  12.501  0.4943 -0.3324 -0.3049
14028SOL    HW149134  11.620   7.975  12.535  0.6814 -0.4201 -0.5657
14028SOL    HW249135  11.554   7.840  12.550  0.0259 -0.0151  0.3090
14029SOL     OW49136   0.456   2.789   9.894  0.3331 -0.3042 -0.0858
14029SOL    HW149137   0.390   2.829   9.837 -1.7204 -1.9257  1.0214
14029SOL    HW249138   0.529   2.768   9.835  0.4382  2.5723 -1.1421
14030SOL     OW49139   7.591  10.162   9.680 -0.1747  0.0994  0.3450
14030SOL    HW149140   7.685  10.145   9.692 -0.3973 -0.8499  0.8468
14030SOL    HW249141   7.588  10.242   9.629  0.9217 -0.3784 -0.5120
14031SOL     OW49142   0.178   6.461   8.958 -0.0179 -0.0400 -0.0806
14031SOL    HW149143   0.139   6.521   8.894  0.1923 -0.5881 -0.7405
14031SOL    HW249144   0.207   6.386   8.905 -2.1436 -1.6824  0.9450
14032SOL     OW49145   2.057   7.306   2.365 -0.2525 -0.0992  0.0619
14032SOL    HW149146   2.016   7.234   2.413 -0.6099  1.1781  1.7936
14032SOL    HW249147   2.043   7.285   2.273 -3.2069 -0.6726  0.5414
14033SOL     OW49148   6.446   9.620   1.347  0.5478 -0.0306  0.0069
14033SOL    HW149149   6.455   9.705   1.390  0.5263  0.3796 -0.7914
14033SOL    HW249150   6.487   9.632   1.261  0.4619 -0.7988 -0.1460
14034SOL     OW49151   4.761   2.848  10.173 -0.0100  0.2031 -0.0136
14034SOL    HW149152   4.771   2.815  10.262  0.5696  0.6799  0.0986
14034SOL    HW249153   4.846   2.833  10.132 -0.0631  0.6277 -0.2768
14035SOL     OW49154  12.150   5.785   2.961  0.4245 -0.5279  0.3909
14035SOL    HW149155  12.148   5.868   2.912  1.6395 -1.2424 -0.9531
14035SOL    HW249156  12.213   5.802   3.032  1.2736 -0.5155 -0.3441
14036SOL     OW49157  11.314   5.197   5.680 -0.2162  0.1786  0.0291
14036SOL    HW149158  11.241   5.145   5.647  0.6674  0.7873 -3.2516
14036SOL    HW249159  11.290   5.288   5.662  1.0767  0.4296 -0.5606
14037SOL     OW49160   6.406   2.869   5.274  0.6172 -0.2781 -0.2189
14037SOL    HW149161   6.319   2.831   5.258  0.6475 -0.1193 -0.8091
14037SOL    HW249162   6.461   2.831   5.205  0.6343  0.8638 -0.8730
14038SOL     OW49163   3.828   2.945   9.439 -0.6447 -0.2042 -0.0292
14038SOL    HW149164   3.788   2.877   9.385 -0.6468 -1.4910  1.5394
14038SOL    HW249165   3.911   2.907   9.467 -0.4220  0.6413  0.4794
14039SOL     OW49166   6.769   1.083   2.600 -0.8207 -0.1012  0.4451
14039SOL    HW149167   6.688   1.082   2.651 -1.8585  2.4253 -1.0181
14039SOL    HW249168   6.751   1.141   2.526  2.6642  1.5274  0.6712
14040SOL     OW49169   3.062   2.960   1.810  0.3248 -0.0772  0.0009
14040SOL    HW149170   3.129   3.027   1.825 -1.7410  1.8304  1.4664
14040SOL    HW249171   3.039   2.929   1.898 -1.3112  0.0073 -0.3585
14041SOL     OW49172   5.935   5.465   9.655 -0.3190  0.1123 -0.1195
14041SOL    HW149173   5.889   5.381   9.659 -0.5401  0.1942 -0.7366
14041SOL    HW249174   5.870   5.530   9.683  0.0116  0.0249  0.8639
14042SOL     OW49175   5.292   5.756   9.091 -0.2119  0.1730 -0.7246
14042SOL    HW149176   5.354   5.822   9.122 -0.7491 -0.6098  2.3553
14042SOL    HW249177   5.206   5.790   9.116 -0.5781 -1.1301 -0.1291
14043SOL     OW49178   0.470  10.493   1.608  0.5734  0.2477  0.2690
14043SOL    HW149179   0.398  10.521   1.551 -1.0032 -0.3336  1.8807
14043SOL    HW249180   0.537  10.460   1.548 -0.1365  1.5908 -1.3219
14044SOL     OW49181   3.835  10.412   7.487  0.4261 -0.0587  0.0767
14044SOL    HW149182   3.828  10.365   7.570  2.2318  0.4502  0.5639
14044SOL    HW249183   3.862  10.345   7.424  1.5700  0.0132  0.4650
14045SOL     OW49184   6.107   0.611  11.731  0.1508  0.0805 -0.0186
14045SOL    HW149185   6.155   0.572  11.804 -0.0600  0.8916  0.5719
14045SOL    HW249186   6.032   0.553  11.719 -0.5688  0.6758  1.3423
14046SOL     OW49187   6.708   2.010   8.074  0.6680 -0.4238 -0.1185
14046SOL    HW149188   6.637   1.950   8.096  0.2369 -0.2342 -0.9432
14046SOL    HW249189   6.780   1.985   8.132 -0.1048 -0.5403  0.8032
14047SOL     OW49190   8.569  11.522  11.785  0.6178 -0.2067 -0.0594
14047SOL    HW149191   8.546  11.610  11.756 -1.4376 -0.4808  0.5922
14047SOL    HW249192   8.648  11.534  11.839 -0.6937  1.5302  1.5746
14048SOL     OW49193   3.330   5.789  11.086  0.1914  0.4136 -0.2312
14048SOL    HW149194   3.421   5.760  11.095  0.2019  0.5782  0.2148
14048SOL    HW249195   3.301   5.806  11.176 -0.5842 -0.5527 -0.2822
14049SOL     OW49196   4.097   0.610   8.275  0.2180  0.1214 -0.2573
14049SOL    HW149197   4.099   0.515   8.263  0.1997  0.0659  0.1598
14049SOL    HW249198   4.005   0.630   8.294  0.0526  0.3418 -1.2730
14050SOL     OW49199  10.478   8.188   4.620 -0.1593  0.2689 -0.6461
14050SOL    HW149200  10.448   8.250   4.687  0.2943 -0.7182  0.4977
14050SOL    HW249201  10.421   8.112   4.630  1.6686 -1.0153  0.5339
14051SOL     OW49202   4.972   6.869   1.124  0.4436  0.4154  0.4069
14051SOL    HW149203   5.035   6.854   1.054  1.4813  0.7999  1.2262
14051SOL    HW249204   4.938   6.957   1.107  0.3451  0.3255  0.1332
14052SOL     OW49205   7.587   0.631   2.648  0.4276  0.2221 -0.9688
14052SOL    HW149206   7.569   0.718   2.685  0.7061 -0.1790  0.1249
14052SOL    HW249207   7.509   0.612   2.595 -1.1503 -0.2456  1.3816
14053SOL     OW49208   4.327  11.398   2.851 -1.0564  0.4722 -0.2188
14053SOL    HW149209   4.285  11.484   2.852 -0.9420  0.5320 -0.5598
14053SOL    HW249210   4.361  11.389   2.763  1.4503  1.2734  0.5944
14054SOL     OW49211   4.853   9.304   1.921 -0.1698 -0.4695  0.2190
14054SOL    HW149212   4.842   9.363   1.847  0.5028 -0.0838  0.4176
14054SOL    HW249213   4.791   9.233   1.904 -0.5624 -0.0057 -0.3216
14055SOL     OW49214   0.216   2.392   3.635 -0.0247  0.2613 -0.4717
14055SOL    HW149215   0.279   2.459   3.661  0.5235 -0.7818  1.0593
14055SOL    HW249216   0.234   2.377   3.542  1.0857  0.9241 -0.3878
14056SOL     OW49217   8.212  11.977   2.318 -1.2692  0.8555  0.2916
14056SOL    HW149218   8.202  12.068   2.344 -0.1556  0.9886  0.2824
14056SOL    HW249219   8.293  11.948   2.359 -2.7407 -0.8465  2.2231
14057SOL     OW49220   9.463   5.289   9.905  0.0391 -0.0143 -0.0064
14057SOL    HW149221   9.465   5.315   9.813 -1.5659 -0.7013 -0.2877
14057SOL    HW249222   9.488   5.196   9.904  0.5183  0.1106  0.3158
14058SOL     OW49223   0.032  10.608   9.295 -0.4594  0.0016 -0.4316
14058SOL    HW149224  -0.031  10.671   9.331  0.5382  0.5019  0.5202
14058SOL    HW249225   0.082  10.578   9.372  0.3666 -0.4799 -1.1373
14059SOL     OW49226   2.871   1.695   9.839 -0.0925  0.2169 -0.0878
14059SOL    HW149227   2.924   1.750   9.897 -0.0331  0.5957 -0.5019
14059SOL    HW249228   2.902   1.606   9.856  0.8305  0.4568 -0.4967
14060SOL     OW49229   0.897   4.980   6.351 -0.0969  0.0732  0.1152
14060SOL    HW149230   0.973   5.019   6.309  0.5777  1.2431  2.2616
14060SOL    HW249231   0.828   5.045   6.343 -0.0208  0.2214  0.6159
14061SOL     OW49232   8.650   8.690   5.258 -0.1415 -0.4065 -0.0043
14061SOL    HW149233   8.744   8.697   5.277 -0.1815  0.1303  0.0067
14061SOL    HW249234   8.613   8.773   5.286 -0.8040 -1.0195  0.9867
14062SOL     OW49235   9.047   1.124   8.399  0.5078 -0.1784 -0.2413
14062SOL    HW149236   9.022   1.133   8.491 -0.2797  1.5299 -0.5858
14062SOL    HW249237   9.130   1.173   8.392  0.9655 -0.9465 -0.2977
14063SOL     OW49238   0.967  11.113  10.157 -0.4479  0.0091  0.5671
14063SOL    HW149239   0.993  11.169  10.230  1.0757 -0.8850  0.7608
14063SOL    HW249240   1.002  11.156  10.079 -1.2605  0.4729  0.4394
14064SOL     OW49241   7.329   4.681   6.275 -0.3892  0.0748 -0.1161
14064SOL    HW149242   7.293   4.734   6.204  0.2777 -0.5689 -0.9414
14064SOL    HW249243   7.403   4.732   6.308 -0.6390  0.3266  0.0619
14065SOL     OW49244   5.750  10.464   0.399 -0.3482 -0.0857 -0.5408
14065SOL    HW149245   5.766  10.398   0.332  1.9726  0.7685 -0.9214
14065SOL    HW249246   5.837  10.483   0.436 -1.3247  0.7135  1.5252
14066SOL     OW49247   4.134   0.682   5.177  0.1674  0.0754 -0.1326
14066SOL    HW149248   4.147   0.737   5.255 -2.2680  0.6140 -0.0054
14066SOL    HW249249   4.178   0.600   5.198  0.8009  0.7198  1.2222
14067SOL     OW49250   5.557   9.599   2.845 -0.0617 -0.3260 -0.4808
14067SOL    HW149251   5.482   9.631   2.794  0.8642 -0.1264 -1.7486
14067SOL    HW249252   5.608   9.548   2.782  1.5609  0.6365  0.0195
14068SOL     OW49253   5.615   4.292   0.636  0.3017 -0.1755 -0.1443
14068SOL    HW149254   5.586   4.291   0.544  1.7432  0.3109 -0.6448
14068SOL    HW249255   5.534   4.294   0.687 -0.5545 -1.6780 -1.3664
14069SOL     OW49256   7.735   9.532   3.711  0.3109  0.2413  0.2800
14069SOL    HW149257   7.707   9.577   3.631 -1.3379 -0.2295  0.5640
14069SOL    HW249258   7.797   9.593   3.751 -0.5414  1.4977 -0.2285
14070SOL     OW49259   9.746   2.873  11.904 -0.8090  0.4528  0.1115
14070SOL    HW149260   9.789   2.867  11.989 -0.2507 -2.3919 -0.2730
14070SOL    HW249261   9.810   2.916  11.847  0.6430 -1.5386  0.1462
14071SOL     OW49262   1.108   2.810   3.138  0.6534 -0.4711 -0.2462
14071SOL    HW149263   1.188   2.758   3.131 -0.2097 -1.7723 -0.8018
14071SOL    HW249264   1.060   2.792   3.057  1.0153  2.4581 -1.2315
14072SOL     OW49265   9.992   0.101   9.212 -0.2832 -0.4575  0.7205
14072SOL    HW149266  10.017   0.177   9.265 -1.1420  0.9060 -0.7295
14072SOL    HW249267  10.070   0.046   9.210  0.8116  1.0370  0.7413
14073SOL     OW49268   7.946   3.577  12.467 -0.5871 -0.6042  0.1849
14073SOL    HW149269   7.931   3.530  12.549 -0.7790  0.1800  0.6086
14073SOL    HW249270   8.040   3.566  12.450 -0.3319  0.1055  1.0676
14074SOL     OW49271   0.993   6.602   5.427 -0.3815 -0.2210  0.6943
14074SOL    HW149272   0.974   6.695   5.412 -0.0083  0.0852  1.9675
14074SOL    HW249273   1.036   6.573   5.347 -0.5494  0.6901  0.2563
14075SOL     OW49274   0.574   7.980  10.714  0.0036  0.4013  0.2504
14075SOL    HW149275   0.586   7.927  10.635  0.5861  0.6824  0.1404
14075SOL    HW249276   0.492   8.028  10.699 -1.0624 -1.1976  0.7891
14076SOL     OW49277   3.148   2.564  11.014 -0.5401  0.2565  0.8112
14076SOL    HW149278   3.085   2.588  10.946 -0.8944 -0.1305  0.9978
14076SOL    HW249279   3.147   2.638  11.075 -0.7083  0.3170  0.7353
14077SOL     OW49280   3.689  10.597  11.293 -0.5273 -0.0336 -0.0307
14077SOL    HW149281   3.779  10.569  11.282 -0.4658  0.1919 -0.1066
14077SOL    HW249282   3.657  10.549  11.369 -0.2720  0.0621  0.1358
14078SOL     OW49283   4.966   2.940   4.860  0.5663  0.3942 -0.2505
14078SOL    HW149284   5.047   2.894   4.839  0.8388 -0.0420  1.5556
14078SOL    HW249285   4.993   3.030   4.877  0.2039  1.0025 -2.5858
14079SOL     OW49286   6.496   1.803   4.289 -0.5035 -0.0761 -0.0419
14079SOL    HW149287   6.530   1.794   4.378  0.4956 -0.7426 -0.4695
14079SOL    HW249288   6.418   1.858   4.298 -0.4987 -0.2579  1.2578
14080SOL     OW49289   9.500  12.388   0.681  0.4767  0.2694  0.0428
14080SOL    HW149290   9.511  12.458   0.745  0.3675  1.8052 -1.5273
14080SOL    HW249291   9.563  12.408   0.612  0.7243 -1.4354 -0.2770
14081SOL     OW49292   1.225   4.805  11.671  0.5651  0.0889 -0.1316
14081SOL    HW149293   1.209   4.789  11.764  0.4347 -1.1968 -0.3561
14081SOL    HW249294   1.233   4.718  11.633  0.0390  0.5920 -1.4359
14082SOL     OW49295   1.597   4.487   0.140  0.4322 -0.0068 -0.1948
14082SOL    HW149296   1.659   4.544   0.185  0.7219  0.6767 -1.4064
14082SOL    HW249297   1.643   4.403   0.132  0.9147  0.2763 -0.4223
14083SOL     OW49298   8.721  11.317   8.981  0.0915  0.5215  0.7170
14083SOL    HW149299   8.647  11.369   9.011 -1.0906 -0.0143 -1.1166
14083SOL    HW249300   8.765  11.373   8.917 -0.0693 -0.0261  0.1286
14084SOL     OW49301   1.679  11.913   6.256 -0.0184  0.0970 -0.6903
14084SOL    HW149302   1.590  11.908   6.292  0.1518 -1.0802 -0.3842
14084SOL    HW249303   1.676  11.857   6.178  1.0203 -1.9711  0.6494
14085SOL     OW49304  10.434   5.651   2.197  0.1519  0.1167 -0.5986
14085SOL    HW149305  10.407   5.738   2.166  0.7252  0.2676 -0.6960
14085SOL    HW249306  10.358   5.617   2.243 -0.0220  0.7485 -0.4075
14086SOL     OW49307   1.190   3.672  10.153 -0.7512 -0.2235  0.1830
14086SOL    HW149308   1.285   3.665  10.152 -0.7913 -1.0628  0.8778
14086SOL    HW249309   1.160   3.606  10.091 -0.8599  1.0433 -1.1715
14087SOL     OW49310   5.828   8.576   2.681  0.1102  0.5815 -0.8114
14087SOL    HW149311   5.799   8.538   2.764  1.7614 -1.5121 -1.1260
14087SOL    HW249312   5.775   8.533   2.614  0.8423  0.0294 -1.0489
14088SOL     OW49313   0.178   5.121   7.440 -0.9542  0.0059  0.3638
14088SOL    HW149314   0.098   5.162   7.407 -1.7096 -0.8461  1.0706
14088SOL    HW249315   0.199   5.054   7.375 -1.0594 -0.0473  0.3843
14089SOL     OW49316  11.968   2.510  11.288  0.2641 -0.0307  0.0764
14089SOL    HW149317  11.937   2.539  11.203 -0.0887 -0.3576  0.0915
14089SOL    HW249318  12.050   2.558  11.302  0.2632  0.1062 -0.3923
14090SOL     OW49319   8.914  11.183   5.507  0.0634 -0.0264  0.0432
14090SOL    HW149320   9.010  11.187   5.507  0.1974 -2.0629  1.2254
14090SOL    HW249321   8.888  11.226   5.588  0.0175 -0.0109  0.0203
14091SOL     OW49322   5.211   0.150  12.211 -0.5528  0.5038  0.4574
14091SOL    HW149323   5.276   0.114  12.151 -1.4708  1.0002 -0.8803
14091SOL    HW249324   5.211   0.089  12.285  2.5193  1.3278  1.2615
14092SOL     OW49325   3.357   0.514   1.046 -0.2194  0.2416  0.2377
14092SOL    HW149326   3.340   0.568   1.123  1.1305  2.9935 -1.2268
14092SOL    HW249327   3.279   0.525   0.992 -0.1662  0.2831  0.1695
14093SOL     OW49328   9.601   1.200   3.555 -0.3057 -0.2119  0.2994
14093SOL    HW149329   9.539   1.252   3.606 -0.2758 -1.1634  1.3459
14093SOL    HW249330   9.664   1.264   3.522 -0.7565  0.5209  0.8197
14094SOL     OW49331   1.044   9.685   4.781 -0.2742 -0.1092 -0.2395
14094SOL    HW149332   1.087   9.600   4.780 -0.2915 -0.1373  0.4744
14094SOL    HW249333   0.996   9.687   4.864  0.8382  1.1151  0.4316
14095SOL     OW49334   4.717   2.053   4.185  0.4114 -0.1613  0.0288
14095SOL    HW149335   4.669   2.040   4.267  0.3952 -1.1347 -0.1257
14095SOL    HW249336   4.738   1.964   4.155  0.2973  0.1756 -1.0923
14096SOL     OW49337   8.350   2.426   1.797 -0.1801  1.0990  0.4176
14096SOL    HW149338   8.269   2.465   1.830  0.2538  1.0123  1.6491
14096SOL    HW249339   8.419   2.486   1.826  0.1668  1.4210 -1.0340
14097SOL     OW49340   7.130   5.585   8.299 -0.0399 -0.5792  0.2478
14097SOL    HW149341   7.098   5.670   8.268 -0.2288 -0.9102 -0.4966
14097SOL    HW249342   7.160   5.602   8.388  2.2753  0.8500 -0.7109
14098SOL     OW49343  12.291   4.835   2.740 -0.8702  0.4380 -0.0346
14098SOL    HW149344  12.380   4.803   2.752  0.0307  1.9698 -1.9710
14098SOL    HW249345  12.238   4.782   2.799  1.0002 -2.0302 -0.4098
14099SOL     OW49346   6.574  10.808   2.834 -0.0392  0.0132 -0.5175
14099SOL    HW149347   6.630  10.872   2.789  0.4242 -0.7377 -1.0281
14099SOL    HW249348   6.617  10.793   2.918 -0.8062  1.2765  0.1425
14100SOL     OW49349   7.542   1.012   1.958 -0.0226 -0.9819  0.1797
14100SOL    HW149350   7.627   1.006   1.916  0.5884 -0.8326  1.3484
14100SOL    HW249351   7.561   1.005   2.052 -1.4780 -3.0896  0.3859
14101SOL     OW49352   0.243   3.633   4.549 -0.0110  1.1035 -0.2189
14101SOL    HW149353   0.207   3.553   4.586 -2.2800  1.5360 -1.3390
14101SOL    HW249354   0.245   3.695   4.622  2.4716 -0.0850  0.8447
14102SOL     OW49355   3.156   0.279   5.626  0.1277  0.4590 -0.1718
14102SOL    HW149356   3.149   0.188   5.655  2.2994  0.2534 -0.1245
14102SOL    HW249357   3.126   0.331   5.701  0.3932 -0.1926  0.3906
14103SOL     OW49358  10.400   8.339   3.435 -0.2266  0.3164  0.3953
14103SOL    HW149359  10.455   8.362   3.510 -1.0669  0.4775  0.9662
14103SOL    HW249360  10.463   8.313   3.367  0.5217 -0.5693  1.3940
14104SOL     OW49361  10.645   9.419   8.907 -0.5350  0.2499 -0.1700
14104SOL    HW149362  10.668   9.333   8.871 -0.8570  0.1922 -0.2407
14104SOL    HW249363  10.719   9.441   8.964 -1.1102 -0.7483  1.0116
14105SOL     OW49364   5.823  11.416   1.710 -0.3156  0.0690 -0.5264
14105SOL    HW149365   5.803  11.508   1.724  0.6035 -0.0902  2.7548
14105SOL    HW249366   5.893  11.416   1.645 -0.0669  1.7300 -0.2980
14106SOL     OW49367   5.434   3.392   5.808  0.1253 -0.5570 -0.0580
14106SOL    HW149368   5.344   3.409   5.780 -0.2027 -1.1536  0.6343
14106SOL    HW249369   5.471   3.480   5.823 -0.4081 -0.3211 -0.1061
14107SOL     OW49370   9.066   0.773   9.976  0.1027  0.1826  0.5636
14107SOL    HW149371   9.155   0.765   9.943  0.5495 -0.1532  1.8113
14107SOL    HW249372   9.069   0.735  10.064 -0.8611  1.7465  1.3214
14108SOL     OW49373   8.076  11.796  10.769 -0.0424  0.3866  0.3545
14108SOL    HW149374   8.030  11.836  10.695  0.7111  1.0661  0.2449
14108SOL    HW249375   8.023  11.719  10.791 -0.2094  0.1050 -0.9594
14109SOL     OW49376   9.803   3.540   9.363 -0.0129 -0.5291  0.0880
14109SOL    HW149377   9.887   3.502   9.390 -0.1919 -1.5825 -0.7441
14109SOL    HW249378   9.827   3.618   9.313  0.3941  0.1241  1.2739
14110SOL     OW49379  11.919   2.627   4.409  0.5171 -0.2547 -0.2598
14110SOL    HW149380  11.893   2.629   4.501  0.6213  0.4972 -0.2350
14110SOL    HW249381  11.852   2.680   4.365  0.8919  0.0259 -0.4940
14111SOL     OW49382   9.233   9.705  10.422 -0.5002  0.2693  0.6291
14111SOL    HW149383   9.259   9.739  10.336 -0.9942  1.4079  0.9132
14111SOL    HW249384   9.293   9.748  10.484 -0.7712  0.1892  0.9487
14112SOL     OW49385   0.729   9.006   8.952 -0.3792  0.1357  0.2566
14112SOL    HW149386   0.648   9.031   8.996 -0.3780  0.8437 -0.1254
14112SOL    HW249387   0.721   8.912   8.937  0.6719 -0.7552  4.0164
14113SOL     OW49388  10.043   5.569   9.255 -0.0534  0.0231  0.3907
14113SOL    HW149389  10.004   5.627   9.320  1.4457  0.8424  0.6026
14113SOL    HW249390  10.088   5.628   9.194 -1.2172 -0.7391 -1.2761
14114SOL     OW49391  10.882  12.341   0.514  0.6402  0.6036 -0.0945
14114SOL    HW149392  10.862  12.403   0.584  2.3755  1.4400 -0.2859
14114SOL    HW249393  10.800  12.293   0.501  0.0120  1.0424  1.8614
14115SOL     OW49394   8.018   2.841   6.870 -0.0443  0.1543 -0.7964
14115SOL    HW149395   8.055   2.921   6.906  0.5218 -0.1458 -0.6965
14115SOL    HW249396   8.057   2.835   6.782  0.2956 -0.2650 -0.6175
14116SOL     OW49397   9.839   6.249   1.787 -0.5591  0.2764 -0.6039
14116SOL    HW149398   9.898   6.183   1.825 -0.7767 -1.1029 -2.5271
14116SOL    HW249399   9.897   6.309   1.741 -0.5186  0.1171 -0.7598
14117SOL     OW49400  10.003   5.697  10.837 -0.1905  0.2202  0.5575
14117SOL    HW149401  10.002   5.722  10.745  0.6835  1.7567  0.9130
14117SOL    HW249402  10.093   5.666  10.853 -0.2222  0.3296  0.9668
14118SOL     OW49403   4.454   5.396   3.909  0.6392 -0.0555 -0.0260
14118SOL    HW149404   4.451   5.387   3.814  1.5056  1.2717 -0.2109
14118SOL    HW249405   4.408   5.478   3.927 -0.7082 -0.9495  0.8578
14119SOL     OW49406  10.456   6.931   7.175  0.4651  0.1807 -0.2221
14119SOL    HW149407  10.445   6.856   7.117  1.4786 -0.3178  0.2104
14119SOL    HW249408  10.540   6.917   7.218  1.2373  2.1433 -0.9777
14120SOL     OW49409   7.893   3.908   0.223  0.0053 -0.3791  0.0276
14120SOL    HW149410   7.862   3.886   0.311 -0.2727 -0.7204 -0.1519
14120SOL    HW249411   7.814   3.919   0.171  0.1702 -0.2971 -0.2094
14121SOL     OW49412   6.493   1.836  10.950 -0.0503  0.0137  0.0722
14121SOL    HW149413   6.485   1.924  10.987 -0.2304 -0.7443  1.9841
14121SOL    HW249414   6.420   1.829  10.888  0.9112  1.7233 -1.3465
14122SOL     OW49415   8.647   6.304   0.977 -0.3690  0.0121  0.1884
14122SOL    HW149416   8.654   6.398   0.997 -0.3579  0.2692 -0.9461
14122SOL    HW249417   8.712   6.290   0.908 -0.3799 -0.8392  0.3439
14123SOL     OW49418   8.158   6.247  11.207 -0.1219  0.0912  0.3859
14123SOL    HW149419   8.142   6.340  11.223 -0.9991 -0.2749  1.8881
14123SOL    HW249420   8.071   6.206  11.212  0.3354 -0.9034  0.5278
14124SOL     OW49421   9.439   0.933   5.751 -0.3799  0.8413  0.2342
14124SOL    HW149422   9.380   0.984   5.806 -1.6466  0.8733 -1.0948
14124SOL    HW249423   9.428   0.969   5.663  1.2966  0.5430 -0.1439
14125SOL     OW49424   7.987   4.306   6.096  0.7019  0.3227 -0.3063
14125SOL    HW149425   8.031   4.221   6.097  2.1234  0.9838 -1.5584
14125SOL    HW249426   7.948   4.312   6.009 -0.0764  0.6256  0.0578
14126SOL     OW49427   2.663   2.228   6.245  0.6338  0.3848  0.3643
14126SOL    HW149428   2.671   2.135   6.224 -0.1194  0.2093  0.8299
14126SOL    HW249429   2.650   2.271   6.161  0.5161  0.0184  0.1934
14127SOL     OW49430   3.939  11.254   8.677  0.0187  0.0996 -0.0479
14127SOL    HW149431   4.011  11.203   8.714 -0.6925 -1.7096 -1.0264
14127SOL    HW249432   3.973  11.286   8.593 -0.4866 -1.3154 -0.8233
14128SOL     OW49433  10.097   2.176   6.823 -0.0698 -0.2286 -0.7877
14128SOL    HW149434  10.037   2.231   6.772  1.1423  0.7852 -1.1608
14128SOL    HW249435  10.042   2.137   6.891 -1.3709 -0.2027 -1.7854
14129SOL     OW49436  10.110  11.231   3.448  0.1375 -0.3740  0.1977
14129SOL    HW149437  10.127  11.153   3.396 -0.2609 -1.1358  1.1629
14129SOL    HW249438  10.192  11.279   3.447 -0.1564  0.1857 -1.9791
14130SOL     OW49439  11.495   9.660   4.723 -0.2524 -0.6501  0.9100
14130SOL    HW149440  11.569   9.690   4.670 -0.2686 -1.3864  0.4538
14130SOL    HW249441  11.443   9.739   4.738  1.6432  0.2977  2.9437
14131SOL     OW49442   3.109   5.989  12.412  0.5492 -0.2047 -0.0139
14131SOL    HW149443   3.112   6.065  12.470 -0.8869  1.4931 -2.0348
14131SOL    HW249444   3.113   6.025  12.324 -1.7753 -2.3293 -1.1132
14132SOL     OW49445  12.554   3.307   4.797  0.0431  0.0902  0.3482
14132SOL    HW149446  12.621   3.265   4.851 -0.8250 -0.7206  0.8251
14132SOL    HW249447  12.512   3.235   4.750 -0.3060  0.6167 -0.1692
14133SOL     OW49448   9.155   0.743   5.441  0.2350 -0.5407 -0.6507
14133SOL    HW149449   9.153   0.762   5.535  1.6279  3.4176 -1.2685
14133SOL    HW249450   9.217   0.670   5.433  1.7002  0.3853  1.3687
14134SOL     OW49451   8.690   9.868   0.071 -0.0516  0.6374 -0.2797
14134SOL    HW149452   8.606   9.897   0.034 -0.0961  1.7367  0.6268
14134SOL    HW249453   8.682   9.772   0.074 -0.8740  0.6553 -1.1185
14135SOL     OW49454   0.819   5.811   9.071 -0.0894 -0.4196  0.3967
14135SOL    HW149455   0.753   5.850   9.129  0.4914  0.0394  0.7552
14135SOL    HW249456   0.885   5.776   9.131  1.8152  2.2862  0.0311
14136SOL     OW49457   2.294  11.760   2.263 -0.9572 -0.2372  0.2089
14136SOL    HW149458   2.266  11.852   2.268 -2.0762 -0.5459 -0.0915
14136SOL    HW249459   2.233  11.720   2.201 -0.4048 -1.1607  0.2486
14137SOL     OW49460  12.304   3.163  11.663 -0.1920 -0.0296 -0.4519
14137SOL    HW149461  12.310   3.073  11.631  1.9807 -0.3289  0.5844
14137SOL    HW249462  12.215   3.170  11.698 -1.2628 -0.9323 -2.7823
14138SOL     OW49463   2.299   1.996   8.413  0.0434  0.4313  0.3959
14138SOL    HW149464   2.224   2.055   8.404 -0.3526 -0.0862  0.2346
14138SOL    HW249465   2.288   1.957   8.500  0.3439  0.6514  0.5315
14139SOL     OW49466   3.852   2.955  12.427 -0.3549  0.4223 -0.1212
14139SOL    HW149467   3.773   2.994  12.464 -0.0981  1.8194 -0.9659
14139SOL    HW249468   3.898   3.029  12.385 -0.1978 -0.8942 -2.4442
14140SOL     OW49469   6.925   2.884   1.721  0.3313  0.0945  0.7332
14140SOL    HW149470   6.878   2.941   1.661  1.3377 -0.8088 -0.9936
14140SOL    HW249471   6.999   2.936   1.752 -0.4108  0.6958  1.5418
14141SOL     OW49472   6.403   8.626  11.421 -0.1515  0.3500  0.1622
14141SOL    HW149473   6.374   8.553  11.368 -0.8279 -0.8143  2.0217
14141SOL    HW249474   6.322   8.663  11.457  0.2704  1.2016  0.2812
14142SOL     OW49475   0.102   6.406   0.781  0.4443 -0.0204  0.3758
14142SOL    HW149476   0.063   6.468   0.719  0.6082 -1.6114 -1.4087
14142SOL    HW249477   0.139   6.461   0.850 -1.0005  1.7547 -0.1866
14143SOL     OW49478   3.141  12.315   4.784 -0.5868  0.2911  0.0066
14143SOL    HW149479   3.153  12.266   4.865 -3.5391 -2.2991 -0.8984
14143SOL    HW249480   3.062  12.368   4.799  0.1542  1.5768 -0.4652
14144SOL     OW49481   9.423   8.240   4.190  0.2437  0.2722 -0.2715
14144SOL    HW149482   9.491   8.307   4.196 -0.4777  1.1317 -1.2831
14144SOL    HW249483   9.460   8.172   4.135  0.5345  0.4024 -0.2366
14145SOL     OW49484  12.464   0.358   3.498 -0.0957  0.2374  0.4187
14145SOL    HW149485  12.435   0.429   3.557 -0.3877 -0.3976  1.0647
14145SOL    HW249486  12.428   0.382   3.413  0.1622  1.0767  0.5346
14146SOL     OW49487   7.632   6.476   2.509  0.5237  0.8778  0.2786
14146SOL    HW149488   7.676   6.560   2.501  0.2154  0.9358 -1.0185
14146SOL    HW249489   7.701   6.415   2.535  1.3819  0.9926 -1.5762
14147SOL     OW49490   7.122   3.461   0.655  0.2232  0.0048 -0.4503
14147SOL    HW149491   7.087   3.548   0.676 -1.1405 -0.6771  0.2592
14147SOL    HW249492   7.139   3.421   0.740 -2.8588 -1.8202 -0.5249
14148SOL     OW49493   6.492   7.499   0.301  0.4408  0.0385  0.1691
14148SOL    HW149494   6.518   7.417   0.258 -0.7611 -0.1345 -0.2622
14148SOL    HW249495   6.573   7.532   0.339  0.9150 -1.4648  0.5448
14149SOL     OW49496   2.364   5.731   2.123  0.7655 -0.0644  0.1815
14149SOL    HW149497   2.279   5.774   2.112  1.1208  0.1682 -2.1490
14149SOL    HW249498   2.344   5.638   2.125  0.2396  0.0314  2.6297
14150SOL     OW49499   9.139   5.862   4.288  0.8185  0.0325  0.1793
14150SOL    HW149500   9.172   5.796   4.350  0.1114  0.1297  0.6771
14150SOL    HW249501   9.199   5.857   4.214  2.3782  0.6880  1.3260
14151SOL     OW49502   3.351   5.699   1.036  0.3140  0.3803 -0.0723
14151SOL    HW149503   3.379   5.735   1.120 -0.3398  1.6782 -0.3902
14151SOL    HW249504   3.292   5.765   1.000  1.3435  0.3062 -1.9990
14152SOL     OW49505  12.235  10.443   6.697 -0.5861 -0.1727 -0.3919
14152SOL    HW149506  12.324  10.467   6.671  1.1003 -1.3560  3.5387
14152SOL    HW249507  12.193  10.527   6.717  0.4846  0.3041 -0.0331
14153SOL     OW49508   1.024   2.969   0.477  0.7312  0.3573  0.6305
14153SOL    HW149509   1.095   3.030   0.499  0.9897 -0.7108  2.9316
14153SOL    HW249510   0.953   3.026   0.445  1.5576  1.7049  1.1193
14154SOL     OW49511   5.773  11.089   0.293 -0.4042  0.0515 -0.2307
14154SOL    HW149512   5.824  11.089   0.374  0.1689  0.0100 -0.5835
14154SOL    HW249513   5.816  11.155   0.238  1.1551 -2.0455 -1.6787
14155SOL     OW49514   9.797   8.531   9.125  0.2709 -0.5536 -0.2204
14155SOL    HW149515   9.875   8.585   9.134  0.2993 -0.8620  1.9210
14155SOL    HW249516   9.813   8.456   9.182 -1.6485 -0.5268  0.4293
14156SOL     OW49517   5.414   8.945   9.494  0.2548 -0.0477  0.0904
14156SOL    HW149518   5.471   8.873   9.468  1.2131  0.9347 -0.6416
14156SOL    HW249519   5.472   9.008   9.537 -0.1815  1.1418 -0.9884
14157SOL     OW49520   9.647   7.844   0.422 -0.1120  0.5667  0.0506
14157SOL    HW149521   9.727   7.796   0.441 -0.2568 -0.4233 -1.6527
14157SOL    HW249522   9.656   7.871   0.331 -2.0955 -0.3740 -0.4703
14158SOL     OW49523   0.344   8.222  11.277  0.0761 -0.4930  0.0855
14158SOL    HW149524   0.261   8.218  11.230  0.5092 -2.8710 -0.6113
14158SOL    HW249525   0.351   8.137  11.320  2.1606 -0.3629  0.0851
14159SOL     OW49526   1.654  12.299  10.029 -0.0802 -0.6661 -0.4598
14159SOL    HW149527   1.654  12.214   9.984 -1.3621  0.7343 -3.4248
14159SOL    HW249528   1.746  12.317  10.046  0.4501 -1.5743 -2.0972
14160SOL     OW49529  12.549   9.140   3.881 -0.0543 -0.0110  0.9120
14160SOL    HW149530  12.521   9.054   3.849  0.1678  0.4023 -0.4721
14160SOL    HW249531  12.509   9.148   3.967  0.1264 -1.5999  1.1713
14161SOL     OW49532  11.270   8.961   6.039  0.6670  0.1930  0.2282
14161SOL    HW149533  11.327   9.031   6.071  1.3526 -0.1473 -0.2292
14161SOL    HW249534  11.320   8.919   5.970 -1.1706  1.5547 -2.0844
14162SOL     OW49535   9.696   7.286   3.962  0.0190 -0.1024  0.3134
14162SOL    HW149536   9.676   7.193   3.975 -1.1066 -0.0576 -0.8870
14162SOL    HW249537   9.653   7.330   4.035 -4.0188 -0.0830 -1.8119
14163SOL     OW49538  12.355   2.960  10.770 -0.3225  0.5041 -0.2508
14163SOL    HW149539  12.385   2.987  10.857 -0.2623  1.8729 -0.6609
14163SOL    HW249540  12.272   3.006  10.758 -1.1140 -0.8887 -0.3219
14164SOL     OW49541   8.070  12.239   3.900  0.1507  0.1017 -0.4041
14164SOL    HW149542   8.020  12.210   3.976 -0.2444  3.1040  0.6094
14164SOL    HW249543   8.109  12.159   3.866 -3.6345 -2.1565 -0.0693
14165SOL     OW49544  11.514  12.088   8.360  0.7025 -0.2409 -0.2766
14165SOL    HW149545  11.434  12.121   8.319  0.0855 -0.4579  0.7298
14165SOL    HW249546  11.550  12.164   8.405  1.5915  0.0957 -1.4937
14166SOL     OW49547   3.592   3.060   8.449 -0.2945 -0.0182  0.4231
14166SOL    HW149548   3.627   2.975   8.476 -0.8007  0.0417  1.2848
14166SOL    HW249549   3.503   3.062   8.484  0.4105  1.7384  2.3433
14167SOL     OW49550   8.268   1.673  10.450 -0.3460 -0.2556  0.2652
14167SOL    HW149551   8.304   1.589  10.477 -4.0423 -2.1459 -0.1353
14167SOL    HW249552   8.241   1.661  10.359 -0.1624  1.6842 -0.0975
14168SOL     OW49553  10.327  10.769   0.238 -0.4174 -1.0538  0.1281
14168SOL    HW149554  10.401  10.724   0.278  1.1111 -0.0021 -1.4082
14168SOL    HW249555  10.270  10.792   0.312  1.8299  0.0079  1.6313
14169SOL     OW49556  10.375   6.715  10.420  0.1767  0.0712  0.3704
14169SOL    HW149557  10.416   6.801  10.425 -1.1068  0.6965  0.3614
14169SOL    HW249558  10.300   6.720  10.479 -1.1300 -0.3345 -1.1860
14170SOL     OW49559   9.992   8.065   1.084  0.7684 -0.1651 -0.1615
14170SOL    HW149560  10.021   8.095   0.998  0.4879 -0.0901 -0.2301
14170SOL    HW249561  10.072   8.066   1.138  1.0319 -0.6440 -0.5380
14171SOL     OW49562  11.001   8.449   7.189 -0.3782 -0.2771  0.0529
14171SOL    HW149563  11.083   8.402   7.171 -0.6768 -0.4452 -0.9249
14171SOL    HW249564  10.959   8.397   7.257  0.5753  0.1206  0.9800
14172SOL     OW49565   8.313   9.664   0.235  0.1978 -0.2747  0.2587
14172SOL    HW149566   8.248   9.619   0.180 -0.6694  0.1609  0.8991
14172SOL    HW249567   8.355   9.726   0.175 -0.1259 -0.4129 -0.1208
14173SOL     OW49568  10.138  12.260   2.260  0.5518  0.2818  0.0685
14173SOL    HW149569  10.213  12.274   2.318  0.9455  0.7293 -0.5326
14173SOL    HW249570  10.178  12.235   2.176 -0.0297 -3.2738  0.6674
14174SOL     OW49571   0.401   8.353   8.086  0.0240  0.3115 -0.0781
14174SOL    HW149572   0.450   8.346   8.168 -0.4315  1.1200  0.2684
14174SOL    HW249573   0.458   8.312   8.021  0.5980  0.0913  0.5486
14175SOL     OW49574   1.197   2.626   2.306  0.0577  0.3204 -0.1218
14175SOL    HW149575   1.276   2.616   2.359 -0.8294 -0.4430  1.1073
14175SOL    HW249576   1.187   2.720   2.295  0.7437  0.4519  0.3285
14176SOL     OW49577  10.968   8.128   8.888  0.3793  0.3614  0.0030
14176SOL    HW149578  10.901   8.078   8.843 -0.6235 -0.9825  2.7537
14176SOL    HW249579  10.920   8.190   8.943  0.8927 -2.5695  4.3149
14177SOL     OW49580   8.514   1.048   9.814 -0.0457  0.0745 -0.1647
14177SOL    HW149581   8.602   1.085   9.820  0.7863 -1.5606 -1.4243
14177SOL    HW249582   8.517   0.967   9.865 -1.0476  0.3691  0.3952
14178SOL     OW49583   2.018   2.110   7.734  0.0368 -0.1407  0.1582
14178SOL    HW149584   1.948   2.069   7.682  0.3680 -1.0613  0.4261
14178SOL    HW249585   2.049   2.040   7.792  0.2097  0.6613  1.0477
14179SOL     OW49586   2.187   5.000   7.191  0.1422  0.2911  0.1578
14179SOL    HW149587   2.212   5.070   7.131  2.3915  1.2901  2.0941
14179SOL    HW249588   2.093   5.014   7.206  0.5429  3.1869  0.7196
14180SOL     OW49589   2.877   6.156   8.842  0.0945 -0.2161  0.2100
14180SOL    HW149590   2.906   6.218   8.909 -0.6451  0.1435  0.2105
14180SOL    HW249591   2.830   6.088   8.891  1.9117 -1.4396  0.3448
14181SOL     OW49592   2.790   1.027   2.489 -0.1106 -0.5297 -0.6267
14181SOL    HW149593   2.827   1.076   2.563  0.2877 -0.7256 -0.6989
14181SOL    HW249594   2.733   0.961   2.530  0.3514 -0.8401 -0.4830
14182SOL     OW49595   5.515   6.029  10.028  0.0994 -0.0862 -0.2572
14182SOL    HW149596   5.483   6.037  10.117  1.9383  1.3741  0.3321
14182SOL    HW249597   5.580   5.959  10.032  0.3299  0.1185 -0.4157
14183SOL     OW49598   3.584   6.730   7.440  0.0626  0.9916  0.0923
14183SOL    HW149599   3.619   6.677   7.512  0.1783 -0.2123 -0.8118
14183SOL    HW249600   3.629   6.696   7.362 -0.1990  2.1397 -0.5765
14184SOL     OW49601  11.460   9.615   1.314 -0.0316 -0.0608 -0.3765
14184SOL    HW149602  11.540   9.667   1.317  0.3587 -0.6690  1.5121
14184SOL    HW249603  11.390   9.678   1.329  0.2695  0.2150 -0.0945
14185SOL     OW49604   4.980  11.146   4.044 -0.4839 -0.3444 -0.2514
14185SOL    HW149605   4.943  11.189   4.121 -2.7986 -0.7252 -1.0937
14185SOL    HW249606   4.959  11.205   3.971  0.9999 -0.3644 -0.7244
14186SOL     OW49607  11.351   6.682   3.323  0.2324 -0.6121 -0.0391
14186SOL    HW149608  11.306   6.612   3.369  1.2774 -1.8483 -0.8320
14186SOL    HW249609  11.324   6.673   3.232  0.9072 -0.4291 -0.2663
14187SOL     OW49610   1.407   3.238   6.629  0.9632  0.8630 -0.0755
14187SOL    HW149611   1.499   3.262   6.633  1.3074 -0.6068  2.1960
14187SOL    HW249612   1.374   3.250   6.718  0.0121 -2.3177  0.1306
14188SOL     OW49613   6.637   9.435   5.104  0.5699  0.1478 -0.7337
14188SOL    HW149614   6.589   9.513   5.131  0.8054 -0.2841  1.0303
14188SOL    HW249615   6.570   9.372   5.081  0.3715  0.6894 -1.6919
14189SOL     OW49616   9.007  12.264   9.348 -0.5979  0.1584  0.0870
14189SOL    HW149617   8.921  12.234   9.377 -0.6445  0.5473  0.3570
14189SOL    HW249618   9.052  12.290   9.428  1.2603 -3.6506  0.5340
14190SOL     OW49619   4.188   4.276   5.741  0.1291 -0.0494 -0.0578
14190SOL    HW149620   4.167   4.349   5.682  0.6330  1.3985  1.4888
14190SOL    HW249621   4.121   4.281   5.810 -1.2135 -2.4761 -1.0461
14191SOL     OW49622   2.378  10.376   4.604  0.6559 -0.2666 -0.8482
14191SOL    HW149623   2.401  10.283   4.602  1.9281  0.0362 -1.0715
14191SOL    HW249624   2.457  10.419   4.637 -0.7882  0.4893  1.9970
14192SOL     OW49625   7.289   8.732   8.009  0.0281  0.3301 -0.4779
14192SOL    HW149626   7.316   8.823   8.003  1.1192 -0.0621 -2.2343
14192SOL    HW249627   7.210   8.727   7.955 -1.0805  0.5565  1.0540
14193SOL     OW49628   2.320   9.336   4.587  0.2503 -0.5827 -0.2853
14193SOL    HW149629   2.334   9.242   4.594  1.0793 -0.4199  0.4928
14193SOL    HW249630   2.377   9.374   4.654 -1.9703  0.3459  1.2180
14194SOL     OW49631   0.287   0.576  10.671  0.3870  0.2536 -1.3313
14194SOL    HW149632   0.207   0.537  10.708  1.6999 -2.6806 -1.2600
14194SOL    HW249633   0.261   0.665  10.646 -2.5966 -0.2156 -0.3607
14195SOL     OW49634   8.567   0.676   8.416  0.8205  0.0893  0.1716
14195SOL    HW149635   8.534   0.739   8.480 -0.4917  0.4447 -0.7934
14195SOL    HW249636   8.556   0.591   8.458  1.2759  0.4028  0.9442
14196SOL     OW49637   7.830   1.629  10.581 -0.2140 -0.0128  0.5736
14196SOL    HW149638   7.853   1.584  10.500  0.2173  0.1175  0.6200
14196SOL    HW249639   7.914   1.641  10.626 -0.4934 -0.3797  1.1927
14197SOL     OW49640   9.092   2.812   7.650 -0.6104  0.6323 -0.2308
14197SOL    HW149641   9.014   2.858   7.618  0.8352  2.2181 -1.6190
14197SOL    HW249642   9.162   2.839   7.591  1.3404  0.4397  1.8893
14198SOL     OW49643   2.263   3.632   7.341  0.6525 -0.0975 -0.2680
14198SOL    HW149644   2.293   3.593   7.423 -0.9507  0.3785  0.5920
14198SOL    HW249645   2.249   3.558   7.282  0.9380 -0.5148  0.1824
14199SOL     OW49646  11.894   1.178   0.144  0.1128  0.5863  0.2924
14199SOL    HW149647  11.906   1.124   0.065 -0.2116  3.4224 -1.8383
14199SOL    HW249648  11.805   1.210   0.137  0.0420  0.7908  1.9362
14200SOL     OW49649   2.686   9.618   9.944 -0.2740  0.6235 -0.3635
14200SOL    HW149650   2.690   9.541  10.000 -1.0232 -0.4019 -1.6689
14200SOL    HW249651   2.634   9.591   9.869  0.1449  2.1553 -1.2549
14201SOL     OW49652   3.483  10.627  12.354 -0.7387 -0.1624  0.2814
14201SOL    HW149653   3.457  10.683  12.280 -0.7574 -2.5147 -1.6105
14201SOL    HW249654   3.494  10.540  12.316  0.8047 -1.1812  2.8027
14202SOL     OW49655   6.831   9.480   3.759 -0.2422 -0.3448  0.2852
14202SOL    HW149656   6.798   9.416   3.695 -1.5921 -1.3245  1.8964
14202SOL    HW249657   6.753   9.522   3.794  0.5473  0.9771  0.5192
14203SOL     OW49658   3.381  11.575   5.541 -0.0521  0.3954  0.1485
14203SOL    HW149659   3.389  11.480   5.534  0.5464  0.5167 -0.9606
14203SOL    HW249660   3.291  11.589   5.570 -0.8626 -0.4505 -1.7901
14204SOL     OW49661   6.751   4.585   2.367 -0.4305 -0.0467  0.9258
14204SOL    HW149662   6.668   4.617   2.404 -1.0968 -1.2885  0.5494
14204SOL    HW249663   6.751   4.491   2.385  0.1690 -0.3295 -0.4690
14205SOL     OW49664   9.562   7.909   4.370  0.0521  0.3495 -0.7201
14205SOL    HW149665   9.564   7.833   4.311  0.8090  0.9488 -1.4869
14205SOL    HW249666   9.578   7.872   4.457 -1.4949 -0.6061 -0.7940
14206SOL     OW49667   2.680   5.656   7.820 -0.3024 -0.8067 -0.0998
14206SOL    HW149668   2.771   5.672   7.847 -0.2896  0.2209 -0.6964
14206SOL    HW249669   2.630   5.657   7.901  0.0979 -0.4261  0.1452
14207SOL     OW49670  10.992   5.012   6.734 -0.0205  0.1168  0.3879
14207SOL    HW149671  10.900   5.012   6.706 -0.5633 -0.0366  2.0934
14207SOL    HW249672  11.040   4.980   6.657 -1.2874  0.9711 -0.8017
14208SOL     OW49673  11.440  11.624   3.701 -0.1742 -0.2636 -0.2207
14208SOL    HW149674  11.478  11.711   3.685  1.4157 -0.9090 -0.0521
14208SOL    HW249675  11.360  11.624   3.647  0.6851  0.6790 -1.5689
14209SOL     OW49676   0.333   9.858  10.674  0.5368 -0.3877 -0.1020
14209SOL    HW149677   0.335   9.816  10.760  0.5985 -0.1637  0.0086
14209SOL    HW249678   0.421   9.894  10.663  0.2154  0.5474  0.2355
14210SOL     OW49679   0.217   8.803   0.848 -0.2977 -0.0602  0.2157
14210SOL    HW149680   0.289   8.762   0.896 -0.1531 -0.3443 -0.2375
14210SOL    HW249681   0.211   8.753   0.767 -2.9358 -2.0577  1.4605
14211SOL     OW49682   8.488  12.204   4.757  0.4727 -0.0772  0.3118
14211SOL    HW149683   8.476  12.298   4.765 -1.5384 -0.0267 -2.0683
14211SOL    HW249684   8.576  12.193   4.723  0.1805  1.0757 -0.8882
14212SOL     OW49685  10.295   3.973  10.053  0.3119 -0.5629 -0.1027
14212SOL    HW149686  10.209   3.933  10.065  0.2604 -0.3787  0.1558
14212SOL    HW249687  10.294   4.007   9.964 -1.5792  3.4682  1.2467
14213SOL     OW49688   0.873  11.164   5.852  0.6253 -0.1499  0.4567
14213SOL    HW149689   0.832  11.086   5.890  0.7284 -1.0393 -1.1615
14213SOL    HW249690   0.961  11.167   5.890  0.6680 -0.9210  0.4292
14214SOL     OW49691   7.206   5.484   8.045 -0.4220  0.1799  0.2787
14214SOL    HW149692   7.178   5.572   8.068  0.1668  0.4351  0.0273
14214SOL    HW249693   7.178   5.430   8.119 -0.0434  0.7174  0.8217
14215SOL     OW49694   9.177  10.154   9.589  0.0399 -0.5692  0.5047
14215SOL    HW149695   9.104  10.142   9.528 -0.8200 -0.1790  1.4278
14215SOL    HW249696   9.206  10.066   9.610 -0.6140 -0.7598  0.6390
14216SOL     OW49697  11.670   9.903  10.911  0.1327 -0.4155 -0.1999
14216SOL    HW149698  11.586   9.933  10.876 -1.3209 -2.0813  1.6320
14216SOL    HW249699  11.703   9.977  10.962  1.5271  1.4772 -3.5372
14217SOL     OW49700   2.202   0.856   7.996 -0.2387 -0.3885 -0.2082
14217SOL    HW149701   2.162   0.842   7.911 -1.0255 -0.7748  0.2173
14217SOL    HW249702   2.171   0.784   8.050 -2.0237  1.3315  1.2065
14218SOL     OW49703   0.700  10.842   8.250 -0.0548  0.0027  0.0616
14218SOL    HW149704   0.696  10.936   8.269  0.4710 -0.2240  1.4835
14218SOL    HW249705   0.621  10.823   8.201 -0.4361  1.0971  0.2294
14219SOL     OW49706   9.337  11.579  12.482  0.4609  0.2668 -0.2510
14219SOL    HW149707   9.320  11.589  12.388  0.0919 -0.3619 -0.2602
14219SOL    HW249708   9.279  11.508  12.509  2.2058 -1.1450 -0.0253
14220SOL     OW49709   1.411   4.183   2.098 -0.1695  0.0548 -0.1165
14220SOL    HW149710   1.479   4.205   2.034 -0.4410 -0.5758 -0.6306
14220SOL    HW249711   1.460   4.157   2.176  0.1697  0.1100 -0.3049
14221SOL     OW49712   5.077  11.719   6.987 -0.0286 -0.1046 -0.4146
14221SOL    HW149713   5.007  11.692   6.928 -0.7622  0.5845  0.1073
14221SOL    HW249714   5.157  11.708   6.936 -0.7074  1.3816 -1.9096
14222SOL     OW49715  10.126   4.271   0.996  0.8099  0.7299 -0.3713
14222SOL    HW149716  10.174   4.194   1.024  0.3339 -0.1136 -1.7974
14222SOL    HW249717  10.189   4.323   0.947  1.2731  1.5480  1.0172
14223SOL     OW49718   1.092  11.191   9.240 -0.2798  0.8196  0.1902
14223SOL    HW149719   1.173  11.148   9.215 -0.2364  0.5857  0.7188
14223SOL    HW249720   1.101  11.281   9.208 -0.0637  0.6336 -0.2695
14224SOL     OW49721  10.850   7.231   4.472  0.2540 -0.1680 -0.4428
14224SOL    HW149722  10.868   7.182   4.392  0.9338 -1.1002  0.2596
14224SOL    HW249723  10.772   7.189   4.508 -1.0844  1.3274 -1.4400
14225SOL     OW49724   0.713  11.591  10.005 -1.0755  0.0200  0.1333
14225SOL    HW149725   0.670  11.582  10.090  0.4029  2.6540  1.2851
14225SOL    HW249726   0.660  11.655   9.958 -0.6818  0.2053 -0.0622
14226SOL     OW49727   3.248   2.743   1.147  0.4153  0.0343  0.0283
14226SOL    HW149728   3.301   2.818   1.174  1.3184 -0.4397 -0.3813
14226SOL    HW249729   3.270   2.731   1.054 -0.9965  0.3028 -0.3602
14227SOL     OW49730   7.810  12.179   1.051 -0.5025  0.0004 -0.5004
14227SOL    HW149731   7.746  12.181   1.122 -0.8135  0.4518 -0.7830
14227SOL    HW249732   7.895  12.187   1.094 -0.6163 -0.7698 -0.1084
14228SOL     OW49733   5.170  10.991   7.677 -0.2215  0.4917  0.3173
14228SOL    HW149734   5.077  11.009   7.695 -0.4019 -0.0473 -0.0441
14228SOL    HW249735   5.179  11.006   7.583  0.4007  1.9596  0.5948
14229SOL     OW49736   3.536   8.986  10.533  0.3545 -0.5741  0.4026
14229SOL    HW149737   3.532   8.919  10.600  1.4886  1.5127  2.7275
14229SOL    HW249738   3.457   9.038  10.546  0.4856 -0.2605 -0.0227
14230SOL     OW49739  11.391   9.941   5.543 -0.0338  0.6174  0.1076
14230SOL    HW149740  11.423  10.008   5.603  1.5279  0.9750 -1.0450
14230SOL    HW249741  11.409   9.976   5.456 -1.0986 -0.4139 -0.5584
14231SOL     OW49742   5.742  10.788   3.359  0.1806 -0.1461 -0.5970
14231SOL    HW149743   5.672  10.729   3.330  0.9021 -0.3527 -1.9932
14231SOL    HW249744   5.823  10.747   3.329  0.7490  1.1782 -0.9696
14232SOL     OW49745   7.077  10.346  10.738 -0.3685  0.4018  0.2816
14232SOL    HW149746   7.171  10.330  10.746 -0.6230 -1.7720 -0.6056
14232SOL    HW249747   7.036  10.279  10.792 -1.4451  0.5391 -0.3305
14233SOL     OW49748   2.914   2.838  10.280 -0.2403  0.0915  0.4505
14233SOL    HW149749   2.889   2.748  10.301  1.1984 -0.3811  0.2738
14233SOL    HW249750   2.872   2.891  10.347  0.3648 -0.9162  1.6645
14234SOL     OW49751   8.740  11.129   0.759 -0.1968 -0.4242 -0.1688
14234SOL    HW149752   8.754  11.125   0.853 -0.3460 -0.2718 -0.1387
14234SOL    HW249753   8.689  11.051   0.738  0.3369 -0.7688 -0.2163
14235SOL     OW49754   3.022  11.829   3.066  0.6538  0.0601 -0.0553
14235SOL    HW149755   3.023  11.775   3.145 -0.5032 -1.8584 -1.2583
14235SOL    HW249756   2.931  11.860   3.060  0.6483 -0.0695 -0.7669
14236SOL     OW49757  10.807   6.256   8.608 -0.1780 -0.1264  0.2897
14236SOL    HW149758  10.719   6.224   8.627  0.5418 -1.5824  1.4282
14236SOL    HW249759  10.854   6.178   8.578  0.5408  0.7828 -1.0500
14237SOL     OW49760   3.412   0.939   4.052  0.6527  0.1491  0.1364
14237SOL    HW149761   3.468   0.874   4.011  1.4669 -0.1995  1.7154
14237SOL    HW249762   3.447   1.023   4.023 -0.0415 -0.0614 -1.4345
14238SOL     OW49763   7.606   3.659   0.045  0.2136  0.2627 -0.1978
14238SOL    HW149764   7.605   3.742   0.092 -1.3671  0.7318 -1.0043
14238SOL    HW249765   7.624   3.594   0.113  0.4565  1.1598  0.6203
14239SOL     OW49766   4.175  12.325   9.194 -0.3634 -0.0411 -0.1248
14239SOL    HW149767   4.182  12.240   9.238 -0.7701  0.7365  1.5043
14239SOL    HW249768   4.126  12.307   9.114 -0.0480 -1.4061 -0.0347
14240SOL     OW49769  11.667   3.709   3.349 -0.1365  0.3546  0.1701
14240SOL    HW149770  11.666   3.795   3.306 -2.5377 -0.3464 -1.3673
14240SOL    HW249771  11.618   3.723   3.431 -1.1742  0.3300 -0.4292
14241SOL     OW49772   7.988   7.196   2.917 -0.2814 -0.2361  0.4513
14241SOL    HW149773   7.919   7.155   2.971  0.7856 -1.2490  1.0982
14241SOL    HW249774   8.054   7.224   2.980 -0.0030  0.5509 -0.1821
14242SOL     OW49775   4.823   8.760  10.016 -0.3804  0.3878  0.1691
14242SOL    HW149776   4.893   8.739  10.078 -0.9544  2.4138  1.6029
14242SOL    HW249777   4.863   8.822   9.956 -0.5142  0.3005 -0.0123
14243SOL     OW49778   0.485   3.635   3.740  0.6502 -0.5419 -0.0020
14243SOL    HW149779   0.579   3.631   3.757  0.7589  0.4555 -0.2707
14243SOL    HW249780   0.459   3.721   3.773  0.1770 -0.0714 -1.5121
14244SOL     OW49781   5.934   0.001  11.425 -0.1446  0.2191  0.2768
14244SOL    HW149782   5.992  -0.040  11.360 -0.4241  1.9016 -1.0902
14244SOL    HW249783   5.866   0.043  11.373  0.3309  2.7224  1.5502
14245SOL     OW49784   9.710  12.416   0.498 -0.4249  0.5048  0.2758
14245SOL    HW149785   9.778  12.349   0.487 -0.4282  0.3471  1.1636
14245SOL    HW249786   9.709  12.462   0.414  0.2478  0.0163 -0.0147
14246SOL     OW49787   6.436   6.587   7.805  0.1456 -0.4244  0.2772
14246SOL    HW149788   6.346   6.594   7.772 -0.2837 -1.5277  1.1126
14246SOL    HW249789   6.438   6.501   7.848  1.4845 -0.2307  0.6357
14247SOL     OW49790   7.518   6.498   9.383  0.3541  0.5108  0.4219
14247SOL    HW149791   7.573   6.488   9.305  1.3532  0.1597  1.1540
14247SOL    HW249792   7.445   6.553   9.354  0.4648  0.0006 -0.8760
14248SOL     OW49793   6.907  10.856   3.476 -0.6661 -0.4643 -0.0678
14248SOL    HW149794   6.893  10.943   3.439  2.0420  0.4368  0.7889
14248SOL    HW249795   6.879  10.796   3.407 -0.2216  1.1028 -1.6818
14249SOL     OW49796   9.211   7.630   4.034  0.0177 -0.4101 -0.4107
14249SOL    HW149797   9.230   7.677   3.952 -0.9735  0.6360 -0.0572
14249SOL    HW249798   9.165   7.694   4.088 -0.4041 -1.4735  0.5096
14250SOL     OW49799   1.447   6.771   9.316 -0.2731  0.5940  0.7124
14250SOL    HW149800   1.455   6.711   9.242  0.7484 -0.8988  1.9725
14250SOL    HW249801   1.466   6.718   9.393  2.2743  2.8277  1.8050
14251SOL     OW49802  11.305   1.363   6.465  0.4129  0.0284  0.0435
14251SOL    HW149803  11.296   1.396   6.376 -0.5351 -3.6881 -1.4606
14251SOL    HW249804  11.343   1.275   6.454  0.5095 -0.4655  3.3394
14252SOL     OW49805   8.102   1.952   7.358 -0.4591  0.5560 -0.0862
14252SOL    HW149806   8.088   1.935   7.265  0.8687 -0.5016 -0.1298
14252SOL    HW249807   8.107   1.864   7.397  1.0257  0.9330  0.6385
14253SOL     OW49808   4.563   7.158   0.014  0.2895 -0.6429  0.1913
14253SOL    HW149809   4.518   7.077   0.040  0.7829 -0.6396  1.0931
14253SOL    HW249810   4.528   7.225   0.074 -0.0383 -0.2006 -0.4797
14254SOL     OW49811  12.072   2.287   6.718  0.1690 -0.1876 -0.1154
14254SOL    HW149812  12.073   2.294   6.814  1.0072  1.1833 -0.1826
14254SOL    HW249813  12.156   2.324   6.691 -0.9077  1.4366 -1.4748
14255SOL     OW49814   1.378   5.521   6.349 -1.1602  0.1934 -0.1210
14255SOL    HW149815   1.362   5.611   6.320 -0.3163  0.0409 -1.1398
14255SOL    HW249816   1.432   5.530   6.427  0.1516  0.5824 -1.0263
14256SOL     OW49817   9.295   7.039  11.899 -0.3026 -0.0823 -0.0832
14256SOL    HW149818   9.219   6.983  11.916 -0.4758  0.3201  0.4615
14256SOL    HW249819   9.370   6.985  11.924 -0.4463 -0.2351  0.0202
14257SOL     OW49820  12.293   3.756  11.947  0.1557  0.8338 -0.1312
14257SOL    HW149821  12.244   3.838  11.947 -0.7309  0.3210 -0.3750
14257SOL    HW249822  12.285   3.724  11.857 -0.4320 -0.0373  0.2131
14258SOL     OW49823   1.170   6.068  11.430 -0.0706  0.1416  1.0985
14258SOL    HW149824   1.244   6.007  11.439  1.2316  1.8150  2.3711
14258SOL    HW249825   1.204   6.140  11.377 -1.7105 -0.3175 -0.7190
14259SOL     OW49826   1.907   8.317   9.479 -0.1226 -0.4213  0.0553
14259SOL    HW149827   1.993   8.329   9.440 -0.4839 -0.5007 -0.7865
14259SOL    HW249828   1.878   8.406   9.501 -0.4819 -0.2457 -1.1021
14260SOL     OW49829   2.306   8.491   1.978 -0.1588  0.3153 -0.3156
14260SOL    HW149830   2.265   8.562   1.929  1.1831  0.5827 -1.0749
14260SOL    HW249831   2.376   8.533   2.028  0.2498 -0.3852 -0.2880
14261SOL     OW49832  10.704   6.849   7.497  0.1123  0.3982 -0.6000
14261SOL    HW149833  10.721   6.828   7.406 -0.7395  0.0746 -0.6937
14261SOL    HW249834  10.699   6.945   7.499  1.5042  0.4992 -0.6228
14262SOL     OW49835   0.965   9.186   3.051  0.0562 -0.0722  0.0748
14262SOL    HW149836   1.005   9.208   2.967  0.1602 -0.1201  0.1124
14262SOL    HW249837   1.021   9.118   3.088  0.5410  0.6050  0.6067
14263SOL     OW49838   0.412   7.710   7.729  0.3765 -0.5383  0.5708
14263SOL    HW149839   0.343   7.776   7.722  1.0852  0.0531 -1.3830
14263SOL    HW249840   0.474   7.746   7.792 -0.3366 -0.3979  1.2139
14264SOL     OW49841  11.581  12.143   7.402  0.0549 -0.0128 -0.0414
14264SOL    HW149842  11.655  12.200   7.424 -0.2918  0.1134  0.8186
14264SOL    HW249843  11.622  12.062   7.373  0.5813 -1.0054  3.1529
14265SOL     OW49844   6.937   4.521   6.960 -0.0353  0.1282  0.3327
14265SOL    HW149845   6.961   4.603   6.918  0.6579  0.9814  2.2762
14265SOL    HW249846   6.846   4.506   6.934 -0.5323  2.1003  0.7804
14266SOL     OW49847   3.565   9.559   2.783 -0.3164  0.0810 -1.0224
14266SOL    HW149848   3.470   9.551   2.788 -0.4705  1.6214 -1.0077
14266SOL    HW249849   3.588   9.514   2.702 -0.8381 -1.7874 -0.1750
14267SOL     OW49850   6.906   3.833   4.887  0.3846  0.0418  0.1602
14267SOL    HW149851   6.988   3.812   4.842 -1.2610 -0.1765 -3.0194
14267SOL    HW249852   6.859   3.750   4.891 -0.0356  0.3159  1.2290
14268SOL     OW49853   7.077   2.119   0.913 -0.0414 -0.0667 -0.2094
14268SOL    HW149854   7.070   2.201   0.962  0.9308 -0.1985  0.1675
14268SOL    HW249855   7.056   2.051   0.977  0.6746 -0.2022 -0.1115
14269SOL     OW49856   1.809   5.280   3.719 -0.0029 -0.8132 -0.6667
14269SOL    HW149857   1.854   5.226   3.654 -0.8907  1.4861 -3.4082
14269SOL    HW249858   1.717   5.260   3.708 -0.2137  0.0518 -0.5559
14270SOL     OW49859  10.885   4.643   4.672  0.5315 -0.0123 -0.1752
14270SOL    HW149860  10.973   4.630   4.707 -0.5690 -0.4668  2.6794
14270SOL    HW249861  10.842   4.558   4.685 -1.0007  0.8502  0.6723
14271SOL     OW49862  10.130   2.387   5.933 -0.4658 -0.0209 -0.2634
14271SOL    HW149863  10.206   2.441   5.957  0.0149 -1.0672  0.6839
14271SOL    HW249864  10.154   2.348   5.850 -0.2210  0.1252 -0.2626
14272SOL     OW49865   4.952   2.569  10.568 -0.5847  0.3559  0.0278
14272SOL    HW149866   4.918   2.549  10.655 -0.5732  1.5222  0.3228
14272SOL    HW249867   4.956   2.485  10.523 -2.8905  0.0295  0.3132
14273SOL     OW49868   1.119   8.149   1.220 -0.2314  0.8358  0.4786
14273SOL    HW149869   1.124   8.077   1.284 -2.7984  0.1150  0.0000
14273SOL    HW249870   1.080   8.108   1.142 -1.0652  2.5898 -0.0635
14274SOL     OW49871   5.927   1.138  10.541  0.4300  0.2042 -0.0693
14274SOL    HW149872   5.971   1.105  10.620  1.0346  0.9966 -0.0567
14274SOL    HW249873   5.943   1.232  10.543 -0.5469  0.3882 -0.5370
14275SOL     OW49874   8.352   1.030   1.681  0.0934 -0.0803  0.4195
14275SOL    HW149875   8.323   1.120   1.673  1.4977  0.3486 -0.1301
14275SOL    HW249876   8.442   1.030   1.649  1.0236 -1.1806  2.7668
14276SOL     OW49877  11.146   4.290   2.931 -0.3057  0.7157  0.3916
14276SOL    HW149878  11.119   4.202   2.904  0.2375  0.7135 -0.1569
14276SOL    HW249879  11.093   4.349   2.877 -2.1666  0.7859  2.1634
14277SOL     OW49880   3.031   1.291   8.796  0.1468  0.1653 -0.0471
14277SOL    HW149881   3.106   1.237   8.821  0.7347  0.6759 -0.6498
14277SOL    HW249882   3.061   1.339   8.719 -0.1043  1.8792  0.8758
14278SOL     OW49883   3.766   5.549   0.039 -0.3730  0.1378 -0.2248
14278SOL    HW149884   3.779   5.463   0.001  0.7940  0.5141 -0.7112
14278SOL    HW249885   3.808   5.609  -0.022 -1.4185  1.0958 -0.0480
14279SOL     OW49886   0.781   9.261   9.929 -0.5156  0.1743  0.2127
14279SOL    HW149887   0.802   9.340   9.978  0.4732  1.1539 -1.6625
14279SOL    HW249888   0.760   9.195   9.996  1.1499  1.2923  1.9450
14280SOL     OW49889   2.767  10.278   9.167  0.3681 -0.3383 -0.2564
14280SOL    HW149890   2.834  10.324   9.117  0.7280  0.8383  1.2147
14280SOL    HW249891   2.732  10.345   9.227 -0.1021 -1.6243  0.9637
14281SOL     OW49892   2.896   4.419   4.257  0.1478 -0.6004  0.2368
14281SOL    HW149893   2.842   4.347   4.290 -0.4214  0.0134  0.6874
14281SOL    HW249894   2.936   4.457   4.335 -0.1041 -0.0094  0.0895
14282SOL     OW49895   6.252   3.449   6.175 -0.8519 -0.0358  0.0189
14282SOL    HW149896   6.261   3.412   6.087 -0.7190  0.6897 -0.2756
14282SOL    HW249897   6.310   3.526   6.175  0.1407 -0.7526  1.1554
14283SOL     OW49898   0.584   4.295  12.515 -0.1305  0.1957 -0.6105
14283SOL    HW149899   0.544   4.227  12.570  0.0154  0.0335 -0.7032
14283SOL    HW249900   0.536   4.374  12.536  0.4592  0.3152  0.3681
14284SOL     OW49901  12.320   4.241   1.593 -0.0317  0.3969  0.2509
14284SOL    HW149902  12.307   4.270   1.683  0.4863  0.3317  0.3461
14284SOL    HW249903  12.231   4.229   1.559 -0.2261 -0.2045  0.9521
14285SOL     OW49904   8.797   8.337   5.359  0.1380 -0.0274 -0.5278
14285SOL    HW149905   8.822   8.423   5.393 -1.0217  1.2128 -2.5935
14285SOL    HW249906   8.735   8.303   5.423  2.6935 -0.7151  1.8197
14286SOL     OW49907   0.376   3.616   1.411  0.1119 -0.0886  0.4229
14286SOL    HW149908   0.371   3.653   1.322 -0.6140 -0.6224  0.2336
14286SOL    HW249909   0.297   3.646   1.454  0.7402  0.6434  1.0945
14287SOL     OW49910   9.188   8.036   0.292  0.1451  0.2210  0.0795
14287SOL    HW149911   9.162   8.126   0.308 -0.2708  0.0956  0.1435
14287SOL    HW249912   9.106   7.992   0.267  0.2607 -0.2268  0.4663
14288SOL     OW49913  10.486   0.526  12.518 -0.2365  0.3529  0.1417
14288SOL    HW149914  10.478   0.562  12.430  4.2387 -0.5955 -0.9260
14288SOL    HW249915  10.402   0.484  12.535 -2.3851  3.3153 -2.2605
14289SOL     OW49916   5.571  10.207   7.632 -0.1986  0.4081 -0.4386
14289SOL    HW149917   5.568  10.242   7.722  0.6674 -0.0483 -0.2212
14289SOL    HW249918   5.641  10.257   7.589 -0.6416  0.6539 -0.8754
14290SOL     OW49919   6.951   8.551  11.614  0.5600 -0.0361 -0.3866
14290SOL    HW149920   6.992   8.482  11.562  1.0003  0.0214 -0.1273
14290SOL    HW249921   6.866   8.516  11.638  0.7049 -0.4162 -0.4188
14291SOL     OW49922   5.386   9.972   7.714  0.3220  0.0654  0.2032
14291SOL    HW149923   5.386   9.886   7.755  0.9030 -0.6208 -1.1721
14291SOL    HW249924   5.469  10.012   7.740 -0.2793  0.5685  1.4754
14292SOL     OW49925  12.025   5.661   1.101 -0.1529 -0.5400 -0.1593
14292SOL    HW149926  12.068   5.727   1.046  0.6714 -1.5063 -0.7029
14292SOL    HW249927  11.939   5.649   1.061 -0.5590  0.6401  0.3122
14293SOL     OW49928   1.918   3.955   9.765  0.1351 -0.4213 -0.3995
14293SOL    HW149929   1.869   3.875   9.747  1.5385 -1.4227  0.0752
14293SOL    HW249930   1.916   4.004   9.682 -0.6759 -0.9790 -0.7135
14294SOL     OW49931   8.549   0.279   8.218  0.6267  0.1074 -0.0811
14294SOL    HW149932   8.493   0.286   8.296 -1.6991 -2.4869 -1.3264
14294SOL    HW249933   8.629   0.237   8.250  0.3264  0.4461  1.1731
14295SOL     OW49934   5.659   9.546   6.204 -0.0252  0.0507 -0.3439
14295SOL    HW149935   5.734   9.527   6.148  0.5261  0.5437  0.2000
14295SOL    HW249936   5.644   9.640   6.193  1.3928  0.6130  1.8185
14296SOL     OW49937  11.705   8.664   8.431 -0.0701  0.4744 -0.2339
14296SOL    HW149938  11.614   8.659   8.462  0.1891 -0.4046  0.4118
14296SOL    HW249939  11.725   8.758   8.430 -0.6516  0.6186  0.6064
14297SOL     OW49940  12.430   6.906   4.112  0.2286 -0.2809  0.3753
14297SOL    HW149941  12.511   6.956   4.126  0.2995 -0.2511 -0.1209
14297SOL    HW249942  12.437   6.875   4.021 -0.1871 -0.5143  0.4230
14298SOL     OW49943   4.761   1.509   7.598 -0.0234  0.2104 -0.1710
14298SOL    HW149944   4.711   1.439   7.639  0.8222 -0.2490  0.0961
14298SOL    HW249945   4.713   1.530   7.518  0.4666 -1.6774 -1.0193
14299SOL     OW49946   1.662   3.138   7.731  0.1485 -0.1632  0.0164
14299SOL    HW149947   1.602   3.141   7.806  0.3652  0.7214  0.1655
14299SOL    HW249948   1.749   3.132   7.771  0.4206  2.4166 -0.0798
14300SOL     OW49949   3.768   4.060  11.108  0.0285  0.3341 -0.0589
14300SOL    HW149950   3.689   4.053  11.161 -0.3005  0.3938 -0.5350
14300SOL    HW249951   3.834   4.096  11.167 -0.0568 -0.5329  0.5778
14301SOL     OW49952   1.137   8.610  11.040  0.6118  0.1608  0.3062
14301SOL    HW149953   1.177   8.622  11.126  0.5746 -0.8290  0.4731
14301SOL    HW249954   1.137   8.515  11.027  0.5620  0.3009 -0.7616
14302SOL     OW49955   0.443   6.646   7.812  0.0705  0.1476 -0.0318
14302SOL    HW149956   0.389   6.619   7.738  0.9665 -0.6426 -0.4262
14302SOL    HW249957   0.381   6.663   7.883 -0.6189 -2.7249  0.1591
14303SOL     OW49958  10.559   7.648   0.711  0.2085 -0.3069 -0.3292
14303SOL    HW149959  10.471   7.685   0.709 -0.6367 -2.1237  0.6391
14303SOL    HW249960  10.610   7.709   0.765 -1.4330 -1.0805  2.2774
14304SOL     OW49961   9.096   9.893   0.561  0.1983  0.3391 -0.0685
14304SOL    HW149962   9.187   9.916   0.541 -0.1311  1.2326 -0.5813
14304SOL    HW249963   9.102   9.806   0.600  1.3597  0.7506  0.7415
14305SOL     OW49964   1.842   6.863   7.628 -0.0207  0.3023 -0.2213
14305SOL    HW149965   1.790   6.932   7.586  0.3189  0.8653  0.2652
14305SOL    HW249966   1.777   6.803   7.665 -0.3271 -0.2037 -1.5278
14306SOL     OW49967  11.956   8.479   2.616 -0.2396  0.1003 -0.1876
14306SOL    HW149968  11.998   8.466   2.531  0.4816 -0.9964  0.3013
14306SOL    HW249969  11.865   8.500   2.596 -0.0597 -0.0648 -1.2312
14307SOL     OW49970   2.953   1.608   4.899 -0.3006 -0.3823  0.6213
14307SOL    HW149971   2.917   1.540   4.842  0.2654 -0.1878  0.0127
14307SOL    HW249972   2.939   1.576   4.988 -0.2812 -1.1688  0.3444
14308SOL     OW49973  11.280   8.369  10.706 -0.5896  0.4747 -0.5455
14308SOL    HW149974  11.197   8.374  10.660  0.4116  2.9796 -2.3079
14308SOL    HW249975  11.264   8.416  10.788 -0.9595  0.8204 -0.8104
14309SOL     OW49976   5.034  11.833   4.267 -0.2930 -0.6937  0.1095
14309SOL    HW149977   5.034  11.749   4.315 -2.0761 -0.0212  1.4261
14309SOL    HW249978   5.101  11.823   4.200 -0.4771 -3.2077  0.2025
14310SOL     OW49979  10.874   4.016   1.031 -0.4802 -0.4995 -0.3852
14310SOL    HW149980  10.922   3.999   1.112  0.1885  1.6411 -0.2774
14310SOL    HW249981  10.795   3.963   1.039  0.1215 -1.2363  1.1184
14311SOL     OW49982  12.098   3.470   4.787 -0.2228 -0.2597  0.4093
14311SOL    HW149983  12.100   3.413   4.710 -0.2720  0.2191  0.0484
14311SOL    HW249984  12.156   3.428   4.850 -1.0494 -1.2444  0.5299
14312SOL     OW49985  11.906   0.799   6.248 -0.6287 -0.2345 -0.2840
14312SOL    HW149986  11.894   0.765   6.336 -0.2427 -3.1335 -1.2585
14312SOL    HW249987  11.979   0.861   6.256  0.4103 -1.5888  1.1680
14313SOL     OW49988   8.739   8.721   5.743  0.2124 -0.5584  0.0694
14313SOL    HW149989   8.729   8.775   5.822 -1.4872 -0.5372 -0.1181
14313SOL    HW249990   8.659   8.668   5.741  0.9735 -1.7269 -0.7860
14314SOL     OW49991  11.207   4.997   9.796 -0.5296  0.5366  0.4770
14314SOL    HW149992  11.189   5.021   9.887  0.2360  1.8830  0.2976
14314SOL    HW249993  11.136   5.039   9.746 -1.0824 -0.3944  0.4531
14315SOL     OW49994   9.730   2.647   5.755 -0.4635 -0.3099 -0.1162
14315SOL    HW149995   9.665   2.717   5.745  1.6154  1.4716 -2.5798
14315SOL    HW249996   9.744   2.615   5.665  2.4616 -0.1501  0.2081
14316SOL     OW49997   2.355   0.878   2.300  0.4324 -0.2164  0.0683
14316SOL    HW149998   2.412   0.882   2.377  2.3120  1.2958 -1.2981
14316SOL    HW249999   2.414   0.859   2.227 -0.8692  0.9115 -1.3643
14317SOL     OW50000   6.366   5.636   8.103  0.2928 -0.4299  0.0839
14317SOL    HW150001   6.328   5.714   8.063 -0.5297 -1.0819 -0.4510
14317SOL    HW250002   6.353   5.567   8.037  3.9618 -0.3697 -0.9177
14318SOL     OW50003   7.424   1.188   0.644 -0.4020  0.0697  0.2717
14318SOL    HW150004   7.369   1.133   0.588  1.9702 -0.3539 -1.8222
14318SOL    HW250005   7.404   1.278   0.616 -1.8047  0.1167  1.3172
14319SOL     OW50006   6.444   6.356   9.130  0.0392 -0.0791 -0.1419
14319SOL    HW150007   6.385   6.396   9.066 -2.2641  0.1406  1.9538
14319SOL    HW250008   6.446   6.263   9.106 -2.8266 -0.4872  0.7846
14320SOL     OW50009  11.886   8.118   4.421  0.0712 -0.2759  0.1436
14320SOL    HW150010  11.818   8.144   4.359  1.7731  0.1462 -1.6287
14320SOL    HW250011  11.857   8.154   4.505 -2.6523 -1.4516 -0.1616
14321SOL     OW50012   6.451   0.126   4.045 -0.2762  0.4286 -0.2010
14321SOL    HW150013   6.458   0.171   4.129  0.6760  0.2348 -0.1669
14321SOL    HW250014   6.541   0.119   4.014  0.0593 -3.7594  1.0208
14322SOL     OW50015   4.959   6.240   7.004  0.0117  0.3713  0.3024
14322SOL    HW150016   4.993   6.242   6.914  0.7292  0.3334  0.5688
14322SOL    HW250017   4.875   6.195   6.996 -0.9220  2.1540 -0.6717
14323SOL     OW50018   1.460   8.890   7.013 -0.2271 -0.0595 -0.1451
14323SOL    HW150019   1.388   8.891   6.950 -0.3076 -0.7396 -0.0675
14323SOL    HW250020   1.455   8.975   7.057 -0.6871  0.0838 -0.4720
14324SOL     OW50021  11.144   4.991   8.559  0.5228  0.5001  0.1101
14324SOL    HW150022  11.135   4.927   8.488  0.0224  1.7963 -1.0423
14324SOL    HW250023  11.098   4.952   8.633  1.8030 -1.2796  0.0246
14325SOL     OW50024   7.683   9.192   6.376  0.3519  0.3993 -0.0430
14325SOL    HW150025   7.763   9.156   6.415 -0.0515 -0.5284 -0.0603
14325SOL    HW250026   7.660   9.266   6.432  1.4632  0.9640 -0.2927
14326SOL     OW50027   5.944   0.899   1.944 -0.0014 -0.4433  0.0826
14326SOL    HW150028   6.001   0.966   1.905 -3.3966  2.7323  0.0102
14326SOL    HW250029   5.915   0.846   1.870  0.2301  0.1230 -0.4210
14327SOL     OW50030   7.152  12.431  11.397  0.2709 -0.8390  0.4417
14327SOL    HW150031   7.070  12.382  11.407  0.3189 -0.9096  0.4886
14327SOL    HW250032   7.216  12.380  11.447  0.3002 -0.6800  0.5673
14328SOL     OW50033   9.527  12.244   7.685  0.2059 -0.1556 -0.4216
14328SOL    HW150034   9.514  12.329   7.727  0.6224 -1.5938  2.9233
14328SOL    HW250035   9.470  12.246   7.608  0.0518  3.0161 -0.3333
14329SOL     OW50036  12.277   7.501   6.124 -0.2263  0.1926 -0.6388
14329SOL    HW150037  12.257   7.433   6.059 -1.6820  0.5441 -0.6006
14329SOL    HW250038  12.192   7.541   6.144  0.5001  1.5442 -0.1167
14330SOL     OW50039   4.623   5.577   7.082 -0.0182  0.2039 -0.1242
14330SOL    HW150040   4.630   5.616   6.995 -1.4512  2.2929  0.6460
14330SOL    HW250041   4.711   5.587   7.119  0.4655 -0.2295 -1.1031
14331SOL     OW50042   6.780  10.122   7.073  0.7503  0.0594  0.1972
14331SOL    HW150043   6.709  10.099   7.012 -0.9807 -0.4161  2.2397
14331SOL    HW250044   6.859  10.089   7.031 -0.4304 -0.7700 -1.5111
14332SOL     OW50045   1.481   6.088  11.106 -0.3388 -0.3788  0.2750
14332SOL    HW150046   1.447   6.152  11.043 -0.3000 -1.2410 -0.6475
14332SOL    HW250047   1.460   6.125  11.191 -1.4559  0.2564 -0.2545
14333SOL     OW50048   6.717   7.224   0.744 -0.0259  0.1619  0.5495
14333SOL    HW150049   6.675   7.203   0.828  0.4736 -0.0626  0.7494
14333SOL    HW250050   6.780   7.292   0.766 -0.0063  0.2164  0.3228
14334SOL     OW50051  11.463   6.587   4.342 -0.2652  0.2982 -0.7310
14334SOL    HW150052  11.415   6.669   4.347 -1.0592 -0.2162  0.6980
14334SOL    HW250053  11.520   6.587   4.418 -1.3586 -1.0986  0.1372
14335SOL     OW50054   1.399   0.801   3.978  0.5866  0.4850 -0.0273
14335SOL    HW150055   1.485   0.833   4.006  1.5971 -2.4578  0.4967
14335SOL    HW250056   1.409   0.784   3.884  1.7077 -2.8885  0.5995
14336SOL     OW50057   7.177  10.825   3.532 -0.0244 -0.0912  0.3114
14336SOL    HW150058   7.097  10.869   3.561 -1.1087 -0.7298 -1.5927
14336SOL    HW250059   7.177  10.832   3.437 -0.3756 -4.2532 -0.2067
14337SOL     OW50060   9.011   9.612  11.177  0.6039  0.3724  0.4537
14337SOL    HW150061   9.081   9.624  11.113  0.6828 -0.4678  0.3788
14337SOL    HW250062   9.026   9.681  11.242  1.6997 -0.0024  0.6158
14338SOL     OW50063   5.667   5.962   5.102 -0.3634 -0.3722 -0.3310
14338SOL    HW150064   5.613   5.998   5.031 -1.5735 -1.3856  0.0306
14338SOL    HW250065   5.745   5.928   5.059 -0.7870 -0.4007 -1.0872
14339SOL     OW50066   6.801   8.143   7.014 -0.2885 -0.3606  0.3407
14339SOL    HW150067   6.844   8.118   7.095 -1.0465  0.9054  1.1544
14339SOL    HW250068   6.842   8.225   6.988 -1.0635  0.0084  0.2446
14340SOL     OW50069  12.237   4.375   4.238  0.2919  0.0937 -0.6291
14340SOL    HW150070  12.327   4.388   4.267  0.1846  0.0882 -0.2893
14340SOL    HW250071  12.243   4.317   4.162  0.3908 -1.9150  0.8595
14341SOL     OW50072  11.959   8.915   5.210 -0.4182 -0.5696  0.0056
14341SOL    HW150073  11.907   8.840   5.182 -1.7505  0.6336 -0.9125
14341SOL    HW250074  11.930   8.987   5.153 -2.4809  1.7886  3.6169
14342SOL     OW50075  11.032   8.143   3.970  0.0627 -0.4418  0.8735
14342SOL    HW150076  10.993   8.085   3.905  1.7425  1.0838 -1.6836
14342SOL    HW250077  10.961   8.203   3.994 -0.0569  0.4670 -1.4631
14343SOL     OW50078   2.813   9.946   7.687  0.0646  0.9742 -0.8755
14343SOL    HW150079   2.891   9.901   7.654 -0.4540  1.0238 -2.2467
14343SOL    HW250080   2.838  10.039   7.690 -0.3046  1.1580 -2.5409
14344SOL     OW50081   0.339   1.617   2.752 -0.6340 -0.4574 -0.2329
14344SOL    HW150082   0.317   1.592   2.662 -1.0074 -0.1979 -0.2148
14344SOL    HW250083   0.366   1.708   2.745  2.7554 -1.3600 -0.6363
14345SOL     OW50084   8.565  12.282   5.076  0.0474 -0.1211  0.1973
14345SOL    HW150085   8.474  12.300   5.054 -0.4846 -0.5874  1.9024
14345SOL    HW250086   8.593  12.358   5.127  0.0977 -0.6930  1.0445
14346SOL     OW50087  11.669   5.867   0.182  0.0401  0.0547  0.1948
14346SOL    HW150088  11.727   5.815   0.126  0.0488 -0.1188  0.3665
14346SOL    HW250089  11.717   5.949   0.196 -0.1304  0.2618 -0.3781
14347SOL     OW50090   1.602   0.526  10.771  0.2283  0.0943  0.6671
14347SOL    HW150091   1.632   0.541  10.860 -1.8834  0.2821  1.4137
14347SOL    HW250092   1.621   0.608  10.725  0.7220  0.2447  1.1365
14348SOL     OW50093   0.832   7.897   6.328 -0.5386 -0.2743  0.1634
14348SOL    HW150094   0.787   7.919   6.246  0.7721  0.0802 -0.4830
14348SOL    HW250095   0.841   7.980   6.373  2.1634  0.2397 -1.1310
14349SOL     OW50096  11.253  11.745  10.102 -0.0027 -0.0060  0.0024
14349SOL    HW150097  11.223  11.655  10.112 -1.7384  0.5691  0.2811
14349SOL    HW250098  11.291  11.767  10.187  1.3237 -0.7646 -0.3728
14350SOL     OW50099   0.036   1.514   8.146 -0.1419  0.2630 -0.6590
14350SOL    HW150100   0.096   1.550   8.211 -2.0926  0.9131  0.8590
14350SOL    HW250101   0.092   1.461   8.089  1.7097 -0.0053  1.2914
14351SOL     OW50102   4.809   7.746   2.579  0.2047  0.1470  0.4635
14351SOL    HW150103   4.868   7.709   2.513  1.0103  0.0352  1.2256
14351SOL    HW250104   4.794   7.836   2.549 -0.7667 -0.3916 -0.7344
14352SOL     OW50105   2.048   4.363  11.921 -0.3642  0.1920 -0.1137
14352SOL    HW150106   2.009   4.290  11.873 -1.9258  0.7398  0.2359
14352SOL    HW250107   2.131   4.330  11.953 -0.7598 -1.2256 -0.4941
14353SOL     OW50108  10.426  10.689   6.266 -0.2405  0.0365  0.3334
14353SOL    HW150109  10.375  10.765   6.295 -0.6985 -0.3115  0.4600
14353SOL    HW250110  10.499  10.726   6.217  0.5659  0.6377  1.9556
14354SOL     OW50111   8.780   3.540  12.149 -0.0673 -0.7342 -0.8896
14354SOL    HW150112   8.787   3.624  12.102  0.0365 -0.6599 -0.7438
14354SOL    HW250113   8.716   3.557  12.218  1.3262 -0.1982  0.3398
14355SOL     OW50114   4.225   2.259   1.087  0.0049  0.9221 -0.2610
14355SOL    HW150115   4.135   2.280   1.065 -0.8788 -1.4454  0.7617
14355SOL    HW250116   4.272   2.265   1.003 -1.8660 -1.2963 -1.5816
14356SOL     OW50117  11.110   4.616   9.736 -0.0559 -0.5606  0.0565
14356SOL    HW150118  11.050   4.630   9.663 -0.0226  0.7393  0.2489
14356SOL    HW250119  11.121   4.703   9.775  0.2494 -1.1621  1.3616
14357SOL     OW50120  12.369   1.123   3.078 -0.5154  0.2300  1.0355
14357SOL    HW150121  12.332   1.162   3.157 -1.4595  0.0049  0.7218
14357SOL    HW250122  12.306   1.056   3.052 -0.0345  0.0419  0.3017
14358SOL     OW50123  11.529   3.546   0.188 -0.0222  0.2943  0.0866
14358SOL    HW150124  11.469   3.518   0.257  0.9196 -0.0361  0.7781
14358SOL    HW250125  11.605   3.489   0.196  0.8714  1.4265 -0.0605
14359SOL     OW50126   1.389   3.124  11.892  0.2056  0.4281  0.8007
14359SOL    HW150127   1.365   3.086  11.976  1.6247  0.4386  1.2347
14359SOL    HW250128   1.387   3.219  11.908  0.1473  0.4370  0.7376
14360SOL     OW50129   8.194   6.936  12.371 -0.3067  0.0277 -0.0098
14360SOL    HW150130   8.155   6.939  12.458 -0.6693  0.5707 -0.1917
14360SOL    HW250131   8.216   7.026  12.350 -0.8090 -0.0063 -0.7460
14361SOL     OW50132   0.828  10.135   7.630 -0.0569 -0.0350  0.5882
14361SOL    HW150133   0.861  10.186   7.704 -2.4814  0.1444  1.6089
14361SOL    HW250134   0.768  10.072   7.669 -0.6050 -0.6294 -1.1444
14362SOL     OW50135   8.214  11.089   3.559  0.2814  0.1918 -0.4211
14362SOL    HW150136   8.208  11.005   3.513  1.7949  0.0322 -0.3874
14362SOL    HW250137   8.126  11.125   3.554 -0.7226 -1.9264  0.6056
14363SOL     OW50138   1.471   4.447   4.173 -0.1973 -0.1111  0.4216
14363SOL    HW150139   1.416   4.459   4.250  2.4225  0.1511  2.4079
14363SOL    HW250140   1.425   4.382   4.120 -2.2083 -0.1266  2.0868
14364SOL     OW50141   4.172   9.172   9.991 -0.2161  0.4207  0.3438
14364SOL    HW150142   4.180   9.242   9.926  0.3405 -0.1311 -0.1907
14364SOL    HW250143   4.127   9.102   9.945  1.3815 -0.4997  0.0967
14365SOL     OW50144   4.781   5.506   2.350  0.0061  0.2895 -0.0979
14365SOL    HW150145   4.748   5.423   2.314 -0.6586  0.7408 -0.5540
14365SOL    HW250146   4.756   5.572   2.285  0.2716  0.8963  0.4042
14366SOL     OW50147  10.490   0.124   3.489  0.5460  0.1334 -0.5238
14366SOL    HW150148  10.452   0.047   3.446  0.5055 -0.0156 -0.2218
14366SOL    HW250149  10.452   0.124   3.577  2.5307 -1.0120  0.4005
14367SOL     OW50150  12.541   4.727  12.038  0.5935  0.0069  0.2503
14367SOL    HW150151  12.626   4.727  11.995  0.8448  2.5074  0.5767
14367SOL    HW250152  12.541   4.807  12.091 -2.1681  0.3909 -0.1716
14368SOL     OW50153   6.941  11.258   4.162 -0.0554 -0.0835  0.7926
14368SOL    HW150154   6.997  11.262   4.085  1.6277 -3.1544  1.6808
14368SOL    HW250155   6.853  11.274   4.129  0.6052 -1.3064 -1.8046
14369SOL     OW50156   2.565   6.336   3.986 -0.1683  0.9391  0.0403
14369SOL    HW150157   2.489   6.284   3.961  0.4249 -0.1574  0.4580
14369SOL    HW250158   2.624   6.330   3.911 -0.4224  1.6539 -0.2187
14370SOL     OW50159   2.808   6.269   9.340 -0.5859  0.1976  0.1724
14370SOL    HW150160   2.762   6.185   9.344 -1.8590  0.7192 -1.9972
14370SOL    HW250161   2.854   6.267   9.257 -0.6021  1.6292  0.1099
14371SOL     OW50162   8.692   2.628   8.014 -0.4353  0.2307  0.0593
14371SOL    HW150163   8.755   2.677   7.960 -0.3265 -2.5484 -2.5984
14371SOL    HW250164   8.739   2.548   8.039 -1.6683 -0.1005  1.4707
14372SOL     OW50165   4.478   2.474   2.707 -0.7391 -0.1883 -0.0327
14372SOL    HW150166   4.481   2.554   2.655 -0.3897  0.5165  1.0274
14372SOL    HW250167   4.549   2.420   2.673 -1.4457 -0.3891 -1.2517
14373SOL     OW50168   4.990   5.709  10.072  0.2571 -0.0580 -0.4747
14373SOL    HW150169   5.027   5.623  10.091 -0.0285 -0.1345 -0.2652
14373SOL    HW250170   5.046   5.744  10.003  1.8023  0.5520  1.0031
14374SOL     OW50171   9.419  11.524   6.279  0.1217 -0.4205 -0.3623
14374SOL    HW150172   9.469  11.537   6.360 -0.0525  0.4021 -0.3780
14374SOL    HW250173   9.404  11.430   6.275 -0.3827 -0.4109  0.8664
14375SOL     OW50174   2.093   4.936  10.651 -0.0758  0.4846 -0.5375
14375SOL    HW150175   2.124   4.887  10.727  0.0896  0.0006 -0.9103
14375SOL    HW250176   2.004   4.962  10.673 -0.5355 -0.8695 -0.7433
14376SOL     OW50177  10.373   4.251   2.234 -0.0510 -0.0563 -0.0066
14376SOL    HW150178  10.371   4.167   2.189  0.0619  0.1087 -0.3213
14376SOL    HW250179  10.349   4.315   2.167  0.0294  0.1792  0.1876
14377SOL     OW50180   3.476   3.343   7.453  0.5230 -0.5281 -0.9888
14377SOL    HW150181   3.467   3.339   7.548 -0.5689  0.2367 -1.0470
14377SOL    HW250182   3.454   3.254   7.424 -0.4997 -0.4082 -0.6183
14378SOL     OW50183  11.540   3.987   2.075  0.4522  0.1168 -0.3153
14378SOL    HW150184  11.588   4.059   2.117  2.0824 -1.4948  0.7078
14378SOL    HW250185  11.599   3.912   2.080 -0.8990 -1.1430 -2.0180
14379SOL     OW50186   8.406   2.646   3.126 -0.4573  0.0760 -0.2325
14379SOL    HW150187   8.500   2.631   3.142 -0.7694 -0.3924  1.3956
14379SOL    HW250188   8.365   2.629   3.211 -2.2803 -1.9207 -1.4184
14380SOL     OW50189   1.385   3.270   2.683 -0.3846  0.0420 -0.5588
14380SOL    HW150190   1.349   3.358   2.680 -1.0556 -0.1218  1.2171
14380SOL    HW250191   1.310   3.212   2.670 -0.4779 -0.2736  1.1041
14381SOL     OW50192   1.233   5.446   3.097  0.0977 -0.0282 -0.1911
14381SOL    HW150193   1.175   5.462   3.022 -0.4092  0.1476  0.2248
14381SOL    HW250194   1.321   5.462   3.064 -0.1606  0.5181 -0.6244
14382SOL     OW50195   8.810   5.526   2.856 -0.1783 -0.0320  0.2076
14382SOL    HW150196   8.736   5.583   2.836 -1.1567 -0.4859  2.3216
14382SOL    HW250197   8.791   5.444   2.810 -1.9563 -0.7812  2.1647
14383SOL     OW50198  10.204   6.979   6.082  0.3373  0.1099  0.6723
14383SOL    HW150199  10.239   6.954   6.167  1.8616  2.1327  0.7079
14383SOL    HW250200  10.281   6.988   6.026 -0.3979  1.4057 -0.1808
14384SOL     OW50201   4.917  10.720   3.802  0.5023 -0.3970 -0.4061
14384SOL    HW150202   4.998  10.673   3.783  0.4035 -0.0465 -1.7961
14384SOL    HW250203   4.938  10.774   3.878  1.3446 -0.8690 -0.2938
14385SOL     OW50204  12.196   9.475   7.268  0.6373  0.2375 -0.0446
14385SOL    HW150205  12.200   9.417   7.344 -1.3481  0.3614  0.2180
14385SOL    HW250206  12.151   9.423   7.201 -0.0123  1.0213 -0.2302
14386SOL     OW50207   8.483   4.659   6.216 -0.2093 -0.2027 -0.1285
14386SOL    HW150208   8.489   4.747   6.178 -0.7176  0.1423  0.5512
14386SOL    HW250209   8.391   4.651   6.241  0.1759 -0.2347  1.4032
14387SOL     OW50210  10.656   9.460   7.058  0.7302  0.2541  0.5102
14387SOL    HW150211  10.563   9.455   7.081  0.4949 -1.0435 -0.5795
14387SOL    HW250212  10.671   9.552   7.035 -0.1288  0.5969  1.2932
14388SOL     OW50213   9.601   1.069  11.487  0.3105 -0.1518  0.3649
14388SOL    HW150214   9.669   1.106  11.430 -0.2712 -0.2506 -0.4158
14388SOL    HW250215   9.590   1.134  11.556  0.9939 -0.0009  0.3450
14389SOL     OW50216  10.611   5.492   1.283 -0.4896 -0.4182  0.0558
14389SOL    HW150217  10.608   5.489   1.379 -1.3018  0.5767  0.0770
14389SOL    HW250218  10.695   5.452   1.261 -0.1099 -0.2992  1.1948
14390SOL     OW50219   3.847   8.752   7.605  0.3165 -0.2689 -0.3415
14390SOL    HW150220   3.936   8.723   7.624  0.6713 -0.4032 -2.0489
14390SOL    HW250221   3.836   8.737   7.511 -0.3283  2.8347 -0.8576
14391SOL     OW50222   9.617   5.554   9.197  0.6483 -0.1082  0.8715
14391SOL    HW150223   9.653   5.636   9.231 -1.8074  1.2775  0.3888
14391SOL    HW250224   9.656   5.545   9.110  0.6497  0.7931  0.7665
14392SOL     OW50225   5.202  10.653  12.471  0.0644  0.6622  0.5611
14392SOL    HW150226   5.249  10.582  12.516 -1.1113 -1.2970 -1.1571
14392SOL    HW250227   5.250  10.666  12.389 -0.9041  0.3964 -0.0637
14393SOL     OW50228   2.221   0.643   1.445  0.2905  0.5428 -0.5441
14393SOL    HW150229   2.208   0.686   1.361 -1.4335  0.2339 -0.4643
14393SOL    HW250230   2.187   0.705   1.510  0.5108  0.2833 -0.1773
14394SOL     OW50231   3.422   1.670   2.081  0.4971  0.3225 -0.0889
14394SOL    HW150232   3.343   1.714   2.049 -0.9572 -0.3253  2.3156
14394SOL    HW250233   3.392   1.582   2.105  1.7767  0.2539  1.4430
14395SOL     OW50234   3.549   0.753   3.914  0.0185  0.3711 -0.3945
14395SOL    HW150235   3.508   0.670   3.938  0.0261 -0.0670 -1.8138
14395SOL    HW250236   3.617   0.729   3.851  1.7171  1.2001  1.0340
14396SOL     OW50237   1.907   5.574   8.114 -0.1485  0.6045  0.7177
14396SOL    HW150238   1.902   5.495   8.060  0.6947  1.3630 -0.5417
14396SOL    HW250239   1.816   5.596   8.134 -0.3720 -0.9839  1.5828
14397SOL     OW50240   8.265  11.617   9.061  0.0411 -0.3534  0.2128
14397SOL    HW150241   8.190  11.638   9.117  0.9082  0.0845  1.2395
14397SOL    HW250242   8.271  11.691   9.001 -0.3005 -0.3601  0.1630
14398SOL     OW50243   9.401   3.591  10.604  0.3416  0.2923 -0.4615
14398SOL    HW150244   9.310   3.619  10.595  0.5002  1.9300  2.0040
14398SOL    HW250245   9.449   3.645  10.540 -0.2702  0.2131 -1.0022
14399SOL     OW50246   0.691   5.453   4.271 -0.4110  0.6089  0.0619
14399SOL    HW150247   0.605   5.495   4.263 -1.1878 -0.9203  0.1546
14399SOL    HW250248   0.691   5.416   4.359 -0.3100 -0.7848 -0.5061
14400SOL     OW50249  11.842   3.544   0.793  0.5878 -0.0005 -0.7057
14400SOL    HW150250  11.921   3.563   0.845 -0.0115 -0.6427  0.4830
14400SOL    HW250251  11.875   3.504   0.713  1.5211  0.5769 -0.6224
14401SOL     OW50252   8.593   2.305   2.302 -0.8997 -0.5119  0.2269
14401SOL    HW150253   8.648   2.231   2.328 -2.1396 -0.8643  1.9943
14401SOL    HW250254   8.642   2.346   2.231  0.3295 -2.3931 -0.1085
14402SOL     OW50255  11.014  12.516   4.902 -0.4090 -0.0323  0.0727
14402SOL    HW150256  11.013  12.580   4.973 -0.9649 -0.6029  0.5901
14402SOL    HW250257  10.925  12.517   4.868 -0.0825  0.4355 -0.8111
14403SOL     OW50258  12.190   9.012   3.926 -0.2591  0.6699  0.3245
14403SOL    HW150259  12.179   9.077   3.857 -0.2913  1.3962  0.9918
14403SOL    HW250260  12.170   9.060   4.007 -0.8766 -0.3253  0.7831
14404SOL     OW50261   8.006   7.278   0.507 -0.2557  0.6025 -0.2395
14404SOL    HW150262   7.998   7.186   0.532  1.7673  0.2557 -0.6422
14404SOL    HW250263   8.038   7.321   0.587 -0.4323  0.8114 -0.2810
14405SOL     OW50264  11.103   0.712  12.562  0.2077  0.8856 -0.0513
14405SOL    HW150265  11.151   0.641  12.519  1.3954  0.1450  2.2862
14405SOL    HW250266  11.041   0.667  12.620 -1.6251  1.8384 -1.1919
14406SOL     OW50267   9.866   0.310   1.323 -0.3170 -0.2553  0.3412
14406SOL    HW150268   9.873   0.217   1.304  0.4935 -0.1204 -0.0721
14406SOL    HW250269   9.946   0.348   1.285 -0.2500  0.4881  1.2058
14407SOL     OW50270  10.825   7.750   8.394 -0.0731  0.5283  0.3048
14407SOL    HW150271  10.921   7.754   8.398 -0.0409  0.9924 -0.6261
14407SOL    HW250272  10.800   7.827   8.343 -1.1036  1.6679  2.4024
14408SOL     OW50273   5.516   9.874   6.957  0.2106 -0.1876 -0.1621
14408SOL    HW150274   5.536   9.949   6.901 -2.1258 -0.4518 -1.4713
14408SOL    HW250275   5.514   9.799   6.898  0.0288 -0.8659  0.6833
14409SOL     OW50276   6.909   4.945  11.097 -0.0258  0.0729  0.5020
14409SOL    HW150277   6.940   4.937  11.187  0.9799 -1.1529  0.0809
14409SOL    HW250278   6.953   4.874  11.050 -1.0090  0.3007 -0.8294
14410SOL     OW50279   4.723   7.395   2.890  0.2927 -0.5383 -0.4205
14410SOL    HW150280   4.806   7.429   2.858 -0.0543  0.4862 -0.2628
14410SOL    HW250281   4.668   7.472   2.901 -0.1934 -1.0427  0.8850
14411SOL     OW50282  10.480  12.528   5.824 -0.0705  0.3420 -0.1423
14411SOL    HW150283  10.447  12.617   5.837 -0.5510  0.0309  0.8270
14411SOL    HW250284  10.402  12.477   5.803 -0.0724 -0.1884  1.0918
14412SOL     OW50285  11.200   7.896  12.106  0.2954 -0.0704  0.1051
14412SOL    HW150286  11.194   7.818  12.161 -1.6621 -1.1604 -1.5032
14412SOL    HW250287  11.130   7.885  12.041  0.6433  2.5270 -0.8335
14413SOL     OW50288  10.150   7.925  12.224  0.4512 -0.6214  0.3485
14413SOL    HW150289  10.115   7.875  12.150  1.1077 -0.2863 -0.2022
14413SOL    HW250290  10.078   7.931  12.286  0.0911 -1.4780  0.0225
14414SOL     OW50291   5.703  10.543   3.537 -0.2572 -0.2526  0.0634
14414SOL    HW150292   5.687  10.561   3.445 -2.9869  1.1172  0.6870
14414SOL    HW250293   5.791  10.507   3.540  0.3243  0.6508 -2.9407
14415SOL     OW50294   6.337   1.273   0.918  0.0505  0.0428 -0.3954
14415SOL    HW150295   6.268   1.247   0.858  0.6522  0.3535 -1.2441
14415SOL    HW250296   6.390   1.194   0.930 -0.5144 -0.2298  0.3565
14416SOL     OW50297   3.504  10.114  10.073  0.0440  0.4327 -0.0397
14416SOL    HW150298   3.516  10.175  10.146  0.7238  0.1194  0.1158
14416SOL    HW250299   3.457  10.040  10.112 -1.6484  1.2483 -0.4365
14417SOL     OW50300   2.606  10.214   9.829  0.0478 -0.0182 -0.5467
14417SOL    HW150301   2.629  10.152   9.898 -0.7963  0.6771  0.3852
14417SOL    HW250302   2.688  10.230   9.782  0.4168 -1.2895 -0.3701
14418SOL     OW50303  10.424   0.892   2.382  0.4019 -0.6843 -0.2883
14418SOL    HW150304  10.510   0.890   2.339  0.9515 -2.2343  0.8066
14418SOL    HW250305  10.370   0.832   2.330 -0.0350  0.2022 -0.9076
14419SOL     OW50306  11.296   7.421   5.860 -0.7098  0.1105  0.0369
14419SOL    HW150307  11.227   7.476   5.898 -1.3852 -0.1210 -0.8308
14419SOL    HW250308  11.294   7.441   5.767  0.3097 -0.0141 -0.0218
14420SOL     OW50309  12.293  11.188   1.168  0.0790  0.0957  0.5076
14420SOL    HW150310  12.359  11.138   1.119 -0.9908 -2.1899  1.2357
14420SOL    HW250311  12.343  11.239   1.231  1.3034  0.9712 -1.0729
14421SOL     OW50312  11.246   7.618   7.489 -0.5227  0.3667  0.7502
14421SOL    HW150313  11.236   7.710   7.461 -0.1818 -0.0528 -0.8495
14421SOL    HW250314  11.178   7.571   7.441  0.3173 -0.4458  0.3146
14422SOL     OW50315  12.116   7.414   7.337 -0.5751 -0.0262  0.2308
14422SOL    HW150316  12.023   7.393   7.331 -0.2942 -1.3342  0.1506
14422SOL    HW250317  12.136   7.456   7.253 -0.5978 -1.9187 -0.7693
14423SOL     OW50318  12.100  12.346   7.940 -0.3505  0.8214  0.2453
14423SOL    HW150319  12.144  12.325   7.857 -0.5492  0.0004  0.3471
14423SOL    HW250320  12.123  12.438   7.956  1.6881  0.3253  0.4911
14424SOL     OW50321   4.847   8.550   1.910 -0.0096  0.3996  0.2054
14424SOL    HW150322   4.917   8.501   1.953 -0.5031  0.1819  0.7650
14424SOL    HW250323   4.893   8.618   1.860  0.6046  0.1969  0.4832
14425SOL     OW50324   1.206   4.866  12.506 -0.2064 -0.3837 -0.5818
14425SOL    HW150325   1.294   4.861  12.470 -0.2239  0.9622 -0.8406
14425SOL    HW250326   1.198   4.786  12.559  1.9236  0.4146  1.1243
14426SOL     OW50327   1.572  12.472   9.641  0.1841  0.0060 -0.1938
14426SOL    HW150328   1.631  12.528   9.692  1.1687  0.2066 -1.5107
14426SOL    HW250329   1.574  12.509   9.553  0.5134 -1.8278 -0.9867
14427SOL     OW50330   0.255   2.988   3.052 -0.0485 -0.1513  0.9326
14427SOL    HW150331   0.161   3.000   3.034  0.5468  2.0907 -1.2210
14427SOL    HW250332   0.258   2.912   3.110 -3.1520 -0.6284  0.6825
14428SOL     OW50333  12.541   8.397  11.509  0.3034 -0.4296 -0.0530
14428SOL    HW150334  12.462   8.373  11.557  0.3884 -2.1567 -0.6800
14428SOL    HW250335  12.522   8.370  11.419  1.2941 -0.0806 -0.3742
14429SOL     OW50336   8.312  11.782   3.437 -0.4261  0.0242  0.0599
14429SOL    HW150337   8.258  11.707   3.459 -1.2056  0.2315 -1.0163
14429SOL    HW250338   8.392  11.771   3.488 -1.6347 -0.0747  2.0438
14430SOL     OW50339  10.454   7.538   0.182 -0.2341 -0.2504  0.1146
14430SOL    HW150340  10.387   7.561   0.247 -0.5173 -0.3328 -0.1442
14430SOL    HW250341  10.428   7.451   0.151 -0.1638 -0.1634 -0.1896
14431SOL     OW50342   8.276   3.820   7.409 -0.6955 -0.0037  0.5304
14431SOL    HW150343   8.327   3.874   7.470  2.2979 -2.3013  0.2949
14431SOL    HW250344   8.250   3.743   7.460 -0.1132 -0.8932 -0.4648
14432SOL     OW50345   6.269   5.342   0.322  0.2770  0.1342  0.4443
14432SOL    HW150346   6.336   5.315   0.260  0.6168  0.8400  0.4974
14432SOL    HW250347   6.239   5.427   0.291 -2.5884 -1.3071 -1.1805
14433SOL     OW50348   1.172   9.449   4.849 -0.3063  0.3491  0.0545
14433SOL    HW150349   1.141   9.379   4.792  2.1170  0.2893 -1.3609
14433SOL    HW250350   1.267   9.435   4.855  0.1079  2.8062  0.6769
14434SOL     OW50351  11.336   6.839   4.507 -0.1164 -0.1821 -0.3634
14434SOL    HW150352  11.245   6.862   4.486 -0.5017 -1.5430 -0.3335
14434SOL    HW250353  11.389   6.896   4.452 -1.0574 -1.6539 -2.9654
14435SOL     OW50354   3.908   8.874   2.642  0.8352 -0.1206 -0.3941
14435SOL    HW150355   3.994   8.904   2.671  0.9959 -0.5263 -0.4514
14435SOL    HW250356   3.846   8.925   2.694  1.1070  0.2624 -0.4376
14436SOL     OW50357  10.016   2.737   0.063  0.5802  0.1454 -0.5793
14436SOL    HW150358  10.046   2.788   0.139  1.3256  0.3529 -0.9972
14436SOL    HW250359   9.957   2.795   0.016 -0.3953 -0.2078  0.1666
14437SOL     OW50360   1.185  12.580   3.122  0.1313  0.0620  0.0135
14437SOL    HW150361   1.167  12.594   3.029 -1.4354  0.5318  0.3667
14437SOL    HW250362   1.213  12.666   3.154 -0.8309  0.2800  0.2911
14438SOL     OW50363   2.230   8.193  11.583  0.2617  0.1033  0.1105
14438SOL    HW150364   2.276   8.239  11.654 -1.4520 -2.4655  3.1540
14438SOL    HW250365   2.298   8.139  11.542  1.2551  1.5097 -0.1830
14439SOL     OW50366   1.386   1.035   8.528 -0.3884 -0.2101 -0.5225
14439SOL    HW150367   1.414   1.079   8.608  0.7181 -1.6507 -0.0736
14439SOL    HW250368   1.421   1.088   8.457 -1.4403  1.1213 -0.0793
14440SOL     OW50369   1.113  11.071   0.587  0.3552  0.1400 -0.1213
14440SOL    HW150370   1.107  11.155   0.541  0.3482  0.6408  0.7597
14440SOL    HW250371   1.159  11.092   0.669  0.7501 -0.8041 -0.0881
14441SOL     OW50372  11.940   2.311  10.521  0.0964  0.2830  0.1476
14441SOL    HW150373  11.974   2.361  10.595  1.0406 -0.0182 -0.0686
14441SOL    HW250374  11.881   2.247  10.561 -0.4858  1.0241  0.5013
14442SOL     OW50375  11.747   1.204  11.380  0.5349 -0.0155  0.0171
14442SOL    HW150376  11.721   1.283  11.333  2.6517  2.8642  3.1443
14442SOL    HW250377  11.699   1.209  11.463  1.4262 -1.4637  0.6531
14443SOL     OW50378   6.304   8.991   5.885  0.1168 -0.4591  0.4470
14443SOL    HW150379   6.367   9.060   5.867 -0.6588  0.2666  0.4573
14443SOL    HW250380   6.338   8.948   5.964  0.1108  0.5371  1.0135
14444SOL     OW50381   6.184   1.689   9.402  0.1082 -0.1848 -0.4313
14444SOL    HW150382   6.238   1.672   9.479  1.5465 -1.4978 -1.6442
14444SOL    HW250383   6.181   1.604   9.357 -1.9531  0.1680 -1.0835
14445SOL     OW50384   2.044   9.500   4.045 -0.2027 -0.8884 -0.3792
14445SOL    HW150385   2.045   9.413   4.085  0.2552 -0.8088 -0.2096
14445SOL    HW250386   2.134   9.513   4.015 -0.2205 -0.3863 -0.2185
14446SOL     OW50387   5.461   1.381   0.478 -0.2656 -0.0096 -0.0464
14446SOL    HW150388   5.428   1.307   0.529  0.7028  0.0930  0.7671
14446SOL    HW250389   5.481   1.448   0.543 -0.2588  0.6235 -0.6923
14447SOL     OW50390   3.410   2.114   6.611  0.2179 -0.0857 -0.4885
14447SOL    HW150391   3.429   2.119   6.705  0.6553  0.4117 -0.5986
14447SOL    HW250392   3.317   2.096   6.606  0.3194 -0.7689  0.0517
14448SOL     OW50393   7.041   7.147   6.722  0.1164 -0.0748 -0.0365
14448SOL    HW150394   7.082   7.198   6.652  0.1056  1.0269  0.7407
14448SOL    HW250395   7.099   7.159   6.797 -0.4091 -0.4041  0.4314
14449SOL     OW50396  10.367   6.533   7.846  0.1114 -0.7411 -0.3238
14449SOL    HW150397  10.323   6.500   7.925  2.2591 -0.1841  1.1995
14449SOL    HW250398  10.457   6.503   7.855  0.6246  0.1570 -2.1110
14450SOL     OW50399   3.778   5.334   3.373  0.3377 -0.1528 -0.2695
14450SOL    HW150400   3.816   5.249   3.353  2.7648  0.7935  0.0788
14450SOL    HW250401   3.761   5.374   3.287 -0.3139 -0.7336 -0.4244
14451SOL     OW50402   9.810   7.048   6.996  0.2096  0.7306 -0.3207
14451SOL    HW150403   9.896   7.031   6.957  0.0240 -0.8701 -0.0861
14451SOL    HW250404   9.815   7.140   7.024  2.5193  0.2206  1.3032
14452SOL     OW50405   5.978  10.601  12.488  0.0056  0.1850 -0.9030
14452SOL    HW150406   5.964  10.658  12.563 -1.1966  0.8618 -1.6090
14452SOL    HW250407   5.915  10.529  12.500  0.8014 -0.4661 -0.5450
14453SOL     OW50408   3.173   0.880   6.594  0.7696  0.0616  0.2134
14453SOL    HW150409   3.239   0.904   6.659 -0.3610 -1.0482  1.8263
14453SOL    HW250410   3.224   0.863   6.514  2.2724  0.6730  0.9966
14454SOL     OW50411   0.890   1.952   6.812 -0.1078  0.3063  0.3610
14454SOL    HW150412   0.808   1.956   6.762 -0.4312  0.1160  0.8675
14454SOL    HW250413   0.955   1.920   6.750 -0.4522  0.3082 -0.0022
14455SOL     OW50414   4.250   5.365   8.675  0.3200  0.4017  0.0503
14455SOL    HW150415   4.175   5.315   8.708  0.6185 -0.3014 -0.3292
14455SOL    HW250416   4.323   5.337   8.729  0.9013 -1.0588 -1.4157
14456SOL     OW50417   7.021   2.820   8.201 -0.0144 -0.0322  0.0681
14456SOL    HW150418   6.948   2.765   8.175 -0.7883  0.8171  0.3894
14456SOL    HW250419   7.032   2.804   8.295 -0.0890  0.1787  0.1142
14457SOL     OW50420   4.856   5.382   2.730 -0.2715  0.4967 -0.3881
14457SOL    HW150421   4.940   5.338   2.717 -0.3739  0.5397 -1.2805
14457SOL    HW250422   4.791   5.316   2.707 -0.4236  1.1922 -2.1696
14458SOL     OW50423   5.588   6.001   3.136 -0.2613 -0.3176 -0.4284
14458SOL    HW150424   5.512   5.951   3.167 -0.0871  0.9210  2.2665
14458SOL    HW250425   5.557   6.091   3.129  0.3047 -0.2147 -1.8965
14459SOL     OW50426  11.294   4.789   8.348  0.3206  0.8231 -0.5336
14459SOL    HW150427  11.340   4.709   8.375 -1.6614 -0.1911  0.0756
14459SOL    HW250428  11.359   4.858   8.356  1.0015 -0.0418  3.1194
14460SOL     OW50429   7.447  11.554   2.535  0.8270  0.3598 -0.6995
14460SOL    HW150430   7.359  11.517   2.532  0.6906  0.6586 -0.4525
14460SOL    HW250431   7.501  11.492   2.487  0.9563 -1.1008  1.1955
14461SOL     OW50432  10.001   1.050  11.556  0.1805  0.4182 -0.7244
14461SOL    HW150433  10.029   0.973  11.506  0.2900 -0.2331  0.3112
14461SOL    HW250434   9.996   1.019  11.646 -1.1458  1.2726 -0.4902
14462SOL     OW50435   0.199   9.367   8.594  0.7523 -0.3737  0.0428
14462SOL    HW150436   0.258   9.297   8.563  0.6278 -1.0367  1.2551
14462SOL    HW250437   0.170   9.337   8.680  0.6655  1.1708  0.5723
14463SOL     OW50438   0.693   6.267   8.729  0.1178  0.0294  0.2230
14463SOL    HW150439   0.622   6.266   8.665 -0.9756  0.2066  1.3832
14463SOL    HW250440   0.726   6.357   8.727  0.4150 -0.0950 -0.4354
14464SOL     OW50441   0.254   9.289   2.270 -0.5605 -0.0243  0.1742
14464SOL    HW150442   0.258   9.264   2.178 -0.7604  1.2416 -0.2033
14464SOL    HW250443   0.180   9.350   2.275 -0.3722  0.1433  1.1170
14465SOL     OW50444  10.125   8.195   7.715 -0.1621 -0.0714 -0.3972
14465SOL    HW150445  10.163   8.108   7.701 -0.6050 -0.3848  0.3402
14465SOL    HW250446  10.201   8.253   7.723  0.1332 -0.3517 -1.0833
14466SOL     OW50447   6.372   6.038   5.505  0.7963  0.1731  0.2064
14466SOL    HW150448   6.365   6.022   5.599  1.5469  0.9543  0.4075
14466SOL    HW250449   6.281   6.048   5.476  0.5844  2.9988  1.4399
14467SOL     OW50450  11.927   4.028   6.338  0.3656  0.0022 -0.3852
14467SOL    HW150451  12.004   4.075   6.306  0.4676  0.1500  0.0663
14467SOL    HW250452  11.957   3.938   6.348  0.2821 -0.0832 -0.8701
14468SOL     OW50453   8.767   3.029   3.852 -0.1019  0.1131  0.3330
14468SOL    HW150454   8.738   3.107   3.900  1.7796  1.9065 -1.2216
14468SOL    HW250455   8.768   3.057   3.760  2.6634 -1.0261 -0.0715
14469SOL     OW50456   4.504  10.500   5.462 -0.2038 -0.0977 -0.3206
14469SOL    HW150457   4.486  10.526   5.372 -1.9786  0.3572  0.1266
14469SOL    HW250458   4.447  10.555   5.515  2.2190  1.0656  1.2787
14470SOL     OW50459   0.298   7.027   0.437 -0.2042 -0.5469 -0.1464
14470SOL    HW150460   0.258   7.063   0.517  1.4127  0.2593  0.3460
14470SOL    HW250461   0.363   6.964   0.468  1.5410  0.8873 -0.6904
14471SOL     OW50462  11.315   4.844   0.961  0.5117  0.0785  0.0684
14471SOL    HW150463  11.346   4.902   1.031 -1.8512  1.4799  0.0744
14471SOL    HW250464  11.224   4.826   0.983  0.0095 -0.3210 -2.0707
14472SOL     OW50465   2.547   5.029   9.971  0.2710 -0.8764 -0.0327
14472SOL    HW150466   2.568   4.940   9.998 -3.1548 -1.4114  1.3783
14472SOL    HW250467   2.562   5.082  10.050  2.0560 -0.1676 -0.7918
14473SOL     OW50468   6.619   4.127   1.041  0.3695  0.3922  0.2275
14473SOL    HW150469   6.534   4.106   1.080  0.6957  0.9153  1.2654
14473SOL    HW250470   6.620   4.223   1.036  0.6396  0.3604 -0.3878
14474SOL     OW50471   4.570  10.658  11.810  0.1670  0.3576  0.3614
14474SOL    HW150472   4.648  10.695  11.852  0.6416 -0.8966  0.6286
14474SOL    HW250473   4.503  10.659  11.879  0.6001 -0.5968  0.8174
14475SOL     OW50474  12.318   4.248   6.465  0.1504  0.1776 -0.1114
14475SOL    HW150475  12.353   4.163   6.489  1.4779  0.5778 -0.5257
14475SOL    HW250476  12.260   4.272   6.537 -1.0808 -1.5297 -0.4945
14476SOL     OW50477   3.249   3.286   6.699 -0.1888 -0.3040 -0.6353
14476SOL    HW150478   3.276   3.216   6.640  0.4195 -0.0964 -0.6137
14476SOL    HW250479   3.219   3.356   6.640  0.6818  0.0120 -0.7300
14477SOL     OW50480   5.136   7.587   4.241  0.2260  0.0072 -0.4644
14477SOL    HW150481   5.144   7.633   4.324  1.6144 -1.4654  0.2837
14477SOL    HW250482   5.046   7.554   4.239 -0.1653  1.0350 -0.1057
14478SOL     OW50483   2.730   9.133   5.974  0.1058  0.1092  0.0625
14478SOL    HW150484   2.727   9.201   6.041 -0.3169 -0.9351  1.1350
14478SOL    HW250485   2.739   9.051   6.023  2.1496 -0.5244 -1.2409
14479SOL     OW50486   9.937   7.167   4.276 -0.0133 -0.1782 -0.1917
14479SOL    HW150487   9.959   7.258   4.256  0.3825 -0.4876 -1.2429
14479SOL    HW250488  10.014   7.117   4.249  0.2917 -0.7175  1.5866
14480SOL     OW50489   8.927   1.167   5.149 -0.4403  0.2266 -0.1412
14480SOL    HW150490   8.989   1.104   5.187 -0.5652 -0.7409 -1.4652
14480SOL    HW250491   8.947   1.250   5.193  1.8316 -0.0404 -0.5067
14481SOL     OW50492   0.085  11.259  11.050 -0.2280  0.3470 -0.1412
14481SOL    HW150493   0.159  11.244  11.108  0.6123 -1.0686 -1.4993
14481SOL    HW250494   0.103  11.344  11.009  1.6277 -0.7264 -1.7419
14482SOL     OW50495   6.076   8.318   3.472  0.1228 -0.3246 -0.6308
14482SOL    HW150496   6.025   8.350   3.397  0.1032  2.6242  0.5425
14482SOL    HW250497   6.025   8.345   3.548  2.5656  1.1999  0.5493
14483SOL     OW50498   5.288   1.860  10.897 -0.3946 -0.1248  0.5950
14483SOL    HW150499   5.299   1.766  10.884  0.6783  0.0554  0.0584
14483SOL    HW250500   5.195   1.875  10.886 -0.4344 -0.9756 -0.3957
14484SOL     OW50501   2.604   9.796   6.854  0.3053  0.0398  0.0452
14484SOL    HW150502   2.644   9.720   6.811 -0.2092  0.4751 -1.2643
14484SOL    HW250503   2.520   9.807   6.810  0.0496  0.9198  0.7322
14485SOL     OW50504   8.630   6.020   4.380 -1.1267 -0.0879  0.1914
14485SOL    HW150505   8.586   6.014   4.295  0.3825  2.7396 -0.9632
14485SOL    HW250506   8.561   6.008   4.445 -2.8752  0.5032 -1.4942
14486SOL     OW50507  10.484  11.469   9.115 -0.0764 -0.2417  0.0752
14486SOL    HW150508  10.418  11.445   9.180 -0.4591 -0.2634 -0.3150
14486SOL    HW250509  10.463  11.560   9.092 -0.6526 -0.5957 -0.8503
14487SOL     OW50510   4.595   7.678   0.873 -0.0716  0.0105  0.2065
14487SOL    HW150511   4.541   7.749   0.907 -0.7979  0.5145 -1.8472
14487SOL    HW250512   4.576   7.604   0.931 -0.9203  0.9167  1.1240
14488SOL     OW50513   5.449   6.155  12.423 -0.0471 -0.0866  0.2968
14488SOL    HW150514   5.490   6.192  12.502  0.8629  0.8938 -0.6062
14488SOL    HW250515   5.420   6.232  12.374 -1.7234 -0.7183  0.2189
14489SOL     OW50516  12.485   8.379  10.698 -0.0004  0.4729 -0.2221
14489SOL    HW150517  12.519   8.447  10.756 -0.8548  0.2557  0.5603
14489SOL    HW250518  12.394   8.404  10.682 -0.3112 -0.4650  0.0420
14490SOL     OW50519   9.226   3.822   6.824 -0.3693  0.0008 -0.1911
14490SOL    HW150520   9.299   3.785   6.775 -1.0893 -0.1521 -1.1702
14490SOL    HW250521   9.197   3.897   6.772  0.8777  1.8553  1.6166
14491SOL     OW50522   7.943   4.207  10.532 -0.5528 -0.3971  0.4065
14491SOL    HW150523   7.854   4.172  10.527 -0.7241 -0.0879  1.2439
14491SOL    HW250524   7.959   4.218  10.625  0.6683 -1.2124  0.3180
14492SOL     OW50525  10.082  11.020   2.447  0.2624  0.2826  0.2742
14492SOL    HW150526  10.044  11.089   2.393  0.1351  1.5791  1.9249
14492SOL    HW250527  10.040  10.940   2.416  0.6812  0.8470 -1.9421
14493SOL     OW50528   0.298   8.962   6.230  0.3830 -0.2602  0.3054
14493SOL    HW150529   0.225   8.910   6.264  0.2619 -0.6085 -0.4520
14493SOL    HW250530   0.300   8.941   6.137  1.4757 -0.2851  0.3221
14494SOL     OW50531   1.927   8.445   1.631  0.3336  0.6539  0.0487
14494SOL    HW150532   1.865   8.440   1.704 -0.5056  0.2801 -0.6694
14494SOL    HW250533   1.928   8.357   1.594  2.1565  0.3545  0.7192
14495SOL     OW50534   1.309  11.173   5.278  0.0978  0.1882 -0.2224
14495SOL    HW150535   1.274  11.221   5.353 -0.8254 -0.3200 -0.3148
14495SOL    HW250536   1.316  11.239   5.209  0.7118  0.6028  0.2189
14496SOL     OW50537  11.351   6.032  11.403 -1.0301 -0.2933  0.0538
14496SOL    HW150538  11.293   6.009  11.476  0.7754  0.2609  1.7588
14496SOL    HW250539  11.419   6.086  11.443  0.9403 -1.3020 -1.7272
14497SOL     OW50540   9.435  10.585   1.667 -0.1560 -0.0377  0.1520
14497SOL    HW150541   9.377  10.552   1.736 -1.5148  0.4391 -0.7348
14497SOL    HW250542   9.513  10.615   1.714 -1.0811  0.3429  1.4910
14498SOL     OW50543   3.242   8.480  11.695 -0.6827  0.6912  0.1724
14498SOL    HW150544   3.224   8.538  11.769 -0.0904  1.5514 -0.3467
14498SOL    HW250545   3.213   8.529  11.619  1.7096  1.2144 -0.4869
14499SOL     OW50546   1.684   2.848   3.101 -0.0095  0.2252 -0.2716
14499SOL    HW150547   1.623   2.915   3.131 -0.7729 -0.7433  0.4141
14499SOL    HW250548   1.629   2.771   3.085  1.1585 -1.0496  1.5148
14500SOL     OW50549   1.406   2.270   7.991  0.0027  0.5610  0.0702
14500SOL    HW150550   1.391   2.363   8.009 -0.1337  0.5423  0.0604
14500SOL    HW250551   1.414   2.230   8.078  0.6470  0.6718  0.0637
14501SOL     OW50552  10.068  11.293   0.666 -0.2604  0.5928 -0.1383
14501SOL    HW150553  10.155  11.261   0.692 -0.6431  1.9799  3.3670
14501SOL    HW250554  10.086  11.354   0.594  1.2678 -1.3029 -1.4842
14502SOL     OW50555  11.984  10.132  11.204  0.2967  0.7395 -0.2273
14502SOL    HW150556  12.027  10.065  11.151  0.5271 -1.5393  2.6031
14502SOL    HW250557  11.891  10.125  11.182  0.4096  0.0208 -0.4865
14503SOL     OW50558   6.282   2.244   4.737 -0.1618  0.3238 -0.0267
14503SOL    HW150559   6.216   2.284   4.681 -1.6530  1.7488  2.5474
14503SOL    HW250560   6.357   2.303   4.731 -0.7826  1.1841  0.4166
14504SOL     OW50561   9.625   6.413   6.835 -0.0455  0.3910 -0.3759
14504SOL    HW150562   9.559   6.344   6.829  1.2138 -1.0006  0.8256
14504SOL    HW250563   9.604   6.473   6.763 -1.4290 -1.0225 -1.2196
14505SOL     OW50564   6.265   7.096   6.240  0.5175  0.6327  0.0695
14505SOL    HW150565   6.203   7.069   6.173 -0.1028  0.9994  0.4863
14505SOL    HW250566   6.212   7.142   6.305  1.3052  1.4260  0.1664
14506SOL     OW50567  11.152   7.780   4.796  0.0365 -0.2333 -0.4371
14506SOL    HW150568  11.121   7.802   4.708 -1.3571 -0.5301 -0.0387
14506SOL    HW250569  11.091   7.714   4.827 -1.0551  1.6568  1.7235
14507SOL     OW50570  10.354   4.823   3.306 -0.1602 -0.3847  0.3450
14507SOL    HW150571  10.332   4.770   3.229 -0.8426  2.0954 -1.2622
14507SOL    HW250572  10.272   4.867   3.328  0.4966  0.3645  1.3444
14508SOL     OW50573   8.089   6.624   9.820  0.2713 -0.1192  0.6690
14508SOL    HW150574   8.055   6.559   9.759 -0.7613 -0.0650  1.1773
14508SOL    HW250575   8.012   6.669   9.855  0.8647  0.1934  1.6418
14509SOL     OW50576   6.617  10.052   7.539  0.1923 -0.4712  0.0886
14509SOL    HW150577   6.685  10.117   7.558 -0.7991  0.5132  0.3527
14509SOL    HW250578   6.626  10.033   7.446 -0.5132  1.2583 -0.3634
14510SOL     OW50579   3.793   0.661  10.568 -0.0095 -0.5614 -0.7185
14510SOL    HW150580   3.724   0.714  10.607  0.3305  0.3350 -1.3178
14510SOL    HW250581   3.799   0.692  10.477 -0.9490 -2.7613 -1.6124
14511SOL     OW50582   5.801   3.134   1.437  0.4586 -0.1721 -0.5910
14511SOL    HW150583   5.795   3.040   1.420  0.2379 -0.1907 -0.4245
14511SOL    HW250584   5.718   3.169   1.405  0.7870  0.0544 -1.1920
14512SOL     OW50585   4.002   5.694   4.904 -0.5814  0.3351 -0.5127
14512SOL    HW150586   4.067   5.624   4.918 -1.2115 -0.0192  0.7499
14512SOL    HW250587   3.943   5.657   4.839 -0.2998  0.1135 -0.6503
14513SOL     OW50588   7.811   6.109   8.874 -0.0129 -0.0510  0.2888
14513SOL    HW150589   7.724   6.131   8.842  0.0625 -0.1849 -0.0114
14513SOL    HW250590   7.869   6.124   8.800  0.6134  2.5450  1.2188
14514SOL     OW50591   4.162   1.759   4.612  0.6886  0.0011  0.0147
14514SOL    HW150592   4.167   1.702   4.535  0.7937 -0.7644  0.5765
14514SOL    HW250593   4.159   1.847   4.576 -1.5733 -0.4051 -0.9678
14515SOL     OW50594   6.636   1.878   7.617 -0.4889  0.2977  0.3346
14515SOL    HW150595   6.719   1.830   7.625  0.5511  2.0695  0.7628
14515SOL    HW250596   6.579   1.819   7.568  0.5156 -1.5870  1.3048
14516SOL     OW50597  11.809   0.041   1.368 -0.1513 -0.2652 -0.7892
14516SOL    HW150598  11.770  -0.011   1.439  2.0807 -0.3290  0.4892
14516SOL    HW250599  11.797   0.132   1.396  0.0472 -0.2632 -0.7089
14517SOL     OW50600   4.976   7.821  12.301  0.2140 -0.3080 -0.5887
14517SOL    HW150601   4.954   7.914  12.311  0.6491 -0.3647  1.2139
14517SOL    HW250602   4.907   7.775  12.347  0.0009 -0.9085 -1.4771
14518SOL     OW50603   9.153   7.110   4.420  0.3526  0.0799  0.2019
14518SOL    HW150604   9.079   7.078   4.367  0.6916 -0.5091  0.0769
14518SOL    HW250605   9.121   7.105   4.510  0.1047  0.1970  0.1231
14519SOL     OW50606   0.835  11.731   2.935  0.0254 -0.1717  0.1100
14519SOL    HW150607   0.917  11.763   2.896  0.1538  0.8176  1.1403
14519SOL    HW250608   0.856  11.718   3.027 -1.6563  2.8152  1.0483
14520SOL     OW50609   7.167   9.464   9.223  0.0521  0.1409  0.2132
14520SOL    HW150610   7.076   9.440   9.207 -0.4697  0.2282  2.6108
14520SOL    HW250611   7.170   9.559   9.209  0.5540 -0.2129 -2.7566
14521SOL     OW50612  11.904   5.817   5.884 -0.2444 -0.1299  0.1973
14521SOL    HW150613  11.850   5.870   5.942  0.6285  0.3196  0.6226
14521SOL    HW250614  11.851   5.806   5.805 -0.1010  2.1769 -0.2890
14522SOL     OW50615   4.930   9.640  11.373  0.0792  0.2548 -0.0822
14522SOL    HW150616   5.002   9.594  11.331 -0.8138 -0.2485 -1.0979
14522SOL    HW250617   4.851   9.598  11.340 -0.8326  2.9760 -1.6940
14523SOL     OW50618   8.323   9.783   8.933  0.5252 -0.1615  0.8849
14523SOL    HW150619   8.365   9.796   8.848  1.5616  1.3526  1.6032
14523SOL    HW250620   8.361   9.849   8.990 -2.0488  0.6049  1.8755
14524SOL     OW50621  10.530   1.537   9.484 -0.4633  0.4096  0.0669
14524SOL    HW150622  10.625   1.544   9.492 -0.5582 -0.0189  2.0286
14524SOL    HW250623  10.506   1.606   9.422  1.1835 -0.0565 -1.1769
14525SOL     OW50624  11.023   4.150   1.373 -0.3488  0.2989 -0.4106
14525SOL    HW150625  11.005   4.130   1.465 -0.7542  0.6943 -0.3972
14525SOL    HW250626  11.040   4.065   1.333 -1.5368 -0.0452 -0.2495
14526SOL     OW50627   4.960   7.550   1.868 -0.1560  0.3774  0.0374
14526SOL    HW150628   4.892   7.600   1.824 -0.1473 -0.4004 -0.8950
14526SOL    HW250629   4.914   7.500   1.935 -1.1627 -2.7064 -2.6834
14527SOL     OW50630  12.136   7.618   4.148 -0.3939  0.6012 -0.1313
14527SOL    HW150631  12.170   7.543   4.197 -0.8076  1.5370  1.6550
14527SOL    HW250632  12.160   7.694   4.201 -0.1632  1.7411 -1.7972
14528SOL     OW50633   3.540   0.018   3.983  0.4462  0.0185 -0.1971
14528SOL    HW150634   3.593   0.035   3.905  0.5103  0.2351 -0.1090
14528SOL    HW250635   3.518  -0.074   3.978  2.3104 -0.5339  0.6786
14529SOL     OW50636  11.234  11.873   4.916  0.2139  0.7022  0.6081
14529SOL    HW150637  11.230  11.786   4.956  2.6733 -0.1077 -0.6721
14529SOL    HW250638  11.147  11.886   4.878 -0.7245 -0.4341  2.2718
14530SOL     OW50639   3.076   7.817  10.044  0.9621 -0.0756 -0.0593
14530SOL    HW150640   3.001   7.791  10.099  0.7779  1.7761  0.6277
14530SOL    HW250641   3.133   7.866  10.103  2.2680 -0.6400 -0.8200
14531SOL     OW50642   0.048   5.414   8.922  0.0358  0.1158  0.2437
14531SOL    HW150643   0.078   5.457   9.002  0.6425 -0.1212  0.1496
14531SOL    HW250644   0.097   5.332   8.918  1.2826  0.8840 -1.2294
14532SOL     OW50645   0.049   4.091   3.578 -0.2194  0.4689  0.5654
14532SOL    HW150646   0.096   4.084   3.495  0.8631 -0.9104  1.2387
14532SOL    HW250647   0.099   4.155   3.629 -1.3892  1.9813 -0.1305
14533SOL     OW50648   7.696   8.411   9.704 -0.4995 -0.4987  0.1114
14533SOL    HW150649   7.787   8.410   9.677 -0.7937 -0.4227 -0.9377
14533SOL    HW250650   7.697   8.450   9.791  0.4034  0.1026 -0.1509
14534SOL     OW50651   6.396  12.274   8.233 -0.2101 -0.0385 -0.2293
14534SOL    HW150652   6.393  12.328   8.312 -0.3193 -0.4811  0.0775
14534SOL    HW250653   6.438  12.329   8.167 -0.1643  0.3549  0.1238
14535SOL     OW50654   1.410   3.602   6.665 -0.5925  0.2072 -0.0579
14535SOL    HW150655   1.323   3.565   6.679 -0.5924 -0.0094 -0.6135
14535SOL    HW250656   1.440   3.564   6.582 -0.1488  0.6161 -0.0918
14536SOL     OW50657   5.316   8.211   1.955  0.4558  0.0028  0.5383
14536SOL    HW150658   5.274   8.275   1.899  0.9680  0.1792  0.3470
14536SOL    HW250659   5.366   8.263   2.018 -1.0760 -0.1596  1.9554
14537SOL     OW50660  10.258   0.244   9.737 -0.4417  0.4961 -0.3972
14537SOL    HW150661  10.333   0.185   9.737 -1.9017 -1.4779  0.7149
14537SOL    HW250662  10.271   0.300   9.660  1.4909 -0.6242 -0.9428
14538SOL     OW50663   8.975  11.818   6.675 -0.6833  0.4372 -0.5491
14538SOL    HW150664   8.927  11.815   6.757  1.1068  1.8897  0.6276
14538SOL    HW250665   9.006  11.728   6.662 -1.6212  0.0338 -0.0543
14539SOL     OW50666   7.039   0.147   7.337  0.1412  0.3404  0.3973
14539SOL    HW150667   7.054   0.169   7.245  1.1465 -0.3751  0.3695
14539SOL    HW250668   7.127   0.131   7.372 -0.3107 -0.5044  1.1992
14540SOL     OW50669   0.969   5.020   9.033 -0.0703 -0.0074 -0.0181
14540SOL    HW150670   1.057   5.003   9.000  0.2466  3.6570 -1.5280
14540SOL    HW250671   0.973   4.998   9.126  2.6992  0.7897  0.1326
14541SOL     OW50672  10.426   8.818   5.266  0.2391 -0.2696  0.0114
14541SOL    HW150673  10.463   8.742   5.310  0.1003  0.0791  0.7522
14541SOL    HW250674  10.492   8.844   5.202  0.3556 -0.9132 -0.1376
14542SOL     OW50675   6.606   0.544   7.753 -0.4343 -0.0021  0.7475
14542SOL    HW150676   6.522   0.543   7.706 -0.1861  0.0522  0.2991
14542SOL    HW250677   6.584   0.576   7.841 -0.9681 -0.4994  0.8042
14543SOL     OW50678   2.580   7.663  12.533  0.7665  0.2465  0.3598
14543SOL    HW150679   2.654   7.719  12.555  1.7343 -1.3998  1.4633
14543SOL    HW250680   2.546   7.700  12.451  2.2267  1.5780  0.3039
14544SOL     OW50681   6.900   8.839   6.789  0.0546  0.5050 -0.7325
14544SOL    HW150682   6.820   8.809   6.830 -0.5704 -1.4971 -3.1726
14544SOL    HW250683   6.963   8.769   6.805  1.5667  2.2261  1.5125
14545SOL     OW50684   9.460   3.757  10.909  0.1528  0.0811  0.6248
14545SOL    HW150685   9.452   3.840  10.957  0.3972 -0.1773  1.1175
14545SOL    HW250686   9.462   3.690  10.978  1.7782 -0.2052  0.3332
14546SOL     OW50687   7.433   0.091   0.307  0.6620  0.1609  0.6926
14546SOL    HW150688   7.433   0.027   0.378  0.4557 -1.1054 -0.4121
14546SOL    HW250689   7.509   0.067   0.254 -0.2164 -0.0386 -0.4940
14547SOL     OW50690  12.094  10.245   6.015  0.9427  0.2518 -0.0542
14547SOL    HW150691  12.045  10.181   6.067 -0.1601  0.9908 -0.1545
14547SOL    HW250692  12.186  10.228   6.035  0.5681  0.0627  1.5783
14548SOL     OW50693   8.925   3.295   5.006 -0.1070 -0.0022  0.9192
14548SOL    HW150694   8.896   3.248   5.084 -0.7067  1.6486  1.7380
14548SOL    HW250695   8.846   3.341   4.975  0.5223  0.7595  0.3873
14549SOL     OW50696   2.630   5.417   3.358 -0.4541  0.5716  0.5458
14549SOL    HW150697   2.696   5.486   3.362 -0.4454  1.0376 -3.6339
14549SOL    HW250698   2.681   5.335   3.362  0.0780  0.8781  0.0701
14550SOL     OW50699   7.062   0.226   7.793 -0.4826 -0.1840  0.2890
14550SOL    HW150700   7.023   0.211   7.707  0.3496 -0.3248 -0.0712
14550SOL    HW250701   7.021   0.161   7.849  1.5406 -2.5474 -0.7848
14551SOL     OW50702   8.658   7.858   5.016  0.6633 -0.7438 -0.7689
14551SOL    HW150703   8.654   7.873   5.110  0.2827  2.9155 -1.2279
14551SOL    HW250704   8.572   7.885   4.984  1.7316  0.9191 -2.4212
14552SOL     OW50705   4.053   5.754   8.406  0.4100 -0.2720  0.6577
14552SOL    HW150706   4.085   5.840   8.433  0.5790 -0.3112  0.5850
14552SOL    HW250707   4.080   5.695   8.476 -0.5545 -0.1085  1.1856
14553SOL     OW50708   7.772   9.713   0.522  0.1159  0.7682 -0.0430
14553SOL    HW150709   7.814   9.733   0.438 -0.7013 -0.3846 -0.7407
14553SOL    HW250710   7.736   9.797   0.551  1.1688  1.3626 -0.3859
14554SOL     OW50711   0.796  10.989   3.467 -0.2094  0.4193 -0.4759
14554SOL    HW150712   0.800  10.998   3.371 -0.5034  0.4780 -0.4841
14554SOL    HW250713   0.884  11.012   3.497 -0.3829  1.3657 -0.6583
14555SOL     OW50714   2.657   5.887   8.094  0.0036 -0.0139  0.4905
14555SOL    HW150715   2.604   5.958   8.056  1.0852 -0.4876 -2.1181
14555SOL    HW250716   2.747   5.916   8.084  0.3976 -0.9483  1.1936
14556SOL     OW50717   9.730  11.449  11.978  0.2648  0.5451 -0.3293
14556SOL    HW150718   9.799  11.392  11.945  0.3774  1.6244 -2.1022
14556SOL    HW250719   9.761  11.479  12.064  0.7794 -1.0079  0.0473
14557SOL     OW50720  12.034   5.596  11.328 -0.2476 -0.0554 -0.0335
14557SOL    HW150721  12.120   5.620  11.294  0.3186  0.6037  1.7360
14557SOL    HW250722  11.972   5.634  11.266  0.7174 -0.4815 -1.2940
14558SOL     OW50723   8.884  10.378   3.946 -0.1188 -0.0585  0.1009
14558SOL    HW150724   8.942  10.316   3.990  1.0044  0.4255 -0.6638
14558SOL    HW250725   8.888  10.353   3.854 -1.3670 -0.1904  0.0699
14559SOL     OW50726   1.956   8.829   3.290  0.1019  0.0065  0.0753
14559SOL    HW150727   1.989   8.743   3.318 -2.0861 -0.8542  0.2267
14559SOL    HW250728   1.991   8.890   3.355  2.5763 -0.5631 -0.6398
14560SOL     OW50729   5.233   3.157   0.608  0.0051  0.4011  0.1234
14560SOL    HW150730   5.289   3.223   0.569 -0.3591  1.1556  0.8420
14560SOL    HW250731   5.147   3.171   0.567  0.5824 -1.6256 -1.9930
14561SOL     OW50732   1.292  10.996   6.623  0.3294 -0.4114  0.5642
14561SOL    HW150733   1.222  11.059   6.643  0.2870 -0.9456  2.2534
14561SOL    HW250734   1.246  10.918   6.592  0.3721  0.2644 -1.3324
14562SOL     OW50735  11.059   3.973   4.752  0.0625 -0.3478  0.6438
14562SOL    HW150736  11.110   3.922   4.689 -0.3679  0.0237 -0.0116
14562SOL    HW250737  10.973   3.982   4.712  0.1827  1.0471  0.6563
14563SOL     OW50738   1.105   5.590   9.103  0.0465 -0.2347  0.3148
14563SOL    HW150739   1.043   5.522   9.079 -0.9981  0.5452  0.7205
14563SOL    HW250740   1.068   5.630   9.182  0.7847  0.5985  0.2574
14564SOL     OW50741   1.806   0.451   9.243 -0.0145  0.1053 -0.0246
14564SOL    HW150742   1.758   0.461   9.161 -0.7848  1.3908  0.5468
14564SOL    HW250743   1.762   0.511   9.304  1.3589  0.1485  0.9687
14565SOL     OW50744   4.714   2.080   8.798  0.0676 -0.1541  0.0173
14565SOL    HW150745   4.733   2.170   8.772 -0.7636  0.4887  1.5134
14565SOL    HW250746   4.711   2.031   8.716  0.7674  1.1193 -0.8050
14566SOL     OW50747   2.328   1.275   5.833  0.2349  1.1122  0.0799
14566SOL    HW150748   2.303   1.251   5.922 -1.5569  0.9825 -0.4039
14566SOL    HW250749   2.423   1.281   5.835  0.2385  0.9768  1.9567
14567SOL     OW50750   4.080   7.066   1.750 -0.7212 -0.2452 -0.2858
14567SOL    HW150751   4.022   6.990   1.739  0.7271 -1.4675  0.1602
14567SOL    HW250752   4.159   7.043   1.702  0.0522  0.6370  0.5383
14568SOL     OW50753   5.597   2.285  10.794  0.3391 -0.1139  0.3054
14568SOL    HW150754   5.578   2.354  10.857  0.9026 -0.1041  0.4684
14568SOL    HW250755   5.520   2.228  10.797  1.3107 -1.4398  2.7740
14569SOL     OW50756   1.066   0.653   6.242 -0.2338  0.0139 -0.4769
14569SOL    HW150757   0.984   0.604   6.251  0.1506 -0.2378  3.7951
14569SOL    HW250758   1.134   0.590   6.267  0.9111  1.1444 -0.6356
14570SOL     OW50759   8.015   1.705  11.282  0.1697 -0.0025 -0.1117
14570SOL    HW150760   7.994   1.753  11.202 -0.8396 -0.9953 -0.4659
14570SOL    HW250761   8.055   1.771  11.339 -3.9456  2.1989  0.6532
14571SOL     OW50762   8.345   9.679  11.747  0.4678  0.3651 -0.0084
14571SOL    HW150763   8.398   9.686  11.667  0.7337 -0.4683  0.0861
14571SOL    HW250764   8.400   9.716  11.816  0.4902  0.5011 -0.0989
14572SOL     OW50765   8.941   2.614  10.623 -0.5395  0.5365  0.2433
14572SOL    HW150766   8.947   2.613  10.527 -0.3360 -0.7090  0.2581
14572SOL    HW250767   8.858   2.659  10.641 -0.5195  0.8992 -0.5044
14573SOL     OW50768   8.445  10.732   2.168 -0.2663  0.0269  0.0089
14573SOL    HW150769   8.494  10.734   2.086 -1.1836 -1.0573 -0.5985
14573SOL    HW250770   8.439  10.639   2.190  2.2304  0.3692  2.7580
14574SOL     OW50771   7.855   9.789   0.818 -0.1230  0.1090 -0.4231
14574SOL    HW150772   7.901   9.735   0.754  0.1007  1.0049 -1.0457
14574SOL    HW250773   7.776   9.739   0.839 -0.3595 -0.0723 -1.6543
14575SOL     OW50774   6.684   8.199   7.404  0.1215 -0.1785  0.1838
14575SOL    HW150775   6.747   8.155   7.462  0.9847 -0.2122 -0.7640
14575SOL    HW250776   6.735   8.265   7.358 -0.6932  0.2806 -0.0817
14576SOL     OW50777   5.008   2.162   6.669  0.7440 -0.0689 -0.6434
14576SOL    HW150778   5.071   2.096   6.700 -0.2787 -1.5252 -1.5311
14576SOL    HW250779   5.062   2.234   6.638  1.8780  0.1915  1.7281
14577SOL     OW50780   8.312   2.942   2.409 -0.5711 -0.5873  0.5196
14577SOL    HW150781   8.255   2.873   2.442 -0.6432 -0.5293  0.5161
14577SOL    HW250782   8.324   3.002   2.483  1.7626 -2.0327  1.4368
14578SOL     OW50783  11.141   6.846   5.226  0.6383  0.1022  0.0671
14578SOL    HW150784  11.188   6.907   5.169  0.4555 -0.5285 -0.7786
14578SOL    HW250785  11.076   6.900   5.271 -1.1904  0.1892 -2.4725
14579SOL     OW50786   0.497  10.775   4.748 -0.1470 -0.5573 -0.4363
14579SOL    HW150787   0.491  10.859   4.702 -0.2187 -1.2611 -1.7843
14579SOL    HW250788   0.415  10.731   4.728  0.4491 -1.4892 -0.9073
14580SOL     OW50789   6.642   2.305   1.670 -0.1565  0.1595  0.2375
14580SOL    HW150790   6.626   2.376   1.608  0.2929  0.7466  0.7712
14580SOL    HW250791   6.735   2.312   1.691 -0.3243  0.0478  1.0534
14581SOL     OW50792   6.502   8.976   0.906  0.3451 -0.1252  0.3644
14581SOL    HW150793   6.542   8.925   0.835 -1.2348  1.6971 -1.9574
14581SOL    HW250794   6.564   9.046   0.922 -0.4372  0.9687 -1.1373
14582SOL     OW50795   0.957  11.913  12.588 -0.4757  0.2085  0.0453
14582SOL    HW150796   0.942  11.820  12.572  0.4239 -0.0987  0.9334
14582SOL    HW250797   1.020  11.916  12.659  0.8627  1.4880 -1.1270
14583SOL     OW50798   3.150  10.869   9.785 -0.0161 -0.3391 -0.0218
14583SOL    HW150799   3.193  10.787   9.764  0.4759 -0.1997  0.4051
14583SOL    HW250800   3.150  10.872   9.881 -0.2135  0.0615 -0.0316
14584SOL     OW50801   9.474   3.736   6.758  0.2402  0.1959 -0.5704
14584SOL    HW150802   9.495   3.742   6.665  1.0776 -3.6434 -0.7780
14584SOL    HW250803   9.550   3.693   6.797  0.8107  3.4246  2.4121
14585SOL     OW50804   6.043   6.250   2.659 -0.3952  0.3474  0.0127
14585SOL    HW150805   5.964   6.273   2.611 -0.0579 -0.0019 -0.7274
14585SOL    HW250806   6.073   6.333   2.698  0.5785  1.1492 -2.2634
14586SOL     OW50807   9.746   9.354   2.917 -0.8815 -0.1427  0.7420
14586SOL    HW150808   9.749   9.437   2.870  0.8247 -0.0691  0.9420
14586SOL    HW250809   9.654   9.326   2.909 -1.6709  2.0780  1.2859
14587SOL     OW50810   5.276   0.997   3.558 -0.2313  0.5849  0.0059
14587SOL    HW150811   5.240   1.085   3.568  0.8340  0.8601  1.8702
14587SOL    HW250812   5.273   0.980   3.463 -2.0079  1.9186 -0.2311
14588SOL     OW50813   5.728  11.228   4.648 -0.1079  0.1537 -0.4776
14588SOL    HW150814   5.685  11.296   4.596  0.1956  1.3649  0.7930
14588SOL    HW250815   5.810  11.211   4.603 -0.7817 -0.3526 -1.5417
14589SOL     OW50816   1.510   1.402   1.549 -0.4295  0.3710 -0.0104
14589SOL    HW150817   1.440   1.342   1.572 -1.0230  1.3339  0.7527
14589SOL    HW250818   1.467   1.487   1.539  0.8171  1.4000  2.3851
14590SOL     OW50819  11.223   6.586  12.554  0.3616 -0.2722  0.7034
14590SOL    HW150820  11.272   6.524  12.608  1.1156  2.0098  2.8632
14590SOL    HW250821  11.135   6.550  12.550  1.1117 -2.2092  0.5612
14591SOL     OW50822   0.278   3.652  10.595 -0.5951 -0.1325  0.2573
14591SOL    HW150823   0.359   3.602  10.611 -1.3913 -1.4885  0.1677
14591SOL    HW250824   0.233   3.651  10.680 -0.5686  0.5421  0.2819
14592SOL     OW50825   4.512   9.086   3.378  0.0723  0.1883  0.9830
14592SOL    HW150826   4.557   9.162   3.415 -0.4566  1.2161 -0.3990
14592SOL    HW250827   4.580   9.041   3.327 -0.2380  1.3586 -0.5398
14593SOL     OW50828   9.339   2.398   6.965 -0.4620  0.4905  0.5159
14593SOL    HW150829   9.271   2.345   6.923  1.5766 -0.4518 -1.8629
14593SOL    HW250830   9.302   2.486   6.967 -2.6532 -0.3628  1.5616
14594SOL     OW50831   0.615   0.604   9.443  0.2579  0.2483  0.8285
14594SOL    HW150832   0.614   0.593   9.348 -1.4185 -0.8921  0.9385
14594SOL    HW250833   0.599   0.516   9.477 -4.4997  1.3096  2.0233
14595SOL     OW50834   1.614   0.189   2.891 -0.5906  0.1870  0.5162
14595SOL    HW150835   1.686   0.239   2.929 -0.5082  0.1382  0.4247
14595SOL    HW250836   1.657   0.120   2.840 -0.7014  0.1558  0.4645
14596SOL     OW50837  10.596   1.013  11.952  0.1906 -0.7920 -0.5461
14596SOL    HW150838  10.522   0.959  11.925  0.8781 -2.8431  1.3501
14596SOL    HW250839  10.602   1.000  12.047  2.3118  0.1339 -0.4860
14597SOL     OW50840   0.155   6.108   9.445  0.0368 -0.1234  0.3152
14597SOL    HW150841   0.077   6.076   9.491  0.3125 -0.1039  0.8066
14597SOL    HW250842   0.123   6.132   9.358 -0.2072 -1.6139 -0.0321
14598SOL     OW50843   4.824   7.560   3.907 -0.0254  0.1000 -0.4621
14598SOL    HW150844   4.755   7.625   3.893  0.3631  0.7131  0.3963
14598SOL    HW250845   4.833   7.517   3.822 -0.0045  1.4714 -1.1972
14599SOL     OW50846   2.439   3.724   8.697  0.2751 -0.0464  0.2833
14599SOL    HW150847   2.383   3.722   8.775  1.8830  0.7306  1.5380
14599SOL    HW250848   2.508   3.661   8.716  0.5098 -0.0849 -0.6675
14600SOL     OW50849  10.590   7.447  10.207 -0.1500  0.0835 -0.0612
14600SOL    HW150850  10.654   7.394  10.159 -1.9091 -0.8076 -1.5717
14600SOL    HW250851  10.590   7.409  10.295 -0.8177 -2.0273 -0.8979
14601SOL     OW50852  11.548   8.599   6.760  0.5056  0.5402 -0.8107
14601SOL    HW150853  11.633   8.635   6.786  1.0905 -1.5108  0.3542
14601SOL    HW250854  11.526   8.645   6.679  0.8504  3.8810  0.8489
14602SOL     OW50855  10.656   4.443   0.235  0.0454  0.5709  0.2034
14602SOL    HW150856  10.598   4.406   0.301  0.1936  0.7984  0.4667
14602SOL    HW250857  10.598   4.485   0.172 -0.2780 -1.7312 -1.1803
14603SOL     OW50858  12.253   0.082  11.384  0.3284 -0.2832 -0.3120
14603SOL    HW150859  12.180   0.086  11.322 -0.2634  1.0118  0.4281
14603SOL    HW250860  12.331   0.080  11.329 -0.1887  0.7547 -1.1167
14604SOL     OW50861   9.946  11.795  11.920 -0.0953 -0.0081  0.2126
14604SOL    HW150862   9.867  11.749  11.892  0.8633 -0.9862 -1.0128
14604SOL    HW250863   9.998  11.804  11.840  0.6815  1.3512  0.8376
14605SOL     OW50864   1.821   4.996   2.155  0.1456  0.0854  0.2657
14605SOL    HW150865   1.823   5.012   2.250 -0.3635 -0.0525  0.3023
14605SOL    HW250866   1.806   4.902   2.147 -1.9966  0.4053  0.0612
14606SOL     OW50867   8.455   1.552   5.374  0.5966 -0.7620  0.1595
14606SOL    HW150868   8.473   1.466   5.338  0.8731 -0.4784 -0.3959
14606SOL    HW250869   8.536   1.576   5.419  0.8489 -0.4045 -0.4776
14607SOL     OW50870  11.784   4.090   8.630 -0.5526 -0.2790 -0.5126
14607SOL    HW150871  11.872   4.119   8.606 -0.3995 -0.0189  0.3393
14607SOL    HW250872  11.792   4.061   8.721 -0.5663 -3.5238 -1.4091
14608SOL     OW50873  11.519   5.555   7.101 -0.4158 -0.1425  0.6393
14608SOL    HW150874  11.541   5.475   7.150 -0.0975 -0.1640  0.4614
14608SOL    HW250875  11.424   5.550   7.088 -0.5151 -0.0962  1.3278
14609SOL     OW50876  11.837   2.359   0.076 -0.0413  0.0113  0.4029
14609SOL    HW150877  11.888   2.333  -0.001  1.3593 -2.0299  1.9306
14609SOL    HW250878  11.753   2.314   0.065 -0.0238  0.0957 -0.1317
14610SOL     OW50879  12.466   2.591   3.249 -0.2659 -0.2770 -0.1046
14610SOL    HW150880  12.394   2.528   3.253 -0.6696  0.1288 -0.8710
14610SOL    HW250881  12.428   2.674   3.276 -0.2564  0.0782 -1.1317
14611SOL     OW50882  10.835   6.856   1.683 -0.1627  0.2500 -0.3144
14611SOL    HW150883  10.831   6.763   1.659 -1.5979 -0.0693  0.9126
14611SOL    HW250884  10.915   6.889   1.643  1.3263 -1.9526  0.6475
14612SOL     OW50885   0.051  11.560   5.639 -0.8059  0.4945  0.0452
14612SOL    HW150886  -0.004  11.485   5.662  0.6872 -0.3529  1.0052
14612SOL    HW250887   0.116  11.524   5.578  1.0799  0.5045  1.9388
14613SOL     OW50888   9.364   1.451  12.558 -0.8987  0.2134 -0.0977
14613SOL    HW150889   9.358   1.365  12.517 -0.1896  0.9310 -1.7603
14613SOL    HW250890   9.277   1.489  12.545 -0.7135  0.3902 -0.8368
14614SOL     OW50891   7.380   8.163   6.480 -0.5431 -0.1092  0.2126
14614SOL    HW150892   7.340   8.095   6.535 -0.8660  0.3607  0.5658
14614SOL    HW250893   7.368   8.243   6.530  0.4392  0.1053  0.1066
14615SOL     OW50894   2.212   5.798   9.634  0.6577  0.2581  0.0973
14615SOL    HW150895   2.154   5.750   9.693 -1.6688  0.1098 -2.1244
14615SOL    HW250896   2.246   5.732   9.574 -0.6890  0.9483 -1.5170
14616SOL     OW50897   5.840  11.119   2.463 -0.1841 -0.8008 -0.6818
14616SOL    HW150898   5.867  11.201   2.504 -1.1964 -0.8999  0.2432
14616SOL    HW250899   5.797  11.145   2.382  0.6138 -0.5132 -1.0256
14617SOL     OW50900   5.108   1.700   9.767 -0.0876 -0.1486 -0.6882
14617SOL    HW150901   5.086   1.633   9.702  0.6205 -0.9240 -0.1434
14617SOL    HW250902   5.041   1.691   9.834 -0.1918 -0.0747 -0.7817
14618SOL     OW50903  10.120  12.080   2.927  0.0208 -0.1068  0.1118
14618SOL    HW150904  10.151  11.991   2.945 -1.3326 -0.5582  0.2911
14618SOL    HW250905  10.072  12.105   3.006 -1.3063 -0.0027 -0.6977
14619SOL     OW50906   3.763  10.317   9.145  0.7602  0.3829 -0.0911
14619SOL    HW150907   3.788  10.300   9.054  1.9644  0.2615  0.2463
14619SOL    HW250908   3.734  10.408   9.145 -0.0631  0.1321 -0.7527
14620SOL     OW50909   0.817   4.800   6.542  0.1326 -0.4533  0.8272
14620SOL    HW150910   0.836   4.857   6.468 -2.1429  0.2652  0.7237
14620SOL    HW250911   0.786   4.859   6.611 -1.5750 -1.4578  0.9674
14621SOL     OW50912   2.214   7.475  10.422 -0.0568 -0.0813  0.1269
14621SOL    HW150913   2.239   7.428  10.502 -1.1722  1.8277  1.6877
14621SOL    HW250914   2.128   7.441  10.400  0.0614 -0.2926 -0.0126
14622SOL     OW50915   8.615   2.004  11.571 -0.4451 -0.3887 -0.0704
14622SOL    HW150916   8.614   2.065  11.498 -0.4833  1.2231  1.2311
14622SOL    HW250917   8.682   2.037  11.631 -0.9313 -1.2340  0.9900
14623SOL     OW50918   1.594   5.029   9.123  0.5632  0.9433  0.4153
14623SOL    HW150919   1.578   4.950   9.072  0.8825  1.6171 -0.7747
14623SOL    HW250920   1.509   5.050   9.161  0.4035  0.2061  0.4787
14624SOL     OW50921   6.902  12.280   7.429 -0.2223  0.5902  0.4636
14624SOL    HW150922   6.893  12.375   7.436 -2.2194  0.7184 -2.1889
14624SOL    HW250923   6.839  12.245   7.492 -0.1767  1.0250  0.7522
14625SOL     OW50924  12.199   4.123   6.272  0.1169 -0.2064  0.1373
14625SOL    HW150925  12.233   4.171   6.348  0.9925 -0.7232  0.0805
14625SOL    HW250926  12.194   4.190   6.203 -1.7619  0.5352  0.9198
14626SOL     OW50927   8.081   8.072   5.128 -0.0616 -0.2853  0.6261
14626SOL    HW150928   8.137   8.000   5.098 -0.4691 -0.3695  0.0439
14626SOL    HW250929   8.118   8.150   5.085 -0.2220 -0.2981  0.4653
14627SOL     OW50930   8.356   9.933   6.383 -0.1050  0.1972  0.6169
14627SOL    HW150931   8.430   9.873   6.385  1.5525  2.1220  0.0197
14627SOL    HW250932   8.392  10.015   6.348 -1.8811  2.0444  2.7951
14628SOL     OW50933   5.721   1.087   6.234  0.7915  0.0259 -0.7361
14628SOL    HW150934   5.703   1.040   6.152  1.7693 -1.3717 -0.1837
14628SOL    HW250935   5.817   1.088   6.240  0.7388  0.6416  0.0990
14629SOL     OW50936   5.057   7.342   1.450 -0.0727  0.4600  0.2050
14629SOL    HW150937   5.142   7.363   1.410 -0.6941 -0.0844 -1.4762
14629SOL    HW250938   5.080   7.298   1.532  1.2513  1.2126  0.2786
14630SOL     OW50939   0.189   8.076   5.878  0.2340  0.3612  0.1007
14630SOL    HW150940   0.283   8.087   5.890  0.5427 -2.3308  0.8590
14630SOL    HW250941   0.150   8.156   5.914  2.2064  1.6896 -0.5805
14631SOL     OW50942   2.353   2.893   5.383  0.1052  0.2260 -0.2411
14631SOL    HW150943   2.371   2.825   5.317  0.1472  0.8606 -0.8893
14631SOL    HW250944   2.280   2.857   5.434  0.2815 -0.4124 -0.4217
14632SOL     OW50945  12.050   7.928   2.400 -0.1955 -0.0330 -0.3144
14632SOL    HW150946  12.089   7.954   2.484  0.8060 -2.2603 -0.0030
14632SOL    HW250947  11.959   7.906   2.421 -0.3876  0.8926 -0.1399
14633SOL     OW50948   9.094   5.210  11.876 -0.0316 -0.1421 -0.3039
14633SOL    HW150949   9.113   5.212  11.782  1.7202 -2.0675 -0.0704
14633SOL    HW250950   9.002   5.183  11.881  0.2836 -1.6069 -1.5009
14634SOL     OW50951   0.215   8.214   0.197 -0.1346  0.5450 -0.7575
14634SOL    HW150952   0.246   8.155   0.266  0.1425  0.2849 -1.0972
14634SOL    HW250953   0.243   8.301   0.225 -0.2708  0.4761 -0.4056
14635SOL     OW50954   9.041   9.284   5.395 -0.3107  0.1566 -0.3956
14635SOL    HW150955   9.123   9.292   5.443  0.5027 -0.3533 -1.6565
14635SOL    HW250956   9.048   9.348   5.325 -0.6199 -0.4883 -1.0229
14636SOL     OW50957   0.550  10.357   4.195 -0.5361  1.0074 -0.0901
14636SOL    HW150958   0.603  10.426   4.233 -0.8512  0.9618  0.4458
14636SOL    HW250959   0.609  10.310   4.136  0.9599 -0.9394  2.7156
14637SOL     OW50960   1.202   6.074   0.648 -0.6588  0.7001  0.3740
14637SOL    HW150961   1.286   6.028   0.656 -2.1923 -2.0355  2.4223
14637SOL    HW250962   1.209   6.147   0.709  0.0407  0.1363  0.9869
14638SOL     OW50963  10.870   2.705   3.885  0.0986  0.5515  0.4306
14638SOL    HW150964  10.889   2.797   3.867  1.1219  0.3510  0.4766
14638SOL    HW250965  10.891   2.660   3.803  0.9816  0.1712  0.8566
14639SOL     OW50966   5.690   9.685   3.890  0.3311  0.0400 -0.0325
14639SOL    HW150967   5.633   9.641   3.827  1.5506 -0.4787 -0.8103
14639SOL    HW250968   5.684   9.778   3.867  0.3239 -0.0854 -0.5440
14640SOL     OW50969   1.009   6.387   2.115  0.5208  0.3790  0.1515
14640SOL    HW150970   1.102   6.409   2.102  1.2322  0.1479  3.8551
14640SOL    HW250971   0.965   6.471   2.121  1.1450  0.6154  1.9110
14641SOL     OW50972  10.480   3.717   1.366  0.1606  0.5397 -0.7200
14641SOL    HW150973  10.394   3.683   1.390  0.6662 -1.0764 -1.0486
14641SOL    HW250974  10.490   3.797   1.418 -0.8126 -0.2060  0.6841
14642SOL     OW50975   0.691  10.782   7.322  0.3910 -0.0797 -0.5529
14642SOL    HW150976   0.644  10.858   7.358 -0.0084 -0.3256 -0.5505
14642SOL    HW250977   0.776  10.783   7.367  0.1743  0.0431 -0.1372
14643SOL     OW50978  11.807  10.279   4.682  0.4442  0.1750 -0.1309
14643SOL    HW150979  11.833  10.189   4.665  2.2101  0.4090  1.0209
14643SOL    HW250980  11.880  10.332   4.650 -0.6733  1.2327 -1.0279
14644SOL     OW50981   3.944   6.983   2.473 -0.2221 -0.7424  0.0344
14644SOL    HW150982   3.980   7.063   2.512 -0.3336 -1.1362  0.9571
14644SOL    HW250983   4.018   6.945   2.425  0.0198 -0.4473  0.1691
14645SOL     OW50984  11.965   3.093   1.303 -0.7352  0.0898  0.0747
14645SOL    HW150985  12.059   3.101   1.293 -0.7998  1.6422  0.4485
14645SOL    HW250986  11.939   3.026   1.238  0.6176 -0.5098  0.1223
14646SOL     OW50987   1.680   0.238   8.832  0.3299 -0.2855 -0.5303
14646SOL    HW150988   1.589   0.216   8.813  0.0669  0.1322  0.2122
14646SOL    HW250989   1.724   0.234   8.747 -0.9159  2.0798 -1.3565
14647SOL     OW50990   4.417  12.253  10.676  0.1849 -0.0702  0.7562
14647SOL    HW150991   4.394  12.220  10.763 -0.9832 -1.2740  0.0297
14647SOL    HW250992   4.337  12.244  10.626  0.9688  0.1774 -0.5725
14648SOL     OW50993   5.890   7.371   1.941 -0.0539 -0.0259 -0.1637
14648SOL    HW150994   5.825   7.315   1.898 -1.3849  1.5896 -0.3431
14648SOL    HW250995   5.842   7.452   1.962  1.1158  0.0988  2.3849
14649SOL     OW50996   3.184   3.538   7.609 -0.0751  0.0549 -0.1673
14649SOL    HW150997   3.137   3.492   7.539  1.1958 -0.2239 -0.8671
14649SOL    HW250998   3.222   3.468   7.661 -1.5734  0.2377  1.2511
14650SOL     OW50999   3.998   7.999   9.229 -0.4457 -0.8434 -0.0426
14650SOL    HW151000   3.915   8.043   9.246 -0.7926 -1.8451  0.9309
14650SOL    HW251001   4.014   8.014   9.136 -0.4834  1.4206  0.2568
14651SOL     OW51002   5.364   9.625   8.160  0.6659  0.5091 -0.1893
14651SOL    HW151003   5.458   9.608   8.154  0.5690  0.5096 -3.6842
14651SOL    HW251004   5.331   9.559   8.221  2.4436 -2.0681 -1.8541
14652SOL     OW51005   8.246   2.627   8.474  0.2295  0.7598  0.6109
14652SOL    HW151006   8.308   2.556   8.493 -0.3033 -0.1321 -0.7916
14652SOL    HW251007   8.300   2.696   8.436  0.5174  0.3644  0.2799
14653SOL     OW51008  12.133   7.607   9.375  0.2806  0.1031  0.4939
14653SOL    HW151009  12.228   7.616   9.384  0.2616  0.0794  0.7131
14653SOL    HW251010  12.097   7.686   9.416  0.2561  0.7837 -0.7741
14654SOL     OW51011   5.053   6.982  12.493  0.1002  0.1365 -0.1710
14654SOL    HW151012   5.094   7.061  12.457 -1.0119  0.5555 -0.5498
14654SOL    HW251013   5.013   6.939  12.418  0.1410 -0.4515  0.1386
14655SOL     OW51014   4.839   2.303   1.292  0.1536 -0.0364  0.3270
14655SOL    HW151015   4.782   2.293   1.368  0.6793 -0.5153  0.6677
14655SOL    HW251016   4.820   2.228   1.237  0.3537 -0.1259  0.3777
14656SOL     OW51017   0.742   0.681   2.183  0.2523 -0.4483 -0.1623
14656SOL    HW151018   0.788   0.644   2.107  2.5749 -1.2837  1.5326
14656SOL    HW251019   0.729   0.774   2.161  0.4388 -0.7767 -1.7472
14657SOL     OW51020  11.559   0.426   2.903  0.1493 -0.4393  0.1476
14657SOL    HW151021  11.572   0.415   2.997  0.4726  1.5203  0.3743
14657SOL    HW251022  11.575   0.339   2.866  0.6150 -1.1067  1.8304
14658SOL     OW51023   5.733   7.734   6.558 -0.4634  0.6479 -0.1247
14658SOL    HW151024   5.714   7.790   6.482  0.1124  1.3972  0.2626
14658SOL    HW251025   5.782   7.660   6.521 -0.7293  0.6922 -0.5723
14659SOL     OW51026   1.901   2.406  11.871  0.2616 -0.0409 -0.5795
14659SOL    HW151027   1.837   2.376  11.807 -3.0095  0.9414  1.9184
14659SOL    HW251028   1.884   2.353  11.949  3.7668 -0.8849 -0.2287
14660SOL     OW51029   1.948   1.015   5.488  0.3752  0.1756 -0.2968
14660SOL    HW151030   1.938   0.924   5.515 -1.1826  0.5520  0.4977
14660SOL    HW251031   1.994   1.057   5.561 -0.6418  0.4149  0.2339
14661SOL     OW51032   8.605   6.676   1.646  0.2954 -0.1008 -0.2160
14661SOL    HW151033   8.679   6.632   1.688  0.1368  0.6983  0.9257
14661SOL    HW251034   8.528   6.642   1.691  0.1433  1.0061  0.3868
14662SOL     OW51035   6.516   3.769   1.719  0.0770 -0.5036  0.0957
14662SOL    HW151036   6.444   3.798   1.774  1.0112 -0.3634  1.2861
14662SOL    HW251037   6.481   3.771   1.630 -1.1811  0.1634  0.5875
14663SOL     OW51038   3.589  12.007  11.308 -0.0627 -0.3506 -0.0376
14663SOL    HW151039   3.598  11.917  11.278 -1.4310 -0.2124 -0.9727
14663SOL    HW251040   3.497  12.028  11.292 -0.2924  0.5405  2.1149
14664SOL     OW51041  12.536   5.658   6.568  0.3638 -0.0397 -0.0265
14664SOL    HW151042  12.453   5.681   6.527 -0.3117 -1.9478  0.1715
14664SOL    HW251043  12.585   5.613   6.498  1.5582  1.6794 -0.3556
14665SOL     OW51044  12.128   9.573  11.219  0.0077  0.1379 -0.1551
14665SOL    HW151045  12.215   9.600  11.191 -0.2068  0.5318 -0.4436
14665SOL    HW251046  12.141   9.541  11.308  0.2092  1.5654  0.3565
14666SOL     OW51047   5.207   0.838   5.549  0.1471 -0.1577 -0.1953
14666SOL    HW151048   5.290   0.818   5.591  0.9410  1.5511 -0.8709
14666SOL    HW251049   5.141   0.816   5.614  1.2461  0.7722  1.2979
14667SOL     OW51050   7.475   9.009   1.807  0.2211  0.3745 -0.2637
14667SOL    HW151051   7.442   8.941   1.866 -2.2533  1.6029 -0.1175
14667SOL    HW251052   7.412   9.013   1.736  1.8240  0.6533 -1.7468
14668SOL     OW51053   0.503   9.039   2.997 -0.0386  0.2790 -0.2127
14668SOL    HW151054   0.513   9.133   2.981 -1.4683  0.3431 -0.8446
14668SOL    HW251055   0.519   8.998   2.912  0.3488 -0.0498  0.0106
14669SOL     OW51056   1.410   2.359   3.811  0.2698  0.4315  0.0597
14669SOL    HW151057   1.325   2.378   3.771  0.9115  0.9117 -1.1187
14669SOL    HW251058   1.472   2.415   3.764  1.1009  0.8399  1.5746
14670SOL     OW51059   9.158   3.701   8.643  0.3645 -0.5882 -0.1293
14670SOL    HW151060   9.128   3.630   8.701 -0.0076  1.4645  2.3640
14670SOL    HW251061   9.252   3.684   8.631  1.0469  0.1667  3.1820
14671SOL     OW51062   2.464   6.963  11.264 -0.5292  0.2097  0.3799
14671SOL    HW151063   2.540   6.964  11.322  1.6329  0.2347 -2.2610
14671SOL    HW251064   2.457   6.872  11.234 -0.8583  0.4147 -0.2021
14672SOL     OW51065  10.591   5.176   2.903  0.3479  0.1994 -0.1695
14672SOL    HW151066  10.644   5.200   2.979  1.9107 -1.2163 -0.7575
14672SOL    HW251067  10.654   5.148   2.837 -1.1330 -2.1636 -0.6885
14673SOL     OW51068  12.446   0.754  11.311 -0.0470 -0.1116  0.3976
14673SOL    HW151069  12.525   0.724  11.355 -0.4182 -1.7933 -0.0023
14673SOL    HW251070  12.406   0.815  11.373  0.0111 -1.5742  1.9690
14674SOL     OW51071  10.442   5.942   4.946 -0.1340 -0.0305  0.3983
14674SOL    HW151072  10.485   5.880   5.005 -0.4670  0.6211  1.3523
14674SOL    HW251073  10.489   6.024   4.959 -1.4368  0.6151  1.2252
14675SOL     OW51074   3.101   2.773   7.135  0.3376  0.1953 -0.0125
14675SOL    HW151075   3.131   2.862   7.116  1.1946  0.0836  0.7201
14675SOL    HW251076   3.053   2.782   7.217  0.2054  0.0229 -0.0721
14676SOL     OW51077   2.982   9.840   2.779 -0.5824  0.1684  0.0897
14676SOL    HW151078   3.015   9.914   2.831  1.6133  0.0117 -0.9351
14676SOL    HW251079   2.949   9.778   2.844  0.2720  0.8029  1.1785
14677SOL     OW51080   2.473   2.734  11.042  0.3997  0.0154 -0.0552
14677SOL    HW151081   2.490   2.808  11.100 -1.8276  0.8721 -0.4047
14677SOL    HW251082   2.457   2.660  11.100  1.0197  0.1791  0.3346
14678SOL     OW51083   4.895  11.619   9.664 -0.2733 -0.3318  0.3158
14678SOL    HW151084   4.860  11.698   9.705 -2.3726 -2.4466  3.0131
14678SOL    HW251085   4.879  11.631   9.571  1.1055  3.0708  0.3488
14679SOL     OW51086   3.964   9.407   7.359  0.2761  0.5307  0.5195
14679SOL    HW151087   3.905   9.416   7.435 -0.4233 -0.2117  0.0853
14679SOL    HW251088   4.010   9.324   7.375  0.4805  0.6162  0.3694
14680SOL     OW51089   2.136   4.714   1.733  0.4347  0.9822 -0.1877
14680SOL    HW151090   2.155   4.682   1.821  2.5029  0.1848 -0.8786
14680SOL    HW251091   2.182   4.798   1.727 -0.6551  1.6141 -0.1684
14681SOL     OW51092   0.425   4.366   0.748 -0.2516 -0.0240 -0.8803
14681SOL    HW151093   0.482   4.291   0.766  0.9735  1.0449 -0.1223
14681SOL    HW251094   0.391   4.392   0.834 -0.6985  0.2529 -1.1388
14682SOL     OW51095   8.959   4.743   2.054  0.1185  0.1735  0.0885
14682SOL    HW151096   9.035   4.684   2.058  0.7436  0.8928 -0.8154
14682SOL    HW251097   8.982   4.816   2.111 -1.1405 -0.9234  2.1465
14683SOL     OW51098   7.515  12.330   5.230  1.2391  0.6863  0.1289
14683SOL    HW151099   7.443  12.372   5.277  1.1022  0.6226 -0.0259
14683SOL    HW251100   7.572  12.296   5.299 -0.8843 -2.8704  0.3318
14684SOL     OW51101   7.152   4.894   4.860  0.0084  0.4023 -0.2919
14684SOL    HW151102   7.163   4.978   4.904 -1.8261  0.3817  0.2862
14684SOL    HW251103   7.104   4.915   4.780  1.1459  0.1225 -1.0625
14685SOL     OW51104   9.739  11.134   5.269 -0.1562 -0.2668  0.0698
14685SOL    HW151105   9.813  11.148   5.328 -0.9654  0.3971  0.9454
14685SOL    HW251106   9.702  11.222   5.256 -2.3368 -0.8549  1.7113
14686SOL     OW51107   0.091   9.487   8.374  0.9792  0.0295 -0.5569
14686SOL    HW151108   0.134   9.480   8.459  2.6925  0.6066 -1.3172
14686SOL    HW251109   0.116   9.407   8.328  0.2094 -0.1960 -0.5987
14687SOL     OW51110   0.409   0.909   0.791  0.4134 -0.1636 -0.3341
14687SOL    HW151111   0.438   0.965   0.862  0.3034 -0.2582 -0.2150
14687SOL    HW251112   0.316   0.893   0.808  0.5004 -0.5785 -0.2344
14688SOL     OW51113  10.872  12.407   5.908 -0.0823  0.2183 -0.1189
14688SOL    HW151114  10.793  12.353   5.910 -0.0553  0.1031 -1.4411
14688SOL    HW251115  10.888  12.423   5.815  0.9854  0.9303  0.1702
14689SOL     OW51116   0.543   9.450   3.858  0.2679 -0.0081  0.1032
14689SOL    HW151117   0.548   9.402   3.940 -1.4376  2.4916  1.8070
14689SOL    HW251118   0.634   9.454   3.828  0.5850 -3.7098  0.0429
14690SOL     OW51119   0.995   9.037   9.903  0.2702 -0.3563 -0.6100
14690SOL    HW151120   0.943   9.102   9.858  0.4316 -0.8359 -1.5239
14690SOL    HW251121   0.935   8.965   9.921 -0.0374  0.2431  0.8796
14691SOL     OW51122  10.475  12.549   1.969 -0.4783 -0.4101  0.1820
14691SOL    HW151123  10.401  12.610   1.975  0.3402  0.5577  0.7447
14691SOL    HW251124  10.535  12.590   1.907  0.1610 -0.5551  0.7002
14692SOL     OW51125   4.837   5.767   9.384  0.3491  0.3724  0.3804
14692SOL    HW151126   4.786   5.835   9.427  0.4218  1.6499 -1.4419
14692SOL    HW251127   4.775   5.722   9.327  0.4590 -0.6484  1.0319
14693SOL     OW51128  12.016   1.429  11.345  0.2537 -0.0339 -0.3871
14693SOL    HW151129  12.046   1.342  11.372  0.6304  0.0190 -0.6257
14693SOL    HW251130  12.078   1.456  11.278  1.2984  1.2114  1.0094
14694SOL     OW51131   5.805   2.511   8.973  0.2313  0.2548  0.6324
14694SOL    HW151132   5.755   2.591   8.955 -0.3030 -0.3361 -0.7149
14694SOL    HW251133   5.746   2.458   9.027 -0.6795 -0.4453 -0.9639
14695SOL     OW51134   2.838   9.523   4.180  0.0509  0.1359 -0.3343
14695SOL    HW151135   2.842   9.566   4.094  1.1418  2.0246  0.6098
14695SOL    HW251136   2.924   9.483   4.191  0.7263  1.7734  0.7490
14696SOL     OW51137   2.615   4.260   8.607 -0.2357 -0.2025 -0.1761
14696SOL    HW151138   2.600   4.166   8.608  2.2533 -0.6725  0.1763
14696SOL    HW251139   2.586   4.290   8.693  0.4352 -0.9517  0.3276
14697SOL     OW51140   0.058  10.843   8.556  0.3776 -0.0893  0.1030
14697SOL    HW151141   0.076  10.779   8.625  1.3574  0.5374  0.4457
14697SOL    HW251142   0.033  10.922   8.603 -1.2356 -0.3058 -0.3280
14698SOL     OW51143   4.064   3.551   3.528  0.3844  0.2994 -0.1788
14698SOL    HW151144   4.025   3.616   3.470 -0.6004  1.0030  1.2195
14698SOL    HW251145   4.045   3.583   3.616 -0.8447 -2.2538  0.5812
14699SOL     OW51146   4.523   1.814   9.928 -0.3222  0.1662 -0.0808
14699SOL    HW151147   4.473   1.848  10.003 -0.5652  0.1855 -0.2518
14699SOL    HW251148   4.483   1.855   9.852  1.2305  1.7665 -0.0927
14700SOL     OW51149   3.115   6.298  11.988  0.0225 -0.2505  0.0650
14700SOL    HW151150   3.091   6.287  11.896 -1.8431  0.7072  0.3987
14700SOL    HW251151   3.079   6.383  12.013  0.1166 -0.6829  1.7995
14701SOL     OW51152  11.645   2.823   1.628 -0.7255 -0.3599  0.0479
14701SOL    HW151153  11.588   2.900   1.626 -0.8540 -0.4769 -1.2300
14701SOL    HW251154  11.677   2.820   1.719 -1.7687  0.4188  0.4653
14702SOL     OW51155   8.329   0.713  10.518  0.2849 -0.1978  0.2235
14702SOL    HW151156   8.298   0.695  10.430  0.5254  1.6822 -0.2872
14702SOL    HW251157   8.327   0.628  10.562 -0.2060 -1.1012 -1.4586
14703SOL     OW51158   7.073   9.353   1.143  0.2959 -0.0886  0.0126
14703SOL    HW151159   7.005   9.290   1.121  0.5510  0.0239 -1.2144
14703SOL    HW251160   7.113   9.375   1.058  1.2952  0.4754  0.6106
14704SOL     OW51161   1.752   2.438   0.337  0.4230  0.6000  0.4908
14704SOL    HW151162   1.836   2.417   0.297 -0.1901 -0.7125 -0.1534
14704SOL    HW251163   1.745   2.533   0.329  0.4914  0.4435 -2.2098
14705SOL     OW51164   5.647   2.810   6.745  0.8761 -0.0271  0.1370
14705SOL    HW151165   5.693   2.726   6.737  1.7185  0.3765  0.6174
14705SOL    HW251166   5.569   2.800   6.691  1.3147 -0.8852 -0.3536
14706SOL     OW51167   0.158   3.584   9.498 -0.1980 -0.0076 -0.1005
14706SOL    HW151168   0.132   3.674   9.514 -1.6302 -0.6190  1.2579
14706SOL    HW251169   0.090   3.549   9.440 -0.5294 -0.6473  0.6545
14707SOL     OW51170   5.447   7.508   8.888  0.1818 -0.3620 -0.3212
14707SOL    HW151171   5.504   7.574   8.927 -0.4903 -0.9353  1.7526
14707SOL    HW251172   5.471   7.427   8.932 -1.7130 -0.7465  0.0742
14708SOL     OW51173   7.072  12.421  10.137  0.4752 -0.0193 -0.0423
14708SOL    HW151174   7.101  12.354  10.075  0.0050 -0.5936  0.3429
14708SOL    HW251175   7.144  12.425  10.201  0.2640 -0.5662  0.2404
14709SOL     OW51176   3.524   3.878  12.495  0.3859 -0.1048  0.0151
14709SOL    HW151177   3.565   3.821  12.559  1.4681  0.1121 -0.4497
14709SOL    HW251178   3.432   3.851  12.493  0.5203 -0.6819  1.0139
14710SOL     OW51179   1.622   6.989   8.363  0.3434 -0.1545  0.4205
14710SOL    HW151180   1.614   6.931   8.288 -3.7896 -1.0582  1.3138
14710SOL    HW251181   1.613   6.932   8.439 -1.2549  1.2569  1.3917
14711SOL     OW51182   1.046   0.863   6.903  0.5098 -0.2239 -0.3801
14711SOL    HW151183   0.960   0.848   6.940 -0.0894  2.0868 -0.6431
14711SOL    HW251184   1.107   0.853   6.976 -0.4089  1.8161  0.7470
14712SOL     OW51185   0.459   9.857  12.522 -0.3441  0.7075 -0.3087
14712SOL    HW151186   0.416   9.805  12.590 -1.7529  0.2803 -1.4678
14712SOL    HW251187   0.540   9.810  12.502 -0.7736 -0.1104 -0.1424
14713SOL     OW51188   4.205   9.816  11.854 -0.4463 -0.8817 -0.2831
14713SOL    HW151189   4.296   9.816  11.886 -0.9277  0.7366  1.2565
14713SOL    HW251190   4.207   9.761  11.776  2.0664 -0.1340 -0.8393
14714SOL     OW51191   9.367   5.246   3.323  0.2927  0.1816 -0.7516
14714SOL    HW151192   9.398   5.161   3.354 -0.7621  0.5034  1.3679
14714SOL    HW251193   9.393   5.308   3.391 -4.3843  0.5365  1.0961
14715SOL     OW51194   3.824   4.741   1.882  0.0150 -0.2066 -0.2142
14715SOL    HW151195   3.888   4.811   1.867 -2.1801  1.6039 -1.7709
14715SOL    HW251196   3.769   4.742   1.804 -2.6600 -0.8160  1.5462
14716SOL     OW51197   4.845   3.534   2.845 -0.1991  0.0919 -0.2289
14716SOL    HW151198   4.924   3.480   2.845  0.4356  1.0017 -0.1960
14716SOL    HW251199   4.794   3.502   2.770 -0.5996 -1.6121  0.7184
14717SOL     OW51200   5.443   9.886   3.355 -0.5249 -0.4012 -0.1300
14717SOL    HW151201   5.376   9.938   3.401 -2.9335 -1.8779 -1.7320
14717SOL    HW251202   5.461   9.935   3.275  0.9419  0.3534  0.6220
14718SOL     OW51203   1.064   6.966   8.899 -0.1604  0.3152 -0.2161
14718SOL    HW151204   0.979   6.922   8.910 -0.0092 -0.7574 -2.7087
14718SOL    HW251205   1.111   6.948   8.981 -1.8875 -0.0776  0.7340
14719SOL     OW51206  11.939   2.813   0.302  0.2671 -0.0659 -0.0312
14719SOL    HW151207  11.852   2.781   0.278 -0.3342  1.8987 -0.7384
14719SOL    HW251208  11.946   2.798   0.396 -0.7345 -0.5128 -0.0210
14720SOL     OW51209   5.991   0.651  10.806  0.1353  0.4737  0.0435
14720SOL    HW151210   6.026   0.565  10.780  0.3613  0.4376  0.4662
14720SOL    HW251211   6.022   0.711  10.737  1.3802  0.5159  0.6156
14721SOL     OW51212   6.565   6.751   1.922 -0.1381 -0.3238  0.1043
14721SOL    HW151213   6.586   6.844   1.922  0.1447 -0.3811 -0.5242
14721SOL    HW251214   6.627   6.712   1.984  0.4535 -0.2385 -0.4218
14722SOL     OW51215   4.428   8.534   0.101 -0.2501 -0.2713  0.0950
14722SOL    HW151216   4.461   8.564   0.186  0.7784  1.5000 -0.8677
14722SOL    HW251217   4.403   8.614   0.055 -0.9151 -1.2017 -1.2222
14723SOL     OW51218  10.822   7.640  10.694 -0.3976 -0.0504  0.0190
14723SOL    HW151219  10.837   7.711  10.632  1.6836 -0.6949 -0.2758
14723SOL    HW251220  10.739   7.664  10.737 -0.2764  2.0184 -0.7576
14724SOL     OW51221   1.701   1.230   9.232  0.0970  0.2533 -0.3851
14724SOL    HW151222   1.794   1.209   9.224  0.0319  0.2231 -1.1743
14724SOL    HW251223   1.695   1.321   9.201 -0.4721 -0.5248 -2.7496
14725SOL     OW51224   2.707   1.916   7.114  0.1684 -0.2508 -0.6108
14725SOL    HW151225   2.797   1.909   7.144 -0.3499 -1.5435  0.7521
14725SOL    HW251226   2.666   1.980   7.173 -0.8423 -2.7718  1.6240
14726SOL     OW51227   8.478   3.553  10.217  0.5901  0.1318 -0.1833
14726SOL    HW151228   8.558   3.515  10.180  0.5117 -0.7877  0.5742
14726SOL    HW251229   8.510   3.620  10.278  0.9040 -1.6362  1.7077
14727SOL     OW51230   5.324   1.089   9.641 -0.1906  0.0340 -0.3711
14727SOL    HW151231   5.246   1.063   9.690  1.4736 -0.9790  1.9055
14727SOL    HW251232   5.334   1.183   9.660  0.1556 -0.2419  0.8989
14728SOL     OW51233   8.677   8.858   7.271 -0.7387 -0.0740  0.1421
14728SOL    HW151234   8.700   8.772   7.305 -0.4893  0.9514  2.7378
14728SOL    HW251235   8.601   8.842   7.215 -0.3267 -2.0222  0.0659
14729SOL     OW51236   1.537  11.817   4.831 -0.0667  0.3353 -0.3125
14729SOL    HW151237   1.571  11.871   4.902  0.3312 -0.4225  0.0868
14729SOL    HW251238   1.442  11.821   4.841  0.0067 -1.0140  1.2413
14730SOL     OW51239   5.117  10.506   4.651 -0.3436 -0.4413  0.1636
14730SOL    HW151240   5.067  10.426   4.636  1.0167 -1.7171  1.9149
14730SOL    HW251241   5.201  10.490   4.609 -0.0861  0.1034  0.4663
14731SOL     OW51242   7.923   3.624   6.350 -0.1715 -0.0827 -0.0002
14731SOL    HW151243   7.909   3.625   6.255 -3.0684 -0.1812  0.3389
14731SOL    HW251244   7.955   3.536   6.368 -1.2614 -0.6612 -0.7374
14732SOL     OW51245   8.426   5.146   5.693  0.2809  0.3923 -0.5270
14732SOL    HW151246   8.360   5.209   5.663  1.0901  1.8028  0.5280
14732SOL    HW251247   8.510   5.188   5.674  0.8625 -0.7247 -0.5179
14733SOL     OW51248   3.285   5.013   3.038  0.7096  0.1051 -0.0543
14733SOL    HW151249   3.324   5.097   3.015  0.9070  0.8711  2.7639
14733SOL    HW251250   3.193   5.021   3.010  0.9755  0.8089 -0.7727
14734SOL     OW51251   7.919  10.574   4.468 -0.0752 -0.4993 -0.4922
14734SOL    HW151252   7.875  10.506   4.416  2.0125 -2.3975  0.0481
14734SOL    HW251253   7.999  10.593   4.420  0.6507 -0.3904  0.7174
14735SOL     OW51254   2.778   4.711  10.689 -0.1243 -0.4391  0.2182
14735SOL    HW151255   2.824   4.792  10.711  2.0817 -1.0913 -1.5310
14735SOL    HW251256   2.734   4.685  10.770 -0.6475  2.2997  0.9122
14736SOL     OW51257   8.011   1.226   0.989  0.1742 -0.2547  0.0025
14736SOL    HW151258   8.015   1.309   0.942  1.6798 -0.2816  0.0286
14736SOL    HW251259   7.918   1.216   1.012 -0.5709 -0.1141 -2.6692
14737SOL     OW51260   7.206   0.363   8.148  0.1580 -0.0389  0.3833
14737SOL    HW151261   7.155   0.287   8.176 -2.3804  1.8300  1.2231
14737SOL    HW251262   7.290   0.353   8.192 -1.5486 -0.3005  3.9755
14738SOL     OW51263   9.061   4.547   2.722 -0.3945 -0.1398  0.1731
14738SOL    HW151264   9.094   4.553   2.632  0.8420  0.9400  0.6656
14738SOL    HW251265   9.138   4.562   2.777 -1.4167  0.8998  1.3938
14739SOL     OW51266  11.177  10.356  10.129 -0.0372  0.6155  0.1339
14739SOL    HW151267  11.181  10.299  10.206  2.4667  0.1096 -0.2813
14739SOL    HW251268  11.240  10.425  10.148 -1.1635  1.8446 -0.4757
14740SOL     OW51269   1.607   2.320  10.219 -0.0804 -0.5313  0.4277
14740SOL    HW151270   1.531   2.300  10.272 -0.5406 -0.3410 -0.1537
14740SOL    HW251271   1.582   2.295  10.130  1.3894 -2.8050  0.5610
14741SOL     OW51272  10.287   5.006   8.782  0.1426  0.5009  0.1106
14741SOL    HW151273  10.297   5.060   8.861  0.0455 -0.5003  0.8273
14741SOL    HW251274  10.358   4.942   8.788  0.0760  0.3565 -0.5718
14742SOL     OW51275  10.228   8.431   4.517 -0.0085 -0.0290 -0.1029
14742SOL    HW151276  10.185   8.349   4.493  1.1484 -0.3840 -1.1161
14742SOL    HW251277  10.163   8.499   4.499 -0.7834 -0.6789  0.2040
14743SOL     OW51278   8.957  12.321  10.478  0.2258  0.8786  0.7134
14743SOL    HW151279   9.051  12.322  10.463  0.2037  0.1651  0.5257
14743SOL    HW251280   8.945  12.370  10.559  0.9579 -0.7907  1.8618
14744SOL     OW51281   5.804   7.998  11.431 -0.5667 -0.3118  0.3365
14744SOL    HW151282   5.850   8.076  11.401  1.3279 -1.1162  1.0378
14744SOL    HW251283   5.765   8.024  11.515 -0.1022 -0.0638  0.4783
14745SOL     OW51284   2.439   6.314  12.281  0.0408 -0.1156  0.1554
14745SOL    HW151285   2.449   6.358  12.197 -2.3500  0.7307  0.2437
14745SOL    HW251286   2.399   6.230  12.260 -0.4736  0.0576  0.4329
14746SOL     OW51287   0.967   8.818   5.298  1.0845  0.9133  0.7714
14746SOL    HW151288   1.013   8.897   5.328  0.2243  1.2175  1.3372
14746SOL    HW251289   1.019   8.745   5.332  1.4657  1.2406  0.8996
14747SOL     OW51290  10.810   2.443   6.082 -0.3399 -0.3048 -0.4494
14747SOL    HW151291  10.733   2.393   6.055 -0.2365  0.0366 -1.4308
14747SOL    HW251292  10.826   2.503   6.008  0.1077  0.4949  0.2823
14748SOL     OW51293   0.482   3.017   2.922 -0.0281  0.1647  0.5735
14748SOL    HW151294   0.530   3.062   2.991 -1.8280  1.9374  0.7859
14748SOL    HW251295   0.392   3.011   2.955 -0.2183 -2.1607 -0.1772
14749SOL     OW51296   3.022   3.245   8.077  0.2944 -0.1731  0.3601
14749SOL    HW151297   3.114   3.229   8.055  0.5223  1.8983 -0.4589
14749SOL    HW251298   2.980   3.159   8.070  2.0758 -1.0954  0.3508
14750SOL     OW51299   1.510  11.280   7.698 -0.0404 -0.6016 -0.3281
14750SOL    HW151300   1.576  11.350   7.699 -0.6420 -0.0047  1.6493
14750SOL    HW251301   1.436  11.318   7.650 -0.0338 -0.2126 -0.0320
14751SOL     OW51302   9.785   7.818   0.774 -0.0270  1.2211 -0.0424
14751SOL    HW151303   9.841   7.849   0.844 -0.0116  2.0672 -0.4233
14751SOL    HW251304   9.823   7.734   0.748 -0.2514  0.7056  1.2026
14752SOL     OW51305   2.320   4.036   9.275  0.3403  1.0636 -0.3565
14752SOL    HW151306   2.355   4.087   9.349  2.0543 -0.1539 -0.2776
14752SOL    HW251307   2.391   4.034   9.212 -0.0506 -0.3930 -0.7810
14753SOL     OW51308   7.095   8.839   5.687 -0.1041  0.6016 -0.2445
14753SOL    HW151309   7.125   8.868   5.773  0.1668  1.9520 -0.7597
14753SOL    HW251310   7.020   8.783   5.705  1.4778 -1.2349  0.9765
14754SOL     OW51311  10.353  10.010  10.204  0.0885  0.1460 -0.6145
14754SOL    HW151312  10.281   9.954  10.174  0.1454  0.1628 -0.7819
14754SOL    HW251313  10.423   9.995  10.141  0.0240  0.5811 -0.7954
14755SOL     OW51314  12.282  10.511   1.105  0.3032  0.3142  0.2859
14755SOL    HW151315  12.348  10.452   1.141  0.4261  0.5761  0.5000
14755SOL    HW251316  12.319  10.599   1.117  0.0036  0.4517  0.2294
14756SOL     OW51317  12.298  10.887   2.725 -0.1137  0.1017 -0.5376
14756SOL    HW151318  12.356  10.824   2.768  0.7140  0.3335 -1.3005
14756SOL    HW251319  12.293  10.960   2.787  0.1342 -0.0642 -0.3198
14757SOL     OW51320   0.208   4.038  12.045  0.3637 -0.9318  0.0456
14757SOL    HW151321   0.287   4.011  12.092  1.1589 -2.3914 -1.9705
14757SOL    HW251322   0.141   3.975  12.071  0.1790 -0.4212  0.8374
14758SOL     OW51323   9.789   0.914   9.740  0.4670  0.6126 -0.7326
14758SOL    HW151324   9.760   0.966   9.666 -0.4977  2.4891  0.8777
14758SOL    HW251325   9.710   0.900   9.793  1.1211 -0.6634 -0.0177
14759SOL     OW51326  12.488  12.329  12.270  0.0746  0.5567  0.5717
14759SOL    HW151327  12.492  12.237  12.297 -1.7531  0.3056  0.1572
14759SOL    HW251328  12.551  12.336  12.199 -1.5395 -1.0829 -1.1622
14760SOL     OW51329  10.119   1.246  11.918 -0.9071 -0.3209  0.0444
14760SOL    HW151330  10.198   1.246  11.971 -1.2484  0.0672  0.5626
14760SOL    HW251331  10.050   1.276  11.977 -1.7128 -1.9868 -0.0135
14761SOL     OW51332   2.951   1.189   2.676  0.1977 -1.0727 -0.2909
14761SOL    HW151333   2.907   1.269   2.649 -0.5171 -1.8026 -1.4012
14761SOL    HW251334   2.938   1.185   2.771 -1.3709 -0.7915 -0.4594
14762SOL     OW51335  10.380   4.932   0.366 -0.0714  0.2941  0.2345
14762SOL    HW151336  10.332   4.850   0.353 -1.7163  1.3480 -0.7083
14762SOL    HW251337  10.405   4.930   0.458 -3.7940  0.5701  1.4123
14763SOL     OW51338   5.599  10.238  11.397  0.1193 -0.0555 -0.1855
14763SOL    HW151339   5.541  10.255  11.471  0.3098  0.1454 -0.0811
14763SOL    HW251340   5.615  10.144  11.400 -0.3490 -0.1416 -0.3258
14764SOL     OW51341   0.534  10.691   8.069  0.0821  0.5109  0.2644
14764SOL    HW151342   0.597  10.647   8.012 -0.1244  0.4292  0.0986
14764SOL    HW251343   0.513  10.627   8.137 -0.3683  0.2831 -0.0893
14765SOL     OW51344   7.933   2.955  12.000 -0.0639 -0.3540  0.2434
14765SOL    HW151345   7.861   3.015  11.982  0.6549  0.4503  0.0052
14765SOL    HW251346   8.005   3.011  12.028  1.4117 -0.8310 -2.3057
14766SOL     OW51347   6.271   1.267   2.266  0.5770 -0.3836 -0.0960
14766SOL    HW151348   6.212   1.268   2.190 -1.6234  1.0715  1.5133
14766SOL    HW251349   6.355   1.297   2.231 -0.7685  1.8188 -1.6994
14767SOL     OW51350   9.754   6.770   3.321  0.3329 -0.3804 -0.6217
14767SOL    HW151351   9.679   6.830   3.321  1.5326  1.1916 -1.4593
14767SOL    HW251352   9.798   6.787   3.238  2.2887 -0.4086  0.3565
14768SOL     OW51353   6.108   3.614   2.861 -0.5485  0.4925 -0.0865
14768SOL    HW151354   6.099   3.639   2.952 -0.1325  1.3649 -0.2717
14768SOL    HW251355   6.173   3.543   2.861 -2.2909 -1.1728  0.5254
14769SOL     OW51356   1.433   6.724   7.747 -0.0697  0.0500  0.0350
14769SOL    HW151357   1.341   6.746   7.756  0.2109  2.3190 -1.5927
14769SOL    HW251358   1.479   6.802   7.778  1.1553  0.3886 -2.3380
14770SOL     OW51359   2.345   0.047   1.419  0.1608 -0.0404  0.0994
14770SOL    HW151360   2.298   0.071   1.339  0.5885  1.4346  0.2559
14770SOL    HW251361   2.435   0.077   1.403 -0.1328  2.0706  1.8228
14771SOL     OW51362   9.576   3.967   3.028  0.1199 -0.8640 -0.6251
14771SOL    HW151363   9.627   3.931   3.101 -0.4175  0.3310  0.3884
14771SOL    HW251364   9.541   4.049   3.063  1.0380  0.4985 -2.7027
14772SOL     OW51365   8.662  12.003   6.794 -0.0585  0.1509 -0.3726
14772SOL    HW151366   8.653  11.941   6.722  2.7828 -1.7359  0.6944
14772SOL    HW251367   8.709  11.954   6.862 -1.7293  2.1299  2.4174
14773SOL     OW51368   0.386   4.431  10.056 -0.1011  0.6037  0.3235
14773SOL    HW151369   0.410   4.392  10.140 -1.0352  0.5635  0.5800
14773SOL    HW251370   0.295   4.406  10.043 -0.3526  1.6787 -0.0958
14774SOL     OW51371   6.792   0.490   8.180 -0.0260 -0.4036  0.0685
14774SOL    HW151372   6.811   0.405   8.141  0.0023 -0.5481  0.3894
14774SOL    HW251373   6.876   0.535   8.180  0.3850 -1.0918  1.6056
14775SOL     OW51374   5.263   2.270   5.601  0.2628 -0.4929 -0.2034
14775SOL    HW151375   5.330   2.250   5.666  0.5223  0.0991 -0.2806
14775SOL    HW251376   5.208   2.336   5.643  0.7049  0.2382 -0.7392
14776SOL     OW51377   3.598   6.615   0.459 -0.2514  0.0491  0.0511
14776SOL    HW151378   3.626   6.571   0.379 -2.2383  0.3369 -0.8628
14776SOL    HW251379   3.625   6.706   0.446  0.8181 -0.2028  0.4261
14777SOL     OW51380  11.821   5.977   9.308 -0.0905 -0.2128  0.1075
14777SOL    HW151381  11.779   6.055   9.272 -0.4495 -0.1915  0.5754
14777SOL    HW251382  11.763   5.905   9.283 -0.3339 -0.1997  0.6320
14778SOL     OW51383   1.372  11.696   8.130  0.4626 -0.5136 -0.4052
14778SOL    HW151384   1.376  11.668   8.039 -0.5837 -1.5218 -0.1599
14778SOL    HW251385   1.305  11.640   8.170  1.9530 -1.1432  1.3486
14779SOL     OW51386   6.425  12.477   6.035 -0.3216  0.1047  0.0676
14779SOL    HW151387   6.404  12.386   6.015  0.3193  0.2423 -1.3410
14779SOL    HW251388   6.357  12.528   5.989 -1.1800  0.3381  1.5321
14780SOL     OW51389  10.107   5.301  11.099  0.5505 -0.0675 -0.0676
14780SOL    HW151390  10.061   5.227  11.062  0.5044 -1.6728  2.8803
14780SOL    HW251391  10.107   5.285  11.194  1.6945  3.0406  0.6066
14781SOL     OW51392   6.431  10.515   1.399 -0.1499  0.5403  0.7142
14781SOL    HW151393   6.482  10.478   1.471 -0.3981 -2.3435 -0.4420
14781SOL    HW251394   6.395  10.597   1.434  1.8922  0.5933  2.9135
14782SOL     OW51395  11.823   9.374   9.620  0.1329  0.3512  0.2673
14782SOL    HW151396  11.742   9.336   9.654 -0.3491 -1.2600 -2.3362
14782SOL    HW251397  11.870   9.404   9.697 -1.9520 -0.6725  2.0581
14783SOL     OW51398   6.806   4.576   1.418  0.4613 -0.4891  0.4184
14783SOL    HW151399   6.768   4.661   1.443  0.6875  0.4855 -2.2274
14783SOL    HW251400   6.732   4.515   1.423 -0.8009  0.7468 -1.5864
14784SOL     OW51401   8.628   2.465   5.095  0.9161  0.4937  0.0615
14784SOL    HW151402   8.551   2.433   5.047  1.8191  0.4133 -1.3831
14784SOL    HW251403   8.594   2.534   5.152 -0.2526  0.3498 -0.4330
14785SOL     OW51404   7.006   5.758   1.281 -0.7906  0.8573 -0.4342
14785SOL    HW151405   7.058   5.727   1.356 -1.6585  1.9357  0.6690
14785SOL    HW251406   6.932   5.804   1.321 -1.6035  0.9620 -1.9744
14786SOL     OW51407  12.324   5.278   4.580 -0.1031  0.3066  0.0084
14786SOL    HW151408  12.293   5.235   4.500  1.1381  0.8166 -0.7790
14786SOL    HW251409  12.418   5.257   4.584  0.3930  2.3506 -0.0471
14787SOL     OW51410   0.603   7.801   4.578 -0.1309  0.3764  0.0813
14787SOL    HW151411   0.670   7.770   4.639  0.2696  1.0600 -0.0042
14787SOL    HW251412   0.588   7.892   4.603 -0.8788  0.2932 -0.0388
14788SOL     OW51413   9.524   5.144  12.083 -0.3885  0.3227  0.1962
14788SOL    HW151414   9.448   5.189  12.045 -0.3056  0.5932  0.3523
14788SOL    HW251415   9.577   5.214  12.121  1.1754  0.4454 -2.0100
14789SOL     OW51416   1.212   8.032   5.120 -0.2440  0.3893  0.5597
14789SOL    HW151417   1.302   8.057   5.139  0.4550 -2.5414  1.6527
14789SOL    HW251418   1.219   7.966   5.052 -1.7025  0.9965 -0.2294
14790SOL     OW51419   2.708   9.230   9.655 -0.1967  0.2396 -0.4643
14790SOL    HW151420   2.683   9.148   9.697 -1.3405  0.1017 -1.3608
14790SOL    HW251421   2.785   9.259   9.703 -1.5643  0.2196  1.9070
14791SOL     OW51422   5.872   4.321   4.268  0.6630 -0.4270 -0.0897
14791SOL    HW151423   5.811   4.247   4.267  1.1581 -0.8385 -0.7714
14791SOL    HW251424   5.943   4.294   4.210  1.3524  0.1646  0.4621
14792SOL     OW51425   6.076   2.042   3.705 -0.3360 -0.0932  0.2023
14792SOL    HW151426   5.990   2.057   3.742 -0.8609  1.9377 -1.6438
14792SOL    HW251427   6.060   1.994   3.624  0.4046 -0.8334  0.4750
14793SOL     OW51428   4.333  11.913   7.290 -0.0775 -0.6602 -0.1402
14793SOL    HW151429   4.370  11.907   7.377 -0.2917 -3.0588 -0.1420
14793SOL    HW251430   4.244  11.946   7.304  0.2850  0.1107  0.4021
14794SOL     OW51431   5.020   7.691   3.103  0.4498  0.1124 -0.1067
14794SOL    HW151432   4.926   7.671   3.100  1.1175 -4.9594  2.2441
14794SOL    HW251433   5.028   7.757   3.172 -1.3397  0.2087  0.0576
14795SOL     OW51434   3.023   8.707   9.886  0.0111 -0.1922 -0.6049
14795SOL    HW151435   2.999   8.779   9.944  0.1675  0.2921 -1.1279
14795SOL    HW251436   3.082   8.746   9.822 -0.0809 -0.7361 -1.0339
14796SOL     OW51437  11.374   1.186   0.369 -0.0538  0.0476 -0.3013
14796SOL    HW151438  11.420   1.104   0.387 -1.7272 -0.5525  1.6235
14796SOL    HW251439  11.394   1.206   0.278  1.3383 -1.8820 -0.4619
14797SOL     OW51440   0.193   0.838   5.020 -0.4614 -0.1041 -0.3759
14797SOL    HW151441   0.282   0.871   5.010  0.1725 -1.9162 -1.2197
14797SOL    HW251442   0.185   0.816   5.113  0.8497 -2.0815 -0.6670
14798SOL     OW51443   2.555   4.765   3.395 -0.3111  0.7906  0.3690
14798SOL    HW151444   2.618   4.697   3.369 -1.1623  0.1905 -0.1873
14798SOL    HW251445   2.548   4.755   3.490  1.9884  2.2641  0.7592
14799SOL     OW51446   7.515   9.699   2.962  0.4846 -0.3118 -0.2610
14799SOL    HW151447   7.452   9.644   2.915  0.6502 -1.0535  0.3506
14799SOL    HW251448   7.586   9.712   2.900 -0.4883  0.9999 -1.1605
14800SOL     OW51449   3.692   4.919   9.914  0.3021 -0.2746  0.0431
14800SOL    HW151450   3.607   4.949   9.947  0.1349  0.1123 -0.7164
14800SOL    HW251451   3.718   4.986   9.850 -0.0858 -1.7299 -1.7186
14801SOL     OW51452   8.964   4.973   6.747  0.3004 -0.2839  0.4894
14801SOL    HW151453   8.983   5.057   6.787  2.9322 -0.6793  0.2167
14801SOL    HW251454   8.993   4.908   6.811  2.0863 -0.9289 -0.9007
14802SOL     OW51455   7.333   9.983   4.669 -0.2664  0.4419  0.3190
14802SOL    HW151456   7.359   9.921   4.736 -0.5984  1.6423  1.5970
14802SOL    HW251457   7.415  10.020   4.636 -0.0840 -0.4307 -0.2489
14803SOL     OW51458   3.875   6.600  12.214  0.7769 -0.0328  0.5081
14803SOL    HW151459   3.846   6.635  12.130 -3.5105 -2.5670  0.6197
14803SOL    HW251460   3.918   6.673  12.258  0.1023  2.3508 -2.5035
14804SOL     OW51461   2.174   7.719   8.379  0.0555 -0.0040  0.3466
14804SOL    HW151462   2.267   7.702   8.364 -0.0672  1.1396 -2.1730
14804SOL    HW251463   2.129   7.670   8.310 -0.9809  1.7789 -0.3192
14805SOL     OW51464  10.606   6.553   7.550  0.3806 -0.1915  0.5255
14805SOL    HW151465  10.612   6.497   7.628  1.9335  0.0155  0.5854
14805SOL    HW251466  10.670   6.622   7.566 -0.9049  1.1576  0.0692
14806SOL     OW51467   6.346   1.606   6.332 -0.4774  0.1308 -0.2021
14806SOL    HW151468   6.317   1.573   6.247  0.4648 -0.4811 -0.2989
14806SOL    HW251469   6.270   1.594   6.389 -0.4380 -1.5287 -0.4251
14807SOL     OW51470   8.410   7.571   2.191  0.0793  0.0131  0.0471
14807SOL    HW151471   8.373   7.548   2.276  2.4460  0.4017  1.2897
14807SOL    HW251472   8.397   7.666   2.185 -0.7607 -0.1218 -0.4037
14808SOL     OW51473   7.221   0.916  10.616 -0.1355 -0.3224  0.0524
14808SOL    HW151474   7.156   0.984  10.596 -2.4549 -1.7394  2.2165
14808SOL    HW251475   7.177   0.834  10.594  1.7470 -1.2630 -0.3480
14809SOL     OW51476   5.186   4.449   3.329  0.5833 -0.0560  0.2494
14809SOL    HW151477   5.215   4.394   3.401 -2.4070 -1.1414  0.7714
14809SOL    HW251478   5.108   4.494   3.362  0.1500  0.7897 -1.7355
14810SOL     OW51479   8.020   4.916   1.941  0.1992  0.3167  0.0182
14810SOL    HW151480   8.032   5.011   1.935 -0.0121  0.4721  1.5212
14810SOL    HW251481   8.103   4.884   1.977  0.5719 -0.1845 -1.2532
14811SOL     OW51482   1.783   8.557  12.171  0.4088  0.5388  0.4999
14811SOL    HW151483   1.878   8.555  12.171  0.4615 -2.1635 -0.4958
14811SOL    HW251484   1.759   8.580  12.261  1.9482  2.2985  0.5035
14812SOL     OW51485   7.425   6.970   3.381 -0.1545  0.8860 -0.6989
14812SOL    HW151486   7.372   6.906   3.429 -0.1662  1.1965 -0.2933
14812SOL    HW251487   7.446   7.037   3.445  1.2731  0.4619 -0.6710
14813SOL     OW51488   5.027  11.890   9.730  0.0091  0.1185  0.0085
14813SOL    HW151489   5.003  11.830   9.801  0.5008 -0.7722 -0.5681
14813SOL    HW251490   5.112  11.859   9.699  0.7442  1.6852  0.3126
14814SOL     OW51491   4.080  10.405  10.306  0.5500  0.1945  0.8547
14814SOL    HW151492   4.120  10.442  10.385  2.5949  0.2643 -0.1414
14814SOL    HW251493   4.118  10.456  10.234 -2.5609  1.2963 -0.1374
14815SOL     OW51494   8.184   4.612   3.297 -0.3899 -0.1211 -0.3809
14815SOL    HW151495   8.150   4.681   3.240 -0.9228 -0.9031 -1.0346
14815SOL    HW251496   8.266   4.647   3.332 -0.5204  0.7273 -0.9107
14816SOL     OW51497   3.870   3.664   3.328  0.3084  0.1203 -0.1934
14816SOL    HW151498   3.865   3.578   3.370 -0.8344  0.0778 -0.3867
14816SOL    HW251499   3.870   3.645   3.234  1.6354  0.2728 -0.2424
14817SOL     OW51500   6.869  11.093   9.058 -0.2058  0.4371  0.0054
14817SOL    HW151501   6.907  11.038   9.126 -1.4948  0.1506  0.5132
14817SOL    HW251502   6.944  11.137   9.019  0.7596 -0.9112  0.2558
14818SOL     OW51503   4.760  10.769   0.777  0.6525 -0.1815 -0.1423
14818SOL    HW151504   4.855  10.757   0.776  0.3771 -2.9639 -1.2622
14818SOL    HW251505   4.728  10.696   0.829 -0.8496  1.9918  2.2501
14819SOL     OW51506   9.729   6.328   0.751  0.1921  0.2747 -0.4643
14819SOL    HW151507   9.672   6.293   0.820 -0.6057  1.6698 -0.3771
14819SOL    HW251508   9.669   6.354   0.681  0.9424 -0.5120 -1.4206
14820SOL     OW51509   0.476   7.870   7.044  0.3280  0.0873 -0.0243
14820SOL    HW151510   0.497   7.963   7.036  0.3290  0.0238 -0.8827
14820SOL    HW251511   0.402   7.867   7.104  0.4345  0.6305  0.1384
14821SOL     OW51512  10.237   3.968   3.582  0.5114  0.4728 -0.0418
14821SOL    HW151513  10.192   4.032   3.637 -0.8187 -0.3146 -0.1908
14821SOL    HW251514  10.184   3.963   3.502  1.5769  0.4776 -0.7763
14822SOL     OW51515   7.250  11.105   6.114  0.3749 -0.3360 -0.3614
14822SOL    HW151516   7.181  11.068   6.059 -1.0705 -0.1964  1.2690
14822SOL    HW251517   7.326  11.112   6.056 -0.9209 -0.6437 -2.1787
14823SOL     OW51518   4.008  11.409   7.973 -0.0451 -0.1913  0.7611
14823SOL    HW151519   3.955  11.449   7.904  0.9867 -0.4263 -0.1892
14823SOL    HW251520   4.012  11.316   7.950  1.3514 -0.0678  0.4132
14824SOL     OW51521   5.213   2.925   2.035  0.3864  0.0749  0.1782
14824SOL    HW151522   5.255   2.867   1.971 -0.6225  0.2091 -0.6424
14824SOL    HW251523   5.134   2.956   1.990  1.2235  2.6393  0.3010
14825SOL     OW51524   3.542   8.587   6.556 -0.1245  0.8537  0.2137
14825SOL    HW151525   3.615   8.528   6.576 -0.1765  1.3457  2.0075
14825SOL    HW251526   3.511   8.558   6.470  1.1453 -0.3979  0.1370
14826SOL     OW51527   3.791   0.753   0.242 -0.6352  0.8589 -0.1980
14826SOL    HW151528   3.860   0.782   0.301 -0.5357  0.9951 -0.3811
14826SOL    HW251529   3.723   0.820   0.250 -1.0506  0.3690  0.5085
14827SOL     OW51530  12.567  10.310   4.212 -0.5540 -0.1437  0.0166
14827SOL    HW151531  12.532  10.250   4.145 -1.5312  1.1783 -0.7194
14827SOL    HW251532  12.616  10.254   4.271  3.2804 -1.0637 -3.5658
14828SOL     OW51533   2.908   9.659   6.475  0.7282 -0.1221  0.5799
14828SOL    HW151534   2.900   9.753   6.492 -0.1076  0.2472 -1.5822
14828SOL    HW251535   2.923   9.652   6.381  1.0214 -2.1625  0.7223
14829SOL     OW51536   2.583   6.947   3.974 -0.1905 -0.2689 -0.6743
14829SOL    HW151537   2.512   7.005   3.999 -1.2257 -1.7218 -0.0780
14829SOL    HW251538   2.653   7.005   3.945 -0.8239  1.2897  0.7732
14830SOL     OW51539   9.605   8.039  11.188  0.2697 -0.1105 -0.3315
14830SOL    HW151540   9.588   7.997  11.272  0.6688  0.2665 -0.0568
14830SOL    HW251541   9.697   8.023  11.170  0.3049  0.2193 -0.4618
14831SOL     OW51542   6.599   0.634   2.508 -0.2302  0.3748  0.0104
14831SOL    HW151543   6.677   0.678   2.473 -1.0285  2.4775  0.7399
14831SOL    HW251544   6.526   0.671   2.458 -0.8266 -1.3647 -0.4776
14832SOL     OW51545   3.166   4.197  12.017  0.7147 -0.2586 -0.7619
14832SOL    HW151546   3.251   4.178  12.058 -0.2870 -0.7725  1.2300
14832SOL    HW251547   3.171   4.156  11.931  1.6963 -2.2952  0.1986
14833SOL     OW51548   0.110   0.584   9.647 -0.3944 -0.0828  0.5408
14833SOL    HW151549   0.179   0.626   9.698  0.7972 -0.8939 -0.3399
14833SOL    HW251550   0.150   0.503   9.615 -1.3030  0.1068 -1.1660
14834SOL     OW51551   9.420   1.436   6.805  0.0458  0.2742  0.0353
14834SOL    HW151552   9.424   1.376   6.879 -0.0136  0.0036 -0.1793
14834SOL    HW251553   9.390   1.382   6.732  1.9519  0.0874 -0.6626
14835SOL     OW51554   3.188   6.298   5.775 -0.1675  0.2453 -0.3474
14835SOL    HW151555   3.243   6.267   5.847 -0.9659 -5.1412 -1.6602
14835SOL    HW251556   3.098   6.292   5.809 -0.4431 -0.7307 -1.1930
14836SOL     OW51557   8.314  11.868  11.572 -0.0804 -0.3526 -0.8915
14836SOL    HW151558   8.315  11.796  11.509 -0.2371 -0.8459 -0.3438
14836SOL    HW251559   8.274  11.941  11.525  0.3401 -0.5364 -1.5449
14837SOL     OW51560   3.838   9.892   5.806  0.3975  0.3049  0.7817
14837SOL    HW151561   3.791   9.969   5.839  0.7547 -0.0908  2.2958
14837SOL    HW251562   3.779   9.819   5.823  1.0631 -0.0495  1.6216
14838SOL     OW51563   8.169  10.536   8.120 -0.0753 -0.2565  0.1161
14838SOL    HW151564   8.187  10.500   8.033  0.3693  0.4095 -0.0745
14838SOL    HW251565   8.074  10.545   8.123 -0.1321 -0.7361 -0.1129
14839SOL     OW51566  10.386   6.590   1.392  0.3954 -0.4980  0.4975
14839SOL    HW151567  10.414   6.539   1.316 -0.2640 -1.4739  0.8792
14839SOL    HW251568  10.419   6.678   1.376  0.3303 -0.7039 -0.8811
14840SOL     OW51569   0.992   9.120   0.044  0.2250  0.1099  0.0587
14840SOL    HW151570   1.059   9.084  -0.014 -0.5778 -0.8153 -0.3124
14840SOL    HW251571   0.942   9.044   0.073 -1.3960  0.9077 -0.5800
14841SOL     OW51572   6.490  11.497   6.556 -0.0248  0.3300  0.8597
14841SOL    HW151573   6.453  11.449   6.481  0.7423 -1.0032  1.2946
14841SOL    HW251574   6.423  11.490   6.624 -0.4347  0.9591  0.5324
14842SOL     OW51575   1.838   7.307   7.101  0.5887  0.2301 -0.5934
14842SOL    HW151576   1.901   7.265   7.042  2.1687  0.9272  0.5289
14842SOL    HW251577   1.816   7.389   7.057 -1.1596 -0.8916 -1.9510
14843SOL     OW51578  11.702   6.026   4.266 -0.3854 -0.5170 -0.1906
14843SOL    HW151579  11.663   5.940   4.250 -0.0685 -0.4965 -1.1272
14843SOL    HW251580  11.703   6.069   4.181  0.2214  0.0987  0.1113
14844SOL     OW51581   5.227  12.090   7.063 -0.0957  0.3510  0.2661
14844SOL    HW151582   5.252  12.121   6.976 -0.0601 -0.2449  0.0597
14844SOL    HW251583   5.287  12.135   7.122 -0.8623  1.6231  0.0939
14845SOL     OW51584   2.700  12.193   9.028 -0.2437 -0.3483 -0.0577
14845SOL    HW151585   2.656  12.185   9.113  0.4215 -1.4599  0.2064
14845SOL    HW251586   2.687  12.108   8.986 -0.0240 -0.0199 -0.8130
14846SOL     OW51587  12.282   7.786   9.740 -0.9383 -0.1929  0.2424
14846SOL    HW151588  12.288   7.698   9.705 -0.0576 -0.1281  0.1996
14846SOL    HW251589  12.312   7.778   9.831  3.2391  0.6661 -0.8413
14847SOL     OW51590  11.038  10.117   3.078  0.2125 -0.2753  0.0910
14847SOL    HW151591  11.048  10.105   2.984  1.1683  0.1433  0.1289
14847SOL    HW251592  11.109  10.177   3.103 -0.5744  0.3491  0.9270
14848SOL     OW51593   0.204   3.287   7.157 -0.0922 -0.3737 -0.2956
14848SOL    HW151594   0.282   3.245   7.194 -0.7234 -1.3605 -0.0658
14848SOL    HW251595   0.232   3.377   7.140  0.9527 -0.5747  0.2549
14849SOL     OW51596   4.136   5.803   0.059 -0.1654 -0.0459  0.2625
14849SOL    HW151597   4.066   5.763   0.008  0.0937 -1.4815  0.9895
14849SOL    HW251598   4.096   5.824   0.144  0.0605 -0.0738  0.3778
14850SOL     OW51599  10.558   1.897   1.541 -0.2008  0.1533  0.6044
14850SOL    HW151600  10.487   1.907   1.605  0.6016 -0.7921  1.7076
14850SOL    HW251601  10.578   1.986   1.512 -0.7340  0.5895  1.5366
14851SOL     OW51602  10.758   4.253  11.153 -0.1894 -0.0352 -0.1671
14851SOL    HW151603  10.791   4.177  11.105  0.6399  0.1424  0.1061
14851SOL    HW251604  10.771   4.326  11.092  0.0822  0.0615  0.0056
14852SOL     OW51605   9.507  12.447   7.846 -0.2489 -0.3921  0.5884
14852SOL    HW151606   9.418  12.482   7.853 -0.8097 -1.9262  2.1121
14852SOL    HW251607   9.561  12.522   7.821 -2.0504  0.4221 -1.1335
14853SOL     OW51608   5.674  10.333   8.121  0.6912  0.1358  0.0019
14853SOL    HW151609   5.765  10.317   8.094  0.3454  0.8047 -1.7167
14853SOL    HW251610   5.681  10.389   8.198  1.7482  1.0264 -0.7171
14854SOL     OW51611   5.029  10.317  11.798  0.1397 -0.5406  0.2199
14854SOL    HW151612   4.944  10.302  11.838 -0.1494 -0.8086 -0.4744
14854SOL    HW251613   5.093  10.283  11.861 -0.2289  0.1550  0.9879
14855SOL     OW51614   7.026   2.046   6.194 -0.1687  0.1223 -0.3268
14855SOL    HW151615   6.961   2.062   6.126  1.5859  0.0902 -2.0933
14855SOL    HW251616   7.061   1.959   6.173  2.7390  1.4661 -1.4888
14856SOL     OW51617   1.516   4.685   0.472  0.3158 -0.4867 -0.1363
14856SOL    HW151618   1.470   4.629   0.409  1.0949 -1.5760  0.2300
14856SOL    HW251619   1.447   4.736   0.514 -0.0637  2.7377 -4.0796
14857SOL     OW51620   0.383   8.194  10.596  0.0253 -0.4380 -0.9834
14857SOL    HW151621   0.418   8.282  10.608 -0.7937 -0.1888 -0.2944
14857SOL    HW251622   0.290   8.207  10.580 -0.4222 -1.2359  0.7351
14858SOL     OW51623   4.663   2.345   9.643  0.6263  0.1073 -0.0556
14858SOL    HW151624   4.573   2.371   9.621  0.2600  0.0369  1.2513
14858SOL    HW251625   4.656   2.253   9.668  0.7832  0.4801  1.4539
14859SOL     OW51626   3.844   0.397  10.554  0.0422  0.6311  0.5779
14859SOL    HW151627   3.764   0.358  10.588  0.1251  0.4827  0.6047
14859SOL    HW251628   3.826   0.491  10.550 -0.1434  0.5948  0.5547
14860SOL     OW51629   7.846   2.394   7.244  0.4259 -0.4611  0.6458
14860SOL    HW151630   7.821   2.390   7.336  2.0321  2.3419  1.3059
14860SOL    HW251631   7.940   2.412   7.245  0.3879  0.1535 -1.5382
14861SOL     OW51632   7.493   1.851   3.169  0.2329  0.1570 -1.0047
14861SOL    HW151633   7.437   1.896   3.232  1.2465  1.6958 -1.1604
14861SOL    HW251634   7.469   1.758   3.178 -0.1796  0.4252  1.0822
14862SOL     OW51635  10.947   1.842   2.756 -0.6636 -0.9397  0.1764
14862SOL    HW151636  10.983   1.788   2.685  1.5136 -1.4109  1.5399
14862SOL    HW251637  10.906   1.780   2.815 -0.1783 -0.8629  0.6031
14863SOL     OW51638   8.308   3.723   0.096  0.3696 -0.0449 -0.1237
14863SOL    HW151639   8.403   3.729   0.088  0.4292  1.0033  1.0701
14863SOL    HW251640   8.276   3.722   0.006  1.4819  0.0386 -0.5335
14864SOL     OW51641   3.290   9.579  10.497 -0.1917  0.1207  0.1938
14864SOL    HW151642   3.359   9.600  10.434  1.2725  1.6728  2.2092
14864SOL    HW251643   3.256   9.494  10.468  2.3753 -0.5836 -1.0275
14865SOL     OW51644  11.173  10.957  12.565 -0.4737  0.4399  0.4459
14865SOL    HW151645  11.227  10.955  12.487  0.7803 -0.2193  1.2992
14865SOL    HW251646  11.187  10.872  12.606 -0.2207  1.1749  1.9619
14866SOL     OW51647   2.795  10.966   5.830  0.6630 -0.6748 -0.5602
14866SOL    HW151648   2.787  10.999   5.920 -2.3306 -0.2231 -0.8890
14866SOL    HW251649   2.751  11.032   5.776 -1.3025 -2.8547 -1.8198
14867SOL     OW51650   3.259   9.865   6.358  0.3611  0.3088 -0.9847
14867SOL    HW151651   3.255   9.867   6.262  1.7187  1.9675 -1.0696
14867SOL    HW251652   3.171   9.888   6.386 -0.2212 -0.8295 -1.8087
14868SOL     OW51653   0.485   7.820   6.712 -0.6902 -0.1257 -0.3006
14868SOL    HW151654   0.497   7.855   6.801 -1.0731  1.7218 -0.9289
14868SOL    HW251655   0.566   7.774   6.693 -0.7469 -0.8911  1.1372
14869SOL     OW51656  10.613   5.902   0.057  0.2741 -0.3052  0.1671
14869SOL    HW151657  10.694   5.938   0.019 -0.5295  0.1797 -1.1783
14869SOL    HW251658  10.566   5.979   0.090  0.3490 -0.5855  0.9531
14870SOL     OW51659   4.466   3.648  11.002  0.3374  0.5843  0.3504
14870SOL    HW151660   4.561   3.660  10.997  0.2335  1.0064 -1.1375
14870SOL    HW251661   4.432   3.735  11.023  0.2946  0.3366  1.3482
14871SOL     OW51662   1.727   3.919   5.234  0.0232  0.4498  0.2302
14871SOL    HW151663   1.689   3.998   5.195 -1.4290 -0.2404  0.2020
14871SOL    HW251664   1.670   3.848   5.206  0.5369 -0.4407  1.3613
14872SOL     OW51665  12.506   4.515   0.495  0.3452 -0.5158 -0.0095
14872SOL    HW151666  12.497   4.434   0.444 -0.2266 -1.1086  1.0127
14872SOL    HW251667  12.432   4.569   0.466  1.1783  0.0018 -1.2822
14873SOL     OW51668   9.065   9.341  10.263 -0.1447 -0.2572  0.4160
14873SOL    HW151669   9.120   9.370  10.337  1.3379  1.7832 -1.3611
14873SOL    HW251670   8.990   9.399  10.265 -0.0844 -0.1759  0.2905
14874SOL     OW51671   6.121   8.147   6.349  0.7312 -0.6117  0.1832
14874SOL    HW151672   6.117   8.063   6.303  0.2734  0.9720 -2.9071
14874SOL    HW251673   6.049   8.143   6.412 -0.8149 -1.6771 -1.5474
14875SOL     OW51674  11.611   0.735   1.866 -0.1067  0.5627  0.8635
14875SOL    HW151675  11.579   0.706   1.951 -0.0815 -0.2467  0.5986
14875SOL    HW251676  11.594   0.662   1.807  1.4960  0.4148  0.5446
14876SOL     OW51677  10.532   6.674   2.884  0.2419 -0.0502  0.7432
14876SOL    HW151678  10.467   6.718   2.829  0.7384 -1.3930 -1.0139
14876SOL    HW251679  10.592   6.633   2.822  2.6164  0.8236  2.2884
14877SOL     OW51680  11.761  12.051   3.334  0.3662 -0.2973  0.5683
14877SOL    HW151681  11.667  12.064   3.341  0.2329  0.5815 -1.9474
14877SOL    HW251682  11.776  11.962   3.364 -1.5009 -1.0261 -0.5301
14878SOL     OW51683   5.991   1.187   6.142 -0.3338  0.2549  0.1894
14878SOL    HW151684   6.006   1.158   6.052  0.3779  0.6437  0.1786
14878SOL    HW251685   6.066   1.154   6.191  0.4101  1.8567  0.2176
14879SOL     OW51686   0.858   5.881   6.353  0.5156 -0.3977 -0.8300
14879SOL    HW151687   0.858   5.794   6.314 -1.5949 -1.2417  0.8230
14879SOL    HW251688   0.889   5.868   6.443 -0.3083  0.4268 -0.3950
14880SOL     OW51689   8.125   9.304   6.502 -0.0782  0.2438  0.4264
14880SOL    HW151690   8.110   9.254   6.582  0.5238  0.3211  0.5965
14880SOL    HW251691   8.110   9.395   6.527 -0.0061  0.2576  0.4198
14881SOL     OW51692   6.493   2.191  11.340  0.7182 -0.1942  0.2808
14881SOL    HW151693   6.555   2.227  11.404  1.2607  1.7939 -1.2509
14881SOL    HW251694   6.407   2.216  11.375  0.9430 -0.0363  0.7390
14882SOL     OW51695   4.249   0.450   1.639 -0.3604 -0.0981  0.1531
14882SOL    HW151696   4.337   0.460   1.603 -0.8104  1.7732 -0.5638
14882SOL    HW251697   4.193   0.440   1.562 -0.9410  0.2189  0.5291
14883SOL     OW51698   0.102   6.073   0.350  0.0887  0.3483  0.4567
14883SOL    HW151699   0.121   6.080   0.444  2.2084  3.0368 -0.0290
14883SOL    HW251700   0.095   6.164   0.320 -1.6163 -0.4419 -1.8436
14884SOL     OW51701   1.966   3.348  11.792 -0.6957 -0.1870 -0.4085
14884SOL    HW151702   1.980   3.328  11.699 -1.8250 -2.1668 -0.2266
14884SOL    HW251703   1.935   3.438  11.793 -0.9151 -0.2048 -1.9954
14885SOL     OW51704   3.839   5.914   5.595 -0.4043  0.3630  0.0616
14885SOL    HW151705   3.748   5.920   5.568  0.1538  1.2586 -1.7809
14885SOL    HW251706   3.850   5.984   5.660 -0.6633  1.3607 -0.9312
14886SOL     OW51707   2.153  10.769  10.823 -0.0274  0.1166  0.3145
14886SOL    HW151708   2.244  10.777  10.796  0.3515  0.0556  1.5079
14886SOL    HW251709   2.128  10.858  10.851  0.3389 -0.2613  1.9495
14887SOL     OW51710  10.023   4.976   3.828 -0.5110  0.4150 -0.3066
14887SOL    HW151711   9.982   5.057   3.858 -0.7562  0.7518 -1.5060
14887SOL    HW251712  10.027   4.921   3.906 -1.8099  0.9692  0.1752
14888SOL     OW51713   7.272   7.764   8.087  0.9824  0.4520 -0.1594
14888SOL    HW151714   7.279   7.673   8.058 -0.7729  0.0667  0.4637
14888SOL    HW251715   7.331   7.812   8.030 -0.3312 -0.6322 -2.6098
14889SOL     OW51716  10.095  11.723   7.462  0.0140  0.0195  0.0608
14889SOL    HW151717  10.178  11.732   7.508  0.3754  0.3498 -0.6513
14889SOL    HW251718  10.037  11.682   7.527  0.2125  1.4112  1.1581
14890SOL     OW51719  11.027   8.919   0.296 -0.0990  0.2262 -0.3442
14890SOL    HW151720  11.087   8.868   0.351 -0.3840  0.9682  0.6931
14890SOL    HW251721  11.064   8.914   0.208  1.1644  0.1958  0.1779
14891SOL     OW51722   8.064   6.653  12.113  0.2561 -0.0079  0.2131
14891SOL    HW151723   8.075   6.632  12.020  0.6803 -0.8311  0.4361
14891SOL    HW251724   8.147   6.626  12.153 -0.0161  0.1096  0.8653
14892SOL     OW51725   1.717   4.458   6.943  0.1448 -0.3176  0.2758
14892SOL    HW151726   1.629   4.495   6.947 -0.3406 -1.3442 -0.5798
14892SOL    HW251727   1.711   4.387   6.880  1.6327 -0.3027  0.0766
14893SOL     OW51728  11.403   3.726   0.007  0.0930  0.5044 -0.7080
14893SOL    HW151729  11.462   3.666   0.054  2.0403  2.6390 -0.2627
14893SOL    HW251730  11.328   3.736   0.066  1.0939  0.7616  0.5638
14894SOL     OW51731  11.132   9.445   5.175 -0.5486 -0.0243 -0.3395
14894SOL    HW151732  11.170   9.528   5.148  0.4845 -0.5272 -0.4720
14894SOL    HW251733  11.068   9.469   5.243  0.0015  0.8399 -0.1103
14895SOL     OW51734   7.962  12.338   6.251 -0.5794 -0.0317  0.5424
14895SOL    HW151735   7.870  12.329   6.275 -0.7337 -0.9456 -0.3041
14895SOL    HW251736   8.010  12.328   6.333 -1.1858 -0.9055  0.8124
14896SOL     OW51737  12.352  11.556   7.890  0.0730  0.3595  0.0183
14896SOL    HW151738  12.267  11.597   7.873 -0.3695 -1.1080 -1.5796
14896SOL    HW251739  12.404  11.576   7.812  0.4233 -0.6070 -0.0094
14897SOL     OW51740   9.309  11.024  10.800 -0.1830  0.1219 -0.0382
14897SOL    HW151741   9.216  11.047  10.799 -0.5541 -1.2382  0.0961
14897SOL    HW251742   9.334  11.022  10.708 -0.7315 -1.0215 -0.1939
14898SOL     OW51743   6.595   2.074   7.813  0.5567 -0.3826 -0.1149
14898SOL    HW151744   6.563   2.008   7.752 -1.2441  0.3432 -0.0163
14898SOL    HW251745   6.664   2.029   7.863  1.3268 -1.3073 -1.9103
14899SOL     OW51746   8.972   4.487   6.537 -0.1104  0.4289 -0.7366
14899SOL    HW151747   9.025   4.504   6.459 -1.9745 -0.1020 -2.1846
14899SOL    HW251748   8.934   4.400   6.523  0.3685 -0.1828  1.3088
14900SOL     OW51749   5.188  10.795   9.048 -0.2846  0.6047  0.5236
14900SOL    HW151750   5.259  10.858   9.058  0.2040  0.4386 -1.5866
14900SOL    HW251751   5.227  10.710   9.070  0.8064  0.2245 -2.5205
14901SOL     OW51752   7.981   2.667   9.218 -0.3214 -0.4238  0.4838
14901SOL    HW151753   7.955   2.752   9.183 -0.3255 -0.6085  0.0264
14901SOL    HW251754   8.073   2.658   9.193 -0.2008 -0.3694  0.9022
14902SOL     OW51755   7.110   3.050   5.969 -0.0436  0.1956 -0.1518
14902SOL    HW151756   7.015   3.060   5.964 -0.4656 -2.0223  1.9203
14902SOL    HW251757   7.126   2.961   5.938  0.9735 -0.5103  2.1759
14903SOL     OW51758   6.737   5.862   4.596  0.1031  0.5482 -0.0778
14903SOL    HW151759   6.681   5.885   4.671 -1.4076 -1.9156 -0.3432
14903SOL    HW251760   6.683   5.877   4.519  0.8943  1.0165 -0.5587
14904SOL     OW51761   5.854  11.169   6.009  0.2273  0.0784 -0.2830
14904SOL    HW151762   5.923  11.120   5.965 -1.1154 -1.9627 -0.2635
14904SOL    HW251763   5.835  11.242   5.951  0.6789 -0.7437 -1.4973
14905SOL     OW51764   4.814   5.086   3.640 -0.3441 -0.3196  0.1544
14905SOL    HW151765   4.873   5.011   3.635  1.0473  0.7701 -0.6168
14905SOL    HW251766   4.749   5.070   3.571 -1.3557 -1.8090  1.3858
14906SOL     OW51767   0.664   3.495   9.429 -0.6345 -0.1694 -0.0173
14906SOL    HW151768   0.588   3.452   9.389  1.0693 -1.5518 -1.9423
14906SOL    HW251769   0.683   3.568   9.371  0.0124 -0.3319 -0.0091
14907SOL     OW51770   0.401   8.563  11.567 -0.4205  0.0856  0.2012
14907SOL    HW151771   0.339   8.490  11.561 -1.9896  1.3956 -0.3817
14907SOL    HW251772   0.363   8.621  11.632  0.2981  0.8446 -0.0419
14908SOL     OW51773   6.179   9.882   6.121  0.4289  0.0076 -0.3667
14908SOL    HW151774   6.146   9.868   6.032 -0.4903 -3.9491  0.4105
14908SOL    HW251775   6.101   9.903   6.171  0.4108 -0.8709 -0.0066
14909SOL     OW51776   9.423   9.667   3.505  0.4551  0.0006 -0.1366
14909SOL    HW151777   9.413   9.762   3.501 -1.6930 -0.2010 -0.6999
14909SOL    HW251778   9.390   9.643   3.591 -0.8150 -0.3817 -0.7058
14910SOL     OW51779  10.325   6.492   0.053  0.2346 -0.5653 -0.3244
14910SOL    HW151780  10.416   6.500   0.025  0.1469 -1.8255 -1.0508
14910SOL    HW251781  10.330   6.444   0.136  0.2181 -1.0879 -0.6190
14911SOL     OW51782   3.096  12.317   9.775  0.5361  0.1501 -0.1861
14911SOL    HW151783   3.025  12.379   9.761  0.3862 -0.2900 -1.4672
14911SOL    HW251784   3.067  12.264   9.849 -0.5530 -0.1301 -0.7960
14912SOL     OW51785   4.029   6.415  11.564  0.7258  0.1792  0.6490
14912SOL    HW151786   4.038   6.474  11.489  1.5742 -0.7631 -0.0151
14912SOL    HW251787   3.977   6.342  11.530  1.0262 -0.2099  1.0215
14913SOL     OW51788   6.334   1.635   2.024  0.8465 -0.6910 -0.4557
14913SOL    HW151789   6.337   1.638   2.119  0.2606 -2.4319 -0.3480
14913SOL    HW251790   6.407   1.691   1.996 -0.1788  1.4704  0.9335
14914SOL     OW51791   0.828   6.790   3.158  0.4025 -0.2300 -0.0196
14914SOL    HW151792   0.810   6.863   3.098  1.6209  0.2252  0.1481
14914SOL    HW251793   0.786   6.715   3.116  1.8896 -0.1037 -1.9099
14915SOL     OW51794   1.898   3.721   2.389 -0.2227 -0.0505  0.0432
14915SOL    HW151795   1.914   3.724   2.294 -1.2833  0.0832 -0.1458
14915SOL    HW251796   1.982   3.746   2.428 -0.3910  2.3696 -0.9225
14916SOL     OW51797   4.283   4.683  10.443  0.7740 -0.1785  0.0392
14916SOL    HW151798   4.291   4.757  10.504 -1.6215 -1.0167  1.5042
14916SOL    HW251799   4.228   4.716  10.373 -2.9482 -1.2531  2.2028
14917SOL     OW51800   7.502   1.430   7.603  0.2538  0.7097 -0.3402
14917SOL    HW151801   7.450   1.462   7.529  0.3189  1.0205 -0.2511
14917SOL    HW251802   7.533   1.509   7.647  2.4245  0.5837 -1.5104
14918SOL     OW51803   0.629   0.363   9.602  0.7112  0.2514  0.2446
14918SOL    HW151804   0.671   0.359   9.688 -1.0926 -0.2449  1.1436
14918SOL    HW251805   0.555   0.303   9.608  0.5534  0.1923 -1.6771
14919SOL     OW51806   9.529   6.613   5.751  0.4959  0.2816  0.1197
14919SOL    HW151807   9.464   6.584   5.687 -0.1817  0.2460  0.8053
14919SOL    HW251808   9.612   6.609   5.705  0.1895 -1.0240 -0.3533
14920SOL     OW51809  11.097   6.589   2.373 -0.2590 -0.4630  0.5149
14920SOL    HW151810  11.028   6.625   2.318  1.1769 -0.6164 -1.4830
14920SOL    HW251811  11.159   6.661   2.385 -0.0592 -0.7205  1.0934
14921SOL     OW51812   1.535   0.240   7.697  0.2497 -0.0379  0.2314
14921SOL    HW151813   1.552   0.251   7.791  1.9701 -0.5509  0.0114
14921SOL    HW251814   1.536   0.145   7.684 -1.1949 -0.0267 -0.1263
14922SOL     OW51815   5.258   9.031   2.583 -0.6480 -0.1353  0.3489
14922SOL    HW151816   5.222   9.110   2.625  0.5071  0.5048  0.1698
14922SOL    HW251817   5.182   8.989   2.544 -1.0925  1.7338 -0.9438
14923SOL     OW51818   9.093   5.651   8.236  0.3611 -0.4443 -0.2430
14923SOL    HW151819   9.003   5.679   8.250 -0.1922 -1.1691 -2.0250
14923SOL    HW251820   9.116   5.685   8.150  3.0265  2.6170  1.4624
14924SOL     OW51821  11.582   9.924   9.506  0.2557 -0.2290  0.2593
14924SOL    HW151822  11.562   9.861   9.575  0.0095 -1.2651 -0.7302
14924SOL    HW251823  11.677   9.918   9.495  0.4718  0.8130  1.2973
14925SOL     OW51824   3.542   3.843   6.447 -0.0265 -0.2949 -0.2450
14925SOL    HW151825   3.493   3.907   6.395  1.2272  0.6010 -0.3727
14925SOL    HW251826   3.535   3.761   6.398 -0.0306  0.2090 -1.0979
14926SOL     OW51827   2.466  11.978   6.044 -0.1264  0.1633  0.4463
14926SOL    HW151828   2.517  11.907   6.084  1.7009  2.2677  2.1402
14926SOL    HW251829   2.526  12.020   5.983 -1.3519 -0.0091 -0.9307
14927SOL     OW51830   5.799   6.365   4.172  0.3944 -0.3856 -0.3588
14927SOL    HW151831   5.877   6.411   4.202  0.1739 -0.7400  0.8554
14927SOL    HW251832   5.822   6.329   4.087  1.3865 -0.0838 -0.2262
14928SOL     OW51833   1.635   0.107   2.143 -0.2317  0.0378 -0.4376
14928SOL    HW151834   1.606   0.135   2.056 -0.0199  0.1415 -0.4757
14928SOL    HW251835   1.729   0.123   2.143 -0.1774 -0.2836 -0.3079
14929SOL     OW51836  12.199   9.718   4.884 -0.0484  0.0113 -0.4475
14929SOL    HW151837  12.198   9.793   4.944 -0.6540  0.2861 -0.7865
14929SOL    HW251838  12.221   9.644   4.940 -1.8180  0.0617  0.3972
14930SOL     OW51839   6.248   4.725   7.361 -0.1182  0.5604 -0.3869
14930SOL    HW151840   6.217   4.747   7.274 -2.8221 -0.3828  0.2410
14930SOL    HW251841   6.315   4.791   7.381 -0.5176  1.6853 -2.5487
14931SOL     OW51842   7.718   8.894   6.157 -0.4105  0.5550 -0.5744
14931SOL    HW151843   7.743   8.812   6.199  2.9830  1.5504 -0.3423
14931SOL    HW251844   7.693   8.869   6.068 -0.0819 -0.7908 -0.3025
14932SOL     OW51845   7.136  10.067   7.318  0.2542 -0.2807  0.7202
14932SOL    HW151846   7.142  10.004   7.246 -0.4123  0.3816  0.0699
14932SOL    HW251847   7.217  10.116   7.313  0.2555 -0.3045  0.4850
14933SOL     OW51848   0.746   4.346   5.217  0.1370 -0.0462  0.2726
14933SOL    HW151849   0.736   4.434   5.255  0.0982 -0.4523  1.2284
14933SOL    HW251850   0.732   4.287   5.291  2.6232 -0.8185  0.2287
14934SOL     OW51851   3.324   2.194   5.274  0.2381  0.0633 -0.3652
14934SOL    HW151852   3.312   2.158   5.187 -0.1014 -1.8611  0.4161
14934SOL    HW251853   3.402   2.150   5.308 -1.1172 -1.2707  1.2326
14935SOL     OW51854  11.178   3.800   9.597 -0.0987  0.0747 -1.1348
14935SOL    HW151855  11.246   3.815   9.531 -1.7676  1.0047 -2.7067
14935SOL    HW251856  11.144   3.887   9.617 -0.0192 -0.2534  0.5857
14936SOL     OW51857   8.603   6.386   4.511  0.4005 -0.2027  0.2819
14936SOL    HW151858   8.552   6.466   4.496 -0.3849 -0.9767 -1.3210
14936SOL    HW251859   8.622   6.389   4.605 -0.2356  1.4950  0.4093
14937SOL     OW51860   3.902  12.169   7.494  0.1466  0.3138 -0.0793
14937SOL    HW151861   3.823  12.208   7.456 -0.1981 -0.1714  0.1145
14937SOL    HW251862   3.973  12.226   7.467 -0.3806  1.2421  0.4460
14938SOL     OW51863   2.008   0.136   6.739 -0.1973  0.2404  0.3102
14938SOL    HW151864   2.095   0.168   6.763 -1.0209  2.0958  1.0456
14938SOL    HW251865   1.981   0.192   6.666 -1.8221  1.6108  1.8562
14939SOL     OW51866   0.971   0.573   3.211  0.3630 -0.2441 -0.4006
14939SOL    HW151867   0.935   0.513   3.276  0.7077 -0.8595 -0.7692
14939SOL    HW251868   0.905   0.577   3.142  0.1218  0.1916 -0.1515
14940SOL     OW51869   7.330   9.662  10.924 -0.3096  0.3505 -0.4560
14940SOL    HW151870   7.343   9.572  10.894 -1.4343 -0.0861  0.3103
14940SOL    HW251871   7.409   9.682  10.976  0.4079  0.1794 -1.4464
14941SOL     OW51872   0.554   0.615   8.692 -0.1042 -0.1059  0.1271
14941SOL    HW151873   0.486   0.600   8.757 -0.4034  0.9024  0.0636
14941SOL    HW251874   0.568   0.709   8.694  0.0912 -0.0994 -1.0625
14942SOL     OW51875   7.006  12.573   0.562  0.0660 -0.1450 -0.1026
14942SOL    HW151876   7.039  12.526   0.639  1.7786 -0.3717 -0.9122
14942SOL    HW251877   7.048  12.659   0.566  0.5430 -0.3201 -1.0000
14943SOL     OW51878   6.200  12.213   6.321  0.7782 -0.3479 -0.4568
14943SOL    HW151879   6.112  12.183   6.344  0.2849 -0.6724 -2.5125
14943SOL    HW251880   6.192  12.308   6.315  0.9282 -0.2559  0.6899
14944SOL     OW51881   2.467  11.456   3.578 -0.5016  0.6928 -0.3155
14944SOL    HW151882   2.394  11.438   3.637 -1.7162  0.5657 -1.7874
14944SOL    HW251883   2.542  11.469   3.635 -1.8964  1.9414  1.3055
14945SOL     OW51884   9.680   9.069   2.829  0.0731 -0.1691  0.0159
14945SOL    HW151885   9.683   9.097   2.738 -0.8444 -1.8108 -0.5620
14945SOL    HW251886   9.637   9.141   2.875 -0.6246  0.1320 -1.0844
14946SOL     OW51887   0.158  11.796   3.274  0.1506 -0.1449 -0.2957
14946SOL    HW151888   0.227  11.854   3.308 -0.3806 -0.1422  0.8160
14946SOL    HW251889   0.080  11.851   3.276 -0.4205 -0.9566  1.0448
14947SOL     OW51890   5.785   5.636  10.391 -0.0835  0.5011 -0.7116
14947SOL    HW151891   5.831   5.582  10.326  1.2358  3.2162 -2.1722
14947SOL    HW251892   5.723   5.575  10.431  1.0977 -2.0391 -2.4038
14948SOL     OW51893  12.134   9.494   3.410 -0.0406  0.2355  0.0141
14948SOL    HW151894  12.058   9.509   3.466  0.5498  3.2887  0.1944
14948SOL    HW251895  12.200   9.555   3.444  1.7121 -0.7375 -1.5129
14949SOL     OW51896   4.248   1.108   5.893 -0.1676 -0.3244 -0.4653
14949SOL    HW151897   4.153   1.095   5.896 -0.4216  1.3129  1.7508
14949SOL    HW251898   4.285   1.021   5.906 -1.4511 -0.6928  1.1305
14950SOL     OW51899   7.520   4.733   3.857 -0.3665 -0.3284 -0.3538
14950SOL    HW151900   7.467   4.682   3.795  1.3842 -0.7545 -1.5793
14950SOL    HW251901   7.529   4.675   3.933  1.7325 -2.0808 -1.7855
14951SOL     OW51902   2.141  11.130   1.476 -0.1535  0.1652 -0.1366
14951SOL    HW151903   2.109  11.191   1.543 -3.1559 -0.1438 -1.1021
14951SOL    HW251904   2.159  11.185   1.400  0.7107  0.2292  0.1096
14952SOL     OW51905   1.348   5.751   8.207 -0.2170 -0.0510 -0.1946
14952SOL    HW151906   1.377   5.813   8.274 -0.0515  0.5764 -0.8404
14952SOL    HW251907   1.419   5.686   8.203 -0.5483 -0.4796  0.7186
14953SOL     OW51908   4.641   4.131   2.561  0.1011  0.2098 -0.0106
14953SOL    HW151909   4.620   4.110   2.469  0.1628  1.0048 -0.2113
14953SOL    HW251910   4.661   4.224   2.560  0.6337  0.1075  0.7260
14954SOL     OW51911   9.037   2.234   0.206  0.0958  1.1021  1.0532
14954SOL    HW151912   8.977   2.164   0.233 -0.0339  0.6348 -0.3931
14954SOL    HW251913   9.074   2.203   0.123  2.0165  1.5646  1.6810
14955SOL     OW51914  12.124   6.038   8.559  0.1661 -0.0366  0.5165
14955SOL    HW151915  12.051   6.020   8.619 -0.6300  1.1572 -0.0410
14955SOL    HW251916  12.120   6.133   8.545  0.8776 -0.1646 -0.7245
14956SOL     OW51917   3.636   0.952   7.922  0.9293  0.9613 -0.1321
14956SOL    HW151918   3.675   1.039   7.918  1.5871  0.6518 -0.5308
14956SOL    HW251919   3.701   0.899   7.967 -0.2387  1.0753  1.8156
14957SOL     OW51920   3.411   2.121   9.464 -0.2436 -0.6836  0.4324
14957SOL    HW151921   3.381   2.041   9.420 -0.3512 -0.3765 -0.0559
14957SOL    HW251922   3.330   2.164   9.492 -0.3268  0.3912 -1.3114
14958SOL     OW51923  11.830   0.157   6.892  0.2674 -0.2051 -0.4536
14958SOL    HW151924  11.867   0.073   6.920  0.1078  0.3225  1.4333
14958SOL    HW251925  11.744   0.160   6.932  0.1513  0.7511 -0.7462
14959SOL     OW51926   1.297   1.969   2.152  0.7685 -0.5087  0.0817
14959SOL    HW151927   1.299   2.032   2.224 -1.5671  1.2767 -1.2719
14959SOL    HW251928   1.340   1.891   2.187 -0.3408  0.2221  3.4464
14960SOL     OW51929   3.287   3.018   8.787  0.2434  1.0659  0.4500
14960SOL    HW151930   3.358   3.008   8.724  1.0132  0.5493  1.3595
14960SOL    HW251931   3.279   2.932   8.828 -0.6065  1.2418  0.6828
14961SOL     OW51932  10.779   1.170   0.997 -0.4094 -0.1418 -0.1783
14961SOL    HW151933  10.702   1.216   0.964 -0.0397  0.5730 -0.0714
14961SOL    HW251934  10.807   1.223   1.072  0.0244 -0.5479 -0.0552
14962SOL     OW51935  11.221   5.062   6.170 -0.1673  0.9215 -0.2619
14962SOL    HW151936  11.186   5.029   6.087  0.9580 -1.0345 -0.0353
14962SOL    HW251937  11.172   5.013   6.237  1.9365 -0.8977  0.0746
14963SOL     OW51938   9.045   1.276  10.228 -0.1880 -0.2025 -0.0078
14963SOL    HW151939   9.020   1.292  10.319  0.2558  0.7088 -0.0329
14963SOL    HW251940   9.106   1.202  10.233  1.5857  1.2379  0.7286
14964SOL     OW51941   2.715   6.814   1.995 -0.4453  0.6089 -0.2701
14964SOL    HW151942   2.764   6.812   1.913  0.2735  0.6987  0.1532
14964SOL    HW251943   2.689   6.906   2.005 -0.5647  0.5909 -0.4168
14965SOL     OW51944   5.297   6.825  12.430  0.3519 -0.0171  0.1746
14965SOL    HW151945   5.238   6.856  12.499  0.7489 -0.3879  0.6921
14965SOL    HW251946   5.311   6.732  12.451  1.6853  0.2281  0.4867
14966SOL     OW51947  10.048   9.730   2.075 -0.0772  0.1809 -0.2737
14966SOL    HW151948   9.984   9.782   2.025  0.1505  0.8248  0.0861
14966SOL    HW251949  10.016   9.640   2.070 -0.5451  0.3733 -0.8170
14967SOL     OW51950   5.826  12.438   1.391  0.8277  0.0492 -0.0478
14967SOL    HW151951   5.838  12.466   1.482  0.2556  1.5126 -0.3927
14967SOL    HW251952   5.902  12.383   1.372  1.7162  0.9235  0.8734
14968SOL     OW51953   6.324   6.381   2.654 -0.0346 -0.1893 -0.4399
14968SOL    HW151954   6.336   6.301   2.604 -0.6222  0.1348 -1.1187
14968SOL    HW251955   6.379   6.370   2.731 -1.0666 -1.7843  0.1273
14969SOL     OW51956   1.748   6.179   3.659 -0.0082  0.5196 -0.7232
14969SOL    HW151957   1.686   6.252   3.652  0.2396  0.9011  0.7517
14969SOL    HW251958   1.832   6.216   3.633  0.2778  1.0212  0.8163
14970SOL     OW51959   9.105   3.884   4.659  0.0083 -0.1368  0.0972
14970SOL    HW151960   9.063   3.820   4.602  1.8098 -1.1218 -0.2214
14970SOL    HW251961   9.061   3.874   4.744 -1.0966 -0.3242 -0.4822
14971SOL     OW51962  12.366   0.122   4.152  0.1344 -0.3524 -0.2632
14971SOL    HW151963  12.272   0.126   4.170  0.0411 -1.1840 -0.5333
14971SOL    HW251964  12.385   0.029   4.142  0.7452 -0.1141 -1.4882
14972SOL     OW51965   0.320   8.830   3.844  0.0627 -0.8597  0.3218
14972SOL    HW151966   0.291   8.823   3.935 -1.8328  1.5361  0.0060
14972SOL    HW251967   0.400   8.883   3.849 -1.5680  1.7674  0.4984
14973SOL     OW51968   8.089   8.901  12.342 -0.1757 -0.0998 -0.3319
14973SOL    HW151969   8.072   8.808  12.358 -0.8515  0.0834  0.0756
14973SOL    HW251970   8.027   8.947  12.400 -0.6471  0.6024 -1.3628
14974SOL     OW51971  12.180   9.339  12.552 -0.8030 -0.1451 -0.0346
14974SOL    HW151972  12.201   9.408  12.490 -3.2303 -0.2792 -1.1265
14974SOL    HW251973  12.255   9.335  12.611  0.5053  1.6485 -1.4957
14975SOL     OW51974   1.210   7.320   7.882 -0.1394 -0.6489  0.5120
14975SOL    HW151975   1.164   7.397   7.850 -0.2396 -0.8204  0.2439
14975SOL    HW251976   1.190   7.251   7.819  0.1766 -0.8236  0.5974
14976SOL     OW51977   8.664  11.152   6.804  0.3666  0.5202 -0.1742
14976SOL    HW151978   8.692  11.178   6.892 -0.5746 -1.4032  0.7624
14976SOL    HW251979   8.728  11.086   6.777 -0.2870 -0.1200 -0.1973
14977SOL     OW51980  10.482   1.591   2.955  0.0969  0.0508 -0.0805
14977SOL    HW151981  10.507   1.536   2.880 -1.4455 -0.2488 -0.4147
14977SOL    HW251982  10.464   1.528   3.026  1.2151  0.3127  0.4466
14978SOL     OW51983   3.354   1.393   2.236  0.2868 -0.1847  0.0856
14978SOL    HW151984   3.367   1.446   2.314  0.5820 -1.8973  1.2608
14978SOL    HW251985   3.431   1.337   2.231  0.7983  0.6065 -2.0768
14979SOL     OW51986   4.398   4.060   1.207  0.0678 -0.0610 -0.7829
14979SOL    HW151987   4.475   4.020   1.247 -2.1075 -1.5267  2.2995
14979SOL    HW251988   4.384   4.140   1.257  0.2889  0.9276 -2.2361
14980SOL     OW51989   3.321   1.258   7.857 -0.5415 -0.2657 -0.6361
14980SOL    HW151990   3.389   1.208   7.813 -1.9621 -2.1451 -0.8089
14980SOL    HW251991   3.316   1.219   7.945  0.3241  1.5569  0.2666
14981SOL     OW51992   7.997  11.689   9.138  0.1430 -0.4247 -0.6227
14981SOL    HW151993   7.915  11.682   9.089 -0.1049 -1.7245 -0.0703
14981SOL    HW251994   7.970  11.689   9.230  0.6992  0.3268 -0.4497
14982SOL     OW51995  10.829   5.371   5.896  0.1595  0.3551  0.4802
14982SOL    HW151996  10.898   5.349   5.958 -1.0339  0.7887  2.0427
14982SOL    HW251997  10.750   5.330   5.932 -0.9153  2.0929  0.2158
14983SOL     OW51998  10.189  10.326   1.028 -0.2454 -0.2297  0.2393
14983SOL    HW151999  10.226  10.255   1.082 -1.0336 -1.7296 -1.1214
14983SOL    HW252000  10.114  10.357   1.078  0.4541  0.0855  1.1308
14984SOL     OW52001   6.464  11.391   6.950 -0.0171 -0.5231  0.0438
14984SOL    HW152002   6.442  11.405   7.043  0.4614  0.3945  0.0304
14984SOL    HW252003   6.468  11.479   6.913 -2.5496 -0.9273 -1.4301
14985SOL     OW52004   9.220   6.652   4.883  0.0569  0.3923 -0.4755
14985SOL    HW152005   9.306   6.669   4.843 -0.4813 -0.6555 -2.1509
14985SOL    HW252006   9.159   6.706   4.832 -0.3407  0.8672  0.4875
14986SOL     OW52007   1.120   1.148   0.502  0.6077  0.3923 -0.2096
14986SOL    HW152008   1.119   1.199   0.584  1.5723 -0.5207  0.3897
14986SOL    HW252009   1.202   1.173   0.460  0.0005  1.0466 -1.0534
14987SOL     OW52010   4.626  10.980   0.892 -0.0066 -0.2089 -0.1196
14987SOL    HW152011   4.676  11.046   0.844 -1.1905  0.2998 -0.6853
14987SOL    HW252012   4.653  10.897   0.853  0.1450  0.0783 -0.6458
14988SOL     OW52013  10.108   6.602   2.429  0.1669 -0.7602  0.3129
14988SOL    HW152014  10.200   6.619   2.449 -0.5317  1.0193  2.4281
14988SOL    HW252015  10.091   6.517   2.471  0.3200 -0.0213  1.9503
14989SOL     OW52016   5.570   7.259   3.217  0.0480  0.3215 -0.0182
14989SOL    HW152017   5.475   7.266   3.211  0.0917  0.4046 -0.6552
14989SOL    HW252018   5.585   7.206   3.295 -0.5177  0.3839  0.1375
14990SOL     OW52019   5.099   0.888   1.224 -0.0461  0.0430 -0.1973
14990SOL    HW152020   5.084   0.966   1.170 -1.3467  0.0858  0.2016
14990SOL    HW252021   5.117   0.923   1.311 -0.8200 -0.1070  0.0237
14991SOL     OW52022   7.289   5.090   1.547  0.5979  0.4407 -0.1712
14991SOL    HW152023   7.274   5.182   1.570  1.7080  0.6534 -0.2564
14991SOL    HW252024   7.347   5.057   1.615  0.5522 -0.0813 -0.3798
14992SOL     OW52025  10.374   5.238   6.889 -0.0456 -0.4909  0.2267
14992SOL    HW152026  10.416   5.269   6.970 -1.3334  0.8469  0.4474
14992SOL    HW252027  10.335   5.317   6.852 -0.7396 -1.3519 -0.9302
14993SOL     OW52028   8.052   7.783  10.058  0.4645 -0.1336  0.0747
14993SOL    HW152029   8.042   7.784  10.153 -0.7633  1.0624 -0.0255
14993SOL    HW252030   8.132   7.834  10.042 -0.5458  1.6681  0.4190
14994SOL     OW52031   4.561  12.520   2.510 -0.2985 -0.0436 -0.4787
14994SOL    HW152032   4.638  12.466   2.525  1.0085  1.8850  0.1531
14994SOL    HW252033   4.519  12.526   2.596 -0.3207  0.1137 -0.5003
14995SOL     OW52034  11.613   9.731  11.787  0.2992 -0.4482  0.2328
14995SOL    HW152035  11.667   9.810  11.792 -2.1398  1.3905 -0.2744
14995SOL    HW252036  11.559   9.744  11.709  0.7651 -3.3313 -0.6723
14996SOL     OW52037   1.753   5.931   0.553  0.5370  0.0706 -0.0100
14996SOL    HW152038   1.799   5.992   0.611  0.4721 -0.4086  0.5652
14996SOL    HW252039   1.725   5.860   0.612 -0.3550  0.0340 -0.4657
14997SOL     OW52040   0.896   7.659   1.397  0.0754  0.3361 -0.4513
14997SOL    HW152041   0.836   7.666   1.471  1.7485 -0.3837  1.0515
14997SOL    HW252042   0.897   7.566   1.375  0.8453  0.2766 -0.2237
14998SOL     OW52043  12.499   0.694   8.064 -0.2223 -0.1249  0.4222
14998SOL    HW152044  12.480   0.772   8.012 -0.2506  0.7209  1.6490
14998SOL    HW252045  12.416   0.646   8.067 -0.1212 -0.3795 -0.5996
14999SOL     OW52046   8.346   8.254   5.394  0.6734  0.1828  0.1906
14999SOL    HW152047   8.272   8.305   5.424  1.3551  1.2059  0.1886
14999SOL    HW252048   8.399   8.316   5.344  1.0110 -0.7775 -0.6800
15000SOL     OW52049   2.400   5.404   9.773  0.2639  0.0290 -0.4717
15000SOL    HW152050   2.481   5.352   9.766 -0.2637 -0.9356  0.4204
15000SOL    HW252051   2.402   5.440   9.861 -0.0176  0.4658 -0.6425
15001SOL     OW52052   2.645   6.487   3.059 -0.3627  0.3226  0.2939
15001SOL    HW152053   2.585   6.497   3.133  1.0333 -3.3073  2.1512
15001SOL    HW252054   2.624   6.401   3.022  1.8959  0.1394 -0.7178
15002SOL     OW52055   4.723  12.012   7.125  0.1035 -0.2164  0.2621
15002SOL    HW152056   4.723  12.035   7.218  0.7703  1.1739 -0.0475
15002SOL    HW252057   4.810  11.975   7.110  0.7567  1.4015 -0.1859
15003SOL     OW52058   3.103  12.214  12.559 -0.0530 -0.1718 -0.0634
15003SOL    HW152059   3.085  12.146  12.624 -3.5516  0.7389  0.1235
15003SOL    HW252060   3.078  12.173  12.475  1.3439 -0.2675 -0.4570
15004SOL     OW52061   8.066   6.407   0.967 -0.4831  0.2524 -0.1795
15004SOL    HW152062   8.117   6.373   1.041 -0.6654 -0.5300 -0.3977
15004SOL    HW252063   8.041   6.329   0.918 -0.9550  0.7118 -0.6852
15005SOL     OW52064   6.782   0.886   7.901  0.5293  0.0645 -0.3270
15005SOL    HW152065   6.781   0.852   7.991  1.6215  1.6164  0.3241
15005SOL    HW252066   6.691   0.905   7.882  0.1816 -1.0711  0.1315
15006SOL     OW52067   7.071   8.844   3.230  0.3054 -0.4076 -0.0548
15006SOL    HW152068   7.130   8.896   3.284  1.0129 -1.3103  0.0677
15006SOL    HW252069   7.057   8.896   3.152 -0.9925  1.0744  1.1124
15007SOL     OW52070   9.939   4.412  11.845 -0.3624 -0.2115  0.3402
15007SOL    HW152071  10.022   4.375  11.874  1.0153  2.4750  0.1618
15007SOL    HW252072   9.911   4.356  11.773  2.4436 -0.0047 -1.0520
15008SOL     OW52073  11.775   2.419   1.541 -0.2263  0.1143 -0.3465
15008SOL    HW152074  11.697   2.436   1.595 -0.6195  2.5753 -1.5485
15008SOL    HW252075  11.778   2.324   1.533 -1.0108 -0.2917  2.6967
15009SOL     OW52076   6.769   4.552   3.878 -0.2056 -0.0302 -0.5727
15009SOL    HW152077   6.722   4.635   3.876 -0.8183 -0.3497  0.0982
15009SOL    HW252078   6.712   4.493   3.927 -0.1305 -1.0751 -1.7175
15010SOL     OW52079  12.157  11.842   4.546  0.5740 -0.4115  0.4395
15010SOL    HW152080  12.144  11.817   4.454  0.2074 -0.0154  0.3772
15010SOL    HW252081  12.229  11.905   4.544  1.0514 -0.9452  0.5161
15011SOL     OW52082   1.048   9.753   5.262 -0.4767  0.3014 -0.3117
15011SOL    HW152083   1.114   9.798   5.209 -0.8747  1.3568  0.0415
15011SOL    HW252084   1.092   9.733   5.344 -0.4391  0.5564 -0.2669
15012SOL     OW52085   5.950   8.146   2.110 -0.1426 -0.7559  0.9021
15012SOL    HW152086   5.903   8.103   2.039  0.6866  0.1727 -0.2475
15012SOL    HW252087   6.029   8.180   2.069  1.2267 -1.6988  2.6437
15013SOL     OW52088   8.905   1.388   7.805  0.2895 -0.4669 -0.1118
15013SOL    HW152089   8.910   1.400   7.711 -0.5356 -0.5234 -0.1685
15013SOL    HW252090   8.814   1.366   7.822  0.8266 -2.5665  0.4462
15014SOL     OW52091   0.587  12.066   9.113  0.6408 -0.0357  0.2784
15014SOL    HW152092   0.654  12.134   9.114 -0.9872  1.6876 -0.3834
15014SOL    HW252093   0.577  12.043   9.021 -1.1025  1.3223  0.0634
15015SOL     OW52094   3.211   8.805   9.700 -0.2274  0.3914 -0.6189
15015SOL    HW152095   3.307   8.813   9.705 -0.0941 -1.6040  1.8758
15015SOL    HW252096   3.197   8.717   9.666 -1.2470  0.9339 -1.6772
15016SOL     OW52097   5.429   8.354   2.161 -0.2727  0.0006  0.2707
15016SOL    HW152098   5.433   8.449   2.147  1.1664 -0.1273 -0.3162
15016SOL    HW252099   5.419   8.345   2.256  0.6282  0.7365  0.4553
15017SOL     OW52100   0.601   3.069  12.577 -0.1981 -0.0685  0.4156
15017SOL    HW152101   0.612   2.988  12.627  1.2045 -0.2327 -0.1153
15017SOL    HW252102   0.689   3.108  12.573 -0.6952  1.0734 -0.0219
15018SOL     OW52103   7.093   8.318   5.570 -0.0707 -0.1130 -0.1327
15018SOL    HW152104   7.001   8.291   5.579 -0.1035  0.2226  0.6569
15018SOL    HW252105   7.116   8.352   5.657  0.5453  0.5894 -0.5582
15019SOL     OW52106   5.761   5.086   6.040 -0.6040 -0.4757 -0.1770
15019SOL    HW152107   5.763   5.047   5.952 -1.7656  0.0997 -0.4671
15019SOL    HW252108   5.684   5.142   6.040 -0.2891 -0.0190  1.0320
15020SOL     OW52109   5.173   0.273   4.181  0.3003 -0.0373 -0.0741
15020SOL    HW152110   5.111   0.234   4.243  1.1194  0.7876  1.2957
15020SOL    HW252111   5.204   0.352   4.224  1.3810  0.2180 -1.2693
15021SOL     OW52112   9.335   4.303   0.121  0.0082 -0.1465 -0.3071
15021SOL    HW152113   9.314   4.210   0.132  1.0680 -0.4152 -0.3799
15021SOL    HW252114   9.283   4.348   0.187  0.8439 -1.0012  0.9846
15022SOL     OW52115   0.140   5.006   3.353 -0.4341  0.1685  0.2478
15022SOL    HW152116   0.133   4.915   3.325  1.9118 -0.2561  0.7940
15022SOL    HW252117   0.195   5.048   3.285 -2.0676  1.4021 -0.3871
15023SOL     OW52118   1.761   1.438   0.997  0.1685 -0.1783 -0.2370
15023SOL    HW152119   1.736   1.442   1.090  0.4736 -0.9584 -0.1133
15023SOL    HW252120   1.856   1.446   0.998  0.2519 -1.0622 -0.4083
15024SOL     OW52121  11.533   3.132   4.617  0.4688  0.2434  0.2336
15024SOL    HW152122  11.440   3.145   4.633 -0.2130 -1.7967 -1.5652
15024SOL    HW252123  11.571   3.125   4.705 -0.9671  1.4116  1.0128
15025SOL     OW52124   6.473   3.752  12.152 -0.4095 -0.2507 -0.2538
15025SOL    HW152125   6.508   3.793  12.073 -2.4036 -0.5601 -1.3669
15025SOL    HW252126   6.450   3.826  12.209  0.4420 -0.0081 -0.2140
15026SOL     OW52127   8.136   7.612   5.476 -0.0340 -0.1402  0.3700
15026SOL    HW152128   8.129   7.681   5.411  1.5649  0.9411  1.2941
15026SOL    HW252129   8.046   7.599   5.508 -0.5472  0.5630 -0.7506
15027SOL     OW52130   8.807   6.225   4.446 -0.5594  0.1136  0.1822
15027SOL    HW152131   8.759   6.307   4.450  0.8323  1.2936 -3.1937
15027SOL    HW252132   8.744   6.163   4.409 -0.7987  0.4247  0.0633
15028SOL     OW52133   9.792   6.109  11.109 -0.0964 -0.3353 -0.1510
15028SOL    HW152134   9.886   6.102  11.098  0.2563  0.1081  2.1117
15028SOL    HW252135   9.773   6.061  11.189 -2.0961 -2.0201 -1.5182
15029SOL     OW52136   9.836   8.416   5.059 -0.1129  0.3982  0.2920
15029SOL    HW152137   9.772   8.438   5.128  0.6983  0.0723  1.1658
15029SOL    HW252138   9.921   8.437   5.098  0.4876 -1.4285  0.0268
15030SOL     OW52139   0.179   9.248  11.230 -0.2155  0.1383  0.3275
15030SOL    HW152140   0.098   9.206  11.258  0.2977 -0.8051  0.4426
15030SOL    HW252141   0.228   9.262  11.310  1.2376 -2.5288  0.0251
15031SOL     OW52142   3.143  10.174   0.785  0.2304 -0.1446  0.1837
15031SOL    HW152143   3.078  10.104   0.785 -0.0166  0.0505  1.7590
15031SOL    HW252144   3.227  10.129   0.783  0.0974 -0.5647  2.2278
15032SOL     OW52145   3.316   8.208  12.066  0.3986  0.0043  0.3145
15032SOL    HW152146   3.255   8.277  12.093 -0.1712 -0.5897  0.5775
15032SOL    HW252147   3.379   8.252  12.009  2.1041  1.5061  3.1432
15033SOL     OW52148  10.713   9.316   6.667  0.3054 -0.0557 -0.7126
15033SOL    HW152149  10.636   9.314   6.723  0.1834  0.7369 -0.8316
15033SOL    HW252150  10.786   9.292   6.724 -0.1154 -1.5659 -0.7756
15034SOL     OW52151  10.284   5.896   6.480 -0.5073  0.1834 -0.0783
15034SOL    HW152152  10.197   5.918   6.511 -0.8837 -1.4575  0.1353
15034SOL    HW252153  10.305   5.814   6.524  0.4543 -0.3144 -1.3813
15035SOL     OW52154   1.832   9.492   1.564 -0.6354  0.0192  0.0445
15035SOL    HW152155   1.773   9.551   1.517 -1.7032 -0.6921  0.4425
15035SOL    HW252156   1.840   9.416   1.506 -0.7439 -0.2172  0.3385
15036SOL     OW52157   3.881   8.935   1.673 -0.1854 -0.4086 -0.0157
15036SOL    HW152158   3.907   8.847   1.647 -0.1057 -0.7036  1.0187
15036SOL    HW252159   3.892   8.936   1.768 -0.1732  0.7235 -0.0188
15037SOL     OW52160   8.375   2.890   2.051 -0.0060 -0.1034 -0.6353
15037SOL    HW152161   8.451   2.831   2.059  0.1088  0.1394  0.1043
15037SOL    HW252162   8.404   2.972   2.091 -0.5278  0.1218 -0.7144
15038SOL     OW52163   3.887  11.489  10.441  0.2479  0.1894 -0.0951
15038SOL    HW152164   3.950  11.557  10.417  2.5447 -1.3361  1.2890
15038SOL    HW252165   3.910  11.415  10.385  0.7491 -0.8884  1.4667
15039SOL     OW52166  10.328   4.209   5.226  0.0595  0.3220 -0.1833
15039SOL    HW152167  10.308   4.238   5.315  0.9233 -1.5887  0.6791
15039SOL    HW252168  10.260   4.144   5.206  1.4025 -1.2603  0.1823
15040SOL     OW52169   0.925   0.490   1.977 -0.1465 -0.1664  0.1960
15040SOL    HW152170   0.966   0.411   1.941 -0.0582  0.0808 -0.2570
15040SOL    HW252171   0.867   0.459   2.046  1.4693 -0.4749  1.4784
15041SOL     OW52172  12.173  11.735  10.288 -0.1678  0.4424  0.3445
15041SOL    HW152173  12.130  11.807  10.241 -0.4581 -0.7808 -1.3446
15041SOL    HW252174  12.267  11.753  10.277 -0.2354  0.7329  0.2187
15042SOL     OW52175   9.216   4.036   0.978  0.0169  0.4112  0.0086
15042SOL    HW152176   9.283   3.967   0.977  0.5317  0.8982  0.2946
15042SOL    HW252177   9.230   4.084   0.897  0.2649  0.7479  0.2490
15043SOL     OW52178  11.791   9.150   1.375  0.2337  0.1653  0.0464
15043SOL    HW152179  11.808   9.104   1.458 -1.9041  0.4665  0.7271
15043SOL    HW252180  11.794   9.243   1.398  0.6341  0.2818 -0.4577
15044SOL     OW52181   0.932   5.712   0.211 -0.0178 -0.0438  0.0919
15044SOL    HW152182   0.837   5.723   0.223  0.0416  0.0576  0.4719
15044SOL    HW252183   0.969   5.726   0.298  0.1575 -2.1836  0.4153
15045SOL     OW52184   8.362   2.380   4.250  0.7472 -0.4750 -0.1155
15045SOL    HW152185   8.450   2.408   4.275  0.4504 -0.3167  0.8180
15045SOL    HW252186   8.334   2.323   4.322 -0.0816 -0.1549 -0.1739
15046SOL     OW52187   6.887   9.597   5.135  0.1084  0.2540  0.3885
15046SOL    HW152188   6.898   9.524   5.195  1.5778  0.6100  0.5878
15046SOL    HW252189   6.843   9.560   5.059 -0.5237 -0.4975  1.1135
15047SOL     OW52190   7.626   4.566   2.220  0.3243 -0.2860  0.0174
15047SOL    HW152191   7.586   4.498   2.275  0.1701  0.4020  0.7785
15047SOL    HW252192   7.713   4.532   2.201  0.3090 -0.6357  0.5249
15048SOL     OW52193   0.900   3.176   6.015 -0.1082  0.2308  0.1121
15048SOL    HW152194   0.813   3.144   6.040  1.2259 -2.3717  1.9051
15048SOL    HW252195   0.927   3.119   5.943  0.5427  0.2436  0.3385
15049SOL     OW52196   7.835   6.997   5.993  0.1343 -0.0889  0.0204
15049SOL    HW152197   7.882   7.017   6.074  0.4620  2.0596 -0.6382
15049SOL    HW252198   7.879   6.919   5.958  2.7007  1.2997 -0.0988
15050SOL     OW52199   6.002   7.840   7.089  0.0939  0.7736  0.2592
15050SOL    HW152200   6.030   7.749   7.098 -1.7061  0.3127  2.2616
15050SOL    HW252201   6.059   7.889   7.148  0.1860  0.6993  0.2306
15051SOL     OW52202   0.083   4.125   5.290  0.0923  0.1894 -0.0226
15051SOL    HW152203   0.102   4.119   5.383  1.0141  0.8971 -0.1466
15051SOL    HW252204   0.082   4.219   5.272  0.0329  0.0549 -0.7452
15052SOL     OW52205   3.842   5.838   8.260 -0.0647  0.6449 -0.3531
15052SOL    HW152206   3.863   5.797   8.177  1.1367  0.1328  0.1773
15052SOL    HW252207   3.901   5.796   8.323  0.1477  2.1126  0.4746
15053SOL     OW52208   5.456  11.518   3.254 -0.0764  0.2919  0.3427
15053SOL    HW152209   5.493  11.461   3.187 -0.6806  2.7535 -2.3114
15053SOL    HW252210   5.364  11.492   3.260  0.0721 -0.1954  0.5285
15054SOL     OW52211   6.230   9.269   8.691 -0.7303 -0.0456  0.7785
15054SOL    HW152212   6.189   9.347   8.655 -0.5683  0.0790  0.8655
15054SOL    HW252213   6.318   9.297   8.714 -0.0326 -0.6999 -0.8874
15055SOL     OW52214   0.405   2.428   7.431  0.0471 -0.0091  0.1805
15055SOL    HW152215   0.454   2.424   7.513 -1.2729  0.0685  1.0024
15055SOL    HW252216   0.472   2.437   7.363  1.2243 -1.1598  1.1453
15056SOL     OW52217   7.295  12.334   2.273  0.2960 -0.0796 -0.2383
15056SOL    HW152218   7.317  12.254   2.226  0.4705  0.2375 -0.7053
15056SOL    HW252219   7.356  12.400   2.239  0.4866  0.1392  0.4944
15057SOL     OW52220  10.456   6.439   4.641  0.3277  0.0168 -0.0992
15057SOL    HW152221  10.521   6.498   4.605 -0.0163  0.7171  0.4037
15057SOL    HW252222  10.505   6.360   4.663  0.5758 -0.3744 -1.8966
15058SOL     OW52223   1.348   9.104   7.960 -0.1557 -0.1576 -0.5523
15058SOL    HW152224   1.268   9.123   8.009 -0.6267 -0.9854 -0.9625
15058SOL    HW252225   1.319   9.100   7.868  0.3242 -0.6099 -0.6875
15059SOL     OW52226   7.159   0.948   4.932  0.0050  0.1122 -0.0804
15059SOL    HW152227   7.084   0.897   4.901  1.1658 -1.2189 -0.8108
15059SOL    HW252228   7.230   0.923   4.874  1.3715  0.3082  1.4460
15060SOL     OW52229  10.631   0.969  12.238 -0.0435  0.1694 -0.2201
15060SOL    HW152230  10.590   0.927  12.314 -0.1273  0.1298 -0.2860
15060SOL    HW252231  10.707   1.014  12.274 -0.3500  0.5453 -0.0428
15061SOL     OW52232   9.134   5.392   3.252  0.0988 -0.1802 -0.0811
15061SOL    HW152233   9.193   5.318   3.258 -0.4328 -0.6173 -0.1872
15061SOL    HW252234   9.121   5.404   3.158 -0.0677 -0.1554 -0.0553
15062SOL     OW52235   6.222   8.591   8.075  0.2257 -0.8229 -0.1365
15062SOL    HW152236   6.214   8.600   7.980  0.5527 -3.3902 -0.4931
15062SOL    HW252237   6.314   8.612   8.093  0.0224  0.2458 -0.2762
15063SOL     OW52238   2.112   9.353   6.987  1.0466 -0.2130 -0.0574
15063SOL    HW152239   2.165   9.388   6.916  0.1445  2.3587  0.4026
15063SOL    HW252240   2.100   9.427   7.046 -0.6196 -1.4815  1.3101
15064SOL     OW52241   8.553   5.017  11.912 -0.0201  0.2611  0.1065
15064SOL    HW152242   8.553   5.012  12.008  0.7120  2.0729  0.2429
15064SOL    HW252243   8.540   4.927  11.884 -2.3710 -0.0651  1.8856
15065SOL     OW52244   9.808   1.112  10.594  0.7239 -0.2462  0.1202
15065SOL    HW152245   9.767   1.198  10.585  1.4051 -0.0533 -1.3849
15065SOL    HW252246   9.892   1.130  10.638  0.5431 -0.2441  0.4666
15066SOL     OW52247   9.990  10.126   9.592  0.8961 -0.1153 -0.3089
15066SOL    HW152248   9.946  10.210   9.607 -0.1326 -0.6246 -0.3976
15066SOL    HW252249   9.936  10.082   9.526  1.1385 -1.0524  0.0998
15067SOL     OW52250   4.576   3.518   0.031  0.1556 -0.3636  0.2504
15067SOL    HW152251   4.653   3.506   0.087 -0.6070 -1.3467  1.1183
15067SOL    HW252252   4.533   3.596   0.066 -0.0117 -0.6424  0.6589
15068SOL     OW52253   4.600   3.860   4.678 -0.0419 -0.2879 -0.1451
15068SOL    HW152254   4.651   3.908   4.743  1.0831 -1.6107 -0.0024
15068SOL    HW252255   4.536   3.810   4.728 -0.3252  0.0200 -0.1953
15069SOL     OW52256   2.555   9.719   4.963  0.3564  0.1050 -0.5679
15069SOL    HW152257   2.480   9.734   4.905 -0.8043 -0.2514  0.7767
15069SOL    HW252258   2.579   9.806   4.996 -0.7454  0.0334  0.4907
15070SOL     OW52259   3.067   9.407   1.941  0.1092  0.3980  0.6166
15070SOL    HW152260   3.103   9.343   1.879 -4.7107 -1.2727 -0.9659
15070SOL    HW252261   3.000   9.358   1.989 -2.9976  3.8260  0.2537
15071SOL     OW52262   9.237  10.259   3.511 -0.3640  0.4046 -0.1076
15071SOL    HW152263   9.190  10.330   3.555  0.8644  1.9154 -1.1108
15071SOL    HW252264   9.177  10.231   3.441 -2.0455 -1.5717  1.9522
15072SOL     OW52265   1.985   2.040   5.497 -0.2336  0.7774  0.3740
15072SOL    HW152266   2.059   2.077   5.545  1.4848 -0.2174 -1.3582
15072SOL    HW252267   1.960   1.963   5.548  1.0002  0.2097  0.1650
15073SOL     OW52268   3.313   2.928   8.243 -0.1990  0.8048 -0.2959
15073SOL    HW152269   3.340   2.933   8.152  0.0087 -3.6892 -0.7184
15073SOL    HW252270   3.232   2.877   8.242  0.8525 -1.1417  2.0485
15074SOL     OW52271   5.641   5.734  12.386  0.6249 -0.0542  0.4156
15074SOL    HW152272   5.723   5.780  12.366  0.8646 -0.9397 -0.8107
15074SOL    HW252273   5.670   5.653  12.429  0.3050  0.1838  1.0918
15075SOL     OW52274   2.214  10.169   7.123  0.5472 -0.1622  0.5973
15075SOL    HW152275   2.305  10.200   7.120  0.3706  0.3081 -0.1760
15075SOL    HW252276   2.190  10.173   7.216  0.8046  1.2360  0.6184
15076SOL     OW52277   0.564  11.408   8.286  0.6295 -0.1808 -0.1256
15076SOL    HW152278   0.498  11.447   8.229  1.3842 -1.4321 -1.9937
15076SOL    HW252279   0.515  11.378   8.362 -0.1450  3.1766  0.8502
15077SOL     OW52280   4.006  11.014   8.261  0.0644 -0.4331  0.0728
15077SOL    HW152281   4.060  10.974   8.330  1.3486  0.4627 -0.3802
15077SOL    HW252282   3.933  11.053   8.307  1.9776  2.0090  1.2487
15078SOL     OW52283  11.372   9.465   2.413  0.0667  0.2343 -0.4287
15078SOL    HW152284  11.391   9.544   2.464  0.1686 -0.7842  1.1669
15078SOL    HW252285  11.330   9.498   2.333  1.5983  1.9989 -0.5581
15079SOL     OW52286  11.896   3.684   9.076 -0.2944  0.2332 -0.3232
15079SOL    HW152287  11.862   3.601   9.044  0.0620 -0.5297  1.1856
15079SOL    HW252288  11.990   3.681   9.054 -0.2175  0.0815  0.0192
15080SOL     OW52289   5.041  12.138   2.827  0.4918 -0.4148  1.2384
15080SOL    HW152290   5.113  12.098   2.875  1.0213  0.9649  1.6301
15080SOL    HW252291   5.002  12.065   2.779  1.0694 -1.4942  2.3454
15081SOL     OW52292  11.336   8.763   4.331 -0.2633  0.3691  0.3745
15081SOL    HW152293  11.422   8.802   4.321 -0.6916  1.0033 -1.0175
15081SOL    HW252294  11.353   8.674   4.362  0.8349  0.7642  0.9479
15082SOL     OW52295   0.709   8.599   3.199 -0.0108 -0.8220  0.0488
15082SOL    HW152296   0.696   8.640   3.284  1.3729  1.0785 -0.5912
15082SOL    HW252297   0.626   8.557   3.179 -0.6309 -0.5592  1.9266
15083SOL     OW52298   3.785   9.439   9.380 -0.2161 -0.1016  0.6001
15083SOL    HW152299   3.843   9.364   9.366 -0.9224 -0.3731 -1.3517
15083SOL    HW252300   3.843   9.513   9.392  0.5771 -0.4506 -0.7875
15084SOL     OW52301   1.089   0.166   2.230  0.5039  1.1692 -0.5573
15084SOL    HW152302   1.073   0.212   2.312  1.4096  0.0568  0.2818
15084SOL    HW252303   1.181   0.141   2.234 -0.0051 -0.9676 -0.8061
15085SOL     OW52304   5.823   4.046  12.245 -0.9455  0.0706  0.5346
15085SOL    HW152305   5.776   4.096  12.311 -0.9936 -1.8259  2.0159
15085SOL    HW252306   5.915   4.054  12.271 -0.6997  1.2721 -0.5982
15086SOL     OW52307  10.178   4.992   4.163 -0.1281 -0.3748  0.5423
15086SOL    HW152308  10.107   4.948   4.117 -0.5167  0.8278 -0.0514
15086SOL    HW252309  10.253   4.934   4.152 -1.0292 -1.7474  1.3199
15087SOL     OW52310   3.919   5.618   2.238 -0.4686 -0.2772 -0.2943
15087SOL    HW152311   3.855   5.631   2.309  0.5334 -0.5910  0.6896
15087SOL    HW252312   3.982   5.688   2.249  0.3104 -0.9799 -0.1652
15088SOL     OW52313   0.453   2.222   2.419  0.1179 -0.4101  0.0931
15088SOL    HW152314   0.444   2.130   2.444  4.4358 -0.9969  0.2612
15088SOL    HW252315   0.476   2.267   2.500 -0.6261  0.5906 -0.2382
15089SOL     OW52316   3.953   2.424   5.739 -0.4846  0.0023  0.2827
15089SOL    HW152317   3.902   2.449   5.661 -0.2279 -2.2593 -0.7024
15089SOL    HW252318   3.897   2.361   5.785  0.5862 -1.0005  0.2532
15090SOL     OW52319   8.159  11.435   7.103 -0.0190 -0.2163  0.3311
15090SOL    HW152320   8.124  11.462   7.018  1.7128  0.2819 -0.2618
15090SOL    HW252321   8.108  11.357   7.125  0.4372 -1.2238 -1.8577
15091SOL     OW52322   6.340   9.846   0.527  0.2828  0.2415 -0.0409
15091SOL    HW152323   6.343   9.813   0.617  0.0074  0.2455 -0.0316
15091SOL    HW252324   6.333   9.941   0.537  1.5271  0.3572 -0.0656
15092SOL     OW52325   5.197   8.997  11.592  0.3147 -0.5009 -0.0878
15092SOL    HW152326   5.157   8.974  11.508 -1.2139  0.8463  0.2179
15092SOL    HW252327   5.254   9.071  11.572  2.9937 -2.5426 -0.5587
15093SOL     OW52328   3.040   0.898   3.118 -0.0396 -0.6244  0.3089
15093SOL    HW152329   3.028   0.961   3.189  0.7387 -1.0314  0.8188
15093SOL    HW252330   3.017   0.814   3.156 -1.2667 -0.6539 -0.4257
15094SOL     OW52331   4.912   2.091   8.471  0.3029  0.4741  1.1295
15094SOL    HW152332   4.940   2.181   8.457  1.6802 -0.2439 -1.2285
15094SOL    HW252333   4.817   2.094   8.461  0.3901  1.5673  0.4496
15095SOL     OW52334  11.843   2.564   1.341  0.0485 -0.0516  0.6980
15095SOL    HW152335  11.813   2.494   1.399  0.0518  1.7694  3.0642
15095SOL    HW252336  11.933   2.541   1.320 -1.1851 -2.9653 -2.3134
15096SOL     OW52337   2.811  11.230   4.940  0.0398 -0.6368  0.3297
15096SOL    HW152338   2.884  11.291   4.948 -0.3004 -0.1334 -0.3099
15096SOL    HW252339   2.757  11.267   4.870  0.1091 -1.9604 -0.4453
15097SOL     OW52340   0.078   8.020   7.238  0.2227 -0.4236 -0.1726
15097SOL    HW152341   0.122   7.996   7.320  0.1127  1.3681  0.4455
15097SOL    HW252342  -0.014   7.998   7.254  0.4911 -2.0390 -0.6301
15098SOL     OW52343  10.842   7.354   6.403  0.4303 -0.4551  0.2794
15098SOL    HW152344  10.914   7.303   6.365 -0.6632 -1.0645 -1.0836
15098SOL    HW252345  10.784   7.288   6.443  0.0627 -0.0922  0.3525
15099SOL     OW52346   6.353  12.022  11.886  0.4415 -0.3948  0.0800
15099SOL    HW152347   6.344  12.108  11.846  0.2080 -0.9420 -1.0821
15099SOL    HW252348   6.290  11.967  11.839 -1.8184 -0.4976  2.9224
15100SOL     OW52349   0.111   5.881   4.137  0.6615 -0.5255  0.2831
15100SOL    HW152350   0.104   5.800   4.187  1.5279 -0.7837  0.0011
15100SOL    HW252351   0.048   5.870   4.065 -0.6216 -0.1330  1.3138
15101SOL     OW52352   0.963   6.723   3.645 -0.1698  0.1021  0.6813
15101SOL    HW152353   0.961   6.687   3.734 -0.0862 -0.5559  0.4256
15101SOL    HW252354   0.872   6.748   3.627 -1.0007 -3.1775 -0.3767
15102SOL     OW52355  11.319   7.074  11.705 -0.3196 -0.7568  0.5205
15102SOL    HW152356  11.356   7.136  11.768  0.8068 -1.3470  0.4545
15102SOL    HW252357  11.372   6.995  11.714  0.0722 -0.7604 -1.3712
15103SOL     OW52358  11.629   7.399   4.270 -0.5865  0.5296  0.1202
15103SOL    HW152359  11.637   7.392   4.175 -0.9887 -0.4781  0.1538
15103SOL    HW252360  11.558   7.461   4.283 -0.1328  1.1377 -0.2272
15104SOL     OW52361   1.447   8.357  10.151  0.6494  0.2077 -0.4108
15104SOL    HW152362   1.451   8.397  10.239  0.2818 -0.2492 -0.1797
15104SOL    HW252363   1.372   8.399  10.109 -0.3956 -0.9454  0.2106
15105SOL     OW52364   5.635   0.012   8.441 -0.3460 -0.4643 -0.3093
15105SOL    HW152365   5.708   0.053   8.394 -0.0472  1.7792  1.9320
15105SOL    HW252366   5.557   0.039   8.392  0.0909 -0.1529 -0.8503
15106SOL     OW52367   0.819   6.501  11.985  0.0328  0.2537 -0.1807
15106SOL    HW152368   0.871   6.470  11.911  0.7460  1.4691 -0.2142
15106SOL    HW252369   0.785   6.421  12.026  2.4190 -0.6649  0.2097
15107SOL     OW52370   0.220   1.190   4.287 -0.2232 -0.1290  0.2635
15107SOL    HW152371   0.297   1.201   4.343  2.4270  0.1927 -3.0984
15107SOL    HW252372   0.211   1.096   4.276  0.4090 -0.1447 -0.1757
15108SOL     OW52373  10.747   8.176   4.290 -0.7209  0.0201  0.1230
15108SOL    HW152374  10.783   8.185   4.202 -1.3105 -0.4703 -0.1686
15108SOL    HW252375  10.654   8.194   4.281 -0.9066 -0.7031  0.5221
15109SOL     OW52376   2.728   9.930   4.602  0.3004 -0.1628 -0.0038
15109SOL    HW152377   2.664   9.882   4.654  0.5236  0.4138  0.8059
15109SOL    HW252378   2.697  10.020   4.601  0.6319 -0.0460 -0.3531
15110SOL     OW52379   1.520   3.409   5.420 -0.5590 -0.2212  0.0644
15110SOL    HW152380   1.428   3.431   5.410 -0.7965 -0.7744  0.9149
15110SOL    HW252381   1.546   3.447   5.504  0.8698  2.6775 -1.5452
15111SOL     OW52382   0.182   7.676   3.734 -0.1059 -0.2233 -0.4009
15111SOL    HW152383   0.262   7.703   3.689  0.1686  0.5021  0.5035
15111SOL    HW252384   0.212   7.619   3.805 -0.5412 -1.4206 -1.1479
15112SOL     OW52385   8.789   9.722   8.993 -0.0714  0.0225  0.8102
15112SOL    HW152386   8.866   9.671   9.020  0.8741  0.8167 -0.2974
15112SOL    HW252387   8.744   9.741   9.075  0.8862 -0.5000  1.4859
15113SOL     OW52388   2.607   8.222   0.244 -0.2288 -0.0900 -0.5621
15113SOL    HW152389   2.653   8.138   0.238  0.2646  0.0986  0.4107
15113SOL    HW252390   2.515   8.200   0.232 -0.5692 -1.3370  3.1643
15114SOL     OW52391   9.784   1.938   9.403  1.0453 -0.1453  0.3029
15114SOL    HW152392   9.792   2.023   9.359 -1.5681 -0.0115 -0.0629
15114SOL    HW252393   9.742   1.957   9.486 -1.8944 -1.2099 -0.7948
15115SOL     OW52394  12.294  12.122   3.084  0.3645  0.2091 -0.1489
15115SOL    HW152395  12.287  12.139   2.990 -0.2550  0.0218 -0.1409
15115SOL    HW252396  12.217  12.165   3.122  0.9882  0.8979  0.3641
15116SOL     OW52397   5.965   9.171  10.044 -0.5769  0.0914  0.1045
15116SOL    HW152398   5.875   9.182  10.014 -1.0859 -0.1495  1.4787
15116SOL    HW252399   5.960   9.100  10.108  0.2894  1.1641  1.4074
15117SOL     OW52400   8.291   5.561   4.835 -0.0486  0.1790 -0.1019
15117SOL    HW152401   8.382   5.568   4.805 -0.2359  1.4238 -0.4065
15117SOL    HW252402   8.287   5.474   4.876  1.2557  0.0729 -0.1397
15118SOL     OW52403   6.558   7.053   4.112 -0.0038  0.2090  0.0829
15118SOL    HW152404   6.572   6.993   4.185  0.1848  1.5518  1.1961
15118SOL    HW252405   6.646   7.076   4.082 -0.0647  0.1597 -0.1302
15119SOL     OW52406   8.698   7.818   7.877 -0.1227  0.2621  0.1266
15119SOL    HW152407   8.656   7.732   7.881 -0.7014  0.5396  0.1232
15119SOL    HW252408   8.688   7.847   7.787  1.3592 -0.2861 -0.2443
15120SOL     OW52409   7.710   0.390   1.116  0.0205  0.3909 -0.5781
15120SOL    HW152410   7.654   0.454   1.161  1.5738 -0.3799  2.7961
15120SOL    HW252411   7.769   0.443   1.063 -1.2481  1.4627 -0.9741
15121SOL     OW52412  11.464   4.324   3.873  0.1990 -0.0465 -0.0626
15121SOL    HW152413  11.411   4.247   3.853  0.2991 -0.2377  0.3844
15121SOL    HW252414  11.479   4.366   3.789 -0.2607 -0.2542 -0.2517
15122SOL     OW52415   0.816   2.241   8.966 -0.1174 -0.4318 -0.1531
15122SOL    HW152416   0.750   2.267   9.030 -1.1887  0.0378 -1.3982
15122SOL    HW252417   0.895   2.288   8.993 -0.6335  0.0178  0.6364
15123SOL     OW52418   0.204   3.894   4.239 -0.2000 -0.4045  0.2031
15123SOL    HW152419   0.261   3.816   4.239 -0.2394 -0.4587  1.4652
15123SOL    HW252420   0.152   3.884   4.318 -0.3047  0.8446  0.2960
15124SOL     OW52421   3.832   1.284   4.990  0.6538 -0.4595 -0.0963
15124SOL    HW152422   3.795   1.364   4.952  0.2057 -1.1720 -1.2071
15124SOL    HW252423   3.909   1.265   4.937 -0.3777 -1.8571 -1.1430
15125SOL     OW52424   1.644  12.265   5.634 -0.1337 -0.1105  0.0604
15125SOL    HW152425   1.639  12.360   5.631 -1.3304 -0.1618 -0.5334
15125SOL    HW252426   1.599  12.237   5.554 -2.0934 -1.2056  1.4538
15126SOL     OW52427  11.382  10.690  11.989  1.1782  0.6706  0.1721
15126SOL    HW152428  11.475  10.670  11.981  0.9417 -1.4239  1.7816
15126SOL    HW252429  11.339  10.604  11.991 -0.6770  1.5570  0.5286
15127SOL     OW52430  11.271   9.689  10.006 -0.4889 -0.4447 -0.2985
15127SOL    HW152431  11.182   9.686  10.042 -0.0627  0.3401  0.9196
15127SOL    HW252432  11.282   9.780   9.976  0.6170  0.1262  1.6324
15128SOL     OW52433   6.519   6.974  12.409  0.1171  0.5748  0.3167
15128SOL    HW152434   6.553   7.063  12.418 -1.7095  1.2573  0.9539
15128SOL    HW252435   6.597   6.918  12.412  1.2971  2.1256 -0.0014
15129SOL     OW52436   6.271   3.386   0.777 -0.1544  0.0109 -0.0537
15129SOL    HW152437   6.199   3.441   0.748  0.7786  0.4033 -1.7773
15129SOL    HW252438   6.349   3.427   0.741  0.7290 -1.5509 -0.0402
15130SOL     OW52439  10.580   5.654   5.906  0.1576 -1.0592 -0.4855
15130SOL    HW152440  10.591   5.615   5.993 -0.9976  1.1942  0.7839
15130SOL    HW252441  10.617   5.742   5.915 -1.3312 -0.2431 -1.8072
15131SOL     OW52442   5.687   7.735  11.952 -0.0950  0.4765  0.5158
15131SOL    HW152443   5.782   7.734  11.952 -0.0801 -0.7597 -0.0971
15131SOL    HW252444   5.663   7.740  11.859 -0.5672 -1.6214  0.4693
15132SOL     OW52445   4.557   3.381   5.729  0.3717 -0.4082  0.0863
15132SOL    HW152446   4.482   3.425   5.769  0.3033 -0.6148  0.1825
15132SOL    HW252447   4.633   3.426   5.766  0.3018 -0.3762  0.1919
15133SOL     OW52448   6.205   6.382   4.399  0.1419  0.7718 -0.1542
15133SOL    HW152449   6.273   6.322   4.429 -1.6138 -0.3249  1.9746
15133SOL    HW252450   6.223   6.395   4.306  1.3841 -2.0554 -0.4067
15134SOL     OW52451   3.135   1.810   0.518  0.1620 -0.2250 -0.0910
15134SOL    HW152452   3.202   1.791   0.451 -0.9247  0.1048 -1.3177
15134SOL    HW252453   3.179   1.794   0.601  1.2803 -1.5915 -0.8992
15135SOL     OW52454   6.807   4.023   3.976  0.3256 -0.0418  0.1064
15135SOL    HW152455   6.821   3.940   4.022 -2.1864  0.3337  1.7133
15135SOL    HW252456   6.712   4.025   3.959  0.6277  1.6040 -1.7176
15136SOL     OW52457   9.206   1.638  10.659  0.4216  0.2733  0.1954
15136SOL    HW152458   9.247   1.685  10.586 -0.0836  0.6733  0.1671
15136SOL    HW252459   9.274   1.636  10.727  0.2171  1.6826  0.4697
15137SOL     OW52460  11.739  10.354   7.321  0.3399 -0.4755 -0.4168
15137SOL    HW152461  11.711  10.278   7.371  1.5821 -0.8722 -0.3070
15137SOL    HW252462  11.658  10.387   7.282 -0.2969 -1.5312 -0.0426
15138SOL     OW52463  10.463   6.908  10.822  0.2779 -0.2451  0.5512
15138SOL    HW152464  10.536   6.899  10.883 -0.6125  2.2587  2.1143
15138SOL    HW252465  10.492   6.973  10.759  0.9603 -2.3864 -1.5229
15139SOL     OW52466   5.066   0.380  11.133 -0.4461  0.1271  0.2344
15139SOL    HW152467   5.151   0.337  11.139  0.0056  0.9475 -0.2654
15139SOL    HW252468   5.024   0.361  11.217  0.4421  0.1772  0.6932
15140SOL     OW52469   7.542   0.792   2.259 -0.1702  0.6175 -0.3204
15140SOL    HW152470   7.461   0.781   2.209 -0.5011 -0.2536  0.3902
15140SOL    HW252471   7.558   0.706   2.297  1.6802  0.4769 -1.3187
15141SOL     OW52472   3.845   3.014   3.992  0.3555 -0.2381 -0.1223
15141SOL    HW152473   3.782   2.976   3.930 -0.4950 -1.3937  1.3606
15141SOL    HW252474   3.837   2.959   4.070  1.1102  1.3803  1.1542
15142SOL     OW52475   4.994   9.270   3.371  0.2072 -0.8595 -0.4709
15142SOL    HW152476   5.066   9.318   3.411 -0.4054 -0.9307  0.7643
15142SOL    HW252477   4.930   9.338   3.349 -0.3529 -1.0048  0.6256
15143SOL     OW52478   3.982  11.171   6.354 -0.0556 -1.0074 -0.0045
15143SOL    HW152479   4.068  11.192   6.318 -0.1839 -0.8272 -0.2068
15143SOL    HW252480   3.921  11.228   6.306 -0.1284 -0.0553  1.1843
15144SOL     OW52481   4.856   0.565   2.215  0.5218 -0.0955 -0.0620
15144SOL    HW152482   4.827   0.475   2.198  2.9534 -0.6375 -1.9272
15144SOL    HW252483   4.937   0.555   2.265  0.2891  1.1307  0.6045
15145SOL     OW52484   3.691   8.851   6.722 -0.6330 -0.1628 -0.1988
15145SOL    HW152485   3.698   8.903   6.802 -0.1019 -1.6822  0.7792
15145SOL    HW252486   3.597   8.850   6.703 -0.5624  2.3161 -1.0973
15146SOL     OW52487   0.638   2.037   1.554 -0.4520  0.1737 -0.4626
15146SOL    HW152488   0.678   2.122   1.571 -0.6551 -0.1877  2.0789
15146SOL    HW252489   0.654   2.022   1.460 -0.2979  2.9062 -0.9548
15147SOL     OW52490   7.508   7.311   5.126 -0.1540  0.0770 -0.6292
15147SOL    HW152491   7.501   7.230   5.076  1.5613 -0.6628  0.2438
15147SOL    HW252492   7.453   7.373   5.078  0.7352 -0.8200 -2.9799
15148SOL     OW52493  10.734   3.374   2.223 -0.0044  0.2253 -0.2433
15148SOL    HW152494  10.659   3.403   2.171 -0.5238 -2.2603 -0.9902
15148SOL    HW252495  10.764   3.294   2.181  2.1168  0.3071  0.9684
15149SOL     OW52496  11.628   2.535   4.548 -0.4112  0.2927  0.3234
15149SOL    HW152497  11.558   2.489   4.594  0.2731  0.2988  1.4069
15149SOL    HW252498  11.694   2.468   4.532  0.2675  0.7151  1.2522
15150SOL     OW52499   6.203   3.813   3.886 -0.5710  0.1596  0.3238
15150SOL    HW152500   6.282   3.763   3.868 -1.3889 -1.4301  0.9626
15150SOL    HW252501   6.232   3.904   3.888  1.1608 -0.3588  0.1466
15151SOL     OW52502  10.817   8.054  11.555 -0.5419  0.1411  0.0205
15151SOL    HW152503  10.766   8.134  11.564 -0.7321  0.1368 -0.8501
15151SOL    HW252504  10.765   8.000  11.495  0.8635  0.4801 -1.5985
15152SOL     OW52505  11.283   2.041   9.210 -0.0347  0.3766 -0.1277
15152SOL    HW152506  11.212   1.983   9.237 -2.0891  1.8315 -1.9854
15152SOL    HW252507  11.266   2.123   9.256  2.2024 -0.0227  1.6203
15153SOL     OW52508   1.911   3.284   9.857  0.0426 -0.0764  0.4174
15153SOL    HW152509   1.888   3.370   9.823  1.8311  1.0167  1.7940
15153SOL    HW252510   2.005   3.276   9.843 -0.2939 -2.4865 -1.0268
15154SOL     OW52511   6.644   5.042  11.830 -0.7496  0.1466  0.7641
15154SOL    HW152512   6.725   5.005  11.794  0.0258 -0.9213  3.3770
15154SOL    HW252513   6.589   4.966  11.849 -0.5013  0.4424  3.0554
15155SOL     OW52514   3.760   4.221   8.607 -0.3378 -0.4903  0.0753
15155SOL    HW152515   3.725   4.303   8.571  1.7708  0.2428 -0.4097
15155SOL    HW252516   3.700   4.201   8.679  0.5961  3.0789  2.1340
15156SOL     OW52517   5.266   8.427   8.188 -0.1734 -0.3243  0.8682
15156SOL    HW152518   5.340   8.367   8.176  1.3654  1.8702 -1.5310
15156SOL    HW252519   5.214   8.417   8.108  0.1685  1.5320  0.3745
15157SOL     OW52520  10.382   5.540   7.858 -0.6455  0.2871  0.2944
15157SOL    HW152521  10.469   5.519   7.892 -0.1972  1.4882 -0.0648
15157SOL    HW252522  10.337   5.455   7.854 -0.0267 -0.1545  1.9355
15158SOL     OW52523   0.606   8.050   4.697  0.4610 -0.0293  0.2912
15158SOL    HW152524   0.673   8.118   4.689  1.1966 -0.8949 -1.4163
15158SOL    HW252525   0.531   8.085   4.648 -0.0256  0.5307  1.4028
15159SOL     OW52526   3.613  12.422  10.934  0.0361 -0.1122  0.1227
15159SOL    HW152527   3.642  12.473  11.010 -1.4562  0.5970  0.2489
15159SOL    HW252528   3.613  12.332  10.965  0.2380  0.0791  0.6971
15160SOL     OW52529   2.657   8.511  10.285 -0.5559  0.1242 -0.0281
15160SOL    HW152530   2.690   8.563  10.359  0.6168  0.2729 -0.6305
15160SOL    HW252531   2.568   8.488  10.310 -0.1129 -0.0140  1.5386
15161SOL     OW52532  11.210   6.502   1.277  0.1784 -0.3554 -0.0936
15161SOL    HW152533  11.302   6.484   1.260  0.5320  1.5782 -0.5371
15161SOL    HW252534  11.211   6.561   1.353 -0.7978 -1.3341  0.7126
15162SOL     OW52535   2.445   7.632   3.001 -0.1567 -0.0501 -0.0522
15162SOL    HW152536   2.396   7.581   2.937  0.3352 -0.0120 -0.4603
15162SOL    HW252537   2.430   7.586   3.084 -0.5815 -0.2440 -0.2324
15163SOL     OW52538   2.354   1.879   8.643  0.2124 -0.0360  0.8025
15163SOL    HW152539   2.327   1.870   8.734  2.2748 -0.3919  1.4329
15163SOL    HW252540   2.440   1.921   8.648 -0.5328  1.9351 -1.1076
15164SOL     OW52541   9.356  10.958  10.534  0.0196  0.0730 -0.2333
15164SOL    HW152542   9.369  10.876  10.582 -0.1937  1.1498  1.7436
15164SOL    HW252543   9.286  10.938  10.471 -1.0258 -0.8854  1.1825
15165SOL     OW52544  10.081   9.630   2.485  0.0350  0.0650  0.3069
15165SOL    HW152545  10.008   9.664   2.433  1.3660 -0.2201 -1.8855
15165SOL    HW252546  10.040   9.589   2.561 -1.8876  2.4855  0.6918
15166SOL     OW52547  11.091   8.656   0.914  0.9820  0.0827 -0.1556
15166SOL    HW152548  11.179   8.686   0.894  1.7163 -0.2301  2.3082
15166SOL    HW252549  11.055   8.723   0.972  0.4097 -0.8065  0.5465
15167SOL     OW52550   3.895   5.673   5.949 -0.5657 -0.6665  0.5574
15167SOL    HW152551   3.824   5.617   5.979  0.6494 -1.6390  1.7359
15167SOL    HW252552   3.966   5.612   5.925 -0.5711  0.1779 -1.9946
15168SOL     OW52553   2.316  11.237   3.936 -0.4779  0.0765  0.1779
15168SOL    HW152554   2.334  11.271   4.024 -0.9287  1.3189 -0.1876
15168SOL    HW252555   2.402  11.214   3.901  0.1222  2.6551 -0.2463
15169SOL     OW52556   5.135   1.280   9.285 -0.0409 -0.0996  0.1264
15169SOL    HW152557   5.209   1.340   9.299  0.4254 -0.7604  0.5497
15169SOL    HW252558   5.076   1.298   9.359  0.4685 -0.7021  0.6852
15170SOL     OW52559  12.540   0.339   2.624 -0.3515 -0.4029 -0.3978
15170SOL    HW152560  12.489   0.365   2.700  0.2967 -0.7630  0.1730
15170SOL    HW252561  12.599   0.271   2.657  1.6436  1.1302 -0.6233
15171SOL     OW52562   2.446   0.209  11.832  0.0997 -0.1991 -0.0798
15171SOL    HW152563   2.434   0.129  11.781  2.2752 -1.1659  0.7971
15171SOL    HW252564   2.369   0.262  11.812 -1.8710 -2.8291 -0.0892
15172SOL     OW52565   7.683   4.885  11.819 -0.5885 -0.0069 -0.1452
15172SOL    HW152566   7.591   4.877  11.791 -0.4067  0.7930 -1.0435
15172SOL    HW252567   7.678   4.916  11.909 -1.1969 -1.5804  0.3946
15173SOL     OW52568   6.291   3.126  12.266  0.4989 -0.1531 -0.1932
15173SOL    HW152569   6.296   3.160  12.355 -0.4269 -1.4114  0.3635
15173SOL    HW252570   6.353   3.180  12.216 -0.9845  2.4334  0.5753
15174SOL     OW52571  10.643  10.750   5.809 -0.5746 -0.0133  0.2321
15174SOL    HW152572  10.659  10.656   5.810  1.0796  0.2008 -1.1714
15174SOL    HW252573  10.679  10.780   5.725  0.1683  2.0532  1.1969
15175SOL     OW52574   1.680  10.142   5.786  0.2199 -0.5684  0.0493
15175SOL    HW152575   1.615  10.205   5.754  2.1730  2.2981  1.3183
15175SOL    HW252576   1.751  10.146   5.722  0.8005 -0.7075  0.6759
15176SOL     OW52577   9.398  11.798   2.483  0.2038 -0.0313 -0.3377
15176SOL    HW152578   9.383  11.861   2.554  2.8319  1.9842 -1.3746
15176SOL    HW252579   9.438  11.850   2.413 -1.6052 -2.0629 -3.0903
15177SOL     OW52580   2.491   0.273   7.960 -0.1602  0.0013 -0.4499
15177SOL    HW152581   2.529   0.230   7.884 -1.0183 -0.9725 -0.3537
15177SOL    HW252582   2.414   0.318   7.926  0.7851  1.6164 -0.5692
15178SOL     OW52583  10.066   0.827  12.064 -0.5324 -0.1397 -0.0704
15178SOL    HW152584  10.122   0.846  12.140 -0.4077  0.2534 -0.2611
15178SOL    HW252585  10.024   0.743  12.086 -1.7475  0.7435  1.1627
15179SOL     OW52586   4.897   8.180   2.066 -0.0290  0.0336  0.4399
15179SOL    HW152587   4.844   8.180   2.147  0.8013 -1.4329  1.0073
15179SOL    HW252588   4.849   8.238   2.007 -0.2725  1.7987  2.2262
15180SOL     OW52589   0.776   9.970   8.948  0.1896  0.6673  0.6071
15180SOL    HW152590   0.804   9.896   8.894 -1.0094 -0.1003  0.9967
15180SOL    HW252591   0.833  10.042   8.922  0.8352 -0.1749 -0.3702
15181SOL     OW52592   9.193   2.843   1.976 -0.1093  0.6215 -0.4061
15181SOL    HW152593   9.192   2.791   1.896 -0.3907  0.5589 -0.3627
15181SOL    HW252594   9.144   2.791   2.040 -1.9751  1.7203 -0.8670
15182SOL     OW52595   2.559   1.755   0.993  0.0973  0.0337 -0.1228
15182SOL    HW152596   2.632   1.713   1.038  0.0680  1.5211  1.4111
15182SOL    HW252597   2.560   1.845   1.025 -0.8073  0.7970 -2.0860
15183SOL     OW52598   5.351   7.572   3.506 -0.3099 -0.1997 -0.1730
15183SOL    HW152599   5.310   7.567   3.592  1.8169  0.7774  0.9688
15183SOL    HW252600   5.330   7.660   3.474 -1.2474 -0.6238 -0.7654
15184SOL     OW52601   0.745   9.584  11.398 -0.5602 -0.0513  0.1097
15184SOL    HW152602   0.690   9.661  11.411 -0.6962  0.1383 -1.3357
15184SOL    HW252603   0.834   9.619  11.394 -0.5063 -0.1262  0.6888
15185SOL     OW52604   3.859   1.301   3.610 -0.2769 -0.2536  0.0603
15185SOL    HW152605   3.837   1.254   3.530 -1.0527  1.7004 -0.9534
15185SOL    HW252606   3.851   1.236   3.680  0.0825 -1.9205 -1.3844
15186SOL     OW52607   2.127   3.701   4.135  0.0975  0.1696 -0.0355
15186SOL    HW152608   2.091   3.616   4.160  2.1770 -0.4121  1.1473
15186SOL    HW252609   2.057   3.742   4.084 -1.3088 -1.8438  0.1650
15187SOL     OW52610   7.617   6.639  12.251 -0.0655 -0.0791 -0.2746
15187SOL    HW152611   7.707   6.625  12.282 -0.0492  1.5463  0.5055
15187SOL    HW252612   7.562   6.598  12.319  0.0331  1.6699  0.9212
15188SOL     OW52613   2.426   2.117   4.132  0.6520 -0.5411 -0.3577
15188SOL    HW152614   2.420   2.199   4.183  1.8120  0.3698 -1.6184
15188SOL    HW252615   2.413   2.048   4.197 -1.5018  0.6359  0.5752
15189SOL     OW52616   4.724   6.165   1.690  0.0677 -0.0805 -0.6268
15189SOL    HW152617   4.767   6.087   1.653  0.2247  0.0873 -0.8011
15189SOL    HW252618   4.791   6.206   1.744  0.2924  0.4642 -1.3107
15190SOL     OW52619   7.720   1.413   5.595 -0.5047 -0.3639  0.2407
15190SOL    HW152620   7.764   1.472   5.656 -0.1344 -1.5138  1.1216
15190SOL    HW252621   7.627   1.421   5.618 -0.3608 -0.8409  1.0093
15191SOL     OW52622   1.149   2.322   0.459  0.0911  0.3139  0.1265
15191SOL    HW152623   1.133   2.357   0.547  2.9723 -0.4144  1.0482
15191SOL    HW252624   1.165   2.399   0.405 -3.1038  0.8828 -0.2456
15192SOL     OW52625   7.907   4.913   5.671 -0.6107  0.4613  0.4869
15192SOL    HW152626   7.878   4.978   5.606 -1.2009 -0.8828 -0.6567
15192SOL    HW252627   7.997   4.939   5.691 -0.0016  0.3295 -1.7154
15193SOL     OW52628   6.281   9.105   6.515  0.0179  0.2241 -0.1930
15193SOL    HW152629   6.284   9.018   6.475 -0.6110  1.2976 -2.7867
15193SOL    HW252630   6.294   9.165   6.442  0.4513  2.3327  1.5289
15194SOL     OW52631   1.215   3.752   6.485  0.6016 -0.0025 -0.1011
15194SOL    HW152632   1.137   3.724   6.437 -0.3440  1.3211  0.6152
15194SOL    HW252633   1.206   3.711   6.572  0.2914  0.7893  0.2458
15195SOL     OW52634   5.473   1.909   4.484  0.1807  0.8373  0.2852
15195SOL    HW152635   5.467   2.002   4.505  1.6434  0.8154  0.8836
15195SOL    HW252636   5.505   1.906   4.394 -1.8037  0.8961 -0.4684
15196SOL     OW52637  12.445   0.143   0.696 -0.2328  0.4153  0.0420
15196SOL    HW152638  12.500   0.171   0.770  1.0913 -0.2232 -0.6587
15196SOL    HW252639  12.421   0.225   0.652 -0.1233  0.7261  0.5491
15197SOL     OW52640   0.062   5.122   3.974 -0.3644 -0.1369 -0.8112
15197SOL    HW152641   0.017   5.161   4.049  0.1718  0.9283 -1.0191
15197SOL    HW252642   0.031   5.031   3.972 -0.6157 -0.1065  0.5140
15198SOL     OW52643  11.013   5.881  10.022  0.0726 -0.2821  0.6154
15198SOL    HW152644  11.001   5.960  10.076 -1.8770  0.4508 -0.7892
15198SOL    HW252645  11.026   5.811  10.085 -0.8063  0.7435  1.9932
15199SOL     OW52646   7.794   9.536   0.034  0.6971  0.3185 -0.2167
15199SOL    HW152647   7.731   9.470   0.003  0.2084  0.5041  0.3447
15199SOL    HW252648   7.792   9.604  -0.033  1.8235 -0.6005 -1.2173
15200SOL     OW52649   5.146  11.773  12.228  0.1840  0.0151  0.2915
15200SOL    HW152650   5.114  11.854  12.190  1.0361  0.9550  1.5051
15200SOL    HW252651   5.172  11.719  12.153  1.8030  1.8020 -0.5146
15201SOL     OW52652  10.975  12.427   7.762  0.0042 -0.0328 -0.0044
15201SOL    HW152653  11.052  12.466   7.803  0.6570 -0.8279 -0.4413
15201SOL    HW252654  10.962  12.477   7.682 -0.9036  1.1254  0.8311
15202SOL     OW52655   2.891   4.051  10.163 -0.3260  0.1545 -0.4227
15202SOL    HW152656   2.957   4.054  10.093 -0.6693  0.5123 -0.7361
15202SOL    HW252657   2.872   4.143  10.183 -0.6378  0.0551 -0.2491
15203SOL     OW52658   9.302   5.757   4.029  0.0027 -0.4453  0.0485
15203SOL    HW152659   9.272   5.707   3.953 -0.7605  1.0915 -0.7058
15203SOL    HW252660   9.392   5.727   4.042  0.6648  0.2139 -2.3769
15204SOL     OW52661   6.435   6.601   1.734 -0.4284 -0.3392  0.2510
15204SOL    HW152662   6.477   6.664   1.793 -0.5774  0.1164 -0.1265
15204SOL    HW252663   6.413   6.526   1.791  0.9650 -0.6329  0.4361
15205SOL     OW52664   2.863   0.943  10.737 -0.1439 -0.0778  0.9278
15205SOL    HW152665   2.817   1.007  10.790  0.9824  0.3878  1.3734
15205SOL    HW252666   2.956   0.960  10.753  0.2206 -0.2353 -0.8344
15206SOL     OW52667   5.560   9.956   9.911  0.5766 -0.4578 -0.1419
15206SOL    HW152668   5.616  10.030   9.936  0.9135 -0.8121  0.1558
15206SOL    HW252669   5.507   9.939   9.988  0.4014 -0.4423 -0.2576
15207SOL     OW52670   3.506   9.482   5.019  0.6257 -0.5572  0.2370
15207SOL    HW152671   3.582   9.502   5.074  1.8995 -0.1421 -1.5516
15207SOL    HW252672   3.507   9.550   4.952  0.0391 -1.8641 -1.1550
15208SOL     OW52673   3.223   9.468  12.187 -0.0332 -0.1229  0.0858
15208SOL    HW152674   3.291   9.415  12.146  1.3969 -0.9320  3.1914
15208SOL    HW252675   3.244   9.558  12.163  0.5062 -0.5485 -1.1536
15209SOL     OW52676  10.790   4.443  12.008 -0.1410 -0.7918 -0.4775
15209SOL    HW152677  10.839   4.417  12.086  1.0298 -0.1877 -0.9740
15209SOL    HW252678  10.854   4.438  11.937 -0.7870  0.0881 -1.1463
15210SOL     OW52679   4.696   6.438   3.389 -0.3915 -0.0208  0.0954
15210SOL    HW152680   4.749   6.421   3.311 -2.7050 -0.3349 -1.5174
15210SOL    HW252681   4.747   6.402   3.461  1.1645 -1.1140 -1.4764
15211SOL     OW52682   3.977   5.268  12.553  0.1578  0.4992 -0.4564
15211SOL    HW152683   3.967   5.293  12.461  1.1537  0.9596 -0.4493
15211SOL    HW252684   3.912   5.199  12.566 -1.0427  1.4588 -1.1084
15212SOL     OW52685   5.821   4.888   0.754 -0.2738  0.0390 -0.1607
15212SOL    HW152686   5.888   4.823   0.771 -0.5357 -0.4751 -1.0071
15212SOL    HW252687   5.864   4.972   0.769 -0.0393 -0.3263  1.2965
15213SOL     OW52688   8.133   5.111   6.012  0.0034 -0.1834 -0.2241
15213SOL    HW152689   8.152   5.065   6.094 -0.8598  0.4507  0.3620
15213SOL    HW252690   8.183   5.192   6.018  0.0863 -0.2203 -0.4112
15214SOL     OW52691   3.026   1.557   2.704  0.7538  0.1262 -0.2669
15214SOL    HW152692   3.055   1.522   2.620  0.1394 -0.4101 -0.2635
15214SOL    HW252693   2.969   1.630   2.682 -0.2497 -0.6591 -0.3626
15215SOL     OW52694   3.851   0.656   8.315  0.6647 -0.4563 -0.1747
15215SOL    HW152695   3.760   0.630   8.331 -0.4883  3.1705 -0.0164
15215SOL    HW252696   3.867   0.729   8.375  3.6681 -0.8305 -0.3322
15216SOL     OW52697   2.533   8.233   2.608  0.1992 -0.0608 -1.1895
15216SOL    HW152698   2.449   8.194   2.632  0.5744  0.1734  0.6629
15216SOL    HW252699   2.584   8.160   2.573  0.1257 -0.7770  0.1586
15217SOL     OW52700   9.494   9.269   2.885  0.7013  0.1173 -0.0590
15217SOL    HW152701   9.429   9.263   2.955  1.3635 -1.1395  0.4859
15217SOL    HW252702   9.453   9.324   2.819 -0.2901  0.6157  0.9338
15218SOL     OW52703   9.058  11.560   6.658  0.6391 -0.0375  0.3924
15218SOL    HW152704   9.086  11.489   6.600 -0.4848 -0.7358  0.6767
15218SOL    HW252705   9.015  11.515   6.731  0.8236  0.8970  1.0927
15219SOL     OW52706   5.351   5.345  12.009 -0.0633 -0.1817 -0.3179
15219SOL    HW152707   5.446   5.345  11.999 -0.0798 -0.0043 -0.4816
15219SOL    HW252708   5.334   5.280  12.078  0.1806 -0.1587 -0.2348
15220SOL     OW52709   9.847   1.974  10.616  0.4789 -0.4723  0.0583
15220SOL    HW152710   9.774   1.935  10.567  0.6572 -0.1175 -0.4982
15220SOL    HW252711   9.804   2.032  10.680  0.2749  0.6259 -1.0228
15221SOL     OW52712   0.457  12.077   2.602  0.4083 -0.1694 -0.2979
15221SOL    HW152713   0.455  12.127   2.684  0.3283  2.7178 -1.9259
15221SOL    HW252714   0.405  11.999   2.620  0.1851  0.4838  2.3029
15222SOL     OW52715   2.412   2.693   0.609  0.0787 -0.3528  0.0313
15222SOL    HW152716   2.351   2.717   0.679 -0.0004 -1.0617  0.2128
15222SOL    HW252717   2.495   2.733   0.635 -0.1563  0.1027  0.0930
15223SOL     OW52718   6.208   0.432   6.532 -0.7157  0.3553 -0.6227
15223SOL    HW152719   6.155   0.369   6.581  0.7029 -0.4968 -0.1066
15223SOL    HW252720   6.189   0.516   6.574 -1.5060  0.0392 -0.3261
15224SOL     OW52721   7.063   2.408   8.979  0.5124 -0.1664 -0.2984
15224SOL    HW152722   7.060   2.329   8.926  0.3086 -0.8255  0.6827
15224SOL    HW252723   7.156   2.428   8.988  0.5326  0.3724 -1.4905
15225SOL     OW52724   2.108   7.290   1.877  0.5995 -0.0625  0.1700
15225SOL    HW152725   2.058   7.248   1.807 -0.6301  2.1014 -0.3170
15225SOL    HW252726   2.193   7.245   1.875 -0.3473 -1.9252 -0.8366
15226SOL     OW52727   9.780  12.566   6.363 -0.4191  0.0629  0.4932
15226SOL    HW152728   9.750  12.595   6.449 -2.2553 -0.1245 -0.0396
15226SOL    HW252729   9.712  12.596   6.302  1.3349  1.1117 -1.0688
15227SOL     OW52730   2.855   5.004   0.487  0.5044  0.1858 -0.3518
15227SOL    HW152731   2.806   4.992   0.568  0.7723 -1.2322 -0.3734
15227SOL    HW252732   2.805   5.070   0.439 -1.3976 -1.1413 -0.3319
15228SOL     OW52733   4.109   9.358   3.173  0.4518  0.2662 -0.1712
15228SOL    HW152734   4.147   9.273   3.196  2.6206  1.1309 -0.3739
15228SOL    HW252735   4.109   9.360   3.078  1.8947  1.0887 -0.1762
15229SOL     OW52736   3.058   0.428   5.863  0.2733  0.0038 -0.5088
15229SOL    HW152737   3.053   0.454   5.955  0.3679 -0.7120 -0.2976
15229SOL    HW252738   3.001   0.351   5.857  0.3358 -0.0026 -1.0267
15230SOL     OW52739   0.606  10.819   0.991  0.8718  0.1222  0.1024
15230SOL    HW152740   0.610  10.898   1.045 -0.8760 -0.2156  0.7943
15230SOL    HW252741   0.686  10.822   0.939  2.7116  0.3850  2.7726
15231SOL     OW52742   4.505   9.017   0.857 -0.4134 -0.0554 -0.4567
15231SOL    HW152743   4.558   8.977   0.787  0.6520 -0.4114  0.5268
15231SOL    HW252744   4.498   8.948   0.923 -2.4347 -0.1414 -0.6997
15232SOL     OW52745  11.008  12.300   7.405  0.1117  0.4254 -0.7407
15232SOL    HW152746  11.038  12.311   7.315  0.0174  1.9474 -0.6121
15232SOL    HW252747  10.920  12.262   7.396  0.3840 -0.1050 -1.2514
15233SOL     OW52748  11.859   0.319   5.918 -0.5751  0.0708  0.3238
15233SOL    HW152749  11.854   0.247   5.981  1.1410 -1.4247 -1.1681
15233SOL    HW252750  11.952   0.330   5.900 -0.7457  2.7989  0.5573
15234SOL     OW52751   2.253   8.232   6.614 -0.6004 -0.4592  0.1054
15234SOL    HW152752   2.171   8.281   6.613 -0.3570  0.0449 -2.5624
15234SOL    HW252753   2.244   8.168   6.544  0.2618 -2.2988  1.5936
15235SOL     OW52754   2.059  11.757   0.928 -0.5468  0.0941  0.7404
15235SOL    HW152755   2.152  11.776   0.930 -0.2547 -1.2554  1.3534
15235SOL    HW252756   2.035  11.760   0.836 -0.2255  1.8263  0.6799
15236SOL     OW52757   6.943   8.663   5.845 -0.4954 -0.1991 -0.4873
15236SOL    HW152758   6.925   8.713   5.925  0.4431 -0.5395 -0.0476
15236SOL    HW252759   6.948   8.572   5.874  1.6001 -0.1761 -0.5782
15237SOL     OW52760   3.311   1.785  10.688 -0.1433  0.1323  0.0790
15237SOL    HW152761   3.351   1.863  10.648  0.1237  0.1772  0.4303
15237SOL    HW252762   3.305   1.806  10.781 -0.4844 -0.0924  0.1088
15238SOL     OW52763   3.650   9.179   1.835  0.4104  0.1132  0.6251
15238SOL    HW152764   3.564   9.173   1.877  0.6713 -0.4749  1.0825
15238SOL    HW252765   3.711   9.192   1.908  0.6541  1.1124  0.2574
15239SOL     OW52766   4.437   2.576   7.550 -0.0760  0.2249  0.3971
15239SOL    HW152767   4.482   2.661   7.557  1.7310 -0.5751 -0.7634
15239SOL    HW252768   4.501   2.513   7.584 -0.9184 -0.8101  0.0970
15240SOL     OW52769  10.369   8.422   5.746  0.3477  0.2672  0.3581
15240SOL    HW152770  10.390   8.351   5.686  0.4713  1.0060 -0.4885
15240SOL    HW252771  10.358   8.379   5.831  1.5866 -0.6138  0.0954
15241SOL     OW52772   3.565  12.285  11.973  0.0314  0.7690  0.6959
15241SOL    HW152773   3.641  12.265  11.920 -1.4912  0.4289 -1.5061
15241SOL    HW252774   3.517  12.351  11.923 -1.1932  0.8863  1.9329
15242SOL     OW52775   7.947  11.167  11.221  0.1488  0.2496  0.3371
15242SOL    HW152776   7.965  11.261  11.213  0.7687  0.1710  0.7492
15242SOL    HW252777   7.852  11.160  11.211  0.3798  0.4770 -3.6703
15243SOL     OW52778   8.130   7.239  11.492 -0.3339 -0.3329 -0.1191
15243SOL    HW152779   8.185   7.190  11.430  0.6911  2.2403 -1.3865
15243SOL    HW252780   8.186   7.252  11.568  0.4488  1.2057 -0.9125
15244SOL     OW52781  11.086  10.742   0.732 -0.4154 -0.0510  0.3166
15244SOL    HW152782  11.164  10.771   0.778 -0.1287  0.1833 -0.3113
15244SOL    HW252783  11.110  10.657   0.696 -0.3845  0.1132 -0.0485
15245SOL     OW52784   1.767   7.967   8.371  0.1025  0.6125 -0.1424
15245SOL    HW152785   1.734   7.886   8.334 -1.6824  0.6636  1.1904
15245SOL    HW252786   1.862   7.958   8.369 -0.0603 -1.5576  0.0479
15246SOL     OW52787   4.522   1.163  10.927  0.3714 -0.2116 -0.3942
15246SOL    HW152788   4.470   1.223  10.980 -0.9079 -1.6094  0.0225
15246SOL    HW252789   4.598   1.143  10.981  0.9379  1.1790 -0.6396
15247SOL     OW52790   4.642   6.039   2.162  0.1987 -0.3602  0.4084
15247SOL    HW152791   4.578   6.109   2.146 -0.0475 -0.6526  0.0652
15247SOL    HW252792   4.707   6.078   2.220  1.6796  1.1042 -2.0633
15248SOL     OW52793   4.806   8.784  10.530  0.7104 -0.0913 -0.5084
15248SOL    HW152794   4.759   8.735  10.461  2.9815 -2.2290 -0.6841
15248SOL    HW252795   4.862   8.844  10.482 -0.1641  0.8564 -0.3694
15249SOL     OW52796   0.072   1.934   1.492 -0.1473 -0.3771  0.0216
15249SOL    HW152797   0.154   1.898   1.526 -1.4703 -1.5308  2.2764
15249SOL    HW252798   0.049   1.877   1.419  1.2007  0.1576 -0.8382
15250SOL     OW52799  11.686  11.505  10.450  0.1455  0.0945 -0.5445
15250SOL    HW152800  11.652  11.472  10.534  0.1694  0.7312 -0.2837
15250SOL    HW252801  11.756  11.443  10.427  0.1998 -0.0306 -0.0522
15251SOL     OW52802   3.082  11.340  10.437  0.0045  0.1489  0.6697
15251SOL    HW152803   3.084  11.332  10.532  0.9505  2.6344  0.9392
15251SOL    HW252804   3.036  11.422  10.421  0.0897 -0.1035 -1.0334
15252SOL     OW52805   8.226  11.480  10.840  0.2420 -0.4522  0.0792
15252SOL    HW152806   8.265  11.551  10.892  0.5542  0.5478 -1.4725
15252SOL    HW252807   8.131  11.495  10.848  0.3056  0.7682 -1.0006
15253SOL     OW52808  10.014  10.049  11.733  0.0107  0.1929 -0.3457
15253SOL    HW152809  10.072   9.980  11.766 -0.9643 -0.4658  0.0542
15253SOL    HW252810  10.073  10.116  11.699  1.0237 -1.7287 -2.6929
15254SOL     OW52811   6.299  10.065   3.640 -0.1078  0.5678 -0.2413
15254SOL    HW152812   6.355  10.019   3.577  0.6657  3.3230 -1.7443
15254SOL    HW252813   6.221  10.010   3.647  0.7188 -0.9338 -1.9020
15255SOL     OW52814   8.133   6.166   6.618 -0.4742  0.0401 -0.1834
15255SOL    HW152815   8.202   6.218   6.661  0.1827 -0.3359 -0.7584
15255SOL    HW252816   8.071   6.146   6.688 -1.9797  3.5043 -0.3314
15256SOL     OW52817   4.001  11.653   2.079 -0.5690 -0.0680  0.4545
15256SOL    HW152818   3.935  11.709   2.039 -0.2272 -0.4050 -0.5900
15256SOL    HW252819   4.037  11.706   2.150 -3.4730 -0.6450  2.5559
15257SOL     OW52820   8.706   8.489   6.494  0.1269  0.4280 -0.2281
15257SOL    HW152821   8.725   8.581   6.479  0.4041  0.3811 -0.1716
15257SOL    HW252822   8.611   8.486   6.507  0.1888  0.7894  0.3634
15258SOL     OW52823  10.630   5.642   7.167  0.1438 -0.3262  0.0543
15258SOL    HW152824  10.651   5.710   7.103 -0.8475  0.8704  0.9544
15258SOL    HW252825  10.678   5.565   7.137 -0.1522  0.2355 -2.0270
15259SOL     OW52826   0.977   7.759   5.302  0.2124  0.4128 -0.3519
15259SOL    HW152827   0.965   7.687   5.363  0.9811 -0.8806 -1.6550
15259SOL    HW252828   1.022   7.826   5.352  1.0884 -0.7234  0.4271
15260SOL     OW52829   9.181   2.124  11.156  0.6713 -0.3453 -0.2155
15260SOL    HW152830   9.202   2.110  11.248  1.1098  0.6592 -0.1584
15260SOL    HW252831   9.148   2.214  11.151 -2.3999 -1.3753 -0.5284
15261SOL     OW52832   6.437   1.678   8.342  0.2582 -0.1596  0.0170
15261SOL    HW152833   6.376   1.618   8.299  0.8378  0.3667 -1.6536
15261SOL    HW252834   6.523   1.638   8.327  0.6561  1.0556 -1.1727
15262SOL     OW52835   2.143  11.502  11.175 -0.3622 -0.0045 -0.4162
15262SOL    HW152836   2.148  11.590  11.212  0.0728  0.2463 -1.0496
15262SOL    HW252837   2.094  11.513  11.094 -0.2071 -0.3280 -0.5564
15263SOL     OW52838   5.860  10.643   1.938 -0.1117  0.2093 -0.4026
15263SOL    HW152839   5.913  10.698   1.881 -0.7753 -0.4355 -1.6878
15263SOL    HW252840   5.914  10.565   1.953  0.6301  0.9749  1.0200
15264SOL     OW52841   1.292  11.636   1.092 -0.0050  0.4965 -0.1502
15264SOL    HW152842   1.245  11.716   1.115 -1.8211  0.0991 -2.1218
15264SOL    HW252843   1.225  11.567   1.094  1.3337 -0.8560  0.6484
15265SOL     OW52844   8.338   1.229   3.452  0.0429  0.6365 -0.0198
15265SOL    HW152845   8.331   1.134   3.462 -0.6295  0.7099  0.2107
15265SOL    HW252846   8.382   1.258   3.532 -0.4553  0.6054  0.2689
15266SOL     OW52847   2.168   0.182   2.294  0.3447  1.0696 -0.1461
15266SOL    HW152848   2.129   0.263   2.262  1.9623  1.5735 -0.9920
15266SOL    HW252849   2.197   0.202   2.383  1.4580  1.7252 -0.6262
15267SOL     OW52850   6.906  12.449   4.706 -0.1541  0.6172  0.4584
15267SOL    HW152851   6.823  12.466   4.750  0.3404  0.0283  1.6602
15267SOL    HW252852   6.970  12.500   4.754  0.2930  0.5236 -0.0242
15268SOL     OW52853   4.454   8.834   3.468 -0.2211  0.0376 -0.5268
15268SOL    HW152854   4.549   8.842   3.469 -0.0938 -0.2425 -2.9834
15268SOL    HW252855   4.424   8.921   3.441 -0.7744  0.4238  1.1999
15269SOL     OW52856   1.332   9.285   5.965 -0.3376  0.0474  0.4741
15269SOL    HW152857   1.259   9.261   5.907 -0.1950  0.3352  0.1791
15269SOL    HW252858   1.295   9.352   6.023 -0.1825  0.5159  0.0348
15270SOL     OW52859   1.030   4.519  10.694 -0.0292 -0.1043  0.2125
15270SOL    HW152860   1.093   4.465  10.741  0.9546 -0.9797 -1.9698
15270SOL    HW252861   1.006   4.588  10.756  1.5516 -0.9058  1.7862
15271SOL     OW52862   1.617   1.680  11.126  0.5713 -0.2913 -0.4990
15271SOL    HW152863   1.541   1.709  11.076  0.3727 -1.5661 -0.9794
15271SOL    HW252864   1.675   1.641  11.061  0.3112 -1.9888  0.2216
15272SOL     OW52865   3.554   5.075   0.570  0.2219 -0.2505  0.0291
15272SOL    HW152866   3.562   5.112   0.658  1.0586  0.0593 -0.1690
15272SOL    HW252867   3.627   5.014   0.563  0.6082  0.2729 -0.7054
15273SOL     OW52868   9.114   0.878   0.324  0.1454  0.0719 -0.3706
15273SOL    HW152869   9.172   0.903   0.252 -1.4855  1.0711 -1.4003
15273SOL    HW252870   9.029   0.866   0.283 -0.9406  1.1657  1.4582
15274SOL     OW52871  11.418   5.632   5.614  0.0667 -0.2057 -0.2931
15274SOL    HW152872  11.391   5.724   5.615 -0.7637 -0.4216 -1.0160
15274SOL    HW252873  11.499   5.629   5.664 -0.4430  0.7488  0.6160
15275SOL     OW52874  12.298   5.930   8.869  0.2642  0.1447  0.2321
15275SOL    HW152875  12.365   5.927   8.937  0.6382  1.0859 -0.0910
15275SOL    HW252876  12.271   6.022   8.864  1.0798  0.3256 -1.6880
15276SOL     OW52877   6.533   7.421  10.308  0.6787  0.0818  0.0722
15276SOL    HW152878   6.449   7.417  10.262  1.4544 -0.9672 -1.3502
15276SOL    HW252879   6.533   7.506  10.351 -0.9175  0.2858 -0.2615
15277SOL     OW52880   0.318  12.455  11.031  0.1042  0.3884  0.0563
15277SOL    HW152881   0.295  12.466  11.123 -1.2863 -3.3249  0.3239
15277SOL    HW252882   0.236  12.465  10.984  0.0935 -1.3078 -0.3326
15278SOL     OW52883  11.654   6.228   9.266 -0.0152  0.1614  0.0891
15278SOL    HW152884  11.677   6.321   9.261  1.4897 -0.1213  1.0307
15278SOL    HW252885  11.627   6.215   9.356  0.8740 -0.5234  0.2715
15279SOL     OW52886  12.239  11.377   6.168 -0.0736 -0.2848  0.1230
15279SOL    HW152887  12.249  11.463   6.209 -0.4641  0.1712 -0.6967
15279SOL    HW252888  12.169  11.389   6.103 -1.2422 -1.6389  1.0710
15280SOL     OW52889   5.839   1.736   0.213  0.0321 -0.2903  0.3743
15280SOL    HW152890   5.916   1.721   0.158 -0.0465  0.2042  0.1274
15280SOL    HW252891   5.764   1.721   0.155 -0.0676 -1.2138  0.7305
15281SOL     OW52892   3.352  11.815   8.642 -0.1288  0.5580 -0.0985
15281SOL    HW152893   3.421  11.753   8.666 -1.5301 -0.5651  1.1866
15281SOL    HW252894   3.370  11.836   8.551  2.4171  0.9996  0.4155
15282SOL     OW52895   1.612   9.481   9.209  0.5957 -0.4817 -0.9355
15282SOL    HW152896   1.544   9.548   9.215  1.1301  0.0770 -1.0070
15282SOL    HW252897   1.681   9.521   9.156  0.3240 -1.6055 -2.2127
15283SOL     OW52898   2.644  11.307   2.303  0.4668  0.3898 -0.3245
15283SOL    HW152899   2.611  11.330   2.390  2.0417  1.1127  0.1115
15283SOL    HW252900   2.617  11.216   2.291  2.6442 -0.7327  2.1884
15284SOL     OW52901   5.936   5.746  10.623  0.0703  0.5265  0.1646
15284SOL    HW152902   5.879   5.712  10.554 -1.1505  0.9480  0.9527
15284SOL    HW252903   5.982   5.819  10.582  0.0670  0.1843 -0.4726
15285SOL     OW52904  11.228   0.657  11.819  0.6040 -0.1529 -0.0248
15285SOL    HW152905  11.173   0.606  11.760 -1.8230  0.1340  1.7893
15285SOL    HW252906  11.231   0.744  11.780 -1.5905  0.2336  0.5008
15286SOL     OW52907   1.667   3.397   5.188 -0.3204  0.0065  0.6749
15286SOL    HW152908   1.629   3.386   5.275  1.4186  2.0652  1.8161
15286SOL    HW252909   1.759   3.373   5.198 -0.2128 -0.2954 -0.7639
15287SOL     OW52910   8.824   5.631   3.677  0.2315 -0.1266  0.0552
15287SOL    HW152911   8.895   5.680   3.636  0.2498  0.4756  0.7865
15287SOL    HW252912   8.862   5.545   3.697  0.4404 -0.1656 -0.5049
15288SOL     OW52913  11.373  11.011   4.419 -0.1914 -0.2301 -0.0997
15288SOL    HW152914  11.291  10.962   4.426  0.7668 -1.7818  1.0950
15288SOL    HW252915  11.439  10.951   4.453  1.2589  1.4353  0.1718
15289SOL     OW52916  10.913  10.103  10.122  0.3510 -0.1012  0.4645
15289SOL    HW152917  11.000  10.096  10.159  0.7944 -0.5814 -0.6128
15289SOL    HW252918  10.922  10.067  10.033 -0.8202  0.3209  0.1569
15290SOL     OW52919   7.176   6.505   5.316 -0.8695  0.3305  0.0758
15290SOL    HW152920   7.206   6.534   5.402 -0.5606  0.0563  0.0653
15290SOL    HW252921   7.218   6.420   5.304  0.5193  1.1374 -1.0954
15291SOL     OW52922   3.857  11.556   0.056 -0.3964  0.3421  0.0807
15291SOL    HW152923   3.766  11.581   0.046 -0.6289 -0.2614  0.6293
15291SOL    HW252924   3.896  11.628   0.106 -0.4403  0.8427 -0.5811
15292SOL     OW52925  11.814   5.262  11.021  0.0332 -0.0351  0.0882
15292SOL    HW152926  11.781   5.309  11.098  0.8553  0.7622 -0.0261
15292SOL    HW252927  11.834   5.174  11.053 -1.4971 -0.3370  0.3123
15293SOL     OW52928   6.506   4.883   1.758  0.1713 -0.0594 -0.2474
15293SOL    HW152929   6.511   4.796   1.797  0.5990 -0.9604 -2.1934
15293SOL    HW252930   6.558   4.938   1.817  0.1240 -1.1670  0.8750
15294SOL     OW52931   1.212   2.934   2.239 -0.3118  0.1606 -0.3955
15294SOL    HW152932   1.153   2.961   2.309 -0.6910  0.3307 -0.7766
15294SOL    HW252933   1.296   2.920   2.283 -0.6316 -0.0832  0.1474
15295SOL     OW52934   9.551   5.602   6.057 -0.4540 -0.1319  0.2451
15295SOL    HW152935   9.503   5.684   6.063  1.3239  0.9730  0.1101
15295SOL    HW252936   9.490   5.536   6.091 -2.0849  1.1470 -0.0739
15296SOL     OW52937  10.824   4.201   7.597  0.2869 -0.5787  0.1567
15296SOL    HW152938  10.734   4.189   7.567  0.1033 -0.8518  0.8018
15296SOL    HW252939  10.863   4.113   7.590  0.9389 -0.2124 -1.4552
15297SOL     OW52940  11.987   8.704  10.587 -0.2644  0.2442  0.3314
15297SOL    HW152941  11.998   8.780  10.642  1.1468  0.2729  0.0289
15297SOL    HW252942  11.955   8.636  10.646 -1.9720  1.1498  0.5193
15298SOL     OW52943   8.582   1.816   2.842  0.2726 -0.5122  0.8727
15298SOL    HW152944   8.560   1.894   2.791  0.3152 -1.0665  0.0033
15298SOL    HW252945   8.676   1.825   2.858  0.3018 -0.4496  0.6698
15299SOL     OW52946   3.798   9.111   3.749 -0.3978 -0.4593  0.1706
15299SOL    HW152947   3.727   9.161   3.790 -2.1637 -1.1996 -1.8024
15299SOL    HW252948   3.855   9.177   3.711 -0.0990  0.1406  1.5832
15300SOL     OW52949   7.563   8.476  10.887  0.2345 -0.1915  0.5515
15300SOL    HW152950   7.618   8.546  10.851  1.1406 -0.9773  0.3390
15300SOL    HW252951   7.538   8.424  10.810 -0.6071  0.0055  0.6812
15301SOL     OW52952  10.324   8.556   4.976 -0.2036 -0.3173  0.0249
15301SOL    HW152953  10.367   8.536   5.060 -0.1399  0.8945  0.3003
15301SOL    HW252954  10.293   8.646   4.986  0.0998 -0.0333 -1.3817
15302SOL     OW52955  11.915   8.037   8.524  1.1395 -0.0219  0.6151
15302SOL    HW152956  11.932   7.957   8.574  1.1649 -0.4103 -0.0016
15302SOL    HW252957  11.902   8.104   8.590 -1.6932 -1.0709  1.2461
15303SOL     OW52958   8.666  11.136   4.020 -0.3497  0.6142 -0.8630
15303SOL    HW152959   8.759  11.121   4.038 -0.1210 -0.5065 -2.7338
15303SOL    HW252960   8.665  11.190   3.940 -1.3151  1.1801 -0.4899
15304SOL     OW52961   3.952   9.591   1.103  0.0303 -0.4937 -0.2802
15304SOL    HW152962   3.965   9.571   1.010 -0.3811 -0.3929 -0.3601
15304SOL    HW252963   4.018   9.537   1.148 -0.7047 -1.6355 -0.5322
15305SOL     OW52964  10.879   6.080   2.749  0.0259 -0.6547 -0.2312
15305SOL    HW152965  10.819   6.097   2.822  1.0645 -1.0256  0.7322
15305SOL    HW252966  10.871   6.158   2.694 -0.0026  0.1222  0.8270
15306SOL     OW52967   9.000   2.954  10.558 -0.0141 -0.1200 -0.1837
15306SOL    HW152968   9.059   3.025  10.584 -0.6740  0.2698  0.2701
15306SOL    HW252969   8.984   2.905  10.638  0.0862 -0.5245 -0.4079
15307SOL     OW52970  12.015   4.293  11.630  0.3219 -0.5754 -0.9528
15307SOL    HW152971  12.022   4.243  11.549  0.5119 -0.8756 -0.7507
15307SOL    HW252972  11.922   4.289  11.652  0.6535 -2.8396  0.3183
15308SOL     OW52973   1.017  12.073   3.095  0.0098  0.0047  0.3701
15308SOL    HW152974   0.932  12.063   3.139 -1.5707 -0.3609 -2.4772
15308SOL    HW252975   1.042  12.164   3.112 -2.2430  0.9046 -0.6348
15309SOL     OW52976   7.083   1.993   1.332  0.2210 -0.2012  0.0836
15309SOL    HW152977   7.093   1.905   1.367  0.3930 -0.1417  0.1870
15309SOL    HW252978   7.164   2.038   1.356  0.5371 -0.2884 -0.7870
15310SOL     OW52979   7.400   4.008   3.155 -0.3610 -0.2209  0.7593
15310SOL    HW152980   7.420   3.962   3.073  0.5459 -0.4150  1.0686
15310SOL    HW252981   7.464   4.079   3.158 -1.6569  1.0056  0.3556
15311SOL     OW52982   9.106   5.702   3.638 -0.8661 -0.4928  0.2441
15311SOL    HW152983   9.150   5.624   3.605 -1.6255 -0.6249 -0.4993
15311SOL    HW252984   9.109   5.694   3.733  0.5952 -0.5517  0.2108
15312SOL     OW52985   6.921   5.447   5.498 -0.4615 -0.3960 -0.2069
15312SOL    HW152986   6.976   5.397   5.559 -0.5356  0.0332  0.2153
15312SOL    HW252987   6.915   5.391   5.421 -1.2795 -1.4435  0.5781
15313SOL     OW52988   2.514  10.644  10.400  0.1506 -0.3417  0.1632
15313SOL    HW152989   2.598  10.604  10.422  0.2738 -0.2378 -0.1125
15313SOL    HW252990   2.508  10.635  10.305 -0.2044 -0.4537  0.1962
15314SOL     OW52991   9.147   3.506   0.442  0.2610 -0.4367  0.1576
15314SOL    HW152992   9.110   3.565   0.376  0.4476 -0.3640  0.1175
15314SOL    HW252993   9.165   3.563   0.517  1.2773 -0.2702 -0.1994
15315SOL     OW52994   5.800   8.281   4.956 -0.2375  0.0744 -0.2111
15315SOL    HW152995   5.772   8.222   4.886  0.2344 -1.5288  0.8867
15315SOL    HW252996   5.823   8.222   5.028  0.9665  1.5886  0.6873
15316SOL     OW52997   0.687   3.765   2.220  0.2698 -0.1386 -0.1045
15316SOL    HW152998   0.745   3.780   2.295 -0.9349  1.2203  0.6232
15316SOL    HW252999   0.607   3.814   2.242  0.3748  1.4537 -2.8677
15317SOL     OW53000   4.345   5.872   9.426 -0.6207 -0.1692 -0.6474
15317SOL    HW153001   4.286   5.935   9.468  0.2220  0.5934 -0.5527
15317SOL    HW253002   4.299   5.843   9.348 -2.0380 -1.2764  0.5429
15318SOL     OW53003   2.204   0.302   7.209  0.2987 -0.1778 -0.6902
15318SOL    HW153004   2.295   0.272   7.205  0.3176 -0.1339 -0.6124
15318SOL    HW253005   2.152   0.223   7.196  0.3476 -0.0537 -1.7238
15319SOL     OW53006  10.029   1.700   9.193  0.3423 -0.4341  0.1727
15319SOL    HW153007   9.984   1.782   9.172  0.0204 -0.4165  0.9243
15319SOL    HW253008  10.014   1.644   9.117  0.1544  0.0311 -0.1356
15320SOL     OW53009   7.237   2.307   7.728 -0.4002 -0.6436  0.2773
15320SOL    HW153010   7.291   2.278   7.655 -0.8703  0.3662 -0.4788
15320SOL    HW253011   7.275   2.391   7.754 -0.1928 -1.0243  1.2478
15321SOL     OW53012  11.984   6.786  10.799 -0.1070  0.1984  0.2084
15321SOL    HW153013  12.063   6.792  10.852  0.0511  1.5993 -0.1329
15321SOL    HW253014  11.993   6.856  10.734 -1.3563  0.0214 -0.1922
15322SOL     OW53015   7.550  10.563  12.187  0.0360 -0.1182  0.4044
15322SOL    HW153016   7.627  10.509  12.171  0.2317  0.3463 -0.2286
15322SOL    HW253017   7.585  10.651  12.201 -0.4634  0.3682 -1.2705
15323SOL     OW53018   7.467   1.177   8.272 -0.0251 -0.2527  0.4525
15323SOL    HW153019   7.535   1.153   8.210 -0.1254  1.5183 -0.4065
15323SOL    HW253020   7.510   1.236   8.334 -0.2132 -1.0744  1.4057
15324SOL     OW53021   5.479   4.726   4.766 -0.4012  0.4858  0.3692
15324SOL    HW153022   5.526   4.655   4.722 -0.9188  0.9238 -0.9293
15324SOL    HW253023   5.441   4.778   4.695 -1.9247  0.7781  1.3388
15325SOL     OW53024  11.146  11.088   1.115 -0.1688 -0.2689  0.1420
15325SOL    HW153025  11.160  11.168   1.064 -0.6153  0.0780  0.5466
15325SOL    HW253026  11.056  11.062   1.093 -0.4536  0.0202  0.9212
15326SOL     OW53027   0.778   4.459   0.037 -0.9470  0.3301 -0.2019
15326SOL    HW153028   0.709   4.397   0.014 -2.3694  0.8742  2.2396
15326SOL    HW253029   0.732   4.539   0.058  0.6865  1.5107 -0.9168
15327SOL     OW53030   6.399  12.235   9.044 -0.2307 -0.1960  0.2982
15327SOL    HW153031   6.412  12.308   9.104 -1.0150  1.7800 -1.7656
15327SOL    HW253032   6.328  12.264   8.986  0.1669 -2.1345 -1.2822
15328SOL     OW53033   2.929   0.802   7.155  0.0502  0.0895 -0.0936
15328SOL    HW153034   2.950   0.840   7.241  0.7857  1.9673 -1.0504
15328SOL    HW253035   2.884   0.720   7.176  2.6393 -0.9298  2.0965
15329SOL     OW53036   4.635   3.322  11.029  0.4011  0.3251 -0.4422
15329SOL    HW153037   4.637   3.228  11.043  0.3554  0.3670 -0.1427
15329SOL    HW253038   4.637   3.333  10.934 -0.3005  0.0025 -0.4955
15330SOL     OW53039  12.325   6.386   2.709 -0.0169  0.1864 -0.5201
15330SOL    HW153040  12.270   6.450   2.755 -0.6310  0.5490 -1.7136
15330SOL    HW253041  12.401   6.375   2.765 -0.3807  1.2023  0.2016
15331SOL     OW53042   3.153   5.765  12.103  0.4196  0.0290 -0.5449
15331SOL    HW153043   3.154   5.741  12.010 -0.2643 -0.7746 -0.3568
15331SOL    HW253044   3.145   5.860  12.103  2.6545  0.2707 -1.3068
15332SOL     OW53045   6.130   9.335   2.374  0.3325  0.5492  0.5924
15332SOL    HW153046   6.218   9.330   2.410  0.5075  0.4510  0.1598
15332SOL    HW253047   6.095   9.246   2.385  1.1306 -0.0598 -1.3069
15333SOL     OW53048   0.038   3.920   1.443  0.1547  0.4101  0.0477
15333SOL    HW153049  -0.014   3.975   1.502 -0.8622  0.6026 -0.9911
15333SOL    HW253050   0.058   3.976   1.368 -0.0190 -0.3075 -0.5543
15334SOL     OW53051   0.760   2.123   4.286  0.5791  0.1631  0.3103
15334SOL    HW153052   0.767   2.209   4.245  2.9091  0.1356  0.5351
15334SOL    HW253053   0.816   2.067   4.233  0.3473 -0.8516  1.1135
15335SOL     OW53054   4.071   8.727   2.990  0.6953  0.3280  0.2947
15335SOL    HW153055   4.064   8.705   3.083  0.9938 -1.7913 -0.1241
15335SOL    HW253056   3.983   8.714   2.956  0.2752  2.3835  0.4802
15336SOL     OW53057   9.743  11.396   6.983 -0.6166  0.0189 -0.1029
15336SOL    HW153058   9.673  11.352   7.031  0.7869 -0.9521  1.1537
15336SOL    HW253059   9.782  11.456   7.046  0.1139  0.0495 -0.5775
15337SOL     OW53060   7.543   8.014   6.822 -0.2174 -0.5031 -0.4948
15337SOL    HW153061   7.504   7.977   6.743 -1.3936 -0.0824 -0.1345
15337SOL    HW253062   7.512   7.957   6.893 -1.6956  0.8673  0.0115
15338SOL     OW53063   7.802   2.460  11.238 -0.3192 -0.3145 -0.0101
15338SOL    HW153064   7.858   2.425  11.169  1.6865 -0.1991  1.4697
15338SOL    HW253065   7.766   2.541  11.201  1.8822  0.5288 -0.4557
15339SOL     OW53066   1.692   0.367   6.772 -0.4661 -0.1966 -0.0876
15339SOL    HW153067   1.607   0.329   6.796 -0.5613  0.0364 -0.0574
15339SOL    HW253068   1.680   0.396   6.681 -0.7769  0.8671  0.2799
15340SOL     OW53069   0.423  11.301   4.416 -0.1349  0.3396 -0.0863
15340SOL    HW153070   0.392  11.301   4.506 -0.0249 -3.0003  0.0468
15340SOL    HW253071   0.353  11.345   4.367  0.1840  2.9905  1.6176
15341SOL     OW53072   2.424   2.499   9.169 -0.4728  0.0773  0.2413
15341SOL    HW153073   2.501   2.543   9.206  0.8448 -1.5777 -0.3876
15341SOL    HW253074   2.401   2.551   9.093  3.5716 -2.1897 -2.9481
15342SOL     OW53075   3.510   7.722   6.811  0.1746 -0.3955 -0.3735
15342SOL    HW153076   3.494   7.715   6.905  1.0391  1.2123 -0.0652
15342SOL    HW253077   3.534   7.814   6.798  1.8250 -0.9893 -1.8889
15343SOL     OW53078   7.393  12.504   1.182 -0.1827  0.0019 -0.2446
15343SOL    HW153079   7.365  12.424   1.138  0.5506 -0.3927 -0.0092
15343SOL    HW253080   7.359  12.575   1.128 -1.2071 -0.4582 -0.2245
15344SOL     OW53081   1.168  11.199  11.748 -0.6056  0.7640 -0.1194
15344SOL    HW153082   1.124  11.197  11.664 -1.4258 -2.3402  0.2406
15344SOL    HW253083   1.261  11.186  11.727 -1.1584 -4.3321 -0.6282
15345SOL     OW53084   7.686   9.678   7.184 -0.2551 -0.4020 -0.0250
15345SOL    HW153085   7.762   9.663   7.128 -0.2888 -0.7508  0.0185
15345SOL    HW253086   7.615   9.628   7.142 -0.6772  0.6010 -0.5278
15346SOL     OW53087   6.758   8.114   9.991 -0.0184  0.0560  0.5634
15346SOL    HW153088   6.725   8.100   9.902  2.3827  0.6525 -0.4961
15346SOL    HW253089   6.849   8.139   9.979  0.9597 -1.7439  3.3063
15347SOL     OW53090  12.232   2.234   3.429  0.2341 -0.4401  0.5619
15347SOL    HW153091  12.259   2.164   3.370 -1.9916 -1.4875  0.6942
15347SOL    HW253092  12.187   2.189   3.500 -3.6803  1.1597 -0.6658
15348SOL     OW53093  11.470   2.483   6.866  0.6723 -0.8701  0.2618
15348SOL    HW153094  11.400   2.441   6.916  0.3758 -0.3749  0.2650
15348SOL    HW253095  11.466   2.442   6.780  1.0750 -1.6053  0.5838
15349SOL     OW53096  11.379   3.733   6.330 -0.1280 -0.0002 -0.1485
15349SOL    HW153097  11.436   3.791   6.380  1.2287 -0.9785 -0.4776
15349SOL    HW253098  11.300   3.725   6.382  1.3002 -1.1399  2.0051
15350SOL     OW53099   1.316   5.241   9.585  0.0121  0.3841  0.1896
15350SOL    HW153100   1.389   5.192   9.547  0.2601 -0.0647  1.2272
15350SOL    HW253101   1.357   5.301   9.647 -0.5332 -0.1698  1.1015
15351SOL     OW53102   2.910  10.547   0.765 -0.0717  0.3251  0.1041
15351SOL    HW153103   2.886  10.489   0.838  1.0548  0.8145  0.8892
15351SOL    HW253104   2.840  10.535   0.701 -0.0848 -1.5936  0.4178
15352SOL     OW53105   1.842   2.364   7.586 -0.3578 -0.6171  0.2041
15352SOL    HW153106   1.881   2.292   7.636  0.7237 -0.3517 -0.2349
15352SOL    HW253107   1.802   2.420   7.652  0.7712 -0.4356  0.7637
15353SOL     OW53108  11.998   0.972   7.007 -0.1943  0.5716 -0.0537
15353SOL    HW153109  11.963   0.896   6.961  1.6172 -0.1970 -0.2479
15353SOL    HW253110  11.935   0.988   7.077 -0.6014 -1.1600  0.0354
15354SOL     OW53111   8.714   0.997   0.401  0.3098  0.4431  0.3031
15354SOL    HW153112   8.739   0.906   0.386 -0.8261 -0.1977  1.9770
15354SOL    HW253113   8.653   1.017   0.330  1.5243  0.3558 -0.8122
15355SOL     OW53114   2.584   3.177   8.844  0.0870 -0.3560  1.0444
15355SOL    HW153115   2.497   3.142   8.829  0.4231 -0.4818 -0.8195
15355SOL    HW253116   2.643   3.104   8.825  0.7025  0.5482 -0.7025
15356SOL     OW53117  11.590   2.489  11.473 -0.1981 -0.2600  0.1723
15356SOL    HW153118  11.658   2.444  11.424  1.6620  2.0979  0.4121
15356SOL    HW253119  11.630   2.571  11.500 -2.7200  0.6337  1.5415
15357SOL     OW53120   4.323   5.191   8.257  0.3907  0.2300  0.5519
15357SOL    HW153121   4.250   5.251   8.246 -0.0419 -0.1857  1.1374
15357SOL    HW253122   4.363   5.216   8.341  1.3676  0.9210 -0.0922
15358SOL     OW53123   3.796  11.798   0.905  0.0862 -0.4769  0.1802
15358SOL    HW153124   3.733  11.805   0.977 -0.4816 -0.0742 -0.3435
15358SOL    HW253125   3.790  11.707   0.878 -1.3959 -0.1182 -0.8379
15359SOL     OW53126   6.075   1.887   7.331 -0.3004  0.1382  0.3071
15359SOL    HW153127   6.053   1.979   7.339 -1.5721  0.0332 -1.3869
15359SOL    HW253128   6.145   1.873   7.395 -0.9730  1.9502  1.5149
15360SOL     OW53129   8.942   0.665   3.994 -0.1055 -0.3975 -0.0539
15360SOL    HW153130   8.979   0.658   3.906 -1.7091  0.0095 -0.8039
15360SOL    HW253131   8.942   0.759   4.013 -0.3722 -0.4266  0.1017
15361SOL     OW53132   3.682   4.574  11.318  0.3925 -0.6678 -0.3130
15361SOL    HW153133   3.641   4.628  11.385  0.1474 -1.2526  0.0191
15361SOL    HW253134   3.683   4.629  11.240  1.6990  0.4431  0.4319
15362SOL     OW53135  10.655   5.488   2.167 -0.1249 -0.8479 -0.3933
15362SOL    HW153136  10.582   5.544   2.194  0.3961  0.9316 -2.3999
15362SOL    HW253137  10.721   5.501   2.235 -0.6305 -0.2708  0.0033
15363SOL     OW53138   7.179   1.413   1.249 -0.2249  1.1315 -0.2591
15363SOL    HW153139   7.113   1.480   1.231 -1.4410 -0.3069 -1.4680
15363SOL    HW253140   7.257   1.444   1.202 -0.5126  2.0707 -0.1485
15364SOL     OW53141   9.699   3.473   5.477 -0.3696  0.0010 -0.5634
15364SOL    HW153142   9.752   3.417   5.420  0.9951 -0.3177  0.9637
15364SOL    HW253143   9.723   3.447   5.566 -1.0000  1.8316  0.1862
15365SOL     OW53144   0.993   2.684   9.362  0.0755  0.0514  0.1464
15365SOL    HW153145   0.940   2.686   9.282 -0.5321  1.1232  0.5541
15365SOL    HW253146   1.079   2.715   9.335 -0.2136  0.7048 -0.0526
15366SOL     OW53147   4.871   3.133   8.874 -0.1308  0.0236  0.1091
15366SOL    HW153148   4.960   3.119   8.840  0.7155  1.1933  1.7286
15366SOL    HW253149   4.816   3.079   8.817  1.3509  0.7615 -2.2037
15367SOL     OW53150   8.174  12.545   4.720  0.4111  0.2139 -0.5794
15367SOL    HW153151   8.184  12.631   4.681 -0.3742  0.3781 -0.4409
15367SOL    HW253152   8.086  12.517   4.696  0.0940  0.0939  0.6229
15368SOL     OW53153  12.451   7.152   4.475 -0.6689 -0.0402 -0.1993
15368SOL    HW153154  12.390   7.104   4.418 -2.3669  1.1066  0.5509
15368SOL    HW253155  12.438   7.113   4.562  2.2483 -2.0995 -0.5363
15369SOL     OW53156   9.669   2.886   8.656  0.2327  0.0996 -0.0769
15369SOL    HW153157   9.669   2.969   8.609  3.5969  0.7759  0.8889
15369SOL    HW253158   9.609   2.830   8.605  1.6377  1.5598 -3.6687
15370SOL     OW53159   7.886  10.456   4.091 -0.3150 -0.2778  0.3216
15370SOL    HW153160   7.868  10.452   3.998 -1.6591 -2.1866  0.6172
15370SOL    HW253161   7.811  10.414   4.133 -0.1137  1.2012  2.3309
15371SOL     OW53162  11.409   6.537   7.157 -0.8124 -0.7290  0.2112
15371SOL    HW153163  11.445   6.587   7.231  0.7519 -1.0599 -0.2911
15371SOL    HW253164  11.397   6.603   7.088 -0.2479 -0.7606  0.0735
15372SOL     OW53165  11.544   5.962   1.662  0.4115 -0.6452  0.5781
15372SOL    HW153166  11.462   5.927   1.626  0.6431 -1.1652  0.5427
15372SOL    HW253167  11.607   5.892   1.648  0.6405 -0.6280  1.4873
15373SOL     OW53168  11.278   8.235   3.878  0.1606  0.7329 -0.1710
15373SOL    HW153169  11.211   8.178   3.915  1.0424 -1.8698 -2.3181
15373SOL    HW253170  11.230   8.313   3.849 -1.9452 -0.9097 -1.3493
15374SOL     OW53171   7.218   1.200   9.445 -0.2703  0.4496 -0.0034
15374SOL    HW153172   7.125   1.219   9.436 -0.7301 -1.6115  0.0689
15374SOL    HW253173   7.233   1.123   9.390  1.3560  0.6186  0.1384
15375SOL     OW53174  11.665   8.231  11.499 -0.6671 -0.1554 -0.3776
15375SOL    HW153175  11.569   8.227  11.501 -0.6964 -0.6159  3.2289
15375SOL    HW253176  11.693   8.139  11.509  0.0380  0.1999  1.2967
15376SOL     OW53177   1.993   3.753   6.754 -0.0907  0.2013  0.0733
15376SOL    HW153178   1.993   3.665   6.714  1.4714  0.2688 -0.1061
15376SOL    HW253179   1.967   3.811   6.683 -1.2472 -0.0988  0.2203
15377SOL     OW53180   9.102   4.450   8.124  0.2776 -0.3205 -0.0872
15377SOL    HW153181   9.146   4.510   8.063 -2.0620  1.2394 -0.3625
15377SOL    HW253182   9.054   4.390   8.067 -1.0362  0.4529  0.1831
15378SOL     OW53183   9.230   0.073   2.030 -0.8690  0.0926  0.0521
15378SOL    HW153184   9.230   0.140   2.098  2.7336 -0.5010  0.8743
15378SOL    HW253185   9.246   0.121   1.949 -1.3924  0.4737  0.1709
15379SOL     OW53186   0.475   8.576  11.004  0.5874  0.1213 -0.3476
15379SOL    HW153187   0.425   8.657  11.005  1.0193  0.3989  0.9579
15379SOL    HW253188   0.491   8.556  11.097  4.7079  1.2436 -0.5865
15380SOL     OW53189  11.525   7.194   0.892 -0.0528 -0.1784 -0.3876
15380SOL    HW153190  11.453   7.180   0.954 -1.8440 -0.9239 -2.4811
15380SOL    HW253191  11.552   7.285   0.907 -1.9824  0.3875 -0.0480
15381SOL     OW53192   5.613   2.809   2.360  0.0333 -0.9011 -0.2955
15381SOL    HW153193   5.563   2.860   2.297 -0.0149  0.4017  0.7444
15381SOL    HW253194   5.690   2.863   2.379  0.0132 -1.2272  0.7867
15382SOL     OW53195  10.585   8.803   6.847 -0.8343  0.3391 -0.6493
15382SOL    HW153196  10.501   8.814   6.893 -0.0235 -0.2231  1.0321
15382SOL    HW253197  10.561   8.764   6.763 -2.2763  0.3533 -0.2738
15383SOL     OW53198   2.858  11.835   5.900 -0.3639  0.7197 -0.1807
15383SOL    HW153199   2.917  11.809   5.971  0.8144  0.8146 -1.0984
15383SOL    HW253200   2.821  11.918   5.929  0.8757  1.2661 -0.0863
15384SOL     OW53201   2.013  11.602  10.968  0.3357  0.1199  0.3725
15384SOL    HW153202   2.066  11.673  10.933 -2.3476  1.9958 -0.2320
15384SOL    HW253203   2.025  11.530  10.906  1.7119  0.6504 -0.0079
15385SOL     OW53204  11.416  12.137   7.636  0.4919 -0.5833 -0.1647
15385SOL    HW153205  11.342  12.078   7.620  0.7723 -1.1332  0.5748
15385SOL    HW253206  11.478  12.118   7.565  0.8868 -1.6654  0.4642
15386SOL     OW53207   9.452   5.756  11.720 -0.0610  0.4984  0.2632
15386SOL    HW153208   9.452   5.669  11.760 -0.0494 -0.5699 -1.8881
15386SOL    HW253209   9.543   5.785  11.726 -0.2976  0.9334  2.0926
15387SOL     OW53210   6.991   6.781   7.597  0.0586  0.2839  0.2526
15387SOL    HW153211   7.016   6.728   7.672 -1.6228 -0.6440  0.2043
15387SOL    HW253212   7.005   6.723   7.521  0.2238  0.6600 -0.0092
15388SOL     OW53213  11.451   2.746   1.956 -0.2733 -0.0436 -0.3031
15388SOL    HW153214  11.506   2.816   1.919  1.5835 -0.7943  0.8583
15388SOL    HW253215  11.444   2.768   2.049 -1.6805 -0.1621 -0.3711
15389SOL     OW53216   2.029   1.702   1.799 -0.1310  0.3789 -0.1987
15389SOL    HW153217   1.980   1.689   1.718 -0.2530 -0.3522 -0.0170
15389SOL    HW253218   2.120   1.705   1.772  0.3367 -4.5310 -0.0176
15390SOL     OW53219   4.197   0.962   9.995 -0.2069  0.9850 -0.3788
15390SOL    HW153220   4.208   0.955   9.900 -0.9263 -0.6350 -0.3701
15390SOL    HW253221   4.286   0.968  10.028  0.0787  1.0299 -1.1228
15391SOL     OW53222  11.206   5.937  11.620 -0.4147  0.3986  0.1448
15391SOL    HW153223  11.253   5.854  11.623  0.2381  0.6994 -1.1373
15391SOL    HW253224  11.158   5.941  11.703  0.7092 -0.5675  0.8619
15392SOL     OW53225   9.036   5.023   5.889  0.4910  0.4672  0.1736
15392SOL    HW153226   9.032   4.927   5.890  0.8383  0.4163 -1.2226
15392SOL    HW253227   8.968   5.049   5.828 -0.8664  1.2419  1.9206
15393SOL     OW53228  10.947  10.145   4.354  0.3002 -0.3726 -0.0992
15393SOL    HW153229  10.882  10.212   4.377 -0.7637 -1.5172  0.4053
15393SOL    HW253230  10.980  10.172   4.269  0.9568  1.5340  0.6914
15394SOL     OW53231   4.799  10.437   5.133 -0.6563  0.1776 -0.1072
15394SOL    HW153232   4.837  10.365   5.182  1.8588  2.2430  1.2232
15394SOL    HW253233   4.851  10.442   5.053 -0.1640  1.0797  0.2575
15395SOL     OW53234   5.479  12.075   2.221 -0.6250  0.1527  0.0393
15395SOL    HW153235   5.436  12.154   2.254  0.8596  0.3840  1.5844
15395SOL    HW253236   5.535  12.107   2.149  0.2777  0.6235  0.9182
15396SOL     OW53237   1.592  10.347   4.973 -0.3937  0.7740  0.5109
15396SOL    HW153238   1.655  10.358   4.902 -0.8451  1.0553  0.1522
15396SOL    HW253239   1.507  10.371   4.935 -0.6797  0.6730  1.0675
15397SOL     OW53240  10.081   4.683   8.767  0.1917 -0.1524 -0.9417
15397SOL    HW153241  10.010   4.664   8.705  0.8988 -0.3902 -1.7097
15397SOL    HW253242  10.126   4.758   8.729  0.4744 -0.1305 -0.5686
15398SOL     OW53243   0.085   4.066   3.894 -0.1995 -0.0682 -0.1171
15398SOL    HW153244   0.072   4.142   3.838  2.6197  0.9580  0.4519
15398SOL    HW253245   0.138   4.006   3.841  1.5758  0.4515  0.9932
15399SOL     OW53246  11.820   5.679   8.482 -0.5673 -0.2162 -0.2486
15399SOL    HW153247  11.830   5.629   8.563 -0.9212 -1.2291 -0.8267
15399SOL    HW253248  11.777   5.760   8.510 -1.0481 -0.7256  0.5212
15400SOL     OW53249  10.956   6.933   2.871 -0.0363 -0.3557  0.0739
15400SOL    HW153250  10.973   6.848   2.910  0.4082 -0.8325 -1.1006
15400SOL    HW253251  11.017   6.992   2.915 -0.4259 -0.6009  0.9729
15401SOL     OW53252   5.929   3.296   0.407  0.8154 -0.7211  0.4302
15401SOL    HW153253   6.002   3.346   0.369  0.6603  0.8101  2.0539
15401SOL    HW253254   5.856   3.310   0.346  0.7265  1.2433  0.9351
15402SOL     OW53255  11.484   3.133   2.567  0.5510  0.3429 -0.5349
15402SOL    HW153256  11.476   3.044   2.602  1.7768 -0.0401 -1.1906
15402SOL    HW253257  11.508   3.187   2.643 -0.2322  0.1445 -0.1302
15403SOL     OW53258   4.663   1.484   0.704  0.2501 -0.1311 -0.3370
15403SOL    HW153259   4.684   1.399   0.743  1.7342  0.0902 -0.5815
15403SOL    HW253260   4.611   1.463   0.627 -1.2982 -0.6674  0.7987
15404SOL     OW53261   5.693   3.891   6.109 -0.2676 -0.2348  0.4063
15404SOL    HW153262   5.703   3.874   6.015 -0.4325 -0.1278  0.3674
15404SOL    HW253263   5.730   3.979   6.121  0.3823 -0.5294  0.5654
15405SOL     OW53264  12.439  10.571   9.044  0.0283  0.0491 -0.0822
15405SOL    HW153265  12.402  10.483   9.036  0.1722 -0.2460  1.9168
15405SOL    HW253266  12.495  10.566   9.122 -1.2914  2.3409  1.1178
15406SOL     OW53267   3.931  10.034   2.986 -0.3047 -0.4375 -1.0376
15406SOL    HW153268   3.900   9.948   3.016  1.0198 -1.2302 -1.8296
15406SOL    HW253269   3.855  10.072   2.941 -0.6722 -1.5689 -1.4227
15407SOL     OW53270   7.715   7.334   4.691 -0.1155 -0.3394  0.4159
15407SOL    HW153271   7.708   7.266   4.759  1.9292 -0.8179  0.2222
15407SOL    HW253272   7.808   7.336   4.669 -0.8102 -0.9929 -3.1773
15408SOL     OW53273   6.267   9.564   1.076  0.1913 -0.2823  0.2522
15408SOL    HW153274   6.345   9.594   1.124  0.6219 -1.6338  0.4209
15408SOL    HW253275   6.274   9.608   0.991  0.1178  1.0961  0.9268
15409SOL     OW53276   7.497  10.529   0.872 -0.4023 -0.0680 -0.3894
15409SOL    HW153277   7.551  10.453   0.847  0.3928  0.6615 -0.9441
15409SOL    HW253278   7.424  10.527   0.811 -1.6608 -1.6969  1.0488
15410SOL     OW53279   6.842   2.626  10.613  0.2537  0.7283 -0.1412
15410SOL    HW153280   6.830   2.541  10.656  1.4219  0.4227 -0.3558
15410SOL    HW253281   6.755   2.664  10.608 -0.3229 -0.5602 -0.2338
15411SOL     OW53282   0.058  11.062   7.795 -0.5496 -0.0498 -0.0610
15411SOL    HW153283   0.006  10.993   7.754  1.3127 -1.1347 -0.7420
15411SOL    HW253284  -0.005  11.116   7.841 -2.4075 -0.5600 -1.8725
15412SOL     OW53285  11.575   9.064   4.401 -0.4815  0.5850  0.2330
15412SOL    HW153286  11.591   8.973   4.376  0.7724  0.6433  0.7405
15412SOL    HW253287  11.480   9.069   4.414 -0.4908 -0.8230  0.8676
15413SOL     OW53288   1.408   3.434  11.872 -0.5953  0.3667 -0.6282
15413SOL    HW153289   1.413   3.530  11.869 -0.7663  0.3937 -0.2289
15413SOL    HW253290   1.498   3.405  11.859 -0.3497  0.6269  0.3719
15414SOL     OW53291   0.291   2.339  12.376 -0.2020  0.6159 -0.1811
15414SOL    HW153292   0.376   2.309  12.342 -1.0466 -1.4773 -0.6303
15414SOL    HW253293   0.249   2.380  12.301  1.4209  4.3106  0.7178
15415SOL     OW53294   2.913   7.700   4.508  0.0282  0.2702 -0.0070
15415SOL    HW153295   2.884   7.639   4.440  1.1996  1.2156 -1.4271
15415SOL    HW253296   2.960   7.646   4.571 -0.7591 -0.5785 -0.1413
15416SOL     OW53297   9.871  12.526   0.699 -0.3633 -0.0613  0.2441
15416SOL    HW153298   9.927  12.600   0.674  0.3634 -0.3873  0.8658
15416SOL    HW253299   9.814  12.512   0.623  0.1581  0.5057 -0.2624
15417SOL     OW53300   5.213   1.598  11.527  0.3964 -0.2407  0.5841
15417SOL    HW153301   5.308   1.598  11.533  0.3089 -0.3824  2.5641
15417SOL    HW253302   5.188   1.506  11.538  0.0250 -0.3151 -0.6271
15418SOL     OW53303  12.125  11.821   4.259  0.0173  0.2163 -0.2347
15418SOL    HW153304  12.031  11.812   4.240 -0.3275  0.2265  1.3695
15418SOL    HW253305  12.168  11.789   4.179 -1.3406  0.5371 -1.1325
15419SOL     OW53306   7.781   7.243   5.175  0.2994 -0.5326 -0.3778
15419SOL    HW153307   7.819   7.319   5.220  1.3545  0.7212 -3.1956
15419SOL    HW253308   7.695   7.272   5.147 -0.5084 -1.4371  1.0400
15420SOL     OW53309   8.029   6.252  11.545 -0.1407 -0.3186  0.6507
15420SOL    HW153310   7.948   6.269  11.594 -0.9508 -0.4904 -0.5785
15420SOL    HW253311   8.066   6.339  11.529 -0.2833 -0.2117  0.8979
15421SOL     OW53312  10.564   6.605   6.280  0.3921  0.0365 -0.0702
15421SOL    HW153313  10.619   6.557   6.342 -1.7333 -0.7385  1.3524
15421SOL    HW253314  10.503   6.540   6.247  0.2848  0.8653 -1.5817
15422SOL     OW53315  12.532   5.483   1.889 -0.5704  0.1373  0.4919
15422SOL    HW153316  12.544   5.394   1.922 -0.4141  0.7630  2.2332
15422SOL    HW253317  12.440   5.487   1.863 -0.5347 -0.5819  0.2513
15423SOL     OW53318   8.426   9.832   9.349  0.7918 -0.0418  0.3798
15423SOL    HW153319   8.386   9.874   9.425  0.4220 -0.5858  0.4916
15423SOL    HW253320   8.359   9.772   9.317  0.6679  0.6829 -0.8022
15424SOL     OW53321   6.100   3.504   6.653  0.1482  0.3224  0.4039
15424SOL    HW153322   6.174   3.565   6.652 -0.2014  0.7513  0.2720
15424SOL    HW253323   6.134   3.424   6.614  0.2218  0.9059 -0.7797
15425SOL     OW53324  10.029   2.398   7.826  0.0654 -0.2869  0.5251
15425SOL    HW153325   9.946   2.446   7.824  0.1018 -0.2075  0.9347
15425SOL    HW253326  10.093   2.460   7.790  0.1335  0.0129  1.1555
15426SOL     OW53327   1.178   5.648  11.157  0.2522 -0.1488  0.2821
15426SOL    HW153328   1.184   5.742  11.143 -2.4813  0.0476 -0.2067
15426SOL    HW253329   1.258   5.612  11.118  0.1838  1.7669 -1.8095
15427SOL     OW53330  11.500   8.458  11.674 -0.3286 -0.2029  0.3199
15427SOL    HW153331  11.406   8.453  11.691 -0.1020 -3.6189  1.3619
15427SOL    HW253332  11.516   8.392  11.607  1.4624 -0.5444  1.0147
15428SOL     OW53333   8.256   6.552   2.377 -0.0399  0.6311 -0.2666
15428SOL    HW153334   8.330   6.539   2.317 -0.0225  0.8464 -0.2912
15428SOL    HW253335   8.296   6.571   2.461 -0.0643  1.9786 -0.5471
15429SOL     OW53336   6.984   6.332   5.613  0.2416  0.4932 -0.6362
15429SOL    HW153337   7.072   6.349   5.648 -1.1520  2.4284  2.3652
15429SOL    HW253338   6.951   6.260   5.667 -0.5489  0.7900 -0.7169
15430SOL     OW53339   0.146   1.931   1.818 -0.2821 -0.1543  0.1964
15430SOL    HW153340   0.055   1.905   1.834 -0.6998  0.6948 -0.7087
15430SOL    HW253341   0.167   1.894   1.733  0.2667 -0.4250  0.4434
15431SOL     OW53342   0.491   8.440  10.608 -0.1300 -0.1414  0.0717
15431SOL    HW153343   0.543   8.495  10.667 -0.8753  1.3705 -0.6143
15431SOL    HW253344   0.414   8.494  10.587  0.4712 -0.2907 -2.8686
15432SOL     OW53345   1.485   3.415  10.542  0.1667 -0.3884 -0.4862
15432SOL    HW153346   1.501   3.341  10.602 -1.7620 -2.2360 -2.0760
15432SOL    HW253347   1.418   3.467  10.586  1.8732  0.7507  0.8616
15433SOL     OW53348   6.111   8.298   5.244 -0.0194  0.1190  0.2810
15433SOL    HW153349   6.077   8.387   5.248  0.3210  0.2374  0.6642
15433SOL    HW253350   6.200   8.308   5.209 -0.0745 -0.0956  0.0808
15434SOL     OW53351   2.344   3.729  11.886 -0.8715 -0.1507 -0.1745
15434SOL    HW153352   2.281   3.657  11.891  0.3008 -1.3265 -1.4122
15434SOL    HW253353   2.426   3.691  11.919 -0.3966  0.8245 -0.2150
15435SOL     OW53354   3.187   8.093   9.703  0.4769  0.3041 -0.1580
15435SOL    HW153355   3.216   8.172   9.748 -2.0306  1.8348 -1.0313
15435SOL    HW253356   3.161   8.123   9.616 -1.2301 -1.3192 -0.2698
15436SOL     OW53357   0.099   9.227   8.278  0.8770  0.4448 -0.0226
15436SOL    HW153358   0.018   9.185   8.250  0.8457  1.4179 -1.5534
15436SOL    HW253359   0.162   9.156   8.284  0.4697 -0.0300 -1.0850
15437SOL     OW53360   6.561   7.460  11.759 -0.3213 -0.6673 -0.7648
15437SOL    HW153361   6.647   7.421  11.773 -0.0317  0.4285  0.8687
15437SOL    HW253362   6.529   7.420  11.679  2.5082  0.2699 -2.5173
15438SOL     OW53363   7.469   9.048   1.052 -0.6352  0.1820 -0.2820
15438SOL    HW153364   7.517   8.991   1.112  0.4630 -0.0620 -1.3592
15438SOL    HW253365   7.406   9.094   1.107 -0.2271 -0.6592  0.9110
15439SOL     OW53366   5.685   2.363   5.166 -0.1840  0.0959  0.1269
15439SOL    HW153367   5.592   2.350   5.182 -0.3079  0.9828  0.1472
15439SOL    HW253368   5.694   2.456   5.147  0.9699  0.4470  2.0956
15440SOL     OW53369  10.277   6.113  12.154  1.1734 -0.2765 -0.6970
15440SOL    HW153370  10.315   6.134  12.240 -0.8600 -1.9710  0.7293
15440SOL    HW253371  10.350   6.076  12.104  2.5091  1.1261  0.1145
15441SOL     OW53372   4.095   9.768  11.180 -0.1442  0.6012  0.2525
15441SOL    HW153373   4.002   9.764  11.159 -0.3011  2.0089  0.5738
15441SOL    HW253374   4.128   9.844  11.132  1.2288 -0.8261 -1.1919
15442SOL     OW53375  10.192  11.618  11.843 -0.0929  0.5503 -0.2064
15442SOL    HW153376  10.191  11.686  11.777  2.6092  0.3132 -0.6333
15442SOL    HW253377  10.149  11.543  11.802 -0.3997  1.0782 -0.8624
15443SOL     OW53378   8.617   9.753   1.280  0.1220  0.0325  0.2554
15443SOL    HW153379   8.701   9.718   1.309  0.0579  0.2684  0.7360
15443SOL    HW253380   8.639   9.821   1.217  0.2898  0.0632  0.3475
15444SOL     OW53381   1.656   2.623   3.907  0.2815  0.1870 -0.3240
15444SOL    HW153382   1.669   2.560   3.836  0.2770 -0.2084  0.0223
15444SOL    HW253383   1.722   2.691   3.892  1.5583 -0.8625  0.3775
15445SOL     OW53384  11.861   5.059   2.072  0.4113 -0.1674  0.0454
15445SOL    HW153385  11.834   5.031   2.159 -0.2507 -2.3518 -0.7658
15445SOL    HW253386  11.795   5.122   2.045  1.5881  1.8951  1.7287
15446SOL     OW53387  10.795   6.204  12.153  0.0661 -0.3077 -0.4774
15446SOL    HW153388  10.755   6.138  12.210  1.2086 -0.1820  0.5233
15446SOL    HW253389  10.736   6.211  12.079 -1.3051 -0.7272  0.5376
15447SOL     OW53390   8.893   7.764   1.731  0.3290 -0.6532 -0.0858
15447SOL    HW153391   8.905   7.858   1.742  2.5288 -0.9940  0.9950
15447SOL    HW253392   8.810   7.745   1.775  0.6460  0.5644  1.1013
15448SOL     OW53393   2.674   2.103   0.743 -0.6801  0.0532  0.1388
15448SOL    HW153394   2.714   2.043   0.806 -1.2281  0.2970  0.7279
15448SOL    HW253395   2.644   2.046   0.672  1.7494 -0.0229 -0.9053
15449SOL     OW53396   9.154   0.973  12.463  0.0577 -0.1191 -0.2304
15449SOL    HW153397   9.112   0.967  12.377  1.7135 -0.4690 -1.0585
15449SOL    HW253398   9.241   0.934  12.450  1.0331  1.4864  1.1355
15450SOL     OW53399  10.100   2.582   2.005  0.3299  0.3230  0.1928
15450SOL    HW153400  10.057   2.642   2.067 -0.1209  0.9410 -0.7055
15450SOL    HW253401  10.193   2.586   2.030 -0.1151 -1.3168  2.3885
15451SOL     OW53402   2.284   7.413   4.929  0.2850 -0.3637  0.4455
15451SOL    HW153403   2.229   7.362   4.988  1.8564 -0.0003  2.3293
15451SOL    HW253404   2.269   7.375   4.842 -2.6655 -0.4342  0.8920
15452SOL     OW53405  11.965   8.244   5.009  0.6693  0.7006 -0.5524
15452SOL    HW153406  12.026   8.252   4.936  0.3685  2.7471 -0.6291
15452SOL    HW253407  12.013   8.276   5.085  0.7082 -0.6529  0.0180
15453SOL     OW53408   7.426   6.552   9.793 -0.0464 -0.5866  0.0503
15453SOL    HW153409   7.477   6.631   9.814  0.6839 -0.6489 -1.3989
15453SOL    HW253410   7.348   6.558   9.849  1.2712 -0.2261  1.9584
15454SOL     OW53411   7.459  10.491   8.915  0.0913  0.3074  0.1781
15454SOL    HW153412   7.434  10.523   9.001 -0.8727 -1.5296  0.6490
15454SOL    HW253413   7.376  10.460   8.876  0.5572  0.7795 -1.2686
15455SOL     OW53414   1.848   1.476  11.268  0.0848 -0.2916  0.0310
15455SOL    HW153415   1.911   1.546  11.252 -0.6759  0.1234 -1.3151
15455SOL    HW253416   1.768   1.521  11.294 -0.4335 -0.6371 -0.9133
15456SOL     OW53417   0.888   0.960   7.641 -0.2118 -0.1744  0.0520
15456SOL    HW153418   0.966   0.976   7.695  0.4342  1.5521 -1.2928
15456SOL    HW253419   0.845   1.045   7.635 -2.7402 -1.2674  1.4621
15457SOL     OW53420   1.366   9.939   2.203  0.2053 -0.2708 -0.0494
15457SOL    HW153421   1.461   9.930   2.212  0.7703  1.5531 -2.7781
15457SOL    HW253422   1.337   9.857   2.163  0.8751 -0.2940 -0.4966
15458SOL     OW53423   7.386   5.606   7.684 -0.3922  0.4465  0.2888
15458SOL    HW153424   7.439   5.576   7.759 -0.2760 -0.2409 -0.0587
15458SOL    HW253425   7.314   5.543   7.679 -0.1721  0.2372 -0.4246
15459SOL     OW53426   0.844   4.433   3.527  0.1110  0.0673  0.3235
15459SOL    HW153427   0.930   4.445   3.568 -0.2161 -1.7383  1.6508
15459SOL    HW253428   0.799   4.516   3.544  1.4858  0.9864 -0.2472
15460SOL     OW53429   1.069   4.957  12.251  0.3746  0.5908 -0.1672
15460SOL    HW153430   1.145   4.985  12.303  1.8738 -0.2529 -1.8293
15460SOL    HW253431   1.045   5.035  12.201  0.1635  0.8447  0.3225
15461SOL     OW53432   1.003   2.527   2.148  0.3180  0.2523 -0.7189
15461SOL    HW153433   1.036   2.443   2.117 -0.4928 -0.4283  0.1668
15461SOL    HW253434   1.073   2.563   2.203 -0.1914 -0.9687  0.7955
15462SOL     OW53435   5.318  10.180   2.142  0.0407 -0.4662  0.5654
15462SOL    HW153436   5.306  10.113   2.208 -0.1061  0.1041  1.1276
15462SOL    HW253437   5.230  10.198   2.109  0.2865 -2.1547 -1.2416
15463SOL     OW53438   2.128  12.054   2.702  0.3308 -0.3616  0.4060
15463SOL    HW153439   2.203  12.010   2.662 -0.7653 -1.0266 -0.9907
15463SOL    HW253440   2.056  11.991   2.694 -1.3569  1.6434 -1.8730
15464SOL     OW53441  10.303  11.018   7.106  0.1440 -0.4874  0.0527
15464SOL    HW153442  10.240  11.062   7.163 -0.1562 -1.4290  0.4730
15464SOL    HW253443  10.351  11.089   7.063 -0.9551  0.2441 -0.0013
15465SOL     OW53444   6.180   8.929   9.408 -0.1731  0.5111  0.0107
15465SOL    HW153445   6.243   8.857   9.409 -0.9896 -0.2150  1.5572
15465SOL    HW253446   6.113   8.902   9.346 -0.7180 -0.2985  0.9341
15466SOL     OW53447   9.115   0.690   4.799 -0.0182 -0.0781 -0.0613
15466SOL    HW153448   9.103   0.619   4.736  0.3492  1.1664 -1.5947
15466SOL    HW253449   9.150   0.763   4.747  1.1878  0.7112  1.7517
15467SOL     OW53450   2.187  12.412   1.805 -1.1783 -0.7326 -0.6473
15467SOL    HW153451   2.257  12.444   1.862 -0.5772 -2.8389 -0.1005
15467SOL    HW253452   2.166  12.486   1.748  1.5840 -0.0466 -0.9169
15468SOL     OW53453   6.573  11.942   2.402  0.2088 -0.0113 -0.0750
15468SOL    HW153454   6.488  11.897   2.409 -0.1834  0.9326  2.1805
15468SOL    HW253455   6.620  11.917   2.482  1.5898  0.4316 -0.7140
15469SOL     OW53456   5.691   1.892  10.179  0.2386 -0.1079  0.1601
15469SOL    HW153457   5.710   1.982  10.152  0.4419 -0.0338  0.5475
15469SOL    HW253458   5.721   1.887  10.270 -0.1418 -0.4519  0.2695
15470SOL     OW53459   2.071   5.062   2.929 -0.4601 -0.3617 -0.6925
15470SOL    HW153460   2.066   5.040   3.022  0.2050  0.3192 -0.4855
15470SOL    HW253461   2.116   5.146   2.926  1.2515 -1.2528 -1.7483
15471SOL     OW53462   1.198  10.044   8.402  0.3674 -0.5472 -0.1438
15471SOL    HW153463   1.275  10.014   8.450  2.1882  3.2974 -0.2951
15471SOL    HW253464   1.233  10.081   8.321 -1.7575  0.5224 -0.6536
15472SOL     OW53465   7.771  11.510   0.104  0.0732  0.0372 -0.2467
15472SOL    HW153466   7.709  11.439   0.085  0.0108 -0.1133  0.4845
15472SOL    HW253467   7.810  11.485   0.189 -0.2799  1.0986  0.2381
15473SOL     OW53468   2.569   9.871   2.547  0.3301 -0.0177  0.0409
15473SOL    HW153469   2.504   9.828   2.492 -0.3152  0.6911  0.2330
15473SOL    HW253470   2.564   9.964   2.523  0.1752  0.2770  1.1346
15474SOL     OW53471  11.653   3.808  10.950 -0.0846 -0.2934  0.2896
15474SOL    HW153472  11.641   3.823  10.856  1.1812  0.0442  0.1540
15474SOL    HW253473  11.596   3.871  10.993 -1.3528 -1.0506 -0.2323
15475SOL     OW53474   6.339  10.784   3.620  0.4698 -0.0776  0.3698
15475SOL    HW153475   6.249  10.780   3.653 -1.4469  0.4053 -3.9976
15475SOL    HW253476   6.365  10.875   3.632 -1.0577  0.6406 -1.2475
15476SOL     OW53477   0.646  11.852   3.403 -0.0128 -0.1539 -0.2854
15476SOL    HW153478   0.644  11.761   3.434  1.2508 -0.9268 -2.2594
15476SOL    HW253479   0.738  11.872   3.391 -0.2748  1.4140  0.0802
15477SOL     OW53480   0.316   7.891   4.314  0.7848 -0.4176 -0.3241
15477SOL    HW153481   0.369   7.811   4.319  3.2605  1.1805  0.8958
15477SOL    HW253482   0.231   7.861   4.282  2.6410 -3.0339 -3.4786
15478SOL     OW53483   4.750   7.200  12.398 -0.1462  0.0333  0.0711
15478SOL    HW153484   4.707   7.219  12.314 -0.8443  0.1095  0.4392
15478SOL    HW253485   4.678   7.194  12.461  0.3211 -0.6584  0.5547
15479SOL     OW53486   9.587   8.365   3.956  0.0502  0.2268 -0.3705
15479SOL    HW153487   9.603   8.375   4.050  0.8966 -1.1774 -0.3353
15479SOL    HW253488   9.632   8.440   3.916 -1.4065  1.5769  0.3883
15480SOL     OW53489   6.832   5.238   4.762 -0.0699  0.2905 -0.3299
15480SOL    HW153490   6.920   5.239   4.724 -0.1350  1.8263 -0.4881
15480SOL    HW253491   6.845   5.262   4.854 -0.4686  2.5687 -0.8003
15481SOL     OW53492  12.366   2.966  10.429 -0.5085  0.3310  0.2251
15481SOL    HW153493  12.307   2.926  10.493 -0.3354 -0.1186  0.1030
15481SOL    HW253494  12.414   3.032  10.479  0.0260 -0.3975  0.6954
15482SOL     OW53495  11.033   3.443   3.285  0.0899 -0.2211 -0.4637
15482SOL    HW153496  11.017   3.387   3.209 -2.2222 -1.0444  0.5298
15482SOL    HW253497  11.077   3.520   3.249  1.1993 -1.6137 -2.2388
15483SOL     OW53498   6.112   1.082   1.787  0.5049  0.8858 -0.1736
15483SOL    HW153499   6.056   1.095   1.711 -1.8047 -4.6023  0.0812
15483SOL    HW253500   6.188   1.035   1.752  0.9408  1.0552  0.5307
15484SOL     OW53501   0.209   3.581   3.758  0.3500 -0.7276 -0.1051
15484SOL    HW153502   0.229   3.610   3.847 -0.7054 -1.3367  0.3450
15484SOL    HW253503   0.295   3.569   3.717  0.8452 -0.2018  0.7457
15485SOL     OW53504   6.589   4.200  11.271  0.1595 -0.0681  0.5468
15485SOL    HW153505   6.526   4.140  11.232 -1.4468  2.0291 -0.2844
15485SOL    HW253506   6.668   4.190  11.218 -0.5320 -0.4541 -0.4383
15486SOL     OW53507   0.694   8.452   4.899 -0.1311  0.2956  0.2344
15486SOL    HW153508   0.788   8.453   4.880  0.0400 -0.1967  1.0141
15486SOL    HW253509   0.674   8.360   4.915 -0.7551  0.3922  0.0384
15487SOL     OW53510   5.119  12.003   2.432 -0.0171  0.4126 -0.4282
15487SOL    HW153511   5.090  12.046   2.351  1.0185 -1.4742 -1.8646
15487SOL    HW253512   5.039  11.966   2.469 -0.1806 -0.9422 -2.0164
15488SOL     OW53513  11.361   3.819   5.797 -0.1178  0.2789  0.0660
15488SOL    HW153514  11.268   3.837   5.787  0.0182  0.2718 -1.3759
15488SOL    HW253515  11.396   3.821   5.708  1.5007  1.5125  0.6824
15489SOL     OW53516   3.572   9.053  12.560 -0.2224  0.3967 -0.0260
15489SOL    HW153517   3.666   9.067  12.548 -0.3325  1.5137  0.2226
15489SOL    HW253518   3.543   9.008  12.481  0.6317 -0.5388  0.1844
15490SOL     OW53519   3.389  12.273   6.201  0.2767 -0.0439  0.4569
15490SOL    HW153520   3.344  12.339   6.148 -3.0163 -2.0554  0.4802
15490SOL    HW253521   3.348  12.279   6.287  0.8697 -1.2390  0.8451
15491SOL     OW53522   2.655   3.158  11.030 -0.0814 -0.2045  0.2314
15491SOL    HW153523   2.653   3.253  11.047  1.7173 -0.0530 -0.2177
15491SOL    HW253524   2.577   3.125  11.075 -2.1686  1.7733 -1.6620
15492SOL     OW53525   0.879  11.523   5.041 -0.1633  0.3119  0.0681
15492SOL    HW153526   0.965  11.519   4.999 -0.1335 -1.6082  0.2058
15492SOL    HW253527   0.886  11.594   5.105  1.1460  0.5126 -0.2770
15493SOL     OW53528   0.466   3.874  10.697 -0.9601 -0.3112  0.3886
15493SOL    HW153529   0.496   3.810  10.632 -1.4754  0.8707 -1.0500
15493SOL    HW253530   0.428   3.945  10.646  1.9236  2.4664  1.7368
15494SOL     OW53531   7.442  11.949   8.613 -0.2501  0.9062 -0.2523
15494SOL    HW153532   7.478  12.009   8.678 -1.3791  1.0976  0.2321
15494SOL    HW253533   7.384  11.891   8.663  0.0020  0.0973 -0.8748
15495SOL     OW53534   9.987   3.016   8.035 -0.5417 -0.1022 -0.2624
15495SOL    HW153535  10.025   2.962   8.104 -1.5791 -1.2999 -0.5907
15495SOL    HW253536   9.928   3.075   8.080 -1.0730 -0.7527 -0.0809
15496SOL     OW53537   1.449   8.519   5.745 -0.2578 -1.0045 -0.6212
15496SOL    HW153538   1.391   8.558   5.811  0.9333 -2.6627  1.5068
15496SOL    HW253539   1.422   8.428   5.740  1.1668 -1.4410 -0.7209
15497SOL     OW53540   8.174  10.797   7.983 -0.5509  0.0781 -0.1332
15497SOL    HW153541   8.083  10.825   7.975 -1.5008 -2.3389  1.2793
15497SOL    HW253542   8.178  10.753   8.068  1.7909 -0.4601 -0.4623
15498SOL     OW53543   9.031   7.305  10.365 -0.2592 -0.1598  0.5298
15498SOL    HW153544   9.104   7.245  10.378  0.4730  0.6766  0.3377
15498SOL    HW253545   8.954   7.248  10.360  0.2506 -0.9810  1.7218
15499SOL     OW53546   2.563   3.825   2.464 -0.0076  0.1445  0.1995
15499SOL    HW153547   2.617   3.829   2.385  0.1096 -1.8285  0.1229
15499SOL    HW253548   2.621   3.857   2.533  0.6074 -0.0719 -0.1978
15500SOL     OW53549  12.255   8.002  11.377  0.6738  0.0367 -0.0361
15500SOL    HW153550  12.235   8.096  11.383  0.3591  0.1127 -1.7418
15500SOL    HW253551  12.256   7.984  11.283 -0.4834 -1.9454  0.2876
15501SOL     OW53552   7.131   1.693   4.705 -0.4873 -0.2582 -0.5663
15501SOL    HW153553   7.101   1.702   4.614  0.6302 -0.8357 -1.0131
15501SOL    HW253554   7.091   1.612   4.735  0.7900 -1.1687 -1.2483
15502SOL     OW53555   6.616   3.109   8.332  0.0091 -0.6207 -0.8006
15502SOL    HW153556   6.669   3.161   8.271  0.0347 -0.6201 -0.7772
15502SOL    HW253557   6.647   3.019   8.320  0.3161 -0.5593 -0.4693
15503SOL     OW53558   2.569   6.798  10.747  0.1114 -0.2454  0.8952
15503SOL    HW153559   2.510   6.805  10.822  0.5286  0.6596  1.1547
15503SOL    HW253560   2.534   6.860  10.683  1.0307  0.6562  1.2381
15504SOL     OW53561   9.030   7.399   9.412  0.7512  0.4121 -0.6773
15504SOL    HW153562   9.017   7.492   9.433  1.2588  0.3127  0.1246
15504SOL    HW253563   8.947   7.371   9.373 -0.8135  0.2790  2.4415
15505SOL     OW53564   7.245   9.671  11.289  0.6371  0.3016 -0.0751
15505SOL    HW153565   7.318   9.699  11.344 -1.1200  2.9380  1.1299
15505SOL    HW253566   7.179   9.639  11.351  0.2537 -0.7927 -1.0177
15506SOL     OW53567   2.546   5.544   3.122 -0.0269  0.4638  0.0604
15506SOL    HW153568   2.528   5.631   3.159 -1.1073  0.0227  0.6288
15506SOL    HW253569   2.584   5.495   3.195  1.6570  0.7657 -0.5662
15507SOL     OW53570   6.837   5.878   0.174  0.4290  0.6369  0.1808
15507SOL    HW153571   6.795   5.963   0.169 -0.0066  0.3501 -1.5237
15507SOL    HW253572   6.802   5.838   0.254 -2.2753  0.5733 -0.9455
15508SOL     OW53573   0.169  12.317   4.023 -0.0011  0.0876 -0.0162
15508SOL    HW153574   0.081  12.282   4.039 -0.2260  0.2428 -0.8975
15508SOL    HW253575   0.194  12.282   3.938  1.3105 -0.9622  0.7702
15509SOL     OW53576  11.043   2.577  10.291 -0.0118  0.2471  0.2133
15509SOL    HW153577  11.072   2.548  10.378 -2.0130 -0.8479  0.5610
15509SOL    HW253578  11.081   2.513  10.230 -1.9769 -1.4636  0.7068
15510SOL     OW53579  12.068   6.463   9.403 -0.0335 -0.6393  0.0515
15510SOL    HW153580  12.068   6.397   9.333  1.7310 -2.3572  1.5698
15510SOL    HW253581  12.158   6.495   9.404 -0.6150  1.0856  0.0539
15511SOL     OW53582  10.653   4.688   2.841 -0.7046 -0.4310 -0.1164
15511SOL    HW153583  10.638   4.642   2.758  0.5438  0.0456 -0.6453
15511SOL    HW253584  10.607   4.772   2.830  2.4253  1.2452 -1.9355
15512SOL     OW53585   5.257   9.844   8.514  0.3426  0.1355  0.3264
15512SOL    HW153586   5.247   9.921   8.570 -0.5581 -0.5632  1.1517
15512SOL    HW253587   5.168   9.818   8.491  0.6672 -0.1526 -0.6676
15513SOL     OW53588  10.230   1.138  11.271 -0.6259 -0.4222  0.2743
15513SOL    HW153589  10.322   1.113  11.280 -0.3493 -0.6125 -2.2448
15513SOL    HW253590  10.183   1.081  11.331  0.8226 -0.9774  0.9184
15514SOL     OW53591  10.052   3.459   5.674  0.3502  0.2365  0.2488
15514SOL    HW153592  10.118   3.396   5.704 -0.8593 -0.4986  1.4625
15514SOL    HW253593  10.046   3.522   5.745 -0.6227 -0.0085  0.3981
15515SOL     OW53594  10.985   8.800  12.264  0.4357 -0.0027 -0.4733
15515SOL    HW153595  11.041   8.735  12.222 -1.5739 -1.0017 -1.7609
15515SOL    HW253596  10.977   8.771  12.355 -1.2358 -2.2599 -1.2390
15516SOL     OW53597  11.939   1.394   7.922 -0.3850  0.2326  0.3614
15516SOL    HW153598  12.010   1.413   7.983  0.4959 -1.0486 -0.2110
15516SOL    HW253599  11.937   1.298   7.917 -0.4639  0.3048 -1.5771
15517SOL     OW53600   0.488   6.986   2.385 -0.1997 -0.3130 -0.4755
15517SOL    HW153601   0.478   6.898   2.349 -1.6799  0.1978 -1.4065
15517SOL    HW253602   0.549   7.030   2.326 -1.0573 -0.1054 -1.2356
15518SOL     OW53603   7.433  10.341  10.045 -0.0394  0.7744 -0.4092
15518SOL    HW153604   7.428  10.423   9.996 -2.3053  1.9037  1.5071
15518SOL    HW253605   7.365  10.285  10.006 -0.5589  0.9601  0.2288
15519SOL     OW53606  12.572   5.028   5.116  0.8681  0.1494 -0.2904
15519SOL    HW153607  12.665   5.031   5.094  0.6085  2.8307 -1.3952
15519SOL    HW253608  12.559   4.940   5.152  3.6240 -0.6116 -0.8938
15520SOL     OW53609  11.799   9.426   1.405 -0.3352  0.2267 -0.0725
15520SOL    HW153610  11.739   9.435   1.480 -0.4829 -0.0663 -0.1542
15520SOL    HW253611  11.778   9.500   1.349 -0.5854  0.1553 -0.0737
15521SOL     OW53612   7.290   9.632   3.301 -0.2353 -0.5394 -0.4410
15521SOL    HW153613   7.220   9.587   3.254  0.7401 -1.4792 -1.0502
15521SOL    HW253614   7.310   9.708   3.247 -1.2667  0.1513  0.1166
15522SOL     OW53615   3.931   6.287   8.889  0.0899 -0.3053 -0.1263
15522SOL    HW153616   4.019   6.323   8.902 -0.5349  1.7550 -1.1281
15522SOL    HW253617   3.882   6.314   8.966 -0.3884  1.1421 -0.8944
15523SOL     OW53618   4.214  11.325   7.232  0.1940 -0.0453  0.2833
15523SOL    HW153619   4.253  11.301   7.316  1.1955  1.9335  0.4380
15523SOL    HW253620   4.261  11.271   7.168  2.6156  1.5702  0.5674
15524SOL     OW53621   1.685   2.401   7.920 -0.2230  0.4227  0.0996
15524SOL    HW153622   1.627   2.357   7.857  1.4796  0.6412 -1.7161
15524SOL    HW253623   1.659   2.493   7.916  0.2804  0.5389 -0.7929
15525SOL     OW53624   8.694   0.722  11.095  0.3830 -0.3210 -0.0336
15525SOL    HW153625   8.670   0.661  11.025 -0.2528 -1.2941  0.9945
15525SOL    HW253626   8.774   0.763  11.064 -0.3511 -0.0566 -1.7278
15526SOL     OW53627   5.493  12.235   9.393  0.0562  0.2088  0.7652
15526SOL    HW153628   5.565  12.193   9.345 -0.6963 -1.5393  1.0960
15526SOL    HW253629   5.491  12.325   9.359  1.7769  0.0279  0.0794
15527SOL     OW53630   5.639   8.801   6.264  0.2401  0.2878  0.2898
15527SOL    HW153631   5.711   8.786   6.325 -0.4040 -1.8556  0.6054
15527SOL    HW253632   5.682   8.822   6.181  1.1424  2.1451  1.1606
15528SOL     OW53633   5.991  10.215   0.096  0.0181  0.3683  0.3455
15528SOL    HW153634   5.989  10.135   0.044 -2.2553  1.0606 -0.7659
15528SOL    HW253635   6.028  10.188   0.180  0.6378 -1.5111 -0.4780
15529SOL     OW53636   1.424   8.158   9.656  0.3696  0.9738  0.0140
15529SOL    HW153637   1.513   8.185   9.631  0.7498 -0.4956 -0.3567
15529SOL    HW253638   1.401   8.215   9.729  1.3713  1.7965 -0.2845
15530SOL     OW53639  12.140   6.435   9.752 -0.5668 -0.1825  0.5031
15530SOL    HW153640  12.134   6.407   9.843  0.0982  0.1883  0.6660
15530SOL    HW253641  12.081   6.510   9.746  0.1151  0.3930  0.8738
15531SOL     OW53642  10.224   0.383   7.078  0.0337  0.1661  0.0375
15531SOL    HW153643  10.217   0.344   7.165  0.8059 -1.3479 -0.5571
15531SOL    HW253644  10.229   0.477   7.095  0.9124 -0.1422  1.6724
15532SOL     OW53645   4.881   8.650   3.591 -0.0704  0.5632 -0.2050
15532SOL    HW153646   4.927   8.586   3.535  0.8591  1.0213  0.0242
15532SOL    HW253647   4.826   8.596   3.648  0.8040 -0.0483  0.0751
15533SOL     OW53648   0.427   6.752   2.284 -0.1899 -0.0353 -0.6806
15533SOL    HW153649   0.459   6.713   2.203 -1.6614 -2.7929 -0.0985
15533SOL    HW253650   0.332   6.760   2.271 -0.5529 -1.1293  0.9074
15534SOL     OW53651  11.303  11.438   0.719 -0.4089 -0.6700  0.9035
15534SOL    HW153652  11.290  11.528   0.688 -0.5049 -1.0853 -0.3424
15534SOL    HW253653  11.226  11.391   0.688 -0.7927 -1.0143  2.3076
15535SOL     OW53654   8.768   7.698  12.569  0.1404  0.3181 -0.1084
15535SOL    HW153655   8.768   7.723  12.662 -0.7271  0.8412 -0.2351
15535SOL    HW253656   8.751   7.780  12.523  2.5368  0.4619 -0.8771
15536SOL     OW53657  11.443   5.532   0.543 -0.0239 -0.2078  0.0428
15536SOL    HW153658  11.351   5.503   0.546 -0.4702  1.2038  2.1019
15536SOL    HW253659  11.461   5.545   0.450 -1.4362 -1.8858 -0.5202
15537SOL     OW53660   7.277   1.467   4.951  0.7157  0.1319 -0.2547
15537SOL    HW153661   7.198   1.435   4.907  1.4479  0.8776 -2.2315
15537SOL    HW253662   7.335   1.391   4.953  1.0902  0.3497 -1.6584
15538SOL     OW53663   5.948   7.595   6.792 -0.9310  0.3514  0.2560
15538SOL    HW153664   5.924   7.687   6.789  1.1364  0.9167 -0.6576
15538SOL    HW253665   5.971   7.580   6.884  0.5800  1.2927  0.0589
15539SOL     OW53666   1.826   7.294  12.101 -0.1883  0.3667  0.3891
15539SOL    HW153667   1.847   7.273  12.192 -1.1155  0.2505  0.5883
15539SOL    HW253668   1.742   7.339  12.106 -0.8164 -0.6820 -0.5086
15540SOL     OW53669   3.230   4.949   9.274 -0.0587  0.1131  0.2449
15540SOL    HW153670   3.274   4.945   9.359 -1.2188 -2.8009  0.8134
15540SOL    HW253671   3.136   4.945   9.295 -0.3733 -0.3608 -1.1395
15541SOL     OW53672   4.004  11.572   1.058  0.4444  0.4527  0.2464
15541SOL    HW153673   3.967  11.488   1.030 -0.1653  0.5282  0.7843
15541SOL    HW253674   4.088  11.578   1.012  0.2187 -0.1685 -0.2689
15542SOL     OW53675  10.256   5.496   2.377  0.2244  0.3323  0.5615
15542SOL    HW153676  10.259   5.402   2.394  0.3025  0.1351 -0.4421
15542SOL    HW253677  10.243   5.536   2.462 -0.0118 -0.6034  0.9764
15543SOL     OW53678  10.127   4.716  12.126  0.0227 -0.1214  0.0083
15543SOL    HW153679  10.053   4.665  12.094  1.0629 -2.5105  1.1866
15543SOL    HW253680  10.205   4.668  12.098  1.2396  2.3471 -1.2424
15544SOL     OW53681  10.702   0.882  10.973  0.0139  0.2334  0.1979
15544SOL    HW153682  10.789   0.841  10.972 -0.0695  0.0668 -1.1457
15544SOL    HW253683  10.692   0.915  11.063  1.8745  1.1353  0.1149
15545SOL     OW53684   7.801   5.748   7.240 -0.4791  0.5063  0.0233
15545SOL    HW153685   7.855   5.826   7.250  0.8113 -0.1952 -1.0886
15545SOL    HW253686   7.808   5.726   7.147 -0.8146 -0.9240  0.3112
15546SOL     OW53687   8.692   9.345   3.249  0.4765  0.5401  0.0673
15546SOL    HW153688   8.669   9.306   3.165 -0.8521  2.1890 -0.4005
15546SOL    HW253689   8.726   9.432   3.227  1.3242  0.5133  1.1730
15547SOL     OW53690   2.050   6.181   7.843  0.4382 -0.2757  0.0114
15547SOL    HW153691   1.980   6.206   7.903  0.7212 -1.6632  0.9668
15547SOL    HW253692   2.008   6.179   7.757 -0.5978 -0.6959  0.5150
15548SOL     OW53693   0.875  10.606  11.745  0.0347 -0.4968 -0.0155
15548SOL    HW153694   0.892  10.700  11.751 -0.4661 -0.3354 -0.9104
15548SOL    HW253695   0.955  10.564  11.776  0.6771  0.2344 -0.6529
15549SOL     OW53696   4.568   0.855   1.365  0.1807  0.0178 -0.9302
15549SOL    HW153697   4.586   0.794   1.294 -1.8153 -2.1015  0.2456
15549SOL    HW253698   4.588   0.806   1.445 -0.7074  1.1904  0.0475
15550SOL     OW53699   1.642  11.331   1.771  0.0937 -0.4880  0.6715
15550SOL    HW153700   1.554  11.310   1.741  0.5725  0.0804 -1.3601
15550SOL    HW253701   1.634  11.419   1.810 -0.4231 -0.9231  1.5654
15551SOL     OW53702  12.538   6.734   6.002 -0.1820  0.3061 -0.2191
15551SOL    HW153703  12.608   6.736   6.068  1.1846 -1.7146 -1.4995
15551SOL    HW253704  12.549   6.814   5.952  1.1227  0.0848 -0.3005
15552SOL     OW53705   7.139   4.289   0.700 -0.0426  0.1079  0.0675
15552SOL    HW153706   7.203   4.249   0.640  0.1215 -1.2972  1.1297
15552SOL    HW253707   7.170   4.265   0.787 -2.6493 -1.6274  0.6073
15553SOL     OW53708   0.009   4.911   9.654 -0.5678 -0.0626  0.2045
15553SOL    HW153709   0.059   4.888   9.576 -0.2861  0.5170  0.2089
15553SOL    HW253710  -0.012   5.004   9.642 -0.5212  0.0286  0.8154
15554SOL     OW53711   2.868   7.849   4.105  0.1577 -0.5361 -0.3567
15554SOL    HW153712   2.920   7.798   4.043 -0.0091  0.3821 -1.3065
15554SOL    HW253713   2.784   7.862   4.060  0.9095  2.3386 -1.1390
15555SOL     OW53714  10.465   6.645   1.869  0.5357 -0.1061 -0.1132
15555SOL    HW153715  10.450   6.725   1.818 -0.0586 -0.4547 -0.4930
15555SOL    HW253716  10.414   6.578   1.824  1.1122 -0.7298  0.1420
15556SOL     OW53717   8.984  11.072   2.266  0.2026 -0.6215  0.0044
15556SOL    HW153718   8.905  11.023   2.289  0.7085 -0.5039  2.2625
15556SOL    HW253719   9.041  11.008   2.224 -0.7474 -0.9062 -0.8896
15557SOL     OW53720   6.154   5.014   1.884 -0.7091  0.6063 -0.4525
15557SOL    HW153721   6.230   5.070   1.899  0.8424 -0.5447 -3.3833
15557SOL    HW253722   6.176   4.932   1.928 -1.8892  1.3384  1.6730
15558SOL     OW53723   4.497   6.425   0.697  0.1839  0.3171 -0.4546
15558SOL    HW153724   4.436   6.491   0.731  0.0160  0.8803 -1.8008
15558SOL    HW253725   4.578   6.441   0.745 -0.0831  1.0078 -0.2199
15559SOL     OW53726  11.240   3.318   6.219  0.2634 -0.0452 -0.1485
15559SOL    HW153727  11.332   3.310   6.243  0.5741  0.9835 -0.9337
15559SOL    HW253728  11.218   3.409   6.239 -0.4707 -0.1703 -0.3684
15560SOL     OW53729  11.356   2.361  12.202  0.5917  0.2064 -0.6035
15560SOL    HW153730  11.329   2.362  12.294  0.6475  0.9145 -0.5849
15560SOL    HW253731  11.289   2.308  12.158  0.8942 -0.6341 -0.0694
15561SOL     OW53732   3.332   8.209   4.870  0.2507 -0.2000  0.0232
15561SOL    HW153733   3.370   8.147   4.932  0.5508 -1.7280 -1.6213
15561SOL    HW253734   3.314   8.287   4.923 -1.0508 -1.9647  2.3837
15562SOL     OW53735   6.214   0.256   3.084  0.0386  0.4578  0.0047
15562SOL    HW153736   6.234   0.162   3.074  0.6179  0.5356  0.3855
15562SOL    HW253737   6.223   0.272   3.178 -2.6156  0.3384  0.3526
15563SOL     OW53738   7.277   8.460   5.833  0.2271  0.3682 -0.0827
15563SOL    HW153739   7.308   8.497   5.916  0.8557  2.7568 -1.3032
15563SOL    HW253740   7.191   8.424   5.853  0.1319  1.3826  1.4972
15564SOL     OW53741  11.063  11.335   4.652  0.3668  0.5220  0.1158
15564SOL    HW153742  11.003  11.266   4.626 -0.8534  0.7063  2.2679
15564SOL    HW253743  11.029  11.414   4.610  0.3521  0.2597 -0.3709
15565SOL     OW53744  11.986   7.015   5.302  0.0487 -0.4524  0.2347
15565SOL    HW153745  11.909   7.071   5.303 -0.2717 -0.8776  1.2970
15565SOL    HW253746  12.047   7.056   5.364  0.4831 -0.3716 -0.2415
15566SOL     OW53747   4.507   0.215  10.033  0.0273  0.1505 -0.1308
15566SOL    HW153748   4.477   0.124  10.041 -0.5527  0.4034  0.7517
15566SOL    HW253749   4.459   0.249   9.957 -0.1342 -0.1338 -0.1581
15567SOL     OW53750  12.380   3.849  10.617 -0.1748 -0.3553 -0.3235
15567SOL    HW153751  12.353   3.918  10.556  1.4549 -0.1313 -0.8484
15567SOL    HW253752  12.453   3.887  10.665 -0.5262 -1.0433  0.7814
15568SOL     OW53753  12.546   1.491   0.794  0.0409 -0.3889  0.6506
15568SOL    HW153754  12.623   1.435   0.786  0.9371  1.0425 -1.6440
15568SOL    HW253755  12.481   1.452   0.736 -1.0774 -1.6223  2.6178
15569SOL     OW53756   4.813   0.169   4.082 -0.2752  0.7483  0.3318
15569SOL    HW153757   4.847   0.235   4.022 -1.0162 -0.0244 -1.0046
15569SOL    HW253758   4.851   0.191   4.167  0.5920  2.0473 -0.3595
15570SOL     OW53759   2.635   5.313   1.298 -0.0073 -0.7216  0.2608
15570SOL    HW153760   2.633   5.386   1.359  0.9240  1.3218 -1.9779
15570SOL    HW253761   2.549   5.273   1.305 -0.1045 -0.2734  2.4700
15571SOL     OW53762   6.249   7.541   9.945  0.0471 -0.1164  0.9037
15571SOL    HW153763   6.318   7.600   9.977 -0.3710  1.5997 -1.1127
15571SOL    HW253764   6.285   7.503   9.865 -0.4756 -1.0668  1.1100
15572SOL     OW53765   3.535   5.590   2.350  0.0181 -0.1799  0.0473
15572SOL    HW153766   3.562   5.672   2.392 -0.5868 -0.3661  0.8234
15572SOL    HW253767   3.448   5.572   2.386 -0.6351 -0.2292 -1.4872
15573SOL     OW53768   8.345  10.785  11.604  0.2910 -0.4051 -0.0605
15573SOL    HW153769   8.255  10.815  11.593  1.0103  1.3567 -1.5709
15573SOL    HW253770   8.372  10.756  11.517  0.5403 -3.0184  0.7965
15574SOL     OW53771   9.263   4.743   7.138  0.2294 -0.1901 -0.0307
15574SOL    HW153772   9.290   4.702   7.056  2.4949  0.4457  0.3251
15574SOL    HW253773   9.338   4.730   7.197 -0.7240  0.7165  1.4484
15575SOL     OW53774  12.544   4.652   2.016  0.0774  0.0685 -0.2181
15575SOL    HW153775  12.568   4.743   2.033 -1.0215  0.2593  0.3992
15575SOL    HW253776  12.450   4.655   1.996 -0.3814 -1.1005  1.5043
15576SOL     OW53777   2.099   5.466   7.250  0.1790 -0.3958  0.1574
15576SOL    HW153778   2.077   5.476   7.157 -0.2051  1.7336  0.4220
15576SOL    HW253779   2.016   5.443   7.292 -0.0937  0.6088  0.2055
15577SOL     OW53780  10.344  12.023  10.558  0.8212 -0.6260 -0.0698
15577SOL    HW153781  10.359  12.066  10.642  0.0706  2.0278 -1.1824
15577SOL    HW253782  10.337  12.095  10.495 -1.1063 -2.3779 -2.0313
15578SOL     OW53783   2.300   2.686   6.474  0.2583  0.1846  0.2534
15578SOL    HW153784   2.363   2.614   6.472 -0.7048 -0.6873  0.2947
15578SOL    HW253785   2.236   2.660   6.540 -1.5061 -0.1693 -1.4960
15579SOL     OW53786   0.720   2.198   6.219  0.5734 -0.4267  0.5515
15579SOL    HW153787   0.714   2.294   6.217 -0.0597 -0.4687 -0.1161
15579SOL    HW253788   0.674   2.172   6.299  2.7239 -0.0669  1.9755
15580SOL     OW53789   6.969   8.028   0.200  0.2903  0.6831 -0.3310
15580SOL    HW153790   6.951   8.121   0.189 -1.1968  0.5062  0.3075
15580SOL    HW253791   6.965   8.014   0.295 -2.7110 -0.5612 -0.5424
15581SOL     OW53792   5.672   3.208   8.786 -0.3028  0.1877  0.0710
15581SOL    HW153793   5.698   3.164   8.866  0.2526  1.0118  0.3586
15581SOL    HW253794   5.580   3.232   8.800 -0.6188 -0.8581 -0.0969
15582SOL     OW53795   3.285   9.096   3.160 -0.1156 -0.1226 -0.3768
15582SOL    HW153796   3.313   9.033   3.227 -2.1711 -0.3596  0.3351
15582SOL    HW253797   3.228   9.045   3.102 -1.1993  0.8782 -0.2247
15583SOL     OW53798   9.201   0.845  11.627  0.9120  0.1985 -0.0068
15583SOL    HW153799   9.108   0.866  11.634  0.8863  0.3003 -0.6000
15583SOL    HW253800   9.224   0.867  11.537  1.5331  0.2589  0.1598
15584SOL     OW53801   3.960   8.458  11.657 -0.1201  0.3043 -0.0969
15584SOL    HW153802   3.904   8.397  11.609  0.5989  0.0518 -0.6233
15584SOL    HW253803   3.955   8.539  11.606 -2.7456  1.4325  1.6952
15585SOL     OW53804   5.727   5.572   4.137 -0.1836  0.1299 -0.0274
15585SOL    HW153805   5.694   5.652   4.178  0.2649 -1.0074  2.7634
15585SOL    HW253806   5.822   5.584   4.133 -0.2761  0.4974 -1.4034
15586SOL     OW53807   6.935   2.700  10.065  0.1802 -0.3316 -0.0367
15586SOL    HW153808   6.933   2.726  10.158 -1.9110  2.7844 -0.7880
15586SOL    HW253809   6.974   2.613  10.065 -0.9340 -1.0250  3.9060
15587SOL     OW53810  11.051  10.328   9.189 -0.2273  0.1369  0.6461
15587SOL    HW153811  11.079  10.278   9.113  1.2471  0.7147  0.7851
15587SOL    HW253812  10.969  10.286   9.217  1.2248 -2.5811  1.1227
15588SOL     OW53813   4.534   0.192  11.635  0.4214  0.2419 -0.0718
15588SOL    HW153814   4.531   0.135  11.712 -1.8027 -0.9962 -0.9789
15588SOL    HW253815   4.451   0.240  11.638 -0.2000 -0.5797 -2.1868
15589SOL     OW53816   5.426   3.208   4.592 -0.2702 -0.0583 -0.2710
15589SOL    HW153817   5.512   3.246   4.576  0.2887 -1.1679 -0.0244
15589SOL    HW253818   5.365   3.282   4.587  0.6782  0.7209 -0.5577
15590SOL     OW53819   3.808  11.612  12.288 -0.2748 -0.0877  0.1860
15590SOL    HW153820   3.869  11.658  12.346  0.3934  0.9472 -1.2647
15590SOL    HW253821   3.864  11.578  12.217 -1.3262  0.7072 -1.0727
15591SOL     OW53822   6.215   3.828  11.087 -0.1880 -0.0045  0.6887
15591SOL    HW153823   6.278   3.772  11.041 -0.8381 -0.2434  0.0501
15591SOL    HW253824   6.224   3.913  11.044 -2.2592 -0.7338 -1.4277
15592SOL     OW53825  10.659   8.035   3.102 -0.0785  0.6093 -0.0979
15592SOL    HW153826  10.699   7.967   3.047 -0.3732  0.7677 -0.5087
15592SOL    HW253827  10.701   8.116   3.074 -1.2790  0.9031 -1.1303
15593SOL     OW53828   2.236   7.967   3.737  0.7424 -0.0681  0.4669
15593SOL    HW153829   2.220   8.035   3.671  0.1404 -0.8821 -0.2631
15593SOL    HW253830   2.321   7.931   3.713  1.6716  1.2654  1.6366
15594SOL     OW53831  10.686   0.835   2.290  0.1122 -0.1103  0.4984
15594SOL    HW153832  10.768   0.882   2.277 -0.1151  0.0962 -0.2492
15594SOL    HW253833  10.687   0.809   2.382  1.1643 -0.4090  0.4072
15595SOL     OW53834   7.584   6.759   9.843 -0.2848 -0.2077  0.0023
15595SOL    HW153835   7.550   6.827   9.901  0.7113  0.7121 -0.4553
15595SOL    HW253836   7.667   6.733   9.882  0.0689 -0.0586 -0.6273
15596SOL     OW53837   2.516   6.973   8.702 -0.5205 -0.2943  1.1069
15596SOL    HW153838   2.532   6.879   8.711  0.8780 -0.3440 -1.1461
15596SOL    HW253839   2.594   7.014   8.739 -0.6294 -0.0536  1.0685
15597SOL     OW53840   9.276   5.390   1.832  0.9105 -0.1775 -0.0020
15597SOL    HW153841   9.191   5.428   1.851  0.7131 -0.9482  0.7443
15597SOL    HW253842   9.260   5.333   1.757  0.5424 -1.0308  0.7021
15598SOL     OW53843  11.974   1.080   7.649  0.0075  0.1820 -0.5375
15598SOL    HW153844  11.896   1.031   7.622 -0.5797  0.7603  0.0646
15598SOL    HW253845  11.960   1.098   7.742  0.3989  1.1269 -0.6484
15599SOL     OW53846  11.382   3.725   0.941  0.0973  0.3105  0.7267
15599SOL    HW153847  11.453   3.779   0.973  0.8553  1.3222 -2.3192
15599SOL    HW253848  11.304   3.755   0.989  1.1548  1.4309  1.7983
15600SOL     OW53849  11.067   0.174   7.607  0.2008  0.2121  0.3766
15600SOL    HW153850  11.032   0.253   7.565 -0.3274  0.5322  1.3862
15600SOL    HW253851  11.028   0.101   7.558 -0.1631  0.5698  0.1307
15601SOL     OW53852   0.117  11.518  10.915 -0.7337 -0.1046  0.0454
15601SOL    HW153853   0.030  11.559  10.916  0.5385  2.8896  0.4329
15601SOL    HW253854   0.163  11.560  10.988  1.4954 -0.4654 -1.0804
15602SOL     OW53855   0.822   2.517   5.042 -0.2019  0.3428  1.3705
15602SOL    HW153856   0.877   2.550   4.971 -0.9321  0.9020  1.0449
15602SOL    HW253857   0.781   2.439   5.005  0.5614 -0.2251  1.7044
15603SOL     OW53858   9.304   2.881   8.739 -0.7273 -0.2564  0.1274
15603SOL    HW153859   9.358   2.802   8.728 -0.2398  0.2573 -1.5827
15603SOL    HW253860   9.244   2.860   8.810  1.4133 -1.0324  1.8371
15604SOL     OW53861   8.377  10.702  12.108  0.1830 -0.5491  0.0494
15604SOL    HW153862   8.363  10.769  12.174 -0.0018 -0.4404 -0.0990
15604SOL    HW253863   8.289  10.677  12.080  0.2721  0.0465 -0.8030
15605SOL     OW53864   9.615   7.264   4.853 -0.7753  0.0821 -0.8048
15605SOL    HW153865   9.525   7.297   4.850 -1.7475 -2.3645 -0.9466
15605SOL    HW253866   9.606   7.173   4.882  1.8230  0.2326  0.7553
15606SOL     OW53867   9.027   4.652   1.386 -0.6572  0.0488  0.0261
15606SOL    HW153868   9.070   4.724   1.432 -0.2240 -0.1445 -0.0789
15606SOL    HW253869   9.000   4.691   1.303  0.7935 -0.2544 -0.6163
15607SOL     OW53870  10.595  10.548   5.000 -0.1658  0.2541 -0.2900
15607SOL    HW153871  10.651  10.616   4.964 -0.5226  0.0270 -1.3201
15607SOL    HW253872  10.643  10.514   5.075  0.4284  1.0176 -0.3160
15608SOL     OW53873  10.096   2.074  10.661  0.1044  0.6650  0.9347
15608SOL    HW153874  10.149   1.995  10.650  0.7430  1.2281 -0.2339
15608SOL    HW253875  10.006   2.044  10.646  0.4176  0.2806 -0.2959
15609SOL     OW53876   9.117   1.696   9.434  0.1606  0.0203  0.1094
15609SOL    HW153877   9.079   1.719   9.350  0.6296 -3.9231 -1.4063
15609SOL    HW253878   9.054   1.635   9.473  1.5630 -0.9664  0.9171
15610SOL     OW53879   0.415   1.925   0.703  0.0769  0.8308  0.0614
15610SOL    HW153880   0.404   2.003   0.649 -0.2569  0.1149 -0.9167
15610SOL    HW253881   0.351   1.862   0.669 -0.0629  0.3123  1.2090
15611SOL     OW53882   9.186  12.133  10.949 -0.1275  0.3497  0.2421
15611SOL    HW153883   9.188  12.141  10.853  0.9262  0.2650  0.2508
15611SOL    HW253884   9.211  12.043  10.966  0.6706  0.6374  0.6298
15612SOL     OW53885   3.390   5.283  10.674  0.1089 -0.0090  0.3969
15612SOL    HW153886   3.472   5.242  10.646  0.6176  1.4208 -0.2830
15612SOL    HW253887   3.364   5.232  10.751  0.7835 -1.4969 -0.3047
15613SOL     OW53888   6.126   7.575   8.581 -0.1990  0.1495  0.2432
15613SOL    HW153889   6.168   7.638   8.521  1.4463 -0.4643  0.7178
15613SOL    HW253890   6.082   7.630   8.645 -0.0526  0.8177 -0.2118
15614SOL     OW53891   6.605   2.100   3.532  0.5958 -0.0244 -0.2776
15614SOL    HW153892   6.638   2.064   3.615 -0.2164 -1.0728 -0.3904
15614SOL    HW253893   6.658   2.178   3.517  2.2583 -1.0295  0.1088
15615SOL     OW53894  11.932   4.040   5.523 -0.3268 -0.2057  0.1382
15615SOL    HW153895  11.948   4.134   5.532  0.2150 -0.4882  2.6928
15615SOL    HW253896  12.002   4.010   5.464  1.2813  0.5808  1.5549
15616SOL     OW53897   6.926  10.491  10.574 -0.0426 -1.0532 -0.5890
15616SOL    HW153898   6.986  10.443  10.629 -0.0896 -0.4337  0.0194
15616SOL    HW253899   6.848  10.505  10.629  0.2243  0.2762 -0.4995
15617SOL     OW53900   5.002  12.120   5.221 -0.4093  0.4337 -0.0261
15617SOL    HW153901   5.020  12.026   5.225  0.5021  0.6251  0.7834
15617SOL    HW253902   4.934  12.134   5.288 -1.8717  0.0944 -1.3872
15618SOL     OW53903  12.068  12.206  10.890  0.4411 -0.2728  0.2656
15618SOL    HW153904  12.154  12.209  10.847  0.5215 -1.2689  0.3250
15618SOL    HW253905  12.026  12.129  10.853 -1.0807  1.0714 -0.9097
15619SOL     OW53906   7.978  11.272   4.984  0.2217 -0.5110  0.0763
15619SOL    HW153907   7.904  11.332   4.989  1.4224  0.9509  1.6601
15619SOL    HW253908   8.027  11.300   4.908 -1.7143 -2.6962 -2.1686
15620SOL     OW53909   7.646  10.464   8.225  0.0653 -0.0275 -0.1723
15620SOL    HW153910   7.696  10.452   8.144  0.8920  1.4343  0.0845
15620SOL    HW253911   7.626  10.558   8.227 -3.8711 -0.6888 -0.8897
15621SOL     OW53912  12.232   0.500   4.891  0.2278  0.2430  0.2727
15621SOL    HW153913  12.291   0.526   4.820  0.5842  0.9634  0.8059
15621SOL    HW253914  12.147   0.538   4.867 -0.1401 -1.1289 -0.6906
15622SOL     OW53915  10.165   8.436   0.538  0.0867 -0.4878 -0.1797
15622SOL    HW153916  10.173   8.473   0.626  1.7672 -0.3817 -0.3350
15622SOL    HW253917  10.243   8.381   0.528 -1.3870 -2.6186 -0.6638
15623SOL     OW53918   0.468   7.061   8.097  0.0947 -0.3604 -0.1577
15623SOL    HW153919   0.446   7.081   8.007  1.1496 -1.2046 -0.6286
15623SOL    HW253920   0.524   6.983   8.092  3.4263  1.7271  0.8394
15624SOL     OW53921  11.854   1.765   3.745 -0.1603 -0.0173 -0.5216
15624SOL    HW153922  11.904   1.734   3.669  2.0046  1.2001  0.3152
15624SOL    HW253923  11.840   1.688   3.799 -0.3196 -0.6056 -1.3883
15625SOL     OW53924   7.435  11.116   6.735 -0.2271  0.1973 -0.1311
15625SOL    HW153925   7.526  11.087   6.746 -0.0469  0.4965 -0.8189
15625SOL    HW253926   7.442  11.201   6.692 -0.8577 -0.0507 -0.7307
15626SOL     OW53927   6.920  11.087   1.734  0.2009 -0.8313 -0.3439
15626SOL    HW153928   7.013  11.079   1.716  0.4622  0.0193  0.5320
15626SOL    HW253929   6.903  11.182   1.731 -0.1246 -0.7700  1.7325
15627SOL     OW53930   8.078   9.990   9.765  0.3007  0.1927  0.3345
15627SOL    HW153931   8.135   9.966   9.838 -0.6608  1.0780  1.4109
15627SOL    HW253932   8.127  10.057   9.717  1.1355 -0.7279 -0.1413
15628SOL     OW53933   0.029  11.719  12.478  0.0467  0.3254 -0.2770
15628SOL    HW153934   0.093  11.769  12.528  0.2836 -1.0573  0.8786
15628SOL    HW253935  -0.017  11.784  12.425  0.2823  1.7396  1.1906
15629SOL     OW53936   4.440   4.349   2.255  0.1406 -0.3287 -0.2333
15629SOL    HW153937   4.453   4.353   2.349  2.8882 -2.3350 -0.4057
15629SOL    HW253938   4.345   4.343   2.243 -0.2067 -1.0755  2.4338
15630SOL     OW53939   9.114  10.527   1.258  0.0694  0.3154 -0.4499
15630SOL    HW153940   9.104  10.453   1.319 -0.5322  0.1589 -0.7290
15630SOL    HW253941   9.200  10.513   1.218  1.1968  1.2691  1.4662
15631SOL     OW53942   8.698   7.799  11.694 -0.5685  0.2046  0.0657
15631SOL    HW153943   8.734   7.753  11.618 -2.0858 -0.7537 -0.0995
15631SOL    HW253944   8.604   7.786  11.688 -0.7395  0.3230  2.0051
15632SOL     OW53945   1.341   8.669   9.071  0.4484 -0.0239 -0.0386
15632SOL    HW153946   1.335   8.614   8.992 -2.0640 -0.3109  0.2547
15632SOL    HW253947   1.271   8.733   9.060  2.8299  2.7577 -0.0081
15633SOL     OW53948   2.310   7.917   6.152 -0.5810  0.1607  0.0463
15633SOL    HW153949   2.367   7.841   6.144 -0.5866  0.0033  1.2873
15633SOL    HW253950   2.226   7.888   6.117 -0.3771 -0.1631 -0.1743
15634SOL     OW53951   7.706   9.405  10.140 -0.0087  0.0898 -0.6870
15634SOL    HW153952   7.680   9.481  10.192  2.3387 -0.1915  1.0547
15634SOL    HW253953   7.712   9.333  10.203 -0.7279 -1.2377 -2.0421
15635SOL     OW53954   8.378   6.612   1.809  0.6573  0.8491  0.2755
15635SOL    HW153955   8.386   6.699   1.848  3.0978  0.3906  0.9759
15635SOL    HW253956   8.339   6.559   1.878 -0.1324  1.1976  0.1111
15636SOL     OW53957   2.754   6.955   5.246 -0.1390  1.0256 -0.2932
15636SOL    HW153958   2.701   6.969   5.325 -0.5326  2.0039 -0.7189
15636SOL    HW253959   2.742   6.862   5.225  0.6454  0.5374  1.2732
15637SOL     OW53960   2.525  12.060  12.228 -0.3534 -0.0283 -0.4548
15637SOL    HW153961   2.470  11.986  12.252  0.5683 -0.7807 -0.6056
15637SOL    HW253962   2.543  12.105  12.310 -1.2240  0.2612 -0.4106
15638SOL     OW53963   7.893   9.082   8.549  0.1644 -0.2740  0.1962
15638SOL    HW153964   7.920   9.134   8.625 -1.9203  2.1476 -0.5427
15638SOL    HW253965   7.847   9.007   8.586 -2.1915  1.6363  1.4822
15639SOL     OW53966  10.463   7.585   5.708  0.3348  0.2628  0.1940
15639SOL    HW153967  10.389   7.641   5.685 -0.2054 -0.8396 -0.8748
15639SOL    HW253968  10.522   7.591   5.633  0.2941 -0.5284  0.0855
15640SOL     OW53969   9.629   0.950   4.384  0.0270  0.0220  0.3822
15640SOL    HW153970   9.652   1.008   4.312  0.4802 -0.1567  0.3816
15640SOL    HW253971   9.536   0.933   4.372  0.5023 -1.7109 -1.4026
15641SOL     OW53972   5.234  10.530   3.584 -0.3346 -0.5866 -0.1491
15641SOL    HW153973   5.221  10.533   3.679 -0.4584  0.6752 -0.1937
15641SOL    HW253974   5.302  10.464   3.572  0.0486 -0.4066  0.8687
15642SOL     OW53975   0.243   8.503   9.320 -0.2898  0.1087  0.2683
15642SOL    HW153976   0.274   8.429   9.371  0.1417 -0.9923 -1.5284
15642SOL    HW253977   0.173   8.541   9.373  0.0331 -1.0801  1.5868
15643SOL     OW53978  12.169  11.521  11.890 -0.1320 -0.4193 -0.0227
15643SOL    HW153979  12.208  11.575  11.821 -1.5326  0.0605 -0.4879
15643SOL    HW253980  12.110  11.581  11.936 -0.8056 -1.2464  0.2210
15644SOL     OW53981   9.658   5.854   5.148  0.0529  0.3311 -0.1564
15644SOL    HW153982   9.604   5.889   5.220 -0.3512 -0.2769 -0.1559
15644SOL    HW253983   9.677   5.930   5.094  1.1110  0.9793  1.0622
15645SOL     OW53984  11.248   3.952  10.556 -0.0275 -0.0034 -0.1037
15645SOL    HW153985  11.302   4.027  10.529  1.2679 -0.0608  2.0408
15645SOL    HW253986  11.219   3.912  10.474  0.6310  1.8709 -1.3135
15646SOL     OW53987   5.855   0.078   4.499 -0.5229 -0.4512 -0.2982
15646SOL    HW153988   5.820   0.102   4.413  1.7702  0.1600 -1.1441
15646SOL    HW253989   5.853  -0.017   4.500 -0.9295 -0.4540 -0.8645
15647SOL     OW53990   6.006   0.001   0.212 -0.0770 -0.3081 -0.4983
15647SOL    HW153991   5.947  -0.016   0.284 -1.7886 -1.1558 -2.0226
15647SOL    HW253992   5.969   0.077   0.167 -1.5813 -2.3198 -2.9245
15648SOL     OW53993   9.296   7.944   1.834 -0.3005  0.6158 -0.4124
15648SOL    HW153994   9.332   7.905   1.754  1.3419  0.7392  0.2274
15648SOL    HW253995   9.373   7.977   1.881 -1.1139 -0.3039  1.6855
15649SOL     OW53996   7.989   7.528  10.033  0.5843 -0.1348  0.3200
15649SOL    HW153997   7.930   7.550  10.105  0.6899 -0.0566  0.3850
15649SOL    HW253998   8.017   7.614   9.999 -1.7490 -0.0756 -1.7480
15650SOL     OW53999  10.163   0.320   5.257 -0.2912 -0.0971  0.6801
15650SOL    HW154000  10.149   0.383   5.327  1.1129  0.3293  0.6207
15650SOL    HW254001  10.126   0.362   5.179 -0.5402  0.0694  0.8872
15651SOL     OW54002   8.832   6.018   0.592 -0.4245 -0.2108  0.1582
15651SOL    HW154003   8.921   6.017   0.628 -0.0643 -1.0562 -0.7076
15651SOL    HW254004   8.803   5.927   0.598 -0.9774 -0.0643 -0.1764
15652SOL     OW54005  11.967  11.607   3.053 -0.0486 -0.5297  0.1611
15652SOL    HW154006  11.944  11.594   3.145 -1.2828  0.4683  0.0272
15652SOL    HW254007  11.977  11.519   3.018 -1.9126 -1.0192  0.7187
15653SOL     OW54008   3.154   1.324   4.391 -0.2370  0.1597  0.2857
15653SOL    HW154009   3.101   1.386   4.441 -1.0537  0.0292 -0.3844
15653SOL    HW254010   3.217   1.289   4.454  0.0213  1.4201  0.7458
15654SOL     OW54011   8.054   5.656  12.488  0.0472 -0.4316  0.3156
15654SOL    HW154012   8.092   5.685  12.570  1.6293 -2.4484  0.3672
15654SOL    HW254013   7.962   5.640  12.509  0.5794 -1.6549  1.9456
15655SOL     OW54014  10.027  11.435   4.911 -0.1086  0.0454 -0.1112
15655SOL    HW154015   9.940  11.397   4.898 -0.4396  0.9240 -0.5265
15655SOL    HW254016  10.010  11.520   4.951  0.6734 -0.6757  1.8857
15656SOL     OW54017  10.613   5.894   6.983  0.2694 -0.8836 -0.3925
15656SOL    HW154018  10.569   5.914   6.901 -0.1787 -0.0105  0.0371
15656SOL    HW254019  10.546   5.854   7.038  0.2235 -0.3474 -0.0413
15657SOL     OW54020  10.643   6.022  11.527 -0.1450 -0.3391  0.4519
15657SOL    HW154021  10.702   6.024  11.602 -0.4405 -0.3884  0.6867
15657SOL    HW254022  10.584   6.095  11.540 -0.6291 -0.7532  0.6247
15658SOL     OW54023   2.994   7.387   2.817 -0.7150 -0.7333 -0.0205
15658SOL    HW154024   3.088   7.372   2.830 -0.4683  0.6061 -0.1274
15658SOL    HW254025   2.955   7.368   2.903 -0.2430 -0.4785  0.2538
15659SOL     OW54026  10.944   4.041   8.344  0.2867 -0.1490 -0.1621
15659SOL    HW154027  11.014   3.991   8.302  0.6328 -0.3842  0.6573
15659SOL    HW254028  10.867   3.984   8.339 -1.0202  1.6148 -4.5618
15660SOL     OW54029   2.932   9.074  10.375 -0.1231 -0.1616  0.4648
15660SOL    HW154030   2.984   9.021  10.434 -0.7338  0.8470  1.9620
15660SOL    HW254031   2.989   9.148  10.352  0.8776 -1.5515 -1.9379
15661SOL     OW54032   1.606   6.788  11.768 -0.2958  0.5413  0.3805
15661SOL    HW154033   1.672   6.727  11.801 -0.3401  0.5190  0.4281
15661SOL    HW254034   1.537   6.786  11.834 -1.3986 -1.1824 -0.7408
15662SOL     OW54035   3.795   7.422   9.238  0.3529  0.7978  0.0800
15662SOL    HW154036   3.739   7.455   9.309  0.6444 -0.9277  1.1565
15662SOL    HW254037   3.734   7.389   9.173  0.0948  1.8662 -0.2478
15663SOL     OW54038   3.103   7.864   4.305 -0.3642  0.5269  0.1747
15663SOL    HW154039   3.074   7.939   4.253  0.9232 -0.0594 -1.4951
15663SOL    HW254040   3.034   7.799   4.295  0.5806 -0.2012 -2.2822
15664SOL     OW54041   0.783   5.166  10.699 -0.5973 -0.9650 -0.2293
15664SOL    HW154042   0.860   5.120  10.665 -1.5573 -0.9256 -2.6792
15664SOL    HW254043   0.799   5.258  10.679 -1.2145 -0.9420 -0.6337
15665SOL     OW54044   9.507   3.374   3.506 -0.2180 -0.5680  0.3621
15665SOL    HW154045   9.493   3.326   3.425 -1.3572  1.1915 -0.5413
15665SOL    HW254046   9.597   3.352   3.532  0.2856 -0.9405 -1.5337
15666SOL     OW54047   4.274   5.818   6.901  0.1173  0.0822  0.1785
15666SOL    HW154048   4.291   5.749   6.965  0.6342 -0.1942 -0.2441
15666SOL    HW254049   4.338   5.802   6.831 -2.4256 -1.5293 -1.9760
15667SOL     OW54050   4.399   4.740   5.684  0.4688 -0.2462 -0.0957
15667SOL    HW154051   4.393   4.645   5.690  3.1912 -0.4099  1.4965
15667SOL    HW254052   4.416   4.769   5.774 -0.3017  1.7706 -0.5436
15668SOL     OW54053   3.175  10.280   3.416  0.0956 -0.1574 -0.1253
15668SOL    HW154054   3.192  10.302   3.508  0.1427 -1.1665  0.1231
15668SOL    HW254055   3.260  10.252   3.382 -0.0623 -0.4518 -0.2813
15669SOL     OW54056  10.048   0.903   6.605 -0.1812  0.3948 -0.4714
15669SOL    HW154057  10.087   0.818   6.624  2.0382  0.6610 -3.1273
15669SOL    HW254058   9.959   0.883   6.575  0.0441 -0.9182 -0.3059
15670SOL     OW54059   7.579   1.942   0.205 -0.5090 -0.1546  0.1449
15670SOL    HW154060   7.581   2.033   0.234 -2.9304  0.3877 -1.1462
15670SOL    HW254061   7.574   1.948   0.109 -1.1168 -1.6429  0.0577
15671SOL     OW54062   3.959   8.610   3.952 -0.4859  0.2247 -0.0394
15671SOL    HW154063   3.874   8.623   3.994 -0.6817 -1.1994  0.0619
15671SOL    HW254064   4.009   8.689   3.974 -1.4084  0.5859  0.8308
15672SOL     OW54065   3.835   3.301   3.662  0.6773  0.4568 -0.2038
15672SOL    HW154066   3.825   3.207   3.652  0.2377  0.5814 -0.9786
15672SOL    HW254067   3.866   3.312   3.752 -1.4453 -0.2710  0.6696
15673SOL     OW54068   5.102   2.722   6.248  0.6098  0.2917 -0.4084
15673SOL    HW154069   5.013   2.721   6.214  0.3835  1.4866  0.0975
15673SOL    HW254070   5.156   2.746   6.173  0.7055 -1.7854 -1.0672
15674SOL     OW54071  10.332   8.274   6.667 -0.2869  0.0594  0.1181
15674SOL    HW154072  10.279   8.353   6.666 -0.4634 -0.0594 -0.4033
15674SOL    HW254073  10.417   8.302   6.700 -0.0491  0.6644 -0.9563
15675SOL     OW54074   8.239   9.505  11.947 -0.0925 -1.1246 -0.2840
15675SOL    HW154075   8.167   9.568  11.937  0.3691 -0.4130  0.6651
15675SOL    HW254076   8.312   9.545  11.899  0.1289 -1.0447  0.1132
15676SOL     OW54077   4.667   5.138   3.863 -0.6431  0.2818 -0.3770
15676SOL    HW154078   4.712   5.120   3.780 -2.0602  0.0433 -1.1461
15676SOL    HW254079   4.698   5.224   3.890  0.0138  0.2648 -1.0529
15677SOL     OW54080   0.620  10.069  12.556 -0.2493 -0.4072 -0.2768
15677SOL    HW154081   0.671  10.027  12.625  1.1792 -0.0034 -1.0665
15677SOL    HW254082   0.566   9.999  12.520 -2.7391 -0.2416  2.6440
15678SOL     OW54083   0.243   1.236   7.214  0.5861  0.7691  0.2177
15678SOL    HW154084   0.309   1.293   7.253  1.0048 -0.0883  0.7931
15678SOL    HW254085   0.195   1.200   7.288  1.1369 -0.5719 -0.0415
15679SOL     OW54086  10.958   4.152   1.633 -0.0498 -0.4028  0.3252
15679SOL    HW154087  10.964   4.111   1.719 -1.2572 -1.0984  0.0929
15679SOL    HW254088  10.891   4.219   1.643  1.5062  1.1969  0.5511
15680SOL     OW54089   5.301   0.587   4.722 -0.1287 -0.2807  0.7657
15680SOL    HW154090   5.262   0.603   4.635 -1.1692 -2.4904  0.7460
15680SOL    HW254091   5.360   0.513   4.708 -0.1631 -0.5356  1.8921
15681SOL     OW54092   8.009   6.464  10.076 -0.4035 -0.2213 -0.0535
15681SOL    HW154093   8.034   6.496   9.989 -0.3429 -0.5729 -0.1669
15681SOL    HW254094   8.071   6.505  10.136 -0.9816  0.7078 -0.0724
15682SOL     OW54095  11.910  11.345  10.377  0.2499  0.5876  0.1802
15682SOL    HW154096  11.917  11.273  10.315  4.0449  1.7906 -1.0684
15682SOL    HW254097  11.937  11.308  10.460 -0.7708 -0.0555  0.2460
15683SOL     OW54098   6.644   0.093   7.217 -0.1908  0.2209  0.0293
15683SOL    HW154099   6.571   0.040   7.184 -0.2361 -0.3940  1.0992
15683SOL    HW254100   6.604   0.175   7.244 -0.4217  0.0317  0.2554
15684SOL     OW54101  12.463   4.801   6.846  0.7251  0.0598  0.0014
15684SOL    HW154102  12.486   4.800   6.753  0.6748  2.0779 -0.0779
15684SOL    HW254103  12.414   4.719   6.859 -1.2160  0.7177 -2.3043
15685SOL     OW54104   1.454   6.550   7.011 -0.1878  0.0673  0.3774
15685SOL    HW154105   1.546   6.537   7.035 -0.0434 -0.8008 -0.5795
15685SOL    HW254106   1.427   6.467   6.972 -0.8385  0.8931 -1.0401
15686SOL     OW54107   6.095   5.159  10.323 -0.3123 -0.6572  0.6187
15686SOL    HW154108   6.072   5.245  10.286  1.6816 -0.6909 -0.9142
15686SOL    HW254109   6.082   5.169  10.417  0.3242  1.5231  0.5411
15687SOL     OW54110   6.243   7.558   1.762 -0.2200  0.0982  0.1069
15687SOL    HW154111   6.166   7.614   1.773 -1.5536 -1.6388  0.0476
15687SOL    HW254112   6.271   7.536   1.851 -1.3683 -1.2814  0.1589
15688SOL     OW54113   7.411   4.167   6.001 -0.0462  0.1450 -0.7425
15688SOL    HW154114   7.489   4.205   5.960  0.5102  1.0061  1.0123
15688SOL    HW254115   7.433   4.074   6.010  1.2089  0.5319  0.5819
15689SOL     OW54116   6.940   1.219  11.656 -0.2495 -0.7765  0.3766
15689SOL    HW154117   6.978   1.236  11.742 -1.6275  1.2419  0.6400
15689SOL    HW254118   7.014   1.187  11.604  1.8112  2.5079  0.9861
15690SOL     OW54119   8.939   1.263  10.492  0.3546  0.4943 -0.1041
15690SOL    HW154120   8.852   1.297  10.513  0.1075 -0.3044  0.1696
15690SOL    HW254121   8.999   1.323  10.538 -0.0254  1.2790 -0.6180
15691SOL     OW54122   3.503   3.685   1.322  0.4275  0.3133 -0.3271
15691SOL    HW154123   3.422   3.675   1.371  0.9421 -1.4923  0.2308
15691SOL    HW254124   3.477   3.685   1.230 -0.2379  0.1706 -0.1387
15692SOL     OW54125   5.006  10.894   6.406 -0.5172  0.2651 -0.3798
15692SOL    HW154126   5.101  10.886   6.397 -0.7899 -3.3722 -1.8612
15692SOL    HW254127   4.992  10.911   6.499  1.5349  3.3613 -0.4774
15693SOL     OW54128   1.981  11.907   2.953  0.4240 -0.0467  0.2389
15693SOL    HW154129   1.952  11.995   2.930 -0.1360 -0.5679 -1.2105
15693SOL    HW254130   1.947  11.892   3.041 -0.2900  0.8302  0.1262
15694SOL     OW54131   6.455   8.899   2.489  0.5126  0.5537  0.1411
15694SOL    HW154132   6.520   8.867   2.552  0.6194 -0.6994 -0.5643
15694SOL    HW254133   6.433   8.987   2.519  0.1931 -0.1958  2.2012
15695SOL     OW54134  11.776   2.877   5.054 -0.2714  0.1302  0.0760
15695SOL    HW154135  11.821   2.802   5.016  0.9933  1.2488 -0.7249
15695SOL    HW254136  11.765   2.937   4.980 -0.9816  0.8685  0.7700
15696SOL     OW54137   8.709  11.160   3.686  0.3643 -0.3689 -0.1079
15696SOL    HW154138   8.685  11.194   3.600  1.5675  0.0942 -0.2774
15696SOL    HW254139   8.667  11.074   3.691 -0.2843 -0.1085 -0.8673
15697SOL     OW54140   6.823  11.097   7.852 -0.4744  0.6899  0.0737
15697SOL    HW154141   6.824  11.001   7.854  1.4958  0.6548  1.5231
15697SOL    HW254142   6.731  11.120   7.839 -0.8370 -1.3646 -1.6419
15698SOL     OW54143   2.212   5.593   7.800  0.3450  0.0720  0.2059
15698SOL    HW154144   2.162   5.672   7.780  0.8520  0.5232  0.6950
15698SOL    HW254145   2.226   5.596   7.895 -0.2615 -0.9835  0.3453
15699SOL     OW54146   9.091   0.585   9.746  0.4570  0.1056 -0.3666
15699SOL    HW154147   9.130   0.503   9.776  1.1441  1.2890  2.1605
15699SOL    HW254148   9.146   0.612   9.673  2.7844  0.3359  1.3711
15700SOL     OW54149   7.995   0.737  10.420  0.1969  0.0030 -0.6019
15700SOL    HW154150   8.024   0.828  10.416 -0.8093  0.3024 -2.4393
15700SOL    HW254151   7.900   0.742  10.429  0.2288 -0.8977  0.4761
15701SOL     OW54152  11.312   8.447   5.091  0.3036  0.0846 -0.5475
15701SOL    HW154153  11.306   8.541   5.077 -1.2259  0.1793  0.4784
15701SOL    HW254154  11.381   8.437   5.157  0.8215  0.4343 -1.0305
15702SOL     OW54155   8.172   4.546   4.727  0.5129  0.5997  0.4455
15702SOL    HW154156   8.139   4.541   4.638  0.1802  0.8445  0.5544
15702SOL    HW254157   8.098   4.517   4.781  0.6796  0.5494  0.6471
15703SOL     OW54158   2.467   8.177   4.832  0.0720  0.2749  0.8367
15703SOL    HW154159   2.481   8.114   4.902 -0.2566  1.3505  1.9085
15703SOL    HW254160   2.429   8.126   4.760  2.9279 -1.3721  0.3742
15704SOL     OW54161  11.486  12.189  12.353  0.2294  0.0871 -0.1383
15704SOL    HW154162  11.392  12.183  12.371  0.4764 -2.6685  0.7364
15704SOL    HW254163  11.516  12.098  12.348  3.2739  0.7657  2.1037
15705SOL     OW54164   2.270   3.602   4.843  0.4052 -0.2358  0.1422
15705SOL    HW154165   2.231   3.576   4.760 -0.9589  0.7810  0.4381
15705SOL    HW254166   2.246   3.533   4.904 -0.3509  0.0357  0.1588
15706SOL     OW54167   6.804   9.339   2.742 -0.3675 -0.2331  0.0412
15706SOL    HW154168   6.720   9.357   2.699  1.1272  3.1035 -1.9024
15706SOL    HW254169   6.807   9.398   2.816 -0.0240 -0.8942  0.5669
15707SOL     OW54170   3.238   4.045   7.619  0.4596 -0.7363  0.0099
15707SOL    HW154171   3.188   3.970   7.587  1.2433 -0.6426 -1.5170
15707SOL    HW254172   3.173   4.115   7.628 -0.2283 -1.4833  1.1727
15708SOL     OW54173   3.645   6.110  11.149 -0.0242 -0.6807 -0.4670
15708SOL    HW154174   3.587   6.092  11.223  0.5509 -0.2016  0.1159
15708SOL    HW254175   3.588   6.106  11.072 -0.4240 -2.3283 -0.1271
15709SOL     OW54176   5.456   6.986   0.943  0.3328  0.4179  0.5855
15709SOL    HW154177   5.436   6.897   0.971 -0.8640 -0.4845 -2.6425
15709SOL    HW254178   5.383   7.038   0.976 -0.8550 -0.5203 -0.4601
15710SOL     OW54179   6.381   8.978   0.389  0.0715  0.5127 -0.8685
15710SOL    HW154180   6.335   8.918   0.329  0.6701 -0.0566 -0.7706
15710SOL    HW254181   6.328   8.978   0.468  0.5025 -0.5687 -0.5549
15711SOL     OW54182  11.385   4.995   6.983 -0.0561  0.3802  0.2909
15711SOL    HW154183  11.450   5.065   6.989 -0.3588  0.6533  0.3786
15711SOL    HW254184  11.314   5.032   6.932 -0.8571  0.6420  1.5416
15712SOL     OW54185  12.012   5.673  11.615  0.4298  0.5829 -0.1286
15712SOL    HW154186  12.104   5.661  11.590  0.5158  1.5022 -0.2651
15712SOL    HW254187  11.979   5.741  11.557 -0.8618 -0.9433 -1.2939
15713SOL     OW54188   9.151   3.412   5.707  0.0444 -0.1697  0.4671
15713SOL    HW154189   9.240   3.438   5.730  0.6966 -1.9769  0.1112
15713SOL    HW254190   9.099   3.437   5.784  1.2416 -1.0409  1.6138
15714SOL     OW54191  12.430   7.591   3.626 -0.1005  0.0141 -0.2012
15714SOL    HW154192  12.512   7.601   3.579  0.9514 -0.1173  1.5159
15714SOL    HW254193  12.381   7.526   3.576 -0.0827  1.5847 -2.3984
15715SOL     OW54194  10.212  11.379   1.001  0.0063  0.0084  0.6751
15715SOL    HW154195  10.300  11.388   1.040  0.4612 -0.3332 -0.2453
15715SOL    HW254196  10.160  11.340   1.071  0.2493  1.3787  1.6756
15716SOL     OW54197   0.937   9.216  11.337 -0.4023 -0.8754  0.0788
15716SOL    HW154198   1.000   9.249  11.401 -0.6791 -1.1843  0.5147
15716SOL    HW254199   0.916   9.128  11.368  0.4260 -1.5286 -1.1378
15717SOL     OW54200   0.578   4.322   8.274 -0.3442  0.1280 -0.3232
15717SOL    HW154201   0.601   4.280   8.191  0.8136 -2.0131  0.9740
15717SOL    HW254202   0.610   4.261   8.341 -3.8714  0.2516  1.7327
15718SOL     OW54203   3.616   0.988   6.723  0.7128 -0.3813 -0.2256
15718SOL    HW154204   3.676   1.027   6.786  2.7541  0.4952 -2.5699
15718SOL    HW254205   3.664   0.916   6.684  0.1210  0.0419 -1.8423
15719SOL     OW54206   5.219   2.860  10.259 -0.2428 -0.2359 -0.3309
15719SOL    HW154207   5.222   2.840  10.352  1.6575  0.0672 -0.2840
15719SOL    HW254208   5.271   2.791  10.217  1.4070  1.2133 -0.8007
15720SOL     OW54209   7.165  11.490   6.458  0.5646 -0.4588 -0.4367
15720SOL    HW154210   7.111  11.501   6.536 -0.9313 -0.3793 -1.4512
15720SOL    HW254211   7.181  11.396   6.453 -0.7273 -0.6768 -0.9064
15721SOL     OW54212   3.651   5.154  11.100  0.2105  0.1492  0.6518
15721SOL    HW154213   3.598   5.233  11.088  1.3848  0.9963  0.8071
15721SOL    HW254214   3.735   5.175  11.059  0.4484 -1.1406  0.4403
15722SOL     OW54215  10.063   8.966   3.693  0.1064  1.1452  0.2106
15722SOL    HW154216  10.000   9.036   3.713  0.3113  1.0390  1.2733
15722SOL    HW254217  10.030   8.927   3.613  0.6129  3.1920 -1.0798
15723SOL     OW54218   7.866   3.310   3.948  0.8400 -0.3304  0.5403
15723SOL    HW154219   7.851   3.221   3.916 -0.3995  0.6759 -1.8308
15723SOL    HW254220   7.939   3.343   3.895  1.4959  0.0248  1.6083
15724SOL     OW54221   0.977   2.923   5.244  1.1845  0.2764  0.2984
15724SOL    HW154222   0.957   2.829   5.246 -0.2921  0.5714  1.2647
15724SOL    HW254223   1.058   2.930   5.193  1.5399 -1.5513  0.5573
15725SOL     OW54224   3.039   8.352   4.496 -0.0536  0.0900 -0.0944
15725SOL    HW154225   2.968   8.289   4.511 -0.5276  0.7688  0.5973
15725SOL    HW254226   3.053   8.393   4.581  0.3746  0.7968 -0.4938
15726SOL     OW54227   3.773   2.421   7.618 -0.5891 -0.3203  0.1316
15726SOL    HW154228   3.794   2.440   7.709  0.8521 -1.8430  0.1648
15726SOL    HW254229   3.834   2.352   7.593  0.8706  1.8064 -2.7925
15727SOL     OW54230   6.766   9.792  10.927  0.0077  0.2890  0.6015
15727SOL    HW154231   6.738   9.732  10.996  0.1304 -1.7167 -0.9818
15727SOL    HW254232   6.858   9.771  10.913  0.0013  0.7183 -0.1242
15728SOL     OW54233   5.574   4.326   4.107 -0.2188  0.0666 -0.1554
15728SOL    HW154234   5.490   4.332   4.152 -0.9489 -0.3322 -1.4005
15728SOL    HW254235   5.602   4.235   4.120 -0.3887 -0.0257 -0.4272
15729SOL     OW54236  11.112   9.518  11.272 -0.2577  0.2555 -0.5635
15729SOL    HW154237  11.174   9.569  11.324  1.0858 -0.7808 -1.0903
15729SOL    HW254238  11.026   9.542  11.307  0.3752  2.1693 -0.1933
15730SOL     OW54239   9.855   4.498   1.272 -0.4769 -0.1703 -0.1880
15730SOL    HW154240   9.883   4.415   1.312  0.9036  1.1877  1.8374
15730SOL    HW254241   9.923   4.518   1.208 -0.4470 -0.2500 -0.1820
15731SOL     OW54242   9.261  10.866   1.621  0.0042  0.7217 -0.7876
15731SOL    HW154243   9.214  10.851   1.539  0.7874  0.3065 -1.1705
15731SOL    HW254244   9.334  10.804   1.619  0.2294  0.9376  0.0731
15732SOL     OW54245   8.758   6.776  11.935  0.4835  0.4723 -0.2344
15732SOL    HW154246   8.765   6.809  12.025 -1.1300  1.1929 -0.3301
15732SOL    HW254247   8.705   6.841  11.890 -1.4904 -1.4207 -0.8403
15733SOL     OW54248   5.330   1.365   4.290 -0.3996  0.0550 -0.2595
15733SOL    HW154249   5.301   1.276   4.267  0.6597 -0.5477  0.5868
15733SOL    HW254250   5.417   1.372   4.250 -0.1840  0.4380  0.2687
15734SOL     OW54251   0.254   9.541   5.934 -0.0479  0.3333  0.0125
15734SOL    HW154252   0.280   9.593   5.858 -2.6833  2.2040  0.2557
15734SOL    HW254253   0.290   9.589   6.009 -2.3365  1.8634  0.2255
15735SOL     OW54254   4.716   3.125   3.409 -0.4149  1.2437 -0.0717
15735SOL    HW154255   4.633   3.165   3.383 -1.6037 -0.4498  0.9159
15735SOL    HW254256   4.694   3.033   3.425  1.7821  0.6276 -0.3110
15736SOL     OW54257  11.756   0.230   7.157 -0.2039  0.2576 -0.0415
15736SOL    HW154258  11.693   0.165   7.188  0.3673 -0.6087 -0.6589
15736SOL    HW254259  11.841   0.194   7.182  0.1564  0.4029 -1.0434
15737SOL     OW54260   0.416   9.748   3.434 -0.1216  0.0143  0.1885
15737SOL    HW154261   0.428   9.839   3.462 -1.8707 -0.1784  1.7629
15737SOL    HW254262   0.478   9.698   3.486 -0.5188  0.1126  0.7641
15738SOL     OW54263   4.406   9.746   6.868  0.1257 -0.0701 -0.1579
15738SOL    HW154264   4.439   9.835   6.857 -0.5204  0.4345  1.5898
15738SOL    HW254265   4.315   9.750   6.836 -0.8972  0.7322  2.5707
15739SOL     OW54266   6.911   9.667   2.303 -0.1194  0.3472 -0.3498
15739SOL    HW154267   6.948   9.589   2.346 -0.9769  0.6994  1.0726
15739SOL    HW254268   6.968   9.681   2.227  1.4094 -0.3519  0.6194
15740SOL     OW54269   3.936   6.696   2.632  0.0226 -0.1259  0.2346
15740SOL    HW154270   3.896   6.616   2.667  0.6243 -1.3498 -1.6716
15740SOL    HW254271   3.887   6.715   2.552  0.1781  1.1681  0.4188
15741SOL     OW54272   3.819  12.301   5.700 -0.0151 -0.5725  0.2551
15741SOL    HW154273   3.854  12.213   5.687 -1.0212 -1.0427  0.6128
15741SOL    HW254274   3.894  12.359   5.686  0.9677 -1.5427  1.2709
15742SOL     OW54275   1.724   1.335   5.949 -0.1365  0.1406 -0.2450
15742SOL    HW154276   1.640   1.296   5.972  0.0876  0.1515  0.6094
15742SOL    HW254277   1.785   1.305   6.016 -0.2449  3.0337  1.3091
15743SOL     OW54278   9.235   1.298   7.923 -0.8658 -0.2095  0.1253
15743SOL    HW154279   9.212   1.337   7.839  0.6599  1.5654  0.4552
15743SOL    HW254280   9.154   1.302   7.974 -2.3542 -3.0152 -1.7495
15744SOL     OW54281   6.949   9.173   9.065  0.6791  0.0582 -0.1298
15744SOL    HW154282   6.941   9.112   9.138  0.8927  1.4829  1.1287
15744SOL    HW254283   6.918   9.257   9.100 -1.1503  0.3707 -2.2721
15745SOL     OW54284  12.460   8.170  10.197  0.3009 -0.0039  0.3742
15745SOL    HW154285  12.416   8.250  10.223 -0.8642 -0.2398 -0.8017
15745SOL    HW254286  12.436   8.106  10.264 -0.8636 -0.0295 -0.0476
15746SOL     OW54287   1.816   5.251   0.094  0.0275  0.0454 -0.2309
15746SOL    HW154288   1.831   5.158   0.108 -0.5236  0.3325  2.9213
15746SOL    HW254289   1.874   5.275   0.022  1.3447 -2.3938 -0.0534
15747SOL     OW54290   3.137   7.364   4.194  0.4952  0.5020  0.5697
15747SOL    HW154291   3.193   7.435   4.225 -1.0596  1.2595  1.7921
15747SOL    HW254292   3.198   7.302   4.153  1.8423  2.8709 -1.3057
15748SOL     OW54293   9.378   2.677   6.398 -0.2473  0.0979 -0.3962
15748SOL    HW154294   9.314   2.609   6.415  0.3600 -0.6573 -1.0424
15748SOL    HW254295   9.419   2.652   6.315  1.3411  0.1794  0.3115
15749SOL     OW54296  11.011   2.422   1.382 -0.0816  0.1135  0.3161
15749SOL    HW154297  11.082   2.370   1.343 -0.4774  0.1389 -0.4542
15749SOL    HW254298  11.036   2.513   1.365 -0.7028  0.1090 -0.7203
15750SOL     OW54299   9.543   0.424   7.430 -0.0204 -0.0518  0.2442
15750SOL    HW154300   9.586   0.407   7.346 -0.5661  0.4197 -0.1393
15750SOL    HW254301   9.532   0.519   7.432 -1.5110 -0.2109  0.0941
15751SOL     OW54302   8.577   1.881  11.222  0.1037  0.7300  0.2804
15751SOL    HW154303   8.627   1.799  11.219 -1.0661  0.0231 -1.2991
15751SOL    HW254304   8.487   1.853  11.235 -0.5768  1.6050 -2.1478
15752SOL     OW54305  12.009  11.894  11.066  0.5262 -0.4314 -0.1690
15752SOL    HW154306  12.048  11.880  10.980 -2.7731 -1.4764 -1.6473
15752SOL    HW254307  11.955  11.972  11.056 -0.9391 -1.3177  0.5124
15753SOL     OW54308  11.337   6.733  12.160  0.0035  0.6423  0.7038
15753SOL    HW154309  11.303   6.821  12.147 -0.5639  0.8200  3.0463
15753SOL    HW254310  11.374   6.709  12.075 -1.4550  2.4032 -0.4902
15754SOL     OW54311   7.886  10.675   0.591 -0.4295 -0.5832 -0.6520
15754SOL    HW154312   7.923  10.762   0.582  0.5398 -1.0544 -1.4426
15754SOL    HW254313   7.828  10.681   0.667  0.7638  0.3566  0.2211
15755SOL     OW54314   6.640   5.253   5.029 -0.1040  0.6450  0.3228
15755SOL    HW154315   6.597   5.214   4.953 -1.4067  0.7850  0.9639
15755SOL    HW254316   6.647   5.346   5.008 -0.0153  0.6060  0.1759
15756SOL     OW54317   2.959   8.872   2.634 -0.0234 -0.3994 -0.3423
15756SOL    HW154318   2.901   8.924   2.690 -0.2110  0.0693 -0.9675
15756SOL    HW254319   2.970   8.790   2.682  0.6296  0.3638  0.8899
15757SOL     OW54320   6.872   0.072   3.138  0.1426  0.1558 -0.3491
15757SOL    HW154321   6.872   0.164   3.113 -0.8446  0.1727 -0.3466
15757SOL    HW254322   6.784   0.041   3.115  0.0832 -0.4962  0.6830
15758SOL     OW54323   2.339   4.034   3.855 -0.2435 -0.0664  0.0481
15758SOL    HW154324   2.428   4.011   3.882  0.2906  1.7125 -0.0300
15758SOL    HW254325   2.284   4.000   3.925  0.6035 -0.3249  0.6138
15759SOL     OW54326   6.792   3.638   7.647 -0.5658 -0.8583 -0.4028
15759SOL    HW154327   6.766   3.581   7.575 -0.6988 -1.6555  0.2600
15759SOL    HW254328   6.745   3.603   7.723 -1.0991  0.4857 -0.0912
15760SOL     OW54329   7.291   2.057   2.873 -0.5322 -0.0901 -0.2274
15760SOL    HW154330   7.326   2.099   2.952  0.9676  0.1861 -1.0043
15760SOL    HW254331   7.325   1.967   2.877 -0.6199 -0.1326 -0.4533
15761SOL     OW54332   7.496  11.525  11.760  0.3373  0.1122  0.0102
15761SOL    HW154333   7.438  11.601  11.768 -2.4533 -1.9943  1.8544
15761SOL    HW254334   7.531  11.513  11.848  0.9371 -0.6295 -0.3203
15762SOL     OW54335   8.284   9.317  11.231 -0.7146  0.8100  0.4072
15762SOL    HW154336   8.284   9.412  11.243  0.4230  0.8061  0.5571
15762SOL    HW254337   8.326   9.283  11.310 -0.4516  0.2295  0.0206
15763SOL     OW54338   6.507  11.590   0.465 -0.3846  0.1309  0.2750
15763SOL    HW154339   6.540  11.562   0.550 -1.6326 -0.9566  0.4432
15763SOL    HW254340   6.431  11.534   0.450  0.2698 -0.2339 -1.9247
15764SOL     OW54341   3.794   3.150   4.943 -0.9956  0.2723 -0.0055
15764SOL    HW154342   3.786   3.099   5.024 -1.3009 -0.2564 -0.3636
15764SOL    HW254343   3.814   3.239   4.972  1.1186 -0.3461  0.5976
15765SOL     OW54344   8.911   0.815   0.882  0.4517 -0.0084 -0.0640
15765SOL    HW154345   8.942   0.863   0.805 -0.4982 -0.7548 -0.9341
15765SOL    HW254346   8.834   0.863   0.911 -0.5916 -1.0525 -1.0279
15766SOL     OW54347   2.713   5.640   2.541  0.5643 -0.1485  0.2954
15766SOL    HW154348   2.648   5.647   2.471 -0.7389  0.5481  1.5180
15766SOL    HW254349   2.697   5.716   2.597  2.9057  0.4198  0.2846
15767SOL     OW54350   3.210   5.571   8.391  0.3955  0.0903 -0.6410
15767SOL    HW154351   3.231   5.573   8.485 -0.8453  0.4118 -0.3536
15767SOL    HW254352   3.226   5.480   8.365  0.2519 -0.1288  0.0144
15768SOL     OW54353   8.644   9.607   1.594  0.1835  0.1278  0.0466
15768SOL    HW154354   8.577   9.669   1.624  0.6467 -0.1393  1.7273
15768SOL    HW254355   8.597   9.524   1.583 -0.1618  0.4360 -0.8369
15769SOL     OW54356   1.753   1.433  10.440 -0.2597 -0.0084 -0.3803
15769SOL    HW154357   1.778   1.468  10.526  1.0520 -0.0959 -0.6980
15769SOL    HW254358   1.667   1.392  10.455 -0.8643  1.4942  0.4698
15770SOL     OW54359   5.600   2.980   3.065 -0.8580 -0.0319  0.4101
15770SOL    HW154360   5.682   2.993   3.111 -0.5481 -1.0136  0.1607
15770SOL    HW254361   5.626   2.948   2.978 -1.5075 -1.2104  0.6269
15771SOL     OW54362   5.870   9.638   5.327 -0.1764  0.2780  0.2265
15771SOL    HW154363   5.782   9.600   5.329 -0.6459  1.2314 -0.9994
15771SOL    HW254364   5.885   9.669   5.416 -1.0164 -0.0263  0.4774
15772SOL     OW54365   8.478   8.861   9.022  0.2522 -0.2907  0.1437
15772SOL    HW154366   8.388   8.892   9.034  0.6723  1.0128  0.0709
15772SOL    HW254367   8.502   8.826   9.108 -0.5139 -1.2092  0.0023
15773SOL     OW54368   3.059   7.170   6.655 -0.0527 -0.3339  0.0165
15773SOL    HW154369   2.973   7.209   6.638 -0.7630 -1.5308  0.7566
15773SOL    HW254370   3.079   7.194   6.746 -0.0341 -0.8680  0.1519
15774SOL     OW54371  11.562   0.298   0.417  0.2440  0.2151 -0.0411
15774SOL    HW154372  11.597   0.327   0.333  1.2381 -0.5649  0.0826
15774SOL    HW254373  11.522   0.376   0.455  0.5941  0.7948 -0.8340
15775SOL     OW54374   5.276   0.076   7.060 -0.4109 -0.3584  0.6195
15775SOL    HW154375   5.278   0.164   7.022  1.9429 -0.5416  0.1144
15775SOL    HW254376   5.356   0.035   7.027 -0.1600 -1.8263  2.8661
15776SOL     OW54377  11.977   6.298  11.133 -0.3487 -0.2553 -0.6598
15776SOL    HW154378  12.046   6.342  11.183 -0.7053 -0.1450 -0.2541
15776SOL    HW254379  11.951   6.362  11.067  0.7077 -0.7105 -1.5496
15777SOL     OW54380   5.301   9.957  11.989 -0.3778  0.1766  0.2423
15777SOL    HW154381   5.347   9.963  11.905 -2.0344  0.7612 -0.6712
15777SOL    HW254382   5.269  10.045  12.005 -1.3697 -0.2621  0.7279
15778SOL     OW54383  11.367   9.746   5.749 -0.1853  0.6259 -0.9011
15778SOL    HW154384  11.446   9.717   5.794 -0.4511 -0.0349 -0.8597
15778SOL    HW254385  11.400   9.802   5.678  0.6031 -2.1835 -2.9609
15779SOL     OW54386  12.493  11.703   2.075 -0.6445 -0.6479 -0.3439
15779SOL    HW154387  12.556  11.644   2.116 -2.1935 -2.5311 -0.5278
15779SOL    HW254388  12.454  11.751   2.147  1.6395  1.3503 -0.2932
15780SOL     OW54389   6.814   1.859   4.322  0.0762 -0.5409  0.5424
15780SOL    HW154390   6.831   1.798   4.250  2.9280 -1.8343  2.1677
15780SOL    HW254391   6.854   1.941   4.292  1.1865 -1.0511  0.5493
15781SOL     OW54392   8.157  12.330   6.458  0.4729 -0.1126 -0.3130
15781SOL    HW154393   8.188  12.319   6.548  0.9544  2.2795 -0.1218
15781SOL    HW254394   8.235  12.320   6.404  0.6090  0.6734 -0.2678
15782SOL     OW54395   2.884   4.606   5.338  0.1123  0.3124 -0.3522
15782SOL    HW154396   2.926   4.692   5.327 -0.6060  0.5457 -1.3921
15782SOL    HW254397   2.927   4.569   5.415  2.4026  0.4281 -1.4823
15783SOL     OW54398   5.331   4.461   1.022  0.0701  0.5694  0.1092
15783SOL    HW154399   5.250   4.435   1.067  0.8137  2.1832  2.5853
15783SOL    HW254400   5.310   4.544   0.980  0.3199  0.7892  0.4153
15784SOL     OW54401   8.508  12.300  11.107  0.2759 -0.2840  0.2727
15784SOL    HW154402   8.446  12.331  11.041 -0.2241  1.0727  1.3248
15784SOL    HW254403   8.491  12.356  11.183  2.0153 -0.6500  0.9667
15785SOL     OW54404  11.206   5.465   3.206 -0.4620 -0.3487 -0.7384
15785SOL    HW154405  11.231   5.504   3.290  0.2024  0.0471 -1.1139
15785SOL    HW254406  11.111   5.477   3.201 -0.7845 -1.8639  0.7105
15786SOL     OW54407   6.077  11.835   4.617  0.5374 -0.4917  0.7395
15786SOL    HW154408   6.064  11.782   4.538 -1.8982  0.4978  0.3774
15786SOL    HW254409   6.022  11.793   4.683  0.2415  0.3561  1.0420
15787SOL     OW54410  10.888   9.324   2.324 -0.0379  0.3915 -0.4997
15787SOL    HW154411  10.799   9.305   2.293 -0.2990 -0.2214  0.5756
15787SOL    HW254412  10.944   9.300   2.250 -0.5100 -2.8379  0.0193
15788SOL     OW54413   2.501   8.981   8.088 -0.1341  0.1660  0.9972
15788SOL    HW154414   2.426   8.995   8.030  0.5633 -0.9362 -0.1977
15788SOL    HW254415   2.568   9.042   8.055  0.5508 -1.0507  0.0837
15789SOL     OW54416   4.012   8.481   1.770  0.4402 -0.4527 -0.2481
15789SOL    HW154417   4.015   8.528   1.853  3.7085 -0.2415 -0.3694
15789SOL    HW254418   4.072   8.408   1.782  0.4086 -0.8383 -2.1674
15790SOL     OW54419   9.630   7.335   0.014 -0.3784  0.0850 -0.0764
15790SOL    HW154420   9.723   7.349   0.032 -0.2094  0.1872 -1.0181
15790SOL    HW254421   9.607   7.401  -0.050 -1.0649 -0.0483  0.0271
15791SOL     OW54422  11.889   2.771   0.568  0.2740 -0.3538 -0.1533
15791SOL    HW154423  11.851   2.689   0.601  4.0114 -2.5787 -0.8144
15791SOL    HW254424  11.941   2.805   0.640  0.5562  0.2235 -0.6170
15792SOL     OW54425   6.417   4.374   6.186 -0.6214 -0.1795 -0.2054
15792SOL    HW154426   6.401   4.303   6.124 -0.6272  0.2161 -0.6619
15792SOL    HW254427   6.507   4.403   6.168 -1.4146  1.5451 -1.7130
15793SOL     OW54428   3.752   1.115   7.256  0.0896 -0.5714 -0.2200
15793SOL    HW154429   3.661   1.130   7.229 -0.4244 -0.8301  1.2894
15793SOL    HW254430   3.776   1.032   7.214  0.5159  0.6641 -2.6451
15794SOL     OW54431   0.808   4.862   7.013  0.1659 -0.3653  0.2702
15794SOL    HW154432   0.809   4.956   6.996  1.6339 -0.4792 -0.4505
15794SOL    HW254433   0.834   4.823   6.930 -0.5684 -1.4388  0.5199
15795SOL     OW54434   2.970   2.765   1.357 -0.0825  0.6469 -0.1482
15795SOL    HW154435   2.966   2.807   1.272 -1.2730 -1.2644 -1.1178
15795SOL    HW254436   2.995   2.674   1.338 -0.5793  0.1193  1.5067
15796SOL     OW54437   0.902   4.554   3.229  0.1768 -0.3427 -0.1731
15796SOL    HW154438   0.912   4.622   3.296  1.1628  0.0216 -0.6736
15796SOL    HW254439   0.866   4.478   3.277 -0.4352  0.3485  0.4873
15797SOL     OW54440   2.915   7.410   1.071 -0.6967 -0.4724 -0.2971
15797SOL    HW154441   2.930   7.472   0.999  0.9248 -1.0147 -0.4691
15797SOL    HW254442   2.979   7.340   1.056  0.2217 -0.2201  2.0848
15798SOL     OW54443   4.988   1.673  11.675 -0.2433  0.3160 -0.8104
15798SOL    HW154444   4.944   1.601  11.630 -1.5428 -1.3449  2.7438
15798SOL    HW254445   5.081   1.657  11.662 -0.5536 -0.2205 -2.5727
15799SOL     OW54446  11.692  11.108   4.582 -0.2454  0.3573 -0.2380
15799SOL    HW154447  11.611  11.059   4.573  0.8405 -1.7087  0.5727
15799SOL    HW254448  11.667  11.187   4.630 -1.8264 -0.0842 -0.2964
15800SOL     OW54449  12.184   9.042   9.120 -0.3353 -0.2182  0.6156
15800SOL    HW154450  12.123   9.080   9.057 -0.9290 -1.8047  0.1833
15800SOL    HW254451  12.144   9.061   9.206 -0.0334  1.0802  0.4875
15801SOL     OW54452   1.040   7.890  11.984 -0.6017 -0.8848  0.7768
15801SOL    HW154453   0.956   7.935  11.991 -1.8052 -2.9332  0.2469
15801SOL    HW254454   1.106   7.960  11.990 -2.3558  1.1266 -1.6182
15802SOL     OW54455   3.746   0.855   2.882  0.1571  0.4788 -0.5837
15802SOL    HW154456   3.800   0.933   2.890  2.3356 -0.8310 -1.5611
15802SOL    HW254457   3.738   0.821   2.971 -0.8701  1.7976 -0.1455
15803SOL     OW54458   2.589   0.851  11.667 -0.3923  0.0958  0.3495
15803SOL    HW154459   2.662   0.808  11.712 -1.7121 -2.3547  0.2937
15803SOL    HW254460   2.551   0.783  11.612 -0.8268  2.1491 -2.0701
15804SOL     OW54461   2.047  12.360   7.420 -0.5065 -0.6042  0.1516
15804SOL    HW154462   2.018  12.270   7.439  1.2967 -1.5348 -1.1954
15804SOL    HW254463   2.045  12.366   7.325 -0.0555  0.6105  0.2060
15805SOL     OW54464   7.762   0.267  10.506 -0.2589  0.6145  0.3944
15805SOL    HW154465   7.851   0.252  10.540  0.6389 -0.6285 -2.2237
15805SOL    HW254466   7.751   0.362  10.511  1.5537  0.8932  0.0910
15806SOL     OW54467   0.507   8.167   1.026 -0.2423  0.2863 -0.3015
15806SOL    HW154468   0.559   8.098   1.067  0.8328  1.2154 -0.0329
15806SOL    HW254469   0.559   8.247   1.039 -1.7747  1.2689  0.0093
15807SOL     OW54470   1.782   3.772   1.586  0.1889 -0.9403 -0.3438
15807SOL    HW154471   1.819   3.712   1.651 -0.4489 -0.1114  0.8208
15807SOL    HW254472   1.796   3.859   1.623 -1.1428 -0.5060 -0.8105
15808SOL     OW54473   4.363   9.305   7.332 -0.2312  0.1752 -0.0360
15808SOL    HW154474   4.309   9.299   7.411 -0.1572 -2.1020 -0.0803
15808SOL    HW254475   4.434   9.364   7.357  0.7308 -1.7610  2.2553
15809SOL     OW54476   6.563   0.810   3.683 -0.3069 -0.2446  0.2082
15809SOL    HW154477   6.546   0.903   3.699  0.0568 -0.1057 -0.2007
15809SOL    HW254478   6.556   0.770   3.770 -2.3457 -0.1524  0.1297
15810SOL     OW54479  10.202   7.474   0.287  0.3797 -0.5308  0.2186
15810SOL    HW154480  10.124   7.514   0.249  0.9106  0.3439  0.0007
15810SOL    HW254481  10.215   7.393   0.238 -1.5976 -1.8191  1.6819
15811SOL     OW54482   0.391   8.632   8.277 -0.2034 -0.2661  0.1815
15811SOL    HW154483   0.454   8.700   8.298  0.1018 -0.6975  0.7076
15811SOL    HW254484   0.382   8.582   8.359 -1.2431 -0.1987  0.1255
15812SOL     OW54485   6.388   0.753  12.136  0.1324 -0.4388 -0.1028
15812SOL    HW154486   6.305   0.711  12.158 -0.3349  0.8135  0.6474
15812SOL    HW254487   6.372   0.798  12.054 -0.1643  0.3877  0.3966
15813SOL     OW54488   8.059   8.738   4.738 -0.1288 -0.0933  0.5354
15813SOL    HW154489   8.110   8.709   4.813 -1.0797 -2.6520  0.2739
15813SOL    HW254490   7.972   8.700   4.750 -0.3745 -0.4193 -1.7327
15814SOL     OW54491   9.969   7.629   9.749 -0.3057  0.2493  0.1019
15814SOL    HW154492  10.045   7.682   9.724 -0.4478  0.2121 -0.4073
15814SOL    HW254493   9.987   7.604   9.840  0.2216  0.3639  0.0331
15815SOL     OW54494   1.057  12.329   3.177 -0.1463  0.0492 -0.1947
15815SOL    HW154495   1.101  12.410   3.149 -0.8732  0.9428  1.1398
15815SOL    HW254496   1.091  12.312   3.264  0.5934 -1.5683 -0.7638
15816SOL     OW54497   4.232   2.245   5.456 -0.5000 -0.4874 -0.2332
15816SOL    HW154498   4.237   2.302   5.533  1.1555  0.7548 -1.1862
15816SOL    HW254499   4.196   2.163   5.490 -2.0222  0.7676  1.3832
15817SOL     OW54500   7.146   1.669   7.891  0.0500 -0.4353  0.1698
15817SOL    HW154501   7.130   1.575   7.888 -0.2543 -0.3664 -0.5987
15817SOL    HW254502   7.063   1.708   7.865 -0.0907  0.0790  1.3445
15818SOL     OW54503   4.416  12.536   9.916  0.7944  0.0851 -0.2240
15818SOL    HW154504   4.344  12.478   9.892  1.0836 -1.6588  2.7334
15818SOL    HW254505   4.408  12.609   9.855 -3.0237 -0.3458 -0.4763
15819SOL     OW54506   9.534   3.776   6.486 -0.7425  0.3929 -0.4599
15819SOL    HW154507   9.489   3.812   6.410  0.3951  1.4338 -0.6680
15819SOL    HW254508   9.624   3.806   6.477 -0.7642  1.3018  1.7520
15820SOL     OW54509   7.478   9.232   8.188 -0.1271 -0.2805  0.2546
15820SOL    HW154510   7.493   9.311   8.135  1.6721 -1.6341 -1.4203
15820SOL    HW254511   7.540   9.241   8.261  0.6514 -0.4558 -0.3617
15821SOL     OW54512   3.649  12.246  12.214 -0.4438  0.0360  0.1681
15821SOL    HW154513   3.615  12.274  12.129  1.8196  0.3526 -0.7002
15821SOL    HW254514   3.672  12.154  12.201 -1.7778 -0.4477  1.0349
15822SOL     OW54515   7.928   5.040   1.361  0.3181 -0.5358  0.3415
15822SOL    HW154516   7.948   5.040   1.268 -2.7827 -0.4573 -0.4476
15822SOL    HW254517   7.983   5.109   1.397  0.7362  0.2350 -1.6337
15823SOL     OW54518   6.387  11.996  12.157  0.2705  0.6318 -0.0542
15823SOL    HW154519   6.471  11.951  12.151 -0.4584 -0.8980  0.7693
15823SOL    HW254520   6.356  12.001  12.066  0.9761  0.6851 -0.2982
15824SOL     OW54521   4.270   3.008   1.898  0.8899  0.5630 -0.3532
15824SOL    HW154522   4.258   2.938   1.834 -0.6993  0.7764 -0.3480
15824SOL    HW254523   4.209   2.986   1.969  1.8161  0.9103  0.5742
15825SOL     OW54524  12.445  11.609   4.544  0.3597  0.7807 -0.2786
15825SOL    HW154525  12.408  11.585   4.629 -1.9120  1.3541 -1.0303
15825SOL    HW254526  12.521  11.551   4.533  0.4087  0.3499  1.8850
15826SOL     OW54527  11.970   8.214   6.822 -0.1681  0.1922 -0.5414
15826SOL    HW154528  11.985   8.257   6.907  1.6501 -1.3839  0.0201
15826SOL    HW254529  12.027   8.260   6.761 -1.5439  1.3844 -0.9676
15827SOL     OW54530   7.807   9.462  11.267  0.3252  0.3581 -0.4355
15827SOL    HW154531   7.844   9.532  11.322  0.7888  0.1298 -0.4514
15827SOL    HW254532   7.851   9.473  11.182  0.5472 -0.0751 -0.3795
15828SOL     OW54533  11.548   1.050  10.787 -0.1688  0.2347  0.5361
15828SOL    HW154534  11.506   0.985  10.844  0.0609 -0.5557 -0.1712
15828SOL    HW254535  11.637   1.017  10.776 -0.0919  0.5963  0.0496
15829SOL     OW54536   4.567  12.463   8.585  0.4304 -0.0431 -0.8754
15829SOL    HW154537   4.628  12.417   8.528 -2.1011 -2.5184 -1.8287
15829SOL    HW254538   4.560  12.406   8.662 -1.6655 -0.5489 -1.4051
15830SOL     OW54539   7.456   6.222   8.178 -0.1239 -0.0531 -0.1401
15830SOL    HW154540   7.454   6.220   8.274  0.8455 -0.1411 -0.1051
15830SOL    HW254541   7.459   6.315   8.156  0.0045 -0.0396 -0.0692
15831SOL     OW54542   6.829   2.276   6.328  0.3336 -0.2620 -0.7367
15831SOL    HW154543   6.771   2.208   6.363 -1.2987  0.4285 -1.9679
15831SOL    HW254544   6.836   2.341   6.398 -1.9121  0.5170 -1.1476
15832SOL     OW54545   3.650   0.872   7.022  0.3198  0.3248  0.7616
15832SOL    HW154546   3.602   0.954   7.028  0.7251  0.4419  2.9657
15832SOL    HW254547   3.736   0.897   6.987  0.8148  1.0451  2.4076
15833SOL     OW54548   4.126   2.308  10.975 -0.3927 -0.3362  0.4752
15833SOL    HW154549   4.045   2.356  10.958 -1.0858 -1.7234 -0.3836
15833SOL    HW254550   4.119   2.280  11.066 -0.3950  0.4055  0.7089
15834SOL     OW54551  11.072   7.198   6.053  0.4628 -0.4664 -0.6951
15834SOL    HW154552  11.021   7.221   5.975  0.1161 -2.4279 -1.0979
15834SOL    HW254553  11.140   7.138   6.020  0.8451 -0.6425  0.3829
15835SOL     OW54554  11.525   8.205   5.207 -0.0843 -0.2668 -0.1963
15835SOL    HW154555  11.561   8.284   5.168 -1.1019  0.4185  0.1940
15835SOL    HW254556  11.436   8.230   5.233 -0.7172 -1.7806 -0.8111
15836SOL     OW54557  11.423   1.363   9.802  0.0605 -0.2483  0.1386
15836SOL    HW154558  11.453   1.449   9.773 -2.8692  0.8142 -0.0293
15836SOL    HW254559  11.407   1.374   9.896  1.6374 -1.2889  0.5797
15837SOL     OW54560   6.732   6.974   7.598  0.1143  0.1303 -0.1884
15837SOL    HW154561   6.692   6.904   7.650  0.2413  0.7754  0.8195
15837SOL    HW254562   6.826   6.957   7.603  0.1817  0.6326  0.4844
15838SOL     OW54563   3.395   6.182   1.498  0.0969 -0.3559 -0.0811
15838SOL    HW154564   3.322   6.206   1.556 -0.6484 -1.1306 -0.6668
15838SOL    HW254565   3.419   6.264   1.454 -1.7144 -0.4139 -1.2939
15839SOL     OW54566  12.567   0.356   5.776  0.7354  0.2265  0.1665
15839SOL    HW154567  12.493   0.330   5.830  1.5172 -1.2625  0.5791
15839SOL    HW254568  12.644   0.340   5.831  1.3787  2.0256 -0.1332
15840SOL     OW54569   0.093  12.310   6.585 -0.3702  0.3651  0.3324
15840SOL    HW154570   0.052  12.252   6.522  0.6210  0.9004 -0.8459
15840SOL    HW254571   0.184  12.283   6.587 -0.4016  0.3077  1.6138
15841SOL     OW54572   1.300   2.471   8.520 -0.6971  0.1756  0.3178
15841SOL    HW154573   1.254   2.494   8.601 -0.5548  2.0733 -0.0970
15841SOL    HW254574   1.354   2.548   8.501  0.3843 -0.8277 -0.8085
15842SOL     OW54575   5.395  11.688  10.487  0.5303 -0.5408  0.5539
15842SOL    HW154576   5.438  11.664  10.568  0.1284 -3.0675  0.1020
15842SOL    HW254577   5.393  11.607  10.435 -0.3894  0.6604 -1.4282
15843SOL     OW54578   8.481   7.223   4.188 -0.1040 -0.2124  0.3939
15843SOL    HW154579   8.397   7.209   4.231 -0.4717  0.6376 -0.0356
15843SOL    HW254580   8.465   7.206   4.095 -0.5439  2.6852 -0.1458
15844SOL     OW54581   4.260  10.478   7.846 -0.4081 -0.2200 -0.2466
15844SOL    HW154582   4.246  10.400   7.900 -1.7689  0.0045 -0.2247
15844SOL    HW254583   4.297  10.445   7.764 -2.0277 -1.0592 -0.6875
15845SOL     OW54584   0.801  12.227   4.221 -0.0863 -0.3909  0.8094
15845SOL    HW154585   0.722  12.279   4.205 -0.2388 -0.6630  0.6715
15845SOL    HW254586   0.790  12.150   4.165  0.8074  0.1092 -0.0839
15846SOL     OW54587   4.224  11.641   9.917  0.4761  0.0973 -0.2970
15846SOL    HW154588   4.133  11.661   9.894  0.8067  0.6645 -1.1378
15846SOL    HW254589   4.233  11.672  10.007  0.0111  0.6141 -0.4252
15847SOL     OW54590   9.130   6.343   8.440  0.2523  0.2001  0.0638
15847SOL    HW154591   9.188   6.350   8.364 -0.1526  0.0124 -0.2674
15847SOL    HW254592   9.185   6.368   8.514  0.7369  0.0938 -0.2521
15848SOL     OW54593   8.644   9.710   7.232  0.3230  0.0238 -0.1007
15848SOL    HW154594   8.609   9.786   7.186  0.2127  0.7227  1.0947
15848SOL    HW254595   8.572   9.647   7.231  0.3996 -0.0661 -1.0644
15849SOL     OW54596   8.829   0.700   8.474  0.0326  0.2843 -0.2937
15849SOL    HW154597   8.839   0.790   8.504  0.0879  0.0589  0.3703
15849SOL    HW254598   8.750   0.702   8.420  0.9640  1.0715 -1.6829
15850SOL     OW54599  11.913  10.981  11.794 -0.2335 -0.3001  0.6039
15850SOL    HW154600  11.929  11.019  11.880  1.5296  0.7864 -0.1422
15850SOL    HW254601  11.917  11.056  11.734 -0.4712 -1.1705 -0.5320
15851SOL     OW54602   6.190   6.807  10.139 -0.4982 -0.1661 -0.2397
15851SOL    HW154603   6.255   6.783  10.073 -0.0422  0.5821 -0.0724
15851SOL    HW254604   6.107   6.774  10.104 -0.1527 -0.3942 -0.8538
15852SOL     OW54605   1.459   2.794   4.021  0.2910  0.0198  0.2607
15852SOL    HW154606   1.497   2.828   4.102  0.3464  0.7057 -0.0416
15852SOL    HW254607   1.519   2.725   3.994  0.9412  0.6035  0.1749
15853SOL     OW54608   1.076   2.486   2.952  0.2292 -0.2448  0.0764
15853SOL    HW154609   1.087   2.540   3.030 -0.0948 -0.1066  0.0257
15853SOL    HW254610   1.133   2.528   2.887  1.8948 -1.3794  0.7347
15854SOL     OW54611   5.175   0.632   2.041 -0.6689  0.0705 -0.2527
15854SOL    HW154612   5.192   0.557   2.098 -1.7541 -0.7935 -1.0090
15854SOL    HW254613   5.251   0.635   1.983  0.0154  0.4015  0.6490
15855SOL     OW54614   5.897   1.018   3.410 -0.4232 -0.4012 -0.2900
15855SOL    HW154615   5.908   1.069   3.490  1.4001 -2.1400  0.6239
15855SOL    HW254616   5.940   1.071   3.342 -0.5904  0.3409  0.1665
15856SOL     OW54617   7.125   4.874   7.104  0.5355  0.3152 -0.7367
15856SOL    HW154618   7.124   4.891   7.009 -1.0543 -0.7462 -0.9498
15856SOL    HW254619   7.122   4.778   7.111  2.0347  0.3148  0.4097
15857SOL     OW54620   5.371   6.335  12.222 -0.1584 -0.2071  0.0203
15857SOL    HW154621   5.314   6.410  12.207  0.9925  0.8082  0.5744
15857SOL    HW254622   5.383   6.296  12.136  1.9142  2.2629 -0.9301
15858SOL     OW54623   7.701  11.017   0.829 -0.1781  0.4437 -1.1122
15858SOL    HW154624   7.662  11.081   0.769 -0.8079  0.4330 -0.7340
15858SOL    HW254625   7.795  11.027   0.817 -0.2744 -0.6389 -3.2394
15859SOL     OW54626   8.281   6.730   3.217 -0.1106 -0.1509 -0.2259
15859SOL    HW154627   8.198   6.762   3.252 -0.5113 -1.5010  0.1135
15859SOL    HW254628   8.300   6.788   3.144  0.6897  2.7312  2.0702
15860SOL     OW54629   1.663   0.998   5.469 -0.2603  0.1879 -0.3626
15860SOL    HW154630   1.670   0.968   5.378 -1.0420  0.1052 -0.3999
15860SOL    HW254631   1.753   1.016   5.495  0.1789 -1.6708 -0.5129
15861SOL     OW54632   1.148   7.844   2.546 -0.3595  0.3434  0.2722
15861SOL    HW154633   1.101   7.911   2.596  0.0836  1.1141 -0.3164
15861SOL    HW254634   1.085   7.814   2.480 -2.2870 -3.3096  3.3555
15862SOL     OW54635  12.586   2.033   5.709 -0.1332  0.0033 -0.4106
15862SOL    HW154636  12.632   1.961   5.751 -1.1202 -0.1634  0.4126
15862SOL    HW254637  12.530   1.992   5.644 -1.0761 -0.0433  0.4053
15863SOL     OW54638   5.005   2.442   4.410  0.8449 -0.0310 -0.4690
15863SOL    HW154639   4.940   2.398   4.355  0.4139  0.9677 -0.7909
15863SOL    HW254640   4.958   2.516   4.448  1.4332 -0.0913  0.3972
15864SOL     OW54641   5.278  10.112   1.131 -0.1515 -0.0749  0.1114
15864SOL    HW154642   5.211  10.179   1.142 -1.5426 -1.1740 -1.1555
15864SOL    HW254643   5.358  10.152   1.163 -0.5871  2.7886 -1.9836
15865SOL     OW54644   0.974  10.294   3.743 -0.2544 -0.0616  0.3528
15865SOL    HW154645   1.018  10.371   3.778 -0.7617 -0.4358  1.8701
15865SOL    HW254646   0.896  10.328   3.700 -0.8574  0.2333  1.6422
15866SOL     OW54647  11.245  10.654  11.530  0.0392 -0.0139 -0.3461
15866SOL    HW154648  11.187  10.627  11.601  0.8887 -1.1070 -0.0415
15866SOL    HW254649  11.327  10.678  11.573  0.4745 -0.4281 -0.9204
15867SOL     OW54650   9.449   7.542  11.238 -0.4716  0.4610 -0.1001
15867SOL    HW154651   9.432   7.585  11.154 -2.7743  1.6943  0.8923
15867SOL    HW254652   9.522   7.592  11.276 -0.4833  0.9253 -0.6788
15868SOL     OW54653  11.977  10.740   1.368 -0.8323  0.0253 -0.2897
15868SOL    HW154654  12.025  10.822   1.356 -0.9310  0.1721  0.2815
15868SOL    HW254655  11.918  10.735   1.294 -0.3390  0.1291 -0.6964
15869SOL     OW54656   6.451  10.390   4.413  0.2303 -0.1940  0.2034
15869SOL    HW154657   6.411  10.320   4.362 -1.2818  0.1914  0.8197
15869SOL    HW254658   6.394  10.400   4.489  0.6630  1.4134  0.3462
15870SOL     OW54659   6.144   7.893   3.068  0.7555 -0.2497 -0.3995
15870SOL    HW154660   6.069   7.944   3.035  0.6196 -0.5184 -0.5086
15870SOL    HW254661   6.198   7.958   3.114  0.1762 -0.1531  0.1555
15871SOL     OW54662   8.128   7.318   6.526 -0.1230  0.4881  0.0098
15871SOL    HW154663   8.048   7.369   6.517  0.2498  0.8984 -1.1253
15871SOL    HW254664   8.198   7.383   6.531  0.4557  0.1562 -2.4559
15872SOL     OW54665  10.468   7.576   4.845  0.2888 -0.1251 -0.2653
15872SOL    HW154666  10.505   7.661   4.823  1.1511 -0.7852 -1.4786
15872SOL    HW254667  10.453   7.533   4.760 -1.6428 -0.5729  0.2401
15873SOL     OW54668   9.621  12.594   0.821 -0.1518 -0.4370  0.3695
15873SOL    HW154669   9.608  12.673   0.767 -2.1806 -1.6091 -1.0278
15873SOL    HW254670   9.715  12.579   0.820  0.2689  1.9055  0.5947
15874SOL     OW54671   6.114   7.638   0.901  0.0314  0.1518  0.1839
15874SOL    HW154672   6.076   7.555   0.870  0.2703  0.1762 -0.1784
15874SOL    HW254673   6.198   7.644   0.856  0.6722 -0.1143  1.3210
15875SOL     OW54674  11.677   3.695  11.638 -0.2102 -0.0135 -0.2288
15875SOL    HW154675  11.698   3.755  11.709 -0.0744  0.9705 -1.0717
15875SOL    HW254676  11.609   3.638  11.673 -1.8776  1.9941 -0.0355
15876SOL     OW54677   0.258   9.406   2.647  0.2606  0.6614  0.0991
15876SOL    HW154678   0.321   9.426   2.578 -0.1404 -3.5530 -1.8007
15876SOL    HW254679   0.174   9.397   2.601 -1.1679  2.7673  2.0546
15877SOL     OW54680   1.278   7.258  11.393 -0.7865  0.1062  0.0847
15877SOL    HW154681   1.231   7.252  11.311 -3.3703 -0.7670  1.5168
15877SOL    HW254682   1.306   7.350  11.399 -0.0642  0.0620 -1.9297
15878SOL     OW54683  11.130   2.082   6.509 -0.3682  0.8498  0.1663
15878SOL    HW154684  11.163   2.172   6.511  1.4945  0.2295  2.7007
15878SOL    HW254685  11.073   2.076   6.586  0.9697 -0.5439  1.1213
15879SOL     OW54686   4.218   2.350   3.093  0.3088  1.1538  0.2649
15879SOL    HW154687   4.267   2.417   3.141  0.7150  1.0274  0.0358
15879SOL    HW254688   4.221   2.272   3.148  0.4761  1.1098  0.1941
15880SOL     OW54689   0.719   2.475   8.145 -0.6782  0.2419  0.4930
15880SOL    HW154690   0.642   2.522   8.178 -0.9990 -0.4768  0.7671
15880SOL    HW254691   0.748   2.421   8.218 -0.4851 -0.2154  0.0818
15881SOL     OW54692   1.601   2.277   4.784  0.5454 -0.2009  0.2939
15881SOL    HW154693   1.594   2.279   4.879  2.2701  1.0770  0.4430
15881SOL    HW254694   1.688   2.312   4.765  0.1212 -0.1037 -1.7669
15882SOL     OW54695   2.116   1.473   5.765  0.1839  0.1894  0.0842
15882SOL    HW154696   2.049   1.429   5.713  0.3356 -0.4721  0.4302
15882SOL    HW254697   2.189   1.410   5.767 -0.0515 -0.0761  1.6062
15883SOL     OW54698   8.888   0.264   3.370  0.1067  0.1536 -0.2809
15883SOL    HW154699   8.804   0.220   3.358  0.0439  0.1899  0.0167
15883SOL    HW254700   8.884   0.300   3.459  0.2238  0.6203 -0.4629
15884SOL     OW54701  12.318   2.478  10.582 -0.0351 -0.0833 -0.1829
15884SOL    HW154702  12.393   2.418  10.583  0.1532  0.1570  0.6216
15884SOL    HW254703  12.253   2.436  10.638 -0.8393 -0.6948 -1.5296
15885SOL     OW54704   6.709   4.248   6.139 -0.3803 -0.4393 -0.3164
15885SOL    HW154705   6.695   4.241   6.044  1.8555  0.8312 -0.8113
15885SOL    HW254706   6.779   4.312   6.148 -0.6723 -0.3833  2.2431
15886SOL     OW54707  10.158   5.232  11.643 -0.3431 -0.2723  0.0817
15886SOL    HW154708  10.235   5.243  11.698 -0.4111 -0.5549  0.2389
15886SOL    HW254709  10.138   5.138  11.648 -1.3783 -0.0259  0.9755
15887SOL     OW54710   8.834   0.739   1.157  0.0118 -0.3025 -0.0661
15887SOL    HW154711   8.796   0.811   1.207  0.6936 -0.0177  0.0386
15887SOL    HW254712   8.865   0.780   1.076 -0.5955 -0.6685 -0.4935
15888SOL     OW54713   4.609   8.350   6.096  0.1678  0.2355 -0.2791
15888SOL    HW154714   4.689   8.302   6.115  0.3531  0.2310 -1.0272
15888SOL    HW254715   4.626   8.393   6.012 -0.6172  0.2184 -0.4597
15889SOL     OW54716  11.977   6.880  12.110 -0.0349 -0.1391 -0.4632
15889SOL    HW154717  12.014   6.879  12.198 -0.8227  2.1447 -0.0364
15889SOL    HW254718  11.888   6.848  12.121  1.1383 -4.3193 -1.2769
15890SOL     OW54719  10.808   9.097   1.895 -0.0276 -0.4848 -0.0117
15890SOL    HW154720  10.801   9.167   1.830 -0.2036 -0.3820  0.1174
15890SOL    HW254721  10.789   9.017   1.847 -0.4346 -0.3803 -0.0261
15891SOL     OW54722   6.949   4.900   3.368  0.0897  0.6214  0.6016
15891SOL    HW154723   7.029   4.936   3.405  0.8669  0.4901 -0.8798
15891SOL    HW254724   6.918   4.838   3.434  0.6161  1.4359  1.6546
15892SOL     OW54725   8.894  12.377   3.111  0.0491  0.2400 -0.6048
15892SOL    HW154726   8.911  12.339   3.197 -1.3285 -0.2502 -0.5206
15892SOL    HW254727   8.876  12.470   3.130 -1.2017 -0.0649 -0.2303
15893SOL     OW54728  11.752   9.302   3.445  0.5029 -0.1501 -0.0507
15893SOL    HW154729  11.733   9.292   3.538  1.2809 -1.9289 -0.0602
15893SOL    HW254730  11.832   9.253   3.430 -0.5916 -1.4941 -2.0045
15894SOL     OW54731   2.775   2.414   2.783  0.4536  0.3621 -0.0829
15894SOL    HW154732   2.689   2.443   2.812 -1.1468 -1.2387 -2.7983
15894SOL    HW254733   2.795   2.338   2.838  0.0064  0.5463  0.3364
15895SOL     OW54734   5.127  10.665  11.814  0.8623 -0.4572 -0.1334
15895SOL    HW154735   5.063  10.651  11.744  0.5399  1.2075 -0.2070
15895SOL    HW254736   5.097  10.608  11.885 -1.1733  0.8266  0.1239
15896SOL     OW54737   3.111  11.511   8.431 -0.9320 -0.1113  0.5632
15896SOL    HW154738   3.093  11.465   8.349  0.2251 -1.4960  1.0521
15896SOL    HW254739   3.068  11.458   8.498  1.2103 -1.0836  1.2488
15897SOL     OW54740   2.276   2.531  12.282 -0.0135  0.2650 -0.1495
15897SOL    HW154741   2.261   2.619  12.316  1.8345  1.3899 -2.0206
15897SOL    HW254742   2.370   2.516  12.293 -0.4533 -2.0408  1.2645
15898SOL     OW54743   0.677  12.056  10.055  0.6956 -0.2942  0.0277
15898SOL    HW154744   0.602  12.111  10.079  0.4332 -0.7516  0.2828
15898SOL    HW254745   0.748  12.118  10.038  0.6860  0.0911  1.2844
15899SOL     OW54746   9.650  12.347   1.796 -0.4541  0.7519 -0.3789
15899SOL    HW154747   9.701  12.280   1.840  3.6395  1.8831 -2.8749
15899SOL    HW254748   9.638  12.416   1.862  2.6468  1.0331  0.0399
15900SOL     OW54749  12.286  10.808   1.473 -0.6958 -0.0096 -0.2728
15900SOL    HW154750  12.224  10.878   1.454 -0.7767  0.1433  0.5177
15900SOL    HW254751  12.238  10.728   1.455 -1.5204  0.0761  1.4021
15901SOL     OW54752   9.252   0.014   8.595 -0.1932 -0.5818  0.3414
15901SOL    HW154753   9.316  -0.053   8.575 -0.7780 -1.3399  0.9551
15901SOL    HW254754   9.294   0.068   8.663  0.9176  0.6818 -1.2668
15902SOL     OW54755   6.770   5.489   7.109 -0.3897  0.7279 -0.2202
15902SOL    HW154756   6.740   5.427   7.176 -1.1504  0.7525 -0.5293
15902SOL    HW254757   6.832   5.546   7.154 -0.0534  0.0496  0.1894
15903SOL     OW54758   2.214   3.506   6.241 -0.5289 -0.6220  1.2348
15903SOL    HW154759   2.243   3.425   6.281 -0.9057 -1.0048  0.7466
15903SOL    HW254760   2.160   3.479   6.167  2.4141 -0.0394 -1.3876
15904SOL     OW54761   1.346   7.772  10.486  0.3791 -0.2035 -0.1215
15904SOL    HW154762   1.354   7.867  10.475  0.4690 -0.2701 -0.6368
15904SOL    HW254763   1.436   7.741  10.489  0.3557 -0.2172  0.5595
15905SOL     OW54764   2.978   6.733   6.888 -0.1077 -0.4586  0.0841
15905SOL    HW154765   2.887   6.747   6.915 -0.2441 -0.1750 -0.5036
15905SOL    HW254766   3.018   6.820   6.890 -0.4155 -0.2484 -1.6478
15906SOL     OW54767   5.772   5.414   1.604  0.0891  0.3071  0.5587
15906SOL    HW154768   5.792   5.507   1.615 -0.5017  0.3093  1.8067
15906SOL    HW254769   5.827   5.370   1.670 -1.1190 -0.0184  1.3950
15907SOL     OW54770   7.246  12.089   4.149  0.1170  0.3310  0.4132
15907SOL    HW154771   7.227  12.004   4.189  2.3761 -1.0040 -1.1019
15907SOL    HW254772   7.312  12.128   4.206 -1.3496  1.4161  1.4401
15908SOL     OW54773   3.854  11.518   4.379  0.2296  0.1348 -0.1451
15908SOL    HW154774   3.813  11.431   4.376  0.8818 -0.2979  1.8843
15908SOL    HW254775   3.929  11.511   4.320  0.7650 -0.9861  0.6289
15909SOL     OW54776   4.229  10.389   4.073  0.2033 -0.1877  0.3224
15909SOL    HW154777   4.157  10.446   4.045 -0.0626 -0.6943 -0.0386
15909SOL    HW254778   4.200  10.353   4.157  0.1015 -0.2741  0.2507
15910SOL     OW54779  11.831  10.416   3.976 -0.2200 -0.1709  0.1361
15910SOL    HW154780  11.761  10.351   3.969  1.0599 -1.4449 -1.6708
15910SOL    HW254781  11.817  10.474   3.901  0.6042 -0.3974 -0.1979
15911SOL     OW54782   6.300   7.568   6.924  0.0483  0.0111 -0.0643
15911SOL    HW154783   6.206   7.560   6.944 -0.3932  0.2454 -1.8926
15911SOL    HW254784   6.324   7.655   6.959 -0.8382  0.6784 -1.0639
15912SOL     OW54785   5.158   4.297   6.036  0.9735  0.0099 -0.5040
15912SOL    HW154786   5.075   4.340   6.016  0.8590  0.7182  1.2561
15912SOL    HW254787   5.195   4.274   5.951  0.1028  1.8314 -1.4205
15913SOL     OW54788   8.637   9.299   8.676  0.1440 -0.3437  0.2256
15913SOL    HW154789   8.587   9.253   8.744 -0.6002 -0.0949 -0.1422
15913SOL    HW254790   8.657   9.385   8.715  3.3508 -1.6040  1.7452
15914SOL     OW54791   6.793   4.523   4.696 -0.4452 -0.3960  0.0692
15914SOL    HW154792   6.830   4.574   4.624 -2.1657  0.2809 -0.3804
15914SOL    HW254793   6.866   4.470   4.728  0.5620 -0.1041 -1.6330
15915SOL     OW54794   0.808   4.242   8.850 -0.4135 -0.3983 -0.6571
15915SOL    HW154795   0.740   4.306   8.829 -1.3666 -1.7870 -2.0328
15915SOL    HW254796   0.853   4.279   8.926 -1.1539  1.7035 -1.1657
15916SOL     OW54797   7.025   1.816   7.650 -0.2119  0.5138 -0.3240
15916SOL    HW154798   7.040   1.910   7.653 -0.0307  0.4937 -0.5859
15916SOL    HW254799   7.112   1.777   7.661 -0.3351  0.3673  0.1973
15917SOL     OW54800   7.031   0.384  11.872 -0.2776  0.2376  0.2572
15917SOL    HW154801   6.958   0.324  11.889  0.3975 -0.4979  0.6517
15917SOL    HW254802   6.989   0.466  11.846 -1.3059  0.3952  2.2352
15918SOL     OW54803   1.203   5.225  11.024 -0.6888  0.1422 -0.1956
15918SOL    HW154804   1.236   5.289  10.962  1.5322 -2.3303 -1.7875
15918SOL    HW254805   1.132   5.181  10.977 -2.2684  1.3741  0.9245
15919SOL     OW54806   5.496   9.973   4.484 -0.0647 -0.7032  0.3727
15919SOL    HW154807   5.500   9.943   4.574 -0.2692 -1.6069  0.0923
15919SOL    HW254808   5.451  10.057   4.488 -1.3544 -1.4064  0.9659
15920SOL     OW54809   3.918   4.806   5.661  0.3887 -0.1785  0.2627
15920SOL    HW154810   3.931   4.889   5.615  0.2596 -0.2714  0.0598
15920SOL    HW254811   3.852   4.760   5.609 -1.0368  0.4304  1.4563
15921SOL     OW54812  11.414   7.609   2.015  0.2739 -0.3440  0.2196
15921SOL    HW154813  11.458   7.556   1.948  0.8785 -1.7194  1.6557
15921SOL    HW254814  11.335   7.641   1.971  0.4860 -1.4579 -1.0644
15922SOL     OW54815   6.533  10.263   6.361  0.0482 -0.4996  0.3517
15922SOL    HW154816   6.566  10.293   6.445 -1.0419  0.6350  0.4101
15922SOL    HW254817   6.565  10.327   6.298  1.2079 -1.5744 -0.1828
15923SOL     OW54818   3.186  11.992   6.289  0.3207 -0.1948 -0.2909
15923SOL    HW154819   3.198  12.013   6.381  0.6389  2.7868 -0.9023
15923SOL    HW254820   3.274  11.983   6.254  0.2029 -1.2706 -0.3384
15924SOL     OW54821   3.682   9.215   4.454 -0.4909 -0.0457  0.2682
15924SOL    HW154822   3.682   9.215   4.549 -1.8389 -1.6922  0.3295
15924SOL    HW254823   3.760   9.164   4.430 -1.9626 -2.6907  0.6673
15925SOL     OW54824   6.308  10.636   8.317  0.1378  0.4257  0.2590
15925SOL    HW154825   6.357  10.675   8.389  0.4847  0.7810 -0.1629
15925SOL    HW254826   6.288  10.710   8.260  0.4776  0.0439 -0.3620
15926SOL     OW54827   3.814   3.317   8.327 -0.4965  1.0389 -0.0181
15926SOL    HW154828   3.769   3.297   8.410  0.1844  0.7518  0.2950
15926SOL    HW254829   3.761   3.385   8.287 -0.0680  2.2158  1.3300
15927SOL     OW54830   0.306   5.479   4.504 -0.7590  0.4592  0.2132
15927SOL    HW154831   0.326   5.550   4.565  2.3318  1.2088 -1.4513
15927SOL    HW254832   0.372   5.413   4.522  0.1705  0.6553 -2.1128
15928SOL     OW54833   2.513   8.164   3.791  0.1872  0.2720 -0.3934
15928SOL    HW154834   2.463   8.183   3.870 -0.6816 -2.1529 -0.2664
15928SOL    HW254835   2.486   8.232   3.729 -0.4445  1.1867  0.8318
15929SOL     OW54836  10.487   4.780  10.203  0.1381 -0.2499 -0.4645
15929SOL    HW154837  10.555   4.795  10.138  0.5905  0.1779  0.0938
15929SOL    HW254838  10.521   4.820  10.283  0.2289 -2.0364  0.4322
15930SOL     OW54839   2.751  12.160  10.667  0.1190  0.1761 -0.3411
15930SOL    HW154840   2.768  12.205  10.750 -0.0236  0.1841 -0.3150
15930SOL    HW254841   2.810  12.085  10.667  0.0412  0.1150 -0.1833
15931SOL     OW54842   1.952  10.111   8.546  0.1432 -0.8259  0.4791
15931SOL    HW154843   1.938  10.103   8.641  0.3012 -0.7280  0.5101
15931SOL    HW254844   1.957  10.020   8.516 -0.1311 -0.8577  0.5310
15932SOL     OW54845  11.787   9.570  10.250  0.1060 -0.2601 -0.1586
15932SOL    HW154846  11.845   9.513  10.200  1.0863  1.3077 -0.9058
15932SOL    HW254847  11.756   9.634  10.185 -0.1996  0.6121  0.8266
15933SOL     OW54848   7.938   0.567   0.972 -0.1176  0.1775  0.6628
15933SOL    HW154849   7.936   0.530   0.884  0.8554  0.9056  0.3108
15933SOL    HW254850   8.002   0.639   0.966  1.0285 -0.6344  2.3042
15934SOL     OW54851   7.828   4.023   9.807 -0.5581 -0.5131 -0.2295
15934SOL    HW154852   7.781   4.102   9.779  0.7226 -0.0435 -1.1835
15934SOL    HW254853   7.903   4.018   9.747 -0.6868 -2.5458 -0.2983
15935SOL     OW54854  11.807   5.904   0.864  0.4272  0.1784 -0.2011
15935SOL    HW154855  11.736   5.844   0.841  1.5846 -1.6671  0.8449
15935SOL    HW254856  11.883   5.871   0.816  0.9872  1.1396 -0.0132
15936SOL     OW54857  10.464   8.895   3.605  0.1761  0.1130  0.1976
15936SOL    HW154858  10.385   8.868   3.557  0.1090 -2.3840  1.5739
15936SOL    HW254859  10.433   8.959   3.669 -0.5903 -0.2054  0.1509
15937SOL     OW54860  10.197   7.462   5.784 -0.5280  0.0059  0.2005
15937SOL    HW154861  10.154   7.378   5.797 -0.2080 -0.3488 -0.8991
15937SOL    HW254862  10.289   7.439   5.767 -0.2474  0.6389  0.8136
15938SOL     OW54863   9.788   2.689  11.262 -0.4128  0.1702  0.1494
15938SOL    HW154864   9.765   2.659  11.350 -1.3980  2.5669  0.7680
15938SOL    HW254865   9.711   2.668  11.209  0.3786 -1.7552 -0.3510
15939SOL     OW54866  10.138   6.619   8.480  0.0977  0.1564  0.4497
15939SOL    HW154867  10.117   6.539   8.529 -1.7077 -0.1862 -0.7651
15939SOL    HW254868  10.152   6.685   8.548 -0.6976 -0.6722  1.4622
15940SOL     OW54869   2.775   6.439   8.161  0.0741  0.4490  0.1873
15940SOL    HW154870   2.804   6.348   8.163 -0.5204  0.2247 -0.8535
15940SOL    HW254871   2.734   6.449   8.076 -0.8470  1.3997  0.7251
15941SOL     OW54872   1.558  12.402  12.552  0.5604  0.1788 -0.1666
15941SOL    HW154873   1.545  12.470  12.485 -0.4544  2.4431  2.1665
15941SOL    HW254874   1.640  12.427  12.596  1.6388 -1.7313 -0.9401
15942SOL     OW54875   4.316  10.232   9.407 -0.4593 -0.1297 -0.0559
15942SOL    HW154876   4.305  10.137   9.403  0.1640 -0.2628  1.0606
15942SOL    HW254877   4.250  10.262   9.468 -0.3445  0.1004 -0.0430
15943SOL     OW54878   2.231   1.485   5.089 -0.1312 -0.0830  0.4169
15943SOL    HW154879   2.238   1.391   5.105 -0.1904 -0.0331  0.7374
15943SOL    HW254880   2.283   1.526   5.158 -0.3145  0.1289  0.4327
15944SOL     OW54881   1.730   6.192  11.213 -0.2297 -0.2735 -0.5853
15944SOL    HW154882   1.708   6.237  11.294  0.2433  0.3799 -0.8120
15944SOL    HW254883   1.649   6.148  11.187 -0.4454 -0.3076  0.1173
15945SOL     OW54884   4.672   2.516   8.405  0.1240  0.1140 -0.0221
15945SOL    HW154885   4.644   2.569   8.479 -0.8767 -0.4190 -0.0046
15945SOL    HW254886   4.616   2.438   8.408 -0.4010  0.3935 -1.7299
15946SOL     OW54887   8.656   7.981  10.822  0.3002 -0.3022  0.1634
15946SOL    HW154888   8.734   8.019  10.781  0.4704 -2.3353 -1.5607
15946SOL    HW254889   8.655   8.019  10.910  0.0840  4.0363 -1.4924
15947SOL     OW54890   9.837   5.044  11.601  0.0888  0.1862 -0.1459
15947SOL    HW154891   9.872   4.975  11.546  0.2405  0.4113 -0.3336
15947SOL    HW254892   9.881   5.032  11.686  1.2023  0.9350 -0.6003
15948SOL     OW54893   8.362   8.144   0.976 -0.3665 -0.5533 -0.2207
15948SOL    HW154894   8.457   8.154   0.976 -0.1931 -1.9422 -0.3101
15948SOL    HW254895   8.339   8.128   0.885 -0.9132  1.3227 -0.4580
15949SOL     OW54896   3.172   5.894   0.950 -0.0035 -0.3455  0.0919
15949SOL    HW154897   3.197   5.965   1.010 -2.0176  0.3899  0.1357
15949SOL    HW254898   3.084   5.869   0.978  0.0599 -1.8255 -0.9133
15950SOL     OW54899   5.638   8.771   2.432 -0.2764  0.1367  0.5442
15950SOL    HW154900   5.569   8.771   2.498 -0.1073 -2.6347  0.8785
15950SOL    HW254901   5.717   8.746   2.480  0.3579  0.4952 -0.2930
15951SOL     OW54902   9.312  10.888  11.961  0.2020  0.3461  0.1115
15951SOL    HW154903   9.325  10.864  12.052  0.3974  0.2574  0.0604
15951SOL    HW254904   9.304  10.804  11.915  0.8986  0.3734 -0.0693
15952SOL     OW54905   6.656   4.988   1.284 -0.4424  0.1627  0.1981
15952SOL    HW154906   6.695   4.980   1.198 -2.4661  0.1327 -0.7827
15952SOL    HW254907   6.673   5.079   1.310  0.6152  0.0262  0.0220
15953SOL     OW54908  10.343   8.186   3.000  0.9539  0.0594 -0.2777
15953SOL    HW154909  10.380   8.123   2.938 -1.3060 -1.6812 -0.0050
15953SOL    HW254910  10.310   8.257   2.946  1.4870 -0.0783 -0.7968
15954SOL     OW54911   6.472   7.279   6.272  0.1348 -0.4626  0.2036
15954SOL    HW154912   6.468   7.340   6.199 -1.4373 -0.0005  0.6317
15954SOL    HW254913   6.410   7.209   6.249  0.6184 -1.0026  0.5052
15955SOL     OW54914   7.430   4.283  11.931  0.1776 -0.0987  1.0279
15955SOL    HW154915   7.450   4.328  12.013 -1.5790  0.2756  1.2912
15955SOL    HW254916   7.426   4.190  11.955  1.3925 -0.1627  0.9947
15956SOL     OW54917   4.462   5.740   8.701  0.1972 -0.0701  0.4995
15956SOL    HW154918   4.374   5.715   8.729  0.0327 -0.0246  0.0298
15956SOL    HW254919   4.464   5.835   8.709 -1.3092  0.5064 -3.5842
15957SOL     OW54920   5.983   2.596   1.555  0.1031  0.0620  0.1503
15957SOL    HW154921   6.074   2.622   1.567  0.1757  1.0419 -1.9564
15957SOL    HW254922   5.986   2.534   1.482 -0.7904 -1.0796  1.0445
15958SOL     OW54923   2.016   7.581  10.759  0.5351  0.2104 -0.4171
15958SOL    HW154924   1.924   7.607  10.767 -1.0618 -4.0398 -2.1306
15958SOL    HW254925   2.032   7.527  10.836  1.4683  0.4627 -0.4266
15959SOL     OW54926   2.290   2.522   1.529  0.5448  0.0645 -0.2927
15959SOL    HW154927   2.343   2.591   1.568 -1.2199  0.7969  0.9106
15959SOL    HW254928   2.318   2.519   1.437  2.0547  0.9704  0.1121
15960SOL     OW54929   1.197   8.480   7.501  0.2667  0.2228  0.2921
15960SOL    HW154930   1.167   8.431   7.424 -1.1427  1.4760  0.0053
15960SOL    HW254931   1.260   8.543   7.465  0.7892 -0.2175  0.4155
15961SOL     OW54932   4.054   4.093   2.952  0.5031  0.2850  0.3100
15961SOL    HW154933   4.051   4.182   2.915  0.3550  0.0297 -0.2986
15961SOL    HW254934   4.046   4.035   2.876 -0.9104 -0.2474  0.8283
15962SOL     OW54935   8.922   9.635   3.332  0.7050  0.6419 -0.4811
15962SOL    HW154936   8.960   9.644   3.244  0.7652 -0.1555 -0.5485
15962SOL    HW254937   8.989   9.671   3.391  2.1036 -1.6857 -0.5022
15963SOL     OW54938   7.638  11.973   5.070 -0.8576 -0.8462 -0.3401
15963SOL    HW154939   7.679  11.886   5.069  0.0016 -0.4570 -1.0296
15963SOL    HW254940   7.640  11.999   5.162  3.9720  0.6751 -0.5842
15964SOL     OW54941   6.940   5.269   6.576 -0.5342 -0.5919  1.3505
15964SOL    HW154942   6.910   5.252   6.486  2.3753  0.1688  0.1172
15964SOL    HW254943   6.877   5.332   6.610 -0.2728  1.1982 -1.1656
15965SOL     OW54944   7.909   3.348  10.398 -0.5297  0.1298  0.2519
15965SOL    HW154945   7.909   3.274  10.337 -0.2641  0.4778 -0.1791
15965SOL    HW254946   7.999   3.352  10.431 -1.0802 -1.1622  2.0523
15966SOL     OW54947   2.203   0.612  11.966  0.3914 -0.4621 -0.1018
15966SOL    HW154948   2.267   0.573  11.906  0.2477  0.4575 -0.8714
15966SOL    HW254949   2.196   0.703  11.938 -1.3005 -0.5618 -0.0586
15967SOL     OW54950   1.871   3.089   7.159  0.2985 -0.0371  0.5876
15967SOL    HW154951   1.928   3.092   7.235  3.3917 -1.4876 -1.4720
15967SOL    HW254952   1.816   3.012   7.173  1.1082 -0.5184  1.1821
15968SOL     OW54953   0.516   3.512  10.651  0.2740  0.0787  0.2972
15968SOL    HW154954   0.576   3.561  10.596  1.6854 -1.1584  0.6768
15968SOL    HW254955   0.568   3.483  10.725 -0.9942 -0.3533  1.0596
15969SOL     OW54956   8.504   6.519   6.465 -0.5906  0.3406  0.3158
15969SOL    HW154957   8.526   6.594   6.409  1.6881 -0.5266 -0.0526
15969SOL    HW254958   8.481   6.449   6.404  0.1899 -0.0921  0.4958
15970SOL     OW54959   5.660  11.832  12.239  0.7094  0.2735 -0.5076
15970SOL    HW154960   5.581  11.822  12.185 -0.3114  0.4985  0.8871
15970SOL    HW254961   5.702  11.911  12.205  1.0172 -0.5290 -2.0734
15971SOL     OW54962  10.999  12.149  10.891 -0.0330  0.7480  0.0712
15971SOL    HW154963  10.929  12.194  10.844 -1.3217 -0.2115  1.0129
15971SOL    HW254964  10.959  12.121  10.973  1.4930  0.2655  0.6910
15972SOL     OW54965  11.550   0.771   6.511  0.1502 -0.1670 -0.4047
15972SOL    HW154966  11.519   0.722   6.434  0.0662 -0.4231 -0.2102
15972SOL    HW254967  11.508   0.727   6.585 -0.6872  0.7960 -0.2959
15973SOL     OW54968   3.918   0.171   2.344 -0.6666 -0.3079 -0.1679
15973SOL    HW154969   3.973   0.154   2.267  1.1358  0.4369  0.8887
15973SOL    HW254970   3.903   0.085   2.383  0.4521 -0.4506 -0.0318
15974SOL     OW54971   4.052   4.318   1.220 -0.5298 -0.1772  0.2298
15974SOL    HW154972   3.981   4.381   1.209  1.4180  2.0016 -0.6728
15974SOL    HW254973   4.113   4.359   1.281  0.9165 -1.0594 -0.5495
15975SOL     OW54974   7.576   7.631   5.525  0.0043 -0.4685  0.1155
15975SOL    HW154975   7.579   7.726   5.513  0.0259 -0.3820  0.7796
15975SOL    HW254976   7.559   7.597   5.437  0.7932  0.1018 -0.2712
15976SOL     OW54977  12.095   9.062   0.036 -0.2171  0.0494  0.5384
15976SOL    HW154978  12.058   9.001  -0.028  2.5311 -1.3919  0.1445
15976SOL    HW254979  12.090   9.015   0.119 -1.0768  0.6888  0.8571
15977SOL     OW54980  11.506   2.195   6.076  0.1348  0.8995 -0.8587
15977SOL    HW154981  11.518   2.242   6.158  0.6361 -0.5532 -0.0681
15977SOL    HW254982  11.427   2.143   6.088  1.0542 -0.5309 -0.6458
15978SOL     OW54983   0.715   6.961   2.998  0.7302  0.0823  0.0042
15978SOL    HW154984   0.625   6.934   3.012  0.6661 -0.3637 -1.1968
15978SOL    HW254985   0.725   6.964   2.903  1.6828  1.1293  0.1135
15979SOL     OW54986   1.276   9.093   7.556 -0.0847  0.0050 -0.3820
15979SOL    HW154987   1.236   9.041   7.626 -0.1908  2.3116  1.3933
15979SOL    HW254988   1.211   9.159   7.534  0.2597 -0.1919 -2.1572
15980SOL     OW54989   7.991   8.863   1.222  0.3916  0.3096 -0.2361
15980SOL    HW154990   7.928   8.791   1.219  1.4415 -0.9050  2.5861
15980SOL    HW254991   8.076   8.820   1.236  1.2836  2.0268 -0.0264
15981SOL     OW54992   4.084   5.339   3.344 -0.3610 -0.0422 -0.3943
15981SOL    HW154993   4.110   5.330   3.435 -0.0189 -0.3274 -0.5140
15981SOL    HW254994   4.001   5.386   3.346 -1.2829 -1.6320  0.1775
15982SOL     OW54995   2.545   4.722   3.685 -0.5153 -0.2811 -0.1901
15982SOL    HW154996   2.477   4.776   3.725 -1.3987 -0.5540 -1.2527
15982SOL    HW254997   2.601   4.696   3.757 -0.2268  1.8010  0.4041
15983SOL     OW54998  12.342   9.036  11.213 -0.0287 -0.4497 -0.5208
15983SOL    HW154999  12.331   9.124  11.179  0.7964 -0.2998 -0.4114
15983SOL    HW255000  12.332   8.979  11.136 -0.0933 -0.2342 -0.6716
15984SOL     OW55001  12.269  10.051   9.184 -0.1276 -0.0581  0.1890
15984SOL    HW155002  12.331   9.978   9.189  0.1587  0.2360  1.5024
15984SOL    HW255003  12.217  10.043   9.264 -3.0794 -1.3738 -1.7183
15985SOL     OW55004   8.582   8.094  11.344 -0.5108 -0.7043 -0.4524
15985SOL    HW155005   8.623   8.057  11.423 -1.5359 -0.7698  0.0727
15985SOL    HW255006   8.539   8.020  11.302 -0.7232 -0.5118 -0.5808
15986SOL     OW55007   6.983   0.784   2.181 -0.0784  0.2827 -0.3842
15986SOL    HW155008   7.041   0.853   2.147 -0.4796  0.1839 -1.3136
15986SOL    HW255009   6.908   0.784   2.121  0.7344 -2.1615 -1.5259
15987SOL     OW55010   8.188   0.536   2.067  0.1260  0.5276  0.0355
15987SOL    HW155011   8.183   0.596   1.993  0.8715  4.6636  2.9867
15987SOL    HW255012   8.237   0.461   2.033  1.1008  2.4962 -3.4318
15988SOL     OW55013   6.463   4.849  11.834  0.2042  0.1654 -0.0397
15988SOL    HW155014   6.527   4.794  11.790  1.4467  2.9880 -2.0960
15988SOL    HW255015   6.480   4.837  11.927  1.3410 -1.7629 -0.4438
15989SOL     OW55016   4.901  10.610   8.784 -0.1886 -0.0244 -0.4066
15989SOL    HW155017   4.997  10.604   8.787 -0.2365 -0.5272  1.5536
15989SOL    HW255018   4.872  10.573   8.867 -2.0524  1.0574 -0.5109
15990SOL     OW55019   2.892   0.676   3.247 -0.4797 -1.1156 -0.4632
15990SOL    HW155020   2.912   0.611   3.313 -2.8007 -0.5926  0.8518
15990SOL    HW255021   2.825   0.635   3.192 -1.9885  0.1241  0.4001
15991SOL     OW55022   5.863   4.372  12.016 -0.1186 -0.8037 -0.4880
15991SOL    HW155023   5.780   4.332  11.990 -0.8839  0.1840  0.3778
15991SOL    HW255024   5.841   4.431  12.088  1.3325 -0.4949 -0.2493
15992SOL     OW55025  10.631   0.327   3.626  0.0528  0.1308  0.1595
15992SOL    HW155026  10.627   0.414   3.586 -0.2476  0.1727  0.2765
15992SOL    HW255027  10.576   0.272   3.570  1.4660 -0.3553 -0.8067
15993SOL     OW55028   2.919  12.345   7.635  0.1558  0.3650  0.1650
15993SOL    HW155029   2.935  12.433   7.601  1.4533  0.0131 -0.1814
15993SOL    HW255030   2.941  12.351   7.728  3.9799 -0.4114 -0.5140
15994SOL     OW55031   3.320   2.133   9.825  0.1761 -0.1348 -0.1901
15994SOL    HW155032   3.296   2.209   9.772  1.6775  1.1211  0.8281
15994SOL    HW255033   3.395   2.163   9.877 -0.4337 -1.6896  1.7050
15995SOL     OW55034   8.833   0.111  11.080  0.2180  0.4145  0.3367
15995SOL    HW155035   8.823   0.092  11.174 -1.0623 -1.7103 -0.1655
15995SOL    HW255036   8.769   0.180  11.063 -1.4197 -0.9852  0.5800
15996SOL     OW55037  10.457   8.897   1.610 -0.1924  0.2870  0.1582
15996SOL    HW155038  10.417   8.984   1.612 -1.4452 -0.2410 -0.7011
15996SOL    HW255039  10.406   8.846   1.673  0.0907 -0.0034  0.1520
15997SOL     OW55040   0.833   1.850   8.072  0.0252  0.2149  0.3888
15997SOL    HW155041   0.828   1.893   7.987 -0.3629 -0.5867 -0.0011
15997SOL    HW255042   0.765   1.891   8.125  1.7472  2.3807  1.1187
15998SOL     OW55043   6.746   8.387  10.771  0.6137  0.7253  0.4398
15998SOL    HW155044   6.789   8.302  10.759  0.8679  0.9881 -0.6466
15998SOL    HW255045   6.714   8.385  10.861  1.3580 -0.1830  0.7092
15999SOL     OW55046   8.160  11.796   4.935  0.4823 -0.1925 -0.0124
15999SOL    HW155047   8.083  11.851   4.926  0.8779  0.3820  0.0507
15999SOL    HW255048   8.232  11.858   4.947  0.7122 -0.7353  1.7488
16000SOL     OW55049  12.220   1.872   4.881  0.2270  0.2106 -0.3568
16000SOL    HW155050  12.241   1.948   4.828  3.0510 -0.5369 -0.4320
16000SOL    HW255051  12.258   1.890   4.967 -0.8305 -0.2920  0.2427
16001SOL     OW55052  11.356  10.719   5.762 -0.0142 -0.6129 -0.8970
16001SOL    HW155053  11.342  10.808   5.796  0.8453 -0.4700 -0.8899
16001SOL    HW255054  11.420  10.681   5.822 -0.0486 -1.0847 -1.1636
16002SOL     OW55055   3.827   0.514   0.701 -0.1213 -0.0853 -0.5380
16002SOL    HW155056   3.798   0.593   0.747 -0.3565 -0.5423  0.1054
16002SOL    HW255057   3.875   0.548   0.625 -0.8619  0.6790 -0.6851
16003SOL     OW55058   9.256  10.687   2.942  0.5741  0.4059  0.0949
16003SOL    HW155059   9.309  10.745   2.887 -0.5625  0.7845 -0.6354
16003SOL    HW255060   9.215  10.626   2.880 -1.0564  1.0980  0.4356
16004SOL     OW55061   4.925   4.645  10.341 -0.4968  0.1482 -0.4552
16004SOL    HW155062   4.881   4.681  10.418 -0.3924 -0.9604  0.1411
16004SOL    HW255063   4.891   4.696  10.268  0.5679  2.2782  0.4695
16005SOL     OW55064   4.184   6.078   6.922  0.5659 -0.0357 -0.0534
16005SOL    HW155065   4.200   6.116   7.009  2.0900 -0.1552 -0.2468
16005SOL    HW255066   4.230   5.994   6.924 -0.7528 -0.7919 -0.4442
16006SOL     OW55067   5.937   7.572   9.307 -0.1598 -0.4494 -0.0817
16006SOL    HW155068   5.931   7.600   9.398 -1.3227 -1.7290  0.2710
16006SOL    HW255069   6.031   7.574   9.287  0.0129  0.8746  0.7939
16007SOL     OW55070   7.503   5.790  12.184  0.3974  0.2359 -0.3099
16007SOL    HW155071   7.505   5.721  12.250  0.4441 -0.5560 -1.1193
16007SOL    HW255072   7.592   5.795  12.151 -0.0039 -0.7024 -1.6253
16008SOL     OW55073   9.262   2.475   2.509  0.9722  0.6281 -0.7176
16008SOL    HW155074   9.290   2.420   2.437  0.2768  0.6486 -1.0151
16008SOL    HW255075   9.216   2.415   2.569  1.3123  0.6581 -0.4261
16009SOL     OW55076   8.838   4.643   3.324 -0.2163 -0.0669 -0.1409
16009SOL    HW155077   8.789   4.697   3.386  2.6400  1.0543  1.3736
16009SOL    HW255078   8.871   4.705   3.258  0.5576 -0.4411 -0.1250
16010SOL     OW55079   7.800   1.507   8.603  0.2222 -0.1859  0.2338
16010SOL    HW155080   7.888   1.531   8.631  0.3625 -0.1495 -0.2255
16010SOL    HW255081   7.774   1.435   8.661  0.7886 -0.5935 -0.0051
16011SOL     OW55082   3.166   1.106  12.432 -0.3795  0.1836  0.8717
16011SOL    HW155083   3.231   1.165  12.470  0.3872  0.7380 -1.2159
16011SOL    HW255084   3.111   1.161  12.378 -0.4273 -0.7936 -0.1232
16012SOL     OW55085   9.842   3.609   1.797  0.1670  0.3359  0.1122
16012SOL    HW155086   9.747   3.602   1.810  0.0645  1.1516 -0.1407
16012SOL    HW255087   9.870   3.520   1.779 -0.4975  0.0265  0.5496
16013SOL     OW55088   5.213   5.069   9.838 -0.3356 -0.6141  0.4361
16013SOL    HW155089   5.170   5.134   9.895  1.9746 -1.2300  3.1266
16013SOL    HW255090   5.300   5.106   9.822 -0.1565 -1.5378 -0.8432
16014SOL     OW55091   7.846   6.053   1.929  0.4017  0.0021 -0.2750
16014SOL    HW155092   7.760   6.087   1.956  0.9856  0.9624  0.4537
16014SOL    HW255093   7.857   6.086   1.840 -0.8291 -1.8174 -1.1638
16015SOL     OW55094  11.099   7.334   3.545  0.5832 -0.2069 -0.1720
16015SOL    HW155095  11.020   7.292   3.511  1.8281 -2.8980 -0.0834
16015SOL    HW255096  11.097   7.314   3.639  1.9361 -1.5073 -0.3716
16016SOL     OW55097   4.800   7.472   2.092  0.0958 -0.5212 -0.2501
16016SOL    HW155098   4.768   7.382   2.085 -1.6041  0.1475 -1.7406
16016SOL    HW255099   4.804   7.489   2.186  0.1147 -2.0291  0.0434
16017SOL     OW55100   8.887   6.383   1.197 -0.0649  0.6003  0.0098
16017SOL    HW155101   8.903   6.308   1.139  0.3094  0.0280  0.8304
16017SOL    HW255102   8.958   6.444   1.178  0.3575  0.1861  0.2198
16018SOL     OW55103  12.220   7.265   3.722 -0.3164 -0.2596  0.1411
16018SOL    HW155104  12.230   7.287   3.814 -0.0346  0.4446 -0.0551
16018SOL    HW255105  12.134   7.222   3.717 -0.3293 -0.3008  0.7309
16019SOL     OW55106   7.682   5.201   3.587 -0.6310 -0.0799  0.3592
16019SOL    HW155107   7.591   5.199   3.618 -0.5499  1.6288  0.7965
16019SOL    HW255108   7.676   5.175   3.495 -1.5266 -0.2612  0.4577
16020SOL     OW55109   4.090  11.820   6.225 -0.0117  0.5668  0.1657
16020SOL    HW155110   4.075  11.914   6.236 -1.6793  0.4869 -1.0463
16020SOL    HW255111   4.050  11.781   6.303  0.9399  0.8405  0.8191
16021SOL     OW55112   3.750   7.554   3.826  0.2165  0.1337 -0.2000
16021SOL    HW155113   3.831   7.520   3.787 -0.7474 -0.3221 -1.8645
16021SOL    HW255114   3.715   7.481   3.876  1.1201  0.5261  1.0815
16022SOL     OW55115   0.647  12.517  11.563 -0.3821 -0.3641 -0.3489
16022SOL    HW155116   0.699  12.555  11.634 -0.5426 -0.6587 -0.0641
16022SOL    HW255117   0.628  12.428  11.594  0.9114 -1.0693 -1.4727
16023SOL     OW55118   1.952   0.232  11.895 -0.6870 -0.1540 -0.1622
16023SOL    HW155119   1.975   0.266  11.809  1.9173 -1.4781 -0.0657
16023SOL    HW255120   1.959   0.137  11.886  1.2802 -0.2852  1.8689
16024SOL     OW55121   9.707   7.915   2.136 -1.0666  0.2359  0.4099
16024SOL    HW155122   9.795   7.938   2.166 -0.8574  0.3162 -0.2468
16024SOL    HW255123   9.697   7.823   2.160 -0.0037 -0.3653 -1.3033
16025SOL     OW55124  11.988   0.511   5.136 -0.1461 -0.1685  0.1262
16025SOL    HW155125  11.916   0.536   5.077 -0.1055 -0.6064 -0.1167
16025SOL    HW255126  11.984   0.415   5.139  0.4553 -0.1979  0.0817
16026SOL     OW55127   7.927   7.013   3.538  0.2184  0.2210  0.3331
16026SOL    HW155128   7.848   7.020   3.591  0.8443 -1.9762  1.7059
16026SOL    HW255129   7.990   6.968   3.595  1.3866 -1.0747 -1.8443
16027SOL     OW55130   8.600   6.416   7.656  0.1471  0.2409  0.0567
16027SOL    HW155131   8.673   6.477   7.649  1.0628 -0.7787  0.4343
16027SOL    HW255132   8.552   6.426   7.574  1.5948 -0.1749 -0.8741
16028SOL     OW55133   0.770   0.098   2.876  0.0306  0.1022  0.6577
16028SOL    HW155134   0.813   0.172   2.835 -0.3500 -0.8314 -1.5582
16028SOL    HW255135   0.683   0.130   2.898 -0.1814  0.3065 -0.4206
16029SOL     OW55136  10.857   4.268   8.480  0.8203 -0.5639 -0.3888
16029SOL    HW155137  10.777   4.302   8.441 -0.0474 -3.3284 -1.2963
16029SOL    HW255138  10.865   4.180   8.443  1.7683 -2.1467  3.1953
16030SOL     OW55139  10.892   5.502   9.613  0.1222  0.2227  0.9006
16030SOL    HW155140  10.799   5.512   9.633  0.1389  0.0616  1.0641
16030SOL    HW255141  10.931   5.586   9.637 -0.1115  0.5730  0.0674
16031SOL     OW55142   4.646   5.809   1.494  0.0319 -0.0543  0.7741
16031SOL    HW155143   4.679   5.732   1.447 -2.2905 -0.4091 -0.4019
16031SOL    HW255144   4.715   5.875   1.483  0.3695 -0.7093 -1.6559
16032SOL     OW55145   2.692   0.403  11.054  0.1055 -0.3050 -0.2027
16032SOL    HW155146   2.756   0.332  11.054 -0.9270 -1.3561  2.1866
16032SOL    HW255147   2.620   0.370  11.000 -0.1008 -0.8750  0.3917
16033SOL     OW55148   9.592   9.261   0.769 -0.0011 -0.4758  0.3179
16033SOL    HW155149   9.543   9.225   0.843 -1.3402  1.0237  0.2059
16033SOL    HW255150   9.591   9.355   0.782 -0.2001 -0.1706 -1.5549
16034SOL     OW55151   3.585   1.425   7.168  0.2942  0.1078 -0.0668
16034SOL    HW155152   3.521   1.442   7.100  1.7621 -1.8240 -2.0611
16034SOL    HW255153   3.539   1.370   7.231 -0.3810 -0.1878 -0.8030
16035SOL     OW55154   9.129   3.910   5.938  0.0773  0.4202  0.1740
16035SOL    HW155155   9.155   3.822   5.963  0.7873  0.4526 -0.4151
16035SOL    HW255156   9.191   3.967   5.983 -1.1106  0.7126  1.5229
16036SOL     OW55157   5.705   5.525   4.714  0.2181  0.3641  0.0849
16036SOL    HW155158   5.759   5.447   4.699 -0.7957 -0.0730 -1.5190
16036SOL    HW255159   5.656   5.536   4.633 -1.9748  0.8232  1.3862
16037SOL     OW55160   7.124   6.398  10.114 -0.1916  0.0178  0.0300
16037SOL    HW155161   7.128   6.310  10.076  1.4175  0.2849 -0.4798
16037SOL    HW255162   7.171   6.390  10.197  1.0134  0.6375 -0.5705
16038SOL     OW55163   3.003   8.950   3.332 -0.1109  0.4627 -0.2559
16038SOL    HW155164   2.986   8.908   3.417 -1.5429  0.9978 -0.2520
16038SOL    HW255165   2.923   8.937   3.283  0.8027 -0.0665 -1.6486
16039SOL     OW55166   5.180   8.535   0.265 -0.3031  0.1104 -0.0472
16039SOL    HW155167   5.250   8.599   0.277 -0.2116 -0.1696  1.0120
16039SOL    HW255168   5.127   8.571   0.194  1.0263  0.2253 -1.0377
16040SOL     OW55169   5.403  11.786  11.695 -0.4918  0.0564 -0.0689
16040SOL    HW155170   5.461  11.852  11.658  1.0187 -1.3145 -0.2587
16040SOL    HW255171   5.427  11.705  11.650 -0.2317 -1.2161  2.1674
16041SOL     OW55172   0.248   9.027   8.880 -0.2001 -0.3696  0.3202
16041SOL    HW155173   0.155   9.005   8.887 -0.4302  0.5173  0.2252
16041SOL    HW255174   0.278   9.029   8.971 -0.1289 -1.2209  0.3224
16042SOL     OW55175   5.358   9.299   5.643 -0.0702  0.3666  0.1741
16042SOL    HW155176   5.364   9.358   5.719 -0.0829 -0.2554  0.6645
16042SOL    HW255177   5.333   9.356   5.571  0.5491  1.0806  0.5044
16043SOL     OW55178   3.767   8.429   6.523  0.3366 -0.1230  0.4100
16043SOL    HW155179   3.821   8.362   6.564 -0.2324 -1.3547 -0.7479
16043SOL    HW255180   3.798   8.433   6.433 -0.7461 -0.0667  0.0149
16044SOL     OW55181   7.539   8.337   8.006  0.6085 -0.9073 -0.0285
16044SOL    HW155182   7.486   8.411   7.979  0.9239 -0.4020  0.7072
16044SOL    HW255183   7.629   8.370   8.007  0.6227 -0.8816  1.5775
16045SOL     OW55184   3.115   4.340   9.079 -0.5146 -0.0672 -0.2395
16045SOL    HW155185   3.119   4.244   9.075 -0.5310 -0.0226 -2.0455
16045SOL    HW255186   3.068   4.358   9.160 -1.2012 -1.6104 -0.2568
16046SOL     OW55187   1.872   3.523   2.696 -0.2024 -0.3336  0.1076
16046SOL    HW155188   1.907   3.462   2.631 -1.1403  2.1420 -2.9517
16046SOL    HW255189   1.903   3.609   2.669  0.3022  0.8141  3.7003
16047SOL     OW55190   0.128   3.024   5.867  0.4746  0.4186 -0.0206
16047SOL    HW155191   0.125   3.111   5.828 -2.2242  0.0042 -0.9732
16047SOL    HW255192   0.038   2.992   5.862  0.6050 -1.0298  3.5800
16048SOL     OW55193   0.330   9.230   7.090 -0.1071 -0.3218 -0.4530
16048SOL    HW155194   0.418   9.198   7.109  0.3443 -0.0156 -1.9508
16048SOL    HW255195   0.289   9.160   7.039 -0.1125  0.2447 -1.2535
16049SOL     OW55196   0.565   9.992   6.699  0.4290 -0.1184 -0.1338
16049SOL    HW155197   0.636   9.928   6.693 -0.2070 -0.9112  0.5190
16049SOL    HW255198   0.529   9.980   6.788  0.6181  1.4933  0.1848
16050SOL     OW55199  10.908  11.654   3.269  0.0234  0.0361 -0.3706
16050SOL    HW155200  10.926  11.720   3.202  0.7272 -0.3440 -0.5706
16050SOL    HW255201  10.860  11.701   3.337 -2.2491  0.0548 -1.8860
16051SOL     OW55202   4.718  12.309   8.416  0.4369 -0.1851 -0.1731
16051SOL    HW155203   4.782  12.243   8.390  0.1377 -0.5276 -0.0483
16051SOL    HW255204   4.633  12.268   8.398  0.2503  0.4759 -0.8797
16052SOL     OW55205   8.841   6.721   6.209 -0.0013  0.2964  0.4412
16052SOL    HW155206   8.916   6.682   6.164 -0.1442  0.7269 -0.1855
16052SOL    HW255207   8.845   6.814   6.186 -0.3695  0.4331  0.9180
16053SOL     OW55208  10.323  10.866   2.422  0.5000  0.2101 -0.0460
16053SOL    HW155209  10.267  10.799   2.461  2.0142 -0.5100  1.0264
16053SOL    HW255210  10.273  10.947   2.428 -0.7985 -0.5732 -0.0539
16054SOL     OW55211   3.894   9.394  10.042  0.6431  0.2356 -0.9821
16054SOL    HW155212   3.816   9.392  10.097  0.4343 -1.1557 -1.3151
16054SOL    HW255213   3.879   9.328   9.975  1.3603  1.1738 -2.1086
16055SOL     OW55214   4.127   8.227   6.212  0.3940  0.1565 -0.2609
16055SOL    HW155215   4.222   8.239   6.214  0.2858  1.0339 -0.0812
16055SOL    HW255216   4.106   8.217   6.119  0.2280  3.9759 -0.7832
16056SOL     OW55217   0.261   3.355   1.201 -1.0815 -0.4685  0.2478
16056SOL    HW155218   0.353   3.381   1.209 -1.2753 -0.2136  2.0054
16056SOL    HW255219   0.230   3.402   1.123  0.0427  0.1431  0.1427
16057SOL     OW55220   3.414   3.036   4.807 -0.9230  0.6346  0.3504
16057SOL    HW155221   3.490   3.001   4.761 -1.3497 -1.0431  0.8605
16057SOL    HW255222   3.450   3.077   4.885 -0.3752  1.7864 -0.4695
16058SOL     OW55223   9.295   2.496  10.032  0.9127  0.1041  0.1517
16058SOL    HW155224   9.333   2.540  10.108  0.7900  0.7008 -0.1255
16058SOL    HW255225   9.306   2.558   9.960 -0.2568  0.1431 -0.0067
16059SOL     OW55226   4.258   6.579   1.945 -0.0625 -0.1048 -0.1455
16059SOL    HW155227   4.260   6.567   2.040  1.8238 -0.8679 -0.2406
16059SOL    HW255228   4.248   6.491   1.910  2.4714 -0.2528 -0.6654
16060SOL     OW55229  12.584   3.126   0.923  0.7046 -0.1557 -0.6029
16060SOL    HW155230  12.631   3.071   0.860 -0.0876 -1.7316  0.0996
16060SOL    HW255231  12.511   3.071   0.953  0.3847  0.9669  0.8161
16061SOL     OW55232   7.525   6.309   1.771 -0.8279 -0.4363  0.1302
16061SOL    HW155233   7.514   6.283   1.680  2.3558 -2.4940  0.1773
16061SOL    HW255234   7.525   6.226   1.820  3.1848 -0.0413  1.1636
16062SOL     OW55235  11.659   7.445   0.892  0.2502 -0.1540  0.5106
16062SOL    HW155236  11.674   7.525   0.841  0.7646 -0.4376  0.2088
16062SOL    HW255237  11.692   7.375   0.837 -1.4208 -0.7354  0.2039
16063SOL     OW55238   0.064   5.807  10.348 -0.1135 -0.1545 -0.3259
16063SOL    HW155239   0.073   5.754  10.428  0.6857  0.0473 -0.2712
16063SOL    HW255240   0.144   5.788  10.298 -1.0209 -0.9888 -1.5180
16064SOL     OW55241  11.857   6.397   3.991  0.4148  0.2563  0.8541
16064SOL    HW155242  11.831   6.396   4.083 -4.3277 -1.0550 -0.2514
16064SOL    HW255243  11.791   6.450   3.948  0.4307 -1.9824 -2.2255
16065SOL     OW55244   7.785   8.523  11.772  0.4108 -0.3213  0.5158
16065SOL    HW155245   7.860   8.576  11.746  0.6031  0.3721  2.3478
16065SOL    HW255246   7.818   8.465  11.841 -0.4864 -0.7375  0.6144
16066SOL     OW55247   9.901   7.954  11.819  0.0578 -0.4092 -0.7769
16066SOL    HW155248   9.955   7.985  11.746  1.0763  0.7228  0.3830
16066SOL    HW255249   9.835   8.022  11.830  0.6381  0.0412  0.0705
16067SOL     OW55250   1.518   1.197   7.515 -0.1317  0.3411  0.6481
16067SOL    HW155251   1.451   1.255   7.551 -0.2564  0.4989  0.1622
16067SOL    HW255252   1.536   1.232   7.428 -0.4490 -0.5368  0.2180
16068SOL     OW55253  11.799  11.708   0.899 -0.5298 -0.1339  0.1364
16068SOL    HW155254  11.851  11.771   0.849 -0.5057  0.0124  0.3423
16068SOL    HW255255  11.736  11.673   0.836  0.4176 -1.0135 -0.3561
16069SOL     OW55256   3.556   4.453   1.664  0.5098 -0.5104  0.8724
16069SOL    HW155257   3.476   4.472   1.713  0.5242 -0.8861  1.0428
16069SOL    HW255258   3.578   4.536   1.621 -0.4874 -0.6581  0.0476
16070SOL     OW55259  10.401   4.060  11.453  0.5634 -0.3989  0.3136
16070SOL    HW155260  10.306   4.054  11.447  0.2271 -0.4355  3.6049
16070SOL    HW255261  10.430   4.074  11.363 -2.6057  0.6987 -0.6791
16071SOL     OW55262   5.350   8.825   1.717 -0.1669 -0.4329  0.4333
16071SOL    HW155263   5.431   8.830   1.667  0.2738  0.1597  1.1719
16071SOL    HW255264   5.281   8.838   1.653  0.3490 -0.4088 -0.1271
16072SOL     OW55265   0.720   0.536  10.509  0.0371 -0.0480  0.2221
16072SOL    HW155266   0.657   0.512  10.578 -1.1476 -0.2017 -0.8726
16072SOL    HW255267   0.706   0.629  10.495  1.0693  0.2333  0.9395
16073SOL     OW55268   6.448  11.577   3.877 -0.1139  0.2878  0.4881
16073SOL    HW155269   6.472  11.614   3.792 -0.9128  0.3870  0.2993
16073SOL    HW255270   6.444  11.482   3.861 -0.0133  0.2835  0.4836
16074SOL     OW55271   3.267  11.235   0.673  0.6319 -0.6194 -0.6077
16074SOL    HW155272   3.229  11.183   0.603  0.6986  0.1744 -1.2497
16074SOL    HW255273   3.267  11.325   0.639 -0.9064  0.0818  1.0310
16075SOL     OW55274   9.812   8.659   5.764 -0.0550 -1.1876 -0.3063
16075SOL    HW155275   9.843   8.608   5.839 -0.8943 -1.6438 -0.2578
16075SOL    HW255276   9.718   8.640   5.759 -0.6347  1.1168  0.3348
16076SOL     OW55277   2.182   2.437   6.330 -0.8356 -0.2248 -0.7697
16076SOL    HW155278   2.247   2.429   6.260 -0.0882 -0.0468 -0.1029
16076SOL    HW255279   2.232   2.461   6.407 -1.8126  0.8987 -0.4547
16077SOL     OW55280   1.894   3.172   2.163  0.1317 -0.1782 -0.9621
16077SOL    HW155281   1.818   3.115   2.161  0.3424 -0.4992 -0.2560
16077SOL    HW255282   1.964   3.118   2.200 -0.1325  1.0421  1.5012
16078SOL     OW55283   5.101   1.064  11.834  0.2135  0.4243 -0.6317
16078SOL    HW155284   5.050   0.984  11.820  1.8085 -1.0337  1.1828
16078SOL    HW255285   5.192   1.036  11.823  0.8189  1.9793  0.0988
16079SOL     OW55286   0.528   4.471   1.977 -0.3737 -0.0435  0.3152
16079SOL    HW155287   0.596   4.450   1.912  0.7044 -0.8139  1.6306
16079SOL    HW255288   0.491   4.554   1.947  1.6730  0.7934 -0.0802
16080SOL     OW55289  12.350   8.748   4.732 -0.1345 -0.3163  0.2806
16080SOL    HW155290  12.272   8.739   4.787 -0.4053  0.6531  0.0761
16080SOL    HW255291  12.401   8.818   4.774  1.8684 -2.5420  1.8359
16081SOL     OW55292   7.987   5.667   1.076  0.0167  0.0507 -0.5104
16081SOL    HW155293   7.971   5.759   1.096  0.0011  0.1491 -0.9687
16081SOL    HW255294   8.080   5.654   1.094 -0.2384 -0.1709  0.7969
16082SOL     OW55295  12.249   4.366  10.065 -0.1669  0.1947  0.2726
16082SOL    HW155296  12.319   4.341  10.005  0.4852 -0.3558  1.2499
16082SOL    HW255297  12.202   4.435  10.018  1.6511  1.3274  0.0216
16083SOL     OW55298   6.093   0.738   9.120  0.2254 -0.1415  0.4861
16083SOL    HW155299   6.008   0.779   9.127  0.1071 -0.3168  0.1190
16083SOL    HW255300   6.077   0.657   9.071  0.2456 -1.2575  2.2262
16084SOL     OW55301   5.631   3.720  11.660  0.3478  0.1318 -0.8543
16084SOL    HW155302   5.609   3.795  11.715  1.9758  1.2238 -1.6033
16084SOL    HW255303   5.554   3.663  11.664  0.2143  0.3968  2.0974
16085SOL     OW55304   5.978   2.652  11.978 -0.3939  0.4355  0.6046
16085SOL    HW155305   5.929   2.733  11.992 -0.8874  0.1473  0.5500
16085SOL    HW255306   5.928   2.585  12.024 -1.0286 -0.1907 -0.9487
16086SOL     OW55307   6.514  11.344  11.233 -0.2264 -0.1782  0.0878
16086SOL    HW155308   6.584  11.382  11.286  0.8327 -0.1933 -1.2504
16086SOL    HW255309   6.451  11.414  11.222  0.2445  0.2627  0.1716
16087SOL     OW55310  12.315   4.785  11.020 -0.2867 -0.2614 -0.0702
16087SOL    HW155311  12.313   4.875  10.987  0.4856 -0.0354  0.4707
16087SOL    HW255312  12.380   4.742  10.965  1.6730  0.3448  1.6284
16088SOL     OW55313   5.567  10.208  12.583 -0.1689  0.2580 -0.3220
16088SOL    HW155314   5.661  10.194  12.576  0.0904  1.3935  0.5790
16088SOL    HW255315   5.528  10.123  12.563  1.1006 -0.5701  0.6246
16089SOL     OW55316   0.473   8.751   4.979 -0.5485 -0.0311 -0.7604
16089SOL    HW155317   0.469   8.820   5.045  0.6996 -0.6494  0.0012
16089SOL    HW255318   0.411   8.684   5.010 -1.0235  0.2978 -0.9822
16090SOL     OW55319   7.160  11.529   8.843  0.0109 -0.5274  0.4936
16090SOL    HW155320   7.127  11.515   8.754 -0.1192 -2.5532  0.8062
16090SOL    HW255321   7.081  11.544   8.895 -0.2103 -2.3301  0.7327
16091SOL     OW55322  12.067   5.538   3.011  0.7890  0.5153  0.1850
16091SOL    HW155323  12.086   5.629   2.992  1.1857  0.8670  2.0746
16091SOL    HW255324  12.068   5.532   3.107  1.3485 -1.5792  0.1082
16092SOL     OW55325   0.775   0.399   2.176 -0.2004 -0.8047 -0.5540
16092SOL    HW155326   0.791   0.304   2.179 -0.2951 -0.8232 -0.6594
16092SOL    HW255327   0.805   0.430   2.261  1.2707 -0.7068 -1.0814
16093SOL     OW55328   1.565   3.257   2.286 -0.4744 -0.1773 -0.0384
16093SOL    HW155329   1.634   3.317   2.314  1.9571 -2.7949  0.1116
16093SOL    HW255330   1.485   3.291   2.325  0.7422  2.8381  0.0877
16094SOL     OW55331   2.810  10.290   0.527 -0.1105 -0.4351 -0.3123
16094SOL    HW155332   2.745  10.291   0.596 -1.3960 -0.8649 -1.4679
16094SOL    HW255333   2.825  10.383   0.507  0.7914 -0.2769  0.9633
16095SOL     OW55334   7.607   1.445   5.237  0.1539 -0.2195 -0.0679
16095SOL    HW155335   7.554   1.385   5.290  0.8117  0.1346  1.0195
16095SOL    HW255336   7.543   1.503   5.196 -0.4234 -1.0549 -0.3780
16096SOL     OW55337   9.214   1.822   8.351 -0.0792 -0.2506  0.2178
16096SOL    HW155338   9.293   1.772   8.328 -0.0749 -0.4982  0.7583
16096SOL    HW255339   9.145   1.782   8.298 -0.3220 -1.6642  1.5180
16097SOL     OW55340   5.169   5.979   9.601  0.3565  0.3201 -0.2385
16097SOL    HW155341   5.212   6.036   9.665  0.0178  0.6488 -0.2974
16097SOL    HW255342   5.131   5.908   9.653  1.2841 -0.1742 -0.2250
16098SOL     OW55343   6.888   9.250   6.895 -0.1741 -0.3639 -0.0402
16098SOL    HW155344   6.872   9.331   6.944  0.9348  0.2545 -0.6441
16098SOL    HW255345   6.804   9.232   6.852 -0.8154 -0.2713  1.1273
16099SOL     OW55346  11.057   1.255   2.586  0.0100  0.1328 -0.7159
16099SOL    HW155347  11.007   1.184   2.546 -0.7518 -0.2708  0.8941
16099SOL    HW255348  11.000   1.331   2.580 -0.1733  0.0327 -0.2524
16100SOL     OW55349   1.737   9.015   5.902  0.1010 -0.2542  0.3831
16100SOL    HW155350   1.696   9.082   5.957  4.3808  0.7797  2.7360
16100SOL    HW255351   1.722   8.933   5.948 -0.9659 -0.2395  0.0932
16101SOL     OW55352   0.904   8.617   0.274 -0.4063  0.5686 -0.2133
16101SOL    HW155353   0.850   8.694   0.294  0.0835  0.4807  1.6790
16101SOL    HW255354   0.920   8.577   0.360  0.8500 -0.6338 -0.9743
16102SOL     OW55355   2.950  10.753   4.588 -0.1996 -0.1961 -0.1770
16102SOL    HW155356   3.019  10.707   4.540 -0.7363 -1.7631  0.4920
16102SOL    HW255357   2.870  10.736   4.538 -0.6465 -1.2565  0.8500
16103SOL     OW55358   5.920  10.002   0.418 -0.2622  0.2820 -0.0021
16103SOL    HW155359   5.997  10.028   0.368 -0.0330  0.6565  0.5424
16103SOL    HW255360   5.859   9.968   0.352  0.5772 -0.5499 -0.3759
16104SOL     OW55361   1.663   8.161   8.538 -0.0557  0.4409 -0.1772
16104SOL    HW155362   1.711   8.237   8.505 -1.1288  0.8367 -0.8730
16104SOL    HW255363   1.690   8.090   8.480  0.2403  0.4905 -0.1041
16105SOL     OW55364  10.513   7.152   3.582 -0.0159 -0.1806  0.2144
16105SOL    HW155365  10.422   7.132   3.605  0.0140  1.0680  1.5120
16105SOL    HW255366  10.512   7.162   3.487 -1.0630 -0.9912  0.1192
16106SOL     OW55367  11.989   4.027   5.819 -0.5229 -0.7115  0.3819
16106SOL    HW155368  12.022   3.942   5.791 -2.0455 -0.7303 -1.6018
16106SOL    HW255369  11.954   4.066   5.739 -1.3314  1.0863  1.5609
16107SOL     OW55370   2.077  10.621   4.389  0.2423 -0.4939 -0.4210
16107SOL    HW155371   2.139  10.550   4.373 -0.6087 -1.1269 -0.9853
16107SOL    HW255372   1.991  10.583   4.371 -0.2821  0.5113 -0.1489
16108SOL     OW55373   0.410   3.962   0.115 -0.8096  0.4347  0.0971
16108SOL    HW155374   0.333   3.995   0.162 -0.5346 -0.0625  0.9092
16108SOL    HW255375   0.478   4.027   0.133 -0.9676  0.7505 -0.4255
16109SOL     OW55376   3.023  10.689   0.545 -0.3988  0.1167  0.3310
16109SOL    HW155377   3.001  10.627   0.614  0.0151  0.7476  1.0431
16109SOL    HW255378   2.989  10.773   0.576  0.4859  0.5601  0.1462
16110SOL     OW55379  11.655   1.476  10.308  0.1583  0.4316  0.0927
16110SOL    HW155380  11.618   1.513  10.388 -0.0229  2.6547 -0.9286
16110SOL    HW255381  11.699   1.550  10.266 -1.2688 -0.2108 -2.7407
16111SOL     OW55382  12.376   0.776  12.273  0.0735  0.3103  0.0181
16111SOL    HW155383  12.366   0.869  12.251  1.6573  0.6429  0.5474
16111SOL    HW255384  12.421   0.739  12.197  0.6042  0.2607  0.3550
16112SOL     OW55385  11.183  10.144   1.962 -0.2620 -0.3199 -0.0120
16112SOL    HW155386  11.159  10.057   1.993 -0.4164  0.2475  1.5651
16112SOL    HW255387  11.099  10.189   1.951 -0.2994 -0.8657 -2.5330
16113SOL     OW55388  12.480   5.722  11.293  0.4114 -0.0559  0.2994
16113SOL    HW155389  12.392   5.726  11.255  0.6176  0.3245 -0.1422
16113SOL    HW255390  12.521   5.804  11.266  1.6292 -1.1371 -1.3364
16114SOL     OW55391   7.814   8.195   0.011  0.2764 -0.7413  0.4866
16114SOL    HW155392   7.731   8.219   0.054  1.0808 -0.6017  2.0427
16114SOL    HW255393   7.881   8.235   0.067  1.4409 -1.9570 -0.0097
16115SOL     OW55394  10.334   8.062  12.470 -0.1411 -0.3413 -0.1866
16115SOL    HW155395  10.400   8.072  12.401 -1.2691 -0.5711 -1.3451
16115SOL    HW255396  10.334   7.968  12.489 -0.2823 -0.3765 -0.3542
16116SOL     OW55397   6.637   7.232   4.598  0.0810 -0.4396  0.0227
16116SOL    HW155398   6.700   7.162   4.618  0.3088 -0.4627 -0.7411
16116SOL    HW255399   6.552   7.188   4.595  0.1502 -0.5796  0.1194
16117SOL     OW55400   5.406  10.579   1.003 -0.0073 -0.3595  0.4620
16117SOL    HW155401   5.408  10.549   1.093  1.1404 -1.3928  0.1089
16117SOL    HW255402   5.363  10.665   1.007 -0.7606 -0.7781  1.8539
16118SOL     OW55403   6.203   6.783   0.238 -0.2557 -0.4464 -0.1485
16118SOL    HW155404   6.124   6.800   0.186  0.4017 -0.6271 -1.2279
16118SOL    HW255405   6.175   6.716   0.301 -1.1695  0.0551  0.0038
16119SOL     OW55406   4.656   8.949   6.774  0.4364  1.0404 -0.2720
16119SOL    HW155407   4.650   9.012   6.703  0.6741  0.1124 -1.1337
16119SOL    HW255408   4.719   8.884   6.744  0.2538  0.4228  0.6267
16120SOL     OW55409   0.376  11.922   6.821  0.0727 -0.1961  0.0454
16120SOL    HW155410   0.469  11.928   6.844  0.3128 -0.9399 -0.7100
16120SOL    HW255411   0.375  11.895   6.730 -0.8926  0.0999 -0.0407
16121SOL     OW55412   2.738   6.228   7.354 -0.0190 -0.1964  0.2421
16121SOL    HW155413   2.770   6.254   7.440 -0.1365 -1.6718  0.7524
16121SOL    HW255414   2.784   6.285   7.293  0.1267  0.8150  1.2628
16122SOL     OW55415   5.348   9.063   1.530 -0.4656  0.2547  0.4687
16122SOL    HW155416   5.428   9.087   1.576 -0.9577 -0.1352  1.5582
16122SOL    HW255417   5.310   9.146   1.502  0.1227  0.4600  0.2755
16123SOL     OW55418   8.695   7.664   2.487  0.2556  0.3205  0.3154
16123SOL    HW155419   8.776   7.681   2.536  0.5628 -0.6711  0.1645
16123SOL    HW255420   8.661   7.583   2.523 -0.2453  0.3082 -0.1704
16124SOL     OW55421   5.432   3.513   6.799 -0.0165 -0.1179  0.1027
16124SOL    HW155422   5.521   3.544   6.783 -0.5269  1.1716 -0.3897
16124SOL    HW255423   5.439   3.418   6.796  1.4576 -0.0549  0.7513
16125SOL     OW55424   1.675   0.686   0.888 -0.1998  0.3042 -0.2735
16125SOL    HW155425   1.690   0.592   0.878 -1.2928  0.0878  0.0524
16125SOL    HW255426   1.622   0.710   0.812 -1.1470  0.3650  0.3911
16126SOL     OW55427   3.921   6.543   2.976  0.2628  0.0437 -0.0768
16126SOL    HW155428   4.000   6.565   2.926 -0.6077  0.6660 -1.2180
16126SOL    HW255429   3.932   6.588   3.060  0.4761  1.3299 -0.7685
16127SOL     OW55430   4.458   7.903   9.216  0.0142  0.5019  0.0455
16127SOL    HW155431   4.441   7.997   9.209  0.4380  0.5895  0.1717
16127SOL    HW255432   4.468   7.888   9.310 -0.3636  0.2747  0.0513
16128SOL     OW55433   6.279  11.765   1.661  0.0997  0.1610 -0.0767
16128SOL    HW155434   6.248  11.681   1.695  0.7139 -0.4084 -0.8675
16128SOL    HW255435   6.328  11.805   1.733  0.3712 -0.4675  0.0906
16129SOL     OW55436  11.843   0.580   1.507  0.3865 -0.6562 -0.4053
16129SOL    HW155437  11.852   0.605   1.415 -0.2187 -0.6541 -0.4680
16129SOL    HW255438  11.927   0.603   1.546  0.5615 -0.4289 -0.9044
16130SOL     OW55439   2.451   2.163   9.570  0.2292  0.2952  0.3904
16130SOL    HW155440   2.458   2.102   9.643 -2.2410  0.2400  0.6473
16130SOL    HW255441   2.497   2.119   9.498  0.5758 -0.7567  1.2296
16131SOL     OW55442  11.467   4.986  11.143 -0.2438 -0.7771 -0.3119
16131SOL    HW155443  11.437   5.073  11.168  0.3215 -0.5047 -0.5630
16131SOL    HW255444  11.525   4.959  11.214 -1.1659 -1.3551  0.2354
16132SOL     OW55445   7.365   2.652   5.005  0.7415 -0.0958  0.6578
16132SOL    HW155446   7.413   2.722   4.959 -2.7754  2.4109  0.3022
16132SOL    HW255447   7.323   2.602   4.934  0.2417 -0.1525  0.9895
16133SOL     OW55448   0.988   7.638  11.284 -0.0947  0.3768 -0.7593
16133SOL    HW155449   0.968   7.730  11.267  3.0519  1.1441 -0.9970
16133SOL    HW255450   1.064   7.641  11.342 -1.4718 -2.1442  1.3374
16134SOL     OW55451  11.540   0.894   2.371  0.2623  0.2899  1.3275
16134SOL    HW155452  11.538   0.850   2.456 -1.9431 -0.7970  0.7666
16134SOL    HW255453  11.463   0.950   2.371  0.0389  0.0194 -0.0786
16135SOL     OW55454   5.587   5.185   8.373  0.3497 -0.3297 -0.6932
16135SOL    HW155455   5.613   5.272   8.344  0.7704 -0.6561 -1.3074
16135SOL    HW255456   5.625   5.125   8.309  1.3032 -1.0774  0.5337
16136SOL     OW55457   4.712   7.838  11.849  0.1898  0.5437 -0.0635
16136SOL    HW155458   4.632   7.885  11.822 -0.1377 -0.2405 -0.4721
16136SOL    HW255459   4.731   7.873  11.937 -1.0078  0.2316  0.3412
16137SOL     OW55460  10.044   2.286   5.187  0.1762 -0.1359 -0.2785
16137SOL    HW155461  10.048   2.380   5.200 -1.1301 -0.0022 -0.6947
16137SOL    HW255462  10.046   2.275   5.092 -0.7609 -0.4508 -0.2722
16138SOL     OW55463  12.351   8.492   9.567  0.4456  0.0360  0.0278
16138SOL    HW155464  12.423   8.555   9.568 -1.2079  1.9843  0.7476
16138SOL    HW255465  12.311   8.499   9.653 -0.3996 -1.3132 -0.2099
16139SOL     OW55466  11.771   1.085   1.882  0.4784  0.2579 -0.0162
16139SOL    HW155467  11.715   1.050   1.813 -1.1546  1.9404  0.3761
16139SOL    HW255468  11.836   1.138   1.836  0.6535 -0.2533 -0.3658
16140SOL     OW55469   0.999   1.740  11.937 -0.1838  0.3527 -0.6910
16140SOL    HW155470   0.946   1.819  11.928 -0.5517  0.2461  0.4628
16140SOL    HW255471   1.002   1.722  12.031 -0.3542 -1.1730 -0.9408
16141SOL     OW55472  10.925  10.253   1.911 -0.4835  0.0036 -0.1307
16141SOL    HW155473  10.930  10.243   1.816 -0.2842  1.6935 -0.3228
16141SOL    HW255474  10.872  10.332   1.924 -1.2391 -0.6896  1.1948
16142SOL     OW55475   7.171   8.423   7.738  0.0636  0.3897 -0.6200
16142SOL    HW155476   7.149   8.343   7.691  1.1567  0.1285 -0.7128
16142SOL    HW255477   7.203   8.482   7.670 -0.6652  0.8813 -0.5421
16143SOL     OW55478   3.698   0.404   2.012 -0.0504 -0.3805 -0.1893
16143SOL    HW155479   3.660   0.423   2.098 -0.7238 -0.4104 -0.4766
16143SOL    HW255480   3.674   0.479   1.958 -0.3998 -0.7881 -0.5980
16144SOL     OW55481   1.083   2.957   8.898 -0.1847  0.3335  0.0457
16144SOL    HW155482   1.139   2.973   8.822 -1.0135 -1.5594 -1.0441
16144SOL    HW255483   1.000   2.928   8.860 -0.3646 -1.4397  1.6500
16145SOL     OW55484   6.810   6.943   0.078  0.2205 -0.3550  0.4588
16145SOL    HW155485   6.782   6.903   0.160  1.2168 -1.0780  0.4722
16145SOL    HW255486   6.805   6.873   0.013  2.3165 -0.6587  0.5499
16146SOL     OW55487   7.029   0.717  10.927 -0.2817 -0.4181  0.5033
16146SOL    HW155488   6.957   0.656  10.944  0.0071 -0.8203  0.2868
16146SOL    HW255489   7.028   0.729  10.832 -2.3653  2.4061  0.7527
16147SOL     OW55490   8.276   5.803   0.917 -0.1658 -0.1551 -0.0940
16147SOL    HW155491   8.279   5.882   0.971  2.6420  1.0346 -1.7598
16147SOL    HW255492   8.227   5.740   0.970 -0.3052  1.8760  2.4203
16148SOL     OW55493   5.093  10.340   3.027 -0.3101 -0.5763 -0.8534
16148SOL    HW155494   5.185  10.319   3.041 -0.1460 -0.1637 -1.2921
16148SOL    HW255495   5.093  10.431   2.997 -1.0060  0.1139  1.0635
16149SOL     OW55496   4.318  12.288   8.572  0.0911  0.2948 -0.1353
16149SOL    HW155497   4.382  12.217   8.564  0.4595  0.8237 -3.1581
16149SOL    HW255498   4.369  12.368   8.562 -0.7456  0.8319 -0.2099
16150SOL     OW55499   5.553  10.186   1.243  0.1044 -0.3684 -0.2850
16150SOL    HW155500   5.549  10.267   1.192 -0.9068  0.0542  0.4371
16150SOL    HW255501   5.629  10.139   1.208  0.8777  1.0203 -0.5183
16151SOL     OW55502  12.365  11.106  11.333 -0.0335  0.6307  0.3143
16151SOL    HW155503  12.445  11.141  11.373  1.5623 -2.3888  0.0918
16151SOL    HW255504  12.363  11.145  11.246  0.8972  1.1765  0.5220
16152SOL     OW55505   9.153   9.497   7.986 -0.4183  0.8267 -0.0325
16152SOL    HW155506   9.160   9.591   7.999  0.5984  0.5283  1.9866
16152SOL    HW255507   9.209   9.479   7.910  1.6093  1.5597  1.2031
16153SOL     OW55508   1.574   4.673   1.500 -0.2383  0.1841  0.6378
16153SOL    HW155509   1.665   4.689   1.522  0.1547  0.6067 -1.1372
16153SOL    HW255510   1.571   4.580   1.476 -0.4281  0.0001  1.3591
16154SOL     OW55511   6.005  10.262   2.549  0.2410  0.4019  0.3829
16154SOL    HW155512   6.097  10.282   2.531 -0.0279  1.1800 -0.1576
16154SOL    HW255513   5.971  10.341   2.590 -0.4234  0.4637 -0.2786
16155SOL     OW55514  10.864   1.389  11.768  0.0523  0.1643 -0.2627
16155SOL    HW155515  10.826   1.350  11.847  1.2065  0.8886  0.6741
16155SOL    HW255516  10.902   1.314  11.720 -1.1995 -0.3627 -0.4797
16156SOL     OW55517   6.036  10.784  11.827  0.1580  0.1069  0.5752
16156SOL    HW155518   6.083  10.798  11.745  0.0008  2.1683  0.8079
16156SOL    HW255519   6.063  10.696  11.855 -0.9250 -1.2797 -2.3979
16157SOL     OW55520  10.494   8.408   8.178  0.3727 -0.8444 -0.2064
16157SOL    HW155521  10.565   8.468   8.201  0.7108 -0.8590 -1.1398
16157SOL    HW255522  10.414   8.458   8.195  0.5950 -0.8305  0.8587
16158SOL     OW55523   8.808   2.630   9.477  0.3400  0.8531  0.2384
16158SOL    HW155524   8.829   2.629   9.571  2.3810  0.6073 -0.1764
16158SOL    HW255525   8.848   2.711   9.445 -1.5777  1.6857 -0.2112
16159SOL     OW55526   3.922  11.442   6.194  0.2726  0.9950  0.2713
16159SOL    HW155527   3.977  11.424   6.118 -1.4914 -0.2607 -0.7791
16159SOL    HW255528   3.860  11.508   6.164 -1.1255 -0.2889  0.2306
16160SOL     OW55529   2.011   9.689  11.588 -0.2279  0.0478  0.6435
16160SOL    HW155530   1.950   9.689  11.514 -1.5955  1.2902  1.7063
16160SOL    HW255531   2.041   9.780  11.593  1.2508 -0.4049  0.5520
16161SOL     OW55532   6.747   3.697  12.277  0.3055  0.1606  0.5355
16161SOL    HW155533   6.652   3.691  12.289  0.2096  0.5722  0.0570
16161SOL    HW255534   6.761   3.788  12.249  0.6945 -0.2446 -0.6423
16162SOL     OW55535  11.186   5.233   5.334 -0.2669 -0.7133  0.2747
16162SOL    HW155536  11.251   5.187   5.281  0.3831  0.4042  0.0643
16162SOL    HW255537  11.180   5.182   5.415  0.7275 -0.9344  0.2163
16163SOL     OW55538   1.416   8.706  12.525 -0.5240  0.3221 -0.1422
16163SOL    HW155539   1.372   8.623  12.507  0.7787 -0.3261 -0.5221
16163SOL    HW255540   1.411   8.716  12.620 -1.0819  0.0423 -0.1376
16164SOL     OW55541  10.635   7.595   5.470  0.7709  0.1045  0.3296
16164SOL    HW155542  10.722   7.636   5.474  0.6170  0.5453 -0.6208
16164SOL    HW255543  10.613   7.594   5.377  0.0634 -0.6684  0.4954
16165SOL     OW55544  11.500  11.312   0.863 -1.0490  0.2497  0.4904
16165SOL    HW155545  11.426  11.354   0.817 -2.6227 -0.5464  2.1568
16165SOL    HW255546  11.465  11.228   0.894  0.9227 -0.6654  0.3865
16166SOL     OW55547   8.543   3.364   2.499 -0.4660  0.4938  0.3697
16166SOL    HW155548   8.481   3.421   2.454 -0.0171  0.5424 -0.1827
16166SOL    HW255549   8.594   3.422   2.555 -0.7449  0.4837  0.6427
16167SOL     OW55550   3.904   8.095  10.799 -0.0264  0.4492  0.2713
16167SOL    HW155551   3.837   8.054  10.854 -0.1253 -2.0046 -1.5126
16167SOL    HW255552   3.987   8.061  10.832 -0.0467 -0.5571 -0.6681
16168SOL     OW55553   1.210   5.245  11.546  0.2636  0.3798 -0.3056
16168SOL    HW155554   1.296   5.265  11.582  0.2127 -1.8756  1.2899
16168SOL    HW255555   1.224   5.238  11.451  2.1269 -1.0242  0.0059
16169SOL     OW55556   0.842   0.293   0.019 -0.0924  0.1077  0.4465
16169SOL    HW155557   0.855   0.325   0.108  1.3286  2.1158 -0.3960
16169SOL    HW255558   0.921   0.320  -0.028 -1.3602  0.2915 -1.7307
16170SOL     OW55559   5.573  10.835   2.881  0.0306 -0.3585  0.5665
16170SOL    HW155560   5.566  10.747   2.843 -1.3906  0.0716 -0.2250
16170SOL    HW255561   5.570  10.894   2.805  0.2317  0.4092  1.1474
16171SOL     OW55562  11.711  12.138   2.791  0.3064  0.4122 -0.0066
16171SOL    HW155563  11.668  12.199   2.850  0.4785 -0.7929  1.4250
16171SOL    HW255564  11.649  12.126   2.719 -0.9113  0.2092  1.0505
16172SOL     OW55565   4.951  10.791   2.656 -0.2667  0.0573  0.0241
16172SOL    HW155566   4.978  10.707   2.693  0.4792  1.0769  1.9077
16172SOL    HW255567   5.033  10.836   2.636 -0.6148  1.0770  0.8219
16173SOL     OW55568  10.963   3.929   5.036 -0.0985  0.5778 -0.7485
16173SOL    HW155569  10.870   3.909   5.039 -0.6316  2.9394  1.4058
16173SOL    HW255570  10.984   3.933   4.942 -2.4985  1.3659 -1.3115
16174SOL     OW55571  10.179   1.498   8.952  0.1834  0.5533  0.0058
16174SOL    HW155572  10.207   1.584   8.921 -0.6781  1.3439  1.3428
16174SOL    HW255573  10.240   1.437   8.910  0.6672  1.7754 -1.1523
16175SOL     OW55574   2.267   1.408   6.227 -0.4396 -0.5236 -0.2247
16175SOL    HW155575   2.354   1.372   6.243  0.2298  1.6055  1.3559
16175SOL    HW255576   2.216   1.380   6.304  0.1995  2.0606  1.2313
16176SOL     OW55577  11.775   1.579   0.505  0.2119 -0.0938  0.0181
16176SOL    HW155578  11.815   1.543   0.585 -0.4299 -0.3232  0.2449
16176SOL    HW255579  11.736   1.503   0.462 -1.6309  0.3769  0.7750
16177SOL     OW55580   3.065   1.453   2.460 -0.3557 -0.5536 -0.0043
16177SOL    HW155581   3.082   1.361   2.437 -3.2440 -1.0571 -0.5593
16177SOL    HW255582   3.030   1.491   2.379  0.1310  0.8536  0.4230
16178SOL     OW55583   2.970   7.598   5.557 -0.2123 -0.4633 -0.2506
16178SOL    HW155584   2.905   7.641   5.612  0.1412 -1.2159  0.7898
16178SOL    HW255585   2.993   7.663   5.491 -1.4241  0.0923 -0.1509
16179SOL     OW55586   1.637   4.535  12.194  0.4833  0.0708  0.0836
16179SOL    HW155587   1.714   4.515  12.142  0.6243  0.2558  0.2196
16179SOL    HW255588   1.667   4.599  12.259  0.9167 -1.9386  1.9822
16180SOL     OW55589   6.763   6.672   2.080  0.2945 -0.0966  0.1512
16180SOL    HW155590   6.781   6.592   2.129 -2.0721 -1.5642 -1.1868
16180SOL    HW255591   6.839   6.682   2.023  1.1428 -0.7274  1.1287
16181SOL     OW55592   6.400   5.930   8.052  0.2181  0.1291  0.0137
16181SOL    HW155593   6.472   5.966   8.103 -0.5914  0.4246  0.9728
16181SOL    HW255594   6.331   5.996   8.057 -0.6768 -0.7994  0.3730
16182SOL     OW55595   2.547   4.480  11.630  0.1011  0.7266 -0.0607
16182SOL    HW155596   2.482   4.529  11.579 -0.0039 -0.9208 -1.5949
16182SOL    HW255597   2.611   4.547  11.657 -1.7785  2.2643  0.8758
16183SOL     OW55598   2.335   2.233   3.856  0.2949 -0.2618  0.0485
16183SOL    HW155599   2.354   2.324   3.880 -0.0080  0.1289 -1.0895
16183SOL    HW255600   2.314   2.190   3.938  1.2361  0.4959  0.7118
16184SOL     OW55601   6.625   2.818   5.471 -0.1365  0.2960  0.5305
16184SOL    HW155602   6.598   2.729   5.494 -0.5251  0.3486  0.2890
16184SOL    HW255603   6.590   2.831   5.382 -0.9952  1.0634  0.9681
16185SOL     OW55604   9.651   4.164  12.566  0.2720 -0.3116  0.3608
16185SOL    HW155605   9.631   4.132  12.654 -1.6497 -2.1343 -0.6444
16185SOL    HW255606   9.634   4.258  12.570  0.3563 -0.3438  1.9533
16186SOL     OW55607   1.292   6.467   5.531 -0.1635  0.2669  0.2183
16186SOL    HW155608   1.267   6.550   5.572  1.7701  1.6777 -1.2886
16186SOL    HW255609   1.366   6.436   5.583 -0.2481  0.0065  0.1824
16187SOL     OW55610   1.212   5.260   9.187 -0.1660  0.1812 -0.0633
16187SOL    HW155611   1.167   5.337   9.152  0.9321  0.4664 -0.9071
16187SOL    HW255612   1.289   5.296   9.231  0.0324 -0.3884  0.0549
16188SOL     OW55613   3.683   1.086   2.634 -0.3709 -0.0971 -0.1054
16188SOL    HW155614   3.623   1.155   2.605 -0.5854 -0.3203 -0.1972
16188SOL    HW255615   3.637   1.045   2.708 -1.0253 -1.2510 -1.1054
16189SOL     OW55616   8.325   9.810   1.129 -0.0471 -0.0851 -0.0131
16189SOL    HW155617   8.382   9.769   1.195 -0.1217  0.2569  0.2677
16189SOL    HW255618   8.249   9.752   1.124  1.2057 -1.7178 -1.9178
16190SOL     OW55619  11.636   4.098   4.569 -0.1311 -0.0598  0.6612
16190SOL    HW155620  11.688   4.059   4.498 -0.1174 -0.2405  0.7689
16190SOL    HW255621  11.660   4.190   4.569 -0.0846 -0.0710  0.4694
16191SOL     OW55622   9.123  11.041   6.084 -0.1118  0.3454  0.0881
16191SOL    HW155623   9.040  10.997   6.069  0.3433 -0.0062 -1.5210
16191SOL    HW255624   9.185  10.970   6.102  0.4931  0.3024 -1.9074
16192SOL     OW55625   4.735   9.434   7.043  0.4286  0.3063 -0.3909
16192SOL    HW155626   4.658   9.429   6.987 -1.2326  0.7033  1.7023
16192SOL    HW255627   4.711   9.384   7.121  2.0249  1.0287  0.6144
16193SOL     OW55628   9.889   4.326   6.938 -0.1549  0.4659 -0.1405
16193SOL    HW155629   9.875   4.387   6.866  0.5106  1.3030  0.4243
16193SOL    HW255630   9.885   4.380   7.016  0.8739 -0.1479  0.3479
16194SOL     OW55631   5.931   0.688   9.417  0.2655  0.6204  0.6122
16194SOL    HW155632   5.965   0.753   9.479 -2.3266  1.9622  0.7727
16194SOL    HW255633   5.894   0.740   9.346 -2.4954 -0.5589  1.0633
16195SOL     OW55634   4.252   5.957   4.229  0.5043  0.7402  0.1419
16195SOL    HW155635   4.325   6.015   4.251  0.2372  1.2920 -0.3900
16195SOL    HW255636   4.275   5.873   4.268  1.0507  1.1217  0.6522
16196SOL     OW55637   1.069   2.674   9.040 -0.2727 -0.6911  0.3812
16196SOL    HW155638   1.134   2.741   9.064 -1.4457  0.0496  1.6264
16196SOL    HW255639   1.048   2.693   8.948  0.7946 -0.5407  0.1592
16197SOL     OW55640   3.617  12.079   3.734 -0.1259  0.1018 -0.2896
16197SOL    HW155641   3.548  12.019   3.705  0.9034 -2.0719  1.5126
16197SOL    HW255642   3.634  12.055   3.825  2.0615  1.5087 -0.2488
16198SOL     OW55643   6.111  12.361  10.289 -0.6581  0.7911 -0.2510
16198SOL    HW155644   6.077  12.394  10.372  0.4941  0.4503  0.3799
16198SOL    HW255645   6.044  12.383  10.225 -1.5012  1.1958  0.7441
16199SOL     OW55646   8.967   9.048   2.329 -0.0148 -0.6911 -0.4676
16199SOL    HW155647   8.903   9.009   2.388 -1.6030  0.3340 -1.4509
16199SOL    HW255648   8.980   8.983   2.261 -1.3532 -0.2498 -1.1810
16200SOL     OW55649  12.493   7.221   8.936 -0.4161 -0.1691 -0.0577
16200SOL    HW155650  12.444   7.192   8.859 -1.7788 -1.3822  1.1963
16200SOL    HW255651  12.440   7.192   9.011  1.3398  0.0711  1.3580
16201SOL     OW55652  10.379   7.878   0.933  0.9561  0.5162  0.0632
16201SOL    HW155653  10.419   7.907   1.015  0.7877  1.2097 -0.0947
16201SOL    HW255654  10.438   7.911   0.865  1.0275  0.0546 -0.1083
16202SOL     OW55655  11.313   9.914   8.438 -0.4233  0.0870 -0.0133
16202SOL    HW155656  11.361   9.991   8.409 -0.0013 -0.4275 -0.6965
16202SOL    HW255657  11.256   9.947   8.508  1.1769  0.6362  1.1025
16203SOL     OW55658   2.198   9.903   7.961  0.7876  0.8672  0.2470
16203SOL    HW155659   2.266   9.927   8.024  2.6088  0.4930 -1.4810
16203SOL    HW255660   2.174   9.813   7.984  0.5178  1.1639  1.1569
16204SOL     OW55661  12.193   9.061  12.218  0.5768 -0.2748 -0.1567
16204SOL    HW155662  12.100   9.082  12.226  0.9245  1.8566 -0.9892
16204SOL    HW255663  12.205   8.982  12.270 -1.6450 -0.4542  0.1555
16205SOL     OW55664   1.698   1.869   8.109 -0.6983 -0.6349  0.0311
16205SOL    HW155665   1.684   1.786   8.064 -0.7575 -0.1027 -0.9613
16205SOL    HW255666   1.790   1.868   8.135 -0.3757 -0.5054 -1.0631
16206SOL     OW55667  11.536   3.951   1.776 -0.3601  0.0270  0.0946
16206SOL    HW155668  11.456   3.899   1.782  0.5992 -1.4604  0.3118
16206SOL    HW255669  11.552   3.979   1.866  1.0923 -2.4216  0.6847
16207SOL     OW55670  11.302   4.945  10.529  0.1947 -0.4194  0.2794
16207SOL    HW155671  11.337   4.873  10.581  2.3842 -1.2278 -2.0903
16207SOL    HW255672  11.261   4.902  10.454 -1.4715  0.7523  0.4617
16208SOL     OW55673   8.179   7.566   4.964  0.4559  0.1922  0.6510
16208SOL    HW155674   8.088   7.585   4.987  0.1329  0.2059 -0.5581
16208SOL    HW255675   8.213   7.516   5.038 -1.0531 -1.2866  0.3985
16209SOL     OW55676   5.128   0.792   0.168 -0.1834  0.1004 -0.1630
16209SOL    HW155677   5.179   0.868   0.140 -0.1969  0.9703  1.9806
16209SOL    HW255678   5.180   0.716   0.140  1.8360  0.9497  1.0856
16210SOL     OW55679   1.170   4.092   1.721  0.3507  0.1731 -0.0549
16210SOL    HW155680   1.184   4.000   1.745  1.8808  0.7250  1.4057
16210SOL    HW255681   1.210   4.100   1.635  3.7151  0.2120  1.3480
16211SOL     OW55682   5.921   5.072   3.267  0.1926 -0.2631 -0.4203
16211SOL    HW155683   5.900   5.048   3.176 -2.5927  0.1692  0.0166
16211SOL    HW255684   5.945   5.164   3.262  2.2541 -0.7753 -0.9439
16212SOL     OW55685   5.286   7.676   4.799 -0.0628 -0.0862 -0.5611
16212SOL    HW155686   5.344   7.627   4.856  0.2491  1.3405  0.3765
16212SOL    HW255687   5.332   7.680   4.715 -0.2422 -1.6288 -0.7688
16213SOL     OW55688   5.622   6.803   4.499 -0.3031  0.3667  0.7062
16213SOL    HW155689   5.707   6.760   4.493 -0.7576 -0.3814 -1.5221
16213SOL    HW255690   5.578   6.761   4.573 -0.1644 -2.0365 -0.4957
16214SOL     OW55691  10.489   7.639   3.429 -0.3653  0.1481 -0.3377
16214SOL    HW155692  10.532   7.723   3.443 -1.2494  1.0601 -2.5840
16214SOL    HW255693  10.416   7.660   3.370 -0.8960 -2.1276 -0.5562
16215SOL     OW55694   5.811   1.785   8.095 -0.2317  0.2656 -0.3436
16215SOL    HW155695   5.793   1.876   8.118  0.8209  0.4498 -0.1834
16215SOL    HW255696   5.896   1.767   8.136 -0.1282 -0.5862 -0.9199
16216SOL     OW55697  12.347   8.226   0.526  0.3720  0.0968  0.0034
16216SOL    HW155698  12.258   8.227   0.491  0.4998  0.2460 -0.3244
16216SOL    HW255699  12.391   8.300   0.483  1.0912 -0.8896 -1.0304
16217SOL     OW55700   3.942   5.877   4.346  0.4628 -0.1558  0.2295
16217SOL    HW155701   3.979   5.841   4.266  0.0256  1.4409 -0.7403
16217SOL    HW255702   4.005   5.852   4.415  0.6962 -1.7882 -0.5263
16218SOL     OW55703   3.954   3.956   0.016 -0.2059 -0.7340  0.0461
16218SOL    HW155704   3.882   3.938   0.077  0.8248 -0.6723  1.3165
16218SOL    HW255705   4.022   3.893   0.040  1.2612  1.0315  0.7727
16219SOL     OW55706   7.426   9.350   9.810  0.4001  0.2158  0.7231
16219SOL    HW155707   7.487   9.414   9.846  0.5019  0.2877  0.4272
16219SOL    HW255708   7.365   9.332   9.881  1.3417 -0.5980  1.3511
16220SOL     OW55709  10.889   5.945   8.050  0.7941 -0.2712 -0.2481
16220SOL    HW155710  10.801   5.962   8.017 -0.0369 -0.6917  1.5864
16220SOL    HW255711  10.886   5.972   8.142  2.5665 -0.3657 -0.1216
16221SOL     OW55712   6.920   2.724  10.967  0.0278 -0.7625  0.0012
16221SOL    HW155713   7.000   2.688  11.006 -0.4844 -0.5319  1.3270
16221SOL    HW255714   6.907   2.807  11.012 -0.3819 -0.2884 -0.9771
16222SOL     OW55715   7.917  11.386   3.179 -0.1561  0.2156  0.3836
16222SOL    HW155716   7.958  11.469   3.156  0.6563 -0.2371  0.1718
16222SOL    HW255717   7.903  11.391   3.274  0.2335  0.4451  0.4283
16223SOL     OW55718   9.607   9.457   6.706 -0.6625 -0.1800 -0.4054
16223SOL    HW155719   9.553   9.514   6.652  0.3371 -0.4832 -1.7546
16223SOL    HW255720   9.692   9.453   6.662 -0.2591 -1.5812  0.4088
16224SOL     OW55721  11.313  12.145  11.372  0.3989 -0.1297  0.0183
16224SOL    HW155722  11.289  12.080  11.438 -0.5991  1.3182  1.1534
16224SOL    HW255723  11.245  12.137  11.305 -0.7981  0.9512  1.0589
16225SOL     OW55724   6.130   6.233   8.601  0.1062 -0.4463  0.0431
16225SOL    HW155725   6.186   6.218   8.525  1.5504  0.2475  0.9427
16225SOL    HW255726   6.169   6.182   8.671 -1.1339 -0.9640  0.3959
16226SOL     OW55727  10.952   1.631   2.164  0.7631  0.6100  0.2200
16226SOL    HW155728  11.037   1.648   2.203  0.3655 -0.5099  1.6462
16226SOL    HW255729  10.892   1.624   2.238 -0.9471  3.0403 -0.7860
16227SOL     OW55730   8.287  10.860   6.480 -0.2990  0.5197 -0.0536
16227SOL    HW155731   8.201  10.818   6.472  0.2678 -0.9152  0.9226
16227SOL    HW255732   8.269  10.945   6.520 -1.3601  0.6948 -0.8719
16228SOL     OW55733  10.741  10.272  10.344 -0.3531  0.3129  0.1127
16228SOL    HW155734  10.812  10.208  10.349 -0.5186  0.1813  0.8152
16228SOL    HW255735  10.732  10.289  10.250  1.1759  0.9709  0.0505
16229SOL     OW55736   9.636  12.145   5.976 -0.4905 -0.5189  0.2993
16229SOL    HW155737   9.683  12.227   5.989 -0.5954 -0.5406  0.8424
16229SOL    HW255738   9.548  12.162   6.011 -0.9152 -0.4536 -0.7601
16230SOL     OW55739   8.444   9.448  10.882  0.8302  0.0533 -0.4424
16230SOL    HW155740   8.484   9.456  10.968 -0.3894 -0.7179  0.2156
16230SOL    HW255741   8.489   9.513  10.828  2.0734  0.0752  0.5912
16231SOL     OW55742   9.958   6.055   5.921  0.1627  0.3247  0.3628
16231SOL    HW155743  10.021   5.984   5.905 -1.7082 -1.1979 -0.6256
16231SOL    HW255744   9.874   6.011   5.932 -1.0903  2.4072 -0.2771
16232SOL     OW55745   3.493   1.764   6.911  0.4481 -0.1282  0.5207
16232SOL    HW155746   3.502   1.793   6.820 -1.6068 -0.6429  0.0920
16232SOL    HW255747   3.506   1.670   6.908 -0.0477 -0.2043  0.6826
16233SOL     OW55748   6.215   2.208   5.689 -0.1998 -0.6855 -0.1878
16233SOL    HW155749   6.135   2.154   5.692 -0.5071 -0.2417 -0.3238
16233SOL    HW255750   6.183   2.298   5.678  0.2769 -0.3628  0.9741
16234SOL     OW55751  10.403   2.572  11.751  0.2669  0.2960  0.1462
16234SOL    HW155752  10.422   2.493  11.801 -1.3060  0.4429  1.0538
16234SOL    HW255753  10.332   2.547  11.692 -0.1514  0.9926  0.3456
16235SOL     OW55754   6.766   7.907   6.244 -0.3300  0.6181 -0.1562
16235SOL    HW155755   6.769   7.916   6.149  1.0722 -0.5856 -0.2571
16235SOL    HW255756   6.672   7.912   6.265 -0.5718  2.1533 -1.4350
16236SOL     OW55757  12.313   9.233   3.447  0.0800 -0.3252  0.3034
16236SOL    HW155758  12.277   9.295   3.384  1.0579 -0.4029 -0.3567
16236SOL    HW255759  12.397   9.271   3.473 -0.7531  0.2189  2.3634
16237SOL     OW55760   2.244   0.426   4.952  0.2109 -0.3770  0.0783
16237SOL    HW155761   2.260   0.345   4.999  0.0540  0.2872  1.3207
16237SOL    HW255762   2.149   0.437   4.955  0.2378 -0.1043 -0.0312
16238SOL     OW55763  11.042  10.482   9.786 -0.1416  0.6045  0.1871
16238SOL    HW155764  11.109  10.417   9.807 -0.0983  0.5749 -0.0467
16238SOL    HW255765  11.038  10.537   9.864  0.2189  0.6605  0.1682
16239SOL     OW55766   0.027   6.264   5.571  0.1592  0.1798 -0.0941
16239SOL    HW155767  -0.052   6.307   5.538 -1.2428 -1.8683  0.3422
16239SOL    HW255768   0.036   6.296   5.661 -1.7505 -1.4166  0.7501
16240SOL     OW55769   7.360   0.999   3.152 -0.0761 -0.2255  0.4239
16240SOL    HW155770   7.318   1.012   3.237 -1.1483  2.5037 -0.4169
16240SOL    HW255771   7.293   1.022   3.088  1.7298  1.3766 -1.0477
16241SOL     OW55772   3.933   3.695   8.988 -0.3454  0.0307 -0.0741
16241SOL    HW155773   3.985   3.619   9.013 -0.2512  0.2908  0.5509
16241SOL    HW255774   3.972   3.725   8.905  0.3667  0.0904  0.2721
16242SOL     OW55775   6.356   9.730   5.455  0.1973 -0.4894  0.1197
16242SOL    HW155776   6.290   9.778   5.405 -0.3814  0.4501  1.7126
16242SOL    HW255777   6.317   9.645   5.472  0.2584 -0.6903 -0.6961
16243SOL     OW55778   6.816   2.002   6.456  0.2876  0.2251  0.2447
16243SOL    HW155779   6.800   1.937   6.387  0.8271 -0.1605  0.4766
16243SOL    HW255780   6.766   1.969   6.531 -0.8847  1.0164 -0.1532
16244SOL     OW55781  10.438   7.252   4.113  0.2607 -0.1543 -0.3946
16244SOL    HW155782  10.388   7.278   4.190  2.2960 -1.9847  1.7310
16244SOL    HW255783  10.523   7.295   4.123  0.8706 -1.1270 -1.0944
16245SOL     OW55784   9.657   5.950   2.328 -0.0365 -0.0767  0.0478
16245SOL    HW155785   9.573   5.905   2.315 -0.9060  0.8238  2.1328
16245SOL    HW255786   9.715   5.910   2.263 -1.6076 -1.9210 -0.3435
16246SOL     OW55787   3.258   0.664   6.847 -0.0672  0.6148  0.0490
16246SOL    HW155788   3.245   0.758   6.864 -0.4461  0.6997 -0.6787
16246SOL    HW255789   3.320   0.661   6.774 -1.7670  0.3760 -1.4672
16247SOL     OW55790   2.734   4.890   2.189 -0.1563  0.0095 -0.0235
16247SOL    HW155791   2.706   4.975   2.153 -1.1978  0.2176  1.2015
16247SOL    HW255792   2.721   4.828   2.117 -3.1706  0.2266  0.2303
16248SOL     OW55793  12.023  11.115   8.957  0.4917 -0.1618 -0.1288
16248SOL    HW155794  12.062  11.170   8.889  2.6885 -2.1937 -0.6129
16248SOL    HW255795  11.969  11.052   8.910  1.2869 -1.0010  0.0695
16249SOL     OW55796   8.719   9.626   4.995  0.4369  0.3877 -0.3604
16249SOL    HW155797   8.812   9.634   4.976  0.5642 -1.2955 -0.6098
16249SOL    HW255798   8.683   9.714   4.979  1.7349  0.7140 -1.6366
16250SOL     OW55799   1.895   3.001   5.943  0.3399  0.7949 -0.3996
16250SOL    HW155800   1.819   3.048   5.908 -2.5386  0.4170  4.3764
16250SOL    HW255801   1.940   3.065   5.997 -0.9228 -0.5854  2.4751
16251SOL     OW55802   0.966   4.835   1.464  0.1901  0.4010  0.2545
16251SOL    HW155803   1.039   4.775   1.450  0.1233  0.7639 -2.1338
16251SOL    HW255804   0.998   4.899   1.526  2.4741  1.3743 -1.7993
16252SOL     OW55805  12.520   7.374   4.984 -0.6170 -0.6180  0.2391
16252SOL    HW155806  12.598   7.326   5.010 -1.6334 -0.9315  2.9183
16252SOL    HW255807  12.449   7.310   4.987 -1.4434  0.2931  0.5981
16253SOL     OW55808   9.220  10.119   6.182 -0.5661  0.6534 -0.1872
16253SOL    HW155809   9.278  10.143   6.110 -0.4386 -0.4593 -0.4868
16253SOL    HW255810   9.220  10.195   6.239  0.1115  1.1906 -0.8681
16254SOL     OW55811   1.105   4.207   0.652 -0.2035 -0.0157 -0.6615
16254SOL    HW155812   1.138   4.121   0.623  0.3664  0.1580 -0.5383
16254SOL    HW255813   1.181   4.250   0.692 -0.6499  0.2905 -0.1309
16255SOL     OW55814   3.084   2.365  11.379  0.0501 -0.0857 -0.2749
16255SOL    HW155815   3.140   2.425  11.428  0.2492  0.1211 -0.7516
16255SOL    HW255816   3.077   2.288  11.435  1.0591 -0.2388 -0.3402
16256SOL     OW55817  11.437   9.534   2.072  0.9179 -0.0754 -0.0641
16256SOL    HW155818  11.415   9.616   2.028  0.9645 -0.5138 -0.9272
16256SOL    HW255819  11.354   9.486   2.078  0.7080  0.4172  1.2937
16257SOL     OW55820   3.615   6.099  12.503 -0.0832 -0.1538 -0.0199
16257SOL    HW155821   3.672   6.021  12.496  1.0324  0.5880  0.4617
16257SOL    HW255822   3.590   6.102  12.595  0.8603  0.7030  0.2272
16258SOL     OW55823   6.024   0.379  10.737  0.2405 -0.2233  0.1539
16258SOL    HW155824   6.094   0.313  10.739  0.0325 -0.4341  0.7988
16258SOL    HW255825   5.944   0.328  10.750 -0.1103 -0.0682 -1.2468
16259SOL     OW55826   2.848  12.067   6.949 -0.1088  0.1738  0.2324
16259SOL    HW155827   2.755  12.049   6.961  0.0021  0.2536  1.3995
16259SOL    HW255828   2.854  12.161   6.936 -0.2057  0.1545  0.0586
16260SOL     OW55829   2.555  11.206   0.760 -0.4324  0.8194 -0.4071
16260SOL    HW155830   2.515  11.200   0.674  0.7477  0.8623 -0.9831
16260SOL    HW255831   2.595  11.293   0.761  2.4282 -0.3584 -1.1655
16261SOL     OW55832   8.251   3.678   3.573  0.4561 -0.1448  0.2021
16261SOL    HW155833   8.219   3.750   3.519 -1.9961 -1.0845  0.3072
16261SOL    HW255834   8.305   3.626   3.513 -0.8417 -0.2515 -0.9119
16262SOL     OW55835   5.350   3.999  11.181  0.3183  0.3712 -0.0579
16262SOL    HW155836   5.347   4.069  11.246  0.6495  1.4936 -1.2027
16262SOL    HW255837   5.396   4.038  11.107  2.4611 -1.7526  0.0671
16263SOL     OW55838   3.057   8.640   4.358 -0.2494 -0.2425  0.1031
16263SOL    HW155839   2.978   8.591   4.336  0.0314  0.4023 -2.6878
16263SOL    HW255840   3.126   8.573   4.362 -0.2000 -0.3856 -1.8675
16264SOL     OW55841   1.906   6.191   9.794  1.0965  0.0066  0.0854
16264SOL    HW155842   1.973   6.142   9.748  1.5408  0.7160 -0.0404
16264SOL    HW255843   1.835   6.128   9.808  1.8607 -0.8078  0.3938
16265SOL     OW55844   6.963   4.444   7.411  0.0645 -0.2863  0.1783
16265SOL    HW155845   6.878   4.451   7.454  1.6000 -0.3310  3.5391
16265SOL    HW255846   6.970   4.352   7.386 -0.0324 -0.8177  1.9704
16266SOL     OW55847   5.782   2.102  11.707 -0.7430 -0.2957 -0.1580
16266SOL    HW155848   5.763   2.108  11.614 -1.7950 -0.7731  0.0144
16266SOL    HW255849   5.873   2.074  11.712 -0.3971  0.6126 -1.0274
16267SOL     OW55850   4.015   8.783   8.216  0.0124 -0.1743  0.1610
16267SOL    HW155851   3.933   8.830   8.203 -1.0535 -0.4131  4.4684
16267SOL    HW255852   4.081   8.852   8.227 -0.6164  0.2380  1.5724
16268SOL     OW55853   9.337   4.637  11.875  0.5815 -0.2547 -0.5510
16268SOL    HW155854   9.336   4.588  11.957 -0.6935  1.4754  0.5350
16268SOL    HW255855   9.427   4.668  11.867  0.4001  0.7466  0.9708
16269SOL     OW55856  12.011   7.099   8.683  0.7310 -0.1329 -0.1238
16269SOL    HW155857  11.928   7.143   8.704  0.2157 -0.9489 -0.4020
16269SOL    HW255858  12.050   7.153   8.614  0.7410  0.6039  0.4438
16270SOL     OW55859   4.606  11.137   4.605  0.1001  0.4878 -0.4652
16270SOL    HW155860   4.614  11.054   4.652 -0.7418  0.3127 -0.6194
16270SOL    HW255861   4.648  11.201   4.663 -0.2621  0.1469  0.1836
16271SOL     OW55862   1.797   1.227  10.820 -0.0720  0.4060  0.3564
16271SOL    HW155863   1.804   1.191  10.731  0.3814 -1.4198  1.0831
16271SOL    HW255864   1.888   1.234  10.850 -0.1823  1.7189  0.4335
16272SOL     OW55865   9.884  11.052  10.038  0.4357  0.4025  0.5256
16272SOL    HW155866   9.854  11.084  10.123  1.8660  1.0364  0.8167
16272SOL    HW255867   9.979  11.044  10.047  0.4819 -0.7460 -0.6184
16273SOL     OW55868  10.119   4.529   6.620  0.2192 -0.0941  0.1552
16273SOL    HW155869  10.175   4.478   6.562 -0.6442 -0.3075 -0.4990
16273SOL    HW255870  10.045   4.472   6.639  0.2931  0.1153  1.1642
16274SOL     OW55871  10.376  10.551  11.627  0.4119  0.2360  0.1691
16274SOL    HW155872  10.327  10.472  11.608 -0.1257  0.4473  0.6563
16274SOL    HW255873  10.355  10.611  11.555 -0.0146  0.3092  0.3507
16275SOL     OW55874  10.061   2.188   0.491 -0.3745 -0.0608 -0.0363
16275SOL    HW155875  10.057   2.113   0.431  0.6845 -2.2603  2.4199
16275SOL    HW255876   9.971   2.197   0.523 -1.1393  1.6688 -2.3931
16276SOL     OW55877   1.587   9.164  10.544  0.0352  0.6667  0.1912
16276SOL    HW155878   1.628   9.123  10.620  0.9153  1.9062  0.4025
16276SOL    HW255879   1.659   9.204  10.496 -0.6128  0.5945 -0.8809
16277SOL     OW55880   6.956   7.692  11.660  0.1028  0.2603  0.4150
16277SOL    HW155881   6.942   7.725  11.749  0.0891  0.0331  0.4981
16277SOL    HW255882   7.051   7.693  11.649  0.1202  0.0234  0.5352
16278SOL     OW55883   1.361  10.958   9.500 -0.2296  0.1954  0.5843
16278SOL    HW155884   1.392  10.919   9.582  0.9361 -1.2945 -0.5110
16278SOL    HW255885   1.268  10.973   9.514 -0.5353 -2.1200  1.4242
16279SOL     OW55886   3.884   5.457  12.008  0.1498  0.4266 -0.0790
16279SOL    HW155887   3.830   5.495  11.938  1.1978  1.6775 -0.2295
16279SOL    HW255888   3.837   5.377  12.033 -1.0849  0.7985 -1.0999
16280SOL     OW55889   7.732   2.012  11.824 -0.2849 -0.3892  0.3713
16280SOL    HW155890   7.760   1.921  11.813  0.4942 -0.2240  0.8771
16280SOL    HW255891   7.713   2.020  11.918  4.3502  1.1674  1.4478
16281SOL     OW55892   9.212  11.071   8.616 -0.5799  0.4958 -0.7080
16281SOL    HW155893   9.246  11.000   8.561  0.9602 -0.9202  1.8293
16281SOL    HW255894   9.142  11.030   8.666  0.2966  0.7198  0.7538
16282SOL     OW55895   9.000  10.767   9.908 -0.1372  0.3589  0.2680
16282SOL    HW155896   9.072  10.825   9.932 -0.4164  0.8873 -0.1668
16282SOL    HW255897   8.956  10.747   9.990  0.8015 -0.3807  0.6183
16283SOL     OW55898  11.886  11.882   3.065  0.6180 -0.0964  0.1020
16283SOL    HW155899  11.851  11.900   2.977  0.4059 -0.9467  0.0018
16283SOL    HW255900  11.923  11.794   3.058 -1.6975 -1.2931  1.4995
16284SOL     OW55901   9.258  11.034   2.515  0.1951  0.4030  0.4085
16284SOL    HW155902   9.318  10.963   2.494  0.9087  1.5682 -1.7654
16284SOL    HW255903   9.185  11.022   2.454 -1.1492 -0.1574  2.0539
16285SOL     OW55904  10.481   8.908  11.342  0.7726  0.3099 -0.8225
16285SOL    HW155905  10.431   8.827  11.331 -0.7222  1.4048 -2.6666
16285SOL    HW255906  10.422   8.965  11.391  1.6229  0.4785  0.0242
16286SOL     OW55907   4.417  11.737   2.463  0.0338  0.0365  0.2818
16286SOL    HW155908   4.500  11.691   2.457 -0.0532 -0.0408 -0.4090
16286SOL    HW255909   4.430  11.802   2.533  0.8494  0.3815 -0.1788
16287SOL     OW55910   4.276   9.657  10.919 -0.2780 -0.4749  0.8014
16287SOL    HW155911   4.328   9.737  10.912 -0.7451 -0.1930  0.4367
16287SOL    HW255912   4.212   9.676  10.988  0.0001 -0.7650  1.1452
16288SOL     OW55913  10.555   6.167   5.011  0.4419  0.1524  0.5774
16288SOL    HW155914  10.558   6.262   5.022 -0.9710  0.1966  0.7458
16288SOL    HW255915  10.636   6.136   5.051  0.3927  1.1978  1.5359
16289SOL     OW55916  10.531   3.439  11.501 -0.0283  0.2761  0.1659
16289SOL    HW155917  10.552   3.529  11.475  1.6429 -0.2791 -0.5074
16289SOL    HW255918  10.452   3.418  11.450 -0.9057  1.5957  0.9198
16290SOL     OW55919   8.848  10.620   5.562  0.3748 -0.0275  0.2208
16290SOL    HW155920   8.908  10.687   5.594  1.1403 -1.5383  2.1844
16290SOL    HW255921   8.851  10.552   5.630 -0.7508 -1.8057 -1.4310
16291SOL     OW55922   5.704   4.284   5.991 -0.3664 -0.4086 -0.1215
16291SOL    HW155923   5.668   4.265   6.077  0.2008 -1.8461 -0.1768
16291SOL    HW255924   5.772   4.218   5.978  0.2297  0.3898 -1.2685
16292SOL     OW55925  11.084   0.050  10.892 -0.7064  0.1763  0.6074
16292SOL    HW155926  11.125  -0.026  10.851 -1.9451 -0.8852  1.2926
16292SOL    HW255927  11.031   0.089  10.822 -0.0166  0.4667  0.2367
16293SOL     OW55928   9.110   5.414   2.451 -0.2727  0.1252  0.1488
16293SOL    HW155929   9.046   5.345   2.433 -0.9875  0.9782 -0.7200
16293SOL    HW255930   9.076   5.458   2.529 -1.6986  1.5941 -1.2119
16294SOL     OW55931   2.882   2.666   1.751  0.2618  0.4547 -0.0395
16294SOL    HW155932   2.860   2.712   1.831  2.0383  1.1381  0.1173
16294SOL    HW255933   2.977   2.650   1.758 -0.0204 -1.9328 -0.7488
16295SOL     OW55934   5.924   0.352   6.558 -0.1425  0.3604 -0.2938
16295SOL    HW155935   5.871   0.321   6.485 -1.8179 -1.4053  1.5438
16295SOL    HW255936   5.882   0.434   6.585 -0.8920 -0.1333  0.0613
16296SOL     OW55937   0.129   9.729   8.600  0.2912 -0.9046  0.2615
16296SOL    HW155938   0.074   9.804   8.622  1.1375  0.5546 -2.2933
16296SOL    HW255939   0.078   9.653   8.630 -1.5486  0.5543  1.0060
16297SOL     OW55940  11.552  11.027   2.594 -0.3641  0.8438  0.6278
16297SOL    HW155941  11.525  11.056   2.507  0.3413  1.2346  0.5355
16297SOL    HW255942  11.469  11.012   2.640 -0.7530  2.0343  0.3546
16298SOL     OW55943   5.433   6.818   1.156 -0.4555 -0.7535 -0.2388
16298SOL    HW155944   5.488   6.812   1.234  0.5613  1.6211 -0.7034
16298SOL    HW255945   5.373   6.890   1.174 -0.4898 -0.4479 -1.4826
16299SOL     OW55946   3.832   9.011   7.637  0.4533  0.4222  0.0197
16299SOL    HW155947   3.885   9.015   7.717 -1.5100 -1.1918  1.4799
16299SOL    HW255948   3.815   8.918   7.623 -2.4869  0.8738  0.0050
16300SOL     OW55949  10.155  11.133   1.619 -0.0505 -0.0860 -0.4726
16300SOL    HW155950  10.230  11.124   1.559 -0.5403 -4.1269 -0.7740
16300SOL    HW255951  10.080  11.104   1.567 -0.9727 -0.8487  1.2182
16301SOL     OW55952   2.414   4.987   9.482  0.4721  0.0542  0.3653
16301SOL    HW155953   2.452   4.941   9.556 -0.8632 -0.0002  1.0483
16301SOL    HW255954   2.322   4.961   9.482  0.1211  1.2048 -0.4172
16302SOL     OW55955   2.022   2.621   8.459 -0.2030  0.3652 -0.0099
16302SOL    HW155956   2.055   2.667   8.536  0.3656  1.2448 -0.7546
16302SOL    HW255957   1.963   2.554   8.494 -1.1949  1.7697  1.1161
16303SOL     OW55958   2.939   1.902   6.507 -0.4720 -0.7903  0.0917
16303SOL    HW155959   2.976   1.814   6.501 -2.4556 -1.6638  0.1222
16303SOL    HW255960   2.970   1.935   6.592  0.6328 -1.2701 -0.1063
16304SOL     OW55961  10.797  11.778   2.095  0.6158 -0.1529 -0.1515
16304SOL    HW155962  10.750  11.706   2.136  0.7562 -0.5210 -0.6381
16304SOL    HW255963  10.815  11.749   2.006 -0.7308  1.1220 -0.8803
16305SOL     OW55964   9.707  11.988   3.802 -0.2324  0.1763 -0.0572
16305SOL    HW155965   9.735  12.046   3.873  1.0731 -0.5554  0.0771
16305SOL    HW255966   9.728  11.900   3.834  1.5089 -0.1150 -1.7756
16306SOL     OW55967   2.168   0.225   8.818  0.1596 -0.2390  0.1759
16306SOL    HW155968   2.099   0.189   8.762 -2.3231  0.1631  2.7296
16306SOL    HW255969   2.198   0.149   8.869 -1.3020  0.2201  1.8247
16307SOL     OW55970   8.377   1.850   7.246 -0.2669  0.1037 -0.6654
16307SOL    HW155971   8.304   1.806   7.290  0.0175 -0.9466 -1.2095
16307SOL    HW255972   8.350   1.855   7.155 -0.5721  1.6797 -0.5039
16308SOL     OW55973   0.818   6.941  10.440 -0.2831  0.0639  0.3873
16308SOL    HW155974   0.798   7.013  10.500  0.7565  1.3912 -0.7922
16308SOL    HW255975   0.910   6.953  10.418 -0.2533 -1.2808 -0.3278
16309SOL     OW55976   6.012   8.902   6.608 -0.2115 -0.4140 -0.2538
16309SOL    HW155977   6.087   8.921   6.551  1.1674  0.7872  1.8291
16309SOL    HW255978   6.027   8.813   6.638  0.8214  0.0488  0.6869
16310SOL     OW55979   6.897   1.946   6.855  0.0777  0.1107  0.4852
16310SOL    HW155980   6.907   2.041   6.854  0.1182  0.1024 -0.1779
16310SOL    HW255981   6.983   1.914   6.883  0.8179  0.1938 -1.5411
16311SOL     OW55982  11.568   9.278   4.152 -0.2054  0.3934  0.4307
16311SOL    HW155983  11.662   9.293   4.155 -0.2313  1.2412 -1.7228
16311SOL    HW255984  11.551   9.215   4.223  1.8295  0.8473  1.3730
16312SOL     OW55985   1.285   2.244   1.675 -0.2249 -0.5330  0.3201
16312SOL    HW155986   1.277   2.249   1.770  0.8704 -2.5922  0.5784
16312SOL    HW255987   1.341   2.168   1.659 -0.2816 -0.1818 -1.9796
16313SOL     OW55988   8.854   9.774   5.919 -0.6152 -0.3718 -0.4902
16313SOL    HW155989   8.798   9.732   5.853  0.3856 -1.8049 -0.4561
16313SOL    HW255990   8.815   9.861   5.930 -1.2659 -0.3631 -2.4029
16314SOL     OW55991   0.132   5.172   7.124  0.3220 -0.0326 -0.5690
16314SOL    HW155992   0.102   5.210   7.042 -1.3554 -1.5829 -0.7489
16314SOL    HW255993   0.214   5.128   7.102  0.0820 -0.1154 -1.3254
16315SOL     OW55994  11.926   9.987   6.672  0.2827 -0.8203  0.0609
16315SOL    HW155995  11.971  10.057   6.625 -0.5498 -0.4508 -0.2121
16315SOL    HW255996  11.972   9.980   6.755  0.4096  0.0151  0.0688
16316SOL     OW55997  10.351   7.238   5.516  0.7135  0.2298 -0.7775
16316SOL    HW155998  10.397   7.236   5.432  2.4112 -1.1914  0.1014
16316SOL    HW255999  10.399   7.302   5.568 -0.3335  1.1096 -0.8720
16317SOL     OW56000   1.407   4.553   2.093  0.8497 -0.6141  0.1269
16317SOL    HW156001   1.471   4.518   2.031  0.0565 -0.5312 -0.7615
16317SOL    HW256002   1.352   4.477   2.115  0.9398 -0.5733  0.4874
16318SOL     OW56003   1.762   7.618  12.062 -0.4604 -0.5426  0.5764
16318SOL    HW156004   1.713   7.698  12.043  1.7982  0.6062 -0.9573
16318SOL    HW256005   1.720   7.551  12.007 -2.4586 -0.5049  1.9786
16319SOL     OW56006  11.048   3.713   1.424  0.4704 -0.0898 -0.1434
16319SOL    HW156007  11.098   3.632   1.420  2.6992  1.2480 -1.3306
16319SOL    HW256008  11.074   3.753   1.507  0.0907 -0.1151 -0.0062
16320SOL     OW56009   5.140   2.555   9.970 -0.0483  0.4132 -0.1531
16320SOL    HW156010   5.224   2.535  10.012 -0.3310 -0.3372  0.0532
16320SOL    HW256011   5.148   2.517   9.882  0.5766  2.0500 -0.8625
16321SOL     OW56012   8.429   2.674   5.718  0.1047  0.2898 -0.0940
16321SOL    HW156013   8.335   2.662   5.701 -0.1854 -0.6771  1.8975
16321SOL    HW256014   8.451   2.755   5.671 -1.1811 -0.5832 -2.3951
16322SOL     OW56015   6.586   3.201   4.306 -0.0910 -0.1584 -0.6105
16322SOL    HW156016   6.520   3.168   4.244 -2.2184 -0.5646  1.7203
16322SOL    HW256017   6.667   3.158   4.279 -0.7988  0.0021 -3.3237
16323SOL     OW56018   2.401   9.404   2.795  0.5868  0.3571 -0.7682
16323SOL    HW156019   2.315   9.363   2.800  0.5704  0.4870  0.2556
16323SOL    HW256020   2.409   9.434   2.705 -0.5413  0.5441 -0.8133
16324SOL     OW56021   7.416   8.680   2.755 -0.2823 -0.1781 -0.9337
16324SOL    HW156022   7.356   8.622   2.802  0.3575 -0.7550 -0.8088
16324SOL    HW256023   7.392   8.768   2.783  1.7048 -0.5552  2.5777
16325SOL     OW56024  11.917   9.163   7.697  0.3416 -0.1713 -0.7431
16325SOL    HW156025  11.863   9.152   7.775  2.4174 -0.5879  0.7186
16325SOL    HW256026  11.881   9.101   7.634  0.2886 -1.8580  0.8600
16326SOL     OW56027   2.741   2.523  11.639 -0.1267 -0.0179  0.2185
16326SOL    HW156028   2.799   2.510  11.563  0.5568 -1.3494  0.9326
16326SOL    HW256029   2.688   2.599  11.615 -0.1938 -0.6151 -1.7623
16327SOL     OW56030   1.811  11.870   7.826 -0.3236 -0.1574  0.0138
16327SOL    HW156031   1.879  11.854   7.761  0.2320  0.3852  0.4434
16327SOL    HW256032   1.858  11.874   7.909 -0.7932  0.7944  0.2590
16328SOL     OW56033   6.486   0.686   8.496 -0.8626 -0.0763 -0.0213
16328SOL    HW156034   6.495   0.775   8.530 -0.9148  0.6398 -1.7699
16328SOL    HW256035   6.574   0.664   8.465 -1.3402  0.3777 -1.8450
16329SOL     OW56036   5.538   3.231   2.473 -0.1623  0.3080  0.3791
16329SOL    HW156037   5.472   3.294   2.502  0.0673  0.6005  0.2735
16329SOL    HW256038   5.522   3.153   2.526 -0.7178  0.3066  0.2210
16330SOL     OW56039   1.337  10.511   4.676 -0.2830 -0.0710 -0.6494
16330SOL    HW156040   1.415  10.558   4.645  0.5552 -0.1217  1.2610
16330SOL    HW256041   1.268  10.576   4.676  0.0803  0.3239 -1.0624
16331SOL     OW56042   6.505   2.220   4.081  0.1495  0.1751 -0.3745
16331SOL    HW156043   6.546   2.134   4.094  0.3624  0.6459  2.8762
16331SOL    HW256044   6.412   2.204   4.099  0.1271  0.5189 -0.1716
16332SOL     OW56045   5.294   3.569   4.050  0.4189 -0.1035  0.3673
16332SOL    HW156046   5.219   3.624   4.071  0.3660 -0.0224 -0.0222
16332SOL    HW256047   5.295   3.502   4.118 -1.0485 -1.1346 -0.5880
16333SOL     OW56048   5.957   8.705   8.714 -0.2774 -0.0729  0.1557
16333SOL    HW156049   5.993   8.621   8.687  0.3671 -0.0273  0.8439
16333SOL    HW256050   5.865   8.700   8.691 -0.1954 -0.8751 -0.0246
16334SOL     OW56051   9.476   3.409   7.604 -0.2117  0.5619 -0.3300
16334SOL    HW156052   9.441   3.360   7.678 -2.5270  1.6239 -0.6276
16334SOL    HW256053   9.438   3.367   7.527 -0.1154  1.1901 -0.7270
16335SOL     OW56054   1.495  11.847   7.258  0.1567 -0.3212 -0.3926
16335SOL    HW156055   1.425  11.792   7.222 -0.6754  1.4588 -1.6273
16335SOL    HW256056   1.451  11.903   7.323  0.6013  0.2321 -0.5646
16336SOL     OW56057   8.538  11.073   1.983  0.3561 -0.2100 -0.4154
16336SOL    HW156058   8.630  11.076   1.956  0.3250  0.7408 -0.4465
16336SOL    HW256059   8.541  11.051   2.076  0.5561 -1.3539 -0.6779
16337SOL     OW56060   8.080   9.268   4.638  0.2376 -0.6161 -0.1064
16337SOL    HW156061   8.082   9.284   4.544 -0.3575 -1.3494 -0.2522
16337SOL    HW256062   8.167   9.294   4.668 -0.4340  2.3110 -0.3775
16338SOL     OW56063  11.156  10.921  10.954 -0.4843 -0.0376 -0.0411
16338SOL    HW156064  11.099  10.964  11.018 -0.3277 -0.4455  0.3810
16338SOL    HW256065  11.096  10.893  10.884 -0.5985  0.7663 -0.2764
16339SOL     OW56066  11.568   5.128   8.599 -0.2326  0.3646 -0.4150
16339SOL    HW156067  11.660   5.125   8.572  0.3773 -0.4394  1.5457
16339SOL    HW256068  11.521   5.154   8.520  1.7578  1.7909 -1.2374
16340SOL     OW56069   9.356   7.330   2.727  0.1472 -0.5897  0.1109
16340SOL    HW156070   9.292   7.261   2.744  1.5325 -1.6518  1.2929
16340SOL    HW256071   9.431   7.284   2.688  1.0363  0.2579  0.7712
16341SOL     OW56072   9.704   3.224   7.441  0.1986  0.1449  0.2413
16341SOL    HW156073   9.719   3.135   7.409  0.1680 -0.0241  0.6970
16341SOL    HW256074   9.614   3.245   7.413  0.1617 -0.0114  0.2416
16342SOL     OW56075   3.997   2.608   3.311 -0.3164  0.6892 -0.1309
16342SOL    HW156076   4.003   2.573   3.222 -2.3931  0.2446 -0.1344
16342SOL    HW256077   3.967   2.534   3.363  1.2501  0.8369  1.0653
16343SOL     OW56078  11.374  11.341   1.214 -0.3856  0.6586  0.1802
16343SOL    HW156079  11.283  11.338   1.185  0.2187 -1.2375 -1.7937
16343SOL    HW256080  11.408  11.423   1.178 -1.0438  0.9094  0.1091
16344SOL     OW56081   9.631   2.005   6.808  0.3678 -0.0392 -0.1536
16344SOL    HW156082   9.592   1.920   6.832 -0.7095 -0.0784 -1.8758
16344SOL    HW256083   9.700   1.982   6.745  1.2739  0.2552  0.7140
16345SOL     OW56084   2.404   7.753   4.387 -0.7470 -0.0634  0.1246
16345SOL    HW156085   2.344   7.680   4.397  0.1908 -0.6748  1.6477
16345SOL    HW256086   2.471   7.722   4.326 -1.7739  0.5152 -1.3420
16346SOL     OW56087   0.249   8.123   2.021  0.0086 -0.0294 -0.2168
16346SOL    HW156088   0.227   8.171   1.941  1.0152 -0.1310 -0.5668
16346SOL    HW256089   0.329   8.164   2.053 -1.0157  0.7783  1.4106
16347SOL     OW56090  10.455   3.335   1.513 -0.2437  0.3753 -0.1168
16347SOL    HW156091  10.473   3.424   1.544 -2.0649  0.1763  1.7535
16347SOL    HW256092  10.359   3.328   1.516 -0.2212 -1.1773 -1.6843
16348SOL     OW56093   5.159   0.100   2.773  0.1894 -0.2216  0.1944
16348SOL    HW156094   5.166   0.188   2.734 -0.1716 -0.1868  0.2086
16348SOL    HW256095   5.235   0.094   2.830 -1.3350  1.2703  2.5526
16349SOL     OW56096  11.413   7.399   9.236 -0.1806 -0.2845 -0.0917
16349SOL    HW156097  11.342   7.377   9.297 -0.8584  1.2662 -0.2686
16349SOL    HW256098  11.468   7.320   9.233 -1.4336 -1.2276  0.6932
16350SOL     OW56099   6.395  12.270   8.654  0.1756 -0.1400 -0.2588
16350SOL    HW156100   6.467  12.263   8.591  0.2231 -1.2107 -0.1016
16350SOL    HW256101   6.429  12.329   8.722  0.2254  0.8034 -1.0704
16351SOL     OW56102  12.406   6.647   3.970  0.4381  0.2484 -0.1861
16351SOL    HW156103  12.337   6.684   4.025 -1.1800 -0.1705 -1.8216
16351SOL    HW256104  12.440   6.573   4.022 -0.9806 -0.0970  0.3047
16352SOL     OW56105   9.613   9.444   9.795 -0.0025  0.2926  0.2418
16352SOL    HW156106   9.615   9.462   9.701  2.5800  0.9754  0.3463
16352SOL    HW256107   9.642   9.353   9.803  1.5753  0.7815  0.4191
16353SOL     OW56108   1.340   5.501   5.568  0.0020  0.2627 -0.3979
16353SOL    HW156109   1.309   5.476   5.656 -0.3716 -0.4926 -0.7269
16353SOL    HW256110   1.320   5.594   5.561  2.0684  0.8789  1.1453
16354SOL     OW56111   5.731   1.256   1.191 -0.5068 -0.0388 -0.1791
16354SOL    HW156112   5.668   1.210   1.137  1.1334  0.0462 -2.2843
16354SOL    HW256113   5.706   1.348   1.186 -1.5098 -0.2284  0.8800
16355SOL     OW56114   5.657  12.383   6.331  0.3261 -0.6747  0.5906
16355SOL    HW156115   5.751  12.379   6.312  0.4911  0.8524  0.9212
16355SOL    HW256116   5.619  12.308   6.285  1.7037 -1.3065  0.4482
16356SOL     OW56117   3.404   5.340   3.514  0.4559 -0.2261  0.7134
16356SOL    HW156118   3.422   5.418   3.462 -0.6771 -0.8183 -0.6424
16356SOL    HW256119   3.308   5.335   3.517  0.5101 -1.1377  1.4514
16357SOL     OW56120   3.223   4.725   7.479  0.4957 -0.0031  0.2563
16357SOL    HW156121   3.154   4.752   7.419  1.6448  1.7066 -0.3958
16357SOL    HW256122   3.191   4.749   7.566 -0.2605 -0.4713  0.1183
16358SOL     OW56123  11.024   4.880  10.594  0.4434 -0.2003  0.5955
16358SOL    HW156124  10.986   4.816  10.655  0.6392  0.7663  1.7793
16358SOL    HW256125  11.108   4.904  10.634  0.5024  0.5700  0.0304
16359SOL     OW56126  11.567   0.584   9.560 -0.5353 -0.3596  0.2301
16359SOL    HW156127  11.543   0.656   9.501 -1.2726 -0.1520  0.7690
16359SOL    HW256128  11.485   0.536   9.574 -0.2445 -0.7449  0.6300
16360SOL     OW56129   6.260   7.646   0.319 -0.4238  0.1340 -0.1678
16360SOL    HW156130   6.347   7.607   0.318 -0.0135  0.7387  2.4894
16360SOL    HW256131   6.264   7.716   0.254  0.2117 -1.4293 -1.8704
16361SOL     OW56132   3.943   6.916   3.417 -0.4071 -0.5460 -0.1544
16361SOL    HW156133   4.026   6.871   3.427  0.1240  0.3597 -0.3911
16361SOL    HW256134   3.963   6.994   3.365 -0.8088  1.2966  2.2719
16362SOL     OW56135   8.986   5.412   8.023 -0.0250 -0.0171  0.1884
16362SOL    HW156136   9.060   5.367   7.983 -0.6526 -0.7937 -0.1016
16362SOL    HW256137   9.025   5.491   8.061  1.0985 -0.8137  0.7613
16363SOL     OW56138   1.578   2.498   3.646 -0.2592 -0.2243 -0.0942
16363SOL    HW156139   1.554   2.586   3.618  0.2855  0.0868  0.3865
16363SOL    HW256140   1.628   2.462   3.572  2.0925  0.9806  0.7946
16364SOL     OW56141   2.452   4.179  12.033  0.5989 -0.2422  0.1288
16364SOL    HW156142   2.361   4.194  12.057  0.2750  0.6529 -1.5023
16364SOL    HW256143   2.493   4.146  12.113 -0.5748  1.7388  1.6477
16365SOL     OW56144  11.153  10.495   0.679 -0.1253  0.7671  0.1638
16365SOL    HW156145  11.110  10.421   0.721 -0.5160  2.0325  2.1086
16365SOL    HW256146  11.245  10.469   0.673 -0.2465  0.1362  0.8656
16366SOL     OW56147   0.581   8.551   7.719  0.0685  0.1534  0.4868
16366SOL    HW156148   0.564   8.498   7.641  0.4358  1.6515 -0.6634
16366SOL    HW256149   0.625   8.630   7.685 -0.6183  1.2783  2.0944
16367SOL     OW56150   2.701   5.191   9.309  0.1613 -0.7051  0.1679
16367SOL    HW156151   2.745   5.271   9.340 -0.2357 -0.1328 -0.6989
16367SOL    HW256152   2.627   5.180   9.367 -1.4550  1.2102 -1.3927
16368SOL     OW56153   9.983  10.393   6.044  0.7152 -0.1371 -0.0703
16368SOL    HW156154  10.049  10.401   6.114  0.0688 -1.3225  0.6972
16368SOL    HW256155   9.957  10.301   6.046  1.1226 -0.3458 -2.3060
16369SOL     OW56156   8.074   5.371   6.624  0.4553 -0.0099 -0.3172
16369SOL    HW156157   8.033   5.285   6.625  1.6444 -0.6015 -0.7283
16369SOL    HW256158   8.071   5.399   6.533 -0.9557  0.9351 -0.0300
16370SOL     OW56159   9.212   1.039   2.273 -0.2601 -0.0667  0.2500
16370SOL    HW156160   9.193   1.083   2.190 -0.2063 -1.6405 -0.6426
16370SOL    HW256161   9.299   1.069   2.297 -0.3020  0.4479 -0.2260
16371SOL     OW56162   0.263   5.269   1.524 -0.1495 -0.1706 -0.3009
16371SOL    HW156163   0.338   5.284   1.582 -0.2463 -3.2669  0.8172
16371SOL    HW256164   0.299   5.279   1.435  1.0392  0.5032  0.2337
16372SOL     OW56165   0.104   0.487   8.960 -0.2436 -0.0184 -0.1269
16372SOL    HW156166   0.071   0.576   8.966  0.1599  0.0568  1.1504
16372SOL    HW256167   0.199   0.495   8.972 -0.2941 -0.6873  0.8959
16373SOL     OW56168   9.775  11.823   0.096 -0.7473  0.5319  0.4384
16373SOL    HW156169   9.734  11.893   0.146 -1.4016  1.3773 -1.2034
16373SOL    HW256170   9.856  11.862   0.062 -0.2688 -0.0567  0.8800
16374SOL     OW56171  10.214   4.992   5.908 -0.3158  0.3478  0.2821
16374SOL    HW156172  10.246   5.014   5.821  1.1367 -1.0336  0.4019
16374SOL    HW256173  10.246   4.902   5.923  0.3169  0.8832  2.5821
16375SOL     OW56174  12.424   5.540   8.853 -0.2677  0.0336 -0.5317
16375SOL    HW156175  12.413   5.501   8.767  0.7127 -1.0001 -0.2024
16375SOL    HW256176  12.497   5.493   8.892 -0.5497  0.6367  0.7806
16376SOL     OW56177   8.189   2.619   5.643 -0.2369  0.0883 -0.1498
16376SOL    HW156178   8.193   2.590   5.552 -0.1564  0.7534 -0.3612
16376SOL    HW256179   8.097   2.610   5.667 -0.1812 -0.5206 -0.1487
16377SOL     OW56180  11.166   7.957   0.216 -0.6475  0.1623  0.4281
16377SOL    HW156181  11.113   7.955   0.296 -0.4569 -0.9225  0.5315
16377SOL    HW256182  11.141   8.039   0.173  0.1790  1.4254  2.2283
16378SOL     OW56183   3.258   6.902   4.933  0.3120  0.0848 -0.9116
16378SOL    HW156184   3.313   6.866   4.863  1.9024  0.7725 -0.0927
16378SOL    HW256185   3.282   6.852   5.011  4.0358  3.7505  0.7216
16379SOL     OW56186   9.964   6.388   4.369 -0.5111  0.1229  0.1962
16379SOL    HW156187  10.005   6.302   4.364 -0.4085  0.1180  1.0140
16379SOL    HW256188   9.903   6.382   4.443 -1.5960  0.3034 -0.6450
16380SOL     OW56189  10.987   3.440   5.283  0.0347 -0.4610 -0.3205
16380SOL    HW156190  11.005   3.488   5.203  0.4108  0.1301  0.1097
16380SOL    HW256191  10.906   3.480   5.317  0.1013 -0.4287 -0.1964
16381SOL     OW56192   4.872   0.481   8.179  0.1110  0.8406  0.6026
16381SOL    HW156193   4.898   0.412   8.239  2.6379 -1.1004 -2.4024
16381SOL    HW256194   4.777   0.485   8.186 -0.0452 -2.2936  1.6058
16382SOL     OW56195   2.333   0.220   3.684  0.1330  0.2406 -0.0752
16382SOL    HW156196   2.252   0.173   3.704  0.3941  0.5300  1.7515
16382SOL    HW256197   2.329   0.234   3.589 -2.1267  0.5886  0.0181
16383SOL     OW56198  10.107  10.602   5.910  0.8247  0.0903 -0.0140
16383SOL    HW156199  10.132  10.653   5.986  0.2533 -1.5184  1.3236
16383SOL    HW256200  10.069  10.521   5.946 -0.6515 -0.1865 -1.9736
16384SOL     OW56201  10.989   7.170   7.698  0.3593  0.0773 -0.0293
16384SOL    HW156202  11.078   7.161   7.732  0.5748 -0.5471 -0.7447
16384SOL    HW256203  10.952   7.243   7.749  1.5348  0.8872 -0.2793
16385SOL     OW56204   3.554   1.802   1.603  0.3472 -0.4784  0.9984
16385SOL    HW156205   3.521   1.892   1.591  0.1270 -0.2786  2.8304
16385SOL    HW256206   3.615   1.790   1.531  1.6101  1.7518  1.5801
16386SOL     OW56207   8.880   2.639   6.379 -0.2919 -0.4582 -0.1264
16386SOL    HW156208   8.891   2.733   6.390  0.4420 -0.4835 -0.5329
16386SOL    HW256209   8.886   2.603   6.467  2.7176 -0.4128 -0.2073
16387SOL     OW56210   7.170   5.414  11.082 -0.1668 -0.0888  0.2740
16387SOL    HW156211   7.089   5.363  11.083 -0.3850  0.2461 -0.1075
16387SOL    HW256212   7.204   5.406  11.171 -1.0442  0.4418  0.6730
16388SOL     OW56213   0.083   1.283   1.119 -0.0622 -0.3083  0.0761
16388SOL    HW156214   0.174   1.284   1.148  0.3237 -0.2047 -1.1192
16388SOL    HW256215   0.071   1.366   1.072 -0.2023 -1.1641 -1.4632
16389SOL     OW56216   8.588   2.352   8.570  0.2029 -0.1833 -0.0330
16389SOL    HW156217   8.504   2.356   8.616  0.3448  0.7009  0.1675
16389SOL    HW256218   8.564   2.337   8.479 -0.0856 -1.8591  0.2762
16390SOL     OW56219   7.472   5.860   9.897  0.1736 -0.3618  0.1098
16390SOL    HW156220   7.567   5.864   9.911 -0.0308 -0.4253  1.5747
16390SOL    HW256221   7.434   5.905   9.972 -0.9197  1.5000 -1.4717
16391SOL     OW56222   9.131   4.189   2.057  0.4643  0.0682 -0.5739
16391SOL    HW156223   9.136   4.104   2.012 -0.2184 -0.1605 -0.2288
16391SOL    HW256224   9.204   4.186   2.119  1.4899  0.4326 -1.7051
16392SOL     OW56225   0.300   0.689   7.117  0.5337 -0.1428 -0.1520
16392SOL    HW156226   0.303   0.782   7.094  0.1375 -0.0930 -0.0099
16392SOL    HW256227   0.242   0.651   7.051  0.9097 -0.3411 -0.3733
16393SOL     OW56228  10.415   4.076   4.529  0.5350  0.2000 -0.1897
16393SOL    HW156229  10.327   4.059   4.561  0.4346  2.2278  0.7822
16393SOL    HW256230  10.410   4.059   4.435 -0.2790 -1.8170  0.1792
16394SOL     OW56231   0.123   9.246   9.946 -0.3595 -0.0772 -0.4138
16394SOL    HW156232   0.216   9.258   9.963 -0.4713  0.3203 -0.0469
16394SOL    HW256233   0.084   9.232  10.032 -0.7287  0.4575 -0.4849
16395SOL     OW56234   7.238   9.727   2.275  0.9370 -1.3361  0.2801
16395SOL    HW156235   7.332   9.715   2.286  1.1732 -1.1356 -1.3585
16395SOL    HW256236   7.220   9.813   2.315  1.2367 -1.8669  1.5885
16396SOL     OW56237   1.333   2.616   4.395 -0.3449  0.2162 -0.0982
16396SOL    HW156238   1.355   2.708   4.404 -0.6027  0.3529 -0.7930
16396SOL    HW256239   1.382   2.572   4.465  0.1923  0.8086 -0.0947
16397SOL     OW56240   4.950   2.201   5.531  0.3660 -0.0925 -0.3073
16397SOL    HW156241   4.955   2.295   5.518  0.0343 -0.0587 -0.2039
16397SOL    HW256242   5.039   2.175   5.556  0.1564  0.4215  1.0923
16398SOL     OW56243   1.134   6.647   6.181  0.7482 -0.4879  0.2377
16398SOL    HW156244   1.197   6.690   6.238  0.3373  2.3354 -1.2580
16398SOL    HW256245   1.056   6.636   6.236  1.4748 -1.0381  1.1783
16399SOL     OW56246   0.065   8.174   9.308 -0.2772 -0.1702  0.3771
16399SOL    HW156247   0.130   8.199   9.374 -1.4631  1.9409  0.8440
16399SOL    HW256248  -0.017   8.214   9.338 -0.9584  0.4802 -2.1230
16400SOL     OW56249   5.914  12.404   6.235  0.3492  0.1039 -0.8789
16400SOL    HW156250   5.993  12.375   6.191  2.3915  0.1749  2.4410
16400SOL    HW256251   5.930  12.497   6.255 -0.8399  0.2896 -0.6823
16401SOL     OW56252   3.544   9.493   6.762 -0.3557 -0.1171 -0.3514
16401SOL    HW156253   3.582   9.578   6.742 -0.6880  0.3437  0.8593
16401SOL    HW256254   3.459   9.493   6.719  0.0306 -0.2166 -1.1233
16402SOL     OW56255   5.449  12.238   0.331  0.1217 -0.1634  0.2791
16402SOL    HW156256   5.459  12.193   0.247  0.1527 -1.0583  0.7522
16402SOL    HW256257   5.394  12.181   0.384  0.8702 -0.0790  1.1956
16403SOL     OW56258   9.903   2.335  11.095 -0.0871  0.3588  0.5020
16403SOL    HW156259   9.973   2.392  11.065  0.6570 -1.1010 -0.6669
16403SOL    HW256260   9.836   2.341  11.026 -0.0375 -0.0879  0.4076
16404SOL     OW56261   2.116   6.996   5.293 -0.2145 -0.2705  0.8843
16404SOL    HW156262   2.051   6.972   5.360 -1.0038 -0.6588  0.0184
16404SOL    HW256263   2.105   7.090   5.281 -0.1667 -0.2240  1.2118
16405SOL     OW56264   3.046   7.574   5.017  0.0019  0.2830 -0.2653
16405SOL    HW156265   3.046   7.516   5.093 -0.4837 -0.1058 -0.5571
16405SOL    HW256266   3.107   7.533   4.956 -0.3693  0.0512 -0.4867
16406SOL     OW56267  11.347   0.873   0.112 -0.4921  0.3586 -0.3997
16406SOL    HW156268  11.407   0.813   0.069 -0.8888  0.0293 -0.4967
16406SOL    HW256269  11.260   0.835   0.098 -0.7242  0.8321 -0.2656
16407SOL     OW56270   2.500   8.916  11.548 -0.0367  0.5828  0.6968
16407SOL    HW156271   2.414   8.919  11.505  0.4771 -1.3306 -0.5685
16407SOL    HW256272   2.483   8.948  11.637 -1.9657  0.6838  0.3349
16408SOL     OW56273   9.176   5.398  10.255  0.4728 -0.2632 -0.0042
16408SOL    HW156274   9.153   5.410  10.347  1.4077 -1.4243  0.4110
16408SOL    HW256275   9.161   5.484  10.215  0.7334  0.4656  1.3864
16409SOL     OW56276  10.714   8.895   4.894  0.0579  0.4243 -0.1889
16409SOL    HW156277  10.803   8.930   4.893  0.8659 -1.4757 -2.0043
16409SOL    HW256278  10.698   8.868   4.803 -1.8286 -0.5870  0.3964
16410SOL     OW56279   1.300   6.784   8.282  0.2637  0.4135  0.1823
16410SOL    HW156280   1.242   6.793   8.206  0.6223  0.4630 -0.0907
16410SOL    HW256281   1.385   6.812   8.250  0.4586  0.2540  0.5554
16411SOL     OW56282   3.262   5.022   7.519  0.4299 -0.3772  0.2091
16411SOL    HW156283   3.276   5.041   7.426 -0.6437 -1.6160 -0.2382
16411SOL    HW256284   3.349   5.001   7.553  0.7659 -0.3336 -0.6116
16412SOL     OW56285   0.539   6.311   4.447 -0.2453 -0.4893  0.2534
16412SOL    HW156286   0.550   6.362   4.528  0.1210 -0.2937  0.0840
16412SOL    HW256287   0.628   6.290   4.420 -0.2722  0.7168 -0.8889
16413SOL     OW56288   2.811   1.061   0.328 -0.1612  0.0314 -0.4801
16413SOL    HW156289   2.788   1.080   0.237 -5.1347 -1.7108  0.1370
16413SOL    HW256290   2.762   1.125   0.379 -1.0556 -1.7879  1.0318
16414SOL     OW56291   1.603   6.522  12.111  0.2338  0.4007 -0.6882
16414SOL    HW156292   1.606   6.474  12.028 -2.2352 -1.9911  0.4511
16414SOL    HW256293   1.610   6.454  12.178 -0.5079  1.9656  1.0600
16415SOL     OW56294   0.438   7.993   2.564 -0.5932 -0.3355  0.3900
16415SOL    HW156295   0.403   7.987   2.475  1.0174 -0.8454 -0.2470
16415SOL    HW256296   0.364   8.019   2.617 -1.1139  2.4087 -1.4595
16416SOL     OW56297   1.904   3.104   4.509 -0.2029 -0.2439  0.0329
16416SOL    HW156298   1.888   3.134   4.599 -0.8036  1.1026 -0.4927
16416SOL    HW256299   1.996   3.079   4.508  0.7670  2.8853  0.2365
16417SOL     OW56300   0.379   9.007   1.611 -0.0909  0.7472 -0.2317
16417SOL    HW156301   0.338   8.936   1.562  1.4582 -0.8150  0.6253
16417SOL    HW256302   0.430   9.055   1.546 -0.4224  0.4960 -0.6755
16418SOL     OW56303  10.734   3.768   1.447  0.7158  0.1321 -0.1006
16418SOL    HW156304  10.821   3.731   1.432 -0.0037 -1.2541 -1.0282
16418SOL    HW256305  10.677   3.719   1.389 -1.1425 -0.8092  2.3692
16419SOL     OW56306  12.378   8.411   1.741  0.1460  0.5519 -0.2309
16419SOL    HW156307  12.446   8.369   1.689  0.3170 -0.4535  0.7677
16419SOL    HW256308  12.392   8.505   1.728  0.7280  0.3346 -1.2763
16420SOL     OW56309   9.472   8.618  10.132 -0.9366 -0.2271  0.6566
16420SOL    HW156310   9.427   8.679  10.073  0.3656  0.2686  0.1396
16420SOL    HW256311   9.558   8.658  10.147  0.6868 -2.7447 -1.1378
16421SOL     OW56312  10.055   0.993  11.839  0.2877  0.4531  0.3072
16421SOL    HW156313  10.078   1.082  11.863  1.3950  0.2955 -0.1300
16421SOL    HW256314  10.057   0.944  11.921  1.1454  0.5254  0.3330
16422SOL     OW56315   1.436   9.531   3.944 -0.4269  0.1674  0.1678
16422SOL    HW156316   1.488   9.604   3.909 -0.0712  0.4562  1.2529
16422SOL    HW256317   1.408   9.562   4.030 -2.1923 -0.0857 -0.2872
16423SOL     OW56318   8.945   4.930   7.764  0.7528  0.4009 -0.0845
16423SOL    HW156319   9.001   4.852   7.756 -0.6551 -0.8355  1.3039
16423SOL    HW256320   8.934   4.940   7.859  1.2444  2.5980 -0.2133
16424SOL     OW56321  11.502   4.832   5.514 -0.5324 -0.1500  0.5161
16424SOL    HW156322  11.561   4.854   5.586  1.4819 -0.3879 -0.9970
16424SOL    HW256323  11.480   4.740   5.527 -0.6852 -0.0322  1.1345
16425SOL     OW56324   4.965   7.625  12.127 -0.1112  0.5499 -0.0820
16425SOL    HW156325   4.964   7.535  12.159  0.9535  0.0834 -1.2527
16425SOL    HW256326   4.990   7.678  12.203  0.9103 -0.3456  0.2275
16426SOL     OW56327   9.494   5.490   7.995 -0.3224  0.5129  0.2892
16426SOL    HW156328   9.512   5.405   7.956 -0.0877  0.5589  0.2956
16426SOL    HW256329   9.463   5.544   7.923  2.4406  1.3478 -0.4214
16427SOL     OW56330   8.481  11.635   7.329 -0.2063  0.2541 -0.1122
16427SOL    HW156331   8.539  11.618   7.256  1.1239 -0.5163  1.0703
16427SOL    HW256332   8.425  11.558   7.335  0.0275  0.0946 -0.0025
16428SOL     OW56333   1.167   4.209   1.193  0.0804  0.0245  0.0103
16428SOL    HW156334   1.166   4.125   1.147 -1.3182 -0.5646  1.0292
16428SOL    HW256335   1.146   4.273   1.125  1.1915 -0.4291 -0.7889
16429SOL     OW56336   6.353   8.736   9.368 -0.2702 -0.2207  0.0729
16429SOL    HW156337   6.301   8.657   9.353 -0.1397 -0.3756  0.4123
16429SOL    HW256338   6.440   8.713   9.335 -0.0789 -0.4319  0.7041
16430SOL     OW56339   8.194   0.966   6.193 -0.3345 -0.4193 -0.3950
16430SOL    HW156340   8.159   0.940   6.278 -0.4964 -2.1191 -0.9285
16430SOL    HW256341   8.228   1.054   6.206  0.3795 -0.9491  1.6326
16431SOL     OW56342   3.194  12.574   4.705 -0.5983 -0.2268  0.2311
16431SOL    HW156343   3.156  12.626   4.775  0.6788  0.8186  0.1979
16431SOL    HW256344   3.194  12.484   4.738 -1.1967  0.0522  1.0253
16432SOL     OW56345   3.023   0.655   5.665  0.0136  0.0157 -0.8426
16432SOL    HW156346   2.950   0.675   5.723  0.3769  0.4171 -0.5111
16432SOL    HW256347   3.060   0.574   5.699  0.0637  0.1109 -0.6651
16433SOL     OW56348   2.206   5.307   2.934 -0.2205 -0.0342  0.3684
16433SOL    HW156349   2.246   5.365   2.869 -1.3811  0.2329 -0.1278
16433SOL    HW256350   2.216   5.353   3.017 -0.2321  0.4107  0.1274
16434SOL     OW56351   9.088   6.757   7.554  0.2593  1.1383 -0.7167
16434SOL    HW156352   9.173   6.738   7.593 -1.7813  1.0515  4.4573
16434SOL    HW256353   9.042   6.674   7.556 -0.7387  1.6656 -1.1183
16435SOL     OW56354   2.745   2.241   3.009 -0.5628 -0.6928  0.2735
16435SOL    HW156355   2.728   2.168   3.068 -0.3606  0.3224  1.6079
16435SOL    HW256356   2.787   2.308   3.063 -0.7248  0.4173 -0.9207
16436SOL     OW56357   8.999   6.905   3.443 -0.0895 -0.3629  0.2785
16436SOL    HW156358   9.022   6.981   3.497  0.2800 -0.3253  0.0762
16436SOL    HW256359   8.978   6.836   3.506  0.2343 -0.2881  0.4699
16437SOL     OW56360   2.739   3.621   3.746  0.2082  0.0352 -0.2165
16437SOL    HW156361   2.747   3.535   3.705 -0.2876 -0.8809  1.5500
16437SOL    HW256362   2.654   3.620   3.789  0.5647  1.0950  0.5469
16438SOL     OW56363   9.221   7.262   7.748  0.4932 -0.1209  0.2662
16438SOL    HW156364   9.248   7.219   7.667  0.6454 -0.6749  0.6057
16438SOL    HW256365   9.199   7.352   7.722  3.2716  0.5967  0.0495
16439SOL     OW56366   2.626  10.180  11.382 -0.2781  0.5209  0.3025
16439SOL    HW156367   2.653  10.267  11.411 -0.3564  0.5025  0.4309
16439SOL    HW256368   2.568  10.197  11.307  0.0021  0.5642  0.0916
16440SOL     OW56369   9.366   4.235   8.928  0.0356 -0.3225  0.0207
16440SOL    HW156370   9.285   4.186   8.944  0.3956 -0.2625  2.3424
16440SOL    HW256371   9.435   4.180   8.963  0.6570  0.9581  0.8900
16441SOL     OW56372   4.493   0.840   6.217 -0.1607  0.1343  0.4926
16441SOL    HW156373   4.427   0.909   6.229 -1.0099 -0.5294 -0.2381
16441SOL    HW256374   4.516   0.813   6.306 -0.7067  0.5396  0.7641
16442SOL     OW56375   0.794   1.204   5.081 -0.2075 -0.3442  0.1282
16442SOL    HW156376   0.749   1.282   5.050 -1.3558 -0.7916  0.6135
16442SOL    HW256377   0.882   1.210   5.043  0.1539  1.7869  1.1229
16443SOL     OW56378   0.185   7.417   8.525  0.4569  0.3496 -0.4803
16443SOL    HW156379   0.157   7.481   8.591 -0.3872 -0.3041 -0.1881
16443SOL    HW256380   0.200   7.337   8.574 -0.8718 -0.3508 -1.1406
16444SOL     OW56381   8.760  11.216   7.046 -0.5720  0.1955  0.4478
16444SOL    HW156382   8.816  11.289   7.072  0.9766 -0.2683 -1.3331
16444SOL    HW256383   8.787  11.144   7.103  1.7218 -0.4044 -1.2567
16445SOL     OW56384   1.081   1.193   3.498 -0.2962 -0.0767  0.1096
16445SOL    HW156385   1.022   1.132   3.452 -0.9506  0.1775  0.5900
16445SOL    HW256386   1.022   1.260   3.533  0.4496  1.0443 -0.7305
16446SOL     OW56387  10.632  12.349   8.683  0.1485 -0.4969  0.6646
16446SOL    HW156388  10.537  12.343   8.698  0.0772  0.2348  0.5505
16446SOL    HW256389  10.664  12.260   8.698 -0.4688 -0.6165  1.3315
16447SOL     OW56390   1.623   1.717   1.413  0.1801 -0.1142 -0.3719
16447SOL    HW156391   1.593   1.655   1.346  1.9903 -1.3440 -0.1215
16447SOL    HW256392   1.559   1.709   1.484 -1.0914  0.3277 -1.4131
16448SOL     OW56393  11.552   3.186   5.973  0.2407 -0.0918 -0.1483
16448SOL    HW156394  11.542   3.106   5.921  0.9234 -2.0142  2.5018
16448SOL    HW256395  11.626   3.169   6.030 -0.7007  1.7311  1.7498
16449SOL     OW56396   4.448   3.176   5.606  0.0369  0.0981 -0.0849
16449SOL    HW156397   4.490   3.255   5.640 -0.4545  0.5165 -0.4391
16449SOL    HW256398   4.435   3.193   5.512 -0.3561 -0.2697 -0.1048
16450SOL     OW56399   5.305   4.623   4.395 -0.2593 -0.0534  0.2966
16450SOL    HW156400   5.361   4.680   4.342 -0.9260  0.7755  0.4713
16450SOL    HW256401   5.311   4.659   4.483  0.5127 -1.1776  0.7322
16451SOL     OW56402   4.475   5.313  10.185  0.7969 -0.0051  0.4214
16451SOL    HW156403   4.513   5.249  10.125  0.1450  0.6129 -0.6820
16451SOL    HW256404   4.517   5.396  10.161 -0.6549  0.5526 -0.3160
16452SOL     OW56405   3.351   3.432  10.750 -0.3882 -0.5154 -0.1911
16452SOL    HW156406   3.381   3.350  10.713 -0.2088 -1.2573  1.4875
16452SOL    HW256407   3.258   3.418  10.770 -0.2595 -0.4575  0.4673
16453SOL     OW56408   8.338   6.195   9.114  0.1748 -0.1620 -0.4389
16453SOL    HW156409   8.276   6.258   9.077  0.8878  0.3222 -0.8190
16453SOL    HW256410   8.362   6.233   9.199  0.6205  0.0910 -0.6776
16454SOL     OW56411   4.072  11.570  11.703 -0.4269 -0.2319 -0.6200
16454SOL    HW156412   3.977  11.560  11.707 -0.4919  0.6299  0.5660
16454SOL    HW256413   4.095  11.611  11.787  1.1345 -1.5436 -0.3711
16455SOL     OW56414  10.792   1.616   2.378 -0.5858 -0.6806  0.2788
16455SOL    HW156415  10.849   1.587   2.449 -0.0612 -0.3789 -0.0119
16455SOL    HW256416  10.745   1.691   2.414 -0.0191 -0.2687  0.1862
16456SOL     OW56417   5.380   4.844  12.583  0.5017 -0.0788  0.2335
16456SOL    HW156418   5.325   4.811  12.655 -1.7876  0.6040 -1.1017
16456SOL    HW256419   5.342   4.928  12.561  0.5743 -0.6465 -2.3498
16457SOL     OW56420   8.343  10.155  10.488  0.2856  0.1569 -0.8492
16457SOL    HW156421   8.418  10.196  10.532 -0.3598  0.3461  0.1206
16457SOL    HW256422   8.380  10.081  10.441  1.3396  1.2958 -1.8678
16458SOL     OW56423   1.574   3.842   0.067 -0.4489  0.0140  0.1267
16458SOL    HW156424   1.648   3.892   0.031 -0.1546 -0.8849 -0.5568
16458SOL    HW256425   1.612   3.759   0.094 -1.0118 -0.0165  0.8594
16459SOL     OW56426   2.853  10.462   4.541  0.6023  0.2255 -0.3903
16459SOL    HW156427   2.776  10.405   4.547  0.2378  0.1003 -3.9262
16459SOL    HW256428   2.816  10.550   4.534  0.9939  0.5286  0.9670
16460SOL     OW56429   0.239   6.454   3.344  0.2221 -0.3750 -0.3323
16460SOL    HW156430   0.213   6.392   3.276 -0.4825 -2.2628  1.5860
16460SOL    HW256431   0.260   6.401   3.420 -0.1272  1.7017  1.3312
16461SOL     OW56432   3.906   6.056  12.263 -0.4693 -0.3014 -0.1020
16461SOL    HW156433   3.983   6.000  12.254 -1.3427 -1.5763  0.0760
16461SOL    HW256434   3.941   6.145  12.266  0.9642 -0.8341 -0.3324
16462SOL     OW56435  10.473   7.010  11.623 -0.3403 -0.0994 -0.2151
16462SOL    HW156436  10.439   7.059  11.548 -1.9543 -0.6670  0.0989
16462SOL    HW256437  10.564   7.039  11.631 -0.5234  0.9811 -1.5472
16463SOL     OW56438   6.820   3.353   3.555 -0.0740 -0.5667  0.1984
16463SOL    HW156439   6.899   3.337   3.605 -1.2924 -1.4983  1.9286
16463SOL    HW256440   6.850   3.357   3.464  2.2561  1.5341  0.9494
16464SOL     OW56441   7.865   0.987   1.921  0.2576  0.1959  0.0849
16464SOL    HW156442   7.913   1.046   1.864  3.0882 -0.6043  1.4271
16464SOL    HW256443   7.874   1.025   2.008  1.1197 -1.4783  0.7946
16465SOL     OW56444   4.405   5.358   8.919  0.6142  0.2042 -0.6773
16465SOL    HW156445   4.343   5.360   8.992  0.8245  0.7671 -0.5087
16465SOL    HW256446   4.443   5.446   8.918  0.4876  0.2593 -1.5723
16466SOL     OW56447   4.338   5.367   9.905 -0.4200 -0.1334  0.0224
16466SOL    HW156448   4.383   5.387   9.987 -0.3835  0.3945 -0.1254
16466SOL    HW256449   4.352   5.444   9.850 -1.2569 -0.0790 -0.1320
16467SOL     OW56450   3.396   2.699   3.426  0.0343  0.4965 -0.1344
16467SOL    HW156451   3.367   2.645   3.352  0.1339  0.1150  0.0991
16467SOL    HW256452   3.316   2.743   3.456  0.0632  0.9483 -0.7040
16468SOL     OW56453   0.016   5.363  12.062  0.2915  0.4016 -0.1498
16468SOL    HW156454   0.063   5.401  12.136  2.7737 -2.6729  0.0499
16468SOL    HW256455  -0.029   5.287  12.098 -1.4885  0.9114 -1.1866
16469SOL     OW56456   3.809   3.794   1.766 -0.0199  0.2155  0.3725
16469SOL    HW156457   3.823   3.818   1.675 -1.9303  0.8027  0.1883
16469SOL    HW256458   3.801   3.698   1.764  0.2830  0.1958 -0.0278
16470SOL     OW56459   8.079   8.910  11.308 -0.3414  0.1613  0.6970
16470SOL    HW156460   8.127   8.963  11.372  0.3451  1.3366 -0.7141
16470SOL    HW256461   8.000   8.883  11.353  0.3149  0.5942  2.1718
16471SOL     OW56462   6.763  11.438  11.384 -0.1761 -1.1300  0.3590
16471SOL    HW156463   6.826  11.398  11.324 -0.7773 -1.8968  0.2169
16471SOL    HW256464   6.794  11.527  11.397  0.5446 -1.2885 -0.2612
16472SOL     OW56465  11.934   3.651   5.378 -0.0624 -0.2331 -0.0320
16472SOL    HW156466  11.968   3.630   5.291 -0.5961  0.2137 -0.3616
16472SOL    HW256467  11.904   3.568   5.414 -0.6069 -0.3025 -0.6248
16473SOL     OW56468   6.619   4.035   4.539  1.1653  0.3210 -0.0584
16473SOL    HW156469   6.681   4.105   4.521  0.2218  0.6660 -2.2305
16473SOL    HW256470   6.583   4.012   4.454 -0.8607 -0.6398  0.9873
16474SOL     OW56471  12.524   1.252   8.556  0.2426  0.2804 -0.3341
16474SOL    HW156472  12.607   1.222   8.592  0.0988  0.7687  0.4190
16474SOL    HW256473  12.529   1.348   8.560 -0.2795  0.3168 -0.4650
16475SOL     OW56474  10.682   7.129   7.496  1.2242  0.2563  0.2218
16475SOL    HW156475  10.653   7.191   7.563 -0.4673  0.0360 -0.2646
16475SOL    HW256476  10.606   7.118   7.439  1.4861 -2.2228  0.2506
16476SOL     OW56477   6.189   6.652   7.686  0.0847 -0.2195 -0.0266
16476SOL    HW156478   6.115   6.711   7.702  0.3716  0.4814 -1.1612
16476SOL    HW256479   6.150   6.577   7.640  0.0881  0.2362 -0.7933
16477SOL     OW56480   6.892  11.563   0.918  0.2598 -0.5159 -0.0202
16477SOL    HW156481   6.880  11.627   0.988  1.5666 -2.3714  2.0082
16477SOL    HW256482   6.986  11.568   0.898  0.9477 -3.3373  1.8888
16478SOL     OW56483   1.545   8.427  10.982 -0.5090  0.0565  0.0263
16478SOL    HW156484   1.569   8.412  11.073 -1.1058  1.1893  0.3921
16478SOL    HW256485   1.460   8.384  10.972 -0.4490 -0.0575  0.0106
16479SOL     OW56486  11.592   4.756   3.490 -0.0480  0.3063  0.1290
16479SOL    HW156487  11.540   4.685   3.530 -1.5545  1.4983  0.3735
16479SOL    HW256488  11.606   4.727   3.400 -0.3479 -0.4605  0.3136
16480SOL     OW56489  11.104   2.159  12.422 -0.2012 -0.0195 -0.6288
16480SOL    HW156490  11.022   2.199  12.451  0.6131  0.3432  1.4290
16480SOL    HW256491  11.169   2.229  12.431  0.2820 -0.1459 -2.7084
16481SOL     OW56492  11.835   0.175  12.277 -0.3806 -0.0481  0.8001
16481SOL    HW156493  11.924   0.207  12.291 -0.8310  0.5851  2.4965
16481SOL    HW256494  11.808   0.216  12.195  0.2488  1.2653  1.2146
16482SOL     OW56495   3.561   7.767   8.169  0.2542  0.0949 -0.5292
16482SOL    HW156496   3.587   7.717   8.247  1.4130 -0.9435 -1.5422
16482SOL    HW256497   3.485   7.721   8.135 -0.7258  0.9896  0.3749
16483SOL     OW56498   3.503   9.476   4.389  0.4590 -0.3004  0.3134
16483SOL    HW156499   3.538   9.387   4.378  0.3419 -0.2404 -0.5979
16483SOL    HW256500   3.462   9.496   4.305 -0.7184  0.0991  0.9678
16484SOL     OW56501   1.034   3.073  10.671  0.1735  0.2264  0.1614
16484SOL    HW156502   0.959   3.131  10.689  1.1825  1.6750 -0.1212
16484SOL    HW256503   1.019   3.042  10.582 -2.0172 -2.5945  1.3537
16485SOL     OW56504  12.015   8.632   4.142  0.2097  0.1255 -0.6062
16485SOL    HW156505  12.105   8.656   4.120  0.1000 -0.6797 -2.1014
16485SOL    HW256506  12.021   8.541   4.171  0.2296  0.9051  2.1888
16486SOL     OW56507   7.871   0.759   6.021 -0.0766 -0.2686 -0.4794
16486SOL    HW156508   7.951   0.712   6.044  0.7984  1.8258  1.0488
16486SOL    HW256509   7.827   0.774   6.104 -0.0810  1.9677 -0.8396
16487SOL     OW56510   1.893   4.449  11.019 -0.1167 -0.1233  0.0428
16487SOL    HW156511   1.822   4.392  11.049  0.8783 -0.4872  1.8395
16487SOL    HW256512   1.914   4.417  10.931 -1.7094 -0.4201 -0.2726
16488SOL     OW56513   5.771  11.401   9.255 -0.3868  0.3209 -0.1394
16488SOL    HW156514   5.752  11.493   9.270  1.2551  0.4992  1.1380
16488SOL    HW256515   5.790  11.365   9.341  1.0157 -0.7071 -0.8277
16489SOL     OW56516   9.885   4.233   8.068  0.0155  0.3850 -0.6406
16489SOL    HW156517   9.851   4.151   8.104 -0.7559  0.8997 -0.1678
16489SOL    HW256518   9.912   4.211   7.979  2.0566 -0.9462  0.2460
16490SOL     OW56519  10.552  10.948   4.024 -0.0642  0.5332 -0.0147
16490SOL    HW156520  10.493  10.910   3.959  0.6029 -1.0674  0.2717
16490SOL    HW256521  10.517  10.921   4.108  1.3140 -0.8814  0.1479
16491SOL     OW56522  10.159   0.703   0.123  0.1059 -0.0868  0.1233
16491SOL    HW156523  10.253   0.706   0.144  0.1768 -0.6120 -0.1123
16491SOL    HW256524  10.140   0.610   0.113 -0.6906 -0.0645  1.2664
16492SOL     OW56525  12.546   2.859   8.352 -0.5813 -0.5347 -0.3130
16492SOL    HW156526  12.481   2.914   8.308  1.3329  2.4212  0.3455
16492SOL    HW256527  12.524   2.866   8.445  0.2848 -0.0270 -0.1407
16493SOL     OW56528   8.323   8.373   2.755 -0.3607 -0.8424 -0.2038
16493SOL    HW156529   8.334   8.417   2.671 -2.6102 -2.0508 -1.2359
16493SOL    HW256530   8.249   8.419   2.796 -0.4972 -1.4626  0.2609
16494SOL     OW56531  11.354  12.219   7.232 -0.0149 -0.5561 -0.3067
16494SOL    HW156532  11.431  12.216   7.288 -0.1762 -0.0491 -0.0577
16494SOL    HW256533  11.289  12.164   7.277 -0.1629 -0.1056  0.0319
16495SOL     OW56534  10.398  12.127   7.828  0.5484  0.2983 -0.0630
16495SOL    HW156535  10.491  12.112   7.845  0.4484  0.1310  0.3465
16495SOL    HW256536  10.355  12.047   7.859  0.2476  0.4556 -0.0756
16496SOL     OW56537   9.286   9.554   9.606 -0.0191 -0.8988  0.4411
16496SOL    HW156538   9.327   9.639   9.594 -0.0383 -1.1928 -2.3595
16496SOL    HW256539   9.198   9.574   9.640  0.2394  0.1311  0.5357
16497SOL     OW56540   8.610   5.506  11.059 -0.4100 -0.1988  0.0975
16497SOL    HW156541   8.669   5.493  11.133  0.6115 -0.5680 -0.7544
16497SOL    HW256542   8.634   5.591  11.023  2.1319 -1.7917 -2.3823
16498SOL     OW56543  11.519   1.390   7.031  0.1865  0.0724  0.4041
16498SOL    HW156544  11.572   1.311   7.040 -1.1142 -1.0181 -0.8737
16498SOL    HW256545  11.537   1.440   7.111  0.6798 -1.7448  1.5104
16499SOL     OW56546   9.786   6.512   6.507 -0.0211 -0.3612  0.1878
16499SOL    HW156547   9.799   6.450   6.436 -0.3991 -2.8717  2.1551
16499SOL    HW256548   9.871   6.518   6.550  0.0114  0.5325  0.0226
16500SOL     OW56549   7.880   7.813   2.505 -0.0018 -0.0916 -0.1718
16500SOL    HW156550   7.798   7.830   2.458  0.0924  0.9030  0.0154
16500SOL    HW256551   7.916   7.900   2.523 -0.0206 -0.4365  1.7114
16501SOL     OW56552   2.683  10.245   4.482  0.4247  0.4289 -0.3611
16501SOL    HW156553   2.609  10.183   4.475 -0.1589  0.8783  1.4284
16501SOL    HW256554   2.732  10.232   4.401  0.5137 -2.6286  0.0656
16502SOL     OW56555   1.424   6.038   0.467  0.3264 -0.3341 -0.0609
16502SOL    HW156556   1.463   6.068   0.385  0.6816 -0.5169  0.0390
16502SOL    HW256557   1.379   5.957   0.445  0.0497 -0.1509 -0.1661
16503SOL     OW56558   4.049  12.428  12.166 -0.0165 -0.0643 -0.5077
16503SOL    HW156559   4.090  12.414  12.080  0.8337 -0.9959  0.0307
16503SOL    HW256560   4.068  12.348  12.215  0.1686  0.7572  0.8056
16504SOL     OW56561  10.197  10.816   9.822 -0.4095  0.0678  0.2208
16504SOL    HW156562  10.103  10.812   9.802 -0.8114 -0.3327  1.9978
16504SOL    HW256563  10.225  10.900   9.786 -1.6687  0.6268  0.4805
16505SOL     OW56564   1.677   7.182   4.973  0.5280 -0.2771 -0.8032
16505SOL    HW156565   1.677   7.274   4.950 -2.1688 -0.7559 -3.3410
16505SOL    HW256566   1.584   7.160   4.987  0.9122 -2.8590 -1.6474
16506SOL     OW56567   7.173   2.324   1.236  0.2435  0.0893  0.2191
16506SOL    HW156568   7.252   2.273   1.255  1.2959 -0.1532 -3.7146
16506SOL    HW256569   7.206   2.412   1.220 -0.5304  0.3795  0.2187
16507SOL     OW56570   9.964   1.604   7.289 -0.2071 -0.5490 -0.1004
16507SOL    HW156571   9.950   1.509   7.299 -1.4816 -0.3326  0.4455
16507SOL    HW256572  10.059   1.614   7.283 -0.1137 -2.0350 -2.1545
16508SOL     OW56573   7.594   1.181  12.245 -0.5814 -0.8044 -0.7368
16508SOL    HW156574   7.680   1.218  12.268 -0.2772 -2.1900  0.4624
16508SOL    HW256575   7.604   1.157  12.152 -0.6415  1.5759 -1.4352
16509SOL     OW56576  10.273   0.233   2.924  0.1842  0.0082  0.4396
16509SOL    HW156577  10.235   0.150   2.895  2.3621 -0.5024 -1.2338
16509SOL    HW256578  10.211   0.300   2.893 -0.4688 -0.8789 -0.2233
16510SOL     OW56579   7.765   8.451   4.236 -0.0219  0.0390  0.0522
16510SOL    HW156580   7.726   8.506   4.168  0.1615  2.0800  1.4794
16510SOL    HW256581   7.719   8.476   4.316  2.0160  0.2486  1.2473
16511SOL     OW56582   4.992  10.590   2.918  0.4520 -0.2722 -0.1939
16511SOL    HW156583   5.015  10.623   3.005  0.9775  0.2881 -0.5481
16511SOL    HW256584   4.896  10.595   2.916  0.5150  4.2158 -1.3457
16512SOL     OW56585  10.187   4.810   8.055 -0.6017  0.3342  0.0720
16512SOL    HW156586  10.184   4.716   8.076  0.9747  0.5197  1.3041
16512SOL    HW256587  10.231   4.850   8.130 -2.1445  2.2313  0.0596
16513SOL     OW56588   5.287   2.789  12.518  0.1219  0.5198 -0.4201
16513SOL    HW156589   5.360   2.850  12.513  0.3846  0.1493 -1.3675
16513SOL    HW256590   5.324   2.705  12.490 -0.4985  0.1785 -0.2359
16514SOL     OW56591   4.189   4.021   2.630 -0.0408 -0.0397  0.1947
16514SOL    HW156592   4.198   4.061   2.543 -2.1824  0.2838  0.0885
16514SOL    HW256593   4.256   4.065   2.683 -0.1011  1.2664 -0.7662
16515SOL     OW56594   4.421  10.247   0.041  0.0370 -0.3083  0.3448
16515SOL    HW156595   4.422  10.163  -0.007  0.1162  0.2734 -0.7120
16515SOL    HW256596   4.505  10.249   0.087  0.5779 -0.2708 -0.6148
16516SOL     OW56597   6.561   6.997   1.632 -0.7607 -0.2940 -0.1276
16516SOL    HW156598   6.586   7.088   1.616  0.8238 -0.8144 -0.7912
16516SOL    HW256599   6.537   6.995   1.725  1.9194  0.2644  0.6422
16517SOL     OW56600   7.089   7.256   1.842  0.6631 -0.0988  0.3003
16517SOL    HW156601   7.040   7.324   1.795 -1.2100 -2.1559 -0.9658
16517SOL    HW256602   7.155   7.303   1.892 -0.4626  2.6093 -0.5942
16518SOL     OW56603   2.127   8.980  11.095  0.4472 -0.3586 -0.2345
16518SOL    HW156604   2.153   9.072  11.089 -0.0268 -0.2014  0.0543
16518SOL    HW256605   2.041   8.982  11.137  1.2607 -1.0519  1.5811
16519SOL     OW56606   5.168   9.168  11.137 -0.2615 -0.1899 -0.2037
16519SOL    HW156607   5.171   9.252  11.182  0.9624  0.5640 -1.6168
16519SOL    HW256608   5.095   9.176  11.075 -0.8621 -0.6009  0.4380
16520SOL     OW56609  12.301   6.050   7.737  0.0961  0.5700 -0.0158
16520SOL    HW156610  12.243   5.973   7.740  1.0588 -0.1371  0.8140
16520SOL    HW256611  12.300   6.084   7.826  0.8484  0.6334 -0.0322
16521SOL     OW56612   6.898   5.536   3.479  0.2007  0.2782  0.5756
16521SOL    HW156613   6.930   5.592   3.409 -0.8950  0.5230  0.2544
16521SOL    HW256614   6.876   5.597   3.550 -1.5639  0.3473  0.0061
16522SOL     OW56615   6.155   0.312   9.016  0.2877  0.3898 -0.1278
16522SOL    HW156616   6.141   0.394   8.967  0.3103  1.1478  1.0988
16522SOL    HW256617   6.166   0.340   9.107  1.0691 -0.9282  0.2046
16523SOL     OW56618   2.265   1.584   8.028 -0.1715 -0.1925 -0.1188
16523SOL    HW156619   2.301   1.496   8.041 -1.3301 -0.8092 -0.8787
16523SOL    HW256620   2.182   1.569   7.983 -0.3497  1.3081 -0.3361
16524SOL     OW56621   1.483   1.299   0.035  0.1608 -0.1548 -0.1710
16524SOL    HW156622   1.517   1.211   0.046  0.0299 -0.1599  0.2080
16524SOL    HW256623   1.389   1.287   0.021  0.1878 -0.0919 -0.4164
16525SOL     OW56624  10.194   7.611   6.532  0.2912  0.5644 -0.3652
16525SOL    HW156625  10.112   7.588   6.489  0.7032 -0.6421 -0.5360
16525SOL    HW256626  10.262   7.577   6.474  0.8791  0.1051  0.5691
16526SOL     OW56627   0.891   1.160   3.150  0.3235  0.0013  0.1830
16526SOL    HW156628   0.861   1.214   3.223 -0.7109  2.4158 -1.8766
16526SOL    HW256629   0.853   1.074   3.166 -2.1199  1.1700  1.1790
16527SOL     OW56630   7.634   6.981   6.519  0.1474  0.0540  0.2403
16527SOL    HW156631   7.605   6.890   6.516  2.1608 -0.6337  0.0528
16527SOL    HW256632   7.718   6.981   6.473 -0.5277  2.3326 -1.1866
16528SOL     OW56633  11.916   8.177   0.831  0.4482  0.0541  0.2255
16528SOL    HW156634  11.980   8.134   0.888 -0.6666 -2.2480 -0.1238
16528SOL    HW256635  11.833   8.169   0.879  0.2133  2.1689  0.2638
16529SOL     OW56636   3.392   4.614   6.189 -0.3703  0.2781 -0.2305
16529SOL    HW156637   3.437   4.630   6.272  2.5841  0.9160 -1.8201
16529SOL    HW256638   3.456   4.569   6.135 -2.3854 -0.5893 -2.0351
16530SOL     OW56639   0.040   8.644   7.404 -0.2260  0.3279  0.0498
16530SOL    HW156640  -0.023   8.716   7.396 -0.6094  0.2836  2.0866
16530SOL    HW256641  -0.010   8.566   7.383 -1.2430  0.1761  2.6382
16531SOL     OW56642   1.554   8.203   6.396  0.7720 -0.7356  0.5365
16531SOL    HW156643   1.581   8.125   6.348 -0.4390 -0.0936 -1.2882
16531SOL    HW256644   1.463   8.217   6.371  0.7175  0.8182  1.4457
16532SOL     OW56645  12.265   1.641  10.191  0.6300 -0.3177 -0.2770
16532SOL    HW156646  12.249   1.632  10.097 -0.7767  1.4500 -0.2642
16532SOL    HW256647  12.286   1.733  10.203 -0.5851 -0.2050  1.3092
16533SOL     OW56648  11.600   0.603   0.732  0.3967 -0.2063  0.3732
16533SOL    HW156649  11.506   0.610   0.750  0.6037  0.5954  1.2588
16533SOL    HW256650  11.605   0.589   0.637 -0.7092 -3.3118  0.6395
16534SOL     OW56651   7.488   8.677   2.217  0.0506 -0.5058  0.6672
16534SOL    HW156652   7.527   8.714   2.296 -0.2581  1.3587  0.0043
16534SOL    HW256653   7.561   8.668   2.156 -0.2360  1.7027 -0.1040
16535SOL     OW56654   0.673   9.693   1.515 -0.6121  0.1957 -0.3487
16535SOL    HW156655   0.749   9.679   1.458  0.7178 -0.5385  1.5237
16535SOL    HW256656   0.667   9.614   1.568  0.6901  2.2549  3.2520
16536SOL     OW56657  11.453   6.935   9.186 -0.0220 -0.6191  0.1215
16536SOL    HW156658  11.487   6.856   9.144 -1.8288 -1.3499 -0.0395
16536SOL    HW256659  11.374   6.956   9.137  0.8289  1.7739 -0.3358
16537SOL     OW56660   5.293   0.691   7.098 -0.1643 -0.2822  0.2482
16537SOL    HW156661   5.223   0.685   7.164  0.2305 -1.6800  0.5781
16537SOL    HW256662   5.374   0.697   7.149  0.0934 -0.6979 -0.1037
16538SOL     OW56663   3.529   1.003   5.677 -0.2557 -0.5423  0.2201
16538SOL    HW156664   3.614   1.015   5.634 -0.6345 -1.6692 -0.8800
16538SOL    HW256665   3.541   0.925   5.731 -0.6400 -0.8027 -0.0691
16539SOL     OW56666  10.284   6.913   3.159 -0.3366  0.4506 -0.0718
16539SOL    HW156667  10.301   6.975   3.088 -1.9460  1.4907  0.3768
16539SOL    HW256668  10.213   6.857   3.125 -1.1053  0.9439  0.6799
16540SOL     OW56669   1.243   6.285   1.950 -0.0826  0.4300  0.0483
16540SOL    HW156670   1.252   6.232   2.029  0.6558  0.4316 -0.0227
16540SOL    HW256671   1.193   6.230   1.890 -0.0351  0.1394  0.2703
16541SOL     OW56672   4.665  11.767   1.017  0.5202 -0.6079 -0.0298
16541SOL    HW156673   4.727  11.808   0.957 -0.2990 -0.6354 -0.9120
16541SOL    HW256674   4.581  11.768   0.971  0.3922 -2.9827  0.0239
16542SOL     OW56675   0.074   9.984  11.657  0.7782  0.1234 -0.8141
16542SOL    HW156676  -0.011   9.939  11.651  1.8491 -2.0846 -0.6057
16542SOL    HW256677   0.054  10.076  11.640 -1.8570 -0.0887  0.6734
16543SOL     OW56678   0.541   9.950   6.992 -0.1588  0.0065  0.8053
16543SOL    HW156679   0.583   9.976   7.074  0.8013 -0.2283  0.3942
16543SOL    HW256680   0.474   9.887   7.019 -1.1550  1.3344  1.5990
16544SOL     OW56681  10.417   9.779   1.160 -0.3548  0.1155  0.3236
16544SOL    HW156682  10.419   9.815   1.071  2.2163 -0.6558 -0.0428
16544SOL    HW256683  10.403   9.685   1.147  0.3633 -0.0494  0.6709
16545SOL     OW56684   5.846   3.072   9.046  0.2081  0.1893  0.1653
16545SOL    HW156685   5.880   3.006   8.986 -2.6229 -0.5180 -0.8171
16545SOL    HW256686   5.768   3.032   9.085  0.6635  1.4906  2.6607
16546SOL     OW56687   3.110   2.166  11.612  0.3404 -0.6989 -0.2280
16546SOL    HW156688   3.057   2.148  11.690 -0.1261  1.6227  0.0726
16546SOL    HW256689   3.188   2.112  11.623  0.5159 -0.0827  2.1278
16547SOL     OW56690  10.580  10.754   3.431  0.4381 -0.7866 -0.5594
16547SOL    HW156691  10.651  10.757   3.367 -0.6003 -2.4761 -1.8828
16547SOL    HW256692  10.545  10.843   3.433  1.0659 -0.4997 -1.6710
16548SOL     OW56693   3.893   9.521   9.090  0.3231  0.2384 -0.4954
16548SOL    HW156694   3.828   9.534   9.158 -1.1849 -3.0702 -1.1077
16548SOL    HW256695   3.932   9.608   9.077  0.2565  1.1906  4.0120
16549SOL     OW56696  11.132   6.419   2.894  0.2429  0.9698 -0.4535
16549SOL    HW156697  11.151   6.426   2.800  1.1880  1.5935 -0.2272
16549SOL    HW256698  11.131   6.324   2.911 -0.7440  0.8190 -1.2333
16550SOL     OW56699  11.619   7.308   7.922  0.5265  0.1563  0.0735
16550SOL    HW156700  11.582   7.317   7.834 -0.3790  0.5054  0.4734
16550SOL    HW256701  11.706   7.272   7.908  0.0475 -0.6979 -0.9197
16551SOL     OW56702   5.602  12.467   0.274 -0.3728 -0.0496 -0.6914
16551SOL    HW156703   5.583  12.387   0.323 -0.0245  0.4060  0.2181
16551SOL    HW256704   5.521  12.517   0.276 -0.4130 -0.1132 -0.7393
16552SOL     OW56705   5.782   2.229   7.339 -0.5492  0.2657 -0.2160
16552SOL    HW156706   5.770   2.142   7.300 -2.0341  1.2158 -2.0676
16552SOL    HW256707   5.862   2.222   7.390  0.3362 -1.7063 -1.7644
16553SOL     OW56708   4.551  10.387   9.099  0.4981 -0.0465 -0.3247
16553SOL    HW156709   4.496  10.437   9.038 -0.9134 -0.8376  0.2668
16553SOL    HW256710   4.560  10.301   9.058 -0.3609 -0.5436  0.5045
16554SOL     OW56711   5.886   0.832  12.386 -0.2044  0.2870 -0.2566
16554SOL    HW156712   5.873   0.747  12.427 -1.0457  0.1633 -0.7479
16554SOL    HW256713   5.836   0.827  12.304  1.2416  0.5932 -1.2118
16555SOL     OW56714   1.761   8.664   4.320  0.1056 -0.1687 -0.0697
16555SOL    HW156715   1.681   8.619   4.348  0.6027 -1.9684 -1.3749
16555SOL    HW256716   1.730   8.747   4.285 -1.0053 -0.1038  0.9902
16556SOL     OW56717   8.587   8.976   6.445 -0.2858 -0.1336  0.1463
16556SOL    HW156718   8.515   8.996   6.504 -1.0992 -0.1764 -0.8047
16556SOL    HW256719   8.646   9.051   6.453 -0.9274  0.3740  0.1958
16557SOL     OW56720   8.613  12.593   8.043 -0.2197 -0.0074  0.6233
16557SOL    HW156721   8.612  12.556   7.955 -1.1566  0.9464  0.2154
16557SOL    HW256722   8.664  12.530   8.094 -1.6636 -1.8326 -0.0523
16558SOL     OW56723  10.719   4.872   4.627 -0.1634 -0.1266  0.1514
16558SOL    HW156724  10.745   4.809   4.695 -0.7853 -0.9153 -0.3200
16558SOL    HW256725  10.676   4.818   4.561 -0.1081  0.7224 -0.5800
16559SOL     OW56726   3.485   0.083   5.607  0.6109 -0.0252 -0.2259
16559SOL    HW156727   3.502   0.175   5.627 -0.1891  0.5127 -1.8411
16559SOL    HW256728   3.558   0.057   5.551 -0.7307  0.6031 -2.3886
16560SOL     OW56729   1.086  11.902   0.954 -0.0081 -0.3029  0.3453
16560SOL    HW156730   1.036  11.891   1.035 -0.3810  4.1563  0.9778
16560SOL    HW256731   1.167  11.945   0.982 -0.0827  1.1973 -1.5596
16561SOL     OW56732   1.268  11.666   5.030 -0.3471 -0.5893 -0.7936
16561SOL    HW156733   1.280  11.707   4.944  0.7928  0.2227 -0.2701
16561SOL    HW256734   1.215  11.729   5.079 -1.0026 -1.0546 -0.8971
16562SOL     OW56735   8.319   5.245   3.992  0.1345 -0.1810  0.6173
16562SOL    HW156736   8.325   5.337   4.016  0.5955  0.0594 -0.3910
16562SOL    HW256737   8.367   5.238   3.909  0.5006 -1.4102  0.9085
16563SOL     OW56738   7.578   8.783   9.380  0.4464  0.1364 -0.0316
16563SOL    HW156739   7.589   8.857   9.439 -0.0076 -0.0380  0.2835
16563SOL    HW256740   7.663   8.773   9.336  0.4700  0.9203 -0.1733
16564SOL     OW56741   9.345   6.111   0.647 -0.5858 -0.1933  0.1252
16564SOL    HW156742   9.331   6.109   0.552 -1.7180  1.2416  0.2269
16564SOL    HW256743   9.326   6.201   0.672 -1.8362 -0.9088  1.9379
16565SOL     OW56744   5.602   4.962  11.227  0.0142 -0.3291  0.3266
16565SOL    HW156745   5.549   4.946  11.149  1.8283  1.0782 -1.2612
16565SOL    HW256746   5.640   4.876  11.247 -1.0180 -0.8563  0.1313
16566SOL     OW56747   4.758   9.758  11.927 -0.4318  0.4066 -0.6213
16566SOL    HW156748   4.825   9.733  11.991 -1.1071  2.7619  1.1240
16566SOL    HW256749   4.808   9.797  11.855  0.3082 -1.9383 -1.4766
16567SOL     OW56750  10.407   4.834   7.720  0.2729 -0.2449  0.2543
16567SOL    HW156751  10.482   4.777   7.703  0.9716  0.5878  0.4681
16567SOL    HW256752  10.348   4.817   7.647  0.0114 -1.9555  0.8318
16568SOL     OW56753   4.956  11.015   1.305 -0.5131 -0.1938 -0.0714
16568SOL    HW156754   4.897  11.036   1.232 -1.1858 -0.9900  0.2164
16568SOL    HW256755   4.986  10.926   1.287  1.5092  0.5822 -0.7763
16569SOL     OW56756   6.420   3.795   0.255 -0.1982 -0.1337 -0.1143
16569SOL    HW156757   6.480   3.751   0.195  1.4212  1.6311  0.1193
16569SOL    HW256758   6.455   3.884   0.264 -3.5305  1.3819 -0.8384
16570SOL     OW56759   7.659   1.457   9.423 -0.2468  0.2116  0.0542
16570SOL    HW156760   7.568   1.438   9.400 -0.7076  1.3172  0.8941
16570SOL    HW256761   7.687   1.520   9.357  0.2036 -0.7357 -0.6982
16571SOL     OW56762   2.099   8.326  11.983  0.3352 -0.2425  0.7198
16571SOL    HW156763   2.063   8.254  12.035  0.0050 -0.1786  0.5805
16571SOL    HW256764   2.066   8.311  11.895  1.0473 -0.4541  0.4764
16572SOL     OW56765   6.374  10.289   5.010 -0.4820  0.3282 -0.7699
16572SOL    HW156766   6.455  10.302   5.059 -1.0896  0.1570  0.3302
16572SOL    HW256767   6.383  10.203   4.970 -0.1439  0.2825 -0.5999
16573SOL     OW56768   3.493   1.009   0.703  0.0605  0.0173 -0.4592
16573SOL    HW156769   3.425   1.036   0.643 -1.9796  1.1304  2.1702
16573SOL    HW256770   3.449   0.949   0.764  1.9309 -0.7927  0.1775
16574SOL     OW56771   7.845   1.260  11.012 -0.2873  0.6424 -0.3354
16574SOL    HW156772   7.907   1.212  10.957  1.0636  1.7146  0.1859
16574SOL    HW256773   7.900   1.321  11.062 -1.8267  2.0038 -0.2238
16575SOL     OW56774   9.872  12.551   5.462  0.4526 -0.0523 -0.2184
16575SOL    HW156775   9.780  12.565   5.438 -0.1270 -1.5267  1.0167
16575SOL    HW256776   9.921  12.612   5.406 -1.2332  0.4746 -1.1785
16576SOL     OW56777   9.801   3.919   8.975 -0.2173  0.3105  0.1641
16576SOL    HW156778   9.843   3.976   9.040 -2.2346  1.0818  0.8618
16576SOL    HW256779   9.866   3.913   8.904  1.5337  0.4639  1.6637
16577SOL     OW56780  12.411   5.653   1.379 -0.2079 -0.1939 -0.4776
16577SOL    HW156781  12.409   5.673   1.285 -0.6550 -1.7691 -0.8492
16577SOL    HW256782  12.324   5.678   1.411  0.2545  1.1958 -0.2682
16578SOL     OW56783   8.686   2.073   2.041 -0.3370  0.3395  0.3632
16578SOL    HW156784   8.651   2.032   2.120 -0.6975  1.8181  1.0094
16578SOL    HW256785   8.686   2.167   2.061  0.0724  0.6978 -1.2030
16579SOL     OW56786  10.085   0.098   2.538 -0.6244  0.5343 -0.0762
16579SOL    HW156787  10.149   0.151   2.585  0.3477 -2.2480  2.0395
16579SOL    HW256788  10.122   0.088   2.451 -0.7333  2.9831 -0.4845
16580SOL     OW56789  10.924   6.512   6.144  0.6058  0.3726  0.4239
16580SOL    HW156790  10.902   6.539   6.233  0.3695 -0.1509  0.5252
16580SOL    HW256791  10.962   6.425   6.153  0.7184  0.3780  0.0267
16581SOL     OW56792   3.331   3.592   0.348 -0.0788  0.1107  0.2313
16581SOL    HW156793   3.344   3.668   0.405 -0.0820 -0.0810  0.4881
16581SOL    HW256794   3.413   3.543   0.356  0.1355  0.3653 -0.3576
16582SOL     OW56795   6.914   8.867   9.170  0.7095 -0.5538  0.4377
16582SOL    HW156796   6.878   8.779   9.174 -1.5105  0.1615 -1.7128
16582SOL    HW256797   6.985   8.862   9.106  1.0449 -0.9016  0.8335
16583SOL     OW56798   7.817   0.168  11.546  0.4962 -0.1487  0.3200
16583SOL    HW156799   7.793   0.120  11.467 -0.6727 -0.0982  0.6122
16583SOL    HW256800   7.859   0.248  11.514 -0.0011 -0.1099 -0.2576
16584SOL     OW56801   1.890   5.728   2.821  0.1691 -0.3585 -0.0376
16584SOL    HW156802   1.884   5.793   2.752  2.5057 -1.0475 -0.9971
16584SOL    HW256803   1.977   5.689   2.810  0.1504 -1.3416  2.5493
16585SOL     OW56804  11.449   8.688  12.276 -0.0941  0.5105  0.0171
16585SOL    HW156805  11.522   8.717  12.221  0.6106  0.6010  0.9767
16585SOL    HW256806  11.468   8.724  12.363 -1.3134  0.5810  0.2752
16586SOL     OW56807  10.309   2.390   3.912 -0.3351  0.2089  0.3924
16586SOL    HW156808  10.214   2.380   3.922 -0.3075  0.0997  0.5430
16586SOL    HW256809  10.319   2.435   3.828 -0.4309 -1.9399 -0.8657
16587SOL     OW56810   4.063   6.447  10.752  0.4669 -0.2583  0.0405
16587SOL    HW156811   4.100   6.474  10.836 -2.2360  2.0511  0.6695
16587SOL    HW256812   4.040   6.529  10.708 -0.2310 -1.4608 -1.9787
16588SOL     OW56813   9.043  11.060   7.118 -0.3501  0.3438 -0.3402
16588SOL    HW156814   8.982  10.986   7.120  0.5850 -0.4525 -0.7170
16588SOL    HW256815   9.068  11.072   7.210 -0.2441 -0.0338 -0.3167
16589SOL     OW56816   7.145   5.146   4.016 -0.1925  0.0355  0.2289
16589SOL    HW156817   7.096   5.166   3.937 -1.0205  1.0583  0.9793
16589SOL    HW256818   7.167   5.231   4.053 -1.5263 -0.3778  2.1147
16590SOL     OW56819  10.769  11.455   9.217  0.0286 -0.1392  0.3491
16590SOL    HW156820  10.803  11.506   9.143 -1.3568  0.3886  0.0401
16590SOL    HW256821  10.674  11.457   9.205 -0.1484 -1.0327  1.5108
16591SOL     OW56822   3.287   9.466   6.700 -0.1807  1.1299  0.1928
16591SOL    HW156823   3.299   9.415   6.780  2.2816  0.9872 -0.2068
16591SOL    HW256824   3.192   9.463   6.684 -0.6367  0.4483  2.6023
16592SOL     OW56825   4.263   8.952   2.678  0.4898 -0.5360  0.5133
16592SOL    HW156826   4.337   8.927   2.622  1.7014 -0.4531  1.9939
16592SOL    HW256827   4.278   8.905   2.760  0.4120  1.5582  1.8101
16593SOL     OW56828   7.154   6.959   4.914 -0.3210 -0.5366  0.2567
16593SOL    HW156829   7.085   6.987   4.974 -0.9774 -0.0820 -0.6815
16593SOL    HW256830   7.235   6.983   4.958 -0.7636 -0.6670  1.1754
16594SOL     OW56831  11.881   8.029   5.176  0.0520  0.1209 -0.3279
16594SOL    HW156832  11.900   8.097   5.112  0.9448  0.6720  0.4836
16594SOL    HW256833  11.933   8.053   5.253 -1.8553  0.1416  1.0363
16595SOL     OW56834  10.671   3.628   6.841  0.2263 -0.5075 -0.2903
16595SOL    HW156835  10.645   3.592   6.756 -0.3161  1.3598 -0.9557
16595SOL    HW256836  10.750   3.678   6.822 -0.4689  0.7672  0.0731
16596SOL     OW56837   3.583  10.432   5.434 -0.0915  0.3978 -0.2033
16596SOL    HW156838   3.564  10.507   5.490  1.5423 -1.8034  3.6718
16596SOL    HW256839   3.524  10.363   5.464 -0.5685 -0.3814 -2.6665
16597SOL     OW56840   2.948   3.942   2.826  0.3428  0.5125  0.2659
16597SOL    HW156841   3.002   3.949   2.747  1.1825 -1.0630  0.6591
16597SOL    HW256842   2.975   4.016   2.880 -0.3254  1.6780 -0.9360
16598SOL     OW56843   5.739   3.266   5.272  0.2972 -0.6883 -0.5142
16598SOL    HW156844   5.749   3.351   5.229  2.5186 -0.2846  0.6455
16598SOL    HW256845   5.701   3.287   5.358 -0.5381 -1.0529 -0.7865
16599SOL     OW56846   8.421   0.484   0.863  0.3505  0.2165  0.3820
16599SOL    HW156847   8.422   0.541   0.786 -0.2783 -0.2982 -0.0136
16599SOL    HW256848   8.468   0.534   0.930  0.1941  1.0079 -0.0861
16600SOL     OW56849  11.581   5.619   0.312 -0.2933 -0.3217 -0.1163
16600SOL    HW156850  11.612   5.702   0.277  1.7890 -1.3711 -0.9836
16600SOL    HW256851  11.651   5.589   0.370 -1.0986 -1.3589  0.3664
16601SOL     OW56852   5.845   0.781   6.208 -0.5411  0.1701  0.2163
16601SOL    HW156853   5.835   0.692   6.242 -1.2902  0.6753  1.4021
16601SOL    HW256854   5.906   0.822   6.270 -0.3854  0.5483 -0.1885
16602SOL     OW56855   7.706  11.998   4.341  0.0519  0.1898 -0.3019
16602SOL    HW156856   7.715  11.970   4.432 -1.8054  0.8863  0.1439
16602SOL    HW256857   7.714  11.917   4.290  2.4807 -0.0539  0.2969
16603SOL     OW56858   7.089   5.616  11.549 -0.2230  0.3229 -0.7755
16603SOL    HW156859   7.051   5.665  11.622  0.6955  1.1717 -0.8488
16603SOL    HW256860   7.112   5.531  11.586 -0.6516  0.4009 -0.3231
16604SOL     OW56861   0.489   5.870   8.254 -0.0471  0.9935  0.5483
16604SOL    HW156862   0.565   5.862   8.311 -0.1848  0.3061  0.6491
16604SOL    HW256863   0.443   5.787   8.264  0.5912  0.3415 -1.5506
16605SOL     OW56864   3.688   1.678   9.730  0.1505 -0.0207 -0.1086
16605SOL    HW156865   3.688   1.641   9.818  3.1345 -0.7194 -0.2884
16605SOL    HW256866   3.778   1.707   9.715 -0.1505 -0.2103 -3.0346
16606SOL     OW56867   2.223  11.041   5.852 -0.1492  0.2116  0.2110
16606SOL    HW156868   2.138  10.998   5.862  0.3331 -0.4470  1.6810
16606SOL    HW256869   2.271  11.017   5.931  0.7807  2.0231  0.2261
16607SOL     OW56870   8.680  12.416   6.157 -0.0769  0.0828 -0.5512
16607SOL    HW156871   8.661  12.357   6.083  1.2980 -0.1945 -0.7084
16607SOL    HW256872   8.773  12.433   6.150 -0.1210  0.8528  0.5668
16608SOL     OW56873  10.200   8.601  10.846 -0.5360  0.2971 -0.1611
16608SOL    HW156874  10.255   8.604  10.768 -3.2029  2.0562 -2.1564
16608SOL    HW256875  10.136   8.671  10.833 -2.8300 -1.1492  2.2918
16609SOL     OW56876   6.666   5.132   4.196 -0.4689  0.4811 -0.2271
16609SOL    HW156877   6.657   5.047   4.238  0.7787  0.0085 -0.8425
16609SOL    HW256878   6.746   5.169   4.234 -0.8391  1.2567 -0.1807
16610SOL     OW56879   9.280   9.654  11.025  0.0811  0.0794 -0.4661
16610SOL    HW156880   9.330   9.733  11.041 -1.3939  1.2840 -1.5101
16610SOL    HW256881   9.333   9.602  10.965  1.3098 -0.0234  0.6672
16611SOL     OW56882   4.026   7.944   0.927 -0.0023 -0.0642  0.0139
16611SOL    HW156883   3.933   7.966   0.925 -0.0265  0.1340 -3.4871
16611SOL    HW256884   4.070   8.026   0.901  1.1279 -0.3265  1.0101
16612SOL     OW56885  11.431   2.578  12.056 -1.1165 -0.9321  0.6639
16612SOL    HW156886  11.412   2.493  12.096 -1.5217 -1.1620  0.0081
16612SOL    HW256887  11.371   2.583  11.982  0.0237 -0.8010 -0.2875
16613SOL     OW56888   9.647  10.133   8.552  0.0934  0.3585 -0.4006
16613SOL    HW156889   9.578  10.145   8.618  0.1007 -1.2698 -0.0556
16613SOL    HW256890   9.727  10.121   8.604  0.2433 -0.0464 -0.7210
16614SOL     OW56891   0.412   2.144   0.030 -0.0099 -0.3863  0.5955
16614SOL    HW156892   0.458   2.068   0.066  0.7901  0.1635  0.7607
16614SOL    HW256893   0.463   2.168  -0.048  0.1611  0.3982  0.9404
16615SOL     OW56894   7.452   1.621   9.973 -0.1047 -0.2439 -0.5426
16615SOL    HW156895   7.498   1.583  10.048  0.7246 -0.2101 -1.0129
16615SOL    HW256896   7.477   1.565   9.899 -0.8562 -0.2376 -0.8092
16616SOL     OW56897   3.666   1.560   8.556  0.3530 -0.2846  0.5288
16616SOL    HW156898   3.631   1.645   8.531  0.2164 -0.0308  1.5499
16616SOL    HW256899   3.733   1.579   8.621 -0.2414 -0.9993  1.3728
16617SOL     OW56900  12.335   9.074   1.395  0.4454  0.1587  0.3837
16617SOL    HW156901  12.391   9.005   1.431 -1.2023 -0.4592  1.9465
16617SOL    HW256902  12.269   9.026   1.344 -0.8284  0.4792  1.6392
16618SOL     OW56903   4.683   7.430   3.499  0.3476 -0.1194 -0.3545
16618SOL    HW156904   4.732   7.511   3.485 -0.4930  0.4154 -0.3000
16618SOL    HW256905   4.646   7.409   3.413  0.4095 -0.3384 -0.3289
16619SOL     OW56906   4.298  10.015   5.552  0.3638 -0.3625  0.1479
16619SOL    HW156907   4.222  10.054   5.508  1.6415  0.5075 -1.4029
16619SOL    HW256908   4.287   9.921   5.539 -0.2079 -0.2216 -0.4801
16620SOL     OW56909   6.106  10.167   6.400  0.3634  0.2187  0.5906
16620SOL    HW156910   6.066  10.254   6.406  0.2060  0.1687  0.2590
16620SOL    HW256911   6.050  10.111   6.454  0.3782  0.2910  0.6810
16621SOL     OW56912   7.273  10.519   5.755  0.4620 -0.1313  0.2787
16621SOL    HW156913   7.279  10.537   5.661  3.1021  0.4792  0.4778
16621SOL    HW256914   7.212  10.586   5.788 -0.5886 -0.4272 -0.9773
16622SOL     OW56915   5.013  12.408   5.506  0.2194 -0.2135 -0.3932
16622SOL    HW156916   5.013  12.503   5.493 -2.2397 -0.0208  0.3764
16622SOL    HW256917   4.921  12.383   5.492  1.0039 -2.6524 -1.6394
16623SOL     OW56918   9.473   8.000   9.079  0.2371  0.3280 -0.0979
16623SOL    HW156919   9.402   7.998   9.015 -0.8631 -0.3473  1.0868
16623SOL    HW256920   9.529   7.925   9.055 -0.7023 -0.5253  0.2843
16624SOL     OW56921   8.986  12.058   2.377  0.6066  0.5545  0.5672
16624SOL    HW156922   9.025  12.023   2.297  0.6512  1.6843  0.0878
16624SOL    HW256923   8.970  12.150   2.359 -2.5801  0.1203  0.6203
16625SOL     OW56924   1.174   2.196   2.374  0.0510 -0.1531 -0.0002
16625SOL    HW156925   1.262   2.233   2.371 -0.6596  1.7437  0.6613
16625SOL    HW256926   1.185   2.111   2.416  1.5381  0.1228  0.2372
16626SOL     OW56927   3.201   6.205   8.604 -0.0719  0.3337  0.0937
16626SOL    HW156928   3.222   6.125   8.556  1.0712 -0.1287  1.3274
16626SOL    HW256929   3.226   6.276   8.544  1.9575 -0.2279  0.2151
16627SOL     OW56930  10.278   3.454   6.488 -0.0371  0.8427 -0.3037
16627SOL    HW156931  10.238   3.367   6.483  1.6766 -0.0431  0.5375
16627SOL    HW256932  10.352   3.450   6.427  0.7696  1.2924  0.6228
16628SOL     OW56933  10.072  11.987   7.411 -0.1582 -0.2161  0.6135
16628SOL    HW156934  10.056  11.892   7.415  2.7046 -0.9089 -1.1422
16628SOL    HW256935  10.147  12.000   7.470  0.4195  0.6479 -0.2830
16629SOL     OW56936   9.361   9.769   8.826  0.3062 -0.5295 -0.0056
16629SOL    HW156937   9.304   9.704   8.785 -0.0732 -0.8570  1.0151
16629SOL    HW256938   9.444   9.761   8.778 -0.2030 -0.7033 -0.8842
16630SOL     OW56939   5.873   3.426   7.221  0.0534 -0.4538 -0.1510
16630SOL    HW156940   5.857   3.422   7.315 -1.6287 -0.5120 -0.3923
16630SOL    HW256941   5.890   3.519   7.204  0.2664 -0.4273  0.1993
16631SOL     OW56942   7.866   1.991   8.202 -0.1683  0.5008  0.0641
16631SOL    HW156943   7.951   2.033   8.215  0.1609  0.4290 -1.5747
16631SOL    HW256944   7.828   1.984   8.289  1.2292  1.1273  0.7433
16632SOL     OW56945   6.469  12.364  12.110 -0.4212  0.9308  0.1325
16632SOL    HW156946   6.408  12.430  12.142 -1.9770  0.2012 -1.1561
16632SOL    HW256947   6.455  12.361  12.015 -1.4147 -2.1118  0.2531
16633SOL     OW56948   0.212   1.739   3.500 -0.1610  0.0157 -0.1239
16633SOL    HW156949   0.293   1.758   3.451 -0.1521  0.1751 -0.0464
16633SOL    HW256950   0.222   1.648   3.527  0.9739  0.6301  1.7321
16634SOL     OW56951   2.863   8.101   7.456  0.3323 -0.5658 -0.4611
16634SOL    HW156952   2.895   8.145   7.536  1.5207 -1.0884 -0.6211
16634SOL    HW256953   2.816   8.169   7.409 -0.1801 -0.1793  0.5694
16635SOL     OW56954   8.037  10.875  10.078 -0.0798 -0.1424  0.4657
16635SOL    HW156955   8.065  10.839   9.994 -0.2497  0.0398  0.3311
16635SOL    HW256956   8.008  10.799  10.128 -0.8722 -0.1429  0.0179
16636SOL     OW56957   1.344   6.306   6.983  0.0101  0.7437  0.4592
16636SOL    HW156958   1.261   6.300   6.936 -0.3392  1.3934  0.9718
16636SOL    HW256959   1.323   6.281   7.073  0.5871 -0.0829  0.3760
16637SOL     OW56960  11.305  10.539  10.753 -0.3472 -0.3404 -0.8347
16637SOL    HW156961  11.363  10.587  10.812 -0.3165 -1.3707  0.0072
16637SOL    HW256962  11.325  10.447  10.770 -0.8199 -0.6687 -1.9818
16638SOL     OW56963   9.848   7.492   2.409  0.2818  0.2731  0.4050
16638SOL    HW156964   9.830   7.486   2.503  1.2435 -0.7023  0.5525
16638SOL    HW256965   9.930   7.542   2.404  0.9973 -0.8696  0.2065
16639SOL     OW56966   7.552  11.990   0.516 -0.5874 -0.0593 -0.3982
16639SOL    HW156967   7.484  12.054   0.494  0.5861  1.1364 -0.7264
16639SOL    HW256968   7.581  12.015   0.604  1.6117  1.5338 -1.4762
16640SOL     OW56969  11.660   9.083   3.620 -0.4293  0.3041  0.0252
16640SOL    HW156970  11.669   9.074   3.715  0.2411  1.7472  0.1182
16640SOL    HW256971  11.583   9.137   3.608 -1.2716 -0.9388 -0.3205
16641SOL     OW56972  11.129   6.846   0.169  0.2196 -0.2458  0.4068
16641SOL    HW156973  11.125   6.879   0.259 -2.4938  1.4797 -0.2249
16641SOL    HW256974  11.094   6.757   0.175 -1.3409  0.3713  0.9169
16642SOL     OW56975   0.390   7.045   4.693  0.4200 -0.1829 -0.1342
16642SOL    HW156976   0.345   7.008   4.769  0.2765 -0.1019 -0.1799
16642SOL    HW256977   0.475   6.999   4.691  1.2889  1.2353  1.2703
16643SOL     OW56978   4.452   3.900   2.552  0.2798  0.4707 -0.1565
16643SOL    HW156979   4.486   3.946   2.475  0.7323  1.2993  0.5220
16643SOL    HW256980   4.358   3.894   2.537  0.6344 -1.8500 -2.0612
16644SOL     OW56981  12.035  12.335   9.003 -0.1325 -0.5541 -0.7731
16644SOL    HW156982  12.109  12.395   9.007 -1.5795  1.2825 -0.1307
16644SOL    HW256983  11.983  12.366   8.928 -0.4061 -1.6681 -1.0783
16645SOL     OW56984   8.141   3.139   8.402 -0.2583  0.1022 -0.3437
16645SOL    HW156985   8.104   3.140   8.313 -3.0723  2.0641  0.7198
16645SOL    HW256986   8.174   3.228   8.415 -2.7798  0.8635  1.5727
16646SOL     OW56987   9.630   0.829   9.437  0.2885 -0.0075 -0.2214
16646SOL    HW156988   9.653   0.767   9.507  1.3028 -0.0669 -0.5874
16646SOL    HW256989   9.637   0.915   9.478  0.2013 -0.0710 -0.0714
16647SOL     OW56990   7.516   7.867   0.916 -0.0528 -0.6476  0.5118
16647SOL    HW156991   7.431   7.861   0.872 -0.6959  3.4490  0.8825
16647SOL    HW256992   7.508   7.808   0.991 -3.6072  1.3046  1.9245
16648SOL     OW56993   8.139  10.281  11.543  0.1497  0.4778  0.2115
16648SOL    HW156994   8.081  10.322  11.480  2.1567 -0.0072 -2.0987
16648SOL    HW256995   8.131  10.187  11.527  0.0649  0.2850  1.2924
16649SOL     OW56996   7.341   3.233   7.840 -0.3928 -0.5015 -0.5543
16649SOL    HW156997   7.266   3.262   7.787  0.2600  0.3572 -1.0345
16649SOL    HW256998   7.402   3.306   7.836 -0.4722 -0.2648  1.7223
16650SOL     OW56999   0.502  10.884   6.916  0.0065  0.0692  0.2068
16650SOL    HW157000   0.546  10.806   6.881  1.1699  1.2058 -0.9876
16650SOL    HW257001   0.409  10.867   6.903  0.2188 -1.2517  0.2746
16651SOL     OW57002  11.794   8.838   6.559  0.1394  0.1329  0.2004
16651SOL    HW157003  11.706   8.800   6.560 -0.5448  1.6429  0.4516
16651SOL    HW257004  11.810   8.860   6.467 -1.0675  2.6629  0.5163
16652SOL     OW57005   5.954   2.197   8.249  0.2350  0.7121  0.0488
16652SOL    HW157006   6.016   2.153   8.308 -1.0937 -0.0498  0.9180
16652SOL    HW257007   5.967   2.290   8.265  1.6122  0.6017 -0.2837
16653SOL     OW57008   0.516   3.297   7.206 -0.4208  0.1897  0.0569
16653SOL    HW157009   0.556   3.363   7.150 -2.5400  0.0131 -1.8232
16653SOL    HW257010   0.536   3.325   7.295  3.3112  0.3436 -0.7006
16654SOL     OW57011   3.154  11.970  10.295  0.2762 -0.0665  0.3651
16654SOL    HW157012   3.079  12.013  10.253 -0.8477 -2.8430 -0.7035
16654SOL    HW257013   3.145  11.992  10.387 -0.5713  1.4560 -0.0448
16655SOL     OW57014   8.982   3.910   7.323  0.3891  0.4870 -0.1172
16655SOL    HW157015   9.037   3.964   7.266 -1.6070 -0.3452 -3.0985
16655SOL    HW257016   9.040   3.843   7.357  1.7580  1.2150 -0.9389
16656SOL     OW57017  12.039   7.947   6.845  0.1429 -0.5562  0.2097
16656SOL    HW157018  11.952   7.908   6.837  0.3979 -0.9515 -0.7676
16656SOL    HW257019  12.026   8.039   6.821  0.3676 -1.0988 -2.2473
16657SOL     OW57020   0.673   7.793  11.970  0.5464 -0.1356  0.6375
16657SOL    HW157021   0.729   7.871  11.972  1.0459 -0.4933  1.7936
16657SOL    HW257022   0.680   7.756  12.058  0.4064 -1.5522  0.0885
16658SOL     OW57023   3.598   8.687   0.338 -0.2366  0.4161  0.0468
16658SOL    HW157024   3.692   8.695   0.351 -0.2941 -1.1249  2.0253
16658SOL    HW257025   3.587   8.606   0.288 -0.5011  1.3322 -1.4549
16659SOL     OW57026   5.146   2.773   4.245  0.0905 -0.4341 -0.0542
16659SOL    HW157027   5.115   2.763   4.155 -0.9327 -1.2653  0.3682
16659SOL    HW257028   5.097   2.708   4.295  0.7086 -0.0524  1.0964
16660SOL     OW57029   1.891  11.832  11.244  0.2766 -0.2992  0.6248
16660SOL    HW157030   1.969  11.875  11.280 -1.2098  1.0682  2.4321
16660SOL    HW257031   1.883  11.867  11.156  1.4813 -0.1996  0.5315
16661SOL     OW57032  12.260   2.835   4.250  0.5024 -0.0062 -0.3702
16661SOL    HW157033  12.185   2.895   4.254  2.1727  2.1424  1.3276
16661SOL    HW257034  12.323   2.879   4.192  1.5012 -0.4108  0.3640
16662SOL     OW57035   0.617   1.466   5.050 -0.0484 -0.1707 -0.4393
16662SOL    HW157036   0.544   1.513   5.010  0.0209  3.1752  2.8681
16662SOL    HW257037   0.695   1.509   5.017  0.4029 -1.8496 -1.7229
16663SOL     OW57038  11.950   7.796  11.768  0.7176 -0.7501  0.3761
16663SOL    HW157039  12.045   7.794  11.776  0.7584 -1.8465 -0.0583
16663SOL    HW257040  11.922   7.874  11.815  1.7365 -1.0762  1.5535
16664SOL     OW57041  11.457  11.525   7.418  0.1600 -0.3802 -0.2845
16664SOL    HW157042  11.404  11.483   7.350  1.9238 -0.9165 -1.3917
16664SOL    HW257043  11.427  11.484   7.499 -0.2086 -1.6503 -1.0197
16665SOL     OW57044   4.970   5.097   3.910 -0.0096  0.6596 -0.2984
16665SOL    HW157045   4.910   5.024   3.921  1.7743 -0.9268 -0.6354
16665SOL    HW257046   4.965   5.118   3.816  1.5757 -0.9874 -0.7946
16666SOL     OW57047   6.256   0.284   2.816 -0.2738  0.4173 -0.0639
16666SOL    HW157048   6.251   0.282   2.911 -0.0775  1.6153 -0.0136
16666SOL    HW257049   6.347   0.262   2.796 -0.0865  1.0279  0.0816
16667SOL     OW57050   7.299   1.717   0.786  0.2748 -0.0061 -0.5779
16667SOL    HW157051   7.323   1.625   0.779  0.9735  0.0926  0.3274
16667SOL    HW257052   7.246   1.735   0.708 -1.7815 -1.7430  0.3144
16668SOL     OW57053   7.396   4.484   1.963 -0.0127  0.0156  0.1242
16668SOL    HW157054   7.353   4.424   1.903 -0.3027 -0.3915  0.7333
16668SOL    HW257055   7.436   4.550   1.906 -2.7249  1.3067 -0.4416
16669SOL     OW57056   2.348   1.555   5.366 -0.5398  0.1122 -0.0914
16669SOL    HW157057   2.256   1.551   5.392 -0.6433  0.5943 -0.3691
16669SOL    HW257058   2.393   1.498   5.428 -1.2585 -1.5611 -1.0354
16670SOL     OW57059   9.695   2.986   0.906 -0.0215  0.0281  0.1000
16670SOL    HW157060   9.606   2.955   0.923 -0.5426  0.9399 -0.8452
16670SOL    HW257061   9.689   3.081   0.913  2.0821  0.1124  5.5330
16671SOL     OW57062  11.134   6.687  11.740 -0.1626 -0.3977  0.3288
16671SOL    HW157063  11.049   6.643  11.740 -0.1082 -0.6147 -1.5757
16671SOL    HW257064  11.126   6.752  11.669  0.9890  0.1377  0.6745
16672SOL     OW57065   3.948  11.725   9.869 -0.0777  0.1540 -0.0635
16672SOL    HW157066   3.883  11.795   9.873 -0.2642  0.1606 -2.2582
16672SOL    HW257067   3.917  11.661   9.934 -1.7614  0.5850 -0.3948
16673SOL     OW57068   2.969   7.437  10.353  0.6442 -0.0515 -0.3166
16673SOL    HW157069   3.028   7.494  10.403 -0.4601  0.6308  0.2380
16673SOL    HW257070   2.895   7.421  10.412 -1.0511  1.3547 -1.9216
16674SOL     OW57071   9.945  12.466   1.526  0.3481 -0.7521 -0.2524
16674SOL    HW157072   9.878  12.398   1.537 -0.3468 -0.0865 -0.3231
16674SOL    HW257073   9.968  12.491   1.615 -0.2228 -0.2834 -0.2320
16675SOL     OW57074   2.373   0.003   1.915  0.1632 -0.1299 -0.0748
16675SOL    HW157075   2.333   0.074   1.965  1.9437 -0.2478  1.6636
16675SOL    HW257076   2.391  -0.065   1.980  0.5272 -1.2636 -1.2996
16676SOL     OW57077   4.023  12.070   1.497 -0.0331  0.6671 -0.2275
16676SOL    HW157078   3.955  12.013   1.462 -0.5042  0.4472  0.9969
16676SOL    HW257079   4.098  12.056   1.439  0.7449 -3.1506  1.3841
16677SOL     OW57080   3.438  12.324   5.351  0.3398  0.0647 -0.2654
16677SOL    HW157081   3.359  12.361   5.391 -0.6783 -2.1552 -0.0809
16677SOL    HW257082   3.488  12.288   5.424  0.7666  0.0944 -0.5367
16678SOL     OW57083   4.249  11.444   8.110 -0.0672 -0.5322 -0.5435
16678SOL    HW157084   4.164  11.456   8.069 -0.2167 -0.2994 -0.1706
16678SOL    HW257085   4.237  11.369   8.169  0.0917 -0.7425 -0.7770
16679SOL     OW57086   9.804   9.595   4.564 -0.3929  0.0379  0.0639
16679SOL    HW157087   9.897   9.590   4.587 -0.4074  0.4783  0.2165
16679SOL    HW257088   9.782   9.506   4.536  0.3586  0.1879 -1.0749
16680SOL     OW57089   6.176  11.508   5.497 -0.3744 -0.3946  0.0557
16680SOL    HW157090   6.242  11.474   5.437  1.3341 -0.5333  1.8893
16680SOL    HW257091   6.102  11.448   5.488  0.3478 -1.1709 -0.9376
16681SOL     OW57092  10.884   5.958   4.127  0.7439  0.3033  0.5025
16681SOL    HW157093  10.979   5.968   4.139  0.6492  1.3214  0.4659
16681SOL    HW257094  10.870   5.864   4.126  2.0341  0.0691 -1.6411
16682SOL     OW57095   9.911   2.710   8.079  0.2040 -0.2848 -0.0102
16682SOL    HW157096   9.884   2.797   8.050 -0.9547 -0.9602 -1.0190
16682SOL    HW257097   9.862   2.695   8.160 -1.3476 -0.8893 -1.0308
16683SOL     OW57098   7.721   3.124   0.304  0.3377 -0.6530  1.0128
16683SOL    HW157099   7.699   3.035   0.276 -0.3028 -0.5223  1.0669
16683SOL    HW257100   7.792   3.113   0.366  2.2532 -0.9167 -1.1039
16684SOL     OW57101   9.528   5.043   6.218  0.0262 -0.0562 -0.2707
16684SOL    HW157102   9.589   4.999   6.277  1.3390  0.2889 -1.3279
16684SOL    HW257103   9.581   5.067   6.142 -1.1083  1.5113 -0.6220
16685SOL     OW57104   4.714   1.435  11.169  0.0885 -0.7512 -0.6329
16685SOL    HW157105   4.761   1.377  11.229  0.7297 -1.7532 -2.0452
16685SOL    HW257106   4.631   1.453  11.213  0.3939 -1.7453  0.3861
16686SOL     OW57107  11.145   6.553   9.296  0.2956  0.1206  0.3657
16686SOL    HW157108  11.221   6.596   9.337  0.3647  0.6362 -0.2710
16686SOL    HW257109  11.183   6.503   9.223  0.1559 -0.6395  0.8067
16687SOL     OW57110   5.277   9.679   5.050  0.2751  0.2277 -0.0744
16687SOL    HW157111   5.302   9.700   5.140 -0.7224 -0.3231  0.3501
16687SOL    HW257112   5.299   9.586   5.041 -1.0588 -0.1347  0.1403
16688SOL     OW57113  11.516   6.555   0.333 -0.4595  0.0087  0.4347
16688SOL    HW157114  11.579   6.578   0.402 -1.2321 -1.1751  1.5777
16688SOL    HW257115  11.463   6.634   0.322  0.2816  0.5308  0.4850
16689SOL     OW57116   0.527   9.392   6.142  0.2595  0.0839  0.1373
16689SOL    HW157117   0.453   9.354   6.190 -1.2835  2.4612 -0.2208
16689SOL    HW257118   0.604   9.356   6.186 -1.0976 -1.2230  1.5809
16690SOL     OW57119   7.061  11.841   2.460  0.0935 -0.0963  0.0217
16690SOL    HW157120   7.017  11.917   2.496  0.2986 -0.3223  0.7658
16690SOL    HW257121   7.153  11.866   2.453  0.3408 -0.5997  1.2212
16691SOL     OW57122  10.268  12.374  11.782  0.1272 -0.0345 -0.3138
16691SOL    HW157123  10.351  12.412  11.811 -0.2381  1.1955 -0.8022
16691SOL    HW257124  10.255  12.409  11.694 -0.7991 -0.3842 -0.3317
16692SOL     OW57125  12.509   1.115   5.369  0.3192  0.1030  0.4668
16692SOL    HW157126  12.582   1.056   5.388  0.5786 -0.7902 -2.7081
16692SOL    HW257127  12.549   1.202   5.367  1.2241 -0.3006 -0.5103
16693SOL     OW57128  12.191   4.965   9.148 -0.3472 -0.2404  0.2402
16693SOL    HW157129  12.151   5.014   9.076  0.4662  1.0568  0.6393
16693SOL    HW257130  12.226   5.032   9.207  0.0389 -1.2934  1.2623
16694SOL     OW57131   9.754   2.752   4.970  0.2343  1.0279  0.4099
16694SOL    HW157132   9.842   2.788   4.961  1.8804 -2.6062  0.1885
16694SOL    HW257133   9.767   2.658   4.979 -3.7771 -0.3104 -3.6277
16695SOL     OW57134   7.445  10.770   7.856  0.3806 -0.1050 -0.5407
16695SOL    HW157135   7.525  10.729   7.823  0.0142 -2.3325  1.0819
16695SOL    HW257136   7.476  10.845   7.906  1.3134  0.0093 -1.2488
16696SOL     OW57137   1.281   9.638   5.382  0.4822  0.8142 -0.2285
16696SOL    HW157138   1.270   9.623   5.476  1.7208 -0.7010 -0.2853
16696SOL    HW257139   1.226   9.572   5.341 -1.5242  2.6395 -0.6471
16697SOL     OW57140  10.399   9.558   4.131 -0.3168 -0.1564  0.6582
16697SOL    HW157141  10.491   9.533   4.137 -0.4936 -0.9274  0.3176
16697SOL    HW257142  10.395   9.617   4.056  0.0602  0.6968  1.2935
16698SOL     OW57143  10.879  10.743  11.129 -0.0381 -0.1806 -0.3974
16698SOL    HW157144  10.875  10.710  11.219 -0.9645  0.1126 -0.3256
16698SOL    HW257145  10.891  10.837  11.138  2.2555 -0.3920 -0.6082
16699SOL     OW57146   1.784  11.915   8.604  0.1075 -0.0146 -0.2436
16699SOL    HW157147   1.816  11.847   8.663 -2.0682 -0.6946  0.2268
16699SOL    HW257148   1.862  11.943   8.555  1.8204 -0.0568  2.2664
16700SOL     OW57149   0.236   6.364   5.410  0.0983 -0.1534 -0.3427
16700SOL    HW157150   0.176   6.303   5.453  0.0365 -0.5617 -0.9977
16700SOL    HW257151   0.203   6.451   5.433 -1.3191 -0.3586 -1.4624
16701SOL     OW57152   0.746   2.954   5.608 -0.5122  0.5952  0.0037
16701SOL    HW157153   0.809   2.989   5.671  0.9111 -0.0567 -1.0000
16701SOL    HW257154   0.768   2.996   5.526 -2.2953  1.3712 -0.1202
16702SOL     OW57155   0.286   0.655   5.804  0.1325  0.4369 -0.1993
16702SOL    HW157156   0.336   0.691   5.731  0.3209 -1.8516 -1.2997
16702SOL    HW257157   0.332   0.687   5.882  0.4402  2.2252 -1.0609
16703SOL     OW57158   7.750   1.215   5.412 -0.7197 -0.5876 -0.0360
16703SOL    HW157159   7.672   1.190   5.362  0.4469 -0.8556 -1.7682
16703SOL    HW257160   7.719   1.287   5.468 -2.4680 -1.4229  0.1459
16704SOL     OW57161   0.076   9.055   1.388 -0.2274 -0.3934 -0.8047
16704SOL    HW157162   0.044   8.973   1.426  0.9098 -0.5640 -0.1974
16704SOL    HW257163   0.043   9.054   1.298 -0.9246 -1.1177 -0.5520
16705SOL     OW57164   9.953   5.617   5.835 -0.1613 -0.4676 -0.2886
16705SOL    HW157165   9.883   5.662   5.787  1.3794  2.2995 -0.0992
16705SOL    HW257166   9.921   5.614   5.925 -1.4806 -2.4217 -0.7458
16706SOL     OW57167   4.849  12.148   2.010  0.4739  0.5638 -0.5055
16706SOL    HW157168   4.806  12.217   1.959 -0.3546 -0.4872 -1.2674
16706SOL    HW257169   4.818  12.066   1.971  1.9022 -0.2493  0.0070
16707SOL     OW57170  11.972   2.366   9.887  0.0165 -0.1905 -0.0098
16707SOL    HW157171  12.016   2.368   9.801 -0.1498  0.2564 -0.0862
16707SOL    HW257172  12.041   2.341   9.948  0.5466  1.1169 -0.0366
16708SOL     OW57173   7.677   0.198   3.645  0.5731  0.4061 -0.5069
16708SOL    HW157174   7.724   0.281   3.658 -1.8644  1.8633 -0.2368
16708SOL    HW257175   7.649   0.173   3.733  1.0657 -0.5869 -0.6261
16709SOL     OW57176   3.224   1.539   8.169  0.1432 -0.2853 -0.2407
16709SOL    HW157177   3.270   1.487   8.235 -0.6004 -0.4963  0.1290
16709SOL    HW257178   3.149   1.576   8.216  1.2033  2.0081 -0.2227
16710SOL     OW57179  12.018  10.173  12.350  0.1772 -0.1813 -0.0617
16710SOL    HW157180  12.045  10.177  12.441 -1.2596 -0.0691  0.3888
16710SOL    HW257181  11.930  10.210  12.350 -0.1689 -0.9501 -1.3625
16711SOL     OW57182   9.129   7.215   1.733  0.3211  0.1464 -0.4195
16711SOL    HW157183   9.141   7.284   1.799 -0.5437 -0.9092  0.8945
16711SOL    HW257184   9.063   7.251   1.674 -2.0772 -0.4572  1.7083
16712SOL     OW57185  12.245   1.082   0.695  0.2159 -0.9815  0.3673
16712SOL    HW157186  12.201   1.107   0.613  0.8110 -1.1987 -0.0204
16712SOL    HW257187  12.179   1.032   0.743 -1.0523  1.3362  1.2003
16713SOL     OW57188   3.217   9.323   9.744 -0.1716  0.2414  0.0083
16713SOL    HW157189   3.229   9.385   9.672  0.5434 -0.3370 -0.3733
16713SOL    HW257190   3.163   9.371   9.807 -1.9995  0.2728 -1.4897
16714SOL     OW57191   4.212   4.481   5.467 -0.0980  0.4769  0.0031
16714SOL    HW157192   4.195   4.406   5.409 -1.1050  1.1638 -0.6169
16714SOL    HW257193   4.307   4.482   5.476  0.0050 -0.2671 -0.8124
16715SOL     OW57194   3.603   0.265  10.241  0.0266 -0.1412  0.0521
16715SOL    HW157195   3.659   0.342  10.234 -1.9700  1.5738  1.5531
16715SOL    HW257196   3.633   0.220  10.320 -0.4855  0.6373  0.7114
16716SOL     OW57197   4.848   6.893   5.044  0.4781 -0.6996  0.5897
16716SOL    HW157198   4.756   6.898   5.019  0.3258  0.3745  1.3063
16716SOL    HW257199   4.851   6.929   5.133  2.0229  2.4461 -0.5715
16717SOL     OW57200  12.032   5.764  10.338  0.2248  0.1691 -0.0110
16717SOL    HW157201  12.000   5.758  10.248  0.3772 -0.9115 -0.0025
16717SOL    HW257202  12.125   5.782  10.329  0.1587  0.5075 -0.0565
16718SOL     OW57203   1.824   5.523   9.191 -0.0317 -0.1649 -0.9086
16718SOL    HW157204   1.883   5.514   9.116 -0.6338 -1.3233 -1.2762
16718SOL    HW257205   1.872   5.578   9.253  0.8688  0.0316 -1.7571
16719SOL     OW57206   6.317   9.796   1.936  0.3718 -0.2854  0.3070
16719SOL    HW157207   6.319   9.748   1.853 -2.4671 -0.1882  0.1036
16719SOL    HW257208   6.251   9.752   1.988 -0.5102  1.8472  1.1098
16720SOL     OW57209   7.035  11.327   5.631  0.0392 -0.7057  0.1457
16720SOL    HW157210   7.076  11.285   5.555  2.1914 -0.7640  1.2747
16720SOL    HW257211   6.975  11.392   5.593  1.4722 -0.3404 -1.6138
16721SOL     OW57212   3.993  11.922   8.265  0.6407  0.1096 -0.1670
16721SOL    HW157213   3.964  11.956   8.350 -0.4323 -0.4929 -0.2764
16721SOL    HW257214   4.008  11.999   8.211  0.9119  0.4833  0.4251
16722SOL     OW57215   1.298   8.771   0.732  0.1435  0.1924  0.1451
16722SOL    HW157216   1.342   8.853   0.753  0.2635 -0.0068  0.7012
16722SOL    HW257217   1.314   8.715   0.809 -0.4380 -0.1411  0.0266
16723SOL     OW57218   9.711   7.078   3.085  0.2678  0.3214  0.0700
16723SOL    HW157219   9.650   7.131   3.034 -1.1565 -0.6894  0.6493
16723SOL    HW257220   9.697   7.105   3.176 -1.3475 -1.7373  0.5317
16724SOL     OW57221  11.340  12.402  10.966  0.7481 -0.2148 -0.0181
16724SOL    HW157222  11.404  12.393  10.896 -0.2554 -1.9042 -0.7940
16724SOL    HW257223  11.255  12.389  10.922  0.0263 -0.2664  1.3421
16725SOL     OW57224   4.888   0.787   2.481 -0.3668 -0.5747 -0.1836
16725SOL    HW157225   4.982   0.772   2.491 -0.7729 -2.0298  2.0621
16725SOL    HW257226   4.847   0.706   2.511 -2.3751  0.7733  0.9488
16726SOL     OW57227   8.916   7.318   7.494  0.4448 -0.1868 -0.0213
16726SOL    HW157228   8.955   7.231   7.490 -0.2205 -0.4703 -0.4919
16726SOL    HW257229   8.960   7.368   7.426  0.9196 -0.1114  0.3353
16727SOL     OW57230   1.491   7.877   3.667  0.1899 -0.5016  0.2016
16727SOL    HW157231   1.462   7.968   3.667  0.3382 -0.4556  0.8290
16727SOL    HW257232   1.533   7.864   3.752  1.7353 -0.6551 -0.5364
16728SOL     OW57233  11.670   8.004   7.899  0.0106 -0.7292  0.1797
16728SOL    HW157234  11.674   7.909   7.895 -0.3423 -0.7917  0.9703
16728SOL    HW257235  11.743   8.029   7.955 -0.0428 -0.5527  0.1713
16729SOL     OW57236   1.431   4.109   5.285  0.1040  0.0182  0.3027
16729SOL    HW157237   1.419   4.014   5.283  1.2497 -0.1314  0.2890
16729SOL    HW257238   1.345   4.143   5.311 -0.7521 -0.9136 -1.2078
16730SOL     OW57239   9.522   3.005   5.037  0.3620  0.1560  0.1189
16730SOL    HW157240   9.450   3.054   4.996  0.0776  0.0429  0.4750
16730SOL    HW257241   9.488   2.980   5.123 -0.4061 -2.7019 -0.8959
16731SOL     OW57242  10.373  11.494   6.938 -0.1366 -0.2305  0.9057
16731SOL    HW157243  10.298  11.534   6.893 -0.9956 -0.0448  2.4471
16731SOL    HW257244  10.442  11.559   6.931  0.8308 -1.4084 -2.7959
16732SOL     OW57245   6.981  11.077   5.428  0.3007 -0.6938 -0.4784
16732SOL    HW157246   6.948  10.988   5.439  0.9973 -1.2386 -2.3967
16732SOL    HW257247   7.050  11.069   5.362  1.0006  1.1417 -0.0345
16733SOL     OW57248  11.152   5.763   0.304  0.1355  0.9614  0.2729
16733SOL    HW157249  11.234   5.797   0.267 -0.3628  0.7509 -1.0684
16733SOL    HW257250  11.084   5.819   0.267 -0.3555  1.0321  1.2579
16734SOL     OW57251   6.867  10.073   4.001 -0.3394 -0.5424 -0.0828
16734SOL    HW157252   6.796  10.112   3.950  0.8946  1.8629 -0.1232
16734SOL    HW257253   6.940  10.135   3.993  0.9523 -1.6367  2.0288
16735SOL     OW57254   6.270   4.465  11.211  0.0742  0.2383 -0.0992
16735SOL    HW157255   6.364   4.482  11.220  0.2232 -0.0422 -1.0515
16735SOL    HW257256   6.261   4.427  11.124 -0.8430 -0.3398  0.2375
16736SOL     OW57257   9.346   0.930   8.266 -0.1784  0.1330  0.2311
16736SOL    HW157258   9.347   1.024   8.283  0.6406  0.2585 -0.4443
16736SOL    HW257259   9.254   0.909   8.253 -0.2718  1.0469 -0.6784
16737SOL     OW57260   8.321   5.793   7.354 -0.3341 -0.4775  0.2033
16737SOL    HW157261   8.379   5.719   7.371  1.1481  0.8627  1.2013
16737SOL    HW257262   8.340   5.856   7.424 -0.8926  1.2294 -1.1001
16738SOL     OW57263   1.688   1.902  11.634  0.7265 -0.0654 -0.0300
16738SOL    HW157264   1.604   1.919  11.677  1.0550  0.7549  0.3002
16738SOL    HW257265   1.751   1.892  11.706  1.0894  0.2880 -0.2961
16739SOL     OW57266  11.297   7.455  11.404  0.2894  0.0403  0.6786
16739SOL    HW157267  11.318   7.547  11.418 -0.9697  0.4788 -0.1684
16739SOL    HW257268  11.287   7.418  11.492  2.7162  0.2081  1.0930
16740SOL     OW57269   2.804   5.661   8.541 -0.6363 -0.2372  0.0544
16740SOL    HW157270   2.871   5.692   8.480 -0.6666 -0.8875 -0.3234
16740SOL    HW257271   2.820   5.710   8.621  2.1973 -2.3720  0.9972
16741SOL     OW57272   7.146  11.165   0.277 -0.1542  0.8554 -0.1570
16741SOL    HW157273   7.241  11.165   0.263  0.2875  1.3324  2.2552
16741SOL    HW257274   7.131  11.242   0.333 -1.6682 -0.2623  1.0624
16742SOL     OW57275  11.049   6.225   9.533 -0.6887 -0.2242 -0.4858
16742SOL    HW157276  10.975   6.279   9.504 -0.8658  0.0540  0.4455
16742SOL    HW257277  11.125   6.264   9.492 -1.0366 -0.4232 -1.3414
16743SOL     OW57278   9.884   7.360   0.376 -0.1596 -0.4082 -0.0926
16743SOL    HW157279   9.845   7.421   0.313  1.7705 -0.4770 -1.4132
16743SOL    HW257280   9.890   7.411   0.457 -1.7095  0.0202 -0.2171
16744SOL     OW57281   7.591   8.973   8.417  0.0502  0.0757  0.2225
16744SOL    HW157282   7.639   8.892   8.400  1.6072  1.1969 -0.9962
16744SOL    HW257283   7.600   9.024   8.337 -0.2203  1.7919  1.2206
16745SOL     OW57284   2.832   1.556   7.352 -0.2525  0.2272 -0.4649
16745SOL    HW157285   2.881   1.550   7.270 -0.4874 -0.3145 -0.5697
16745SOL    HW257286   2.753   1.607   7.330 -0.2294  0.2339 -0.5314
16746SOL     OW57287   4.060   4.574   5.682 -0.2677  0.0355 -1.1018
16746SOL    HW157288   4.114   4.547   5.608 -0.4596 -0.2281 -1.1496
16746SOL    HW257289   4.043   4.667   5.668 -1.0591 -0.2060 -1.8815
16747SOL     OW57290   3.253  10.135   2.713  0.3516  0.3488  0.4334
16747SOL    HW157291   3.253  10.227   2.685 -1.0372  0.4776  0.7516
16747SOL    HW257292   3.309  10.090   2.650 -1.0129  0.9923 -1.3479
16748SOL     OW57293   1.436   0.941   0.528 -0.0854  0.2444  0.4437
16748SOL    HW157294   1.397   0.899   0.604  1.7316 -0.6974  0.9062
16748SOL    HW257295   1.487   1.014   0.563 -0.5608  0.8410 -0.0579
16749SOL     OW57296   2.000   6.866   2.684 -0.3421 -0.1887 -0.4180
16749SOL    HW157297   2.079   6.920   2.681  0.5939 -1.5333 -0.7424
16749SOL    HW257298   1.992   6.842   2.777 -1.7088  1.8094  0.0336
16750SOL     OW57299   8.166   6.467   5.020  0.2941 -0.2010  0.1883
16750SOL    HW157300   8.200   6.502   5.103  0.6980 -1.1396  0.4272
16750SOL    HW257301   8.225   6.395   4.998  0.0832 -0.0712 -0.8335
16751SOL     OW57302   0.917   2.637   3.323 -0.0052 -0.3837  0.4639
16751SOL    HW157303   0.877   2.709   3.275 -0.0843  0.5607  1.8761
16751SOL    HW257304   0.884   2.558   3.280 -3.6083  0.2986  1.5780
16752SOL     OW57305  11.788   5.801   0.502 -0.0506 -0.0286  0.0496
16752SOL    HW157306  11.844   5.771   0.574  1.2025  1.1592 -0.3847
16752SOL    HW257307  11.700   5.803   0.540  0.4135 -0.5436  1.2003
16753SOL     OW57308  10.389   0.883  11.857 -0.5327  0.3088 -0.1814
16753SOL    HW157309  10.302   0.871  11.894 -0.0026 -1.1500  0.7455
16753SOL    HW257310  10.383   0.851  11.767 -0.7525 -0.7026  0.1809
16754SOL     OW57311   1.527   5.032   5.530 -0.5406  0.2790 -0.3536
16754SOL    HW157312   1.532   4.986   5.613 -0.7141  1.0373  0.0881
16754SOL    HW257313   1.545   5.123   5.552 -1.8562  0.7131 -0.9367
16755SOL     OW57314   5.264   0.236   1.631  0.0701  0.5712  1.0373
16755SOL    HW157315   5.303   0.155   1.663  0.6156  1.6037  3.1918
16755SOL    HW257316   5.170   0.226   1.648  0.1461  0.4128  1.3676
16756SOL     OW57317   8.680   9.892   9.291 -0.5004 -0.1482 -0.7904
16756SOL    HW157318   8.591   9.858   9.306 -0.4238  0.4134  1.1788
16756SOL    HW257319   8.737   9.815   9.302 -0.6419 -0.2363 -0.6577
16757SOL     OW57320   1.948  10.075   4.761  0.8502  0.1583 -0.0993
16757SOL    HW157321   1.966  10.169   4.759  2.7882 -0.1654  0.5089
16757SOL    HW257322   1.984  10.043   4.678  0.2444 -0.0730 -0.2787
16758SOL     OW57323  11.542  11.911  12.399  0.1861 -0.1735 -0.6147
16758SOL    HW157324  11.528  11.847  12.329  1.2824 -2.5702  1.1687
16758SOL    HW257325  11.625  11.883  12.440  1.2753  3.0752 -0.3411
16759SOL     OW57326   6.360   7.199   2.991  0.0602  0.3729 -0.2807
16759SOL    HW157327   6.380   7.260   2.920  2.2531 -0.8546 -0.8110
16759SOL    HW257328   6.407   7.234   3.066  2.3111 -1.1784 -0.8794
16760SOL     OW57329   4.693   1.208   0.771  0.2604 -0.1282  0.1212
16760SOL    HW157330   4.614   1.177   0.815 -0.0167 -0.8555 -0.8648
16760SOL    HW257331   4.679   1.188   0.679  1.1912  0.6040 -0.1966
16761SOL     OW57332   6.558   8.124   6.935  0.3833  0.1859  0.2957
16761SOL    HW157333   6.519   8.039   6.956  2.2766 -0.5786  0.8892
16761SOL    HW257334   6.647   8.119   6.968  0.1420  2.9510  1.6886
16762SOL     OW57335   9.204   6.532   5.322 -0.2016  0.0395  0.2328
16762SOL    HW157336   9.118   6.490   5.314 -1.6435  2.2336  2.6903
16762SOL    HW257337   9.205   6.596   5.250 -0.1303 -0.7419 -0.4741
16763SOL     OW57338   8.582  11.809   8.673  0.1385  0.5230  0.1693
16763SOL    HW157339   8.556  11.856   8.753 -0.9052  2.0434 -0.9968
16763SOL    HW257340   8.671  11.840   8.655 -0.1567  1.2823 -0.0219
16764SOL     OW57341   2.392   4.108  10.588 -0.1758  0.3562 -0.3946
16764SOL    HW157342   2.393   4.188  10.641  0.6247  0.4613 -0.5475
16764SOL    HW257343   2.467   4.118  10.529  0.3907 -0.8397  0.0931
16765SOL     OW57344  11.313   9.406   9.683 -0.0334  0.2904  0.0789
16765SOL    HW157345  11.316   9.361   9.599 -0.5079  1.2712 -0.4815
16765SOL    HW257346  11.278   9.341   9.744  0.7937 -0.5875 -0.3588
16766SOL     OW57347  12.512   1.078   9.621 -0.0051  0.2894 -0.1813
16766SOL    HW157348  12.476   1.062   9.708  1.4607 -0.2918  0.3574
16766SOL    HW257349  12.604   1.101   9.637  0.5963 -0.9271 -1.6037
16767SOL     OW57350  10.451   5.620   7.595 -0.6023 -0.0135 -0.0089
16767SOL    HW157351  10.442   5.715   7.586  0.2615  0.0932  0.1545
16767SOL    HW257352  10.434   5.604   7.688  1.0393  0.2207  0.3575
16768SOL     OW57353  11.101   7.404   6.608 -0.0182  0.0351 -0.5803
16768SOL    HW157354  11.078   7.352   6.531  0.0374 -0.2321 -0.4184
16768SOL    HW257355  11.194   7.387   6.621  0.1024  0.5272 -0.7920
16769SOL     OW57356  10.079   1.265   5.460  0.2180  0.1908  0.7792
16769SOL    HW157357  10.088   1.299   5.550 -0.7658  1.4499  0.4393
16769SOL    HW257358  10.140   1.317   5.409  0.2977 -0.0682  0.6152
16770SOL     OW57359  11.099   5.945   1.225  0.4349 -0.4626 -0.2696
16770SOL    HW157360  11.135   5.866   1.185 -1.8930 -1.1689 -1.1274
16770SOL    HW257361  11.071   5.918   1.312 -0.7471 -0.7166 -0.7181
16771SOL     OW57362  12.378   8.981   3.311 -0.5399 -0.1044 -0.4592
16771SOL    HW157363  12.473   8.976   3.306 -0.2669  0.2731  2.3876
16771SOL    HW257364  12.354   9.057   3.258  1.1078  1.5767  1.0584
16772SOL     OW57365   9.263   1.396   7.394  0.5374 -0.3158 -0.2042
16772SOL    HW157366   9.357   1.415   7.394  0.7049 -0.9903  1.0769
16772SOL    HW257367   9.253   1.318   7.340  1.2096 -2.1436  2.1398
16773SOL     OW57368  10.152   2.665   9.078 -0.4896  0.6175  0.3151
16773SOL    HW157369  10.060   2.687   9.060 -0.5274  1.2486  1.1938
16773SOL    HW257370  10.156   2.570   9.069 -1.3331  0.5403  0.6454
16774SOL     OW57371   1.005   9.633   6.151  0.3696 -0.1047 -0.2179
16774SOL    HW157372   0.923   9.592   6.124  0.8167  1.0661 -3.8757
16774SOL    HW257373   0.992   9.654   6.244 -3.2451 -0.3569 -0.5355
16775SOL     OW57374  10.825   1.763   9.324  0.0366 -0.6283  0.1622
16775SOL    HW157375  10.786   1.680   9.299 -1.1405 -0.9016  2.5966
16775SOL    HW257376  10.803   1.823   9.253 -1.1113 -1.8429 -0.5463
16776SOL     OW57377  11.360   9.917   1.508  0.0231 -0.3380  0.2368
16776SOL    HW157378  11.413   9.933   1.430 -0.2170  1.5418  0.4132
16776SOL    HW257379  11.275   9.887   1.474  0.4504 -1.1584 -0.1315
16777SOL     OW57380   3.353   0.639   9.032  0.0497  0.1223 -0.0474
16777SOL    HW157381   3.357   0.593   8.947 -0.9012  0.9135 -0.5420
16777SOL    HW257382   3.374   0.571   9.096  0.0194 -0.6816 -0.8567
16778SOL     OW57383   1.971   4.110   4.630  0.5223  0.1268  0.0551
16778SOL    HW157384   1.882   4.100   4.596  1.0074  0.8600 -1.5452
16778SOL    HW257385   1.972   4.059   4.711 -1.6989  1.0903  0.7767
16779SOL     OW57386   8.422  11.196   2.851 -0.1083  0.2623  0.1481
16779SOL    HW157387   8.373  11.133   2.798  0.6117 -0.0696 -0.1391
16779SOL    HW257388   8.358  11.230   2.914 -0.1525 -2.0465  1.4769
16780SOL     OW57389   3.108  11.858   9.751  0.9894  0.1643 -0.6544
16780SOL    HW157390   3.177  11.794   9.732  0.6523 -0.7539  1.0196
16780SOL    HW257391   3.027  11.806   9.755  0.6860  0.6954  0.6066
16781SOL     OW57392   4.341   7.885   1.774 -0.2014  0.3941 -0.1274
16781SOL    HW157393   4.360   7.946   1.703 -0.4729  0.8503  0.1861
16781SOL    HW257394   4.283   7.933   1.832 -1.0260 -0.4204 -0.2508
16782SOL     OW57395  11.393  11.265   7.638 -0.4156 -0.0963 -0.2942
16782SOL    HW157396  11.424  11.191   7.690 -0.3658 -0.4339 -0.8010
16782SOL    HW257397  11.353  11.324   7.702  0.5588 -0.0215  0.2582
16783SOL     OW57398   6.993   2.353  10.907 -0.3221  0.2161  0.1236
16783SOL    HW157399   7.050   2.353  10.831 -0.1675 -2.8666  0.0967
16783SOL    HW257400   7.022   2.427  10.960  1.5138  0.6673 -1.4411
16784SOL     OW57401  11.349   5.985  10.734  0.2860  0.0706  0.0319
16784SOL    HW157402  11.361   6.076  10.706  1.5310  0.1700  0.7966
16784SOL    HW257403  11.264   5.984  10.778 -0.0887  0.6811 -0.6645
16785SOL     OW57404   7.978   2.108  12.582 -0.3559 -0.2541 -0.4011
16785SOL    HW157405   7.996   2.197  12.552 -2.8752  0.5330  0.1180
16785SOL    HW257406   7.884   2.110  12.604 -0.3109 -2.8580  0.2605
16786SOL     OW57407  11.938   3.939   9.165 -0.5866  0.0229 -0.2469
16786SOL    HW157408  11.892   3.861   9.133 -1.0963 -0.6826  2.0251
16786SOL    HW257409  12.010   3.905   9.218 -1.6358  0.9695  1.9556
16787SOL     OW57410   4.840   5.385   9.535 -0.7568  0.2694 -0.5185
16787SOL    HW157411   4.869   5.437   9.610  1.5007 -2.6471  0.8462
16787SOL    HW257412   4.902   5.408   9.466  2.2429 -2.4280  0.9680
16788SOL     OW57413   6.109   1.934   0.625  0.5882  0.0099 -0.1074
16788SOL    HW157414   6.087   1.939   0.532  0.8590  1.3973 -0.1206
16788SOL    HW257415   6.026   1.946   0.671  0.0269 -3.0074 -0.1015
16789SOL     OW57416   6.745   1.746   4.859 -0.1074  0.2780 -0.5691
16789SOL    HW157417   6.750   1.670   4.801 -1.4383  0.7791 -1.3889
16789SOL    HW257418   6.826   1.744   4.909 -0.4420 -2.1335 -0.0133
16790SOL     OW57419   7.769   7.572  11.072 -0.5223 -0.4109  0.9999
16790SOL    HW157420   7.828   7.620  11.130  1.1332 -1.5585  0.3430
16790SOL    HW257421   7.748   7.634  11.002  0.1537 -0.0592  1.0963
16791SOL     OW57422  10.764   0.414   0.588  0.2753 -0.7311 -0.3166
16791SOL    HW157423  10.774   0.459   0.504  1.4201 -0.1939  0.0936
16791SOL    HW257424  10.685   0.452   0.626  1.6902  1.6982  0.4371
16792SOL     OW57425   8.556   5.561   4.761 -0.2876  0.9787 -0.3661
16792SOL    HW157426   8.616   5.489   4.741  1.3532  1.4942  2.2108
16792SOL    HW257427   8.591   5.635   4.711  1.3664  1.2788  1.1257
16793SOL     OW57428  11.040   9.888   9.613  0.2223 -0.2461 -0.1820
16793SOL    HW157429  10.994   9.853   9.536  0.3591  0.9008 -0.8020
16793SOL    HW257430  11.067   9.810   9.662 -1.6646 -0.9768 -0.2092
16794SOL     OW57431   7.024   5.062   6.687  0.6840 -0.0330  0.3434
16794SOL    HW157432   6.988   5.140   6.645 -2.6412 -1.3449  0.4211
16794SOL    HW257433   7.074   5.019   6.618  0.8345  1.1158 -0.2903
16795SOL     OW57434   4.401   1.296  11.936 -0.0392 -0.0264  0.7514
16795SOL    HW157435   4.495   1.280  11.929 -0.1997 -0.8613  0.3801
16795SOL    HW257436   4.392   1.391  11.929  0.6647 -0.0382 -0.6650
16796SOL     OW57437  10.455   4.187   9.868 -0.1586  0.4788 -0.0920
16796SOL    HW157438  10.548   4.173   9.851  0.5109 -0.6436  3.4589
16796SOL    HW257439  10.411   4.114   9.824  0.7685  0.4218 -0.9371
16797SOL     OW57440   5.652   8.988   5.308 -0.4754  0.1152 -0.1425
16797SOL    HW157441   5.609   8.904   5.322 -0.4278  0.1091 -0.0365
16797SOL    HW257442   5.594   9.052   5.350 -0.7605  0.1919 -0.6421
16798SOL     OW57443  11.140   6.047   3.927  0.4311 -0.3004 -0.5680
16798SOL    HW157444  11.146   6.107   4.002 -1.9037 -1.1600  0.4080
16798SOL    HW257445  11.186   5.968   3.956 -1.5201 -1.0944  0.5386
16799SOL     OW57446   4.460  11.978   4.878  0.3422  0.0327  0.3796
16799SOL    HW157447   4.552  12.007   4.877  0.1990  0.8234 -3.2652
16799SOL    HW257448   4.409  12.058   4.870 -0.4474 -0.5839 -1.2896
16800SOL     OW57449  11.604   6.148  10.623  0.1027 -0.0538 -0.3543
16800SOL    HW157450  11.572   6.058  10.622  0.7185 -0.2706 -0.9899
16800SOL    HW257451  11.541   6.195  10.678 -0.3065 -0.8357 -0.1395
16801SOL     OW57452   9.010   3.419   4.119  0.3658  0.7370  0.0241
16801SOL    HW157453   9.038   3.496   4.070 -0.9853  1.5213  0.4333
16801SOL    HW257454   9.054   3.426   4.203  1.5194  0.1702 -0.5019
16802SOL     OW57455   4.589   3.405  11.281  0.1256 -0.2239  0.2511
16802SOL    HW157456   4.613   3.388  11.189  0.3412 -1.6080  0.5456
16802SOL    HW257457   4.509   3.457  11.275  0.1822 -0.2143 -0.7193
16803SOL     OW57458   1.657   3.977   0.432 -0.1417  0.1118 -0.0066
16803SOL    HW157459   1.731   3.923   0.405  0.5925  1.3807 -0.6420
16803SOL    HW257460   1.596   3.916   0.473  1.0576 -1.0335  0.1354
16804SOL     OW57461   7.259   9.633  12.495  1.1030 -0.0653  0.2987
16804SOL    HW157462   7.221   9.570  12.557  2.1399  1.0320  2.1191
16804SOL    HW257463   7.190   9.646  12.429 -0.0379 -1.2693  1.1987
16805SOL     OW57464   7.626   3.934   0.133 -0.0676 -0.0048  0.5615
16805SOL    HW157465   7.538   3.962   0.111 -0.2965 -1.2032 -0.1643
16805SOL    HW257466   7.675   3.940   0.051 -0.5359 -3.0676 -0.0762
16806SOL     OW57467   4.547  12.578  11.852  0.2774 -0.0261 -0.3719
16806SOL    HW157468   4.460  12.538  11.854  1.0448 -1.8403 -0.9741
16806SOL    HW257469   4.576  12.577  11.943 -0.2607  0.4241 -0.1935
16807SOL     OW57470   3.829   4.057   1.343 -0.3284  0.3890 -0.4254
16807SOL    HW157471   3.833   4.136   1.397 -0.7361 -0.4332  0.8627
16807SOL    HW257472   3.789   3.991   1.400  0.9372 -1.0403 -1.0963
16808SOL     OW57473   2.987   8.600   5.405  0.0669 -0.3291  0.4900
16808SOL    HW157474   2.928   8.639   5.340  0.2922  0.7916  0.9429
16808SOL    HW257475   3.074   8.605   5.365  0.3002  0.9590  1.1285
16809SOL     OW57476   5.399  10.164  11.681 -0.0170  0.3750 -0.1900
16809SOL    HW157477   5.365  10.174  11.769 -1.2654 -0.6415 -0.5357
16809SOL    HW257478   5.423  10.072  11.674 -2.0252 -0.1115 -1.5878
16810SOL     OW57479   7.328   8.887   5.555 -0.4549  0.0897 -0.2752
16810SOL    HW157480   7.384   8.825   5.602  0.2277  0.1784 -0.9393
16810SOL    HW257481   7.246   8.888   5.604 -0.6165 -1.6230 -0.4374
16811SOL     OW57482   8.256  12.573   4.331  0.7468 -0.8740 -0.1530
16811SOL    HW157483   8.190  12.531   4.276 -1.2486  1.2031  0.4988
16811SOL    HW257484   8.307  12.500   4.367 -0.0403 -2.4546 -2.0458
16812SOL     OW57485   5.863   8.162   9.900  0.1989  0.5388 -0.0035
16812SOL    HW157486   5.914   8.082   9.886 -1.0425 -0.2702 -0.0092
16812SOL    HW257487   5.772   8.133   9.901 -0.3722  2.1570 -1.4658
16813SOL     OW57488   8.948   4.478   1.177  0.3118  0.0505 -0.3927
16813SOL    HW157489   8.991   4.510   1.256 -1.1803  3.2795 -0.7367
16813SOL    HW257490   8.874   4.427   1.210  0.5816  0.0704  0.2642
16814SOL     OW57491   7.223  11.648  11.775  0.6599  0.4653 -0.0410
16814SOL    HW157492   7.215  11.717  11.841  1.6847  1.4855 -0.9456
16814SOL    HW257493   7.208  11.693  11.692 -0.0934 -0.6995 -0.5597
16815SOL     OW57494   0.128  10.797   1.539  0.3596  0.3253  0.3574
16815SOL    HW157495   0.130  10.887   1.573 -0.4619 -0.0500  1.4525
16815SOL    HW257496   0.072  10.749   1.600 -0.9585 -0.4606 -1.3673
16816SOL     OW57497   0.185   0.422  10.472 -0.0747 -0.9204 -0.6244
16816SOL    HW157498   0.150   0.339  10.505  0.3474 -1.1028 -0.6337
16816SOL    HW257499   0.222   0.465  10.548 -0.7053 -0.5269 -0.5343
16817SOL     OW57500   8.874   9.967  10.945  0.1296 -0.0875  0.1713
16817SOL    HW157501   8.881   9.976  10.850  0.6465 -1.8999 -0.0082
16817SOL    HW257502   8.963   9.983  10.976  0.3774 -1.2990  0.1380
16818SOL     OW57503   0.248   2.343   1.753 -0.2245  0.0187  0.3528
16818SOL    HW157504   0.225   2.307   1.839  0.9218 -1.4721  0.0781
16818SOL    HW257505   0.298   2.273   1.710  1.7841  1.7991 -0.3834
16819SOL     OW57506   6.727   2.589   3.592 -0.2397 -0.0507 -0.3185
16819SOL    HW157507   6.668   2.655   3.556  0.7372 -0.2050 -2.3623
16819SOL    HW257508   6.774   2.555   3.515 -1.8719 -4.3778  0.3617
16820SOL     OW57509   4.198   7.359   5.914  0.3576  0.2106  0.3998
16820SOL    HW157510   4.182   7.284   5.972  0.5124 -1.0886 -1.1555
16820SOL    HW257511   4.112   7.381   5.880  0.6073 -0.9944 -1.1289
16821SOL     OW57512   0.392  11.290   1.242 -0.2628 -0.0407 -0.2118
16821SOL    HW157513   0.381  11.377   1.280  2.7812 -0.0139  0.8454
16821SOL    HW257514   0.389  11.230   1.316  1.5908 -0.3875 -0.3540
16822SOL     OW57515  10.995   6.058   8.939 -0.1951  0.1835  0.3175
16822SOL    HW157516  10.901   6.067   8.923  0.1392  2.0477 -0.8617
16822SOL    HW257517  11.004   5.972   8.979 -2.2844 -0.4592 -0.4596
16823SOL     OW57518  12.271  11.659  11.683  0.0492  0.3014 -0.5759
16823SOL    HW157519  12.359  11.655  11.722  0.9717 -0.8986 -2.5903
16823SOL    HW257520  12.284  11.706  11.601 -1.1290 -0.1431 -1.0299
16824SOL     OW57521   8.420   0.099   3.093 -0.5205  0.2722 -0.6931
16824SOL    HW157522   8.367   0.096   3.173 -2.3904  2.5360 -1.7233
16824SOL    HW257523   8.498   0.047   3.113 -1.3389  0.0369  2.2606
16825SOL     OW57524  10.052   2.610  11.342  0.3999 -0.2217  0.8690
16825SOL    HW157525  10.074   2.517  11.333  2.9220  0.3510  0.4211
16825SOL    HW257526   9.976   2.622  11.285  0.9412 -1.7175 -0.2356
16826SOL     OW57527  11.938   1.317   4.402  1.0314 -0.1763  0.6343
16826SOL    HW157528  11.861   1.290   4.451  0.3958  1.0745  0.3847
16826SOL    HW257529  11.966   1.398   4.444  0.4163  0.9843 -1.0578
16827SOL     OW57530   8.041   1.340   0.095 -0.5309  0.1405  0.0959
16827SOL    HW157531   8.123   1.366   0.053 -0.4870  0.4704  0.3832
16827SOL    HW257532   7.973   1.364   0.031 -0.5204  1.2895  0.4917
16828SOL     OW57533  12.394  10.818  12.101 -0.1002  0.1522 -0.1475
16828SOL    HW157534  12.407  10.723  12.106 -0.7044 -0.0675 -2.1011
16828SOL    HW257535  12.471  10.854  12.145  1.1808 -1.2258 -1.1499
16829SOL     OW57536  11.810   2.664   1.009  0.1270  0.9814  0.3660
16829SOL    HW157537  11.739   2.650   1.072 -0.2364  0.1545 -0.2115
16829SOL    HW257538  11.876   2.712   1.058  1.9864 -3.5761  2.9709
16830SOL     OW57539  11.031   2.404   7.342 -0.7614 -0.1741 -0.0327
16830SOL    HW157540  10.940   2.415   7.370 -0.5676 -1.2400  1.1042
16830SOL    HW257541  11.048   2.311   7.353  0.6430  0.1025  0.3333
16831SOL     OW57542   2.525   0.961   7.766 -0.4375  0.1668 -0.4826
16831SOL    HW157543   2.457   0.895   7.756  0.8625 -1.1560 -0.9407
16831SOL    HW257544   2.555   0.979   7.677 -0.0393  0.5661 -0.2748
16832SOL     OW57545   9.185   0.159   0.343 -0.4319 -0.3239 -0.1713
16832SOL    HW157546   9.117   0.109   0.389  0.8256 -0.5711  1.5368
16832SOL    HW257547   9.265   0.138   0.391  1.0628 -0.8863 -2.7597
16833SOL     OW57548   5.502  11.418   8.644 -0.0577  0.2822  0.1371
16833SOL    HW157549   5.583  11.470   8.640  0.2571 -0.1367  0.8382
16833SOL    HW257550   5.523  11.347   8.704 -1.2612  0.7032  1.0867
16834SOL     OW57551   9.895   1.965  10.093 -0.4732 -0.1463 -0.2274
16834SOL    HW157552   9.885   1.884  10.043  0.5177 -0.8776  0.7329
16834SOL    HW257553   9.988   1.972  10.111 -0.1957  2.2846 -1.9880
16835SOL     OW57554  10.611   5.423   8.348  0.5504 -0.3319  0.0618
16835SOL    HW157555  10.673   5.400   8.417 -0.2056 -2.3971  0.1277
16835SOL    HW257556  10.657   5.404   8.266 -0.0132 -2.0558  0.1137
16836SOL     OW57557   4.782   0.254  12.126 -0.0402 -0.1117 -0.3693
16836SOL    HW157558   4.852   0.284  12.183 -0.1115 -1.0930  0.2574
16836SOL    HW257559   4.756   0.332  12.076  1.8256  0.1568 -0.9908
16837SOL     OW57560   4.959   5.526  10.425 -0.0355 -0.6339 -0.7328
16837SOL    HW157561   4.896   5.495  10.491 -0.8407  0.5878 -0.9055
16837SOL    HW257562   5.044   5.497  10.459 -0.6767 -2.5207 -0.6159
16838SOL     OW57563  12.065   7.596   9.123 -0.4964 -0.6819  0.5106
16838SOL    HW157564  12.109   7.521   9.163  3.6242  1.6072  0.8554
16838SOL    HW257565  12.042   7.652   9.197 -0.6593 -0.2220  0.1154
16839SOL     OW57566   7.014   0.876   9.605 -0.1239 -0.2133  0.3259
16839SOL    HW157567   6.986   0.967   9.605  0.6502  0.0745  1.9569
16839SOL    HW257568   7.107   0.880   9.628 -0.1492 -1.4147  0.6965
16840SOL     OW57569   4.393   1.793  12.588  0.1086 -0.1721  0.4644
16840SOL    HW157570   4.414   1.797  12.681  0.2869 -0.5527  0.4438
16840SOL    HW257571   4.468   1.833  12.544 -0.0715  0.2009  0.4954
16841SOL     OW57572   1.859  10.172  12.005  0.2678 -0.1425  0.4538
16841SOL    HW157573   1.913  10.250  11.994 -0.2867  0.3338  0.9994
16841SOL    HW257574   1.903  10.105  11.954  0.5519  0.6289 -0.3476
16842SOL     OW57575   7.999   1.501  10.399  0.7129  0.1662  0.8031
16842SOL    HW157576   8.054   1.423  10.405  2.0781  1.1647  2.1516
16842SOL    HW257577   8.060   1.572  10.380 -0.6356  0.8033 -1.4932
16843SOL     OW57578   8.606   2.314   4.373  0.2268 -0.4014  0.0639
16843SOL    HW157579   8.676   2.347   4.317  0.7629  2.7028  2.3109
16843SOL    HW257580   8.650   2.270   4.445  0.0134  1.3517  1.3602
16844SOL     OW57581   6.852   0.458  11.528  0.2148  0.2552 -0.1086
16844SOL    HW157582   6.923   0.420  11.478  0.1110 -0.8006  0.5210
16844SOL    HW257583   6.817   0.386  11.580 -1.0932  0.8285 -0.1412
16845SOL     OW57584   6.296   8.278   0.843  0.4202 -0.3708  0.1433
16845SOL    HW157585   6.292   8.351   0.781 -1.1086  0.9305  1.6585
16845SOL    HW257586   6.209   8.240   0.840  0.8257 -1.3328  0.3103
16846SOL     OW57587  11.091   3.072  12.026  0.4836 -0.1825 -0.1290
16846SOL    HW157588  11.123   3.161  12.008 -0.7968  0.0982 -1.1797
16846SOL    HW257589  11.015   3.085  12.083  1.7481 -0.7945  1.7735
16847SOL     OW57590   1.587   1.021   8.325  0.3320  0.0159 -0.5798
16847SOL    HW157591   1.554   1.108   8.347 -1.4452 -0.8715  0.5999
16847SOL    HW257592   1.570   1.011   8.232 -1.0218  0.3533 -0.3974
16848SOL     OW57593   7.305   7.790  12.132  0.6120 -0.6183 -0.1228
16848SOL    HW157594   7.257   7.715  12.096  2.8206 -1.0914 -2.4013
16848SOL    HW257595   7.350   7.755  12.208  0.6605 -1.2813 -0.4508
16849SOL     OW57596   5.474   9.142   7.181  0.7362  0.3198 -0.0759
16849SOL    HW157597   5.533   9.216   7.195  0.3292  0.5720  0.3501
16849SOL    HW257598   5.436   9.159   7.095  1.1761  0.2274 -0.2932
16850SOL     OW57599   0.761   9.959   1.588  0.0188 -0.1145  0.8703
16850SOL    HW157600   0.687   9.899   1.595  0.7559 -1.0525  0.8740
16850SOL    HW257601   0.816   9.921   1.520 -0.0369  1.1725  0.0733
16851SOL     OW57602  11.277   6.216   2.588 -0.1354 -0.3312  0.0589
16851SOL    HW157603  11.211   6.278   2.557  0.1059  0.6082  1.3696
16851SOL    HW257604  11.290   6.238   2.680  2.5198  0.0143 -0.3209
16852SOL     OW57605   7.308   0.651   3.019 -0.2659  0.5078 -0.6658
16852SOL    HW157606   7.284   0.688   2.934 -2.2604  2.0236  0.4770
16852SOL    HW257607   7.282   0.717   3.082  1.1407 -0.5902  1.1765
16853SOL     OW57608   6.055  12.473   5.241  0.3240 -0.2546 -0.2041
16853SOL    HW157609   6.147  12.453   5.259  0.2497 -0.7189 -0.3288
16853SOL    HW257610   6.055  12.503   5.150  0.2710 -0.8646 -0.4145
16854SOL     OW57611   5.427  12.017   7.471  0.7287  0.1732 -0.1092
16854SOL    HW157612   5.522  12.006   7.479  0.7074  0.3689  0.4607
16854SOL    HW257613   5.393  11.928   7.463  0.9981  0.1265 -0.8148
16855SOL     OW57614   5.927   6.683   8.460 -0.2681 -0.4434  0.4725
16855SOL    HW157615   5.962   6.766   8.429 -1.8357 -0.2738 -1.0016
16855SOL    HW257616   5.977   6.616   8.413  0.5716 -0.3336  1.1912
16856SOL     OW57617   8.759   0.777   9.933 -0.1684 -0.3400  0.1414
16856SOL    HW157618   8.749   0.844   9.999  1.9210  0.0040  0.1847
16856SOL    HW257619   8.670   0.759   9.902 -0.7183  3.3122 -0.7680
16857SOL     OW57620  10.927   9.184  10.828 -0.2095  0.2591 -0.3172
16857SOL    HW157621  10.860   9.249  10.846  0.6778  0.3355  3.6124
16857SOL    HW257622  11.005   9.216  10.874  1.1598 -2.0633 -0.8510
16858SOL     OW57623   1.904  10.803   9.676 -0.2556  0.5398  0.1040
16858SOL    HW157624   1.968  10.743   9.637  0.5927  1.9062 -0.6901
16858SOL    HW257625   1.824  10.787   9.627 -0.8312 -1.7935  1.6654
16859SOL     OW57626  11.634  11.480   3.788  0.0570  1.0136  0.3902
16859SOL    HW157627  11.660  11.456   3.699 -1.1355  1.3537 -0.0757
16859SOL    HW257628  11.544  11.511   3.779 -0.3097  0.4630  1.8080
16860SOL     OW57629   3.219   1.115   3.782  0.6852  0.1564  0.8814
16860SOL    HW157630   3.177   1.073   3.857 -0.2982  0.1860  0.3668
16860SOL    HW257631   3.146   1.141   3.726  1.3563  1.0686  0.4105
16861SOL     OW57632   8.805  11.080  10.847  0.0689  1.0377 -0.0455
16861SOL    HW157633   8.885  11.047  10.806  1.0508  2.7017  0.4361
16861SOL    HW257634   8.835  11.147  10.908 -1.7001  1.7860  0.0638
16862SOL     OW57635   1.809   1.957   6.675  0.3475 -0.3371 -0.2271
16862SOL    HW157636   1.715   1.949   6.660 -0.0916  1.2768  1.3555
16862SOL    HW257637   1.819   2.038   6.724  2.5391 -0.6925  0.0166
16863SOL     OW57638   8.343   0.080   6.527  0.0619 -0.0774  0.0819
16863SOL    HW157639   8.258   0.071   6.571  0.6899 -0.9132  1.1620
16863SOL    HW257640   8.332   0.034   6.444 -0.5908 -0.0257  0.1340
16864SOL     OW57641  10.199   4.485   2.653  0.2860  0.3440 -0.1890
16864SOL    HW157642  10.178   4.425   2.582 -0.0768 -0.8255  0.8719
16864SOL    HW257643  10.137   4.557   2.643 -1.0592 -0.7484  0.0685
16865SOL     OW57644  10.195  11.314   2.464 -0.1546 -0.0050 -0.2004
16865SOL    HW157645  10.127  11.281   2.522  0.6073  2.1873  2.1312
16865SOL    HW257646  10.156  11.391   2.423  0.1740 -0.0494 -0.6025
16866SOL     OW57647   1.009   9.642  10.641  0.0640  0.4096 -0.4133
16866SOL    HW157648   0.947   9.628  10.713  2.0958  0.3128  1.3938
16866SOL    HW257649   1.069   9.709  10.673  1.5368 -0.2334 -1.7096
16867SOL     OW57650   2.799   9.050   2.725 -0.4010 -0.0626 -0.0351
16867SOL    HW157651   2.838   9.128   2.687 -0.4914  0.6497  1.2635
16867SOL    HW257652   2.717   9.038   2.678 -0.3151  0.5337 -0.3427
16868SOL     OW57653   0.287   9.850   1.988  0.2524 -0.5968 -0.1829
16868SOL    HW157654   0.363   9.907   1.998 -1.5949  1.6790  1.8580
16868SOL    HW257655   0.223   9.902   1.941 -0.4158 -2.1672 -1.0971
16869SOL     OW57656   5.330   8.496   2.909 -0.4233 -0.1846 -0.3177
16869SOL    HW157657   5.388   8.539   2.972  2.1887 -2.4985 -0.9070
16869SOL    HW257658   5.271   8.444   2.963  0.8161 -0.9999  0.3096
16870SOL     OW57659   4.414   7.045  12.185  0.7315 -0.8204 -0.0364
16870SOL    HW157660   4.474   6.987  12.231  3.6601  0.7526 -1.5695
16870SOL    HW257661   4.459   7.066  12.102 -0.6181  2.6165 -0.0847
16871SOL     OW57662  11.186   2.426   4.774  0.3625  0.1748 -0.6103
16871SOL    HW157663  11.271   2.392   4.802  1.0531  0.2278 -2.4928
16871SOL    HW257664  11.181   2.513   4.815 -0.6005 -1.3046  2.7086
16872SOL     OW57665   8.960   1.768   3.587 -0.1362  0.3127  0.0362
16872SOL    HW157666   8.892   1.819   3.632 -0.0594  0.5301 -0.0962
16872SOL    HW257667   8.917   1.685   3.566  0.0725 -0.1272  1.2642
16873SOL     OW57668   1.638  10.295   8.070  0.0497 -0.8864  1.1681
16873SOL    HW157669   1.617  10.388   8.062  1.1707 -0.5444  1.9327
16873SOL    HW257670   1.729  10.288   8.041 -0.3819 -1.9494 -0.0103
16874SOL     OW57671   3.686   7.400   6.037  0.4633 -0.3544  0.3311
16874SOL    HW157672   3.737   7.338   6.089  3.3505 -0.4316 -2.3168
16874SOL    HW257673   3.648   7.347   5.968  0.2834  0.3608 -0.1265
16875SOL     OW57674   5.240   6.432   6.689  0.0299 -0.3259 -0.2432
16875SOL    HW157675   5.317   6.397   6.733  1.5211  1.8850 -0.9619
16875SOL    HW257676   5.243   6.526   6.705 -1.0025  0.1670 -2.5096
16876SOL     OW57677   2.335  10.268   1.441  0.1549 -0.0779 -0.6268
16876SOL    HW157678   2.370  10.182   1.419  0.7482  0.0973 -0.3849
16876SOL    HW257679   2.276  10.289   1.369  0.6318 -0.3341 -1.1035
16877SOL     OW57680   0.278   6.889   3.596 -0.3589  0.2328  0.8496
16877SOL    HW157681   0.312   6.903   3.684 -0.0386  1.9631  0.4843
16877SOL    HW257682   0.188   6.920   3.600 -1.1132 -1.8142  1.1093
16878SOL     OW57683   5.951   3.985  11.784  0.3231  0.6850  0.2498
16878SOL    HW157684   5.958   3.889  11.787 -1.1737  0.5346 -0.1680
16878SOL    HW257685   5.993   4.014  11.865  1.4620 -0.2637  0.0338
16879SOL     OW57686  11.969   1.436  10.393 -0.0816  0.1156  0.1968
16879SOL    HW157687  11.939   1.448  10.483 -1.2557 -2.8310  0.3070
16879SOL    HW257688  11.902   1.480  10.340 -0.5159  0.0721  0.7016
16880SOL     OW57689   1.913   8.345   3.193  0.3606  0.5695 -0.6841
16880SOL    HW157690   1.872   8.430   3.178  0.6279  0.8105 -0.0835
16880SOL    HW257691   1.849   8.281   3.162 -0.0477  0.9725 -0.6757
16881SOL     OW57692  10.623   3.734   2.250  0.0618 -0.2572 -0.0606
16881SOL    HW157693  10.558   3.803   2.267 -1.1530 -1.8645  2.4673
16881SOL    HW257694  10.594   3.694   2.168  0.6931  2.0134 -1.4926
16882SOL     OW57695  11.025   3.505  10.355  0.6479 -0.7342 -0.6981
16882SOL    HW157696  11.015   3.447  10.280 -2.5043 -1.6540  0.2711
16882SOL    HW257697  11.055   3.447  10.426 -2.0760 -1.2469  0.1557
16883SOL     OW57698  10.074  11.406   9.888 -0.0715  0.2364  0.0435
16883SOL    HW157699  10.167  11.423   9.902  0.3237 -2.3856  1.2947
16883SOL    HW257700  10.036  11.407   9.976 -0.7419 -0.9675 -0.2069
16884SOL     OW57701  10.925   7.595   0.743 -0.0560 -0.2298 -0.5939
16884SOL    HW157702  11.006   7.545   0.750 -0.5486 -1.0427 -0.5771
16884SOL    HW257703  10.859   7.542   0.789 -0.4902  0.6750 -0.1257
16885SOL     OW57704   7.340   1.201   1.239 -0.1767  0.3848  0.1923
16885SOL    HW157705   7.413   1.206   1.177 -0.7698 -0.0126 -0.5412
16885SOL    HW257706   7.282   1.273   1.215 -0.1214  0.5933  0.6653
16886SOL     OW57707   5.823  11.686   8.977 -1.0552 -0.6923 -0.2892
16886SOL    HW157708   5.800  11.763   8.925  0.6007  1.4389  1.9005
16886SOL    HW257709   5.913  11.666   8.951  0.0060  0.7460  1.9324
16887SOL     OW57710   4.947   3.465   3.493  0.1687  0.7151  0.4025
16887SOL    HW157711   4.958   3.415   3.412  3.0089  1.6190  0.1290
16887SOL    HW257712   4.964   3.403   3.563 -2.0366 -0.0060  0.3634
16888SOL     OW57713   4.931   1.736  12.466 -0.5284 -0.2372  0.3305
16888SOL    HW157714   4.979   1.815  12.440 -1.3819  0.4034  0.6583
16888SOL    HW257715   5.000   1.673  12.491  0.2682 -0.4024 -2.0447
16889SOL     OW57716   3.863  10.372   1.545  0.2915  0.2819 -0.3011
16889SOL    HW157717   3.925  10.302   1.525  1.1980  1.0996 -0.4276
16889SOL    HW257718   3.879  10.438   1.477 -2.1496 -0.3353 -1.6143
16890SOL     OW57719   4.488   0.532   8.510 -0.2279 -0.1614  0.3948
16890SOL    HW157720   4.538   0.597   8.558  0.2534 -0.7098  0.6533
16890SOL    HW257721   4.397   0.544   8.539 -0.1901  0.5890  0.2049
16891SOL     OW57722   6.588   7.999   2.952 -0.2411  0.1213 -0.3562
16891SOL    HW157723   6.657   8.018   2.889  0.2514  0.2316  0.2092
16891SOL    HW257724   6.508   8.028   2.909  0.3721  2.7090  0.1198
16892SOL     OW57725  11.697   8.483  10.798 -0.0319 -0.8918 -0.4375
16892SOL    HW157726  11.642   8.499  10.721  1.0144 -0.7330 -1.1666
16892SOL    HW257727  11.648   8.521  10.871  0.5981  2.3433 -1.5467
16893SOL     OW57728   6.548  10.137   2.009  0.2196 -0.0116 -0.1308
16893SOL    HW157729   6.495  10.144   2.089  0.5882 -0.2987  0.1446
16893SOL    HW257730   6.533  10.048   1.978 -0.8645  0.4648 -1.0660
16894SOL     OW57731  12.529   6.969   4.717  0.5391  0.1235  0.3251
16894SOL    HW157732  12.460   6.913   4.684  1.5249 -0.2249 -1.2095
16894SOL    HW257733  12.483   7.045   4.753 -0.6368  0.0808 -1.0107
16895SOL     OW57734   1.573   7.135   5.576  0.0280  0.0411 -0.1493
16895SOL    HW157735   1.649   7.157   5.628 -0.0968  2.6020 -0.9135
16895SOL    HW257736   1.604   7.138   5.485 -0.5581 -0.8823 -0.4010
16896SOL     OW57737   1.917   4.617   0.949  0.5483 -0.0751  0.2750
16896SOL    HW157738   1.908   4.707   0.981 -0.5231  0.5815 -1.7065
16896SOL    HW257739   1.861   4.566   1.007  0.4349  0.6649  0.8434
16897SOL     OW57740  12.182  11.814   9.919 -0.1042  0.3928 -0.0982
16897SOL    HW157741  12.144  11.858   9.995 -1.2465  1.6729 -1.3415
16897SOL    HW257742  12.112  11.815   9.853  0.6876 -1.0992 -1.0219
16898SOL     OW57743  10.460   5.206   4.704 -0.7038 -0.4194  0.6560
16898SOL    HW157744  10.399   5.133   4.701 -1.3146  0.0295  1.6458
16898SOL    HW257745  10.454   5.239   4.793 -1.0475  1.3467  0.0252
16899SOL     OW57746   4.451   3.719   9.098 -0.0274  0.0421  0.1223
16899SOL    HW157747   4.428   3.715   9.005  0.6192  1.6525 -0.1451
16899SOL    HW257748   4.367   3.729   9.142 -0.3679 -1.0590 -0.2411
16900SOL     OW57749   7.274   0.536   1.178 -0.1023  0.3862 -0.2546
16900SOL    HW157750   7.179   0.548   1.175 -0.1016  0.4102 -0.1842
16900SOL    HW257751   7.298   0.507   1.090 -0.4305 -1.4887  0.2392
16901SOL     OW57752   2.341   2.861  10.355 -0.0076  0.2565 -0.6921
16901SOL    HW157753   2.328   2.955  10.358 -2.2516  0.0071 -0.5255
16901SOL    HW257754   2.356   2.835  10.446 -0.7081  0.3155 -0.5560
16902SOL     OW57755  12.327   3.653   3.991 -0.1624  0.1835 -0.1471
16902SOL    HW157756  12.286   3.661   4.078 -1.5006  0.1298 -0.7475
16902SOL    HW257757  12.413   3.693   4.002 -2.0312  4.7503  0.0256
16903SOL     OW57758   7.050   3.453   0.374 -0.2368  0.4574 -0.3771
16903SOL    HW157759   7.001   3.372   0.380  1.3780 -0.6703 -1.5984
16903SOL    HW257760   7.096   3.461   0.458 -0.7998  0.4008 -0.0605
16904SOL     OW57761   5.572  11.897  10.341  0.4489 -0.6390 -0.8581
16904SOL    HW157762   5.536  11.837  10.275  0.8258  0.6203 -2.2669
16904SOL    HW257763   5.624  11.959  10.290  1.3422 -0.0435  0.7280
16905SOL     OW57764   0.772  10.676   1.944  0.3146  0.5933 -0.4470
16905SOL    HW157765   0.745  10.673   2.036  1.6000 -0.9082 -0.0791
16905SOL    HW257766   0.857  10.720   1.944  1.4017 -1.3756 -0.5653
16906SOL     OW57767   1.613   1.082   6.381  0.4950 -0.0170 -0.6360
16906SOL    HW157768   1.663   1.002   6.394 -1.6395 -1.2236  0.6851
16906SOL    HW257769   1.630   1.135   6.459  0.1851 -0.1857 -0.4498
16907SOL     OW57770   4.327   0.759   8.298 -0.1008 -0.1509  0.0914
16907SOL    HW157771   4.323   0.819   8.224  0.3782 -0.0351  0.1569
16907SOL    HW257772   4.247   0.707   8.291 -0.4027  0.3404 -0.0946
16908SOL     OW57773   0.256   7.525   7.533 -0.1545 -0.3663  0.5516
16908SOL    HW157774   0.315   7.595   7.561 -0.0479  0.3414 -1.2607
16908SOL    HW257775   0.226   7.553   7.447 -1.9653 -1.4491  0.7801
16909SOL     OW57776   8.933  11.074   6.742  0.3185 -0.0097  0.5673
16909SOL    HW157777   8.928  11.025   6.660  0.7741 -0.7256  0.9582
16909SOL    HW257778   8.984  11.018   6.801  1.9937  1.4799  0.6221
16910SOL     OW57779   8.511   0.620   1.103 -0.8040  0.1994 -0.1216
16910SOL    HW157780   8.553   0.633   1.188 -1.1904  0.3895  0.0495
16910SOL    HW257781   8.441   0.558   1.121 -0.4468 -0.2979 -0.4518
16911SOL     OW57782   9.083   0.348   1.971 -0.0326  0.1802  0.0641
16911SOL    HW157783   9.011   0.346   1.908 -0.6905 -0.2191  0.8179
16911SOL    HW257784   9.071   0.429   2.020 -0.7910 -0.5486  1.1180
16912SOL     OW57785  11.531   9.385   5.198  0.0255 -0.5265 -0.0469
16912SOL    HW157786  11.522   9.434   5.117  0.4562 -1.4289 -0.6641
16912SOL    HW257787  11.528   9.451   5.267  0.1725  0.3115 -0.8216
16913SOL     OW57788   2.180   4.127   1.420 -0.5007 -0.9336 -0.2073
16913SOL    HW157789   2.093   4.158   1.395  0.3122  1.3351 -0.4875
16913SOL    HW257790   2.237   4.155   1.349  0.7797 -0.3945  0.9692
16914SOL     OW57791   9.091   0.430   4.642  0.2768 -0.2037 -0.0934
16914SOL    HW157792   9.066   0.340   4.663 -0.3348 -0.9878 -3.6073
16914SOL    HW257793   9.012   0.469   4.604  1.6087  0.4417 -2.3921
16915SOL     OW57794   8.802   8.743   3.498  0.1465  0.4223  0.2050
16915SOL    HW157795   8.877   8.709   3.545  1.0702  2.5439  0.3630
16915SOL    HW257796   8.831   8.748   3.407 -0.5981 -0.8150 -0.1298
16916SOL     OW57797   8.077   1.021   8.507 -1.0809  0.3618  0.0432
16916SOL    HW157798   8.073   0.926   8.493  0.2566  0.1485  1.0119
16916SOL    HW257799   8.014   1.037   8.577 -0.0372 -0.0771  1.1059
16917SOL     OW57800  10.018   6.155   7.183  0.2538 -0.1566  0.4171
16917SOL    HW157801  10.060   6.135   7.099  0.8264  2.5522 -0.0567
16917SOL    HW257802  10.039   6.247   7.198  0.3864 -0.6178  3.7102
16918SOL     OW57803   4.595   4.513   5.965 -0.3689 -0.2136  0.0770
16918SOL    HW157804   4.582   4.420   5.984  0.7003 -0.2664  0.5883
16918SOL    HW257805   4.649   4.514   5.886 -0.7478 -0.0142 -0.1856
16919SOL     OW57806  10.570  10.637  10.151  0.4665  0.1031  0.1410
16919SOL    HW157807  10.609  10.549  10.143 -1.5093 -0.8238  0.0744
16919SOL    HW257808  10.645  10.695  10.160  1.9547 -1.3586 -1.8214
16920SOL     OW57809  11.443  11.322   6.749 -0.5683 -0.4274  0.1882
16920SOL    HW157810  11.353  11.287   6.747 -1.0148  0.6682  0.5501
16920SOL    HW257811  11.494  11.258   6.700 -1.8416 -0.2547 -1.4571
16921SOL     OW57812   3.931   8.205   6.621  0.7208  0.0026  0.4132
16921SOL    HW157813   3.952   8.150   6.545  1.9154  2.1417 -0.9186
16921SOL    HW257814   3.923   8.144   6.694 -2.0999 -2.3956 -1.6313
16922SOL     OW57815   1.153   3.206  12.170 -0.5428 -0.4691 -0.2711
16922SOL    HW157816   1.170   3.112  12.174  0.2999 -0.3102  0.2078
16922SOL    HW257817   1.207   3.243  12.241 -1.8543  0.2393  0.3976
16923SOL     OW57818   3.345   2.239   0.051 -1.1547  1.1242 -0.3880
16923SOL    HW157819   3.439   2.224   0.056 -1.4052 -0.2495  0.7285
16923SOL    HW257820   3.334   2.293  -0.027  0.4359  0.2453 -1.2704
16924SOL     OW57821   7.659   5.804   0.925  0.6731  0.7430  0.1086
16924SOL    HW157822   7.675   5.898   0.924  0.8835  0.7047 -0.9834
16924SOL    HW257823   7.627   5.783   0.838 -2.2516  0.2483  1.1779
16925SOL     OW57824   6.854  12.420   3.448  0.5006 -0.6087  0.3171
16925SOL    HW157825   6.838  12.514   3.440  1.3110 -0.2334  2.4979
16925SOL    HW257826   6.781  12.387   3.500  1.4023 -0.7094  1.5818
16926SOL     OW57827   8.155  12.271  10.152 -0.1439  0.0354  0.2859
16926SOL    HW157828   8.249  12.290  10.148 -0.1459  0.5900  2.1303
16926SOL    HW257829   8.150  12.179  10.178 -0.1168 -0.0111  0.1297
16927SOL     OW57830  12.004  10.136  11.816  0.1558 -0.2039 -0.1407
16927SOL    HW157831  12.039  10.107  11.900  0.1626 -1.9596 -0.7160
16927SOL    HW257832  12.078  10.179  11.773  0.4014 -0.0879  0.3842
16928SOL     OW57833  11.356   7.160   6.483  0.1366  0.2613  0.4113
16928SOL    HW157834  11.362   7.096   6.554  0.3599  1.4040  1.4669
16928SOL    HW257835  11.344   7.244   6.528 -0.1681  0.9629 -0.9305
16929SOL     OW57836   5.410   7.814   1.275 -0.4967  0.0674 -0.1370
16929SOL    HW157837   5.330   7.854   1.308 -1.1635  0.2071 -1.8244
16929SOL    HW257838   5.385   7.775   1.192  1.7457  2.7348 -2.2758
16930SOL     OW57839   9.687   1.962   9.645 -0.3123 -0.4286  0.4433
16930SOL    HW157840   9.649   2.001   9.724  0.5736 -1.3698  1.3681
16930SOL    HW257841   9.669   1.869   9.653  1.3909 -0.7878  0.4805
16931SOL     OW57842   9.290   0.673   2.083 -0.2826 -0.0649 -0.3447
16931SOL    HW157843   9.295   0.727   2.003  1.1015 -0.7383 -0.7450
16931SOL    HW257844   9.313   0.585   2.054  3.9841  0.2706  1.3055
16932SOL     OW57845   1.591   8.285   6.893  0.2709  0.2657 -0.1349
16932SOL    HW157846   1.545   8.369   6.901 -1.0495 -0.5026  0.7230
16932SOL    HW257847   1.679   8.309   6.863 -0.9298  1.7303 -2.8741
16933SOL     OW57848   4.918  12.260   3.687  0.4737  0.1198 -0.0756
16933SOL    HW157849   4.956  12.284   3.772  3.5873  0.7337 -1.5225
16933SOL    HW257850   4.953  12.172   3.669 -1.9993 -1.0132  0.2003
16934SOL     OW57851   4.514   4.528   8.330 -0.2078 -0.1178 -0.4948
16934SOL    HW157852   4.609   4.533   8.318 -0.2993  0.3424 -1.0218
16934SOL    HW257853   4.503   4.514   8.424  0.3016  2.8536  0.1140
16935SOL     OW57854   0.221   7.222   7.962 -0.1359  0.2880  0.5566
16935SOL    HW157855   0.130   7.231   7.933  0.3195 -0.2722 -1.1752
16935SOL    HW257856   0.236   7.298   8.018 -0.3937  2.9278 -2.6851
16936SOL     OW57857   7.618   9.127  11.278  0.0383  0.1033 -0.2860
16936SOL    HW157858   7.581   9.042  11.302 -2.8403  2.1005  3.4879
16936SOL    HW257859   7.590   9.141  11.187 -0.0789 -2.5323 -0.7324
16937SOL     OW57860   5.767   6.717   3.814 -0.1897  0.3956 -0.1092
16937SOL    HW157861   5.698   6.659   3.848  1.1561 -0.6447  0.9428
16937SOL    HW257862   5.721   6.798   3.793 -1.5366  0.2953  2.0659
16938SOL     OW57863   0.566  11.346   4.863 -0.0070 -0.0794  0.9820
16938SOL    HW157864   0.629  11.299   4.917 -0.3485 -0.8683  0.6954
16938SOL    HW257865   0.575  11.309   4.776 -0.7876 -0.1266  0.9134
16939SOL     OW57866   7.451   7.638   6.210  0.3406 -0.5062  0.2806
16939SOL    HW157867   7.447   7.542   6.204 -0.0562 -0.5009  0.4273
16939SOL    HW257868   7.385   7.660   6.276 -0.9151  0.0114 -1.0921
16940SOL     OW57869   0.692   8.880   9.636  0.2740 -0.3542  0.4053
16940SOL    HW157870   0.597   8.874   9.633  0.2321 -0.0481 -2.5751
16940SOL    HW257871   0.710   8.973   9.649  0.0462  0.0289 -1.6553
16941SOL     OW57872  10.911   7.344   7.923 -0.1463  0.0381 -0.3916
16941SOL    HW157873  10.856   7.402   7.976 -1.9649 -0.6262 -1.4674
16941SOL    HW257874  10.865   7.260   7.923  1.5885 -0.9664 -0.2249
16942SOL     OW57875   7.626  10.614   5.142  0.3939 -0.0021 -0.5217
16942SOL    HW157876   7.698  10.583   5.086 -1.5133  0.0610 -3.1661
16942SOL    HW257877   7.614  10.705   5.118 -0.1609  0.1669  0.3592
16943SOL     OW57878   7.954   5.235   7.864 -0.1779 -0.2655  0.0287
16943SOL    HW157879   7.957   5.279   7.949 -1.6639 -1.8162  0.9633
16943SOL    HW257880   8.040   5.195   7.854  0.6979  1.5730 -0.1696
16944SOL     OW57881  11.915   6.890   4.268  0.5133  0.4307  0.1666
16944SOL    HW157882  11.928   6.866   4.359 -1.5769  1.2937  0.7479
16944SOL    HW257883  11.847   6.957   4.270 -0.3082 -0.2242 -2.0980
16945SOL     OW57884   0.012  12.203   0.724 -0.0630  0.1037 -0.0235
16945SOL    HW157885  -0.013  12.291   0.752 -1.7517 -1.0336  2.4316
16945SOL    HW257886  -0.072  12.159   0.706  0.6669 -1.3249 -0.1084
16946SOL     OW57887   7.632   9.898  12.223 -0.3287  0.3394 -0.2806
16946SOL    HW157888   7.597   9.853  12.300 -0.6392  0.6500 -0.2375
16946SOL    HW257889   7.554   9.919  12.170 -0.0230 -1.3280 -1.4929
16947SOL     OW57890   9.293  11.898   2.166 -0.2988  0.3014  0.5044
16947SOL    HW157891   9.337  11.933   2.088  1.2580 -0.8518  0.8284
16947SOL    HW257892   9.360  11.901   2.235 -0.1504 -2.9667  0.6381
16948SOL     OW57893  11.799   8.689   5.177  0.4213  0.1858  0.2795
16948SOL    HW157894  11.832   8.600   5.186  1.6873  0.7339  1.3428
16948SOL    HW257895  11.734   8.683   5.107 -1.1644 -1.9954  1.7890
16949SOL     OW57896   4.972   1.984   2.614 -0.2097 -0.0460  0.0805
16949SOL    HW157897   4.910   1.930   2.566  1.2497 -1.5749 -0.1795
16949SOL    HW257898   4.966   1.954   2.704  0.3561 -0.4264 -0.0020
16950SOL     OW57899   1.186   1.827  11.188  0.4166 -0.1857 -0.3547
16950SOL    HW157900   1.147   1.806  11.103 -0.5962 -2.1396  0.5271
16950SOL    HW257901   1.223   1.744  11.218 -0.5165  0.1040  1.7404
16951SOL     OW57902   7.398  11.502  12.278  0.0731 -0.0180  0.3994
16951SOL    HW157903   7.373  11.410  12.268 -0.1237 -0.0616  1.2437
16951SOL    HW257904   7.333  11.550  12.225  0.7955 -0.4138 -0.8954
16952SOL     OW57905   1.203   3.653   6.990  0.0365  0.3322 -0.1290
16952SOL    HW157906   1.212   3.614   6.903 -1.5890 -0.9295  0.2028
16952SOL    HW257907   1.109   3.655   7.005  0.2918  0.4278  1.6392
16953SOL     OW57908   8.336   0.295   5.894 -0.3444  0.7013  0.2005
16953SOL    HW157909   8.258   0.338   5.932 -0.4307  1.5026 -0.8356
16953SOL    HW257910   8.325   0.203   5.916 -1.0856  0.9439  0.9283
16954SOL     OW57911   0.633   8.674   8.403  0.0245  0.2431  0.1648
16954SOL    HW157912   0.706   8.637   8.454 -0.9355 -0.9524  0.7257
16954SOL    HW257913   0.649   8.644   8.314 -0.1070 -0.5603  0.4004
16955SOL     OW57914   4.650   3.587   6.730 -1.0219 -0.3265 -0.0656
16955SOL    HW157915   4.734   3.550   6.701 -1.5449 -3.4915  2.0573
16955SOL    HW257916   4.662   3.682   6.721  2.0797 -0.7267 -1.5799
16956SOL     OW57917   0.809   2.007   3.356 -0.3272  0.3476  0.3129
16956SOL    HW157918   0.723   2.000   3.397  0.2215 -0.5813  1.3497
16956SOL    HW257919   0.866   2.040   3.425  0.1716  0.8721 -0.3413
16957SOL     OW57920  12.247   7.389  10.309  0.1148  0.2275 -0.0916
16957SOL    HW157921  12.175   7.331  10.337  0.4726  0.3798  1.1627
16957SOL    HW257922  12.267   7.359  10.220 -0.1713 -1.1317  0.2752
16958SOL     OW57923  10.435   1.072   6.517  0.2727 -0.3102 -0.1910
16958SOL    HW157924  10.484   1.154   6.511 -0.6451  0.3988  1.5162
16958SOL    HW257925  10.344   1.098   6.509  0.0395 -1.4138 -1.5021
16959SOL     OW57926   7.163   7.618   1.538 -0.5298 -0.1075  0.5228
16959SOL    HW157927   7.202   7.706   1.534 -1.8754  0.4639 -1.2200
16959SOL    HW257928   7.223   7.568   1.593  1.5768  1.2696 -0.3811
16960SOL     OW57929   7.684   2.038   4.470 -0.1301  0.4929 -0.4538
16960SOL    HW157930   7.650   1.960   4.514  0.8055  0.3544  0.0660
16960SOL    HW257931   7.616   2.063   4.408 -0.2683 -0.9756 -0.9259
16961SOL     OW57932   8.604   3.294  11.573  0.2178  0.0290  0.3315
16961SOL    HW157933   8.615   3.352  11.648  1.1546 -1.4581  1.4106
16961SOL    HW257934   8.682   3.309  11.519  1.3928 -1.4232  1.5222
16962SOL     OW57935   3.377   1.758   8.057 -0.5522  0.4629 -0.1565
16962SOL    HW157936   3.334   1.734   7.975  0.4512  0.9329 -0.8506
16962SOL    HW257937   3.345   1.695   8.121  1.4316 -2.3802 -1.7449
16963SOL     OW57938  10.681   9.715   1.372  0.1083 -0.0907  0.0945
16963SOL    HW157939  10.675   9.808   1.351  0.6536 -0.1163 -0.2080
16963SOL    HW257940  10.688   9.671   1.287  2.1304 -0.2100  0.2563
16964SOL     OW57941   7.874  10.334   8.429  1.3223  0.1431 -1.1166
16964SOL    HW157942   7.909  10.423   8.427 -0.5404  0.9592 -0.6593
16964SOL    HW257943   7.848  10.321   8.521  2.3399 -1.2219 -0.9890
16965SOL     OW57944   5.958   8.464   5.860  0.4933 -0.3779  0.0881
16965SOL    HW157945   5.968   8.545   5.811 -1.6353 -0.1343 -0.0730
16965SOL    HW257946   6.035   8.412   5.839  0.2388  0.1970 -2.5798
16966SOL     OW57947   1.957  11.971   0.283 -0.1165  0.4761 -0.4863
16966SOL    HW157948   1.919  11.884   0.299  0.8077 -0.0565 -1.0349
16966SOL    HW257949   1.891  12.018   0.233 -0.6440  0.0912 -0.1554
16967SOL     OW57950  12.165   5.585   2.676  0.1171 -0.0538 -0.0598
16967SOL    HW157951  12.109   5.509   2.691  0.2532 -0.1854 -0.2190
16967SOL    HW257952  12.105   5.657   2.660 -0.0193 -0.0716  0.3659
16968SOL     OW57953   4.589  10.801  11.201  0.3748  0.4377  0.5095
16968SOL    HW157954   4.606  10.707  11.192  0.1577  0.5270 -1.1472
16968SOL    HW257955   4.598  10.836  11.112 -1.2269  1.6979  0.7993
16969SOL     OW57956   7.399   9.725   4.042 -0.7339 -0.2415 -0.0768
16969SOL    HW157957   7.370   9.725   3.951 -1.1168  0.4128  0.0321
16969SOL    HW257958   7.455   9.648   4.050 -0.3064 -0.0400 -0.9851
16970SOL     OW57959   6.150   9.075   9.019  0.4756 -0.0500  0.0953
16970SOL    HW157960   6.140   9.039   8.931  0.5343 -1.3356  0.5914
16970SOL    HW257961   6.225   9.134   9.013 -0.3557  0.9346 -1.0171
16971SOL     OW57962  11.238   4.169   6.664  0.6836  0.3151 -0.8567
16971SOL    HW157963  11.198   4.252   6.691 -1.2804 -0.9960  0.4928
16971SOL    HW257964  11.238   4.172   6.569  0.0298  1.5721 -0.8392
16972SOL     OW57965   9.960   0.192   6.457 -0.0826  0.2037 -0.2974
16972SOL    HW157966   9.939   0.283   6.432  1.3257  0.8632  0.7721
16972SOL    HW257967   9.899   0.139   6.406  0.8768  1.5857 -3.1481
16973SOL     OW57968  12.469   5.181   3.682  0.5904 -0.6615 -0.1758
16973SOL    HW157969  12.543   5.134   3.645  0.2691 -0.3169 -1.2930
16973SOL    HW257970  12.430   5.226   3.608 -1.7253 -2.1190  0.0553
16974SOL     OW57971   0.756   3.639  11.764  0.5203 -0.0317  0.2295
16974SOL    HW157972   0.714   3.617  11.847  1.1657 -0.2201  0.5125
16974SOL    HW257973   0.709   3.586  11.699 -0.8808  1.1062  0.2547
16975SOL     OW57974   8.425   5.305  10.991 -0.7568  0.0797  0.8001
16975SOL    HW157975   8.494   5.366  11.014 -0.8522  0.2518  0.6377
16975SOL    HW257976   8.430   5.236  11.057 -1.2603  0.7447  1.5573
16976SOL     OW57977   0.477  10.227   4.423 -0.0674  0.3392 -0.2510
16976SOL    HW157978   0.484  10.274   4.339 -0.2616 -0.4249 -0.7032
16976SOL    HW257979   0.432  10.145   4.401 -1.0652  0.5786  0.7828
16977SOL     OW57980  11.232  12.471  10.374 -0.0153  0.4702  0.6453
16977SOL    HW157981  11.307  12.412  10.375 -0.0021  0.4854  0.4351
16977SOL    HW257982  11.156  12.414  10.362 -0.0760  0.4127  1.2578
16978SOL     OW57983   5.437  12.242   7.220  0.5461 -0.9147  0.1409
16978SOL    HW157984   5.470  12.324   7.185 -2.6702  0.4673  0.0476
16978SOL    HW257985   5.421  12.259   7.313 -2.1634 -0.6268 -0.3022
16979SOL     OW57986  10.863  10.390   8.436  0.0710 -0.2449 -1.1529
16979SOL    HW157987  10.924  10.413   8.366  0.0510  0.2100 -1.0280
16979SOL    HW257988  10.804  10.466   8.442 -1.7083 -1.4320 -2.5500
16980SOL     OW57989  11.485   2.747   6.771 -0.5341 -0.1561  0.4428
16980SOL    HW157990  11.536   2.725   6.693 -2.0920  1.4230 -1.1113
16980SOL    HW257991  11.451   2.663   6.801 -1.9149 -0.6194 -2.0996
16981SOL     OW57992   5.417   8.243  11.189  0.1530  0.3667 -0.0161
16981SOL    HW157993   5.384   8.324  11.227  0.4217  1.1277 -1.3399
16981SOL    HW257994   5.445   8.267  11.101  0.0708 -1.2127 -0.5092
16982SOL     OW57995   5.746   0.289  10.202 -0.0660  0.0266 -0.4727
16982SOL    HW157996   5.753   0.296  10.107  0.6953  1.2876 -0.3447
16982SOL    HW257997   5.757   0.378  10.234  0.1445 -0.4346  0.8314
16983SOL     OW57998   5.183   8.138   8.977 -0.2510 -0.0914  0.8171
16983SOL    HW157999   5.112   8.176   8.925 -0.6585 -1.6648  0.1798
16983SOL    HW258000   5.228   8.080   8.916 -0.2063 -1.3171  1.9898
16984SOL     OW58001   2.492   8.113   0.511 -0.0381  0.2597  0.5964
16984SOL    HW158002   2.438   8.088   0.436 -1.1553  0.1340  1.4145
16984SOL    HW258003   2.575   8.066   0.497 -0.4565 -0.2649 -0.2322
16985SOL     OW58004   8.606   8.467   7.477  0.0514 -0.4753  0.6010
16985SOL    HW158005   8.679   8.529   7.476 -1.6543  1.6323 -0.7737
16985SOL    HW258006   8.619   8.414   7.399  1.4454 -1.8855  1.7142
16986SOL     OW58007   1.419   2.004   1.571  0.0521 -0.2831  0.3788
16986SOL    HW158008   1.439   2.055   1.493 -0.9040 -0.6221 -0.1122
16986SOL    HW258009   1.502   1.963   1.596  0.5377  0.4763  0.0214
16987SOL     OW58010  10.042   2.205   0.868 -0.1338  0.2831  0.0053
16987SOL    HW158011  10.130   2.177   0.844 -0.9288 -1.0104 -1.6797
16987SOL    HW258012   9.998   2.124   0.896 -1.1512  0.6552 -0.4456
16988SOL     OW58013  12.177   0.962   2.034 -0.1304  0.1854  0.3534
16988SOL    HW158014  12.105   0.905   2.061  0.8497 -1.8773 -1.0713
16988SOL    HW258015  12.228   0.976   2.113 -1.2986  0.4722  1.0747
16989SOL     OW58016   0.457   5.073   3.334 -0.1126 -0.1758 -0.5326
16989SOL    HW158017   0.432   5.046   3.423  0.8382  0.3289 -0.0989
16989SOL    HW258018   0.496   4.994   3.296 -1.3378 -0.6556 -0.8375
16990SOL     OW58019   0.962   5.781   1.749  0.0569 -0.2342 -0.2886
16990SOL    HW158020   0.889   5.839   1.769 -1.4099 -2.0362 -0.2040
16990SOL    HW258021   1.020   5.788   1.825 -0.8311 -0.0212  0.3814
16991SOL     OW58022   5.885   2.885   4.988 -0.3923 -0.3650 -0.4255
16991SOL    HW158023   5.898   2.869   5.082  0.3937 -2.4518 -0.8236
16991SOL    HW258024   5.938   2.962   4.969  0.9573 -1.0270  0.5072
16992SOL     OW58025  11.484   7.785   4.505  0.0489 -0.6344  0.0672
16992SOL    HW158026  11.555   7.726   4.480  0.7920 -1.0533  2.8758
16992SOL    HW258027  11.418   7.728   4.545  0.6192  0.3130  2.5028
16993SOL     OW58028  10.013   3.141   4.550 -0.3602 -0.2743 -0.0188
16993SOL    HW158029  10.003   3.109   4.460  0.5532 -0.5134 -0.0440
16993SOL    HW258030  10.049   3.229   4.541  0.4354 -0.5775  0.1171
16994SOL     OW58031   5.746   4.872   2.714  0.4444  0.1093  0.2137
16994SOL    HW158032   5.662   4.871   2.759 -0.3053 -0.5197 -1.1371
16994SOL    HW258033   5.763   4.965   2.695  0.3373  0.2876  0.9584
16995SOL     OW58034   7.759   9.643   1.781  0.2700 -0.3955  0.0796
16995SOL    HW158035   7.774   9.721   1.728  0.3893  0.4605  1.3158
16995SOL    HW258036   7.715   9.676   1.859  2.6562 -1.1305  1.8551
16996SOL     OW58037   5.629   7.177  10.549  0.1696  0.1600  0.5065
16996SOL    HW158038   5.709   7.183  10.601  0.3209  1.0706  0.1832
16996SOL    HW258039   5.563   7.220  10.603  0.4438  1.5955 -0.2570
16997SOL     OW58040   3.297   5.339   0.041  0.2908  0.5635 -0.0368
16997SOL    HW158041   3.387   5.358   0.069 -0.5146  0.9898  2.5851
16997SOL    HW258042   3.260   5.288   0.113 -1.6076  0.4960 -1.0025
16998SOL     OW58043   2.866  11.350   4.025  0.0186 -0.4962 -0.0745
16998SOL    HW158044   2.872  11.284   3.957  2.0804 -0.2699 -0.1973
16998SOL    HW258045   2.927  11.320   4.093  0.1360  0.6866  0.3745
16999SOL     OW58046  12.495   7.088   8.095 -0.2415 -0.4201  0.3565
16999SOL    HW158047  12.571   7.032   8.109 -0.8049 -1.5440 -0.8965
16999SOL    HW258048  12.503   7.118   8.005 -1.7539 -1.3339 -0.1234
17000SOL     OW58049  12.041   8.049   5.860 -0.5776  0.1380  0.2073
17000SOL    HW158050  12.050   8.052   5.765  1.3441 -0.5245  0.3406
17000SOL    HW258051  12.004   8.135   5.882 -0.0729  0.7131 -1.0488
17001SOL     OW58052   4.005   7.969   7.526 -0.6323  0.4624  0.0481
17001SOL    HW158053   3.972   7.914   7.454 -1.3763 -0.0672  0.7679
17001SOL    HW258054   4.001   7.912   7.603  2.2939  0.2783  0.1662
17002SOL     OW58055   1.648   3.213   8.305  0.1237  0.0684  0.0507
17002SOL    HW158056   1.591   3.285   8.330 -0.9240  0.3104 -2.7737
17002SOL    HW258057   1.591   3.136   8.303  0.4684 -0.1831 -0.2688
17003SOL     OW58058   7.255  11.917  10.476 -0.7738 -0.3567  0.2607
17003SOL    HW158059   7.168  11.917  10.436 -0.3688 -1.2000 -0.6553
17003SOL    HW258060   7.269  11.826  10.504 -0.6862  0.0303  1.5694
17004SOL     OW58061  10.807   2.619  10.606 -0.1967  0.2261  0.2484
17004SOL    HW158062  10.902   2.627  10.597 -0.3127  1.3491 -0.1641
17004SOL    HW258063  10.780   2.565  10.532  0.4633 -3.3071  2.3168
17005SOL     OW58064  12.502   4.584   0.125 -0.2291 -0.1904  0.4128
17005SOL    HW158065  12.536   4.667   0.094 -0.1800 -0.7126 -1.0131
17005SOL    HW258066  12.418   4.574   0.081 -0.8491 -0.3000  1.5862
17006SOL     OW58067   4.601   3.415  11.573  0.2901  0.0550 -0.6681
17006SOL    HW158068   4.669   3.421  11.505 -0.1333  0.6316 -1.0447
17006SOL    HW258069   4.636   3.466  11.647  1.0276 -1.0891 -0.2044
17007SOL     OW58070   1.464   9.762   1.633  0.0631  0.0156  0.2729
17007SOL    HW158071   1.458   9.673   1.668  1.3568 -0.6797 -1.1976
17007SOL    HW258072   1.377   9.798   1.647 -0.6848 -1.6983  0.3066
17008SOL     OW58073   3.994   2.379   1.733  0.0716 -0.5895  0.3366
17008SOL    HW158074   3.927   2.340   1.790  0.7715 -1.2254  0.7593
17008SOL    HW258075   3.993   2.323   1.655 -0.3220 -0.2126  0.0673
17009SOL     OW58076   2.382   3.322   9.127 -0.7088 -0.2672  0.0654
17009SOL    HW158077   2.413   3.247   9.179 -1.6685 -0.3444  0.5471
17009SOL    HW258078   2.374   3.393   9.190  0.7347  0.4363 -0.4871
17010SOL     OW58079   1.045   0.163  11.215 -0.3438 -0.2269  0.0941
17010SOL    HW158080   0.962   0.120  11.235 -0.8161  0.3061 -0.6605
17010SOL    HW258081   1.061   0.144  11.122 -0.3300  0.8229 -0.1318
17011SOL     OW58082   1.541   1.532   6.272  0.1977  0.2816  0.1847
17011SOL    HW158083   1.522   1.439   6.261  2.6393 -0.3279  0.5175
17011SOL    HW258084   1.526   1.569   6.185 -1.7270 -0.1899  0.2695
17012SOL     OW58085  12.434   8.266   1.190  0.5841 -0.0101 -0.3030
17012SOL    HW158086  12.346   8.299   1.208  0.1403 -1.3437  0.0539
17012SOL    HW258087  12.421   8.194   1.128  1.4378 -0.1040 -0.3857
17013SOL     OW58088  10.034   9.001  12.077  0.5881  0.2486 -0.1273
17013SOL    HW158089   9.967   8.994  12.009 -0.0649  2.2956  0.2478
17013SOL    HW258090  10.064   8.911  12.090 -2.3062 -0.8142 -0.1038
17014SOL     OW58091   9.203   7.254   8.305  0.1863 -0.0497  0.3961
17014SOL    HW158092   9.190   7.187   8.238  2.1365  0.0717 -0.1800
17014SOL    HW258093   9.137   7.321   8.286  0.3508 -0.2795 -1.0804
17015SOL     OW58094   8.750  11.444   2.306  0.4536 -0.3616  0.4185
17015SOL    HW158095   8.668  11.490   2.321  1.1526  1.2210 -0.3838
17015SOL    HW258096   8.812  11.513   2.282  1.8607 -1.5932  0.3918
17016SOL     OW58097   0.755   0.420   3.005  0.0470 -0.0081  0.1670
17016SOL    HW158098   0.693   0.347   2.997  1.7728 -1.3424 -2.2825
17016SOL    HW258099   0.749   0.467   2.922  1.2039  0.7752  0.4997
17017SOL     OW58100   3.520   0.892   5.429 -0.4711 -0.8447 -0.0174
17017SOL    HW158101   3.482   0.805   5.429  0.7628 -1.4519  1.8228
17017SOL    HW258102   3.479   0.936   5.504 -0.0331 -0.3626 -0.0534
17018SOL     OW58103   5.879   3.682   3.694 -0.8649  0.0453 -0.5133
17018SOL    HW158104   5.798   3.722   3.725 -1.5101 -0.4249 -1.5617
17018SOL    HW258105   5.878   3.594   3.733 -1.0745 -0.1109 -0.8661
17019SOL     OW58106   3.560   8.512   2.270 -0.1853  0.1529  0.3375
17019SOL    HW158107   3.584   8.483   2.359 -1.4024  1.6339  1.1956
17019SOL    HW258108   3.639   8.557   2.238  0.3475 -0.6038  0.5457
17020SOL     OW58109  11.697   6.474   4.213 -0.2803 -0.6549 -0.6768
17020SOL    HW158110  11.727   6.437   4.296 -2.0137 -1.5873 -0.4065
17020SOL    HW258111  11.603   6.488   4.226 -0.6739 -1.2001 -2.5976
17021SOL     OW58112   7.805   5.859   5.881 -0.5390  0.8075 -0.1378
17021SOL    HW158113   7.828   5.808   5.805 -1.1207 -0.4798  0.5202
17021SOL    HW258114   7.841   5.811   5.955  1.1570  2.6954  0.3686
17022SOL     OW58115   8.296   3.801   2.083  0.4479  0.4836 -0.1561
17022SOL    HW158116   8.356   3.823   2.154  1.3611  2.0526 -1.3508
17022SOL    HW258117   8.282   3.884   2.037 -0.6038 -0.3712 -1.4466
17023SOL     OW58118  10.046   7.468   7.743 -0.2733  0.0203  0.1769
17023SOL    HW158119  10.004   7.417   7.812  0.9617 -1.6362 -0.2411
17023SOL    HW258120  10.023   7.422   7.662 -1.9244  2.0754 -0.6147
17024SOL     OW58121  10.677   5.381  11.593 -0.2812 -0.3600  0.0515
17024SOL    HW158122  10.586   5.377  11.623 -0.8227 -0.2074 -1.4518
17024SOL    HW258123  10.726   5.330  11.657 -1.1406  0.9981  1.8538
17025SOL     OW58124   6.787   7.573  12.099  0.4546 -0.0297  0.0181
17025SOL    HW158125   6.695   7.577  12.074  0.4954  0.2723 -0.0881
17025SOL    HW258126   6.807   7.480  12.104 -0.3117 -0.1317  1.7303
17026SOL     OW58127   8.329  10.820  12.350  0.4527 -0.5715 -0.1747
17026SOL    HW158128   8.241  10.809  12.315  0.3050 -3.5238  0.7960
17026SOL    HW258129   8.320  10.801  12.444  1.7393  1.6057  0.4522
17027SOL     OW58130   5.284   3.393   2.560  0.5196  0.0205 -0.2923
17027SOL    HW158131   5.287   3.477   2.515  2.2316  0.3525  0.3578
17027SOL    HW258132   5.275   3.415   2.652 -0.0617 -0.5598 -0.1989
17028SOL     OW58133   5.181  11.142   1.374  0.7089 -0.1545  0.7460
17028SOL    HW158134   5.185  11.204   1.301  3.1771 -0.6649  0.3348
17028SOL    HW258135   5.108  11.084   1.354  0.8361  0.2271 -0.9188
17029SOL     OW58136   6.156   8.381  11.601  0.3986  0.0893  0.4250
17029SOL    HW158137   6.067   8.370  11.634  0.3231  0.5949  0.3972
17029SOL    HW258138   6.162   8.474  11.579  0.5312 -0.1930 -0.7626
17030SOL     OW58139   7.354   6.247   9.967  0.3765  0.0104 -0.7806
17030SOL    HW158140   7.426   6.226   9.907  0.5405  2.1705 -1.4270
17030SOL    HW258141   7.389   6.315  10.024 -0.1747 -1.1689  1.0593
17031SOL     OW58142   6.195  11.653   8.595 -0.2495 -0.5172 -0.4586
17031SOL    HW158143   6.250  11.691   8.526  1.2603 -3.1261 -0.8480
17031SOL    HW258144   6.208  11.711   8.670  0.9326  0.4214 -1.3289
17032SOL     OW58145   5.299   7.965   2.657  0.2098  0.3549  0.2375
17032SOL    HW158146   5.296   7.876   2.621 -0.0432  0.4403  0.0528
17032SOL    HW258147   5.306   7.952   2.752 -3.1787  0.1276  0.5493
17033SOL     OW58148   8.427   6.727   8.501  0.7904  0.4134 -0.1559
17033SOL    HW158149   8.434   6.802   8.443 -0.4123 -0.5700 -1.6363
17033SOL    HW258150   8.343   6.739   8.546  0.6034 -0.0125 -0.3826
17034SOL     OW58151  11.282  10.588   8.180 -0.0900  0.2868  0.0998
17034SOL    HW158152  11.220  10.584   8.107 -0.0116 -0.5515  0.0715
17034SOL    HW258153  11.243  10.651   8.241 -1.0935 -0.3823  0.1820
17035SOL     OW58154  10.257   3.903   5.467 -0.4407 -0.3247  0.2267
17035SOL    HW158155  10.257   3.839   5.396  3.2680 -0.4921  0.1834
17035SOL    HW258156  10.347   3.935   5.470 -1.4252  2.6540  2.2868
17036SOL     OW58157   0.241   5.939   7.263  0.4250 -0.1043  0.2780
17036SOL    HW158158   0.235   5.887   7.343  0.8506  1.1036  1.1176
17036SOL    HW258159   0.174   6.006   7.273 -0.2650 -0.5911 -0.8954
17037SOL     OW58160   7.723   8.218   4.726  0.0175 -0.0605  0.0649
17037SOL    HW158161   7.694   8.216   4.817  2.5754 -1.3450  0.9447
17037SOL    HW258162   7.818   8.208   4.730  0.1301 -1.2726 -2.7867
17038SOL     OW58163   4.875   9.140  11.410 -0.3564 -0.1054 -0.2513
17038SOL    HW158164   4.945   9.077  11.422  1.6137  1.9893 -0.0346
17038SOL    HW258165   4.823   9.105  11.337  1.3587 -1.3529 -0.9256
17039SOL     OW58166   1.106   8.103  10.694 -0.3896 -0.7397 -0.1821
17039SOL    HW158167   1.197   8.079  10.713 -0.4606  0.6822  2.5306
17039SOL    HW258168   1.068   8.120  10.781 -2.9663 -0.3460 -1.3177
17040SOL     OW58169   0.856   8.988   3.406 -0.3928 -0.4426  0.6004
17040SOL    HW158170   0.797   8.993   3.331 -0.5969 -0.6211  0.7447
17040SOL    HW258171   0.910   8.911   3.389 -0.1716 -0.2531  0.4474
17041SOL     OW58172   4.635   3.769   6.387 -0.2412  0.1169  0.1626
17041SOL    HW158173   4.640   3.805   6.298  0.9116  0.1491  0.2353
17041SOL    HW258174   4.614   3.676   6.373 -0.0655  0.1209 -0.1407
17042SOL     OW58175   3.971   2.354   4.986  0.4224 -0.1591 -0.1253
17042SOL    HW158176   3.952   2.343   4.893  0.1320  0.0215 -0.0890
17042SOL    HW258177   3.891   2.391   5.023 -0.0216 -1.6673  0.4830
17043SOL     OW58178   2.944   7.702  11.904  0.1987  0.4717  0.4548
17043SOL    HW158179   2.885   7.641  11.949 -0.2120  0.9691  0.6000
17043SOL    HW258180   2.911   7.705  11.815 -1.3112  2.3123  0.9994
17044SOL     OW58181   1.090   8.112   3.766 -0.2256  0.3748 -0.3967
17044SOL    HW158182   1.045   8.028   3.757  1.1340 -0.1481 -5.1253
17044SOL    HW258183   1.164   8.095   3.824 -1.0839 -1.1242  0.2932
17045SOL     OW58184  10.572   6.745   5.706  0.2807  0.2528 -0.2796
17045SOL    HW158185  10.574   6.839   5.690  0.2037  0.5246  1.2466
17045SOL    HW258186  10.660   6.715   5.680  0.4860  0.8229 -0.2450
17046SOL     OW58187   4.653  10.421   8.474 -0.0540  0.1839  0.0689
17046SOL    HW158188   4.651  10.506   8.429  2.0542  1.0847  1.5534
17046SOL    HW258189   4.645  10.443   8.567  0.2474 -1.2705  0.4494
17047SOL     OW58190   8.818  12.559   2.219  0.2100  0.3906 -0.1308
17047SOL    HW158191   8.870  12.613   2.279 -2.1457 -0.1021  2.5569
17047SOL    HW258192   8.767  12.622   2.168 -0.5394  0.7981  1.0880
17048SOL     OW58193  11.471   6.195  11.056  0.0484 -0.4269  0.4883
17048SOL    HW158194  11.432   6.108  11.073  0.4996 -0.5023  1.1719
17048SOL    HW258195  11.431   6.223  10.973 -1.5500 -0.4559  1.2035
17049SOL     OW58196   7.620   9.737   6.132  0.4861  0.2935 -0.2913
17049SOL    HW158197   7.586   9.796   6.199  1.1931  0.6699 -0.2522
17049SOL    HW258198   7.674   9.794   6.076  2.1189 -0.5009  0.4075
17050SOL     OW58199   7.711   7.065   9.945  0.1165 -0.1982 -0.5513
17050SOL    HW158200   7.701   7.157   9.919  0.4831 -0.3149 -1.1254
17050SOL    HW258201   7.794   7.038   9.905  1.2063 -0.1218  1.4949
17051SOL     OW58202   9.886   1.824   0.557  0.8772  0.1546  0.0992
17051SOL    HW158203   9.866   1.782   0.474  0.3877  0.1871  0.1980
17051SOL    HW258204   9.881   1.918   0.538 -2.1653  0.2397  0.7972
17052SOL     OW58205   0.545  11.424   6.330  0.5730 -0.1516  0.3167
17052SOL    HW158206   0.634  11.393   6.313  0.6697  0.0111  0.5236
17052SOL    HW258207   0.496  11.398   6.253  1.1855  1.3168 -0.6187
17053SOL     OW58208   3.782   1.804   8.247 -0.1162  0.6808  0.2636
17053SOL    HW158209   3.720   1.870   8.216 -1.3457 -0.0902  1.0193
17053SOL    HW258210   3.770   1.730   8.187  1.2138  1.0866 -0.5436
17054SOL     OW58211   7.769   8.513   5.383 -0.2820 -0.3773 -0.7390
17054SOL    HW158212   7.729   8.503   5.297  1.6050  0.0121 -1.7130
17054SOL    HW258213   7.796   8.425   5.408  0.8636 -0.2621 -1.4597
17055SOL     OW58214  11.041  11.003   6.454 -0.2107 -0.1043 -0.3630
17055SOL    HW158215  11.109  10.958   6.404 -0.7499 -0.0798 -1.1328
17055SOL    HW258216  11.065  11.095   6.450  0.6470 -0.2576  0.8328
17056SOL     OW58217   7.753   3.011   7.253  0.3368 -0.0162 -0.1741
17056SOL    HW158218   7.668   3.014   7.296 -0.4978 -0.0523 -1.7341
17056SOL    HW258219   7.792   2.928   7.281  1.5129  1.5508  3.4041
17057SOL     OW58220  12.509   4.637   2.511 -0.3358 -0.1407  0.2883
17057SOL    HW158221  12.512   4.697   2.436  4.4277 -1.8315 -1.2488
17057SOL    HW258222  12.529   4.692   2.587  2.0842  0.6765 -0.8341
17058SOL     OW58223   2.229   5.344   1.490 -0.0224  0.0710 -0.1597
17058SOL    HW158224   2.274   5.301   1.563 -0.5720  0.3764  0.3608
17058SOL    HW258225   2.293   5.340   1.418 -0.0389 -1.5949 -0.1324
17059SOL     OW58226   3.534   2.259   7.310  0.2711  0.3918  0.0925
17059SOL    HW158227   3.620   2.300   7.298  0.9241 -0.7282  0.8022
17059SOL    HW258228   3.548   2.194   7.378 -1.0326 -0.1629 -0.1464
17060SOL     OW58229   5.125   9.923   2.841  0.6152 -0.5873  0.0535
17060SOL    HW158230   5.136   9.875   2.923  0.8169  0.1817  0.4758
17060SOL    HW258231   5.212   9.921   2.800  0.2519 -2.0060 -0.7331
17061SOL     OW58232   7.021  10.385   5.906 -0.4217  0.5370  0.1142
17061SOL    HW158233   7.059  10.470   5.887 -0.8198  1.2729  2.3358
17061SOL    HW258234   6.927  10.402   5.919 -0.6224 -0.3549 -0.0474
17062SOL     OW58235   0.405   3.818   5.578 -0.1792 -0.3624  0.2230
17062SOL    HW158236   0.463   3.832   5.653 -0.8295  0.6322  0.5704
17062SOL    HW258237   0.325   3.865   5.601 -0.9559 -1.3258 -0.4454
17063SOL     OW58238   7.199   6.762  12.358  0.1281 -0.0925 -0.1749
17063SOL    HW158239   7.106   6.777  12.370 -0.0835 -0.8218 -0.7881
17063SOL    HW258240   7.211   6.759  12.263  0.4529 -1.7989 -0.1175
17064SOL     OW58241   3.642  10.640   8.755 -0.3450  0.2515  0.4081
17064SOL    HW158242   3.564  10.680   8.793 -0.4715 -0.7962  1.3068
17064SOL    HW258243   3.664  10.568   8.815  1.8421  1.0589  0.6492
17065SOL     OW58244   8.983   6.158  10.947  0.5576 -0.8927 -0.4351
17065SOL    HW158245   9.006   6.182  10.857  1.7031 -1.4578 -0.3132
17065SOL    HW258246   9.068   6.151  10.992 -0.0184 -0.1280  0.8259
17066SOL     OW58247   3.620   9.057  11.073  0.3252  0.3246 -0.1925
17066SOL    HW158248   3.560   8.996  11.031  0.9434 -0.7281  0.4291
17066SOL    HW258249   3.564   9.114  11.126 -0.2679  0.4170 -0.9171
17067SOL     OW58250   9.812   3.488   7.773  0.1043 -0.3084 -0.1168
17067SOL    HW158251   9.792   3.512   7.683  4.0998 -3.0741 -2.0047
17067SOL    HW258252   9.789   3.396   7.779 -0.2470 -0.1400  1.8374
17068SOL     OW58253   8.193   7.429   5.194  0.1510 -0.4603  1.0170
17068SOL    HW158254   8.244   7.466   5.265 -2.5963  2.2728  1.7507
17068SOL    HW258255   8.110   7.402   5.234 -0.1112 -2.2915 -0.5627
17069SOL     OW58256   7.530   3.747   0.586  0.2127  0.5712 -0.7299
17069SOL    HW158257   7.502   3.676   0.527 -0.6837  1.1115 -0.9769
17069SOL    HW258258   7.465   3.816   0.572 -1.5938 -0.2026  2.7420
17070SOL     OW58259   0.353  10.013   4.300  0.2828 -0.0280  1.2116
17070SOL    HW158260   0.332  10.014   4.207 -0.9960  2.5027  1.4278
17070SOL    HW258261   0.349   9.921   4.325  0.2355 -0.7206 -1.1312
17071SOL     OW58262   7.339   1.436   9.135 -0.3017 -0.4941  0.0650
17071SOL    HW158263   7.245   1.436   9.116 -0.4993  0.8652  0.9311
17071SOL    HW258264   7.381   1.442   9.049 -1.0783  1.3177 -0.2276
17072SOL     OW58265   1.493  12.337   0.918 -0.5695  0.6358 -0.2319
17072SOL    HW158266   1.513  12.430   0.926 -0.4205  0.5700  0.2081
17072SOL    HW258267   1.578  12.294   0.929 -0.6586  0.4445 -0.2981
17073SOL     OW58268  11.609   3.088   9.817  0.0811  0.3459  1.0684
17073SOL    HW158269  11.641   3.001   9.840  0.1787  0.4191  1.2093
17073SOL    HW258270  11.677   3.148   9.848  1.3345  0.3310 -1.3909
17074SOL     OW58271   2.302   3.905   4.116 -0.0785  0.1998  0.1729
17074SOL    HW158272   2.385   3.858   4.127 -0.1294 -0.1689 -0.9181
17074SOL    HW258273   2.235   3.838   4.123 -0.4764  0.7701  3.1433
17075SOL     OW58274   9.935  11.177   9.573 -0.1118 -0.4786  0.3236
17075SOL    HW158275   9.946  11.145   9.662  3.2163  0.7366  0.4656
17075SOL    HW258276   9.966  11.106   9.517  0.8534 -0.0736  0.3247
17076SOL     OW58277   0.780   8.902   8.037  0.0001 -0.7312 -0.6480
17076SOL    HW158278   0.712   8.902   7.970 -0.7966  0.6409  0.1148
17076SOL    HW258279   0.840   8.973   8.011  0.1944 -0.8019 -0.4010
17077SOL     OW58280   7.562   2.455   1.110 -0.3438 -0.5648 -0.2792
17077SOL    HW158281   7.494   2.481   1.172  1.1754 -0.7759  1.5787
17077SOL    HW258282   7.553   2.359   1.104 -0.2661 -0.5873 -0.0665
17078SOL     OW58283   1.161  12.134   5.866  0.1261  0.4435  0.3668
17078SOL    HW158284   1.122  12.047   5.875  0.8482  0.0739 -0.0126
17078SOL    HW258285   1.222  12.140   5.939  0.4324  0.4399  0.1113
17079SOL     OW58286   6.712   8.480   9.530 -0.2296 -0.0343 -0.1432
17079SOL    HW158287   6.652   8.534   9.580 -0.7666  0.9927 -1.8054
17079SOL    HW258288   6.775   8.542   9.493  1.5297 -1.0159  1.0534
17080SOL     OW58289   0.099   8.600   8.585  0.3582  0.0530 -0.0256
17080SOL    HW158290   0.183   8.610   8.631  0.1135  0.2569  0.3826
17080SOL    HW258291   0.113   8.526   8.526  1.6480  1.6225 -1.8183
17081SOL     OW58292   8.418  11.881   1.956 -0.3361  0.5747  0.4121
17081SOL    HW158293   8.385  11.924   1.876  0.5041 -1.6096 -1.2049
17081SOL    HW258294   8.340  11.843   1.996 -0.5255 -0.1034 -0.5520
17082SOL     OW58295   1.770   0.770   1.290  0.2506 -0.1048  0.4124
17082SOL    HW158296   1.765   0.742   1.381  0.1770 -0.9839  0.1513
17082SOL    HW258297   1.862   0.794   1.277  0.1120  0.7451  0.9095
17083SOL     OW58298  11.246   3.626  10.554  0.3067  0.9176 -0.3362
17083SOL    HW158299  11.195   3.678  10.616 -0.4321  0.2307 -0.3506
17083SOL    HW258300  11.224   3.664  10.468 -1.8198 -0.6143 -0.5662
17084SOL     OW58301   8.176  10.196   6.307 -0.1349  0.2430  0.5344
17084SOL    HW158302   8.220  10.224   6.226  0.9697 -2.8744 -0.0999
17084SOL    HW258303   8.246  10.194   6.372 -0.1168 -1.0235  0.5073
17085SOL     OW58304   5.513   2.901   5.233 -0.0712  0.4024  0.2632
17085SOL    HW158305   5.555   2.955   5.299 -0.7831  0.6113  0.5535
17085SOL    HW258306   5.558   2.922   5.151 -0.6467  1.7869  0.2834
17086SOL     OW58307   1.920  11.694   1.571 -0.4151  0.3228 -0.2122
17086SOL    HW158308   1.883  11.752   1.505  0.0422  0.7407 -0.0997
17086SOL    HW258309   2.014  11.710   1.568 -0.4050  0.4717  0.6552
17087SOL     OW58310   3.917  11.377   6.582 -0.3081  0.5079 -0.1061
17087SOL    HW158311   3.974  11.410   6.512  1.2017 -2.4624 -0.4369
17087SOL    HW258312   3.831  11.415   6.563  0.6634  1.9655 -1.9408
17088SOL     OW58313  10.214   1.407   0.503  0.2537 -0.0874  0.0682
17088SOL    HW158314  10.190   1.442   0.589  0.7610  0.4635 -0.0066
17088SOL    HW258315  10.238   1.485   0.452  1.1654 -0.5212 -0.1827
17089SOL     OW58316   7.963   7.863  10.524  0.1019  0.8244 -0.0593
17089SOL    HW158317   8.054   7.849  10.552 -0.1013  0.0918  0.2625
17089SOL    HW258318   7.911   7.846  10.603 -0.5109 -1.5670 -0.8885
17090SOL     OW58319  10.868   1.217  10.673  0.3402  0.1731  0.2412
17090SOL    HW158320  10.831   1.203  10.760  0.3482 -2.4701 -0.0949
17090SOL    HW258321  10.794   1.243  10.619 -0.0893 -0.3276  0.5818
17091SOL     OW58322  10.346  11.196   2.267 -0.2971  0.7991  0.2266
17091SOL    HW158323  10.274  11.220   2.326 -1.6306 -0.0126 -1.0163
17091SOL    HW258324  10.414  11.163   2.325 -2.5239 -2.4798  1.2658
17092SOL     OW58325   4.543  11.634   4.975  0.0513 -1.1166  0.4005
17092SOL    HW158326   4.463  11.686   4.979  1.5631  1.3903  0.2760
17092SOL    HW258327   4.569  11.639   4.883  1.1364 -0.5498  0.7241
17093SOL     OW58328   7.115  10.388   9.719  0.0311 -0.2897  0.1286
17093SOL    HW158329   7.157  10.366   9.636 -2.2285 -1.4423 -0.7914
17093SOL    HW258330   7.147  10.475   9.740  1.1294 -0.2281 -1.6280
17094SOL     OW58331   8.730   4.850   2.195 -0.5373 -0.0866 -0.3480
17094SOL    HW158332   8.771   4.904   2.263  1.0297 -0.5459 -0.8913
17094SOL    HW258333   8.801   4.796   2.161 -1.2756  0.1258 -2.3694
17095SOL     OW58334   7.026   9.611  10.671  0.4594 -0.2346 -0.4564
17095SOL    HW158335   6.972   9.535  10.696  1.8587 -0.2334  3.0777
17095SOL    HW258336   7.115   9.576  10.664  1.2103  1.0273  1.7177
17096SOL     OW58337   3.397   9.835   3.030 -0.0517 -0.3172 -0.3016
17096SOL    HW158338   3.305   9.811   3.043 -0.0606  0.2135  0.8152
17096SOL    HW258339   3.443   9.752   3.022 -0.3385 -0.7008  1.5309
17097SOL     OW58340   7.496   9.438  10.373 -0.1365  0.2069 -0.0739
17097SOL    HW158341   7.546   9.503  10.323 -0.4177  0.1202 -0.4684
17097SOL    HW258342   7.410   9.478  10.385 -0.3538 -0.1395 -0.4331
17098SOL     OW58343  11.619   0.822   3.138 -0.1779 -0.3977 -0.1181
17098SOL    HW158344  11.713   0.830   3.154 -0.1737  0.3669 -0.4907
17098SOL    HW258345  11.582   0.798   3.223  0.0842  1.5814  0.5973
17099SOL     OW58346  10.623   7.939  11.413 -0.1063 -0.0120  0.2834
17099SOL    HW158347  10.556   7.889  11.460  0.0802  0.7029  1.3229
17099SOL    HW258348  10.631   7.894  11.329 -1.9384 -0.0884  0.1058
17100SOL     OW58349   0.870   6.712   9.245  0.5305 -0.3261 -0.2418
17100SOL    HW158350   0.777   6.695   9.262  0.0572  0.8549 -1.5103
17100SOL    HW258351   0.872   6.750   9.158  2.0319  1.2982  0.4515
17101SOL     OW58352  11.921   8.635  10.042  0.8813 -0.5878 -0.2259
17101SOL    HW158353  11.853   8.666   9.983  1.2868  1.6168  0.3730
17101SOL    HW258354  11.877   8.624  10.126  1.3073  1.3694  0.2983
17102SOL     OW58355   8.086   1.973   7.073  0.2255 -0.3254 -0.5546
17102SOL    HW158356   7.998   1.956   7.039 -0.0831  0.4032 -0.1403
17102SOL    HW258357   8.113   2.055   7.032  1.2764 -1.2203 -1.7239
17103SOL     OW58358   6.698   1.977   0.446 -0.0214  0.1458 -0.1405
17103SOL    HW158359   6.739   1.892   0.457 -1.6770 -0.6136  0.4764
17103SOL    HW258360   6.743   2.034   0.508 -0.3422 -0.8290  1.0300
17104SOL     OW58361   9.598  10.075   6.406 -0.0219 -0.2502 -0.3578
17104SOL    HW158362   9.649  10.084   6.487 -0.8451 -0.6362  0.2201
17104SOL    HW258363   9.554   9.990   6.415 -1.2689  0.3545 -0.5343
17105SOL     OW58364  11.570   2.875   9.408  0.4172  0.2141 -0.6126
17105SOL    HW158365  11.513   2.811   9.452  1.2132 -1.2326 -1.6042
17105SOL    HW258366  11.544   2.870   9.316  2.1249 -0.4887 -1.0879
17106SOL     OW58367   7.689   1.888   2.731  0.3568 -0.5179  0.0908
17106SOL    HW158368   7.656   1.806   2.694 -0.2905 -0.1273 -0.2180
17106SOL    HW258369   7.707   1.868   2.823  0.2372 -1.0132  0.0064
17107SOL     OW58370   5.269  10.793   1.071  0.1145  0.0516  0.5415
17107SOL    HW158371   5.254  10.776   1.164  0.6619 -1.0190  0.4486
17107SOL    HW258372   5.220  10.872   1.053 -0.6779 -0.1913  1.5547
17108SOL     OW58373   8.310   1.945  10.913 -0.0119 -0.1118 -0.3300
17108SOL    HW158374   8.255   2.014  10.875 -0.8324 -0.4843  0.1386
17108SOL    HW258375   8.354   1.986  10.987  1.2850  0.5093 -1.4090
17109SOL     OW58376   3.834   3.052   3.196  0.2404 -0.2751  0.1933
17109SOL    HW158377   3.855   3.026   3.106 -2.0574 -0.4419 -0.3665
17109SOL    HW258378   3.782   2.980   3.230  0.0343  0.3425  1.2292
17110SOL     OW58379   3.840   7.198   1.368 -0.0898 -0.0432  0.0897
17110SOL    HW158380   3.802   7.141   1.434  0.7771 -0.1627  0.5036
17110SOL    HW258381   3.766   7.246   1.331 -0.4470  1.2505  2.3226
17111SOL     OW58382   6.586   6.235   9.351 -0.1058 -0.1875  0.1088
17111SOL    HW158383   6.537   6.272   9.278 -0.6434 -0.4770  0.3174
17111SOL    HW258384   6.521   6.186   9.401  0.2003  0.2218  0.9283
17112SOL     OW58385   1.018   5.020   2.144  0.2165 -0.3219  0.3815
17112SOL    HW158386   1.077   4.978   2.081 -1.8680 -1.5332 -0.8420
17112SOL    HW258387   1.076   5.048   2.215  2.2438 -1.5669 -0.6833
17113SOL     OW58388   0.113  12.197   3.770 -0.3729 -0.2393 -0.0360
17113SOL    HW158389   0.028  12.170   3.805 -0.4508  0.7391  0.5715
17113SOL    HW258390   0.099  12.286   3.738  0.5857  0.2247  0.7584
17114SOL     OW58391   9.879  10.363   0.412 -0.5591  0.3462 -0.3585
17114SOL    HW158392   9.888  10.373   0.507 -0.1886 -2.8191  0.0427
17114SOL    HW258393   9.799  10.313   0.401  0.3551 -0.9270 -1.5483
17115SOL     OW58394   0.894  11.893   7.994 -0.0584 -0.0830 -0.0140
17115SOL    HW158395   0.864  11.823   7.935 -0.7652  2.1856 -2.5242
17115SOL    HW258396   0.970  11.931   7.951  0.4558  0.6072  1.4228
17116SOL     OW58397   6.708   2.491   9.476  0.1014  0.1350 -0.2759
17116SOL    HW158398   6.709   2.395   9.476  0.6966  0.1279  0.6516
17116SOL    HW258399   6.800   2.516   9.483 -0.0476  0.7823 -0.5486
17117SOL     OW58400  10.586   8.100   6.647 -0.6233  0.1216  0.0240
17117SOL    HW158401  10.605   8.179   6.596 -0.3303 -0.0946 -0.2079
17117SOL    HW258402  10.650   8.102   6.719 -1.9874  1.1963  1.2571
17118SOL     OW58403   0.190   9.546   1.897  0.4906 -0.3208  0.0948
17118SOL    HW158404   0.147   9.629   1.877  4.2018  2.1034  1.0876
17118SOL    HW258405   0.277   9.555   1.858  1.7967 -2.7772  2.1699
17119SOL     OW58406   7.602   1.401   4.061 -0.4137  0.0435  0.3722
17119SOL    HW158407   7.600   1.363   3.974 -1.1389 -0.9047  0.7969
17119SOL    HW258408   7.617   1.327   4.120  1.7033  0.8589  0.9531
17120SOL     OW58409   3.656   6.913   1.773 -0.2979 -0.2842 -0.2180
17120SOL    HW158410   3.585   6.926   1.836 -0.5041 -0.1223 -0.4794
17120SOL    HW258411   3.636   6.829   1.733 -1.2744  0.4965 -1.4612
17121SOL     OW58412   6.078   3.484  11.799 -0.0728  0.2695 -0.3893
17121SOL    HW158413   6.153   3.540  11.781 -0.6294  1.8133  1.7501
17121SOL    HW258414   6.003   3.543  11.802 -0.9822 -0.8621  0.0140
17122SOL     OW58415   3.618   2.280   8.858 -0.0655  0.0460 -0.1863
17122SOL    HW158416   3.648   2.194   8.890 -0.0921  0.8996  2.3905
17122SOL    HW258417   3.699   2.324   8.832  0.1993 -0.0614  0.4158
17123SOL     OW58418  11.691   8.913   8.786  0.2344  0.5152 -0.0016
17123SOL    HW158419  11.700   8.905   8.881  0.7899  1.0389  0.0018
17123SOL    HW258420  11.599   8.936   8.773  0.3741  1.4381  0.4979
17124SOL     OW58421   1.950  12.353  11.403  0.8275 -0.4580 -0.5756
17124SOL    HW158422   1.884  12.422  11.399 -0.2038 -1.3641  0.0924
17124SOL    HW258423   2.018  12.381  11.342  0.1033  0.7934 -0.8437
17125SOL     OW58424   3.910   7.770   2.650  0.5359 -0.3090  0.0765
17125SOL    HW158425   3.972   7.701   2.628 -1.4791 -2.4836  0.8634
17125SOL    HW258426   3.831   7.724   2.677 -0.1817  2.2777  2.8967
17126SOL     OW58427   7.440   4.352  12.229 -0.4663  0.9023 -0.2247
17126SOL    HW158428   7.492   4.293  12.285 -0.8913  0.5509 -0.1927
17126SOL    HW258429   7.412   4.422  12.287  0.2306  1.2623 -0.3124
17127SOL     OW58430   7.023  10.627   6.960 -0.1204 -0.2212  0.0901
17127SOL    HW158431   7.009  10.701   6.900  2.8390  1.2440  1.0112
17127SOL    HW258432   7.044  10.554   6.902  1.3810  0.8373 -0.7778
17128SOL     OW58433   0.559  12.104   0.068 -0.3936 -0.2444  0.1133
17128SOL    HW158434   0.603  12.026   0.034 -1.0095 -1.2067  1.4400
17128SOL    HW258435   0.628  12.171   0.069  0.3054 -0.9320 -0.4865
17129SOL     OW58436   2.309  11.744  11.127 -0.4706  0.2572 -0.0991
17129SOL    HW158437   2.380  11.793  11.169  1.0262 -0.3513 -1.7789
17129SOL    HW258438   2.349  11.660  11.104 -1.9177 -0.3319 -0.6022
17130SOL     OW58439  12.433   4.805   8.489  0.5197 -0.7520 -0.0966
17130SOL    HW158440  12.527   4.808   8.508  0.3397 -0.6469  0.8262
17130SOL    HW258441  12.408   4.714   8.506  0.4666 -0.7976 -0.4159
17131SOL     OW58442  11.915   0.094  10.314 -0.1551 -0.2615 -0.3551
17131SOL    HW158443  11.978   0.101  10.386 -0.2091 -0.5700 -0.2783
17131SOL    HW258444  11.968   0.103  10.235  0.0213 -0.7932 -0.2982
17132SOL     OW58445  11.893  10.404   6.023  0.7303 -0.4787 -0.2749
17132SOL    HW158446  11.981  10.366   6.029  0.6221 -0.6955 -0.0292
17132SOL    HW258447  11.900  10.486   6.071  0.0922 -1.8192  2.3152
17133SOL     OW58448   5.205   9.413   2.574 -0.4876 -0.5522  0.1674
17133SOL    HW158449   5.239   9.456   2.496 -0.5400 -1.6288 -0.4645
17133SOL    HW258450   5.134   9.470   2.604 -1.2898 -0.7403 -1.2879
17134SOL     OW58451   1.108   9.159  10.729 -0.0297  0.4684 -0.2735
17134SOL    HW158452   1.029   9.159  10.674 -0.7891 -0.4398  0.7677
17134SOL    HW258453   1.097   9.234  10.787  0.0912  0.6093 -0.4341
17135SOL     OW58454  10.705   0.503   9.104  0.0497 -0.4538 -0.2784
17135SOL    HW158455  10.784   0.556   9.107  1.0241 -1.7402 -1.8252
17135SOL    HW258456  10.633   0.566   9.110  1.1082  0.6383  2.8378
17136SOL     OW58457  10.327   0.606   2.904  0.1313  0.4792 -0.5608
17136SOL    HW158458  10.416   0.633   2.928  0.9744 -0.2875 -2.5842
17136SOL    HW258459  10.329   0.510   2.909 -1.2868  0.4792  1.4747
17137SOL     OW58460  11.719   8.491   0.198  0.4362  0.4185 -0.7527
17137SOL    HW158461  11.738   8.577   0.160 -3.0921  1.8589  0.3526
17137SOL    HW258462  11.676   8.443   0.127  0.8520  0.2145 -0.8654
17138SOL     OW58463  12.171  12.135   7.754  0.4942  0.0241  0.6111
17138SOL    HW158464  12.101  12.142   7.819  0.0128  1.1842 -0.0122
17138SOL    HW258465  12.129  12.152   7.670  1.2606 -0.6954  0.0571
17139SOL     OW58466   5.162   5.850   5.031  0.2679  0.3291 -0.9535
17139SOL    HW158467   5.094   5.873   4.968 -0.7350  3.4734  1.0568
17139SOL    HW258468   5.115   5.832   5.112  1.6423 -1.5519 -0.5135
17140SOL     OW58469   1.844   8.657   1.858  0.3713 -0.0780  0.4087
17140SOL    HW158470   1.889   8.657   1.943  0.6384  0.4568  0.2749
17140SOL    HW258471   1.810   8.568   1.848 -1.5758  0.3966  2.1008
17141SOL     OW58472   0.051  12.234   8.607 -0.2958  0.4145 -0.2374
17141SOL    HW158473   0.075  12.316   8.650 -0.8903 -0.5101  1.9979
17141SOL    HW258474  -0.044  12.239   8.597 -0.4349 -0.3094  0.6420
17142SOL     OW58475   0.199  10.671   8.739  0.1370 -0.1099 -0.2763
17142SOL    HW158476   0.268  10.642   8.799  0.1939  1.9863  0.7544
17142SOL    HW258477   0.210  10.614   8.662  0.5160 -2.4110  1.3536
17143SOL     OW58478   9.517  11.281   9.238 -0.3136 -0.3627  0.7240
17143SOL    HW158479   9.481  11.196   9.262 -3.7232  0.9077  0.6623
17143SOL    HW258480   9.519  11.331   9.319 -1.1563  0.3932  0.3011
17144SOL     OW58481   1.158   6.741   7.747 -0.1779 -0.4692  0.6078
17144SOL    HW158482   1.154   6.694   7.664 -0.6287  0.0904  0.3078
17144SOL    HW258483   1.067   6.746   7.777 -0.0496 -0.4441  1.0054
17145SOL     OW58484  12.034   8.741  11.952 -0.2844 -0.0523 -0.9545
17145SOL    HW158485  12.029   8.693  11.870 -2.1612 -1.3877 -0.1030
17145SOL    HW258486  11.970   8.811  11.943 -0.7507 -0.4179 -0.4997
17146SOL     OW58487  11.645  11.773  10.500  0.1151 -0.6586  0.1454
17146SOL    HW158488  11.690  11.809  10.424  1.8310 -1.1052  0.8972
17146SOL    HW258489  11.658  11.679  10.494 -0.2695 -0.7557  0.6665
17147SOL     OW58490   1.117   8.205  12.409  0.2628 -0.0229 -0.0555
17147SOL    HW158491   1.104   8.180  12.501  3.1533  0.3642  0.5768
17147SOL    HW258492   1.030   8.206  12.371 -0.9789 -0.6868  2.5689
17148SOL     OW58493   3.782   3.833  12.397  1.0226 -0.2291  0.0279
17148SOL    HW158494   3.802   3.803  12.485  0.5236 -0.3090  0.1131
17148SOL    HW258495   3.692   3.864  12.401  1.0829  0.0185 -0.3899
17149SOL     OW58496  12.575  12.490   7.851  0.5403  0.6209 -0.4994
17149SOL    HW158497  12.549  12.526   7.936  0.7136  0.3382 -0.3263
17149SOL    HW258498  12.616  12.406   7.871  0.0682  0.2831 -0.9112
17150SOL     OW58499   8.029  11.945   2.539  0.3002 -0.3146 -0.1516
17150SOL    HW158500   8.032  11.909   2.451 -0.8330  0.0943 -0.3680
17150SOL    HW258501   7.968  11.889   2.586 -3.1260  2.3148 -1.0344
17151SOL     OW58502   7.416  10.405   5.146  0.2386 -0.0030  0.0204
17151SOL    HW158503   7.429  10.325   5.197  1.3355  0.8181  1.0940
17151SOL    HW258504   7.492  10.459   5.167  1.3132  0.0053 -3.2991
17152SOL     OW58505   3.161  12.450   3.936  0.4904 -0.5349  0.0229
17152SOL    HW158506   3.243  12.490   3.966 -0.1852  0.7870  0.1619
17152SOL    HW258507   3.108  12.439   4.014 -0.0210 -0.0607 -0.2507
17153SOL     OW58508  11.393   2.276   1.866  0.4532  0.4123 -0.6127
17153SOL    HW158509  11.303   2.251   1.849 -0.0966  0.9641  1.2293
17153SOL    HW258510  11.444   2.228   1.801 -1.2106  0.8783 -2.3750
17154SOL     OW58511  11.228   5.090  11.415 -0.4277  0.3515 -0.8166
17154SOL    HW158512  11.166   5.089  11.342 -1.9816  0.8186  0.4543
17154SOL    HW258513  11.213   5.007  11.461  0.7873 -0.1026 -1.1733
17155SOL     OW58514   8.149   4.763   0.613 -0.5742 -0.1396  0.0883
17155SOL    HW158515   8.092   4.701   0.568  0.4767 -1.9546  1.1298
17155SOL    HW258516   8.186   4.713   0.686  0.5511  1.6530  0.8199
17156SOL     OW58517   9.708   5.902   0.238 -0.2422  0.0387 -0.1916
17156SOL    HW158518   9.631   5.928   0.290 -0.0286 -0.9256  0.6414
17156SOL    HW258519   9.734   5.818   0.276  1.9641  0.9129  0.3500
17157SOL     OW58520   2.383   2.844   4.668 -0.6909 -0.0709  0.2399
17157SOL    HW158521   2.418   2.851   4.579  1.6976 -0.0536  1.0954
17157SOL    HW258522   2.323   2.918   4.676 -0.1306  0.5502 -1.0255
17158SOL     OW58523   6.093   0.641   9.828  0.1497  0.4541 -0.2510
17158SOL    HW158524   6.014   0.634   9.882 -0.2908  0.0359 -0.9421
17158SOL    HW258525   6.077   0.583   9.754  1.6863 -0.7371  0.2908
17159SOL     OW58526   8.847   3.132   9.327  0.0500  0.0015  0.0533
17159SOL    HW158527   8.886   3.217   9.347  1.3499 -0.5322 -0.1120
17159SOL    HW258528   8.795   3.147   9.248 -0.6023  0.8630  0.6247
17160SOL     OW58529   9.882  12.417   4.199  1.1756  0.0773 -0.3818
17160SOL    HW158530   9.922  12.503   4.209  1.5045 -0.0667 -0.4486
17160SOL    HW258531   9.805  12.432   4.145  0.0750  0.6678  1.2615
17161SOL     OW58532   1.562   8.406   1.402  0.1137 -0.4659  0.2359
17161SOL    HW158533   1.549   8.396   1.496  0.3867 -0.7961  0.2375
17161SOL    HW258534   1.482   8.369   1.363 -0.5108  0.6968  0.3714
17162SOL     OW58535   7.078   7.100   8.760 -0.2129 -0.2687  0.5050
17162SOL    HW158536   7.149   7.164   8.765  0.6039 -1.1206  0.0584
17162SOL    HW258537   7.038   7.116   8.674 -0.2277 -0.1539  0.5317
17163SOL     OW58538   0.809   1.342   8.283  0.4822 -0.2274 -0.1764
17163SOL    HW158539   0.731   1.334   8.228  0.9872 -0.5561 -0.8613
17163SOL    HW258540   0.814   1.435   8.304 -0.2714 -0.2554  0.1406
17164SOL     OW58541   8.954   0.243  12.195  0.3959 -0.3391 -0.2633
17164SOL    HW158542   9.014   0.258  12.268  0.7249 -3.2986  0.1975
17164SOL    HW258543   8.875   0.209  12.236 -0.4052  0.4329 -1.1310
17165SOL     OW58544   6.494   8.251  12.143  0.2222 -0.4724 -0.5695
17165SOL    HW158545   6.500   8.309  12.067  0.9207 -0.4597 -0.5184
17165SOL    HW258546   6.409   8.271  12.182 -0.1552 -0.4923 -1.3571
17166SOL     OW58547   8.005  11.393   9.059 -0.5984 -0.0943 -0.0883
17166SOL    HW158548   7.955  11.365   9.136 -1.8205 -0.4202 -0.9752
17166SOL    HW258549   8.041  11.478   9.084  0.8900 -1.1591  1.6462
17167SOL     OW58550   6.820   3.209   5.108  0.4266  0.5992 -0.0315
17167SOL    HW158551   6.745   3.268   5.112  0.5111  0.6714  0.7402
17167SOL    HW258552   6.832   3.191   5.015  0.2095  1.5536 -0.2516
17168SOL     OW58553  10.825   2.013  11.019  0.5021 -0.3358  0.0938
17168SOL    HW158554  10.855   2.098  10.988  1.1082 -0.4795  0.2884
17168SOL    HW258555  10.777   2.032  11.100 -0.5523 -0.0328 -0.5727
17169SOL     OW58556   8.379   9.838   0.020 -0.0825 -0.0031  0.4233
17169SOL    HW158557   8.387   9.926   0.056  0.3632 -0.3645  1.2506
17169SOL    HW258558   8.290   9.834  -0.015  1.0630  2.0710 -3.2514
17170SOL     OW58559   1.789   0.087   4.537 -0.8432 -0.5874  0.4966
17170SOL    HW158560   1.801   0.002   4.580 -2.1975  0.0771  2.3068
17170SOL    HW258561   1.697   0.087   4.510 -0.3698 -0.4213 -1.2518
17171SOL     OW58562  10.804   1.472   8.472  0.6030  0.5155 -0.3464
17171SOL    HW158563  10.879   1.420   8.442  0.8097  1.3266 -1.3035
17171SOL    HW258564  10.841   1.533   8.536  0.3131 -0.6416  0.9832
17172SOL     OW58565  11.712   3.750   8.346  0.6098 -0.2104  0.1137
17172SOL    HW158566  11.737   3.840   8.366 -0.8066  0.2401  0.0331
17172SOL    HW258567  11.632   3.759   8.294 -0.2454 -1.5233  1.1132
17173SOL     OW58568   8.309  11.584   2.210  0.1443  0.0219  0.2816
17173SOL    HW158569   8.289  11.494   2.235  1.4171 -0.8680 -1.6197
17173SOL    HW258570   8.394  11.603   2.249 -0.4008  0.6493  1.1944
17174SOL     OW58571   7.644   6.995  10.378  0.2205  0.3688 -0.1602
17174SOL    HW158572   7.575   7.055  10.352  0.5100 -0.4431 -3.1731
17174SOL    HW258573   7.724   7.031  10.339  0.8663 -0.5411  0.2749
17175SOL     OW58574   2.870   6.069   1.758  0.4209 -0.0439  0.2865
17175SOL    HW158575   2.843   6.158   1.779  0.3155 -0.2110  0.8768
17175SOL    HW258576   2.951   6.079   1.709  0.1071  0.3981 -0.1504
17176SOL     OW58577   3.999   5.713   4.091  0.0570 -0.1624 -0.1853
17176SOL    HW158578   3.904   5.712   4.076  0.0426  0.7978 -0.2256
17176SOL    HW258579   4.032   5.780   4.031  0.4270  1.3929  1.6404
17177SOL     OW58580   3.267  11.373   2.711  0.0126  0.6043 -0.7077
17177SOL    HW158581   3.228  11.433   2.646  2.2436  0.4556 -2.2770
17177SOL    HW258582   3.359  11.399   2.716  0.2126 -0.3102  1.4283
17178SOL     OW58583   8.658   1.187   7.907 -0.1715  0.5466  0.2268
17178SOL    HW158584   8.607   1.132   7.967  0.3436 -0.5819 -0.3562
17178SOL    HW258585   8.749   1.172   7.932 -0.0430  1.7382  0.5581
17179SOL     OW58586   7.284   6.931   7.074 -0.0374  0.2019 -0.3539
17179SOL    HW158587   7.322   6.996   7.015 -1.8363  3.4874  1.8447
17179SOL    HW258588   7.322   6.951   7.159 -1.0992 -1.2677  0.5044
17180SOL     OW58589  10.520  12.378  11.002  0.1124  0.1276  0.6192
17180SOL    HW158590  10.450  12.386  11.067  0.0194 -0.7129  0.6312
17180SOL    HW258591  10.542  12.469  10.979 -0.9501  0.3964  0.6318
17181SOL     OW58592  11.147   1.812   8.976 -0.3128 -0.6305 -0.1969
17181SOL    HW158593  11.184   1.896   8.948 -0.3044  0.2305  2.2201
17181SOL    HW258594  11.095   1.832   9.053 -0.2809 -2.8655  0.4814
17182SOL     OW58595   6.682  12.221   1.253 -0.1072  0.1350 -0.5884
17182SOL    HW158596   6.615  12.179   1.307  0.7222 -1.3729 -0.6633
17182SOL    HW258597   6.727  12.281   1.312 -0.7836  0.3088 -0.2463
17183SOL     OW58598   2.710   3.040   3.466  0.3322  0.2266  0.5907
17183SOL    HW158599   2.738   2.952   3.438  1.6364  1.2041 -1.4699
17183SOL    HW258600   2.630   3.057   3.416  0.2308  0.2977  0.7783
17184SOL     OW58601   4.688   5.022   9.331 -0.1591 -0.1175  0.8783
17184SOL    HW158602   4.695   4.987   9.420 -3.4945 -0.8965  0.9826
17184SOL    HW258603   4.636   5.102   9.341 -0.0041  0.1464 -0.3050
17185SOL     OW58604   4.616   9.763   0.288 -0.1935  0.2931  0.5664
17185SOL    HW158605   4.628   9.846   0.242  0.4300 -0.8310 -1.3863
17185SOL    HW258606   4.533   9.729   0.256 -0.2057 -0.0803  0.9871
17186SOL     OW58607   2.647   4.445   2.352  0.0174 -0.2925  0.5074
17186SOL    HW158608   2.676   4.474   2.265  0.1360  1.0611  0.9662
17186SOL    HW258609   2.603   4.361   2.337  0.5481 -0.3585 -0.7714
17187SOL     OW58610   5.551   6.927   8.932  0.6406  0.2670 -0.2465
17187SOL    HW158611   5.526   6.866   9.001  1.0608  1.1106  0.6798
17187SOL    HW258612   5.620   6.881   8.884 -0.2466 -0.6679 -0.6484
17188SOL     OW58613   9.573   1.681   0.183 -0.2927  0.3624 -0.2223
17188SOL    HW158614   9.482   1.707   0.169  0.0916  1.0258 -1.7283
17188SOL    HW258615   9.606   1.664   0.095  2.1315  3.9358 -0.2073
17189SOL     OW58616   9.436   0.692  10.183 -0.6028  0.2879 -0.0270
17189SOL    HW158617   9.486   0.756  10.234 -0.4506  0.8019 -0.8105
17189SOL    HW258618   9.438   0.612  10.237  1.8653 -0.0046 -0.4492
17190SOL     OW58619   8.226   0.216   8.274  0.2055 -0.0327 -0.0628
17190SOL    HW158620   8.271   0.261   8.345  0.3423  2.7689 -1.7860
17190SOL    HW258621   8.142   0.262   8.266  0.7094  0.6081 -2.4789
17191SOL     OW58622   4.132   1.569   8.891  0.2460  0.3679  0.5019
17191SOL    HW158623   4.160   1.660   8.899  0.4795  0.2162  1.5438
17191SOL    HW258624   4.089   1.549   8.974 -2.9549  0.5654 -0.9767
17192SOL     OW58625   8.507  12.266   1.629 -0.0073  0.1397 -0.3208
17192SOL    HW158626   8.428  12.285   1.680  0.9380  0.5613  1.0123
17192SOL    HW258627   8.578  12.267   1.692  0.8900 -1.9365 -1.2020
17193SOL     OW58628  10.346  12.118  10.204 -0.0013 -0.2059  0.0285
17193SOL    HW158629  10.429  12.160  10.182  0.9561 -1.8961  0.2291
17193SOL    HW258630  10.304  12.102  10.119 -0.8673  1.9588 -0.0238
17194SOL     OW58631   0.768   0.436  11.550 -0.0118  0.1441  0.3410
17194SOL    HW158632   0.856   0.448  11.515  0.3675 -0.2526  1.1429
17194SOL    HW258633   0.717   0.406  11.475  0.5112  0.4650 -0.1510
17195SOL     OW58634   9.572   4.493   1.041 -0.1258 -0.2039 -0.0328
17195SOL    HW158635   9.496   4.547   1.063  0.6649  0.1783  2.0245
17195SOL    HW258636   9.645   4.555   1.034  0.0061 -0.5156 -2.3635
17196SOL     OW58637   5.131   8.107  10.726  0.1012  0.2029 -0.0517
17196SOL    HW158638   5.052   8.160  10.714  1.1162  1.4143 -1.8793
17196SOL    HW258639   5.192   8.141  10.661  1.3678 -2.1955 -0.2193
17197SOL     OW58640  12.126   0.473   9.484  0.6753  0.5040  0.2355
17197SOL    HW158641  12.044   0.470   9.434  0.5320  1.7909  0.3592
17197SOL    HW258642  12.195   0.471   9.417  0.4804  2.5773 -0.1001
17198SOL     OW58643  10.519   6.311   1.773 -0.2300 -0.3624 -0.2007
17198SOL    HW158644  10.467   6.359   1.709 -0.5385  2.0517  1.7177
17198SOL    HW258645  10.552   6.378   1.833  2.0852 -2.2245  0.7763
17199SOL     OW58646   5.001   8.908  10.391  0.0203  0.3136  0.4387
17199SOL    HW158647   4.963   8.994  10.373 -1.5829 -0.1729  1.2518
17199SOL    HW258648   5.047   8.883  10.311 -1.8942  0.7128 -0.8323
17200SOL     OW58649   9.937   8.120   7.062 -0.3692  0.2110 -0.0633
17200SOL    HW158650   9.942   8.208   7.024 -2.9015 -0.0862 -1.2587
17200SOL    HW258651  10.028   8.092   7.069  0.5197  2.8434  0.2332
17201SOL     OW58652   2.377   7.162   0.552  0.4404 -0.2382  0.5100
17201SOL    HW158653   2.431   7.120   0.618  0.4313 -0.6818  0.2396
17201SOL    HW258654   2.301   7.194   0.600  0.6512 -0.1516  0.7886
17202SOL     OW58655   0.440   3.805   4.061  0.0236  0.2031  0.7534
17202SOL    HW158656   0.442   3.869   3.991 -0.4766 -1.4434 -0.8503
17202SOL    HW258657   0.525   3.815   4.105  1.0839  0.1990 -1.1605
17203SOL     OW58658   9.169  11.940  11.491  0.1891 -0.3626 -0.0442
17203SOL    HW158659   9.176  11.846  11.510  1.0935 -0.1344  0.8462
17203SOL    HW258660   9.251  11.961  11.446  0.6158  0.2739  1.0115
17204SOL     OW58661  10.921   9.041   3.333 -0.3235  0.1116 -0.4855
17204SOL    HW158662  11.000   9.002   3.294 -1.0539 -0.1451 -1.7894
17204SOL    HW258663  10.951   9.121   3.376  0.5132  0.5362 -1.8072
17205SOL     OW58664   9.925   8.731  11.270 -0.4449  0.4026  0.2819
17205SOL    HW158665   9.936   8.669  11.342 -0.3471  0.9820  0.7692
17205SOL    HW258666   9.834   8.719  11.243 -0.7801  0.8748  1.1553
17206SOL     OW58667  11.820   4.132   6.554 -0.1654  0.3476  0.1515
17206SOL    HW158668  11.827   4.088   6.469 -0.8633  0.9639 -0.2334
17206SOL    HW258669  11.821   4.225   6.534  1.2627  0.5495  0.9617
17207SOL     OW58670  11.094  10.608   3.370 -0.5829 -0.2812  0.0437
17207SOL    HW158671  11.037  10.554   3.426  0.9371 -3.2329 -1.0547
17207SOL    HW258672  11.081  10.573   3.282  1.0148  0.6743 -0.6116
17208SOL     OW58673   7.463   2.305   2.501  0.4569  0.1738 -0.8446
17208SOL    HW158674   7.381   2.270   2.465 -0.4180  0.3030  0.9323
17208SOL    HW258675   7.531   2.250   2.462 -0.3332  0.7442 -3.2091
17209SOL     OW58676   9.382  11.366   5.393  0.5047  0.0863  0.0221
17209SOL    HW158677   9.446  11.298   5.414 -1.7351 -2.2610 -0.1903
17209SOL    HW258678   9.324  11.368   5.470 -0.5522  0.3888 -0.7564
17210SOL     OW58679   5.068   5.654   2.709  0.5335  0.1941 -0.3928
17210SOL    HW158680   4.985   5.696   2.685  0.7389  0.6159 -0.3847
17210SOL    HW258681   5.060   5.564   2.677  0.8331  0.7577 -2.1485
17211SOL     OW58682   2.834   5.340   2.190  0.7300 -0.2094  0.1974
17211SOL    HW158683   2.756   5.288   2.211  0.1597  0.3562 -0.4765
17211SOL    HW258684   2.881   5.347   2.273  0.6916 -1.5839  0.3603
17212SOL     OW58685  10.311   2.414   8.345  0.0529 -0.5694 -0.1306
17212SOL    HW158686  10.340   2.504   8.333  0.2339 -0.8109 -1.8148
17212SOL    HW258687  10.378   2.374   8.400  0.0868  0.2672  0.4502
17213SOL     OW58688  11.357   1.312   3.970 -0.2910 -0.1362  0.6572
17213SOL    HW158689  11.433   1.274   4.015 -1.1951 -1.9782  0.7273
17213SOL    HW258690  11.284   1.258   3.999 -1.1705 -0.3363 -1.7591
17214SOL     OW58691  11.814  12.207  10.735 -0.2268 -0.2586  0.1320
17214SOL    HW158692  11.803  12.116  10.709 -0.0069 -0.4538  0.7061
17214SOL    HW258693  11.869  12.245  10.667  0.3346 -0.7601  0.2962
17215SOL     OW58694   3.112   5.429   3.461  0.5108 -0.1936 -0.4321
17215SOL    HW158695   3.111   5.480   3.380 -1.6441 -1.2950 -1.1952
17215SOL    HW258696   3.073   5.345   3.436  2.7641 -1.7664  1.0678
17216SOL     OW58697  11.898  11.110  10.205 -0.3387 -0.5944 -0.4021
17216SOL    HW158698  11.931  11.054  10.134  1.3627 -0.2974  0.1126
17216SOL    HW258699  11.820  11.152  10.168  0.3845 -0.6075 -2.0257
17217SOL     OW58700   9.598  12.088   0.523 -0.3296  0.2397 -0.2795
17217SOL    HW158701   9.534  12.152   0.492  0.2595  1.0237  0.0919
17217SOL    HW258702   9.556  12.003   0.507 -0.2618  0.5923 -2.7777
17218SOL     OW58703   6.238   5.999   2.190  0.4437 -0.1190 -0.8112
17218SOL    HW158704   6.267   5.924   2.242 -1.3150 -0.8845 -0.8369
17218SOL    HW258705   6.240   6.072   2.252 -0.3856 -0.7614  0.0144
17219SOL     OW58706   9.014   5.216   4.435 -0.1534 -0.2988  0.3428
17219SOL    HW158707   8.937   5.252   4.393  0.5684  2.5790  1.2312
17219SOL    HW258708   8.980   5.150   4.496 -1.4143 -2.4713 -2.5020
17220SOL     OW58709   2.928   5.707   7.902  0.0681 -0.3195  0.6999
17220SOL    HW158710   2.986   5.684   7.975  1.0240 -1.1976 -0.2952
17220SOL    HW258711   2.970   5.781   7.859  3.0980 -3.5191 -2.6756
17221SOL     OW58712   2.472   5.973   2.042  0.2631  0.1870 -0.6173
17221SOL    HW158713   2.515   5.973   1.956  1.8722  1.2746  0.1370
17221SOL    HW258714   2.431   5.887   2.048  2.5219 -1.0229 -1.3437
17222SOL     OW58715   6.508   0.387   6.648 -0.3879  0.3630  0.0724
17222SOL    HW158716   6.462   0.343   6.576 -1.5110  0.8166  0.4795
17222SOL    HW258717   6.600   0.371   6.631 -0.7092 -0.9942 -0.5213
17223SOL     OW58718   3.587   4.745  11.508 -0.3413 -0.1987  0.1905
17223SOL    HW158719   3.496   4.771  11.527 -0.5080  0.2310 -1.1049
17223SOL    HW258720   3.636   4.827  11.511 -0.3606 -0.1297 -1.1057
17224SOL     OW58721   2.811   5.561   9.729  0.0796 -0.3987 -0.1756
17224SOL    HW158722   2.794   5.605   9.645  0.7699  0.6332  0.2048
17224SOL    HW258723   2.786   5.625   9.795  1.9111 -0.2133  0.3900
17225SOL     OW58724   4.150   9.771   6.751  0.1665  0.2197  0.4312
17225SOL    HW158725   4.107   9.785   6.667  2.1568  0.2815 -0.6519
17225SOL    HW258726   4.086   9.725   6.804 -0.6197 -1.2917 -1.6861
17226SOL     OW58727   1.858   1.640   9.569 -0.6835 -0.0213 -0.0806
17226SOL    HW158728   1.822   1.705   9.509 -1.5821 -0.3668  0.0663
17226SOL    HW258729   1.817   1.661   9.654 -0.7764 -0.6083  0.0241
17227SOL     OW58730  11.441   4.067   4.209  0.0164 -0.5999 -0.1978
17227SOL    HW158731  11.531   4.099   4.213  0.2769 -1.1263 -1.3845
17227SOL    HW258732  11.389   4.146   4.192  0.4660 -0.5309 -1.3285
17228SOL     OW58733   1.378   0.204  10.951  0.0892  0.3863  0.1958
17228SOL    HW158734   1.330   0.243  11.024 -0.5655  1.4876 -0.8035
17228SOL    HW258735   1.415   0.278  10.903  1.8937 -0.3829  0.3038
17229SOL     OW58736   1.309  11.727   6.672  0.6228  0.0789  0.2634
17229SOL    HW158737   1.334  11.722   6.580 -0.1252 -1.4076  0.1149
17229SOL    HW258738   1.217  11.699   6.673  0.6280  0.0720  1.4587
17230SOL     OW58739   0.637   4.714   4.928  0.3458 -0.1504 -0.8123
17230SOL    HW158740   0.581   4.768   4.872  1.5924  1.6946 -0.3663
17230SOL    HW258741   0.718   4.704   4.879  0.3442 -1.1707 -0.6362
17231SOL     OW58742   9.554   0.607   6.752 -0.5061 -0.4249 -0.6724
17231SOL    HW158743   9.573   0.550   6.677 -2.4440 -1.9955 -0.0544
17231SOL    HW258744   9.595   0.563   6.827 -0.3922  0.0205 -0.4688
17232SOL     OW58745  11.737   2.756   2.928  0.2962 -0.0226  0.0679
17232SOL    HW158746  11.828   2.737   2.951  0.1602 -0.4523  0.2696
17232SOL    HW258747  11.722   2.845   2.959  0.4923 -0.1434  0.5234
17233SOL     OW58748   2.220   6.017  11.438 -0.4585  0.1598  0.0099
17233SOL    HW158749   2.232   6.015  11.343 -0.8335 -1.2632 -0.0331
17233SOL    HW258750   2.157   5.947  11.455  1.7291 -1.5761  1.5628
17234SOL     OW58751  11.447   7.109   5.388 -0.2145 -0.0242 -0.3456
17234SOL    HW158752  11.437   7.085   5.480  0.5681  0.0709 -0.2255
17234SOL    HW258753  11.473   7.028   5.345  2.4477  0.5169  0.0643
17235SOL     OW58754   2.576   6.997   0.311  0.1075 -0.0719 -0.3709
17235SOL    HW158755   2.518   7.018   0.237  1.6630 -2.2797 -2.3727
17235SOL    HW258756   2.626   7.078   0.325 -0.2387  0.4132 -1.7429
17236SOL     OW58757   1.523   1.377  11.970  0.4476  0.8813 -0.2077
17236SOL    HW158758   1.558   1.351  11.886 -0.1775  0.2701 -0.2851
17236SOL    HW258759   1.582   1.446  12.001  1.2360  0.4252 -0.6912
17237SOL     OW58760   0.755   3.726   3.269  0.4785 -0.5938  0.2823
17237SOL    HW158761   0.698   3.659   3.232 -0.6890 -0.9434  2.4890
17237SOL    HW258762   0.788   3.775   3.194 -3.6196  0.3154 -1.1918
17238SOL     OW58763   1.706  12.109   9.002 -0.0128  0.2030  0.1534
17238SOL    HW158764   1.776  12.116   9.067  1.0941  0.8086 -1.0532
17238SOL    HW258765   1.682  12.016   9.001 -0.4195  0.2748  1.7771
17239SOL     OW58766   0.852  11.914  11.551  0.8048 -0.5328  0.1787
17239SOL    HW158767   0.818  11.846  11.493  1.7865 -1.2497  0.3994
17239SOL    HW258768   0.875  11.986  11.492  1.2968 -1.0459 -0.2801
17240SOL     OW58769  11.167   7.753   6.241 -0.7419 -0.1743  0.3408
17240SOL    HW158770  11.188   7.659   6.250 -0.1986 -0.0185  0.8049
17240SOL    HW258771  11.187   7.790   6.327  0.1722  0.5739 -0.1723
17241SOL     OW58772   4.460   1.242  10.455 -0.2030  0.1804 -0.5624
17241SOL    HW158773   4.536   1.218  10.509 -0.9257  1.5752  1.1922
17241SOL    HW258774   4.425   1.159  10.424  1.5025 -0.5426 -0.6756
17242SOL     OW58775  11.012   1.012   2.416  0.6195  0.1690 -0.1140
17242SOL    HW158776  10.930   1.033   2.370  0.1308  1.4481  1.2443
17242SOL    HW258777  10.988   0.941   2.476  0.4414  0.6438  0.3898
17243SOL     OW58778   5.967   0.388   9.398 -0.7883  0.2297 -0.2785
17243SOL    HW158779   5.945   0.480   9.412 -0.5764  0.1858  0.3687
17243SOL    HW258780   6.056   0.389   9.365  0.2579  0.1408  2.3481
17244SOL     OW58781   8.259   0.805   2.458  0.0739 -0.7892  0.1905
17244SOL    HW158782   8.234   0.784   2.368  0.6269 -1.5649  0.2126
17244SOL    HW258783   8.180   0.844   2.496 -0.7085 -2.0298 -0.1223
17245SOL     OW58784   7.551   6.706   6.496 -0.2714 -0.2858 -0.5142
17245SOL    HW158785   7.489   6.694   6.569  0.2394 -0.3934 -0.0887
17245SOL    HW258786   7.631   6.661   6.525  0.1164  0.1357 -0.9089
17246SOL     OW58787   8.709  12.197   4.025  0.2694 -0.5461  0.0784
17246SOL    HW158788   8.781  12.158   4.074  0.3991  0.5246  0.7779
17246SOL    HW258789   8.742  12.207   3.936  0.6901 -0.8328  0.2034
17247SOL     OW58790  11.079   4.529   1.010 -0.2330 -0.1720 -0.1916
17247SOL    HW158791  11.098   4.580   1.089 -2.1754 -0.3779  0.4568
17247SOL    HW258792  11.078   4.438   1.040 -1.4457 -0.2176 -0.3163
17248SOL     OW58793   0.133   1.614   1.739  0.1182 -0.0579  0.1138
17248SOL    HW158794   0.163   1.540   1.791  0.5485 -1.0535 -1.4758
17248SOL    HW258795   0.158   1.592   1.649 -0.3909  1.6923 -0.4976
17249SOL     OW58796   9.055   8.253   8.143 -0.8645 -0.0356  0.0071
17249SOL    HW158797   9.066   8.320   8.075 -1.3359 -0.8489 -0.9133
17249SOL    HW258798   9.065   8.170   8.096  1.2177 -0.6292  1.3996
17250SOL     OW58799   9.138   4.928   9.106  0.7355 -0.6035  0.2568
17250SOL    HW158800   9.209   4.867   9.126  1.3895 -0.6336 -1.8913
17250SOL    HW258801   9.153   4.953   9.015  0.6093  2.9358  1.0627
17251SOL     OW58802   1.903  12.336   7.752  0.3418 -0.3705  0.3408
17251SOL    HW158803   1.997  12.340   7.770  0.4850  0.3837 -0.5029
17251SOL    HW258804   1.884  12.419   7.709 -0.7702 -0.4015  0.7536
17252SOL     OW58805   5.151   9.718   4.551 -0.0532 -0.1114 -0.0231
17252SOL    HW158806   5.189   9.710   4.639  0.2881 -1.7508 -0.3050
17252SOL    HW258807   5.064   9.680   4.560  0.1711 -0.7451 -0.5078
17253SOL     OW58808   6.967   8.400   2.332 -0.5970  0.3121  0.1999
17253SOL    HW158809   6.874   8.420   2.330 -0.6359  0.3149  1.2978
17253SOL    HW258810   6.976   8.320   2.280 -1.0611  0.8282 -0.6880
17254SOL     OW58811  12.462   1.838  10.348 -0.0412  0.0684  0.3968
17254SOL    HW158812  12.388   1.890  10.317  0.8735  0.8589 -0.5160
17254SOL    HW258813  12.476   1.866  10.438  1.9013  3.2580 -0.7113
17255SOL     OW58814  12.478   1.293  10.469  0.0952  0.4417  0.6112
17255SOL    HW158815  12.534   1.343  10.528 -0.7423  0.4878  1.3992
17255SOL    HW258816  12.391   1.331  10.480  0.1076  1.1696 -1.5002
17256SOL     OW58817   0.711   0.706   6.072  0.0350 -0.2895 -0.1795
17256SOL    HW158818   0.637   0.650   6.098 -1.1865  0.5705 -1.6192
17256SOL    HW258819   0.754   0.729   6.155 -2.0263  0.1313  0.8512
17257SOL     OW58820   6.749   0.103   5.062  0.1305 -0.0179  0.2621
17257SOL    HW158821   6.789   0.057   5.136  1.5593  0.4627 -0.1822
17257SOL    HW258822   6.803   0.181   5.049  0.5670 -0.5985 -1.9200
17258SOL     OW58823   3.067   6.263  11.280  0.4536 -0.2479 -0.2546
17258SOL    HW158824   3.043   6.323  11.209  1.6747  1.0087  0.3424
17258SOL    HW258825   3.081   6.320  11.356  2.4759 -1.1581  0.1388
17259SOL     OW58826   6.496   7.407   1.054 -0.2408 -1.0677 -0.1999
17259SOL    HW158827   6.535   7.341   1.110  0.9896 -0.1081  0.1202
17259SOL    HW258828   6.563   7.475   1.047 -0.9224 -0.5195 -1.6846
17260SOL     OW58829   2.625   8.367   9.580 -0.1668 -0.0013 -0.6551
17260SOL    HW158830   2.700   8.308   9.581 -0.3336 -0.2199 -0.8872
17260SOL    HW258831   2.556   8.321   9.628 -0.1737  0.1682 -0.5033
17261SOL     OW58832   7.409   0.725   3.494  0.7252 -0.1133  0.3361
17261SOL    HW158833   7.465   0.650   3.476  0.5706 -0.4409  1.1676
17261SOL    HW258834   7.329   0.687   3.531  1.2517  0.5098  2.2486
17262SOL     OW58835   1.159   0.403   4.291  0.0987  0.6470  0.0397
17262SOL    HW158836   1.215   0.404   4.213 -0.8706 -0.4067 -0.6933
17262SOL    HW258837   1.219   0.384   4.363  0.4677 -3.0881 -1.0228
17263SOL     OW58838   3.165   0.691   0.118  0.0380  0.3148 -0.0809
17263SOL    HW158839   3.142   0.672   0.209 -4.4220 -0.0269 -1.0578
17263SOL    HW258840   3.144   0.784   0.106  0.0339  0.2164 -0.9096
17264SOL     OW58841  10.636   8.114   9.799  0.2705  0.4523 -0.0489
17264SOL    HW158842  10.634   8.023   9.768  1.5803 -0.1621  1.5124
17264SOL    HW258843  10.545   8.135   9.818 -0.1809 -0.1664 -1.3553
17265SOL     OW58844   1.697   5.287   7.796  0.3990 -0.8444 -0.1856
17265SOL    HW158845   1.683   5.194   7.777  1.9753 -1.3300  0.8778
17265SOL    HW258846   1.611   5.318   7.826 -0.3568 -1.7288 -1.3159
17266SOL     OW58847  10.096   4.065   5.185 -0.1725  0.2693  0.1502
17266SOL    HW158848  10.063   3.986   5.227 -0.8105 -0.4294 -1.5702
17266SOL    HW258849  10.122   4.037   5.097 -1.9383  2.2479 -1.0943
17267SOL     OW58850   9.813  12.375  10.494 -0.3234  0.6563  0.4609
17267SOL    HW158851   9.719  12.354  10.500 -0.5948  1.1864 -1.2841
17267SOL    HW258852   9.818  12.467  10.519 -0.3114  0.6872  0.3466
17268SOL     OW58853   3.992   0.398   5.407 -0.1255 -0.1609 -0.1712
17268SOL    HW158854   3.975   0.317   5.455  1.4287 -0.9990 -0.9452
17268SOL    HW258855   3.921   0.403   5.343 -0.9613 -0.2099  0.7241
17269SOL     OW58856   3.064   8.017   0.261  0.4802 -0.6270 -0.0168
17269SOL    HW158857   3.047   8.046   0.171  0.2874 -2.4296 -0.6109
17269SOL    HW258858   3.160   8.017   0.269  0.4827  0.1138 -0.0078
17270SOL     OW58859   0.771   6.044   4.850 -0.2759  0.0816  0.3418
17270SOL    HW158860   0.787   5.985   4.924  2.8032  0.0955 -0.1722
17270SOL    HW258861   0.783   5.989   4.772  0.6911  0.9191 -0.1260
17271SOL     OW58862   6.401   6.406   8.704 -0.1753  0.0656 -0.1971
17271SOL    HW158863   6.360   6.369   8.626 -0.9539  0.1098  0.1764
17271SOL    HW258864   6.481   6.355   8.716 -0.5165 -0.5524 -0.5030
17272SOL     OW58865   4.596   6.405   8.892 -0.5723  0.4525 -0.3118
17272SOL    HW158866   4.650   6.470   8.936  1.0827 -1.1616  0.1941
17272SOL    HW258867   4.585   6.335   8.956 -2.6058  0.3650 -0.7108
17273SOL     OW58868   5.390   1.182   8.051 -0.0983 -0.0434 -0.2203
17273SOL    HW158869   5.306   1.160   8.012 -0.9069  1.8077  0.3757
17273SOL    HW258870   5.455   1.156   7.985 -1.1728 -0.8433 -0.9810
17274SOL     OW58871   8.451   9.087   7.479  0.3820 -0.4999 -0.1578
17274SOL    HW158872   8.377   9.028   7.496  1.3656 -1.5392  0.6830
17274SOL    HW258873   8.410   9.172   7.462 -0.9951 -0.8900  0.9491
17275SOL     OW58874  10.255   4.919   8.296 -0.3316 -0.0304 -0.0274
17275SOL    HW158875  10.173   4.960   8.321  0.3292  1.6671 -0.4879
17275SOL    HW258876  10.312   4.933   8.372  0.8441  2.7589 -1.2727
17276SOL     OW58877   1.489   2.083   2.940  0.0298 -0.1552  0.0458
17276SOL    HW158878   1.493   2.146   2.867 -2.1268  0.3876  0.3214
17276SOL    HW258879   1.462   2.136   3.015  1.8361 -0.7845  1.1949
17277SOL     OW58880   9.429   8.367   9.904  0.4993  0.0993  0.0068
17277SOL    HW158881   9.473   8.373   9.989  1.6345 -0.6790 -0.4972
17277SOL    HW258882   9.476   8.297   9.858  0.1782  0.7919 -1.4207
17278SOL     OW58883   7.011   0.149   3.565 -0.0731 -0.4857  0.0290
17278SOL    HW158884   6.918   0.128   3.566  0.1458 -1.7360 -1.5656
17278SOL    HW258885   7.018   0.228   3.511 -0.3362  0.5560  1.4653
17279SOL     OW58886  11.921   7.725   5.778  0.4179 -0.1706 -0.5062
17279SOL    HW158887  11.965   7.646   5.809 -0.8078 -0.5610  0.3077
17279SOL    HW258888  11.855   7.744   5.845 -1.6401 -0.4530 -2.3216
17280SOL     OW58889  11.567   1.835   3.521  0.4017 -0.0770  0.1056
17280SOL    HW158890  11.492   1.888   3.548  0.3161 -0.6732  1.0996
17280SOL    HW258891  11.626   1.896   3.478 -1.6747  0.0136 -2.9456
17281SOL     OW58892   6.503  11.081   9.701  0.4133  0.3657  0.1360
17281SOL    HW158893   6.490  11.077   9.796  0.2726  1.0918  0.1528
17281SOL    HW258894   6.436  11.143   9.670  1.7210  1.6688 -0.1811
17282SOL     OW58895  10.161   1.572   4.772  0.7787  0.0950 -0.0216
17282SOL    HW158896  10.185   1.619   4.852  0.8390 -0.6236  0.4005
17282SOL    HW258897  10.070   1.596   4.757  0.6764  0.0180  0.4389
17283SOL     OW58898   1.130   9.984   1.003  0.0614  0.2309  0.4771
17283SOL    HW158899   1.047   9.973   0.956 -0.6245  1.9721  1.1946
17283SOL    HW258900   1.185   9.912   0.972 -0.6050  0.8084 -2.3801
17284SOL     OW58901   3.271   9.501   5.800  0.2957 -0.1291 -0.1698
17284SOL    HW158902   3.180   9.471   5.803 -0.2107  1.3834  0.7387
17284SOL    HW258903   3.307   9.478   5.885 -0.2694  2.1714  0.7707
17285SOL     OW58904   5.123   9.706  10.445  0.2781 -0.4469 -0.3391
17285SOL    HW158905   5.197   9.766  10.447 -0.4407  0.4734 -0.7750
17285SOL    HW258906   5.060   9.742  10.507  0.7373 -1.9810  1.0771
17286SOL     OW58907   2.977   5.446   0.208  0.2386 -0.2066  0.4857
17286SOL    HW158908   2.914   5.518   0.204 -1.6421 -1.7779  0.3176
17286SOL    HW258909   3.005   5.433   0.117 -0.0546 -0.2127  0.3949
17287SOL     OW58910   7.618   8.411   3.997 -0.0493  0.1859 -0.4097
17287SOL    HW158911   7.628   8.316   3.998  1.7359  0.2853  2.3480
17287SOL    HW258912   7.524   8.425   3.986 -0.5862 -1.9693  0.8367
17288SOL     OW58913   0.665   6.861   4.272 -0.5334 -0.0425 -0.0159
17288SOL    HW158914   0.629   6.950   4.265 -0.8187 -0.1432  0.1717
17288SOL    HW258915   0.692   6.854   4.363 -0.8618 -0.2828  0.0633
17289SOL     OW58916  10.072   5.836  11.144  0.0735 -0.3225 -0.2376
17289SOL    HW158917  10.088   5.779  11.219 -0.5117  0.7789  0.7497
17289SOL    HW258918  10.143   5.815  11.083 -0.1069 -2.0606  0.0959
17290SOL     OW58919   4.936  12.385   9.321  0.2142  0.0725  0.3218
17290SOL    HW158920   5.004  12.421   9.264 -0.9316  1.1196 -0.4395
17290SOL    HW258921   4.859  12.439   9.303 -0.5478 -0.4351  1.9061
17291SOL     OW58922   4.260   9.617   8.339 -0.2697 -0.3936 -0.6400
17291SOL    HW158923   4.198   9.602   8.268  0.1372 -0.4947 -0.9838
17291SOL    HW258924   4.318   9.541   8.336  0.0835 -0.1315 -0.5546
17292SOL     OW58925   1.235   4.105   9.722 -0.0313  0.2428  0.4966
17292SOL    HW158926   1.238   4.010   9.719  1.0262  0.3016 -1.2597
17292SOL    HW258927   1.144   4.125   9.744 -0.2697 -1.1509  0.8962
17293SOL     OW58928   9.049   6.379   4.544  0.3606  0.2834  0.3816
17293SOL    HW158929   8.971   6.323   4.543  0.3176  0.3468  0.0752
17293SOL    HW258930   9.018   6.461   4.583  0.8640 -0.5241  2.6290
17294SOL     OW58931   3.738   9.751  12.349  0.0691  0.0851  0.2967
17294SOL    HW158932   3.660   9.777  12.301 -0.3190 -1.3569  0.0918
17294SOL    HW258933   3.785   9.833  12.366  0.5755  0.6659 -3.1234
17295SOL     OW58934  12.388   1.976   5.495  0.6745 -0.2173  0.3170
17295SOL    HW158935  12.467   1.957   5.445 -0.1809  0.6956 -1.4547
17295SOL    HW258936  12.322   1.916   5.461  0.3169 -0.2659  1.0671
17296SOL     OW58937   0.771   9.506   6.980 -0.0945 -0.4522  0.1964
17296SOL    HW158938   0.789   9.585   7.031  2.8960 -0.2182 -1.0134
17296SOL    HW258939   0.843   9.446   7.002 -0.0094 -1.2375 -1.9459
17297SOL     OW58940   2.582   5.329   2.682 -0.2175 -0.1677  0.0256
17297SOL    HW158941   2.658   5.387   2.687  1.0444 -1.5367 -1.8161
17297SOL    HW258942   2.618   5.242   2.702 -1.0374 -1.0000 -1.9513
17298SOL     OW58943  11.875   5.744  10.105 -0.5682 -0.3032 -0.9689
17298SOL    HW158944  11.795   5.693  10.096 -0.2571 -0.9800 -0.0792
17298SOL    HW258945  11.918   5.737  10.020 -1.1513 -0.4522 -1.2540
17299SOL     OW58946   5.393  10.783  11.625  0.4014 -0.3145  0.2522
17299SOL    HW158947   5.442  10.848  11.674 -1.3327  2.1087 -1.0290
17299SOL    HW258948   5.334  10.743  11.689 -0.7982  1.7409  0.5090
17300SOL     OW58949   7.866   9.802   4.187  0.1161  0.2736  0.2829
17300SOL    HW158950   7.899   9.712   4.188 -0.0305  0.2206  0.5544
17300SOL    HW258951   7.874   9.830   4.096  0.4740  0.0997  0.2592
17301SOL     OW58952   8.274   3.642   5.803 -0.4892 -0.8686 -0.1299
17301SOL    HW158953   8.362   3.605   5.797 -0.2197 -0.3137  0.2901
17301SOL    HW258954   8.276   3.720   5.747 -0.7813 -0.9820 -0.2999
17302SOL     OW58955   7.204   9.698   6.895  0.3036  0.0385  0.0085
17302SOL    HW158956   7.158   9.675   6.815  0.3477  1.3050 -0.4005
17302SOL    HW258957   7.230   9.614   6.933 -0.2382 -0.5934 -0.9862
17303SOL     OW58958   8.466  12.041   1.084  0.8457 -0.0401  0.1848
17303SOL    HW158959   8.477  11.952   1.118 -0.8820  0.1216  1.2637
17303SOL    HW258960   8.520  12.096   1.141  2.4600 -0.4342 -0.9001
17304SOL     OW58961   0.666   8.600  10.782  0.1466  0.0721  0.0945
17304SOL    HW158962   0.615   8.597  10.864 -0.5945  1.4752 -0.2966
17304SOL    HW258963   0.757   8.597  10.811 -0.0830 -2.3431  0.8139
17305SOL     OW58964   4.354   8.386   9.368 -0.2383  0.2442  0.4448
17305SOL    HW158965   4.343   8.316   9.304  1.0559  0.7287 -0.3408
17305SOL    HW258966   4.328   8.346   9.451  0.2965 -1.1251 -0.0135
17306SOL     OW58967  10.449   9.850   8.345 -0.5690  0.6961  0.1889
17306SOL    HW158968  10.454   9.933   8.296  0.4528 -0.3719 -1.6456
17306SOL    HW258969  10.380   9.801   8.301 -0.6269  0.2645  0.7593
17307SOL     OW58970   7.622   3.284  12.284  0.1393 -0.0598 -0.5213
17307SOL    HW158971   7.537   3.259  12.247 -0.4373  0.3023  0.5007
17307SOL    HW258972   7.602   3.358  12.342  1.0441 -0.3977  0.2463
17308SOL     OW58973   4.882  10.399  11.024 -0.0880 -0.5446  0.5719
17308SOL    HW158974   4.912  10.313  10.996 -0.7447 -1.2981  2.1040
17308SOL    HW258975   4.840  10.436  10.946  0.1793 -1.6085 -0.0945
17309SOL     OW58976   1.878   3.114   8.231 -0.0955  0.4463  0.2375
17309SOL    HW158977   1.874   3.028   8.273  0.9079  0.4249  0.3121
17309SOL    HW258978   1.791   3.152   8.247 -0.8410 -0.8631 -0.5132
17310SOL     OW58979   1.079   7.831   4.506  0.1567  0.2593  0.2479
17310SOL    HW158980   1.020   7.901   4.477 -0.3542  0.3828  1.4998
17310SOL    HW258981   1.160   7.876   4.530  0.4190  0.2091 -0.5151
17311SOL     OW58982   9.649   1.172   7.022 -0.2554  0.6341  0.4403
17311SOL    HW158983   9.571   1.191   6.969 -0.2304 -0.0447  0.1507
17311SOL    HW258984   9.719   1.163   6.958 -0.5044 -1.7064  0.4170
17312SOL     OW58985  11.729   6.888   5.458 -0.6661 -0.3788 -0.4367
17312SOL    HW158986  11.808   6.842   5.488  0.0380  0.1116 -1.4740
17312SOL    HW258987  11.726   6.967   5.512  1.8207  1.6065 -2.9167
17313SOL     OW58988   9.407   3.403   4.261  0.0479  0.3474 -0.1786
17313SOL    HW158989   9.389   3.392   4.168  1.4379 -0.2658 -0.3955
17313SOL    HW258990   9.502   3.398   4.269 -0.0399  0.3518  1.2823
17314SOL     OW58991  10.986   8.737  10.788 -0.1545  0.1703  0.0092
17314SOL    HW158992  11.077   8.766  10.777 -0.2145  0.6231  0.5948
17314SOL    HW258993  10.960   8.704  10.703  0.9026 -0.9520  0.1038
17315SOL     OW58994  11.373   2.918   1.593  0.3640 -0.6269  0.3096
17315SOL    HW158995  11.381   2.880   1.506 -2.1279  1.9700 -1.2480
17315SOL    HW258996  11.339   2.848   1.648 -0.3469 -1.7094 -1.4421
17316SOL     OW58997   0.569   4.370   7.690 -0.1329 -0.0323  0.4259
17316SOL    HW158998   0.479   4.336   7.690  0.1446 -0.7798  0.0397
17316SOL    HW258999   0.581   4.403   7.601  1.6634 -4.6048 -1.3329
17317SOL     OW59000   4.571   1.255   9.607 -0.1035 -0.9150 -0.1334
17317SOL    HW159001   4.606   1.324   9.551 -1.3391  1.2801  1.6183
17317SOL    HW259002   4.497   1.220   9.558 -0.1660 -0.1896 -0.5712
17318SOL     OW59003   5.466   2.894   3.372  0.0854  0.2331 -0.4279
17318SOL    HW159004   5.484   2.984   3.346 -1.5430  0.8972  0.6480
17318SOL    HW259005   5.433   2.900   3.462 -2.1380 -1.1659 -1.0572
17319SOL     OW59006   1.844   8.975   6.997  0.3815 -0.0141  0.4955
17319SOL    HW159007   1.812   9.017   7.077 -2.3808  0.1249 -0.5643
17319SOL    HW259008   1.865   9.047   6.938  0.3460 -0.1116  0.3616
17320SOL     OW59009   2.381   2.537   4.091  0.4086  0.3867 -0.6696
17320SOL    HW159010   2.291   2.506   4.083  0.9522 -1.0080 -1.9444
17320SOL    HW259011   2.380   2.625   4.053 -0.5778  0.7728  0.1959
17321SOL     OW59012   0.320   3.878   1.932 -0.2555 -0.3052 -0.6661
17321SOL    HW159013   0.231   3.899   1.901 -0.7779 -1.6341 -0.1625
17321SOL    HW259014   0.376   3.893   1.855 -0.9845  0.0588 -1.1440
17322SOL     OW59015   7.820   5.733   6.421 -0.1869  0.4589 -0.4136
17322SOL    HW159016   7.758   5.661   6.431  0.8144 -0.4647 -0.6982
17322SOL    HW259017   7.889   5.698   6.366  1.1460  1.1041  0.7799
17323SOL     OW59018   2.697   3.094  10.723  0.1488 -0.2522  0.0103
17323SOL    HW159019   2.716   3.105  10.817  1.2045  0.3902 -0.2576
17323SOL    HW259020   2.621   3.150  10.707  0.3726  0.1588  0.3579
17324SOL     OW59021   6.410   9.093   7.014 -0.1188  0.0689 -0.2093
17324SOL    HW159022   6.471   9.158   7.049 -0.1488 -0.1569  0.2735
17324SOL    HW259023   6.395   9.120   6.924  0.7083  0.1240 -0.3411
17325SOL     OW59024   6.548  11.996   7.823  0.2365  0.0041 -0.3728
17325SOL    HW159025   6.581  12.067   7.768  2.2168 -0.4531  0.1403
17325SOL    HW259026   6.624  11.969   7.874 -1.2279 -0.4021  1.7127
17326SOL     OW59027   9.543   2.882   5.719 -0.1848 -0.0077  0.1582
17326SOL    HW159028   9.583   2.949   5.776  0.2601 -1.0016  1.0482
17326SOL    HW259029   9.454   2.914   5.704 -0.8160 -0.3797  2.6293
17327SOL     OW59030  12.126   8.082   2.636 -0.2681 -0.0078  0.1483
17327SOL    HW159031  12.110   8.172   2.663 -1.0064 -0.0844 -0.0092
17327SOL    HW259032  12.149   8.036   2.716 -2.1771 -0.1800  0.6452
17328SOL     OW59033   5.913  11.893   6.574  0.0362 -0.3913  0.2912
17328SOL    HW159034   5.872  11.836   6.638  0.0367 -3.3717 -2.1431
17328SOL    HW259035   5.854  11.893   6.499  1.8534 -0.3519 -1.2364
17329SOL     OW59036  12.275   6.671  10.648 -0.4676  0.4211  0.4015
17329SOL    HW159037  12.200   6.632  10.604  0.8017 -1.4712 -0.1983
17329SOL    HW259038  12.286   6.619  10.728 -1.8683  2.9143  2.3668
17330SOL     OW59039  11.434   6.768   9.402 -0.7909  0.1949  0.2083
17330SOL    HW159040  11.506   6.778   9.463 -0.9676 -0.6917  0.5742
17330SOL    HW259041  11.457   6.824   9.328 -0.3553  0.9181  0.8782
17331SOL     OW59042   6.711   8.975   5.806  0.3200  0.4383  0.4922
17331SOL    HW159043   6.736   9.027   5.730 -1.5181  0.0787 -0.4251
17331SOL    HW259044   6.712   9.036   5.880  2.5124  0.7057  0.2879
17332SOL     OW59045   9.033  11.711  12.504  0.0668 -0.0593 -0.0664
17332SOL    HW159046   8.967  11.736  12.569 -1.5288  1.2500 -2.0741
17332SOL    HW259047   8.990  11.644  12.451  1.0310 -0.4906 -0.3194
17333SOL     OW59048  10.353   9.240   4.185  0.6842 -0.2118  0.3991
17333SOL    HW159049  10.350   9.149   4.158  1.5338 -0.2229  0.3130
17333SOL    HW259050  10.443   9.267   4.168  0.4133  0.6700  0.3349
17334SOL     OW59051   3.037  11.968   0.824 -0.1181 -0.9314 -0.6953
17334SOL    HW159052   3.091  12.023   0.767 -1.3021  0.5533 -0.4417
17334SOL    HW259053   2.963  11.942   0.769  0.0679 -1.6938 -0.5962
17335SOL     OW59054   3.809   0.160  12.161 -0.7404  0.2982  0.3012
17335SOL    HW159055   3.804   0.065  12.169 -0.6859  0.1907 -0.7199
17335SOL    HW259056   3.870   0.188  12.229  1.3149 -0.6799 -1.0610
17336SOL     OW59057  11.186   0.100   1.122  0.0320  0.4170 -0.2589
17336SOL    HW159058  11.162   0.020   1.170  1.6175 -1.5889 -2.5478
17336SOL    HW259059  11.257   0.139   1.175 -0.7499  0.3499  0.8797
17337SOL     OW59060   8.867   5.656   2.242 -0.3578  0.1865 -0.1387
17337SOL    HW159061   8.800   5.705   2.193 -0.4287  2.4220  2.0158
17337SOL    HW259062   8.944   5.713   2.241 -0.1398 -0.0122  1.6677
17338SOL     OW59063  12.383   3.166   8.340  0.1353  0.2873  0.2063
17338SOL    HW159064  12.393   3.219   8.419  0.0623  1.9049 -0.8333
17338SOL    HW259065  12.470   3.168   8.299 -0.6640  2.5076 -1.5675
17339SOL     OW59066  11.593   9.907   6.587  0.1439  0.0778  0.1756
17339SOL    HW159067  11.558   9.909   6.676  1.0944  0.3001  0.5626
17339SOL    HW259068  11.678   9.862   6.596 -0.0164 -0.4341 -0.7210
17340SOL     OW59069  11.212   0.817   9.062  0.2216 -0.0113  0.4851
17340SOL    HW159070  11.215   0.722   9.074 -2.4759 -0.5959 -2.0770
17340SOL    HW259071  11.153   0.848   9.131  0.8822 -0.2285  1.1534
17341SOL     OW59072  11.271   4.619   4.278 -0.3562 -0.1666  0.0416
17341SOL    HW159073  11.330   4.693   4.294  1.0881 -1.4410  0.8206
17341SOL    HW259074  11.197   4.636   4.335 -0.1639  0.7931  0.0351
17342SOL     OW59075  10.503  11.174   7.735 -0.3923  0.1713  0.1269
17342SOL    HW159076  10.527  11.253   7.688 -1.1256 -0.4975 -1.4649
17342SOL    HW259077  10.544  11.103   7.685 -1.5234 -0.5969  0.2464
17343SOL     OW59078   0.657   0.620   0.387 -0.4024 -0.1340 -0.3150
17343SOL    HW159079   0.722   0.570   0.339  0.2752 -1.2250  1.6435
17343SOL    HW259080   0.684   0.711   0.376 -0.8571 -0.2004 -2.7564
17344SOL     OW59081   7.487   2.090   8.155 -0.3114 -0.9129  0.9248
17344SOL    HW159082   7.562   2.135   8.116 -1.1017  0.5442  1.0307
17344SOL    HW259083   7.504   1.997   8.138  1.3899 -0.6030  0.7435
17345SOL     OW59084   8.823   8.136   1.241  0.3457 -0.1419  0.6651
17345SOL    HW159085   8.819   8.040   1.246 -0.7452 -0.0945  1.0109
17345SOL    HW259086   8.830   8.164   1.332 -1.3742  0.1549  0.7331
17346SOL     OW59087   6.592   5.853  10.986 -0.3993 -0.6777 -0.2735
17346SOL    HW159088   6.619   5.945  10.985 -1.9273 -0.1715  0.7452
17346SOL    HW259089   6.654   5.810  11.045 -0.2300 -0.0932 -0.0206
17347SOL     OW59090  10.385   3.167  10.398 -0.0687  0.5706  0.6096
17347SOL    HW159091  10.432   3.239  10.440  1.4645  0.6675 -1.1523
17347SOL    HW259092  10.387   3.187  10.305 -0.3031 -1.3530  0.1425
17348SOL     OW59093  10.729   6.585   2.705  0.9851  0.0271  0.1108
17348SOL    HW159094  10.744   6.557   2.614  1.6034 -0.1350  0.2566
17348SOL    HW259095  10.755   6.677   2.707  1.9389 -0.2353  0.3472
17349SOL     OW59096   5.780   0.313   2.156 -0.2992  0.1066 -0.4478
17349SOL    HW159097   5.845   0.257   2.114  0.2111  0.2021  0.2037
17349SOL    HW259098   5.815   0.331   2.243 -2.0703 -1.4036  0.6672
17350SOL     OW59099   9.753  12.059  11.966  0.1188  0.0498 -0.1609
17350SOL    HW159100   9.689  12.108  12.018 -2.4571 -1.6809 -1.4652
17350SOL    HW259101   9.751  11.971  12.003 -1.2397 -1.0278 -2.6167
17351SOL     OW59102  12.006   1.055   5.200 -0.5279 -0.5502 -0.3784
17351SOL    HW159103  12.089   1.101   5.190 -0.2261 -1.2172 -0.9506
17351SOL    HW259104  11.986   1.063   5.293 -0.3540  0.5127 -0.4191
17352SOL     OW59105   7.523   4.138   4.997 -0.1137 -0.2934  0.1601
17352SOL    HW159106   7.541   4.044   4.999  0.1500 -0.2505 -0.0803
17352SOL    HW259107   7.488   4.153   4.909 -0.8246 -0.2853  0.4418
17353SOL     OW59108   4.827   6.800   6.203  0.0481 -0.6603  0.2003
17353SOL    HW159109   4.777   6.880   6.184  0.2045 -0.0930  1.9548
17353SOL    HW259110   4.764   6.729   6.190  0.1986 -0.4117 -2.4562
17354SOL     OW59111   2.306  12.543   5.316 -0.2718  0.2948  0.3172
17354SOL    HW159112   2.218  12.504   5.320  0.4248 -1.2955  0.7640
17354SOL    HW259113   2.328  12.563   5.407  0.5312 -1.0173  0.4408
17355SOL     OW59114   2.751  10.035   6.789 -0.8220 -0.3459  0.4452
17355SOL    HW159115   2.725   9.947   6.817  0.4733 -0.9709 -0.1978
17355SOL    HW259116   2.738  10.035   6.694  1.7456 -0.8473  0.0110
17356SOL     OW59117   0.410   0.014   2.798  1.3721 -0.1616  0.1496
17356SOL    HW159118   0.419  -0.001   2.704  0.9633 -0.7053  0.1954
17356SOL    HW259119   0.437   0.106   2.810  1.6198 -0.1475 -0.4628
17357SOL     OW59120   1.637   0.045  10.278  0.1308  0.0937 -0.6423
17357SOL    HW159121   1.623   0.136  10.306  0.5567  0.1197 -0.4977
17357SOL    HW259122   1.728   0.028  10.301 -0.2938 -0.7789  0.4633
17358SOL     OW59123   0.600   8.036   0.718  0.0314  0.2889 -0.5361
17358SOL    HW159124   0.641   8.113   0.757 -1.6535 -0.0114  2.1076
17358SOL    HW259125   0.506   8.051   0.729 -0.3482 -1.9910 -0.2559
17359SOL     OW59126   0.842   4.715  11.748 -0.2984  0.0066 -0.1146
17359SOL    HW159127   0.825   4.801  11.785 -1.1898 -0.7638  1.3355
17359SOL    HW259128   0.924   4.687  11.789  0.0250  0.1730 -0.6336
17360SOL     OW59129   2.225  12.172   6.472 -0.0673  0.1585  0.1891
17360SOL    HW159130   2.255  12.129   6.392  0.5430 -1.5459  1.2793
17360SOL    HW259131   2.214  12.263   6.448 -3.4120 -0.8340 -2.8293
17361SOL     OW59132   3.514   4.838   1.248 -0.3681  0.2670 -0.3410
17361SOL    HW159133   3.506   4.821   1.154  0.2159  0.0111 -0.3479
17361SOL    HW259134   3.550   4.757   1.284  1.7019  1.1646 -0.2511
17362SOL     OW59135  11.597   8.869   6.324 -0.2775  0.4936 -0.3665
17362SOL    HW159136  11.574   8.826   6.242 -1.3147 -1.6121  0.9398
17362SOL    HW259137  11.522   8.926   6.342 -1.4640 -1.2748  0.5309
17363SOL     OW59138   4.278   6.983   1.561  0.3088 -0.2921  0.5888
17363SOL    HW159139   4.285   7.020   1.473  2.1430  0.5261  1.0502
17363SOL    HW259140   4.313   6.894   1.553  1.3634  0.1121  0.6833
17364SOL     OW59141   3.249   0.664   8.686  0.1321  0.0153  0.6843
17364SOL    HW159142   3.170   0.716   8.675  0.1351  0.1303  1.1517
17364SOL    HW259143   3.218   0.575   8.702  0.0916  0.0676  0.9081
17365SOL     OW59144   7.732   9.115   1.834 -0.6107  0.4849 -0.1408
17365SOL    HW159145   7.647   9.071   1.830 -0.3076 -0.2068  0.8469
17365SOL    HW259146   7.745   9.134   1.927 -0.7345  2.7131 -0.5113
17366SOL     OW59147   1.158   0.728   7.539  0.2996  0.0110  0.1650
17366SOL    HW159148   1.143   0.648   7.489 -0.5759 -1.1986  2.2614
17366SOL    HW259149   1.104   0.794   7.495  0.2363 -0.7783 -0.9794
17367SOL     OW59150   3.681   9.118   9.642  0.4519  0.4530 -0.3012
17367SOL    HW159151   3.659   9.210   9.648  0.9560  0.5168  1.0734
17367SOL    HW259152   3.632   9.077   9.714 -1.0277 -0.6354 -1.8654
17368SOL     OW59153  11.988   5.973   1.369 -0.4900  0.0810 -0.1583
17368SOL    HW159154  11.964   6.026   1.445  2.9372 -0.2032  1.2866
17368SOL    HW259155  12.003   5.886   1.404  0.1991 -0.2972 -1.3376
17369SOL     OW59156  11.714  11.848  10.868  0.2160  0.0190 -0.2852
17369SOL    HW159157  11.630  11.844  10.913  0.2294  0.8165 -0.1735
17369SOL    HW259158  11.766  11.910  10.920  0.1394  1.1714 -1.5362
17370SOL     OW59159   4.624   4.109   0.488  0.0652  0.0347 -0.3417
17370SOL    HW159160   4.603   4.185   0.542 -0.1560  0.6299 -1.2353
17370SOL    HW259161   4.714   4.125   0.458 -0.3287  0.4601 -1.3430
17371SOL     OW59162   6.908   7.776   1.596 -0.0891 -0.4425 -0.3813
17371SOL    HW159163   6.849   7.715   1.552 -0.3806 -0.8476  0.5628
17371SOL    HW259164   6.995   7.751   1.565 -0.2200 -1.2226 -0.1351
17372SOL     OW59165   0.026   1.766   7.434 -0.4402  0.2122  0.3324
17372SOL    HW159166   0.106   1.819   7.431 -2.0988  3.1186  2.3372
17372SOL    HW259167   0.029   1.723   7.520 -0.8969  0.1071  0.2972
17373SOL     OW59168  10.137  10.714   6.162 -0.3158  0.8690 -0.6709
17373SOL    HW159169  10.230  10.724   6.185  0.1080 -0.8333 -1.5209
17373SOL    HW259170  10.103  10.650   6.225 -0.7210  0.9140 -0.8411
17374SOL     OW59171   8.216   6.497   7.175 -0.5865  0.8020 -0.0063
17374SOL    HW159172   8.226   6.490   7.080 -1.0090  1.0332 -0.0692
17374SOL    HW259173   8.306   6.492   7.209 -0.4862  0.0229 -0.3629
17375SOL     OW59174   0.810   7.808   9.133  0.2584 -0.1300 -0.2078
17375SOL    HW159175   0.799   7.855   9.215  2.0755  0.8844 -0.4716
17375SOL    HW259176   0.825   7.878   9.068 -0.4678 -0.9389 -1.2858
17376SOL     OW59177   8.426   8.050  10.320 -0.7913  0.6666 -0.4153
17376SOL    HW159178   8.338   8.012  10.316 -1.3749  2.0494 -1.5422
17376SOL    HW259179   8.480   7.980  10.357 -1.8143 -1.2740 -2.3071
17377SOL     OW59180   5.212   0.985   7.708  0.3375  0.4775  0.1575
17377SOL    HW159181   5.290   0.931   7.700 -0.6469 -1.5833  3.0114
17377SOL    HW259182   5.146   0.940   7.654  0.0878 -0.0231  0.8675
17378SOL     OW59183   8.283  11.741   7.008 -0.4329 -0.7202 -0.3468
17378SOL    HW159184   8.328  11.801   7.068  0.6106 -0.4165 -1.4023
17378SOL    HW259185   8.313  11.654   7.034 -2.8494 -0.9879  1.9592
17379SOL     OW59186   0.339   5.739   9.477  0.0346  0.5548  0.2411
17379SOL    HW159187   0.346   5.811   9.541  3.5303  1.6930 -1.2108
17379SOL    HW259188   0.413   5.682   9.497 -0.7749 -0.9017 -0.7599
17380SOL     OW59189   4.996   1.430  10.113 -0.4216  0.6202 -0.1137
17380SOL    HW159190   5.063   1.362  10.111 -0.6369  0.3878 -2.5815
17380SOL    HW259191   4.925   1.395  10.059 -2.5343  0.9315  2.2465
17381SOL     OW59192   2.740   7.472   5.827 -0.3511 -0.0998  0.0622
17381SOL    HW159193   2.751   7.562   5.795 -0.7859 -0.1856 -0.3602
17381SOL    HW259194   2.769   7.474   5.918  0.6211  0.2313 -0.2486
17382SOL     OW59195   6.330   6.695   8.221  0.3852  0.2936 -0.1134
17382SOL    HW159196   6.366   6.691   8.133  1.6912 -0.1780  0.4162
17382SOL    HW259197   6.397   6.741   8.273 -0.1925  0.2425  0.7084
17383SOL     OW59198   1.837   2.229   8.769 -0.1170 -0.3712  0.3303
17383SOL    HW159199   1.768   2.167   8.794 -1.3502  1.1944  0.9326
17383SOL    HW259200   1.886   2.183   8.701  0.4953 -2.9682  2.3401
17384SOL     OW59201   3.979  11.542   1.816  1.0803  0.3636  0.6624
17384SOL    HW159202   3.975  11.484   1.892  1.7291  0.6552  0.9193
17384SOL    HW259203   3.960  11.629   1.851  0.3052  0.3449  0.3091
17385SOL     OW59204   2.304   9.591   3.904  0.1702  0.0068 -0.0391
17385SOL    HW159205   2.340   9.578   3.817 -1.8128 -0.6036 -0.8411
17385SOL    HW259206   2.272   9.682   3.904 -0.4090 -0.1890 -0.2068
17386SOL     OW59207   6.191   5.473   4.036  0.4504  0.0993 -0.3090
17386SOL    HW159208   6.270   5.492   4.086  2.1549 -0.7868 -2.4889
17386SOL    HW259209   6.215   5.489   3.945 -1.8081 -0.4509 -1.0786
17387SOL     OW59210   3.708  12.010   6.260  0.5794  0.1894  0.0775
17387SOL    HW159211   3.688  12.063   6.336 -5.2389 -1.7875  0.4651
17387SOL    HW259212   3.693  12.068   6.185 -0.6769  0.4434  0.5006
17388SOL     OW59213   3.901  10.406  11.185  0.1002 -0.3465  0.1490
17388SOL    HW159214   3.877  10.364  11.102 -0.3881 -0.4725  0.3551
17388SOL    HW259215   3.871  10.345  11.252 -1.3616  0.6953  0.4809
17389SOL     OW59216   9.184  10.019   4.274 -0.1971  0.3150 -0.4689
17389SOL    HW159217   9.160   9.997   4.364  0.2205 -0.5585 -0.5621
17389SOL    HW259218   9.263   9.968   4.257 -0.2887  0.4470 -1.3387
17390SOL     OW59219   5.861   7.358   7.789  0.2494 -0.3024  0.4889
17390SOL    HW159220   5.892   7.382   7.702 -0.3785  0.1862  0.3818
17390SOL    HW259221   5.835   7.442   7.828 -0.6896 -0.6572  0.6482
17391SOL     OW59222   5.684   1.117   4.673 -0.0522  0.7431  0.0596
17391SOL    HW159223   5.618   1.130   4.740 -0.0358  0.1229  0.1990
17391SOL    HW259224   5.666   1.029   4.638  0.2596  0.8520 -0.3847
17392SOL     OW59225  12.309   9.794   0.800 -0.2950 -0.4610 -0.1938
17392SOL    HW159226  12.341   9.796   0.709 -1.0387  1.4846 -0.4513
17392SOL    HW259227  12.385   9.814   0.853 -0.4003  1.2080 -0.6127
17393SOL     OW59228   7.959   9.366   7.590  0.4204  0.0870  0.2914
17393SOL    HW159229   8.040   9.331   7.554  1.3269  1.6260  0.7539
17393SOL    HW259230   7.916   9.291   7.631  0.5258 -1.2176 -1.8281
17394SOL     OW59231   2.357   4.180   2.049 -0.0377 -0.3151 -0.2627
17394SOL    HW159232   2.286   4.219   2.100  0.2097  1.3681 -1.1295
17394SOL    HW259233   2.367   4.092   2.085 -2.1662 -0.3992  0.2674
17395SOL     OW59234   8.819  11.569  12.343 -0.2819 -0.6804  0.0929
17395SOL    HW159235   8.872  11.544  12.268 -0.3379 -0.7594  0.0778
17395SOL    HW259236   8.779  11.652  12.318 -1.4547 -1.4170 -0.5635
17396SOL     OW59237   2.519   6.508   0.786 -0.3320  0.0215  0.1319
17396SOL    HW159238   2.474   6.590   0.768 -1.7862 -0.9983 -1.1659
17396SOL    HW259239   2.609   6.533   0.807 -1.3365  2.0935  2.2436
17397SOL     OW59240   6.163   1.250   1.997  0.5517 -0.3506 -0.1261
17397SOL    HW159241   6.149   1.175   1.938 -1.1233  0.9299 -1.4490
17397SOL    HW259242   6.212   1.313   1.945 -2.8982  1.7606 -1.1751
17398SOL     OW59243   2.868   0.488   9.027 -0.1050  0.0561 -0.0868
17398SOL    HW159244   2.959   0.470   9.004  0.3897 -1.7102  2.7530
17398SOL    HW259245   2.817   0.430   8.971  0.3638  1.6658 -2.3132
17399SOL     OW59246   9.738   7.226   1.868  0.2475  0.4061  0.0657
17399SOL    HW159247   9.649   7.201   1.891  1.2113 -0.7930  3.0713
17399SOL    HW259248   9.752   7.309   1.913  0.8653  0.1946  0.2767
17400SOL     OW59249   2.119   3.113   5.260 -0.5404 -0.1472  0.0203
17400SOL    HW159250   2.136   3.022   5.284 -1.7668 -0.5935 -0.6759
17400SOL    HW259251   2.139   3.118   5.167  2.4134  1.1027  0.6056
17401SOL     OW59252   3.217   4.729  12.196 -0.3841  0.6622 -0.1092
17401SOL    HW159253   3.128   4.761  12.183 -0.7431  0.0344  0.7250
17401SOL    HW259254   3.208   4.660  12.262  0.7520  0.7645  0.1648
17402SOL     OW59255   1.572  12.522  10.547  0.2383  0.1768  0.0914
17402SOL    HW159256   1.505  12.474  10.497  0.7172 -0.3457 -0.0551
17402SOL    HW259257   1.563  12.613  10.517  0.1456 -0.0364 -0.5364
17403SOL     OW59258   0.987   4.735   0.757 -0.0742  0.1107 -0.2433
17403SOL    HW159259   1.074   4.707   0.731  0.5053  1.1106  0.5265
17403SOL    HW259260   0.927   4.678   0.708  1.0011 -0.6507 -0.7082
17404SOL     OW59261   1.033   1.776  10.345 -0.2258  0.6018  0.6369
17404SOL    HW159262   1.125   1.770  10.370  0.2460  1.8711 -0.6352
17404SOL    HW259263   1.019   1.869  10.326 -1.6656  0.3727  0.4253
17405SOL     OW59264   4.878   8.946   5.082  0.1617 -0.1912  0.3206
17405SOL    HW159265   4.973   8.956   5.092 -0.0884  0.6630  2.5604
17405SOL    HW259266   4.841   8.995   5.156 -1.9915 -1.6610  0.3098
17406SOL     OW59267   9.531   2.770  11.085 -0.0481 -0.3510  0.3947
17406SOL    HW159268   9.448   2.789  11.130 -0.4607 -0.5501 -0.2579
17406SOL    HW259269   9.511   2.694  11.030  0.4660 -0.1849 -0.0345
17407SOL     OW59270  11.437  11.930   3.086  0.0599  0.9532  0.0788
17407SOL    HW159271  11.359  11.876   3.102  0.9423 -0.0078  1.3034
17407SOL    HW259272  11.404  12.020   3.088 -1.3538  0.5245 -1.4871
17408SOL     OW59273  12.069   1.288   4.176  0.2175 -0.2047  0.7968
17408SOL    HW159274  12.123   1.364   4.196  0.3388 -0.1150  0.1417
17408SOL    HW259275  11.998   1.291   4.241 -0.7749  1.4639 -0.2875
17409SOL     OW59276   7.903   5.479   4.506  0.8349  0.1483 -0.0359
17409SOL    HW159277   7.941   5.394   4.527  1.1690 -0.1348 -1.6600
17409SOL    HW259278   7.970   5.524   4.454 -0.2944  0.3921 -1.3432
17410SOL     OW59279   1.987   6.048   4.313 -0.1486  0.8471 -0.2577
17410SOL    HW159280   1.988   6.071   4.406  0.2559 -1.6633  0.4539
17410SOL    HW259281   1.989   5.952   4.313  0.6072  0.7973 -2.8830
17411SOL     OW59282   3.669   4.508  11.657  0.2602 -0.9534  0.1922
17411SOL    HW159283   3.620   4.589  11.640  0.6073 -1.0709 -1.5527
17411SOL    HW259284   3.641   4.481  11.744  0.4884  1.2973  1.0372
17412SOL     OW59285   3.604   7.073   4.925  0.4771  0.4340 -0.4732
17412SOL    HW159286   3.545   7.140   4.959 -0.5395 -0.1181 -1.1048
17412SOL    HW259287   3.657   7.046   5.001 -1.2716 -0.2940  0.5552
17413SOL     OW59288   6.070   0.827   6.415  0.1289  0.4279  0.2052
17413SOL    HW159289   5.988   0.841   6.463 -0.3425 -0.9236 -0.1495
17413SOL    HW259290   6.114   0.912   6.418 -0.3495  0.6661  2.1308
17414SOL     OW59291  10.655   0.942   8.059  0.3614  0.5000 -0.1683
17414SOL    HW159292  10.638   0.855   8.095  0.8157  1.3280  2.1942
17414SOL    HW259293  10.739   0.968   8.097 -0.4904  2.5856  0.4365
17415SOL     OW59294   3.082   8.263  11.603  0.1958  0.2440 -0.2171
17415SOL    HW159295   3.125   8.341  11.637 -1.4142  0.8642  0.5046
17415SOL    HW259296   3.102   8.264  11.509 -1.0544  2.4095 -0.5248
17416SOL     OW59297   0.065   1.681   2.959 -0.2496 -0.0908 -0.0864
17416SOL    HW159298   0.027   1.715   3.040  1.4802 -0.6650  1.0199
17416SOL    HW259299   0.158   1.699   2.967 -0.2490  1.9403 -3.0260
17417SOL     OW59300   3.205   8.731  10.409 -0.5445 -0.0386  0.4695
17417SOL    HW159301   3.298   8.723  10.430 -0.5910  1.3218  1.3531
17417SOL    HW259302   3.184   8.651  10.361  1.5201  0.4642 -1.4469
17418SOL     OW59303   1.478   9.030   3.075 -0.1668 -0.7500 -0.2119
17418SOL    HW159304   1.484   8.941   3.041  1.2150 -0.7800  0.0314
17418SOL    HW259305   1.533   9.029   3.154  1.0491  0.6404 -0.9787
17419SOL     OW59306   0.551   1.237  10.420  0.2832  0.3799 -0.4424
17419SOL    HW159307   0.464   1.276  10.423 -0.8294 -1.8876 -0.5129
17419SOL    HW259308   0.563   1.198  10.506  1.2006  0.6098 -0.4605
17420SOL     OW59309  11.717   4.265   1.751  0.0112 -0.5514 -0.2768
17420SOL    HW159310  11.750   4.344   1.794 -0.8776 -1.0895  1.4990
17420SOL    HW259311  11.622   4.277   1.749 -0.0841 -1.3204 -0.5134
17421SOL     OW59312   8.668   7.802   1.460  0.2418 -0.1984  0.3065
17421SOL    HW159313   8.645   7.758   1.541  2.0639  3.0030  2.7905
17421SOL    HW259314   8.757   7.834   1.474  1.7542 -1.7776 -4.0794
17422SOL     OW59315  11.294   9.510   0.369  0.1849  0.0705  0.4739
17422SOL    HW159316  11.296   9.575   0.438 -0.3337  0.0301  0.5326
17422SOL    HW259317  11.285   9.426   0.415  0.2672  0.0066  0.3743
17423SOL     OW59318   1.844   6.461   9.891  0.0099  0.2354  0.0136
17423SOL    HW159319   1.802   6.522   9.831  1.6596  0.6844 -0.7363
17423SOL    HW259320   1.869   6.387   9.837 -0.0720 -0.1556  0.5016
17424SOL     OW59321   5.030   7.780   4.608  0.1917 -0.2289  0.4000
17424SOL    HW159322   5.005   7.749   4.694  0.5033 -0.3650  0.4448
17424SOL    HW259323   5.125   7.765   4.604 -0.0811 -1.8538 -0.6293
17425SOL     OW59324  12.402   6.706   2.516  0.1292  0.1604  0.1571
17425SOL    HW159325  12.497   6.716   2.525 -0.0044 -0.0275  2.0507
17425SOL    HW259326  12.392   6.644   2.444  1.5608 -1.8677  1.5967
17426SOL     OW59327   8.788  11.459   0.329  0.3057 -0.1084  0.0087
17426SOL    HW159328   8.750  11.371   0.336 -1.4030  0.5264 -0.6648
17426SOL    HW259329   8.877  11.444   0.296 -0.5010 -1.5425 -1.7182
17427SOL     OW59330   7.428   2.219   3.735  0.5482 -0.1976 -0.7757
17427SOL    HW159331   7.515   2.242   3.768  0.2876 -0.9600  0.5087
17427SOL    HW259332   7.385   2.302   3.719  0.4299  0.2284  1.5437
17428SOL     OW59333   4.975   7.168   3.373 -0.1715 -0.3219  0.3558
17428SOL    HW159334   4.907   7.211   3.322 -0.4962 -0.0090  1.0332
17428SOL    HW259335   4.928   7.125   3.445  0.4574  1.1684  1.7135
17429SOL     OW59336   7.873   0.517   9.067  0.1444  0.3112 -0.0523
17429SOL    HW159337   7.870   0.509   9.163 -0.6321  1.8332  0.0908
17429SOL    HW259338   7.782   0.529   9.041  0.2391 -1.0907 -1.1127
17430SOL     OW59339   5.030   9.157   9.622  0.4575 -0.3599  0.5239
17430SOL    HW159340   5.029   9.075   9.573  1.6398 -1.1629  1.7954
17430SOL    HW259341   4.946   9.198   9.601  0.9821 -0.5320 -2.3445
17431SOL     OW59342  10.011   7.615  11.245  0.2262 -0.6426 -0.0783
17431SOL    HW159343   9.925   7.587  11.279  0.5040 -0.0488  1.1795
17431SOL    HW259344   9.991   7.684  11.183 -0.2038 -0.1566  0.5805
17432SOL     OW59345  10.236   6.825  11.369  0.2149 -0.1006  0.0108
17432SOL    HW159346  10.207   6.916  11.369 -0.9984 -0.4697  0.8550
17432SOL    HW259347  10.260   6.807  11.460 -2.8620 -1.5947  0.6598
17433SOL     OW59348   3.931  12.540  11.371  0.2784  0.1266 -0.1283
17433SOL    HW159349   3.937  12.635  11.379  0.4420  0.1655 -0.6250
17433SOL    HW259350   4.001  12.506  11.427  1.4705  0.3741 -1.4052
17434SOL     OW59351   2.501   8.161  10.761 -0.4447  1.0368 -0.1511
17434SOL    HW159352   2.409   8.138  10.772 -0.2897  0.9233  1.1093
17434SOL    HW259353   2.513   8.238  10.816  0.2204  1.0178 -0.2649
17435SOL     OW59354   7.923  11.155  10.081  0.0666 -0.3604 -0.5775
17435SOL    HW159355   7.950  11.202  10.002  2.8368  0.0670  0.5259
17435SOL    HW259356   7.969  11.071  10.077  1.0987  0.0779  1.0200
17436SOL     OW59357   0.366  10.399   0.842  0.6988  0.0078  0.0038
17436SOL    HW159358   0.456  10.431   0.856  1.0295  0.0301 -1.9295
17436SOL    HW259359   0.340  10.437   0.759 -0.4927 -1.3447 -0.2754
17437SOL     OW59360   3.241   9.156   5.318 -0.3542  0.6194  0.2919
17437SOL    HW159361   3.225   9.079   5.372  0.1397 -0.3105 -0.8506
17437SOL    HW259362   3.153   9.188   5.297 -0.5651  0.3345  0.7134
17438SOL     OW59363   3.104   2.645  11.934 -0.2481  0.1297  0.0230
17438SOL    HW159364   3.159   2.713  11.893  0.9915 -1.6559 -1.4791
17438SOL    HW259365   3.167   2.580  11.966 -1.3286  0.3337  2.8157
17439SOL     OW59366   9.856   6.968   1.782  0.0078 -0.0162  0.6250
17439SOL    HW159367   9.795   7.040   1.797  0.1873  0.8891 -2.2532
17439SOL    HW259368   9.803   6.900   1.741  0.6469  0.3515 -0.8907
17440SOL     OW59369   7.557  10.881   6.283  0.0430 -0.0713  0.3305
17440SOL    HW159370   7.572  10.907   6.374 -0.8644  0.6870  0.2926
17440SOL    HW259371   7.536  10.788   6.287 -0.8138  0.1352  1.0181
17441SOL     OW59372  12.408  11.227   9.270  0.2364  0.1944 -0.3841
17441SOL    HW159373  12.480  11.203   9.211  0.1329 -1.3695  0.0980
17441SOL    HW259374  12.426  11.319   9.292 -0.1241  1.1109 -3.3884
17442SOL     OW59375   3.114   3.962   5.155  0.4056  0.6772  0.6241
17442SOL    HW159376   3.121   3.918   5.071 -3.4917 -0.2259  0.6185
17442SOL    HW259377   3.145   3.897   5.219 -1.0153 -0.4493  0.2184
17443SOL     OW59378   3.189   8.796   1.835  0.8059 -0.4677  0.0702
17443SOL    HW159379   3.195   8.763   1.924 -0.0746 -0.0240  0.3100
17443SOL    HW259380   3.265   8.759   1.790  1.4257 -0.4498  1.0740
17444SOL     OW59381   4.455   5.839   2.762 -0.4488  0.8701  0.0039
17444SOL    HW159382   4.377   5.877   2.722 -1.2325 -1.5587 -0.9257
17444SOL    HW259383   4.518   5.831   2.689 -1.3511 -2.1865 -0.5743
17445SOL     OW59384   3.790  11.269   9.670 -0.1332 -0.3443 -0.5694
17445SOL    HW159385   3.698  11.255   9.693  0.2088 -0.1446  0.9983
17445SOL    HW259386   3.838  11.206   9.724  0.5870 -1.4978 -2.4508
17446SOL     OW59387   1.600   6.899   3.266  0.3165 -0.0286  0.1495
17446SOL    HW159388   1.651   6.896   3.347  0.2139  0.5836  0.2430
17446SOL    HW259389   1.524   6.953   3.288  0.0663 -0.2243 -0.2331
17447SOL     OW59390   3.187   3.024  11.741  0.3438 -0.2317 -0.7493
17447SOL    HW159391   3.162   3.066  11.824 -1.3719 -2.3583 -0.1229
17447SOL    HW259392   3.105   3.008  11.696  1.0175 -2.0120 -1.4042
17448SOL     OW59393   9.214   3.351   9.465  0.0278 -0.1654 -0.2710
17448SOL    HW159394   9.154   3.387   9.399  0.7631  0.0343 -0.8416
17448SOL    HW259395   9.160   3.290   9.514 -0.5691 -0.2412 -0.9896
17449SOL     OW59396  10.017   0.257   4.735 -0.0953 -0.8544 -0.6813
17449SOL    HW159397  10.063   0.338   4.711 -0.7497 -0.2669 -0.0091
17449SOL    HW259398  10.062   0.227   4.814  0.2184 -1.2133 -0.9942
17450SOL     OW59399   8.708   4.773   1.762  0.0703  0.3198 -0.5067
17450SOL    HW159400   8.682   4.859   1.795  0.8899 -0.1898  1.6205
17450SOL    HW259401   8.802   4.782   1.744 -0.1884  0.3369 -2.0201
17451SOL     OW59402   7.343   0.347   4.539  0.1261 -0.0306  0.8420
17451SOL    HW159403   7.436   0.366   4.523  0.0537  0.5699  1.1156
17451SOL    HW259404   7.328   0.376   4.629 -0.1257 -0.9068  1.0840
17452SOL     OW59405   8.118   7.826   3.511  0.0502  0.2929  0.6441
17452SOL    HW159406   8.115   7.882   3.433  1.0519  1.3944  1.3626
17452SOL    HW259407   8.034   7.781   3.511  0.6816 -1.1206 -2.0376
17453SOL     OW59408   0.977   0.748   8.421  0.2599  0.3578 -0.2959
17453SOL    HW159409   1.036   0.739   8.345  1.4430  1.9154  0.3864
17453SOL    HW259410   0.890   0.735   8.385  0.9157 -0.6411 -1.6081
17454SOL     OW59411   9.408  11.119   2.740 -0.1469 -0.4285  0.0401
17454SOL    HW159412   9.362  11.139   2.821 -0.5763  1.2878 -0.5750
17454SOL    HW259413   9.347  11.065   2.690  0.6239 -2.6083  1.3300
17455SOL     OW59414   0.921   9.192  12.387 -0.4039 -0.5346  0.1373
17455SOL    HW159415   0.932   9.202  12.482 -0.4605 -2.0618  0.3199
17455SOL    HW259416   0.936   9.099  12.370 -2.0602 -0.6218 -1.1226
17456SOL     OW59417   6.310   3.910   5.340 -0.4239 -0.3368  0.5992
17456SOL    HW159418   6.329   3.912   5.246 -1.9619  2.9840  0.2005
17456SOL    HW259419   6.396   3.905   5.381  0.5487  1.4606 -1.0413
17457SOL     OW59420   2.605   9.832  11.962  0.6436  0.0730 -0.3631
17457SOL    HW159421   2.640   9.743  11.948  0.2745 -0.3774  1.3175
17457SOL    HW259422   2.514   9.818  11.990  0.2273  1.0547 -1.1592
17458SOL     OW59423   9.071   3.204  11.760 -0.3420  0.3816 -0.4880
17458SOL    HW159424   9.065   3.110  11.740 -0.2808  0.4630 -0.8809
17458SOL    HW259425   9.037   3.211  11.849  0.1594 -0.0912 -0.2523
17459SOL     OW59426   2.704  11.222   3.567 -0.3443 -0.1878  0.5338
17459SOL    HW159427   2.736  11.311   3.583 -0.7875  0.2583 -0.9192
17459SOL    HW259428   2.642  11.231   3.494  0.2580 -1.7934 -0.2322
17460SOL     OW59429   9.053  10.042   0.989  0.1123 -0.4807 -1.3502
17460SOL    HW159430   8.982   9.977   0.992 -0.6124  0.2939 -1.2651
17460SOL    HW259431   9.133   9.990   0.995 -0.4745 -1.3129 -0.3317
17461SOL     OW59432   7.161  11.397   9.556  0.5422 -0.8914  0.2142
17461SOL    HW159433   7.157  11.330   9.487 -1.6861  0.4770 -1.0995
17461SOL    HW259434   7.162  11.480   9.508  1.1267  0.0900  1.8477
17462SOL     OW59435  12.239  11.872   7.456 -0.2074 -0.1625  0.1409
17462SOL    HW159436  12.293  11.870   7.535 -0.8676 -1.2783  0.6005
17462SOL    HW259437  12.242  11.781   7.424  1.5005  0.5941 -2.1624
17463SOL     OW59438   5.439   2.795   1.233  0.1358 -0.1618  0.3155
17463SOL    HW159439   5.445   2.700   1.227 -0.2755 -0.1359 -0.8786
17463SOL    HW259440   5.522   2.827   1.196  0.2403 -0.0566  0.6408
17464SOL     OW59441   1.980  11.057   7.667  0.1670 -0.1341  0.0971
17464SOL    HW159442   1.979  11.058   7.762  1.0040  1.6990  0.1280
17464SOL    HW259443   1.978  10.964   7.643  0.2643 -0.6224  1.8820
17465SOL     OW59444   6.769   6.743   1.637 -0.1949 -0.1939  0.0802
17465SOL    HW159445   6.698   6.752   1.574 -1.7704 -2.6797  1.3148
17465SOL    HW259446   6.760   6.818   1.695 -1.4927 -0.1905 -0.1069
17466SOL     OW59447  12.559   1.525   8.648  0.7179  0.2128  0.3580
17466SOL    HW159448  12.540   1.615   8.624 -0.3932  0.3694  1.6722
17466SOL    HW259449  12.623   1.532   8.719  0.3895 -0.0039  0.6821
17467SOL     OW59450  11.998  10.470   1.174 -0.0073  0.4753  0.0432
17467SOL    HW159451  12.004  10.393   1.118  1.4325  0.3304  0.3578
17467SOL    HW259452  12.088  10.503   1.180 -0.0511  0.3458  2.4604
17468SOL     OW59453   8.550   3.751   0.005  0.1549  0.4243 -0.2172
17468SOL    HW159454   8.633   3.790   0.031  0.7846  0.2380 -1.8538
17468SOL    HW259455   8.565   3.718  -0.083 -0.7728 -2.2116  0.5013
17469SOL     OW59456   4.039   1.816   7.656 -0.5626  0.1351 -0.2339
17469SOL    HW159457   4.054   1.757   7.582  3.0476 -0.7424  1.0144
17469SOL    HW259458   4.123   1.860   7.670 -1.8974  2.3380  1.6575
17470SOL     OW59459   9.710   2.720   4.318 -0.3450  0.0282 -0.5615
17470SOL    HW159460   9.655   2.764   4.383 -0.7987 -1.6097  0.2454
17470SOL    HW259461   9.799   2.747   4.339 -0.5519  0.0557  0.3205
17471SOL     OW59462   7.563   5.223   0.499 -0.0404  0.1218  0.3197
17471SOL    HW159463   7.470   5.243   0.497  0.1409  0.9651 -0.1639
17471SOL    HW259464   7.576   5.177   0.582 -0.9769 -0.4878  0.1451
17472SOL     OW59465  11.633   0.356   0.118  0.0157 -0.0903  0.0815
17472SOL    HW159466  11.542   0.387   0.118  0.0178 -0.0453 -0.9415
17472SOL    HW259467  11.643   0.311   0.035  0.6154 -1.0843  0.6703
17473SOL     OW59468   5.524  12.392   6.999 -0.3100 -0.0804  0.4983
17473SOL    HW159469   5.565  12.315   6.959  0.1772  1.0620 -1.3378
17473SOL    HW259470   5.470  12.429   6.929 -0.9712  0.9358  1.5139
17474SOL     OW59471   0.452  10.415   3.391  0.6824 -0.6735  0.1352
17474SOL    HW159472   0.449  10.430   3.486 -1.0476  2.2669 -0.2630
17474SOL    HW259473   0.543  10.431   3.367  1.0561 -1.0410  1.1989
17475SOL     OW59474   7.937   6.757  10.194 -0.3241  0.2395  0.3151
17475SOL    HW159475   7.949   6.843  10.234 -1.7510  0.3634  0.5029
17475SOL    HW259476   7.960   6.695  10.264  1.4942  0.4208 -0.0602
17476SOL     OW59477  11.613   8.046   3.612 -0.4342  0.7615  0.4595
17476SOL    HW159478  11.595   8.005   3.528  1.2090 -0.8079  0.8192
17476SOL    HW259479  11.571   7.989   3.676  2.6177 -1.0117  1.0378
17477SOL     OW59480   2.062   8.223   9.796 -0.1799  0.5173 -0.0568
17477SOL    HW159481   2.109   8.305   9.781  1.8973 -0.5699  0.1460
17477SOL    HW259482   2.093   8.165   9.727 -2.2503  0.1033 -0.7001
17478SOL     OW59483   1.747   3.235  12.206  0.1916 -0.0429  0.2858
17478SOL    HW159484   1.738   3.179  12.128 -1.0803 -0.3609  0.6399
17478SOL    HW259485   1.831   3.209  12.243  1.2149  0.6802 -1.4083
17479SOL     OW59486   8.137  10.081   4.027  0.4316  0.2035  0.1002
17479SOL    HW159487   8.107  10.119   3.944 -1.7452  0.2388  0.8535
17479SOL    HW259488   8.126  10.151   4.091  0.4536 -0.3664  0.7388
17480SOL     OW59489   2.487  11.765   4.301 -0.2967  0.4299 -0.3818
17480SOL    HW159490   2.405  11.729   4.335  0.8220  0.2600  2.4310
17480SOL    HW259491   2.477  11.860   4.309 -0.9380  0.5348 -2.0158
17481SOL     OW59492  12.221   5.719   9.293 -0.1822 -0.0172 -0.0138
17481SOL    HW159493  12.279   5.778   9.246 -2.1840  2.1455  0.0545
17481SOL    HW259494  12.215   5.641   9.238  2.6487 -0.3115 -0.0376
17482SOL     OW59495   5.211   9.384   3.531 -0.1936  0.3517 -0.5404
17482SOL    HW159496   5.175   9.472   3.516 -1.8658 -0.2514 -0.3394
17482SOL    HW259497   5.275   9.372   3.461  1.1644  2.2684  0.2882
17483SOL     OW59498   5.262   4.334   8.229  0.2767 -0.1123  0.0946
17483SOL    HW159499   5.304   4.419   8.241  0.7011 -0.4643  1.3318
17483SOL    HW259500   5.331   4.279   8.190 -0.0361  0.1287 -0.8244
17484SOL     OW59501   1.892   9.216   6.884  0.0714 -0.4098  0.6599
17484SOL    HW159502   1.965   9.254   6.933  0.4544 -1.4544  0.9271
17484SOL    HW259503   1.847   9.291   6.846  1.4634  0.2447  0.2409
17485SOL     OW59504   0.072  10.237  10.890 -0.1733 -0.0459 -0.2861
17485SOL    HW159505   0.036  10.202  10.808  0.5921 -0.4367 -0.4590
17485SOL    HW259506   0.054  10.331  10.885  0.5547  0.0531 -1.2636
17486SOL     OW59507   0.175  12.407  11.836 -0.4103  0.0132  0.2823
17486SOL    HW159508   0.137  12.343  11.776  0.1083 -1.9058  1.9016
17486SOL    HW259509   0.263  12.373  11.854  0.1808  1.6220  0.5970
17487SOL     OW59510   7.634  10.204   6.574 -0.4356  0.4983  0.1377
17487SOL    HW159511   7.633  10.285   6.626  0.9067  1.0504 -0.6280
17487SOL    HW259512   7.643  10.134   6.639 -0.2677  1.0680  0.7361
17488SOL     OW59513  12.108   6.607  11.451  0.7599 -0.5420  0.0470
17488SOL    HW159514  12.059   6.673  11.402 -0.3260 -0.1468  1.6093
17488SOL    HW259515  12.149   6.553  11.383  0.0176  0.4985 -1.2800
17489SOL     OW59516   3.275   0.605   1.975 -0.2699 -0.7420  0.9065
17489SOL    HW159517   3.261   0.699   1.963 -0.8225 -0.9190  0.0631
17489SOL    HW259518   3.369   0.597   1.993  0.1724 -0.1895 -0.9523
17490SOL     OW59519   0.150   7.226   1.625  0.3129 -0.0403  0.2143
17490SOL    HW159520   0.209   7.187   1.690  2.0913  1.6243 -0.3274
17490SOL    HW259521   0.208   7.264   1.559 -1.4078  0.5506 -1.0292
17491SOL     OW59522   8.614   9.423   5.210  0.0702  0.4015 -0.0698
17491SOL    HW159523   8.645   9.454   5.125  0.0818  0.6070  0.0076
17491SOL    HW259524   8.665   9.344   5.227 -0.1494  0.1867 -0.3940
17492SOL     OW59525   7.796   6.415   6.341 -0.2170  0.0381  0.3920
17492SOL    HW159526   7.729   6.349   6.356  0.4856 -0.5950  0.8743
17492SOL    HW259527   7.815   6.411   6.248 -0.0694 -0.5498  0.4481
17493SOL     OW59528   2.035   8.556   8.389 -0.0391 -0.0996  0.3005
17493SOL    HW159529   2.003   8.567   8.300  0.8100 -2.2414 -0.3095
17493SOL    HW259530   2.101   8.625   8.399 -0.0226  0.0592 -0.7809
17494SOL     OW59531   5.472   5.935   7.517  0.4628  0.2573  0.1070
17494SOL    HW159532   5.502   6.021   7.547 -0.2833  0.5618 -0.0012
17494SOL    HW259533   5.536   5.873   7.554  0.6730  0.8024  0.6768
17495SOL     OW59534   0.924  10.922   2.598 -0.5607  0.2927  0.3382
17495SOL    HW159535   0.966  10.879   2.524 -1.0959  0.6076 -0.1512
17495SOL    HW259536   0.839  10.951   2.565 -1.0943 -0.1747  1.2637
17496SOL     OW59537   3.043  10.133   2.314  0.0276 -0.0786  0.3451
17496SOL    HW159538   2.953  10.103   2.300 -0.0191  0.3526 -0.3214
17496SOL    HW259539   3.050  10.145   2.409 -0.8914  0.7376  0.3221
17497SOL     OW59540   8.594  10.171   0.172  0.1360  0.4471  0.4403
17497SOL    HW159541   8.608  10.262   0.199  1.1452  0.7809 -1.0308
17497SOL    HW259542   8.633  10.119   0.242 -1.7355  1.0584  2.0171
17498SOL     OW59543  11.748   8.776   1.272  0.2980  0.4513 -0.4016
17498SOL    HW159544  11.740   8.743   1.183  3.5396  0.4388 -0.7744
17498SOL    HW259545  11.700   8.859   1.271 -0.3345  0.0988 -1.9332
17499SOL     OW59546   2.324   6.234  11.176  0.7559 -0.2569  0.3642
17499SOL    HW159547   2.324   6.139  11.169 -0.1191 -0.3866  1.8038
17499SOL    HW259548   2.344   6.251  11.268 -1.8148  0.8509  0.8029
17500SOL     OW59549   1.996   4.426   5.873  0.3661 -0.4327  0.0609
17500SOL    HW159550   1.987   4.520   5.892 -0.2400 -0.7967  1.8467
17500SOL    HW259551   2.086   4.406   5.899  0.9169 -0.1245 -1.5264
17501SOL     OW59552  12.417   9.088   1.812  0.0395 -0.3984 -0.5800
17501SOL    HW159553  12.497   9.068   1.860  0.5170  1.6499 -0.4161
17501SOL    HW259554  12.448   9.126   1.730 -0.7095  0.7689 -0.3556
17502SOL     OW59555   3.452   9.201  10.323  0.0041 -0.0994 -0.1321
17502SOL    HW159556   3.364   9.234  10.342 -0.6535 -0.7374 -1.8794
17502SOL    HW259557   3.444   9.106  10.329  0.5117 -0.1731 -0.5964
17503SOL     OW59558   5.734  12.572   1.119  0.5369  0.0395  0.3500
17503SOL    HW159559   5.816  12.541   1.081 -0.3264 -0.9417 -0.8084
17503SOL    HW259560   5.721  12.519   1.197  0.8389 -0.0180  0.3608
17504SOL     OW59561   9.238  10.104   5.787  0.1947 -0.0508  0.2344
17504SOL    HW159562   9.226  10.104   5.692 -0.6241 -0.7812  0.3247
17504SOL    HW259563   9.193  10.025   5.817  1.5376 -0.5281  1.1042
17505SOL     OW59564   9.078   2.130  10.366  0.0265 -0.1153 -0.4155
17505SOL    HW159565   9.019   2.090  10.430 -1.4879  1.0994 -0.9669
17505SOL    HW259566   9.166   2.107  10.396 -0.6783 -0.8064  1.2528
17506SOL     OW59567   9.885  10.399   8.431 -0.5210  0.4026 -0.4589
17506SOL    HW159568   9.862  10.355   8.348 -1.4320  1.5811 -0.8579
17506SOL    HW259569   9.800  10.419   8.471 -0.1069  1.1602  0.0530
17507SOL     OW59570   0.319  10.092   8.536 -0.3143 -0.6743  0.2640
17507SOL    HW159571   0.347  10.041   8.611  0.7103  0.5327  0.7243
17507SOL    HW259572   0.313  10.028   8.464  1.2991 -1.3744  0.7223
17508SOL     OW59573   2.950  11.955   5.668 -0.0554  0.2521 -0.6758
17508SOL    HW159574   2.980  12.027   5.724  0.2119 -0.2158 -0.2080
17508SOL    HW259575   2.930  11.884   5.729 -0.1812 -0.1206 -1.1447
17509SOL     OW59576   8.471   9.911  10.415  0.2275 -0.4409  0.4433
17509SOL    HW159577   8.452   9.818  10.425  1.8312 -0.7359  1.1135
17509SOL    HW259578   8.514   9.936  10.497 -2.1640  1.4684  1.2314
17510SOL     OW59579   8.170   1.383   8.465 -0.0113 -0.0594 -0.3835
17510SOL    HW159580   8.101   1.350   8.522 -0.6403 -0.6830 -1.4691
17510SOL    HW259581   8.128   1.394   8.380  0.6959  1.6507 -0.5590
17511SOL     OW59582   9.983   6.107   9.079  0.6174  0.1647  0.3078
17511SOL    HW159583   9.907   6.067   9.122  0.9562  0.7960  1.5447
17511SOL    HW259584   9.945   6.167   9.015  0.0566  0.6263  1.0554
17512SOL     OW59585   9.906   9.990   4.712  0.0069  0.6661 -0.2866
17512SOL    HW159586   9.945  10.033   4.635  0.7830  2.0460  0.8237
17512SOL    HW259587   9.822  10.034   4.723 -0.5665 -0.2501 -0.9357
17513SOL     OW59588   6.603   8.127   4.918 -0.4256  0.9724 -0.0815
17513SOL    HW159589   6.555   8.200   4.879 -0.1953  0.8726 -0.5704
17513SOL    HW259590   6.567   8.049   4.876 -0.1856  0.8601 -0.0823
17514SOL     OW59591   9.479   0.855   4.744 -0.3282 -0.1701 -0.2839
17514SOL    HW159592   9.526   0.937   4.759 -1.0976  0.6198 -1.9888
17514SOL    HW259593   9.490   0.806   4.826  2.7882  0.2858 -0.3081
17515SOL     OW59594   6.148  10.124   3.175 -0.2072 -0.4302 -0.1675
17515SOL    HW159595   6.222  10.175   3.142  1.4379 -1.5832  1.4989
17515SOL    HW259596   6.175  10.033   3.161  0.3708 -0.9811  3.6221
17516SOL     OW59597   1.972   8.393   7.075 -0.8167 -0.0796  0.0654
17516SOL    HW159598   1.939   8.481   7.062 -0.1693  0.1242 -0.2580
17516SOL    HW259599   2.020   8.396   7.158  0.8033  0.3845 -0.8306
17517SOL     OW59600   6.251   0.668   8.642 -0.0132  0.2855  0.2233
17517SOL    HW159601   6.333   0.681   8.594 -0.1377  1.0583  0.2057
17517SOL    HW259602   6.198   0.614   8.584  0.5630 -0.4333  0.3378
17518SOL     OW59603   5.203   3.030   3.551 -0.5241  0.4478  0.5308
17518SOL    HW159604   5.235   3.114   3.583  3.7102 -0.3731 -0.9600
17518SOL    HW259605   5.185   3.045   3.458 -2.2908  0.2534  0.8088
17519SOL     OW59606   7.487   7.475   8.909  0.0997  0.1134 -0.6523
17519SOL    HW159607   7.531   7.491   8.825  0.3312 -0.5043 -0.6529
17519SOL    HW259608   7.494   7.381   8.922 -0.8286  0.0652 -0.4249
17520SOL     OW59609   1.168   4.203   5.347  0.4657 -0.0443 -0.3877
17520SOL    HW159610   1.086   4.208   5.297 -0.2657  0.2597  0.8025
17520SOL    HW259611   1.203   4.293   5.344 -0.1072  0.2197  0.4834
17521SOL     OW59612   6.768   8.944  11.225 -0.1692 -0.1754 -0.3318
17521SOL    HW159613   6.817   8.867  11.254  2.3098  0.9634 -1.2748
17521SOL    HW259614   6.720   8.972  11.303  2.2138 -0.2346  1.2581
17522SOL     OW59615   1.252  12.141   9.609 -0.0212  0.7870 -0.1125
17522SOL    HW159616   1.207  12.173   9.687  1.7726 -0.7489  1.6841
17522SOL    HW259617   1.208  12.058   9.589  2.5463 -1.4119  2.4599
17523SOL     OW59618  11.171  10.001  10.161 -0.0979  0.0312  0.0991
17523SOL    HW159619  11.260  10.036  10.165  0.1639 -0.6653  0.5895
17523SOL    HW259620  11.162   9.948  10.240 -1.0927  0.4180  0.2522
17524SOL     OW59621   0.645   9.306   6.570  0.2445  0.7143  0.3095
17524SOL    HW159622   0.723   9.268   6.612  0.4403  2.1610  1.3573
17524SOL    HW259623   0.634   9.391   6.614 -1.0340  1.2038 -0.8916
17525SOL     OW59624   7.226  11.677   5.317 -0.0825 -0.1286 -0.7669
17525SOL    HW159625   7.316  11.701   5.342  0.0240  0.8226 -2.0098
17525SOL    HW259626   7.237  11.614   5.246 -0.4125 -0.8776 -0.1758
17526SOL     OW59627   3.221   6.770   5.475 -0.3990 -0.3554  0.4480
17526SOL    HW159628   3.202   6.863   5.483 -1.7054 -0.4529 -0.8604
17526SOL    HW259629   3.315   6.765   5.460 -0.4539  0.8446 -0.4433
17527SOL     OW59630   0.085   7.527   1.533  0.3003  0.1059  0.2041
17527SOL    HW159631   0.039   7.611   1.536  2.2955  1.3854 -1.9427
17527SOL    HW259632   0.142   7.528   1.610  0.0131  0.5268  0.4144
17528SOL     OW59633   9.216  10.889   9.668  0.1959  0.2013  0.1164
17528SOL    HW159634   9.250  10.978   9.665  0.0761  0.2706  0.6215
17528SOL    HW259635   9.278  10.841   9.723  0.8516 -0.3026 -1.0360
17529SOL     OW59636   3.709   6.576   0.186  0.2235  0.3106  0.2726
17529SOL    HW159637   3.654   6.508   0.146  2.6106 -1.2706 -0.5593
17529SOL    HW259638   3.735   6.633   0.113 -0.0968  0.8897  0.6074
17530SOL     OW59639   4.018   7.539   3.047 -0.1346 -0.1001 -0.2284
17530SOL    HW159640   4.076   7.588   3.106 -2.7290  1.5732  1.1161
17530SOL    HW259641   3.978   7.473   3.104 -2.2399  1.1661 -0.1243
17531SOL     OW59642   2.502   4.853  10.661 -0.2155 -0.3825  0.0992
17531SOL    HW159643   2.434   4.822  10.721 -0.1759  0.4767  0.6095
17531SOL    HW259644   2.581   4.806  10.687 -0.9401 -2.7878 -1.6722
17532SOL     OW59645   0.962   7.917   9.666 -0.2594 -0.1195 -0.2827
17532SOL    HW159646   0.954   7.962   9.750 -0.8785 -2.2243  0.8725
17532SOL    HW259647   1.048   7.943   9.633  1.3596 -1.5171  2.4951
17533SOL     OW59648   1.674   6.879   6.140 -0.1329  0.2677 -0.3707
17533SOL    HW159649   1.701   6.961   6.099  1.0947  0.8363  1.4315
17533SOL    HW259650   1.664   6.901   6.233 -1.2898 -1.2872 -0.0898
17534SOL     OW59651  10.720  12.141   1.854  0.2667 -0.2851 -0.4308
17534SOL    HW159652  10.668  12.218   1.832  1.5945  0.8179  0.1899
17534SOL    HW259653  10.779  12.129   1.780 -0.8331 -1.5504 -1.1463
17535SOL     OW59654  12.177   4.743   9.303  0.3490  0.1357  0.0588
17535SOL    HW159655  12.174   4.833   9.270  2.4154  0.0931 -0.3855
17535SOL    HW259656  12.120   4.694   9.243  0.8465  0.7933 -0.9925
17536SOL     OW59657   3.094   8.209   3.701  0.2091 -0.3242 -0.2321
17536SOL    HW159658   3.057   8.140   3.754 -0.3908  0.6985  0.7124
17536SOL    HW259659   3.152   8.257   3.761  0.7788 -0.1187 -0.9258
17537SOL     OW59660   4.352  12.382   5.179  0.1550 -0.1257  0.3521
17537SOL    HW159661   4.345  12.474   5.202 -0.3624 -0.3759  1.2600
17537SOL    HW259662   4.429  12.377   5.122  0.1410  0.8702  0.2283
17538SOL     OW59663   1.033   2.299   4.446 -0.0394  0.6848  0.6783
17538SOL    HW159664   1.085   2.247   4.385  0.7665  1.4079  0.7298
17538SOL    HW259665   0.962   2.241   4.473  0.5210 -0.1887  0.3064
17539SOL     OW59666  11.567   9.717   8.082  0.0656 -0.3320 -0.0891
17539SOL    HW159667  11.509   9.790   8.104 -1.6909 -1.3648 -1.1001
17539SOL    HW259668  11.578   9.670   8.165 -1.0488 -0.4346  0.0244
17540SOL     OW59669   4.684  10.283   7.962  0.0912 -0.5918  0.0460
17540SOL    HW159670   4.711  10.342   8.033 -1.0518 -0.8637  0.7241
17540SOL    HW259671   4.749  10.297   7.893  1.5594 -0.7316  1.3536
17541SOL     OW59672   0.793   7.179  11.829 -0.3967 -0.7473  0.1460
17541SOL    HW159673   0.794   7.084  11.830 -0.5125 -0.8281 -2.0002
17541SOL    HW259674   0.700   7.202  11.823 -0.4122 -0.4511  1.2671
17542SOL     OW59675  10.851   1.322   9.023  0.2215  1.3458 -0.0628
17542SOL    HW159676  10.806   1.403   9.046  1.1477  1.8869 -0.1309
17542SOL    HW259677  10.942   1.337   9.047  0.5990  0.7125 -1.0522
17543SOL     OW59678   1.313   6.127  10.239  0.2598  0.0460  0.1940
17543SOL    HW159679   1.392   6.126  10.186  0.1194 -0.9841 -0.0187
17543SOL    HW259680   1.243   6.100  10.180 -0.6042  2.6183 -0.0833
17544SOL     OW59681   6.936   1.931   1.101 -0.0813  0.3834 -0.2086
17544SOL    HW159682   6.983   1.976   1.171  2.5204  1.1930 -2.3331
17544SOL    HW259683   6.962   1.840   1.109  0.2250  0.4773 -0.1331
17545SOL     OW59684   0.675  11.621   7.579 -0.6285  0.0010  0.2746
17545SOL    HW159685   0.633  11.633   7.493  0.2478 -1.2001 -0.3493
17545SOL    HW259686   0.678  11.526   7.591  1.9348  0.0215  0.2610
17546SOL     OW59687   0.975   3.935   0.574 -0.5100  0.2441 -0.3514
17546SOL    HW159688   0.960   3.997   0.503  0.4008  0.4900 -0.3384
17546SOL    HW259689   0.931   3.855   0.546 -0.1948  0.3561 -1.1766
17547SOL     OW59690   1.737  11.879  11.648 -0.0111 -0.6328 -0.2010
17547SOL    HW159691   1.652  11.861  11.690 -0.1140  0.7817  0.2486
17547SOL    HW259692   1.746  11.810  11.582 -1.1092 -1.3137  0.3252
17548SOL     OW59693   4.712   2.175   0.866 -0.0727  0.1296  0.2530
17548SOL    HW159694   4.659   2.097   0.845  0.9901 -0.4707 -0.2739
17548SOL    HW259695   4.789   2.140   0.911  0.5881  0.8358 -0.3130
17549SOL     OW59696   9.952   2.791   2.174 -0.1079 -0.5865 -0.3036
17549SOL    HW159697   9.881   2.855   2.179  0.2316 -0.2951  1.1932
17549SOL    HW259698   9.910   2.707   2.191 -0.3398 -0.6172 -0.9874
17550SOL     OW59699   9.985  11.353  12.110 -0.3016 -0.0404  0.3894
17550SOL    HW159700  10.004  11.407  12.187  1.2345  0.2684 -0.1663
17550SOL    HW259701   9.994  11.412  12.036 -2.5645 -0.1394 -0.0348
17551SOL     OW59702   2.952  10.108  11.213 -0.6298  0.0104  0.4048
17551SOL    HW159703   2.887  10.038  11.211  1.5547 -2.1951  1.6209
17551SOL    HW259704   2.985  10.113  11.123 -0.9330 -0.3653  0.2741
17552SOL     OW59705   8.183  11.856   5.319  0.5210  0.4302 -0.6547
17552SOL    HW159706   8.246  11.786   5.336  0.9307  0.2501 -2.6830
17552SOL    HW259707   8.236  11.936   5.318  0.1932  0.6873  0.7558
17553SOL     OW59708  10.470   8.192   5.617  0.2665 -0.1549 -0.2463
17553SOL    HW159709  10.411   8.128   5.577  0.0785  0.0526 -0.3008
17553SOL    HW259710  10.557   8.153   5.608 -0.0802 -1.8188  2.3407
17554SOL     OW59711   1.452   0.820   3.704 -0.1816 -0.0342 -0.9583
17554SOL    HW159712   1.417   0.883   3.642 -0.1823 -0.9433 -1.8967
17554SOL    HW259713   1.546   0.835   3.703 -0.2177  0.2087 -0.8811
17555SOL     OW59714   4.387   9.669   2.798  0.3620  0.2278  0.1218
17555SOL    HW159715   4.463   9.652   2.742  0.7435 -0.1732  0.7563
17555SOL    HW259716   4.424   9.698   2.881 -0.2092  1.0278  0.1055
17556SOL     OW59717  12.019  11.383   7.046  0.0035 -0.6241  0.2362
17556SOL    HW159718  12.083  11.373   7.116 -0.2971 -2.5063  0.2890
17556SOL    HW259719  12.064  11.437   6.980  0.0454  1.7742  2.0915
17557SOL     OW59720  11.256   9.730   5.442  0.0543  0.4110 -1.1216
17557SOL    HW159721  11.325   9.792   5.468 -0.1103  0.3465 -0.5286
17557SOL    HW259722  11.177   9.783   5.435  0.0962  0.4273 -1.5030
17558SOL     OW59723   1.826   1.236   2.112 -0.3741 -0.1847 -0.3129
17558SOL    HW159724   1.731   1.237   2.121 -0.3679 -0.2683 -0.2342
17558SOL    HW259725   1.846   1.152   2.071 -0.5030  0.7101 -2.2972
17559SOL     OW59726   1.571   3.059   6.807 -0.3690  0.2229 -0.3721
17559SOL    HW159727   1.512   2.985   6.797  1.7068 -1.6224  0.1954
17559SOL    HW259728   1.621   3.062   6.726  0.3306  0.2675  0.0499
17560SOL     OW59729  12.091  11.301   1.853 -0.1771 -0.3388  0.0121
17560SOL    HW159730  12.139  11.382   1.833 -1.2262 -0.3321 -3.0466
17560SOL    HW259731  12.009  11.330   1.893  0.6386 -0.1297  1.6186
17561SOL     OW59732  12.583  10.012  11.269  0.2966  0.1068 -0.3200
17561SOL    HW159733  12.563   9.980  11.181  0.4630  0.8423 -0.6271
17561SOL    HW259734  12.618  10.099  11.256  0.7889  0.0318  0.4467
17562SOL     OW59735   7.573   0.449   0.720 -0.3455  0.2902  0.3866
17562SOL    HW159736   7.623   0.528   0.743 -1.4918  1.0338  0.3942
17562SOL    HW259737   7.546   0.464   0.629  1.2026 -1.0671 -0.3665
17563SOL     OW59738   0.708   1.442   2.133  0.5816  0.3632 -0.5642
17563SOL    HW159739   0.655   1.452   2.213  1.3853  0.8454 -0.0856
17563SOL    HW259740   0.644   1.421   2.065  0.0015 -1.4978  0.4662
17564SOL     OW59741   8.106  11.770   3.861  0.3693 -0.3766  0.2196
17564SOL    HW159742   8.013  11.752   3.858  0.4109 -0.4542 -1.6847
17564SOL    HW259743   8.142  11.704   3.921 -0.9167  0.4441  1.9744
17565SOL     OW59744   0.255   5.357   7.818 -0.3329  0.3651 -0.0444
17565SOL    HW159745   0.300   5.291   7.765 -0.7452 -3.2460  3.6156
17565SOL    HW259746   0.325   5.398   7.869 -0.2899  1.7018 -1.1036
17566SOL     OW59747   1.335   0.450   1.965 -0.0848 -0.2902  0.3514
17566SOL    HW159748   1.361   0.424   2.053 -0.1667 -1.3196  0.0910
17566SOL    HW259749   1.417   0.459   1.917 -0.0507  0.0686  0.4718
17567SOL     OW59750   5.933   3.705   4.754 -0.0264 -0.8383  0.1224
17567SOL    HW159751   5.850   3.674   4.792  1.6563 -1.2898  3.8269
17567SOL    HW259752   5.922   3.800   4.747 -1.7949 -1.1132 -2.2634
17568SOL     OW59753  11.192   5.692  12.575  0.1718  0.2386 -0.3963
17568SOL    HW159754  11.140   5.771  12.560  0.0746  0.0139 -1.3230
17568SOL    HW259755  11.137   5.638  12.633 -0.9492 -0.2814 -1.8912
17569SOL     OW59756   2.367   8.264   9.637  0.1095 -0.3030 -0.3241
17569SOL    HW159757   2.305   8.190   9.632  0.4972 -0.5731 -1.4386
17569SOL    HW259758   2.312   8.339   9.662 -0.5508 -0.6846 -0.5844
17570SOL     OW59759   3.384   0.772   4.255 -0.2017  0.3461 -0.4175
17570SOL    HW159760   3.421   0.689   4.226  1.2770  0.4367  1.0714
17570SOL    HW259761   3.392   0.830   4.179  1.2267 -0.1262 -0.6647
17571SOL     OW59762   2.485   2.207   8.681 -0.1892 -0.3434  0.6375
17571SOL    HW159763   2.569   2.235   8.643 -0.4761 -0.4683 -0.0967
17571SOL    HW259764   2.421   2.225   8.613 -0.5022 -1.9916  0.4549
17572SOL     OW59765   5.337   5.281   4.108 -1.1212 -0.0893 -0.5856
17572SOL    HW159766   5.310   5.261   4.198  0.3993 -0.0405 -0.0792
17572SOL    HW259767   5.433   5.283   4.112 -1.0514  2.3516 -1.6829
17573SOL     OW59768   1.865   5.352   7.334  0.1716 -0.0678  0.2612
17573SOL    HW159769   1.800   5.298   7.289  1.4808 -0.2037 -1.6093
17573SOL    HW259770   1.825   5.374   7.418 -1.0548 -2.6533  0.4552
17574SOL     OW59771   2.067  12.202   2.466 -0.2661 -0.5348  0.4380
17574SOL    HW159772   2.090  12.294   2.465 -0.2587 -0.5157  1.2835
17574SOL    HW259773   2.100  12.170   2.551  0.6006 -1.5340 -0.2419
17575SOL     OW59774   2.925  12.473   0.940  0.0700 -0.3979 -0.1338
17575SOL    HW159775   2.973  12.397   0.972  0.1839 -0.8279 -1.2756
17575SOL    HW259776   2.919  12.532   1.015  1.0654 -0.9941  0.4208
17576SOL     OW59777  11.720  10.796   4.811 -0.5014 -0.0794 -0.0067
17576SOL    HW159778  11.770  10.717   4.790 -1.4930 -0.6268 -0.3492
17576SOL    HW259779  11.677  10.820   4.729  0.2476  1.1683 -0.0640
17577SOL     OW59780   7.335   9.012   3.846 -0.0495 -0.5209 -0.1930
17577SOL    HW159781   7.404   9.036   3.909  0.8352 -0.9330 -0.9756
17577SOL    HW259782   7.258   9.062   3.874 -0.1864 -1.9355  2.2183
17578SOL     OW59783   4.625  12.488   1.412 -0.4127  0.7883 -0.4079
17578SOL    HW159784   4.655  12.446   1.492 -1.1520 -0.6464 -0.8480
17578SOL    HW259785   4.690  12.555   1.394  0.1506  0.6413  0.9917
17579SOL     OW59786  10.315  10.632   7.465  0.1790  0.3728 -0.1232
17579SOL    HW159787  10.224  10.643   7.437  0.3426  0.7071 -0.5277
17579SOL    HW259788  10.364  10.694   7.412  0.6337  0.2599  0.1615
17580SOL     OW59789   0.380   6.241   0.836  0.3187 -0.2316 -0.0387
17580SOL    HW159790   0.407   6.179   0.769 -3.1341 -1.5980 -0.4010
17580SOL    HW259791   0.343   6.187   0.905 -1.4645  1.2956  0.3073
17581SOL     OW59792   4.191  10.742   3.708  0.1470  0.7815 -0.1868
17581SOL    HW159793   4.217  10.828   3.676  1.4460  1.2790  2.0046
17581SOL    HW259794   4.263  10.715   3.764 -0.8689 -1.1408  0.2663
17582SOL     OW59795   7.246   1.733  11.180 -0.2195 -0.4271  0.2744
17582SOL    HW159796   7.206   1.651  11.150 -3.2534  0.6788  0.9078
17582SOL    HW259797   7.233   1.794  11.107 -0.1045  0.0809  0.6723
17583SOL     OW59798   2.918   5.803   1.046 -0.2127 -0.0928 -0.1914
17583SOL    HW159799   2.881   5.890   1.039 -0.4934 -0.0019  1.7322
17583SOL    HW259800   2.852   5.752   1.093  0.3360 -1.0714 -0.4494
17584SOL     OW59801   1.817  10.235   5.109  0.0294 -0.1951 -0.1421
17584SOL    HW159802   1.886  10.301   5.109 -1.4484  1.5389  2.2327
17584SOL    HW259803   1.743  10.277   5.066 -0.2452 -1.2059 -0.6951
17585SOL     OW59804   2.353   9.880   3.329 -0.6257 -0.4520 -0.0442
17585SOL    HW159805   2.436   9.918   3.356 -0.8551 -0.3467  0.5155
17585SOL    HW259806   2.352   9.889   3.233  0.4058 -1.2698 -0.1543
17586SOL     OW59807  11.282   8.361   7.219 -0.4415  0.2732  0.0673
17586SOL    HW159808  11.309   8.420   7.289  1.0254 -0.3347  0.0549
17586SOL    HW259809  11.269   8.277   7.263 -1.3255  0.3153 -0.1037
17587SOL     OW59810  11.831   4.715  10.621 -0.3213  0.1313  0.0862
17587SOL    HW159811  11.804   4.635  10.666 -0.0389 -1.5478 -2.5299
17587SOL    HW259812  11.807   4.701  10.530  0.5269  2.7050 -0.6242
17588SOL     OW59813   9.799   3.095   5.885  0.3276  0.5108 -0.5075
17588SOL    HW159814   9.809   3.054   5.971  1.3483 -0.5993 -1.1225
17588SOL    HW259815   9.718   3.145   5.891 -0.8737 -1.4321  0.3666
17589SOL     OW59816   8.211   4.322   1.945  0.0319  0.7137 -0.6166
17589SOL    HW159817   8.239   4.403   1.902 -0.4947 -0.1088 -2.6224
17589SOL    HW259818   8.122   4.341   1.974 -0.8627  0.3111 -2.8584
17590SOL     OW59819   6.871  12.562   7.423 -0.2633  0.4871 -0.5828
17590SOL    HW159820   6.933  12.620   7.377 -1.6956  0.9008 -2.0950
17590SOL    HW259821   6.794  12.559   7.366 -0.6102 -2.2106 -0.1130
17591SOL     OW59822   3.713   9.685   6.655  0.1437  0.2382  0.0092
17591SOL    HW159823   3.797   9.723   6.627  0.1351  0.0753 -0.2441
17591SOL    HW259824   3.682   9.638   6.577 -0.2354  0.3932  0.0682
17592SOL     OW59825   9.855   4.398   0.358 -0.0210 -0.2184 -0.1330
17592SOL    HW159826   9.878   4.401   0.265  0.5932  1.0361  0.0272
17592SOL    HW259827   9.766   4.362   0.360  0.7563 -2.3040 -1.0198
17593SOL     OW59828   3.209   7.758   9.809 -0.2289  0.1133  0.5159
17593SOL    HW159829   3.179   7.836   9.761  0.6224 -0.4835 -1.0292
17593SOL    HW259830   3.159   7.761   9.891  1.1942  3.3819  1.4549
17594SOL     OW59831   0.765  11.527   2.742  0.1313 -0.4653 -0.0334
17594SOL    HW159832   0.792  11.584   2.815  0.8244  0.1837 -0.7757
17594SOL    HW259833   0.680  11.492   2.769 -1.9480  3.3914 -0.8319
17595SOL     OW59834   2.078   3.052   6.355  0.3801 -0.1249  0.0890
17595SOL    HW159835   2.022   3.084   6.284 -1.2495 -1.5526  0.6563
17595SOL    HW259836   2.023   3.056   6.433  1.4204 -0.6340  0.8742
17596SOL     OW59837   5.709   9.312   4.996  0.2270  0.0223  0.1300
17596SOL    HW159838   5.632   9.257   4.982  0.1329  0.3890 -0.9371
17596SOL    HW259839   5.781   9.261   4.959  0.2066  0.4261 -0.4765
17597SOL     OW59840   4.582  11.605   7.378  0.0498 -0.5381  0.6315
17597SOL    HW159841   4.542  11.571   7.458 -0.6229  0.7681  0.8842
17597SOL    HW259842   4.512  11.604   7.313  0.4304 -1.0368  0.2281
17598SOL     OW59843   0.333   3.026   8.868  0.3155 -0.4242  0.1904
17598SOL    HW159844   0.359   3.060   8.782  1.8643  3.3104  1.8964
17598SOL    HW259845   0.250   3.070   8.887  0.7030 -0.0858  1.1491
17599SOL     OW59846   8.892   0.516  10.009 -0.3617  0.1691  0.1307
17599SOL    HW159847   8.879   0.543  10.100 -1.8110 -1.9377  0.6218
17599SOL    HW259848   8.965   0.454  10.012  0.9624  1.6251 -0.5194
17600SOL     OW59849   7.785   8.438   7.668 -0.0653 -0.3457 -0.1908
17600SOL    HW159850   7.855   8.502   7.656  0.5270 -0.5886  1.6495
17600SOL    HW259851   7.828   8.353   7.652 -1.1544 -0.3820 -4.0252
17601SOL     OW59852   4.713   4.096  11.548 -0.1495  0.4291  0.1045
17601SOL    HW159853   4.687   4.124  11.460 -0.6951 -1.3174 -0.3258
17601SOL    HW259854   4.661   4.152  11.606 -1.7879 -0.1523 -0.7270
17602SOL     OW59855   0.581   1.865  11.228  0.0093  0.1248 -0.0581
17602SOL    HW159856   0.589   1.899  11.139  0.3196  1.6308  0.5101
17602SOL    HW259857   0.541   1.779  11.217 -1.7389  1.0362 -1.5509
17603SOL     OW59858  12.442   3.253   7.459  0.3296 -0.4086 -0.2076
17603SOL    HW159859  12.381   3.286   7.524 -2.6547 -1.1038 -2.4518
17603SOL    HW259860  12.450   3.323   7.395  0.0866 -1.1588 -1.0811
17604SOL     OW59861  10.728   6.319  10.075  0.1613  0.3714 -0.1760
17604SOL    HW159862  10.648   6.369  10.092 -0.5662 -0.1808 -1.7319
17604SOL    HW259863  10.754   6.285  10.161 -1.6409  0.0488  0.2864
17605SOL     OW59864   3.771  11.166   3.818  0.6852 -0.2355 -0.0250
17605SOL    HW159865   3.723  11.227   3.762  1.0060 -0.0188 -0.0663
17605SOL    HW259866   3.803  11.098   3.759  0.2200 -0.5112  0.0403
17606SOL     OW59867   8.806   5.398   0.415 -0.2811 -0.4146 -0.4225
17606SOL    HW159868   8.790   5.489   0.390  0.3190  0.0771  0.8702
17606SOL    HW259869   8.761   5.388   0.498  2.0723 -0.3713  0.9468
17607SOL     OW59870  10.894   3.500  10.779 -0.0787 -0.4719  0.1653
17607SOL    HW159871  10.979   3.524  10.816  1.8990 -4.1155 -1.5812
17607SOL    HW259872  10.841   3.477  10.856  0.2915  2.0253  1.2955
17608SOL     OW59873   9.070   9.123  12.118 -0.1378 -0.4427  1.0570
17608SOL    HW159874   9.156   9.128  12.076  0.9318 -0.5529  3.0894
17608SOL    HW259875   9.014   9.183  12.068  0.7685 -1.2390 -1.0243
17609SOL     OW59876  10.879   0.217   3.570 -0.1376  0.1012 -0.4587
17609SOL    HW159877  10.889   0.164   3.649 -0.0677  0.4273 -0.2449
17609SOL    HW259878  10.796   0.264   3.584 -1.0872 -1.2189 -1.4002
17610SOL     OW59879   5.015   2.251   3.398  0.0800  0.0876 -0.7025
17610SOL    HW159880   5.044   2.312   3.466  2.0368 -1.5704  0.0731
17610SOL    HW259881   5.009   2.305   3.319  0.0198  1.6048  0.2930
17611SOL     OW59882   4.833   3.006   5.794 -0.4176 -0.6216 -0.3973
17611SOL    HW159883   4.797   2.924   5.828 -0.8733 -0.2410  0.0466
17611SOL    HW259884   4.928   2.990   5.788 -0.0546 -0.1715  2.6462
17612SOL     OW59885   8.414   0.134  12.270 -0.0681  0.0710 -0.0380
17612SOL    HW159886   8.423   0.083  12.189  4.1081  2.5104 -1.4212
17612SOL    HW259887   8.375   0.217  12.241  1.0696  0.8057  0.4778
17613SOL     OW59888  11.645  11.984   4.633 -0.1547  0.5670 -0.0479
17613SOL    HW159889  11.657  12.068   4.590  2.8020  0.9436  1.2564
17613SOL    HW259890  11.551  11.978   4.650 -0.6666  2.7730 -1.6936
17614SOL     OW59891   8.128   3.439   1.751 -0.3644 -0.2052 -0.5645
17614SOL    HW159892   8.190   3.488   1.699 -1.2167  0.6166 -0.8320
17614SOL    HW259893   8.044   3.484   1.738 -0.8634 -0.8111  0.4058
17615SOL     OW59894   1.036   7.093   0.907 -0.0258 -0.5713 -0.3681
17615SOL    HW159895   1.042   7.022   0.844  1.2217 -0.1498 -0.7512
17615SOL    HW259896   0.982   7.159   0.864  0.9696 -0.2074 -1.1027
17616SOL     OW59897   0.282   6.393   7.899 -0.3228  0.0158 -0.4772
17616SOL    HW159898   0.280   6.399   7.803 -2.5675 -0.8356 -0.5444
17616SOL    HW259899   0.205   6.341   7.921  0.2867 -0.0185  1.8027
17617SOL     OW59900  11.782   7.996   0.311 -0.0544 -0.0924 -0.5701
17617SOL    HW159901  11.713   8.062   0.316 -0.0323 -0.1401  0.9628
17617SOL    HW259902  11.832   8.007   0.393 -1.6073 -3.6528  1.0765
17618SOL     OW59903   3.404   9.473  10.110 -0.2036  0.6329 -0.8264
17618SOL    HW159904   3.387   9.379  10.108  0.5333  0.4179  0.8820
17618SOL    HW259905   3.320   9.512  10.132 -0.0018  0.1214  1.0571
17619SOL     OW59906   9.042  11.945  11.248 -0.2085 -0.1665  0.1175
17619SOL    HW159907   9.116  11.905  11.202 -1.8491 -2.0510 -1.0294
17619SOL    HW259908   9.052  11.916  11.338  1.5504  1.3172  0.4474
17620SOL     OW59909   4.608   9.868   3.448 -0.0579 -0.0402  0.0316
17620SOL    HW159910   4.572   9.926   3.380 -2.7566  0.9594  2.1425
17620SOL    HW259911   4.685   9.829   3.407  0.5187  3.1597 -2.3796
17621SOL     OW59912   3.043  12.416  10.302 -0.7649 -0.0864  0.2024
17621SOL    HW159913   3.114  12.461  10.257  1.8958 -4.5465 -0.6271
17621SOL    HW259914   2.977  12.402  10.234  0.8358 -1.9889 -1.0918
17622SOL     OW59915   6.909   5.181   7.610  0.0530  0.3805 -0.1081
17622SOL    HW159916   6.909   5.276   7.594 -1.4017  0.5393  0.6157
17622SOL    HW259917   6.817   5.160   7.626  0.4003 -1.1098  0.0513
17623SOL     OW59918   8.799   3.909  11.150 -0.2869 -0.5227 -0.0614
17623SOL    HW159919   8.736   3.840  11.168  0.6835 -1.3664  0.1829
17623SOL    HW259920   8.847   3.878  11.073  0.2746 -0.1922  0.1523
17624SOL     OW59921   9.092   0.171   4.660  0.0748  0.4535 -0.0021
17624SOL    HW159922   9.079   0.163   4.565 -1.9961  0.8759  0.2057
17624SOL    HW259923   9.018   0.124   4.698 -0.0890  1.7749  1.3850
17625SOL     OW59924   5.256  11.559   2.022 -0.0580  0.4202  0.4485
17625SOL    HW159925   5.211  11.475   2.021 -0.5082  0.5992  2.3892
17625SOL    HW259926   5.334  11.545   1.968 -0.6117 -0.9395 -0.0389
17626SOL     OW59927   4.307   5.602   2.223  0.0828 -0.5167 -0.1996
17626SOL    HW159928   4.316   5.608   2.318  3.5668 -1.0402 -0.3570
17626SOL    HW259929   4.352   5.680   2.191 -0.9584 -0.4077 -1.4588
17627SOL     OW59930  12.396  12.406   2.925  0.4047  0.4957 -0.3608
17627SOL    HW159931  12.350  12.346   2.983  1.4219  1.1046  1.1486
17627SOL    HW259932  12.339  12.482   2.918  0.0821  0.2407 -0.5304
17628SOL     OW59933  11.364   6.373   0.693 -0.2004 -0.3808 -0.0966
17628SOL    HW159934  11.449   6.355   0.733  0.4718 -0.8958 -1.6959
17628SOL    HW259935  11.348   6.466   0.710  1.0626 -0.0804 -0.4552
17629SOL     OW59936   6.275   8.084   9.867 -0.4398 -0.4474 -0.6485
17629SOL    HW159937   6.255   8.148   9.798 -1.4731 -0.9229 -0.8088
17629SOL    HW259938   6.289   8.137   9.946  0.1762  0.0629 -1.0908
17630SOL     OW59939  12.118   2.333   8.004  0.2157 -0.2768  0.2275
17630SOL    HW159940  12.156   2.408   7.958 -0.1230 -1.0481 -1.4140
17630SOL    HW259941  12.118   2.358   8.096 -0.8964  2.2000 -0.3539
17631SOL     OW59942   5.544  10.052   6.559 -0.2573 -0.3835 -0.1149
17631SOL    HW159943   5.585  10.127   6.517 -0.0509 -0.4287  0.0050
17631SOL    HW259944   5.499  10.006   6.488  1.3550 -1.3097 -0.5763
17632SOL     OW59945   2.261   4.057   8.058  0.2720 -0.0692 -0.4912
17632SOL    HW159946   2.274   3.962   8.052  2.8824  0.2789 -1.4515
17632SOL    HW259947   2.281   4.078   8.150 -0.8607 -0.4715 -0.1305
17633SOL     OW59948   3.635   8.918   3.036 -0.3844 -0.2749 -0.1214
17633SOL    HW159949   3.565   8.861   3.068  0.7823 -1.6462  0.0457
17633SOL    HW259950   3.652   8.977   3.110 -1.2776  0.0206 -0.1320
17634SOL     OW59951   1.676   4.067   1.223  0.0760  0.5967 -0.5025
17634SOL    HW159952   1.668   4.064   1.319  0.3956 -0.9120 -0.4966
17634SOL    HW259953   1.766   4.039   1.206  0.0714  1.0261 -1.2434
17635SOL     OW59954   6.194   5.628   0.209  0.1238 -0.4698 -0.7462
17635SOL    HW159955   6.271   5.684   0.204 -1.2428  1.4677 -1.0884
17635SOL    HW259956   6.150   5.640   0.124 -2.4259  1.3915  0.6875
17636SOL     OW59957   0.256   1.806   8.543  0.6084 -0.5966 -0.5578
17636SOL    HW159958   0.294   1.800   8.631 -1.4596  0.8422  0.5157
17636SOL    HW259959   0.178   1.750   8.547  0.1200  0.0228 -1.2491
17637SOL     OW59960   0.879   9.545   7.773  0.1010 -0.7823  0.3721
17637SOL    HW159961   0.848   9.615   7.716 -2.6864 -1.4480  0.9396
17637SOL    HW259962   0.959   9.580   7.812 -0.6236  1.6731 -0.1556
17638SOL     OW59963  11.565   0.580   8.004 -0.6724  0.2863  0.2595
17638SOL    HW159964  11.510   0.505   8.026  0.2653 -0.5970 -0.3207
17638SOL    HW259965  11.503   0.646   7.974 -1.5175 -0.2407  0.7951
17639SOL     OW59966   0.973   3.328   2.808 -0.3720 -0.2197 -0.2103
17639SOL    HW159967   0.949   3.401   2.750  1.8424  0.0051 -0.9463
17639SOL    HW259968   1.016   3.370   2.882  1.3084 -0.7573 -0.8464
17640SOL     OW59969   4.478  10.082   5.765  0.0747  0.1536  0.2121
17640SOL    HW159970   4.422  10.008   5.791  1.0186 -0.3875  0.7705
17640SOL    HW259971   4.452  10.101   5.675  0.3206 -1.3618 -0.2172
17641SOL     OW59972   2.128   8.487   4.740  0.6616  0.8927 -0.4414
17641SOL    HW159973   2.136   8.454   4.650 -0.4272 -0.7560  0.0145
17641SOL    HW259974   2.044   8.533   4.740  0.8971  1.3235 -0.3871
17642SOL     OW59975   5.103   0.937  10.286 -0.4793 -0.3710  0.5451
17642SOL    HW159976   5.040   0.906  10.221 -2.8110 -0.0797  2.5430
17642SOL    HW259977   5.132   0.857  10.330  0.1714 -0.4565 -0.0271
17643SOL     OW59978   5.275   2.595   3.957 -0.2393 -0.4505 -0.1273
17643SOL    HW159979   5.251   2.554   3.874 -0.8012 -0.3878  0.0017
17643SOL    HW259980   5.262   2.526   4.022 -0.6474 -0.2444  0.0165
17644SOL     OW59981  10.115  10.642   6.457  0.5149  0.1720 -0.2999
17644SOL    HW159982  10.033  10.607   6.492 -0.2296 -0.2925 -2.3416
17644SOL    HW259983  10.173  10.649   6.532 -0.9694 -0.7545  0.9785
17645SOL     OW59984   7.389   9.589   1.088  0.4014 -0.2290  0.2955
17645SOL    HW159985   7.365   9.602   0.996  0.4808 -0.0133  0.3058
17645SOL    HW259986   7.463   9.528   1.086  1.8497  1.4733  0.0832
17646SOL     OW59987  11.027   6.530   8.740 -0.3966 -0.2036  0.6476
17646SOL    HW159988  11.019   6.461   8.806  1.0659 -0.7210  0.3226
17646SOL    HW259989  11.097   6.500   8.682  0.4381  1.6357  0.6350
17647SOL     OW59990  12.579   9.006   1.109 -0.2106  0.1941  0.3419
17647SOL    HW159991  12.574   8.963   1.024  1.9612  0.2637  0.1259
17647SOL    HW259992  12.529   9.087   1.099 -1.6932 -0.7559 -0.2040
17648SOL     OW59993   7.336   0.680   7.046 -0.0979 -0.1649 -0.1276
17648SOL    HW159994   7.413   0.729   7.016 -0.1268 -0.8145 -1.3105
17648SOL    HW259995   7.273   0.688   6.975 -0.9218 -0.1060  0.5987
17649SOL     OW59996   6.900   7.290   3.471 -0.2291  0.5724 -0.1645
17649SOL    HW159997   6.908   7.218   3.408 -0.3724  0.4036  0.0097
17649SOL    HW259998   6.841   7.257   3.539 -1.4952  1.3996 -0.8326
17650SOL     OW59999  12.459   8.924   5.994  0.1119 -0.0025 -0.0932
17650SOL    HW160000  12.476   8.851   5.934 -1.3056 -0.1892 -0.3102
17650SOL    HW260001  12.505   8.998   5.955 -0.1389 -0.3101 -1.0048
17651SOL     OW60002   5.676  12.367   3.798  0.4268  0.3484 -0.1727
17651SOL    HW160003   5.583  12.361   3.816  0.5151  0.0734  0.2063
17651SOL    HW260004   5.682  12.382   3.704  0.0563 -1.2708 -0.4826
17652SOL     OW60005  12.474   3.134   0.210  0.1638  0.0022  0.4189
17652SOL    HW160006  12.429   3.210   0.173 -1.2965 -0.1464  1.7639
17652SOL    HW260007  12.532   3.171   0.277  0.5668  0.0279  0.0630
17653SOL     OW60008   1.088  11.146   1.399  0.3336 -0.3657 -0.2528
17653SOL    HW160009   1.075  11.151   1.305 -0.1307  0.2406 -0.1626
17653SOL    HW260010   1.117  11.056   1.415 -1.3999 -1.0640 -0.7671
17654SOL     OW60011  12.352   5.415   1.634  0.1088 -0.4969  0.0684
17654SOL    HW160012  12.294   5.477   1.678  0.9916  0.3224  0.1118
17654SOL    HW260013  12.345   5.335   1.686  0.8295  0.3291  1.5001
17655SOL     OW60014   3.972   9.647   9.505 -0.3076 -0.3990  0.3167
17655SOL    HW160015   3.970   9.723   9.447 -0.2718 -1.1179 -0.6519
17655SOL    HW260016   3.966   9.684   9.594  1.0284  0.7983 -0.0588
17656SOL     OW60017  11.514   4.262  11.970 -0.1711 -0.0886 -0.0647
17656SOL    HW160018  11.471   4.200  12.028  1.3880 -0.5562  0.6442
17656SOL    HW260019  11.502   4.226  11.882 -0.2638 -0.7923  0.2311
17657SOL     OW60020   5.348   9.258  10.773  0.2536  0.1772 -0.1639
17657SOL    HW160021   5.388   9.191  10.717  0.2783  1.2678 -1.5179
17657SOL    HW260022   5.263   9.221  10.798  0.5407 -0.6223 -0.3399
17658SOL     OW60023   1.261   9.365   5.221 -0.0607  0.0468 -0.6223
17658SOL    HW160024   1.323   9.385   5.151  0.3808  3.2658  0.5324
17658SOL    HW260025   1.306   9.300   5.275  1.4416  0.7692 -0.9629
17659SOL     OW60026  11.454   3.941  11.054 -0.2250  0.3549 -0.2362
17659SOL    HW160027  11.376   3.996  11.066 -0.0652  0.4384  0.4676
17659SOL    HW260028  11.449   3.878  11.125  0.7852  0.8858  0.3226
17660SOL     OW60029   8.427  10.263   4.243  0.3305 -0.1755 -0.5567
17660SOL    HW160030   8.401  10.349   4.211  0.8737 -0.1119 -0.8423
17660SOL    HW260031   8.346  10.212   4.245 -0.6025  1.2090  2.4945
17661SOL     OW60032   9.534   4.002   2.350  0.0504 -0.3316 -0.3116
17661SOL    HW160033   9.600   4.072   2.349  1.3367 -1.4615  1.2507
17661SOL    HW260034   9.548   3.956   2.432 -1.1091 -2.1236 -1.0429
17662SOL     OW60035   4.631   5.101   1.463  0.1667 -0.0180 -0.2648
17662SOL    HW160036   4.545   5.060   1.476  0.4034 -0.7010 -0.7898
17662SOL    HW260037   4.692   5.027   1.457  0.4149  0.3003 -2.6686
17663SOL     OW60038   0.799   5.971  10.227 -0.4233  0.2359 -0.2567
17663SOL    HW160039   0.802   6.013  10.141 -5.3244  0.9302 -0.4273
17663SOL    HW260040   0.756   5.887  10.210  1.2619 -0.9881  1.2384
17664SOL     OW60041   2.730   5.602   2.109 -0.2689 -0.1614 -0.1621
17664SOL    HW160042   2.782   5.661   2.055 -1.8438 -1.3577 -3.2833
17664SOL    HW260043   2.794   5.545   2.151  1.0677 -0.1779 -2.0908
17665SOL     OW60044   6.911   4.379   9.852  0.1935  0.4795 -0.0048
17665SOL    HW160045   6.934   4.338   9.936  0.0884 -0.4208 -0.4076
17665SOL    HW260046   6.930   4.311   9.787 -2.1264  0.2501 -0.4988
17666SOL     OW60047   6.941   4.023   5.473  0.0820  0.1851 -0.2615
17666SOL    HW160048   6.858   3.982   5.496  0.5287 -0.4666  0.2214
17666SOL    HW260049   7.006   3.954   5.485  0.7623  0.8366 -0.1259
17667SOL     OW60050   8.004   5.408   2.997 -0.0051  0.4582  0.3579
17667SOL    HW160051   8.033   5.337   3.054  0.2616  0.0586 -0.2668
17667SOL    HW260052   8.081   5.462   2.985 -0.0929  0.6089  0.4695
17668SOL     OW60053   5.839   0.872   9.194 -0.2386 -0.0036  0.2783
17668SOL    HW160054   5.771   0.809   9.173 -1.4299  0.9138  1.2494
17668SOL    HW260055   5.823   0.946   9.135  0.6141 -0.2216 -0.2516
17669SOL     OW60056   7.362   3.490   2.556  0.2346  0.1718  0.0423
17669SOL    HW160057   7.273   3.457   2.544  0.4107  0.0790 -1.1663
17669SOL    HW260058   7.418   3.414   2.539  0.5775  0.5985 -0.8449
17670SOL     OW60059   9.555   1.026   3.354  0.1694 -0.0024 -0.1454
17670SOL    HW160060   9.584   1.074   3.431 -1.3143 -1.2485  1.2627
17670SOL    HW260061   9.635   1.010   3.304  1.3224  0.0237  1.5976
17671SOL     OW60062   6.163  11.308   9.411 -0.0205 -0.0048 -0.4259
17671SOL    HW160063   6.089  11.356   9.449  0.8869  1.4816 -0.4912
17671SOL    HW260064   6.169  11.340   9.321  0.8410  0.0626 -0.3532
17672SOL     OW60065  11.435  12.222   4.048  0.2923 -0.5168  0.4176
17672SOL    HW160066  11.503  12.236   3.983  0.5623  2.6498  1.2110
17672SOL    HW260067  11.377  12.298   4.040 -1.0895 -1.2781  2.2072
17673SOL     OW60068   4.850   6.012   5.270  0.1092  0.0895 -0.3896
17673SOL    HW160069   4.805   6.085   5.228  0.3673  0.5912  0.2000
17673SOL    HW260070   4.885   5.960   5.198 -1.3917 -0.3050 -0.8701
17674SOL     OW60071   0.407   4.175   8.483  0.1350 -0.5597 -0.9963
17674SOL    HW160072   0.392   4.139   8.395 -0.2339 -1.6002 -0.5299
17674SOL    HW260073   0.449   4.104   8.530  1.3320  0.3692 -0.6251
17675SOL     OW60074   7.873   0.226   7.648  0.1917 -0.0823 -0.8402
17675SOL    HW160075   7.838   0.258   7.731  1.3394  2.3329 -1.1924
17675SOL    HW260076   7.799   0.183   7.605 -0.7856 -0.1070  0.7989
17676SOL     OW60077   6.339  10.111   0.533 -0.5616 -0.0989  0.3614
17676SOL    HW160078   6.332  10.143   0.623 -1.9243  0.1606  0.1908
17676SOL    HW260079   6.432  10.115   0.512 -0.4261  1.5162  1.1644
17677SOL     OW60080   1.874   1.828   5.638  0.1406 -0.4741  0.1578
17677SOL    HW160081   1.831   1.809   5.721 -0.0589  0.8396  0.3721
17677SOL    HW260082   1.820   1.784   5.572 -0.7611  0.0283  0.5528
17678SOL     OW60083   4.250   5.575   0.292  0.0052 -0.9329 -0.1024
17678SOL    HW160084   4.293   5.659   0.279  0.0118 -0.7125  1.2179
17678SOL    HW260085   4.222   5.549   0.205  1.6660 -0.4718 -0.8230
17679SOL     OW60086   9.137   9.420   5.998  0.6386 -0.0399  0.5467
17679SOL    HW160087   9.042   9.421   5.985  0.8650 -1.6841 -2.1185
17679SOL    HW260088   9.149   9.382   6.085 -1.1613 -1.2335  0.3299
17680SOL     OW60089   0.142   4.200   2.513 -0.6619  0.0849 -0.5805
17680SOL    HW160090   0.130   4.281   2.562 -0.4517  1.3610 -2.5138
17680SOL    HW260091   0.095   4.215   2.430  0.2834 -1.3386 -1.4274
17681SOL     OW60092   8.475   8.167   4.987  0.1092 -0.0029 -0.5320
17681SOL    HW160093   8.561   8.141   5.021  0.4100 -0.1573 -1.4003
17681SOL    HW260094   8.462   8.112   4.910  0.7858  2.3688 -2.4661
17682SOL     OW60095  11.026   0.681   2.096  0.0060 -0.0484 -0.1298
17682SOL    HW160096  11.009   0.737   2.021 -0.7847  0.6656  0.5737
17682SOL    HW260097  11.092   0.728   2.147 -2.4214  1.5374  1.7602
17683SOL     OW60098  10.602  11.753   0.209  0.0147  0.1528 -0.1177
17683SOL    HW160099  10.565  11.799   0.134  0.0068 -1.1194 -0.9387
17683SOL    HW260100  10.546  11.779   0.282 -0.6262  0.6219 -0.7531
17684SOL     OW60101   8.863   4.368   3.679 -0.0962 -0.0509  0.1141
17684SOL    HW160102   8.881   4.379   3.586  1.9685 -1.0147  0.3478
17684SOL    HW260103   8.897   4.281   3.701  2.2601  1.2683  2.3241
17685SOL     OW60104   8.622   4.418   2.133 -0.3552 -0.1653 -0.1807
17685SOL    HW160105   8.538   4.377   2.154 -0.0639  0.2055  1.9175
17685SOL    HW260106   8.660   4.440   2.218  0.8278  1.7832 -1.1366
17686SOL     OW60107   2.927   5.017  11.821  0.5274  0.0402  0.5309
17686SOL    HW160108   2.961   4.971  11.745  0.5753  0.9628 -0.0138
17686SOL    HW260109   2.832   5.015  11.809  0.5732  1.2688 -0.2222
17687SOL     OW60110   9.105  11.703   5.430  0.0042  0.3031  0.6562
17687SOL    HW160111   9.112  11.616   5.392 -0.3035 -0.0037  1.2897
17687SOL    HW260112   9.196  11.731   5.442  0.1263 -0.4369  1.5708
17688SOL     OW60113  11.459   3.742   7.802 -0.3139 -0.2510  0.8837
17688SOL    HW160114  11.462   3.647   7.789 -2.2759 -0.3309  0.6706
17688SOL    HW260115  11.461   3.779   7.714 -1.3627 -0.2105  0.8595
17689SOL     OW60116  11.647   8.461   8.230 -0.3876  0.5054  0.0484
17689SOL    HW160117  11.568   8.485   8.182 -0.6687  0.2628  0.3820
17689SOL    HW260118  11.661   8.532   8.292  0.5961  1.3613 -1.1107
17690SOL     OW60119   3.365   3.103   6.565 -0.3452  0.3183 -0.8046
17690SOL    HW160120   3.354   3.036   6.498  0.6615  1.1421 -1.8418
17690SOL    HW260121   3.454   3.137   6.550 -0.0732  0.4645  1.0103
17691SOL     OW60122   6.951   3.364   4.702 -0.2547  0.0272 -0.0186
17691SOL    HW160123   6.919   3.295   4.759  2.3493 -0.2891  1.2305
17691SOL    HW260124   6.882   3.430   4.700 -0.5040  0.0219  3.5070
17692SOL     OW60125  11.579   2.093   5.039  0.0304 -0.0617 -0.5959
17692SOL    HW160126  11.513   2.080   4.970 -0.8993 -0.2362  0.3018
17692SOL    HW260127  11.646   2.027   5.020 -0.9000 -1.0650 -0.5465
17693SOL     OW60128  11.280   7.789   6.489 -0.1679 -0.1881 -0.0244
17693SOL    HW160129  11.232   7.787   6.571 -2.0955 -1.1496 -1.0980
17693SOL    HW260130  11.358   7.736   6.505 -0.7121 -0.6786  1.0613
17694SOL     OW60131   4.442   6.906   7.532  0.1454 -0.0572  0.1932
17694SOL    HW160132   4.505   6.957   7.480 -1.0149 -0.1528 -1.3580
17694SOL    HW260133   4.416   6.966   7.602  2.1336 -0.1105  1.0617
17695SOL     OW60134   0.272  11.091   5.646  0.3644  0.1804  0.0794
17695SOL    HW160135   0.179  11.070   5.657  0.6024 -0.6892  0.5247
17695SOL    HW260136   0.278  11.126   5.557 -0.3142 -0.2044 -0.1273
17696SOL     OW60137   3.452   4.077   2.335  0.3483 -0.1293  0.6873
17696SOL    HW160138   3.436   4.155   2.387 -1.5433  0.1403 -0.2226
17696SOL    HW260139   3.371   4.026   2.343  0.9876 -1.2844  0.0783
17697SOL     OW60140  11.577   4.716   6.002 -0.2973  0.5386  0.5091
17697SOL    HW160141  11.635   4.767   6.059  1.9749 -1.5280  0.1893
17697SOL    HW260142  11.561   4.635   6.050 -0.3360 -0.2318 -0.7615
17698SOL     OW60143   4.790   3.512   1.134 -0.1275  0.3963  0.1014
17698SOL    HW160144   4.810   3.483   1.045 -1.6156  0.4367 -0.2646
17698SOL    HW260145   4.834   3.597   1.142 -1.0827  1.0400 -1.0955
17699SOL     OW60146   0.988   3.816   1.190  0.7726 -0.4377  0.2784
17699SOL    HW160147   0.930   3.892   1.178 -0.0507 -1.4333 -3.4074
17699SOL    HW260148   1.075   3.849   1.167  0.3171 -0.6019 -1.9808
17700SOL     OW60149  10.555   7.770   6.289  0.4637 -0.2745 -0.9940
17700SOL    HW160150  10.631   7.733   6.333 -0.0678 -1.1527 -0.7791
17700SOL    HW260151  10.568   7.752   6.196 -0.4170 -2.2721 -0.7821
17701SOL     OW60152   7.125   3.575   1.356  0.2363 -0.3819 -0.2594
17701SOL    HW160153   7.214   3.609   1.359 -0.0127  0.2191  0.5116
17701SOL    HW260154   7.086   3.602   1.439 -0.8985 -0.0099 -0.8954
17702SOL     OW60155   7.110   8.461   9.770 -0.0270  0.3941 -0.1574
17702SOL    HW160156   7.089   8.410   9.691 -0.0561  0.3220 -0.1033
17702SOL    HW260157   7.180   8.411   9.812 -0.7475 -0.1442  0.4240
17703SOL     OW60158  12.534  10.280  11.670  0.2704  0.0858 -0.7644
17703SOL    HW160159  12.551  10.297  11.763  4.9870  0.7292 -1.4820
17703SOL    HW260160  12.506  10.365  11.635  1.7712  0.7629 -0.4177
17704SOL     OW60161   8.759   2.422   0.119  0.1795  0.4670 -0.4805
17704SOL    HW160162   8.808   2.348   0.085  1.4188  0.7689  0.5735
17704SOL    HW260163   8.811   2.499   0.094 -0.4928  0.9053 -0.5678
17705SOL     OW60164   1.640   8.287   5.628 -0.2448  0.9544 -0.4937
17705SOL    HW160165   1.632   8.319   5.538 -0.7700  0.0855 -0.7752
17705SOL    HW260166   1.729   8.250   5.632 -0.8289 -0.6283 -1.2338
17706SOL     OW60167   1.563   3.137  10.606 -0.7701  0.5911  0.6791
17706SOL    HW160168   1.618   3.073  10.562  0.5008  2.1353 -0.0800
17706SOL    HW260169   1.483   3.140  10.552 -0.5734  0.1400  0.3564
17707SOL     OW60170  11.572   3.869   1.096 -0.6929  0.2371 -0.2521
17707SOL    HW160171  11.661   3.880   1.130 -0.5288 -0.9687 -0.2218
17707SOL    HW260172  11.519   3.928   1.149 -0.0421  0.2707  0.3863
17708SOL     OW60173   0.506   4.577   9.588 -0.1300  0.0053 -0.1523
17708SOL    HW160174   0.492   4.513   9.518  1.0746 -0.0306 -0.3754
17708SOL    HW260175   0.530   4.524   9.664  0.0499  0.1358 -0.1183
17709SOL     OW60176   7.157  11.440   1.140 -0.1532  0.2856  0.2025
17709SOL    HW160177   7.067  11.450   1.173 -1.1808  0.2405 -2.4082
17709SOL    HW260178   7.178  11.348   1.155  0.2894  0.7071  2.6393
17710SOL     OW60179   1.728   6.068   6.816  0.5660  0.2937  0.7470
17710SOL    HW160180   1.763   6.154   6.793 -1.5524  0.7071 -1.2741
17710SOL    HW260181   1.666   6.048   6.747 -0.8058 -1.7992  2.4591
17711SOL     OW60182   4.179   0.184   2.178 -0.5522 -0.1112  1.0507
17711SOL    HW160183   4.208   0.159   2.266  0.5575  0.8826  0.9981
17711SOL    HW260184   4.196   0.278   2.174  0.9894 -0.4224 -0.7977
17712SOL     OW60185  12.569  12.500   3.974  0.7251 -0.7591 -0.0146
17712SOL    HW160186  12.572  12.472   3.883 -1.2387 -3.2295  0.5689
17712SOL    HW260187  12.634  12.444   4.018 -0.2282 -1.4970  0.4904
17713SOL     OW60188  12.517   0.914   4.998  0.3483  0.1361 -0.4998
17713SOL    HW160189  12.608   0.888   5.014  0.6928 -0.2652 -2.8298
17713SOL    HW260190  12.517   1.009   5.010  0.3997 -0.1283  2.2260
17714SOL     OW60191   8.149   6.258   2.563  0.0193 -0.1149 -0.2297
17714SOL    HW160192   8.080   6.324   2.572 -0.4460 -0.7036  0.6775
17714SOL    HW260193   8.125   6.189   2.626  0.8669 -0.8227 -0.6578
17715SOL     OW60194   3.614   0.349   8.971 -0.0111  0.2030 -0.2132
17715SOL    HW160195   3.547   0.285   8.996  0.1469 -0.8948 -2.3843
17715SOL    HW260196   3.685   0.334   9.034  0.0076 -1.7871 -0.6239
17716SOL     OW60197   0.311   2.075   1.972 -0.4784 -0.4198 -0.2158
17716SOL    HW160198   0.268   2.018   1.909  0.8340  0.5893 -2.1480
17716SOL    HW260199   0.243   2.136   2.001 -1.3573 -1.5771  0.2120
17717SOL     OW60200   9.642  11.728   1.824 -0.8198  0.4710 -0.4949
17717SOL    HW160201   9.656  11.634   1.826 -0.1697  0.5734  0.1543
17717SOL    HW260202   9.548  11.739   1.841 -0.6786 -0.0220  0.7067
17718SOL     OW60203   9.107  12.495   3.343 -0.6583 -0.1315 -0.1637
17718SOL    HW160204   9.147  12.459   3.264 -2.1402  0.4697 -1.2256
17718SOL    HW260205   9.026  12.445   3.353 -1.4573  1.1271 -0.1679
17719SOL     OW60206   9.646   9.333   0.110 -0.3987  0.3758  0.2501
17719SOL    HW160207   9.727   9.316   0.063 -1.1391  0.0709 -0.9614
17719SOL    HW260208   9.621   9.248   0.148  0.7691  0.8391  2.2172
17720SOL     OW60209   7.308   4.577   7.012 -0.2691 -0.4519  0.3296
17720SOL    HW160210   7.272   4.557   7.099  1.3648 -4.7199  0.2582
17720SOL    HW260211   7.254   4.528   6.951  1.8513 -2.0728 -0.3847
17721SOL     OW60212   5.843   9.060   1.436  0.2217 -0.1864  0.4253
17721SOL    HW160213   5.874   9.150   1.431  1.0446 -0.4679  0.2677
17721SOL    HW260214   5.922   9.007   1.423 -0.2669 -0.9270  0.4215
17722SOL     OW60215   9.293   8.328   5.696  0.1939  0.2048  0.8767
17722SOL    HW160216   9.303   8.291   5.784  2.5540 -1.6053 -0.0713
17722SOL    HW260217   9.223   8.393   5.706 -0.9677 -1.2976  3.6430
17723SOL     OW60218   9.138   2.870  11.525  0.1749 -1.2024  0.3930
17723SOL    HW160219   9.056   2.881  11.572  0.2201  1.7588 -0.0371
17723SOL    HW260220   9.145   2.948  11.470  1.7268 -2.9381 -2.0560
17724SOL     OW60221   3.140   8.015   2.285  0.0658  0.1140  0.1604
17724SOL    HW160222   3.060   8.066   2.272  0.3473  0.4061 -0.5228
17724SOL    HW260223   3.210   8.079   2.273  0.4329 -0.4594 -0.8974
17725SOL     OW60224   8.318   7.486  10.635 -0.0011  0.2916  0.2888
17725SOL    HW160225   8.336   7.402  10.594  1.3761  0.6294  0.1787
17725SOL    HW260226   8.224   7.501  10.619  0.0850 -0.4848 -1.0334
17726SOL     OW60227  10.570   5.389   7.496  0.5258 -0.0954  0.4926
17726SOL    HW160228  10.515   5.464   7.519  0.9168 -0.0245  1.2099
17726SOL    HW260229  10.508   5.325   7.461  0.4684  1.5148 -2.7165
17727SOL     OW60230  10.973   0.875   2.888  0.2732  0.1844 -0.0551
17727SOL    HW160231  11.054   0.826   2.900  1.2033  0.8309 -2.8963
17727SOL    HW260232  10.943   0.851   2.800 -1.8959  1.0382  0.3753
17728SOL     OW60233  10.869   1.172   4.516 -0.6014  0.0739 -0.0277
17728SOL    HW160234  10.847   1.228   4.441  0.1386 -2.0459 -1.9607
17728SOL    HW260235  10.835   1.219   4.592 -0.5720  2.8166 -1.5559
17729SOL     OW60236   4.345   5.379   4.385  0.1447 -0.1908 -0.1837
17729SOL    HW160237   4.334   5.429   4.305 -0.2565 -0.8618 -0.5556
17729SOL    HW260238   4.440   5.375   4.399  0.2936 -1.1549 -1.3300
17730SOL     OW60239   9.143   0.685   1.034 -0.8106  0.1212 -0.0277
17730SOL    HW160240   9.127   0.598   0.998 -1.0109  0.3484 -0.4995
17730SOL    HW260241   9.123   0.745   0.962  0.2431  0.5194 -0.0150
17731SOL     OW60242   6.888   6.312   0.053 -0.4653 -0.1498  0.0596
17731SOL    HW160243   6.912   6.305   0.145 -1.7073  0.2224  0.4216
17731SOL    HW260244   6.851   6.226   0.031 -1.6863  0.2739  0.3748
17732SOL     OW60245   5.802  11.789   3.671 -0.2296 -0.4580  0.3158
17732SOL    HW160246   5.809  11.795   3.575  0.0315  0.6048  0.3862
17732SOL    HW260247   5.843  11.869   3.702 -2.3741  0.3513  1.2436
17733SOL     OW60248   8.697   9.868   5.633  0.1648  0.8705 -0.2286
17733SOL    HW160249   8.690   9.822   5.550 -1.3518 -0.0313  0.3451
17733SOL    HW260250   8.759   9.939   5.617  1.1693 -0.2708 -1.6469
17734SOL     OW60251   1.558   0.378   1.560  0.6353 -0.3657 -0.0567
17734SOL    HW160252   1.613   0.318   1.511 -0.2685 -0.7693 -0.6028
17734SOL    HW260253   1.500   0.417   1.494  1.2748  1.2018  0.2677
17735SOL     OW60254   5.143  11.748   5.040  0.1940 -0.4192  0.6268
17735SOL    HW160255   5.100  11.783   5.118 -0.4906 -1.1343  0.5764
17735SOL    HW260256   5.125  11.814   4.972 -1.3584 -0.9929  0.4552
17736SOL     OW60257   2.944   4.425   2.798 -0.4481  0.0205  0.4546
17736SOL    HW160258   2.948   4.339   2.758  0.4520 -0.4231  1.4447
17736SOL    HW260259   2.917   4.484   2.727  0.3146 -0.8542 -0.5897
17737SOL     OW60260   8.271   0.078  12.485  0.2956  0.1352  0.9232
17737SOL    HW160261   8.309   0.110  12.403  2.7715  1.1787  2.3536
17737SOL    HW260262   8.281  -0.017  12.480  1.9394  0.2925  0.6685
17738SOL     OW60263   2.639  12.125   0.338  0.0676 -0.4719  0.2975
17738SOL    HW160264   2.611  12.216   0.351 -0.8552 -0.1237 -3.2086
17738SOL    HW260265   2.557  12.076   0.335  0.1925 -0.6381 -2.3693
17739SOL     OW60266   3.457   2.844   1.483 -0.2719  0.0012  0.2487
17739SOL    HW160267   3.488   2.867   1.571 -2.3578  1.3429  0.6993
17739SOL    HW260268   3.364   2.868   1.483 -0.5977 -1.0031 -1.9844
17740SOL     OW60269   3.976   5.353   3.953 -0.6289 -0.7931 -0.3229
17740SOL    HW160270   3.951   5.443   3.934  1.2404 -0.5943 -2.3072
17740SOL    HW260271   3.896   5.311   3.982 -1.2094  1.8931  2.4410
17741SOL     OW60272   5.770   4.544   7.912  0.3341  0.7409 -0.0655
17741SOL    HW160273   5.806   4.615   7.859 -1.1859  1.0653 -0.7058
17741SOL    HW260274   5.781   4.574   8.002  0.0239  1.6330 -0.3193
17742SOL     OW60275  10.657   7.910   4.058 -0.1036 -0.0670 -0.0599
17742SOL    HW160276  10.574   7.958   4.050  0.2535  0.2687 -3.1388
17742SOL    HW260277  10.635   7.832   4.109 -1.6577  1.2857  1.4600
17743SOL     OW60278   4.314  11.174   0.248  0.2966  0.1790 -0.2532
17743SOL    HW160279   4.341  11.137   0.164 -0.8962 -0.7823 -0.2312
17743SOL    HW260280   4.350  11.115   0.314  1.1080  0.8523 -0.0707
17744SOL     OW60281   8.815   4.141   0.390 -0.0520 -0.0868 -0.0489
17744SOL    HW160282   8.817   4.234   0.367  1.2344 -0.4563 -1.6300
17744SOL    HW260283   8.722   4.119   0.390 -0.3450  1.0748 -0.2540
17745SOL     OW60284   2.170  10.984   0.085  0.2542 -0.1129 -0.0304
17745SOL    HW160285   2.082  10.986   0.122  0.3223  0.3999  0.1163
17745SOL    HW260286   2.165  11.042   0.009  0.4769 -0.0404  0.0097
17746SOL     OW60287   4.846  10.235   9.385  0.0968 -0.1935  0.1152
17746SOL    HW160288   4.776  10.176   9.414  0.5119 -0.1735  1.2279
17746SOL    HW260289   4.815  10.322   9.408  0.6959 -0.2262  1.1322
17747SOL     OW60290   7.298   1.179   1.502  0.2026  0.0620  0.0796
17747SOL    HW160291   7.340   1.096   1.521 -1.8131 -1.1103 -0.2194
17747SOL    HW260292   7.300   1.186   1.406  0.8109  0.6310  0.1246
17748SOL     OW60293   4.358   8.705  12.483 -0.0815  0.5996  0.0093
17748SOL    HW160294   4.412   8.771  12.439  2.3302 -0.4037  1.2706
17748SOL    HW260295   4.394   8.622  12.453 -2.8193 -0.2179 -1.2562
17749SOL     OW60296   0.590   5.706  11.500 -0.5804 -0.2183 -0.6246
17749SOL    HW160297   0.673   5.702  11.453 -0.4023 -0.8946 -0.2654
17749SOL    HW260298   0.531   5.652  11.447 -0.4085 -0.8913 -0.1366
17750SOL     OW60299   2.092   9.779   3.632 -0.0700  0.4380  0.4622
17750SOL    HW160300   2.076   9.865   3.593 -0.5155 -0.0321 -0.4269
17750SOL    HW260301   2.157   9.796   3.701  1.7575  1.1485 -1.3160
17751SOL     OW60302   1.310   5.924   5.091 -0.2453  0.0781  0.0152
17751SOL    HW160303   1.246   5.938   5.020  0.3241 -0.4235 -0.6130
17751SOL    HW260304   1.297   5.832   5.116  0.5794 -0.1868 -0.4870
17752SOL     OW60305   5.073   0.942  10.960 -0.1223  0.0314 -0.3214
17752SOL    HW160306   5.009   1.008  10.933 -1.0832 -1.4292 -1.7390
17752SOL    HW260307   5.024   0.886  11.021  0.9023  1.0029  1.4649
17753SOL     OW60308   9.042   9.457   4.505 -0.1248  0.2697  0.6323
17753SOL    HW160309   9.002   9.531   4.461  0.2782  0.5564  0.7426
17753SOL    HW260310   9.123   9.492   4.542 -0.3197 -0.0268  1.3661
17754SOL     OW60311   3.523  10.860  11.104 -0.8000 -0.1686 -0.0341
17754SOL    HW160312   3.534  10.813  11.021 -0.4810 -1.8963  0.9411
17754SOL    HW260313   3.600  10.836  11.156 -1.1937  0.5690  0.9159
17755SOL     OW60314   2.690   2.367   0.942 -0.0181 -0.3475 -0.0672
17755SOL    HW160315   2.722   2.288   0.898 -0.5483 -0.5102 -0.1643
17755SOL    HW260316   2.657   2.422   0.871 -0.6105 -0.4870  0.1012
17756SOL     OW60317   0.086  12.568   9.852 -0.4690  0.4119  0.0418
17756SOL    HW160318   0.049  12.550   9.766  0.3378 -1.1616 -0.0279
17756SOL    HW260319   0.144  12.493   9.869  0.6144  1.4742  1.2655
17757SOL     OW60320   1.276   6.369   9.309  0.0587 -0.2928  0.0452
17757SOL    HW160321   1.315   6.413   9.234  2.0670  0.9700  1.7179
17757SOL    HW260322   1.183   6.393   9.305  0.1281 -0.1539 -1.8912
17758SOL     OW60323   4.510  11.187   1.741 -0.6362  0.0679 -0.0615
17758SOL    HW160324   4.599  11.210   1.714  0.2720  0.5749  3.0061
17758SOL    HW260325   4.454  11.235   1.681  1.1870  1.5480 -0.6719
17759SOL     OW60326   4.609  11.570   4.234  0.2341 -0.0926  0.1377
17759SOL    HW160327   4.694  11.577   4.191 -1.0180 -0.5581 -2.6166
17759SOL    HW260328   4.570  11.491   4.197 -1.8027  0.6653  0.5329
17760SOL     OW60329  10.466   2.149   0.269 -0.1150 -0.1342  0.5232
17760SOL    HW160330  10.411   2.122   0.195  0.0285  0.1719  0.3014
17760SOL    HW260331  10.403   2.170   0.338 -0.2223 -1.0919  0.7222
17761SOL     OW60332  12.528   5.999   0.641  0.0743 -0.7544  0.0092
17761SOL    HW160333  12.612   6.018   0.600 -1.2237  1.0923 -2.0118
17761SOL    HW260334  12.513   6.074   0.699  0.5408 -1.9092  1.6798
17762SOL     OW60335   8.623  10.865   3.730  0.0894 -0.4615  0.2379
17762SOL    HW160336   8.568  10.900   3.660 -1.1140  1.1370  1.9142
17762SOL    HW260337   8.570  10.798   3.772  0.9535 -1.6930 -0.5444
17763SOL     OW60338   7.636   1.747   1.101  0.2002 -0.2686  0.3175
17763SOL    HW160339   7.634   1.672   1.160  1.6821 -1.0423 -0.5555
17763SOL    HW260340   7.580   1.812   1.143  0.4566 -1.1289  2.0869
17764SOL     OW60341   4.430   9.473   1.999 -0.0762 -0.2333 -0.0916
17764SOL    HW160342   4.481   9.435   2.069  0.6913  0.3759 -0.3079
17764SOL    HW260343   4.360   9.410   1.983 -2.1789  0.9699  3.3114
17765SOL     OW60344   9.819  12.209   8.166 -0.4594 -0.6227 -0.6821
17765SOL    HW160345   9.898  12.164   8.196 -0.3083 -0.1859 -0.4061
17765SOL    HW260346   9.759  12.139   8.142 -1.0776 -1.0755  1.8378
17766SOL     OW60347   5.150   4.344   2.452  0.0116 -0.3272 -0.5577
17766SOL    HW160348   5.134   4.284   2.525 -1.6372 -0.2108 -0.7809
17766SOL    HW260349   5.196   4.417   2.491  1.2978 -1.3313 -0.1165
17767SOL     OW60350   1.069   0.133   1.313 -0.4479 -0.2180 -0.0512
17767SOL    HW160351   1.047   0.053   1.360 -1.5921  0.0270 -0.1355
17767SOL    HW260352   1.151   0.113   1.268  0.2467 -0.7179  1.3864
17768SOL     OW60353   0.682   0.086   6.118  0.1847 -0.2994 -0.1839
17768SOL    HW160354   0.628   0.098   6.040 -0.0368  1.9776  0.2616
17768SOL    HW260355   0.619   0.067   6.188  0.3822 -2.3343 -0.4980
17769SOL     OW60356   3.113   3.552   4.242  0.3311  0.0131  0.0016
17769SOL    HW160357   3.070   3.526   4.161  1.1139  2.1909 -1.1601
17769SOL    HW260358   3.142   3.469   4.281  1.0367 -1.0069 -2.5392
17770SOL     OW60359   4.194   4.290   2.185 -0.2264  0.0647  0.4078
17770SOL    HW160360   4.134   4.363   2.170  1.7391  1.6086 -0.4865
17770SOL    HW260361   4.191   4.239   2.104  0.4733  0.7934 -0.0914
17771SOL     OW60362   4.557   5.007   6.028  0.0137  0.1156 -0.3551
17771SOL    HW160363   4.555   4.934   5.967  1.7987 -0.3424  0.0590
17771SOL    HW260364   4.533   4.968   6.113  2.1116 -0.3255  0.1025
17772SOL     OW60365  12.253   7.435   1.583 -0.2262  0.1255  0.0492
17772SOL    HW160366  12.333   7.487   1.587 -0.4628  0.3990  2.6789
17772SOL    HW260367  12.279   7.354   1.539  1.5729  0.0690  1.1469
17773SOL     OW60368  10.679   8.057   0.073  0.0234  0.2019 -0.3502
17773SOL    HW160369  10.736   8.125   0.108 -0.0759  1.0279 -1.7302
17773SOL    HW260370  10.723   7.975   0.098 -0.5429  0.6401  2.5175
17774SOL     OW60371   6.010   0.063   6.958  0.5881  0.6991  0.0508
17774SOL    HW160372   6.073   0.134   6.956  0.4250  0.8380 -0.2731
17774SOL    HW260373   6.061  -0.016   6.939  0.5988  0.8629 -0.6287
17775SOL     OW60374  10.744   8.828   0.182  0.1786 -0.0989  0.2204
17775SOL    HW160375  10.818   8.871   0.226  0.1390  1.4988 -1.1628
17775SOL    HW260376  10.689   8.900   0.151  0.6550 -0.9754 -3.1489
17776SOL     OW60377   1.893   8.540   4.097  0.3403 -0.3284 -0.2875
17776SOL    HW160378   1.855   8.561   4.182 -0.2642  1.8111 -1.0335
17776SOL    HW260379   1.820   8.507   4.045  0.3456 -0.0568 -0.4722
17777SOL     OW60380   7.840   0.463   5.565 -0.0393  0.2590 -0.6218
17777SOL    HW160381   7.934   0.450   5.553  0.0653 -1.1753  1.2667
17777SOL    HW260382   7.833   0.546   5.611  0.1272  1.3135 -2.4136
17778SOL     OW60383   7.204   8.994   3.420 -0.2150 -0.0495 -0.3695
17778SOL    HW160384   7.185   9.058   3.489 -1.7352 -1.7234  0.8686
17778SOL    HW260385   7.294   8.966   3.436 -0.4449 -0.1687  0.7630
17779SOL     OW60386   9.842  12.430   3.592 -0.2001  0.5919 -0.1120
17779SOL    HW160387   9.751  12.412   3.616 -0.3607 -1.2797 -1.8634
17779SOL    HW260388   9.840  12.443   3.497  1.4528 -0.4109 -0.3346
17780SOL     OW60389   8.899   3.080   5.702 -0.4524 -0.0494 -0.3292
17780SOL    HW160390   8.983   3.093   5.658  0.3436  1.0076  1.4303
17780SOL    HW260391   8.847   3.156   5.676  0.2703  0.9547  1.0624
17781SOL     OW60392  12.082   4.889   3.777  0.1622  0.8427  0.0722
17781SOL    HW160393  12.063   4.820   3.840  0.4533 -0.1364 -0.8762
17781SOL    HW260394  12.166   4.925   3.806 -0.9793  2.2852  1.7976
17782SOL     OW60395   6.365  11.677   9.336 -0.3030 -0.4530 -0.0083
17782SOL    HW160396   6.277  11.640   9.332 -0.3327 -0.2966 -1.3120
17782SOL    HW260397   6.392  11.683   9.244  0.5691  0.6937  0.3058
17783SOL     OW60398   8.002   9.371  11.823 -0.1302  0.2029 -0.1965
17783SOL    HW160399   8.034   9.441  11.767  1.9985  0.4953  1.2351
17783SOL    HW260400   7.961   9.415  11.897 -1.2732 -0.1345 -0.6171
17784SOL     OW60401  11.930  11.506   7.682 -0.6146 -0.6838 -0.3729
17784SOL    HW160402  11.860  11.571   7.675 -0.0531  0.0632  0.7390
17784SOL    HW260403  11.884  11.422   7.681 -1.4734 -0.2279 -0.3184
17785SOL     OW60404   2.449   4.535  10.473  0.1355 -0.1038  0.5923
17785SOL    HW160405   2.382   4.469  10.454 -0.4262  1.0387 -1.7422
17785SOL    HW260406   2.413   4.585  10.546 -1.4392  0.2742 -0.4034
17786SOL     OW60407  10.787   5.629   7.397 -0.1694 -0.0760  0.3453
17786SOL    HW160408  10.729   5.571   7.447  0.9363 -0.6801  0.9657
17786SOL    HW260409  10.737   5.649   7.318 -1.1316 -0.7735  0.7458
17787SOL     OW60410  10.945   6.831   0.637  0.0235  0.1340  0.0493
17787SOL    HW160411  10.961   6.811   0.729  0.4790  0.4560  0.0417
17787SOL    HW260412  10.864   6.784   0.616  0.5970 -0.9807  0.2727
17788SOL     OW60413  12.186   4.097  11.011 -0.6229 -0.2928 -0.4983
17788SOL    HW160414  12.259   4.053  10.967  0.0156  1.1591 -0.9504
17788SOL    HW260415  12.206   4.190  11.003 -1.8869  0.0908  0.5103
17789SOL     OW60416  11.721   0.566   3.989 -0.2111  0.2450  0.4049
17789SOL    HW160417  11.807   0.571   3.948 -1.3209  2.7239 -1.9011
17789SOL    HW260418  11.672   0.503   3.936 -0.0896 -0.5510  1.2189
17790SOL     OW60419   8.102   1.007   9.419  0.3151  0.2018  0.0675
17790SOL    HW160420   8.169   1.006   9.488  0.8317  0.0867 -0.4300
17790SOL    HW260421   8.072   0.917   9.414 -1.4465  0.6391  1.7825
17791SOL     OW60422   0.304   3.753   0.461  0.2107 -0.3386  0.1990
17791SOL    HW160423   0.395   3.783   0.461 -0.6806  2.6892  1.1472
17791SOL    HW260424   0.285   3.734   0.369  1.0124  1.7768 -0.4472
17792SOL     OW60425   9.531   2.655   2.458 -0.4112  0.0824  0.1847
17792SOL    HW160426   9.570   2.569   2.475 -2.1539 -1.1590 -1.6616
17792SOL    HW260427   9.442   2.649   2.495 -0.7089  0.9292 -0.3548
17793SOL     OW60428   3.582  11.251   6.094 -0.7443 -0.2493  0.6224
17793SOL    HW160429   3.518  11.199   6.046 -2.9015  2.6930  0.0540
17793SOL    HW260430   3.606  11.321   6.033  0.5683  0.5579  2.0111
17794SOL     OW60431  10.142   0.582   9.375  0.3935  0.0281  0.1698
17794SOL    HW160432  10.060   0.630   9.390 -0.5103 -1.0338 -1.1887
17794SOL    HW260433  10.119   0.514   9.313  1.6975 -2.0453  1.8251
17795SOL     OW60434   7.520  10.602   6.298 -0.0332  0.4772  0.2940
17795SOL    HW160435   7.428  10.584   6.318  0.0226  0.6735  0.7510
17795SOL    HW260436   7.569  10.541   6.354  0.1074 -2.0958 -2.4257
17796SOL     OW60437   5.960  11.641   8.427  0.0861  0.0979  0.0561
17796SOL    HW160438   6.021  11.569   8.440  0.5965  0.5097 -0.0348
17796SOL    HW260439   5.944  11.676   8.515 -1.8723 -1.4787  0.4132
17797SOL     OW60440   8.674  11.128  12.544 -0.6622 -0.1299 -0.2615
17797SOL    HW160441   8.598  11.158  12.593 -0.2367  0.9963 -0.2616
17797SOL    HW260442   8.711  11.207  12.506  1.2991 -0.4355  0.8536
17798SOL     OW60443   0.571   9.766   1.100  0.6831 -0.2836  0.4109
17798SOL    HW160444   0.489   9.792   1.141  1.1752  2.6596 -0.1909
17798SOL    HW260445   0.546   9.724   1.018 -0.3147  2.2867 -0.6972
17799SOL     OW60446   0.233   7.926   6.680 -0.4830 -0.3492 -0.0118
17799SOL    HW160447   0.308   7.867   6.676  0.3066  0.5951  0.5174
17799SOL    HW260448   0.225   7.961   6.592 -0.6281 -0.8199 -0.1937
17800SOL     OW60449   2.333   2.608   8.572  0.0862 -0.3988 -0.0764
17800SOL    HW160450   2.339   2.538   8.506  1.2529 -2.5491  2.1412
17800SOL    HW260451   2.304   2.563   8.651 -0.2659  1.8970  1.1587
17801SOL     OW60452   4.402   0.762   2.672  0.2583 -0.0070  0.1228
17801SOL    HW160453   4.308   0.766   2.685  0.5178  0.6299  2.1703
17801SOL    HW260454   4.427   0.851   2.647  0.4391  0.0896  0.6374
17802SOL     OW60455   2.173   1.763   5.764  0.9067 -0.3532 -0.2500
17802SOL    HW160456   2.082   1.792   5.759  1.1612  0.3993 -0.5667
17802SOL    HW260457   2.167   1.667   5.769  0.0117 -0.2375  2.0747
17803SOL     OW60458   7.429  11.925  12.489  0.1263  0.0088 -0.5518
17803SOL    HW160459   7.337  11.899  12.486  0.1209 -0.1523  0.6923
17803SOL    HW260460   7.477  11.850  12.453 -0.3886  1.3232 -4.4718
17804SOL     OW60461  10.362   7.541   6.742 -0.2542 -0.1886  0.1048
17804SOL    HW160462  10.290   7.558   6.681 -0.6537 -2.0382  0.0013
17804SOL    HW260463  10.440   7.535   6.686 -0.4049 -0.5498 -0.0672
17805SOL     OW60464  12.528   1.757   1.289 -0.0375 -0.0553  0.2814
17805SOL    HW160465  12.545   1.664   1.275 -0.9879 -0.0614 -0.9693
17805SOL    HW260466  12.539   1.797   1.203  1.9924  1.2953  1.0772
17806SOL     OW60467   7.260  10.703  12.418 -0.5265 -0.4148  0.3383
17806SOL    HW160468   7.338  10.649  12.432 -1.4721 -1.7795  0.5709
17806SOL    HW260469   7.251  10.709  12.323  0.0977  0.1034  0.3118
17807SOL     OW60470   2.203   0.471   3.059 -0.1701 -0.0473  0.3876
17807SOL    HW160471   2.129   0.412   3.045  0.3987 -0.7422  0.2273
17807SOL    HW260472   2.173   0.533   3.125 -0.7444 -0.5835  0.6351
17808SOL     OW60473   9.235   3.966   3.075 -0.8860  0.0586 -0.2176
17808SOL    HW160474   9.173   3.939   3.142  2.8088 -2.5002  2.5473
17808SOL    HW260475   9.262   4.054   3.102 -1.8063  0.3826 -0.3175
17809SOL     OW60476   1.091  12.016   7.834 -0.0880  0.4121  0.3913
17809SOL    HW160477   1.145  11.943   7.863 -0.3051  0.1980  0.2620
17809SOL    HW260478   1.114  12.088   7.893  1.7199  0.8919 -0.8048
17810SOL     OW60479   1.052   5.757   2.258  0.0220 -0.1420 -0.3501
17810SOL    HW160480   1.112   5.684   2.270  0.3216 -0.0540 -1.1905
17810SOL    HW260481   1.089   5.827   2.311  1.6501  0.4448 -2.1280
17811SOL     OW60482  10.920   4.447   3.217 -0.0043 -0.3879  0.2530
17811SOL    HW160483  10.934   4.356   3.191  0.2023 -0.1411 -0.5260
17811SOL    HW260484  10.825   4.456   3.227 -0.0702 -0.5326 -0.2541
17812SOL     OW60485   9.198  10.493   9.375  0.2720  0.0962 -0.2144
17812SOL    HW160486   9.159  10.499   9.287  1.0028  1.0738 -0.4911
17812SOL    HW260487   9.170  10.574   9.418 -0.6536 -0.6903  0.7185
17813SOL     OW60488   4.583  12.216   4.725 -0.3154 -0.3138  0.6152
17813SOL    HW160489   4.640  12.152   4.770 -0.6741 -1.3457 -0.3555
17813SOL    HW260490   4.595  12.197   4.632 -0.4626  1.0392  0.3033
17814SOL     OW60491   0.183  12.451   5.707  0.5331 -0.2835 -0.1996
17814SOL    HW160492   0.219  12.404   5.782  0.3225 -0.7459 -0.3796
17814SOL    HW260493   0.088  12.443   5.718  0.4987 -1.1001 -0.9579
17815SOL     OW60494   5.235  12.253   8.683 -0.3425 -0.1824 -0.4233
17815SOL    HW160495   5.171  12.213   8.624  1.2773 -0.8356 -1.8150
17815SOL    HW260496   5.302  12.289   8.625  0.3161  0.9477  0.9712
17816SOL     OW60497  11.201  11.568   1.374  0.2548 -0.2640 -0.4736
17816SOL    HW160498  11.282  11.578   1.325 -1.3911 -2.7674 -4.2287
17816SOL    HW260499  11.214  11.489   1.426  0.9154  0.6263  0.7701
17817SOL     OW60500   0.410   9.270   9.974  0.3476  0.0392  0.2085
17817SOL    HW160501   0.459   9.227  10.045  0.7181  0.5547  0.2653
17817SOL    HW260502   0.413   9.363   9.996 -1.4643  0.0223  0.7276
17818SOL     OW60503   1.094   9.182   8.360  0.2142  0.0196 -0.6201
17818SOL    HW160504   1.014   9.178   8.414  0.0759 -0.2241 -0.8385
17818SOL    HW260505   1.165   9.163   8.421  0.3779  2.5576  0.1080
17819SOL     OW60506   5.546   5.208   8.049 -0.0969 -0.0526 -0.7189
17819SOL    HW160507   5.616   5.158   8.091  0.2962  0.8765 -0.2352
17819SOL    HW260508   5.487   5.142   8.013 -1.2602 -1.0399  2.5805
17820SOL     OW60509   6.915   2.700  11.723  0.1769 -0.1596  0.4061
17820SOL    HW160510   6.828   2.688  11.762 -0.8887  0.5157 -1.6167
17820SOL    HW260511   6.955   2.768  11.776 -0.5929 -0.3554  1.2708
17821SOL     OW60512  12.526   1.051   7.482 -0.4262  0.0949 -0.1539
17821SOL    HW160513  12.599   1.104   7.516  0.4768 -0.2642 -1.4439
17821SOL    HW260514  12.462   1.051   7.552  1.0510 -0.0292  1.2612
17822SOL     OW60515  11.337  11.673   9.402 -0.3910 -0.3605 -0.2226
17822SOL    HW160516  11.398  11.604   9.377 -0.9811 -0.8276 -0.3866
17822SOL    HW260517  11.276  11.631   9.463 -0.0177  0.3271  0.6528
17823SOL     OW60518   6.726   6.378  10.733 -0.0989 -0.7934  0.3697
17823SOL    HW160519   6.772   6.343  10.657  0.2594  0.6576 -0.1199
17823SOL    HW260520   6.785   6.362  10.806  0.7968  0.1965 -0.1022
17824SOL     OW60521   9.818   9.089   9.436 -0.4339 -0.6667  0.3022
17824SOL    HW160522   9.855   9.056   9.353 -0.5383 -0.3390  0.1260
17824SOL    HW260523   9.742   9.140   9.409 -0.2103 -0.1915  0.5703
17825SOL     OW60524   2.193   4.148   2.630 -0.7352  1.0988 -0.2182
17825SOL    HW160525   2.242   4.178   2.707 -0.4233  0.8738 -0.3261
17825SOL    HW260526   2.260   4.121   2.568 -1.0001  0.3906 -0.2071
17826SOL     OW60527   4.812  11.599   4.057 -0.1743 -0.2491  0.1409
17826SOL    HW160528   4.856  11.575   3.976 -1.1466  0.3692 -0.5953
17826SOL    HW260529   4.854  11.546   4.125  2.1794  0.8051 -0.3907
17827SOL     OW60530   3.836  10.054  11.338  0.5144  0.2407 -0.0565
17827SOL    HW160531   3.916  10.063  11.286  1.7053 -1.7408  1.3025
17827SOL    HW260532   3.861   9.996  11.410 -1.1012  2.5993  2.6291
17828SOL     OW60533   0.067   2.092  11.312 -0.8896  0.0280 -0.2274
17828SOL    HW160534   0.067   2.031  11.238  1.5850  0.5503 -0.7446
17828SOL    HW260535   0.067   2.179  11.271 -0.7613  0.3344  0.4144
17829SOL     OW60536  10.003   9.179   5.110  0.3719 -0.9749  0.1993
17829SOL    HW160537   9.931   9.242   5.102  1.8703  0.7688 -0.2682
17829SOL    HW260538  10.031   9.162   5.020  0.0734 -2.2590  0.3276
17830SOL     OW60539   4.581   1.138   4.158 -0.8809  0.6418 -0.5226
17830SOL    HW160540   4.602   1.095   4.241  0.9735  1.3749 -0.5745
17830SOL    HW260541   4.604   1.074   4.091 -0.1872  0.8821 -0.5250
17831SOL     OW60542  10.317   8.699   8.017 -0.6116 -0.3372  0.2878
17831SOL    HW160543  10.254   8.769   8.035  0.0443  0.5724 -0.7476
17831SOL    HW260544  10.378   8.702   8.090  0.1118  1.0423 -0.3210
17832SOL     OW60545   9.211  11.276   5.219  0.1411  0.9317  0.1358
17832SOL    HW160546   9.285  11.329   5.249 -0.5324  1.4901  0.8148
17832SOL    HW260547   9.133  11.327   5.241 -0.4822  0.0970 -0.0700
17833SOL     OW60548  10.721   1.534   9.209  0.4969  0.1952  0.1832
17833SOL    HW160549  10.631   1.566   9.215  0.1323 -0.5613 -0.9515
17833SOL    HW260550  10.717   1.444   9.244  0.6233 -0.1536 -0.6777
17834SOL     OW60551   0.033   8.908   6.390 -0.6218 -0.3987 -0.6563
17834SOL    HW160552   0.016   8.980   6.450 -0.7436 -0.5470 -0.5097
17834SOL    HW260553   0.063   8.837   6.447  2.5303  0.4635 -1.0637
17835SOL     OW60554  12.514   7.576  12.156  0.9969 -0.3089 -0.5058
17835SOL    HW160555  12.455   7.509  12.122 -1.0477  1.3615 -0.4287
17835SOL    HW260556  12.516   7.643  12.088  0.3217  1.0669  0.7755
17836SOL     OW60557   8.163   5.089   3.665 -0.2509  0.2358 -0.3877
17836SOL    HW160558   8.102   5.162   3.683 -0.0533  0.7952 -1.8613
17836SOL    HW260559   8.111   5.010   3.681 -0.4334  0.6615  1.3604
17837SOL     OW60560   9.829  10.045   2.600 -0.0424  0.0473  0.6352
17837SOL    HW160561   9.757  10.106   2.613  0.0447  0.8144 -2.0357
17837SOL    HW260562   9.789   9.967   2.561  0.1681 -0.8016  2.0320
17838SOL     OW60563   2.886   1.230   0.063  0.3399  0.0483  0.1812
17838SOL    HW160564   2.967   1.274   0.035 -0.0521  0.4442 -0.3456
17838SOL    HW260565   2.824   1.301   0.077  0.3826 -0.1743  1.6496
17839SOL     OW60566   4.587   5.020   3.441  0.3116  0.2850  0.2531
17839SOL    HW160567   4.493   5.035   3.437  0.2484  0.6743  2.1651
17839SOL    HW260568   4.596   4.928   3.468  0.4207  0.7123  1.7354
17840SOL     OW60569   7.245   7.472   6.378  0.1034  0.1986 -0.3518
17840SOL    HW160570   7.206   7.468   6.291 -0.8625 -0.7173  0.1020
17840SOL    HW260571   7.248   7.565   6.400  0.6560  0.4570 -1.4912
17841SOL     OW60572   6.828   5.507   4.433  0.2621  0.2893  0.1969
17841SOL    HW160573   6.751   5.453   4.417  0.3597 -0.3377  1.6888
17841SOL    HW260574   6.808   5.555   4.513  0.8300  1.2482 -0.2223
17842SOL     OW60575  11.446   1.071  11.161  0.7420 -0.0230  0.6640
17842SOL    HW160576  11.445   0.977  11.142  1.5840  0.0291  0.3145
17842SOL    HW260577  11.528   1.084  11.209 -0.0316  0.3096  1.9468
17843SOL     OW60578   0.069  10.533   0.913 -0.6307  0.0989  0.0579
17843SOL    HW160579   0.143  10.539   0.853 -0.6471 -1.1258 -0.1021
17843SOL    HW260580   0.070  10.443   0.944 -2.1336  0.0105 -0.0651
17844SOL     OW60581   3.567   9.984   7.588  0.4566  0.2486  0.3231
17844SOL    HW160582   3.513  10.055   7.554 -1.7770 -1.4602  0.0830
17844SOL    HW260583   3.649  10.027   7.614 -0.6207  2.8132 -0.1900
17845SOL     OW60584   0.148   0.625   2.333 -0.4380 -0.4439  0.2071
17845SOL    HW160585   0.105   0.706   2.307 -1.2311 -1.1320 -0.6927
17845SOL    HW260586   0.117   0.608   2.422 -1.1760 -0.3686 -0.0337
17846SOL     OW60587   9.320   2.096   8.308  0.0732  0.5019 -0.2376
17846SOL    HW160588   9.318   2.087   8.213  0.0233  0.3477 -0.2226
17846SOL    HW260589   9.280   2.016   8.341  0.6009  0.2997 -0.0751
17847SOL     OW60590   8.064   2.792   6.232  0.0887  0.2229 -0.7726
17847SOL    HW160591   8.132   2.795   6.300  0.3055 -0.7284 -0.9294
17847SOL    HW260592   7.982   2.795   6.281  0.2405 -0.9428 -0.4135
17848SOL     OW60593   3.380   1.559   5.817 -0.0616 -0.1209  0.3068
17848SOL    HW160594   3.384   1.472   5.857 -2.4114 -0.0361  0.9093
17848SOL    HW260595   3.357   1.617   5.890 -0.6416  0.6565 -0.4738
17849SOL     OW60596   8.961   2.343   4.470 -0.4310 -0.9597  0.4822
17849SOL    HW160597   8.949   2.268   4.413  1.4336 -0.3623 -0.7828
17849SOL    HW260598   8.999   2.411   4.414 -0.6278  0.4142  1.9281
17850SOL     OW60599   5.257   7.178   3.383 -0.0357 -0.0783 -0.1925
17850SOL    HW160600   5.267   7.265   3.345  0.1597 -0.5263 -1.1954
17850SOL    HW260601   5.162   7.168   3.395 -0.1860 -0.2469 -1.3703
17851SOL     OW60602   0.594  11.271   0.282 -0.1678 -0.3496  0.3067
17851SOL    HW160603   0.518  11.292   0.336  0.4631  0.5673  0.8764
17851SOL    HW260604   0.581  11.321   0.201  0.8644  1.6139  1.2811
17852SOL     OW60605  10.964   4.158   2.278 -0.3332 -0.3313  0.2372
17852SOL    HW160606  11.008   4.087   2.230  0.1980  0.0503  0.1485
17852SOL    HW260607  11.030   4.227   2.284 -1.2358  0.6653 -0.7714
17853SOL     OW60608  11.139   8.061  11.246  0.2771 -0.4120  0.1197
17853SOL    HW160609  11.057   8.021  11.215 -0.8782  1.4788  0.5467
17853SOL    HW260610  11.197   8.057  11.171 -1.0480  0.3279 -1.0000
17854SOL     OW60611   3.732   9.971   9.159  0.6731 -0.1967 -0.2518
17854SOL    HW160612   3.798  10.036   9.181  0.1050  0.4239 -0.3662
17854SOL    HW260613   3.649  10.014   9.175  0.0391  1.1284 -5.3297
17855SOL     OW60614   5.174   4.742   0.419 -0.0545 -0.0005 -0.2221
17855SOL    HW160615   5.079   4.751   0.422  0.0203  1.1071 -0.6438
17855SOL    HW260616   5.207   4.818   0.468  0.6213 -0.3309 -0.1473
17856SOL     OW60617  12.457   4.596  12.371  0.8445 -0.0116  0.1916
17856SOL    HW160618  12.514   4.673  12.371 -0.0118  0.6463 -0.1796
17856SOL    HW260619  12.515   4.523  12.353  1.3742  0.7917 -1.5603
17857SOL     OW60620   6.552   1.014   7.185  0.7854 -0.2432 -0.3384
17857SOL    HW160621   6.511   0.932   7.157 -0.7424  0.5875 -0.6710
17857SOL    HW260622   6.571   1.060   7.103  2.5237 -0.6406 -0.1939
17858SOL     OW60623   1.989   7.154   5.893 -0.1237  0.4540  0.5856
17858SOL    HW160624   2.058   7.098   5.856 -0.9341  0.2575 -0.7168
17858SOL    HW260625   2.017   7.171   5.982  1.3338 -0.0822  0.2616
17859SOL     OW60626  12.236   8.289  11.350  0.3118  0.1770 -0.7074
17859SOL    HW160627  12.258   8.325  11.436  1.7140 -2.5008  0.1732
17859SOL    HW260628  12.318   8.291  11.301 -0.2522  0.7586 -1.6685
17860SOL     OW60629   0.586   3.475   2.803  0.4335  0.2510  0.4007
17860SOL    HW160630   0.493   3.482   2.825  0.0973 -0.7236 -0.6092
17860SOL    HW260631   0.619   3.565   2.807 -1.0844  0.9466 -1.4666
17861SOL     OW60632   8.416   8.538   0.707  0.2957  0.1546  0.3492
17861SOL    HW160633   8.369   8.574   0.631 -1.6602 -0.4148  1.2121
17861SOL    HW260634   8.484   8.482   0.670  1.6720  2.5586 -0.9877
17862SOL     OW60635  12.432   7.297   0.503 -0.2490 -0.0489  0.8563
17862SOL    HW160636  12.337   7.298   0.500 -0.2808 -0.1646  1.6434
17862SOL    HW260637  12.456   7.207   0.478 -0.3473 -0.0246  0.6768
17863SOL     OW60638  10.210   0.792   5.563 -0.6483  0.2492 -0.5669
17863SOL    HW160639  10.275   0.763   5.499  0.1973  1.9360 -0.5342
17863SOL    HW260640  10.193   0.883   5.539 -1.4343  0.4563  0.7148
17864SOL     OW60641   5.102   0.616   4.498 -0.1563  0.3335  0.5872
17864SOL    HW160642   5.097   0.708   4.524 -1.9141 -0.0553  1.8450
17864SOL    HW260643   5.042   0.610   4.423  2.2464  0.7508 -1.4843
17865SOL     OW60644  10.010   3.733   2.009  0.1188 -0.7624 -0.3571
17865SOL    HW160645   9.942   3.794   1.981  0.0210 -0.4188  0.6014
17865SOL    HW260646   9.966   3.648   2.014 -0.4548 -0.4174  0.9719
17866SOL     OW60647   1.878   3.214   5.391 -0.1191 -0.2156 -0.3232
17866SOL    HW160648   1.864   3.126   5.426 -1.1478 -0.7994 -2.1079
17866SOL    HW260649   1.954   3.205   5.334 -1.0751 -0.3054 -1.6170
17867SOL     OW60650  12.028  10.050   1.289 -0.3805  0.1167 -0.5491
17867SOL    HW160651  12.030  10.124   1.350 -1.4620  0.5613 -1.0204
17867SOL    HW260652  12.070   9.979   1.337  1.2943  1.1988 -0.3255
17868SOL     OW60653   1.737   7.835   5.241 -0.5155  0.3743  0.2300
17868SOL    HW160654   1.665   7.772   5.242 -0.0057 -0.2525 -0.7213
17868SOL    HW260655   1.776   7.830   5.328 -1.5665  0.6638  0.7297
17869SOL     OW60656   4.046   3.081   8.616 -0.1966  0.1057 -0.0171
17869SOL    HW160657   4.111   3.073   8.686  1.8854 -2.0657 -2.0287
17869SOL    HW260658   3.974   3.024   8.644  0.9533 -1.3685  0.0698
17870SOL     OW60659   2.817   1.930   9.522  0.3696 -0.2139  0.8392
17870SOL    HW160660   2.794   1.877   9.446 -0.6870 -0.8831  1.6016
17870SOL    HW260661   2.738   1.931   9.576  0.1048  2.6470  0.5817
17871SOL     OW60662   5.518  12.020   5.529 -0.0721 -0.6262  0.3220
17871SOL    HW160663   5.447  11.970   5.570 -0.8627  1.6018  1.8696
17871SOL    HW260664   5.491  12.031   5.439 -0.7326 -1.4220  0.4073
17872SOL     OW60665  11.439   6.812   4.756 -0.2767 -0.0279  0.0804
17872SOL    HW160666  11.393   6.837   4.676  1.7252 -0.1437 -1.1816
17872SOL    HW260667  11.412   6.876   4.821 -1.6621  0.2910 -0.7797
17873SOL     OW60668   3.027  11.315  10.150  0.8695  0.0153 -0.4847
17873SOL    HW160669   3.050  11.345  10.237  0.9342 -0.3213 -0.3834
17873SOL    HW260670   3.098  11.256  10.125  0.5090 -0.4349 -0.4773
17874SOL     OW60671   1.052   4.131   9.126  0.5093 -0.3048 -0.4808
17874SOL    HW160672   1.032   4.218   9.091 -1.0794 -0.9825 -1.3680
17874SOL    HW260673   0.968   4.085   9.126  0.7511 -0.9766  2.6083
17875SOL     OW60674   1.257   4.560   8.665  0.3484 -0.4025  0.1508
17875SOL    HW160675   1.177   4.556   8.717 -0.7126 -0.2499 -1.4049
17875SOL    HW260676   1.258   4.649   8.630  1.1812 -0.4208  0.1078
17876SOL     OW60677  11.297   1.810   0.110  0.2987  0.1170  0.0849
17876SOL    HW160678  11.381   1.797   0.154  0.1913  0.1712  0.3060
17876SOL    HW260679  11.258   1.884   0.156  0.2937  0.3311 -0.2595
17877SOL     OW60680  10.424  11.994   3.089 -0.5391  0.2686  0.1477
17877SOL    HW160681  10.426  12.059   3.018 -2.7294  0.3881  0.1311
17877SOL    HW260682  10.512  11.998   3.127  0.2703  1.1693 -1.6900
17878SOL     OW60683   3.212   0.231   2.161  0.0224 -0.2666  0.4587
17878SOL    HW160684   3.239   0.166   2.097  1.6039 -0.2965  1.0926
17878SOL    HW260685   3.183   0.180   2.237 -0.4622 -0.2335  0.2952
17879SOL     OW60686  12.285   1.230   0.276  0.4601  0.0058 -0.1843
17879SOL    HW160687  12.313   1.164   0.213  2.1320  1.6098 -1.2395
17879SOL    HW260688  12.205   1.195   0.314  0.9182 -2.2927 -1.1664
17880SOL     OW60689  11.222   0.858   4.592 -0.4523 -0.0707  0.1846
17880SOL    HW160690  11.285   0.907   4.644 -0.6982  2.7621 -1.9313
17880SOL    HW260691  11.267   0.777   4.568  1.7358  1.1043  0.1421
17881SOL     OW60692   0.556   3.121  10.865 -0.1217  0.0532 -0.3195
17881SOL    HW160693   0.521   3.045  10.911 -1.0881  0.8217  0.2730
17881SOL    HW260694   0.533   3.105  10.773  0.3900 -0.7288 -0.3238
17882SOL     OW60695   3.392   3.382   4.199 -0.4109 -0.6705 -0.1354
17882SOL    HW160696   3.469   3.327   4.201  0.1541  0.0889 -0.3508
17882SOL    HW260697   3.339   3.354   4.274 -0.1035 -1.4315 -0.1956
17883SOL     OW60698   4.419   5.007   3.893 -0.7258  0.1067 -0.4313
17883SOL    HW160699   4.436   4.935   3.833 -1.0630  0.5643 -1.0874
17883SOL    HW260700   4.496   5.063   3.886  0.2700 -0.9659  1.2674
17884SOL     OW60701   9.613   5.439   7.661 -0.2215  0.2927  0.1226
17884SOL    HW160702   9.628   5.390   7.580 -0.7238  1.0420 -0.4301
17884SOL    HW260703   9.543   5.500   7.640 -1.3787 -0.4815  1.5484
17885SOL     OW60704   6.377  10.939   6.341 -0.6518 -0.6472 -0.1247
17885SOL    HW160705   6.452  10.992   6.368 -0.4931 -0.3394 -1.1333
17885SOL    HW260706   6.322  10.932   6.420  1.2665 -2.3579  1.1569
17886SOL     OW60707   8.500   1.880   6.206 -0.0523 -0.4089  0.4108
17886SOL    HW160708   8.447   1.920   6.137  0.4459 -0.8725 -0.2559
17886SOL    HW260709   8.463   1.793   6.219  1.5352 -1.4113 -1.2745
17887SOL     OW60710   7.803   2.078   5.572  0.0109  0.4659  0.4099
17887SOL    HW160711   7.889   2.036   5.581  0.1729  1.1196  2.1632
17887SOL    HW260712   7.819   2.171   5.592 -0.9342  0.7894 -0.2395
17888SOL     OW60713   0.129   3.289  10.536 -0.2304  0.2044  0.0400
17888SOL    HW160714   0.172   3.284  10.451  0.5769  1.3709  0.3627
17888SOL    HW260715   0.039   3.316  10.516  0.1543  1.1821 -0.3962
17889SOL     OW60716  12.369   8.117   4.001  0.2099  0.0616  0.1520
17889SOL    HW160717  12.340   8.191   3.947  1.3427  1.3733  1.2578
17889SOL    HW260718  12.309   8.118   4.075 -0.1392 -0.5227 -0.1161
17890SOL     OW60719  12.016   9.300   6.061  0.0167 -0.0574  0.6863
17890SOL    HW160720  12.079   9.227   6.061  1.0668  0.8071  1.6320
17890SOL    HW260721  11.958   9.282   5.987  2.5376  0.0983 -1.4530
17891SOL     OW60722   9.179   7.681   3.560 -0.0703  0.0069  0.2673
17891SOL    HW160723   9.150   7.603   3.607 -0.2781  0.3810  0.7642
17891SOL    HW260724   9.099   7.731   3.544  0.0445  0.0591 -0.1694
17892SOL     OW60725  10.351  10.988   0.655 -0.1462 -0.2647 -0.2651
17892SOL    HW160726  10.314  10.918   0.709 -1.1517 -0.4004 -1.1076
17892SOL    HW260727  10.314  11.068   0.692  0.1576 -0.2552  0.0243
17893SOL     OW60728   2.973   5.366  11.815  0.0497  0.0569  0.3239
17893SOL    HW160729   2.915   5.370  11.892  0.5497  1.2848  0.6539
17893SOL    HW260730   2.957   5.279  11.778 -0.7177 -0.2875  1.4115
17894SOL     OW60731   4.847  10.916   5.381  0.4014  0.0957 -0.4121
17894SOL    HW160732   4.870  10.958   5.464  0.2095 -0.2606 -0.1732
17894SOL    HW260733   4.867  10.981   5.314 -0.8000  0.9273  0.0110
17895SOL     OW60734  12.167  12.444  10.023  0.2488  0.5571  0.4932
17895SOL    HW160735  12.161  12.361   9.975  0.4391  1.2953 -0.8553
17895SOL    HW260736  12.188  12.418  10.113 -2.3083 -1.0008  0.7455
17896SOL     OW60737   3.709   1.788   4.828 -0.8063  0.0427  0.0563
17896SOL    HW160738   3.748   1.841   4.758  0.5048 -1.3066 -0.2847
17896SOL    HW260739   3.616   1.784   4.806 -0.5457  0.2892 -1.1670
17897SOL     OW60740  10.941   2.302  11.448 -0.3373  0.4684  0.3052
17897SOL    HW160741  10.860   2.332  11.407  0.2729  1.6280 -0.0842
17897SOL    HW260742  10.927   2.314  11.542 -1.2429 -0.9609  0.3815
17898SOL     OW60743   7.613  12.461   2.744 -0.2196  0.2281  0.2278
17898SOL    HW160744   7.572  12.400   2.806  1.3140 -0.0074  1.0718
17898SOL    HW260745   7.666  12.405   2.687  0.5056  0.6829  0.4430
17899SOL     OW60746  11.877   7.851  10.332 -0.1459 -0.1680  0.3490
17899SOL    HW160747  11.858   7.759  10.316 -1.4853  0.0512  0.5587
17899SOL    HW260748  11.822   7.898  10.269  0.0685  0.4939  0.6507
17900SOL     OW60749   6.630   9.088   4.022 -0.3492 -0.3749 -0.0036
17900SOL    HW160750   6.583   9.159   3.978 -0.0929  1.5764  2.6119
17900SOL    HW260751   6.719   9.121   4.032 -0.3583 -0.7678  1.7184
17901SOL     OW60752   4.213   4.979   8.545  0.6425 -0.0327 -0.4930
17901SOL    HW160753   4.174   4.907   8.596  0.6124 -0.1969 -0.7450
17901SOL    HW260754   4.259   5.032   8.610  1.1945 -0.6302 -0.3899
17902SOL     OW60755   4.104  12.550   4.013 -0.4013  0.1803 -0.4208
17902SOL    HW160756   4.079  12.590   4.097  0.8077 -0.5790  0.3286
17902SOL    HW260757   4.035  12.487   3.995 -0.0072 -0.6170  0.7197
17903SOL     OW60758   3.800  10.619   2.528 -0.5901  0.0658  0.6343
17903SOL    HW160759   3.843  10.612   2.443 -0.5607 -0.1403  0.6635
17903SOL    HW260760   3.852  10.684   2.576  0.4366 -1.0408  1.0974
17904SOL     OW60761   4.295  10.924  11.915  0.2482  0.4495  0.5443
17904SOL    HW160762   4.390  10.913  11.924  0.2400 -0.3051 -0.2087
17904SOL    HW260763   4.282  10.946  11.823 -0.3229  0.4260  0.6180
17905SOL     OW60764  12.333   2.622   6.047  0.6788 -0.0025 -0.4421
17905SOL    HW160765  12.241   2.601   6.038  0.5661  0.4015 -0.2441
17905SOL    HW260766  12.370   2.549   6.096  0.5821 -0.4441 -1.0245
17906SOL     OW60767   4.836   5.456   1.717 -0.0911  0.6758  0.1398
17906SOL    HW160768   4.864   5.525   1.777  0.1955  1.3823 -0.7858
17906SOL    HW260769   4.743   5.471   1.703 -0.2494  0.2601  0.7208
17907SOL     OW60770   6.869   6.852   2.920 -0.0327  0.6897  0.3960
17907SOL    HW160771   6.811   6.892   2.985  0.0575  0.6673  0.4907
17907SOL    HW260772   6.902   6.925   2.869 -2.3903  0.4919 -1.5468
17908SOL     OW60773  12.371   5.248  10.263  0.5224  0.1892 -0.0569
17908SOL    HW160774  12.429   5.323  10.254  0.7449  0.1045  0.6166
17908SOL    HW260775  12.297   5.281  10.315  0.7312 -0.1062  0.4422
17909SOL     OW60776   8.343   7.527   2.473 -0.1997 -0.4643 -0.0694
17909SOL    HW160777   8.430   7.491   2.458  0.6904  1.1314  1.0090
17909SOL    HW260778   8.336   7.535   2.568 -1.1645  0.2685 -0.1850
17910SOL     OW60779  10.002   3.904   7.899  0.5990 -0.2597 -0.0829
17910SOL    HW160780  10.000   3.999   7.896  3.2171 -0.1419 -0.0824
17910SOL    HW260781  10.078   3.879   7.847  1.2742 -2.2103  1.6680
17911SOL     OW60782   0.335   4.541  12.318  0.0840 -0.1104 -0.4663
17911SOL    HW160783   0.340   4.544  12.414 -2.6265 -2.0638 -0.1550
17911SOL    HW260784   0.409   4.486  12.292  0.9751  0.6076  0.4459
17912SOL     OW60785   4.139   9.617   4.191  0.5113  0.7922  0.0038
17912SOL    HW160786   4.166   9.545   4.133 -1.4296  0.6642 -0.8219
17912SOL    HW260787   4.212   9.679   4.187  0.6403  0.6007 -2.2780
17913SOL     OW60788   2.839  12.283   8.650  0.3436 -0.2996 -0.0973
17913SOL    HW160789   2.855  12.266   8.557  2.0072 -1.8748  0.4075
17913SOL    HW260790   2.902  12.227   8.695 -0.6289  0.2035  1.9991
17914SOL     OW60791   8.704   3.046  10.600 -0.6091  0.2471  0.1517
17914SOL    HW160792   8.783   2.994  10.605  0.9966  2.4864 -0.4154
17914SOL    HW260793   8.688   3.074  10.690 -2.4043 -2.3317  0.7612
17915SOL     OW60794   8.184  11.806   2.100 -0.4123 -0.3503  0.7655
17915SOL    HW160795   8.214  11.725   2.139 -0.8294  0.3941  2.7580
17915SOL    HW260796   8.201  11.873   2.167  1.0796  1.4381 -1.2659
17916SOL     OW60797   2.163  10.535   4.641  0.8210  0.3674 -0.1090
17916SOL    HW160798   2.136  10.596   4.573  1.9790 -0.1643 -1.0644
17916SOL    HW260799   2.245  10.497   4.610  0.8952 -0.5912  1.1418
17917SOL     OW60800   1.186  11.362   9.490 -0.0733 -0.4934  0.1746
17917SOL    HW160801   1.216  11.419   9.420 -1.6789  0.2145  0.0207
17917SOL    HW260802   1.091  11.374   9.493 -0.2260 -1.6348  1.4848
17918SOL     OW60803   1.430   9.117   0.651  0.4654  0.5730 -0.8522
17918SOL    HW160804   1.451   9.068   0.571  1.5858 -1.1711  0.4179
17918SOL    HW260805   1.514   9.124   0.697 -0.0211  2.1767 -0.1325
17919SOL     OW60806   2.391   1.933   1.346 -0.5852 -0.2342 -0.2813
17919SOL    HW160807   2.350   2.018   1.363 -0.2598 -0.1287 -0.0144
17919SOL    HW260808   2.450   1.950   1.272  0.2159  0.0113  0.3990
17920SOL     OW60809  10.328   6.511   8.284 -0.4019 -0.0527 -0.5440
17920SOL    HW160810  10.277   6.497   8.204  0.1279 -0.6469 -0.7846
17920SOL    HW260811  10.270   6.564   8.340 -1.4689 -1.0976 -0.6209
17921SOL     OW60812  10.562  10.985   8.507 -0.0043  0.0442 -0.3673
17921SOL    HW160813  10.544  10.928   8.582 -0.4835  1.2470  0.4711
17921SOL    HW260814  10.476  10.998   8.466  0.3411 -1.0852 -1.5175
17922SOL     OW60815   8.083  10.329   3.008  0.0048  0.2068  0.3511
17922SOL    HW160816   8.054  10.266   3.074  1.4072  1.2465  2.0566
17922SOL    HW260817   8.020  10.319   2.936 -0.9599 -1.7220  1.3774
17923SOL     OW60818   1.782  11.694  11.454 -0.4703 -0.6472 -0.5782
17923SOL    HW160819   1.814  11.748  11.381 -0.3540  0.7494  0.4756
17923SOL    HW260820   1.840  11.618  11.454  0.7103  0.2106 -0.8318
17924SOL     OW60821   4.728   4.475  11.422 -0.3181  0.0981  0.0245
17924SOL    HW160822   4.734   4.546  11.358  0.5733  1.0855  1.1581
17924SOL    HW260823   4.727   4.519  11.507  0.8938 -1.2556  0.7892
17925SOL     OW60824   0.665   7.950   1.092 -0.3097  0.3880 -0.0059
17925SOL    HW160825   0.717   7.960   1.172  0.6432 -1.4707 -0.3139
17925SOL    HW260826   0.730   7.926   1.025 -1.3622 -0.3769 -0.7817
17926SOL     OW60827   7.301   1.942   4.923 -0.5744  0.0618  0.2672
17926SOL    HW160828   7.373   1.986   4.968 -0.2233 -0.1818 -0.0549
17926SOL    HW260829   7.329   1.851   4.915  0.7346  0.6256 -3.1182
17927SOL     OW60830   1.408  10.679   5.684  0.1862  0.1194  0.2431
17927SOL    HW160831   1.448  10.665   5.598 -0.3917 -2.4977  0.3307
17927SOL    HW260832   1.314  10.675   5.667  0.0703 -1.5955  1.1262
17928SOL     OW60833   2.091   1.282   1.921  0.5218  0.5307  0.5389
17928SOL    HW160834   2.077   1.246   1.833 -0.4964 -0.4442  1.0893
17928SOL    HW260835   2.004   1.286   1.960  1.2215 -1.9305  2.6086
17929SOL     OW60836   7.073   8.804   4.803  0.4782  0.0666  0.2306
17929SOL    HW160837   6.996   8.783   4.750  0.7925  2.1366 -1.1280
17929SOL    HW260838   7.136   8.735   4.783 -0.4977 -0.8759  0.3071
17930SOL     OW60839   2.192   6.607   7.032  0.2595  0.5229 -0.0828
17930SOL    HW160840   2.173   6.700   7.047 -0.0983  0.6514 -1.2198
17930SOL    HW260841   2.112   6.572   6.994 -0.2731 -0.7150  2.0682
17931SOL     OW60842   7.799   5.470   3.548 -0.1527 -0.8189 -0.2979
17931SOL    HW160843   7.869   5.425   3.596 -0.5844 -0.4663  0.7001
17931SOL    HW260844   7.729   5.405   3.541 -0.9024 -0.2661  1.4256
17932SOL     OW60845   2.333  12.546   2.597  0.3587  0.5116 -0.4016
17932SOL    HW160846   2.369  12.492   2.667  0.5030  1.3865  0.2162
17932SOL    HW260847   2.403  12.608   2.576 -0.7016  2.1895  0.7576
17933SOL     OW60848   1.110   9.423   2.266 -0.2187 -0.3276  0.3608
17933SOL    HW160849   1.078   9.384   2.347  0.1021 -0.4823  0.4175
17933SOL    HW260850   1.205   9.419   2.274 -0.1646  1.0439  0.6400
17934SOL     OW60851   9.881   4.857  11.349  0.3600 -0.3363  0.0748
17934SOL    HW160852   9.959   4.816  11.313  1.2287  2.2845 -1.3034
17934SOL    HW260853   9.863   4.930  11.290 -3.1637 -0.7937  0.3481
17935SOL     OW60854   7.436  11.649   3.945 -0.4689 -0.1236  0.5077
17935SOL    HW160855   7.437  11.744   3.943 -1.8257 -0.0834  0.9238
17935SOL    HW260856   7.406  11.627   4.033  0.0610 -0.9442  0.4965
17936SOL     OW60857   4.421  10.258   8.407 -0.3458 -0.3930  0.4562
17936SOL    HW160858   4.381  10.300   8.330 -0.2168 -0.7059  0.2211
17936SOL    HW260859   4.488  10.320   8.435 -0.0752 -0.4911  0.0354
17937SOL     OW60860  10.217   9.146   5.246  0.6352 -0.2234 -0.4908
17937SOL    HW160861  10.138   9.143   5.192 -1.1772 -0.2665  2.0105
17937SOL    HW260862  10.212   9.231   5.291  0.5966 -1.2562  1.5878
17938SOL     OW60863   8.868   9.958  12.146 -0.2137 -0.1154  0.5434
17938SOL    HW160864   8.791   9.991  12.192 -1.1393 -0.5593 -0.6489
17938SOL    HW260865   8.926   9.928  12.216 -1.8392 -1.3714  1.4404
17939SOL     OW60866   9.308   5.958  11.342 -0.0065 -0.0653  0.1666
17939SOL    HW160867   9.318   5.871  11.379  0.4880  0.8806  2.4050
17939SOL    HW260868   9.244   5.947  11.271  0.5741 -2.3318 -0.0500
17940SOL     OW60869   3.779   2.068   1.640 -0.6391 -0.0711  0.0370
17940SOL    HW160870   3.712   2.110   1.586  0.5885  2.4716  0.3200
17940SOL    HW260871   3.856   2.065   1.584 -0.0230  0.3840  0.8418
17941SOL     OW60872   6.427   0.234  10.584 -0.0496 -0.2843 -0.0417
17941SOL    HW160873   6.493   0.268  10.523  1.0424  0.9981  1.7265
17941SOL    HW260874   6.459   0.262  10.670 -0.2938 -3.9014  1.4017
17942SOL     OW60875   5.666   1.126   9.838  0.8725 -0.1779  0.2711
17942SOL    HW160876   5.669   1.132   9.933  0.3210  1.0440  0.2357
17942SOL    HW260877   5.665   1.217   9.808 -0.5455 -0.5111 -0.8311
17943SOL     OW60878   7.581   5.917   6.435 -0.0832  0.6234 -0.1521
17943SOL    HW160879   7.651   5.851   6.441 -1.3957 -0.9964 -1.5506
17943SOL    HW260880   7.573   5.951   6.524 -0.4608 -2.3711  1.0945
17944SOL     OW60881   4.011   5.515   2.918  0.1214  0.5728 -0.1966
17944SOL    HW160882   4.060   5.579   2.971 -0.5037 -2.1089  4.1215
17944SOL    HW260883   4.061   5.434   2.927 -1.9114 -0.8214 -0.8046
17945SOL     OW60884   1.588  12.196   4.740 -0.3858 -0.0592  0.2080
17945SOL    HW160885   1.598  12.155   4.825 -0.8378 -0.7791 -0.0757
17945SOL    HW260886   1.509  12.157   4.703 -0.7710  0.9820 -0.1275
17946SOL     OW60887   7.647   2.383   0.687  0.1153 -0.4293  0.0199
17946SOL    HW160888   7.742   2.370   0.679  0.0763 -0.3740 -0.6547
17946SOL    HW260889   7.617   2.308   0.738  0.4085 -0.9582 -0.5583
17947SOL     OW60890   3.253  10.653   7.426 -0.4650 -0.6641 -0.2741
17947SOL    HW160891   3.248  10.606   7.510  0.5046 -1.3750 -0.5954
17947SOL    HW260892   3.207  10.736   7.442  2.0586  0.4535  1.8087
17948SOL     OW60893   3.651   1.337   2.897 -0.1767  0.0864  0.3771
17948SOL    HW160894   3.673   1.429   2.911 -0.3814  0.0680  0.8411
17948SOL    HW260895   3.670   1.321   2.805 -0.9845  0.8298  0.0672
17949SOL     OW60896   1.468  10.949   6.838  0.2820 -0.1745  1.0973
17949SOL    HW160897   1.395  10.952   6.775  1.3406 -0.2698 -0.1708
17949SOL    HW260898   1.436  10.894   6.909 -0.5981 -0.8838  0.1807
17950SOL     OW60899   0.170  11.962  11.225  0.1373 -0.5841  0.4074
17950SOL    HW160900   0.077  11.948  11.242  0.3494 -0.0282  2.2069
17950SOL    HW260901   0.186  12.053  11.249  1.3924 -1.0186  1.3548
17951SOL     OW60902   3.792   6.879   3.635 -0.3259  0.0918  0.2565
17951SOL    HW160903   3.844   6.865   3.556 -0.2601 -1.6396  0.5732
17951SOL    HW260904   3.846   6.844   3.706 -0.7647  0.8082  0.9635
17952SOL     OW60905  11.436   4.838   3.161 -0.0875  0.3236 -0.0343
17952SOL    HW160906  11.510   4.778   3.149 -1.4716 -1.3316 -0.6961
17952SOL    HW260907  11.407   4.859   3.073 -1.3198 -0.2503  0.2161
17953SOL     OW60908  10.354   8.449   5.242 -0.9958  0.5083  0.1368
17953SOL    HW160909  10.416   8.379   5.262 -0.0619  1.2150 -0.2111
17953SOL    HW260910  10.328   8.483   5.328  0.6648  1.5272  0.2725
17954SOL     OW60911   1.802   7.041   0.546  0.3784 -0.0001  0.3990
17954SOL    HW160912   1.758   6.962   0.513  0.5957  0.1672 -0.3101
17954SOL    HW260913   1.731   7.096   0.579 -0.0745  0.6475 -1.5300
17955SOL     OW60914   9.604   4.554   1.379 -0.1830 -0.1787 -0.6811
17955SOL    HW160915   9.566   4.469   1.358 -2.3727  1.1163 -2.5387
17955SOL    HW260916   9.696   4.546   1.356  0.5687 -2.9951  2.4854
17956SOL     OW60917   5.028  12.207   8.214  0.8895 -0.2586  0.0303
17956SOL    HW160918   4.960  12.155   8.256  0.0871  2.1632  1.9079
17956SOL    HW260919   4.988  12.237   8.132  0.2787 -0.1699  0.3557
17957SOL     OW60920  10.377  10.533   9.082 -0.0289 -0.3552  0.3623
17957SOL    HW160921  10.332  10.512   9.164  0.8514  0.7139  1.1443
17957SOL    HW260922  10.372  10.628   9.076  1.4513 -0.2808  0.0734
17958SOL     OW60923   0.631   8.247   6.475  0.5372 -0.4315 -0.0963
17958SOL    HW160924   0.583   8.173   6.439  0.6440 -0.6381  0.1881
17958SOL    HW260925   0.641   8.227   6.568 -0.2224  0.3533  0.1716
17959SOL     OW60926   8.821   5.234   2.516  0.4570  0.0835 -0.2970
17959SOL    HW160927   8.811   5.298   2.446  0.6479  1.4435  0.8660
17959SOL    HW260928   8.851   5.154   2.472 -0.4793  0.5557 -1.8780
17960SOL     OW60929   0.506   9.322   4.111 -0.2440 -0.1058  0.1375
17960SOL    HW160930   0.504   9.364   4.197 -0.0546 -0.6566  0.4155
17960SOL    HW260931   0.417   9.290   4.097  0.4208 -2.8479  1.5700
17961SOL     OW60932   9.735   4.028   7.390 -0.0035  0.2002 -0.2082
17961SOL    HW160933   9.811   3.969   7.394 -0.6097 -0.5170  1.6038
17961SOL    HW260934   9.774   4.116   7.384  0.9527 -0.2042 -0.1739
17962SOL     OW60935   4.890   9.894   9.125  0.0313 -0.4918  0.9687
17962SOL    HW160936   4.982   9.871   9.136 -0.0571 -1.1026  0.4904
17962SOL    HW260937   4.846   9.810   9.110 -0.5014 -0.1326  0.5053
17963SOL     OW60938   6.225   4.238   5.131  0.7599  0.1632  0.0670
17963SOL    HW160939   6.218   4.159   5.077 -0.8651  0.4842 -0.2490
17963SOL    HW260940   6.260   4.207   5.215  1.9869 -0.5651 -0.6878
17964SOL     OW60941   3.047   0.315   6.657 -0.0723 -0.9508 -0.6279
17964SOL    HW160942   3.019   0.406   6.663 -0.8219 -1.1490 -1.0662
17964SOL    HW260943   3.123   0.310   6.715  0.7593  0.2560 -1.5664
17965SOL     OW60944   4.108   9.550   4.832  0.2620 -0.7054 -0.1718
17965SOL    HW160945   4.182   9.496   4.858  0.8674  0.2204  0.0852
17965SOL    HW260946   4.060   9.496   4.769  2.8926 -0.2315 -2.8459
17966SOL     OW60947   5.634   0.527   7.110 -0.0231 -0.2597  0.1620
17966SOL    HW160948   5.591   0.593   7.165 -0.2057  0.5099 -0.8625
17966SOL    HW260949   5.579   0.449   7.119 -0.4791  0.0896  0.4838
17967SOL     OW60950   2.512  11.155  10.778 -0.1526  0.3003 -0.2228
17967SOL    HW160951   2.551  11.119  10.698  1.8326  0.8158  0.4529
17967SOL    HW260952   2.519  11.249  10.768 -0.9066  0.4030  0.1068
17968SOL     OW60953  11.730   0.501   5.533 -0.2480  0.2411  0.3150
17968SOL    HW160954  11.777   0.424   5.564 -0.0538 -0.0562 -0.6801
17968SOL    HW260955  11.731   0.493   5.438 -1.0223  1.0034  0.2303
17969SOL     OW60956   5.754   4.554   6.608 -0.1536 -0.1951  0.2454
17969SOL    HW160957   5.679   4.528   6.554 -0.8746 -2.0449  2.0400
17969SOL    HW260958   5.808   4.475   6.613  1.4265  0.8101 -0.1355
17970SOL     OW60959  10.169   6.211   6.129 -0.1989  0.2602  0.3883
17970SOL    HW160960  10.152   6.179   6.217  1.0175 -3.3245 -0.4921
17970SOL    HW260961  10.101   6.169   6.075  1.9711 -1.7926 -0.9671
17971SOL     OW60962   3.653   3.861   1.470  0.2571  0.1748  0.2141
17971SOL    HW160963   3.625   3.803   1.399  3.2462 -3.0448  1.3311
17971SOL    HW260964   3.572   3.894   1.508 -1.5350 -0.8735 -2.4047
17972SOL     OW60965   8.664   1.587   2.989  0.2454 -0.0515  0.5389
17972SOL    HW160966   8.633   1.666   2.944 -1.0527 -1.0315 -0.3622
17972SOL    HW260967   8.741   1.616   3.039  0.0070  1.6913 -0.0475
17973SOL     OW60968   9.700  11.279  11.484  0.1408 -0.0022  0.1708
17973SOL    HW160969   9.740  11.224  11.416  1.1275  0.0158  0.7084
17973SOL    HW260970   9.757  11.356  11.488  0.1044 -0.0123  1.0225
17974SOL     OW60971   3.759  10.850   4.532  0.7345 -0.4189  0.1210
17974SOL    HW160972   3.681  10.802   4.502  0.6315 -1.5481  2.0088
17974SOL    HW260973   3.741  10.941   4.510  0.3470 -1.0211 -2.4160
17975SOL     OW60974   0.964   7.988   0.401 -0.3234 -0.4454 -0.3432
17975SOL    HW160975   0.938   8.058   0.461  0.1121  0.4221 -1.1341
17975SOL    HW260976   1.038   7.945   0.444 -0.9280 -0.7615  0.3864
17976SOL     OW60977   9.253   2.614   4.506  0.8829 -0.2456  0.3236
17976SOL    HW160978   9.214   2.621   4.593 -1.0267  0.3784 -0.5379
17976SOL    HW260979   9.289   2.701   4.488 -0.0132  0.0573 -0.0664
17977SOL     OW60980   8.452   4.276   3.486 -0.0558 -0.4574  0.1870
17977SOL    HW160981   8.540   4.242   3.469 -0.2132 -1.4815  1.2511
17977SOL    HW260982   8.424   4.314   3.403  0.8073 -1.4584 -0.5879
17978SOL     OW60983   8.506   3.351  11.180 -0.0918 -0.0423 -0.0045
17978SOL    HW160984   8.469   3.319  11.262 -1.0047  0.4322 -0.2201
17978SOL    HW260985   8.596   3.317  11.179  1.0954  2.5792  2.7089
17979SOL     OW60986   3.656   0.178   0.192 -0.1902 -0.3924 -0.0183
17979SOL    HW160987   3.641   0.120   0.118 -1.4893 -0.5634  0.3439
17979SOL    HW260988   3.677   0.263   0.153 -0.3282 -0.6163 -0.5796
17980SOL     OW60989   9.933  11.065   3.024 -0.2649 -0.0931 -0.1411
17980SOL    HW160990   9.925  11.112   3.107  2.5406  1.1560 -0.4601
17980SOL    HW260991  10.005  11.003   3.039  0.2255  0.0990 -1.6032
17981SOL     OW60992  12.368   6.592   3.100 -0.6575  0.1253  0.2180
17981SOL    HW160993  12.422   6.527   3.145  0.1875  0.2160 -0.6296
17981SOL    HW260994  12.426   6.630   3.034 -1.5508  0.7401 -0.2376
17982SOL     OW60995   1.861   7.720   3.130 -0.4518 -0.0035 -0.4093
17982SOL    HW160996   1.952   7.717   3.101 -0.7552  0.4458 -1.4526
17982SOL    HW260997   1.867   7.722   3.226  0.7339  1.9828 -0.4495
17983SOL     OW60998   1.512   9.341   5.750 -0.4838  0.7008 -0.4675
17983SOL    HW160999   1.451   9.328   5.823 -0.4968  0.0319 -0.5898
17983SOL    HW261000   1.538   9.432   5.757 -1.2370  0.9033 -0.2096
17984SOL     OW61001   6.942   2.615   7.144  0.1262 -0.4932 -0.2081
17984SOL    HW161002   6.958   2.585   7.233  0.9192 -0.1545 -0.2340
17984SOL    HW261003   6.860   2.664   7.150 -0.2574 -1.1649  0.1686
17985SOL     OW61004   8.582   3.536   3.116 -0.2452  0.3272 -0.2183
17985SOL    HW161005   8.661   3.574   3.156  1.8884 -0.2088 -3.5611
17985SOL    HW261006   8.614   3.460   3.067 -2.9257 -0.1077 -1.4681
17986SOL     OW61007   8.405   4.602   9.557 -0.2653  0.0431  0.4722
17986SOL    HW161008   8.382   4.532   9.496 -3.2322  1.5728 -0.3758
17986SOL    HW261009   8.408   4.560   9.643 -0.5752 -1.3569 -0.1737
17987SOL     OW61010   2.730   2.588   9.007 -0.7700  0.5269 -0.6031
17987SOL    HW161011   2.653   2.548   8.967 -1.0800 -1.8166  1.9707
17987SOL    HW261012   2.720   2.682   8.994 -4.4992  0.3782  0.2878
17988SOL     OW61013   3.461   6.805  12.051  0.0946  0.3298 -0.1657
17988SOL    HW161014   3.554   6.785  12.043 -0.0573 -0.0955 -1.0617
17988SOL    HW261015   3.455   6.865  12.125  1.2612  1.5622 -1.0258
17989SOL     OW61016  12.140   9.425   4.747  0.1632 -0.1726 -0.2849
17989SOL    HW161017  12.209   9.447   4.810 -1.2809  0.1883  1.2578
17989SOL    HW261018  12.133   9.503   4.692  0.1935  0.2708  0.3221
17990SOL     OW61019   9.577   4.842   6.447 -0.2421  0.5782 -0.3061
17990SOL    HW161020   9.535   4.757   6.462 -1.3903  1.0812 -0.4966
17990SOL    HW261021   9.633   4.855   6.523 -0.3802 -0.1585 -0.0625
17991SOL     OW61022   4.477   4.994  11.718  0.2468  0.5359 -0.0712
17991SOL    HW161023   4.465   4.900  11.707  1.3175  0.2801  0.8230
17991SOL    HW261024   4.410   5.020  11.781  0.0602  0.3473 -0.1929
17992SOL     OW61025   3.000  10.354  10.855  0.2614  0.1950  0.6123
17992SOL    HW161026   2.964  10.334  10.768  2.4344 -1.5518  0.0154
17992SOL    HW261027   3.035  10.271  10.886  1.7911  1.3143  2.0455
17993SOL     OW61028   7.124  10.931   7.397 -0.0626  0.5346 -0.2952
17993SOL    HW161029   7.092  10.885   7.320 -2.8383  0.0759  0.9768
17993SOL    HW261030   7.154  10.862   7.456  0.0217  0.7014 -0.1415
17994SOL     OW61031  12.504  11.371   9.004  0.0543  0.1985 -0.0443
17994SOL    HW161032  12.583  11.319   8.989  0.5407  1.1423 -0.9083
17994SOL    HW261033  12.487  11.413   8.920 -0.8567  0.7153  0.3850
17995SOL     OW61034   7.835   0.350   2.870  0.0849  0.1579 -0.1602
17995SOL    HW161035   7.747   0.320   2.894  0.3393 -0.4880 -0.0184
17995SOL    HW261036   7.882   0.270   2.846  0.6908  0.4774 -0.0634
17996SOL     OW61037   8.047   4.102   3.746  0.3129  0.0035  0.2039
17996SOL    HW161038   8.101   4.180   3.732 -0.2735  0.1520 -1.4356
17996SOL    HW261039   7.969   4.116   3.694 -0.6173 -0.9230  1.2832
17997SOL     OW61040   2.336   1.285   7.348  0.0501  0.3054 -0.8306
17997SOL    HW161041   2.413   1.232   7.371 -1.8304 -2.0820  0.4237
17997SOL    HW261042   2.318   1.263   7.257 -0.6112 -1.2009 -0.3726
17998SOL     OW61043   8.985   8.443  11.902 -0.7581 -0.1219 -0.5725
17998SOL    HW161044   9.051   8.485  11.956 -1.9443 -0.6350  1.3565
17998SOL    HW261045   8.922   8.513  11.882 -1.2853 -0.3278  0.3102
17999SOL     OW61046   6.711   4.744   3.474 -0.0827 -0.1671  0.1712
17999SOL    HW161047   6.729   4.669   3.531 -0.2702  0.3627  0.9289
17999SOL    HW261048   6.661   4.805   3.528  2.3427  1.7224  0.4598
18000SOL     OW61049   8.606   7.360   2.921 -0.3091 -0.0446  0.2343
18000SOL    HW161050   8.645   7.289   2.972 -1.4542 -0.9202 -0.0896
18000SOL    HW261051   8.678   7.391   2.865  0.5607 -0.0421  1.3154
18001SOL     OW61052  12.431  10.781   1.994  0.5943 -0.1409  0.0478
18001SOL    HW161053  12.354  10.809   2.043  1.0869  0.1198  0.6869
18001SOL    HW261054  12.411  10.804   1.903  1.0824  2.6639  0.5415
18002SOL     OW61055   1.775   8.558  10.143 -0.5476  0.7266  0.2224
18002SOL    HW161056   1.689   8.582  10.107 -1.3681  0.4844  1.9064
18002SOL    HW261057   1.769   8.463  10.156  0.3115  0.5724 -0.4536
18003SOL     OW61058   3.697   0.378   7.621  0.0341 -0.1818  0.5212
18003SOL    HW161059   3.721   0.441   7.553  1.4782 -1.2600 -0.0203
18003SOL    HW261060   3.749   0.404   7.697  1.3461 -1.1916  0.0225
18004SOL     OW61061   8.687   2.950   1.681  0.6365  0.1600  0.6609
18004SOL    HW161062   8.703   2.885   1.749  0.9972 -1.0445 -0.5174
18004SOL    HW261063   8.741   2.920   1.607 -1.4458  0.1277 -0.9266
18005SOL     OW61064   7.964   7.599   8.681 -0.2807 -0.0959 -0.3449
18005SOL    HW161065   7.927   7.580   8.596  1.6684 -0.3137 -1.2045
18005SOL    HW261066   8.047   7.550   8.683 -0.8920 -1.1714  2.2110
18006SOL     OW61067   4.485   5.889   6.729 -0.0597  0.8533  0.1438
18006SOL    HW161068   4.552   5.853   6.788  1.0822  1.4683 -0.7476
18006SOL    HW261069   4.496   5.984   6.736 -1.4894  1.0040  0.6939
18007SOL     OW61070   3.338   6.890   4.240 -0.4542 -0.6216  0.1535
18007SOL    HW161071   3.275   6.958   4.264 -1.5711 -1.7287  0.4518
18007SOL    HW261072   3.351   6.840   4.320  0.9110 -0.3499  0.1239
18008SOL     OW61073   5.493   0.781   3.923 -0.1586  0.4048  0.3585
18008SOL    HW161074   5.449   0.793   3.839  0.2065 -1.0303 -0.0576
18008SOL    HW261075   5.424   0.796   3.988 -0.7326  0.3372 -0.2253
18009SOL     OW61076   4.464   2.894   0.454 -0.1982 -0.1689  0.4150
18009SOL    HW161077   4.528   2.953   0.493  0.0104 -0.0030 -0.1636
18009SOL    HW261078   4.379   2.932   0.477 -0.0977 -0.4761  1.3201
18010SOL     OW61079  12.160   6.123   4.895 -0.3904  0.1301 -0.2510
18010SOL    HW161080  12.217   6.199   4.885 -1.5365  0.8628 -1.6154
18010SOL    HW261081  12.180   6.089   4.982  1.4400  0.9015 -0.3276
18011SOL     OW61082   1.325   7.372  10.758 -0.5098  0.0954  0.0385
18011SOL    HW161083   1.328   7.432  10.833  0.5287  0.7042 -0.4669
18011SOL    HW261084   1.275   7.297  10.790  0.4663  0.0521  1.5633
18012SOL     OW61085   4.929   0.636   9.037 -0.8013  0.0407  0.0490
18012SOL    HW161086   4.989   0.566   9.010 -2.2017 -1.6021  0.9957
18012SOL    HW261087   4.917   0.688   8.957  1.5149  0.2210 -0.2737
18013SOL     OW61088   5.030   6.983   8.934  0.1025 -0.5351 -0.3542
18013SOL    HW161089   5.033   6.904   8.881  0.3947 -2.8430  2.8093
18013SOL    HW261090   5.119   6.994   8.967 -0.6635 -1.0435  2.0593
18014SOL     OW61091   6.431  10.835  11.589 -0.0505 -0.0142 -0.1355
18014SOL    HW161092   6.516  10.871  11.614 -0.1463  0.1250 -0.0105
18014SOL    HW261093   6.412  10.769  11.656 -0.4601  0.5922  0.3504
18015SOL     OW61094   4.262  12.050   1.347  0.4142 -0.0931  0.1792
18015SOL    HW161095   4.281  12.010   1.262 -1.8006  2.9958 -1.9743
18015SOL    HW261096   4.321  12.125   1.352  0.1704  0.0437  1.1605
18016SOL     OW61097   8.114   6.455   3.858 -0.2122  0.3135 -0.3036
18016SOL    HW161098   8.188   6.396   3.840 -0.6935 -0.0104 -1.2415
18016SOL    HW261099   8.150   6.520   3.919  0.4644 -0.6541  0.3567
18017SOL     OW61100  11.368   4.009   2.601  0.0492 -0.1494 -0.0168
18017SOL    HW161101  11.355   3.960   2.683 -0.6660  0.8120  0.4586
18017SOL    HW261102  11.280   4.031   2.572  0.3590  1.7970  0.3718
18018SOL     OW61103   3.409   2.998   4.209  0.1414 -0.5238 -0.4865
18018SOL    HW161104   3.503   3.002   4.230 -0.1589 -0.7413  1.0272
18018SOL    HW261105   3.366   3.000   4.294 -1.2355 -0.6115 -1.1610
18019SOL     OW61106  11.872   7.791   8.683  0.2445 -0.0340 -0.4528
18019SOL    HW161107  11.822   7.854   8.735  1.6395  0.2631  0.6010
18019SOL    HW261108  11.827   7.708   8.696  0.0370  0.2153  0.5097
18020SOL     OW61109   3.519   5.942   3.705  0.1460 -0.6659  0.2231
18020SOL    HW161110   3.499   5.893   3.626 -0.6407  0.7337 -0.4889
18020SOL    HW261111   3.517   6.034   3.678  0.4324 -0.1739  1.7406
18021SOL     OW61112   9.493   1.615   5.451  0.0564 -0.2376  0.2474
18021SOL    HW161113   9.402   1.639   5.429  0.7760  1.0975 -1.5819
18021SOL    HW261114   9.498   1.624   5.546 -1.8307 -0.7634  0.4346
18022SOL     OW61115   4.694   1.742   0.098 -0.5641  0.1309 -0.2941
18022SOL    HW161116   4.703   1.824   0.049 -1.5074  0.5375  0.1939
18022SOL    HW261117   4.612   1.751   0.146 -1.1892 -1.4981 -0.9707
18023SOL     OW61118   4.528   1.345   6.441  0.2137  0.2124 -0.0623
18023SOL    HW161119   4.585   1.346   6.364 -0.4568 -0.3776 -0.5816
18023SOL    HW261120   4.584   1.314   6.512  0.4336 -0.8072 -0.6667
18024SOL     OW61121   4.029   2.801   1.331  0.7695 -0.1582  0.1272
18024SOL    HW161122   4.085   2.851   1.390  2.9547 -3.8325  1.4744
18024SOL    HW261123   3.948   2.788   1.380  1.3768 -0.5331  1.0504
18025SOL     OW61124   8.696   2.343   5.535 -0.7203  0.3332 -0.5694
18025SOL    HW161125   8.727   2.281   5.469 -0.0891 -3.3328  2.7679
18025SOL    HW261126   8.775   2.387   5.566 -0.4287 -0.6722  0.1771
18026SOL     OW61127   2.762  10.972   0.251 -0.4532 -0.1812 -0.1283
18026SOL    HW161128   2.754  10.880   0.274  1.2704 -0.6779 -1.3727
18026SOL    HW261129   2.681  11.012   0.284 -0.9710 -2.0020  0.9389
18027SOL     OW61130  10.883   0.057   0.878 -0.7250 -0.3127 -0.7569
18027SOL    HW161131  10.959   0.098   0.836 -0.8097 -0.1271 -0.7273
18027SOL    HW261132  10.812   0.120   0.867 -0.2902  0.6694  1.3973
18028SOL     OW61133   8.938  11.042   3.005 -0.2650 -0.0912  0.1776
18028SOL    HW161134   8.843  11.036   3.017 -0.3139 -0.3710 -0.3000
18028SOL    HW261135   8.955  10.990   2.926  0.1491  0.7823 -0.3252
18029SOL     OW61136   0.936   5.362   2.689 -0.2282 -0.0873 -0.3395
18029SOL    HW161137   1.014   5.395   2.643  0.7477 -0.5456  0.9465
18029SOL    HW261138   0.905   5.291   2.633 -0.1967  0.6018 -1.2644
18030SOL     OW61139   6.182  11.374   8.604 -0.3328  0.4760 -0.2249
18030SOL    HW161140   6.134  11.369   8.687  0.9771 -0.6297  0.5186
18030SOL    HW261141   6.211  11.465   8.600  0.4232  0.3292  1.0688
18031SOL     OW61142   1.264   9.395   3.773  0.1554 -0.2065  0.4989
18031SOL    HW161143   1.195   9.429   3.830 -0.5772  1.3085 -1.2189
18031SOL    HW261144   1.344   9.437   3.805 -0.2651  0.7061  0.3849
18032SOL     OW61145   0.820  11.063  12.125 -0.6520 -0.2383 -0.2828
18032SOL    HW161146   0.802  11.045  12.218 -0.4076  0.9261  0.0008
18032SOL    HW261147   0.808  11.157  12.116 -1.1967 -0.4112 -1.5708
18033SOL     OW61148   6.325   3.722   1.199 -0.1133 -0.1023  0.4099
18033SOL    HW161149   6.385   3.759   1.265  0.1686 -0.5480  0.4064
18033SOL    HW261150   6.327   3.628   1.215 -1.3374 -0.0732  0.8371
18034SOL     OW61151   8.263   0.672   7.760 -0.4398 -0.3197 -0.3575
18034SOL    HW161152   8.259   0.764   7.735 -0.8427  0.0404  0.9242
18034SOL    HW261153   8.283   0.674   7.854 -0.0866 -1.5515 -0.3883
18035SOL     OW61154   0.114   9.728   2.633 -0.1930  0.4150 -0.6339
18035SOL    HW161155   0.165   9.787   2.688  1.8606 -2.8541  1.3158
18035SOL    HW261156   0.178   9.694   2.570 -1.1392 -0.1797 -1.2877
18036SOL     OW61157   0.556  11.049   9.935  0.1405 -0.4770  0.0111
18036SOL    HW161158   0.618  11.048   9.861  1.0366 -0.5953  0.7444
18036SOL    HW261159   0.598  10.993  10.001 -0.2785  0.2558  0.9064
18037SOL     OW61160   1.669   0.794   5.256 -0.5349  0.6864  0.1841
18037SOL    HW161161   1.663   0.733   5.330  1.1447  0.0556 -0.1571
18037SOL    HW261162   1.578   0.807   5.228 -0.9388 -2.2540 -0.1717
18038SOL     OW61163   8.455  10.189   6.653 -0.1134  0.1220  0.4430
18038SOL    HW161164   8.372  10.233   6.631  0.5906  1.1332 -0.3009
18038SOL    HW261165   8.503  10.186   6.570  0.1784 -1.4145  0.6452
18039SOL     OW61166   0.443  11.124  12.277 -0.5541 -0.1426 -0.0680
18039SOL    HW161167   0.488  11.173  12.346  0.8887 -0.7035 -0.5702
18039SOL    HW261168   0.374  11.182  12.247 -0.7264  0.4105  1.3203
18040SOL     OW61169   9.677   8.512   7.226 -0.7385  0.2492 -0.3857
18040SOL    HW161170   9.715   8.426   7.244 -1.0869  0.4835  1.6819
18040SOL    HW261171   9.733   8.573   7.273 -1.8513  0.9011  0.1310
18041SOL     OW61172   8.971   2.620   1.930 -0.1626  0.0762 -0.3963
18041SOL    HW161173   8.937   2.530   1.923 -0.0515  0.0808 -1.0198
18041SOL    HW261174   9.056   2.616   1.888  0.2625  0.2605  0.4239
18042SOL     OW61175  11.707   3.944   5.922  0.3501 -0.4919  0.6546
18042SOL    HW161176  11.697   3.919   6.013  2.5122 -1.9962  0.5355
18042SOL    HW261177  11.798   3.973   5.914 -0.2383  1.1792 -0.6984
18043SOL     OW61178   8.330  12.282  10.486  0.2888 -0.2025  0.6127
18043SOL    HW161179   8.253  12.250  10.533 -0.8112  1.1506 -0.1782
18043SOL    HW261180   8.381  12.329  10.552 -0.8900  1.0820  0.6599
18044SOL     OW61181  12.417   9.582  11.983 -0.3044 -0.3498  0.1956
18044SOL    HW161182  12.322   9.578  11.985 -0.3315  0.0355 -0.1464
18044SOL    HW261183  12.445   9.493  11.961 -0.6002 -0.3589 -0.1386
18045SOL     OW61184   2.875   4.073  10.553 -0.6797  0.4105  0.2035
18045SOL    HW161185   2.862   3.979  10.559 -1.3133  0.2485 -2.5799
18045SOL    HW261186   2.962   4.083  10.513 -0.9344  0.9807 -0.2233
18046SOL     OW61187   2.784   9.216   7.312  0.1732  0.0058  0.5316
18046SOL    HW161188   2.748   9.236   7.399  0.8372 -0.2502  0.8794
18046SOL    HW261189   2.823   9.130   7.322  0.0761 -0.1087 -0.0863
18047SOL     OW61190  11.118   1.614   2.690 -0.0605 -0.6932 -0.1259
18047SOL    HW161191  11.117   1.595   2.784 -0.2689  0.8871  0.2322
18047SOL    HW261192  11.207   1.593   2.662  0.8823  1.3697  1.0613
18048SOL     OW61193   8.862   1.962   4.106 -0.3286  0.2436  0.0817
18048SOL    HW161194   8.862   1.966   4.011  0.6465  2.3270  0.1053
18048SOL    HW261195   8.788   2.016   4.133 -2.1338 -2.3122  0.5518
18049SOL     OW61196   9.747   8.951   1.063  0.4645 -0.0657 -0.2629
18049SOL    HW161197   9.823   8.951   1.121  0.9623 -0.0814 -0.9007
18049SOL    HW261198   9.691   8.881   1.096 -1.5763  2.8422  3.1442
18050SOL     OW61199   1.531   8.502  11.891 -0.0031  0.5313 -0.8445
18050SOL    HW161200   1.517   8.574  11.952 -1.1352 -0.2137 -0.1869
18050SOL    HW261201   1.614   8.463  11.918 -1.4099 -1.0546  1.6228
18051SOL     OW61202   5.733   4.243   7.384 -0.1125  0.3721  0.5962
18051SOL    HW161203   5.756   4.335   7.376 -0.7273  0.5697  1.0150
18051SOL    HW261204   5.652   4.243   7.435 -1.5389 -0.2327 -1.5372
18052SOL     OW61205   1.011   2.736  10.294  0.3188  0.5384  0.0006
18052SOL    HW161206   0.999   2.764  10.203 -0.9848  0.2811  0.0655
18052SOL    HW261207   1.037   2.644  10.288  0.7987  0.6813 -0.1238
18053SOL     OW61208   5.443   1.956  12.134  0.4626  0.8816 -0.0603
18053SOL    HW161209   5.478   1.919  12.052  1.8663 -0.9132  1.2716
18053SOL    HW261210   5.401   1.881  12.177 -1.4091  2.0888  0.3425
18054SOL     OW61211   1.293   6.167   1.317 -0.0228  0.5904 -0.4159
18054SOL    HW161212   1.263   6.258   1.323 -2.3254  0.1246 -2.8354
18054SOL    HW261213   1.213   6.116   1.307  1.2619 -1.6540  0.0376
18055SOL     OW61214   2.103   2.709   0.542  0.4724 -0.6179  0.1863
18055SOL    HW161215   2.116   2.775   0.610  1.7214 -0.2667 -0.3704
18055SOL    HW261216   2.143   2.747   0.464 -0.2319 -1.3584 -0.5513
18056SOL     OW61217   0.481   0.273   6.031  0.7449  0.0251 -0.5286
18056SOL    HW161218   0.438   0.330   6.096  1.1332  1.1401 -1.2149
18056SOL    HW261219   0.568   0.311   6.021  0.7141 -0.1866 -1.6486
18057SOL     OW61220   9.518  11.587   5.121 -0.3587  0.1215 -0.5727
18057SOL    HW161221   9.423  11.579   5.126 -0.3499 -0.7418 -1.4356
18057SOL    HW261222   9.546  11.601   5.212 -1.3083  0.4429 -0.3213
18058SOL     OW61223  11.168   1.068   8.894 -0.3648 -0.0646  0.0802
18058SOL    HW161224  11.170   1.011   8.971 -1.9857  0.6042  0.6570
18058SOL    HW261225  11.180   1.156   8.930 -1.7109  0.3148 -0.3408
18059SOL     OW61226   8.546   7.641   3.342 -0.3880  0.2991 -0.6745
18059SOL    HW161227   8.579   7.557   3.310  2.3757  0.2975  1.7060
18059SOL    HW261228   8.459   7.623   3.375 -0.9148 -0.9721 -2.6379
18060SOL     OW61229   1.464   5.406  11.594 -0.1978 -0.3620  0.5875
18060SOL    HW161230   1.506   5.476  11.645  0.9135 -1.1917  0.8649
18060SOL    HW261231   1.519   5.329  11.611  0.4368 -0.6038 -2.1065
18061SOL     OW61232   7.157   4.700  11.116  0.3040  0.4184 -0.2946
18061SOL    HW161233   7.101   4.694  11.038  0.3121 -0.6353 -0.2337
18061SOL    HW261234   7.187   4.791  11.117 -1.2218  0.9515 -0.4499
18062SOL     OW61235   0.485  11.153   0.574 -0.5384  0.3114 -0.3096
18062SOL    HW161236   0.537  11.125   0.499 -0.5990 -0.6115 -0.0141
18062SOL    HW261237   0.397  11.122   0.556 -0.2536 -1.2885  0.8292
18063SOL     OW61238   8.558   9.051   9.913 -0.3544 -0.2297  0.1865
18063SOL    HW161239   8.613   8.987   9.958 -0.0035  0.7185  1.1444
18063SOL    HW261240   8.513   9.099   9.983 -2.0434 -0.6473 -0.5625
18064SOL     OW61241   0.027   1.653   3.749 -0.5590  0.2778  0.4973
18064SOL    HW161242  -0.004   1.571   3.710 -0.4226 -1.1571  3.0945
18064SOL    HW261243   0.111   1.670   3.708 -1.1720 -0.1762 -0.9849
18065SOL     OW61244   2.008   3.564  10.962 -0.4533  0.8130 -0.2562
18065SOL    HW161245   2.024   3.658  10.949  0.8073  0.8024  0.9067
18065SOL    HW261246   1.950   3.539  10.890 -1.6974  2.7070  0.0043
18066SOL     OW61247   6.304   6.489   8.928  0.6330 -0.2321  0.1493
18066SOL    HW161248   6.337   6.469   8.840 -0.4699  2.5228 -1.0349
18066SOL    HW261249   6.209   6.483   8.919  0.5391 -0.8965  1.4640
18067SOL     OW61250   7.829   0.938   0.813  0.4504 -0.2320  0.3204
18067SOL    HW161251   7.756   0.999   0.820  0.1706 -0.3581 -1.1046
18067SOL    HW261252   7.857   0.923   0.903 -0.1280  1.1997  0.7649
18068SOL     OW61253   0.331   6.497   6.966  0.5480  0.2665 -0.1934
18068SOL    HW161254   0.316   6.504   7.060 -0.7347 -0.1401 -0.3484
18068SOL    HW261255   0.294   6.413   6.941 -1.1098  1.2916 -1.4075
18069SOL     OW61256   3.743   3.197  11.744  0.2781  0.5162 -0.4255
18069SOL    HW161257   3.751   3.121  11.687  0.7754 -0.0940  0.4281
18069SOL    HW261258   3.651   3.196  11.773  0.2579  0.2981 -0.4951
18070SOL     OW61259  11.063  11.639   5.103 -0.3874 -0.1361  0.0798
18070SOL    HW161260  10.994  11.665   5.163 -0.3705  0.0161  0.0319
18070SOL    HW261261  11.024  11.569   5.051 -0.2714 -0.5514  0.5426
18071SOL     OW61262  10.005   8.551   7.471  0.3562  0.0594  0.0757
18071SOL    HW161263  10.018   8.461   7.441 -0.5294 -0.0066 -0.1527
18071SOL    HW261264  10.028   8.549   7.564  1.2122 -0.1901 -0.1317
18072SOL     OW61265   3.721   2.535   6.968  0.1915  0.0295  0.0578
18072SOL    HW161266   3.766   2.451   6.968  0.7766  0.2962  1.6612
18072SOL    HW261267   3.775   2.592   6.912  1.1275 -0.0321  0.8701
18073SOL     OW61268   2.628   9.808   3.055  0.1345 -0.0141  0.1238
18073SOL    HW161269   2.571   9.742   3.016 -0.6432 -0.3056  1.6778
18073SOL    HW261270   2.652   9.771   3.140  0.4504  1.2984  0.6294
18074SOL     OW61271   6.948   8.921   8.159  0.4494  0.1988 -0.0625
18074SOL    HW161272   7.021   8.918   8.097  2.4297  0.5125  2.0759
18074SOL    HW261273   6.938   9.014   8.179  2.5948 -0.0540  2.9124
18075SOL     OW61274   4.878   5.857   4.338 -0.3638  0.7411 -0.3289
18075SOL    HW161275   4.835   5.793   4.395  1.5605  0.5335  0.9777
18075SOL    HW261276   4.815   5.929   4.331 -1.0418  0.3627  1.3149
18076SOL     OW61277   9.950   8.040   3.657 -0.4311 -0.7208  0.6975
18076SOL    HW161278   9.912   8.126   3.673 -1.3664 -0.9980  0.0576
18076SOL    HW261279   9.874   7.982   3.648  0.1476 -1.3370 -0.3581
18077SOL     OW61280   7.853  11.775   3.327 -0.3498 -0.3175  0.1796
18077SOL    HW161281   7.901  11.836   3.383 -0.4786 -0.0797  0.0298
18077SOL    HW261282   7.848  11.695   3.379  0.8205 -0.5748 -0.0777
18078SOL     OW61283   8.995   0.996   3.086  0.3432 -0.4247 -0.1609
18078SOL    HW161284   9.008   1.014   2.993 -1.4198 -0.7723 -0.5026
18078SOL    HW261285   9.026   0.906   3.098 -2.6658 -1.7182 -1.2316
18079SOL     OW61286   7.387   5.057   2.198 -0.0356 -0.4379 -0.3329
18079SOL    HW161287   7.301   5.018   2.189 -0.0986 -0.5776  0.7027
18079SOL    HW261288   7.439   4.991   2.245  0.9019 -0.7206 -1.7044
18080SOL     OW61289  12.488   5.305   5.871  0.9564  0.3234 -0.0465
18080SOL    HW161290  12.395   5.323   5.883  0.8195 -0.2145 -0.2985
18080SOL    HW261291  12.499   5.214   5.898  1.5506  0.5989  0.6944
18081SOL     OW61292   5.627   8.574   6.494  0.5165  0.8640  0.0357
18081SOL    HW161293   5.584   8.584   6.410 -0.6334  0.5093  0.5632
18081SOL    HW261294   5.716   8.609   6.480  0.6002  0.0964 -1.5136
18082SOL     OW61295   9.025   1.300   4.679  0.0855  0.4794  0.7324
18082SOL    HW161296   8.973   1.237   4.728 -0.3541  0.5045  0.3104
18082SOL    HW261297   8.983   1.384   4.695 -1.1436  0.2574 -1.0689
18083SOL     OW61298   4.592  10.943  11.672 -0.4730 -0.2270 -0.2462
18083SOL    HW161299   4.498  10.958  11.670 -0.8810 -1.4462  2.9896
18083SOL    HW261300   4.602  10.848  11.665  0.4195 -0.2028  0.4189
18084SOL     OW61301  11.851   4.288  12.302 -0.4048  0.2145  0.2499
18084SOL    HW161302  11.866   4.268  12.210  2.1077  0.8624  0.4518
18084SOL    HW261303  11.844   4.384  12.305 -1.5350  0.1358  0.6299
18085SOL     OW61304   8.190   1.542   4.258 -0.0940  0.0465  0.1676
18085SOL    HW161305   8.205   1.467   4.315  0.8517 -0.5237 -0.7770
18085SOL    HW261306   8.118   1.515   4.202  0.7835 -0.5377 -0.7306
18086SOL     OW61307   4.742   8.604   1.377 -0.2137  0.3767  0.0846
18086SOL    HW161308   4.803   8.535   1.404 -1.9317 -0.7522  1.3041
18086SOL    HW261309   4.732   8.591   1.282 -1.0923 -1.6083  0.4004
18087SOL     OW61310   6.808   7.229   4.946 -0.2203 -0.0352  0.1130
18087SOL    HW161311   6.822   7.178   5.025  0.2598 -0.3335 -0.1606
18087SOL    HW261312   6.714   7.248   4.945 -0.0651  0.9542  1.3555
18088SOL     OW61313   7.561  11.641   3.611 -0.0689  0.6973 -0.4194
18088SOL    HW161314   7.492  11.589   3.650 -0.1247  0.6186 -0.6234
18088SOL    HW261315   7.517  11.720   3.579  0.0293  0.9109 -0.0351
18089SOL     OW61316  10.009   6.273  12.433  0.7452 -0.2044 -0.2541
18089SOL    HW161317  10.020   6.178  12.429  1.1316 -0.1369 -1.3300
18089SOL    HW261318  10.025   6.302  12.343 -1.8377  0.6082 -0.5506
18090SOL     OW61319   7.873  11.664   7.004  0.0018 -0.0681 -0.0362
18090SOL    HW161320   7.937  11.734   7.010 -0.7489  0.5965  0.4425
18090SOL    HW261321   7.804  11.700   6.948 -1.2718  0.3095  1.6977
18091SOL     OW61322   5.324   3.095   1.720  0.2105 -0.1932 -0.5508
18091SOL    HW161323   5.405   3.140   1.696  1.1568  0.7042  3.4943
18091SOL    HW261324   5.327   3.091   1.816 -3.6678 -1.8542 -0.3225
18092SOL     OW61325   8.339   2.615   6.747  0.5560  0.3186  0.1519
18092SOL    HW161326   8.395   2.559   6.802  0.3705  0.7736  0.8145
18092SOL    HW261327   8.399   2.653   6.682  0.7397 -0.3866 -0.0971
18093SOL     OW61328   7.170   9.421  11.532 -0.4989 -0.2433 -0.1551
18093SOL    HW161329   7.215   9.385  11.456 -1.5141 -2.0225  0.0143
18093SOL    HW261330   7.237   9.429  11.599  0.1424  0.0696 -0.8256
18094SOL     OW61331   6.670   1.577   3.802 -0.1364  0.6898 -0.4454
18094SOL    HW161332   6.737   1.576   3.870  0.1060 -2.5085 -0.5561
18094SOL    HW261333   6.608   1.644   3.830  0.7585  0.5698  2.1238
18095SOL     OW61334   1.538   3.527   9.102 -0.1241  0.0189 -0.0760
18095SOL    HW161335   1.538   3.558   9.192 -1.2101 -0.8473  0.2386
18095SOL    HW261336   1.456   3.559   9.065 -0.3230 -0.7720 -0.3474
18096SOL     OW61337   2.928   7.625   2.664  0.2828  0.1950 -0.0638
18096SOL    HW161338   2.995   7.606   2.599 -1.8983 -2.8294 -1.6946
18096SOL    HW261339   2.941   7.560   2.733 -1.0211 -0.6176 -0.5338
18097SOL     OW61340   5.145   3.511  11.652  0.4430  0.5499 -0.7137
18097SOL    HW161341   5.147   3.476  11.742 -0.2520  0.7612 -0.6066
18097SOL    HW261342   5.061   3.557  11.647  0.7375  1.0299 -1.2935
18098SOL     OW61343   3.513   1.920  11.700  0.6001  0.3006 -0.0627
18098SOL    HW161344   3.590   1.976  11.710  0.0128  1.2150 -0.5359
18098SOL    HW261345   3.507   1.872  11.783 -0.0367  2.4162  1.1779
18099SOL     OW61346   7.751   1.185   5.026  0.1405 -0.4216 -0.4049
18099SOL    HW161347   7.792   1.243   4.962 -0.4190  0.8205  0.3215
18099SOL    HW261348   7.672   1.232   5.054  0.1867 -1.0865  0.9257
18100SOL     OW61349  11.966   4.915  10.420 -0.0835  0.1139 -0.8489
18100SOL    HW161350  11.983   4.869  10.502 -2.2347  0.1982 -0.3099
18100SOL    HW261351  12.053   4.927  10.382  0.8254 -1.4508  0.5702
18101SOL     OW61352   3.990  10.570  12.284 -0.4350 -0.0558  0.0954
18101SOL    HW161353   4.019  10.528  12.203 -2.9225 -0.5066 -0.6625
18101SOL    HW261354   4.001  10.503  12.351  0.7634 -0.0025 -0.0311
18102SOL     OW61355   1.267   0.821   5.767 -0.1134 -0.6138  0.0088
18102SOL    HW161356   1.254   0.896   5.709  2.3012 -0.3130 -0.2143
18102SOL    HW261357   1.215   0.842   5.845 -0.5436  0.6550 -0.5999
18103SOL     OW61358   6.906  12.334   0.738 -0.2671 -0.1362 -0.0513
18103SOL    HW161359   6.826  12.324   0.789  0.4971 -2.0676  0.8604
18103SOL    HW261360   6.886  12.295   0.653 -0.1495 -1.1460  0.3703
18104SOL     OW61361  10.887   0.061  12.574 -0.4353 -0.0809 -0.5134
18104SOL    HW161362  10.968   0.062  12.625 -1.2496 -2.6341  1.0473
18104SOL    HW261363  10.916   0.043  12.485  0.7950  0.0097 -0.1610
18105SOL     OW61364   2.545   1.928   2.095 -0.0928 -0.3654  0.2487
18105SOL    HW161365   2.593   1.993   2.045 -1.7801 -0.1608 -1.1779
18105SOL    HW261366   2.522   1.861   2.031 -2.6883  0.1109  0.5884
18106SOL     OW61367   4.677   9.636   0.513 -0.2593 -0.1395 -0.4564
18106SOL    HW161368   4.703   9.543   0.510  2.2971  0.4661  0.2288
18106SOL    HW261369   4.683   9.664   0.422 -1.7081 -0.7737 -0.7721
18107SOL     OW61370   7.750  11.324  10.186  0.5741 -0.8107  0.6232
18107SOL    HW161371   7.791  11.257  10.131  2.5185  1.3760 -0.7800
18107SOL    HW261372   7.823  11.362  10.235  0.0625  2.0859 -0.6892
18108SOL     OW61373   0.361   6.736  10.517  0.1690  0.0512 -0.4569
18108SOL    HW161374   0.451   6.732  10.548  0.2704 -1.8941 -0.8651
18108SOL    HW261375   0.318   6.799  10.575  1.1183 -1.1016  1.5947
18109SOL     OW61376  10.801   6.846  11.323  0.1194 -0.1551  0.2327
18109SOL    HW161377  10.871   6.911  11.326 -0.0616  0.0279  0.5214
18109SOL    HW261378  10.836   6.775  11.269  0.5704 -0.1189  0.4747
18110SOL     OW61379   0.616   9.142   0.497  0.6400 -0.0468  0.0748
18110SOL    HW161380   0.631   9.212   0.434  1.2184  1.0820  1.4105
18110SOL    HW261381   0.695   9.142   0.552  0.3316 -1.2622  0.5549
18111SOL     OW61382   0.907   9.131   6.034  0.2458 -0.3628 -0.0042
18111SOL    HW161383   0.871   9.160   6.117  2.0337 -0.7271  0.9571
18111SOL    HW261384   0.834   9.134   5.972 -1.0377  0.1992  1.5087
18112SOL     OW61385   5.768   0.217   6.884  0.2296  0.1964  0.0049
18112SOL    HW161386   5.803   0.292   6.837  0.9742 -0.0743  0.1246
18112SOL    HW261387   5.844   0.165   6.907 -0.1758  0.0351  1.0226
18113SOL     OW61388   1.725  12.516   3.398 -0.2871  0.3061 -0.1968
18113SOL    HW161389   1.722  12.605   3.432  0.6411 -0.4008  1.9082
18113SOL    HW261390   1.668  12.465   3.457  1.8789 -1.0842  0.8441
18114SOL     OW61391   5.766   8.946   8.419 -0.6525  0.8332 -0.3647
18114SOL    HW161392   5.835   8.910   8.364 -0.0089  2.3132 -0.5597
18114SOL    HW261393   5.728   8.869   8.463  0.5944 -0.0826 -0.8387
18115SOL     OW61394   1.509   8.200   7.726  0.4030  0.4536  0.0465
18115SOL    HW161395   1.454   8.144   7.671  0.2803 -1.0534  1.6147
18115SOL    HW261396   1.568   8.244   7.664  0.7272 -1.6737 -1.2499
18116SOL     OW61397   8.327   7.669   7.847  0.0407  0.0835  0.3973
18116SOL    HW161398   8.321   7.743   7.787  1.7133 -0.1040 -0.0778
18116SOL    HW261399   8.333   7.708   7.934  0.8241  0.5153  0.1580
18117SOL     OW61400   9.444   3.454   8.319 -0.4464  0.4840  0.0204
18117SOL    HW161401   9.518   3.491   8.367  0.5707 -0.7400 -0.5505
18117SOL    HW261402   9.381   3.429   8.388  0.4671 -0.1429  0.6592
18118SOL     OW61403   9.488   5.085   6.784 -0.8801 -0.1185  0.3002
18118SOL    HW161404   9.396   5.101   6.766 -0.6854  0.1448 -0.5028
18118SOL    HW261405   9.489   5.043   6.870 -1.8439 -1.4981 -0.3369
18119SOL     OW61406   7.521   4.262   3.153 -0.3490 -0.0449 -0.4293
18119SOL    HW161407   7.604   4.261   3.104  0.6524  0.3094  1.1943
18119SOL    HW261408   7.454   4.280   3.086  0.4130 -3.4938 -2.3494
18120SOL     OW61409   5.414  10.779   8.817  0.3823  0.5797  0.6282
18120SOL    HW161410   5.467  10.846   8.859 -0.5859  1.5978  0.2832
18120SOL    HW261411   5.475  10.708   8.797  1.4451  1.3952  0.9070
18121SOL     OW61412   5.828  10.668  11.502  0.0769 -0.1573 -0.0854
18121SOL    HW161413   5.906  10.722  11.495 -1.1497  1.4399 -2.9146
18121SOL    HW261414   5.790  10.690  11.587 -0.6095  3.9782 -1.2662
18122SOL     OW61415   5.123   2.750   3.350 -0.1805 -0.3646  0.1162
18122SOL    HW161416   5.184   2.759   3.278  1.6321  0.5235  1.6756
18122SOL    HW261417   5.173   2.708   3.420 -1.1244  0.9360  1.6619
18123SOL     OW61418   5.917  10.407  12.202 -0.5607 -0.0309  0.4424
18123SOL    HW161419   5.824  10.429  12.198 -0.6118 -0.3551 -0.5251
18123SOL    HW261420   5.962  10.489  12.183 -0.7178 -0.3505 -1.5292
18124SOL     OW61421  10.965  12.086   2.631 -0.2300 -0.0691  0.4357
18124SOL    HW161422  10.953  12.175   2.597  0.1341 -0.1643  0.0504
18124SOL    HW261423  10.906  12.081   2.706  1.3865  1.2936  1.8974
18125SOL     OW61424   7.439  11.347  10.605 -0.4987  0.2032  0.2189
18125SOL    HW161425   7.453  11.257  10.576  3.2098  0.6477  0.1458
18125SOL    HW261426   7.491  11.400  10.545  4.3461  1.5010  4.7375
18126SOL     OW61427   7.825   9.335   3.062  0.2508 -0.2730  0.1883
18126SOL    HW161428   7.900   9.284   3.090 -0.0301 -0.4220  0.6848
18126SOL    HW261429   7.749   9.291   3.102 -0.2072 -0.7246 -1.1291
18127SOL     OW61430   2.466  11.326   2.512 -0.0835 -0.2067 -0.0795
18127SOL    HW161431   2.393  11.351   2.454 -0.6548  1.7938  1.4020
18127SOL    HW261432   2.428  11.261   2.571 -0.3847  0.0597  0.0249
18128SOL     OW61433   1.146   9.866   6.819 -0.1775  0.0456 -0.0150
18128SOL    HW161434   1.079   9.933   6.804  0.3732  0.9058  1.2059
18128SOL    HW261435   1.179   9.885   6.907  1.7248 -0.3038 -0.6124
18129SOL     OW61436   6.955   8.336   1.619  0.1837  0.0253 -0.0706
18129SOL    HW161437   6.910   8.285   1.686  1.0023  0.1889  0.6215
18129SOL    HW261438   6.968   8.422   1.659 -0.3643  0.4924 -0.8832
18130SOL     OW61439  10.002   1.642   4.141  0.2023 -0.0444 -0.3004
18130SOL    HW161440  10.020   1.550   4.122  1.0501  0.0589 -0.0321
18130SOL    HW261441   9.970   1.642   4.231 -1.6452 -0.2802 -0.9282
18131SOL     OW61442  12.333   9.460   0.426  0.0427 -0.2658  0.7822
18131SOL    HW161443  12.278   9.533   0.399  1.0578  0.1375 -0.3096
18131SOL    HW261444  12.423   9.494   0.422  0.4907 -1.3621  0.8962
18132SOL     OW61445   1.831   6.827   4.903  0.2344 -0.0519  0.3428
18132SOL    HW161446   1.879   6.903   4.935  1.5050 -1.2596  1.4348
18132SOL    HW261447   1.804   6.780   4.982  3.1030 -2.8909 -0.1325
18133SOL     OW61448   6.139   3.171   1.769 -0.5385  0.6252 -0.0500
18133SOL    HW161449   6.087   3.094   1.748  0.9454 -0.4826  0.1762
18133SOL    HW261450   6.082   3.224   1.825 -1.5705 -0.3017 -0.1835
18134SOL     OW61451   9.686   6.267   2.031  0.2920  0.1193  0.1218
18134SOL    HW161452   9.609   6.322   2.018  1.4085  1.6451 -0.3488
18134SOL    HW261453   9.724   6.258   1.944 -0.2162 -1.9952  0.0802
18135SOL     OW61454  12.571  10.635   5.177  0.2176 -0.2259  0.2992
18135SOL    HW161455  12.629  10.628   5.101  1.8343 -0.5515  1.4952
18135SOL    HW261456  12.483  10.621   5.142  0.8852 -0.0130 -1.5475
18136SOL     OW61457   7.281  11.638  10.509  0.4725  0.0602 -0.5518
18136SOL    HW161458   7.243  11.550  10.517 -1.4439  0.8151 -0.7437
18136SOL    HW261459   7.335  11.633  10.430  0.2037 -0.8925 -0.6919
18137SOL     OW61460  10.921   7.219   5.637  0.4088 -0.1189  0.2814
18137SOL    HW161461  10.861   7.157   5.679  1.5304 -0.9165  0.7453
18137SOL    HW261462  10.873   7.249   5.560 -0.4558 -1.0129  0.4407
18138SOL     OW61463   6.663  10.478   2.879  0.9385 -0.3416  0.6517
18138SOL    HW161464   6.586  10.533   2.876  1.2516  0.1662  1.5624
18138SOL    HW261465   6.733  10.535   2.912  1.3445 -1.1860  1.3003
18139SOL     OW61466   8.184  10.553   9.607 -0.3329 -1.1456 -0.3989
18139SOL    HW161467   8.142  10.636   9.628 -1.6683 -1.6802 -0.8821
18139SOL    HW261468   8.261  10.550   9.664 -1.2935 -0.4269  0.9843
18140SOL     OW61469   6.592   0.325   9.535 -0.1002 -0.2697 -0.7364
18140SOL    HW161470   6.681   0.303   9.562 -0.0048 -2.0252 -2.3028
18140SOL    HW261471   6.598   0.339   9.441 -1.4121  0.0595 -0.7962
18141SOL     OW61472   6.575   8.703  12.310 -0.4156  0.1118  0.1778
18141SOL    HW161473   6.628   8.675  12.384  0.0212  0.4937  0.0112
18141SOL    HW261474   6.500   8.747  12.349 -0.4966 -0.2288  0.4088
18142SOL     OW61475   5.771  11.762   1.442  1.0206  0.0377  0.8222
18142SOL    HW161476   5.715  11.736   1.515  2.4155 -0.0797  1.8919
18142SOL    HW261477   5.730  11.723   1.365  0.0596 -0.6705  1.6643
18143SOL     OW61478   3.979   7.817   7.739  0.1620 -0.5251 -0.5305
18143SOL    HW161479   4.022   7.863   7.811 -0.0133  0.1901 -0.8625
18143SOL    HW261480   3.891   7.857   7.735 -0.4299 -1.7427 -0.0598
18144SOL     OW61481   8.951   8.341   7.139  0.6402  0.0876  0.6665
18144SOL    HW161482   8.873   8.303   7.179 -1.0125  0.3992 -2.0677
18144SOL    HW261483   9.024   8.295   7.181 -1.1089 -3.3521  0.2904
18145SOL     OW61484   0.916   6.037   1.977  0.1966 -0.3106 -0.5090
18145SOL    HW161485   1.002   5.994   1.979  0.8001  0.8146 -0.8576
18145SOL    HW261486   0.879   6.021   2.064  1.1889 -0.0275 -0.0150
18146SOL     OW61487   8.958   8.081  11.054  0.9863 -0.0753  0.1096
18146SOL    HW161488   8.964   8.130  11.135  1.1175  0.6084 -0.3041
18146SOL    HW261489   8.901   8.007  11.074  0.6991  0.3075  0.7130
18147SOL     OW61490   5.089  10.243   6.698 -0.1872  0.1261 -0.1158
18147SOL    HW161491   5.010  10.286   6.730 -0.3351  1.0519 -1.5809
18147SOL    HW261492   5.076  10.238   6.603  1.2861 -0.1671 -0.3246
18148SOL     OW61493   8.508   4.378   5.281  0.2632  0.0717  0.0365
18148SOL    HW161494   8.489   4.472   5.272 -0.3486 -0.1230 -0.7672
18148SOL    HW261495   8.556   4.356   5.201 -3.4679 -1.2314 -2.0870
18149SOL     OW61496   7.741   6.066   0.960  0.6971  0.3141  0.0697
18149SOL    HW161497   7.811   6.057   1.024 -0.2753  2.1620  1.4925
18149SOL    HW261498   7.768   6.139   0.904 -0.2918  1.4180  0.9813
18150SOL     OW61499   6.606  11.599  11.673 -0.1240  0.0732 -0.1579
18150SOL    HW161500   6.571  11.639  11.593  0.7647 -0.6996 -0.9648
18150SOL    HW261501   6.559  11.642  11.744 -1.2776  0.4577 -1.1131
18151SOL     OW61502  11.226   6.979   9.059  0.0694  0.1192  0.6887
18151SOL    HW161503  11.193   6.917   9.124 -1.1831 -0.2024 -0.2151
18151SOL    HW261504  11.153   6.991   8.998  1.3979 -0.1101 -1.0422
18152SOL     OW61505   5.407   3.307   0.143  0.1401  0.0184  0.2421
18152SOL    HW161506   5.498   3.321   0.167  0.6129 -0.6651 -1.0702
18152SOL    HW261507   5.358   3.373   0.192  1.1960 -0.3651  1.8765
18153SOL     OW61508   9.429   3.241   5.533 -0.7366  0.3747  1.2320
18153SOL    HW161509   9.414   3.170   5.595  0.4035 -1.9575 -1.0194
18153SOL    HW261510   9.357   3.235   5.470  1.4958 -1.6310 -1.3592
18154SOL     OW61511   2.503  10.216   6.486  0.2591 -0.2987 -0.4098
18154SOL    HW161512   2.438  10.257   6.542  2.0557  1.6105  0.3956
18154SOL    HW261513   2.513  10.276   6.412  1.9740  0.0939  0.1067
18155SOL     OW61514   3.729   5.974  11.545 -0.4870 -0.5863 -0.0028
18155SOL    HW161515   3.811   5.989  11.592 -0.4149  0.7767 -0.5224
18155SOL    HW261516   3.661   5.995  11.610 -0.4001 -0.1051 -0.0613
18156SOL     OW61517   5.192   3.073  10.096 -0.5143  0.0309 -0.2873
18156SOL    HW161518   5.254   3.030  10.037  0.4529  1.5021 -0.4052
18156SOL    HW261519   5.178   3.009  10.166  1.0293 -0.4194 -0.3500
18157SOL     OW61520   3.888  11.230   9.177  0.1771  0.7249  0.0992
18157SOL    HW161521   3.900  11.139   9.205  1.7432  0.9855  0.3727
18157SOL    HW261522   3.855  11.275   9.254  0.7984  0.6622  0.4110
18158SOL     OW61523   3.816  10.102   0.914  0.1751 -0.0584 -0.2556
18158SOL    HW161524   3.883  10.113   0.847  0.3292  0.9585  0.0422
18158SOL    HW261525   3.757  10.035   0.878 -0.4235  1.2964 -1.9885
18159SOL     OW61526  10.334  11.325  11.859 -0.4746 -0.1417  0.2602
18159SOL    HW161527  10.375  11.383  11.795  0.3931  1.1781  1.9379
18159SOL    HW261528  10.334  11.375  11.941  0.2777 -2.4843  1.8030
18160SOL     OW61529   2.452   3.645  12.578 -0.4054 -0.9429  0.3255
18160SOL    HW161530   2.532   3.645  12.630  0.7924  1.3596 -1.3163
18160SOL    HW261531   2.472   3.590  12.502 -0.3090 -0.2775 -0.1413
18161SOL     OW61532   1.788   4.561   7.914 -0.0696 -0.2844  0.0886
18161SOL    HW161533   1.721   4.494   7.926  0.0491 -0.6333 -1.1225
18161SOL    HW261534   1.828   4.541   7.830 -0.7174  1.9115 -0.8012
18162SOL     OW61535   7.035  10.877   6.529 -0.0417 -0.2778  0.2041
18162SOL    HW161536   7.080  10.863   6.446 -0.2095 -0.4852  0.1455
18162SOL    HW261537   6.952  10.918   6.504 -0.6959 -1.5642  0.1282
18163SOL     OW61538   9.955  12.333   0.002 -0.4544 -0.2325  1.0700
18163SOL    HW161539   9.944  12.319  -0.092  0.1885 -0.5843  1.0480
18163SOL    HW261540  10.047  12.314   0.019  0.2261  2.8215  1.2479
18164SOL     OW61541   9.326  10.803   3.981 -0.4567  0.5771  0.4258
18164SOL    HW161542   9.303  10.850   3.901 -0.4192  0.6419  0.4528
18164SOL    HW261543   9.266  10.836   4.048  0.6304  1.8017  0.8446
18165SOL     OW61544   6.845  10.373   8.171 -0.0305 -1.1817 -0.1970
18165SOL    HW161545   6.904  10.439   8.135 -0.5564 -0.2175  0.6634
18165SOL    HW261546   6.789  10.349   8.097  0.3124 -0.8210 -0.5787
18166SOL     OW61547   3.410   3.033   9.397 -0.0101  0.0571 -0.2206
18166SOL    HW161548   3.319   3.003   9.392  0.6304 -2.4830  1.9629
18166SOL    HW261549   3.458   2.974   9.339  0.5855 -0.1017  0.4296
18167SOL     OW61550   5.940  11.957   8.106  0.0064 -0.7403 -0.2153
18167SOL    HW161551   6.024  11.962   8.152 -0.5581 -1.6987  0.9588
18167SOL    HW261552   5.877  11.931   8.172 -1.3394  0.4063 -0.9733
18168SOL     OW61553   2.990  12.146   8.854 -0.1894  0.3878 -0.2368
18168SOL    HW161554   2.972  12.053   8.842  3.3556 -0.4641  0.1403
18168SOL    HW261555   2.992  12.158   8.949 -1.7679  1.1712 -0.2715
18169SOL     OW61556   0.600  10.661  11.773 -0.7902  0.1720  0.1937
18169SOL    HW161557   0.600  10.743  11.822 -1.4857  0.5033 -0.3484
18169SOL    HW261558   0.691  10.630  11.779 -0.2912  1.4508 -0.3889
18170SOL     OW61559   6.528   4.896   2.278 -0.1894  0.3264  0.0879
18170SOL    HW161560   6.512   4.898   2.372  0.1291 -0.4939  0.1766
18170SOL    HW261561   6.624   4.891   2.270 -0.1404 -4.9691  0.0009
18171SOL     OW61562   2.051   4.798   0.070  0.4411 -0.1093 -0.9848
18171SOL    HW161563   1.976   4.850   0.100  0.5587  0.5066 -1.7309
18171SOL    HW261564   2.127   4.849   0.097  0.6621 -1.2226  0.6848
18172SOL     OW61565   0.223   0.354   0.713 -0.2807 -0.2842 -0.1973
18172SOL    HW161566   0.294   0.292   0.728  2.0629  1.9356 -1.3155
18172SOL    HW261567   0.232   0.419   0.782 -0.6685  0.4774 -0.8394
18173SOL     OW61568   5.390   5.400   9.234  0.1002 -0.0812  0.0140
18173SOL    HW161569   5.426   5.314   9.214  0.6112 -0.1081  1.0039
18173SOL    HW261570   5.347   5.389   9.319 -0.9876  0.3188 -0.4631
18174SOL     OW61571   1.947   6.378  12.233  1.1016  0.0865 -0.0887
18174SOL    HW161572   1.852   6.364  12.224  1.1719 -1.2707  0.9039
18174SOL    HW261573   1.954   6.463  12.276  0.3063  0.0743  0.0833
18175SOL     OW61574   5.632   0.375   5.180  0.0062  0.0813 -0.8641
18175SOL    HW161575   5.578   0.384   5.101 -0.2079  0.6089 -0.6593
18175SOL    HW261576   5.570   0.361   5.251  0.0634  1.5739 -0.4888
18176SOL     OW61577   4.736   7.698   1.794 -0.0589 -0.3707 -0.0442
18176SOL    HW161578   4.700   7.644   1.724 -1.6960  0.2178  0.3028
18176SOL    HW261579   4.685   7.778   1.792  1.4964  0.6799  0.2655
18177SOL     OW61580  12.440   0.257  12.302 -0.2281  0.1345 -0.1999
18177SOL    HW161581  12.374   0.193  12.328  0.4398 -1.5923 -2.4487
18177SOL    HW261582  12.395   0.315  12.240  0.0162 -0.1942 -0.6842
18178SOL     OW61583   3.703   3.649   9.133 -0.0590  0.0945 -0.2656
18178SOL    HW161584   3.779   3.636   9.077 -0.4457  0.1906 -0.8187
18178SOL    HW261585   3.682   3.562   9.166  1.3368  0.2950  1.2935
18179SOL     OW61586  10.493   9.456   2.588 -0.1993  0.4234 -0.1753
18179SOL    HW161587  10.520   9.546   2.566  0.2973 -0.2847 -2.8509
18179SOL    HW261588  10.572   9.414   2.621 -1.0603  1.6394  4.1225
18180SOL     OW61589   1.447  12.206   7.966 -0.1897 -0.2792  0.1255
18180SOL    HW161590   1.498  12.210   7.886  0.8994  1.9677  0.8313
18180SOL    HW261591   1.448  12.114   7.992 -0.5040 -1.0397 -2.3410
18181SOL     OW61592  11.498   7.864  11.544  0.3371  0.6318 -0.0897
18181SOL    HW161593  11.534   7.778  11.565 -1.0485 -0.5587 -2.2915
18181SOL    HW261594  11.575   7.918  11.525  1.2162 -0.1529  1.0737
18182SOL     OW61595   9.069   9.866   0.288  0.2143 -0.1909 -0.0450
18182SOL    HW161596   9.163   9.865   0.266  0.1219 -1.9310 -0.5050
18182SOL    HW261597   9.065   9.838   0.379  0.1448  0.3540  0.1284
18183SOL     OW61598   9.378   3.837   2.173  0.0981  0.0861  0.2946
18183SOL    HW161599   9.390   3.900   2.245 -0.1781  0.6190 -0.1241
18183SOL    HW261600   9.449   3.856   2.112 -1.0229  1.2151 -0.7112
18184SOL     OW61601   7.115  11.242   3.920  0.0745 -0.8570  0.0686
18184SOL    HW161602   7.120  11.337   3.925 -1.9904 -0.7155  0.5288
18184SOL    HW261603   7.194  11.211   3.964 -0.2658  0.6658  1.8756
18185SOL     OW61604   2.382   2.997   8.788  0.1937 -0.1654 -0.1846
18185SOL    HW161605   2.365   2.980   8.695 -0.9932 -1.6086  0.2617
18185SOL    HW261606   2.396   2.910   8.826  1.2844  0.4558  0.8975
18186SOL     OW61607   0.432   2.739  12.472  0.1911 -0.6624  0.3479
18186SOL    HW161608   0.343   2.775  12.464 -0.9937 -3.4264 -0.0238
18186SOL    HW261609   0.440   2.716  12.565 -0.8701 -3.4151 -0.1353
18187SOL     OW61610   0.930   0.077   7.237 -0.0361 -0.5178  0.4270
18187SOL    HW161611   0.924   0.150   7.299 -0.9369  0.2872 -0.5534
18187SOL    HW261612   0.999   0.104   7.176 -2.8413  1.4436 -2.2054
18188SOL     OW61613   6.462   1.443   3.728  0.3705  0.8247  0.0628
18188SOL    HW161614   6.540   1.488   3.760  0.0701  3.7279 -2.7605
18188SOL    HW261615   6.492   1.395   3.650  0.0824 -1.7771  1.4175
18189SOL     OW61616  11.467   3.296  10.169 -0.2747  0.0767 -0.0527
18189SOL    HW161617  11.396   3.300  10.233  1.1703  1.0096  1.5858
18189SOL    HW261618  11.490   3.203  10.164 -3.0636 -0.6125 -2.3943
18190SOL     OW61619  12.049   2.272   8.684 -0.2525 -0.0622  0.4138
18190SOL    HW161620  11.959   2.277   8.652  0.1107  1.5269 -0.4524
18190SOL    HW261621  12.100   2.240   8.610  0.3356  2.0122 -0.1376
18191SOL     OW61622   0.938   1.648   7.631  0.0197 -0.4590  0.0607
18191SOL    HW161623   0.959   1.688   7.716 -1.7642  1.0107 -0.1054
18191SOL    HW261624   0.892   1.567   7.653 -1.3905  0.4380  0.5813
18192SOL     OW61625   1.540  10.992   6.047  0.1062  0.4218 -0.3875
18192SOL    HW161626   1.488  11.022   6.121 -0.6643 -0.2933 -0.6336
18192SOL    HW261627   1.488  10.923   6.006  2.0080 -1.6640  0.4515
18193SOL     OW61628   7.830  10.680   6.178  0.2054  0.0040  0.2475
18193SOL    HW161629   7.741  10.679   6.214  0.0590  1.8119  0.0582
18193SOL    HW261630   7.882  10.723   6.246  0.8948 -0.7957  0.2387
18194SOL     OW61631   4.784   4.294   2.794  0.7752  0.1937  0.3885
18194SOL    HW161632   4.801   4.385   2.820 -0.5285  0.6419 -0.2565
18194SOL    HW261633   4.710   4.267   2.848  0.4128 -0.0942 -0.2490
18195SOL     OW61634   7.825   2.670   8.052  0.1708 -0.5995 -0.5265
18195SOL    HW161635   7.879   2.599   8.085  1.8015  0.3047 -1.1053
18195SOL    HW261636   7.827   2.737   8.121  0.9992  0.0066 -1.1063
18196SOL     OW61637   3.320  12.225   4.443  0.0175 -0.0298  0.3756
18196SOL    HW161638   3.244  12.217   4.501  0.1413  1.1037  0.7163
18196SOL    HW261639   3.395  12.205   4.499  0.0850  0.3686  0.4266
18197SOL     OW61640   3.380   6.340   0.772  0.2222  0.7140  0.6272
18197SOL    HW161641   3.455   6.360   0.715  0.7208  0.3063  1.1245
18197SOL    HW261642   3.327   6.279   0.721  0.4308  0.7006  0.4247
18198SOL     OW61643  10.689   4.341   6.421 -0.2269 -0.1186  0.3132
18198SOL    HW161644  10.730   4.405   6.362 -1.5056 -0.6775 -1.2694
18198SOL    HW261645  10.676   4.389   6.503 -0.0344  1.2763 -0.4409
18199SOL     OW61646  10.826  11.892   6.221 -0.2521  0.0928 -0.1621
18199SOL    HW161647  10.901  11.894   6.162  0.3343 -2.6580  0.3646
18199SOL    HW261648  10.863  11.906   6.308 -0.5304  0.0182 -0.0291
18200SOL     OW61649   0.506  10.942  10.887 -0.1434 -0.2664  0.3246
18200SOL    HW161650   0.489  10.849  10.872  1.3118 -0.3956 -0.7103
18200SOL    HW261651   0.488  10.984  10.803 -2.3438  0.6806  1.1879
18201SOL     OW61652  11.941   4.937   5.988 -0.3654 -0.2608  0.5408
18201SOL    HW161653  11.983   4.857   5.958  0.1741  0.0704  0.3985
18201SOL    HW261654  11.904   4.914   6.074 -0.6479 -0.7929  0.2826
18202SOL     OW61655   5.621  11.844   4.452  0.3630 -0.6495 -0.2398
18202SOL    HW161656   5.555  11.875   4.514  1.4240 -0.6862  0.9568
18202SOL    HW261657   5.647  11.758   4.485  2.2725  0.0972  0.3955
18203SOL     OW61658   5.389   3.140  10.905  0.0293  0.2939 -0.6956
18203SOL    HW161659   5.412   3.071  10.967 -0.9831  0.4703 -0.0930
18203SOL    HW261660   5.473   3.169  10.868  0.5519 -0.5332 -0.1826
18204SOL     OW61661   3.598   4.117   4.290 -0.3060  0.3508 -0.3355
18204SOL    HW161662   3.600   4.022   4.307 -0.7906  0.1886 -1.1787
18204SOL    HW261663   3.620   4.156   4.375  0.2986 -0.5205 -0.0700
18205SOL     OW61664   0.816   4.135   0.211 -0.2240  0.0483  0.2154
18205SOL    HW161665   0.882   4.184   0.163  0.8597  0.5496  2.1085
18205SOL    HW261666   0.866   4.084   0.275 -1.4871 -1.8068 -0.1911
18206SOL     OW61667   5.760  10.182   3.285  0.3514 -0.5801 -0.2801
18206SOL    HW161668   5.767  10.273   3.255 -1.0607 -0.1956  0.4873
18206SOL    HW261669   5.732  10.133   3.208  0.4367 -0.2514 -0.5224
18207SOL     OW61670  11.416  10.492   0.674 -0.2973 -0.2033 -0.4756
18207SOL    HW161671  11.494  10.545   0.692 -0.5180 -0.0265 -0.0230
18207SOL    HW261672  11.450  10.404   0.656 -0.1265 -1.1423  3.4310
18208SOL     OW61673   3.649   0.627   7.151  0.4204 -0.0423 -0.5335
18208SOL    HW161674   3.559   0.597   7.137  0.3508  0.2518 -0.7290
18208SOL    HW261675   3.651   0.716   7.114  0.5450  0.3069  0.2751
18209SOL     OW61676   5.302   5.227  10.762 -0.0619 -0.6381  0.1646
18209SOL    HW161677   5.360   5.303  10.762 -2.1201  1.0223  0.2094
18209SOL    HW261678   5.297   5.199  10.853 -1.0977  0.6946  0.5528
18210SOL     OW61679   6.810   6.092   4.205 -0.7192 -0.0459 -0.2611
18210SOL    HW161680   6.748   6.163   4.192 -1.3765 -0.7177 -0.9178
18210SOL    HW261681   6.872   6.100   4.132 -0.1518  0.4934  0.2712
18211SOL     OW61682   1.424  12.355  10.189 -0.5043  0.2792  0.0037
18211SOL    HW161683   1.469  12.330  10.270 -2.0039 -0.3287  0.6855
18211SOL    HW261684   1.488  12.341  10.120 -0.8225 -4.6090  0.4130
18212SOL     OW61685   1.977  11.303  10.216 -0.4757 -0.3376  0.3021
18212SOL    HW161686   1.963  11.341  10.130  1.8934 -0.3357 -0.1371
18212SOL    HW261687   2.037  11.363  10.260 -1.0488 -0.7289  1.6969
18213SOL     OW61688   4.332   6.341   5.925  0.6308  0.1014 -0.4762
18213SOL    HW161689   4.378   6.289   5.991  0.7018  2.1518  1.2022
18213SOL    HW261690   4.285   6.277   5.872  1.0097 -1.6749  1.2231
18214SOL     OW61691  10.094   1.603   2.810  0.2532 -0.4343  0.4362
18214SOL    HW161692  10.007   1.614   2.848  0.1038 -0.4024  0.0919
18214SOL    HW261693  10.154   1.634   2.877 -0.0829  1.1842  0.0190
18215SOL     OW61694  10.035   6.662   7.241 -0.0668  0.5178  0.2757
18215SOL    HW161695  10.128   6.681   7.235  0.3977 -1.6696 -0.6035
18215SOL    HW261696  10.000   6.686   7.154 -0.1522  0.5327  0.3139
18216SOL     OW61697   0.385   3.927   9.268  0.3023 -0.5637  0.4257
18216SOL    HW161698   0.380   4.018   9.239 -0.5643 -1.1947 -1.5215
18216SOL    HW261699   0.295   3.896   9.267  0.5902 -1.4560  1.0745
18217SOL     OW61700   1.039   8.791   3.384 -0.4346 -0.3900 -0.1580
18217SOL    HW161701   1.029   8.723   3.450 -1.3778  0.4661  0.6139
18217SOL    HW261702   1.125   8.829   3.401 -0.4816 -0.4834  0.2880
18218SOL     OW61703   3.797  11.799   4.994  0.1348  0.3314 -0.2273
18218SOL    HW161704   3.819  11.853   4.918  0.4038  1.4935  0.6570
18218SOL    HW261705   3.702  11.787   4.987 -0.0001  1.3227 -0.1774
18219SOL     OW61706   8.073  10.665   6.426  0.6231 -0.0903 -0.7835
18219SOL    HW161707   8.150  10.608   6.423  0.5064 -0.2651 -0.4513
18219SOL    HW261708   8.008  10.615   6.475  0.7771  0.6487  0.1878
18220SOL     OW61709   0.446   9.780   3.092 -0.5612 -0.0053  0.3536
18220SOL    HW161710   0.460   9.714   3.024  1.3890  0.3775  0.3359
18220SOL    HW261711   0.492   9.746   3.168  1.5055  1.8208  0.0123
18221SOL     OW61712  12.521   9.563   1.699  0.1848  0.0192 -0.1554
18221SOL    HW161713  12.610   9.529   1.704  0.2343  0.3464  1.9258
18221SOL    HW261714  12.467   9.497   1.743 -0.2391  0.8797  0.6557
18222SOL     OW61715   9.099   7.840   4.430 -0.4463  0.1019  0.2362
18222SOL    HW161716   9.080   7.931   4.453  0.0721  0.6216 -1.2795
18222SOL    HW261717   9.017   7.806   4.395 -0.1340  0.6492 -1.1112
18223SOL     OW61718   1.564   4.510  11.239  0.0116 -0.4278  0.3537
18223SOL    HW161719   1.571   4.528  11.333 -2.0121  2.2264  0.1270
18223SOL    HW261720   1.514   4.429  11.233 -0.1557 -0.4296  1.5782
18224SOL     OW61721   4.699  12.295  11.625  0.5549  0.3832  0.3023
18224SOL    HW161722   4.732  12.316  11.712  2.3908  0.4262 -0.3508
18224SOL    HW261723   4.663  12.378  11.592  0.9037  0.6505  0.5864
18225SOL     OW61724   6.709   3.091  12.098 -0.0546  0.3788  0.3472
18225SOL    HW161725   6.673   3.152  12.034 -1.2229  0.8470  1.4259
18225SOL    HW261726   6.665   3.008  12.079  1.0953 -0.0287 -0.7284
18226SOL     OW61727   6.065   5.571  11.421  0.1090 -0.6078 -0.0615
18226SOL    HW161728   5.978   5.608  11.437 -0.1116 -1.4020  0.7008
18226SOL    HW261729   6.067   5.555  11.326 -0.0449  0.6592 -0.2945
18227SOL     OW61730   1.760   5.131   0.599  0.0217 -0.4794  0.3997
18227SOL    HW161731   1.743   5.223   0.577  0.0162 -0.5099  0.2734
18227SOL    HW261732   1.698   5.082   0.544  0.6581 -0.6031 -0.2190
18228SOL     OW61733   8.235   7.173   4.302  0.2664 -0.9111 -0.1566
18228SOL    HW161734   8.163   7.223   4.341  0.9729  0.1871 -0.1910
18228SOL    HW261735   8.195   7.090   4.275 -1.1921  0.0097 -0.9879
18229SOL     OW61736   5.107   1.732   7.358  0.1599  0.6482 -0.3309
18229SOL    HW161737   5.064   1.769   7.282 -2.6315  0.2452  0.9432
18229SOL    HW261738   5.168   1.801   7.386 -0.9181  2.0283 -1.2058
18230SOL     OW61739   9.172   8.550   0.394  0.0310  0.5356 -0.0223
18230SOL    HW161740   9.189   8.635   0.354  0.1850  0.7463  0.4852
18230SOL    HW261741   9.259   8.516   0.416 -0.0645  0.4881  0.2782
18231SOL     OW61742  11.873  10.991   8.177 -0.4810  0.1027  0.0785
18231SOL    HW161743  11.860  10.961   8.088 -0.2057  1.0299 -0.2886
18231SOL    HW261744  11.854  11.085   8.174  0.0149  0.2446  0.8793
18232SOL     OW61745   2.154   7.989   2.723  0.0952  0.0383  0.1480
18232SOL    HW161746   2.133   7.999   2.630 -1.1338  0.9097  0.5015
18232SOL    HW261747   2.096   7.919   2.754 -0.9727  1.1280  0.6896
18233SOL     OW61748   4.889  12.002  11.534 -0.3164  0.2243 -0.1898
18233SOL    HW161749   4.877  11.919  11.580  0.7245 -0.8564 -1.7619
18233SOL    HW261750   4.801  12.031  11.513 -0.8020  0.5039  1.9585
18234SOL     OW61751   3.495   9.711   6.952 -0.4157  0.7137  0.2060
18234SOL    HW161752   3.534   9.627   6.927  1.3279  1.9973 -1.7328
18234SOL    HW261753   3.471   9.699   7.044  2.6003 -0.9584  0.9446
18235SOL     OW61754   1.817  11.443   5.291 -0.0960 -0.2008  0.3208
18235SOL    HW161755   1.816  11.486   5.376  0.5780 -1.1719  0.8350
18235SOL    HW261756   1.907  11.415   5.279 -0.2616 -0.3872 -0.5509
18236SOL     OW61757   3.209  10.308   6.818 -0.7723  0.4252 -0.1638
18236SOL    HW161758   3.224  10.402   6.805  2.5481 -0.1152 -1.1372
18236SOL    HW261759   3.251  10.288   6.901 -0.8698 -0.3042 -0.2883
18237SOL     OW61760   3.841   2.757   4.398 -0.1643  0.4609  0.3121
18237SOL    HW161761   3.903   2.705   4.347 -0.8288  0.5594 -0.6015
18237SOL    HW261762   3.787   2.693   4.444  0.5972  0.3736  1.1189
18238SOL     OW61763  11.737   7.788   7.521  0.0377  0.3950  0.6608
18238SOL    HW161764  11.662   7.827   7.565 -0.9589 -1.4424  0.6493
18238SOL    HW261765  11.813   7.833   7.559 -0.8585  0.0013  3.0995
18239SOL     OW61766   5.610   8.142   5.134 -0.2792 -0.0444 -0.2497
18239SOL    HW161767   5.594   8.179   5.221  1.0777 -1.2398  0.5639
18239SOL    HW261768   5.687   8.085   5.146 -0.4214 -0.7044 -2.1025
18240SOL     OW61769   8.933   1.327   5.364 -0.2679 -0.1280 -0.5570
18240SOL    HW161770   8.861   1.275   5.400 -1.0070  1.3497  0.2228
18240SOL    HW261771   8.999   1.328   5.433 -0.4673  0.3460 -0.3651
18241SOL     OW61772   1.128  11.493   2.282 -0.4807  0.1508  0.1907
18241SOL    HW161773   1.205  11.522   2.233 -0.7355 -0.6697 -0.7443
18241SOL    HW261774   1.150  11.405   2.313 -0.6192  0.3587  0.8867
18242SOL     OW61775   2.953   9.764   7.399 -0.0288 -0.5037  0.0317
18242SOL    HW161776   2.872   9.810   7.377  0.1833  1.2105  2.4362
18242SOL    HW261777   2.963   9.699   7.330 -1.1807  2.0351 -2.7756
18243SOL     OW61778   2.033  12.041   6.594  0.4223 -0.4216 -0.8951
18243SOL    HW161779   2.098  12.104   6.564 -0.3208 -0.0023 -1.6598
18243SOL    HW261780   2.055  11.960   6.547 -1.4209  0.5229 -3.6010
18244SOL     OW61781   4.537   7.394  10.378  0.2083  0.1072 -0.6058
18244SOL    HW161782   4.442   7.384  10.365 -0.3330  1.0006  2.0491
18244SOL    HW261783   4.556   7.482  10.345 -0.5001  1.0469  1.2996
18245SOL     OW61784  11.910   7.495   4.050 -0.4293  0.8310 -0.5862
18245SOL    HW161785  11.983   7.541   4.091  0.2267 -0.7635  0.0873
18245SOL    HW261786  11.838   7.558   4.053 -0.1203  1.1524  2.0955
18246SOL     OW61787   9.338   5.406   5.923 -0.5603  0.4266 -0.6632
18246SOL    HW161788   9.265   5.369   5.972 -0.0100  1.0131  0.6614
18246SOL    HW261789   9.328   5.501   5.932  0.4780  0.5166 -0.2280
18247SOL     OW61790   0.404   0.354  10.169 -0.1167  0.4928  0.1224
18247SOL    HW161791   0.324   0.328  10.215  0.4322 -1.0324  0.2701
18247SOL    HW261792   0.472   0.352  10.237  0.5346 -0.8987 -0.5363
18248SOL     OW61793  10.094   4.204  11.982  0.3459 -0.2775 -0.3051
18248SOL    HW161794  10.156   4.177  11.914 -0.8225  0.3854 -1.6601
18248SOL    HW261795  10.038   4.127  11.994  0.7023 -0.4805  0.1188
18249SOL     OW61796   9.120   7.910   4.095  0.1615  0.2648 -0.2665
18249SOL    HW161797   9.099   7.990   4.046  1.0935  0.2083 -0.7753
18249SOL    HW261798   9.187   7.937   4.158 -1.8850  0.6179  1.8816
18250SOL     OW61799   8.161   5.686   3.135  0.1074 -0.1035  0.6790
18250SOL    HW161800   8.231   5.648   3.082 -1.1692 -1.9171  0.1857
18250SOL    HW261801   8.185   5.778   3.146  2.3528 -0.5862  0.2171
18251SOL     OW61802   6.496   7.296   3.246  0.0420 -0.1346 -0.1229
18251SOL    HW161803   6.499   7.230   3.315 -0.2149  0.4127  0.4123
18251SOL    HW261804   6.409   7.335   3.253 -0.0618 -0.1989 -0.8837
18252SOL     OW61805   1.248   6.661   3.301 -0.7645 -0.6278 -0.4097
18252SOL    HW161806   1.321   6.689   3.246  0.0181 -1.2291  0.3143
18252SOL    HW261807   1.288   6.638   3.384 -1.7294 -1.3758 -0.1448
18253SOL     OW61808   4.148  10.016   7.218 -0.1420  0.2454 -0.2351
18253SOL    HW161809   4.095  10.031   7.140  1.6815  0.9915 -1.4062
18253SOL    HW261810   4.238  10.032   7.189  0.6307  0.1410  1.9321
18254SOL     OW61811   4.019  11.963   1.103  0.8371 -0.4869 -0.3469
18254SOL    HW161812   3.981  12.050   1.121  1.5564  0.3076 -2.3638
18254SOL    HW261813   3.948  11.902   1.123  0.5583  0.4585  1.8759
18255SOL     OW61814   8.566   4.311   7.707  0.1406 -0.2166  0.1173
18255SOL    HW161815   8.581   4.385   7.648  2.7409 -0.9357 -0.2307
18255SOL    HW261816   8.636   4.249   7.687  1.9729  0.0007  4.7500
18256SOL     OW61817   6.575   8.300   0.587 -0.0348  0.0507  0.1566
18256SOL    HW161818   6.632   8.235   0.546 -1.3000 -0.8123 -0.3038
18256SOL    HW261819   6.573   8.274   0.679 -0.6672 -0.7060 -0.0524
18257SOL     OW61820   8.361   6.697   9.810  0.3138  0.6012 -0.0415
18257SOL    HW161821   8.322   6.774   9.768 -0.3555 -0.2577 -1.0553
18257SOL    HW261822   8.297   6.627   9.795  1.8344 -0.6463 -0.9350
18258SOL     OW61823   5.268  10.437  11.182  0.0049  0.3766 -0.4821
18258SOL    HW161824   5.350  10.425  11.134 -0.3487 -1.4361 -0.6925
18258SOL    HW261825   5.290  10.416  11.273  0.2330  1.9667 -0.1382
18259SOL     OW61826   1.512   7.108   8.623  0.5745 -0.0461 -0.1783
18259SOL    HW161827   1.464   7.027   8.640 -0.5125  0.8597  1.2903
18259SOL    HW261828   1.488   7.132   8.534 -0.6019 -0.3612  0.0389
18260SOL     OW61829   8.554   2.217   0.236 -0.0499 -0.3115  0.1131
18260SOL    HW161830   8.507   2.231   0.153  0.3445  0.0949 -0.0453
18260SOL    HW261831   8.559   2.304   0.275  1.7877 -0.0770 -0.5282
18261SOL     OW61832  11.686   8.784   2.379 -0.4007 -0.0758  0.0752
18261SOL    HW161833  11.737   8.815   2.305 -0.7822 -0.8612 -0.5254
18261SOL    HW261834  11.599   8.820   2.366 -0.5319 -0.4104  0.0115
18262SOL     OW61835   3.381   3.024   3.902  0.2377  0.1607 -0.6093
18262SOL    HW161836   3.371   3.119   3.898  0.0347  0.1722  0.0362
18262SOL    HW261837   3.389   3.005   3.996 -1.1509 -0.6008 -0.6240
18263SOL     OW61838   3.347   2.913   0.426  0.3911 -0.2344 -0.4906
18263SOL    HW161839   3.404   2.844   0.461 -0.7946 -1.0406 -0.0770
18263SOL    HW261840   3.266   2.904   0.476 -0.3041  0.5000 -1.4608
18264SOL     OW61841   0.138  10.167   2.878  0.4655  0.4668  0.1762
18264SOL    HW161842   0.046  10.167   2.904 -0.0609 -1.7132 -1.4302
18264SOL    HW261843   0.178  10.099   2.932  0.6814  0.0221 -0.5367
18265SOL     OW61844   7.370   0.952   5.523  0.2279 -0.0137 -0.3930
18265SOL    HW161845   7.443   1.012   5.544  0.6957 -0.7492  0.1252
18265SOL    HW261846   7.296   1.010   5.505  0.6791  0.7300  0.0849
18266SOL     OW61847   7.330  11.293  10.262 -0.1761 -0.0736 -0.3439
18266SOL    HW161848   7.391  11.357  10.300 -0.7271  0.6051 -0.5856
18266SOL    HW261849   7.377  11.210  10.267  0.8158  0.4536 -0.6055
18267SOL     OW61850   8.288   9.876   3.073  0.1018 -0.3453 -0.2657
18267SOL    HW161851   8.268   9.789   3.040 -1.3030 -0.6084  1.1256
18267SOL    HW261852   8.290   9.866   3.169 -1.6851  1.3957  0.0313
18268SOL     OW61853   1.166   3.905   3.401 -0.4275 -0.2517  0.0983
18268SOL    HW161854   1.216   3.855   3.337 -0.9636 -0.1279 -0.4207
18268SOL    HW261855   1.144   3.841   3.469 -0.9602 -0.6842 -0.4761
18269SOL     OW61856   2.792   1.687   1.153  0.1450  0.2580  0.6213
18269SOL    HW161857   2.884   1.697   1.178 -0.0457 -0.2220  1.5359
18269SOL    HW261858   2.748   1.663   1.234 -0.4377 -1.7643 -0.2526
18270SOL     OW61859  10.318   2.833   1.259  0.9235  0.2330  0.1254
18270SOL    HW161860  10.369   2.817   1.179  0.5916  0.2791 -0.0992
18270SOL    HW261861  10.383   2.856   1.325  1.2861 -0.6318  0.0857
18271SOL     OW61862   6.367  10.569  12.105  0.2159  0.5443  0.0441
18271SOL    HW161863   6.413  10.639  12.151  0.1116  1.2178 -0.8303
18271SOL    HW261864   6.376  10.492  12.161  0.0531  1.3414  1.1845
18272SOL     OW61865   8.352   8.221   1.581 -0.0687 -0.0207 -0.0114
18272SOL    HW161866   8.271   8.176   1.555 -0.1133  0.5453 -0.9068
18272SOL    HW261867   8.358   8.295   1.521  2.4321 -1.4374 -1.7136
18273SOL     OW61868   8.251   7.542   8.358 -0.0573  0.1972 -0.4256
18273SOL    HW161869   8.178   7.486   8.333  0.6962 -0.4057 -1.3428
18273SOL    HW261870   8.217   7.631   8.352 -1.0112 -0.1090  0.1839
18274SOL     OW61871   9.533   4.654   7.258  0.0681  0.2401  0.1329
18274SOL    HW161872   9.535   4.575   7.203 -0.8149 -1.1591  1.9887
18274SOL    HW261873   9.565   4.624   7.343 -3.0476  1.0691  1.7650
18275SOL     OW61874   0.678   0.293  11.304 -0.0267  0.4002 -0.1474
18275SOL    HW161875   0.704   0.293  11.212  0.4784  2.1634 -0.0375
18275SOL    HW261876   0.582   0.297  11.302  0.0129  2.8341 -0.6838
18276SOL     OW61877   2.604   7.636   2.812 -0.1599  0.0050  0.3566
18276SOL    HW161878   2.551   7.648   2.891 -2.3729  0.4385 -1.1152
18276SOL    HW261879   2.680   7.693   2.825 -0.3590 -0.0826  2.2275
18277SOL     OW61880   2.817   0.210   4.958  0.0945 -0.4378  0.2849
18277SOL    HW161881   2.776   0.233   5.041 -1.2996 -0.4883 -0.3564
18277SOL    HW261882   2.873   0.285   4.937 -2.1233  1.1417 -0.3455
18278SOL     OW61883   8.565   5.213   3.521 -0.2406  0.6207  0.0962
18278SOL    HW161884   8.547   5.283   3.458  0.5047  0.7988  0.0730
18278SOL    HW261885   8.653   5.183   3.499  0.5664  1.5532  1.8550
18279SOL     OW61886   8.059  11.821   7.329  1.3628 -0.2377 -0.3978
18279SOL    HW161887   8.023  11.902   7.292 -1.4862 -0.4864  1.5002
18279SOL    HW261888   8.041  11.754   7.262  0.5963  0.1205 -0.5648
18280SOL     OW61889   2.963   8.729  11.138 -0.3009 -0.2992  0.7475
18280SOL    HW161890   2.972   8.807  11.193 -0.7315  0.7564 -0.6188
18280SOL    HW261891   3.040   8.677  11.157  0.2810  0.7345  1.2913
18281SOL     OW61892   3.502   7.569   0.402 -0.0690  0.2479  0.0233
18281SOL    HW161893   3.439   7.632   0.437 -0.8843 -0.7288  0.3902
18281SOL    HW261894   3.520   7.510   0.474 -0.7216 -0.9927 -0.7895
18282SOL     OW61895   3.272   3.961   8.984  0.4065 -0.3192  0.5017
18282SOL    HW161896   3.359   3.922   8.991  0.8750  1.0022  3.0294
18282SOL    HW261897   3.212   3.892   9.013  0.8184 -0.5287  0.8667
18283SOL     OW61898   4.076   2.760   6.356  0.2321  0.4147 -0.0747
18283SOL    HW161899   3.994   2.768   6.309 -1.1350  0.5021  2.1694
18283SOL    HW261900   4.076   2.670   6.388  0.7684  0.5612  0.3512
18284SOL     OW61901   0.504   3.176   4.141  0.3556 -0.1953 -0.3006
18284SOL    HW161902   0.488   3.142   4.052  1.4738  0.4598 -0.7718
18284SOL    HW261903   0.599   3.187   4.146  0.1943  1.0446  0.5031
18285SOL     OW61904  11.120   5.619   4.369 -0.3385 -0.3688 -0.2724
18285SOL    HW161905  11.153   5.547   4.422  0.1031  0.4177  0.5528
18285SOL    HW261906  11.192   5.640   4.310  0.4689  0.9384  1.1077
18286SOL     OW61907   1.450  11.546   7.898  0.0218 -0.0870  0.4208
18286SOL    HW161908   1.441  11.596   7.817 -0.8633  0.1988  0.6820
18286SOL    HW261909   1.385  11.477   7.890  1.7917 -1.7520 -0.3079
18287SOL     OW61910   8.424  11.394   9.012  0.4934  0.4350 -0.3352
18287SOL    HW161911   8.359  11.464   9.023 -1.1568 -1.0658 -0.0959
18287SOL    HW261912   8.406  11.358   8.925 -2.1444 -2.9327  1.3939
18288SOL     OW61913   3.213   4.476   3.665  0.1751 -0.0644  0.0178
18288SOL    HW161914   3.151   4.410   3.698  1.4335 -0.2215  2.2985
18288SOL    HW261915   3.293   4.426   3.647  0.3029  0.4507 -0.8870
18289SOL     OW61916   4.177   7.153   6.091  0.6024  0.5100  0.1124
18289SOL    HW161917   4.235   7.206   6.145 -0.4668  1.1893  0.6447
18289SOL    HW261918   4.109   7.123   6.151  2.2832 -3.3984  0.3612
18290SOL     OW61919   5.601   2.848  12.424  0.2068 -0.6434  0.1624
18290SOL    HW161920   5.612   2.853  12.519  0.2974  0.2825  0.1186
18290SOL    HW261921   5.690   2.850  12.390  0.1636 -0.6315  0.0495
18291SOL     OW61922   4.177   0.633   9.956 -0.0569 -0.2647  0.5577
18291SOL    HW161923   4.178   0.681  10.039  0.2255  1.0663 -0.1880
18291SOL    HW261924   4.097   0.661   9.912 -1.0368 -2.1835  1.0375
18292SOL     OW61925   4.777   4.079   1.192 -0.0728  0.0501  0.0021
18292SOL    HW161926   4.706   4.137   1.219 -1.7871 -0.0818 -3.6508
18292SOL    HW261927   4.764   3.999   1.243 -0.8097  1.0257  1.3996
18293SOL     OW61928  10.408   7.439   4.590 -0.2155  0.1883  0.0757
18293SOL    HW161929  10.447   7.460   4.504 -0.7095 -0.0595 -0.2084
18293SOL    HW261930  10.314   7.451   4.577 -0.2686  0.4141  0.6614
18294SOL     OW61931   2.096  10.183   6.682 -0.0767 -0.1108  0.1657
18294SOL    HW161932   2.077  10.274   6.661  0.6681  0.1628  0.6328
18294SOL    HW261933   2.023  10.134   6.645 -0.1917  0.6170 -0.5943
18295SOL     OW61934   7.224   8.134   2.923 -0.0024 -0.0226  0.0738
18295SOL    HW161935   7.215   8.046   2.959  0.3017  0.1512  0.5883
18295SOL    HW261936   7.173   8.132   2.842 -0.5502 -0.4719  0.4195
18296SOL     OW61937   5.842  10.748   8.168 -0.3621  0.3674 -0.2778
18296SOL    HW161938   5.750  10.772   8.182 -0.3505  1.0071 -1.2522
18296SOL    HW261939   5.843  10.653   8.179 -1.5567  0.0547 -2.3050
18297SOL     OW61940   4.714   9.976   7.531  0.0194  0.1007 -0.0271
18297SOL    HW161941   4.780   9.983   7.600  0.1009  0.0087 -0.0954
18297SOL    HW261942   4.687  10.067   7.515  1.0927  0.2958 -0.9161
18298SOL     OW61943  10.256   2.605   0.034  0.0840 -0.2416 -0.0866
18298SOL    HW161944  10.170   2.648   0.034 -0.1425 -0.6814 -0.2490
18298SOL    HW261945  10.303   2.645   0.107 -0.2315  0.0636 -0.0487
18299SOL     OW61946   7.805   1.668   6.975 -0.4040 -0.8284 -0.0316
18299SOL    HW161947   7.805   1.760   6.950  1.0917 -1.3059 -2.0377
18299SOL    HW261948   7.861   1.663   7.052  0.5142 -0.1912 -0.6404
18300SOL     OW61949   9.509   6.067   6.570  0.0599 -0.1685 -0.3035
18300SOL    HW161950   9.604   6.058   6.576  0.0058 -0.1473  0.7568
18300SOL    HW261951   9.475   6.008   6.637 -0.5506  2.0199  1.4345
18301SOL     OW61952  10.840   5.372   1.239 -0.4278 -0.0591  0.2478
18301SOL    HW161953  10.831   5.311   1.312 -3.1602 -1.5004 -1.1614
18301SOL    HW261954  10.843   5.316   1.161  1.1171  1.4796 -0.8838
18302SOL     OW61955   6.312  11.822  12.342  0.1643  0.0123 -0.2478
18302SOL    HW161956   6.395  11.777  12.356 -0.2249 -0.5562  0.2782
18302SOL    HW261957   6.334  11.897  12.286  1.2530  0.6208  0.9407
18303SOL     OW61958   6.319  10.424   5.843  0.3505  0.0156 -0.1943
18303SOL    HW161959   6.253  10.355   5.834  0.6313 -0.1566 -0.9775
18303SOL    HW261960   6.387  10.384   5.897 -0.2741  0.2740  0.8205
18304SOL     OW61961   7.098   1.631   2.768  0.5889 -0.0514 -0.1586
18304SOL    HW161962   7.079   1.724   2.758  0.3353 -0.1403 -0.5401
18304SOL    HW261963   7.015   1.588   2.748  1.0884 -0.4344 -1.5152
18305SOL     OW61964   1.977   4.308   5.352  0.4436  0.3003  0.1421
18305SOL    HW161965   1.885   4.331   5.337  0.5461  0.1528 -0.7865
18305SOL    HW261966   1.996   4.339   5.440  0.0698  2.1285 -0.3899
18306SOL     OW61967   6.427   6.541  10.038  0.1414  0.0717  0.0007
18306SOL    HW161968   6.454   6.517  10.127  0.4137  0.6282  0.0732
18306SOL    HW261969   6.362   6.474  10.014 -0.9372  0.6746  1.1216
18307SOL     OW61970   6.227   6.164   8.858 -0.3958  0.4357 -0.5017
18307SOL    HW161971   6.177   6.245   8.870 -0.1292  0.7826 -1.6508
18307SOL    HW261972   6.253   6.139   8.947 -0.1458  1.8170 -0.1614
18308SOL     OW61973   4.853   8.546   5.806 -0.0413 -0.0075  0.0505
18308SOL    HW161974   4.822   8.556   5.716  0.6029  1.5979 -0.0330
18308SOL    HW261975   4.888   8.457   5.810 -0.1657 -0.1306 -1.2547
18309SOL     OW61976   9.133   3.990   0.007 -0.1667  0.2314  0.2212
18309SOL    HW161977   9.139   3.983   0.102 -1.1087  2.5970  0.5372
18309SOL    HW261978   9.061   3.932  -0.017 -0.1060 -0.1729  0.9874
18310SOL     OW61979   4.922   9.599   6.961 -0.9901 -0.2161  0.0976
18310SOL    HW161980   4.907   9.586   6.867 -0.9559 -3.5383  0.4141
18310SOL    HW261981   4.847   9.557   7.003  0.8637 -2.3381  1.5216
18311SOL     OW61982  10.408  12.288   2.409  0.3166  0.3854 -0.2240
18311SOL    HW161983  10.435  12.344   2.336 -0.9553  1.7471  0.3073
18311SOL    HW261984  10.427  12.340   2.487  0.6364 -0.6130  0.3775
18312SOL     OW61985   6.262   0.509   2.361  0.3653  0.2051  0.6018
18312SOL    HW161986   6.189   0.472   2.312  1.3159  1.3967 -1.9010
18312SOL    HW261987   6.242   0.489   2.452 -1.1874 -2.7626 -0.2482
18313SOL     OW61988   3.020   2.740   8.800 -0.0148 -0.1513  0.9601
18313SOL    HW161989   3.109   2.730   8.833  0.6860  1.6402 -0.2780
18313SOL    HW261990   3.010   2.833   8.783 -1.1761 -0.6292 -1.4548
18314SOL     OW61991   2.598   0.335  11.651 -0.4845  0.0671  0.2963
18314SOL    HW161992   2.561   0.279  11.719  0.4116 -1.0540 -0.1058
18314SOL    HW261993   2.578   0.289  11.569 -1.0114  1.0903 -0.1670
18315SOL     OW61994   2.273  11.571   5.293 -0.1938  0.0148 -0.2824
18315SOL    HW161995   2.199  11.510   5.287 -0.5737  0.4152  0.2010
18315SOL    HW261996   2.333  11.530   5.356  0.0387 -0.3539 -0.7425
18316SOL     OW61997   3.822   8.381   7.217 -0.4926 -0.0902 -0.1626
18316SOL    HW161998   3.752   8.432   7.177 -0.9109  0.0372  0.6990
18316SOL    HW261999   3.822   8.298   7.169 -0.6147  0.2622 -0.7785
18317SOL     OW62000   0.215  11.841   1.749 -0.0746 -0.1038 -0.8928
18317SOL    HW162001   0.267  11.882   1.818 -0.8360  0.0341 -0.3939
18317SOL    HW262002   0.268  11.765   1.721 -0.3913 -1.0237  0.8435
18318SOL     OW62003  10.891  10.181  11.472 -0.3095 -0.0139 -0.1247
18318SOL    HW162004  10.919  10.092  11.451 -0.9285 -0.2133 -0.1398
18318SOL    HW262005  10.914  10.233  11.395 -0.9911 -0.3955 -0.6040
18319SOL     OW62006   7.345   3.836   3.862 -0.0204 -0.3590  0.3828
18319SOL    HW162007   7.315   3.755   3.903  0.4970 -0.5740  0.3388
18319SOL    HW262008   7.439   3.837   3.877  0.0497 -0.0164 -0.0575
18320SOL     OW62009  11.739   0.171  10.511 -0.0505 -0.4697  0.0763
18320SOL    HW162010  11.735   0.258  10.474 -3.0589 -1.6483 -2.8118
18320SOL    HW262011  11.802   0.124  10.457 -0.9740 -0.9474 -0.6126
18321SOL     OW62012   1.918   5.563   6.436 -0.6603  0.3531  0.0917
18321SOL    HW162013   2.006   5.527   6.428 -0.3646  0.8393  0.9680
18321SOL    HW262014   1.917   5.638   6.376 -0.8990 -0.3971 -0.8600
18322SOL     OW62015  10.818   9.994   0.324 -0.5491  0.3027 -0.9210
18322SOL    HW162016  10.776   9.909   0.336 -0.1799  0.1998 -0.3316
18322SOL    HW262017  10.749  10.049   0.285 -0.5702 -0.4529 -1.9646
18323SOL     OW62018   8.564   7.109   4.938  0.7597  0.2128  0.0154
18323SOL    HW162019   8.540   7.156   5.018  0.4405  0.0947 -0.0117
18323SOL    HW262020   8.506   7.143   4.871  0.9821  0.2619 -0.1552
18324SOL     OW62021   9.003  10.836   5.610  0.1075  0.1239 -0.5148
18324SOL    HW162022   9.076  10.859   5.667 -1.0225  0.0308  1.0136
18324SOL    HW262023   8.996  10.910   5.549  0.2998  1.0078  0.5128
18325SOL     OW62024   2.472   6.465  10.367 -0.6498  0.0051  0.4764
18325SOL    HW162025   2.488   6.535  10.431 -0.3126  0.7938 -0.4516
18325SOL    HW262026   2.415   6.403  10.413 -1.7446  1.3523  1.0239
18326SOL     OW62027   0.697   2.384   6.484  0.3923 -0.2505 -0.0338
18326SOL    HW162028   0.626   2.414   6.428  0.5639  0.3296  0.0476
18326SOL    HW262029   0.765   2.452   6.475  0.1015  0.2901  1.5015
18327SOL     OW62030   0.385  10.646   2.361 -0.2950 -0.4199  0.1626
18327SOL    HW162031   0.310  10.628   2.418  0.5422 -1.1414  1.0609
18327SOL    HW262032   0.359  10.610   2.276 -0.6286 -1.4652  0.6829
18328SOL     OW62033  10.777   2.471   8.231  0.1513 -0.0638  0.0084
18328SOL    HW162034  10.779   2.418   8.152 -2.1570 -1.4981  0.7904
18328SOL    HW262035  10.685   2.496   8.241  0.3881  0.1596  2.1684
18329SOL     OW62036   8.041   1.845  12.543 -0.1576  0.0388  0.2371
18329SOL    HW162037   8.013   1.929  12.578  0.2467  0.1186  0.3803
18329SOL    HW262038   8.118   1.866  12.490  0.1108 -0.2764  0.4962
18330SOL     OW62039   9.912   2.418   0.787 -0.3661 -0.3375  0.3320
18330SOL    HW162040   9.974   2.348   0.808 -1.1040 -1.0283  0.2855
18330SOL    HW262041   9.962   2.480   0.734  0.1193 -1.2012 -0.2496
18331SOL     OW62042   1.696   0.489   2.878 -0.4021  0.0495 -0.4541
18331SOL    HW162043   1.719   0.520   2.966  0.2697 -0.4436 -0.4477
18331SOL    HW262044   1.604   0.464   2.885 -0.2518 -0.3405  0.2125
18332SOL     OW62045   3.488  11.843   6.212  0.6107  0.5745 -0.5021
18332SOL    HW162046   3.556  11.907   6.231 -0.5488  1.4263  0.9835
18332SOL    HW262047   3.438  11.882   6.140  0.6099  0.7901 -0.3847
18333SOL     OW62048   4.821   3.525   6.282  0.0787 -0.2014  0.6857
18333SOL    HW162049   4.864   3.591   6.228  3.1798 -3.3902 -1.2520
18333SOL    HW262050   4.738   3.507   6.237  0.5583  0.3648 -0.4574
18334SOL     OW62051   1.394   3.341   7.923  0.3846  0.5229 -0.2968
18334SOL    HW162052   1.334   3.358   7.850 -0.3508 -1.1393 -0.1298
18334SOL    HW262053   1.340   3.353   8.001  1.0574  1.8594 -0.0103
18335SOL     OW62054   6.457   8.820   2.135  0.5645  0.2445  0.5072
18335SOL    HW162055   6.391   8.798   2.201 -0.6388 -1.6430 -1.1756
18335SOL    HW262056   6.420   8.895   2.088 -1.6329 -2.0907 -1.8222
18336SOL     OW62057  11.530   1.170   8.991 -0.5123 -0.2555 -0.1914
18336SOL    HW162058  11.617   1.203   9.011 -0.3401  0.1095 -1.4603
18336SOL    HW262059  11.515   1.100   9.055 -0.4235  1.4817  1.7990
18337SOL     OW62060  11.129  12.198   0.303 -0.0589 -0.1020 -0.6405
18337SOL    HW162061  11.180  12.160   0.230  0.6854 -0.7709  0.2039
18337SOL    HW262062  11.046  12.151   0.301  0.1417 -0.4552 -0.7614
18338SOL     OW62063   7.545   2.301   4.196  0.0696 -0.1311 -1.0125
18338SOL    HW162064   7.626   2.347   4.218 -0.0836 -0.7313  1.0988
18338SOL    HW262065   7.476   2.366   4.210 -0.0804 -0.6725  1.1864
18339SOL     OW62066   2.481   1.288   1.990 -0.1163 -0.1641 -0.2362
18339SOL    HW162067   2.419   1.306   2.060  0.6861  0.2396  0.3864
18339SOL    HW262068   2.439   1.322   1.911 -0.7030  0.0494  0.1625
18340SOL     OW62069   4.869  11.953  10.982  0.4923  0.5151  0.1909
18340SOL    HW162070   4.943  11.914  10.936  0.0533 -0.8615  0.6204
18340SOL    HW262071   4.820  11.879  11.016 -1.0530  1.4082 -0.0227
18341SOL     OW62072   3.557   0.324   4.011 -0.5706  0.9055  0.0119
18341SOL    HW162073   3.640   0.323   3.964 -0.2011  0.7986  0.6486
18341SOL    HW262074   3.533   0.232   4.019 -2.1702  1.0046 -2.5679
18342SOL     OW62075   3.953   3.599   5.225 -0.2812 -0.6263  0.2509
18342SOL    HW162076   3.916   3.585   5.312  1.3054  1.3083  1.3280
18342SOL    HW262077   3.914   3.681   5.195 -0.2830 -0.9121 -0.5630
18343SOL     OW62078   9.594   7.755   5.925 -0.3812 -0.0830 -0.0744
18343SOL    HW162079   9.631   7.672   5.953  0.5578 -0.4392 -2.2126
18343SOL    HW262080   9.516   7.731   5.874 -0.0157  0.3203 -0.8400
18344SOL     OW62081   8.390   5.694   1.994 -0.3540 -0.0861  0.5147
18344SOL    HW162082   8.414   5.774   1.948 -0.5046 -1.3993 -1.9999
18344SOL    HW262083   8.472   5.645   2.001  0.3015  1.1919  4.2972
18345SOL     OW62084   4.498   1.017   7.824  0.2341  0.3457  0.1803
18345SOL    HW162085   4.586   0.988   7.848  0.4582 -0.4101 -1.4478
18345SOL    HW262086   4.512   1.087   7.761 -0.3388  0.3708  0.0762
18346SOL     OW62087   6.096   5.227   9.976  0.1851  0.1501 -0.5468
18346SOL    HW162088   6.071   5.301  10.032  0.9847  2.0575 -2.5553
18346SOL    HW262089   6.176   5.193  10.016 -0.6583 -0.2365  0.8905
18347SOL     OW62090   4.698   8.991   5.816 -0.3222 -0.4966  0.1990
18347SOL    HW162091   4.618   9.043   5.821  0.5860  1.1258 -1.1586
18347SOL    HW262092   4.711   8.957   5.904 -0.9956  1.5696  1.1585
18348SOL     OW62093   2.262   8.114   3.530 -0.0819 -0.1579  0.3878
18348SOL    HW162094   2.219   8.183   3.480 -0.4591 -0.1092  0.7821
18348SOL    HW262095   2.353   8.117   3.500 -0.0679  0.5845  0.4806
18349SOL     OW62096   0.932  11.329   9.484 -0.0588 -0.2094  0.2131
18349SOL    HW162097   0.872  11.365   9.418 -0.0148 -1.9749 -0.8592
18349SOL    HW262098   0.876  11.306   9.558 -0.5748 -0.9014 -0.3773
18350SOL     OW62099   6.728  10.909   1.665  0.0098  0.7410  0.4903
18350SOL    HW162100   6.690  10.996   1.661  1.2625  1.2425 -1.5001
18350SOL    HW262101   6.822  10.923   1.655  0.1481 -0.8868 -0.9428
18351SOL     OW62102   6.042   9.514   7.524  0.8757 -0.1789 -0.4695
18351SOL    HW162103   6.056   9.477   7.437 -0.2323  1.4077 -1.3782
18351SOL    HW262104   6.109   9.582   7.532  0.6585  0.0177 -0.2931
18352SOL     OW62105  10.869   2.261   9.134 -0.1365 -0.1346  0.6764
18352SOL    HW162106  10.792   2.313   9.159  0.6346  1.4661 -0.1689
18352SOL    HW262107  10.874   2.193   9.202 -1.8183  0.1959  1.1944
18353SOL     OW62108   3.805   3.650   0.029  0.1524  0.4205 -0.3137
18353SOL    HW162109   3.728   3.605   0.065  0.1671 -0.0642 -0.8758
18353SOL    HW262110   3.873   3.638   0.095  0.8848 -2.4829 -1.4356
18354SOL     OW62111  11.333   4.728  10.684 -0.1160 -0.7571 -0.4113
18354SOL    HW162112  11.358   4.758  10.771  0.4598 -2.2084 -0.0432
18354SOL    HW262113  11.282   4.648  10.700 -0.0319 -1.0247 -1.4036
18355SOL     OW62114   7.133   3.399   9.754  0.5808  0.1106  0.0590
18355SOL    HW162115   7.167   3.429   9.838  0.4305  0.0343  0.1469
18355SOL    HW262116   7.131   3.477   9.700  2.4688 -0.1499 -0.4844
18356SOL     OW62117   5.351   1.061   3.264  0.9036 -0.3473 -0.3470
18356SOL    HW162118   5.401   1.089   3.339 -0.3461  0.3291  0.2663
18356SOL    HW262119   5.416   1.030   3.201  1.9502 -1.3305  1.1557
18357SOL     OW62120  11.347  11.330   3.284 -0.9599 -0.6116  0.1109
18357SOL    HW162121  11.309  11.255   3.240 -1.6211  0.4645 -1.2078
18357SOL    HW262122  11.388  11.293   3.363 -0.0897 -2.5241 -1.1684
18358SOL     OW62123   6.733   0.090   3.587 -0.3902 -0.5722 -0.3567
18358SOL    HW162124   6.724   0.184   3.571 -1.5043 -0.3702  1.2341
18358SOL    HW262125   6.682   0.050   3.517 -1.5137  0.0981  0.0490
18359SOL     OW62126   1.372   8.012  10.754  0.5911  0.0823  0.6018
18359SOL    HW162127   1.410   8.015  10.667  0.0195 -0.9831  0.2960
18359SOL    HW262128   1.444   8.033  10.813  1.0702  0.4351 -0.0992
18360SOL     OW62129   9.858   0.435   0.732 -0.4246 -0.7165  0.1324
18360SOL    HW162130   9.768   0.411   0.756  0.2946 -1.3493  2.5042
18360SOL    HW262131   9.883   0.500   0.797  0.5520  0.1589 -1.0807
18361SOL     OW62132   4.318  11.150   8.854 -0.3153 -0.7638 -0.2540
18361SOL    HW162133   4.368  11.110   8.925  0.7411 -1.7365 -1.4952
18361SOL    HW262134   4.371  11.134   8.776 -1.5504  0.0757 -1.2959
18362SOL     OW62135   9.265  11.248  10.485  0.1447  0.3034 -0.7521
18362SOL    HW162136   9.321  11.279  10.556  0.0817  0.3568 -0.7262
18362SOL    HW262137   9.187  11.303  10.489  0.3918  0.6971 -1.2322
18363SOL     OW62138  11.083   3.543   8.847  0.0026 -0.4652  0.2294
18363SOL    HW162139  11.023   3.589   8.905  0.5299  0.1210  0.3237
18363SOL    HW262140  11.131   3.613   8.802  1.2837 -0.9077  0.8485
18364SOL     OW62141   1.707   7.179   5.330  0.0563 -1.0310 -0.1494
18364SOL    HW162142   1.798   7.163   5.356  0.1558 -1.0518 -0.5056
18364SOL    HW262143   1.713   7.245   5.261 -0.1602 -1.3744 -0.5048
18365SOL     OW62144  11.228   8.142   5.986  0.0582  0.0334 -0.6084
18365SOL    HW162145  11.319   8.157   5.961  0.0131 -0.7182 -1.2483
18365SOL    HW262146  11.206   8.217   6.041  0.8879  0.5114 -0.9107
18366SOL     OW62147   9.584  11.007   0.545 -0.2623 -0.2200  0.1675
18366SOL    HW162148   9.675  11.021   0.570 -0.8566  3.1675  0.8217
18366SOL    HW262149   9.572  10.912   0.551  2.8382 -0.6489  1.2830
18367SOL     OW62150   2.933  11.687   1.310 -0.1707 -0.1375 -0.5098
18367SOL    HW162151   2.925  11.714   1.218  0.1791  0.1348 -0.4655
18367SOL    HW262152   2.868  11.740   1.356  0.2054  0.3242 -0.4894
18368SOL     OW62153   8.999   0.243   2.767 -0.2657 -0.4265  0.1328
18368SOL    HW162154   9.013   0.313   2.831  0.1880  0.7622 -1.1981
18368SOL    HW262155   9.070   0.256   2.703 -1.0453 -1.2032 -0.9143
18369SOL     OW62156  12.348  10.358  12.465  0.0352 -0.3307 -0.0529
18369SOL    HW162157  12.260  10.392  12.481  0.1690  0.0418 -0.0861
18369SOL    HW262158  12.359  10.367  12.370  0.9487  1.7604  0.1948
18370SOL     OW62159   9.096   1.513  10.971  0.9889 -0.1126 -0.3514
18370SOL    HW162160   9.076   1.606  10.980  0.9685 -0.1739  0.2290
18370SOL    HW262161   9.184   1.504  11.007  0.5663 -0.5036  0.6032
18371SOL     OW62162   2.150  12.552   2.879  0.1148 -0.0308  0.5177
18371SOL    HW162163   2.242  12.533   2.898 -0.0192 -0.2210  0.9847
18371SOL    HW262164   2.114  12.470   2.846  0.0193 -0.0598  0.6925
18372SOL     OW62165   4.665   5.894  10.634 -0.0337 -0.0203  0.0109
18372SOL    HW162166   4.645   5.901  10.541 -1.0581 -0.9522  0.1364
18372SOL    HW262167   4.744   5.840  10.638  0.8718  1.2265 -0.3608
18373SOL     OW62168  11.185  10.228  10.402 -0.3657 -0.0488 -0.0208
18373SOL    HW162169  11.148  10.152  10.448  0.3353 -0.9960 -0.9691
18373SOL    HW262170  11.263  10.250  10.453  0.2846 -0.9534 -0.6000
18374SOL     OW62171   6.686  11.854   6.991 -0.4462 -0.3295 -0.1797
18374SOL    HW162172   6.678  11.913   7.067 -0.9428 -1.0680  0.3557
18374SOL    HW262173   6.599  11.854   6.951 -0.8374 -1.7132  0.6085
18375SOL     OW62174  10.684  11.790   8.174 -0.0938  0.3970 -0.1477
18375SOL    HW162175  10.659  11.881   8.155 -0.3257  0.1883 -0.8513
18375SOL    HW262176  10.604  11.750   8.208 -0.3652  0.0948 -1.1218
18376SOL     OW62177   0.400   9.590   9.246 -0.2561 -0.9779 -0.0795
18376SOL    HW162178   0.382   9.534   9.171 -2.0343 -0.4973 -0.0395
18376SOL    HW262179   0.494   9.607   9.241  0.0292 -2.6219 -1.0026
18377SOL     OW62180   5.396  12.028   6.568 -0.2362  0.4378  0.2874
18377SOL    HW162181   5.439  12.114   6.573 -1.3481  0.9695  1.2307
18377SOL    HW262182   5.398  12.006   6.475  0.4198  1.2974  0.0818
18378SOL     OW62183   2.577  11.137   8.995  0.5087 -0.0212 -0.4044
18378SOL    HW162184   2.544  11.141   9.084  2.0393  0.8345  0.1585
18378SOL    HW262185   2.585  11.043   8.976  2.6863 -0.2690  1.3793
18379SOL     OW62186   1.742  10.153   1.987  0.2363 -0.6979 -0.2917
18379SOL    HW162187   1.756  10.217   1.918 -0.3827 -1.9437 -1.6316
18379SOL    HW262188   1.664  10.105   1.959  0.3092 -1.6110  0.9898
18380SOL     OW62189   9.724   8.985   2.208  0.0077 -0.5851  0.3842
18380SOL    HW162190   9.665   9.055   2.236 -0.5930 -0.5542 -0.8966
18380SOL    HW262191   9.808   9.030   2.192 -0.4719 -0.0616 -0.7916
18381SOL     OW62192  10.183   1.258   8.783 -0.1322 -0.2049 -0.0186
18381SOL    HW162193  10.087   1.259   8.786 -0.1373  0.5358 -0.2749
18381SOL    HW262194  10.204   1.234   8.692 -0.0805  0.1445 -0.1016
18382SOL     OW62195  10.157  11.283   2.876 -0.0442 -0.2576  0.2343
18382SOL    HW162196  10.104  11.289   2.957  0.1774  1.6462  0.2961
18382SOL    HW262197  10.125  11.204   2.832 -1.0946 -0.6055  1.5500
18383SOL     OW62198   9.148   4.477  10.896  0.0208  0.1631 -0.1132
18383SOL    HW162199   9.109   4.433  10.972  0.2296  0.7302  0.3269
18383SOL    HW262200   9.242   4.463  10.907 -0.0066 -0.5705 -0.7804
18384SOL     OW62201  12.148  11.694   2.622 -0.5059  0.2958 -0.1604
18384SOL    HW162202  12.118  11.633   2.555 -3.0595  2.0104 -0.7332
18384SOL    HW262203  12.237  11.716   2.596 -0.9169 -0.2145 -2.1533
18385SOL     OW62204  11.970   1.289  10.972  0.5618  0.1171 -0.3334
18385SOL    HW162205  12.029   1.218  10.998 -0.1815 -0.4548 -0.1864
18385SOL    HW262206  12.023   1.344  10.914  1.1303 -0.5760 -0.4819
18386SOL     OW62207   6.531   9.211   0.257  0.0451  0.0865 -0.0325
18386SOL    HW162208   6.555   9.276   0.324 -1.1709  0.2196  0.2971
18386SOL    HW262209   6.443   9.182   0.282 -0.5093  0.2620 -1.6803
18387SOL     OW62210   1.882  12.129   5.719  0.2585 -0.6689  0.6867
18387SOL    HW162211   1.950  12.138   5.653 -1.3229  1.1333 -0.8045
18387SOL    HW262212   1.805  12.170   5.680 -1.7310 -2.6385  2.2826
18388SOL     OW62213   1.390   5.091  11.763  0.4716  0.5457  0.2722
18388SOL    HW162214   1.460   5.150  11.736  1.2882 -1.3665 -2.1696
18388SOL    HW262215   1.397   5.016  11.703 -1.3665 -1.4091  2.3005
18389SOL     OW62216  10.734   7.605   1.947  0.3784 -0.1752 -0.2566
18389SOL    HW162217  10.724   7.582   1.855  0.2973  0.1057 -0.3194
18389SOL    HW262218  10.822   7.643   1.953  0.5977 -0.6916 -0.1113
18390SOL     OW62219   2.497   8.916   1.598  0.1881  0.7076 -0.1756
18390SOL    HW162220   2.482   8.924   1.504  0.3080  2.0075 -0.1102
18390SOL    HW262221   2.434   8.850   1.627 -0.3584  0.8268 -1.0561
18391SOL     OW62222   0.623   6.771  11.605  0.0204  0.0591  0.1999
18391SOL    HW162223   0.612   6.690  11.654  0.9405  0.4346  1.0621
18391SOL    HW262224   0.657   6.834  11.669  1.0177  0.6334 -0.8537
18392SOL     OW62225   2.285  10.844   2.810 -0.4040 -0.1324  0.2967
18392SOL    HW162226   2.245  10.771   2.857  0.4377  0.0146  1.2767
18392SOL    HW262227   2.355  10.875   2.868  1.3795 -0.5946 -1.4917
18393SOL     OW62228   9.298  12.566   7.085  0.1386 -0.0015 -0.0983
18393SOL    HW162229   9.263  12.485   7.047  1.1994 -0.6840  0.3304
18393SOL    HW262230   9.346  12.608   7.014  0.8949 -0.5449  0.0811
18394SOL     OW62231   1.513   4.599   6.860 -0.1772  0.5940  0.3633
18394SOL    HW162232   1.567   4.639   6.792  0.4264  0.6849  0.8849
18394SOL    HW262233   1.429   4.583   6.817  0.1836  0.6644 -0.3952
18395SOL     OW62234   6.990  12.583  11.944  0.1877  0.4231  0.4988
18395SOL    HW162235   7.000  12.517  12.013  0.2516 -1.0168 -0.8354
18395SOL    HW262236   7.080  12.602  11.917  0.1226  0.3230  0.2106
18396SOL     OW62237   2.370   3.524   1.503  0.0756  0.1323 -0.1830
18396SOL    HW162238   2.291   3.490   1.461  0.8927 -1.7674 -0.2901
18396SOL    HW262239   2.433   3.452   1.496  1.9038  1.6681 -0.3270
18397SOL     OW62240   7.886  12.589   4.920  0.1663 -0.2521  0.5144
18397SOL    HW162241   7.808  12.540   4.947 -0.5100  0.9902  0.9095
18397SOL    HW262242   7.942  12.590   4.999 -0.1106  0.1488  0.7095
18398SOL     OW62243   3.595   7.556  10.938  0.1620  0.5443 -0.2724
18398SOL    HW162244   3.654   7.510  10.998  0.6710 -0.6758 -1.6576
18398SOL    HW262245   3.507   7.537  10.972  0.3899 -1.0440 -0.4957
18399SOL     OW62246  10.258   0.598   0.555 -0.4171 -0.0796 -0.0132
18399SOL    HW162247  10.267   0.659   0.628  1.3349  0.1029 -0.3567
18399SOL    HW262248  10.206   0.526   0.591 -0.9256  0.7391  0.9356
18400SOL     OW62249   9.231  12.363   0.718 -0.1824 -0.7763  0.7798
18400SOL    HW162250   9.225  12.439   0.777 -2.1808 -0.3276  0.0738
18400SOL    HW262251   9.325  12.351   0.704  0.2448  3.1056 -1.0179
18401SOL     OW62252   0.418  12.389   9.076 -0.0718 -0.1341 -0.2788
18401SOL    HW162253   0.382  12.364   8.991 -1.7163  2.0484 -0.3078
18401SOL    HW262254   0.483  12.456   9.055 -0.5148  0.4405  0.1677
18402SOL     OW62255   1.261  11.927  10.461  0.4704  0.1663 -0.7525
18402SOL    HW162256   1.205  12.001  10.486 -0.9196 -1.0444 -0.1592
18402SOL    HW262257   1.340  11.937  10.515  0.3034  1.1977 -0.6810
18403SOL     OW62258  11.936   7.951  12.299 -0.3033  0.3217  0.4209
18403SOL    HW162259  11.882   8.030  12.301 -0.1843  0.4258 -0.1547
18403SOL    HW262260  11.974   7.951  12.211  0.0080 -0.1693  0.5526
18404SOL     OW62261  12.089   5.026   0.529  0.1790  0.2297 -0.1738
18404SOL    HW162262  12.119   5.015   0.439 -0.1937 -0.3999 -0.2221
18404SOL    HW262263  12.048   4.942   0.552  1.0528  0.0628  0.8757
18405SOL     OW62264  10.587   0.864   1.397 -0.2390  0.0847  0.1374
18405SOL    HW162265  10.611   0.924   1.467  2.3105  0.3344 -0.8529
18405SOL    HW262266  10.608   0.777   1.431 -1.1228 -0.0097  0.4719
18406SOL     OW62267   2.421   0.247   8.664  0.1956 -0.0893 -0.3637
18406SOL    HW162268   2.348   0.209   8.712 -0.5928  0.1914 -1.3209
18406SOL    HW262269   2.491   0.182   8.671 -0.2129 -0.4574  0.3667
18407SOL     OW62270   9.567   8.516   5.748  0.0120 -0.1779 -0.2358
18407SOL    HW162271   9.480   8.502   5.784  0.2985  1.8103  1.4700
18407SOL    HW262272   9.622   8.451   5.792 -0.0087  0.9370  1.5248
18408SOL     OW62273   3.748  11.135  11.861 -0.3129  0.1830 -0.2930
18408SOL    HW162274   3.802  11.096  11.929  0.5842  0.0517 -1.0667
18408SOL    HW262275   3.658  11.120  11.891 -0.0506 -2.7723 -0.6686
18409SOL     OW62276   0.471  10.188   5.250 -0.3332 -0.1968  0.3728
18409SOL    HW162277   0.510  10.129   5.315  1.6468 -0.6470 -1.1378
18409SOL    HW262278   0.378  10.191   5.273 -0.2798 -2.9244  1.2542
18410SOL     OW62279   8.354   0.444   2.826  0.0647 -0.1726  0.1819
18410SOL    HW162280   8.292   0.388   2.872 -0.0259 -0.9614 -0.8503
18410SOL    HW262281   8.323   0.533   2.840  0.0516 -0.3816  1.6257
18411SOL     OW62282  10.709   1.301   9.315 -0.4650 -0.7243 -0.2692
18411SOL    HW162283  10.802   1.281   9.301 -0.3391  0.2377 -0.8726
18411SOL    HW262284  10.696   1.286   9.409  0.4470 -0.2933 -0.0616
18412SOL     OW62285   5.482   7.443   1.870  0.0550 -0.4896 -0.0121
18412SOL    HW162286   5.414   7.508   1.857  0.3728 -0.0666  0.3804
18412SOL    HW262287   5.517   7.462   1.958  0.0092 -1.3198  0.1953
18413SOL     OW62288  10.277   4.799   6.685  0.0485 -0.4469 -0.4043
18413SOL    HW162289  10.334   4.765   6.754 -1.0094 -0.1504  0.6419
18413SOL    HW262290  10.245   4.721   6.640  2.5832 -0.5992 -2.1678
18414SOL     OW62291   5.575   6.717   9.843  0.1970  0.1706  0.1102
18414SOL    HW162292   5.506   6.689   9.783  0.0216 -0.5124  0.6152
18414SOL    HW262293   5.656   6.707   9.793 -0.1250  1.9968 -0.8531
18415SOL     OW62294   8.659  12.224   7.154 -0.3972 -0.2056  0.1388
18415SOL    HW162295   8.694  12.138   7.132 -1.0593 -0.1208 -1.4083
18415SOL    HW262296   8.708  12.252   7.231  1.8817 -0.7079 -1.0513
18416SOL     OW62297  12.213  10.404   5.823 -0.1975  0.1709  0.1216
18416SOL    HW162298  12.152  10.437   5.757  1.2502 -0.8854 -1.8119
18416SOL    HW262299  12.157  10.357   5.885 -1.3715 -0.9940 -1.7347
18417SOL     OW62300   8.788   8.630   4.381  0.1671  0.0756  0.0353
18417SOL    HW162301   8.759   8.609   4.469  0.1530 -3.2688 -0.6454
18417SOL    HW262302   8.881   8.607   4.380  0.6537  1.9237 -0.3337
18418SOL     OW62303   0.629   1.771   7.505 -0.4362 -0.3168  0.0698
18418SOL    HW162304   0.724   1.783   7.503 -0.5218  0.7829  1.2488
18418SOL    HW262305   0.596   1.824   7.433 -0.2646  0.7624  0.7615
18419SOL     OW62306   7.491   1.446   8.875  0.1150 -0.0480  0.3275
18419SOL    HW162307   7.481   1.417   8.784 -3.8220  0.5874  0.4042
18419SOL    HW262308   7.522   1.536   8.868  0.1898 -0.1202 -0.3396
18420SOL     OW62309   0.296   9.570   2.884 -0.0133  0.0783 -0.4598
18420SOL    HW162310   0.231   9.639   2.894  0.7551  0.8724 -0.8051
18420SOL    HW262311   0.280   9.534   2.797 -0.0133  0.2522 -0.5333
18421SOL     OW62312   5.764   9.091   0.752  0.5260  0.2774  0.4719
18421SOL    HW162313   5.698   9.125   0.691  1.4707 -0.4180 -1.0045
18421SOL    HW262314   5.715   9.033   0.810  0.0219 -1.8083 -1.8289
18422SOL     OW62315   2.966   0.521   4.715 -0.1246  0.4093 -0.1017
18422SOL    HW162316   3.016   0.543   4.637 -0.3965  0.8469 -0.1579
18422SOL    HW262317   3.020   0.550   4.788  0.4661 -0.6876 -0.0956
18423SOL     OW62318   0.670   8.330   9.121 -0.4493 -0.1163 -0.3918
18423SOL    HW162319   0.648   8.368   9.035 -2.7788  1.3352  0.7325
18423SOL    HW262320   0.586   8.300   9.156  0.5398 -1.2171  1.1672
18424SOL     OW62321   0.824   3.824  11.038  0.4074 -0.1731 -0.1190
18424SOL    HW162322   0.871   3.740  11.042 -0.1278 -0.5200 -0.8794
18424SOL    HW262323   0.810   3.848  11.129  0.6565 -0.8625  0.1075
18425SOL     OW62324  10.216   9.678   0.230 -0.1652  0.6078  0.2092
18425SOL    HW162325  10.299   9.665   0.275 -1.1624  0.9652  2.2934
18425SOL    HW262326  10.224   9.765   0.190  0.3869  0.7277  0.5652
18426SOL     OW62327   8.963   9.479   6.787  0.0348  0.3208 -0.0948
18426SOL    HW162328   9.055   9.498   6.803 -0.6559  2.5180  1.9203
18426SOL    HW262329   8.928   9.455   6.873 -1.7086  1.8500 -0.3193
18427SOL     OW62330   6.594  10.192   0.881 -0.1133  0.3864  0.0853
18427SOL    HW162331   6.657  10.253   0.842  0.8007 -0.3570  0.3400
18427SOL    HW262332   6.593  10.214   0.974 -1.1048  1.1373 -0.0926
18428SOL     OW62333   5.069   0.988   3.757  0.0601  0.2644  0.2499
18428SOL    HW162334   5.131   0.929   3.713  1.1030  1.1758  0.4451
18428SOL    HW262335   5.102   1.076   3.738 -0.0367  0.7231  1.9856
18429SOL     OW62336   1.207   9.731   7.292  0.1470  0.4413  0.2267
18429SOL    HW162337   1.113   9.729   7.310 -0.0873 -1.0584 -0.9918
18429SOL    HW262338   1.245   9.670   7.356  0.1678  0.3165  0.0956
18430SOL     OW62339   5.823   1.122   5.839  0.2488 -0.0703 -0.4209
18430SOL    HW162340   5.918   1.134   5.837  0.4453 -1.2338 -3.4695
18430SOL    HW262341   5.808   1.059   5.908  1.9421 -1.2076 -1.0281
18431SOL     OW62342   3.685  12.201  11.086 -0.2145  0.0322  0.1177
18431SOL    HW162343   3.742  12.278  11.085  0.5903 -0.5462 -0.0787
18431SOL    HW262344   3.678  12.178  11.178 -0.5763  0.4199  0.1905
18432SOL     OW62345   3.071   4.268   3.314 -0.3133 -0.5204 -0.0512
18432SOL    HW162346   3.135   4.212   3.359 -1.1232 -0.4109  1.2791
18432SOL    HW262347   3.122   4.344   3.285  0.2708 -0.7018  0.4846
18433SOL     OW62348  10.290   4.584  11.149 -0.0944  0.4582 -0.2901
18433SOL    HW162349  10.223   4.650  11.130 -1.0344 -0.6951 -1.0530
18433SOL    HW262350  10.347   4.627  11.214 -0.0306  2.4255 -1.5356
18434SOL     OW62351   0.748   8.953  11.003  0.1571  0.9808  0.9701
18434SOL    HW162352   0.698   8.922  10.928  1.0109 -0.2380  0.8747
18434SOL    HW262353   0.828   8.989  10.965  0.5085  0.5292  1.2672
18435SOL     OW62354  10.798   6.788   9.161 -0.3822  0.2990 -0.5433
18435SOL    HW162355  10.715   6.831   9.142 -1.3441 -1.1727  0.1321
18435SOL    HW262356  10.851   6.802   9.082 -0.9697  1.9182 -0.6776
18436SOL     OW62357   7.746   4.607   5.331 -0.1752  0.6276 -0.7644
18436SOL    HW162358   7.782   4.696   5.328  0.0952  0.5511  0.1216
18436SOL    HW262359   7.728   4.586   5.239  1.4951  0.8954 -1.1963
18437SOL     OW62360   1.352   7.913   7.221  0.1970 -0.6898 -0.2384
18437SOL    HW162361   1.385   7.988   7.171 -0.5247  0.3683  0.8135
18437SOL    HW262362   1.420   7.895   7.285 -0.5507  0.5406  0.9623
18438SOL     OW62363   7.650  12.190   0.817  0.5072  0.1553  0.4287
18438SOL    HW162364   7.702  12.198   0.897  0.8391 -2.6205  0.5742
18438SOL    HW262365   7.697  12.241   0.752  1.2303  0.9346  1.5343
18439SOL     OW62366   2.108   8.613   3.804  0.6261 -0.2828 -0.0737
18439SOL    HW162367   2.156   8.648   3.729  1.1020  0.4171  0.5369
18439SOL    HW262368   2.040   8.557   3.766  0.6156  0.3651 -1.0378
18440SOL     OW62369  11.673   1.426   1.470  0.0076 -0.4323  0.2813
18440SOL    HW162370  11.673   1.517   1.497  0.5286 -0.1876 -0.4893
18440SOL    HW262371  11.692   1.429   1.376 -0.8894 -1.2822  0.0490
18441SOL     OW62372   4.498  11.760   7.761 -0.2162  0.1076 -0.4432
18441SOL    HW162373   4.523  11.675   7.725 -0.0310  0.6865 -1.7328
18441SOL    HW262374   4.470  11.740   7.851 -0.8996 -1.4203 -0.9531
18442SOL     OW62375   7.437   7.399  11.348  0.3271  0.4514  0.3540
18442SOL    HW162376   7.438   7.412  11.443  1.8781 -0.6694  0.5335
18442SOL    HW262377   7.527   7.418  11.321 -0.1958  1.1383 -0.9682
18443SOL     OW62378  12.168   6.740   8.366 -0.5746  0.4080  0.8210
18443SOL    HW162379  12.100   6.755   8.300 -0.8321  0.2544  1.0494
18443SOL    HW262380  12.128   6.767   8.448 -1.2279 -1.9141  1.3257
18444SOL     OW62381   0.881   2.009   1.393 -0.3722 -0.4463 -0.1622
18444SOL    HW162382   0.806   2.042   1.342  0.0152  0.2993 -0.2642
18444SOL    HW262383   0.912   1.934   1.344 -0.6304 -0.3436 -0.4912
18445SOL     OW62384   8.930  10.018  10.675 -0.1908 -0.3529  0.0729
18445SOL    HW162385   9.023   9.998  10.669  0.1995  1.3243  0.0821
18445SOL    HW262386   8.915  10.082  10.606 -1.5259 -1.1769 -0.4436
18446SOL     OW62387  10.540   9.576   3.119  1.1136 -0.0068 -0.2141
18446SOL    HW162388  10.482   9.505   3.147  1.3170 -0.1826 -0.2327
18446SOL    HW262389  10.488   9.625   3.055  0.9059 -0.0283 -0.0630
18447SOL     OW62390   9.196   3.664   2.031  0.3205 -0.0646 -0.2581
18447SOL    HW162391   9.104   3.689   2.042 -0.0369 -1.1848 -0.6199
18447SOL    HW262392   9.245   3.736   2.072 -0.7094  0.5331 -0.0388
18448SOL     OW62393   3.822  11.645   0.554  0.0747 -0.0270 -0.3068
18448SOL    HW162394   3.813  11.609   0.642 -0.0935  0.0511 -0.2903
18448SOL    HW262395   3.732  11.671   0.530  0.1837  0.3300 -0.3376
18449SOL     OW62396   9.616  10.961   8.361 -0.0989  0.1880 -0.2143
18449SOL    HW162397   9.582  10.918   8.283  2.6660 -0.2104 -1.3230
18449SOL    HW262398   9.611  10.894   8.429 -0.6077 -0.1544 -0.5815
18450SOL     OW62399  10.366   2.440   6.581  0.2187 -0.0019 -0.0875
18450SOL    HW162400  10.281   2.469   6.547 -0.0095  0.6754  1.0347
18450SOL    HW262401  10.390   2.365   6.525 -1.6326 -0.9241  0.2798
18451SOL     OW62402   7.204   9.415  11.821  0.0531 -0.3407  0.0228
18451SOL    HW162403   7.296   9.393  11.836  0.7368  0.5564 -2.3659
18451SOL    HW262404   7.176   9.458  11.902  0.9813 -2.6906  1.7098
18452SOL     OW62405   9.912   6.323   3.049  0.2506  0.6810 -0.1848
18452SOL    HW162406   9.873   6.409   3.037  1.5291  1.4606  0.9438
18452SOL    HW262407   9.916   6.311   3.144  1.6139  0.1258 -0.2862
18453SOL     OW62408  11.909   1.663   9.591  0.4201  0.5362  0.0179
18453SOL    HW162409  11.898   1.575   9.628  1.4785  1.1126  1.8396
18453SOL    HW262410  11.820   1.694   9.578 -0.0055 -0.0444  1.3261
18454SOL     OW62411   4.020   0.646   5.493  0.0400 -0.2639 -0.0052
18454SOL    HW162412   4.009   0.559   5.456 -0.9552 -0.9904  1.8432
18454SOL    HW262413   3.947   0.697   5.458 -0.6319 -0.8170  0.5479
18455SOL     OW62414   4.082  11.743   4.678 -0.0671  0.7779  0.6764
18455SOL    HW162415   4.151  11.807   4.659  1.0718 -0.2343  1.2501
18455SOL    HW262416   4.129  11.661   4.693 -1.4839 -0.2052 -0.0105
18456SOL     OW62417  11.039   2.214   8.166  0.2379 -0.2735 -0.0621
18456SOL    HW162418  10.959   2.204   8.115  0.0132 -0.8213  0.3895
18456SOL    HW262419  11.106   2.239   8.102 -0.1725 -0.3511 -0.5233
18457SOL     OW62420   2.448   7.707  12.077  0.1536  0.4204  0.0692
18457SOL    HW162421   2.424   7.728  12.167  2.1181 -1.5165  1.1276
18457SOL    HW262422   2.405   7.775  12.025 -2.5078  0.5873  2.2495
18458SOL     OW62423   2.060   3.924   4.824 -0.3265  0.5236  0.6033
18458SOL    HW162424   2.056   3.930   4.919  1.1149 -0.6267  0.7520
18458SOL    HW262425   2.151   3.905   4.804 -0.8399 -0.5507 -0.9363
18459SOL     OW62426  11.348   2.661   6.409 -0.6293  0.0358  0.5100
18459SOL    HW162427  11.300   2.578   6.406 -1.1024  0.3263 -0.0260
18459SOL    HW262428  11.282   2.727   6.428 -0.7467  0.6399 -1.6947
18460SOL     OW62429   3.829  10.060   6.892 -0.1834 -0.0459 -0.1480
18460SOL    HW162430   3.837  10.155   6.884 -0.8558 -0.1258 -2.7593
18460SOL    HW262431   3.749  10.039   6.844 -0.7350 -1.8469  1.4603
18461SOL     OW62432  11.442   9.451   8.570 -0.7308  0.3420 -0.2894
18461SOL    HW162433  11.380   9.519   8.542 -0.7857 -0.1063 -1.3359
18461SOL    HW262434  11.405   9.370   8.535  0.6912  0.1227 -1.3698
18462SOL     OW62435   7.741   8.120  11.017 -0.1389 -0.0487 -0.4009
18462SOL    HW162436   7.735   8.074  11.101 -2.1709 -1.0724 -1.0385
18462SOL    HW262437   7.819   8.176  11.026  0.4683 -1.1053  1.6497
18463SOL     OW62438   4.549   8.981   4.182  0.0005 -0.0495  0.4819
18463SOL    HW162439   4.617   8.996   4.248  1.6964 -2.5735 -0.5223
18463SOL    HW262440   4.588   9.011   4.100  0.0226 -1.5854 -0.1140
18464SOL     OW62441   5.641   8.135   4.223  0.1062  0.9044  0.1209
18464SOL    HW162442   5.714   8.104   4.170 -0.8639  1.3893 -1.5911
18464SOL    HW262443   5.576   8.166   4.159 -1.1361  1.5223  1.6008
18465SOL     OW62444   1.769   1.562   0.755 -0.8342 -0.3826 -0.0080
18465SOL    HW162445   1.752   1.523   0.841 -1.8120  0.9340  0.4302
18465SOL    HW262446   1.822   1.639   0.775 -0.2742 -0.5746 -0.7013
18466SOL     OW62447  10.280   2.160   6.185 -0.3481  0.4640 -0.2272
18466SOL    HW162448  10.196   2.204   6.175 -0.6350  0.5316  2.0389
18466SOL    HW262449  10.307   2.180   6.274  1.4534 -0.6592 -0.4745
18467SOL     OW62450   9.274   7.791  10.297  0.3108 -1.0379 -0.1731
18467SOL    HW162451   9.286   7.699  10.321 -1.2859 -0.9640  1.0903
18467SOL    HW262452   9.199   7.820  10.349 -0.2928  0.5271 -1.7894
18468SOL     OW62453  10.767   1.007   9.841  0.4077 -0.4317 -0.1642
18468SOL    HW162454  10.830   0.935   9.847  0.3665 -0.3888  1.0205
18468SOL    HW262455  10.820   1.084   9.820  0.7199 -0.4597  0.4928
18469SOL     OW62456   4.212   8.061   9.402  0.0409  0.3633 -0.8425
18469SOL    HW162457   4.133   8.049   9.349 -0.3309  3.6104 -1.1757
18469SOL    HW262458   4.284   8.061   9.339  0.2289 -1.2668 -0.6749
18470SOL     OW62459  11.730   6.744   9.276 -0.3468 -0.6033 -0.5284
18470SOL    HW162460  11.788   6.717   9.346 -0.4133 -1.2622 -0.7139
18470SOL    HW262461  11.717   6.837   9.289  0.5004 -0.5098 -0.3022
18471SOL     OW62462  11.934  10.682   2.662 -0.0627  0.1389  0.3814
18471SOL    HW162463  11.994  10.640   2.600  0.2207  1.3915 -0.2258
18471SOL    HW262464  11.856  10.626   2.662  0.1039 -0.1145 -0.7963
18472SOL     OW62465   8.568   8.542   8.335  0.5500  0.1738 -0.7089
18472SOL    HW162466   8.543   8.612   8.275 -2.1202 -0.7704 -0.8043
18472SOL    HW262467   8.559   8.582   8.422  1.0777  0.5397 -0.8182
18473SOL     OW62468   2.862   9.595   2.242 -0.2840  0.1185  0.1029
18473SOL    HW162469   2.883   9.666   2.180 -0.7896  0.0496 -0.1477
18473SOL    HW262470   2.899   9.625   2.325  0.6399  0.0884 -0.2880
18474SOL     OW62471   5.521   8.138  12.371 -0.9998 -0.1293  0.2333
18474SOL    HW162472   5.502   8.232  12.372 -1.6850 -0.2650  0.8725
18474SOL    HW262473   5.610   8.131  12.405 -1.5815  0.1705  1.8930
18475SOL     OW62474   8.997   3.008   2.464  0.1553  0.1440 -0.0299
18475SOL    HW162475   9.023   3.033   2.375  0.0206  0.0746 -0.0889
18475SOL    HW262476   8.908   3.042   2.473  0.5508  1.0995  0.4556
18476SOL     OW62477  11.497  11.565   6.650  0.2479  0.3455  0.1814
18476SOL    HW162478  11.592  11.554   6.648  0.3643  1.3496 -0.0376
18476SOL    HW262479  11.463  11.477   6.669  1.1310 -0.4193 -1.5877
18477SOL     OW62480   0.785   0.235  11.059 -0.5936 -0.3726  0.7278
18477SOL    HW162481   0.863   0.238  11.005 -1.1097  0.6319 -0.0132
18477SOL    HW262482   0.772   0.143  11.080 -0.8495 -0.9069 -1.5941
18478SOL     OW62483  12.232  10.166   4.714  0.3799  0.1549 -0.0791
18478SOL    HW162484  12.283  10.235   4.671 -1.3682  0.7349 -1.3554
18478SOL    HW262485  12.251  10.087   4.663 -1.6282  0.8252 -1.9948
18479SOL     OW62486  11.929   4.275  12.038  0.2661  0.0155  0.2981
18479SOL    HW162487  11.852   4.315  11.997 -0.8391 -2.7085 -0.4868
18479SOL    HW262488  12.002   4.305  11.984 -0.6294  0.1610 -0.8935
18480SOL     OW62489   2.115   4.967   3.246  0.5211 -0.2227 -0.2052
18480SOL    HW162490   2.136   4.894   3.188 -2.3130 -1.5450  0.2750
18480SOL    HW262491   2.127   4.932   3.334  1.6468  0.7616  0.0653
18481SOL     OW62492   0.781  10.708   0.785 -0.3679  0.0528  0.2373
18481SOL    HW162493   0.768  10.647   0.712 -0.4361 -1.1944  1.2711
18481SOL    HW262494   0.842  10.773   0.750  0.0809 -0.8611 -0.7474
18482SOL     OW62495   0.630   2.249  11.289 -0.1886  0.0901  0.1013
18482SOL    HW162496   0.649   2.287  11.375  2.6072 -1.4022  0.2660
18482SOL    HW262497   0.683   2.300  11.228 -1.1291  0.2895 -0.5591
18483SOL     OW62498   0.997   4.266   4.705  0.1644  0.2697 -0.0613
18483SOL    HW162499   1.072   4.260   4.647 -1.7032  0.9524 -2.7175
18483SOL    HW262500   0.996   4.183   4.753  2.0320 -0.1174 -0.6108
18484SOL     OW62501   0.883   7.510   6.098  0.2299 -0.0655  0.5972
18484SOL    HW162502   0.876   7.510   6.003  0.7971  1.5820  0.5270
18484SOL    HW262503   0.892   7.417   6.122 -1.3778 -0.6371 -0.8141
18485SOL     OW62504   9.382  12.449   4.922 -0.0492  0.0122  0.3124
18485SOL    HW162505   9.420  12.386   4.983  1.2429 -0.2050 -0.6584
18485SOL    HW262506   9.411  12.534   4.954 -0.8636  0.0367  0.9962
18486SOL     OW62507  11.473  11.175   5.921  0.4040 -0.2588  0.0060
18486SOL    HW162508  11.467  11.166   5.826  1.3094 -1.0076  0.0026
18486SOL    HW262509  11.391  11.138   5.954 -0.7117  1.6273 -0.5402
18487SOL     OW62510  12.191   4.798   5.669 -0.0721 -0.1249 -0.0396
18487SOL    HW162511  12.122   4.767   5.727  0.0849 -0.3738  0.0141
18487SOL    HW262512  12.197   4.732   5.600 -0.1985  0.1251 -0.2935
18488SOL     OW62513   9.578  11.684   6.977  0.4645 -0.3121  0.2900
18488SOL    HW162514   9.549  11.700   7.067  0.9292  0.5594  0.3007
18488SOL    HW262515   9.534  11.603   6.951 -1.2116  0.4303  0.6444
18489SOL     OW62516   3.399   7.946  12.516  0.2476 -0.1241 -0.0685
18489SOL    HW162517   3.341   7.894  12.571  0.1987 -0.5500 -0.5157
18489SOL    HW262518   3.431   7.885  12.450 -1.1498  0.7548 -1.6645
18490SOL     OW62519   3.859   1.606   8.753 -0.5391 -0.6566  0.2009
18490SOL    HW162520   3.793   1.588   8.820  0.5353 -0.9365  1.2276
18490SOL    HW262521   3.942   1.608   8.801 -0.0049  1.7857 -0.6969
18491SOL     OW62522   6.183   2.623  11.033  0.0196  0.9444  0.2039
18491SOL    HW162523   6.230   2.623  11.116 -0.4500  1.0980  0.4698
18491SOL    HW262524   6.238   2.570  10.975 -0.0675  0.1327  0.8435
18492SOL     OW62525   8.692  12.429   1.410 -0.2218 -0.2674  0.2790
18492SOL    HW162526   8.738  12.494   1.463  1.0877 -0.0512 -1.0682
18492SOL    HW262527   8.728  12.440   1.322 -1.3825 -1.5144 -0.3881
18493SOL     OW62528   6.488   6.216  11.153  0.3735  0.1237  0.5411
18493SOL    HW162529   6.440   6.276  11.095  0.3099 -0.4884 -0.0430
18493SOL    HW262530   6.570   6.198  11.107  0.9065  0.6677  1.2519
18494SOL     OW62531   7.424   5.333   2.753  0.3974 -0.4135 -0.3063
18494SOL    HW162532   7.410   5.264   2.818  0.7099  1.3272  1.7418
18494SOL    HW262533   7.351   5.393   2.766  0.5028  0.0060 -1.5659
18495SOL     OW62534   0.045   8.350   8.714  0.4166 -0.2286  0.5912
18495SOL    HW162535   0.080   8.430   8.752  0.5080  1.3122 -2.3922
18495SOL    HW262536   0.077   8.350   8.624 -1.1149 -2.6852 -0.0709
18496SOL     OW62537   9.542   5.743   4.332  0.0432  0.1979  0.4527
18496SOL    HW162538   9.451   5.726   4.358  0.7710 -2.7962  1.3630
18496SOL    HW262539   9.588   5.758   4.414  0.3708  2.0965 -0.0296
18497SOL     OW62540   3.201   2.907  12.493  0.2224  0.5267 -0.6988
18497SOL    HW162541   3.231   2.867  12.575 -0.5389  1.6215  0.1525
18497SOL    HW262542   3.169   2.993  12.519 -0.3683  0.7640 -2.1073
18498SOL     OW62543   9.833   3.008   7.011  0.0152 -0.1260  0.0251
18498SOL    HW162544   9.916   3.028   7.055 -0.8522 -1.0458  2.2016
18498SOL    HW262545   9.777   2.974   7.080 -2.1805  0.4027 -1.4062
18499SOL     OW62546   1.099   0.886   2.533  0.4520 -0.4810 -0.1906
18499SOL    HW162547   1.061   0.814   2.584  0.7724 -0.2576  0.3829
18499SOL    HW262548   1.025   0.944   2.515  0.4682 -0.1439  0.7554
18500SOL     OW62549   7.317   1.913  10.410  0.4102 -0.1010  0.2764
18500SOL    HW162550   7.258   1.897  10.336  0.0812 -1.1852  0.7519
18500SOL    HW262551   7.366   1.832  10.420 -0.3745 -0.4052  1.9663
18501SOL     OW62552   8.532   8.502  10.250  0.1356 -0.6484  0.0632
18501SOL    HW162553   8.609   8.510  10.193 -0.7163  3.6820 -0.8631
18501SOL    HW262554   8.468   8.563  10.212 -2.1534 -0.8371  3.1969
18502SOL     OW62555   0.465   2.473   8.495  0.4014  0.3766  0.1981
18502SOL    HW162556   0.408   2.397   8.489  1.5816 -0.5422  0.0573
18502SOL    HW262557   0.540   2.450   8.440 -0.6152  2.9952 -2.5409
18503SOL     OW62558   2.620   5.468   0.189  0.3536 -0.2376  0.1881
18503SOL    HW162559   2.580   5.490   0.105  0.6728  0.0299  0.1044
18503SOL    HW262560   2.660   5.550   0.218 -1.1790  0.1411  1.4043
18504SOL     OW62561   7.198   4.768   4.511 -0.1193 -1.0475  0.0282
18504SOL    HW162562   7.259   4.803   4.446 -0.3279  0.5466  0.6468
18504SOL    HW262563   7.140   4.841   4.532 -0.3416 -1.6503  1.6812
18505SOL     OW62564   0.451   8.555  12.455 -0.4538  0.1155 -0.3090
18505SOL    HW162565   0.500   8.596  12.384 -0.2694 -1.6449 -1.2664
18505SOL    HW262566   0.463   8.461  12.441 -2.1397 -0.3221  0.8391
18506SOL     OW62567   7.699   3.030  11.499 -0.1212 -0.7721  0.2202
18506SOL    HW162568   7.611   3.014  11.533 -0.1617  1.0820  1.0840
18506SOL    HW262569   7.688   3.033  11.404 -0.8255 -1.3990  0.2711
18507SOL     OW62570   4.432   6.770   1.455 -0.8436  0.2171  0.2594
18507SOL    HW162571   4.416   6.678   1.474  0.0813  0.0728  0.3886
18507SOL    HW262572   4.528   6.777   1.451 -0.9288  1.0034 -0.5852
18508SOL     OW62573   2.323   8.562   4.182  0.3603 -0.0310 -0.3083
18508SOL    HW162574   2.409   8.597   4.161  0.7011 -0.3561  0.5020
18508SOL    HW262575   2.271   8.577   4.104  1.4922 -0.9111 -1.2673
18509SOL     OW62576   5.682   7.151   0.820 -0.5078  0.0215  0.6380
18509SOL    HW162577   5.608   7.092   0.835 -0.3826 -0.2688  0.1115
18509SOL    HW262578   5.642   7.238   0.814 -1.2446 -0.4099 -2.7437
18510SOL     OW62579   8.218   2.039   1.438  0.3620 -0.2501 -0.2820
18510SOL    HW162580   8.228   2.100   1.512 -0.8843 -0.5209  0.1414
18510SOL    HW262581   8.250   2.088   1.363  1.5937  0.0562  0.4185
18511SOL     OW62582   2.404   3.183  11.152  0.1513 -0.2365 -0.0964
18511SOL    HW162583   2.360   3.267  11.160  1.5223  0.3971  1.2675
18511SOL    HW262584   2.440   3.166  11.239 -0.5034 -2.4909 -0.1935
18512SOL     OW62585   8.116   3.353   9.000 -0.2196 -0.0523 -0.8748
18512SOL    HW162586   8.196   3.302   8.984 -0.9794 -1.0714 -1.5792
18512SOL    HW262587   8.046   3.288   8.998 -1.0865  0.8476 -0.4111
18513SOL     OW62588   6.645   9.500  10.694 -0.2546 -0.5588  0.2831
18513SOL    HW162589   6.731   9.474  10.727  0.0964  0.4886  0.2357
18513SOL    HW262590   6.586   9.488  10.769  0.4261  1.2479  1.1698
18514SOL     OW62591   5.383   2.849  12.177 -0.7187 -0.4562 -0.0352
18514SOL    HW162592   5.431   2.774  12.143 -2.8104 -2.1099  0.4537
18514SOL    HW262593   5.437   2.880  12.251  0.4295 -1.1305 -0.5579
18515SOL     OW62594   4.343   9.234   0.366  0.3019  0.7231  0.2123
18515SOL    HW162595   4.292   9.315   0.370  1.6557  1.5654  1.5062
18515SOL    HW262596   4.372   9.219   0.456 -2.0834 -2.7281  0.5867
18516SOL     OW62597   7.170   3.729   5.936  0.0433  0.0968 -0.3281
18516SOL    HW162598   7.209   3.815   5.944 -0.7834  0.3258  2.1304
18516SOL    HW262599   7.084   3.745   5.897 -0.2730  0.4761  0.4955
18517SOL     OW62600   5.829  12.531   0.403 -0.3163 -0.3412  0.2499
18517SOL    HW162601   5.810  12.465   0.468 -0.4847 -1.1622 -0.6088
18517SOL    HW262602   5.746  12.546   0.358 -0.3346  0.6231  0.5800
18518SOL     OW62603   5.958  10.982   6.569 -0.3128 -0.5403  0.1051
18518SOL    HW162604   5.998  10.895   6.566 -0.3665 -0.5457 -0.6761
18518SOL    HW262605   6.003  11.027   6.641  0.8752 -0.6673 -0.5353
18519SOL     OW62606   5.962  10.775   9.740  0.2235  0.4390 -0.3286
18519SOL    HW162607   5.885  10.769   9.796  0.6282  1.4957  0.3696
18519SOL    HW262608   6.017  10.842   9.781  1.1208  0.3210 -1.2874
18520SOL     OW62609  12.136   3.237   0.643 -0.2292  0.0208  0.1884
18520SOL    HW162610  12.180   3.214   0.725  1.9921  2.1501 -0.2873
18520SOL    HW262611  12.200   3.217   0.575 -1.3439 -0.0136 -0.8921
18521SOL     OW62612   8.092   2.162   8.247  0.2149 -0.2494  0.3982
18521SOL    HW162613   8.142   2.104   8.303  0.5559  0.0326  0.3858
18521SOL    HW262614   8.127   2.249   8.264 -0.2990 -0.0444  0.4235
18522SOL     OW62615   5.722  12.142   6.612  0.1719  0.3164 -0.6156
18522SOL    HW162616   5.692  12.073   6.553  0.6316 -0.0714 -0.4091
18522SOL    HW262617   5.664  12.215   6.595 -0.3243 -0.1222 -0.8444
18523SOL     OW62618  10.120   3.393  11.798 -0.4181 -0.1125 -0.0627
18523SOL    HW162619  10.174   3.453  11.850  0.2638 -0.9985  0.2890
18523SOL    HW262620  10.053   3.362  11.859 -0.2502 -0.3511  0.0042
18524SOL     OW62621   3.856   5.272  10.711 -0.8512 -0.2345  0.2054
18524SOL    HW162622   3.933   5.328  10.698 -1.4273  0.9035  1.5497
18524SOL    HW262623   3.850   5.221  10.630  0.9664  0.0718 -0.1640
18525SOL     OW62624   4.101   4.461   1.466  0.5112 -0.5185 -0.2551
18525SOL    HW162625   4.106   4.375   1.509  1.0069 -0.8794 -1.0177
18525SOL    HW262626   4.056   4.517   1.529  1.1174 -1.0718  0.6893
18526SOL     OW62627   7.006   9.057  11.160  0.3506  0.6417  0.0839
18526SOL    HW162628   7.021   9.115  11.085  0.8186  0.6504  0.1745
18526SOL    HW262629   6.914   9.032  11.154  0.2672  1.0089 -0.2329
18527SOL     OW62630   2.723   5.950   6.726 -0.5403 -0.1472  0.0805
18527SOL    HW162631   2.675   5.873   6.756 -2.2153 -0.2672 -2.5904
18527SOL    HW262632   2.784   5.916   6.661 -0.9261  0.7117 -0.7466
18528SOL     OW62633   7.366   6.216   7.010  0.3470 -0.9942 -0.2021
18528SOL    HW162634   7.410   6.187   6.930  0.3476 -1.1267 -0.1554
18528SOL    HW262635   7.435   6.213   7.077  0.9027  1.1209 -0.5960
18529SOL     OW62636   8.270  10.637   5.046 -0.3359 -0.2499 -0.4325
18529SOL    HW162637   8.259  10.671   4.957  0.7193  0.6004 -0.2598
18529SOL    HW262638   8.305  10.549   5.034  0.3725  0.0809 -0.8677
18530SOL     OW62639  11.409   3.241   1.389 -0.0684  0.6356  0.8673
18530SOL    HW162640  11.436   3.211   1.475 -1.1321  1.8697  1.6663
18530SOL    HW262641  11.318   3.211   1.380  0.9063 -2.1774 -1.1589
18531SOL     OW62642   1.604  10.789   5.017 -0.3611 -0.6127  0.0571
18531SOL    HW162643   1.596  10.699   5.047  3.6282 -1.2391 -0.2482
18531SOL    HW262644   1.585  10.842   5.094 -0.8504 -1.7663  0.7550
18532SOL     OW62645   4.834   2.448   1.874 -0.1183  0.3835 -0.2494
18532SOL    HW162646   4.855   2.411   1.959  0.4856  0.5578 -0.3190
18532SOL    HW262647   4.752   2.406   1.849 -0.5985  0.7666  0.6728
18533SOL     OW62648   1.417   1.717   3.767  0.3959 -0.2505  0.2471
18533SOL    HW162649   1.497   1.769   3.754  0.5775 -0.6963 -0.4354
18533SOL    HW262650   1.441   1.629   3.739 -0.5953 -0.1982 -0.8408
18534SOL     OW62651   9.850   0.122   0.987  0.7990 -0.5687  0.1062
18534SOL    HW162652   9.808   0.047   1.028 -0.4491  0.2407  0.3658
18534SOL    HW262653   9.888   0.087   0.906  2.1233 -1.8993  1.2543
18535SOL     OW62654   5.461   0.586   6.805  1.1099  0.2889 -0.3897
18535SOL    HW162655   5.415   0.647   6.747 -0.0583  0.1532  0.3657
18535SOL    HW262656   5.497   0.641   6.875  0.8187  0.2207 -0.1850
18536SOL     OW62657   2.585   3.225   7.007  0.3418  0.4469 -0.3686
18536SOL    HW162658   2.642   3.241   6.932  0.6717 -0.6560 -0.3644
18536SOL    HW262659   2.563   3.132   7.001  0.8472  0.2032  1.2270
18537SOL     OW62660   8.986   5.186   1.689  0.5171  0.1504  0.1547
18537SOL    HW162661   9.051   5.169   1.757  0.3399  1.5716  0.7080
18537SOL    HW262662   9.038   5.208   1.612  0.7062  0.5676  0.3985
18538SOL     OW62663   6.844   7.072   3.301 -0.1149 -0.1184  0.0622
18538SOL    HW162664   6.794   7.029   3.371 -1.2795 -0.5928 -1.0274
18538SOL    HW262665   6.936   7.055   3.324 -0.4963 -1.2233  0.8811
18539SOL     OW62666   4.496  11.836  10.937  0.5508 -0.8991  0.1190
18539SOL    HW162667   4.494  11.844  11.032  1.3548  0.0308  0.0757
18539SOL    HW262668   4.589  11.825  10.915  0.9703  2.8546 -0.7770
18540SOL     OW62669   3.924   4.475   0.372  0.0282  0.3333  0.2821
18540SOL    HW162670   3.975   4.399   0.343  1.9202  1.5862  0.1086
18540SOL    HW262671   3.990   4.542   0.390 -1.5952  2.0765  0.0396
18541SOL     OW62672   2.978   2.238   6.188 -0.3977 -0.1273  0.1251
18541SOL    HW162673   2.995   2.145   6.204 -0.1759 -0.0796  0.1684
18541SOL    HW262674   2.904   2.259   6.245 -0.4511 -0.2776  0.1120
18542SOL     OW62675  10.053   1.039   0.013 -0.2227  0.2308 -0.3714
18542SOL    HW162676  10.016   1.045  -0.075 -1.2210  0.1700  0.0331
18542SOL    HW262677  10.147   1.053   0.001 -0.4138  0.6875 -1.3832
18543SOL     OW62678   3.204   7.471   4.831 -0.1344  0.0318  0.8616
18543SOL    HW162679   3.241   7.558   4.812  0.9817  0.2120  3.4062
18543SOL    HW262680   3.281   7.416   4.844 -0.8406 -1.1904  0.0244
18544SOL     OW62681   3.538  12.543   1.832  0.4644 -0.3999 -0.0051
18544SOL    HW162682   3.580  12.492   1.902 -0.6705  1.0222  1.8077
18544SOL    HW262683   3.454  12.570   1.869  0.4719  1.6917 -1.3485
18545SOL     OW62684  11.231   4.382   8.459  0.2312  0.1030 -0.4829
18545SOL    HW162685  11.293   4.313   8.433  0.6002  0.2462 -0.0029
18545SOL    HW262686  11.184   4.404   8.379 -1.0103 -1.8204 -0.3688
18546SOL     OW62687   1.691   0.186   7.024 -0.6069 -0.3028 -0.5731
18546SOL    HW162688   1.776   0.141   7.027  0.1596  1.1358  1.4330
18546SOL    HW262689   1.629   0.119   7.053  0.6028 -0.0837  3.1196
18547SOL     OW62690   2.017   7.320   1.074  0.2704  0.7829 -0.2562
18547SOL    HW162691   2.097   7.353   1.115  0.1036  1.7733 -0.6881
18547SOL    HW262692   2.010   7.370   0.992 -1.0877  1.1531  0.0551
18548SOL     OW62693   0.765   2.786   2.625 -0.1484  0.0714  0.4917
18548SOL    HW162694   0.743   2.726   2.553 -0.0995 -0.2939  0.7789
18548SOL    HW262695   0.689   2.781   2.684  0.4723 -0.8249  1.2461
18549SOL     OW62696   0.428   3.112   0.549  0.5362  0.0304  0.0181
18549SOL    HW162697   0.378   3.051   0.603  1.4196 -0.8606 -0.1337
18549SOL    HW262698   0.519   3.086   0.561  0.7084 -1.0507 -2.8432
18550SOL     OW62699   2.205   9.203   0.557 -0.4243 -0.0080 -0.3124
18550SOL    HW162700   2.228   9.159   0.476  0.8383 -0.5551  0.3059
18550SOL    HW262701   2.225   9.139   0.626  1.7610  1.5507  0.6437
18551SOL     OW62702   1.794  10.086   1.532  0.0132 -0.5008  0.1943
18551SOL    HW162703   1.716  10.067   1.584 -0.4523 -0.3564 -0.4383
18551SOL    HW262704   1.779  10.174   1.497  1.1304  0.1484  1.2753
18552SOL     OW62705   8.033   5.821  11.020  0.1099  0.3551  0.5917
18552SOL    HW162706   8.098   5.838  11.087 -1.0032  1.2652  1.4837
18552SOL    HW262707   7.958   5.875  11.045 -0.9830 -0.6446 -0.3979
18553SOL     OW62708   3.279  12.062  11.329 -0.3835 -0.2503  0.3900
18553SOL    HW162709   3.289  12.051  11.424 -2.2196 -1.2906  0.5130
18553SOL    HW262710   3.235  11.982  11.300  1.8494 -0.8695 -1.7020
18554SOL     OW62711  11.444   8.153   7.848  0.2038  0.0174  0.0266
18554SOL    HW162712  11.521   8.101   7.871  0.2208 -0.0440 -0.1725
18554SOL    HW262713  11.477   8.221   7.789  0.0568 -0.1885 -0.2962
18555SOL     OW62714   4.200  11.062   4.599 -0.2643  0.5744 -0.5789
18555SOL    HW162715   4.198  11.155   4.623 -0.3628  0.1786  1.0329
18555SOL    HW262716   4.118  11.027   4.633  1.0274 -0.6797  1.3708
18556SOL     OW62717   9.833   4.428   6.157  0.1364 -0.0597  0.4424
18556SOL    HW162718   9.764   4.470   6.210  0.0716 -0.2281  0.4934
18556SOL    HW262719   9.833   4.477   6.075  0.0104 -0.0068  0.4725
18557SOL     OW62720   8.361   7.250   4.787  0.6925 -0.0242 -0.2647
18557SOL    HW162721   8.297   7.270   4.855  0.5899 -1.1963  0.0099
18557SOL    HW262722   8.374   7.332   4.741 -0.3973  0.4240  0.1983
18558SOL     OW62723  10.238   2.752  11.119 -0.4110 -0.2949  0.3031
18558SOL    HW162724  10.166   2.794  11.165  0.5624  1.5498  0.2442
18558SOL    HW262725  10.251   2.805  11.040 -0.4366 -1.9299 -0.8658
18559SOL     OW62726  11.225   1.036   5.984 -0.4141  0.2418  0.2346
18559SOL    HW162727  11.224   1.017   5.890 -0.5227  0.6155  0.1586
18559SOL    HW262728  11.309   1.079   5.999 -0.8985  1.2785  0.0825
18560SOL     OW62729   2.873  11.652   4.080  0.1495 -0.2055  0.1928
18560SOL    HW162730   2.902  11.564   4.057 -0.8088 -0.3430 -0.5615
18560SOL    HW262731   2.952  11.705   4.075  0.7624 -1.0335  0.7782
18561SOL     OW62732   1.905  11.436   4.134  0.2915  0.4282 -0.2340
18561SOL    HW162733   1.920  11.510   4.075  1.0791 -1.0297 -1.9791
18561SOL    HW262734   1.813  11.412   4.120 -0.8893  2.7803  2.5253
18562SOL     OW62735   2.474   8.459   2.427 -0.1852  0.2090 -0.2781
18562SOL    HW162736   2.528   8.382   2.446 -0.4836  0.4199  1.5967
18562SOL    HW262737   2.535   8.532   2.431 -0.2849  0.2743  0.1236
18563SOL     OW62738   4.214   5.070   5.130 -0.3569 -0.1231 -0.0841
18563SOL    HW162739   4.303   5.061   5.096 -0.2395  1.1212 -0.1235
18563SOL    HW262740   4.166   5.117   5.062 -0.7901  0.1029  0.3721
18564SOL     OW62741   3.137   5.172  10.366  0.0458  0.0401  0.3183
18564SOL    HW162742   3.176   5.085  10.351  0.8103  0.3190  0.6220
18564SOL    HW262743   3.128   5.177  10.461  1.6537  0.9656  0.4628
18565SOL     OW62744   3.521  12.419   6.436 -0.4489  0.0752  0.1079
18565SOL    HW162745   3.460  12.430   6.508 -0.7143 -0.8049  0.0296
18565SOL    HW262746   3.472  12.445   6.358 -0.7247 -0.6263  0.0459
18566SOL     OW62747   7.075  10.852   0.964 -0.1794  0.2819 -0.3354
18566SOL    HW162748   7.053  10.937   1.002 -2.5918 -0.9281  1.2258
18566SOL    HW262749   7.127  10.809   1.032 -0.2806 -0.0590 -0.4749
18567SOL     OW62750   1.262   2.633   5.008  0.2017 -0.0357  0.7572
18567SOL    HW162751   1.287   2.619   5.099  1.2899 -0.0009  0.4886
18567SOL    HW262752   1.345   2.629   4.960 -0.3144  0.2514 -0.1928
18568SOL     OW62753   6.958  11.062   2.820 -1.1887 -0.3055 -0.2544
18568SOL    HW162754   6.976  11.103   2.905 -1.9485  1.1650 -0.7588
18568SOL    HW262755   6.949  11.136   2.760 -2.7788 -1.2170 -1.1938
18569SOL     OW62756  12.484   5.483  10.349 -0.5328  0.3474 -0.2698
18569SOL    HW162757  12.570   5.448  10.372 -0.0675  1.1614 -0.7240
18569SOL    HW262758  12.427   5.455  10.421 -0.1382 -1.1025 -0.4842
18570SOL     OW62759   2.670   1.560   4.138 -0.3056 -0.4668 -0.0560
18570SOL    HW162760   2.684   1.468   4.114 -2.2763 -1.1179  1.0692
18570SOL    HW262761   2.586   1.582   4.098  0.7550  1.3358 -1.4614
18571SOL     OW62762   8.391   2.511   1.277  0.6598  0.2927  0.2663
18571SOL    HW162763   8.420   2.443   1.338  1.1999 -0.6983 -1.0521
18571SOL    HW262764   8.471   2.554   1.250  0.5080  0.1817 -0.3613
18572SOL     OW62765   6.357  10.290   0.261  0.2120  0.2830  0.2938
18572SOL    HW162766   6.354  10.375   0.217  0.3119  0.5363  0.7752
18572SOL    HW262767   6.429  10.243   0.217 -0.2071  0.2328 -0.3483
18573SOL     OW62768   6.430   9.758  11.340 -0.0036 -0.0504 -0.6728
18573SOL    HW162769   6.408   9.755  11.433  1.4325 -0.4875 -0.3240
18573SOL    HW262770   6.434   9.666  11.313  1.8349 -0.0301 -0.5786
18574SOL     OW62771   1.755   9.035   3.527  0.1708  0.4821  0.5640
18574SOL    HW162772   1.828   8.995   3.575 -0.2487  0.2320  1.0033
18574SOL    HW262773   1.747   9.122   3.566 -0.0868  0.3260  0.8585
18575SOL     OW62774   2.005   1.832  11.883 -0.3670  0.5714 -0.7581
18575SOL    HW162775   2.043   1.794  11.962  0.0083  0.2667 -1.0798
18575SOL    HW262776   2.021   1.767  11.815 -1.4763  0.4372 -0.9046
18576SOL     OW62777   2.996   2.162   7.409 -0.6978 -0.3269 -0.0381
18576SOL    HW162778   3.029   2.201   7.489  0.5207 -0.7101 -0.3360
18576SOL    HW262779   2.962   2.077   7.436  1.1386 -1.1391 -0.1315
18577SOL     OW62780   7.489  10.662   5.863 -0.0993 -0.8505  0.1085
18577SOL    HW162781   7.451  10.628   5.782  0.2107 -1.8382  0.3573
18577SOL    HW262782   7.542  10.590   5.896  1.6531  0.3473  0.0044
18578SOL     OW62783   1.935   6.552   6.862 -0.8513  0.0823 -0.7388
18578SOL    HW162784   1.988   6.583   6.789 -1.0382 -0.7394 -1.2372
18578SOL    HW262785   1.871   6.622   6.877 -1.5197 -0.1991 -2.1113
18579SOL     OW62786   2.071   1.000  12.319 -0.3616  0.5132 -0.1548
18579SOL    HW162787   2.007   0.977  12.387 -1.2193  0.6102 -0.9206
18579SOL    HW262788   2.087   1.094  12.332  0.4414  0.2805  0.6978
18580SOL     OW62789   1.381   7.883   0.632 -0.4371  0.1889 -0.0344
18580SOL    HW162790   1.412   7.806   0.583 -1.1013  1.2709 -2.3300
18580SOL    HW262791   1.400   7.863   0.723  2.5197 -1.2517 -0.8232
18581SOL     OW62792   4.561   0.983  12.426  0.6573 -0.0699  0.0834
18581SOL    HW162793   4.618   1.033  12.484 -0.1746  0.3746  0.5403
18581SOL    HW262794   4.472   1.011  12.449  0.2485 -0.7263 -0.6232
18582SOL     OW62795   2.308   4.222   1.777  0.6322  0.1619 -0.5240
18582SOL    HW162796   2.333   4.134   1.747  1.7189  0.5446 -0.8047
18582SOL    HW262797   2.333   4.224   1.869  1.7253  0.5517 -0.8097
18583SOL     OW62798   4.207   9.123   9.628  0.4319 -0.8586  0.2166
18583SOL    HW162799   4.148   9.087   9.695  1.4643 -3.2124 -0.0226
18583SOL    HW262800   4.210   9.217   9.646 -0.0558 -1.2802  2.8938
18584SOL     OW62801   5.380   4.629  11.117 -0.5225  0.1531  0.2780
18584SOL    HW162802   5.309   4.687  11.144 -0.2487  0.2604  0.7909
18584SOL    HW262803   5.419   4.672  11.041 -0.4956  0.4981  0.4885
18585SOL     OW62804   3.044   7.800   9.541  0.6209 -0.3470  0.1457
18585SOL    HW162805   3.079   7.882   9.505  2.3935 -0.5745  1.2136
18585SOL    HW262806   3.082   7.731   9.487  0.8482 -0.5432  0.5464
18586SOL     OW62807   2.930   9.386   0.276  0.1212 -0.2513  0.8083
18586SOL    HW162808   2.968   9.327   0.212  0.4514 -0.5374  1.2675
18586SOL    HW262809   2.886   9.453   0.223 -0.3232 -0.9430  0.2854
18587SOL     OW62810   8.192   6.902   9.695 -0.5565  0.3140  0.0035
18587SOL    HW162811   8.110   6.852   9.687 -0.4643  0.2183 -0.3577
18587SOL    HW262812   8.166   6.983   9.738 -0.5358 -0.4632  1.5756
18588SOL     OW62813   4.896   2.702   1.507  0.1256 -0.7223  0.2853
18588SOL    HW162814   4.803   2.690   1.490  0.1037 -0.4444  0.2129
18588SOL    HW262815   4.938   2.676   1.425 -0.0716  2.2687 -0.8923
18589SOL     OW62816   9.279   9.513   8.748  0.0574 -0.4027 -0.3101
18589SOL    HW162817   9.205   9.493   8.690 -1.4267 -0.6376  1.5679
18589SOL    HW262818   9.323   9.429   8.762 -1.1682 -0.8719  0.9414
18590SOL     OW62819   4.022   4.830  12.497  0.2094  0.2869  0.2403
18590SOL    HW162820   4.086   4.760  12.509 -1.0154 -0.8360  0.4979
18590SOL    HW262821   4.069   4.910  12.522  1.2171 -0.6048  1.3272
18591SOL     OW62822   6.522   2.180   2.797  0.2232 -1.0402 -0.6997
18591SOL    HW162823   6.614   2.171   2.822  0.0922  0.1045  0.3511
18591SOL    HW262824   6.474   2.131   2.864 -0.2291  3.2394  2.6326
18592SOL     OW62825  10.036   7.397   8.242 -0.0594  0.0482  0.5486
18592SOL    HW162826  10.115   7.344   8.229  0.1288  0.0533  1.5867
18592SOL    HW262827  10.061   7.484   8.211  0.4180  0.0944  1.0322
18593SOL     OW62828  10.721   8.403   2.507  0.5948 -0.1490 -0.2034
18593SOL    HW162829  10.749   8.312   2.508 -0.6622 -0.5496  0.6643
18593SOL    HW262830  10.740   8.435   2.596 -1.2504 -0.3265  0.2916
18594SOL     OW62831   5.165   0.615   7.522 -0.5426  0.4149  0.6027
18594SOL    HW162832   5.184   0.522   7.533 -1.1948  0.2197  0.1198
18594SOL    HW262833   5.106   0.637   7.594  0.2518  0.6529  1.1914
18595SOL     OW62834   6.438   0.050  10.260 -0.4528  1.1122 -0.3623
18595SOL    HW162835   6.351   0.089  10.262 -0.8023  0.4116 -1.0221
18595SOL    HW262836   6.486   0.102  10.195 -1.8369 -1.2387 -3.5778
18596SOL     OW62837   9.700   0.814  11.587 -0.2471 -0.4842 -0.0772
18596SOL    HW162838   9.641   0.890  11.584  2.3897  1.7984  1.0180
18596SOL    HW262839   9.719   0.803  11.680  2.5099  0.1769 -0.4864
18597SOL     OW62840   3.841   8.721   5.935  0.3571  0.5755  0.7331
18597SOL    HW162841   3.914   8.765   5.977  0.5242  2.0574 -0.9987
18597SOL    HW262842   3.766   8.778   5.952 -0.1574 -0.2774  1.4083
18598SOL     OW62843   1.550   0.241   0.574  0.0735 -0.1003 -0.3261
18598SOL    HW162844   1.483   0.180   0.603 -0.1646  0.8627  1.2440
18598SOL    HW262845   1.630   0.211   0.618  0.0341  0.4808  0.1517
18599SOL     OW62846   9.407   4.405  10.864 -0.1927 -0.3744  0.2358
18599SOL    HW162847   9.474   4.436  10.925  0.3885  2.1916 -1.4957
18599SOL    HW262848   9.452   4.401  10.780 -1.5104 -1.5417 -0.4514
18600SOL     OW62849   0.643   4.898   1.231 -0.2130  0.0324  0.8631
18600SOL    HW162850   0.677   4.810   1.249  0.8832  0.2056 -0.2552
18600SOL    HW262851   0.715   4.957   1.253  0.0170  0.4570 -0.8708
18601SOL     OW62852  10.788   8.363   0.097 -0.1591 -0.2223  0.0296
18601SOL    HW162853  10.694   8.356   0.117  0.1699 -0.5717  1.5426
18601SOL    HW262854  10.829   8.293   0.148  0.8560 -0.5775 -1.2257
18602SOL     OW62855   4.670   9.050  10.592  0.0689  0.4805  0.5750
18602SOL    HW162856   4.616   9.050  10.513  1.6636  0.7197 -0.5652
18602SOL    HW262857   4.733   8.978  10.577  1.0274  1.1836  1.1481
18603SOL     OW62858   8.331  11.266  10.414 -0.2796 -0.5690  0.0193
18603SOL    HW162859   8.328  11.349  10.462  0.4399 -1.9607  2.6886
18603SOL    HW262860   8.249  11.221  10.439 -2.6058  0.6785 -4.3577
18604SOL     OW62861   0.840  10.304   9.713 -0.2416  0.0205 -0.5330
18604SOL    HW162862   0.910  10.323   9.774 -0.5931 -1.2709  0.3083
18604SOL    HW262863   0.871  10.228   9.663 -0.9619 -0.4795 -0.2452
18605SOL     OW62864   5.825   1.982   7.171  0.3720 -0.1879 -0.3000
18605SOL    HW162865   5.879   1.909   7.201 -0.1505 -0.5241 -0.1508
18605SOL    HW262866   5.817   1.969   7.076  2.1189  0.9393 -0.6415
18606SOL     OW62867  10.465   3.476   9.281  0.7041 -0.2120  0.5442
18606SOL    HW162868  10.540   3.431   9.242  2.0551  1.2674  1.3344
18606SOL    HW262869  10.498   3.509   9.365 -1.0782 -0.2070  1.2934
18607SOL     OW62870   9.532   6.980   6.091 -1.5956 -0.5724  0.5509
18607SOL    HW162871   9.443   6.994   6.124 -1.7034 -0.5038  0.2427
18607SOL    HW262872   9.527   6.898   6.043 -1.7179 -0.1295 -0.2161
18608SOL     OW62873   5.095   9.695  11.041  0.1290  0.8143  0.6050
18608SOL    HW162874   5.149   9.652  11.107 -0.9909  0.4750  1.3279
18608SOL    HW262875   5.007   9.659  11.055 -0.5174  2.1640  0.1868
18609SOL     OW62876   8.009   6.160   6.851  0.4737  0.2188 -0.0354
18609SOL    HW162877   7.953   6.236   6.834  0.7062  0.4170  0.0833
18609SOL    HW262878   8.071   6.190   6.918  0.0710 -0.3081  0.5899
18610SOL     OW62879   6.056   9.893   4.571  0.0794 -0.3372 -0.0508
18610SOL    HW162880   5.965   9.867   4.563 -0.2029  0.5224  0.1879
18610SOL    HW262881   6.103   9.837   4.509 -0.6115 -0.7498 -0.2139
18611SOL     OW62882  11.869   3.127   0.880  0.4877  0.0738 -0.1685
18611SOL    HW162883  11.944   3.146   0.824  0.5713  1.9347  0.4772
18611SOL    HW262884  11.793   3.147   0.825  0.2693 -3.5263 -1.4420
18612SOL     OW62885  12.398   0.562   9.886  0.5796  0.2939  0.5955
18612SOL    HW162886  12.453   0.598   9.955  1.8659  0.1330 -0.3011
18612SOL    HW262887  12.460   0.522   9.824 -0.2624  2.7047 -2.0047
18613SOL     OW62888   4.467   3.206   3.439 -0.2785  0.0855 -0.1042
18613SOL    HW162889   4.373   3.220   3.424 -0.5858 -0.7064  0.9904
18613SOL    HW262890   4.492   3.274   3.502  0.1973  1.1077 -1.3465
18614SOL     OW62891   5.881   0.069   3.808  0.5748  0.5402 -0.2359
18614SOL    HW162892   5.970   0.080   3.776  1.4497 -0.3395  1.7747
18614SOL    HW262893   5.877  -0.022   3.838 -0.3797  1.0926  1.4512
18615SOL     OW62894   8.197   9.253   7.784  0.5386 -0.0851  0.3190
18615SOL    HW162895   8.179   9.338   7.745  1.3476  0.0969  0.3236
18615SOL    HW262896   8.261   9.213   7.726  0.4149 -0.5538  0.5008
18616SOL     OW62897   5.723   1.419   0.649 -0.0545  0.4629  0.2743
18616SOL    HW162898   5.771   1.477   0.589  0.0605  0.4052  0.3113
18616SOL    HW262899   5.674   1.478   0.705 -0.0103  0.5231  0.2498
18617SOL     OW62900   0.070   1.558   1.031  0.9086  0.3008 -0.1873
18617SOL    HW162901   0.133   1.603   0.975  1.7963  1.4150  1.6429
18617SOL    HW262902  -0.014   1.568   0.985  1.0965  3.7028 -0.0080
18618SOL     OW62903   7.098   6.943  12.089 -0.1822 -0.0449  0.0171
18618SOL    HW162904   7.004   6.926  12.091  0.0156 -1.1554  0.7286
18618SOL    HW262905   7.138   6.862  12.120  1.1871 -0.7922 -3.2436
18619SOL     OW62906   5.667   7.838   5.629  0.1643  0.6962 -0.5617
18619SOL    HW162907   5.581   7.857   5.666 -0.3816 -0.3534 -1.2073
18619SOL    HW262908   5.651   7.828   5.535  0.2867 -2.7823 -0.3754
18620SOL     OW62909  11.704   0.103   4.550  0.2853 -0.4501  0.4674
18620SOL    HW162910  11.754   0.030   4.588 -0.1389 -0.7672  0.4304
18620SOL    HW262911  11.649   0.061   4.484 -0.5610 -0.2139  1.0142
18621SOL     OW62912   8.872   7.258   7.093  0.1928 -0.1715  0.2956
18621SOL    HW162913   8.779   7.237   7.101 -1.1734  4.1852 -1.3925
18621SOL    HW262914   8.903   7.202   7.022 -1.4674 -0.8210  0.0418
18622SOL     OW62915   8.333  10.104   0.092  0.2441  0.3256  0.2132
18622SOL    HW162916   8.323  10.178   0.031  2.8466  0.8857  0.3284
18622SOL    HW262917   8.410  10.127   0.144  0.7586 -2.1803  0.6753
18623SOL     OW62918   6.835   4.459  10.290 -0.2223  0.5787  0.1259
18623SOL    HW162919   6.809   4.461  10.382  1.3031  2.6259  0.5789
18623SOL    HW262920   6.904   4.392  10.285 -0.5163  0.2526  0.3930
18624SOL     OW62921  10.727   2.338   8.004 -0.0006  0.2536  0.1052
18624SOL    HW162922  10.803   2.289   7.974  0.7325  0.6845  1.1974
18624SOL    HW262923  10.682   2.365   7.924  1.6556  1.0459 -0.5826
18625SOL     OW62924  12.374   2.882   6.473  0.6456 -0.1901 -0.4479
18625SOL    HW162925  12.417   2.929   6.401 -0.7119  1.5656 -0.2058
18625SOL    HW262926  12.293   2.931   6.487  1.8555  0.9711  3.7550
18626SOL     OW62927   8.995   1.850   1.474 -0.4784  0.3597  0.6792
18626SOL    HW162928   8.973   1.842   1.382  1.2467  0.9104  0.1910
18626SOL    HW262929   8.957   1.772   1.514 -0.2923 -0.4598 -0.6859
18627SOL     OW62930   9.990   5.439   7.125 -0.3503 -0.5513 -0.0107
18627SOL    HW162931   9.933   5.511   7.098  0.0650 -0.6786 -1.2914
18627SOL    HW262932   9.960   5.364   7.074 -0.3178 -1.1271  0.7891
18628SOL     OW62933   4.786   4.325   4.998  0.5670 -0.8112 -0.1183
18628SOL    HW162934   4.712   4.270   4.975  0.3287 -0.2947 -0.6063
18628SOL    HW262935   4.753   4.415   4.992  1.8282 -0.4255 -2.6554
18629SOL     OW62936   7.427   0.340  12.175  0.2911 -0.2594 -0.5851
18629SOL    HW162937   7.342   0.318  12.214  0.0125 -0.4340 -1.2711
18629SOL    HW262938   7.453   0.260  12.128  0.3265  0.1390 -1.2568
18630SOL     OW62939   7.786   0.715   4.623 -0.4114  0.3299  0.0696
18630SOL    HW162940   7.820   0.804   4.609 -2.3130  1.0508 -0.2890
18630SOL    HW262941   7.774   0.709   4.718  0.4480  0.1523  0.1751
18631SOL     OW62942   9.510   1.861   3.509  0.2263  0.0124  0.0956
18631SOL    HW162943   9.455   1.929   3.548 -0.4381  0.5001 -1.6035
18631SOL    HW262944   9.464   1.837   3.428  2.3502  0.2439 -1.2590
18632SOL     OW62945   7.677   2.013   6.650  0.4481 -0.1571 -0.2524
18632SOL    HW162946   7.714   2.079   6.592 -0.3986  0.2099 -0.3940
18632SOL    HW262947   7.603   1.976   6.601  0.0218 -0.1870  0.3947
18633SOL     OW62948   5.405  10.312   8.403 -0.5229  0.7440  0.4240
18633SOL    HW162949   5.381  10.397   8.440 -0.9764  1.2909 -1.0584
18633SOL    HW262950   5.331  10.289   8.345  0.1547 -0.0661 -0.1475
18634SOL     OW62951   3.510   6.528   3.240 -0.1262  0.1712 -0.2207
18634SOL    HW162952   3.577   6.488   3.295  0.5997  1.4536 -0.1432
18634SOL    HW262953   3.507   6.474   3.162 -0.6602 -1.2564  0.7468
18635SOL     OW62954   2.222   7.795   0.192  0.2604 -0.3104 -0.1811
18635SOL    HW162955   2.131   7.793   0.223  0.1107  0.9581 -0.5066
18635SOL    HW262956   2.222   7.739   0.114 -0.4025  0.2626 -0.6018
18636SOL     OW62957   0.730   1.869  11.466  0.2560  0.5214  0.9762
18636SOL    HW162958   0.814   1.892  11.426  0.4731  0.6114  1.4741
18636SOL    HW262959   0.667   1.870  11.393  0.8935 -0.6946  0.3898
18637SOL     OW62960   7.638   6.191   9.339 -0.4826  0.1873 -0.0273
18637SOL    HW162961   7.724   6.222   9.369 -0.6475  2.3686 -1.5599
18637SOL    HW262962   7.656   6.146   9.257 -0.7974  0.7352 -0.4012
18638SOL     OW62963  10.407  11.105  12.250 -0.0251  0.1996 -0.4700
18638SOL    HW162964  10.446  11.031  12.296  0.9619 -0.2891 -2.0018
18638SOL    HW262965  10.315  11.104  12.275  0.4483 -0.0913  1.3753
18639SOL     OW62966   4.075  10.284   8.278 -0.4122  0.6133 -0.0883
18639SOL    HW162967   4.018  10.297   8.354  0.7490 -1.7452  1.2854
18639SOL    HW262968   4.017  10.249   8.211 -0.7548 -1.2044  1.0916
18640SOL     OW62969   7.690   7.064   3.696  0.2030  0.1627 -0.3901
18640SOL    HW162970   7.691   7.004   3.771 -0.9265 -1.1573 -1.3699
18640SOL    HW262971   7.608   7.043   3.650  0.1543  1.9594 -1.1902
18641SOL     OW62972   6.625   0.734   0.906  0.0298 -0.6152 -0.1244
18641SOL    HW162973   6.546   0.715   0.854 -1.3045 -0.5749  1.7785
18641SOL    HW262974   6.621   0.672   0.978  2.5613 -1.5835 -0.7281
18642SOL     OW62975   8.047   1.272   3.573  0.2931  0.0323 -0.1524
18642SOL    HW162976   8.038   1.178   3.555  1.0202  0.0718 -0.7459
18642SOL    HW262977   8.095   1.307   3.498 -1.1186  1.1249 -0.6040
18643SOL     OW62978   0.496   6.332   8.919  0.3684 -0.0432  0.4498
18643SOL    HW162979   0.494   6.427   8.906 -1.5404 -0.2195 -0.9400
18643SOL    HW262980   0.587   6.308   8.900  0.9095  1.5046  0.9204
18644SOL     OW62981  11.229   1.445   3.554 -0.2841 -0.8716 -0.2802
18644SOL    HW162982  11.281   1.497   3.615 -0.6004 -1.5761  0.6240
18644SOL    HW262983  11.138   1.463   3.579 -0.4013 -1.5738 -0.1799
18645SOL     OW62984   0.570   7.455  11.523 -0.9010  0.2639 -0.9924
18645SOL    HW162985   0.618   7.419  11.449  1.7638  0.1879  0.6467
18645SOL    HW262986   0.554   7.546  11.499 -2.7545 -0.4451 -2.8171
18646SOL     OW62987  11.764   7.123   9.644  0.7814  0.2262 -0.6215
18646SOL    HW162988  11.730   7.197   9.593 -1.6112 -1.0886 -1.1019
18646SOL    HW262989  11.722   7.131   9.729 -0.1324 -0.9743 -0.9346
18647SOL     OW62990  11.321   4.493   3.471  0.2671 -0.1562  0.2015
18647SOL    HW162991  11.411   4.505   3.443  0.8071  0.1755  1.9304
18647SOL    HW262992  11.268   4.521   3.397  1.5875  0.8851 -0.3815
18648SOL     OW62993   7.028   0.770   5.328  0.0825  0.0010  0.1596
18648SOL    HW162994   6.987   0.827   5.392  2.1199 -1.2804  2.8106
18648SOL    HW262995   6.983   0.686   5.338 -0.1798  0.0203 -0.7692
18649SOL     OW62996   1.701   9.751   7.608  0.0872  0.0629 -0.1910
18649SOL    HW162997   1.756   9.750   7.687  0.8292  0.1642 -0.7000
18649SOL    HW262998   1.711   9.663   7.571  1.3497  0.6191 -1.2559
18650SOL     OW62999  12.043  11.425   4.023 -0.3921  0.5616 -0.3770
18650SOL    HW163000  12.048  11.399   4.115 -0.4213  0.1438 -0.4903
18650SOL    HW263001  12.019  11.518   4.026  0.1938  0.7100  0.0437
18651SOL     OW63002   4.127   3.818   8.768 -0.5407  0.2349 -0.1520
18651SOL    HW163003   4.201   3.878   8.757 -0.2073  0.1432  1.3680
18651SOL    HW263004   4.157   3.736   8.728  1.4859 -0.7690  3.0255
18652SOL     OW63005  10.473   8.125   3.715 -0.1977  0.0008  0.8032
18652SOL    HW163006  10.477   8.031   3.732 -3.4077 -0.9517 -2.4728
18652SOL    HW263007  10.558   8.147   3.677 -0.8413 -2.7738 -2.7295
18653SOL     OW63008   2.034   4.019   3.758  0.1491 -0.0883 -0.0033
18653SOL    HW163009   2.080   4.102   3.756  0.5348 -0.3099 -0.3597
18653SOL    HW263010   1.947   4.039   3.724  0.0784  0.2634  0.3736
18654SOL     OW63011   9.708   9.189   6.992  0.2421  0.1221 -0.1805
18654SOL    HW163012   9.710   9.102   6.952  0.4020  0.4919 -0.9921
18654SOL    HW263013   9.730   9.173   7.084 -3.2343 -1.1396  0.5862
18655SOL     OW63014  10.400   5.523  10.637 -0.6368 -0.1506 -0.7713
18655SOL    HW163015  10.400   5.539  10.731 -0.7572 -0.9686 -0.6261
18655SOL    HW263016  10.310   5.544  10.609 -0.6901 -0.2262 -0.6535
18656SOL     OW63017   6.730   6.273   7.383  0.1513  0.0177 -0.0958
18656SOL    HW163018   6.663   6.289   7.450  0.2082 -0.2064  0.0116
18656SOL    HW263019   6.732   6.178   7.372 -1.8909  0.1320 -2.4337
18657SOL     OW63020   8.121   4.477   7.559 -0.1954 -0.2936 -0.0053
18657SOL    HW163021   8.175   4.404   7.590 -0.3026 -0.2743  0.2286
18657SOL    HW263022   8.072   4.441   7.485  1.2021  0.0799 -1.1616
18658SOL     OW63023   0.968   8.442   4.549 -0.1911  0.2962  0.0653
18658SOL    HW163024   0.980   8.489   4.631  1.1862 -0.4315  0.3074
18658SOL    HW263025   1.035   8.479   4.490 -0.6507  0.2689 -0.4860
18659SOL     OW63026   2.360   8.401   4.409 -0.7714 -0.1171  0.1907
18659SOL    HW163027   2.303   8.325   4.421 -1.5505  0.6544  1.6964
18659SOL    HW263028   2.337   8.435   4.323 -1.1688 -0.9791 -0.0517
18660SOL     OW63029   3.669   6.489  11.534  0.4250  1.0221 -0.4675
18660SOL    HW163030   3.717   6.406  11.526 -0.0591  0.7966 -1.1601
18660SOL    HW263031   3.603   6.471  11.601  1.9207  1.6541  1.2628
18661SOL     OW63032   4.652   5.505   1.947  0.0389  0.3292 -0.3392
18661SOL    HW163033   4.709   5.439   1.986 -1.7831  0.7352  3.5044
18661SOL    HW263034   4.712   5.574   1.918  1.7313 -1.2027 -0.6762
18662SOL     OW63035   4.458   9.849   9.387 -0.3757 -0.3608 -0.1811
18662SOL    HW163036   4.387   9.897   9.430 -0.9404 -0.8674 -0.5294
18662SOL    HW263037   4.432   9.757   9.393 -0.0399 -0.5076 -0.8354
18663SOL     OW63038   8.003   7.654   2.078 -0.0957 -0.1951 -0.0879
18663SOL    HW163039   7.950   7.580   2.106 -1.0096  0.8301  0.9704
18663SOL    HW263040   7.947   7.730   2.089  1.1047  0.7609 -0.3314
18664SOL     OW63041   8.815   0.817   0.235 -0.0098 -0.4425 -0.9279
18664SOL    HW163042   8.807   0.724   0.212 -1.6200  0.0355 -2.5604
18664SOL    HW263043   8.808   0.863   0.151  0.0657  1.2006 -0.0745
18665SOL     OW63044  11.752   7.392   6.646  0.0637 -0.1702 -0.2584
18665SOL    HW163045  11.692   7.319   6.663 -0.6636  0.8843  2.1767
18665SOL    HW263046  11.737   7.414   6.554 -1.6886 -1.3396 -0.3110
18666SOL     OW63047  10.589   6.327   2.879  0.3750  0.4990  0.0219
18666SOL    HW163048  10.559   6.359   2.794 -1.5695  0.1108  0.5206
18666SOL    HW263049  10.630   6.403   2.920  0.9910  0.7893 -1.0775
18667SOL     OW63050   6.085  10.585  12.056 -0.1366  0.5419  0.2406
18667SOL    HW163051   6.180  10.596  12.051 -0.2570  1.1819 -1.4535
18667SOL    HW263052   6.054  10.669  12.089 -0.2310  1.2566 -1.5105
18668SOL     OW63053  12.411   4.498   1.102 -0.1934  0.5799  0.1448
18668SOL    HW163054  12.345   4.443   1.144 -1.0056  0.9173 -0.6540
18668SOL    HW263055  12.360   4.565   1.055  0.7656  2.8173  2.1206
18669SOL     OW63056  10.134   1.251   1.162 -0.0326 -0.1379 -0.4309
18669SOL    HW163057  10.171   1.191   1.097 -0.0853  0.3215 -0.8925
18669SOL    HW263058  10.058   1.290   1.119 -0.2907 -0.1084  0.0439
18670SOL     OW63059   5.856   0.156  10.628  0.6728  0.4261 -0.0296
18670SOL    HW163060   5.778   0.189  10.584  0.3422 -1.9028 -1.3613
18670SOL    HW263061   5.831   0.070  10.660  2.1523  0.4209  1.2226
18671SOL     OW63062   4.244  10.725   9.915 -0.2643 -0.0568  0.7431
18671SOL    HW163063   4.304  10.710   9.842 -0.2485 -0.0918  0.7635
18671SOL    HW263064   4.242  10.821   9.925  0.9633 -0.1067  1.7243
18672SOL     OW63065   6.554   6.026  11.618 -0.0961 -0.6551  0.2981
18672SOL    HW163066   6.469   6.010  11.576  0.4696 -0.7273 -0.8630
18672SOL    HW263067   6.616   6.025  11.546  0.9048 -0.6459  1.1479
18673SOL     OW63068   0.453   8.931   0.572  0.6025  0.7371 -0.0564
18673SOL    HW163069   0.491   9.019   0.567  0.7852  0.5841 -2.2110
18673SOL    HW263070   0.364   8.942   0.536  0.7931 -0.0188 -0.7950
18674SOL     OW63071   6.009   1.335   9.337  0.4237 -0.0114  0.4508
18674SOL    HW163072   6.094   1.291   9.338  0.9704  0.7822 -2.4329
18674SOL    HW263073   5.958   1.287   9.272 -0.0641  1.6064 -0.4226
18675SOL     OW63074   8.154   4.376  10.444  0.1596  0.7680 -0.0959
18675SOL    HW163075   8.193   4.411  10.524  0.4152 -0.6950  0.4367
18675SOL    HW263076   8.073   4.333  10.473  0.1636  0.3796 -0.6421
18676SOL     OW63077   5.683   7.823   9.889 -0.4150  1.2310  0.9913
18676SOL    HW163078   5.705   7.850   9.799 -2.7397  1.2125  0.3633
18676SOL    HW263079   5.619   7.888   9.918 -0.2729  0.7771  2.3593
18677SOL     OW63080  10.548  10.967   7.502  0.3959 -0.6285  0.3371
18677SOL    HW163081  10.623  10.910   7.483  0.5536  0.4782 -2.8724
18677SOL    HW263082  10.481  10.942   7.439 -1.2610 -0.2710  1.8723
18678SOL     OW63083   0.548   5.058   2.688  0.6330 -0.5764  0.4007
18678SOL    HW163084   0.582   4.976   2.652  2.3350  0.1496  0.2749
18678SOL    HW263085   0.521   5.036   2.777 -3.3867 -2.3503 -1.0186
18679SOL     OW63086  11.239   3.583   7.565 -0.5654  0.1538  0.1741
18679SOL    HW163087  11.268   3.646   7.499  0.6008 -0.1698  0.3483
18679SOL    HW263088  11.168   3.627   7.612  0.5845  1.5675  0.6491
18680SOL     OW63089   1.046   5.925   1.070  0.3711 -0.2813  0.1528
18680SOL    HW163090   1.051   6.017   1.043  1.1963 -0.6843 -1.2135
18680SOL    HW263091   1.031   5.928   1.164 -0.3352  1.2475  0.0172
18681SOL     OW63092   5.874  10.165  11.413 -0.4464 -0.5159  0.4774
18681SOL    HW163093   5.800  10.216  11.447  0.1242 -0.0290  1.0261
18681SOL    HW263094   5.929  10.229  11.368 -0.6321 -0.9727 -0.4215
18682SOL     OW63095   9.689   6.840   0.348 -0.0083 -0.1181  0.0768
18682SOL    HW163096   9.705   6.907   0.414 -0.0243 -1.2698  1.2866
18682SOL    HW263097   9.762   6.779   0.358 -1.5002 -1.8391  1.0443
18683SOL     OW63098   9.656   1.864   4.210  0.0994 -0.1445 -0.2989
18683SOL    HW163099   9.708   1.880   4.132  0.9074 -0.3356  0.1933
18683SOL    HW263100   9.576   1.914   4.196  0.3125 -0.0342 -1.1651
18684SOL     OW63101   4.207  10.524  10.546  0.3216 -0.4958  0.4051
18684SOL    HW163102   4.266  10.499  10.617 -0.1175 -1.3933  0.4698
18684SOL    HW263103   4.242  10.607  10.513  0.2097  0.2429  2.0485
18685SOL     OW63104   3.771   2.153   7.735 -0.1816 -0.0257  0.1859
18685SOL    HW163105   3.742   2.062   7.746  0.5595 -0.2265  0.5667
18685SOL    HW263106   3.806   2.177   7.821 -0.7879  0.7791  0.2160
18686SOL     OW63107   9.799  11.995  10.716 -0.5376 -0.3903 -0.5175
18686SOL    HW163108   9.771  11.974  10.628 -2.0615  0.7688 -0.3575
18686SOL    HW263109   9.790  11.913  10.765 -2.7560 -0.3311 -0.7271
18687SOL     OW63110   5.504   4.115   5.830 -0.2772  0.1968 -0.0844
18687SOL    HW163111   5.566   4.116   5.902  0.2730  0.5411 -0.5595
18687SOL    HW263112   5.547   4.064   5.761 -1.2410 -1.0523  0.2098
18688SOL     OW63113   1.757   4.073  12.546  0.1241 -0.1261 -0.6243
18688SOL    HW163114   1.842   4.092  12.507  0.8129  0.6833  1.1633
18688SOL    HW263115   1.697   4.068  12.471  1.2375  2.0853 -1.7691
18689SOL     OW63116   6.338   0.268   4.751  0.1573 -0.1694  0.5529
18689SOL    HW163117   6.339   0.173   4.754 -0.8093 -0.2411 -0.9176
18689SOL    HW263118   6.277   0.294   4.821 -0.0413 -0.6382  0.5533
18690SOL     OW63119   2.021   9.513   7.835 -0.1114  0.6423  0.1212
18690SOL    HW163120   1.944   9.570   7.839 -0.3282  0.4774 -1.4372
18690SOL    HW263121   1.987   9.427   7.812  0.5137  0.4946 -0.2747
18691SOL     OW63122  11.118   7.908   5.468  0.1569  0.2234  0.0196
18691SOL    HW163123  11.151   7.873   5.551 -1.0868  1.5536  1.1593
18691SOL    HW263124  11.076   7.991   5.493  1.1037  1.4507 -2.1981
18692SOL     OW63125   0.714   8.884   6.502  0.1220 -0.3652 -0.0128
18692SOL    HW163126   0.623   8.863   6.484 -0.3679  1.2890  0.4043
18692SOL    HW263127   0.755   8.890   6.415 -0.5245  0.3802 -0.2750
18693SOL     OW63128   0.497   6.061  12.153  0.4662 -0.6166  0.0466
18693SOL    HW163129   0.562   6.017  12.208  1.1685 -0.2870 -0.5007
18693SOL    HW263130   0.450   5.989  12.110  1.1489 -0.8540 -0.3245
18694SOL     OW63131  11.067  10.839   5.942 -0.0142 -0.0861 -0.0928
18694SOL    HW163132  11.124  10.893   5.996  0.8448 -2.9088  2.0787
18694SOL    HW263133  11.102  10.847   5.853  1.7693  0.7427  0.6499
18695SOL     OW63134  10.599  12.526  11.872 -0.8032 -0.2222  0.3492
18695SOL    HW163135  10.562  12.589  11.810  0.3704  0.7891  0.6501
18695SOL    HW263136  10.673  12.487  11.825  0.1532  0.6162  1.1152
18696SOL     OW63137   7.345   2.029  11.850 -0.1321  0.3058  0.8659
18696SOL    HW163138   7.307   1.990  11.771 -1.5376 -0.9178  2.0961
18696SOL    HW263139   7.430   1.986  11.859 -0.3400 -0.1856  0.5075
18697SOL     OW63140   5.173   7.191  12.386  0.5672  0.3167  0.0508
18697SOL    HW163141   5.227   7.261  12.422  1.1453  0.9382 -1.9357
18697SOL    HW263142   5.224   7.155  12.314 -1.7620  1.1424 -2.1455
18698SOL     OW63143   7.826   9.927   2.600  0.0242  0.3675  0.4232
18698SOL    HW163144   7.838   9.866   2.527 -0.3378  1.0014 -0.1782
18698SOL    HW263145   7.885   9.999   2.580  0.1697  0.3949  0.9366
18699SOL     OW63146   7.508   1.152   1.048  0.2818 -0.4819 -0.2728
18699SOL    HW163147   7.551   1.232   1.017  0.1920 -0.3484 -0.0528
18699SOL    HW263148   7.498   1.099   0.969  0.3724 -0.2906 -0.4156
18700SOL     OW63149  11.102  10.217   5.933  0.5243  0.6481 -0.5531
18700SOL    HW163150  11.059  10.246   6.014  0.3926 -0.7401 -0.1028
18700SOL    HW263151  11.083  10.287   5.870 -1.8235  0.4359 -0.1809
18701SOL     OW63152   8.111   9.994   0.590  0.3591 -0.5050  0.0044
18701SOL    HW163153   8.141   9.906   0.611  3.4484 -0.1148 -2.0889
18701SOL    HW263154   8.097   9.993   0.495 -1.2759  0.8284  0.1824
18702SOL     OW63155  11.130   3.050   2.471 -0.1441 -0.6490 -0.2065
18702SOL    HW163156  11.091   3.058   2.558 -1.1655  0.2048 -0.7121
18702SOL    HW263157  11.171   3.135   2.455  1.6912 -1.4240  0.1732
18703SOL     OW63158   3.594   1.396   0.016  0.4046 -0.0153 -0.3780
18703SOL    HW163159   3.675   1.347   0.003  0.1893 -0.7158  0.7869
18703SOL    HW263160   3.604   1.436   0.102 -0.2308  0.4044 -0.4940
18704SOL     OW63161   8.012  11.168   6.359  0.2125  0.2810 -0.3540
18704SOL    HW163162   7.964  11.240   6.399  0.1432 -0.9899  2.0494
18704SOL    HW263163   7.946  11.101   6.342  0.4054  0.4207 -1.7712
18705SOL     OW63164  12.572  11.589   2.995 -0.5147 -0.2031 -0.3711
18705SOL    HW163165  12.653  11.640   2.995 -0.4095 -0.3440  0.6697
18705SOL    HW263166  12.518  11.629   3.062  0.1692 -2.3225  1.5771
18706SOL     OW63167   1.855   4.716   5.856 -0.1826 -0.0358  0.2624
18706SOL    HW163168   1.839   4.749   5.768  1.9610 -0.9811 -0.5507
18706SOL    HW263169   1.779   4.662   5.876 -1.0534  0.8000 -0.6852
18707SOL     OW63170  10.068  11.686  11.193  0.2320  0.3301  0.2196
18707SOL    HW163171  10.164  11.685  11.200  0.4199  1.5006 -1.3401
18707SOL    HW263172  10.049  11.624  11.123 -0.3647 -1.3616  1.8074
18708SOL     OW63173   6.823   2.338  10.674 -0.5696 -0.0471 -0.3268
18708SOL    HW163174   6.810   2.325  10.768  0.8037 -0.3175 -0.1515
18708SOL    HW263175   6.916   2.323  10.661 -0.1696  2.7719 -1.2792
18709SOL     OW63176   0.226   0.168   5.445  0.4108  1.0258  0.1568
18709SOL    HW163177   0.271   0.109   5.504  0.0762  1.5761  0.9764
18709SOL    HW263178   0.282   0.246   5.442  1.3575  0.3403 -1.6796
18710SOL     OW63179   3.816  10.392   1.808  0.1505 -0.8769 -0.2509
18710SOL    HW163180   3.724  10.416   1.824  0.1719 -1.4701  0.8774
18710SOL    HW263181   3.826  10.398   1.713 -0.4636  1.2791 -0.2198
18711SOL     OW63182   0.664   2.221   8.036 -0.1832 -0.5706 -0.2640
18711SOL    HW163183   0.758   2.209   8.046 -0.0806  0.2179 -0.2421
18711SOL    HW263184   0.647   2.310   8.068 -1.0938 -1.0947  0.8037
18712SOL     OW63185  10.604  11.301   0.308 -0.1610  0.5575  0.0491
18712SOL    HW163186  10.574  11.352   0.233  0.4834  1.4365  0.3634
18712SOL    HW263187  10.634  11.218   0.271 -1.0716  0.4591 -0.4986
18713SOL     OW63188   4.047   7.628   0.752  0.3500  0.0997  0.1022
18713SOL    HW163189   3.992   7.608   0.677  0.1726 -1.5943  0.6439
18713SOL    HW263190   4.128   7.662   0.714 -0.6828  1.7501 -0.7250
18714SOL     OW63191   2.691   5.640  10.097  0.1543 -0.9096 -1.0191
18714SOL    HW163192   2.764   5.581  10.077  1.1689  0.0054 -0.1475
18714SOL    HW263193   2.711   5.720  10.049  0.3389 -0.2430  0.1418
18715SOL     OW63194   9.655   9.484   6.988  0.1040  0.3082  0.0793
18715SOL    HW163195   9.615   9.462   6.903  1.3357 -0.6644 -0.2804
18715SOL    HW263196   9.682   9.575   6.979 -0.8728  0.5845 -0.1294
18716SOL     OW63197   8.919   5.792   7.420  0.6376  0.4609  0.1422
18716SOL    HW163198   8.833   5.834   7.421  0.0818 -0.5600 -1.1350
18716SOL    HW263199   8.978   5.859   7.387  0.0146  0.6833 -0.5671
18717SOL     OW63200  11.695   6.809  11.306  0.3113 -0.4443  0.1325
18717SOL    HW163201  11.647   6.869  11.250 -0.8628 -0.3713  1.1783
18717SOL    HW263202  11.645   6.727  11.302  0.2515 -0.4572  1.0115
18718SOL     OW63203   7.167   0.434   3.818 -0.5712 -0.2200 -0.2639
18718SOL    HW163204   7.154   0.340   3.805 -3.1924  0.1341 -0.6309
18718SOL    HW263205   7.086   0.474   3.788 -0.4095  1.9842  1.9066
18719SOL     OW63206  11.888   6.405   0.600  0.1417 -0.0098 -0.0316
18719SOL    HW163207  11.916   6.316   0.623 -0.2003 -0.1096  0.0116
18719SOL    HW263208  11.960   6.461   0.628 -0.5716 -0.0510  2.0470
18720SOL     OW63209  12.462  10.770   5.670 -0.5412  0.4019  0.3980
18720SOL    HW163210  12.421  10.807   5.592 -1.9488  0.0078  0.9161
18720SOL    HW263211  12.488  10.846   5.723 -0.3347  0.6637 -0.0820
18721SOL     OW63212   8.828   3.391   6.412  0.6402  0.6747  0.0021
18721SOL    HW163213   8.757   3.368   6.471  0.2172 -0.4586 -0.9037
18721SOL    HW263214   8.788   3.448   6.347  1.3818  2.9656  1.4511
18722SOL     OW63215   7.087   7.931   4.480 -0.4651 -0.3725 -0.3015
18722SOL    HW163216   7.182   7.929   4.480 -0.4293 -0.3780 -2.2463
18722SOL    HW263217   7.064   8.017   4.446 -1.2640  0.9313  3.0967
18723SOL     OW63218   5.004   6.437   4.196 -0.8208 -0.6333 -0.2210
18723SOL    HW163219   4.911   6.425   4.178 -0.8520 -0.8219  0.0502
18723SOL    HW263220   5.035   6.349   4.218 -0.8193 -0.3925  0.7906
18724SOL     OW63221   8.042   0.733  10.902  0.0625 -0.4391 -0.7738
18724SOL    HW163222   8.064   0.689  10.985  0.3236 -0.5104 -0.8813
18724SOL    HW263223   8.039   0.662  10.838 -0.0198 -0.3661 -0.8510
18725SOL     OW63224   0.526   0.211   2.978 -0.6915  0.2648 -0.0470
18725SOL    HW163225   0.446   0.257   2.955 -1.1855  0.7619  2.4060
18725SOL    HW263226   0.511   0.178   3.067  2.4020  1.9176  1.2713
18726SOL     OW63227   1.145   5.278  11.283 -0.3777 -0.1521  0.6540
18726SOL    HW163228   1.166   5.248  11.194  1.3434  3.5854 -0.4220
18726SOL    HW263229   1.116   5.200  11.329  0.9619 -2.7344 -2.5084
18727SOL     OW63230  11.774   4.340   4.471  0.1283 -0.2426 -0.4010
18727SOL    HW163231  11.798   4.404   4.538 -1.0371  0.9963 -1.1077
18727SOL    HW263232  11.854   4.291   4.453  0.6554 -0.0604  1.2974
18728SOL     OW63233   9.383  11.283   7.799  0.4651 -0.4082  0.2265
18728SOL    HW163234   9.416  11.353   7.856 -1.1110  0.9726 -0.4637
18728SOL    HW263235   9.304  11.251   7.843 -1.6881  1.7535 -1.7659
18729SOL     OW63236   0.562   2.658   4.513 -0.7100 -0.3303 -0.3124
18729SOL    HW163237   0.478   2.702   4.504 -1.3737 -1.5993 -0.4255
18729SOL    HW263238   0.622   2.710   4.459 -2.0465 -1.0621 -2.6124
18730SOL     OW63239   1.632   3.218   7.025  0.0659  0.5124  0.1041
18730SOL    HW163240   1.701   3.161   7.058 -2.6264 -2.1657  1.5398
18730SOL    HW263241   1.604   3.177   6.943  0.8837  2.2975 -1.1594
18731SOL     OW63242   4.179   8.819  12.072 -0.4537 -0.0999 -0.1084
18731SOL    HW163243   4.136   8.791  11.991 -1.1894  1.8117 -0.4323
18731SOL    HW263244   4.241   8.749  12.091 -0.9432 -1.0609 -1.7877
18732SOL     OW63245  11.978  11.141  10.998  0.1020 -0.3624  0.2550
18732SOL    HW163246  11.926  11.134  11.079 -0.4368  0.4464 -0.0088
18732SOL    HW263247  11.912  11.143  10.928  0.5573 -0.7842 -0.1969
18733SOL     OW63248   2.636   8.871   4.979 -0.0780 -0.1824  0.7056
18733SOL    HW163249   2.628   8.855   5.073  0.7391 -1.5393  0.5603
18733SOL    HW263250   2.605   8.790   4.938 -0.4710  0.4099 -0.2110
18734SOL     OW63251   4.408  11.699  11.978 -0.2198 -0.2691  0.0577
18734SOL    HW163252   4.451  11.679  11.894 -0.3722  0.8841 -0.3158
18734SOL    HW263253   4.317  11.716  11.955 -0.1161  0.7722  0.3292
18735SOL     OW63254   3.951   0.478   6.575  0.0840 -0.3565 -0.6086
18735SOL    HW163255   3.877   0.453   6.520 -0.7683  0.5855  0.0773
18735SOL    HW263256   4.021   0.498   6.513 -0.3216 -0.9568 -1.2743
18736SOL     OW63257  11.674   2.296   9.602  0.4439  0.3078  0.2704
18736SOL    HW163258  11.672   2.384   9.641 -1.9959  0.7465 -0.6570
18736SOL    HW263259  11.695   2.311   9.510 -0.7139  0.0451 -0.0588
18737SOL     OW63260  11.388   2.734   9.646 -0.2752  0.4332 -0.1974
18737SOL    HW163261  11.347   2.660   9.602  0.4199 -0.8285  1.1827
18737SOL    HW263262  11.314   2.785   9.680 -0.7549  0.1627 -0.8053
18738SOL     OW63263  11.692   5.817   9.745  0.0114  0.4417  0.5359
18738SOL    HW163264  11.722   5.906   9.725 -1.1359  0.7278 -0.0226
18738SOL    HW263265  11.627   5.798   9.678  0.2558 -0.8435  0.6345
18739SOL     OW63266   8.333  11.194  10.126 -0.1262  0.3596 -0.7769
18739SOL    HW163267   8.334  11.224  10.216 -1.2584  1.2208 -1.0246
18739SOL    HW263268   8.375  11.264  10.076 -0.3202  0.3047 -1.0245
18740SOL     OW63269   0.203  10.408   4.624  0.4597  0.0300  0.5703
18740SOL    HW163270   0.200  10.336   4.561  1.7647  1.3122 -1.0193
18740SOL    HW263271   0.275  10.386   4.683  0.9058  0.0657  0.0414
18741SOL     OW63272   8.719  10.779  10.396 -0.1967 -0.5787 -0.1496
18741SOL    HW163273   8.722  10.726  10.475 -1.4241 -0.5067 -0.0220
18741SOL    HW263274   8.627  10.808  10.390  0.2357  0.7798 -0.7004
18742SOL     OW63275   2.025   3.400   0.641  0.2788  0.0682 -0.2130
18742SOL    HW163276   2.019   3.315   0.684  0.4248  0.3158  0.2982
18742SOL    HW263277   1.934   3.423   0.621  0.3096 -0.7163 -1.3677
18743SOL     OW63278   8.697   7.272   5.355  0.3600 -0.8812 -0.4809
18743SOL    HW163279   8.704   7.361   5.389 -2.8304 -0.7144  0.0120
18743SOL    HW263280   8.777   7.260   5.303  0.4828  2.5933 -1.3381
18744SOL     OW63281  12.473  11.205   4.646  0.1538 -0.1845  0.3643
18744SOL    HW163282  12.457  11.180   4.737  1.3022 -0.1313  0.5907
18744SOL    HW263283  12.448  11.297   4.641  1.0269  0.0887  0.8856
18745SOL     OW63284   6.129   6.894  11.490  0.4122 -0.1323 -0.0413
18745SOL    HW163285   6.149   6.874  11.398 -1.5504  2.7153 -1.2311
18745SOL    HW263286   6.103   6.809  11.527  3.3374 -1.7817 -1.4191
18746SOL     OW63287   6.022   4.169   0.730 -0.5138  0.5235 -0.2697
18746SOL    HW163288   5.973   4.214   0.798 -1.1320 -0.3295 -0.1285
18746SOL    HW263289   6.090   4.120   0.777  0.3613  1.5205 -0.4461
18747SOL     OW63290   5.576   2.124   2.265 -0.5964 -0.1121  0.5394
18747SOL    HW163291   5.634   2.137   2.190  0.2186 -0.7699  1.0462
18747SOL    HW263292   5.549   2.033   2.260  0.0871 -0.3857  1.4664
18748SOL     OW63293   7.436   0.926  11.785  0.0105  0.6662 -0.0473
18748SOL    HW163294   7.510   0.914  11.843  0.5884  0.1688 -0.8621
18748SOL    HW263295   7.424   1.021  11.780  0.1238  0.7219  0.6511
18749SOL     OW63296   5.620   8.524  12.229  0.4743  0.1752 -0.4158
18749SOL    HW163297   5.695   8.511  12.286 -0.0703 -3.6085 -0.2952
18749SOL    HW263298   5.546   8.488  12.278 -0.8656  1.0633 -1.6980
18750SOL     OW63299   7.818  10.868   4.147 -0.0155 -0.3032  0.2253
18750SOL    HW163300   7.733  10.876   4.190 -0.1092  4.5919 -0.3617
18750SOL    HW263301   7.797  10.859   4.054 -0.0309  2.2058 -0.0691
18751SOL     OW63302   3.630   3.324   5.574  0.0798 -0.1266  0.0794
18751SOL    HW163303   3.691   3.304   5.645 -0.1743  0.8040  0.5739
18751SOL    HW263304   3.560   3.374   5.616  0.3213  1.1372 -0.9582
18752SOL     OW63305   2.629   8.433   0.050  0.1001 -0.0233 -0.0541
18752SOL    HW163306   2.601   8.375   0.120 -0.2777  1.0097  0.6718
18752SOL    HW263307   2.700   8.385   0.006 -1.7822 -2.0659 -1.0308
18753SOL     OW63308   9.257   7.787   0.475 -0.3459 -0.5111 -0.4183
18753SOL    HW163309   9.290   7.833   0.552 -2.2802  0.1325  0.0910
18753SOL    HW263310   9.234   7.857   0.414 -0.5143 -0.9436 -0.8567
18754SOL     OW63311   2.966   1.515   7.907  0.3987  0.0868 -0.7653
18754SOL    HW163312   2.981   1.430   7.948  0.0553 -0.2964 -1.4162
18754SOL    HW263313   3.020   1.513   7.828  0.7588  0.6643 -0.5344
18755SOL     OW63314   6.343   6.272  11.353  0.4000 -0.0550  0.8948
18755SOL    HW163315   6.398   6.259  11.276  0.2593 -1.2030  0.9738
18755SOL    HW263316   6.292   6.351  11.333 -0.8721 -1.2769 -0.9119
18756SOL     OW63317   3.966  12.130   6.417  0.2474  0.2800 -0.6862
18756SOL    HW163318   4.050  12.128   6.372  0.5719 -0.8676 -0.0697
18756SOL    HW263319   3.901  12.109   6.349  0.6437 -0.5816 -0.8133
18757SOL     OW63320   4.480   1.116   4.929  0.1552 -0.2191  0.5710
18757SOL    HW163321   4.445   1.074   4.851 -1.0571  0.5529  0.6721
18757SOL    HW263322   4.403   1.144   4.978  0.8974 -0.5441  1.9755
18758SOL     OW63323   9.681   1.184   0.084  0.0551 -0.0590  0.3511
18758SOL    HW163324   9.749   1.206   0.146 -0.4306 -0.6310  1.1023
18758SOL    HW263325   9.701   1.237   0.006  1.8736 -0.8971  0.2050
18759SOL     OW63326  11.396  11.971   8.653  0.0772  0.1610 -0.1175
18759SOL    HW163327  11.326  11.912   8.681 -0.3437  0.9102  0.4505
18759SOL    HW263328  11.365  12.008   8.570 -0.4150  0.8085  0.3375
18760SOL     OW63329   7.989   4.132   8.186  0.2180  0.1103  0.1465
18760SOL    HW163330   8.037   4.147   8.268  1.2145 -0.4420 -0.3146
18760SOL    HW263331   7.897   4.145   8.209  0.6200  1.8737  0.9043
18761SOL     OW63332   3.182   3.596   7.885  0.1514  0.1213 -0.0119
18761SOL    HW163333   3.189   3.597   7.790 -3.0707  0.5338 -0.3460
18761SOL    HW263334   3.186   3.688   7.910 -1.4426  0.2098 -0.0292
18762SOL     OW63335   1.034   0.098   4.226  0.0112  0.2954 -0.3573
18762SOL    HW163336   0.947   0.078   4.193  0.0594 -0.9424  0.2128
18762SOL    HW263337   1.091   0.035   4.182  0.5095  0.5908 -0.1423
18763SOL     OW63338   7.425   3.438   1.409 -0.3138  0.2307  0.3937
18763SOL    HW163339   7.470   3.522   1.401  1.9619 -0.7320  2.0983
18763SOL    HW263340   7.386   3.440   1.496 -0.8433 -0.2518  0.1772
18764SOL     OW63341   7.763   5.449   2.541 -0.1480  0.4295 -0.6361
18764SOL    HW163342   7.684   5.404   2.511  1.1886 -1.0930 -1.9719
18764SOL    HW263343   7.785   5.406   2.623 -0.9997  1.2601  0.0549
18765SOL     OW63344   1.842   2.294   9.955 -0.1718 -0.1187  0.1586
18765SOL    HW163345   1.804   2.206   9.963  1.4149 -0.7272  1.5438
18765SOL    HW263346   1.914   2.284   9.894 -0.7924  0.5464 -0.7124
18766SOL     OW63347   3.097   2.221  10.433 -0.0127  0.1395  0.0486
18766SOL    HW163348   3.003   2.210  10.443 -0.0061  1.4711  1.9413
18766SOL    HW263349   3.132   2.132  10.439 -1.0951 -0.3294 -0.3086
18767SOL     OW63350   5.264   2.376  11.564 -0.1436  0.2241  0.0340
18767SOL    HW163351   5.169   2.383  11.555 -0.2138 -0.2021  0.3893
18767SOL    HW263352   5.278   2.378  11.659  0.1165 -0.7216  0.0177
18768SOL     OW63353   2.193   4.519  11.706 -0.1662  0.2894  0.1427
18768SOL    HW163354   2.141   4.514  11.786  0.8489  0.1469  0.8093
18768SOL    HW263355   2.246   4.439  11.706  2.1426  1.7309  0.9827
18769SOL     OW63356   9.253   5.138   5.774  0.3291  0.2597 -0.2211
18769SOL    HW163357   9.183   5.085   5.813 -0.5306 -0.1355 -2.1676
18769SOL    HW263358   9.256   5.218   5.827 -1.1572  0.0050  0.2841
18770SOL     OW63359  11.485  10.697  11.682 -0.0097 -0.4141  0.3960
18770SOL    HW163360  11.539  10.763  11.638 -0.5328 -0.2568 -0.0147
18770SOL    HW263361  11.530  10.681  11.765  1.4478 -1.3318 -0.5305
18771SOL     OW63362   6.389   0.331   5.181  0.0656 -0.4709 -0.3020
18771SOL    HW163363   6.376   0.425   5.187  1.2847 -0.3317  0.7309
18771SOL    HW263364   6.443   0.319   5.103  1.4669 -0.0880  0.5703
18772SOL     OW63365   2.815   3.511   4.553 -0.2151 -0.5499  0.1018
18772SOL    HW163366   2.822   3.446   4.623 -1.1988 -0.6974  0.0792
18772SOL    HW263367   2.903   3.549   4.547 -0.0067 -0.8136  1.1489
18773SOL     OW63368   4.587   5.099  11.172 -0.3148  0.2391  0.4261
18773SOL    HW163369   4.659   5.142  11.218  0.5838 -1.3486  0.5838
18773SOL    HW263370   4.558   5.030  11.232 -2.4974  1.2758  0.6818
18774SOL     OW63371   3.112  10.042   4.046  0.3551 -0.8602  0.3381
18774SOL    HW163372   3.077  10.111   4.102  0.0554  0.3639 -1.2905
18774SOL    HW263373   3.106   9.963   4.099  0.7180  0.3414  2.2720
18775SOL     OW63374   8.367  12.134   6.036 -0.5074  0.2352  0.2827
18775SOL    HW163375   8.366  12.207   5.974  3.9762 -0.3901 -0.8365
18775SOL    HW263376   8.389  12.058   5.982 -0.0054 -1.0214  2.1699
18776SOL     OW63377   8.514   7.652   0.507  0.1238  0.2906  0.4792
18776SOL    HW163378   8.515   7.572   0.561  0.3417 -1.0461 -1.3929
18776SOL    HW263379   8.421   7.676   0.503 -0.1060 -0.6195  0.0392
18777SOL     OW63380  11.133   3.120   6.044  0.2518 -0.2192  0.0995
18777SOL    HW163381  11.160   3.050   6.104  3.2667 -0.3595 -1.2407
18777SOL    HW263382  11.175   3.199   6.078 -0.4312  0.2800 -0.2040
18778SOL     OW63383   4.378   2.061   2.548 -0.2012  0.4159  0.6032
18778SOL    HW163384   4.470   2.087   2.550 -0.3000  0.7705  0.5970
18778SOL    HW263385   4.351   2.059   2.640 -0.3527  0.9170  0.5736
18779SOL     OW63386  11.525   3.772   2.533  0.0094  0.5435  0.3693
18779SOL    HW163387  11.465   3.697   2.534 -1.3755  1.5479 -1.3952
18779SOL    HW263388  11.489   3.832   2.598 -0.6185  0.9171 -0.3108
18780SOL     OW63389   4.529  11.493   1.058  0.3089 -0.2986 -0.7616
18780SOL    HW163390   4.594  11.564   1.060 -0.6010  0.5513 -0.2003
18780SOL    HW263391   4.550  11.444   0.979  1.1801  0.3997 -0.9863
18781SOL     OW63392  10.937   5.068   3.631 -0.0199  0.3763 -0.0653
18781SOL    HW163393  11.014   5.013   3.642  0.4659  0.8640 -0.9648
18781SOL    HW263394  10.869   5.008   3.599  0.3626  0.1990 -0.5523
18782SOL     OW63395   4.515   5.302   0.297  0.5020 -0.2417 -0.3394
18782SOL    HW163396   4.606   5.324   0.316  0.5907 -0.9711  0.0799
18782SOL    HW263397   4.467   5.327   0.376  0.0780  1.6374 -1.1359
18783SOL     OW63398   0.525   3.055   8.086 -0.2380 -0.1230  0.1687
18783SOL    HW163399   0.481   2.976   8.118 -0.1508 -0.3893 -0.3667
18783SOL    HW263400   0.608   3.023   8.051 -0.4609  0.1224 -0.6012
18784SOL     OW63401   7.202  12.232   2.917 -0.3085 -0.0675 -0.2758
18784SOL    HW163402   7.208  12.237   3.013 -0.4015 -0.2303 -0.2589
18784SOL    HW263403   7.136  12.297   2.893  0.6842  0.9141 -0.3572
18785SOL     OW63404   5.090   8.970   1.047 -0.5440 -0.3604 -0.2741
18785SOL    HW163405   5.144   9.047   1.067  0.8593 -1.5084  0.5676
18785SOL    HW263406   5.094   8.962   0.952  0.2116 -0.0321 -0.2755
18786SOL     OW63407   7.670  12.354   3.570  0.2826  0.2183 -0.1779
18786SOL    HW163408   7.604  12.399   3.623 -1.0701  0.3584 -1.9144
18786SOL    HW263409   7.745  12.345   3.629 -1.2123  0.1622  1.8375
18787SOL     OW63410   3.334   5.252  11.848 -0.1016  0.6825 -0.3585
18787SOL    HW163411   3.326   5.201  11.767  0.1313  2.3672 -1.5032
18787SOL    HW263412   3.273   5.210  11.909 -0.5379 -0.4296 -1.5203
18788SOL     OW63413   7.077  10.346   5.411 -0.5177  0.3107 -0.6374
18788SOL    HW163414   7.006  10.292   5.377 -0.0225 -0.8694  0.1498
18788SOL    HW263415   7.037  10.401   5.478 -0.6636 -0.4721 -0.0776
18789SOL     OW63416   1.969   5.125   6.609  0.3739 -0.4973 -0.2349
18789SOL    HW163417   1.920   5.201   6.641  1.1230  0.1517 -0.5928
18789SOL    HW263418   1.909   5.082   6.547  0.2032  0.1910 -0.5509
18790SOL     OW63419   4.781   1.812   9.864  0.2578  0.1023 -0.2594
18790SOL    HW163420   4.690   1.824   9.891  0.9429  1.7330  1.5345
18790SOL    HW263421   4.819   1.899   9.868  2.1057 -0.6613 -0.2363
18791SOL     OW63422  11.640   1.926  11.710 -0.4436  0.5952  0.4230
18791SOL    HW163423  11.621   1.990  11.641  1.2791 -0.0517 -0.7242
18791SOL    HW263424  11.574   1.858  11.700 -0.7891  0.9856  0.0359
18792SOL     OW63425   6.639   0.295   0.022 -0.2472  0.1731 -0.1979
18792SOL    HW163426   6.572   0.363   0.021 -0.1998  0.2727  1.2108
18792SOL    HW263427   6.713   0.333  -0.025 -1.4219 -0.2530 -2.5183
18793SOL     OW63428   9.653   7.090   8.959  0.2313 -0.1874  0.1124
18793SOL    HW163429   9.684   7.117   9.045 -0.5482  1.1516  0.0069
18793SOL    HW263430   9.692   7.003   8.945  2.8678  0.8328  0.5054
18794SOL     OW63431   4.464   9.422   9.124  0.1580  0.0517 -0.0379
18794SOL    HW163432   4.435   9.347   9.072  0.8303 -0.0207 -0.3166
18794SOL    HW263433   4.559   9.421   9.117  0.1272  2.0749 -1.6555
18795SOL     OW63434  11.543   5.103   6.442 -0.3753  0.7615 -0.3560
18795SOL    HW163435  11.631   5.104   6.480 -0.3063  2.9098 -0.4938
18795SOL    HW263436  11.484   5.115   6.516 -0.5512 -0.2055 -0.3240
18796SOL     OW63437   2.566  11.696   8.683  0.0671  0.5627  0.2201
18796SOL    HW163438   2.519  11.614   8.668  0.0819  0.3725  1.1620
18796SOL    HW263439   2.510  11.763   8.644 -1.9964  0.5766  2.9195
18797SOL     OW63440   6.203   2.358   1.099 -0.7289 -0.0283 -0.6513
18797SOL    HW163441   6.197   2.263   1.094  4.0615 -0.5509 -0.8612
18797SOL    HW263442   6.248   2.384   1.019  2.5089  1.6898  1.4984
18798SOL     OW63443   0.595   6.817   8.034 -0.0046  0.0573  0.0771
18798SOL    HW163444   0.680   6.857   8.018  0.3662 -0.8572 -0.3042
18798SOL    HW263445   0.565   6.788   7.948 -1.8233  2.4385 -0.2058
18799SOL     OW63446   0.766   4.217   1.585 -0.5374  0.1804  0.1897
18799SOL    HW163447   0.714   4.140   1.563  0.3588  0.0787 -1.7344
18799SOL    HW263448   0.826   4.228   1.511  1.1859  1.1565  1.6362
18800SOL     OW63449   1.310   6.853   1.262  0.0215  0.5813  0.0426
18800SOL    HW163450   1.377   6.786   1.275 -0.9912 -0.6108 -0.6853
18800SOL    HW263451   1.331   6.920   1.327  1.4081 -0.1513  0.4003
18801SOL     OW63452  11.854   6.247   6.702 -0.5764  0.4194  0.1397
18801SOL    HW163453  11.893   6.221   6.619 -1.1122 -1.9651  0.5743
18801SOL    HW263454  11.912   6.316   6.734  0.5826  0.2374 -1.4231
18802SOL     OW63455   8.430   9.197   0.924  0.4664  0.3092 -0.1289
18802SOL    HW163456   8.471   9.272   0.968 -0.3165  0.6731 -0.0005
18802SOL    HW263457   8.372   9.236   0.860 -0.7331 -0.1520  0.6349
18803SOL     OW63458   2.111   9.062   5.399  0.2913  0.1374 -0.2968
18803SOL    HW163459   2.175   9.016   5.345  0.3179  0.3195 -0.4213
18803SOL    HW263460   2.157   9.140   5.431  0.7409 -0.6895  1.1728
18804SOL     OW63461  11.777   4.569   3.843  0.3386  0.1578  0.2728
18804SOL    HW163462  11.727   4.515   3.904 -0.2206  0.1943 -0.1472
18804SOL    HW263463  11.862   4.582   3.886  0.3888 -0.8289  0.5004
18805SOL     OW63464  12.239   2.149   2.842  0.3918 -0.3387  0.3522
18805SOL    HW163465  12.267   2.241   2.846 -1.7429  0.4457 -0.8757
18805SOL    HW263466  12.205   2.131   2.929 -0.0568  0.3626  0.3321
18806SOL     OW63467   4.367   0.609   9.303 -0.0351 -0.0946  0.3480
18806SOL    HW163468   4.326   0.626   9.218  0.8581  0.1009 -0.0610
18806SOL    HW263469   4.458   0.587   9.281  0.0411 -0.6809  1.2117
18807SOL     OW63470   3.129  10.395  10.450  0.5519  0.0036  0.3385
18807SOL    HW163471   3.174  10.350  10.522  0.0652 -1.7537 -0.3942
18807SOL    HW263472   3.077  10.326  10.408  0.1632  1.1670 -1.1734
18808SOL     OW63473   3.926   2.511   0.840 -0.1966 -0.5099  0.1876
18808SOL    HW163474   3.909   2.513   0.934  0.3692 -1.9379  0.3409
18808SOL    HW263475   4.015   2.544   0.830  0.5361 -2.3226  0.3943
18809SOL     OW63476   7.977   6.613   7.415  0.0775  0.1351  0.0184
18809SOL    HW163477   7.958   6.548   7.483 -1.3377 -0.4592 -0.8925
18809SOL    HW263478   8.072   6.610   7.404  0.4297  0.6554  2.3405
18810SOL     OW63479   8.787   8.300   0.257 -0.2513  0.3084  1.0233
18810SOL    HW163480   8.749   8.260   0.179 -1.5738 -0.2845  1.9379
18810SOL    HW263481   8.712   8.330   0.308  0.3928 -1.4729  3.2013
18811SOL     OW63482   9.094   6.307   1.915  0.4185  0.2467  0.4210
18811SOL    HW163483   9.036   6.323   1.989 -0.6686  1.0830 -0.5789
18811SOL    HW263484   9.036   6.297   1.840  1.5378  1.3660 -0.6590
18812SOL     OW63485   3.210  10.933   6.355 -0.2595  0.5407 -0.1893
18812SOL    HW163486   3.192  10.840   6.352  1.2905  0.1436  1.2225
18812SOL    HW263487   3.295  10.943   6.313  1.5062  0.6558  3.0719
18813SOL     OW63488   6.489  12.224   3.036 -0.0793  0.0969  0.1043
18813SOL    HW163489   6.440  12.158   2.985  0.2814 -0.3818  0.3703
18813SOL    HW263490   6.470  12.202   3.127 -0.3282  0.6539  0.1928
18814SOL     OW63491   6.945   1.580   1.260  0.4761  0.5362 -0.1651
18814SOL    HW163492   6.854   1.594   1.286  0.1743 -0.8830 -0.4040
18814SOL    HW263493   6.996   1.612   1.335 -0.3006 -0.7648  0.9595
18815SOL     OW63494  10.642   9.341  11.988  0.0338  0.2327 -0.2842
18815SOL    HW163495  10.667   9.359  11.897  1.8040  0.4626  0.2220
18815SOL    HW263496  10.725   9.329  12.034 -0.8440 -0.1199  1.2677
18816SOL     OW63497   3.482  11.710   4.861  0.4431 -0.3951  0.3544
18816SOL    HW163498   3.521  11.751   4.784 -1.8031  0.1805 -0.5636
18816SOL    HW263499   3.453  11.783   4.915 -0.9564 -0.7320  0.1120
18817SOL     OW63500   9.116   3.283   8.244 -0.8427  0.0063  0.6585
18817SOL    HW163501   9.066   3.243   8.316  1.2347  0.4568  2.4751
18817SOL    HW263502   9.070   3.365   8.226 -1.9838 -0.5921  0.7498
18818SOL     OW63503   5.879  11.053   8.119  0.1365 -0.2559 -0.1403
18818SOL    HW163504   5.819  11.004   8.063 -0.1456 -0.1963  0.1063
18818SOL    HW263505   5.841  11.045   8.207 -0.5156  1.3253 -0.2595
18819SOL     OW63506   9.554  11.613   3.255  0.0437 -0.0773  0.2261
18819SOL    HW163507   9.645  11.594   3.278 -0.1966  0.0396  1.3405
18819SOL    HW263508   9.507  11.612   3.339 -1.1215 -0.8736 -0.4069
18820SOL     OW63509   5.940   2.004   1.896 -0.0110 -0.2366 -0.7135
18820SOL    HW163510   5.902   1.944   1.832 -1.8882 -0.4976  0.5676
18820SOL    HW263511   6.031   1.974   1.906 -0.3764 -1.6890 -1.4612
18821SOL     OW63512   6.010   7.579   2.088  0.0314  0.1397 -0.4883
18821SOL    HW163513   5.983   7.498   2.045 -0.2465 -0.0307 -0.0011
18821SOL    HW263514   6.074   7.551   2.153  0.8071  0.4485 -1.0963
18822SOL     OW63515  11.010   4.744  11.704 -0.0456 -0.8872 -0.0129
18822SOL    HW163516  10.948   4.678  11.674 -3.2970  1.9647 -0.1437
18822SOL    HW263517  10.956   4.814  11.740  3.2400  0.8239  2.1759
18823SOL     OW63518   4.452   9.587   9.818  0.5386 -0.1861 -0.2461
18823SOL    HW163519   4.394   9.600   9.743  0.6305 -1.3353 -0.5322
18823SOL    HW263520   4.504   9.510   9.795 -0.7595 -1.7865  1.7943
18824SOL     OW63521   3.522   4.339   7.518  0.1529 -0.0842 -0.9373
18824SOL    HW163522   3.503   4.246   7.535 -3.0200  0.4275 -1.1433
18824SOL    HW263523   3.542   4.375   7.604  0.1111 -0.7124 -0.6534
18825SOL     OW63524   1.216   4.570   4.910 -0.6452 -0.0424  0.3236
18825SOL    HW163525   1.303   4.608   4.909 -1.3056  1.8000  2.5093
18825SOL    HW263526   1.227   4.484   4.951  0.3689 -0.7650 -1.3659
18826SOL     OW63527   5.939   1.067   8.566  0.0894 -0.4049 -0.6800
18826SOL    HW163528   5.923   0.992   8.623  0.7801 -0.8493 -1.0471
18826SOL    HW263529   6.012   1.039   8.510 -0.8313 -0.1594 -2.0717
18827SOL     OW63530   0.148   6.931   8.935 -0.6208 -0.2172  0.3194
18827SOL    HW163531   0.072   6.915   8.879 -1.3285  2.7368  0.2779
18827SOL    HW263532   0.145   7.025   8.953  2.5079 -0.1619  1.0951
18828SOL     OW63533   1.823   4.840   7.072  0.2387 -0.0040  0.2149
18828SOL    HW163534   1.729   4.848   7.088  0.2004  0.8714 -0.4298
18828SOL    HW263535   1.856   4.792   7.149 -0.6543  0.0881  0.6678
18829SOL     OW63536   1.522   8.934   3.909 -0.3251 -0.3681 -0.0204
18829SOL    HW163537   1.617   8.922   3.900  0.0764  1.5240  1.2196
18829SOL    HW263538   1.500   8.997   3.841 -0.1287  1.4741  1.5568
18830SOL     OW63539   4.621   1.789  11.431  0.1792  0.0883  0.2268
18830SOL    HW163540   4.583   1.712  11.473  1.0617  0.5143  1.8890
18830SOL    HW263541   4.569   1.801  11.352 -0.4033 -1.8111  0.2705
18831SOL     OW63542   8.354   6.538  11.148  0.0780  0.3166 -0.4954
18831SOL    HW163543   8.337   6.525  11.055 -0.4192  0.5160 -0.4340
18831SOL    HW263544   8.432   6.593  11.152 -0.8133  1.6489 -0.8175
18832SOL     OW63545   7.768   5.682   8.721 -0.1104 -0.2607 -0.2013
18832SOL    HW163546   7.825   5.711   8.651  0.0938  0.5621  0.2850
18832SOL    HW263547   7.820   5.619   8.771  0.9550  1.5766  1.1096
18833SOL     OW63548   4.010  11.837   3.398  0.7591  0.5065 -0.0478
18833SOL    HW163549   4.096  11.868   3.424  0.4844  1.7454 -0.5186
18833SOL    HW263550   4.025  11.790   3.316  0.8511  1.8507 -0.8379
18834SOL     OW63551   3.321   7.874   1.919 -0.0113 -0.0216 -0.2903
18834SOL    HW163552   3.313   7.961   1.880  2.2387  1.1368  1.5790
18834SOL    HW263553   3.414   7.852   1.910 -0.5004 -2.1816 -0.5479
18835SOL     OW63554   2.603   2.762   4.929  0.0649 -0.0592  0.1074
18835SOL    HW163555   2.652   2.844   4.934 -1.1147  0.6253  0.8813
18835SOL    HW263556   2.535   2.779   4.864 -0.4359 -0.2843  0.5714
18836SOL     OW63557   1.559  11.953   2.696 -0.2218 -0.4071  0.6283
18836SOL    HW163558   1.560  12.016   2.768  0.5179  2.5665 -1.7817
18836SOL    HW263559   1.651  11.943   2.672 -0.5773  0.4638 -1.2734
18837SOL     OW63560   4.072   3.992   6.517 -0.0910  0.3479 -0.3070
18837SOL    HW163561   3.985   4.015   6.484  0.0922 -1.4153 -2.2560
18837SOL    HW263562   4.126   3.986   6.438  1.7466  1.0837  0.8392
18838SOL     OW63563  11.925   6.458   7.863 -0.5107 -0.8890 -0.2729
18838SOL    HW163564  11.976   6.440   7.784 -0.1515 -0.1646 -0.2138
18838SOL    HW263565  11.911   6.553   7.861  1.0374 -0.5860  1.4358
18839SOL     OW63566  11.087   1.532  11.735  0.1715  0.3920 -0.1783
18839SOL    HW163567  11.153   1.478  11.778  0.3883  2.0281  1.7071
18839SOL    HW263568  11.005   1.484  11.747  0.5312 -0.1003  0.3923
18840SOL     OW63569  10.815  11.914   0.933  0.0827  0.0426  0.0402
18840SOL    HW163570  10.867  11.995   0.933 -0.2517  0.2640  0.8587
18840SOL    HW263571  10.726  11.943   0.911  0.3855 -0.4153 -1.9961
18841SOL     OW63572   4.629   8.636   5.952 -0.0423  0.3369 -0.2389
18841SOL    HW163573   4.711   8.604   5.913 -0.1280 -0.4782  0.2276
18841SOL    HW263574   4.561   8.580   5.914 -0.5918  1.9110 -1.7183
18842SOL     OW63575   1.619   1.863   7.444 -0.0428 -0.4128 -0.6155
18842SOL    HW163576   1.533   1.899   7.469 -0.6989 -1.6709 -0.9473
18842SOL    HW263577   1.650   1.821   7.524 -0.9186 -2.1218 -1.1147
18843SOL     OW63578   5.126   1.535   4.899  0.3436 -0.3639  0.0690
18843SOL    HW163579   5.069   1.469   4.937 -0.1330  0.1542  0.2784
18843SOL    HW263580   5.068   1.590   4.846  0.6035  0.2961  0.4488
18844SOL     OW63581  10.493   7.003   4.843 -0.3789 -0.5332  0.0974
18844SOL    HW163582  10.416   6.993   4.787 -0.4545 -1.3967  0.3528
18844SOL    HW263583  10.527   6.914   4.854 -1.6687 -0.7463  3.2680
18845SOL     OW63584  12.260   2.881   2.572 -0.9550 -0.2194  0.4308
18845SOL    HW163585  12.204   2.859   2.647 -0.1669  1.2846  1.5361
18845SOL    HW263586  12.333   2.820   2.578 -0.1740  0.7868  1.7979
18846SOL     OW63587   9.865   2.537   2.167 -0.1820  0.5329 -0.5457
18846SOL    HW163588   9.868   2.530   2.071 -0.8541  2.7927 -0.7961
18846SOL    HW263589   9.786   2.490   2.192 -0.5394  0.7680 -1.2124
18847SOL     OW63590   3.461   0.708   5.120 -0.6895  0.5889 -0.6647
18847SOL    HW163591   3.387   0.761   5.149  0.2542  1.7236 -0.2535
18847SOL    HW263592   3.518   0.769   5.074  2.0954  0.8312  2.6545
18848SOL     OW63593   6.525   1.661   7.495 -0.3205  0.1546 -0.4380
18848SOL    HW163594   6.552   1.578   7.457  1.6524  0.2441  0.6549
18848SOL    HW263595   6.462   1.637   7.563 -1.8237 -0.1925 -1.8917
18849SOL     OW63596   1.851   9.469   8.806 -0.3629  1.0544 -0.2512
18849SOL    HW163597   1.756   9.473   8.801 -0.2506  4.3797 -2.3101
18849SOL    HW263598   1.879   9.440   8.719  0.5876 -1.9709  0.9222
18850SOL     OW63599  11.975   8.535   0.868 -0.0739  0.0501  0.0686
18850SOL    HW163600  11.983   8.488   0.951 -0.5163 -0.8035 -0.3588
18850SOL    HW263601  11.889   8.510   0.834 -0.3610  1.2524 -0.1365
18851SOL     OW63602   5.326   5.709   0.571 -0.0160  0.0105 -0.0821
18851SOL    HW163603   5.341   5.627   0.618 -0.1998 -0.4058 -0.7393
18851SOL    HW263604   5.235   5.731   0.589 -0.5642 -0.9786 -1.4939
18852SOL     OW63605   2.838   8.078   2.260  0.1325  1.2227 -0.0030
18852SOL    HW163606   2.796   8.138   2.199 -0.3179  1.2025  0.2805
18852SOL    HW263607   2.834   7.993   2.217  0.5383  1.3473 -0.2916
18853SOL     OW63608   1.598   9.358  11.724 -0.1518 -0.0590  0.2359
18853SOL    HW163609   1.575   9.267  11.706 -0.0512  0.3343 -2.2684
18853SOL    HW263610   1.692   9.356  11.741  0.3713 -0.2179 -2.2643
18854SOL     OW63611   6.070   0.142   3.419  0.0409  0.1078  0.4187
18854SOL    HW163612   6.125   0.219   3.404 -0.7588  0.6185  0.0763
18854SOL    HW263613   5.981   0.177   3.428 -0.5726 -0.8892 -1.2692
18855SOL     OW63614  11.934   7.502  11.911  0.5335  0.0759 -0.2100
18855SOL    HW163615  11.871   7.541  11.850  2.1173 -0.8114 -2.5654
18855SOL    HW263616  11.888   7.428  11.950 -0.2017  0.0436 -1.1154
18856SOL     OW63617   3.182   1.800   2.044  0.3436  0.5713 -0.0324
18856SOL    HW163618   3.175   1.879   1.991  1.3967 -0.6016 -2.0599
18856SOL    HW263619   3.112   1.743   2.012  0.9768 -0.1472 -0.1697
18857SOL     OW63620   4.881   0.094   7.433  0.5674  0.0074 -0.1595
18857SOL    HW163621   4.967   0.070   7.399  0.3539 -1.4771  0.2801
18857SOL    HW263622   4.884   0.070   7.526 -0.5020 -0.6682 -0.2793
18858SOL     OW63623  11.140   1.361  10.671 -0.6068 -0.0986  0.4220
18858SOL    HW163624  11.079   1.306  10.720  0.8095 -1.5934  0.6187
18858SOL    HW263625  11.217   1.305  10.659 -0.6884  0.3333 -3.1343
18859SOL     OW63626   9.280   8.226  11.971 -0.1546 -0.1429 -0.2217
18859SOL    HW163627   9.286   8.295  12.037 -2.0255 -0.1960  0.0661
18859SOL    HW263628   9.343   8.160  12.000  1.6681  1.3872 -0.5007
18860SOL     OW63629   3.482   2.426   3.857  0.1154 -0.1124  0.2023
18860SOL    HW163630   3.513   2.374   3.782  0.3649  0.4039 -0.0574
18860SOL    HW263631   3.432   2.363   3.910 -3.4845  0.2784 -2.3504
18861SOL     OW63632   1.404   9.472   1.484 -0.5207 -0.0850 -0.2266
18861SOL    HW163633   1.442   9.399   1.435 -1.2480 -1.5338  1.2735
18861SOL    HW263634   1.359   9.430   1.558 -2.0249  1.7996 -0.0036
18862SOL     OW63635   9.932   9.533   5.992  0.6342 -0.3844 -0.0439
18862SOL    HW163636   9.908   9.570   6.077 -1.9125  0.9823 -1.2723
18862SOL    HW263637   9.855   9.484   5.965  0.4673  1.1369 -2.5810
18863SOL     OW63638   1.571   7.603   2.758 -0.6637 -0.8052 -0.3556
18863SOL    HW163639   1.522   7.660   2.698  2.8207  0.3096 -2.4135
18863SOL    HW263640   1.576   7.519   2.712 -1.0129 -1.0627  0.0710
18864SOL     OW63641   9.190   5.751  12.175  0.2573  0.4515 -0.4355
18864SOL    HW163642   9.140   5.833  12.175 -1.2183 -0.4224  0.4023
18864SOL    HW263643   9.125   5.683  12.189  1.6190 -0.7917  0.0744
18865SOL     OW63644   3.430  12.373  11.360 -0.3473  0.1931 -0.2123
18865SOL    HW163645   3.502  12.432  11.385  1.3075 -0.2256 -3.4691
18865SOL    HW263646   3.463  12.285  11.382 -0.3442  0.0821 -0.6572
18866SOL     OW63647   8.648   0.394   2.084  0.0715  0.1493 -0.0992
18866SOL    HW163648   8.619   0.375   1.995 -1.0268  0.5838  0.1466
18866SOL    HW263649   8.572   0.435   2.126  0.7391  0.4233  0.8838
18867SOL     OW63650  12.542   9.339   5.668 -0.3915  0.0736  0.8704
18867SOL    HW163651  12.553   9.295   5.752  3.3756 -0.0524  0.5210
18867SOL    HW263652  12.500   9.422   5.690  0.5426  0.0766  2.9506
18868SOL     OW63653  11.910   6.125   8.944 -0.2497  0.1557  0.3005
18868SOL    HW163654  11.915   6.111   8.849 -0.8337 -0.5245  0.3639
18868SOL    HW263655  11.948   6.212   8.957 -1.6548  0.9870 -0.7650
18869SOL     OW63656   6.622   8.236   2.100  0.3802  0.4432  0.1598
18869SOL    HW163657   6.677   8.177   2.048  1.0695  1.8576 -0.8260
18869SOL    HW263658   6.546   8.184   2.124  1.4071 -1.1176  0.1910
18870SOL     OW63659   7.729   3.103   9.327  0.1243 -0.7411  0.5770
18870SOL    HW163660   7.715   3.029   9.387  2.1090 -2.1781 -0.5984
18870SOL    HW263661   7.642   3.141   9.314 -0.8750 -2.5271  1.6601
18871SOL     OW63662   6.950  12.351   7.932  0.2031  0.5219  0.3454
18871SOL    HW163663   7.003  12.337   7.854  0.3174 -2.3080  0.8434
18871SOL    HW263664   6.863  12.321   7.908 -0.8176  3.3078  0.1624
18872SOL     OW63665   3.064   6.944   6.296  0.8096 -0.2132 -0.5032
18872SOL    HW163666   3.147   6.898   6.283  0.3176 -1.1892 -0.3379
18872SOL    HW263667   3.072   6.983   6.383  0.0984 -2.6378  0.7503
18873SOL     OW63668   3.057   8.868   4.099 -0.2284 -0.3780  1.0610
18873SOL    HW163669   3.011   8.791   4.133 -0.1273 -0.8280  0.2079
18873SOL    HW263670   3.045   8.935   4.167  0.9485 -1.5795  2.5291
18874SOL     OW63671   2.103  10.292   2.997  0.4116 -0.0986 -0.2653
18874SOL    HW163672   2.086  10.210   2.950 -0.5958 -0.0292 -0.0252
18874SOL    HW263673   2.040  10.354   2.961  0.3119  0.2293  0.4617
18875SOL     OW63674   9.067  12.116  12.337 -0.1471  0.5411 -0.3073
18875SOL    HW163675   9.045  12.164  12.257 -0.7322 -0.0041 -0.4826
18875SOL    HW263676   8.991  12.126  12.394 -0.5697 -0.7104 -0.6112
18876SOL     OW63677   9.485   9.395   9.490  0.3775 -0.3545 -0.0312
18876SOL    HW163678   9.528   9.465   9.442 -3.0317  0.6879 -1.8983
18876SOL    HW263679   9.416   9.439   9.540 -1.2337 -2.2275 -0.4919
18877SOL     OW63680   6.801   0.009  11.380  0.4382  0.0608  0.3662
18877SOL    HW163681   6.875   0.013  11.441  0.2661 -0.7317  0.6435
18877SOL    HW263682   6.735  -0.044  11.426 -0.3927  0.9417  0.2223
18878SOL     OW63683   5.116   6.485   0.566  0.7450 -0.5273 -0.2466
18878SOL    HW163684   5.148   6.488   0.656  2.4742 -0.8860 -0.8089
18878SOL    HW263685   5.186   6.442   0.517  0.4272  0.8159 -1.9925
18879SOL     OW63686   3.060   3.361  10.814 -0.0889 -0.1362  0.0443
18879SOL    HW163687   2.970   3.336  10.794 -0.2346  0.3355  0.1044
18879SOL    HW263688   3.089   3.297  10.879 -0.2782 -0.4719 -0.2013
18880SOL     OW63689   5.476   7.231   5.081 -0.3904  0.2076  0.3617
18880SOL    HW163690   5.463   7.259   4.990 -0.0537 -0.8776 -0.0354
18880SOL    HW263691   5.426   7.295   5.133 -0.4156  0.9651 -0.5594
18881SOL     OW63692   7.261   6.181   6.111  0.3788  0.0949 -0.7484
18881SOL    HW163693   7.285   6.108   6.169 -2.9838 -1.3266 -0.9292
18881SOL    HW263694   7.294   6.156   6.025  0.2190 -0.6931 -0.5860
18882SOL     OW63695  11.095   3.180   8.464 -0.0580  0.6405  0.2208
18882SOL    HW163696  11.142   3.263   8.473  0.1283  0.5368  0.2211
18882SOL    HW263697  11.015   3.202   8.416 -0.0610  0.8390  0.3170
18883SOL     OW63698   4.254   5.073  11.061  0.0114  0.0964  0.1588
18883SOL    HW163699   4.179   5.119  11.100  1.0305  0.7990  1.3381
18883SOL    HW263700   4.226   5.055  10.972 -0.7811  2.2667 -0.1042
18884SOL     OW63701   8.969   3.934   5.723 -0.7103  0.4513 -1.1032
18884SOL    HW163702   9.010   3.861   5.677 -0.9004 -0.4638  0.0986
18884SOL    HW263703   9.012   3.935   5.809 -1.4445  1.0684 -0.7257
18885SOL     OW63704   6.777   7.794   0.228  0.4006  0.0903 -0.5209
18885SOL    HW163705   6.738   7.824   0.146  0.8373  1.2649 -0.3250
18885SOL    HW263706   6.837   7.865   0.253  0.0531 -0.1039  0.9622
18886SOL     OW63707   9.509   6.904   2.488 -0.1357  0.1176 -0.7329
18886SOL    HW163708   9.427   6.891   2.439 -2.2751 -1.5054  2.8851
18886SOL    HW263709   9.488   6.878   2.577  4.7187 -1.4982  0.2203
18887SOL     OW63710  12.430  12.170   6.629 -0.3432 -0.1011 -0.4601
18887SOL    HW163711  12.414  12.174   6.723 -0.0946 -0.9785 -0.3788
18887SOL    HW263712  12.525  12.172   6.620 -0.2835 -2.1598 -0.5705
18888SOL     OW63713  11.958   8.809   8.230 -0.3073 -0.2505 -0.3022
18888SOL    HW163714  11.958   8.743   8.160 -1.0167  0.3569 -0.8956
18888SOL    HW263715  11.977   8.760   8.310  1.7740 -0.7773 -1.0581
18889SOL     OW63716   1.009  11.195   4.900 -0.5640  0.0669 -0.9303
18889SOL    HW163717   1.042  11.260   4.839 -1.2203  0.1501 -1.2018
18889SOL    HW263718   1.088  11.153   4.935 -0.1304  1.0278 -0.7124
18890SOL     OW63719   0.741   3.549   4.184 -0.3365 -0.0479  0.4057
18890SOL    HW163720   0.765   3.540   4.092  0.9394 -2.1205  0.8652
18890SOL    HW263721   0.712   3.639   4.193 -1.0184  0.0525 -2.1277
18891SOL     OW63722   7.311   8.699   7.383 -0.5523  0.7710  0.3086
18891SOL    HW163723   7.281   8.722   7.294 -1.9006  0.8100  0.7496
18891SOL    HW263724   7.336   8.608   7.377 -0.3525  0.8568 -0.1915
18892SOL     OW63725   1.067   9.609  12.054 -0.2845 -0.0105 -0.0534
18892SOL    HW163726   1.091   9.621  11.962  0.1509  1.8610  0.2472
18892SOL    HW263727   1.118   9.676  12.100 -1.7315  0.1777  1.3422
18893SOL     OW63728   5.851   0.780   0.504 -0.0615  0.2472 -0.0869
18893SOL    HW163729   5.861   0.853   0.443 -2.1200  1.8255  1.3015
18893SOL    HW263730   5.797   0.717   0.458  1.1032 -0.0920 -1.0286
18894SOL     OW63731   4.902   8.435   4.371  0.5477 -0.6082 -0.4632
18894SOL    HW163732   4.820   8.387   4.378  0.6687 -1.2155 -2.4492
18894SOL    HW263733   4.957   8.398   4.440  0.4365 -3.0235 -1.5406
18895SOL     OW63734   1.542  10.748   6.402 -1.0056  0.1900 -0.3518
18895SOL    HW163735   1.622  10.725   6.355  0.3320  1.0415  1.3869
18895SOL    HW263736   1.555  10.713   6.490 -1.2502  2.7757  0.7950
18896SOL     OW63737   4.431   8.546   8.536 -0.0819 -0.1958 -0.3546
18896SOL    HW163738   4.452   8.598   8.459  1.8696  1.0025  0.9045
18896SOL    HW263739   4.372   8.601   8.587 -0.2729 -0.4099 -0.3432
18897SOL     OW63740  10.088   6.625   0.598 -0.4859  0.7327 -0.1514
18897SOL    HW163741  10.073   6.599   0.689 -0.1144 -0.4180 -0.4079
18897SOL    HW263742  10.178   6.658   0.597 -0.5840  1.0099 -0.0530
18898SOL     OW63743   6.868   6.095   3.634 -0.3955  0.0851  0.3534
18898SOL    HW163744   6.823   6.045   3.567 -0.6813 -1.3909  1.5914
18898SOL    HW263745   6.909   6.168   3.587 -2.3854  0.3486 -1.0808
18899SOL     OW63746   2.143   3.648  11.239  0.0664 -0.0683 -0.1674
18899SOL    HW163747   2.102   3.718  11.289 -1.0416 -0.5258 -0.3837
18899SOL    HW263748   2.104   3.655  11.151  1.5171  0.3437 -0.8023
18900SOL     OW63749   1.119   6.570   2.501  0.3161 -0.1360 -0.7284
18900SOL    HW163750   1.120   6.597   2.592 -1.5418 -1.1958 -0.3318
18900SOL    HW263751   1.071   6.639   2.455  2.1135  0.9056 -1.1483
18901SOL     OW63752   0.815   7.995   8.907  0.4514  0.5202  0.6909
18901SOL    HW163753   0.872   7.979   8.831  1.1543  0.6210  1.1858
18901SOL    HW263754   0.728   8.006   8.869  0.7709  0.4636 -0.0939
18902SOL     OW63755   7.479   6.298  12.418 -0.2592 -0.0484  0.2567
18902SOL    HW163756   7.469   6.393  12.423 -0.4683 -0.0664  0.2197
18902SOL    HW263757   7.395   6.264  12.450 -0.2430 -0.2168  0.1227
18903SOL     OW63758   3.092   4.009   6.101  0.2197  0.2210 -0.3199
18903SOL    HW163759   3.111   3.941   6.166 -1.9411  0.4947  0.6781
18903SOL    HW263760   3.032   3.968   6.039 -0.6661  1.0257 -0.0221
18904SOL     OW63761   7.798   2.229   8.719  0.0319  0.0352 -0.5819
18904SOL    HW163762   7.727   2.165   8.710 -0.8410  0.8376  0.4892
18904SOL    HW263763   7.853   2.213   8.642 -1.3029 -0.5957 -1.4494
18905SOL     OW63764  10.862   9.446   0.011 -0.3119 -0.2485  0.2569
18905SOL    HW163765  10.812   9.502   0.069  0.1723 -0.1082  0.5480
18905SOL    HW263766  10.821   9.456  -0.075 -1.6410 -1.2137  0.7576
18906SOL     OW63767   7.109   4.547   4.367  0.2017 -0.2157 -1.0216
18906SOL    HW163768   7.117   4.604   4.444  2.1048  0.3981 -1.6115
18906SOL    HW263769   7.078   4.606   4.298 -0.1521 -0.4450 -1.0566
18907SOL     OW63770   3.702   4.873  10.825 -0.0038  0.3028 -0.4787
18907SOL    HW163771   3.652   4.792  10.815 -1.8775  1.1392  1.2090
18907SOL    HW263772   3.695   4.893  10.918  1.2407  1.9150 -0.6954
18908SOL     OW63773   3.371   8.082   6.743 -0.0727  0.3176  0.0355
18908SOL    HW163774   3.385   8.156   6.684 -0.5774  1.3178  1.1407
18908SOL    HW263775   3.459   8.054   6.768  0.1241  1.8838  1.2241
18909SOL     OW63776   8.499   4.407   6.096  0.1005 -0.1962  0.0393
18909SOL    HW163777   8.564   4.354   6.143 -0.0796 -0.6676 -0.2340
18909SOL    HW263778   8.514   4.496   6.127  0.7311 -0.3328  0.1506
18910SOL     OW63779   5.776   7.601   4.725 -0.3741 -0.1160 -0.3507
18910SOL    HW163780   5.820   7.589   4.810  0.0234  0.3732 -0.4810
18910SOL    HW263781   5.733   7.687   4.733  0.6153  0.4629 -1.0435
18911SOL     OW63782   1.765   9.475   7.237  0.1670 -0.1197  0.3073
18911SOL    HW163783   1.729   9.508   7.320 -0.3940  1.9802 -0.7005
18911SOL    HW263784   1.689   9.448   7.186  0.3471  0.3969 -0.2417
18912SOL     OW63785   0.875  10.465   2.599  0.1782 -0.5537 -0.2632
18912SOL    HW163786   0.945  10.484   2.537  0.7521 -1.2978  0.1512
18912SOL    HW263787   0.835  10.384   2.567 -0.5323 -0.1119 -0.5226
18913SOL     OW63788   8.786   7.948  10.491 -0.5769  0.1800  0.2620
18913SOL    HW163789   8.828   7.871  10.530 -0.7344  0.1219  0.3175
18913SOL    HW263790   8.692   7.932  10.502 -0.7902 -1.1396 -2.4751
18914SOL     OW63791   2.095   3.803   7.564  0.2593 -0.4111  0.2915
18914SOL    HW163792   2.064   3.713   7.574 -0.1802 -0.0893  2.2021
18914SOL    HW263793   2.032   3.843   7.503  0.9006 -1.5562 -1.1912
18915SOL     OW63794  11.820  11.536   5.298  0.3060 -0.0815  0.0513
18915SOL    HW163795  11.746  11.494   5.256  1.3172 -1.7812 -0.1028
18915SOL    HW263796  11.897  11.492   5.262  1.3815  1.2065  0.6680
18916SOL     OW63797  11.538   4.787   3.966  0.1461  0.1520 -0.0129
18916SOL    HW163798  11.480   4.831   4.029  0.5282  1.0057 -0.2349
18916SOL    HW263799  11.546   4.698   3.999 -0.6257  0.2534  0.4804
18917SOL     OW63800   6.383  10.023  10.594  0.0909 -0.5443 -0.0959
18917SOL    HW163801   6.438  10.056  10.523  1.0921 -1.4635  0.2095
18917SOL    HW263802   6.442   9.968  10.646 -0.8623 -0.6864  0.8799
18918SOL     OW63803   2.786   3.875   9.126 -0.1820 -0.0004  0.1911
18918SOL    HW163804   2.764   3.800   9.072  0.9964 -0.9027  0.9141
18918SOL    HW263805   2.735   3.864   9.206  0.0214 -0.0616  0.3141
18919SOL     OW63806   6.951   1.219   9.344  0.2477 -0.1384 -0.2623
18919SOL    HW163807   6.939   1.145   9.403  1.3328 -0.2821 -0.2040
18919SOL    HW263808   6.871   1.271   9.354  0.7276  0.2682  1.9560
18920SOL     OW63809  10.600   9.406   0.567  0.6862  0.5115 -0.1222
18920SOL    HW163810  10.636   9.318   0.574  0.7206  0.4546 -0.8892
18920SOL    HW263811  10.619   9.432   0.477  0.0059  1.0058 -0.1315
18921SOL     OW63812   3.781   3.451   4.602 -0.4720 -0.0167 -0.0740
18921SOL    HW163813   3.822   3.513   4.542  2.8687 -0.6083  1.3419
18921SOL    HW263814   3.800   3.365   4.563  1.0957 -0.3691  1.3433
18922SOL     OW63815   8.383   3.936   2.370  0.4923  0.7225  0.4823
18922SOL    HW163816   8.320   3.885   2.421  0.3349  0.4801  0.0599
18922SOL    HW263817   8.461   3.881   2.366  0.1514  0.2629 -0.4025
18923SOL     OW63818   0.965   6.806   3.958  0.1684 -0.4657  0.1676
18923SOL    HW163819   0.959   6.711   3.957  0.5980 -0.4983 -1.0439
18923SOL    HW263820   1.014   6.826   4.038  1.6574 -1.3852 -0.4660
18924SOL     OW63821   9.945  12.317   9.814 -0.7291  0.0128 -0.3670
18924SOL    HW163822  10.026  12.276   9.844 -0.4643  0.2865 -0.6937
18924SOL    HW263823   9.928  12.387   9.877  0.4102  1.2868 -1.4260
18925SOL     OW63824  10.613   1.464   3.634  0.4813  0.6097  0.2053
18925SOL    HW163825  10.563   1.390   3.666  0.6112  0.1384 -0.6466
18925SOL    HW263826  10.645   1.436   3.548 -1.0251  2.3358 -0.9937
18926SOL     OW63827   7.447  10.480   4.780 -0.0018 -0.4425 -0.1463
18926SOL    HW163828   7.515  10.513   4.721 -0.2118 -0.0116 -0.1452
18926SOL    HW263829   7.366  10.517   4.746  0.0314  0.9398  1.2325
18927SOL     OW63830  12.411  12.056  11.668 -0.4080  0.2011  0.1310
18927SOL    HW163831  12.331  12.060  11.617 -0.7334 -2.0088  0.3719
18927SOL    HW263832  12.477  12.020  11.609  0.7537  2.9214 -0.3768
18928SOL     OW63833   3.550  10.167   1.377 -0.0849 -0.3887  0.8177
18928SOL    HW163834   3.633  10.200   1.343 -0.1842 -0.2555  0.7058
18928SOL    HW263835   3.514  10.113   1.306 -1.1523  1.3176 -0.0030
18929SOL     OW63836   5.000   0.401   4.664 -0.0556 -1.0629 -0.1128
18929SOL    HW163837   4.908   0.383   4.645  0.3822 -1.7198 -1.7946
18929SOL    HW263838   5.030   0.454   4.590  0.5909  0.3147  1.0890
18930SOL     OW63839   5.232   9.214   2.311  0.8356 -0.3793  0.0167
18930SOL    HW163840   5.247   9.274   2.238 -0.2480  0.1038  0.1728
18930SOL    HW263841   5.261   9.262   2.389  0.0615 -0.0799  0.1299
18931SOL     OW63842   7.485  10.875   0.591 -0.0613  0.1206 -0.6094
18931SOL    HW163843   7.446  10.797   0.631 -0.4723  0.3157 -0.6169
18931SOL    HW263844   7.489  10.939   0.662  1.3347 -0.2702 -0.3197
18932SOL     OW63845   7.058   6.054  11.413 -0.2984 -0.0413  0.1054
18932SOL    HW163846   7.138   6.069  11.463 -0.1216 -0.7878  0.0612
18932SOL    HW263847   6.993   6.110  11.455  0.0448 -0.0544  0.6709
18933SOL     OW63848   3.646  12.182   6.478 -0.0623  0.6561 -0.2255
18933SOL    HW163849   3.604  12.266   6.460 -1.0584  0.0473 -0.8341
18933SOL    HW263850   3.632  12.168   6.572 -1.3717  0.4109 -0.4352
18934SOL     OW63851   1.659   8.862   6.827 -0.1779  0.4071  0.5521
18934SOL    HW163852   1.591   8.846   6.892  1.6039 -2.2568  1.9514
18934SOL    HW263853   1.729   8.905   6.875  0.6641 -0.4526  0.1197
18935SOL     OW63854   1.074   4.221   3.236 -0.0780 -0.3884  0.3769
18935SOL    HW163855   0.986   4.182   3.238  0.6352 -2.1329  0.0189
18935SOL    HW263856   1.086   4.258   3.323 -1.7051  1.2256 -0.0195
18936SOL     OW63857   4.652   6.674   3.580 -0.3987 -0.2714  0.0268
18936SOL    HW163858   4.593   6.606   3.612 -0.0841 -0.1787  0.8075
18936SOL    HW263859   4.731   6.664   3.632  0.2818 -0.3798 -0.9947
18937SOL     OW63860   2.411   2.998  10.925  0.3418 -0.1011  0.3149
18937SOL    HW163861   2.368   3.012  11.009 -0.6607  0.1490 -0.2217
18937SOL    HW263862   2.427   2.904  10.922 -0.6378 -0.2820  0.3228
18938SOL     OW63863   7.166   8.524   3.735  0.2101  0.5302 -0.3724
18938SOL    HW163864   7.229   8.497   3.668 -0.2984  0.2476 -0.7533
18938SOL    HW263865   7.081   8.515   3.692 -0.2228 -0.8888  0.7176
18939SOL     OW63866   8.574  11.706   2.847  0.6489  0.1972  0.0052
18939SOL    HW163867   8.479  11.711   2.858  0.9191  2.1646  2.1148
18939SOL    HW263868   8.591  11.614   2.828 -1.7885  0.0840 -2.1578
18940SOL     OW63869   8.189   3.951   2.696 -0.2671  0.1128 -0.4497
18940SOL    HW163870   8.119   3.952   2.631  0.4843 -0.9756 -1.3150
18940SOL    HW263871   8.246   3.879   2.669 -0.4500 -1.0523  1.9865
18941SOL     OW63872   1.661   6.755  10.515 -0.0446 -0.2762  0.0846
18941SOL    HW163873   1.675   6.802  10.597 -0.0188  0.9103 -0.5699
18941SOL    HW263874   1.574   6.783  10.486  0.1361 -0.3131 -0.5147
18942SOL     OW63875   3.664  10.930   1.441  0.3718  0.3116 -0.0654
18942SOL    HW163876   3.650  11.022   1.463 -0.7442  0.5084 -1.4143
18942SOL    HW263877   3.721  10.931   1.364 -1.1514  0.0100 -1.2518
18943SOL     OW63878   4.261   2.299   2.832 -0.2837 -0.0053  0.4081
18943SOL    HW163879   4.352   2.324   2.819  0.0815 -0.9252  1.0997
18943SOL    HW263880   4.238   2.334   2.918 -0.4984 -0.0339  0.3642
18944SOL     OW63881  11.157   1.650  10.654 -0.0415  0.6700  0.1028
18944SOL    HW163882  11.072   1.656  10.699 -0.0069 -0.0733  0.2845
18944SOL    HW263883  11.165   1.557  10.631 -0.0390  1.0271 -1.4309
18945SOL     OW63884   6.049   0.789   2.167 -0.0124  1.0381 -0.2994
18945SOL    HW163885   6.002   0.849   2.109  1.5024  0.8344 -1.8002
18945SOL    HW263886   6.096   0.730   2.108 -0.7779 -1.1373  1.1211
18946SOL     OW63887  11.413   1.803   6.393  0.0412 -0.0462 -0.9406
18946SOL    HW163888  11.478   1.848   6.447 -0.4720 -1.9720  1.4807
18946SOL    HW263889  11.329   1.827   6.432 -0.3703 -1.2101 -1.0578
18947SOL     OW63890   3.994  11.604   0.325  0.2186  0.7825 -0.2713
18947SOL    HW163891   3.921  11.610   0.386  0.3085  2.2242 -0.2715
18947SOL    HW263892   4.031  11.517   0.341 -1.2903  0.1490 -0.0657
18948SOL     OW63893   4.934   0.247  12.348  0.4129  0.1089 -0.0003
18948SOL    HW163894   4.895   0.166  12.316  0.0212  1.1285 -2.2866
18948SOL    HW263895   5.028   0.233  12.342  0.3443 -0.1178 -0.5899
18949SOL     OW63896   6.133   0.592   0.823 -0.3804 -0.6924 -0.3157
18949SOL    HW163897   6.107   0.634   0.904 -0.0866  0.3825 -0.7635
18949SOL    HW263898   6.189   0.519   0.850  1.5862  0.9786  0.3960
18950SOL     OW63899   0.212   7.840   0.091  0.3476  0.6608  0.2455
18950SOL    HW163900   0.133   7.888   0.065  1.2632  1.6962 -0.7133
18950SOL    HW263901   0.198   7.752   0.057 -0.0280  1.0641 -0.6857
18951SOL     OW63902  11.721  11.976   1.238 -0.0309  0.1613  0.2495
18951SOL    HW163903  11.779  11.902   1.222  0.1481  0.5567 -1.1158
18951SOL    HW263904  11.775  12.039   1.286  0.3358  0.0818 -0.0509
18952SOL     OW63905   9.085  11.163   6.313 -0.6439  0.0382 -0.1118
18952SOL    HW163906   9.119  11.116   6.236  1.8101 -0.0504  0.9097
18952SOL    HW263907   9.087  11.097   6.383  0.6177  1.0015  0.8045
18953SOL     OW63908   4.820  12.562   4.409  0.0409 -0.2462 -0.2412
18953SOL    HW163909   4.814  12.508   4.330  0.1221 -1.1125  0.3334
18953SOL    HW263910   4.733  12.555   4.449  0.5864 -1.4958  0.8084
18954SOL     OW63911   2.371   6.200   1.847 -0.1812 -0.5929  0.0195
18954SOL    HW163912   2.369   6.212   1.942  1.1732 -2.1709  0.2950
18954SOL    HW263913   2.442   6.257   1.817 -1.8589  1.4069 -0.3585
18955SOL     OW63914  11.973   8.360   3.704  0.1684  0.2686 -0.2154
18955SOL    HW163915  11.951   8.443   3.748  0.9629  1.2001 -1.4882
18955SOL    HW263916  11.916   8.295   3.745 -0.9329  1.5618  0.3784
18956SOL     OW63917   6.444   9.457  11.341  0.8418 -0.0458  0.4838
18956SOL    HW163918   6.395   9.382  11.306  0.1601  0.4715  0.3099
18956SOL    HW263919   6.520   9.465  11.283  0.1040  0.3502 -0.4626
18957SOL     OW63920   3.518   8.423  12.360  0.2122 -0.6116  0.5631
18957SOL    HW163921   3.547   8.344  12.405 -0.8215 -1.7925 -0.7709
18957SOL    HW263922   3.564   8.423  12.277 -0.1894 -0.0941  0.3311
18958SOL     OW63923  10.914   8.585   5.207  0.1767 -0.2256  0.0320
18958SOL    HW163924  10.916   8.680   5.210 -1.0994 -0.2034  1.1010
18958SOL    HW263925  10.894   8.563   5.116  0.5621  0.5040 -0.2365
18959SOL     OW63926   9.368   6.012   4.673 -0.2577 -0.3586  0.0949
18959SOL    HW163927   9.436   6.060   4.626 -0.2184 -0.4603  0.0476
18959SOL    HW263928   9.395   5.920   4.667 -0.2237 -0.3675  0.3605
18960SOL     OW63929   3.124   7.204   4.598 -0.8645 -0.2561 -0.7785
18960SOL    HW163930   3.126   7.299   4.593  0.6557 -0.2752 -0.8905
18960SOL    HW263931   3.069   7.185   4.674 -1.0269  0.7071 -0.6499
18961SOL     OW63932  12.274  10.039   9.542 -0.8545 -0.0856 -0.1593
18961SOL    HW163933  12.358  10.053   9.498 -0.6299 -0.2189  0.2242
18961SOL    HW263934  12.289   9.962   9.597 -0.7554  0.8249  1.1145
18962SOL     OW63935   6.577   5.278   0.428  0.5187 -0.3643  0.2251
18962SOL    HW163936   6.642   5.223   0.472  0.8842  1.5428  2.1983
18962SOL    HW263937   6.494   5.253   0.468  0.6322  0.2046  0.8311
18963SOL     OW63938   8.274   2.147   7.652  0.4089  0.5444 -0.7821
18963SOL    HW163939   8.254   2.069   7.703  0.4753  0.0180 -1.5398
18963SOL    HW263940   8.192   2.169   7.607  0.5451  0.5581 -1.0276
18964SOL     OW63941   9.074   6.402   1.395 -0.3909 -0.4327 -0.1974
18964SOL    HW163942   9.146   6.366   1.344 -0.9851 -4.1462  1.2685
18964SOL    HW263943   8.996   6.384   1.342 -0.5482  0.8631 -0.4394
18965SOL     OW63944   6.036   6.609   0.044  0.4787  0.1277 -0.0342
18965SOL    HW163945   6.001   6.547  -0.019 -3.2286 -0.4027  2.2171
18965SOL    HW263946   6.001   6.580   0.129  2.2798  2.7600  1.7882
18966SOL     OW63947   4.874   0.537  11.762 -0.4088  0.1041 -0.5277
18966SOL    HW163948   4.779   0.534  11.750 -0.2925  0.0899 -1.5597
18966SOL    HW263949   4.909   0.491  11.686  0.4538  0.8094 -0.5727
18967SOL     OW63950   7.864   1.546   5.234  0.0280  0.0894 -0.3600
18967SOL    HW163951   7.775   1.514   5.244 -0.5176  0.9744 -1.8898
18967SOL    HW263952   7.867   1.579   5.144  1.5169  1.2258  0.0617
18968SOL     OW63953   1.731   3.088   4.266 -0.2439 -0.1342 -0.6216
18968SOL    HW163954   1.790   3.149   4.222  0.6433 -0.3771  0.2054
18968SOL    HW263955   1.771   3.073   4.352 -0.1956 -2.2172 -0.9626
18969SOL     OW63956   0.088   5.397   1.244  0.4553  0.7034 -0.1111
18969SOL    HW163957   0.044   5.312   1.243  1.5810  0.0358  1.9239
18969SOL    HW263958   0.052   5.441   1.322  4.0227 -0.3443  2.3941
18970SOL     OW63959   8.016   2.445  11.534  0.2106  0.2867 -0.3953
18970SOL    HW163960   8.041   2.499  11.458  1.6083 -0.9145 -0.8433
18970SOL    HW263961   7.976   2.367  11.496 -1.0958  0.6432  0.2147
18971SOL     OW63962  12.483  12.426   7.106  0.1079 -0.2774 -0.0277
18971SOL    HW163963  12.418  12.398   7.171 -0.4666  0.0063 -0.4717
18971SOL    HW263964  12.561  12.446   7.158 -0.2211 -0.4259  0.5366
18972SOL     OW63965   7.797  11.634   8.678  0.3718 -0.5716 -0.1553
18972SOL    HW163966   7.807  11.545   8.644 -3.9202 -0.7571 -1.4312
18972SOL    HW263967   7.826  11.691   8.607  0.6005 -0.9287 -0.3504
18973SOL     OW63968   3.378   4.103  10.178 -0.0641 -0.2635  0.2291
18973SOL    HW163969   3.470   4.129  10.187 -0.6484  1.4496  2.3614
18973SOL    HW263970   3.372   4.018  10.222  0.6165 -0.7688 -0.6287
18974SOL     OW63971   8.524  10.710   0.897 -0.1193  0.0691 -0.1084
18974SOL    HW163972   8.499  10.754   0.978 -2.8341  0.6008 -1.1315
18974SOL    HW263973   8.596  10.652   0.922 -0.7728  0.3182  2.6231
18975SOL     OW63974   8.642   6.143  12.099 -0.2833 -0.4812  0.1209
18975SOL    HW163975   8.617   6.071  12.041  0.1846  0.1449 -0.8836
18975SOL    HW263976   8.639   6.221  12.044  2.3527 -0.1541  0.3112
18976SOL     OW63977   1.698   5.798   3.192 -0.3849 -0.4884 -0.0562
18976SOL    HW163978   1.674   5.765   3.105 -1.4026  3.0716 -1.2832
18976SOL    HW263979   1.624   5.853   3.218  1.2047  0.9396  1.7042
18977SOL     OW63980   0.731  10.523   2.851 -0.4834 -0.3376 -0.2450
18977SOL    HW163981   0.772  10.496   2.769 -1.0153  0.9975 -0.9817
18977SOL    HW263982   0.726  10.618   2.845 -3.2307 -0.3765  0.0047
18978SOL     OW63983  11.085   2.965   8.147  0.1170  0.5132 -0.0416
18978SOL    HW163984  11.147   3.029   8.113  0.1156  1.2031  1.1852
18978SOL    HW263985  11.001   3.011   8.146 -0.0786  0.1501 -0.1887
18979SOL     OW63986   6.290   5.766   3.741  0.6594  0.0664 -0.2430
18979SOL    HW163987   6.369   5.783   3.690 -0.5216  0.4606 -2.0529
18979SOL    HW263988   6.296   5.673   3.763  2.0501  0.3016  0.4775
18980SOL     OW63989   0.400   0.877   6.852  0.1958  0.3488  0.3747
18980SOL    HW163990   0.427   0.892   6.762 -0.3876  0.1728  0.1627
18980SOL    HW263991   0.304   0.872   6.848  0.1189  0.9727  1.0991
18981SOL     OW63992   7.290   2.646   3.620  0.3517  0.1347 -0.5748
18981SOL    HW163993   7.238   2.668   3.543 -2.1663  0.8084  1.1808
18981SOL    HW263994   7.257   2.560   3.647 -0.0391  0.6659  0.6940
18982SOL     OW63995   3.503   4.910   2.192  0.2358  0.3430  0.4125
18982SOL    HW163996   3.491   5.005   2.183  0.4384  0.3000 -0.4201
18982SOL    HW263997   3.587   4.900   2.237  0.8590  0.5550 -0.6695
18983SOL     OW63998   7.508   6.988   1.069  0.1375  0.2649 -0.3824
18983SOL    HW163999   7.479   7.077   1.089  1.2152  0.7091 -0.7472
18983SOL    HW264000   7.548   6.956   1.150  0.2256  0.3101 -0.4077
18984SOL     OW64001   5.991  11.325   0.564 -0.5703  0.8687 -0.2582
18984SOL    HW164002   5.922  11.370   0.612 -0.3199  1.1735 -0.1773
18984SOL    HW264003   5.998  11.239   0.606 -2.2759  0.0317 -1.5444
18985SOL     OW64004   8.720  11.583  10.018 -0.8912 -0.6380 -0.4459
18985SOL    HW164005   8.803  11.629  10.033 -0.7954 -1.5503  2.4044
18985SOL    HW264006   8.656  11.652  10.007 -0.6629  0.3228  3.1873
18986SOL     OW64007  11.774   8.177   3.758  0.1599  0.0334 -0.2364
18986SOL    HW164008  11.826   8.101   3.782  0.5832  0.5977  0.7185
18986SOL    HW264009  11.711   8.144   3.694 -1.7613 -1.9143  2.3712
18987SOL     OW64010  11.964  12.202  11.841  0.1604 -1.1200  0.1958
18987SOL    HW164011  12.041  12.206  11.899  0.7996 -1.2596 -0.6187
18987SOL    HW264012  11.989  12.253  11.765 -0.2605 -1.8133 -0.4178
18988SOL     OW64013   5.148   3.242   0.893  0.1557 -0.2995 -0.0698
18988SOL    HW164014   5.180   3.176   0.831 -0.0958 -2.0742  1.5579
18988SOL    HW264015   5.129   3.192   0.973  2.9529  2.1534  2.3965
18989SOL     OW64016   2.472   4.361   1.536  0.5689 -0.2188 -0.1355
18989SOL    HW164017   2.406   4.299   1.506  1.0901 -1.4457  1.1183
18989SOL    HW264018   2.430   4.408   1.608  0.8591 -0.6189  0.3031
18990SOL     OW64019   9.140   5.785  10.717  0.2146  0.1442  0.1183
18990SOL    HW164020   9.151   5.866  10.668  0.9058 -0.4417 -0.7374
18990SOL    HW264021   9.136   5.717  10.650 -0.5086 -0.5222  0.8143
18991SOL     OW64022   9.015   1.146  10.819 -0.4125 -0.1896 -0.5680
18991SOL    HW164023   9.051   1.113  10.901 -1.3616 -0.0535 -0.0882
18991SOL    HW264024   9.059   1.230  10.805 -1.1610  0.4012  0.4755
18992SOL     OW64025   6.700   5.979   7.896  0.1618 -0.2707 -0.2003
18992SOL    HW164026   6.628   5.960   7.835  0.5923 -1.3133 -0.4023
18992SOL    HW264027   6.657   5.985   7.981 -0.4243  1.0544 -0.5657
18993SOL     OW64028   7.999   0.233   3.096 -0.4573 -0.1278 -0.0953
18993SOL    HW164029   7.909   0.264   3.100 -0.4461 -0.1660  0.6600
18993SOL    HW264030   7.996   0.144   3.131 -0.2176 -0.3500 -0.6212
18994SOL     OW64031   6.899   1.685  10.033 -0.0161  0.0221  0.2747
18994SOL    HW164032   6.983   1.658  10.071  0.1534  0.1841  0.0164
18994SOL    HW264033   6.911   1.778  10.013 -0.1356 -0.0422 -0.0913
18995SOL     OW64034   6.423   9.635   0.105  0.1075 -0.3270 -0.4971
18995SOL    HW164035   6.468   9.641   0.190  0.1756  0.1379 -0.5644
18995SOL    HW264036   6.374   9.717   0.099 -0.3873 -0.6289 -0.6316
18996SOL     OW64037   8.421   9.853   5.703 -0.0616  0.5943 -0.4319
18996SOL    HW164038   8.398   9.762   5.683 -1.4537  1.1274 -1.3300
18996SOL    HW264039   8.512   9.861   5.675 -0.0132 -0.4271 -0.6162
18997SOL     OW64040   4.526   5.717   4.256 -0.0606 -0.1035  0.2889
18997SOL    HW164041   4.601   5.693   4.311 -1.8203 -1.1071  2.4228
18997SOL    HW264042   4.450   5.703   4.312 -1.8844  0.7698 -1.8126
18998SOL     OW64043   4.852   6.645   1.091  0.1080 -0.0703  0.1842
18998SOL    HW164044   4.877   6.732   1.123  0.1789  0.3108 -0.8720
18998SOL    HW264045   4.935   6.598   1.083  0.0543 -0.2935  0.9137
18999SOL     OW64046   6.079   3.130   8.692  0.5461 -0.0975  0.3622
18999SOL    HW164047   6.114   3.088   8.613 -1.1968  0.8016 -0.9447
18999SOL    HW264048   6.004   3.075   8.717  0.6343  0.0505  0.9661
19000SOL     OW64049  10.184   0.884   7.861 -0.2130  0.1250 -0.0292
19000SOL    HW164050  10.238   0.962   7.849 -0.0049 -0.2673 -1.9228
19000SOL    HW264051  10.155   0.889   7.952  1.9954  0.9774  0.6968
19001SOL     OW64052   2.146   1.272  11.921  0.4967  0.0633  0.0608
19001SOL    HW164053   2.160   1.318  12.004  1.2815 -0.1097  0.0238
19001SOL    HW264054   2.232   1.242  11.894  0.1044 -0.7681 -0.3122
19002SOL     OW64055  11.573   7.411   8.816  0.1172  0.5688 -0.2037
19002SOL    HW164056  11.576   7.456   8.901 -0.2722 -1.3176  0.8747
19002SOL    HW264057  11.484   7.426   8.785 -0.3823 -0.3811  0.7115
19003SOL     OW64058   5.336   8.511   2.646 -0.0030  0.2452 -0.0510
19003SOL    HW164059   5.330   8.544   2.736  1.0123 -1.8959  0.8743
19003SOL    HW264060   5.290   8.427   2.648 -0.1487  0.2555 -1.6185
19004SOL     OW64061  11.644  11.613   5.842 -0.0018 -0.1459  0.0228
19004SOL    HW164062  11.710  11.571   5.896  0.0128 -1.9799 -1.3158
19004SOL    HW264063  11.671  11.592   5.752 -1.1466  1.0312 -0.6211
19005SOL     OW64064   2.515   8.784   2.819  0.3099  0.0427 -0.3088
19005SOL    HW164065   2.440   8.779   2.761  0.7981  1.0494 -1.0498
19005SOL    HW264066   2.581   8.728   2.779  0.5354  0.4821 -0.5508
19006SOL     OW64067   4.087  11.991   8.917  0.1995 -0.2879 -0.3205
19006SOL    HW164068   4.065  12.074   8.875 -2.0000 -0.5412  0.1640
19006SOL    HW264069   4.157  12.013   8.979 -0.3982  1.2404 -0.1412
19007SOL     OW64070   2.625   0.243   1.524 -0.2232  0.2407 -0.4237
19007SOL    HW164071   2.714   0.279   1.527 -0.6755  1.3982  2.3010
19007SOL    HW264072   2.632   0.165   1.470  3.5170 -2.2638  3.0679
19008SOL     OW64073  10.140   9.706   5.896  0.5016  0.1637 -0.2148
19008SOL    HW164074  10.070   9.640   5.906  0.2503  0.1281 -1.8756
19008SOL    HW264075  10.098   9.789   5.917  0.4467 -0.0557  0.5503
19009SOL     OW64076   4.979   6.706   8.865  0.3421 -0.4780  0.1611
19009SOL    HW164077   5.012   6.644   8.800  1.4173  1.3261 -1.0945
19009SOL    HW264078   5.020   6.679   8.948  0.1837 -1.8701 -0.1948
19010SOL     OW64079   6.275  10.798   2.517  0.2082  0.2800  0.1615
19010SOL    HW164080   6.253  10.756   2.434 -0.4240 -2.0407  1.4262
19010SOL    HW264081   6.191  10.826   2.552  0.4548  1.0834  0.1374
19011SOL     OW64082   7.391   2.361   3.426  0.1506  0.5099 -0.7426
19011SOL    HW164083   7.312   2.415   3.432  0.3007  0.8763 -1.8474
19011SOL    HW264084   7.404   2.348   3.332  1.1702  0.1011 -0.5552
19012SOL     OW64085  11.863   1.529   0.773  0.5608 -0.1842  0.6293
19012SOL    HW164086  11.935   1.582   0.808 -0.0359  1.4603 -0.5181
19012SOL    HW264087  11.785   1.559   0.821  0.3995 -0.9572  0.8732
19013SOL     OW64088   8.281  10.637   9.968  0.2276  0.3482 -0.1198
19013SOL    HW164089   8.237  10.590  10.038  0.1884  1.6496  0.7831
19013SOL    HW264090   8.311  10.570   9.908 -0.0744 -0.7798  0.9590
19014SOL     OW64091  11.921  12.581  11.947 -0.4818  0.0797  0.2203
19014SOL    HW164092  11.942  12.525  11.873 -0.1130 -1.2855  1.3137
19014SOL    HW264093  11.837  12.621  11.923 -0.7071 -0.8528 -0.6542
19015SOL     OW64094   8.094   8.718   5.738  0.4050 -0.1799 -0.4267
19015SOL    HW164095   8.176   8.752   5.773 -0.2020 -0.1229  1.0165
19015SOL    HW264096   8.110   8.707   5.644  2.4410 -1.3086 -0.0021
19016SOL     OW64097   7.079   6.459   3.413  0.8293  0.5129 -0.5533
19016SOL    HW164098   7.124   6.402   3.475  0.0361  1.1069  0.5887
19016SOL    HW264099   7.135   6.458   3.335  1.6479 -0.5332  0.0249
19017SOL     OW64100   2.016  11.799  12.004 -0.7082 -0.5593  0.1665
19017SOL    HW164101   1.972  11.868  11.955 -2.0520 -2.9858 -2.3242
19017SOL    HW264102   2.107  11.804  11.977 -1.2273 -1.1581 -1.8076
19018SOL     OW64103   5.082   2.136   4.462  0.5309 -0.2880 -0.1907
19018SOL    HW164104   5.093   2.203   4.529  0.1961  1.0025 -1.3768
19018SOL    HW264105   5.100   2.180   4.379  2.0400 -2.1154 -0.9139
19019SOL     OW64106   2.888   5.928   9.683 -0.2034  0.3717 -0.4035
19019SOL    HW164107   2.915   6.010   9.642 -2.2019  0.8500 -0.8789
19019SOL    HW264108   2.850   5.877   9.612  0.3042 -0.6649  0.0474
19020SOL     OW64109   1.629  12.514   8.400 -0.4518 -0.2892 -0.4286
19020SOL    HW164110   1.696  12.576   8.429  1.3382 -1.2859 -2.2026
19020SOL    HW264111   1.613  12.458   8.476  0.5156  0.1419  0.1045
19021SOL     OW64112   0.965   2.768   2.908  0.0925 -0.2742  0.1703
19021SOL    HW164113   0.916   2.840   2.868  0.9699  0.1420 -0.1774
19021SOL    HW264114   0.977   2.705   2.838  0.6304 -0.0721  0.0795
19022SOL     OW64115   0.604   5.292   6.930 -0.6296  0.1392 -0.3626
19022SOL    HW164116   0.652   5.229   6.985 -0.8143 -0.0601 -0.4249
19022SOL    HW264117   0.547   5.337   6.992  0.0375  0.7730 -0.1966
19023SOL     OW64118   1.214  11.897   9.475 -0.1001  0.5470  0.7645
19023SOL    HW164119   1.123  11.886   9.448  0.2751 -0.1143 -0.2936
19023SOL    HW264120   1.263  11.906   9.393  0.6699  1.9536  1.3552
19024SOL     OW64121   0.662  11.850  12.561  0.0345  0.2568 -0.0110
19024SOL    HW164122   0.685  11.889  12.477 -1.7859 -0.1943 -0.7683
19024SOL    HW264123   0.733  11.789  12.580  1.5304  1.8940 -0.1457
19025SOL     OW64124   1.679   8.834   8.112 -0.3416  0.4141 -0.2683
19025SOL    HW164125   1.591   8.863   8.135 -0.3326 -0.2814  0.7274
19025SOL    HW264126   1.735   8.871   8.181  0.1898  1.0698 -1.0376
19026SOL     OW64127   0.511  10.204   9.125 -0.0361 -1.2171  0.2487
19026SOL    HW164128   0.526  10.291   9.086 -0.5323 -1.9813 -1.7896
19026SOL    HW264129   0.550  10.210   9.212  0.2576  0.9383  0.0320
19027SOL     OW64130   4.826   8.831   9.052 -0.3668  0.4949 -0.1847
19027SOL    HW164131   4.801   8.797   9.138  0.3599  1.4043  0.4110
19027SOL    HW264132   4.795   8.921   9.052  1.9169  1.3492  0.1846
19028SOL     OW64133   1.826   3.283   0.212  0.0152  0.4194 -0.3142
19028SOL    HW164134   1.773   3.231   0.151  0.3554 -0.1475 -0.1292
19028SOL    HW264135   1.839   3.367   0.167 -0.8690  0.4982 -0.4504
19029SOL     OW64136   0.267   4.131   4.130  0.2794 -0.2983 -0.2777
19029SOL    HW164137   0.272   4.042   4.165  1.4241 -1.1602 -2.4692
19029SOL    HW264138   0.191   4.130   4.073  0.3517  0.1127 -0.3825
19030SOL     OW64139   4.358   8.496   3.310  0.8099  0.3135 -0.3002
19030SOL    HW164140   4.398   8.538   3.233 -1.0680 -0.0496 -1.5338
19030SOL    HW264141   4.419   8.514   3.381  2.9968  0.0679 -1.9896
19031SOL     OW64142   6.127   2.985   2.198  0.1329  0.0567 -0.5573
19031SOL    HW164143   6.058   2.919   2.188  1.4475 -1.6350  0.8427
19031SOL    HW264144   6.202   2.948   2.152  1.0498  0.2874  0.6940
19032SOL     OW64145   5.614  12.067   4.228  0.3841  0.3367  0.0305
19032SOL    HW164146   5.580  12.131   4.291  0.9045  1.9259 -1.2134
19032SOL    HW264147   5.607  11.983   4.272  1.3986  1.4407  2.4758
19033SOL     OW64148   9.863   1.572  12.246  0.1917  0.2501  0.1487
19033SOL    HW164149   9.895   1.653  12.208  0.3001  0.0032 -0.2952
19033SOL    HW264150   9.767   1.582  12.246  0.1706  0.0716 -0.6048
19034SOL     OW64151  11.285   1.581   2.320 -0.8709  0.2983  0.5126
19034SOL    HW164152  11.371   1.607   2.354  0.1450  0.5910 -2.0637
19034SOL    HW264153  11.290   1.486   2.310 -0.9745  0.2778  0.6472
19035SOL     OW64154   9.115   9.421   1.308 -0.1225  0.0280  0.6124
19035SOL    HW164155   9.021   9.427   1.287 -0.3388  1.3373  1.8111
19035SOL    HW264156   9.120   9.352   1.373 -0.1575 -0.4865  0.0759
19036SOL     OW64157   3.929   4.852  10.692  0.2260  0.1647 -0.1521
19036SOL    HW164158   3.965   4.941  10.694 -2.3909  1.3247  2.0536
19036SOL    HW264159   3.843   4.860  10.734  0.1094 -3.5224  0.6385
19037SOL     OW64160  12.575   0.313   1.585  0.6633  0.3433  0.7829
19037SOL    HW164161  12.564   0.288   1.493 -0.1450 -0.2404  1.0227
19037SOL    HW264162  12.670   0.321   1.597  0.7696  3.5570 -0.9062
19038SOL     OW64163   2.202   8.202   4.406 -0.4430 -0.1337  0.2895
19038SOL    HW164164   2.217   8.119   4.360  0.9446  0.8127 -1.0228
19038SOL    HW264165   2.131   8.182   4.468  1.2404 -2.8742  1.5240
19039SOL     OW64166   9.914   7.607   0.639 -0.1953  0.4114 -0.0137
19039SOL    HW164167  10.000   7.587   0.676  0.2306  0.6287 -0.8529
19039SOL    HW264168   9.933   7.653   0.558 -1.0973 -0.2065 -0.5989
19040SOL     OW64169  11.640   2.533   5.182 -0.4148 -0.1093 -0.3830
19040SOL    HW164170  11.585   2.588   5.126 -0.2927 -0.5959 -0.9930
19040SOL    HW264171  11.584   2.511   5.256 -1.9115 -2.4547 -2.0438
19041SOL     OW64172  12.521  10.899  11.741  0.9814  0.0065 -0.0585
19041SOL    HW164173  12.435  10.859  11.753  0.0736  2.2054  1.7407
19041SOL    HW264174  12.583  10.828  11.757 -0.5080 -0.8502  2.5774
19042SOL     OW64175   0.680   6.192  10.717 -0.9218 -0.5412  0.3205
19042SOL    HW164176   0.621   6.220  10.787 -2.8047 -0.0585 -1.3517
19042SOL    HW264177   0.709   6.274  10.677  0.2223 -0.8077  0.5754
19043SOL     OW64178   8.463  12.078  11.365  0.2602 -0.5927  0.0650
19043SOL    HW164179   8.485  12.011  11.301 -0.9948 -0.5661 -0.4237
19043SOL    HW264180   8.368  12.072  11.375  0.4336 -0.6420  1.9966
19044SOL     OW64181   2.628  11.983   7.249 -0.0177 -0.1566  0.1168
19044SOL    HW164182   2.562  12.047   7.222  0.7549  0.5686 -0.0852
19044SOL    HW264183   2.700  12.036   7.283  0.3910 -0.9476  0.5012
19045SOL     OW64184   2.374   0.922   3.182 -0.0038  0.5000 -0.2370
19045SOL    HW164185   2.332   0.868   3.116 -0.3762  1.8151 -1.1104
19045SOL    HW264186   2.307   0.933   3.250  0.3595 -0.8006  0.3538
19046SOL     OW64187   3.096   9.457   7.529 -0.1124  0.2472  0.4665
19046SOL    HW164188   3.086   9.515   7.604 -0.4870  0.2281  0.4314
19046SOL    HW264189   3.031   9.488   7.465 -0.9092 -0.7372  0.7804
19047SOL     OW64190  12.239   5.826   7.450  0.0117 -0.1415 -0.2420
19047SOL    HW164191  12.312   5.888   7.452  0.4484 -0.6580  0.0102
19047SOL    HW264192  12.165   5.877   7.417  0.4538  0.4204 -0.3740
19048SOL     OW64193   4.614   3.234   6.212  0.0015  0.0755 -0.2698
19048SOL    HW164194   4.543   3.176   6.242 -0.8965  2.0090  1.6370
19048SOL    HW264195   4.568   3.308   6.171  1.0183  0.3510 -0.9266
19049SOL     OW64196  11.872  10.774   3.612  0.9442  0.1025  0.4403
19049SOL    HW164197  11.913  10.705   3.560  1.9249 -0.1158  1.4762
19049SOL    HW264198  11.817  10.822   3.550 -0.8434 -2.4198 -0.0664
19050SOL     OW64199   2.204   5.469   9.181  0.2991  0.1891  0.2439
19050SOL    HW164200   2.291   5.508   9.180  1.1307 -1.5020 -2.0375
19050SOL    HW264201   2.149   5.531   9.133  0.5574  0.6266  0.5090
19051SOL     OW64202   5.554   0.519   5.733  0.4081 -0.1746 -0.1095
19051SOL    HW164203   5.522   0.554   5.649  0.6979  2.4478  0.7835
19051SOL    HW264204   5.549   0.424   5.722 -1.6897  0.0784 -2.2703
19052SOL     OW64205   1.356   9.768   3.003  0.0139  0.1793 -0.4398
19052SOL    HW164206   1.429   9.830   3.002  0.6223 -0.5115 -1.6243
19052SOL    HW264207   1.282   9.818   3.036  0.8233  1.1369 -0.0154
19053SOL     OW64208   3.295   2.455  12.013  0.0566  0.1825 -0.0210
19053SOL    HW164209   3.360   2.394  11.979 -0.5610  0.5691 -2.0822
19053SOL    HW264210   3.235   2.401  12.064 -0.6029 -1.0535 -1.9649
19054SOL     OW64211   0.299   0.391  12.200 -0.4196 -0.4432  0.3883
19054SOL    HW164212   0.331   0.318  12.147  1.1877  0.7066 -0.3062
19054SOL    HW264213   0.309   0.362  12.290  2.6361 -0.2041  0.2179
19055SOL     OW64214   4.209   6.173  11.429  0.2343  0.6604 -0.3904
19055SOL    HW164215   4.271   6.100  11.434 -1.9767 -1.2794  0.9795
19055SOL    HW264216   4.227   6.224  11.508  2.0124  1.9234 -1.5176
19056SOL     OW64217   4.908   8.740   2.480  0.0304 -0.9019 -0.5027
19056SOL    HW164218   4.991   8.746   2.527 -0.8266 -0.7956  1.0804
19056SOL    HW264219   4.932   8.718   2.390  1.7279 -1.3029  0.0212
19057SOL     OW64220   4.417   1.222   1.437  0.0178 -0.8082 -0.3205
19057SOL    HW164221   4.481   1.189   1.373  0.6933 -0.0901 -0.0342
19057SOL    HW264222   4.451   1.308   1.463 -1.6598  0.0990 -0.9847
19058SOL     OW64223   5.284  10.265   8.015 -0.1577 -0.0248 -0.4373
19058SOL    HW164224   5.220  10.203   8.050  1.0746 -1.4257 -0.5517
19058SOL    HW264225   5.301  10.326   8.087 -0.1190 -0.8676  0.2816
19059SOL     OW64226  12.122   8.025   4.511  0.5773  0.1958 -0.0994
19059SOL    HW164227  12.050   8.079   4.478 -1.2352 -1.9407  0.1319
19059SOL    HW264228  12.086   7.936   4.515  2.8560 -0.7619  1.2161
19060SOL     OW64229  11.080   0.406   7.985  0.3895 -0.2678  0.4424
19060SOL    HW164230  11.109   0.453   8.064  0.4575 -0.2749  0.4219
19060SOL    HW264231  11.075   0.314   8.013  0.3224 -0.2575  0.4642
19061SOL     OW64232   8.576  11.744   3.521  0.1384  0.4209  0.5508
19061SOL    HW164233   8.643  11.784   3.466  0.4787  3.2426  2.8170
19061SOL    HW264234   8.593  11.650   3.515  2.5510  0.8662 -1.0653
19062SOL     OW64235  12.542   3.782   1.974 -0.0594  0.1401  0.6630
19062SOL    HW164236  12.508   3.711   2.028 -1.4099 -0.0679 -0.4113
19062SOL    HW264237  12.548   3.856   2.034 -0.1464 -0.4543  1.4265
19063SOL     OW64238   3.223   2.074   3.284 -0.1497 -0.1371 -0.0895
19063SOL    HW164239   3.190   2.080   3.374 -0.2092  0.3181 -0.1379
19063SOL    HW264240   3.310   2.036   3.292 -0.4699 -0.8504  0.0876
19064SOL     OW64241   1.033   9.531   8.388  0.4710 -0.2878 -0.1458
19064SOL    HW164242   1.104   9.496   8.333  0.0813  0.1463 -0.9347
19064SOL    HW264243   1.065   9.520   8.477  1.3299 -0.5418 -0.4739
19065SOL     OW64244   9.855   7.535  12.351 -0.5411  0.5808 -0.1635
19065SOL    HW164245   9.928   7.544  12.413 -0.6288 -1.3282  0.2581
19065SOL    HW264246   9.810   7.620  12.356  1.0638  1.4605  0.2962
19066SOL     OW64247   8.315  11.034   3.804 -0.4202  0.0196  0.0156
19066SOL    HW164248   8.327  11.040   3.709 -0.0443  1.8717  0.1392
19066SOL    HW264249   8.311  11.125   3.833  0.5094 -0.5099  1.9144
19067SOL     OW64250  10.248   5.310  12.186 -0.1277  0.5911 -0.3125
19067SOL    HW164251  10.219   5.400  12.203  0.4274  0.9085 -0.9980
19067SOL    HW264252  10.235   5.265  12.269 -0.2967  1.3384  0.0780
19068SOL     OW64253   1.732  12.221  10.409 -0.2976  0.6755 -0.2819
19068SOL    HW164254   1.781  12.260  10.337  0.7948 -1.1194 -0.5735
19068SOL    HW264255   1.768  12.262  10.488 -0.3898  1.4832 -0.6450
19069SOL     OW64256  11.049   4.430  11.261 -0.5714  0.8885 -0.3747
19069SOL    HW164257  11.114   4.443  11.192  1.3584  1.0728  1.3743
19069SOL    HW264258  11.035   4.335  11.264  1.4875  0.5601  0.7542
19070SOL     OW64259   7.961   7.776   1.126  0.3258  0.0098  0.2487
19070SOL    HW164260   7.998   7.861   1.101 -0.9889  0.4521 -0.2573
19070SOL    HW264261   7.921   7.791   1.212 -1.0243  0.2655 -0.3983
19071SOL     OW64262  11.468  11.444   6.086  0.1849  0.0634  0.6338
19071SOL    HW164263  11.514  11.396   6.017  1.5221  0.5103  1.1950
19071SOL    HW264264  11.530  11.447   6.159 -0.3186  1.5969  1.0317
19072SOL     OW64265   2.625   5.822   3.738 -0.0594  0.8055 -0.0010
19072SOL    HW164266   2.619   5.904   3.690  0.0386  2.1571  2.1750
19072SOL    HW264267   2.707   5.782   3.708  0.0607  1.6551 -0.8407
19073SOL     OW64268   3.792  10.135   7.618  0.2829 -0.1059  0.6987
19073SOL    HW164269   3.796  10.130   7.523 -2.0669 -0.4526  0.5533
19073SOL    HW264270   3.879  10.110   7.647  1.4270  1.1486 -1.3613
19074SOL     OW64271  12.464   0.305   7.964 -0.2025  0.0980 -0.5226
19074SOL    HW164272  12.549   0.263   7.977 -0.5734 -1.0547 -1.5663
19074SOL    HW264273  12.480   0.372   7.898  0.3036  1.3598  0.8308
19075SOL     OW64274  12.268   1.716  11.736  0.3587  0.6847 -0.0086
19075SOL    HW164275  12.265   1.786  11.670  2.5340 -1.3790 -2.5006
19075SOL    HW264276  12.196   1.658  11.712  1.1787 -0.0901 -0.6420
19076SOL     OW64277   8.516   6.749  10.843  0.0471 -0.2916 -0.2807
19076SOL    HW164278   8.574   6.808  10.891 -0.2907  0.2843 -0.5733
19076SOL    HW264279   8.474   6.804  10.778  1.1074 -1.2000 -1.8220
19077SOL     OW64280   3.434   1.865   9.736  0.3466  0.2507 -0.4069
19077SOL    HW164281   3.406   1.957   9.744 -0.2219  0.0741 -0.3716
19077SOL    HW264282   3.519   1.862   9.781  0.7887  0.9505 -1.1559
19078SOL     OW64283   6.867   6.991   8.112  0.5840 -0.1437  0.1167
19078SOL    HW164284   6.881   6.935   8.189  1.4330  0.7640  0.6443
19078SOL    HW264285   6.839   6.930   8.043 -1.5220 -0.8324  1.4599
19079SOL     OW64286  11.187   0.194   7.155  0.0253  0.2715  0.5959
19079SOL    HW164287  11.102   0.237   7.166 -0.0373  0.3435 -0.1232
19079SOL    HW264288  11.173   0.105   7.187 -0.6612 -0.0700 -0.6017
19080SOL     OW64289   4.654   3.599   4.330 -0.2847 -0.5000  0.9114
19080SOL    HW164290   4.650   3.582   4.236  1.1247  2.2291  0.2733
19080SOL    HW264291   4.592   3.670   4.344  3.2060  2.8309  0.9446
19081SOL     OW64292   5.025   2.768   1.760  0.1538 -0.7800 -0.2273
19081SOL    HW164293   4.980   2.753   1.677  0.0966 -2.9989  0.1442
19081SOL    HW264294   5.110   2.802   1.735 -0.2580 -0.3776 -1.1363
19082SOL     OW64295   9.486   1.505   1.632  0.3500  0.2082 -0.1540
19082SOL    HW164296   9.504   1.509   1.726  0.6950 -1.8726 -0.0753
19082SOL    HW264297   9.570   1.485   1.592 -0.2648 -1.7303 -0.5880
19083SOL     OW64298   0.113   0.634   0.551  0.1999  0.2356  0.5030
19083SOL    HW164299   0.181   0.699   0.531  0.4629 -0.4518 -0.9413
19083SOL    HW264300   0.093   0.594   0.467 -0.4552 -1.0968  1.2712
19084SOL     OW64301   1.880   0.951   9.722 -0.6145 -0.1628  0.1595
19084SOL    HW164302   1.857   0.989   9.637 -0.2427 -0.3784 -0.0394
19084SOL    HW264303   1.936   1.016   9.764 -1.6992  0.4434  0.7197
19085SOL     OW64304   8.823   4.709   8.058  0.0387  0.0789  0.4562
19085SOL    HW164305   8.780   4.712   7.972 -0.7924  0.8148  0.8789
19085SOL    HW264306   8.900   4.763   8.048 -0.3162  0.5631  0.3028
19086SOL     OW64307   1.362   1.409   6.775  0.4743  0.0654 -0.5522
19086SOL    HW164308   1.287   1.442   6.824  0.5626 -2.1513  1.2874
19086SOL    HW264309   1.413   1.487   6.753 -0.6121  1.3569  1.2020
19087SOL     OW64310   3.055   4.272   6.061 -0.0981  0.0822  0.1394
19087SOL    HW164311   3.124   4.317   6.110  1.3659 -0.2221 -1.5517
19087SOL    HW264312   3.071   4.179   6.079  1.2037 -0.1133 -1.7546
19088SOL     OW64313   9.682   6.368   5.845  0.5051  0.7429 -0.2180
19088SOL    HW164314   9.698   6.354   5.751  1.2117  2.0273 -0.3234
19088SOL    HW264315   9.636   6.452   5.848 -0.8843 -0.0244  0.5062
19089SOL     OW64316  12.096   6.601   2.575 -0.5834  0.3613  0.0217
19089SOL    HW164317  12.142   6.651   2.643  1.3746  0.4337 -1.2979
19089SOL    HW264318  12.165   6.557   2.527 -1.9569  0.0200 -1.7232
19090SOL     OW64319   4.485  10.854   3.732  0.3641  0.3276  0.3384
19090SOL    HW164320   4.559  10.839   3.791  1.5179  2.0514 -0.5914
19090SOL    HW264321   4.455  10.942   3.753 -0.3127  0.2989 -0.4766
19091SOL     OW64322  11.297   6.356  11.785 -0.4150 -0.6426 -0.0580
19091SOL    HW164323  11.244   6.365  11.706 -0.8253  0.3312  0.3081
19091SOL    HW264324  11.368   6.419  11.773  0.0501 -1.1660 -0.0630
19092SOL     OW64325   7.419  10.127  10.379 -0.2665 -0.0071 -0.0848
19092SOL    HW164326   7.499  10.083  10.349  0.2270 -0.2532  1.5262
19092SOL    HW264327   7.373  10.061  10.431 -1.2801  0.3027 -0.5579
19093SOL     OW64328   9.003   8.907   5.956 -0.2381  0.1410  0.5667
19093SOL    HW164329   9.035   8.991   5.924 -0.0486 -0.1960 -0.1539
19093SOL    HW264330   9.083   8.859   5.980 -0.3023 -0.1064  0.2814
19094SOL     OW64331   9.399   1.794   2.479 -0.2362 -0.2324  0.0095
19094SOL    HW164332   9.455   1.719   2.460  1.6712  1.3934 -1.2296
19094SOL    HW264333   9.341   1.800   2.403 -0.2119 -0.2941 -0.0143
19095SOL     OW64334   7.666   8.213  10.539  0.6309 -0.3076  0.3216
19095SOL    HW164335   7.636   8.270  10.467  1.8544  0.9544  0.7776
19095SOL    HW264336   7.622   8.248  10.617  0.5226 -0.6982  0.4381
19096SOL     OW64337   6.031  11.696   0.829  0.1144  0.0723  0.6260
19096SOL    HW164338   6.074  11.616   0.797  0.2630  0.1029  0.7497
19096SOL    HW264339   6.060  11.764   0.769 -1.2528 -0.2414 -0.4486
19097SOL     OW64340   6.964   3.776   8.975 -0.0414 -0.3142 -0.8336
19097SOL    HW164341   7.030   3.707   8.983 -0.3027 -0.6259 -1.3141
19097SOL    HW264342   6.920   3.758   8.892 -3.1105 -2.1829  1.0376
19098SOL     OW64343  10.899   1.351   5.588  0.5373 -0.1326 -0.3440
19098SOL    HW164344  10.851   1.424   5.629  0.0403 -0.5850 -0.1096
19098SOL    HW264345  10.961   1.394   5.529 -3.0522  0.5607 -4.1629
19099SOL     OW64346   9.870   7.199  10.620  0.0357  0.3762  0.7984
19099SOL    HW164347   9.802   7.254  10.582 -1.1919 -2.0639 -0.8541
19099SOL    HW264348   9.847   7.192  10.713  0.2762  2.5884  1.0700
19100SOL     OW64349  11.304   0.353   4.016 -0.0202 -0.2908  0.3058
19100SOL    HW164350  11.231   0.303   3.978 -1.2760  2.2112 -0.8307
19100SOL    HW264351  11.357   0.287   4.060 -2.2146 -2.4337  0.0039
19101SOL     OW64352   8.818  10.059   0.616 -0.1325  0.4475 -0.4716
19101SOL    HW164353   8.799  10.119   0.544  0.4044  2.9591  1.3692
19101SOL    HW264354   8.889  10.004   0.582  0.2798  1.7137 -1.7971
19102SOL     OW64355   1.215   1.941   3.423  0.1892 -0.3397  0.0711
19102SOL    HW164356   1.222   2.025   3.376  2.7751 -0.3067  0.3630
19102SOL    HW264357   1.302   1.902   3.414 -1.0778 -3.3064 -0.5364
19103SOL     OW64358  10.247   5.168   0.349 -0.2403  0.2373 -0.2290
19103SOL    HW164359  10.264   5.075   0.358  0.4923  0.4175  0.3818
19103SOL    HW264360  10.334   5.209   0.349 -0.3847  0.7581 -2.9007
19104SOL     OW64361   4.977  10.909   9.160  0.4315 -0.1656  0.1477
19104SOL    HW164362   5.021  10.835   9.118  0.8508  0.8094 -1.2203
19104SOL    HW264363   5.047  10.956   9.204  0.3728  0.1001 -0.0424
19105SOL     OW64364   7.010  11.717   0.531 -0.1042  0.4610  0.0001
19105SOL    HW164365   7.002  11.647   0.466 -0.0646  0.8891 -0.4742
19105SOL    HW264366   7.080  11.773   0.497  1.9550 -0.8270  1.8337
19106SOL     OW64367  11.018   7.061  11.733  0.0129 -0.1623  0.1201
19106SOL    HW164368  11.066   7.136  11.768  0.9614 -0.1728 -1.1232
19106SOL    HW264369  10.990   7.013  11.811  0.1505  1.0039  0.9127
19107SOL     OW64370   4.499   4.438   2.509  0.2584  0.0128 -0.0357
19107SOL    HW164371   4.454   4.443   2.594  0.4964 -0.2471  0.1092
19107SOL    HW264372   4.584   4.477   2.525  0.0438  0.6163 -0.3425
19108SOL     OW64373  10.465   9.614   8.847  0.3743  0.6693  0.4005
19108SOL    HW164374  10.513   9.585   8.770  1.9242  1.2590  1.0966
19108SOL    HW264375  10.489   9.551   8.915 -1.7369 -0.4162  0.2117
19109SOL     OW64376   8.115   7.304   1.841  0.1641 -0.3407 -0.1506
19109SOL    HW164377   8.199   7.344   1.863 -0.3744  0.0236  1.3088
19109SOL    HW264378   8.112   7.224   1.892  0.1864 -1.0641 -1.2376
19110SOL     OW64379   8.103  10.765   9.758  0.0563 -0.2339 -0.0131
19110SOL    HW164380   8.104  10.861   9.750 -0.9179 -0.1740  0.3815
19110SOL    HW264381   8.172  10.746   9.822  0.3078  0.2004 -0.1520
19111SOL     OW64382   6.391   7.028   1.296 -0.0805 -0.0019  0.3786
19111SOL    HW164383   6.331   6.966   1.338 -1.5027  0.9917 -0.0806
19111SOL    HW264384   6.335   7.102   1.271  1.3068  0.8557 -0.3369
19112SOL     OW64385   2.576   1.180   0.150  0.3038 -0.1910 -0.2186
19112SOL    HW164386   2.560   1.159   0.058 -2.2527  0.1604  0.0519
19112SOL    HW264387   2.599   1.273   0.149  2.9291 -0.7792 -0.6657
19113SOL     OW64388   4.270  11.167   2.678  0.7406  0.8173 -0.4402
19113SOL    HW164389   4.204  11.166   2.608  0.5275 -0.8138 -0.2758
19113SOL    HW264390   4.316  11.250   2.667 -0.5298  1.4392 -1.3351
19114SOL     OW64391   2.464   0.509   0.518 -0.2965  0.4212  0.0785
19114SOL    HW164392   2.533   0.513   0.451 -0.1091  0.8258  0.2880
19114SOL    HW264393   2.443   0.601   0.535  1.0788  0.4281  2.0213
19115SOL     OW64394   2.096  10.357  11.630  0.2542 -0.1284 -0.5387
19115SOL    HW164395   2.141  10.297  11.571  1.1513  1.6255 -1.7499
19115SOL    HW264396   2.017  10.383  11.583 -0.8752 -1.3786  0.5780
19116SOL     OW64397   6.882  11.167  11.364 -0.3500 -0.5115  0.5033
19116SOL    HW164398   6.922  11.141  11.281 -1.0450  0.7814 -0.2778
19116SOL    HW264399   6.819  11.098  11.383  1.1474 -1.8031  0.9766
19117SOL     OW64400  12.156   5.206  12.507 -0.4635  0.0296 -0.2902
19117SOL    HW164401  12.140   5.292  12.468  2.7689  1.0896  0.4345
19117SOL    HW264402  12.172   5.149  12.433 -0.1692  0.6508 -0.7135
19118SOL     OW64403   0.315   8.398   7.071  0.2856  0.1511  0.1430
19118SOL    HW164404   0.390   8.397   7.131 -0.8800  0.6490  1.6815
19118SOL    HW264405   0.272   8.482   7.088  0.0260  0.4062 -1.5835
19119SOL     OW64406   5.323  11.964   2.646 -0.5518  0.6537 -0.6210
19119SOL    HW164407   5.273  11.910   2.706 -0.5593 -0.7798 -1.8563
19119SOL    HW264408   5.259  11.991   2.579 -0.3203  1.3286 -0.5777
19120SOL     OW64409   9.167   9.612   3.728  0.5061 -0.3103  0.0712
19120SOL    HW164410   9.161   9.518   3.712 -2.5565 -0.2429  0.2034
19120SOL    HW264411   9.189   9.620   3.820 -2.6723 -1.0504  1.0095
19121SOL     OW64412   6.238  10.978   1.523 -0.4506  0.1489  0.0379
19121SOL    HW164413   6.158  10.927   1.514 -0.5214  0.5141 -1.9126
19121SOL    HW264414   6.227  11.051   1.463  1.9571 -0.6342 -1.5326
19122SOL     OW64415  12.017   4.680   3.962  0.3741 -0.1922  1.0448
19122SOL    HW164416  12.087   4.621   3.936 -0.4209 -1.1741  1.0732
19122SOL    HW264417  12.004   4.663   4.055  1.0182  0.9798  1.3644
19123SOL     OW64418  11.288   2.823   4.405  0.3376  0.0604  0.2929
19123SOL    HW164419  11.257   2.757   4.467  0.1525 -1.1354 -1.0106
19123SOL    HW264420  11.363   2.864   4.448  1.3844 -2.0204  0.5775
19124SOL     OW64421   3.139   5.449   0.445 -0.1402  0.6213 -0.1408
19124SOL    HW164422   3.099   5.404   0.370  0.8806  1.0903 -0.9986
19124SOL    HW264423   3.066   5.493   0.488 -1.2212 -1.9213  0.8280
19125SOL     OW64424   0.502   5.523   9.557  0.2366  0.0641 -0.2712
19125SOL    HW164425   0.558   5.532   9.634  0.0229  0.6762 -0.1872
19125SOL    HW264426   0.549   5.461   9.501 -0.4972 -1.9004  1.1778
19126SOL     OW64427   0.382   7.826  11.800  0.0138 -0.0248  0.5346
19126SOL    HW164428   0.383   7.803  11.707  0.4960 -1.0814  0.7864
19126SOL    HW264429   0.294   7.860  11.816 -0.0928  0.1041 -0.2960
19127SOL     OW64430   9.082   8.903   9.277  0.0867 -0.5578  0.1470
19127SOL    HW164431   9.093   8.993   9.307 -1.0951 -0.5842  0.7100
19127SOL    HW264432   9.037   8.910   9.193  0.1261 -0.6131  0.1213
19128SOL     OW64433   7.674   6.924   4.619  0.6334 -0.5753 -0.4984
19128SOL    HW164434   7.741   6.944   4.684  0.6482 -0.2308 -0.6144
19128SOL    HW264435   7.595   6.907   4.671  0.8660 -1.2309 -0.3525
19129SOL     OW64436   6.932   6.056  10.805  0.2029 -0.0244  0.9603
19129SOL    HW164437   6.926   5.961  10.811  1.4959 -0.3755 -1.7641
19129SOL    HW264438   6.842   6.085  10.789 -0.0502 -0.9197  0.6888
19130SOL     OW64439   7.432   6.245   9.487  0.0539  0.2462  0.4579
19130SOL    HW164440   7.445   6.339   9.477  0.8971  0.0251 -0.8796
19130SOL    HW264441   7.510   6.206   9.448 -0.4405 -1.0130  0.6807
19131SOL     OW64442   7.310   6.919   4.684  0.5316  0.0909 -0.4563
19131SOL    HW164443   7.249   6.954   4.749  0.1103  0.7765 -1.2163
19131SOL    HW264444   7.350   6.844   4.728 -1.3475 -0.7991 -0.1821
19132SOL     OW64445  11.181   1.496   8.314  0.2602  0.2091  0.0209
19132SOL    HW164446  11.189   1.537   8.400 -2.8539  1.2213 -0.0207
19132SOL    HW264447  11.263   1.516   8.269  2.1439 -0.6987  2.8280
19133SOL     OW64448   6.439   5.564   9.871 -0.0810  0.4959 -0.0076
19133SOL    HW164449   6.458   5.652   9.837 -0.9778  0.8873  0.4603
19133SOL    HW264450   6.348   5.548   9.845  0.1589 -0.4029 -0.3036
19134SOL     OW64451   0.407   5.931  11.721 -0.4437  0.5054 -0.3460
19134SOL    HW164452   0.457   5.948  11.642 -2.8419 -0.5355 -2.2120
19134SOL    HW264453   0.394   6.018  11.760  0.6814  1.0518 -1.1399
19135SOL     OW64454   7.046   6.620   1.390 -0.4842  0.4065 -0.0442
19135SOL    HW164455   7.131   6.646   1.424 -0.5772  0.5131  0.1105
19135SOL    HW264456   7.039   6.527   1.411  0.1282  0.0836 -1.1871
19136SOL     OW64457   4.487   0.093   3.292 -0.1413 -0.0025  0.2903
19136SOL    HW164458   4.414   0.129   3.241 -3.0896 -2.2214  2.6118
19136SOL    HW264459   4.502   0.007   3.253  2.0838  0.7983 -0.7977
19137SOL     OW64460   1.798   1.890  10.684  0.5207 -0.0791 -0.1707
19137SOL    HW164461   1.785   1.909  10.777  0.7577  0.6596 -0.2816
19137SOL    HW264462   1.739   1.952  10.639  0.5923 -0.2637 -0.5179
19138SOL     OW64463   9.138   8.374  12.200  0.2288 -0.2845 -0.4192
19138SOL    HW164464   9.057   8.336  12.166 -0.4997  0.7594  0.0879
19138SOL    HW264465   9.192   8.298  12.222 -1.7979 -1.1315  2.1029
19139SOL     OW64466  10.336   7.525   8.981  0.0082 -0.1808  0.1946
19139SOL    HW164467  10.319   7.559   8.893  0.8197  0.8830  0.4290
19139SOL    HW264468  10.431   7.515   8.985 -0.1722 -2.4301  0.1806
19140SOL     OW64469   1.506   9.140  12.557  0.5327  0.8623 -0.3353
19140SOL    HW164470   1.422   9.159  12.514 -0.2111  1.2702  1.2387
19140SOL    HW264471   1.563   9.113  12.485 -1.3002 -0.6806 -1.3277
19141SOL     OW64472  11.289  11.237   0.479  0.1886 -0.1948 -0.4132
19141SOL    HW164473  11.383  11.250   0.493  0.1875 -1.9588  1.8517
19141SOL    HW264474  11.281  11.215   0.387  2.1997 -1.1849 -0.4048
19142SOL     OW64475   3.494  10.295   0.105 -0.4575  0.4311 -0.3636
19142SOL    HW164476   3.549  10.247   0.167  0.6679  0.2445 -1.4775
19142SOL    HW264477   3.424  10.234   0.082  0.0236 -0.0719 -0.4967
19143SOL     OW64478   4.231   9.622   4.422 -0.0686 -0.0292 -0.3479
19143SOL    HW164479   4.171   9.607   4.349  2.1940  1.1559 -2.6101
19143SOL    HW264480   4.307   9.567   4.402  1.2639  1.5112  0.2429
19144SOL     OW64481   2.905   6.926  11.503 -0.3504 -0.2015 -0.1352
19144SOL    HW164482   2.929   6.873  11.578 -0.1413 -0.9136 -0.6989
19144SOL    HW264483   2.881   7.011  11.540  0.7758 -0.2105  0.6369
19145SOL     OW64484  11.412   8.089   6.828 -0.1056  1.0430  0.0839
19145SOL    HW164485  11.419   8.077   6.922 -0.4919 -4.0427 -0.2735
19145SOL    HW264486  11.320   8.111   6.813 -0.2592  0.9171  0.8213
19146SOL     OW64487   3.770   0.272   9.181  0.0739  0.1885 -0.1364
19146SOL    HW164488   3.829   0.197   9.197 -0.7308 -0.4230  0.0358
19146SOL    HW264489   3.815   0.346   9.221  0.5645 -0.3369  0.3167
19147SOL     OW64490   4.888   8.792   6.712  0.3404 -0.0250 -0.0194
19147SOL    HW164491   4.874   8.727   6.644 -0.2023 -0.7121  0.7295
19147SOL    HW264492   4.949   8.855   6.673  2.1560 -1.8222 -0.2377
19148SOL     OW64493   2.683   2.968  12.564  0.2432 -0.0071 -0.1374
19148SOL    HW164494   2.606   3.010  12.526  0.8474  0.3714 -0.9682
19148SOL    HW264495   2.751   2.974  12.496  0.5630 -1.7075 -0.0216
19149SOL     OW64496   0.891   1.778   7.349  0.0295  0.8937  0.2294
19149SOL    HW164497   0.865   1.816   7.265 -2.1257 -2.9539 -1.1254
19149SOL    HW264498   0.964   1.720   7.327 -0.6403 -0.2497  0.8953
19150SOL     OW64499   9.295  10.824  11.099 -0.0325 -0.1180  0.4758
19150SOL    HW164500   9.273  10.910  11.064 -0.5739 -0.2130  0.5735
19150SOL    HW264501   9.358  10.842  11.169  1.2331  0.0558 -0.6651
19151SOL     OW64502   2.406   0.540  11.793 -0.0203  0.2324  0.0241
19151SOL    HW164503   2.354   0.465  11.766  0.1305 -0.7598  2.2940
19151SOL    HW264504   2.472   0.551  11.724 -0.5450 -1.2186 -0.7234
19152SOL     OW64505   2.132   1.450   0.372 -0.2544 -0.6832 -0.3023
19152SOL    HW164506   2.080   1.440   0.452  1.5539  0.7581  1.1513
19152SOL    HW264507   2.174   1.365   0.360 -0.7607 -1.0028  0.1076
19153SOL     OW64508  11.567   9.142   3.317  0.1539  0.1738 -0.6154
19153SOL    HW164509  11.627   9.215   3.332 -0.6229  0.5779  0.7945
19153SOL    HW264510  11.591   9.077   3.384 -0.9781  0.3698  0.0061
19154SOL     OW64511   2.416   6.457   2.633  0.0503  0.4507  0.0023
19154SOL    HW164512   2.439   6.438   2.724 -0.1025 -1.3756 -0.3054
19154SOL    HW264513   2.397   6.551   2.632 -0.8023  0.3445  2.0382
19155SOL     OW64514   7.665   6.638   7.403 -0.0403 -0.3678  0.2044
19155SOL    HW164515   7.759   6.631   7.418  0.2225 -1.7911 -1.7137
19155SOL    HW264516   7.656   6.709   7.339 -0.3681  0.3474  1.0315
19156SOL     OW64517  11.886   4.686   3.111  0.4290 -0.2179  0.6128
19156SOL    HW164518  11.917   4.618   3.171  1.6311 -2.2592 -2.1264
19156SOL    HW264519  11.966   4.728   3.079 -0.1783  0.8545  0.4640
19157SOL     OW64520   4.717   9.674   9.100  0.3198  0.0637  0.1348
19157SOL    HW164521   4.697   9.638   9.186 -0.1044 -0.3433 -0.1279
19157SOL    HW264522   4.657   9.748   9.090  2.2424  1.9069  1.3249
19158SOL     OW64523   5.942   3.164   4.107 -0.0200  0.4311  0.2284
19158SOL    HW164524   5.944   3.185   4.200  0.5647 -0.3217  0.4003
19158SOL    HW264525   5.924   3.247   4.064  0.8744  1.0208  0.9520
19159SOL     OW64526   4.298   0.408   6.792  0.5787  0.5691 -0.2025
19159SOL    HW164527   4.355   0.345   6.747  1.8211  0.1671  1.7864
19159SOL    HW264528   4.352   0.486   6.800  0.9248  0.1864  1.7018
19160SOL     OW64529  11.527   1.900   6.966  0.1850 -0.1754 -0.2907
19160SOL    HW164530  11.464   1.854   6.910 -1.2265 -0.0587  1.1049
19160SOL    HW264531  11.551   1.978   6.917  2.5278 -2.1912 -2.6713
19161SOL     OW64532  10.028   5.184  10.399  0.5938 -0.0058 -0.2575
19161SOL    HW164533   9.938   5.153  10.403  0.3350  0.8294  0.9513
19161SOL    HW264534  10.063   5.146  10.319 -0.3780 -1.5247  0.0101
19162SOL     OW64535   8.094   1.818  10.076 -0.1708 -0.2893  0.0507
19162SOL    HW164536   7.999   1.806  10.068 -0.2353 -1.4530  1.9294
19162SOL    HW264537   8.127   1.733  10.105  1.7250 -0.4048 -2.1461
19163SOL     OW64538   2.091   7.311   8.532 -0.3277 -0.4017  0.1874
19163SOL    HW164539   2.026   7.369   8.492  1.3450  0.5863 -1.2508
19163SOL    HW264540   2.057   7.223   8.519 -0.9792  0.0443 -1.3547
19164SOL     OW64541   3.038   6.638   7.167  0.7577 -0.4280  0.0464
19164SOL    HW164542   3.024   6.644   7.073  1.5783  0.3520 -0.0467
19164SOL    HW264543   3.020   6.726   7.200 -3.6101 -1.5592  1.2881
19165SOL     OW64544   1.517  10.959   5.236  0.4824  0.2344  0.2553
19165SOL    HW164545   1.486  11.045   5.265  1.7112  0.6891  0.2855
19165SOL    HW264546   1.441  10.902   5.245 -0.2374  1.2234  0.6466
19166SOL     OW64547   7.679   8.919   1.568 -0.6166 -0.0481  0.0207
19166SOL    HW164548   7.660   9.008   1.597  0.2274 -0.4283  1.8428
19166SOL    HW264549   7.772   8.919   1.548 -0.5834 -0.5614  0.1603
19167SOL     OW64550   3.044   4.103   3.057  0.6860  0.2219  0.1373
19167SOL    HW164551   3.010   4.141   3.138  0.3103  1.6724 -0.6753
19167SOL    HW264552   3.095   4.027   3.086  0.4704  0.6445  1.7169
19168SOL     OW64553   7.336   7.468   6.972 -0.0145 -0.1788  0.6810
19168SOL    HW164554   7.258   7.473   7.026 -0.6618  0.4600 -0.2773
19168SOL    HW264555   7.366   7.559   6.964  0.6744 -0.3838  0.8220
19169SOL     OW64556   3.854  11.924   2.301 -1.1510 -0.3563 -0.0011
19169SOL    HW164557   3.791  11.877   2.247 -1.3516  0.5839 -0.5865
19169SOL    HW264558   3.934  11.871   2.294 -1.5629 -0.9856 -0.0868
19170SOL     OW64559   6.465  11.692   9.078  0.7591  0.4349  0.4451
19170SOL    HW164560   6.484  11.783   9.056  2.2163  0.2183  0.7138
19170SOL    HW264561   6.462  11.647   8.994  1.5261  0.4658  0.4006
19171SOL     OW64562   0.530   8.844   1.321  0.0971  0.8630 -0.0454
19171SOL    HW164563   0.455   8.792   1.291  0.2555  0.7925 -0.3201
19171SOL    HW264564   0.557   8.894   1.244  0.9223  0.1892 -0.2089
19172SOL     OW64565   5.406  12.378   8.501  0.3810 -0.0194  0.3826
19172SOL    HW164566   5.457  12.369   8.421 -0.7216  1.1679 -0.5040
19172SOL    HW264567   5.346  12.450   8.483 -1.7413 -1.4530  1.2929
19173SOL     OW64568   5.319   8.928   7.866 -0.0921  0.1559  0.3486
19173SOL    HW164569   5.250   8.912   7.930  0.2534  1.4989  1.0743
19173SOL    HW264570   5.387   8.975   7.914 -0.1491  1.8686 -1.1435
19174SOL     OW64571   4.917   3.868   0.722 -0.2913  0.2527  0.3937
19174SOL    HW164572   4.952   3.898   0.638 -1.6321  1.0741  0.1016
19174SOL    HW264573   4.874   3.945   0.759  1.0035  0.1538  2.2647
19175SOL     OW64574   5.490   4.392   1.848  0.0412 -0.1037 -0.1340
19175SOL    HW164575   5.460   4.341   1.924 -0.3326 -0.6008 -0.6047
19175SOL    HW264576   5.580   4.416   1.869  0.4655 -1.5463 -0.1747
19176SOL     OW64577   9.975  12.067   3.830  0.3597 -0.2393  0.5688
19176SOL    HW164578   9.978  11.986   3.778  3.4608  0.1790 -0.1164
19176SOL    HW264579   9.890  12.064   3.874  0.3021 -3.8400  0.5404
19177SOL     OW64580   1.116   5.764  10.769 -0.7004 -0.2037 -1.1879
19177SOL    HW164581   1.132   5.768  10.863  0.2344  0.1705 -1.3532
19177SOL    HW264582   1.043   5.824  10.754 -0.4515  0.2106 -0.7803
19178SOL     OW64583   6.619   9.541   6.901  0.2575 -0.3234  0.0178
19178SOL    HW164584   6.623   9.598   6.824  2.0048  0.0601  0.3627
19178SOL    HW264585   6.611   9.453   6.865 -0.5376 -0.0337 -0.5529
19179SOL     OW64586   4.901   1.129   8.245 -0.0357  0.3668  0.0330
19179SOL    HW164587   4.829   1.144   8.184  1.6693 -0.1297 -2.2754
19179SOL    HW264588   4.860   1.126   8.331 -2.6426  0.8092 -1.0969
19180SOL     OW64589  11.724   4.628   9.389  0.1360 -0.1642 -0.2704
19180SOL    HW164590  11.751   4.546   9.347  3.2547  0.9693 -0.7298
19180SOL    HW264591  11.772   4.629   9.471  1.0617  1.6955 -0.7942
19181SOL     OW64592   6.964  11.596   0.283  0.3086 -0.0383 -0.4682
19181SOL    HW164593   6.871  11.580   0.273 -0.5018  2.0489  2.3098
19181SOL    HW264594   6.983  11.669   0.225 -0.2322  0.6293  0.1698
19182SOL     OW64595   3.017   2.264   8.313 -0.5284  0.1493  0.2567
19182SOL    HW164596   3.018   2.236   8.405 -1.4107 -0.2121  0.1664
19182SOL    HW264597   2.932   2.233   8.280 -0.3751  0.6090 -0.5756
19183SOL     OW64598   8.948   3.874   9.149  0.2906  0.3161  1.1181
19183SOL    HW164599   8.969   3.825   9.229  1.8446 -1.2987 -0.2100
19183SOL    HW264600   9.008   3.840   9.083 -1.7493  0.7171 -1.0999
19184SOL     OW64601   8.964   0.614   6.165 -0.1979 -0.2751 -0.0127
19184SOL    HW164602   8.880   0.630   6.123 -0.6068 -2.0893  0.0142
19184SOL    HW264603   9.001   0.701   6.181 -2.9400  0.6967  1.7860
19185SOL     OW64604   9.164   2.134   5.019 -0.8351  0.4719  0.0903
19185SOL    HW164605   9.142   2.174   4.935 -1.1157 -0.9157 -0.5189
19185SOL    HW264606   9.111   2.054   5.023  0.2294 -0.2251  0.9479
19186SOL     OW64607   1.842  10.070   6.595 -0.1716  0.1924 -0.0313
19186SOL    HW164608   1.827  10.064   6.690 -1.1739 -1.9810 -0.2766
19186SOL    HW264609   1.762  10.034   6.556  1.9240 -3.2714 -1.5837
19187SOL     OW64610   7.708   8.393   1.854  0.5780 -0.2277  0.2443
19187SOL    HW164611   7.651   8.347   1.792 -0.3368  1.2970 -0.1104
19187SOL    HW264612   7.693   8.349   1.937 -0.2883 -0.5525 -0.0702
19188SOL     OW64613   2.624   3.187   6.639 -0.3741  0.5756  0.1885
19188SOL    HW164614   2.657   3.214   6.554 -3.1276  0.4669 -1.0284
19188SOL    HW264615   2.579   3.104   6.622  0.3985 -0.3176  2.1165
19189SOL     OW64616   3.550   4.646   4.657 -0.5085  0.0998 -0.1548
19189SOL    HW164617   3.552   4.739   4.634  0.2569  0.0729 -0.2339
19189SOL    HW264618   3.631   4.611   4.619 -2.4167 -1.3768 -3.3490
19190SOL     OW64619  10.455   2.359   5.533 -0.4479 -0.0021 -0.3126
19190SOL    HW164620  10.523   2.426   5.532  0.2693 -0.7202 -0.1655
19190SOL    HW264621  10.477   2.301   5.460 -0.9150 -0.2271 -0.2782
19191SOL     OW64622   5.263   4.915  10.753 -0.1932  0.3479 -0.1136
19191SOL    HW164623   5.308   4.997  10.774 -0.8886  0.9437 -0.8969
19191SOL    HW264624   5.185   4.916  10.808  0.2389 -0.2229  0.5268
19192SOL     OW64625  11.325   9.642  11.409  0.6189 -0.3557  0.3895
19192SOL    HW164626  11.356   9.709  11.470  2.3017 -1.1358  0.4452
19192SOL    HW264627  11.370   9.662  11.327  0.1534 -0.6831  0.0476
19193SOL     OW64628  11.403   2.751   1.342  0.8772  0.0865  0.3732
19193SOL    HW164629  11.409   2.791   1.255 -0.8425 -2.7380 -1.1817
19193SOL    HW264630  11.489   2.712   1.356  1.3063  0.9265  0.1901
19194SOL     OW64631   5.449   6.180   4.865 -0.0220  0.1400 -0.0336
19194SOL    HW164632   5.534   6.142   4.842  0.3277  1.0475 -0.3074
19194SOL    HW264633   5.385   6.116   4.832  0.5460 -0.4977  0.0687
19195SOL     OW64634   0.985   9.856  11.217 -0.6170 -0.1351 -0.5857
19195SOL    HW164635   1.033   9.913  11.278  1.0680 -2.1050  0.0453
19195SOL    HW264636   0.909   9.908  11.190  0.6915  2.2958  0.1182
19196SOL     OW64637   2.268   6.891   6.079 -0.2382 -0.1317 -0.1517
19196SOL    HW164638   2.302   6.851   5.999  1.5568 -0.8395  0.9110
19196SOL    HW264639   2.231   6.818   6.129  0.9681 -0.1399  0.7713
19197SOL     OW64640   5.354   3.653  11.649  0.5011  0.3991 -0.3888
19197SOL    HW164641   5.276   3.598  11.653  0.1943  0.7589 -1.1570
19197SOL    HW264642   5.336   3.716  11.579  0.6765  1.7337  0.7220
19198SOL     OW64643   4.431   3.422   6.761  0.1905 -0.3271  0.3886
19198SOL    HW164644   4.489   3.497   6.747  1.1656 -1.1058  0.1653
19198SOL    HW264645   4.460   3.358   6.697 -1.2847 -0.5365 -0.0904
19199SOL     OW64646  10.774   9.330  11.165 -0.7307  0.2024 -0.1702
19199SOL    HW164647  10.717   9.383  11.220 -1.5965  0.6453 -1.4262
19199SOL    HW264648  10.801   9.389  11.095  1.7791  0.1706  0.6739
19200SOL     OW64649   5.592  10.513   4.973 -0.6297  0.0057 -0.1650
19200SOL    HW164650   5.516  10.455   4.969 -1.1794  0.6934  0.1020
19200SOL    HW264651   5.594  10.544   5.063  0.8654 -1.1592  0.2425
19201SOL     OW64652   8.826   5.336   6.772 -0.1924  0.2428 -0.6660
19201SOL    HW164653   8.887   5.404   6.742 -0.6146  0.2095 -1.6164
19201SOL    HW264654   8.825   5.271   6.701  0.6550 -1.0722  0.4754
19202SOL     OW64655   7.156   3.568   7.406  0.3574 -0.1532  0.2228
19202SOL    HW164656   7.082   3.595   7.351  0.9212 -0.1226 -0.5444
19202SOL    HW264657   7.137   3.477   7.429 -0.9544  0.4751  1.8141
19203SOL     OW64658   4.708   7.280   0.713  0.2474 -0.0956  0.4907
19203SOL    HW164659   4.625   7.270   0.759  0.5784 -0.8172  0.9389
19203SOL    HW264660   4.722   7.197   0.668  1.3099 -0.4426  1.4079
19204SOL     OW64661   7.598   8.308   8.804  0.8445 -0.2287  0.3024
19204SOL    HW164662   7.539   8.277   8.735  1.5441 -0.6691 -0.1090
19204SOL    HW264663   7.653   8.232   8.824  2.4098  0.6546 -0.5182
19205SOL     OW64664   4.003  11.912  11.390  0.2475  0.4080  0.5969
19205SOL    HW164665   4.075  11.900  11.328  0.1209 -1.4672  0.7705
19205SOL    HW264666   4.035  11.875  11.472 -1.2649 -1.4795  0.3963
19206SOL     OW64667   9.592  12.428  10.248  0.0824  1.2211  0.1576
19206SOL    HW164668   9.547  12.349  10.277  0.1364  0.8456 -0.7453
19206SOL    HW264669   9.536  12.500  10.276 -1.9344  0.7399 -2.2628
19207SOL     OW64670   8.082   2.371   8.540 -0.2624  0.3779 -0.3473
19207SOL    HW164671   8.103   2.338   8.453 -0.7973  0.7651 -0.6305
19207SOL    HW264672   8.020   2.442   8.524 -0.3077  0.4998  0.3468
19208SOL     OW64673   9.330   4.555   6.912 -0.2302 -0.5205  0.0938
19208SOL    HW164674   9.350   4.589   6.825 -2.8902  2.1066  0.3460
19208SOL    HW264675   9.265   4.486   6.897  0.3712 -1.0559 -0.0670
19209SOL     OW64676   9.702   4.835   2.192 -0.0895 -0.5642 -0.5533
19209SOL    HW164677   9.707   4.887   2.272 -2.5005 -0.7147 -0.2611
19209SOL    HW264678   9.743   4.891   2.125 -1.2657  1.1084  0.0586
19210SOL     OW64679  10.745   7.891   4.695  0.3553  0.6873  0.0954
19210SOL    HW164680  10.656   7.896   4.730  0.5926  0.0645  0.8200
19210SOL    HW264681  10.736   7.916   4.603 -0.5076  0.9950  0.2538
19211SOL     OW64682   0.349   0.608   6.797  0.4441  0.3996 -0.1084
19211SOL    HW164683   0.381   0.551   6.868  1.0463  1.1616  0.2580
19211SOL    HW264684   0.369   0.696   6.828  0.5464  0.7514 -1.1577
19212SOL     OW64685   2.450   8.387   0.654 -0.4091  0.4699  0.1082
19212SOL    HW164686   2.460   8.349   0.741  0.8891  0.0720 -0.2051
19212SOL    HW264687   2.482   8.320   0.594 -1.5853  0.6096 -0.7187
19213SOL     OW64688   6.153   1.644   0.579  0.0043  0.2185  0.4556
19213SOL    HW164689   6.100   1.568   0.601  0.4905 -0.5220 -0.8716
19213SOL    HW264690   6.119   1.714   0.636 -1.4306 -0.5964  0.6430
19214SOL     OW64691   4.083   1.092   0.584 -0.9565  0.1842 -0.5067
19214SOL    HW164692   4.171   1.112   0.552 -0.0528  1.1237  2.2521
19214SOL    HW264693   4.097   1.023   0.649 -2.2955  0.1642 -0.2247
19215SOL     OW64694  10.893   0.255   6.012  0.2771 -0.3686 -0.1661
19215SOL    HW164695  10.982   0.228   6.037  0.0942 -2.0485 -1.2013
19215SOL    HW264696  10.837   0.182   6.039 -0.4108 -0.5723 -2.0025
19216SOL     OW64697   8.546   1.095   8.367 -0.4506 -0.1705  0.5078
19216SOL    HW164698   8.497   1.127   8.443 -1.1671  0.9480 -0.3855
19216SOL    HW264699   8.479   1.056   8.310 -0.0747 -0.1367  0.0304
19217SOL     OW64700   5.169   5.029  12.377 -0.2668  0.3046  0.3201
19217SOL    HW164701   5.105   4.963  12.403  1.2886 -1.1919  0.5320
19217SOL    HW264702   5.206   5.060  12.460 -0.3442  0.7968  0.1765
19218SOL     OW64703   0.540   0.765   8.156 -0.6113 -0.3485 -0.2444
19218SOL    HW164704   0.580   0.730   8.235 -0.1153 -1.5453 -0.9965
19218SOL    HW264705   0.486   0.838   8.186  2.3149  1.5577  0.8010
19219SOL     OW64706   9.820   9.935   3.068  0.7376  0.4352  0.4816
19219SOL    HW164707   9.737   9.890   3.086  0.1609  1.4303  0.3640
19219SOL    HW264708   9.886   9.881   3.112 -0.0335 -0.0584  1.0664
19220SOL     OW64709   7.247   6.839   1.983 -0.0881 -0.3147  0.7562
19220SOL    HW164710   7.172   6.890   1.953  0.8684  0.7141  0.0452
19220SOL    HW264711   7.245   6.760   1.929 -0.7219 -0.3432  0.8185
19221SOL     OW64712   3.755   5.901  12.091  0.3636  0.0647 -0.1994
19221SOL    HW164713   3.787   5.965  12.155 -0.0565 -0.0800  0.1608
19221SOL    HW264714   3.758   5.817  12.137 -1.4437  0.1767  0.1962
19222SOL     OW64715   6.116   2.084   1.052 -0.7358  0.3595  0.0619
19222SOL    HW164716   6.177   2.053   0.985 -1.4007  0.4013 -0.5802
19222SOL    HW264717   6.032   2.090   1.006 -1.8536 -2.2499  1.5295
19223SOL     OW64718  11.332   7.864   8.205  0.0827 -0.2477 -0.5406
19223SOL    HW164719  11.309   7.811   8.129  0.7487 -0.0915 -0.8504
19223SOL    HW264720  11.254   7.860   8.261  0.4158 -2.2883 -0.1340
19224SOL     OW64721   0.506   1.096   1.675  0.5550 -0.0696 -0.5065
19224SOL    HW164722   0.599   1.116   1.688  0.2374  1.3759 -0.2520
19224SOL    HW264723   0.505   1.008   1.638  2.1077  0.4235 -1.8418
19225SOL     OW64724   7.701  10.901   5.169 -0.4787  0.6841 -0.2753
19225SOL    HW164725   7.635  10.882   5.102  0.6000 -0.0803 -1.1667
19225SOL    HW264726   7.713  10.996   5.165 -0.8888  0.7242 -0.7035
19226SOL     OW64727   9.213   1.417   5.790  0.7681 -0.2024  0.2705
19226SOL    HW164728   9.163   1.483   5.837  0.1566 -1.6487  1.7608
19226SOL    HW264729   9.149   1.374   5.733  1.0552  0.1385 -0.3208
19227SOL     OW64730   5.408   2.466   7.430 -0.1059  0.0268 -0.1633
19227SOL    HW164731   5.397   2.374   7.452 -2.2678 -0.1218 -1.5825
19227SOL    HW264732   5.363   2.513   7.501 -0.7672 -0.1058 -0.4952
19228SOL     OW64733   1.182   1.456   1.560 -0.0118 -0.1766  0.4266
19228SOL    HW164734   1.159   1.504   1.640 -1.4265 -0.4341  0.2052
19228SOL    HW264735   1.114   1.389   1.552  1.1067 -1.2983 -0.0514
19229SOL     OW64736   0.014   3.615   2.876 -0.5676 -0.5220 -0.0763
19229SOL    HW164737   0.032   3.646   2.787 -1.5362  1.5418  0.4146
19229SOL    HW264738  -0.081   3.608   2.881 -0.5758  0.1795  1.0478
19230SOL     OW64739  11.985   6.609  11.817  0.0545 -0.2283 -0.7251
19230SOL    HW164740  11.947   6.637  11.734 -0.7454 -0.1919 -0.3508
19230SOL    HW264741  11.959   6.518  11.825  1.1687 -0.5914 -1.0953
19231SOL     OW64742   6.169   4.019  10.876 -0.3068 -0.5363 -0.5429
19231SOL    HW164743   6.147   4.110  10.898  2.5564 -0.3010  2.1421
19231SOL    HW264744   6.194   4.021  10.784 -0.6251  1.3454 -0.6200
19232SOL     OW64745   6.095   4.495   8.949 -0.1398  0.2403 -0.3161
19232SOL    HW164746   6.149   4.443   8.890 -1.1016 -0.7482 -0.3596
19232SOL    HW264747   6.081   4.577   8.901 -0.6203 -0.4076 -1.3321
19233SOL     OW64748   7.311   6.102   8.905 -0.6035 -0.0300 -0.2954
19233SOL    HW164749   7.289   6.193   8.885 -0.6669  0.1638  0.6269
19233SOL    HW264750   7.310   6.058   8.820 -1.3465  0.6675 -0.6586
19234SOL     OW64751   1.530   0.331   7.199  0.2352 -0.3742 -0.1252
19234SOL    HW164752   1.463   0.323   7.131  0.7601  0.1532 -0.7239
19234SOL    HW264753   1.507   0.265   7.264 -0.6564 -0.4384 -0.4966
19235SOL     OW64754  12.107   2.788   9.794 -0.4887  0.4906  0.5785
19235SOL    HW164755  12.086   2.843   9.718 -1.0875 -0.0405  0.3435
19235SOL    HW264756  12.199   2.804   9.811 -0.2442  0.3212 -0.5184
19236SOL     OW64757  11.827   6.721   0.782 -0.7094 -0.8585 -0.1227
19236SOL    HW164758  11.828   6.640   0.834  0.1709  0.7793  2.6037
19236SOL    HW264759  11.760   6.775   0.824 -1.3294 -0.1669 -1.9436
19237SOL     OW64760  10.171   7.024   7.206 -0.4230  0.0529  0.0221
19237SOL    HW164761  10.261   6.992   7.214 -0.4016  0.4403  1.8966
19237SOL    HW264762  10.153   7.021   7.112  1.1251 -1.1439 -0.2931
19238SOL     OW64763   4.802  10.684   7.944  0.2714 -0.2628 -0.2344
19238SOL    HW164764   4.864  10.752   7.969 -0.2899  0.7593 -1.4891
19238SOL    HW264765   4.811  10.677   7.849 -0.9586 -0.6399 -0.3467
19239SOL     OW64766   6.174   2.847   9.254 -0.1038  0.3997  0.2668
19239SOL    HW164767   6.134   2.789   9.320 -1.9359  0.5146 -0.6824
19239SOL    HW264768   6.141   2.934   9.276 -1.6233  0.2880 -1.3835
19240SOL     OW64769  12.006   6.377   9.007  0.4752 -0.0099  0.3799
19240SOL    HW164770  12.060   6.350   9.081 -1.4433  0.0695  1.8965
19240SOL    HW264771  12.031   6.468   8.990  0.7360  0.0601  1.1224
19241SOL     OW64772   5.383   4.663   0.241  0.2670  0.2990  0.7265
19241SOL    HW164773   5.329   4.593   0.204  2.9895 -1.5439 -0.0624
19241SOL    HW264774   5.330   4.700   0.310 -2.2957 -0.8228 -0.5116
19242SOL     OW64775   6.781   6.794   7.953 -0.5792  0.5468 -0.7024
19242SOL    HW164776   6.865   6.749   7.966 -1.5173 -1.1932 -0.3906
19242SOL    HW264777   6.754   6.771   7.864 -1.0109  0.6087 -0.5907
19243SOL     OW64778   1.385   8.247   1.236  0.1123  0.6460  0.0011
19243SOL    HW164779   1.291   8.236   1.218 -0.0995 -1.5210  1.9457
19243SOL    HW264780   1.416   8.307   1.167 -2.6366  1.3124 -0.7788
19244SOL     OW64781   9.182   7.310   9.090  0.5564 -0.3797 -0.2677
19244SOL    HW164782   9.173   7.311   9.185  0.2619 -0.2123 -0.2950
19244SOL    HW264783   9.268   7.348   9.073  1.0770 -1.3987 -0.0221
19245SOL     OW64784   1.928   0.753   1.012 -0.1388  0.3869 -0.0680
19245SOL    HW164785   1.847   0.768   0.964 -0.7650 -0.7979  0.5598
19245SOL    HW264786   1.944   0.659   1.004  0.1110  0.2711  1.4185
19246SOL     OW64787   4.685   1.351   0.284  0.5817  0.0018 -0.4327
19246SOL    HW164788   4.713   1.415   0.219 -0.8039  1.0297 -0.0530
19246SOL    HW264789   4.592   1.336   0.265  0.7509 -1.5387 -0.2001
19247SOL     OW64790  10.962  11.466  10.325  0.0794 -0.0577 -0.1433
19247SOL    HW164791  11.007  11.487  10.407  1.2907 -2.8296  0.0084
19247SOL    HW264792  10.897  11.536  10.314 -1.1622 -0.3477  3.9297
19248SOL     OW64793  11.680   8.056   7.565 -0.0874 -0.0785 -0.2410
19248SOL    HW164794  11.625   8.081   7.639 -0.1554 -0.1080 -0.2816
19248SOL    HW264795  11.760   8.022   7.605 -0.5330 -1.0632 -0.1558
19249SOL     OW64796  10.680   8.813   6.216  0.2775  0.0891  0.3735
19249SOL    HW164797  10.721   8.800   6.302  1.2623 -1.2277 -0.2629
19249SOL    HW264798  10.741   8.870   6.168  0.1220  0.1649  0.2634
19250SOL     OW64799   9.263  11.498   7.250 -0.1647  0.1802  0.0209
19250SOL    HW164800   9.174  11.479   7.221 -0.0404  0.4596 -0.5611
19250SOL    HW264801   9.290  11.419   7.298 -0.0830 -0.6383 -1.3197
19251SOL     OW64802  11.920   7.333   0.461 -0.5652  0.8270  0.1750
19251SOL    HW164803  11.896   7.339   0.368 -1.3166 -1.8765  0.1252
19251SOL    HW264804  11.890   7.416   0.498  0.5404  2.3638 -2.1183
19252SOL     OW64805   1.085   8.849   1.427  0.2823 -0.0113 -0.5783
19252SOL    HW164806   1.132   8.782   1.378 -0.3558 -1.0873  0.2501
19252SOL    HW264807   1.000   8.811   1.445  0.0707  0.8385  0.3129
19253SOL     OW64808   9.192   3.030   0.373 -0.0560 -0.3507  0.2355
19253SOL    HW164809   9.158   2.963   0.433 -1.5130  0.9391  0.9371
19253SOL    HW264810   9.203   3.108   0.428  1.4647  0.0417 -0.5794
19254SOL     OW64811  11.450   9.543   5.427  0.0914  0.1085  0.1630
19254SOL    HW164812  11.454   9.495   5.509 -1.8163  0.2883  0.4006
19254SOL    HW264813  11.380   9.607   5.439  0.5264  0.9091 -1.2149
19255SOL     OW64814  11.997   4.880  12.369  0.3613 -0.0253  0.0851
19255SOL    HW164815  12.023   4.793  12.337  1.2376  0.4367 -0.4878
19255SOL    HW264816  11.968   4.865  12.459  1.2240 -0.7935  0.2501
19256SOL     OW64817   8.608   2.708   5.946  0.0101 -0.4971  0.1117
19256SOL    HW164818   8.563   2.669   5.871  1.7579  1.1166 -1.9205
19256SOL    HW264819   8.538   2.740   6.002 -1.3738 -1.8021 -0.7722
19257SOL     OW64820   5.490  11.555   0.424  0.0917 -0.1794  0.1970
19257SOL    HW164821   5.434  11.530   0.497  0.0905 -0.7954 -0.0048
19257SOL    HW264822   5.545  11.478   0.408  1.2671  0.5395  0.6319
19258SOL     OW64823  12.180   2.574   7.893 -0.6358 -0.2934 -0.5003
19258SOL    HW164824  12.201   2.628   7.817  0.4180 -2.0126 -1.4958
19258SOL    HW264825  12.222   2.618   7.966 -1.4340  1.2460 -0.9370
19259SOL     OW64826   1.375   3.312   9.297 -0.0865  0.1819  0.1738
19259SOL    HW164827   1.317   3.372   9.345  0.2808  2.0566 -1.5746
19259SOL    HW264828   1.344   3.315   9.207  1.5225 -0.2770 -0.4396
19260SOL     OW64829   3.189   5.844   3.464 -0.3806 -0.3378 -0.2774
19260SOL    HW164830   3.137   5.792   3.402 -1.3266 -0.4127  0.5454
19260SOL    HW264831   3.182   5.933   3.431 -2.5176 -0.0556  0.7154
19261SOL     OW64832   1.574   5.040   7.710 -0.4126 -0.0980 -1.1222
19261SOL    HW164833   1.593   5.056   7.617 -0.8214  0.9892 -1.0309
19261SOL    HW264834   1.551   4.947   7.714 -0.4762 -0.1370 -2.1305
19262SOL     OW64835  12.531   7.043  12.068 -0.0006 -0.0437 -0.2563
19262SOL    HW164836  12.518   7.085  11.983 -1.1987  2.4685  1.0401
19262SOL    HW264837  12.463   6.976  12.073  0.4661 -0.6354 -1.4758
19263SOL     OW64838   6.023   1.550  10.304 -0.1687  0.2313  0.3999
19263SOL    HW164839   6.039   1.526  10.395  1.2120 -1.9173 -0.3388
19263SOL    HW264840   5.992   1.470  10.263  1.2184  0.5748 -1.4591
19264SOL     OW64841   3.779  11.760   4.293 -0.4997 -0.0039 -0.8614
19264SOL    HW164842   3.807  11.675   4.325 -0.7883 -0.7062 -2.3577
19264SOL    HW264843   3.769  11.814   4.372  1.5513 -0.7479 -0.0278
19265SOL     OW64844   8.825   3.580   9.620 -0.1533 -0.2272 -0.1736
19265SOL    HW164845   8.754   3.571   9.556 -0.4636 -1.2343  0.2944
19265SOL    HW264846   8.819   3.671   9.650 -1.2238 -0.2857 -0.1742
19266SOL     OW64847   5.865  10.099   2.028 -0.5573  0.3811 -0.1057
19266SOL    HW164848   5.854  10.158   1.954  0.8176 -0.1132 -0.7372
19266SOL    HW264849   5.923  10.146   2.088  0.7318 -0.3676 -0.7170
19267SOL     OW64850   6.341   9.022  11.356 -0.6612 -0.1578  0.2948
19267SOL    HW164851   6.252   9.018  11.390 -1.3838 -1.3074 -1.5565
19267SOL    HW264852   6.356   9.115  11.340 -0.9214  0.2187  2.0367
19268SOL     OW64853   6.352   0.011   3.348 -0.1456 -0.3453 -0.3007
19268SOL    HW164854   6.315   0.096   3.373 -1.3320 -1.1478  0.7577
19268SOL    HW264855   6.363   0.018   3.253 -0.3360  0.9409 -0.2524
19269SOL     OW64856   2.382   8.665   5.594  0.2847  0.3683  0.0981
19269SOL    HW164857   2.320   8.645   5.524  0.5835  0.0899 -0.0924
19269SOL    HW264858   2.350   8.615   5.669 -0.6341  1.4820  0.4797
19270SOL     OW64859   7.471   7.842  11.191 -0.0999  0.2066 -0.1887
19270SOL    HW164860   7.479   7.803  11.278  0.6513 -2.5764 -1.4078
19270SOL    HW264861   7.539   7.909  11.189  0.9203 -0.7473  0.8584
19271SOL     OW64862   3.342   1.196   9.620 -0.1132  0.6732  0.7242
19271SOL    HW164863   3.407   1.127   9.629 -0.9286 -0.5439 -1.7282
19271SOL    HW264864   3.266   1.164   9.668  0.5741  1.4879  2.4499
19272SOL     OW64865   2.469  10.444   6.348  0.4065 -0.4812 -0.2757
19272SOL    HW164866   2.557  10.473   6.373  0.5861 -1.4724  0.3320
19272SOL    HW264867   2.410  10.505   6.392  0.7701 -0.9811  0.9514
19273SOL     OW64868   9.209   6.135   5.447  0.2771 -0.2286  0.4021
19273SOL    HW164869   9.131   6.154   5.500 -0.2731 -0.9842 -0.1004
19273SOL    HW264870   9.173   6.106   5.362  1.1079 -0.6052  0.1707
19274SOL     OW64871   7.134   3.072  10.238 -0.2448  0.3092  0.6913
19274SOL    HW164872   7.097   3.085  10.325  0.2373 -0.2779  0.9873
19274SOL    HW264873   7.146   2.978  10.230 -1.1007  0.2678 -0.3567
19275SOL     OW64874   5.778  12.393  11.863 -0.4313  0.3957 -0.1247
19275SOL    HW164875   5.819  12.444  11.793 -0.0964 -2.2387 -1.9663
19275SOL    HW264876   5.684  12.399  11.844 -0.4527  0.9017  0.1151
19276SOL     OW64877   6.922   6.687   9.042  0.2840 -0.2281 -0.0046
19276SOL    HW164878   6.966   6.683   9.127 -0.2128 -1.6208  0.2178
19276SOL    HW264879   6.985   6.647   8.981  1.1089  1.7777 -0.5449
19277SOL     OW64880   9.770  10.636   9.699 -0.2054  0.3612 -0.8022
19277SOL    HW164881   9.811  10.719   9.722 -0.6347  0.6763 -1.1463
19277SOL    HW264882   9.689  10.661   9.654 -0.8250 -0.2515 -0.0417
19278SOL     OW64883   3.407  12.064   6.743  0.0525  0.1332  0.4073
19278SOL    HW164884   3.365  12.033   6.823 -0.9112  1.6367  0.5231
19278SOL    HW264885   3.476  12.123   6.773  1.2541 -1.1112  0.1686
19279SOL     OW64886   8.280   0.927   3.510 -0.1180 -0.3736 -0.8790
19279SOL    HW164887   8.227   0.895   3.583  0.2411  0.4255 -0.2505
19279SOL    HW264888   8.316   0.848   3.469 -0.2057 -0.8225 -0.0970
19280SOL     OW64889   8.400   8.351   2.240  0.2080 -0.0886  0.4157
19280SOL    HW164890   8.328   8.408   2.212 -0.3488 -1.5977 -1.3966
19280SOL    HW264891   8.471   8.412   2.263 -0.7137  1.3637 -0.4120
19281SOL     OW64892   1.785   4.126   9.938 -0.2225  0.1531  0.0494
19281SOL    HW164893   1.755   4.212   9.908  0.0977 -0.0955 -1.0178
19281SOL    HW264894   1.866   4.111   9.889 -0.0035 -0.5279  0.6171
19282SOL     OW64895   7.544  11.744   4.841 -0.1385  0.4117  0.1726
19282SOL    HW164896   7.470  11.730   4.782 -0.5908  1.7737  0.3821
19282SOL    HW264897   7.517  11.818   4.896  1.0377  0.3782  0.8208
19283SOL     OW64898   1.529  11.930   0.208 -0.1869 -0.5773  0.0378
19283SOL    HW164899   1.533  11.844   0.251 -0.5292 -0.8010 -0.3670
19283SOL    HW264900   1.564  11.915   0.121  1.8002  0.1761  0.6597
19284SOL     OW64901   3.388   4.330   1.143  0.5348  0.4215 -0.5861
19284SOL    HW164902   3.434   4.258   1.185 -0.2503 -0.5324 -1.3180
19284SOL    HW264903   3.362   4.296   1.058  0.0745  1.5452 -0.9173
19285SOL     OW64904   4.386   2.704   9.310 -0.6651 -0.3245 -0.2133
19285SOL    HW164905   4.321   2.638   9.333  0.5775 -1.5176 -0.0107
19285SOL    HW264906   4.366   2.778   9.367 -2.5235 -0.2076 -0.9289
19286SOL     OW64907   7.044   9.364   1.456 -0.2488 -0.0968 -0.3067
19286SOL    HW164908   6.996   9.375   1.538  1.7094  0.7743  0.7862
19286SOL    HW264909   7.130   9.330   1.482  1.4174  2.7272 -1.6534
19287SOL     OW64910   1.626   3.424  11.495 -0.1925 -0.4304  1.0459
19287SOL    HW164911   1.680   3.501  11.478 -1.1048  0.3094  1.4170
19287SOL    HW264912   1.631   3.411  11.589  2.0988 -2.4704  0.7440
19288SOL     OW64913  12.161   1.037   7.353 -0.1258  0.0364  0.4175
19288SOL    HW164914  12.127   1.102   7.414  1.6818 -1.6754  3.5438
19288SOL    HW264915  12.245   1.073   7.323  0.6787 -0.5566  1.8300
19289SOL     OW64916  12.452   7.528   8.545  0.1356 -0.3273  0.3229
19289SOL    HW164917  12.482   7.615   8.569 -0.4151 -0.6931  2.5384
19289SOL    HW264918  12.357   7.535   8.539  0.0323 -0.8771  1.1128
19290SOL     OW64919   0.582   3.969   8.275 -0.0950 -0.1838 -0.1569
19290SOL    HW164920   0.489   3.989   8.263 -0.0360 -0.3842 -1.0049
19290SOL    HW264921   0.606   4.014   8.356 -1.2652 -1.2279  0.8284
19291SOL     OW64922   2.894  12.351   9.377  0.1129 -0.9500 -0.2670
19291SOL    HW164923   2.905  12.390   9.464 -0.1073 -1.7226  0.1229
19291SOL    HW264924   2.964  12.287   9.370  0.0357 -1.0020 -0.5996
19292SOL     OW64925   9.986   9.490   3.772  0.0545 -0.7042  0.2950
19292SOL    HW164926   9.999   9.423   3.840  0.1529 -0.5418  0.4370
19292SOL    HW264927   9.893   9.510   3.776 -0.1877 -1.5991 -0.4700
19293SOL     OW64928   3.300   3.280   7.667  0.3902  0.5510  0.4384
19293SOL    HW164929   3.302   3.210   7.732 -0.2652  0.6515  0.5765
19293SOL    HW264930   3.239   3.248   7.600  0.4684  0.7767  0.2591
19294SOL     OW64931   6.687   5.470   6.588 -0.6053  0.9063 -0.3690
19294SOL    HW164932   6.689   5.478   6.683  0.4674 -1.3384 -0.1341
19294SOL    HW264933   6.621   5.403   6.571  1.2727 -0.9221 -0.9185
19295SOL     OW64934   1.824   9.492  11.147  0.3641  0.0112  0.0425
19295SOL    HW164935   1.919   9.504  11.145  0.4022 -0.3544 -0.3892
19295SOL    HW264936   1.791   9.574  11.183  0.8373  0.1658  0.1376
19296SOL     OW64937   3.444  10.150   6.977  0.3423 -0.0683 -0.2568
19296SOL    HW164938   3.398  10.085   6.924  1.5724 -0.7872 -0.4678
19296SOL    HW264939   3.495  10.098   7.039 -0.0122  0.7428  0.7430
19297SOL     OW64940   0.864   2.849   0.665  0.1707 -0.6146  0.7797
19297SOL    HW164941   0.788   2.907   0.661 -0.4961 -1.4037  1.7330
19297SOL    HW264942   0.936   2.903   0.635 -1.0507 -0.3917 -2.0550
19298SOL     OW64943   3.120   4.795   1.882  0.8659  0.0972  0.6879
19298SOL    HW164944   3.077   4.877   1.856  0.6723  0.0356  0.8123
19298SOL    HW264945   3.131   4.803   1.977  0.3795 -0.2417  0.7735
19299SOL     OW64946   4.965  10.091  10.377  0.9887  0.1403  0.0461
19299SOL    HW164947   5.012  10.010  10.396  0.3221  0.0160  1.2811
19299SOL    HW264948   5.017  10.159  10.418  0.5978  0.1028  0.6308
19300SOL     OW64949   6.535   0.329  11.589  0.2995  0.5511 -0.6890
19300SOL    HW164950   6.523   0.365  11.501 -1.4986 -0.8045 -1.0559
19300SOL    HW264951   6.498   0.395  11.647  0.6605  1.0472 -1.0160
19301SOL     OW64952   0.358   5.455   0.489 -0.3656  0.1846 -0.1583
19301SOL    HW164953   0.397   5.373   0.520 -1.1945 -1.2886 -2.7494
19301SOL    HW264954   0.432   5.509   0.463  0.1269 -0.9409 -1.1692
19302SOL     OW64955   1.017   3.604   7.466  0.3077 -0.4248  0.1369
19302SOL    HW164956   0.959   3.666   7.421  0.6232  0.0113  0.3305
19302SOL    HW264957   1.105   3.638   7.452  0.5795 -1.3898 -0.6327
19303SOL     OW64958  11.150   2.671   1.099  0.7723 -0.2229  0.3717
19303SOL    HW164959  11.225   2.631   1.056  0.4968  0.6881 -1.0354
19303SOL    HW264960  11.145   2.759   1.061  0.1676  0.4337  1.8911
19304SOL     OW64961   9.025   0.484   7.255 -0.0613 -0.3272  0.4160
19304SOL    HW164962   9.094   0.515   7.196 -2.0664 -1.9351 -3.1300
19304SOL    HW264963   8.976   0.563   7.278  0.8491  0.3891 -0.0460
19305SOL     OW64964   6.090   1.697   1.029 -0.5178 -0.0045 -0.0927
19305SOL    HW164965   6.155   1.759   0.995  1.7645 -2.7077 -0.9666
19305SOL    HW264966   6.021   1.698   0.962 -0.2896  1.2015 -0.3415
19306SOL     OW64967   2.676   0.326   3.639  0.0790 -0.0947  0.0354
19306SOL    HW164968   2.634   0.252   3.594  0.8099 -1.0282  0.8525
19306SOL    HW264969   2.768   0.301   3.644  0.4491  1.1655 -0.2227
19307SOL     OW64970  11.491   9.655   9.070 -0.0786  0.2918 -0.1377
19307SOL    HW164971  11.525   9.688   9.153  0.0369 -0.3553  0.0807
19307SOL    HW264972  11.539   9.574   9.055 -1.5694 -0.7048  0.2252
19308SOL     OW64973   8.038   6.756   3.353  0.3310  0.0920  0.5426
19308SOL    HW164974   8.096   6.715   3.418  1.4989  0.7144 -0.0974
19308SOL    HW264975   7.986   6.818   3.404  1.4707  0.8171  0.8463
19309SOL     OW64976   7.844  10.835  11.976  0.2731 -0.0473 -0.5563
19309SOL    HW164977   7.772  10.883  12.017  0.8750  1.4814 -1.2231
19309SOL    HW264978   7.811  10.816  11.888 -0.5037 -2.1488  0.1390
19310SOL     OW64979   2.585   0.087   8.558 -0.0783  0.2242 -0.2084
19310SOL    HW164980   2.555  -0.001   8.582 -0.2177  0.1555 -0.6160
19310SOL    HW264981   2.680   0.078   8.550 -0.0182  0.2730  0.3965
19311SOL     OW64982   6.432   2.562  10.950  0.5549  0.5052 -0.0242
19311SOL    HW164983   6.484   2.494  10.992 -0.1360 -0.5901 -0.8978
19311SOL    HW264984   6.469   2.644  10.984 -0.5028 -0.2617  3.4514
19312SOL     OW64985   2.923  11.555   6.373  0.3330  0.4696 -0.3088
19312SOL    HW164986   2.865  11.500   6.319  0.4950 -1.1671  1.1019
19312SOL    HW264987   2.863  11.615   6.418 -0.4404 -1.5860  1.5825
19313SOL     OW64988  12.502   7.268   9.412  0.1321  0.6244  0.5568
19313SOL    HW164989  12.588   7.311   9.415  0.3331  0.1608  2.3113
19313SOL    HW264990  12.468   7.290   9.325  3.0442 -1.2342 -1.2117
19314SOL     OW64991   1.426   4.274   3.673  0.4562  0.1955 -0.1169
19314SOL    HW164992   1.447   4.223   3.595 -0.7460 -2.0812  0.9692
19314SOL    HW264993   1.455   4.219   3.746 -1.6710  0.6416  1.1320
19315SOL     OW64994   0.482   2.979   1.846 -0.1772 -0.1423  0.3476
19315SOL    HW164995   0.432   2.978   1.765  0.7998 -0.8008 -0.2711
19315SOL    HW264996   0.425   3.022   1.910 -0.9304  0.4553 -0.7035
19316SOL     OW64997  11.638   7.627   3.797 -0.5690  0.4656 -0.2720
19316SOL    HW164998  11.589   7.709   3.804 -0.2693  0.4914  3.0423
19316SOL    HW264999  11.719   7.651   3.751 -0.8019  1.8637  0.0020
19317SOL     OW65000   0.526   0.673  12.255 -0.9191 -0.9358 -0.4132
19317SOL    HW165001   0.432   0.661  12.248 -0.5640 -3.6822 -2.0796
19317SOL    HW265002   0.552   0.620  12.331 -0.8538  1.3634  1.2657
19318SOL     OW65003   1.360  11.923   0.841 -0.1063 -0.3418  0.0262
19318SOL    HW165004   1.304  11.847   0.824 -0.8226  0.3444 -0.7763
19318SOL    HW265005   1.447  11.895   0.815 -0.2554 -1.0758  0.2899
19319SOL     OW65006   1.416   2.927  11.337 -0.0498 -0.3807  0.2967
19319SOL    HW165007   1.405   2.979  11.258 -2.9043  0.4903  1.1305
19319SOL    HW265008   1.448   2.989  11.403 -0.2958 -0.4613  0.4932
19320SOL     OW65009  11.064   2.465   0.757 -0.3355  0.3937 -0.6547
19320SOL    HW165010  10.993   2.487   0.697 -1.0371 -1.3234 -0.5018
19320SOL    HW265011  11.089   2.375   0.735  0.3449  0.2138  0.6962
19321SOL     OW65012   0.427   6.328  10.204  0.8235 -0.0119 -1.1066
19321SOL    HW165013   0.395   6.238  10.201  1.0721 -0.1196 -0.6705
19321SOL    HW265014   0.370   6.372  10.267  2.7999 -0.7506  1.3579
19322SOL     OW65015   7.051   3.040   2.823  0.8343 -0.6864 -0.2370
19322SOL    HW165016   6.957   3.062   2.824  1.0228  0.3439  2.2884
19322SOL    HW265017   7.054   2.949   2.794 -0.7657 -0.1721 -2.2303
19323SOL     OW65018  12.590   6.030  10.926 -0.4710 -0.1892  0.1921
19323SOL    HW165019  12.596   6.025  11.022 -3.3390  2.6852  0.6983
19323SOL    HW265020  12.497   6.046  10.909 -0.1518 -1.3017 -3.1747
19324SOL     OW65021   5.749  11.989   6.349 -0.0024  1.1926 -0.9329
19324SOL    HW165022   5.795  11.918   6.304 -0.4099  1.1887 -1.3511
19324SOL    HW265023   5.669  12.002   6.298 -1.3527  0.0025  0.7549
19325SOL     OW65024   3.880  11.199   0.160  0.2841 -0.6264  0.2995
19325SOL    HW165025   3.914  11.261   0.225 -1.5441 -0.4551  1.1555
19325SOL    HW265026   3.898  11.241   0.076 -0.3198  0.7817  0.8406
19326SOL     OW65027   6.412  10.573  10.063 -0.3244 -0.5636  0.4368
19326SOL    HW165028   6.394  10.483  10.087 -0.0867 -0.6837  0.1737
19326SOL    HW265029   6.370  10.584   9.978  0.3794 -0.6924  0.0597
19327SOL     OW65030  11.580  12.552   4.297  0.2273 -0.2633  0.5344
19327SOL    HW165031  11.674  12.546   4.311  0.3322  0.6639  0.3108
19327SOL    HW265032  11.569  12.542   4.202  0.2732  1.2543  0.3431
19328SOL     OW65033   9.770  11.468   9.707  0.0052  0.3889 -0.0767
19328SOL    HW165034   9.862  11.484   9.686  0.0131  0.9105  0.3316
19328SOL    HW265035   9.765  11.374   9.723  0.0952  0.0469 -1.8946
19329SOL     OW65036   2.199   9.497  11.564 -0.0973 -0.2133  0.4070
19329SOL    HW165037   2.153   9.415  11.582  0.2267 -0.2149  1.2828
19329SOL    HW265038   2.137   9.565  11.589 -0.6515 -0.1670 -1.0313
19330SOL     OW65039  12.541  11.349   3.918 -0.2854 -0.5320 -0.0229
19330SOL    HW165040  12.541  11.444   3.906  0.0443 -0.5195  0.0643
19330SOL    HW265041  12.448  11.325   3.920 -0.3707 -0.2008  0.0470
19331SOL     OW65042   9.218   5.161   1.010 -0.3714 -0.2335  0.4100
19331SOL    HW165043   9.215   5.198   1.098 -0.5060  1.7362 -0.3700
19331SOL    HW265044   9.155   5.089   1.012 -0.3964 -0.1955  1.9022
19332SOL     OW65045   9.537   9.328   3.386 -0.5186 -0.3180  0.3388
19332SOL    HW165046   9.632   9.312   3.382 -0.5360 -0.2701 -0.3065
19332SOL    HW265047   9.498   9.240   3.392 -0.5018 -0.4202 -0.8882
19333SOL     OW65048  10.407   2.227   2.413 -0.7397  0.7529 -0.1618
19333SOL    HW165049  10.337   2.218   2.478  0.6765  0.9185  1.4570
19333SOL    HW265050  10.457   2.303   2.443  0.6519  0.0949 -0.7721
19334SOL     OW65051   0.164   7.514   2.672 -0.4729 -0.0069  0.0433
19334SOL    HW165052   0.206   7.428   2.669  0.8849  0.6274  0.3272
19334SOL    HW265053   0.119   7.516   2.756  3.6048  1.3576  2.4575
19335SOL     OW65054   8.637  11.711   2.046 -0.0831  0.3259  0.0257
19335SOL    HW165055   8.702  11.720   1.976  0.3047  1.6461  0.5333
19335SOL    HW265056   8.567  11.772   2.022 -0.0022  0.7016  0.7076
19336SOL     OW65057   4.858   6.512   6.984 -0.1542 -0.9211  0.2575
19336SOL    HW165058   4.842   6.417   6.983 -1.8364 -0.7248  2.1294
19336SOL    HW265059   4.781   6.549   6.941  0.6145 -0.3777 -0.6890
19337SOL     OW65060   4.363   1.108   8.453  0.1118  0.0004 -0.0920
19337SOL    HW165061   4.290   1.109   8.514  0.5727  1.0454  0.4867
19337SOL    HW265062   4.420   1.038   8.485 -1.3588 -1.9427 -1.5028
19338SOL     OW65063   9.952  10.044   7.322 -0.0767 -0.1685  0.8663
19338SOL    HW165064   9.868  10.049   7.368 -0.5523  1.2721 -0.0689
19338SOL    HW265065   9.988   9.959   7.345 -1.6614 -0.6846  1.5386
19339SOL     OW65066   9.339   0.145   6.840  0.3596  0.2831  0.7362
19339SOL    HW165067   9.278   0.196   6.894  0.4288  0.1493  0.9408
19339SOL    HW265068   9.301   0.147   6.753  0.5394  0.9845  0.6677
19340SOL     OW65069   2.531   8.492   3.776 -0.2538 -0.4648  0.5969
19340SOL    HW165070   2.444   8.459   3.755 -0.1458 -0.1430 -0.3893
19340SOL    HW265071   2.520   8.587   3.785 -0.1321 -0.4970  1.1924
19341SOL     OW65072  11.111   1.668   0.365  0.2942  1.0783  0.0846
19341SOL    HW165073  11.110   1.763   0.372  3.1990  1.2163 -0.2874
19341SOL    HW265074  11.141   1.637   0.450 -1.1172  0.4107  0.3760
19342SOL     OW65075  11.802   1.924   5.031 -0.0014  0.1520  0.6841
19342SOL    HW165076  11.854   1.922   5.111  0.3376 -1.9948  0.4572
19342SOL    HW265077  11.836   1.852   4.978 -0.7176  1.0554 -1.0897
19343SOL     OW65078   9.854  10.936  11.773  0.2955 -0.0701 -0.0414
19343SOL    HW165079   9.872  10.998  11.844  2.2960  0.5301 -1.0065
19343SOL    HW265080   9.836  10.853  11.818  1.5096  0.2960  1.1880
19344SOL     OW65081  12.135   2.774   5.410  0.1485 -0.3463 -0.2687
19344SOL    HW165082  12.223   2.738   5.408 -0.0297 -0.8823  0.7668
19344SOL    HW265083  12.101   2.762   5.321  0.9018 -0.6725 -0.5167
19345SOL     OW65084   3.223  10.042  11.303  0.9042 -0.3155  0.2595
19345SOL    HW165085   3.261  10.049  11.215  0.2290 -3.0604 -0.3431
19345SOL    HW265086   3.129  10.042  11.289  0.7573  0.5397  1.1511
19346SOL     OW65087   4.416   3.116  11.037  0.2423 -0.0205 -0.4195
19346SOL    HW165088   4.450   3.122  11.126 -2.3767 -0.7060  0.7097
19346SOL    HW265089   4.444   3.029  11.007  1.3909  0.3319 -0.4224
19347SOL     OW65090   4.035   1.639   7.894  0.1472  0.0171  0.0094
19347SOL    HW165091   4.013   1.677   7.809  0.3799  2.7190  1.0715
19347SOL    HW265092   4.061   1.549   7.874  0.8090  0.7553 -2.8597
19348SOL     OW65093  11.984   6.301   4.697 -0.5801 -0.0943 -0.3854
19348SOL    HW165094  11.916   6.286   4.762 -0.8636  1.1022 -0.3736
19348SOL    HW265095  12.045   6.228   4.707 -0.2396  0.4319  1.7012
19349SOL     OW65096  12.020   3.933   6.619 -0.2233 -0.0581 -0.0726
19349SOL    HW165097  11.966   4.012   6.615  0.6341  0.4796 -2.1491
19349SOL    HW265098  12.074   3.944   6.697 -2.2379 -0.0721  1.3905
19350SOL     OW65099  12.375   5.864  12.494  0.0964  0.0199 -0.1285
19350SOL    HW165100  12.413   5.835  12.411 -0.9889  0.4174 -0.7828
19350SOL    HW265101  12.381   5.788  12.551 -0.4453 -0.7238 -1.0280
19351SOL     OW65102   8.272   9.540   8.713 -0.0715  0.1492  0.0811
19351SOL    HW165103   8.210   9.578   8.775  0.4753  0.0892  0.6807
19351SOL    HW265104   8.268   9.446   8.731  1.6500  0.2988  1.5545
19352SOL     OW65105   8.267   9.540   1.569  0.5144  0.0766  0.1008
19352SOL    HW165106   8.336   9.541   1.503 -0.3181 -1.5378 -0.8437
19352SOL    HW265107   8.213   9.464   1.548 -1.1174  0.8255  1.2820
19353SOL     OW65108  12.246   6.970   2.924  0.0287  0.6798  0.3182
19353SOL    HW165109  12.232   7.062   2.946 -2.1388  0.8584 -1.4126
19353SOL    HW265110  12.265   6.970   2.830 -0.6430 -0.6435  0.1519
19354SOL     OW65111  11.877   3.617   4.110 -0.1860  0.2510  0.3118
19354SOL    HW165112  11.852   3.527   4.129 -0.8188  0.5992  1.2133
19354SOL    HW265113  11.866   3.626   4.015 -1.3696 -0.2503  0.3890
19355SOL     OW65114   7.224  10.046   1.051 -0.2675  0.2621 -0.2892
19355SOL    HW165115   7.177  10.012   0.975  0.9702 -1.3439 -0.3967
19355SOL    HW265116   7.160  10.101   1.097 -1.3950  0.3007 -1.8325
19356SOL     OW65117   4.024   5.414   2.492 -0.1703  0.3691 -0.7137
19356SOL    HW165118   4.037   5.366   2.410 -0.9831  4.0575 -3.2504
19356SOL    HW265119   4.104   5.465   2.503  0.4198 -0.9219  1.5561
19357SOL     OW65120   6.222   0.026   9.973 -0.2178 -0.1146 -0.3908
19357SOL    HW165121   6.140   0.043   9.927  0.0289  0.3774 -0.6454
19357SOL    HW265122   6.219   0.082  10.050 -1.1820 -1.8051  0.8848
19358SOL     OW65123   8.012  11.806   6.060 -0.2473 -0.1454  0.0189
19358SOL    HW165124   7.942  11.779   6.001  0.2665  0.3888 -0.8689
19358SOL    HW265125   7.970  11.861   6.125 -0.7841 -0.5304  0.0008
19359SOL     OW65126   6.181   0.858   1.451 -0.2109 -0.7126  0.7015
19359SOL    HW165127   6.199   0.946   1.482  0.3375  0.2071 -2.0126
19359SOL    HW265128   6.159   0.809   1.530  0.7116  1.5151  2.4377
19360SOL     OW65129   1.369   4.503  12.144  0.0790 -0.1237 -0.5947
19360SOL    HW165130   1.362   4.466  12.057 -0.4431  0.2911 -0.7378
19360SOL    HW265131   1.461   4.529  12.152  0.4152 -1.2642 -0.5498
19361SOL     OW65132   1.875  10.028   4.075  0.2051 -0.1659 -0.3136
19361SOL    HW165133   1.901   9.937   4.089 -1.0013 -1.1441 -3.4531
19361SOL    HW265134   1.779  10.026   4.077  0.1518  0.8783 -1.0871
19362SOL     OW65135   1.090   5.446   8.263 -0.1965  0.4494  0.7268
19362SOL    HW165136   1.167   5.472   8.314  0.7335  2.0512 -1.3382
19362SOL    HW265137   1.026   5.418   8.328  1.4297  0.9769  2.6402
19363SOL     OW65138  10.560   2.470   6.300  0.3559  0.5438  0.0990
19363SOL    HW165139  10.598   2.534   6.359  1.5554 -0.7698  0.8235
19363SOL    HW265140  10.605   2.388   6.321 -2.1391 -0.9130  0.2724
19364SOL     OW65141  10.651  12.240   6.719 -0.0234  0.5019 -0.2117
19364SOL    HW165142  10.660  12.146   6.700  0.2587  0.5376 -0.2540
19364SOL    HW265143  10.584  12.244   6.788  0.2166  0.2428  0.0389
19365SOL     OW65144   5.044   1.515   0.347 -0.4846  0.0269 -0.3184
19365SOL    HW165145   4.982   1.587   0.357 -0.8632 -0.2273 -0.7626
19365SOL    HW265146   4.998   1.452   0.291 -1.1776 -1.7370  2.0880
19366SOL     OW65147   3.156   7.172  11.252 -0.1947  0.4875  0.3622
19366SOL    HW165148   3.082   7.233  11.257  0.3773  1.3634 -1.1106
19366SOL    HW265149   3.230   7.222  11.284  0.0049  0.0400  0.6069
19367SOL     OW65150   9.300   9.118  11.953  0.5160  0.1958 -0.0981
19367SOL    HW165151   9.284   9.129  11.859 -0.1378  0.6833  0.0628
19367SOL    HW265152   9.379   9.168  11.970 -0.0579  1.1490 -0.1634
19368SOL     OW65153   1.253  10.209   7.428 -0.0642  0.8067  0.3066
19368SOL    HW165154   1.206  10.128   7.450  1.4134 -0.4490 -0.9726
19368SOL    HW265155   1.339  10.198   7.469  0.4171  1.3801 -0.5417
19369SOL     OW65156   8.790   1.955   3.802  0.3756 -0.0056  0.0076
19369SOL    HW165157   8.738   1.913   3.733  2.4352 -1.4133 -0.8102
19369SOL    HW265158   8.775   2.048   3.789 -1.6568 -0.3401 -0.3698
19370SOL     OW65159  12.009   2.036  11.800  0.1030  0.6349 -0.6939
19370SOL    HW165160  12.042   1.960  11.849 -1.2006 -0.0301 -0.7952
19370SOL    HW265161  11.917   2.042  11.825  0.2623  2.4232 -0.4150
19371SOL     OW65162   6.900   0.095  12.342  0.7072  0.2366  0.2547
19371SOL    HW165163   6.924   0.017  12.292  1.4383  1.0986 -0.7882
19371SOL    HW265164   6.831   0.065  12.400 -0.4070 -0.7623 -1.4732
19372SOL     OW65165   4.200   0.492   2.574  0.0162  0.0280 -0.4498
19372SOL    HW165166   4.174   0.466   2.662 -0.2597 -0.6474 -0.7236
19372SOL    HW265167   4.138   0.560   2.549  0.0126  0.1240 -0.1716
19373SOL     OW65168  10.934   9.375   9.014  0.2402 -0.1090 -0.0490
19373SOL    HW165169  10.956   9.312   8.945  2.0882 -1.7287  1.8827
19373SOL    HW265170  11.015   9.423   9.030 -0.6946  1.6529 -0.2947
19374SOL     OW65171   6.278   1.011   9.591  0.1915  0.0932 -0.8320
19374SOL    HW165172   6.243   0.924   9.575 -0.5064  0.3027 -0.4891
19374SOL    HW265173   6.370   1.005   9.565  0.4756 -1.0802  0.3200
19375SOL     OW65174   2.519   5.932   9.667 -0.5063  0.4105  0.2958
19375SOL    HW165175   2.459   5.868   9.706  0.5032  0.1937  1.5657
19375SOL    HW265176   2.595   5.880   9.642 -0.6333  0.7626 -0.8576
19376SOL     OW65177   4.254  11.595   0.933  0.1912 -0.0652  0.2706
19376SOL    HW165178   4.326  11.554   0.981  1.1240  0.8591 -0.3017
19376SOL    HW265179   4.263  11.689   0.951  0.0100  0.2073 -0.9565
19377SOL     OW65180   3.053   4.120   4.202  0.0579 -0.1053 -0.3395
19377SOL    HW165181   3.137   4.077   4.188  1.5874  2.0589  1.4303
19377SOL    HW265182   3.027   4.152   4.116  0.8662 -1.1207 -0.9783
19378SOL     OW65183   2.811   2.092   8.319 -0.0473  0.2042 -0.2658
19378SOL    HW165184   2.804   2.000   8.343  1.1713  0.3316  0.7028
19378SOL    HW265185   2.723   2.127   8.333 -0.0693 -0.3902  1.3026
19379SOL     OW65186   2.961   7.987  12.295  0.0867  0.0125 -0.3147
19379SOL    HW165187   3.048   8.025  12.306  0.4991 -0.8983 -0.3620
19379SOL    HW265188   2.977   7.895  12.277 -0.9235 -0.3972  0.7456
19380SOL     OW65189   3.754   9.738   7.185 -0.0377  0.1611  0.2408
19380SOL    HW165190   3.795   9.787   7.256  0.4086  0.8138 -0.4540
19380SOL    HW265191   3.661   9.738   7.207 -0.0364  1.2658  0.2946
19381SOL     OW65192   8.567   9.804   8.807  0.0476 -0.7355  0.4667
19381SOL    HW165193   8.595   9.875   8.748 -0.9301 -1.5510 -1.0426
19381SOL    HW265194   8.628   9.810   8.881  0.9217  0.7443 -0.3028
19382SOL     OW65195   4.636   0.348   2.770  0.6849 -0.1547 -0.7830
19382SOL    HW165196   4.685   0.359   2.688  2.2827  0.2634  0.1698
19382SOL    HW265197   4.644   0.255   2.789 -0.1642 -0.3604 -1.3510
19383SOL     OW65198   3.623   7.266  11.284  0.2243  0.3820 -0.2203
19383SOL    HW165199   3.626   7.171  11.271 -0.5105  0.5269 -1.6992
19383SOL    HW265200   3.670   7.302  11.209  0.5523  1.1860  0.3631
19384SOL     OW65201   7.305   0.761   9.855  0.6850 -0.5959 -0.2194
19384SOL    HW165202   7.362   0.757   9.932 -0.9046 -0.4019  1.0260
19384SOL    HW265203   7.328   0.843   9.811  2.5175 -1.3412 -0.7204
19385SOL     OW65204  12.024  11.891  12.427 -0.0739  0.3305  0.7137
19385SOL    HW165205  12.063  11.974  12.401  0.0299 -0.2101 -0.9975
19385SOL    HW265206  12.091  11.847  12.479  0.6190  0.5130 -0.0119
19386SOL     OW65207   2.304   9.574  12.382  0.1796  0.4178  0.1438
19386SOL    HW165208   2.399   9.565  12.386  0.1916  0.5159  0.0988
19386SOL    HW265209   2.270   9.499  12.430  0.3042  1.7630  2.4834
19387SOL     OW65210   9.100   4.193   5.497  0.5619 -0.4636 -0.2818
19387SOL    HW165211   9.164   4.127   5.472  0.8573 -0.5603  0.7145
19387SOL    HW265212   9.053   4.212   5.416 -0.1605 -2.5622 -0.4185
19388SOL     OW65213  12.024   7.583   6.158 -0.2295  0.4568 -0.2006
19388SOL    HW165214  11.933   7.572   6.133 -0.6306 -0.1802  1.3861
19388SOL    HW265215  12.021   7.632   6.240  0.7973 -0.0687  0.1825
19389SOL     OW65216   8.043   7.134   0.897  0.3804 -0.2149 -0.0812
19389SOL    HW165217   8.036   7.091   0.982  0.2207  1.7373  0.9557
19389SOL    HW265218   8.073   7.065   0.838 -0.3422 -1.8392  1.3497
19390SOL     OW65219   9.183   8.532   6.937 -0.5350  0.6724 -0.2978
19390SOL    HW165220   9.121   8.462   6.956 -2.0858  2.4808  1.9337
19390SOL    HW265221   9.264   8.487   6.913 -1.3053 -1.9073  1.5239
19391SOL     OW65222   5.486   9.455  10.423 -0.3389 -0.0712  0.1730
19391SOL    HW165223   5.554   9.482  10.362 -1.5704  1.5083 -0.5903
19391SOL    HW265224   5.509   9.366  10.448  0.0799 -0.8904 -2.8355
19392SOL     OW65225   6.956  10.319   8.923  0.0534  0.1034  0.2084
19392SOL    HW165226   6.915  10.236   8.944 -0.2387  0.3202  0.5032
19392SOL    HW265227   6.884  10.375   8.893  0.3185  0.0963 -0.4828
19393SOL     OW65228  10.339   4.808   7.187  0.3097 -0.4028  0.3874
19393SOL    HW165229  10.386   4.799   7.103 -2.7467 -2.5740 -1.3337
19393SOL    HW265230  10.257   4.850   7.163 -1.3299 -2.5265  1.8844
19394SOL     OW65231   3.521   9.983   0.288 -0.0093 -0.0028  0.1523
19394SOL    HW165232   3.449  10.027   0.242  0.0540 -0.2800 -0.2199
19394SOL    HW265233   3.477   9.927   0.353 -0.1347 -0.1611 -0.0644
19395SOL     OW65234  10.136   9.979   8.939  0.1307 -0.0160  0.1084
19395SOL    HW165235  10.146   9.893   8.898 -0.4251  1.3210 -3.2221
19395SOL    HW265236  10.223  10.020   8.931 -0.2141  0.6021 -0.7550
19396SOL     OW65237   6.453   9.585   8.824 -0.4258  0.0211  0.4311
19396SOL    HW165238   6.472   9.591   8.731  0.4744 -0.1680  0.5933
19396SOL    HW265239   6.533   9.613   8.868  0.5554 -3.3890  1.1430
19397SOL     OW65240   9.730   8.670   6.141  0.4939 -0.2992  0.3177
19397SOL    HW165241   9.727   8.614   6.064 -1.9785 -0.8538  0.7226
19397SOL    HW265242   9.759   8.612   6.212 -0.5948 -0.7113  0.4437
19398SOL     OW65243   4.022   9.403   1.441 -0.0998 -0.4251  0.1507
19398SOL    HW165244   3.949   9.348   1.412  0.0965 -0.4281 -0.3373
19398SOL    HW265245   3.995   9.433   1.528 -0.7664 -0.2800 -0.0962
19399SOL     OW65246   4.284   9.065   6.536  0.1519  0.1131  0.5094
19399SOL    HW165247   4.221   9.077   6.465  1.1530  0.7860 -0.2946
19399SOL    HW265248   4.275   9.143   6.590  0.0217  0.0228  0.6191
19400SOL     OW65249  10.529   6.722   9.901 -0.5778 -0.1599 -0.0368
19400SOL    HW165250  10.548   6.814   9.921  0.0272 -0.3833  0.4090
19400SOL    HW265251  10.539   6.676   9.984 -1.4816 -0.5472 -0.1224
19401SOL     OW65252   4.225   0.099   8.544  0.5595  0.3832  0.2188
19401SOL    HW165253   4.258   0.029   8.488  0.5425  0.3090  0.3025
19401SOL    HW265254   4.295   0.165   8.542  2.1451 -1.0332  2.8239
19402SOL     OW65255   5.685   1.434  11.296  0.1214  0.2423  0.2468
19402SOL    HW165256   5.618   1.387  11.246  0.1260 -0.9248  1.2786
19402SOL    HW265257   5.767   1.392  11.272  0.1015 -0.4613  1.3346
19403SOL     OW65258  10.911   1.278   8.732  0.2949 -0.5450  0.0864
19403SOL    HW165259  10.821   1.307   8.745  0.6579  1.2884 -1.0394
19403SOL    HW265260  10.955   1.299   8.814 -0.1486 -0.7548  0.3767
19404SOL     OW65261   1.156  10.737  12.476 -0.3694  0.0656 -0.1724
19404SOL    HW165262   1.250  10.724  12.480  0.0419  2.8030  1.8330
19404SOL    HW265263   1.143  10.795  12.400 -0.4441 -0.1718 -0.3444
19405SOL     OW65264   0.781   3.310  10.734 -0.4581 -0.1849  0.2956
19405SOL    HW165265   0.757   3.258  10.657 -2.0522  0.7355  0.1315
19405SOL    HW265266   0.732   3.270  10.806  0.5750 -0.6766  0.7590
19406SOL     OW65267   7.218   3.972  10.687 -0.3877 -0.4287  0.0667
19406SOL    HW165268   7.211   4.049  10.742  0.9025 -1.1844  1.3276
19406SOL    HW265269   7.271   3.910  10.737 -1.0588 -1.9993 -1.0674
19407SOL     OW65270   0.305   9.261   0.712 -0.5068  0.0473  0.0626
19407SOL    HW165271   0.251   9.184   0.730 -1.6568  0.7572 -0.2190
19407SOL    HW265272   0.306   9.268   0.617 -3.2186  2.2139  0.0660
19408SOL     OW65273   7.727   7.356   8.648 -0.5250 -0.1452 -0.2319
19408SOL    HW165274   7.632   7.343   8.649 -0.5306 -0.3944 -1.6495
19408SOL    HW265275   7.742   7.421   8.579  0.4653 -1.7107 -1.5847
19409SOL     OW65276  10.158   8.148   5.988  0.1371 -0.0244 -0.4957
19409SOL    HW165277  10.105   8.076   6.022  0.0170  0.7987  1.1251
19409SOL    HW265278  10.150   8.140   5.893  0.2629 -2.2378 -0.3841
19410SOL     OW65279  10.003   7.881   8.653 -0.2518  1.1990 -0.3592
19410SOL    HW165280   9.950   7.817   8.605 -0.5175  0.4991  0.8389
19410SOL    HW265281   9.943   7.918   8.718  0.2131  1.8274 -0.2744
19411SOL     OW65282   8.024   0.878   7.797 -0.1830  0.3418 -0.4509
19411SOL    HW165283   7.939   0.917   7.815  0.3753  1.1611  0.5375
19411SOL    HW265284   8.018   0.789   7.833 -0.8314  0.1590 -0.9983
19412SOL     OW65285   4.435   8.502   0.430 -0.0660 -0.0678 -0.3877
19412SOL    HW165286   4.356   8.478   0.478  0.4707  0.9015  1.0245
19412SOL    HW265287   4.499   8.434   0.452  0.8152  1.4060  1.9885
19413SOL     OW65288   3.634   8.882   5.604 -0.4836 -0.3058 -0.1902
19413SOL    HW165289   3.564   8.940   5.633 -0.5862 -0.9194  0.8243
19413SOL    HW265290   3.681   8.933   5.537 -0.4776  0.9975  0.7757
19414SOL     OW65291  10.694   9.172   9.856  0.0945 -0.5963 -0.5841
19414SOL    HW165292  10.771   9.227   9.845 -0.5231  0.1576 -1.2679
19414SOL    HW265293  10.656   9.200   9.939 -0.6826  0.6496 -1.3157
19415SOL     OW65294   9.896   8.028  11.115 -0.0482 -0.9584  0.0872
19415SOL    HW165295   9.952   8.096  11.154 -1.1889 -0.5870  1.1695
19415SOL    HW265296   9.955   7.955  11.099  0.9535 -0.1943  0.1643
19416SOL     OW65297   9.285   7.591   7.594  0.1498  0.5274 -0.7822
19416SOL    HW165298   9.376   7.615   7.577  0.2600 -1.1678 -3.0440
19416SOL    HW265299   9.255   7.550   7.513 -2.9515  1.8547 -0.4803
19417SOL     OW65300   6.104   2.318  10.938 -0.4737  0.2628  0.1910
19417SOL    HW165301   6.019   2.283  10.913 -0.0268 -0.1804 -0.7446
19417SOL    HW265302   6.165   2.245  10.923  0.0471  0.5045  1.0467
19418SOL     OW65303   5.762   9.491   3.514 -0.5705  0.4223 -0.0244
19418SOL    HW165304   5.796   9.409   3.551 -1.6176  0.8062  1.9432
19418SOL    HW265305   5.753   9.473   3.420 -0.9866 -1.8184  0.3689
19419SOL     OW65306   4.546   5.855   5.297  0.0164  0.1545  0.1442
19419SOL    HW165307   4.637   5.871   5.273 -0.0667 -0.4802 -0.6369
19419SOL    HW265308   4.515   5.790   5.234 -0.9439  0.2680  0.4709
19420SOL     OW65309  10.933   1.410   3.118  0.4671  0.1448  0.4580
19420SOL    HW165310  10.964   1.340   3.061  1.0272  1.7262 -1.2791
19420SOL    HW265311  10.993   1.410   3.192 -0.8765 -2.6234  1.7232
19421SOL     OW65312   2.393   5.030   2.212  0.1214 -0.1834 -0.1928
19421SOL    HW165313   2.376   4.963   2.279  0.3074  0.6014  0.6714
19421SOL    HW265314   2.389   4.983   2.129  0.3269 -1.2781  0.3949
19422SOL     OW65315  10.861   5.430  11.131  0.0373 -0.1352 -0.7612
19422SOL    HW165316  10.787   5.387  11.089  0.1632 -2.3226  1.0610
19422SOL    HW265317  10.855   5.404  11.223  1.7572  1.5475 -0.1026
19423SOL     OW65318  11.690   7.290   0.653  0.5441 -0.1901 -0.8761
19423SOL    HW165319  11.722   7.379   0.645  1.8030 -0.6698 -1.5703
19423SOL    HW265320  11.759   7.243   0.700 -0.6225 -0.5609  0.5553
19424SOL     OW65321   8.572   2.255   3.110 -0.2226  0.0665 -0.2617
19424SOL    HW165322   8.479   2.263   3.088  0.4877  0.6781 -3.4755
19424SOL    HW265323   8.585   2.319   3.181 -2.1150  0.3115 -0.0739
19425SOL     OW65324   3.716   5.125   9.321  0.2928  0.3728  0.1535
19425SOL    HW165325   3.735   5.131   9.415 -0.9863 -0.4372  0.4874
19425SOL    HW265326   3.771   5.053   9.290  0.5050  0.4529  0.3348
19426SOL     OW65327   6.152   8.842   3.256 -0.1398 -0.0829  0.1804
19426SOL    HW165328   6.233   8.826   3.207 -0.0152  0.4547  0.2011
19426SOL    HW265329   6.139   8.762   3.307 -1.3291 -1.5108 -2.1531
19427SOL     OW65330   6.982  10.587   2.386 -0.4492 -0.7497  0.4540
19427SOL    HW165331   7.058  10.530   2.395 -1.8456 -2.2961  5.4877
19427SOL    HW265332   6.921  10.537   2.332  0.4102 -1.5494  0.2001
19428SOL     OW65333   3.606   3.669   0.555  0.1488  0.2733  0.1379
19428SOL    HW165334   3.574   3.580   0.566 -1.5378  0.3661 -2.8368
19428SOL    HW265335   3.528   3.724   0.565  0.6916  1.1941 -0.4981
19429SOL     OW65336   5.955   1.156   1.305 -0.5392 -0.3744 -0.1862
19429SOL    HW165337   5.962   1.063   1.282  0.9381  0.2478 -2.6702
19429SOL    HW265338   5.873   1.185   1.264 -0.9021 -0.5298  0.4236
19430SOL     OW65339  10.280   5.508   7.187 -0.3668  0.3349  0.8789
19430SOL    HW165340  10.296   5.472   7.274 -0.3338 -0.6016  0.4938
19430SOL    HW265341  10.186   5.498   7.173 -0.5648  1.5357  1.2557
19431SOL     OW65342   8.984  11.248  11.756  0.7687 -0.3338  0.4378
19431SOL    HW165343   9.040  11.175  11.782  0.6681  0.1154  2.0121
19431SOL    HW265344   9.037  11.326  11.772 -0.3775  0.1176  2.2970
19432SOL     OW65345   0.760   6.492   3.575 -0.0067  0.1981 -0.1919
19432SOL    HW165346   0.674   6.455   3.556  1.0642 -2.2701 -0.6012
19432SOL    HW265347   0.766   6.569   3.518 -1.1687 -0.7171 -1.6351
19433SOL     OW65348  11.388  12.061   5.899 -0.0792  0.0945  0.7257
19433SOL    HW165349  11.417  11.980   5.942  1.7569  0.7652  0.8136
19433SOL    HW265350  11.333  12.104   5.964 -0.7335 -0.8589  0.8317
19434SOL     OW65351   4.456   1.758   3.844 -0.0770 -0.1061 -0.5108
19434SOL    HW165352   4.479   1.724   3.931  0.3373  0.2483 -0.4798
19434SOL    HW265353   4.410   1.840   3.863 -0.2445 -0.1752 -0.6178
19435SOL     OW65354   8.749   0.033  10.066 -0.4720  0.1940  0.4789
19435SOL    HW165355   8.738  -0.025  10.141  0.2775 -0.2910  0.2244
19435SOL    HW265356   8.780   0.116  10.105  1.9779 -0.6792  0.5925
19436SOL     OW65357   1.630   5.222   7.210 -0.4011  0.1208  0.5316
19436SOL    HW165358   1.540   5.213   7.243  0.3709 -1.8331  2.3361
19436SOL    HW265359   1.622   5.212   7.116 -2.2289  1.5621  0.4665
19437SOL     OW65360   7.837   0.841  10.077  0.1145  0.0673  0.0395
19437SOL    HW165361   7.840   0.925  10.032 -0.9469  1.3239  2.1312
19437SOL    HW265362   7.922   0.800  10.059  0.2982  1.1620 -1.7532
19438SOL     OW65363   2.401   7.995   5.792  0.2980  0.0991  0.1915
19438SOL    HW165364   2.368   7.916   5.749 -0.7446 -1.4644  3.5652
19438SOL    HW265365   2.324   8.051   5.803  0.7349  0.9103 -0.7556
19439SOL     OW65366   9.718   8.888   5.659 -0.7641  0.2080 -0.3850
19439SOL    HW165367   9.697   8.844   5.577 -1.3440 -1.8776  0.8101
19439SOL    HW265368   9.771   8.825   5.708  2.2088  2.5401 -0.2984
19440SOL     OW65369   9.679   4.829   0.573  0.0853 -0.5599 -0.5165
19440SOL    HW165370   9.634   4.813   0.490 -1.1091 -1.1050  0.2114
19440SOL    HW265371   9.752   4.768   0.574  1.6112  1.0806 -2.2131
19441SOL     OW65372   3.151   0.536   3.432 -0.4961 -0.6956 -0.1895
19441SOL    HW165373   3.126   0.615   3.480  0.8416  0.1276 -0.7630
19441SOL    HW265374   3.079   0.475   3.446 -1.1226  0.2835  1.0661
19442SOL     OW65375   3.722   1.348  11.194  0.3402  0.1816 -0.2095
19442SOL    HW165376   3.646   1.310  11.238 -0.0741  0.6664 -0.4978
19442SOL    HW265377   3.777   1.272  11.172  0.3522 -0.1009  0.7398
19443SOL     OW65378  11.314   1.881   5.464 -0.9410  0.9879 -0.1969
19443SOL    HW165379  11.292   1.789   5.453  2.2746 -0.1736  2.0107
19443SOL    HW265380  11.277   1.905   5.549 -0.6858  1.3675 -0.1893
19444SOL     OW65381   3.000  10.362   3.241  0.1902  0.4077  0.0224
19444SOL    HW165382   2.941  10.415   3.295 -0.8562 -0.7545  0.0598
19444SOL    HW265383   3.072  10.339   3.300  0.9500  2.1927 -0.1424
19445SOL     OW65384   8.129   0.615  12.514  0.0011  0.4441 -0.0975
19445SOL    HW165385   8.060   0.580  12.458 -1.8822  1.2255  1.6121
19445SOL    HW265386   8.104   0.588  12.602  0.5521  2.7634  0.8446
19446SOL     OW65387   4.986  10.871   8.011 -0.0143 -0.3598  0.9115
19446SOL    HW165388   4.988  10.883   7.916 -0.9980  2.9596  1.1678
19446SOL    HW265389   5.075  10.890   8.040  0.9915 -3.9585  0.5586
19447SOL     OW65390   3.149   4.799  11.236  0.7918  0.6126  0.3454
19447SOL    HW165391   3.094   4.822  11.311  1.3462 -0.0410  0.9651
19447SOL    HW265392   3.096   4.822  11.159 -0.3106  0.0613  0.9214
19448SOL     OW65393   4.703   0.197   5.556  0.3588 -0.2307 -0.0591
19448SOL    HW165394   4.772   0.186   5.622 -0.1867 -2.0541  0.2498
19448SOL    HW265395   4.750   0.204   5.473  0.9518 -0.3683  0.2633
19449SOL     OW65396   0.431   8.147   8.477 -0.0832 -0.2697  0.1683
19449SOL    HW165397   0.356   8.128   8.533  0.7137 -2.1116  0.6727
19449SOL    HW265398   0.504   8.098   8.515  1.1912  0.7375 -0.8244
19450SOL     OW65399   5.093   1.788   1.030  0.1610  0.1186  0.0222
19450SOL    HW165400   5.135   1.703   1.040 -0.7714 -0.2716  0.7676
19450SOL    HW265401   4.999   1.769   1.035 -0.0425  1.3482  1.5243
19451SOL     OW65402   0.665   3.364   6.954 -0.5750 -0.0508 -0.6855
19451SOL    HW165403   0.759   3.349   6.958 -0.6851 -0.9990 -1.3224
19451SOL    HW265404   0.657   3.456   6.930  0.1998 -0.0360 -0.9248
19452SOL     OW65405   7.721   6.854   8.561 -0.0397  0.4780 -0.2945
19452SOL    HW165406   7.674   6.786   8.512  1.3027  0.5297 -1.7561
19452SOL    HW265407   7.762   6.908   8.493  2.2148  0.3603  0.8836
19453SOL     OW65408  11.546   7.502   2.204 -0.2635 -0.2898 -0.1716
19453SOL    HW165409  11.566   7.557   2.280  0.9481 -1.4802  0.4212
19453SOL    HW265410  11.506   7.561   2.141  1.4012  1.3807  0.2484
19454SOL     OW65411   7.342   5.867   9.625  0.0027  0.1998  0.0285
19454SOL    HW165412   7.359   5.864   9.719 -0.3453 -2.0112  0.0680
19454SOL    HW265413   7.428   5.886   9.586  0.1509  1.1142  0.7658
19455SOL     OW65414   8.913   0.881  10.996  0.3560  0.1766  0.0717
19455SOL    HW165415   9.002   0.847  10.994  0.5825  0.6423  1.4610
19455SOL    HW265416   8.921   0.970  11.030 -0.5797  0.4516 -0.3747
19456SOL     OW65417   0.027   7.290   3.450  0.7904 -0.1944  0.3284
19456SOL    HW165418  -0.061   7.306   3.415  0.5845 -0.2412  0.8087
19456SOL    HW265419   0.086   7.320   3.381  0.3976  0.0311  0.0846
19457SOL     OW65420  10.673   7.718   8.886  0.0681  0.8782 -0.4519
19457SOL    HW165421  10.747   7.657   8.890 -0.8099 -0.1743  0.0550
19457SOL    HW265422  10.635   7.717   8.973 -1.6354  0.0047 -1.1608
19458SOL     OW65423   2.742   4.559   5.608  0.1890  0.2523  0.0836
19458SOL    HW165424   2.809   4.491   5.607 -1.0050 -0.9577 -1.2020
19458SOL    HW265425   2.717   4.567   5.700  0.5581 -0.8253  0.2889
19459SOL     OW65426   6.691   9.987   1.195 -0.3526  0.1331 -0.9641
19459SOL    HW165427   6.740   9.947   1.123  0.7838 -1.5024  0.6067
19459SOL    HW265428   6.601   9.959   1.182  0.2382 -2.1371 -0.5135
19460SOL     OW65429  12.082   0.077   2.510 -0.4995 -0.3266 -0.2729
19460SOL    HW165430  12.086   0.030   2.593  0.3071 -1.1389 -0.7481
19460SOL    HW265431  12.010   0.036   2.462  0.8926 -1.9148 -1.1314
19461SOL     OW65432   1.665   3.296   2.630 -0.2329 -0.1471  0.6389
19461SOL    HW165433   1.696   3.373   2.583  1.5246 -2.0089 -1.4421
19461SOL    HW265434   1.569   3.301   2.625 -0.1159  1.0732 -0.8770
19462SOL     OW65435   7.710   0.115  10.803 -0.1841 -0.5826 -0.3404
19462SOL    HW165436   7.620   0.082  10.808 -0.6540  0.6425 -0.4044
19462SOL    HW265437   7.755   0.075  10.877 -1.0922 -0.2883  0.3815
19463SOL     OW65438   1.673   8.396   4.104  0.2286  0.0725  0.1345
19463SOL    HW165439   1.694   8.376   4.195 -1.7221 -1.0634  0.3873
19463SOL    HW265440   1.606   8.464   4.110  1.0299  0.9649 -0.5356
19464SOL     OW65441   0.735  10.288   4.005  0.4755  0.0674 -0.5690
19464SOL    HW165442   0.790  10.261   3.931 -0.7383  0.7656 -1.7843
19464SOL    HW265443   0.762  10.378   4.023  1.2503 -0.3293  0.3322
19465SOL     OW65444  11.892   6.327  11.859  0.8057  0.4176 -0.4828
19465SOL    HW165445  11.824   6.260  11.867  0.9678  0.2205 -0.7645
19465SOL    HW265446  11.965   6.292  11.910  1.8516 -0.8540 -2.7378
19466SOL     OW65447   4.175   2.292   9.822 -0.0739 -1.0290 -0.1183
19466SOL    HW165448   4.109   2.274   9.889 -1.1332 -0.3013 -0.9320
19466SOL    HW265449   4.153   2.233   9.750  0.1402 -0.7467 -0.4167
19467SOL     OW65450   7.638   0.566   5.077  0.9918  0.1991 -0.5039
19467SOL    HW165451   7.729   0.543   5.056  1.7773  2.9555 -0.4754
19467SOL    HW265452   7.645   0.631   5.147 -1.0982 -0.4206  0.3566
19468SOL     OW65453  11.513  10.019  11.143 -0.1351 -0.5163 -0.0702
19468SOL    HW165454  11.499   9.930  11.173  2.2682 -0.8367  0.2894
19468SOL    HW265455  11.456  10.073  11.199 -0.1684 -1.6457  1.0114
19469SOL     OW65456   6.116   8.927   1.361  0.0622  0.4286  0.2093
19469SOL    HW165457   6.130   9.022   1.361  1.0783  0.3124  1.6509
19469SOL    HW265458   6.176   8.894   1.429 -1.5497 -1.0529  0.9765
19470SOL     OW65459   3.107   9.882   0.148  0.0015 -0.2916  0.1738
19470SOL    HW165460   3.035   9.911   0.092  0.9837 -1.0480 -1.5445
19470SOL    HW265461   3.071   9.807   0.196 -0.1296 -1.2229 -1.3227
19471SOL     OW65462   0.467   2.891   6.154  0.5680  0.0067 -0.1030
19471SOL    HW165463   0.526   2.936   6.215 -0.3474  1.6544 -0.3662
19471SOL    HW265464   0.414   2.834   6.209 -1.0353  2.3093  0.9226
19472SOL     OW65465   0.521   4.170   6.475  0.0659  0.1522  0.1906
19472SOL    HW165466   0.463   4.219   6.418 -0.7707  0.4764  1.2983
19472SOL    HW265467   0.528   4.223   6.554  2.3737  0.4400 -0.1187
19473SOL     OW65468   2.341   8.255   5.600 -0.2386  0.0791  0.0825
19473SOL    HW165469   2.306   8.170   5.575  2.0327 -0.7017 -0.6789
19473SOL    HW265470   2.311   8.268   5.690 -2.5554 -0.3966 -0.5725
19474SOL     OW65471   0.170   9.631   3.579 -0.7749  0.1093 -0.9516
19474SOL    HW165472   0.221   9.692   3.525  0.3122 -0.0564 -0.1493
19474SOL    HW265473   0.159   9.677   3.662  1.2781 -1.2586  0.1786
19475SOL     OW65474   1.045   2.614   8.760 -0.4650  0.1049  0.0890
19475SOL    HW165475   0.966   2.644   8.716 -0.1458  0.3226 -0.3468
19475SOL    HW265476   1.035   2.519   8.766 -1.0888  0.1992  0.7004
19476SOL     OW65477   2.891  10.588   1.143  0.3092 -0.3767 -0.4827
19476SOL    HW165478   2.819  10.608   1.202  0.2730 -0.7807 -0.3871
19476SOL    HW265479   2.948  10.530   1.193 -0.2951 -1.6510 -1.2137
19477SOL     OW65480   2.102   7.698   7.077  0.3829  0.0768 -0.2853
19477SOL    HW165481   2.084   7.719   7.168  0.5328 -1.2898  0.0831
19477SOL    HW265482   2.017   7.706   7.033 -0.1494 -1.2872  0.4166
19478SOL     OW65483   6.762   0.726   7.102 -0.2418 -0.5918  0.0456
19478SOL    HW165484   6.821   0.663   7.145  0.2540 -0.4875 -0.4635
19478SOL    HW265485   6.693   0.672   7.063 -0.3198 -0.7422  0.3861
19479SOL     OW65486  11.534   9.387   8.056  0.4967 -0.1651  0.0405
19479SOL    HW165487  11.448   9.421   8.082  0.2655 -1.3821  0.9739
19479SOL    HW265488  11.593   9.418   8.124  0.5541 -0.4080  0.1012
19480SOL     OW65489   4.631   9.211   4.551  0.0365  0.6837  0.8029
19480SOL    HW165490   4.615   9.126   4.593  0.4352 -0.3438 -1.0238
19480SOL    HW265491   4.590   9.274   4.610  0.1371 -0.7117  2.4656
19481SOL     OW65492   0.841   0.249   5.785 -0.3959 -0.3271 -0.2995
19481SOL    HW165493   0.845   0.171   5.840  0.1103  1.0667  1.7484
19481SOL    HW265494   0.766   0.234   5.728 -1.1633 -1.7043  1.0000
19482SOL     OW65495   3.451   2.277   1.088 -0.1796 -0.0134 -0.0973
19482SOL    HW165496   3.429   2.297   0.997  1.1626 -1.2209 -0.7039
19482SOL    HW265497   3.546   2.287   1.093 -0.0745 -1.2681  0.8237
19483SOL     OW65498   0.195   4.462   7.426  0.2690 -0.3585 -0.5569
19483SOL    HW165499   0.270   4.462   7.367  0.3568 -0.3242 -0.4438
19483SOL    HW265500   0.195   4.549   7.465  0.0127 -0.2662 -0.7581
19484SOL     OW65501   9.829   7.674   8.621 -0.5691 -0.7061 -0.5747
19484SOL    HW165502   9.755   7.732   8.639  0.5449  0.3363  1.0221
19484SOL    HW265503   9.826   7.608   8.691 -1.3963 -2.1920 -1.9528
19485SOL     OW65504   3.695   6.317  11.830 -0.3741  0.2212  0.2226
19485SOL    HW165505   3.783   6.324  11.865 -0.1161 -1.0682 -0.0938
19485SOL    HW265506   3.645   6.384  11.875  0.7784  0.9994  0.3682
19486SOL     OW65507   9.786   3.883   1.155  0.1104  0.1174  0.3874
19486SOL    HW165508   9.789   3.970   1.116  0.4418 -0.4299 -0.8498
19486SOL    HW265509   9.867   3.877   1.207 -0.4565  0.9376  1.4119
19487SOL     OW65510  10.980   9.446   0.665 -0.1792  0.5634 -0.6694
19487SOL    HW165511  10.958   9.375   0.725  2.3646 -0.6436 -0.9888
19487SOL    HW265512  11.013   9.516   0.721 -0.3897  0.5271 -0.4997
19488SOL     OW65513  12.013   4.192   7.814  0.2699 -0.1801  0.0006
19488SOL    HW165514  11.944   4.222   7.755 -2.0411 -0.5764  2.3725
19488SOL    HW265515  12.027   4.265   7.874 -0.4697 -1.2581  1.5407
19489SOL     OW65516   9.843  10.627   2.211 -0.1473  0.0987 -0.8587
19489SOL    HW165517   9.867  10.539   2.242 -1.5897  0.1389  0.4836
19489SOL    HW265518   9.869  10.627   2.119  0.9886 -1.3048 -0.5883
19490SOL     OW65519   9.787   4.443   4.425 -0.5388  0.2788 -0.1359
19490SOL    HW165520   9.730   4.384   4.474 -0.2113 -0.2946 -0.4413
19490SOL    HW265521   9.801   4.400   4.341  1.6552 -0.4097  0.5025
19491SOL     OW65522  11.785   9.945   1.839 -0.5658 -0.4562 -0.5768
19491SOL    HW165523  11.702   9.960   1.793 -1.1472 -0.8031  0.3470
19491SOL    HW265524  11.760   9.906   1.922  0.4640  0.3523  0.1430
19492SOL     OW65525  11.006   0.696  10.608  0.0595  0.2462 -0.2578
19492SOL    HW165526  11.027   0.773  10.660 -2.1017  1.2295 -0.6983
19492SOL    HW265527  10.990   0.731  10.520 -3.0884 -0.2689 -0.0101
19493SOL     OW65528   5.612   5.785   3.724  0.0603  0.1828 -0.0131
19493SOL    HW165529   5.522   5.805   3.751 -0.4022 -0.5990 -0.9079
19493SOL    HW265530   5.616   5.689   3.725  1.3854  0.2027  1.5599
19494SOL     OW65531   9.027   7.474   8.194 -0.1372  0.4027  0.1266
19494SOL    HW165532   9.004   7.459   8.102  1.0160 -1.3186  0.0730
19494SOL    HW265533   9.019   7.569   8.206 -0.8097  0.5946 -1.5998
19495SOL     OW65534   8.470   9.501   3.458  0.1938  0.2054 -0.4060
19495SOL    HW165535   8.504   9.461   3.538 -0.4646 -0.6153 -0.5324
19495SOL    HW265536   8.536   9.567   3.435  0.1369  0.8404  1.1056
19496SOL     OW65537  12.373   0.705   6.471  0.2538 -0.9095  0.1805
19496SOL    HW165538  12.373   0.715   6.567 -1.7351  0.4095  0.1017
19496SOL    HW265539  12.302   0.644   6.453 -0.5931  0.2237 -0.5105
19497SOL     OW65540   3.391   9.814   2.049  0.0257 -0.2135  0.2557
19497SOL    HW165541   3.334   9.871   2.100 -0.6482 -0.7432  0.1093
19497SOL    HW265542   3.371   9.726   2.080  2.4032 -0.3007  1.8308
19498SOL     OW65543  12.107   3.837   6.390  0.0734 -0.0138 -0.4875
19498SOL    HW165544  12.084   3.875   6.475 -0.4344 -1.9866  0.3054
19498SOL    HW265545  12.183   3.888   6.361 -0.3777  1.3684  0.6471
19499SOL     OW65546   7.223   6.431   6.690  0.2480  0.5116 -0.5685
19499SOL    HW165547   7.306   6.408   6.648 -0.0230  0.4031 -1.0466
19499SOL    HW265548   7.243   6.507   6.745  1.1943 -0.8698  1.1094
19500SOL     OW65549   5.209  11.640   5.968  0.7767 -0.0488 -0.0993
19500SOL    HW165550   5.130  11.674   6.009  1.3102 -1.6471  2.4296
19500SOL    HW265551   5.280  11.692   6.005  1.1821 -0.8441  0.2669
19501SOL     OW65552   1.614  11.647   7.471 -0.1337 -0.2017 -0.3399
19501SOL    HW165553   1.689  11.706   7.471  0.1426 -0.5408 -0.8519
19501SOL    HW265554   1.544  11.696   7.427  0.0422 -0.1842 -0.6059
19502SOL     OW65555   5.197   0.374   1.381 -0.4839 -0.0616  0.2349
19502SOL    HW165556   5.234   0.339   1.462 -1.5043 -0.6355  0.4680
19502SOL    HW265557   5.132   0.438   1.411 -1.2072 -0.6270 -0.1163
19503SOL     OW65558   9.684   8.524   0.437 -0.0093  0.6511 -0.8679
19503SOL    HW165559   9.652   8.487   0.354 -0.6595 -0.9427  0.0510
19503SOL    HW265560   9.702   8.448   0.492 -0.8869  1.6878  0.9381
19504SOL     OW65561   2.647   7.628  11.784  0.4942  0.5592 -0.1678
19504SOL    HW165562   2.660   7.534  11.775 -0.2007  0.3062  1.2053
19504SOL    HW265563   2.674   7.648  11.874  2.5602  2.0536 -1.0398
19505SOL     OW65564   5.151   0.313   3.090  0.9302 -0.0830 -0.0389
19505SOL    HW165565   5.246   0.305   3.098  0.7985 -0.5804  1.2427
19505SOL    HW265566   5.119   0.315   3.180 -0.2463  0.5777 -0.4471
19506SOL     OW65567   9.712   7.544  11.026 -0.1769  0.3904  0.1343
19506SOL    HW165568   9.644   7.529  10.960 -0.3176 -0.3864  0.4480
19506SOL    HW265569   9.770   7.468  11.019  0.9974  1.3095 -0.5220
19507SOL     OW65570  11.539   0.019   0.334  0.4835 -0.4965  0.0286
19507SOL    HW165571  11.595   0.089   0.367  0.5343 -0.7539  0.4937
19507SOL    HW265572  11.567  -0.059   0.382 -1.2884 -0.3447  1.4039
19508SOL     OW65573   3.557  12.437  10.035  0.2314 -0.4751  0.2187
19508SOL    HW165574   3.600  12.479   9.961  0.1283  1.1721  1.0453
19508SOL    HW265575   3.468  12.418  10.004  0.2892 -0.1022 -0.1839
19509SOL     OW65576   2.691   4.714  11.870  0.5715  0.5267 -0.1877
19509SOL    HW165577   2.599   4.691  11.863 -0.1459  2.5215  1.5775
19509SOL    HW265578   2.717   4.682  11.956  1.0041  1.4781  0.0554
19510SOL     OW65579   6.084   3.046   9.511  0.4095 -0.7249  0.1115
19510SOL    HW165580   6.049   3.068   9.424 -1.3152  0.4743  1.0493
19510SOL    HW265581   6.142   3.119   9.533 -1.2752  0.3919  1.0533
19511SOL     OW65582   9.138  12.037   3.201  0.2933 -0.4601  0.0147
19511SOL    HW165583   9.130  12.104   3.268  0.8642 -0.0058 -0.3645
19511SOL    HW265584   9.099  12.077   3.123  0.5894 -0.5854 -0.1988
19512SOL     OW65585   1.122  10.551  11.888  0.8698 -0.0409  0.0268
19512SOL    HW165586   1.140  10.487  11.819 -0.3253  0.6182 -0.9311
19512SOL    HW265587   1.183  10.623  11.872  1.2412 -0.3050  0.2430
19513SOL     OW65588  12.185  12.390   9.440  0.4209  0.0345 -0.1598
19513SOL    HW165589  12.139  12.445   9.503 -0.2222  0.2190 -0.7694
19513SOL    HW265590  12.191  12.304   9.483  0.4333  0.2856  0.3433
19514SOL     OW65591   2.483   7.599   4.171  0.3015 -0.5165  0.1625
19514SOL    HW165592   2.516   7.552   4.094 -2.1192 -2.0836 -0.0286
19514SOL    HW265593   2.430   7.670   4.135  1.2170  0.3302  0.4430
19515SOL     OW65594  11.958  10.933  10.472  0.3081 -0.2166 -0.4807
19515SOL    HW165595  12.008  11.001  10.518  1.8780 -1.2928 -0.5326
19515SOL    HW265596  11.867  10.964  10.475  0.8278  1.3181  0.4869
19516SOL     OW65597   2.537   2.699  11.801 -0.4094 -0.4065  0.1591
19516SOL    HW165598   2.573   2.662  11.882 -0.5279 -2.2320 -0.5909
19516SOL    HW265599   2.476   2.767  11.831  2.0452  1.3693  1.4964
19517SOL     OW65600  12.088   9.730   7.232 -0.1427  0.1453  0.4668
19517SOL    HW165601  12.122   9.641   7.238  0.3572  0.0910 -1.9642
19517SOL    HW265602  11.996   9.722   7.255  0.4592 -0.4660  2.9569
19518SOL     OW65603   6.727  11.182   1.224  0.0411 -0.0896 -0.1030
19518SOL    HW165604   6.678  11.263   1.236  1.8272  1.1568 -0.8744
19518SOL    HW265605   6.785  11.199   1.150  0.9948 -1.8091  0.1904
19519SOL     OW65606   8.475   0.071   4.060  0.3449 -0.0479  0.1757
19519SOL    HW165607   8.445   0.026   3.981  0.3298 -0.4089  0.3857
19519SOL    HW265608   8.406   0.053   4.124  0.0867  0.7007  0.1126
19520SOL     OW65609   4.002   1.571   2.973 -0.0109 -0.0216 -0.2253
19520SOL    HW165610   4.074   1.544   3.029  0.8231  0.2631 -1.1382
19520SOL    HW265611   3.923   1.552   3.024  0.7277  2.2565  1.9667
19521SOL     OW65612   4.887   3.649  11.605 -0.4755  0.2137  0.2210
19521SOL    HW165613   4.872   3.635  11.512 -1.0552  0.5551  0.2540
19521SOL    HW265614   4.877   3.744  11.617  0.6773  0.3296  0.4504
19522SOL     OW65615   4.698   2.328   3.930  0.3909 -0.6671 -0.5041
19522SOL    HW165616   4.750   2.295   4.004 -0.1474 -1.7319 -0.5823
19522SOL    HW265617   4.666   2.413   3.960  2.1081 -0.0235 -0.4338
19523SOL     OW65618   0.912   9.374   1.223 -0.1149 -0.1260  0.1805
19523SOL    HW165619   0.822   9.404   1.209 -0.4742 -0.5375  1.4501
19523SOL    HW265620   0.959   9.452   1.252 -0.1172  0.0369 -0.2471
19524SOL     OW65621   8.211  10.311   8.438  0.8358  0.5623 -0.2497
19524SOL    HW165622   8.144  10.379   8.433  1.4169  1.1987  0.3624
19524SOL    HW265623   8.240  10.298   8.348 -1.5628 -1.2555 -0.8847
19525SOL     OW65624   8.440  11.588   6.765 -0.2118  0.3851  0.0418
19525SOL    HW165625   8.419  11.551   6.851 -0.7311  0.3565 -0.0930
19525SOL    HW265626   8.536  11.586   6.761 -0.2145 -0.6588  0.1706
19526SOL     OW65627   0.720   1.785   2.611 -0.6274 -0.0448  0.6750
19526SOL    HW165628   0.767   1.786   2.528 -0.8991 -3.7138  0.3217
19526SOL    HW265629   0.763   1.717   2.662 -1.7270  0.7720  2.7914
19527SOL     OW65630   3.011  10.162   2.582  0.1050 -0.3271 -0.0609
19527SOL    HW165631   3.070  10.140   2.654  0.5000  0.0450 -0.2701
19527SOL    HW265632   2.940  10.097   2.589 -0.7435  0.7264  1.6891
19528SOL     OW65633   2.067   0.293   9.359  0.2725  0.6303  1.1667
19528SOL    HW165634   2.072   0.349   9.437 -0.5864  1.2003  0.8306
19528SOL    HW265635   2.062   0.354   9.286  2.4626  0.1205  0.5051
19529SOL     OW65636   7.421   5.284  11.179 -0.1798 -0.2886  0.2111
19529SOL    HW165637   7.408   5.236  11.261 -0.5561 -0.5302  0.0097
19529SOL    HW265638   7.355   5.353  11.182 -1.7544 -1.6873 -0.9458
19530SOL     OW65639  11.686   4.110   2.894 -0.1143  0.2346  0.0667
19530SOL    HW165640  11.714   4.170   2.825 -1.2257  0.2636 -0.3749
19530SOL    HW265641  11.713   4.023   2.861 -0.3217  0.2832 -0.2364
19531SOL     OW65642   8.666   9.528   9.202 -0.2666 -0.2979  0.0924
19531SOL    HW165643   8.582   9.492   9.228 -0.2359 -1.0266 -0.7692
19531SOL    HW265644   8.707   9.459   9.151  0.4486  0.4019 -0.3079
19532SOL     OW65645   0.610  10.363   7.042 -0.3834  0.2092 -0.5797
19532SOL    HW165646   0.555  10.301   7.090  1.6913 -0.6039  0.9166
19532SOL    HW265647   0.624  10.435   7.104  2.1946 -0.7750  0.1481
19533SOL     OW65648   6.859   3.201   5.507  0.3685 -0.5926  0.1240
19533SOL    HW165649   6.774   3.239   5.526  0.8845  1.0239 -0.6766
19533SOL    HW265650   6.914   3.226   5.582  0.8661  0.8159 -0.6792
19534SOL     OW65651  12.062   4.087  11.414 -0.2419  0.1539 -0.1994
19534SOL    HW165652  12.065   4.128  11.327  0.9229  2.2341  0.7272
19534SOL    HW265653  12.000   4.015  11.404 -2.3571  2.0515 -2.0589
19535SOL     OW65654  11.574   2.907   5.860  0.0132 -0.5591 -0.7657
19535SOL    HW165655  11.569   2.829   5.805 -1.3462  0.1259 -1.6916
19535SOL    HW265656  11.523   2.885   5.938 -2.5079  0.1350 -2.0855
19536SOL     OW65657   8.913  11.200   2.514  0.3015 -0.1251  0.7159
19536SOL    HW165658   8.945  11.175   2.428 -0.4821 -0.3678  0.4927
19536SOL    HW265659   8.821  11.222   2.501 -0.5649 -2.6233  1.9091
19537SOL     OW65660   1.159   8.383   3.404 -0.0086  0.2969 -0.0020
19537SOL    HW165661   1.245   8.403   3.442 -1.3997  2.2485  2.4006
19537SOL    HW265662   1.136   8.298   3.441  0.0217  0.7317  1.0517
19538SOL     OW65663   2.091  12.374   4.064  0.1797 -0.4221  0.3001
19538SOL    HW165664   2.020  12.314   4.040  0.1130  0.5466 -2.2658
19538SOL    HW265665   2.165  12.317   4.085  0.0057 -1.4625 -1.6893
19539SOL     OW65666  11.196   7.696   4.232  0.1778  0.0897  0.1039
19539SOL    HW165667  11.112   7.656   4.257 -0.2455  0.9505  0.0726
19539SOL    HW265668  11.174   7.787   4.211  0.8542 -0.0867 -1.4726
19540SOL     OW65669   1.547   3.233   5.951  0.1093 -0.3687  0.3265
19540SOL    HW165670   1.601   3.212   5.875  0.4918  0.5918  0.3249
19540SOL    HW265671   1.471   3.279   5.915 -0.4729 -1.2637  0.3817
19541SOL     OW65672   5.302   3.914   0.044  0.7368 -0.6671  0.1699
19541SOL    HW165673   5.272   3.883  -0.041 -0.9662  0.1840  0.4337
19541SOL    HW265674   5.335   4.002   0.028 -0.8592  0.0359  0.5919
19542SOL     OW65675   6.766   3.491   5.330 -0.9370  0.3297 -0.0987
19542SOL    HW165676   6.739   3.407   5.292  0.5880  0.6264 -1.9880
19542SOL    HW265677   6.858   3.500   5.305 -0.7566  2.0714  1.0259
19543SOL     OW65678   8.549   3.350   1.495  0.4389  0.0716  0.8898
19543SOL    HW165679   8.623   3.311   1.450 -0.3476 -1.4445  0.8372
19543SOL    HW265680   8.535   3.434   1.452  0.5374 -0.7497 -0.8199
19544SOL     OW65681  12.546   1.121   6.506  0.3056  0.2647 -0.4621
19544SOL    HW165682  12.580   1.046   6.457 -2.1788  0.0421 -2.0243
19544SOL    HW265683  12.519   1.085   6.591 -0.4667 -0.5756 -1.0410
19545SOL     OW65684   0.508   6.388   2.874  0.1876  0.0842 -0.1927
19545SOL    HW165685   0.545   6.466   2.832  2.7601 -0.9906 -0.1005
19545SOL    HW265686   0.519   6.318   2.810  0.3374 -0.7453  0.7166
19546SOL     OW65687   5.441   7.313  10.754 -0.0675 -0.0920  0.4739
19546SOL    HW165688   5.420   7.294  10.845 -0.0788 -0.1484  0.4600
19546SOL    HW265689   5.492   7.394  10.757 -1.4292  0.8017  0.4030
19547SOL     OW65690   1.965  11.150   7.015 -0.1190 -0.1286  0.4846
19547SOL    HW165691   2.016  11.101   6.951 -0.1143  0.0738  0.3333
19547SOL    HW265692   1.876  11.148   6.982  0.0195  0.6913  0.0266
19548SOL     OW65693   2.601   2.907   3.776 -0.0780  0.5415 -0.4077
19548SOL    HW165694   2.691   2.879   3.755 -0.1694 -0.7634  0.7822
19548SOL    HW265695   2.607   3.002   3.785  1.5461  0.3432  1.1608
19549SOL     OW65696   2.039   8.601  10.344 -0.0668 -0.0172 -0.0272
19549SOL    HW165697   2.118   8.548  10.330  0.2430  0.0509  1.3283
19549SOL    HW265698   2.043   8.668  10.275  0.9909 -0.0956 -0.0618
19550SOL     OW65699  12.004   6.350   1.632 -0.2116 -0.2778 -0.0420
19550SOL    HW165700  11.960   6.377   1.551  0.0560 -0.3904 -0.2258
19550SOL    HW265701  12.097   6.363   1.614 -0.2273  1.2540  0.8288
19551SOL     OW65702   3.246   5.886   3.054  0.3410  0.6738  0.2996
19551SOL    HW165703   3.203   5.920   2.975 -0.0264 -1.2761 -0.3910
19551SOL    HW265704   3.178   5.834   3.097  1.4617 -1.0497  0.0891
19552SOL     OW65705  10.986   2.176   6.991  0.0570 -0.1665  0.1771
19552SOL    HW165706  10.902   2.144   7.023 -0.3275  1.6594  1.1292
19552SOL    HW265707  10.966   2.263   6.955  1.2343 -0.4479 -1.2282
19553SOL     OW65708   0.206  11.507   6.448  0.0642  0.9144 -0.5957
19553SOL    HW165709   0.184  11.483   6.358 -0.9356 -0.3111 -0.0507
19553SOL    HW265710   0.250  11.429   6.484 -2.4278  0.1026  0.9340
19554SOL     OW65711   1.837   2.483  12.310  0.4705  0.6303 -0.3598
19554SOL    HW165712   1.894   2.460  12.383 -0.4092 -0.6605 -0.0289
19554SOL    HW265713   1.872   2.565  12.276  2.4144 -0.0336 -0.0823
19555SOL     OW65714   5.051   1.354   4.455  0.3880 -0.0458  0.3980
19555SOL    HW165715   5.130   1.409   4.459  0.3914 -0.0483  0.3646
19555SOL    HW265716   4.980   1.413   4.478  0.2108  0.3451 -1.0671
19556SOL     OW65717   1.557   7.989   7.930  0.5141 -0.2361 -0.3532
19556SOL    HW165718   1.536   8.067   7.878 -0.8018 -0.1361  0.2877
19556SOL    HW265719   1.652   7.989   7.935  0.7189 -0.3692 -2.9211
19557SOL     OW65720  11.798   3.159   4.424  0.0671  0.4413 -0.4768
19557SOL    HW165721  11.714   3.139   4.464  0.0707 -0.4771 -0.9045
19557SOL    HW265722  11.862   3.114   4.479  0.0814 -0.7228 -1.4067
19558SOL     OW65723   2.977   6.430   2.506 -0.2517  0.2779  0.5964
19558SOL    HW165724   3.055   6.384   2.537  0.5694 -0.2421 -2.0282
19558SOL    HW265725   2.978   6.512   2.555  1.0379 -0.3838  1.7762
19559SOL     OW65726   6.284   1.866   6.091  0.7625 -0.4726 -0.1700
19559SOL    HW165727   6.296   1.855   5.996  0.5777  1.1156 -0.4062
19559SOL    HW265728   6.372   1.862   6.127  1.0838  1.0134 -0.6923
19560SOL     OW65729   4.583  11.497   6.941  0.0730 -0.6221 -0.3691
19560SOL    HW165730   4.537  11.442   6.878 -2.1304  0.3936  0.2346
19560SOL    HW265731   4.547  11.585   6.927  1.2647  0.0786  0.7070
19561SOL     OW65732   3.543   0.593   8.356 -0.3313  0.3850  0.1803
19561SOL    HW165733   3.448   0.587   8.365 -0.3538  0.8125  0.2676
19561SOL    HW265734   3.565   0.681   8.389  0.2384 -0.1828  1.3821
19562SOL     OW65735   8.205  12.538  11.435 -0.1504  0.1356 -0.0233
19562SOL    HW165736   8.155  12.483  11.374 -0.7970 -0.5663  1.1111
19562SOL    HW265737   8.148  12.547  11.511  1.9649 -1.9466  1.9648
19563SOL     OW65738   5.960   4.591   5.499  0.7060  0.0118 -0.3132
19563SOL    HW165739   6.024   4.522   5.479  1.7849  0.1495  2.3394
19563SOL    HW265740   6.009   4.673   5.490  1.1106  0.1060  2.0037
19564SOL     OW65741   6.567   3.704   6.932  0.6199 -0.6055  0.1909
19564SOL    HW165742   6.599   3.710   6.842 -0.5660 -0.9379 -0.2761
19564SOL    HW265743   6.495   3.767   6.935  1.7371  0.6569  1.4146
19565SOL     OW65744   6.758   1.009   6.653 -0.1466 -0.3981  0.0941
19565SOL    HW165745   6.692   1.063   6.697  1.1450  1.1025  0.2764
19565SOL    HW265746   6.756   0.926   6.700 -0.1679  0.4942  1.7554
19566SOL     OW65747   1.439   4.406   0.399  0.0029  0.7022 -0.0871
19566SOL    HW165748   1.520   4.365   0.429  0.6511  1.4542 -0.7558
19566SOL    HW265749   1.384   4.410   0.478  0.8278  0.6835  0.5034
19567SOL     OW65750   6.381   5.195   1.936  0.1354 -0.0486  0.4140
19567SOL    HW165751   6.375   5.291   1.938 -0.5634 -0.0893  1.9604
19567SOL    HW265752   6.371   5.169   2.027 -0.0663 -1.6297 -0.0322
19568SOL     OW65753  12.074   9.839   6.856 -1.2033  0.3163 -0.6016
19568SOL    HW165754  12.147   9.780   6.838 -2.5335 -1.6939  0.2853
19568SOL    HW265755  12.106   9.896   6.926 -0.8750 -1.4354  0.7561
19569SOL     OW65756   9.344   5.602   9.187  0.6770  0.4320  0.2896
19569SOL    HW165757   9.438   5.583   9.181  0.2568 -1.3089 -2.4655
19569SOL    HW265758   9.337   5.694   9.161  1.6009  0.6863  0.8550
19570SOL     OW65759   8.304   8.997   8.426 -0.5520  0.6358 -0.9126
19570SOL    HW165760   8.209   8.991   8.415 -0.6126 -1.5095  0.4125
19570SOL    HW265761   8.322   8.954   8.509  1.6222  0.7623 -1.2592
19571SOL     OW65762  10.876  11.812   4.588 -0.1142  0.5579 -0.4788
19571SOL    HW165763  10.936  11.884   4.566  0.9159 -0.7022 -2.0223
19571SOL    HW265764  10.875  11.757   4.509  0.2521 -1.8702  1.1076
19572SOL     OW65765   2.177  10.204   8.762 -0.0033  0.0935  0.4419
19572SOL    HW165766   2.230  10.203   8.842  0.6762 -0.8820 -0.0000
19572SOL    HW265767   2.087  10.207   8.794  0.1356 -2.5530  1.3633
19573SOL     OW65768   7.842   7.036   8.393  0.4050  0.3170 -0.3654
19573SOL    HW165769   7.888   6.992   8.321 -1.0640 -0.6063 -0.7746
19573SOL    HW265770   7.824   7.124   8.359 -1.0355 -0.3752 -1.5177
19574SOL     OW65771   2.239  10.421   9.797  0.2908 -0.2959 -0.3730
19574SOL    HW165772   2.281  10.337   9.819 -0.6335 -0.9372 -0.9763
19574SOL    HW265773   2.256  10.477   9.873 -0.1352 -1.4357  0.6005
19575SOL     OW65774   1.936   7.314   8.821  0.0119  0.4948  0.1565
19575SOL    HW165775   1.970   7.319   8.732  0.0271  0.4690  0.1604
19575SOL    HW265776   1.993   7.372   8.871  1.9639 -1.7575  0.7443
19576SOL     OW65777   8.489   9.471   4.570  0.1220  0.1512 -0.0229
19576SOL    HW165778   8.401   9.508   4.574  0.0501 -0.1089  2.4245
19576SOL    HW265779   8.480   9.385   4.611  1.7073  0.5825  1.3022
19577SOL     OW65780   1.146   3.782   3.763  0.2921 -0.3830  0.6548
19577SOL    HW165781   1.174   3.873   3.749  1.4553 -0.5383  1.8519
19577SOL    HW265782   1.057   3.780   3.728  0.7398  0.8521 -0.6940
19578SOL     OW65783   0.918  12.460   4.581  0.5300 -0.6150  0.2729
19578SOL    HW165784   0.861  12.510   4.523  0.0291 -1.5176 -0.0342
19578SOL    HW265785   0.914  12.370   4.548  2.1693 -0.7073  0.2157
19579SOL     OW65786   4.532   9.090  11.644 -0.1808  0.0356 -0.2783
19579SOL    HW165787   4.598   9.107  11.712 -0.4777  1.0147 -0.2329
19579SOL    HW265788   4.461   9.046  11.691 -0.8575  1.6748  0.2820
19580SOL     OW65789  12.484   4.767   9.217  0.3777  0.5442 -0.1654
19580SOL    HW165790  12.484   4.677   9.183  2.3623  1.3138 -2.5131
19580SOL    HW265791  12.394   4.783   9.242  0.1894 -2.5596  1.7571
19581SOL     OW65792   5.180   3.345  12.317  0.0745 -0.7230 -0.1558
19581SOL    HW165793   5.252   3.297  12.358  1.3295  1.2799  0.1756
19581SOL    HW265794   5.215   3.434  12.306 -1.6714 -0.1817 -1.8434
19582SOL     OW65795   9.274   5.099   0.629  0.6618  0.1375  0.1013
19582SOL    HW165796   9.308   5.046   0.702 -0.6582  0.8610  1.2960
19582SOL    HW265797   9.185   5.121   0.656  0.6121  1.5404 -1.1435
19583SOL     OW65798   0.584   6.810   5.492 -0.3245  0.6302  0.5199
19583SOL    HW165799   0.626   6.875   5.548  0.0384 -0.4705  1.5728
19583SOL    HW265800   0.585   6.848   5.405 -0.2522  2.0852  1.1385
19584SOL     OW65801   2.546  10.874   8.919 -0.1874  0.2129 -0.0884
19584SOL    HW165802   2.577  10.785   8.901  0.0406  0.4329 -0.8120
19584SOL    HW265803   2.552  10.883   9.014 -0.4078 -0.6133  0.0140
19585SOL     OW65804   0.678   6.835  12.479 -0.3887 -0.0012 -0.1231
19585SOL    HW165805   0.695   6.765  12.542 -0.5479  0.3185  0.2780
19585SOL    HW265806   0.585   6.854  12.488 -0.0179  1.4190  0.9828
19586SOL     OW65807   8.595   3.708   2.413 -0.4226  0.3437  0.3745
19586SOL    HW165808   8.645   3.755   2.480 -1.4658  1.3731  0.4620
19586SOL    HW265809   8.638   3.623   2.407  1.3370  1.1873  0.4189
19587SOL     OW65810   8.449  11.205   0.116 -0.1434 -0.0674 -0.9196
19587SOL    HW165811   8.381  11.268   0.139  0.9335  0.3021  1.6133
19587SOL    HW265812   8.411  11.120   0.136  0.3577  0.1858  1.4662
19588SOL     OW65813   6.027  10.775   1.777 -0.1833  0.3504 -0.7090
19588SOL    HW165814   6.092  10.705   1.780  0.2597  0.7565 -0.7383
19588SOL    HW265815   6.039  10.816   1.691 -1.5044 -0.5362 -1.3450
19589SOL     OW65816  11.191   4.967  10.860 -0.1041  0.3482 -0.0798
19589SOL    HW165817  11.271   4.917  10.880  0.8141  2.2932  1.4312
19589SOL    HW265818  11.130   4.942  10.929  0.5044  1.5347  0.9375
19590SOL     OW65819   6.096   3.743   1.451  0.4468 -0.2831 -0.1990
19590SOL    HW165820   6.133   3.789   1.376  1.5380 -1.2758 -0.3047
19590SOL    HW265821   6.062   3.661   1.415 -0.0829 -0.2549  0.2166
19591SOL     OW65822  11.136   1.101   4.072 -0.2878 -0.2884 -0.5448
19591SOL    HW165823  11.082   1.120   3.995 -1.7977 -0.4880  0.4279
19591SOL    HW265824  11.135   1.005   4.080  2.4026 -0.5597 -1.9820
19592SOL     OW65825   1.316   5.159   0.036 -0.0728  0.1275 -0.1062
19592SOL    HW165826   1.371   5.236   0.025  0.6621 -0.4756 -0.8520
19592SOL    HW265827   1.287   5.137  -0.052  1.8323 -1.9148 -0.3103
19593SOL     OW65828   3.826   5.803  11.319  0.3833  0.4220 -0.2394
19593SOL    HW165829   3.915   5.838  11.329  0.1015  1.1564 -0.2205
19593SOL    HW265830   3.780   5.832  11.398  0.5320 -1.2787  0.5213
19594SOL     OW65831   7.249  10.650   1.904 -0.6169 -0.1713 -0.3473
19594SOL    HW165832   7.173  10.667   1.960  0.3314  1.3526  0.5458
19594SOL    HW265833   7.247  10.555   1.890 -1.6159 -0.4244  1.2123
19595SOL     OW65834   9.331   9.901   9.287  0.1078  0.6848  0.0347
19595SOL    HW165835   9.237   9.918   9.299  0.1754  0.6060  0.7685
19595SOL    HW265836   9.363   9.883   9.376  0.5178 -0.8815 -0.4002
19596SOL     OW65837   6.644   9.160   5.551  0.0437 -0.0225  0.6658
19596SOL    HW165838   6.579   9.211   5.599 -1.5549 -1.4205  0.0832
19596SOL    HW265839   6.627   9.179   5.459  1.4960  0.7521  0.5160
19597SOL     OW65840   3.665  12.480   8.828  0.4497  0.0390 -0.1419
19597SOL    HW165841   3.601  12.413   8.806  0.4971  0.0507 -0.3196
19597SOL    HW265842   3.720  12.488   8.749  1.8883 -1.3357  0.6779
19598SOL     OW65843   2.210  11.001  11.640  0.4278  0.1797  0.0114
19598SOL    HW165844   2.119  11.026  11.624 -0.2222 -1.9219  0.1022
19598SOL    HW265845   2.244  10.977  11.554  0.5588 -0.0385  0.1205
19599SOL     OW65846   3.486  11.726  11.067  0.1033  0.2219  0.3253
19599SOL    HW165847   3.432  11.685  11.000 -1.1863 -0.2069  1.5735
19599SOL    HW265848   3.522  11.804  11.024 -0.7026 -0.0166 -0.8414
19600SOL     OW65849   3.079   0.143  12.076  0.6303 -0.4532  0.0117
19600SOL    HW165850   3.103   0.219  12.128  1.9382 -1.9552  1.7270
19600SOL    HW265851   3.027   0.089  12.135  3.3259 -2.8697  0.3983
19601SOL     OW65852   7.701   6.670   5.995 -0.6124  0.1031 -0.2772
19601SOL    HW165853   7.742   6.754   6.014 -1.6026 -0.0883  3.8314
19601SOL    HW265854   7.614   6.692   5.963 -1.1661  0.7681  1.5564
19602SOL     OW65855  12.391   0.103   9.253  0.1663  0.5670  0.2972
19602SOL    HW165856  12.479   0.115   9.217 -0.2584 -0.2510 -1.0904
19602SOL    HW265857  12.356   0.191   9.260  0.0524  0.7565 -1.9547
19603SOL     OW65858   7.297   6.313  11.453 -0.1574  0.2863 -0.2907
19603SOL    HW165859   7.310   6.243  11.518  1.6363  0.1992 -0.6930
19603SOL    HW265860   7.240   6.376  11.497 -0.5911 -0.7166  0.6323
19604SOL     OW65861  10.100  11.341   6.972  0.0385 -0.0198  0.7590
19604SOL    HW165862  10.072  11.429   6.945 -0.5842 -0.2868  0.5238
19604SOL    HW265863  10.106  11.346   7.067 -2.8344 -0.5084  1.0454
19605SOL     OW65864  10.427  10.386   0.219  0.2645 -0.2449  0.7023
19605SOL    HW165865  10.495  10.328   0.254  0.5767  0.0342  0.5564
19605SOL    HW265866  10.453  10.473   0.247 -0.0815 -0.1463  0.7207
19606SOL     OW65867  10.271   9.635  12.105  0.4822  0.6339 -0.0692
19606SOL    HW165868  10.225   9.551  12.105  1.6679 -0.0455 -0.3574
19606SOL    HW265869  10.363   9.611  12.090  0.8150  1.9997 -0.2941
19607SOL     OW65870   6.313   7.181   0.771  0.0098 -0.4025  0.6772
19607SOL    HW165871   6.338   7.130   0.848  1.0499  1.0996  1.3774
19607SOL    HW265872   6.278   7.263   0.806 -0.5495 -0.1312 -0.4443
19608SOL     OW65873   0.907   0.804   0.787 -0.1227 -0.2097  0.4831
19608SOL    HW165874   0.881   0.718   0.821 -1.8912  0.5194  1.0875
19608SOL    HW265875   0.991   0.821   0.829  0.8871 -2.1321 -0.5828
19609SOL     OW65876   3.732   6.077   1.454  0.3820 -0.1108 -0.4334
19609SOL    HW165877   3.724   6.171   1.468  1.2647  0.1657 -1.5777
19609SOL    HW265878   3.651   6.040   1.487  0.5989  0.8930  1.3221
19610SOL     OW65879   1.179  10.520  11.207  0.4045  0.3973  0.2189
19610SOL    HW165880   1.110  10.467  11.247 -0.0057  0.4499 -0.4142
19610SOL    HW265881   1.133  10.593  11.166  0.6333 -0.4804 -1.7149
19611SOL     OW65882   8.926   9.150   3.768  0.6997  0.6966  0.5456
19611SOL    HW165883   8.900   9.242   3.756  0.8032  0.7608  0.8219
19611SOL    HW265884   8.873   9.102   3.704  1.1880  1.0329 -0.1266
19612SOL     OW65885  12.474   7.388   6.291 -0.2516 -0.7025  0.3320
19612SOL    HW165886  12.423   7.435   6.224 -1.4129 -1.7050  0.4761
19612SOL    HW265887  12.455   7.436   6.372  1.7067  0.9402 -0.1049
19613SOL     OW65888   7.797  10.230   3.614 -0.0262 -0.0822 -0.2113
19613SOL    HW165889   7.835  10.198   3.532  0.4646 -0.8312  0.3000
19613SOL    HW265890   7.731  10.293   3.586 -0.6415 -1.1361 -1.2259
19614SOL     OW65891   9.503   7.723   5.638 -0.0276  0.0384  0.6502
19614SOL    HW165892   9.435   7.770   5.686  1.0189  3.0464 -0.5263
19614SOL    HW265893   9.584   7.744   5.685  0.3228 -2.5099  1.3406
19615SOL     OW65894   0.711   0.979   3.588  0.3675  0.2453 -0.2710
19615SOL    HW165895   0.682   1.047   3.649  0.1229 -0.6278  0.5883
19615SOL    HW265896   0.640   0.916   3.585  1.7820 -1.5245  1.2640
19616SOL     OW65897   9.523   1.923   8.434 -0.4819 -0.2665  0.3487
19616SOL    HW165898   9.521   1.915   8.529  1.2023  0.1730  0.4611
19616SOL    HW265899   9.485   2.008   8.416 -3.4511 -1.4728  0.3604
19617SOL     OW65900   1.864   4.702   7.428 -0.2611 -0.3942 -0.0981
19617SOL    HW165901   1.937   4.706   7.489 -0.0791 -1.1625 -0.2499
19617SOL    HW265902   1.900   4.660   7.350 -0.3083  1.2032 -1.0247
19618SOL     OW65903  12.037   5.323   4.784  0.1350 -0.0656  0.3594
19618SOL    HW165904  12.070   5.322   4.874 -0.4990 -0.4008  0.5914
19618SOL    HW265905  12.110   5.357   4.732  0.5370  0.0382  0.9867
19619SOL     OW65906   5.405   7.993  11.815 -0.4590  0.2155  0.1590
19619SOL    HW165907   5.365   8.071  11.852  0.1563  1.9287 -2.5352
19619SOL    HW265908   5.358   7.978  11.733 -0.3718 -2.1276  0.4458
19620SOL     OW65909   5.546  10.522   8.792 -0.6782  0.7386 -0.8247
19620SOL    HW165910   5.627  10.549   8.748 -0.3275  0.2038 -0.5074
19620SOL    HW265911   5.541  10.428   8.778 -1.5406  0.8458 -1.3179
19621SOL     OW65912   1.415  11.601   5.895  1.0277  0.1369  0.9867
19621SOL    HW165913   1.425  11.672   5.832 -1.9347 -0.7687 -0.6640
19621SOL    HW265914   1.440  11.522   5.847 -0.3756 -0.4537  1.1735
19622SOL     OW65915   9.459   4.248   7.515 -0.6732  0.1175 -0.6852
19622SOL    HW165916   9.494   4.163   7.541 -1.2425 -0.1398 -0.7494
19622SOL    HW265917   9.425   4.286   7.596 -1.4392 -0.2046 -0.8497
19623SOL     OW65918   2.119   6.507   1.013  0.3593  0.4544  0.6958
19623SOL    HW165919   2.070   6.586   1.038  1.3237  1.2490  0.1105
19623SOL    HW265920   2.057   6.457   0.960 -0.1756  0.9273  0.8581
19624SOL     OW65921   7.394   4.472  11.738 -0.0385 -0.3201 -0.4459
19624SOL    HW165922   7.420   4.409  11.805 -0.9683  0.2281  0.4695
19624SOL    HW265923   7.345   4.540  11.786  0.0270  0.5474 -1.5494
19625SOL     OW65924   0.106   0.568  11.257 -0.1727  0.4604  0.5916
19625SOL    HW165925   0.110   0.525  11.171 -1.1586 -0.3661  0.9440
19625SOL    HW265926   0.062   0.505  11.313  0.5633  0.9478  1.7519
19626SOL     OW65927   8.780   9.149   4.975 -0.2771  0.1139 -0.4561
19626SOL    HW165928   8.723   9.223   4.953 -0.6697 -0.0503  0.0188
19626SOL    HW265929   8.780   9.146   5.070  0.6420  0.2025 -0.4480
19627SOL     OW65930   5.494  12.442  10.560  0.2264 -0.1316  0.4893
19627SOL    HW165931   5.402  12.458  10.538 -0.5983 -0.9774  2.9701
19627SOL    HW265932   5.501  12.470  10.651  2.8562  1.3337 -0.0657
19628SOL     OW65933   5.343   6.686   2.457  0.0799  0.3603 -0.6131
19628SOL    HW165934   5.334   6.659   2.548  0.1414 -2.1388 -1.2811
19628SOL    HW265935   5.437   6.702   2.445 -0.1806  3.1378  0.3084
19629SOL     OW65936   8.816   7.148   9.573  0.0227 -0.4587 -0.0834
19629SOL    HW165937   8.872   7.212   9.618  0.3975 -0.1946 -0.8979
19629SOL    HW265938   8.800   7.080   9.638 -1.6637  1.1944  1.3285
19630SOL     OW65939  12.314   9.300   1.535  0.2497 -0.2094  0.1347
19630SOL    HW165940  12.354   9.292   1.622  0.4337 -2.0654 -0.0782
19630SOL    HW265941  12.339   9.220   1.490 -1.4342 -0.1698 -0.9643
19631SOL     OW65942  10.617  10.060   4.903 -0.5492  0.0835  0.4928
19631SOL    HW165943  10.706  10.072   4.872 -0.0411  0.2924  1.9608
19631SOL    HW265944  10.583   9.986   4.852  0.1222  0.5922 -0.7340
19632SOL     OW65945   8.768   3.612   5.720  0.3276  0.5717 -0.3879
19632SOL    HW165946   8.827   3.605   5.795  0.2703 -1.0081 -0.4600
19632SOL    HW265947   8.795   3.693   5.676  0.6626  1.2751  1.0630
19633SOL     OW65948   0.290   9.075   2.645  0.8204 -0.0287 -0.0597
19633SOL    HW165949   0.283   9.157   2.597 -4.8761  1.0328  1.7977
19633SOL    HW265950   0.339   9.097   2.724 -0.5870  1.6599  0.3920
19634SOL     OW65951   2.350   2.499   2.185 -0.0417 -0.6183 -0.4143
19634SOL    HW165952   2.381   2.584   2.217  0.4740 -0.4388 -1.3408
19634SOL    HW265953   2.304   2.520   2.103 -1.1478 -1.0808  0.0778
19635SOL     OW65954   0.672   6.062   2.141 -0.2480  0.3047 -0.2935
19635SOL    HW165955   0.611   6.134   2.122 -0.9584 -0.2316 -0.0821
19635SOL    HW265956   0.670   6.008   2.062 -0.8398 -0.2582  0.0887
19636SOL     OW65957   3.441   3.063  11.852  0.0989  0.4314  0.2221
19636SOL    HW165958   3.354   3.066  11.812 -1.9600 -1.0022  4.0237
19636SOL    HW265959   3.435   3.122  11.927  1.9987 -0.5280  1.2084
19637SOL     OW65960   1.449   6.893   7.121 -0.2756 -0.3029 -0.7799
19637SOL    HW165961   1.419   6.855   7.039 -0.1769 -2.5992  0.1750
19637SOL    HW265962   1.440   6.823   7.185  1.0943  0.9281  0.8674
19638SOL     OW65963   9.344   2.972   1.415 -0.3659  0.4168  0.0148
19638SOL    HW165964   9.432   3.007   1.430  0.5260 -2.3621  2.0348
19638SOL    HW265965   9.333   2.978   1.320  2.3848  0.0992 -0.4210
19639SOL     OW65966   4.296   9.041   7.388 -0.4551  0.0953 -0.6165
19639SOL    HW165967   4.214   9.079   7.418  0.5403  0.4942  1.8571
19639SOL    HW265968   4.346   9.115   7.353 -0.7650  0.0270 -1.2043
19640SOL     OW65969   4.473   1.866   4.126  0.1142 -0.0908  0.1905
19640SOL    HW165970   4.406   1.913   4.078 -0.2988 -0.8280  0.0344
19640SOL    HW265971   4.456   1.886   4.218  0.6633  1.0007  0.0703
19641SOL     OW65972   3.297   4.346   0.416 -0.0160  0.0684 -0.0752
19641SOL    HW165973   3.330   4.257   0.422 -0.0175  0.0165 -0.8479
19641SOL    HW265974   3.368   4.400   0.451  0.1683 -0.1948 -0.0436
19642SOL     OW65975  10.112   4.957   3.299 -0.6892  0.3493 -0.1349
19642SOL    HW165976  10.090   5.049   3.288 -1.4855  0.2883  0.8064
19642SOL    HW265977  10.080   4.934   3.386 -2.9823 -1.4600 -1.3140
19643SOL     OW65978   7.498   9.686   9.556  0.2496  0.0714 -0.7855
19643SOL    HW165979   7.404   9.670   9.551  0.0595  1.1963 -1.1141
19643SOL    HW265980   7.513   9.712   9.646  0.6599 -2.4108 -0.0802
19644SOL     OW65981   3.696   5.050   3.705  0.2892 -0.7133  0.3422
19644SOL    HW165982   3.672   5.140   3.685  1.2813 -0.6381 -0.5814
19644SOL    HW265983   3.791   5.050   3.711  0.3437 -1.7946 -0.1626
19645SOL     OW65984   8.886   9.365  11.196  0.1283 -0.2519 -0.0006
19645SOL    HW165985   8.935   9.447  11.184 -0.5412  0.3271  1.0453
19645SOL    HW265986   8.812   9.372  11.136  0.1457 -0.1443 -0.0085
19646SOL     OW65987   2.045   9.161   8.740  0.3502  0.6024  0.2320
19646SOL    HW165988   2.063   9.068   8.754 -0.0864  0.4546 -0.1494
19646SOL    HW265989   1.950   9.168   8.744  0.4160  1.1491  0.9312
19647SOL     OW65990   0.455   3.408   2.081  0.2405 -0.8631  0.0030
19647SOL    HW165991   0.446   3.502   2.098 -0.3731 -0.9414  0.1276
19647SOL    HW265992   0.517   3.403   2.008  0.3333 -0.3657  0.0420
19648SOL     OW65993   1.465   3.696   0.863  0.7339  0.1522  0.1007
19648SOL    HW165994   1.384   3.743   0.843  0.2564 -1.0232 -0.8857
19648SOL    HW265995   1.448   3.654   0.947  1.6189  2.6410  1.6378
19649SOL     OW65996   7.011   9.510   8.921 -0.3198  0.1255  0.0092
19649SOL    HW165997   7.090   9.564   8.909 -0.0054 -0.3545 -0.1124
19649SOL    HW265998   7.025   9.467   9.005 -0.2374 -0.3205 -0.2332
19650SOL     OW65999   9.346   8.613   9.857 -0.2802  0.4104  0.5514
19650SOL    HW166000   9.396   8.538   9.888 -1.7902 -1.3983 -1.1191
19650SOL    HW266001   9.399   8.649   9.786 -0.5213 -0.4370 -0.0752
19651SOL     OW66002   1.844   4.674   4.811 -0.0995 -0.1286 -0.1675
19651SOL    HW166003   1.830   4.580   4.817  0.3153 -0.4242 -2.7099
19651SOL    HW266004   1.763   4.713   4.845  0.2751 -1.2985  2.2694
19652SOL     OW66005   9.245   9.844   0.989  0.5159 -0.0119  0.0416
19652SOL    HW166006   9.252   9.791   1.068 -2.8918 -0.8996 -0.0759
19652SOL    HW266007   9.225   9.781   0.919  1.2380  0.9663 -1.0849
19653SOL     OW66008  11.793   4.354  10.432  0.3495  0.1078  0.1754
19653SOL    HW166009  11.843   4.273  10.445 -0.6543 -0.5927 -0.1158
19653SOL    HW266010  11.709   4.336  10.475 -0.8897 -0.0480 -2.1410
19654SOL     OW66011  11.335   7.075   9.680 -0.8266 -0.0943 -0.0902
19654SOL    HW166012  11.289   7.002   9.638 -0.5228  0.8739 -2.1954
19654SOL    HW266013  11.362   7.131   9.608  0.2134  1.3830  1.3915
19655SOL     OW66014   5.532  12.127   5.942  0.3443 -0.0403 -0.0175
19655SOL    HW166015   5.508  12.182   5.868 -0.2579  0.2700  0.3979
19655SOL    HW266016   5.624  12.149   5.959  0.7528 -0.7312 -1.1816
19656SOL     OW66017   4.277   2.416  10.217  0.1494  1.0007  0.1982
19656SOL    HW166018   4.360   2.370  10.227  0.6313  1.5644 -0.9982
19656SOL    HW266019   4.212   2.347  10.204 -0.2583  0.2724  4.5465
19657SOL     OW66020   3.066  10.787   2.223  0.1596 -0.9252 -0.2121
19657SOL    HW166021   3.090  10.719   2.160 -1.4864  1.1590 -3.3810
19657SOL    HW266022   3.149  10.827   2.248  0.8757 -1.8992 -0.9827
19658SOL     OW66023   0.620   3.738   2.794  0.6127  0.1538 -0.2305
19658SOL    HW166024   0.679   3.810   2.773  0.8851  0.0611  0.2106
19658SOL    HW266025   0.549   3.745   2.730 -0.0837  1.6492  0.6503
19659SOL     OW66026   2.737   5.372  10.436 -0.2891 -0.3165 -0.0450
19659SOL    HW166027   2.753   5.393  10.528  0.6307  0.7000 -0.4169
19659SOL    HW266028   2.652   5.411  10.417 -0.2111 -0.0143  0.2146
19660SOL     OW66029  11.852   3.176   3.854 -0.1794 -0.4570  0.2775
19660SOL    HW166030  11.896   3.196   3.771  0.3601 -1.2439  0.3616
19660SOL    HW266031  11.763   3.209   3.842  0.3513  0.9948  0.0277
19661SOL     OW66032   8.966   3.171   8.971 -0.3017  0.2195  0.4419
19661SOL    HW166033   9.000   3.106   9.032 -0.2374  0.5210  0.7275
19661SOL    HW266034   8.998   3.143   8.885 -0.7540 -0.4495  0.4874
19662SOL     OW66035  10.990  10.618   2.230  0.1783  0.4878  0.0396
19662SOL    HW166036  10.988  10.590   2.138 -1.3366 -0.1845  0.2432
19662SOL    HW266037  11.014  10.540   2.279 -1.5432  0.1328  0.3964
19663SOL     OW66038   5.752   0.002  10.993  0.8703  0.6201  0.3628
19663SOL    HW166039   5.747  -0.084  11.034  1.7345  0.7928  0.8351
19663SOL    HW266040   5.834   0.040  11.023  1.9782  0.4324 -2.1661
19664SOL     OW66041   0.358  11.498   9.690 -0.5950 -0.0199 -0.4240
19664SOL    HW166042   0.265  11.486   9.707 -0.4664  0.5583  0.7724
19664SOL    HW266043   0.399  11.418   9.721 -0.6008  0.0992 -0.1084
19665SOL     OW66044  11.421   5.517   8.233 -0.4408 -0.6476 -0.4100
19665SOL    HW166045  11.479   5.484   8.164 -0.6689  1.1923 -1.5370
19665SOL    HW266046  11.335   5.523   8.191 -0.1770  2.5121 -0.7174
19666SOL     OW66047   4.358   8.550   4.514  0.2090  0.2130 -0.4974
19666SOL    HW166048   4.269   8.516   4.516  0.0456  0.6456 -0.1975
19666SOL    HW266049   4.367   8.586   4.426  0.1050  0.1214 -0.5463
19667SOL     OW66050   4.481   6.844   0.605  0.1043 -0.1008  0.8185
19667SOL    HW166051   4.552   6.784   0.582 -1.1705 -1.3703 -0.0649
19667SOL    HW266052   4.519   6.906   0.667  1.9603 -0.7184  0.3414
19668SOL     OW66053   4.186   4.589  12.516 -0.1511  0.5012  0.5316
19668SOL    HW166054   4.258   4.577  12.454  0.6168  1.6512  1.1640
19668SOL    HW266055   4.161   4.500  12.542  1.2025  0.0839  0.4755
19669SOL     OW66056   8.142  12.022   4.363  0.7827 -0.1903  0.1239
19669SOL    HW166057   8.078  11.951   4.358  0.0852  0.4974 -1.4288
19669SOL    HW266058   8.195  12.012   4.283  0.8964  0.8187  0.0616
19670SOL     OW66059   0.944  10.808   7.506  0.3388  0.2812  0.3627
19670SOL    HW166060   0.958  10.748   7.579 -2.5216 -1.5515 -0.4355
19670SOL    HW266061   0.930  10.893   7.548  0.6754 -0.3422  1.8041
19671SOL     OW66062  12.305   0.815   8.269  0.2310  0.1570  0.4863
19671SOL    HW166063  12.261   0.843   8.188  0.9876 -0.3723 -0.1203
19671SOL    HW266064  12.299   0.891   8.327  0.7352  0.9705 -0.5029
19672SOL     OW66065  11.027   4.890   7.766  0.0793 -0.0896 -0.3855
19672SOL    HW166066  10.989   4.889   7.678  2.4434  2.2565 -1.5506
19672SOL    HW266067  10.959   4.929   7.821 -1.1621 -0.9169 -1.2701
19673SOL     OW66068   3.164   4.574   5.948 -0.0909 -0.3345  0.0187
19673SOL    HW166069   3.224   4.579   6.022 -0.6420 -1.0303  0.5252
19673SOL    HW266070   3.077   4.575   5.988 -0.4301  0.7820 -0.7128
19674SOL     OW66071   1.157   4.429   0.229 -0.2625 -0.2731  0.3128
19674SOL    HW166072   1.105   4.390   0.159 -1.6464 -1.5169  1.9579
19674SOL    HW266073   1.093   4.461   0.293  0.9383  1.5761  0.6798
19675SOL     OW66074  11.011   4.487  11.864 -0.8351  0.5197  0.6312
19675SOL    HW166075  11.020   4.464  11.772  0.5093 -0.7850  1.0460
19675SOL    HW266076  11.074   4.559  11.877 -0.5692  0.2855  0.6549
19676SOL     OW66077   6.698   7.476   8.058  0.5752  0.0672 -0.8509
19676SOL    HW166078   6.716   7.386   8.083  2.4664  0.1968 -1.6119
19676SOL    HW266079   6.742   7.530   8.124  0.9111  0.4176 -1.3524
19677SOL     OW66080   6.114   1.597   4.287 -0.2599 -0.6229  0.0586
19677SOL    HW166081   6.062   1.611   4.365  1.2009  1.9213  0.6967
19677SOL    HW266082   6.190   1.548   4.317  0.6613  0.9767  0.4753
19678SOL     OW66083   1.030   7.352   8.396  0.1199 -0.0392  0.4507
19678SOL    HW166084   1.078   7.332   8.476  0.5309 -2.0227 -0.2381
19678SOL    HW266085   0.962   7.285   8.391 -0.8070  0.9128 -0.1566
19679SOL     OW66086   8.222   7.328   8.097 -0.4026  0.0674  0.0951
19679SOL    HW166087   8.177   7.293   8.174  0.6579  1.6306  1.4741
19679SOL    HW266088   8.151   7.358   8.040 -1.1767  0.6823  1.3395
19680SOL     OW66089   9.458   9.651   6.542  0.4166 -0.1082 -0.5978
19680SOL    HW166090   9.408   9.574   6.569  2.0014 -1.4460 -1.3189
19680SOL    HW266091   9.392   9.712   6.508 -0.7815 -1.5868 -1.0343
19681SOL     OW66092   7.121   0.310   5.149 -0.3097 -0.6551  0.7606
19681SOL    HW166093   7.060   0.362   5.201 -2.0337  0.4626 -2.0947
19681SOL    HW266094   7.191   0.371   5.125 -0.0313 -0.8849  0.9882
19682SOL     OW66095   3.684   7.341   4.326 -0.0401 -0.8363  0.4408
19682SOL    HW166096   3.618   7.384   4.271  1.1537 -0.2747 -0.6138
19682SOL    HW266097   3.710   7.407   4.389 -1.9056 -1.6917  2.2226
19683SOL     OW66098   6.137  10.619   8.523 -0.2382  0.2792  0.2669
19683SOL    HW166099   6.065  10.559   8.504  0.5061 -1.2265  1.9780
19683SOL    HW266100   6.182  10.630   8.439 -1.1301 -0.5526 -0.3388
19684SOL     OW66101  10.968   8.604   6.968  0.0058 -0.0636  0.0729
19684SOL    HW166102  11.030   8.678   6.973 -0.0143 -0.0837  0.7468
19684SOL    HW266103  11.015   8.532   7.010  1.8682 -1.8112 -4.3733
19685SOL     OW66104   7.412   3.675   5.500 -0.7793  0.1829  0.1129
19685SOL    HW166105   7.324   3.703   5.524 -1.0064 -0.7880  0.4432
19685SOL    HW266106   7.470   3.723   5.560 -1.1102  0.5379  0.1468
19686SOL     OW66107   8.174   1.786   4.745 -0.0537 -0.1375  0.2222
19686SOL    HW166108   8.216   1.729   4.809 -0.6106 -1.0138 -0.1796
19686SOL    HW266109   8.195   1.746   4.660 -1.3463 -0.3559 -0.0101
19687SOL     OW66110   2.464  12.004  12.571 -0.8624 -0.5659 -0.0213
19687SOL    HW166111   2.374  11.999  12.602 -1.7064  0.4435 -2.0814
19687SOL    HW266112   2.471  12.092  12.533  1.1809 -0.4192  0.5995
19688SOL     OW66113  12.208   6.618   5.884  0.6133 -0.7123  0.2870
19688SOL    HW166114  12.283   6.563   5.909 -1.0997 -3.1079  0.4874
19688SOL    HW266115  12.131   6.569   5.913 -1.1358  0.8652 -1.3780
19689SOL     OW66116   6.721  12.479   9.168  0.7001  0.0068 -0.1421
19689SOL    HW166117   6.649  12.528   9.128 -0.5446 -0.4855  1.3767
19689SOL    HW266118   6.799  12.532   9.151 -0.4765  2.1883  0.8014
19690SOL     OW66119   3.327   5.910   6.389  0.4537  0.0873  0.1524
19690SOL    HW166120   3.267   5.941   6.456  2.0234  1.4265  0.9946
19690SOL    HW266121   3.414   5.938   6.418  1.9246 -3.9374  0.3281
19691SOL     OW66122  11.253   5.474   0.346  0.3223  0.1975  0.2579
19691SOL    HW166123  11.236   5.556   0.298 -0.6425 -0.6026 -0.8381
19691SOL    HW266124  11.173   5.423   0.335  1.7317 -1.8852 -1.1707
19692SOL     OW66125   3.485   8.855   9.714  0.6411 -0.5215 -0.0215
19692SOL    HW166126   3.518   8.929   9.765 -0.3657 -0.6122  0.7861
19692SOL    HW266127   3.499   8.779   9.770  1.6842 -0.9623 -0.8542
19693SOL     OW66128   1.154   1.611  10.723  0.0727  0.1273 -0.3001
19693SOL    HW166129   1.203   1.589  10.803 -0.9497  0.5618  0.4623
19693SOL    HW266130   1.221   1.638  10.660  1.0054 -1.3101  0.0243
19694SOL     OW66131   3.867   6.023  11.010  0.0133  0.3912 -0.4696
19694SOL    HW166132   3.801   6.026  11.079  0.3940 -3.1822  0.2100
19694SOL    HW266133   3.834   5.958  10.948  2.5417 -1.0716 -0.3994
19695SOL     OW66134   2.642   6.604   1.554 -0.2002  0.3896  0.2367
19695SOL    HW166135   2.672   6.651   1.632 -0.6066  0.0990  0.5731
19695SOL    HW266136   2.722   6.567   1.517  0.0428  0.8325  0.3112
19696SOL     OW66137   7.011   2.895   3.672  0.3942 -0.2970  0.9043
19696SOL    HW166138   6.930   2.901   3.622 -0.0281 -0.7233  1.5207
19696SOL    HW266139   7.072   2.952   3.625  0.6025 -2.1023 -1.2202
19697SOL     OW66140   6.635   9.170  10.240 -0.1124  0.2721 -0.0845
19697SOL    HW166141   6.571   9.216  10.186 -0.7834 -0.1909  0.3071
19697SOL    HW266142   6.622   9.204  10.328 -1.0864 -1.1259  0.3440
19698SOL     OW66143  10.456   1.326   1.152  0.1463  0.2329  0.4514
19698SOL    HW166144  10.499   1.370   1.078  0.8715  1.3454  1.5062
19698SOL    HW266145  10.490   1.236   1.149  1.2576  0.6396  0.2510
19699SOL     OW66146   5.553   9.211   1.953  0.7786  0.1278 -0.7724
19699SOL    HW166147   5.614   9.164   1.896 -0.9200 -1.1354 -1.6685
19699SOL    HW266148   5.471   9.162   1.945 -0.2847  1.5828  0.5867
19700SOL     OW66149   0.372  10.422   6.411  0.0673 -0.2826  0.4291
19700SOL    HW166150   0.387  10.347   6.353 -1.2331  0.1306 -0.4953
19700SOL    HW266151   0.453  10.474   6.406 -0.1259 -0.1127 -1.2553
19701SOL     OW66152  12.239   6.271  10.310 -0.1935  0.6792 -0.2793
19701SOL    HW166153  12.174   6.339  10.289 -1.5262 -0.5109 -0.2124
19701SOL    HW266154  12.190   6.189  10.300  0.8885 -0.1930  1.3415
19702SOL     OW66155  10.659   2.177   5.755 -0.5208  0.1782 -0.1235
19702SOL    HW166156  10.572   2.209   5.778 -0.6773 -0.4357  0.1757
19702SOL    HW266157  10.720   2.232   5.803 -0.8294 -0.9814  1.7092
19703SOL     OW66158   2.565   7.773  11.556 -0.6659 -0.1545 -0.5307
19703SOL    HW166159   2.598   7.731  11.635 -1.0253 -0.2997 -0.4540
19703SOL    HW266160   2.562   7.702  11.491 -0.0413  0.0386 -0.7789
19704SOL     OW66161   6.315   0.648   5.215 -0.2060 -0.0290 -0.3899
19704SOL    HW166162   6.405   0.681   5.213  0.3678 -1.4977 -0.0972
19704SOL    HW266163   6.264   0.716   5.172  0.8989  1.2431  0.2302
19705SOL     OW66164  11.962   0.045   7.186  0.3925  0.4728 -0.6016
19705SOL    HW166165  11.873   0.013   7.204  0.6219 -1.0106 -1.8880
19705SOL    HW266166  11.994  -0.011   7.116  2.8706  0.0742  0.7194
19706SOL     OW66167   0.413   6.813   7.338  0.2345 -0.7316 -0.2438
19706SOL    HW166168   0.501   6.827   7.373 -0.7132  1.1273  1.6149
19706SOL    HW266169   0.358   6.875   7.386 -2.0364 -1.5350 -1.6504
19707SOL     OW66170   8.997  11.770   3.612 -0.3930  0.3808  0.3472
19707SOL    HW166171   9.050  11.798   3.536  0.1681 -1.4346  0.0215
19707SOL    HW266172   9.041  11.691   3.643 -0.6999  1.0090  2.5116
19708SOL     OW66173   2.067   7.560   6.376  0.0749 -0.4223  0.0596
19708SOL    HW166174   2.005   7.509   6.323  0.6469 -1.1825  0.1126
19708SOL    HW266175   2.016   7.585   6.454 -0.2341 -0.8663  0.0081
19709SOL     OW66176   8.757   4.803   5.207  0.5429  0.0790  0.3703
19709SOL    HW166177   8.840   4.757   5.217  0.3724 -0.7795 -1.6733
19709SOL    HW266178   8.765   4.849   5.124 -1.3552 -0.8460 -0.3876
19710SOL     OW66179   2.534   1.362  10.926  0.4359  0.3889 -0.3503
19710SOL    HW166180   2.453   1.390  10.885  1.1433  0.4483 -1.8039
19710SOL    HW266181   2.543   1.416  11.004  0.4251  2.3481 -1.6394
19711SOL     OW66182   2.088   1.869   3.269  0.0575 -0.3173 -0.1030
19711SOL    HW166183   1.997   1.843   3.289 -0.5882  0.9981 -1.1733
19711SOL    HW266184   2.129   1.788   3.236 -0.6940 -0.9501  0.4739
19712SOL     OW66185   7.530   1.832   8.262  0.4811 -0.3195 -0.8039
19712SOL    HW166186   7.565   1.906   8.312 -2.3295  0.9974 -0.5917
19712SOL    HW266187   7.490   1.775   8.328  0.1462 -0.5552 -1.2053
19713SOL     OW66188   5.790  10.628   4.086  0.0862  0.0870 -0.0637
19713SOL    HW166189   5.743  10.572   4.148 -0.4108 -0.4549 -0.9077
19713SOL    HW266190   5.773  10.588   4.001 -0.5405  1.7104 -0.7314
19714SOL     OW66191  11.316   5.780   1.549 -0.2515  0.0843  0.3214
19714SOL    HW166192  11.238   5.833   1.532  1.0452  1.7063 -0.8817
19714SOL    HW266193  11.349   5.757   1.462 -0.1081 -1.7587  0.8190
19715SOL     OW66194   1.328   3.975   0.873  0.2696  0.0193 -0.3770
19715SOL    HW166195   1.284   3.934   0.799 -1.0989  1.1230 -0.2299
19715SOL    HW266196   1.420   3.980   0.847  0.2592 -1.9414 -0.8927
19716SOL     OW66197   2.160   6.506   4.145 -0.5817  0.1305  0.2069
19716SOL    HW166198   2.164   6.524   4.051 -0.7060  0.6045  0.2891
19716SOL    HW266199   2.067   6.492   4.163 -0.4299 -1.1206  0.0526
19717SOL     OW66200   3.875  11.026   7.272  0.1239 -0.4282  0.2952
19717SOL    HW166201   3.933  10.983   7.335  1.4514 -2.9934 -2.4089
19717SOL    HW266202   3.797  10.970   7.269  0.7160 -1.2112 -1.3510
19718SOL     OW66203  11.333   5.646  10.064 -0.1541 -0.4975 -0.1458
19718SOL    HW166204  11.250   5.654  10.110 -0.4045 -1.6053 -0.3859
19718SOL    HW266205  11.343   5.552  10.048  1.5649 -0.5036  0.6649
19719SOL     OW66206  11.239   1.769  12.185 -0.3126 -0.8251 -0.8554
19719SOL    HW166207  11.270   1.845  12.135 -0.2069  0.1187  0.6117
19719SOL    HW266208  11.156   1.796  12.222 -1.0092 -1.9686 -1.5159
19720SOL     OW66209   2.770   0.764   1.128  0.3712 -0.3670 -0.5937
19720SOL    HW166210   2.764   0.823   1.053 -0.2715  2.4484  1.5191
19720SOL    HW266211   2.824   0.811   1.191 -0.0080 -2.1685  1.1661
19721SOL     OW66212   4.085   8.036   1.717 -0.2551 -0.6404  0.1326
19721SOL    HW166213   4.099   7.975   1.790 -0.2023 -1.4102 -0.5031
19721SOL    HW266214   4.101   8.122   1.755 -2.7291 -0.7738  1.7059
19722SOL     OW66215  12.067  10.410   4.686  0.6688  0.3190  0.9037
19722SOL    HW166216  12.121  10.489   4.687 -0.4843  1.1322  0.5940
19722SOL    HW266217  12.130  10.339   4.701  2.0788  1.0567 -1.1046
19723SOL     OW66218   9.751   6.877   5.576 -0.1452 -0.2190  0.4770
19723SOL    HW166219   9.740   6.915   5.664 -0.9081  0.4872  0.0888
19723SOL    HW266220   9.746   6.783   5.591 -1.4010 -0.0893  1.0702
19724SOL     OW66221   6.074  12.351   9.715 -0.4319 -0.1861 -0.3331
19724SOL    HW166222   5.988  12.371   9.676 -0.0750 -1.4694 -1.8982
19724SOL    HW266223   6.108  12.279   9.661  2.4291  1.4678 -0.9449
19725SOL     OW66224   5.980  12.113   6.424 -0.4728 -0.2062 -0.5309
19725SOL    HW166225   5.912  12.115   6.357 -0.4884  1.9337 -0.4987
19725SOL    HW266226   5.944  12.056   6.492 -0.7824 -1.8022 -1.9586
19726SOL     OW66227   7.171   8.620  12.121  0.2436  0.5042 -0.3056
19726SOL    HW166228   7.127   8.561  12.059 -0.2852  1.7724 -1.1759
19726SOL    HW266229   7.165   8.707  12.081  1.9917  1.0113  0.3967
19727SOL     OW66230  11.177   1.246   4.502  0.4268  0.2432  0.1117
19727SOL    HW166231  11.212   1.322   4.547  1.1074  1.3484 -2.1240
19727SOL    HW266232  11.131   1.282   4.426 -2.4059 -1.3927  0.8960
19728SOL     OW66233   0.982   7.364   8.050 -0.1017 -0.5636 -0.2461
19728SOL    HW166234   0.916   7.295   8.050  0.7006 -1.3482 -0.6112
19728SOL    HW266235   1.062   7.321   8.020  0.5527  0.3937  0.0699
19729SOL     OW66236   1.984  11.321   0.934  0.0814 -0.9390 -0.0070
19729SOL    HW166237   1.970  11.396   0.991 -4.6175 -1.3128 -0.2533
19729SOL    HW266238   2.043  11.353   0.866 -1.3888  2.4930  0.1211
19730SOL     OW66239   0.090   7.769   4.216  0.6674 -0.2718 -0.1593
19730SOL    HW166240   0.055   7.689   4.256  0.7548 -1.1229 -1.6927
19730SOL    HW266241   0.087   7.752   4.122 -0.7743  2.1355 -0.6459
19731SOL     OW66242  10.704  11.476   8.530 -0.0908  0.6107 -0.2197
19731SOL    HW166243  10.625  11.441   8.489 -0.1905 -2.7995  2.4052
19731SOL    HW266244  10.672  11.528   8.604  0.0985  0.5263 -0.0762
19732SOL     OW66245   9.608   1.824   9.924 -0.1097 -0.0835 -0.0168
19732SOL    HW166246   9.592   1.791   9.836  1.5084  2.2797 -1.2969
19732SOL    HW266247   9.697   1.796   9.945  1.3836  3.3450 -1.2232
19733SOL     OW66248   0.309  12.417   4.229  0.2029 -0.3289  0.6741
19733SOL    HW166249   0.264  12.346   4.183  1.1314 -0.7654  0.4152
19733SOL    HW266250   0.295  12.494   4.174  0.7409 -0.7039 -0.0027
19734SOL     OW66251   4.898   3.040   3.576 -0.5289 -0.2540 -0.2049
19734SOL    HW166252   4.828   3.054   3.512 -1.2077 -0.5723  0.4497
19734SOL    HW266253   4.926   3.127   3.602  0.3138 -0.1047 -1.5147
19735SOL     OW66254   3.925   0.514  12.248 -0.2837 -0.1192 -0.8035
19735SOL    HW166255   3.859   0.506  12.317  0.2520 -1.6369 -0.4342
19735SOL    HW266256   3.886   0.575  12.185 -1.3521  0.2501  0.1716
19736SOL     OW66257  11.512   2.001   7.517 -0.0861 -0.0246 -0.3975
19736SOL    HW166258  11.586   1.942   7.503  0.8289  1.1114 -0.4291
19736SOL    HW266259  11.511   2.057   7.439  0.3040  1.3105  0.5308
19737SOL     OW66260   3.484   6.999   7.409  0.1508  0.6760 -0.1307
19737SOL    HW166261   3.566   7.002   7.360 -0.0839 -0.6339 -0.6264
19737SOL    HW266262   3.480   6.910   7.445 -1.4122  0.4684 -0.7480
19738SOL     OW66263   3.605   0.321   8.014 -0.2026 -0.2465 -0.2483
19738SOL    HW166264   3.701   0.320   8.016 -0.1892  0.4265  1.8905
19738SOL    HW266265   3.583   0.393   7.954  0.8221  3.7054  3.5666
19739SOL     OW66266  12.342   0.077   2.498  0.0853 -0.0329  0.2820
19739SOL    HW166267  12.247   0.066   2.497  0.1183 -0.4978  1.3678
19739SOL    HW266268  12.361   0.130   2.420 -0.9029 -1.1190 -0.7217
19740SOL     OW66269   1.504   3.683   8.400  0.8225  0.2362  0.8189
19740SOL    HW166270   1.577   3.649   8.349  0.2905  2.0014 -1.2365
19740SOL    HW266271   1.524   3.775   8.416 -0.7293  0.6621  0.5613
19741SOL     OW66272   1.602   1.151   3.529 -0.6354  0.7107  0.3961
19741SOL    HW166273   1.682   1.119   3.570  0.3985  1.9375 -0.5702
19741SOL    HW266274   1.549   1.184   3.602  0.2527  0.9513  0.9478
19742SOL     OW66275   8.978   7.946   2.802  0.0959 -0.1114 -0.0132
19742SOL    HW166276   8.906   7.895   2.838  0.4386  0.0471  0.9226
19742SOL    HW266277   9.052   7.928   2.860  0.4021  0.9031 -0.0664
19743SOL     OW66278   6.157  10.113   0.310 -0.0210 -0.4310 -0.0061
19743SOL    HW166279   6.207  10.178   0.260  1.4194 -1.3365  0.2158
19743SOL    HW266280   6.206  10.103   0.392  0.4067 -2.5887 -0.4762
19744SOL     OW66281   6.029   1.752  10.122 -0.6758 -0.2759 -0.6271
19744SOL    HW166282   6.077   1.742  10.039 -0.6018  1.3359 -0.8225
19744SOL    HW266283   6.069   1.689  10.181  1.5324  0.7932 -0.8730
19745SOL     OW66284   5.904   9.767  12.422 -0.1755 -0.0015 -0.2892
19745SOL    HW166285   5.963   9.798  12.353 -0.2609 -0.6337 -0.6456
19745SOL    HW266286   5.817   9.768  12.381 -0.1235 -1.1419 -0.4556
19746SOL     OW66287  11.596  10.408  12.255 -0.8424  0.1940  0.7845
19746SOL    HW166288  11.598  10.331  12.312 -0.5568  0.1713  0.7427
19746SOL    HW266289  11.529  10.464  12.293 -1.1730 -0.1528  0.7155
19747SOL     OW66290   0.594  10.938   2.272  0.9796 -0.1801 -0.3589
19747SOL    HW166291   0.646  10.987   2.208  0.3066  0.5301 -0.3803
19747SOL    HW266292   0.531  10.888   2.220  0.3048  0.5457 -0.2672
19748SOL     OW66293   6.099   6.265   0.508 -0.7707  0.4954  0.1055
19748SOL    HW166294   6.159   6.296   0.576 -0.1408 -0.8837  0.2079
19748SOL    HW266295   6.119   6.172   0.499 -0.3849  0.7549 -2.4160
19749SOL     OW66296   6.437   2.431   9.792 -0.0051 -0.1011 -0.3674
19749SOL    HW166297   6.352   2.457   9.755 -0.8281 -0.1299  1.3845
19749SOL    HW266298   6.470   2.365   9.731 -1.1001  0.1063 -1.2418
19750SOL     OW66299   7.701   9.889   3.322  0.6399 -0.1958 -0.0664
19750SOL    HW166300   7.689   9.794   3.320 -0.6601 -0.0313 -1.3748
19750SOL    HW266301   7.794   9.902   3.306  0.6396 -1.2128 -0.9625
19751SOL     OW66302   0.479   5.240   5.058  0.3405  0.0803 -0.1464
19751SOL    HW166303   0.519   5.326   5.047 -0.4087  0.5354  0.5873
19751SOL    HW266304   0.469   5.230   5.152 -1.1640 -0.0630 -0.2970
19752SOL     OW66305   2.327   7.509   6.164  0.5958  0.7521 -0.5176
19752SOL    HW166306   2.266   7.531   6.234 -0.3577  1.7276 -1.6145
19752SOL    HW266307   2.349   7.417   6.179 -0.8433  0.4968  0.1370
19753SOL     OW66308   2.397   5.387   2.328 -0.8606  0.1142  0.2391
19753SOL    HW166309   2.407   5.446   2.253 -0.9282  0.3482  0.4102
19753SOL    HW266310   2.307   5.400   2.357 -1.4247 -1.3300 -0.7524
19754SOL     OW66311   6.408  10.914   5.456 -0.5518 -0.8416 -0.0433
19754SOL    HW166312   6.377  10.826   5.479  0.9028 -1.2434  0.4391
19754SOL    HW266313   6.463  10.901   5.379 -1.1995 -0.1787 -0.6433
19755SOL     OW66314   6.425   2.291   7.802  0.0550 -0.2199 -0.1332
19755SOL    HW166315   6.488   2.221   7.820  0.6788 -0.2787 -2.2854
19755SOL    HW266316   6.469   2.371   7.834  1.2699 -0.2615 -1.5767
19756SOL     OW66317   2.521  10.874  12.356 -0.1913  0.0106  0.3662
19756SOL    HW166318   2.523  10.957  12.403 -0.6840  0.3037 -0.1198
19756SOL    HW266319   2.561  10.893  12.271  0.0756 -0.3525  0.4070
19757SOL     OW66320   1.905   9.660   4.779 -0.8205  0.0994 -0.5271
19757SOL    HW166321   1.959   9.725   4.823  0.0928  0.1974 -1.7395
19757SOL    HW266322   1.966   9.593   4.750 -1.0859  0.8720 -3.1148
19758SOL     OW66323  10.625   0.169  12.510 -0.1291 -0.1342  0.0746
19758SOL    HW166324  10.686   0.169  12.583 -0.5356 -1.6444  0.4601
19758SOL    HW266325  10.540   0.150  12.549 -0.6624  0.7824 -0.5929
19759SOL     OW66326   8.638  12.487   2.402  0.4330  0.1262 -0.1426
19759SOL    HW166327   8.693  12.516   2.329  1.2368  1.7165  1.0284
19759SOL    HW266328   8.552  12.471   2.363  0.4226  2.4125 -1.2280
19760SOL     OW66329   2.841  10.616   7.640  0.0992 -0.5678  0.0291
19760SOL    HW166330   2.775  10.636   7.574  0.0157 -0.4383  0.1509
19760SOL    HW266331   2.877  10.701   7.665 -0.3294 -0.5604  0.6231
19761SOL     OW66332   4.161   6.357   3.408  0.0942 -0.3417 -0.1143
19761SOL    HW166333   4.124   6.374   3.321  0.2092 -1.8407 -0.4841
19761SOL    HW266334   4.254   6.378   3.399 -0.2116  1.2756  0.1892
19762SOL     OW66335   8.251  11.488  10.561  0.0039  0.1952 -0.0903
19762SOL    HW166336   8.231  11.580  10.541 -2.4344 -0.2478  0.0557
19762SOL    HW266337   8.263  11.487  10.656 -0.6600  0.2535 -0.0032
19763SOL     OW66338  10.033   5.997   2.519 -0.5042  0.8393  0.3775
19763SOL    HW166339  10.105   5.935   2.531 -1.2357  0.0303  0.6842
19763SOL    HW266340  10.047   6.033   2.431 -0.1092  0.1790  0.1638
19764SOL     OW66341   1.600   5.923   4.082  0.0110 -0.1318 -0.6931
19764SOL    HW166342   1.580   6.016   4.070 -0.7360 -0.1806  0.0526
19764SOL    HW266343   1.514   5.882   4.096  0.4311 -0.7195  0.2761
19765SOL     OW66344   8.038   7.505   5.778  0.2970 -1.1086 -0.1246
19765SOL    HW166345   7.969   7.460   5.827  0.8569  0.1348  1.9368
19765SOL    HW266346   7.994   7.538   5.699 -1.4610 -0.4694  1.0623
19766SOL     OW66347  10.442   8.656   0.168  0.6047 -0.4589  0.8276
19766SOL    HW166348  10.415   8.685   0.255  0.3795  0.5290  0.4475
19766SOL    HW266349  10.423   8.731   0.111  0.4703 -1.1943 -0.1196
19767SOL     OW66350   2.184   5.295   8.472 -0.0574 -0.7542 -0.3119
19767SOL    HW166351   2.202   5.375   8.422 -1.1990  1.6183  2.7378
19767SOL    HW266352   2.268   5.275   8.515 -0.3342  0.2782  0.7590
19768SOL     OW66353  11.580   3.607   6.894 -0.3820 -0.4675 -0.4416
19768SOL    HW166354  11.655   3.551   6.915  0.7730  0.8822 -0.8234
19768SOL    HW266355  11.520   3.596   6.968 -0.7754 -3.1115 -1.0575
19769SOL     OW66356   6.510  12.573   9.021 -0.0266  0.3481 -0.3163
19769SOL    HW166357   6.466  12.518   9.086 -0.6730 -0.2017 -1.1940
19769SOL    HW266358   6.477  12.541   8.937 -0.1250  1.8336 -0.8698
19770SOL     OW66359  11.138   8.051   8.437  0.3095 -0.7656  0.2347
19770SOL    HW166360  11.076   7.986   8.471  0.2368 -1.1100 -0.5321
19770SOL    HW266361  11.087   8.101   8.373  0.1467  0.5537  1.3266
19771SOL     OW66362   1.446   8.788   9.549  0.1550  0.4747 -0.3555
19771SOL    HW166363   1.530   8.749   9.525 -0.3845 -1.2940  0.4699
19771SOL    HW266364   1.398   8.794   9.466  0.1349 -1.0187 -0.4896
19772SOL     OW66365   8.033  10.629   0.849  0.0012  0.2554  0.0068
19772SOL    HW166366   7.968  10.622   0.919  0.2416  2.1786  0.4698
19772SOL    HW266367   7.982  10.626   0.768 -0.4426 -0.3637  0.3045
19773SOL     OW66368   3.959   1.183   9.207  0.5094  0.0232  0.0433
19773SOL    HW166369   4.031   1.127   9.237  0.8628 -0.4990 -1.7070
19773SOL    HW266370   3.890   1.121   9.181  0.6571  0.4119 -1.3073
19774SOL     OW66371   3.042  11.501   7.116  0.1394  0.1665 -0.1821
19774SOL    HW166372   2.973  11.434   7.111  0.4760 -0.1149 -1.2970
19774SOL    HW266373   3.015  11.568   7.054 -0.1585  1.0641  0.8762
19775SOL     OW66374   3.134  11.284  11.593  0.2535  0.3101  0.3387
19775SOL    HW166375   3.196  11.286  11.520  1.5603  1.8278  1.4080
19775SOL    HW266376   3.056  11.242  11.557  0.9348  0.7778 -1.8580
19776SOL     OW66377   4.417  11.135   4.415 -0.1353  0.3555  0.0368
19776SOL    HW166378   4.353  11.121   4.485 -0.6565  2.4364  0.0407
19776SOL    HW266379   4.502  11.134   4.459 -0.2458 -0.8615  0.2679
19777SOL     OW66380   3.984   9.790   6.537 -0.0559  0.0744  0.0829
19777SOL    HW166381   3.999   9.698   6.516 -1.7010 -0.3904  0.7450
19777SOL    HW266382   3.974   9.832   6.452  0.4949 -0.3969 -0.2220
19778SOL     OW66383  10.550   5.814   4.025  0.1672 -0.4624 -0.2770
19778SOL    HW166384  10.485   5.844   3.961  0.5429  1.1229  0.0578
19778SOL    HW266385  10.539   5.871   4.100  0.7750 -1.3199  0.4851
19779SOL     OW66386   9.798   1.030   7.344 -0.1114  0.5051 -0.0176
19779SOL    HW166387   9.703   1.030   7.353 -0.0905 -1.2227  0.5022
19779SOL    HW266388   9.831   1.020   7.433  0.4892 -0.5872 -0.3401
19780SOL     OW66389   3.655  12.515  11.466  0.1329 -0.3096 -0.2082
19780SOL    HW166390   3.666  12.545  11.557 -1.4715 -0.7277  0.1581
19780SOL    HW266391   3.744  12.510  11.432  0.7150  0.7912  1.0338
19781SOL     OW66392   7.749   9.124   5.584  0.0935 -0.3041 -0.2523
19781SOL    HW166393   7.788   9.045   5.621  1.2559 -0.3017 -1.3920
19781SOL    HW266394   7.752   9.111   5.489 -0.9602  0.5297 -0.4234
19782SOL     OW66395  10.457  12.545  10.202  0.0684  0.1332 -0.2945
19782SOL    HW166396  10.421  12.618  10.151 -1.4208 -0.5355 -0.2773
19782SOL    HW266397  10.381  12.488  10.217  1.1109 -1.2023  0.0512
19783SOL     OW66398  12.045   9.640   6.414 -0.6178  0.0378 -0.5348
19783SOL    HW166399  12.034   9.550   6.385  0.9915 -0.1820 -0.5646
19783SOL    HW266400  12.119   9.637   6.474 -0.7783  1.2810 -0.2517
19784SOL     OW66401   2.366   0.319   5.491  0.0248  0.0990 -0.1138
19784SOL    HW166402   2.435   0.381   5.513 -1.1033  1.3778 -0.0542
19784SOL    HW266403   2.311   0.365   5.429 -1.1406 -0.6424  0.3325
19785SOL     OW66404   9.850   7.020   8.615 -0.2905 -0.0413  0.2729
19785SOL    HW166405   9.858   6.979   8.701  0.0714 -0.4403  0.0570
19785SOL    HW266406   9.911   7.094   8.617 -0.8720  0.4368  0.6316
19786SOL     OW66407   9.394   3.861   2.884  0.3703 -0.6329  0.3243
19786SOL    HW166408   9.331   3.894   2.948  1.0348  0.8119  0.2608
19786SOL    HW266409   9.480   3.885   2.918  0.7049  2.4091 -2.1588
19787SOL     OW66410   3.202   3.582   9.040  0.1289 -0.5147  0.0870
19787SOL    HW166411   3.189   3.657   9.098 -1.0446 -0.9508  0.4035
19787SOL    HW266412   3.293   3.556   9.056  0.5181  0.7338  0.0825
19788SOL     OW66413   2.811   1.003   3.940 -0.6896  0.2758  0.2855
19788SOL    HW166414   2.901   0.993   3.971  1.1495 -1.2031 -4.6307
19788SOL    HW266415   2.767   1.054   4.009  3.0866 -1.1119  4.1262
19789SOL     OW66416   4.262   8.045   2.349 -1.2266 -0.1891 -0.5760
19789SOL    HW166417   4.213   8.114   2.304 -2.1262 -0.9601 -0.7947
19789SOL    HW266418   4.195   7.986   2.385 -0.4766 -1.1539 -0.7112
19790SOL     OW66419   7.833   2.786   6.369 -0.4128  0.0935  0.1121
19790SOL    HW166420   7.765   2.805   6.304  0.3479  0.9372 -0.4512
19790SOL    HW266421   7.784   2.758   6.446 -1.3089 -2.6386 -1.3023
19791SOL     OW66422   5.007  10.255   0.907 -0.0125 -0.3168  0.1801
19791SOL    HW166423   5.062  10.247   0.829  1.1234 -0.6244  0.9879
19791SOL    HW266424   5.055  10.315   0.964  0.0080 -1.4178  1.3469
19792SOL     OW66425   5.591   0.571   1.203  0.0100  0.2805  0.0541
19792SOL    HW166426   5.501   0.560   1.232 -0.3349 -0.9216 -1.3490
19792SOL    HW266427   5.590   0.546   1.111  1.1213  3.4810 -0.9715
19793SOL     OW66428   3.397  11.785   4.488  0.4821  0.4526 -0.2167
19793SOL    HW166429   3.406  11.824   4.402  0.3186  2.8853  0.8069
19793SOL    HW266430   3.302  11.779   4.502  0.4998  0.8804  0.1211
19794SOL     OW66431   2.951  10.323   2.967  0.7442 -0.1610  0.2374
19794SOL    HW166432   2.983  10.234   2.959  2.1896  0.3047  0.4802
19794SOL    HW266433   2.952  10.341   3.061  2.9308  0.9203  0.0661
19795SOL     OW66434  11.637   8.811  11.673  0.3643 -0.1545  0.0081
19795SOL    HW166435  11.674   8.879  11.729  0.8597 -0.8941  0.6074
19795SOL    HW266436  11.652   8.730  11.722  0.5743 -0.7858 -1.0858
19796SOL     OW66437   4.775  12.207   6.912  0.1761  0.0343 -0.4761
19796SOL    HW166438   4.793  12.134   6.971  0.7337  1.3826  1.1138
19796SOL    HW266439   4.720  12.266   6.963  1.3985  1.6656 -0.9366
19797SOL     OW66440  11.959   8.346   5.749  0.2767 -0.1266 -0.4800
19797SOL    HW166441  12.045   8.382   5.724 -0.0288  0.3885 -0.8061
19797SOL    HW266442  11.925   8.407   5.814 -0.3387  0.3153 -1.1943
19798SOL     OW66443   0.981   1.462  12.373 -0.6445  0.1493  0.3093
19798SOL    HW166444   0.897   1.480  12.415 -0.0747  1.8684  0.7989
19798SOL    HW266445   1.046   1.488  12.438  0.2906 -0.9894 -0.1264
19799SOL     OW66446  10.694   8.910   4.569 -0.2975  0.1947 -0.0260
19799SOL    HW166447  10.689   8.839   4.505  0.0684 -0.9373  1.1679
19799SOL    HW266448  10.605   8.944   4.575 -0.1291  1.1442 -1.9959
19800SOL     OW66449  12.492  11.598   3.443 -0.5473 -0.4870 -0.6093
19800SOL    HW166450  12.452  11.685   3.441 -1.7136 -0.8256  2.1435
19800SOL    HW266451  12.557  11.604   3.513 -1.8551 -2.1947  0.8550
19801SOL     OW66452   9.328   7.643  10.696 -0.0342  0.5389  0.4734
19801SOL    HW166453   9.237   7.654  10.668  1.0925 -0.0455 -4.1889
19801SOL    HW266454   9.370   7.727  10.677  0.6989  0.3855  1.3323
19802SOL     OW66455   3.136   0.189  12.471 -0.0463  0.9007  0.2391
19802SOL    HW166456   3.152   0.094  12.476 -0.3223  0.7919 -0.7120
19802SOL    HW266457   3.131   0.217  12.562  0.8779  0.1429  0.5424
19803SOL     OW66458   9.710   0.176  10.782  0.7733  0.3618 -0.4336
19803SOL    HW166459   9.769   0.101  10.787 -2.1795 -2.1702 -0.6557
19803SOL    HW266460   9.690   0.184  10.688  0.3588  0.8527 -0.3077
19804SOL     OW66461   5.685   5.551  10.850  0.1928 -0.0652 -0.2916
19804SOL    HW166462   5.691   5.480  10.914 -2.4943 -0.0642  0.0704
19804SOL    HW266463   5.653   5.626  10.900  1.8090  1.1117 -0.9178
19805SOL     OW66464   1.175   2.462   6.930  0.2048 -0.2661 -0.2550
19805SOL    HW166465   1.258   2.424   6.901  0.1125  1.2636 -2.8215
19805SOL    HW266466   1.201   2.543   6.976  0.2350  1.9480 -3.7936
19806SOL     OW66467   1.022   7.003   0.326 -0.1363 -0.4842  0.8634
19806SOL    HW166468   0.962   7.037   0.259  0.0193 -4.3353 -1.5567
19806SOL    HW266469   1.109   7.015   0.288  0.1984 -0.1447  1.7197
19807SOL     OW66470  10.631   9.956   9.379  0.2782  0.0034  0.2143
19807SOL    HW166471  10.590   9.872   9.361  0.1636  0.1397 -0.1833
19807SOL    HW266472  10.722   9.946   9.350  0.6168 -0.3961  1.3692
19808SOL     OW66473   8.957   7.493   6.554 -0.9344  0.9270 -0.2926
19808SOL    HW166474   8.954   7.501   6.650 -0.6872  1.2049 -0.3048
19808SOL    HW266475   8.971   7.399   6.538  0.0104  1.0135 -0.0260
19809SOL     OW66476   0.830  10.107   8.059 -0.1116 -0.2088  0.2616
19809SOL    HW166477   0.916  10.121   8.021 -0.4320 -0.5344 -0.6116
19809SOL    HW266478   0.796  10.195   8.076 -0.8972  0.0907 -2.3891
19810SOL     OW66479   8.412   3.844   0.926  0.5046 -0.2925  0.1930
19810SOL    HW166480   8.345   3.781   0.899 -0.9147  0.6032  1.4722
19810SOL    HW266481   8.367   3.902   0.987  2.4538  0.3901  1.0489
19811SOL     OW66482   2.676  11.927   4.056 -0.2725 -0.2925  0.7401
19811SOL    HW166483   2.763  11.964   4.071 -0.3767  1.1670 -1.7384
19811SOL    HW266484   2.684  11.879   3.973 -1.9382  0.4110  0.1154
19812SOL     OW66485   0.402  12.455   3.857 -0.0859 -0.4635  0.0160
19812SOL    HW166486   0.424  12.366   3.884  0.6405 -0.4699 -0.5623
19812SOL    HW266487   0.487  12.500   3.851 -0.5058  0.6406  1.5049
19813SOL     OW66488   7.151  10.384   4.881 -0.3226 -0.2657  0.1385
19813SOL    HW166489   7.135  10.290   4.888  1.8017 -0.7303 -0.3767
19813SOL    HW266490   7.221  10.400   4.945  0.3754  0.6506 -0.8276
19814SOL     OW66491  10.408   2.008   6.020  0.2634 -0.6081 -0.3223
19814SOL    HW166492  10.343   2.053   6.074 -2.8770 -1.8897 -2.7263
19814SOL    HW266493  10.455   1.952   6.081 -1.9226 -0.6982  1.4037
19815SOL     OW66494   4.880   4.847   4.185  1.0163  0.4637 -0.0054
19815SOL    HW166495   4.917   4.821   4.100  1.6356 -1.3053  0.7544
19815SOL    HW266496   4.830   4.927   4.166 -1.1319 -1.3044 -2.5805
19816SOL     OW66497  11.800  10.719   0.132  0.4322 -0.2774  0.6464
19816SOL    HW166498  11.747  10.673   0.067 -3.6541  1.2218  2.5518
19816SOL    HW266499  11.833  10.796   0.087  0.9172 -1.1658 -0.5661
19817SOL     OW66500   8.369   4.493   6.473 -0.6281  0.5988 -0.4220
19817SOL    HW166501   8.325   4.558   6.418 -0.7827 -0.4765 -1.6101
19817SOL    HW266502   8.455   4.481   6.432 -1.0433 -0.8044 -0.9529
19818SOL     OW66503   8.556   5.968   2.734  0.0534 -0.4611 -0.1131
19818SOL    HW166504   8.585   5.920   2.657 -0.3081  0.1209 -0.6192
19818SOL    HW266505   8.632   6.020   2.760  0.1659 -0.6355 -0.0902
19819SOL     OW66506   3.423  10.281   5.951  0.7063  0.1635 -0.1828
19819SOL    HW166507   3.492  10.341   5.921  1.1980 -0.0348  0.5180
19819SOL    HW266508   3.465  10.195   5.953  0.2845 -0.0474 -0.2492
19820SOL     OW66509   7.712   8.406   1.437  0.1427  0.3264  0.0783
19820SOL    HW166510   7.759   8.473   1.487  0.2209  0.0806  0.3397
19820SOL    HW266511   7.674   8.349   1.504  2.1419 -1.3477 -0.0853
19821SOL     OW66512   7.558   8.525  12.508 -0.0886 -0.5167  0.0958
19821SOL    HW166513   7.617   8.567  12.446 -0.1906 -0.3060  0.1390
19821SOL    HW266514   7.479   8.504  12.457 -0.3507  0.0607  0.2502
19822SOL     OW66515   2.551   2.452  11.991 -0.4251 -0.4855 -0.3383
19822SOL    HW166516   2.608   2.514  12.037 -1.4378 -0.4483  0.9454
19822SOL    HW266517   2.610   2.382  11.963  0.0645 -1.4189  2.6236
19823SOL     OW66518   9.241   7.359  12.328 -0.4489 -0.5067  0.0239
19823SOL    HW166519   9.146   7.368  12.333 -0.4825  0.5712 -1.7199
19823SOL    HW266520   9.257   7.319  12.242  0.7596  3.1921 -1.7029
19824SOL     OW66521   6.871   5.782  10.884 -0.8304 -0.0622  0.7072
19824SOL    HW166522   6.961   5.774  10.915 -0.8465 -0.1967  0.7197
19824SOL    HW266523   6.826   5.706  10.920 -0.6395 -0.7144 -0.4022
19825SOL     OW66524  12.205   7.350   0.234  0.2577 -0.3495  0.4278
19825SOL    HW166525  12.169   7.280   0.179 -0.5006  2.0122 -2.3996
19825SOL    HW266526  12.127   7.397   0.265  0.6159  2.1964 -2.0877
19826SOL     OW66527   2.044   7.037   8.519 -0.1388  0.4721  0.1268
19826SOL    HW166528   2.135   7.014   8.499  0.2348  0.6257  1.4910
19826SOL    HW266529   1.995   7.016   8.440  0.8444 -1.0364 -0.1246
19827SOL     OW66530   3.482   7.839  10.162  0.3687 -0.0684  0.8742
19827SOL    HW166531   3.389   7.845  10.183  0.2648  0.2068  0.3593
19827SOL    HW266532   3.527   7.849  10.246 -0.0622 -0.0499  1.1017
19828SOL     OW66533   5.895  11.790  11.816 -0.0634 -0.2169  0.2002
19828SOL    HW166534   5.916  11.708  11.772 -1.4499 -0.6831  0.3558
19828SOL    HW266535   5.869  11.764  11.905  1.4510  0.5935  0.9249
19829SOL     OW66536   4.269   5.838   5.053 -0.8439 -0.9658 -0.6067
19829SOL    HW166537   4.355   5.798   5.042 -1.2076 -1.6596 -0.9962
19829SOL    HW266538   4.220   5.812   4.974 -1.5154 -0.8756 -0.2295
19830SOL     OW66539   1.611  12.389   9.283  0.5157 -0.1643 -0.0611
19830SOL    HW166540   1.580  12.334   9.354  3.3510 -2.2742 -0.2914
19830SOL    HW266541   1.644  12.468   9.326 -0.0335 -0.3409  0.6930
19831SOL     OW66542   8.549   8.297   3.623  0.3318 -0.3777  0.0387
19831SOL    HW166543   8.468   8.309   3.672 -0.0228 -1.5106 -0.2402
19831SOL    HW266544   8.530   8.332   3.536  0.3097 -0.1700  0.1278
19832SOL     OW66545   0.065   3.455   0.658  0.2168 -1.1028 -0.2428
19832SOL    HW166546   0.040   3.445   0.750 -1.7094 -0.4323 -0.6427
19832SOL    HW266547   0.160   3.440   0.657  0.3933 -0.4896  1.9386
19833SOL     OW66548   5.903  11.878   2.692  0.0978 -0.5234 -0.0055
19833SOL    HW166549   5.818  11.878   2.736  0.7423 -0.6414  1.2834
19833SOL    HW266550   5.962  11.832   2.752  1.4115  0.8184 -0.1864
19834SOL     OW66551   4.089  11.091  11.452  0.0402 -0.4742 -0.4038
19834SOL    HW166552   4.035  11.170  11.459  0.7237 -0.0852  0.7065
19834SOL    HW266553   4.043  11.025  11.505  1.8240  0.5623  2.6645
19835SOL     OW66554  12.037   1.481   8.636  0.6546 -0.5644  0.0062
19835SOL    HW166555  12.064   1.571   8.618 -1.4615 -0.0206 -0.7632
19835SOL    HW266556  12.035   1.475   8.732  4.0958 -0.9366  0.1933
19836SOL     OW66557   0.819   1.591   2.760 -0.3260  0.2952 -0.0540
19836SOL    HW166558   0.805   1.497   2.758 -0.1866  0.2732  0.0122
19836SOL    HW266559   0.898   1.603   2.812 -0.4045  0.4560  0.0298
19837SOL     OW66560   9.831   6.618   3.575  0.0352 -0.0906  0.0193
19837SOL    HW166561   9.880   6.640   3.495 -0.5834  0.3438 -0.2433
19837SOL    HW266562   9.753   6.672   3.571  0.5989  0.8962  1.5675
19838SOL     OW66563   5.479   1.547   2.792 -0.0719  0.0373  0.1267
19838SOL    HW166564   5.476   1.500   2.875  0.3422 -0.7063 -0.2769
19838SOL    HW266565   5.390   1.538   2.757 -0.6841  1.6119  1.1584
19839SOL     OW66566   9.318  12.313   0.348 -0.2697 -0.2925  0.3750
19839SOL    HW166567   9.308  12.376   0.420  0.2452 -1.9288  1.9470
19839SOL    HW266568   9.400  12.338   0.306 -1.6035  2.0030 -1.0963
19840SOL     OW66569   1.163   4.732   4.158  0.1202 -0.1705 -0.2263
19840SOL    HW166570   1.069   4.740   4.147  0.2588  1.6898 -0.4716
19840SOL    HW266571   1.193   4.680   4.084 -0.7359 -1.1087  0.0699
19841SOL     OW66572   9.078  11.672  10.354 -0.1799 -0.3690 -0.3946
19841SOL    HW166573   9.091  11.607  10.423  1.1005 -0.2887 -0.5325
19841SOL    HW266574   9.112  11.754  10.391 -1.2143  0.1014 -0.4471
19842SOL     OW66575  11.016   0.883  11.527  0.0724  0.4546 -0.0788
19842SOL    HW166576  11.072   0.871  11.604  0.2406  0.2640 -0.2283
19842SOL    HW266577  11.059   0.952  11.476 -1.0772  1.9959  0.9551
19843SOL     OW66578   7.742   0.777   4.007 -0.3924  0.7500 -0.1853
19843SOL    HW166579   7.769   0.864   3.977 -0.2583  0.2374 -1.6346
19843SOL    HW266580   7.677   0.794   4.075 -1.1822  1.9816 -1.2082
19844SOL     OW66581   7.767   3.899   5.140  0.1502  0.0945 -0.1253
19844SOL    HW166582   7.768   3.958   5.064 -0.8745 -1.6211 -1.5531
19844SOL    HW266583   7.727   3.819   5.107  2.6214 -1.9026  1.3726
19845SOL     OW66584   1.634   0.327   4.610 -0.2853 -0.3106 -0.3598
19845SOL    HW166585   1.656   0.252   4.666 -0.0384  0.3613  0.4679
19845SOL    HW266586   1.633   0.402   4.670 -2.1372  0.1111 -0.8497
19846SOL     OW66587   1.410   7.577   0.159 -0.0511 -0.0816  0.1562
19846SOL    HW166588   1.395   7.646   0.095  2.6416 -0.4949 -1.0666
19846SOL    HW266589   1.452   7.622   0.233  0.5718 -0.2109 -0.1154
19847SOL     OW66590   8.647   5.913   6.902  0.9180 -0.2264  0.0703
19847SOL    HW166591   8.612   5.955   6.981  0.7982  1.0109 -0.6146
19847SOL    HW266592   8.624   5.821   6.912 -0.7367  0.1957  0.6286
19848SOL     OW66593   9.774   2.989   9.227 -0.0239  0.6566 -0.6030
19848SOL    HW166594   9.682   2.981   9.201  0.0820  0.3272 -0.8758
19848SOL    HW266595   9.800   3.076   9.196  0.7872 -0.5887 -3.8246
19849SOL     OW66596   4.516   7.513   6.188  0.0479 -0.0172  0.0013
19849SOL    HW166597   4.566   7.434   6.166  1.6820  1.0495 -0.3784
19849SOL    HW266598   4.562   7.584   6.141  0.9725  1.7311  3.2471
19850SOL     OW66599  12.452   8.353   7.076 -0.6398  0.0326  0.1646
19850SOL    HW166600  12.394   8.278   7.064 -0.3486 -0.0988 -0.4698
19850SOL    HW266601  12.534   8.328   7.033 -1.1240  1.3936 -1.7207
19851SOL     OW66602  12.308   8.594   9.208  0.5688  0.0172 -0.0332
19851SOL    HW166603  12.243   8.571   9.275  1.8289 -1.3849  0.7741
19851SOL    HW266604  12.277   8.677   9.172 -1.5006 -0.4490  0.5255
19852SOL     OW66605   5.234  12.363   2.492 -0.1507  0.2292  0.6228
19852SOL    HW166606   5.284  12.327   2.565 -1.4762 -0.7613  1.0760
19852SOL    HW266607   5.142  12.350   2.517 -0.6424  1.3787 -0.4859
19853SOL     OW66608  11.329   8.146   1.317  0.3440  0.3483 -0.0988
19853SOL    HW166609  11.283   8.142   1.233 -2.2399  0.0215  1.1954
19853SOL    HW266610  11.364   8.057   1.329 -1.0600 -0.2191  0.0289
19854SOL     OW66611   0.722  11.510   0.832  0.1520 -0.2285 -0.4571
19854SOL    HW166612   0.661  11.475   0.767 -0.8177 -0.1022  0.3409
19854SOL    HW266613   0.677  11.496   0.916 -0.2069  2.6873 -0.0425
19855SOL     OW66614   3.861   1.119   6.616  0.2306 -0.1787 -0.8029
19855SOL    HW166615   3.860   1.138   6.710 -0.3045  1.2848 -1.0817
19855SOL    HW266616   3.922   1.046   6.607 -0.3731 -0.9289  0.7831
19856SOL     OW66617   8.978   6.570   0.302 -0.6334  0.1562  0.1842
19856SOL    HW166618   8.992   6.479   0.275 -1.3551  0.4911 -1.4981
19856SOL    HW266619   9.056   6.617   0.272 -0.7840  0.2806 -0.0197
19857SOL     OW66620  10.324   4.497   3.541 -0.3795  0.2377 -0.2812
19857SOL    HW166621  10.354   4.588   3.537 -0.3400  0.1926 -1.8098
19857SOL    HW266622  10.316   4.471   3.449 -1.9030 -0.8191  0.1233
19858SOL     OW66623   8.608   7.397  12.206 -0.0389  0.1001  0.3204
19858SOL    HW166624   8.648   7.310  12.194 -0.5814 -0.0536 -0.4791
19858SOL    HW266625   8.603   7.408  12.301  0.4480 -0.5500  0.4354
19859SOL     OW66626  10.518   7.297   8.105  0.2302 -0.3765 -0.2008
19859SOL    HW166627  10.462   7.348   8.046  0.8303  1.0607  0.4118
19859SOL    HW266628  10.480   7.210   8.105 -1.2477  0.2284 -0.7773
19860SOL     OW66629   5.612  10.505   4.258  0.8093 -0.5794 -0.0744
19860SOL    HW166630   5.620  10.411   4.242 -0.5866 -0.3514 -2.7910
19860SOL    HW266631   5.549  10.512   4.330  2.5847 -1.6963  1.6747
19861SOL     OW66632   6.169   3.181  11.548  0.4209  0.5266  0.2939
19861SOL    HW166633   6.213   3.234  11.481  0.8018 -0.9619 -0.6635
19861SOL    HW266634   6.122   3.114  11.499  1.8551 -1.4914  1.5327
19862SOL     OW66635  11.465   9.185   6.091 -0.0467 -0.3786  0.1441
19862SOL    HW166636  11.472   9.278   6.111 -1.1773 -0.3024  0.2450
19862SOL    HW266637  11.473   9.180   5.996  0.5453 -0.2429  0.1823
19863SOL     OW66638  11.100   3.023   7.141  0.3552 -0.2400 -0.1047
19863SOL    HW166639  11.170   3.088   7.151 -0.2260  0.5844 -1.1983
19863SOL    HW266640  11.055   3.049   7.061 -0.3797 -1.5526 -0.1368
19864SOL     OW66641   5.437   8.792  10.533  0.0316 -1.0210  0.2225
19864SOL    HW166642   5.379   8.726  10.572  1.4078 -2.1529  0.4714
19864SOL    HW266643   5.445   8.859  10.601 -0.0251 -1.4660  0.6813
19865SOL     OW66644   5.309  11.793   8.866  0.0531 -0.3048 -0.1301
19865SOL    HW166645   5.395  11.833   8.883 -0.3877  0.9194 -0.6997
19865SOL    HW266646   5.309  11.774   8.772 -0.7022  0.7018 -0.3444
19866SOL     OW66647   9.649   1.930   2.813 -0.6718  0.0927  0.0291
19866SOL    HW166648   9.683   1.958   2.728 -2.4760  0.4060 -0.6437
19866SOL    HW266649   9.698   1.982   2.877 -0.8887  1.5924 -0.9589
19867SOL     OW66650   7.429   8.070   5.735 -0.2047 -0.1748  0.2583
19867SOL    HW166651   7.440   8.140   5.671 -0.3743 -1.3668 -1.1122
19867SOL    HW266652   7.338   8.043   5.727  0.3300 -1.8645 -0.6666
19868SOL     OW66653   9.222   2.047   5.802 -0.2686 -0.5734 -0.5103
19868SOL    HW166654   9.293   2.083   5.856 -0.3575 -0.5041 -0.4408
19868SOL    HW266655   9.253   2.059   5.712 -0.6916  0.5213 -0.5288
19869SOL     OW66656   4.308   1.142   3.160  0.1574 -0.2082  0.2937
19869SOL    HW166657   4.395   1.158   3.123  0.0326  0.5304  0.3084
19869SOL    HW266658   4.326   1.119   3.252  0.3411 -0.0377  0.3024
19870SOL     OW66659   4.200   9.958   7.890  0.4110 -0.3336  0.4863
19870SOL    HW166660   4.294   9.956   7.911  0.5956  0.6524 -0.1674
19870SOL    HW266661   4.156   9.963   7.975  0.8323 -2.8554  0.9325
19871SOL     OW66662   5.293   1.507   4.514 -0.0423  0.3858  0.4693
19871SOL    HW166663   5.292   1.434   4.575 -1.2612  0.9300  1.1288
19871SOL    HW266664   5.325   1.469   4.432 -2.0203 -1.2365  0.3665
19872SOL     OW66665   4.858   8.134   9.927 -0.0042  0.6952  0.4770
19872SOL    HW166666   4.765   8.117   9.912 -0.1699  1.4138  0.6403
19872SOL    HW266667   4.860   8.218   9.972  0.7910  1.5759 -1.0884
19873SOL     OW66668  10.023   7.402   5.192  0.3998  0.7299  0.1554
19873SOL    HW166669   9.964   7.366   5.127  0.0363 -0.3856  1.0542
19873SOL    HW266670  10.110   7.377   5.162  0.0974 -3.8257  2.2047
19874SOL     OW66671  12.453  11.787   2.657  0.7070  0.2679 -0.2271
19874SOL    HW166672  12.485  11.824   2.739 -0.0271 -0.8005  0.5823
19874SOL    HW266673  12.422  11.862   2.607 -0.5288  0.8030  1.2492
19875SOL     OW66674   8.947  10.282   4.618  0.1008 -0.0752 -0.3421
19875SOL    HW166675   8.931  10.257   4.709 -2.4106  1.2279 -0.3560
19875SOL    HW266676   9.042  10.296   4.614  0.3017 -0.3290  2.0020
19876SOL     OW66677   9.972   9.327   6.958 -0.2000  0.7517  0.0487
19876SOL    HW166678   9.962   9.406   6.906 -0.1237  1.7563  1.4817
19876SOL    HW266679   9.882   9.294   6.968 -0.0101 -0.8360 -2.6546
19877SOL     OW66680  11.943   1.223   8.233 -0.1337 -0.0632 -0.2694
19877SOL    HW166681  11.894   1.251   8.310  1.2188 -0.7186  0.8698
19877SOL    HW266682  11.890   1.153   8.195 -2.0729  1.9209 -1.4574
19878SOL     OW66683   6.843   6.303   9.409  0.4704  0.1556  0.0247
19878SOL    HW166684   6.827   6.397   9.408  2.2422  0.5258 -2.2265
19878SOL    HW266685   6.757   6.264   9.394 -0.0878  1.4791 -0.3465
19879SOL     OW66686  10.311  12.306   0.396  0.2737  0.0809  0.1978
19879SOL    HW166687  10.335  12.300   0.489 -1.4167  0.0089  0.6553
19879SOL    HW266688  10.220  12.277   0.393  0.1133  0.6703 -1.4043
19880SOL     OW66689  10.918   1.227   5.828  0.4642 -0.2946 -0.5444
19880SOL    HW166690  11.013   1.237   5.834  0.2912  1.8999 -0.6006
19880SOL    HW266691  10.893   1.277   5.751 -0.8086 -0.1819 -0.0881
19881SOL     OW66692   4.051   3.783  11.561  0.1278 -0.0919 -0.5136
19881SOL    HW166693   4.106   3.841  11.613  1.4547 -1.1655 -0.6746
19881SOL    HW266694   3.972   3.771  11.613  1.0795 -0.4750  0.8981
19882SOL     OW66695   7.194   0.982   0.113  0.1100  0.1417 -0.4792
19882SOL    HW166696   7.286   0.961   0.133 -0.6700 -0.6924  2.6394
19882SOL    HW266697   7.192   1.077   0.111  0.7945  0.2139  0.9462
19883SOL     OW66698   6.163   4.624   5.259 -0.3679 -0.0247 -0.0955
19883SOL    HW166699   6.236   4.581   5.216 -0.1281 -0.6352  0.8774
19883SOL    HW266700   6.087   4.570   5.237 -0.4574  0.3461 -0.7223
19884SOL     OW66701   6.164   9.399   7.296 -0.0767  0.0840  0.1307
19884SOL    HW166702   6.192   9.436   7.212 -0.0125  0.9939  0.5497
19884SOL    HW266703   6.200   9.310   7.295 -1.3361 -0.4494 -1.4377
19885SOL     OW66704  11.837   4.024   7.031  0.1578  0.7523 -0.0642
19885SOL    HW166705  11.778   4.052   7.101  0.7842  0.4098  0.6209
19885SOL    HW266706  11.896   3.961   7.073  1.9318  2.1373 -0.3495
19886SOL     OW66707  10.993   3.653   2.121 -0.0421  0.1477 -0.0438
19886SOL    HW166708  10.966   3.589   2.186 -2.3280  0.4128 -0.6472
19886SOL    HW266709  10.914   3.669   2.068  1.0883  1.6987 -1.3819
19887SOL     OW66710   5.781   8.497   9.417  0.2594 -0.4829  0.0759
19887SOL    HW166711   5.856   8.555   9.408 -0.1704  0.2100  0.8514
19887SOL    HW266712   5.781   8.470   9.509  0.1393 -1.2920 -0.1471
19888SOL     OW66713   0.207   6.721  11.212  0.5005 -0.0564 -0.2853
19888SOL    HW166714   0.117   6.730  11.180  0.1871 -0.7474  0.3693
19888SOL    HW266715   0.219   6.795  11.271  0.4043  0.1165 -0.4836
19889SOL     OW66716   0.467   6.634   3.397  0.1984 -0.1034 -0.4531
19889SOL    HW166717   0.476   6.551   3.443  1.5400  0.7984  1.0164
19889SOL    HW266718   0.517   6.622   3.316 -0.1516 -0.9244 -0.5577
19890SOL     OW66719  11.815   5.294  12.506 -0.7881  0.4315 -0.2314
19890SOL    HW166720  11.733   5.344  12.514 -1.4176 -0.7257  0.7785
19890SOL    HW266721  11.883   5.358  12.525 -1.6154  0.7671  1.8206
19891SOL     OW66722   9.788  10.883   9.076 -0.0913 -0.9430 -0.0632
19891SOL    HW166723   9.765  10.946   9.145 -0.1873 -0.5312 -0.4701
19891SOL    HW266724   9.706  10.842   9.051 -0.0438 -1.1572  0.1282
19892SOL     OW66725   8.252  12.446   0.518  0.2021 -0.8354 -0.0596
19892SOL    HW166726   8.328  12.428   0.462  3.0982 -1.1106  3.5762
19892SOL    HW266727   8.264  12.537   0.546 -1.2689 -0.6344 -0.0011
19893SOL     OW66728   6.124   1.159   0.797 -0.0585  0.7959 -0.1142
19893SOL    HW166729   6.082   1.078   0.766  0.2370  0.8315 -0.6318
19893SOL    HW266730   6.072   1.186   0.872 -0.4550  0.3875 -0.2360
19894SOL     OW66731   7.667   1.561   6.347 -1.0372 -0.4693  0.1078
19894SOL    HW166732   7.735   1.563   6.414 -2.2116 -1.4807  1.4061
19894SOL    HW266733   7.697   1.496   6.283 -0.4025 -0.2888  0.2229
19895SOL     OW66734   8.852   5.096  11.903 -0.2775 -0.5376 -1.0134
19895SOL    HW166735   8.873   5.049  11.984  0.5743  0.6930 -0.4896
19895SOL    HW266736   8.759   5.079  11.889 -0.1176 -1.9527 -0.5891
19896SOL     OW66737  12.577   2.694   7.417 -0.3212  0.4470  0.4140
19896SOL    HW166738  12.656   2.709   7.366 -0.1334 -0.0664  0.5415
19896SOL    HW266739  12.590   2.607   7.456 -0.4386  0.8360  1.3629
19897SOL     OW66740   2.158   4.131   9.832 -0.6659  0.4162 -0.0913
19897SOL    HW166741   2.126   4.212   9.871  0.0857  0.0706  1.3064
19897SOL    HW266742   2.115   4.061   9.882  0.8340 -0.0381  0.6355
19898SOL     OW66743  10.668   7.450   6.063 -0.0684 -0.5765 -0.6253
19898SOL    HW166744  10.714   7.375   6.101  2.1905  0.2241 -1.6118
19898SOL    HW266745  10.601   7.412   6.007 -0.5343 -1.7907  0.6970
19899SOL     OW66746   5.605   7.816  11.056 -0.2181  0.4885 -0.1780
19899SOL    HW166747   5.699   7.797  11.055 -0.5131 -1.0597  0.2151
19899SOL    HW266748   5.599   7.903  11.015  1.3450  0.4816 -0.5082
19900SOL     OW66749  12.179   0.522  11.418 -0.0093  0.1234 -0.4325
19900SOL    HW166750  12.251   0.476  11.460  0.0534  1.0743  0.5433
19900SOL    HW266751  12.177   0.487  11.329  0.7275 -0.9469 -0.0480
19901SOL     OW66752   0.998   7.018   9.371 -0.0135 -0.2594  0.6225
19901SOL    HW166753   0.929   7.080   9.346  0.1860  0.2509  1.2973
19901SOL    HW266754   0.962   6.972   9.447 -0.5722 -1.7221 -0.4603
19902SOL     OW66755   7.781   2.397   7.496  0.2398  0.1254  0.4524
19902SOL    HW166756   7.695   2.419   7.531 -0.6471  0.3280 -1.6626
19902SOL    HW266757   7.835   2.379   7.573 -1.8238 -0.5364  1.8215
19903SOL     OW66758  11.739   2.813   1.355 -0.1937  0.1299 -0.2558
19903SOL    HW166759  11.797   2.747   1.317  0.6472 -0.0698  1.3015
19903SOL    HW266760  11.740   2.795   1.449 -0.6707  1.7993  0.1015
19904SOL     OW66761   7.351   8.418   3.956  0.0534  0.0442  0.0649
19904SOL    HW166762   7.312   8.336   3.926 -0.8296  0.0236  1.1831
19904SOL    HW266763   7.329   8.482   3.888 -1.5901 -0.0763  0.4393
19905SOL     OW66764   3.101  10.631   3.697  0.3550  0.7160 -0.5694
19905SOL    HW166765   3.191  10.658   3.716  0.4901 -0.8884  1.4172
19905SOL    HW266766   3.105  10.594   3.609  1.6943  0.4815 -0.4373
19906SOL     OW66767  10.153   9.663   3.958 -0.4127  0.1499  0.9851
19906SOL    HW166768  10.189   9.626   3.878  2.3494  2.0253  1.2239
19906SOL    HW266769  10.098   9.593   3.995  2.4495 -2.7639  0.1632
19907SOL     OW66770  11.642  12.246   4.525 -0.2426  0.0333  0.7622
19907SOL    HW166771  11.730  12.224   4.495 -0.7031  2.6982 -3.5775
19907SOL    HW266772  11.647  12.339   4.549 -1.5552 -0.2242  2.2307
19908SOL     OW66773   1.120   2.680   0.887 -0.3925  0.0518 -0.0947
19908SOL    HW166774   1.081   2.718   0.965 -0.9553 -1.5410  0.4525
19908SOL    HW266775   1.046   2.646   0.837  0.1190 -1.1740 -0.0613
19909SOL     OW66776   1.786   7.436   4.049 -0.1895  0.1106  0.0937
19909SOL    HW166777   1.808   7.348   4.018  0.0194 -0.3407  1.4487
19909SOL    HW266778   1.755   7.482   3.971  1.2270 -0.6588 -0.9599
19910SOL     OW66779   3.337   1.867  10.135 -0.2308 -0.1169 -0.6818
19910SOL    HW166780   3.256   1.822  10.110 -1.1658  0.9544  0.3208
19910SOL    HW266781   3.313   1.959  10.139  1.5170  0.4524 -2.1691
19911SOL     OW66782  10.415   5.340  11.741  0.2166 -0.2149 -0.1711
19911SOL    HW166783  10.393   5.375  11.827  1.6707  0.6634 -0.1107
19911SOL    HW266784  10.386   5.408  11.680 -0.6905 -0.7763 -0.3955
19912SOL     OW66785   1.145   0.006   6.835  0.4157 -0.0974  0.6587
19912SOL    HW166786   1.134   0.053   6.753 -0.1895  1.1344  1.4098
19912SOL    HW266787   1.071  -0.054   6.840 -0.0368  0.4513  0.6890
19913SOL     OW66788   6.257   9.115   3.207  0.3907  0.3246  0.0071
19913SOL    HW166789   6.233   9.025   3.230  1.9464  0.0151  0.5991
19913SOL    HW266790   6.268   9.113   3.112  0.1742 -0.0501 -0.0107
19914SOL     OW66791   4.387   7.828   8.632 -0.0830  0.1900  0.6330
19914SOL    HW166792   4.425   7.878   8.559 -0.7806  0.9950  0.8018
19914SOL    HW266793   4.294   7.822   8.610 -0.2516  0.2115  1.3243
19915SOL     OW66794  12.554   6.774  11.134 -0.0848  0.4680  0.1510
19915SOL    HW166795  12.517   6.861  11.118 -0.0009  0.7938  1.5314
19915SOL    HW266796  12.514   6.746  11.217  1.5481  0.1656  0.8772
19916SOL     OW66797   2.185   8.014   5.531 -1.0207 -0.9028 -0.0573
19916SOL    HW166798   2.127   7.958   5.583 -1.4592 -0.4771 -0.0836
19916SOL    HW266799   2.249   7.953   5.493 -2.0406 -1.5367 -0.8315
19917SOL     OW66800   7.209   5.948   1.448 -0.0559 -0.6951 -0.5977
19917SOL    HW166801   7.181   5.904   1.528  0.6038 -0.7131 -0.3767
19917SOL    HW266802   7.277   5.892   1.412 -0.1858 -0.5658 -1.0482
19918SOL     OW66803  11.603   6.578   5.229 -0.3085 -0.2847  0.4265
19918SOL    HW166804  11.572   6.521   5.299 -0.3546 -0.2160  0.4619
19918SOL    HW266805  11.644   6.518   5.166  0.4396 -0.2735  0.8850
19919SOL     OW66806   2.123   4.696   8.799 -0.1064  0.4508 -1.0109
19919SOL    HW166807   2.116   4.671   8.707  1.6576 -4.5814 -0.0963
19919SOL    HW266808   2.035   4.683   8.834  0.2039 -3.0459 -1.1315
19920SOL     OW66809   0.491   1.804   5.199  0.3918  0.5058 -0.3614
19920SOL    HW166810   0.561   1.799   5.263  1.3385  2.7591 -1.1339
19920SOL    HW266811   0.412   1.821   5.251  0.8840  0.7577  0.3146
19921SOL     OW66812   2.457   9.180   9.934 -0.7626  0.1043 -0.3674
19921SOL    HW166813   2.404   9.213  10.007 -0.7181  0.5271 -0.5232
19921SOL    HW266814   2.525   9.127   9.977 -0.2456  1.0117 -0.0322
19922SOL     OW66815   0.692   4.442   3.885 -0.0806 -0.0115 -0.3014
19922SOL    HW166816   0.661   4.351   3.881 -1.0381  0.2640  0.4033
19922SOL    HW266817   0.679   4.467   3.976 -0.9027  1.1930 -0.7313
19923SOL     OW66818   7.944   5.987   5.000  0.2002  0.4431  0.2909
19923SOL    HW166819   7.866   5.980   5.055 -0.3342 -1.7872 -0.6293
19923SOL    HW266820   8.012   6.022   5.058 -0.9690  0.5362  1.6525
19924SOL     OW66821  12.520   9.429  10.509 -0.3375  0.2530 -0.0450
19924SOL    HW166822  12.558   9.380  10.582  0.7593 -0.4310 -1.0459
19924SOL    HW266823  12.555   9.386  10.431 -0.8578  1.4696 -0.9668
19925SOL     OW66824  11.479   0.301   6.386 -0.5022 -0.0526  0.1712
19925SOL    HW166825  11.478   0.208   6.367 -0.3743 -0.1057  0.4128
19925SOL    HW266826  11.526   0.341   6.312 -0.2173 -0.2261  0.2552
19926SOL     OW66827   7.773   8.484   2.233 -0.1409  0.0158  0.2956
19926SOL    HW166828   7.861   8.476   2.197 -0.1821  0.5261  0.0764
19926SOL    HW266829   7.784   8.467   2.327 -0.0276 -1.2745  0.0611
19927SOL     OW66830   3.334   8.209   2.805  0.6549 -0.5914 -0.3297
19927SOL    HW166831   3.351   8.125   2.848  1.5342 -0.7190 -0.8890
19927SOL    HW266832   3.283   8.187   2.727  0.8349 -0.6068 -0.4448
19928SOL     OW66833   8.507   2.631   4.002  0.3737 -0.2640  0.4013
19928SOL    HW166834   8.440   2.699   3.995  1.2125  0.4052 -2.5740
19928SOL    HW266835   8.589   2.679   4.008  0.8192 -1.0519  0.7395
19929SOL     OW66836   1.459   4.108   7.977 -0.0034  0.6083 -0.3795
19929SOL    HW166837   1.437   4.024   8.016  2.3388  0.4704  0.7992
19929SOL    HW266838   1.408   4.172   8.027 -0.2083  0.0784  0.1004
19930SOL     OW66839   3.215   6.785   1.542 -0.2269  0.5759  0.3072
19930SOL    HW166840   3.212   6.778   1.637  0.5105  0.5157  0.3304
19930SOL    HW266841   3.129   6.820   1.518  0.0949  1.9963  1.1205
19931SOL     OW66842   3.286   8.568   0.073 -0.1576  0.6049 -0.1796
19931SOL    HW166843   3.235   8.539   0.149  1.7947 -1.4834  0.4642
19931SOL    HW266844   3.255   8.512   0.002 -0.6622  1.2566 -0.4817
19932SOL     OW66845   9.661   3.808  10.683  0.1823 -0.3425 -0.4224
19932SOL    HW166846   9.743   3.809  10.733  0.0046  0.7371 -0.1121
19932SOL    HW266847   9.600   3.760  10.738  0.0541  0.6319  0.3066
19933SOL     OW66848   6.215  10.071   9.961 -0.3748 -0.0064  0.1954
19933SOL    HW166849   6.308  10.055   9.945 -0.4762 -0.2633 -0.1489
19933SOL    HW266850   6.174   9.985   9.953 -0.9648  0.4171 -1.9057
19934SOL     OW66851  12.310   3.646   0.722 -0.1655  0.0686  0.1555
19934SOL    HW166852  12.232   3.649   0.778  0.0914 -1.5852  0.6697
19934SOL    HW266853  12.382   3.665   0.782 -0.0983  0.8607 -0.1687
19935SOL     OW66854   4.663   1.791   9.607  0.3312 -0.0072  0.3322
19935SOL    HW166855   4.722   1.792   9.682 -0.5907 -1.8478  1.1310
19935SOL    HW266856   4.612   1.711   9.617 -1.3193  0.7972 -1.1032
19936SOL     OW66857   4.316   5.526   5.383 -0.6122  0.0212 -0.5450
19936SOL    HW166858   4.391   5.472   5.358 -0.9864  0.1572 -2.1151
19936SOL    HW266859   4.258   5.467   5.431  1.5096  0.4861  2.9419
19937SOL     OW66860  10.728  10.749   4.889 -0.2774 -0.7838  0.3298
19937SOL    HW166861  10.769  10.803   4.957 -0.9682 -0.8082  0.7714
19937SOL    HW266862  10.753  10.792   4.807  0.3531 -0.6099  0.6048
19938SOL     OW66863   7.358   1.644   9.590 -0.0848  0.3832  0.8802
19938SOL    HW166864   7.416   1.696   9.534  0.7233 -1.1585  0.2313
19938SOL    HW266865   7.270   1.662   9.556  0.2892  0.4010 -0.1303
19939SOL     OW66866   6.375   5.647   0.728  0.1655  0.1238 -0.4665
19939SOL    HW166867   6.394   5.620   0.818  1.3794  2.8229  0.1855
19939SOL    HW266868   6.363   5.565   0.681  5.3379 -1.7753  0.8827
19940SOL     OW66869   5.572  11.587   4.125 -0.2057 -0.5472 -0.1759
19940SOL    HW166870   5.610  11.645   4.060  2.1685 -0.2103  1.3924
19940SOL    HW266871   5.618  11.504   4.114  0.3577 -0.4374  1.1233
19941SOL     OW66872   8.269   1.072  10.200 -0.2731 -0.4003  0.4615
19941SOL    HW166873   8.346   1.032  10.240 -0.8692 -1.1149  0.9320
19941SOL    HW266874   8.230   1.002  10.147 -0.2097  0.1615 -0.3533
19942SOL     OW66875   4.127  12.446   9.851  0.5810  0.0670  0.0159
19942SOL    HW166876   4.118  12.493   9.768 -1.8129  1.4377  0.9504
19942SOL    HW266877   4.071  12.369   9.842  1.6404 -0.6996 -0.2031
19943SOL     OW66878  12.561   1.384   9.290 -0.0665  0.1691 -0.2254
19943SOL    HW166879  12.598   1.300   9.266 -0.5922  0.0495 -0.6285
19943SOL    HW266880  12.506   1.366   9.366  1.1856  0.4586  0.7912
19944SOL     OW66881   5.190   7.618   3.732  0.3811 -0.0594 -0.5005
19944SOL    HW166882   5.186   7.555   3.805 -1.9701  0.4860 -0.0871
19944SOL    HW266883   5.102   7.655   3.727  0.5317  0.1127 -3.4975
19945SOL     OW66884   1.105  10.386  10.543  0.0464 -0.1076  0.1902
19945SOL    HW166885   1.018  10.408  10.509 -0.8088 -2.3720  0.7070
19945SOL    HW266886   1.165  10.410  10.472 -0.9558  1.6825 -0.1036
19946SOL     OW66887   7.082   3.031   0.005 -0.3253 -0.3011  0.3639
19946SOL    HW166888   7.142   3.096  -0.031 -1.1992 -0.4565 -1.4832
19946SOL    HW266889   7.132   2.990   0.076  1.2010  0.5712 -0.1439
19947SOL     OW66890  10.655   1.327   1.547 -0.4232 -0.1861 -0.0028
19947SOL    HW166891  10.666   1.251   1.489  1.3121  0.0844 -0.1034
19947SOL    HW266892  10.683   1.401   1.493  0.9507  0.1041  1.0689
19948SOL     OW66893   8.040   6.099   3.073 -0.0478  0.1241 -0.1342
19948SOL    HW166894   8.116   6.055   3.110 -0.3900 -0.8399 -0.5563
19948SOL    HW266895   7.969   6.036   3.080 -0.7516  0.9138  0.0009
19949SOL     OW66896   1.842   6.685  11.853 -0.0237  0.0677  0.5613
19949SOL    HW166897   1.877   6.738  11.924  0.5888  0.2377  0.1391
19949SOL    HW266898   1.883   6.600  11.862 -1.4600 -0.5613  1.5986
19950SOL     OW66899   5.618   0.853   4.649  0.4557 -0.1917  0.2189
19950SOL    HW166900   5.650   0.837   4.560 -1.1208 -3.3402  0.0802
19950SOL    HW266901   5.663   0.786   4.702  1.9991  2.1287  2.0632
19951SOL     OW66902   3.335  12.045  11.610  0.3044  0.2947 -0.1652
19951SOL    HW166903   3.263  12.017  11.666  0.2879 -1.4974 -0.9930
19951SOL    HW266904   3.401  12.078  11.670 -0.1371 -0.5962  0.8435
19952SOL     OW66905   4.017   4.327   8.498  0.4618 -0.5417  0.0225
19952SOL    HW166906   4.074   4.333   8.575  0.9485  2.0912 -0.4784
19952SOL    HW266907   3.931   4.304   8.534  0.6189  0.8758  1.4279
19953SOL     OW66908  11.320   0.724   8.048  0.4137  0.5084 -0.8687
19953SOL    HW166909  11.311   0.791   8.116  1.4619  0.5745 -0.7863
19953SOL    HW266910  11.283   0.645   8.088  1.4191  0.4333 -0.0412
19954SOL     OW66911   2.467   7.146   7.878  0.5758  0.2872  0.9483
19954SOL    HW166912   2.548   7.106   7.911  0.8951  0.9647  0.9855
19954SOL    HW266913   2.468   7.235   7.913 -0.7996 -0.0711  1.9811
19955SOL     OW66914   0.831   2.614   9.165 -0.2871 -0.2217 -0.2266
19955SOL    HW166915   0.910   2.636   9.115  0.1739 -0.7586  0.2401
19955SOL    HW266916   0.762   2.605   9.099  0.0575  0.1831 -0.6500
19956SOL     OW66917   9.724   7.763  12.014 -0.2509 -0.5212  0.1434
19956SOL    HW166918   9.651   7.779  11.955  0.0729  0.1183 -0.0945
19956SOL    HW266919   9.801   7.791  11.965  0.0128  0.0931  0.8929
19957SOL     OW66920   1.430   6.014   9.404  0.0533 -0.1982 -0.4822
19957SOL    HW166921   1.446   6.088   9.463  1.7042 -1.0830  0.2666
19957SOL    HW266922   1.459   6.046   9.319  3.8934 -0.8766  0.3789
19958SOL     OW66923   8.819  10.562   8.833  1.1990  0.1245 -0.1045
19958SOL    HW166924   8.861  10.622   8.895  1.4119 -0.3234  0.1857
19958SOL    HW266925   8.819  10.478   8.877  1.4303 -0.2193 -0.7538
19959SOL     OW66926  12.084   2.130  10.417  0.2641 -0.0418 -0.2208
19959SOL    HW166927  12.025   2.201  10.443  0.2375 -0.4433  0.9021
19959SOL    HW266928  12.160   2.141  10.474  0.7736 -0.2230 -0.8586
19960SOL     OW66929  12.534   4.664   7.480  0.1521  0.2861 -0.3083
19960SOL    HW166930  12.619   4.696   7.512  0.8883 -0.9048 -1.0145
19960SOL    HW266931  12.530   4.693   7.389 -0.9336  1.7162  0.1654
19961SOL     OW66932   2.488   9.359   1.526 -0.2164  0.9733  0.2804
19961SOL    HW166933   2.572   9.334   1.489 -1.4199 -2.2855 -0.6046
19961SOL    HW266934   2.447   9.413   1.459 -0.3974 -0.8294 -1.1423
19962SOL     OW66935  10.202   3.453   1.923  0.4059 -0.3987  0.1126
19962SOL    HW166936  10.237   3.519   1.983 -1.8808  0.1113  0.9925
19962SOL    HW266937  10.124   3.420   1.967 -0.1316 -1.6073 -1.6350
19963SOL     OW66938   1.309   7.992   3.896  0.5089 -0.0361  0.1807
19963SOL    HW166939   1.320   7.902   3.867 -1.1056 -0.1974 -0.0154
19963SOL    HW266940   1.264   7.985   3.980 -1.0434  0.5660 -0.5430
19964SOL     OW66941   0.735   1.317   2.696  0.6711  0.2589 -0.3631
19964SOL    HW166942   0.654   1.308   2.646 -0.1735  0.1823  0.9662
19964SOL    HW266943   0.757   1.228   2.722 -0.1300  0.4968  1.2422
19965SOL     OW66944   0.688   7.492   7.322  0.2063  0.1225 -0.3683
19965SOL    HW166945   0.615   7.533   7.368 -0.0531 -0.6236 -0.1077
19965SOL    HW266946   0.647   7.429   7.262  0.5947  0.2900 -0.8166
19966SOL     OW66947  10.122   4.332   9.185 -0.3381 -0.6975  0.4610
19966SOL    HW166948  10.061   4.282   9.239 -1.0636 -0.4227 -0.1051
19966SOL    HW266949  10.158   4.398   9.244  0.2396 -1.5356  1.0803
19967SOL     OW66950   6.003   4.896   7.772 -0.1547 -0.0669  0.1978
19967SOL    HW166951   5.959   4.974   7.805 -0.4668 -0.6547  1.2267
19967SOL    HW266952   6.088   4.896   7.815 -0.5487 -0.8183  1.0059
19968SOL     OW66953  12.319   5.331   8.677 -0.2658 -0.0623  0.8436
19968SOL    HW166954  12.366   5.282   8.610  0.9147  0.5329  1.2080
19968SOL    HW266955  12.253   5.269   8.710 -0.3258 -0.6182 -0.2923
19969SOL     OW66956   4.139   8.306   3.297  0.8487  0.7234 -0.1471
19969SOL    HW166957   4.140   8.304   3.393  0.8804 -1.3127 -0.1555
19969SOL    HW266958   4.206   8.371   3.275  1.9180  0.1511  1.2141
19970SOL     OW66959   3.450   7.196   0.243  0.0834 -0.1129 -0.2638
19970SOL    HW166960   3.422   7.106   0.224  1.3630 -0.5658 -0.1523
19970SOL    HW266961   3.421   7.211   0.333  0.9435 -0.8958  0.1662
19971SOL     OW66962   4.907   2.957   1.962  0.2085  0.1616  0.0603
19971SOL    HW166963   4.870   2.932   1.877 -1.4452  0.6157  0.6149
19971SOL    HW266964   4.954   3.039   1.945 -0.0877  0.2341 -0.4237
19972SOL     OW66965   1.238   1.349   3.943  0.6267 -0.2422 -0.2029
19972SOL    HW166966   1.217   1.256   3.952  1.1170 -0.4407 -1.0017
19972SOL    HW266967   1.259   1.377   4.032  3.1675 -1.5726 -0.2987
19973SOL     OW66968   4.758  12.479   9.129  0.0682 -0.1796  0.2569
19973SOL    HW166969   4.789  12.396   9.092  0.3802 -0.0447  0.2093
19973SOL    HW266970   4.663  12.468   9.136  0.2717 -1.3028  2.0807
19974SOL     OW66971  10.157   6.859   4.929 -0.3890  0.1345 -0.0050
19974SOL    HW166972  10.218   6.802   4.882  0.9018  0.0775  1.6474
19974SOL    HW266973  10.168   6.835   5.022 -2.2392  0.8047  0.4376
19975SOL     OW66974  12.321   1.501  10.938 -0.2779 -0.5515 -0.3032
19975SOL    HW166975  12.277   1.454  10.868 -2.4365 -1.4733  1.5310
19975SOL    HW266976  12.339   1.434  11.004 -0.3753  0.6034  0.9567
19976SOL     OW66977   5.721   1.891   1.246  0.0448  0.2388  0.2456
19976SOL    HW166978   5.654   1.867   1.310 -0.4329  2.5399  0.6984
19976SOL    HW266979   5.789   1.824   1.256 -0.1073  0.4028  3.0324
19977SOL     OW66980   7.464   0.743   1.356 -0.3900 -0.2905  0.1917
19977SOL    HW166981   7.513   0.795   1.292  0.7102 -1.3255  0.1541
19977SOL    HW266982   7.404   0.690   1.305 -0.3794 -0.2261  0.1129
19978SOL     OW66983   5.396   4.356   6.228 -0.0625  0.1736  0.7753
19978SOL    HW166984   5.327   4.358   6.161  0.5019  1.0353  0.1967
19978SOL    HW266985   5.424   4.265   6.230 -2.0728 -0.4837  1.9434
19979SOL     OW66986   7.363   4.024  12.042  0.2261  0.9464 -0.4214
19979SOL    HW166987   7.428   4.015  12.111  1.1048  1.2021 -1.1882
19979SOL    HW266988   7.282   3.990  12.080  1.0696 -0.4919  0.1643
19980SOL     OW66989  12.086   8.400  12.499  0.1517 -0.2710  0.6068
19980SOL    HW166990  12.004   8.399  12.450  0.1782  0.7149  0.5360
19980SOL    HW266991  12.059   8.397  12.591  0.0559 -0.5383  0.5698
19981SOL     OW66992   9.928  11.899   7.068  0.3878  0.2358 -0.3610
19981SOL    HW166993   9.928  11.805   7.089 -1.2355  0.4897  0.9738
19981SOL    HW266994  10.020  11.925   7.073  0.7697 -1.1085  0.0452
19982SOL     OW66995  11.514   1.102   9.928  0.1387 -0.3203 -0.9119
19982SOL    HW166996  11.600   1.072   9.957  0.6163  0.4199 -1.5136
19982SOL    HW266997  11.532   1.182   9.878 -1.0029  0.4556 -0.1262
19983SOL     OW66998   1.929   8.927   5.552 -0.3816  0.2561  0.4078
19983SOL    HW166999   2.019   8.959   5.541 -0.4978  0.5207  0.2110
19983SOL    HW267000   1.875   9.006   5.546 -0.7488 -0.0720 -1.0383
19984SOL     OW67001   0.407  10.867   2.556  0.2059  0.4202 -0.1088
19984SOL    HW167002   0.391  10.806   2.485 -1.5755  2.1400 -1.2864
19984SOL    HW267003   0.386  10.953   2.520  3.3727  1.9134  1.2133
19985SOL     OW67004   2.238   8.006  12.351  0.5909  0.4472  0.1055
19985SOL    HW167005   2.162   8.042  12.306  0.1964 -0.2367  0.2101
19985SOL    HW267006   2.201   7.941  12.411  1.2504  0.2065  0.2536
19986SOL     OW67007   9.183   3.768   7.437  0.1795  0.3137  0.5022
19986SOL    HW167008   9.270   3.729   7.446  0.5736  1.0390 -0.0238
19986SOL    HW267009   9.175   3.827   7.512 -0.1381 -0.2392  0.9160
19987SOL     OW67010   2.600   4.992   4.307  0.1128 -0.0653 -0.8496
19987SOL    HW167011   2.681   4.990   4.257 -0.3626 -2.1621 -1.6492
19987SOL    HW267012   2.532   5.004   4.240 -0.3456 -0.0214 -0.3795
19988SOL     OW67013   2.201   0.603   6.740  0.2639  0.1021 -0.1990
19988SOL    HW167014   2.125   0.615   6.683  0.6962  0.2588 -0.7402
19988SOL    HW267015   2.258   0.678   6.721  1.3464 -0.9089 -1.0418
19989SOL     OW67016   6.774   0.040   9.938  0.3625 -0.1620  0.3140
19989SOL    HW167017   6.685   0.011   9.919  0.7075 -0.7524 -0.4356
19989SOL    HW267018   6.819   0.036   9.854  1.2453 -0.3934  0.7885
19990SOL     OW67019   4.742  11.042  10.900 -0.2781 -0.6322  0.3385
19990SOL    HW167020   4.761  11.070  10.989  1.7930 -2.6334  0.6447
19990SOL    HW267021   4.749  10.946  10.903 -0.4013 -0.7688 -1.9094
19991SOL     OW67022   3.601   4.010   3.791 -0.4471  0.3070 -0.0338
19991SOL    HW167023   3.648   3.975   3.867  1.2174  0.2116 -1.0610
19991SOL    HW267024   3.514   3.969   3.797 -0.1428 -0.2225  1.4340
19992SOL     OW67025   0.549   9.722   8.862  0.6767  0.4389 -0.0584
19992SOL    HW167026   0.561   9.794   8.924 -1.1436  1.2481 -0.6088
19992SOL    HW267027   0.638   9.704   8.830  1.2054  2.2831  0.2538
19993SOL     OW67028   1.848  10.199   2.493  0.3584 -0.2734 -0.1735
19993SOL    HW167029   1.819  10.112   2.466 -1.7466  0.3471 -0.0534
19993SOL    HW267030   1.838  10.254   2.415 -2.4671  0.7616  0.8056
19994SOL     OW67031   1.548   4.806   8.990 -0.6515  0.1904  0.1256
19994SOL    HW167032   1.606   4.755   9.047 -0.6129  0.5414  0.4039
19994SOL    HW267033   1.501   4.741   8.938  1.3241 -0.0755 -1.4474
19995SOL     OW67034  11.365  10.418  12.011  0.1648 -0.1499  0.9272
19995SOL    HW167035  11.379  10.417  12.106 -0.2544  0.7904  1.0078
19995SOL    HW267036  11.445  10.380  11.975  0.5664  0.0025  1.6308
19996SOL     OW67037   9.061   4.957   2.196  0.3844  0.1417 -0.0714
19996SOL    HW167038   9.152   4.955   2.167  0.4249 -3.8792 -0.2668
19996SOL    HW267039   9.066   4.962   2.292  0.8407 -0.1153 -0.0783
19997SOL     OW67040   6.374   0.572   3.142  0.1823 -0.0855 -0.1782
19997SOL    HW167041   6.377   0.486   3.184  0.9736 -0.3741 -0.7991
19997SOL    HW267042   6.466   0.594   3.125 -0.0258  0.7687 -0.2549
19998SOL     OW67043   4.545   7.106   6.242  0.6364 -0.3946  0.0789
19998SOL    HW167044   4.609   7.145   6.301  0.4759  1.2908 -0.7820
19998SOL    HW267045   4.597   7.069   6.171  0.7116  1.1328 -0.7121
19999SOL     OW67046   8.523  11.969  12.246  0.8663 -0.2546  0.3688
19999SOL    HW167047   8.442  11.994  12.290 -1.2766 -1.2073 -2.6663
19999SOL    HW267048   8.542  12.042  12.187  1.1060 -0.8299 -0.2831
20000SOL     OW67049   3.714   4.063   3.564  0.0127  0.0193 -0.1229
20000SOL    HW167050   3.684   3.981   3.526  1.5693 -0.7534  0.2255
20000SOL    HW267051   3.693   4.055   3.657 -1.3170  0.7409 -0.3398
20001SOL     OW67052   1.569  10.815  10.156  0.1881 -0.1026  0.4162
20001SOL    HW167053   1.622  10.754  10.206  0.6388  0.2197  0.3339
20001SOL    HW267054   1.627  10.847  10.086 -1.2993 -2.9915 -2.3887
20002SOL     OW67055   3.550   7.149  11.612 -0.5041  0.6459 -0.3698
20002SOL    HW167056   3.573   7.132  11.521 -0.8274 -2.3904  0.0012
20002SOL    HW267057   3.470   7.097  11.627  0.2493  0.0106  1.9183
20003SOL     OW67058   7.584   3.990   9.547 -0.2151 -0.2816 -0.3490
20003SOL    HW167059   7.493   3.962   9.551 -0.1210 -1.1355 -2.7309
20003SOL    HW267060   7.580   4.085   9.557 -1.4264 -0.2447 -1.0062
20004SOL     OW67061  10.787  12.062   4.232 -0.0090  0.4257  0.0519
20004SOL    HW167062  10.879  12.086   4.242  0.2678 -0.8695  0.8130
20004SOL    HW267063  10.743  12.144   4.212  1.3585  1.0155 -0.6621
20005SOL     OW67064   8.781   1.533   3.438  0.0802 -0.3230 -0.0525
20005SOL    HW167065   8.713   1.564   3.379  0.4415 -1.9745 -1.4331
20005SOL    HW267066   8.741   1.538   3.525 -1.3466 -0.0683 -0.6903
20006SOL     OW67067   4.773   1.101   2.818 -0.4220  0.3560  0.3596
20006SOL    HW167068   4.793   1.190   2.786 -2.5275  1.3305  1.5666
20006SOL    HW267069   4.729   1.059   2.745  0.0605  0.4876 -0.0179
20007SOL     OW67070   7.161   9.054   1.379 -0.3864  0.1840  0.1351
20007SOL    HW167071   7.162   8.958   1.382  0.1545  0.2065  2.4167
20007SOL    HW267072   7.071   9.078   1.400 -0.4965  0.1994 -0.3337
20008SOL     OW67073   7.941   9.618   6.304 -0.1731  0.0716  0.6013
20008SOL    HW167074   7.893   9.588   6.381 -1.5864  0.7861  0.0404
20008SOL    HW267075   7.979   9.703   6.330  1.3120 -0.7429  1.2213
20009SOL     OW67076   9.884   1.261  10.026 -0.0230 -0.1675  0.1155
20009SOL    HW167077   9.924   1.209   9.956 -1.5676 -0.4026 -0.6404
20009SOL    HW267078   9.835   1.198  10.078  0.0542  0.1971  0.6394
20010SOL     OW67079   9.541   4.855  11.192  0.0858  0.1673  0.4172
20010SOL    HW167080   9.607   4.810  11.244 -0.6754  0.1240  1.3792
20010SOL    HW267081   9.458   4.832  11.234 -0.6575 -0.6633 -1.4082
20011SOL     OW67082  12.402   1.941   2.453  0.3397 -0.3638 -0.1357
20011SOL    HW167083  12.426   1.868   2.397  0.0120  1.0385 -2.1843
20011SOL    HW267084  12.312   1.922   2.480 -0.1278 -0.2027 -1.5397
20012SOL     OW67085   4.688   3.016  11.189  0.1997  0.5533 -0.7264
20012SOL    HW167086   4.637   3.058  11.258  1.1018 -1.0456  1.0207
20012SOL    HW267087   4.631   2.946  11.157  0.3899  0.2698 -0.4496
20013SOL     OW67088   6.045   6.887   0.575  0.1634  0.1015 -0.2965
20013SOL    HW167089   5.993   6.947   0.629 -0.3998 -0.6290 -0.0065
20013SOL    HW267090   6.120   6.939   0.547  1.7164 -0.0927  3.0770
20014SOL     OW67091   3.979   7.758   3.631 -0.1052 -0.1055 -0.3899
20014SOL    HW167092   3.979   7.668   3.662 -2.5719 -0.4052 -1.0780
20014SOL    HW267093   4.054   7.799   3.675  1.6194 -2.6675 -0.7443
20015SOL     OW67094  12.465   1.148   8.962 -0.1606  0.0107  0.0017
20015SOL    HW167095  12.443   1.062   8.926 -0.2693 -0.4240  1.0689
20015SOL    HW267096  12.560   1.146   8.971 -0.2487 -0.3605  0.9004
20016SOL     OW67097   9.649   2.827   2.234 -0.4139  0.0784  0.0598
20016SOL    HW167098   9.557   2.853   2.228 -0.1683  1.1350  0.6081
20016SOL    HW267099   9.651   2.764   2.307 -0.4734  1.2296  1.0817
20017SOL     OW67100   7.336   1.337   0.899 -0.2748  0.6151 -0.1749
20017SOL    HW167101   7.424   1.353   0.866  0.6513 -0.5476  1.5632
20017SOL    HW267102   7.278   1.351   0.824  1.4368  0.7932 -1.4994
20018SOL     OW67103   9.098   2.400  11.859 -0.4794 -0.1901  0.3856
20018SOL    HW167104   9.120   2.348  11.936 -0.2490 -2.7186 -1.2658
20018SOL    HW267105   9.150   2.363  11.789 -2.4138  0.4202 -1.5044
20019SOL     OW67106   2.652  11.061   7.875 -0.0100  0.1539  0.0196
20019SOL    HW167107   2.741  11.033   7.895 -0.6249 -2.0559 -0.1120
20019SOL    HW267108   2.653  11.155   7.890  1.5003 -0.2574  3.2627
20020SOL     OW67109   6.586   2.471   1.434  0.0149  0.2757  0.2363
20020SOL    HW167110   6.661   2.508   1.388 -0.0225  1.3019  0.9649
20020SOL    HW267111   6.542   2.418   1.369  1.3317 -0.2947 -0.2244
20021SOL     OW67112   6.455   2.542   5.958 -0.1325  0.3949 -0.9128
20021SOL    HW167113   6.524   2.608   5.953 -0.7510  1.1291 -0.1215
20021SOL    HW267114   6.481   2.486   6.031 -0.7700  1.1675 -0.0724
20022SOL     OW67115   8.154   5.278  12.452  0.6167  0.0092  0.6414
20022SOL    HW167116   8.150   5.183  12.460  1.0910  0.1231  2.6998
20022SOL    HW267117   8.070   5.309  12.488 -0.3989  0.3511 -1.8022
20023SOL     OW67118   8.067   7.032   7.531  0.5271  0.0659  0.5699
20023SOL    HW167119   8.135   7.045   7.465  1.4840 -1.9272  1.0768
20023SOL    HW267120   8.097   7.081   7.607  2.0952 -1.7668  1.2000
20024SOL     OW67121   7.348   0.462   5.800 -0.4045  0.1397 -0.7707
20024SOL    HW167122   7.310   0.537   5.846  0.6488 -0.5479  1.3370
20024SOL    HW267123   7.442   0.471   5.813 -0.2298 -1.2442 -0.9476
20025SOL     OW67124  11.133   1.854   6.373 -0.3449  0.4356  0.2541
20025SOL    HW167125  11.118   1.946   6.396  0.8226  1.0212 -1.1437
20025SOL    HW267126  11.131   1.808   6.456  0.0149  1.8775  1.1018
20026SOL     OW67127   6.499  10.377   8.576  0.0042 -0.1951  0.1774
20026SOL    HW167128   6.507  10.468   8.548  0.1932 -0.0531  0.6701
20026SOL    HW267129   6.485  10.327   8.496  0.2042  0.2343 -0.1233
20027SOL     OW67130   7.466   9.805  12.438 -0.2233 -0.0601 -0.4545
20027SOL    HW167131   7.373   9.784  12.448 -0.5459  1.1279 -0.7411
20027SOL    HW267132   7.484   9.867  12.509  0.4974 -0.7287 -0.0517
20028SOL     OW67133   4.969   9.039   2.638  0.0141  0.2999 -0.2657
20028SOL    HW167134   5.012   9.082   2.712 -1.1757  0.4777  0.3319
20028SOL    HW267135   4.928   8.961   2.676  0.3964 -0.2513 -0.9637
20029SOL     OW67136   1.757   5.527  10.493 -0.0327  0.1619 -0.7690
20029SOL    HW167137   1.793   5.439  10.498 -1.2845 -0.3158  1.2618
20029SOL    HW267138   1.823   5.582  10.536  0.0976 -0.0284 -0.7222
20030SOL     OW67139  11.745  12.280   4.848 -0.4542  0.2036  0.1283
20030SOL    HW167140  11.653  12.268   4.871 -0.0173  0.2931  2.1256
20030SOL    HW267141  11.776  12.193   4.825 -1.1076  0.2366 -0.9568
20031SOL     OW67142   4.450   2.935   1.260 -0.6042  0.1008 -0.4527
20031SOL    HW167143   4.428   3.003   1.196 -1.6258  0.1198 -0.0969
20031SOL    HW267144   4.540   2.956   1.286  0.1423 -0.3682 -2.4449
20032SOL     OW67145   2.422   6.719   8.499 -0.3443 -0.3476 -0.1042
20032SOL    HW167146   2.428   6.756   8.411 -0.4005  1.3769  0.5694
20032SOL    HW267147   2.350   6.656   8.494 -0.1550 -0.4964 -1.3453
20033SOL     OW67148   2.918   8.425   3.619  0.4591 -0.0806 -0.3609
20033SOL    HW167149   3.000   8.395   3.659 -0.0001  1.0792  1.6034
20033SOL    HW267150   2.912   8.517   3.645 -2.7310 -0.7658  1.8594
20034SOL     OW67151   6.535   2.567   0.302 -0.3610  0.1054 -0.1027
20034SOL    HW167152   6.542   2.498   0.368  1.7092 -0.2593 -0.6072
20034SOL    HW267153   6.562   2.646   0.347  0.4929 -0.0418 -0.3299
20035SOL     OW67154   0.539   0.242  10.873 -0.1787 -0.0813 -0.0693
20035SOL    HW167155   0.458   0.192  10.861  1.3815 -2.7560 -0.1421
20035SOL    HW267156   0.592   0.189  10.932  2.1277  0.8236 -1.1759
20036SOL     OW67157   5.218  10.440  10.216  0.1598 -0.1836 -0.4092
20036SOL    HW167158   5.125  10.421  10.218 -0.3555  2.0811  0.5799
20036SOL    HW267159   5.251  10.394  10.139 -2.0177 -0.0416 -1.4911
20037SOL     OW67160   5.828   8.988  10.404 -0.1772 -0.5413  0.4153
20037SOL    HW167161   5.885   9.041  10.459 -0.7797  2.9231 -1.9666
20037SOL    HW267162   5.888   8.932  10.355  0.8391  0.1486  0.8281
20038SOL     OW67163   3.342   8.331   3.727 -0.1387  0.3561 -0.1579
20038SOL    HW167164   3.316   8.286   3.647  0.5841  1.3920 -1.0048
20038SOL    HW267165   3.349   8.261   3.792  1.6236 -0.8813 -1.5824
20039SOL     OW67166   3.781   0.969   9.144 -0.1627 -0.1645  0.0565
20039SOL    HW167167   3.831   0.894   9.111 -1.2871 -0.0820 -1.9744
20039SOL    HW267168   3.705   0.975   9.086 -1.3977  1.0606  1.6953
20040SOL     OW67169   7.563  11.508   6.759  0.0819  0.1709 -0.3091
20040SOL    HW167170   7.656  11.500   6.738  0.2876 -1.2392  1.0015
20040SOL    HW267171   7.561  11.547   6.846 -0.6283  1.5196 -0.8951
20041SOL     OW67172  11.840   5.108   4.088  0.2933 -0.0511  0.0234
20041SOL    HW167173  11.853   5.014   4.100  0.7223 -0.0566 -0.4735
20041SOL    HW267174  11.865   5.125   3.998 -2.6885  0.0434 -0.8968
20042SOL     OW67175  11.015   6.909   3.679  0.4170  0.4019 -0.3484
20042SOL    HW167176  10.942   6.959   3.644 -1.0720 -0.4121  1.4136
20042SOL    HW267177  10.986   6.883   3.767  2.1565 -1.3650 -0.2349
20043SOL     OW67178   9.842  12.023   3.426 -0.5572 -0.2753 -0.0171
20043SOL    HW167179   9.851  11.932   3.398 -1.9445 -0.1608 -0.9122
20043SOL    HW267180   9.833  12.019   3.521  2.2949 -0.8193  0.3319
20044SOL     OW67181   6.509   1.457   4.901 -0.2477  0.4496  0.5030
20044SOL    HW167182   6.421   1.436   4.870  0.3799  1.6753 -2.5194
20044SOL    HW267183   6.507   1.551   4.919  0.5320  0.5930 -0.0808
20045SOL     OW67184   4.598   6.862   1.998  0.1019  0.0865  0.5451
20045SOL    HW167185   4.659   6.822   1.937  2.0458  1.7000  1.2971
20045SOL    HW267186   4.512   6.850   1.959  1.0876 -0.6373 -1.5027
20046SOL     OW67187  10.692   2.367  11.326 -0.1132  0.4058 -0.4211
20046SOL    HW167188  10.664   2.339  11.413 -1.2101  1.3609 -0.4416
20046SOL    HW267189  10.627   2.432  11.300  0.1676  0.0927 -1.9839
20047SOL     OW67190   2.646   7.118   4.251  0.2860  0.3609 -0.1256
20047SOL    HW167191   2.676   7.192   4.303 -1.6946  0.3493  1.1144
20047SOL    HW267192   2.575   7.152   4.197 -0.3453 -0.5134  0.1222
20048SOL     OW67193  10.291   1.318   1.645 -0.4362  0.0856  0.3439
20048SOL    HW167194  10.324   1.318   1.555 -0.2211  0.2546  0.4219
20048SOL    HW267195  10.206   1.360   1.639 -1.0597 -1.1700 -0.0064
20049SOL     OW67196   4.323   9.608   9.568  0.2110  0.5155  0.0384
20049SOL    HW167197   4.340   9.607   9.474 -0.9736 -2.7490 -0.2842
20049SOL    HW267198   4.228   9.615   9.575  0.0314 -1.7660  0.7781
20050SOL     OW67199  12.006   7.583  12.562 -0.0504  0.3477  0.0920
20050SOL    HW167200  11.971   7.672  12.554  1.2677  0.8023 -0.9648
20050SOL    HW267201  11.969   7.536  12.487 -1.0355 -0.1308  0.8476
20051SOL     OW67202   2.075   2.348   2.606  0.1259  0.2812  0.4953
20051SOL    HW167203   2.077   2.252   2.602 -0.5027  0.3237 -1.4828
20051SOL    HW267204   2.167   2.374   2.605  0.2848 -0.2634 -1.0974
20052SOL     OW67205   5.369   7.469   5.180 -1.0351 -0.0331  0.3445
20052SOL    HW167206   5.311   7.439   5.250 -2.4260  0.6751 -0.4712
20052SOL    HW267207   5.356   7.564   5.177  0.7418  0.2516  0.6202
20053SOL     OW67208  11.945   9.416  11.087 -0.2602 -0.3526  0.1243
20053SOL    HW167209  12.013   9.475  11.119 -0.2324 -0.4646  0.2722
20053SOL    HW267210  11.865   9.469  11.089 -0.2049 -0.2676  0.0991
20054SOL     OW67211   3.946   7.744   4.401  0.3508 -0.2407  0.2485
20054SOL    HW167212   3.905   7.682   4.462 -2.0417  0.2483 -0.7660
20054SOL    HW267213   4.020   7.779   4.449  0.3058 -2.0726  1.7579
20055SOL     OW67214  10.297  10.121   2.240  0.5052 -0.2095 -0.1393
20055SOL    HW167215  10.251  10.039   2.258  0.8773 -0.6781 -1.2551
20055SOL    HW267216  10.302  10.164   2.325 -0.4439 -0.9485  0.3193
20056SOL     OW67217   9.851   1.432   6.789 -0.2793 -0.1780  0.0887
20056SOL    HW167218   9.878   1.470   6.873 -0.2808 -0.5731  0.2726
20056SOL    HW267219   9.838   1.339   6.809 -0.1782 -0.2913 -0.3750
20057SOL     OW67220   8.143   8.437   5.486  0.4782 -0.2150 -0.3986
20057SOL    HW167221   8.098   8.366   5.531 -1.9629  1.4721  0.0468
20057SOL    HW267222   8.130   8.514   5.542 -0.6859  1.4684 -2.7768
20058SOL     OW67223   5.534   7.269   8.988 -0.1401  0.3533 -0.5480
20058SOL    HW167224   5.467   7.210   9.025 -0.7703  0.6766 -1.1499
20058SOL    HW267225   5.587   7.212   8.932 -0.3247  0.2212 -0.5907
20059SOL     OW67226   8.245  12.456   8.644  0.2525  0.1519 -0.1734
20059SOL    HW167227   8.198  12.499   8.572 -0.5860 -0.4304  0.0132
20059SOL    HW267228   8.236  12.363   8.626  0.9256  0.0267  0.1366
20060SOL     OW67229   1.606   7.304   9.659 -1.0252  0.4289 -0.3936
20060SOL    HW167230   1.547   7.358   9.606 -1.7308 -0.6719 -0.7744
20060SOL    HW267231   1.548   7.255   9.716 -0.4747 -0.5668 -0.6696
20061SOL     OW67232  10.229   6.995   5.577  0.0058 -0.5091  0.2702
20061SOL    HW167233  10.260   7.073   5.531  0.0638 -0.6009  0.1529
20061SOL    HW267234  10.173   6.950   5.513 -0.7547 -0.0982  0.6410
20062SOL     OW67235  10.319   6.121   5.915 -0.0248  0.1313  0.5228
20062SOL    HW167236  10.283   6.164   5.993  0.0232 -0.8682  1.1104
20062SOL    HW267237  10.263   6.045   5.902  0.6976 -0.3771  0.3047
20063SOL     OW67238   1.338  11.715   6.412  0.1176  0.4638 -0.2123
20063SOL    HW167239   1.334  11.688   6.320 -2.6339  1.5667 -0.5092
20063SOL    HW267240   1.362  11.808   6.408 -0.7262  0.7037  0.1145
20064SOL     OW67241  10.853   6.930   0.113  0.1754  0.0294  0.0440
20064SOL    HW167242  10.946   6.911   0.098  0.1049 -0.3492  0.0762
20064SOL    HW267243  10.840   6.914   0.206  0.3001  1.0539  0.2521
20065SOL     OW67244   5.178   4.758  10.446  0.1973 -0.3692  0.0879
20065SOL    HW167245   5.171   4.846  10.410 -1.2479  0.0757  1.3489
20065SOL    HW267246   5.111   4.708  10.398  0.6551 -0.6543 -0.2586
20066SOL     OW67247   6.383   7.373   7.111  0.9155 -0.5570  0.3244
20066SOL    HW167248   6.475   7.380   7.086  0.7382  0.0863 -0.1792
20066SOL    HW267249   6.335   7.408   7.036  0.2780 -0.5065  0.7466
20067SOL     OW67250   4.320  11.850   0.100  0.0039 -0.1095 -0.2508
20067SOL    HW167251   4.390  11.879   0.158  0.0815 -1.1306  0.1791
20067SOL    HW267252   4.343  11.888   0.015  0.0730  1.0983  0.2875
20068SOL     OW67253  12.002   9.184   8.982 -0.1884  0.4221  0.6541
20068SOL    HW167254  11.996   9.157   8.891  0.4804 -1.8820  1.2327
20068SOL    HW267255  12.047   9.269   8.979 -1.4936  1.1101 -1.2137
20069SOL     OW67256   7.269  11.631   5.701 -0.9284 -0.0009  0.0519
20069SOL    HW167257   7.181  11.655   5.671 -1.2785 -1.0352  0.2267
20069SOL    HW267258   7.275  11.537   5.684  0.1651  0.0735 -0.0008
20070SOL     OW67259   3.829   1.845   6.326 -0.3392 -0.0775 -0.0479
20070SOL    HW167260   3.745   1.885   6.349  0.1362  0.5131  0.6903
20070SOL    HW267261   3.881   1.916   6.290 -0.8643 -0.8599 -2.5886
20071SOL     OW67262   5.304   3.561   0.311 -0.0185 -0.4803 -0.3089
20071SOL    HW167263   5.211   3.577   0.297 -0.3722 -1.4653  0.8202
20071SOL    HW267264   5.345   3.648   0.305 -1.2421  0.2041  0.9699
20072SOL     OW67265   3.554  10.454  12.124  0.1561 -0.2969  0.6582
20072SOL    HW167266   3.528  10.526  12.066 -0.4271 -1.3469 -0.4323
20072SOL    HW267267   3.642  10.430  12.095  0.1015 -0.4297  0.6016
20073SOL     OW67268   7.006  10.257  11.346  0.0305 -0.0547  0.1240
20073SOL    HW167269   7.001  10.169  11.309 -0.0840 -0.1739  0.4207
20073SOL    HW267270   7.019  10.315  11.270  0.2879 -0.3450 -0.0536
20074SOL     OW67271   4.766  12.526   6.667  0.3243 -0.4928  0.3017
20074SOL    HW167272   4.777  12.538   6.761 -1.8421 -0.7035  0.6294
20074SOL    HW267273   4.674  12.503   6.656  0.1714  0.9358 -2.0184
20075SOL     OW67274   3.402   0.752   2.487 -0.1064  0.5051  0.1847
20075SOL    HW167275   3.419   0.666   2.449 -1.8100  0.6369 -1.0258
20075SOL    HW267276   3.488   0.785   2.513  0.5800 -1.5518  0.6992
20076SOL     OW67277   4.203   9.789   2.601  0.1312 -0.7627  0.0900
20076SOL    HW167278   4.186   9.868   2.652  0.5258  0.0308 -0.9557
20076SOL    HW267279   4.261   9.737   2.656  0.7079  0.1557  0.3876
20077SOL     OW67280   9.405   3.290   4.730  0.2461  0.2103  0.3625
20077SOL    HW167281   9.327   3.309   4.678  0.7001  2.4492  0.4171
20077SOL    HW267282   9.375   3.293   4.821  0.0247 -0.9200  0.3425
20078SOL     OW67283   0.438  10.717   3.575 -0.0184 -0.2114  0.1135
20078SOL    HW167284   0.348  10.724   3.543  0.5596  2.8327 -1.2488
20078SOL    HW267285   0.431  10.669   3.657 -3.0149  0.6448  0.4820
20079SOL     OW67286   9.482  10.081  10.420  0.6501  0.3770 -0.0528
20079SOL    HW167287   9.416  10.141  10.388 -0.1702 -0.9896 -1.0607
20079SOL    HW267288   9.556  10.092  10.360  0.5901  0.5518 -0.0921
20080SOL     OW67289   5.602   8.894  10.306  0.0336  0.0163  0.4580
20080SOL    HW167290   5.568   8.853  10.385 -1.6341 -0.1651 -0.3215
20080SOL    HW267291   5.687   8.930  10.333  0.3133 -1.5425  1.8650
20081SOL     OW67292   4.378   7.469   0.008 -0.3793  0.2223  0.1764
20081SOL    HW167293   4.291   7.508   0.014 -0.1972  0.6658 -0.0795
20081SOL    HW267294   4.432   7.520   0.069 -0.2661  0.0194  0.2506
20082SOL     OW67295   7.976   8.691   5.250  0.3247  0.6065  0.2347
20082SOL    HW167296   7.891   8.665   5.287 -0.4089 -1.1745 -2.4242
20082SOL    HW267297   7.953   8.740   5.171  1.7742  0.2317 -0.4507
20083SOL     OW67298   5.761   8.049   6.127  0.3726  0.1074  0.1483
20083SOL    HW167299   5.852   8.034   6.100 -0.3088  1.2070 -3.2803
20083SOL    HW267300   5.745   8.141   6.106 -1.7407 -0.2609 -0.0603
20084SOL     OW67301   1.398   6.662   5.285  0.4263  0.2378 -0.2408
20084SOL    HW167302   1.311   6.626   5.270 -0.0365  1.6379 -1.0844
20084SOL    HW267303   1.424   6.700   5.201  2.0590 -0.5508 -0.1318
20085SOL     OW67304   0.755   3.914  11.321 -0.0162 -0.4280 -0.7831
20085SOL    HW167305   0.677   3.948  11.364 -1.1268 -2.0662 -1.3970
20085SOL    HW267306   0.777   3.835  11.369  1.7269  0.3780 -0.1830
20086SOL     OW67307   0.743   0.447   4.441 -0.1814  0.0329  0.1649
20086SOL    HW167308   0.817   0.388   4.430  0.7980  1.4710 -1.3222
20086SOL    HW267309   0.765   0.498   4.519  0.7675  0.9154 -0.6483
20087SOL     OW67310  12.417   7.233   0.144 -0.0139 -0.0388 -0.0662
20087SOL    HW167311  12.345   7.275   0.192 -0.3681  0.1950 -0.7934
20087SOL    HW267312  12.448   7.301   0.084  3.0362  1.0753  2.4600
20088SOL     OW67313  11.537  10.844   6.059 -0.1561  0.2889 -0.3115
20088SOL    HW167314  11.597  10.897   6.112 -0.4734 -1.1039  1.5374
20088SOL    HW267315  11.590  10.811   5.987  0.7855  0.7210  0.1674
20089SOL     OW67316   4.274   5.122  11.880 -0.3501  0.2172  0.1708
20089SOL    HW167317   4.308   5.113  11.969  1.1304 -0.5184 -0.4453
20089SOL    HW267318   4.217   5.199  11.884  0.1161  0.5161  1.6178
20090SOL     OW67319   9.767   1.660   1.672 -0.5386  0.6174  0.2789
20090SOL    HW167320   9.739   1.571   1.652  1.3909 -0.1868  0.9267
20090SOL    HW267321   9.753   1.709   1.591 -1.3703 -0.3362 -0.1651
20091SOL     OW67322   0.865   2.718   8.144  0.0710  0.5132 -0.4150
20091SOL    HW167323   0.855   2.624   8.127  1.1257  0.2150  0.4626
20091SOL    HW267324   0.811   2.760   8.077  1.8777 -0.6276 -2.7648
20092SOL     OW67325   0.580   8.064   8.732 -0.1787  0.0026 -0.0451
20092SOL    HW167326   0.514   8.057   8.801 -1.3795  0.1500 -1.1581
20092SOL    HW267327   0.563   7.991   8.674  1.4989 -0.7431  0.3285
20093SOL     OW67328   5.014  11.871   2.934  0.3118 -0.4941 -0.0911
20093SOL    HW167329   5.086  11.826   2.977 -0.3435 -1.8549 -0.3500
20093SOL    HW267330   4.965  11.801   2.890 -0.1554  0.6037 -1.3874
20094SOL     OW67331  10.352   7.594   2.060  0.5385  0.2309 -0.0092
20094SOL    HW167332  10.357   7.524   1.996  0.8172 -0.3740  0.6589
20094SOL    HW267333  10.259   7.614   2.067  0.4774  0.0579 -0.3395
20095SOL     OW67334   4.401   3.132   2.789 -0.6228  0.8408 -0.2778
20095SOL    HW167335   4.494   3.156   2.786 -0.5111  0.3309 -1.8196
20095SOL    HW267336   4.358   3.208   2.827  0.5924  0.4569  2.0292
20096SOL     OW67337  12.521   7.385  10.191  0.3057 -0.1475  0.1802
20096SOL    HW167338  12.462   7.410  10.120  0.1569  0.3628  0.4817
20096SOL    HW267339  12.497   7.295  10.211 -0.6351  0.1668  0.5516
20097SOL     OW67340   9.167   6.755  11.998  0.8598  0.3727  0.3428
20097SOL    HW167341   9.157   6.661  12.013 -1.1174  0.3622 -0.7125
20097SOL    HW267342   9.225   6.784  12.069  3.0014 -1.8887 -0.3479
20098SOL     OW67343   4.409   6.968   3.444  0.1570 -0.1593 -0.1467
20098SOL    HW167344   4.429   7.053   3.404  1.2599  0.2004  1.0780
20098SOL    HW267345   4.474   6.959   3.514 -1.9422 -0.5070  1.9034
20099SOL     OW67346   6.294   7.532  11.831 -0.1028 -0.5397 -0.7401
20099SOL    HW167347   6.268   7.616  11.792  0.2461 -0.2149 -0.2986
20099SOL    HW267348   6.389   7.541  11.844 -0.5701  0.6312  2.9996
20100SOL     OW67349   1.010  10.948   7.059 -0.3870 -1.0236  0.3521
20100SOL    HW167350   0.960  10.895   7.121 -1.2069 -0.6139  0.0544
20100SOL    HW267351   0.944  10.989   7.003  0.1604  0.9637  1.0719
20101SOL     OW67352   0.693   4.981   9.115 -0.4037  0.2259 -0.1653
20101SOL    HW167353   0.781   4.990   9.078 -0.1609 -1.6477 -0.1355
20101SOL    HW267354   0.634   5.000   9.042  0.0558 -0.5922 -0.7637
20102SOL     OW67355   0.387   5.884   4.191  0.1269  0.5805 -0.0759
20102SOL    HW167356   0.292   5.902   4.188 -0.1149 -0.7891 -1.6306
20102SOL    HW267357   0.426   5.969   4.209 -1.3828  1.2264  0.3420
20103SOL     OW67358   5.110   7.057   4.670  0.5067 -0.2466 -0.1734
20103SOL    HW167359   5.126   7.148   4.695 -0.2263  0.1818 -1.1891
20103SOL    HW267360   5.144   7.050   4.581  1.4331 -1.2438  0.2336
20104SOL     OW67361  10.848   6.512   8.471  0.1895  0.0928 -0.0606
20104SOL    HW167362  10.874   6.443   8.532  0.5352  0.4289  0.1782
20104SOL    HW267363  10.759   6.488   8.443  1.3095 -1.9874 -2.1823
20105SOL     OW67364   1.484   3.818  10.727  0.8509  0.2802 -0.5539
20105SOL    HW167365   1.455   3.892  10.673 -1.7452  1.2926  1.9546
20105SOL    HW267366   1.558   3.853  10.777 -0.0794  1.1330  0.2918
20106SOL     OW67367  11.557   3.980   7.951 -0.1140 -0.1349 -0.1707
20106SOL    HW167368  11.477   4.004   7.903 -0.1872 -0.6523 -0.3167
20106SOL    HW267369  11.602   3.920   7.891 -0.4390 -1.1745  0.6037
20107SOL     OW67370   1.268  12.219   2.654 -0.1956  0.8027  0.3509
20107SOL    HW167371   1.182  12.249   2.684 -0.0076  1.4213  0.2717
20107SOL    HW267372   1.285  12.140   2.707 -0.9820  0.4447  0.0922
20108SOL     OW67373   6.453   7.319  11.990  0.2925  0.1174  0.2745
20108SOL    HW167374   6.438   7.399  12.041 -1.2809  0.6464 -0.9640
20108SOL    HW267375   6.484   7.349  11.905  1.1306 -0.6772  0.2790
20109SOL     OW67376  10.147   9.608   1.052 -0.1326 -0.1188 -0.8982
20109SOL    HW167377  10.168   9.561   0.971 -1.0472 -2.5714  0.1848
20109SOL    HW267378  10.083   9.674   1.026 -3.3239 -3.2450 -1.7772
20110SOL     OW67379   6.831   2.718   5.663  0.7552 -0.4807  0.0831
20110SOL    HW167380   6.772   2.661   5.614 -0.9549 -0.8025  2.3645
20110SOL    HW267381   6.850   2.790   5.602 -2.0253 -0.3522 -0.7658
20111SOL     OW67382   1.768   9.743  10.455 -0.5621 -0.3010  0.3005
20111SOL    HW167383   1.683   9.786  10.444 -0.7957 -1.2687 -2.4199
20111SOL    HW267384   1.748   9.659  10.497 -0.9445 -0.4265 -0.1229
20112SOL     OW67385   5.320   9.553   6.737 -0.1147  0.3637  0.0098
20112SOL    HW167386   5.234   9.511   6.739 -0.4714  1.0904  0.6869
20112SOL    HW267387   5.324   9.596   6.652 -0.1658 -0.1858 -0.2726
20113SOL     OW67388   5.922  11.811   8.648  0.1139  0.6134  0.0439
20113SOL    HW167389   5.996  11.809   8.708  0.6941 -0.6530 -0.6598
20113SOL    HW267390   5.895  11.902   8.646  2.1118  1.2499 -0.2118
20114SOL     OW67391   0.013   2.459   5.949 -0.6454 -0.4694 -0.7258
20114SOL    HW167392   0.004   2.364   5.939 -2.2968 -0.6521  1.5126
20114SOL    HW267393  -0.048   2.495   5.885  0.6330 -0.8493 -2.1998
20115SOL     OW67394   0.704   3.684   5.791 -0.0070  0.2262  0.9291
20115SOL    HW167395   0.658   3.767   5.804 -1.3708 -0.3115 -0.2026
20115SOL    HW267396   0.797   3.707   5.796 -0.3562  1.7867  0.7832
20116SOL     OW67397   2.808   2.522   8.357 -0.4517  0.0445 -0.6521
20116SOL    HW167398   2.847   2.588   8.415  1.0915  0.4968 -2.1040
20116SOL    HW267399   2.752   2.470   8.414 -0.2577  1.4484  0.9158
20117SOL     OW67400   2.231   6.938   6.972 -0.2989  0.4945 -0.1524
20117SOL    HW167401   2.242   6.925   6.878 -1.1359  0.9076 -0.3160
20117SOL    HW267402   2.315   6.974   7.001 -0.1392  0.6440 -0.7874
20118SOL     OW67403   0.481  11.996   8.860  0.2510 -0.1768 -0.6195
20118SOL    HW167404   0.466  12.079   8.816 -1.4805 -0.6541 -0.9976
20118SOL    HW267405   0.471  11.930   8.792 -1.1973 -0.8437  0.1973
20119SOL     OW67406   6.021   1.584  11.881  0.6434 -0.1302  0.0977
20119SOL    HW167407   6.069   1.501  11.886  1.2962 -0.1233 -3.2989
20119SOL    HW267408   6.083   1.649  11.913  1.9587 -0.4747 -1.5973
20120SOL     OW67409   8.978  11.123   1.998 -0.4158  0.0148 -0.0265
20120SOL    HW167410   8.985  11.083   2.085 -1.6618  0.5065  0.3177
20120SOL    HW267411   9.068  11.127   1.967 -0.1045 -1.7152  0.5370
20121SOL     OW67412  11.118   2.651   5.473 -0.1700  0.9254 -0.3653
20121SOL    HW167413  11.205   2.685   5.455  1.6626 -2.5528  1.0039
20121SOL    HW267414  11.102   2.670   5.565 -1.2116  2.1242 -0.7662
20122SOL     OW67415   2.129   5.439  11.612 -0.0774 -0.4136  0.1665
20122SOL    HW167416   2.159   5.471  11.527  0.1752  0.1097  0.4416
20122SOL    HW267417   2.140   5.344  11.608  0.8955 -0.3030 -0.0218
20123SOL     OW67418  12.379  11.167  12.091 -0.5923 -0.0576  0.1335
20123SOL    HW167419  12.376  11.263  12.092  0.2163 -0.0298  0.5150
20123SOL    HW267420  12.369  11.142  12.183  0.5180 -0.2823  0.2054
20124SOL     OW67421   6.909   5.872   3.059  0.1252  0.3072 -0.3533
20124SOL    HW167422   6.984   5.833   3.013  1.0161  0.7307  0.7042
20124SOL    HW267423   6.901   5.960   3.021  0.2480  0.3065 -0.3816
20125SOL     OW67424  11.738   7.339   3.163 -0.1112 -0.3933 -0.3741
20125SOL    HW167425  11.788   7.294   3.095 -0.2561 -0.4367 -0.4533
20125SOL    HW267426  11.791   7.329   3.242  0.8017  0.9511 -0.7824
20126SOL     OW67427   6.419   6.127   0.663  0.0436 -0.1363  0.2565
20126SOL    HW167428   6.388   6.058   0.722 -0.3284  1.8742  2.5619
20126SOL    HW267429   6.389   6.208   0.703  2.8197  1.5762 -0.8319
20127SOL     OW67430   3.076   9.819   4.204  0.3997  0.4177 -0.0232
20127SOL    HW167431   3.005   9.811   4.268 -0.4397 -1.2834 -1.0994
20127SOL    HW267432   3.151   9.848   4.256 -0.9088  1.7676  1.2356
20128SOL     OW67433   0.020   4.336   6.712 -0.6418 -0.0942 -0.2421
20128SOL    HW167434   0.023   4.416   6.764  1.9568  0.6490 -1.3906
20128SOL    HW267435   0.037   4.266   6.774 -0.3712  0.4950  0.3581
20129SOL     OW67436  10.457   4.412   3.769 -0.3502 -0.2768  0.6685
20129SOL    HW167437  10.409   4.408   3.686 -1.8645 -0.9799  1.5487
20129SOL    HW267438  10.499   4.498   3.768  0.7315 -0.7686 -1.3870
20130SOL     OW67439   5.295   3.408   7.088 -0.5525  0.1017 -1.0988
20130SOL    HW167440   5.281   3.344   7.158 -0.4393 -0.2693 -1.4174
20130SOL    HW267441   5.377   3.381   7.047 -0.6153  0.3273 -1.3686
20131SOL     OW67442  11.150   1.918   5.041 -0.0865  0.3129 -0.1805
20131SOL    HW167443  11.206   1.938   5.116 -0.4919 -0.8757  0.4516
20131SOL    HW267444  11.202   1.858   4.987 -0.6227 -0.5461  0.2500
20132SOL     OW67445  11.467   1.487   5.741 -0.0084 -0.0033  0.3115
20132SOL    HW167446  11.498   1.432   5.813  1.3159  0.4443  0.0949
20132SOL    HW267447  11.488   1.577   5.768 -0.9670  0.3056  0.0756
20133SOL     OW67448  11.809  10.912   5.293 -0.0300  0.4292  0.8753
20133SOL    HW167449  11.796  10.982   5.357  1.2393 -0.1672  1.8447
20133SOL    HW267450  11.901  10.885   5.305 -0.2280 -0.7946 -0.0801
20134SOL     OW67451   9.453   9.494   7.772 -0.1110  0.8157 -0.2357
20134SOL    HW167452   9.478   9.406   7.801 -1.7129  0.7564  1.1106
20134SOL    HW267453   9.477   9.497   7.679  2.2000 -0.1597  0.2549
20135SOL     OW67454  11.169   6.257   3.234 -0.5421 -0.3999  0.2859
20135SOL    HW167455  11.240   6.197   3.212  0.0752  0.1380  0.7302
20135SOL    HW267456  11.211   6.322   3.291 -0.2279  2.5767 -3.0120
20136SOL     OW67457   4.602   7.105   2.312 -0.0686 -0.2999 -0.1306
20136SOL    HW167458   4.689   7.081   2.343  0.4664  2.1930  0.5902
20136SOL    HW267459   4.569   7.167   2.378 -0.6329  1.9653 -2.3737
20137SOL     OW67460   2.165   5.145  12.227  0.5693 -0.2808 -0.4407
20137SOL    HW167461   2.220   5.201  12.282 -1.3887  1.4829 -0.1566
20137SOL    HW267462   2.153   5.066  12.280 -0.1395  0.8162  1.1327
20138SOL     OW67463   7.949  10.325  11.941  0.4534 -0.5818 -0.3702
20138SOL    HW167464   7.980  10.327  12.031  1.2616 -0.9522 -0.6236
20138SOL    HW267465   8.019  10.369  11.891 -0.3313  0.3042 -0.7224
20139SOL     OW67466   2.051   9.954  11.195  0.5450 -0.4632 -0.2820
20139SOL    HW167467   2.085   9.882  11.141 -0.1180 -0.0240 -1.3007
20139SOL    HW267468   2.118  10.022  11.189  0.5054 -0.4428 -0.4687
20140SOL     OW67469   4.546   4.458   5.251 -0.7604 -0.2445  0.3257
20140SOL    HW167470   4.513   4.484   5.165  0.8478 -0.4462 -0.4005
20140SOL    HW267471   4.476   4.407   5.290 -1.7858  0.4288 -0.5739
20141SOL     OW67472   2.148   5.721   3.521 -0.2127  0.0369 -0.1671
20141SOL    HW167473   2.116   5.770   3.597  1.6387 -0.0193  0.7177
20141SOL    HW267474   2.203   5.784   3.473 -0.2754 -0.3148 -0.7108
20142SOL     OW67475   2.256   8.938   7.891 -0.5388  0.1907  0.4483
20142SOL    HW167476   2.285   8.976   7.808  1.0408 -1.7630  0.0331
20142SOL    HW267477   2.188   8.876   7.867  0.6668 -1.1770  0.4213
20143SOL     OW67478   0.251   9.331   4.325  0.5647 -0.5535 -0.4194
20143SOL    HW167479   0.320   9.306   4.386  0.9293  0.8237 -0.2524
20143SOL    HW267480   0.198   9.251   4.315  0.6872 -0.9062  1.4247
20144SOL     OW67481   0.909   5.610  11.065  0.1654 -0.1356 -0.1123
20144SOL    HW167482   0.908   5.699  11.031  0.3328  0.4035  1.2570
20144SOL    HW267483   1.000   5.594  11.091 -0.1767 -0.1225  1.1242
20145SOL     OW67484   1.817   2.366   1.578 -0.2258 -0.1897 -0.2862
20145SOL    HW167485   1.890   2.427   1.579  0.8739 -1.4751  0.4347
20145SOL    HW267486   1.768   2.384   1.658 -0.0944 -0.0422 -0.2403
20146SOL     OW67487   8.073   2.052   1.835  0.2413  0.1201  0.0453
20146SOL    HW167488   8.001   2.115   1.821  0.4843  0.0228 -1.7754
20146SOL    HW267489   8.034   1.983   1.889 -0.1495  1.5845  1.7257
20147SOL     OW67490   8.572   2.424   5.769  0.0841 -0.4150  0.8916
20147SOL    HW167491   8.499   2.482   5.747 -0.0131 -0.1070  1.9691
20147SOL    HW267492   8.587   2.374   5.689 -2.8660 -2.1987  1.2957
20148SOL     OW67493   4.048   2.344   3.448 -0.6163  0.4555 -0.5769
20148SOL    HW167494   4.091   2.308   3.370 -0.3288 -0.9279  0.1736
20148SOL    HW267495   4.120   2.362   3.508 -0.9720 -0.9753  0.3317
20149SOL     OW67496   5.245   4.466  12.477  0.2168  0.3334  0.4914
20149SOL    HW167497   5.302   4.515  12.417  0.3070  0.0671  0.3551
20149SOL    HW267498   5.283   4.378  12.479  0.6634  0.5464  1.5476
20150SOL     OW67499   9.502  10.126   0.221  0.1961  0.3652 -0.1938
20150SOL    HW167500   9.545  10.103   0.304  1.0797 -0.9299 -0.9582
20150SOL    HW267501   9.572  10.120   0.156 -0.5242  1.1746 -1.0624
20151SOL     OW67502   7.124   0.066   1.189  0.3657  0.1738 -0.3948
20151SOL    HW167503   7.184   0.099   1.122 -0.0982 -1.7253 -1.8283
20151SOL    HW267504   7.058   0.018   1.140 -0.3791 -0.7249  1.4051
20152SOL     OW67505   8.991   7.119   7.836 -0.0189  0.2662 -0.5708
20152SOL    HW167506   9.075   7.163   7.845  0.2443 -0.4031  0.6064
20152SOL    HW267507   8.986   7.093   7.744  1.1103  0.2289 -0.6336
20153SOL     OW67508   4.459   4.576   1.599  0.5130 -0.2088  0.0983
20153SOL    HW167509   4.502   4.499   1.637  1.3351  0.9710  1.6810
20153SOL    HW267510   4.484   4.573   1.506  1.6514 -1.1204  0.4039
20154SOL     OW67511   9.035   0.222  10.786 -1.3491 -0.2393  0.1957
20154SOL    HW167512   9.114   0.168  10.791 -1.2839 -0.1837 -0.1957
20154SOL    HW267513   8.993   0.196  10.704 -0.4998  1.4291 -0.8184
20155SOL     OW67514   1.939   0.700   9.114 -0.0240 -0.1450 -0.5812
20155SOL    HW167515   1.861   0.698   9.059 -1.8506  1.7001  1.7245
20155SOL    HW267516   1.937   0.616   9.161  0.7990 -1.1314 -2.1962
20156SOL     OW67517   1.801   6.710   3.996  0.1904  0.2574  0.5209
20156SOL    HW167518   1.763   6.641   4.051 -0.3752 -1.6464 -2.0814
20156SOL    HW267519   1.738   6.782   4.001 -0.9438 -0.7109  0.6849
20157SOL     OW67520   8.190   6.303   4.348  0.4347  0.2989  0.0811
20157SOL    HW167521   8.113   6.248   4.364 -0.5158  1.6771  0.4192
20157SOL    HW267522   8.209   6.290   4.255 -0.8371  0.7118 -0.2562
20158SOL     OW67523   3.243   8.608   6.823 -0.3067 -0.3564 -0.6797
20158SOL    HW167524   3.253   8.581   6.732 -0.9026  0.2486 -0.9305
20158SOL    HW267525   3.226   8.527   6.871  1.6240 -0.9095 -0.8373
20159SOL     OW67526  10.241   4.338  11.491 -0.1482  0.2312  0.4374
20159SOL    HW167527  10.222   4.431  11.505  0.4700  0.4370 -0.0214
20159SOL    HW267528  10.274   4.306  11.575  1.0605  0.8054  0.2070
20160SOL     OW67529   1.473   5.718   5.961  0.2097 -0.1209  0.0083
20160SOL    HW167530   1.516   5.639   5.929  0.0901  0.8135 -2.7053
20160SOL    HW267531   1.387   5.719   5.918  0.2007  1.4314 -0.0219
20161SOL     OW67532  10.969   7.277   5.067 -0.2340  0.1211 -0.2114
20161SOL    HW167533  10.882   7.299   5.034 -0.5576  0.8082  1.0185
20161SOL    HW267534  11.016   7.242   4.991 -1.8868 -1.2015 -0.6963
20162SOL     OW67535   6.105  12.176   8.095 -0.1547 -0.1313  0.4956
20162SOL    HW167536   6.021  12.149   8.059 -0.7626  0.2006  1.5931
20162SOL    HW267537   6.082  12.242   8.161  1.0418  0.7117  0.1028
20163SOL     OW67538   8.393   7.068   7.094 -0.2373 -0.3735 -0.1139
20163SOL    HW167539   8.334   7.118   7.037  1.8060  0.8513 -1.2737
20163SOL    HW267540   8.378   6.977   7.069  0.5089  0.1063 -2.6236
20164SOL     OW67541   4.300   1.607  11.903  0.1859  0.0027  0.3252
20164SOL    HW167542   4.377   1.658  11.879  0.0365 -0.6377 -1.6318
20164SOL    HW267543   4.243   1.612  11.827 -1.3037 -0.3432  1.3741
20165SOL     OW67544   1.270   1.879   0.214 -0.2555  0.0227  0.2738
20165SOL    HW167545   1.203   1.824   0.255  1.3145 -1.3815  1.0881
20165SOL    HW267546   1.304   1.932   0.285 -1.7690  2.1978 -0.5085
20166SOL     OW67547   6.123  11.999   2.940 -0.5119 -0.0696  0.0167
20166SOL    HW167548   6.111  12.013   3.034 -0.7099 -0.4095  0.0453
20166SOL    HW267549   6.062  12.060   2.898 -0.5816 -0.0703  0.1176
20167SOL     OW67550   9.617   9.524   0.751  0.6880  0.1502  0.0914
20167SOL    HW167551   9.534   9.570   0.763  1.1602  0.4371  2.8992
20167SOL    HW267552   9.648   9.553   0.665 -0.5782  2.6436  0.3819
20168SOL     OW67553  12.342   0.047   9.792  0.1021  0.2900 -0.3900
20168SOL    HW167554  12.279   0.012   9.729  0.1087  0.7840 -0.6781
20168SOL    HW267555  12.383  -0.030   9.831 -1.8970 -0.1098  1.0818
20169SOL     OW67556  11.192   8.236   1.855  0.3083 -0.1244 -0.1231
20169SOL    HW167557  11.212   8.325   1.883  2.0110 -0.5456  0.1128
20169SOL    HW267558  11.276   8.190   1.860 -0.8208 -2.2002  1.4479
20170SOL     OW67559   7.753   1.017   2.175  0.2949 -0.5974  0.3148
20170SOL    HW167560   7.711   1.018   2.261  2.4030 -0.4829  1.4152
20170SOL    HW267561   7.787   0.928   2.166 -0.9546 -0.9807 -0.9906
20171SOL     OW67562   8.627  11.559   1.761 -0.0890  0.5287  0.6115
20171SOL    HW167563   8.581  11.501   1.822  2.3526 -1.0277  1.0797
20171SOL    HW267564   8.690  11.606   1.815 -0.8196  2.4223 -0.0699
20172SOL     OW67565   2.555   4.805   4.804 -0.8690  0.8428  0.7880
20172SOL    HW167566   2.585   4.851   4.725  0.3403  0.2343  0.8700
20172SOL    HW267567   2.500   4.735   4.771 -0.3325  0.5634  0.4720
20173SOL     OW67568   7.358   0.677  11.898  0.7874  0.0610  0.8010
20173SOL    HW167569   7.313   0.731  11.832 -0.0419 -0.3922  0.9808
20173SOL    HW267570   7.426   0.734  11.933  0.3561  0.7697  0.5078
20174SOL     OW67571   2.948  10.538   8.327 -0.0217 -0.0681 -0.2648
20174SOL    HW167572   2.956  10.442   8.326  0.3250 -0.0466  0.2098
20174SOL    HW267573   2.959  10.562   8.419 -0.4375  0.4036 -0.3339
20175SOL     OW67574   7.833   4.590   6.686 -0.0690  0.0457  0.0803
20175SOL    HW167575   7.806   4.670   6.731  0.8865  1.1013 -1.1246
20175SOL    HW267576   7.828   4.612   6.593  1.5080 -0.8340 -0.2540
20176SOL     OW67577   8.474   1.270   5.287 -0.2429 -0.3057  0.0123
20176SOL    HW167578   8.396   1.288   5.234  0.0078 -0.1583 -0.3084
20176SOL    HW267579   8.452   1.189   5.334 -1.5091  0.9862  1.7454
20177SOL     OW67580  11.264   2.955   6.229  0.1988  0.3862 -0.1675
20177SOL    HW167581  11.255   2.916   6.316 -0.0279 -2.5655 -1.4042
20177SOL    HW267582  11.356   2.984   6.226  0.4582 -0.2729  0.7653
20178SOL     OW67583   5.450   0.982  11.286  0.3522  0.4093 -0.0319
20178SOL    HW167584   5.502   0.931  11.349  0.8979  1.4357  0.3704
20178SOL    HW267585   5.431   1.064  11.332  0.6103  1.1105 -1.1487
20179SOL     OW67586   0.560   3.753   5.320  0.3063 -0.0935  0.1527
20179SOL    HW167587   0.507   3.774   5.397 -0.2121 -0.0141 -0.2196
20179SOL    HW267588   0.635   3.812   5.325  0.3371 -0.1720  0.6608
20180SOL     OW67589  10.314   8.946  10.939 -0.0006  0.0415  0.7857
20180SOL    HW167590  10.248   8.930  11.007 -1.7313 -1.4794 -1.1006
20180SOL    HW267591  10.368   8.867  10.939  0.5628  0.4211  0.9687
20181SOL     OW67592   2.660  11.110   7.445  0.4948 -0.5322 -0.6053
20181SOL    HW167593   2.611  11.047   7.393  1.2970 -0.7460 -1.1121
20181SOL    HW267594   2.624  11.195   7.420  0.2529 -0.7004 -0.8303
20182SOL     OW67595   4.400   5.004   0.465 -0.2296 -0.1914 -0.4086
20182SOL    HW167596   4.367   5.074   0.409 -0.4881 -0.4373 -0.5697
20182SOL    HW267597   4.453   4.950   0.407 -1.5867 -1.2074 -0.7609
20183SOL     OW67598   2.947  11.470   2.381  0.6710  0.0433  0.1253
20183SOL    HW167599   2.891  11.403   2.420  1.2737 -1.4615 -1.4461
20183SOL    HW267600   3.007  11.495   2.451 -1.6951  1.5059  1.7662
20184SOL     OW67601   9.256   0.055  10.687 -0.4282 -0.2364  0.0025
20184SOL    HW167602   9.240  -0.038  10.704 -1.6345 -0.0208  0.1370
20184SOL    HW267603   9.339   0.073  10.731  0.3689 -1.4788 -0.9082
20185SOL     OW67604   1.213  11.195   2.435 -0.2284  0.0362 -0.4142
20185SOL    HW167605   1.296  11.239   2.455 -1.0073  0.4832  2.2781
20185SOL    HW267606   1.222  11.108   2.474 -1.3251  0.4127  0.7458
20186SOL     OW67607  10.033   0.312   9.348 -0.0386  0.0155 -0.1890
20186SOL    HW167608   9.965   0.364   9.391 -0.4821 -2.0028  1.7084
20186SOL    HW267609  10.110   0.322   9.404  0.7837  0.9108 -1.4119
20187SOL     OW67610   9.917  11.295  11.789  0.1414  0.3109  0.1683
20187SOL    HW167611   9.993  11.336  11.748 -0.1422  0.4897 -0.1811
20187SOL    HW267612   9.853  11.286  11.719  1.0857 -3.1427 -0.4542
20188SOL     OW67613   2.296   1.547  10.614  0.1372  0.8490 -0.1301
20188SOL    HW167614   2.262   1.523  10.701  1.2418 -0.2121  0.0411
20188SOL    HW267615   2.293   1.642  10.613  1.7069  0.9856  1.7885
20189SOL     OW67616   2.706   0.317   9.491  0.2458 -0.2055  0.1114
20189SOL    HW167617   2.631   0.298   9.547  0.4693 -2.3093 -0.2550
20189SOL    HW267618   2.688   0.405   9.457 -1.9173 -0.5529  0.2211
20190SOL     OW67619   0.146   7.073   9.902 -0.0842  0.2681  0.2264
20190SOL    HW167620   0.106   7.016   9.836  0.7082 -0.2181  0.1543
20190SOL    HW267621   0.145   7.021   9.983 -0.1586  0.4840  0.3645
20191SOL     OW67622   1.122   5.661   6.097  0.5404  0.5514  0.0840
20191SOL    HW167623   1.213   5.676   6.121  0.6943  1.4772 -0.9830
20191SOL    HW267624   1.121   5.666   6.001 -0.4194 -0.6988 -0.0042
20192SOL     OW67625   4.974   6.636   1.583  0.2721 -0.0236  0.1757
20192SOL    HW167626   4.896   6.585   1.604  0.8554 -1.4698 -0.9232
20192SOL    HW267627   4.969   6.713   1.639 -0.4304 -1.5022  2.2857
20193SOL     OW67628   9.225   5.279   1.576 -0.2464 -0.1086 -0.1248
20193SOL    HW167629   9.186   5.356   1.533 -0.4577 -0.2993 -0.2764
20193SOL    HW267630   9.319   5.287   1.560 -0.1684  0.5815  0.5979
20194SOL     OW67631   4.050   0.548   0.304  0.2383  0.4462 -0.4224
20194SOL    HW167632   4.080   0.608   0.236  1.6639  0.2851  0.0494
20194SOL    HW267633   4.062   0.596   0.386  3.3733 -1.1150  0.1810
20195SOL     OW67634   3.926   2.130  10.679  0.8236  0.0021  0.5714
20195SOL    HW167635   3.843   2.091  10.704  1.0339  0.6848  2.5055
20195SOL    HW267636   3.910   2.225  10.684  1.0929  0.1860 -1.3223
20196SOL     OW67637  11.923   0.710   8.239  0.1898  0.2984 -0.3249
20196SOL    HW167638  11.883   0.655   8.306 -1.2410  1.6982  0.0336
20196SOL    HW267639  11.945   0.650   8.168  1.7315 -1.2118  1.3594
20197SOL     OW67640  12.185   8.955   0.673  0.0149  0.2374 -0.3532
20197SOL    HW167641  12.244   9.029   0.660  2.4335 -1.2152  1.4794
20197SOL    HW267642  12.146   8.969   0.759 -0.1954 -0.1917 -0.3716
20198SOL     OW67643   3.526  11.998   0.787  0.2157  0.3356  0.0977
20198SOL    HW167644   3.495  12.000   0.877  0.3447  3.5176  0.2139
20198SOL    HW267645   3.599  12.060   0.786  1.9052 -1.5423 -1.6940
20199SOL     OW67646   9.171   8.327   5.440 -0.1557 -0.9629 -0.0805
20199SOL    HW167647   9.221   8.346   5.520 -0.4284  1.6571 -0.4441
20199SOL    HW267648   9.235   8.336   5.369 -0.4236 -0.8670 -0.3117
20200SOL     OW67649   0.028  12.209   7.930  0.2822  0.2451  0.1966
20200SOL    HW167650   0.043  12.222   8.024 -0.5121  2.2276  0.0954
20200SOL    HW267651  -0.044  12.147   7.925 -0.0448  0.5559  0.9212
20201SOL     OW67652   6.898   6.982   6.917 -0.2566  0.1374  0.1663
20201SOL    HW167653   6.960   6.952   6.983 -0.7961  1.0186  1.1171
20201SOL    HW267654   6.947   7.045   6.864 -0.0747  0.1319  0.3301
20202SOL     OW67655  10.999   9.382   2.723  0.3837 -0.3226 -0.5404
20202SOL    HW167656  11.022   9.437   2.649  0.2569  2.0717  1.1004
20202SOL    HW267657  11.079   9.377   2.775  0.3671 -1.6859 -0.5878
20203SOL     OW67658   2.788   2.528   1.168  0.2831 -0.3287  0.3339
20203SOL    HW167659   2.761   2.470   1.097  0.6030 -1.2127  0.9158
20203SOL    HW267660   2.884   2.525   1.166  0.3885  1.6757 -0.8132
20204SOL     OW67661   3.836  12.281   2.896  0.2198  0.2784  0.4998
20204SOL    HW167662   3.746  12.266   2.923 -0.7575  1.2324 -1.9021
20204SOL    HW267663   3.844  12.376   2.890  0.7317  0.1622 -1.1906
20205SOL     OW67664   7.894   8.904   8.143  0.3256 -0.1508  0.0340
20205SOL    HW167665   7.815   8.949   8.112  0.6379  0.1889 -0.2774
20205SOL    HW267666   7.871   8.811   8.141  1.2396 -0.4942 -4.0957
20206SOL     OW67667   5.226   7.363   5.424  0.4737 -0.0596  0.3053
20206SOL    HW167668   5.176   7.415   5.487 -1.2053  0.8560 -1.6802
20206SOL    HW267669   5.317   7.391   5.437 -0.1032  1.7105  0.8588
20207SOL     OW67670   5.237  11.671   0.409  0.0453  0.2571  0.3249
20207SOL    HW167671   5.254  11.689   0.501  0.8988 -0.5658  0.3383
20207SOL    HW267672   5.314  11.623   0.379 -0.2079  0.5347 -0.8251
20208SOL     OW67673  11.441   7.282   7.698 -0.3462 -0.2040  0.1922
20208SOL    HW167674  11.499   7.353   7.670  1.1047 -0.6469  1.8546
20208SOL    HW267675  11.375   7.277   7.630  0.8667  1.1601 -1.1784
20209SOL     OW67676   1.042  11.860   2.761  0.3482  0.4429  0.0519
20209SOL    HW167677   0.981  11.911   2.707  0.1260  1.0797  0.8975
20209SOL    HW267678   1.080  11.797   2.699 -1.3808 -0.1835 -0.4448
20210SOL     OW67679   5.829   5.718   7.133 -0.1112  0.2579 -0.5904
20210SOL    HW167680   5.798   5.762   7.054 -1.2296 -2.1036 -1.5712
20210SOL    HW267681   5.924   5.717   7.124 -0.1099  1.6204 -0.9632
20211SOL     OW67682  12.139   1.900  10.962 -0.6117  0.1071  0.2449
20211SOL    HW167683  12.088   1.847  10.901  0.2341  0.0278 -0.4127
20211SOL    HW267684  12.226   1.859  10.963 -0.2766  0.7984  0.6028
20212SOL     OW67685   6.078  10.033   5.144  0.1768 -0.2685 -0.1444
20212SOL    HW167686   5.990  10.056   5.172  0.2412  0.8309 -0.7811
20212SOL    HW267687   6.095  10.091   5.070  1.0920 -1.1015 -0.6047
20213SOL     OW67688   7.811  11.161  10.581 -0.6750 -0.0335 -0.2515
20213SOL    HW167689   7.867  11.231  10.546 -3.3981  2.7199  0.4786
20213SOL    HW267690   7.842  11.150  10.671  0.6946 -0.8732 -0.7895
20214SOL     OW67691   3.840   4.602   8.376 -0.1422 -0.5497 -0.4879
20214SOL    HW167692   3.790   4.562   8.447  1.2841  1.2962  1.7359
20214SOL    HW267693   3.875   4.529   8.327  0.2371 -2.0085  1.8000
20215SOL     OW67694   9.214   2.596   1.819 -0.3617 -0.0419 -0.1242
20215SOL    HW167695   9.232   2.503   1.809  1.4467  0.2694 -0.1174
20215SOL    HW267696   9.300   2.638   1.816 -1.1676  1.6846 -0.6395
20216SOL     OW67697  11.401   5.241  11.230  0.2735 -0.1869 -0.6369
20216SOL    HW167698  11.349   5.226  11.309  0.7772 -3.3864 -0.7773
20216SOL    HW267699  11.351   5.306  11.180 -3.2225 -2.3883 -0.3765
20217SOL     OW67700   3.401   5.781  12.256  0.5698  0.4626  0.5582
20217SOL    HW167701   3.321   5.805  12.210  0.8235  1.2939  0.5288
20217SOL    HW267702   3.373   5.770  12.347  0.6114  1.9498  0.7802
20218SOL     OW67703   3.471   2.569   1.494 -0.8293 -0.3597  0.8622
20218SOL    HW167704   3.512   2.654   1.482  0.5036 -0.8841  1.4086
20218SOL    HW267705   3.392   2.586   1.545 -2.8122  1.0138 -2.3536
20219SOL     OW67706   8.965  10.018   1.545 -0.4131  0.7004 -0.2028
20219SOL    HW167707   9.004  10.051   1.465  0.9389  1.9367  0.9000
20219SOL    HW267708   8.893  10.078   1.564 -1.2928 -0.1018 -0.9150
20220SOL     OW67709   1.383  12.474   1.607 -0.2074 -0.2042 -0.0841
20220SOL    HW167710   1.383  12.538   1.677 -0.1881 -1.5309  1.1646
20220SOL    HW267711   1.293  12.476   1.573 -0.4445 -0.1330  0.5356
20221SOL     OW67712   6.017   0.359  11.767 -0.2567  0.0619  0.1226
20221SOL    HW167713   6.025   0.321  11.679 -0.8327  0.7349 -0.2382
20221SOL    HW267714   6.059   0.295  11.825  0.3746 -0.2682 -0.6699
20222SOL     OW67715   1.611   3.981   8.382  0.1182 -0.0959  0.9389
20222SOL    HW167716   1.530   4.023   8.352 -1.2043 -1.6957  2.0279
20222SOL    HW267717   1.630   4.021   8.466 -0.0721 -0.3501  1.1043
20223SOL     OW67718  10.836   1.519   7.045  0.6216 -0.2924 -0.7529
20223SOL    HW167719  10.877   1.604   7.029  1.0517 -0.4585 -0.5559
20223SOL    HW267720  10.893   1.477   7.110 -0.6271  0.0432  0.6175
20224SOL     OW67721   3.648   4.362   4.671 -0.2234  0.0439 -0.1565
20224SOL    HW167722   3.628   4.271   4.691  0.6709  0.0805  1.0610
20224SOL    HW267723   3.706   4.390   4.742  0.0404  1.3718 -0.8505
20225SOL     OW67724   6.518   0.884   1.484 -0.0484 -0.7043  0.1361
20225SOL    HW167725   6.513   0.931   1.401 -0.4585 -0.6429  0.1907
20225SOL    HW267726   6.610   0.862   1.494  0.2667  0.6688  0.4358
20226SOL     OW67727   1.245   5.730   2.816  0.3313 -0.0839  0.1143
20226SOL    HW167728   1.156   5.744   2.785  0.5856 -0.3805 -0.7935
20226SOL    HW267729   1.235   5.694   2.904 -0.4920 -1.1330 -0.3804
20227SOL     OW67730   1.212   2.891   2.699  0.1442  0.1642 -0.2847
20227SOL    HW167731   1.191   2.873   2.607  0.9135 -1.8969 -0.0922
20227SOL    HW267732   1.240   2.807   2.734 -2.1811  0.3865  2.4280
20228SOL     OW67733  11.688   4.533  10.816  0.1150 -0.0414 -0.3107
20228SOL    HW167734  11.741   4.503  10.890 -0.5212 -0.0027  0.1660
20228SOL    HW267735  11.600   4.503  10.835  0.0148 -0.4169 -1.2809
20229SOL     OW67736  11.764   1.760   7.131  0.0717 -0.5786 -0.4800
20229SOL    HW167737  11.794   1.680   7.173  1.1538  0.6371  1.2101
20229SOL    HW267738  11.678   1.738   7.096  0.3345 -2.4587 -0.0630
20230SOL     OW67739  10.524   7.114   6.181  0.4775 -0.0460  0.0227
20230SOL    HW167740  10.467   7.134   6.106 -1.5661  1.6365  1.8824
20230SOL    HW267741  10.534   7.019   6.178 -0.6333 -0.1529 -1.6535
20231SOL     OW67742   3.253   6.769   3.719 -0.0722 -0.0296  0.3281
20231SOL    HW167743   3.343   6.800   3.724 -0.4357  1.0816  0.2825
20231SOL    HW267744   3.203   6.831   3.773 -1.1361  0.6526 -1.3683
20232SOL     OW67745   5.712   3.004   3.489 -0.3854 -0.8078  0.2033
20232SOL    HW167746   5.653   2.966   3.554  0.5058 -0.1211  1.4597
20232SOL    HW267747   5.658   3.066   3.441 -1.0253 -1.2139  0.3917
20233SOL     OW67748   9.949   3.946   2.485 -0.1724 -0.0053  0.2568
20233SOL    HW167749  10.038   3.969   2.512  0.0202  0.0350 -0.3880
20233SOL    HW267750   9.961   3.868   2.429 -0.5517 -0.0786  0.2793
20234SOL     OW67751   4.786   1.154   9.772  0.1180 -0.4334 -0.1763
20234SOL    HW167752   4.783   1.058   9.774 -1.4594 -0.4728 -1.9485
20234SOL    HW267753   4.723   1.179   9.705  0.5019  1.8731  0.2313
20235SOL     OW67754   5.664   5.193   2.357 -0.1507 -0.4119  0.4434
20235SOL    HW167755   5.598   5.256   2.328 -0.9989 -0.6495  1.8116
20235SOL    HW267756   5.655   5.119   2.296 -1.5408 -0.6824  0.9417
20236SOL     OW67757   7.736   6.716   2.488 -0.3774 -0.6496  0.0146
20236SOL    HW167758   7.831   6.726   2.495 -0.6083  0.8173  2.9765
20236SOL    HW267759   7.715   6.747   2.400  1.7921 -0.1801 -0.4083
20237SOL     OW67760   1.800   9.622   9.061  0.3291  0.2915  0.4509
20237SOL    HW167761   1.876   9.564   9.059  0.0926 -0.0083 -0.6524
20237SOL    HW267762   1.781   9.640   8.969 -1.7618 -0.7763  0.5966
20238SOL     OW67763   0.337   4.933   2.244 -0.2824  0.1721  0.1144
20238SOL    HW167764   0.242   4.942   2.239 -0.2839  1.3307  1.5393
20238SOL    HW267765   0.361   4.975   2.327  1.6501  1.5310 -1.0495
20239SOL     OW67766   0.137   0.462   5.312  0.2493 -0.5870  0.4100
20239SOL    HW167767   0.092   0.475   5.395  0.8053 -1.8746  0.9420
20239SOL    HW267768   0.120   0.371   5.289  0.4929 -0.3801 -0.6606
20240SOL     OW67769   2.708   9.575  11.956 -0.4281  0.6254  0.1790
20240SOL    HW167770   2.728   9.591  11.864 -0.8315 -3.4755 -0.8020
20240SOL    HW267771   2.793   9.557  11.996 -0.3522  1.5389  0.4629
20241SOL     OW67772   7.450   8.217   1.074 -0.4479  0.0946 -0.6339
20241SOL    HW167773   7.521   8.180   1.022 -0.1438 -0.2409  0.0081
20241SOL    HW267774   7.420   8.144   1.128  0.5807  0.8952  1.1148
20242SOL     OW67775   3.410   6.778   5.785 -0.0711  0.0701 -0.0200
20242SOL    HW167776   3.462   6.823   5.718  0.2025  0.9216  0.7440
20242SOL    HW267777   3.470   6.770   5.859 -0.9988  1.0094  0.8599
20243SOL     OW67778   2.802   3.838   3.106  0.4350 -0.1826 -0.0999
20243SOL    HW167779   2.864   3.856   3.035  0.7790 -1.1478 -0.0677
20243SOL    HW267780   2.771   3.749   3.088  1.7913 -1.1393  1.8391
20244SOL     OW67781   4.217   4.390   9.926 -0.3621  0.4945 -0.0587
20244SOL    HW167782   4.168   4.472   9.920  0.2669  0.7807 -2.1793
20244SOL    HW267783   4.258   4.380   9.839 -0.2321 -1.9459  0.2190
20245SOL     OW67784   0.802   2.837   0.930 -0.3649 -0.3308  0.1339
20245SOL    HW167785   0.836   2.861   0.844 -0.2890  1.7946  0.7091
20245SOL    HW267786   0.722   2.789   0.911 -0.0772 -0.3569 -1.1234
20246SOL     OW67787  11.245   5.030   0.493 -0.3628  0.0243 -0.3981
20246SOL    HW167788  11.305   5.071   0.431  0.7203 -1.8986 -0.6786
20246SOL    HW267789  11.215   4.951   0.448 -1.7383  0.0314  0.4613
20247SOL     OW67790  11.884  10.496   8.813  0.4012  0.0301 -0.0653
20247SOL    HW167791  11.879  10.590   8.796  0.8352  0.1725  0.5805
20247SOL    HW267792  11.849  10.486   8.902  0.7373 -0.3699  0.0238
20248SOL     OW67793   0.179   6.466   2.536  0.4562 -0.0013  0.1918
20248SOL    HW167794   0.135   6.548   2.516 -1.1171 -1.3548 -2.5098
20248SOL    HW267795   0.111   6.399   2.524  1.8490 -1.7762  1.5868
20249SOL     OW67796   0.166   1.692   2.076 -0.3365  0.0413 -0.2629
20249SOL    HW167797   0.086   1.701   2.024  0.2785  0.7191 -1.1089
20249SOL    HW267798   0.152   1.748   2.153 -1.5717 -1.5696  0.7522
20250SOL     OW67799  10.235   7.230   7.376 -0.2644  0.0467  0.1432
20250SOL    HW167800  10.185   7.172   7.318 -1.7785  0.8672  0.5659
20250SOL    HW267801  10.323   7.194   7.376 -0.8972 -1.6126 -0.4682
20251SOL     OW67802   9.630   5.098   9.464  0.4625  0.1173  0.9656
20251SOL    HW167803   9.682   5.018   9.467  2.0613  1.0978  0.6836
20251SOL    HW267804   9.542   5.071   9.491  1.1707 -1.5539  1.7353
20252SOL     OW67805   8.728   8.163   3.798  0.1418  0.5015  0.5832
20252SOL    HW167806   8.803   8.127   3.751  0.6711  0.2192  1.6091
20252SOL    HW267807   8.677   8.209   3.731  1.7452  1.5445  0.0225
20253SOL     OW67808   4.725   3.606   8.526 -0.6574  0.2587 -0.3943
20253SOL    HW167809   4.710   3.701   8.525  0.5898  0.4677 -0.6453
20253SOL    HW267810   4.670   3.572   8.456 -1.0300  0.8141 -0.3720
20254SOL     OW67811   6.334   4.975   7.539 -0.8364  0.3054 -0.4045
20254SOL    HW167812   6.370   5.017   7.461 -0.6998  0.4183 -0.2807
20254SOL    HW267813   6.406   4.922   7.574 -1.0439 -0.1305 -0.6275
20255SOL     OW67814   9.560   6.573   3.435  0.1125  0.5432 -0.9124
20255SOL    HW167815   9.610   6.494   3.456  1.5091  1.3672 -0.9939
20255SOL    HW267816   9.614   6.618   3.370 -1.3741  0.8544 -1.9802
20256SOL     OW67817   9.952   6.719   6.983 -0.2100 -0.0519 -0.2476
20256SOL    HW167818   9.993   6.726   6.896 -1.1207  0.8361 -0.6266
20256SOL    HW267819   9.890   6.646   6.974 -0.9981  0.6460 -0.6587
20257SOL     OW67820   1.818  12.187   5.354 -0.0457  0.3644 -0.3192
20257SOL    HW167821   1.892  12.149   5.402 -0.2422  1.2824  0.7545
20257SOL    HW267822   1.753  12.118   5.350  0.0846  0.1829  0.5137
20258SOL     OW67823   0.464   7.548   6.090  0.2936  0.6506 -0.9329
20258SOL    HW167824   0.472   7.509   6.002 -0.1541  3.7786 -2.5093
20258SOL    HW267825   0.401   7.619   6.079  0.7111  1.5561  1.7942
20259SOL     OW67826   4.157   4.859   2.977  0.0616 -0.5420  0.4994
20259SOL    HW167827   4.134   4.941   2.933 -2.8295 -1.0468  0.8747
20259SOL    HW267828   4.246   4.873   3.008 -0.3383  2.4705  0.5943
20260SOL     OW67829   0.138   7.907  11.897 -0.3078 -0.1838 -0.2036
20260SOL    HW167830   0.119   7.988  11.851 -0.7448  0.0594  0.3872
20260SOL    HW267831   0.170   7.935  11.983 -1.7228 -0.6242  0.5002
20261SOL     OW67832   8.391   5.676   8.703  0.5896 -0.0777 -0.1599
20261SOL    HW167833   8.359   5.766   8.701 -1.0821 -0.5893  1.2303
20261SOL    HW267834   8.478   5.682   8.741 -0.7583  0.7168  3.1020
20262SOL     OW67835   0.062   4.940  12.214  0.0174 -0.1014 -0.0052
20262SOL    HW167836   0.057   4.993  12.293 -1.2347  0.2301 -0.2866
20262SOL    HW267837  -0.005   4.977  12.156  0.1344 -1.0629 -0.7779
20263SOL     OW67838   9.313   7.551   2.906 -0.1751  0.0570 -0.3373
20263SOL    HW167839   9.301   7.512   2.993 -1.9849 -1.3493 -1.1524
20263SOL    HW267840   9.321   7.476   2.847  0.6765  0.9897 -1.4399
20264SOL     OW67841   2.340   0.193   6.404  0.4555 -0.0486 -0.2317
20264SOL    HW167842   2.296   0.248   6.340  0.1256 -1.5734 -1.3789
20264SOL    HW267843   2.433   0.199   6.382  0.4953  0.5372  0.0693
20265SOL     OW67844   5.852   0.669   4.011  0.1184  0.5041 -0.3162
20265SOL    HW167845   5.870   0.669   4.105  0.8247 -0.3355 -0.4432
20265SOL    HW267846   5.934   0.698   3.971  0.6874 -1.5738 -0.7921
20266SOL     OW67847   7.858   8.548   9.074 -0.1171 -0.3050 -0.2913
20266SOL    HW167848   7.914   8.599   9.016 -0.6071 -0.7164 -1.1446
20266SOL    HW267849   7.787   8.516   9.018 -0.4089 -1.0135  0.4541
20267SOL     OW67850   0.998   2.903   1.136  0.2607  0.7883 -0.6902
20267SOL    HW167851   0.921   2.884   1.083  0.1496  0.9073 -0.5707
20267SOL    HW267852   1.018   2.995   1.119  0.4902  0.7090 -0.8662
20268SOL     OW67853   4.025  10.474   4.368  0.3256 -0.2191  0.6332
20268SOL    HW167854   3.943  10.426   4.368 -0.6358  1.2671 -1.0442
20268SOL    HW267855   4.091  10.411   4.397 -1.0917 -2.0271  0.0819
20269SOL     OW67856   6.470   8.549   3.637 -0.3893 -0.4135  0.0050
20269SOL    HW167857   6.414   8.534   3.713  0.1242 -1.9634  0.1117
20269SOL    HW267858   6.422   8.510   3.564  0.4077 -1.5745  0.0647
20270SOL     OW67859   8.108   6.009   2.047  0.2892  0.0824 -0.4343
20270SOL    HW167860   8.132   5.918   2.030  0.2388 -0.1674  0.7132
20270SOL    HW267861   8.020   6.018   2.011 -0.0941 -0.6143  0.2977
20271SOL     OW67862  11.034   8.552   3.909 -0.3353 -0.4379 -0.0909
20271SOL    HW167863  10.973   8.519   3.844 -1.3406  0.8175  0.1651
20271SOL    HW267864  11.024   8.647   3.905  2.0705 -0.1350 -0.4653
20272SOL     OW67865   8.953   8.116   5.279 -0.1797 -0.0887  0.7548
20272SOL    HW167866   8.902   8.197   5.291 -0.5966 -0.1292 -0.4886
20272SOL    HW267867   9.008   8.110   5.356 -0.2487  1.3172  0.9443
20273SOL     OW67868   7.434   1.309   2.352 -0.4324  0.0481  0.1105
20273SOL    HW167869   7.436   1.262   2.268  1.1557  0.3023 -0.0188
20273SOL    HW267870   7.403   1.243   2.415 -0.1406 -0.6016 -0.4104
20274SOL     OW67871   3.685   2.484  11.078 -0.1732  0.3950 -0.0306
20274SOL    HW167872   3.610   2.530  11.040  0.2260  0.7424 -0.4162
20274SOL    HW267873   3.669   2.392  11.059 -0.9175  0.3797  0.6345
20275SOL     OW67874  10.715  12.366   2.909 -0.4542  0.3554  0.2342
20275SOL    HW167875  10.787  12.429   2.903 -1.0849  0.9382 -2.2721
20275SOL    HW267876  10.637  12.417   2.886 -1.3694 -0.7714  0.7512
20276SOL     OW67877  10.506   4.592   9.545 -0.1969 -0.0316 -0.4110
20276SOL    HW167878  10.534   4.501   9.558 -1.5518 -0.4891 -0.6254
20276SOL    HW267879  10.585   4.643   9.564  0.4300 -1.2056  0.2889
20277SOL     OW67880   7.413   1.925   7.111 -0.5246  0.0261 -0.1969
20277SOL    HW167881   7.430   1.832   7.100  1.0255  0.0582  1.3818
20277SOL    HW267882   7.443   1.964   7.029 -0.7438 -0.8168 -0.6898
20278SOL     OW67883   9.339   7.214  10.138 -0.5844  0.0779 -0.6264
20278SOL    HW167884   9.316   7.174  10.054 -0.5146 -1.3082 -0.0217
20278SOL    HW267885   9.327   7.307  10.125 -2.5328 -0.2602 -1.5722
20279SOL     OW67886   9.003   6.580   2.496 -0.1546 -0.6523 -0.4364
20279SOL    HW167887   9.062   6.590   2.421 -0.1083 -0.0272 -0.3277
20279SOL    HW267888   9.022   6.657   2.551 -0.0536 -1.1946  0.3036
20280SOL     OW67889   7.122   3.786  11.049 -0.7164  0.3874 -0.0483
20280SOL    HW167890   7.047   3.727  11.042 -0.4977  0.0381  0.5560
20280SOL    HW267891   7.188   3.748  10.991 -0.5469 -0.0122  0.4026
20281SOL     OW67892   3.103   8.112  10.678  0.2613 -0.1292 -0.0923
20281SOL    HW167893   3.123   8.182  10.616  0.3035 -0.3073 -0.2831
20281SOL    HW267894   3.023   8.142  10.722 -0.1376 -0.2903 -0.6925
20282SOL     OW67895   5.466   7.970  12.182  0.0646  0.3603  0.0185
20282SOL    HW167896   5.470   8.030  12.256 -1.5533 -0.4780  0.8434
20282SOL    HW267897   5.453   7.883  12.222  1.3235 -0.4120 -1.1705
20283SOL     OW67898  11.799   8.442   0.533  0.4367  0.3068  0.1327
20283SOL    HW167899  11.795   8.455   0.627 -3.1665 -3.2550  0.7159
20283SOL    HW267900  11.771   8.526   0.495 -0.3342  1.0841  2.3058
20284SOL     OW67901   3.078   3.510   8.120 -0.0982 -0.5366  0.1040
20284SOL    HW167902   3.053   3.423   8.151 -0.4540 -0.2626  0.6008
20284SOL    HW267903   3.112   3.495   8.032  0.5429 -1.2740  0.4593
20285SOL     OW67904   0.148   1.351   1.909  0.3523  0.2285 -0.2001
20285SOL    HW167905   0.175   1.270   1.866  0.4078  0.6035 -0.8739
20285SOL    HW267906   0.053   1.352   1.899 -0.0255 -1.1773  2.3173
20286SOL     OW67907   6.402   5.995   9.391 -0.7123 -0.6323  0.2271
20286SOL    HW167908   6.401   5.996   9.296  0.0392 -1.1784  0.2101
20286SOL    HW267909   6.392   5.903   9.415  2.0994 -0.9379  0.5990
20287SOL     OW67910   7.534   6.535  11.627  0.2246  0.0838 -0.2338
20287SOL    HW167911   7.470   6.468  11.602  0.8190 -0.8073  0.5712
20287SOL    HW267912   7.502   6.567  11.711  1.5709 -1.4259  0.9303
20288SOL     OW67913   0.565   0.467   9.976  0.0529 -0.0745  0.6070
20288SOL    HW167914   0.515   0.548   9.968 -0.7015 -0.5045  0.9443
20288SOL    HW267915   0.508   0.407  10.024  0.2183 -1.1438 -0.4888
20289SOL     OW67916   8.246   3.568  12.414 -0.4597 -0.6775  0.2960
20289SOL    HW167917   8.251   3.661  12.394  1.0095 -0.2758  2.2206
20289SOL    HW267918   8.243   3.525  12.328 -2.5779  1.1448 -0.6294
20290SOL     OW67919   9.084   0.478  10.760 -0.2827 -0.3746 -0.3322
20290SOL    HW167920   9.053   0.390  10.782 -1.1047 -0.1219 -0.4550
20290SOL    HW267921   9.015   0.515  10.706 -0.2575  0.5952  0.2815
20291SOL     OW67922  11.712   4.050   2.422 -0.2316 -0.5097 -0.1387
20291SOL    HW167923  11.730   4.105   2.346  0.8907  0.8452  1.0439
20291SOL    HW267924  11.727   3.960   2.391 -0.4355 -0.0484 -1.6648
20292SOL     OW67925   2.280   5.018  10.224  0.1855 -0.2743 -0.3895
20292SOL    HW167926   2.222   5.060  10.287 -0.3601  1.2106 -1.8129
20292SOL    HW267927   2.250   5.049  10.138  2.8392  0.3153 -1.2247
20293SOL     OW67928   5.455   5.721   4.431 -0.3106 -0.1287 -0.5939
20293SOL    HW167929   5.481   5.630   4.446 -1.5593 -0.4520 -0.3317
20293SOL    HW267930   5.407   5.719   4.349 -1.8078 -0.0298  0.2376
20294SOL     OW67931  11.816  11.045   9.197 -0.4964  0.2752 -0.3538
20294SOL    HW167932  11.863  11.124   9.170  2.9437 -0.5628  2.4562
20294SOL    HW267933  11.738  11.077   9.243 -0.4584  1.9108 -1.3815
20295SOL     OW67934   4.429   6.104  12.269 -0.3316  0.3016  0.1961
20295SOL    HW167935   4.362   6.158  12.226  0.1718  0.1344 -0.8210
20295SOL    HW267936   4.383   6.065  12.344 -1.7538 -0.7587 -1.1429
20296SOL     OW67937   0.348   4.033   7.467 -0.0819  0.1608  0.0316
20296SOL    HW167938   0.284   3.962   7.466  0.8257 -0.6754 -0.4084
20296SOL    HW267939   0.366   4.050   7.374 -1.2953  1.9286  0.0622
20297SOL     OW67940   8.876   7.320   4.272  0.4294 -0.3262 -0.3791
20297SOL    HW167941   8.861   7.401   4.223 -1.3001 -0.4459 -0.1293
20297SOL    HW267942   8.793   7.304   4.318  1.9103 -0.3064  2.4972
20298SOL     OW67943   1.946   3.355  11.516 -0.5104  0.4221 -0.6098
20298SOL    HW167944   1.934   3.282  11.456 -0.9006 -0.6616  0.7420
20298SOL    HW267945   1.908   3.430  11.471 -2.5069 -0.7362 -0.9503
20299SOL     OW67946  10.610  10.796   6.093  0.2057  0.4477  0.0922
20299SOL    HW167947  10.689  10.842   6.120  0.2948  0.0530  0.5042
20299SOL    HW267948  10.616  10.792   5.997  0.6426  0.4883  0.1159
20300SOL     OW67949   0.570  11.024   8.698 -0.0267 -0.1525  0.3783
20300SOL    HW167950   0.528  11.103   8.730  3.2355  1.9506 -0.0194
20300SOL    HW267951   0.607  10.983   8.776 -0.6030 -0.5973  0.4255
20301SOL     OW67952   4.618   5.930   3.789  0.1164  0.5122  0.1069
20301SOL    HW167953   4.558   5.998   3.821 -2.4112 -0.8087 -1.4577
20301SOL    HW267954   4.614   5.862   3.857  1.9966  1.4660  1.2652
20302SOL     OW67955   1.898  10.411   9.437 -0.5485 -0.1643 -0.2227
20302SOL    HW167956   1.943  10.327   9.448 -1.1982 -0.4573  0.2007
20302SOL    HW267957   1.819  10.403   9.489 -1.0274  0.4064 -0.8505
20303SOL     OW67958  11.760   6.781   5.795  0.3255 -0.4756 -0.3564
20303SOL    HW167959  11.673   6.787   5.834 -0.1836 -0.5290 -1.4454
20303SOL    HW267960  11.794   6.697   5.826 -1.0806 -1.7246 -1.9638
20304SOL     OW67961   3.293   0.177   6.303 -0.2041  0.4164 -0.7276
20304SOL    HW167962   3.201   0.194   6.287 -0.1118  1.5138 -0.1533
20304SOL    HW267963   3.317   0.113   6.237 -1.1651  0.7601 -1.4293
20305SOL     OW67964   4.161   9.745   0.280  0.2436  0.8841  0.1504
20305SOL    HW167965   4.132   9.752   0.371  3.3721  2.0040  1.1827
20305SOL    HW267966   4.250   9.709   0.285  0.8876  1.8765 -2.3797
20306SOL     OW67967   9.855   9.658   7.918 -0.5453  0.3174 -0.2814
20306SOL    HW167968   9.890   9.662   7.829  1.2728  0.9109  0.4099
20306SOL    HW267969   9.931   9.672   7.975 -1.7995  0.8700  1.3580
20307SOL     OW67970  10.120   2.872  11.446 -0.0967 -0.4061 -0.4346
20307SOL    HW167971  10.098   2.780  11.437  1.5402 -0.8450 -0.2495
20307SOL    HW267972  10.091   2.895  11.535  0.2474 -0.9785 -0.1675
20308SOL     OW67973   2.045   4.726  10.807  0.4910 -0.0924  0.0391
20308SOL    HW167974   1.950   4.720  10.798  0.5783  0.3421 -1.4276
20308SOL    HW267975   2.064   4.685  10.891 -1.1044  0.8499  0.9031
20309SOL     OW67976   0.841   3.528   2.348  0.0029  0.0640 -0.2832
20309SOL    HW167977   0.810   3.479   2.424  2.7466 -1.0506  0.2450
20309SOL    HW267978   0.824   3.620   2.370 -1.2238 -0.3700  0.6872
20310SOL     OW67979   8.645   8.181   4.656 -0.0603  0.0651 -0.6204
20310SOL    HW167980   8.556   8.212   4.673  0.1480  0.3730 -0.0687
20310SOL    HW267981   8.698   8.224   4.723  0.8963  1.7992 -2.3690
20311SOL     OW67982  12.535  12.565   5.371 -0.0108  0.4085  0.1723
20311SOL    HW167983  12.447  12.586   5.342  0.5494  0.9306 -1.2446
20311SOL    HW267984  12.553  12.627   5.442 -0.8586  0.1113  0.6592
20312SOL     OW67985   5.700   5.491  11.302 -0.2529  0.5359 -0.1308
20312SOL    HW167986   5.621   5.540  11.279  0.7022  2.2775  0.1094
20312SOL    HW267987   5.772   5.553  11.287  0.8605 -0.1108  2.1510
20313SOL     OW67988  12.052   0.123   5.673 -0.5409  0.4976 -0.3441
20313SOL    HW167989  12.135   0.123   5.625 -0.3765 -0.6193 -0.0837
20313SOL    HW267990  12.076   0.153   5.762 -0.0989 -1.4077  0.2118
20314SOL     OW67991   2.522   6.636   2.079  0.5651  0.1008 -0.2088
20314SOL    HW167992   2.588   6.695   2.042  3.3632 -2.7944 -0.2481
20314SOL    HW267993   2.529   6.649   2.174 -1.2258  2.0898 -0.2806
20315SOL     OW67994   4.086   1.235   2.376  0.4548 -0.2144 -0.5173
20315SOL    HW167995   4.065   1.327   2.394  1.2889  0.1680 -1.3812
20315SOL    HW267996   4.007   1.187   2.399 -0.2200  0.7946 -0.6678
20316SOL     OW67997  10.540   2.755  10.209  0.4213 -0.6022  0.0748
20316SOL    HW167998  10.620   2.761  10.262  1.6600  0.5868 -1.8005
20316SOL    HW267999  10.567   2.784  10.122 -2.3931  1.3092 -0.2862
20317SOL     OW68000   8.689   0.678   1.790 -0.1695  0.1586  0.5965
20317SOL    HW168001   8.752   0.739   1.752 -1.5561  0.8728 -0.6352
20317SOL    HW268002   8.654   0.723   1.867  1.1785 -0.4653  1.6103
20318SOL     OW68003  11.864   5.349   6.913 -0.2040 -0.9304 -0.0111
20318SOL    HW168004  11.953   5.340   6.946  0.0008 -2.0880 -0.8019
20318SOL    HW268005  11.814   5.285   6.963 -0.1210 -1.8731 -1.1092
20319SOL     OW68006   2.884   2.200   5.763  0.5143  0.1982  0.2542
20319SOL    HW168007   2.846   2.282   5.732  0.0934  0.1467  0.6241
20319SOL    HW268008   2.978   2.212   5.752  0.5808  1.3560  1.7577
20320SOL     OW68009   6.123   4.270   7.773  0.6147 -0.1754 -0.2413
20320SOL    HW168010   6.058   4.277   7.843  0.8758 -2.3839  0.3132
20320SOL    HW268011   6.073   4.248   7.695  0.6539 -3.1400  0.4359
20321SOL     OW68012   2.041   1.227   9.273 -0.3901  0.3287  0.1247
20321SOL    HW168013   2.111   1.230   9.338  2.0703  3.0963 -2.3593
20321SOL    HW268014   2.082   1.187   9.196 -2.3797 -0.3868 -0.6268
20322SOL     OW68015   1.069   4.107  10.097 -0.7553  0.4601 -0.4962
20322SOL    HW168016   1.059   4.165  10.021  0.5006  1.2902 -0.0537
20322SOL    HW268017   1.057   4.164  10.173  0.0122  0.0626 -0.0607
20323SOL     OW68018   3.108   0.810   4.347  0.0600 -0.7244 -1.0453
20323SOL    HW168019   3.189   0.791   4.300  1.0090 -1.0487  0.6288
20323SOL    HW268020   3.049   0.846   4.280  0.5117 -3.2459 -2.9455
20324SOL     OW68021   5.240   3.663   2.789  0.1113 -0.2483 -0.3113
20324SOL    HW168022   5.234   3.567   2.791  0.5060 -0.2777 -0.3435
20324SOL    HW268023   5.299   3.684   2.862 -0.3540  0.0027 -0.0096
20325SOL     OW68024   8.243   8.511   1.770  0.7614 -0.2118 -0.4166
20325SOL    HW168025   8.289   8.433   1.802  0.4523 -0.4449 -0.5305
20325SOL    HW268026   8.178   8.476   1.708 -0.0597  0.0480  0.2899
20326SOL     OW68027   2.541  12.326   5.886 -0.2311  0.1789 -0.4287
20326SOL    HW168028   2.476  12.311   5.956  0.1793  0.9986  0.1465
20326SOL    HW268029   2.625  12.324   5.931  0.2804 -2.0609 -1.3469
20327SOL     OW68030   6.926   2.436   0.201 -0.2139  0.3048  0.2464
20327SOL    HW168031   6.943   2.523   0.164 -3.2944  1.9654  2.2177
20327SOL    HW268032   6.882   2.388   0.131  0.5332  0.7071 -0.5168
20328SOL     OW68033   7.656   9.690  11.870 -0.2504  0.1683  0.0960
20328SOL    HW168034   7.750   9.693  11.853 -0.0278 -0.4798  1.1374
20328SOL    HW268035   7.629   9.782  11.873  0.1679  0.3561 -1.0582
20329SOL     OW68036   9.714  11.872   5.251 -0.2767  0.0723 -0.1115
20329SOL    HW168037   9.621  11.882   5.231 -0.1080 -1.6436 -2.1210
20329SOL    HW268038   9.719  11.874   5.346 -2.3591  0.2317  0.0367
20330SOL     OW68039   5.038  10.420   7.914 -0.6298 -0.6127 -0.7559
20330SOL    HW168040   5.026  10.507   7.875  2.0668  0.7083  1.0045
20330SOL    HW268041   5.025  10.433   8.008  3.0691 -1.1708  0.0127
20331SOL     OW68042  11.601   9.042  12.313 -0.6243 -0.6906 -0.1004
20331SOL    HW168043  11.592   9.111  12.379  3.6832 -0.4863  0.5613
20331SOL    HW268044  11.594   8.960  12.363 -0.0203 -0.5807  0.1769
20332SOL     OW68045   1.690   9.974   4.707  0.0601  0.4203  0.6582
20332SOL    HW168046   1.687   9.962   4.612 -1.9193  0.1071  0.7247
20332SOL    HW268047   1.766  10.030   4.722  0.2279  0.7104 -1.1386
20333SOL     OW68048   3.914   9.385  11.210 -0.2209 -0.0753  0.3121
20333SOL    HW168049   3.938   9.313  11.152 -1.7191  1.0240 -1.8184
20333SOL    HW268050   3.986   9.447  11.201 -0.6953  0.3344 -0.8904
20334SOL     OW68051   4.113   0.745   7.200 -0.0729 -0.3282 -0.2654
20334SOL    HW168052   4.160   0.816   7.245 -1.1719  0.6636 -0.6192
20334SOL    HW268053   4.031   0.785   7.173 -0.1464 -1.3651 -1.6808
20335SOL     OW68054   1.995  10.444   5.070  0.1759 -0.1186  0.4939
20335SOL    HW168055   2.058  10.483   5.131  0.4462 -0.0872  0.1942
20335SOL    HW268056   1.987  10.508   5.000  0.2786 -0.4029  0.2230
20336SOL     OW68057  11.190   8.316   8.855  0.2926 -0.1132 -0.4984
20336SOL    HW168058  11.120   8.252   8.867  0.2945 -0.2961 -1.4173
20336SOL    HW268059  11.230   8.292   8.772  0.4443  0.9349 -0.7362
20337SOL     OW68060   9.659   8.935   6.861  0.1256 -0.2820 -0.3294
20337SOL    HW168061   9.609   8.888   6.794  0.6524 -0.2451 -0.7542
20337SOL    HW268062   9.629   8.898   6.944  1.2194 -2.0722 -0.6862
20338SOL     OW68063  11.403   6.537   5.802  0.1573 -0.1695  0.2083
20338SOL    HW168064  11.388   6.591   5.724  0.4789  0.1948  0.3947
20338SOL    HW268065  11.328   6.553   5.858  0.3003  0.1630  0.3062
20339SOL     OW68066   6.954   2.916   0.362 -0.3660  0.5226  0.6365
20339SOL    HW168067   6.896   2.895   0.436 -0.9304  2.4248  0.7809
20339SOL    HW268068   6.898   2.906   0.285  0.0235 -0.7464  0.4959
20340SOL     OW68069   2.861   7.368  12.298 -0.3306 -0.5351  0.4439
20340SOL    HW168070   2.818   7.290  12.262  0.4716 -1.8114  2.1463
20340SOL    HW268071   2.950   7.364  12.264 -0.5479  0.2431 -0.2833
20341SOL     OW68072  11.075   1.607   3.912  0.5521 -0.2485 -0.7894
20341SOL    HW168073  10.980   1.596   3.917  0.5598  0.2143  1.2121
20341SOL    HW268074  11.088   1.700   3.895  0.6318 -0.1595 -0.2740
20342SOL     OW68075   6.496  12.450   1.557 -0.3502  0.1583 -0.4369
20342SOL    HW168076   6.448  12.521   1.514 -1.0808  0.0329  0.1493
20342SOL    HW268077   6.448  12.371   1.535  0.6346 -0.2110 -1.3327
20343SOL     OW68078  12.399   1.084  10.954  0.1248  0.3768  0.6170
20343SOL    HW168079  12.495   1.084  10.950  0.1098 -1.4557 -1.5600
20343SOL    HW268080  12.377   1.011  11.012  0.0823 -0.7243 -0.7350
20344SOL     OW68081  11.870  10.341   3.674 -0.3102  0.4623 -0.0591
20344SOL    HW168082  11.826  10.423   3.695  0.3647  0.3077  2.2144
20344SOL    HW268083  11.903  10.353   3.585 -0.7653  2.4118 -0.0004
20345SOL     OW68084   6.452   8.229   3.686  0.3874  0.0099 -0.3755
20345SOL    HW168085   6.508   8.227   3.608  0.0209  1.3970 -0.6958
20345SOL    HW268086   6.510   8.256   3.757  0.3343  0.5557 -0.5343
20346SOL     OW68087   8.320   2.771   9.741 -0.0150  0.2054 -0.0308
20346SOL    HW168088   8.225   2.756   9.737 -0.3283  0.8288  2.9296
20346SOL    HW268089   8.358   2.684   9.747 -0.6642  0.0142  1.7110
20347SOL     OW68090   9.504  10.843  11.258 -0.2782 -0.4431  0.4525
20347SOL    HW168091   9.553  10.764  11.233  0.7479  0.3377 -0.0882
20347SOL    HW268092   9.562  10.888  11.320 -0.6339  0.1496  0.3588
20348SOL     OW68093   5.407   4.591  10.460  0.6247 -0.1509  0.6848
20348SOL    HW168094   5.491   4.627  10.431 -0.0290  0.6085 -0.3161
20348SOL    HW268095   5.346   4.664  10.451 -0.4269 -1.0979  0.0236
20349SOL     OW68096   6.554   2.587   3.837  0.3356  0.3872 -0.4449
20349SOL    HW168097   6.540   2.682   3.834  1.2896  0.6139  1.3651
20349SOL    HW268098   6.466   2.550   3.844  0.0259  1.2251  0.3133
20350SOL     OW68099   1.035   5.363   6.880  0.2439 -0.6168  0.3927
20350SOL    HW168100   1.078   5.289   6.923 -0.8087 -0.8795  1.0064
20350SOL    HW268101   0.992   5.411   6.951  2.2356  1.5704  0.2818
20351SOL     OW68102   7.929   8.664  10.086 -0.3239  0.6899 -0.1149
20351SOL    HW168103   7.986   8.722  10.137  0.0827  0.9505 -0.8437
20351SOL    HW268104   7.988   8.621  10.024 -0.4191 -1.3527  1.1057
20352SOL     OW68105  11.585   6.918   8.859  0.0144  0.6338 -0.0930
20352SOL    HW168106  11.509   6.969   8.833  0.9371  2.1100  0.0191
20352SOL    HW268107  11.558   6.874   8.940 -0.5882  1.4428  0.1535
20353SOL     OW68108   4.861   4.642  11.028 -0.3707 -0.3087  0.3208
20353SOL    HW168109   4.953   4.653  11.053 -0.7469  0.1605  1.5647
20353SOL    HW268110   4.812   4.657  11.109 -1.5441 -0.5916 -0.3170
20354SOL     OW68111   6.592   7.046  12.125  0.5490 -0.1869 -0.9844
20354SOL    HW168112   6.581   7.125  12.072  1.8672  0.9459  0.3647
20354SOL    HW268113   6.504   7.025  12.155 -0.1858 -0.6467 -3.2485
20355SOL     OW68114  12.060   8.964   2.382 -0.2526 -0.2773 -0.8848
20355SOL    HW168115  12.001   8.926   2.447 -1.7149  0.2625 -1.8400
20355SOL    HW268116  12.113   8.889   2.352 -0.0852 -0.6726  0.3388
20356SOL     OW68117  10.491  10.254  12.264 -0.1186 -0.3572  0.1851
20356SOL    HW168118  10.490  10.292  12.352 -0.0806 -0.6762  0.3215
20356SOL    HW268119  10.538  10.172  12.273 -3.5720 -2.4690  0.7548
20357SOL     OW68120   2.106   8.790  10.166 -0.4005  0.1027  0.0892
20357SOL    HW168121   2.190   8.794  10.121 -0.0399  1.0998  0.8053
20357SOL    HW268122   2.053   8.858  10.123 -0.8203 -0.4514 -0.2908
20358SOL     OW68123   2.868   5.323  10.748  0.1485  0.2635  0.1977
20358SOL    HW168124   2.868   5.233  10.782  0.1835 -0.0942 -0.7130
20358SOL    HW268125   2.812   5.371  10.808 -0.0336 -0.4176  0.5893
20359SOL     OW68126   7.763   7.481  10.745 -0.4466  0.4201  0.0445
20359SOL    HW168127   7.731   7.434  10.823 -0.2255 -0.2117 -0.2377
20359SOL    HW268128   7.748   7.420  10.673  1.1511  0.1925 -0.1373
20360SOL     OW68129   5.482   0.175  10.379 -0.4037  0.2390  0.0149
20360SOL    HW168130   5.509   0.204  10.292  0.5231 -0.9810 -0.1302
20360SOL    HW268131   5.550   0.210  10.438 -1.4719  1.7727  0.3880
20361SOL     OW68132   4.906   4.476   0.573  0.3191 -0.2300 -0.3957
20361SOL    HW168133   4.827   4.503   0.527  0.0698 -0.1548  0.0766
20361SOL    HW268134   4.904   4.525   0.655  0.1659 -1.2256  0.2111
20362SOL     OW68135   5.080   4.757   0.115  0.3108 -0.7510  0.2143
20362SOL    HW168136   5.057   4.762   0.207 -1.1849 -2.1355 -0.0414
20362SOL    HW268137   5.086   4.663   0.097  1.5378 -0.5010 -0.8925
20363SOL     OW68138   7.749   6.602   8.168  0.2516 -0.2940  0.2698
20363SOL    HW168139   7.792   6.517   8.159 -0.7954 -0.7942 -0.2897
20363SOL    HW268140   7.678   6.599   8.104  1.4719  1.8392 -1.3298
20364SOL     OW68141   5.068   7.067   6.729 -0.3686 -0.0107  0.1831
20364SOL    HW168142   5.074   7.076   6.633 -1.3731  1.6565  0.2463
20364SOL    HW268143   5.061   6.972   6.743 -1.7919 -0.2169 -1.5176
20365SOL     OW68144   6.864   0.235   8.129  0.3591 -0.1175 -0.6516
20365SOL    HW168145   6.882   0.185   8.209  0.4903 -0.9122 -1.1664
20365SOL    HW268146   6.875   0.171   8.058 -0.6257  0.3620 -1.2479
20366SOL     OW68147   6.239  11.118   7.094  0.1382  0.0941 -0.5232
20366SOL    HW168148   6.183  11.094   7.168 -2.3866 -1.8054 -2.8407
20366SOL    HW268149   6.205  11.202   7.065 -0.4159 -0.2673 -0.9240
20367SOL     OW68150   8.058   9.708   7.562  0.3501  0.2676 -0.0117
20367SOL    HW168151   8.034   9.701   7.469 -2.0681  0.1099  0.5630
20367SOL    HW268152   7.998   9.774   7.597  0.6860 -0.2480  1.6013
20368SOL     OW68153   7.424   9.545   6.732 -0.5036  0.5369 -0.4885
20368SOL    HW168154   7.483   9.619   6.743 -0.4250  0.2033  1.7450
20368SOL    HW268155   7.447   9.485   6.803 -3.6524  0.5183  0.6825
20369SOL     OW68156   3.445   4.628  12.589  1.0487 -0.0667  0.8779
20369SOL    HW168157   3.398   4.600  12.667 -1.2887  0.6027 -0.2179
20369SOL    HW268158   3.511   4.689  12.621  0.9524 -0.7290  2.4225
20370SOL     OW68159   2.550   3.925   5.307 -0.3648 -0.5360 -0.6100
20370SOL    HW168160   2.534   3.913   5.400  1.8927  1.1356  0.0877
20370SOL    HW268161   2.485   3.990   5.280  0.9629  1.4445  0.6525
20371SOL     OW68162   9.700   1.791  11.273  0.1589  0.3761 -0.2853
20371SOL    HW168163   9.715   1.703  11.307  0.4578  0.2520 -0.7389
20371SOL    HW268164   9.694   1.846  11.351  0.2175 -0.0062 -0.0099
20372SOL     OW68165  11.231  10.465   2.367 -0.0523 -0.0372 -0.0668
20372SOL    HW168166  11.282  10.428   2.295  0.6227 -1.7827  1.2187
20372SOL    HW268167  11.220  10.392   2.428 -1.7376  1.0293  1.0034
20373SOL     OW68168   1.208   3.802   0.687  0.0260 -0.0340  0.4821
20373SOL    HW168169   1.176   3.711   0.688  1.8478 -0.7263  1.5122
20373SOL    HW268170   1.142   3.850   0.638 -0.0971 -2.2603 -1.7534
20374SOL     OW68171   1.275   1.566  11.291 -0.0701 -0.3158  0.1681
20374SOL    HW168172   1.206   1.505  11.318 -0.2617 -0.8514 -1.4441
20374SOL    HW268173   1.348   1.548  11.350 -0.0740 -2.2137 -0.3458
20375SOL     OW68174   1.093   9.815   5.547  0.8020 -0.3199  0.1173
20375SOL    HW168175   1.042   9.736   5.565  0.6763 -0.1557  0.4906
20375SOL    HW268176   1.028   9.878   5.516  1.0944 -0.7818 -1.5370
20376SOL     OW68177  11.225   4.152   7.189 -0.3808 -0.4156  0.1850
20376SOL    HW168178  11.161   4.082   7.203 -2.2443  1.3538  0.9793
20376SOL    HW268179  11.280   4.150   7.267 -1.2546 -0.2074  0.8278
20377SOL     OW68180   8.779  11.611   3.725  0.2561 -0.4842 -0.5391
20377SOL    HW168181   8.714  11.662   3.773  1.0692 -0.4574  0.5907
20377SOL    HW268182   8.789  11.657   3.642 -1.9288 -1.0951 -1.2111
20378SOL     OW68183  10.445  10.300   9.958  0.5118 -0.0358 -0.0487
20378SOL    HW168184  10.391  10.321   9.882  1.2703 -0.6716 -0.7795
20378SOL    HW268185  10.389  10.319  10.033 -0.7032 -0.6034 -0.7806
20379SOL     OW68186   2.088  10.446   9.038  0.4670 -0.2132  0.4364
20379SOL    HW168187   2.170  10.473   8.997  0.9284 -1.5300  0.4388
20379SOL    HW268188   2.020  10.476   8.978  0.8986  1.3050  0.6614
20380SOL     OW68189   4.084   1.799   1.934  0.1075  0.7931  0.1600
20380SOL    HW168190   4.162   1.787   1.989  0.2571  1.0562  0.0053
20380SOL    HW268191   4.072   1.893   1.929 -0.2508  0.7500  0.2204
20381SOL     OW68192  10.945  12.262   5.231  0.5526  0.3805  0.2384
20381SOL    HW168193  10.943  12.234   5.323 -0.9597 -0.3485  0.0198
20381SOL    HW268194  10.898  12.345   5.231  0.0147  0.0846  0.0560
20382SOL     OW68195   2.007   9.984   0.236  0.2432 -0.0155  1.0295
20382SOL    HW168196   1.976  10.074   0.245  1.8260  0.8007 -0.8670
20382SOL    HW268197   2.070   9.973   0.308  0.4462  0.5811  0.9417
20383SOL     OW68198  10.211  10.408   2.176 -0.4710 -0.2771  0.3409
20383SOL    HW168199  10.216  10.324   2.223  0.0238 -0.7006 -0.4480
20383SOL    HW268200  10.147  10.392   2.106 -0.9382  0.2390  0.6450
20384SOL     OW68201  10.680  12.413   0.053 -0.3562 -0.0820  0.1882
20384SOL    HW168202  10.768  12.445   0.068 -1.3336  2.2958  1.3292
20384SOL    HW268203  10.656  12.445  -0.034 -0.4577  0.1643  0.3065
20385SOL     OW68204   5.370   2.038   1.405  0.2671  0.2137  0.1068
20385SOL    HW168205   5.318   1.998   1.475 -0.6562  0.8870 -0.1656
20385SOL    HW268206   5.337   1.998   1.324  0.9938 -0.2061  0.0082
20386SOL     OW68207   5.460  11.858   1.768 -0.0754  0.0531 -0.5457
20386SOL    HW168208   5.409  11.936   1.743  0.8053  0.9411  0.3728
20386SOL    HW268209   5.455  11.856   1.863  0.5016 -0.6204 -0.5278
20387SOL     OW68210   7.143   7.202   6.960  0.2178  0.3615  0.4440
20387SOL    HW168211   7.103   7.288   6.950 -1.9951 -0.4475  1.6916
20387SOL    HW268212   7.133   7.182   7.053 -0.9719 -1.9859 -0.1286
20388SOL     OW68213   5.184   0.406   2.192  0.1967  0.1448 -0.3019
20388SOL    HW168214   5.107   0.420   2.246 -0.1207 -0.2169 -0.6576
20388SOL    HW268215   5.249   0.368   2.253  0.1153  0.4983  0.0055
20389SOL     OW68216   7.344   5.794  11.686 -0.2782  0.0521  0.4116
20389SOL    HW168217   7.439   5.783  11.674 -0.1133  0.6683  1.0700
20389SOL    HW268218   7.332   5.794  11.781 -0.8044  1.0090  0.3568
20390SOL     OW68219   7.239   7.116  10.749 -0.3880  0.4110 -0.3694
20390SOL    HW168220   7.263   7.207  10.731  1.4471 -0.6377 -4.4377
20390SOL    HW268221   7.156   7.104  10.701 -0.0466 -0.2743 -0.8125
20391SOL     OW68222   9.809   7.634  10.619  0.0681  0.3732 -0.2522
20391SOL    HW168223   9.820   7.691  10.695  0.3357  0.7860 -0.5993
20391SOL    HW268224   9.798   7.694  10.546 -0.1011 -0.0243 -0.5532
20392SOL     OW68225   5.058   2.253   0.723 -0.0513 -0.4981 -0.1558
20392SOL    HW168226   4.998   2.300   0.781  0.6640 -0.6018  0.6767
20392SOL    HW268227   5.029   2.162   0.728 -0.1091 -0.4775 -0.1174
20393SOL     OW68228   9.705   9.046   8.756 -0.1104 -0.7280  0.1093
20393SOL    HW168229   9.686   9.138   8.741  0.9388 -0.5272 -0.0639
20393SOL    HW268230   9.628   9.013   8.803  0.4946  0.8345  2.3902
20394SOL     OW68231  10.600   1.339   4.369 -0.0667 -0.6597  0.0543
20394SOL    HW168232  10.695   1.344   4.355 -0.0772  1.0732  0.3429
20394SOL    HW268233  10.588   1.264   4.427  1.1428 -0.7798  0.1809
20395SOL     OW68234   1.271   6.170   8.266  0.6056 -0.0770 -0.1961
20395SOL    HW168235   1.244   6.137   8.352 -1.2786  0.9600 -0.3364
20395SOL    HW268236   1.198   6.224   8.237  2.9124  3.1663 -0.5472
20396SOL     OW68237   9.261   0.715   5.719  0.5878 -0.1564  0.5648
20396SOL    HW168238   9.303   0.788   5.763  0.5680  0.0617  0.2281
20396SOL    HW268239   9.299   0.637   5.759  0.2675  0.0305  1.2502
20397SOL     OW68240   7.039   4.045   4.570 -0.3402 -0.6675 -0.2890
20397SOL    HW168241   7.001   4.018   4.486  1.0590 -1.5417 -0.6799
20397SOL    HW268242   7.083   4.128   4.550 -2.1966  0.4976  0.2315
20398SOL     OW68243   5.089   6.830   5.463 -0.1316  0.8765  0.1273
20398SOL    HW168244   5.025   6.839   5.393 -0.8017 -3.0324  0.0309
20398SOL    HW268245   5.173   6.819   5.417 -0.1332  1.0894  0.0713
20399SOL     OW68246   3.481   6.437   1.390 -0.7273  0.2423  0.3214
20399SOL    HW168247   3.564   6.442   1.342 -0.7178  0.6124  0.3694
20399SOL    HW268248   3.430   6.511   1.357 -1.5231 -0.6873 -0.5846
20400SOL     OW68249  11.607   0.589   5.273  0.1965  0.4521  0.1162
20400SOL    HW168250  11.624   0.650   5.344 -0.1238  2.1888 -1.2300
20400SOL    HW268251  11.666   0.617   5.202  1.1653 -1.7881 -0.0328
20401SOL     OW68252   2.358  11.578   8.404 -0.0178 -0.3073  0.4228
20401SOL    HW168253   2.372  11.563   8.497 -2.9714 -0.9505  0.8562
20401SOL    HW268254   2.317  11.497   8.372 -0.4471  0.4623 -1.0882
20402SOL     OW68255   2.997   0.616  11.447  0.5730  0.0730 -0.2364
20402SOL    HW168256   2.977   0.566  11.367  4.2415  0.0415 -1.3228
20402SOL    HW268257   2.981   0.555  11.518  0.8558 -1.2328 -1.2477
20403SOL     OW68258   0.049  12.050   7.175 -0.2288 -0.0673  0.2846
20403SOL    HW168259   0.061  12.010   7.261 -0.4772 -0.5922  0.0785
20403SOL    HW268260   0.092  12.135   7.182  0.1258 -0.2840  0.7951
20404SOL     OW68261   8.471   2.272   7.531  0.4888 -0.2607  0.5965
20404SOL    HW168262   8.396   2.229   7.571 -1.7980  1.6019 -1.3644
20404SOL    HW268263   8.506   2.207   7.469 -0.2074 -0.7538  0.7143
20405SOL     OW68264   1.849   7.445   8.491  0.0619 -0.0826  0.2255
20405SOL    HW168265   1.763   7.433   8.531 -0.1642  0.2536 -0.1577
20405SOL    HW268266   1.831   7.472   8.401  0.5666 -0.0183  0.1378
20406SOL     OW68267  10.456   5.060  11.552 -0.3592  0.3111  0.2260
20406SOL    HW168268  10.529   5.007  11.582 -0.5530  0.1728  0.4484
20406SOL    HW268269  10.464   5.142  11.602 -1.0583 -0.1645  1.1392
20407SOL     OW68270   3.925  12.538  11.769  0.2497 -0.0568 -0.2100
20407SOL    HW168271   3.979  12.554  11.847  0.1164  0.7988 -0.2833
20407SOL    HW268272   3.835  12.544  11.801  0.1480 -1.8712 -0.0047
20408SOL     OW68273   6.111  11.273  11.184 -0.2918 -0.4985  0.5261
20408SOL    HW168274   6.116  11.286  11.279 -0.2642  2.8680  0.1815
20408SOL    HW268275   6.172  11.336  11.148 -0.5015 -1.5154 -1.7803
20409SOL     OW68276   2.673   0.077   6.301 -0.4754 -0.0937 -1.1983
20409SOL    HW168277   2.751   0.025   6.322 -0.1374  1.6002  2.4719
20409SOL    HW268278   2.708   0.161   6.271 -0.9947 -0.4772 -3.0014
20410SOL     OW68279  11.380   2.805   7.046 -0.1335  0.5434  0.6814
20410SOL    HW168280  11.427   2.868   7.101  2.2447 -0.0530 -0.5371
20410SOL    HW268281  11.418   2.816   6.959  0.2199 -2.3601  0.3704
20411SOL     OW68282   5.826  12.098  12.265  0.2227 -0.2935  0.2198
20411SOL    HW168283   5.913  12.103  12.306  0.9825 -4.5038 -0.4244
20411SOL    HW268284   5.842  12.119  12.173  0.3866 -0.1186  0.2868
20412SOL     OW68285   9.041   9.174   9.176  0.2277 -0.0508  0.1837
20412SOL    HW168286   9.130   9.165   9.210  0.3842  0.0129 -0.2058
20412SOL    HW268287   9.046   9.142   9.086  0.0679  0.7955 -0.1435
20413SOL     OW68288   2.875   9.957  12.584  0.2034  0.3622  0.0509
20413SOL    HW168289   2.799   9.927  12.534 -0.1630  0.1693  0.7210
20413SOL    HW268290   2.868  10.053  12.583  0.2007  0.3608 -0.2638
20414SOL     OW68291   9.446   6.699   9.889  0.0974  0.1736 -0.1805
20414SOL    HW168292   9.389   6.711   9.965 -1.2461 -0.9637 -0.9580
20414SOL    HW268293   9.470   6.788   9.863  0.2928  0.5957  1.3353
20415SOL     OW68294   8.579  10.451  12.416  0.4833  0.2041 -0.1144
20415SOL    HW168295   8.658  10.408  12.451  0.6697  1.2301  0.7723
20415SOL    HW268296   8.591  10.448  12.321  0.9826 -0.7662 -0.0375
20416SOL     OW68297  12.538   0.522   9.279 -0.5279 -0.2432 -0.3525
20416SOL    HW168298  12.474   0.537   9.209  0.5635  0.0636 -1.3224
20416SOL    HW268299  12.490   0.540   9.360 -0.9760  2.6406 -1.1562
20417SOL     OW68300   7.503  10.215   5.316  0.2277  0.3470 -0.1726
20417SOL    HW168301   7.548  10.293   5.346 -0.7930  0.8821  0.0103
20417SOL    HW268302   7.557  10.142   5.347  0.3730  0.9442  1.0217
20418SOL     OW68303  11.727   7.900   4.633 -0.0078 -0.2283 -0.0128
20418SOL    HW168304  11.792   7.969   4.637 -0.2525 -0.0019  0.0433
20418SOL    HW268305  11.643   7.943   4.650 -0.2025 -0.4750 -0.3113
20419SOL     OW68306  11.090   9.196  11.450 -0.1900  0.3412 -0.2810
20419SOL    HW168307  11.017   9.152  11.494  1.1517 -1.1142  0.6317
20419SOL    HW268308  11.161   9.131  11.451  0.9687  1.5063 -1.5923
20420SOL     OW68309  10.705  12.020   0.253  0.1332 -0.4817  0.0700
20420SOL    HW168310  10.700  11.926   0.266 -2.9201 -0.4932 -0.6497
20420SOL    HW268311  10.783  12.047   0.303  0.8262 -3.2689  0.6289
20421SOL     OW68312   3.227   8.759   7.435 -0.4604  0.1888 -0.0381
20421SOL    HW168313   3.250   8.779   7.344  1.2499  1.2992  0.5911
20421SOL    HW268314   3.138   8.723   7.430  0.4094 -1.9045 -2.3643
20422SOL     OW68315   4.310  12.092   3.897 -0.3343 -0.0483  0.0018
20422SOL    HW168316   4.247  12.026   3.926 -0.8887  0.6140  0.3212
20422SOL    HW268317   4.321  12.149   3.972 -1.0501  1.1259 -0.7531
20423SOL     OW68318   4.986   7.550   9.852 -0.3784 -0.2847 -0.4292
20423SOL    HW168319   5.044   7.525   9.781 -0.6916  1.2726 -1.2746
20423SOL    HW268320   5.044   7.573   9.925 -0.0711 -2.4228  0.0571
20424SOL     OW68321   7.424   3.613   9.176 -0.7409 -0.1025  0.0040
20424SOL    HW168322   7.407   3.522   9.198 -0.1026 -0.4217 -0.7491
20424SOL    HW268323   7.512   3.612   9.136 -0.7159  0.8368  0.0107
20425SOL     OW68324  12.561   2.758   6.693 -0.2627 -0.1393 -0.1812
20425SOL    HW168325  12.507   2.800   6.626 -3.4277 -0.6503  1.7949
20425SOL    HW268326  12.581   2.828   6.755  0.5011 -0.1588 -0.4048
20426SOL     OW68327   4.292   6.849   2.958  0.3982 -0.4359 -0.9393
20426SOL    HW168328   4.234   6.881   2.889 -1.1649 -0.7340  0.1741
20426SOL    HW268329   4.283   6.754   2.955  1.8676 -0.5726 -1.5935
20427SOL     OW68330   3.606   2.271  11.567 -0.2188 -0.6298 -0.0790
20427SOL    HW168331   3.643   2.196  11.521  3.7606  0.1027  1.5621
20427SOL    HW268332   3.621   2.345  11.508  0.7444 -0.3696  0.4783
20428SOL     OW68333   7.606   6.793   8.814  0.1968  0.2157 -0.4545
20428SOL    HW168334   7.666   6.836   8.875  0.6425  0.2236 -0.8932
20428SOL    HW268335   7.645   6.807   8.727  0.2981 -0.9733 -0.6207
20429SOL     OW68336   9.394   5.045   4.035  0.0605  0.2923  0.0587
20429SOL    HW168337   9.357   5.028   4.122 -2.4132 -0.9336 -1.1378
20429SOL    HW268338   9.319   5.042   3.976  1.7428  0.5176 -2.2183
20430SOL     OW68339   3.916  10.519   1.320  0.3068 -0.3935 -0.3554
20430SOL    HW168340   3.878  10.556   1.240  1.1734  2.6888  0.5115
20430SOL    HW268341   4.010  10.520   1.305  0.3927 -1.7834 -0.0363
20431SOL     OW68342   2.348   4.291  11.725 -0.9605 -0.1883 -0.0160
20431SOL    HW168343   2.359   4.197  11.741 -1.0282 -0.2348 -0.2290
20431SOL    HW268344   2.436   4.325  11.713 -0.9042 -0.1391  0.5137
20432SOL     OW68345   9.717   1.480   4.090  0.0543  1.0053  0.6349
20432SOL    HW168346   9.737   1.568   4.058  1.7884  1.1510  1.9564
20432SOL    HW268347   9.644   1.493   4.151 -1.0667  1.1944 -0.7103
20433SOL     OW68348   1.875   2.198   4.551  0.4114 -0.1446  0.4372
20433SOL    HW168349   1.893   2.272   4.492 -0.9723  0.9831  1.3821
20433SOL    HW268350   1.924   2.219   4.631 -0.8030  0.2936  1.0849
20434SOL     OW68351   7.018   0.662  11.213 -0.9217  1.1841  0.0319
20434SOL    HW168352   6.953   0.721  11.251 -2.0929  0.8243 -1.2929
20434SOL    HW268353   7.038   0.700  11.128 -1.7433 -0.3032 -0.8779
20435SOL     OW68354   6.971   9.967   9.385 -0.3670  0.6914 -0.0549
20435SOL    HW168355   7.041  10.030   9.373  1.0778 -0.9973 -1.0116
20435SOL    HW268356   6.895  10.004   9.340  0.6297  1.4463 -1.1493
20436SOL     OW68357   2.224   2.636   4.597  0.0819  0.6646 -0.0343
20436SOL    HW168358   2.270   2.706   4.644  1.0937 -0.2518  0.3851
20436SOL    HW268359   2.242   2.558   4.649  0.3657 -0.1914 -1.3990
20437SOL     OW68360   3.949   9.726   5.588  0.0013 -0.1421  0.4165
20437SOL    HW168361   3.911   9.789   5.649 -2.9329 -3.3432  2.2335
20437SOL    HW268362   4.039   9.712   5.620 -0.4744  0.5093  2.1247
20438SOL     OW68363   5.325   4.216   8.473  1.0204  0.1350 -0.0436
20438SOL    HW168364   5.270   4.281   8.431  0.4169 -0.5995 -0.4222
20438SOL    HW268365   5.263   4.159   8.519  1.6461  0.9896  2.0012
20439SOL     OW68366   3.357   0.924   4.813 -0.1628 -1.0181  0.3142
20439SOL    HW168367   3.453   0.924   4.818 -0.1232  1.7860  1.0399
20439SOL    HW268368   3.337   0.883   4.729  1.6519 -1.7971  0.2204
20440SOL     OW68369   5.497   9.311   6.694  0.5277  0.0933 -0.4334
20440SOL    HW168370   5.433   9.352   6.635  0.3942  0.4082 -0.0683
20440SOL    HW268371   5.567   9.280   6.635  0.5531  0.6944 -0.7265
20441SOL     OW68372   9.740   2.858  12.204 -0.1562 -0.0456 -0.4549
20441SOL    HW168373   9.729   2.819  12.291 -0.9670 -1.6597 -1.2581
20441SOL    HW268374   9.699   2.944  12.212 -0.7041 -0.3828  0.6060
20442SOL     OW68375  10.717   1.505   8.161  0.2250  0.5604 -0.1861
20442SOL    HW168376  10.790   1.566   8.168  2.7012 -2.2148  0.6080
20442SOL    HW268377  10.751   1.424   8.200 -3.4185 -0.8427  0.4316
20443SOL     OW68378   0.375  11.938   7.843  0.0337 -0.2282  0.0869
20443SOL    HW168379   0.347  11.966   7.756  0.1627 -1.4471 -0.3676
20443SOL    HW268380   0.297  11.898   7.882  0.3168 -0.9070 -0.0155
20444SOL     OW68381  11.244   8.322   0.401 -0.3799  0.4068  0.2733
20444SOL    HW168382  11.190   8.301   0.324  0.5905  0.2961 -0.4030
20444SOL    HW268383  11.317   8.373   0.365 -1.0095  2.2095  1.4423
20445SOL     OW68384  10.850   3.438   9.354 -0.5024 -0.2134  0.2879
20445SOL    HW168385  10.809   3.387   9.284  1.4251 -1.0361 -0.3019
20445SOL    HW268386  10.930   3.390   9.375  0.9399  2.0584  0.3428
20446SOL     OW68387   3.548   6.559   2.621  0.0820 -0.7041 -0.3200
20446SOL    HW168388   3.478   6.494   2.628  0.1713 -0.7779 -0.0792
20446SOL    HW268389   3.628   6.510   2.644  0.1132 -0.4435  0.1379
20447SOL     OW68390   2.421   7.377   6.904 -0.2483  0.3535  0.4091
20447SOL    HW168391   2.406   7.300   6.850  0.5594 -1.0065  2.0151
20447SOL    HW268392   2.350   7.376   6.968  1.5435 -1.0665  2.5285
20448SOL     OW68393   1.904   2.743   7.639  0.2816  0.0508 -0.3071
20448SOL    HW168394   1.930   2.685   7.711  0.2556  0.0368 -0.3090
20448SOL    HW268395   1.963   2.818   7.646  0.8740 -0.3500 -0.8129
20449SOL     OW68396   4.778  11.949   4.258  0.1627  0.0279 -0.0993
20449SOL    HW168397   4.772  11.946   4.163  1.9537 -0.1323 -0.2365
20449SOL    HW268398   4.866  11.919   4.278  0.4150  1.6321  1.5162
20450SOL     OW68399   1.845   3.530   9.152 -0.2909  0.2106  0.2130
20450SOL    HW168400   1.839   3.468   9.080  0.7746 -0.3683  0.6087
20450SOL    HW268401   1.755   3.561   9.164 -0.6683 -0.5119 -0.6281
20451SOL     OW68402  10.623   1.923  10.777  0.3633  0.0568 -0.5330
20451SOL    HW168403  10.655   2.011  10.756  0.1506  1.0059  2.5740
20451SOL    HW268404  10.529   1.926  10.756 -0.4224  1.8487  2.5850
20452SOL     OW68405   5.000   5.694  12.119 -0.3328 -0.1991 -0.2949
20452SOL    HW168406   4.923   5.649  12.084 -1.8667  0.9960  1.3527
20452SOL    HW268407   4.987   5.694  12.214  2.6975 -1.6367  0.2342
20453SOL     OW68408   7.267   4.438  10.473  0.1305 -0.1481 -0.4017
20453SOL    HW168409   7.333   4.501  10.502 -1.3842  0.8143  1.0672
20453SOL    HW268410   7.315   4.355  10.468  1.4836  0.5398  0.4886
20454SOL     OW68411   6.996   1.125   4.790  0.0464  0.0420  0.3932
20454SOL    HW168412   6.910   1.087   4.806  0.6391 -1.6638 -0.1935
20454SOL    HW268413   7.052   1.087   4.858  0.5182  0.4092  0.2169
20455SOL     OW68414   0.558   1.125   0.398 -0.5779 -0.0871 -0.2410
20455SOL    HW168415   0.490   1.070   0.358  0.3493 -0.6518 -1.0811
20455SOL    HW268416   0.640   1.081   0.377  0.0711  0.6564  0.6498
20456SOL     OW68417  10.031  10.938   2.155 -0.2245  0.3479  0.6548
20456SOL    HW168418   9.990  10.853   2.170 -0.1115  0.5903  2.4991
20456SOL    HW268419   9.964  10.990   2.111 -0.2381 -0.7022 -0.6593
20457SOL     OW68420   6.757   6.078  12.525 -0.6543 -0.0620  0.1230
20457SOL    HW168421   6.675   6.127  12.524 -1.4741 -1.3976 -0.4870
20457SOL    HW268422   6.756   6.028  12.443  0.8875  0.0787 -0.0081
20458SOL     OW68423   3.516  10.170   5.321 -0.5516  0.6900 -0.4264
20458SOL    HW168424   3.451  10.193   5.387 -0.1379 -0.0750  0.2720
20458SOL    HW268425   3.465  10.151   5.242 -1.0203  2.0743 -0.4813
20459SOL     OW68426   8.578   2.060   7.785 -0.3540 -0.1519  0.1602
20459SOL    HW168427   8.629   2.131   7.824 -0.5620 -0.6981  1.4992
20459SOL    HW268428   8.598   2.064   7.692 -0.5681  1.8196  0.1666
20460SOL     OW68429  11.202  11.177  11.649  0.2876 -0.0249  0.4781
20460SOL    HW168430  11.268  11.170  11.718 -0.1864 -0.4829  0.8919
20460SOL    HW268431  11.118  11.175  11.695 -0.0676 -1.3040 -0.1624
20461SOL     OW68432   2.064   8.343  10.991 -0.0331  0.5890 -0.5650
20461SOL    HW168433   2.105   8.363  11.075  1.3469  0.2513 -1.1289
20461SOL    HW268434   2.040   8.428  10.955  1.3113  0.9218 -0.7502
20462SOL     OW68435  11.495   2.360   7.422  0.1048  0.6602 -0.1442
20462SOL    HW168436  11.577   2.318   7.397  0.9016  1.9447  0.1934
20462SOL    HW268437  11.510   2.391   7.512 -0.7669  0.8523 -0.0547
20463SOL     OW68438  10.151   0.592  12.293  0.0446  0.1412 -0.6484
20463SOL    HW168439  10.109   0.569  12.210 -0.4696 -1.5986  0.0594
20463SOL    HW268440  10.080   0.600  12.356  0.6095 -1.4722  0.2585
20464SOL     OW68441   6.855   0.144  11.734 -0.4901  0.3961 -0.0363
20464SOL    HW168442   6.914   0.121  11.662 -1.2185 -1.0066 -0.2285
20464SOL    HW268443   6.900   0.113  11.813  0.0626  1.4382  0.0667
20465SOL     OW68444   3.512   7.220   2.147 -0.1464 -0.2618  0.3678
20465SOL    HW168445   3.574   7.292   2.144 -0.1419 -0.2669  0.3293
20465SOL    HW268446   3.531   7.169   2.067  1.0012 -1.2645  1.2476
20466SOL     OW68447   1.977   7.687   0.090  0.3282 -0.4219  0.0644
20466SOL    HW168448   2.048   7.661   0.031  2.2222  1.5940  1.2978
20466SOL    HW268449   1.916   7.734   0.034  0.8340 -0.6892 -0.7332
20467SOL     OW68450   7.912   3.344   7.681 -0.2433  0.2421 -0.1650
20467SOL    HW168451   7.987   3.299   7.644 -0.3084  0.3386 -0.4138
20467SOL    HW268452   7.853   3.359   7.607 -0.1910  0.7973 -0.0973
20468SOL     OW68453   0.152   6.013   3.864  0.1737  0.4622  0.0896
20468SOL    HW168454   0.076   6.072   3.861  0.8382  1.4895  1.7446
20468SOL    HW268455   0.214   6.057   3.923  1.4493 -1.0603 -0.0430
20469SOL     OW68456  12.068   4.524   0.766  0.0862 -0.5957  0.1082
20469SOL    HW168457  12.113   4.463   0.707 -1.1303 -2.2199  0.7621
20469SOL    HW268458  12.065   4.606   0.718  2.6115 -0.7363 -0.4519
20470SOL     OW68459   5.667   4.219   6.261 -0.3266 -0.3431  0.0068
20470SOL    HW168460   5.758   4.221   6.288 -0.0264  1.3563 -0.9696
20470SOL    HW268461   5.631   4.302   6.292 -0.4628  0.8160 -2.8815
20471SOL     OW68462   0.481   3.074   9.103 -0.1249 -0.6630  0.0786
20471SOL    HW168463   0.544   3.017   9.147 -0.8463 -1.0720  0.5958
20471SOL    HW268464   0.454   3.025   9.026  0.4433 -0.3348 -0.3420
20472SOL     OW68465   5.996   2.576  12.497  0.0392 -0.8694 -0.1797
20472SOL    HW168466   6.091   2.561  12.494 -0.1119 -2.0389  0.4824
20472SOL    HW268467   5.960   2.496  12.536 -1.2453 -0.5341 -0.6310
20473SOL     OW68468  12.142  10.530   1.454 -0.3399 -0.0611 -0.4667
20473SOL    HW168469  12.116  10.440   1.432  1.0901 -0.2860 -1.3647
20473SOL    HW268470  12.071  10.584   1.419 -0.9481 -0.8014 -0.4208
20474SOL     OW68471  10.782   3.734   1.963 -0.0384 -0.1180 -0.5374
20474SOL    HW168472  10.717   3.671   1.935  1.8206 -1.9022 -1.1124
20474SOL    HW268473  10.732   3.812   1.987 -2.4543 -1.8394  0.3779
20475SOL     OW68474   4.589   0.104  12.477  0.3999 -0.2777 -0.4741
20475SOL    HW168475   4.587   0.185  12.527 -0.3696  0.3024 -1.4001
20475SOL    HW268476   4.558   0.129  12.390  0.0018 -1.5969 -0.7323
20476SOL     OW68477   1.234  11.817   7.914  0.0352  0.3496 -0.0860
20476SOL    HW168478   1.285  11.789   7.838 -2.4639  1.4863 -2.3179
20476SOL    HW268479   1.208  11.735   7.957  0.0866 -0.3905 -1.4155
20477SOL     OW68480   1.706   3.576   8.239 -0.2620  0.2572  0.1322
20477SOL    HW168481   1.760   3.653   8.221 -0.5055  0.3829 -0.0668
20477SOL    HW268482   1.692   3.536   8.153 -0.3588  0.1385  0.2036
20478SOL     OW68483   8.532  11.224   7.496 -0.6367 -0.6415 -0.1447
20478SOL    HW168484   8.565  11.307   7.531 -0.8646 -0.4298 -0.4307
20478SOL    HW268485   8.594  11.158   7.528 -0.5043 -0.3717  0.1549
20479SOL     OW68486   3.168   6.703   5.894  0.5919 -0.3365  0.1432
20479SOL    HW168487   3.254   6.726   5.859 -0.0139  0.1545 -1.1080
20479SOL    HW268488   3.187   6.653   5.973  2.0112  0.2577  0.2142
20480SOL     OW68489   1.267   8.909   9.794  0.1341  0.6624  0.3640
20480SOL    HW168490   1.319   8.900   9.714  0.0508  1.0065  0.2698
20480SOL    HW268491   1.179   8.928   9.763 -0.0006  0.3100  0.5314
20481SOL     OW68492   4.004   5.631   0.414  0.0334 -0.2499 -0.6421
20481SOL    HW168493   3.988   5.607   0.506 -1.2356  1.5003 -0.3561
20481SOL    HW268494   4.089   5.592   0.394 -0.5972 -2.4818  0.5953
20482SOL     OW68495   4.325   4.390   9.680 -0.4842 -0.0690  0.2810
20482SOL    HW168496   4.369   4.475   9.678 -1.8152  0.6294  0.0671
20482SOL    HW268497   4.272   4.387   9.601 -0.2099 -1.2483  0.1136
20483SOL     OW68498  12.278  11.095   6.178 -0.1668 -0.1465  0.3423
20483SOL    HW168499  12.274  11.189   6.195  2.8208 -0.1159  1.4901
20483SOL    HW268500  12.319  11.088   6.092 -0.1341 -0.3676  0.3748
20484SOL     OW68501   6.228   8.118   3.562  0.2372 -0.1894 -0.1307
20484SOL    HW168502   6.174   8.192   3.535  0.0729  0.0697  0.8609
20484SOL    HW268503   6.306   8.158   3.602  0.7923 -0.5600 -0.8034
20485SOL     OW68504   3.919   2.236   7.463 -0.6795  0.8416  0.1823
20485SOL    HW168505   3.854   2.177   7.502 -0.6713  1.1254  0.6311
20485SOL    HW268506   3.881   2.261   7.379 -0.9136  0.5972  0.2121
20486SOL     OW68507  11.216  11.981   8.274 -0.0564  0.0716 -0.2276
20486SOL    HW168508  11.171  11.956   8.194  3.6417  1.4943 -3.0930
20486SOL    HW268509  11.200  12.075   8.283 -0.5993 -0.1055  0.8770
20487SOL     OW68510   7.196   9.966   5.634  0.1778 -0.1204  0.0015
20487SOL    HW168511   7.250  10.025   5.581  1.0159 -0.2881  0.6556
20487SOL    HW268512   7.254   9.894   5.657 -0.9298 -1.4350 -1.1022
20488SOL     OW68513  11.634  12.321   8.554  0.6914 -0.4204  0.1779
20488SOL    HW168514  11.617  12.409   8.521  1.0217 -0.6982 -0.7617
20488SOL    HW268515  11.723  12.301   8.523  0.5986 -1.0981  0.3455
20489SOL     OW68516   7.948  12.418   6.597  0.6569 -0.2202 -0.1553
20489SOL    HW168517   7.917  12.504   6.569  2.0269 -0.0778 -1.3441
20489SOL    HW268518   8.034  12.409   6.556  1.8735 -0.9175  2.3473
20490SOL     OW68519  12.495   9.764   4.680  0.2690 -0.3235 -0.1545
20490SOL    HW168520  12.493   9.708   4.602  1.8644  0.4085 -0.7479
20490SOL    HW268521  12.527   9.707   4.749  2.0567 -0.1408 -0.7934
20491SOL     OW68522  11.354   1.880  11.371 -0.7885  0.1759  0.0330
20491SOL    HW168523  11.424   1.857  11.432 -1.2344 -0.6900  0.2429
20491SOL    HW268524  11.364   1.974  11.357  0.1107  0.1521  0.4361
20492SOL     OW68525   6.409  11.333  10.039 -0.4320  0.6694 -0.1864
20492SOL    HW168526   6.491  11.285  10.043 -1.0407 -0.3361  1.6476
20492SOL    HW268527   6.399  11.369  10.127 -2.4514 -0.1546 -0.0278
20493SOL     OW68528   2.598   5.536  11.779 -0.6336 -0.4577  0.2747
20493SOL    HW168529   2.506   5.559  11.763 -0.2776 -0.5031 -2.1539
20493SOL    HW268530   2.617   5.574  11.865 -2.3136  1.4923 -0.1224
20494SOL     OW68531   4.468   1.585   9.672 -0.3274  0.3016 -0.3841
20494SOL    HW168532   4.498   1.501   9.707 -2.1734 -0.3295 -0.1657
20494SOL    HW268533   4.487   1.580   9.578  0.3210 -0.0247 -0.2392
20495SOL     OW68534  12.570   5.785  12.284  0.1044 -0.3443 -0.8451
20495SOL    HW168535  12.631   5.848  12.246 -2.1250  0.7622 -2.8584
20495SOL    HW268536  12.611   5.758  12.366  1.6283  3.0489 -0.3242
20496SOL     OW68537   6.859   7.499  10.460  0.2260  0.0801  0.5768
20496SOL    HW168538   6.785   7.559  10.463 -0.0653 -0.0236 -2.2998
20496SOL    HW268539   6.936   7.555  10.468 -0.0601  0.8806 -1.6131
20497SOL     OW68540   6.758   0.438  10.647 -0.1549 -0.2455 -0.2698
20497SOL    HW168541   6.789   0.464  10.734  1.5397 -2.9223  0.0190
20497SOL    HW268542   6.793   0.505  10.588  1.5745 -0.2340  0.7275
20498SOL     OW68543   1.966   7.777   9.829 -0.6381  0.4159  0.4510
20498SOL    HW168544   1.940   7.692   9.863 -0.6831  0.6970  1.1362
20498SOL    HW268545   2.034   7.808   9.889  0.0043  0.4871 -0.2852
20499SOL     OW68546   5.920   1.192  11.399 -0.0460  0.1132 -0.0728
20499SOL    HW168547   5.952   1.273  11.438 -0.2801  0.5571 -0.7840
20499SOL    HW268548   5.985   1.126  11.423  0.7881  0.7600 -0.5224
20500SOL     OW68549  10.834   3.007   2.321 -0.0008 -0.0173  0.4019
20500SOL    HW168550  10.829   2.912   2.311 -0.0692  0.0421 -0.1687
20500SOL    HW268551  10.927   3.024   2.335  0.0247 -0.1615  0.4160
20501SOL     OW68552  12.296   0.783   0.446  0.2888 -0.1408 -0.2592
20501SOL    HW168553  12.210   0.825   0.448 -0.0713 -0.8754 -0.1272
20501SOL    HW268554  12.278   0.691   0.424  0.8189 -0.8148  1.9084
20502SOL     OW68555   4.493  10.738  10.482 -0.4050 -0.6420 -0.6440
20502SOL    HW168556   4.583  10.741  10.452 -0.1651 -4.2164 -0.7086
20502SOL    HW268557   4.441  10.735  10.401 -0.2854 -2.2311 -0.6906
20503SOL     OW68558   6.369  10.791   4.987  0.4623 -0.2276  0.2026
20503SOL    HW168559   6.332  10.877   5.008  1.6691  0.4493 -0.3514
20503SOL    HW268560   6.324  10.731   5.046  0.0057  0.8716  1.0110
20504SOL     OW68561  11.660   0.771   8.217  0.0699 -0.6866 -0.0247
20504SOL    HW168562  11.753   0.754   8.204 -0.0270 -0.5712 -0.9087
20504SOL    HW268563  11.615   0.696   8.178 -0.2310 -0.3819 -0.2687
20505SOL     OW68564   9.689   5.739   9.835  0.1943  0.0427 -0.1392
20505SOL    HW168565   9.690   5.647   9.810  0.0281  0.0821 -0.2936
20505SOL    HW268566   9.613   5.775   9.790  0.8912  0.5058 -0.9804
20506SOL     OW68567   7.872  11.941   0.905 -0.7355 -0.7574 -0.1745
20506SOL    HW168568   7.874  12.021   0.957  1.2571 -0.7195 -0.2443
20506SOL    HW268569   7.882  11.871   0.969 -0.6309 -0.8456 -0.2878
20507SOL     OW68570   9.229   4.324   8.353 -0.2613 -0.0815  0.0710
20507SOL    HW168571   9.302   4.383   8.336  0.1830 -0.8614 -0.8119
20507SOL    HW268572   9.171   4.336   8.278 -0.2361 -0.6535 -0.0436
20508SOL     OW68573  11.010   1.607   8.894  0.0866 -0.0509 -0.3834
20508SOL    HW168574  11.058   1.681   8.931 -0.0860 -0.0542 -0.1486
20508SOL    HW268575  11.053   1.530   8.932  0.3368 -0.0764 -0.7136
20509SOL     OW68576   6.290   6.910  12.514 -0.4722  0.0979 -0.2988
20509SOL    HW168577   6.376   6.925  12.476 -0.2459  0.0334  0.1703
20509SOL    HW268578   6.260   6.996  12.542  1.0992 -0.2315  2.9710
20510SOL     OW68579   1.331   9.192   8.660 -0.2615  0.0314  0.1994
20510SOL    HW168580   1.313   9.111   8.708  1.0054  0.0289  0.7133
20510SOL    HW268581   1.375   9.248   8.723 -0.6540  0.9286 -0.3088
20511SOL     OW68582  10.610   3.112  11.022 -0.4088  0.5861 -0.0182
20511SOL    HW168583  10.559   3.077  11.096 -1.0836  1.7457  0.0984
20511SOL    HW268584  10.544   3.152  10.965  0.2231  0.7173 -0.6699
20512SOL     OW68585   4.362   0.205   3.612  0.2215  0.5332 -0.3530
20512SOL    HW168586   4.442   0.208   3.665 -0.7980  0.4484  1.2662
20512SOL    HW268587   4.362   0.287   3.563  1.7451  0.1253 -1.0934
20513SOL     OW68588   8.842  11.540   8.272 -0.2251 -0.6001  0.6944
20513SOL    HW168589   8.830  11.503   8.360 -0.8782 -1.6813  0.1680
20513SOL    HW268590   8.756  11.531   8.230 -1.2806  3.8634  1.3185
20514SOL     OW68591   1.545   0.304   5.432 -0.2026  0.0482 -0.0639
20514SOL    HW168592   1.533   0.399   5.424 -0.8250  0.0821  1.1534
20514SOL    HW268593   1.544   0.287   5.526 -1.7205 -1.3631 -0.2848
20515SOL     OW68594  10.456   1.190   4.218  0.2838 -0.1108 -0.0089
20515SOL    HW168595  10.502   1.166   4.138 -0.7687  0.1632 -0.7059
20515SOL    HW268596  10.515   1.252   4.261  0.9145 -0.3645 -0.4947
20516SOL     OW68597   2.764   2.915   6.461 -0.5785  0.1807 -0.3619
20516SOL    HW168598   2.671   2.931   6.443 -0.6325  0.0327 -0.2177
20516SOL    HW268599   2.808   2.996   6.434 -0.9822  1.0632  1.4705
20517SOL     OW68600   8.299   2.250   0.636  0.3474 -0.2114 -0.0487
20517SOL    HW168601   8.293   2.253   0.540  0.6573  0.1746 -0.0578
20517SOL    HW268602   8.245   2.174   0.661  0.0000 -0.1202 -0.5035
20518SOL     OW68603  10.324   8.714   2.835 -0.7115 -0.0621  0.4631
20518SOL    HW168604  10.383   8.709   2.911  0.6391 -0.9172 -0.6008
20518SOL    HW268605  10.373   8.762   2.769 -1.7347  0.3450 -0.0306
20519SOL     OW68606   1.759   8.845  10.281 -0.5209  0.6993  0.0091
20519SOL    HW168607   1.752   8.753  10.256  1.9875 -0.6047  3.3823
20519SOL    HW268608   1.837   8.876  10.235 -1.0564  1.0099 -0.7033
20520SOL     OW68609  12.548   2.594  12.447 -0.0844 -0.3819  0.5915
20520SOL    HW168610  12.494   2.516  12.458  0.6380 -1.4147 -2.3952
20520SOL    HW268611  12.584   2.611  12.534 -2.8535 -1.3552  2.0428
20521SOL     OW68612   5.279   2.019   1.670 -0.3896  0.2800 -0.0570
20521SOL    HW168613   5.296   2.105   1.707  2.1566 -1.0942  2.3975
20521SOL    HW268614   5.223   1.975   1.734 -0.3681 -0.4137 -0.4949
20522SOL     OW68615   9.419   4.396   4.803 -0.2496  0.2659 -0.0646
20522SOL    HW168616   9.431   4.477   4.853 -0.2240 -0.6242  1.4288
20522SOL    HW268617   9.485   4.336   4.837  1.3949  0.3138 -2.8604
20523SOL     OW68618   8.720   9.778   0.817  0.1839 -0.8233 -0.1404
20523SOL    HW168619   8.778   9.814   0.749 -0.9224 -0.4873 -0.9383
20523SOL    HW268620   8.652   9.732   0.768 -0.4695 -0.8324  0.7514
20524SOL     OW68621   6.303   9.911   5.762  0.1409 -0.1383 -0.7195
20524SOL    HW168622   6.240   9.847   5.729 -0.7841  0.5831 -0.3825
20524SOL    HW268623   6.388   9.874   5.739 -0.3807 -1.3367 -0.8119
20525SOL     OW68624   1.704   0.537   6.162 -0.4300 -0.4840 -0.0652
20525SOL    HW168625   1.766   0.605   6.190  1.2864 -2.0067  0.0810
20525SOL    HW268626   1.630   0.545   6.222 -0.2268  1.1625  0.0023
20526SOL     OW68627   2.125   5.536  10.431  0.0244 -0.2065  0.2094
20526SOL    HW168628   2.073   5.496  10.361  0.0448  1.0372 -0.5491
20526SOL    HW268629   2.152   5.621  10.395 -0.6386  0.8144  2.0213
20527SOL     OW68630   7.207   4.979   0.277 -0.0103 -1.0168  0.3307
20527SOL    HW168631   7.148   4.967   0.351  2.4411  0.6094  2.7181
20527SOL    HW268632   7.278   4.918   0.292  0.3464 -0.9447 -0.9423
20528SOL     OW68633   2.132  10.274   8.419 -0.7081 -0.2610 -0.4053
20528SOL    HW168634   2.194  10.203   8.404 -1.1318 -0.7472  0.0640
20528SOL    HW268635   2.048  10.229   8.434 -1.2200  0.3791 -1.2253
20529SOL     OW68636   7.863   3.673   9.957  0.3284  0.3984  0.1056
20529SOL    HW168637   7.807   3.595   9.953  1.1720 -0.2625  0.8234
20529SOL    HW268638   7.881   3.685  10.050  1.7089  0.3607 -0.1373
20530SOL     OW68639   3.855  10.152   2.259  0.0806  0.1514 -0.0858
20530SOL    HW168640   3.904  10.198   2.191 -0.0820 -0.0311 -0.3301
20530SOL    HW268641   3.795  10.095   2.211 -0.3481  0.3481  0.2095
20531SOL     OW68642   3.571   0.442   5.105 -0.3040 -0.0382 -0.1658
20531SOL    HW168643   3.600   0.430   5.015  0.0186 -1.8498  0.1556
20531SOL    HW268644   3.508   0.515   5.100  0.7389  0.8190 -1.6037
20532SOL     OW68645   7.744   1.005   6.715  0.5590 -0.0082  0.1267
20532SOL    HW168646   7.751   1.076   6.779  0.5675 -1.6877  2.0804
20532SOL    HW268647   7.650   0.986   6.712  0.4005  0.8274 -1.3161
20533SOL     OW68648   9.928   3.956  10.766  0.4091  0.6198  0.2413
20533SOL    HW168649   9.943   4.050  10.758  2.4890  0.2641 -0.6581
20533SOL    HW268650   9.879   3.947  10.848 -2.3101  2.6581 -1.0061
20534SOL     OW68651   8.598  10.456   9.977  0.4700 -0.2202  0.2365
20534SOL    HW168652   8.617  10.397   9.904 -1.5769 -0.9340  0.1919
20534SOL    HW268653   8.645  10.537   9.956  0.5727 -0.6859 -1.4700
20535SOL     OW68654   9.437  11.723   9.423 -0.5844  0.7685  0.1546
20535SOL    HW168655   9.486  11.771   9.490 -0.6639  0.8916  0.1229
20535SOL    HW268656   9.353  11.704   9.464  0.5968 -2.2874  1.4587
20536SOL     OW68657   1.677   6.002   8.221 -0.3206  0.5154  0.7435
20536SOL    HW168658   1.764   6.037   8.202  1.2081 -2.7262  1.0507
20536SOL    HW268659   1.623   6.029   8.146  2.0502 -0.7205 -1.5548
20537SOL     OW68660   7.101   8.980   8.500 -0.0423 -0.1914 -0.1388
20537SOL    HW168661   7.073   8.911   8.561  1.7696  0.1037  1.1132
20537SOL    HW268662   7.191   8.957   8.477  0.7579  1.9324  0.6436
20538SOL     OW68663   2.149  11.958   8.932 -0.2381 -0.2183  0.2886
20538SOL    HW168664   2.185  11.875   8.963 -1.3632 -0.2971  1.4904
20538SOL    HW268665   2.140  12.011   9.011 -0.2850  0.7638 -0.3552
20539SOL     OW68666   9.746   7.692   9.057 -0.2391  0.0491  0.1035
20539SOL    HW168667   9.653   7.677   9.044 -0.2703 -1.4099  1.7033
20539SOL    HW268668   9.753   7.787   9.074 -1.2900  0.3202 -0.9175
20540SOL     OW68669  10.700   3.925   1.678 -0.7641  0.0540 -0.1751
20540SOL    HW168670  10.786   3.940   1.717 -0.4626 -2.2573  0.1806
20540SOL    HW268671  10.718   3.885   1.593 -1.4651 -0.5887 -0.0378
20541SOL     OW68672   1.408   6.719  10.399  0.6261 -0.7930  0.2544
20541SOL    HW168673   1.332   6.699  10.453 -1.0322  1.0350 -1.2539
20541SOL    HW268674   1.413   6.648  10.336 -0.6612 -0.3045 -0.4311
20542SOL     OW68675   1.886   0.813   3.038 -0.0897 -0.3092 -0.5831
20542SOL    HW168676   1.864   0.761   3.116  1.7884  0.6680  0.6620
20542SOL    HW268677   1.804   0.859   3.017 -0.5520 -0.2745  1.0824
20543SOL     OW68678  11.341  12.264   6.427 -0.1801 -0.2782  0.0497
20543SOL    HW168679  11.386  12.180   6.424 -1.9302 -1.2523 -2.1486
20543SOL    HW268680  11.409  12.329   6.414  1.1258 -1.3635  1.1455
20544SOL     OW68681   5.756   7.608  11.257 -0.3756  0.2994 -0.0680
20544SOL    HW168682   5.828   7.610  11.321 -0.5433  0.4657  0.1157
20544SOL    HW268683   5.793   7.561  11.182  0.1772  1.0360 -0.2734
20545SOL     OW68684   3.546   1.260   4.819  0.1604  0.0609  0.0525
20545SOL    HW168685   3.571   1.351   4.801 -1.4940  0.2793 -1.3831
20545SOL    HW268686   3.615   1.209   4.777  0.7464  0.6332  0.2843
20546SOL     OW68687   4.380   4.671   9.864  0.1152 -0.6199  0.7506
20546SOL    HW168688   4.363   4.691   9.956  0.5649  0.7782  0.5413
20546SOL    HW268689   4.475   4.671   9.856  0.1291  2.0402 -0.2419
20547SOL     OW68690  10.216   7.924   7.694 -0.1368  0.4556 -0.1756
20547SOL    HW168691  10.156   7.851   7.700  1.5146 -0.9328  0.3134
20547SOL    HW268692  10.241   7.928   7.601  1.0882 -0.7518  0.0806
20548SOL     OW68693   8.906   4.482   1.577  0.6425  0.4249 -0.3132
20548SOL    HW168694   8.931   4.546   1.511 -0.3827  0.6447 -0.5094
20548SOL    HW268695   8.974   4.488   1.644  0.6461  1.6113 -0.4044
20549SOL     OW68696   7.937   5.966  10.191 -0.4904  0.0331  0.4018
20549SOL    HW168697   7.995   5.993  10.262 -2.0774  3.0193  0.6910
20549SOL    HW268698   7.849   5.985  10.223 -1.3322  0.0964 -1.8133
20550SOL     OW68699  10.142   9.372   5.804 -0.2927  0.0780  0.2059
20550SOL    HW168700  10.071   9.435   5.804 -0.3564  0.0395  1.4923
20550SOL    HW268701  10.148   9.343   5.895  0.9477 -0.3939 -0.0044
20551SOL     OW68702   2.310  10.816   4.596 -0.1762 -0.2018 -0.3863
20551SOL    HW168703   2.398  10.832   4.562  0.0683 -0.2962  0.2052
20551SOL    HW268704   2.255  10.811   4.517  0.3847 -0.4045 -0.7705
20552SOL     OW68705  10.874   3.215  11.045 -0.8521 -0.6614  0.2486
20552SOL    HW168706  10.937   3.230  11.116 -0.5055  0.8628 -0.3475
20552SOL    HW268707  10.811   3.153  11.082  1.4638 -2.9975  0.5501
20553SOL     OW68708  12.117   7.759   0.382  0.1826 -0.1007 -0.3424
20553SOL    HW168709  12.040   7.724   0.338  0.3754  0.2235 -0.9552
20553SOL    HW268710  12.184   7.692   0.369 -0.0911 -0.5612  0.5275
20554SOL     OW68711   2.471  11.768   8.264  0.0459 -0.3632 -0.1309
20554SOL    HW168712   2.538  11.804   8.322 -1.1578  1.6844  0.1069
20554SOL    HW268713   2.427  11.702   8.317 -1.2017  1.6511  1.4896
20555SOL     OW68714  10.532   1.976  11.815  0.2895  0.1942  0.0358
20555SOL    HW168715  10.471   1.905  11.794  2.3265 -1.0134 -2.4862
20555SOL    HW268716  10.593   1.938  11.878 -0.6818  0.9421  1.4712
20556SOL     OW68717   9.735   1.281   3.133 -0.0644  0.1154  0.7535
20556SOL    HW168718   9.747   1.372   3.161  1.7523 -0.0710  0.7491
20556SOL    HW268719   9.807   1.233   3.175 -0.3257 -1.1063 -0.1230
20557SOL     OW68720  11.692   2.948   6.508 -0.3350  0.0164  0.1675
20557SOL    HW168721  11.763   2.925   6.568  1.4006 -0.1308 -1.8337
20557SOL    HW268722  11.649   2.864   6.489  0.2984 -0.2335 -0.2048
20558SOL     OW68723   4.578   6.868   6.863 -0.0419  0.2098  0.1439
20558SOL    HW168724   4.494   6.885   6.904  0.0138 -0.8031  0.7172
20558SOL    HW268725   4.643   6.901   6.926 -0.0105  1.6752 -0.6322
20559SOL     OW68726   2.314   4.137   3.247  0.1336 -0.2706  0.6400
20559SOL    HW168727   2.386   4.080   3.220  0.6816  0.1536  1.1820
20559SOL    HW268728   2.249   4.128   3.177  1.4024  0.6147 -0.7454
20560SOL     OW68729   0.734  11.266   7.237  0.6083 -0.0777 -0.2003
20560SOL    HW168730   0.790  11.295   7.164  2.4065 -0.8858  0.7783
20560SOL    HW268731   0.784  11.289   7.315 -1.9053  2.0787  0.9281
20561SOL     OW68732   4.601   1.125   8.263 -0.0542  0.1109  0.3558
20561SOL    HW168733   4.506   1.131   8.254 -0.0284  0.8697  0.5913
20561SOL    HW268734   4.620   1.162   8.348  0.5678  1.0827 -0.1885
20562SOL     OW68735   3.946   7.051   5.361  0.4127 -0.1175  1.0320
20562SOL    HW168736   3.933   7.075   5.269  0.2451 -0.9875  0.8269
20562SOL    HW268737   3.901   7.121   5.410  1.2725  0.8482  0.4902
20563SOL     OW68738   0.215   0.654   8.464  0.2526 -0.0929  0.1674
20563SOL    HW168739   0.245   0.566   8.444  1.8308  0.5050 -0.2901
20563SOL    HW268740   0.132   0.662   8.417 -0.6257 -1.7777  1.3511
20564SOL     OW68741  12.210  12.213   1.076 -0.0460  0.3059  0.1462
20564SOL    HW168742  12.192  12.121   1.059  2.6351 -0.2117 -0.3334
20564SOL    HW268743  12.175  12.259   0.999  2.0052 -0.8219 -1.6011
20565SOL     OW68744  10.156   6.453   8.084  0.3616 -0.1991  0.0300
20565SOL    HW168745  10.091   6.390   8.114 -1.0262  0.9119 -0.5175
20565SOL    HW268746  10.107   6.515   8.030  1.7173  1.1539  0.2571
20566SOL     OW68747   7.830   7.409   7.686 -0.2380 -0.5598  0.7632
20566SOL    HW168748   7.761   7.421   7.752 -0.3641  0.0259  0.5288
20566SOL    HW268749   7.806   7.328   7.642 -1.6439  0.3997 -0.3319
20567SOL     OW68750  10.923  10.763   8.446  0.0099  0.3186 -0.3420
20567SOL    HW168751  10.901  10.845   8.489 -0.3464  0.7061 -1.2474
20567SOL    HW268752  10.840  10.716   8.440 -0.1833  0.7826 -1.6559
20568SOL     OW68753   6.898   0.029   8.468  0.1618  0.5583 -0.0926
20568SOL    HW168754   6.963   0.066   8.528  0.5796 -0.2477 -0.0331
20568SOL    HW268755   6.820   0.084   8.480 -0.5705 -0.9233  2.9013
20569SOL     OW68756  11.694  12.345   3.069 -0.3837  0.4230  0.1226
20569SOL    HW168757  11.751  12.400   3.124 -1.6442  0.8413  1.0776
20569SOL    HW268758  11.656  12.406   3.006 -2.0490  0.8130  1.3970
20570SOL     OW68759   3.000   8.885   7.633 -0.3654  0.3232 -0.2869
20570SOL    HW168760   2.993   8.790   7.644  0.4721  0.0683 -1.6811
20570SOL    HW268761   3.094   8.903   7.640 -0.5577  1.1083  0.3608
20571SOL     OW68762   0.398  12.255   5.881 -0.3760  0.2588  0.6099
20571SOL    HW168763   0.449  12.287   5.806 -0.9622 -1.7268 -0.7294
20571SOL    HW268764   0.465  12.225   5.944  0.2295 -1.7730 -0.8763
20572SOL     OW68765   0.515   7.659  10.916 -0.1263 -0.6779 -0.4078
20572SOL    HW168766   0.555   7.615  10.991  1.3639  1.5593  0.2011
20572SOL    HW268767   0.494   7.747  10.948  0.8326  0.4515 -2.6592
20573SOL     OW68768   4.296   6.078   3.348 -0.2166  0.1997  0.6145
20573SOL    HW168769   4.211   6.035   3.343  0.3420 -0.9905  0.7958
20573SOL    HW268770   4.276   6.171   3.356 -1.4762  0.0137 -0.0899
20574SOL     OW68771   2.822   7.768   3.473  0.4193 -0.3825 -1.1381
20574SOL    HW168772   2.797   7.698   3.533  3.1933  1.4153  2.5244
20574SOL    HW268773   2.748   7.828   3.471  0.4791 -0.1700  1.1738
20575SOL     OW68774   2.224   1.202   8.344 -0.5575 -0.2185  0.4059
20575SOL    HW168775   2.317   1.211   8.365 -0.6159 -0.3202  0.7096
20575SOL    HW268776   2.213   1.110   8.322 -0.5727 -0.1907  0.2939
20576SOL     OW68777   6.147   2.289   3.788 -0.6409 -0.3017  0.3318
20576SOL    HW168778   6.076   2.351   3.777 -0.1850 -0.0445 -1.4409
20576SOL    HW268779   6.116   2.209   3.745  0.8033  0.4017 -2.2407
20577SOL     OW68780   8.652   9.019   0.826  0.1107 -0.0476  0.2588
20577SOL    HW168781   8.587   9.001   0.894 -1.1931 -2.0270 -1.3703
20577SOL    HW268782   8.650   9.114   0.815 -3.1513 -0.0504 -0.1962
20578SOL     OW68783   5.844   6.045   3.798 -0.3616  0.2714  0.1809
20578SOL    HW168784   5.848   5.960   3.755 -2.1548 -1.0779  2.4447
20578SOL    HW268785   5.780   6.095   3.747 -0.1773 -0.1716 -0.4906
20579SOL     OW68786   3.991  12.015   7.184 -0.6387  0.3048 -0.6924
20579SOL    HW168787   3.962  12.041   7.271  2.1291 -1.8758  1.0283
20579SOL    HW268788   4.026  12.096   7.146 -2.9825  1.5562 -0.3648
20580SOL     OW68789   5.853   7.274   5.410 -0.7870 -0.3139 -0.0355
20580SOL    HW168790   5.844   7.191   5.363 -1.6027  0.7129 -1.7841
20580SOL    HW268791   5.810   7.338   5.354 -0.8010  1.1904  1.6137
20581SOL     OW68792  11.060   8.181  10.934 -0.2465 -0.2405 -0.0795
20581SOL    HW168793  10.997   8.110  10.920 -1.6065  1.1028 -1.1731
20581SOL    HW268794  11.007   8.253  10.968  0.9235  0.5575  0.0914
20582SOL     OW68795   9.709   9.185  12.001 -0.0255 -0.1351  0.0471
20582SOL    HW168796   9.769   9.254  11.972  0.4433 -1.0848 -1.3552
20582SOL    HW268797   9.766   9.112  12.024 -0.6240 -1.5805 -2.7339
20583SOL     OW68798   4.575   0.735   7.705 -0.0743  0.4426  0.6690
20583SOL    HW168799   4.568   0.732   7.800 -0.3863 -0.6526  0.6241
20583SOL    HW268800   4.664   0.703   7.687 -0.2645 -0.0355  0.5658
20584SOL     OW68801  11.996   6.952   9.025  0.3032 -0.2887  0.2255
20584SOL    HW168802  12.071   6.989   9.071 -0.1602  0.0418  0.7205
20584SOL    HW268803  11.928   7.020   9.030  0.2389 -0.2421 -0.9376
20585SOL     OW68804   8.639   1.243   0.533  0.6928  0.3229 -0.1631
20585SOL    HW168805   8.661   1.161   0.489 -0.1506 -0.5018  0.8667
20585SOL    HW268806   8.582   1.289   0.472 -1.7303 -1.4939  0.5375
20586SOL     OW68807   9.906  12.340  12.055 -0.1291 -0.5788  0.2206
20586SOL    HW168808   9.816  12.312  12.043 -0.5655  0.8228  0.1199
20586SOL    HW268809   9.954  12.300  11.982 -0.4479 -2.1414  0.8241
20587SOL     OW68810   2.148  10.964   8.104  0.1210 -0.0152 -0.1920
20587SOL    HW168811   2.147  10.878   8.145 -0.8215  0.3977  0.6853
20587SOL    HW268812   2.218  10.958   8.038  2.0606 -0.5578  1.7892
20588SOL     OW68813   7.069   5.811   8.162  0.0064  0.0979 -0.0949
20588SOL    HW168814   7.026   5.878   8.215  1.1010  0.2354  0.6459
20588SOL    HW268815   7.024   5.814   8.078 -0.8588  0.8167  0.3804
20589SOL     OW68816   0.055  12.474  10.887  0.1837  0.0478  0.8255
20589SOL    HW168817   0.013  12.405  10.938 -0.3834 -1.6113 -1.7617
20589SOL    HW268818  -0.008  12.497  10.819  0.8998  2.2110  0.8095
20590SOL     OW68819  10.047   9.115   4.822  0.5269 -0.1821  0.4303
20590SOL    HW168820  10.140   9.127   4.801  0.1524 -0.0611 -1.3113
20590SOL    HW268821  10.006   9.197   4.797  0.0390  0.0830  1.9926
20591SOL     OW68822   5.223   3.349   3.177 -0.1215  0.4468  0.3828
20591SOL    HW168823   5.165   3.282   3.212 -3.3584  2.8816  0.1114
20591SOL    HW268824   5.217   3.420   3.241  0.3187  1.8461 -1.0879
20592SOL     OW68825   1.616   4.716  10.331 -0.1749 -0.0508  0.3054
20592SOL    HW168826   1.565   4.754  10.259  1.1527  0.3428 -0.4620
20592SOL    HW268827   1.559   4.649  10.368 -0.2372 -1.5255 -2.2827
20593SOL     OW68828   9.536   1.890   8.711  0.2585 -0.0791 -0.5771
20593SOL    HW168829   9.474   1.833   8.756 -2.6640  3.4548  0.4119
20593SOL    HW268830   9.622   1.854   8.732 -1.1948 -1.8271  3.2899
20594SOL     OW68831   2.750   0.532   5.178  0.0318  0.2046  0.0090
20594SOL    HW168832   2.772   0.604   5.118  1.3614  0.3690  0.6498
20594SOL    HW268833   2.656   0.518   5.165 -0.0310  1.3124 -0.9332
20595SOL     OW68834   6.022   9.983   3.628  0.0720 -0.2314  0.1936
20595SOL    HW168835   5.981   9.899   3.607 -0.2521 -0.3574  1.2772
20595SOL    HW268836   6.010  10.036   3.549 -2.1951 -0.2449  0.4740
20596SOL     OW68837   3.295   3.433  12.132 -0.0747 -0.3463 -0.1432
20596SOL    HW168838   3.317   3.470  12.218 -0.0294  0.0181 -0.3113
20596SOL    HW268839   3.200   3.440  12.126 -0.2383 -1.7023  0.4830
20597SOL     OW68840   2.721   6.274   2.664  0.0860  0.2178  0.3079
20597SOL    HW168841   2.645   6.276   2.723  1.7178 -0.5442  2.5832
20597SOL    HW268842   2.735   6.366   2.641 -0.2655  0.6282  1.6240
20598SOL     OW68843   9.452   4.714   3.724 -0.6608  0.2865 -0.3224
20598SOL    HW168844   9.389   4.761   3.778 -0.2519 -1.8371  2.1858
20598SOL    HW268845   9.401   4.646   3.680 -0.2839 -1.3910  1.6584
20599SOL     OW68846   2.776   4.522   2.576  0.7083  0.7341  0.5004
20599SOL    HW168847   2.725   4.523   2.495  0.0497  0.4099  0.8966
20599SOL    HW268848   2.781   4.614   2.602  2.2773  1.0311 -0.7114
20600SOL     OW68849   6.260  10.954  10.301 -0.6631 -0.1076  0.2566
20600SOL    HW168850   6.276  10.990  10.388  2.7689 -0.6760 -0.0072
20600SOL    HW268851   6.174  10.989  10.276  0.8670  5.3422  1.3179
20601SOL     OW68852   2.053   5.214  11.372 -0.0520  0.4680  0.3774
20601SOL    HW168853   2.113   5.181  11.439  0.0299 -0.0186  0.0663
20601SOL    HW268854   2.070   5.160  11.295 -1.4672 -0.2721  0.5333
20602SOL     OW68855   4.190   2.581   0.172  0.4831  0.3845 -0.1086
20602SOL    HW168856   4.215   2.536   0.091 -1.0453  0.3780 -0.6055
20602SOL    HW268857   4.111   2.535   0.201 -0.8168  2.3635 -0.3337
20603SOL     OW68858  10.636   7.845   5.036 -0.1412 -0.0042 -0.2987
20603SOL    HW168859  10.676   7.870   4.953 -2.8023  0.9118 -1.4070
20603SOL    HW268860  10.664   7.914   5.097  2.0266 -0.8151 -0.2936
20604SOL     OW68861   7.176  10.174   6.437  0.2297 -0.7436 -0.3808
20604SOL    HW168862   7.186  10.252   6.382  0.4468 -1.6424 -1.6578
20604SOL    HW268863   7.229  10.108   6.394  0.7970 -1.3583  1.2009
20605SOL     OW68864   2.887   7.785   5.137  0.3510 -0.6554  0.7930
20605SOL    HW168865   2.814   7.726   5.119 -0.5825  0.7212 -0.1890
20605SOL    HW268866   2.956   7.757   5.076  0.0267 -0.9047  0.5379
20606SOL     OW68867   2.517   3.310   1.439  0.4213  0.0691 -0.2191
20606SOL    HW168868   2.603   3.283   1.472  0.3238  0.8788  0.7588
20606SOL    HW268869   2.519   3.288   1.346  1.2740 -0.9262  0.0190
20607SOL     OW68870   2.352  10.205   9.008  0.2278 -0.4217  0.2930
20607SOL    HW168871   2.411  10.272   9.043 -0.4819 -0.3745  1.4553
20607SOL    HW268872   2.370  10.127   9.061  1.5650 -1.4319 -1.5141
20608SOL     OW68873   3.437   6.900   0.300 -0.7968 -0.3824  0.4770
20608SOL    HW168874   3.364   6.838   0.306  0.7262 -2.3914 -0.5909
20608SOL    HW268875   3.470   6.891   0.210 -0.1047  1.5306  0.4867
20609SOL     OW68876  11.373   6.573  10.609 -0.5261  0.0468 -0.1703
20609SOL    HW168877  11.361   6.511  10.681  1.0681  1.0353  1.0039
20609SOL    HW268878  11.423   6.524  10.544 -0.5859 -0.3662  0.0923
20610SOL     OW68879   9.634  11.938   2.019 -1.0081  0.2133  0.3599
20610SOL    HW168880   9.545  11.966   1.996 -1.9482 -1.6969  1.3842
20610SOL    HW268881   9.657  11.872   1.954 -1.5339 -1.3225  1.6431
20611SOL     OW68882   5.461   7.928  10.048 -0.5006  0.2525 -0.0542
20611SOL    HW168883   5.418   8.014  10.045 -0.2189  0.3985  0.0870
20611SOL    HW268884   5.429   7.888  10.129  0.4011  0.7692  0.5741
20612SOL     OW68885   3.531   4.975   7.604  0.4212  0.2963 -0.2696
20612SOL    HW168886   3.587   4.900   7.584  0.0795  0.3103 -1.3561
20612SOL    HW268887   3.582   5.027   7.667  0.7524 -0.7177  0.3201
20613SOL     OW68888   5.756   7.204  10.133 -0.5415  0.2662 -0.8544
20613SOL    HW168889   5.844   7.192  10.170 -1.0762 -0.6613  0.2024
20613SOL    HW268890   5.770   7.207  10.038  0.7462  1.3714 -0.6686
20614SOL     OW68891  11.326   0.218   0.780  0.1280 -0.0190  0.2162
20614SOL    HW168892  11.292   0.261   0.702 -0.1053 -1.0273 -0.2517
20614SOL    HW268893  11.284   0.132   0.781  1.9073 -0.9291  0.1652
20615SOL     OW68894   4.234   6.510   2.211 -0.4501  0.1454  0.0638
20615SOL    HW168895   4.231   6.417   2.235  0.2017 -0.1656 -0.9776
20615SOL    HW268896   4.277   6.553   2.286 -2.8854  0.0374  1.6456
20616SOL     OW68897  11.089   8.649   9.358  0.0797 -0.0371  0.1014
20616SOL    HW168898  11.057   8.595   9.430 -1.7400  2.3563  1.2112
20616SOL    HW268899  11.134   8.722   9.401 -0.1137  0.8962 -1.2310
20617SOL     OW68900   3.689  11.547   7.338 -0.2867 -0.0172 -0.1183
20617SOL    HW168901   3.714  11.488   7.409 -0.3542  0.3025  0.1730
20617SOL    HW268902   3.770  11.595   7.318 -0.2368 -0.1917 -0.3420
20618SOL     OW68903  10.463   8.607   6.382 -0.2633  0.3335 -0.2538
20618SOL    HW168904  10.540   8.569   6.339 -0.4514 -1.3126  0.7639
20618SOL    HW268905  10.389   8.563   6.340 -0.5929  0.8440 -0.2174
20619SOL     OW68906   1.991   8.792  11.381 -0.1734 -0.2612 -0.1935
20619SOL    HW168907   1.923   8.828  11.325 -0.8840 -0.8485  0.2703
20619SOL    HW268908   1.951   8.715  11.421  0.7270 -0.5509  0.1798
20620SOL     OW68909  11.712   3.435   8.067 -0.3634 -0.3481  0.3303
20620SOL    HW168910  11.667   3.434   8.152  1.0500  0.4792  1.1344
20620SOL    HW268911  11.795   3.391   8.084 -0.0131 -0.0597 -0.5876
20621SOL     OW68912   1.963   4.480   2.350  1.1221  0.1669  0.3358
20621SOL    HW168913   1.974   4.537   2.427  0.2151 -1.6332  1.8809
20621SOL    HW268914   2.028   4.411   2.363 -0.8896 -1.6766  0.9897
20622SOL     OW68915   6.590  10.462  11.321  0.0006 -0.0610  0.2658
20622SOL    HW168916   6.633  10.403  11.383  2.6765 -0.6278 -1.9577
20622SOL    HW268917   6.548  10.405  11.258  1.2246  0.3590 -0.9822
20623SOL     OW68918   6.279   7.742   0.600 -0.0644 -0.7996  0.0705
20623SOL    HW168919   6.270   7.706   0.512  0.5711  2.3137 -1.4057
20623SOL    HW268920   6.331   7.677   0.648  1.6310 -1.5202 -2.5721
20624SOL     OW68921   1.624   4.522   3.921  0.9170  0.0420 -0.0509
20624SOL    HW168922   1.558   4.529   3.852  0.5835 -1.8810  0.0092
20624SOL    HW268923   1.573   4.523   4.002  0.7049 -3.0682 -0.0475
20625SOL     OW68924  12.316  10.270   2.199  0.2902 -0.6026  0.8180
20625SOL    HW168925  12.250  10.339   2.208  0.9790  0.0092  1.2654
20625SOL    HW268926  12.307  10.240   2.108  1.2387  1.3982  0.0076
20626SOL     OW68927   0.406   1.040   9.738 -0.3020 -0.0122 -0.3802
20626SOL    HW168928   0.467   0.970   9.712  1.3038  1.3621 -0.4948
20626SOL    HW268929   0.399   1.031   9.833  2.1552  1.3106  0.0228
20627SOL     OW68930   3.271   1.232   8.128  0.6972 -0.4426 -0.1180
20627SOL    HW168931   3.258   1.303   8.191 -0.9976  0.4808 -1.4238
20627SOL    HW268932   3.256   1.152   8.179 -0.7934  0.2853  0.6728
20628SOL     OW68933  10.407   9.426   7.138  0.0910 -0.2848  0.3484
20628SOL    HW168934  10.353   9.347   7.142 -2.6193  1.4934  0.8774
20628SOL    HW268935  10.347   9.498   7.158  2.6318  1.8722  0.7693
20629SOL     OW68936   1.943   4.374  10.497  0.1760 -0.2171 -0.1116
20629SOL    HW168937   1.901   4.398  10.580 -0.7112 -0.8603 -0.3657
20629SOL    HW268938   1.983   4.455  10.466  0.6216  0.0042  1.0029
20630SOL     OW68939  10.801   7.042   5.840  0.3895  0.0557 -0.4147
20630SOL    HW168940  10.790   7.089   5.923 -1.0005  0.3925 -0.7603
20630SOL    HW268941  10.840   6.958   5.864 -0.6393 -0.1350  0.6748
20631SOL     OW68942   9.896   0.221   7.604 -0.7502 -0.7626  0.1613
20631SOL    HW168943   9.900   0.188   7.515 -0.7116  0.6556 -0.3832
20631SOL    HW268944   9.985   0.250   7.623 -0.7994 -0.8878  0.5939
20632SOL     OW68945   8.579   0.737  10.812  0.2420  0.0968 -0.2611
20632SOL    HW168946   8.492   0.735  10.852  0.3738 -0.1387  0.0196
20632SOL    HW268947   8.608   0.646  10.814  0.6680  0.2332  0.0309
20633SOL     OW68948   7.005  10.149  10.875  0.9438  0.2190  0.4774
20633SOL    HW168949   7.088  10.116  10.908  0.4685 -1.0768  0.4312
20633SOL    HW268950   6.941  10.122  10.940  0.4124  0.3099  0.0005
20634SOL     OW68951   2.940   7.296   6.364 -0.2783  0.7427  0.0345
20634SOL    HW168952   3.021   7.295   6.313 -1.1542  0.8419 -1.4266
20634SOL    HW268953   2.870   7.285   6.299 -1.3932 -0.5931  1.3801
20635SOL     OW68954   5.236  11.525   8.680 -0.1561 -0.4536 -0.0512
20635SOL    HW168955   5.251  11.609   8.636 -0.2744 -2.0026 -3.3828
20635SOL    HW268956   5.315  11.474   8.663  0.3196 -0.8012  2.7377
20636SOL     OW68957   4.043   1.752   8.130 -0.1394 -0.7946  0.6777
20636SOL    HW168958   3.963   1.797   8.155  0.5718 -0.0203  1.6526
20636SOL    HW268959   4.040   1.749   8.034 -2.5959 -3.2035  0.7173
20637SOL     OW68960   4.241   6.120   9.054 -0.1361  0.0772 -0.5562
20637SOL    HW168961   4.328   6.158   9.040 -0.0155  0.6847  1.5723
20637SOL    HW268962   4.182   6.177   9.005  0.4769  0.7048 -0.5808
20638SOL     OW68963   2.795   2.364   4.114 -0.7948 -0.0538  0.0756
20638SOL    HW168964   2.870   2.336   4.062 -0.5265  0.6202  0.0806
20638SOL    HW268965   2.756   2.283   4.147  0.7577 -0.3828  1.2203
20639SOL     OW68966   7.154   1.038   2.971  0.0785  0.0462 -0.0645
20639SOL    HW168967   7.058   1.032   2.970  0.0903 -0.2050 -0.8858
20639SOL    HW268968   7.173   1.113   2.914  0.3378  0.9578  1.1696
20640SOL     OW68969   2.147   1.396   9.853  0.2174 -0.2523 -0.3559
20640SOL    HW168970   2.198   1.469   9.819 -0.9926  0.4271 -0.7890
20640SOL    HW268971   2.071   1.437   9.895  0.8203 -1.1543  1.7303
20641SOL     OW68972   0.641   2.290   5.411  0.4200 -0.0760 -0.0380
20641SOL    HW168973   0.549   2.309   5.430  0.4395 -0.0350  0.0178
20641SOL    HW268974   0.666   2.354   5.344  0.7972  0.8535  0.9536
20642SOL     OW68975   2.045   2.669  11.082 -0.1391  0.4033  0.1161
20642SOL    HW168976   2.063   2.697  10.993 -0.4548  1.2638  0.3140
20642SOL    HW268977   1.980   2.600  11.073 -0.0441  0.3680 -0.3269
20643SOL     OW68978   7.523   9.509   7.887  0.0394 -0.2496  0.5522
20643SOL    HW168979   7.507   9.600   7.913  2.1459  0.4955 -0.5697
20643SOL    HW268980   7.444   9.482   7.841 -0.5106  1.0935  0.6908
20644SOL     OW68981   1.698   9.762  11.168  0.2865 -0.0234  0.1352
20644SOL    HW168982   1.603   9.769  11.163  0.4570  1.8078 -2.0464
20644SOL    HW268983   1.730   9.850  11.149  2.4455 -0.7714  0.0013
20645SOL     OW68984   9.190  12.335   9.147  0.4570  0.4778 -0.2805
20645SOL    HW168985   9.106  12.295   9.170  1.4073 -1.2835  0.3563
20645SOL    HW268986   9.171  12.428   9.136 -1.4429  0.2113  0.4510
20646SOL     OW68987   4.222   8.728   4.196 -0.1661  0.1646  0.0829
20646SOL    HW168988   4.250   8.705   4.107  1.3012 -1.3700  0.8768
20646SOL    HW268989   4.191   8.646   4.234 -0.7186  0.7823  1.0103
20647SOL     OW68990   3.596   8.837   5.925 -0.3898  0.2194 -0.0601
20647SOL    HW168991   3.539   8.792   5.862  0.1970 -0.4402 -0.1377
20647SOL    HW268992   3.643   8.902   5.873 -0.1748 -0.0766 -0.2400
20648SOL     OW68993  12.581   2.547   2.128  0.3238 -0.3757 -0.7325
20648SOL    HW168994  12.490   2.541   2.159 -0.3773 -1.5413 -2.8046
20648SOL    HW268995  12.631   2.494   2.190 -0.7784 -1.5221 -0.7918
20649SOL     OW68996   3.098   8.172   0.003  0.0343  0.7893  0.0500
20649SOL    HW168997   3.136   8.155  -0.083 -0.7400  0.4385 -0.2270
20649SOL    HW268998   3.169   8.214   0.053  0.8794 -0.1436 -0.3481
20650SOL     OW68999  10.365   9.210   5.700 -0.1344 -0.1377  0.2518
20650SOL    HW169000  10.377   9.300   5.671  0.1177 -0.2786 -0.0801
20650SOL    HW269001  10.300   9.173   5.640  0.7355 -0.5715 -0.4480
20651SOL     OW69002   9.296   4.914   0.425  0.2078 -0.0016  0.2204
20651SOL    HW169003   9.277   4.990   0.480 -2.0572 -0.4439  0.1846
20651SOL    HW269004   9.298   4.840   0.486 -0.1807 -0.2229 -0.0309
20652SOL     OW69005   8.767   5.133   0.581 -0.3604 -0.5661 -0.1452
20652SOL    HW169006   8.768   5.199   0.650  0.1134 -0.0904 -0.5995
20652SOL    HW269007   8.810   5.057   0.619  1.0987  0.1335 -0.3295
20653SOL     OW69008   4.347   4.257  11.376  0.0997 -0.1971 -0.2928
20653SOL    HW169009   4.331   4.275  11.469 -0.7566 -0.3260 -0.4088
20653SOL    HW269010   4.272   4.204  11.349  1.2461 -1.7181 -0.6161
20654SOL     OW69011   3.816  10.343  11.433  0.5118 -0.0181  0.4618
20654SOL    HW169012   3.763  10.263  11.431  1.9946 -1.0427  0.6958
20654SOL    HW269013   3.781  10.393  11.507 -0.8883 -0.1019 -0.1129
20655SOL     OW69014  11.835   0.594   2.443 -0.0166 -0.2022  0.0170
20655SOL    HW169015  11.913   0.544   2.423  1.0494  0.9755  1.0644
20655SOL    HW269016  11.827   0.658   2.372  0.6899  0.4776  0.5402
20656SOL     OW69017  11.234   1.497   4.614 -0.0612 -0.2097 -0.1690
20656SOL    HW169018  11.160   1.542   4.657  0.8930 -0.0063  1.3545
20656SOL    HW269019  11.269   1.562   4.553  0.7145  0.8424  1.3228
20657SOL     OW69020   5.918   4.090   2.883 -0.4772 -0.0580 -0.7794
20657SOL    HW169021   5.993   4.031   2.896  0.3380  0.8353 -1.2845
20657SOL    HW269022   5.852   4.035   2.839 -0.6106 -1.1825  0.7551
20658SOL     OW69023   5.399   6.323   9.299 -0.0601 -0.0944  0.0891
20658SOL    HW169024   5.464   6.277   9.352  0.7988  0.6637 -0.2770
20658SOL    HW269025   5.368   6.257   9.237 -0.5573 -0.7959  1.0563
20659SOL     OW69026  11.389   5.048   4.517 -0.8011  0.0691 -0.0979
20659SOL    HW169027  11.418   4.957   4.511 -1.4653 -0.2269  1.1032
20659SOL    HW269028  11.452   5.090   4.576 -1.6195 -0.0809  0.8881
20660SOL     OW69029   3.250   9.319   0.847  0.1402  0.2206 -0.3746
20660SOL    HW169030   3.269   9.361   0.931  1.1528 -0.5715 -0.1787
20660SOL    HW269031   3.171   9.268   0.863 -0.9367  1.7831 -0.5355
20661SOL     OW69032   3.521   5.566  12.137  0.1069 -0.8876 -0.3306
20661SOL    HW169033   3.476   5.528  12.062  1.7266 -1.4326 -1.0649
20661SOL    HW269034   3.475   5.648  12.154 -0.7596 -1.1288 -1.4319
20662SOL     OW69035  12.194   4.604   1.590  0.2474  0.4912 -0.3772
20662SOL    HW169036  12.185   4.693   1.555 -0.4799 -0.0752 -1.7015
20662SOL    HW269037  12.105   4.578   1.614  0.1936 -0.4712 -1.5478
20663SOL     OW69038   9.858   9.899   8.209  0.0845 -0.4709  0.2230
20663SOL    HW169039   9.858   9.965   8.139  1.7281  0.3283  0.9200
20663SOL    HW269040   9.951   9.880   8.224 -0.3288 -2.3382  0.6365
20664SOL     OW69041   2.354   3.070   9.625  0.7156 -0.1115 -0.1894
20664SOL    HW169042   2.445   3.092   9.643  0.8037 -1.0895  0.6915
20664SOL    HW269043   2.350   3.055   9.531  1.0967  1.4987 -0.4877
20665SOL     OW69044   3.446   6.913   4.718 -0.3424 -0.0783  0.4392
20665SOL    HW169045   3.451   6.968   4.795  0.2166 -0.5527  0.7522
20665SOL    HW269046   3.453   6.974   4.644 -0.3798  0.3256  0.7691
20666SOL     OW69047   1.736  11.502  11.037  0.0626 -0.5523  0.4445
20666SOL    HW169048   1.803  11.557  10.997 -1.0969  0.7766  0.2700
20666SOL    HW269049   1.699  11.452  10.964 -0.3370  0.0319  0.2368
20667SOL     OW69050   8.450   7.589  12.592 -0.3955  0.2409  0.2767
20667SOL    HW169051   8.419   7.680  12.582  1.5654  0.7784 -1.5823
20667SOL    HW269052   8.455   7.576  12.687 -2.9735  1.2021  0.6401
20668SOL     OW69053   7.948   9.073   9.097  0.1169 -0.6457 -0.4305
20668SOL    HW169054   7.884   9.097   9.164 -1.0733 -0.2222 -1.6529
20668SOL    HW269055   8.011   9.016   9.141 -0.7437 -0.5332  0.9764
20669SOL     OW69056   1.783  10.948   5.425  0.0275  0.4896 -0.2689
20669SOL    HW169057   1.795  10.866   5.377 -0.0129  0.5402 -0.3659
20669SOL    HW269058   1.737  11.006   5.364 -2.0747 -0.1799  0.5909
20670SOL     OW69059  11.535   8.623   9.622 -0.0490  0.6592  0.2183
20670SOL    HW169060  11.529   8.615   9.527  1.1370  1.2401  0.0619
20670SOL    HW269061  11.474   8.558   9.657  0.9432 -0.9741 -0.9339
20671SOL     OW69062   0.878   6.027   8.388  0.5898  0.5092 -0.7604
20671SOL    HW169063   0.842   6.025   8.477  1.4126 -1.5275 -0.4110
20671SOL    HW269064   0.970   6.046   8.399  0.6541  0.4621 -1.1857
20672SOL     OW69065   9.314   6.315  10.424 -0.2483 -0.0433 -0.1589
20672SOL    HW169066   9.377   6.371  10.468 -0.9026  1.9941 -1.6610
20672SOL    HW269067   9.364   6.272  10.355 -0.4288  1.6639 -1.4280
20673SOL     OW69068   1.006   0.835   4.292 -0.1345  0.5818 -0.4696
20673SOL    HW169069   0.950   0.763   4.264 -0.4959  0.0958  1.3256
20673SOL    HW269070   1.091   0.817   4.252 -0.8876  0.5789 -2.1093
20674SOL     OW69071   6.056   7.205   7.951  0.0295  0.2392 -0.0685
20674SOL    HW169072   6.008   7.259   7.889 -1.2162 -0.3788  0.3206
20674SOL    HW269073   6.008   7.122   7.953  1.6450 -0.7512 -0.3323
20675SOL     OW69074  11.142  10.097   2.264  0.1920 -0.1891 -0.2852
20675SOL    HW169075  11.161  10.082   2.356  0.6908  1.1323 -0.1571
20675SOL    HW269076  11.052  10.128   2.262  0.3809  0.3665 -0.1813
20676SOL     OW69077   9.007   3.611   6.763 -0.5000 -0.3350 -0.0594
20676SOL    HW169078   9.075   3.676   6.782 -1.8326  0.9961  0.3982
20676SOL    HW269079   9.010   3.551   6.838  2.4121 -2.3979 -1.6467
20677SOL     OW69080   3.852   6.360   5.459  0.0624  0.2644  0.4161
20677SOL    HW169081   3.764   6.384   5.429  0.1048  1.5408  1.2605
20677SOL    HW269082   3.839   6.327   5.548  0.4576  0.7495  0.6617
20678SOL     OW69083  12.375   7.265  11.226 -0.3789  0.4436 -0.1284
20678SOL    HW169084  12.362   7.310  11.143  0.2324 -0.5739 -0.7947
20678SOL    HW269085  12.324   7.316  11.289  0.0355  1.8673 -0.9031
20679SOL     OW69086  11.219  10.160   0.321 -0.1442 -0.3413  0.5081
20679SOL    HW169087  11.253  10.106   0.393  1.1757 -1.8868 -1.1707
20679SOL    HW269088  11.156  10.103   0.277  0.9072 -0.3922 -1.0062
20680SOL     OW69089  11.597   0.749   1.108 -0.3220  0.4166 -0.3125
20680SOL    HW169090  11.601   0.804   1.029  0.1284 -0.4510 -0.9133
20680SOL    HW269091  11.551   0.803   1.172  0.1524  1.5171 -0.8638
20681SOL     OW69092   5.582   0.778   6.552  0.1034  0.2718  0.0858
20681SOL    HW169093   5.590   0.761   6.458 -0.3082  1.6547 -0.2302
20681SOL    HW269094   5.489   0.796   6.565  0.1468 -0.0020  0.7708
20682SOL     OW69095   8.211  12.274   5.255  0.6781 -0.1321  0.3485
20682SOL    HW169096   8.269  12.202   5.281 -1.6325 -2.1870  0.1665
20682SOL    HW269097   8.227  12.285   5.161  0.2696 -1.2078  0.1406
20683SOL     OW69098   9.404   1.475   3.094  0.1456  0.2660  0.2012
20683SOL    HW169099   9.426   1.451   3.004  0.5677  2.6215 -0.3948
20683SOL    HW269100   9.432   1.400   3.146  1.1290 -0.6091 -1.4921
20684SOL     OW69101   0.969  10.636   1.493 -0.4450 -0.3211  0.1701
20684SOL    HW169102   0.882  10.664   1.465  0.0116 -0.0881 -1.0713
20684SOL    HW269103   0.991  10.697   1.564 -0.5977  0.7362 -0.6544
20685SOL     OW69104   1.085   6.450   4.408 -0.6903 -0.8129  0.3378
20685SOL    HW169105   1.043   6.497   4.336 -1.6245 -1.4760  0.4198
20685SOL    HW269106   1.110   6.366   4.370  3.1326  0.4964 -0.4681
20686SOL     OW69107  10.826   3.785  10.698  0.4945  0.6232 -0.2550
20686SOL    HW169108  10.819   3.690  10.709 -2.9152  0.7790  0.0094
20686SOL    HW269109  10.918   3.805  10.717  1.3999 -2.6158 -0.6467
20687SOL     OW69110   0.237   5.811   8.534  0.8268 -0.2795 -0.2213
20687SOL    HW169111   0.189   5.795   8.453  0.9778 -0.5520 -0.2603
20687SOL    HW269112   0.181   5.774   8.603  0.1129  1.0641 -0.0558
20688SOL     OW69113   9.196   7.367   0.901 -0.4756 -0.8124 -0.3882
20688SOL    HW169114   9.226   7.454   0.930  2.3504 -1.5453 -0.8850
20688SOL    HW269115   9.170   7.323   0.982 -2.1832  0.5038 -0.1470
20689SOL     OW69116   0.928   5.988  11.547  0.0036 -0.1804  0.3303
20689SOL    HW169117   0.999   6.031  11.500 -0.9912  0.8506 -0.2838
20689SOL    HW269118   0.911   5.908  11.499  1.2375 -0.8332  0.9286
20690SOL     OW69119  12.069   2.573   7.115  0.5072  0.3364  0.1880
20690SOL    HW169120  12.162   2.562   7.136  0.6875  0.9168 -0.2713
20690SOL    HW269121  12.038   2.639   7.177 -0.1167 -1.3002  1.6983
20691SOL     OW69122  12.054  10.252   1.458 -0.4647  0.1370 -0.2748
20691SOL    HW169123  11.965  10.230   1.486  0.1008 -1.0146  0.7334
20691SOL    HW269124  12.103  10.258   1.540  0.6663 -0.5743 -0.8786
20692SOL     OW69125   0.569   1.282   4.280  0.2695 -0.2291 -0.9874
20692SOL    HW169126   0.509   1.352   4.255  0.5436  1.0443  1.5750
20692SOL    HW269127   0.641   1.289   4.218 -0.5208  0.6161 -1.8349
20693SOL     OW69128   3.906   7.309   7.390  0.1694 -0.6685  0.0559
20693SOL    HW169129   3.990   7.281   7.354  0.6239  1.4642 -0.7372
20693SOL    HW269130   3.844   7.241   7.365  1.4814 -1.8312 -0.1492
20694SOL     OW69131   8.689   0.808  12.110 -0.4722 -0.1100 -0.0176
20694SOL    HW169132   8.649   0.894  12.117 -2.1813 -0.9275  0.7732
20694SOL    HW269133   8.654   0.758  12.184  0.1227 -1.6106 -0.6964
20695SOL     OW69134   6.207   1.438   3.788  0.1776  0.7212 -0.2209
20695SOL    HW169135   6.301   1.443   3.776 -0.0171  1.1041 -1.7755
20695SOL    HW269136   6.189   1.494   3.863  1.2793 -0.1284  0.7130
20696SOL     OW69137   8.446  11.195   4.186 -0.1719  0.0790 -0.1609
20696SOL    HW169138   8.497  11.223   4.263 -1.5073  1.0502  0.4008
20696SOL    HW269139   8.512  11.167   4.123  1.0633  1.2777  0.5504
20697SOL     OW69140   9.185  10.139  12.110  0.4035  0.7322  0.1000
20697SOL    HW169141   9.211  10.115  12.198 -1.4595 -0.8656  0.2927
20697SOL    HW269142   9.115  10.203  12.121 -0.3104  0.0130 -0.1823
20698SOL     OW69143  11.648   8.037   7.278  0.3084  0.2855  0.3056
20698SOL    HW169144  11.655   8.132   7.270  1.4085  0.2406  0.5840
20698SOL    HW269145  11.668   8.019   7.370 -2.1554 -0.0425  0.8559
20699SOL     OW69146  12.082   6.943   4.862  0.4071  0.3599 -0.0511
20699SOL    HW169147  11.996   6.907   4.882  0.5428  0.3325  0.5123
20699SOL    HW269148  12.064   7.026   4.818  0.0719  0.9473  1.1391
20700SOL     OW69149   4.389   4.528  12.326 -0.3398 -0.1463  0.4330
20700SOL    HW169150   4.452   4.465  12.291 -1.3510 -0.9141 -0.0822
20700SOL    HW269151   4.315   4.523  12.264 -1.0188  0.5042  1.1807
20701SOL     OW69152   3.389   9.636   8.233  0.1171  0.3577  0.0520
20701SOL    HW169153   3.466   9.581   8.243  0.8939  0.7107 -3.0714
20701SOL    HW269154   3.424   9.721   8.207 -1.3018  0.6068 -1.1434
20702SOL     OW69155   4.935   6.819   2.544 -0.3293  0.5525 -0.1904
20702SOL    HW169156   4.980   6.770   2.613  2.1257  2.8553  0.0341
20702SOL    HW269157   4.906   6.752   2.482  0.8878 -1.3171  1.1381
20703SOL     OW69158   7.657   6.110   0.157  0.3343 -0.4200  0.0859
20703SOL    HW169159   7.623   6.184   0.106  0.5512 -0.2944  0.1242
20703SOL    HW269160   7.604   6.110   0.237  0.8135  0.1358  0.4081
20704SOL     OW69161   2.093   2.169   8.436  0.0378  0.2746 -0.7558
20704SOL    HW169162   2.008   2.167   8.480  0.5067 -2.2849  0.2511
20704SOL    HW269163   2.074   2.198   8.347 -1.9132 -0.3496 -0.5864
20705SOL     OW69164   0.418  12.473   6.129  0.4857 -0.2150 -0.1662
20705SOL    HW169165   0.380  12.540   6.072 -1.6943 -0.9797  0.3155
20705SOL    HW269166   0.503  12.454   6.089  0.2344  1.2911 -1.5282
20706SOL     OW69167   4.707   4.328   5.438  0.1425  0.0281 -0.5169
20706SOL    HW169168   4.679   4.396   5.377 -0.3789  0.5696  0.2981
20706SOL    HW269169   4.718   4.375   5.521 -0.9137 -0.9905  0.2306
20707SOL     OW69170   9.458   0.361   2.419 -0.0321 -0.2976 -0.1019
20707SOL    HW169171   9.436   0.453   2.429  0.6161 -0.2467  1.0226
20707SOL    HW269172   9.495   0.336   2.503 -0.3949 -1.6480 -0.3173
20708SOL     OW69173   0.445   8.012   5.948  0.1523  0.2331  0.0867
20708SOL    HW169174   0.520   8.042   5.999  0.9152 -1.1053 -0.2082
20708SOL    HW269175   0.396   7.955   6.006  0.5904 -0.6638 -0.4094
20709SOL     OW69176   4.162   2.140   8.497  0.0666 -0.0349 -0.1035
20709SOL    HW169177   4.161   2.207   8.565  0.4573 -0.2615  0.1327
20709SOL    HW269178   4.202   2.064   8.539  2.1966  0.4234 -1.1282
20710SOL     OW69179   1.296   4.839   8.624  0.1016  0.0685  0.3876
20710SOL    HW169180   1.281   4.878   8.710  1.2571 -0.2422  0.7509
20710SOL    HW269181   1.224   4.872   8.570 -0.6639  0.2357  1.4754
20711SOL     OW69182   9.536   5.349   8.282  0.3108 -0.2272  0.6026
20711SOL    HW169183   9.588   5.420   8.321 -0.1555  0.3183  0.2621
20711SOL    HW269184   9.456   5.393   8.253  0.4141 -0.7201 -0.4659
20712SOL     OW69185   5.326  12.424   6.301  0.3828  0.4744  0.0191
20712SOL    HW169186   5.363  12.350   6.253  0.3246 -1.4263  2.6891
20712SOL    HW269187   5.269  12.468   6.238  0.2221 -1.9011 -1.5939
20713SOL     OW69188   6.639  10.464  10.738  0.1953  0.3587  0.7861
20713SOL    HW169189   6.557  10.506  10.764 -0.0753  0.4268 -0.1411
20713SOL    HW269190   6.626  10.441  10.646  2.1427  2.6837 -0.1930
20714SOL     OW69191  12.443   4.959   7.075  0.0819 -0.0620  0.0978
20714SOL    HW169192  12.424   5.043   7.034  0.3415 -0.5153 -0.9935
20714SOL    HW269193  12.451   4.898   7.002  0.2009 -0.9760  0.8542
20715SOL     OW69194   6.928   1.044   7.572  0.6324  0.1929  0.0478
20715SOL    HW169195   6.918   0.990   7.493 -0.1159  1.1272 -0.5120
20715SOL    HW269196   6.844   1.036   7.617 -0.3051  2.5464 -1.1271
20716SOL     OW69197  11.288   0.779   7.248 -0.2032  0.5556 -0.1564
20716SOL    HW169198  11.314   0.698   7.291  1.6078  1.2674  0.2053
20716SOL    HW269199  11.263   0.752   7.159 -1.7082 -0.6252  0.5739
20717SOL     OW69200  10.154   2.577   6.809  0.8009 -0.0603  0.6402
20717SOL    HW169201  10.073   2.526   6.814 -0.5992  2.0997  1.4320
20717SOL    HW269202  10.222   2.516   6.838 -0.8496 -1.3236  2.1362
20718SOL     OW69203   6.647   4.788   1.495 -0.1035 -0.9826  0.3233
20718SOL    HW169204   6.652   4.855   1.428 -1.5926 -2.9547 -1.9613
20718SOL    HW269205   6.596   4.828   1.566  1.4509  1.1377  0.3264
20719SOL     OW69206   9.872   7.003   3.665  0.1083 -0.2521  0.5595
20719SOL    HW169207   9.838   7.035   3.749  0.5321  1.4954  0.1123
20719SOL    HW269208   9.813   6.933   3.640  0.3184 -1.2422  2.6017
20720SOL     OW69209   5.716   9.050   2.437  0.0629  0.2735  0.0689
20720SOL    HW169210   5.688   9.121   2.380 -0.6463  0.0665  0.1564
20720SOL    HW269211   5.681   8.971   2.397 -0.4207  0.1263  0.7697
20721SOL     OW69212   0.752   4.978  11.840 -0.1382  0.6260 -0.0613
20721SOL    HW169213   0.714   5.041  11.901 -0.2290 -0.0382  0.5850
20721SOL    HW269214   0.840   5.011  11.821  0.2138  0.3870  1.1150
20722SOL     OW69215   8.990   7.148   8.819 -0.4378 -0.1910  0.1283
20722SOL    HW169216   8.951   7.187   8.741 -0.6601  0.9234  0.7691
20722SOL    HW269217   9.040   7.073   8.787 -2.0555 -0.9097 -0.8627
20723SOL     OW69218   0.773   8.797   2.968  0.1008  0.2946 -0.3459
20723SOL    HW169219   0.763   8.782   3.062 -2.7212  1.4428 -0.3526
20723SOL    HW269220   0.726   8.725   2.926  0.9270  0.0499 -0.8850
20724SOL     OW69221   6.441  10.956   4.058 -0.1787 -0.0368 -0.0663
20724SOL    HW169222   6.364  11.002   4.090 -0.1660  0.0015 -0.0901
20724SOL    HW269223   6.453  10.988   3.969  0.3410  0.5666  0.2137
20725SOL     OW69224   0.235  11.221   5.064  0.4478 -0.1211 -0.0367
20725SOL    HW169225   0.187  11.232   5.146  1.1328  0.3378  0.3197
20725SOL    HW269226   0.176  11.172   5.007  0.4109 -1.5430  1.1504
20726SOL     OW69227   8.271   2.870   0.335 -0.4846  0.3102 -0.3154
20726SOL    HW169228   8.280   2.963   0.316 -0.2428  0.4870  0.6362
20726SOL    HW269229   8.217   2.836   0.263  0.4795  0.9270 -1.3552
20727SOL     OW69230  11.233   8.667   7.954  0.0725 -0.1940  0.3527
20727SOL    HW169231  11.175   8.598   7.984 -1.0883 -1.4206 -4.0750
20727SOL    HW269232  11.177   8.744   7.942  0.5869  0.3873  1.4701
20728SOL     OW69233  12.037  11.166   0.910  0.4341  0.0188  0.0833
20728SOL    HW169234  11.955  11.147   0.865  0.6324  0.1518 -0.3445
20728SOL    HW269235  12.010  11.205   0.994  0.0626  0.7841 -0.3791
20729SOL     OW69236   6.975   7.774   0.010  0.1212  0.8007 -0.2579
20729SOL    HW169237   7.058   7.780  -0.037 -0.3835  4.0071 -1.0009
20729SOL    HW269238   6.990   7.822   0.091 -0.6471  0.3378  0.1653
20730SOL     OW69239   1.225   8.402   5.469  0.0674  0.5842 -0.4978
20730SOL    HW169240   1.245   8.354   5.550  0.2601  1.5590  0.0413
20730SOL    HW269241   1.256   8.344   5.399 -1.7423 -1.0900  0.0028
20731SOL     OW69242   1.086   1.458   5.159  0.5804  0.3520  0.0678
20731SOL    HW169243   1.158   1.495   5.107  0.8227 -1.3225 -0.8474
20731SOL    HW269244   1.126   1.437   5.243  1.1680 -0.4545 -0.3908
20732SOL     OW69245   9.380  12.163   9.112  0.8012 -0.0345 -0.0493
20732SOL    HW169246   9.412  12.128   9.195 -0.6949 -1.3407  0.0368
20732SOL    HW269247   9.319  12.232   9.137  1.4095  0.5346 -0.1197
20733SOL     OW69248   7.063   7.951   9.995 -0.4990 -0.7134  0.3285
20733SOL    HW169249   7.026   8.039   9.992  1.5571  0.2609  1.7340
20733SOL    HW269250   7.025   7.907   9.919 -1.6105  1.3513 -0.3924
20734SOL     OW69251   2.666   5.227   8.414 -0.3654 -0.5402 -0.1021
20734SOL    HW169252   2.742   5.271   8.451  0.7903 -1.6136 -1.1406
20734SOL    HW269253   2.694   5.137   8.400 -0.9229 -0.3499 -3.0260
20735SOL     OW69254   3.552  11.460   1.106  0.2532 -0.3055  0.1747
20735SOL    HW169255   3.465  11.439   1.141 -0.3053  2.3934  0.5890
20735SOL    HW269256   3.535  11.495   1.019  0.8644  0.5186  0.3693
20736SOL     OW69257   5.119  10.859   0.304 -0.0676 -0.7638  0.6261
20736SOL    HW169258   5.214  10.857   0.317 -0.1195 -1.2876  0.9634
20736SOL    HW269259   5.101  10.947   0.272  0.4933 -0.5578  0.8618
20737SOL     OW69260   1.683   9.160   0.707 -0.0672 -0.3416 -0.1960
20737SOL    HW169261   1.675   9.089   0.771 -0.0859  0.0993  0.3034
20737SOL    HW269262   1.773   9.154   0.675 -0.1502 -0.7561 -0.3536
20738SOL     OW69263   3.643   3.729  10.449 -0.2077 -0.4754 -0.5836
20738SOL    HW169264   3.650   3.809  10.502 -0.7276 -0.0935 -1.0713
20738SOL    HW269265   3.552   3.703  10.458  0.4240 -2.2996  1.3552
20739SOL     OW69266   0.856   6.187   2.284  0.0638 -0.9171 -0.0398
20739SOL    HW169267   0.892   6.252   2.223 -0.8012  0.2654  0.6723
20739SOL    HW269268   0.796   6.135   2.230 -1.6016  0.8752  0.0029
20740SOL     OW69269   2.731   3.503   3.303  0.1672  0.1168  0.6359
20740SOL    HW169270   2.795   3.557   3.257  0.6241 -0.4730  0.5740
20740SOL    HW269271   2.754   3.413   3.280 -0.7558 -0.0999  0.5212
20741SOL     OW69272   3.672  11.980   8.206  0.4334 -0.3811 -0.2285
20741SOL    HW169273   3.637  11.896   8.175 -1.7209  0.3720  0.0460
20741SOL    HW269274   3.726  12.011   8.132 -0.7287 -0.8663 -1.3183
20742SOL     OW69275  10.131   8.399   1.549 -0.1768 -0.3050  0.3816
20742SOL    HW169276  10.157   8.450   1.626  0.6357 -1.2745  0.7802
20742SOL    HW269277  10.178   8.316   1.559 -0.7250 -0.7673 -0.7327
20743SOL     OW69278   8.716  11.726  11.466 -0.1821  0.3952 -0.4526
20743SOL    HW169279   8.703  11.814  11.429  1.1543  0.9247  0.2619
20743SOL    HW269280   8.754  11.742  11.552  0.8432 -0.9082 -0.6390
20744SOL     OW69281  10.201   9.821   0.500  0.0870 -0.3583  0.1398
20744SOL    HW169282  10.154   9.855   0.424 -0.7243 -0.5190  0.5599
20744SOL    HW269283  10.267   9.762   0.463  0.2309  0.1726 -0.4769
20745SOL     OW69284   1.063   7.818  10.307  0.0258 -0.1740 -0.2462
20745SOL    HW169285   1.068   7.835  10.401  1.7779  2.0598 -0.6488
20745SOL    HW269286   0.990   7.872  10.276  0.5428  0.4603 -0.3859
20746SOL     OW69287   1.502   6.565   4.974  0.1266  0.3119  0.1588
20746SOL    HW169288   1.419   6.549   4.928 -1.3353 -0.1588  2.7619
20746SOL    HW269289   1.555   6.488   4.956 -1.1080 -0.6836  0.6224
20747SOL     OW69290  10.586   6.028   0.741  0.2685  0.2455  0.0790
20747SOL    HW169291  10.593   6.016   0.646 -1.5287  0.9469 -0.1833
20747SOL    HW269292  10.497   6.000   0.762  1.0936 -1.3526  1.8346
20748SOL     OW69293   4.628   1.064   3.348  0.2402  0.1050  0.3540
20748SOL    HW169294   4.668   1.039   3.265 -1.8327 -1.3053 -0.3000
20748SOL    HW269295   4.630   0.985   3.401 -1.4317  0.0165  0.3496
20749SOL     OW69296   9.081   2.924   3.655 -0.5376 -0.1196  0.0167
20749SOL    HW169297   9.111   3.003   3.699 -1.5675 -0.2494  0.9743
20749SOL    HW269298   9.142   2.856   3.683 -2.3213 -0.6613  2.9768
20750SOL     OW69299  11.893   8.174   0.568 -0.2127  0.7631 -0.3104
20750SOL    HW169300  11.900   8.164   0.663 -1.8380  0.6825 -0.1613
20750SOL    HW269301  11.865   8.264   0.555  0.6602  0.9792 -0.7724
20751SOL     OW69302   7.438   9.525   4.621 -0.4369  0.0666  0.2318
20751SOL    HW169303   7.497   9.498   4.551  0.6271  1.0020  0.7245
20751SOL    HW269304   7.389   9.446   4.643  1.0565 -0.9073  0.1971
20752SOL     OW69305  10.279   8.001   4.643 -0.1479 -0.7696 -0.3340
20752SOL    HW169306  10.251   8.031   4.557 -0.1977  0.6997  0.1612
20752SOL    HW269307  10.200   8.005   4.697  0.5048  1.5054  0.5748
20753SOL     OW69308   4.183   0.697   0.884  0.5302  0.0989  0.0010
20753SOL    HW169309   4.119   0.686   0.954  1.3034 -0.4443  0.6547
20753SOL    HW269310   4.150   0.770   0.832 -0.7992 -0.4051  0.0981
20754SOL     OW69311   6.496   6.344   5.367 -0.1949  0.3816 -0.3141
20754SOL    HW169312   6.456   6.414   5.316 -0.9491 -1.6113 -2.6235
20754SOL    HW269313   6.424   6.283   5.384  0.4064  0.1803  1.7932
20755SOL     OW69314   4.254   7.029   4.062  0.2015  0.1634  0.1467
20755SOL    HW169315   4.230   7.119   4.040 -0.1667  0.3525  1.2457
20755SOL    HW269316   4.324   7.007   4.000  0.6607  1.3879  0.2020
20756SOL     OW69317   0.438   2.509   0.545 -0.3650  0.0876 -0.6424
20756SOL    HW169318   0.368   2.447   0.523  0.4055 -1.1693  0.2948
20756SOL    HW269319   0.519   2.461   0.527  0.2574  0.5303  0.7867
20757SOL     OW69320   1.781   2.401   3.025  0.3011  0.1011  0.1946
20757SOL    HW169321   1.798   2.315   3.062  1.0008 -0.5965 -1.6377
20757SOL    HW269322   1.826   2.400   2.941 -1.3917  1.5050 -0.7877
20758SOL     OW69323  12.568  10.660   3.318  0.6062  0.0838 -0.2881
20758SOL    HW169324  12.582  10.754   3.321 -1.3995  0.3945  1.3234
20758SOL    HW269325  12.610  10.632   3.236  0.7284  2.4409 -1.0948
20759SOL     OW69326   6.473   7.318   4.144 -0.3406 -0.1139 -0.8423
20759SOL    HW169327   6.379   7.321   4.161 -0.4719  1.5517 -1.6855
20759SOL    HW269328   6.500   7.231   4.172 -2.0514 -0.4533 -0.1698
20760SOL     OW69329   8.696   1.367   0.266  0.3349  0.0752  0.4893
20760SOL    HW169330   8.718   1.284   0.223 -0.0115  0.1900  0.0794
20760SOL    HW269331   8.605   1.385   0.239  0.4038  0.5819  0.5740
20761SOL     OW69332  11.961  11.276   9.177 -0.2774  0.0885  0.4574
20761SOL    HW169333  11.976  11.228   9.096 -1.5898  0.8914 -0.3078
20761SOL    HW269334  12.009  11.358   9.166 -1.2178  0.6027  0.0625
20762SOL     OW69335  10.336   2.373  11.067 -0.0795 -0.1588 -0.4628
20762SOL    HW169336  10.296   2.402  10.984  1.8860 -0.2643 -1.5086
20762SOL    HW269337  10.363   2.283  11.050  1.4466  0.2119 -0.1642
20763SOL     OW69338   6.729   3.240   2.797  0.0610  0.5314 -0.0485
20763SOL    HW169339   6.643   3.198   2.790  0.0467  0.4691  0.5023
20763SOL    HW269340   6.726   3.286   2.881 -0.1173  2.0517 -0.8540
20764SOL     OW69341   1.829   5.766   6.266 -0.3802 -0.0374 -0.2421
20764SOL    HW169342   1.827   5.692   6.205 -1.0446 -1.1328  1.0640
20764SOL    HW269343   1.847   5.842   6.210 -0.4881 -1.0587 -1.7322
20765SOL     OW69344   7.217   5.700   2.019  0.1630 -0.1377 -0.7764
20765SOL    HW169345   7.308   5.724   2.036  0.3929 -1.9157  0.8769
20765SOL    HW269346   7.183   5.769   1.963  1.8250  1.8998  0.6034
20766SOL     OW69347   3.741  11.394   7.564 -0.4808  0.4318  0.1109
20766SOL    HW169348   3.784  11.434   7.639  0.1195  0.7611 -0.3974
20766SOL    HW269349   3.662  11.353   7.600 -1.3688  2.4306  0.6017
20767SOL     OW69350   0.892   2.011   6.108 -0.0634 -0.4400 -0.0865
20767SOL    HW169351   0.841   2.088   6.133  0.9455  0.3403 -0.3937
20767SOL    HW269352   0.828   1.940   6.107 -0.9548  0.3229  0.5006
20768SOL     OW69353   4.763   5.384   3.758 -0.1572 -0.4488 -0.1511
20768SOL    HW169354   4.747   5.294   3.730  1.4713 -0.7879 -0.0909
20768SOL    HW269355   4.853   5.402   3.733 -0.2789  0.9900  0.3235
20769SOL     OW69356   7.904  11.959  11.502 -0.4645  0.0521 -0.0252
20769SOL    HW169357   7.974  11.896  11.517  0.5681  1.5576  1.9182
20769SOL    HW269358   7.930  12.006  11.423  1.2330  1.1505  1.1230
20770SOL     OW69359  12.102   3.786   1.897 -0.3760  0.6720 -0.3775
20770SOL    HW169360  12.051   3.843   1.954  1.3236  0.4815  1.4116
20770SOL    HW269361  12.179   3.838   1.873  0.6181 -0.4373  0.3323
20771SOL     OW69362   9.626  10.920   5.390 -0.0801 -0.5338 -0.0406
20771SOL    HW169363   9.633  11.001   5.339 -0.9851 -0.4095  0.0178
20771SOL    HW269364   9.692  10.862   5.351  1.2928  0.5461  0.5713
20772SOL     OW69365   5.754   8.110   5.806  0.2220 -0.2304  0.2335
20772SOL    HW169366   5.723   8.066   5.727  1.1726  3.2623 -2.3132
20772SOL    HW269367   5.849   8.114   5.796  0.3570  0.4004  1.5126
20773SOL     OW69368   0.908   8.745   3.780  0.2273 -0.6735 -0.4251
20773SOL    HW169369   0.905   8.803   3.857 -0.1234  0.6500 -1.3977
20773SOL    HW269370   0.985   8.775   3.731 -1.0361  0.3008 -1.9086
20774SOL     OW69371  11.545  10.370  10.984  0.4975  0.0544  0.0053
20774SOL    HW169372  11.566  10.419  10.904  0.1192  1.2471  0.6104
20774SOL    HW269373  11.494  10.295  10.953 -0.9762  1.3065 -0.7696
20775SOL     OW69374   1.893   2.041  12.444  0.3033 -0.5328 -0.6834
20775SOL    HW169375   1.929   2.127  12.462  1.4820 -1.2096  0.3850
20775SOL    HW269376   1.966   1.981  12.460 -1.1213 -1.9273  1.0403
20776SOL     OW69377   5.291   0.116   3.328  0.4739  0.1450 -0.1894
20776SOL    HW169378   5.383   0.141   3.338  0.9935 -0.8011 -2.0534
20776SOL    HW269379   5.294   0.021   3.316 -1.0036 -0.2676  2.0072
20777SOL     OW69380   1.209   7.568  10.197  0.6316 -0.3556 -0.9295
20777SOL    HW169381   1.178   7.638  10.254  1.7928 -0.6216  0.0843
20777SOL    HW269382   1.166   7.584  10.113  0.1671  1.0297 -0.4557
20778SOL     OW69383   8.514   3.163   3.563 -0.4811  0.1739  0.4797
20778SOL    HW169384   8.595   3.112   3.566 -0.8008 -0.4820 -0.9163
20778SOL    HW269385   8.530   3.231   3.498 -0.6323  0.8477  1.1291
20779SOL     OW69386   0.549   1.393   0.416 -0.0877 -0.3740  0.0115
20779SOL    HW169387   0.602   1.426   0.344 -2.3247 -0.2692 -1.7054
20779SOL    HW269388   0.541   1.299   0.398 -0.1809 -0.4524  0.4563
20780SOL     OW69389  11.820  10.803   2.020 -0.4479  0.2604 -0.4102
20780SOL    HW169390  11.814  10.889   1.979  0.5012  0.0654 -1.0055
20780SOL    HW269391  11.730  10.782   2.046 -1.3591 -0.1288 -3.4931
20781SOL     OW69392   2.070   8.768   7.741  0.1975  0.0370  0.0443
20781SOL    HW169393   2.123   8.709   7.687 -0.2812  0.8407 -1.3553
20781SOL    HW269394   2.006   8.711   7.783 -0.3122 -0.4754 -1.3538
20782SOL     OW69395   5.283   6.459   0.785  0.5824 -0.4312  0.8290
20782SOL    HW169396   5.316   6.493   0.868  1.4341  0.0959  0.2981
20782SOL    HW269397   5.348   6.487   0.721 -0.5417 -0.0021 -0.1621
20783SOL     OW69398   8.471   4.483   9.788  0.1330 -0.3148 -0.6899
20783SOL    HW169399   8.531   4.416   9.755  0.2165  0.0689 -1.3341
20783SOL    HW269400   8.489   4.487   9.882  0.8481 -0.4850 -0.8111
20784SOL     OW69401   4.104   8.504   7.184  0.7255  0.0255  0.1064
20784SOL    HW169402   4.011   8.485   7.196  0.1448  0.5837 -2.6457
20784SOL    HW269403   4.113   8.594   7.216  0.3258 -0.0429  0.4283
20785SOL     OW69404   7.598   6.165   5.170 -0.0952 -0.6168 -0.3908
20785SOL    HW169405   7.551   6.111   5.106 -0.5311 -1.5630  0.6975
20785SOL    HW269406   7.604   6.110   5.248 -0.2175  0.7645  0.6325
20786SOL     OW69407  11.468   7.298   7.396 -0.1677 -0.0380  0.0816
20786SOL    HW169408  11.532   7.360   7.430 -0.0591 -0.5227  0.7828
20786SOL    HW269409  11.384   7.333   7.426 -0.4832  1.7820 -2.6409
20787SOL     OW69410   5.447   6.933   3.335 -0.1168  0.2411 -0.5089
20787SOL    HW169411   5.424   6.854   3.286 -0.1195  0.6964 -1.2588
20787SOL    HW269412   5.375   6.994   3.318  0.0431  0.5180 -0.2009
20788SOL     OW69413   7.839  12.588  11.001  0.0572 -0.0205 -0.6582
20788SOL    HW169414   7.798  12.502  10.988  0.4711 -0.2205 -0.6847
20788SOL    HW269415   7.933  12.568  11.005  0.0849  0.2913  0.5363
20789SOL     OW69416   3.297   1.894   2.292  0.5156 -0.2203  0.1818
20789SOL    HW169417   3.292   1.902   2.197  0.0997  0.5636  0.2640
20789SOL    HW269418   3.206   1.883   2.320  0.4699  1.0848  0.6056
20790SOL     OW69419   4.648   1.490   6.757  0.0773 -0.5278  0.0413
20790SOL    HW169420   4.656   1.518   6.666 -0.2165 -2.3463 -0.5886
20790SOL    HW269421   4.738   1.474   6.786  0.1643 -0.0219  0.0583
20791SOL     OW69422   3.341   1.597   4.085 -0.3348  0.5593  0.8001
20791SOL    HW169423   3.313   1.689   4.090  0.6231  0.8091  2.1763
20791SOL    HW269424   3.436   1.602   4.077 -0.4333 -0.3025 -1.7870
20792SOL     OW69425   0.522   5.872   0.140 -0.1534 -0.3745 -0.5459
20792SOL    HW169426   0.427   5.868   0.129 -0.3601  0.2576  0.7935
20792SOL    HW269427   0.550   5.941   0.081 -0.7565  0.5229  0.1786
20793SOL     OW69428   0.480   9.142   1.385  0.3945 -0.1325 -0.3621
20793SOL    HW169429   0.403   9.124   1.331  0.0678  0.1264  0.0132
20793SOL    HW269430   0.554   9.107   1.334  0.0619 -0.1421 -0.8455
20794SOL     OW69431   8.021   8.738   2.295 -0.0636 -0.0029  0.0219
20794SOL    HW169432   7.954   8.738   2.363  0.9408  1.5259  1.1061
20794SOL    HW269433   8.004   8.817   2.244 -0.9476 -1.2555 -1.7132
20795SOL     OW69434   3.069   5.384   9.217  0.1686 -0.2692  0.1018
20795SOL    HW169435   3.092   5.311   9.160  2.1698  1.0972 -0.9742
20795SOL    HW269436   3.132   5.453   9.194 -1.3351  1.6380  1.3754
20796SOL     OW69437  11.587   2.016   6.500  0.2518 -0.1482  0.4190
20796SOL    HW169438  11.552   2.074   6.567  1.8871 -0.8661  1.9662
20796SOL    HW269439  11.625   2.074   6.434 -0.2715  0.5507  0.7315
20797SOL     OW69440   9.788  11.691   4.707 -0.2049  0.1150 -0.2882
20797SOL    HW169441   9.784  11.606   4.664  0.0038 -0.0829  0.0779
20797SOL    HW269442   9.875  11.725   4.686  1.6536 -1.8030  3.3182
20798SOL     OW69443   4.345  12.188   7.923 -0.6535  0.1638 -0.2353
20798SOL    HW169444   4.403  12.112   7.936  0.0406  0.6934 -0.2114
20798SOL    HW269445   4.360  12.242   8.001  0.5172  1.4038 -1.2800
20799SOL     OW69446   0.039   9.001   9.817 -0.7157 -0.3954  0.2984
20799SOL    HW169447   0.129   8.974   9.801 -0.7033  0.8280 -2.2533
20799SOL    HW269448   0.045   9.070   9.882 -0.0960 -1.7940  1.8052
20800SOL     OW69449  11.522   5.598   5.162  0.0002 -0.0836  0.4432
20800SOL    HW169450  11.565   5.683   5.160  1.0051 -0.5722  0.7557
20800SOL    HW269451  11.484   5.589   5.074 -2.7268  1.9366  1.2609
20801SOL     OW69452   7.722   4.779   4.861  0.0919 -0.0416  0.3136
20801SOL    HW169453   7.727   4.735   4.946  0.2340  3.3193  2.2148
20801SOL    HW269454   7.746   4.711   4.798 -1.2618 -3.0557  2.7654
20802SOL     OW69455   0.443  11.271   9.828 -1.1637 -0.0771 -0.5072
20802SOL    HW169456   0.444  11.176   9.828  1.9578 -0.1454 -1.6802
20802SOL    HW269457   0.406  11.295   9.913  0.2255 -2.3644  0.8507
20803SOL     OW69458   0.811   6.196   2.560 -0.2601  0.4337 -0.4475
20803SOL    HW169459   0.798   6.149   2.478 -0.5420 -0.1627 -0.0665
20803SOL    HW269460   0.735   6.174   2.613  0.2670  0.2359  0.2430
20804SOL     OW69461  10.844   5.270   1.474  0.1187  0.2424 -0.0989
20804SOL    HW169462  10.801   5.347   1.511  0.2928  0.0723  0.4630
20804SOL    HW269463  10.936   5.278   1.500 -0.2631 -1.3350  2.0311
20805SOL     OW69464   6.487   0.572   3.469  0.3314 -0.2130  0.2241
20805SOL    HW169465   6.451   0.569   3.558 -0.6586 -1.0798 -0.1803
20805SOL    HW269466   6.431   0.513   3.419 -0.8365  2.3102 -1.6276
20806SOL     OW69467   8.162   7.252  11.833 -0.4435  0.2174  0.6013
20806SOL    HW169468   8.172   7.157  11.841 -0.7070  0.0902 -0.3807
20806SOL    HW269469   8.233   7.288  11.887  0.8196 -0.5783 -0.4460
20807SOL     OW69470  10.922  11.335  10.947 -0.2871 -0.3339 -0.2926
20807SOL    HW169471  10.954  11.393  10.878 -0.8141  0.4667  0.1224
20807SOL    HW269472  10.924  11.389  11.026  0.1436 -1.1859  0.2936
20808SOL     OW69473   3.982   9.696   0.068  0.1545  0.6149 -0.3098
20808SOL    HW169474   4.029   9.662  -0.008  0.6871  0.5124  0.0593
20808SOL    HW269475   4.049   9.705   0.136 -0.7568 -2.1319  1.1400
20809SOL     OW69476   7.053  11.818   8.535  0.0000  0.1770 -0.6019
20809SOL    HW169477   7.050  11.819   8.440  0.5014  1.4341 -0.6231
20809SOL    HW269478   7.031  11.908   8.561  0.3732 -0.0160  0.4477
20810SOL     OW69479   3.228   6.990   5.839 -0.1060 -0.6578 -0.0920
20810SOL    HW169480   3.278   6.909   5.826 -1.5882 -1.6989  0.4561
20810SOL    HW269481   3.253   7.020   5.926 -2.0427 -2.3964  1.1150
20811SOL     OW69482  11.668   1.803   3.155 -1.0446  0.3419 -0.0363
20811SOL    HW169483  11.701   1.876   3.207  3.1721  0.2326 -2.0877
20811SOL    HW269484  11.624   1.845   3.081  0.0868  0.8241 -0.4600
20812SOL     OW69485   5.005  12.519   4.634  0.3365 -0.6498  0.3889
20812SOL    HW169486   4.956  12.549   4.557 -0.8816 -0.2531  1.3022
20812SOL    HW269487   5.021  12.598   4.685 -1.9473 -1.3089  2.2779
20813SOL     OW69488   4.089   0.160   7.571  0.8590  0.1878  0.4684
20813SOL    HW169489   3.998   0.131   7.581  1.4836 -1.4467  1.8039
20813SOL    HW269490   4.088   0.251   7.603 -0.2265  0.0720  0.8121
20814SOL     OW69491   8.531   1.949   9.305 -0.4371 -0.3457  0.1268
20814SOL    HW169492   8.523   2.034   9.347  0.9919 -0.9015  1.6766
20814SOL    HW269493   8.602   1.960   9.242 -0.6482 -0.2411 -0.0926
20815SOL     OW69494   1.645  11.366   7.008 -0.0800 -0.5652 -0.3318
20815SOL    HW169495   1.681  11.376   7.096 -0.9744 -2.6702  0.3210
20815SOL    HW269496   1.582  11.438   7.000 -1.1260 -1.2294  1.3781
20816SOL     OW69497   2.317   1.091  10.010  0.2563  0.0718  0.1957
20816SOL    HW169498   2.393   1.122   9.960 -0.2427 -0.6084 -1.0225
20816SOL    HW269499   2.312   1.151  10.085  2.2476 -0.1349  0.5486
20817SOL     OW69500   8.648   4.501   6.389  0.1994  0.3454 -0.1298
20817SOL    HW169501   8.659   4.427   6.329  0.7678  0.2837  0.0492
20817SOL    HW269502   8.673   4.578   6.338  0.4766  0.3163 -0.0367
20818SOL     OW69503   2.442  10.462   7.041 -0.6313  0.1215  0.3122
20818SOL    HW169504   2.466  10.392   7.100  0.8662  0.5703  0.2671
20818SOL    HW269505   2.351  10.482   7.063 -1.7153 -2.9845 -0.8693
20819SOL     OW69506   5.396   1.629   5.884  0.1573 -0.2275  0.0223
20819SOL    HW169507   5.470   1.572   5.906 -0.4397 -1.3022 -0.6531
20819SOL    HW269508   5.398   1.635   5.789 -1.1225 -1.0044 -0.0760
20820SOL     OW69509   4.053   9.496   2.852 -0.6598  0.0900 -0.2376
20820SOL    HW169510   3.982   9.444   2.890 -1.5292  1.5147  0.1531
20820SOL    HW269511   4.046   9.581   2.894  2.2003 -0.1133  0.8778
20821SOL     OW69512   8.620  11.866   4.929 -0.1989  0.0617 -0.0838
20821SOL    HW169513   8.649  11.781   4.963  0.9309  0.7479  0.7699
20821SOL    HW269514   8.688  11.927   4.957 -0.4240  1.0780 -1.6276
20822SOL     OW69515  11.120   5.235   4.147  0.1361  0.0851  0.6042
20822SOL    HW169516  11.171   5.309   4.115  1.9526 -0.6776  1.6080
20822SOL    HW269517  11.035   5.244   4.104  1.1058  1.4050 -1.1562
20823SOL     OW69518   7.300   2.117   7.925 -0.8181  0.2315 -0.1568
20823SOL    HW169519   7.356   2.168   7.983  0.4618 -0.9359 -0.3059
20823SOL    HW269520   7.246   2.182   7.881 -1.4182  1.1945  1.8772
20824SOL     OW69521   0.162  10.707   5.591  0.2293  0.3999 -0.1040
20824SOL    HW169522   0.227  10.739   5.654  1.3706 -0.6009 -0.7431
20824SOL    HW269523   0.080  10.707   5.640  0.6325  1.9475  0.6421
20825SOL     OW69524   3.185   7.870   3.928  0.3615 -0.1841  0.3719
20825SOL    HW169525   3.210   7.848   4.017  1.1332  0.5155  0.3374
20825SOL    HW269526   3.252   7.829   3.873 -1.3192 -2.5448 -0.0763
20826SOL     OW69527   4.081   0.073   4.913 -0.3757  0.3781  0.5027
20826SOL    HW169528   4.040   0.002   4.863 -1.0289  0.8538  0.3592
20826SOL    HW269529   4.035   0.152   4.885  0.7466  0.9552  0.2142
20827SOL     OW69530   8.813   7.210  10.941  0.4793 -0.2485  0.5344
20827SOL    HW169531   8.795   7.126  10.982  0.3133 -0.6069 -0.2566
20827SOL    HW269532   8.731   7.258  10.948  0.8624  0.2599  1.9035
20828SOL     OW69533  11.128   0.472   0.207  0.0441  0.4071 -0.1132
20828SOL    HW169534  11.063   0.417   0.164  0.9703 -0.8875  0.0767
20828SOL    HW269535  11.124   0.445   0.299 -0.9718  2.1949  0.4160
20829SOL     OW69536   7.412   2.031   9.348 -0.5477  0.6042  0.3700
20829SOL    HW169537   7.464   2.091   9.401  0.8532 -0.5796  0.4402
20829SOL    HW269538   7.374   2.085   9.279 -0.5092  1.7826  1.2557
20830SOL     OW69539   2.171  11.202   1.180 -0.1495  0.3803  0.0950
20830SOL    HW169540   2.168  11.228   1.088  0.4569  1.0421  0.2551
20830SOL    HW269541   2.151  11.108   1.179  0.4960  0.2370 -0.7794
20831SOL     OW69542   3.261   7.327   5.541 -0.0860  0.1382  0.5666
20831SOL    HW169543   3.229   7.237   5.553  0.8154 -0.2406  0.2197
20831SOL    HW269544   3.192   7.370   5.489  0.8654 -1.2750 -2.0880
20832SOL     OW69545   7.447   9.675   9.044 -0.4961  0.1033  0.0211
20832SOL    HW169546   7.470   9.583   9.030  1.3416  0.6428 -0.8377
20832SOL    HW269547   7.437   9.683   9.139 -0.7332 -0.9965  0.1004
20833SOL     OW69548   5.564   9.478   4.804 -0.1470 -0.0781 -0.4475
20833SOL    HW169549   5.519   9.429   4.872 -1.0493  1.7014  0.3025
20833SOL    HW269550   5.627   9.533   4.851  0.5723 -0.1994 -1.2333
20834SOL     OW69551   0.329   2.169   2.846 -0.3289  0.3420  0.0522
20834SOL    HW169552   0.386   2.101   2.809 -0.7301 -0.2444  0.4854
20834SOL    HW269553   0.240   2.139   2.826 -0.4892  1.3464 -0.7860
20835SOL     OW69554  10.979   0.158   2.502 -0.8389 -0.4445 -0.0882
20835SOL    HW169555  10.974   0.118   2.415 -0.4248 -1.0992  0.1739
20835SOL    HW269556  11.073   0.159   2.522 -0.6288  2.4788 -0.8766
20836SOL     OW69557  11.766  11.075  12.360 -0.1614  0.6560  0.4664
20836SOL    HW169558  11.779  11.006  12.294  0.5220 -0.0131  1.2739
20836SOL    HW269559  11.724  11.146  12.312 -0.3332 -0.0881 -0.5308
20837SOL     OW69560   7.803  11.335   2.190  0.5093  0.6898 -0.2356
20837SOL    HW169561   7.804  11.241   2.174 -1.7140  0.6882 -0.6751
20837SOL    HW269562   7.802  11.375   2.103  4.7145  1.3340 -0.1629
20838SOL     OW69563  12.362   5.372   6.636 -0.1897 -0.2401  0.5917
20838SOL    HW169564  12.349   5.412   6.722 -0.0441  1.9528 -0.3568
20838SOL    HW269565  12.440   5.414   6.601 -1.3104  0.3332 -1.3709
20839SOL     OW69566   3.086  11.741   9.392  0.1331 -0.2054 -0.1742
20839SOL    HW169567   3.069  11.827   9.431  1.5001  0.0483 -0.0844
20839SOL    HW269568   3.007  11.690   9.410  0.0132  0.4731  1.3476
20840SOL     OW69569   8.401   5.869   6.454  0.1330 -0.0736 -0.2510
20840SOL    HW169570   8.362   5.956   6.446  1.0334  0.2048 -1.7914
20840SOL    HW269571   8.326   5.812   6.473 -0.7687  0.7345 -1.2420
20841SOL     OW69572   6.174   2.129   3.103  0.0011 -0.6172 -0.1907
20841SOL    HW169573   6.178   2.044   3.060  1.6612  0.0681 -1.5076
20841SOL    HW269574   6.251   2.132   3.159 -0.7120 -0.4414  0.8091
20842SOL     OW69575   8.993   2.298   3.681  0.4166 -0.3244 -0.1535
20842SOL    HW169576   9.053   2.229   3.710  0.9487  0.7875  1.5682
20842SOL    HW269577   8.959   2.267   3.598 -1.0956 -3.7261  1.5511
20843SOL     OW69578  12.495   5.489  11.682 -0.2462 -0.2795  0.0061
20843SOL    HW169579  12.581   5.467  11.644  0.0462  2.6332 -1.2731
20843SOL    HW269580  12.440   5.414  11.661  1.9293 -2.2369  0.8545
20844SOL     OW69581   4.158   6.267   0.588  0.0211 -0.4335  0.0499
20844SOL    HW169582   4.229   6.323   0.619 -1.6692  1.3670  0.8233
20844SOL    HW269583   4.118   6.233   0.668  0.3398 -1.9711 -0.3896
20845SOL     OW69584  12.000   3.921   0.864 -0.1161 -0.3427  0.1052
20845SOL    HW169585  11.905   3.913   0.879 -0.0319  0.1532  1.0086
20845SOL    HW269586  12.011   4.010   0.831  0.0186 -0.4746 -0.2105
20846SOL     OW69587   9.095   5.370  10.511  0.0922 -0.3117 -0.0745
20846SOL    HW169588   9.091   5.284  10.553  0.7608 -0.4101 -0.1935
20846SOL    HW269589   9.033   5.424  10.560 -1.1784 -1.1592 -0.7061
20847SOL     OW69590   6.416   3.357   3.605 -0.4424 -0.0966 -0.0751
20847SOL    HW169591   6.366   3.438   3.607 -2.2899 -0.9688 -3.4530
20847SOL    HW269592   6.491   3.377   3.548 -0.2025 -0.4271  0.1199
20848SOL     OW69593   1.605   3.065   4.890  0.0589 -0.3340 -0.1417
20848SOL    HW169594   1.654   2.983   4.896  1.2439  0.4329  1.1987
20848SOL    HW269595   1.667   3.127   4.850 -1.2280 -0.3477 -2.3246
20849SOL     OW69596   3.422  11.273   6.623 -0.3948 -0.0199  0.1011
20849SOL    HW169597   3.347  11.219   6.598  0.1423 -1.4381  1.3365
20849SOL    HW269598   3.460  11.302   6.541 -2.6212  1.2724 -0.5676
20850SOL     OW69599   4.062  11.815   5.624 -0.1628 -0.1181 -0.2256
20850SOL    HW169600   4.066  11.734   5.573 -0.5875 -0.3974  0.1739
20850SOL    HW269601   4.154  11.837   5.641  0.0663  0.7851 -2.3442
20851SOL     OW69602   2.622   9.962   3.374  0.2411  0.2480  0.7398
20851SOL    HW169603   2.676   9.957   3.453  1.0712 -0.0867  0.1684
20851SOL    HW269604   2.670  10.022   3.317  0.7458 -1.1098 -0.3125
20852SOL     OW69605   3.232   7.556  10.451  0.2061  0.1297  1.0621
20852SOL    HW169606   3.294   7.485  10.436 -0.7503 -0.4808 -0.0314
20852SOL    HW269607   3.243   7.577  10.544  0.4334 -1.4950  1.4275
20853SOL     OW69608   5.855   3.881   3.126  0.2954 -0.2392 -0.1567
20853SOL    HW169609   5.769   3.860   3.089 -0.4203  0.5383  1.0228
20853SOL    HW269610   5.837   3.941   3.198  1.7364 -0.8220  0.7505
20854SOL     OW69611   8.697  11.949   4.651 -0.4582 -0.4231  0.0049
20854SOL    HW169612   8.677  11.918   4.739  0.8341 -2.0705 -0.2313
20854SOL    HW269613   8.750  12.028   4.665 -0.4289 -0.5606  0.7023
20855SOL     OW69614  12.521   8.384   5.343 -0.3064 -0.0570 -0.4284
20855SOL    HW169615  12.545   8.315   5.281 -0.5403 -1.2920  0.8048
20855SOL    HW269616  12.465   8.340   5.407 -0.0227  1.1526  0.6901
20856SOL     OW69617   6.723   8.451   5.375  0.3336 -0.3374 -0.4683
20856SOL    HW169618   6.662   8.378   5.367 -1.7207  1.0647  1.0053
20856SOL    HW269619   6.677   8.525   5.336  1.6415  0.5277 -0.4392
20857SOL     OW69620   4.443   2.063   8.690 -0.3011 -0.1216  0.6577
20857SOL    HW169621   4.367   2.020   8.651  0.9695 -0.8838 -1.1379
20857SOL    HW269622   4.413   2.153   8.707 -1.4099 -0.1856 -0.7219
20858SOL     OW69623   1.910  11.202   5.970  0.4576  0.2348  0.1813
20858SOL    HW169624   1.919  11.118   5.925 -0.5278  0.6087 -0.7610
20858SOL    HW269625   1.964  11.262   5.919 -1.7282  0.9683 -1.4262
20859SOL     OW69626  11.046   6.145  12.023  0.6637  0.2344 -0.4888
20859SOL    HW169627  10.962   6.158  12.068  0.6526 -1.5600  0.0736
20859SOL    HW269628  11.101   6.216  12.055 -0.2850  0.7603  0.0321
20860SOL     OW69629   6.262   2.183   6.755  0.5420 -0.0528 -0.0985
20860SOL    HW169630   6.296   2.184   6.844 -1.1228 -0.2265  0.5771
20860SOL    HW269631   6.339   2.164   6.700  1.3192 -1.5714  1.4222
20861SOL     OW69632   9.450  10.635   2.000 -0.1120  0.3417 -0.6157
20861SOL    HW169633   9.524  10.576   2.015 -1.2824 -0.4383  3.1864
20861SOL    HW269634   9.489  10.723   2.001  0.7587  0.0496  2.7521
20862SOL     OW69635  11.764   4.154   2.163 -0.2136  0.3643  0.6994
20862SOL    HW169636  11.842   4.123   2.117  0.9490  1.6574  1.7170
20862SOL    HW269637  11.787   4.242   2.193 -0.9555 -0.3436  3.5990
20863SOL     OW69638   2.276  12.081   3.104  0.3065 -0.3426 -0.5945
20863SOL    HW169639   2.239  12.008   3.054  2.3291 -1.7443 -0.1405
20863SOL    HW269640   2.370  12.063   3.109  0.4560  0.6535  2.1825
20864SOL     OW69641  11.500   2.140  11.580  0.1422  0.1550 -0.0729
20864SOL    HW169642  11.447   2.129  11.501 -0.9727 -1.9894  0.8926
20864SOL    HW269643  11.512   2.234  11.588 -2.9513  0.7074 -0.7553
20865SOL     OW69644   6.049   0.717   7.875 -0.4057  0.1632  0.2057
20865SOL    HW169645   6.054   0.728   7.780 -3.5322  0.7596  0.0284
20865SOL    HW269646   6.055   0.806   7.910  2.3268 -0.1491  0.7827
20866SOL     OW69647   2.210  10.796   6.876  0.2397 -0.1409  0.2705
20866SOL    HW169648   2.182  10.887   6.871 -0.9985 -0.4391  1.1790
20866SOL    HW269649   2.155  10.750   6.813  0.1269 -0.4171  0.5651
20867SOL     OW69650   5.970   3.401   5.789  0.4367  0.0579 -0.8226
20867SOL    HW169651   5.935   3.419   5.876 -1.5613  0.6290 -1.6868
20867SOL    HW269652   6.042   3.464   5.778 -0.5931  1.3443 -0.3323
20868SOL     OW69653   9.425   4.723   8.813 -0.2761  0.4725 -0.0606
20868SOL    HW169654   9.500   4.758   8.765  0.2480  0.2112  0.5487
20868SOL    HW269655   9.359   4.708   8.746  0.1909  0.7772 -0.6012
20869SOL     OW69656   7.975   4.967   4.213 -0.2700  0.2115  0.1864
20869SOL    HW169657   8.024   4.946   4.133  1.6607 -0.2675  1.4071
20869SOL    HW269658   8.013   5.050   4.243  0.4948 -0.6364  1.6567
20870SOL     OW69659   2.224   7.288   2.606 -0.0859  0.2436  0.1561
20870SOL    HW169660   2.180   7.251   2.529  0.0347  4.0573 -1.9808
20870SOL    HW269661   2.165   7.268   2.679 -1.0936 -1.9694 -1.1670
20871SOL     OW69662   3.475   9.122   7.570  0.3547 -0.3300  0.1342
20871SOL    HW169663   3.419   9.196   7.546 -1.1450 -1.1411  0.9542
20871SOL    HW269664   3.507   9.088   7.487 -0.8966 -0.2104 -0.4234
20872SOL     OW69665   6.453  11.774   4.822 -0.2339  0.6268 -0.1442
20872SOL    HW169666   6.460  11.706   4.889 -1.7553  0.1410 -0.4331
20872SOL    HW269667   6.441  11.725   4.740  0.4395  1.2286 -0.6090
20873SOL     OW69668  10.040   8.279   3.258  0.4419 -0.0927  0.1011
20873SOL    HW169669   9.972   8.311   3.198  0.5449 -1.5821 -0.8472
20873SOL    HW269670  10.117   8.331   3.237  0.4031 -0.4225 -0.8780
20874SOL     OW69671  10.081   6.658  10.498 -0.1238  0.0622 -0.1981
20874SOL    HW169672  10.126   6.685  10.578  0.4418  0.7304 -0.7282
20874SOL    HW269673  10.028   6.733  10.473 -2.0310 -0.9073  0.7186
20875SOL     OW69674  10.980   0.772   2.590 -0.8326 -0.0081 -0.0283
20875SOL    HW169675  10.991   0.677   2.595  0.2280  0.1348  0.7001
20875SOL    HW269676  10.886   0.785   2.578 -0.9969 -1.1423 -0.0558
20876SOL     OW69677   1.262  10.930   0.382 -0.4751 -0.0808 -0.1469
20876SOL    HW169678   1.217  10.940   0.466 -1.8674  2.6731 -1.0944
20876SOL    HW269679   1.192  10.926   0.318  0.5223  1.8919 -1.4720
20877SOL     OW69680   9.088   1.545   2.145  0.1926  0.1833  0.1562
20877SOL    HW169681   9.090   1.482   2.072  0.6147 -0.1967  0.4948
20877SOL    HW269682   9.017   1.514   2.201  0.9701 -0.5025  0.7737
20878SOL     OW69683  11.617  11.401   8.846 -0.3495  0.1517  0.1708
20878SOL    HW169684  11.621  11.448   8.762  0.2043 -0.4471 -0.1456
20878SOL    HW269685  11.690  11.436   8.897  0.3000 -0.6282 -0.2106
20879SOL     OW69686   4.852   6.928   5.326 -0.5380  0.3636  1.2067
20879SOL    HW169687   4.810   7.013   5.314 -1.7237 -0.1868  1.3329
20879SOL    HW269688   4.780   6.867   5.341 -0.0118 -1.2386 -1.9337
20880SOL     OW69689   8.099   4.943   1.154  0.3407  0.3495 -0.5556
20880SOL    HW169690   8.156   4.874   1.120  0.6367  0.5103 -0.3983
20880SOL    HW269691   8.129   4.957   1.244 -0.2695  0.0991 -0.3066
20881SOL     OW69692   9.501   1.920   1.046  0.5746 -0.0965  0.1206
20881SOL    HW169693   9.439   1.943   1.115  0.6887  0.1482  0.1408
20881SOL    HW269694   9.575   1.978   1.060  0.4368  0.2216 -0.4443
20882SOL     OW69695  11.905   2.574  10.632 -0.2721  0.1130  0.4322
20882SOL    HW169696  11.993   2.571  10.670 -0.0219 -0.0885 -0.1460
20882SOL    HW269697  11.852   2.517  10.687 -0.3706  1.3020  1.6021
20883SOL     OW69698   1.584   5.149   9.454  0.1889  0.0104  0.0861
20883SOL    HW169699   1.622   5.227   9.495 -0.5667 -0.7357  2.3657
20883SOL    HW269700   1.643   5.078   9.480  1.3044 -0.1382 -2.6102
20884SOL     OW69701  12.263   0.581   5.188  0.0458  0.2037  0.2228
20884SOL    HW169702  12.174   0.555   5.164  0.2870 -1.5451  1.0476
20884SOL    HW269703  12.310   0.588   5.105 -0.4199 -0.6656 -0.1224
20885SOL     OW69704   6.997  10.429   4.646  0.6083  0.1016  0.2540
20885SOL    HW169705   6.903  10.443   4.649  0.7058  1.0317 -0.3328
20885SOL    HW269706   7.021  10.404   4.735 -0.2199 -0.3503  0.3523
20886SOL     OW69707   5.059  12.383   3.431 -0.0700  0.3601 -0.0003
20886SOL    HW169708   4.978  12.333   3.427  0.1236  0.0511 -0.1051
20886SOL    HW269709   5.082  12.386   3.524 -0.5604  1.0323  0.1047
20887SOL     OW69710   0.354   0.883   9.034 -0.0061  0.6663 -0.3259
20887SOL    HW169711   0.385   0.892   9.124 -1.5467  0.0540  0.2846
20887SOL    HW269712   0.405   0.949   8.985  2.6990 -0.6971  0.4574
20888SOL     OW69713   5.874   5.831   5.005 -0.0226 -0.3318  0.1754
20888SOL    HW169714   5.964   5.800   5.017 -0.4219 -1.3983  0.4794
20888SOL    HW269715   5.862   5.832   4.910  0.7347  1.1293  0.0547
20889SOL     OW69716   2.168   5.860   1.929  0.1707 -0.0289  0.1169
20889SOL    HW169717   2.199   5.921   1.862 -0.7482 -0.7430 -1.0080
20889SOL    HW269718   2.148   5.780   1.880 -2.5904  0.1159  0.8762
20890SOL     OW69719   4.442   0.689   0.945  0.6962  0.3476 -0.3797
20890SOL    HW169720   4.473   0.653   0.861  0.8331 -1.3087  0.3496
20890SOL    HW269721   4.349   0.708   0.930  0.9038  0.8427 -1.1355
20891SOL     OW69722   4.438   9.422  11.872  0.1488 -0.1724 -0.5002
20891SOL    HW169723   4.475   9.462  11.951 -0.9685 -0.3639  0.1427
20891SOL    HW269724   4.474   9.474  11.800 -0.7039  1.5970  0.2689
20892SOL     OW69725  12.047   8.226   3.008  1.0939  0.4604 -0.7764
20892SOL    HW169726  11.962   8.265   2.985  0.8239 -0.1088 -0.7567
20892SOL    HW269727  12.109   8.299   3.004  0.6655  0.8064 -1.1545
20893SOL     OW69728   6.427   5.286   1.142  0.1426 -0.2693 -0.1213
20893SOL    HW169729   6.338   5.255   1.158 -0.2903  0.2109 -1.5061
20893SOL    HW269730   6.447   5.258   1.053  1.1488  0.1888 -0.0530
20894SOL     OW69731   8.880   9.473   5.989 -0.5350 -0.3111  0.2657
20894SOL    HW169732   8.849   9.506   6.073 -2.2668 -1.4103  0.1112
20894SOL    HW269733   8.872   9.548   5.929 -0.3729  0.1508  0.8127
20895SOL     OW69734   4.970   2.961   7.331 -0.0363  0.1337  0.2053
20895SOL    HW169735   4.976   3.041   7.280 -1.0315  0.9326  1.2840
20895SOL    HW269736   4.884   2.965   7.372 -0.2534 -1.6673  0.0144
20896SOL     OW69737  10.500   4.790   5.421  0.0128 -0.1440 -0.2756
20896SOL    HW169738  10.441   4.804   5.347 -1.6547  2.3265  1.3763
20896SOL    HW269739  10.450   4.736   5.482  0.9798 -1.2598 -0.4277
20897SOL     OW69740   9.063   5.134   8.165 -0.1361  0.6699  0.1529
20897SOL    HW169741   9.158   5.140   8.164 -0.1644  2.0621  1.5987
20897SOL    HW269742   9.035   5.207   8.221 -1.9324 -1.1658  1.8130
20898SOL     OW69743  12.224   8.245   5.199  0.6757  0.0564  0.3608
20898SOL    HW169744  12.310   8.203   5.196  0.8419  0.3405  0.8902
20898SOL    HW269745  12.180   8.203   5.273  0.3305 -0.1396  0.0443
20899SOL     OW69746   8.259   7.421  11.181  0.1353 -0.0472  0.1414
20899SOL    HW169747   8.329   7.385  11.235  0.2120  0.9300  0.7344
20899SOL    HW269748   8.193   7.449  11.245 -0.3800 -0.1151 -0.3559
20900SOL     OW69749   8.499   6.048   3.261  0.2624  0.2586  0.3261
20900SOL    HW169750   8.592   6.038   3.281  0.8229  1.1196 -1.5987
20900SOL    HW269751   8.468   6.114   3.322  1.1702  0.7167  0.3116
20901SOL     OW69752   8.809   3.849  10.048  0.0380  0.2489  0.5177
20901SOL    HW169753   8.812   3.786  10.120  1.9691  0.7759  0.9357
20901SOL    HW269754   8.879   3.822   9.989 -0.6104  0.6632 -0.4814
20902SOL     OW69755   2.457   2.720   3.580  0.7060 -0.0550  0.1200
20902SOL    HW169756   2.500   2.767   3.651 -0.0181  0.5506  0.1722
20902SOL    HW269757   2.399   2.785   3.540 -2.1082 -1.4227  1.6456
20903SOL     OW69758   9.945   7.203   0.637  0.1917 -0.4512  0.4098
20903SOL    HW169759   9.904   7.260   0.702 -1.3529 -0.6269 -0.3583
20903SOL    HW269760   9.968   7.124   0.686  1.1255  0.2898  1.2000
20904SOL     OW69761   0.588   2.605   2.481  0.3686  0.1552  0.4041
20904SOL    HW169762   0.576   2.521   2.525 -0.3825  0.7430  1.3490
20904SOL    HW269763   0.507   2.619   2.433  0.9664 -0.2138 -0.7565
20905SOL     OW69764   7.922   2.569   5.353 -0.0663  0.4749  0.1420
20905SOL    HW169765   7.841   2.613   5.326  0.9404  1.8689 -0.7796
20905SOL    HW269766   7.928   2.493   5.295  0.6629  1.9261 -1.8151
20906SOL     OW69767   2.159   2.597   3.875 -0.6175  0.0315  0.4054
20906SOL    HW169768   2.098   2.529   3.848  0.0629 -1.0971  1.6329
20906SOL    HW269769   2.128   2.676   3.830 -0.6741 -1.2984 -2.0751
20907SOL     OW69770  11.237   3.061   9.452  0.5448  0.6879  0.0967
20907SOL    HW169771  11.306   3.056   9.518  0.4304  1.1904  0.2581
20907SOL    HW269772  11.191   2.978   9.459  1.3005  0.2324 -0.1962
20908SOL     OW69773   9.286   0.232   2.782  0.0239 -0.5135  0.2701
20908SOL    HW169774   9.363   0.288   2.781 -1.4496  1.6031 -0.3663
20908SOL    HW269775   9.219   0.284   2.826 -1.5633 -1.5422 -0.8268
20909SOL     OW69776   7.690   6.355   0.471 -0.4590 -0.3949 -0.2411
20909SOL    HW169777   7.750   6.326   0.403  0.3424  0.4553  0.0789
20909SOL    HW269778   7.633   6.418   0.427  0.8736  1.1312  0.1115
20910SOL     OW69779  10.342   8.436   9.885  0.1657  0.0247 -0.0867
20910SOL    HW169780  10.411   8.497   9.913  0.1585  0.6255 -1.3346
20910SOL    HW269781  10.286   8.487   9.827 -1.0789 -0.5913  0.5260
20911SOL     OW69782   6.828   0.846  11.331  0.2504 -0.4506 -0.3792
20911SOL    HW169783   6.759   0.786  11.302 -0.7661 -0.4390  1.8327
20911SOL    HW269784   6.783   0.929  11.345  0.6592 -0.4713  1.1913
20912SOL     OW69785   6.706  12.087  10.635 -0.2732  0.3881 -0.3838
20912SOL    HW169786   6.622  12.126  10.611  0.0887  1.3268 -0.1740
20912SOL    HW269787   6.771  12.137  10.586  0.1777 -0.2720 -0.4774
20913SOL     OW69788   4.993   4.976   9.097  0.1200 -0.2506 -0.4962
20913SOL    HW169789   5.071   4.928   9.071  0.5361  0.5029 -0.6429
20913SOL    HW269790   4.964   5.020   9.018 -0.4205 -0.4670 -0.4255
20914SOL     OW69791   5.375   0.115   2.942 -0.1283 -0.3266  0.3381
20914SOL    HW169792   5.405   0.024   2.936 -1.2730 -0.6339 -3.2151
20914SOL    HW269793   5.456   0.166   2.952  1.0137 -1.5353 -1.9732
20915SOL     OW69794   0.036   1.734   9.980 -0.2400  0.1599 -0.1450
20915SOL    HW169795  -0.012   1.692  10.051 -0.1508  1.0912  0.4896
20915SOL    HW269796   0.127   1.734  10.009 -0.1987  0.5189 -0.2690
20916SOL     OW69797  10.055   6.184   0.763 -0.7496  0.5683 -0.4270
20916SOL    HW169798  10.025   6.182   0.672 -1.6775 -1.0599 -0.1309
20916SOL    HW269799  10.057   6.092   0.789  2.9931  0.6493  0.1415
20917SOL     OW69800   6.526   6.983  10.378  0.1414  0.9945 -0.2550
20917SOL    HW169801   6.544   7.003  10.286  1.6293  1.0517  0.0148
20917SOL    HW269802   6.613   6.982  10.419 -0.0263 -2.7345  0.4265
20918SOL     OW69803   7.502   6.075   0.387  0.1360 -0.2429  0.0208
20918SOL    HW169804   7.504   6.131   0.465 -1.5766 -0.5569  0.3206
20918SOL    HW269805   7.522   5.988   0.421 -1.4885 -0.5365  0.2894
20919SOL     OW69806   1.392   4.148   8.346 -0.0525  0.1115 -0.0553
20919SOL    HW169807   1.356   4.180   8.429  0.3877  0.6125 -0.0517
20919SOL    HW269808   1.318   4.149   8.286  0.2530  2.8160 -0.5259
20920SOL     OW69809   4.965   7.460   2.755 -0.7113 -0.3331 -0.3855
20920SOL    HW169810   4.910   7.409   2.695 -0.6296  0.6529 -1.3247
20920SOL    HW269811   4.999   7.395   2.817 -1.2449 -1.2896 -1.0670
20921SOL     OW69812   1.218   2.921  12.233  0.0094  0.2668  0.7486
20921SOL    HW169813   1.183   2.903  12.320  0.1847 -1.5030  0.4886
20921SOL    HW269814   1.304   2.958  12.248 -1.1185  2.8185  1.3548
20922SOL     OW69815   3.522  12.193   2.111 -0.3530 -0.3059 -0.5775
20922SOL    HW169816   3.535  12.124   2.176  0.0341 -0.2632 -0.6102
20922SOL    HW269817   3.428  12.211   2.115 -0.0212  1.5320  1.9070
20923SOL     OW69818   1.697   5.904  11.070  0.0348 -0.0683  0.0125
20923SOL    HW169819   1.776   5.936  11.114 -0.9200  1.4326  0.7412
20923SOL    HW269820   1.645   5.983  11.056 -1.0916 -0.9548 -0.9671
20924SOL     OW69821   2.304   8.530  10.266 -0.2451 -0.2492  0.1037
20924SOL    HW169822   2.376   8.587  10.294 -2.0676  2.1907  0.1573
20924SOL    HW269823   2.259   8.580  10.197 -1.8103 -1.7370 -0.0278
20925SOL     OW69824  10.181   0.180  11.516 -0.1613 -0.3459  0.4055
20925SOL    HW169825  10.271   0.188  11.486  0.1992 -0.1382  1.4756
20925SOL    HW269826  10.147   0.101  11.473  0.6312 -0.5928  0.2303
20926SOL     OW69827   1.461   4.931   5.138 -0.3253 -0.0439  0.2373
20926SOL    HW169828   1.403   4.876   5.191 -0.4863 -0.6835 -0.5663
20926SOL    HW269829   1.405   4.962   5.066 -0.3563  1.5933  0.9467
20927SOL     OW69830  11.291   8.010   9.507  0.1483 -0.0399  0.4597
20927SOL    HW169831  11.328   8.022   9.594 -1.0005  0.4183  0.9017
20927SOL    HW269832  11.197   8.023   9.519 -0.2186 -1.4878 -0.5603
20928SOL     OW69833   5.832   7.230   4.116 -0.2622 -0.3146 -0.1442
20928SOL    HW169834   5.848   7.288   4.190  0.0692  2.2825 -2.1064
20928SOL    HW269835   5.908   7.243   4.059  0.2022 -3.3070 -0.4167
20929SOL     OW69836   6.642   5.762   7.150  0.4428 -0.0721  0.1934
20929SOL    HW169837   6.725   5.797   7.181  0.8881 -0.7432 -0.2194
20929SOL    HW269838   6.625   5.809   7.068  0.4111  0.0601  0.2742
20930SOL     OW69839   8.912   1.557   7.329  0.1745  0.0055 -0.0903
20930SOL    HW169840   8.905   1.649   7.304 -0.5608 -0.1707 -0.5472
20930SOL    HW269841   8.998   1.551   7.372 -0.2965  1.1771  1.1125
20931SOL     OW69842   4.490   5.822  10.855 -0.4312  0.0932  0.2413
20931SOL    HW169843   4.536   5.863  10.782 -0.4767  0.0987  0.2151
20931SOL    HW269844   4.441   5.750  10.815 -1.2706  0.7279  0.1003
20932SOL     OW69845   8.058   9.919   3.447  0.7194 -0.3104 -0.6183
20932SOL    HW169846   8.056   9.878   3.361  0.1297 -0.4637 -0.5349
20932SOL    HW269847   7.987   9.982   3.446  0.2441 -0.8186 -0.0009
20933SOL     OW69848   8.031   3.489   3.341 -0.3763 -0.5841  0.1360
20933SOL    HW169849   8.008   3.545   3.415 -1.7435 -0.1061 -0.6324
20933SOL    HW269850   8.114   3.525   3.309 -0.0215 -0.4994  1.1258
20934SOL     OW69851   5.438  12.320   5.153 -0.0963  0.9225 -0.2428
20934SOL    HW169852   5.347  12.299   5.134 -0.5483  0.2305  2.2286
20934SOL    HW269853   5.482  12.317   5.069 -2.4527  1.9272 -1.6066
20935SOL     OW69854   3.595  11.257   3.493  0.2640 -0.1383  0.2769
20935SOL    HW169855   3.652  11.328   3.465 -2.4600  1.5773 -1.5003
20935SOL    HW269856   3.607  11.189   3.426 -0.3085  0.5606 -0.5658
20936SOL     OW69857  11.361   2.879   4.863  0.1112  0.2775  0.1104
20936SOL    HW169858  11.304   2.905   4.790  0.3816  0.2934 -0.0970
20936SOL    HW269859  11.391   2.962   4.899 -0.8223  0.2937  0.8855
20937SOL     OW69860   4.430   1.140   6.894 -0.2765  0.1779 -0.1809
20937SOL    HW169861   4.441   1.146   6.799 -0.9277 -0.4839 -0.3091
20937SOL    HW269862   4.465   1.222   6.928  0.3255  0.2502 -0.9624
20938SOL     OW69863   8.099   7.840   9.282  0.0946  0.6368  0.2167
20938SOL    HW169864   8.040   7.775   9.320 -0.2820  0.0137 -1.3465
20938SOL    HW269865   8.187   7.808   9.302 -0.0554  1.2919  2.0959
20939SOL     OW69866   6.647   4.744   3.187 -0.7832  0.1516 -0.1856
20939SOL    HW169867   6.719   4.799   3.156 -0.2284  0.5024  1.6136
20939SOL    HW269868   6.651   4.751   3.282 -0.9567 -2.6747  0.1176
20940SOL     OW69869   0.839  10.961   1.435  0.0484  0.0660  0.2609
20940SOL    HW169870   0.921  10.913   1.445  1.1607  1.8474 -0.0510
20940SOL    HW269871   0.851  11.041   1.486 -1.3902  0.4932 -0.0248
20941SOL     OW69872   8.312   2.455  12.277  0.0568 -0.3580  0.0074
20941SOL    HW169873   8.360   2.523  12.229  1.0502 -0.6381  0.5647
20941SOL    HW269874   8.231   2.443  12.228  0.0313  0.9704 -0.3015
20942SOL     OW69875   5.119   6.265   3.158  0.4340  0.4253 -0.3444
20942SOL    HW169876   5.165   6.345   3.131 -1.8409  0.9572 -3.1119
20942SOL    HW269877   5.124   6.208   3.081 -0.9592 -0.7012  0.3638
20943SOL     OW69878  11.370   1.150   8.012  0.1151 -0.5966 -0.4928
20943SOL    HW169879  11.401   1.115   7.929  0.9335  0.2367 -0.5581
20943SOL    HW269880  11.371   1.245   8.000 -0.6709 -0.4870  0.1598
20944SOL     OW69881   3.969   3.375   0.393  0.4989  0.3481 -0.2809
20944SOL    HW169882   3.985   3.308   0.459  2.5187  1.0487 -0.0042
20944SOL    HW269883   3.916   3.331   0.327  1.7572 -1.5418 -0.1118
20945SOL     OW69884  11.564  10.471   1.454 -0.4769 -0.2266  0.1294
20945SOL    HW169885  11.543  10.387   1.495 -1.5779 -0.2688 -0.4772
20945SOL    HW269886  11.658  10.466   1.437  0.1113 -0.0849  2.8566
20946SOL     OW69887   4.004   7.637   6.135  0.0605 -0.0873  0.3418
20946SOL    HW169888   4.012   7.606   6.044 -0.7760  1.1134 -0.1644
20946SOL    HW269889   4.094   7.642   6.166  0.4416  0.4952 -0.7907
20947SOL     OW69890   9.492   2.753   1.083  0.1466  0.0588  0.8071
20947SOL    HW169891   9.446   2.676   1.118  1.1907 -0.7308  0.4921
20947SOL    HW269892   9.449   2.771   1.000  0.9424 -1.2138  0.0959
20948SOL     OW69893   5.541   7.821   8.547 -0.1223  0.2470  0.1746
20948SOL    HW169894   5.605   7.789   8.610  0.8404 -1.5047 -1.5846
20948SOL    HW269895   5.463   7.769   8.564 -0.7785  1.6032  1.5755
20949SOL     OW69896   6.621   9.523   2.605 -0.1000  0.1497  1.0386
20949SOL    HW169897   6.632   9.488   2.516 -0.3038 -0.3670  1.2126
20949SOL    HW269898   6.597   9.615   2.592  0.2778  0.1840  0.5703
20950SOL     OW69899   3.040   1.286  12.275 -0.5085 -0.3922  0.6973
20950SOL    HW169900   3.090   1.321  12.202 -1.0888 -2.6771 -0.9313
20950SOL    HW269901   2.973   1.352  12.293  0.7436  1.0039  0.3760
20951SOL     OW69902  10.442  11.194  11.259  0.1949  0.2477  0.2253
20951SOL    HW169903  10.471  11.105  11.277  1.3688  0.4700 -0.4567
20951SOL    HW269904  10.508  11.229  11.199 -0.7102  1.2902 -0.1920
20952SOL     OW69905   7.278   5.927   0.513 -0.2659 -0.3832  0.1613
20952SOL    HW169906   7.205   5.939   0.451  0.4371  2.8382 -0.2103
20952SOL    HW269907   7.254   5.981   0.588  1.4999  0.3372  0.2430
20953SOL     OW69908   8.113  12.514   1.473  0.0790  0.3649 -0.1392
20953SOL    HW169909   8.207  12.530   1.470 -0.0180  0.8455 -0.8694
20953SOL    HW269910   8.077  12.584   1.527  0.0508  0.6440 -0.5178
20954SOL     OW69911   6.580   4.345   3.480  0.0534  1.1024  0.0203
20954SOL    HW169912   6.525   4.422   3.466  0.4830  1.3842 -0.1216
20954SOL    HW269913   6.667   4.380   3.498  0.5803  0.6433 -1.4492
20955SOL     OW69914   5.828   9.837   8.303 -0.2381  0.3190  0.1536
20955SOL    HW169915   5.826   9.775   8.230  1.9212  0.2685  0.0488
20955SOL    HW269916   5.739   9.870   8.311 -1.6557 -3.1960  0.5547
20956SOL     OW69917   2.676  12.318   3.487  0.1889 -0.0401 -0.4240
20956SOL    HW169918   2.581  12.308   3.486  0.3400 -1.9528 -2.1595
20956SOL    HW269919   2.707  12.252   3.549  0.3909  1.5009  1.2209
20957SOL     OW69920   6.801   9.044   4.333  0.6468  0.0156  0.3910
20957SOL    HW169921   6.843   9.016   4.252  0.5154  0.0850  0.2999
20957SOL    HW269922   6.747   9.118   4.308 -0.3309 -0.7046  0.3161
20958SOL     OW69923   1.558  11.082   2.329  0.3080 -0.4189 -0.0103
20958SOL    HW169924   1.594  11.123   2.250 -0.4904 -0.0265 -0.1872
20958SOL    HW269925   1.554  10.989   2.309 -0.1094 -0.2927 -0.5279
20959SOL     OW69926   8.090   6.300   7.323 -0.0720  0.5117 -0.6393
20959SOL    HW169927   8.156   6.257   7.377 -0.8220 -2.2211 -1.7128
20959SOL    HW269928   8.129   6.384   7.299  1.3069  0.7086  1.9729
20960SOL     OW69929   2.720   0.127   8.135 -0.4672 -0.1294 -0.1384
20960SOL    HW169930   2.774   0.048   8.142 -1.9829 -1.2070 -0.0452
20960SOL    HW269931   2.762   0.178   8.066  0.6592 -0.9175 -0.0699
20961SOL     OW69932   1.825   1.590  10.683  0.1445  0.1231 -0.0097
20961SOL    HW169933   1.860   1.679  10.673  0.1350  0.0978 -0.2797
20961SOL    HW269934   1.858   1.561  10.768 -2.2482  1.4658  1.4831
20962SOL     OW69935   2.239   3.861   9.635  0.5180  0.1799 -0.4396
20962SOL    HW169936   2.204   3.945   9.605  0.5521  0.2732 -0.2156
20962SOL    HW269937   2.291   3.883   9.713  0.3911 -0.0705 -0.2846
20963SOL     OW69938   3.506   3.342   6.776 -0.0172 -0.3872 -0.0588
20963SOL    HW169939   3.420   3.311   6.748 -0.0939  0.0956 -0.3817
20963SOL    HW269940   3.487   3.423   6.824  0.3213  0.1823 -0.8681
20964SOL     OW69941  10.234  11.625   8.028 -0.1968  0.1044 -0.9727
20964SOL    HW169942  10.205  11.613   7.937 -0.8171 -0.1467 -0.7436
20964SOL    HW269943  10.326  11.649   8.020 -0.5731  1.4375 -1.7501
20965SOL     OW69944   2.467   1.871   8.263 -0.0281 -0.6259  0.7410
20965SOL    HW169945   2.452   1.867   8.169 -0.8259 -1.3382  0.8856
20965SOL    HW269946   2.394   1.925   8.296 -0.2990 -1.1783  1.0548
20966SOL     OW69947   4.844   5.747   6.635 -0.1998  0.2580 -0.7310
20966SOL    HW169948   4.922   5.791   6.668 -0.5390 -0.1084  0.5896
20966SOL    HW269949   4.877   5.668   6.592  0.0786 -0.8636  1.4062
20967SOL     OW69950   8.295   7.234   6.290  0.2158 -0.1183  0.6471
20967SOL    HW169951   8.282   7.260   6.381  0.5697  1.9191  0.1604
20967SOL    HW269952   8.369   7.285   6.260 -1.4572  1.2377 -1.5028
20968SOL     OW69953  11.896   4.764   5.369  0.0183  0.7439 -0.2062
20968SOL    HW169954  11.849   4.715   5.437  0.5831 -0.0687 -0.3796
20968SOL    HW269955  11.892   4.855   5.398  1.4316  0.2725  1.6526
20969SOL     OW69956   7.927   7.810  11.029  0.4064  0.1189  1.2700
20969SOL    HW169957   8.017   7.830  11.056  0.1994  0.6722  1.5811
20969SOL    HW269958   7.874   7.874  11.076 -0.0977  0.1704  0.6390
20970SOL     OW69959   2.719   3.193   7.361  0.1068  0.1284 -0.1232
20970SOL    HW169960   2.723   3.137   7.438  2.6509  3.0742  2.2046
20970SOL    HW269961   2.780   3.153   7.298 -0.1729 -1.0714  0.3550
20971SOL     OW69962   5.696   8.797  12.138 -0.2932  0.0719  0.4905
20971SOL    HW169963   5.607   8.829  12.149 -1.6278 -2.9702 -0.4862
20971SOL    HW269964   5.702   8.720  12.195  1.7358  0.2071  0.5613
20972SOL     OW69965   2.405  10.908   1.630 -0.2230  0.1893  0.3262
20972SOL    HW169966   2.416  11.003   1.633  1.9747  0.0971 -1.8041
20972SOL    HW269967   2.433  10.878   1.716 -1.4730  1.4605  1.2286
20973SOL     OW69968   7.215   4.970   0.920  0.3171  0.4333  0.4116
20973SOL    HW169969   7.230   5.055   0.962  1.7310 -0.1880  1.2520
20973SOL    HW269970   7.262   4.974   0.837  1.9348 -0.1170  1.2591
20974SOL     OW69971   2.752  11.963   6.263  0.1704 -0.5044  0.9929
20974SOL    HW169972   2.829  11.925   6.222  0.0987 -0.7797  1.1071
20974SOL    HW269973   2.700  11.887   6.291 -1.0195 -0.3656 -0.6875
20975SOL     OW69974   3.950   5.949   2.374  0.5438 -0.3740  0.7630
20975SOL    HW169975   3.882   5.881   2.377  0.4196 -0.2697  0.4382
20975SOL    HW269976   4.001   5.936   2.454 -2.4465  2.2850  3.3831
20976SOL     OW69977   1.714   0.064   9.795 -0.1661 -0.0889  0.0425
20976SOL    HW169978   1.681   0.049   9.883 -1.4036 -0.9448 -0.5473
20976SOL    HW269979   1.657   0.131   9.759 -1.2618 -1.4914 -0.9410
20977SOL     OW69980   9.743   1.048   2.762  0.1582  0.2554  0.7977
20977SOL    HW169981   9.819   1.064   2.818  0.1696  1.4117  0.4924
20977SOL    HW269982   9.771   1.079   2.675 -0.5922  0.5159  0.6429
20978SOL     OW69983   1.562   6.204   1.478 -0.2397 -0.0392 -0.4551
20978SOL    HW169984   1.582   6.146   1.551  0.8890 -0.2666 -0.9183
20978SOL    HW269985   1.472   6.182   1.454 -0.8329  0.4396  1.1987
20979SOL     OW69986   9.422   3.515   3.723 -0.2116  0.5958  0.3412
20979SOL    HW169987   9.440   3.474   3.638 -0.5441  0.0745  0.5218
20979SOL    HW269988   9.503   3.502   3.773  0.3639  1.7963 -0.2325
20980SOL     OW69989  10.611  11.544   0.740 -0.0281 -0.2905  0.2265
20980SOL    HW169990  10.680  11.519   0.802  1.4168 -0.2627 -1.2981
20980SOL    HW269991  10.625  11.488   0.664 -1.7549 -0.3192 -0.1156
20981SOL     OW69992  10.113   7.785   0.981 -0.5105 -0.0851  0.1463
20981SOL    HW169993  10.198   7.827   0.995 -0.6873  1.7899 -3.3485
20981SOL    HW269994  10.048   7.853   1.000 -1.0485 -0.3674 -0.6199
20982SOL     OW69995   4.367   0.666   3.161  0.5830 -0.6389  0.4277
20982SOL    HW169996   4.405   0.698   3.244  1.6564  0.2030 -0.3515
20982SOL    HW269997   4.424   0.702   3.094 -1.4436  0.3959 -0.8208
20983SOL     OW69998   9.057  11.837   2.076 -0.4411  0.6285 -0.2785
20983SOL    HW169999   9.142  11.861   2.113 -0.5498  0.5113  0.0505
20983SOL    HW270000   9.012  11.920   2.063  0.5250  0.8945 -2.4688
20984SOL     OW70001   4.847   7.879   4.032 -0.1525 -0.1427  0.2091
20984SOL    HW170002   4.788   7.924   3.971  0.5544 -1.1145 -1.2591
20984SOL    HW270003   4.790   7.848   4.102 -1.0610  0.6842 -0.1414
20985SOL     OW70004   9.010   1.207   0.827  0.0331  0.2533 -0.5276
20985SOL    HW170005   8.945   1.237   0.891  1.4047  1.1100  0.5294
20985SOL    HW270006   8.959   1.184   0.749 -1.5483  0.5819  0.3763
20986SOL     OW70007   8.126   0.763   8.225  0.0612  0.2782 -0.0044
20986SOL    HW170008   8.131   0.741   8.318 -0.5296 -0.5476 -0.1624
20986SOL    HW270009   8.076   0.845   8.223 -0.6716 -0.1577  0.3450
20987SOL     OW70010   1.465   4.726   1.199  0.6696 -0.1542 -0.0409
20987SOL    HW170011   1.464   4.637   1.234  0.4678 -0.1639 -0.0715
20987SOL    HW270012   1.400   4.774   1.251  1.4556  0.2278  0.6193
20988SOL     OW70013  12.574   2.533   0.623  0.1044  0.1156 -0.0239
20988SOL    HW170014  12.521   2.572   0.553  1.4819 -0.2750 -1.3429
20988SOL    HW270015  12.610   2.608   0.670  0.3127  0.4149 -0.6461
20989SOL     OW70016   1.410   8.800  11.807 -0.1101 -0.2037  0.4195
20989SOL    HW170017   1.332   8.753  11.838 -0.8663  0.9721  0.3770
20989SOL    HW270018   1.456   8.824  11.887 -0.5186  0.2897  0.5100
20990SOL     OW70019   2.375  12.347   9.180 -0.1056  0.1966 -0.2590
20990SOL    HW170020   2.433  12.421   9.201 -0.8546  0.7922 -0.2618
20990SOL    HW270021   2.413  12.274   9.228  1.4723  0.2234 -1.3682
20991SOL     OW70022   8.931  11.986   5.181  0.3488 -0.1254 -0.4496
20991SOL    HW170023   8.954  12.057   5.122  0.6194  0.3590  0.2226
20991SOL    HW270024   8.962  11.907   5.137  1.8379  0.3528 -0.3375
20992SOL     OW70025   1.859   4.944   9.225  0.3535  0.1201 -0.0932
20992SOL    HW170026   1.819   4.858   9.211 -0.5390  0.1518  1.9455
20992SOL    HW270027   1.953   4.925   9.234  0.3977 -0.3944 -1.3974
20993SOL     OW70028   8.480   3.761   1.674  0.0692 -0.6079 -0.2583
20993SOL    HW170029   8.454   3.695   1.739  0.5564  0.7113  1.3499
20993SOL    HW270030   8.564   3.794   1.705 -0.8805  1.8779 -0.0740
20994SOL     OW70031  11.765   0.461   7.001 -0.4326 -0.2709  0.1816
20994SOL    HW170032  11.786   0.382   7.051  0.8697  0.0731  0.2176
20994SOL    HW270033  11.680   0.489   7.034 -0.7204 -1.4237  0.4575
20995SOL     OW70034   3.600   8.792   3.734  0.5451 -0.0060  0.2009
20995SOL    HW170035   3.576   8.828   3.820  0.7509  0.6709 -0.0152
20995SOL    HW270036   3.550   8.711   3.727 -0.1765  0.3958  0.5744
20996SOL     OW70037   0.067  10.887   0.435 -1.0106 -0.0250  0.2697
20996SOL    HW170038   0.008  10.811   0.436 -2.0922  0.7740 -0.8870
20996SOL    HW270039   0.037  10.941   0.508 -2.1503  0.6728 -0.6814
20997SOL     OW70040  11.796   4.797   4.093 -0.5909 -0.3029  0.0347
20997SOL    HW170041  11.721   4.826   4.041 -1.3380 -2.0895  0.0243
20997SOL    HW270042  11.846   4.740   4.033 -0.4022 -0.8310  0.6815
20998SOL     OW70043   2.685  11.674  10.180 -0.1668  0.1456 -0.1624
20998SOL    HW170044   2.669  11.713  10.094  0.6973  1.5216  0.2544
20998SOL    HW270045   2.710  11.583  10.161 -1.0037  0.1280 -1.2761
20999SOL     OW70046  12.368  10.119   8.390 -0.6945 -0.8751  0.4200
20999SOL    HW170047  12.316  10.116   8.310 -1.8214 -0.4636  1.1220
20999SOL    HW270048  12.383  10.212   8.407  0.3510 -0.9893  0.1857
21000SOL     OW70049  10.167   7.628  10.700  0.3963 -0.0753 -0.2653
21000SOL    HW170050  10.150   7.560  10.765 -1.6666  2.4182  2.0328
21000SOL    HW270051  10.237   7.680  10.738  1.7653 -0.6381 -1.8760
21001SOL     OW70052   5.292   4.832   4.575 -0.3716  0.1946  0.0361
21001SOL    HW170053   5.243   4.850   4.495  1.9718  1.0630 -1.3081
21001SOL    HW270054   5.300   4.918   4.618  0.2370  0.1336  0.0558
21002SOL     OW70055  10.381   0.283   8.600  0.2555 -0.1721  0.3393
21002SOL    HW170056  10.428   0.337   8.537 -0.0047 -0.6631 -0.2951
21002SOL    HW270057  10.429   0.200   8.602  0.4904 -0.0257  1.0882
21003SOL     OW70058   5.354   0.334  11.081 -0.4169 -0.8524  0.0966
21003SOL    HW170059   5.419   0.263  11.082  2.2954  1.4795  0.4971
21003SOL    HW270060   5.376   0.385  11.002 -1.2119  0.4641  0.7018
21004SOL     OW70061   9.512   8.564   9.022 -0.3848 -0.2434  0.0795
21004SOL    HW170062   9.601   8.537   9.045  0.1396  0.1984 -1.2668
21004SOL    HW270063   9.455   8.507   9.073  0.6604 -0.0311  1.5399
21005SOL     OW70064   5.889   1.475   8.268  1.0155  0.4318 -0.0780
21005SOL    HW170065   5.957   1.507   8.328  1.1797 -0.4062  0.1949
21005SOL    HW270066   5.915   1.385   8.248  0.1661  0.2154 -0.2445
21006SOL     OW70067   7.474   1.575   3.109  0.4346 -0.0400 -0.1266
21006SOL    HW170068   7.526   1.502   3.144  0.8634  1.5488  2.8959
21006SOL    HW270069   7.395   1.532   3.075  0.2208 -1.9717  2.4142
21007SOL     OW70070   4.198   2.620   0.773  0.2208 -0.0248 -0.2618
21007SOL    HW170071   4.249   2.701   0.778 -0.2674  0.5633 -3.2197
21007SOL    HW270072   4.261   2.550   0.790  1.1930  0.8474 -0.2171
21008SOL     OW70073  11.007  11.279   0.076  0.0271  0.8611  0.2601
21008SOL    HW170074  10.963  11.232   0.006  1.1108 -0.8217  0.6296
21008SOL    HW270075  10.950  11.268   0.152  0.1584  0.3286  0.2854
21009SOL     OW70076   1.214   1.394   8.359  0.1666 -0.4650 -0.0357
21009SOL    HW170077   1.170   1.357   8.282  0.3693  0.6497 -0.7053
21009SOL    HW270078   1.179   1.344   8.433 -0.0839 -1.5112 -0.8401
21010SOL     OW70079   4.574   0.711   6.443 -0.0189 -0.6612  0.0034
21010SOL    HW170080   4.581   0.621   6.411 -1.9554 -0.5762 -0.8031
21010SOL    HW270081   4.525   0.704   6.525  3.3365 -0.6761  2.2223
21011SOL     OW70082   3.602   4.026   5.507 -0.6285  0.4783 -0.3450
21011SOL    HW170083   3.650   4.064   5.580 -0.5647  0.4088 -0.3517
21011SOL    HW270084   3.520   3.996   5.545  1.0784 -3.5755  0.6512
21012SOL     OW70085   8.819  12.146  12.439 -0.8178 -0.3560  1.1282
21012SOL    HW170086   8.741  12.186  12.402 -1.9147 -1.7993  1.7847
21012SOL    HW270087   8.847  12.207  12.508 -0.6135  0.7692  0.0852
21013SOL     OW70088  11.788   1.608   5.841 -0.4503 -0.9025  0.1698
21013SOL    HW170089  11.723   1.589   5.909  1.0801  0.9635  2.3251
21013SOL    HW270090  11.872   1.589   5.884  0.5948  0.8273 -1.0298
21014SOL     OW70091   9.828  10.568   8.770  0.8119  0.5773  0.3066
21014SOL    HW170092   9.880  10.558   8.850  0.3383 -0.2042  0.5234
21014SOL    HW270093   9.798  10.659   8.772  1.9453  0.9612  0.3098
21015SOL     OW70094   0.491   8.346   7.542  0.2233 -0.3480 -0.1979
21015SOL    HW170095   0.400   8.325   7.521 -0.0805 -0.4979  1.1342
21015SOL    HW270096   0.525   8.266   7.582  0.5425  0.1038  0.4611
21016SOL     OW70097   1.529  12.171  10.859  0.0927 -0.2016  0.8611
21016SOL    HW170098   1.469  12.160  10.934 -0.8018  1.8494  0.5160
21016SOL    HW270099   1.550  12.264  10.859  0.2757 -0.1968 -1.3040
21017SOL     OW70100   4.088  10.549   2.888 -0.2121  0.3780  0.5903
21017SOL    HW170101   4.021  10.511   2.944 -0.4283 -0.3745 -0.1650
21017SOL    HW270102   4.097  10.488   2.816 -0.6365  1.7850 -0.7118
21018SOL     OW70103  12.377   7.178   4.769 -0.5921 -0.1291 -0.0714
21018SOL    HW170104  12.419   7.263   4.764 -0.9568  0.1270  0.9202
21018SOL    HW270105  12.283   7.196   4.762 -0.6921 -0.4031  0.4470
21019SOL     OW70106   6.552   5.870   3.651 -0.1011 -0.7062  0.0644
21019SOL    HW170107   6.556   5.896   3.743 -0.2760 -1.7752  0.3863
21019SOL    HW270108   6.515   5.946   3.606 -1.6537 -0.7697  1.1452
21020SOL     OW70109   2.156   3.026   2.389 -0.4450  0.1504 -0.0634
21020SOL    HW170110   2.227   3.073   2.431 -0.3066 -0.3509  0.2803
21020SOL    HW270111   2.094   3.007   2.459  0.1774 -1.4177  0.1178
21021SOL     OW70112   5.087  11.423   3.057  0.1314 -0.5667  0.0372
21021SOL    HW170113   5.082  11.340   3.010  0.1585 -0.7026  0.2728
21021SOL    HW270114   4.996  11.449   3.070  0.0967  0.6274 -2.1069
21022SOL     OW70115   4.152   2.902   3.679 -0.1071  0.4165 -0.7223
21022SOL    HW170116   4.128   2.961   3.751  0.4022 -0.1694 -0.0589
21022SOL    HW270117   4.231   2.941   3.641 -0.1865  0.5517 -0.7469
21023SOL     OW70118  11.774   5.071   5.194 -0.2173  0.0687  0.1724
21023SOL    HW170119  11.758   5.165   5.192 -1.1950 -0.0850 -1.4519
21023SOL    HW270120  11.708   5.037   5.255 -0.7818  0.3081 -0.2922
21024SOL     OW70121  10.059   3.852   7.206 -0.3992  0.1422 -0.2369
21024SOL    HW170122  10.113   3.772   7.204 -0.3323  0.1961 -0.6325
21024SOL    HW270123  10.017   3.855   7.120  1.2488  1.6613 -1.0496
21025SOL     OW70124   3.173   4.072   7.127 -0.0833  0.4969 -0.6026
21025SOL    HW170125   3.227   4.033   7.058 -0.0209 -0.4089 -0.0559
21025SOL    HW270126   3.106   4.006   7.145  1.6249 -0.6243  2.2645
21026SOL     OW70127   2.534  11.944  11.624  0.0904  0.0125 -0.2484
21026SOL    HW170128   2.578  11.915  11.704 -0.5721  0.4661  0.2970
21026SOL    HW270129   2.441  11.944  11.646 -0.1264 -0.1281 -1.1131
21027SOL     OW70130   3.423   3.441   7.902  0.4696  0.2092  0.1066
21027SOL    HW170131   3.409   3.365   7.957  2.4185  0.1346  0.5673
21027SOL    HW270132   3.338   3.486   7.901 -0.1514 -0.8697  1.4738
21028SOL     OW70133   2.404   3.599   2.610  0.1091  0.1036  0.0011
21028SOL    HW170134   2.458   3.621   2.686 -0.7140  1.8839  0.1062
21028SOL    HW270135   2.449   3.639   2.536 -0.7116  1.0553  0.0008
21029SOL     OW70136  10.595   4.746   1.364  0.2559  0.1867 -0.0097
21029SOL    HW170137  10.664   4.704   1.314  0.0717  0.1780 -0.2557
21029SOL    HW270138  10.617   4.839   1.363 -0.3457  0.3301 -1.0551
21030SOL     OW70139   3.811  11.936   1.419  0.2225 -0.2470 -0.6804
21030SOL    HW170140   3.781  11.854   1.379  1.8781 -0.9936 -0.4581
21030SOL    HW270141   3.730  11.985   1.436 -0.8525 -2.0125 -0.4134
21031SOL     OW70142   1.421   3.733   6.215 -0.0459  0.1670  0.0227
21031SOL    HW170143   1.432   3.774   6.301 -1.3274 -0.3482  0.4536
21031SOL    HW270144   1.342   3.772   6.179  1.4434  1.7179 -1.7537
21032SOL     OW70145   1.337   8.841  10.197  0.2392 -0.5191 -0.1775
21032SOL    HW170146   1.310   8.932  10.211 -0.3158 -0.6823 -0.1773
21032SOL    HW270147   1.339   8.802  10.285  0.6020 -0.4719 -0.1648
21033SOL     OW70148   0.687   6.252  12.032 -0.5156  0.1768  0.5958
21033SOL    HW170149   0.685   6.273  12.125 -2.7414 -1.8610  1.1060
21033SOL    HW270150   0.638   6.170  12.025  0.3315 -0.1914 -2.2749
21034SOL     OW70151  10.664   8.027   9.025  0.3718  0.0428 -0.1577
21034SOL    HW170152  10.702   8.008   8.940  0.3763  2.0173 -0.6460
21034SOL    HW270153  10.739   8.030   9.085  0.6292  0.6916 -0.4981
21035SOL     OW70154   7.936   9.128   4.156 -0.2133 -0.0783 -0.1881
21035SOL    HW170155   7.958   9.035   4.153  0.5217  0.1153 -2.2078
21035SOL    HW270156   8.001   9.170   4.100 -0.1977  1.7542  1.0818
21036SOL     OW70157   1.014   6.878   6.367  0.1124  0.6656  0.0129
21036SOL    HW170158   0.979   6.817   6.431  1.3445 -0.0306  0.0604
21036SOL    HW270159   0.941   6.936   6.346 -1.5606 -1.6604 -1.1043
21037SOL     OW70160   6.743   9.981   5.652 -0.3982  0.1674 -0.4015
21037SOL    HW170161   6.824  10.015   5.691  0.3621 -0.2361 -1.5864
21037SOL    HW270162   6.673  10.032   5.693  0.3572 -0.2364  1.4861
21038SOL     OW70163   6.163  10.799   0.520  0.3903 -0.3072 -0.6220
21038SOL    HW170164   6.116  10.866   0.570 -0.7854 -0.3778 -1.5814
21038SOL    HW270165   6.217  10.850   0.459  0.9096 -0.2374 -0.1202
21039SOL     OW70166   6.535   3.926  11.211 -0.3234 -0.2179 -1.1619
21039SOL    HW170167   6.539   3.833  11.234 -1.6803 -0.0395 -0.0554
21039SOL    HW270168   6.460   3.933  11.152 -0.7251  0.2797 -0.6025
21040SOL     OW70169   2.443   2.527   3.805  0.2126  0.1392 -0.3418
21040SOL    HW170170   2.388   2.565   3.874  0.3432 -0.0203 -0.1501
21040SOL    HW270171   2.422   2.578   3.727 -0.8919 -0.5048 -0.4842
21041SOL     OW70172   0.504   8.978   1.881  0.0522 -0.2838 -0.1283
21041SOL    HW170173   0.467   9.008   1.798 -0.2837 -1.4009 -0.4026
21041SOL    HW270174   0.594   9.011   1.880 -1.1371  3.3781  1.0316
21042SOL     OW70175   1.148   0.455   4.850 -0.2057  0.3499 -0.3554
21042SOL    HW170176   1.133   0.379   4.792  1.2365 -0.2923  0.0702
21042SOL    HW270177   1.145   0.530   4.791 -0.5087 -0.1386 -0.9825
21043SOL     OW70178  10.057   7.223   3.521  0.9333  0.0666  0.1336
21043SOL    HW170179  10.028   7.145   3.568  1.1072 -0.4860 -0.6518
21043SOL    HW270180  10.147   7.237   3.552  0.9300 -0.0994  0.2201
21044SOL     OW70181   1.009   9.580  11.162 -0.5429 -0.0971 -0.0302
21044SOL    HW170182   1.000   9.675  11.176  2.1644  0.2089 -0.0012
21044SOL    HW270183   1.060   9.549  11.236  1.6412 -0.9361 -1.7824
21045SOL     OW70184   0.309   6.254   1.149  0.0865  0.0148 -0.2663
21045SOL    HW170185   0.243   6.250   1.080 -0.5876  0.0872  0.3577
21045SOL    HW270186   0.337   6.346   1.151 -1.6404  0.5782  1.1177
21046SOL     OW70187   0.471   4.969   0.789 -0.1921 -0.4335  0.0845
21046SOL    HW170188   0.426   4.885   0.800 -0.0320 -0.3794  1.2335
21046SOL    HW270189   0.400   5.034   0.792 -0.5461 -0.5873 -2.6066
21047SOL     OW70190  10.713   3.345   6.107  0.1196 -0.9816  0.4301
21047SOL    HW170191  10.653   3.321   6.177 -0.2805 -0.2306  0.3488
21047SOL    HW270192  10.792   3.376   6.152 -1.5880  3.6229  0.7993
21048SOL     OW70193   9.786   7.860   1.100 -0.6482  0.2084  0.5049
21048SOL    HW170194   9.855   7.926   1.104 -0.3494  0.0977 -1.5627
21048SOL    HW270195   9.707   7.909   1.080 -0.5625  0.0377 -0.2880
21049SOL     OW70196   8.070   2.474   2.898 -0.2712 -0.1577  0.3861
21049SOL    HW170197   8.130   2.400   2.894 -1.6063 -1.2299 -2.2251
21049SOL    HW270198   8.126   2.551   2.900  1.1551 -1.1681  0.5081
21050SOL     OW70199   8.716   4.193   8.144 -0.3346 -0.6096 -0.2195
21050SOL    HW170200   8.717   4.244   8.063  1.2629 -0.9320 -0.4314
21050SOL    HW270201   8.641   4.134   8.133 -3.1504  2.5075  0.6414
21051SOL     OW70202  10.424   0.012   7.420 -0.4655  0.0374  0.1453
21051SOL    HW170203  10.454   0.039   7.334 -1.1788  0.8202  0.1208
21051SOL    HW270204  10.472  -0.069   7.439  3.9045  2.5649  1.3595
21052SOL     OW70205   5.374   2.930   0.731  0.4103  0.0223  0.7847
21052SOL    HW170206   5.349   2.956   0.820  0.7918 -2.2812  1.6392
21052SOL    HW270207   5.330   2.992   0.674  0.0057  1.4505  2.5786
21053SOL     OW70208   9.945   2.357   3.337  0.0819 -0.0495 -0.3093
21053SOL    HW170209   9.912   2.347   3.247  0.7997 -0.9607 -0.4802
21053SOL    HW270210   9.997   2.279   3.353  1.2302  0.8142  0.3625
21054SOL     OW70211   3.179   4.920   0.661  0.3184  1.2464 -0.2359
21054SOL    HW170212   3.206   4.930   0.752  0.0663  0.3566 -0.0487
21054SOL    HW270213   3.088   4.889   0.666  0.7886 -0.3072 -0.7302
21055SOL     OW70214   8.245   0.267  11.592 -0.6633  0.7512  0.1075
21055SOL    HW170215   8.153   0.290  11.583 -1.1727 -1.6615 -1.5624
21055SOL    HW270216   8.265   0.213  11.516  0.9825 -2.2320  2.4137
21056SOL     OW70217   9.405  10.163   8.757 -0.5191 -0.0769 -0.4590
21056SOL    HW170218   9.345  10.095   8.787  0.4893 -0.8445 -0.1476
21056SOL    HW270219   9.476  10.163   8.821  0.2452  0.2193 -1.2776
21057SOL     OW70220   1.875  12.003   6.812  0.2397 -0.0647 -0.2255
21057SOL    HW170221   1.907  12.035   6.728 -0.3183 -0.1085 -0.4632
21057SOL    HW270222   1.818  11.929   6.789 -0.6822  0.5203  0.1115
21058SOL     OW70223   5.316   9.502   5.284  0.5284  0.2899  0.0035
21058SOL    HW170224   5.270   9.585   5.295  2.1138  1.5677 -2.0575
21058SOL    HW270225   5.247   9.436   5.278 -0.7658  1.3635  2.0282
21059SOL     OW70226   1.749  10.773   7.190  0.0967  0.0546  0.1880
21059SOL    HW170227   1.676  10.721   7.223 -0.2063  0.0925 -0.4112
21059SOL    HW270228   1.715  10.862   7.187 -0.5084 -0.2118 -1.9781
21060SOL     OW70229   7.694  12.557   1.807 -0.0943  0.5267  0.4358
21060SOL    HW170230   7.718  12.521   1.722  0.5487  1.5214  0.1809
21060SOL    HW270231   7.632  12.628   1.786 -1.4913 -0.4938  0.9375
21061SOL     OW70232   2.396   1.297   1.694 -0.4319  0.1953 -0.4216
21061SOL    HW170233   2.320   1.320   1.641 -0.7170  0.2128 -0.0014
21061SOL    HW270234   2.398   1.201   1.693 -0.7724  0.1868  0.0219
21062SOL     OW70235   1.652   4.238  11.049  0.7379  0.4243 -0.6551
21062SOL    HW170236   1.581   4.286  11.006  0.7920  0.3407 -0.8385
21062SOL    HW270237   1.607   4.166  11.093  0.6890  0.4730 -0.6249
21063SOL     OW70238   6.051   8.208   1.639 -0.3145  0.3176  1.0158
21063SOL    HW170239   6.079   8.151   1.711 -0.6418 -1.1184  0.0548
21063SOL    HW270240   6.100   8.176   1.563 -1.2541  0.6660  0.2509
21064SOL     OW70241  10.199  12.113  11.694  0.4162 -0.0298 -0.4176
21064SOL    HW170242  10.237  12.201  11.691  1.8388 -0.6451 -0.8841
21064SOL    HW270243  10.122  12.123  11.751  0.8834  1.3882  0.0138
21065SOL     OW70244   0.979   8.557   1.276  0.0298  0.0686 -0.0038
21065SOL    HW170245   0.946   8.470   1.302 -0.0496  0.6834  2.1807
21065SOL    HW270246   0.940   8.617   1.341  1.1455  1.5542 -0.6649
21066SOL     OW70247   3.337   3.608   2.236  0.1108  0.0452  0.2213
21066SOL    HW170248   3.294   3.648   2.160  3.5071 -0.4277 -2.2221
21066SOL    HW270249   3.338   3.515   2.216  1.1695 -0.0714  0.7621
21067SOL     OW70250   3.254   8.799   7.156 -0.1241  0.3852  0.3350
21067SOL    HW170251   3.237   8.893   7.151 -2.6452 -0.0605 -0.4017
21067SOL    HW270252   3.316   8.782   7.084  0.2533  1.4516  0.3968
21068SOL     OW70253   4.702  12.284   5.901 -0.1614  0.2536  0.2509
21068SOL    HW170254   4.616  12.250   5.926 -0.1834 -1.2701 -1.6635
21068SOL    HW270255   4.764  12.234   5.954 -0.3973  1.0088  1.2742
21069SOL     OW70256   6.763   9.454   2.072 -0.2638  0.3700  0.1589
21069SOL    HW170257   6.688   9.434   2.017  0.1189  1.2166 -0.7092
21069SOL    HW270258   6.799   9.534   2.035  1.4671 -0.3699  0.1129
21070SOL     OW70259   3.557   2.436  10.345  0.0953  0.5385  0.5749
21070SOL    HW170260   3.623   2.368  10.335  0.6358  0.9353  1.3484
21070SOL    HW270261   3.521   2.423  10.432 -1.7355 -0.4202 -0.2571
21071SOL     OW70262   0.874   5.612  12.268  0.1194  0.3803  0.4307
21071SOL    HW170263   0.780   5.617  12.283 -0.2035  3.0645 -1.6472
21071SOL    HW270264   0.884   5.557  12.190  0.3786 -0.5858  1.1298
21072SOL     OW70265   6.581   0.250   6.879 -0.0609  0.4553 -0.0720
21072SOL    HW170266   6.525   0.268   6.955  0.3328 -0.3714  0.4312
21072SOL    HW270267   6.538   0.294   6.806 -0.7871  0.7328  0.5112
21073SOL     OW70268   1.137   8.518   4.365 -0.2353  0.2573 -0.0315
21073SOL    HW170269   1.220   8.496   4.321 -0.3451 -1.8813  0.7651
21073SOL    HW270270   1.148   8.610   4.389  1.1081  0.5883 -1.6754
21074SOL     OW70271   7.397  10.015   1.423 -0.1135 -0.2134 -0.1405
21074SOL    HW170272   7.439  10.100   1.413 -0.2009 -0.0388  0.8407
21074SOL    HW270273   7.452   9.955   1.373  1.1849  0.0496  0.9126
21075SOL     OW70274   8.774   0.627   6.694 -0.0242 -0.0291  0.1814
21075SOL    HW170275   8.696   0.581   6.663 -0.9808  1.2942  0.5288
21075SOL    HW270276   8.836   0.622   6.621 -0.8629 -0.1408 -0.5375
21076SOL     OW70277  10.511   9.119   6.828 -0.8366  0.1523  0.4053
21076SOL    HW170278  10.457   9.065   6.886 -0.1649 -0.1443  0.7614
21076SOL    HW270279  10.601   9.093   6.848 -0.5792  0.3425 -0.4832
21077SOL     OW70280  10.060  12.083  10.776 -0.1342 -0.5438 -0.1103
21077SOL    HW170281   9.967  12.070  10.790 -0.5299  0.4599 -1.6446
21077SOL    HW270282  10.074  12.063  10.684  0.7373  1.4258 -0.4530
21078SOL     OW70283   3.773   0.413   7.032  0.2547 -0.3629  0.0361
21078SOL    HW170284   3.866   0.412   7.055 -0.0559 -0.6989  1.3632
21078SOL    HW270285   3.744   0.501   7.055 -0.0183 -0.6395  0.7542
21079SOL     OW70286   1.737   9.090   5.600  0.4854  0.1604 -0.2038
21079SOL    HW170287   1.684   9.164   5.571  2.1130  1.5995  0.3142
21079SOL    HW270288   1.753   9.108   5.693  2.2950  0.0870 -0.4674
21080SOL     OW70289   3.641   9.696   5.811  0.2278  0.3838  0.1855
21080SOL    HW170290   3.580   9.724   5.879  1.3807  0.1508  1.3559
21080SOL    HW270291   3.627   9.602   5.802  0.7202  0.2446  0.7966
21081SOL     OW70292   6.628   1.946   5.766  0.3085 -0.5607 -0.6133
21081SOL    HW170293   6.681   2.022   5.788  2.1669 -1.6945 -0.9390
21081SOL    HW270294   6.625   1.945   5.671  2.4192 -2.1814 -0.7399
21082SOL     OW70295  11.029   5.814   6.805 -0.0698 -0.0827  0.2484
21082SOL    HW170296  11.122   5.793   6.811  0.1083  0.1904 -1.3416
21082SOL    HW270297  11.025   5.910   6.808 -0.2291 -0.0630 -0.4879
21083SOL     OW70298   4.147   8.093  10.440 -0.1161  0.0816  0.0604
21083SOL    HW170299   4.130   8.058  10.352  0.8552 -0.5836  0.1259
21083SOL    HW270300   4.241   8.106  10.443 -0.0368 -0.5944  1.2449
21084SOL     OW70301   7.541   9.189   7.144 -0.2945  0.1420 -0.3820
21084SOL    HW170302   7.474   9.123   7.164 -2.3366  1.7978 -1.4115
21084SOL    HW270303   7.608   9.141   7.096 -1.0379 -1.4504  0.0997
21085SOL     OW70304   9.570   8.776  11.458 -0.2266  0.2637 -0.4843
21085SOL    HW170305   9.657   8.737  11.449 -0.5795 -0.5191 -0.5495
21085SOL    HW270306   9.511   8.701  11.466 -1.0991  0.7390 -2.1027
21086SOL     OW70307   0.874   5.453   5.155 -0.2092 -0.1536  0.5016
21086SOL    HW170308   0.862   5.455   5.250 -1.0955 -1.7131  0.4574
21086SOL    HW270309   0.927   5.376   5.139  1.4250  1.0598 -0.1667
21087SOL     OW70310   0.614   7.290   7.119 -1.0568  0.3827 -0.4997
21087SOL    HW170311   0.558   7.236   7.175 -1.7364 -0.4078 -1.8997
21087SOL    HW270312   0.553   7.335   7.060 -0.2635 -1.9459 -3.3527
21088SOL     OW70313   6.918   0.613   9.149  0.0781  0.2839  0.1377
21088SOL    HW170314   6.986   0.587   9.088 -0.5109 -1.7575  0.2759
21088SOL    HW270315   6.965   0.651   9.223  0.9323  0.5714 -0.5346
21089SOL     OW70316   4.214  11.410   0.074 -0.3670 -0.1776 -0.1271
21089SOL    HW170317   4.196  11.401   0.168 -1.5436  1.1176 -0.1997
21089SOL    HW270318   4.307  11.430   0.069 -0.2454 -0.4949  0.7400
21090SOL     OW70319  10.795  11.099  10.962 -0.1393  0.0844  0.2420
21090SOL    HW170320  10.838  11.182  10.986  1.1899 -0.3474 -0.5267
21090SOL    HW270321  10.816  11.040  11.034  2.0318 -0.5920 -0.8461
21091SOL     OW70322   1.752  10.564   1.685 -0.1710 -0.4779  0.3945
21091SOL    HW170323   1.681  10.628   1.693  1.1365  0.9457  1.1921
21091SOL    HW270324   1.825  10.615   1.649  0.2877 -2.0432 -1.0110
21092SOL     OW70325  12.044   8.564   5.371 -0.2047 -0.3436  0.0744
21092SOL    HW170326  11.968   8.533   5.320 -0.9085  0.4938  0.5838
21092SOL    HW270327  12.048   8.657   5.353  0.5307 -0.3312  0.2939
21093SOL     OW70328   8.102   7.298   3.814  1.0842  0.1000  0.3449
21093SOL    HW170329   8.013   7.290   3.846  0.7788  0.5287 -0.3698
21093SOL    HW270330   8.155   7.250   3.877  0.5312  1.0690  1.5780
21094SOL     OW70331  12.297   7.869   2.263 -0.1296  0.1716  0.1332
21094SOL    HW170332  12.206   7.872   2.290 -0.1136  0.4992  0.1660
21094SOL    HW270333  12.342   7.927   2.326  0.1851 -0.3947  0.4423
21095SOL     OW70334   5.116   6.830   0.885  0.8529  0.0793 -0.4443
21095SOL    HW170335   5.114   6.923   0.909  0.9157 -0.1394  0.4460
21095SOL    HW270336   5.196   6.821   0.833  2.4793 -0.0058  1.8816
21096SOL     OW70337  10.640   5.363   5.498  0.3355 -0.5449  0.5724
21096SOL    HW170338  10.593   5.316   5.567 -1.7099 -2.3087 -1.8807
21096SOL    HW270339  10.732   5.356   5.524 -0.1820 -2.9082  2.0999
21097SOL     OW70340   0.927   5.496   7.085  0.2216  0.0505  0.9359
21097SOL    HW170341   0.867   5.523   7.155  1.2779 -2.0693  2.7903
21097SOL    HW270342   1.011   5.483   7.130  1.2854 -0.1386 -1.0090
21098SOL     OW70343   7.863   8.766   6.706  0.2465 -0.4050 -0.4993
21098SOL    HW170344   7.945   8.793   6.664  1.1432  0.3993  1.6412
21098SOL    HW270345   7.846   8.679   6.671  1.6909 -0.3589 -1.4282
21099SOL     OW70346   0.991   3.276   2.040  0.0708  0.3527 -0.1566
21099SOL    HW170347   1.050   3.344   2.073  1.2678 -0.8464  0.2666
21099SOL    HW270348   0.953   3.237   2.119  0.5795 -0.4837 -0.3158
21100SOL     OW70349   1.352  12.343   5.581  0.0198 -0.0545 -0.3877
21100SOL    HW170350   1.281  12.386   5.533 -1.6187 -1.4608  0.6291
21100SOL    HW270351   1.385  12.276   5.521  0.1177  0.2615 -0.6843
21101SOL     OW70352   6.133  12.312  10.629 -0.3748 -0.3904 -0.0617
21101SOL    HW170353   6.088  12.246  10.577 -0.2852 -0.2592 -0.3046
21101SOL    HW270354   6.083  12.392  10.615 -0.1614 -0.2807 -0.2059
21102SOL     OW70355   7.398  11.123  11.198 -0.1014 -0.1796 -0.3501
21102SOL    HW170356   7.347  11.157  11.126 -2.7892 -0.6723  1.1844
21102SOL    HW270357   7.382  11.184  11.270  1.2968 -0.5181  0.2944
21103SOL     OW70358   8.088   4.553  12.179  0.4197 -0.1685  0.0101
21103SOL    HW170359   8.055   4.572  12.091 -0.3503  0.8963  0.5000
21103SOL    HW270360   8.103   4.458  12.179  0.2385 -0.2186 -1.1939
21104SOL     OW70361  10.212   9.913   2.629 -0.5295  0.7777 -0.1442
21104SOL    HW170362  10.252   9.833   2.663 -0.5213 -0.1616 -2.2200
21104SOL    HW270363  10.147   9.938   2.695 -2.6924 -2.6632 -0.7353
21105SOL     OW70364   4.055   2.042  11.418 -0.4717 -0.4277 -0.1702
21105SOL    HW170365   4.092   1.975  11.360 -1.2137 -0.6368 -0.4188
21105SOL    HW270366   4.129   2.095  11.444 -0.2365  0.2618 -2.0888
21106SOL     OW70367   9.411  11.176   8.211 -0.3025  0.0969  0.4527
21106SOL    HW170368   9.405  11.269   8.229  1.9993  0.5606 -0.7441
21106SOL    HW270369   9.463  11.141   8.284  0.1124  0.0553  0.1443
21107SOL     OW70370   5.487   0.942   2.140  0.0791  0.1063 -0.2665
21107SOL    HW170371   5.533   0.909   2.063 -0.3457 -0.1254 -0.4210
21107SOL    HW270372   5.501   1.037   2.138 -0.0091  0.1109 -0.6724
21108SOL     OW70373   8.708   0.509   7.360  0.4575 -0.4726 -0.0707
21108SOL    HW170374   8.750   0.555   7.287 -0.1954 -0.0603 -0.1988
21108SOL    HW270375   8.653   0.576   7.402 -0.8541 -1.2191 -0.5147
21109SOL     OW70376  11.669   5.282   1.359  0.2907  0.6212  0.1138
21109SOL    HW170377  11.696   5.204   1.409  1.7927  0.1200 -1.4117
21109SOL    HW270378  11.673   5.353   1.423 -1.0244 -0.4810  1.5251
21110SOL     OW70379   6.974   6.366  11.175  0.1518 -0.4272  0.1348
21110SOL    HW170380   6.959   6.460  11.176  0.4729 -0.3752  0.4780
21110SOL    HW270381   6.960   6.339  11.266 -0.1657 -0.7471 -0.0067
21111SOL     OW70382   4.050   0.375   0.751 -0.0646  0.0507 -0.3759
21111SOL    HW170383   3.956   0.389   0.741 -0.2280 -0.0931  0.7821
21111SOL    HW270384   4.089   0.462   0.746 -0.3029  0.1508 -0.4802
21112SOL     OW70385   2.384   0.087   4.333 -0.0977  0.1070  0.2799
21112SOL    HW170386   2.395   0.175   4.370 -0.7924  0.5125 -0.4477
21112SOL    HW270387   2.327   0.100   4.257  0.9215 -0.7611 -0.6797
21113SOL     OW70388   3.436   9.573   0.305 -0.1327  0.1632  0.4059
21113SOL    HW170389   3.475   9.502   0.355  2.6796 -0.4949 -2.4905
21113SOL    HW270390   3.344   9.547   0.295  0.3110 -1.9361  1.2596
21114SOL     OW70391   5.707   7.635  10.351  0.3941  0.3166  0.4184
21114SOL    HW170392   5.782   7.675  10.306 -1.2664  1.2812 -1.6961
21114SOL    HW270393   5.706   7.676  10.437  0.9408  2.0976 -0.3730
21115SOL     OW70394  10.261   4.928   5.633 -0.9427  0.5029 -0.3412
21115SOL    HW170395  10.278   4.850   5.581  0.7336  0.5045  0.1186
21115SOL    HW270396  10.258   4.999   5.570 -1.0789  0.2334 -0.6365
21116SOL     OW70397  11.275   2.186  11.785 -0.2332 -0.1648 -0.0929
21116SOL    HW170398  11.347   2.247  11.769 -0.0790 -0.1257  0.7074
21116SOL    HW270399  11.284   2.120  11.717  1.2727 -0.7871  0.6600
21117SOL     OW70400   5.466  11.219   6.384  0.0856  0.1399  0.4486
21117SOL    HW170401   5.432  11.175   6.462  0.9819  0.5089  1.0660
21117SOL    HW270402   5.504  11.301   6.418 -0.1802  0.6617 -0.4785
21118SOL     OW70403   0.111   0.917   9.770 -0.4522 -0.0094  0.0613
21118SOL    HW170404   0.179   0.851   9.787 -0.8522 -0.0075  1.8113
21118SOL    HW270405   0.159   0.992   9.736 -0.0543 -1.3700 -2.6339
21119SOL     OW70406   8.811   9.461  12.488 -0.4429 -0.7202  0.3903
21119SOL    HW170407   8.891   9.501  12.522  0.2579 -1.7118 -0.0631
21119SOL    HW270408   8.746   9.531  12.493  0.3068 -0.0565  1.2680
21120SOL     OW70409   4.834   0.506   1.731 -0.0479  0.5445 -0.7892
21120SOL    HW170410   4.884   0.578   1.769 -0.1234  0.9505 -1.4480
21120SOL    HW270411   4.779   0.475   1.803 -0.8528  1.8972 -0.7799
21121SOL     OW70412   2.340   0.788   7.683  0.1583  0.4564 -0.0758
21121SOL    HW170413   2.343   0.778   7.588 -1.5400 -2.9686  0.1008
21121SOL    HW270414   2.247   0.789   7.704  0.5138  0.5407  1.6421
21122SOL     OW70415   7.160   4.577   2.725  0.2042  0.1179 -0.3330
21122SOL    HW170416   7.081   4.538   2.685 -0.2663  1.4210 -0.7362
21122SOL    HW270417   7.137   4.669   2.738  1.0680  0.1511  1.1564
21123SOL     OW70418   9.675   8.940  12.175  0.3332 -0.0818 -0.0345
21123SOL    HW170419   9.584   8.968  12.182 -1.0077 -3.7923 -0.3225
21123SOL    HW270420   9.721   8.992  12.241 -2.4086  0.4818  1.5908
21124SOL     OW70421   2.854   8.810   6.496 -0.1423  0.0668  0.1052
21124SOL    HW170422   2.949   8.826   6.496 -0.0213 -0.6357  0.4929
21124SOL    HW270423   2.820   8.875   6.435  0.5858  0.3552 -0.0144
21125SOL     OW70424   7.390   5.907   8.377  0.0203  0.3186  0.2794
21125SOL    HW170425   7.356   5.846   8.443  0.1104  1.2622  1.2376
21125SOL    HW270426   7.409   5.987   8.427  2.5223  0.2395 -0.4122
21126SOL     OW70427   1.466   8.605   0.478 -0.3370  0.3315 -0.8176
21126SOL    HW170428   1.486   8.525   0.431 -0.0558  1.0884 -2.0166
21126SOL    HW270429   1.486   8.676   0.416 -0.3961  1.3371  0.2705
21127SOL     OW70430   1.233   3.006   6.219 -0.0580 -0.6495 -0.7015
21127SOL    HW170431   1.287   2.990   6.296 -2.1172 -1.9085  0.6149
21127SOL    HW270432   1.190   3.089   6.237 -1.6212 -1.6091  0.2890
21128SOL     OW70433   5.560   8.609   5.988 -0.3562  0.0035 -0.4410
21128SOL    HW170434   5.651   8.615   6.016 -0.7752  0.9158  0.8700
21128SOL    HW270435   5.556   8.658   5.906  0.3061  0.0870 -0.4273
21129SOL     OW70436  11.316  11.073   2.083 -0.1502  0.4212  0.1867
21129SOL    HW170437  11.296  10.981   2.066 -0.2277  0.4932 -0.1299
21129SOL    HW270438  11.281  11.091   2.170 -1.1385  0.4484 -0.2138
21130SOL     OW70439   7.052   6.442   9.516 -0.3442 -0.3206  0.9171
21130SOL    HW170440   7.007   6.416   9.436  0.0794 -1.1209  0.9259
21130SOL    HW270441   7.079   6.532   9.500 -0.1501 -0.5117  0.0999
21131SOL     OW70442   1.050   2.049   7.396  0.2794  0.0180 -0.6150
21131SOL    HW170443   1.126   2.039   7.339 -0.5768  3.2998 -2.5696
21131SOL    HW270444   0.976   2.062   7.336 -1.5646 -1.1814  1.2519
21132SOL     OW70445  10.753   7.677   4.484  0.0513 -0.2308  0.2753
21132SOL    HW170446  10.704   7.759   4.475 -0.2780 -0.4019  0.5135
21132SOL    HW270447  10.762   7.665   4.578 -1.3816 -1.3439  0.3020
21133SOL     OW70448   9.740   9.615   1.435  0.1299 -0.4170  0.2988
21133SOL    HW170449   9.680   9.587   1.504 -1.7765  1.2144 -0.5861
21133SOL    HW270450   9.696   9.590   1.354 -0.3159  2.4375 -0.4279
21134SOL     OW70451   0.326   1.079   3.182  0.3312  0.3351 -0.4598
21134SOL    HW170452   0.319   1.069   3.087 -0.4854 -0.4728 -0.3231
21134SOL    HW270453   0.319   1.174   3.197 -0.2059  0.4035 -1.1514
21135SOL     OW70454   5.900   3.820  11.470  0.4728  0.0235 -0.4920
21135SOL    HW170455   5.925   3.879  11.399  1.4826 -0.5953 -0.6695
21135SOL    HW270456   5.842   3.873  11.526 -1.1279  0.2380 -2.2530
21136SOL     OW70457   5.461   8.218   9.330  0.3623 -0.4707  0.3364
21136SOL    HW170458   5.410   8.297   9.349  0.8033 -0.4199  1.4041
21136SOL    HW270459   5.395   8.150   9.315 -0.0404  0.2576 -1.4872
21137SOL     OW70460  12.490  11.404   6.906  0.0232  0.0397  0.5442
21137SOL    HW170461  12.519  11.481   6.856 -0.3274 -0.3084 -0.2136
21137SOL    HW270462  12.460  11.440   6.990  0.1000  0.7014  0.2959
21138SOL     OW70463  11.796   4.767   7.536 -0.1968 -0.1548  0.3161
21138SOL    HW170464  11.800   4.690   7.480  0.7233  0.4454 -0.4644
21138SOL    HW270465  11.779   4.732   7.624 -0.9699 -1.1516 -0.2067
21139SOL     OW70466   2.575   4.151  10.824 -0.1729 -0.2760  0.6026
21139SOL    HW170467   2.616   4.172  10.907 -1.7884 -0.7186  1.5570
21139SOL    HW270468   2.584   4.231  10.772  0.3892  0.1851  1.3898
21140SOL     OW70469   2.620   0.064   9.865  0.1630 -0.1904 -0.3702
21140SOL    HW170470   2.692   0.019   9.909  0.4862  0.9997  0.3726
21140SOL    HW270471   2.615   0.149   9.908 -1.2158  0.0330 -0.9130
21141SOL     OW70472   2.789  12.071   0.924  0.0980 -0.5695  0.2390
21141SOL    HW170473   2.793  12.078   1.019 -2.3957  0.4500  0.3579
21141SOL    HW270474   2.875  12.037   0.898  1.1548 -0.0283  2.7555
21142SOL     OW70475  10.361   1.205   7.475  0.7538  0.2445 -0.1349
21142SOL    HW170476  10.330   1.197   7.565  1.3039 -0.5028  0.0033
21142SOL    HW270477  10.455   1.184   7.480  0.6842 -0.3398 -0.9461
21143SOL     OW70478   5.034   0.444   2.416 -0.0215 -0.2571 -0.2896
21143SOL    HW170479   5.082   0.362   2.428  1.3961  0.2333 -2.2746
21143SOL    HW270480   5.032   0.483   2.504  0.2714 -1.8450  0.4624
21144SOL     OW70481  10.987   1.076   0.807 -0.3652  0.5517 -0.1657
21144SOL    HW170482  10.918   1.090   0.872  0.4403  0.1978  0.7906
21144SOL    HW270483  11.000   1.162   0.767 -0.9818  0.7369  0.0196
21145SOL     OW70484   1.829  11.408   9.166  0.1550 -0.5171  0.1046
21145SOL    HW170485   1.913  11.372   9.135  1.4395  1.8774  0.5582
21145SOL    HW270486   1.834  11.402   9.261 -1.6906 -3.3376  0.1511
21146SOL     OW70487   2.094  11.288   3.121 -0.0797  0.0598  0.3968
21146SOL    HW170488   2.138  11.327   3.197 -1.2921  0.5713  0.8528
21146SOL    HW270489   2.153  11.217   3.094  0.0332 -0.6201  2.2807
21147SOL     OW70490   5.273   8.494   8.722  0.0999 -0.3871 -0.3851
21147SOL    HW170491   5.325   8.547   8.662  1.2820 -0.5748  0.4535
21147SOL    HW270492   5.312   8.510   8.808 -1.8857  0.2945  0.4487
21148SOL     OW70493   3.909   2.743   7.899 -0.2534 -0.2302  0.5196
21148SOL    HW170494   3.939   2.736   7.989  1.6762 -1.3276 -0.1465
21148SOL    HW270495   3.914   2.654   7.865 -2.3237 -0.0874 -0.2954
21149SOL     OW70496   9.712   0.414   2.116  0.5853 -0.5323  0.2419
21149SOL    HW170497   9.722   0.350   2.187 -0.3330 -1.3183 -0.2951
21149SOL    HW270498   9.721   0.362   2.036 -0.5491 -0.0758 -0.2089
21150SOL     OW70499   6.001   6.528   4.183  0.0421  0.3480 -0.4229
21150SOL    HW170500   6.033   6.552   4.270  0.6113 -2.0454  0.1054
21150SOL    HW270501   5.963   6.608   4.149  2.4877  2.1906  0.8001
21151SOL     OW70502   8.502   3.954   1.328  0.1298  0.5047 -0.5798
21151SOL    HW170503   8.459   3.935   1.244 -0.9703  0.6399 -0.0647
21151SOL    HW270504   8.567   3.884   1.337 -0.9195 -0.5471 -0.7428
21152SOL     OW70505   0.521   9.916   9.381  0.5437  0.8044  0.4200
21152SOL    HW170506   0.508   9.851   9.451 -0.9410 -0.1662 -0.6975
21152SOL    HW270507   0.452   9.980   9.395 -1.6993 -0.9621 -1.8012
21153SOL     OW70508   7.673  10.936   7.966  0.3874 -0.3283 -0.9196
21153SOL    HW170509   7.699  10.984   7.887  0.3337  1.0408 -0.1375
21153SOL    HW270510   7.656  11.004   8.031  0.0958 -1.4159  0.1842
21154SOL     OW70511  12.374   6.180   8.998 -0.0407  0.0050  0.0444
21154SOL    HW170512  12.456   6.152   9.039 -0.0252 -0.0526 -0.0261
21154SOL    HW270513  12.372   6.275   9.011  0.9501  0.2759 -1.5770
21155SOL     OW70514   7.579   2.943   1.876  0.1697  0.0573 -0.1876
21155SOL    HW170515   7.657   2.981   1.836  0.3207 -0.8288 -0.7622
21155SOL    HW270516   7.539   2.890   1.807 -0.8850  0.4054  0.1319
21156SOL     OW70517  10.678  10.566  10.434 -0.3084  0.5665 -0.0436
21156SOL    HW170518  10.757  10.617  10.450 -0.8462  1.5745 -0.4922
21156SOL    HW270519  10.709  10.489  10.386  0.6470 -0.0437  1.5032
21157SOL     OW70520   5.808   2.846   0.140 -0.6561 -0.1485  0.1838
21157SOL    HW170521   5.804   2.841   0.044 -2.7379  0.7015  0.1798
21157SOL    HW270522   5.800   2.755   0.169  0.2378 -0.4386 -0.4177
21158SOL     OW70523   4.553  11.696   5.297 -0.6835  0.2774  0.0606
21158SOL    HW170524   4.554  11.607   5.262  1.1423 -0.7147  2.3582
21158SOL    HW270525   4.491  11.692   5.370 -1.1156  1.1254 -0.2379
21159SOL     OW70526   0.138   4.396   6.210 -0.2410 -0.1762  0.0368
21159SOL    HW170527   0.054   4.371   6.247 -1.6395  0.8548 -2.2226
21159SOL    HW270528   0.122   4.480   6.168  1.0365 -1.2831 -3.0356
21160SOL     OW70529   4.152  10.066  12.594  1.0186 -0.3438  0.2089
21160SOL    HW170530   4.172  10.128  12.664  2.0765 -0.4290 -0.0052
21160SOL    HW270531   4.237  10.030  12.568  0.7473  0.2425 -1.6305
21161SOL     OW70532   2.433  10.972   0.536  0.6704  0.0684 -0.0921
21161SOL    HW170533   2.387  11.017   0.607  0.8272 -0.4227  0.3231
21161SOL    HW270534   2.465  11.042   0.480  0.5132  0.4578  0.3005
21162SOL     OW70535  11.708   6.753  11.792  0.0658  0.4430  0.0481
21162SOL    HW170536  11.784   6.725  11.741 -1.3844 -0.3161 -1.8269
21162SOL    HW270537  11.701   6.687  11.862  2.4336  1.8376  1.7322
21163SOL     OW70538   9.373   7.123   0.414  0.0836  0.1509  0.0890
21163SOL    HW170539   9.377   7.213   0.445  2.0216  0.3920 -0.7234
21163SOL    HW270540   9.431   7.120   0.339  1.3040 -2.1159  1.0039
21164SOL     OW70541  12.083  12.583   4.879  0.5475  0.2269 -0.1035
21164SOL    HW170542  12.085  12.504   4.824  1.5397  0.1032  0.0947
21164SOL    HW270543  12.170  12.621   4.869  0.9340 -0.0635  1.7687
21165SOL     OW70544  10.096   8.333   5.717 -0.1594 -0.3281 -0.7694
21165SOL    HW170545  10.166   8.395   5.695  0.9316 -1.7472 -1.4477
21165SOL    HW270546  10.015   8.382   5.702  0.6302  1.8047  1.3411
21166SOL     OW70547   1.324   8.820   3.365 -0.3516 -0.2015 -0.3164
21166SOL    HW170548   1.320   8.915   3.368  2.4322 -0.0073 -0.9459
21166SOL    HW270549   1.388   8.796   3.432 -0.1443 -1.5542 -0.9625
21167SOL     OW70550   8.546   2.032   8.646 -0.5621 -0.3650  0.3509
21167SOL    HW170551   8.463   2.029   8.693 -0.2302  2.5022  1.2882
21167SOL    HW270552   8.527   2.083   8.567 -0.0428 -1.1485 -0.3065
21168SOL     OW70553   9.399   1.692   3.810 -0.4768  0.2187  0.0388
21168SOL    HW170554   9.367   1.638   3.883  1.2995 -0.3161  0.4736
21168SOL    HW270555   9.346   1.666   3.735 -0.9026 -0.7891  0.6725
21169SOL     OW70556   6.581  11.858   1.297  0.0161 -0.1762  0.3209
21169SOL    HW170557   6.556  11.854   1.204 -0.4257  0.5814  0.4046
21169SOL    HW270558   6.499  11.869   1.344  0.0865 -1.8373  0.9266
21170SOL     OW70559   3.270   5.823   8.581  0.6097  0.3648 -0.4232
21170SOL    HW170560   3.287   5.743   8.631 -0.6015  0.2999 -0.0964
21170SOL    HW270561   3.175   5.833   8.583  0.7011  1.4805 -0.9897
21171SOL     OW70562   5.993  11.867   9.852  0.2320  0.4634 -0.1801
21171SOL    HW170563   5.908  11.910   9.863 -0.0003 -0.1019  0.3293
21171SOL    HW270564   6.057  11.936   9.866 -0.1363  0.7200  0.2780
21172SOL     OW70565   2.982  12.081   4.348 -0.0466 -0.1378  0.1325
21172SOL    HW170566   2.998  12.137   4.424 -2.3550  1.6792 -0.6152
21172SOL    HW270567   2.997  12.139   4.273 -0.3437 -1.1687 -0.7419
21173SOL     OW70568   2.699   3.737   0.663  0.1729 -0.5145 -0.4012
21173SOL    HW170569   2.639   3.802   0.698 -0.1335  0.2220 -2.2069
21173SOL    HW270570   2.756   3.715   0.737  1.6117  3.3220 -0.1606
21174SOL     OW70571   4.327   6.970   6.351 -0.5057 -0.9413  0.6215
21174SOL    HW170572   4.415   7.006   6.343 -0.7320 -0.1693  1.4199
21174SOL    HW270573   4.311   6.967   6.445 -1.9752  0.6057  0.4841
21175SOL     OW70574   9.567   7.608   8.802 -0.2079 -0.2233 -0.2331
21175SOL    HW170575   9.588   7.526   8.848  0.4901  0.1824  0.1735
21175SOL    HW270576   9.496   7.647   8.854 -0.6659 -0.6459 -0.5263
21176SOL     OW70577   9.826   9.715   8.973  0.0905  0.1739 -0.0062
21176SOL    HW170578   9.899   9.737   8.916  0.2855  0.4381  0.3462
21176SOL    HW270579   9.782   9.799   8.989  0.7782  0.3216  1.2610
21177SOL     OW70580   1.954   5.434  11.096  0.1151  0.7420 -0.0717
21177SOL    HW170581   1.963   5.349  11.054  2.4697  0.5865  0.6152
21177SOL    HW270582   1.867   5.432  11.136 -0.5447 -0.6548 -1.4704
21178SOL     OW70583  11.674   6.579   3.932  0.1193 -0.7193 -0.0077
21178SOL    HW170584  11.705   6.669   3.940 -0.0820 -0.7914  2.6504
21178SOL    HW270585  11.590   6.578   3.979  0.6080 -2.4872  0.9145
21179SOL     OW70586   5.457  11.652   2.234  0.1891 -0.0683 -0.4377
21179SOL    HW170587   5.397  11.653   2.160  0.0911  1.2717 -0.3546
21179SOL    HW270588   5.534  11.700   2.203  0.2227  0.3385  0.2608
21180SOL     OW70589   8.208   3.933   3.426  0.4407 -0.3122 -0.0452
21180SOL    HW170590   8.246   3.991   3.491  1.4915 -0.7374 -0.2573
21180SOL    HW270591   8.277   3.923   3.360 -0.2901 -0.5680 -0.7829
21181SOL     OW70592   4.452  11.126   8.613  0.1339 -0.9481  0.0485
21181SOL    HW170593   4.370  11.107   8.567  0.6265  0.9627 -1.8003
21181SOL    HW270594   4.509  11.053   8.590 -0.3338 -1.1206 -0.6221
21182SOL     OW70595  10.358   2.690   8.310  0.2810  0.3359 -0.5952
21182SOL    HW170596  10.403   2.725   8.387 -0.5326  0.1687 -0.0253
21182SOL    HW270597  10.296   2.759   8.286  0.6986  0.4904 -1.2656
21183SOL     OW70598   4.672   4.860  12.454 -0.0644 -0.5144  0.2580
21183SOL    HW170599   4.667   4.895  12.365 -0.3714  0.3833  0.6213
21183SOL    HW270600   4.762   4.878  12.482  0.0004 -0.7023  0.1764
21184SOL     OW70601  10.187   6.185   3.900 -0.0437 -0.2483 -0.3909
21184SOL    HW170602  10.266   6.239   3.892 -1.2603  1.6365 -0.3319
21184SOL    HW270603  10.172   6.179   3.995  0.2674 -0.9797 -0.3854
21185SOL     OW70604  12.023   2.636   7.503  0.0341  0.0350 -0.0622
21185SOL    HW170605  12.022   2.670   7.414  0.7540 -0.1787 -0.1617
21185SOL    HW270606  12.103   2.672   7.542 -0.8303  1.0203  0.8602
21186SOL     OW70607   1.020   5.966   9.783 -0.2156 -0.1038 -0.9887
21186SOL    HW170608   1.079   6.039   9.766  0.9662 -0.7926  0.0347
21186SOL    HW270609   0.960   5.999   9.850 -0.4950  0.3291 -1.4436
21187SOL     OW70610   8.072   6.571   5.684  0.1643  0.1083  0.1812
21187SOL    HW170611   8.103   6.548   5.772  1.6768 -1.0901 -0.6035
21187SOL    HW270612   8.018   6.496   5.658  0.1817  0.2007 -0.1196
21188SOL     OW70613  10.210   3.745   6.855 -0.0788 -0.0266 -0.2427
21188SOL    HW170614  10.289   3.711   6.896 -0.4113 -0.0159  0.4300
21188SOL    HW270615  10.222   3.729   6.762 -0.5064 -2.6022  0.0817
21189SOL     OW70616  10.656   8.350   8.673 -0.1631  0.7780  0.1313
21189SOL    HW170617  10.670   8.375   8.582 -0.5352 -0.0163 -0.1590
21189SOL    HW270618  10.653   8.254   8.671 -0.9824  0.7747  0.8503
21190SOL     OW70619   0.836   0.147   6.381 -0.3365 -0.1368 -0.4756
21190SOL    HW170620   0.790   0.143   6.297 -1.4256  1.5123 -0.0021
21190SOL    HW270621   0.814   0.234   6.416  0.1440 -0.7632  1.4822
21191SOL     OW70622   0.048   2.717   1.220  0.5713 -0.0338 -0.6846
21191SOL    HW170623   0.110   2.669   1.273 -0.4839  0.5512  1.1574
21191SOL    HW270624   0.085   2.806   1.214 -0.2030  0.4042  0.6914
21192SOL     OW70625   6.956   4.917   4.654 -0.1864 -0.0508  0.2137
21192SOL    HW170626   6.895   4.912   4.728  0.5481  0.1610  0.8447
21192SOL    HW270627   6.910   4.873   4.582 -1.4957  0.9477  0.3933
21193SOL     OW70628   6.557  10.044   6.911 -0.4093  0.1327  0.2747
21193SOL    HW170629   6.464  10.043   6.889 -0.5769  0.0832  0.9945
21193SOL    HW270630   6.591   9.961   6.875 -0.7679 -0.1425  0.5666
21194SOL     OW70631   2.843   2.991   0.802 -0.1587  0.2470  0.6924
21194SOL    HW170632   2.816   3.083   0.797 -0.5397  0.1706  1.2425
21194SOL    HW270633   2.834   2.958   0.712  4.1047  1.8384 -0.5924
21195SOL     OW70634   1.422  11.090   1.690 -0.0867 -0.1529 -0.2581
21195SOL    HW170635   1.502  11.114   1.643  1.2341  0.6388  2.1658
21195SOL    HW270636   1.390  11.012   1.646  2.0746 -0.5224 -1.3134
21196SOL     OW70637  10.886   8.846   2.449  0.3778 -0.4878 -0.5749
21196SOL    HW170638  10.883   8.929   2.495 -0.9736 -0.3862 -0.8024
21196SOL    HW270639  10.893   8.780   2.518 -1.4109 -0.3228 -0.1960
21197SOL     OW70640  12.567   6.078   7.670 -0.4599  0.6391  0.3186
21197SOL    HW170641  12.496   6.032   7.714 -2.2008  1.2807 -1.6827
21197SOL    HW270642  12.534   6.167   7.657 -0.0021  0.5294 -2.0708
21198SOL     OW70643  12.232   7.442   2.312  0.0964  0.3902  0.5419
21198SOL    HW170644  12.241   7.353   2.278 -0.0326 -0.6202  2.9174
21198SOL    HW270645  12.321   7.468   2.334 -0.0447  0.0981  1.5129
21199SOL     OW70646   9.335   8.178   7.821  0.1008 -0.4044 -0.2134
21199SOL    HW170647   9.407   8.212   7.875  0.8795  0.4750 -1.7432
21199SOL    HW270648   9.288   8.118   7.879  3.1627 -2.4881  0.3450
21200SOL     OW70649   8.306   3.004   3.470  0.7383 -0.1012 -0.3430
21200SOL    HW170650   8.319   2.920   3.515 -0.8666 -1.4160 -2.2021
21200SOL    HW270651   8.380   3.058   3.499  1.2418 -1.7774  1.7144
21201SOL     OW70652   8.090   4.696   6.852  0.2709 -0.2254 -0.2433
21201SOL    HW170653   8.172   4.697   6.803  0.9771  2.4429  0.8434
21201SOL    HW270654   8.024   4.720   6.787  0.9071  1.2563 -0.3708
21202SOL     OW70655   1.592   3.357  10.876 -0.8758  0.2294  0.1495
21202SOL    HW170656   1.622   3.266  10.878  0.6471  0.6818 -0.5324
21202SOL    HW270657   1.506   3.353  10.835 -0.8845 -0.9149  0.2392
21203SOL     OW70658   2.071  10.240   9.656  0.1815 -0.7807 -0.0807
21203SOL    HW170659   2.138  10.284   9.709 -0.7671 -0.7644  1.1351
21203SOL    HW270660   2.090  10.146   9.667  2.1122 -0.8018 -2.5546
21204SOL     OW70661   5.102  11.836   1.338 -0.5149 -0.2021 -0.5261
21204SOL    HW170662   5.092  11.928   1.363  2.0315  0.1991 -0.7161
21204SOL    HW270663   5.039  11.789   1.393  0.7505  1.2566  2.4198
21205SOL     OW70664  10.532  10.310   5.811 -0.2096 -0.0692  0.1820
21205SOL    HW170665  10.564  10.246   5.875  0.0846  0.5951  0.7095
21205SOL    HW270666  10.522  10.391   5.861  0.1447  0.4933 -0.6372
21206SOL     OW70667  11.556   8.014   5.598 -0.0191  0.3711  0.5834
21206SOL    HW170668  11.637   8.054   5.632 -0.2337  0.4614  0.9975
21206SOL    HW270669  11.506   7.991   5.676 -0.7381  1.0276  0.3286
21207SOL     OW70670   7.862   4.219   0.208 -0.2537  0.3190  0.2875
21207SOL    HW170671   7.799   4.164   0.162 -0.4015  2.0452 -1.7359
21207SOL    HW270672   7.809   4.272   0.268 -0.5223  0.5494 -0.1514
21208SOL     OW70673  10.218   6.627   6.339  0.5217 -0.0622  0.9058
21208SOL    HW170674  10.210   6.723   6.340  0.8964 -0.0253  0.6597
21208SOL    HW270675  10.252   6.607   6.252 -1.5986 -0.5938  0.1431
21209SOL     OW70676  10.998   3.780  12.008  0.5132  0.3783 -0.2657
21209SOL    HW170677  11.029   3.853  11.955  0.0821  0.4132 -0.4743
21209SOL    HW270678  11.031   3.798  12.096  0.9771  0.4746 -0.4524
21210SOL     OW70679   0.447   1.852   2.182  0.4415 -0.4437 -0.1592
21210SOL    HW170680   0.382   1.905   2.135 -0.2042 -1.7010 -0.7249
21210SOL    HW270681   0.460   1.776   2.126  2.5810 -0.1273 -0.1483
21211SOL     OW70682   5.481   0.283   4.334  0.2638 -0.1972  0.1643
21211SOL    HW170683   5.564   0.298   4.288 -0.8644 -0.1821 -1.9933
21211SOL    HW270684   5.453   0.370   4.363  0.0422  0.0835 -0.8704
21212SOL     OW70685   3.846  11.264   8.284 -0.0145  0.5397  0.1723
21212SOL    HW170686   3.795  11.264   8.203 -0.0567  0.4188  0.1992
21212SOL    HW270687   3.781  11.275   8.354  0.1971  3.0296  0.0749
21213SOL     OW70688   4.712   6.433   0.211 -0.0984  0.3688 -0.0009
21213SOL    HW170689   4.756   6.348   0.208  0.4584  0.5944  1.2203
21213SOL    HW270690   4.623   6.413   0.238  0.2740  0.2340  1.1892
21214SOL     OW70691   6.626   1.983   4.118  0.0056  0.1558 -0.5308
21214SOL    HW170692   6.604   1.923   4.190 -1.5300  0.5961 -0.5841
21214SOL    HW270693   6.662   1.927   4.049 -0.5922 -0.5845 -0.2497
21215SOL     OW70694   8.147   7.415   8.599 -0.1366  0.3049 -0.4303
21215SOL    HW170695   8.087   7.346   8.571 -0.9507  0.3888  1.0230
21215SOL    HW270696   8.212   7.420   8.529  0.2054 -2.2421 -0.3708
21216SOL     OW70697   9.560   5.473   8.717  0.0393 -0.2359  0.0892
21216SOL    HW170698   9.635   5.470   8.657  0.1547 -0.7098  0.2591
21216SOL    HW270699   9.503   5.540   8.679  0.4844  0.0325 -0.1149
21217SOL     OW70700   9.424   2.329   3.459  0.2068  0.1472  0.2147
21217SOL    HW170701   9.506   2.376   3.473  0.2957  0.3247 -0.8220
21217SOL    HW270702   9.386   2.370   3.382  0.2377 -1.3841 -0.6660
21218SOL     OW70703   4.174   0.447   8.027  0.3595  0.0387  0.7399
21218SOL    HW170704   4.111   0.412   7.963  1.3470  0.1033 -0.3015
21218SOL    HW270705   4.255   0.399   8.009  0.8151  0.4808  1.5584
21219SOL     OW70706   4.508   1.667   4.462  0.3716 -0.0816  0.3792
21219SOL    HW170707   4.559   1.610   4.405  0.9129 -0.8627  1.6059
21219SOL    HW270708   4.420   1.668   4.422  0.7645 -0.4735 -0.5318
21220SOL     OW70709   6.451   6.753   0.426  0.2089  0.2431  0.3080
21220SOL    HW170710   6.399   6.762   0.347  0.3370  3.7582  0.4820
21220SOL    HW270711   6.387   6.745   0.497  0.0761 -0.9346  0.0834
21221SOL     OW70712   3.657   4.888  11.097 -0.2601  0.2136  0.0027
21221SOL    HW170713   3.576   4.841  11.116 -0.5750 -0.7382 -3.1269
21221SOL    HW270714   3.644   4.974  11.137 -1.9318 -0.5661  1.3028
21222SOL     OW70715   0.288  10.604   0.670  0.2811 -0.4102 -0.3761
21222SOL    HW170716   0.344  10.681   0.680  0.9210 -0.8185 -0.7481
21222SOL    HW270717   0.243  10.617   0.587 -0.7337  0.2572  0.2539
21223SOL     OW70718   0.367  11.108   6.749  0.6311 -0.0419 -0.8389
21223SOL    HW170719   0.376  11.065   6.665 -0.3739 -0.0793 -0.9389
21223SOL    HW270720   0.279  11.085   6.779  0.7118  0.5439 -0.1106
21224SOL     OW70721   8.643   9.148   5.877  0.3516  0.0272 -0.1906
21224SOL    HW170722   8.663   9.165   5.785  0.4669  3.0720  0.3090
21224SOL    HW270723   8.547   9.145   5.880  0.3497 -0.1887 -0.4207
21225SOL     OW70724   2.283   3.437  11.853 -0.1206 -0.2961 -0.1335
21225SOL    HW170725   2.284   3.416  11.946 -1.6125  3.0093  0.8051
21225SOL    HW270726   2.190   3.438  11.830 -0.1424  2.8724 -0.4453
21226SOL     OW70727   7.201   3.444  12.108 -0.0028  0.4610  0.0889
21226SOL    HW170728   7.163   3.392  12.179  1.1955  1.6732  1.6973
21226SOL    HW270729   7.149   3.524  12.107  0.4077  0.7280  0.0654
21227SOL     OW70730   6.660   6.696   9.976  0.2126 -0.1707  0.5501
21227SOL    HW170731   6.699   6.689  10.063 -0.3108 -0.0977  0.7960
21227SOL    HW270732   6.583   6.640   9.980  1.3561 -1.9286 -0.5603
21228SOL     OW70733  11.644   9.533   9.896 -0.3807 -1.1270 -0.5343
21228SOL    HW170734  11.700   9.604   9.927 -2.2439 -0.3758  1.2788
21228SOL    HW270735  11.706   9.465   9.869  1.4605 -0.7462  2.3130
21229SOL     OW70736   3.980   3.787  11.972  0.0970  0.2354 -0.0379
21229SOL    HW170737   3.989   3.876  12.004 -0.2651 -0.3180  1.7188
21229SOL    HW270738   3.920   3.745  12.034  0.2604 -1.2300 -0.8194
21230SOL     OW70739   0.201   4.610   0.147  0.0886  0.1945 -0.2243
21230SOL    HW170740   0.203   4.635   0.055  0.8278 -1.0440 -0.5791
21230SOL    HW270741   0.146   4.676   0.189 -0.1353  0.8697 -1.5196
21231SOL     OW70742   8.136   5.891   7.038  0.3365 -0.4980  0.0559
21231SOL    HW170743   8.144   5.928   6.951  0.3895 -0.3455  0.1248
21231SOL    HW270744   8.210   5.830   7.045  0.9732  0.2868  0.3820
21232SOL     OW70745   7.694   3.748   0.814 -0.1969  0.1943  0.4336
21232SOL    HW170746   7.659   3.761   0.726 -1.4133  1.3933  1.0633
21232SOL    HW270747   7.666   3.660   0.838 -1.9681  0.7600  0.5380
21233SOL     OW70748   8.107   4.033   6.097  0.0483 -0.6240  0.0463
21233SOL    HW170749   8.199   4.056   6.110 -0.1459  1.1483 -1.3214
21233SOL    HW270750   8.073   4.019   6.186  1.1921  0.6424  0.7295
21234SOL     OW70751  11.022   8.037   4.554  0.1833  0.2172 -0.1475
21234SOL    HW170752  11.093   8.059   4.616  0.0890  0.0319  0.0266
21234SOL    HW270753  10.943   8.068   4.597 -0.2138 -2.2431  1.0425
21235SOL     OW70754   1.737   6.976   7.090 -0.2749  0.2183  0.0189
21235SOL    HW170755   1.664   6.968   7.152  1.1548 -0.7240  1.6791
21235SOL    HW270756   1.813   6.995   7.146  1.2297 -1.4763 -1.3396
21236SOL     OW70757   9.288  11.038   5.089 -0.4857  0.1655  0.0639
21236SOL    HW170758   9.257  11.121   5.127 -0.8311 -0.8192  2.0716
21236SOL    HW270759   9.297  10.980   5.164 -0.6608 -1.7600 -1.3434
21237SOL     OW70760   1.460   6.689  10.883 -0.1570 -0.4897 -0.4307
21237SOL    HW170761   1.381   6.738  10.909 -0.1162 -0.2812 -0.6944
21237SOL    HW270762   1.504   6.746  10.820  0.1161 -0.6822 -0.4168
21238SOL     OW70763   2.550   7.959   7.403 -0.2768  0.3050  0.5068
21238SOL    HW170764   2.459   7.935   7.417 -0.0066 -1.3404 -0.3267
21238SOL    HW270765   2.547   8.050   7.374 -1.8187 -0.2455 -1.2486
21239SOL     OW70766   2.557  12.336  12.084 -0.7598 -0.2620 -0.0145
21239SOL    HW170767   2.545  12.248  12.120 -0.7341 -0.6467 -0.9217
21239SOL    HW270768   2.632  12.371  12.132 -0.6497 -0.8039  0.2168
21240SOL     OW70769   6.415   7.421   3.870 -0.1344  0.3589  0.0285
21240SOL    HW170770   6.433   7.401   3.962 -0.1689  1.0881  0.1961
21240SOL    HW270771   6.490   7.386   3.822  0.2633  0.6890  0.4119
21241SOL     OW70772  10.165   8.386   4.055  0.0306 -0.3846  0.3318
21241SOL    HW170773  10.252   8.350   4.071  0.5178  0.9123  0.7093
21241SOL    HW270774  10.108   8.309   4.050  1.1340 -1.2314  0.4236
21242SOL     OW70775   1.089   6.292   2.426 -0.3227  0.0387 -0.4729
21242SOL    HW170776   1.087   6.387   2.443  0.4865 -0.4929  3.6733
21242SOL    HW270777   0.999   6.270   2.402 -0.5721  1.7991 -1.3272
21243SOL     OW70778   4.636   0.763   1.096  0.4817  0.2229  0.1677
21243SOL    HW170779   4.715   0.788   1.048 -0.9230  4.2696 -0.4357
21243SOL    HW270780   4.569   0.755   1.028 -0.1645 -0.6294  0.8920
21244SOL     OW70781   3.353   4.496  11.026  0.2966 -0.2585  0.1746
21244SOL    HW170782   3.400   4.520  10.946  0.7718  1.0368  0.8136
21244SOL    HW270783   3.262   4.515  11.007  0.3124 -0.6182 -0.2900
21245SOL     OW70784   8.477   6.214   2.514  0.1404 -0.0224 -0.1782
21245SOL    HW170785   8.386   6.243   2.505  0.1623  0.4897  1.0028
21245SOL    HW270786   8.481   6.177   2.603  0.9700 -0.4769 -0.3988
21246SOL     OW70787   4.870   9.653   4.535  0.1621  0.1149 -0.5722
21246SOL    HW170788   4.875   9.729   4.593  0.8476 -0.0365 -0.4261
21246SOL    HW270789   4.779   9.625   4.540 -0.0758  0.8698 -0.5516
21247SOL     OW70790  11.978   0.743   9.326 -0.2605  0.4275 -0.4349
21247SOL    HW170791  11.943   0.659   9.295  1.0059 -0.8912  1.4711
21247SOL    HW270792  11.906   0.782   9.375 -0.5047 -0.1066 -0.3597
21248SOL     OW70793   3.252   3.408   3.401 -0.6037 -0.1535 -0.4047
21248SOL    HW170794   3.337   3.450   3.417 -1.4392  1.7361 -0.7174
21248SOL    HW270795   3.275   3.317   3.381  1.2162 -0.1054  1.1359
21249SOL     OW70796   2.681  10.860   0.658 -0.4911 -0.5806 -0.3666
21249SOL    HW170797   2.613  10.922   0.631 -0.1121 -0.2896 -0.6751
21249SOL    HW270798   2.633  10.782   0.686 -1.0025  0.0733  0.6251
21250SOL     OW70799   7.439   8.475   7.377  0.2345 -0.2830  0.0794
21250SOL    HW170800   7.459   8.451   7.467 -1.3093 -0.4391  0.4040
21250SOL    HW270801   7.507   8.432   7.325  0.7844 -0.6910  1.1088
21251SOL     OW70802   0.018   4.384   5.267  0.0751  0.0356  0.3898
21251SOL    HW170803  -0.032   4.346   5.194 -0.6552  0.6801  0.5428
21251SOL    HW270804   0.022   4.477   5.247  1.0139  0.0242  0.5143
21252SOL     OW70805  11.789   1.981   1.110 -0.1710 -0.1838 -0.3693
21252SOL    HW170806  11.833   1.910   1.064  0.5233  0.3235 -0.5006
21252SOL    HW270807  11.699   1.979   1.078  0.0314 -0.5326 -0.9200
21253SOL     OW70808   6.976  11.920  10.696  0.0863 -0.4849 -0.2555
21253SOL    HW170809   6.910  11.990  10.700  0.8097  0.3922 -2.3495
21253SOL    HW270810   6.999  11.915  10.603  1.5919 -2.0870  0.1696
21254SOL     OW70811   5.891   7.775  11.010  0.6404 -0.4390 -0.2422
21254SOL    HW170812   5.925   7.818  10.932 -0.0784 -1.1186 -0.9374
21254SOL    HW270813   5.878   7.846  11.073  0.1584  0.2710 -1.1216
21255SOL     OW70814   9.461   5.981   4.219 -0.0580  0.3878 -0.0734
21255SOL    HW170815   9.483   5.986   4.126 -3.3302  0.5380 -0.9685
21255SOL    HW270816   9.498   5.898   4.248  0.1972 -0.1397 -1.7937
21256SOL     OW70817   9.898   9.553   2.718 -0.0232  0.5455  0.1831
21256SOL    HW170818   9.943   9.605   2.784  2.6584 -2.3413  0.8711
21256SOL    HW270819   9.951   9.474   2.710 -1.8126 -0.4980 -3.4036
21257SOL     OW70820   5.508   4.788   8.956 -0.2828 -0.3477  0.0383
21257SOL    HW170821   5.422   4.829   8.945  0.0093  0.5257  0.8718
21257SOL    HW270822   5.498   4.701   8.917 -1.1300  0.2371 -1.1467
21258SOL     OW70823  11.875   3.508   6.677  0.5209  0.1423 -0.2640
21258SOL    HW170824  11.838   3.445   6.739 -0.1151 -0.4891 -1.2616
21258SOL    HW270825  11.815   3.507   6.603  0.4729  1.9548 -0.3129
21259SOL     OW70826   4.057   5.239   0.232 -0.4164  0.8916 -0.7579
21259SOL    HW170827   3.966   5.227   0.258 -0.0370  0.5416  0.4318
21259SOL    HW270828   4.052   5.266   0.140 -1.7879  2.3304 -0.2957
21260SOL     OW70829   8.616   5.375  12.333 -0.0636 -0.4262  0.4117
21260SOL    HW170830   8.653   5.328  12.408 -0.6507  1.3958  1.9209
21260SOL    HW270831   8.692   5.417  12.292  0.1637 -0.7822  0.4611
21261SOL     OW70832  10.971   4.432   9.091  0.0758  0.8135 -0.2373
21261SOL    HW170833  10.923   4.505   9.053 -0.8525  0.3736  0.0495
21261SOL    HW270834  11.037   4.473   9.147 -1.5691  1.4565  1.3160
21262SOL     OW70835   0.213   9.709  10.453  0.1191 -0.1109  0.1063
21262SOL    HW170836   0.276   9.644  10.421  0.6844 -1.3834  3.4022
21262SOL    HW270837   0.268   9.780  10.486 -0.2365 -0.4313  1.4018
21263SOL     OW70838   1.850  12.103   4.247  0.1019  0.6164 -0.1830
21263SOL    HW170839   1.874  12.139   4.332 -0.4594 -0.2360  0.3515
21263SOL    HW270840   1.760  12.074   4.258 -0.1444  0.9531 -1.2274
21264SOL     OW70841   4.516   5.179   5.585 -0.0406  0.0905 -0.0987
21264SOL    HW170842   4.567   5.162   5.506  2.2556 -0.9395  1.4820
21264SOL    HW270843   4.503   5.274   5.586  2.2258  0.4538 -0.4307
21265SOL     OW70844   7.731  10.435   0.202  0.4455 -0.2401 -0.2470
21265SOL    HW170845   7.697  10.506   0.257  3.9613 -0.0001  1.9251
21265SOL    HW270846   7.707  10.355   0.249 -0.3296 -0.2986 -0.7322
21266SOL     OW70847   1.136   6.391   5.922  0.0674  0.4954  0.3177
21266SOL    HW170848   1.082   6.450   5.976  0.9166  0.0091  1.7660
21266SOL    HW270849   1.226   6.416   5.943  0.4205 -0.5052  0.0149
21267SOL     OW70850   7.668   9.225   8.871 -0.7605 -0.1464  0.3499
21267SOL    HW170851   7.744   9.176   8.839  0.6141  0.9649  1.7762
21267SOL    HW270852   7.602   9.158   8.888 -0.0038 -1.1712 -0.6124
21268SOL     OW70853   2.806   7.809   2.854  0.1797 -0.1605  0.3727
21268SOL    HW170854   2.862   7.775   2.784 -0.4609  0.4938 -0.4911
21268SOL    HW270855   2.800   7.903   2.836 -1.2276 -0.2243  0.4019
21269SOL     OW70856   5.596   0.083   3.353 -0.4470  0.5036 -0.1763
21269SOL    HW170857   5.636   0.001   3.323 -0.6451  0.8605 -1.4669
21269SOL    HW270858   5.634   0.097   3.439  0.3240 -0.4545 -0.3365
21270SOL     OW70859  11.166  11.614   9.119 -0.2311  0.0975 -0.2398
21270SOL    HW170860  11.215  11.552   9.172 -0.6672 -0.0860 -0.0459
21270SOL    HW270861  11.229  11.648   9.056  0.0466 -0.4239 -0.2426
21271SOL     OW70862   3.411   2.559   2.395  0.0924  0.1528 -0.2359
21271SOL    HW170863   3.394   2.468   2.417 -0.2948 -0.9963 -4.3949
21271SOL    HW270864   3.325   2.601   2.401  0.6183  1.0417  3.9730
21272SOL     OW70865  10.793   5.603   6.369 -0.0160 -0.4104  0.0601
21272SOL    HW170866  10.731   5.669   6.338 -1.4024 -1.4440  0.5308
21272SOL    HW270867  10.766   5.522   6.326  1.2271 -0.8356  0.0299
21273SOL     OW70868  12.116   0.430  11.896 -0.1645 -0.6190  0.0847
21273SOL    HW170869  12.200   0.476  11.885  0.2988 -1.3499  0.4872
21273SOL    HW270870  12.141   0.341  11.921 -1.0388 -1.1661 -0.9129
21274SOL     OW70871   5.055   1.496   0.651  0.3747  0.1755 -0.4628
21274SOL    HW170872   4.991   1.554   0.692  0.2518  0.2927 -0.8187
21274SOL    HW270873   5.037   1.502   0.558 -1.0256 -2.0255 -0.4137
21275SOL     OW70874   9.311   6.502  10.872  0.9382 -0.2283 -0.0754
21275SOL    HW170875   9.316   6.543  10.785  2.0181  1.2316  0.6362
21275SOL    HW270876   9.401   6.473  10.890  1.3628  1.9506  1.6582
21276SOL     OW70877   5.136  10.069   8.941 -0.5417  0.1955 -0.2327
21276SOL    HW170878   5.098  10.000   8.995  0.3127 -0.2695 -0.2105
21276SOL    HW270879   5.128  10.148   8.994 -2.8150  0.4323 -0.8141
21277SOL     OW70880  11.719   5.282   9.179  0.0474  0.0351  0.6890
21277SOL    HW170881  11.810   5.293   9.206 -0.5183  2.5484  1.9426
21277SOL    HW270882  11.696   5.193   9.205  1.7168 -0.1572  1.6552
21278SOL     OW70883   8.268   7.464   7.698  0.4183  0.1680  0.0462
21278SOL    HW170884   8.291   7.386   7.749  0.9185  0.2458 -0.0553
21278SOL    HW270885   8.300   7.537   7.752  0.4283  0.2766 -0.1070
21279SOL     OW70886   0.591   6.633   0.975 -0.0854 -0.1576  0.9387
21279SOL    HW170887   0.613   6.717   0.935 -0.3787 -0.3881  0.2848
21279SOL    HW270888   0.542   6.586   0.908 -2.7492  0.3981  2.3808
21280SOL     OW70889  10.021   1.758   7.984  0.8627  0.2295  0.4003
21280SOL    HW170890  10.109   1.747   7.950  0.0595  0.6750 -2.0208
21280SOL    HW270891  10.012   1.852   8.001  0.8645  0.1779  0.6977
21281SOL     OW70892  11.756   6.874   1.180 -0.2313  0.2751  0.2244
21281SOL    HW170893  11.849   6.886   1.201 -0.5084  1.6579  0.7699
21281SOL    HW270894  11.718   6.835   1.258 -0.3025  0.7475  0.4342
21282SOL     OW70895   8.434   2.925   3.107  0.2320 -0.0751  0.4713
21282SOL    HW170896   8.343   2.955   3.119  0.8865  1.2028  2.7044
21282SOL    HW270897   8.436   2.838   3.147 -0.7863 -1.8228 -2.8411
21283SOL     OW70898   3.442   1.706  11.484 -0.6932  0.1636 -0.1853
21283SOL    HW170899   3.425   1.748  11.568  0.5468 -0.5004  0.4351
21283SOL    HW270900   3.483   1.622  11.507  1.0733  0.6062 -1.4475
21284SOL     OW70901   3.612   5.983   1.862 -0.3443  0.0366 -0.1212
21284SOL    HW170902   3.633   6.049   1.928 -1.8517 -1.6493  2.2010
21284SOL    HW270903   3.697   5.943   1.841  0.3820  1.6952 -0.4967
21285SOL     OW70904   2.882   6.440  11.649 -0.1721  0.1382 -0.0753
21285SOL    HW170905   2.920   6.356  11.674 -0.8843  0.5275  2.5952
21285SOL    HW270906   2.790   6.420  11.630 -0.2521  0.2632  0.1824
21286SOL     OW70907   6.804   6.127   2.976  0.2985  0.5531  0.6073
21286SOL    HW170908   6.895   6.157   2.976 -0.5178  3.3368  0.9221
21286SOL    HW270909   6.762   6.178   3.045 -1.4725 -0.8474  0.6298
21287SOL     OW70910   8.850   6.513   6.409  0.0841 -0.3274 -0.2176
21287SOL    HW170911   8.930   6.529   6.459  0.4725 -0.0445 -0.9186
21287SOL    HW270912   8.850   6.581   6.342  0.1027 -1.3264 -1.2551
21288SOL     OW70913   5.158   5.443   0.073 -0.1587  0.4558  0.0805
21288SOL    HW170914   5.111   5.470   0.152 -1.2166 -0.5168 -0.1910
21288SOL    HW270915   5.241   5.408   0.106 -0.1961  0.9139  0.6787
21289SOL     OW70916   4.921  11.456  12.079 -0.2849 -0.1567  0.0899
21289SOL    HW170917   4.936  11.550  12.072 -0.2764 -0.2495 -1.6415
21289SOL    HW270918   4.857  11.447  12.150  0.4747  1.0487  0.9625
21290SOL     OW70919   4.936  10.252   2.312 -0.1836  0.3888  0.3633
21290SOL    HW170920   4.958  10.218   2.226 -1.6042 -0.1045  0.1673
21290SOL    HW270921   4.928  10.347   2.300  0.1290  0.3769  0.0724
21291SOL     OW70922   7.264  11.447   2.871 -0.2851  0.4984 -0.4465
21291SOL    HW170923   7.224  11.522   2.827  0.6128  0.7400 -0.8735
21291SOL    HW270924   7.323  11.409   2.806 -0.4443 -0.3604 -0.1108
21292SOL     OW70925   0.473   8.035   8.215  0.1007 -0.1324 -0.5326
21292SOL    HW170926   0.421   8.066   8.289  0.3840 -1.9224  0.4868
21292SOL    HW270927   0.441   8.085   8.140 -1.3845  0.5246  0.4958
21293SOL     OW70928   2.894  11.444   9.308 -0.0152 -0.4831 -0.2391
21293SOL    HW170929   2.975  11.428   9.356 -1.4367 -1.6961  1.9281
21293SOL    HW270930   2.884  11.369   9.250  0.2640 -0.4812 -0.2876
21294SOL     OW70931   1.745   3.389   7.410 -0.9791 -0.1517 -1.1777
21294SOL    HW170932   1.674   3.367   7.350 -2.6798 -1.8381  1.2591
21294SOL    HW270933   1.780   3.304   7.438  0.2678  0.5898 -0.3676
21295SOL     OW70934   5.878   9.316   6.682  0.3297 -0.2195  0.6784
21295SOL    HW170935   5.930   9.357   6.613  0.1060 -0.2510  0.4881
21295SOL    HW270936   5.895   9.369   6.760  0.2045  0.1154  0.4808
21296SOL     OW70937   6.762   7.458   5.280 -0.6731 -0.7344 -0.1604
21296SOL    HW170938   6.718   7.377   5.307 -1.0538 -0.2285  0.8037
21296SOL    HW270939   6.855   7.439   5.290 -0.6972 -1.4420 -1.1189
21297SOL     OW70940   5.877   5.547   1.900  0.5762 -0.3292  0.0008
21297SOL    HW170941   5.934   5.592   1.837  0.6870  1.7420  1.4747
21297SOL    HW270942   5.899   5.587   1.984 -0.7032 -1.8785  1.1121
21298SOL     OW70943   3.903   2.975   6.889  0.4151 -0.1493  0.0284
21298SOL    HW170944   3.906   2.967   6.984  0.7539  1.5724  0.1959
21298SOL    HW270945   3.982   2.930   6.858  1.6305  1.3751  0.7733
21299SOL     OW70946   0.296   9.826   9.094  0.1121 -0.2512  0.0807
21299SOL    HW170947   0.314   9.737   9.125  1.1373 -0.3798 -0.8488
21299SOL    HW270948   0.378   9.856   9.056 -0.8651  0.1450 -1.8752
21300SOL     OW70949   2.547  12.267   2.903  0.4409  0.3217 -0.5502
21300SOL    HW170950   2.538  12.224   2.988 -1.0988 -0.9281 -1.2939
21300SOL    HW270951   2.640  12.259   2.881  0.6787 -0.1547  0.5897
21301SOL     OW70952   8.136   0.416   6.029  0.2203 -0.1309  0.1449
21301SOL    HW170953   8.056   0.390   6.075  1.2819 -2.7407  0.6869
21301SOL    HW270954   8.122   0.508   6.006 -2.4119 -0.1709  1.2742
21302SOL     OW70955   0.011   9.021  11.780  0.5826  0.0927 -0.3989
21302SOL    HW170956  -0.070   8.972  11.763  0.4887  1.2003 -3.9521
21302SOL    HW270957  -0.008   9.073  11.857 -1.4073 -1.0737 -0.0388
21303SOL     OW70958  10.045   6.518   5.341  0.3372 -0.5048 -0.0020
21303SOL    HW170959  10.038   6.525   5.436  0.3036 -0.0325 -0.0399
21303SOL    HW270960  10.052   6.424   5.324  2.5336 -0.5040  0.6212
21304SOL     OW70961   9.989   1.467   4.387 -0.0431  0.5324 -0.0924
21304SOL    HW170962  10.061   1.411   4.417  0.6734  0.6685 -1.4689
21304SOL    HW270963  10.009   1.552   4.426  0.2457  0.4396 -0.0281
21305SOL     OW70964   7.574   2.385   5.315 -0.0297  0.2333  0.8246
21305SOL    HW170965   7.538   2.439   5.386 -0.1383 -0.1983  1.0960
21305SOL    HW270966   7.497   2.361   5.263  0.0896  0.8716  0.3249
21306SOL     OW70967   7.349   7.354   7.234 -0.4264 -0.0604  0.1488
21306SOL    HW170968   7.372   7.301   7.158 -0.8709  0.5662 -0.4339
21306SOL    HW270969   7.431   7.394   7.261 -0.6865  1.8717 -1.6925
21307SOL     OW70970   5.014   9.748   8.758  0.2230 -0.1215  0.3866
21307SOL    HW170971   4.976   9.747   8.670  1.5503 -2.6766 -0.2451
21307SOL    HW270972   5.095   9.797   8.748 -0.4540  1.0904  0.6276
21308SOL     OW70973   0.077   5.215   8.444 -0.4937  0.1757 -0.3993
21308SOL    HW170974   0.163   5.189   8.477 -0.6775 -1.1704 -0.9033
21308SOL    HW270975   0.066   5.305   8.473  0.7540  0.1102  0.3397
21309SOL     OW70976  12.134   6.352   8.265 -0.1306 -0.3286  0.0646
21309SOL    HW170977  12.194   6.287   8.229 -1.8014 -1.1405 -1.4614
21309SOL    HW270978  12.116   6.322   8.354  1.0381 -0.5199  0.2539
21310SOL     OW70979   0.656   2.969   8.621 -0.0316 -0.1902  0.4758
21310SOL    HW170980   0.569   3.001   8.647  0.6466  0.2402  2.3192
21310SOL    HW270981   0.689   3.035   8.561 -1.0719 -0.5011 -0.4782
21311SOL     OW70982   1.312   8.859   5.810  0.3321  0.5003  0.3319
21311SOL    HW170983   1.230   8.849   5.762  0.5862 -1.2073  0.2007
21311SOL    HW270984   1.358   8.929   5.764 -0.3521  0.3545 -0.6036
21312SOL     OW70985   3.318   2.591   3.175  0.4038  0.1242 -0.3264
21312SOL    HW170986   3.269   2.509   3.174  0.7056 -0.0850  0.7919
21312SOL    HW270987   3.319   2.619   3.083 -0.2524 -0.7832 -0.6307
21313SOL     OW70988   8.547   5.089   8.541  0.4467  0.0965 -0.4144
21313SOL    HW170989   8.527   5.027   8.610  0.7798 -0.2684 -0.6420
21313SOL    HW270990   8.556   5.173   8.586  0.0730 -0.0296 -0.0980
21314SOL     OW70991   0.038   5.729   2.562  0.4633  0.2361 -0.3608
21314SOL    HW170992  -0.030   5.662   2.549  0.5008 -0.3341  1.9459
21314SOL    HW270993   0.042   5.741   2.657  3.3494  0.5260 -0.4395
21315SOL     OW70994   3.099   3.969  10.391 -0.3499 -0.2215 -0.0673
21315SOL    HW170995   3.159   3.909  10.347 -1.2478 -1.3300  0.1892
21315SOL    HW270996   3.039   3.913  10.439 -0.4899  0.9088  1.1623
21316SOL     OW70997   0.619  10.374   2.253 -0.3267  0.1195  0.1748
21316SOL    HW170998   0.555  10.337   2.314  0.0037 -1.0252 -0.1485
21316SOL    HW270999   0.595  10.336   2.168  0.8135 -0.3815  0.0620
21317SOL     OW71000   9.713   0.514   8.135  0.0757 -0.9466 -0.5012
21317SOL    HW171001   9.670   0.476   8.211  1.0176  1.4017  1.3068
21317SOL    HW271002   9.788   0.456   8.119  0.7557 -0.6658  1.3777
21318SOL     OW71003   2.259  11.066   0.729  0.2679  0.7594 -0.4615
21318SOL    HW171004   2.251  11.107   0.815  0.7337  1.7695 -0.8829
21318SOL    HW271005   2.224  10.978   0.741 -0.2539  1.0962  0.6054
21319SOL     OW71006   5.159   7.845   0.177  0.1921  0.2053 -0.3406
21319SOL    HW171007   5.119   7.878   0.258  0.4617 -1.7973  0.6813
21319SOL    HW271008   5.215   7.773   0.206 -0.1742 -0.9862 -2.3838
21320SOL     OW71009   3.366   8.058   1.534 -0.2221  0.2033  0.4679
21320SOL    HW171010   3.429   8.013   1.477  0.0045 -0.9530  1.6092
21320SOL    HW271011   3.408   8.143   1.551  0.2419  0.1120 -0.1412
21321SOL     OW71012   4.948   1.568   6.084 -0.0786 -0.5221  0.2152
21321SOL    HW171013   4.939   1.523   6.000 -1.8359 -0.6499  0.4177
21321SOL    HW271014   4.965   1.659   6.060 -0.8050 -0.5097 -0.3081
21322SOL     OW71015   8.864   8.138   9.148  0.3283 -0.4162 -0.5134
21322SOL    HW171016   8.790   8.129   9.208  0.0472 -0.0736 -0.8038
21322SOL    HW271017   8.941   8.138   9.204  0.1863 -1.9085 -0.2877
21323SOL     OW71018   9.530  11.679   8.632 -0.8213 -0.1063  0.7291
21323SOL    HW171019   9.500  11.622   8.561 -1.2058  0.0169  0.7883
21323SOL    HW271020   9.576  11.620   8.692 -0.6568 -0.2432  0.4709
21324SOL     OW71021   0.874   1.836  12.458 -0.1690 -0.3253 -0.7768
21324SOL    HW171022   0.854   1.899  12.389  0.1472  0.9598  0.2667
21324SOL    HW271023   0.928   1.885  12.520  0.8720 -1.8933 -0.3870
21325SOL     OW71024   0.395   7.414   1.876 -0.2819  0.0218  0.8714
21325SOL    HW171025   0.480   7.373   1.893 -0.9172 -1.9567 -0.3690
21325SOL    HW271026   0.353   7.417   1.962  1.1040  1.3569  1.5753
21326SOL     OW71027   7.696  10.622   9.026  0.7542  0.1128  0.2989
21326SOL    HW171028   7.756  10.658   8.962  1.5397 -1.4698  0.1105
21326SOL    HW271029   7.622  10.589   8.974  0.2781  0.9467  0.4279
21327SOL     OW71030   8.861  10.847  12.355 -0.2855  0.6374 -0.1424
21327SOL    HW171031   8.767  10.835  12.368 -0.5676  1.4789 -1.2962
21327SOL    HW271032   8.890  10.898  12.431 -0.6571 -0.0324  0.4607
21328SOL     OW71033   2.131   7.899   1.201  0.7615 -0.6719 -0.5281
21328SOL    HW171034   2.129   7.854   1.286  0.9237 -1.2849 -0.8353
21328SOL    HW271035   2.040   7.920   1.182  0.9455  1.8367  0.9926
21329SOL     OW71036   9.762   3.099   0.605  0.7680 -0.2926  0.1385
21329SOL    HW171037   9.694   3.145   0.653  0.2081  1.4716 -2.1621
21329SOL    HW271038   9.778   3.019   0.655 -1.7802  0.0596  1.6409
21330SOL     OW71039  12.082   5.069  10.880 -0.5284 -0.1542  0.1339
21330SOL    HW171040  12.101   5.073  10.786 -1.5400  1.0911 -0.0409
21330SOL    HW271041  12.165   5.095  10.922  1.3029 -4.6203 -0.1609
21331SOL     OW71042   9.209  12.340  10.411 -0.0186 -0.0270  0.7531
21331SOL    HW171043   9.234  12.280  10.340 -1.1970 -1.1400  1.2356
21331SOL    HW271044   9.287  12.344  10.467  0.2804 -0.6734  0.4030
21332SOL     OW71045   3.258   8.627   2.487  0.1949 -0.2913 -0.3217
21332SOL    HW171046   3.167   8.633   2.458 -0.2210 -0.1992  0.9447
21332SOL    HW271047   3.267   8.698   2.551  0.9480 -0.7569  0.0974
21333SOL     OW71048   8.911   2.420   6.547  0.3523 -0.3489  0.3798
21333SOL    HW171049   8.930   2.326   6.554  0.1167 -0.4254  0.0058
21333SOL    HW271050   8.816   2.425   6.546  0.3245  0.0059  1.8706
21334SOL     OW71051   0.070  11.296   5.265 -0.1833 -0.0112 -0.2247
21334SOL    HW171052   0.085  11.387   5.291  1.3994 -0.6768  1.4214
21334SOL    HW271053  -0.023  11.280   5.283  0.0087  0.6879  1.5158
21335SOL     OW71054   7.275   3.142   2.971  0.5282 -0.0840  0.4201
21335SOL    HW171055   7.310   3.152   2.883  1.0369  1.7224  0.7743
21335SOL    HW271056   7.216   3.067   2.966 -0.6097  0.8740 -1.8263
21336SOL     OW71057  11.250  10.904   6.683 -0.4002  0.0699 -0.8525
21336SOL    HW171058  11.244  10.810   6.667  1.4155 -0.1241 -0.6867
21336SOL    HW271059  11.291  10.940   6.604  3.2972 -0.0597  0.7620
21337SOL     OW71060   7.145   9.035  12.183  0.8855 -0.8994 -0.1619
21337SOL    HW171061   7.103   8.992  12.257 -1.4615  1.1614 -0.1477
21337SOL    HW271062   7.218   9.084  12.221  0.6384 -1.0653  0.5344
21338SOL     OW71063   4.898   7.031   2.390 -0.1467  0.3049  0.0081
21338SOL    HW171064   4.976   7.059   2.343 -0.1972  0.5689  0.0764
21338SOL    HW271065   4.921   6.946   2.428  0.5353  0.9251  1.0383
21339SOL     OW71066   4.037   8.965   6.788  0.7246 -0.0733 -0.9568
21339SOL    HW171067   4.000   8.906   6.853  0.0866  0.2542 -1.0135
21339SOL    HW271068   4.014   8.926   6.703 -0.4207  0.6661 -1.0072
21340SOL     OW71069   2.664   7.078  12.262 -0.2949  0.1771 -0.2220
21340SOL    HW171070   2.700   7.095  12.348  1.2546  3.3323 -1.3677
21340SOL    HW271071   2.740   7.067  12.205 -1.2739 -2.2075 -1.2219
21341SOL     OW71072   4.925   9.703   7.815 -0.1993  0.2892  0.3842
21341SOL    HW171073   4.964   9.747   7.890  1.4049 -1.2636  0.5437
21341SOL    HW271074   4.966   9.744   7.739 -1.8980  1.9321  0.2639
21342SOL     OW71075   7.726   1.630   5.804 -0.0493  0.3789  0.0253
21342SOL    HW171076   7.664   1.598   5.869 -0.3019 -1.9223 -1.2437
21342SOL    HW271077   7.688   1.713   5.774 -1.3821  0.0882  0.8112
21343SOL     OW71078  12.306   3.372   8.813  0.2591  0.0815 -0.1583
21343SOL    HW171079  12.305   3.314   8.737 -0.2560 -0.6138  0.3698
21343SOL    HW271080  12.250   3.328   8.877  0.7889  0.5998  0.6666
21344SOL     OW71081   2.507   9.349  10.800  0.1352 -0.0170  0.2147
21344SOL    HW171082   2.581   9.380  10.749 -0.4833 -0.3502 -0.9111
21344SOL    HW271083   2.443   9.319  10.735 -0.2481 -1.4458  1.1921
21345SOL     OW71084   5.293   1.018  10.593  0.4789 -0.6938 -0.0160
21345SOL    HW171085   5.198   1.027  10.589  0.4451 -0.8124  0.4589
21345SOL    HW271086   5.321   1.086  10.654  0.6547 -0.9355  0.1763
21346SOL     OW71087   4.147   8.938   1.310  0.5445 -0.0762  0.6695
21346SOL    HW171088   4.085   8.865   1.315  0.6154 -0.1145  1.0431
21346SOL    HW271089   4.223   8.901   1.266  0.0725  0.1399 -0.3631
21347SOL     OW71090   5.108   9.746   9.415  0.2352 -0.3260 -0.1682
21347SOL    HW171091   5.195   9.732   9.452  0.2154 -0.2012 -0.0718
21347SOL    HW271092   5.063   9.801   9.480 -0.1619 -0.9893  0.1297
21348SOL     OW71093   6.103   9.821  10.877 -0.0734  0.5669  0.2617
21348SOL    HW171094   6.173   9.869  10.922 -0.0045  0.9553 -0.2475
21348SOL    HW271095   6.036   9.887  10.861  0.2884  0.6370 -1.0023
21349SOL     OW71096  12.490   5.498   0.667 -0.2548  0.3718  0.3246
21349SOL    HW171097  12.497   5.592   0.686 -0.3870  0.1031  1.7421
21349SOL    HW271098  12.513   5.454   0.748  1.7874 -0.9129 -0.8548
21350SOL     OW71099   2.704   7.130   5.949 -0.0066 -0.2135 -0.3357
21350SOL    HW171100   2.660   7.046   5.961 -0.9068  0.2257 -0.4686
21350SOL    HW271101   2.740   7.127   5.860 -1.7174  0.2744 -1.0823
21351SOL     OW71102  12.185   7.879   1.230 -0.1795 -0.4625 -0.2388
21351SOL    HW171103  12.256   7.935   1.200 -1.1856  0.1486 -1.6360
21351SOL    HW271104  12.155   7.834   1.151 -1.6796 -0.2753  0.1788
21352SOL     OW71105   9.661   2.955  10.553  0.2194 -0.2916  0.2346
21352SOL    HW171106   9.587   2.955  10.613  0.3131  1.0359  0.3692
21352SOL    HW271107   9.693   3.045  10.553  0.3560 -0.2970 -1.6519
21353SOL     OW71108   8.583   0.011  10.373 -0.2395  0.6767 -0.2150
21353SOL    HW171109   8.560  -0.059  10.435 -1.2985 -0.5031 -1.8659
21353SOL    HW271110   8.558   0.092  10.419  0.3338 -0.0400  1.4484
21354SOL     OW71111   8.830   5.140   7.487 -0.5832 -0.2763 -0.3733
21354SOL    HW171112   8.850   5.105   7.574  0.0457  1.0201  0.0217
21354SOL    HW271113   8.915   5.164   7.450 -0.9714  0.6428 -0.7102
21355SOL     OW71114  10.309   6.861   7.997 -0.0297 -0.4895 -0.2291
21355SOL    HW171115  10.348   6.862   7.910 -0.5806 -1.4379 -0.5041
21355SOL    HW271116  10.367   6.804   8.048 -0.2099 -0.6640 -0.2205
21356SOL     OW71117   1.330   5.622   1.538  0.2167  0.1125  0.2682
21356SOL    HW171118   1.408   5.572   1.561  1.5720  1.1087 -1.8029
21356SOL    HW271119   1.277   5.563   1.485  0.3301 -0.0674  0.3568
21357SOL     OW71120   6.013   7.043   4.808  0.3544  0.1490 -0.1784
21357SOL    HW171121   6.055   6.959   4.793 -1.5720 -0.5020 -2.4847
21357SOL    HW271122   6.073   7.107   4.770  0.3087 -0.5366 -1.4500
21358SOL     OW71123  10.134   9.800  10.155 -0.5594 -0.1754 -0.0226
21358SOL    HW171124  10.116   9.731  10.091 -1.6728 -0.4483  0.5486
21358SOL    HW271125  10.094   9.768  10.236  0.2937  0.4369  0.6642
21359SOL     OW71126   8.109   0.578  11.131 -0.4443  0.0324  0.0007
21359SOL    HW171127   8.023   0.605  11.163 -0.8261 -2.2477  1.0435
21359SOL    HW271128   8.111   0.484  11.145  1.8559 -0.1039 -0.9485
21360SOL     OW71129  11.131  11.361   8.980 -0.6962  0.1926  0.0828
21360SOL    HW171130  11.184  11.318   9.048  2.4522 -0.2532 -2.4226
21360SOL    HW271131  11.145  11.455   8.994  2.4022  0.0894 -1.5328
21361SOL     OW71132   2.376  10.296  11.518  0.0238  0.2964 -0.8416
21361SOL    HW171133   2.413  10.359  11.579 -0.6796  0.4038 -0.5126
21361SOL    HW271134   2.441  10.289  11.448 -0.2375  2.0336 -1.3228
21362SOL     OW71135   5.615   7.096   9.337  0.0845 -0.1152 -0.5714
21362SOL    HW171136   5.646   7.057   9.419  1.8961  2.1217 -0.0948
21362SOL    HW271137   5.661   7.048   9.268  1.1231  0.1857 -0.0953
21363SOL     OW71138  10.121  11.075   0.271  0.2770 -0.7898 -0.3693
21363SOL    HW171139  10.179  11.106   0.201  1.5210  1.2043  1.4129
21363SOL    HW271140  10.037  11.117   0.251  0.3489 -0.9916 -1.1589
21364SOL     OW71141   8.528  10.932   8.158 -0.2540 -0.0968  0.2378
21364SOL    HW171142   8.512  10.880   8.079  2.5333 -2.5258  1.1126
21364SOL    HW271143   8.448  10.920   8.210 -0.1275 -2.8551 -0.0236
21365SOL     OW71144   6.548   5.967   1.567 -0.2862 -0.0671  0.6484
21365SOL    HW171145   6.571   6.059   1.552  1.3465 -0.4869  0.4802
21365SOL    HW271146   6.496   5.969   1.648 -1.4140  1.1326 -0.0507
21366SOL     OW71147   7.997   1.897   9.238 -0.1456  0.0268  0.2257
21366SOL    HW171148   7.919   1.860   9.197 -0.2578  2.0674 -1.6106
21366SOL    HW271149   7.966   1.980   9.275  0.7365 -0.1228  1.3325
21367SOL     OW71150   4.705  11.284   5.043  0.7550  0.3043 -0.1741
21367SOL    HW171151   4.767  11.303   4.973  2.6357 -1.2368  0.9679
21367SOL    HW271152   4.679  11.193   5.028  1.7486 -0.2834  1.5004
21368SOL     OW71153   4.848   9.400   8.749 -0.1251  0.3533  0.7637
21368SOL    HW171154   4.831   9.476   8.694 -0.5969 -0.7980 -0.7491
21368SOL    HW271155   4.850   9.326   8.689 -0.3980 -0.9479  2.2691
21369SOL     OW71156   2.699   8.405   6.343  0.2731  0.2352 -0.1563
21369SOL    HW171157   2.772   8.447   6.388  1.4881  1.0147 -2.6394
21369SOL    HW271158   2.730   8.316   6.325 -1.0508 -0.8145  2.2776
21370SOL     OW71159  12.520   3.496   6.439 -0.7939  0.7333 -0.2760
21370SOL    HW171160  12.499   3.499   6.346  2.3224  0.0764 -1.1172
21370SOL    HW271161  12.520   3.587   6.467  0.3472  1.1487 -1.5103
21371SOL     OW71162   2.289   8.386   3.686  0.0797 -0.2721  0.3983
21371SOL    HW171163   2.268   8.333   3.762 -0.2372  0.3146  0.7262
21371SOL    HW271164   2.204   8.410   3.649  0.1232  1.5623  1.3456
21372SOL     OW71165   4.300   7.466   3.509  0.4465 -0.0776 -0.4039
21372SOL    HW171166   4.334   7.392   3.559  0.1155 -0.7095 -1.0964
21372SOL    HW271167   4.207   7.470   3.531  0.4982  0.2412 -0.2393
21373SOL     OW71168   8.742  11.144   3.391  0.0748 -0.3740  0.1018
21373SOL    HW171169   8.802  11.086   3.437 -2.9983 -0.8980  4.0311
21373SOL    HW271170   8.715  11.094   3.314  1.0152 -2.1567  0.8646
21374SOL     OW71171  12.082   0.613   6.720 -0.1314  0.1425 -0.0028
21374SOL    HW171172  12.033   0.554   6.662 -0.1046  0.4926 -0.3896
21374SOL    HW271173  12.026   0.690   6.728  0.2814  0.4811 -0.3176
21375SOL     OW71174   6.072   1.340  11.649  0.3406  0.4585 -0.5643
21375SOL    HW171175   6.050   1.333  11.741  0.1055  0.9844 -0.5723
21375SOL    HW271176   6.146   1.281  11.636 -0.3776 -0.5020 -0.2987
21376SOL     OW71177   6.550   9.486   0.881  0.6809  0.2511  0.7216
21376SOL    HW171178   6.603   9.527   0.812  1.0987 -1.5996 -0.1135
21376SOL    HW271179   6.466   9.467   0.838  1.1129 -1.3595  0.5534
21377SOL     OW71180  11.958   0.224   1.782 -0.4816  0.2169 -0.2932
21377SOL    HW171181  11.991   0.163   1.848 -0.2578  0.2573 -0.3687
21377SOL    HW271182  11.868   0.195   1.766 -0.8420  0.7333  0.6707
21378SOL     OW71183   1.482   0.548   3.542 -0.5327 -0.3275  0.2256
21378SOL    HW171184   1.392   0.562   3.514 -0.5612 -0.1959  0.3831
21378SOL    HW271185   1.484   0.576   3.633 -0.4381 -0.7552  0.3557
21379SOL     OW71186   0.736   5.065  11.353  0.3078 -0.2692 -0.4181
21379SOL    HW171187   0.669   4.999  11.331  0.1923 -0.0178 -0.8383
21379SOL    HW271188   0.704   5.145  11.311 -0.6407  0.5991  1.8194
21380SOL     OW71189   1.793   3.431   2.304  0.0978  0.1795  0.8318
21380SOL    HW171190   1.845   3.380   2.242  0.3346 -0.2808  1.4019
21380SOL    HW271191   1.811   3.522   2.281 -1.7341  0.0799 -1.3819
21381SOL     OW71192   5.408   0.375  10.160  0.3024  0.0553  0.6251
21381SOL    HW171193   5.434   0.313  10.091  2.5812  0.0929  1.3667
21381SOL    HW271194   5.441   0.460  10.130  0.1045  0.3182  1.1372
21382SOL     OW71195   9.613   5.453  11.650  0.0249  0.4388  0.7879
21382SOL    HW171196   9.604   5.358  11.641 -1.4740  0.7410 -2.0816
21382SOL    HW271197   9.556   5.475  11.724 -0.1301 -0.8155  1.0673
21383SOL     OW71198   1.308   5.305   6.178  0.0807 -0.6637 -0.2037
21383SOL    HW171199   1.322   5.270   6.266 -0.5786  2.4474  1.2558
21383SOL    HW271200   1.318   5.400   6.187 -2.9951  0.1037 -2.8227
21384SOL     OW71201   0.514   2.641   4.794  0.2335  0.1767  0.3062
21384SOL    HW171202   0.513   2.623   4.700 -3.4656 -0.3203  0.2913
21384SOL    HW271203   0.456   2.575   4.831  1.4441  0.5005  2.9512
21385SOL     OW71204   7.522   7.464   4.493  0.2528 -0.0142  0.2005
21385SOL    HW171205   7.512   7.386   4.439  0.5575  0.4828 -0.5842
21385SOL    HW271206   7.609   7.454   4.533  0.7432  0.4245 -0.7323
21386SOL     OW71207   6.145   0.372   1.782 -0.2544  0.4758 -0.1204
21386SOL    HW171208   6.140   0.409   1.694 -0.5207 -0.5685 -0.5559
21386SOL    HW271209   6.225   0.319   1.782 -0.1252  0.6547  0.3551
21387SOL     OW71210   4.168   6.812  11.688  0.2661 -0.6254 -0.1225
21387SOL    HW171211   4.080   6.843  11.666  0.3455 -1.3383 -1.5810
21387SOL    HW271212   4.180   6.837  11.779 -1.9239 -1.5426  0.4973
21388SOL     OW71213   6.917   6.397   4.002  0.1728  0.1582  0.0512
21388SOL    HW171214   6.877   6.468   4.052 -0.0025 -0.6425  1.0825
21388SOL    HW271215   6.856   6.381   3.930 -0.2909  0.3775  0.3896
21389SOL     OW71216   3.570   0.727   3.590 -0.1601 -0.0467 -0.1387
21389SOL    HW171217   3.504   0.662   3.614  0.7721 -1.4511 -1.2736
21389SOL    HW271218   3.548   0.752   3.500  1.9250 -2.0055 -1.2894
21390SOL     OW71219   3.087  11.334  12.301 -0.2503  0.3675 -0.0130
21390SOL    HW171220   3.088  11.419  12.346 -0.6075  0.9237 -1.0255
21390SOL    HW271221   3.142  11.347  12.224  0.2326 -0.5255  0.1760
21391SOL     OW71222   2.377  11.869   3.711  0.2796  0.0502  0.0423
21391SOL    HW171223   2.373  11.785   3.757  0.5685 -0.2511 -0.4784
21391SOL    HW271224   2.307  11.921   3.751 -1.0672 -1.0302 -0.7976
21392SOL     OW71225   9.201   0.116   6.606 -0.1418  0.0731  0.3215
21392SOL    HW171226   9.235   0.164   6.530 -0.9759  1.2512  0.6586
21392SOL    HW271227   9.128   0.169   6.636 -2.4319 -2.4236 -0.4788
21393SOL     OW71228  10.601  10.326   8.194 -0.0856  0.1327  0.4047
21393SOL    HW171229  10.584  10.420   8.197 -0.2834  0.1100  0.0177
21393SOL    HW271230  10.695  10.317   8.209 -0.1448  0.3611  0.9315
21394SOL     OW71231  10.595   4.960   1.884  0.1353  0.5497 -0.2850
21394SOL    HW171232  10.661   4.950   1.816  1.0605 -1.0959  0.7900
21394SOL    HW271233  10.566   4.871   1.904 -2.2867  1.2063 -0.5532
21395SOL     OW71234  12.570   5.117   0.215 -0.1509  0.2427  0.2743
21395SOL    HW171235  12.541   5.163   0.294  0.1457  0.3436  0.3250
21395SOL    HW271236  12.502   5.135   0.150 -0.5285 -0.0529  0.5800
21396SOL     OW71237   0.131   2.288  10.364  0.0457 -0.6460 -0.2651
21396SOL    HW171238   0.050   2.336  10.379  1.1650  1.1352  0.4658
21396SOL    HW271239   0.137   2.228  10.439  0.2249  0.4511  0.6276
21397SOL     OW71240   6.597  12.096   9.920  0.6642 -0.3175  0.1148
21397SOL    HW171241   6.665  12.164   9.926  1.5580 -1.0163 -1.4991
21397SOL    HW271242   6.529  12.126   9.981  1.2682  1.7325 -0.1177
21398SOL     OW71243   9.277   2.705   6.983 -0.1831  0.0654  0.4287
21398SOL    HW171244   9.266   2.688   6.890 -1.5762 -1.8607  0.8837
21398SOL    HW271245   9.188   2.703   7.019  0.4259 -0.6736  2.0095
21399SOL     OW71246   6.943   9.566   6.756  0.7889  0.5946 -0.0533
21399SOL    HW171247   6.883   9.510   6.706  0.9869  0.1378  0.2217
21399SOL    HW271248   7.028   9.554   6.714  1.2153 -0.7497  1.1515
21400SOL     OW71249   6.210   3.420   7.957 -0.5423 -0.2043 -0.2388
21400SOL    HW171250   6.246   3.366   7.887  1.0300 -0.2170  0.5482
21400SOL    HW271251   6.217   3.365   8.035  0.6915  0.9380  0.4985
21401SOL     OW71252   4.981   9.384   9.830 -0.3502 -0.1685  0.2520
21401SOL    HW171253   4.992   9.459   9.888 -0.3922 -0.8682  1.1850
21401SOL    HW271254   4.975   9.422   9.742 -1.5129  1.0070  0.8073
21402SOL     OW71255   9.928   2.900   1.901 -0.0348  0.0948 -0.4503
21402SOL    HW171256   9.989   2.848   1.848  0.8788 -0.1897  0.8253
21402SOL    HW271257   9.967   2.900   1.988 -0.3559  2.4033 -0.2589
21403SOL     OW71258   0.342   8.275   6.606  0.2207 -0.0510  0.3358
21403SOL    HW171259   0.363   8.346   6.546  0.2621 -1.0402 -0.8820
21403SOL    HW271260   0.250   8.255   6.588  0.3846 -0.7143  0.2015
21404SOL     OW71261  12.522  10.585   8.259  0.4781  1.0525  0.2175
21404SOL    HW171262  12.466  10.663   8.266 -0.4260  0.3778  0.6899
21404SOL    HW271263  12.610  10.620   8.243  0.3779  2.2511  1.9686
21405SOL     OW71264   1.776   8.903   1.508  0.0532  0.2086  0.4530
21405SOL    HW171265   1.821   8.820   1.490 -1.0598 -0.3288  0.1083
21405SOL    HW271266   1.729   8.923   1.427 -0.1786  0.8587  0.7466
21406SOL     OW71267   3.185  12.425  11.387 -0.4598 -0.0552 -0.0968
21406SOL    HW171268   3.277  12.399  11.391 -1.1481 -2.7059  0.3883
21406SOL    HW271269   3.147  12.391  11.468 -2.2629 -0.7220 -1.1748
21407SOL     OW71270   5.791   0.967  11.666  0.4079  0.3674 -0.4335
21407SOL    HW171271   5.825   1.056  11.662  3.1115 -0.5780 -0.4140
21407SOL    HW271272   5.847   0.917  11.607 -2.4304 -0.9755 -2.2109
21408SOL     OW71273  11.513   3.296   2.817 -0.2496 -0.0838 -0.1712
21408SOL    HW171274  11.511   3.365   2.883  0.1784 -0.8602  0.6787
21408SOL    HW271275  11.566   3.227   2.856  0.7723 -0.2102 -1.6935
21409SOL     OW71276  12.226   6.857   7.006  0.0301  0.1844  0.2350
21409SOL    HW171277  12.193   6.887   6.920  1.0744  0.3962 -0.1027
21409SOL    HW271278  12.187   6.919   7.068  0.5278  1.0063 -0.2525
21410SOL     OW71279   9.469   7.979   6.463 -0.2042  0.1270  0.1732
21410SOL    HW171280   9.407   8.051   6.453 -1.1770 -0.6893  0.1678
21410SOL    HW271281   9.543   8.018   6.511  0.3200  1.6931 -1.7727
21411SOL     OW71282   6.802   7.375   1.043  0.3414  0.1522  0.2465
21411SOL    HW171283   6.749   7.297   1.028  0.4798  0.1651 -0.3592
21411SOL    HW271284   6.877   7.364   0.983 -0.3859  1.4501 -0.9597
21412SOL     OW71285  10.112  11.947  12.283  0.1365 -0.3540  0.2847
21412SOL    HW171286  10.030  11.955  12.331  1.4044  0.2326  2.4862
21412SOL    HW271287  10.088  11.963  12.192 -1.9202  1.5141  1.0703
21413SOL     OW71288  12.551   5.613  11.978 -0.0611 -0.1643 -0.3070
21413SOL    HW171289  12.576   5.676  12.045  1.9275  0.7029 -1.7705
21413SOL    HW271290  12.575   5.528  12.015  2.6435  0.4246 -0.5112
21414SOL     OW71291   0.267   2.431   2.836 -0.2692 -0.1822 -0.3350
21414SOL    HW171292   0.226   2.452   2.920  1.4061  2.3746 -0.0267
21414SOL    HW271293   0.292   2.339   2.844 -0.2064 -0.0343  1.9679
21415SOL     OW71294   9.749   7.744   3.164 -0.2303  0.1880 -0.3998
21415SOL    HW171295   9.738   7.786   3.079  0.0778 -0.7164 -0.8978
21415SOL    HW271296   9.798   7.663   3.145  1.5979  0.9212  0.8767
21416SOL     OW71297   9.490   9.051   0.955  0.1277  0.2407  0.2927
21416SOL    HW171298   9.520   8.972   1.000 -0.5980  0.2465  0.8214
21416SOL    HW271299   9.395   9.052   0.971  0.3506  2.1217  1.7714
21417SOL     OW71300   4.211   8.117   1.521 -0.0489 -0.3151 -0.0515
21417SOL    HW171301   4.164   8.082   1.597 -0.2252  2.0086  0.9687
21417SOL    HW271302   4.304   8.109   1.544 -0.1062  0.7410  0.6246
21418SOL     OW71303  11.899   7.958   1.559  0.2968  0.3361 -0.3496
21418SOL    HW171304  11.931   7.923   1.642 -0.5858 -1.9603 -0.8903
21418SOL    HW271305  11.811   7.990   1.580  0.3629  0.4477 -0.2416
21419SOL     OW71306   6.011   4.907   3.695  0.4873  0.2606 -0.2390
21419SOL    HW171307   6.100   4.884   3.722  0.8568 -0.8425 -2.2331
21419SOL    HW271308   5.955   4.859   3.756  1.2861 -1.9948 -1.1744
21420SOL     OW71309   6.174   5.931   8.431 -0.1009 -0.1283 -0.1322
21420SOL    HW171310   6.233   6.000   8.461  0.7743 -0.7540 -0.3651
21420SOL    HW271311   6.228   5.852   8.433 -1.7435 -1.2948  2.4787
21421SOL     OW71312  11.415   6.991  12.466 -0.1261 -0.0993  0.4689
21421SOL    HW171313  11.482   6.993  12.534  1.8843 -1.1791 -1.3180
21421SOL    HW271314  11.456   6.941  12.394 -1.6038  1.9622 -1.9894
21422SOL     OW71315   1.683   9.263   9.024 -0.1967  0.3844 -0.1397
21422SOL    HW171316   1.645   9.305   8.947 -0.0008 -0.5181 -0.7472
21422SOL    HW271317   1.657   9.319   9.098  0.4340  1.8002 -0.9545
21423SOL     OW71318   8.842   6.609  10.846 -0.1308  0.1864  0.2902
21423SOL    HW171319   8.910   6.564  10.896  0.1854 -0.6783 -0.8618
21423SOL    HW271320   8.760   6.578  10.884  0.0748  1.5643  1.9709
21424SOL     OW71321   9.008   7.355   3.492  0.3563  0.3680  0.2779
21424SOL    HW171322   8.978   7.408   3.419  2.4626 -0.0924 -1.0216
21424SOL    HW271323   9.038   7.418   3.557  0.2192  0.7772 -0.0516
21425SOL     OW71324   3.434   7.568  11.920  0.4393 -0.0968 -0.8083
21425SOL    HW171325   3.408   7.643  11.973 -0.1609 -1.7670  1.4550
21425SOL    HW271326   3.372   7.567  11.847 -1.3675  0.0768  0.6438
21426SOL     OW71327   0.342   6.155   3.117 -0.0042 -0.0209  0.0026
21426SOL    HW171328   0.436   6.147   3.137  0.2367  0.2868 -0.9272
21426SOL    HW271329   0.331   6.107   3.035 -0.5940  0.2411 -0.0774
21427SOL     OW71330   4.762   2.710  10.424  0.3992  0.0422  0.1301
21427SOL    HW171331   4.829   2.663  10.474  0.4040 -0.0900  0.0010
21427SOL    HW271332   4.681   2.663  10.443  0.0538  1.1419  1.5316
21428SOL     OW71333   7.888   4.321  11.227  0.3164  0.4239  0.6784
21428SOL    HW171334   7.819   4.365  11.278 -0.5669  1.1271 -1.0271
21428SOL    HW271335   7.856   4.231  11.217 -0.0296  0.5696  0.4618
21429SOL     OW71336   1.317   9.529   1.761  0.2735 -0.0458  0.2899
21429SOL    HW171337   1.343   9.530   1.853  0.4872  2.6661  0.2763
21429SOL    HW271338   1.221   9.521   1.763  0.4232 -3.3571  0.5359
21430SOL     OW71339   2.003   1.495   6.913  0.2475 -0.1831  0.3095
21430SOL    HW171340   1.961   1.554   6.850  0.6297 -1.0878 -0.8337
21430SOL    HW271341   2.096   1.518   6.908  0.6602 -1.9659 -1.4311
21431SOL     OW71342   7.935   2.409  10.391 -0.5327 -0.6862 -0.6032
21431SOL    HW171343   8.022   2.414  10.431 -0.6937  0.0640 -0.3273
21431SOL    HW271344   7.902   2.498  10.396 -1.5473 -1.0786 -0.2088
21432SOL     OW71345   4.717   1.583   1.811  0.3123 -0.0584 -0.0160
21432SOL    HW171346   4.687   1.649   1.748  0.8200 -0.7127 -0.9649
21432SOL    HW271347   4.673   1.503   1.785  0.7290 -0.3993  0.3086
21433SOL     OW71348  10.902   0.239   1.822 -0.4895  0.5816 -0.3194
21433SOL    HW171349  10.961   0.279   1.758  1.4292 -2.0705 -0.3862
21433SOL    HW271350  10.899   0.302   1.894  1.1392  1.5330 -1.0083
21434SOL     OW71351  10.230   1.993  11.609  0.0612 -0.0547  0.0442
21434SOL    HW171352  10.261   2.016  11.521  0.7364 -0.0319  0.2865
21434SOL    HW271353  10.180   2.069  11.637 -0.2471 -0.1011 -0.3561
21435SOL     OW71354   8.734  10.906   4.660 -0.1431 -0.2308 -0.1769
21435SOL    HW171355   8.760  10.890   4.751  0.8390  2.8212  0.1874
21435SOL    HW271356   8.649  10.864   4.652  1.1685 -3.4360  1.1033
21436SOL     OW71357   1.367   0.280   4.654  0.2314 -0.2618  0.3581
21436SOL    HW171358   1.460   0.304   4.650 -0.1691  1.3010 -0.0256
21436SOL    HW271359   1.322   0.349   4.607 -1.4124  0.5795  2.9551
21437SOL     OW71360   1.448   8.042  10.470 -0.2713  0.6037 -0.4405
21437SOL    HW171361   1.366   8.084  10.446  0.4997  0.8455 -3.0122
21437SOL    HW271362   1.512   8.079  10.409  1.2934 -1.1807  0.0372
21438SOL     OW71363   8.071   1.843   5.093  0.3358  0.3734 -0.0382
21438SOL    HW171364   8.160   1.814   5.114 -0.1309 -0.7106  0.4893
21438SOL    HW271365   8.079   1.882   5.006  1.1293 -0.6931 -0.4727
21439SOL     OW71366   2.982   8.751  12.216 -0.1168  0.1485  0.3736
21439SOL    HW171367   2.914   8.813  12.189  0.0250  0.2543  0.2609
21439SOL    HW271368   2.944   8.707  12.293  0.1941  1.1097  1.1069
21440SOL     OW71369   0.389   6.328  12.013 -0.3319 -0.0964 -0.0912
21440SOL    HW171370   0.424   6.404  12.060  0.1144  0.1972 -0.8873
21440SOL    HW271371   0.458   6.263  12.017 -1.5148 -1.3238  2.4932
21441SOL     OW71372  12.573   6.928   0.787 -1.0437 -0.1744  0.5554
21441SOL    HW171373  12.559   6.921   0.692 -3.3038 -0.5468  0.8645
21441SOL    HW271374  12.620   6.847   0.810  1.0919  0.7010 -0.4337
21442SOL     OW71375  11.845   0.633   6.481  0.1471  0.0316 -0.1079
21442SOL    HW171376  11.853   0.708   6.540  1.2902 -0.7145  0.7316
21442SOL    HW271377  11.764   0.590   6.510  1.6746 -1.4395  2.3439
21443SOL     OW71378   5.365   9.353   4.973  0.1530 -0.3108 -0.1672
21443SOL    HW171379   5.284   9.334   4.926  0.0883 -0.4379 -0.0082
21443SOL    HW271380   5.358   9.302   5.054  1.1019 -1.6092 -0.8534
21444SOL     OW71381  10.563  12.183   5.143 -0.7755 -0.2084 -0.5552
21444SOL    HW171382  10.505  12.232   5.084 -2.5878 -0.7878  0.6405
21444SOL    HW271383  10.651  12.211   5.119 -1.4905  0.3061 -2.8556
21445SOL     OW71384   1.540   9.709   0.677 -0.2565 -0.4397  0.8936
21445SOL    HW171385   1.495   9.760   0.610 -1.5033  1.2066  2.8698
21445SOL    HW271386   1.624   9.686   0.638 -1.3558 -0.4919 -1.5859
21446SOL     OW71387   0.931   0.004   3.623 -0.2143 -0.3123 -0.0079
21446SOL    HW171388   0.874  -0.072   3.610 -0.4987 -0.2306  0.6753
21446SOL    HW271389   1.006  -0.012   3.567  0.4475 -1.8619  1.2495
21447SOL     OW71390  10.597  10.686  12.169  0.1074 -0.6513  0.1380
21447SOL    HW171391  10.617  10.685  12.076  0.1645  1.5547  0.0791
21447SOL    HW271392  10.674  10.646  12.210  0.2073 -1.3671 -0.7170
21448SOL     OW71393   2.063  10.152   1.835 -0.2541  0.4059 -0.0915
21448SOL    HW171394   2.115  10.162   1.915 -0.1502  0.0656 -0.1143
21448SOL    HW271395   2.003  10.226   1.835  0.1576  0.7401 -0.0076
21449SOL     OW71396   8.354   7.470   6.567 -0.2574 -0.5768 -0.3610
21449SOL    HW171397   8.434   7.429   6.600  0.0031 -1.4502 -1.9664
21449SOL    HW271398   8.380   7.560   6.547 -0.5044  0.0919  1.9834
21450SOL     OW71399  12.513   3.628   3.633  0.3500  0.5187  0.2949
21450SOL    HW171400  12.601   3.623   3.670 -0.8645 -0.6168  3.3157
21450SOL    HW271401  12.472   3.702   3.679 -1.1328 -0.7545  1.1194
21451SOL     OW71402   5.668   7.212   2.566 -0.1065  0.0323 -0.5593
21451SOL    HW171403   5.664   7.244   2.476 -0.6882 -0.4327 -0.7075
21451SOL    HW271404   5.718   7.278   2.613  0.0830  0.3506 -1.1949
21452SOL     OW71405   0.007   9.359  11.963 -0.3663  0.9556 -0.5745
21452SOL    HW171406  -0.000   9.312  12.046  0.5373  2.1544  0.2182
21452SOL    HW271407   0.099   9.384  11.957 -0.8738  2.9424 -0.7535
21453SOL     OW71408   5.896   2.839   1.219 -0.0345 -0.0853 -0.1865
21453SOL    HW171409   5.840   2.892   1.276  1.9122 -0.3187  2.0997
21453SOL    HW271410   5.845   2.761   1.201 -1.5823  0.9956 -0.6914
21454SOL     OW71411   6.254  11.355   2.065  0.0806 -0.1138 -0.0890
21454SOL    HW171412   6.323  11.301   2.103 -0.0036 -0.6635 -0.6918
21454SOL    HW271413   6.212  11.297   2.001 -1.3287  0.0120  0.6971
21455SOL     OW71414   3.294   3.467   1.410 -0.2028  0.3217 -0.0416
21455SOL    HW171415   3.292   3.451   1.316 -0.8870  0.0149  0.0143
21455SOL    HW271416   3.240   3.545   1.422 -3.6062 -1.8753  0.4550
21456SOL     OW71417   0.204   2.315   2.367  0.5265 -0.0901  0.2053
21456SOL    HW171418   0.298   2.295   2.366  0.5119 -0.3675 -1.9407
21456SOL    HW271419   0.175   2.290   2.454  2.4352 -0.0240  0.9134
21457SOL     OW71420   6.263  10.686   5.529 -0.5878 -0.0470  0.8997
21457SOL    HW171421   6.312  10.612   5.565 -0.7064  0.4472  2.1170
21457SOL    HW271422   6.174  10.675   5.562 -0.5614  0.7371  1.2618
21458SOL     OW71423   9.169   8.661   7.724  0.1593 -0.2759 -0.4469
21458SOL    HW171424   9.100   8.725   7.711  1.9113  1.5964 -1.1532
21458SOL    HW271425   9.213   8.690   7.804  1.7286  0.2030 -1.4309
21459SOL     OW71426  10.297   3.127   0.476  0.1914 -0.2250 -0.4763
21459SOL    HW171427  10.336   3.197   0.528  1.6226 -1.5092  0.2703
21459SOL    HW271428  10.230   3.090   0.532 -0.7501  0.6909 -0.9750
21460SOL     OW71429   1.354   7.419  11.915  0.3560 -0.5526 -0.2342
21460SOL    HW171430   1.356   7.357  11.842 -0.2285  1.2268 -1.8204
21460SOL    HW271431   1.263   7.449  11.918  0.2963 -0.7956  1.4438
21461SOL     OW71432   8.890   8.485   5.079  0.0581  0.4175 -0.3792
21461SOL    HW171433   8.821   8.550   5.063  0.2130  0.4187 -1.0801
21461SOL    HW271434   8.914   8.498   5.171 -0.6148  0.6683 -0.2295
21462SOL     OW71435   4.990   8.421   2.169 -0.2964  0.0254  0.1000
21462SOL    HW171436   4.959   8.418   2.260  1.0329 -0.1087  0.5734
21462SOL    HW271437   4.973   8.333   2.135 -1.4500  0.2864 -0.0119
21463SOL     OW71438  12.276  10.499  12.027 -0.0251  0.0835  0.6582
21463SOL    HW171439  12.333  10.450  12.086 -0.5553 -0.4530  0.7363
21463SOL    HW271440  12.300  10.469  11.940  0.7460  0.8639  0.5896
21464SOL     OW71441   7.215   1.419   2.864 -0.1820 -0.0681 -0.2836
21464SOL    HW171442   7.193   1.440   2.954  0.3142  1.0099 -0.3945
21464SOL    HW271443   7.195   1.499   2.815  1.1950 -0.0318 -0.8343
21465SOL     OW71444   6.892   9.814  11.458 -0.0867 -0.1487 -0.2822
21465SOL    HW171445   6.900   9.721  11.479 -0.1279 -0.2165 -0.5743
21465SOL    HW271446   6.908   9.858  11.542  1.4068 -0.3487 -0.4453
21466SOL     OW71447  11.424   9.439   5.667 -0.0024 -0.6619  0.0042
21466SOL    HW171448  11.431   9.498   5.742 -1.5764 -0.1194 -0.2449
21466SOL    HW271449  11.332   9.411   5.667  0.0560 -0.9214 -1.5182
21467SOL     OW71450   1.342   2.520   8.051 -0.3419 -0.7088 -0.0176
21467SOL    HW171451   1.270   2.582   8.040  0.7023  0.5945  0.1641
21467SOL    HW271452   1.419   2.575   8.067  0.2952 -2.0938  2.1671
21468SOL     OW71453   3.932   4.888   2.652 -0.0784 -0.4206  0.0699
21468SOL    HW171454   3.886   4.806   2.672 -1.1758  0.7740  3.0331
21468SOL    HW271455   4.018   4.860   2.620 -1.4338 -2.6906 -1.9005
21469SOL     OW71456   6.211   1.242   3.058 -0.1645 -0.4822  0.4244
21469SOL    HW171457   6.276   1.307   3.086  0.0713  0.0425 -1.2279
21469SOL    HW271458   6.262   1.161   3.046  0.3369  0.0477 -1.3413
21470SOL     OW71459   7.588  10.609  10.524 -0.4493  0.3269  0.3356
21470SOL    HW171460   7.679  10.580  10.514 -0.4423  0.8043 -1.1317
21470SOL    HW271461   7.535  10.534  10.495 -0.5206  0.1987  0.7910
21471SOL     OW71462   1.033   1.681  12.203  0.1193  0.0152  0.1859
21471SOL    HW171463   1.022   1.589  12.228  0.9437  0.2712  1.6003
21471SOL    HW271464   1.015   1.730  12.283  3.6779  0.8328  0.6664
21472SOL     OW71465   3.171  10.022   9.035 -0.5355  0.0564 -0.7822
21472SOL    HW171466   3.243  10.001   8.975  0.6421 -0.3050  0.6821
21472SOL    HW271467   3.185  10.114   9.058  0.2135 -0.3211  0.4049
21473SOL     OW71468   8.348   9.586  11.212 -0.4894  0.5654 -0.5858
21473SOL    HW171469   8.433   9.579  11.169 -0.9537 -3.1600 -1.2177
21473SOL    HW271470   8.290   9.621  11.144  0.0904  1.0124 -0.8595
21474SOL     OW71471  11.803   0.583   6.089 -0.2658  0.0776  0.0647
21474SOL    HW171472  11.852   0.585   6.006 -2.7201  0.3059 -1.4770
21474SOL    HW271473  11.836   0.659   6.138  1.0003  0.1350 -0.8345
21475SOL     OW71474   8.022  10.684  10.635 -0.1903 -0.0355 -0.4213
21475SOL    HW171475   8.077  10.664  10.560  0.3333 -0.9250  0.1868
21475SOL    HW271476   8.079  10.671  10.711 -0.8850  0.2547  0.1628
21476SOL     OW71477   9.563   8.121   1.359 -0.1736 -0.1234  0.0600
21476SOL    HW171478   9.656   8.120   1.382 -0.3479 -0.4531  0.7933
21476SOL    HW271479   9.561   8.103   1.265  0.4404 -1.3692  0.2657
21477SOL     OW71480   7.914   3.950   3.373 -0.7108 -0.4242 -0.0426
21477SOL    HW171481   8.003   3.929   3.401 -1.6878 -2.3276  1.9365
21477SOL    HW271482   7.917   3.945   3.277  1.5197  0.6747 -0.0863
21478SOL     OW71483   3.582  12.427   8.171  0.0724  0.2453  0.0464
21478SOL    HW171484   3.551  12.413   8.082 -0.7744  2.3982 -0.0646
21478SOL    HW271485   3.664  12.476   8.161  0.4487 -0.2897  0.4486
21479SOL     OW71486  10.948   0.745  11.051  0.2395  0.0344  0.2783
21479SOL    HW171487  10.957   0.650  11.055 -2.3535 -0.2591  0.9226
21479SOL    HW271488  10.919   0.770  11.139 -2.7671  0.8840 -0.8459
21480SOL     OW71489   3.448   3.227   1.553 -0.5367 -0.4491  0.0710
21480SOL    HW171490   3.461   3.186   1.467 -0.9445  0.8590 -0.6536
21480SOL    HW271491   3.423   3.317   1.532  3.0378  1.0761  1.5450
21481SOL     OW71492   9.977  10.525   9.034  0.9022  0.5599  0.3010
21481SOL    HW171493  10.023  10.594   9.080  0.2878  1.2189 -0.0439
21481SOL    HW271494   9.895  10.514   9.082  0.9976  0.0676  0.3559
21482SOL     OW71495   2.247   1.319  11.188  0.1286  0.0176 -0.6095
21482SOL    HW171496   2.334   1.340  11.223 -0.7642  1.0545  1.1314
21482SOL    HW271497   2.246   1.360  11.101  0.9226  1.1647 -0.1057
21483SOL     OW71498   7.542   1.786   3.856 -0.1801 -0.3770  0.7418
21483SOL    HW171499   7.561   1.748   3.770 -1.1733 -0.9838  0.7749
21483SOL    HW271500   7.463   1.838   3.843 -0.9299 -1.2842  1.4885
21484SOL     OW71501   4.880   9.123  10.316 -0.1220 -0.4212 -0.1314
21484SOL    HW171502   4.836   9.189  10.371  0.5206 -0.8350  0.9165
21484SOL    HW271503   4.811   9.091  10.258 -0.9337 -0.2426  0.7016
21485SOL     OW71504  12.256   3.167   9.004  0.1843  0.0917 -0.3057
21485SOL    HW171505  12.262   3.175   9.099  0.6485  0.1461 -0.3389
21485SOL    HW271506  12.162   3.167   8.986  0.0984  0.8794  0.0900
21486SOL     OW71507   5.922   9.612   8.423 -0.5327 -0.1327  0.0004
21486SOL    HW171508   5.963   9.564   8.352  0.6626 -0.1415  0.6607
21486SOL    HW271509   5.908   9.700   8.388  2.0028  0.4952  0.3603
21487SOL     OW71510   2.706   2.103   4.162  0.6386  0.0522 -0.5072
21487SOL    HW171511   2.724   2.028   4.105 -0.7266 -1.0674  0.4415
21487SOL    HW271512   2.615   2.126   4.142  1.1083  1.6531 -0.9501
21488SOL     OW71513   1.185   6.885   7.410 -0.1013 -0.4192 -0.7316
21488SOL    HW171514   1.133   6.897   7.331 -0.0704  0.5584 -0.6190
21488SOL    HW271515   1.255   6.826   7.385 -0.4694 -0.6349 -1.2590
21489SOL     OW71516   9.926   8.063   2.335 -0.3438 -0.0760  0.0355
21489SOL    HW171517   9.919   8.150   2.374 -1.2554  0.0061 -0.2908
21489SOL    HW271518   9.989   8.017   2.391  2.8229  1.8099 -1.6949
21490SOL     OW71519   7.796   8.737   3.665 -0.3351  0.2083 -0.0170
21490SOL    HW171520   7.712   8.693   3.648 -1.3813  1.2556  2.0297
21490SOL    HW271521   7.837   8.684   3.733  1.7587 -1.5126 -2.4487
21491SOL     OW71522   8.485   8.649   5.726 -0.3423  0.6095 -0.0814
21491SOL    HW171523   8.448   8.594   5.795 -3.0568 -0.1765 -2.0045
21491SOL    HW271524   8.425   8.723   5.719  0.2555  1.0180 -1.1322
21492SOL     OW71525  10.371   3.086   6.537  0.6916  0.5714 -0.2280
21492SOL    HW171526  10.351   3.148   6.607  0.0534 -0.7277  0.8047
21492SOL    HW271527  10.289   3.080   6.487  1.4502  2.2582 -1.7529
21493SOL     OW71528   3.355  10.390   2.670 -0.2103 -0.2946 -0.2121
21493SOL    HW171529   3.403  10.407   2.589  0.4911 -1.2923 -0.0178
21493SOL    HW271530   3.375  10.466   2.725 -1.0758  0.6316 -1.1236
21494SOL     OW71531   1.815   2.900   4.761  0.6116  0.7601 -0.2523
21494SOL    HW171532   1.742   2.843   4.735 -1.6149  2.6315  1.4585
21494SOL    HW271533   1.858   2.922   4.678 -1.8816  0.9884 -1.5884
21495SOL     OW71534   9.612  11.600   9.241  0.1531 -0.2080  0.2465
21495SOL    HW171535   9.605  11.619   9.334 -1.2421  0.4300  0.0366
21495SOL    HW271536   9.534  11.639   9.202  0.6092 -0.6253 -1.1690
21496SOL     OW71537   9.000   4.110   3.289 -0.4283  0.0021 -0.4929
21496SOL    HW171538   8.950   4.179   3.333 -0.8012  0.0193 -0.9337
21496SOL    HW271539   9.082   4.152   3.264  0.0625 -0.1817  0.7489
21497SOL     OW71540   8.541   5.948  11.955  0.2256  0.2136  0.4206
21497SOL    HW171541   8.450   5.970  11.938  0.2685  1.4661  1.7002
21497SOL    HW271542   8.537   5.876  12.019  0.1501 -0.9541 -0.8391
21498SOL     OW71543   7.622   2.447  12.018  0.0381  0.4215  0.6168
21498SOL    HW171544   7.659   2.449  12.106  0.5619 -1.4247  0.4872
21498SOL    HW271545   7.535   2.410  12.029  0.3474 -0.4269  0.3121
21499SOL     OW71546   7.429   1.664  10.421  0.5186 -0.0132 -0.1598
21499SOL    HW171547   7.446   1.621  10.337  0.3287  1.0785 -0.7859
21499SOL    HW271548   7.393   1.596  10.477 -0.3896 -0.5082 -1.3250
21500SOL     OW71549   4.026   0.925   1.988  0.1541  0.6055  0.1000
21500SOL    HW171550   4.020   0.878   1.905  1.7123 -0.3435  0.4914
21500SOL    HW271551   4.052   0.859   2.052 -1.1071  1.2910  1.3894
21501SOL     OW71552  11.984   6.491   4.502  0.1314 -0.7156 -0.3062
21501SOL    HW171553  12.004   6.570   4.554 -0.0390 -1.5319  1.0502
21501SOL    HW271554  11.989   6.419   4.565 -1.5753 -1.5893 -1.0943
21502SOL     OW71555   5.478  12.324   0.771 -0.2452 -0.3802  0.0653
21502SOL    HW171556   5.402  12.317   0.713  0.1134 -0.6091 -0.3866
21502SOL    HW271557   5.458  12.397   0.829  0.4722  1.6038 -2.0378
21503SOL     OW71558   4.483   6.766   2.649  0.0742 -0.7886 -0.1406
21503SOL    HW171559   4.534   6.719   2.583 -0.9549 -0.8443 -0.9135
21503SOL    HW271560   4.548   6.792   2.715  1.3974  0.4809 -1.8385
21504SOL     OW71561   8.092  12.464   6.888  0.0992  0.2697  0.3478
21504SOL    HW171562   8.178  12.438   6.922 -0.5784 -3.0218 -0.1590
21504SOL    HW271563   8.112  12.527   6.819  2.3362 -1.8059 -1.0753
21505SOL     OW71564   5.810   1.128   2.085 -0.0184 -0.5067 -0.6382
21505SOL    HW171565   5.904   1.134   2.071  0.0196 -0.5458 -0.4044
21505SOL    HW271566   5.786   1.040   2.057  0.3002 -1.1240  0.9180
21506SOL     OW71567   6.044   9.381   1.093  0.1696 -0.0769  0.2185
21506SOL    HW171568   5.981   9.426   1.037 -0.2573 -0.0839  0.6840
21506SOL    HW271569   6.119   9.440   1.096  0.4930 -0.4020 -0.9347
21507SOL     OW71570   7.897   2.282   1.795 -0.2637 -0.5727  0.6968
21507SOL    HW171571   7.878   2.362   1.746  0.4824 -0.5636  0.4116
21507SOL    HW271572   7.833   2.282   1.866 -1.3066 -0.5267 -0.2052
21508SOL     OW71573   1.576   2.564   9.684 -0.1080 -0.3080  0.5567
21508SOL    HW171574   1.481   2.564   9.694 -0.2741  3.6004  0.4532
21508SOL    HW271575   1.608   2.608   9.763  1.5572 -0.7896  0.1884
21509SOL     OW71576   5.941   1.668  11.110 -0.2896 -0.2802  0.0779
21509SOL    HW171577   5.893   1.695  11.032 -0.0385  1.2192  0.4072
21509SOL    HW271578   5.881   1.686  11.183 -0.4322 -1.4430  0.2780
21510SOL     OW71579   0.258   0.704  11.422 -0.2642  0.2171  0.3516
21510SOL    HW171580   0.211   0.666  11.349  1.8394  2.1464 -2.2290
21510SOL    HW271581   0.309   0.632  11.458 -1.5405 -0.8346  0.1210
21511SOL     OW71582   7.643   4.625   2.558 -0.0398  0.5829  0.4428
21511SOL    HW171583   7.699   4.689   2.514 -0.4113  0.5642 -0.0577
21511SOL    HW271584   7.556   4.643   2.525 -0.0690 -0.5390 -0.1052
21512SOL     OW71585   6.394   6.736   2.778  0.1886 -0.3191 -0.5274
21512SOL    HW171586   6.400   6.750   2.872 -0.7251 -0.4059 -0.4448
21512SOL    HW271587   6.366   6.820   2.742 -1.2150 -0.7370 -0.4997
21513SOL     OW71588   3.499   2.703   9.532  0.6119  0.1926 -0.0430
21513SOL    HW171589   3.432   2.636   9.521  1.9713 -1.0027 -1.5974
21513SOL    HW271590   3.507   2.744   9.446  1.2765  0.8833  0.3405
21514SOL     OW71591   2.650  12.468   9.255  0.3306 -0.2535  0.2069
21514SOL    HW171592   2.697  12.542   9.292  2.2285 -0.7207 -1.1101
21514SOL    HW271593   2.719  12.412   9.218 -1.2349 -1.1800 -1.4698
21515SOL     OW71594   9.634   3.841   0.598  0.1290  0.2045  0.4143
21515SOL    HW171595   9.567   3.796   0.650 -0.7228  0.2213 -0.6351
21515SOL    HW271596   9.654   3.921   0.647 -0.7596  0.2861  0.6511
21516SOL     OW71597   5.754   0.216   4.279 -0.2393 -0.2135  0.5163
21516SOL    HW171598   5.799   0.300   4.274  1.1024 -0.9724 -1.7400
21516SOL    HW271599   5.737   0.192   4.188 -1.0439 -2.1483  1.1222
21517SOL     OW71600  11.780  11.823   6.522 -0.0142  0.4456  0.2814
21517SOL    HW171601  11.866  11.783   6.505 -0.1558  0.0322  0.5343
21517SOL    HW271602  11.783  11.847   6.614 -0.8533 -1.2501  0.7678
21518SOL     OW71603   3.394  12.058   9.282 -0.4288 -0.6251 -0.0662
21518SOL    HW171604   3.437  12.085   9.363  1.4834  0.3210 -1.3276
21518SOL    HW271605   3.435  12.111   9.214 -3.5777  0.2817 -1.4333
21519SOL     OW71606  11.677  10.203   9.711 -0.3436 -0.1877  0.5982
21519SOL    HW171607  11.606  10.178   9.651 -0.8177  0.3937  0.9041
21519SOL    HW271608  11.727  10.269   9.663 -0.0485 -0.5473  0.4087
21520SOL     OW71609  10.728   5.326  10.341 -0.4524 -0.3662 -0.2243
21520SOL    HW171610  10.714   5.251  10.282 -0.3315 -0.9284  0.4551
21520SOL    HW271611  10.645   5.335  10.388  0.0918 -1.1878  0.9424
21521SOL     OW71612   7.663  12.540   1.163  0.1409 -0.8690  0.5622
21521SOL    HW171613   7.673  12.562   1.071  0.0452 -0.3963  0.6594
21521SOL    HW271614   7.569  12.529   1.176  0.0262  0.3222  0.8682
21522SOL     OW71615   0.532   3.678   6.218 -0.9194 -0.5523  0.0907
21522SOL    HW171616   0.533   3.625   6.298  1.0313 -0.7233  0.0037
21522SOL    HW271617   0.536   3.615   6.147  0.1634 -0.3545 -0.0430
21523SOL     OW71618   1.634   7.332   8.712 -0.3211  0.7607  0.0171
21523SOL    HW171619   1.715   7.303   8.753 -0.6846  0.4797  0.5432
21523SOL    HW271620   1.592   7.251   8.683 -0.0043  0.9593 -1.0483
21524SOL     OW71621   0.652   3.303   8.962 -0.2313  0.1767 -0.3021
21524SOL    HW171622   0.661   3.208   8.952 -0.4143  0.3981 -3.7003
21524SOL    HW271623   0.626   3.334   8.876 -2.0427  3.1693  1.1428
21525SOL     OW71624   1.072   2.926   4.076  0.9862  0.3405  0.4330
21525SOL    HW171625   0.989   2.879   4.085 -0.2436  2.3507  0.1822
21525SOL    HW271626   1.081   2.974   4.159  2.1736 -0.2474  0.6591
21526SOL     OW71627   9.660   3.146   2.565  0.3361 -0.0526  0.0253
21526SOL    HW171628   9.655   3.233   2.526  1.1267 -0.1557 -0.3214
21526SOL    HW271629   9.720   3.154   2.638 -0.4631 -0.0631  0.6978
21527SOL     OW71630   3.615   3.146   1.956  0.2144  0.3000  0.1933
21527SOL    HW171631   3.550   3.199   2.002 -1.3055 -0.8231 -0.5801
21527SOL    HW271632   3.638   3.077   2.017 -0.8207 -0.4346 -0.2284
21528SOL     OW71633  10.852   5.522   3.722  0.2624 -0.1268 -0.1463
21528SOL    HW171634  10.875   5.513   3.629 -2.5820 -0.5453 -0.8866
21528SOL    HW271635  10.826   5.434   3.749 -1.1066  0.4195  0.3915
21529SOL     OW71636   3.624   2.218  11.098  0.1448 -0.3637 -0.1007
21529SOL    HW171637   3.544   2.167  11.115 -0.1665 -0.4063 -1.5099
21529SOL    HW271638   3.678   2.205  11.175 -0.8655 -1.0302  0.5191
21530SOL     OW71639   0.079  11.991   7.435 -0.0203 -0.4019 -0.0790
21530SOL    HW171640   0.096  11.928   7.506 -1.4518 -0.6466  0.0879
21530SOL    HW271641   0.031  12.062   7.477 -1.3043 -0.7697 -0.8582
21531SOL     OW71642   1.031  10.251   5.101 -0.1355  0.0976  0.3620
21531SOL    HW171643   1.058  10.186   5.166  0.1241  0.1114  0.2685
21531SOL    HW271644   0.953  10.293   5.140 -1.5560 -1.6449 -0.4570
21532SOL     OW71645   5.838   0.007   7.486 -0.3744 -0.8755 -0.4110
21532SOL    HW171646   5.881  -0.066   7.530 -0.8368 -1.1144 -0.3432
21532SOL    HW271647   5.891   0.083   7.507 -0.3881 -1.0453  0.2682
21533SOL     OW71648   4.121  12.252   7.794  0.0896 -0.5317 -0.5093
21533SOL    HW171649   4.201  12.206   7.820  0.4703  1.0143  1.3098
21533SOL    HW271650   4.051  12.186   7.803  0.9824 -1.5522 -0.8959
21534SOL     OW71651   5.937   0.247   5.404 -0.1208  0.2148 -0.2701
21534SOL    HW171652   5.883   0.310   5.452 -1.1063  0.4289 -1.6065
21534SOL    HW271653   6.012   0.298   5.373  1.6287 -0.3582  2.6872
21535SOL     OW71654  11.087   9.123   5.886  0.0958  0.2462 -0.1982
21535SOL    HW171655  11.026   9.070   5.835  1.2840 -0.6592 -0.7175
21535SOL    HW271656  11.139   9.060   5.935 -0.3653  1.0638  1.4124
21536SOL     OW71657   1.199   1.344   9.328  0.3600  0.2492 -0.1215
21536SOL    HW171658   1.261   1.272   9.336  0.9511  0.7826  0.1406
21536SOL    HW271659   1.147   1.340   9.408  0.9331  0.6103  0.2767
21537SOL     OW71660   9.087   3.982   1.296  0.5796 -0.0370  0.2494
21537SOL    HW171661   9.077   3.888   1.280  0.9740 -0.0919  0.3142
21537SOL    HW271662   9.135   4.015   1.221  2.3581 -0.2837  1.2226
21538SOL     OW71663   9.491   2.635   8.770 -0.0788 -0.0717  0.3452
21538SOL    HW171664   9.512   2.654   8.678  0.7917  0.8588  0.7224
21538SOL    HW271665   9.561   2.576   8.798  0.0267  0.1796  0.6048
21539SOL     OW71666  10.919   2.063   9.349 -0.3766 -0.2049 -0.0035
21539SOL    HW171667  10.874   1.991   9.393  1.1460 -0.7021  0.7995
21539SOL    HW271668  10.950   2.119   9.419 -2.2701  1.7753 -0.6276
21540SOL     OW71669   8.136   6.297   1.968 -0.3521  0.3895 -0.5806
21540SOL    HW171670   8.220   6.317   2.010 -0.6686 -0.1494  0.3149
21540SOL    HW271671   8.111   6.211   2.002 -1.2755  0.5471 -0.8336
21541SOL     OW71672  12.450  12.051  10.292  0.4798 -0.2841 -0.1436
21541SOL    HW171673  12.480  11.966  10.260 -1.6883 -0.8228 -0.9740
21541SOL    HW271674  12.401  12.031  10.372 -0.8593 -0.0118 -0.8496
21542SOL     OW71675   4.676   3.326   4.029 -0.1253  0.2941 -0.1095
21542SOL    HW171676   4.619   3.262   4.071  1.3724 -1.3886 -0.5163
21542SOL    HW271677   4.745   3.274   3.989  1.1821  2.1806 -0.4460
21543SOL     OW71678  11.050   7.271   2.902  0.1710 -0.0708 -0.0154
21543SOL    HW171679  11.010   7.305   2.982 -0.4257  1.0154 -0.7531
21543SOL    HW271680  11.128   7.326   2.889  1.0052 -1.1068  0.5258
21544SOL     OW71681   8.102  12.215   4.540 -0.0684  0.2349  0.0779
21544SOL    HW171682   8.008  12.224   4.553 -0.2251 -0.8016 -0.2158
21544SOL    HW271683   8.110  12.148   4.473  0.8803  0.3471  0.0681
21545SOL     OW71684   9.857   5.420   4.281  0.0114 -0.5050 -0.4697
21545SOL    HW171685   9.830   5.494   4.227 -0.4277 -0.0713  0.3247
21545SOL    HW271686   9.949   5.405   4.258 -0.1342 -0.2507 -1.2361
21546SOL     OW71687   8.564   0.717   7.101  0.2743  0.2255 -0.9970
21546SOL    HW171688   8.517   0.635   7.115  0.0630  0.4626 -0.3190
21546SOL    HW271689   8.642   0.691   7.051 -0.0265 -0.3186 -1.1925
21547SOL     OW71690  10.995   7.530  10.364  0.0807 -0.4436  0.2522
21547SOL    HW171691  10.988   7.478  10.443  0.5623  0.3180  0.8126
21547SOL    HW271692  10.922   7.592  10.369  0.3694 -0.1054  0.3234
21548SOL     OW71693   3.874   5.995   3.982 -0.2677 -0.0239 -0.0821
21548SOL    HW171694   3.809   5.997   3.913  0.4727  2.7200 -0.8202
21548SOL    HW271695   3.958   5.990   3.936  0.1612 -0.8507  0.7477
21549SOL     OW71696   9.203   7.855   2.962 -0.2309  0.4039  0.5997
21549SOL    HW171697   9.270   7.795   2.995  0.3072  0.0436 -1.0779
21549SOL    HW271698   9.248   7.939   2.954  0.5233 -0.1607 -1.9369
21550SOL     OW71699   2.909   9.829   0.334 -0.0131  0.2368  0.3256
21550SOL    HW171700   2.832   9.862   0.380  0.0401  0.8431 -0.0133
21550SOL    HW271701   2.984   9.859   0.386  0.0304  0.5715  0.0776
21551SOL     OW71702   5.270   7.624   0.356  0.1805 -0.0727 -0.2359
21551SOL    HW171703   5.184   7.631   0.397 -0.3736  1.1144 -1.5180
21551SOL    HW271704   5.311   7.550   0.400 -0.9460  0.1969  1.3748
21552SOL     OW71705   1.818  10.889   4.880  0.6412 -0.7133  0.9521
21552SOL    HW171706   1.751  10.850   4.938 -0.6513 -0.2596 -0.1833
21552SOL    HW271707   1.829  10.978   4.913 -1.1669  0.0314 -0.3045
21553SOL     OW71708  11.699   0.865   9.159  0.2823  0.1447 -0.3989
21553SOL    HW171709  11.714   0.878   9.253 -2.3078 -1.1143  0.2745
21553SOL    HW271710  11.624   0.921   9.139 -0.0737 -0.6653 -1.4080
21554SOL     OW71711   7.741   4.068  10.783  0.1946  0.2741 -1.1814
21554SOL    HW171712   7.757   4.162  10.773  0.4383  0.3756  0.0837
21554SOL    HW271713   7.691   4.060  10.864  1.7856 -0.8317 -0.2369
21555SOL     OW71714   7.800   1.443   4.883 -0.2281 -0.3901 -0.3746
21555SOL    HW171715   7.769   1.531   4.905  1.2760 -0.0937  0.7085
21555SOL    HW271716   7.893   1.454   4.864 -0.1343 -1.6758 -0.7851
21556SOL     OW71717   2.016  10.373   3.825  0.2502 -0.5124  0.1250
21556SOL    HW171718   1.981  10.462   3.816 -1.0251 -1.1337 -1.7457
21556SOL    HW271719   2.107  10.381   3.797 -0.0379  0.1168 -0.6768
21557SOL     OW71720   4.831  10.000   3.192 -0.1860 -0.0934 -0.0256
21557SOL    HW171721   4.868  10.085   3.217  1.3492 -1.0489  1.1067
21557SOL    HW271722   4.737  10.014   3.195  0.0244  1.8724 -0.9790
21558SOL     OW71723  11.591   7.553   5.194  0.1912 -0.1066 -0.5223
21558SOL    HW171724  11.604   7.526   5.103  0.9769 -0.0967 -0.4218
21558SOL    HW271725  11.548   7.479   5.235  1.3995 -0.8306 -0.4998
21559SOL     OW71726   7.204   1.388   3.806  0.2323  0.6221  0.2684
21559SOL    HW171727   7.123   1.337   3.804  1.0642 -0.7970  0.5204
21559SOL    HW271728   7.258   1.342   3.871  1.7853  0.6308 -0.9609
21560SOL     OW71729   1.553  10.373  12.442 -0.2481 -0.0698 -0.0644
21560SOL    HW171730   1.481  10.428  12.472 -0.7948 -0.2699 -0.9721
21560SOL    HW271731   1.522  10.283  12.456 -0.5861 -0.1712 -1.3492
21561SOL     OW71732   6.985   9.008   2.168 -0.0753  0.7267  0.4635
21561SOL    HW171733   6.898   9.020   2.129 -0.6148 -2.4198  0.4930
21561SOL    HW271734   7.045   9.016   2.094 -0.8520 -1.9381 -0.5848
21562SOL     OW71735   2.469  10.696   7.251 -0.0135  0.0595 -1.0275
21562SOL    HW171736   2.423  10.627   7.299  0.5968  1.1307  1.1929
21562SOL    HW271737   2.439  10.685   7.160 -2.5544 -0.9787 -0.1665
21563SOL     OW71738  12.531  10.316   6.767  0.4557  0.2891  0.5167
21563SOL    HW171739  12.597  10.265   6.815  0.2751 -0.2268  0.2246
21563SOL    HW271740  12.554  10.407   6.784  0.8221  0.1133  1.0009
21564SOL     OW71741  11.397   9.881   2.933  1.0118 -0.5069  0.2771
21564SOL    HW171742  11.485   9.902   2.964  1.2585 -0.2930 -0.5374
21564SOL    HW271743  11.410   9.849   2.844  0.2351 -0.0662 -0.0070
21565SOL     OW71744  10.533   2.587   8.168 -0.2232  0.0326  0.6086
21565SOL    HW171745  10.459   2.614   8.223 -0.2758 -1.0020  1.0863
21565SOL    HW271746  10.493   2.554   8.088 -0.1698  1.1200  0.1177
21566SOL     OW71747  11.624   0.464   6.575  0.0863  0.7031  0.3316
21566SOL    HW171748  11.656   0.413   6.650 -1.7672  0.5132  1.0609
21566SOL    HW271749  11.551   0.412   6.541 -0.1023  1.5700 -0.6104
21567SOL     OW71750   5.189   4.384   3.061 -1.1009  0.6022  0.3382
21567SOL    HW171751   5.116   4.323   3.054 -1.4324  1.1353 -1.1515
21567SOL    HW271752   5.198   4.400   3.155 -1.7993 -0.7753  0.6572
21568SOL     OW71753   3.445  10.249  11.928 -0.5909  0.0377  0.2765
21568SOL    HW171754   3.405  10.268  11.843 -0.0227  0.5353  0.1098
21568SOL    HW271755   3.465  10.336  11.964 -0.8313 -0.1713  0.9191
21569SOL     OW71756   6.548   6.871   6.057 -0.1270  0.3767 -0.1902
21569SOL    HW171757   6.610   6.942   6.071 -0.3588  0.3119  1.3078
21569SOL    HW271758   6.567   6.839   5.969 -0.4913  2.7557 -1.2072
21570SOL     OW71759   0.095   9.469   6.242 -0.2892 -0.3091 -0.4199
21570SOL    HW171760   0.069   9.451   6.151  0.1770  0.7462 -0.7817
21570SOL    HW271761   0.174   9.522   6.234  0.1279 -0.7527  0.6189
21571SOL     OW71762   6.515  12.565   6.617 -0.3179 -0.2114 -0.7217
21571SOL    HW171763   6.498  12.657   6.596 -1.3968 -0.0335  0.7635
21571SOL    HW271764   6.579  12.568   6.689 -0.6895 -0.5953 -0.3696
21572SOL     OW71765   3.662   1.599   2.945 -0.4528  0.0863 -0.3381
21572SOL    HW171766   3.587   1.656   2.936 -2.9000 -2.8539 -0.1750
21572SOL    HW271767   3.696   1.617   3.033 -0.3978  1.9806 -0.7056
21573SOL     OW71768   9.297   4.814  11.277 -0.4422  0.2382  0.3535
21573SOL    HW171769   9.249   4.851  11.351 -1.9486 -0.5022 -0.2230
21573SOL    HW271770   9.325   4.728  11.308  0.9381  0.8348  0.8386
21574SOL     OW71771   9.863   8.381   2.184 -0.2101 -0.0534 -0.3064
21574SOL    HW171772   9.949   8.365   2.145 -0.2528 -0.2946 -0.3014
21574SOL    HW271773   9.878   8.372   2.278 -0.2107  0.0441 -0.2969
21575SOL     OW71774   0.186   0.542  10.981 -0.0496  0.0323  0.0084
21575SOL    HW171775   0.271   0.500  10.997 -0.1186  0.2322  0.9506
21575SOL    HW271776   0.150   0.494  10.906  0.2297 -1.0709  0.5535
21576SOL     OW71777   8.852   1.405  11.132  0.7040 -0.3953  0.0479
21576SOL    HW171778   8.924   1.411  11.069  0.7625 -2.5269 -0.1638
21576SOL    HW271779   8.780   1.365  11.083  1.0516 -2.9724  1.4877
21577SOL     OW71780   2.307   4.409  12.573  0.4346  0.1253  0.1962
21577SOL    HW171781   2.368   4.454  12.632 -2.2380  0.9376  2.5823
21577SOL    HW271782   2.289   4.474  12.504 -0.8644  1.6041  1.8178
21578SOL     OW71783   9.206   4.835   9.403 -0.2646  0.3383 -0.2291
21578SOL    HW171784   9.126   4.816   9.453  1.3272 -2.4486  1.5510
21578SOL    HW271785   9.197   4.783   9.323  0.3690 -1.2700  0.6999
21579SOL     OW71786   8.292   7.171   5.965 -0.0642  0.1031 -0.4756
21579SOL    HW171787   8.290   7.228   5.888 -0.1366  1.0431  0.2122
21579SOL    HW271788   8.384   7.155   5.981 -0.0367 -2.5632 -2.5058
21580SOL     OW71789   3.991  10.131   9.150  0.1325 -0.1364 -0.2205
21580SOL    HW171790   3.945  10.157   9.070  0.2093  1.1655  0.1369
21580SOL    HW271791   4.000  10.212   9.200  2.3010 -0.4664 -0.0059
21581SOL     OW71792   2.779  11.428   1.232  0.3743  0.2870  0.4677
21581SOL    HW171793   2.833  11.349   1.222  0.3740  0.3084  0.2940
21581SOL    HW271794   2.840  11.495   1.261  0.3001  0.1234  1.0045
21582SOL     OW71795  11.913  10.122   2.808  0.3392  0.6483 -0.3313
21582SOL    HW171796  11.910  10.180   2.732 -1.5018  0.5523 -0.3613
21582SOL    HW271797  11.943  10.038   2.773  0.6375  0.9073 -0.7162
21583SOL     OW71798  10.127   4.153   0.627 -0.7496 -0.1109  0.0555
21583SOL    HW171799  10.046   4.175   0.673 -1.2869 -0.0852 -0.8633
21583SOL    HW271800  10.131   4.216   0.555 -1.0003 -1.4032 -1.1302
21584SOL     OW71801  10.172   1.286   3.677  0.5603  0.0534  0.2777
21584SOL    HW171802  10.164   1.265   3.771  0.8694  0.6620  0.4458
21584SOL    HW271803  10.090   1.332   3.657  0.3638 -0.3394  0.1761
21585SOL     OW71804   7.459   5.386   6.154  0.1381  0.1477 -0.1856
21585SOL    HW171805   7.474   5.292   6.159  0.8307  0.2880  0.6235
21585SOL    HW271806   7.364   5.396   6.159  0.1424 -0.4237  1.3901
21586SOL     OW71807   8.800   2.462   1.212  0.2634 -0.1769  1.0412
21586SOL    HW171808   8.890   2.476   1.182  0.8987 -3.7864  0.7818
21586SOL    HW271809   8.807   2.394   1.279 -2.2824 -0.7272  0.8546
21587SOL     OW71810  11.967   8.806   0.844  0.2057  0.1788  0.5938
21587SOL    HW171811  12.043   8.852   0.880  0.8457  0.2977 -0.8641
21587SOL    HW271812  11.991   8.713   0.849  1.2191  0.2823 -1.4429
21588SOL     OW71813   9.877   0.190  12.506  0.1748  0.7532 -0.7480
21588SOL    HW171814   9.830   0.266  12.541  2.1664  1.9651 -0.5818
21588SOL    HW271815   9.943   0.228  12.447 -0.0377 -0.9812 -2.1961
21589SOL     OW71816   6.821   1.201  11.179  0.2439  0.1045 -0.7113
21589SOL    HW171817   6.901   1.233  11.222  0.1924  1.0798 -1.3242
21589SOL    HW271818   6.851   1.173  11.093 -0.1247  0.7656 -1.0573
21590SOL     OW71819  11.681   4.722   0.369  0.6138 -0.1309  0.1955
21590SOL    HW171820  11.717   4.742   0.283 -0.0583  0.8643  0.1275
21590SOL    HW271821  11.681   4.627   0.374 -0.9738 -0.2742 -1.6205
21591SOL     OW71822   2.138   8.964   0.835 -0.0714  0.6128 -0.0915
21591SOL    HW171823   2.228   8.997   0.836 -0.6441  2.2896 -0.4195
21591SOL    HW271824   2.147   8.871   0.816  1.6352  0.5647  0.7141
21592SOL     OW71825   9.869  12.148   0.455 -0.8082  0.1246 -0.3594
21592SOL    HW171826   9.912  12.128   0.539 -1.0328  2.0989  0.2864
21592SOL    HW271827   9.778  12.121   0.469 -0.5838 -0.7285 -0.4493
21593SOL     OW71828  12.349   4.725   3.390 -0.0368 -0.0611  0.5146
21593SOL    HW171829  12.277   4.776   3.353  0.5996  0.2927 -0.2739
21593SOL    HW271830  12.348   4.643   3.340 -0.3221 -0.3435  0.9778
21594SOL     OW71831   9.592   6.693  12.170  0.7777 -0.0434  0.0075
21594SOL    HW171832   9.582   6.753  12.244  1.5366 -0.9710  0.8935
21594SOL    HW271833   9.645   6.621  12.205  2.1544  0.0574 -1.7629
21595SOL     OW71834   3.511   7.644   9.217  0.2588 -0.2807  0.4044
21595SOL    HW171835   3.573   7.620   9.286  1.9623 -0.2367 -1.0335
21595SOL    HW271836   3.511   7.569   9.158  0.4890  0.5371 -0.6601
21596SOL     OW71837   6.800   8.469   0.840 -0.6976  0.1818  0.3173
21596SOL    HW171838   6.877   8.416   0.862 -0.2758 -0.2317 -1.9370
21596SOL    HW271839   6.727   8.408   0.848 -0.3698 -0.4060 -0.8834
21597SOL     OW71840  11.633   8.216   8.602 -0.2413  0.5065  0.2111
21597SOL    HW171841  11.568   8.242   8.537 -0.4500  0.6936  0.4899
21597SOL    HW271842  11.701   8.283   8.596  0.1495  0.0638 -0.3927
21598SOL     OW71843  12.157   2.050   6.921 -0.0304 -0.3913  0.3967
21598SOL    HW171844  12.134   2.078   6.832  1.4981 -0.4796 -0.0618
21598SOL    HW271845  12.080   2.004   6.953 -1.9323  2.5112  0.4099
21599SOL     OW71846   5.778   0.533  11.730 -0.2707 -0.2198  0.5554
21599SOL    HW171847   5.833   0.472  11.779 -0.3129 -0.3677  0.4178
21599SOL    HW271848   5.698   0.485  11.711 -1.0664  0.4660  2.0121
21600SOL     OW71849   2.142   0.669  10.174  0.3138  0.0498 -0.0868
21600SOL    HW171850   2.197   0.656  10.097  1.8582 -0.3322  1.0256
21600SOL    HW271851   2.202   0.701  10.241 -1.1288  1.0975  0.7604
21601SOL     OW71852   5.625   9.223   2.256 -0.0155 -0.3630  0.1603
21601SOL    HW171853   5.603   9.198   2.166  0.2038 -0.3217  0.0926
21601SOL    HW271854   5.685   9.297   2.245  0.2121 -0.5220  0.3359
21602SOL     OW71855   1.554   8.270   9.887 -0.5047 -0.1858  0.0882
21602SOL    HW171856   1.646   8.267   9.914 -0.4328 -1.3699 -0.2348
21602SOL    HW271857   1.505   8.278   9.968 -0.1137  0.6675  0.2505
21603SOL     OW71858   3.747   2.090   3.821  0.6896 -0.6246  0.1627
21603SOL    HW171859   3.727   2.032   3.747  1.0141 -0.5680  0.0275
21603SOL    HW271860   3.740   2.034   3.898  0.2478 -0.6606  0.0992
21604SOL     OW71861   7.459   5.094  11.512 -0.9325 -0.0551  0.4446
21604SOL    HW171862   7.527   5.160  11.523 -0.2446 -0.8862  1.3083
21604SOL    HW271863   7.397   5.112  11.583 -0.3797 -0.7647  1.1147
21605SOL     OW71864   9.497   8.801   6.682 -0.6632  0.3840 -0.4935
21605SOL    HW171865   9.426   8.784   6.745 -0.5633  0.8728 -0.2459
21605SOL    HW271866   9.496   8.725   6.625 -0.6420 -0.1601  0.2104
21606SOL     OW71867  12.366   6.991   3.736 -0.2066 -1.2564 -0.4127
21606SOL    HW171868  12.404   7.075   3.763 -1.6390 -0.6102 -0.3444
21606SOL    HW271869  12.345   7.002   3.644 -2.8730 -0.5400  0.2101
21607SOL     OW71870   2.739   9.460   6.951  0.1264  0.1609  0.5106
21607SOL    HW171871   2.685   9.408   7.011  0.6829 -2.8091 -1.3320
21607SOL    HW271872   2.810   9.400   6.925  2.5706  2.8574  0.4096
21608SOL     OW71873  11.521   8.985   7.090 -0.9222 -0.2360 -0.1547
21608SOL    HW171874  11.455   8.920   7.115 -1.1555 -0.2785 -0.8625
21608SOL    HW271875  11.567   8.944   7.016 -1.2078  0.4841 -0.7392
21609SOL     OW71876   5.790   9.004   6.109 -0.2135 -0.3439  0.5701
21609SOL    HW171877   5.760   9.080   6.159 -0.1453 -0.9506  1.5694
21609SOL    HW271878   5.735   9.003   6.031  0.7396  1.5381 -0.1825
21610SOL     OW71879   0.856   6.830   9.003  0.1456 -0.5611 -0.2499
21610SOL    HW171880   0.799   6.768   8.958 -0.0258 -0.0327 -0.7623
21610SOL    HW271881   0.809   6.913   9.000 -0.4253 -0.7264  1.9219
21611SOL     OW71882   3.378   9.132   6.580  0.0385 -0.5742 -0.3096
21611SOL    HW171883   3.384   9.092   6.493 -1.1897  1.4987 -1.4366
21611SOL    HW271884   3.332   9.067   6.633 -0.1212 -1.4554 -1.4854
21612SOL     OW71885   7.861   8.721   1.829  0.7220  0.6040 -0.3958
21612SOL    HW171886   7.875   8.809   1.794  1.4680  1.3337  1.6121
21612SOL    HW271887   7.945   8.696   1.867  0.1058 -0.3384  0.4194
21613SOL     OW71888   8.059   8.504  11.506  0.0617  0.2391 -0.3429
21613SOL    HW171889   8.021   8.588  11.532  0.9325  0.8393 -0.9514
21613SOL    HW271890   8.153   8.517  11.514  0.3751  0.2993 -3.2276
21614SOL     OW71891   7.437   6.214   5.863  0.4033  1.0431  0.0574
21614SOL    HW171892   7.407   6.232   5.774  1.1293  2.3414  0.0569
21614SOL    HW271893   7.518   6.264   5.872  0.7360  0.3364  1.2092
21615SOL     OW71894   3.355   6.195   8.851 -0.0038 -0.2775 -0.2464
21615SOL    HW171895   3.448   6.214   8.848 -0.2514  0.9121 -1.7354
21615SOL    HW271896   3.319   6.240   8.774 -2.0376  0.5290  1.1070
21616SOL     OW71897   9.745   2.706   3.624  0.2343 -0.3513  0.0862
21616SOL    HW171898   9.814   2.741   3.567  2.4764  1.8461  3.7252
21616SOL    HW271899   9.772   2.616   3.642 -0.9103 -1.3459 -2.6702
21617SOL     OW71900   2.800   5.641   3.363  0.1099 -0.8863  0.2415
21617SOL    HW171901   2.725   5.688   3.326 -0.1407  0.7088  2.5957
21617SOL    HW271902   2.865   5.642   3.293 -0.9315  0.5018 -0.7719
21618SOL     OW71903   4.077   3.522   4.862 -0.2762 -0.7068 -0.4272
21618SOL    HW171904   4.106   3.431   4.867 -0.4922 -0.8459 -1.5337
21618SOL    HW271905   3.983   3.517   4.843  0.0239 -0.2881 -2.2428
21619SOL     OW71906   5.598   6.657  12.057  0.1920  0.4224  0.0550
21619SOL    HW171907   5.547   6.590  12.012  0.1813 -0.3007  1.1060
21619SOL    HW271908   5.588   6.735  12.003 -0.7077 -0.1267 -0.6025
21620SOL     OW71909  10.313   9.454   4.694 -0.5889 -0.0464  0.0487
21620SOL    HW171910  10.303   9.548   4.678 -0.8978  0.2452  1.7269
21620SOL    HW271911  10.290   9.412   4.611 -1.2778  1.3291 -0.4792
21621SOL     OW71912   1.147   4.425   1.000 -0.2593  0.6514 -0.2352
21621SOL    HW171913   1.187   4.501   0.958 -0.4640  0.0474 -1.5743
21621SOL    HW271914   1.053   4.438   0.989 -0.3295  0.5681  0.2156
21622SOL     OW71915   2.791   5.400  12.041  0.8074  0.3137 -0.3434
21622SOL    HW171916   2.717   5.346  12.014  0.5474  0.6293 -0.2714
21622SOL    HW271917   2.811   5.371  12.130 -1.9684  3.0514  1.3486
21623SOL     OW71918   1.203   1.044   4.868 -0.2843 -0.4365  0.2228
21623SOL    HW171919   1.206   0.952   4.896 -0.3235 -0.2146  0.9651
21623SOL    HW271920   1.278   1.054   4.810 -0.7871 -1.1695 -0.5819
21624SOL     OW71921   7.216   4.215  12.187  0.0507 -0.4341 -0.2998
21624SOL    HW171922   7.191   4.219  12.279 -1.2455 -0.8265 -0.6282
21624SOL    HW271923   7.303   4.257  12.184 -0.3443  0.5222  0.9320
21625SOL     OW71924   8.464  12.158   0.825  0.3331  0.5509 -0.0344
21625SOL    HW171925   8.472  12.098   0.899  1.5214  0.4294 -0.2494
21625SOL    HW271926   8.496  12.242   0.858  0.3977  0.6194 -0.2699
21626SOL     OW71927   8.582   1.382  10.720 -0.7580  0.4737  0.1465
21626SOL    HW171928   8.513   1.326  10.754 -0.1569 -1.1826 -1.1919
21626SOL    HW271929   8.660   1.326  10.719 -0.1359  1.3073 -1.3115
21627SOL     OW71930   8.819   9.453   6.519  0.0408  0.5969 -0.1762
21627SOL    HW171931   8.881   9.406   6.575  0.7009  1.8620  0.2033
21627SOL    HW271932   8.746   9.474   6.576  0.0284  0.5798 -0.1862
21628SOL     OW71933   0.154   0.264  10.258  0.1672 -0.5283 -0.5978
21628SOL    HW171934   0.062   0.244  10.270  0.5195 -1.3516  1.0985
21628SOL    HW271935   0.170   0.341  10.312  0.3864 -0.1329 -1.2168
21629SOL     OW71936   6.640   2.923   3.031 -0.1461  0.3608  0.2797
21629SOL    HW171937   6.592   2.940   2.951 -1.2616 -2.6511  0.2170
21629SOL    HW271938   6.598   2.846   3.070  2.4449 -0.3302  2.0165
21630SOL     OW71939  11.395  10.538  12.350 -0.5364 -0.0308  0.0960
21630SOL    HW171940  11.415  10.625  12.383 -0.5691  0.0867 -0.1927
21630SOL    HW271941  11.309  10.517  12.388 -0.8672  0.3657 -0.4188
21631SOL     OW71942   2.272   2.870   5.928 -0.4109 -0.5568  0.1927
21631SOL    HW171943   2.322   2.790   5.943  1.3505  0.6509  1.0344
21631SOL    HW271944   2.262   2.908   6.016  1.3811  1.6142 -0.4604
21632SOL     OW71945   1.351   2.366  12.297  0.5190 -0.1828  0.6811
21632SOL    HW171946   1.365   2.272  12.309  1.4954 -0.1421 -0.0375
21632SOL    HW271947   1.433   2.406  12.325  1.1530  0.2323 -1.5984
21633SOL     OW71948   1.749   9.507   7.509 -0.8305  0.2043  0.4948
21633SOL    HW171949   1.816   9.461   7.458  0.1708  1.4695  0.6240
21633SOL    HW271950   1.714   9.441   7.568 -0.1680 -0.6403 -0.0304
21634SOL     OW71951   2.565   5.708  10.359 -0.2348 -0.3249  0.8136
21634SOL    HW171952   2.613   5.675  10.282  0.1278  2.2407 -0.1801
21634SOL    HW271953   2.544   5.630  10.410 -1.6177 -2.3400 -2.4986
21635SOL     OW71954   9.030   1.961   6.425  0.0210  0.0766  0.2524
21635SOL    HW171955   8.992   1.976   6.511  2.2718  0.2284  1.2989
21635SOL    HW271956   8.980   2.017   6.366  0.0437  1.9278  1.8932
21636SOL     OW71957   7.721   9.334   5.198 -0.0895  0.1554  0.4010
21636SOL    HW171958   7.761   9.254   5.230  0.7122 -0.1487 -1.2562
21636SOL    HW271959   7.631   9.331   5.231 -0.3812 -1.9357 -0.4342
21637SOL     OW71960  10.429   3.629  10.635 -0.0529 -0.4282 -0.9572
21637SOL    HW171961  10.382   3.704  10.598  0.7144  0.7936  0.4486
21637SOL    HW271962  10.442   3.651  10.727 -0.3431 -2.5958 -0.3487
21638SOL     OW71963  11.532   4.366   8.365 -0.4698 -0.3479  0.1934
21638SOL    HW171964  11.543   4.358   8.460 -1.4841  2.0515  0.5836
21638SOL    HW271965  11.611   4.328   8.328  1.2479  1.1500  2.1371
21639SOL     OW71966   1.206   8.139   3.503  0.2862 -0.3885 -0.1068
21639SOL    HW171967   1.217   8.044   3.504 -0.7495 -0.5316 -0.6486
21639SOL    HW271968   1.172   8.160   3.590 -0.7833 -0.7018 -0.4332
21640SOL     OW71969   6.473   6.437   3.229 -0.0667 -0.7984 -0.3484
21640SOL    HW171970   6.473   6.508   3.293  0.0200 -1.2116  0.1194
21640SOL    HW271971   6.524   6.471   3.156 -0.0308 -0.3776 -0.1311
21641SOL     OW71972   5.244  11.797  12.466  0.2913 -0.1627 -0.2007
21641SOL    HW171973   5.213  11.885  12.490  0.7580 -0.7649  3.1280
21641SOL    HW271974   5.198  11.777  12.384 -0.5283  2.7842 -0.6044
21642SOL     OW71975  11.325   9.308   1.652 -0.0000  0.7147  0.5289
21642SOL    HW171976  11.308   9.401   1.642  0.5050  0.7854  0.3156
21642SOL    HW271977  11.276   9.267   1.580  0.5192  0.8979  0.0640
21643SOL     OW71978   9.191   8.188   9.748 -0.7925 -0.2632  0.4017
21643SOL    HW171979   9.237   8.147   9.675 -1.4501 -1.3056  0.5528
21643SOL    HW271980   9.209   8.131   9.823 -1.4486 -0.1023  0.6897
21644SOL     OW71981   7.361   6.537   0.642  0.6508 -0.1961  0.2771
21644SOL    HW171982   7.328   6.495   0.722 -0.7347  0.2440 -0.0440
21644SOL    HW271983   7.335   6.628   0.650  0.4720 -0.1511 -0.6894
21645SOL     OW71984  11.551   8.500  10.002  0.0343  0.6751 -0.3726
21645SOL    HW171985  11.612   8.486  10.075 -1.3926 -1.2624  0.5421
21645SOL    HW271986  11.526   8.592  10.009 -0.1536  0.5126  1.6759
21646SOL     OW71987   3.592  10.247   8.322  0.1399 -0.1787 -0.0631
21646SOL    HW171988   3.684  10.255   8.295 -0.3329 -0.1477 -1.7700
21646SOL    HW271989   3.542  10.275   8.246 -1.3046  0.4571  1.0719
21647SOL     OW71990   4.845   4.422   6.243 -0.2450  0.4190 -0.3709
21647SOL    HW171991   4.891   4.343   6.270 -1.2240 -0.1810 -0.4135
21647SOL    HW271992   4.881   4.442   6.156 -0.3877 -0.2975 -0.5982
21648SOL     OW71993   4.584   6.852   1.225 -0.2308 -0.0209  0.1238
21648SOL    HW171994   4.583   6.815   1.137  0.2660 -1.5845  0.7518
21648SOL    HW271995   4.496   6.837   1.259  0.1772 -1.3614  0.6480
21649SOL     OW71996   7.324  10.982  10.460 -0.4128 -0.6019 -0.4861
21649SOL    HW171997   7.304  10.901  10.413  0.9496  0.0230 -2.2361
21649SOL    HW271998   7.419  10.982  10.469 -0.2975  1.2295 -1.3474
21650SOL     OW71999   4.997  12.327  10.928  0.1613  0.0909  0.4911
21650SOL    HW172000   5.034  12.258  10.873 -2.4407 -0.9280 -0.1653
21650SOL    HW272001   5.001  12.406  10.873 -0.8260 -0.5480 -0.5526
21651SOL     OW72002  11.132   1.423   6.664 -0.1314 -0.8249 -0.2004
21651SOL    HW172003  11.184   1.407   6.743 -0.3645  2.1990  0.6878
21651SOL    HW272004  11.187   1.392   6.592  1.4852 -0.7463  0.9527
21652SOL     OW72005   8.625   5.675   5.007  0.1474 -0.2798 -0.1101
21652SOL    HW172006   8.602   5.628   4.926  0.9192  0.9200 -1.0713
21652SOL    HW272007   8.610   5.768   4.985 -0.5404  0.0062  1.4534
21653SOL     OW72008   8.677   0.236   1.381 -0.4608  0.0908  0.2292
21653SOL    HW172009   8.609   0.270   1.322 -0.7898 -0.6295  0.1828
21653SOL    HW272010   8.634   0.231   1.467 -0.3285  0.0649  0.2934
21654SOL     OW72011  10.463   2.778   1.044 -0.2540  0.0909 -0.7112
21654SOL    HW172012  10.476   2.855   0.990  0.1806  0.8624  0.4511
21654SOL    HW272013  10.527   2.714   1.013 -1.7198 -0.4713 -2.8020
21655SOL     OW72014   7.486  11.626  11.283  0.2986  0.1393  0.0506
21655SOL    HW172015   7.534  11.656  11.360  1.8958  0.4054 -1.0102
21655SOL    HW272016   7.551  11.623  11.213 -1.2758  0.7435 -1.5265
21656SOL     OW72017   7.680   5.101   2.416 -0.1804 -0.1482  0.3446
21656SOL    HW172018   7.621   5.177   2.422  0.0583  0.0998 -0.3506
21656SOL    HW272019   7.668   5.055   2.499 -1.5587 -0.2537  0.1081
21657SOL     OW72020   3.665   7.485   3.307  0.2525 -0.2280 -0.6676
21657SOL    HW172021   3.759   7.469   3.299  0.6402  1.0768  0.7909
21657SOL    HW272022   3.656   7.579   3.290 -0.8371 -0.4041 -1.0979
21658SOL     OW72023   8.501   7.638   7.301  0.2318 -0.4845  0.2577
21658SOL    HW172024   8.431   7.638   7.367 -0.3163 -0.3423 -0.3129
21658SOL    HW272025   8.476   7.708   7.241  1.6434  0.5751  0.8463
21659SOL     OW72026  12.347   4.349  12.458 -0.4362 -0.5684  0.2186
21659SOL    HW172027  12.305   4.337  12.373 -1.7735  1.7091  0.4674
21659SOL    HW272028  12.401   4.427  12.447  0.9000 -1.3558  0.9576
21660SOL     OW72029   6.587   9.302   3.869 -0.0428 -0.0838  0.1445
21660SOL    HW172030   6.554   9.272   3.785  1.8503 -0.2455 -0.5718
21660SOL    HW272031   6.595   9.397   3.859 -2.1805  0.2714  1.0503
21661SOL     OW72032  10.325   8.716   0.428  0.3195  0.3583  0.1932
21661SOL    HW172033  10.339   8.737   0.521  1.1599  0.8860 -0.0488
21661SOL    HW272034  10.230   8.706   0.421  0.2482  0.2220  1.1286
21662SOL     OW72035   7.465   3.656  12.201 -0.2198  0.6173  0.0812
21662SOL    HW172036   7.427   3.581  12.246  1.8878 -0.1810  0.6443
21662SOL    HW272037   7.558   3.653  12.224  0.7688  0.8750 -3.3046
21663SOL     OW72038   8.036   0.955   2.508 -0.1229 -0.2868 -0.1722
21663SOL    HW172039   8.039   0.985   2.599 -2.2514  0.6127 -0.3304
21663SOL    HW272040   7.955   0.904   2.503 -0.1552 -0.1236 -1.5908
21664SOL     OW72041   9.056   4.796   5.089  0.4573  0.7959  0.0849
21664SOL    HW172042   9.114   4.745   5.145 -0.5939 -1.4831 -0.7756
21664SOL    HW272043   9.025   4.867   5.145  0.8738 -0.3309  1.8099
21665SOL     OW72044  11.013   8.597   9.844 -0.0418  0.4731 -0.5659
21665SOL    HW172045  11.042   8.687   9.862  0.2342  0.2078  0.3580
21665SOL    HW272046  10.958   8.574   9.919 -2.6369  0.9091 -2.1958
21666SOL     OW72047   0.262   6.451   5.985  0.1152  0.1912 -0.3914
21666SOL    HW172048   0.298   6.368   5.955 -0.4109 -0.4529  0.6789
21666SOL    HW272049   0.310   6.470   6.065 -0.8925  0.0470  0.2744
21667SOL     OW72050  11.642  10.488   3.345  0.0166  0.3385 -0.5019
21667SOL    HW172051  11.669  10.396   3.348  0.6752  0.4820 -1.5369
21667SOL    HW272052  11.710  10.531   3.293 -1.1327  1.0981 -1.4312
21668SOL     OW72053   7.658   2.463   8.691  0.1725 -0.2573  0.1106
21668SOL    HW172054   7.704   2.382   8.715  1.0088  0.2436  0.2717
21668SOL    HW272055   7.632   2.501   8.775  0.0139 -0.2292  0.0488
21669SOL     OW72056   3.878   2.904  10.508  0.2540  0.0558  0.0446
21669SOL    HW172057   3.849   2.832  10.452  1.6968 -0.0636 -0.5943
21669SOL    HW272058   3.844   2.982  10.465 -0.7919 -0.1899  0.4013
21670SOL     OW72059  11.609  12.405  10.832  0.6138 -0.6191 -0.6484
21670SOL    HW172060  11.703  12.386  10.827  0.5338 -0.7213 -2.1997
21670SOL    HW272061  11.572  12.358  10.758 -0.3490  1.2801 -1.4175
21671SOL     OW72062  11.322   5.675   6.212  0.2066  0.4344 -0.4880
21671SOL    HW172063  11.365   5.714   6.136  0.5537 -0.1584 -0.6056
21671SOL    HW272064  11.246   5.628   6.176 -1.1112  2.2306 -0.1861
21672SOL     OW72065  10.740   4.906  10.024 -0.1863 -0.0799 -0.8006
21672SOL    HW172066  10.761   4.827  10.075 -1.3321 -0.0269 -0.1971
21672SOL    HW272067  10.792   4.898   9.944  1.4620 -0.3141  0.2420
21673SOL     OW72068   7.130   4.022   5.839  0.3015  0.3556  0.5203
21673SOL    HW172069   7.036   4.041   5.839  0.2829  0.4225  2.3219
21673SOL    HW272070   7.160   4.053   5.753 -1.0430  1.7748  0.5125
21674SOL     OW72071   4.098  11.317   9.447 -0.0598  0.6164 -0.6597
21674SOL    HW172072   4.133  11.258   9.381 -2.5464  0.3067 -1.8141
21674SOL    HW272073   4.147  11.297   9.527  1.1356 -0.9168 -1.7351
21675SOL     OW72074   8.972  10.797   8.955 -0.5878  0.4144 -0.6494
21675SOL    HW172075   9.061  10.830   8.955 -0.5313  0.2879  0.3781
21675SOL    HW272076   8.917  10.876   8.946 -0.4691  0.9190  2.2292
21676SOL     OW72077   4.924  11.904   0.119 -0.1201 -0.1812  0.4972
21676SOL    HW172078   4.956  11.819   0.150 -1.5405 -0.6917  0.6354
21676SOL    HW272079   5.002  11.947   0.083  0.2425 -2.5560 -1.8785
21677SOL     OW72080  12.312   2.761   3.881  0.0010  0.7171 -0.0911
21677SOL    HW172081  12.351   2.675   3.862 -1.3742  0.0716 -0.0610
21677SOL    HW272082  12.218   2.745   3.882 -0.2620  2.1909  0.1603
21678SOL     OW72083   5.656   1.044   6.990 -0.8683 -0.5606  0.5825
21678SOL    HW172084   5.570   1.002   6.982 -1.5611  1.0404 -1.2359
21678SOL    HW272085   5.712   0.996   6.930 -0.8632 -0.7036  0.6996
21679SOL     OW72086   6.247   9.066  10.538  0.7558 -0.1089  0.0177
21679SOL    HW172087   6.157   9.097  10.528  0.2769 -1.0815  1.0865
21679SOL    HW272088   6.260   9.007  10.464 -0.3235 -1.8008  1.1119
21680SOL     OW72089   3.602  11.115   8.117  0.3204 -0.0264 -0.3475
21680SOL    HW172090   3.614  11.074   8.203 -2.1705 -1.0568 -0.3890
21680SOL    HW272091   3.596  11.042   8.056 -2.4504  0.3486 -0.6796
21681SOL     OW72092   0.164   4.325  10.829 -0.0146  0.2497 -0.0281
21681SOL    HW172093   0.229   4.352  10.894 -1.0383  2.8843 -0.0063
21681SOL    HW272094   0.170   4.390  10.760 -1.2638 -0.5978 -0.9819
21682SOL     OW72095   4.306   8.083   3.007  0.8495 -0.3700  0.4169
21682SOL    HW172096   4.362   8.159   3.020 -1.6122  1.8429 -1.0457
21682SOL    HW272097   4.218   8.114   3.026 -0.1267 -3.3029  1.2038
21683SOL     OW72098  11.425   9.992   6.071  0.2350  0.0191  0.1803
21683SOL    HW172099  11.511  10.004   6.030  0.5142  0.1216  0.7850
21683SOL    HW272100  11.408   9.898   6.063  0.6101 -0.0745  0.4508
21684SOL     OW72101   7.401   1.192  10.291 -0.7980  1.0017 -0.2787
21684SOL    HW172102   7.442   1.201  10.205 -0.8634  0.4183 -0.3767
21684SOL    HW272103   7.473   1.207  10.353 -0.6118  0.8139 -0.4433
21685SOL     OW72104   8.818   0.632   6.961 -0.8066 -0.9077 -0.2935
21685SOL    HW172105   8.802   0.612   6.869  0.2569 -1.8093 -0.3058
21685SOL    HW272106   8.824   0.547   7.004  1.4115 -0.6141  0.1060
21686SOL     OW72107   9.558   9.871  11.658  0.0287 -0.2617  0.0596
21686SOL    HW172108   9.463   9.874  11.651  0.0856 -2.2195 -3.5337
21686SOL    HW272109   9.587   9.957  11.627 -0.5833 -1.2795 -3.8406
21687SOL     OW72110   4.529   6.352   7.414 -0.2794  0.3257  0.3830
21687SOL    HW172111   4.597   6.308   7.465 -0.6915  0.1012  0.7510
21687SOL    HW272112   4.576   6.397   7.344  0.1613 -0.6142  0.0615
21688SOL     OW72113   8.692   7.998   1.805  0.2220  0.1807  0.2808
21688SOL    HW172114   8.688   7.961   1.893  1.3880  0.3779  0.4354
21688SOL    HW272115   8.601   8.009   1.779 -0.1339 -0.1782  1.3376
21689SOL     OW72116   8.572  12.411  10.571 -0.3648 -0.1655 -0.0683
21689SOL    HW172117   8.565  12.397  10.666  1.0011 -0.0727  0.0762
21689SOL    HW272118   8.613  12.331  10.538  1.6337  0.8396 -0.1657
21690SOL     OW72119   8.551   1.341  12.218  0.0220  0.5025  0.1740
21690SOL    HW172120   8.590   1.396  12.149 -0.4303 -0.2182 -0.6790
21690SOL    HW272121   8.619   1.336  12.285  0.4147  1.3566 -0.1378
21691SOL     OW72122  10.402   2.143   4.103  0.0864 -0.1772  0.2968
21691SOL    HW172123  10.454   2.125   4.025  0.4511 -0.1658  0.5342
21691SOL    HW272124  10.417   2.067   4.160  0.1692  0.0214  0.5382
21692SOL     OW72125   4.414   9.010   9.318 -0.2622 -0.4951  1.0272
21692SOL    HW172126   4.460   8.964   9.249 -0.4918  0.7515  0.0019
21692SOL    HW272127   4.470   9.084   9.340 -2.6209  2.4595 -1.9091
21693SOL     OW72128   4.803   5.128   9.916  0.4445 -0.7867 -0.7299
21693SOL    HW172129   4.718   5.102   9.950  0.1660  0.6835 -0.2128
21693SOL    HW272130   4.823   5.210   9.962  2.3386 -1.3090 -0.5177
21694SOL     OW72131  11.719  12.156   1.997  0.3208 -0.2459  0.0668
21694SOL    HW172132  11.786  12.184   1.934  0.3796 -2.1153 -0.7664
21694SOL    HW272133  11.661  12.231   2.005  2.2992  1.3300  0.5618
21695SOL     OW72134   6.332   0.328   9.579  0.0177  0.5656  0.4299
21695SOL    HW172135   6.317   0.243   9.538 -0.1297  0.2757  1.0763
21695SOL    HW272136   6.428   0.337   9.580  0.2356 -0.9645  3.0290
21696SOL     OW72137  12.349   2.276   0.374  0.0892  0.4055  0.3931
21696SOL    HW172138  12.262   2.244   0.351  0.4274 -0.1699 -0.0898
21696SOL    HW272139  12.363   2.351   0.316  0.5290 -0.4342 -0.6152
21697SOL     OW72140   9.000   2.771   0.994  0.6001 -0.1175 -0.0399
21697SOL    HW172141   8.914   2.801   1.023  0.7783  0.6765 -0.3021
21697SOL    HW272142   9.058   2.846   1.009  0.9793 -0.1877 -1.0758
21698SOL     OW72143   1.079   4.275  10.302  0.1961  0.4230 -0.5917
21698SOL    HW172144   1.066   4.352  10.359  0.4343  0.3371 -0.4187
21698SOL    HW272145   1.089   4.202  10.363  4.5716  0.8521 -0.4737
21699SOL     OW72146   9.995   1.671  11.969  0.2656  0.0790 -0.1039
21699SOL    HW172147   9.992   1.655  11.875 -1.0426  1.1407 -0.2643
21699SOL    HW272148   9.911   1.713  11.990  0.4874 -0.2087  1.5491
21700SOL     OW72149   0.920   6.063   5.225 -0.3555 -0.2912 -0.4991
21700SOL    HW172150   0.974   6.008   5.169  0.6272 -0.3319  0.4341
21700SOL    HW272151   0.981   6.129   5.258 -0.2397 -1.7151  2.4549
21701SOL     OW72152   7.363   1.524   4.672  0.3156 -0.1144 -0.9991
21701SOL    HW172153   7.295   1.590   4.686 -0.3872 -1.0171 -0.0788
21701SOL    HW272154   7.367   1.514   4.576 -1.0661 -0.2651 -1.0572
21702SOL     OW72155   4.682   0.243   7.004  0.4192 -0.2939  0.0488
21702SOL    HW172156   4.700   0.173   7.067 -1.1699 -2.1474 -1.4062
21702SOL    HW272157   4.619   0.300   7.049  0.4236 -0.7559  0.6575
21703SOL     OW72158   5.083   1.935  11.053 -0.0602  0.0788  0.0142
21703SOL    HW172159   4.990   1.913  11.063 -0.0149 -0.0346  0.1879
21703SOL    HW272160   5.124   1.903  11.133  0.2231 -0.3656 -0.3063
21704SOL     OW72161   8.086   3.297   0.215 -0.6958  0.5902  0.3051
21704SOL    HW172162   8.045   3.249   0.287 -0.2101 -1.2794 -0.5919
21704SOL    HW272163   8.109   3.382   0.253  2.0106 -1.2183  3.2279
21705SOL     OW72164   6.926   3.214   1.199  0.0485  0.8498 -0.1310
21705SOL    HW172165   6.985   3.261   1.258 -1.0842  2.1122  0.0562
21705SOL    HW272166   6.898   3.280   1.136  2.2466 -0.7486 -3.0170
21706SOL     OW72167   8.223   1.938   9.047 -0.7643  0.1897 -0.1096
21706SOL    HW172168   8.160   1.931   8.976 -0.1287  1.6491 -0.8524
21706SOL    HW272169   8.173   1.976   9.120 -0.5583  2.4079 -1.0448
21707SOL     OW72170  11.038   8.838   7.888  0.0205 -0.2532  0.0886
21707SOL    HW172171  11.049   8.918   7.836  0.2452 -0.0865  0.3899
21707SOL    HW272172  10.946   8.841   7.917 -0.2991 -0.6889 -0.8546
21708SOL     OW72173   2.539   2.372   5.349  0.2246  0.4497 -0.0027
21708SOL    HW172174   2.623   2.332   5.326  0.3270  1.3345 -1.2507
21708SOL    HW272175   2.563   2.459   5.382 -0.1661  0.5304  0.0688
21709SOL     OW72176   0.654   2.054   1.240 -0.0827 -0.3494 -0.1961
21709SOL    HW172177   0.611   1.998   1.175  1.4534  1.7174 -3.2874
21709SOL    HW272178   0.613   2.139   1.229  1.8454  0.6368 -0.2163
21710SOL     OW72179   0.867   1.953   8.440  0.1838 -0.3945 -0.0113
21710SOL    HW172180   0.928   2.000   8.383 -0.9767  1.1407 -0.0428
21710SOL    HW272181   0.913   1.872   8.463  1.6792  0.1112 -1.0931
21711SOL     OW72182   7.111   5.893   0.299 -0.1474  0.1865  0.1371
21711SOL    HW172183   7.170   5.934   0.235  0.1085  1.1179  0.9481
21711SOL    HW272184   7.024   5.923   0.273 -0.0546  0.4904  0.1650
21712SOL     OW72185   7.810   9.143   0.508 -0.6195  0.3613 -0.0028
21712SOL    HW172186   7.783   9.209   0.444 -3.3437 -1.1271 -0.5916
21712SOL    HW272187   7.825   9.064   0.455 -0.4602 -0.2623  0.9465
21713SOL     OW72188   7.550   0.204   7.639  0.3637  0.2879  0.7044
21713SOL    HW172189   7.586   0.139   7.580 -2.4164  0.2869 -1.1891
21713SOL    HW272190   7.541   0.158   7.723  2.0409 -0.4836  0.5010
21714SOL     OW72191   7.781   8.467   4.569  0.2128 -0.2467 -0.4734
21714SOL    HW172192   7.876   8.468   4.579  0.1305 -0.0869  0.3920
21714SOL    HW272193   7.755   8.381   4.600  0.2183 -0.9519 -2.3279
21715SOL     OW72194   5.507   0.323   2.574  0.0219 -0.1237 -0.1229
21715SOL    HW172195   5.572   0.390   2.554 -0.0863  0.2004  0.5740
21715SOL    HW272196   5.545   0.275   2.649 -0.4646 -0.0332  0.1845
21716SOL     OW72197  12.335   2.760  12.131 -0.6367 -0.2897 -0.5801
21716SOL    HW172198  12.427   2.780  12.146 -0.5036 -1.6939  0.7388
21716SOL    HW272199  12.297   2.757  12.219 -2.2184  1.3842 -1.1410
21717SOL     OW72200   5.534  11.787   3.220  0.2327 -0.1337  0.0970
21717SOL    HW172201   5.489  11.702   3.223  2.0292 -1.1542 -0.3961
21717SOL    HW272202   5.496  11.837   3.292 -1.8043 -0.8321 -0.4022
21718SOL     OW72203   3.681   1.267   7.928  0.4659 -0.2258 -0.2112
21718SOL    HW172204   3.614   1.304   7.986  0.5325  0.6686 -0.6790
21718SOL    HW272205   3.762   1.274   7.978  0.7305  1.6509 -0.8053
21719SOL     OW72206   0.078   5.664   4.296 -0.2346 -0.2206  0.0398
21719SOL    HW172207   0.105   5.575   4.273 -1.0132 -0.9024  1.5876
21719SOL    HW272208   0.051   5.658   4.388  0.3433  1.7755  0.3895
21720SOL     OW72209   2.349   9.583  10.891 -0.3920  0.5413  0.2653
21720SOL    HW172210   2.431   9.534  10.895  0.1535  1.3673 -0.6186
21720SOL    HW272211   2.354   9.633  10.810 -1.4181  1.2264  0.6051
21721SOL     OW72212  11.444  11.136   2.353 -0.1454 -0.4805 -0.1192
21721SOL    HW172213  11.490  11.214   2.322  0.3869 -1.1453 -1.0486
21721SOL    HW272214  11.355  11.166   2.372  0.4244  0.6628  0.9480
21722SOL     OW72215   0.641  11.015   0.130 -0.0243 -0.0631 -0.4182
21722SOL    HW172216   0.648  11.029   0.224  1.5007  0.8327 -0.6287
21722SOL    HW272217   0.597  11.093   0.097 -0.0868 -0.1388 -0.5168
21723SOL     OW72218   8.415   7.102   7.870  0.6692 -1.1117 -0.2387
21723SOL    HW172219   8.481   7.097   7.938  1.7676  1.6191 -0.9733
21723SOL    HW272220   8.464   7.110   7.788 -0.6011 -1.9970 -1.1299
21724SOL     OW72221   5.793   2.565   2.632 -0.4686  0.2894  0.1599
21724SOL    HW172222   5.847   2.644   2.626 -1.1238  0.7900  0.8349
21724SOL    HW272223   5.851   2.495   2.600  0.5944  0.8070  0.8871
21725SOL     OW72224   8.954   0.615   2.308 -0.0047 -0.3258 -0.0466
21725SOL    HW172225   9.035   0.641   2.353  0.1113 -0.0568 -0.4080
21725SOL    HW272226   8.902   0.572   2.376  0.5271 -0.6851  0.1432
21726SOL     OW72227   4.727   1.889   1.304 -0.2021  0.0093  0.0059
21726SOL    HW172228   4.704   1.896   1.212 -1.6697  0.4593  0.3728
21726SOL    HW272229   4.660   1.831   1.341  1.2967 -1.5108  0.5095
21727SOL     OW72230  12.149   2.400   8.277  0.0489 -0.0840  0.1678
21727SOL    HW172231  12.168   2.328   8.337 -0.0248  2.0246  2.9231
21727SOL    HW272232  12.234   2.441   8.261 -0.2669  0.9950  1.1225
21728SOL     OW72233  12.256   4.981   8.359  0.2100  0.6047  0.7048
21728SOL    HW172234  12.193   4.940   8.300  0.7105  1.8234 -0.7440
21728SOL    HW272235  12.320   4.912   8.379 -0.1238  0.0937  0.0378
21729SOL     OW72236   8.768   9.167  10.081 -0.1381 -0.8363 -0.1277
21729SOL    HW172237   8.696   9.199  10.135 -0.5567 -0.6853 -0.7614
21729SOL    HW272238   8.768   9.072  10.094 -1.1685 -0.9702 -0.9691
21730SOL     OW72239   3.847  11.049  10.527  0.4459 -0.7474  0.6760
21730SOL    HW172240   3.803  11.063  10.443  2.6571 -1.9235 -0.7835
21730SOL    HW272241   3.810  10.967  10.560  1.2563 -1.5849 -0.4065
21731SOL     OW72242   3.045   8.530  10.765 -0.4596  0.6915 -0.3452
21731SOL    HW172243   3.088   8.547  10.849  1.4720 -0.2170 -1.0938
21731SOL    HW272244   3.089   8.589  10.703  0.1661 -0.6516 -1.2396
21732SOL     OW72245  12.468   0.436  10.545 -0.3616  0.8909 -0.1027
21732SOL    HW172246  12.391   0.485  10.514 -1.0093  1.2965  1.9983
21732SOL    HW272247  12.467   0.356  10.493 -2.0035  1.0577 -0.3983
21733SOL     OW72248   8.343   4.154   2.732  0.0527 -0.0531 -0.3889
21733SOL    HW172249   8.280   4.199   2.788 -0.1781  2.0601 -2.2052
21733SOL    HW272250   8.302   4.070   2.712 -0.4519 -0.2839  1.4545
21734SOL     OW72251   6.886   9.089   3.116 -0.6517  0.1570 -0.3264
21734SOL    HW172252   6.921   9.170   3.155  0.5190  0.3638 -1.7167
21734SOL    HW272253   6.920   9.089   3.027  0.9738 -2.7854  0.1545
21735SOL     OW72254   7.341  10.888   1.325 -0.1782 -0.2329  0.5376
21735SOL    HW172255   7.413  10.939   1.289  0.2980 -1.3577 -0.1300
21735SOL    HW272256   7.350  10.899   1.420  1.4441 -1.1008  0.5103
21736SOL     OW72257   7.831   5.039   2.202  0.4580 -0.6799 -0.0779
21736SOL    HW172258   7.791   5.068   2.285 -1.2598  0.2501 -1.1654
21736SOL    HW272259   7.921   5.070   2.207  0.7160 -1.5917  1.8811
21737SOL     OW72260  10.808   7.150  12.393 -0.2075  0.0722  0.0423
21737SOL    HW172261  10.752   7.135  12.468 -1.7435  0.2916 -1.0239
21737SOL    HW272262  10.827   7.244  12.395 -1.5214  0.3688 -0.6840
21738SOL     OW72263  11.612   8.718   5.590  0.2583 -0.4546  0.7842
21738SOL    HW172264  11.613   8.794   5.532  0.4277 -1.3456 -0.4237
21738SOL    HW272265  11.664   8.652   5.544 -0.3236 -1.4806  1.5538
21739SOL     OW72266  12.512   1.950   2.981 -0.3513 -0.1957 -0.6169
21739SOL    HW172267  12.527   1.946   3.076  1.1099  0.8958 -0.7688
21739SOL    HW272268  12.435   2.005   2.971 -1.5578 -1.7259 -0.0059
21740SOL     OW72269   9.604   0.217  10.539  0.3942 -0.6727 -0.1270
21740SOL    HW172270   9.533   0.163  10.502 -1.0511  0.7365  0.4756
21740SOL    HW272271   9.586   0.305  10.508  1.4279 -0.1456  0.7156
21741SOL     OW72272   9.707  11.008   4.219 -0.2637 -0.5810 -0.5816
21741SOL    HW172273   9.714  11.094   4.178  0.9661 -0.2352  0.2973
21741SOL    HW272274   9.794  10.969   4.210 -0.6311 -1.4769 -0.4123
21742SOL     OW72275  10.715  11.689  11.654  0.1350 -0.5881  0.4931
21742SOL    HW172276  10.782  11.639  11.700 -0.5467 -1.0926  0.9508
21742SOL    HW272277  10.649  11.707  11.721 -0.2412 -0.1876  0.0206
21743SOL     OW72278   5.602   2.910   4.970 -0.3462  0.2306 -0.1477
21743SOL    HW172279   5.528   2.960   4.936 -0.7334 -0.5128 -0.4057
21743SOL    HW272280   5.679   2.960   4.942 -0.7441  1.5376  0.9421
21744SOL     OW72281   4.910   2.669   4.134 -0.1454 -0.3004  0.1843
21744SOL    HW172282   4.828   2.629   4.162 -0.6216  0.2011 -0.4748
21744SOL    HW272283   4.941   2.614   4.063 -0.3064 -0.0531 -0.0783
21745SOL     OW72284  10.030  10.076   7.705  0.7206 -0.1398 -0.5373
21745SOL    HW172285  10.080  10.157   7.711  1.2810 -0.3775 -1.6523
21745SOL    HW272286  10.095  10.009   7.686  0.2508 -0.8510  0.3026
21746SOL     OW72287   7.976   5.579   9.821  0.2247  0.6253  0.1405
21746SOL    HW172288   7.897   5.526   9.811  1.4477 -1.0975 -0.8814
21746SOL    HW272289   7.996   5.576   9.914 -0.3410  0.2242  0.2543
21747SOL     OW72290   3.219   3.443   3.745 -0.0897  0.3250  0.0873
21747SOL    HW172291   3.288   3.425   3.681 -0.1302  0.3066  0.0494
21747SOL    HW272292   3.258   3.419   3.829  1.1397  3.3427  0.4897
21748SOL     OW72293   2.164  12.333   7.760  0.6017 -0.0390 -0.0572
21748SOL    HW172294   2.235  12.397   7.756  0.1951  0.3794 -1.0432
21748SOL    HW272295   2.198  12.256   7.715  0.0709  0.5705 -1.6017
21749SOL     OW72296   0.406   9.497   7.018 -0.2329 -0.0793 -1.3283
21749SOL    HW172297   0.360   9.412   7.018 -0.0621 -0.1717 -1.8550
21749SOL    HW272298   0.412   9.521   6.926  0.1355  0.2871 -1.2096
21750SOL     OW72299   0.367   6.294   9.160  0.4332 -0.1315 -0.0468
21750SOL    HW172300   0.400   6.214   9.201 -1.9366 -1.3980 -0.4260
21750SOL    HW272301   0.431   6.313   9.091  0.7239 -2.1120 -0.4040
21751SOL     OW72302   8.653   6.889   3.057 -0.1748  0.2885 -0.2158
21751SOL    HW172303   8.559   6.876   3.072 -0.0853  1.0102  1.1417
21751SOL    HW272304   8.657   6.958   2.991 -0.5890  0.2768 -0.2584
21752SOL     OW72305  11.719   5.672   4.823  0.2073 -0.4505  0.7646
21752SOL    HW172306  11.665   5.748   4.847  2.3621  0.4592  3.1602
21752SOL    HW272307  11.761   5.697   4.741 -0.7418  0.0355  0.4125
21753SOL     OW72308   3.490   9.490   0.811 -0.1238  0.0318 -0.2209
21753SOL    HW172309   3.409   9.444   0.792  0.6899 -1.6080  0.0973
21753SOL    HW272310   3.465   9.561   0.870 -1.3996 -0.0813 -0.6090
21754SOL     OW72311   4.880  10.926   4.604  0.2744  0.2079 -0.6003
21754SOL    HW172312   4.934  10.996   4.567  1.4853 -0.5077 -0.2505
21754SOL    HW272313   4.937  10.885   4.670 -1.4689  0.8484  1.4171
21755SOL     OW72314   0.808   8.632   5.517 -0.0387 -0.4608  0.0739
21755SOL    HW172315   0.859   8.695   5.466  1.9370 -1.1504  1.0714
21755SOL    HW272316   0.792   8.559   5.457  0.0475 -0.1855 -0.2868
21756SOL     OW72317   5.248   2.379   3.761 -0.0154 -0.0650 -0.6181
21756SOL    HW172318   5.340   2.367   3.783 -0.0820 -0.2117 -0.4217
21756SOL    HW272319   5.207   2.296   3.784 -0.3549  0.2949  0.1101
21757SOL     OW72320  10.299   9.554   2.969  0.0083 -0.0734  0.7047
21757SOL    HW172321  10.270   9.483   3.026  0.1365 -0.4617  0.2895
21757SOL    HW272322  10.302   9.516   2.881 -0.4435  0.5914  0.3911
21758SOL     OW72323   6.292   6.959   8.094  0.0719 -0.3425  0.6219
21758SOL    HW172324   6.367   6.903   8.073  2.1084  2.4047  0.0344
21758SOL    HW272325   6.224   6.898   8.123  2.6008 -2.9771  1.4998
21759SOL     OW72326  10.391   1.973  10.627 -0.3339  0.2423  0.6879
21759SOL    HW172327  10.429   2.053  10.593  0.6308 -1.3014 -2.1873
21759SOL    HW272328  10.334   1.941  10.558 -0.2667 -1.8017  1.4888
21760SOL     OW72329  10.310   3.067   5.989 -0.7943 -0.2180  0.5913
21760SOL    HW172330  10.390   3.024   6.020 -0.8334 -0.5327  0.2706
21760SOL    HW272331  10.239   3.013   6.024 -0.8284 -1.7786 -1.6288
21761SOL     OW72332   5.457   6.446   7.960 -0.0237 -0.1501 -0.0756
21761SOL    HW172333   5.468   6.494   8.042  0.2750  1.5938 -1.0908
21761SOL    HW272334   5.540   6.456   7.914 -0.5483 -0.1702 -1.0705
21762SOL     OW72335   0.346   2.009   4.365  0.3186 -0.4817 -0.3637
21762SOL    HW172336   0.396   1.935   4.331 -0.5944 -1.3063  0.0566
21762SOL    HW272337   0.362   2.079   4.301  2.3763 -0.5419  0.0021
21763SOL     OW72338  10.627  11.874  11.469 -0.7588  1.0658 -0.0600
21763SOL    HW172339  10.663  11.799  11.516 -0.5534  1.2719  0.1189
21763SOL    HW272340  10.646  11.949  11.526  0.9216  1.5556 -1.1676
21764SOL     OW72341  11.709   7.285   5.824 -0.0752 -0.5644  0.1769
21764SOL    HW172342  11.742   7.201   5.792  3.1196  0.3619  0.7147
21764SOL    HW272343  11.783   7.345   5.816 -1.1987  1.4043  2.8734
21765SOL     OW72344   9.327   6.532   5.579  0.1586  0.4387 -0.3034
21765SOL    HW172345   9.287   6.469   5.638 -3.6083  1.2646 -1.7145
21765SOL    HW272346   9.283   6.518   5.495  2.2948  2.0944 -1.8244
21766SOL     OW72347   1.059  10.925   0.959 -0.2347 -0.5559 -0.3232
21766SOL    HW172348   1.125  10.980   0.917 -0.4266 -0.1192 -0.0567
21766SOL    HW272349   0.976  10.969   0.940 -0.4022 -0.8294 -0.2284
21767SOL     OW72350  11.314   2.535   2.108 -0.5894  0.2778 -0.8350
21767SOL    HW172351  11.371   2.595   2.059 -1.4703  0.3521 -1.8079
21767SOL    HW272352  11.362   2.453   2.109  0.2736  0.7737 -0.1903
21768SOL     OW72353   3.254   1.457   6.554 -0.1126 -0.0499 -0.4966
21768SOL    HW172354   3.315   1.491   6.488  1.3817  0.1780  0.9253
21768SOL    HW272355   3.240   1.366   6.529 -0.0853  0.2052 -1.4852
21769SOL     OW72356   7.915   7.129   8.658 -0.2045 -0.0755 -0.0147
21769SOL    HW172357   7.830   7.174   8.655  0.3783  1.0398 -0.3348
21769SOL    HW272358   7.912   7.068   8.584 -1.0667 -0.7018  0.5195
21770SOL     OW72359  10.503   2.876   7.046 -0.1978  0.1807 -0.7022
21770SOL    HW172360  10.446   2.932   7.098 -0.2822  0.5223 -1.1635
21770SOL    HW272361  10.447   2.840   6.978 -1.0786 -3.2998  1.5723
21771SOL     OW72362   3.304   0.050   8.570 -0.4163  0.2611 -0.3849
21771SOL    HW172363   3.218   0.009   8.558 -0.2099  0.1519 -1.5464
21771SOL    HW272364   3.340   0.058   8.482  0.6607  0.5560  0.0640
21772SOL     OW72365  10.205   0.859  12.464 -0.3561 -0.6681  0.0467
21772SOL    HW172366  10.177   0.843  12.554 -1.4113  3.0948  0.5539
21772SOL    HW272367  10.124   0.875  12.416  0.3058 -0.6104 -1.0895
21773SOL     OW72368  10.357   0.661   2.244 -0.2868  0.5470  0.4110
21773SOL    HW172369  10.401   0.618   2.170 -0.0110 -0.8392  1.3492
21773SOL    HW272370  10.264   0.645   2.229 -0.1352 -1.6394  1.4377
21774SOL     OW72371  11.538   7.980   2.788  0.1825  0.2184  0.2558
21774SOL    HW172372  11.547   7.984   2.883  0.5138  0.3332  0.2205
21774SOL    HW272373  11.480   7.905   2.772  0.1659  0.1707  0.5436
21775SOL     OW72374   5.578   7.936   2.291  0.4381  0.0106  0.1879
21775SOL    HW172375   5.531   8.003   2.242  2.6850  0.2553 -1.8000
21775SOL    HW272376   5.623   7.984   2.361  1.2155  0.4547 -0.6006
21776SOL     OW72377   3.674   7.085  10.093  0.3211  0.1339  0.3556
21776SOL    HW172378   3.718   7.023  10.035  0.3956 -0.3737  0.9462
21776SOL    HW272379   3.677   7.044  10.179 -1.9661 -0.2756  0.3139
21777SOL     OW72380   2.483   1.888   9.155  0.3423 -0.1311  0.5119
21777SOL    HW172381   2.419   1.838   9.104  0.5695 -0.2717  0.3613
21777SOL    HW272382   2.500   1.833   9.232 -1.1109  0.7525  1.4979
21778SOL     OW72383   5.720   4.725   0.048 -0.0799 -0.1708  0.1298
21778SOL    HW172384   5.670   4.752   0.125 -1.0697  1.1002 -0.8947
21778SOL    HW272385   5.811   4.745   0.070 -0.1795 -1.1524  1.4830
21779SOL     OW72386   5.304   9.670  12.565  0.0681 -0.0015  0.1817
21779SOL    HW172387   5.348   9.624  12.494 -2.0252  1.5529 -2.3313
21779SOL    HW272388   5.219   9.695  12.528 -0.1615  3.0673  2.3861
21780SOL     OW72389   4.286   7.844  11.910 -0.1905  0.4762 -0.6041
21780SOL    HW172390   4.347   7.890  11.968  0.0784 -1.3605  0.6290
21780SOL    HW272391   4.312   7.873  11.822  0.0383  2.5349  0.0810
21781SOL     OW72392  10.025   1.643   1.032 -0.4128 -0.0941 -0.0270
21781SOL    HW172393   9.975   1.724   1.030  1.8605  1.4195  0.7425
21781SOL    HW272394  10.091   1.653   0.964 -0.1900 -1.3816 -0.0337
21782SOL     OW72395   4.339   0.063   6.773  0.8953 -0.0307  0.4599
21782SOL    HW172396   4.249   0.034   6.754 -0.0742  2.6321  0.5841
21782SOL    HW272397   4.385   0.052   6.691  0.1208 -0.3251  0.0510
21783SOL     OW72398   7.284   1.485  10.548 -0.5635 -0.3306  0.6594
21783SOL    HW172399   7.290   1.398  10.588 -1.9502 -0.9404 -0.3496
21783SOL    HW272400   7.248   1.468  10.460  1.1214  1.0751 -0.3540
21784SOL     OW72401   7.490   6.931  12.223 -0.4133  0.2240  0.4076
21784SOL    HW172402   7.578   6.899  12.245 -0.0398  1.5392  0.8809
21784SOL    HW272403   7.432   6.878  12.278  0.0012 -1.1097 -0.3839
21785SOL     OW72404   1.844   3.916   8.227 -0.2940 -0.0688 -0.3171
21785SOL    HW172405   1.902   3.992   8.230  1.6783 -1.4947 -0.5282
21785SOL    HW272406   1.767   3.943   8.278  0.4511  1.9533 -0.1647
21786SOL     OW72407   7.137   7.181   7.222  0.5320 -0.1655  0.1099
21786SOL    HW172408   7.160   7.273   7.236  1.7497 -0.0117 -2.2867
21786SOL    HW272409   7.201   7.132   7.274  0.3358  0.3152  0.8202
21787SOL     OW72410   6.167  10.902  12.384 -0.3056  0.0535 -0.4291
21787SOL    HW172411   6.074  10.882  12.372  0.0892 -1.1391 -1.6937
21787SOL    HW272412   6.210  10.817  12.386  0.7426  0.5777  0.5705
21788SOL     OW72413   9.913   7.239   2.307  0.0842  0.9290 -0.0407
21788SOL    HW172414   9.982   7.226   2.242 -0.5759 -0.1548 -0.5495
21788SOL    HW272415   9.884   7.329   2.294  1.4936  1.4650  0.2987
21789SOL     OW72416   0.754   0.825   9.337  0.0316  0.0761 -0.3506
21789SOL    HW172417   0.717   0.777   9.410  0.4771  0.9533  0.4746
21789SOL    HW272418   0.849   0.820   9.350  0.3675 -2.5931 -2.7053
21790SOL     OW72419  10.264   2.276  12.582 -0.1470 -0.5074  0.7177
21790SOL    HW172420  10.354   2.293  12.609 -0.0659  0.9855 -0.4315
21790SOL    HW272421  10.248   2.334  12.508 -1.6295 -1.7165  0.0159
21791SOL     OW72422   1.686   7.953   3.851  0.1339  0.0473  0.2632
21791SOL    HW172423   1.737   7.964   3.771  0.3812  0.2097  0.4393
21791SOL    HW272424   1.635   8.033   3.858 -1.3665 -0.7789 -0.7570
21792SOL     OW72425   8.184   2.343  10.525 -0.8480 -0.1623 -0.3148
21792SOL    HW172426   8.274   2.359  10.555 -1.0709 -0.1583  0.3807
21792SOL    HW272427   8.193   2.320  10.433 -0.1506  0.0425 -0.3047
21793SOL     OW72428   9.013   9.119   0.082  0.2809  0.3148  0.6490
21793SOL    HW172429   9.007   9.024   0.090  0.6147  0.3111  0.8566
21793SOL    HW272430   9.095   9.142   0.125  0.2615  0.6851  0.4903
21794SOL     OW72431   5.699   1.258  12.055  0.4821 -0.1460  0.0508
21794SOL    HW172432   5.721   1.326  11.992  1.1287  0.3515  0.7998
21794SOL    HW272433   5.712   1.176  12.006  0.4248  0.2413 -0.6292
21795SOL     OW72434  10.113   1.890   2.919  0.1769  0.0179 -0.2574
21795SOL    HW172435  10.202   1.857   2.909 -0.7853 -2.8851 -0.0702
21795SOL    HW272436  10.116   1.946   2.996  1.7463 -0.3845 -0.0016
21796SOL     OW72437   2.496   2.529   7.811  0.6484 -0.3594  0.0199
21796SOL    HW172438   2.482   2.440   7.781 -0.5258  0.1016 -0.8943
21796SOL    HW272439   2.580   2.554   7.773  1.3807 -1.3368  0.9603
21797SOL     OW72440   6.045  10.351   2.936 -0.3769  0.5549  0.4796
21797SOL    HW172441   6.114  10.327   2.998 -0.2601 -0.2747  0.0533
21797SOL    HW272442   6.091  10.393   2.863 -0.6320  2.5738  1.4375
21798SOL     OW72443   2.842   1.289  11.656 -0.1843  0.3455  0.5625
21798SOL    HW172444   2.800   1.248  11.581  0.2033 -0.7013  0.9010
21798SOL    HW272445   2.881   1.369  11.621 -0.0690 -0.0954 -0.3357
21799SOL     OW72446   9.483   9.222   0.499 -0.7779  0.6769 -0.0076
21799SOL    HW172447   9.489   9.227   0.594 -0.0303 -3.2039  0.3119
21799SOL    HW272448   9.460   9.311   0.471  1.8518  2.6952  3.5082
21800SOL     OW72449   3.460  11.823  10.706 -0.1665  0.2799  0.2779
21800SOL    HW172450   3.501  11.743  10.737  2.6136  1.6837  0.5338
21800SOL    HW272451   3.530  11.870  10.660 -2.2708  1.5820 -1.8441
21801SOL     OW72452   5.966   2.569   9.774 -0.3519 -0.0116 -0.4850
21801SOL    HW172453   5.939   2.657   9.748 -1.1895  0.0694  0.5789
21801SOL    HW272454   5.900   2.542   9.839 -0.1290 -1.4327 -0.8223
21802SOL     OW72455   8.289   7.649   3.423  0.2714  0.0181 -0.1713
21802SOL    HW172456   8.242   7.566   3.411  0.1545 -0.1538  1.3277
21802SOL    HW272457   8.224   7.708   3.460  0.7445  0.3445  0.1477
21803SOL     OW72458   3.521  11.118   4.599 -0.3393  0.1139 -0.1592
21803SOL    HW172459   3.585  11.117   4.528 -0.2760 -0.2539 -0.1004
21803SOL    HW272460   3.436  11.125   4.556 -0.3503 -0.7871 -0.3172
21804SOL     OW72461   6.005   4.593   7.473 -0.1462 -0.4782  0.3469
21804SOL    HW172462   6.061   4.515   7.468  0.5063  0.0499 -1.8715
21804SOL    HW272463   6.064   4.665   7.450 -0.9902  0.5534  1.3288
21805SOL     OW72464   9.292   7.618   9.802  0.0546 -0.2235  0.3756
21805SOL    HW172465   9.268   7.637   9.892 -1.3532  1.3764 -0.3039
21805SOL    HW272466   9.385   7.640   9.797  0.0578  0.0235  1.3323
21806SOL     OW72467   0.633  10.315   0.593  0.1820 -0.5483 -0.0101
21806SOL    HW172468   0.653  10.395   0.545 -0.8409 -0.4244 -0.2597
21806SOL    HW272469   0.630  10.342   0.685  1.1794 -0.5912  0.0482
21807SOL     OW72470   1.095  10.117  12.072  0.0396  0.0641 -0.5778
21807SOL    HW172471   1.092  10.043  12.132 -3.2471  0.5010 -0.0634
21807SOL    HW272472   1.125  10.191  12.125  1.5229 -0.4327 -0.6610
21808SOL     OW72473   7.500  11.904   7.125 -0.1639  0.0963 -0.3397
21808SOL    HW172474   7.490  11.824   7.178 -1.3479 -0.0330 -0.7341
21808SOL    HW272475   7.554  11.877   7.051 -0.3936 -0.2901 -0.3688
21809SOL     OW72476   2.133   1.275  12.376  0.1586  0.0653 -0.2838
21809SOL    HW172477   2.202   1.216  12.408 -0.5889 -0.4843  0.3552
21809SOL    HW272478   2.091   1.307  12.456 -0.3916  0.3187 -0.6725
21810SOL     OW72479  12.250   2.952   8.658 -0.4630  0.6438  0.2678
21810SOL    HW172480  12.269   2.860   8.637 -1.5755  0.3510  0.5141
21810SOL    HW272481  12.187   2.948   8.730  0.0021  1.6133  0.7407
21811SOL     OW72482   9.092   6.238  10.723 -0.6201 -1.3075  0.1393
21811SOL    HW172483   9.176   6.283  10.732 -0.7290 -0.8233 -1.1174
21811SOL    HW272484   9.034   6.302  10.682 -2.3116 -0.8325  2.9935
21812SOL     OW72485  10.196   9.951   0.181 -0.2599 -0.1068 -0.1631
21812SOL    HW172486  10.138  10.005   0.235  0.6729  0.2915  0.4579
21812SOL    HW272487  10.263  10.012   0.149  0.6406 -0.8202  0.3142
21813SOL     OW72488   5.440  11.050   6.626 -0.1704 -0.5500  0.3825
21813SOL    HW172489   5.383  11.032   6.701 -0.0034 -0.9524  0.4143
21813SOL    HW272490   5.529  11.049   6.662 -0.1615  0.5859  0.4328
21814SOL     OW72491   6.556   8.578   9.080 -0.2386 -0.1384  0.3947
21814SOL    HW172492   6.563   8.645   9.147 -0.7861 -0.1221  0.4438
21814SOL    HW272493   6.554   8.495   9.129  0.4476 -0.1907  0.3332
21815SOL     OW72494   1.998   4.210   7.101 -0.3564  0.2611  0.4893
21815SOL    HW172495   1.987   4.194   7.008  0.8612 -1.3040  0.5628
21815SOL    HW272496   2.030   4.300   7.107  0.7997 -0.0335 -0.7351
21816SOL     OW72497   2.004   7.155   0.345 -0.5435 -0.2882 -0.4097
21816SOL    HW172498   1.958   7.135   0.263 -0.1915 -1.8453 -0.2639
21816SOL    HW272499   1.943   7.131   0.414 -1.9347  3.5421 -0.0672
21817SOL     OW72500   1.589   3.970   5.775  0.3228  0.3442  0.3566
21817SOL    HW172501   1.563   3.892   5.726  1.1483 -0.3759  1.0270
21817SOL    HW272502   1.552   4.043   5.725 -0.1475 -0.4451 -0.4885
21818SOL     OW72503   8.137   9.814  12.495 -0.0709  0.0095 -0.2151
21818SOL    HW172504   8.132   9.788  12.404  0.3155 -0.1080 -0.2011
21818SOL    HW272505   8.080   9.892  12.501 -0.4772 -0.2667 -0.4473
21819SOL     OW72506   4.120   1.579   5.531 -1.3420 -0.5497  0.0985
21819SOL    HW172507   4.171   1.585   5.612 -1.9434  1.1606  0.3905
21819SOL    HW272508   4.044   1.635   5.546 -1.0597  0.4865 -1.9250
21820SOL     OW72509  12.376   3.928   9.074 -0.0492 -0.4545 -0.2007
21820SOL    HW172510  12.463   3.896   9.096 -0.3333 -0.2089  1.4067
21820SOL    HW272511  12.356   3.888   8.989  2.2508  0.7537 -1.3885
21821SOL     OW72512   4.922  12.312   0.250 -0.3408 -0.1068 -0.2785
21821SOL    HW172513   4.923  12.403   0.222 -0.6879  0.2847  0.9062
21821SOL    HW272514   4.872  12.312   0.332  2.2071 -0.8098  1.4358
21822SOL     OW72515   5.799   2.262   3.574  0.1938 -0.4336  0.1233
21822SOL    HW172516   5.720   2.282   3.523  0.3700  1.4212  0.4849
21822SOL    HW272517   5.835   2.348   3.596  1.0749 -1.2041  1.8850
21823SOL     OW72518   5.209  10.458   4.268 -0.5132  0.1045 -0.6221
21823SOL    HW172519   5.232  10.376   4.225 -0.0179  0.3061 -0.7376
21823SOL    HW272520   5.123  10.480   4.232 -0.9808 -0.7238 -0.0671
21824SOL     OW72521   3.310  12.247   3.520  0.0204 -0.1528 -0.4461
21824SOL    HW172522   3.404  12.231   3.515  0.0968 -0.7428  1.8264
21824SOL    HW272523   3.281  12.251   3.429  2.2178 -0.0151 -1.1896
21825SOL     OW72524   0.402   6.271   5.659 -0.2990  0.1453  0.1028
21825SOL    HW172525   0.430   6.314   5.578  0.1041  2.5945  1.4219
21825SOL    HW272526   0.310   6.251   5.646 -1.2904  3.8461  0.1879
21826SOL     OW72527  11.798   5.893   1.151 -0.2781  0.2591  0.2649
21826SOL    HW172528  11.887   5.924   1.168 -0.4908  1.1771 -0.2019
21826SOL    HW272529  11.785   5.909   1.057 -0.9767  0.2575  0.3552
21827SOL     OW72530  12.230   6.249   4.432  0.0218 -0.4375 -0.1203
21827SOL    HW172531  12.230   6.256   4.336  0.7640  1.1399 -0.0333
21827SOL    HW272532  12.219   6.339   4.462  1.6943 -0.6675  1.2812
21828SOL     OW72533   6.354   2.773   9.967 -0.2195 -0.0748 -0.5029
21828SOL    HW172534   6.370   2.864   9.992 -0.9023 -0.3584  1.1252
21828SOL    HW272535   6.289   2.778   9.898 -1.5564  0.6477  0.7552
21829SOL     OW72536   9.966   9.961   0.000 -0.6104 -0.1702 -0.2098
21829SOL    HW172537  10.047   9.947   0.050 -1.3518 -2.1059  0.5201
21829SOL    HW272538   9.986   9.927  -0.087 -0.7110 -0.8727  0.0393
21830SOL     OW72539  10.640   4.213   1.027  0.1692  0.1170  0.0861
21830SOL    HW172540  10.609   4.128   0.997  0.4978 -0.4376  1.2303
21830SOL    HW272541  10.561   4.266   1.035 -0.1063 -0.2571 -0.1213
21831SOL     OW72542   6.540   9.752   5.638 -0.4060 -0.2023  1.0239
21831SOL    HW172543   6.584   9.836   5.621 -0.1943 -0.0013  2.3869
21831SOL    HW272544   6.481   9.740   5.564  1.1164  0.0794 -0.2963
21832SOL     OW72545   7.296   2.813   9.630 -0.3934  0.0442  0.0972
21832SOL    HW172546   7.222   2.864   9.663 -1.7346 -1.4925 -0.3665
21832SOL    HW272547   7.292   2.731   9.679  0.8344 -0.1915 -0.1598
21833SOL     OW72548   6.386   0.790   3.972 -0.0882 -1.0424  0.3396
21833SOL    HW172549   6.478   0.778   3.994  0.7346  1.2346 -1.4115
21833SOL    HW272550   6.359   0.868   4.021 -0.2764 -0.1608 -1.1050
21834SOL     OW72551   6.931   5.598   8.609 -0.0954  0.2428  0.5472
21834SOL    HW172552   6.912   5.596   8.515 -0.1826  1.1195  0.5405
21834SOL    HW272553   7.022   5.625   8.615 -0.3012  0.9280  0.7281
21835SOL     OW72554   2.861   3.394  12.577 -0.4954 -0.2651  0.4026
21835SOL    HW172555   2.820   3.409  12.492 -1.0366 -1.7143  0.3916
21835SOL    HW272556   2.789   3.390  12.639 -0.1952 -0.4522  0.7462
21836SOL     OW72557   0.736   6.357   9.643 -0.7511 -0.5048 -0.3480
21836SOL    HW172558   0.696   6.400   9.567 -1.6611 -0.1926  0.2825
21836SOL    HW272559   0.699   6.269   9.643 -2.3063  0.0845  0.7992
21837SOL     OW72560  11.340  11.590   5.045 -0.1877 -0.3436  0.2930
21837SOL    HW172561  11.376  11.538   5.117 -0.1404 -1.1560 -0.3165
21837SOL    HW272562  11.247  11.599   5.066  0.1237  0.8534  1.3153
21838SOL     OW72563   4.801   6.436   5.160 -0.6537  0.2019  0.0551
21838SOL    HW172564   4.842   6.425   5.074  0.7207  0.8027  0.6068
21838SOL    HW272565   4.830   6.522   5.190 -1.0884 -0.0071  1.1245
21839SOL     OW72566   6.733  11.681   8.469 -1.0425 -0.5082 -0.1796
21839SOL    HW172567   6.709  11.654   8.558 -1.3093  0.9662  0.2327
21839SOL    HW272568   6.723  11.776   8.470  1.3096 -0.1900 -1.0694
21840SOL     OW72569  11.907   4.822   0.023 -0.4519 -0.3484  0.3460
21840SOL    HW172570  11.832   4.762   0.017 -0.1664 -0.6450 -0.2513
21840SOL    HW272571  11.869   4.903   0.057 -1.1142 -0.3788 -0.3022
21841SOL     OW72572   4.115  11.870   2.534 -0.3373 -0.2469 -0.0984
21841SOL    HW172573   4.098  11.957   2.499  0.3677 -0.3142 -0.6421
21841SOL    HW272574   4.189  11.882   2.593 -2.4171  0.1405  2.6285
21842SOL     OW72575  11.802  10.048  10.453  0.4948  0.1547  0.6928
21842SOL    HW172576  11.759  10.133  10.462  0.1885 -0.0448  1.1123
21842SOL    HW272577  11.851  10.055  10.371 -0.4605  0.3351  0.1239
21843SOL     OW72578   2.743   7.224   6.199 -0.6181 -0.6356  0.1217
21843SOL    HW172579   2.741   7.318   6.181  0.4656 -0.5017  0.6088
21843SOL    HW272580   2.743   7.184   6.112  0.5749 -0.1170 -0.1449
21844SOL     OW72581   8.557   2.629   9.380  0.3659 -0.4684 -0.2151
21844SOL    HW172582   8.566   2.702   9.319  1.2379 -2.0107 -2.0700
21844SOL    HW272583   8.642   2.625   9.424  0.7809 -1.0963 -1.0412
21845SOL     OW72584  11.558   7.023   0.109 -0.2690  0.0840 -0.4768
21845SOL    HW172585  11.638   6.971   0.114  0.8838  1.8085  0.1759
21845SOL    HW272586  11.584   7.109   0.144 -2.6537  0.4175  0.6820
21846SOL     OW72587  10.371   8.513  11.066  0.0331  0.0840  0.2517
21846SOL    HW172588  10.295   8.521  11.009 -0.8037 -0.1563  1.2966
21846SOL    HW272589  10.345   8.557  11.147  0.6598 -0.7949  0.9511
21847SOL     OW72590   4.372   6.663   0.101 -0.0970 -0.2441 -0.3259
21847SOL    HW172591   4.375   6.568   0.088  0.3824  0.0636 -3.0972
21847SOL    HW272592   4.458   6.684   0.139 -0.4387 -0.9573  0.8846
21848SOL     OW72593   3.386  11.736   6.474  0.5290  0.4010  0.0775
21848SOL    HW172594   3.397  11.795   6.399  0.1112  1.0257  0.4948
21848SOL    HW272595   3.294  11.712   6.472  0.5745  0.2111  0.2406
21849SOL     OW72596  11.844   1.715   6.261 -0.4751  0.1870  0.0140
21849SOL    HW172597  11.793   1.743   6.337 -0.7832 -0.4945  0.0663
21849SOL    HW272598  11.922   1.675   6.298 -0.8831 -0.6437 -0.0039
21850SOL     OW72599  11.791   5.076   8.932  0.0704  0.1075  0.3378
21850SOL    HW172600  11.745   5.159   8.929 -1.5573 -0.7474  0.2341
21850SOL    HW272601  11.803   5.051   8.840 -0.8330 -0.4805  0.3693
21851SOL     OW72602   0.235   0.092   8.963  0.6316  0.1144  0.6833
21851SOL    HW172603   0.327   0.065   8.958 -0.3138 -3.4224 -0.8737
21851SOL    HW272604   0.215   0.125   8.875  0.0395 -0.6634  0.5177
21852SOL     OW72605   5.569   3.574   1.321  0.0310 -0.0799  0.1893
21852SOL    HW172606   5.482   3.550   1.291 -0.0604 -1.0113  1.1193
21852SOL    HW272607   5.601   3.638   1.257 -1.8720  1.3575  0.6076
21853SOL     OW72608  12.337  11.461   8.453 -0.4301 -0.3495  0.3297
21853SOL    HW172609  12.401  11.520   8.414 -0.0957 -0.8130  0.1783
21853SOL    HW272610  12.345  11.379   8.403 -2.2319  0.0655 -0.7712
21854SOL     OW72611  11.945   9.515   3.597 -0.6520  0.0407  0.4827
21854SOL    HW172612  11.897   9.461   3.660 -0.7713 -0.3190  0.0877
21854SOL    HW272613  11.948   9.602   3.637 -1.0977 -0.0825  0.7896
21855SOL     OW72614   9.815   1.049   6.406  0.1465 -0.4201 -0.2024
21855SOL    HW172615   9.831   1.125   6.462 -0.9346 -0.4484  0.1714
21855SOL    HW272616   9.742   1.004   6.447 -1.5173  0.2305 -2.2426
21856SOL     OW72617   9.774   9.848  10.994  0.6555 -0.3592  0.0212
21856SOL    HW172618   9.706   9.804  10.943 -0.4239 -1.6071  2.3693
21856SOL    HW272619   9.785   9.933  10.951 -0.6289 -1.0672 -1.8486
21857SOL     OW72620  10.055   0.880   5.123  0.3031  0.8529  0.2929
21857SOL    HW172621  10.061   0.814   5.054 -0.1364  0.2402  0.8400
21857SOL    HW272622  10.146   0.909   5.136  0.5328  0.1696  0.2317
21858SOL     OW72623   2.230   4.394   7.685 -0.6272  0.1045 -0.1691
21858SOL    HW172624   2.228   4.484   7.720 -0.3954 -0.1189  0.4234
21858SOL    HW272625   2.217   4.339   7.762 -1.4064 -0.3560 -0.6154
21859SOL     OW72626   4.231   9.314   6.605 -0.2732 -0.1182  0.5624
21859SOL    HW172627   4.226   9.379   6.676 -1.6108  0.4333  0.0037
21859SOL    HW272628   4.143   9.314   6.567  1.0457  1.7291 -2.9632
21860SOL     OW72629  12.124   3.028   7.229 -0.2890 -0.0507 -0.2135
21860SOL    HW172630  12.195   3.030   7.293 -1.6182  2.2401  1.3466
21860SOL    HW272631  12.165   2.997   7.148  2.6487  1.7630  0.4460
21861SOL     OW72632   4.880  11.836   1.875 -0.7361 -0.0916  0.1226
21861SOL    HW172633   4.966  11.815   1.913 -0.9894 -0.3599  0.5705
21861SOL    HW272634   4.876  11.786   1.794 -0.2458  0.3612 -0.1851
21862SOL     OW72635   4.264   7.200  11.143 -0.2964  0.0804  0.0857
21862SOL    HW172636   4.300   7.283  11.111 -1.8427  0.6107 -0.4152
21862SOL    HW272637   4.273   7.140  11.069 -0.3867  0.1958 -0.0201
21863SOL     OW72638   9.710   9.966  12.229 -0.1264  0.3503  0.2556
21863SOL    HW172639   9.729   9.938  12.140  1.3207 -0.5222  0.7959
21863SOL    HW272640   9.642  10.032  12.220  0.5750  0.8724 -1.5557
21864SOL     OW72641   1.223   2.979  12.514  0.1843  0.0163  0.0902
21864SOL    HW172642   1.240   2.885  12.521 -1.2433 -0.2223  0.7552
21864SOL    HW272643   1.168   2.999  12.590 -1.2332  0.9613 -1.1263
21865SOL     OW72644   4.160   0.008   3.330 -0.1360  0.3687 -0.6052
21865SOL    HW172645   4.106  -0.050   3.382 -0.9955  0.9291 -0.8405
21865SOL    HW272646   4.250  -0.015   3.352 -0.4570 -1.0266 -0.6891
21866SOL     OW72647  12.171  12.193   9.629 -0.1535 -0.3239  0.0664
21866SOL    HW172648  12.090  12.181   9.678 -0.4744 -0.6790 -0.5306
21866SOL    HW272649  12.210  12.106   9.623 -0.5833 -0.4629 -1.0648
21867SOL     OW72650   3.255   3.481   1.137 -0.2653 -0.2818 -0.5193
21867SOL    HW172651   3.232   3.499   1.046 -1.0930  0.1190 -0.2380
21867SOL    HW272652   3.349   3.462   1.135 -0.5290 -1.6057 -1.6522
21868SOL     OW72653   4.809   1.234   3.596  0.3157  0.0630  0.6975
21868SOL    HW172654   4.723   1.274   3.607  0.0359 -0.3828  0.1955
21868SOL    HW272655   4.871   1.303   3.619 -0.1181  1.1424 -1.1381
21869SOL     OW72656  11.024   1.645   1.596  0.2014 -0.8759 -0.0083
21869SOL    HW172657  10.955   1.700   1.559 -0.8448 -1.1077  1.5178
21869SOL    HW272658  10.977   1.573   1.639  1.4490 -1.6790  0.0588
21870SOL     OW72659   4.709   2.443   6.666 -0.1627  0.3794  0.1958
21870SOL    HW172660   4.687   2.352   6.688 -1.8322  0.8540  0.6684
21870SOL    HW272661   4.645   2.467   6.599  2.4555  0.1700 -2.5470
21871SOL     OW72662   0.963   6.519  12.439  0.1169  0.4147  0.3752
21871SOL    HW172663   0.868   6.520  12.451  0.1306 -0.4866  0.6861
21871SOL    HW272664   0.991   6.438  12.482  0.6811 -0.8653 -2.2072
21872SOL     OW72665  10.025   8.201  11.816  0.2355  0.1809 -0.4602
21872SOL    HW172666  10.029   8.171  11.907 -1.0014  0.8620 -0.1466
21872SOL    HW272667   9.978   8.285  11.821 -2.8347 -1.2876 -2.0102
21873SOL     OW72668   2.450   0.877  12.178  0.3670 -0.2048  0.6161
21873SOL    HW172669   2.395   0.954  12.165 -1.4126 -1.4569  0.4239
21873SOL    HW272670   2.445   0.829  12.096  1.6104 -0.4677  0.6704
21874SOL     OW72671  11.400  10.327   3.357  0.3231  0.4417  0.3267
21874SOL    HW172672  11.459  10.252   3.365 -0.1904  0.0086  0.0779
21874SOL    HW272673  11.459  10.403   3.358  0.6779  0.2380  3.4533
21875SOL     OW72674   3.419   7.218   1.735 -0.2065 -0.1261  0.1050
21875SOL    HW172675   3.411   7.174   1.650 -1.9421 -0.6335  0.4869
21875SOL    HW272676   3.419   7.312   1.714  3.1815 -0.1867 -0.6909
21876SOL     OW72677   3.453   3.402   4.587  0.5063  0.3460  0.1224
21876SOL    HW172678   3.542   3.419   4.555  0.8738  1.3642  1.5828
21876SOL    HW272679   3.452   3.309   4.608  1.1782  0.2953 -0.0549
21877SOL     OW72680   4.964   8.233   8.810 -0.3084  0.0792  0.4605
21877SOL    HW172681   4.897   8.207   8.747 -1.7819 -1.9521  2.7032
21877SOL    HW272682   4.981   8.325   8.790 -1.4038 -0.2305 -2.2275
21878SOL     OW72683   5.727  11.695   3.049 -0.1627 -0.1703 -0.1884
21878SOL    HW172684   5.756  11.621   3.103  1.2537  2.1446  2.4919
21878SOL    HW272685   5.657  11.735   3.100  2.4124  3.1474  1.0830
21879SOL     OW72686   2.388   2.168   5.426 -0.4391 -0.2471 -0.3336
21879SOL    HW172687   2.438   2.101   5.378  1.2653  0.2072  0.7533
21879SOL    HW272688   2.443   2.246   5.422  0.4066 -0.5069  3.3633
21880SOL     OW72689  10.484   4.146   0.269 -0.2446 -0.4480  0.3869
21880SOL    HW172690  10.411   4.102   0.313 -2.1375  0.5751 -1.5572
21880SOL    HW272691  10.501   4.223   0.323 -1.9051  0.3078 -0.1291
21881SOL     OW72692   8.843   6.179  11.464  0.4630  0.4894 -0.3824
21881SOL    HW172693   8.881   6.134  11.540 -0.3441  2.4203  1.2396
21881SOL    HW272694   8.918   6.200  11.408  1.5715  2.0653  1.5674
21882SOL     OW72695   7.619   7.886   5.424  0.1233  0.3278 -0.4496
21882SOL    HW172696   7.709   7.905   5.452 -0.2542  0.9630  0.3589
21882SOL    HW272697   7.616   7.914   5.333  1.2875 -1.4801 -1.1134
21883SOL     OW72698   6.432   1.845   6.444  0.0202 -0.0530  0.3921
21883SOL    HW172699   6.412   1.776   6.380 -1.1540  0.3108  0.3354
21883SOL    HW272700   6.480   1.911   6.394 -0.7837  0.1736 -0.1050
21884SOL     OW72701   4.701  11.869  12.554 -0.2140 -0.2005  0.2468
21884SOL    HW172702   4.628  11.868  12.617 -0.8970 -0.4845 -0.5249
21884SOL    HW272703   4.776  11.901  12.605 -0.6668 -0.7296  1.2869
21885SOL     OW72704  11.502   3.209   5.466  0.3540  0.1303  0.3540
21885SOL    HW172705  11.497   3.303   5.446  0.0083  0.0582  0.1017
21885SOL    HW272706  11.488   3.205   5.561  0.8987  0.3769  0.4476
21886SOL     OW72707   9.640   8.937   6.274 -0.2297  0.1698  0.4859
21886SOL    HW172708   9.639   8.842   6.276 -4.4599  0.0629  1.2576
21886SOL    HW272709   9.622   8.964   6.364  0.0869  1.6932  0.1346
21887SOL     OW72710   0.447  10.410  11.734 -0.2657  0.0908  0.0867
21887SOL    HW172711   0.507  10.400  11.807 -0.0153 -0.3580 -0.1784
21887SOL    HW272712   0.394  10.331  11.735 -0.0849 -0.0384 -0.3799
21888SOL     OW72713  10.746   4.945   7.180 -0.3139  0.3802  0.2324
21888SOL    HW172714  10.773   4.856   7.157  1.5181  1.0333 -0.3312
21888SOL    HW272715  10.653   4.948   7.160 -0.2256 -1.1567 -0.5357
21889SOL     OW72716   0.321   1.556   7.810 -0.2764 -0.6352 -0.4058
21889SOL    HW172717   0.414   1.535   7.811  0.3691  1.8503  1.9931
21889SOL    HW272718   0.282   1.498   7.874 -0.3349 -1.3613 -1.0830
21890SOL     OW72719   0.446   7.080  11.340 -0.3937 -0.4376 -0.4918
21890SOL    HW172720   0.444   7.032  11.257 -0.9694 -0.0384 -0.7129
21890SOL    HW272721   0.531   7.124  11.340 -0.6443  0.0707 -1.1693
21891SOL     OW72722   4.627   1.166   0.494 -0.5731  0.8791  0.2152
21891SOL    HW172723   4.631   1.076   0.461 -0.2599  0.5013  1.2437
21891SOL    HW272724   4.664   1.219   0.423  2.8518 -0.2223  0.9777
21892SOL     OW72725   5.228  11.583  11.951 -0.0027 -0.3757  0.5210
21892SOL    HW172726   5.301  11.527  11.926  1.0831  1.3906 -0.4827
21892SOL    HW272727   5.175  11.529  12.010  1.4359 -2.1219  0.2916
21893SOL     OW72728  11.980   9.147   3.353  0.0048 -0.0340 -0.2178
21893SOL    HW172729  12.003   9.198   3.275  1.5132 -0.7538 -0.2857
21893SOL    HW272730  11.949   9.063   3.317  0.1465 -0.1545 -0.0585
21894SOL     OW72731   5.045   8.201   2.516  0.9109  0.3344 -0.0025
21894SOL    HW172732   5.093   8.219   2.597  1.8822  0.0378 -0.4924
21894SOL    HW272733   5.108   8.156   2.460 -0.4139 -1.5757 -0.0773
21895SOL     OW72734   9.508   0.986   3.711 -0.0175  0.1009 -0.1561
21895SOL    HW172735   9.421   1.001   3.674 -0.8448 -0.7037  1.3963
21895SOL    HW272736   9.552   1.071   3.704 -0.7116  0.3874 -1.4387
21896SOL     OW72737   6.894   3.586  11.035  0.2733 -0.0086  0.1948
21896SOL    HW172738   6.830   3.536  11.085  2.0125 -1.6665  0.8724
21896SOL    HW272739   6.854   3.672  11.025 -1.2312 -0.3768  2.2798
21897SOL     OW72740   5.122   5.569   4.960 -0.1631  0.0875  0.1001
21897SOL    HW172741   5.104   5.655   4.999 -1.8460  0.2964 -1.0540
21897SOL    HW272742   5.068   5.566   4.881  0.1651 -1.8873 -0.1080
21898SOL     OW72743   6.333   9.234   0.686  0.3813  0.1460  0.3859
21898SOL    HW172744   6.361   9.145   0.708  0.0935  0.1221  0.6641
21898SOL    HW272745   6.305   9.272   0.770 -1.1828 -0.1061 -0.0052
21899SOL     OW72746   3.002   7.069   3.502 -0.0012  0.0798  0.3007
21899SOL    HW172747   3.002   7.000   3.435 -0.6606 -0.0330  0.4072
21899SOL    HW272748   2.955   7.142   3.461 -1.6938 -0.4969  1.1201
21900SOL     OW72749  10.505  10.918  11.295  0.0118 -0.4485 -0.0591
21900SOL    HW172750  10.450  10.906  11.371  0.9578  1.2130  0.9525
21900SOL    HW272751  10.590  10.882  11.321  0.7677  1.4635  0.2960
21901SOL     OW72752   3.299   0.102  11.413  0.7174  0.4378  0.2396
21901SOL    HW172753   3.208   0.122  11.434  0.0385 -2.4625  0.4863
21901SOL    HW272754   3.295   0.017  11.369  3.3746 -0.2912  1.2207
21902SOL     OW72755   6.397  11.318  10.986  0.0060 -0.0870  0.2592
21902SOL    HW172756   6.441  11.304  11.069  0.9791  1.7029  0.0973
21902SOL    HW272757   6.336  11.389  11.003  0.7178  0.7832 -0.6918
21903SOL     OW72758  10.084   7.584   6.237 -0.0178  0.1683 -0.0112
21903SOL    HW172759  10.153   7.639   6.200 -0.9516  1.2765 -0.1633
21903SOL    HW272760  10.130   7.507   6.271  1.1745  0.4078 -0.9936
21904SOL     OW72761   8.930   5.813   4.093 -0.5892  0.5114 -0.2513
21904SOL    HW172762   8.904   5.750   4.160  1.9386 -0.0148  0.3202
21904SOL    HW272763   8.946   5.894   4.141 -1.6181  0.9781 -0.6694
21905SOL     OW72764  10.202  10.809   9.390  0.4204 -0.0706  0.3391
21905SOL    HW172765  10.288  10.838   9.360  0.2981 -1.8911 -2.1722
21905SOL    HW272766  10.221  10.739   9.453  0.7251  1.1928  1.6839
21906SOL     OW72767   3.062   9.607   7.748  0.2270  0.0300  0.0891
21906SOL    HW172768   3.151   9.637   7.768  0.6308  0.1913 -1.7699
21906SOL    HW272769   3.007   9.684   7.761  0.8865  0.9354 -2.1012
21907SOL     OW72770   9.717  10.155   2.973 -0.0612  0.0841  0.2075
21907SOL    HW172771   9.712  10.212   3.050  1.1613 -0.5361  0.7747
21907SOL    HW272772   9.767  10.079   3.002  0.0329 -0.3778 -1.0793
21908SOL     OW72773   0.132   2.405   9.433  0.3404  0.1670 -0.4832
21908SOL    HW172774   0.164   2.422   9.522 -0.0079 -2.1500  0.1343
21908SOL    HW272775   0.138   2.310   9.423 -0.2464  0.3216 -2.7160
21909SOL     OW72776   1.060   8.092   3.064  0.1992  0.5456 -0.0654
21909SOL    HW172777   1.072   8.172   3.116  0.2245  1.0958 -0.9083
21909SOL    HW272778   1.140   8.085   3.012  0.7931 -0.7613  0.9380
21910SOL     OW72779   5.216   7.345   4.711 -0.6559  0.2155 -0.6540
21910SOL    HW172780   5.238   7.296   4.790  2.0610  1.6325 -0.4106
21910SOL    HW272781   5.139   7.396   4.735 -2.1079 -2.0242 -0.1739
21911SOL     OW72782   9.430   8.846  10.942  0.4434 -0.3219 -0.1985
21911SOL    HW172783   9.353   8.818  10.993  1.3313 -0.5633  1.0492
21911SOL    HW272784   9.481   8.767  10.930  0.0501 -0.3587 -1.8943
21912SOL     OW72785  11.214  10.297   9.879  0.0171 -0.8796  0.3755
21912SOL    HW172786  11.230  10.208   9.847 -2.3921 -0.9108 -0.9239
21912SOL    HW272787  11.218  10.289   9.974 -0.2974 -2.4096  0.2876
21913SOL     OW72788   8.527   9.050   4.197  0.1089 -0.5908  0.2677
21913SOL    HW172789   8.617   9.083   4.189  0.2392 -1.0827 -0.3210
21913SOL    HW272790   8.521   9.020   4.288  1.1621 -2.2861 -0.1689
21914SOL     OW72791   1.926  11.633   9.580  0.0170 -0.7787  0.6670
21914SOL    HW172792   1.955  11.708   9.527 -2.4724 -0.4356 -0.3552
21914SOL    HW272793   1.856  11.668   9.634  0.6096 -1.8133  2.1898
21915SOL     OW72794   6.173  12.023   1.117 -0.5198 -0.1601 -0.4942
21915SOL    HW172795   6.103  12.029   1.183 -0.8265  0.1903 -0.8461
21915SOL    HW272796   6.127  12.028   1.033 -0.4049 -2.8671 -0.8285
21916SOL     OW72797   2.034   5.710   9.266  0.5458  0.4270  0.1416
21916SOL    HW172798   2.120   5.747   9.286  0.8101 -0.5146  0.8176
21916SOL    HW272799   1.979   5.786   9.246  0.9397  1.2544  1.9579
21917SOL     OW72800   9.405   6.888   7.319  0.3519  0.0274  0.0034
21917SOL    HW172801   9.466   6.932   7.259  1.0599  1.7255  1.8454
21917SOL    HW272802   9.460   6.863   7.394 -0.7046 -0.9807  0.4651
21918SOL     OW72803   2.104   4.289   3.880  0.2644  0.4402  0.1502
21918SOL    HW172804   2.009   4.303   3.879 -0.0440 -0.9662 -3.0298
21918SOL    HW272805   2.121   4.246   3.964 -1.7795  1.2944  1.0805
21919SOL     OW72806   2.068   4.167  10.331  0.8542  0.5545  0.5674
21919SOL    HW172807   2.020   4.087  10.311  1.5072  0.1190  0.7093
21919SOL    HW272808   2.008   4.238  10.307  0.6201  0.0337 -0.4615
21920SOL     OW72809   0.239   8.701   2.558 -0.2253 -0.6531  0.2646
21920SOL    HW172810   0.202   8.688   2.645 -0.6082 -0.1888  0.1756
21920SOL    HW272811   0.291   8.622   2.542  0.0261 -0.6369  0.9988
21921SOL     OW72812   4.628   3.971   0.902 -0.0077 -0.1571  0.6206
21921SOL    HW172813   4.695   4.007   0.844 -0.6331 -1.1415 -0.7784
21921SOL    HW272814   4.640   4.017   0.985  2.7011 -0.6681  0.5893
21922SOL     OW72815  10.878   6.816   8.534 -0.1937  0.5129  0.1869
21922SOL    HW172816  10.951   6.878   8.541  0.3139  0.0772 -0.9587
21922SOL    HW272817  10.920   6.730   8.534 -0.8190  0.2056  0.8244
21923SOL     OW72818   5.425   8.006   3.348 -0.5286 -0.2089  0.0654
21923SOL    HW172819   5.453   8.041   3.263  0.9108 -0.3505  0.4608
21923SOL    HW272820   5.404   8.083   3.400 -1.1350 -0.1106 -0.3130
21924SOL     OW72821  12.025   6.950  10.575 -0.6123  0.6223 -0.9380
21924SOL    HW172822  12.079   7.013  10.528  2.0908 -0.9724 -0.2484
21924SOL    HW272823  11.981   7.001  10.643  1.2234  1.8522 -0.5997
21925SOL     OW72824   2.742   1.865   4.615 -0.3095 -0.2078 -0.2615
21925SOL    HW172825   2.761   1.958   4.602  0.4757 -0.4789 -1.2161
21925SOL    HW272826   2.650   1.856   4.592 -0.3253  0.3015 -0.4125
21926SOL     OW72827  12.468   3.564  12.025  0.8612 -0.4239 -0.1733
21926SOL    HW172828  12.464   3.524  12.112 -0.6225  0.5774  0.2656
21926SOL    HW272829  12.379   3.597  12.010  1.2902  0.1059 -1.7515
21927SOL     OW72830  10.285   4.367   9.526  0.5428 -0.3963  0.1398
21927SOL    HW172831  10.290   4.402   9.437  1.1948 -1.0350 -0.0819
21927SOL    HW272832  10.320   4.437   9.581 -2.0702  1.0004  0.2131
21928SOL     OW72833   0.212  12.030   6.140 -0.4344 -0.4059  0.1860
21928SOL    HW172834   0.256  11.998   6.062  0.7102  0.6488  0.3591
21928SOL    HW272835   0.283  12.043   6.204 -0.6431  3.0699 -0.0938
21929SOL     OW72836  12.137  10.488   7.169 -0.2214  0.3727 -0.1621
21929SOL    HW172837  12.101  10.415   7.219 -3.4325  1.9895  0.1657
21929SOL    HW272838  12.169  10.550   7.235  2.3003 -0.5032 -0.4341
21930SOL     OW72839   8.180   9.126   3.521  0.2040  0.1456  0.3149
21930SOL    HW172840   8.166   9.221   3.512  1.1239  0.5003  2.2077
21930SOL    HW272841   8.092   9.089   3.525 -0.1691  0.8964 -0.5904
21931SOL     OW72842  11.376   2.496   0.737 -0.2363  0.0556 -0.3200
21931SOL    HW172843  11.370   2.512   0.831 -1.6600 -1.9429  0.0069
21931SOL    HW272844  11.296   2.447   0.716  0.3609 -0.1087 -2.4407
21932SOL     OW72845   0.731   6.547   5.375  0.0009  0.1158 -0.3000
21932SOL    HW172846   0.686   6.610   5.430  1.9832  0.0445  1.4957
21932SOL    HW272847   0.823   6.555   5.398  0.6566 -1.4530 -2.0821
21933SOL     OW72848   0.777  12.361   2.761 -0.0697 -0.3639 -0.8497
21933SOL    HW172849   0.703  12.385   2.817 -0.8525 -0.8376 -1.6349
21933SOL    HW272850   0.746  12.379   2.672  0.4876 -1.2562 -1.2419
21934SOL     OW72851   3.838  12.496   5.915 -0.1129 -0.2023 -0.3284
21934SOL    HW172852   3.805  12.448   5.839 -3.8502  0.0879  0.8672
21934SOL    HW272853   3.862  12.429   5.978  2.8183 -0.4406 -1.5616
21935SOL     OW72854   6.070  11.996   4.318  0.2689 -0.3260 -0.4614
21935SOL    HW172855   6.074  11.905   4.347 -2.6561 -0.2706  0.3986
21935SOL    HW272856   5.983  12.005   4.279  0.8729  1.8660 -1.4567
21936SOL     OW72857   8.779  11.369   0.665 -0.1107 -0.6962  0.5963
21936SOL    HW172858   8.698  11.378   0.615  0.5730 -2.0864 -0.8637
21936SOL    HW272859   8.777  11.278   0.697  1.6079 -1.3131 -0.9043
21937SOL     OW72860   1.824   6.037  12.447 -0.2200  0.4331  0.1831
21937SOL    HW172861   1.855   5.955  12.485 -1.1099 -0.5140 -1.0451
21937SOL    HW272862   1.783   6.083  12.520 -0.3049 -0.5321  0.7622
21938SOL     OW72863   8.722  10.008   4.730 -0.4584 -0.1557 -0.0443
21938SOL    HW172864   8.769  10.077   4.683 -0.5528 -1.0372 -1.4932
21938SOL    HW272865   8.770   9.928   4.709  0.0669 -0.4819  2.1634
21939SOL     OW72866   1.273   5.674   3.284  0.0982  0.2376  0.0938
21939SOL    HW172867   1.219   5.664   3.363 -0.1923  1.0712  0.0027
21939SOL    HW272868   1.247   5.600   3.228 -0.9142  0.5988  0.0732
21940SOL     OW72869   3.837  10.206   8.920 -0.1872 -0.2275  0.1023
21940SOL    HW172870   3.921  10.174   8.888  0.0188  1.2168 -0.9157
21940SOL    HW272871   3.772  10.161   8.866  0.0839  0.8048 -1.1299
21941SOL     OW72872   9.403  12.087   8.452 -0.1204  0.2130  0.7392
21941SOL    HW172873   9.319  12.132   8.452  0.2564  0.9849  2.4218
21941SOL    HW272874   9.451  12.128   8.380 -0.0713  2.0220  1.7315
21942SOL     OW72875   6.016  10.828   1.471  0.2119 -0.0033  0.1374
21942SOL    HW172876   5.969  10.890   1.415  0.8466  0.0003 -0.3993
21942SOL    HW272877   5.998  10.742   1.434  0.7367  0.0088 -0.1593
21943SOL     OW72878  11.051   9.105   7.152  0.3187  0.0873 -0.1948
21943SOL    HW172879  11.030   9.152   7.071 -0.4148  0.8337  0.3975
21943SOL    HW272880  11.071   9.175   7.215  0.8463 -0.4810  0.2790
21944SOL     OW72881   0.732   4.625   3.677  0.3669 -0.6366 -0.0312
21944SOL    HW172882   0.686   4.565   3.737 -0.8705 -0.3891 -0.7057
21944SOL    HW272883   0.784   4.681   3.735 -2.6295  1.1972  1.0882
21945SOL     OW72884   6.536   4.023   4.843  0.2776  0.2674 -0.7083
21945SOL    HW172885   6.594   3.948   4.858  0.8129  0.3154 -2.3203
21945SOL    HW272886   6.554   4.050   4.753 -1.8634  0.6350 -1.0914
21946SOL     OW72887  11.950   8.575   9.701 -0.1490 -0.3768  0.1148
21946SOL    HW172888  12.028   8.560   9.755 -0.2002 -1.8566 -0.1780
21946SOL    HW272889  11.884   8.607   9.762  0.4724  0.2277  0.4895
21947SOL     OW72890   5.568   8.347  10.090 -0.1237 -0.8842 -0.1431
21947SOL    HW172891   5.568   8.293  10.169  1.5957 -0.8603 -0.0852
21947SOL    HW272892   5.660   8.355  10.067 -0.5381 -0.1993 -1.6930
21948SOL     OW72893   6.687  10.965   5.981  0.2058  0.4153  0.0070
21948SOL    HW172894   6.718  11.055   5.967  1.2097  0.2034  0.7449
21948SOL    HW272895   6.634  10.946   5.904 -0.7912  1.9600  0.2496
21949SOL     OW72896   1.943   4.857  10.194 -0.4983 -0.2589 -0.6149
21949SOL    HW172897   1.901   4.884  10.276 -1.0533 -1.4831 -0.4756
21949SOL    HW272898   1.947   4.937  10.142 -1.4796  0.2402  0.0361
21950SOL     OW72899   8.338   8.925   6.553  0.4528  0.2129  0.1435
21950SOL    HW172900   8.265   8.983   6.529  1.2573  1.0371 -0.3824
21950SOL    HW272901   8.304   8.837   6.535 -0.2130  0.6111 -0.6783
21951SOL     OW72902   8.579   3.993   0.705  0.2693  0.7879 -0.3193
21951SOL    HW172903   8.525   3.960   0.777 -0.8353  0.3416 -1.3167
21951SOL    HW272904   8.663   4.014   0.746 -0.5088  1.0968  1.2033
21952SOL     OW72905   6.474   9.961   2.300 -0.7184 -0.5629  0.1960
21952SOL    HW172906   6.509   9.874   2.280 -0.8753 -0.4409 -0.6706
21952SOL    HW272907   6.535   9.998   2.363  0.4238 -0.5442 -0.9054
21953SOL     OW72908   7.032  10.411  11.121  0.2547 -0.0113 -0.3954
21953SOL    HW172909   7.126  10.420  11.105  0.2216 -0.9228 -1.2952
21953SOL    HW272910   6.998  10.500  11.117  1.2335  0.4579  1.1025
21954SOL     OW72911   0.937  11.480   8.969 -0.6083 -0.2227  0.1511
21954SOL    HW172912   1.000  11.480   8.897 -1.2677  1.6030 -0.4766
21954SOL    HW272913   0.990  11.464   9.047  0.3034 -0.8911 -0.5775
21955SOL     OW72914   1.614  11.871   4.559  0.2895  0.5082  0.3521
21955SOL    HW172915   1.589  11.871   4.651 -1.0752 -0.7456  0.0261
21955SOL    HW272916   1.538  11.907   4.513  0.3101 -0.3876 -0.4173
21956SOL     OW72917   4.996   3.764   2.869 -0.4807  0.3213  0.2293
21956SOL    HW172918   5.077   3.751   2.820 -0.7066  1.1349 -0.3798
21956SOL    HW272919   4.944   3.687   2.851 -1.5996  1.6661 -2.8932
21957SOL     OW72920   7.004   5.057  11.602  0.0069  0.5495  0.3246
21957SOL    HW172921   6.957   5.140  11.615 -0.9865 -0.2419  2.3103
21957SOL    HW272922   7.097   5.081  11.608 -0.1895  1.7409 -0.9035
21958SOL     OW72923   9.451   9.378   3.631  0.1499 -0.4707  0.0117
21958SOL    HW172924   9.366   9.336   3.623  1.4725 -3.4776  0.4962
21958SOL    HW272925   9.488   9.375   3.543  0.3510 -0.5519  0.0978
21959SOL     OW72926   5.622   8.158   2.095  0.1543 -0.3692  0.8352
21959SOL    HW172927   5.702   8.199   2.059  1.0091 -2.4630  0.2154
21959SOL    HW272928   5.559   8.230   2.098  1.3121  0.8373 -0.9887
21960SOL     OW72929   6.619  12.539   0.190 -0.1365  0.4680 -0.0275
21960SOL    HW172930   6.691  12.573   0.136 -0.8616  0.8741 -0.7483
21960SOL    HW272931   6.541  12.581   0.156 -0.7856 -0.3058  0.4683
21961SOL     OW72932   9.678   5.831   1.888  0.2556 -0.2198  0.2864
21961SOL    HW172933   9.591   5.841   1.926 -0.0651 -2.7043  0.3697
21961SOL    HW272934   9.663   5.788   1.804  1.3467  0.2350 -0.1573
21962SOL     OW72935   5.392  12.498   7.727  0.6632 -0.1442  0.3200
21962SOL    HW172936   5.331  12.556   7.680  3.1453  2.2486 -0.2012
21962SOL    HW272937   5.438  12.451   7.658  1.2346  0.0354  0.5798
21963SOL     OW72938   5.501  11.246   0.006 -0.3580 -0.3229 -0.0304
21963SOL    HW172939   5.541  11.164   0.036 -0.9633 -1.0216 -1.0769
21963SOL    HW272940   5.433  11.218  -0.056 -1.2162  0.9256  0.3122
21964SOL     OW72941  11.802   9.704   2.754  0.2479 -0.0556  0.0184
21964SOL    HW172942  11.755   9.645   2.813 -0.8269  0.2936 -0.4606
21964SOL    HW272943  11.890   9.668   2.750 -0.4373 -1.8133 -0.4724
21965SOL     OW72944   7.453   9.669   5.303  0.5603 -0.6288  0.4624
21965SOL    HW172945   7.546   9.670   5.325  1.1943 -1.2963 -1.8860
21965SOL    HW272946   7.441   9.745   5.246  0.3603 -2.0746 -1.5257
21966SOL     OW72947  10.584   1.740   6.428 -0.4440 -0.5232 -0.4100
21966SOL    HW172948  10.647   1.669   6.419  0.9009  0.6462 -0.4589
21966SOL    HW272949  10.506   1.709   6.381 -0.2532 -2.3455  0.3890
21967SOL     OW72950  11.656   9.455   1.633 -0.6714  0.2884  0.2279
21967SOL    HW172951  11.670   9.402   1.711  1.2993  1.5657  0.8140
21967SOL    HW272952  11.579   9.508   1.654 -0.3204  0.4277  1.2129
21968SOL     OW72953   9.824   8.361   0.027  0.2871  0.9768  0.3986
21968SOL    HW172954   9.885   8.366  -0.046  1.1057  0.3581  1.0145
21968SOL    HW272955   9.853   8.430   0.087  0.8882  0.1920  1.0429
21969SOL     OW72956  12.531   5.939   7.048  0.0851  0.1064  0.3850
21969SOL    HW172957  12.510   5.861   7.099 -0.6731  0.3424  0.4396
21969SOL    HW272958  12.623   5.928   7.024  0.2661 -0.3161  1.2493
21970SOL     OW72959   8.855   7.311  12.541 -0.3239  0.5614 -0.1902
21970SOL    HW172960   8.896   7.332  12.457 -1.9529 -1.5677 -1.6051
21970SOL    HW272961   8.802   7.389  12.561  1.5064  1.8593 -0.1212
21971SOL     OW72962   9.488   2.427   4.090 -0.0702 -0.0299  0.2118
21971SOL    HW172963   9.547   2.410   4.017 -0.4534 -1.3691  0.1852
21971SOL    HW272964   9.511   2.515   4.120  1.3252 -0.1786 -0.3546
21972SOL     OW72965   8.028  10.038   0.863 -0.0153 -0.2799 -0.1161
21972SOL    HW172966   8.108  10.018   0.814 -1.4020  0.2753 -2.8052
21972SOL    HW272967   7.966   9.970   0.838 -1.1917  0.7827 -0.2529
21973SOL     OW72968  11.524   6.818   5.941 -0.1640 -0.1896 -0.0234
21973SOL    HW172969  11.469   6.896   5.934  1.3349  0.8093 -1.8211
21973SOL    HW272970  11.486   6.757   5.878 -0.4317 -0.3169  0.2597
21974SOL     OW72971  11.792  11.118  10.790  0.4661  0.4020 -0.1418
21974SOL    HW172972  11.757  11.202  10.819 -0.0694 -0.0742  0.6150
21974SOL    HW272973  11.777  11.118  10.695 -0.3207  0.8014 -0.0284
21975SOL     OW72974   2.936   9.675   9.918 -0.4987  0.5684  0.3611
21975SOL    HW172975   2.940   9.745   9.852 -1.6187  1.0976  0.8122
21975SOL    HW272976   2.844   9.647   9.917 -0.1406 -0.6555  0.4547
21976SOL     OW72977   4.661   8.881   1.398  0.1072  0.4583  0.1766
21976SOL    HW172978   4.677   8.787   1.409  0.6921  0.2085 -2.2558
21976SOL    HW272979   4.732   8.923   1.446 -0.5231 -0.2745  1.8443
21977SOL     OW72980   1.187   7.046   9.904  0.5603  0.2976  0.5078
21977SOL    HW172981   1.119   6.998   9.952  1.1927 -0.9937  0.1652
21977SOL    HW272982   1.268   7.025   9.949  0.9039  0.7215  0.0998
21978SOL     OW72983   8.464   9.973   7.360  0.6119  0.0223 -0.4621
21978SOL    HW172984   8.554  10.003   7.349  0.8041 -0.4068 -0.0720
21978SOL    HW272985   8.436  10.011   7.443  0.5024 -0.0206 -0.4800
21979SOL     OW72986  11.670   0.118   1.145  0.1058  0.4012 -0.4113
21979SOL    HW172987  11.707   0.065   1.216  0.5109 -0.1579 -1.0233
21979SOL    HW272988  11.744   0.168   1.111 -0.0349  0.4943 -0.5814
21980SOL     OW72989   3.580  11.160   0.153 -0.3515  0.4329  0.1348
21980SOL    HW172990   3.673  11.138   0.149 -0.1578  1.2579 -0.0712
21980SOL    HW272991   3.546  11.105   0.224 -0.0862 -1.1496 -0.9036
21981SOL     OW72992   9.946   5.526  12.426 -0.1389  0.2694  0.4505
21981SOL    HW172993   9.868   5.473  12.443 -0.9180  0.8847 -1.0005
21981SOL    HW272994   9.982   5.490  12.345  0.7260  0.4131  0.7626
21982SOL     OW72995  10.041   0.061   7.839 -0.3507  0.4637 -0.2789
21982SOL    HW172996  10.130   0.086   7.815 -0.3415  1.5823  0.8283
21982SOL    HW272997  10.030  -0.026   7.801  0.5273  1.0828 -2.1059
21983SOL     OW72998   9.224   4.983   3.661 -0.7276 -0.4346 -0.4714
21983SOL    HW172999   9.174   4.903   3.650  1.3619 -2.0390  0.8311
21983SOL    HW273000   9.304   4.969   3.610 -1.0474  1.5762 -1.6229
21984SOL     OW73001   5.734   1.849   4.020 -0.6047  0.0917 -0.2636
21984SOL    HW173002   5.672   1.901   3.969 -2.8050 -1.5916  0.5045
21984SOL    HW273003   5.681   1.810   4.090  1.4203 -1.1429  0.6889
21985SOL     OW73004   2.676   3.543   1.373 -0.2182 -0.5329  0.0852
21985SOL    HW173005   2.732   3.501   1.307  0.3323  1.8012 -1.0318
21985SOL    HW273006   2.608   3.588   1.322 -0.1309  0.8418  1.1278
21986SOL     OW73007   6.003  12.148   1.757  0.0868  0.0597  0.1632
21986SOL    HW173008   6.034  12.099   1.833  0.9300 -1.5904 -1.1619
21986SOL    HW273009   5.998  12.083   1.687 -3.8551  0.7862 -0.4468
21987SOL     OW73010   2.445   7.958   2.730 -0.3531  0.3161 -0.2760
21987SOL    HW173011   2.355   7.989   2.727 -0.7421 -0.7232  0.1439
21987SOL    HW273012   2.453   7.901   2.654 -0.2385 -0.0506  0.0040
21988SOL     OW73013   8.340   3.156   9.014  0.0642 -0.6022 -0.4419
21988SOL    HW173014   8.432   3.130   9.013  0.1045 -0.4581 -0.5271
21988SOL    HW273015   8.292   3.074   8.999  0.1887 -0.6333 -0.6808
21989SOL     OW73016  11.380   9.087  11.442 -0.7289  0.1060 -0.2206
21989SOL    HW173017  11.370   9.037  11.523 -0.7550 -0.9276 -0.8383
21989SOL    HW273018  11.444   9.154  11.463  0.3230 -1.0093  0.2876
21990SOL     OW73019   2.179   2.992   0.540 -0.2877 -0.4999 -0.2107
21990SOL    HW173020   2.250   3.056   0.533 -0.1302 -0.4368  1.6075
21990SOL    HW273021   2.125   3.007   0.462  0.4167  1.0140 -0.4301
21991SOL     OW73022   5.929   5.990   9.673  0.2208 -0.3230  0.5000
21991SOL    HW173023   5.971   6.072   9.700 -1.0053  0.7824 -0.7307
21991SOL    HW273024   5.835   6.006   9.690 -0.1253 -1.1130 -0.6192
21992SOL     OW73025  10.326   5.465  11.965  0.7012  0.3703  0.2938
21992SOL    HW173026  10.329   5.418  12.048  0.1355 -0.6747 -0.2577
21992SOL    HW273027  10.403   5.521  11.967  1.6955 -0.9518  0.7725
21993SOL     OW73028   1.594  12.373   9.007  0.1369 -0.2146  1.6890
21993SOL    HW173029   1.656  12.313   8.965 -0.7881 -0.0573  0.0065
21993SOL    HW273030   1.629  12.385   9.095  3.9463  1.7712  0.1862
21994SOL     OW73031   3.717   5.823  10.894 -0.4569  0.4223  0.8767
21994SOL    HW173032   3.762   5.748  10.856 -1.1345  1.0075 -1.1952
21994SOL    HW273033   3.632   5.824  10.852 -1.3090  1.0793  2.5362
21995SOL     OW73034  10.621   1.624   4.120 -0.0297 -0.2093  0.0117
21995SOL    HW173035  10.637   1.591   4.208 -0.3134  1.2009  0.6181
21995SOL    HW273036  10.529   1.601   4.103  0.0192 -0.4671  0.0834
21996SOL     OW73037   9.688   2.407   7.344  0.0584 -0.3166 -0.2144
21996SOL    HW173038   9.719   2.443   7.261 -0.3867  0.2564 -0.1366
21996SOL    HW273039   9.593   2.409   7.338  0.0228 -0.4689  0.2256
21997SOL     OW73040   4.558   9.350   0.232 -0.0782  0.0217 -0.3371
21997SOL    HW173041   4.481   9.316   0.278 -0.9603  0.7635 -1.2275
21997SOL    HW273042   4.619   9.376   0.303 -1.7623  1.9809  0.5098
21998SOL     OW73043   9.439   5.287   8.855 -0.5687  0.0304 -0.3505
21998SOL    HW173044   9.366   5.245   8.808 -1.3605  0.0057  0.8570
21998SOL    HW273045   9.469   5.355   8.795 -2.2275  0.6757 -0.5155
21999SOL     OW73046   9.929   7.593   3.856 -0.2209  0.3282 -0.6080
21999SOL    HW173047   9.959   7.579   3.766 -1.4673 -0.1823 -0.9677
21999SOL    HW273048   9.966   7.521   3.905  0.1490  0.3932 -0.7857
22000SOL     OW73049   8.388  10.610   8.953  0.1809 -0.8750 -0.6073
22000SOL    HW173050   8.328  10.684   8.962  2.2924  0.9545 -0.6561
22000SOL    HW273051   8.344  10.538   8.999 -1.7146  0.5336 -0.0693
22001SOL     OW73052   9.440   8.943   4.271  0.2955 -0.1494 -0.2144
22001SOL    HW173053   9.514   8.991   4.235 -0.1748 -0.5158 -1.7464
22001SOL    HW273054   9.362   8.988   4.238 -0.1541 -1.0717 -0.4725
22002SOL     OW73055   2.461   9.407   6.818 -0.3191  0.5479  0.3160
22002SOL    HW173056   2.500   9.474   6.761 -0.0467  1.4846  1.5509
22002SOL    HW273057   2.425   9.457   6.891 -1.1023 -0.5830  0.7269
22003SOL     OW73058   3.783   5.727   2.446 -0.3086 -0.6316 -0.2758
22003SOL    HW173059   3.847   5.704   2.513  1.3563  0.6509 -1.3425
22003SOL    HW273060   3.729   5.795   2.485 -1.5858 -2.2177  0.8867
22004SOL     OW73061   8.775   0.963   4.774 -0.0799  0.3905  0.0691
22004SOL    HW173062   8.816   1.049   4.786  0.8465 -0.2175  1.5996
22004SOL    HW273063   8.685   0.974   4.806  0.9871  0.0279  3.6940
22005SOL     OW73064   6.349   9.603   6.772  0.2696 -0.0238 -0.0150
22005SOL    HW173065   6.332   9.686   6.817 -1.3738  0.8745 -2.1188
22005SOL    HW273066   6.418   9.624   6.709  1.8640 -1.0236  1.3261
22006SOL     OW73067   6.819  11.441   0.513  0.2817  0.0677 -0.2023
22006SOL    HW173068   6.904  11.415   0.547  0.2140  0.2106  0.0762
22006SOL    HW273069   6.764  11.450   0.590  0.3966  1.4016 -0.2611
22007SOL     OW73070  10.833   8.292   9.055  0.1139  0.4227  0.0819
22007SOL    HW173071  10.852   8.294   9.149 -0.2901 -3.6701  0.4132
22007SOL    HW273072  10.739   8.309   9.050 -0.2766 -1.3472  0.6974
22008SOL     OW73073   2.160  12.264   4.981 -0.4354 -0.9316  0.1134
22008SOL    HW173074   2.222  12.195   4.955 -1.3277 -0.9918 -2.0352
22008SOL    HW273075   2.080  12.217   5.005 -0.6190 -0.7115 -0.0640
22009SOL     OW73076  11.239  12.550   5.668  0.0207  0.0540 -0.3219
22009SOL    HW173077  11.262  12.475   5.723 -0.9690 -0.4869 -0.6184
22009SOL    HW273078  11.286  12.535   5.586  1.9077  1.1210  0.5130
22010SOL     OW73079   5.841   1.637   2.146  0.3835  0.1665 -0.1172
22010SOL    HW173080   5.813   1.715   2.098  0.0786  0.8781  1.1676
22010SOL    HW273081   5.935   1.651   2.161  0.6254 -0.3652 -1.0287
22011SOL     OW73082  10.828   6.870   3.166  0.3173  0.3072  0.7357
22011SOL    HW173083  10.780   6.829   3.238  0.1245  1.9462  1.5872
22011SOL    HW273084  10.874   6.943   3.207  1.0989  0.5954 -0.6215
22012SOL     OW73085   8.825  12.031   4.381 -0.2339 -0.5676  0.0913
22012SOL    HW173086   8.869  11.949   4.403  1.2159  0.1074 -0.2394
22012SOL    HW273087   8.859  12.054   4.295 -0.7428  0.3257  0.1196
22013SOL     OW73088   9.936   6.355   9.509 -0.0748 -0.1805  0.7848
22013SOL    HW173089   9.891   6.301   9.574 -0.5776 -1.3537 -0.4670
22013SOL    HW273090   9.909   6.317   9.425  0.4685  1.3383 -0.1112
22014SOL     OW73091   5.943   5.266   5.316 -0.0276 -0.1647 -0.0144
22014SOL    HW173092   5.899   5.188   5.349 -0.1192 -0.9576 -1.8661
22014SOL    HW273093   6.022   5.232   5.273  0.0882  0.7870 -0.5869
22015SOL     OW73094   8.826   5.134   0.323 -0.6560 -0.2766  0.3233
22015SOL    HW173095   8.814   5.229   0.327 -0.4046 -0.2488  0.4360
22015SOL    HW273096   8.813   5.104   0.413  0.4453 -0.2046  0.5144
22016SOL     OW73097   5.869   9.462  11.477 -0.4825  0.0547 -0.7881
22016SOL    HW173098   5.796   9.521  11.461  0.9705  2.1872  0.0980
22016SOL    HW273099   5.890   9.475  11.569  1.0554 -0.4849 -1.0394
22017SOL     OW73100  10.379   1.133   2.696 -0.0838 -0.0024 -0.3666
22017SOL    HW173101  10.330   1.214   2.701  0.1163  0.0661  0.9946
22017SOL    HW273102  10.360   1.088   2.779  1.1356 -0.5514 -0.3594
22018SOL     OW73103  11.007   4.637   4.429 -0.3789 -0.7207 -0.6004
22018SOL    HW173104  10.974   4.660   4.516  0.3199 -0.4396 -0.3998
22018SOL    HW273105  10.992   4.542   4.423 -0.2901 -0.7716 -0.1036
22019SOL     OW73106  12.586  12.539   6.695 -0.2522  0.2869  0.1173
22019SOL    HW173107  12.625  12.459   6.660  0.2871  0.6252 -0.0723
22019SOL    HW273108  12.616  12.608   6.636  0.6851  0.8780  1.2520
22020SOL     OW73109   3.487   1.262   2.582  0.2018  0.5231 -0.4167
22020SOL    HW173110   3.441   1.331   2.535 -1.8733  1.2135  2.3825
22020SOL    HW273111   3.420   1.222   2.638  2.5173  0.1531  2.3340
22021SOL     OW73112   4.353   3.736   4.709  0.2496  0.1374 -0.6403
22021SOL    HW173113   4.303   3.695   4.638 -1.6073 -0.9023  1.1641
22021SOL    HW273114   4.311   3.822   4.722 -0.7146 -0.4701  0.4432
22022SOL     OW73115   2.466   8.767  12.254  0.3233 -0.6940 -0.0340
22022SOL    HW173116   2.420   8.816  12.322  0.8114  0.6531 -0.6336
22022SOL    HW273117   2.506   8.694  12.300 -1.7227 -1.4623  0.6376
22023SOL     OW73118   2.012   3.600   3.076  0.4611  0.2056  0.0538
22023SOL    HW173119   1.994   3.683   3.032 -0.1990 -0.2825 -0.6210
22023SOL    HW273120   2.099   3.575   3.043  0.0482 -0.0659 -0.8459
22024SOL     OW73121   6.135   0.054   3.686 -0.1392 -0.3987  0.1924
22024SOL    HW173122   6.134   0.064   3.590 -0.5028 -0.7837  0.1492
22024SOL    HW273123   6.215   0.097   3.714 -0.2148  0.0413 -0.2515
22025SOL     OW73124   8.301   9.105   2.078 -0.4888 -0.0845 -0.2704
22025SOL    HW173125   8.384   9.065   2.052  0.2409  1.8087 -1.0070
22025SOL    HW273126   8.325   9.192   2.109 -1.7848 -0.8228  3.2159
22026SOL     OW73127   8.060   8.016   6.903 -0.4361 -0.0472  0.0315
22026SOL    HW173128   8.077   8.067   6.823 -0.8872 -1.9467 -1.3457
22026SOL    HW273129   8.145   7.981   6.928 -0.4585 -0.3128 -0.2528
22027SOL     OW73130   9.791   3.803  12.472  0.6899 -0.6586  0.0068
22027SOL    HW173131   9.722   3.803  12.406  0.2994  0.3444  0.3885
22027SOL    HW273132   9.835   3.887  12.460  1.1873 -0.8519  0.4417
22028SOL     OW73133   5.075   1.472   7.276 -0.0722  1.1005 -0.2304
22028SOL    HW173134   5.082   1.566   7.294 -1.0037  1.0575  0.4501
22028SOL    HW273135   5.165   1.442   7.268  0.2417  2.2912 -1.7884
22029SOL     OW73136   7.196   4.028   9.463 -0.0787  0.4084 -0.3461
22029SOL    HW173137   7.257   3.984   9.404  0.6237  1.0212 -0.0872
22029SOL    HW273138   7.123   3.967   9.472 -0.1016  0.2183 -1.6880
22030SOL     OW73139   4.736   6.421   6.635 -0.1679 -0.4747  0.0782
22030SOL    HW173140   4.820   6.379   6.653 -0.3669 -0.2508  1.7012
22030SOL    HW273141   4.744   6.508   6.674 -1.0000 -0.2868 -0.1497
22031SOL     OW73142   4.873   8.356   0.735 -0.5396 -0.2095  0.6789
22031SOL    HW173143   4.938   8.380   0.801 -0.3549 -3.3833  1.8502
22031SOL    HW273144   4.904   8.398   0.655  0.7401  1.5818  2.0236
22032SOL     OW73145   7.533   1.955   6.869  0.1086 -0.2075 -0.4115
22032SOL    HW173146   7.607   1.988   6.817 -0.0947 -0.5795 -0.9383
22032SOL    HW273147   7.501   1.880   6.820  0.2695 -0.9183  0.5511
22033SOL     OW73148   0.727   8.504   7.144  0.1513 -0.0387 -0.8216
22033SOL    HW173149   0.803   8.532   7.094 -1.1847  1.3110 -2.2210
22033SOL    HW273150   0.677   8.449   7.084 -2.3212  2.9313 -1.7629
22034SOL     OW73151  10.241   6.500   4.288 -0.1898 -0.3172 -0.1175
22034SOL    HW173152  10.261   6.466   4.375  0.8460 -0.0657 -0.2460
22034SOL    HW273153  10.324   6.494   4.240 -0.9289 -1.2127 -1.3500
22035SOL     OW73154   3.170  11.294   2.973  0.5421 -0.1056 -0.0402
22035SOL    HW173155   3.214  11.350   2.909  1.3057  0.3806  0.8796
22035SOL    HW273156   3.104  11.350   3.013  1.0293  0.0238  0.5924
22036SOL     OW73157   0.917   0.363   8.794  0.1695 -0.4617 -0.2717
22036SOL    HW173158   0.939   0.448   8.757 -2.5439  1.2172  1.6530
22036SOL    HW273159   0.944   0.369   8.886 -1.8234 -0.8562  0.3899
22037SOL     OW73160  11.319  11.223   9.899 -0.0252 -0.8431 -0.0269
22037SOL    HW173161  11.303  11.305   9.852  0.4015 -1.0467 -0.5249
22037SOL    HW273162  11.392  11.182   9.853  0.0366 -1.3072  0.4752
22038SOL     OW73163   8.471   2.899   5.581 -0.3691  0.8382 -0.4842
22038SOL    HW173164   8.523   2.971   5.617 -0.8168  1.5879 -1.2906
22038SOL    HW273165   8.494   2.898   5.488  0.4554 -0.7908 -0.2986
22039SOL     OW73166  10.079   8.161   1.899 -0.1454  0.8697  0.1976
22039SOL    HW173167  10.174   8.160   1.892 -0.2413 -0.0770 -1.7540
22039SOL    HW273168  10.059   8.235   1.957  1.8079  0.0098  2.1020
22040SOL     OW73169   7.533   3.934   5.920 -0.6781 -0.0624  0.0103
22040SOL    HW173170   7.541   3.886   6.003  1.6327 -0.1899 -0.2170
22040SOL    HW273171   7.480   3.877   5.864 -0.4095 -1.0081  0.6929
22041SOL     OW73172   6.856   7.118  12.437  0.0032 -0.5976 -0.6499
22041SOL    HW173173   6.827   7.184  12.499 -1.4941  0.2605 -2.1914
22041SOL    HW273174   6.849   7.035  12.485  1.5913  0.2526  1.1887
22042SOL     OW73175   5.748   2.833   2.824  0.3132  0.7526  0.5222
22042SOL    HW173176   5.760   2.745   2.859 -0.4522 -0.0427 -1.1275
22042SOL    HW273177   5.775   2.827   2.732 -1.9348  1.6300 -0.2668
22043SOL     OW73178   4.688   9.003  10.139  0.5622  0.4759 -0.2406
22043SOL    HW173179   4.598   8.995  10.109  0.3224  0.2726  0.5208
22043SOL    HW273180   4.732   8.924  10.109  0.5358  0.6565 -0.7632
22044SOL     OW73181   5.857  10.739   5.942 -0.4167  0.0641  0.0384
22044SOL    HW173182   5.872  10.648   5.966 -3.6300 -0.7165 -0.4205
22044SOL    HW273183   5.894  10.790   6.015  1.6898 -1.5276  0.1646
22045SOL     OW73184   5.673   2.669  11.471 -0.1624 -0.2711 -0.3590
22045SOL    HW173185   5.723   2.634  11.545  2.2290 -2.9029 -3.0065
22045SOL    HW273186   5.737   2.718  11.420 -1.7459  1.3859 -0.8840
22046SOL     OW73187   6.038   7.181   8.653  0.5958  0.1364 -0.5992
22046SOL    HW173188   6.095   7.248   8.689  0.2500  1.1674 -1.8854
22046SOL    HW273189   5.996   7.223   8.578  0.0092 -1.3723 -1.1602
22047SOL     OW73190   5.523   2.079   2.627  0.1548 -0.1864 -0.0255
22047SOL    HW173191   5.550   1.994   2.662  0.9824 -0.2573 -0.7858
22047SOL    HW273192   5.451   2.107   2.684  0.9615 -0.6211  1.2501
22048SOL     OW73193   8.779  11.135   6.347 -0.2851  0.3944  0.4837
22048SOL    HW173194   8.713  11.189   6.390  0.0727  1.5123 -0.3320
22048SOL    HW273195   8.861  11.183   6.360  0.1748 -0.3264  0.3566
22049SOL     OW73196   2.436  10.798   3.061  0.2765  0.4235  0.2589
22049SOL    HW173197   2.518  10.823   3.103  0.1755 -1.0564  1.4215
22049SOL    HW273198   2.407  10.720   3.109 -2.7634  1.9293  1.1297
22050SOL     OW73199   5.662   9.793   9.687  0.1185 -0.0895 -0.4793
22050SOL    HW173200   5.629   9.838   9.765  0.3663 -1.5209  0.4915
22050SOL    HW273201   5.584   9.758   9.644  0.1511 -1.6259  0.6425
22051SOL     OW73202  11.436   1.156   0.090 -0.1808  0.2357 -0.4470
22051SOL    HW173203  11.394   1.080   0.051 -1.5598  1.2673 -1.0735
22051SOL    HW273204  11.400   1.231   0.042 -0.2517  1.4029  1.3227
22052SOL     OW73205  10.313   8.428  12.526 -0.5791  0.0289  0.1927
22052SOL    HW173206  10.394   8.478  12.538  1.1903 -2.4580 -0.6817
22052SOL    HW273207  10.306   8.415  12.432 -1.3147 -0.8875  0.3582
22053SOL     OW73208   0.283  10.776   6.792  0.2342  0.2494 -0.0334
22053SOL    HW173209   0.305  10.685   6.773 -0.2899 -0.7590  3.5131
22053SOL    HW273210   0.306  10.823   6.712  3.3824 -2.5175 -0.9746
22054SOL     OW73211   2.857   9.201  11.707  0.3161 -0.4756  0.4912
22054SOL    HW173212   2.886   9.200  11.798  0.8530 -1.7898  0.3372
22054SOL    HW273213   2.780   9.258  11.706  1.8063  1.6739  1.2523
22055SOL     OW73214   9.012   8.141  10.029 -0.8093  0.2316  0.6350
22055SOL    HW173215   8.999   8.235  10.043  0.7504  1.0266 -2.2603
22055SOL    HW273216   9.107   8.129  10.036 -1.0859 -1.4559  2.2385
22056SOL     OW73217   7.916   5.925   7.529  0.0660  0.6304  0.8126
22056SOL    HW173218   7.909   5.932   7.434  0.4243  1.6244  0.8506
22056SOL    HW273219   7.942   5.834   7.544 -0.1275  0.4259 -0.0232
22057SOL     OW73220   7.332  11.386   3.476 -0.3481 -0.1305 -0.0681
22057SOL    HW173221   7.370  11.438   3.405 -1.3003  1.3441  0.4511
22057SOL    HW273222   7.349  11.436   3.555 -0.0085 -1.3647  0.6698
22058SOL     OW73223   2.571   9.802   7.866  0.2367 -0.2629  0.1780
22058SOL    HW173224   2.526   9.822   7.948  0.0398 -2.6691  0.7473
22058SOL    HW273225   2.535   9.863   7.802 -0.2671  1.0685  1.6853
22059SOL     OW73226   9.235   5.180   8.720 -0.4567  0.0278 -0.2211
22059SOL    HW173227   9.206   5.164   8.630 -0.0243  0.6187 -0.4691
22059SOL    HW273228   9.188   5.114   8.772 -0.9592 -0.1102 -0.8333
22060SOL     OW73229   8.537  11.860  11.213  0.3873 -0.0532 -0.1129
22060SOL    HW173230   8.620  11.849  11.168  0.6931  0.5476  0.2749
22060SOL    HW273231   8.522  11.777  11.257  2.0225  0.5837  1.8074
22061SOL     OW73232   8.779   9.643   9.411  0.2564 -0.3059  0.3794
22061SOL    HW173233   8.730   9.598   9.342 -0.5435  0.0373  0.7137
22061SOL    HW273234   8.721   9.640   9.487  0.4934  0.6443  0.6086
22062SOL     OW73235   7.704  12.033   2.706  0.0956  0.3656  0.3759
22062SOL    HW173236   7.719  11.952   2.656  2.1646  1.7686 -1.4720
22062SOL    HW273237   7.623  12.016   2.755  0.2502 -2.6572 -0.2076
22063SOL     OW73238   2.102   6.311  10.987  0.4738 -0.3771 -0.8790
22063SOL    HW173239   2.041   6.241  11.012 -1.5007  1.8228  1.0621
22063SOL    HW273240   2.170   6.309  11.054  0.3968 -0.4194 -0.8027
22064SOL     OW73241   4.616   1.063   4.658  0.1356 -0.2716 -0.4202
22064SOL    HW173242   4.664   1.021   4.730 -1.4536 -0.3996  0.6166
22064SOL    HW273243   4.629   1.157   4.673  2.7148 -0.2740 -2.0617
22065SOL     OW73244   9.649  11.353   5.814  0.0530  0.5148 -0.1149
22065SOL    HW173245   9.648  11.416   5.886  0.7619  1.2893 -0.7623
22065SOL    HW273246   9.677  11.404   5.738  1.9956 -0.8258 -0.3793
22066SOL     OW73247   7.060  12.518   4.931 -0.3308 -0.5673  0.2298
22066SOL    HW173248   6.991  12.456   4.956  0.5747 -1.9309 -0.5015
22066SOL    HW273249   7.081  12.564   5.012  0.9257 -3.2366  1.5873
22067SOL     OW73250   0.004   6.791  11.477  0.3932  0.1031 -0.4081
22067SOL    HW173251   0.092   6.778  11.443  0.4911 -3.0941  0.7423
22067SOL    HW273252  -0.045   6.713  11.452 -1.4750  0.7502  0.8993
22068SOL     OW73253   1.951   0.099   2.982 -0.0722  0.3796 -0.4672
22068SOL    HW173254   1.892   0.028   3.009 -1.2476  0.1731 -3.2128
22068SOL    HW273255   2.030   0.053   2.952  0.8015  0.5448  1.4512
22069SOL     OW73256   2.890   1.557   7.087  0.0669 -0.6235 -0.6622
22069SOL    HW173257   2.888   1.485   7.024 -0.2665 -1.2277  0.0292
22069SOL    HW273258   2.956   1.617   7.052  0.8844 -1.6171 -0.8744
22070SOL     OW73259   6.773   1.611   7.242 -0.3660  0.0764  0.4231
22070SOL    HW173260   6.679   1.618   7.255 -0.2420  1.1369  0.7940
22070SOL    HW273261   6.810   1.606   7.330 -0.2676 -3.9245  0.3379
22071SOL     OW73262   5.864   1.116   0.449 -0.0894 -0.3105  0.4026
22071SOL    HW173263   5.944   1.085   0.491  0.4888  0.3740 -0.1699
22071SOL    HW273264   5.801   1.124   0.520  0.3175 -0.9363  0.8494
22072SOL     OW73265   1.783   5.104   5.883 -0.3316 -0.7845 -0.0681
22072SOL    HW173266   1.857   5.164   5.892 -2.1683  1.4952  1.0360
22072SOL    HW273267   1.724   5.148   5.822 -1.8295 -1.3232  0.9249
22073SOL     OW73268   0.365   9.954   7.941  0.3240  0.0070 -0.4740
22073SOL    HW173269   0.346   9.860   7.930 -1.7022  0.6201 -3.3963
22073SOL    HW273270   0.460   9.959   7.939  0.4848 -1.9838 -0.2455
22074SOL     OW73271   1.679  11.256  11.821 -0.1892 -0.5903 -0.0157
22074SOL    HW173272   1.648  11.226  11.736 -0.2400 -2.2564  0.5582
22074SOL    HW273273   1.702  11.348  11.807 -1.5234 -0.4373 -1.4630
22075SOL     OW73274   7.961   8.281   9.979 -0.7885  0.4270 -0.7132
22075SOL    HW173275   7.989   8.246  10.064 -1.7734  1.7888  0.2072
22075SOL    HW273276   7.883   8.333   9.999 -0.5424  1.4841 -2.3351
22076SOL     OW73277  10.726   3.502   5.136  0.2890  0.4821  0.1578
22076SOL    HW173278  10.746   3.580   5.085  0.6332 -0.2907 -0.9437
22076SOL    HW273279  10.653   3.461   5.089 -0.6937  0.7579  1.4025
22077SOL     OW73280  10.385   5.371   5.386 -0.9854  0.4388 -0.2196
22077SOL    HW173281  10.476   5.392   5.409 -1.1412  1.9636 -0.8379
22077SOL    HW273282  10.338   5.453   5.399 -1.7252  0.4747 -2.6137
22078SOL     OW73283   5.389  11.909   6.305 -0.5403  0.2570 -0.2699
22078SOL    HW173284   5.297  11.883   6.313 -0.3814 -0.8082 -1.4672
22078SOL    HW273285   5.425  11.849   6.239  1.0381  0.6026  0.2279
22079SOL     OW73286   2.223   5.603   3.880  0.0422 -0.7970 -0.0041
22079SOL    HW173287   2.128   5.589   3.879 -0.4016  1.7903 -0.5426
22079SOL    HW273288   2.248   5.585   3.971 -1.2181 -0.1159  0.5046
22080SOL     OW73289   7.196   3.052   0.988 -0.1596  0.0012  0.5851
22080SOL    HW173290   7.125   3.009   1.037 -0.8896  0.5535  0.0340
22080SOL    HW273291   7.224   2.986   0.925 -1.9206  0.5697 -0.9044
22081SOL     OW73292   1.529  11.601   0.305 -0.0588 -0.5204  0.6428
22081SOL    HW173293   1.554  11.513   0.332  1.3975 -0.0096  1.1025
22081SOL    HW273294   1.447  11.590   0.258  0.1455 -2.1293  0.6060
22082SOL     OW73295   8.611   8.690  11.412 -0.3434 -0.3536 -0.4858
22082SOL    HW173296   8.517   8.705  11.423 -0.4943 -1.2207 -0.5411
22082SOL    HW273297   8.618   8.599  11.383  0.5472 -0.4372 -0.0422
22083SOL     OW73298   5.930   2.589   7.335 -0.0688  0.0968  0.2793
22083SOL    HW173299   5.865   2.543   7.281 -0.0770  0.8907 -0.4006
22083SOL    HW273300   6.009   2.537   7.325  0.2627  0.8621 -1.4839
22084SOL     OW73301  10.410  10.097   0.104  0.4269 -0.0952  0.1882
22084SOL    HW173302  10.419  10.190   0.087  1.1222 -0.3764 -1.0783
22084SOL    HW273303  10.484  10.057   0.058 -1.1389 -1.4903 -1.2262
22085SOL     OW73304   9.957   5.893   3.064  0.2163  0.1238  1.0002
22085SOL    HW173305  10.008   5.813   3.049  0.9210  0.1414  3.0957
22085SOL    HW273306   9.868   5.869   3.035  0.2642 -1.6554  2.1796
22086SOL     OW73307  12.363   1.577   9.849 -0.3449  0.5847  0.0112
22086SOL    HW173308  12.270   1.575   9.871 -0.4957  1.3469 -0.4960
22086SOL    HW273309  12.401   1.505   9.898 -1.2494  0.0996  0.0234
22087SOL     OW73310   9.481   6.050  11.970 -0.0146  0.1715  0.3833
22087SOL    HW173311   9.513   5.970  12.010  2.0710  0.5117 -0.4934
22087SOL    HW273312   9.528   6.120  12.015  1.6227  0.6134 -1.8201
22088SOL     OW73313  10.802  11.668   9.937 -0.1555  0.0736 -0.4722
22088SOL    HW173314  10.842  11.595   9.889 -0.6954  0.0377 -0.8850
22088SOL    HW273315  10.834  11.746   9.893 -0.7047  0.0389 -0.9559
22089SOL     OW73316   8.707   7.919   5.280  0.2110  0.0520 -0.0750
22089SOL    HW173317   8.687   7.857   5.350  2.2974 -0.4679  0.1337
22089SOL    HW273318   8.781   7.969   5.313  0.0811  1.0391 -1.2146
22090SOL     OW73319   8.904  10.315   1.182 -0.0080  0.0296  0.3440
22090SOL    HW173320   8.879  10.406   1.198 -0.4211  0.0864 -0.5948
22090SOL    HW273321   8.836  10.263   1.225 -1.2091  0.1811 -1.3067
22091SOL     OW73322   3.600   2.493   9.720 -0.0796 -0.0613 -0.5832
22091SOL    HW173323   3.566   2.570   9.675 -0.0082  0.5324  0.3483
22091SOL    HW273324   3.538   2.479   9.792  1.6750  1.1494  1.2703
22092SOL     OW73325   4.828   0.874   9.782  0.5421  0.2111  0.0670
22092SOL    HW173326   4.778   0.837   9.854  0.8314 -1.8714 -0.7180
22092SOL    HW273327   4.879   0.800   9.749  2.2983  1.6945 -0.6920
22093SOL     OW73328  11.160   6.192   7.595 -0.0175 -0.3659 -0.1139
22093SOL    HW173329  11.126   6.190   7.505 -0.5704 -0.2960  0.0910
22093SOL    HW273330  11.117   6.120   7.639 -0.4855  0.1888  0.3525
22094SOL     OW73331   8.122   0.441   7.667 -0.7562 -0.1216 -0.1208
22094SOL    HW173332   8.171   0.508   7.714  0.1561 -0.5644 -0.4240
22094SOL    HW273333   8.123   0.366   7.726  0.2626 -0.6303 -0.7511
22095SOL     OW73334   9.509   1.976   5.675  0.1493  0.0663 -0.4159
22095SOL    HW173335   9.468   1.970   5.589  0.5359 -0.0109 -0.5977
22095SOL    HW273336   9.476   1.900   5.722 -0.0225  0.0801 -0.5103
22096SOL     OW73337   7.215   2.923   0.221 -0.0570 -0.8198  0.4409
22096SOL    HW173338   7.248   3.013   0.219 -0.3056 -0.7349 -0.1916
22096SOL    HW273339   7.134   2.929   0.273  0.1920 -0.7766  0.8299
22097SOL     OW73340   6.422   4.295   2.241 -0.3015 -0.3077  0.3297
22097SOL    HW173341   6.480   4.327   2.172 -2.1328 -0.2223 -1.2861
22097SOL    HW273342   6.465   4.319   2.323  1.5357  0.3926 -0.7908
22098SOL     OW73343  12.033   8.724   1.192  0.0919 -0.3499  0.1456
22098SOL    HW173344  11.938   8.717   1.202 -0.1156 -0.9400 -1.8136
22098SOL    HW273345  12.058   8.800   1.244 -1.2821 -0.7899  1.5323
22099SOL     OW73346   8.836  10.670   6.215 -0.1346 -0.1637 -0.2254
22099SOL    HW173347   8.886  10.660   6.295  0.3660 -0.9429 -0.6230
22099SOL    HW273348   8.869  10.601   6.157 -0.5346  0.3414 -1.0731
22100SOL     OW73349   2.679   8.846   1.797  0.1103  0.1163 -0.3270
22100SOL    HW173350   2.655   8.761   1.832  0.7517 -0.5211 -1.4013
22100SOL    HW273351   2.607   8.869   1.738  1.2881 -1.0711 -2.3247
22101SOL     OW73352   3.678   8.680   1.534 -0.1159  0.0137  0.5340
22101SOL    HW173353   3.713   8.596   1.565  0.2959 -0.3472 -0.8243
22101SOL    HW273354   3.699   8.681   1.441 -1.7272  0.8174  0.1448
22102SOL     OW73355  11.329  10.977   2.739  0.1972 -0.4967 -1.1980
22102SOL    HW173356  11.318  11.042   2.808  0.5420  0.0871 -1.6765
22102SOL    HW273357  11.240  10.946   2.721  0.1227 -0.7775 -0.3899
22103SOL     OW73358   4.987   1.628   1.877  0.4690 -0.3688  0.0568
22103SOL    HW173359   4.893   1.646   1.877  0.7302  1.1116  1.1080
22103SOL    HW273360   5.007   1.604   1.967  1.1924 -0.0936 -0.0273
22104SOL     OW73361   9.530   7.805  11.848 -0.2824  0.1139  0.8474
22104SOL    HW173362   9.448   7.758  11.865 -0.5687  0.2225 -0.1325
22104SOL    HW273363   9.516   7.845  11.762  0.4668  0.8822  1.0768
22105SOL     OW73364   9.648   7.557   6.699 -0.1942 -0.1577  0.1397
22105SOL    HW173365   9.566   7.576   6.744 -1.3134 -1.2069 -1.3752
22105SOL    HW273366   9.623   7.535   6.610  1.8787  1.0008 -0.8139
22106SOL     OW73367   4.282  11.509   0.698 -0.3968  0.0040  0.1602
22106SOL    HW173368   4.191  11.531   0.679 -1.1712 -0.7691  2.6199
22106SOL    HW273369   4.301  11.550   0.782  0.2045 -3.0064  1.6397
22107SOL     OW73370   8.217   6.413   9.025  0.3684  0.6167  0.1804
22107SOL    HW173371   8.133   6.426   8.981 -0.7057 -1.3326  1.4810
22107SOL    HW273372   8.264   6.495   9.013 -1.2173  1.3284 -1.6445
22108SOL     OW73373   5.728   6.542   2.536  0.4106 -0.7095 -0.9013
22108SOL    HW173374   5.764   6.453   2.537  1.1999 -0.4009  0.2733
22108SOL    HW273375   5.804   6.599   2.548 -0.1604  0.1036 -1.0521
22109SOL     OW73376   2.123   1.774   5.285  0.0231  0.0466 -0.1430
22109SOL    HW173377   2.204   1.810   5.321  0.0127 -0.2976  0.2369
22109SOL    HW273378   2.104   1.698   5.340  0.2779 -0.8031 -1.1965
22110SOL     OW73379   0.843  10.107  12.370 -0.1964 -0.2087 -0.5585
22110SOL    HW173380   0.756  10.121  12.407 -0.6821 -0.6027 -1.5062
22110SOL    HW273381   0.843  10.015  12.342  0.1304  0.0692 -1.5255
22111SOL     OW73382   7.720   0.020   7.506  0.0358 -0.7775  0.4171
22111SOL    HW173383   7.724  -0.059   7.559  0.1512 -1.0484  0.0072
22111SOL    HW273384   7.787   0.008   7.439 -1.0799 -1.0991 -0.6777
22112SOL     OW73385  11.314   2.053  11.073  0.6457  0.1948 -0.7124
22112SOL    HW173386  11.236   2.048  11.017 -0.1264  0.3565  0.3126
22112SOL    HW273387  11.357   1.968  11.061 -0.6674 -0.6166  0.0488
22113SOL     OW73388  12.416   9.051   7.529 -0.5718  0.1961 -0.1904
22113SOL    HW173389  12.427   9.046   7.624 -3.0616 -2.8268  0.0998
22113SOL    HW273390  12.493   9.006   7.494 -0.0610  0.5842  0.4162
22114SOL     OW73391   0.929   4.930  11.259  0.2347  0.0462 -0.3538
22114SOL    HW173392   0.857   4.982  11.293 -0.4186 -0.8770 -0.2865
22114SOL    HW273393   0.958   4.878  11.334  0.8037  0.2224 -0.4461
22115SOL     OW73394   2.971   2.148   2.818  0.1575 -0.4582 -0.3108
22115SOL    HW173395   2.932   2.146   2.730  1.6596  1.7842 -1.1322
22115SOL    HW273396   2.896   2.157   2.877 -0.7917  1.1621 -1.6391
22116SOL     OW73397  11.132   6.701   9.752  0.0358 -0.5205 -0.1928
22116SOL    HW173398  11.203   6.636   9.754  1.5006  1.0107  0.2222
22116SOL    HW273399  11.157   6.760   9.681 -1.0384 -0.1647 -0.2840
22117SOL     OW73400   7.855   1.733  11.052  0.1594 -0.5960  0.4070
22117SOL    HW173401   7.939   1.691  11.033 -0.3432 -2.5432  2.1118
22117SOL    HW273402   7.843   1.796  10.981  2.2733 -1.4280 -0.7818
22118SOL     OW73403   6.516  10.233   1.461 -0.0976  0.5471  0.6088
22118SOL    HW173404   6.578  10.162   1.480  0.1281  0.3935 -0.6105
22118SOL    HW273405   6.515  10.286   1.541  0.1945 -0.4838  1.3155
22119SOL     OW73406   5.382  10.995  10.711  0.0309 -0.1892 -0.1982
22119SOL    HW173407   5.417  10.964  10.794  1.1348 -0.5853 -0.8035
22119SOL    HW273408   5.406  10.928  10.647  0.3790  0.7431 -1.0840
22120SOL     OW73409   5.312   2.318   4.702  0.0411  0.1955 -0.1422
22120SOL    HW173410   5.225   2.353   4.720  1.3422  3.0141  1.2645
22120SOL    HW273411   5.344   2.288   4.787 -0.2878 -3.0487 -0.9935
22121SOL     OW73412   0.218   0.870   1.896 -0.1513 -0.3436 -0.2382
22121SOL    HW173413   0.137   0.836   1.933  0.2823 -0.8503  0.2782
22121SOL    HW273414   0.192   0.945   1.843 -0.8816 -0.0789  0.4858
22122SOL     OW73415   0.954   7.278   6.258 -0.1225  0.7346  0.4165
22122SOL    HW173416   1.007   7.336   6.313  0.6973  1.5181 -1.1561
22122SOL    HW273417   1.014   7.210   6.230 -0.2822  0.8932 -0.3184
22123SOL     OW73418   0.334   2.595   2.351 -0.7815 -0.4050 -0.2972
22123SOL    HW173419   0.323   2.520   2.293 -1.5718 -1.1841  0.8263
22123SOL    HW273420   0.262   2.588   2.414 -0.2059  0.6648  0.5238
22124SOL     OW73421   5.069   9.250   0.160 -0.1239  0.4100 -0.1647
22124SOL    HW173422   5.136   9.317   0.175  1.3497 -0.6460 -1.7240
22124SOL    HW273423   5.080   9.189   0.233 -0.3109  0.9202  0.3043
22125SOL     OW73424   8.893   9.967   3.439 -0.5707  0.0648 -0.2539
22125SOL    HW173425   8.802   9.953   3.465 -0.6375  0.1913 -0.4178
22125SOL    HW273426   8.942   9.901   3.488 -0.6584  0.4965  0.4369
22126SOL     OW73427  11.601   3.092  11.961 -0.1234 -0.1941 -0.5064
22126SOL    HW173428  11.586   3.141  12.041  1.5514 -1.3820  0.6147
22126SOL    HW273429  11.521   3.040  11.949  0.1965 -1.2048  1.3393
22127SOL     OW73430  11.479  10.998   8.534 -0.4806  0.1999  0.8116
22127SOL    HW173431  11.557  11.054   8.540 -0.5528  0.5658 -0.9357
22127SOL    HW273432  11.510  10.911   8.557  0.3498  0.4288  0.6056
22128SOL     OW73433   3.183   4.350   1.915 -0.1909  0.0939 -0.1288
22128SOL    HW173434   3.125   4.286   1.872  0.8350 -1.5590  0.8217
22128SOL    HW273435   3.252   4.296   1.955 -0.3678  1.6540  2.4535
22129SOL     OW73436   3.709   4.665   5.559 -0.1041 -0.0544  0.2595
22129SOL    HW173437   3.641   4.677   5.493 -0.0519  1.5360  0.4583
22129SOL    HW273438   3.661   4.647   5.640 -0.2845  0.3810  0.2569
22130SOL     OW73439  10.429  12.392   2.652  0.5525  0.0100  0.0591
22130SOL    HW173440  10.345  12.367   2.688 -0.9280  1.5836 -2.0502
22130SOL    HW273441  10.473  12.439   2.724 -0.8410  0.1546  0.8471
22131SOL     OW73442  10.389   3.668   6.007 -0.0720 -0.0278 -0.1713
22131SOL    HW173443  10.452   3.614   5.960 -0.1989  0.8442 -1.4006
22131SOL    HW273444  10.304   3.632   5.981 -0.1164 -0.6590  0.8066
22132SOL     OW73445   4.124  12.300   5.599 -0.7020 -0.4515 -0.6706
22132SOL    HW173446   4.193  12.240   5.574 -0.9828 -0.5022 -1.3438
22132SOL    HW273447   4.105  12.350   5.519  0.7749  1.8113  0.2825
22133SOL     OW73448   2.413   2.798   1.491  0.6241 -0.1063  0.2611
22133SOL    HW173449   2.370   2.798   1.405  0.3548  3.1935  0.2990
22133SOL    HW273450   2.505   2.817   1.472  0.0588  3.7780  0.7391
22134SOL     OW73451   0.485   9.765   5.078  0.1643 -0.2793 -0.1903
22134SOL    HW173452   0.512   9.779   5.169 -0.4878  1.0276 -0.1797
22134SOL    HW273453   0.410   9.706   5.084  0.1974 -0.2945  0.1126
22135SOL     OW73454  10.186   8.068   4.887  0.0295  0.3009 -0.2819
22135SOL    HW173455  10.218   8.083   4.976  2.1014  1.0780 -1.0940
22135SOL    HW273456  10.097   8.104   4.888  0.2161  0.8365  1.2993
22136SOL     OW73457   6.908   9.485  10.236  0.2544  0.1374 -0.0322
22136SOL    HW173458   6.878   9.425  10.304  0.8899  1.5688  1.5707
22136SOL    HW273459   6.857   9.461  10.159  0.1538 -2.1322  0.6603
22137SOL     OW73460  11.445   2.140   7.248  0.5145  0.4688  0.2310
22137SOL    HW173461  11.435   2.220   7.299  0.7323  1.1701 -0.7966
22137SOL    HW273462  11.363   2.132   7.200  0.0053 -0.5967  1.2100
22138SOL     OW73463   3.438   8.329  11.812  0.1100  0.0128 -0.5918
22138SOL    HW173464   3.529   8.358  11.808  0.2114 -0.1276  0.3901
22138SOL    HW273465   3.390   8.395  11.762  0.2950  2.0868  1.7550
22139SOL     OW73466  12.360   8.100  10.435  0.3469  0.0441 -0.1730
22139SOL    HW173467  12.294   8.035  10.413 -0.5163  1.1062 -0.8023
22139SOL    HW273468  12.380   8.084  10.527  1.4002 -2.1781 -0.7022
22140SOL     OW73469   2.415  10.593   3.557 -0.4549 -0.3226 -0.6117
22140SOL    HW173470   2.415  10.497   3.555 -3.2327 -0.4028 -2.4246
22140SOL    HW273471   2.359  10.616   3.631  1.0976 -0.0130  0.5144
22141SOL     OW73472  11.553   9.947   0.422 -0.3596  0.6855  1.2398
22141SOL    HW173473  11.463   9.955   0.453 -0.7613 -0.2828  0.3941
22141SOL    HW273474  11.560  10.013   0.353 -1.1250 -0.6347 -0.1674
22142SOL     OW73475   8.803   5.491   8.283  0.0352  0.1303  0.0163
22142SOL    HW173476   8.814   5.472   8.190 -1.2889  0.9524 -0.3278
22142SOL    HW273477   8.873   5.441   8.326  0.5512 -0.4025 -1.3891
22143SOL     OW73478  10.636   2.658   1.299 -0.0533  0.4636  0.3873
22143SOL    HW173479  10.668   2.647   1.209  0.1326  0.1616  0.4889
22143SOL    HW273480  10.555   2.708   1.290 -1.3961 -1.7015 -0.1738
22144SOL     OW73481  12.536   5.100   7.835  0.1885 -0.9315 -0.2702
22144SOL    HW173482  12.448   5.068   7.855 -0.9888  2.6120  1.1167
22144SOL    HW273483  12.526   5.145   7.751  0.6699 -0.6419 -0.1783
22145SOL     OW73484  11.922   8.593   3.831  0.6451 -0.3913 -0.1467
22145SOL    HW173485  11.988   8.651   3.794  0.6643 -0.3905 -0.1100
22145SOL    HW273486  11.895   8.635   3.912  0.8404 -0.5588  0.0064
22146SOL     OW73487   7.748   5.580   3.260  0.0836  0.1877  0.1421
22146SOL    HW173488   7.835   5.566   3.297 -0.2803  2.3030  1.9436
22146SOL    HW273489   7.721   5.492   3.231  0.6899 -1.5880  4.2972
22147SOL     OW73490   7.578  10.827  10.356 -0.3725 -0.7323  0.2078
22147SOL    HW173491   7.660  10.875  10.368  0.3849 -1.6482 -1.0470
22147SOL    HW273492   7.585  10.752  10.415  0.2584 -1.4479 -0.7275
22148SOL     OW73493   0.943   0.914  11.826  0.1606 -0.2007  0.2470
22148SOL    HW173494   0.934   0.922  11.921 -2.7632  0.6492 -0.0171
22148SOL    HW273495   1.031   0.878  11.814  0.3943 -0.9424  3.2826
22149SOL     OW73496   2.765   3.232  12.052  0.5656 -0.1004  0.1516
22149SOL    HW173497   2.688   3.236  11.995  1.1433  0.4447 -0.6170
22149SOL    HW273498   2.753   3.305  12.112  1.2450  1.0215 -1.0098
22150SOL     OW73499   9.932   3.618   1.444  0.0409  0.1160 -0.1375
22150SOL    HW173500   9.899   3.543   1.394  0.5503  0.3276 -0.7962
22150SOL    HW273501   9.865   3.633   1.511  0.9082 -2.2831  1.4148
22151SOL     OW73502   7.157   8.580   6.440 -0.5379  0.0461 -0.2174
22151SOL    HW173503   7.077   8.581   6.492  0.1083  0.6620  0.7840
22151SOL    HW273504   7.219   8.528   6.491 -0.3361 -0.5858 -1.0747
22152SOL     OW73505   9.373   3.294   1.110  0.3739 -0.1994  0.2298
22152SOL    HW173506   9.382   3.381   1.069  3.4251 -0.3038  0.4568
22152SOL    HW273507   9.385   3.310   1.203  1.5240 -0.8908  0.2174
22153SOL     OW73508   2.322   3.491   9.321 -0.2124 -0.1702  0.3404
22153SOL    HW173509   2.331   3.584   9.342 -1.3905  0.0518 -0.0538
22153SOL    HW273510   2.296   3.450   9.404 -0.0301 -0.0920  0.4359
22154SOL     OW73511   2.745   7.136   0.742 -0.5693  0.0320  0.0977
22154SOL    HW173512   2.667   7.093   0.707  0.2337  0.2222 -2.0246
22154SOL    HW273513   2.816   7.075   0.723  0.1504  0.9587 -0.1957
22155SOL     OW73514   2.803   5.183   5.867  0.3668  0.2908  0.6473
22155SOL    HW173515   2.745   5.230   5.926  0.0525 -1.1213  1.5289
22155SOL    HW273516   2.772   5.092   5.871  1.0803 -0.0458 -0.7958
22156SOL     OW73517   4.456   1.558   5.087  0.8700  0.7048  0.0922
22156SOL    HW173518   4.377   1.571   5.036  0.4139 -0.8217  0.3478
22156SOL    HW273519   4.428   1.567   5.178  1.4771  2.4174  0.1420
22157SOL     OW73520   6.938   7.424   1.721 -0.1273 -0.0208 -0.0858
22157SOL    HW173521   6.892   7.410   1.638 -1.2729 -1.4794  0.7497
22157SOL    HW273522   6.979   7.510   1.711  0.1395 -0.3511 -2.3133
22158SOL     OW73523   0.741   2.635  10.779  0.3081  0.1199 -0.0515
22158SOL    HW173524   0.774   2.634  10.689  1.2086  0.8581  0.2527
22158SOL    HW273525   0.733   2.543  10.803 -0.4897 -0.0949 -1.0700
22159SOL     OW73526   0.972  11.428   0.799  0.0117  0.0795 -0.2263
22159SOL    HW173527   0.992  11.447   0.707 -0.3480  3.5307  0.2650
22159SOL    HW273528   0.900  11.487   0.821  0.2065 -0.5124  2.3386
22160SOL     OW73529  12.324  11.942   7.156 -0.0409 -0.6308  0.2106
22160SOL    HW173530  12.380  12.009   7.117  0.0787 -1.0721 -0.4059
22160SOL    HW273531  12.385  11.877   7.192 -0.1174  0.4468  2.4508
22161SOL     OW73532   0.619   7.140   4.305  0.4445  0.1647 -0.3473
22161SOL    HW173533   0.608   7.189   4.223  0.3807 -2.0781 -1.7750
22161SOL    HW273534   0.531   7.134   4.342  0.5039  1.3582  0.0319
22162SOL     OW73535   3.258   8.845   4.406 -0.1284 -1.0965  0.0045
22162SOL    HW173536   3.195   8.774   4.391 -0.7535 -0.7424  0.8899
22162SOL    HW273537   3.249   8.866   4.498 -0.2925  0.4493 -0.3429
22163SOL     OW73538  11.849   7.093   0.578  0.0246 -0.0035 -0.0460
22163SOL    HW173539  11.874   7.182   0.554  0.3419  0.1325  0.7593
22163SOL    HW273540  11.754   7.096   0.584  0.0971  0.5725  1.0534
22164SOL     OW73541   5.633  10.221   9.615 -0.0927  0.1739  0.2002
22164SOL    HW173542   5.654  10.296   9.671  2.9651  0.3631 -0.9715
22164SOL    HW273543   5.711  10.165   9.620 -0.5073 -0.7598 -2.3110
22165SOL     OW73544  11.430   8.835   0.499 -0.1542  0.2200  0.1223
22165SOL    HW173545  11.417   8.816   0.592 -1.4202  0.2728 -0.0233
22165SOL    HW273546  11.363   8.783   0.455  0.7907 -0.2436 -0.8216
22166SOL     OW73547   9.907   4.125   3.769  0.1480 -0.2045  0.5064
22166SOL    HW173548   9.936   4.165   3.687  0.0607 -0.1726  0.4907
22166SOL    HW273549   9.835   4.180   3.799 -0.5486 -0.8381  0.0376
22167SOL     OW73550   1.025   9.934   2.634 -0.4505  0.2421  1.1649
22167SOL    HW173551   1.010  10.021   2.595  0.8779  0.7253  1.6663
22167SOL    HW273552   0.986   9.940   2.721  2.3474  1.4678  2.4380
22168SOL     OW73553   1.673  10.789   9.540  0.0387 -0.2700  0.2942
22168SOL    HW173554   1.638  10.864   9.492 -0.5856  0.8496  2.3564
22168SOL    HW273555   1.596  10.751   9.583  0.7179 -0.4671  1.3674
22169SOL     OW73556   4.356   3.770  12.243 -0.1005  0.3357  0.3691
22169SOL    HW173557   4.301   3.841  12.277 -0.2333  0.7632 -0.6898
22169SOL    HW273558   4.311   3.742  12.164  0.8074  0.1668 -0.0969
22170SOL     OW73559  11.474   5.069   7.936  0.0909  0.1328  0.1865
22170SOL    HW173560  11.410   5.039   7.870  0.6718 -1.3195  0.2517
22170SOL    HW273561  11.552   5.018   7.918  0.1591 -0.5509  2.2372
22171SOL     OW73562   8.298   4.723   4.530  0.5623 -0.5467  0.8125
22171SOL    HW173563   8.277   4.637   4.493 -0.0646 -0.3385  0.6883
22171SOL    HW273564   8.256   4.723   4.616 -0.6365  0.1733  0.2384
22172SOL     OW73565   9.348   5.895   9.109 -0.3070  0.5922  0.2339
22172SOL    HW173566   9.273   5.938   9.149 -1.0080  0.4611 -0.8799
22172SOL    HW273567   9.424   5.928   9.158 -1.0971  0.5383  1.5389
22173SOL     OW73568   4.082   0.084  12.250 -0.3105  0.0520 -0.1254
22173SOL    HW173569   4.162   0.103  12.202 -0.3814  0.0674 -0.2358
22173SOL    HW273570   4.068  -0.010  12.239  0.4498 -0.2260  1.0391
22174SOL     OW73571  11.231  11.200   7.427  0.0090  0.0151  0.4241
22174SOL    HW173572  11.283  11.229   7.502  0.4637 -2.3903  1.1081
22174SOL    HW273573  11.141  11.202   7.457  0.1857 -0.8675  1.0371
22175SOL     OW73574   4.397   4.700   2.281  0.1990  0.3314 -0.0581
22175SOL    HW173575   4.362   4.624   2.327  0.2166  0.6312  0.4594
22175SOL    HW273576   4.407   4.767   2.349 -0.9778  1.2076 -0.7207
22176SOL     OW73577   5.236   1.288  10.129 -0.2225 -0.1022 -0.1106
22176SOL    HW173578   5.288   1.365  10.105 -0.3975  0.0262 -0.0906
22176SOL    HW273579   5.241   1.230  10.053 -1.4525  0.6642 -0.8153
22177SOL     OW73580   8.060   1.785   0.976 -0.1752  0.1794  0.0825
22177SOL    HW173581   7.966   1.798   0.987 -0.0774  0.5852  0.5049
22177SOL    HW273582   8.075   1.796   0.883 -0.7836 -1.5810 -0.2605
22178SOL     OW73583  11.826   0.070   0.866  0.3549  0.3893  0.0200
22178SOL    HW173584  11.899   0.132   0.872  1.4966 -0.9738  0.9337
22178SOL    HW273585  11.754   0.113   0.911  1.5345  0.5081  1.9089
22179SOL     OW73586   7.118   1.520   0.045 -0.2787 -0.3597  0.9851
22179SOL    HW173587   7.057   1.588   0.018  0.7677  0.9115  1.6946
22179SOL    HW273588   7.159   1.491  -0.037  0.4417  1.0655  0.7947
22180SOL     OW73589   8.719   0.469   3.083  0.2970  0.0455 -0.5852
22180SOL    HW173590   8.660   0.429   3.018 -1.2073  0.1622  0.6285
22180SOL    HW273591   8.681   0.555   3.100 -0.7381 -0.8284  2.0683
22181SOL     OW73592  10.063   5.225   8.962  0.2388 -0.1592  0.5664
22181SOL    HW173593  10.153   5.196   8.950  0.9372  1.1917  2.1058
22181SOL    HW273594  10.070   5.319   8.979 -1.6512  0.3819 -1.2761
22182SOL     OW73595  10.811   2.550  11.779 -0.5078  0.3364  0.0060
22182SOL    HW173596  10.785   2.526  11.868  1.1305  0.6239  0.5984
22182SOL    HW273597  10.875   2.483  11.754 -2.5380 -1.0602 -1.8769
22183SOL     OW73598   2.055   0.231  10.191  0.0579 -0.2580 -0.3750
22183SOL    HW173599   2.032   0.323  10.208  3.2752  0.4555  0.7764
22183SOL    HW273600   2.130   0.236  10.132  0.7546 -2.1363  0.2860
22184SOL     OW73601  12.489   5.772   6.180  0.2606 -0.0103 -0.1777
22184SOL    HW173602  12.481   5.763   6.275 -0.7990 -0.5767 -0.3051
22184SOL    HW273603  12.483   5.866   6.165 -0.1355  0.0466  0.2836
22185SOL     OW73604   0.848   0.797  10.301 -0.3765  0.1941  0.5847
22185SOL    HW173605   0.807   0.716  10.271 -0.9526  0.4781  0.5934
22185SOL    HW273606   0.824   0.803  10.394 -0.5714  0.5176  0.5142
22186SOL     OW73607   2.478   5.081   4.729 -1.1221  0.4429 -0.6236
22186SOL    HW173608   2.518   5.115   4.649  0.3084 -2.5384 -1.2950
22186SOL    HW273609   2.386   5.069   4.707 -0.8036 -0.0619 -1.7531
22187SOL     OW73610   1.451   5.283   6.936  0.1669  0.1534  0.3728
22187SOL    HW173611   1.432   5.270   6.843 -1.5837 -2.1299  0.9398
22187SOL    HW273612   1.438   5.196   6.975  2.6844  0.6210  2.4923
22188SOL     OW73613  11.885   1.509   7.102 -0.0305  0.3770  0.0519
22188SOL    HW173614  11.895   1.523   7.008  1.2274  2.1662  0.4153
22188SOL    HW273615  11.972   1.521   7.138 -0.5644  0.0862  1.5175
22189SOL     OW73616   3.683   1.474   0.904 -0.2203 -0.1479  0.0485
22189SOL    HW173617   3.626   1.496   0.979 -0.6596  1.7081 -0.7618
22189SOL    HW273618   3.685   1.379   0.903 -0.7444 -0.2374  2.0233
22190SOL     OW73619   6.765   2.896   7.819 -0.3358 -0.4905 -0.4291
22190SOL    HW173620   6.669   2.902   7.820 -0.3591  0.0694 -2.1042
22190SOL    HW273621   6.793   2.967   7.877 -0.9301 -0.6558  0.0751
22191SOL     OW73622  10.087   2.940   9.260  0.1021  0.7077 -0.0823
22191SOL    HW173623   9.997   2.972   9.257 -0.4868 -0.8992 -2.0054
22191SOL    HW273624  10.078   2.845   9.274  1.4831  0.5102 -0.4002
22192SOL     OW73625   7.334   2.846   2.994  0.3370  0.4328  0.0325
22192SOL    HW173626   7.422   2.856   3.029 -0.3434 -0.1114  1.9930
22192SOL    HW273627   7.284   2.804   3.064 -1.4219  0.4656 -1.1285
22193SOL     OW73628   8.001   5.163   5.217 -0.7195  0.2125  0.1200
22193SOL    HW173629   8.086   5.203   5.200 -1.3016  0.6357 -2.0192
22193SOL    HW273630   7.938   5.233   5.200 -1.6694 -1.0936 -2.1408
22194SOL     OW73631   0.927  10.530   8.021  0.0363  0.4624  0.1360
22194SOL    HW173632   0.981  10.471   8.073 -0.8754 -0.7902 -0.2987
22194SOL    HW273633   0.902  10.600   8.081 -0.9636 -0.9341  1.4089
22195SOL     OW73634  11.201   2.538   6.058  0.3035 -0.0007 -0.6407
22195SOL    HW173635  11.137   2.539   5.987  0.5847 -0.7736 -0.9068
22195SOL    HW273636  11.277   2.493   6.022  0.4561 -0.3893  0.1431
22196SOL     OW73637   4.048  11.791   0.122  0.1193  0.1023  0.0594
22196SOL    HW173638   4.046  11.738   0.201  0.2484  0.9150  0.6260
22196SOL    HW273639   4.140  11.814   0.110  0.2152 -0.6534 -0.7773
22197SOL     OW73640  10.454   7.671   5.140 -0.1093 -0.4313  0.3862
22197SOL    HW173641  10.536   7.718   5.123 -0.2121 -0.7777 -1.3154
22197SOL    HW273642  10.396   7.698   5.069 -1.4797 -0.2166  1.5432
22198SOL     OW73643   2.265   9.854   3.844  0.4122 -0.5863 -0.0453
22198SOL    HW173644   2.339   9.911   3.866 -0.4458  0.6671 -0.2615
22198SOL    HW273645   2.195   9.884   3.902 -0.1066 -1.3563 -0.2614
22199SOL     OW73646   4.004   3.388   8.559 -0.4881  0.2648 -0.7062
22199SOL    HW173647   4.000   3.292   8.563  3.2999  0.0057  1.3128
22199SOL    HW273648   4.024   3.407   8.467  0.5902 -1.0662 -0.7801
22200SOL     OW73649   8.622   3.052   1.061 -0.7465 -0.2423 -0.4289
22200SOL    HW173650   8.559   2.980   1.051 -0.9119 -0.0248 -1.0170
22200SOL    HW273651   8.617   3.075   1.154 -0.5871 -1.0815 -0.2071
22201SOL     OW73652   4.965   5.899   8.248  0.0946  0.1651 -0.5430
22201SOL    HW173653   4.932   5.954   8.177 -2.4306 -0.7815 -0.2332
22201SOL    HW273654   4.921   5.815   8.235 -0.4128 -0.0633  2.0745
22202SOL     OW73655  12.489   0.650   6.229  1.0289 -0.1405 -0.2214
22202SOL    HW173656  12.427   0.692   6.170  0.7836 -1.1346 -0.6949
22202SOL    HW273657  12.457   0.670   6.317 -0.2700 -1.0693 -0.4539
22203SOL     OW73658   5.165   1.554  11.151 -0.1665 -0.1213  0.3316
22203SOL    HW173659   5.203   1.633  11.190  1.5005  0.3053 -1.9425
22203SOL    HW273660   5.071   1.570  11.152 -0.0166  0.8825  1.9379
22204SOL     OW73661   1.197   9.782  12.572 -0.4928  0.4345 -0.0519
22204SOL    HW173662   1.249   9.797  12.650 -1.1033  0.4787  0.3526
22204SOL    HW273663   1.208   9.861  12.519  1.6740 -0.4473 -1.0525
22205SOL     OW73664  10.089   4.436   7.528 -0.3021 -0.2750  0.3372
22205SOL    HW173665  10.160   4.442   7.465 -1.2915  1.4905 -0.6771
22205SOL    HW273666  10.098   4.515   7.582  0.2203 -1.4944  2.1119
22206SOL     OW73667   1.248   9.390   0.309  0.3961  0.2536  0.3469
22206SOL    HW173668   1.163   9.376   0.267  1.0738  1.1139 -1.4291
22206SOL    HW273669   1.229   9.452   0.380 -0.2340  1.7763 -1.0933
22207SOL     OW73670   4.061   1.350   8.665 -0.1236  0.3641  0.0485
22207SOL    HW173671   4.106   1.278   8.710  0.0054  1.0310  1.0248
22207SOL    HW273672   4.060   1.421   8.729 -0.3423  1.1992 -0.8601
22208SOL     OW73673   2.888  10.994   6.895 -0.0330 -0.4793 -0.2253
22208SOL    HW173674   2.933  10.911   6.884  1.5684  0.5235 -1.9478
22208SOL    HW273675   2.958  11.060   6.896 -1.2333  0.8719  1.1940
22209SOL     OW73676   4.206   7.523  11.291  0.0112 -0.5785 -0.5539
22209SOL    HW173677   4.181   7.468  11.365  1.7169  1.6432  1.8620
22209SOL    HW273678   4.256   7.595  11.330 -1.8407  2.6181 -3.4685
22210SOL     OW73679  10.305   0.659   4.519  0.1117 -0.7609  0.2625
22210SOL    HW173680  10.356   0.730   4.559  1.8262 -2.6166  1.6328
22210SOL    HW273681  10.330   0.660   4.427  0.6515 -0.0151  0.4092
22211SOL     OW73682   4.469   0.691   0.432  0.5946 -0.4496 -0.0152
22211SOL    HW173683   4.512   0.759   0.381  1.8142 -1.3196 -0.1869
22211SOL    HW273684   4.436   0.629   0.367 -0.8958  0.1451  0.1160
22212SOL     OW73685   1.905   8.561   8.122  0.2953  0.2077 -0.0170
22212SOL    HW173686   1.815   8.563   8.090  0.4830  1.7143 -0.5579
22212SOL    HW273687   1.956   8.529   8.047  0.1199 -1.6621  0.6231
22213SOL     OW73688   1.813  11.589  12.035 -0.9255  0.3193 -0.1314
22213SOL    HW173689   1.891  11.642  12.025  1.1582 -2.4966 -0.0511
22213SOL    HW273690   1.782  11.575  11.946 -0.6666  0.5274 -0.2553
22214SOL     OW73691   0.849   4.931   0.387  0.0136  0.1406 -0.1453
22214SOL    HW173692   0.802   4.944   0.469  1.7125  0.1102  0.8875
22214SOL    HW273693   0.802   4.986   0.324 -0.4920  1.3084  1.1746
22215SOL     OW73694   1.581   1.539   4.762 -0.2925  0.0614  0.3616
22215SOL    HW173695   1.489   1.565   4.754  0.3396  2.1941 -0.6532
22215SOL    HW273696   1.578   1.445   4.778 -2.5994 -0.2480 -1.4133
22216SOL     OW73697  10.284   9.290  10.393 -0.6385  0.5029 -0.1396
22216SOL    HW173698  10.296   9.216  10.452  0.6042 -0.0985 -1.0936
22216SOL    HW273699  10.349   9.354  10.422  0.9720 -0.3474 -1.6178
22217SOL     OW73700  11.204   5.487   4.640  0.1016 -0.3278 -0.0600
22217SOL    HW173701  11.171   5.440   4.564  1.4128  0.3277 -1.0873
22217SOL    HW273702  11.167   5.441   4.715 -1.8725 -0.5177 -1.0809
22218SOL     OW73703   2.861  12.535   2.758 -0.4703 -0.4917 -0.4375
22218SOL    HW173704   2.860  12.628   2.780  0.1292 -0.7838  0.9302
22218SOL    HW273705   2.914  12.529   2.678 -0.3453  0.3109 -0.4229
22219SOL     OW73706   4.514  12.382   7.530 -0.6778  0.4006  0.0676
22219SOL    HW173707   4.600  12.416   7.503 -0.7249  0.8077  0.4210
22219SOL    HW273708   4.458  12.393   7.453 -1.2617  3.0863  0.7844
22220SOL     OW73709   9.272   3.978  11.429  0.4487  0.0568 -0.4752
22220SOL    HW173710   9.357   4.023  11.431  0.1926  0.6407 -1.5594
22220SOL    HW273711   9.267   3.933  11.513  1.6051  0.4301 -0.1767
22221SOL     OW73712  10.951   6.484   7.581 -1.2947  0.1346 -0.0549
22221SOL    HW173713  11.028   6.466   7.527 -1.5581 -0.7454 -0.1573
22221SOL    HW273714  10.944   6.580   7.582 -0.4822  0.2088 -0.4307
22222SOL     OW73715   1.971   4.782   6.357  0.0448  0.0552  0.1697
22222SOL    HW173716   1.909   4.850   6.383 -0.6664 -1.1747  1.8535
22222SOL    HW273717   1.919   4.702   6.352  0.6353 -0.2526 -2.8806
22223SOL     OW73718   7.919   4.405   8.414  0.4445  0.4042  0.1446
22223SOL    HW173719   8.006   4.368   8.405  0.8461  1.1352  0.8906
22223SOL    HW273720   7.860   4.329   8.414  1.2097 -0.2185  1.1526
22224SOL     OW73721   5.232   1.234   0.585 -0.5257 -0.5399  0.2928
22224SOL    HW173722   5.190   1.314   0.554 -2.6295 -0.9520  1.9369
22224SOL    HW273723   5.259   1.189   0.504 -0.5920  1.1160 -0.6981
22225SOL     OW73724   7.165   1.701  11.977  0.1666  0.0675 -0.3933
22225SOL    HW173725   7.157   1.757  12.055 -0.8490 -0.9936  0.2969
22225SOL    HW273726   7.259   1.691  11.965  0.3588  1.4538 -0.1945
22226SOL     OW73727  10.318  12.562  11.091  0.4987 -0.4000 -0.7817
22226SOL    HW173728  10.338  12.642  11.141  0.9781 -1.4040  0.6929
22226SOL    HW273729  10.275  12.594  11.012 -1.5508  1.2181  0.8539
22227SOL     OW73730   1.102   6.744   1.926 -0.1552  0.1808  0.0261
22227SOL    HW173731   1.131   6.830   1.957 -1.0757  0.3207  0.5190
22227SOL    HW273732   1.091   6.755   1.831  3.5981 -0.5075 -0.6684
22228SOL     OW73733   0.557   4.600   9.174 -0.1836 -0.8835  0.1456
22228SOL    HW173734   0.622   4.643   9.230  0.5082 -2.7828  0.9247
22228SOL    HW273735   0.491   4.667   9.157  1.0072  0.5589  0.9400
22229SOL     OW73736   8.744   1.722   6.250 -0.2606  0.1247 -0.3429
22229SOL    HW173737   8.665   1.768   6.277 -0.2343  0.9038 -1.4919
22229SOL    HW273738   8.712   1.652   6.193 -0.5347 -3.0693  3.3426
22230SOL     OW73739   9.671   2.190   0.096  0.4241 -0.1225 -0.1823
22230SOL    HW173740   9.656   2.279   0.127  1.5556  0.3214 -0.8525
22230SOL    HW273741   9.665   2.196   0.001  2.7131 -0.2771 -0.3985
22231SOL     OW73742   8.508   6.981   8.867  0.5245 -0.2549 -0.5281
22231SOL    HW173743   8.583   6.998   8.924  0.6888  0.1259 -0.8461
22231SOL    HW273744   8.432   7.004   8.920  0.7195  1.2025 -0.8107
22232SOL     OW73745   5.093   4.658   8.212  0.3505 -0.0007 -0.8245
22232SOL    HW173746   5.086   4.740   8.163  0.6873  1.1857  1.0052
22232SOL    HW273747   5.057   4.679   8.299  0.2608 -1.8549 -0.3709
22233SOL     OW73748  12.101   3.580   3.080  0.4817 -0.2516 -0.0724
22233SOL    HW173749  12.008   3.596   3.099  0.2852 -1.3818  0.0290
22233SOL    HW273750  12.143   3.665   3.090 -0.2819 -0.0297  1.4642
22234SOL     OW73751   0.670   5.493   3.110  0.2208 -0.1200 -0.3814
22234SOL    HW173752   0.671   5.421   3.173  0.9341  0.0571 -0.1751
22234SOL    HW273753   0.675   5.451   3.024 -1.4799 -0.3951 -0.3824
22235SOL     OW73754   7.627   3.053   5.435  0.0603  0.0744  0.0708
22235SOL    HW173755   7.576   2.999   5.496 -0.6400  1.7959  1.0953
22235SOL    HW273756   7.582   3.044   5.352  0.0978 -1.0822  0.1604
22236SOL     OW73757   6.826  10.960   6.978  0.2784 -0.5709  0.1331
22236SOL    HW173758   6.743  10.955   7.026 -0.3661 -1.2867 -0.9972
22236SOL    HW273759   6.891  10.927   7.040  0.0390  1.6032  1.6462
22237SOL     OW73760   9.914   7.317   0.071  0.3238  0.1084 -0.0992
22237SOL    HW173761   9.889   7.252   0.137 -1.0297  0.6842 -0.0048
22237SOL    HW273762   9.959   7.267   0.003  0.7726 -0.6620  0.7545
22238SOL     OW73763   6.728  10.315   9.687  0.1496  0.2472  0.3000
22238SOL    HW173764   6.796  10.382   9.686  0.5265 -0.1319 -0.4863
22238SOL    HW273765   6.687  10.320   9.600  0.7449 -1.0877 -0.0856
22239SOL     OW73766   6.030   9.084   1.977 -0.0746  0.7377  0.9574
22239SOL    HW173767   5.937   9.076   1.998  0.0981 -1.8501  1.0505
22239SOL    HW273768   6.048   9.011   1.917  2.0670  0.6296  1.6330
22240SOL     OW73769   7.143  11.511   4.671  0.2641 -0.3081  0.2076
22240SOL    HW173770   7.073  11.568   4.639 -1.4642 -3.1341 -1.4258
22240SOL    HW273771   7.223  11.561   4.655 -1.1759  2.1090 -0.0077
22241SOL     OW73772   6.895   6.301  10.911  0.2677 -0.4786  0.5459
22241SOL    HW173773   6.956   6.312  10.983 -0.1082 -2.4059  1.2194
22241SOL    HW273774   6.937   6.238  10.853  0.3775  0.7291 -0.7350
22242SOL     OW73775   9.254   4.965   6.286 -0.3032  0.5757  0.1825
22242SOL    HW173776   9.333   4.986   6.236  1.4336  0.5038  2.7378
22242SOL    HW273777   9.241   5.039   6.345 -0.5633 -0.5933  1.6543
22243SOL     OW73778   8.025   8.999   5.961  0.0437  0.4321 -0.9558
22243SOL    HW173779   7.976   8.952   5.894  0.7282 -1.1111 -0.4117
22243SOL    HW273780   8.085   9.055   5.913  1.2349 -1.3947 -1.6788
22244SOL     OW73781  10.981  11.837   2.451 -0.3111  0.1106 -0.0254
22244SOL    HW173782  11.011  11.880   2.371  0.3918 -1.7031 -0.7861
22244SOL    HW273783  10.951  11.909   2.507 -0.0840  1.4868 -1.5932
22245SOL     OW73784  11.367   5.798   2.792 -0.4425 -0.4591  0.7400
22245SOL    HW173785  11.323   5.844   2.720 -1.2161  0.7063  1.8874
22245SOL    HW273786  11.384   5.710   2.759  0.6607  0.4901 -1.4010
22246SOL     OW73787   6.530  12.313  10.578  0.2273 -0.3840 -0.7031
22246SOL    HW173788   6.486  12.276  10.501 -0.6461  0.2137 -0.5105
22246SOL    HW273789   6.496  12.403  10.583  0.9037 -0.1578 -0.0932
22247SOL     OW73790   2.914  12.118  11.441 -0.1749 -0.5157 -0.1277
22247SOL    HW173791   2.944  12.117  11.350  0.8255 -2.2787  0.1772
22247SOL    HW273792   2.818  12.121  11.435 -0.1259  2.8882 -1.1492
22248SOL     OW73793   6.575  11.945   5.037  0.2340 -0.5932  0.5643
22248SOL    HW173794   6.668  11.925   5.038  0.6311  1.1091  0.9935
22248SOL    HW273795   6.541  11.901   4.959  1.4947 -0.7905  0.1100
22249SOL     OW73796   2.273   3.213   7.437 -0.0404  0.1482  0.1055
22249SOL    HW173797   2.314   3.290   7.475 -1.1345 -0.3556  2.4785
22249SOL    HW273798   2.346   3.165   7.396  0.5183  2.8082 -2.3395
22250SOL     OW73799  11.706   3.923   6.197 -0.0986 -0.2896  0.4921
22250SOL    HW173800  11.651   3.923   6.275  0.6759 -0.8002  1.0499
22250SOL    HW273801  11.774   3.988   6.216  0.1656 -0.5096  0.3014
22251SOL     OW73802   9.657   2.413   0.411  0.0560  0.5026 -0.2093
22251SOL    HW173803   9.646   2.490   0.468  2.4626  1.3323 -0.7514
22251SOL    HW273804   9.663   2.449   0.323 -1.1257 -0.5630 -0.7585
22252SOL     OW73805   0.486   8.759   7.530 -0.4308  0.9034 -0.2835
22252SOL    HW173806   0.432   8.684   7.505 -2.1807  1.3079  1.9607
22252SOL    HW273807   0.448   8.833   7.480 -0.1007  0.6988 -0.8483
22253SOL     OW73808   4.451   0.370   6.544  0.1616 -0.2023 -0.0466
22253SOL    HW173809   4.508   0.355   6.620  0.8593  1.7971 -0.1380
22253SOL    HW273810   4.424   0.461   6.551  1.5258  0.5553 -3.0484
22254SOL     OW73811  10.840   2.306   5.400  0.4263 -0.0937 -0.1224
22254SOL    HW173812  10.859   2.388   5.354  0.7368 -1.3298 -2.3645
22254SOL    HW273813  10.764   2.270   5.355 -0.6934 -0.3538  1.8434
22255SOL     OW73814   8.965  11.147   4.153 -0.1787  0.1554 -0.0622
22255SOL    HW173815   8.947  11.121   4.243  1.7119 -0.0613  0.3063
22255SOL    HW273816   9.057  11.124   4.140 -0.7057 -0.9373 -2.4531
22256SOL     OW73817  10.254   1.763   2.028  0.1083  0.6552 -1.0110
22256SOL    HW173818  10.224   1.848   1.996  1.2274  0.9538 -1.2849
22256SOL    HW273819  10.178   1.706   2.018 -0.7413  1.6826 -0.5688
22257SOL     OW73820   1.873   1.281   4.462  0.0021  0.1801 -0.3372
22257SOL    HW173821   1.803   1.340   4.490 -0.7113 -0.7440 -0.1252
22257SOL    HW273822   1.894   1.309   4.373 -0.2237  0.8457 -0.1860
22258SOL     OW73823  11.354  11.854   7.764 -0.1340 -0.5434  0.8117
22258SOL    HW173824  11.350  11.807   7.680  1.6449  0.6356 -0.0112
22258SOL    HW273825  11.274  11.829   7.809  0.0303 -3.2236 -0.1499
22259SOL     OW73826   5.317   3.286   3.635  0.0471  0.0864  0.0488
22259SOL    HW173827   5.266   3.329   3.703 -1.1155 -1.7825  0.4308
22259SOL    HW273828   5.403   3.271   3.675  0.4113  1.7636 -0.0215
22260SOL     OW73829  10.662   1.709   9.868  0.8625  0.5317 -0.4826
22260SOL    HW173830  10.714   1.747   9.938  1.0737  0.3153 -0.5227
22260SOL    HW273831  10.572   1.711   9.901  1.0333 -0.1510  0.0534
22261SOL     OW73832   7.373   4.970   4.319  0.3968  0.1190 -0.0985
22261SOL    HW173833   7.328   5.049   4.350  0.3452 -0.4043  1.2330
22261SOL    HW273834   7.456   4.970   4.365 -0.7853 -2.1146  2.3427
22262SOL     OW73835   2.000   2.237  10.604 -0.4060 -0.6959 -0.2269
22262SOL    HW173836   1.947   2.232  10.684 -0.3578 -0.1869 -0.1612
22262SOL    HW273837   2.084   2.273  10.632 -0.4076 -0.4602 -0.5120
22263SOL     OW73838   6.587   9.876   8.595 -0.2032  0.4350 -0.8149
22263SOL    HW173839   6.593   9.783   8.576  1.2672  0.8619 -2.6995
22263SOL    HW273840   6.502   9.886   8.640  0.3585 -1.9958  0.9701
22264SOL     OW73841   8.465   1.599  11.839  0.1160 -0.3560 -0.1625
22264SOL    HW173842   8.460   1.662  11.767 -0.3653  0.0796  0.2414
22264SOL    HW273843   8.383   1.611  11.887  0.5858 -0.3793  0.6717
22265SOL     OW73844  11.747   9.017   4.121 -0.2208 -0.2775  0.0636
22265SOL    HW173845  11.795   9.090   4.161  1.0831  0.0474 -1.9190
22265SOL    HW273846  11.811   8.945   4.120 -1.5752 -1.6375  2.2526
22266SOL     OW73847   0.349   4.353   1.010 -0.2809  0.4741 -0.1202
22266SOL    HW173848   0.397   4.430   1.041  0.2703  0.2509 -0.4056
22266SOL    HW273849   0.257   4.375   1.025 -0.0256  0.0247  2.5101
22267SOL     OW73850  11.047   9.083   3.775 -0.3528 -0.4002  0.3166
22267SOL    HW173851  11.092   9.165   3.794 -3.3614  1.5017 -0.1889
22267SOL    HW273852  11.085   9.053   3.693 -0.6113  1.6125 -0.5876
22268SOL     OW73853   2.419   4.804   3.165  0.2928 -0.6262  0.4356
22268SOL    HW173854   2.457   4.800   3.253 -1.0440  2.1453  1.2323
22268SOL    HW273855   2.444   4.891   3.133  0.3423 -1.4069 -1.7682
22269SOL     OW73856   6.786  10.479   9.203 -0.5678  0.4576 -0.3250
22269SOL    HW173857   6.832  10.563   9.194 -0.5081  0.3736 -0.8000
22269SOL    HW273858   6.739  10.487   9.286  0.8761  0.2717  0.5466
22270SOL     OW73859  10.424  10.112   9.426 -0.0349  0.1584  0.4372
22270SOL    HW173860  10.494  10.048   9.434  0.7488  1.0755  1.0333
22270SOL    HW273861  10.426  10.161   9.508 -0.0106  1.5552 -0.3654
22271SOL     OW73862   1.515   9.705   5.000 -0.0362  0.4724  0.9365
22271SOL    HW173863   1.516   9.634   4.935  0.4752  0.5689  0.8360
22271SOL    HW273864   1.594   9.756   4.981  0.6448 -0.0528  2.2566
22272SOL     OW73865  12.433   1.163  11.405 -0.1921  0.3271 -0.0397
22272SOL    HW173866  12.371   1.095  11.429  0.0873 -0.2380 -0.8941
22272SOL    HW273867  12.505   1.117  11.362 -0.1576  1.1896 -0.9509
22273SOL     OW73868   1.393  11.351  12.547  0.0770  0.0928 -0.8680
22273SOL    HW173869   1.427  11.269  12.511 -1.7441 -0.9419 -0.4256
22273SOL    HW273870   1.470  11.399  12.577  1.2085 -1.4471 -1.1895
22274SOL     OW73871   6.725   0.286   2.083 -0.3188  0.6424  0.7044
22274SOL    HW173872   6.722   0.341   2.162 -0.7519  0.8336  0.5536
22274SOL    HW273873   6.808   0.309   2.041  0.9058 -0.8788  2.1204
22275SOL     OW73874   5.025   4.715   3.207 -0.1128 -0.0075  0.4384
22275SOL    HW173875   4.930   4.724   3.195 -0.4017 -0.4053  2.1816
22275SOL    HW273876   5.034   4.668   3.290  1.5933 -1.2115 -0.3720
22276SOL     OW73877  11.971   4.571   6.064  0.1966  0.1152  0.4991
22276SOL    HW173878  12.034   4.571   6.136 -0.1937 -2.2809  0.9197
22276SOL    HW273879  11.888   4.545   6.104 -0.7324  1.6305 -0.3336
22277SOL     OW73880  10.430   5.150   1.773 -0.2684 -0.1275  0.2410
22277SOL    HW173881  10.459   5.092   1.843  0.1350 -0.9359 -0.5612
22277SOL    HW273882  10.500   5.215   1.765  0.8849 -1.4246 -0.9464
22278SOL     OW73883   7.908   5.887   0.707 -0.4687 -0.0968  0.1786
22278SOL    HW173884   7.820   5.899   0.672 -0.3318 -0.6071 -0.3606
22278SOL    HW273885   7.903   5.803   0.754 -0.1697 -0.3132 -0.1775
22279SOL     OW73886   3.314   7.388   9.526 -0.3091  0.6664 -0.1528
22279SOL    HW173887   3.290   7.295   9.532  0.7470  0.4401  0.6897
22279SOL    HW273888   3.261   7.431   9.593 -0.2396  0.5595 -0.0290
22280SOL     OW73889   3.082   3.404   9.550  0.3012 -1.0586 -0.2735
22280SOL    HW173890   3.013   3.429   9.489  0.3435  1.0841  0.4685
22280SOL    HW273891   3.035   3.369   9.626  0.0139  0.0512  0.0811
22281SOL     OW73892  11.650   0.122   5.438  0.0102 -0.1675 -0.0461
22281SOL    HW173893  11.670   0.043   5.490  0.6428 -0.1448 -0.2396
22281SOL    HW273894  11.576   0.096   5.383 -0.6597 -0.1996  0.8426
22282SOL     OW73895  12.149  11.293   7.936 -0.2673 -0.0400  0.0313
22282SOL    HW173896  12.126  11.257   7.850  0.8208 -0.1621 -0.2284
22282SOL    HW273897  12.137  11.388   7.926 -0.5428 -0.0898 -0.1252
22283SOL     OW73898   5.798   4.847   3.420 -0.2138  0.3290  0.0141
22283SOL    HW173899   5.800   4.812   3.331 -1.1374  1.8938 -0.6839
22283SOL    HW273900   5.763   4.776   3.473  2.0215 -1.2512 -0.5155
22284SOL     OW73901   0.412  10.910   3.375 -0.5269 -0.3781  0.2215
22284SOL    HW173902   0.423  10.899   3.469 -0.5657  0.0059  0.2713
22284SOL    HW273903   0.416  10.821   3.340  2.5686 -0.3312  0.2191
22285SOL     OW73904   2.685   0.097  10.628  0.2255 -0.1395 -0.2203
22285SOL    HW173905   2.732   0.164  10.578 -0.4860 -0.6088 -1.5848
22285SOL    HW273906   2.754   0.038  10.660  0.8464  1.1696  0.9380
22286SOL     OW73907   5.864   0.856   8.711  0.1942  0.2274 -0.0058
22286SOL    HW173908   5.797   0.831   8.774 -1.2882  1.2693 -1.1111
22286SOL    HW273909   5.868   0.782   8.650  1.0833 -0.4390  0.8152
22287SOL     OW73910  11.589   5.186   4.592 -0.0295  0.3260 -0.6156
22287SOL    HW173911  11.604   5.259   4.531  2.4253  0.6430  0.2378
22287SOL    HW273912  11.672   5.138   4.592 -0.4119 -0.4336  1.4794
22288SOL     OW73913   1.844   6.470   7.506  0.0218 -0.1809  0.3139
22288SOL    HW173914   1.789   6.465   7.428 -0.6723  4.1976  0.2361
22288SOL    HW273915   1.933   6.453   7.475 -0.6596 -2.4919 -0.5311
22289SOL     OW73916   4.803   7.659   3.461  0.4202 -0.0096  0.7474
22289SOL    HW173917   4.801   7.740   3.512 -1.5729  1.0109 -0.8020
22289SOL    HW273918   4.895   7.635   3.456  1.0898  2.3216  1.0498
22290SOL     OW73919   5.128  12.579   7.278 -0.4946  0.3022  0.1572
22290SOL    HW173920   5.083  12.513   7.225  2.0096 -2.0762  0.7616
22290SOL    HW273921   5.176  12.632   7.214 -0.5773 -0.0437 -0.1986
22291SOL     OW73922   2.725  11.851   8.368 -0.1454  0.3013  0.2931
22291SOL    HW173923   2.761  11.861   8.280 -0.5024 -0.4403  0.0558
22291SOL    HW273924   2.798  11.818   8.420  0.3519  1.6816  0.5232
22292SOL     OW73925  11.168   5.137   6.481  0.2733  0.2685 -0.2114
22292SOL    HW173926  11.219   5.071   6.527 -0.7220  1.0599  2.1636
22292SOL    HW273927  11.216   5.218   6.494  0.6315  0.3478 -1.7346
22293SOL     OW73928  10.999  12.040  11.718 -0.5058  0.0866 -0.3172
22293SOL    HW173929  11.038  11.957  11.746  0.9657  1.4054  1.8599
22293SOL    HW273930  10.914  12.043  11.762 -0.0543  0.2172  0.5717
22294SOL     OW73931   2.857   1.553   6.639  0.4175  0.2095  0.0108
22294SOL    HW173932   2.855   1.457   6.648  0.2100  0.1833 -0.3179
22294SOL    HW273933   2.793   1.572   6.571 -0.6036  0.7080  1.0844
22295SOL     OW73934  10.191   1.743   8.355 -0.1007 -0.1602  0.2641
22295SOL    HW173935  10.097   1.729   8.347 -0.3336  1.4650 -0.2644
22295SOL    HW273936  10.199   1.836   8.376  1.3730 -0.3855  0.7817
22296SOL     OW73937  10.431   8.188   9.224 -0.1518  0.0354  0.0581
22296SOL    HW173938  10.502   8.124   9.227 -1.4966 -1.4753  1.2106
22296SOL    HW273939  10.459   8.252   9.158  1.7299 -1.1265 -0.3437
22297SOL     OW73940   0.480  11.782  11.138 -0.0841 -0.5085  0.3560
22297SOL    HW173941   0.412  11.755  11.200 -2.8437  1.7365 -1.4073
22297SOL    HW273942   0.476  11.717  11.068  1.1141 -1.5449  1.2332
22298SOL     OW73943   8.701   3.483   1.123 -0.3456 -0.0816  0.1878
22298SOL    HW173944   8.634   3.501   1.058  0.9521 -0.6759 -1.3696
22298SOL    HW273945   8.751   3.564   1.129  1.3863 -0.9203 -1.8638
22299SOL     OW73946   4.313   7.307   4.910  0.0762  0.2824  0.3306
22299SOL    HW173947   4.268   7.280   4.829 -0.2359 -2.5845  1.3808
22299SOL    HW273948   4.405   7.308   4.886 -0.1310  1.6496 -0.5916
22300SOL     OW73949  11.171   4.218   0.310  0.5338 -0.4999 -0.3294
22300SOL    HW173950  11.236   4.280   0.343  1.1061 -2.4218  2.4892
22300SOL    HW273951  11.089   4.243   0.353  0.5649 -1.0887  0.0935
22301SOL     OW73952  12.370   5.610   5.819 -0.1226  0.0263  0.0407
22301SOL    HW173953  12.331   5.600   5.906  0.0307  0.7021  0.1891
22301SOL    HW273954  12.318   5.553   5.763 -2.0858  1.7805 -0.0050
22302SOL     OW73955   2.103  11.806   6.502 -0.4226  0.2064  0.3551
22302SOL    HW173956   2.163  11.790   6.430 -0.8605  0.8607 -0.1711
22302SOL    HW273957   2.076  11.719   6.531 -0.0134 -0.0676 -0.0752
22303SOL     OW73958   1.675  11.397  10.557 -0.2282  0.8164  0.6142
22303SOL    HW173959   1.732  11.335  10.513 -0.5920  1.5559 -0.9801
22303SOL    HW273960   1.725  11.479  10.559 -1.2942  1.5996 -1.2097
22304SOL     OW73961   1.336   5.820   4.080 -0.3685  0.6017 -0.2509
22304SOL    HW173962   1.247   5.786   4.092 -1.2524  2.3233 -1.4839
22304SOL    HW273963   1.361   5.794   3.991  1.6897 -2.5389  1.0800
22305SOL     OW73964  11.908   7.294   0.867  0.2594 -0.2617 -0.3207
22305SOL    HW173965  11.966   7.220   0.883  1.2255  0.2873 -1.1793
22305SOL    HW273966  11.948   7.367   0.915 -0.6780 -0.2791  0.5107
22306SOL     OW73967  10.147   9.114   7.523 -0.0541 -0.1548 -0.1874
22306SOL    HW173968  10.219   9.166   7.560  0.6175 -0.5792 -0.8724
22306SOL    HW273969  10.141   9.038   7.581  1.8325 -1.4555 -1.5711
22307SOL     OW73970   1.893  10.234   3.620  1.0366  0.3851  0.2132
22307SOL    HW173971   1.903  10.279   3.703  0.6437  0.9017 -0.0129
22307SOL    HW273972   1.881  10.142   3.643  1.0915  0.5018  0.7141
22308SOL     OW73973   3.756   0.101   5.490 -0.0419 -0.1440  0.5577
22308SOL    HW173974   3.848   0.085   5.511  0.1022  0.4032  0.3550
22308SOL    HW273975   3.739   0.045   5.414  1.0813  2.1888 -1.5616
22309SOL     OW73976   6.951  11.608  10.265 -0.2097  0.2552  0.1090
22309SOL    HW173977   6.926  11.617  10.357  0.0182 -1.2177  0.3409
22309SOL    HW273978   6.913  11.524  10.239  0.9629 -0.0326 -0.7248
22310SOL     OW73979   2.243   1.619   0.798  0.3041  0.1847  0.1511
22310SOL    HW173980   2.210   1.654   0.716 -1.1042 -1.0396  0.1556
22310SOL    HW273981   2.319   1.565   0.773 -1.7901 -2.5469 -0.8182
22311SOL     OW73982   4.216   6.974  11.981  0.3591 -0.0517 -0.1416
22311SOL    HW173983   4.286   7.005  12.039 -1.7944  3.4924  0.8495
22311SOL    HW273984   4.152   6.933  12.039 -0.4685  0.8918 -0.3578
22312SOL     OW73985  11.503  11.668   0.452  0.3880  0.3344 -0.5113
22312SOL    HW173986  11.472  11.725   0.381  0.4850  0.8544 -0.1421
22312SOL    HW273987  11.594  11.649   0.430 -0.5093 -2.4416 -2.4149
22313SOL     OW73988   3.080  11.819   4.444 -0.2864  0.0766  0.1222
22313SOL    HW173989   3.104  11.850   4.531  0.1496  0.3951 -0.1097
22313SOL    HW273990   3.047  11.897   4.399 -0.6856 -0.1228  0.0572
22314SOL     OW73991   5.566  11.960   8.840 -0.4489 -0.1376 -0.3181
22314SOL    HW173992   5.603  11.985   8.755  0.3181  1.7060  0.4999
22314SOL    HW273993   5.638  11.972   8.902 -1.6206  0.8195  0.9132
22315SOL     OW73994   2.727  10.690   0.242 -0.4850  0.4475 -0.4857
22315SOL    HW173995   2.819  10.674   0.221 -0.5503  0.6798 -0.9524
22315SOL    HW273996   2.679  10.662   0.164 -0.8702 -0.3131  0.0120
22316SOL     OW73997   5.547   8.624   9.820 -0.1774  0.5064 -0.3486
22316SOL    HW173998   5.479   8.609   9.754 -0.3965  0.6048 -0.1445
22316SOL    HW273999   5.546   8.718   9.836 -2.3904  0.1565  2.1878
22317SOL     OW74000   6.072  10.852   4.894  0.8838 -0.3824  0.1381
22317SOL    HW174001   6.084  10.937   4.852 -0.3113 -0.2900 -0.0566
22317SOL    HW274002   6.034  10.872   4.979 -1.7317 -0.7642 -0.8413
22318SOL     OW74003   1.895   2.776   5.042  0.1280 -0.2019  0.4637
22318SOL    HW174004   1.819   2.747   4.992  0.8839 -0.8261 -0.3660
22318SOL    HW274005   1.961   2.708   5.026  0.7542  0.1617  1.4221
22319SOL     OW74006  11.142  12.264   4.978 -0.3877 -0.3470  0.4804
22319SOL    HW174007  11.076  12.199   4.956 -0.7498 -0.6061  2.2223
22319SOL    HW274008  11.097  12.348   4.968 -1.1482 -0.5353  2.0605
22320SOL     OW74009  11.469  10.589   7.137 -0.2519 -0.1879 -0.0994
22320SOL    HW174010  11.517  10.583   7.054 -0.0773  0.9429 -0.0920
22320SOL    HW274011  11.402  10.520   7.130 -1.0605  0.6845 -1.7433
22321SOL     OW74012   3.231   9.124   5.954  0.1633  0.6381 -0.4065
22321SOL    HW174013   3.324   9.099   5.955  0.2935  1.1004 -0.3640
22321SOL    HW274014   3.195   9.079   5.878 -0.0104 -1.0222  0.6184
22322SOL     OW74015  12.503   5.765   0.765 -0.9927  0.2452 -0.1761
22322SOL    HW174016  12.558   5.784   0.841 -2.7714  0.9969  0.9852
22322SOL    HW274017  12.518   5.839   0.706  3.6087 -2.2404 -2.6929
22323SOL     OW74018  11.050   1.010  10.647  0.3688  0.1763  0.5916
22323SOL    HW174019  10.963   1.042  10.625  0.8160  1.1167  0.1496
22323SOL    HW274020  11.105   1.088  10.651  0.9071 -0.2420  2.2894
22324SOL     OW74021   8.969  11.883   7.350  0.2028  1.1339  0.2881
22324SOL    HW174022   8.954  11.821   7.421 -1.0905  1.9816  0.8053
22324SOL    HW274023   9.025  11.836   7.288  0.2572 -0.0994  1.2370
22325SOL     OW74024   1.685   4.406   1.663 -0.2033  0.1328  0.9782
22325SOL    HW174025   1.727   4.332   1.618 -1.0016  0.0196  0.3868
22325SOL    HW274026   1.632   4.448   1.595  0.1736  1.2136  1.3207
22326SOL     OW74027   1.779   9.811   6.294 -0.0294  0.6906 -0.1748
22326SOL    HW174028   1.857   9.782   6.248  0.8217  2.8430 -0.1742
22326SOL    HW274029   1.793   9.784   6.385  0.7249  1.0847 -0.1703
22327SOL     OW74030  11.680  12.078   5.205  0.1305 -0.0347  0.3119
22327SOL    HW174031  11.600  12.125   5.229  0.0661 -0.3155  0.6394
22327SOL    HW274032  11.668  12.058   5.112  0.9337  2.1696 -0.3259
22328SOL     OW74033   8.487   2.163   6.982  0.1352  0.0098  0.4124
22328SOL    HW174034   8.525   2.153   7.070  0.8376  0.9453  0.2292
22328SOL    HW274035   8.525   2.091   6.932  2.4353  1.3942  0.0053
22329SOL     OW74036   1.035   3.644   5.662  0.6918  0.3495 -0.5237
22329SOL    HW174037   1.117   3.689   5.644  1.1930  0.7601  2.4110
22329SOL    HW274038   1.050   3.597   5.744 -2.1103  0.7434  0.3162
22330SOL     OW74039   7.270   3.955   0.926  0.2884  0.3680  0.5409
22330SOL    HW174040   7.269   4.050   0.936  0.6324  0.2641  1.6407
22330SOL    HW274041   7.362   3.930   0.938  0.8920  0.2173 -3.2925
22331SOL     OW74042  12.455   9.080   2.524 -0.8671 -0.4689  0.5009
22331SOL    HW174043  12.387   9.078   2.591  0.3935 -0.9017  1.8227
22331SOL    HW274044  12.527   9.029   2.562  0.4293  0.4916 -0.5931
22332SOL     OW74045   3.913   1.435  10.423 -0.1960  0.2056 -0.2160
22332SOL    HW174046   3.908   1.341  10.438 -0.6127  0.1967 -0.3923
22332SOL    HW274047   3.955   1.470  10.502 -2.4571  0.1695  1.1118
22333SOL     OW74048   0.304   0.136   8.263  0.2863  0.4949 -0.5693
22333SOL    HW174049   0.319   0.115   8.355 -0.3301 -1.2424 -0.8282
22333SOL    HW274050   0.261   0.058   8.228 -2.4593  2.3307 -1.5720
22334SOL     OW74051  11.773   4.376   6.434  0.6629 -0.4036  0.4068
22334SOL    HW174052  11.692   4.427   6.433  0.5742 -0.4699  1.7934
22334SOL    HW274053  11.783   4.343   6.345 -0.7882 -0.3299  0.2029
22335SOL     OW74054  12.029  10.951   6.117  0.2738  0.0280 -0.2015
22335SOL    HW174055  11.965  10.963   6.187  0.8585  0.4370  0.2722
22335SOL    HW274056  12.102  11.007   6.142  1.1384 -1.0112 -0.3336
22336SOL     OW74057  12.201  10.217   0.229  0.3755  0.1435 -0.0211
22336SOL    HW174058  12.272  10.277   0.204  2.5428 -1.2857  2.1974
22336SOL    HW274059  12.212  10.205   0.323 -2.3196 -0.8873  0.2476
22337SOL     OW74060   1.816  12.120   7.567  0.3349 -0.0075  0.1379
22337SOL    HW174061   1.875  12.159   7.632 -0.4867  1.6223 -0.0367
22337SOL    HW274062   1.872  12.103   7.492  0.9489 -0.2671  0.6414
22338SOL     OW74063   1.049   7.530   7.769  0.4048 -0.4642  0.0853
22338SOL    HW174064   1.019   7.554   7.681  1.7762  1.0592 -0.0262
22338SOL    HW274065   0.969   7.505   7.816 -0.4034 -0.9387 -1.4647
22339SOL     OW74066  10.199   4.451  10.938 -0.2307  0.5259 -0.1756
22339SOL    HW174067  10.215   4.492  11.023 -0.8506  0.5627 -0.0731
22339SOL    HW274068  10.285   4.422  10.909 -0.1572 -0.6068  1.0372
22340SOL     OW74069   1.563  10.247   3.576 -0.0763  0.4209 -0.0066
22340SOL    HW174070   1.562  10.262   3.482  0.3143 -0.2916 -0.1302
22340SOL    HW274071   1.471  10.253   3.602 -0.2610 -0.0243 -0.5414
22341SOL     OW74072   4.698   3.437   5.165  0.1883  0.2866 -0.5192
22341SOL    HW174073   4.775   3.387   5.136  0.7962  1.3675 -0.8169
22341SOL    HW274074   4.709   3.442   5.260  0.0612 -0.2316 -0.4714
22342SOL     OW74075   3.871   3.692  12.200  0.6797 -0.1904 -0.0353
22342SOL    HW174076   3.906   3.623  12.256 -1.0433 -2.0225 -1.0420
22342SOL    HW274077   3.823   3.750  12.259 -0.6787 -1.8007  0.5275
22343SOL     OW74078  10.241   9.159   7.790  0.1315  0.1186  0.2109
22343SOL    HW174079  10.305   9.088   7.784  0.6059  0.6114 -0.8421
22343SOL    HW274080  10.159   9.115   7.811  0.4932 -0.7029 -0.0503
22344SOL     OW74081   5.648   7.073   3.416  0.0344  0.0428 -0.0257
22344SOL    HW174082   5.579   7.009   3.407  1.1206 -1.3965  1.2973
22344SOL    HW274083   5.729   7.021   3.420  0.8032  1.2644  3.0578
22345SOL     OW74084   7.373   7.976   9.014  0.0489  0.2722 -0.0082
22345SOL    HW174085   7.426   8.055   9.031  1.6790 -0.5746 -0.9306
22345SOL    HW274086   7.432   7.917   8.968 -1.4740 -1.0903 -0.2980
22346SOL     OW74087   8.166  12.367   9.315 -0.5129 -0.6959 -0.1622
22346SOL    HW174088   8.151  12.434   9.248 -0.4189 -1.6992 -1.2298
22346SOL    HW274089   8.203  12.415   9.389 -1.5375  0.5962 -0.4528
22347SOL     OW74090  10.933   0.954   7.471  0.1414  0.1939  0.4824
22347SOL    HW174091  10.847   0.911   7.468 -0.1131  0.6249  1.4234
22347SOL    HW274092  10.971   0.936   7.385 -0.3526 -1.0993  0.5077
22348SOL     OW74093   8.513   1.785   4.587 -0.0880 -0.2575 -0.0472
22348SOL    HW174094   8.558   1.817   4.510 -1.3328 -0.7310 -1.0032
22348SOL    HW274095   8.428   1.754   4.555 -0.7143 -0.2922  1.5335
22349SOL     OW74096   3.901   4.509   3.264  0.1881 -0.1211 -0.3322
22349SOL    HW174097   3.890   4.437   3.326  0.6970  0.0616 -0.0209
22349SOL    HW274098   3.975   4.560   3.299  1.1896 -0.5987 -1.6394
22350SOL     OW74099   1.128   4.852   3.656  0.1459  0.0564  0.3775
22350SOL    HW174100   1.035   4.848   3.678 -0.1432 -1.2925 -0.9408
22350SOL    HW274101   1.163   4.921   3.713 -1.0596 -1.3162  2.9968
22351SOL     OW74102   8.573   2.576   1.853 -0.1013 -0.2202 -0.4677
22351SOL    HW174103   8.537   2.639   1.790  0.2228 -0.3731 -0.8097
22351SOL    HW274104   8.606   2.631   1.924 -1.1606 -0.0835 -0.0553
22352SOL     OW74105   8.104   1.375  12.104 -0.0745  0.0585  0.0703
22352SOL    HW174106   8.042   1.415  12.166  1.1147  1.2713  0.5245
22352SOL    HW274107   8.155   1.314  12.157  1.5823  1.7852  0.5777
22353SOL     OW74108   7.281   8.673  10.061 -0.0474 -0.4017 -0.4801
22353SOL    HW174109   7.314   8.758  10.032  1.1712 -0.5116  0.5078
22353SOL    HW274110   7.187   8.677  10.045  0.1179  0.7890 -1.2702
22354SOL     OW74111  10.132  10.106   5.724 -0.1968  0.0384 -0.2571
22354SOL    HW174112  10.189  10.079   5.652  1.2435  0.7664  0.5678
22354SOL    HW274113  10.105  10.195   5.701  0.7192  0.4844  0.3480
22355SOL     OW74114   6.248   6.921   0.945 -0.6378 -0.3727 -0.1015
22355SOL    HW174115   6.176   6.983   0.946  0.0907  0.5422  2.4440
22355SOL    HW274116   6.223   6.854   1.009  0.6430 -0.1333  0.6919
22356SOL     OW74117   8.854   8.706   2.355  0.7666 -0.5136  0.5746
22356SOL    HW174118   8.894   8.758   2.286 -0.1470  1.9528  1.7509
22356SOL    HW274119   8.924   8.650   2.387  2.5029  1.5375  0.6144
22357SOL     OW74120   0.698  11.865  10.292  0.2983 -0.9339  0.1087
22357SOL    HW174121   0.701  11.879  10.198  0.6166  1.3446  0.3981
22357SOL    HW274122   0.667  11.775  10.302 -2.9534 -0.2466 -2.1401
22358SOL     OW74123  12.073   2.058   7.495  0.1808 -0.2623 -0.6115
22358SOL    HW174124  12.047   2.114   7.569  1.4708  0.4472 -0.6676
22358SOL    HW274125  12.168   2.050   7.504  0.5435  0.8898 -2.9106
22359SOL     OW74126   7.283  11.994   8.241  0.1148  0.2009  0.0921
22359SOL    HW174127   7.274  12.053   8.166 -0.5375 -0.4811 -0.3850
22359SOL    HW274128   7.292  12.051   8.316  0.0601  0.9035 -0.4277
22360SOL     OW74129   8.033   6.689   2.505 -0.3225  0.3235  0.3579
22360SOL    HW174130   8.090   6.620   2.470  0.2075  0.9156  0.0469
22360SOL    HW274131   8.093   6.755   2.540 -0.7883  1.4141 -0.8301
22361SOL     OW74132   0.947  10.456   4.494 -0.4468  0.2513 -0.2926
22361SOL    HW174133   1.021  10.439   4.436 -2.4102 -0.1455 -2.8538
22361SOL    HW274134   0.970  10.411   4.576  1.6047 -0.8296 -1.3726
22362SOL     OW74135   6.308  12.363   5.438  0.6330  0.0966  0.4846
22362SOL    HW174136   6.265  12.390   5.520  1.9321  1.1790  0.8464
22362SOL    HW274137   6.400  12.351   5.462  1.0815  0.6534 -0.8555
22363SOL     OW74138  10.619   7.340  11.242 -0.1993  0.8197 -0.5430
22363SOL    HW174139  10.692   7.401  11.246 -0.5673  1.4971 -2.9157
22363SOL    HW274140  10.659   7.253  11.250  0.8692  1.1850 -1.7005
22364SOL     OW74141   6.606  11.299  11.993  0.3084  0.2942  0.1024
22364SOL    HW174142   6.515  11.325  12.007 -0.0778 -1.3159  0.8905
22364SOL    HW274143   6.620  11.228  12.057  1.8694 -0.0102 -0.5405
22365SOL     OW74144  10.679   0.597   3.483  0.3124 -0.1084 -0.3374
22365SOL    HW174145  10.757   0.651   3.494 -0.3746  0.8330  0.0493
22365SOL    HW274146  10.607   0.650   3.517 -0.2167 -1.8182  1.4425
22366SOL     OW74147   9.400  10.566   1.245 -0.6667  0.1693  0.0342
22366SOL    HW174148   9.375  10.473   1.242 -0.2186  0.0662 -0.9133
22366SOL    HW274149   9.439  10.583   1.159 -0.4563  1.1586  0.3133
22367SOL     OW74150  10.056   3.090   1.729 -0.5301 -0.1240  0.0756
22367SOL    HW174151  10.136   3.096   1.782  0.5025  0.0624 -1.4639
22367SOL    HW274152  10.003   3.025   1.775  0.0839  0.3987  1.6263
22368SOL     OW74153   5.301  11.157   3.359 -0.0670  0.1570  0.1951
22368SOL    HW174154   5.285  11.124   3.447  0.0522  0.4926  0.3412
22368SOL    HW274155   5.337  11.082   3.312  1.7724  0.5042  0.9800
22369SOL     OW74156   1.419   9.585  11.642 -0.2851 -0.4098  0.1891
22369SOL    HW174157   1.462   9.635  11.573 -0.2921  0.1560  0.5900
22369SOL    HW274158   1.479   9.512  11.659 -0.0499 -0.2812 -0.0784
22370SOL     OW74159   4.293   4.115   0.530 -0.6261 -0.3985  0.4559
22370SOL    HW174160   4.231   4.063   0.479  1.2879 -2.2713 -0.0731
22370SOL    HW274161   4.329   4.054   0.595  1.2876  0.3745  0.1927
22371SOL     OW74162  12.050   2.163   4.935 -0.5581  0.2734  0.2692
22371SOL    HW174163  12.047   2.131   4.844 -1.5218 -1.0998  0.7447
22371SOL    HW274164  12.137   2.202   4.944  1.1458 -3.0120 -0.1702
22372SOL     OW74165   9.177   3.220   6.822  0.0256 -0.5136 -0.1644
22372SOL    HW174166   9.101   3.256   6.777 -0.4976  0.4356  1.3912
22372SOL    HW274167   9.142   3.152   6.879  0.2966  0.0023  0.6450
22373SOL     OW74168  12.257   1.648   4.478 -0.3475 -1.0024 -0.0786
22373SOL    HW174169  12.267   1.635   4.384 -0.6989 -1.9570  0.0052
22373SOL    HW274170  12.276   1.741   4.492 -1.2233 -0.6314 -1.2204
22374SOL     OW74171   6.782   2.028  11.402  0.0604  0.3969  0.0335
22374SOL    HW174172   6.801   2.043  11.495  1.4188  0.6632 -0.2794
22374SOL    HW274173   6.714   1.961  11.402  1.6355 -1.2648  1.1770
22375SOL     OW74174  12.175   2.656   0.338 -0.0319  0.3116  0.3178
22375SOL    HW174175  12.197   2.614   0.255  1.6138 -0.7064  1.2003
22375SOL    HW274176  12.170   2.749   0.318 -0.4157  0.0071 -1.0520
22376SOL     OW74177  11.392   4.863   7.283 -0.6430  0.0148 -0.7373
22376SOL    HW174178  11.371   4.929   7.217 -0.2896 -0.4113 -1.2924
22376SOL    HW274179  11.486   4.847   7.271 -0.7354 -0.6157 -0.6419
22377SOL     OW74180   8.486   5.787   8.378 -0.5327 -0.0619 -0.3038
22377SOL    HW174181   8.512   5.839   8.454  0.8491 -0.0919 -0.7255
22377SOL    HW274182   8.515   5.698   8.399  0.0704 -0.0271 -0.9563
22378SOL     OW74183   6.434   5.793   8.337 -0.0717 -0.2676  0.3189
22378SOL    HW174184   6.488   5.857   8.290  0.9462 -0.8839  0.5941
22378SOL    HW274185   6.384   5.749   8.269  1.1151 -0.9010 -0.1893
22379SOL     OW74186  12.412   2.214  11.750  0.4897  0.6244 -0.1602
22379SOL    HW174187  12.479   2.168  11.699  1.1492  0.6761  0.6406
22379SOL    HW274188  12.420   2.179  11.838 -1.3065 -0.1697 -0.2758
22380SOL     OW74189   6.562   2.879   1.257 -0.6587  0.1990 -0.0084
22380SOL    HW174190   6.606   2.801   1.225  0.5104  0.6703  0.4172
22380SOL    HW274191   6.611   2.953   1.220 -0.5496  0.7350  1.1541
22381SOL     OW74192   1.298   2.124  10.206 -0.3185 -0.1941 -0.7044
22381SOL    HW174193   1.331   2.182  10.138 -0.6937 -0.0676 -0.7789
22381SOL    HW274194   1.349   2.044  10.196  1.4665  0.7019  0.5233
22382SOL     OW74195   1.969  10.854   9.067 -0.1757 -0.2872  0.1181
22382SOL    HW174196   2.061  10.830   9.077  1.0493  3.4346 -0.5512
22382SOL    HW274197   1.947  10.897   9.150 -1.1930 -0.7654  0.1051
22383SOL     OW74198   8.052   1.398   1.234  0.0983  0.1102  0.4418
22383SOL    HW174199   8.040   1.329   1.300 -0.7690  1.1169  1.3733
22383SOL    HW274200   8.146   1.394   1.213  0.9553  1.2589  3.5113
22384SOL     OW74201   3.448   1.548   9.133  1.7606  0.0854  0.3501
22384SOL    HW174202   3.453   1.608   9.059  2.1029 -1.5589 -1.0166
22384SOL    HW274203   3.373   1.492   9.113 -1.0316  2.2986  3.4472
22385SOL     OW74204   6.441   9.069   8.014 -0.4184 -0.1452 -1.2721
22385SOL    HW174205   6.445   9.040   7.924 -1.0116 -0.0050 -1.3489
22385SOL    HW274206   6.529   9.053   8.049 -0.2410 -0.3675 -1.8162
22386SOL     OW74207   4.111   9.313  12.054  0.6659  0.1620 -0.1773
22386SOL    HW174208   4.191   9.263  12.035 -0.2687 -0.3236 -3.5455
22386SOL    HW274209   4.132   9.403  12.031  1.0560  0.6009  1.7566
22387SOL     OW74210   7.343  10.677   4.163 -0.2112  0.4445 -0.2280
22387SOL    HW174211   7.279  10.614   4.197 -0.0170  0.3749  0.0120
22387SOL    HW274212   7.413  10.624   4.126  0.9455  0.4625  1.7852
22388SOL     OW74213   9.043   4.958   1.015  0.7562 -0.6495 -0.0841
22388SOL    HW174214   8.954   4.996   1.013  0.3440 -1.2324  3.0771
22388SOL    HW274215   9.029   4.865   0.999  1.0993 -0.4552 -1.7021
22389SOL     OW74216  10.344   5.174   8.995  0.9605  0.6030  0.1106
22389SOL    HW174217  10.387   5.120   9.061  0.1457  1.3481  1.2932
22389SOL    HW274218  10.372   5.263   9.016 -0.3646  0.9947  0.3241
22390SOL     OW74219   8.022   5.237   4.285  0.0006 -0.0777 -0.4561
22390SOL    HW174220   8.076   5.261   4.361  0.7755  0.0072 -1.0179
22390SOL    HW274221   8.038   5.308   4.222 -0.9327  0.0475 -0.5591
22391SOL     OW74222   5.106   8.229   6.511  0.8077 -0.4172  0.0891
22391SOL    HW174223   5.020   8.195   6.484 -0.2706  2.6617 -0.7927
22391SOL    HW274224   5.121   8.191   6.597 -1.3471 -1.2003  0.1803
22392SOL     OW74225   5.530  10.273   7.903  0.0910  0.0325 -0.6421
22392SOL    HW174226   5.581  10.297   7.980  0.9526 -1.0289 -0.8666
22392SOL    HW274227   5.444  10.249   7.937 -0.4984  2.3654 -0.3103
22393SOL     OW74228   3.901   5.389   4.247  0.3271  0.0230 -0.1893
22393SOL    HW174229   3.841   5.463   4.238 -0.8295 -0.9055 -0.2794
22393SOL    HW274230   3.866   5.321   4.189  0.2668 -1.2842  1.2934
22394SOL     OW74231   2.251   0.163   5.050  0.5105 -0.8691  0.4581
22394SOL    HW174232   2.181   0.168   5.116  0.1418 -0.4209  0.0452
22394SOL    HW274233   2.249   0.072   5.021 -2.4833 -0.1107 -2.2381
22395SOL     OW74234   0.934   2.361  10.072 -0.3188  0.0292 -0.2310
22395SOL    HW174235   0.932   2.321  10.159 -3.6538  1.1609  0.3916
22395SOL    HW274236   0.904   2.292  10.013 -0.9971  0.0804  0.0367
22396SOL     OW74237   3.262   7.643   7.817 -0.5210 -0.7521  0.1245
22396SOL    HW174238   3.178   7.602   7.798 -1.2578  0.0696  1.4830
22396SOL    HW274239   3.250   7.735   7.792 -0.8079 -0.1289  2.3048
22397SOL     OW74240   1.239   8.508  11.812 -0.0328 -0.4957 -0.8425
22397SOL    HW174241   1.334   8.508  11.800  0.1975 -1.8173  0.7097
22397SOL    HW274242   1.222   8.585  11.866  0.1638 -0.3273 -1.0173
22398SOL     OW74243   1.758  12.397   0.643 -0.4432  0.9062  0.9129
22398SOL    HW174244   1.693  12.388   0.572  2.0644 -1.2779 -1.3356
22398SOL    HW274245   1.754  12.313   0.689  0.6405  0.7950  0.8173
22399SOL     OW74246   6.020   6.388  10.390  0.4744  0.3317  0.2309
22399SOL    HW174247   6.114   6.408  10.391  0.5438  0.0019  0.5007
22399SOL    HW274248   6.010   6.323  10.320  0.1905  1.5565 -0.9056
22400SOL     OW74249  11.940   5.343   8.857 -0.1011 -0.3999 -0.0485
22400SOL    HW174250  12.021   5.296   8.839  0.9465  1.6506 -1.0379
22400SOL    HW274251  11.911   5.310   8.942  1.1327 -2.0001 -0.2047
22401SOL     OW74252   2.478   1.980   2.928 -0.2309  0.1036 -0.7642
22401SOL    HW174253   2.515   2.046   2.986 -2.0395  0.4346  0.0718
22401SOL    HW274254   2.386   2.006   2.917 -0.6478 -1.5449 -1.4729
22402SOL     OW74255  12.557   3.975   8.724  0.2336  0.3830 -0.2384
22402SOL    HW174256  12.498   3.903   8.750  0.4103  0.3863  0.1800
22402SOL    HW274257  12.498   4.045   8.695  0.0587  0.0979 -0.5785
22403SOL     OW74258   0.880   1.959  11.870 -0.2995  0.2001 -0.2321
22403SOL    HW174259   0.903   2.039  11.917  0.1680  0.2695 -0.5680
22403SOL    HW274260   0.847   1.990  11.785 -1.6225  0.1033  0.2147
22404SOL     OW74261   6.231  11.972  11.211 -0.0533  0.2783 -0.0423
22404SOL    HW174262   6.264  12.020  11.287  0.4312 -0.6156  0.3365
22404SOL    HW274263   6.309  11.957  11.157 -0.6092  2.1583 -1.4751
22405SOL     OW74264  11.340   9.009  10.746  0.4060  0.3754 -0.5197
22405SOL    HW174265  11.255   8.964  10.745  0.0418  0.8822  1.5284
22405SOL    HW274266  11.403   8.940  10.768 -0.1051  0.6386  2.2609
22406SOL     OW74267   8.426   8.453   2.525  0.6379  0.0239 -0.6921
22406SOL    HW174268   8.501   8.398   2.547  0.2191 -0.6637 -0.9436
22406SOL    HW274269   8.379   8.403   2.458 -0.7462 -0.1639  0.3783
22407SOL     OW74270   4.769  11.054   6.348  0.2341  0.2960 -0.4382
22407SOL    HW174271   4.825  11.126   6.322 -0.9668  1.4083 -0.0424
22407SOL    HW274272   4.829  10.979   6.356  1.2863  0.8943 -2.1542
22408SOL     OW74273   7.751  10.007  10.642 -0.1421  0.1843  0.1991
22408SOL    HW174274   7.721   9.920  10.615  1.4732 -0.6417  0.8964
22408SOL    HW274275   7.716  10.066  10.577 -4.1509 -0.4831  1.4924
22409SOL     OW74276   8.081   8.379   6.942  0.5021  0.7820 -0.1235
22409SOL    HW174277   7.997   8.426   6.947  0.1089  0.0063  1.0847
22409SOL    HW274278   8.056   8.287   6.931  1.1941  0.5585  0.1235
22410SOL     OW74279   4.785  11.861   4.618 -0.2563 -0.6553  0.5887
22410SOL    HW174280   4.835  11.942   4.606  0.8494 -1.6327 -2.3200
22410SOL    HW274281   4.694  11.889   4.627  0.1766  0.9346  0.2125
22411SOL     OW74282   3.742   8.079  12.356  0.5844 -0.1318 -0.0784
22411SOL    HW174283   3.820   8.127  12.385  0.2048  0.1129  0.5308
22411SOL    HW274284   3.763   7.988  12.375  0.7283 -0.0693  0.0717
22412SOL     OW74285   0.886   1.923   4.764 -0.2602  0.5503 -0.3179
22412SOL    HW174286   0.939   1.897   4.689  1.5877  1.0821  0.7365
22412SOL    HW274287   0.846   1.842   4.795 -2.2424  0.5220 -2.6621
22413SOL     OW74288   6.296  12.456   8.437 -0.8590 -0.0344 -0.4883
22413SOL    HW174289   6.257  12.533   8.480  1.2662  2.2199 -2.3151
22413SOL    HW274290   6.325  12.400   8.510 -1.6258  1.3243  0.9252
22414SOL     OW74291   5.691   2.058   9.143  0.7889  0.6275  0.3131
22414SOL    HW174292   5.781   2.056   9.176  0.1822  0.2582  2.0580
22414SOL    HW274293   5.691   1.997   9.069  2.2328  1.5607 -0.5099
22415SOL     OW74294  11.624   4.125   0.314 -0.4932 -0.9781 -0.5112
22415SOL    HW174295  11.618   4.094   0.404  0.1325 -0.2190 -0.1943
22415SOL    HW274296  11.533   4.130   0.284 -1.0156  2.0140  1.2207
22416SOL     OW74297   8.720   6.221   0.451  0.0675  0.2357 -0.1235
22416SOL    HW174298   8.654   6.266   0.502 -1.5695 -0.6515 -1.3346
22416SOL    HW274299   8.745   6.145   0.504  0.0071  0.4941  0.2731
22417SOL     OW74300   8.558   3.509   4.345  0.2470 -0.0132  0.1439
22417SOL    HW174301   8.653   3.498   4.349  0.1560 -0.6837  0.7796
22417SOL    HW274302   8.535   3.550   4.428 -0.1193 -0.7994  0.4480
22418SOL     OW74303   8.800   5.233   1.270  0.2689  0.3202 -0.0569
22418SOL    HW174304   8.767   5.186   1.346  1.1018 -1.2014 -0.5921
22418SOL    HW274305   8.866   5.292   1.305  0.4890 -0.2090  0.4398
22419SOL     OW74306   8.119   0.530   8.970 -0.0347 -0.0117  0.2336
22419SOL    HW174307   8.080   0.510   8.886  0.2205 -3.2190  0.7707
22419SOL    HW274308   8.045   0.551   9.027 -0.4188 -0.1730 -0.2067
22420SOL     OW74309   7.507  11.782   5.530 -0.4457  0.4137  0.4118
22420SOL    HW174310   7.419  11.772   5.565 -0.8135  0.9836 -0.3299
22420SOL    HW274311   7.560  11.805   5.607 -0.5396 -1.8394  1.2083
22421SOL     OW74312   9.302   8.345   3.911 -0.4467 -0.6776  0.9526
22421SOL    HW174313   9.263   8.379   3.830 -0.6238 -1.0170  0.8947
22421SOL    HW274314   9.394   8.368   3.905 -0.3653 -1.1189  0.4329
22422SOL     OW74315   4.067   4.056   8.554 -0.6082  0.1580 -0.1645
22422SOL    HW174316   4.035   4.137   8.513 -1.4568 -0.5747 -0.9839
22422SOL    HW274317   4.015   3.987   8.514  0.4579 -0.8537  0.1518
22423SOL     OW74318   2.308   7.000   3.954 -0.1429  0.5011  0.7689
22423SOL    HW174319   2.334   7.056   3.881 -0.9567  0.9638  0.8147
22423SOL    HW274320   2.222   6.966   3.929  0.4682 -0.9843  0.6126
22424SOL     OW74321   2.495   0.410   8.465  0.2100  0.4820  0.2371
22424SOL    HW174322   2.484   0.354   8.541 -1.0325  1.4736  0.8342
22424SOL    HW274323   2.530   0.353   8.397  1.0663 -0.4834  1.4604
22425SOL     OW74324   6.041  10.407   8.134 -0.7617 -0.7076  0.5983
22425SOL    HW174325   5.980  10.379   8.066 -0.5521 -1.6146  0.7709
22425SOL    HW274326   6.125  10.416   8.088 -0.7308 -0.8163  0.6323
22426SOL     OW74327   4.413   0.004   9.520  0.2437 -0.1902  0.3276
22426SOL    HW174328   4.482  -0.054   9.488  1.4614  1.1893  0.3178
22426SOL    HW274329   4.373   0.041   9.442 -0.3338 -0.7712  0.3388
22427SOL     OW74330   0.866   5.675   5.559 -0.2995 -0.1911  0.1604
22427SOL    HW174331   0.920   5.716   5.492  0.2987 -2.7222 -1.0310
22427SOL    HW274332   0.910   5.696   5.641 -0.4649  2.1030 -0.2914
22428SOL     OW74333  11.510   0.034   7.742 -0.7660  0.3860  0.4828
22428SOL    HW174334  11.454  -0.012   7.804 -1.5048  0.8881  0.1928
22428SOL    HW274335  11.457   0.042   7.663  1.0810 -2.7321 -1.2796
22429SOL     OW74336  12.247   5.847   6.783  0.1915  0.4790 -1.1286
22429SOL    HW174337  12.204   5.830   6.867  1.5480  0.5589 -0.3923
22429SOL    HW274338  12.215   5.778   6.725  0.3582 -0.4842 -0.1166
22430SOL     OW74339   2.157   4.099   6.271  0.6197  0.1286 -0.4969
22430SOL    HW174340   2.119   4.020   6.308  0.0527 -0.7097 -2.7167
22430SOL    HW274341   2.167   4.080   6.177  1.6494  2.2264 -0.8868
22431SOL     OW74342   0.581   4.189   2.770 -0.3364 -0.3576  0.1615
22431SOL    HW174343   0.567   4.277   2.805  1.0592 -0.3219  0.7120
22431SOL    HW274344   0.505   4.173   2.715 -1.2543  0.6858  1.0575
22432SOL     OW74345   5.533  11.469   7.380 -0.1744  0.5620  0.3744
22432SOL    HW174346   5.558  11.387   7.337  0.4617  0.6178  0.6356
22432SOL    HW274347   5.547  11.454   7.473  1.2430  1.4020  0.3231
22433SOL     OW74348   9.565  10.931   9.620  0.2912 -0.1609 -0.6047
22433SOL    HW174349   9.603  10.980   9.693 -1.5962 -1.0826  1.1109
22433SOL    HW274350   9.506  10.868   9.662 -0.1922 -1.3436 -2.9079
22434SOL     OW74351  12.264   7.671   4.474  0.1658  0.2106 -0.5182
22434SOL    HW174352  12.295   7.582   4.454 -0.9923 -0.3314 -0.0195
22434SOL    HW274353  12.338   7.712   4.520  1.2366  0.0113 -2.0060
22435SOL     OW74354   5.260   8.308   5.675 -0.3330  0.2577 -0.1721
22435SOL    HW174355   5.256   8.399   5.643  0.2027  0.4957  0.4280
22435SOL    HW274356   5.350   8.297   5.704 -0.4195 -0.4495 -0.1652
22436SOL     OW74357  12.377   9.649   9.918 -0.3218  0.5099  0.1628
22436SOL    HW174358  12.417   9.732   9.943 -0.8699  1.0327 -0.6401
22436SOL    HW274359  12.425   9.583   9.968 -0.3465  1.3614  1.3565
22437SOL     OW74360  10.856   5.716   2.317  0.0588  0.4859 -0.0483
22437SOL    HW174361  10.892   5.681   2.235 -0.0178  0.3258 -0.0129
22437SOL    HW274362  10.925   5.774   2.350  0.5268 -0.2494  0.3029
22438SOL     OW74363  10.833   8.593  11.681 -0.4573  0.3482  0.2784
22438SOL    HW174364  10.855   8.559  11.594 -2.1736 -0.0973 -0.0247
22438SOL    HW274365  10.912   8.577  11.734  0.5507  0.4733 -1.1319
22439SOL     OW74366   4.741   3.429   5.429 -0.6119  0.3384  0.0870
22439SOL    HW174367   4.777   3.340   5.422 -1.7072 -0.1729  0.6310
22439SOL    HW274368   4.733   3.444   5.523  0.3805  1.3782  0.0214
22440SOL     OW74369   3.073   6.448   2.789 -0.2888  0.1284  0.1469
22440SOL    HW174370   3.069   6.353   2.794  0.5255  0.1138  0.7006
22440SOL    HW274371   2.990   6.477   2.829  0.2836 -0.3286  1.7481
22441SOL     OW74372   3.216  10.158   1.113 -0.6338  0.1439  0.5702
22441SOL    HW174373   3.214  10.075   1.162  2.1827 -0.9479 -0.9294
22441SOL    HW274374   3.285  10.146   1.048 -0.9925  3.2572 -0.5594
22442SOL     OW74375  12.529  11.565  10.154  0.3459 -0.1019 -0.7573
22442SOL    HW174376  12.490  11.601  10.074  0.0005 -0.1111 -0.5956
22442SOL    HW274377  12.605  11.515  10.123  0.0088 -0.4051 -1.1178
22443SOL     OW74378   3.149  10.262  10.083 -0.3109 -0.6172 -0.2620
22443SOL    HW174379   3.084  10.324  10.116 -0.8686 -1.0381 -0.5321
22443SOL    HW274380   3.097  10.186  10.057  0.4941 -1.8445  1.5075
22444SOL     OW74381   0.897   5.149   6.770  0.0204  0.4753  0.0970
22444SOL    HW174382   0.969   5.153   6.707 -1.3896  0.0663 -1.6275
22444SOL    HW274383   0.930   5.195   6.848  1.8802  0.8727 -0.8712
22445SOL     OW74384  11.213   8.486  11.695 -0.4233 -0.3684  0.2114
22445SOL    HW174385  11.146   8.486  11.763  0.9399 -2.2452  1.6499
22445SOL    HW274386  11.236   8.579  11.684 -1.4795  0.0701  1.4675
22446SOL     OW74387   0.169   1.450   7.571 -0.0913  0.2357 -0.6551
22446SOL    HW174388   0.134   1.534   7.601 -0.3293  0.1167 -0.5917
22446SOL    HW274389   0.254   1.442   7.614 -0.8810 -0.4226  0.8577
22447SOL     OW74390   6.105   4.539   6.125  0.0535 -0.0458  0.2762
22447SOL    HW174391   6.081   4.560   6.215  1.5047  2.5009  0.1362
22447SOL    HW274392   6.186   4.488   6.133 -0.3615 -0.6988  0.4145
22448SOL     OW74393   2.761   1.699   9.328  0.2320 -0.0333 -0.0232
22448SOL    HW174394   2.709   1.672   9.252  0.3952 -1.2833  0.2954
22448SOL    HW274395   2.711   1.670   9.404  1.4261 -1.3998  0.2894
22449SOL     OW74396   7.952   7.334   9.432 -0.1678 -0.4488  0.0366
22449SOL    HW174397   7.919   7.306   9.347 -1.3661 -0.7400  0.5832
22449SOL    HW274398   7.942   7.258   9.488  2.1106 -0.7794  0.0777
22450SOL     OW74399   9.048  11.730   7.116  0.2510  0.1041 -0.2824
22450SOL    HW174400   9.118  11.768   7.062  0.0145  0.4242 -0.3615
22450SOL    HW274401   8.975  11.718   7.055  0.1373  0.0402 -0.1337
22451SOL     OW74402   2.604   1.440   0.063  0.3667 -0.1164 -0.4507
22451SOL    HW174403   2.589   1.505   0.131 -1.0146 -0.8170 -0.0496
22451SOL    HW274404   2.527   1.446   0.006  1.3553  0.2419 -1.8033
22452SOL     OW74405   3.585   3.257   3.273 -0.1647  0.0450 -0.5566
22452SOL    HW174406   3.586   3.240   3.179 -0.2775 -1.3875 -0.3184
22452SOL    HW274407   3.570   3.171   3.313  2.3184  0.1910  0.8708
22453SOL     OW74408   2.413   5.827   3.882  0.1420  0.1627  0.3284
22453SOL    HW174409   2.493   5.797   3.838 -0.0115  0.2910 -0.0351
22453SOL    HW274410   2.356   5.750   3.882 -0.2777  0.4700 -0.6644
22454SOL     OW74411   4.453   4.265  12.484 -0.2969  0.3179 -0.0726
22454SOL    HW174412   4.483   4.352  12.460 -0.0258  0.3655  0.4266
22454SOL    HW274413   4.532   4.218  12.508 -0.3765 -0.2460 -0.8809
22455SOL     OW74414   0.041   0.418   8.676 -0.4579  0.6163 -0.6820
22455SOL    HW174415   0.019   0.389   8.587 -0.9588 -0.3867 -0.2339
22455SOL    HW274416  -0.017   0.493   8.691 -1.4939 -0.1650 -0.6374
22456SOL     OW74417   6.947  10.723   9.150 -0.4931 -0.1209 -0.5764
22456SOL    HW174418   6.988  10.681   9.225 -0.9724 -1.7616 -1.1990
22456SOL    HW274419   7.013  10.720   9.081 -1.2461 -1.8271 -1.2633
22457SOL     OW74420  11.071   2.565   2.002  0.2067 -0.3138  0.0480
22457SOL    HW174421  11.155   2.547   2.045 -0.6064  1.2578  2.5016
22457SOL    HW274422  11.009   2.505   2.044 -0.5491  0.9971  0.8306
22458SOL     OW74423   1.515  12.242   6.608 -0.0323  0.3463  0.0463
22458SOL    HW174424   1.485  12.295   6.681 -0.4638 -0.6369  0.5904
22458SOL    HW274425   1.534  12.156   6.646 -0.5943 -0.2810 -1.0496
22459SOL     OW74426   6.281  10.146   1.785 -0.3604 -0.2728 -0.0385
22459SOL    HW174427   6.208  10.094   1.818 -0.6452 -0.2104 -0.5706
22459SOL    HW274428   6.317  10.094   1.713  0.3617 -0.4841  0.4582
22460SOL     OW74429   8.139   7.758   4.484  0.4606 -0.5436  0.3410
22460SOL    HW174430   8.091   7.681   4.513  1.5145 -1.4551 -0.2746
22460SOL    HW274431   8.230   7.731   4.483  0.9598  0.9778  0.9415
22461SOL     OW74432   6.034   8.711   8.966  0.6796 -0.3314  0.2628
22461SOL    HW174433   6.016   8.696   8.873  0.4506  0.5008  0.1694
22461SOL    HW274434   6.120   8.670   8.980 -0.1179 -2.1466  0.1374
22462SOL     OW74435  11.722  10.400   8.603 -0.4781 -0.1945 -0.1744
22462SOL    HW174436  11.675  10.329   8.647 -0.6343 -0.5239 -0.8541
22462SOL    HW274437  11.787  10.429   8.667 -0.4078 -0.9578  0.1119
22463SOL     OW74438  10.593   3.660   2.807  0.3966 -0.2485 -0.0215
22463SOL    HW174439  10.544   3.627   2.883  1.5997 -0.4218  0.7073
22463SOL    HW274440  10.680   3.681   2.842  0.0661  2.5962 -0.7121
22464SOL     OW74441   9.471  11.040   3.051 -0.1808  0.3037  0.2210
22464SOL    HW174442   9.541  11.033   3.116  0.3193  1.2856 -0.1890
22464SOL    HW274443   9.396  11.074   3.101  0.6384  2.5535  0.0476
22465SOL     OW74444   9.129   5.918   7.023 -0.2606  0.0470 -0.6489
22465SOL    HW174445   9.101   6.005   6.995 -1.0405  0.4015  1.1363
22465SOL    HW274446   9.089   5.906   7.108 -0.2564 -2.1336 -0.9114
22466SOL     OW74447   6.113   6.007   3.790 -0.4265 -0.0875 -0.1680
22466SOL    HW174448   6.032   6.024   3.838 -0.2053  1.0609 -0.1693
22466SOL    HW274449   6.099   5.922   3.749 -1.9892  0.4706 -0.8910
22467SOL     OW74450   4.362   3.487   1.844  0.0556  0.5650  0.0074
22467SOL    HW174451   4.277   3.444   1.851  0.0257  0.2828 -1.5757
22467SOL    HW274452   4.426   3.418   1.858  0.0069 -0.0982 -2.4903
22468SOL     OW74453  11.192   2.772   2.601  0.0074  0.1315 -0.3343
22468SOL    HW174454  11.159   2.862   2.590 -2.2761 -0.7345 -1.1866
22468SOL    HW274455  11.170   2.729   2.518  2.0384 -0.9610 -0.3531
22469SOL     OW74456   4.907  11.238   0.467  0.4210  0.1719 -0.7846
22469SOL    HW174457   4.953  11.302   0.412  1.4465  0.0077 -0.1596
22469SOL    HW274458   4.888  11.165   0.409  2.6429 -0.5553 -0.6932
22470SOL     OW74459  10.433   3.764   4.795  0.1432 -0.1542 -0.4285
22470SOL    HW174460  10.433   3.743   4.888  0.2298  0.2566 -0.3344
22470SOL    HW274461  10.399   3.853   4.790  3.2549  1.1749 -0.4713
22471SOL     OW74462   6.462   9.535   4.812 -0.4694 -0.3861 -0.0392
22471SOL    HW174463   6.539   9.478   4.807 -0.8133 -0.9647  0.9938
22471SOL    HW274464   6.402   9.500   4.747 -0.7239 -1.3000  0.6652
22472SOL     OW74465   1.014   6.370   4.131  0.4842  0.9976 -0.3595
22472SOL    HW174466   0.963   6.317   4.193  1.5438  1.8055  1.2627
22472SOL    HW274467   1.007   6.322   4.048 -0.3295 -0.5607  0.5547
22473SOL     OW74468  11.929   0.416   6.272  0.3881 -0.2021  0.4814
22473SOL    HW174469  11.853   0.450   6.225 -0.7664 -0.9004  1.7576
22473SOL    HW274470  11.996   0.484   6.262 -0.1732  0.1342 -1.2200
22474SOL     OW74471   8.535   5.318   6.722 -0.1804  0.4875  0.0760
22474SOL    HW174472   8.529   5.223   6.721 -0.5663  0.5082  0.4505
22474SOL    HW274473   8.628   5.336   6.740 -0.1086  0.1833  0.0060
22475SOL     OW74474   8.290   9.177   9.715  0.5912  0.1355  0.1372
22475SOL    HW174475   8.315   9.115   9.783  1.6285 -2.8426 -2.7087
22475SOL    HW274476   8.250   9.250   9.763  1.1323 -1.7621  3.8586
22476SOL     OW74477   0.205   7.157   0.666 -0.2991 -0.0467 -0.4949
22476SOL    HW174478   0.264   7.198   0.729  0.8491  0.0898 -1.6323
22476SOL    HW274479   0.117   7.178   0.699  0.2719  0.3350  0.8425
22477SOL     OW74480   9.440   7.437   9.150  0.0778  0.4707  0.0083
22477SOL    HW174481   9.479   7.390   9.076 -0.6071 -3.3312  1.8676
22477SOL    HW274482   9.500   7.421   9.223 -2.1389 -0.9890  1.6375
22478SOL     OW74483   6.081   5.196   2.791 -0.2752  0.0027 -0.6504
22478SOL    HW174484   6.104   5.186   2.883  0.4169 -0.2971 -0.8440
22478SOL    HW274485   5.989   5.220   2.791  0.0935  1.5422  0.1813
22479SOL     OW74486  10.713   0.467  11.406  0.0283  0.5174  1.0398
22479SOL    HW174487  10.772   0.542  11.395  1.7672 -0.7009  1.6006
22479SOL    HW274488  10.695   0.437  11.316  2.2693 -0.5349  0.8788
22480SOL     OW74489   1.281   8.887   2.488  0.3363  0.4223  0.3186
22480SOL    HW174490   1.261   8.977   2.516  1.6839  0.8808 -0.1244
22480SOL    HW274491   1.377   8.882   2.492  0.2374 -1.4341  1.6411
22481SOL     OW74492   4.347   1.305   2.286  0.3401  0.4077  0.8615
22481SOL    HW174493   4.262   1.272   2.313 -1.2746  0.4383 -3.3539
22481SOL    HW274494   4.386   1.234   2.236  1.1541  1.5541 -0.2124
22482SOL     OW74495  10.170   8.703   1.078 -0.1298  0.1258  0.4255
22482SOL    HW174496  10.130   8.705   0.991  0.5301  0.6838  0.1197
22482SOL    HW274497  10.135   8.624   1.119  0.8079 -1.0638 -0.9567
22483SOL     OW74498   5.884   4.524   5.977  0.3161  0.7338  0.1015
22483SOL    HW174499   5.829   4.457   6.018 -0.2685  1.6642  0.8798
22483SOL    HW274500   5.948   4.548   6.043 -0.8151  2.4518  0.6572
22484SOL     OW74501   4.530  12.548  10.201 -0.0771 -0.3633 -0.1384
22484SOL    HW174502   4.613  12.580  10.165 -0.3188  1.0408  0.4469
22484SOL    HW274503   4.531  12.579  10.292 -0.7203 -1.3665  0.2241
22485SOL     OW74504   9.022   9.110   3.053 -0.0974  0.4722  0.1650
22485SOL    HW174505   8.979   9.045   2.997  1.8690 -1.5196  0.7902
22485SOL    HW274506   8.952   9.146   3.107 -1.1699 -1.8014  0.4051
22486SOL     OW74507   9.479   4.804   8.116 -0.0196  0.1369 -0.1458
22486SOL    HW174508   9.481   4.717   8.075  1.4749  0.7667 -1.5342
22486SOL    HW274509   9.531   4.794   8.195 -0.2152 -0.3379 -0.0753
22487SOL     OW74510   5.894   8.559   4.601 -0.2277 -0.1614  0.1741
22487SOL    HW174511   5.976   8.528   4.639 -0.2262 -0.3749  0.0038
22487SOL    HW274512   5.920   8.619   4.532 -0.2159 -0.1394  0.1981
22488SOL     OW74513   9.494  11.369   3.052  0.1369  0.3058 -0.1954
22488SOL    HW174514   9.438  11.293   3.039 -0.0445  0.5472 -0.8752
22488SOL    HW274515   9.551  11.345   3.124  0.2829 -0.5869 -0.6045
22489SOL     OW74516   2.480   0.828   5.449 -0.2683 -0.1562  0.8554
22489SOL    HW174517   2.401   0.834   5.395 -0.1943 -0.6954  0.6879
22489SOL    HW274518   2.552   0.836   5.387 -0.1802  0.9272  1.0716
22490SOL     OW74519  10.039   4.208  10.444  1.0129 -0.0300  0.2881
22490SOL    HW174520   9.997   4.246  10.367  0.3449 -0.7412  0.2927
22490SOL    HW274521  10.044   4.114  10.426  0.1408 -0.3196  1.4113
22491SOL     OW74522   4.909   0.031  10.417 -0.0352  0.2963 -0.3406
22491SOL    HW174523   4.995  -0.009  10.405 -1.6532 -3.0604 -2.0537
22491SOL    HW274524   4.885   0.012  10.508 -0.1333 -1.4267 -0.7043
22492SOL     OW74525   2.640  12.077  11.414  0.4770 -0.3048  0.3786
22492SOL    HW174526   2.596  12.039  11.491 -1.6749  0.6118 -0.3555
22492SOL    HW274527   2.636  12.171  11.428  0.1891 -0.1335 -0.7779
22493SOL     OW74528  12.012  11.303  11.464 -0.3702 -0.2210  0.0884
22493SOL    HW174529  12.011  11.230  11.402 -0.3024  0.1508 -0.3553
22493SOL    HW274530  12.105  11.313  11.487 -0.3193  0.0107 -0.2008
22494SOL     OW74531   9.813  11.522   3.356 -0.5822  0.2992  0.0660
22494SOL    HW174532   9.813  11.521   3.452 -2.9802  1.7446  0.1634
22494SOL    HW274533   9.778  11.436   3.331  0.4366 -0.2441  0.4365
22495SOL     OW74534   1.028   4.945   9.801  0.2821 -0.0422 -0.3633
22495SOL    HW174535   1.045   5.039   9.798 -0.7481  0.1786  0.1736
22495SOL    HW274536   1.113   4.904   9.784  0.2304  0.9578 -3.7223
22496SOL     OW74537   8.290   4.165   4.945 -0.0241 -0.0650  0.2024
22496SOL    HW174538   8.241   4.107   5.003 -2.5983  0.2146 -1.4951
22496SOL    HW274539   8.290   4.119   4.861 -0.2691  1.4443 -0.6457
22497SOL     OW74540  12.372   8.777  11.903  0.3584 -0.0665 -0.5891
22497SOL    HW174541  12.301   8.718  11.929  1.0681 -0.5060  0.4334
22497SOL    HW274542  12.331   8.841  11.846 -1.4866  1.3423  2.1169
22498SOL     OW74543   1.877   2.632   1.080 -0.2069 -0.0081 -0.2328
22498SOL    HW174544   1.842   2.595   1.161 -0.2714 -1.3863 -0.8538
22498SOL    HW274545   1.852   2.569   1.012  0.5490  0.7030 -1.2071
22499SOL     OW74546   2.114   6.617  11.017  0.5476  0.2421 -0.2013
22499SOL    HW174547   2.185   6.631  11.080  0.2203 -1.5067  0.6218
22499SOL    HW274548   2.110   6.522  11.007  0.5496  0.4609 -2.8557
22500SOL     OW74549   5.534   9.106   3.837  0.1795  0.3700 -0.1338
22500SOL    HW174550   5.507   9.184   3.886 -0.6294  0.1234 -0.1701
22500SOL    HW274551   5.536   9.135   3.746  0.5221  0.5160 -0.0830
22501SOL     OW74552   7.894   6.253   0.288  0.4876  0.0978  0.0292
22501SOL    HW174553   7.857   6.183   0.234  0.3954  0.5841 -0.5437
22501SOL    HW274554   7.900   6.329   0.230 -1.0677  1.1005  1.1005
22502SOL     OW74555   6.755  11.090   9.651  0.0269 -0.3354 -0.2905
22502SOL    HW174556   6.660  11.094   9.667  0.1078  0.2692  0.0296
22502SOL    HW274557   6.793  11.069   9.736  0.1910 -0.5487 -0.4133
22503SOL     OW74558   5.904  11.373   7.392  0.4419  0.7043  0.1023
22503SOL    HW174559   5.948  11.448   7.432  1.4006  0.3383 -0.2491
22503SOL    HW274560   5.849  11.338   7.462  0.8554  1.0495  0.6086
22504SOL     OW74561   0.387   2.735   8.452 -0.8386 -0.4561 -0.2664
22504SOL    HW174562   0.433   2.657   8.483 -0.0538 -0.3659 -1.1698
22504SOL    HW274563   0.302   2.702   8.421  0.2264 -1.3192 -2.5019
22505SOL     OW74564   6.463   2.976  10.105  0.2221  0.2435 -0.2673
22505SOL    HW174565   6.508   3.057  10.132 -0.3543  0.9063 -1.2157
22505SOL    HW274566   6.500   2.908  10.160 -1.5132  1.6308  2.8390
22506SOL     OW74567   8.754   5.605   5.655 -0.1619 -0.3205  0.0202
22506SOL    HW174568   8.770   5.644   5.569  0.2023 -1.5410 -0.4866
22506SOL    HW274569   8.841   5.582   5.688 -0.3742 -0.9064  0.1958
22507SOL     OW74570   5.737   5.400   3.524  1.1390 -0.3485  0.8142
22507SOL    HW174571   5.685   5.457   3.580 -1.8220 -1.1238 -0.9468
22507SOL    HW274572   5.778   5.459   3.461  0.0332  0.0945  0.4807
22508SOL     OW74573   6.220   9.075   6.201  0.0191  0.3184  0.2640
22508SOL    HW174574   6.286   9.008   6.222 -0.8337 -0.4892  0.4034
22508SOL    HW274575   6.272   9.152   6.176  1.0163 -0.4640 -0.1538
22509SOL     OW74576  11.782   7.254   8.737 -0.0241  0.0422  0.0753
22509SOL    HW174577  11.750   7.228   8.651 -1.5875  2.5398 -0.1995
22509SOL    HW274578  11.705   7.287   8.783  0.8638 -0.7066  2.2730
22510SOL     OW74579   6.569   0.347   7.593 -0.2465  0.3937  0.0927
22510SOL    HW174580   6.611   0.402   7.659 -2.1907  1.2034  0.7426
22510SOL    HW274581   6.620   0.360   7.514  2.6775 -1.2316  1.5524
22511SOL     OW74582   1.283   9.568   7.053 -0.0561  0.1043 -0.0626
22511SOL    HW174583   1.248   9.612   6.976 -0.1175 -0.7983 -0.5496
22511SOL    HW274584   1.245   9.617   7.127  0.0317  0.9918 -0.5846
22512SOL     OW74585   2.082   2.330   1.036 -0.4350  0.1196 -0.0334
22512SOL    HW174586   2.011   2.384   1.001 -0.3394  0.4181  0.2257
22512SOL    HW274587   2.133   2.390   1.089 -0.0687 -0.1294 -0.1038
22513SOL     OW74588   4.286   0.446   5.140  0.3346  0.0083  0.4940
22513SOL    HW174589   4.286   0.412   5.050  0.9357 -0.4909  0.6776
22513SOL    HW274590   4.358   0.509   5.142  0.2836  0.0643  0.6151
22514SOL     OW74591   8.081   5.865  10.755 -0.4270 -0.0785 -0.1281
22514SOL    HW174592   8.049   5.882  10.844 -1.6124 -0.0492 -0.5451
22514SOL    HW274593   8.173   5.891  10.758 -0.7937  1.2541  0.7235
22515SOL     OW74594   6.531   1.298   2.100  0.0100 -0.4174 -0.2813
22515SOL    HW174595   6.585   1.224   2.071 -1.2874 -1.1810 -0.8420
22515SOL    HW274596   6.488   1.329   2.020  0.8768  1.2604 -0.1309
22516SOL     OW74597   4.084   2.613   8.925 -0.1524  0.2486 -0.2735
22516SOL    HW174598   4.162   2.588   8.975 -0.4349  0.3710  0.2367
22516SOL    HW274599   4.084   2.708   8.926 -0.4551  0.2471 -0.0398
22517SOL     OW74600  10.942   4.523   5.958 -0.0211  0.2512 -0.3804
22517SOL    HW174601  10.995   4.478   6.023  1.3734  1.0250 -0.9378
22517SOL    HW274602  10.974   4.492   5.874 -1.6125 -0.5251 -0.7396
22518SOL     OW74603   3.233   1.349   1.047  0.6295  0.1717  0.0048
22518SOL    HW174604   3.256   1.306   0.965 -0.6837  1.0115 -0.8353
22518SOL    HW274605   3.160   1.297   1.082  0.6538  0.2848  0.2297
22519SOL     OW74606  12.014  11.992   0.790  0.0347  0.0338 -0.1588
22519SOL    HW174607  11.961  12.071   0.799 -1.1303 -0.5069 -1.8758
22519SOL    HW274608  12.094  12.022   0.747  0.1420  0.4712  0.3383
22520SOL     OW74609  10.604   1.274   2.095 -0.1423  0.3143 -0.4642
22520SOL    HW174610  10.612   1.362   2.131  1.3106 -0.5323  1.4267
22520SOL    HW274611  10.587   1.288   2.001  1.5958  2.5982 -0.5221
22521SOL     OW74612   4.727   6.515   1.312 -0.1101  0.3331  0.5317
22521SOL    HW174613   4.762   6.566   1.239  0.4646  2.9598  2.4913
22521SOL    HW274614   4.632   6.530   1.308 -0.2374 -0.6446 -0.4229
22522SOL     OW74615   0.678   7.342   0.479 -0.6286 -0.0763  0.0278
22522SOL    HW174616   0.710   7.296   0.556 -1.2547 -0.6868 -0.0672
22522SOL    HW274617   0.757   7.373   0.434 -0.2404 -0.2350  0.5934
22523SOL     OW74618   5.158   1.835   6.469  0.1514  0.0717  0.5004
22523SOL    HW174619   5.214   1.912   6.476  0.5206 -0.2299  0.9195
22523SOL    HW274620   5.193   1.786   6.394  1.1325 -0.6508  1.4007
22524SOL     OW74621   7.728   4.286   1.251 -0.1336 -0.4412 -0.0350
22524SOL    HW174622   7.680   4.368   1.264 -0.1181 -0.5489  0.7525
22524SOL    HW274623   7.761   4.263   1.338  2.0186  0.0406 -0.6559
22525SOL     OW74624   8.975   5.904   9.438 -0.7334 -0.1266 -0.9606
22525SOL    HW174625   8.915   5.833   9.462 -1.7568  1.0631  0.0992
22525SOL    HW274626   9.040   5.905   9.507 -1.8281  1.1839  0.1054
22526SOL     OW74627   1.483   7.665  10.834  0.0210  0.5544  0.2077
22526SOL    HW174628   1.553   7.725  10.808  0.7632  0.6251  2.1748
22526SOL    HW274629   1.528   7.588  10.867 -0.8779 -0.0905 -0.0339
22527SOL     OW74630   5.331   1.130   0.348 -0.2307 -0.2308 -0.4942
22527SOL    HW174631   5.304   1.095   0.263 -0.2540 -0.5616 -0.3546
22527SOL    HW274632   5.402   1.191   0.328 -0.9468  0.5042 -0.8487
22528SOL     OW74633   7.044   9.918  10.655 -0.6883 -0.2840 -0.6547
22528SOL    HW174634   7.024   9.982  10.723 -1.2177  0.2888 -1.3330
22528SOL    HW274635   7.049   9.834  10.701 -0.6943  0.1453  0.1322
22529SOL     OW74636   0.540   9.641   0.844 -0.4367 -0.0319  0.1251
22529SOL    HW174637   0.603   9.649   0.772 -0.7048  0.0730 -0.1008
22529SOL    HW274638   0.456   9.666   0.805 -0.4727  0.6904  0.6484
22530SOL     OW74639   1.675   3.867  11.590  1.0090  0.2887  0.2666
22530SOL    HW174640   1.691   3.879  11.684 -1.6904 -0.8081  0.9570
22530SOL    HW274641   1.707   3.948  11.550  2.1432  0.8182  2.1159
22531SOL     OW74642   4.485   4.927  11.365 -0.5428  0.5077 -0.0887
22531SOL    HW174643   4.393   4.923  11.392 -1.0122  1.4267 -1.4084
22531SOL    HW274644   4.518   4.839  11.379 -2.3354 -0.5215 -1.8319
22532SOL     OW74645   2.401  12.522   9.775 -0.0726 -0.8114  0.3074
22532SOL    HW174646   2.475  12.558   9.823  0.8491 -2.2218  0.0073
22532SOL    HW274647   2.429  12.433   9.752 -2.0118 -1.5236  0.5406
22533SOL     OW74648  11.344   1.626  12.435  0.4967  0.3168  0.5323
22533SOL    HW174649  11.250   1.612  12.420  0.8337 -1.3772 -0.2370
22533SOL    HW274650  11.375   1.667  12.355  0.5699  0.0380  0.4160
22534SOL     OW74651  11.143   6.540   3.679  0.0305 -0.2576  0.0511
22534SOL    HW174652  11.095   6.474   3.729 -1.8723 -0.0490 -1.3853
22534SOL    HW274653  11.091   6.620   3.689  0.5462  0.2076 -0.8457
22535SOL     OW74654   7.383   2.771  10.739 -0.0898 -0.5110 -0.5378
22535SOL    HW174655   7.303   2.721  10.722 -1.6314  1.1077  1.4951
22535SOL    HW274656   7.352   2.859  10.760  2.2383  0.1879  0.2395
22536SOL     OW74657   5.531  11.384  11.450  0.5061  0.2142  0.0544
22536SOL    HW174658   5.520  11.299  11.494 -0.3290  0.5130  0.4341
22536SOL    HW274659   5.620  11.381  11.416  1.2292  0.0068  1.8483
22537SOL     OW74660  12.037   6.633  12.278  0.5977  0.2136  0.2483
22537SOL    HW174661  11.949   6.595  12.283  0.7915 -0.3189 -0.2974
22537SOL    HW274662  12.074   6.618  12.365  0.1727  0.3856  0.4611
22538SOL     OW74663   1.010   6.937   8.508  0.3935 -0.6468  0.1713
22538SOL    HW174664   1.103   6.942   8.527  0.2874 -2.0595  1.2603
22538SOL    HW274665   1.005   6.938   8.412  1.3313  1.5746  0.0816
22539SOL     OW74666   3.131   0.080   2.369 -0.3503  0.2136 -0.1424
22539SOL    HW174667   3.149   0.098   2.462 -1.3289  0.4437  0.0068
22539SOL    HW274668   3.186   0.004   2.349  2.1844  1.9223 -0.1896
22540SOL     OW74669   0.524  11.530   2.453  0.6607 -0.3708  0.2754
22540SOL    HW174670   0.489  11.552   2.367 -1.8433  0.1130  1.2930
22540SOL    HW274671   0.606  11.578   2.459 -0.6819  2.2689 -0.6720
22541SOL     OW74672  12.138  11.694   3.695  0.3125 -0.3286  0.4551
22541SOL    HW174673  12.201  11.760   3.668 -0.5993 -0.3603 -1.9319
22541SOL    HW274674  12.091  11.670   3.615 -2.1960 -0.8800  1.9615
22542SOL     OW74675   3.203   8.927   5.494 -0.3539 -0.2636 -0.2316
22542SOL    HW174676   3.132   8.877   5.453 -0.6298  0.2841 -0.4371
22542SOL    HW274677   3.283   8.891   5.455 -0.5831 -0.1669 -0.8109
22543SOL     OW74678   5.250   8.165   9.605 -0.0884  0.1658 -0.2141
22543SOL    HW174679   5.243   8.219   9.684  1.2693 -0.0439  0.0723
22543SOL    HW274680   5.160   8.154   9.575 -0.4145  2.9004 -0.4947
22544SOL     OW74681   8.986   3.284   3.330  0.4894 -0.6485 -0.6311
22544SOL    HW174682   8.916   3.312   3.271 -0.4201 -1.3067  0.1056
22544SOL    HW274683   9.018   3.365   3.370 -3.8113 -0.4948  3.3958
22545SOL     OW74684   1.827   4.504   5.125  0.5291  0.3716 -0.2094
22545SOL    HW174685   1.751   4.458   5.163  2.1999 -0.4565  2.4061
22545SOL    HW274686   1.824   4.481   5.032 -2.3550  0.3243 -0.2132
22546SOL     OW74687   6.040  12.113   4.600  0.5164  0.0039 -0.0103
22546SOL    HW174688   6.083  12.116   4.515  0.2596 -0.9268 -0.1878
22546SOL    HW274689   6.039  12.020   4.623  1.1436  0.2944  1.3036
22547SOL     OW74690  10.099   8.458   8.071 -0.5750  0.9481  0.4078
22547SOL    HW174691  10.168   8.521   8.053  0.4250  0.8625  3.2926
22547SOL    HW274692  10.106   8.442   8.165 -3.1337 -0.7501  0.4126
22548SOL     OW74693   7.303  10.190   8.726  0.1538  0.2696 -0.0030
22548SOL    HW174694   7.387  10.153   8.755 -0.3189 -0.3811  0.5610
22548SOL    HW274695   7.261  10.220   8.807  0.4132  1.8420 -0.4136
22549SOL     OW74696   0.445   5.964   8.574 -0.0691  0.1463  0.3064
22549SOL    HW174697   0.371   5.911   8.546  0.1793 -0.5902  1.0056
22549SOL    HW274698   0.431   6.049   8.531 -0.1970 -0.6214 -1.2348
22550SOL     OW74699  11.835   7.839   9.194 -0.0637  0.0556  0.5654
22550SOL    HW174700  11.775   7.900   9.152  1.0076  0.5754 -0.2733
22550SOL    HW274701  11.781   7.789   9.255 -1.5575 -0.2392 -0.9429
22551SOL     OW74702   7.593  11.018   7.072  0.3136  0.1028 -0.0989
22551SOL    HW174703   7.620  11.109   7.084 -0.5903  0.3009  0.4835
22551SOL    HW274704   7.531  11.001   7.142  1.2115 -1.2871  0.4140
22552SOL     OW74705   2.227   9.298   5.400 -0.4732  0.5692 -0.1007
22552SOL    HW174706   2.233   9.317   5.493  1.7485  1.4143 -0.3369
22552SOL    HW274707   2.212   9.384   5.359 -0.7255  0.3071 -0.5622
22553SOL     OW74708   9.663   2.759   1.279 -0.1686  0.1491 -0.4937
22553SOL    HW174709   9.743   2.795   1.241  0.4364 -0.6294  0.0173
22553SOL    HW274710   9.600   2.759   1.207  0.4281  0.3563 -1.0214
22554SOL     OW74711   0.739  10.858   4.455 -0.4095  0.3865  0.1553
22554SOL    HW174712   0.772  10.944   4.480 -2.0830  1.6555 -1.7011
22554SOL    HW274713   0.772  10.799   4.523 -1.4100  2.8826  3.0677
22555SOL     OW74714   9.310  10.073  11.625  0.6215 -0.0371 -0.2542
22555SOL    HW174715   9.307  10.136  11.553  0.4846 -0.0024 -0.2163
22555SOL    HW274716   9.262  10.114  11.696  2.3332  0.7363  0.4989
22556SOL     OW74717  12.419   4.376   2.556 -0.0554 -0.4712 -0.3515
22556SOL    HW174718  12.331   4.410   2.575  0.6092  1.4241 -0.4011
22556SOL    HW274719  12.468   4.453   2.527  1.0315 -1.8746 -2.5339
22557SOL     OW74720   4.079  10.364   9.275 -0.0098 -0.1437  0.5923
22557SOL    HW174721   4.016  10.413   9.327 -0.0306 -1.6084  2.0410
22557SOL    HW274722   4.164  10.399   9.300 -0.1441  0.8468 -0.2829
22558SOL     OW74723   7.262   9.451   2.195 -0.0784 -0.0595 -0.4714
22558SOL    HW174724   7.171   9.432   2.173  0.0903 -0.4633 -0.8263
22558SOL    HW274725   7.272   9.545   2.177 -0.2753 -0.1299 -0.9661
22559SOL     OW74726  11.331   7.329   2.551 -0.0515 -0.2376  0.0087
22559SOL    HW174727  11.350   7.255   2.494  0.1771 -0.8148  0.8233
22559SOL    HW274728  11.415   7.375   2.560  0.1410 -0.7047  0.6591
22560SOL     OW74729   0.380   6.260   9.492  0.3989  0.2915  0.2629
22560SOL    HW174730   0.313   6.204   9.452  0.3096  0.4667  0.1685
22560SOL    HW274731   0.332   6.323   9.545  0.4301  1.0022 -0.5358
22561SOL     OW74732   0.418   1.320   2.581 -0.1847  0.4509 -0.3282
22561SOL    HW174733   0.432   1.262   2.656  0.2241  0.6670 -0.2352
22561SOL    HW274734   0.338   1.368   2.603 -0.3744  0.1221 -0.2827
22562SOL     OW74735   0.719  12.395   9.909  0.2405  0.2149 -0.4846
22562SOL    HW174736   0.787  12.357   9.964  0.0520  1.0081  0.3253
22562SOL    HW274737   0.764  12.417   9.828  0.3950 -1.4907 -0.8891
22563SOL     OW74738  11.061   6.193   1.899  0.1228 -0.2463  0.5584
22563SOL    HW174739  10.991   6.258   1.889  0.1564 -0.1288  1.0596
22563SOL    HW274740  11.139   6.245   1.917  0.4513 -0.3466 -0.4800
22564SOL     OW74741   2.234   3.135   4.097  0.0100 -0.0413 -0.1413
22564SOL    HW174742   2.232   3.041   4.083  0.6231 -0.3567  1.6237
22564SOL    HW274743   2.323   3.153   4.129 -0.6722  0.8269  1.3532
22565SOL     OW74744   5.734   3.221  11.202  0.1816 -0.6586 -0.3442
22565SOL    HW174745   5.693   3.173  11.274  1.6015 -0.2348  0.8013
22565SOL    HW274746   5.670   3.218  11.131 -1.0746 -1.4844  0.7802
22566SOL     OW74747   5.714  12.234   7.521  0.2455 -0.2404  0.1047
22566SOL    HW174748   5.779  12.227   7.590  0.9805 -0.0201 -0.5562
22566SOL    HW274749   5.764  12.254   7.442 -0.5429 -0.8021 -0.5609
22567SOL     OW74750   2.284  11.700  11.462 -0.2851  0.2028  0.2423
22567SOL    HW174751   2.229  11.758  11.515  0.0251  1.7926 -1.1355
22567SOL    HW274752   2.331  11.757  11.403  0.0251 -1.4550 -1.2020
22568SOL     OW74753   1.462  10.036   9.624 -0.5743  0.5030 -0.0301
22568SOL    HW174754   1.524  10.015   9.555  0.0388  0.8578  0.3985
22568SOL    HW274755   1.510  10.098   9.681 -1.1165  0.3427  0.6110
22569SOL     OW74756   0.022   5.605   5.948  0.0620  0.4525 -0.5292
22569SOL    HW174757   0.061   5.676   5.897  1.8378  0.1759  0.3435
22569SOL    HW274758  -0.064   5.591   5.909  0.6209  1.4915 -2.2353
22570SOL     OW74759   2.135   4.245   9.456 -0.1108  0.2270 -0.2498
22570SOL    HW174760   2.069   4.221   9.522  0.0433  1.9318  0.5896
22570SOL    HW274761   2.158   4.336   9.478  0.8147  0.4345 -1.9584
22571SOL     OW74762   1.073   7.955   9.305  1.0407  0.1631 -0.5894
22571SOL    HW174763   1.102   8.023   9.366  0.0185  0.9966 -1.0204
22571SOL    HW274764   1.005   7.996   9.252  0.6941 -1.0674 -1.1454
22572SOL     OW74765   4.420   8.029   8.436  0.6792 -0.8704 -0.2037
22572SOL    HW174766   4.325   8.024   8.448  0.5856  0.3172 -0.3401
22572SOL    HW274767   4.431   8.074   8.352  1.3605  0.3488  0.5245
22573SOL     OW74768   0.106   2.540   3.835  0.2448 -0.0090 -0.0351
22573SOL    HW174769   0.124   2.494   3.754  0.2926  1.9038 -1.1746
22573SOL    HW274770   0.012   2.528   3.850  0.3006 -0.6491 -0.1803
22574SOL     OW74771   1.557   2.299   9.053  0.5183  0.7628  0.1069
22574SOL    HW174772   1.624   2.258   9.107  0.4179  2.3044  1.5054
22574SOL    HW274773   1.474   2.268   9.090  0.3613 -1.3702 -1.7984
22575SOL     OW74774   8.369   9.748   4.929 -1.1132 -0.1195 -0.7930
22575SOL    HW174775   8.433   9.816   4.911  0.6221 -1.4125  0.2528
22575SOL    HW274776   8.288   9.796   4.946 -0.0011  1.6664 -0.2973
22576SOL     OW74777   2.904  10.124   7.303 -0.2257 -0.3116  0.4034
22576SOL    HW174778   2.917  10.209   7.262  1.3060 -0.0751  1.3299
22576SOL    HW274779   2.948  10.062   7.245 -0.5862 -0.3735  0.1894
22577SOL     OW74780   8.119   1.699  11.015 -0.4513  0.1084 -0.2827
22577SOL    HW174781   8.186   1.637  11.043  0.1817  0.4226 -1.0682
22577SOL    HW274782   8.168   1.773  10.979 -1.1533 -0.8468 -3.5032
22578SOL     OW74783   1.310   7.279   6.417  0.1829 -0.4964 -0.5217
22578SOL    HW174784   1.394   7.233   6.411  0.1953 -0.2734 -2.6153
22578SOL    HW274785   1.334   7.371   6.426  0.1437 -0.5492  0.2026
22579SOL     OW74786  12.422   1.415   9.546  0.3971 -0.6797 -0.1961
22579SOL    HW174787  12.493   1.359   9.579 -0.4473 -2.1313 -0.7668
22579SOL    HW274788  12.345   1.390   9.597  0.4748  1.7856  1.3221
22580SOL     OW74789   0.379  10.527   6.690 -0.2886 -0.4029 -0.1611
22580SOL    HW174790   0.375  10.487   6.603 -0.7653 -0.8553  0.0644
22580SOL    HW274791   0.410  10.457   6.747  0.8415  0.1256 -0.0976
22581SOL     OW74792   7.385   1.835   0.385  0.0813 -0.0962 -0.0032
22581SOL    HW174793   7.432   1.766   0.432 -1.1856 -0.2082  1.1876
22581SOL    HW274794   7.437   1.851   0.307 -0.8615 -4.2215 -1.7226
22582SOL     OW74795   8.774   3.207   7.954  0.3161  1.0174 -0.6252
22582SOL    HW174796   8.757   3.133   7.896 -1.0218  0.2483  0.6597
22582SOL    HW274797   8.868   3.207   7.967  0.3807 -0.1720 -1.0191
22583SOL     OW74798   7.398  12.451   5.576 -0.3286  0.1677  0.1189
22583SOL    HW174799   7.466  12.489   5.520 -0.0785 -0.6716 -0.1689
22583SOL    HW274800   7.328  12.428   5.515 -0.5275  0.2807  0.3064
22584SOL     OW74801   9.304   9.801   6.867  0.0549  0.0161 -0.1942
22584SOL    HW174802   9.272   9.712   6.850 -0.8517  0.3575 -0.3462
22584SOL    HW274803   9.396   9.790   6.891 -0.4447 -1.0983  1.2981
22585SOL     OW74804   4.112  12.567   5.815  0.3409  0.5106 -0.0529
22585SOL    HW174805   4.032  12.553   5.865  0.0836 -0.7501 -0.7665
22585SOL    HW274806   4.105  12.657   5.782  0.0324  0.9950  1.2642
22586SOL     OW74807   7.463   4.844   2.904  0.3189  0.4411  0.3993
22586SOL    HW174808   7.454   4.909   2.973 -2.0689 -0.3942  0.9769
22586SOL    HW274809   7.432   4.889   2.825  1.1179  0.7637  0.2572
22587SOL     OW74810   4.654   8.522  11.812  0.4954 -0.1571  0.6591
22587SOL    HW174811   4.629   8.605  11.772  1.4477  0.1085  0.5929
22587SOL    HW274812   4.640   8.535  11.906 -1.0388 -0.5322  0.5048
22588SOL     OW74813   9.841   1.456   2.644 -0.0928 -0.3078  0.1622
22588SOL    HW174814   9.906   1.493   2.585  1.8413 -3.6221 -0.0568
22588SOL    HW274815   9.829   1.523   2.712  1.7528  1.3882 -1.0677
22589SOL     OW74816   2.856  11.151  11.122 -0.2216 -0.1595  0.1221
22589SOL    HW174817   2.779  11.202  11.145  0.0444 -0.5306  2.0303
22589SOL    HW274818   2.823  11.062  11.109 -0.3405  0.0090 -0.7978
22590SOL     OW74819  10.589  10.477  11.379 -0.1991 -0.1299  0.2355
22590SOL    HW174820  10.682  10.457  11.384 -0.1115 -0.0883 -1.0067
22590SOL    HW274821  10.573  10.536  11.453  0.7443 -0.1536  0.4657
22591SOL     OW74822   4.306   8.332   6.575  0.0403  0.2128 -0.3242
22591SOL    HW174823   4.230   8.388   6.560 -0.7867 -0.8085 -0.0426
22591SOL    HW274824   4.298   8.263   6.510 -0.3061 -0.9405  0.9162
22592SOL     OW74825   4.687   5.690   0.157  0.0295 -0.5433  0.5682
22592SOL    HW174826   4.646   5.757   0.103 -2.9001 -1.7172  1.1393
22592SOL    HW274827   4.741   5.639   0.095  1.0613  1.3127 -0.1371
22593SOL     OW74828   4.021   6.316   6.014 -0.2383 -0.1474  0.4064
22593SOL    HW174829   4.044   6.235   6.061  1.1015 -0.9698 -1.4886
22593SOL    HW274830   3.970   6.285   5.939 -0.0709  0.8075 -0.1091
22594SOL     OW74831  11.547   5.083   4.165 -0.2770 -0.5268 -0.0121
22594SOL    HW174832  11.585   5.040   4.242 -0.9279  2.9123  2.4713
22594SOL    HW274833  11.621   5.124   4.121 -0.0015 -1.8699 -0.8488
22595SOL     OW74834   9.911   4.533   3.762  0.1231  0.9467 -0.2502
22595SOL    HW174835   9.969   4.487   3.822 -1.6488 -1.8973 -0.5527
22595SOL    HW274836   9.838   4.563   3.817 -0.3688  0.3721 -0.5766
22596SOL     OW74837   8.275   3.122   0.262 -0.1818  0.7093  0.6323
22596SOL    HW174838   8.308   3.183   0.328 -2.5527  1.5179  1.1670
22596SOL    HW274839   8.197   3.165   0.226  0.4548 -0.1460 -2.0383
22597SOL     OW74840   6.209  10.394   2.719 -0.0323 -0.3700 -0.1373
22597SOL    HW174841   6.175  10.426   2.635  1.3403  0.3202 -0.4516
22597SOL    HW274842   6.288  10.345   2.696  0.1499 -0.4908  0.7299
22598SOL     OW74843   7.826  10.266   2.479  0.0838 -0.5912 -0.5029
22598SOL    HW174844   7.817  10.337   2.415 -1.9384 -2.9710 -3.1326
22598SOL    HW274845   7.778  10.193   2.440  1.5368 -3.2626  2.3059
22599SOL     OW74846   6.738  10.627  11.533 -0.1451 -0.5554  0.0031
22599SOL    HW174847   6.674  10.604  11.465  0.3818  0.7836 -0.9985
22599SOL    HW274848   6.687  10.633  11.613 -0.8308 -1.9578 -0.2885
22600SOL     OW74849   0.101   0.517  12.075  0.2252 -0.1372  0.3391
22600SOL    HW174850   0.092   0.462  11.998  0.0907 -1.2823  1.1512
22600SOL    HW274851   0.183   0.489  12.116 -0.1573 -0.1814  1.0971
22601SOL     OW74852   5.181  10.116   6.227 -0.6037 -0.2180 -0.3796
22601SOL    HW174853   5.186  10.190   6.167 -0.8920  0.5424  0.5054
22601SOL    HW274854   5.145  10.044   6.174  2.7614 -0.7661 -2.1635
22602SOL     OW74855   8.371  11.044   7.113 -0.3030 -0.6000 -0.1088
22602SOL    HW174856   8.339  11.076   7.197  1.4596 -1.8524  1.0938
22602SOL    HW274857   8.403  11.122   7.068 -1.1968  0.0690  0.3810
22603SOL     OW74858   4.972  10.869   6.675 -0.3333  0.1100 -0.2731
22603SOL    HW174859   5.051  10.898   6.721  0.9156 -0.3027 -2.0401
22603SOL    HW274860   4.970  10.774   6.686 -1.6278  0.2691  1.2653
22604SOL     OW74861   9.660  10.474   8.552  0.1259 -0.2469  0.0562
22604SOL    HW174862   9.581  10.437   8.592  0.6601  0.5061  1.9318
22604SOL    HW274863   9.721  10.485   8.625  0.7059  2.4173 -0.7122
22605SOL     OW74864   4.757  12.110  11.219 -0.4151  0.3052  0.5105
22605SOL    HW174865   4.844  12.130  11.252  0.0444  0.7302 -0.8827
22605SOL    HW274866   4.771  12.075  11.131 -1.6688  1.1356 -0.0618
22606SOL     OW74867   6.383   8.260   4.830 -0.2050 -0.3296  0.3168
22606SOL    HW174868   6.292   8.230   4.823  0.2847 -1.7028 -0.4931
22606SOL    HW274869   6.397   8.312   4.751  0.1370 -1.3147 -0.2741
22607SOL     OW74870  10.154   4.270   3.791  0.0418  0.1378  0.5122
22607SOL    HW174871  10.224   4.232   3.844  1.4591  1.6725 -0.1854
22607SOL    HW274872  10.092   4.305   3.855  0.4761 -0.2144  1.1399
22608SOL     OW74873   5.969  12.564   7.229 -0.5728 -0.0040  0.2565
22608SOL    HW174874   5.947  12.548   7.137 -1.0617  1.0136  0.1722
22608SOL    HW274875   5.900  12.519   7.278 -0.1995 -0.7165  0.1379
22609SOL     OW74876   7.864   2.407   9.222 -0.0803 -0.2886 -0.0645
22609SOL    HW174877   7.910   2.491   9.217 -1.6581  0.6263  0.2583
22609SOL    HW274878   7.859   2.376   9.132  1.3831 -0.5577 -0.0829
22610SOL     OW74879   1.379   0.291   6.841 -0.0630  0.4504 -0.0898
22610SOL    HW174880   1.391   0.198   6.859  0.8565  0.4897 -0.4620
22610SOL    HW274881   1.323   0.293   6.763 -2.0788  0.2626  1.2662
22611SOL     OW74882   0.213   8.282   7.451  0.1761  0.0842  0.3776
22611SOL    HW174883   0.134   8.282   7.397 -1.0091 -0.2234  2.0099
22611SOL    HW274884   0.202   8.207   7.509  1.5318  0.2271  0.8590
22612SOL     OW74885   8.382   3.189   6.491 -0.1503  0.3248 -0.3417
22612SOL    HW174886   8.436   3.158   6.564  2.2675 -0.4863 -2.3581
22612SOL    HW274887   8.292   3.184   6.524  0.6652 -2.2007  1.7898
22613SOL     OW74888  10.449  10.393   1.402 -0.0860 -0.1269  0.9704
22613SOL    HW174889  10.393  10.317   1.384 -1.5085  1.0879  0.0329
22613SOL    HW274890  10.487  10.375   1.487 -2.9766 -0.4285  2.3252
22614SOL     OW74891   9.519   3.167  11.603 -0.3215  1.2598 -0.0703
22614SOL    HW174892   9.442   3.118  11.575  0.2012  0.4353 -0.1018
22614SOL    HW274893   9.591   3.131  11.551  0.8376 -0.8749  2.7646
22615SOL     OW74894   7.442   9.878   7.274 -0.2105 -0.0578  0.3444
22615SOL    HW174895   7.502   9.871   7.199 -1.2516  0.9024 -0.6324
22615SOL    HW274896   7.445   9.793   7.317 -0.4657 -1.0455 -1.5072
22616SOL     OW74897   9.354  11.793   5.483 -0.1542 -0.1939  0.5721
22616SOL    HW174898   9.388  11.847   5.555 -1.1362  0.3427  0.6558
22616SOL    HW274899   9.342  11.855   5.411  0.0804 -0.5864  0.1897
22617SOL     OW74900   9.571   6.463  11.167 -0.2752  0.0624 -0.2636
22617SOL    HW174901   9.552   6.372  11.144 -0.8591  0.1357 -0.0793
22617SOL    HW274902   9.656   6.459  11.211  0.1569 -0.2703 -1.0871
22618SOL     OW74903   8.804   1.059   2.600  0.8196  0.4862  0.4512
22618SOL    HW174904   8.822   1.055   2.693  1.3489 -0.4871  0.3182
22618SOL    HW274905   8.888   1.040   2.558  0.3209 -0.3487 -0.2037
22619SOL     OW74906   9.343  11.694   9.751  0.6074  0.1326  0.0886
22619SOL    HW174907   9.299  11.664   9.672  1.5597 -3.0093  0.5989
22619SOL    HW274908   9.392  11.618   9.781  0.9051  1.4227  3.2806
22620SOL     OW74909  10.337   6.734   5.580 -0.1496  0.1724 -0.1933
22620SOL    HW174910  10.312   6.826   5.582  0.3765  0.3050  0.5969
22620SOL    HW274911  10.416   6.729   5.633 -0.3480 -0.7895  0.0351
22621SOL     OW74912   8.715   4.022   4.809  0.1654  0.6560  0.0399
22621SOL    HW174913   8.638   4.073   4.834 -0.6838  0.5145 -2.0710
22621SOL    HW274914   8.681   3.935   4.787  1.2720 -0.1277  1.3105
22622SOL     OW74915   3.122  12.433   6.114  0.1913 -0.1207 -0.3665
22622SOL    HW174916   3.161  12.519   6.099  0.1946  0.0207  0.3854
22622SOL    HW274917   3.046  12.431   6.056 -1.7958  1.7860  1.9246
22623SOL     OW74918  12.322   2.024   1.785 -0.7526 -0.0679 -0.4400
22623SOL    HW174919  12.355   1.934   1.782  1.0174  0.5381 -2.7357
22623SOL    HW274920  12.343   2.055   1.873  1.5337 -0.9593 -0.5884
22624SOL     OW74921   4.739   5.777   9.999  0.7403  0.2025 -0.1208
22624SOL    HW174922   4.681   5.836  10.047  0.2108  0.6664 -1.2677
22624SOL    HW274923   4.828   5.808  10.019  0.4905  0.9490 -0.1495
22625SOL     OW74924   9.546   5.289   7.022  0.2826  0.1133  0.0794
22625SOL    HW174925   9.498   5.211   6.997  0.4961 -0.2732  0.8332
22625SOL    HW274926   9.479   5.352   7.047  0.0847  0.3929 -1.1013
22626SOL     OW74927   3.863  10.463  11.800 -0.5208  0.3983  0.2108
22626SOL    HW174928   3.846  10.407  11.876  2.5886 -0.2317  0.5799
22626SOL    HW274929   3.882  10.549  11.838 -0.7739  0.5604 -0.0238
22627SOL     OW74930   1.749   5.257   5.672 -0.1757 -0.2582 -0.0215
22627SOL    HW174931   1.780   5.344   5.698  1.3974 -0.8862  0.3464
22627SOL    HW274932   1.786   5.243   5.585 -0.7326 -0.4195 -0.2359
22628SOL     OW74933   9.072   1.730  11.350  0.2399 -0.1698  0.0388
22628SOL    HW174934   8.977   1.730  11.359 -0.0420  1.5207 -2.0951
22628SOL    HW274935   9.091   1.664  11.283  0.4951 -0.0332 -0.0263
22629SOL     OW74936   5.849   9.727   1.158  0.2410  0.8448  0.0584
22629SOL    HW174937   5.844   9.665   1.085  1.3245  1.0032 -0.1652
22629SOL    HW274938   5.796   9.802   1.130 -2.2382 -0.4803  0.8919
22630SOL     OW74939  12.491   5.504   9.531 -0.0537 -0.1508 -0.5605
22630SOL    HW174940  12.494   5.445   9.607 -1.2549  1.9239  1.2144
22630SOL    HW274941  12.583   5.524   9.514  0.2031  0.5248  1.3680
22631SOL     OW74942   5.256  11.936   6.795  0.7038  0.0985 -0.0225
22631SOL    HW174943   5.224  12.026   6.805  0.4425  0.4277 -2.9923
22631SOL    HW274944   5.308  11.938   6.715  1.0889 -2.3078  0.0955
22632SOL     OW74945   9.462   0.704  10.952 -0.0037  0.1677 -0.2420
22632SOL    HW174946   9.401   0.687  11.024  0.7499 -0.0242  0.3715
22632SOL    HW274947   9.411   0.688  10.873 -0.8859  0.5138  0.2436
22633SOL     OW74948   0.073   0.064  12.241 -0.5610  0.3534  0.0479
22633SOL    HW174949   0.102   0.150  12.212  0.7189 -0.3190 -0.7986
22633SOL    HW274950  -0.015   0.055  12.205  0.1150  0.4740 -1.7325
22634SOL     OW74951  12.512   4.991   5.733 -0.0318  0.6167 -0.5717
22634SOL    HW174952  12.579   4.923   5.730  1.9395  2.4791 -1.7035
22634SOL    HW274953  12.430   4.943   5.738  1.3203 -1.7863  0.7157
22635SOL     OW74954   5.987  11.831   4.013 -0.5149 -0.1976  0.0082
22635SOL    HW174955   5.901  11.787   4.015 -0.5534 -0.2782 -1.7098
22635SOL    HW274956   5.979  11.901   4.077 -1.0187 -1.6560  1.6281
22636SOL     OW74957   1.809   4.925   2.416  0.0838  0.3545  0.6045
22636SOL    HW174958   1.776   4.852   2.468  0.8242 -1.1383 -0.9114
22636SOL    HW274959   1.903   4.926   2.432  0.2453  0.2032 -0.3009
22637SOL     OW74960   2.109   0.869   0.791 -0.4377  0.3311 -0.3053
22637SOL    HW174961   2.058   0.947   0.767 -1.3603  0.0065  0.5601
22637SOL    HW274962   2.054   0.822   0.853  0.3644 -0.7197 -0.3610
22638SOL     OW74963  12.482   2.420  11.221 -0.5509  0.3400 -0.4912
22638SOL    HW174964  12.462   2.328  11.239 -0.7044  0.4661 -0.0011
22638SOL    HW274965  12.401   2.455  11.184 -1.6074  1.0675  2.2935
22639SOL     OW74966   9.052   8.695   9.609  0.2836 -0.0249  0.2814
22639SOL    HW174967   8.981   8.695   9.674 -2.3531 -0.2926 -2.3334
22639SOL    HW274968   9.099   8.614   9.625 -0.3549 -0.1382  1.7554
22640SOL     OW74969   0.355   1.307   9.946 -0.7706  0.5006  0.6477
22640SOL    HW174970   0.366   1.214   9.968  0.2462  0.4878  0.1278
22640SOL    HW274971   0.261   1.321   9.948 -0.9650 -0.6658  0.2447
22641SOL     OW74972   9.282   4.140   7.844  0.2389 -0.0565 -0.2536
22641SOL    HW174973   9.230   4.191   7.906  0.8638  0.3575 -0.0563
22641SOL    HW274974   9.373   4.161   7.866  0.4748  0.8907 -1.9691
22642SOL     OW74975  11.110   3.074   1.120  0.0661 -0.3314  0.0808
22642SOL    HW174976  11.036   3.119   1.161 -0.9088 -0.9160 -0.9757
22642SOL    HW274977  11.166   3.048   1.193 -0.6067  0.4176  0.8750
22643SOL     OW74978   6.275   6.682   2.123  0.2585 -0.4899 -0.5936
22643SOL    HW174979   6.322   6.599   2.124 -0.1751 -0.7438  0.6231
22643SOL    HW274980   6.336   6.744   2.083  2.8192 -0.1822  3.2336
22644SOL     OW74981   0.178  11.775   6.008  0.4659  0.6726  0.0790
22644SOL    HW174982   0.217  11.842   5.952 -0.0938  0.4663 -0.5701
22644SOL    HW274983   0.250  11.716   6.029  0.4067 -0.0540 -1.6209
22645SOL     OW74984  10.638   9.492   4.179 -0.6838 -0.1595  0.2677
22645SOL    HW174985  10.661   9.508   4.271  1.4800 -3.0786  0.3927
22645SOL    HW274986  10.717   9.514   4.131 -1.5078  0.4902 -0.8255
22646SOL     OW74987  11.087   5.473   5.197  0.0624  0.1304  0.1126
22646SOL    HW174988  11.013   5.413   5.185  0.8922 -0.9448  0.2800
22646SOL    HW274989  11.148   5.426   5.253  1.3375  0.5914 -0.8375
22647SOL     OW74990   8.740   4.001   6.849 -0.1782  0.0556  0.1353
22647SOL    HW174991   8.827   3.984   6.812 -0.3821  2.3949 -1.6057
22647SOL    HW274992   8.679   3.970   6.782 -0.6526  0.4466  0.3806
22648SOL     OW74993  10.024   9.312   8.531 -0.5585 -0.1386 -0.2468
22648SOL    HW174994  10.032   9.389   8.475  2.0158  0.2436  0.5089
22648SOL    HW274995  10.076   9.245   8.486  0.2454 -0.2895  0.8575
22649SOL     OW74996   4.864   0.932   5.796  0.0336  0.2298  0.2370
22649SOL    HW174997   4.775   0.911   5.825  0.2532  1.9893  2.5674
22649SOL    HW274998   4.863   1.028   5.787  1.7395  0.2991  0.5742
22650SOL     OW74999   8.026   3.975   4.389  0.7372  0.1790 -0.8010
22650SOL    HW175000   8.112   4.015   4.383  1.3981 -1.1752 -0.6335
22650SOL    HW275001   8.006   3.945   4.301  0.7985 -0.2341 -0.6760
22651SOL     OW75002   3.552   1.898   1.236  0.6372  0.2935  0.1821
22651SOL    HW175003   3.518   1.911   1.147  0.3155 -0.2726  0.2199
22651SOL    HW275004   3.606   1.976   1.252  0.2464  0.6714 -0.2936
22652SOL     OW75005   7.590   0.594   4.460 -0.1873 -0.1912 -0.2478
22652SOL    HW175006   7.622   0.504   4.460 -0.3377 -0.2444 -0.5546
22652SOL    HW275007   7.649   0.640   4.521  0.5148 -0.2739 -0.8512
22653SOL     OW75008   9.429   1.116   6.606  0.3688  0.0407 -0.3127
22653SOL    HW175009   9.394   1.127   6.695  2.3657 -2.7943  1.0076
22653SOL    HW275010   9.467   1.200   6.584  0.2974  0.6844  1.7900
22654SOL     OW75011   3.467   1.195   6.622 -0.6916  0.1857  0.1994
22654SOL    HW175012   3.507   1.118   6.664  0.4082  0.6264  0.0118
22654SOL    HW275013   3.456   1.169   6.531 -0.3500  0.2343  0.1424
22655SOL     OW75014   1.888  10.064   8.808 -0.5614  0.1142 -0.7042
22655SOL    HW175015   1.871  10.156   8.827 -0.3517 -0.0835  0.5036
22655SOL    HW275016   1.919  10.027   8.891 -0.3688 -0.9797 -1.2408
22656SOL     OW75017   8.362   0.977   5.736 -0.1089  1.0174 -0.2481
22656SOL    HW175018   8.313   0.902   5.770  0.6297  0.4205 -0.4679
22656SOL    HW275019   8.445   0.940   5.707  0.3211  1.9492 -0.2425
22657SOL     OW75020   0.660   8.209  11.545  0.0538 -0.0926 -0.0443
22657SOL    HW175021   0.671   8.303  11.555 -0.0344 -0.3068  3.0253
22657SOL    HW275022   0.676   8.192  11.452 -1.1095  3.0603 -0.9185
22658SOL     OW75023   0.906   7.222   7.206 -0.2551  0.5770 -0.3207
22658SOL    HW175024   0.826   7.263   7.239 -0.1507  1.0869 -0.6730
22658SOL    HW275025   0.977   7.264   7.256 -0.2014  0.2110 -0.0907
22659SOL     OW75026   9.857   0.000  10.218  0.1682 -0.1136  0.4402
22659SOL    HW175027   9.912   0.078  10.223 -0.6106  0.4784  0.0300
22659SOL    HW275028   9.826  -0.013  10.308 -1.6336  1.5107  0.1224
22660SOL     OW75029   3.287  11.649   9.661  0.2806 -0.3967 -0.4326
22660SOL    HW175030   3.363  11.687   9.617  0.4990  0.5176  0.6719
22660SOL    HW275031   3.323  11.605   9.738 -0.2160 -0.8161 -0.4341
22661SOL     OW75032   1.436  11.001   2.917 -0.3918 -0.1081 -0.7255
22661SOL    HW175033   1.440  10.935   2.986 -0.4215  0.8709  0.2317
22661SOL    HW275034   1.497  11.069   2.944  0.0970 -0.0023 -2.0053
22662SOL     OW75035   9.192   0.295  10.311 -0.6642  0.5003 -0.5199
22662SOL    HW175036   9.176   0.360  10.379 -0.5637 -0.7878  0.8057
22662SOL    HW275037   9.201   0.212  10.359 -3.6234 -1.0214 -2.2553
22663SOL     OW75038   4.065   5.159   9.279 -0.1120  0.1025  1.0827
22663SOL    HW175039   4.063   5.132   9.187  1.0379 -0.5226  1.2123
22663SOL    HW275040   4.118   5.239   9.279 -0.0240  0.0445  1.2089
22664SOL     OW75041   8.855   4.155   3.976  0.1402  0.3927 -0.5460
22664SOL    HW175042   8.917   4.145   3.905  1.5359  0.8369  0.5657
22664SOL    HW275043   8.850   4.068   4.017 -1.0894 -0.0105 -1.4766
22665SOL     OW75044  10.505   0.583  10.204  0.0573  0.6533 -0.3947
22665SOL    HW175045  10.446   0.633  10.260 -1.7927  0.2820 -1.9091
22665SOL    HW275046  10.489   0.618  10.116  0.0170 -1.3513 -1.2317
22666SOL     OW75047   2.764   3.829  10.313  0.3716 -0.4438 -0.5602
22666SOL    HW175048   2.801   3.917  10.308  1.4260 -0.6288  2.2792
22666SOL    HW275049   2.680   3.835  10.267  2.1231  0.9653 -3.8626
22667SOL     OW75050   0.164  11.750  11.061 -0.1111 -0.1204  0.9767
22667SOL    HW175051   0.172  11.824  11.120 -1.7945  0.2956  0.7292
22667SOL    HW275052   0.161  11.789  10.973 -1.7570 -0.3944  0.8887
22668SOL     OW75053   8.311  12.165  11.816 -0.5553 -0.1226 -0.1087
22668SOL    HW175054   8.302  12.242  11.760 -0.1043  0.4589  0.5959
22668SOL    HW275055   8.234  12.112  11.797 -0.0175 -0.3355 -1.8645
22669SOL     OW75056   1.987   9.808   6.115 -0.0322 -0.2580 -0.4269
22669SOL    HW175057   2.067   9.832   6.161  0.7757  0.8710 -2.3288
22669SOL    HW275058   1.995   9.848   6.028 -4.3048  3.2295  0.4123
22670SOL     OW75059  10.627  11.861   5.010 -0.4817 -0.4563 -0.1453
22670SOL    HW175060  10.593  11.781   4.970 -1.5089 -0.0970 -0.0154
22670SOL    HW275061  10.603  11.930   4.949  0.6614 -0.2659 -0.4007
22671SOL     OW75062   4.745  11.667   3.442  0.0307  0.0339 -0.5383
22671SOL    HW175063   4.832  11.671   3.402 -0.2357  2.1404 -1.0089
22671SOL    HW275064   4.686  11.703   3.376 -0.7394  1.4926  0.8736
22672SOL     OW75065   8.202   3.832  11.955 -0.0054 -0.1277 -0.1318
22672SOL    HW175066   8.121   3.794  11.989 -0.3484  0.4131 -0.3469
22672SOL    HW275067   8.182   3.924  11.941  0.6309 -0.0022 -0.2403
22673SOL     OW75068   8.483   1.033   7.391 -0.2576  0.4685 -0.1113
22673SOL    HW175069   8.507   1.079   7.472 -1.7621  0.8264  0.1700
22673SOL    HW275070   8.552   1.056   7.329  0.8548  0.3081  1.0171
22674SOL     OW75071  10.144   3.621   4.790  0.9988 -0.0174 -0.1878
22674SOL    HW175072  10.070   3.681   4.785  1.1763  0.2553  0.4166
22674SOL    HW275073  10.212   3.662   4.737  0.9496  0.0658 -0.1859
22675SOL     OW75074   6.589   9.112  11.919  0.1740 -0.4703 -0.4853
22675SOL    HW175075   6.668   9.097  11.970  0.0697  0.0024 -0.1725
22675SOL    HW275076   6.535   9.034  11.933 -0.0191 -0.1824  0.4517
22676SOL     OW75077   7.036   4.474  10.630  0.0795 -0.1576 -0.7044
22676SOL    HW175078   6.995   4.553  10.595 -0.2781  0.0218  0.1003
22676SOL    HW275079   7.115   4.463  10.578  0.5353  1.1722 -0.3371
22677SOL     OW75080   2.912   9.294   1.169 -0.1510  0.0172 -0.4781
22677SOL    HW175081   2.917   9.199   1.154  1.0714  0.1662 -1.0603
22677SOL    HW275082   2.828   9.319   1.132 -1.5538 -1.1641  1.6471
22678SOL     OW75083   0.695   6.780   6.292 -0.2904  0.4995  0.2620
22678SOL    HW175084   0.721   6.870   6.272  0.3904  0.2016 -0.2194
22678SOL    HW275085   0.624   6.761   6.231 -0.2945  0.6400  0.2222
22679SOL     OW75086   4.996   2.645   1.277  0.1149 -0.0411  0.0334
22679SOL    HW175087   4.933   2.707   1.241  0.5168  1.1993  1.3825
22679SOL    HW275088   5.061   2.633   1.208 -0.0781  0.8826 -0.3126
22680SOL     OW75089   0.890  10.036   2.853  0.4408 -0.1221  0.1307
22680SOL    HW175090   0.822  10.103   2.843 -0.3375 -0.8820  0.2183
22680SOL    HW275091   0.847   9.966   2.902  1.5780 -0.2184  1.0097
22681SOL     OW75092   1.899   9.221   1.648 -0.3650  0.2894 -0.1427
22681SOL    HW175093   1.824   9.278   1.664 -0.6417 -0.0735 -0.1087
22681SOL    HW275094   1.865   9.133   1.663 -0.0077  0.1003 -0.4180
22682SOL     OW75095   7.331   1.889   2.105 -0.1309  0.6943 -0.4968
22682SOL    HW175096   7.297   1.949   2.038  0.0815  0.1370 -1.1096
22682SOL    HW275097   7.255   1.871   2.161  0.0285  2.3438  0.3292
22683SOL     OW75098   8.295   9.431   8.018  0.7373  0.1143  0.5982
22683SOL    HW175099   8.308   9.342   7.986  2.2739  1.0658 -1.6247
22683SOL    HW275100   8.205   9.453   7.992  0.1929 -0.8651  1.5325
22684SOL     OW75101  11.287   6.150   2.169 -0.0151 -0.6196 -0.2059
22684SOL    HW175102  11.309   6.200   2.090 -0.6130 -1.3651 -0.8568
22684SOL    HW275103  11.355   6.175   2.232  0.3877  0.1013 -0.8975
22685SOL     OW75104   7.318   3.955   0.155  0.2799 -0.3969 -0.2744
22685SOL    HW175105   7.244   3.894   0.148  0.1760 -0.1463 -1.8856
22685SOL    HW275106   7.282   4.029   0.203 -0.0808 -0.9125  0.2624
22686SOL     OW75107  11.281   1.033  10.091 -0.2601 -0.0804  0.0795
22686SOL    HW175108  11.362   1.056  10.046 -0.3940  4.1439  1.6081
22686SOL    HW275109  11.309   0.988  10.171  0.3284 -1.2553 -0.7528
22687SOL     OW75110   9.320   3.037   1.146  0.2625 -0.1210  0.3949
22687SOL    HW175111   9.345   3.015   1.056  0.7725  0.1094  0.4795
22687SOL    HW275112   9.318   3.133   1.147 -3.7559 -0.0215 -0.4888
22688SOL     OW75113   8.758   5.638   6.780 -0.2804  0.1633 -0.0239
22688SOL    HW175114   8.678   5.687   6.759 -0.1630  0.2308 -0.3243
22688SOL    HW275115   8.819   5.704   6.812 -0.1289  0.2139 -0.4097
22689SOL     OW75116   5.669  10.731  11.284  0.1566  0.4816  0.0537
22689SOL    HW175117   5.672  10.636  11.271 -0.6970  0.4648 -0.1197
22689SOL    HW275118   5.733  10.748  11.353 -1.2574 -0.5081  1.6833
22690SOL     OW75119   9.930  10.768   3.926  0.1602 -0.3229  0.3579
22690SOL    HW175120   9.864  10.768   3.995 -0.9913 -1.1020 -0.7113
22690SOL    HW275121   9.905  10.842   3.869  0.1928 -0.6290 -0.0563
22691SOL     OW75122   8.984   9.799   4.152 -0.1705 -0.4898  0.3937
22691SOL    HW175123   9.015   9.748   4.077 -1.1785  1.0628 -1.1509
22691SOL    HW275124   9.061   9.849   4.181 -0.3804  1.0302 -1.4690
22692SOL     OW75125   2.404   2.166  12.008  0.1510  0.1775  0.0641
22692SOL    HW175126   2.438   2.254  11.990  2.0133 -0.2526  1.1413
22692SOL    HW275127   2.483   2.111  12.012 -0.7645 -1.1176  1.6192
22693SOL     OW75128   0.983   3.198  11.003 -0.3990 -0.2285 -0.0723
22693SOL    HW175129   0.988   3.272  10.944 -3.2340 -0.1011 -0.2634
22693SOL    HW275130   0.955   3.125  10.948 -0.7532 -0.6766  0.6853
22694SOL     OW75131   7.531  10.911  11.515  0.8671 -0.2971 -0.3517
22694SOL    HW175132   7.448  10.870  11.493 -0.1462  1.2267  0.4570
22694SOL    HW275133   7.534  10.990  11.460  1.6411 -0.1790 -0.1506
22695SOL     OW75134   1.088  10.882   4.851 -0.6697 -0.3231 -0.1347
22695SOL    HW175135   1.146  10.934   4.907 -0.5447 -1.1617  0.5341
22695SOL    HW275136   1.001  10.896   4.887 -0.5848 -0.8921  0.3131
22696SOL     OW75137   8.444   9.681   8.079  0.2005 -0.1538 -0.0090
22696SOL    HW175138   8.494   9.599   8.073  0.7876  0.2515 -0.8964
22696SOL    HW275139   8.362   9.656   8.120  0.7492 -1.0187  0.6120
22697SOL     OW75140   0.713   1.445   5.460  0.0214  0.1071  0.4108
22697SOL    HW175141   0.715   1.525   5.407  0.3861  1.0193  1.7636
22697SOL    HW275142   0.723   1.374   5.396  1.6212  1.2123 -0.6251
22698SOL     OW75143   7.175   4.322   3.797  0.1760 -0.7149  0.2137
22698SOL    HW175144   7.214   4.386   3.737  1.2282 -0.2781  1.3205
22698SOL    HW275145   7.217   4.239   3.774  0.8896 -0.4714  0.5903
22699SOL     OW75146   7.644  10.411   7.099 -0.3016 -0.8323 -0.4667
22699SOL    HW175147   7.620  10.504   7.103 -0.6605 -0.9652  1.1424
22699SOL    HW275148   7.561  10.365   7.109 -0.0396 -1.3390 -0.6055
22700SOL     OW75149   1.719  10.028   7.733 -0.1726  0.2156  0.1357
22700SOL    HW175150   1.702   9.976   7.654 -1.0686  0.5671  0.0915
22700SOL    HW275151   1.686   9.975   7.805 -1.9268  1.0718  0.0132
22701SOL     OW75152  11.290   5.689   6.796 -0.4056  0.2063  0.0838
22701SOL    HW175153  11.369   5.739   6.818  0.9128 -0.8058 -1.9468
22701SOL    HW275154  11.321   5.622   6.736 -2.8535 -0.1806 -0.8659
22702SOL     OW75155   2.131  11.750   9.109  0.1523  0.4318  0.4382
22702SOL    HW175156   2.040  11.725   9.123  0.2576 -0.0457  0.2793
22702SOL    HW275157   2.160  11.695   9.038 -0.2130  2.4318 -1.3704
22703SOL     OW75158   3.608   1.321   2.256  0.0716  0.7430  0.0737
22703SOL    HW175159   3.674   1.251   2.250 -0.7581 -0.1543  1.0501
22703SOL    HW275160   3.646   1.385   2.316 -0.3301 -0.2334  1.4038
22704SOL     OW75161   7.860   8.108   8.681  0.5205 -0.1487 -0.0757
22704SOL    HW175162   7.827   8.045   8.618  0.6956 -0.0864 -0.2309
22704SOL    HW275163   7.858   8.061   8.765  0.1866 -0.1940 -0.1101
22705SOL     OW75164  11.512  12.077   3.383 -0.5180 -0.2285 -0.6880
22705SOL    HW175165  11.442  12.017   3.410  0.6249 -1.7190 -0.9307
22705SOL    HW275166  11.488  12.103   3.295  0.4472 -2.7835 -1.8155
22706SOL     OW75167   0.550   4.044  11.433  0.0530  0.0590 -0.0292
22706SOL    HW175168   0.572   4.127  11.476  0.1284 -0.7678  1.6303
22706SOL    HW275169   0.497   4.069  11.358  1.0322  1.6740 -0.2286
22707SOL     OW75170  12.306   2.152   5.971  0.0248  0.4169  0.0668
22707SOL    HW175171  12.221   2.191   5.989  0.4204  1.1489  0.3796
22707SOL    HW275172  12.287   2.082   5.908 -1.0150 -0.4614  1.3015
22708SOL     OW75173  11.150   1.005   3.431 -0.2948  0.0588 -0.7219
22708SOL    HW175174  11.105   1.032   3.351 -2.0632  0.6881  0.4300
22708SOL    HW275175  11.173   1.088   3.475 -1.4480 -0.2390  0.5182
22709SOL     OW75176   6.026   4.352   2.771 -0.0252 -0.1227  0.0268
22709SOL    HW175177   6.121   4.344   2.756 -0.3997 -0.2488 -2.8908
22709SOL    HW275178   6.004   4.277   2.825  1.4824 -0.2328  0.5557
22710SOL     OW75179   3.027   8.085   4.160 -0.1923 -0.6676 -0.2512
22710SOL    HW175180   2.967   8.049   4.095 -0.5087  0.8749 -0.8535
22710SOL    HW275181   3.004   8.178   4.165  1.3526 -0.2952  0.4061
22711SOL     OW75182   7.949  10.711   5.936  0.3863  0.4392  0.5322
22711SOL    HW175183   7.875  10.718   5.996  0.8076  1.4504  0.9703
22711SOL    HW275184   8.014  10.771   5.973  0.4734  1.4772 -1.1937
22712SOL     OW75185   0.221   6.926  11.404  0.1511 -0.5010 -0.1686
22712SOL    HW175186   0.136   6.954  11.439  0.5639  0.3896  0.1524
22712SOL    HW275187   0.263   7.007  11.374  0.5973 -1.0234 -0.9785
22713SOL     OW75188  10.122   2.123  12.353  0.1704 -1.0028  0.2733
22713SOL    HW175189  10.216   2.125  12.335  0.2912  0.2888  0.9773
22713SOL    HW275190  10.095   2.215  12.352 -1.1192 -1.3719 -0.0857
22714SOL     OW75191   1.036   3.382   5.363 -0.7647 -0.2346  0.3513
22714SOL    HW175192   0.996   3.414   5.444 -1.2008 -0.6192  0.2948
22714SOL    HW275193   1.093   3.311   5.391 -1.5157 -0.8969  0.2535
22715SOL     OW75194   3.042   1.387   4.009 -0.6977 -0.4307 -0.2222
22715SOL    HW175195   2.974   1.335   4.052 -0.3190  0.8895  2.1258
22715SOL    HW275196   3.124   1.361   4.052 -0.4620  1.7787  0.7833
22716SOL     OW75197  10.921   7.587   3.597  0.8601  0.4786 -0.2174
22716SOL    HW175198  10.857   7.533   3.549  1.9820  0.4246 -1.7084
22716SOL    HW275199  11.004   7.540   3.587  1.6862  1.9737 -0.7555
22717SOL     OW75200   3.268   7.687   6.660 -0.3595 -0.2125 -0.3236
22717SOL    HW175201   3.194   7.693   6.601 -1.1621 -1.6425  0.4958
22717SOL    HW275202   3.231   7.705   6.747  0.5301  0.4319 -0.0541
22718SOL     OW75203   4.066   5.395   1.790 -0.5614  0.4886  0.0396
22718SOL    HW175204   4.104   5.440   1.714 -0.1690 -0.0526 -0.1002
22718SOL    HW275205   4.111   5.432   1.865  0.9250 -0.7591 -0.1839
22719SOL     OW75206   0.159   8.667   5.094 -0.1674  1.0308  0.5720
22719SOL    HW175207   0.125   8.686   5.006 -0.2887  0.4826  0.4993
22719SOL    HW275208   0.162   8.572   5.099  0.8747  1.0527  0.7646
22720SOL     OW75209   9.738   4.808   6.676  0.1939 -0.1183  0.9071
22720SOL    HW175210   9.708   4.862   6.749  0.0056 -0.0962  0.8128
22720SOL    HW275211   9.831   4.831   6.666 -0.2031  1.1746  0.0122
22721SOL     OW75212   2.462   6.323   2.866  0.1437 -0.5536  0.4019
22721SOL    HW175213   2.439   6.236   2.833  0.6663 -0.4324 -0.3026
22721SOL    HW275214   2.380   6.357   2.902 -0.0029 -1.4397  0.9442
22722SOL     OW75215   3.303   4.585   9.358  0.0366  0.3044  0.0441
22722SOL    HW175216   3.376   4.557   9.414  0.1687  0.2616 -0.1479
22722SOL    HW275217   3.249   4.641   9.415  0.5211  0.8011  0.0259
22723SOL     OW75218   7.693   6.268   7.846 -0.5462  0.2908  0.0105
22723SOL    HW175219   7.735   6.309   7.922 -1.6101 -0.3161  0.9656
22723SOL    HW275220   7.759   6.206   7.813 -0.0094  0.6816  0.3387
22724SOL     OW75221   4.530   6.034   9.287  0.1645 -0.3925  0.8668
22724SOL    HW175222   4.601   6.067   9.342 -0.0139 -0.6100  1.2298
22724SOL    HW275223   4.482   5.973   9.343 -0.7717  0.3258  0.8842
22725SOL     OW75224   1.806   1.658   4.850  0.5011 -0.0811  0.1353
22725SOL    HW175225   1.775   1.728   4.907  0.6648 -0.2211  0.3993
22725SOL    HW275226   1.726   1.619   4.814  0.3776 -0.3163  0.6626
22726SOL     OW75227  11.419   0.186   8.452 -0.1560 -0.1928  1.1852
22726SOL    HW175228  11.437   0.207   8.544 -0.6416  1.1883  0.9890
22726SOL    HW275229  11.331   0.150   8.452  0.2149 -1.1267  1.3708
22727SOL     OW75230   2.075   2.736  10.323  0.0708 -0.0120 -0.3582
22727SOL    HW175231   2.164   2.769  10.313  0.1199  0.0428  0.2464
22727SOL    HW275232   2.086   2.641  10.328  0.3467  0.0897  2.0796
22728SOL     OW75233   4.486   7.647   4.401  0.6662  0.6382 -0.3459
22728SOL    HW175234   4.527   7.615   4.482  1.1976  1.5473 -0.2382
22728SOL    HW275235   4.555   7.698   4.358  0.5017 -0.1293 -1.5607
22729SOL     OW75236   2.260  12.522   8.526 -0.1200  0.0334 -0.3772
22729SOL    HW175237   2.272  12.442   8.474 -0.3565 -2.1236  2.6662
22729SOL    HW275238   2.335  12.524   8.585  0.2119  2.4760 -0.7868
22730SOL     OW75239   1.020  11.205   8.206 -0.0136 -0.2196 -0.3427
22730SOL    HW175240   1.066  11.217   8.289  1.1322 -2.2781 -0.6227
22730SOL    HW275241   0.945  11.264   8.212  0.5581  0.3773  1.7534
22731SOL     OW75242   9.275   7.414   0.262  0.4134 -0.1419  0.2655
22731SOL    HW175243   9.222   7.334   0.256  0.1616 -0.1730  2.2437
22731SOL    HW275244   9.280   7.445   0.171  1.4350 -2.9368 -0.7503
22732SOL     OW75245  10.662  10.327   4.324 -0.0780  0.1784 -0.0832
22732SOL    HW175246  10.574  10.365   4.326 -0.0254  0.3023 -0.0791
22732SOL    HW275247  10.658  10.260   4.256 -0.8278 -1.4146  1.4508
22733SOL     OW75248  11.634  11.718   4.422 -0.7728 -0.0023 -0.4114
22733SOL    HW175249  11.680  11.696   4.503  1.0158  0.2399 -1.3126
22733SOL    HW275250  11.567  11.650   4.413 -0.5413 -0.4303  0.9015
22734SOL     OW75251   7.126   0.686   1.610 -0.1100  0.0397 -0.2727
22734SOL    HW175252   7.184   0.615   1.637  2.2635  2.2528  0.9428
22734SOL    HW275253   7.097   0.725   1.692 -0.3027  1.2391 -0.8942
22735SOL     OW75254  12.389   7.333  12.038  0.5759 -0.1010 -0.0542
22735SOL    HW175255  12.454   7.280  11.992  1.5462  1.3318 -0.4376
22735SOL    HW275256  12.307   7.285  12.029  1.5746 -1.9667  0.4468
22736SOL     OW75257   8.542  11.511   6.030 -0.0981  0.5305 -0.2592
22736SOL    HW175258   8.575  11.557   5.952  0.5011  0.8573  0.1767
22736SOL    HW275259   8.603  11.439   6.043  0.4278  1.0855  0.5003
22737SOL     OW75260   4.590   7.280   5.541 -0.6427 -0.6457  0.5513
22737SOL    HW175261   4.519   7.255   5.600  0.1255 -0.6485  1.5054
22737SOL    HW275262   4.668   7.277   5.596  0.0324 -0.1979 -0.3654
22738SOL     OW75263   1.472  11.963   8.153  0.0245  0.4242  0.3069
22738SOL    HW175264   1.394  12.011   8.181 -0.0754  0.9993 -0.8504
22738SOL    HW275265   1.446  11.872   8.151 -0.8832  0.6880 -0.8159
22739SOL     OW75266   9.928  10.118   3.801 -0.1234 -0.0324 -0.2304
22739SOL    HW175267  10.005  10.161   3.764 -0.3127  1.9339  1.4875
22739SOL    HW275268   9.963  10.045   3.852  0.6071  0.7367  0.3863
22740SOL     OW75269   2.888   8.272   0.343 -0.5859  0.2195 -0.2277
22740SOL    HW175270   2.857   8.323   0.418 -1.3371 -2.6929  1.6287
22740SOL    HW275271   2.810   8.228   0.309  0.2183 -0.9229 -0.6892
22741SOL     OW75272   2.040   0.977  11.456  0.2028 -0.1349  0.1971
22741SOL    HW175273   2.126   0.947  11.486  0.1587 -0.0910  0.3693
22741SOL    HW275274   2.054   1.069  11.435  0.0452  0.0511  0.8580
22742SOL     OW75275   1.341   8.075   2.973 -0.5773  0.2298  0.1680
22742SOL    HW175276   1.359   8.141   3.041 -0.6884  0.8217 -0.3669
22742SOL    HW275277   1.363   7.992   3.014 -0.0293  0.6380  0.7190
22743SOL     OW75278   4.286  10.278  11.299 -0.3373  0.0636  0.4418
22743SOL    HW175279   4.365  10.234  11.331 -0.8919 -1.1426  0.2308
22743SOL    HW275280   4.233  10.293  11.377 -0.6393 -0.7083  0.4015
22744SOL     OW75281   5.183  12.042   5.887 -0.2822  0.0983  0.7541
22744SOL    HW175282   5.167  12.063   5.795 -0.7664 -1.7210  0.3795
22744SOL    HW275283   5.196  12.127   5.929 -1.1196  1.0357 -0.7838
22745SOL     OW75284   1.569   8.835   0.629  0.1700  0.1946  0.3389
22745SOL    HW175285   1.546   8.891   0.554  0.2261 -0.4502 -0.1643
22745SOL    HW275286   1.529   8.751   0.610  2.8411 -0.9754 -0.5498
22746SOL     OW75287   3.212   5.155   9.789  0.1853  0.8470 -0.7850
22746SOL    HW175288   3.277   5.124   9.851  0.2729  1.1499 -0.7266
22746SOL    HW275289   3.242   5.120   9.704  0.1313  0.5376 -0.6766
22747SOL     OW75290   1.276  11.459  10.173 -0.3900 -0.3156 -0.4589
22747SOL    HW175291   1.337  11.412  10.230 -0.7572 -0.8304 -0.4830
22747SOL    HW275292   1.331  11.521  10.125 -0.1215  0.3941  0.7132
22748SOL     OW75293   6.563   1.368   8.798  0.2914 -0.1104 -0.1414
22748SOL    HW175294   6.498   1.300   8.817 -1.3374  0.5831 -2.6853
22748SOL    HW275295   6.513   1.450   8.804  1.5584  0.6615  0.2043
22749SOL     OW75296   9.324   4.295   5.198  0.5559 -0.0149  0.2593
22749SOL    HW175297   9.247   4.311   5.253  1.3705  0.7816  1.2248
22749SOL    HW275298   9.296   4.231   5.134 -1.0590  0.6312  0.2866
22750SOL     OW75299   0.919  10.042   9.513  0.1846 -0.1216  0.1089
22750SOL    HW175300   1.011  10.014   9.516  0.3361  0.2045 -1.0737
22750SOL    HW275301   0.892  10.028   9.423 -1.2391 -1.1259  0.6563
22751SOL     OW75302   5.422  11.081   1.512 -0.5700  0.0837  0.1357
22751SOL    HW175303   5.337  11.098   1.472 -1.8954 -0.7335  2.4531
22751SOL    HW275304   5.449  11.166   1.547  0.0730  0.5532 -1.4025
22752SOL     OW75305   9.164   4.211   2.716  0.1402  0.4078  0.1189
22752SOL    HW175306   9.209   4.126   2.710  0.0894  0.2569  1.6025
22752SOL    HW275307   9.201   4.262   2.644  1.5382 -0.2447  0.3261
22753SOL     OW75308   5.122  10.639  10.932  0.2270 -0.0277 -0.0448
22753SOL    HW175309   5.214  10.632  10.905 -0.1905 -0.5285 -1.4032
22753SOL    HW275310   5.077  10.574  10.879 -1.5494  2.8130 -2.2553
22754SOL     OW75311  10.981  10.982   6.774  0.2207 -0.4438 -0.2998
22754SOL    HW175312  10.957  10.890   6.780  0.9433 -0.6466 -0.4257
22754SOL    HW275313  11.071  10.982   6.742  1.0590  0.2101  1.8763
22755SOL     OW75314   8.485   8.452   6.807  0.3820  0.4145 -0.0204
22755SOL    HW175315   8.544   8.517   6.845 -0.4105  3.1276 -2.9638
22755SOL    HW275316   8.397   8.487   6.824 -0.3224 -1.7944  1.3387
22756SOL     OW75317   6.420   4.920  10.836 -0.1622 -0.0717  0.3761
22756SOL    HW175318   6.410   4.869  10.916 -0.3322  0.4509  0.6964
22756SOL    HW275319   6.330   4.936  10.806 -0.1386 -3.3713 -1.9787
22757SOL     OW75320   9.303   5.590   6.777  0.4178  0.7567  0.8603
22757SOL    HW175321   9.320   5.649   6.703  1.7719  0.4924  0.9525
22757SOL    HW275322   9.320   5.643   6.855 -0.0687  0.7456  0.9802
22758SOL     OW75323   1.583   8.341   4.495 -0.0532  0.1389  0.4870
22758SOL    HW175324   1.658   8.335   4.436  1.3827  0.5090  2.1787
22758SOL    HW275325   1.513   8.377   4.441  0.9655 -0.2475 -1.1601
22759SOL     OW75326   1.971   6.965   1.980 -0.5103 -0.1727  0.3619
22759SOL    HW175327   2.008   6.884   1.945 -1.2360 -1.1003  1.6709
22759SOL    HW275328   1.947   6.943   2.071  0.7420  1.9480  1.2740
22760SOL     OW75329   4.852  11.227  10.450  0.1159 -0.0875  0.0661
22760SOL    HW175330   4.910  11.218  10.526  0.4552 -0.8733 -0.2759
22760SOL    HW275331   4.911  11.247  10.377 -0.1269 -0.0636 -0.1233
22761SOL     OW75332   1.693   3.048   5.731 -0.4336  0.1040  0.3603
22761SOL    HW175333   1.646   2.965   5.732 -0.8262  0.2269  3.3542
22761SOL    HW275334   1.743   3.048   5.650 -1.4890 -2.4222 -0.3566
22762SOL     OW75335   3.726  11.896   7.900  0.1753  0.1540  0.1988
22762SOL    HW175336   3.730  11.841   7.822  2.1096  0.5179 -0.0048
22762SOL    HW275337   3.638  11.883   7.934 -0.9859  0.5594 -2.4468
22763SOL     OW75338   1.201   7.884   6.574 -0.5302 -0.2101 -0.1912
22763SOL    HW175339   1.184   7.978   6.575 -3.6788 -0.6665  1.8972
22763SOL    HW275340   1.239   7.866   6.660 -2.8143 -1.1710  0.6943
22764SOL     OW75341   6.806   1.385   9.673  0.6107  0.1359 -0.4684
22764SOL    HW175342   6.865   1.458   9.693 -0.0128  0.2395  1.1249
22764SOL    HW275343   6.733   1.395   9.734 -0.1283 -1.0888 -1.1052
22765SOL     OW75344   8.911   3.675   5.336 -0.2391 -0.2312  0.1483
22765SOL    HW175345   8.994   3.709   5.304 -0.3792 -1.3132 -1.4718
22765SOL    HW275346   8.927   3.583   5.355 -1.1352 -0.5418 -0.5138
22766SOL     OW75347   8.246  10.414   0.895  0.2919 -0.5017 -0.1978
22766SOL    HW175348   8.309  10.482   0.871 -0.0250 -0.0589  0.1874
22766SOL    HW275349   8.161  10.453   0.874  0.1845 -1.5628 -1.8795
22767SOL     OW75350  12.354   8.975   6.268  0.4319  0.2330 -0.3115
22767SOL    HW175351  12.437   9.014   6.297  0.3389  0.2031  0.0057
22767SOL    HW275352  12.338   9.014   6.183  0.8757  0.0831 -0.4675
22768SOL     OW75353   3.484   8.734   1.731  1.0488 -0.4499 -0.5518
22768SOL    HW175354   3.538   8.770   1.801  1.5925 -0.1067 -1.1299
22768SOL    HW275355   3.545   8.724   1.657  0.3652 -0.2445 -1.1503
22769SOL     OW75356  11.812   6.555   6.547 -0.0266  0.1022 -0.4824
22769SOL    HW175357  11.876   6.588   6.610 -1.6733 -1.4166  2.1538
22769SOL    HW275358  11.732   6.604   6.566 -0.7193 -0.7958 -1.0015
22770SOL     OW75359   4.502   9.161  10.349 -1.0405 -0.2410  0.5941
22770SOL    HW175360   4.519   9.168  10.255  3.8956  1.7649  1.3479
22770SOL    HW275361   4.424   9.215  10.364 -1.1679  0.4540 -2.1565
22771SOL     OW75362  10.635   9.783   8.523  0.3052 -0.3076 -0.0828
22771SOL    HW175363  10.648   9.858   8.580  0.8311 -0.4273 -0.0400
22771SOL    HW275364  10.566   9.810   8.463  1.3798  0.7079 -0.9077
22772SOL     OW75365   3.840   1.524  11.378  0.0301 -0.1875 -0.0616
22772SOL    HW175366   3.807   1.487  11.296 -1.2058 -0.6726  0.6192
22772SOL    HW275367   3.795   1.609  11.386 -0.0621 -0.2617  0.2325
22773SOL     OW75368   1.430   5.302   3.281  0.5666 -0.1669 -0.1806
22773SOL    HW175369   1.506   5.361   3.278  0.9554 -0.6869 -1.3165
22773SOL    HW275370   1.468   5.216   3.301 -0.0069 -0.0555  1.5591
22774SOL     OW75371   9.198   6.005   3.935  0.1780 -0.3585  0.7185
22774SOL    HW175372   9.240   6.007   3.849  0.9674 -0.6679  1.0859
22774SOL    HW275373   9.245   5.938   3.983 -1.3839 -1.4003  0.8493
22775SOL     OW75374   7.995   1.188   5.738  0.4416 -0.2947 -0.2248
22775SOL    HW175375   7.981   1.124   5.807 -1.0461 -0.6484 -0.8129
22775SOL    HW275376   8.028   1.266   5.783 -1.0053 -0.3346  0.9778
22776SOL     OW75377   1.882  11.718   6.166 -0.0446 -0.2612 -0.0789
22776SOL    HW175378   1.809  11.742   6.109 -0.6023  1.1667  1.1652
22776SOL    HW275379   1.918  11.802   6.196  2.7164 -0.8644 -1.3350
22777SOL     OW75380   6.811   6.487  11.886  0.0483 -0.4080 -0.3382
22777SOL    HW175381   6.868   6.447  11.952 -1.5812 -3.4977 -0.6038
22777SOL    HW275382   6.870   6.511  11.814  1.2880 -1.4544  0.2928
22778SOL     OW75383  10.323   9.202   1.362 -0.4563  0.0660 -0.5706
22778SOL    HW175384  10.416   9.202   1.339 -0.6935 -1.3069 -1.6602
22778SOL    HW275385  10.320   9.170   1.452  0.2913  2.8603  0.5479
22779SOL     OW75386   8.892   7.900  10.015 -0.1898 -0.0242  0.2995
22779SOL    HW175387   8.916   7.992  10.027 -1.7505  0.5477 -0.7005
22779SOL    HW275388   8.935   7.875   9.933  0.4942 -0.3053  0.7322
22780SOL     OW75389   6.342   1.662   3.595  0.6051  0.1597 -0.4032
22780SOL    HW175390   6.250   1.639   3.581 -0.3538  1.0234  3.3518
22780SOL    HW275391   6.383   1.580   3.620  0.5631 -0.0184 -0.9199
22781SOL     OW75392  11.042   8.844   0.657  0.1188 -0.2900  0.1723
22781SOL    HW175393  11.011   8.785   0.588  1.0627 -0.1963 -0.3559
22781SOL    HW275394  11.073   8.786   0.726 -3.5373 -0.4356  1.9006
22782SOL     OW75395  12.384   8.856  11.432  0.4400 -0.1200  0.3173
22782SOL    HW175396  12.352   8.771  11.405  1.0898 -0.1707 -0.3420
22782SOL    HW275397  12.367   8.913  11.357  0.1505  0.2924  0.6937
22783SOL     OW75398   1.216   8.296   7.031 -0.1885 -0.1449  0.1307
22783SOL    HW175399   1.131   8.254   7.040  0.3537 -1.2007  0.4676
22783SOL    HW275400   1.206   8.354   6.955 -0.9305 -0.9239 -0.3832
22784SOL     OW75401   0.860   2.935  11.379 -0.0268 -0.3026 -0.0396
22784SOL    HW175402   0.877   2.881  11.302 -0.4661  1.4716 -1.4384
22784SOL    HW275403   0.898   3.020  11.358  0.6930 -0.0210  2.1268
22785SOL     OW75404   6.754   8.722   1.848 -0.2697  0.2709  0.3697
22785SOL    HW175405   6.767   8.630   1.828 -1.3551  0.3784 -0.9759
22785SOL    HW275406   6.662   8.729   1.875 -0.1964  0.9454  0.4785
22786SOL     OW75407   9.480   3.356   9.903  0.1706  0.7037 -0.6912
22786SOL    HW175408   9.390   3.327   9.889 -1.0247  1.7031  3.4417
22786SOL    HW275409   9.485   3.441   9.860 -0.5635  0.2328 -1.7249
22787SOL     OW75410   5.147   8.138   5.871  0.3309 -0.6245  0.3573
22787SOL    HW175411   5.181   8.190   5.798 -1.3959 -2.2018 -1.7229
22787SOL    HW275412   5.140   8.050   5.836  1.2377 -1.8886  3.1147
22788SOL     OW75413   7.577  11.303   4.604  0.2820 -0.2363 -0.0703
22788SOL    HW175414   7.487  11.287   4.576  0.0238  0.4122  0.3686
22788SOL    HW275415   7.630  11.246   4.548 -0.2284  0.8477 -1.7253
22789SOL     OW75416   8.365   9.648  10.403 -0.3391  0.2956 -0.0189
22789SOL    HW175417   8.453   9.622  10.377 -0.8733 -1.0521 -0.5650
22789SOL    HW275418   8.308   9.615  10.334 -1.2147  1.9972 -0.1895
22790SOL     OW75419   1.314  11.057  10.305  0.2198 -0.6284 -0.2958
22790SOL    HW175420   1.303  10.971  10.345  1.1813  0.0646  1.6101
22790SOL    HW275421   1.408  11.062  10.286  1.3671  1.7852  4.4140
22791SOL     OW75422   9.864   3.084   0.128 -0.8506 -0.2262 -0.1598
22791SOL    HW175423   9.800   3.109   0.063 -1.8184 -0.8211  0.5355
22791SOL    HW275424   9.856   3.150   0.197 -1.2581 -0.7303  0.2788
22792SOL     OW75425  10.093  10.673  11.364 -0.2782  0.2400 -0.5676
22792SOL    HW175426  10.071  10.610  11.433  1.6469  0.5074  0.3499
22792SOL    HW275427  10.033  10.651  11.292  0.1406 -2.4800 -0.1964
22793SOL     OW75428  12.288  10.652   3.747 -0.2223  0.2051  0.0715
22793SOL    HW175429  12.314  10.636   3.838 -1.0336 -1.0745  0.1078
22793SOL    HW275430  12.291  10.566   3.705 -0.9463  0.5845 -0.8110
22794SOL     OW75431   2.862   7.174  10.931 -0.2857 -0.0658 -0.1935
22794SOL    HW175432   2.789   7.234  10.921 -0.1791  0.1737  0.4527
22794SOL    HW275433   2.938   7.223  10.902 -0.0709  0.4172  1.1101
22795SOL     OW75434   0.375  11.343   6.164 -0.3437  0.5089  0.1896
22795SOL    HW175435   0.282  11.366   6.153 -0.5162 -0.0949  0.3291
22795SOL    HW275436   0.399  11.298   6.083 -0.8135 -1.3472  1.0215
22796SOL     OW75437  10.474  12.247   1.724  0.0056  0.0110  0.3031
22796SOL    HW175438  10.545  12.295   1.682  1.7596 -0.3147  2.6793
22796SOL    HW275439  10.400  12.307   1.721  0.3619  0.4226 -2.1288
22797SOL     OW75440   1.462  10.061   5.938 -0.5724  0.3118 -0.1003
22797SOL    HW175441   1.381  10.071   5.889 -1.1277  0.4665  0.8152
22797SOL    HW275442   1.531  10.090   5.878 -1.2265  0.4821 -0.7787
22798SOL     OW75443   3.336  10.981   8.405  0.0707 -0.3540  0.0457
22798SOL    HW175444   3.280  10.986   8.328 -0.7359 -3.1575  0.3689
22798SOL    HW275445   3.288  11.029   8.472  0.7877  2.1277 -1.0820
22799SOL     OW75446  12.148   2.035   7.966 -0.2570 -0.7060  0.0202
22799SOL    HW175447  12.230   2.069   8.002  0.0494 -0.8161 -0.5601
22799SOL    HW275448  12.080   2.094   8.000  0.2078  0.1610 -0.5257
22800SOL     OW75449   8.400   6.700   7.854  0.3649  0.9209  0.4435
22800SOL    HW175450   8.332   6.766   7.847 -0.6209  0.1158  2.0129
22800SOL    HW275451   8.482   6.750   7.852 -0.3479  2.1572  1.3550
22801SOL     OW75452   2.434   2.432   6.469  0.6666 -0.5135 -0.2546
22801SOL    HW175453   2.421   2.375   6.394  2.5380 -1.5201  0.1187
22801SOL    HW275454   2.522   2.468   6.457  0.3173  0.6892  0.5809
22802SOL     OW75455  10.035   1.421   1.631  0.6408 -0.6844  0.0563
22802SOL    HW175456   9.983   1.500   1.620  1.7788  0.1022  0.1526
22802SOL    HW275457   9.991   1.356   1.577  0.6403  0.4835 -1.4154
22803SOL     OW75458   0.437   4.705   8.778 -0.0104 -0.0759  0.0319
22803SOL    HW175459   0.401   4.794   8.781  0.4019  0.0797  1.9751
22803SOL    HW275460   0.523   4.713   8.819 -0.1376 -1.4152  0.6170
22804SOL     OW75461   7.036   2.319  10.207 -0.0224 -0.8991 -0.2138
22804SOL    HW175462   7.047   2.374  10.284  0.5982  0.6831 -1.3727
22804SOL    HW275463   6.952   2.275  10.219 -1.0192  1.0693  0.3144
22805SOL     OW75464   1.815   4.045   6.661  0.2616 -0.0445 -0.3354
22805SOL    HW175465   1.839   3.974   6.601  1.0890  0.7872 -1.0159
22805SOL    HW275466   1.872   4.033   6.737 -0.1028 -0.5190 -0.1303
22806SOL     OW75467   2.896   8.311   2.860 -0.6774  0.4638 -0.3991
22806SOL    HW175468   2.857   8.397   2.847 -0.8634  0.4186 -0.1573
22806SOL    HW275469   2.959   8.323   2.932 -0.8178  0.3642 -0.2582
22807SOL     OW75470   2.904   0.317   5.186 -0.2233  0.0983  0.4727
22807SOL    HW175471   2.859   0.401   5.184  0.1454  0.2964  0.4124
22807SOL    HW275472   2.923   0.302   5.279  1.3822  0.9901  0.3177
22808SOL     OW75473  10.581   5.356   1.776 -0.0272  0.0473 -0.2298
22808SOL    HW175474  10.494   5.396   1.787  0.4404  1.2066 -0.6021
22808SOL    HW275475  10.629   5.381   1.855  0.2117  0.0614 -0.3787
22809SOL     OW75476  11.727   0.940   5.227  0.4545 -0.1216  0.3015
22809SOL    HW175477  11.769   0.929   5.142  0.8845  0.8885  0.3638
22809SOL    HW275478  11.796   0.976   5.283  0.2930 -1.1541  1.1909
22810SOL     OW75479   2.105  11.217   7.300  0.4820  0.0035  0.3687
22810SOL    HW175480   2.070  11.129   7.307  0.6774 -0.0420  0.8692
22810SOL    HW275481   2.048  11.270   7.356  0.6932  0.0848  0.5117
22811SOL     OW75482   2.441   6.698   5.156  0.1882  0.0058 -0.0054
22811SOL    HW175483   2.367   6.678   5.099  0.7110 -1.1818 -0.3111
22811SOL    HW275484   2.450   6.620   5.211 -0.0552  0.9667  1.4447
22812SOL     OW75485   0.986   1.399   9.531  0.4742 -0.7129 -0.0994
22812SOL    HW175486   0.918   1.345   9.490  0.4761 -0.6622 -0.1671
22812SOL    HW275487   0.940   1.443   9.603  0.7325 -1.6894  0.6785
22813SOL     OW75488   1.730   9.572  10.888 -0.1886 -0.2244  0.1903
22813SOL    HW175489   1.774   9.654  10.906 -1.1024  0.0478  1.2780
22813SOL    HW275490   1.737   9.522  10.969 -3.2025  0.4725  1.0193
22814SOL     OW75491  12.444   0.724   2.564  0.4366 -0.4349 -0.1654
22814SOL    HW175492  12.427   0.646   2.510  0.0039 -0.9854  0.7375
22814SOL    HW275493  12.473   0.688   2.648 -0.9160  0.3361  0.6580
22815SOL     OW75494   6.261   3.990   1.399 -0.1642  0.0872 -0.1249
22815SOL    HW175495   6.314   3.912   1.415  0.5063  0.2966 -1.2136
22815SOL    HW275496   6.238   4.022   1.487 -0.7245 -1.4965  0.3390
22816SOL     OW75497   9.325   4.022   5.428 -0.5479  0.4878  0.0193
22816SOL    HW175498   9.394   4.045   5.489 -1.1320  1.5665  0.3046
22816SOL    HW275499   9.356   4.053   5.343 -1.2148  2.2425  0.3577
22817SOL     OW75500   6.450   9.639  10.541  0.5488  0.4299  0.6715
22817SOL    HW175501   6.518   9.599  10.596  0.2270 -1.1068 -0.0106
22817SOL    HW275502   6.387   9.674  10.603  2.6325  3.2933  1.4019
22818SOL     OW75503   6.086   1.830   5.783 -0.3901 -0.1279 -0.0161
22818SOL    HW175504   6.087   1.806   5.690  0.8264 -0.6863  0.1238
22818SOL    HW275505   6.173   1.867   5.799 -1.4644  2.4379  0.3059
22819SOL     OW75506   3.053   5.812   6.496  0.3720  0.0157  0.1595
22819SOL    HW175507   3.136   5.768   6.517 -0.1486 -0.6924  0.7853
22819SOL    HW275508   2.990   5.741   6.485 -1.0258  0.5670  3.3835
22820SOL     OW75509   2.982   3.305   2.332 -0.3172  0.2259  0.3009
22820SOL    HW175510   3.014   3.386   2.372 -0.3642 -0.3095  1.4861
22820SOL    HW275511   2.900   3.330   2.289 -0.5310  0.7441  0.9812
22821SOL     OW75512   1.645   2.060   4.548  0.1627 -0.5222  0.4360
22821SOL    HW175513   1.579   2.109   4.598  0.0277  2.7592 -2.6209
22821SOL    HW275514   1.728   2.097   4.577  0.3901 -1.5196  1.0949
22822SOL     OW75515   7.405  12.218   8.385  0.2223 -0.1273 -0.2870
22822SOL    HW175516   7.494  12.185   8.399 -0.6896 -2.5062  0.4270
22822SOL    HW275517   7.416  12.312   8.374  2.6249 -0.0036  2.0563
22823SOL     OW75518   2.582   3.242   3.728  0.3530  0.3072 -1.0749
22823SOL    HW175519   2.500   3.286   3.749  1.4219  1.9016 -0.0168
22823SOL    HW275520   2.626   3.302   3.667  0.2841 -1.0488 -2.5107
22824SOL     OW75521   7.779   6.334  11.617 -0.3753 -0.1760  0.4900
22824SOL    HW175522   7.720   6.261  11.638  1.1005 -1.0534  1.7657
22824SOL    HW275523   7.773   6.392  11.693 -0.2833  0.2030  0.2108
22825SOL     OW75524   4.077   0.897  11.118 -0.4840  0.0447 -0.3236
22825SOL    HW175525   3.983   0.885  11.132 -0.7670 -0.9216 -2.6316
22825SOL    HW275526   4.113   0.808  11.123 -0.2386 -0.0426 -2.5904
22826SOL     OW75527   7.687  10.609   5.545  0.2395 -0.0203 -0.7000
22826SOL    HW175528   7.694  10.567   5.459  0.9084  2.5050 -1.9831
22826SOL    HW275529   7.653  10.696   5.526  0.1025  0.5039  1.6624
22827SOL     OW75530  10.005   3.214   3.162  0.5209 -0.2723 -0.4819
22827SOL    HW175531  10.064   3.140   3.153  0.6903 -0.4058  1.3368
22827SOL    HW275532   9.920   3.175   3.181  0.2242 -0.0285 -1.2548
22828SOL     OW75533   6.773   5.652  12.369  0.4743 -1.2347  0.2977
22828SOL    HW175534   6.769   5.743  12.339  1.8769 -1.0570  0.6156
22828SOL    HW275535   6.805   5.603  12.293 -0.6749 -1.5458 -0.0059
22829SOL     OW75536   1.624   1.073  10.387  0.2821  0.6146 -0.0776
22829SOL    HW175537   1.575   1.149  10.418 -2.4068 -0.7321 -0.6747
22829SOL    HW275538   1.602   1.067  10.294 -0.7647 -1.6217  0.2375
22830SOL     OW75539   6.019   3.171   5.592  0.5510 -0.0129  0.4293
22830SOL    HW175540   6.015   3.220   5.675 -1.8450 -0.4239  0.6187
22830SOL    HW275541   6.020   3.079   5.619 -0.2322 -0.1491  0.0265
22831SOL     OW75542   5.501  10.696   9.141  0.2187  0.9281 -0.4049
22831SOL    HW175543   5.469  10.738   9.221  1.0103  0.0464  0.4009
22831SOL    HW275544   5.558  10.761   9.101  0.8567  0.9066  0.4430
22832SOL     OW75545   9.811   2.038  12.171  0.4223 -0.0857 -0.9087
22832SOL    HW175546   9.745   2.054  12.104 -0.7837 -2.0152 -0.2992
22832SOL    HW275547   9.776   2.082  12.249 -0.3231 -1.3014 -0.5253
22833SOL     OW75548  11.056   7.776   8.157  0.3948 -0.4590 -0.1828
22833SOL    HW175549  11.002   7.781   8.079  0.5024 -0.2239 -0.2430
22833SOL    HW275550  11.096   7.689   8.154 -1.1438 -1.2319  0.6362
22834SOL     OW75551   8.331   4.931   8.370 -0.0421 -0.3357  1.2262
22834SOL    HW175552   8.334   4.967   8.458 -1.6127 -1.2803  1.7009
22834SOL    HW275553   8.353   4.839   8.381 -0.1611 -0.4438  0.5979
22835SOL     OW75554   3.264   7.349   6.106  0.6704  0.1132  0.1245
22835SOL    HW175555   3.194   7.284   6.109  0.4138  0.2345 -1.7775
22835SOL    HW275556   3.340   7.305   6.143  0.1134 -0.7357  0.2806
22836SOL     OW75557  10.660   6.464   0.075 -0.1142 -0.1054 -0.4985
22836SOL    HW175558  10.675   6.558   0.084 -1.7852  0.0690  0.9931
22836SOL    HW275559  10.619   6.453  -0.010 -1.3544  0.7470 -0.0311
22837SOL     OW75560   0.489   7.181   7.822 -0.6100  0.1436 -0.2924
22837SOL    HW175561   0.451   7.266   7.799 -0.8150  0.3980  0.9060
22837SOL    HW275562   0.486   7.130   7.741 -2.3753  0.5821 -0.5424
22838SOL     OW75563   4.039  12.192  12.303  0.3660  0.4187 -0.2678
22838SOL    HW175564   4.077  12.202  12.390  0.8523 -2.0581 -0.1203
22838SOL    HW275565   4.113  12.171  12.246 -0.0675  1.1761 -1.1540
22839SOL     OW75566   1.553  12.072   5.862 -0.0002  0.4380 -0.2109
22839SOL    HW175567   1.520  12.096   5.775 -0.1822  1.2284  0.0747
22839SOL    HW275568   1.622  12.008   5.844  0.9488  1.6346 -1.0451
22840SOL     OW75569   8.461   0.668  10.235  0.3191  0.9212  0.6009
22840SOL    HW175570   8.515   0.619  10.173 -1.0418 -1.1272  0.9334
22840SOL    HW275571   8.468   0.759  10.206  1.6468  0.3364 -1.0723
22841SOL     OW75572   1.065   0.186   6.635  0.4769  0.2809  0.9526
22841SOL    HW175573   1.076   0.281   6.639  1.4232  0.1807  0.9242
22841SOL    HW275574   1.132   0.156   6.573  0.6605 -0.4766  1.4924
22842SOL     OW75575   1.866  11.819   7.468  0.3437 -0.4803 -0.3982
22842SOL    HW175576   1.940  11.832   7.527 -0.1414 -1.8840  0.5774
22842SOL    HW275577   1.894  11.856   7.385  2.6883 -2.2044 -0.4558
22843SOL     OW75578   1.697   3.669   7.759  0.0238 -0.5541  0.1612
22843SOL    HW175579   1.602   3.655   7.767 -0.0490 -0.5545 -0.6291
22843SOL    HW275580   1.718   3.731   7.830 -0.4991 -0.8274  0.5649
22844SOL     OW75581   1.133   7.616   9.707  0.4924  0.8365  0.1506
22844SOL    HW175582   1.147   7.656   9.621  2.4686  0.1214  0.0715
22844SOL    HW275583   1.139   7.522   9.691 -1.0821  0.5974  0.7961
22845SOL     OW75584   2.910   8.998   9.631 -0.0724 -0.0446  0.7905
22845SOL    HW175585   2.919   9.091   9.652 -0.9374 -0.0051  1.0204
22845SOL    HW275586   2.847   8.965   9.695  1.9646 -1.3352  2.2507
22846SOL     OW75587   1.745   6.410  10.355  0.7778 -0.2640 -0.0530
22846SOL    HW175588   1.715   6.455  10.275 -2.0872 -0.3444  0.8548
22846SOL    HW275589   1.697   6.327  10.355 -0.4167  0.3242  2.3882
22847SOL     OW75590   6.820   2.431   8.266  0.5130 -0.1998  0.0954
22847SOL    HW175591   6.820   2.373   8.190 -0.6277  0.9682 -0.8479
22847SOL    HW275592   6.867   2.382   8.333  0.3868 -1.8308 -0.9313
22848SOL     OW75593   1.420   6.769  11.966  0.4757  0.1823 -0.0980
22848SOL    HW175594   1.341   6.815  11.993  0.6476  0.3676  0.0833
22848SOL    HW275595   1.450   6.724  12.045  0.2142 -0.3816 -0.3103
22849SOL     OW75596   8.874   0.272  12.529  0.3673 -0.2878 -0.1960
22849SOL    HW175597   8.824   0.209  12.477 -0.6264 -0.3963  0.8433
22849SOL    HW275598   8.914   0.219  12.598 -1.0714  0.2662  1.1265
22850SOL     OW75599   3.183   0.772   2.201 -0.1781 -0.3553 -0.3038
22850SOL    HW175600   3.200   0.831   2.128 -2.7079 -0.1301 -0.8249
22850SOL    HW275601   3.171   0.830   2.277  1.9349 -0.5559  0.2249
22851SOL     OW75602   1.991   2.574  12.524 -0.3861 -0.0445 -0.4748
22851SOL    HW175603   2.031   2.585  12.438  0.6716  0.6356  0.0636
22851SOL    HW275604   1.927   2.645  12.530 -0.1677  0.1624 -0.5512
22852SOL     OW75605   9.295   4.555   2.875 -0.3530 -0.5017 -0.4887
22852SOL    HW175606   9.240   4.485   2.911 -1.2789  0.5270  0.1808
22852SOL    HW275607   9.311   4.613   2.950  0.2152  0.1202 -1.0810
22853SOL     OW75608  12.401   2.140  10.100  0.6943  0.2276  0.3552
22853SOL    HW175609  12.338   2.091  10.153  0.4724  0.7760  0.6050
22853SOL    HW275610  12.386   2.110  10.011  0.0567  0.3765  0.4103
22854SOL     OW75611   8.396   4.070   5.720  0.0930 -0.3809  0.3713
22854SOL    HW175612   8.447   4.144   5.686  1.3115 -1.5163 -0.3743
22854SOL    HW275613   8.461   4.001   5.734 -1.3197 -2.1261 -1.2817
22855SOL     OW75614   7.599   4.239   0.863 -0.0977 -0.0782 -0.3530
22855SOL    HW175615   7.561   4.170   0.808 -0.9608  0.1666 -0.0771
22855SOL    HW275616   7.680   4.202   0.896 -0.6377 -1.0380 -0.0636
22856SOL     OW75617   7.579  12.165  12.122 -0.3836 -0.3320  0.2651
22856SOL    HW175618   7.519  12.120  12.063 -1.6674  0.4235  0.9417
22856SOL    HW275619   7.633  12.096  12.159 -0.5600 -0.9873 -0.6668
22857SOL     OW75620   8.072   7.331   0.251  0.2582  0.9159  0.0165
22857SOL    HW175621   8.062   7.326   0.346 -1.5749 -0.2633 -0.1762
22857SOL    HW275622   8.126   7.254   0.229 -0.3154  0.5072  0.0138
22858SOL     OW75623   9.960  12.065   4.600 -0.2312  0.5608  0.6243
22858SOL    HW175624   9.886  12.124   4.616 -0.3632  0.3381  0.8375
22858SOL    HW275625   9.928  12.002   4.536 -0.5090 -0.0481  1.3398
22859SOL     OW75626   6.751   2.803   7.046  0.2872 -0.2068  0.3134
22859SOL    HW175627   6.706   2.772   6.967 -0.1634 -1.2003  0.9325
22859SOL    HW275628   6.754   2.898   7.036  1.3309 -0.3822 -1.4595
22860SOL     OW75629   7.468  10.904   3.977 -0.1166  0.1120 -0.1753
22860SOL    HW175630   7.486  10.811   3.966 -0.4267 -0.2064  1.7586
22860SOL    HW275631   7.546  10.947   3.941 -0.4382 -0.7964 -2.1223
22861SOL     OW75632   6.896  12.289   3.092  0.0754  0.4425  0.5389
22861SOL    HW175633   6.927  12.221   3.152 -0.2324 -0.4790 -0.3181
22861SOL    HW275634   6.966  12.354   3.093  0.5502 -0.0584  1.1084
22862SOL     OW75635   4.938   0.088   8.168 -0.1974 -0.4537  0.0932
22862SOL    HW175636   4.904   0.167   8.208  0.5327 -0.1241  0.0766
22862SOL    HW275637   4.930   0.021   8.236 -0.2667 -0.2306  0.3056
22863SOL     OW75638   6.843   1.444  12.463  0.5482 -0.3418 -0.0673
22863SOL    HW175639   6.814   1.531  12.434 -0.8714 -0.7798 -0.0494
22863SOL    HW275640   6.795   1.429  12.545 -0.2892 -1.6889 -0.7664
22864SOL     OW75641   1.493   6.212   9.574 -0.2459  0.0817 -0.4308
22864SOL    HW175642   1.504   6.306   9.559 -1.5198  0.2740 -0.3020
22864SOL    HW275643   1.574   6.185   9.617  0.3870  0.9980 -1.0201
22865SOL     OW75644   4.302   4.057   5.670  0.1603  0.2345 -0.0945
22865SOL    HW175645   4.397   4.066   5.668  0.0781  1.3629  0.1328
22865SOL    HW275646   4.271   4.140   5.707 -0.8734 -0.4006  0.5140
22866SOL     OW75647  12.283   2.999   9.873  0.1786 -0.9839  0.4938
22866SOL    HW175648  12.348   2.933   9.899  0.0561 -0.3143  2.6785
22866SOL    HW275649  12.222   3.003   9.947 -0.5945  0.6168 -0.1815
22867SOL     OW75650   9.821   8.619  10.655 -0.4483  0.2285  0.1608
22867SOL    HW175651   9.914   8.636  10.642 -0.3508  0.2568  0.8390
22867SOL    HW275652   9.787   8.602  10.567  0.3834 -0.7364 -0.0011
22868SOL     OW75653   7.712   5.279   6.322 -0.0867 -0.0226 -0.6778
22868SOL    HW175654   7.621   5.267   6.347  0.0968 -0.2363 -0.0950
22868SOL    HW275655   7.751   5.192   6.325  0.3669  0.1900  0.0330
22869SOL     OW75656  10.546   2.157   9.584 -0.4093  0.2610  0.4994
22869SOL    HW175657  10.618   2.147   9.521 -0.0774  0.3848  0.8499
22869SOL    HW275658  10.591   2.176   9.667 -0.6199 -2.9105  1.4728
22870SOL     OW75659   4.878   3.977   3.835  0.2164 -0.3593 -0.1062
22870SOL    HW175660   4.917   3.959   3.750 -1.0627  2.4425 -1.4229
22870SOL    HW275661   4.832   3.897   3.858 -0.7436 -0.6979 -2.8747
22871SOL     OW75662   2.982   2.837   9.127 -0.4565  0.2580 -0.7446
22871SOL    HW175663   3.068   2.806   9.154 -0.5571  0.5893 -0.0238
22871SOL    HW275664   2.966   2.794   9.043  0.1831 -0.2128 -0.6296
22872SOL     OW75665   6.297   4.615  11.815  0.3212 -0.1562  0.1203
22872SOL    HW175666   6.368   4.680  11.817  0.5065 -0.3499 -0.1500
22872SOL    HW275667   6.304   4.574  11.729 -0.1348 -0.1638  0.0813
22873SOL     OW75668   2.816  11.228  12.425 -0.5347  0.6393 -0.0023
22873SOL    HW175669   2.738  11.183  12.458 -0.6403  0.1961 -0.8236
22873SOL    HW275670   2.791  11.320  12.421 -1.0280  0.4986 -0.2868
22874SOL     OW75671  10.251  10.195   9.232  0.4870  0.6074 -0.6523
22874SOL    HW175672  10.238  10.289   9.251 -1.6540  0.1116  0.7611
22874SOL    HW275673  10.329  10.172   9.282 -0.4824  1.1235  1.2176
22875SOL     OW75674  11.333   6.247   0.479  0.2733  0.0254  0.4170
22875SOL    HW175675  11.354   6.291   0.561 -1.2867  1.7960 -0.0830
22875SOL    HW275676  11.416   6.248   0.430  0.8543  0.2384  1.3811
22876SOL     OW75677   0.099   3.589   7.851  0.2994  0.4260 -0.2035
22876SOL    HW175678   0.078   3.564   7.761  2.5104  1.6240 -1.1228
22876SOL    HW275679   0.014   3.602   7.892 -0.8405 -2.1627 -1.4595
22877SOL     OW75680   5.706  10.464   6.645  0.5129  0.1806 -0.2506
22877SOL    HW175681   5.694  10.411   6.723 -2.0630 -0.0005 -0.6904
22877SOL    HW275682   5.704  10.401   6.573  1.0531  0.5311 -0.5777
22878SOL     OW75683   4.517   2.981   2.571 -0.2544 -0.2794 -0.3768
22878SOL    HW175684   4.536   3.052   2.509 -2.0517 -0.6496 -1.4032
22878SOL    HW275685   4.448   3.016   2.627  0.2936 -0.5024  0.4616
22879SOL     OW75686   6.171   5.065   1.459  0.5406  0.1586  0.0551
22879SOL    HW175687   6.253   5.022   1.438 -0.8922 -2.0546 -1.4522
22879SOL    HW275688   6.145   5.026   1.543 -0.4306 -1.6106 -0.9904
22880SOL     OW75689  11.921   4.701   7.133  0.0390  0.0056 -0.2114
22880SOL    HW175690  11.879   4.636   7.189 -0.0659 -0.2507 -0.5801
22880SOL    HW275691  11.962   4.649   7.064  0.1318  0.3192 -0.3933
22881SOL     OW75692   5.992   8.996   8.198  0.4136 -0.4621 -0.4543
22881SOL    HW175693   6.075   9.024   8.159 -0.2390  0.4625 -1.2431
22881SOL    HW275694   5.997   8.901   8.201  2.2387 -0.3712  1.2000
22882SOL     OW75695  10.323  10.389   2.863  0.4145  0.2062  0.4100
22882SOL    HW175696  10.261  10.430   2.801  1.9964  1.2153 -0.6019
22882SOL    HW275697  10.331  10.299   2.832 -0.4288  0.1047  0.4631
22883SOL     OW75698   2.910   4.906   1.293  0.4735 -0.1545 -1.0597
22883SOL    HW175699   2.945   4.818   1.277  3.6532  0.4386  1.5281
22883SOL    HW275700   2.977   4.965   1.259  0.7405  1.1497  1.5082
22884SOL     OW75701   0.244   1.142   2.214 -0.3636 -0.0009 -0.1889
22884SOL    HW175702   0.177   1.084   2.177  0.7239 -0.5390 -1.3973
22884SOL    HW275703   0.197   1.194   2.279 -2.1914  0.3584 -1.7031
22885SOL     OW75704   7.805   8.128   9.809 -0.8396 -0.2160  0.1101
22885SOL    HW175705   7.844   8.205   9.850 -1.0756 -0.0085 -0.0448
22885SOL    HW275706   7.857   8.054   9.839 -1.2365 -0.1111  1.0702
22886SOL     OW75707   7.349   3.101   9.073  0.2895  0.2371  0.3276
22886SOL    HW175708   7.303   3.028   9.030  0.3525  0.2509  0.2385
22886SOL    HW275709   7.282   3.141   9.129  0.7448 -1.1471  1.9711
22887SOL     OW75710   8.885   4.918   0.693  0.1858 -0.6073 -0.5996
22887SOL    HW175711   8.884   4.923   0.788  1.7081  1.3270 -0.6334
22887SOL    HW275712   8.924   4.832   0.673 -3.0873 -2.5256  0.4013
22888SOL     OW75713  10.577  11.039   2.048  0.6765 -0.0156  0.4248
22888SOL    HW175714  10.582  11.132   2.069 -1.2840 -0.1817  2.0098
22888SOL    HW275715  10.487  11.015   2.071  0.9938 -2.2003 -0.3972
22889SOL     OW75716   6.196   0.710   9.544  0.3441 -0.6418  0.0521
22889SOL    HW175717   6.150   0.640   9.590  1.1778 -1.0533  0.2788
22889SOL    HW275718   6.211   0.675   9.456  1.0864 -0.8945  0.2780
22890SOL     OW75719   1.718   8.887   2.071  0.3300  0.3218  0.1087
22890SOL    HW175720   1.634   8.849   2.047  0.7662 -1.6878  1.5409
22890SOL    HW275721   1.744   8.938   1.995 -1.3768 -0.4206 -1.0208
22891SOL     OW75722   6.681   0.974   6.407  0.2538  0.1570  0.0630
22891SOL    HW175723   6.714   1.002   6.492 -0.9840 -1.8531  1.2751
22891SOL    HW275724   6.735   0.898   6.384 -1.2831 -1.1236  0.5081
22892SOL     OW75725  11.728   9.567   3.366  0.1276 -0.1020 -0.4201
22892SOL    HW175726  11.649   9.582   3.418  1.0232  3.0384  0.2105
22892SOL    HW275727  11.777   9.501   3.415  0.4133  1.9400  2.2545
22893SOL     OW75728   4.331   1.585   2.268  0.1536 -0.3702  0.3086
22893SOL    HW175729   4.263   1.615   2.329 -0.6664 -0.5713 -0.4788
22893SOL    HW275730   4.338   1.491   2.283 -1.9697 -0.9537 -1.6562
22894SOL     OW75731  10.448  11.172  10.457 -0.1548 -0.0212  0.2172
22894SOL    HW175732  10.378  11.230  10.428 -0.0594  0.3982  0.8273
22894SOL    HW275733  10.475  11.126  10.377 -2.3532 -1.5482  0.2571
22895SOL     OW75734   5.338   5.100   8.459  0.0169  0.1319 -0.2458
22895SOL    HW175735   5.340   5.015   8.503 -1.3833 -0.0612 -0.4847
22895SOL    HW275736   5.429   5.126   8.451  0.4699 -1.3693 -0.1999
22896SOL     OW75737   2.110   7.010   3.106 -0.0863  0.2550  0.2105
22896SOL    HW175738   2.090   6.916   3.100 -0.9713  0.1905  2.8245
22896SOL    HW275739   2.053   7.050   3.040  2.5311 -1.1512 -3.2334
22897SOL     OW75740  11.497   6.564   3.081  0.2232  0.5160  0.6489
22897SOL    HW175741  11.407   6.597   3.078 -0.3898 -1.0925  0.0668
22897SOL    HW275742  11.535   6.605   3.158 -1.1901  0.8332  1.2164
22898SOL     OW75743  10.001   1.736   5.504 -0.3698  0.3090 -0.4418
22898SOL    HW175744   9.963   1.652   5.529  1.3238 -0.5629 -0.6369
22898SOL    HW275745  10.023   1.779   5.587  0.8521 -0.4713 -0.3389
22899SOL     OW75746  11.340  10.335   5.490 -0.0007 -0.3364  0.1267
22899SOL    HW175747  11.420  10.299   5.527 -0.5850 -0.8040  0.9831
22899SOL    HW275748  11.361  10.352   5.398  1.3491  0.4289  0.5588
22900SOL     OW75749   5.377  11.627   7.586 -0.0545 -0.5954  0.1286
22900SOL    HW175750   5.292  11.665   7.604  0.2151 -0.0022  0.1586
22900SOL    HW275751   5.396  11.653   7.496  0.3135 -0.3145  0.2875
22901SOL     OW75752   8.710   6.898   9.681 -0.2284 -0.0116 -0.1026
22901SOL    HW175753   8.678   6.809   9.694  0.0656  0.0081  0.8571
22901SOL    HW275754   8.712   6.936   9.769 -1.2296  1.2581 -0.5933
22902SOL     OW75755   6.995   1.818   3.554  0.2315  0.0414 -0.0997
22902SOL    HW175756   6.962   1.735   3.589  1.8461 -0.8911 -0.6859
22902SOL    HW275757   6.952   1.828   3.470 -0.9083  0.4562  0.5094
22903SOL     OW75758   8.981   8.168   5.558 -1.4071 -0.1552 -0.4616
22903SOL    HW175759   9.036   8.230   5.510 -1.3149 -0.8798 -1.3087
22903SOL    HW275760   8.935   8.222   5.623  0.4268  0.4540  0.4057
22904SOL     OW75761   4.805  10.594  10.275 -0.2368  0.0695 -0.3575
22904SOL    HW175762   4.857  10.608  10.196  0.7512 -1.4721 -0.0420
22904SOL    HW275763   4.726  10.551  10.244 -0.8680  1.4339 -0.7194
22905SOL     OW75764   7.206   2.554  10.071  0.5633  0.4946  0.0162
22905SOL    HW175765   7.237   2.488  10.132 -0.5482 -0.8260 -0.7832
22905SOL    HW275766   7.138   2.509  10.020 -0.1770  2.2349 -0.6020
22906SOL     OW75767   3.319   1.938   9.306  0.6176 -0.4103  0.2394
22906SOL    HW175768   3.254   1.997   9.267  0.4871 -0.5912  0.1817
22906SOL    HW275769   3.269   1.860   9.329  0.4193  0.2048  2.0085
22907SOL     OW75770   7.686   5.862   8.946 -0.0076 -0.6542 -0.0464
22907SOL    HW175771   7.728   5.799   8.887 -0.7908 -0.7473 -0.5346
22907SOL    HW275772   7.744   5.937   8.947  0.8097 -1.2724  0.3286
22908SOL     OW75773   2.329   1.828   0.092  0.1458  0.3763  0.2512
22908SOL    HW175774   2.317   1.752   0.149 -1.1594 -0.0848 -0.5844
22908SOL    HW275775   2.397   1.802   0.030  1.2675  0.7247  1.2999
22909SOL     OW75776   7.993   9.726  11.933  0.2379  0.2448  0.2995
22909SOL    HW175777   8.013   9.811  11.973 -1.7679  0.8513  0.1071
22909SOL    HW275778   7.969   9.747  11.843 -2.6797 -0.1603  0.8947
22910SOL     OW75779  11.982   5.161   0.885  0.0030 -0.7388 -0.0193
22910SOL    HW175780  11.941   5.191   0.803  0.3717 -0.4498 -0.1001
22910SOL    HW275781  11.937   5.211   0.953  0.3184 -0.3110 -0.1204
22911SOL     OW75782   8.440  11.920   5.884  0.3218  0.0336  0.4190
22911SOL    HW175783   8.385  11.844   5.864 -2.2400  1.3132  2.1634
22911SOL    HW275784   8.489  11.894   5.962 -1.4401  0.5227  1.7315
22912SOL     OW75785  11.481   0.378  12.062  0.2563 -0.0597 -0.0414
22912SOL    HW175786  11.435   0.348  12.141  1.2568 -1.9437 -0.1301
22912SOL    HW275787  11.424   0.352  11.990 -0.2715  0.9567 -0.0231
22913SOL     OW75788   8.546   6.373   3.845  0.2542 -0.2278  0.6037
22913SOL    HW175789   8.628   6.411   3.815  0.0327  1.4588  1.9626
22913SOL    HW275790   8.482   6.443   3.835 -0.7764 -1.1533  0.6053
22914SOL     OW75791   0.138   6.807  12.556 -0.1924 -0.6902 -0.0445
22914SOL    HW175792   0.190   6.762  12.489 -1.7254  0.7278 -2.3110
22914SOL    HW275793   0.057   6.756  12.562  0.2331 -1.2358  1.3330
22915SOL     OW75794   2.909   9.159   4.928  0.2396  0.0669  0.2689
22915SOL    HW175795   2.975   9.228   4.916  0.6319 -0.4616 -0.7178
22915SOL    HW275796   2.853   9.192   4.998  0.8662  1.0523  0.3318
22916SOL     OW75797   8.740   5.179   6.551  0.6844 -0.1941 -0.0875
22916SOL    HW175798   8.769   5.092   6.523  1.7023  0.3818 -0.8910
22916SOL    HW275799   8.667   5.200   6.493 -0.3846 -1.0023  0.9186
22917SOL     OW75800   9.135   5.999   5.202 -0.0549 -0.5051 -0.1578
22917SOL    HW175801   9.050   6.010   5.160  0.4166 -0.0673 -1.0075
22917SOL    HW275802   9.198   5.999   5.130  0.5367 -2.6581  0.2770
22918SOL     OW75803   6.089   3.090   9.237  0.7806  0.1188 -0.3153
22918SOL    HW175804   6.023   3.110   9.171  1.6516 -1.5744 -1.7958
22918SOL    HW275805   6.169   3.131   9.204  0.7397  1.2934  0.9478
22919SOL     OW75806   0.811   2.329  12.415  0.4508 -0.4045  0.0298
22919SOL    HW175807   0.757   2.407  12.409  1.2339  0.0185 -2.5349
22919SOL    HW275808   0.793   2.279  12.335  0.9907 -2.1924  0.9467
22920SOL     OW75809  11.026   6.433  10.399  0.1216  0.1706 -0.3928
22920SOL    HW175810  11.113   6.399  10.420  1.1105  1.2587 -2.4387
22920SOL    HW275811  11.036   6.528  10.399 -0.5106  0.3007 -2.6121
22921SOL     OW75812   2.784   3.230   1.880  0.7958 -0.0825  0.2813
22921SOL    HW175813   2.788   3.190   1.966 -0.6985 -0.8500  0.0174
22921SOL    HW275814   2.873   3.220   1.845  1.0398 -1.0893  1.1343
22922SOL     OW75815   7.402   8.607   5.616 -0.1005  0.2334 -0.4622
22922SOL    HW175816   7.359   8.572   5.694 -0.3025 -1.9627 -1.4962
22922SOL    HW275817   7.339   8.591   5.545  0.5383  1.1838 -1.2611
22923SOL     OW75818   5.785   5.718   1.519 -0.2729  0.3953  0.7150
22923SOL    HW175819   5.738   5.801   1.519  0.5422  0.8734 -0.0277
22923SOL    HW275820   5.858   5.731   1.580  0.2870  0.4967  0.0400
22924SOL     OW75821  10.168   4.381  12.475  0.2988  0.0390  0.2181
22924SOL    HW175822  10.211   4.465  12.493 -1.3200  0.7801  0.8235
22924SOL    HW275823  10.164   4.377  12.379  1.6297 -0.0399  0.1401
22925SOL     OW75824   8.164   0.195   3.849  0.5337  0.2195 -0.5484
22925SOL    HW175825   8.210   0.209   3.932 -0.2439 -0.5521  0.0288
22925SOL    HW275826   8.071   0.205   3.871  0.2444 -1.0757 -1.0784
22926SOL     OW75827  10.279   2.334  11.349  0.8570  0.0253  0.2957
22926SOL    HW175828  10.304   2.354  11.259  1.8838  1.7479  0.9191
22926SOL    HW275829  10.337   2.262  11.374  1.6933  0.6223  0.0996
22927SOL     OW75830   0.305  10.983   2.916  0.5832  0.2120  0.3225
22927SOL    HW175831   0.253  10.976   2.996 -0.0331 -0.6183 -0.1257
22927SOL    HW275832   0.327  10.892   2.895  1.8473  0.5143  0.2506
22928SOL     OW75833   7.641   9.520   9.890 -0.3902 -0.6823  0.0442
22928SOL    HW175834   7.711   9.507   9.827  0.1879 -2.9846  1.0655
22928SOL    HW275835   7.677   9.490   9.973 -1.8183  0.3239  1.0878
22929SOL     OW75836   0.053   1.962   3.452  0.0157 -0.2469 -0.1554
22929SOL    HW175837   0.090   2.019   3.520 -0.2378  1.2119 -1.1892
22929SOL    HW275838   0.097   1.878   3.465  0.2686  0.0971  1.5482
22930SOL     OW75839  10.849   3.902  12.435 -0.0170 -0.3544 -0.3053
22930SOL    HW175840  10.794   3.934  12.363 -0.3820  1.8731  0.8777
22930SOL    HW275841  10.788   3.861  12.495  0.1650 -1.3848 -0.8133
22931SOL     OW75842   6.385   1.414   3.220  0.0711 -0.2885  0.3311
22931SOL    HW175843   6.477   1.426   3.194 -0.3492 -1.1382 -1.7944
22931SOL    HW275844   6.338   1.482   3.172 -0.8713 -2.5746 -2.2657
22932SOL     OW75845   9.750   3.111   3.334 -0.3353  0.6149 -0.0028
22932SOL    HW175846   9.776   3.025   3.369  2.5343  1.4060  0.0016
22932SOL    HW275847   9.767   3.172   3.406 -0.1614  1.4857 -0.7707
22933SOL     OW75848   0.940   5.910  12.510 -0.3706  0.5578  0.1954
22933SOL    HW175849   0.907   5.999  12.494  0.0864  0.4624 -1.4335
22933SOL    HW275850   0.970   5.912  12.601  1.3251  2.6352 -0.3262
22934SOL     OW75851   1.966   9.352   4.924  0.0168 -0.4431  1.1024
22934SOL    HW175852   1.958   9.257   4.926 -2.9265 -0.3246  0.7706
22934SOL    HW275853   1.987   9.372   4.832  0.4517 -0.7633  1.1317
22935SOL     OW75854   0.714   7.223   5.195 -0.1684  0.0574 -0.0849
22935SOL    HW175855   0.630   7.231   5.241  0.3487 -0.1084  0.9131
22935SOL    HW275856   0.768   7.293   5.233 -0.0481  0.5638 -1.1649
22936SOL     OW75857  11.845   8.827  10.362  0.4680  0.3916  0.4858
22936SOL    HW175858  11.823   8.742  10.400 -0.3963  1.0321  1.4795
22936SOL    HW275859  11.940   8.829  10.359  0.5497  0.1153  2.1919
22937SOL     OW75860   4.754   2.212   9.386 -0.4369  0.5483 -0.2963
22937SOL    HW175861   4.732   2.228   9.478 -2.1901 -0.5084 -0.4986
22937SOL    HW275862   4.673   2.228   9.338 -1.0068 -3.5575 -1.0778
22938SOL     OW75863   4.144   0.893   4.975  0.7203 -0.1949  0.3584
22938SOL    HW175864   4.114   0.823   5.033 -2.7961  0.2275 -0.6693
22938SOL    HW275865   4.179   0.960   5.034  0.5478 -1.2349  1.6907
22939SOL     OW75866   9.990   4.389   0.093 -0.1078 -0.4587 -0.3535
22939SOL    HW175867   9.983   4.369  -0.000 -1.3750  2.7493 -1.0687
22939SOL    HW275868  10.051   4.462   0.098 -1.2052  0.4144  1.1306
22940SOL     OW75869   4.785   9.730  11.603 -0.1589  0.3083 -0.3136
22940SOL    HW175870   4.765   9.822  11.587 -0.9943  0.3678  0.9086
22940SOL    HW275871   4.824   9.699  11.521 -0.2561  1.6301 -0.8862
22941SOL     OW75872  10.486   0.173  11.755  0.7019 -0.2417  0.4988
22941SOL    HW175873  10.477   0.227  11.676  2.5220  0.7822  0.9410
22941SOL    HW275874  10.409   0.194  11.807  1.1222  1.6115  0.4407
22942SOL     OW75875  11.154   4.617   5.022 -0.2990 -0.0139  0.2441
22942SOL    HW175876  11.064   4.609   5.054 -0.3558  0.0790  0.1088
22942SOL    HW275877  11.150   4.587   4.931 -0.1808 -0.0733  0.2591
22943SOL     OW75878   5.499   2.401   8.867  0.1327  0.0011 -0.2103
22943SOL    HW175879   5.513   2.411   8.961  0.7314  2.4520 -0.4777
22943SOL    HW275880   5.474   2.310   8.855 -2.2688  0.1799  2.5762
22944SOL     OW75881   9.977   0.248   6.961 -0.3351 -0.2203 -0.0537
22944SOL    HW175882  10.016   0.320   7.011  1.2378 -0.2041 -1.2196
22944SOL    HW275883   9.942   0.289   6.882 -1.4763 -0.4520  0.3054
22945SOL     OW75884   1.327   7.133   0.468  0.1098 -0.1310 -0.3811
22945SOL    HW175885   1.347   7.055   0.519 -1.4676  0.1594  0.7589
22945SOL    HW275886   1.361   7.114   0.381 -0.2222 -2.0993 -0.1330
22946SOL     OW75887   9.428   0.257   7.989  0.2757  0.6404 -0.8935
22946SOL    HW175888   9.451   0.273   8.081  2.3919  2.5023 -1.6550
22946SOL    HW275889   9.423   0.344   7.950 -0.1394 -0.1233 -2.6574
22947SOL     OW75890   6.050   2.523   0.854  0.0815 -0.1885 -0.2517
22947SOL    HW175891   6.104   2.479   0.920 -0.5610 -0.9642 -0.2210
22947SOL    HW275892   6.110   2.583   0.810  0.6637 -0.0938  0.6320
22948SOL     OW75893   5.773  12.090   7.174 -0.7876  0.0895 -0.2139
22948SOL    HW175894   5.833  12.099   7.100 -0.5103 -0.2091 -0.0261
22948SOL    HW275895   5.775  12.175   7.218  0.0895 -0.1575  0.2392
22949SOL     OW75896   4.092   3.469   8.286  0.2092  0.3662  0.5024
22949SOL    HW175897   4.125   3.555   8.313  0.6635 -0.1771  1.7387
22949SOL    HW275898   4.000   3.483   8.265  0.2795  1.1469  0.6996
22950SOL     OW75899   0.935   6.087   0.699  0.2846 -0.9235 -0.3319
22950SOL    HW175900   1.023   6.098   0.661  1.1129 -1.5134  1.3250
22950SOL    HW275901   0.894   6.173   0.686  1.3887 -0.3807 -0.4390
22951SOL     OW75902  12.559   3.845   2.559 -0.4941  0.0454  0.0123
22951SOL    HW175903  12.577   3.903   2.485 -1.0468  0.8311  0.4813
22951SOL    HW275904  12.465   3.850   2.572 -0.2201  1.6616  2.1104
22952SOL     OW75905   2.808   0.067  12.487  0.6819 -1.0355 -0.1404
22952SOL    HW175906   2.839   0.144  12.439  0.5678 -1.7942 -1.4716
22952SOL    HW275907   2.887   0.031  12.528  0.7182 -0.1690  0.5935
22953SOL     OW75908   4.806   0.569   5.610 -0.5854  0.0650  0.2135
22953SOL    HW175909   4.805   0.558   5.705  0.6156  0.9235  0.3427
22953SOL    HW275910   4.893   0.539   5.584 -0.1956  1.6076 -0.3702
22954SOL     OW75911   0.943   8.444   9.171  0.3689  0.0535 -0.5593
22954SOL    HW175912   0.870   8.396   9.132  0.4006  0.4484 -1.1227
22954SOL    HW275913   0.913   8.466   9.259 -0.9768  1.8152 -1.3734
22955SOL     OW75914   9.567  12.256   8.268 -0.1034 -0.1563 -0.0513
22955SOL    HW175915   9.538  12.244   8.178 -0.0205 -0.1964 -0.0726
22955SOL    HW275916   9.659  12.281   8.261 -0.2048  0.2319  0.0074
22956SOL     OW75917  10.266   8.074   5.446  0.4926 -0.1258  0.0351
22956SOL    HW175918  10.316   8.035   5.374  1.4616  1.5326 -0.2519
22956SOL    HW275919  10.181   8.094   5.407  0.2557 -1.2233 -0.0232
22957SOL     OW75920   7.962   6.801   9.588 -0.3209  0.2899 -0.1650
22957SOL    HW175921   7.970   6.764   9.500 -1.6088 -0.0945 -0.1443
22957SOL    HW275922   7.880   6.851   9.586 -1.2105 -1.0035  1.2253
22958SOL     OW75923   7.795   7.831   3.962 -0.0488  0.1854 -0.7137
22958SOL    HW175924   7.810   7.902   4.024 -0.2129  0.9716 -1.5548
22958SOL    HW275925   7.877   7.781   3.963  0.4466  0.9879 -0.8733
22959SOL     OW75926   5.991   5.184   9.000  0.4461  0.4461 -0.0227
22959SOL    HW175927   5.958   5.094   8.998  1.5203  0.0506 -0.6258
22959SOL    HW275928   5.981   5.212   9.091  0.6671 -0.4972  0.2980
22960SOL     OW75929   4.078   5.138   9.702  0.4646 -0.0790  0.1167
22960SOL    HW175930   4.107   5.089   9.625  1.0505  1.2320 -0.5144
22960SOL    HW275931   4.111   5.227   9.689 -1.2776  0.7256  0.8222
22961SOL     OW75932   9.240   8.790   6.023  0.0712  0.0370  0.1946
22961SOL    HW175933   9.272   8.720   6.081  0.6096 -0.0912 -0.2484
22961SOL    HW275934   9.312   8.853   6.022  0.8304 -0.7790 -1.7165
22962SOL     OW75935   4.219  11.859   8.704 -0.3947 -0.4151  0.4409
22962SOL    HW175936   4.168  11.891   8.778  0.0597 -0.1332  0.6339
22962SOL    HW275937   4.294  11.918   8.699 -1.1773  0.5196 -1.1897
22963SOL     OW75938   7.189  10.636   7.434 -0.3081 -0.2376 -0.0668
22963SOL    HW175939   7.186  10.576   7.508 -1.2800  1.5635  1.4392
22963SOL    HW275940   7.278  10.629   7.400  0.9979  0.6505  2.8519
22964SOL     OW75941   5.718  11.264  11.820 -0.2482 -0.2113  0.3398
22964SOL    HW175942   5.771  11.186  11.834  1.1656  0.8099  0.8320
22964SOL    HW275943   5.677  11.250  11.735  2.1220 -0.3374 -0.8637
22965SOL     OW75944   5.976   1.188   3.199  0.4037  0.3201 -0.1756
22965SOL    HW175945   5.907   1.197   3.133  1.1159  0.7914 -0.8779
22965SOL    HW275946   6.056   1.213   3.153  1.2847 -1.6235  0.2021
22966SOL     OW75947   8.543   2.797   7.411 -0.0676  0.6314  0.3936
22966SOL    HW175948   8.508   2.754   7.333 -0.1947 -0.9194  1.2575
22966SOL    HW275949   8.467   2.840   7.450 -0.2442  0.4194  0.2859
22967SOL     OW75950  10.982   5.070   2.369 -0.1849 -0.3160 -0.1251
22967SOL    HW175951  11.066   5.093   2.409 -0.4566 -0.7953  0.7262
22967SOL    HW275952  10.939   5.154   2.355 -0.5288 -0.1901  1.5676
22968SOL     OW75953   2.975   0.583   6.699  0.3359 -0.0210  0.3206
22968SOL    HW175954   2.917   0.657   6.681 -0.3284 -0.2750  1.3248
22968SOL    HW275955   3.063   0.617   6.679 -0.0381  0.7574 -0.0539
22969SOL     OW75956  10.257   8.742  12.307  0.6189 -0.0730 -0.0092
22969SOL    HW175957  10.239   8.764  12.216  1.9875  0.2378 -0.2210
22969SOL    HW275958  10.300   8.657  12.304 -0.1508 -0.4991  0.4411
22970SOL     OW75959   0.987   0.034  10.407  0.0742 -0.1942  0.2107
22970SOL    HW175960   0.925   0.059  10.339  1.2600  0.3541 -0.7274
22970SOL    HW275961   1.053  -0.018  10.361  0.4932 -0.4665  1.1028
22971SOL     OW75962   2.023   3.388   4.775  0.4863  0.3348 -0.0277
22971SOL    HW175963   2.088   3.321   4.754 -0.5869 -0.7704  0.0577
22971SOL    HW275964   2.049   3.464   4.724 -0.1611 -1.2208 -2.8896
22972SOL     OW75965  11.997  12.593   1.968 -0.3673 -0.4197  0.0866
22972SOL    HW175966  12.053  12.532   2.016  0.4827  0.5972  0.4176
22972SOL    HW275967  11.972  12.545   1.888  1.0838 -0.8399 -0.1337
22973SOL     OW75968   4.716   0.037   7.181  0.4445 -0.0374 -0.0149
22973SOL    HW175969   4.757   0.013   7.264 -0.3809 -2.6034 -0.2418
22973SOL    HW275970   4.622   0.039   7.200  0.4027  2.4566 -0.2379
22974SOL     OW75971   3.654   7.788  10.769  0.2741 -0.3060 -0.6292
22974SOL    HW175972   3.634   7.717  10.830 -2.2411  0.9438  0.1441
22974SOL    HW275973   3.748   7.783  10.756  0.9784 -0.6751  3.3716
22975SOL     OW75974  10.289  12.151  12.339  0.2162  0.1241 -0.2038
22975SOL    HW175975  10.236  12.074  12.324  0.6472 -0.1581 -0.3007
22975SOL    HW275976  10.228  12.217  12.372 -0.4755  0.2608 -1.6616
22976SOL     OW75977   0.899  10.889   3.135  0.0309  0.6735  0.0578
22976SOL    HW175978   0.897  10.888   3.039  0.0967  0.8501  0.0549
22976SOL    HW275979   0.810  10.915   3.161 -0.7629 -1.7962  0.0884
22977SOL     OW75980   0.419  11.057   4.926 -0.8558  0.1675 -0.5904
22977SOL    HW175981   0.378  10.997   4.989  0.3708  0.2362  0.3067
22977SOL    HW275982   0.402  11.144   4.961  1.1721  0.1615  0.5667
22978SOL     OW75983   1.833   8.919  11.220 -0.0114  0.2713  0.0775
22978SOL    HW175984   1.828   8.968  11.138  0.6019 -1.6693 -1.1881
22978SOL    HW275985   1.748   8.876  11.228  0.1386 -0.0301  0.1038
22979SOL     OW75986   7.436  12.378   8.955 -0.0646 -0.6767 -0.4837
22979SOL    HW175987   7.395  12.327   9.025  0.7684 -1.2607 -0.4100
22979SOL    HW275988   7.398  12.342   8.874 -2.1684  1.0063 -0.3212
22980SOL     OW75989   0.332   6.631   3.986  0.1820  0.7662  0.0643
22980SOL    HW175990   0.356   6.547   4.025  1.2147  1.0574  0.0892
22980SOL    HW275991   0.280   6.608   3.909  2.0941 -0.0082 -1.0741
22981SOL     OW75992   4.174   2.889   2.397  0.4382 -0.2947 -0.2021
22981SOL    HW175993   4.127   2.877   2.480  1.6454  1.5982  0.8251
22981SOL    HW275994   4.231   2.812   2.389 -0.0516 -0.7322  0.4553
22982SOL     OW75995   6.547   0.967   8.522  0.2581  0.5174  0.5940
22982SOL    HW175996   6.530   0.968   8.616  0.7186  1.6882  0.6752
22982SOL    HW275997   6.625   1.020   8.511  0.7393 -0.3611 -0.3666
22983SOL     OW75998   5.105   8.524   6.083 -0.2581 -0.1234  0.1889
22983SOL    HW175999   5.170   8.518   6.013  0.6652 -2.4389  1.1608
22983SOL    HW276000   5.039   8.584   6.048 -0.4049 -1.9704 -3.1558
22984SOL     OW76001  12.315   3.185   4.169 -0.4000 -0.1827  0.0382
22984SOL    HW176002  12.369   3.172   4.091  0.5093 -2.6284  0.9737
22984SOL    HW276003  12.225   3.180   4.138 -0.0535 -1.7386 -0.8121
22985SOL     OW76004   6.916   2.370   9.226  0.2932  0.9121 -0.0834
22985SOL    HW176005   6.951   2.398   9.142  0.7446  0.7450  0.0454
22985SOL    HW276006   6.959   2.426   9.290  0.8987  0.2091  0.1387
22986SOL     OW76007  11.134   0.908  10.304 -0.6247  0.1025  0.7344
22986SOL    HW176008  11.126   0.995  10.267 -1.2744 -0.7179 -1.1510
22986SOL    HW276009  11.047   0.888  10.339 -1.0654 -0.5133 -0.6214
22987SOL     OW76010   5.630   1.843   0.460 -0.1360  0.1394  0.2545
22987SOL    HW176011   5.590   1.818   0.377  0.4712  0.9707 -0.3039
22987SOL    HW276012   5.685   1.918   0.439  1.2324 -0.5715  1.1149
22988SOL     OW76013  12.544   9.717   6.664 -0.4100 -0.0980 -0.1612
22988SOL    HW176014  12.500   9.788   6.709 -0.1928  0.1037 -0.2630
22988SOL    HW276015  12.560   9.651   6.732 -0.9428 -0.2104 -0.1453
22989SOL     OW76016  10.746   9.079   6.961  0.0722 -0.2604 -0.3786
22989SOL    HW176017  10.741   9.134   7.039 -0.2830 -0.6729 -0.1020
22989SOL    HW276018  10.825   9.026   6.974  0.8832  0.7623 -1.0416
22990SOL     OW76019   5.903   6.875   2.601 -0.0557  0.6044  0.3791
22990SOL    HW176020   5.989   6.916   2.598  0.0231  0.4124 -0.2309
22990SOL    HW276021   5.900   6.821   2.521 -0.0263 -0.8079  1.3026
22991SOL     OW76022   5.101   0.695   7.778  0.0789  0.2093  0.0451
22991SOL    HW176023   5.040   0.763   7.750 -0.2026 -0.1062 -0.1119
22991SOL    HW276024   5.065   0.664   7.861  0.1709  0.2056  0.0830
22992SOL     OW76025   4.561   3.265  10.773 -0.3269 -0.0571  0.1954
22992SOL    HW176026   4.547   3.171  10.778  1.0252 -0.5588 -2.8396
22992SOL    HW276027   4.556   3.285  10.679 -0.7811  2.9461  0.7444
22993SOL     OW76028   0.248   3.231   5.200  0.6337 -0.9129 -0.1686
22993SOL    HW176029   0.325   3.239   5.144  2.4950 -0.0693  2.3368
22993SOL    HW276030   0.269   3.280   5.279 -1.3573 -2.9056  1.7948
22994SOL     OW76031   1.298   3.488  12.117 -0.1767  0.2098 -0.2005
22994SOL    HW176032   1.360   3.476  12.188  0.2996  3.3437  0.0231
22994SOL    HW276033   1.328   3.428  12.048  1.3060 -0.4542  0.9742
22995SOL     OW76034   3.858   7.527   0.568 -0.5694 -0.1669 -0.2295
22995SOL    HW176035   3.846   7.597   0.504  0.0997  1.2385  1.1006
22995SOL    HW276036   3.870   7.448   0.516 -2.1563  0.5478 -1.7755
22996SOL     OW76037   8.915   4.079   0.638 -0.4611 -0.6852 -0.1012
22996SOL    HW176038   8.892   4.104   0.548 -2.3161 -0.7968  0.3068
22996SOL    HW276039   8.940   3.987   0.631 -0.0466 -0.5435 -0.5722
22997SOL     OW76040  10.968   4.660   7.979 -0.3112  0.3436  0.2907
22997SOL    HW176041  10.974   4.577   7.931 -0.9830  0.8877 -0.7732
22997SOL    HW276042  10.987   4.727   7.913 -1.6680  1.1346  0.6692
22998SOL     OW76043   9.035   0.823   8.313  0.1416 -0.8055 -0.5264
22998SOL    HW176044   9.004   0.890   8.374  0.3576 -1.8853  0.8427
22998SOL    HW276045   8.969   0.821   8.244 -1.4608 -1.2047  0.9299
22999SOL     OW76046   0.104  12.140   4.356 -0.3437  0.3546 -0.3013
22999SOL    HW176047   0.133  12.063   4.306 -0.2710  0.8707 -1.0718
22999SOL    HW276048   0.056  12.104   4.430  0.5987 -0.4727 -0.0675
23000SOL     OW76049   9.904   9.200   3.163 -0.0166  0.0903  0.4000
23000SOL    HW176050   9.843   9.266   3.194  1.6065  1.6507  0.4613
23000SOL    HW276051   9.948   9.241   3.088 -0.1965 -1.6195 -0.7295
23001SOL     OW76052  10.719   0.834   6.002 -0.4227  0.1563  0.5998
23001SOL    HW176053  10.659   0.893   6.046  0.2186  1.7252 -0.5478
23001SOL    HW276054  10.804   0.877   6.007 -0.1657 -0.0430 -1.3383
23002SOL     OW76055   8.917   1.869   4.552  0.5686  0.3049 -0.2932
23002SOL    HW176056   8.878   1.782   4.563  1.2456  0.0137 -0.1638
23002SOL    HW276057   8.978   1.877   4.625  2.6924 -0.3190 -1.9050
23003SOL     OW76058   7.969   7.266  12.440  0.1144  0.3947  0.3214
23003SOL    HW176059   7.889   7.255  12.389  0.5940  0.6546 -0.5209
23003SOL    HW276060   8.038   7.232  12.383  0.6869  0.8548  0.7267
23004SOL     OW76061  11.468   6.623   1.021 -0.3079  0.2840 -0.1072
23004SOL    HW176062  11.378   6.643   1.043 -0.6168 -0.0451 -1.0138
23004SOL    HW276063  11.485   6.538   1.062  1.1770  2.3494  4.2056
23005SOL     OW76064   4.093   9.450   2.153 -0.1395 -0.1665  0.2744
23005SOL    HW176065   4.058   9.415   2.234 -0.7947 -0.5367 -0.1635
23005SOL    HW276066   4.083   9.380   2.089 -0.0424  0.2709 -0.2356
23006SOL     OW76067   6.196   6.121   1.375 -0.0519  0.2780  0.2310
23006SOL    HW176068   6.176   6.214   1.370  2.0752  0.8798  1.8996
23006SOL    HW276069   6.275   6.110   1.322 -0.9734 -0.8831 -1.0156
23007SOL     OW76070   5.422   3.223   9.154  0.2898  0.5202 -0.0783
23007SOL    HW176071   5.386   3.166   9.222  0.9889 -0.1939 -0.2847
23007SOL    HW276072   5.457   3.163   9.088  2.0249  1.1343  0.2129
23008SOL     OW76073   6.285   6.445   9.724 -0.0303  0.2359  0.5418
23008SOL    HW176074   6.255   6.446   9.814 -1.1607 -0.3043  0.1926
23008SOL    HW276075   6.288   6.353   9.700  0.2959  0.3702  0.0395
23009SOL     OW76076   3.255   6.029   1.254  0.1597 -0.0545 -0.2409
23009SOL    HW176077   3.185   6.033   1.319 -0.9086  0.8067 -1.3906
23009SOL    HW276078   3.322   6.089   1.287  0.6885 -1.3398  1.1736
23010SOL     OW76079   0.195   0.935   5.973 -0.4005 -0.1726  0.2035
23010SOL    HW176080   0.156   0.952   5.887 -2.2706 -0.2985  0.9709
23010SOL    HW276081   0.276   0.890   5.954 -1.2045 -0.9914 -1.4907
23011SOL     OW76082  11.031  11.327   9.927 -0.0625  0.4405  0.0281
23011SOL    HW176083  11.123  11.328   9.900 -0.0720  3.0394 -0.1565
23011SOL    HW276084  10.985  11.373   9.857 -1.2099  0.8491  1.0165
23012SOL     OW76085   3.008   3.907   7.290 -0.1095  0.0517 -0.2753
23012SOL    HW176086   2.978   3.822   7.258 -1.1866  0.2059  0.2846
23012SOL    HW276087   3.091   3.888   7.334  0.6376 -0.3900 -1.8057
23013SOL     OW76088   9.029   2.058   6.935  0.2555  0.1055 -0.1492
23013SOL    HW176089   9.012   1.988   6.873 -1.5586 -0.8901  1.4103
23013SOL    HW276090   9.106   2.102   6.899  1.9368 -3.0790 -0.8263
23014SOL     OW76091   9.943   5.927   0.581  0.0447 -0.0299 -0.1031
23014SOL    HW176092   9.917   6.015   0.553 -0.3981 -0.6767 -1.8332
23014SOL    HW276093   9.860   5.880   0.590  0.0751  0.3118  3.1699
23015SOL     OW76094   7.985   1.709   3.183 -0.7289  0.0566  0.0839
23015SOL    HW176095   7.967   1.664   3.265  1.0365 -1.3505 -0.2314
23015SOL    HW276096   8.038   1.785   3.209 -2.0374  0.8869  0.4196
23016SOL     OW76097   9.182   5.881  11.772 -0.3146 -0.1300  0.4112
23016SOL    HW176098   9.266   5.836  11.764 -0.6341 -0.9486  1.3736
23016SOL    HW276099   9.204   5.973  11.782  0.4870 -0.3781  0.9882
23017SOL     OW76100   2.855   2.603   2.177  0.0352 -0.4556  0.7270
23017SOL    HW176101   2.816   2.580   2.261  0.9218 -1.1015  0.9693
23017SOL    HW276102   2.861   2.521   2.130  1.1163 -0.3657  0.7023
23018SOL     OW76103   4.058   2.123   6.951  0.2717  0.4380 -0.3571
23018SOL    HW176104   4.146   2.126   6.988 -0.4551  0.9594  1.4380
23018SOL    HW276105   4.056   2.040   6.903  2.1270  1.0201 -1.5240
23019SOL     OW76106   7.460   0.417  11.078 -0.1314  0.2140 -0.0029
23019SOL    HW176107   7.409   0.487  11.037 -0.2460 -0.2022 -0.5850
23019SOL    HW276108   7.402   0.382  11.146 -0.7899 -0.4986 -0.8993
23020SOL     OW76109   3.414  10.921   6.788  0.0879  0.5478 -0.4608
23020SOL    HW176110   3.446  10.981   6.856  0.3291 -0.6979  0.5697
23020SOL    HW276111   3.320  10.916   6.804  0.2987 -0.6759  0.6162
23021SOL     OW76112   7.270   3.118   9.826 -0.1176 -0.7172 -0.1680
23021SOL    HW176113   7.228   3.166   9.756 -0.0046 -2.1604 -1.2690
23021SOL    HW276114   7.204   3.056   9.857 -0.3581  0.2627  1.4127
23022SOL     OW76115   2.064  11.389   5.841 -0.0326  0.2554  0.1537
23022SOL    HW176116   2.031  11.476   5.866 -1.1484 -0.1860  0.2651
23022SOL    HW276117   2.159  11.401   5.834 -0.1162  1.3690  0.6440
23023SOL     OW76118   5.588   3.345   4.281  0.2036  0.1410 -0.7988
23023SOL    HW176119   5.628   3.300   4.206 -0.4536  1.2940 -1.8951
23023SOL    HW276120   5.645   3.419   4.299  0.0539  0.1938 -0.5318
23024SOL     OW76121   1.278   5.510  12.582 -0.0334  0.3058 -0.0281
23024SOL    HW176122   1.238   5.423  12.582  3.5703 -1.5500 -0.1662
23024SOL    HW276123   1.275   5.538  12.674 -1.2016  0.0957  0.0193
23025SOL     OW76124   8.332   5.177   0.452  0.5090 -0.6594 -0.0582
23025SOL    HW176125   8.390   5.102   0.467 -0.5523 -1.3679  0.6838
23025SOL    HW276126   8.327   5.220   0.538 -0.0574 -0.6158 -0.1102
23026SOL     OW76127   3.542   6.491   5.546 -0.4404 -0.4964  0.2074
23026SOL    HW176128   3.617   6.466   5.601 -0.2466  2.9621  1.7830
23026SOL    HW276129   3.466   6.485   5.604 -0.8310 -0.4522 -0.2912
23027SOL     OW76130   4.777   7.860   5.880  0.0231  0.3160 -0.1305
23027SOL    HW176131   4.717   7.899   5.817 -0.1396 -0.1856 -0.2950
23027SOL    HW276132   4.817   7.934   5.925 -0.3254  0.6639 -0.3898
23028SOL     OW76133   2.214   7.947   4.322  0.1404  0.0133 -0.1848
23028SOL    HW176134   2.237   7.861   4.359  1.9725  0.2127 -0.7794
23028SOL    HW276135   2.281   7.964   4.256 -0.4422  1.7267 -0.3865
23029SOL     OW76136   2.189   0.518   5.345  0.0894 -0.1706 -0.3279
23029SOL    HW176137   2.226   0.598   5.309  1.3206  0.1051  1.4196
23029SOL    HW276138   2.169   0.540   5.436 -1.8620 -1.1464 -0.4742
23030SOL     OW76139  11.303   2.503   9.503 -0.4383 -0.1848  0.0494
23030SOL    HW176140  11.349   2.507   9.420 -1.1079  1.0510 -0.2893
23030SOL    HW276141  11.231   2.441   9.488  0.0130 -0.6992  0.0093
23031SOL     OW76142  10.611   9.469  11.347  0.0092  0.1702  0.1634
23031SOL    HW176143  10.529   9.513  11.326  0.2717 -0.2119 -1.8734
23031SOL    HW276144  10.618   9.475  11.443 -2.2527  0.3966  0.3649
23032SOL     OW76145   4.314  10.941  11.632 -0.6041  0.1515 -0.3613
23032SOL    HW176146   4.247  11.002  11.600 -1.1133 -0.1494  0.1120
23032SOL    HW276147   4.327  10.880  11.559  0.5532  1.3243 -1.1750
23033SOL     OW76148   1.729   0.339   4.368 -0.2727  0.3620 -0.2694
23033SOL    HW176149   1.687   0.308   4.448 -0.8381  0.0551 -0.6724
23033SOL    HW276150   1.665   0.398   4.328  0.0329  0.5701 -0.4601
23034SOL     OW76151   1.653   6.562   0.589  0.0824  0.7800 -0.0191
23034SOL    HW176152   1.668   6.471   0.565  3.0725  1.2650 -0.3060
23034SOL    HW276153   1.562   6.564   0.618 -0.1952 -2.1903 -0.3870
23035SOL     OW76154  12.579   5.705   8.638 -0.5931  0.5379 -0.1735
23035SOL    HW176155  12.578   5.727   8.731 -2.0603 -0.2511  0.0354
23035SOL    HW276156  12.489   5.721   8.608 -0.6912 -1.1507 -0.9491
23036SOL     OW76157  10.275   0.002   1.176  0.2195  0.4611 -0.3249
23036SOL    HW176158  10.257   0.028   1.266  0.6471  1.0132 -0.3987
23036SOL    HW276159  10.202  -0.057   1.154  0.2271  0.1514  0.4447
23037SOL     OW76160  11.534   8.326   0.046  0.2305 -0.9214 -0.0518
23037SOL    HW176161  11.456   8.345   0.098 -0.1974  0.6292 -1.1857
23037SOL    HW276162  11.508   8.345  -0.044  1.5528 -1.6085 -0.6056
23038SOL     OW76163   4.720   5.750   1.015  0.1794  0.5296  0.0977
23038SOL    HW176164   4.772   5.778   1.091  1.8868  0.3525 -0.9529
23038SOL    HW276165   4.694   5.660   1.035 -1.0154  1.1016  1.2709
23039SOL     OW76166   0.755   8.311   8.650 -0.2543  0.1696  0.2172
23039SOL    HW176167   0.713   8.240   8.699 -2.8175  0.9977 -0.6329
23039SOL    HW276168   0.828   8.269   8.606 -1.3955 -1.8631  0.1393
23040SOL     OW76169   3.566   2.703  10.362 -0.1355 -0.0964  0.4510
23040SOL    HW176170   3.495   2.737  10.416 -0.2959 -0.6898  0.6195
23040SOL    HW276171   3.554   2.608  10.362  1.0081 -0.2642  0.9777
23041SOL     OW76172   4.960   1.704   4.766  0.3898 -0.4915 -0.1794
23041SOL    HW176173   4.987   1.795   4.775 -0.1300 -0.3111 -0.4193
23041SOL    HW276174   4.915   1.700   4.682  2.6341 -1.5305 -1.4225
23042SOL     OW76175   3.478   8.311   1.221 -0.0855 -0.2083 -0.2040
23042SOL    HW176176   3.572   8.303   1.237  0.4886  2.5747 -1.4918
23042SOL    HW276177   3.463   8.266   1.138  0.0247 -1.0143  0.2109
23043SOL     OW76178   9.822   7.290  11.462 -0.2781 -0.3523  0.0601
23043SOL    HW176179   9.895   7.299  11.523 -0.9619 -1.9541  1.2038
23043SOL    HW276180   9.766   7.223  11.502 -2.0213  0.3321 -1.1225
23044SOL     OW76181   0.611   4.537   5.613 -0.1298  0.4248  0.0487
23044SOL    HW176182   0.698   4.499   5.623  0.0754  0.6368 -0.8562
23044SOL    HW276183   0.585   4.515   5.523 -1.1449  0.0823  0.4159
23045SOL     OW76184   5.587   2.682   7.419  0.1399 -0.0959  0.0091
23045SOL    HW176185   5.649   2.628   7.469  0.3046  0.2842  0.2153
23045SOL    HW276186   5.524   2.619   7.385  0.8561 -0.5399 -0.5271
23046SOL     OW76187   6.705   8.077   5.172  0.4821 -0.2230  0.2356
23046SOL    HW176188   6.677   8.090   5.081 -2.0508 -1.4551  0.7505
23046SOL    HW276189   6.658   8.144   5.221 -1.0719 -1.7800  1.0155
23047SOL     OW76190   7.770   3.436  12.032 -0.1801 -0.3898 -0.9213
23047SOL    HW176191   7.808   3.348  12.034 -0.3519 -0.4760 -1.2870
23047SOL    HW276192   7.713   3.439  12.109  1.2152  0.0487  0.1218
23048SOL     OW76193   5.811   6.926   2.239  0.4255  0.0074 -0.6306
23048SOL    HW176194   5.814   6.872   2.160 -1.2316 -0.1810 -0.5994
23048SOL    HW276195   5.781   6.866   2.307 -0.0483  0.6330 -0.2850
23049SOL     OW76196   8.404  11.653  10.957  0.0079 -0.5692  0.1816
23049SOL    HW176197   8.486  11.650  11.007  1.2632  0.5326 -1.6859
23049SOL    HW276198   8.421  11.715  10.887 -2.0816 -1.1722 -0.9485
23050SOL     OW76199   9.991   4.458  11.210 -0.5714  0.3717  0.2518
23050SOL    HW176200  10.064   4.396  11.202 -1.2024 -0.2729 -0.6627
23050SOL    HW276201  10.022   4.538  11.168 -0.6148 -0.1203 -0.7565
23051SOL     OW76202   9.232   0.503   6.559  0.4678 -0.5247 -0.4578
23051SOL    HW176203   9.269   0.421   6.526  0.4294 -0.1630 -1.4260
23051SOL    HW276204   9.238   0.563   6.485  0.3235  0.2951  0.1873
23052SOL     OW76205   3.214   7.934   6.959 -0.1142 -0.1584  0.4766
23052SOL    HW176206   3.272   7.993   6.911  1.6682 -1.6350  0.7024
23052SOL    HW276207   3.165   7.992   7.018 -0.9823  1.4651 -1.7027
23053SOL     OW76208   2.934   9.922   7.093  0.4965 -0.1638  0.2275
23053SOL    HW176209   2.883   9.987   7.044 -0.2840 -0.5612  0.4972
23053SOL    HW276210   2.927   9.842   7.041  2.7772  0.3200 -0.9443
23054SOL     OW76211   9.050   1.018   9.864 -0.0945  0.3133 -0.7575
23054SOL    HW176212   8.955   1.030   9.857 -0.2512  0.4123  1.0544
23054SOL    HW276213   9.061   0.931   9.903  0.5849  0.0841 -1.4351
23055SOL     OW76214   2.434   5.810   4.978  0.1458 -0.2196 -0.0426
23055SOL    HW176215   2.459   5.780   5.066  1.5366 -0.3164 -0.4454
23055SOL    HW276216   2.429   5.730   4.926 -2.9288 -0.4283  0.4081
23056SOL     OW76217  12.129   2.586   6.798 -0.2636 -0.9708 -0.1558
23056SOL    HW176218  12.053   2.593   6.855  0.3567  1.1372  0.4955
23056SOL    HW276219  12.200   2.556   6.855 -0.2930 -1.6736 -0.4780
23057SOL     OW76220   1.331   3.421  10.122  0.1809  0.1255  0.1359
23057SOL    HW176221   1.279   3.419  10.042 -0.7520 -1.0476  0.7471
23057SOL    HW276222   1.421   3.432  10.091 -0.3514  1.9492 -0.9481
23058SOL     OW76223   0.881   3.245   7.800 -0.2155 -0.6427  0.1974
23058SOL    HW176224   0.797   3.284   7.825 -0.6532 -0.9172 -0.7943
23058SOL    HW276225   0.908   3.293   7.722  0.6505 -0.4355  0.6166
23059SOL     OW76226   8.303   1.639   7.998  0.5199  0.5678  0.3479
23059SOL    HW176227   8.219   1.672   7.967  0.0196  0.0725  1.1402
23059SOL    HW276228   8.317   1.558   7.949 -0.2501 -0.1926  1.3413
23060SOL     OW76229   1.887  11.996  11.854 -0.2050  0.0173 -0.3805
23060SOL    HW176230   1.848  11.945  11.783 -2.3022  1.7217 -0.5376
23060SOL    HW276231   1.953  12.051  11.810 -0.1962 -0.2370 -0.6952
23061SOL     OW76232   2.697   2.261  11.654  1.0218 -0.1211 -0.2036
23061SOL    HW176233   2.732   2.350  11.649 -0.2192  0.3508 -1.0930
23061SOL    HW276234   2.615   2.265  11.605  0.4161 -1.5077  0.6357
23062SOL     OW76235   4.446   1.385   8.383  0.0658 -0.3648  0.0371
23062SOL    HW176236   4.428   1.369   8.476  1.6203 -3.2752 -0.0550
23062SOL    HW276237   4.406   1.310   8.338 -0.1527  0.6905 -1.6004
23063SOL     OW76238   1.770   8.209   1.000 -0.1714  0.4124 -0.1489
23063SOL    HW176239   1.857   8.247   0.984  0.6182 -1.0167  0.5665
23063SOL    HW276240   1.739   8.184   0.913  0.2008  0.7854 -0.3973
23064SOL     OW76241   0.414   1.487   8.690  0.0698 -0.6828 -0.2764
23064SOL    HW176242   0.499   1.513   8.654  1.3495 -3.2034  0.6717
23064SOL    HW276243   0.379   1.425   8.625 -0.9079  0.0311 -0.4636
23065SOL     OW76244   5.075  12.474   1.604  0.2065 -0.3271 -0.3605
23065SOL    HW176245   5.122  12.512   1.530  1.2273 -1.3808 -0.2756
23065SOL    HW276246   5.085  12.538   1.674 -0.2432  0.3962 -0.9472
23066SOL     OW76247   9.411   9.719   1.862  0.2504 -1.0759 -0.0599
23066SOL    HW176248   9.433   9.650   1.925 -0.2238  0.5996  2.0764
23066SOL    HW276249   9.324   9.748   1.890  0.9563  1.1992 -0.0932
23067SOL     OW76250   2.391  10.921   6.038  0.1977 -0.0425 -0.1646
23067SOL    HW176251   2.356  10.888   6.122 -1.9180  0.5681 -0.7422
23067SOL    HW276252   2.423  10.842   5.994  0.0855 -0.5619  0.6467
23068SOL     OW76253   4.898   7.521   2.418  0.3250  0.5373  0.7857
23068SOL    HW176254   4.990   7.546   2.417  0.7778 -0.9595 -1.0723
23068SOL    HW276255   4.897   7.435   2.461 -0.3173  0.8320  1.3848
23069SOL     OW76256   2.193   0.232   0.503 -0.2153  0.7115  0.3908
23069SOL    HW176257   2.220   0.165   0.440  0.0293  0.7316  0.4700
23069SOL    HW276258   2.160   0.304   0.449  0.4373  0.9219  0.2533
23070SOL     OW76259   0.015   4.291   1.948 -0.5475 -0.1711 -0.6422
23070SOL    HW176260  -0.078   4.276   1.937 -1.0762  1.4268  1.1542
23070SOL    HW276261   0.035   4.365   1.891 -0.2288 -0.8785 -1.4677
23071SOL     OW76262  11.124   7.594  11.915  0.1858  0.1279  0.5188
23071SOL    HW176263  11.053   7.641  11.870  0.7601  1.7057  1.1916
23071SOL    HW276264  11.081   7.548  11.987 -0.4301 -0.6846 -0.3392
23072SOL     OW76265  11.650   6.185   3.605 -0.1623 -0.4248 -0.7113
23072SOL    HW176266  11.732   6.230   3.624 -0.7596  0.5082 -0.2792
23072SOL    HW276267  11.619   6.153   3.690 -0.4330 -0.4495 -0.8161
23073SOL     OW76268   0.075   1.244   4.050 -0.1478  0.1166 -0.5124
23073SOL    HW176269  -0.002   1.188   4.049 -1.4529  1.8264 -1.5171
23073SOL    HW276270   0.104   1.243   4.142 -1.5347 -0.3561 -0.0594
23074SOL     OW76271   7.892   4.012   5.454  0.1203  0.1769  0.5318
23074SOL    HW176272   7.928   3.946   5.395  0.0089 -0.3205  1.0132
23074SOL    HW276273   7.884   4.090   5.400 -0.7721 -0.4952 -0.3366
23075SOL     OW76274   3.965   4.255  11.822  0.2906 -0.0264  0.7913
23075SOL    HW176275   4.016   4.333  11.802 -0.1856  0.0455 -0.1801
23075SOL    HW276276   3.893   4.256  11.759 -0.3104 -0.6945  1.4466
23076SOL     OW76277   9.467   0.567   0.996 -0.2247  0.6150 -0.2377
23076SOL    HW176278   9.464   0.635   0.929  1.9427  0.1501 -0.8745
23076SOL    HW276279   9.548   0.519   0.978 -0.4774 -0.6210  1.6691
23077SOL     OW76280  12.371   6.140   2.323 -0.0987 -0.4764  0.2806
23077SOL    HW176281  12.376   6.105   2.412 -1.3398 -0.9976  0.1564
23077SOL    HW276282  12.450   6.106   2.280  0.4751 -0.2784  1.1541
23078SOL     OW76283   8.887   6.628   1.748  0.8015  0.0042 -0.3697
23078SOL    HW176284   8.904   6.721   1.758 -0.3683  0.3094 -0.9886
23078SOL    HW276285   8.964   6.593   1.704  0.4953  1.0272 -1.7550
23079SOL     OW76286   9.985  11.129   7.524  0.1914 -0.2897  0.2720
23079SOL    HW176287  10.044  11.103   7.453 -0.6837 -2.8377  0.3788
23079SOL    HW276288   9.897  11.119   7.486 -0.2529 -0.0005  1.2041
23080SOL     OW76289   5.283  11.706   1.182 -0.4272  0.3637  0.0515
23080SOL    HW176290   5.228  11.768   1.230  3.7769  2.6963  2.4346
23080SOL    HW276291   5.284  11.627   1.237 -0.2102  0.9009  0.8435
23081SOL     OW76292  11.015  11.297   6.988 -0.3139  0.4970 -0.0343
23081SOL    HW176293  11.078  11.322   6.920  0.7122 -2.6505 -0.4029
23081SOL    HW276294  11.057  11.321   7.070 -0.2047  1.5664 -0.3928
23082SOL     OW76295   2.840   6.793   1.751 -0.6713  0.0763  0.5474
23082SOL    HW176296   2.841   6.815   1.658 -2.1302  4.4533  1.3034
23082SOL    HW276297   2.932   6.776   1.773 -0.1869 -0.2192 -1.5094
23083SOL     OW76298   1.130   4.099   5.624 -0.1855  0.3761 -0.3643
23083SOL    HW176299   1.174   4.174   5.663 -0.0570  1.2374 -2.0613
23083SOL    HW276300   1.139   4.113   5.529 -1.5764 -0.9485 -0.7266
23084SOL     OW76301   3.513  11.874   3.976 -0.0661 -0.0251 -0.1230
23084SOL    HW176302   3.497  11.793   3.926  0.7594 -1.1241  1.3323
23084SOL    HW276303   3.608  11.877   3.986 -0.2549 -0.3869  2.2219
23085SOL     OW76304   8.223  10.793   4.419 -0.2799 -0.5771  0.5522
23085SOL    HW176305   8.219  10.888   4.425 -1.7837 -0.6455  0.9645
23085SOL    HW276306   8.168  10.771   4.344 -0.1194 -1.1345  0.5922
23086SOL     OW76307   7.181   6.355   2.808  0.0545 -0.4382 -0.0355
23086SOL    HW176308   7.151   6.409   2.881 -1.2014 -1.3486  0.1680
23086SOL    HW276309   7.246   6.408   2.763 -0.1457  0.6806  0.9505
23087SOL     OW76310   1.222   1.499   5.917  0.3473  0.1687  0.2127
23087SOL    HW176311   1.159   1.499   5.989 -0.9219  0.0083 -0.8559
23087SOL    HW276312   1.186   1.560   5.853  1.6050  0.5377 -0.1900
23088SOL     OW76313   5.028   4.529  11.389 -0.0488  0.0278  0.5974
23088SOL    HW176314   5.022   4.514  11.484  0.5939 -0.0275  0.6386
23088SOL    HW276315   5.035   4.441  11.351  1.0460  0.0873  0.6188
23089SOL     OW76316   1.681   7.691   7.581  0.0526 -0.1276  0.4548
23089SOL    HW176317   1.774   7.687   7.601  0.2039  0.5721 -0.0773
23089SOL    HW276318   1.638   7.698   7.667  0.4542 -0.8414  0.7236
23090SOL     OW76319   7.192   0.040  10.498 -0.5140  0.8064  0.2739
23090SOL    HW176320   7.223   0.041  10.408 -0.0223  0.5567  0.4387
23090SOL    HW276321   7.144   0.122  10.509 -1.2657  0.4783 -0.4534
23091SOL     OW76322  10.585   0.368   4.774  0.7342  0.7547  0.3026
23091SOL    HW176323  10.588   0.320   4.692  0.9671  2.2279 -0.5952
23091SOL    HW276324  10.677   0.383   4.797  0.6690  0.5048  0.7389
23092SOL     OW76325   0.039   3.720   1.165  0.3363  0.5268  0.0811
23092SOL    HW176326  -0.027   3.659   1.197  1.2147  0.7361  2.5773
23092SOL    HW276327  -0.001   3.807   1.176  0.5195  0.5815  0.3423
23093SOL     OW76328   9.551   6.357   4.787  0.5472 -0.0844 -0.5827
23093SOL    HW176329   9.462   6.341   4.753 -1.0979  3.0756  1.6595
23093SOL    HW276330   9.592   6.412   4.721 -0.8188  1.9257  0.1422
23094SOL     OW76331   6.696   3.299   8.722  0.1967 -0.0128  0.0497
23094SOL    HW176332   6.691   3.208   8.692 -1.5276  0.0065  0.1646
23094SOL    HW276333   6.751   3.343   8.657  2.5746 -1.4717  0.9503
23095SOL     OW76334   3.336   8.285   8.298  0.1163 -0.1088  0.0163
23095SOL    HW176335   3.373   8.227   8.231 -0.4834 -1.4401  0.7898
23095SOL    HW276336   3.305   8.225   8.366  1.3530  1.2174  1.8338
23096SOL     OW76337   3.760   3.037   1.217  0.1406  0.0911  0.4189
23096SOL    HW176338   3.680   3.084   1.194  0.0129 -0.2653  0.1236
23096SOL    HW276339   3.820   3.105   1.247  0.1046  0.5026 -0.4173
23097SOL     OW76340   8.603   3.557   7.583 -0.4649 -0.1120 -0.3605
23097SOL    HW176341   8.588   3.566   7.489  0.3076 -1.7971 -0.6626
23097SOL    HW276342   8.680   3.501   7.591 -2.2134 -2.5097  1.2697
23098SOL     OW76343   4.040   0.044   5.499 -0.1485  0.0288  0.2849
23098SOL    HW176344   4.085   0.079   5.576 -1.1697 -1.3262  1.5543
23098SOL    HW276345   4.099  -0.025   5.468 -1.3958 -2.0084  2.1762
23099SOL     OW76346   9.554   2.810   8.242 -0.0060  0.1074 -0.0594
23099SOL    HW176347   9.524   2.809   8.151  0.7790  2.4681 -0.4204
23099SOL    HW276348   9.598   2.895   8.252  0.7290 -0.4653  2.2773
23100SOL     OW76349   0.597   4.811   5.582  0.1804  0.4361  0.2016
23100SOL    HW176350   0.617   4.722   5.610  0.8823  0.8758  1.1399
23100SOL    HW276351   0.632   4.817   5.493  1.9630  0.3683  0.8546
23101SOL     OW76352   1.796   9.237   6.431  0.3060  0.1772  0.4185
23101SOL    HW176353   1.849   9.158   6.428  0.0311  0.0092 -0.1703
23101SOL    HW276354   1.710   9.210   6.400  0.9999  1.2990 -2.9148
23102SOL     OW76355  12.006  10.938  10.013 -0.0471  0.5864  0.0552
23102SOL    HW176356  12.053  10.925   9.930 -0.9301  2.2536 -0.7646
23102SOL    HW276357  12.073  10.926  10.080  1.0267  0.5790 -0.9723
23103SOL     OW76358   3.015   7.663   6.598  0.2725  0.2751  0.3416
23103SOL    HW176359   2.940   7.669   6.538  0.6866  0.0707 -0.2032
23103SOL    HW276360   2.978   7.629   6.680  0.0206 -1.3133 -0.3953
23104SOL     OW76361   0.912  10.078   6.115 -0.1201 -0.5102 -0.0765
23104SOL    HW176362   0.824  10.051   6.140  0.5458 -0.8426  2.0554
23104SOL    HW276363   0.939  10.012   6.050 -1.5341 -0.1945 -1.0409
23105SOL     OW76364   9.940   8.964   6.806  0.3114 -0.0746 -0.0481
23105SOL    HW176365   9.949   8.973   6.712  1.0594  0.0692  0.0313
23105SOL    HW276366   9.849   8.939   6.819  0.4544 -1.1089 -0.8801
23106SOL     OW76367   8.720   2.119   4.544  0.5504 -0.9188 -0.9473
23106SOL    HW176368   8.807   2.079   4.558  1.1775  0.2659 -1.3504
23106SOL    HW276369   8.671   2.098   4.624  1.6905 -0.3637 -0.0760
23107SOL     OW76370  10.210   0.008   7.225  0.1321  0.0513  0.4173
23107SOL    HW176371  10.165  -0.075   7.242  0.9565 -0.6050 -0.4670
23107SOL    HW276372  10.286   0.006   7.283 -1.4159  1.6047  2.6400
23108SOL     OW76373   3.721   2.005   2.527 -0.5103 -0.0612 -0.5616
23108SOL    HW176374   3.641   1.953   2.528  0.0539 -0.9587 -0.8945
23108SOL    HW276375   3.728   2.037   2.437  0.0205 -0.8155 -0.7954
23109SOL     OW76376   2.572   9.980   0.705 -0.2667  0.4629  0.2986
23109SOL    HW176377   2.481   9.993   0.732 -0.4768 -0.7588  0.2161
23109SOL    HW276378   2.620  10.053   0.746 -1.1134  0.5199  1.2079
23110SOL     OW76379   3.477   6.337   3.040 -0.0609 -0.4823 -0.3473
23110SOL    HW176380   3.446   6.286   2.965 -1.5283  0.6439 -0.5459
23110SOL    HW276381   3.488   6.272   3.110 -0.0230 -1.3342 -1.1178
23111SOL     OW76382   6.776   9.036   8.872 -0.0352  0.3010  0.4486
23111SOL    HW176383   6.710   8.996   8.929  1.1709 -2.4916  0.0137
23111SOL    HW276384   6.816   9.105   8.926 -0.9755 -0.2359  1.8844
23112SOL     OW76385   8.885   9.397   3.527  0.4172  0.4239 -0.6418
23112SOL    HW176386   8.920   9.462   3.465  0.5306  1.6449  0.6340
23112SOL    HW276387   8.827   9.448   3.585 -0.7496 -0.9271 -0.5694
23113SOL     OW76388   8.407   2.703  11.145 -0.2263 -0.0917 -0.4287
23113SOL    HW176389   8.326   2.751  11.126 -2.0148 -2.2382  1.2132
23113SOL    HW276390   8.406   2.691  11.239 -1.2512 -5.2630 -0.7975
23114SOL     OW76391  11.103   7.169   2.629  0.2341  0.0724 -0.5168
23114SOL    HW176392  11.158   7.243   2.602  0.1572 -0.1420 -1.2885
23114SOL    HW276393  11.067   7.196   2.713 -2.0029  2.1414 -1.9750
23115SOL     OW76394   1.786  10.551   6.433 -0.1030 -0.4661  0.3987
23115SOL    HW176395   1.754  10.596   6.511  3.1681 -1.9261  2.8496
23115SOL    HW276396   1.760  10.459   6.446 -1.3540 -0.4157 -1.3899
23116SOL     OW76397   2.563  12.207   1.210  0.1618 -0.1808  0.4720
23116SOL    HW176398   2.486  12.250   1.246 -0.0958  0.0197 -0.2814
23116SOL    HW276399   2.527  12.146   1.145  0.6072 -0.5301  0.5512
23117SOL     OW76400   7.996   3.367   6.396  0.0795  0.1738 -0.3022
23117SOL    HW176401   8.064   3.316   6.351  0.7793  1.6994 -1.0692
23117SOL    HW276402   7.914   3.322   6.374  0.6271 -0.4342 -1.2192
23118SOL     OW76403   7.383   9.666   0.819 -0.3981  0.1770  0.1008
23118SOL    HW176404   7.380   9.641   0.726 -1.5227 -0.5328  0.3108
23118SOL    HW276405   7.306   9.721   0.831 -0.5300 -0.1419  0.7247
23119SOL     OW76406   0.226   0.511   0.257  0.2563 -0.2453  0.1331
23119SOL    HW176407   0.295   0.528   0.193  1.3011  0.1929  1.3420
23119SOL    HW276408   0.148   0.552   0.219  0.9916  0.5173 -0.5856
23120SOL     OW76409   0.699   2.085   0.681  0.1582 -0.5969  0.9072
23120SOL    HW176410   0.753   2.051   0.753  0.3106 -1.5347  0.3658
23120SOL    HW276411   0.721   2.030   0.606  0.5383  0.8201 -0.0635
23121SOL     OW76412   0.809   8.834   9.964 -0.5982  0.3958 -0.3562
23121SOL    HW176413   0.716   8.839   9.940 -0.6080  1.0371 -0.2198
23121SOL    HW276414   0.812   8.867  10.054 -0.0932  1.5811 -0.7772
23122SOL     OW76415   1.388   3.318   4.236 -0.7015  0.3979  0.0449
23122SOL    HW176416   1.418   3.276   4.317  0.6295  0.2695 -0.4913
23122SOL    HW276417   1.361   3.245   4.180 -1.8824  0.5017  0.4505
23123SOL     OW76418   7.878   6.247  11.067 -0.0548  0.0614  0.1744
23123SOL    HW176419   7.867   6.333  11.107 -0.1499 -1.2299  3.2148
23123SOL    HW276420   7.850   6.259  10.976  3.6405  4.0955 -0.7746
23124SOL     OW76421   6.797   9.060  12.082 -0.4976 -0.5930 -0.0702
23124SOL    HW176422   6.739   9.071  12.157  0.3817 -0.6920  0.6417
23124SOL    HW276423   6.849   9.141  12.080  0.6826 -1.3105  0.5008
23125SOL     OW76424   5.808  12.318   9.280  0.0562  0.0720  0.3461
23125SOL    HW176425   5.767  12.232   9.271  0.5885 -0.4097  2.0370
23125SOL    HW276426   5.888  12.301   9.330  0.5081  1.4648  0.1381
23126SOL     OW76427   5.021  12.392   2.757 -0.4469 -0.1254  0.4214
23126SOL    HW176428   5.059  12.463   2.808 -0.4055  0.4048 -0.3254
23126SOL    HW276429   5.039  12.313   2.808  0.0150  0.3311  0.9811
23127SOL     OW76430  10.502   0.068   0.641  0.1968  0.4261  0.1261
23127SOL    HW176431  10.487   0.162   0.635  1.0364  0.5107 -1.2088
23127SOL    HW276432  10.440   0.037   0.707 -0.7799  1.7599 -0.1334
23128SOL     OW76433   2.854   4.731   0.796 -0.0887 -0.0714  0.0651
23128SOL    HW176434   2.816   4.681   0.868 -2.6070 -3.0722 -2.9917
23128SOL    HW276435   2.928   4.678   0.767 -0.3326  0.0261 -0.7649
23129SOL     OW76436   3.647   4.430   4.406  0.2898  0.1656  0.4489
23129SOL    HW176437   3.639   4.381   4.488  0.3771 -0.7996 -0.0998
23129SOL    HW276438   3.561   4.469   4.392  0.6534  1.4585  1.6744
23130SOL     OW76439   6.605   4.050   9.238 -0.0648 -0.0857 -0.4944
23130SOL    HW176440   6.637   3.962   9.260 -1.2758 -0.3960  0.1542
23130SOL    HW276441   6.662   4.080   9.168  0.0755 -1.5972 -1.0639
23131SOL     OW76442  11.013   9.418   1.262  0.0918  0.3765  0.1610
23131SOL    HW176443  10.985   9.391   1.349 -0.8258  0.4177 -0.1179
23131SOL    HW276444  10.933   9.419   1.209  0.9187 -1.9732 -1.3049
23132SOL     OW76445  12.009   0.887  11.231 -0.4738 -0.1302  0.3184
23132SOL    HW176446  11.994   0.803  11.188  3.0256 -1.0130  0.5425
23132SOL    HW276447  12.026   0.865  11.322  0.7420  0.7657  0.3273
23133SOL     OW76448   5.752  12.085   0.398 -0.4455  0.0528 -0.0802
23133SOL    HW176449   5.713  12.058   0.315  0.1495  0.6650 -0.5732
23133SOL    HW276450   5.787  12.004   0.436 -0.4649 -0.1870 -0.5643
23134SOL     OW76451   5.864   2.733   4.201  0.1648 -0.1248 -0.1247
23134SOL    HW176452   5.854   2.784   4.120 -0.6968  1.5398  0.9731
23134SOL    HW276453   5.934   2.778   4.249 -0.7077  0.1508  0.9282
23135SOL     OW76454   6.889  11.449   8.132  0.3724 -0.0217  0.1875
23135SOL    HW176455   6.903  11.475   8.224  1.4140 -1.2144  0.3856
23135SOL    HW276456   6.962  11.391   8.112  2.2864  3.0247 -2.5618
23136SOL     OW76457   7.057   3.739   0.302 -0.6113  0.1216  0.9520
23136SOL    HW176458   6.976   3.772   0.341 -0.0326  0.1986  2.1138
23136SOL    HW276459   7.047   3.644   0.302 -1.7684  0.1633 -1.2955
23137SOL     OW76460   2.691   4.181  11.922 -0.2513 -0.9275  0.6680
23137SOL    HW176461   2.693   4.085  11.917  0.7832 -0.9078  0.5863
23137SOL    HW276462   2.601   4.201  11.947 -0.2716 -1.9608  1.5043
23138SOL     OW76463   6.159   4.874   8.417 -0.0144  0.4035 -0.3087
23138SOL    HW176464   6.155   4.931   8.494 -2.0136  0.0109 -0.0555
23138SOL    HW276465   6.185   4.932   8.346 -0.2667  1.2521  0.2705
23139SOL     OW76466   9.881   8.255   9.207  0.2576  0.1951  0.0539
23139SOL    HW176467   9.920   8.225   9.126 -0.3394 -0.9913  0.1856
23139SOL    HW276468   9.787   8.254   9.190  0.1116 -0.3459  0.8419
23140SOL     OW76469   3.570   9.765   5.546  0.9336 -0.4620 -0.4375
23140SOL    HW176470   3.624   9.731   5.618 -0.2904 -0.8076  0.3599
23140SOL    HW276471   3.482   9.732   5.565  0.1711  1.1534 -0.9836
23141SOL     OW76472   8.950   9.916   6.381  0.7334  0.0149  0.2454
23141SOL    HW176473   9.015   9.847   6.369 -0.5920 -1.0521 -1.2811
23141SOL    HW276474   8.901   9.890   6.459  2.8911  1.5392  2.2369
23142SOL     OW76475   4.785  11.330   8.799 -0.1498 -0.1453  0.0989
23142SOL    HW176476   4.870  11.359   8.765  1.1625  0.0831  3.1970
23142SOL    HW276477   4.781  11.237   8.776  0.4805  0.0512 -0.8809
23143SOL     OW76478   9.718   2.108   1.545 -0.2891 -0.2295 -0.3687
23143SOL    HW176479   9.687   2.021   1.522 -1.1272  0.2583 -1.1729
23143SOL    HW276480   9.730   2.152   1.460  0.3652  0.3585  0.0148
23144SOL     OW76481  11.736   0.917   4.197  0.1111  0.5476  0.3128
23144SOL    HW176482  11.694   0.971   4.265 -0.8943 -0.2308  0.3410
23144SOL    HW276483  11.669   0.851   4.175  0.3739  0.8552 -1.5191
23145SOL     OW76484   4.830   9.775   6.009  0.0175  0.1223 -0.1640
23145SOL    HW176485   4.842   9.705   6.074  1.0961 -0.6460 -1.1357
23145SOL    HW276486   4.847   9.732   5.925 -0.6934  1.2477 -0.9082
23146SOL     OW76487  12.513   5.326   0.404 -0.3698 -0.2796  0.5239
23146SOL    HW176488  12.424   5.359   0.409  0.4014  2.4794 -1.3607
23146SOL    HW276489  12.560   5.375   0.472  0.3210  0.7732 -0.6781
23147SOL     OW76490   6.403  11.045  11.244  0.5346 -0.1990 -0.1035
23147SOL    HW176491   6.486  11.021  11.202  0.0730 -0.0276 -1.1315
23147SOL    HW276492   6.413  11.139  11.263 -0.1282  0.2938 -1.9773
23148SOL     OW76493  11.584   9.145   6.761 -0.2758 -0.4936  0.1980
23148SOL    HW176494  11.505   9.116   6.807 -0.3366  0.6524  0.8489
23148SOL    HW276495  11.562   9.135   6.668 -0.7963 -1.1770  0.3842
23149SOL     OW76496   3.082  11.606  12.360  0.5364 -0.1945  0.1256
23149SOL    HW176497   3.059  11.698  12.370  1.3655 -0.0301  0.7065
23149SOL    HW276498   3.157  11.594  12.420  0.2843 -1.2957  0.2411
23150SOL     OW76499   7.379   9.127  12.348 -0.2441  0.5134  0.0357
23150SOL    HW176500   7.458   9.147  12.298 -0.2786 -0.5534 -0.4740
23150SOL    HW276501   7.400   9.046  12.395 -1.0565  0.1660 -0.1824
23151SOL     OW76502   2.661   3.306   8.204  0.7651 -0.5193 -0.3973
23151SOL    HW176503   2.633   3.282   8.293  1.3705 -1.5048 -0.4625
23151SOL    HW276504   2.727   3.240   8.181  2.0579  0.8723 -0.8232
23152SOL     OW76505   1.893   5.398  12.029  0.3833 -0.2661 -0.0123
23152SOL    HW176506   1.835   5.472  12.010  0.8570 -0.1632 -1.1660
23152SOL    HW276507   1.975   5.439  12.057  0.8037 -0.3174 -1.1125
23153SOL     OW76508   3.402   4.744  10.524 -0.0258  0.0349 -0.5742
23153SOL    HW176509   3.465   4.814  10.509  0.2994  0.1914  1.3288
23153SOL    HW276510   3.431   4.701  10.604 -2.5959  0.4374  0.6883
23154SOL     OW76511   0.390  10.427   9.833  0.3989  0.3856  0.0803
23154SOL    HW176512   0.478  10.429   9.871 -0.2170 -1.4726  1.8038
23154SOL    HW276513   0.399  10.469   9.748  2.1177  3.7162  1.7395
23155SOL     OW76514   1.070   1.814   2.052  0.1632 -0.8896 -0.6207
23155SOL    HW176515   1.124   1.829   2.130  0.0435 -2.2007 -0.2724
23155SOL    HW276516   1.046   1.902   2.023  3.7344 -0.1133 -1.7226
23156SOL     OW76517   2.520  12.142   9.272 -0.4584  0.4043  0.1804
23156SOL    HW176518   2.488  12.052   9.260 -0.9136  0.7369 -1.4940
23156SOL    HW276519   2.570  12.140   9.353  2.9633 -2.3488 -1.7179
23157SOL     OW76520   1.095   9.368   1.523 -0.0737 -0.1883  0.0836
23157SOL    HW176521   1.053   9.287   1.552 -0.2600  0.0565  0.5054
23157SOL    HW276522   1.160   9.340   1.459 -1.8663 -0.4625 -1.7027
23158SOL     OW76523   7.193   6.643  10.024  0.3125 -0.1920  0.5345
23158SOL    HW176524   7.163   6.555  10.044  0.0304 -0.1001  0.5242
23158SOL    HW276525   7.250   6.667  10.098  0.5019 -0.4356  0.4662
23159SOL     OW76526   4.427   8.232   8.248  0.5423  0.1646  0.2898
23159SOL    HW176527   4.521   8.237   8.260  0.4371  1.7230  0.6730
23159SOL    HW276528   4.408   8.296   8.180 -0.1528 -0.7667 -0.4168
23160SOL     OW76529   8.939   5.955   1.235  0.6008 -0.2968 -0.2286
23160SOL    HW176530   8.928   5.931   1.143  2.0053  1.2992 -0.8637
23160SOL    HW276531   9.033   5.945   1.251  0.1491 -2.5042  1.6686
23161SOL     OW76532   1.805   1.866   9.459 -0.0460 -0.3257 -0.4192
23161SOL    HW176533   1.722   1.893   9.497 -0.1832  1.1578 -1.6932
23161SOL    HW276534   1.871   1.901   9.519 -0.3045  0.1550 -0.4116
23162SOL     OW76535  10.403   6.734   3.334  0.3598 -0.5290 -0.2154
23162SOL    HW176536  10.363   6.802   3.279  1.0931  0.3752  0.3438
23162SOL    HW276537  10.406   6.656   3.277 -1.0966 -0.3025 -0.6465
23163SOL     OW76538   5.924   7.119   0.311 -0.6146  0.2062  0.3189
23163SOL    HW176539   5.921   7.204   0.268  1.6156 -0.1293 -0.6070
23163SOL    HW276540   5.978   7.132   0.389 -3.4866  0.4765  2.4514
23164SOL     OW76541   2.699   4.369   4.905 -0.3862  0.0062  0.5945
23164SOL    HW176542   2.770   4.391   4.844 -0.2922 -1.0819  0.2932
23164SOL    HW276543   2.716   4.422   4.982  1.3639 -0.9759  0.9319
23165SOL     OW76544   6.684  10.606   8.568  0.2518  0.4509  0.0984
23165SOL    HW176545   6.738  10.547   8.517  1.3748  2.3032 -0.9755
23165SOL    HW276546   6.626  10.648   8.505 -0.4638  0.5925  0.8196
23166SOL     OW76547   5.334  12.423   1.139  0.1842  0.1040 -0.5540
23166SOL    HW176548   5.361  12.485   1.072 -0.8492 -0.7455 -1.7819
23166SOL    HW276549   5.414  12.374   1.159  1.3249  2.4873  1.2778
23167SOL     OW76550  10.341  11.342   0.159 -0.2652 -0.3597  0.2287
23167SOL    HW176551  10.269  11.405   0.153 -0.2962 -0.5580 -2.9077
23167SOL    HW276552  10.309  11.263   0.115  1.1250 -1.2173  0.6769
23168SOL     OW76553   2.036  10.520   6.355 -0.1359 -0.3509 -0.0025
23168SOL    HW176554   2.045  10.567   6.271  0.4757  1.6012  1.0955
23168SOL    HW276555   1.948  10.543   6.385  0.1073 -0.0256  0.4649
23169SOL     OW76556  10.283   4.498   8.704  0.3206 -0.6742  0.0019
23169SOL    HW176557  10.287   4.477   8.797  0.1214 -0.6441  0.0181
23169SOL    HW276558  10.202   4.549   8.694  0.3139 -0.7208 -0.1966
23170SOL     OW76559  11.217   2.954   5.808  0.1900 -0.1704  0.5887
23170SOL    HW176560  11.162   3.008   5.865  2.6880  0.4643  2.5848
23170SOL    HW276561  11.280   2.913   5.867  1.3388 -1.5414 -1.4567
23171SOL     OW76562   7.294  11.237  12.022  0.7732  0.0169  0.2005
23171SOL    HW176563   7.384  11.265  12.003  0.8633 -0.0917  0.4697
23171SOL    HW276564   7.240  11.289  11.962  0.8253  1.7486  1.5513
23172SOL     OW76565  11.131   3.204   1.390  0.0907  0.4344  0.2841
23172SOL    HW176566  11.076   3.156   1.452  0.6243 -1.0743 -0.3585
23172SOL    HW276567  11.071   3.264   1.346 -0.8786 -0.5450  0.2256
23173SOL     OW76568   5.566   2.314   5.744 -0.5052 -0.2316  0.4535
23173SOL    HW176569   5.619   2.256   5.690 -0.4149  0.4339 -0.1801
23173SOL    HW276570   5.618   2.327   5.823  0.2358  0.3151 -0.1085
23174SOL     OW76571   9.486   6.350   2.722  0.2044 -0.6681 -0.5439
23174SOL    HW176572   9.452   6.265   2.695 -0.1226 -0.2258 -1.5636
23174SOL    HW276573   9.575   6.353   2.686  0.2063 -0.5639 -0.5317
23175SOL     OW76574   3.660   3.804   3.429 -0.1610  0.4338  0.3666
23175SOL    HW176575   3.627   3.750   3.501 -0.6672  1.1515  0.6810
23175SOL    HW276576   3.721   3.747   3.383  0.0513 -0.0876  1.2689
23176SOL     OW76577   5.252   2.857   1.618 -0.0155 -0.8963  0.1151
23176SOL    HW176578   5.258   2.947   1.650 -0.0428 -0.3211 -1.4038
23176SOL    HW276579   5.336   2.818   1.641 -0.5609 -0.9968  2.1516
23177SOL     OW76580   0.319   3.639  11.580  0.2629 -0.2082 -0.3237
23177SOL    HW176581   0.378   3.712  11.599 -0.1590  0.4730 -1.5672
23177SOL    HW276582   0.237   3.663  11.624  1.2530 -1.8992  2.8048
23178SOL     OW76583  10.601   9.412   4.926  0.0852  0.2638 -0.2492
23178SOL    HW176584  10.520   9.379   4.965  1.2297 -0.3222  1.7918
23178SOL    HW276585  10.638   9.336   4.882  1.0715 -0.3997  1.6065
23179SOL     OW76586   3.294   2.007   7.332  0.0304 -0.5426  0.5041
23179SOL    HW176587   3.224   1.944   7.350 -0.6380  0.0045 -0.1382
23179SOL    HW276588   3.301   2.057   7.414  0.7497 -1.6007  1.1129
23180SOL     OW76589   2.176   5.930  12.555  0.1593 -0.0433  0.0280
23180SOL    HW176590   2.114   6.001  12.575  0.2882 -0.0107  0.3236
23180SOL    HW276591   2.196   5.891  12.640  0.6165  0.0047 -0.0520
23181SOL     OW76592   5.996   7.891   6.320 -0.2999  0.4267 -0.5551
23181SOL    HW176593   5.927   7.830   6.296 -0.5293 -0.4786  2.0784
23181SOL    HW276594   5.997   7.890   6.416  4.0080 -0.4328 -0.3742
23182SOL     OW76595   3.841   8.401   0.965  0.1780  0.9581 -0.2596
23182SOL    HW176596   3.768   8.345   0.939 -0.0643  1.7074 -1.2634
23182SOL    HW276597   3.856   8.457   0.889  0.4832  2.1842  0.6710
23183SOL     OW76598   9.157   1.482   5.463  0.8803 -0.2815 -0.1012
23183SOL    HW176599   9.089   1.535   5.506  1.6060  1.3579 -0.8900
23183SOL    HW276600   9.188   1.536   5.391  2.8076 -1.1182  0.0282
23184SOL     OW76601   1.555   3.664   9.337 -0.1845  0.1658  0.0317
23184SOL    HW176602   1.571   3.621   9.421 -1.1407  0.2914  0.2902
23184SOL    HW276603   1.607   3.745   9.342 -0.8323  0.5524  0.8329
23185SOL     OW76604   5.847   3.371  11.998 -0.2308  0.3529 -0.1696
23185SOL    HW176605   5.889   3.444  12.042  0.2516 -0.1074  0.1448
23185SOL    HW276606   5.754   3.379  12.022 -0.0819  0.5091  0.3701
23186SOL     OW76607   8.471   2.145   8.390  0.2289  0.1867 -0.7428
23186SOL    HW176608   8.385   2.103   8.396 -0.0339  0.8341  0.2832
23186SOL    HW276609   8.496   2.136   8.298 -2.0883  2.2112 -1.6694
23187SOL     OW76610   0.986   4.264   4.309  0.3680 -0.2296 -0.1695
23187SOL    HW176611   0.969   4.355   4.333  1.5306  0.1065 -0.5461
23187SOL    HW276612   0.983   4.265   4.213  0.0735 -0.6636 -0.1667
23188SOL     OW76613   6.298   8.906   3.568  0.2445  0.0005 -0.0115
23188SOL    HW176614   6.322   8.892   3.659  1.1156 -1.1782 -0.3933
23188SOL    HW276615   6.285   9.000   3.560 -1.9613 -0.0744  1.8035
23189SOL     OW76616   3.011   9.801   1.075  0.2177  0.9723 -0.8421
23189SOL    HW176617   3.102   9.810   1.100 -0.2125  0.1906  1.1860
23189SOL    HW276618   3.003   9.712   1.041 -0.0881  0.4614  0.5167
23190SOL     OW76619   6.064  11.566  10.988  0.2025 -0.1031  0.7169
23190SOL    HW176620   6.014  11.491  11.021 -1.7451  1.9358  2.7537
23190SOL    HW276621   6.071  11.551  10.894 -0.6639 -2.5103  0.9692
23191SOL     OW76622   6.848   4.392   3.568 -0.3944 -0.7757 -0.0352
23191SOL    HW176623   6.844   4.326   3.636 -0.6301 -0.5576  0.1646
23191SOL    HW276624   6.881   4.346   3.491  0.8977 -0.7959  0.5009
23192SOL     OW76625   8.709   1.138   2.942 -0.4080  0.5751 -0.3386
23192SOL    HW176626   8.777   1.195   2.908 -0.9597  0.8814 -0.9575
23192SOL    HW276627   8.662   1.192   3.006  1.5387 -0.4380  2.1369
23193SOL     OW76628  11.896   7.065   3.603  0.3011  0.4720 -0.1664
23193SOL    HW176629  11.925   7.063   3.694 -0.7289  1.6817  0.2196
23193SOL    HW276630  11.933   6.986   3.564  1.3876  0.3244  1.1017
23194SOL     OW76631   3.320   9.857   0.428 -0.1902  0.4723  0.1976
23194SOL    HW176632   3.313   9.814   0.513 -1.7224  1.3031  0.5304
23194SOL    HW276633   3.277   9.798   0.367 -3.0732  1.7488  0.7949
23195SOL     OW76634   0.316   9.557   8.899  0.7526 -0.8740 -0.0287
23195SOL    HW176635   0.396   9.610   8.896  1.1263 -1.3298  1.2555
23195SOL    HW276636   0.282   9.560   8.809  1.9748 -0.3183 -0.4979
23196SOL     OW76637   0.116  11.467   3.287  0.1401 -0.7165 -0.0659
23196SOL    HW176638   0.046  11.526   3.314  1.1769  0.5842 -0.0795
23196SOL    HW276639   0.178  11.524   3.241  1.5398 -1.6842  0.5585
23197SOL     OW76640   1.843   1.586   1.596  0.3389  0.1357 -0.0082
23197SOL    HW176641   1.776   1.608   1.660 -0.9360 -0.7950 -0.9689
23197SOL    HW276642   1.842   1.490   1.594  3.1670 -0.0422  1.4323
23198SOL     OW76643   0.534   2.272  10.169  0.0162  0.2660 -0.1371
23198SOL    HW176644   0.447   2.308  10.186 -0.4263 -0.8850  0.1166
23198SOL    HW276645   0.552   2.216  10.244  0.9051  0.3400 -0.2815
23199SOL     OW76646   2.514   0.810   3.940 -0.3252 -0.2952  0.6448
23199SOL    HW176647   2.576   0.836   4.009 -0.5673 -0.5008  0.9409
23199SOL    HW276648   2.500   0.717   3.954 -1.5581 -0.0284  1.2768
23200SOL     OW76649   4.361   5.216   2.504 -0.0638  0.0133  0.4195
23200SOL    HW176650   4.443   5.206   2.456  0.0920  0.1549  0.6604
23200SOL    HW276651   4.293   5.196   2.439  0.1663 -0.3567  0.2888
23201SOL     OW76652   6.066   1.746   8.214 -0.2140  0.2831  0.2442
23201SOL    HW176653   6.062   1.828   8.263 -0.6723 -0.0366  0.7481
23201SOL    HW276654   6.087   1.679   8.279  2.3039  0.2643 -0.5004
23202SOL     OW76655   5.709   9.283   9.906 -0.0516  0.3142  0.1153
23202SOL    HW176656   5.687   9.363   9.857  1.9744  0.3536 -0.8115
23202SOL    HW276657   5.641   9.278   9.973 -1.4899  1.6213 -1.1429
23203SOL     OW76658   9.895   0.553   6.825 -0.4550 -0.3635  0.1011
23203SOL    HW176659   9.887   0.523   6.915  1.4585 -1.0235  0.0957
23203SOL    HW276660   9.917   0.475   6.775  0.3587  0.3079 -0.6239
23204SOL     OW76661  12.193   6.248   0.369  0.0796  0.6082 -0.0936
23204SOL    HW176662  12.219   6.331   0.408 -0.9264 -0.2955  2.7562
23204SOL    HW276663  12.262   6.229   0.306  0.6567  3.2753 -0.3834
23205SOL     OW76664  11.687   5.410   6.382 -0.9298 -0.1749  0.5367
23205SOL    HW176665  11.594   5.418   6.359 -0.4425 -0.6657 -1.8380
23205SOL    HW276666  11.696   5.320   6.412 -1.0765 -0.3835 -0.0315
23206SOL     OW76667   6.079   4.527   5.771  0.3370  0.1070 -0.1448
23206SOL    HW176668   6.011   4.498   5.832  0.2467  0.2433 -0.1813
23206SOL    HW276669   6.031   4.550   5.692  0.6741 -3.3353 -1.5520
23207SOL     OW76670   2.393  11.751   5.092 -0.0813  0.0887  0.1232
23207SOL    HW176671   2.354  11.691   5.156  1.2430 -0.6168  0.3159
23207SOL    HW276672   2.455  11.803   5.143  0.2176  0.2584 -0.4057
23208SOL     OW76673   9.683   9.707   7.210 -0.5615 -0.1876 -0.1558
23208SOL    HW176674   9.602   9.704   7.159 -1.3084 -1.0078  1.0265
23208SOL    HW276675   9.659   9.748   7.292 -0.4603 -2.8018  1.2875
23209SOL     OW76676   3.811  11.151   6.715  0.2817 -0.0754  0.0400
23209SOL    HW176677   3.726  11.123   6.682  1.0674  0.5775 -2.8071
23209SOL    HW276678   3.800  11.152   6.810 -2.5207 -1.0734 -0.1670
23210SOL     OW76679   2.456   9.539   2.221 -0.2233  0.3542  0.3198
23210SOL    HW176680   2.525   9.472   2.223  0.2345  0.7552 -0.8005
23210SOL    HW276681   2.388   9.501   2.165  0.1961  0.9486 -0.6158
23211SOL     OW76682   0.222  10.790   4.125  0.0832 -0.1406  0.0880
23211SOL    HW176683   0.295  10.777   4.185  0.6205 -1.1147 -0.7595
23211SOL    HW276684   0.254  10.852   4.060 -0.4876  0.8861  0.7485
23212SOL     OW76685   8.480   6.974   7.519  0.3283 -0.1359 -0.1661
23212SOL    HW176686   8.395   6.956   7.480 -0.2170 -0.7707  1.2578
23212SOL    HW276687   8.477   7.066   7.545 -0.8971 -0.7888  2.1557
23213SOL     OW76688   4.190   6.795   3.475  0.1816  0.4221  0.2640
23213SOL    HW176689   4.266   6.839   3.436 -0.3284  1.0222 -0.0701
23213SOL    HW276690   4.205   6.800   3.569  0.5934  0.4703  0.2000
23214SOL     OW76691  10.542   1.008   6.111  0.7865  0.0752  0.4215
23214SOL    HW176692  10.576   1.089   6.149 -0.7629  0.4703  1.0634
23214SOL    HW276693  10.514   0.956   6.186  2.3025 -1.3417  0.0461
23215SOL     OW76694   2.543   1.846   4.331 -0.2966  0.2551  0.6865
23215SOL    HW176695   2.505   1.776   4.278  0.4797 -0.6118  1.2484
23215SOL    HW276696   2.637   1.843   4.311  0.3114 -1.2193  3.3288
23216SOL     OW76697   7.188   7.402  10.426 -0.6266  0.0763  0.0168
23216SOL    HW176698   7.121   7.352  10.380 -0.3329 -0.3118  0.0065
23216SOL    HW276699   7.147   7.487  10.443 -1.1989 -0.2312  0.2085
23217SOL     OW76700   6.737   1.541  12.088  0.5043 -0.1228 -0.1493
23217SOL    HW176701   6.697   1.502  12.166  0.2487  0.0814 -0.1762
23217SOL    HW276702   6.808   1.595  12.121  1.0793 -0.8715 -0.1338
23218SOL     OW76703   8.289   2.294   9.499  0.1754  0.0784  0.9053
23218SOL    HW176704   8.321   2.306   9.588 -0.7359 -0.9686  1.3853
23218SOL    HW276705   8.199   2.327   9.500 -0.0195 -0.4275  0.5143
23219SOL     OW76706   7.982   3.029   2.337  0.1094  0.8173 -0.1235
23219SOL    HW176707   8.004   2.975   2.413  0.6372  1.1055 -0.0638
23219SOL    HW276708   8.051   3.095   2.335 -0.2572  1.1922 -0.4826
23220SOL     OW76709   1.526   9.596   5.284 -0.5644  0.5843 -0.5079
23220SOL    HW176710   1.434   9.611   5.307 -0.4805  1.6337 -0.7834
23220SOL    HW276711   1.526   9.593   5.188 -0.3138  0.5843 -0.5078
23221SOL     OW76712   8.582   9.546   6.242 -0.1311  0.3050  0.1831
23221SOL    HW176713   8.516   9.584   6.183  0.0233 -1.7309 -1.4255
23221SOL    HW276714   8.571   9.451   6.230 -0.8358 -0.3007  4.3071
23222SOL     OW76715   6.047   2.520   8.874  0.3165  0.0338  0.2408
23222SOL    HW176716   6.067   2.577   8.948 -0.4969  0.8184 -0.1306
23222SOL    HW276717   5.957   2.490   8.889  0.2821 -0.1153 -0.2318
23223SOL     OW76718   6.716   1.331  11.856 -0.0821 -0.2641 -0.2042
23223SOL    HW176719   6.699   1.373  11.940  2.9710 -0.5976  0.7106
23223SOL    HW276720   6.751   1.400  11.800 -2.0652 -0.0489 -1.2806
23224SOL     OW76721   4.548   8.263   8.939 -0.2657  0.1842  0.3668
23224SOL    HW176722   4.543   8.204   8.864 -0.3836  2.1281 -1.2444
23224SOL    HW276723   4.470   8.318   8.931  0.2630  1.1093  1.3463
23225SOL     OW76724   9.077   4.562   1.783  0.6375  0.4118  0.1006
23225SOL    HW176725   9.003   4.565   1.843 -0.7448 -2.5728 -1.2399
23225SOL    HW276726   9.141   4.506   1.826  0.8229  0.4991 -0.0578
23226SOL     OW76727  10.114   2.876   2.745  0.0684  0.2281 -0.0739
23226SOL    HW176728  10.070   2.905   2.825  1.8092  0.7920  0.7427
23226SOL    HW276729  10.148   2.957   2.707 -0.6773 -0.0462 -1.3659
23227SOL     OW76730   5.690  12.495   3.101 -0.1829  0.3733 -0.2382
23227SOL    HW176731   5.784  12.499   3.117  0.1804  0.2352 -2.0989
23227SOL    HW276732   5.673  12.565   3.037 -1.1887 -0.1354 -0.5614
23228SOL     OW76733   8.845  11.774   0.090 -0.0064 -0.0646 -0.0490
23228SOL    HW176734   8.795  11.851   0.062 -2.0863 -0.4604  2.2785
23228SOL    HW276735   8.850  11.782   0.185  2.2912 -1.3715  0.0187
23229SOL     OW76736   7.314   0.475   8.530 -0.5239  0.0927  0.4663
23229SOL    HW176737   7.373   0.424   8.475 -0.8839 -0.8865  0.9549
23229SOL    HW276738   7.228   0.463   8.489 -0.5760  0.5238  0.4444
23230SOL     OW76739   8.447   3.331   9.872  0.3768  0.6656  0.7029
23230SOL    HW176740   8.403   3.409   9.840  0.4094 -0.0556 -1.2288
23230SOL    HW276741   8.383   3.290   9.932 -0.5603  0.9698 -0.0686
23231SOL     OW76742   1.541   6.399   7.659 -0.3272 -0.1320 -0.3095
23231SOL    HW176743   1.588   6.322   7.690 -0.7878 -0.9935 -1.6616
23231SOL    HW276744   1.471   6.412   7.723  1.2399  0.7245  1.3225
23232SOL     OW76745   5.109   2.825  11.207 -0.0017 -0.1015  0.1507
23232SOL    HW176746   5.103   2.874  11.125  0.5417  0.1671  0.2653
23232SOL    HW276747   5.191   2.856  11.247 -0.3521 -0.1007  0.8743
23233SOL     OW76748   5.323   9.656  11.544 -0.1432  0.1491  0.3278
23233SOL    HW176749   5.235   9.682  11.569 -0.3619 -0.6274  0.3834
23233SOL    HW276750   5.310   9.588  11.478  0.4177  1.0336 -0.7248
23234SOL     OW76751   3.172   0.607   0.537  1.1372 -0.9669 -0.2700
23234SOL    HW176752   3.181   0.517   0.568  0.9631 -0.6526  0.7581
23234SOL    HW276753   3.095   0.605   0.480  0.7898 -1.3638  0.1975
23235SOL     OW76754   7.681   9.513   7.398 -0.1630 -0.0963  0.1406
23235SOL    HW176755   7.729   9.564   7.463  0.3734 -0.1645 -0.1892
23235SOL    HW276756   7.663   9.576   7.327 -0.4807 -0.0931  0.2234
23236SOL     OW76757  10.662   5.628  10.629  0.4295 -0.2654 -0.3864
23236SOL    HW176758  10.674   5.646  10.536 -0.3146 -0.6325 -0.5635
23236SOL    HW276759  10.578   5.581  10.633  1.1950 -1.6357  0.3035
23237SOL     OW76760   6.434   5.226  11.847  0.2541 -0.6740  0.3890
23237SOL    HW176761   6.452   5.303  11.794  1.0064 -0.7032  0.5917
23237SOL    HW276762   6.510   5.170  11.834 -0.4924 -1.6070 -0.1396
23238SOL     OW76763  10.474   5.319  12.575 -0.2657  0.6390  0.5111
23238SOL    HW176764  10.393   5.367  12.591 -0.7682 -0.4290  1.3236
23238SOL    HW276765  10.451   5.227  12.590  0.4888  0.0319 -1.6425
23239SOL     OW76766   4.179   8.446  12.216  0.4536  0.0482 -0.5161
23239SOL    HW176767   4.093   8.483  12.237  0.5325  0.0488 -0.1908
23239SOL    HW276768   4.210   8.409  12.299  0.7976  0.1142 -0.6135
23240SOL     OW76769   7.300   2.504   4.759 -0.2896  0.4898 -0.9237
23240SOL    HW176770   7.221   2.555   4.767 -1.1706 -0.8537 -0.6936
23240SOL    HW276771   7.326   2.515   4.667 -1.7873 -0.4761 -1.5087
23241SOL     OW76772   0.076  11.178   9.186  0.1265 -0.1473 -0.6355
23241SOL    HW176773   0.171  11.187   9.179  0.0655 -0.0968 -1.4118
23241SOL    HW276774   0.060  11.084   9.181  0.0568 -0.0895 -1.5288
23242SOL     OW76775   8.572   7.698   9.217 -0.2222  0.0171 -0.3679
23242SOL    HW176776   8.587   7.772   9.275 -1.5393 -0.1747  0.2607
23242SOL    HW276777   8.575   7.621   9.274  0.3327 -0.3493 -0.8797
23243SOL     OW76778  12.313  11.303   2.473  0.7491 -1.2774  0.5306
23243SOL    HW176779  12.265  11.222   2.490  0.1671 -0.9071  0.6646
23243SOL    HW276780  12.294  11.323   2.381  1.7516 -1.8498  0.1744
23244SOL     OW76781   6.716   9.064   9.794  0.1491 -0.0458 -0.0761
23244SOL    HW176782   6.635   9.014   9.784 -0.3755  0.7614 -0.0081
23244SOL    HW276783   6.786   8.999   9.793 -0.5655 -0.8493  0.9165
23245SOL     OW76784   2.122   7.487  10.996  0.3797  0.3774  0.1522
23245SOL    HW176785   2.053   7.426  11.022  0.7401 -0.1549 -0.1248
23245SOL    HW276786   2.203   7.437  11.006  0.5799  0.3408 -1.4196
23246SOL     OW76787   8.601   2.364   8.922  0.1544  0.2645 -0.2454
23246SOL    HW176788   8.598   2.392   9.014  0.0355  0.6938 -0.3769
23246SOL    HW276789   8.668   2.296   8.920 -1.4185 -1.3993  0.6010
23247SOL     OW76790   8.083   1.566  11.752  0.2965 -0.3015 -0.5114
23247SOL    HW176791   7.993   1.537  11.736  0.6667 -1.7730 -0.0562
23247SOL    HW276792   8.122   1.574  11.665  0.0714 -0.8551 -0.6669
23248SOL     OW76793  11.737   3.470   1.278 -0.2243  0.5603  0.1652
23248SOL    HW176794  11.738   3.410   1.202 -2.2960  1.0899 -0.3481
23248SOL    HW276795  11.747   3.412   1.353 -3.2363 -0.7092 -0.2427
23249SOL     OW76796  12.126   1.983  11.226 -0.3654  0.0587  0.1638
23249SOL    HW176797  12.101   1.951  11.140  0.4517  0.1789 -0.1326
23249SOL    HW276798  12.077   2.065  11.236  0.0329  0.3903 -0.4828
23250SOL     OW76799   7.371   3.524   7.056  0.2141  0.5195  0.3896
23250SOL    HW176800   7.276   3.521   7.068  0.2952 -0.9345  0.8973
23250SOL    HW276801   7.405   3.547   7.143  0.2909  2.7807 -0.1784
23251SOL     OW76802   2.150   0.042   4.180  0.1295 -0.0818 -0.0062
23251SOL    HW176803   2.069   0.059   4.229  0.4312 -2.0107  1.3305
23251SOL    HW276804   2.127  -0.028   4.119  1.1935 -2.2738  1.9320
23252SOL     OW76805   9.039   0.499   3.533 -0.3395  0.5103  0.0278
23252SOL    HW176806   9.057   0.572   3.591  0.3162  0.1068  0.3396
23252SOL    HW276807   8.959   0.460   3.568  0.3475 -0.0532  0.9865
23253SOL     OW76808   8.550   3.019   9.119  0.0514 -0.7059  0.3585
23253SOL    HW176809   8.607   2.947   9.090 -0.0872 -2.2172  3.4721
23253SOL    HW276810   8.528   2.997   9.209 -2.2583  1.9079  0.5466
23254SOL     OW76811   2.976   4.131   1.150 -0.0619 -0.6483  0.7343
23254SOL    HW176812   2.971   4.108   1.058  0.9983  0.6412  0.3374
23254SOL    HW276813   2.908   4.197   1.162  1.8329  1.5636  0.0803
23255SOL     OW76814   6.494   0.481   6.127  0.9597 -0.1141 -0.6289
23255SOL    HW176815   6.412   0.438   6.149  0.7259  0.9889  0.8133
23255SOL    HW276816   6.557   0.447   6.190  0.9988  0.9135 -0.0990
23256SOL     OW76817   0.640   2.053   2.139  0.5452 -0.0704 -0.2201
23256SOL    HW176818   0.658   2.042   2.045  1.4240 -2.2797  0.1542
23256SOL    HW276819   0.604   1.970   2.167 -1.3181  1.1160  1.1193
23257SOL     OW76820   8.459   0.328   6.240  0.1927  0.6387 -0.0317
23257SOL    HW176821   8.461   0.234   6.226  1.0964  0.7608 -0.8803
23257SOL    HW276822   8.431   0.339   6.331 -2.8338 -0.3224 -0.7330
23258SOL     OW76823   5.119   3.941   5.137  0.4677 -0.0265  0.4590
23258SOL    HW176824   5.057   3.882   5.180  0.8211 -0.7867 -0.0448
23258SOL    HW276825   5.071   4.023   5.126  0.1503 -0.0322  1.6776
23259SOL     OW76826  10.772   9.688  10.000  0.5019 -0.5277  0.1861
23259SOL    HW176827  10.846   9.749   9.999  0.1318 -0.0585  0.7899
23259SOL    HW276828  10.785   9.636  10.079 -0.1634  0.0090  0.6625
23260SOL     OW76829   0.252   6.734  12.037 -0.0281  0.3065 -0.6652
23260SOL    HW176830   0.212   6.778  11.961 -1.6080 -1.5416 -0.9733
23260SOL    HW276831   0.221   6.644  12.032  2.1434 -0.6025  0.6053
23261SOL     OW76832   5.719  11.898   0.907 -0.4100  0.0576  0.0589
23261SOL    HW176833   5.650  11.960   0.935  0.0811  0.8579 -0.4511
23261SOL    HW276834   5.734  11.843   0.984 -2.7121 -1.1870 -0.2712
23262SOL     OW76835  10.641  11.558   3.767  0.0706  0.9243  0.1306
23262SOL    HW176836  10.716  11.511   3.730  0.0343  0.5043  0.5671
23262SOL    HW276837  10.679  11.636   3.808  0.3669  0.3871  0.9131
23263SOL     OW76838   9.034   9.615   8.240  0.3964  0.2751 -0.4493
23263SOL    HW176839   9.129   9.604   8.253  0.4531 -0.0319 -1.0798
23263SOL    HW276840   8.997   9.532   8.269  0.4736 -0.2054 -1.6584
23264SOL     OW76841  12.009   1.460   5.961 -0.0395 -0.2169 -0.0391
23264SOL    HW176842  12.038   1.487   6.048 -1.1464 -0.2169  0.3391
23264SOL    HW276843  12.086   1.474   5.906 -0.4862  4.1284  0.0331
23265SOL     OW76844   0.499   3.013   6.491 -0.0330 -0.5523 -0.1077
23265SOL    HW176845   0.525   3.070   6.419 -0.8344 -1.3237 -1.0273
23265SOL    HW276846   0.553   3.041   6.565  0.5872  0.4436 -0.9234
23266SOL     OW76847   6.572   2.275   3.800  0.7877  0.0399 -0.2549
23266SOL    HW176848   6.607   2.187   3.786 -1.4437 -0.8026 -0.9911
23266SOL    HW276849   6.510   2.264   3.872 -0.0631  0.8237 -0.8484
23267SOL     OW76850   5.218   9.965   4.997  0.5534  0.6716  0.3499
23267SOL    HW176851   5.157   9.977   5.069 -0.0158  0.3005 -0.0636
23267SOL    HW276852   5.257   9.879   5.013 -0.0876  0.2781 -0.1530
23268SOL     OW76853  10.659  11.302   9.418 -0.1039  0.1044 -0.5076
23268SOL    HW176854  10.574  11.338   9.445 -1.3114 -0.8212 -2.7781
23268SOL    HW276855  10.706  11.377   9.380 -0.5281  0.3229 -0.6041
23269SOL     OW76856   7.365   3.497  12.422 -0.6260  0.4892 -0.6240
23269SOL    HW176857   7.416   3.449  12.486 -0.5780  1.2644 -0.0725
23269SOL    HW276858   7.325   3.569  12.471 -3.1317 -0.6716 -0.7839
23270SOL     OW76859  10.237   0.248  11.910 -0.3127  0.4440 -0.0029
23270SOL    HW176860  10.255   0.337  11.879 -1.2915  0.7804  0.3708
23270SOL    HW276861  10.142   0.247  11.925 -0.4102 -0.8501 -0.6007
23271SOL     OW76862   3.612   0.305   1.343  0.5855 -0.0035 -0.4914
23271SOL    HW176863   3.596   0.289   1.250  1.7582  1.8869 -1.0693
23271SOL    HW276864   3.570   0.389   1.360  1.5102  0.3041  0.3446
23272SOL     OW76865   0.933   3.332   5.725  0.4288  0.0126  0.5209
23272SOL    HW176866   0.997   3.357   5.791 -0.1485 -1.1716  1.5788
23272SOL    HW276867   0.952   3.240   5.706  0.2136  0.1705 -0.5547
23273SOL     OW76868   4.366   0.574   9.721  0.2129  0.0596  0.2640
23273SOL    HW176869   4.298   0.571   9.789  0.4368  0.2913  0.4994
23273SOL    HW276870   4.432   0.512   9.751  1.1645  1.4572  1.1802
23274SOL     OW76871   0.099   7.581   7.067 -0.1196  0.2122 -0.5312
23274SOL    HW176872   0.009   7.552   7.049  0.4683 -1.3501 -1.0242
23274SOL    HW276873   0.142   7.505   7.106  1.1224  0.8072 -0.6945
23275SOL     OW76874  11.996   4.423   0.101  0.0579  0.5083 -0.0741
23275SOL    HW176875  12.009   4.361   0.029  1.8516  0.2999  0.3830
23275SOL    HW276876  11.902   4.419   0.119 -0.1780 -0.6073 -1.3418
23276SOL     OW76877  12.450   0.931   9.898 -0.1423  0.3793  0.0719
23276SOL    HW176878  12.531   0.925   9.847  0.6846  1.2650  1.1997
23276SOL    HW276879  12.477   0.911   9.988 -1.4581 -0.6993  0.2531
23277SOL     OW76880   3.157   0.522   3.143 -0.2364  0.3781  0.0439
23277SOL    HW176881   3.138   0.428   3.147 -0.0555  0.3623  0.6018
23277SOL    HW276882   3.174   0.547   3.234  0.5324  0.7775 -0.1999
23278SOL     OW76883   0.709  10.260   4.926 -0.4537  0.1818  0.3026
23278SOL    HW176884   0.718  10.355   4.921 -0.4932  0.1326 -1.0518
23278SOL    HW276885   0.726  10.239   5.018  1.6636  1.2793  0.2279
23279SOL     OW76886   3.062   3.512   0.441 -0.0050 -0.3332  0.0600
23279SOL    HW176887   3.150   3.478   0.457  1.1698  1.9640 -1.0010
23279SOL    HW276888   3.024   3.451   0.377  0.5314 -1.7298  1.0381
23280SOL     OW76889   4.783   2.372  12.179  0.5199 -0.5564 -0.3503
23280SOL    HW176890   4.805   2.368  12.086  0.6538 -0.8883 -0.3047
23280SOL    HW276891   4.867   2.370  12.224  0.4754 -0.0018 -0.2299
23281SOL     OW76892   3.828   7.836   1.270 -0.0643  0.1827 -0.4811
23281SOL    HW176893   3.784   7.882   1.197  0.1448  0.6991 -0.2869
23281SOL    HW276894   3.907   7.887   1.285 -1.5930  1.9868  2.1858
23282SOL     OW76895  10.554   6.268   1.409  0.2764  0.6967 -0.4123
23282SOL    HW176896  10.490   6.204   1.441  0.6952 -0.0390 -1.0332
23282SOL    HW276897  10.638   6.237   1.442  0.7437 -0.1523 -2.2519
23283SOL     OW76898  10.111  11.391  12.367  0.2633  0.5229 -0.0002
23283SOL    HW176899  10.036  11.332  12.378 -0.2079  0.8197 -1.3454
23283SOL    HW276900  10.081  11.475  12.402 -0.6580  1.0612 -1.9295
23284SOL     OW76901   3.016  12.145   9.133  0.3628  0.1024 -0.7116
23284SOL    HW176902   3.063  12.182   9.208  0.6025  0.0404 -0.8289
23284SOL    HW276903   2.945  12.095   9.173 -0.2907  1.1207 -0.5697
23285SOL     OW76904   6.564   0.455   9.917  0.4501 -0.0911 -0.6907
23285SOL    HW176905   6.484   0.413   9.885  0.0956  0.9212 -1.1647
23285SOL    HW276906   6.535   0.508   9.990  0.2028  2.2415 -2.3787
23286SOL     OW76907   9.754   9.536   1.870 -0.0393  0.2947  0.0124
23286SOL    HW176908   9.687   9.496   1.814  1.3471 -1.5632 -0.4332
23286SOL    HW276909   9.816   9.575   1.809 -0.3110  1.3877  0.4056
23287SOL     OW76910   9.187  10.566   5.331 -0.1515 -0.1839 -0.3335
23287SOL    HW176911   9.282  10.575   5.338 -0.1408  1.2507 -1.7269
23287SOL    HW276912   9.154  10.656   5.333 -1.4540 -0.6407 -0.3074
23288SOL     OW76913   8.386   6.266   5.499 -0.2478 -0.4169 -0.3992
23288SOL    HW176914   8.348   6.354   5.504 -0.6356 -0.5579 -0.7754
23288SOL    HW276915   8.426   6.252   5.584 -2.2986 -0.8289  0.5523
23289SOL     OW76916  10.486   7.957   7.831  0.1047 -0.5399 -0.5451
23289SOL    HW176917  10.508   8.035   7.882  1.4393 -1.4644  0.3546
23289SOL    HW276918  10.399   7.932   7.863  0.4265 -0.4319  0.4545
23290SOL     OW76919   9.295   7.322   6.183 -0.2144  0.3289  0.0976
23290SOL    HW176920   9.379   7.332   6.227  0.0541  0.3377 -0.4113
23290SOL    HW276921   9.315   7.335   6.090 -0.9210  1.2261  0.0590
23291SOL     OW76922   4.154   2.609  10.077  0.2034 -0.2487 -0.0505
23291SOL    HW176923   4.184   2.530  10.122 -0.4832  0.1019  1.0841
23291SOL    HW276924   4.213   2.619  10.003  0.8344 -1.3450  0.2861
23292SOL     OW76925   2.254   3.696   2.258 -0.8571  0.0769  0.1586
23292SOL    HW176926   2.328   3.643   2.229 -1.5265 -1.0341  0.3728
23292SOL    HW276927   2.177   3.649   2.224 -1.4503  1.4279 -0.4284
23293SOL     OW76928   0.675   4.206   0.787 -0.2434 -0.5471 -0.7210
23293SOL    HW176929   0.705   4.211   0.697 -0.9169 -0.4621 -0.9486
23293SOL    HW276930   0.689   4.115   0.812  2.1040 -0.0904 -0.1189
23294SOL     OW76931   2.072  10.715   5.957  0.0443  0.0486 -0.3066
23294SOL    HW176932   2.140  10.666   6.002  1.2737  1.7207 -0.2101
23294SOL    HW276933   2.050  10.786   6.017 -0.8548  0.2663 -0.8809
23295SOL     OW76934   3.374  10.209   5.093 -0.0655 -0.3026 -0.1363
23295SOL    HW176935   3.379  10.282   5.155 -0.0934 -1.5956  1.4654
23295SOL    HW276936   3.415  10.242   5.014  0.8780  1.1002  0.8836
23296SOL     OW76937   1.151   7.082   6.559 -0.5052 -0.8003 -0.1332
23296SOL    HW176938   1.088   7.039   6.501 -1.1108 -0.7609  0.4785
23296SOL    HW276939   1.190   7.151   6.506 -1.2328 -0.6015 -0.4208
23297SOL     OW76940   2.795   3.126   4.533 -0.5785 -0.2859  1.0933
23297SOL    HW176941   2.809   3.039   4.495 -0.1682 -1.0886  2.9835
23297SOL    HW276942   2.839   3.186   4.472  3.6624 -1.8754  2.2345
23298SOL     OW76943   0.237  10.517   7.071 -0.7386  0.3288 -0.0677
23298SOL    HW176944   0.160  10.494   7.122 -1.0908  1.9982  0.2189
23298SOL    HW276945   0.211  10.501   6.980 -1.2791  0.4747  0.0577
23299SOL     OW76946  10.563   0.791   1.875  0.7107 -0.2914  0.3134
23299SOL    HW176947  10.554   0.860   1.941  1.3304  0.6698 -0.5757
23299SOL    HW276948  10.522   0.828   1.796 -1.6561 -2.1046  0.5800
23300SOL     OW76949  12.203   4.341   1.197  0.0121  0.2005 -0.5194
23300SOL    HW176950  12.110   4.347   1.175 -0.6571 -0.7833  1.6588
23300SOL    HW276951  12.209   4.377   1.286  0.8888 -3.4094  1.0845
23301SOL     OW76952  10.121  10.754   8.619 -0.1342 -0.0315 -0.3903
23301SOL    HW176953  10.031  10.785   8.615 -0.6401 -1.5858 -1.4356
23301SOL    HW276954  10.152  10.783   8.705 -1.0891  1.8866 -0.6313
23302SOL     OW76955   7.038  10.435  11.607 -0.3033  0.1868 -0.3576
23302SOL    HW176956   7.016  10.527  11.617 -0.0966  0.3427 -1.2577
23302SOL    HW276957   7.101  10.433  11.535  1.8288 -0.3651  1.4051
23303SOL     OW76958   0.673   8.884   1.534 -0.0839  0.2108 -0.3095
23303SOL    HW176959   0.649   8.820   1.600  1.2799 -0.2192 -0.1879
23303SOL    HW276960   0.622   8.861   1.457  1.8128 -2.3221 -0.9238
23304SOL     OW76961   5.615  11.027   8.035 -0.5139 -0.1133  0.1271
23304SOL    HW176962   5.545  11.041   7.971  0.9433 -1.2422 -1.8567
23304SOL    HW276963   5.607  11.101   8.096 -1.9098  1.1254 -1.4550
23305SOL     OW76964  11.509  11.136   7.361 -0.5774 -0.0594 -0.1780
23305SOL    HW176965  11.580  11.200   7.352 -1.0872  0.4786 -0.3960
23305SOL    HW276966  11.473  11.152   7.449 -0.9344  0.1898 -0.3693
23306SOL     OW76967  10.608   4.229   8.003  0.6951 -0.3785 -0.7109
23306SOL    HW176968  10.568   4.201   7.921  2.0982  0.3334 -1.6749
23306SOL    HW276969  10.579   4.163   8.067 -0.7584 -0.7111 -1.6626
23307SOL     OW76970   8.648   3.209   8.956  0.1228  0.0115 -0.0037
23307SOL    HW176971   8.610   3.149   9.019 -1.0303 -1.7666 -2.2516
23307SOL    HW276972   8.726   3.165   8.924  0.5990  0.8054  0.0342
23308SOL     OW76973   3.927  11.088   9.834 -0.8159  0.2848 -0.4540
23308SOL    HW176974   4.013  11.091   9.792 -1.0514  3.4170 -1.0189
23308SOL    HW276975   3.887  11.008   9.801  0.9803  0.0000 -2.1350
23309SOL     OW76976   1.369  10.706  11.046  0.8408 -0.3284 -0.5110
23309SOL    HW176977   1.409  10.623  11.020  0.1300 -0.4135 -1.3534
23309SOL    HW276978   1.275  10.689  11.047  0.6572  0.5956 -1.1504
23310SOL     OW76979   1.090  10.191  11.022 -0.0822 -0.5240  0.2923
23310SOL    HW176980   0.998  10.212  11.006 -0.7943 -2.1990  1.9078
23310SOL    HW276981   1.138  10.247  10.960 -2.0105  2.2856  1.1371
23311SOL     OW76982  10.943   7.125   3.234 -0.4249 -0.1135  0.1845
23311SOL    HW176983  10.931   7.200   3.176  0.3821  0.1026  0.2912
23311SOL    HW276984  11.036   7.105   3.228 -0.3955 -0.2891  1.1710
23312SOL     OW76985   6.205   9.282  10.124  0.1865 -0.2721 -0.2137
23312SOL    HW176986   6.231   9.202  10.078 -0.2683 -1.1266  0.9505
23312SOL    HW276987   6.112   9.293  10.101  0.4957  0.5020 -1.1590
23313SOL     OW76988   5.356   0.730   7.845  0.7581  0.5408  0.8187
23313SOL    HW176989   5.263   0.718   7.827  1.2597 -1.4306 -0.6956
23313SOL    HW276990   5.378   0.660   7.907  1.6048 -0.2227 -0.3072
23314SOL     OW76991   2.284   7.873   0.736 -0.9216  0.3048 -0.2578
23314SOL    HW176992   2.328   7.939   0.789 -0.0023  0.0191 -0.6376
23314SOL    HW276993   2.249   7.921   0.661 -0.5195  0.4172 -0.3773
23315SOL     OW76994   4.871   8.398   1.186 -0.1429 -1.2182 -0.2045
23315SOL    HW176995   4.928   8.350   1.126 -0.9682 -4.1962  1.2303
23315SOL    HW276996   4.924   8.410   1.265 -0.5272 -1.3736  0.0784
23316SOL     OW76997   1.581   9.195   6.083 -0.1633 -0.3748  0.3847
23316SOL    HW176998   1.615   9.272   6.128  1.2343 -0.4372 -0.5036
23316SOL    HW276999   1.496   9.222   6.049 -0.5577  0.1452  1.7211
23317SOL     OW77000   4.561   1.733  11.840  0.0402 -0.2719  0.3639
23317SOL    HW177001   4.655   1.740  11.852 -0.1000  0.9630  0.9119
23317SOL    HW277002   4.527   1.819  11.865 -1.0775 -0.1723 -1.3024
23318SOL     OW77003   3.083   8.488   0.833 -0.1862 -0.2030 -0.1580
23318SOL    HW177004   3.087   8.433   0.911  0.5032  1.1167  0.7858
23318SOL    HW277005   2.994   8.523   0.832  0.8918  3.1281  2.5506
23319SOL     OW77006   1.530   4.511   4.709  0.4199  0.1862  0.0024
23319SOL    HW177007   1.545   4.559   4.791 -1.0159  0.4198  0.1438
23319SOL    HW277008   1.507   4.579   4.646  0.5005 -0.1024 -0.3385
23320SOL     OW77009   0.882  11.452  11.494 -0.0427 -0.5961  0.0701
23320SOL    HW177010   0.812  11.389  11.506  0.1710 -0.9097 -0.3189
23320SOL    HW277011   0.952  11.403  11.451 -0.1196  0.0620 -0.8240
23321SOL     OW77012   8.648   7.472  12.459  0.1523 -0.3909 -0.1049
23321SOL    HW177013   8.708   7.544  12.478 -0.4415 -0.3426  1.8246
23321SOL    HW277014   8.564   7.500  12.497 -0.2145 -1.8727  0.2536
23322SOL     OW77015   0.833  10.833   2.867 -0.7479 -0.0467  0.0441
23322SOL    HW177016   0.747  10.862   2.836 -0.4325  1.1149  0.1825
23322SOL    HW277017   0.892  10.848   2.793 -0.7258 -1.1995 -0.1787
23323SOL     OW77018   2.436  10.630   8.542  0.4345  0.3530  0.2075
23323SOL    HW177019   2.479  10.576   8.475  0.5626  1.2260 -0.4404
23323SOL    HW277020   2.413  10.569   8.611 -0.2382 -0.6991 -0.8972
23324SOL     OW77021   3.958   5.583  10.479  0.1017  0.3589  0.0809
23324SOL    HW177022   4.020   5.652  10.454  1.5893  0.3786  3.3406
23324SOL    HW277023   4.014   5.511  10.510 -1.4860 -1.1271 -0.3284
23325SOL     OW77024   1.746  10.881   1.542 -0.0618  0.3410  0.4231
23325SOL    HW177025   1.754  10.920   1.629 -1.5048 -1.1295  1.2792
23325SOL    HW277026   1.814  10.814   1.538 -1.3680 -1.1072  1.3428
23326SOL     OW77027  10.582   3.408  11.773  0.0574  0.5438 -0.0462
23326SOL    HW177028  10.526   3.428  11.698  2.3932 -0.9081 -2.3504
23326SOL    HW277029  10.544   3.328  11.811  0.7412 -0.7115 -1.8839
23327SOL     OW77030   3.659   9.380  10.183 -0.4589 -0.0821 -0.0847
23327SOL    HW177031   3.636   9.349  10.271 -2.0387 -1.2960 -0.8629
23327SOL    HW277032   3.577   9.410  10.146 -0.6064 -2.8296 -2.3446
23328SOL     OW77033   5.628   6.256   9.470 -0.0182  0.2199  0.2245
23328SOL    HW177034   5.660   6.310   9.398 -1.8947  1.6300  0.3818
23328SOL    HW277035   5.676   6.288   9.547 -0.2535  0.8615  0.1105
23329SOL     OW77036   1.692   6.728   5.134 -0.1528 -0.1954 -0.4000
23329SOL    HW177037   1.619   6.685   5.089 -0.0398  0.2184 -0.9917
23329SOL    HW277038   1.677   6.710   5.227 -2.2088  1.6462 -0.2882
23330SOL     OW77039  11.095  11.553   3.870 -0.3562 -0.3365  0.3027
23330SOL    HW177040  11.085  11.638   3.825 -1.6257 -0.2412  0.7166
23330SOL    HW277041  11.175  11.563   3.922  1.6236 -0.7097 -2.4276
23331SOL     OW77042   7.725   6.151   7.307 -0.2083 -0.4887  0.1862
23331SOL    HW177043   7.750   6.233   7.264  0.2266  0.1171  1.5272
23331SOL    HW277044   7.792   6.088   7.279 -0.2355 -0.2505 -0.4289
23332SOL     OW77045   7.396   9.919   8.627  0.3209  0.1356  0.1062
23332SOL    HW177046   7.306   9.902   8.655 -0.2011  2.4566  0.0271
23332SOL    HW277047   7.449   9.903   8.705  0.0556 -2.4149 -0.1530
23333SOL     OW77048   2.806   5.683   0.217  0.6952  0.1284 -0.2222
23333SOL    HW177049   2.849   5.742   0.155 -0.0279 -1.3511 -2.2148
23333SOL    HW277050   2.782   5.740   0.291  1.0605  2.0778 -1.5284
23334SOL     OW77051   7.721   0.995   8.352 -0.4886 -0.0372 -0.2542
23334SOL    HW177052   7.675   0.912   8.336  0.5747 -0.4583 -1.2748
23334SOL    HW277053   7.780   1.004   8.277  2.6037 -0.5550  1.9128
23335SOL     OW77054   9.000   2.305  11.028 -0.6321 -0.0424 -0.2188
23335SOL    HW177055   8.940   2.260  10.968  1.6809 -2.6594 -0.7496
23335SOL    HW277056   9.007   2.393  10.992 -3.6135  0.1806 -0.4894
23336SOL     OW77057   3.984  12.123   4.634  0.2395 -0.7393 -0.2597
23336SOL    HW177058   4.047  12.099   4.702 -0.3271 -1.6892 -0.0422
23336SOL    HW277059   4.035  12.120   4.553  0.7310 -0.3966  0.0323
23337SOL     OW77060   1.544   5.835  12.075 -0.7490 -0.1084  0.2747
23337SOL    HW177061   1.624   5.875  12.040  0.1709  0.5643  2.9260
23337SOL    HW277062   1.474   5.870  12.020  0.7300 -0.8385 -2.2373
23338SOL     OW77063  11.054   4.468   9.488  0.2476 -0.1047  0.1491
23338SOL    HW177064  11.110   4.497   9.416  1.8993 -0.6171  1.1661
23338SOL    HW277065  11.113   4.419   9.546 -1.0485  0.1746  1.7840
23339SOL     OW77066   9.790   1.493   0.555 -1.1076  0.4408  0.0340
23339SOL    HW177067   9.739   1.544   0.492  0.6117  1.3132 -0.7201
23339SOL    HW277068   9.880   1.525   0.544 -0.0109 -2.4127 -0.1136
23340SOL     OW77069   7.813   1.282   0.737  0.0049  0.1256  0.3106
23340SOL    HW177070   7.895   1.289   0.786  1.3318  1.0128 -1.9206
23340SOL    HW277071   7.815   1.354   0.675 -1.5181 -1.0487 -1.2088
23341SOL     OW77072   3.895   8.485   1.223  0.1509 -0.0444  0.2438
23341SOL    HW177073   3.875   8.479   1.130 -0.0922 -0.3461  0.3110
23341SOL    HW277074   3.887   8.395   1.255  0.2981  0.0462  0.5425
23342SOL     OW77075   1.210   2.232   0.167  0.3767  0.0761 -0.2957
23342SOL    HW177076   1.295   2.269   0.140  0.7671 -1.5060 -1.3637
23342SOL    HW277077   1.155   2.239   0.089  1.1027 -3.3520 -1.2700
23343SOL     OW77078   7.175   2.301   3.648 -0.3189  0.0994  0.1887
23343SOL    HW177079   7.123   2.264   3.719 -0.7141  0.5461  0.1362
23343SOL    HW277080   7.201   2.225   3.595 -0.2213 -0.2071  0.6720
23344SOL     OW77081   0.649   0.579  12.532 -0.5114 -0.1095  0.0370
23344SOL    HW177082   0.696   0.533  12.462 -1.5413  0.2654 -0.9294
23344SOL    HW277083   0.716   0.635  12.572  0.0526 -0.1740 -0.7866
23345SOL     OW77084  10.683   9.337   7.726  0.0177 -0.3554  0.3898
23345SOL    HW177085  10.686   9.263   7.787 -0.5506  0.2439  1.1675
23345SOL    HW277086  10.591   9.364   7.725  0.2289  0.3851  0.1805
23346SOL     OW77087  10.421  11.210  10.717 -0.3500  0.0536 -0.1516
23346SOL    HW177088  10.417  11.223  10.623 -2.2575  0.4854 -0.0552
23346SOL    HW277089  10.511  11.231  10.741 -0.0434  0.6891 -1.7686
23347SOL     OW77090   5.840   4.106   7.597 -0.1449  0.3449  0.0568
23347SOL    HW177091   5.924   4.068   7.571  0.5072  1.1138  0.9254
23347SOL    HW277092   5.808   4.149   7.518  0.9379  1.1650  0.0351
23348SOL     OW77093   0.075  12.563   1.584  0.0651  0.2612  0.3326
23348SOL    HW177094   0.131  12.550   1.508  0.5982  0.0935  0.7499
23348SOL    HW277095  -0.005  12.515   1.563  0.2138  0.2014 -0.1135
23349SOL     OW77096   4.583   8.496  12.117  0.0602  0.2176 -0.0585
23349SOL    HW177097   4.571   8.402  12.122  2.8152 -0.3501 -1.9931
23349SOL    HW277098   4.637   8.518  12.192  0.6092 -0.0150 -0.3782
23350SOL     OW77099   8.801   5.023   0.942 -0.1838  0.3762 -0.0884
23350SOL    HW177100   8.773   5.113   0.928 -1.2678  0.0011 -0.4258
23350SOL    HW277101   8.742   4.989   1.009 -0.4388 -0.3814 -0.6830
23351SOL     OW77102   2.752   3.844   2.239 -0.2164 -0.2577 -0.0690
23351SOL    HW177103   2.800   3.909   2.291  2.3592 -1.5832 -0.6018
23351SOL    HW277104   2.709   3.895   2.172  0.7612  1.0360  0.2309
23352SOL     OW77105   9.519   2.231   2.665  0.3971 -0.4016 -0.4816
23352SOL    HW177106   9.454   2.177   2.709 -0.3663 -0.4142 -1.5699
23352SOL    HW277107   9.548   2.178   2.591  0.4849  0.2074 -0.8957
23353SOL     OW77108   2.155  11.701  12.479 -0.6162 -0.4906 -0.4301
23353SOL    HW177109   2.108  11.727  12.558  0.8629 -1.1721  0.7327
23353SOL    HW277110   2.153  11.778  12.422 -1.8004 -0.0310  0.2147
23354SOL     OW77111   8.978   4.234   9.322 -0.0895  0.0321 -0.2891
23354SOL    HW177112   9.028   4.193   9.393  0.9856  0.9321 -0.5026
23354SOL    HW277113   9.002   4.326   9.326 -2.0068  0.5816 -0.1931
23355SOL     OW77114   1.456  10.289  11.201 -0.2597 -0.4377 -0.7262
23355SOL    HW177115   1.456  10.340  11.120 -1.3496  0.0278 -0.4540
23355SOL    HW277116   1.461  10.355  11.270 -0.6879 -0.7599 -0.3850
23356SOL     OW77117   8.815   8.381   3.611  0.3332  0.0093  0.0613
23356SOL    HW177118   8.725   8.360   3.634  0.3966 -0.4756 -0.1293
23356SOL    HW277119   8.842   8.444   3.678 -0.1829  0.2475  0.0500
23357SOL     OW77120  10.325   4.686   3.078  0.2864  0.0708 -0.5249
23357SOL    HW177121  10.248   4.711   3.027 -0.0021  1.9309  0.7464
23357SOL    HW277122  10.391   4.664   3.012 -0.5773  0.8020 -1.6616
23358SOL     OW77123  11.158   3.918   6.761 -0.2948  0.2220  0.1535
23358SOL    HW177124  11.139   3.877   6.677 -1.3422  0.7199  0.1296
23358SOL    HW277125  11.181   4.009   6.739  2.4418 -0.3734  0.1614
23359SOL     OW77126   1.040   5.911  12.226  0.0707  0.0712  0.2241
23359SOL    HW177127   1.055   5.874  12.139  0.1700 -0.7662  0.5850
23359SOL    HW277128   1.102   5.983  12.233  3.0557 -2.3902  1.1330
23360SOL     OW77129   1.531   5.611   2.524 -0.4177 -0.2334 -0.1564
23360SOL    HW177130   1.505   5.693   2.567 -1.4131 -0.3333 -0.5491
23360SOL    HW277131   1.626   5.619   2.513 -0.6355  1.3774 -1.2330
23361SOL     OW77132   7.863   6.482   1.668  0.2914 -0.1066 -0.0345
23361SOL    HW177133   7.937   6.489   1.609 -1.1935  0.5469 -1.9194
23361SOL    HW277134   7.787   6.503   1.614 -1.0878  1.3198  2.3038
23362SOL     OW77135   5.699  10.687  10.565  0.3587  0.2861  0.2057
23362SOL    HW177136   5.726  10.691  10.656  2.4660 -1.3035 -0.2937
23362SOL    HW277137   5.774  10.721  10.516 -0.9708  1.7310 -0.9645
23363SOL     OW77138   9.604  10.824  10.157 -0.1460 -0.4045 -0.1172
23363SOL    HW177139   9.591  10.899  10.098 -0.8990  0.9347  1.6428
23363SOL    HW277140   9.637  10.755  10.101  2.0906  1.7035 -1.6041
23364SOL     OW77141  10.403   7.160   8.975  0.0184  0.2611  0.4785
23364SOL    HW177142  10.329   7.220   8.984  0.2283  0.5489  0.3038
23364SOL    HW277143  10.422   7.160   8.881  0.3350  0.3061  0.5408
23365SOL     OW77144   3.295   9.657   3.857  0.3743 -0.6725 -0.0913
23365SOL    HW177145   3.300   9.739   3.807  0.8601 -0.4087  0.3772
23365SOL    HW277146   3.202   9.648   3.879  0.1626 -0.7534 -0.9690
23366SOL     OW77147   3.110   6.037  11.475 -0.2438 -0.3283 -0.1547
23366SOL    HW177148   3.100   6.095  11.399  2.5142 -0.4782 -0.7195
23366SOL    HW277149   3.054   6.076  11.542 -1.3505  0.8347 -1.6580
23367SOL     OW77150  10.454   2.007   8.886  0.6155  0.1217 -0.3230
23367SOL    HW177151  10.367   1.977   8.912 -0.3819  2.3722 -0.8406
23367SOL    HW277152  10.473   1.959   8.806  0.7763 -1.8638  0.8449
23368SOL     OW77153   3.806   8.164   6.125  0.6922  0.2685  0.4323
23368SOL    HW177154   3.855   8.160   6.043 -0.0946 -1.2837 -0.0064
23368SOL    HW277155   3.769   8.076   6.135 -1.2054  1.0949  1.2183
23369SOL     OW77156   4.434   4.588   4.265 -0.0216 -0.5430 -0.2751
23369SOL    HW177157   4.351   4.608   4.222  0.3834 -2.4921 -2.1343
23369SOL    HW277158   4.488   4.667   4.252 -0.4861 -0.4709 -1.9565
23370SOL     OW77159   1.945   1.273   7.042 -0.1097  0.2601 -0.0624
23370SOL    HW177160   1.939   1.205   6.974 -0.7972  0.1743  0.0679
23370SOL    HW277161   1.966   1.353   6.994  1.5411 -0.1882 -0.1215
23371SOL     OW77162   7.019   6.795   5.888  0.7062 -0.0198 -0.3415
23371SOL    HW177163   7.046   6.731   5.955  1.6678 -1.2571 -1.8454
23371SOL    HW277164   7.101   6.830   5.853  0.1947  1.4208 -0.1603
23372SOL     OW77165   4.411   4.004  11.968  0.0904 -0.5546 -0.4644
23372SOL    HW177166   4.424   4.057  12.046  0.8546 -0.1441 -0.8538
23372SOL    HW277167   4.355   4.056  11.911  0.1464 -0.5344 -0.5007
23373SOL     OW77168  10.060   3.011   5.517  0.1719 -0.1556  0.0089
23373SOL    HW177169  10.028   3.079   5.458  1.1249  0.1378 -0.1928
23373SOL    HW277170   9.998   3.011   5.590 -0.0966  0.6098 -0.2135
23374SOL     OW77171  11.362   2.721   5.314 -0.2312 -0.4435  0.0108
23374SOL    HW177172  11.411   2.713   5.232  0.1342  0.0411  0.1769
23374SOL    HW277173  11.356   2.815   5.330 -2.1510 -0.4510 -0.5453
23375SOL     OW77174   0.096   9.669  11.792 -0.2187 -0.1491 -0.5242
23375SOL    HW177175   0.111   9.743  11.851 -1.5094  0.7052 -1.2359
23375SOL    HW277176   0.181   9.624  11.788  0.2776  0.6175  0.8153
23376SOL     OW77177   9.200   8.291  10.709 -0.4484 -0.4679 -0.3280
23376SOL    HW177178   9.122   8.325  10.664 -0.0804  1.5548  0.4421
23376SOL    HW277179   9.168   8.218  10.762 -1.7578  0.0870 -0.3229
23377SOL     OW77180  11.046   4.330   7.508  0.0604  0.0212  0.4155
23377SOL    HW177181  10.962   4.298   7.539 -0.1688  1.0665  0.8890
23377SOL    HW277182  11.086   4.254   7.465 -1.8035 -0.0890 -1.2789
23378SOL     OW77183  11.189  12.296   9.731 -0.5038  0.2665 -0.2032
23378SOL    HW177184  11.232  12.245   9.800 -1.7097 -0.4881  0.0294
23378SOL    HW277185  11.260  12.335   9.681  0.3954  1.0363  1.6204
23379SOL     OW77186   8.771   6.634  11.476 -0.0471  0.1840  0.1586
23379SOL    HW177187   8.711   6.659  11.406  0.0044  1.7512  0.6247
23379SOL    HW277188   8.822   6.713  11.493 -0.7187  0.1893  2.6105
23380SOL     OW77189   9.246   4.258   6.731  0.2800 -0.0918  0.5579
23380SOL    HW177190   9.294   4.317   6.673 -0.1516  0.7855  1.0608
23380SOL    HW277191   9.241   4.175   6.683 -0.6043  0.7753 -0.9386
23381SOL     OW77192   6.386   8.457   5.591 -0.4309  0.0425 -0.0419
23381SOL    HW177193   6.403   8.543   5.552 -0.3561 -0.2737 -0.7306
23381SOL    HW277194   6.340   8.409   5.522 -1.6030 -0.0534  0.7856
23382SOL     OW77195   2.961   5.499   1.374  0.0362 -0.0525  0.4245
23382SOL    HW177196   3.054   5.507   1.397  0.9999 -4.4753 -1.0480
23382SOL    HW277197   2.935   5.413   1.406 -3.7369  1.0727  0.9121
23383SOL     OW77198   3.708   1.651   7.778  0.0631 -0.2376 -0.3582
23383SOL    HW177199   3.718   1.738   7.816 -1.2143 -0.0114 -0.4803
23383SOL    HW277200   3.719   1.591   7.852  0.8928  0.0308 -0.2665
23384SOL     OW77201   2.440   3.582   6.603  0.3812 -0.3847  0.0463
23384SOL    HW177202   2.360   3.583   6.551  0.0500  1.3318  0.5408
23384SOL    HW277203   2.419   3.529   6.680  0.0280 -0.6975 -0.2631
23385SOL     OW77204   9.771   6.035   2.558  0.4388 -0.2355 -0.1214
23385SOL    HW177205   9.723   6.020   2.477  0.9755 -0.8147 -0.3336
23385SOL    HW277206   9.859   6.002   2.541  1.0474  1.1738  0.1323
23386SOL     OW77207   5.396   0.253   0.994 -0.1852  0.0261 -0.3052
23386SOL    HW177208   5.341   0.244   0.916 -1.1882 -0.7057  0.4578
23386SOL    HW277209   5.482   0.220   0.966 -0.4677 -0.0165 -1.1597
23387SOL     OW77210   1.039   3.294   1.369  0.1274  0.1368  0.0465
23387SOL    HW177211   0.958   3.249   1.394  0.4013  0.8740  2.5722
23387SOL    HW277212   1.015   3.387   1.367  0.5056  0.2269 -1.1279
23388SOL     OW77213   7.917  12.030   9.525 -0.2599 -0.6263 -0.1309
23388SOL    HW177214   7.922  12.122   9.552  0.6711 -0.4445 -0.8711
23388SOL    HW277215   7.960  11.982   9.596  1.0387 -0.2788 -0.6645
23389SOL     OW77216   5.740  10.615   8.638 -0.5936 -0.2190  0.2143
23389SOL    HW177217   5.771  10.545   8.695 -1.2913 -0.1563  0.6754
23389SOL    HW277218   5.818  10.668   8.622  0.1477 -1.5682 -0.8565
23390SOL     OW77219  12.174  10.878   9.800 -0.9075 -0.2361  0.1380
23390SOL    HW177220  12.133  10.903   9.718 -0.1720  0.4145 -0.0354
23390SOL    HW277221  12.226  10.800   9.778 -1.1397 -0.3869  0.1137
23391SOL     OW77222  10.314   2.008   3.633 -0.3253  0.2611  0.2304
23391SOL    HW177223  10.308   1.969   3.720  0.2710  1.1307  0.6836
23391SOL    HW277224  10.347   2.097   3.649 -1.3069  0.8427 -0.7815
23392SOL     OW77225   5.821  10.593   9.450  0.2318  0.4328  0.1121
23392SOL    HW177226   5.868  10.568   9.530  0.1802 -2.0931 -0.5611
23392SOL    HW277227   5.728  10.584   9.473  0.2207 -0.4744 -0.2644
23393SOL     OW77228   3.213   3.079   4.433 -0.0387 -0.5591  0.1394
23393SOL    HW177229   3.212   3.175   4.431  0.4559 -0.5382 -2.8175
23393SOL    HW277230   3.211   3.058   4.526  0.8896  2.3293  0.9379
23394SOL     OW77231   2.935  11.976  10.661  0.3590 -0.5174 -0.1196
23394SOL    HW177232   3.025  11.991  10.630  1.0660 -1.6820  1.2538
23394SOL    HW277233   2.945  11.916  10.735 -1.6129 -1.0824 -0.2653
23395SOL     OW77234   9.908   0.774   5.340 -0.1096  0.1392 -0.1750
23395SOL    HW177235   9.932   0.842   5.403 -2.4893  2.1370 -1.2719
23395SOL    HW277236   9.957   0.796   5.261  0.8521 -0.8167  0.1309
23396SOL     OW77237  12.390   4.154   1.168 -0.0093  0.2095 -0.2651
23396SOL    HW177238  12.312   4.205   1.188 -0.5667 -1.1912  1.3126
23396SOL    HW277239  12.369   4.110   1.085  0.0396  1.6059 -1.0442
23397SOL     OW77240   1.543   0.730   9.157  0.2569 -0.0163 -0.2629
23397SOL    HW177241   1.541   0.662   9.089 -1.2247 -1.4738  1.1527
23397SOL    HW277242   1.620   0.709   9.209 -0.0029 -0.4038 -0.0337
23398SOL     OW77243   3.043   7.491   6.006 -0.1979  0.4224  0.4793
23398SOL    HW177244   2.971   7.495   6.068  0.7119 -0.8022  1.6766
23398SOL    HW277245   3.110   7.438   6.050 -0.1037 -1.8412 -2.1112
23399SOL     OW77246   0.079   3.955   2.998 -0.2093  0.2857  0.0185
23399SOL    HW177247   0.064   4.046   3.024  0.6993  0.8230 -1.2330
23399SOL    HW277248   0.101   3.910   3.080 -0.2866  1.2700  0.5960
23400SOL     OW77249   5.390   4.914  11.068 -0.4318 -0.4046  0.2685
23400SOL    HW177250   5.362   5.005  11.054  0.0183 -0.1049  1.2211
23400SOL    HW277251   5.358   4.892  11.155 -0.2175 -1.0337  0.1890
23401SOL     OW77252   7.072  11.355   9.785 -0.3007  0.1064  0.2034
23401SOL    HW177253   7.044  11.263   9.784 -0.6172  0.1930  0.6511
23401SOL    HW277254   7.112  11.369   9.700  0.9016 -0.8076  0.5967
23402SOL     OW77255  11.946   3.950  12.073  0.0527  0.2813 -0.4156
23402SOL    HW177256  11.964   3.986  11.986  0.1438 -1.2723 -1.0675
23402SOL    HW277257  12.009   3.994  12.131  0.0789  1.2284 -1.1448
23403SOL     OW77258   5.232   3.112   6.105 -0.2869 -0.0870  0.2176
23403SOL    HW177259   5.231   3.147   6.016  0.4227 -0.6371 -0.0090
23403SOL    HW277260   5.196   3.183   6.159 -2.2779 -0.3360 -0.7010
23404SOL     OW77261   6.899  11.828   0.780  0.0789 -0.6387 -0.4816
23404SOL    HW177262   6.944  11.799   0.700  0.3708  0.4688 -0.7338
23404SOL    HW277263   6.809  11.844   0.753  0.3779  0.5708 -0.8035
23405SOL     OW77264  12.190   9.921   4.370 -0.5778 -0.1681 -0.4141
23405SOL    HW177265  12.208   9.925   4.464 -1.3512 -1.1911 -0.2035
23405SOL    HW277266  12.178  10.012   4.344  1.2187  0.2624  0.1345
23406SOL     OW77267   2.734   5.803   8.779 -0.1170 -0.0207  0.0814
23406SOL    HW177268   2.816   5.799   8.828  0.2798  1.4143 -0.4108
23406SOL    HW277269   2.667   5.774   8.841  0.3685  1.7351  1.5170
23407SOL     OW77270   6.799   9.243   0.504 -0.0190 -0.8191 -0.8847
23407SOL    HW177271   6.826   9.219   0.593  0.8540 -0.9989 -1.1921
23407SOL    HW277272   6.802   9.339   0.504 -0.8835 -0.7802 -0.4655
23408SOL     OW77273   7.830  11.720  12.331  0.2221 -0.2104  0.6231
23408SOL    HW177274   7.897  11.712  12.398 -1.9124 -0.4134  2.8734
23408SOL    HW277275   7.849  11.649  12.269  0.9801 -1.4452  2.2157
23409SOL     OW77276   3.157   1.271   6.327 -0.1254  0.0025 -0.0104
23409SOL    HW177277   3.249   1.260   6.304  0.6380  0.2253  2.5970
23409SOL    HW277278   3.133   1.357   6.295  1.4274  1.0854  1.5660
23410SOL     OW77279  11.861   4.511  11.045 -0.1700  0.4649 -0.0621
23410SOL    HW177280  11.902   4.564  11.114 -1.0547  0.5339  0.4205
23410SOL    HW277281  11.849   4.425  11.087 -0.3253  0.3868 -0.2693
23411SOL     OW77282   3.923   9.316   3.622 -0.2637  0.0973  0.1764
23411SOL    HW177283   3.891   9.281   3.540  2.4987 -0.3730 -0.7922
23411SOL    HW277284   3.994   9.375   3.597  0.7592 -0.1850  2.2321
23412SOL     OW77285   3.191   5.155  12.446 -0.0623 -0.0781  0.4272
23412SOL    HW177286   3.123   5.122  12.505 -0.3241 -0.7351 -0.2303
23412SOL    HW277287   3.234   5.224  12.496 -2.0099  1.2273  0.4311
23413SOL     OW77288   7.053   3.001   2.499 -0.2788 -0.7857 -0.2479
23413SOL    HW177289   7.056   3.033   2.589  0.5952 -0.9715 -0.2069
23413SOL    HW277290   6.962   3.015   2.472 -0.3367  0.0924  0.3552
23414SOL     OW77291   3.353   2.597   8.607  0.0001  0.0543  0.6173
23414SOL    HW177292   3.371   2.519   8.554 -0.9059  0.2345  0.0292
23414SOL    HW277293   3.283   2.570   8.666 -0.1614  0.3670  0.5669
23415SOL     OW77294   8.194   1.341   9.240  0.0573 -0.4412 -0.6770
23415SOL    HW177295   8.227   1.340   9.330  0.1212 -0.0507 -0.6931
23415SOL    HW277296   8.126   1.408   9.240  0.3353 -0.1535 -1.0130
23416SOL     OW77297   0.791   3.395   9.158  0.1305 -0.3421 -0.2655
23416SOL    HW177298   0.757   3.351   9.080  0.8545 -0.5804 -0.4579
23416SOL    HW277299   0.781   3.330   9.228  1.5543 -0.9848 -0.6272
23417SOL     OW77300  11.310   3.185  10.403  0.0002  0.0689 -0.0393
23417SOL    HW177301  11.258   3.251  10.449 -0.1832 -0.5407  0.6339
23417SOL    HW277302  11.370   3.151  10.469 -0.6694 -1.2395 -0.0758
23418SOL     OW77303  11.364   3.154   7.152 -0.1356 -0.3950  0.2866
23418SOL    HW177304  11.420   3.094   7.102  1.2154  1.2157 -0.2073
23418SOL    HW277305  11.418   3.181   7.226 -0.3431  0.9570 -0.0328
23419SOL     OW77306   5.708   0.150   2.958 -0.2754  0.0522 -0.1636
23419SOL    HW177307   5.799   0.120   2.963  0.1441  1.3566  0.5772
23419SOL    HW277308   5.699   0.211   3.031 -1.7693 -0.0798 -0.2124
23420SOL     OW77309   7.294   6.973   9.543 -0.1104 -0.2878 -0.4971
23420SOL    HW177310   7.340   6.891   9.562 -0.1061 -0.6773 -2.0938
23420SOL    HW277311   7.272   6.967   9.450 -1.3788  0.8988 -0.2936
23421SOL     OW77312   7.800   6.451   5.268  0.0788  0.6774  0.0432
23421SOL    HW177313   7.831   6.397   5.196  2.6484  1.8574  0.1670
23421SOL    HW277314   7.842   6.413   5.346  0.7458  1.9494  0.3205
23422SOL     OW77315   8.481   2.437   6.925  0.1160 -0.0573 -0.5356
23422SOL    HW177316   8.475   2.341   6.929  1.5403 -0.2758 -2.1472
23422SOL    HW277317   8.469   2.466   7.015  1.1355 -1.8637  0.2346
23423SOL     OW77318  12.088   2.950  10.579 -0.3533  0.1594  0.2682
23423SOL    HW177319  12.068   2.896  10.502 -0.0839 -0.3464  0.5502
23423SOL    HW277320  12.077   2.891  10.653  1.3030  0.0988  0.4959
23424SOL     OW77321   0.995   8.114  10.950  0.3334  0.2104  0.2578
23424SOL    HW177322   0.951   8.081  11.028  3.8515 -1.4483  1.7848
23424SOL    HW277323   0.943   8.083  10.877 -2.1034  0.2593  1.8809
23425SOL     OW77324  10.282  10.839   5.219 -0.2494  0.1075 -0.2922
23425SOL    HW177325  10.200  10.880   5.193 -0.7135 -0.2584  0.5422
23425SOL    HW277326  10.304  10.880   5.303  0.6106  0.4486 -0.6654
23426SOL     OW77327   5.693   0.270   8.055 -0.1974  0.0630 -0.1861
23426SOL    HW177328   5.693   0.333   8.127  0.0598 -0.6689  0.4712
23426SOL    HW277329   5.786   0.251   8.040 -0.2653 -2.8621  2.0978
23427SOL     OW77330   9.184   1.153   3.376  0.7452 -0.5106  0.1541
23427SOL    HW177331   9.134   1.234   3.361 -1.3047 -1.7361  0.0226
23427SOL    HW277332   9.176   1.104   3.295  2.1846 -0.7770  0.1451
23428SOL     OW77333   7.613   8.273  11.898  0.8220  0.2186  0.0703
23428SOL    HW177334   7.543   8.322  11.854  1.0056 -0.3751 -0.9026
23428SOL    HW277335   7.615   8.309  11.987 -1.8220 -0.9005  0.6387
23429SOL     OW77336   3.646   0.422   8.713  0.1736 -0.0344  0.1227
23429SOL    HW177337   3.623   0.355   8.647 -0.2173  1.0294 -0.8559
23429SOL    HW277338   3.633   0.378   8.797  0.1986 -1.2838 -0.5007
23430SOL     OW77339   0.925   3.492  11.207  0.4476  0.3951  0.2134
23430SOL    HW177340   0.966   3.510  11.122 -0.1121 -2.8931 -0.8756
23430SOL    HW277341   0.835   3.523  11.196 -0.0396 -1.3142 -0.9873
23431SOL     OW77342  11.715   9.845   7.890 -0.0496  0.7551 -0.3317
23431SOL    HW177343  11.749   9.787   7.822  0.5582  0.9562 -0.2110
23431SOL    HW277344  11.677   9.786   7.955  0.1417  0.5128 -0.4389
23432SOL     OW77345   7.152   9.934   3.374 -0.5820  0.4275 -0.4741
23432SOL    HW177346   7.232   9.927   3.322 -0.8856 -0.5503 -0.8241
23432SOL    HW277347   7.178   9.904   3.461 -0.1443  1.7969 -0.1149
23433SOL     OW77348   6.192  11.243   1.450  0.5220  0.8469  0.2272
23433SOL    HW177349   6.134  11.318   1.439 -0.3879  0.3522  1.4771
23433SOL    HW277350   6.280  11.280   1.459  0.0105  1.7910  1.4025
23434SOL     OW77351   0.887  11.186   1.606  0.0221 -0.2360 -0.4799
23434SOL    HW177352   0.946  11.252   1.571 -0.5725  1.3241  1.2485
23434SOL    HW277353   0.944  11.126   1.654  0.3938  0.1323 -0.4572
23435SOL     OW77354   9.899   3.591   5.883 -0.5581 -0.2822 -0.1162
23435SOL    HW177355   9.852   3.668   5.913  1.4503  0.2219  1.9947
23435SOL    HW277356   9.833   3.522   5.880 -1.8505  0.8887  0.5305
23436SOL     OW77357  11.560   0.495   4.364 -0.0132  0.1072 -0.4788
23436SOL    HW177358  11.599   0.473   4.449 -0.8833 -0.7025 -0.2801
23436SOL    HW277359  11.610   0.443   4.301  0.6034  0.6737 -0.4658
23437SOL     OW77360   5.432   0.660  12.298 -0.3835  0.3633  0.5473
23437SOL    HW177361   5.476   0.659  12.213 -0.3092  0.0904  0.5891
23437SOL    HW277362   5.419   0.753  12.318 -1.1328  0.4195 -0.1432
23438SOL     OW77363   7.037   1.407   3.371  0.5029 -0.6254  0.3511
23438SOL    HW177364   7.008   1.328   3.415 -0.9325  0.2319  1.0334
23438SOL    HW277365   7.003   1.478   3.426  2.2382  0.4626  0.0696
23439SOL     OW77366   5.713   0.554   6.667  0.5091  0.1688 -0.1077
23439SOL    HW177367   5.663   0.477   6.695  0.4362  0.1487 -0.2921
23439SOL    HW277368   5.653   0.602   6.610  0.9368 -0.2277 -0.9220
23440SOL     OW77369   3.043   0.242   4.363 -0.2191 -0.3641  0.1241
23440SOL    HW177370   2.998   0.161   4.388 -2.1745  0.1784 -1.4022
23440SOL    HW277371   3.051   0.237   4.268  0.3656  0.8701  0.0960
23441SOL     OW77372  12.244  12.374   0.782 -0.3442 -0.3791  0.1356
23441SOL    HW177373  12.249  12.356   0.688 -1.0836  0.2213 -0.0258
23441SOL    HW277374  12.336  12.376   0.810 -0.1370 -1.4457 -0.3891
23442SOL     OW77375   4.554  10.228  11.354  0.1813 -0.0366 -0.0971
23442SOL    HW177376   4.614  10.224  11.279 -0.0842  0.8173 -0.3664
23442SOL    HW277377   4.576  10.310  11.398  0.7236 -0.7849  1.1094
23443SOL     OW77378   8.742   7.716  10.692 -0.0630 -0.0442 -0.8224
23443SOL    HW177379   8.700   7.764  10.764 -0.6086  0.0132 -1.1748
23443SOL    HW277380   8.674   7.657  10.660 -0.3727  1.1172 -2.3960
23444SOL     OW77381   1.365   5.244   3.934  0.2311  0.6263 -0.3410
23444SOL    HW177382   1.385   5.337   3.927  1.0082  0.5322  0.5533
23444SOL    HW277383   1.422   5.212   4.003 -1.6084 -0.0574  0.9266
23445SOL     OW77384   2.319   3.577  10.839  0.5698  0.3057 -0.1169
23445SOL    HW177385   2.303   3.565  10.933  0.6016  0.4510 -0.0934
23445SOL    HW277386   2.344   3.489  10.809  0.4950  0.2442 -0.0027
23446SOL     OW77387   6.469   4.410  11.683 -0.3639  0.5410  0.3962
23446SOL    HW177388   6.519   4.357  11.621  1.0479  1.5236  0.6511
23446SOL    HW277389   6.489   4.373  11.769 -0.7303  0.4408  0.4422
23447SOL     OW77390   8.628   7.928   3.929  0.3951 -0.1556  0.2991
23447SOL    HW177391   8.599   7.999   3.872  0.7327 -0.9417 -0.8838
23447SOL    HW277392   8.668   7.972   4.004  0.1907  0.8982 -0.1945
23448SOL     OW77393   6.467   5.164   5.264 -0.3358 -0.1504  0.3275
23448SOL    HW177394   6.474   5.069   5.257 -1.3932 -0.4341  2.4497
23448SOL    HW277395   6.528   5.198   5.198 -0.9336 -2.2734 -1.4152
23449SOL     OW77396  10.419   3.848   5.069  0.1428 -0.3121  0.0904
23449SOL    HW177397  10.329   3.827   5.093  0.1969  0.5527  1.1624
23449SOL    HW277398  10.412   3.927   5.015  0.2611 -0.0734  0.4152
23450SOL     OW77399   1.364   9.035  11.509  0.3145 -0.8517  0.0734
23450SOL    HW177400   1.418   9.081  11.444 -1.3485 -1.2943 -1.7381
23450SOL    HW277401   1.346   9.100  11.576  0.4467  0.2842 -0.9488
23451SOL     OW77402   4.645   2.065   9.682 -0.2205  0.2313 -0.1196
23451SOL    HW177403   4.713   2.071   9.750  0.4359  0.2597 -0.7634
23451SOL    HW277404   4.657   1.978   9.644  0.3049  0.7188 -1.1014
23452SOL     OW77405   4.598   7.566   4.623  0.4928 -0.0749  0.1688
23452SOL    HW177406   4.569   7.527   4.705  0.2931  1.8708  1.0631
23452SOL    HW277407   4.681   7.521   4.603  0.9085 -0.0965  1.8166
23453SOL     OW77408  12.357   2.233   0.898  0.5138 -0.5237 -0.3114
23453SOL    HW177409  12.283   2.293   0.896 -0.4933 -1.7315 -0.4205
23453SOL    HW277410  12.383   2.224   0.806  0.8429 -0.0484 -0.2663
23454SOL     OW77411   3.394   0.314  11.545 -0.3883 -0.2352 -0.0708
23454SOL    HW177412   3.341   0.313  11.624 -0.5595  0.3745 -0.1741
23454SOL    HW277413   3.372   0.233  11.500 -1.2600  0.0326 -0.1323
23455SOL     OW77414   2.125   4.062   6.753  0.1880  0.0139  0.2025
23455SOL    HW177415   2.135   3.996   6.822 -0.6160 -0.7789 -0.4085
23455SOL    HW277416   2.165   4.022   6.676 -0.8901 -0.0476 -0.3385
23456SOL     OW77417  11.105   7.178   9.420  0.0434  0.4477 -0.1885
23456SOL    HW177418  11.055   7.097   9.413  0.1849  0.4831 -2.1398
23456SOL    HW277419  11.194   7.154   9.396 -0.1779  1.3829 -2.0983
23457SOL     OW77420   7.206  11.441   2.519 -0.5388 -0.2915  0.0654
23457SOL    HW177421   7.143  11.379   2.557  0.2087 -1.0946  0.0043
23457SOL    HW277422   7.203  11.424   2.425 -1.0664  0.4687 -0.0685
23458SOL     OW77423   8.268   5.944   3.119  0.5601 -0.4927 -0.6972
23458SOL    HW177424   8.353   5.963   3.159 -0.2632  0.4682  0.6797
23458SOL    HW277425   8.288   5.921   3.028  2.1167  1.6533 -0.9466
23459SOL     OW77426   8.124  12.577   9.096 -0.7591 -0.2518  1.0070
23459SOL    HW177427   8.119  12.529   9.013 -0.2856  0.1749  0.7235
23459SOL    HW277428   8.107  12.668   9.072  0.7201  0.0855  1.1525
23460SOL     OW77429   8.528   6.116  10.641  0.4129 -0.2357 -0.6929
23460SOL    HW177430   8.550   6.196  10.688 -0.3383  1.1791 -2.6027
23460SOL    HW277431   8.433   6.117  10.633  0.4572 -0.8335 -1.5416
23461SOL     OW77432   3.404   5.015  11.330 -0.0208  0.2506 -0.0766
23461SOL    HW177433   3.409   4.930  11.285 -0.5218 -0.2854  0.8596
23461SOL    HW277434   3.485   5.019  11.381  0.3135  0.6419 -0.6203
23462SOL     OW77435   4.177   0.387  12.274 -0.2763 -0.2637  0.1528
23462SOL    HW177436   4.193   0.383  12.180  0.0990 -0.1594  0.2122
23462SOL    HW277437   4.091   0.428  12.281  0.0829  0.5505 -0.1173
23463SOL     OW77438   2.182  10.577   5.211  0.2593 -0.2476 -0.6938
23463SOL    HW177439   2.254  10.591   5.273 -0.6018  0.5159  0.1764
23463SOL    HW277440   2.188  10.651   5.151 -0.3882  0.3782 -0.0088
23464SOL     OW77441   0.884   5.638   4.343  0.3372 -0.5701  0.1172
23464SOL    HW177442   0.838   5.699   4.401  0.6080  1.3035 -1.5664
23464SOL    HW277443   0.816   5.578   4.313 -0.8422  1.3734 -1.3213
23465SOL     OW77444   2.165   2.168   9.517 -0.1593 -1.0082  0.6737
23465SOL    HW177445   2.258   2.165   9.540  0.1416 -0.5084 -0.4198
23465SOL    HW277446   2.154   2.099   9.452  0.2960  1.2712 -2.0104
23466SOL     OW77447   0.733  10.416  10.811 -0.1567  0.1103 -0.0497
23466SOL    HW177448   0.698  10.417  10.722 -0.0412 -0.7932 -0.1101
23466SOL    HW277449   0.785  10.497  10.817  0.2806 -0.0877 -0.9764
23467SOL     OW77450   0.866   8.970  11.447  0.5980 -0.5441  0.2096
23467SOL    HW177451   0.780   8.939  11.477  1.0459 -0.4799  1.6308
23467SOL    HW277452   0.904   8.894  11.403 -0.3706 -0.4233 -0.8860
23468SOL     OW77453   8.237   0.748   8.734 -0.0469  0.4158  0.4019
23468SOL    HW177454   8.197   0.800   8.804 -0.1948 -0.3332  0.8882
23468SOL    HW277455   8.261   0.666   8.776 -0.9003 -0.3822 -0.6046
23469SOL     OW77456   5.609   9.316   1.062 -0.0249 -0.0627 -0.1886
23469SOL    HW177457   5.589   9.285   0.973 -0.7496 -2.1705  0.6356
23469SOL    HW277458   5.693   9.274   1.082  0.1136  0.3761  0.1457
23470SOL     OW77459   0.468   1.825   4.609  0.5362  0.0549  0.2840
23470SOL    HW177460   0.470   1.885   4.534  0.7787  1.1851  1.1764
23470SOL    HW277461   0.374   1.815   4.628  0.4972  0.1576  0.1498
23471SOL     OW77462   2.843   0.517   1.214  0.1919  0.1891 -0.0803
23471SOL    HW177463   2.829   0.598   1.165 -1.5632 -1.4895 -2.5482
23471SOL    HW277464   2.755   0.487   1.236  0.5934 -2.5233 -1.8368
23472SOL     OW77465   3.152   9.021   6.224 -0.6973 -0.6340 -0.0292
23472SOL    HW177466   3.117   9.103   6.260 -2.0005 -1.6153  1.0473
23472SOL    HW277467   3.175   9.043   6.134 -1.0172  0.9226  0.2304
23473SOL     OW77468   2.304   8.053   0.960  0.4097 -0.1584 -0.3872
23473SOL    HW177469   2.310   8.146   0.941  0.0373 -0.2140 -0.7832
23473SOL    HW277470   2.273   8.049   1.051  1.5641  0.1019  0.0329
23474SOL     OW77471  12.459  10.236   9.728 -0.5583 -1.0789 -0.4849
23474SOL    HW177472  12.478  10.323   9.762 -3.3316 -0.9563  1.0479
23474SOL    HW277473  12.455  10.249   9.633 -0.6977  0.4131 -0.3067
23475SOL     OW77474   9.622   7.011   7.184  0.1258 -0.6055 -0.5482
23475SOL    HW177475   9.677   6.933   7.182  1.2210  0.1387 -0.7077
23475SOL    HW277476   9.665   7.072   7.123  0.5193  0.8904  1.1484
23476SOL     OW77477   0.689   2.596   3.970 -0.7882  0.2298 -0.5142
23476SOL    HW177478   0.683   2.501   3.960  1.4441 -0.2090  1.4835
23476SOL    HW277479   0.692   2.629   3.880 -2.6553 -1.4540 -1.2553
23477SOL     OW77480   5.289   2.579   9.435 -0.3625  0.5124  0.0229
23477SOL    HW177481   5.329   2.538   9.358 -4.7522 -2.4021 -1.0934
23477SOL    HW277482   5.321   2.527   9.509  0.0458  0.0464 -0.4678
23478SOL     OW77483  10.412   6.472   3.228  0.2430 -0.1770 -0.0917
23478SOL    HW177484  10.343   6.448   3.167 -0.2760 -0.3089  0.5398
23478SOL    HW277485  10.492   6.473   3.174 -0.0934 -0.9552 -0.6258
23479SOL     OW77486   8.376   1.250  10.842  0.0037 -0.2386 -0.1277
23479SOL    HW177487   8.310   1.306  10.800  0.4447  0.5114  0.1549
23479SOL    HW277488   8.327   1.176  10.876 -0.5853 -0.0708 -0.5983
23480SOL     OW77489   8.636   9.956   9.619 -0.3650 -0.2713  0.0186
23480SOL    HW177490   8.708   9.990   9.672 -0.6558  0.5760 -0.1152
23480SOL    HW277491   8.663   9.972   9.528 -1.2943  1.3187 -0.0142
23481SOL     OW77492   7.398   9.065   3.104  0.1930 -0.0290 -0.1461
23481SOL    HW177493   7.373   9.066   3.011  4.6137 -0.9165 -1.6115
23481SOL    HW277494   7.434   8.977   3.117  1.2362  0.6586  1.9117
23482SOL     OW77495  12.063   3.061   2.846  0.1725 -1.0415 -0.1925
23482SOL    HW177496  12.010   3.109   2.909 -1.6501  2.7315 -4.1092
23482SOL    HW277497  12.152   3.096   2.858  0.2365 -1.6272  1.2541
23483SOL     OW77498   7.323   6.098   1.738  0.3440 -0.5042 -0.1825
23483SOL    HW177499   7.274   6.034   1.790  1.0079 -0.2156  0.8389
23483SOL    HW277500   7.373   6.045   1.675 -1.4228 -0.7919 -1.4238
23484SOL     OW77501   9.613   7.307   6.296 -0.4535  0.5884  0.4146
23484SOL    HW177502   9.589   7.236   6.356 -0.8534 -0.1242 -0.5661
23484SOL    HW277503   9.642   7.263   6.217 -1.4933  1.5092 -0.5185
23485SOL     OW77504   5.582   3.057   2.687 -0.2141 -0.3466 -0.1566
23485SOL    HW177505   5.532   2.976   2.673 -1.7250  0.3790  0.7276
23485SOL    HW277506   5.657   3.029   2.738  0.1495 -1.4288 -1.2279
23486SOL     OW77507   1.955   9.152   7.413 -0.2920  0.5844  0.5613
23486SOL    HW177508   1.961   9.246   7.429  0.9868  0.3783  1.5352
23486SOL    HW277509   2.035   9.131   7.364 -0.5301 -0.0123  0.4136
23487SOL     OW77510   4.856   4.902  10.865  0.7948  0.2584  0.1041
23487SOL    HW177511   4.853   4.809  10.884  1.8362  0.5122  1.7790
23487SOL    HW277512   4.765   4.928  10.854  0.5111 -0.9819 -0.6206
23488SOL     OW77513  10.179   8.566   6.191  0.0466  0.3629  0.1707
23488SOL    HW177514  10.214   8.581   6.103 -0.4718  1.2296  0.0978
23488SOL    HW277515  10.119   8.493   6.181  1.8151 -1.1764  0.3045
23489SOL     OW77516   7.411   7.730   6.909 -0.2552  0.7253 -0.0756
23489SOL    HW177517   7.394   7.715   6.816 -2.2679 -1.2231  0.5202
23489SOL    HW277518   7.501   7.698   6.923 -0.8941 -1.5897 -0.8732
23490SOL     OW77519   2.307   9.172  11.647 -0.0911  0.3351 -0.1985
23490SOL    HW177520   2.217   9.205  11.645 -1.1625 -2.3327 -0.3522
23490SOL    HW277521   2.315   9.131  11.733  0.0135 -1.7248 -1.1170
23491SOL     OW77522   1.338  12.134   0.289  0.4888  0.9932 -0.4344
23491SOL    HW177523   1.400  12.075   0.244 -0.8061 -0.8552  0.1143
23491SOL    HW277524   1.348  12.112   0.381 -2.5743 -1.0896 -0.4664
23492SOL     OW77525  12.531   9.867   3.080  0.0123 -0.0008  0.2296
23492SOL    HW177526  12.567   9.884   3.167 -0.2395  1.6517  0.0494
23492SOL    HW277527  12.528   9.953   3.038 -2.2914 -0.3453 -0.4633
23493SOL     OW77528  12.310  10.484   0.274 -0.1135  0.1504  0.3345
23493SOL    HW177529  12.244  10.553   0.282 -0.0832  0.1285  0.7648
23493SOL    HW277530  12.347  10.475   0.362  0.8443  0.5362 -0.0082
23494SOL     OW77531   5.840   8.244   4.415 -0.2019 -0.0946  0.3973
23494SOL    HW177532   5.832   8.289   4.500  1.6520  1.5627 -0.2147
23494SOL    HW277533   5.762   8.270   4.366 -0.8318 -0.3293  1.2538
23495SOL     OW77534  11.737   3.370   0.162 -0.2055 -0.1727  0.0934
23495SOL    HW177535  11.781   3.448   0.128 -0.4795 -0.4597 -0.9349
23495SOL    HW277536  11.806   3.322   0.208 -0.0547  0.7182  0.8320
23496SOL     OW77537  11.652   6.836  10.635 -0.3622  0.1045 -0.5971
23496SOL    HW177538  11.563   6.860  10.613 -0.0991  0.8338 -0.8786
23496SOL    HW277539  11.707   6.882  10.571  0.3045  0.9002  0.5016
23497SOL     OW77540   4.394   4.345  10.126 -0.9702 -0.5982  0.1069
23497SOL    HW177541   4.332   4.368  10.057 -0.1663 -0.2955 -0.5259
23497SOL    HW277542   4.409   4.251  10.114 -1.5818 -0.7592  0.5075
23498SOL     OW77543   6.103   8.295  10.575 -0.0415  0.2036  0.4436
23498SOL    HW177544   6.080   8.351  10.501  0.5650  0.1550  0.2163
23498SOL    HW277545   6.031   8.308  10.638 -0.3442  0.5681  0.0293
23499SOL     OW77546   1.956  11.128   6.230 -0.3723 -0.2827 -0.4324
23499SOL    HW177547   1.966  11.186   6.155 -0.8630  1.0465  0.4830
23499SOL    HW277548   2.044  11.095   6.247  0.3459  1.8220  0.2545
23500SOL     OW77549   2.565   8.180   8.456 -0.4179 -0.0861  0.3710
23500SOL    HW177550   2.560   8.266   8.499  1.9415  0.5166 -0.3822
23500SOL    HW277551   2.603   8.199   8.370 -1.9707 -1.6625 -0.7216
23501SOL     OW77552  10.172   5.650   3.656  0.2038 -0.0261  0.2968
23501SOL    HW177553  10.079   5.670   3.650  0.0016 -0.5545  1.3648
23501SOL    HW277554  10.195   5.667   3.748  1.0481 -0.3621  0.1626
23502SOL     OW77555   9.770   0.386   6.358  0.1074  0.4682  0.3635
23502SOL    HW177556   9.743   0.478   6.363  2.2420  1.1317  0.7188
23502SOL    HW277557   9.814   0.379   6.274  0.2788 -0.1477  0.5038
23503SOL     OW77558   6.893  12.360   8.564 -0.1636 -0.4700 -0.1643
23503SOL    HW177559   6.872  12.441   8.517 -1.0664 -0.1767  0.6933
23503SOL    HW277560   6.955  12.387   8.632  0.4050 -0.7141 -0.5821
23504SOL     OW77561   7.205  12.263   7.445  1.0764  0.0841  0.0827
23504SOL    HW177562   7.194  12.168   7.441  1.0526 -0.0006  1.7364
23504SOL    HW277563   7.117  12.298   7.427  1.3881 -0.1159 -2.1184
23505SOL     OW77564  11.596   3.545   8.989 -0.3653 -0.3882 -0.6669
23505SOL    HW177565  11.530   3.550   9.057  0.2343 -1.6049  0.0330
23505SOL    HW277566  11.575   3.617   8.929 -0.4290  1.1975  1.1946
23506SOL     OW77567  11.679   9.138   3.912  0.2102 -0.3783  0.0478
23506SOL    HW177568  11.588   9.167   3.919  0.5374  0.9337 -0.8630
23506SOL    HW277569  11.698   9.099   3.998 -1.4205 -1.3659 -0.0068
23507SOL     OW77570   9.399  11.304   8.904  0.1962 -0.4911  0.3177
23507SOL    HW177571   9.328  11.324   8.844  0.7914 -3.6121 -1.7157
23507SOL    HW277572   9.385  11.361   8.979 -3.3662  0.3030 -0.7641
23508SOL     OW77573   3.120   3.351   5.604  0.2328  0.4804  0.1728
23508SOL    HW177574   3.125   3.258   5.627 -0.1377  0.6538  0.9628
23508SOL    HW277575   3.095   3.351   5.511 -1.3339 -0.1996  0.5617
23509SOL     OW77576  11.431  11.064   7.811  0.4256  0.1108  0.1783
23509SOL    HW177577  11.430  11.098   7.900  0.1507 -0.4491  0.3957
23509SOL    HW277578  11.496  10.993   7.813  2.0796  1.5299 -0.6265
23510SOL     OW77579   8.049   5.465   3.319 -0.2603  0.4593  0.0388
23510SOL    HW177580   7.993   5.506   3.385 -0.1361  0.3357  0.2228
23510SOL    HW277581   8.114   5.531   3.297 -0.5743  0.6619 -0.2967
23511SOL     OW77582  12.293  12.393   6.632 -0.1943 -0.1535 -0.1726
23511SOL    HW177583  12.352  12.317   6.629  1.2760  0.8402  1.4667
23511SOL    HW277584  12.240  12.378   6.710  0.6035  0.8127  0.5746
23512SOL     OW77585   1.545   4.241   3.125  0.3056 -0.1031  0.0162
23512SOL    HW177586   1.608   4.170   3.125  0.4944  0.0616 -0.2399
23512SOL    HW277587   1.460   4.199   3.140  0.7735 -0.0283  4.0634
23513SOL     OW77588   6.969   9.859   3.644 -0.2310  0.3130  0.1996
23513SOL    HW177589   7.047   9.885   3.693 -0.2912  1.6022 -0.3643
23513SOL    HW277590   6.999   9.787   3.588  0.3710  0.2961  0.5358
23514SOL     OW77591   8.731   1.783   5.286  0.0610 -0.0445 -0.3434
23514SOL    HW177592   8.677   1.731   5.226  0.6019  0.6994 -1.5122
23514SOL    HW277593   8.744   1.727   5.362 -2.3807 -0.2435  0.0034
23515SOL     OW77594   9.066   5.536   1.245  0.1055 -0.3816  0.1139
23515SOL    HW177595   9.009   5.544   1.169 -1.0672  1.5936  1.1323
23515SOL    HW277596   9.152   5.515   1.208 -0.5465  0.0108 -1.7151
23516SOL     OW77597  10.040   9.072   3.998 -0.3060  0.8386  0.5070
23516SOL    HW177598  10.090   9.039   3.923  0.6813  1.5510  0.8282
23516SOL    HW277599  10.084   9.034   4.074 -0.4510  1.2157  0.7816
23517SOL     OW77600   5.739   1.651   6.013 -0.4722  0.1920  0.4907
23517SOL    HW177601   5.773   1.565   6.037 -2.3657 -0.1574  2.2500
23517SOL    HW277602   5.815   1.709   6.018  0.4506 -1.0215  1.3328
23518SOL     OW77603  10.594  10.793   1.331  0.0468  0.4309  0.2484
23518SOL    HW177604  10.585  10.883   1.360  0.2625  0.4307  0.3152
23518SOL    HW277605  10.628  10.746   1.408 -0.0361  0.2999  0.2053
23519SOL     OW77606   9.542   9.085   7.372  1.4439  0.0611 -0.0965
23519SOL    HW177607   9.486   9.160   7.394 -0.6420 -0.7993 -2.0180
23519SOL    HW277608   9.616   9.123   7.326  1.3613  1.0949  0.6079
23520SOL     OW77609   4.012   1.393   0.313  0.1116 -0.4367  0.3234
23520SOL    HW177610   3.975   1.370   0.227  1.3842  0.1263 -0.4015
23520SOL    HW277611   3.942   1.441   0.357 -0.4445 -0.4231 -0.5510
23521SOL     OW77612   2.745   2.770  10.876 -0.1901 -0.0381 -0.0566
23521SOL    HW177613   2.697   2.706  10.929 -1.1095  0.2790 -0.4855
23521SOL    HW277614   2.706   2.762  10.788  1.2239 -0.4812 -0.6707
23522SOL     OW77615   7.618   5.852   4.435 -0.0521 -0.8660 -0.4424
23522SOL    HW177616   7.648   5.780   4.492 -3.2220 -0.6683  1.7542
23522SOL    HW277617   7.543   5.816   4.388 -1.1115  0.6957 -0.0163
23523SOL     OW77618   2.409   4.841   0.582  0.5332 -0.3630 -0.0876
23523SOL    HW177619   2.433   4.928   0.613 -1.3112 -0.0056  0.4475
23523SOL    HW277620   2.313   4.838   0.590  0.4941 -2.1774 -0.7805
23524SOL     OW77621  12.139   8.354   8.555  0.2594 -0.0167 -0.6568
23524SOL    HW177622  12.217   8.340   8.502 -0.0875  1.9888 -1.8293
23524SOL    HW277623  12.172   8.391   8.637  0.6898 -1.6362 -0.0706
23525SOL     OW77624   7.789   7.306   3.782 -0.6958  0.3957  0.0253
23525SOL    HW177625   7.754   7.235   3.728 -0.1626  1.0522 -1.2068
23525SOL    HW277626   7.775   7.385   3.730  2.4060  0.7341 -0.4449
23526SOL     OW77627  11.393   4.478  10.030 -0.3051 -0.0224 -0.4049
23526SOL    HW177628  11.400   4.386  10.055 -0.7746  0.2446  0.7688
23526SOL    HW277629  11.483   4.508  10.022 -0.1375 -0.1851  0.7525
23527SOL     OW77630   9.373   1.156   6.886 -0.1963  0.6902  0.3740
23527SOL    HW177631   9.408   1.067   6.894 -0.9525 -0.1959 -3.7369
23527SOL    HW277632   9.305   1.161   6.952  1.1614 -1.0530  2.0187
23528SOL     OW77633   4.738   7.185   5.320 -0.4354 -0.2482 -0.7671
23528SOL    HW177634   4.676   7.203   5.391 -0.6422 -2.3767 -0.3455
23528SOL    HW277635   4.819   7.230   5.347 -1.1892  0.9489 -0.3851
23529SOL     OW77636   1.116  11.285   7.339 -0.8304  0.4372 -0.2265
23529SOL    HW177637   1.153  11.211   7.388 -1.2911  0.5637  0.3163
23529SOL    HW277638   1.183  11.305   7.274  0.4151  1.1367  1.2149
23530SOL     OW77639   9.267   2.426  10.442  0.0641 -0.0681 -0.2305
23530SOL    HW177640   9.226   2.442  10.357 -1.2521 -0.1527  0.3543
23530SOL    HW277641   9.361   2.433  10.426 -0.1885  0.5093 -1.5568
23531SOL     OW77642   5.511   0.545   4.388  0.3676 -0.1009  0.6740
23531SOL    HW177643   5.544   0.579   4.304 -0.0353  0.0735  0.5825
23531SOL    HW277644   5.476   0.622   4.432 -0.2201 -0.3391  0.6257
23532SOL     OW77645   2.475   9.162   3.409 -0.1525 -0.1261  0.0868
23532SOL    HW177646   2.408   9.229   3.425 -0.6681 -0.7143  0.4596
23532SOL    HW277647   2.543   9.207   3.359  0.4499  1.2162  2.0014
23533SOL     OW77648   8.964  10.813   5.986 -0.1672  0.4891  0.0376
23533SOL    HW177649   8.889  10.833   6.042  0.0819  1.8322 -0.0828
23533SOL    HW277650   9.032  10.783   6.047 -0.2150  1.0088  0.3484
23534SOL     OW77651   4.152   2.468   3.991  0.7598  0.3002 -0.2859
23534SOL    HW177652   4.061   2.476   4.019  1.0278 -0.6195  0.9302
23534SOL    HW277653   4.163   2.537   3.926 -1.0088 -0.0508 -1.0053
23535SOL     OW77654   3.805  10.007   1.549 -0.2162 -0.3496  0.2602
23535SOL    HW177655   3.725  10.054   1.573  0.9677  2.1663 -0.3880
23535SOL    HW277656   3.777   9.945   1.482 -1.6870  0.1548  0.3683
23536SOL     OW77657   6.948   4.058   2.066  0.3599 -0.2623  0.2187
23536SOL    HW177658   7.008   3.998   2.111 -0.4941 -0.9190  0.5172
23536SOL    HW277659   6.869   4.005   2.051  0.4748  0.0367 -1.7338
23537SOL     OW77660   6.166   9.556   5.878  0.2444  0.7455 -0.3944
23537SOL    HW177661   6.180   9.481   5.820  0.5644 -0.4965  1.2082
23537SOL    HW277662   6.253   9.575   5.914 -0.2149  0.3281  1.0051
23538SOL     OW77663   2.128   0.574   7.301 -0.2178 -0.1387 -0.3880
23538SOL    HW177664   2.183   0.516   7.248 -1.9162 -1.6569 -0.5622
23538SOL    HW277665   2.060   0.603   7.240 -0.8124  0.0334  0.3530
23539SOL     OW77666   6.560  10.691   6.313  0.0262  0.2637 -0.5165
23539SOL    HW177667   6.626  10.744   6.268  0.9966 -1.2130 -0.9569
23539SOL    HW277668   6.502  10.753   6.355  2.7995  1.6880  1.5223
23540SOL     OW77669  10.723  10.824  11.466  0.1917  0.1882  0.0924
23540SOL    HW177670  10.751  10.912  11.491  0.0089  0.2481  0.0877
23540SOL    HW277671  10.677  10.791  11.543  0.7251 -0.1076  0.2852
23541SOL     OW77672   1.359   5.208   7.281 -0.5460  0.0345  0.4300
23541SOL    HW177673   1.284   5.174   7.329  0.1103 -3.5966 -0.8430
23541SOL    HW277674   1.321   5.262   7.211 -1.9607 -1.2862  0.1413
23542SOL     OW77675   6.679   1.256   8.157  0.0421 -0.0864  0.1480
23542SOL    HW177676   6.740   1.185   8.180  0.0355 -1.1761 -2.7862
23542SOL    HW277677   6.718   1.297   8.080 -0.7165  2.2143  0.8936
23543SOL     OW77678   5.479   4.075   2.924 -0.2100 -0.4309 -0.2669
23543SOL    HW177679   5.442   4.046   3.007  2.2310  0.7615  1.3466
23543SOL    HW277680   5.449   4.165   2.914  0.5041 -0.1642 -0.0364
23544SOL     OW77681   8.017   5.971   9.144 -0.4489 -0.0481  0.5954
23544SOL    HW177682   7.968   6.052   9.149  1.0992  0.8710  1.8790
23544SOL    HW277683   7.969   5.910   9.201 -1.9727 -0.3004 -0.8735
23545SOL     OW77684   2.291   3.227   4.410 -0.0759 -0.1451  0.4947
23545SOL    HW177685   2.244   3.182   4.480  0.5374  2.7642  2.9909
23545SOL    HW277686   2.365   3.169   4.391 -1.3670 -1.9729  0.6956
23546SOL     OW77687   8.550   4.605   1.920 -0.4655 -0.0761 -0.0232
23546SOL    HW177688   8.614   4.663   1.880  1.1275 -1.0833  0.9555
23546SOL    HW277689   8.595   4.569   1.996 -1.6542 -2.0329 -0.1940
23547SOL     OW77690  12.153   5.390  10.108 -0.2645  0.2439  0.4056
23547SOL    HW177691  12.118   5.311  10.148  1.3480 -0.0140  1.4137
23547SOL    HW277692  12.167   5.367  10.016  1.8965 -1.3362  1.0347
23548SOL     OW77693  10.565   7.356   1.133  0.4602 -0.3902  0.3415
23548SOL    HW177694  10.542   7.423   1.197  1.7873 -0.7654  1.2751
23548SOL    HW277695  10.608   7.288   1.185 -0.8348 -1.9764 -0.5776
23549SOL     OW77696   9.281   2.361   3.785 -0.1511 -0.5532 -0.2578
23549SOL    HW177697   9.290   2.280   3.735  0.1724 -1.8454  1.7773
23549SOL    HW277698   9.370   2.387   3.807 -0.3129 -0.3944  0.2376
23550SOL     OW77699   3.291   4.611   2.137 -0.2141  0.0185  0.1579
23550SOL    HW177700   3.292   4.701   2.170  0.1234 -0.1210  0.5457
23550SOL    HW277701   3.322   4.618   2.047 -0.7261  0.3584  0.0071
23551SOL     OW77702  11.316  11.887   4.402 -0.7377  0.0444  0.5099
23551SOL    HW177703  11.311  11.953   4.333 -0.0893 -1.5505 -1.1664
23551SOL    HW277704  11.376  11.923   4.467  1.0301  0.3878 -1.2278
23552SOL     OW77705   6.519   6.801   8.425  0.2974  0.1853  0.1074
23552SOL    HW177706   6.530   6.892   8.400  1.2345 -0.2221 -1.0330
23552SOL    HW277707   6.452   6.803   8.494 -1.2315  1.5030 -1.3412
23553SOL     OW77708   0.970   8.357   2.255 -0.5499 -0.1119  0.2381
23553SOL    HW177709   0.936   8.346   2.344  0.2571 -0.2595  0.5411
23553SOL    HW277710   0.995   8.268   2.228 -2.1237 -0.2954 -0.7039
23554SOL     OW77711   7.340   3.729   3.242 -0.2070  0.6620 -0.7512
23554SOL    HW177712   7.372   3.813   3.209  1.5800  0.6161  0.7180
23554SOL    HW277713   7.330   3.675   3.163  0.8474  1.5195 -1.5069
23555SOL     OW77714   0.222   9.357   1.141 -0.0877  0.2526  0.6990
23555SOL    HW177715   0.281   9.284   1.123 -1.7378 -1.2280  0.9972
23555SOL    HW277716   0.179   9.374   1.057 -1.9148 -1.2362  1.2592
23556SOL     OW77717  11.073  11.892  10.478 -0.9411 -0.3543  0.4817
23556SOL    HW177718  11.075  11.980  10.515 -0.0978  0.3384 -1.1123
23556SOL    HW277719  11.003  11.894  10.413 -0.9852 -0.8943  0.5050
23557SOL     OW77720   6.859   4.641   5.273 -0.2647 -0.3478 -0.3873
23557SOL    HW177721   6.928   4.663   5.211 -0.9899 -0.0740 -1.1093
23557SOL    HW277722   6.898   4.573   5.328  0.6148 -0.1219 -0.7111
23558SOL     OW77723  11.534   8.515   4.306 -0.4680 -0.0229  0.1943
23558SOL    HW177724  11.624   8.547   4.299 -0.7590  0.6689 -0.4618
23558SOL    HW277725  11.505   8.505   4.216 -0.2675 -2.5662  0.3396
23559SOL     OW77726   2.961   6.270   9.078  0.0630  0.1859  0.2683
23559SOL    HW177727   2.989   6.181   9.098 -1.0160 -0.5416 -1.3005
23559SOL    HW277728   3.033   6.325   9.110  2.2026 -1.4312 -1.4350
23560SOL     OW77729   1.847  10.151   9.807 -0.2502  0.1995  0.1615
23560SOL    HW177730   1.836  10.059   9.781  0.4610  0.2035 -0.1803
23560SOL    HW277731   1.914  10.184   9.747  1.9548  0.0439  2.3675
23561SOL     OW77732   0.274  11.261   3.849  0.3168 -0.6628  0.4317
23561SOL    HW177733   0.208  11.308   3.798 -0.4652 -2.7641 -0.6004
23561SOL    HW277734   0.284  11.177   3.804  3.1095 -0.7647  1.0301
23562SOL     OW77735   7.253   7.335  12.289 -0.1199 -0.2803  0.3522
23562SOL    HW177736   7.188   7.265  12.300 -0.2486 -0.0783  0.9341
23562SOL    HW277737   7.319   7.298  12.230 -0.0413 -0.9945  0.8769
23563SOL     OW77738   3.109   2.163   9.232 -0.2656  0.5097  0.1106
23563SOL    HW177739   3.014   2.151   9.228 -0.1403 -0.3057 -1.1307
23563SOL    HW277740   3.132   2.195   9.144  0.8287 -1.1794 -0.2545
23564SOL     OW77741   3.905   5.352  12.311 -0.5020 -0.0292  0.3015
23564SOL    HW177742   3.847   5.322  12.241 -0.7240  0.2464  0.3673
23564SOL    HW277743   3.987   5.373  12.266  0.0467 -1.7977  0.3979
23565SOL     OW77744   6.957   1.812  10.673 -0.3567  0.1956  0.4676
23565SOL    HW177745   7.030   1.752  10.689  0.8475  1.0003 -1.5708
23565SOL    HW277746   6.984   1.894  10.715 -0.0984  0.4548 -0.1792
23566SOL     OW77747   6.776   9.812   5.270  0.1522 -0.2366  0.3265
23566SOL    HW177748   6.824   9.844   5.346  0.7291 -2.4307  0.9598
23566SOL    HW277749   6.821   9.730   5.246 -1.1588 -0.5516 -1.2285
23567SOL     OW77750   3.431   6.090   3.279 -0.2006 -0.4185  0.3809
23567SOL    HW177751   3.492   6.080   3.352  0.8592  0.9252 -0.2876
23567SOL    HW277752   3.476   6.049   3.204 -0.3544  0.0874  0.0068
23568SOL     OW77753   3.861   2.358   6.196 -0.6569 -0.7759  0.2979
23568SOL    HW177754   3.885   2.360   6.289  0.4570 -0.7853  0.0142
23568SOL    HW277755   3.944   2.366   6.149 -1.2246 -0.6174 -0.7030
23569SOL     OW77756   6.168  12.509   7.420 -0.7690 -0.0446 -0.2282
23569SOL    HW177757   6.117  12.495   7.340  0.6027 -2.1137 -0.8249
23569SOL    HW277758   6.219  12.589   7.402 -0.6228 -0.3776 -1.3525
23570SOL     OW77759   0.344   2.594  11.858  0.2001  0.1301  0.3805
23570SOL    HW177760   0.349   2.672  11.803  0.2901  0.5593  0.9974
23570SOL    HW277761   0.433   2.558  11.857  0.6139  1.0801  1.6072
23571SOL     OW77762  11.267   6.567   6.041  0.3116  0.1302  0.4539
23571SOL    HW177763  11.269   6.482   6.084 -2.2510 -0.6385 -0.7419
23571SOL    HW277764  11.276   6.630   6.112 -0.8456 -1.1255  1.7862
23572SOL     OW77765   1.058   9.862   4.271  0.1963 -0.1566 -0.1518
23572SOL    HW177766   1.105   9.892   4.349  2.0788  2.9327 -2.2515
23572SOL    HW277767   1.071   9.767   4.271  0.1631 -0.2906  3.1815
23573SOL     OW77768  10.766   4.547   1.207 -0.5151  0.4921  0.4978
23573SOL    HW177769  10.756   4.525   1.114 -0.0297 -0.3699  0.6474
23573SOL    HW277770  10.776   4.463   1.251 -0.3638  0.9183  1.2899
23574SOL     OW77771   3.852   6.857   1.304  0.3799  0.0675 -0.0749
23574SOL    HW177772   3.810   6.901   1.378  0.4695 -0.5245  0.3451
23574SOL    HW277773   3.914   6.920   1.270 -0.1829  0.6122 -0.1026
23575SOL     OW77774   4.955  12.471   8.334 -0.4595  0.1730  0.2254
23575SOL    HW177775   4.899  12.428   8.397 -0.0730 -2.5468 -1.1127
23575SOL    HW277776   5.006  12.399   8.294  1.6911  2.1225 -0.8109
23576SOL     OW77777   0.165   4.496   9.064  0.2149 -0.2584 -0.3515
23576SOL    HW177778   0.081   4.475   9.105  0.1169 -2.0835 -1.3516
23576SOL    HW277779   0.181   4.587   9.086 -1.2792 -0.3156  1.1506
23577SOL     OW77780   1.553   7.692   9.936  0.0263  0.2134  0.3335
23577SOL    HW177781   1.522   7.689  10.027  1.3856  0.4592  0.8297
23577SOL    HW277782   1.561   7.785   9.917  0.0376  0.1565  0.0640
23578SOL     OW77783   5.631   6.938   3.736  0.4529  0.5207  0.3102
23578SOL    HW177784   5.675   7.022   3.749 -1.5479  1.7970 -0.5685
23578SOL    HW277785   5.543   6.962   3.707  0.2203 -1.9246 -1.2686
23579SOL     OW77786   7.470   8.836   6.889 -0.3435 -0.6332 -0.6438
23579SOL    HW177787   7.457   8.930   6.873  1.3801 -0.3906 -0.7707
23579SOL    HW277788   7.507   8.803   6.807 -1.1686 -1.4851 -0.6799
23580SOL     OW77789  10.859   9.800   1.621 -0.3678  0.3891 -0.1614
23580SOL    HW177790  10.777   9.778   1.576  0.2416  0.6197 -1.4195
23580SOL    HW277791  10.830   9.844   1.702 -1.4773  0.8076 -0.7566
23581SOL     OW77792  10.110  10.588  11.870  0.2302 -0.2903 -0.6005
23581SOL    HW177793  10.157  10.672  11.870 -1.4122  0.7068 -2.2492
23581SOL    HW277794  10.067  10.585  11.785 -0.9984 -2.1062  0.0426
23582SOL     OW77795  10.829   0.867   1.013  0.1089  0.1050 -0.5061
23582SOL    HW177796  10.814   0.873   1.107  1.0611 -1.8365 -0.1874
23582SOL    HW277797  10.811   0.955   0.980  0.8636  1.1367  1.6577
23583SOL     OW77798   4.260   3.822   1.194 -0.0797 -0.0965  0.0889
23583SOL    HW177799   4.322   3.895   1.190 -0.7156  0.4056 -1.5839
23583SOL    HW277800   4.174   3.864   1.196 -0.4431 -0.7892 -0.5698
23584SOL     OW77801   5.363   8.256   0.281  0.3742 -0.3368 -0.2732
23584SOL    HW177802   5.411   8.213   0.210 -0.4060  0.6609 -1.4375
23584SOL    HW277803   5.337   8.340   0.245 -0.7759 -0.1520  0.9152
23585SOL     OW77804   4.550   1.361   1.725  0.0390  0.0718 -0.4744
23585SOL    HW177805   4.497   1.410   1.662 -1.3614 -0.4892  0.2070
23585SOL    HW277806   4.611   1.310   1.672  1.7849  2.7143 -1.2093
23586SOL     OW77807  12.228   2.562  11.118 -0.3153  0.1163 -0.1354
23586SOL    HW177808  12.274   2.615  11.052 -0.2761 -0.1713 -0.3387
23586SOL    HW277809  12.144   2.542  11.077 -0.0435 -0.5994 -0.3581
23587SOL     OW77810   3.064  11.184   2.673 -0.2284  0.0788 -0.1800
23587SOL    HW177811   3.079  11.098   2.712 -1.7446 -0.2004 -0.1645
23587SOL    HW277812   3.126  11.242   2.719  0.0503 -0.7839  0.5719
23588SOL     OW77813   7.684   9.903   1.083 -0.0398 -0.8036  0.3459
23588SOL    HW177814   7.750   9.897   1.014 -1.0189  1.0172 -0.8237
23588SOL    HW277815   7.649   9.991   1.076 -3.5257 -2.0287  0.0061
23589SOL     OW77816  10.422  12.006   2.147  0.5668  0.2890 -0.5206
23589SOL    HW177817  10.397  12.098   2.155  0.6629  0.3015 -0.3644
23589SOL    HW277818  10.517  12.006   2.148  0.5746  0.0670  0.9104
23590SOL     OW77819   2.982   1.674  10.693  0.8659 -1.1042 -0.4157
23590SOL    HW177820   2.917   1.695  10.760  1.3652  0.0751 -0.2799
23590SOL    HW277821   2.993   1.579  10.700 -0.8212 -1.3391 -0.4436
23591SOL     OW77822  10.171   3.329   1.572  0.3838 -0.4124 -0.7027
23591SOL    HW177823  10.142   3.287   1.490  1.4074  0.2104 -1.4044
23591SOL    HW277824  10.185   3.421   1.548 -1.5602  0.3360  0.7475
23592SOL     OW77825   7.072   4.578   7.196  0.6655  0.2450  0.1252
23592SOL    HW177826   7.032   4.553   7.279 -1.0959 -1.3367 -1.0856
23592SOL    HW277827   7.016   4.536   7.130  0.4207  3.5649 -1.9798
23593SOL     OW77828   5.455  11.489   1.847 -0.3479 -0.1051  0.2908
23593SOL    HW177829   5.500  11.546   1.784 -0.2302 -0.7069 -0.1728
23593SOL    HW277830   5.497  11.404   1.837 -2.0210 -0.8688 -0.6536
23594SOL     OW77831   9.506   3.329   6.241 -0.5988  0.3446  0.3607
23594SOL    HW177832   9.451   3.260   6.205 -1.3394  0.9798  0.2562
23594SOL    HW277833   9.445   3.394   6.274  0.0617  1.8054 -1.1553
23595SOL     OW77834   4.164   7.882   0.431  0.3768 -0.7430  0.3350
23595SOL    HW177835   4.201   7.832   0.503 -0.2455  1.1165  2.0412
23595SOL    HW277836   4.195   7.972   0.446 -1.9645  0.2171 -0.1193
23596SOL     OW77837   5.425   2.218   4.237  0.0915  0.0779  0.1770
23596SOL    HW177838   5.430   2.182   4.326 -3.4734  0.7148  0.7676
23596SOL    HW277839   5.407   2.142   4.182 -0.6967  0.0456  0.4618
23597SOL     OW77840   1.588   9.595   5.937  0.4590 -0.2293 -0.4391
23597SOL    HW177841   1.621   9.562   6.020  0.8751 -3.9027 -1.8859
23597SOL    HW277842   1.667   9.614   5.885  0.2400 -0.3332 -0.8174
23598SOL     OW77843   9.590   2.248   8.336  0.4199 -0.2411  0.1351
23598SOL    HW177844   9.521   2.204   8.287 -1.4081  0.8883  1.5634
23598SOL    HW277845   9.667   2.243   8.279 -1.3712  0.3505 -2.5127
23599SOL     OW77846  11.990   6.736   7.881  0.0237  0.2166 -0.3377
23599SOL    HW177847  12.023   6.773   7.963 -1.3397 -0.9467  0.7872
23599SOL    HW277848  11.909   6.784   7.864 -1.8454 -2.1780  1.2197
23600SOL     OW77849   1.315   5.601   2.367 -0.0832  0.6313 -0.2373
23600SOL    HW177850   1.399   5.601   2.414 -0.8251  1.1052  1.1503
23600SOL    HW277851   1.339   5.608   2.275  1.3957  1.2257  0.1629
23601SOL     OW77852   2.886  11.055   2.308 -0.1666 -0.6920 -0.6914
23601SOL    HW177853   2.934  10.987   2.262  1.5757  0.9775 -1.5229
23601SOL    HW277854   2.881  11.127   2.245 -2.3068 -0.1773  0.0020
23602SOL     OW77855  10.573  12.183   0.074  0.1177 -0.2061 -0.2776
23602SOL    HW177856  10.626  12.137   0.138  1.0788  0.6992 -0.4096
23602SOL    HW277857  10.601  12.274   0.079 -0.7540  0.1249 -1.0221
23603SOL     OW77858  10.048   8.489   1.205 -0.4135 -0.6139  0.2694
23603SOL    HW177859  10.040   8.406   1.157  0.6011 -0.7076  0.2418
23603SOL    HW277860  10.050   8.463   1.297 -2.2267 -0.4445  0.3915
23604SOL     OW77861   6.583   7.933   4.008 -0.2919 -0.2851  0.3733
23604SOL    HW177862   6.551   7.844   3.995 -0.4617 -0.2539  0.5771
23604SOL    HW277863   6.654   7.923   4.072 -0.6655 -0.2065  0.8003
23605SOL     OW77864   2.976   9.178   7.959 -0.2816  0.0263 -0.4089
23605SOL    HW177865   3.047   9.121   7.928 -0.0877 -0.2251  0.4753
23605SOL    HW277866   2.960   9.239   7.886  0.5177 -0.2159 -0.7918
23606SOL     OW77867   3.780   7.926   3.698  0.5700 -0.1939 -0.2979
23606SOL    HW177868   3.845   7.862   3.671  1.0857 -0.3905  1.2772
23606SOL    HW277869   3.821   7.974   3.770  0.0824  1.7298 -1.2088
23607SOL     OW77870  12.423   0.493   7.607  0.1522  0.2529 -0.8737
23607SOL    HW177871  12.475   0.466   7.683 -0.6891  0.5585 -0.1695
23607SOL    HW277872  12.337   0.516   7.644 -0.9172 -1.4537 -2.1501
23608SOL     OW77873  10.640   2.491   4.242 -0.9099 -0.1980 -0.2169
23608SOL    HW177874  10.687   2.460   4.320 -0.5226  0.8294 -0.0277
23608SOL    HW277875  10.592   2.567   4.273 -0.4709  0.4332 -1.0617
23609SOL     OW77876   5.031   9.929   5.211  0.2503 -0.7081 -0.0062
23609SOL    HW177877   4.999   9.850   5.166 -2.1454 -1.2349  2.3758
23609SOL    HW277878   4.953   9.983   5.223  0.9144 -0.2269  2.6455
23610SOL     OW77879   3.796   4.538  10.798 -0.0225  0.1081 -0.1337
23610SOL    HW177880   3.701   4.549  10.793  0.0313  0.9370  0.5334
23610SOL    HW277881   3.822   4.586  10.877  0.5450 -2.7890  1.5955
23611SOL     OW77882   9.088  12.454   5.130  0.9516 -0.2664  0.5110
23611SOL    HW177883   9.155  12.505   5.175  0.0203  0.0931  1.5338
23611SOL    HW277884   9.025  12.519   5.099  0.3809 -0.6908  0.7582
23612SOL     OW77885   6.446  10.526   6.722 -0.1416  0.3387 -0.4538
23612SOL    HW177886   6.499  10.590   6.770  0.2008  1.8395 -2.6666
23612SOL    HW277887   6.496  10.445   6.726  0.0185  0.4967  1.3890
23613SOL     OW77888   0.533   7.812   8.029 -0.7155 -0.2620 -0.1466
23613SOL    HW177889   0.526   7.899   8.069 -0.0363  0.6579 -1.8923
23613SOL    HW277890   0.447   7.773   8.041 -0.9036  0.4692  1.0581
23614SOL     OW77891   9.618   0.902   1.198  0.7242  0.2389 -0.0217
23614SOL    HW177892   9.561   0.825   1.202  0.0284  0.5640 -2.0694
23614SOL    HW277893   9.694   0.879   1.251  1.2767 -2.5278 -1.8051
23615SOL     OW77894  10.154   3.576   5.928 -0.1150 -0.1711 -0.4360
23615SOL    HW177895  10.164   3.482   5.914 -0.6661 -0.2340 -0.4221
23615SOL    HW277896  10.062   3.593   5.911  0.2344  0.5850 -1.7139
23616SOL     OW77897   8.366  11.315   1.892 -0.5843 -0.0963 -0.4833
23616SOL    HW177898   8.414  11.374   1.950 -0.0177  0.1624 -1.2055
23616SOL    HW277899   8.330  11.248   1.950  1.9302 -1.1922 -0.1031
23617SOL     OW77900   1.030   5.515  10.483 -0.0527 -0.6438 -0.2771
23617SOL    HW177901   1.058   5.484  10.397  0.8133 -1.1098  0.1632
23617SOL    HW277902   1.066   5.604  10.489 -1.3353 -0.0446 -0.9607
23618SOL     OW77903   2.497  10.778   6.974  0.7147  0.5113 -0.1387
23618SOL    HW177904   2.403  10.779   6.954  0.7945 -1.0466 -0.7350
23618SOL    HW277905   2.539  10.800   6.891  0.9005 -0.7565 -0.4084
23619SOL     OW77906   1.149   6.175   5.142  0.3971 -0.1804 -0.1867
23619SOL    HW177907   1.226   6.199   5.195  1.3446 -0.2835 -1.4620
23619SOL    HW277908   1.175   6.093   5.099  0.7015  1.1947 -2.7930
23620SOL     OW77909  12.261   5.432   0.560 -0.3556  0.0617 -0.0539
23620SOL    HW177910  12.347   5.458   0.593 -0.3702  0.8261 -0.6000
23620SOL    HW277911  12.240   5.352   0.608  1.7424 -1.5666 -1.6265
23621SOL     OW77912   6.690  11.466   7.600  0.1687  0.5349  0.0235
23621SOL    HW177913   6.755  11.477   7.669  1.1983 -0.5016 -0.7443
23621SOL    HW277914   6.741  11.445   7.522 -1.1197 -3.3123 -0.0088
23622SOL     OW77915   9.479   2.646   3.538  0.1226 -0.7036 -0.0985
23622SOL    HW177916   9.489   2.582   3.468 -0.3024  0.1270 -0.9243
23622SOL    HW277917   9.567   2.681   3.551 -0.0288  0.0980 -1.1435
23623SOL     OW77918   2.556  11.537   3.325 -0.4175  0.7592 -0.4363
23623SOL    HW177919   2.627  11.486   3.285  1.0355  3.0271 -0.9342
23623SOL    HW277920   2.535  11.489   3.406  2.3132  0.4264  0.1870
23624SOL     OW77921   1.295  11.037  11.381 -0.3685  0.1218  0.0383
23624SOL    HW177922   1.379  11.060  11.340 -0.8590  0.4596 -0.7843
23624SOL    HW277923   1.248  11.120  11.388 -0.8526 -0.1479  0.0082
23625SOL     OW77924   8.271   7.340   9.459 -0.2631  0.3277 -0.1721
23625SOL    HW177925   8.177   7.340   9.475 -0.3034 -1.0789 -0.3146
23625SOL    HW277926   8.281   7.295   9.374  0.6258 -0.9140  0.5591
23626SOL     OW77927   8.259   2.211   6.516  0.1333 -0.9251 -0.3771
23626SOL    HW177928   8.186   2.272   6.529  0.5642  0.1015 -2.3918
23626SOL    HW277929   8.216   2.128   6.494 -0.5083 -1.9270  3.7964
23627SOL     OW77930   1.587  10.008  12.076 -0.6470  0.2918  0.0324
23627SOL    HW177931   1.497   9.976  12.063  0.0205 -1.7005 -0.0038
23627SOL    HW277932   1.623   9.952  12.144  0.3560  1.5482  0.5727
23628SOL     OW77933   8.443   8.991   4.930 -0.0701 -0.4149  0.2408
23628SOL    HW177934   8.423   9.047   5.005 -2.2214 -0.6769 -0.0698
23628SOL    HW277935   8.485   8.915   4.967 -0.6230 -0.2941  1.1341
23629SOL     OW77936   4.871   9.731   2.215  0.1792  0.2006 -0.2053
23629SOL    HW177937   4.866   9.771   2.302  0.2283  1.7165 -0.8546
23629SOL    HW277938   4.848   9.802   2.155 -1.3409 -1.1884 -1.3658
23630SOL     OW77939   1.434   2.364   1.320  0.0382 -0.4339  0.1668
23630SOL    HW177940   1.498   2.356   1.249  0.2711 -1.4156  0.4664
23630SOL    HW277941   1.454   2.448   1.361  0.8607 -0.5211 -0.0289
23631SOL     OW77942  11.766   1.076   2.385 -0.3213 -0.1312  0.2746
23631SOL    HW177943  11.759   1.116   2.299 -1.0243  0.7665  0.7264
23631SOL    HW277944  11.701   1.005   2.385 -2.3589  1.6259  0.9647
23632SOL     OW77945   3.063   6.517   1.635  0.1407  0.1952  0.3208
23632SOL    HW177946   3.150   6.527   1.596  0.2937  0.8239  0.8004
23632SOL    HW277947   3.073   6.551   1.724  0.1925 -2.6526  1.4932
23633SOL     OW77948   0.172   4.352   5.816  0.3493 -0.7536  0.3442
23633SOL    HW177949   0.076   4.357   5.820  0.4237  3.4826  2.4460
23633SOL    HW277950   0.197   4.316   5.901  0.5993  0.8511  0.9781
23634SOL     OW77951   2.581  10.465   9.945 -0.7636  0.2187  0.1310
23634SOL    HW177952   2.573  10.378   9.905 -0.5788 -0.3375  1.2502
23634SOL    HW277953   2.659  10.503   9.905 -0.6770 -0.2577 -0.1586
23635SOL     OW77954   6.448   5.758   0.277  0.0955  0.4205  0.5467
23635SOL    HW177955   6.446   5.822   0.348 -0.7970  0.4062  0.5420
23635SOL    HW277956   6.490   5.681   0.316  1.4449  1.0916  0.4683
23636SOL     OW77957   4.101   3.634   5.849  0.3284  0.2451  0.1789
23636SOL    HW177958   4.169   3.700   5.857  1.3468 -0.7050 -0.2746
23636SOL    HW277959   4.105   3.585   5.931 -0.8008  1.0620  0.7481
23637SOL     OW77960  12.409   5.838   1.174 -0.1385 -0.8585 -0.5632
23637SOL    HW177961  12.487   5.876   1.134  0.0872  0.3090  0.8558
23637SOL    HW277962  12.355   5.914   1.197  0.7014 -1.1529  3.1546
23638SOL     OW77963  10.018   4.232   8.810 -0.4533 -0.3713 -0.2083
23638SOL    HW177964   9.976   4.246   8.726  0.1320  0.4301 -0.3822
23638SOL    HW277965  10.105   4.197   8.789  0.9111  2.6483 -0.1644
23639SOL     OW77966   9.437  11.376  11.482 -0.0297 -0.7502  0.2581
23639SOL    HW177967   9.531  11.355  11.484  0.5364  1.5263  1.6580
23639SOL    HW277968   9.429  11.454  11.537 -2.2698  1.1177 -2.4549
23640SOL     OW77969  11.988  10.936   8.637 -0.6028  0.1138 -0.1230
23640SOL    HW177970  12.058  10.930   8.572 -0.4828  0.4224 -0.0249
23640SOL    HW277971  11.982  11.030   8.656 -1.8104  0.2292 -0.9660
23641SOL     OW77972   2.456   9.525   9.595 -0.0272 -0.2297  0.4824
23641SOL    HW177973   2.453   9.505   9.689  0.3272  1.0934  0.8072
23641SOL    HW277974   2.379   9.580   9.580  0.0504 -0.2404  0.0505
23642SOL     OW77975   1.486  11.102   0.351 -0.5159  0.0505 -0.1135
23642SOL    HW177976   1.395  11.083   0.374 -0.6071  0.4985 -0.0891
23642SOL    HW277977   1.519  11.021   0.313 -0.7526 -0.2974  0.4080
23643SOL     OW77978   1.610   7.247   8.360  0.8527 -0.0638 -0.5113
23643SOL    HW177979   1.575   7.256   8.272 -0.5301  1.7860  0.1743
23643SOL    HW277980   1.591   7.156   8.384 -5.3797  1.0566  0.4248
23644SOL     OW77981   1.798   0.668  10.318 -0.0567 -0.0965 -0.3655
23644SOL    HW177982   1.703   0.674  10.325  0.0335  1.0342 -0.0662
23644SOL    HW277983   1.830   0.684  10.406  0.4534  0.5099 -0.6560
23645SOL     OW77984   1.337   4.547   8.160  0.4924  0.1252  0.2558
23645SOL    HW177985   1.423   4.506   8.157 -0.0753 -1.1151  0.4608
23645SOL    HW277986   1.353   4.633   8.198  2.0575  1.0643 -2.2169
23646SOL     OW77987   0.496  10.543   3.022 -0.2266 -0.3892 -0.1502
23646SOL    HW177988   0.571  10.558   2.964 -0.1108  1.7167  0.4592
23646SOL    HW277989   0.456  10.463   2.989  0.9409 -0.2959 -1.9374
23647SOL     OW77990   7.056   8.845   4.423 -0.2792 -0.1655 -0.2213
23647SOL    HW177991   7.069   8.842   4.328  0.6113  1.0649 -0.1541
23647SOL    HW277992   6.979   8.789   4.438 -1.9012  1.4672 -1.9229
23648SOL     OW77993  10.304  11.801   7.014  0.0007  0.0221 -0.2296
23648SOL    HW177994  10.257  11.738   7.070  0.7491 -1.1554 -0.8817
23648SOL    HW277995  10.260  11.884   7.029 -2.4625 -1.0573 -0.9932
23649SOL     OW77996   8.342   4.179   6.293 -0.4303 -0.0928 -0.8449
23649SOL    HW177997   8.346   4.267   6.255 -0.3456  0.4082  0.2876
23649SOL    HW277998   8.266   4.182   6.352  0.5291 -0.2524  0.4395
23650SOL     OW77999   2.841  10.228   0.071  0.4522  0.1494  0.2405
23650SOL    HW178000   2.932  10.250   0.050  0.4268 -1.0259 -1.2560
23650SOL    HW278001   2.797  10.313   0.072  0.8710  0.5178 -2.7353
23651SOL     OW78002  10.330   1.816   1.366  0.2440  0.1139 -0.0243
23651SOL    HW178003  10.274   1.751   1.324  0.2317  1.1824 -1.7667
23651SOL    HW278004  10.417   1.777   1.365  0.1686 -0.0546 -0.7172
23652SOL     OW78005   5.354  12.092  12.404 -0.6170  0.4836  1.0010
23652SOL    HW178006   5.377  12.156  12.336 -1.5032  2.4631  2.4611
23652SOL    HW278007   5.417  12.107  12.474  1.1712 -2.4797  0.2295
23653SOL     OW78008  12.351   9.279  11.067  0.3810 -0.0925 -0.0418
23653SOL    HW178009  12.393   9.326  10.995  0.6054 -0.1870  0.0252
23653SOL    HW278010  12.258   9.295  11.056  0.4961  0.9571  0.3911
23654SOL     OW78011   0.757  11.319  10.957 -0.0202  0.7555 -0.3638
23654SOL    HW178012   0.668  11.354  10.949 -0.7348 -0.6569  0.6979
23654SOL    HW278013   0.808  11.390  10.995 -0.2995  2.1044 -2.4080
23655SOL     OW78014   5.167   5.383   2.472  0.0459  0.1002 -0.2205
23655SOL    HW178015   5.257   5.412   2.460 -0.4600  2.6737  1.2745
23655SOL    HW278016   5.160   5.363   2.565 -1.1667  1.0939 -0.0603
23656SOL     OW78017   4.950  12.530   3.973  0.1984  0.1272  0.0881
23656SOL    HW178018   5.027  12.530   4.030 -0.0212  0.5792  0.3922
23656SOL    HW278019   4.902  12.609   3.998 -1.5030 -1.2418  1.4522
23657SOL     OW78020   8.099   4.637   1.840 -0.0831  0.0513 -0.3070
23657SOL    HW178021   8.062   4.585   1.911 -0.2546  0.5324 -0.0379
23657SOL    HW278022   8.054   4.722   1.846  1.2945  0.7717  0.2502
23658SOL     OW78023   4.548  10.970   2.962  0.8771  0.5727  0.7449
23658SOL    HW178024   4.625  10.957   2.906  0.6970 -2.7543  1.0410
23658SOL    HW278025   4.474  10.939   2.910  0.3774 -0.3247  1.9220
23659SOL     OW78026   9.103   6.932   5.473 -0.4650  0.3924 -0.2910
23659SOL    HW178027   9.112   7.025   5.494 -2.2227  0.2735  1.2589
23659SOL    HW278028   9.165   6.888   5.532  0.8493  0.5713 -1.4813
23660SOL     OW78029   7.328   7.406   0.127  0.1940 -0.1481  0.3181
23660SOL    HW178030   7.273   7.416   0.204  0.8673  0.5819  0.7170
23660SOL    HW278031   7.412   7.376   0.161  1.0464  1.8579  0.0874
23661SOL     OW78032   5.582   9.053   8.262  0.3437  0.3852  0.1756
23661SOL    HW178033   5.656   9.034   8.319  1.7741 -2.5559 -2.3801
23661SOL    HW278034   5.593   9.146   8.239  1.2588  0.8907  2.4266
23662SOL     OW78035  10.590   7.473   0.480  0.1782 -0.5188 -0.0462
23662SOL    HW178036  10.565   7.537   0.547 -0.1899 -1.5277  0.8081
23662SOL    HW278037  10.512   7.418   0.469  0.4615 -0.7760 -0.8224
23663SOL     OW78038   0.204   2.654   1.900 -0.3982 -0.3650  0.1160
23663SOL    HW178039   0.291   2.621   1.924 -0.7615 -0.8001  0.8615
23663SOL    HW278040   0.147   2.624   1.970 -0.8398  1.4587  0.5674
23664SOL     OW78041   6.954   3.897   6.384  0.0512 -0.2547  0.6922
23664SOL    HW178042   7.025   3.962   6.384  0.5502 -0.6788 -1.8378
23664SOL    HW278043   6.875   3.949   6.367  0.1558 -0.0826  0.7261
23665SOL     OW78044   1.716   7.904  10.321  0.2155  0.6127  0.9299
23665SOL    HW178045   1.730   7.948  10.404  1.9736 -1.3185  1.7640
23665SOL    HW278046   1.697   7.974  10.259  3.0624  2.6051  2.0888
23666SOL     OW78047   7.900   2.075   7.675 -0.9620  0.1449 -0.1583
23666SOL    HW178048   7.868   2.130   7.747 -0.3531  0.6121 -0.2328
23666SOL    HW278049   7.933   2.138   7.611  1.2049 -0.3072  0.4318
23667SOL     OW78050  10.238   3.550   4.043  0.2307 -0.6125  0.3089
23667SOL    HW178051  10.254   3.610   3.971  1.2501  0.2221  1.1948
23667SOL    HW278052  10.289   3.473   4.022  1.8642  0.2609  0.8931
23668SOL     OW78053   3.770   2.101   5.492 -0.5246  0.2364 -0.3891
23668SOL    HW178054   3.763   2.190   5.456 -1.5178  1.1045  1.7762
23668SOL    HW278055   3.704   2.098   5.561 -0.1155 -2.0120 -0.0301
23669SOL     OW78056  11.413   9.451  10.031 -0.0512  0.0680 -0.1780
23669SOL    HW178057  11.357   9.528  10.028  0.3565  0.3833 -2.8876
23669SOL    HW278058  11.495   9.480   9.991  0.8603 -1.2335  0.6679
23670SOL     OW78059   7.857   7.393   3.328 -0.2139 -0.2727  0.7437
23670SOL    HW178060   7.859   7.391   3.424 -1.5238 -0.9879  0.7832
23670SOL    HW278061   7.887   7.307   3.300  3.0547  0.8524  0.3536
23671SOL     OW78062   5.877   5.191  12.492  0.2132  0.1928 -0.1215
23671SOL    HW178063   5.865   5.228  12.404  0.2248  0.5307  0.0203
23671SOL    HW278064   5.789   5.160  12.516 -0.0904  1.3596  0.3169
23672SOL     OW78065   3.247   1.182   4.793  1.6609  0.5816  0.3198
23672SOL    HW178066   3.277   1.092   4.804 -0.3005 -0.1763 -0.0455
23672SOL    HW278067   3.265   1.224   4.877  1.2429 -0.5930  1.0184
23673SOL     OW78068   8.046   2.952   0.828  0.2257 -0.6189 -0.0027
23673SOL    HW178069   8.040   2.887   0.759  0.0293  0.5068 -1.0827
23673SOL    HW278070   7.963   2.944   0.876  0.1874 -1.1340 -0.1529
23674SOL     OW78071   9.542   7.854   8.658 -0.0208 -0.3397  0.0644
23674SOL    HW178072   9.542   7.763   8.689  0.4554 -0.3340  0.0812
23674SOL    HW278073   9.451   7.871   8.635 -0.3681 -0.3872  1.3267
23675SOL     OW78074   3.932   0.647   6.850 -0.2267  0.2327  0.2905
23675SOL    HW178075   4.021   0.652   6.885 -0.0311 -0.3926 -0.0982
23675SOL    HW278076   3.923   0.556   6.819 -1.2681  0.0719  1.0205
23676SOL     OW78077   4.838   2.225   0.024  0.2366  0.2412  0.5137
23676SOL    HW178078   4.795   2.271   0.096 -1.6220  2.3915 -1.7884
23676SOL    HW278079   4.857   2.293  -0.041 -1.4162 -1.9190 -2.5213
23677SOL     OW78080   0.889   6.786  11.995  0.3755  0.4238  0.4768
23677SOL    HW178081   0.918   6.696  11.978  1.8026  0.9281  0.0263
23677SOL    HW278082   0.824   6.778  12.064  0.8440 -0.9184  0.7986
23678SOL     OW78083  11.498   9.447   6.152 -0.0593  0.2425  0.1564
23678SOL    HW178084  11.449   9.479   6.227 -1.1550  0.4962 -0.6436
23678SOL    HW278085  11.445   9.470   6.076  1.1651  0.2744 -0.7361
23679SOL     OW78086   8.446   9.690   6.672  0.1564 -0.1869  0.5678
23679SOL    HW178087   8.414   9.742   6.746 -0.8011 -0.5279  0.4027
23679SOL    HW278088   8.399   9.608   6.679  0.4943 -0.4380 -0.0976
23680SOL     OW78089   7.185   1.061   9.063  0.0235 -0.3584  0.6323
23680SOL    HW178090   7.266   1.079   9.015  0.9662 -2.4672  1.3132
23680SOL    HW278091   7.212   1.006   9.136 -2.1274 -1.8425  0.4012
23681SOL     OW78092   8.811   1.577   0.795  0.1611  0.6235 -0.1600
23681SOL    HW178093   8.878   1.572   0.863  2.0635  1.1819 -1.8989
23681SOL    HW278094   8.731   1.599   0.843  1.0624 -0.5552  2.0572
23682SOL     OW78095   5.261   2.100   6.421 -0.3192  0.4491 -0.4023
23682SOL    HW178096   5.195   2.144   6.368 -0.2750 -0.7085 -1.4565
23682SOL    HW278097   5.303   2.171   6.469 -2.1062  1.2486  0.0793
23683SOL     OW78098   4.292   3.705   4.035  0.1784  0.2328 -0.2014
23683SOL    HW178099   4.197   3.704   4.035  0.1747  0.1456  0.5024
23683SOL    HW278100   4.316   3.725   4.126  0.8245 -0.4886 -0.1972
23684SOL     OW78101  10.250   8.576   9.274 -0.4691 -0.4422  0.0822
23684SOL    HW178102  10.211   8.663   9.276  1.0644  0.2662  0.5814
23684SOL    HW278103  10.179   8.517   9.301 -1.6424  0.5790 -0.6714
23685SOL     OW78104   5.375   8.605   3.134 -0.3240  0.0269 -0.0157
23685SOL    HW178105   5.446   8.632   3.192  0.6057  0.0012 -1.1001
23685SOL    HW278106   5.296   8.644   3.172  0.2737  0.1280  1.1614
23686SOL     OW78107   4.926   2.746   2.885  0.1861 -0.2034  0.1495
23686SOL    HW178108   4.879   2.788   2.957 -1.1810 -2.3934  0.6105
23686SOL    HW278109   4.989   2.812   2.857 -1.1625  1.7632  1.4651
23687SOL     OW78110   1.392   8.557   9.709 -0.5659  0.2796  0.7138
23687SOL    HW178111   1.391   8.641   9.663  0.1347  0.7765  1.5644
23687SOL    HW278112   1.485   8.538   9.722 -0.5686 -2.0133 -1.8460
23688SOL     OW78113   9.081   6.228   8.738  0.0798  0.0328 -0.1173
23688SOL    HW178114   9.040   6.253   8.821 -2.9229 -1.7972 -0.9026
23688SOL    HW278115   9.035   6.280   8.672 -1.7665 -2.6972 -1.1226
23689SOL     OW78116   2.050   0.990  10.486 -0.2167  0.1408  0.3592
23689SOL    HW178117   2.051   0.963  10.394  0.4717  0.3100  0.3091
23689SOL    HW278118   2.140   0.975  10.515 -0.5044 -0.1913  1.0881
23690SOL     OW78119   1.554   2.852   9.017  0.3823 -0.1747  0.0221
23690SOL    HW178120   1.526   2.880   9.104  1.7124 -0.4782  0.5724
23690SOL    HW278121   1.545   2.756   9.019  1.8210 -0.3180  0.3628
23691SOL     OW78122  10.080   7.589  12.511  0.2256 -1.0923 -0.1900
23691SOL    HW178123  10.149   7.621  12.453  0.8412 -0.5056  0.8357
23691SOL    HW278124  10.109   7.502  12.538  1.3236 -0.2862  1.3753
23692SOL     OW78125  11.518   0.972   2.890  0.5106  0.5030 -0.5947
23692SOL    HW178126  11.584   0.914   2.930  0.7016  0.0186 -1.5744
23692SOL    HW278127  11.555   0.993   2.804  0.8889  2.8473  0.0573
23693SOL     OW78128   2.300   6.439   7.978  0.5535 -0.3201 -0.2014
23693SOL    HW178129   2.306   6.352   7.938  0.2013 -0.1094 -0.7140
23693SOL    HW278130   2.231   6.430   8.044  1.0347 -0.6272  0.2689
23694SOL     OW78131   0.628   3.184   9.904 -0.4536 -0.1908 -0.8366
23694SOL    HW178132   0.701   3.129   9.874 -0.1311  0.1373 -0.6562
23694SOL    HW278133   0.602   3.234   9.827 -0.2798 -0.0736 -0.8187
23695SOL     OW78134   7.450  12.354   0.288  0.2484  0.8692  0.8352
23695SOL    HW178135   7.367  12.369   0.244 -0.4682  0.7619  2.1073
23695SOL    HW278136   7.512  12.337   0.217 -1.4100 -2.1716 -0.0964
23696SOL     OW78137   6.683   2.020   1.848 -0.4443 -0.3870  0.0653
23696SOL    HW178138   6.754   1.995   1.788 -1.5499  0.9404 -1.9337
23696SOL    HW278139   6.724   2.084   1.907  0.4000 -0.7944 -0.0589
23697SOL     OW78140   2.001   8.469   5.877  0.3872  0.2740  0.7141
23697SOL    HW178141   1.989   8.409   5.951  0.9334 -2.0853 -0.9989
23697SOL    HW278142   1.913   8.481   5.841  0.3345  0.0790  0.7755
23698SOL     OW78143   1.760   7.610   0.602 -0.1011 -0.4863  0.2771
23698SOL    HW178144   1.851   7.629   0.625  0.5858 -1.5880 -1.3376
23698SOL    HW278145   1.733   7.685   0.549 -0.5678  0.4190  1.7415
23699SOL     OW78146   2.722   1.422   5.267 -0.0017 -0.0934  0.1264
23699SOL    HW178147   2.672   1.500   5.292 -0.0535  0.1419 -0.6779
23699SOL    HW278148   2.732   1.372   5.349  0.2818  0.8910  0.7105
23700SOL     OW78149   7.410   1.256  10.922 -0.1152 -0.1241 -0.1585
23700SOL    HW178150   7.463   1.263  11.001 -0.5645 -2.2913  0.3842
23700SOL    HW278151   7.457   1.192  10.868 -0.5332  0.3146 -1.0529
23701SOL     OW78152   2.114  10.007   0.970  0.3381  0.2668  0.2886
23701SOL    HW178153   2.030  10.004   1.016  0.9185  1.2432  1.4743
23701SOL    HW278154   2.175   9.961   1.028  0.9129  0.7806  0.0960
23702SOL     OW78155   0.681  11.234  11.408 -0.4900 -0.4188  0.3898
23702SOL    HW178156   0.658  11.142  11.394  1.4385 -0.7580 -0.9183
23702SOL    HW278157   0.762  11.247  11.357 -1.1824  2.2327 -0.1960
23703SOL     OW78158  11.966   2.866  10.826  0.6402 -0.2160 -0.0769
23703SOL    HW178159  11.887   2.920  10.827  0.9026  0.1748  1.2044
23703SOL    HW278160  12.011   2.887  10.908  2.0095 -0.5331 -0.7135
23704SOL     OW78161  11.871  10.381   7.622  0.1239  0.7581 -0.4815
23704SOL    HW178162  11.782  10.403   7.594  0.7938  2.6575 -1.2892
23704SOL    HW278163  11.867  10.379   7.718 -0.5807  1.7921 -0.4793
23705SOL     OW78164   9.503   3.098  10.122  0.0944 -0.7693 -0.2301
23705SOL    HW178165   9.597   3.116  10.127  0.1292  0.1472 -2.8185
23705SOL    HW278166   9.497   3.011  10.085 -0.0917 -0.8045 -0.1175
23706SOL     OW78167   8.282   4.736   7.127  0.1706 -0.2062  0.5908
23706SOL    HW178168   8.322   4.686   7.056  0.5603  2.6511 -1.3998
23706SOL    HW278169   8.347   4.736   7.197 -0.1832 -3.0078  1.0344
23707SOL     OW78170  11.709  10.599   6.435 -0.0405  0.4008 -0.0101
23707SOL    HW178171  11.779  10.536   6.417  0.6444  1.3517 -0.8223
23707SOL    HW278172  11.629  10.554   6.411  0.4138 -0.2704 -0.2786
23708SOL     OW78173   4.651   7.618   9.477  0.6083 -0.0930  0.0427
23708SOL    HW178174   4.715   7.613   9.548 -0.1047  1.0999  0.8099
23708SOL    HW278175   4.651   7.709   9.450 -3.1954  0.8671  2.4907
23709SOL     OW78176   2.558  12.020   8.819  0.6938  0.6020 -0.3044
23709SOL    HW178177   2.578  11.999   8.728 -3.4049 -1.7434 -0.9041
23709SOL    HW278178   2.612  11.959   8.871 -0.6669 -1.7239 -1.4848
23710SOL     OW78179   3.095   8.859   6.854  0.8392  0.0512  0.3250
23710SOL    HW178180   3.142   8.932   6.894 -0.3048  0.2444  1.3882
23710SOL    HW278181   3.155   8.785   6.863  1.5531  0.6133  0.2677
23711SOL     OW78182   5.343   9.670   7.118  0.5156  0.0510  0.0872
23711SOL    HW178183   5.383   9.716   7.045  1.3976  1.3056  1.2981
23711SOL    HW278184   5.306   9.740   7.173 -2.0576 -0.9631 -0.1968
23712SOL     OW78185  11.644  10.376   4.241  0.2613  0.4248  0.1517
23712SOL    HW178186  11.607  10.330   4.165  2.1039  0.3595 -0.7778
23712SOL    HW278187  11.661  10.307   4.305 -0.5575  0.3736  0.3293
23713SOL     OW78188   4.370   7.321   5.710 -0.5607 -0.2146 -0.2349
23713SOL    HW178189   4.304   7.350   5.647 -1.3331  0.0918  0.6870
23713SOL    HW278190   4.329   7.334   5.796  0.3355 -0.9409  0.3252
23714SOL     OW78191   0.334   0.610   2.160 -0.1722  0.2204  0.2939
23714SOL    HW178192   0.272   0.610   2.234  0.5260 -0.3777  0.8919
23714SOL    HW278193   0.418   0.585   2.199  0.2575  0.1326 -0.6658
23715SOL     OW78194   3.044   5.957   1.416 -0.2364 -0.4441 -0.4107
23715SOL    HW178195   2.958   5.916   1.427  0.5637 -2.0601  0.1232
23715SOL    HW278196   3.090   5.938   1.498  0.2179  1.5428 -0.1367
23716SOL     OW78197   4.608  10.957   3.217  0.0772 -0.2126 -0.0029
23716SOL    HW178198   4.689  11.007   3.207  0.7396 -1.6111 -2.4722
23716SOL    HW278199   4.561  10.973   3.135 -1.9079  0.0814  1.1436
23717SOL     OW78200   3.268  11.104   4.423  0.0635 -0.4752 -0.1860
23717SOL    HW178201   3.316  11.049   4.361  3.5855 -1.0119  2.6870
23717SOL    HW278202   3.188  11.055   4.441  0.7520 -2.1607 -1.4092
23718SOL     OW78203   9.889  10.168   4.121 -0.6252  0.2060  0.3457
23718SOL    HW178204   9.912  10.082   4.086  1.2609  0.2930  1.1931
23718SOL    HW278205   9.804  10.155   4.163  0.4165 -1.7814  2.0702
23719SOL     OW78206   0.005   8.958   4.895 -0.1794 -0.1663 -0.1383
23719SOL    HW178207   0.016   8.864   4.882  1.7442 -0.6615  3.7669
23719SOL    HW278208  -0.080   8.966   4.938 -0.0299 -0.2050  0.1645
23720SOL     OW78209  12.317   3.898   4.426  0.1820  0.4691 -0.4878
23720SOL    HW178210  12.272   3.942   4.355 -0.7628 -0.1609 -0.3057
23720SOL    HW278211  12.250   3.845   4.468  0.9799 -0.0867  0.1392
23721SOL     OW78212   0.786   5.980   2.970 -0.6440 -0.1505  0.4294
23721SOL    HW178213   0.872   5.981   3.013 -0.6575 -1.3236  0.5380
23721SOL    HW278214   0.744   5.901   3.004 -2.6364  1.4845  2.0173
23722SOL     OW78215   9.844   6.835   3.026  0.1279 -0.6152 -0.4585
23722SOL    HW178216   9.785   6.908   3.042 -0.8771 -1.1626 -1.5421
23722SOL    HW278217   9.901   6.865   2.956  1.8933  0.2988  1.2669
23723SOL     OW78218   2.504   0.290   5.105  0.4091  0.5046  0.0287
23723SOL    HW178219   2.420   0.251   5.081  1.1672  0.0350 -2.0277
23723SOL    HW278220   2.542   0.318   5.022  2.2373  0.8251  0.9309
23724SOL     OW78221   0.157   7.427   9.149 -0.3782  0.1500  0.1091
23724SOL    HW178222   0.092   7.365   9.116  0.8968 -1.3120  0.2380
23724SOL    HW278223   0.163   7.407   9.243  1.0707 -0.5501 -0.1085
23725SOL     OW78224  12.210   6.018   1.199 -0.3044  0.4716  0.1514
23725SOL    HW178225  12.163   6.099   1.179  1.7010  2.0259  1.3180
23725SOL    HW278226  12.153   5.970   1.258 -1.5356  1.0043 -0.5725
23726SOL     OW78227   7.956   9.544   4.144  0.1012  0.5457 -0.2449
23726SOL    HW178228   7.879   9.513   4.096  0.5289  0.5278 -0.9303
23726SOL    HW278229   8.030   9.524   4.086  0.5979  0.7717  0.3053
23727SOL     OW78230   0.634   4.628  12.037  0.1579  0.6574 -0.4613
23727SOL    HW178231   0.669   4.589  11.958 -0.9809 -2.8364  0.6016
23727SOL    HW278232   0.541   4.608  12.036  0.0270  0.8758  1.5421
23728SOL     OW78233  11.736   1.123   5.648  0.0149 -0.3430  0.2365
23728SOL    HW178234  11.727   1.080   5.732  2.3236 -0.9817  0.2197
23728SOL    HW278235  11.647   1.148   5.624 -0.5790  1.2499  3.5444
23729SOL     OW78236   4.541   1.477   9.430 -0.4442  0.3179  0.3044
23729SOL    HW178237   4.466   1.495   9.374 -2.7218 -2.7598  1.9711
23729SOL    HW278238   4.609   1.445   9.371 -1.2961  0.9103 -1.0401
23730SOL     OW78239   8.534   4.889   2.861  0.0244 -0.1072 -0.8192
23730SOL    HW178240   8.517   4.893   2.955  1.2087  0.3333 -0.6028
23730SOL    HW278241   8.598   4.819   2.850 -0.3407 -0.3700 -1.3408
23731SOL     OW78242   8.357   3.862   3.201 -0.0311  0.1063  0.0884
23731SOL    HW178243   8.373   3.772   3.229  0.2808  0.6856  1.9611
23731SOL    HW278244   8.302   3.854   3.123 -0.3764 -1.6813  0.4659
23732SOL     OW78245   0.871   8.409   8.223 -0.5966 -0.3492  0.1231
23732SOL    HW178246   0.775   8.412   8.223 -0.5922 -0.2349 -0.1130
23732SOL    HW278247   0.893   8.372   8.309 -0.8337  0.2415  0.4432
23733SOL     OW78248   0.557   0.775   9.904 -0.3611 -0.3284 -0.3218
23733SOL    HW178249   0.618   0.708   9.935  0.5599  1.8714  3.2519
23733SOL    HW278250   0.611   0.833   9.849  0.3807  0.5057  1.2104
23734SOL     OW78251  10.922   4.725   8.525  0.4219  0.1595  0.4173
23734SOL    HW178252  10.952   4.710   8.435  2.2095  2.1616  0.5953
23734SOL    HW278253  10.993   4.692   8.580  0.9408  2.0184  0.9459
23735SOL     OW78254   2.724  11.700   5.621 -0.3388 -0.3979 -0.1681
23735SOL    HW178255   2.812  11.685   5.655 -0.2423 -0.0492 -0.2616
23735SOL    HW278256   2.716  11.795   5.615 -0.3903 -0.4427 -1.0097
23736SOL     OW78257  10.094   4.607   4.896 -0.8414 -0.0610  0.4422
23736SOL    HW178258  10.035   4.626   4.824  0.0014 -0.8378 -0.4788
23736SOL    HW278259  10.130   4.692   4.921 -0.7815  0.1634 -0.3823
23737SOL     OW78260   8.004   7.624   3.255 -0.3828  0.7256  0.2556
23737SOL    HW178261   7.973   7.541   3.291  1.8844 -0.1863  0.2158
23737SOL    HW278262   7.986   7.617   3.161  0.3630 -0.0015  0.1578
23738SOL     OW78263   8.882   6.551  11.748  0.2879 -0.4878 -0.4411
23738SOL    HW178264   8.977   6.549  11.735  0.8031  1.6118  2.1399
23738SOL    HW278265   8.847   6.585  11.665  1.9498  0.0494 -0.9551
23739SOL     OW78266   7.875   6.604   7.030  0.1315  0.6949 -0.3589
23739SOL    HW178267   7.802   6.664   7.045 -0.4564 -0.3457  1.1854
23739SOL    HW278268   7.952   6.662   7.024 -0.5655  1.6828 -0.0876
23740SOL     OW78269   7.448  10.864   2.074  0.5118 -0.2307 -0.6114
23740SOL    HW178270   7.490  10.940   2.113  0.3685  0.5348 -1.9045
23740SOL    HW278271   7.366  10.854   2.121  0.9821 -0.2020  0.2312
23741SOL     OW78272   0.148  11.895  10.798 -0.0003  0.0176  0.4774
23741SOL    HW178273   0.177  11.973  10.845 -0.8141  0.7314 -0.1850
23741SOL    HW278274   0.224  11.870  10.744  0.9809 -0.8675  2.1793
23742SOL     OW78275   9.883   5.321   5.721  0.2616  0.6478 -0.5633
23742SOL    HW178276   9.897   5.408   5.759 -0.4702  0.2490  0.6753
23742SOL    HW278277   9.788   5.313   5.712  0.3357  0.0705 -0.8967
23743SOL     OW78278  10.306   5.893   5.633 -0.0436 -0.1004  0.6023
23743SOL    HW178279  10.380   5.954   5.640  0.6551 -0.2279 -3.2600
23743SOL    HW278280  10.330   5.819   5.689  2.8866 -0.1653 -0.5730
23744SOL     OW78281   0.877  12.348   4.912  0.3839 -0.0128  0.4580
23744SOL    HW178282   0.947  12.343   4.847  0.7305  1.2850  0.6931
23744SOL    HW278283   0.809  12.290   4.880  0.3900  0.8817 -1.2655
23745SOL     OW78284  11.464   3.373   4.072 -0.5404 -0.1810  0.8799
23745SOL    HW178285  11.517   3.447   4.041  1.9320 -2.3762 -0.6068
23745SOL    HW278286  11.374   3.400   4.059  0.2993  1.7413 -1.7997
23746SOL     OW78287  12.013   3.274   7.260  0.3227 -0.6635 -0.9619
23746SOL    HW178288  12.003   3.295   7.167 -0.3505 -3.3924 -1.5821
23746SOL    HW278289  12.067   3.195   7.261 -0.3209 -1.1295  0.9266
23747SOL     OW78290   1.570   0.888   6.602  0.6103  0.3876 -0.1849
23747SOL    HW178291   1.547   0.976   6.633  1.3494  0.6680 -0.4167
23747SOL    HW278292   1.541   0.830   6.672  1.1073  0.9062  0.4602
23748SOL     OW78293  11.056   6.496   8.057  0.7529 -0.6868  0.1249
23748SOL    HW178294  11.090   6.573   8.010 -0.2489 -0.1988  0.1725
23748SOL    HW278295  10.994   6.456   7.996  0.0599 -0.5247  0.7140
23749SOL     OW78296  11.104   2.326   9.435  0.0342 -0.0510 -0.9443
23749SOL    HW178297  11.106   2.348   9.342 -0.1800 -1.1766 -1.2221
23749SOL    HW278298  11.131   2.235   9.439  2.5889  0.6654  0.3484
23750SOL     OW78299   0.931   5.766  11.363 -0.1398 -0.6503 -0.1085
23750SOL    HW178300   0.922   5.686  11.311  1.3291 -0.5192 -0.6147
23750SOL    HW278301   0.986   5.823  11.309  2.1118 -0.8106  1.8955
23751SOL     OW78302  12.560   9.193   1.604  0.0209  0.5771  0.2314
23751SOL    HW178303  12.596   9.195   1.515  2.1686  0.9133  1.0305
23751SOL    HW278304  12.637   9.199   1.661 -1.3008  0.5782  2.1261
23752SOL     OW78305   0.272  11.099   2.421 -0.1654  0.0130 -0.2306
23752SOL    HW178306   0.204  11.165   2.432 -0.3843 -0.5101  1.9100
23752SOL    HW278307   0.352  11.141   2.451 -0.5429 -1.0339  2.5359
23753SOL     OW78308   4.815   9.523  11.028  0.3046 -0.0459 -0.3472
23753SOL    HW178309   4.783   9.460  10.965  0.4722  0.8689 -1.3719
23753SOL    HW278310   4.858   9.470  11.096 -1.3274 -1.1326 -0.1217
23754SOL     OW78311  10.246   7.336   8.545 -0.9346 -0.3359  0.2704
23754SOL    HW178312  10.280   7.313   8.458  1.1723  0.7054  0.7549
23754SOL    HW278313  10.214   7.425   8.535 -0.7351 -0.2326  0.5510
23755SOL     OW78314   1.685  11.035   7.232  0.4987  0.3167  0.1458
23755SOL    HW178315   1.656  11.051   7.322  0.5760 -2.5140  0.7704
23755SOL    HW278316   1.625  11.086   7.178 -1.7811 -0.5483  1.6871
23756SOL     OW78317   6.595   7.698  11.604 -0.5762  0.2555  0.0908
23756SOL    HW178318   6.558   7.779  11.641  1.2466  0.3483  1.8995
23756SOL    HW278319   6.608   7.641  11.679  0.5035 -0.7576 -0.8249
23757SOL     OW78320   1.999   9.398   8.579  0.3000  0.1544 -0.1004
23757SOL    HW178321   2.060   9.328   8.602 -0.0718  0.2766  1.3491
23757SOL    HW278322   1.965   9.372   8.493  0.1628 -1.4586  0.4100
23758SOL     OW78323  10.030   9.347  10.974  0.2549 -0.3209 -0.3988
23758SOL    HW178324   9.936   9.334  10.963  0.5713 -1.9254 -1.6636
23758SOL    HW278325  10.051   9.305  11.057 -0.4311  1.9678  1.0169
23759SOL     OW78326   8.698   1.024  10.056 -0.1856 -0.4020 -0.5599
23759SOL    HW178327   8.616   1.051  10.099  0.9801 -0.7770  2.0713
23759SOL    HW278328   8.757   1.098  10.070  0.7527 -1.2448  0.0542
23760SOL     OW78329   7.883   6.105   7.755 -0.3913  0.2887 -0.0251
23760SOL    HW178330   7.891   6.049   7.678 -0.0604 -0.3269  0.4427
23760SOL    HW278331   7.937   6.061   7.821 -1.5686  0.1974  0.8975
23761SOL     OW78332   5.007   3.292   2.645  0.5728  0.1699 -0.4519
23761SOL    HW178333   5.070   3.327   2.582  1.5867 -0.8174 -0.0282
23761SOL    HW278334   5.061   3.251   2.712 -0.5365 -0.6596 -0.0361
23762SOL     OW78335   7.824   9.156  11.703 -0.4106 -0.3928  0.1339
23762SOL    HW178336   7.872   9.216  11.761  1.5387 -1.7176  0.0145
23762SOL    HW278337   7.824   9.199  11.618  2.0710 -1.0054 -0.2525
23763SOL     OW78338  10.783   6.022   2.299  0.2452  0.0074 -0.7180
23763SOL    HW178339  10.721   6.034   2.371  0.2134  0.7567 -0.8687
23763SOL    HW278340  10.826   5.938   2.319 -0.8967 -0.5956 -0.6826
23764SOL     OW78341  10.388   1.758   1.060 -0.3832  0.5760  0.1193
23764SOL    HW178342  10.341   1.838   1.084  1.3479  1.6411  0.1033
23764SOL    HW278343  10.409   1.717   1.143  0.5393  1.2448  0.2320
23765SOL     OW78344  11.607   0.381   6.168  0.0838  0.5795 -0.5710
23765SOL    HW178345  11.655   0.318   6.113  0.9048 -0.1576  0.9266
23765SOL    HW278346  11.658   0.462   6.162  0.4796  0.3423 -0.4793
23766SOL     OW78347   0.211   5.573   5.599 -0.0584 -0.0788  0.1125
23766SOL    HW178348   0.134   5.521   5.573  1.0296 -0.3891 -2.8394
23766SOL    HW278349   0.264   5.512   5.651  0.2277 -1.3241 -1.5612
23767SOL     OW78350   8.840   3.906   3.201 -0.5871 -0.1328 -0.0083
23767SOL    HW178351   8.812   3.919   3.110  1.4528  1.2007 -0.5222
23767SOL    HW278352   8.884   3.988   3.224 -0.8555 -0.5427  2.1163
23768SOL     OW78353   9.779   5.240   1.193 -0.4386  0.3176 -0.2703
23768SOL    HW178354   9.724   5.188   1.135 -2.0819  2.5408 -0.8637
23768SOL    HW278355   9.775   5.194   1.277 -1.0957 -0.9602 -0.9662
23769SOL     OW78356   0.746  10.843   7.061 -0.5294  0.1865 -0.3051
23769SOL    HW178357   0.702  10.830   7.145 -0.1169 -2.1183 -0.3652
23769SOL    HW278358   0.675  10.863   7.000 -1.6321 -3.1459 -0.3371
23770SOL     OW78359  10.133   9.880   9.237 -0.2260  0.0809  0.4313
23770SOL    HW178360  10.145   9.923   9.322  0.3888  0.4911  0.1420
23770SOL    HW278361  10.195   9.807   9.238  2.3857  2.1124 -1.0030
23771SOL     OW78362  10.359   8.926   6.955 -0.2987 -0.1974 -0.5051
23771SOL    HW178363  10.375   8.872   7.033  0.6345 -1.0163 -1.2462
23771SOL    HW278364  10.266   8.950   6.962 -0.7240 -1.8017 -0.0964
23772SOL     OW78365   4.530   8.494  11.155  0.0517 -0.2831  0.0350
23772SOL    HW178366   4.456   8.555  11.147  0.4101  0.1365 -0.1335
23772SOL    HW278367   4.535   8.452  11.069 -1.0311 -1.5406  0.5564
23773SOL     OW78368   1.527   8.677   3.597  0.0431 -0.4456 -0.1332
23773SOL    HW178369   1.550   8.667   3.689 -1.6791  0.8128  0.4832
23773SOL    HW278370   1.601   8.723   3.558  0.6797 -0.7808  0.6626
23774SOL     OW78371   2.487  10.886   9.453  0.0071 -0.0101 -0.0996
23774SOL    HW178372   2.501  10.979   9.470  3.2044 -0.2575 -0.7893
23774SOL    HW278373   2.448  10.852   9.533 -0.5692  1.7673  0.4240
23775SOL     OW78374  11.612   3.365   4.505  0.3584  0.4251 -0.0187
23775SOL    HW178375  11.621   3.336   4.414  1.8575  0.2779  0.1379
23775SOL    HW278376  11.573   3.290   4.550  0.4503  0.1593 -0.3734
23776SOL     OW78377   8.475   4.963   4.630  0.2632  0.2553 -0.3106
23776SOL    HW178378   8.420   5.041   4.624 -0.2109 -0.1056 -0.7903
23776SOL    HW278379   8.421   4.893   4.594  1.4032  0.0863 -1.7978
23777SOL     OW78380   6.763   1.503   8.478 -0.2436 -0.5646 -0.2032
23777SOL    HW178381   6.853   1.468   8.486 -0.1863 -0.2454  0.6662
23777SOL    HW278382   6.775   1.596   8.461 -0.3896 -0.1845  1.5795
23778SOL     OW78383  10.024   8.126   2.904  0.2962 -0.7005  0.3103
23778SOL    HW178384  10.113   8.107   2.935  0.8369  0.3707 -0.5099
23778SOL    HW278385  10.016   8.076   2.823  0.5518 -0.0096 -0.1584
23779SOL     OW78386  10.536   6.936   9.343 -0.3763 -0.3569 -0.4157
23779SOL    HW178387  10.535   6.842   9.359  0.6165 -0.1722  0.9370
23779SOL    HW278388  10.574   6.946   9.256 -2.6908 -1.2771 -1.6327
23780SOL     OW78389  12.197  11.520   2.067 -0.0576  0.1486 -0.3510
23780SOL    HW178390  12.263  11.495   2.131 -1.2952 -0.5781  0.6839
23780SOL    HW278391  12.169  11.607   2.093 -0.0400  0.1527 -0.3459
23781SOL     OW78392   9.783   8.622  11.501 -0.5832 -0.2044  0.0118
23781SOL    HW178393   9.743   8.541  11.531 -0.2819 -0.3924 -0.0903
23781SOL    HW278394   9.878   8.605  11.505 -0.4974  0.3622  0.6228
23782SOL     OW78395   8.484   8.279   9.192 -0.3605 -0.0021  0.4496
23782SOL    HW178396   8.429   8.275   9.270 -1.2068 -1.2354 -0.1761
23782SOL    HW278397   8.557   8.220   9.211 -0.9569 -0.8964  0.0477
23783SOL     OW78398   7.942   6.813   9.086 -0.5537 -0.0118 -0.1075
23783SOL    HW178399   7.969   6.864   9.010  1.2148  0.8650  1.0343
23783SOL    HW278400   8.023   6.797   9.134 -1.8518  1.7780  2.9617
23784SOL     OW78401   0.093   6.168   6.964  0.1276 -0.2687  0.0399
23784SOL    HW178402   0.041   6.202   6.891  1.6208  0.2898 -0.7930
23784SOL    HW278403   0.061   6.216   7.040  0.1287  0.8421 -0.6331
23785SOL     OW78404   0.405   5.259   5.342 -0.2843  0.2510  0.3433
23785SOL    HW178405   0.411   5.170   5.375 -2.3477 -0.0567  0.0450
23785SOL    HW278406   0.452   5.312   5.407  0.0962 -0.9245  1.0537
23786SOL     OW78407   2.853   1.010   2.963 -0.0117  0.1135  0.2808
23786SOL    HW178408   2.917   0.953   3.007 -0.8263 -0.0577  1.2704
23786SOL    HW278409   2.810   1.057   3.034  0.9895  2.4025 -0.5155
23787SOL     OW78410   2.460   4.149   3.505  0.0242 -0.4271  0.3930
23787SOL    HW178411   2.367   4.162   3.485  0.0107 -0.2168  0.5929
23787SOL    HW278412   2.504   4.150   3.420  0.0881  1.3420  0.4091
23788SOL     OW78413  10.004   3.602   6.302 -0.0031  0.0701 -0.4177
23788SOL    HW178414  10.020   3.551   6.382  0.4429 -0.4754 -0.8443
23788SOL    HW278415  10.047   3.552   6.233 -0.8866  0.2258 -1.0988
23789SOL     OW78416   6.813   7.999   1.436 -0.8517 -0.1790 -0.2586
23789SOL    HW178417   6.830   7.913   1.476  0.9236  0.1464 -0.2249
23789SOL    HW278418   6.731   7.987   1.388 -1.0431 -1.6685  0.3700
23790SOL     OW78419   3.993   2.591  11.680  0.0659  0.1845 -0.3059
23790SOL    HW178420   3.948   2.529  11.737  2.0996 -2.1371 -1.0339
23790SOL    HW278421   4.085   2.582  11.704  0.4150  3.6676  0.1462
23791SOL     OW78422   3.113   0.453   7.525 -0.2620  0.5433  0.3574
23791SOL    HW178423   3.134   0.515   7.595 -0.9359  1.6118 -0.3356
23791SOL    HW278424   3.197   0.423   7.493  0.0732  0.7628  1.0113
23792SOL     OW78425   0.375   3.303  11.998 -0.2610  0.2674 -0.2949
23792SOL    HW178426   0.403   3.311  12.089  0.3619 -0.6329 -0.3833
23792SOL    HW278427   0.453   3.271  11.952 -0.7092  0.2236 -1.0504
23793SOL     OW78428   0.433   3.280   5.016 -0.5539 -0.3061 -0.4134
23793SOL    HW178429   0.422   3.312   4.926  0.1745 -0.3083 -0.5064
23793SOL    HW278430   0.522   3.303   5.039 -0.2896 -1.4884 -0.1681
23794SOL     OW78431  10.391   3.012   2.744  0.1120  0.1668 -0.3738
23794SOL    HW178432  10.457   3.075   2.772  0.4183  0.2459 -1.2721
23794SOL    HW278433  10.308   3.057   2.758  0.2062  0.0063  0.9175
23795SOL     OW78434   9.850   6.638   1.852  0.0245  0.2452  0.1171
23795SOL    HW178435   9.827   6.704   1.787  0.3367 -0.6540 -0.9411
23795SOL    HW278436   9.774   6.632   1.909 -0.6233  0.4263 -0.7138
23796SOL     OW78437   1.122   6.096   9.107  0.1016 -0.4057  0.8585
23796SOL    HW178438   1.159   6.114   9.194  0.1755  0.3057  0.6845
23796SOL    HW278439   1.171   6.020   9.076  0.7085 -0.1023  1.0607
23797SOL     OW78440   7.112  11.500   3.884 -0.1928 -0.4688  0.6142
23797SOL    HW178441   7.018  11.488   3.871 -0.0375  0.5060 -2.1780
23797SOL    HW278442   7.125  11.594   3.887  0.6695 -0.5938  1.5456
23798SOL     OW78443  11.619   0.304  10.281 -0.0125 -0.1726  1.1062
23798SOL    HW178444  11.525   0.314  10.296 -0.1028 -1.0012  1.0881
23798SOL    HW278445  11.635   0.356  10.202 -0.0411  1.8116  2.3223
23799SOL     OW78446   0.712  12.403   2.482  0.2477  0.0076 -0.0064
23799SOL    HW178447   0.747  12.390   2.393 -0.6956  1.4499 -0.6248
23799SOL    HW278448   0.628  12.357   2.482  0.6127 -0.6769  0.4201
23800SOL     OW78449   4.957   9.327  11.187 -0.5129 -0.5400  0.1164
23800SOL    HW178450   4.940   9.264  11.257  1.2047 -0.8564  0.2825
23800SOL    HW278451   5.021   9.388  11.225  1.0272 -1.1417 -1.3878
23801SOL     OW78452   8.491   0.186   9.206  0.3232 -0.2631  0.6688
23801SOL    HW178453   8.515   0.102   9.245  0.0617 -1.6455 -1.9059
23801SOL    HW278454   8.515   0.177   9.114 -0.6289  2.1393  0.1242
23802SOL     OW78455   1.079   9.554   3.914  0.7197 -0.3961 -0.3880
23802SOL    HW178456   1.122   9.608   3.847 -0.7479 -3.3536 -4.0831
23802SOL    HW278457   0.986   9.565   3.897  0.3543 -3.3839 -0.8645
23803SOL     OW78458   1.482   3.574   5.815  0.1998 -0.2504  0.8088
23803SOL    HW178459   1.496   3.658   5.771 -0.7663  0.0444  1.0479
23803SOL    HW278460   1.532   3.581   5.896 -0.2381  0.2742  1.0364
23804SOL     OW78461   1.758  12.559  11.394  0.1804 -0.1327 -0.0806
23804SOL    HW178462   1.740  12.569  11.301  0.3591  3.1826  0.1115
23804SOL    HW278463   1.672  12.564  11.436  0.2060 -0.2528 -0.0146
23805SOL     OW78464   0.623   9.670   7.852  0.1582 -0.3903 -0.4988
23805SOL    HW178465   0.586   9.661   7.940 -3.0063  0.5729 -1.5795
23805SOL    HW278466   0.687   9.599   7.846  1.2461  0.1223  2.8635
23806SOL     OW78467   8.448   2.601   5.271  0.3412  0.4590  0.4430
23806SOL    HW178468   8.366   2.632   5.309  0.9309  2.5626  0.1379
23806SOL    HW278469   8.510   2.601   5.345  0.7381  1.6021  0.1248
23807SOL     OW78470   9.046   2.191   0.555 -0.3886  0.1081 -0.3490
23807SOL    HW178471   9.100   2.268   0.575  0.3378 -0.4751 -0.0109
23807SOL    HW278472   9.104   2.133   0.506 -0.7622 -0.4589 -0.1274
23808SOL     OW78473   4.933   0.984   4.275  0.5115 -0.1571 -0.2237
23808SOL    HW178474   4.937   1.039   4.197  1.4842 -0.3648 -0.3314
23808SOL    HW278475   5.024   0.967   4.297  0.2858 -2.7545 -0.9273
23809SOL     OW78476   0.712   8.702   0.956 -0.4671  0.0149  0.4139
23809SOL    HW178477   0.688   8.702   0.863 -0.8679 -0.5182  0.5089
23809SOL    HW278478   0.703   8.794   0.983 -0.4099  0.1624 -0.0570
23810SOL     OW78479   7.710   2.126   2.023  0.7188  0.3832  0.1422
23810SOL    HW178480   7.667   2.041   2.016  1.3328  0.0946 -0.1894
23810SOL    HW278481   7.785   2.111   2.079  0.4845  0.8540  0.5975
23811SOL     OW78482   1.690   9.506   0.868 -0.6197 -0.3316 -0.3729
23811SOL    HW178483   1.603   9.526   0.902 -0.1955 -0.0028  0.5347
23811SOL    HW278484   1.674   9.446   0.794 -1.5040 -2.0265  1.1219
23812SOL     OW78485   3.181   1.940   6.660  0.8229  0.3745 -0.3224
23812SOL    HW178486   3.227   1.859   6.683 -0.0088 -0.0200 -0.0239
23812SOL    HW278487   3.180   1.991   6.741 -0.1823 -0.0743 -0.0406
23813SOL     OW78488   5.146   7.049   2.719 -0.0365 -0.6160 -1.0560
23813SOL    HW178489   5.151   7.012   2.631  1.0468  2.2293 -2.3136
23813SOL    HW278490   5.237   7.059   2.747 -0.3236  0.0259 -0.3041
23814SOL     OW78491   4.500   8.570   4.957  0.3868  0.2647 -0.2042
23814SOL    HW178492   4.511   8.587   5.050 -1.3115  0.8616 -0.0820
23814SOL    HW278493   4.460   8.483   4.952 -1.2514  0.9998 -0.2604
23815SOL     OW78494   0.077  10.500   9.565  0.0189 -0.4521 -0.1787
23815SOL    HW178495   0.156  10.454   9.592  1.9346  1.9872 -1.2296
23815SOL    HW278496   0.056  10.558   9.638  0.2529  0.1571 -0.5900
23816SOL     OW78497   0.017   0.221   0.396  0.3591 -0.2874 -0.9010
23816SOL    HW178498   0.093   0.279   0.386 -0.0357  0.0240 -2.3492
23816SOL    HW278499  -0.051   0.277   0.434  0.4909 -0.2625 -0.6971
23817SOL     OW78500  10.536   3.180   2.894 -0.2224  0.4875 -0.4487
23817SOL    HW178501  10.616   3.229   2.873 -0.4967  0.2037 -2.4096
23817SOL    HW278502  10.472   3.248   2.914  0.6366  0.6969  1.8393
23818SOL     OW78503   0.188   2.691   9.239 -0.2082  0.0949  0.3434
23818SOL    HW178504   0.196   2.785   9.224 -0.6372  0.0039 -0.5393
23818SOL    HW278505   0.097   2.679   9.268 -0.6707 -0.2144 -1.1350
23819SOL     OW78506   9.749   8.572   3.841 -0.0831 -0.5521 -0.2110
23819SOL    HW178507   9.780   8.609   3.758 -0.2025  0.7813  0.3108
23819SOL    HW278508   9.814   8.601   3.905  0.6308 -2.5035  0.0359
23820SOL     OW78509   2.051   0.202   4.475 -0.0600  0.7725 -0.3203
23820SOL    HW178510   1.999   0.198   4.555  1.4030  1.1431  0.7071
23820SOL    HW278511   2.005   0.146   4.413  0.4971 -2.3884  1.8447
23821SOL     OW78512   1.489   8.764   2.964 -0.2421  1.0033  0.3471
23821SOL    HW178513   1.452   8.696   3.022  0.2024  0.6696  0.2440
23821SOL    HW278514   1.457   8.740   2.877 -2.3457  2.4741  0.6393
23822SOL     OW78515  11.129   0.830   4.130 -0.2608 -0.1234  0.2732
23822SOL    HW178516  11.129   0.859   4.221 -1.3679 -0.1459  0.3004
23822SOL    HW278517  11.099   0.739   4.134  1.1470 -0.6289  0.0034
23823SOL     OW78518  10.967   6.617   0.172 -0.0688 -0.1898 -0.0306
23823SOL    HW178519  10.995   6.548   0.231 -0.2925 -0.5266 -0.3117
23823SOL    HW278520  10.888   6.652   0.212  0.2512  0.1594  0.3043
23824SOL     OW78521   0.582  11.892   5.905  0.2405  0.2339  0.6793
23824SOL    HW178522   0.644  11.826   5.874 -1.2288 -1.1020  0.4974
23824SOL    HW278523   0.586  11.884   6.001  0.4132  0.2291  0.6737
23825SOL     OW78524  11.134  10.687   1.672 -0.1140 -0.1617  0.2485
23825SOL    HW178525  11.224  10.720   1.673 -0.2088  0.1202 -0.4986
23825SOL    HW278526  11.108  10.690   1.580 -1.4648  1.3278  0.6339
23826SOL     OW78527  10.177   0.933  10.064 -0.5086  0.1435  0.1153
23826SOL    HW178528  10.117   0.885  10.006 -0.3643  0.4159 -0.2631
23826SOL    HW278529  10.147   0.910  10.152  0.7597 -2.2128  0.0163
23827SOL     OW78530   0.391  11.662   5.605 -0.3484 -0.0478  0.4434
23827SOL    HW178531   0.400  11.643   5.698 -1.0968 -1.6341  0.2194
23827SOL    HW278532   0.377  11.577   5.563 -2.2107  0.7947 -0.8465
23828SOL     OW78533  10.883   2.950   9.182  0.0412  0.1025 -0.1498
23828SOL    HW178534  10.866   2.971   9.090 -0.0977 -2.1157 -0.6787
23828SOL    HW278535  10.879   2.855   9.186  1.8811  0.0455  1.8095
23829SOL     OW78536  11.084   1.126   9.418  0.2808 -0.5168 -0.7213
23829SOL    HW178537  11.157   1.096   9.365  0.6351 -0.1003 -0.4781
23829SOL    HW278538  11.061   1.212   9.382  0.9693  0.0813  0.2090
23830SOL     OW78539  11.436   5.003   0.227  0.0319  0.0527 -0.4438
23830SOL    HW178540  11.341   4.991   0.227 -0.1610  1.4356 -0.8550
23830SOL    HW278541  11.452   5.064   0.155  1.2605 -0.3233 -0.5063
23831SOL     OW78542   1.601   5.726  11.292  0.1206 -0.0882 -0.4956
23831SOL    HW178543   1.524   5.771  11.327 -0.1192 -1.1600  0.3801
23831SOL    HW278544   1.643   5.792  11.236 -0.1504  1.2813  0.8411
23832SOL     OW78545   7.431   5.594   2.311 -0.5724 -0.1277 -0.4996
23832SOL    HW178546   7.365   5.526   2.297 -1.5432  0.6096  0.3555
23832SOL    HW278547   7.399   5.644   2.386 -0.2109  1.6688 -1.4789
23833SOL     OW78548   4.182   9.482  11.838 -0.5876 -0.3198  0.4251
23833SOL    HW178549   4.277   9.468  11.840 -0.7997 -2.0401  0.0246
23833SOL    HW278550   4.169   9.542  11.764  0.2457  0.7192  1.0828
23834SOL     OW78551   4.787  11.581   7.896  0.2375  0.2232 -0.0919
23834SOL    HW178552   4.739  11.616   7.971  0.2067 -0.1879  0.0837
23834SOL    HW278553   4.722  11.532   7.846  0.1354  0.9499 -0.6851
23835SOL     OW78554   7.545  10.061   9.125 -0.1977  0.4487  0.2222
23835SOL    HW178555   7.568  10.152   9.146 -0.1548 -0.0247  2.4668
23835SOL    HW278556   7.608  10.008   9.174  0.5805 -0.8606 -2.0111
23836SOL     OW78557   7.468  10.421   1.142  1.2737 -0.5932  0.1892
23836SOL    HW178558   7.538  10.448   1.202  1.5028  0.8470 -0.6746
23836SOL    HW278559   7.499  10.448   1.056 -0.4488  0.3318 -0.1860
23837SOL     OW78560  11.354  10.918   7.249  0.1615 -0.9281  0.7048
23837SOL    HW178561  11.274  10.936   7.199  0.6024 -1.5496 -0.2552
23837SOL    HW278562  11.384  11.004   7.277  0.4159 -0.4521 -0.9376
23838SOL     OW78563  11.230  10.479   8.890 -0.5489 -0.0245  0.5348
23838SOL    HW178564  11.196  10.544   8.951 -0.0954  0.4143  0.3248
23838SOL    HW278565  11.183  10.498   8.808 -0.5203 -0.0555  0.5110
23839SOL     OW78566  11.197   6.925   7.569  0.3118 -0.2933 -0.3324
23839SOL    HW178567  11.117   6.889   7.532  0.7646 -1.5786 -0.0983
23839SOL    HW278568  11.168   6.992   7.630 -0.5122  0.5529 -1.6023
23840SOL     OW78569   6.786   7.001   3.966  0.0565  0.2834 -0.4093
23840SOL    HW178570   6.836   6.932   3.922  0.8248  0.8610 -0.4647
23840SOL    HW278571   6.844   7.031   4.036  0.9755  2.7724 -2.0775
23841SOL     OW78572   9.019  11.093   3.285 -0.5631 -0.0245  0.2667
23841SOL    HW178573   9.025  11.026   3.354  0.6476 -1.7622 -1.4269
23841SOL    HW278574   8.936  11.073   3.240 -0.0295 -0.6690 -0.4645
23842SOL     OW78575   2.655   5.262   2.988  0.1047  0.7490 -0.5178
23842SOL    HW178576   2.631   5.353   3.005  0.0141  0.9551 -1.6767
23842SOL    HW278577   2.720   5.266   2.918  0.1905 -0.0677 -0.4996
23843SOL     OW78578   8.995   9.781   2.861  0.8136 -0.1500 -0.1156
23843SOL    HW178579   9.085   9.810   2.877  0.7616 -0.3182  0.5137
23843SOL    HW278580   8.977   9.719   2.932 -1.8977  4.3861  3.7346
23844SOL     OW78581  10.072  12.048   8.770  0.0766  0.2554 -0.3084
23844SOL    HW178582   9.998  12.083   8.721 -0.1144  1.9078  1.0954
23844SOL    HW278583  10.088  12.112   8.839  1.6315 -0.9977  0.5540
23845SOL     OW78584   9.655   6.216   7.754 -0.6962  0.7697 -0.0035
23845SOL    HW178585   9.725   6.176   7.806 -1.4027 -0.4004  0.0718
23845SOL    HW278586   9.696   6.231   7.668 -0.4915 -0.4506 -0.1461
23846SOL     OW78587   7.579  10.298   3.976  0.2376  0.3169  0.0934
23846SOL    HW178588   7.543  10.232   4.035  0.2538  0.6879  0.5201
23846SOL    HW278589   7.505  10.323   3.920 -0.5279  1.9188  1.7173
23847SOL     OW78590   7.121   1.056   5.942 -0.4995  0.7334 -0.0229
23847SOL    HW178591   7.186   1.016   6.000  1.4496  2.3512 -0.9478
23847SOL    HW278592   7.049   1.081   6.000  0.4584  0.4244  1.3344
23848SOL     OW78593   3.720   5.710   1.272  0.0382  0.1739  0.4698
23848SOL    HW178594   3.739   5.730   1.180  0.4791 -0.2231  0.4667
23848SOL    HW278595   3.625   5.711   1.278  0.0192  0.9913  0.1920
23849SOL     OW78596   0.323  11.971   5.903 -0.5874 -0.5177  0.1218
23849SOL    HW178597   0.330  12.060   5.869 -0.4793 -0.2876  0.7410
23849SOL    HW278598   0.409  11.932   5.887 -1.3973 -1.4125 -2.5920
23850SOL     OW78599  11.508  12.330   2.184 -0.0489 -1.0636 -0.2735
23850SOL    HW178600  11.521  12.412   2.233  0.8167 -1.2476 -0.1810
23850SOL    HW278601  11.431  12.347   2.130  0.7267  0.1841 -1.0328
23851SOL     OW78602  12.442   2.274   0.633 -0.1525  0.3619 -0.3656
23851SOL    HW178603  12.497   2.352   0.634 -0.6299  0.7047 -0.2596
23851SOL    HW278604  12.411   2.269   0.542 -0.8892  0.8539 -0.1516
23852SOL     OW78605  11.074   0.135   8.008  0.7500  0.1354  0.6453
23852SOL    HW178606  11.101   0.047   7.981 -0.2095  0.3095 -1.0798
23852SOL    HW278607  11.032   0.123   8.093 -2.1743 -1.6593 -0.8911
23853SOL     OW78608   1.174   4.405   1.544  0.5736 -0.2300 -0.2460
23853SOL    HW178609   1.128   4.398   1.627  1.9795 -1.0662  0.5038
23853SOL    HW278610   1.257   4.359   1.558  1.3620  0.6433 -1.7349
23854SOL     OW78611   2.733   1.696  11.545  0.0220 -0.6483  0.4127
23854SOL    HW178612   2.714   1.789  11.555 -0.9443 -1.0407  2.9992
23854SOL    HW278613   2.650   1.657  11.518  0.7465 -0.6606 -2.0342
23855SOL     OW78614   5.422   3.792   0.256 -0.1863 -0.2997  0.3429
23855SOL    HW178615   5.387   3.822   0.172  1.1415  0.5683  0.0650
23855SOL    HW278616   5.430   3.872   0.309  2.2324 -0.2402  0.0390
23856SOL     OW78617  10.050   9.062   1.917 -0.6007 -0.5076 -0.0784
23856SOL    HW178618  10.087   8.989   1.966  0.4875  0.5880  0.8159
23856SOL    HW278619   9.980   9.024   1.865 -0.9474 -1.9507  1.3735
23857SOL     OW78620  12.166   5.160   4.093  0.3360 -0.2865 -0.1734
23857SOL    HW178621  12.139   5.076   4.130  1.0924 -0.5323 -0.1630
23857SOL    HW278622  12.220   5.137   4.017 -0.6495  0.2074 -1.0520
23858SOL     OW78623   6.000  12.101  10.467 -0.7175 -0.2757 -0.0691
23858SOL    HW178624   5.914  12.140  10.453 -0.5207  0.6586  1.1252
23858SOL    HW278625   5.982  12.009  10.488 -1.4892  0.0765  0.8572
23859SOL     OW78626   1.501   1.944   9.275  0.1993  0.1995 -0.5025
23859SOL    HW178627   1.436   2.008   9.244 -0.4348 -1.4106 -2.8215
23859SOL    HW278628   1.525   1.895   9.196  1.3403 -1.8016  0.9948
23860SOL     OW78629   2.487   4.128   6.768 -0.1066 -0.2427  0.3367
23860SOL    HW178630   2.460   4.136   6.677  1.0962 -2.0649 -0.2428
23860SOL    HW278631   2.455   4.043   6.796  1.3334 -0.6404  0.9153
23861SOL     OW78632   3.739   1.385  10.213  0.3727 -0.2386 -0.0220
23861SOL    HW178633   3.790   1.408  10.291  0.5152  0.3380 -0.2814
23861SOL    HW278634   3.747   1.290  10.206 -0.6290 -0.4592  1.3635
23862SOL     OW78635   0.923   6.184   9.417  0.1868 -0.5602  0.1963
23862SOL    HW178636   0.996   6.127   9.444  1.0304 -0.9811 -2.6719
23862SOL    HW278637   0.964   6.267   9.395 -0.4043 -0.3397 -0.0898
23863SOL     OW78638   7.422   2.808  10.400  0.7807  0.0033  0.4491
23863SOL    HW178639   7.498   2.859  10.373  0.7993 -0.9660 -1.4920
23863SOL    HW278640   7.452   2.717  10.400 -0.2981 -0.3765 -0.2054
23864SOL     OW78641   2.179   1.305   0.627  0.5131  0.3850  0.4614
23864SOL    HW178642   2.207   1.256   0.550 -1.5100  0.6080 -0.4705
23864SOL    HW278643   2.236   1.273   0.698  0.6407 -1.7741 -0.5428
23865SOL     OW78644   7.290   5.747   0.079 -0.7093  0.2736 -0.0593
23865SOL    HW178645   7.301   5.840   0.098  0.7939 -0.1420  1.3277
23865SOL    HW278646   7.315   5.703   0.160 -0.2098 -1.3985 -1.0707
23866SOL     OW78647  10.410   0.591   1.992  0.0593 -0.1318 -0.1648
23866SOL    HW178648  10.474   0.660   1.975 -0.1796  0.3793  0.9219
23866SOL    HW278649  10.414   0.535   1.915  1.2570  0.3214 -0.4538
23867SOL     OW78650  10.613  10.157   2.292  0.4056  0.4890  0.0919
23867SOL    HW178651  10.529  10.123   2.264  0.6830  0.8469 -1.2554
23867SOL    HW278652  10.595  10.246   2.322  0.2264  0.3877  0.2823
23868SOL     OW78653   4.026  10.793  10.422 -0.2510 -0.5066  0.1092
23868SOL    HW178654   4.011  10.815  10.514 -0.3229  0.2424 -0.0707
23868SOL    HW278655   3.938  10.778  10.387 -0.3121  0.2079 -0.0671
23869SOL     OW78656   2.327  11.677   9.421 -0.3842  0.8450  0.7633
23869SOL    HW178657   2.341  11.733   9.497  0.6041 -1.8098  2.6798
23869SOL    HW278658   2.271  11.606   9.453  1.1232 -1.0583 -0.5764
23870SOL     OW78659   0.305  11.889   0.941  0.6541 -0.4768 -0.4787
23870SOL    HW178660   0.368  11.863   0.873  0.3566 -4.2344  0.5004
23870SOL    HW278661   0.225  11.842   0.918 -0.8596  1.6908  0.1078
23871SOL     OW78662  10.031   3.729   9.188 -0.0636  0.2931 -0.1907
23871SOL    HW178663  10.112   3.779   9.199  0.5018 -0.7730  0.6630
23871SOL    HW278664   9.963   3.783   9.229  0.3091  0.9136 -0.3740
23872SOL     OW78665   3.313   2.831  10.471  0.5760 -0.3732  0.0406
23872SOL    HW178666   3.227   2.843  10.431  0.4241  3.2392  1.1078
23872SOL    HW278667   3.295   2.793  10.557 -0.0589  0.7320  0.4178
23873SOL     OW78668   9.634   6.082  11.697  0.2223 -0.1756  0.6086
23873SOL    HW178669   9.610   6.130  11.777  1.1595 -0.9772  1.4018
23873SOL    HW278670   9.640   5.991  11.725 -2.1117 -0.9235 -0.9966
23874SOL     OW78671   9.397   1.652   7.656  0.5984  0.3923 -0.5343
23874SOL    HW178672   9.481   1.695   7.669  1.7401 -2.1974  1.6206
23874SOL    HW278673   9.401   1.618   7.566  1.1481  1.6202 -1.0000
23875SOL     OW78674   4.249   4.559   8.244  0.2160 -0.0501 -0.0658
23875SOL    HW178675   4.333   4.561   8.290 -0.1937 -0.3820  0.7189
23875SOL    HW278676   4.269   4.517   8.161  0.7528 -0.5282  0.2915
23876SOL     OW78677   7.738   5.868   3.851 -0.0393 -0.2081 -0.2963
23876SOL    HW178678   7.697   5.801   3.796  0.8291 -2.2552  1.4160
23876SOL    HW278679   7.826   5.833   3.869  0.5999  1.6153  0.3383
23877SOL     OW78680   5.583   0.568  10.938 -0.0131  1.2290  0.2081
23877SOL    HW178681   5.647   0.567  10.867  1.0312  0.0704  1.1032
23877SOL    HW278682   5.500   0.591  10.896  0.7683  1.6105 -1.1876
23878SOL     OW78683   7.986  10.642  10.183  0.0630 -0.1629 -0.4228
23878SOL    HW178684   7.921  10.592  10.231  0.5711  0.4661  0.9624
23878SOL    HW278685   8.052  10.578  10.156 -0.5512 -0.6192 -0.8408
23879SOL     OW78686   7.935   5.647  10.645 -0.1438  0.1063 -0.1304
23879SOL    HW178687   7.905   5.599  10.722  2.1486 -1.3547 -0.0624
23879SOL    HW278688   7.981   5.723  10.681  0.9363 -0.5822 -0.0313
23880SOL     OW78689   7.933  11.101   0.227 -0.0053 -0.3892 -0.6168
23880SOL    HW178690   7.992  11.139   0.292  0.5915  1.3997 -2.1339
23880SOL    HW278691   7.961  11.139   0.144 -0.7847 -2.5534 -1.9550
23881SOL     OW78692   0.448   1.482   3.774  0.0462  0.1622  0.0689
23881SOL    HW178693   0.460   1.557   3.831 -1.0051  0.0680  0.4491
23881SOL    HW278694   0.365   1.443   3.803 -0.4097 -0.0170 -1.3755
23882SOL     OW78695   5.514   2.588   8.674  0.8491 -0.0424  0.0713
23882SOL    HW178696   5.525   2.527   8.746 -0.3017  1.1237  1.2842
23882SOL    HW278697   5.431   2.633   8.692  1.8388  2.1858 -0.4918
23883SOL     OW78698   4.676  12.425   2.854 -0.1219  0.6416  0.2314
23883SOL    HW178699   4.736  12.359   2.890  0.4705  0.9903 -0.1021
23883SOL    HW278700   4.723  12.508   2.866 -0.0639  0.7962 -1.0259
23884SOL     OW78701  12.420   0.803   9.282 -0.0003 -1.2318 -0.2843
23884SOL    HW178702  12.498   0.777   9.233 -1.0430 -2.3259 -1.4369
23884SOL    HW278703  12.428   0.757   9.366  0.1781 -2.0720 -0.7434
23885SOL     OW78704  10.727   0.920  11.233 -0.1751 -0.2753  0.2797
23885SOL    HW178705  10.763   1.009  11.239 -0.2839 -0.3015  1.4706
23885SOL    HW278706  10.789   0.866  11.281 -0.6161 -0.6884  0.3867
23886SOL     OW78707   1.554   4.909   5.771 -0.0880  0.0653 -0.0203
23886SOL    HW178708   1.501   4.903   5.851  1.0769  1.3923  0.8937
23886SOL    HW278709   1.625   4.968   5.793  1.4165 -1.1119 -1.4472
23887SOL     OW78710   8.547   8.429   5.561 -0.5692  0.0797  0.0915
23887SOL    HW178711   8.542   8.519   5.592 -1.8117 -0.5448  1.8549
23887SOL    HW278712   8.456   8.399   5.557 -0.1314 -1.5867  1.1667
23888SOL     OW78713   3.729   1.632   2.667  0.1075  0.0067 -0.3180
23888SOL    HW178714   3.792   1.703   2.673 -0.7577  0.8623 -0.9299
23888SOL    HW278715   3.699   1.618   2.757  1.1388 -0.4029 -0.0264
23889SOL     OW78716   2.744   4.949  12.286 -0.1636  0.2989  0.5998
23889SOL    HW178717   2.788   4.917  12.365 -1.4862 -0.9929  0.8733
23889SOL    HW278718   2.750   5.044  12.292  3.2404  0.2446  0.1904
23890SOL     OW78719  10.330   4.496   9.787 -0.0959 -0.4225  0.4622
23890SOL    HW178720  10.363   4.448   9.863  1.2483  0.5688  0.5595
23890SOL    HW278721  10.308   4.583   9.821  0.5033  0.0267 -0.2474
23891SOL     OW78722   4.339  11.256  10.149  0.1698  0.2906  0.0398
23891SOL    HW178723   4.316  11.164  10.162 -1.7810  0.5541 -1.2398
23891SOL    HW278724   4.304  11.301  10.226 -0.4842  0.2105 -0.2130
23892SOL     OW78725   8.022  10.911   0.537 -0.3942  0.1017 -0.2608
23892SOL    HW178726   8.069  10.887   0.457  0.8134  1.1501  0.1047
23892SOL    HW278727   8.086  10.898   0.607 -0.8745  0.8873  0.3319
23893SOL     OW78728  12.467   4.191   4.044 -0.3712  0.2840 -0.2168
23893SOL    HW178729  12.544   4.158   3.999 -1.1395 -1.9956  0.0156
23893SOL    HW278730  12.481   4.168   4.136 -1.4527 -0.4898 -0.2247
23894SOL     OW78731   8.346   8.297  10.388  0.9560  0.0150  0.3636
23894SOL    HW178732   8.365   8.368  10.326  2.4005  0.2649  1.0301
23894SOL    HW278733   8.410   8.229  10.366  1.4254  0.0697  1.4747
23895SOL     OW78734   2.075  10.815   0.691  0.3486 -0.6155 -0.1092
23895SOL    HW178735   2.112  10.759   0.759 -1.7716 -0.3712  1.3427
23895SOL    HW278736   1.983  10.788   0.684  0.2741 -0.0316 -2.2958
23896SOL     OW78737   2.212   3.608   8.289 -0.0414 -0.2390  0.0469
23896SOL    HW178738   2.292   3.593   8.340  0.8022 -1.3171 -1.5113
23896SOL    HW278739   2.143   3.612   8.355  1.4041  2.1364  1.5703
23897SOL     OW78740   0.380   3.324   0.035 -0.0439 -0.3170 -0.2892
23897SOL    HW178741   0.419   3.328   0.122  1.0652  0.0914 -0.7799
23897SOL    HW278742   0.419   3.247  -0.006  0.2209  0.0593 -0.7655
23898SOL     OW78743   5.746   8.518   4.065  1.0987 -0.2456  0.4423
23898SOL    HW178744   5.716   8.557   3.983  0.5605  2.2604  1.7200
23898SOL    HW278745   5.821   8.465   4.040  0.1781 -0.6012 -1.8259
23899SOL     OW78746  10.336   4.601  11.981  0.1588  0.2217 -0.3670
23899SOL    HW178747  10.346   4.626  11.889  1.3201  0.2158 -0.2641
23899SOL    HW278748  10.359   4.508  11.983 -2.1804 -0.4184 -0.4226
23900SOL     OW78749   7.419   2.845   6.217  0.3818 -0.6641  0.5118
23900SOL    HW178750   7.417   2.820   6.309 -0.1534  0.3544  0.7877
23900SOL    HW278751   7.328   2.866   6.195  0.5804 -0.4179 -0.1071
23901SOL     OW78752   4.647   6.336   4.474 -0.5141  0.5951 -0.1009
23901SOL    HW178753   4.578   6.399   4.494 -0.2001  0.8834  0.0977
23901SOL    HW278754   4.603   6.266   4.427 -0.5985  1.6798 -1.7024
23902SOL     OW78755   6.912   7.652   0.774  0.7318 -0.1172 -0.1354
23902SOL    HW178756   6.905   7.599   0.695 -1.3260  0.1281 -0.1725
23902SOL    HW278757   6.949   7.735   0.744 -0.7211  0.2483 -1.0189
23903SOL     OW78758   1.953   3.515   6.087 -0.6268  0.3243  0.2813
23903SOL    HW178759   1.932   3.602   6.122  1.9452  1.4866 -0.8134
23903SOL    HW278760   1.909   3.512   6.002  0.4301  1.1966 -0.3237
23904SOL     OW78761  11.085   6.486   3.951  0.5326 -0.3490  0.0493
23904SOL    HW178762  11.015   6.474   4.014  0.3117 -0.3069 -0.1876
23904SOL    HW278763  11.164   6.498   4.004  0.2211  0.5430  0.3245
23905SOL     OW78764   9.993   0.488   4.332 -0.2631  0.4778  0.1192
23905SOL    HW178765   9.925   0.531   4.280  0.7966  1.3599 -0.5838
23905SOL    HW278766   9.980   0.519   4.421 -2.5037 -1.5365  0.5989
23906SOL     OW78767  12.221  10.615   0.680 -0.4815 -0.8163  0.5913
23906SOL    HW178768  12.270  10.669   0.741 -0.4092 -1.4098  1.0678
23906SOL    HW278769  12.133  10.653   0.680  0.6868  2.6131 -3.0523
23907SOL     OW78770   9.439   5.020   5.251 -0.2691  0.1737 -0.2650
23907SOL    HW178771   9.425   5.108   5.216  0.5923 -0.1715 -1.5846
23907SOL    HW278772   9.370   5.008   5.316 -1.3992  1.2151 -1.2198
23908SOL     OW78773   8.071   2.311   2.077  0.1238 -0.7459 -0.3392
23908SOL    HW178774   8.057   2.284   1.986  1.1287 -0.8860 -0.4670
23908SOL    HW278775   8.055   2.406   2.076  1.0922 -0.5743 -0.8904
23909SOL     OW78776   6.114  10.857   8.227  0.3399  0.3944 -0.3403
23909SOL    HW178777   6.047  10.803   8.186 -1.3607  1.6500  0.6652
23909SOL    HW278778   6.120  10.934   8.171 -0.5899  1.2255  0.6584
23910SOL     OW78779   6.572   1.283  12.134  0.2077  0.3237  0.2053
23910SOL    HW178780   6.545   1.203  12.178 -1.0883 -0.7641 -2.3691
23910SOL    HW278781   6.501   1.345  12.152  0.5162  0.4593  1.0088
23911SOL     OW78782   1.607  11.330   0.342  0.0610  0.1999  0.0365
23911SOL    HW178783   1.559  11.249   0.358 -0.0256  0.0531 -0.9157
23911SOL    HW278784   1.670  11.334   0.414  0.0293 -0.6864  0.1329
23912SOL     OW78785   2.499  11.146   9.555  0.1919  0.1871 -0.1437
23912SOL    HW178786   2.551  11.194   9.491  0.6035  0.9707  0.7510
23912SOL    HW278787   2.423  11.201   9.573  0.2231  0.1125  0.2416
23913SOL     OW78788   6.175  12.528  12.436  0.9000  0.1849 -0.4214
23913SOL    HW178789   6.194  12.619  12.459  0.5183  0.4049 -0.9436
23913SOL    HW278790   6.221  12.514  12.353  0.2787  0.1721 -0.7745
23914SOL     OW78791   1.959  11.558   6.582 -0.2220 -0.5286 -0.0842
23914SOL    HW178792   1.996  11.474   6.552 -1.4178 -1.4726  0.9901
23914SOL    HW278793   1.891  11.534   6.644 -2.2397  1.1661 -1.4950
23915SOL     OW78794   7.686  11.374  11.412 -0.7640  0.4631 -0.7292
23915SOL    HW178795   7.771  11.416  11.398 -0.0566 -0.3035  1.0263
23915SOL    HW278796   7.636  11.437  11.463 -0.5630  0.1594 -0.1505
23916SOL     OW78797   6.381  10.934   3.252 -0.3238  0.3257 -0.0633
23916SOL    HW178798   6.382  11.017   3.301 -0.3489 -0.2298  0.9041
23916SOL    HW278799   6.472  10.919   3.227 -0.1614  0.1508  0.6227
23917SOL     OW78800   2.538  10.973  10.982 -0.0518 -0.0070 -0.3040
23917SOL    HW178801   2.529  11.008  10.893 -1.2299  1.0500  0.2056
23917SOL    HW278802   2.529  10.879  10.971 -0.4349  0.1232 -1.2895
23918SOL     OW78803   2.907   9.156   1.674  0.2136  0.1209 -0.1344
23918SOL    HW178804   2.875   9.078   1.719 -0.0716  0.4139  0.1811
23918SOL    HW278805   2.982   9.125   1.624 -0.0329 -0.3986 -0.1913
23919SOL     OW78806   0.380   6.128   8.328  0.1807  0.1619  0.5015
23919SOL    HW178807   0.369   6.198   8.264 -0.4949  0.5443  1.0224
23919SOL    HW278808   0.402   6.051   8.275  1.6026  0.8965 -0.0150
23920SOL     OW78809  12.498   1.528   4.962 -0.3531 -0.5265  0.1151
23920SOL    HW178810  12.505   1.551   4.869 -1.2847 -2.2958 -0.4271
23920SOL    HW278811  12.421   1.472   4.968 -0.9453  0.3910  2.1573
23921SOL     OW78812   2.508   7.899   4.615  0.3678  0.4225 -0.2612
23921SOL    HW178813   2.473   7.852   4.540 -0.0924 -0.2905  0.3891
23921SOL    HW278814   2.589   7.938   4.583  1.5329 -1.9989 -0.4470
23922SOL     OW78815   1.265  10.182   6.819  0.0486 -0.2717 -0.1856
23922SOL    HW178816   1.183  10.190   6.867 -0.4979 -2.8285 -0.5361
23922SOL    HW278817   1.239  10.141   6.736  1.4101  0.9301 -1.2461
23923SOL     OW78818   1.680   6.366  11.414 -0.5154  0.2620  0.1797
23923SOL    HW178819   1.659   6.459  11.412 -2.4028 -0.1382 -0.9099
23923SOL    HW278820   1.663   6.340  11.505 -0.7377  0.8170  0.3039
23924SOL     OW78821   8.202   0.503   7.384 -0.0534  0.0077  0.2971
23924SOL    HW178822   8.212   0.516   7.478  1.1327 -1.1964  0.3781
23924SOL    HW278823   8.178   0.411   7.375 -0.1136  0.1031 -0.5704
23925SOL     OW78824   5.408   4.812   2.849  0.1399  0.0387  0.2491
23925SOL    HW178825   5.454   4.871   2.909  0.3324 -1.1024  1.2502
23925SOL    HW278826   5.329   4.788   2.896  0.3544 -0.9678  0.1078
23926SOL     OW78827   5.934   4.470  11.728 -0.4749 -0.2097  0.0357
23926SOL    HW178828   5.876   4.494  11.801 -0.9302 -1.9779  0.3056
23926SOL    HW278829   6.015   4.441  11.770 -0.2816 -0.0568 -0.2293
23927SOL     OW78830  11.186   8.182   4.712  0.9066 -0.2693  0.3656
23927SOL    HW178831  11.249   8.223   4.653 -1.0668 -0.7753 -2.2984
23927SOL    HW278832  11.168   8.249   4.778  2.1966  0.8599 -0.3649
23928SOL     OW78833   9.398  11.993   4.238 -0.0288 -0.5196 -0.0221
23928SOL    HW178834   9.437  12.044   4.309 -0.7059 -0.3380  0.2346
23928SOL    HW278835   9.467  11.934   4.209  0.1957 -0.7319  0.9218
23929SOL     OW78836   7.662   3.794   4.754  0.2015 -0.1517  0.0405
23929SOL    HW178837   7.711   3.713   4.739  0.9917  0.4483 -0.7152
23929SOL    HW278838   7.730   3.860   4.768 -0.4435  0.2347  1.5027
23930SOL     OW78839   7.641   5.798   7.850 -0.5810 -0.0777 -0.1444
23930SOL    HW178840   7.581   5.728   7.879 -0.0473 -0.7986 -0.7326
23930SOL    HW278841   7.724   5.776   7.892 -0.3636  0.0954 -0.4853
23931SOL     OW78842   2.478   3.304   2.403  0.0221 -0.0722 -0.3453
23931SOL    HW178843   2.427   3.339   2.476  2.3742  0.4253  1.1767
23931SOL    HW278844   2.472   3.209   2.413 -0.5913 -0.0176 -0.1747
23932SOL     OW78845   2.354   7.077   2.967 -0.2438  0.3608  0.2808
23932SOL    HW178846   2.387   7.098   3.054  0.2394  0.1471  0.1513
23932SOL    HW278847   2.259   7.087   2.974 -0.1439  1.0681  0.6304
23933SOL     OW78848   9.391  12.585   3.819 -0.2797 -0.6100 -0.5789
23933SOL    HW178849   9.339  12.523   3.768  0.5715 -0.7880 -1.2606
23933SOL    HW278850   9.466  12.604   3.763  0.4711 -0.4839  0.4429
23934SOL     OW78851   7.565   8.584   3.600  0.0389 -0.1886  0.1958
23934SOL    HW178852   7.511   8.524   3.652  0.9451 -0.9217  0.3095
23934SOL    HW278853   7.601   8.529   3.530 -1.2984  0.8051 -1.3570
23935SOL     OW78854   7.844   8.967   0.304 -0.2654 -0.1543 -0.0147
23935SOL    HW178855   7.934   8.975   0.272  0.6222  2.6284  2.6505
23935SOL    HW278856   7.794   8.940   0.227  2.6971 -1.2012 -1.7701
23936SOL     OW78857   4.062  12.247   9.526 -0.3284 -0.5949  0.0429
23936SOL    HW178858   4.109  12.202   9.598 -1.9409  0.5126  1.8804
23936SOL    HW278859   4.097  12.336   9.527  0.3033 -0.8026 -1.2315
23937SOL     OW78860   9.444  10.746   9.774  0.3296 -0.3123 -0.1036
23937SOL    HW178861   9.418  10.768   9.864  2.3128  0.2816  0.3869
23937SOL    HW278862   9.438  10.650   9.771 -2.5888 -0.2053 -0.3337
23938SOL     OW78863   8.033   0.379  11.969 -0.0629  0.3412 -0.7660
23938SOL    HW178864   7.937   0.385  11.968  0.0227  2.4973 -1.4252
23938SOL    HW278865   8.062   0.443  11.904  1.8460  0.6728  0.3267
23939SOL     OW78866   6.724   8.680   3.640  0.1665 -0.2134  0.0778
23939SOL    HW178867   6.688   8.762   3.675 -0.1695  0.0434 -0.8487
23939SOL    HW278868   6.650   8.619   3.641  0.5196 -0.6583  1.1686
23940SOL     OW78869   9.633   4.476   8.734 -0.2629 -0.2609 -0.0225
23940SOL    HW178870   9.547   4.436   8.722 -0.6348  1.0179 -2.3572
23940SOL    HW278871   9.628   4.521   8.818 -1.2628 -1.5888  0.6538
23941SOL     OW78872   3.841   5.234  11.773 -0.1822  0.3921 -0.3799
23941SOL    HW178873   3.750   5.254  11.751 -0.3017 -0.8982 -1.1059
23941SOL    HW278874   3.835   5.170  11.844  0.1911  1.5674  0.7599
23942SOL     OW78875   9.956   4.233  10.756 -0.1900  0.8135  0.0480
23942SOL    HW178876  10.033   4.289  10.750 -0.1899  0.8423  0.3020
23942SOL    HW278877   9.894   4.271  10.694  0.9537 -0.7950 -2.2208
23943SOL     OW78878   3.057   1.381  11.328 -0.9227  0.0481 -0.4953
23943SOL    HW178879   3.062   1.448  11.397 -0.0500 -0.5167  0.0124
23943SOL    HW278880   3.020   1.304  11.371  2.1985 -1.2386  0.1853
23944SOL     OW78881   1.654   2.366   1.170 -0.2115 -0.2279  0.0937
23944SOL    HW178882   1.643   2.406   1.084  0.8275  1.2154  0.5881
23944SOL    HW278883   1.698   2.433   1.222 -0.9224 -1.0279  1.7953
23945SOL     OW78884   3.493   4.623   2.807 -0.1978  0.1376  0.8587
23945SOL    HW178885   3.478   4.715   2.832  0.5767  0.2625  0.8759
23945SOL    HW278886   3.423   4.604   2.744  0.7746  1.3496 -0.6717
23946SOL     OW78887   5.144   8.877   9.565  0.2319  0.1512  0.0340
23946SOL    HW178888   5.230   8.905   9.533  0.1422 -1.1923 -1.4993
23946SOL    HW278889   5.091   8.866   9.486 -1.4486  1.1512  0.9524
23947SOL     OW78890   6.461  11.863   6.801  0.7498  0.3335 -0.3850
23947SOL    HW178891   6.370  11.837   6.819 -0.0548  2.5474 -0.9466
23947SOL    HW278892   6.485  11.813   6.723 -1.9821  3.5119 -3.6221
23948SOL     OW78893   9.108   7.888   2.092  0.4252  0.8543 -0.3272
23948SOL    HW178894   9.135   7.866   2.181  1.0488  0.3247 -0.6348
23948SOL    HW278895   9.174   7.848   2.036  1.3499  3.1359 -0.9696
23949SOL     OW78896   0.270   3.341   3.129  0.4257  0.2276  0.2336
23949SOL    HW178897   0.205   3.411   3.130 -1.5513 -1.5099  1.2881
23949SOL    HW278898   0.352   3.385   3.150 -0.4248  2.4452 -0.6852
23950SOL     OW78899   0.641  10.883  10.123 -0.1076  0.2340 -0.0921
23950SOL    HW178900   0.581  10.888  10.197 -0.7002 -0.8586 -0.4760
23950SOL    HW278901   0.612  10.806  10.073  1.9454 -0.6710  0.0043
23951SOL     OW78902   4.171   5.985   8.424 -0.7637  0.4431 -0.1656
23951SOL    HW178903   4.250   5.987   8.370  0.7106  0.2030  1.9096
23951SOL    HW278904   4.188   6.047   8.494 -3.1151  1.5953 -0.5221
23952SOL     OW78905   9.823   5.043   9.243  0.2708  0.3612 -0.1051
23952SOL    HW178906   9.742   5.042   9.191 -0.2056  1.3994  0.5845
23952SOL    HW278907   9.835   5.135   9.265  0.9692  0.0480  0.8507
23953SOL     OW78908   4.540  11.961   6.256 -0.2985  0.1228 -0.6641
23953SOL    HW178909   4.484  11.906   6.201  0.6827 -0.9413 -0.6451
23953SOL    HW278910   4.627  11.952   6.218  0.3924 -0.5440  0.9438
23954SOL     OW78911   2.958   9.908  10.322  0.5645  0.4408  0.3236
23954SOL    HW178912   2.964   9.848  10.397  1.4884  0.3089  0.1525
23954SOL    HW278913   2.887   9.872  10.268  0.7296 -0.1760  0.5043
23955SOL     OW78914  12.438  11.808   0.263  0.1028 -0.2213  0.2066
23955SOL    HW178915  12.456  11.850   0.347  0.6643 -0.2318  0.1005
23955SOL    HW278916  12.508  11.742   0.254  0.3882  0.1685 -0.5269
23956SOL     OW78917  12.246  10.520  11.752 -0.5203  0.0960 -0.2319
23956SOL    HW178918  12.263  10.544  11.661  0.1667  1.3424  0.1911
23956SOL    HW278919  12.219  10.603  11.793 -0.4479 -0.3702  0.7749
23957SOL     OW78920   3.403   8.213   5.418 -0.3410  1.0334 -0.4048
23957SOL    HW178921   3.420   8.123   5.392  0.8551  1.2458 -0.4026
23957SOL    HW278922   3.355   8.251   5.345 -0.9452  0.3817 -0.3607
23958SOL     OW78923   3.285  10.911   4.242 -0.3820  0.0639 -0.0886
23958SOL    HW178924   3.294  10.826   4.201 -0.5864  0.7768 -1.6589
23958SOL    HW278925   3.241  10.966   4.177  0.0102  1.4474  0.7565
23959SOL     OW78926   7.072  12.571   2.266 -0.0279  0.3529  0.1523
23959SOL    HW178927   7.041  12.517   2.339 -0.6952  0.0459 -0.3435
23959SOL    HW278928   7.118  12.644   2.307  0.0012 -0.0590  0.8644
23960SOL     OW78929  10.003   7.691   1.792  0.1865 -0.6554 -0.0109
23960SOL    HW178930   9.956   7.765   1.828  0.7654  0.4978 -1.5204
23960SOL    HW278931  10.072   7.672   1.857 -0.1920 -0.1234  0.5566
23961SOL     OW78932   8.849   6.374  12.541  0.3480  0.1920  0.5810
23961SOL    HW178933   8.907   6.333  12.606  0.4100 -0.8435 -0.1109
23961SOL    HW278934   8.782   6.308  12.523 -0.8041  1.2078  1.0285
23962SOL     OW78935   5.392   8.395  10.964  0.1023 -0.4247  0.3680
23962SOL    HW178936   5.305   8.433  10.959 -0.7754 -2.1679  1.2939
23962SOL    HW278937   5.450   8.461  10.925 -1.6694  0.5603 -0.7274
23963SOL     OW78938   7.910   2.603  12.362  0.0204  0.2895 -0.1203
23963SOL    HW178939   7.911   2.639  12.273  0.2491  0.7665  0.0719
23963SOL    HW278940   7.876   2.674  12.416  0.4232  0.1947  0.2604
23964SOL     OW78941   7.565   3.081   2.268 -0.0279  0.5627 -0.0432
23964SOL    HW178942   7.531   3.083   2.179  0.2948  0.3351 -0.1746
23964SOL    HW278943   7.488   3.072   2.323 -0.2954  1.4749 -0.2505
23965SOL     OW78944  12.249   5.649   4.189 -0.0622 -0.1057  0.2659
23965SOL    HW178945  12.208   5.566   4.212 -1.7180  0.7383  0.4805
23965SOL    HW278946  12.284   5.636   4.101 -2.0591 -0.4626 -0.5325
23966SOL     OW78947   7.393   3.070   5.827  0.1718 -0.2611  0.3831
23966SOL    HW178948   7.463   3.009   5.809  0.4633  0.2235 -0.1479
23966SOL    HW278949   7.321   3.044   5.770  0.7765  0.7157 -0.8676
23967SOL     OW78950   4.302  11.290   6.823 -0.4095  0.3428 -0.1988
23967SOL    HW178951   4.384  11.268   6.779 -0.0016  0.5845  0.4358
23967SOL    HW278952   4.269  11.367   6.777 -0.9003 -0.4533 -1.2263
23968SOL     OW78953  10.932   3.345   6.263 -0.7375 -0.1074 -0.6281
23968SOL    HW178954  11.027   3.348   6.266 -0.7602  0.9601 -0.5910
23968SOL    HW278955  10.909   3.259   6.299  0.3076 -1.7507 -3.5737
23969SOL     OW78956   0.398   4.494   3.005 -0.3841 -0.3115 -0.4832
23969SOL    HW178957   0.365   4.507   2.916 -1.9024 -1.2864 -0.1008
23969SOL    HW278958   0.367   4.570   3.054 -0.1721 -0.1346 -0.6250
23970SOL     OW78959   9.271  12.160   2.402 -0.4787  0.5007  0.0606
23970SOL    HW178960   9.189  12.119   2.429 -0.3033  0.2331  0.1937
23970SOL    HW278961   9.245  12.230   2.343 -0.8695  1.0756  0.8997
23971SOL     OW78962  12.094  12.360   2.082 -0.2816  0.4793  0.3515
23971SOL    HW178963  12.064  12.279   2.040  1.2295  0.3337 -0.5297
23971SOL    HW278964  12.074  12.348   2.175  0.2770 -1.0907  0.3042
23972SOL     OW78965   5.264   2.453   4.206  0.9132  0.3221 -0.1240
23972SOL    HW178966   5.335   2.389   4.212  2.4491  2.0313  0.7239
23972SOL    HW278967   5.238   2.469   4.296  0.6763  1.0086 -0.3068
23973SOL     OW78968   8.186   3.887   5.695  0.6833  0.6610 -0.0579
23973SOL    HW178969   8.181   3.896   5.600  2.9098  1.6719 -0.1291
23973SOL    HW278970   8.251   3.951   5.723  0.0176  0.4637  2.1865
23974SOL     OW78971   0.186   2.995   2.440 -0.0622 -0.3469 -0.1205
23974SOL    HW178972   0.219   3.078   2.407 -3.4809  0.9039 -0.7779
23974SOL    HW278973   0.197   2.934   2.367  0.5543  0.0502 -0.3646
23975SOL     OW78974   6.728   2.304   7.511  0.3289  0.1812 -0.2513
23975SOL    HW178975   6.774   2.227   7.477 -0.0969 -1.1516  1.9239
23975SOL    HW278976   6.636   2.288   7.490  0.2186 -0.0426  0.3522
23976SOL     OW78977   8.613   9.848  11.629 -0.0315 -0.1426 -0.6022
23976SOL    HW178978   8.701   9.814  11.611  0.9966  1.7375  0.5630
23976SOL    HW278979   8.588   9.892  11.548 -0.0969 -1.0362 -1.0805
23977SOL     OW78980  11.505  12.191   0.596  0.3815  0.3178 -0.0357
23977SOL    HW178981  11.493  12.177   0.502  2.9601  0.7597 -0.5064
23977SOL    HW278982  11.456  12.271   0.614 -1.3788 -0.5629 -0.6398
23978SOL     OW78983   0.299   0.318   3.146 -0.0459 -0.0945 -0.3235
23978SOL    HW178984   0.218   0.269   3.164 -0.5117  0.3829 -1.0391
23978SOL    HW278985   0.282   0.362   3.063  0.3914  1.2125  0.2451
23979SOL     OW78986   2.883  11.411   7.705  0.5421  0.1306 -0.2001
23979SOL    HW178987   2.872  11.478   7.638  2.3217 -0.7251 -1.4214
23979SOL    HW278988   2.963  11.435   7.751  0.6853 -0.6338 -0.0301
23980SOL     OW78989  12.566   0.386   8.397  0.3633  0.4426 -0.2838
23980SOL    HW178990  12.503   0.340   8.342 -0.6493  0.5752  0.7282
23980SOL    HW278991  12.560   0.478   8.368  0.5750  0.3537 -0.6205
23981SOL     OW78992   7.611   1.331   4.680  0.4619  0.4693  0.0531
23981SOL    HW178993   7.606   1.404   4.618  2.7539  0.4872 -0.1854
23981SOL    HW278994   7.682   1.355   4.739  1.7787 -1.9024 -0.4899
23982SOL     OW78995  10.303  10.113   2.882  0.3255  0.3308 -0.3105
23982SOL    HW178996  10.385  10.068   2.900 -0.7965 -1.5220  0.4638
23982SOL    HW278997  10.242  10.044   2.857 -1.4032  1.4352  0.6393
23983SOL     OW78998   9.911   4.569  12.080 -0.0602 -0.3766 -0.3753
23983SOL    HW178999   9.817   4.584  12.078 -0.1503 -0.7438  0.5791
23983SOL    HW279000   9.929   4.517  12.001 -0.4044  0.9730 -1.3741
23984SOL     OW79001  11.930   2.956   5.545  0.5069  0.4702 -0.3461
23984SOL    HW179002  11.849   2.987   5.585  0.8306  1.7462 -0.6441
23984SOL    HW279003  11.909   2.945   5.452  0.5629  0.4045 -0.3515
23985SOL     OW79004   9.911  11.935   6.615  0.0862  0.0561  0.3776
23985SOL    HW179005   9.881  11.961   6.528 -1.1678 -1.8312  0.1859
23985SOL    HW279006   9.835  11.892   6.654  1.0194 -0.2574  1.9129
23986SOL     OW79007   2.653   0.180   6.984 -0.6540 -0.0678  0.3499
23986SOL    HW179008   2.713   0.134   7.042 -0.8209 -0.8388 -0.0856
23986SOL    HW279009   2.702   0.190   6.902  0.1490  2.3342  1.0382
23987SOL     OW79010   0.665   2.892   9.217 -0.4121  0.2017  0.1780
23987SOL    HW179011   0.606   2.851   9.279  1.1352 -0.4866  1.2641
23987SOL    HW279012   0.715   2.819   9.179 -0.4878  0.7263 -0.9766
23988SOL     OW79013   5.339   9.165   8.058  0.4874  0.0541 -0.0593
23988SOL    HW179014   5.419   9.200   8.098  1.3190 -0.6945 -0.9998
23988SOL    HW279015   5.277   9.157   8.130  1.1471  0.9675  0.6314
23989SOL     OW79016   7.714   2.628  11.457 -0.4213  0.0666 -0.0054
23989SOL    HW179017   7.670   2.687  11.396 -2.2864 -2.2936 -1.0939
23989SOL    HW279018   7.796   2.605  11.413  2.0684  4.2285  1.8910
23990SOL     OW79019   6.610   4.680   0.144 -0.1331 -0.0998 -0.1406
23990SOL    HW179020   6.575   4.651   0.229  0.8085  0.9019  0.6126
23990SOL    HW279021   6.566   4.762   0.127  1.1713  0.7524  0.4126
23991SOL     OW79022   4.772   8.900   8.114 -0.6258 -0.0614  0.0293
23991SOL    HW179023   4.713   8.880   8.187  0.6831 -0.4213  1.0335
23991SOL    HW279024   4.839   8.831   8.118  0.8909  1.3541  0.0967
23992SOL     OW79025   8.931   7.689   2.618 -1.1955  0.1888 -0.0685
23992SOL    HW179026   9.000   7.628   2.591  0.5258  2.2207 -0.5521
23992SOL    HW279027   8.924   7.677   2.712  0.0784  0.1617  0.0369
23993SOL     OW79028   5.803   0.764  11.876  0.3886 -0.0993 -0.7237
23993SOL    HW179029   5.800   0.680  11.830  0.4732  0.5152 -1.8849
23993SOL    HW279030   5.801   0.830  11.807 -0.9558  0.8938  0.2185
23994SOL     OW79031   4.178   4.099   6.214  0.0259  0.8233 -0.6249
23994SOL    HW179032   4.177   4.012   6.173  0.3506  1.8910 -3.0502
23994SOL    HW279033   4.126   4.154   6.156  0.0478  2.3319  0.7231
23995SOL     OW79034   9.628   2.211   4.166  0.2790 -0.1090  0.7234
23995SOL    HW179035   9.559   2.276   4.173  1.1933  1.0763 -0.7364
23995SOL    HW279036   9.610   2.150   4.238 -1.7056  0.6706  0.9664
23996SOL     OW79037  10.906  11.454   3.531 -0.0710 -0.5651 -0.2853
23996SOL    HW179038  10.959  11.409   3.465 -0.4008 -1.9067  0.3149
23996SOL    HW279039  10.908  11.395   3.607  0.2806  0.9259  0.8990
23997SOL     OW79040  12.540   6.965   8.753 -0.4012 -0.1603 -0.5286
23997SOL    HW179041  12.533   7.034   8.686 -0.0781  1.2076  0.7959
23997SOL    HW279042  12.449   6.940   8.771 -0.5075 -0.2990 -1.2207
23998SOL     OW79043  12.574   9.974   8.552  0.2796 -0.2963  0.7670
23998SOL    HW179044  12.602   9.912   8.485  0.6230 -0.3157  0.9265
23998SOL    HW279045  12.529  10.043   8.504  1.3017  0.1407  0.4208
23999SOL     OW79046   3.736   3.312   1.614 -0.1906 -0.4288  0.2924
23999SOL    HW179047   3.657   3.265   1.642  0.1939 -1.1779  0.1404
23999SOL    HW279048   3.708   3.361   1.536 -0.6247 -0.3036  0.5186
24000SOL     OW79049   1.282   0.547  11.538 -0.3240 -0.0501 -0.0263
24000SOL    HW179050   1.329   0.545  11.622  1.3947  0.8926 -0.8948
24000SOL    HW279051   1.306   0.465  11.495  2.0357  1.1143 -1.1545
24001SOL     OW79052   0.642   0.978   0.043 -0.3930  0.4618  0.1492
24001SOL    HW179053   0.640   0.960  -0.051  2.1298  1.2024 -0.1318
24001SOL    HW279054   0.700   0.911   0.078  0.4766  1.5338  0.7986
24002SOL     OW79055   8.523   7.829  11.991  0.3729 -0.0406  0.4148
24002SOL    HW179056   8.522   7.833  12.086 -0.9779  1.0805  0.3829
24002SOL    HW279057   8.614   7.847  11.967  0.9516 -1.4247  1.5059
24003SOL     OW79058  12.593  11.799   0.871  0.1789 -0.2620 -0.3468
24003SOL    HW179059  12.548  11.840   0.797 -2.2644 -1.6127  0.2694
24003SOL    HW279060  12.631  11.719   0.834 -0.8748 -0.8362 -0.2383
24004SOL     OW79061   9.702   5.749   5.841 -0.4551  0.0216  0.5378
24004SOL    HW179062   9.673   5.813   5.775  0.1488 -0.0593  0.1833
24004SOL    HW279063   9.626   5.739   5.899 -1.1242 -0.1648 -0.3419
24005SOL     OW79064   5.074   2.019  12.446 -0.0446  0.1444  0.0787
24005SOL    HW179065   4.997   2.052  12.399  1.0449  1.3222 -0.9569
24005SOL    HW279066   5.100   2.091  12.504  0.7495  0.0799 -0.1796
24006SOL     OW79067  12.197   9.666   0.248 -0.2223  0.3629  0.0061
24006SOL    HW179068  12.154   9.641   0.166  1.8189 -0.4003 -0.9055
24006SOL    HW279069  12.147   9.741   0.279 -1.3537  0.3740 -1.7031
24007SOL     OW79070   8.119   3.204   3.551  0.0707 -0.4027  0.0247
24007SOL    HW179071   8.190   3.140   3.553  1.0868  0.6370 -1.2709
24007SOL    HW279072   8.061   3.172   3.482 -2.0625 -2.5164  2.5693
24008SOL     OW79073   9.690   6.910   2.802 -0.5448  0.3941  0.0193
24008SOL    HW179074   9.768   6.877   2.756 -1.0869  0.2321 -0.8129
24008SOL    HW279075   9.713   7.000   2.826  0.1555  0.1198  0.4076
24009SOL     OW79076   0.004  11.206   6.425 -0.4250 -0.2550 -0.5730
24009SOL    HW179077  -0.071  11.236   6.476  0.3888 -0.0290  0.5126
24009SOL    HW279078  -0.006  11.249   6.340 -0.4237  1.4060  0.2396
24010SOL     OW79079  11.406   4.024   6.002  0.1177 -0.3392  0.0568
24010SOL    HW179080  11.369   3.952   5.951 -0.2259 -0.0226 -0.1468
24010SOL    HW279081  11.501   4.015   5.991  0.0847 -0.8267  0.1288
24011SOL     OW79082   7.627   7.400   7.847 -0.3123 -0.4157  0.0834
24011SOL    HW179083   7.589   7.338   7.910 -0.0894  0.4248  1.0573
24011SOL    HW279084   7.595   7.485   7.875  1.2961  0.1781  0.1954
24012SOL     OW79085   1.008   8.851   7.442  0.8319 -0.0440 -0.0786
24012SOL    HW179086   1.070   8.782   7.420  1.1272 -0.2406  1.2908
24012SOL    HW279087   1.055   8.906   7.505 -0.3543 -0.1926  0.9793
24013SOL     OW79088  11.515   9.046   0.332  0.3685  0.3216 -0.6217
24013SOL    HW179089  11.502   8.974   0.395  1.4660  0.8522  0.2497
24013SOL    HW279090  11.609   9.061   0.333  0.4306  0.2124 -2.5911
24014SOL     OW79091   6.751   1.576   7.775 -0.2237 -0.2312 -0.1391
24014SOL    HW179092   6.677   1.618   7.818 -1.1905 -2.9924  1.1829
24014SOL    HW279093   6.794   1.527   7.845  0.8348 -1.3596 -1.5200
24015SOL     OW79094   4.996  10.525   2.367  0.2825 -0.2697  0.7422
24015SOL    HW179095   4.951  10.606   2.344  0.5432 -0.3384 -0.0393
24015SOL    HW279096   4.955  10.498   2.450 -0.1907  0.3583  0.7249
24016SOL     OW79097   0.452   7.510  10.212  0.4472 -0.2565 -0.2075
24016SOL    HW179098   0.397   7.453  10.159  1.2983 -1.0044 -0.2970
24016SOL    HW279099   0.408   7.514  10.297 -0.0611 -0.3534 -0.4636
24017SOL     OW79100   7.767   3.078   1.731 -0.6406 -0.5881  0.1064
24017SOL    HW179101   7.858   3.085   1.703 -0.5833 -1.2535  0.1177
24017SOL    HW279102   7.725   3.156   1.696  0.7180  1.7559  3.2256
24018SOL     OW79103   1.157   9.587   7.868 -0.3156 -0.5932  0.0738
24018SOL    HW179104   1.161   9.666   7.815 -1.2565 -1.3559 -1.1750
24018SOL    HW279105   1.180   9.617   7.956  0.0728  0.9208 -0.5000
24019SOL     OW79106   2.282   4.575   5.911 -0.3916 -0.1659  1.1121
24019SOL    HW179107   2.280   4.541   6.000  1.6447 -1.9100  0.5641
24019SOL    HW279108   2.329   4.509   5.861 -0.0703  1.5094 -0.9308
24020SOL     OW79109   8.210   0.473   4.439 -0.2179 -0.4374  0.5407
24020SOL    HW179110   8.229   0.380   4.424  0.8431 -0.1096 -0.2721
24020SOL    HW279111   8.115   0.479   4.432 -0.2541 -1.3673 -0.0169
24021SOL     OW79112   7.836   5.928   3.211 -0.2975 -0.2758  0.1514
24021SOL    HW179113   7.765   5.892   3.266  1.0288 -1.1772  1.3612
24021SOL    HW279114   7.888   5.981   3.271  0.8113 -0.7265 -0.3881
24022SOL     OW79115   5.665  11.677   1.721  0.0660 -0.0679  0.0942
24022SOL    HW179116   5.733  11.701   1.784  1.1027 -3.0593  0.2817
24022SOL    HW279117   5.599  11.746   1.729  1.1438  0.7749  2.9293
24023SOL     OW79118   9.249   6.388   0.682 -0.0959 -0.1572 -0.2209
24023SOL    HW179119   9.235   6.476   0.718  0.5461 -0.4379  0.7404
24023SOL    HW279120   9.172   6.339   0.711 -0.1059 -0.1001 -0.1490
24024SOL     OW79121   6.901  12.068   1.682 -0.0066  0.4967  0.0920
24024SOL    HW179122   6.857  12.020   1.612  1.9422  0.1223 -0.9752
24024SOL    HW279123   6.836  12.076   1.752 -0.8051 -2.6054 -0.1755
24025SOL     OW79124   5.380  11.145   3.802 -0.5184  0.2941  0.0525
24025SOL    HW179125   5.306  11.105   3.757 -0.8533  2.3862 -1.4436
24025SOL    HW279126   5.456  11.096   3.772 -0.9093  0.6525 -1.6556
24026SOL     OW79127   2.943   3.917  12.165 -0.6503 -0.1834 -0.3299
24026SOL    HW179128   2.885   3.864  12.220 -2.0683  1.3783 -0.2257
24026SOL    HW279129   2.883   3.963  12.106  0.5981  0.6353 -0.9914
24027SOL     OW79130   8.073   7.337   9.111 -0.3935  0.0086 -0.1351
24027SOL    HW179131   8.067   7.430   9.134  2.5247  0.3718 -0.3530
24027SOL    HW279132   8.017   7.328   9.034 -1.6300  1.3060  0.5546
24028SOL     OW79133   7.832   5.784   9.318 -0.3316 -0.5293  0.3479
24028SOL    HW179134   7.842   5.859   9.378  1.7202 -1.2045  0.9345
24028SOL    HW279135   7.739   5.784   9.296 -0.1807  3.3673 -1.2034
24029SOL     OW79136   4.432   9.206  10.075  0.6088 -0.4759 -0.5627
24029SOL    HW179137   4.490   9.188  10.001  0.1012  2.0619 -1.6901
24029SOL    HW279138   4.344   9.209  10.036  0.5186  2.9493 -0.4081
24030SOL     OW79139   6.063   9.437   8.211  0.3607 -0.6261  0.6480
24030SOL    HW179140   6.152   9.444   8.244  0.3054 -0.3327  0.7354
24030SOL    HW279141   6.036   9.348   8.234  1.3470 -1.4551 -1.1811
24031SOL     OW79142  10.047   5.772   9.439  0.5906 -0.2780 -0.0204
24031SOL    HW179143  10.138   5.793   9.459 -0.4409  1.4581  3.6914
24031SOL    HW279144  10.000   5.854   9.451 -1.4977 -1.0637 -2.1235
24032SOL     OW79145   5.810   1.629   9.530 -0.1570 -0.2180 -0.2386
24032SOL    HW179146   5.745   1.632   9.600 -0.4227 -1.3716 -0.4187
24032SOL    HW279147   5.866   1.555   9.551  0.1487 -0.1934 -0.9156
24033SOL     OW79148   1.710   4.081   5.012  0.0328 -0.0323 -0.4012
24033SOL    HW179149   1.716   4.005   4.954  0.3606 -0.9672  0.8067
24033SOL    HW279150   1.703   4.156   4.953  0.7788 -0.9042 -1.6474
24034SOL     OW79151  10.715   5.597   1.897 -0.5742 -0.2610  0.0718
24034SOL    HW179152  10.721   5.583   1.991  0.2518  3.2460  0.6645
24034SOL    HW279153  10.805   5.589   1.866 -0.4090  1.2934  0.0918
24035SOL     OW79154   7.230  12.086   7.700  0.2141  0.5722  0.4755
24035SOL    HW179155   7.215  12.082   7.606 -1.3795  0.6253  0.6977
24035SOL    HW279156   7.180  12.012   7.735  1.1877  0.2614  1.2395
24036SOL     OW79157   9.604   5.537   1.083  0.0418 -0.3823  0.2256
24036SOL    HW179158   9.691   5.545   1.044  1.1428 -0.1556  2.5379
24036SOL    HW279159   9.566   5.625   1.076 -0.0529 -0.4879 -0.8064
24037SOL     OW79160  12.095   9.615   1.817 -0.5860  0.8441 -0.3805
24037SOL    HW179161  12.143   9.567   1.883 -0.9373  1.3338  0.2428
24037SOL    HW279162  12.102   9.561   1.738  1.5042  1.1896 -0.5012
24038SOL     OW79163   3.482  11.507   0.121 -0.5515 -0.1397 -0.7104
24038SOL    HW179164   3.530  11.501   0.038 -1.0651  0.0091 -1.0277
24038SOL    HW279165   3.482  11.601   0.141 -0.2684 -0.1978 -0.4487
24039SOL     OW79166   8.813   9.454   0.305 -0.6998  0.4423 -0.0373
24039SOL    HW179167   8.857   9.411   0.378  0.1466  0.3415 -0.5943
24039SOL    HW279168   8.766   9.384   0.260  0.1302  0.1989 -0.5499
24040SOL     OW79169   2.418   3.188   3.510  0.1412  0.3838  0.0899
24040SOL    HW179170   2.361   3.244   3.563  0.5576  0.9223 -0.0326
24040SOL    HW279171   2.485   3.158   3.571  0.0944  0.2570  0.0808
24041SOL     OW79172  10.755   3.739   7.174  0.2409  0.1979  0.4868
24041SOL    HW179173  10.684   3.756   7.236  0.7588  1.2943  0.8231
24041SOL    HW279174  10.790   3.654   7.199 -0.1728  0.2038  1.0943
24042SOL     OW79175   8.061   2.765   7.444  0.0430 -0.4264 -0.3044
24042SOL    HW179176   8.094   2.683   7.481 -1.8967 -1.0608  0.1099
24042SOL    HW279177   7.985   2.740   7.392 -0.7071  1.1068 -0.0180
24043SOL     OW79178   5.205   2.168   7.838  0.0823  0.4082  0.1952
24043SOL    HW179179   5.207   2.236   7.771 -2.2488  0.8051  0.4454
24043SOL    HW279180   5.297   2.145   7.852  0.9844  3.5569  0.1644
24044SOL     OW79181   1.252   7.862  10.986  0.5041  0.2035 -0.2604
24044SOL    HW179182   1.174   7.817  10.953  1.1752 -0.2188 -1.3293
24044SOL    HW279183   1.288   7.907  10.909  2.5633 -1.4460 -0.3376
24045SOL     OW79184   6.859   2.218   6.884 -0.1472  0.3078 -0.1406
24045SOL    HW179185   6.882   2.186   6.971  0.6282 -2.5461 -1.2930
24045SOL    HW279186   6.933   2.273   6.859  0.1579  0.2237  0.5453
24046SOL     OW79187   2.085   5.394   0.285 -0.7681  0.4529  0.1337
24046SOL    HW179188   2.009   5.453   0.281 -0.5178  0.9211  1.4902
24046SOL    HW279189   2.102   5.385   0.379  0.6951  0.1467 -0.1442
24047SOL     OW79190   8.081   2.600   9.694 -0.1283 -0.2220  0.2151
24047SOL    HW179191   8.041   2.624   9.610  2.6480  0.1190 -1.1373
24047SOL    HW279192   8.085   2.505   9.693 -2.0014 -0.3473  0.9819
24048SOL     OW79193   3.423   1.593   6.401 -0.2244 -0.1106  0.0370
24048SOL    HW179194   3.377   1.677   6.405  1.7260  0.9961  0.7588
24048SOL    HW279195   3.456   1.589   6.311  0.0484  0.1132  0.1258
24049SOL     OW79196   2.788   9.866   5.781  0.5848  0.3900  0.3117
24049SOL    HW179197   2.706   9.852   5.733  1.2879 -1.1580 -0.5037
24049SOL    HW279198   2.762   9.917   5.857 -1.2692 -0.6324  0.4334
24050SOL     OW79199   4.002   0.686   1.097  0.0324 -0.1194 -0.5202
24050SOL    HW179200   3.998   0.594   1.126 -0.5223 -0.0699 -0.4221
24050SOL    HW279201   3.935   0.691   1.029  0.5877  0.0304 -1.0574
24051SOL     OW79202  11.433   8.180  10.546 -0.4084 -0.1311 -0.1459
24051SOL    HW179203  11.514   8.229  10.530  1.2270 -2.7074 -0.2879
24051SOL    HW279204  11.394   8.222  10.623  0.2387  2.0752 -0.9475
24052SOL     OW79205   3.995   4.282   6.146  0.0685 -0.0586  0.3053
24052SOL    HW179206   3.944   4.348   6.193  1.7046  1.1130  0.5635
24052SOL    HW279207   3.995   4.312   6.055  1.8034  1.0733  0.6104
24053SOL     OW79208   6.256   1.977  10.177 -0.1196  0.1526  0.8182
24053SOL    HW179209   6.295   1.983  10.263 -0.1290 -1.6982  0.9793
24053SOL    HW279210   6.191   2.047  10.175  0.5092  0.7855  1.9561
24054SOL     OW79211   1.722  10.350   0.154  0.6011  0.5047  0.0631
24054SOL    HW179212   1.797  10.312   0.201 -0.6808 -0.5022  1.3850
24054SOL    HW279213   1.646  10.328   0.208 -0.4266  3.6314  0.0951
24055SOL     OW79214  11.558   7.645  12.132 -0.1200  0.5531  0.4516
24055SOL    HW179215  11.645   7.677  12.110 -1.0114  2.3280 -0.7640
24055SOL    HW279216  11.531   7.699  12.206  0.1441 -0.6275  1.4357
24056SOL     OW79217  11.220   0.684   1.663 -1.0601  0.0552 -0.3475
24056SOL    HW179218  11.189   0.770   1.689  0.9479  0.3600  1.3029
24056SOL    HW279219  11.243   0.693   1.571 -3.0609  0.5719 -0.8436
24057SOL     OW79220   4.079   0.245   8.222 -0.0827 -0.2983 -0.1083
24057SOL    HW179221   4.143   0.294   8.170  1.4850 -1.5446  0.5861
24057SOL    HW279222   4.080   0.289   8.308  0.6784 -0.9884  0.2444
24058SOL     OW79223   9.794  11.661   6.653  0.0368 -0.5205  0.1287
24058SOL    HW179224   9.854  11.635   6.583 -0.3746 -0.3862 -0.2754
24058SOL    HW279225   9.707  11.641   6.620 -0.2865  1.0403 -0.0715
24059SOL     OW79226   6.947   6.108   7.785  0.6706  0.7790  0.1025
24059SOL    HW179227   6.872   6.049   7.777  1.7947 -0.7563  0.4737
24059SOL    HW279228   6.912   6.194   7.761 -0.8279 -0.1481 -1.2542
24060SOL     OW79229   6.557   9.834  10.113 -0.0478  0.8145  0.0229
24060SOL    HW179230   6.635   9.807  10.160 -0.4370  0.8135  0.6822
24060SOL    HW279231   6.585   9.840  10.021  0.2102 -1.2376 -0.0794
24061SOL     OW79232   2.454   2.267  10.677 -0.8160  0.0519 -0.3648
24061SOL    HW179233   2.544   2.282  10.646 -0.8871 -0.7177 -0.9719
24061SOL    HW279234   2.451   2.174  10.697 -2.5365 -0.8479 -4.0322
24062SOL     OW79235   9.329  11.547   0.453 -0.4717  0.3916  0.4236
24062SOL    HW179236   9.334  11.633   0.495  0.1742  1.4838 -1.7828
24062SOL    HW279237   9.421  11.523   0.438 -0.6155 -1.0121  1.5867
24063SOL     OW79238   9.779   7.359   5.389  0.0541 -0.3751  0.0594
24063SOL    HW179239   9.779   7.380   5.483  0.8954 -0.0719  0.0043
24063SOL    HW279240   9.833   7.428   5.349  1.3331 -1.5852 -0.3742
24064SOL     OW79241   7.746   7.758  10.672 -0.0372  0.8245  0.6773
24064SOL    HW179242   7.767   7.677  10.717 -1.8578  0.5918  1.1895
24064SOL    HW279243   7.671   7.736  10.617 -0.8608  2.2402  1.1778
24065SOL     OW79244   5.799  12.209   5.277  0.6570 -0.1023  0.2656
24065SOL    HW179245   5.757  12.246   5.355  1.2900 -0.8317  0.9752
24065SOL    HW279246   5.871  12.268   5.258  0.9397 -0.3096  0.6763
24066SOL     OW79247  10.792   9.899   4.349  0.5814 -0.3306 -0.0089
24066SOL    HW179248  10.712   9.948   4.328  0.7982  1.3729  2.6961
24066SOL    HW279249  10.862   9.962   4.335  1.1763 -0.8904  0.4177
24067SOL     OW79250   5.359   5.057   1.051  0.1534  0.2782  0.2238
24067SOL    HW179251   5.350   5.027   1.141 -1.0868 -0.8997 -0.2586
24067SOL    HW279252   5.270   5.083   1.026  0.0871 -1.2152 -1.2519
24068SOL     OW79253   2.939  10.267   8.226  0.4516 -0.1524  0.3051
24068SOL    HW179254   3.025  10.233   8.249  0.1641 -1.0071  0.1279
24068SOL    HW279255   2.935  10.259   8.131  1.1288  2.1820 -0.0019
24069SOL     OW79256   6.555   8.493  10.118 -0.0792  0.2133  0.1547
24069SOL    HW179257   6.628   8.465  10.173  0.2505 -0.1814 -0.4840
24069SOL    HW279258   6.525   8.414  10.074  0.4328  0.7196 -1.1515
24070SOL     OW79259  11.982  10.620   6.986  0.6702 -0.3417  0.1155
24070SOL    HW179260  11.890  10.595   6.991  0.7220 -0.3592  1.2225
24070SOL    HW279261  12.023  10.573   7.059  1.9444 -1.9269 -1.5183
24071SOL     OW79262   0.298   3.661   1.153  0.4050 -0.6503 -0.2968
24071SOL    HW179263   0.209   3.696   1.155 -0.0263 -1.6919  2.6066
24071SOL    HW279264   0.296   3.596   1.082 -1.7914 -2.1172  0.9757
24072SOL     OW79265   7.981  12.273   7.958  0.1793  0.1754 -0.6649
24072SOL    HW179266   7.924  12.197   7.972  3.0452 -1.8291  1.4069
24072SOL    HW279267   8.034  12.278   8.038  2.2822  2.4208 -2.0542
24073SOL     OW79268  11.083   7.708   5.288  0.4459  0.7874  0.0846
24073SOL    HW179269  11.120   7.781   5.336  0.1553  0.6549  0.5195
24073SOL    HW279270  11.004   7.743   5.246 -0.5922  0.3614  1.5874
24074SOL     OW79271   5.287  10.818   6.389  0.2688 -0.5982 -0.0638
24074SOL    HW179272   5.379  10.843   6.382  0.1838  0.5786  2.1843
24074SOL    HW279273   5.288  10.736   6.437  0.1279  0.2997  1.5528
24075SOL     OW79274   1.200   2.268   3.419  0.0176  0.4150 -0.1857
24075SOL    HW179275   1.295   2.257   3.409  0.3308  1.1363  1.7093
24075SOL    HW279276   1.185   2.361   3.401  0.3818  1.3902  3.6593
24076SOL     OW79277   2.226   5.182   6.672  0.0272 -0.5873  0.4647
24076SOL    HW179278   2.204   5.274   6.678 -0.0335 -0.4119 -1.7185
24076SOL    HW279279   2.144   5.138   6.650  0.0807 -1.1661  1.3467
24077SOL     OW79280   1.507   5.479   0.956  0.4150  0.0153 -0.0981
24077SOL    HW179281   1.530   5.421   0.884 -0.2075  1.8127 -1.8385
24077SOL    HW279282   1.413   5.470   0.967  0.4945 -0.2008  0.4730
24078SOL     OW79283   2.224   5.569   5.602 -0.2785 -0.0515 -0.1913
24078SOL    HW179284   2.171   5.520   5.665 -3.3857  1.2439 -1.6029
24078SOL    HW279285   2.227   5.658   5.637 -0.4727  0.2634 -0.9583
24079SOL     OW79286  10.720   3.174   8.363  0.1213 -0.4872 -0.0147
24079SOL    HW179287  10.722   3.184   8.459  0.1689 -0.1683 -0.0459
24079SOL    HW279288  10.631   3.198   8.339 -0.0292 -1.0300 -0.0048
24080SOL     OW79289   9.357   0.610  11.292  0.7376 -0.5131 -0.1209
24080SOL    HW179290   9.313   0.555  11.227 -0.2300 -2.6791  2.2116
24080SOL    HW279291   9.433   0.557  11.320  1.5925  0.7246 -0.0229
24081SOL     OW79292   1.255   6.398   0.441 -0.1963 -0.1161  0.0641
24081SOL    HW179293   1.242   6.342   0.518 -0.8635  1.0837  0.8530
24081SOL    HW279294   1.169   6.398   0.398  0.2681 -1.0756 -0.9221
24082SOL     OW79295   6.170  11.603  11.497  0.2909 -0.4881  0.5915
24082SOL    HW179296   6.221  11.528  11.528  1.9007  0.1567 -0.3458
24082SOL    HW279297   6.234  11.674  11.491 -0.8372  0.4982 -0.1816
24083SOL     OW79298   5.257   3.435   4.546 -0.5014 -1.0010 -0.1067
24083SOL    HW179299   5.270   3.521   4.505 -0.1267 -1.2750 -0.5704
24083SOL    HW279300   5.169   3.409   4.521 -0.0058 -1.5125 -1.4128
24084SOL     OW79301  12.400  10.830   1.730 -0.0406  0.2249  0.3346
24084SOL    HW179302  12.387  10.804   1.638 -0.4603  0.7225  0.2498
24084SOL    HW279303  12.381  10.924   1.731  2.6399  0.8566  0.3969
24085SOL     OW79304   5.304   0.947   2.352 -0.1189 -0.1893  0.3183
24085SOL    HW179305   5.316   1.004   2.428  1.3938  0.2376 -0.1932
24085SOL    HW279306   5.387   0.952   2.305 -0.5501 -1.4908 -0.6634
24086SOL     OW79307   8.810   8.115   4.399  0.4099  0.4999 -0.0220
24086SOL    HW179308   8.887   8.144   4.448  0.8066  1.9849 -1.4164
24086SOL    HW279309   8.737   8.127   4.459  1.1085  0.3445  0.8726
24087SOL     OW79310   8.992   1.888   5.041 -0.3558  0.3781  0.0247
24087SOL    HW179311   8.930   1.816   5.031 -0.7254  0.4287  1.7115
24087SOL    HW279312   9.007   1.894   5.135  1.9181  0.6246 -0.2879
24088SOL     OW79313   3.040   9.758   5.708  0.0036  0.0972 -0.3559
24088SOL    HW179314   2.955   9.772   5.750  1.0719  1.0977  1.5647
24088SOL    HW279315   3.017   9.729   5.619 -2.3335 -1.2420  0.5754
24089SOL     OW79316   5.507  10.181   4.855  0.3084  0.8264 -0.2927
24089SOL    HW179317   5.459  10.240   4.912  1.1806 -0.3920  1.8550
24089SOL    HW279318   5.448  10.162   4.783 -0.6678  2.8143 -0.0700
24090SOL     OW79319   4.450  11.297   7.968  0.0063 -0.6459 -0.1783
24090SOL    HW179320   4.368  11.345   7.959  0.3558  0.1230  0.6706
24090SOL    HW279321   4.465  11.292   8.062  1.0293 -0.6150 -0.3279
24091SOL     OW79322   5.719   2.017   5.908 -0.1851 -0.8923  0.6495
24091SOL    HW179323   5.791   2.056   5.858  1.4097 -3.0071  1.1373
24091SOL    HW279324   5.681   2.091   5.957  3.6394 -0.0201  2.7263
24092SOL     OW79325   7.490   1.273   1.783 -0.2177  0.4190  0.7310
24092SOL    HW179326   7.534   1.224   1.713  1.6771  0.4463  1.8428
24092SOL    HW279327   7.549   1.347   1.802 -1.1324  0.9210  1.7322
24093SOL     OW79328  11.482   5.678   3.881  0.0147  0.1977 -0.2295
24093SOL    HW179329  11.536   5.757   3.881 -2.7474  2.1976 -0.2916
24093SOL    HW279330  11.534   5.614   3.929  3.0832  1.4508 -1.6053
24094SOL     OW79331   5.847  11.501   6.526 -0.1962  0.2788 -0.1545
24094SOL    HW179332   5.797  11.531   6.450  0.5897  0.4918 -0.6041
24094SOL    HW279333   5.937  11.494   6.493  0.2521  0.8904  0.8937
24095SOL     OW79334   2.537   7.905   4.924 -0.4962 -0.7971 -0.1787
24095SOL    HW179335   2.450   7.868   4.937 -0.1237 -1.3687  0.8396
24095SOL    HW279336   2.568   7.867   4.841 -1.7527  0.5207 -1.2879
24096SOL     OW79337   9.061   4.230   2.406  0.2001  0.2982 -0.6057
24096SOL    HW179338   9.003   4.221   2.330 -1.3102  0.0217  0.5293
24096SOL    HW279339   9.058   4.144   2.448 -0.8847  1.0987  1.0502
24097SOL     OW79340  10.839   2.666   8.819  0.2886 -0.0267  0.2067
24097SOL    HW179341  10.853   2.705   8.733  0.6009 -0.8167 -0.1122
24097SOL    HW279342  10.745   2.676   8.836  0.1784 -0.1093 -0.3478
24098SOL     OW79343   0.166   2.156   6.944 -0.1076 -0.5425  0.2024
24098SOL    HW179344   0.249   2.202   6.952 -1.0181  1.4756 -0.9751
24098SOL    HW279345   0.109   2.199   7.008 -1.0576  0.2186 -1.1041
24099SOL     OW79346   2.298   7.469   2.847 -0.2259 -0.2298 -0.2549
24099SOL    HW179347   2.235   7.399   2.865 -1.1344  1.2040  2.7807
24099SOL    HW279348   2.382   7.424   2.838 -1.2185 -1.9335 -1.6556
24100SOL     OW79349   0.279   1.834   1.123 -0.1776 -0.2365  0.1185
24100SOL    HW179350   0.254   1.766   1.061 -1.2238  1.4318 -1.3963
24100SOL    HW279351   0.295   1.911   1.069 -0.6694  1.1731  1.8753
24101SOL     OW79352   7.075   3.225   6.743  0.3183  0.0196 -0.3899
24101SOL    HW179353   7.125   3.239   6.663 -0.1205  0.7622 -0.5432
24101SOL    HW279354   7.094   3.134   6.768  0.6004 -0.1551 -1.2253
24102SOL     OW79355   7.926  11.565   1.512 -0.5470  0.3329  0.2130
24102SOL    HW179356   7.975  11.486   1.535  0.8286  0.9975 -0.3405
24102SOL    HW279357   7.936  11.572   1.417  0.7372  2.0338  0.4332
24103SOL     OW79358  10.813   6.862   2.625  0.0753 -0.2659  0.3283
24103SOL    HW179359  10.839   6.871   2.717  0.0339 -0.5810  0.3732
24103SOL    HW279360  10.875   6.917   2.577  0.1629 -0.1821  0.5335
24104SOL     OW79361   6.888   0.655   0.363 -0.1176 -0.4155  0.0173
24104SOL    HW179362   6.963   0.672   0.305 -1.9847  2.5515 -1.7827
24104SOL    HW279363   6.831   0.598   0.312 -0.0692 -0.9069  0.5062
24105SOL     OW79364   7.891  11.645   4.555 -0.1600 -0.5394  0.1898
24105SOL    HW179365   7.856  11.722   4.601 -1.0270 -0.9986  0.3233
24105SOL    HW279366   7.963  11.679   4.502 -1.0580  0.5348 -0.3984
24106SOL     OW79367   1.820   8.134  12.498  0.5269  0.0311 -0.1836
24106SOL    HW179368   1.795   8.198  12.432  0.5774  0.8652  0.5945
24106SOL    HW279369   1.853   8.186  12.571 -0.2434 -0.8416  0.8060
24107SOL     OW79370   9.917  11.319   6.303 -0.6820 -0.2558 -0.0787
24107SOL    HW179371   9.855  11.260   6.260 -1.7748 -0.4829  1.6782
24107SOL    HW279372   9.949  11.269   6.378  1.6219 -0.1014 -0.8938
24108SOL     OW79373   0.922   1.190   4.744  0.3107 -0.2121 -0.3475
24108SOL    HW179374   0.993   1.200   4.681  0.0624  3.2899 -0.2988
24108SOL    HW279375   0.962   1.211   4.829 -0.3644  0.0197 -0.0789
24109SOL     OW79376   9.259   9.882  11.848 -0.1356 -0.1593 -0.1309
24109SOL    HW179377   9.218   9.796  11.838  1.2984 -0.8675 -0.1175
24109SOL    HW279378   9.230   9.931  11.771 -0.4772 -0.8575 -0.4525
24110SOL     OW79379   6.424   1.098  11.041  0.3181 -0.2969 -0.0784
24110SOL    HW179380   6.480   1.161  10.996  1.2184 -1.9387 -1.3487
24110SOL    HW279381   6.336   1.119  11.012  0.5298  0.6814 -0.0663
24111SOL     OW79382   7.645   8.242   6.951  0.4497  0.3925 -0.0803
24111SOL    HW179383   7.727   8.213   6.991  0.5521 -0.7784 -1.0766
24111SOL    HW279384   7.614   8.166   6.902 -1.5967  0.5611  0.8193
24112SOL     OW79385   5.483   1.988  11.838  0.3297 -0.3545  0.2313
24112SOL    HW179386   5.514   1.903  11.808 -0.0353 -1.7995  3.5374
24112SOL    HW279387   5.550   2.050  11.808  1.3829 -2.0016 -0.9465
24113SOL     OW79388   1.632   5.127  12.395  0.4158  0.1459  0.2643
24113SOL    HW179389   1.715   5.118  12.349  0.9149 -1.3198  1.3874
24113SOL    HW279390   1.643   5.203  12.452  1.6834 -1.0992  1.7538
24114SOL     OW79391   4.821   2.547   6.891  0.3599 -0.2258 -0.2418
24114SOL    HW179392   4.768   2.513   6.819  1.0431 -0.2545 -0.7390
24114SOL    HW279393   4.868   2.470   6.924  0.3545 -0.1387 -0.0354
24115SOL     OW79394   0.863   7.859  11.189 -0.3437  0.5379  0.2289
24115SOL    HW179395   0.890   7.842  11.099  1.0137  1.6647  0.3816
24115SOL    HW279396   0.769   7.874  11.185 -0.7049 -1.5910 -0.6518
24116SOL     OW79397  11.503   7.063   3.976 -0.5048  0.0658 -0.3014
24116SOL    HW179398  11.454   7.142   3.999  0.8717  0.7474  0.3875
24116SOL    HW279399  11.511   7.067   3.880 -0.3808  0.8072 -0.2682
24117SOL     OW79400  10.207   3.998   9.804  0.3432 -0.1437 -0.3446
24117SOL    HW179401  10.168   4.082   9.778 -1.5009 -0.9389 -0.3443
24117SOL    HW279402  10.156   3.932   9.757  0.1190 -1.3760  1.5032
24118SOL     OW79403   6.791   5.224  11.954  0.8009  0.3210 -0.0528
24118SOL    HW179404   6.738   5.182  11.887  1.4323 -0.6677  0.0288
24118SOL    HW279405   6.772   5.175  12.034  0.8409  0.8062  0.2581
24119SOL     OW79406   0.803   2.321   2.087  0.1044  0.0273  0.1979
24119SOL    HW179407   0.853   2.397   2.119  1.0763 -1.0394  1.3091
24119SOL    HW279408   0.714   2.337   2.118  0.2097  0.8978  0.0906
24120SOL     OW79409   6.516   4.036  10.936  0.1690  0.1314  0.1006
24120SOL    HW179410   6.475   3.997  10.859  0.6146 -1.3616  0.5879
24120SOL    HW279411   6.443   4.056  10.995 -0.1194  0.7082 -0.4411
24121SOL     OW79412   5.961  12.441   3.147  0.2735  0.2136 -0.1657
24121SOL    HW179413   6.018  12.451   3.224  0.7284 -0.2999 -0.4270
24121SOL    HW279414   6.017  12.400   3.081 -0.1653  0.4910 -0.7169
24122SOL     OW79415  11.168   3.512  11.213  0.4471  0.7371 -0.2181
24122SOL    HW179416  11.094   3.456  11.239  1.4860 -0.7167 -0.2668
24122SOL    HW279417  11.153   3.594  11.260 -0.3826 -0.0729  1.0027
24123SOL     OW79418   9.264  10.827  12.503 -0.1941  0.1165 -0.1518
24123SOL    HW179419   9.215  10.876  12.437  0.7708 -0.7518 -1.5661
24123SOL    HW279420   9.199  10.805  12.569 -1.2400  0.8413 -0.9055
24124SOL     OW79421  12.471   0.612  11.591 -0.1159 -0.3586  0.4582
24124SOL    HW179422  12.551   0.665  11.591  0.1645 -0.7744  0.6780
24124SOL    HW279423  12.473   0.567  11.506 -0.0959 -0.4045  0.4832
24125SOL     OW79424   6.093   1.670   5.514  0.6198 -0.5801  0.3985
24125SOL    HW179425   6.176   1.637   5.480  0.1576  0.1371 -1.5178
24125SOL    HW279426   6.033   1.595   5.509  0.5398 -0.4608 -0.4287
24126SOL     OW79427  11.152   2.176   4.295 -0.2982 -0.3192  0.6600
24126SOL    HW179428  11.085   2.117   4.329 -0.3891 -1.1910 -0.9704
24126SOL    HW279429  11.197   2.126   4.228 -0.1069  1.3039 -0.4957
24127SOL     OW79430   1.228  10.942   3.665  0.7193  0.1070  0.7887
24127SOL    HW179431   1.219  10.927   3.759 -0.3596  0.9471  0.8456
24127SOL    HW279432   1.165  10.881   3.626  1.5870 -0.6608  0.5596
24128SOL     OW79433   0.299   2.184   7.504 -0.2593 -0.0469 -0.0311
24128SOL    HW179434   0.293   2.215   7.595  0.1729 -0.1627  0.0378
24128SOL    HW279435   0.329   2.261   7.455  1.8986 -0.5978  0.3091
24129SOL     OW79436   0.408   3.435   8.324 -0.4112 -0.3799 -0.3924
24129SOL    HW179437   0.370   3.465   8.242 -1.9327 -1.4759 -0.1330
24129SOL    HW279438   0.352   3.361   8.350  0.8430 -0.8966  0.9437
24130SOL     OW79439   2.169   5.895   5.021 -0.4446  0.4676 -0.5191
24130SOL    HW179440   2.145   5.919   4.931  0.9150  3.8449 -0.1543
24130SOL    HW279441   2.261   5.868   5.014  0.2703  2.5738 -0.0011
24131SOL     OW79442   7.893   5.935   6.578 -0.2614 -0.4887 -1.0671
24131SOL    HW179443   7.900   6.013   6.523  0.3335  0.4648  0.2876
24131SOL    HW279444   7.849   5.870   6.523 -2.7663  1.4629 -1.5565
24132SOL     OW79445   5.998   4.392   5.163  0.1759 -0.7973  0.5989
24132SOL    HW179446   5.921   4.335   5.162  0.7847 -1.7268  2.5229
24132SOL    HW279447   6.072   4.331   5.166  0.9402  0.1037  0.3478
24133SOL     OW79448   4.472  11.243  10.825 -0.2172  0.1620  0.3541
24133SOL    HW179449   4.480  11.170  10.763  0.0938  0.5962 -0.1206
24133SOL    HW279450   4.562  11.258  10.855 -0.5230 -1.0384  2.0886
24134SOL     OW79451   5.281   5.250   3.235  0.2765  0.3734 -0.3205
24134SOL    HW179452   5.236   5.165   3.238 -0.0599  0.5788  0.7149
24134SOL    HW279453   5.349   5.243   3.302 -1.2575  1.7431  1.4882
24135SOL     OW79454   1.368   6.688   7.267  0.4084  0.6519  0.7758
24135SOL    HW179455   1.425   6.611   7.265  0.9378  1.0478  0.0522
24135SOL    HW279456   1.281   6.653   7.250  0.8797  0.3849 -1.3832
24136SOL     OW79457   4.036   5.398   1.377 -0.4710  0.3353 -0.0076
24136SOL    HW179458   4.061   5.316   1.334  2.2288  0.6894  0.7394
24136SOL    HW279459   3.952   5.378   1.419 -0.7726 -1.4726 -1.3622
24137SOL     OW79460   3.907   6.833   7.357  0.3308 -0.3625  0.0533
24137SOL    HW179461   3.853   6.892   7.305 -2.0160 -1.3771  1.1861
24137SOL    HW279462   3.937   6.766   7.295  0.3807  0.2661 -0.6096
24138SOL     OW79463  11.520   0.546   9.185  0.1392  0.3718 -0.3458
24138SOL    HW179464  11.454   0.609   9.214  0.2843  0.3649 -0.0043
24138SOL    HW279465  11.516   0.551   9.089 -1.6312 -0.9604 -0.3776
24139SOL     OW79466  11.280   7.214   1.961  0.2092 -0.3813 -0.3472
24139SOL    HW179467  11.224   7.164   2.022 -0.2708  0.8058  0.2271
24139SOL    HW279468  11.326   7.276   2.017  0.2863  0.2716 -1.1179
24140SOL     OW79469   0.561   4.882  12.171  0.3722  0.4442 -0.1013
24140SOL    HW179470   0.634   4.912  12.226  1.1342 -1.4152 -0.0083
24140SOL    HW279471   0.599   4.811  12.119 -0.5968  1.4824 -2.3301
24141SOL     OW79472   1.863   2.198   8.035  0.1669 -0.0362  0.0080
24141SOL    HW179473   1.827   2.124   7.986 -0.6564  0.2564  0.1485
24141SOL    HW279474   1.803   2.271   8.016 -0.6986 -0.1229  2.1213
24142SOL     OW79475   1.138   7.916  11.309  0.0957 -0.0076  0.3591
24142SOL    HW179476   1.068   7.915  11.245 -0.7493  1.3744  1.2031
24142SOL    HW279477   1.219   7.914  11.258 -0.5496 -0.6498 -0.6570
24143SOL     OW79478  12.278   4.398   5.248  0.2376 -0.3502 -0.4938
24143SOL    HW179479  12.281   4.446   5.165 -2.0132 -0.6049 -0.8013
24143SOL    HW279480  12.199   4.344   5.242  0.9838 -1.7409  1.1138
24144SOL     OW79481  10.644  11.767   3.582 -0.0262 -0.8251  0.0663
24144SOL    HW179482  10.572  11.717   3.621 -0.6774  0.5742  0.7385
24144SOL    HW279483  10.633  11.755   3.488 -1.2305 -0.5519  0.1519
24145SOL     OW79484   8.417   0.875   6.893 -0.4146 -0.3250 -0.5671
24145SOL    HW179485   8.486   0.879   6.827 -0.5965  1.7760 -0.6821
24145SOL    HW279486   8.458   0.833   6.969  0.6876 -0.0280 -0.9837
24146SOL     OW79487  12.556  10.433   2.206 -0.0142 -0.1423 -0.2590
24146SOL    HW179488  12.484  10.370   2.208  0.9620 -1.2823  0.1375
24146SOL    HW279489  12.517  10.515   2.237 -1.1730 -0.6947 -0.2172
24147SOL     OW79490   1.315   9.114   6.214 -0.5004  0.3799  0.5963
24147SOL    HW179491   1.387   9.053   6.197  0.3373  1.1882  1.1806
24147SOL    HW279492   1.315   9.172   6.138  0.1857  1.0444  1.0789
24148SOL     OW79493   5.643   9.727   5.804 -0.4627  0.5572 -0.0359
24148SOL    HW179494   5.676   9.639   5.787  1.0827  1.1762 -0.3955
24148SOL    HW279495   5.679   9.751   5.889 -0.9220  0.8307  0.0887
24149SOL     OW79496   3.819   8.868  11.160 -0.1198 -0.0293  0.0575
24149SOL    HW179497   3.828   8.786  11.112  0.1155 -0.7406  1.2864
24149SOL    HW279498   3.752   8.916  11.113 -0.0281 -0.7868 -0.8696
24150SOL     OW79499   1.116   3.856   9.857  0.5451 -0.5453  0.0494
24150SOL    HW179500   1.128   3.897   9.943 -0.5365  1.6641 -0.7699
24150SOL    HW279501   1.046   3.792   9.871  1.4273 -1.3362  1.1007
24151SOL     OW79502   0.762   0.811   3.998  0.3641 -0.0901 -0.1159
24151SOL    HW179503   0.680   0.764   3.987  0.5082 -0.0822 -1.3534
24151SOL    HW279504   0.822   0.747   4.037 -0.0724 -0.2525  0.2896
24152SOL     OW79505  11.730   8.730   9.834 -0.1900  0.5033 -0.1591
24152SOL    HW179506  11.677   8.716   9.755 -0.6757  0.1905  0.2152
24152SOL    HW279507  11.775   8.813   9.818  1.1238 -0.4211 -1.5455
24153SOL     OW79508   5.273   1.731   0.592  0.2355 -0.0150  0.4023
24153SOL    HW179509   5.294   1.787   0.517  0.4999  1.7575  1.7433
24153SOL    HW279510   5.192   1.686   0.567  0.2171  0.6948 -0.8602
24154SOL     OW79511   8.799   7.320   3.840  0.1844 -0.5771 -0.1639
24154SOL    HW179512   8.883   7.296   3.880  0.4081  1.0057  0.3926
24154SOL    HW279513   8.744   7.348   3.913 -0.6556 -1.0989 -0.5877
24155SOL     OW79514   8.950   2.943   4.011  0.0600  0.0891 -0.1609
24155SOL    HW179515   8.882   2.976   3.953  2.0213  0.0021 -2.6934
24155SOL    HW279516   8.992   2.872   3.963  2.7233  0.9262  0.6830
24156SOL     OW79517  10.565   6.724   8.955  0.3750 -0.1101  0.1722
24156SOL    HW179518  10.634   6.691   8.898 -0.0002  1.1720 -1.0906
24156SOL    HW279519  10.485   6.682   8.922  0.5390 -2.0087  1.9620
24157SOL     OW79520   6.860  11.314   3.504 -0.2496  0.5409 -0.1922
24157SOL    HW179521   6.884  11.405   3.487  0.4028  0.5420  0.6386
24157SOL    HW279522   6.784  11.319   3.561 -1.1746  0.5446 -1.3876
24158SOL     OW79523  11.008  10.831   9.440  0.0243  1.0455  0.0480
24158SOL    HW179524  11.061  10.904   9.407  2.1861 -0.7269 -0.6691
24158SOL    HW279525  11.057  10.798   9.516  0.9551 -1.6587 -1.5938
24159SOL     OW79526   7.865   8.863   6.966  0.1227 -0.0654  0.3229
24159SOL    HW179527   7.960   8.872   6.972  0.0777  0.4556  0.2942
24159SOL    HW279528   7.849   8.842   6.874  0.0920  1.5219 -0.0658
24160SOL     OW79529   2.722   2.497   5.730 -0.0378  0.0881 -0.2721
24160SOL    HW179530   2.748   2.541   5.811 -0.6829 -0.1230  0.0562
24160SOL    HW279531   2.643   2.448   5.753  1.2117 -2.1231 -0.3170
24161SOL     OW79532   3.866   5.843   1.854  0.3028 -0.4511  0.4791
24161SOL    HW179533   3.894   5.872   1.767  0.8331  3.5698  1.7652
24161SOL    HW279534   3.916   5.764   1.871  2.2379  0.1775 -1.8216
24162SOL     OW79535   5.357   6.059   1.807 -0.3570 -0.4413  0.1389
24162SOL    HW179536   5.280   6.022   1.764  0.3948 -0.2609 -1.4137
24162SOL    HW279537   5.365   6.010   1.889 -1.7073 -0.9247  0.0073
24163SOL     OW79538  11.028  11.819  12.208 -0.0241  0.1120 -0.2611
24163SOL    HW179539  10.981  11.742  12.240 -0.4572  0.5505  0.1858
24163SOL    HW279540  10.975  11.893  12.239  0.7077  0.6024 -0.1667
24164SOL     OW79541   0.738  11.678   6.633  0.1265 -0.6183 -0.2353
24164SOL    HW179542   0.808  11.630   6.590  0.1179 -0.2207 -0.7124
24164SOL    HW279543   0.664  11.672   6.572 -0.4189 -1.4585  0.4894
24165SOL     OW79544   1.161   5.000  11.864 -0.4039  0.3256  0.5549
24165SOL    HW179545   1.247   5.030  11.834 -0.9565  0.0706 -1.3801
24165SOL    HW279546   1.177   4.914  11.902  0.0685 -0.2030 -0.7864
24166SOL     OW79547   2.715  11.223   1.519  0.0031  0.4769 -0.4339
24166SOL    HW179548   2.727  11.313   1.488 -2.6480  0.0938 -2.9873
24166SOL    HW279549   2.626  11.222   1.554  0.4222 -0.9277  0.7196
24167SOL     OW79550   0.239   2.402   0.756 -0.1720  0.5508  0.6288
24167SOL    HW179551   0.193   2.486   0.763  0.0976  0.8228 -0.6081
24167SOL    HW279552   0.210   2.366   0.672  0.7038  0.0042  0.5476
24168SOL     OW79553   7.874   2.160  11.410 -0.2369  0.0954 -0.2109
24168SOL    HW179554   7.823   2.081  11.396 -1.4419  0.4530  1.7246
24168SOL    HW279555   7.808   2.227  11.429  0.7961  1.4187 -1.0904
24169SOL     OW79556  11.294   5.993   9.343 -0.0172 -0.7289 -0.3996
24169SOL    HW179557  11.214   5.984   9.395  0.4696  0.4026  0.5685
24169SOL    HW279558  11.351   5.923   9.374  0.1567 -0.2449  0.4040
24170SOL     OW79559   0.810   2.849   8.844 -0.2237  0.2467 -0.1071
24170SOL    HW179560   0.744   2.875   8.780 -0.8547  0.4849  0.6312
24170SOL    HW279561   0.762   2.797   8.909  0.4771 -0.2979 -0.0131
24171SOL     OW79562   9.692  10.019   3.710  0.0331 -0.6547  0.2811
24171SOL    HW179563   9.773  10.042   3.755  0.2297 -2.2637  0.8336
24171SOL    HW279564   9.685   9.924   3.722  0.2793 -1.2698 -3.4316
24172SOL     OW79565  10.921   7.280   9.600 -0.3225  0.3039  0.3541
24172SOL    HW179566  10.957   7.239   9.679  0.2969 -0.3901 -0.2725
24172SOL    HW279567  10.986   7.262   9.532 -1.7727 -0.8730 -0.7887
24173SOL     OW79568   0.255   9.007   8.295  0.3571  0.3180 -0.2778
24173SOL    HW179569   0.346   8.996   8.270  0.1016 -0.0205 -1.1107
24173SOL    HW279570   0.247   8.962   8.379  0.8190 -0.1952 -0.5057
24174SOL     OW79571   8.059   5.768   8.685  0.1735 -0.5200 -0.3074
24174SOL    HW179572   8.124   5.832   8.715  0.0409 -0.2981 -0.4833
24174SOL    HW279573   8.074   5.691   8.738 -1.6412  0.6630  2.1460
24175SOL     OW79574   2.883  11.099   3.294  0.1409 -0.5351 -0.5002
24175SOL    HW179575   2.969  11.096   3.252 -0.7899  0.7849 -2.6364
24175SOL    HW279576   2.892  11.166   3.362  0.4767  0.5451 -1.5706
24176SOL     OW79577   8.901   6.161  12.247 -0.4583 -0.1962  0.3942
24176SOL    HW179578   8.885   6.149  12.340 -0.0632  1.0764  0.6398
24176SOL    HW279579   8.816   6.145  12.205 -0.3615 -2.0308  0.8225
24177SOL     OW79580   2.144   2.340   6.688 -0.0977 -0.5195 -0.0972
24177SOL    HW179581   2.193   2.276   6.637 -0.3370 -1.3036  0.6341
24177SOL    HW279582   2.052   2.314   6.676 -0.2467  0.1294 -0.3843
24178SOL     OW79583   9.834   5.752   8.477  0.3851 -0.6631 -0.1655
24178SOL    HW179584   9.872   5.748   8.565 -0.3048  1.9863  0.3404
24178SOL    HW279585   9.902   5.793   8.423  0.6346 -1.8696 -0.8016
24179SOL     OW79586   3.945   7.379   6.434  0.2256 -0.3407  0.6769
24179SOL    HW179587   4.039   7.386   6.451  0.5628  0.2676 -1.1375
24179SOL    HW279588   3.926   7.454   6.377 -1.3219 -0.5769  0.8473
24180SOL     OW79589   8.733   6.086   5.861 -0.3429 -0.1069  0.1081
24180SOL    HW179590   8.689   6.002   5.853  0.7792 -0.8155  1.1625
24180SOL    HW279591   8.785   6.079   5.940 -0.5319  1.7350  0.4383
24181SOL     OW79592   8.747   4.137   8.730 -0.0822 -0.5914  0.4316
24181SOL    HW179593   8.696   4.060   8.707 -0.6915 -0.2121  0.4823
24181SOL    HW279594   8.766   4.126   8.823 -0.0809 -0.7291  0.4147
24182SOL     OW79595   7.652   2.867  10.684 -0.3669 -0.7734 -0.0934
24182SOL    HW179596   7.694   2.805  10.743 -1.2733  0.0977  1.5441
24182SOL    HW279597   7.559   2.865  10.708 -0.6647  0.0502 -1.0888
24183SOL     OW79598   0.651   9.541   6.723 -0.0198  0.3235 -0.5610
24183SOL    HW179599   0.572   9.511   6.767 -0.3181  0.5559 -0.9234
24183SOL    HW279600   0.721   9.533   6.788 -0.4012  0.4098 -0.1411
24184SOL     OW79601   5.030   0.580   0.681 -0.6852  0.4043  0.1867
24184SOL    HW179602   5.058   0.575   0.589 -1.0052 -0.0545  0.1106
24184SOL    HW279603   5.051   0.494   0.717  1.6618  1.3412  1.2071
24185SOL     OW79604   7.803  10.422   3.832 -0.2315 -0.0479  0.4773
24185SOL    HW179605   7.790  10.407   3.738  0.5236  0.6826  0.2414
24185SOL    HW279606   7.725  10.384   3.873 -0.4008 -0.7092 -0.4074
24186SOL     OW79607   8.720   6.123   3.964 -0.0857  0.3516  0.3394
24186SOL    HW179608   8.660   6.185   3.922  0.5997  0.3301 -0.7128
24186SOL    HW279609   8.756   6.171   4.038 -0.7253  0.6727  0.4508
24187SOL     OW79610   0.464   6.851   3.036  0.3230 -0.7186  0.3140
24187SOL    HW179611   0.432   6.812   2.955 -0.3886  0.1511  0.1598
24187SOL    HW279612   0.417   6.805   3.105 -1.4727  0.6882  0.0799
24188SOL     OW79613  10.799   2.312   3.820 -0.0573 -0.3394  0.2100
24188SOL    HW179614  10.756   2.371   3.881  2.4434  0.0139  1.7505
24188SOL    HW279615  10.772   2.225   3.848 -0.6941 -0.1035  0.3627
24189SOL     OW79616   7.969   7.147   7.972 -0.0953  0.0793  0.1729
24189SOL    HW179617   7.953   7.240   7.960  0.4236  0.1523  0.0160
24189SOL    HW279618   8.036   7.126   7.907  0.6264 -0.1485  0.9717
24190SOL     OW79619  10.543   3.939   8.628 -0.0652  0.4952  0.1211
24190SOL    HW179620  10.545   3.844   8.625  0.0136  0.4404  1.4357
24190SOL    HW279621  10.623   3.964   8.673 -0.2603  1.1580  0.1145
24191SOL     OW79622  12.541   6.081   2.935 -0.0328 -0.2382  0.1283
24191SOL    HW179623  12.456   6.123   2.947  0.1753 -0.0004  0.7825
24191SOL    HW279624  12.530   5.993   2.972 -0.0288 -0.2498  0.1024
24192SOL     OW79625   9.317   2.878  10.719 -0.5051  0.0351 -0.1775
24192SOL    HW179626   9.306   2.907  10.628  1.7794  0.8795 -0.2676
24192SOL    HW279627   9.292   2.955  10.771 -1.2027 -0.2376 -0.0984
24193SOL     OW79628  12.337   8.204   7.416 -0.0538 -0.4162 -0.5218
24193SOL    HW179629  12.265   8.263   7.440  1.5121  1.0564  0.7466
24193SOL    HW279630  12.324   8.127   7.472 -0.6477 -0.1944 -0.3414
24194SOL     OW79631   2.072   2.292  12.528 -0.2620  0.5518  0.6186
24194SOL    HW179632   2.077   2.381  12.565 -0.8533  1.2250 -0.8336
24194SOL    HW279633   2.162   2.260  12.530 -0.0967  1.0295  1.5058
24195SOL     OW79634   5.269  10.546   9.861  0.0229  0.2441 -0.5489
24195SOL    HW179635   5.269  10.632   9.819 -0.5016 -0.2615 -1.5997
24195SOL    HW279636   5.329  10.557   9.935  2.2635  0.7331 -2.3184
24196SOL     OW79637   4.114   1.348   9.360 -0.3253  0.3954 -0.1871
24196SOL    HW179638   4.108   1.431   9.408 -0.9268  1.7761 -2.4655
24196SOL    HW279639   4.028   1.307   9.372  0.2316 -0.3525  1.5966
24197SOL     OW79640   7.033   7.880   8.684  0.6014  0.3134  0.0220
24197SOL    HW179641   7.077   7.872   8.768 -2.2590 -1.2962  1.5321
24197SOL    HW279642   7.044   7.794   8.643  0.0821  0.3639 -0.2253
24198SOL     OW79643   1.083   6.434   4.673  0.1804 -0.3080 -0.2863
24198SOL    HW179644   1.002   6.388   4.694  0.4545 -0.6110  0.1245
24198SOL    HW279645   1.080   6.446   4.578 -0.8213  0.5934 -0.1540
24199SOL     OW79646   5.632   0.704   7.562  0.6725 -0.1686 -0.9613
24199SOL    HW179647   5.721   0.733   7.585  1.1533 -1.6629 -0.8188
24199SOL    HW279648   5.645   0.617   7.523 -0.7301 -0.3813 -0.9849
24200SOL     OW79649   6.419   9.883   4.452 -0.2067  0.0079  0.4215
24200SOL    HW179650   6.336   9.839   4.469 -0.5952  0.5374 -0.0793
24200SOL    HW279651   6.478   9.849   4.520 -1.3976  1.2382  2.1474
24201SOL     OW79652   3.509   9.942  10.970  0.1435 -0.2362  0.1907
24201SOL    HW179653   3.590   9.903  10.936  1.7673  3.1793 -0.2698
24201SOL    HW279654   3.537   9.995  11.045 -2.2691 -1.6391  2.2441
24202SOL     OW79655   9.578   6.539   7.616  0.0461 -0.0614 -0.3732
24202SOL    HW179656   9.614   6.610   7.563 -0.9134 -1.2991 -2.8721
24202SOL    HW279657   9.624   6.545   7.700  1.3036  2.3297 -1.1391
24203SOL     OW79658  11.246   7.003   6.017 -0.1913  0.3840 -1.3836
24203SOL    HW179659  11.181   6.946   6.059  0.0678  0.5074 -0.7980
24203SOL    HW279660  11.219   7.008   5.926 -0.3514 -0.4862 -1.3853
24204SOL     OW79661  10.606   2.689   9.823 -0.4010 -0.1688  0.1017
24204SOL    HW179662  10.627   2.769   9.872  0.1492 -1.1925  1.6080
24204SOL    HW279663  10.529   2.712   9.771  0.9394  1.9590 -1.1023
24205SOL     OW79664   5.573   9.737  11.524  0.3183 -0.2372 -0.5567
24205SOL    HW179665   5.490   9.692  11.540 -0.3100  0.7980 -0.7848
24205SOL    HW279666   5.631   9.704  11.592 -0.9296  0.6204  1.0054
24206SOL     OW79667   2.241   4.940   8.777 -0.3258  0.1216 -1.0951
24206SOL    HW179668   2.236   4.844   8.779  0.3344  0.0539 -2.1101
24206SOL    HW279669   2.313   4.959   8.718  0.7916  1.2355  0.5295
24207SOL     OW79670   9.958  11.593   4.147  0.1396  0.0594 -0.1853
24207SOL    HW179671  10.022  11.609   4.217  0.4256 -1.1768 -0.1372
24207SOL    HW279672   9.998  11.631   4.069 -0.0236  1.1441  0.2474
24208SOL     OW79673  10.319   4.129  11.710 -0.5621  0.6398 -0.5711
24208SOL    HW179674  10.330   4.105  11.618 -0.0737 -0.1744 -0.3154
24208SOL    HW279675  10.263   4.059  11.746 -1.8350  1.6385 -0.5338
24209SOL     OW79676   4.101   4.163   2.403 -0.3614 -0.1448 -0.0241
24209SOL    HW179677   4.144   4.220   2.339 -1.6921  0.7152 -0.1903
24209SOL    HW279678   4.027   4.125   2.356  0.0770 -1.4626  0.3030
24210SOL     OW79679   5.780   0.099   5.754  0.5205 -0.4675 -0.2583
24210SOL    HW179680   5.821   0.185   5.740 -0.4111 -0.0272 -0.3971
24210SOL    HW279681   5.821   0.042   5.690  1.5592 -0.2751  0.2117
24211SOL     OW79682  10.878   1.478   2.612 -0.0952 -0.7852  0.0388
24211SOL    HW179683  10.815   1.506   2.678 -0.0562 -1.1460  0.2319
24211SOL    HW279684  10.963   1.510   2.644  0.1704 -2.3520  1.0121
24212SOL     OW79685   4.875   1.825   5.938  0.0365  0.2022  0.2809
24212SOL    HW179686   4.931   1.891   5.979 -0.8422  0.7348  0.6602
24212SOL    HW279687   4.888   1.836   5.844 -0.5149  1.2977  0.3241
24213SOL     OW79688  12.022   3.198  12.026  0.6047 -0.5432 -0.2996
24213SOL    HW179689  11.949   3.251  12.057  1.6217  0.6836  0.0871
24213SOL    HW279690  11.989   3.108  12.026 -0.9814  0.0202 -0.4311
24214SOL     OW79691   7.364   0.245   6.299 -0.1815  0.1868 -0.3056
24214SOL    HW179692   7.391   0.262   6.208 -1.8665  0.4336 -0.8017
24214SOL    HW279693   7.400   0.318   6.349 -0.3309  0.7507 -1.0099
24215SOL     OW79694   8.584   0.926  11.520 -0.0826 -0.4446  0.0913
24215SOL    HW179695   8.497   0.919  11.481 -0.2572 -1.3695  0.6033
24215SOL    HW279696   8.626   0.842  11.501  0.6813 -0.0359 -0.0900
24216SOL     OW79697  10.312   2.887   5.453  0.4554 -0.5626 -0.0609
24216SOL    HW179698  10.378   2.912   5.518  0.9129  1.7886 -1.3056
24216SOL    HW279699  10.228   2.909   5.493  0.7914  2.0735 -0.6302
24217SOL     OW79700   0.954   4.375   0.474  0.6199 -0.2143  0.2013
24217SOL    HW179701   0.993   4.312   0.535 -0.8237 -0.4537  0.9234
24217SOL    HW279702   0.918   4.444   0.530 -0.5603 -0.3374 -0.3828
24218SOL     OW79703  11.291  10.312   7.583 -0.2551 -0.3448  0.8309
24218SOL    HW179704  11.306  10.405   7.599 -1.7453  0.0294  0.1977
24218SOL    HW279705  11.213  10.309   7.528  0.9883 -1.8616 -0.9947
24219SOL     OW79706  12.538   5.552   9.936  0.5051  0.1725 -0.6827
24219SOL    HW179707  12.499   5.495   9.871  1.7676 -1.8051  0.2130
24219SOL    HW279708  12.568   5.629   9.887 -0.6176 -0.2199 -2.0162
24220SOL     OW79709   0.035  11.938   3.651  0.3546 -0.5483 -0.0279
24220SOL    HW179710   0.086  11.974   3.722  0.7307  0.3682 -0.7463
24220SOL    HW279711   0.014  12.013   3.595 -1.3881 -0.9662  0.0056
24221SOL     OW79712   8.661  11.748   7.779  0.3537  0.2069 -0.2306
24221SOL    HW179713   8.666  11.778   7.689  2.1475  0.8528  0.0409
24221SOL    HW279714   8.636  11.825   7.829  1.5514  0.4305  0.0591
24222SOL     OW79715   8.577  12.438   1.970 -0.4787 -0.5475  0.4003
24222SOL    HW179716   8.592  12.525   2.005  0.6045 -0.3367 -0.5191
24222SOL    HW279717   8.481  12.428   1.969 -0.5912  0.3955  1.0409
24223SOL     OW79718   3.188   3.680   1.623 -0.0840  0.1567  0.2697
24223SOL    HW179719   3.218   3.604   1.672 -0.6649  0.9259  1.8888
24223SOL    HW279720   3.102   3.656   1.589  1.4351 -1.4273 -2.9414
24224SOL     OW79721   4.461   8.579   7.848  0.5240  0.0937  0.5386
24224SOL    HW179722   4.412   8.558   7.769  0.6883 -0.9949  0.7153
24224SOL    HW279723   4.474   8.674   7.843  0.1918  0.0973 -0.5345
24225SOL     OW79724   2.213   6.628  10.228  0.3482  0.3449 -0.0269
24225SOL    HW179725   2.158   6.588  10.295 -0.6206  1.0517 -0.3864
24225SOL    HW279726   2.287   6.665  10.277 -0.9893  2.0037  0.8382
24226SOL     OW79727   0.568   3.343   8.685 -0.1746 -0.6042  0.0709
24226SOL    HW179728   0.641   3.380   8.637 -0.7339 -1.1074 -1.2113
24226SOL    HW279729   0.521   3.419   8.720  0.9011 -0.2767  0.8624
24227SOL     OW79730  11.424   6.985  10.577 -0.3442 -0.7549 -0.0755
24227SOL    HW179731  11.346   6.975  10.522  0.0622 -0.2950 -0.7472
24227SOL    HW279732  11.390   6.980  10.667 -1.1505 -0.5434 -0.3563
24228SOL     OW79733  11.456   1.827   8.338 -0.1554 -0.4202  0.5184
24228SOL    HW179734  11.428   1.913   8.308 -1.2382 -1.1832 -0.7947
24228SOL    HW279735  11.432   1.824   8.431  0.1075  0.7537  0.6367
24229SOL     OW79736   2.261   8.032   4.664  0.9268 -0.0074  0.5894
24229SOL    HW179737   2.272   7.950   4.713  0.5506  0.0743  0.8116
24229SOL    HW279738   2.331   8.030   4.599 -0.4905 -1.6532 -0.9961
24230SOL     OW79739   5.764   4.242   3.056  0.0131  0.0895 -0.3142
24230SOL    HW179740   5.804   4.180   2.993 -0.5248 -1.2824  0.6419
24230SOL    HW279741   5.755   4.191   3.136  0.5137  1.7626  0.8485
24231SOL     OW79742  12.000   1.738   5.231  0.1460 -0.5864  0.5681
24231SOL    HW179743  11.993   1.685   5.152 -0.6603  0.9297 -0.4237
24231SOL    HW279744  11.911   1.740   5.267  0.0415  0.5011  0.2931
24232SOL     OW79745  11.386   0.601   3.964 -0.3947  0.0729 -0.6038
24232SOL    HW179746  11.449   0.605   4.036 -1.7562  0.8294  0.5985
24232SOL    HW279747  11.348   0.514   3.970 -0.9381  0.3422  0.0027
24233SOL     OW79748  10.167   9.384   8.285  0.5930 -0.3376  0.0701
24233SOL    HW179749  10.224   9.370   8.210 -0.2394 -1.5622 -0.3551
24233SOL    HW279750  10.222   9.431   8.348  1.6923 -0.4219 -0.7962
24234SOL     OW79751   8.365   2.604  11.409  0.3870  0.7525  0.3729
24234SOL    HW179752   8.347   2.646  11.493 -1.9475 -1.3182  1.0332
24234SOL    HW279753   8.363   2.510  11.428  0.4773  0.2255 -1.8798
24235SOL     OW79754   4.436   5.129   1.765 -0.2047 -0.1253 -0.4563
24235SOL    HW179755   4.420   5.076   1.688 -0.1808 -0.5811 -0.1489
24235SOL    HW279756   4.527   5.157   1.758 -0.8298  1.8063 -1.7981
24236SOL     OW79757   8.380   4.292   2.191  0.2365  0.1750 -0.6594
24236SOL    HW179758   8.327   4.284   2.111  1.5212 -0.5775 -1.4724
24236SOL    HW279759   8.379   4.204   2.228  0.0344  0.4161 -0.0841
24237SOL     OW79760   6.495   8.353   1.754  0.5304 -0.0662  0.1634
24237SOL    HW179761   6.458   8.339   1.667 -0.5330 -1.0720  0.7506
24237SOL    HW279762   6.495   8.266   1.794  1.0105  0.3843  1.1580
24238SOL     OW79763   5.149   8.647   2.084 -0.8795  0.3631 -0.3956
24238SOL    HW179764   5.188   8.704   2.150  2.8835 -1.6557 -0.5533
24238SOL    HW279765   5.093   8.588   2.134  1.7983 -1.0562  1.2008
24239SOL     OW79766   0.381   9.101   7.888 -0.7849  0.3304  0.1313
24239SOL    HW179767   0.379   9.140   7.975 -0.4782  1.4959 -0.3672
24239SOL    HW279768   0.460   9.046   7.888 -0.0977  1.2978  0.1926
24240SOL     OW79769   6.602   7.183   7.453 -0.3532 -0.1879 -0.3591
24240SOL    HW179770   6.687   7.226   7.451 -0.0802 -0.4793  2.0288
24240SOL    HW279771   6.620   7.095   7.485 -1.5367 -0.3187  0.0105
24241SOL     OW79772  12.544   6.378   2.057 -0.2054 -0.1547 -0.4258
24241SOL    HW179773  12.549   6.427   2.139 -0.8685  0.3467 -0.6788
24241SOL    HW279774  12.620   6.407   2.007 -0.9970  1.2003 -0.8811
24242SOL     OW79775   2.786   1.620  10.896  0.4718  0.1204  0.5290
24242SOL    HW179776   2.755   1.698  10.941 -0.4215  1.1929 -1.7858
24242SOL    HW279777   2.818   1.563  10.966 -1.7938  1.2017  2.5880
24243SOL     OW79778   1.152   9.802   8.956 -0.6399  0.1831  0.3251
24243SOL    HW179779   1.187   9.800   8.867 -0.6663  2.3829  0.2131
24243SOL    HW279780   1.091   9.728   8.960 -0.6034  0.0206 -1.4539
24244SOL     OW79781   3.175  12.471   9.283 -0.2337  0.0379  0.0367
24244SOL    HW179782   3.114  12.474   9.210  0.2614 -1.7696 -0.4940
24244SOL    HW279783   3.131  12.419   9.350  0.6029 -1.1241 -0.2822
24245SOL     OW79784  11.373  12.403  11.452  0.0438 -0.2942 -0.0554
24245SOL    HW179785  11.367  12.447  11.367 -1.5430 -3.0329 -1.4885
24245SOL    HW279786  11.337  12.316  11.437  1.4713 -1.5662  3.0014
24246SOL     OW79787   5.448   7.513  10.394  0.3058 -0.2030  0.1533
24246SOL    HW179788   5.449   7.496  10.488 -1.3325  2.8475  0.8325
24246SOL    HW279789   5.534   7.551  10.375  0.2811  0.0918  0.6258
24247SOL     OW79790   3.495   7.810   7.664  0.1343  0.4782 -0.2519
24247SOL    HW179791   3.537   7.895   7.649 -0.5127  1.1711  1.5932
24247SOL    HW279792   3.404   7.832   7.681  0.1935 -0.4610  1.4269
24248SOL     OW79793   5.053   8.948   5.484 -0.1668 -0.0570  0.3840
24248SOL    HW179794   5.139   8.930   5.523  0.2139 -1.8418 -1.1397
24248SOL    HW279795   4.991   8.901   5.539 -0.1902  1.0627  1.3652
24249SOL     OW79796  10.497   9.721   9.329 -0.2198 -0.0423  0.1389
24249SOL    HW179797  10.510   9.632   9.295  1.0234  0.0518  0.3089
24249SOL    HW279798  10.492   9.776   9.251  0.1182 -0.1385  0.0430
24250SOL     OW79799  11.661   4.354   5.911 -0.1272  0.1236  0.2808
24250SOL    HW179800  11.694   4.316   5.830  0.8196  0.3432  0.5504
24250SOL    HW279801  11.567   4.338   5.908  0.0183 -0.7013 -0.4195
24251SOL     OW79802   7.159  10.556   0.200  0.0109 -0.0401 -0.1094
24251SOL    HW179803   7.091  10.620   0.221  3.2094  3.3491  0.8736
24251SOL    HW279804   7.182  10.517   0.285 -0.0787 -0.5714 -0.3207
24252SOL     OW79805   3.112   8.235   0.547  0.0468 -0.4609  0.1316
24252SOL    HW179806   3.122   8.190   0.463  1.3187 -0.8662  0.4725
24252SOL    HW279807   3.031   8.285   0.538  0.1860 -0.4513 -1.3533
24253SOL     OW79808   5.209   2.115   2.149 -0.2182 -0.7385  0.8575
24253SOL    HW179809   5.234   2.097   2.240 -0.3316 -0.2121  0.9962
24253SOL    HW279810   5.118   2.089   2.143 -0.8245  1.0915  1.4569
24254SOL     OW79811   3.017  11.852   8.908  0.0578 -0.2910 -0.3448
24254SOL    HW179812   3.078  11.793   8.864  1.4632  0.5979  0.3806
24254SOL    HW279813   3.072  11.913   8.956 -1.3952 -0.7226  2.0158
24255SOL     OW79814   4.245   2.370   8.310  0.3528  0.0584 -0.0017
24255SOL    HW179815   4.229   2.310   8.238 -0.5878  0.5050 -0.1855
24255SOL    HW279816   4.159   2.382   8.351  0.8140  0.0429  1.0110
24256SOL     OW79817   8.331   4.303  10.226  0.4967  0.4751  0.4604
24256SOL    HW179818   8.366   4.243  10.291 -1.9924 -2.4345 -0.5952
24256SOL    HW279819   8.268   4.357  10.273  1.4641  1.0908  1.0873
24257SOL     OW79820   7.626   6.670  11.986  0.5175  0.1581 -0.0512
24257SOL    HW179821   7.664   6.757  11.973 -1.8876  1.1052 -1.5664
24257SOL    HW279822   7.617   6.662  12.081  3.0724  0.4259  0.2931
24258SOL     OW79823   2.199   3.643   6.455 -0.0757 -0.6362  0.0288
24258SOL    HW179824   2.199   3.612   6.364  0.4777 -1.1880  0.2120
24258SOL    HW279825   2.153   3.727   6.451  0.3283 -0.4420 -0.8337
24259SOL     OW79826  10.388  11.137   3.305  0.2064 -0.1209 -0.1460
24259SOL    HW179827  10.463  11.095   3.262  0.6505  0.7399 -0.2230
24259SOL    HW279828  10.418  11.225   3.326 -1.2918  0.8131 -1.6049
24260SOL     OW79829  12.255   1.733   6.901  0.3394  0.2949 -0.7446
24260SOL    HW179830  12.236   1.640   6.918  0.7375  0.0602 -1.5690
24260SOL    HW279831  12.181   1.779   6.941  0.4060 -0.3333  0.1547
24261SOL     OW79832   1.717   3.906   7.939 -0.1222  0.4542 -0.5009
24261SOL    HW179833   1.747   3.996   7.922 -2.3218  1.4416  0.4552
24261SOL    HW279834   1.765   3.879   8.017  0.4352  0.8400 -0.7017
24262SOL     OW79835   7.109   8.864   8.966  0.4686  0.3652  0.1793
24262SOL    HW179836   7.194   8.886   9.004  0.0175  0.0953  1.3802
24262SOL    HW279837   7.114   8.771   8.946  0.3468  0.2778  0.5514
24263SOL     OW79838   2.289   0.760   6.140 -0.1032 -0.0613 -0.0373
24263SOL    HW179839   2.202   0.728   6.162  0.3394 -1.1319  0.2530
24263SOL    HW279840   2.280   0.800   6.054 -0.8705 -0.1873 -0.0158
24264SOL     OW79841   2.470   2.249  11.518  0.8301 -0.3276 -0.3144
24264SOL    HW179842   2.424   2.323  11.558 -1.0954 -1.8490  0.4186
24264SOL    HW279843   2.455   2.258  11.424  0.5175  0.1279 -0.2215
24265SOL     OW79844   4.406   7.827   4.751  0.9418  0.4875  0.3745
24265SOL    HW179845   4.393   7.919   4.730 -0.2803 -0.1031 -1.6546
24265SOL    HW279846   4.501   7.816   4.753  1.1037  1.5283 -0.6885
24266SOL     OW79847  10.732   9.952   3.190 -0.4096 -0.8250 -0.3336
24266SOL    HW179848  10.651   9.915   3.224 -0.0150 -1.9928 -0.6323
24266SOL    HW279849  10.767  10.003   3.264 -0.9495 -1.0648  0.0945
24267SOL     OW79850   4.311  12.416   4.135  0.4493 -0.2159 -0.2825
24267SOL    HW179851   4.230  12.462   4.113  0.2119 -1.1003 -1.3700
24267SOL    HW279852   4.362  12.417   4.054  0.8816 -0.9361 -0.0319
24268SOL     OW79853  10.979   7.577  12.419 -0.6808  0.2596 -0.3063
24268SOL    HW179854  10.959   7.665  12.449 -1.5239  0.2496 -0.8088
24268SOL    HW279855  10.912   7.522  12.459  1.8581 -0.8011  3.0213
24269SOL     OW79856   8.948   9.717   6.595  0.3024  0.0707 -0.0986
24269SOL    HW179857   8.858   9.703   6.626 -0.1566 -0.7778 -1.7144
24269SOL    HW279858   8.973   9.635   6.554  1.2556  0.7836 -1.0101
24270SOL     OW79859   5.818   7.597  12.419 -0.3451  0.1374  0.0100
24270SOL    HW179860   5.862   7.668  12.466  0.4337 -0.2941 -0.0529
24270SOL    HW279861   5.766   7.641  12.352  1.7264  0.5888 -1.3836
24271SOL     OW79862   9.353   0.373   5.078 -0.0916  0.2946 -0.2951
24271SOL    HW179863   9.324   0.462   5.058 -0.8166  0.3141  0.7464
24271SOL    HW279864   9.291   0.317   5.032  0.0070  0.3251 -0.4676
24272SOL     OW79865  10.477  11.245   7.054  0.2992  0.0545 -0.1904
24272SOL    HW179866  10.568  11.260   7.028  0.8362 -0.0411  1.5335
24272SOL    HW279867  10.427  11.310   7.005  1.6852  2.3395  1.2715
24273SOL     OW79868   5.111   7.871   5.745  0.0005  0.2748 -0.2172
24273SOL    HW179869   5.099   7.781   5.714 -0.8842 -0.4308  1.9254
24273SOL    HW279870   5.140   7.920   5.668 -0.4121 -1.6384 -1.6694
24274SOL     OW79871   2.360  10.477   3.069  0.3267 -0.0061  0.3138
24274SOL    HW179872   2.441  10.462   3.020  0.3046  0.3895  0.1517
24274SOL    HW279873   2.342  10.393   3.111  0.9399 -0.0376  0.5342
24275SOL     OW79874   5.105   1.345  11.604 -0.4119 -0.5648  0.3430
24275SOL    HW179875   5.152   1.398  11.668  0.7216 -2.2064  0.9529
24275SOL    HW279876   5.166   1.274  11.583 -1.5743 -1.2098 -0.9858
24276SOL     OW79877   8.967   6.043   8.100  0.2038  0.0668 -0.6105
24276SOL    HW179878   8.969   6.138   8.105 -0.2125  0.1239 -1.3467
24276SOL    HW279879   8.991   6.024   8.009  0.1053 -0.5282 -0.5164
24277SOL     OW79880   1.411   7.365   2.865 -0.0274  0.4693 -0.8515
24277SOL    HW179881   1.494   7.392   2.827  0.0644  1.7241  0.1563
24277SOL    HW279882   1.348   7.428   2.832 -0.1218  0.9810  0.2555
24278SOL     OW79883   8.867   6.213   9.717  0.4172 -0.0894  0.0309
24278SOL    HW179884   8.956   6.247   9.725  0.3832  0.1714 -0.6588
24278SOL    HW279885   8.854   6.199   9.623 -0.3229  0.0210  0.1080
24279SOL     OW79886   0.244   3.691   8.376 -0.5508 -0.7712 -0.3761
24279SOL    HW179887   0.183   3.620   8.397 -1.4439  0.1701  0.3280
24279SOL    HW279888   0.328   3.662   8.412 -1.4956 -0.3099  2.4070
24280SOL     OW79889   5.903   5.285  12.228 -0.2222 -0.4174  0.7444
24280SOL    HW179890   5.995   5.259  12.223  0.0405  0.6690 -0.7567
24280SOL    HW279891   5.863   5.248  12.150 -0.8465 -0.1027  0.9079
24281SOL     OW79892   3.332   0.886   1.500 -0.2304 -0.2038 -0.1175
24281SOL    HW179893   3.243   0.873   1.534  0.4818 -0.9952  1.5445
24281SOL    HW279894   3.328   0.969   1.453 -1.7271  0.0246  0.3675
24282SOL     OW79895   6.772   9.570   6.158  0.4174 -0.4368  0.1854
24282SOL    HW179896   6.738   9.656   6.183  0.3133 -0.7522  1.1552
24282SOL    HW279897   6.860   9.567   6.196  0.4913 -0.6862 -0.0020
24283SOL     OW79898   8.823   6.061  10.709 -0.4199  0.6618  0.3548
24283SOL    HW179899   8.739   6.056  10.664  0.2097 -0.8249 -0.7662
24283SOL    HW279900   8.827   6.149  10.744 -0.9393  2.0043 -2.6337
24284SOL     OW79901  12.335   3.873   8.353  0.2738  0.3384 -0.3132
24284SOL    HW179902  12.308   3.951   8.304 -1.4122 -0.2921 -0.4652
24284SOL    HW279903  12.430   3.873   8.348  0.3024  2.3115 -0.4167
24285SOL     OW79904  11.746  11.266   1.741  0.4814  0.2378  0.2458
24285SOL    HW179905  11.694  11.222   1.674  0.6696 -1.0328  0.9111
24285SOL    HW279906  11.795  11.332   1.693  0.7472 -0.7632 -0.9044
24286SOL     OW79907   0.433   1.468   2.964 -0.0042  0.4033  0.1834
24286SOL    HW179908   0.428   1.380   2.926  0.1164  0.4219  0.1232
24286SOL    HW279909   0.417   1.527   2.890  1.9593  0.5005 -0.2274
24287SOL     OW79910  10.730  10.059   6.657  0.2070  0.7693 -0.4617
24287SOL    HW179911  10.672  10.078   6.730  0.4397  0.4615 -0.1953
24287SOL    HW279912  10.690   9.984   6.613  0.6645  0.2279  0.0244
24288SOL     OW79913   2.356   3.562   4.054  0.0257 -0.4972 -0.2267
24288SOL    HW179914   2.339   3.565   4.148  1.0373  1.9032 -0.0499
24288SOL    HW279915   2.271   3.577   4.014 -0.0400  1.0121  0.3995
24289SOL     OW79916   7.162  11.765   9.303  0.2510  0.8328  0.0909
24289SOL    HW179917   7.117  11.823   9.241  0.0632  0.3251 -0.2559
24289SOL    HW279918   7.093  11.736   9.362 -0.3803 -1.6163 -1.6928
24290SOL     OW79919   8.703   0.902   7.661 -0.9046  0.0246 -0.5573
24290SOL    HW179920   8.691   0.997   7.664 -0.1929  0.1376  3.0811
24290SOL    HW279921   8.793   0.890   7.631 -0.8790  0.4985 -0.6749
24291SOL     OW79922   2.762   6.573   4.007 -0.1231  0.5494 -0.0752
24291SOL    HW179923   2.724   6.486   4.023 -0.5219  0.3221 -1.9449
24291SOL    HW279924   2.691   6.624   3.969  0.7568  0.8947 -1.3295
24292SOL     OW79925   4.740   9.468   0.047 -0.1626 -0.1283 -0.2542
24292SOL    HW179926   4.804   9.410   0.005  0.0199 -0.8733  0.9867
24292SOL    HW279927   4.673   9.409   0.082 -0.6171  0.5067 -0.0310
24293SOL     OW79928  10.517   8.724   5.684 -0.2359 -0.1961  0.5557
24293SOL    HW179929  10.550   8.700   5.771  0.0958 -0.3974  0.3747
24293SOL    HW279930  10.549   8.813   5.670  0.0157 -0.2956  0.4898
24294SOL     OW79931   1.572   7.376  10.644 -0.1533 -0.2454 -0.4666
24294SOL    HW179932   1.607   7.465  10.648  1.2369 -0.7929  2.4112
24294SOL    HW279933   1.479   7.385  10.664 -0.2155  0.6240 -1.1264
24295SOL     OW79934   2.784   4.058  11.428  0.3336 -0.1654 -0.6354
24295SOL    HW179935   2.775   3.968  11.399  1.4221 -1.4659  2.6196
24295SOL    HW279936   2.722   4.067  11.500  0.9177  1.3840 -0.2721
24296SOL     OW79937   9.070   9.628   7.552  0.3036 -0.1945 -0.6784
24296SOL    HW179938   9.107   9.628   7.641 -0.9096 -0.6890 -0.1517
24296SOL    HW279939   8.976   9.639   7.566  0.0015 -1.1470 -1.8723
24297SOL     OW79940   7.501   8.521  12.141  0.2636  0.7184 -0.2683
24297SOL    HW179941   7.439   8.470  12.194 -1.8295 -0.2283 -3.3247
24297SOL    HW279942   7.579   8.466  12.136 -0.0226  0.2030  0.6730
24298SOL     OW79943   0.695   5.590   9.723 -0.2656 -0.1805 -0.0041
24298SOL    HW179944   0.652   5.572   9.807 -1.0155 -1.7548 -0.6902
24298SOL    HW279945   0.788   5.576   9.741 -0.1494  1.6946  1.0953
24299SOL     OW79946   9.085   6.222  11.343  0.1673 -0.4984 -0.2883
24299SOL    HW179947   9.095   6.192  11.433  1.1176 -1.5596 -0.7275
24299SOL    HW279948   9.070   6.142  11.292 -3.0605  0.2554 -0.7691
24300SOL     OW79949   2.324   5.007   2.847  0.1503  0.1047 -0.1350
24300SOL    HW179950   2.234   5.038   2.861  0.7299  0.7333  2.8863
24300SOL    HW279951   2.354   5.054   2.769 -1.5844  1.2174 -0.1857
24301SOL     OW79952  10.462   7.759   0.354  1.0448 -0.1300 -0.2334
24301SOL    HW179953  10.534   7.705   0.320  0.4305 -0.8068 -0.4762
24301SOL    HW279954  10.429   7.806   0.278 -1.8831 -3.4059 -1.2133
24302SOL     OW79955  12.584   8.156   8.923 -0.4912  0.8930 -0.2708
24302SOL    HW179956  12.503   8.132   8.968  0.4342 -0.0939  0.9141
24302SOL    HW279957  12.556   8.216   8.854 -2.4831 -0.9551 -1.1656
24303SOL     OW79958  12.470   5.321   9.757  0.4192 -0.1765  0.3049
24303SOL    HW179959  12.452   5.236   9.718 -0.9658  0.7182 -1.1734
24303SOL    HW279960  12.436   5.314   9.847  0.5101 -1.2280  0.2667
24304SOL     OW79961   7.786   5.312   2.786  0.3500  0.2029  0.4926
24304SOL    HW179962   7.839   5.349   2.856  1.4693 -1.9786  0.9000
24304SOL    HW279963   7.715   5.267   2.831  2.3016 -3.1624  0.5802
24305SOL     OW79964   9.228   3.257  11.044  0.0230 -0.1193  0.0460
24305SOL    HW179965   9.198   3.329  10.988  2.1706  0.5834 -0.3159
24305SOL    HW279966   9.195   3.279  11.131 -0.2822  0.7229 -0.2676
24306SOL     OW79967   5.903   4.626   1.259  0.2831  0.2445  0.1434
24306SOL    HW179968   5.852   4.648   1.181 -0.7628  0.6640  0.9299
24306SOL    HW279969   5.991   4.607   1.225 -0.3326 -0.3055 -1.2103
24307SOL     OW79970   9.985   2.824   4.747  0.0826 -0.2224  0.3722
24307SOL    HW179971   9.914   2.881   4.718  0.1365 -1.2215 -1.9426
24307SOL    HW279972   9.977   2.746   4.692  3.0712 -0.2883 -0.1716
24308SOL     OW79973  11.609  12.438  10.543 -0.0933  0.0430 -0.2904
24308SOL    HW179974  11.590  12.529  10.567 -0.2259  0.0795 -0.5298
24308SOL    HW279975  11.622  12.441  10.448  1.6789  0.1177 -0.0810
24309SOL     OW79976   8.449   2.443  10.650  0.2618 -0.4702  0.1886
24309SOL    HW179977   8.539   2.471  10.633  0.6164  0.0448  2.5766
24309SOL    HW279978   8.421   2.497  10.724 -2.5792  0.4511 -1.3851
24310SOL     OW79979   7.768   5.502   6.726 -0.3273 -0.2186 -0.1993
24310SOL    HW179980   7.740   5.418   6.689  1.5861 -0.3308 -1.6167
24310SOL    HW279981   7.847   5.480   6.776 -0.2459  0.6303  0.0551
24311SOL     OW79982   1.996  11.689  10.363  0.4737  0.1215  0.2185
24311SOL    HW179983   2.023  11.765  10.313 -0.6687  1.7279  1.9007
24311SOL    HW279984   1.915  11.659  10.320  1.9145 -1.4093 -1.5968
24312SOL     OW79985   9.354   2.675  11.812  0.3984  0.3989 -0.1359
24312SOL    HW179986   9.413   2.654  11.884 -0.3213  1.4250  0.7734
24312SOL    HW279987   9.267   2.674  11.850 -0.1344 -0.3912 -1.3123
24313SOL     OW79988   1.577  12.570   7.682  0.1530 -0.6836  0.1773
24313SOL    HW179989   1.553  12.542   7.771 -1.5253  1.3763  0.4580
24313SOL    HW279990   1.576  12.489   7.631 -2.0965 -1.5348  1.3993
24314SOL     OW79991   1.958   0.489   9.574  0.0295 -0.0279 -0.0623
24314SOL    HW179992   1.887   0.533   9.621  0.5207 -0.5085  1.1434
24314SOL    HW279993   1.959   0.400   9.609 -0.5591 -0.8776 -2.0536
24315SOL     OW79994   9.370   7.554   2.343  0.6818  0.0184  0.3192
24315SOL    HW179995   9.461   7.572   2.367  0.3625 -1.1330  2.7290
24315SOL    HW279996   9.348   7.474   2.391 -1.7317  0.4800  0.1148
24316SOL     OW79997   5.917  10.724   7.906  0.0349  0.1321  0.2408
24316SOL    HW179998   5.894  10.725   7.999 -0.3510 -2.2080  0.2180
24316SOL    HW279999   5.849  10.778   7.864  0.9077  2.2407  1.3920
24317SOL     OW80000  10.453   6.841   1.330 -0.2687 -0.1685  0.0931
24317SOL    HW180001  10.431   6.931   1.309  1.1761  0.2837  0.3666
24317SOL    HW280002  10.528   6.848   1.390  1.1738 -1.5454 -1.4504
24318SOL     OW80003   8.228   2.449   7.956 -0.0030 -0.2988  0.1046
24318SOL    HW180004   8.243   2.503   8.034  0.2432  1.4333 -1.0792
24318SOL    HW280005   8.256   2.505   7.883 -0.7959 -1.6428 -1.2738
24319SOL     OW80006  12.216   7.392   5.862  0.2903  0.7218 -0.1491
24319SOL    HW180007  12.216   7.296   5.862 -0.8608  0.7031  1.1398
24319SOL    HW280008  12.309   7.415   5.850  0.6956 -0.5486  0.3640
24320SOL     OW80009  11.542   7.405   5.537  0.5301 -0.0558  0.0164
24320SOL    HW180010  11.541   7.437   5.447  1.1927  0.6113  0.2322
24320SOL    HW280011  11.610   7.457   5.580  0.8903 -1.0261  0.6572
24321SOL     OW80012   7.477   3.563   7.594  0.1391  0.2387  0.1366
24321SOL    HW180013   7.404   3.624   7.586  0.4483  0.6410  0.3138
24321SOL    HW280014   7.555   3.618   7.589  0.4096  0.0220  1.5567
24322SOL     OW80015   7.758  11.981  10.799 -0.3079  0.3558  0.7741
24322SOL    HW180016   7.794  11.933  10.725 -2.0747 -0.3186  0.3228
24322SOL    HW280017   7.752  12.072  10.768 -0.3672  0.2083  0.3425
24323SOL     OW80018   3.498   7.492   5.297  0.5299 -0.2366  0.1155
24323SOL    HW180019   3.434   7.529   5.236  0.1559  1.6265  1.5396
24323SOL    HW280020   3.469   7.523   5.383  1.6553 -1.8804  1.1447
24324SOL     OW80021   9.529   1.527   2.832  0.2449  0.6359  0.1862
24324SOL    HW180022   9.563   1.443   2.865 -2.2238  0.2300  1.9928
24324SOL    HW280023   9.505   1.508   2.742  0.6519 -0.3115  0.2537
24325SOL     OW80024   2.753   9.151   6.315 -0.6431 -0.1650  0.2219
24325SOL    HW180025   2.775   9.070   6.269 -1.6351 -0.4875  0.2914
24325SOL    HW280026   2.684   9.127   6.376 -1.2783  0.8126 -0.0731
24326SOL     OW80027  10.185  11.635   7.197 -0.3848 -0.5725  0.1740
24326SOL    HW180028  10.157  11.685   7.274 -1.2501  2.0104 -1.6715
24326SOL    HW280029  10.137  11.553   7.202 -0.4388 -0.4628  2.3379
24327SOL     OW80030   0.766   2.834   2.158 -0.2054  0.0279  0.3513
24327SOL    HW180031   0.818   2.754   2.163  0.0013  0.0825 -0.7019
24327SOL    HW280032   0.767   2.858   2.065 -1.6560  0.3437  0.3976
24328SOL     OW80033   8.113   4.872   8.801 -0.5100  0.1942  0.0758
24328SOL    HW180034   8.130   4.897   8.892  0.2159 -0.0835  0.0290
24328SOL    HW280035   8.019   4.857   8.797 -1.2884  4.0140 -0.1717
24329SOL     OW80036  10.076   2.153  11.991 -0.1329 -0.5083  0.4334
24329SOL    HW180037  10.159   2.106  11.990 -0.7926 -1.7057  0.7722
24329SOL    HW280038  10.026   2.113  12.062 -1.2904 -0.3210 -0.2543
24330SOL     OW80039   4.595   8.347   7.912  0.6650  0.3721 -0.0645
24330SOL    HW180040   4.562   8.436   7.897 -0.0482 -0.1947 -2.1723
24330SOL    HW280041   4.667   8.359   7.975  0.6086  2.4377 -0.3155
24331SOL     OW80042   8.774   8.031  11.919  0.1925  0.1980  0.5303
24331SOL    HW180043   8.835   8.075  11.860 -0.7770  1.4545  0.4085
24331SOL    HW280044   8.805   7.941  11.924 -0.0618 -0.1347 -2.4168
24332SOL     OW80045   9.041   1.789   9.196 -0.3990  0.4522  0.0426
24332SOL    HW180046   8.956   1.790   9.152 -0.8859 -0.5065  0.9109
24332SOL    HW280047   9.078   1.875   9.178 -1.0312  0.4665 -1.3422
24333SOL     OW80048   9.047   5.633   3.917 -0.0543  0.0601  0.3305
24333SOL    HW180049   9.024   5.547   3.952  2.1971  0.0039  1.8574
24333SOL    HW280050   9.009   5.695   3.980 -0.3830  0.1370  0.0581
24334SOL     OW80051   2.245   5.709  12.435  0.4060  0.2967 -0.1186
24334SOL    HW180052   2.239   5.797  12.472 -1.5181  0.2025 -0.0745
24334SOL    HW280053   2.179   5.659  12.484  2.0822 -1.4354  0.4951
24335SOL     OW80054   8.488   6.440   8.594  0.0311 -0.7034  0.3289
24335SOL    HW180055   8.538   6.444   8.676 -1.8741  0.8289  1.5311
24335SOL    HW280056   8.539   6.492   8.532  0.9634 -0.9419  0.8838
24336SOL     OW80057  10.917   3.998   1.860 -0.1886 -0.0916 -0.3474
24336SOL    HW180058  10.851   3.989   1.929  0.2888 -1.3513 -0.0297
24336SOL    HW280059  10.998   4.020   1.906  0.1533 -1.0358 -0.4748
24337SOL     OW80060   5.049   1.701   3.786 -0.0158  0.2047  0.0997
24337SOL    HW180061   5.129   1.701   3.839 -0.4139 -0.0593  0.7228
24337SOL    HW280062   5.062   1.772   3.722  0.9406 -0.2016 -0.1703
24338SOL     OW80063   5.470   1.746   8.754 -0.0379  0.0964 -0.0954
24338SOL    HW180064   5.447   1.799   8.831 -0.8052 -0.0609 -0.2027
24338SOL    HW280065   5.402   1.767   8.690  1.0330  0.8337 -1.0449
24339SOL     OW80066  12.120   4.386  11.860  0.5723 -0.2784  0.3994
24339SOL    HW180067  12.214   4.400  11.847  0.8430 -0.1222  2.2456
24339SOL    HW280068  12.088   4.357  11.775  2.0552  0.8853 -0.6135
24340SOL     OW80069   7.731   3.650   7.559 -0.1055 -0.3443  0.0405
24340SOL    HW180070   7.809   3.608   7.524  0.4333 -0.3836  1.2410
24340SOL    HW280071   7.739   3.641   7.654 -1.8786 -0.8869  0.1719
24341SOL     OW80072   3.551   7.302   1.286  0.5142 -0.1639 -0.0226
24341SOL    HW180073   3.587   7.279   1.200  0.9451 -0.1135  0.1471
24341SOL    HW280074   3.478   7.361   1.265  0.0800 -0.8129 -0.3966
24342SOL     OW80075   4.142   9.683   9.978  0.1927 -0.0410  0.2174
24342SOL    HW180076   4.225   9.690  10.026 -0.1734  1.2736  0.7008
24342SOL    HW280077   4.084   9.636  10.037  0.3479 -0.2376  0.2154
24343SOL     OW80078  12.375  11.377   1.353  0.9564  0.0397  0.0369
24343SOL    HW180079  12.442  11.436   1.318 -1.7323  2.6625 -1.1788
24343SOL    HW280080  12.359  11.409   1.442 -0.3477  1.0946 -0.5449
24344SOL     OW80081   9.894  12.284   0.845  0.1228 -0.1461  0.0330
24344SOL    HW180082   9.916  12.304   0.936 -2.2440 -1.3014  0.9556
24344SOL    HW280083   9.854  12.365   0.813  1.1838  0.3468 -0.0900
24345SOL     OW80084  10.186  11.752   5.544  0.5189 -0.4596  0.2218
24345SOL    HW180085  10.169  11.834   5.591  3.7746  0.5288 -0.0646
24345SOL    HW280086  10.188  11.685   5.612  1.0445  0.2604  0.9283
24346SOL     OW80087   7.465   6.639   5.312  0.0979 -0.4383 -0.2300
24346SOL    HW180088   7.481   6.548   5.337 -1.1219 -0.8477 -0.8595
24346SOL    HW280089   7.407   6.673   5.380  3.9947  1.3081  2.5399
24347SOL     OW80090   4.269   4.333   8.702  0.3796 -0.1501 -0.6216
24347SOL    HW180091   4.248   4.374   8.786 -1.5272  0.9160 -1.5688
24347SOL    HW280092   4.289   4.242   8.724 -0.6781 -0.0388  0.9232
24348SOL     OW80093  10.919   7.953   0.389  0.3642 -0.3293 -0.0924
24348SOL    HW180094  10.930   7.859   0.405 -2.1825 -0.4709  1.3518
24348SOL    HW280095  10.864   7.983   0.461  0.4040  2.1075 -1.0048
24349SOL     OW80096   3.240   9.528   9.552 -0.3890 -0.0788 -0.7202
24349SOL    HW180097   3.228   9.526   9.457  1.3858  1.7419 -1.0565
24349SOL    HW280098   3.214   9.616   9.578  2.3778  0.6527 -0.1017
24350SOL     OW80099   3.038  10.443   6.445  0.7210 -0.3301 -0.1775
24350SOL    HW180100   2.967  10.432   6.382  0.9318 -1.7759 -0.2127
24350SOL    HW280101   3.051  10.355   6.482  1.1794  0.3012  1.2558
24351SOL     OW80102  12.218   1.770   3.834 -0.6874 -0.4068  0.1512
24351SOL    HW180103  12.252   1.814   3.756 -1.8754  0.2842 -0.0069
24351SOL    HW280104  12.205   1.841   3.897 -1.3867 -0.7225  0.3657
24352SOL     OW80105   2.161  12.329  12.175 -0.7033  0.4969 -0.4750
24352SOL    HW180106   2.068  12.332  12.199 -0.6779  1.0197 -0.4223
24352SOL    HW280107   2.207  12.350  12.256 -0.4787 -1.0269 -0.1892
24353SOL     OW80108   5.897   8.884   1.182  0.4835 -0.6487 -0.1598
24353SOL    HW180109   5.965   8.873   1.248  0.5732  1.3853  0.1581
24353SOL    HW280110   5.944   8.905   1.101  0.2806  1.1501  0.1465
24354SOL     OW80111   2.545  12.463   0.065 -0.1394 -0.3502  0.7634
24354SOL    HW180112   2.543  12.557   0.079 -0.0611 -0.3650  0.8799
24354SOL    HW280113   2.551  12.426   0.153 -0.8631 -0.4893  0.7600
24355SOL     OW80114  12.550   8.258   7.659  0.6620 -0.3093 -0.4153
24355SOL    HW180115  12.640   8.268   7.691  1.1188  2.1266 -2.1566
24355SOL    HW280116  12.551   8.299   7.573 -1.8602 -1.3652 -1.0228
24356SOL     OW80117   1.338   5.862   7.682 -0.5989  0.3047  0.7287
24356SOL    HW180118   1.335   5.957   7.672 -1.2325  0.4223  1.8480
24356SOL    HW280119   1.321   5.847   7.775 -3.5949 -1.0204  0.0845
24357SOL     OW80120   0.352  12.555   0.275 -0.1101 -0.0566 -0.6421
24357SOL    HW180121   0.384  12.469   0.247 -1.3879 -0.5522 -0.6174
24357SOL    HW280122   0.277  12.537   0.330  0.8643  1.0249  1.1327
24358SOL     OW80123   3.620   1.190   3.332  0.0492  0.0944 -0.2822
24358SOL    HW180124   3.606   1.285   3.333  0.1483  0.1443 -1.9085
24358SOL    HW280125   3.713   1.180   3.313 -0.3106 -0.3052 -2.0306
24359SOL     OW80126   1.252   5.154  12.346 -0.5551  0.0650 -0.1561
24359SOL    HW180127   1.197   5.229  12.325  0.0875  0.4463 -0.4921
24359SOL    HW280128   1.333   5.168  12.297  0.3137  0.1206  1.2331
24360SOL     OW80129   3.188  12.230   8.671  0.2424  0.2535 -0.3167
24360SOL    HW180130   3.200  12.139   8.642  1.0206  0.2860 -0.1331
24360SOL    HW280131   3.147  12.222   8.757 -1.6265  0.1445 -1.1752
24361SOL     OW80132   5.559   2.142   6.786 -0.1320 -0.1460  0.5050
24361SOL    HW180133   5.584   2.121   6.876  1.5232  0.3569  0.1882
24361SOL    HW280134   5.524   2.060   6.751  1.5522 -1.0380  0.8434
24362SOL     OW80135   2.211  11.999   0.083  0.7608 -0.0671  0.2078
24362SOL    HW180136   2.160  12.080   0.081  0.8522  0.0334 -2.6658
24362SOL    HW280137   2.150  11.932   0.113 -0.0152  0.6452  0.2453
24363SOL     OW80138   9.154  11.313   3.377  0.4067  0.2669  0.2286
24363SOL    HW180139   9.091  11.242   3.363  2.1357 -1.4035  0.5238
24363SOL    HW280140   9.116  11.364   3.449 -0.7184 -0.5543  0.2476
24364SOL     OW80141  11.408   6.616   2.120 -0.3419 -0.3689  0.1152
24364SOL    HW180142  11.464   6.588   2.048  0.4875  0.7058  0.3176
24364SOL    HW280143  11.456   6.688   2.161 -1.3501 -0.1830  1.0090
24365SOL     OW80144   4.549  10.445   2.226  0.4184 -0.1065 -0.4588
24365SOL    HW180145   4.578  10.380   2.162 -1.3024  0.8083 -2.2716
24365SOL    HW280146   4.510  10.514   2.174 -1.2240  0.6190  1.5941
24366SOL     OW80147   5.832   4.077   2.256  0.0572  0.2249 -0.1314
24366SOL    HW180148   5.840   3.997   2.308 -0.6066 -0.0865 -0.4968
24366SOL    HW280149   5.917   4.088   2.214  0.0545 -0.4604 -0.3217
24367SOL     OW80150   2.158   3.673   1.171  0.1255 -0.1357  0.5697
24367SOL    HW180151   2.248   3.666   1.205  0.7484  1.6876 -0.5989
24367SOL    HW280152   2.167   3.720   1.088 -2.0020  0.7485  0.7894
24368SOL     OW80153   8.765   4.141   2.133 -0.2661 -0.1635  0.0477
24368SOL    HW180154   8.683   4.099   2.107  0.0230 -0.9978  0.4342
24368SOL    HW280155   8.747   4.235   2.126 -1.7255 -0.2735  1.4707
24369SOL     OW80156   1.156   4.393   5.658 -0.2695 -0.0511 -0.2932
24369SOL    HW180157   1.231   4.433   5.702 -0.6274  0.0567  0.2222
24369SOL    HW280158   1.153   4.436   5.572 -0.4421  0.7913  0.1236
24370SOL     OW80159  12.504  12.276  11.288  0.8757  0.0346 -0.1777
24370SOL    HW180160  12.599  12.283  11.281  1.1388  0.5712  2.7976
24370SOL    HW280161  12.487  12.268  11.382 -2.1360  1.8377 -0.4418
24371SOL     OW80162   5.124  11.015  12.134  0.2523 -0.5069 -0.2353
24371SOL    HW180163   5.135  11.108  12.152 -2.2621 -0.4173  1.2616
24371SOL    HW280164   5.110  10.975  12.220  0.6378 -2.1881 -0.9146
24372SOL     OW80165   9.621   4.225   0.969  0.2811 -0.6033 -0.1687
24372SOL    HW180166   9.698   4.190   1.014  0.9558 -0.0052 -0.8247
24372SOL    HW280167   9.598   4.304   1.018 -0.3700 -1.1736  0.4610
24373SOL     OW80168   7.189   7.809   2.220  0.1933 -0.0356  0.1506
24373SOL    HW180169   7.151   7.752   2.153 -0.9155  0.2638  0.4922
24373SOL    HW280170   7.188   7.896   2.181 -2.1865  0.4679  1.1638
24374SOL     OW80171   2.294   3.785   8.092 -0.1762  0.4694  0.3122
24374SOL    HW180172   2.241   3.722   8.141 -2.9228  1.2407 -1.4440
24374SOL    HW280173   2.327   3.735   8.017  0.8493  0.2296  0.9049
24375SOL     OW80174   0.606   4.279  11.586 -0.1587  0.1593 -0.1509
24375SOL    HW180175   0.523   4.321  11.611 -0.4739 -0.6850  0.2526
24375SOL    HW280176   0.651   4.265  11.669 -0.1054 -0.4031 -0.2756
24376SOL     OW80177   9.924   1.565   8.974 -0.6156 -0.4759  0.0634
24376SOL    HW180178  10.012   1.528   8.966  0.3792  1.2844  1.8844
24376SOL    HW280179   9.879   1.507   9.036 -1.1666 -1.9942 -1.6790
24377SOL     OW80180   0.296   7.108   2.062  0.0656 -0.5358  0.1933
24377SOL    HW180181   0.203   7.103   2.040  0.0921 -1.1867  0.2065
24377SOL    HW280182   0.306   7.192   2.105 -0.6150 -0.6862  0.6618
24378SOL     OW80183  12.382   1.073   8.184 -0.2078 -0.1082 -0.6215
24378SOL    HW180184  12.353   1.069   8.275  0.6767  2.1964 -0.1704
24378SOL    HW280185  12.400   1.166   8.168 -0.6769 -0.3804 -3.2758
24379SOL     OW80186   9.269   3.560  10.012  0.4890 -0.3162 -0.2833
24379SOL    HW180187   9.210   3.614   9.960  1.0340 -0.4500 -1.0688
24379SOL    HW280188   9.311   3.621  10.073  0.0745 -0.1012 -0.2126
24380SOL     OW80189  11.369   5.699   3.621  0.4433  0.5323  0.1025
24380SOL    HW180190  11.408   5.701   3.708  0.1482  2.1881  0.2225
24380SOL    HW280191  11.279   5.668   3.636  1.6905 -3.8554 -0.2439
24381SOL     OW80192  10.420   7.838   9.442  0.0203  0.1914  0.2537
24381SOL    HW180193  10.397   7.891   9.366  0.0718  1.4925  1.1236
24381SOL    HW280194  10.367   7.759   9.433  2.1018 -1.0741 -2.6751
24382SOL     OW80195   2.278   4.117   8.332  0.3106  0.3971  0.4909
24382SOL    HW180196   2.301   4.052   8.398 -0.5131 -0.4392 -0.0016
24382SOL    HW280197   2.340   4.188   8.344  2.4157 -1.2320 -0.0798
24383SOL     OW80198   7.709   0.542   1.965  0.5373 -0.3496 -0.1685
24383SOL    HW180199   7.728   0.608   1.898  1.7435 -0.8965 -0.3932
24383SOL    HW280200   7.778   0.553   2.030  0.5372 -1.1496 -0.0269
24384SOL     OW80201  12.366   2.671  10.913 -0.0333 -0.0510  0.0448
24384SOL    HW180202  12.460   2.655  10.906 -0.2942 -1.7556 -0.0246
24384SOL    HW280203  12.353   2.757  10.874  1.0603 -1.2207 -3.2514
24385SOL     OW80204  10.144   0.225   5.994 -0.1179  0.0514  0.4843
24385SOL    HW180205  10.136   0.132   5.970 -3.6416  0.8101 -2.1401
24385SOL    HW280206  10.214   0.258   5.937 -0.1646 -0.6343  0.0119
24386SOL     OW80207  10.060   9.533  11.586 -0.7398 -0.8525  0.5513
24386SOL    HW180208   9.989   9.573  11.636  0.3360  2.6441 -0.4742
24386SOL    HW280209  10.038   9.552  11.494  0.5294 -1.4624  0.0992
24387SOL     OW80210   2.143   1.206   6.446  0.5358 -0.6933 -0.1326
24387SOL    HW180211   2.144   1.282   6.504  1.3885  0.1407 -1.1860
24387SOL    HW280212   2.062   1.160   6.468 -0.8922  1.4415 -0.6002
24388SOL     OW80213   4.602  11.021  10.473 -0.0263 -0.2217 -0.1925
24388SOL    HW180214   4.579  10.984  10.559  0.1276  0.4398  0.1413
24388SOL    HW280215   4.659  10.956  10.433  0.3913 -0.2638  0.4617
24389SOL     OW80216   4.120  10.367   1.913 -0.2403 -0.5355 -0.0910
24389SOL    HW180217   4.073  10.295   1.870 -0.8137 -1.1522  1.5091
24389SOL    HW280218   4.060  10.441   1.907 -0.9968 -1.0354  0.9785
24390SOL     OW80219   6.589  11.613   5.876 -0.0244  0.1336 -0.1091
24390SOL    HW180220   6.587  11.630   5.970 -1.1793 -2.0572  0.3013
24390SOL    HW280221   6.660  11.551   5.864  0.6685  1.0298 -0.8424
24391SOL     OW80222   1.183   2.400   6.499 -0.4052 -0.4204  0.2325
24391SOL    HW180223   1.254   2.450   6.459  0.6149 -1.6922  0.3692
24391SOL    HW280224   1.227   2.343   6.562 -1.7329 -0.1063  1.5045
24392SOL     OW80225  11.988   1.338   0.377 -0.8928 -0.0497 -0.1585
24392SOL    HW180226  12.012   1.426   0.405  0.1081 -1.0671  2.4316
24392SOL    HW280227  11.893   1.336   0.382 -0.8423  0.3185  1.8677
24393SOL     OW80228   9.263   1.032   1.458  0.0570 -0.4813 -0.3569
24393SOL    HW180229   9.301   1.090   1.524 -1.3602  0.0920 -0.0024
24393SOL    HW280230   9.307   1.056   1.377  1.0876 -0.4853  0.1916
24394SOL     OW80231   0.536   2.056  10.654  0.0193  0.2731 -0.2694
24394SOL    HW180232   0.554   2.043  10.561  2.0795 -0.5726  0.1991
24394SOL    HW280233   0.620   2.042  10.698 -0.8679  0.7439  1.7284
24395SOL     OW80234  12.099   7.904   7.128 -0.3067  0.5623  0.1699
24395SOL    HW180235  12.099   7.808   7.135  1.0741  0.5218 -0.0806
24395SOL    HW280236  12.080   7.921   7.036 -1.5215  0.5775  0.4061
24396SOL     OW80237  10.490   7.564  11.614 -0.0090  0.8257 -0.2487
24396SOL    HW180238  10.482   7.653  11.577  0.0147  1.1678  0.5571
24396SOL    HW280239  10.581   7.558  11.641 -0.1921  0.8366  0.3871
24397SOL     OW80240   9.851  11.513   5.455  0.4751  0.0816 -0.0158
24397SOL    HW180241   9.798  11.570   5.399 -0.8757 -2.3508 -1.3875
24397SOL    HW280242   9.859  11.562   5.537 -2.5393  1.2978 -0.3033
24398SOL     OW80243   1.044  11.954   5.409 -0.3693 -0.1951  0.7008
24398SOL    HW180244   1.009  12.043   5.399 -1.3354 -0.4815  1.3534
24398SOL    HW280245   1.064  11.926   5.320 -2.4258 -0.2344  0.2051
24399SOL     OW80246   2.055   6.505   8.925  0.3472 -0.0704 -0.1542
24399SOL    HW180247   2.069   6.574   8.861  0.8524 -0.4428 -0.4534
24399SOL    HW280248   2.123   6.519   8.991  0.2827 -0.1217 -0.0764
24400SOL     OW80249   4.367  10.772   9.538  0.5170 -0.6647  0.1078
24400SOL    HW180250   4.380  10.709   9.608 -0.5429 -1.1441 -0.1138
24400SOL    HW280251   4.315  10.725   9.472  1.0822 -0.0736 -0.7833
24401SOL     OW80252  10.700  10.713   6.584 -0.2876 -0.4504 -0.6660
24401SOL    HW180253  10.723  10.794   6.539  0.0971 -0.7704 -1.0427
24401SOL    HW280254  10.660  10.658   6.516 -0.3362 -0.6688 -0.4620
24402SOL     OW80255   6.849   0.335  10.155 -0.8441  0.2622  0.4447
24402SOL    HW180256   6.819   0.245  10.139 -0.0200  0.0054  0.3119
24402SOL    HW280257   6.943   0.327  10.172 -1.0147  0.9496  1.8395
24403SOL     OW80258   1.267  11.990   5.579 -0.6475  0.0974 -0.1900
24403SOL    HW180259   1.208  12.027   5.513 -3.2033 -1.2335  1.1890
24403SOL    HW280260   1.232  12.021   5.663  1.8995  0.9071  0.6750
24404SOL     OW80261   5.665   2.262  11.925  0.2770  0.6252  0.0269
24404SOL    HW180262   5.742   2.288  11.975  0.7905 -0.3653 -0.2289
24404SOL    HW280263   5.697   2.199  11.861 -0.7235  0.2934 -0.1729
24405SOL     OW80264   0.513   8.884   9.993 -0.0892 -0.4656 -0.3526
24405SOL    HW180265   0.431   8.911   9.952  0.2627  0.4176 -0.4746
24405SOL    HW280266   0.520   8.938  10.072  1.0528  0.4682 -1.0598
24406SOL     OW80267   3.715   2.188   4.493  0.4498  0.6889 -0.1195
24406SOL    HW180268   3.671   2.134   4.428 -0.2744  0.8341  0.2405
24406SOL    HW280269   3.784   2.233   4.444  0.8303 -0.2716 -0.4937
24407SOL     OW80270   4.634   6.592   2.437  0.0260  0.1421  0.3090
24407SOL    HW180271   4.646   6.517   2.378  0.2851  0.3579  0.0826
24407SOL    HW280272   4.669   6.666   2.388 -1.1899  0.6027  0.1079
24408SOL     OW80273  11.537   0.062   6.744  0.4284 -0.3118  0.1177
24408SOL    HW180274  11.500   0.084   6.829 -0.2798  0.5723 -0.4070
24408SOL    HW280275  11.526  -0.033   6.737 -1.5643 -0.1203  0.0803
24409SOL     OW80276   0.066   2.472   8.142  0.5804 -0.3175  0.4732
24409SOL    HW180277   0.109   2.454   8.059 -1.1599 -0.3121 -0.4724
24409SOL    HW280278   0.002   2.401   8.152  0.7652 -0.3341  1.8314
24410SOL     OW80279   2.533   5.331  12.067  0.8156  0.3501  0.2357
24410SOL    HW180280   2.523   5.355  12.159 -0.1657 -1.5309  0.6675
24410SOL    HW280281   2.453   5.362  12.024 -0.0396 -1.2180  0.6180
24411SOL     OW80282   5.182   6.342   7.991  0.1315 -0.0990 -1.0019
24411SOL    HW180283   5.242   6.413   7.967 -1.5820  1.9625  0.4325
24411SOL    HW280284   5.227   6.296   8.062  0.6457  0.4701 -0.9455
24412SOL     OW80285   8.530  12.073   6.519  0.2597 -0.1745  0.2182
24412SOL    HW180286   8.457  12.011   6.513  1.5814 -1.7788 -0.0555
24412SOL    HW280287   8.553  12.092   6.428  0.9810 -0.6858  0.2852
24413SOL     OW80288   9.802   8.789   3.275 -0.4017  0.2502  0.3775
24413SOL    HW180289   9.736   8.721   3.288 -1.3426  0.8605 -0.9205
24413SOL    HW280290   9.882   8.742   3.251 -1.4919 -0.3939 -2.2900
24414SOL     OW80291   9.638  10.098   4.191  0.6673  0.2947 -0.1110
24414SOL    HW180292   9.568  10.143   4.143 -1.5181 -1.0219  1.6742
24414SOL    HW280293   9.641  10.010   4.152  2.6481  0.8474 -1.3656
24415SOL     OW80294   9.509   3.116   5.899  0.0818  0.3017 -0.0661
24415SOL    HW180295   9.500   3.205   5.932 -1.2681  0.0529  0.3176
24415SOL    HW280296   9.425   3.075   5.918  1.1283 -1.4804  1.0296
24416SOL     OW80297  10.753   5.012   1.337  0.5537  0.1916  0.2255
24416SOL    HW180298  10.781   5.051   1.254 -1.5855  1.1771 -0.1200
24416SOL    HW280299  10.717   5.086   1.386 -2.0691 -1.0018  0.2659
24417SOL     OW80300  11.943   6.950   2.689 -0.1542  0.4160  0.1129
24417SOL    HW180301  12.033   6.920   2.679  0.5939  2.9114 -1.6372
24417SOL    HW280302  11.930   6.954   2.784  1.4777 -0.2592  0.3958
24418SOL     OW80303   1.691   9.858   2.185  0.0811 -0.2592 -0.4117
24418SOL    HW180304   1.762   9.920   2.169 -0.8334  0.6012 -1.3007
24418SOL    HW280305   1.685   9.807   2.105 -2.2581  1.7420 -1.6670
24419SOL     OW80306  10.854   2.429   2.112  0.6845  0.9105  0.4756
24419SOL    HW180307  10.838   2.336   2.129  0.6855  0.3703 -2.1690
24419SOL    HW280308  10.798   2.474   2.176 -0.2232 -0.8984  1.0333
24420SOL     OW80309   5.362   4.387   1.599  0.7508  0.3109  0.6391
24420SOL    HW180310   5.342   4.300   1.565  1.0055 -0.1080  1.5214
24420SOL    HW280311   5.388   4.372   1.690  2.5179  1.1075  0.3077
24421SOL     OW80312   7.768  11.719   8.977 -0.1062  0.1385 -0.5228
24421SOL    HW180313   7.770  11.691   8.885  0.7526 -1.7687  0.0218
24421SOL    HW280314   7.760  11.814   8.973 -0.7347  0.0469 -2.5581
24422SOL     OW80315   7.167   1.189  11.067  0.6352  0.3284  0.1379
24422SOL    HW180316   7.249   1.207  11.022 -0.9488  1.2469 -2.5990
24422SOL    HW280317   7.142   1.102  11.037  1.2738 -0.6338  2.1871
24423SOL     OW80318   4.343  11.029  10.285 -0.1871  0.0270 -0.2630
24423SOL    HW180319   4.344  10.934  10.299 -0.1905  0.2305  1.3229
24423SOL    HW280320   4.434  11.056  10.296 -0.3130  0.2983  0.1653
24424SOL     OW80321   3.785   7.005   0.991  0.2174 -0.3138  0.5250
24424SOL    HW180322   3.747   6.955   0.918 -1.0105  0.4358  0.6133
24424SOL    HW280323   3.865   6.958   1.014 -0.1655 -1.4152 -0.3189
24425SOL     OW80324  12.055   9.993   7.402 -0.2682 -0.0464  0.4548
24425SOL    HW180325  11.960   9.982   7.404 -0.1559 -1.4754 -0.8897
24425SOL    HW280326  12.084   9.958   7.487 -0.8803 -0.1521  0.6307
24426SOL     OW80327   7.208  11.133  11.637  0.3553 -0.5886 -0.5879
24426SOL    HW180328   7.294  11.177  11.634 -0.0034  0.0889 -1.3624
24426SOL    HW280329   7.147  11.198  11.602 -0.2344 -1.6425 -1.5684
24427SOL     OW80330   7.208   7.432   0.761  0.2195  0.2248  0.0600
24427SOL    HW180331   7.172   7.413   0.675  0.1821  0.7319 -0.0378
24427SOL    HW280332   7.294   7.390   0.761 -0.7827 -2.0342  0.7156
24428SOL     OW80333   3.969   2.933   2.964  0.1148 -0.5015 -0.1311
24428SOL    HW180334   3.934   2.963   2.881  1.0447 -0.4248 -0.5130
24428SOL    HW280335   4.063   2.954   2.960  0.4023 -1.5645  0.4416
24429SOL     OW80336  10.782   9.517   5.851 -0.0199  0.3200 -0.4124
24429SOL    HW180337  10.737   9.445   5.809 -0.7901  0.0976  0.7540
24429SOL    HW280338  10.860   9.477   5.891  1.1298  0.6607 -2.2047
24430SOL     OW80339   4.891  12.122   6.551  0.7550  0.5986 -0.4034
24430SOL    HW180340   4.922  12.100   6.639  0.8168  0.4764 -0.4560
24430SOL    HW280341   4.797  12.135   6.562  0.6282 -0.2195 -0.4739
24431SOL     OW80342   1.872  10.449   1.092 -0.1037 -0.4727 -0.0285
24431SOL    HW180343   1.920  10.368   1.076  0.6301  0.1360 -1.0347
24431SOL    HW280344   1.780  10.422   1.095  0.2608 -1.8105  2.9167
24432SOL     OW80345  11.009   7.012   7.159  0.1412 -0.3699  0.3364
24432SOL    HW180346  11.080   6.949   7.167  0.5843  0.2857  2.1387
24432SOL    HW280347  11.050   7.090   7.121 -0.4566 -1.1765 -2.1206
24433SOL     OW80348   4.804   5.072   1.121 -0.7714 -0.8860 -0.4244
24433SOL    HW180349   4.752   5.115   1.189 -1.1604 -0.0815 -1.2102
24433SOL    HW280350   4.825   5.142   1.059  2.2130 -0.9152  0.4024
24434SOL     OW80351  12.405   8.210  10.971 -0.1916  0.0022 -0.5133
24434SOL    HW180352  12.380   8.176  10.886  0.4031  0.1560 -0.7539
24434SOL    HW280353  12.405   8.305  10.960 -0.2383  0.0277 -0.3048
24435SOL     OW80354   7.999   7.926  11.788  0.0041 -0.6902  0.3786
24435SOL    HW180355   8.035   7.839  11.774 -2.9622 -1.6900 -2.1512
24435SOL    HW280356   8.005   7.969  11.702 -0.8695  0.6388  0.9387
24436SOL     OW80357   0.230  10.677   4.644  0.5920  0.1459 -0.3929
24436SOL    HW180358   0.220  10.583   4.628  3.5476  0.0272 -2.2276
24436SOL    HW280359   0.176  10.718   4.576 -0.3992 -0.1769  0.1719
24437SOL     OW80360   3.435   0.299   3.616  0.0718  0.0516 -0.0208
24437SOL    HW180361   3.461   0.374   3.561  1.1893 -0.1458  0.2066
24437SOL    HW280362   3.344   0.316   3.639  0.2667  1.2839 -0.0877
24438SOL     OW80363   5.431  11.639   9.367 -0.0651  0.4988  0.0536
24438SOL    HW180364   5.436  11.632   9.271  0.8918  1.5958  0.0060
24438SOL    HW280365   5.453  11.551   9.398  0.8963  0.4596 -0.7008
24439SOL     OW80366   5.577   8.737   9.434  0.1672 -0.4682  0.0750
24439SOL    HW180367   5.539   8.714   9.350 -0.8328  0.4193  0.2796
24439SOL    HW280368   5.628   8.659   9.458 -0.7717 -1.3305 -0.6209
24440SOL     OW80369   7.938   1.664   4.339  0.1843  0.0021 -0.6858
24440SOL    HW180370   8.033   1.653   4.341  0.4487  1.8888  0.9387
24440SOL    HW280371   7.908   1.605   4.270  2.3025 -2.1612  0.0862
24441SOL     OW80372   3.759   9.408   5.216  0.1532  0.2723 -0.3165
24441SOL    HW180373   3.836   9.458   5.240 -0.0054  0.1570  0.4583
24441SOL    HW280374   3.701   9.414   5.292  0.1066 -1.0273 -0.2172
24442SOL     OW80375   0.990   8.093   4.453  0.6936 -0.3199  0.1632
24442SOL    HW180376   0.931   8.153   4.407  2.4213 -0.0843 -1.8938
24442SOL    HW280377   1.053   8.150   4.496  1.1471 -0.6072 -0.1109
24443SOL     OW80378   7.605  12.040   5.337  0.1093  0.0936  0.4642
24443SOL    HW180379   7.684  11.995   5.365 -0.1719 -0.2705  0.6884
24443SOL    HW280380   7.589  12.106   5.404  0.2053  0.1441  0.4372
24444SOL     OW80381   5.215   1.116   6.724  0.7460 -0.1384  0.2284
24444SOL    HW180382   5.231   1.041   6.780 -1.2546  0.4312  1.6765
24444SOL    HW280383   5.198   1.078   6.638 -0.4706 -1.3999  0.9799
24445SOL     OW80384   8.686   8.860   1.793  0.0056  0.5881  0.7693
24445SOL    HW180385   8.740   8.787   1.824 -1.1271 -1.0034 -0.7526
24445SOL    HW280386   8.613   8.817   1.747 -1.1104  2.6943  0.4651
24446SOL     OW80387   2.282   5.288   0.102 -0.1669  0.1388 -0.0062
24446SOL    HW180388   2.207   5.309   0.157  0.1137 -2.6574  1.6374
24446SOL    HW280389   2.348   5.354   0.125 -1.3084  1.2644  0.1776
24447SOL     OW80390   2.187   7.020   5.731 -0.3038  0.1710  0.5427
24447SOL    HW180391   2.154   6.932   5.716 -2.4560  0.5849  2.2722
24447SOL    HW280392   2.171   7.066   5.649  2.0924 -1.2844 -0.8714
24448SOL     OW80393  11.054   5.834   5.894 -0.0412  0.2337  0.1515
24448SOL    HW180394  11.009   5.796   5.820  0.7845  0.8249 -0.6800
24448SOL    HW280395  10.997   5.816   5.969  0.2943 -2.5756 -0.1649
24449SOL     OW80396   2.232   5.693  11.434 -1.1538 -0.0071  0.1557
24449SOL    HW180397   2.241   5.612  11.385 -0.8882  0.4411 -0.5575
24449SOL    HW280398   2.138   5.712  11.434 -1.2809 -0.5700  0.7764
24450SOL     OW80399   0.425  12.463   7.124  0.6052  0.3738 -0.1830
24450SOL    HW180400   0.480  12.386   7.137 -0.7497 -0.4672  0.8698
24450SOL    HW280401   0.437  12.488   7.033  1.3844 -0.8358 -0.4170
24451SOL     OW80402   6.263   3.903   5.932  0.2610 -0.4519 -0.1057
24451SOL    HW180403   6.272   3.995   5.956  3.5285 -0.9172  1.0214
24451SOL    HW280404   6.328   3.890   5.863 -0.6939 -1.7919 -0.8072
24452SOL     OW80405  10.274   3.139  12.164  0.5440 -0.6245 -0.1581
24452SOL    HW180406  10.222   3.109  12.238 -0.0863  1.2510  0.2328
24452SOL    HW280407  10.363   3.144  12.197  0.8416 -2.7496 -0.4880
24453SOL     OW80408  11.851   1.116   9.686  0.2385  0.2789 -0.2656
24453SOL    HW180409  11.839   1.108   9.781 -0.5818 -0.8610 -0.4307
24453SOL    HW280410  11.922   1.055   9.666  0.8819  1.0376 -0.3021
24454SOL     OW80411   2.702   3.017  11.721  0.0226  0.1560  0.2902
24454SOL    HW180412   2.632   2.974  11.672  0.8536  0.2410 -1.0194
24454SOL    HW280413   2.682   2.999  11.813 -1.3231 -0.4041 -0.0923
24455SOL     OW80414  12.162   0.280  12.207 -0.6078  0.3203  0.1276
24455SOL    HW180415  12.192   0.364  12.242  1.3235 -0.0887 -0.4288
24455SOL    HW280416  12.126   0.234  12.282 -1.9055  1.7162  0.4008
24456SOL     OW80417   3.438   1.275   6.248  0.3155  0.2040 -0.3281
24456SOL    HW180418   3.519   1.231   6.276  0.5298  1.1249  0.5711
24456SOL    HW280419   3.466   1.363   6.223 -0.1277 -0.0891 -1.9734
24457SOL     OW80420  11.305   9.813   7.304  0.2093 -0.7920  0.0914
24457SOL    HW180421  11.215   9.812   7.338 -0.7823  0.4457 -2.2019
24457SOL    HW280422  11.348   9.884   7.352 -0.2678 -0.9234  0.7200
24458SOL     OW80423   8.848   3.104   5.201 -0.0858 -0.3703 -0.1730
24458SOL    HW180424   8.805   3.032   5.156 -0.1045 -0.6453  0.2778
24458SOL    HW280425   8.928   3.065   5.238 -1.1952 -0.7524  2.0220
24459SOL     OW80426  10.191   1.516  12.510 -0.5763  0.1722 -0.1240
24459SOL    HW180427  10.242   1.576  12.455  0.2990 -1.3145 -0.9791
24459SOL    HW280428  10.137   1.466  12.449 -1.3548  0.1201  0.5854
24460SOL     OW80429  12.073   4.400   8.038  0.2870  0.0518  0.5350
24460SOL    HW180430  12.166   4.382   8.054  0.3070 -1.1313 -0.7682
24460SOL    HW280431  12.071   4.491   8.008  1.3024 -0.5097 -1.3957
24461SOL     OW80432   3.732  11.200  10.338  0.2429 -0.1554  0.3431
24461SOL    HW180433   3.679  11.259  10.284 -0.1696 -1.3561 -0.5935
24461SOL    HW280434   3.821  11.236  10.331 -0.5469  2.7847  3.1696
24462SOL     OW80435   4.265   6.918   7.289 -0.5315  0.4816 -0.2778
24462SOL    HW180436   4.305   6.984   7.232  1.7493  0.8144  1.5280
24462SOL    HW280437   4.334   6.853   7.302 -1.6277 -0.5571  0.5873
24463SOL     OW80438   4.543  11.314  12.417  0.0302 -0.0679 -0.4722
24463SOL    HW180439   4.514  11.360  12.495  1.6097  0.6923 -0.2892
24463SOL    HW280440   4.508  11.225  12.426  0.5308 -0.1118  1.3091
24464SOL     OW80441  10.176   6.307   2.515 -0.1763 -0.2035 -0.1543
24464SOL    HW180442  10.123   6.234   2.484  2.0622 -3.0000  2.0555
24464SOL    HW280443  10.255   6.305   2.461 -0.1940  0.8197 -0.2499
24465SOL     OW80444   6.996   0.871   4.174  0.1389  0.2196  0.3482
24465SOL    HW180445   7.009   0.960   4.141  0.3841  0.5414  1.2805
24465SOL    HW280446   7.065   0.819   4.131  1.0147  0.8073  1.0176
24466SOL     OW80447   4.014  12.252   7.071 -0.0606 -0.0695  0.4611
24466SOL    HW180448   3.950  12.233   7.003  1.4676 -2.5066 -0.4097
24466SOL    HW280449   4.027  12.347   7.067 -2.7853  0.3576 -0.0108
24467SOL     OW80450   3.810  11.079   0.609  0.4912 -0.3626  0.0921
24467SOL    HW180451   3.827  11.020   0.535  0.7269 -0.8296  0.5114
24467SOL    HW280452   3.755  11.028   0.668  1.6368 -0.5990  1.0016
24468SOL     OW80453   0.789   8.330  10.623  0.6258  0.4895 -0.4325
24468SOL    HW180454   0.728   8.403  10.636 -1.3089 -0.8610 -1.4254
24468SOL    HW280455   0.842   8.357  10.548  0.1552  1.0228 -0.5841
24469SOL     OW80456   9.193  12.011   3.785  0.5256  0.2042  0.6685
24469SOL    HW180457   9.099  12.001   3.798  0.1357  3.0058  0.5803
24469SOL    HW280458   9.230  12.008   3.873  0.4323 -1.0999  0.6903
24470SOL     OW80459  11.989  12.199   1.877 -0.2139  0.2967  0.0802
24470SOL    HW180460  12.047  12.160   1.811  0.3942 -0.0653  0.8117
24470SOL    HW280461  11.963  12.283   1.839  1.2714  0.7428 -0.0154
24471SOL     OW80462   5.178  12.403   7.914 -0.4543  0.2166 -0.5006
24471SOL    HW180463   5.162  12.484   7.963  0.2773 -0.5163  1.0167
24471SOL    HW280464   5.267  12.412   7.880 -0.5791  0.2846 -0.8116
24472SOL     OW80465   1.104   4.273  11.328 -0.3055 -0.2393  0.0705
24472SOL    HW180466   1.078   4.272  11.236  1.4651 -0.9180 -0.4565
24472SOL    HW280467   1.086   4.184  11.359  1.6537 -0.8474 -0.4180
24473SOL     OW80468   8.704   6.103  11.254 -0.3816  0.2332  0.1089
24473SOL    HW180469   8.755   6.114  11.334 -0.3468 -0.9752  0.2796
24473SOL    HW280470   8.655   6.184  11.245  0.7528  0.9978  0.5255
24474SOL     OW80471   9.021   9.142   4.032 -0.1059  0.1781  0.1916
24474SOL    HW180472   8.975   9.161   3.950  0.1075  0.4583  0.1381
24474SOL    HW280473   8.957   9.164   4.100  0.6688  2.6376  0.1844
24475SOL     OW80474   4.656   1.336   4.744  0.1925 -0.5601 -0.5508
24475SOL    HW180475   4.701   1.355   4.661  2.1784 -1.9340  0.1365
24475SOL    HW280476   4.716   1.369   4.811 -0.7537 -0.6931  0.3701
24476SOL     OW80477   5.517   9.425  12.071 -0.1192 -0.0623  0.0065
24476SOL    HW180478   5.606   9.449  12.098  0.6799 -2.2555 -0.4621
24476SOL    HW280479   5.500   9.480  11.994  0.9872  0.1331 -0.1167
24477SOL     OW80480   7.003   8.150   3.300  0.4139 -0.1663  0.4063
24477SOL    HW180481   6.960   8.111   3.224  0.0204  0.0247  0.5335
24477SOL    HW280482   7.067   8.211   3.263  1.4055 -1.2948  0.1836
24478SOL     OW80483   5.595  10.967   3.803 -0.2862 -0.0965 -0.0860
24478SOL    HW180484   5.569  10.898   3.864 -0.5583  1.5703  1.7816
24478SOL    HW280485   5.659  10.925   3.745 -2.7696 -2.7249 -1.1133
24479SOL     OW80486  10.889   6.547   5.236  0.2418  0.0565  0.1801
24479SOL    HW180487  10.841   6.599   5.300  2.5667  0.8137  1.4377
24479SOL    HW280488  10.903   6.606   5.162  1.0306  0.5626  0.7134
24480SOL     OW80489   0.906   1.668   0.753  0.2554  0.5449 -0.1450
24480SOL    HW180490   0.815   1.692   0.734  0.8937  3.1667 -0.1860
24480SOL    HW280491   0.926   1.600   0.689 -1.3669  0.6284 -0.8007
24481SOL     OW80492   6.966   2.524   2.510 -0.1845  0.7598  0.4745
24481SOL    HW180493   6.924   2.610   2.512 -0.8893  0.5685 -2.4473
24481SOL    HW280494   7.053   2.540   2.476  0.2527  0.4642  1.4053
24482SOL     OW80495   0.583   1.374  11.862  0.3720 -0.0877 -0.5098
24482SOL    HW180496   0.525   1.354  11.936  1.0855  0.0384  0.0948
24482SOL    HW280497   0.619   1.460  11.882  1.6910 -0.6686 -0.2607
24483SOL     OW80498   5.315   8.757   5.241 -0.0214 -0.8887  0.1814
24483SOL    HW180499   5.325   8.759   5.146  1.9020  0.5922  0.3393
24483SOL    HW280500   5.221   8.753   5.256 -0.3978 -0.3119 -1.7847
24484SOL     OW80501   2.161   0.300   8.487  0.0600  0.0268 -0.3103
24484SOL    HW180502   2.181   0.305   8.393  1.2662  2.6319  0.0136
24484SOL    HW280503   2.247   0.297   8.529 -0.4687 -1.4653  0.7602
24485SOL     OW80504  11.115   5.282   2.585 -0.2986 -0.2352 -0.2071
24485SOL    HW180505  11.178   5.349   2.556 -0.5082 -0.8671 -2.3250
24485SOL    HW280506  11.169   5.205   2.604 -0.3086 -0.5200 -1.2278
24486SOL     OW80507  12.471   9.374   2.739  0.0701 -0.2404 -0.7437
24486SOL    HW180508  12.501   9.453   2.784 -0.3765  0.2807 -1.3415
24486SOL    HW280509  12.479   9.305   2.805 -3.2375  0.9678  1.1808
24487SOL     OW80510   6.255  10.609   6.397  0.3363  0.2141 -0.2959
24487SOL    HW180511   6.210  10.692   6.380  0.8003  0.6085  0.3249
24487SOL    HW280512   6.253  10.600   6.492 -0.1995 -0.7763 -0.3897
24488SOL     OW80513   1.800   5.915   2.337  0.2461 -0.0442  0.2520
24488SOL    HW180514   1.862   5.929   2.266 -2.0946 -0.8822 -2.1198
24488SOL    HW280515   1.794   5.820   2.345  0.4455  0.0335  1.6195
24489SOL     OW80516   5.248   0.230  10.674  0.3284 -0.2258  0.1427
24489SOL    HW180517   5.165   0.276  10.667 -0.6945 -2.1599 -1.8753
24489SOL    HW280518   5.308   0.279  10.618  0.4073  0.8203  1.1092
24490SOL     OW80519   0.089   9.598  10.004 -0.8070  0.2882 -0.5622
24490SOL    HW180520   0.155   9.539  10.042  0.2857  2.1918  0.6307
24490SOL    HW280521   0.014   9.591  10.064 -0.3445  0.7635  0.0860
24491SOL     OW80522   6.472   0.591  11.128  0.2294 -0.9750 -0.1882
24491SOL    HW180523   6.465   0.537  11.206 -1.4208 -0.7014 -0.1114
24491SOL    HW280524   6.538   0.547  11.074  2.1854 -0.5939  1.7664
24492SOL     OW80525   8.092   3.622   2.758 -0.0888 -0.5095 -0.5595
24492SOL    HW180526   8.150   3.547   2.775 -0.5356 -0.9258 -0.8437
24492SOL    HW280527   8.096   3.674   2.839  0.9332 -0.3561 -0.6944
24493SOL     OW80528  11.441   1.908   2.623  0.6661  0.1695  0.2871
24493SOL    HW180529  11.490   1.962   2.561  0.2002 -0.0374 -0.2633
24493SOL    HW280530  11.378   1.860   2.570 -1.8315  2.2330  1.2033
24494SOL     OW80531   9.607  10.712   8.918 -0.0244 -0.0970  0.0201
24494SOL    HW180532   9.563  10.643   8.967  1.5517 -0.4990  0.9410
24494SOL    HW280533   9.536  10.762   8.878 -1.3684 -0.2241  2.0882
24495SOL     OW80534  12.147   5.983   6.018 -0.8732 -0.2153 -0.4901
24495SOL    HW180535  12.102   5.960   5.937  1.3298 -0.0912 -1.8377
24495SOL    HW280536  12.145   5.903   6.070 -0.4696 -0.9936 -1.6122
24496SOL     OW80537   1.452   1.133   6.794 -0.1502 -0.6609 -0.2530
24496SOL    HW180538   1.438   1.228   6.798  1.4613 -0.3945  0.2665
24496SOL    HW280539   1.376   1.099   6.748 -1.5010  0.7175  0.8445
24497SOL     OW80540  11.041   9.292   4.962 -0.5859 -0.3402  0.2267
24497SOL    HW180541  11.049   9.343   5.042 -3.5587  1.2686 -0.3305
24497SOL    HW280542  10.990   9.349   4.903  1.3476 -1.5070 -2.7710
24498SOL     OW80543  12.492   8.791   9.663 -0.8638  0.2988  0.2191
24498SOL    HW180544  12.569   8.836   9.695 -0.5341  0.4044 -0.7081
24498SOL    HW280545  12.426   8.804   9.732 -0.3284  0.9324  0.6173
24499SOL     OW80546   2.980   3.658  11.713 -0.2890 -0.4488  0.2703
24499SOL    HW180547   3.045   3.601  11.672 -2.3600 -0.7038 -3.0162
24499SOL    HW280548   3.030   3.735  11.741  1.5537 -0.8681 -1.5733
24500SOL     OW80549   0.832   7.585   2.302  0.4469  0.1596  0.0036
24500SOL    HW180550   0.908   7.527   2.300  0.7703  0.4636  1.9862
24500SOL    HW280551   0.844   7.638   2.380 -0.6627  1.8155 -0.8955
24501SOL     OW80552   3.473   1.775   4.633  0.0263  0.2183  0.3305
24501SOL    HW180553   3.405   1.708   4.637  1.9308 -1.7923  0.9367
24501SOL    HW280554   3.429   1.855   4.663 -2.6617 -0.3693 -1.6646
24502SOL     OW80555   4.831   5.339   2.088  0.1480 -0.2185 -0.3141
24502SOL    HW180556   4.812   5.271   2.152 -0.5945  0.6498  0.4243
24502SOL    HW280557   4.923   5.360   2.102  0.2648 -0.7706 -0.2518
24503SOL     OW80558   1.703   9.552  10.612  0.2667 -0.5635 -0.0808
24503SOL    HW180559   1.613   9.574  10.634  1.1220  1.6754  1.5074
24503SOL    HW280560   1.738   9.512  10.691  0.6079 -1.7442 -0.8030
24504SOL     OW80561   6.597   9.563   4.211 -0.3547  0.4752 -0.6270
24504SOL    HW180562   6.571   9.612   4.133  0.0838  0.0151 -1.0757
24504SOL    HW280563   6.529   9.582   4.275  0.1156  2.1523 -0.5758
24505SOL     OW80564   9.858   0.663   6.282  0.0659 -0.1955  0.1682
24505SOL    HW180565   9.833   0.713   6.359  0.2836  0.9381 -0.4734
24505SOL    HW280566   9.953   0.668   6.279  0.1353 -1.1148  0.3844
24506SOL     OW80567   4.223  11.433  10.960 -0.4674 -0.6530 -0.7874
24506SOL    HW180568   4.248  11.347  10.993 -0.0111 -0.3998 -0.4541
24506SOL    HW280569   4.268  11.495  11.018 -2.0409 -0.1760 -0.0079
24507SOL     OW80570   6.188   1.002   6.720 -0.2112  0.3321  0.0877
24507SOL    HW180571   6.232   1.021   6.803  0.2945 -1.4390  0.2624
24507SOL    HW280572   6.197   1.083   6.669 -0.9149  1.6153  1.8931
24508SOL     OW80573   3.305   1.892   7.064  0.3657  0.1733  0.3866
24508SOL    HW180574   3.357   1.927   7.137  0.7150 -0.2593  0.3524
24508SOL    HW280575   3.370   1.847   7.009  0.3935  1.9056 -1.0745
24509SOL     OW80576  11.677   5.867   3.870  0.1747 -0.5224 -0.0746
24509SOL    HW180577  11.630   5.948   3.887 -0.8926 -0.9306 -0.9715
24509SOL    HW280578  11.760   5.895   3.830 -0.0492  0.1346 -0.0790
24510SOL     OW80579   1.559  12.514   2.320  0.0537  0.6472  0.1933
24510SOL    HW180580   1.592  12.566   2.247 -0.1434  2.1415  1.1389
24510SOL    HW280581   1.492  12.458   2.280 -0.3791  1.7638 -0.7107
24511SOL     OW80582  12.057  12.259   5.191 -0.2478  0.2468 -0.4723
24511SOL    HW180583  12.117  12.321   5.233 -1.2885  1.6529 -0.9741
24511SOL    HW280584  12.114  12.199   5.143  0.7733  2.4356 -2.1797
24512SOL     OW80585   5.654   1.726   3.723  0.0144 -0.0843 -0.1523
24512SOL    HW180586   5.651   1.810   3.768 -3.2681  0.8285 -1.7675
24512SOL    HW280587   5.731   1.733   3.666  0.0251  1.7193  0.0201
24513SOL     OW80588   9.323   2.780   4.873  0.0795  0.2985 -0.0351
24513SOL    HW180589   9.335   2.854   4.813 -0.4958 -0.3942 -1.0397
24513SOL    HW280590   9.230   2.758   4.865 -0.4007  1.1661  2.3147
24514SOL     OW80591   8.785   5.089  12.387 -0.8195  0.1049  0.3202
24514SOL    HW180592   8.724   5.102  12.460 -0.3405 -1.0647  0.9502
24514SOL    HW280593   8.840   5.015  12.414  1.1411  1.3478 -0.0490
24515SOL     OW80594   1.272   6.041   4.805  0.9528  0.6893 -0.5096
24515SOL    HW180595   1.319   6.125   4.800  2.4487  0.0770  1.5243
24515SOL    HW280596   1.297   5.994   4.726 -0.1718  2.2608 -1.8469
24516SOL     OW80597   6.314   8.175   0.283 -0.3015 -0.3021 -0.1022
24516SOL    HW180598   6.291   8.263   0.253  0.3009  0.1188  0.6291
24516SOL    HW280599   6.365   8.138   0.211 -0.4213  0.0144 -0.3507
24517SOL     OW80600   5.250   0.379   7.565 -0.8544  0.1491  0.1119
24517SOL    HW180601   5.311   0.360   7.494  0.6663 -0.7787  1.5896
24517SOL    HW280602   5.305   0.412   7.636 -1.8567 -1.6523  1.8600
24518SOL     OW80603   7.345   6.768   2.384 -0.0336  0.0476 -0.0789
24518SOL    HW180604   7.255   6.775   2.353 -0.0092 -1.4674 -0.5508
24518SOL    HW280605   7.399   6.790   2.308 -0.0002 -0.9884 -0.3668
24519SOL     OW80606   3.282   0.321   8.203 -0.1490  0.4874  0.2262
24519SOL    HW180607   3.283   0.381   8.278  1.0181 -0.4177  0.9690
24519SOL    HW280608   3.270   0.235   8.242 -1.6262  0.1917 -0.8180
24520SOL     OW80609   3.337  11.548   5.930 -0.4697  0.2063 -0.6243
24520SOL    HW180610   3.379  11.550   6.016  0.8781 -1.5982 -1.1896
24520SOL    HW280611   3.292  11.632   5.924 -0.1298  0.6136  1.6030
24521SOL     OW80612   3.164   7.114   8.216 -0.7062  0.4489 -0.0109
24521SOL    HW180613   3.071   7.092   8.219 -0.6055 -0.2453 -1.4462
24521SOL    HW280614   3.209   7.031   8.228 -0.2859  0.5251 -0.9950
24522SOL     OW80615   5.147   1.820   3.252  0.3675  0.0269 -0.2193
24522SOL    HW180616   5.193   1.829   3.169  0.3325  0.5961 -0.1785
24522SOL    HW280617   5.209   1.850   3.318 -0.3132  1.5262 -0.2354
24523SOL     OW80618   5.475   4.653   5.361 -1.2054  0.1223 -0.3476
24523SOL    HW180619   5.466   4.558   5.358  1.1938 -0.3345  2.5647
24523SOL    HW280620   5.443   4.677   5.447  0.7624  1.5501  0.0488
24524SOL     OW80621  12.024   5.098   8.184 -0.1810 -0.5930 -0.2680
24524SOL    HW180622  11.945   5.056   8.151 -1.4937  1.0639  0.6484
24524SOL    HW280623  12.009   5.108   8.278  1.0184 -0.0464 -0.1117
24525SOL     OW80624   8.680   1.930   6.644 -0.0731 -1.1223  0.2669
24525SOL    HW180625   8.674   1.978   6.562  2.4626 -0.5701  0.3211
24525SOL    HW280626   8.745   1.862   6.628 -1.3692 -2.6230  1.1101
24526SOL     OW80627   4.902   4.989  11.190 -0.1616  0.4776 -0.4800
24526SOL    HW180628   4.868   5.067  11.234 -0.1910  0.5080 -0.5571
24526SOL    HW280629   4.917   4.926  11.260 -1.3916  0.0793 -0.5581
24527SOL     OW80630  11.481   0.116   3.571  0.6095  0.2654  0.1422
24527SOL    HW180631  11.475   0.211   3.557 -0.5142  0.0975 -0.6519
24527SOL    HW280632  11.397   0.082   3.541  0.6969 -0.9093  1.1470
24528SOL     OW80633  11.921  11.533   1.685  0.1838 -0.1469  0.0360
24528SOL    HW180634  11.982  11.490   1.624  0.3309  0.5808 -0.3406
24528SOL    HW280635  11.869  11.591   1.630  0.7393  0.9894  0.6843
24529SOL     OW80636   6.902   6.104   1.483 -0.1013  0.3619 -0.0841
24529SOL    HW180637   6.885   6.017   1.445 -1.5181  1.1101 -1.2488
24529SOL    HW280638   6.903   6.089   1.577  0.0821 -0.9844 -0.2728
24530SOL     OW80639   8.600   1.645   0.992  0.2101 -0.0974  0.2802
24530SOL    HW180640   8.519   1.598   1.011  1.0485 -1.1310  1.5136
24530SOL    HW280641   8.579   1.737   1.008 -0.5740 -0.4148  1.1503
24531SOL     OW80642   6.265   8.457   6.578  1.1455 -0.1282  0.0792
24531SOL    HW180643   6.191   8.442   6.519  0.5732 -2.2029  1.2147
24531SOL    HW280644   6.340   8.472   6.520  0.1215  0.5319 -1.1130
24532SOL     OW80645   6.658   0.704   7.409 -0.2260  0.5955 -0.1163
24532SOL    HW180646   6.637   0.722   7.501 -1.0881 -0.7245 -0.0202
24532SOL    HW280647   6.714   0.777   7.382 -1.1947  1.8168  1.0128
24533SOL     OW80648   9.550   9.939   1.472 -0.0089  0.5043  0.0089
24533SOL    HW180649   9.498   9.883   1.529  0.3009 -1.2168 -1.3120
24533SOL    HW280650   9.549   9.895   1.387  0.2101  2.5549 -1.1377
24534SOL     OW80651   2.939   4.898   0.237 -0.3371  0.5458 -0.5141
24534SOL    HW180652   2.894   4.819   0.266  1.1192  0.0325  0.4743
24534SOL    HW280653   2.945   4.952   0.316 -0.6888  1.3335 -1.0173
24535SOL     OW80654  10.099   8.820   2.417 -0.6594  0.5799  0.4108
24535SOL    HW180655  10.018   8.855   2.453 -0.9537 -0.6254  0.9672
24535SOL    HW280656  10.092   8.725   2.429  0.1807  0.3236 -0.8939
24536SOL     OW80657  10.179   2.886   8.204 -0.0970  0.3578 -0.0369
24536SOL    HW180658  10.223   2.960   8.163 -2.0075  0.9348 -1.1692
24536SOL    HW280659  10.193   2.813   8.143 -1.1818  0.6953 -0.7099
24537SOL     OW80660   2.580   9.337   3.211  0.1666  0.3274  0.0875
24537SOL    HW180661   2.567   9.309   3.120 -0.8737 -1.4791  0.7374
24537SOL    HW280662   2.507   9.397   3.228  0.4307  0.7632 -0.2892
24538SOL     OW80663   1.728   5.602  11.504 -0.0857 -0.3201 -0.2358
24538SOL    HW180664   1.673   5.633  11.576 -0.2464  0.7942 -0.8270
24538SOL    HW280665   1.684   5.633  11.425  0.8815 -0.2476 -0.7541
24539SOL     OW80666   2.019   6.048  11.846  0.0589  0.1702  0.3355
24539SOL    HW180667   2.105   6.076  11.815  0.2716  0.0755  0.8396
24539SOL    HW280668   2.035   6.006  11.930 -0.2825 -1.2597 -0.2792
24540SOL     OW80669   8.524  11.539   7.850  0.0409  0.0153 -0.2108
24540SOL    HW180670   8.445  11.539   7.796  0.0275 -1.1851 -0.2191
24540SOL    HW280671   8.566  11.623   7.832 -0.5819  0.1308 -1.1668
24541SOL     OW80672   9.868   0.625  10.647  0.8121 -0.5678  0.1015
24541SOL    HW180673   9.827   0.581  10.722 -0.3273 -0.6448 -0.5441
24541SOL    HW280674   9.806   0.612  10.575  1.4189  0.3587 -0.6079
24542SOL     OW80675  12.191   0.089   0.653  0.0589 -0.0611 -0.4978
24542SOL    HW180676  12.286   0.097   0.663  0.1455 -0.7687 -0.6733
24542SOL    HW280677  12.175   0.104   0.560 -0.0126  0.1708 -0.4475
24543SOL     OW80678  12.548   2.210   8.077 -0.0682  0.0358 -0.0096
24543SOL    HW180679  12.507   2.201   8.163 -0.7503  1.8799 -0.0877
24543SOL    HW280680  12.569   2.121   8.051 -2.8354 -0.9087  0.6299
24544SOL     OW80681   1.162  10.372  10.830  0.4113  0.3326 -0.8109
24544SOL    HW180682   1.168  10.346  10.738 -2.4768  1.1060 -1.3363
24544SOL    HW280683   1.158  10.467  10.827  0.2850  0.3616  0.1136
24545SOL     OW80684   7.632  10.571   8.661  0.2419 -0.2635  0.3494
24545SOL    HW180685   7.621  10.506   8.730 -2.0556 -1.5895 -1.1277
24545SOL    HW280686   7.616  10.523   8.580 -1.9060  2.1283 -0.8101
24546SOL     OW80687   3.272   0.720   9.520 -0.1673  0.0720  0.0746
24546SOL    HW180688   3.256   0.805   9.480  2.0001  1.1992  1.4415
24546SOL    HW280689   3.245   0.657   9.453 -0.5472  1.8300 -1.5090
24547SOL     OW80690   4.861   7.686   0.766  0.3211 -0.4336  0.5618
24547SOL    HW180691   4.767   7.690   0.786 -0.4678 -1.9565 -2.3082
24547SOL    HW280692   4.886   7.596   0.784  0.8249 -0.4487 -0.1492
24548SOL     OW80693   2.034  12.226   1.909 -0.1878 -0.4578 -0.6411
24548SOL    HW180694   2.084  12.189   1.981 -1.5140  1.1750  1.2384
24548SOL    HW280695   2.084  12.303   1.882 -0.9048  0.3408  0.2506
24549SOL     OW80696   0.832   5.616   3.398 -0.3345 -0.0858 -0.1714
24549SOL    HW180697   0.786   5.700   3.402  0.6591  0.4407  0.4518
24549SOL    HW280698   0.855   5.607   3.305  0.8399  1.0691 -0.0318
24550SOL     OW80699   3.479  10.376   8.542  0.0490  0.3458  0.6497
24550SOL    HW180700   3.477  10.318   8.466 -1.2116 -0.5319  1.3276
24550SOL    HW280701   3.546  10.339   8.599 -0.4111 -0.1787  0.8591
24551SOL     OW80702   8.785   3.171   2.790  0.1076 -0.4697 -0.2923
24551SOL    HW180703   8.833   3.222   2.724 -0.8645  1.2150  0.2464
24551SOL    HW280704   8.731   3.111   2.739 -1.7250  1.7704 -1.1883
24552SOL     OW80705   2.663   4.980  11.813 -0.8646  0.0164  0.3796
24552SOL    HW180706   2.659   4.886  11.832 -2.9587  0.1709  0.9421
24552SOL    HW280707   2.683   5.021  11.897 -1.5233  0.1529  0.4777
24553SOL     OW80708  10.160   1.121   6.491 -0.1234 -0.0126  0.3157
24553SOL    HW180709  10.133   1.045   6.542 -1.4678 -1.3812 -2.2203
24553SOL    HW280710  10.078   1.165   6.468  0.1820 -0.6462 -2.2881
24554SOL     OW80711   6.692   7.792   9.754 -0.5760  0.9509 -0.1334
24554SOL    HW180712   6.755   7.860   9.728  0.5030 -0.4252 -1.3102
24554SOL    HW280713   6.611   7.816   9.709 -0.1882  1.4272 -0.5956
24555SOL     OW80714   5.939   5.020  10.112 -0.0266  0.1111 -0.2301
24555SOL    HW180715   5.971   5.071  10.187 -0.4782 -0.1355  0.1331
24555SOL    HW280716   5.960   5.075  10.036 -1.4420  1.3637  0.2252
24556SOL     OW80717   7.364   9.105   1.548  0.0439  0.3776 -0.2532
24556SOL    HW180718   7.291   9.081   1.491 -0.4139  1.4597 -0.1571
24556SOL    HW280719   7.429   9.036   1.535 -1.3767 -1.1437  0.3769
24557SOL     OW80720  12.011   4.128   9.362  0.1979 -0.3213  0.5870
24557SOL    HW180721  11.956   4.073   9.306 -0.6614 -0.8320  1.8845
24557SOL    HW280722  12.087   4.074   9.382  2.4841  1.1496 -3.0408
24558SOL     OW80723   6.154   1.614   9.910 -0.2243  0.1982 -0.6341
24558SOL    HW180724   6.169   1.610   9.816 -1.0887 -1.4357 -0.7382
24558SOL    HW280725   6.106   1.534   9.930  0.2875  0.3154  1.2629
24559SOL     OW80726   3.299   1.491   1.746 -0.8735  0.4561  0.1414
24559SOL    HW180727   3.272   1.431   1.815 -0.4527  1.4142  1.1673
24559SOL    HW280728   3.221   1.543   1.727 -0.8520  0.5195  0.2304
24560SOL     OW80729   8.863   5.604  12.462  0.3820  0.0712 -0.8300
24560SOL    HW180730   8.918   5.534  12.496 -0.3931 -0.5233 -0.7673
24560SOL    HW280731   8.792   5.613  12.527  1.2777  1.9716 -0.0373
24561SOL     OW80732   6.449   5.340   2.284  0.4726  0.4280  0.0208
24561SOL    HW180733   6.405   5.255   2.287 -0.8478  0.9559 -2.0903
24561SOL    HW280734   6.535   5.324   2.323  0.1038 -1.7716  0.0719
24562SOL     OW80735  11.252  11.002  12.291 -0.4686 -0.3099 -0.1841
24562SOL    HW180736  11.219  11.022  12.203  0.0880  2.0076  0.0597
24562SOL    HW280737  11.346  10.990  12.279 -0.5274 -0.9869 -0.0240
24563SOL     OW80738   6.855   6.494  10.169 -0.5432  0.5424  0.4798
24563SOL    HW180739   6.911   6.449  10.106 -1.7725  2.7688 -2.4118
24563SOL    HW280740   6.914   6.552  10.216 -0.0531  1.4301 -1.1529
24564SOL     OW80741   2.396   7.215   5.486 -0.0978  0.3067  0.1303
24564SOL    HW180742   2.466   7.149   5.485 -0.4801 -0.1078  0.1237
24564SOL    HW280743   2.395   7.250   5.397 -1.0133 -0.9054 -0.3774
24565SOL     OW80744   8.689   8.773   3.737 -0.0930  0.1948 -0.8046
24565SOL    HW180745   8.596   8.791   3.722 -0.6426 -1.1892  0.6406
24565SOL    HW280746   8.724   8.755   3.650 -1.8061 -1.8658 -1.1373
24566SOL     OW80747  12.396   7.095   2.136  0.2747 -0.1967 -0.3632
24566SOL    HW180748  12.409   7.000   2.127  2.3863 -0.2390  2.0177
24566SOL    HW280749  12.326   7.103   2.201  1.9683 -0.2364  1.5533
24567SOL     OW80750   8.842   3.160   0.125 -0.2407 -0.1171 -0.4777
24567SOL    HW180751   8.885   3.245   0.128 -1.8570  0.7638 -0.9026
24567SOL    HW280752   8.914   3.096   0.125  1.0375  1.2649 -1.1961
24568SOL     OW80753  11.044   4.148   9.025 -0.4858 -0.0471  0.3229
24568SOL    HW180754  11.073   4.223   9.076 -0.8517 -0.3325  0.9653
24568SOL    HW280755  11.070   4.072   9.078 -0.8484 -0.3460  0.0736
24569SOL     OW80756   9.167   7.158   0.234  0.0216 -0.5605  1.1731
24569SOL    HW180757   9.231   7.128   0.299  2.8784  0.4066 -0.9660
24569SOL    HW280758   9.193   7.114   0.153 -2.3680 -0.4441  0.2605
24570SOL     OW80759   9.388   2.696  10.520  0.4256 -0.3349 -0.6387
24570SOL    HW180760   9.379   2.719  10.612  2.5943  1.0650 -0.7094
24570SOL    HW280761   9.344   2.611  10.512  0.7227 -0.7819  1.8146
24571SOL     OW80762   1.455   4.475  10.244  0.1794 -0.2672  0.6831
24571SOL    HW180763   1.456   4.389  10.202  0.7823  0.3797 -0.6726
24571SOL    HW280764   1.375   4.516  10.213  0.6723  0.2499  0.0769
24572SOL     OW80765   0.770   9.289   6.307 -0.0720 -0.0339 -0.2977
24572SOL    HW180766   0.752   9.286   6.401 -1.1633 -0.9062 -0.5155
24572SOL    HW280767   0.846   9.347   6.299  0.9268 -1.0799  1.2348
24573SOL     OW80768  11.782   1.805   9.981 -0.7755  0.7260  0.0042
24573SOL    HW180769  11.695   1.789  10.018 -0.2761  1.6396  1.6552
24573SOL    HW280770  11.766   1.864   9.907 -1.6212  0.1614 -0.2925
24574SOL     OW80771   1.056  10.528   0.028 -0.5340 -0.1958  0.6181
24574SOL    HW180772   1.011  10.481  -0.042 -0.5060 -1.4890  1.4353
24574SOL    HW280773   1.092  10.606  -0.014 -0.7623 -0.7982 -0.7276
24575SOL     OW80774   3.864  11.276   4.235 -0.3389  0.3825 -0.1107
24575SOL    HW180775   3.895  11.190   4.205  2.3112  1.3335 -0.3447
24575SOL    HW280776   3.823  11.314   4.157 -1.9455 -0.7919  0.1127
24576SOL     OW80777   9.252   7.114  10.394  0.2412 -0.2722  0.8054
24576SOL    HW180778   9.294   7.149  10.316 -1.3002  0.3075  0.1941
24576SOL    HW280779   9.307   7.143  10.466  0.9428  0.3563  0.0350
24577SOL     OW80780   4.189   3.823   0.680  0.3229  0.1949 -0.0305
24577SOL    HW180781   4.145   3.847   0.762 -0.2592  1.1150 -0.5994
24577SOL    HW280782   4.279   3.854   0.691  0.1724  0.5747  0.1612
24578SOL     OW80783   4.592   8.791   9.579 -0.5439 -0.2648  0.1475
24578SOL    HW180784   4.674   8.838   9.586 -0.5751 -0.1095 -0.4508
24578SOL    HW280785   4.524   8.859   9.584 -0.6119 -0.3215  0.0078
24579SOL     OW80786   5.440   0.266   7.394  0.2535  0.1015 -0.6315
24579SOL    HW180787   5.481   0.180   7.405  0.2499  0.0409 -1.0615
24579SOL    HW280788   5.451   0.286   7.301  1.0171  0.9486 -0.3746
24580SOL     OW80789  11.523   3.466   7.801 -0.0174 -0.0378  0.1395
24580SOL    HW180790  11.597   3.424   7.844 -0.0063 -1.0190 -0.7819
24580SOL    HW280791  11.448   3.447   7.857  0.0923 -0.8108  0.0409
24581SOL     OW80792  10.532   5.127   3.882 -0.7160 -0.2950 -0.0844
24581SOL    HW180793  10.540   5.093   3.793 -0.4311  1.2983 -0.6905
24581SOL    HW280794  10.545   5.050   3.938  0.8164 -1.0372 -1.3804
24582SOL     OW80795   7.774   1.554   3.847 -0.4063 -0.7405 -0.3729
24582SOL    HW180796   7.784   1.460   3.857  0.0436 -0.6588 -0.0088
24582SOL    HW280797   7.683   1.566   3.821 -0.2094 -1.3325 -1.3706
24583SOL     OW80798   3.990   6.026  11.679 -0.3216  0.3100  0.2296
24583SOL    HW180799   3.977   6.040  11.773 -1.8258  0.6999 -0.0095
24583SOL    HW280800   4.042   6.101  11.651  0.8950 -0.2541  0.8815
24584SOL     OW80801   5.744   9.613   7.006  0.2524 -0.3406 -0.1829
24584SOL    HW180802   5.728   9.703   7.036  1.3621  0.1101 -0.8600
24584SOL    HW280803   5.689   9.603   6.929 -0.5727 -0.5725  0.4256
24585SOL     OW80804   3.402   2.984   6.815 -0.1063 -0.0650 -0.1620
24585SOL    HW180805   3.351   2.903   6.821 -1.2085  0.5554 -0.9714
24585SOL    HW280806   3.363   3.032   6.742  0.8980  0.9526 -0.0519
24586SOL     OW80807   6.630  10.935   3.153 -0.5243  0.0254 -0.3825
24586SOL    HW180808   6.618  11.016   3.103  0.5058 -0.3302 -1.2486
24586SOL    HW280809   6.671  10.962   3.234 -1.5594  0.5354 -0.0195
24587SOL     OW80810   7.231   7.141   0.897  0.0493  0.1302  0.0319
24587SOL    HW180811   7.320   7.151   0.932 -0.0027 -1.0304  0.5276
24587SOL    HW280812   7.175   7.140   0.974 -0.4290  0.9493 -0.2847
24588SOL     OW80813   6.067   3.179   3.168  0.0252 -0.0782 -0.0148
24588SOL    HW180814   6.150   3.134   3.153 -0.6997 -1.4104 -0.1986
24588SOL    HW280815   6.089   3.251   3.226  1.5332  0.4174 -1.1354
24589SOL     OW80816  12.482   4.313   5.849 -0.0518  0.4599  0.0819
24589SOL    HW180817  12.405   4.259   5.868 -0.8879  1.8306  0.7929
24589SOL    HW280818  12.452   4.403   5.864  1.7458  1.0259  0.5271
24590SOL     OW80819  12.130   1.963   6.162  0.0371  0.0850 -0.1087
24590SOL    HW180820  12.152   1.873   6.141 -3.7353 -0.8888 -0.6709
24590SOL    HW280821  12.168   1.978   6.248 -0.7564 -2.7336  0.8300
24591SOL     OW80822  10.819   8.101  10.013  0.8672 -0.2320  0.6456
24591SOL    HW180823  10.754   8.126   9.948  3.1074  1.0459 -1.2957
24591SOL    HW280824  10.884   8.051   9.963  2.6157  0.6976  1.8738
24592SOL     OW80825   2.598   3.760   4.699 -0.2513  0.5351  0.2075
24592SOL    HW180826   2.589   3.669   4.670 -2.8091  0.8287 -0.1177
24592SOL    HW280827   2.679   3.760   4.750  1.1458 -1.3572 -1.7743
24593SOL     OW80828   1.246   0.144   7.766  0.6069 -0.5684 -0.5894
24593SOL    HW180829   1.228   0.120   7.675 -0.7835  0.9469 -0.7624
24593SOL    HW280830   1.321   0.204   7.761 -0.8489  1.2993 -1.0343
24594SOL     OW80831  12.220   1.728   6.639 -0.0326  0.2029 -0.1615
24594SOL    HW180832  12.209   1.633   6.637  2.2497 -0.1127 -0.4564
24594SOL    HW280833  12.235   1.749   6.731  0.3493  0.1471 -0.2096
24595SOL     OW80834   8.443   8.020   5.469 -0.3092  0.6982  0.7358
24595SOL    HW180835   8.518   8.043   5.524 -0.6043  1.5610  0.7817
24595SOL    HW280836   8.401   8.103   5.449 -0.4248  0.3624 -0.4996
24596SOL     OW80837   6.918   1.047   0.190  0.0036 -0.2814  0.5239
24596SOL    HW180838   6.898   1.048   0.283 -1.1431  0.3902  0.2893
24596SOL    HW280839   6.990   0.984   0.181 -2.0593 -2.9124  1.4219
24597SOL     OW80840   9.197  11.102   9.979 -0.3761 -0.2016 -0.5958
24597SOL    HW180841   9.136  11.174   9.963  0.5175  0.5244 -0.8370
24597SOL    HW280842   9.230  11.117  10.067  0.1427 -0.0581 -0.8110
24598SOL     OW80843   6.488   3.174   4.040 -0.1001 -0.1540  0.2638
24598SOL    HW180844   6.401   3.206   4.063  0.7645  0.8508  2.3580
24598SOL    HW280845   6.520   3.238   3.976 -0.4656  0.0874  0.3148
24599SOL     OW80846  10.060   2.967   3.661 -0.3402  0.0410  0.4681
24599SOL    HW180847   9.976   2.996   3.626 -0.7472 -0.5380  0.9476
24599SOL    HW280848  10.108   2.935   3.585 -1.6736 -2.3249  0.5461
24600SOL     OW80849   5.398   8.711   0.267 -0.3595  0.0814  0.1234
24600SOL    HW180850   5.449   8.753   0.336 -1.2470  0.9655  0.2759
24600SOL    HW280851   5.363   8.784   0.216 -1.2262 -0.5021 -0.1348
24601SOL     OW80852   4.134   6.832   2.293  0.1249 -0.6367  0.0758
24601SOL    HW180853   4.103   6.815   2.204 -0.9957  0.3480  0.2431
24601SOL    HW280854   4.218   6.876   2.282  0.1005 -0.7284 -0.4861
24602SOL     OW80855  11.864  12.429   4.637  0.2888 -0.2717 -0.0528
24602SOL    HW180856  11.833  12.383   4.715  0.3615  1.1928  0.8835
24602SOL    HW280857  11.959  12.431   4.646  0.3321 -0.5099 -0.4315
24603SOL     OW80858   7.431  10.604   2.947  0.0937  0.1971  0.2842
24603SOL    HW180859   7.399  10.560   3.026 -0.3893  1.2112  0.6592
24603SOL    HW280860   7.470  10.685   2.979  1.6080 -0.2452 -0.3281
24604SOL     OW80861   5.339   8.463   9.362  0.0996  0.1897 -0.0177
24604SOL    HW180862   5.254   8.431   9.333 -0.0612 -0.2122  0.8511
24604SOL    HW280863   5.346   8.552   9.328 -0.7197  0.2616  0.0001
24605SOL     OW80864   9.364   1.536   2.142  0.4459  0.5636 -0.5840
24605SOL    HW180865   9.272   1.522   2.167  1.1112 -1.7289  0.9923
24605SOL    HW280866   9.407   1.561   2.224  1.4410  0.1969 -0.9798
24606SOL     OW80867  10.087   5.259   3.303  0.2862  0.3305 -0.3791
24606SOL    HW180868   9.993   5.277   3.311  0.0908  0.1989 -2.0629
24606SOL    HW280869  10.116   5.314   3.230  0.8765 -1.7772 -1.8170
24607SOL     OW80870   1.410   6.590   3.510  0.1237 -0.3633 -0.1915
24607SOL    HW180871   1.347   6.583   3.581 -1.3480 -0.2545 -1.4343
24607SOL    HW280872   1.492   6.615   3.553 -0.8542  0.2773  1.3884
24608SOL     OW80873   0.619   8.129   1.875  0.0162  0.5151  0.2621
24608SOL    HW180874   0.564   8.196   1.833  1.3130 -0.0216 -2.4966
24608SOL    HW280875   0.567   8.049   1.871 -0.3187  0.6990  0.7845
24609SOL     OW80876  11.623  12.386   6.871  0.2329 -0.0395 -0.3412
24609SOL    HW180877  11.567  12.411   6.945  1.6839  0.9738  0.4593
24609SOL    HW280878  11.574  12.316   6.827 -1.1069 -0.0105  1.0077
24610SOL     OW80879   7.291   4.813   6.035  0.0084  0.1521  0.1615
24610SOL    HW180880   7.274   4.826   5.942 -0.5837 -0.7066  0.1384
24610SOL    HW280881   7.325   4.898   6.066 -0.4437  0.6457 -0.6789
24611SOL     OW80882   7.498   1.319  10.029 -0.3678 -0.2239 -0.2916
24611SOL    HW180883   7.411   1.308   9.991  0.0059 -1.7549 -0.7633
24611SOL    HW280884   7.558   1.283   9.964  0.4581 -0.9208  0.8100
24612SOL     OW80885   2.450   5.872   8.750  0.8451 -0.1061  0.1916
24612SOL    HW180886   2.497   5.907   8.675 -1.4748  0.5064 -1.0504
24612SOL    HW280887   2.451   5.942   8.815 -0.4785  0.8790 -0.8112
24613SOL     OW80888   1.549   2.268   0.310 -0.5558 -0.3007  0.1209
24613SOL    HW180889   1.617   2.335   0.318 -1.7546  1.0538 -0.5803
24613SOL    HW280890   1.534   2.260   0.216 -1.0274 -0.9406  0.2447
24614SOL     OW80891  10.935   8.186   3.344  0.4087  0.0204 -0.3042
24614SOL    HW180892  11.030   8.180   3.354  0.2165 -0.2801  1.8448
24614SOL    HW280893  10.904   8.096   3.351 -0.1368  0.2694  0.8072
24615SOL     OW80894   4.020  11.468   7.343  0.6627 -0.6955  0.1739
24615SOL    HW180895   4.093  11.432   7.294  2.0271  0.0329  1.5742
24615SOL    HW280896   3.948  11.407   7.328  1.9186 -2.1422 -0.1968
24616SOL     OW80897  11.140   7.843   3.536  0.1707 -0.2209 -0.6732
24616SOL    HW180898  11.059   7.892   3.521 -0.0799 -0.3907  0.0719
24616SOL    HW280899  11.163   7.863   3.627  0.6252 -0.6728 -0.6857
24617SOL     OW80900   9.003   3.519   5.927  0.5240  0.1362  0.4358
24617SOL    HW180901   8.952   3.447   5.965 -1.4771  1.3264  0.1318
24617SOL    HW280902   9.048   3.558   6.002  1.6885 -1.3997  0.6002
24618SOL     OW80903   0.830   3.452   6.708 -0.7100 -0.7595 -0.2123
24618SOL    HW180904   0.850   3.507   6.632  1.3370 -1.7421 -0.4363
24618SOL    HW280905   0.829   3.363   6.674 -2.5488 -1.0329  0.4319
24619SOL     OW80906   4.491   1.032   0.837  0.6182 -0.2106  0.4334
24619SOL    HW180907   4.573   0.987   0.857  0.5384 -0.4022  0.3349
24619SOL    HW280908   4.443   1.034   0.920  0.3473 -0.8795  0.3040
24620SOL     OW80909   4.940   0.648   6.475  0.0550 -0.3082  0.1415
24620SOL    HW180910   4.893   0.716   6.427 -1.7269 -0.3499  1.7193
24620SOL    HW280911   4.883   0.572   6.472  1.1145 -1.1228  0.1030
24621SOL     OW80912   9.545   6.499  10.027 -0.3897  0.1123  0.4577
24621SOL    HW180913   9.631   6.537  10.044 -0.5292  0.3125  0.7306
24621SOL    HW280914   9.506   6.556   9.961 -0.5371  0.3529  0.7519
24622SOL     OW80915  10.351   1.207   1.890  0.0602 -0.2221 -0.5241
24622SOL    HW180916  10.329   1.258   1.812 -1.5322 -1.1780 -0.7696
24622SOL    HW280917  10.446   1.202   1.890  0.1256  0.4416 -1.9989
24623SOL     OW80918   5.632   7.172   0.143 -0.4022  0.5244  0.0601
24623SOL    HW180919   5.703   7.174   0.079  1.7094 -1.6686  2.1083
24623SOL    HW280920   5.563   7.120   0.100  0.0790  0.8651 -1.1727
24624SOL     OW80921   1.201   4.280   2.365 -0.1908 -0.1793  0.2185
24624SOL    HW180922   1.113   4.259   2.332 -0.1631 -2.0208  1.2182
24624SOL    HW280923   1.228   4.201   2.412  1.9658  0.4035  0.0170
24625SOL     OW80924   8.655  10.063  10.003  0.1324  0.3181  0.4123
24625SOL    HW180925   8.676  10.150  10.036 -0.7977  1.7187 -2.3535
24625SOL    HW280926   8.698  10.059   9.917  0.2291 -2.0208  0.4976
24626SOL     OW80927   3.856   2.872   7.621  0.1424 -0.3960 -0.1079
24626SOL    HW180928   3.854   2.848   7.714 -1.1049 -1.6039 -0.4029
24626SOL    HW280929   3.819   2.960   7.618  0.1660 -0.3592  0.5497
24627SOL     OW80930   7.763   0.852   2.485  0.1959  0.0915 -0.0029
24627SOL    HW180931   7.678   0.812   2.505 -0.8516  1.4956 -1.4042
24627SOL    HW280932   7.787   0.818   2.399  2.3339 -2.1942  1.3567
24628SOL     OW80933   8.078   1.689  10.646 -0.3343 -0.7655 -0.3095
24628SOL    HW180934   8.153   1.651  10.600 -0.0229 -0.2360 -0.2438
24628SOL    HW280935   8.107   1.777  10.671 -1.7821  0.3814 -2.3565
24629SOL     OW80936   6.880   0.586   1.532 -0.5870  0.4985 -0.5202
24629SOL    HW180937   6.852   0.526   1.602 -1.0535  1.3995  0.0794
24629SOL    HW280938   6.975   0.575   1.529 -0.6476 -0.1571 -0.3130
24630SOL     OW80939   0.092  12.380   6.248  0.3457  0.2224 -0.7481
24630SOL    HW180940   0.087  12.291   6.283 -0.5242  0.1821 -0.9523
24630SOL    HW280941   0.142  12.429   6.313  0.9370 -0.4423 -0.6963
24631SOL     OW80942   1.905   5.989  10.767 -0.1112 -0.0785 -0.3905
24631SOL    HW180943   1.952   6.025  10.842  0.1247  0.7655 -0.9345
24631SOL    HW280944   1.829   5.945  10.805  1.3624 -1.9339  0.5561
24632SOL     OW80945  10.597   8.963   5.113 -0.2627 -0.2793 -0.2511
24632SOL    HW180946  10.668   8.966   5.177 -2.0822 -1.6097  2.0188
24632SOL    HW280947  10.639   8.940   5.030  2.2337  1.8048  0.3276
24633SOL     OW80948   1.662  10.408  11.669  0.2765  0.0903 -0.3777
24633SOL    HW180949   1.589  10.428  11.611  1.1898  0.0487 -1.6001
24633SOL    HW280950   1.740  10.431  11.618  1.1031  2.6841  1.8381
24634SOL     OW80951   2.230   4.337  11.480  0.2503  0.6328 -0.2676
24634SOL    HW180952   2.203   4.249  11.456  1.3593  0.7444 -2.1416
24634SOL    HW280953   2.278   4.325  11.562  0.3540 -0.5141 -0.4719
24635SOL     OW80954   8.640   8.863  10.121  0.0362  0.1790 -0.1762
24635SOL    HW180955   8.633   8.851  10.215  1.9260  0.2813  0.0068
24635SOL    HW280956   8.666   8.777  10.088  2.1784  0.8116 -0.2379
24636SOL     OW80957   2.243   4.049  10.829  0.1466  0.4175  0.1219
24636SOL    HW180958   2.313   4.051  10.763  1.3663  1.5586  1.3865
24636SOL    HW280959   2.163   4.043  10.778  0.9885  2.2247 -1.5452
24637SOL     OW80960   9.443   6.427  12.302  0.2559 -0.2990 -0.7653
24637SOL    HW180961   9.411   6.506  12.345 -0.7365 -0.9969 -0.1912
24637SOL    HW280962   9.488   6.378  12.371 -1.4398 -1.4767 -0.4553
24638SOL     OW80963  11.556   5.853   4.537 -0.6723  0.3929 -0.1764
24638SOL    HW180964  11.606   5.829   4.459 -0.5921  0.8927 -0.2816
24638SOL    HW280965  11.540   5.770   4.582  0.2772  0.2277 -0.1254
24639SOL     OW80966   9.006   6.496   4.164  0.3594 -0.5722  0.0975
24639SOL    HW180967   8.935   6.534   4.216  1.6449  1.2637  0.6362
24639SOL    HW280968   9.084   6.505   4.220  1.2521 -1.3043 -0.9824
24640SOL     OW80969  12.009   8.377   0.169  0.0013 -0.0226 -0.0806
24640SOL    HW180970  12.078   8.437   0.199  0.2973 -0.1293 -0.5410
24640SOL    HW280971  11.929   8.409   0.211  0.1928  0.5694 -0.1601
24641SOL     OW80972   6.792   8.583  12.472 -0.0565 -0.3317  0.0926
24641SOL    HW180973   6.808   8.628  12.554 -0.7997  0.4955 -0.2095
24641SOL    HW280974   6.869   8.603  12.418  1.1584 -2.0895  1.0654
24642SOL     OW80975   9.771  12.142   5.236  0.0164  0.9042 -0.3157
24642SOL    HW180976   9.824  12.211   5.277  1.5292  0.1834 -0.9575
24642SOL    HW280977   9.797  12.062   5.283 -0.3951  0.5170 -0.7456
24643SOL     OW80978   2.018   9.926   9.333 -0.1834 -0.1332 -0.0008
24643SOL    HW180979   1.937   9.912   9.284  0.2095 -0.5567 -0.5346
24643SOL    HW280980   2.088   9.921   9.268  0.1691  2.4356  0.0500
24644SOL     OW80981   1.228   8.188  11.244 -0.2318  0.4359 -0.1803
24644SOL    HW180982   1.213   8.260  11.183 -0.3655  0.0450 -0.6080
24644SOL    HW280983   1.145   8.180  11.291  0.0482  1.0995  0.4458
24645SOL     OW80984  11.871  10.987   7.083  0.0444  0.1048  0.6609
24645SOL    HW180985  11.847  10.905   7.127  0.6583 -1.3577 -1.5583
24645SOL    HW280986  11.788  11.021   7.049  0.0780 -1.0351 -0.6559
24646SOL     OW80987   0.337  11.742   1.203 -0.1715  0.1210 -0.3716
24646SOL    HW180988   0.286  11.819   1.228  0.6281  0.6086 -0.2244
24646SOL    HW280989   0.294  11.710   1.123 -0.3537  0.8650 -0.5806
24647SOL     OW80990   9.618   4.223   3.361 -0.0714 -0.1034 -0.0948
24647SOL    HW180991   9.565   4.221   3.441 -0.2415  0.4982 -0.1891
24647SOL    HW280992   9.659   4.309   3.362 -0.5975  0.1699 -0.9869
24648SOL     OW80993   3.686   9.350   8.657 -0.3598  0.1362  0.0045
24648SOL    HW180994   3.652   9.261   8.669  1.2267 -0.4995 -0.0563
24648SOL    HW280995   3.609   9.406   8.666 -1.4648 -1.2691 -0.4036
24649SOL     OW80996  11.604   8.466   2.954  1.1762 -0.3173 -0.0910
24649SOL    HW180997  11.582   8.417   2.874 -0.3857 -0.8218  0.6134
24649SOL    HW280998  11.609   8.557   2.926 -2.0331 -0.1187 -0.3483
24650SOL     OW80999  10.179   1.323   4.565  0.1734  0.8166  0.3247
24650SOL    HW181000  10.232   1.263   4.619  2.5692  2.6815  0.2054
24650SOL    HW281001  10.172   1.403   4.617 -2.3920  0.7757  0.1888
24651SOL     OW81002  11.310   6.181   8.783 -0.1815  0.6251  0.1539
24651SOL    HW181003  11.293   6.143   8.697 -0.5430  1.5075 -0.1754
24651SOL    HW281004  11.265   6.123   8.845  0.7980 -0.5014 -0.1504
24652SOL     OW81005   9.335   0.771   9.925 -0.2953  0.0741  0.3487
24652SOL    HW181006   9.339   0.679   9.901  0.8527 -0.0485  0.9134
24652SOL    HW281007   9.389   0.777  10.004 -0.8613  1.1217  0.6749
24653SOL     OW81008   1.502   7.364   4.685 -0.7541  0.2297  0.2972
24653SOL    HW181009   1.594   7.387   4.703 -0.8177  0.3028  0.5302
24653SOL    HW281010   1.483   7.405   4.600 -0.4225 -0.1992  0.0116
24654SOL     OW81011   7.940   9.636   5.965 -0.4978  0.3312 -0.3078
24654SOL    HW181012   7.889   9.714   5.986  0.8480  1.4301 -0.9148
24654SOL    HW281013   7.975   9.653   5.878 -0.0416 -0.8921 -0.3887
24655SOL     OW81014   0.654   7.397   0.892 -0.1102 -0.2222  0.2411
24655SOL    HW181015   0.666   7.431   0.981  0.7639 -1.2612  0.5437
24655SOL    HW281016   0.684   7.468   0.835  0.5309 -0.0185  0.8177
24656SOL     OW81017   4.938   8.743   3.266  0.5670  0.1646  0.1288
24656SOL    HW181018   4.876   8.801   3.311 -0.4349 -0.4845 -0.3583
24656SOL    HW281019   4.920   8.758   3.173  1.5579  0.3839 -0.0348
24657SOL     OW81020  10.914   6.744   5.031  0.2468 -0.1221 -0.0134
24657SOL    HW181021  10.938   6.835   5.052  1.4322 -0.5597  0.6678
24657SOL    HW281022  10.953   6.728   4.945  0.7784 -0.2311  0.2406
24658SOL     OW81023   9.004   6.681  12.268  0.5264 -0.2036 -0.6744
24658SOL    HW181024   9.064   6.744  12.228  1.0634 -0.7435 -0.7306
24658SOL    HW281025   9.059   6.631  12.328  0.2561 -1.0657 -1.1293
24659SOL     OW81026   9.228   8.424   0.648 -0.2256 -0.0388 -0.1567
24659SOL    HW181027   9.207   8.374   0.727  1.2707  0.1134  0.3664
24659SOL    HW281028   9.147   8.470   0.627 -1.0665 -1.1967  0.4484
24660SOL     OW81029   4.594   1.770   2.899  0.7090  0.2233  0.1549
24660SOL    HW181030   4.611   1.725   2.981  1.3869  0.0747 -0.0631
24660SOL    HW281031   4.550   1.705   2.844  1.1741  0.0056  0.0404
24661SOL     OW81032   3.614  10.034   2.580 -0.6244 -0.1945 -0.9137
24661SOL    HW181033   3.624  10.075   2.666 -2.8925 -0.3820 -0.4988
24661SOL    HW281034   3.684   9.970   2.576  1.4428  1.9086 -0.5127
24662SOL     OW81035   1.883   1.527   4.280  0.0416  0.7389  0.0314
24662SOL    HW181036   1.812   1.552   4.338  0.9124 -0.2963  1.6016
24662SOL    HW281037   1.919   1.611   4.249 -0.5301  1.3061  0.8644
24663SOL     OW81038   0.656   5.461   2.129 -0.2667 -0.3295 -0.1673
24663SOL    HW181039   0.706   5.535   2.164 -0.1623 -0.3689 -0.2322
24663SOL    HW281040   0.722   5.405   2.087 -0.6179  0.7733 -2.3192
24664SOL     OW81041   7.249   3.146   5.334 -0.4326  0.2133 -0.4103
24664SOL    HW181042   7.312   3.170   5.266 -0.2501  1.6371  0.2400
24664SOL    HW281043   7.252   3.050   5.336  2.5270  0.2414  0.3593
24665SOL     OW81044   1.418   0.541   5.374  0.3061  0.1804  0.1999
24665SOL    HW181045   1.377   0.463   5.336  2.4197 -0.5303 -0.8114
24665SOL    HW281046   1.346   0.602   5.387 -1.2373 -1.4470 -0.2405
24666SOL     OW81047  11.015   5.360   4.815  0.1645 -0.0375 -0.0716
24666SOL    HW181048  10.920   5.368   4.824  0.0220  0.1973 -1.5864
24666SOL    HW281049  11.031   5.266   4.813  0.0944 -0.0973  1.2010
24667SOL     OW81050  11.194   3.364   5.738 -0.0153 -0.1959 -0.4146
24667SOL    HW181051  11.218   3.450   5.705 -0.4019 -0.0893 -0.4245
24667SOL    HW281052  11.116   3.379   5.790 -0.4762 -0.6424 -0.9631
24668SOL     OW81053   1.235   2.173   1.410 -0.2896  0.2506  0.2165
24668SOL    HW181054   1.303   2.218   1.359  1.3805 -0.5677  1.5971
24668SOL    HW281055   1.231   2.221   1.493 -1.1694  0.0815  0.2800
24669SOL     OW81056   4.941   5.310   8.281 -0.0406 -0.3762  0.6026
24669SOL    HW181057   5.003   5.277   8.346  1.4249  0.1511 -0.4862
24669SOL    HW281058   4.906   5.391   8.320  0.4064 -0.3562  0.9673
24670SOL     OW81059   0.782   2.790   3.139  0.4477  0.3406 -0.2515
24670SOL    HW181060   0.819   2.740   3.067 -0.9495 -0.2040 -0.6212
24670SOL    HW281061   0.809   2.880   3.122 -0.7919  0.3992 -2.1015
24671SOL     OW81062   1.123   6.076   0.399 -0.2477 -0.2457 -0.4512
24671SOL    HW181063   1.057   6.145   0.400 -1.5306 -1.4292  0.2728
24671SOL    HW281064   1.162   6.077   0.486 -0.7443 -0.8528 -0.2138
24672SOL     OW81065   8.624   9.652   8.346  0.6715 -0.3697  0.9454
24672SOL    HW181066   8.597   9.631   8.435  0.1365  0.5180  1.0047
24672SOL    HW281067   8.594   9.741   8.332  1.1263 -0.3453  0.0188
24673SOL     OW81068   1.170  10.626   8.434  0.1982  0.2408 -0.1564
24673SOL    HW181069   1.228  10.654   8.504  0.7013 -0.2600 -0.3705
24673SOL    HW281070   1.109  10.699   8.423  1.6421  1.3988 -0.8883
24674SOL     OW81071  12.230   6.552   0.099 -0.2752  0.3067 -0.0490
24674SOL    HW181072  12.321   6.571   0.075 -0.7484  1.3353 -1.1709
24674SOL    HW281073  12.195   6.504   0.024 -0.2522 -1.4568  1.0326
24675SOL     OW81074   2.763   0.917   1.798 -0.1008  0.0584  0.3041
24675SOL    HW181075   2.846   0.960   1.776  0.4638 -1.0375  0.2144
24675SOL    HW281076   2.723   0.975   1.863  0.3337  1.0221 -0.2628
24676SOL     OW81077  11.150  10.671   2.528 -0.2503  0.1005  0.0297
24676SOL    HW181078  11.148  10.620   2.447  1.3230  2.7892 -1.8566
24676SOL    HW281079  11.243  10.674   2.552 -0.1354  2.7286 -0.4691
24677SOL     OW81080  11.694   6.584   0.534  0.1138 -0.3683 -0.0020
24677SOL    HW181081  11.698   6.609   0.627 -0.8367  1.3327 -0.3809
24677SOL    HW281082  11.762   6.517   0.525  2.0092  1.2355  1.3788
24678SOL     OW81083   6.157   1.532   8.395  0.4941 -0.3229 -0.1769
24678SOL    HW181084   6.168   1.552   8.488  0.1422 -0.5920 -0.0767
24678SOL    HW281085   6.163   1.437   8.389  3.1587 -0.1831 -0.7862
24679SOL     OW81086   0.919   1.893   5.408  0.2695  0.2097 -0.5675
24679SOL    HW181087   0.987   1.859   5.467 -1.1127 -1.4915  0.1375
24679SOL    HW281088   0.919   1.988   5.424 -0.6858 -0.2474  2.9522
24680SOL     OW81089   8.667   1.765   9.529 -0.3169  0.2800 -0.3090
24680SOL    HW181090   8.657   1.834   9.463  0.1127  0.1625 -0.5049
24680SOL    HW281091   8.709   1.808   9.603 -1.4349  0.5728  0.1697
24681SOL     OW81092  10.244   5.681   8.028 -0.1760 -0.0560  0.2375
24681SOL    HW181093  10.160   5.643   8.001 -0.3468 -0.2589  1.0285
24681SOL    HW281094  10.307   5.646   7.965 -0.7375  0.4077 -0.6038
24682SOL     OW81095   7.367   3.397   3.998 -0.1600 -0.4238 -0.3528
24682SOL    HW181096   7.295   3.365   4.053  1.2728 -2.1573  0.6262
24682SOL    HW281097   7.353   3.354   3.914  0.2996 -1.6136  0.1634
24683SOL     OW81098   1.721   5.778   8.390 -0.3279  0.1021  0.1047
24683SOL    HW181099   1.697   5.854   8.336  2.6687  0.3078 -1.1579
24683SOL    HW281100   1.679   5.704   8.346 -1.0475  0.7111 -0.2712
24684SOL     OW81101   6.557   4.919  11.457 -0.1235  0.2404  0.8339
24684SOL    HW181102   6.647   4.913  11.425 -0.7601 -2.6013 -0.8023
24684SOL    HW281103   6.544   4.838  11.506 -1.4121  1.2462  2.2552
24685SOL     OW81104   5.666  10.418  10.048 -0.2469 -0.1939 -0.6755
24685SOL    HW181105   5.737  10.404  10.110  1.6770 -0.1156 -2.7584
24685SOL    HW281106   5.628  10.502  10.072  0.0762 -0.4238  0.6957
24686SOL     OW81107   0.272   2.937   6.955 -0.3536 -0.5643  0.1244
24686SOL    HW181108   0.246   2.980   6.874 -0.2105 -1.1107 -0.2209
24686SOL    HW281109   0.217   2.976   7.023 -0.7147 -0.3501 -0.2937
24687SOL     OW81110   1.754  11.687   4.171 -0.5007 -0.0220 -0.1372
24687SOL    HW181111   1.699  11.608   4.167 -1.0025  0.3687 -1.8205
24687SOL    HW281112   1.771  11.700   4.264 -0.7710 -1.8674  0.2059
24688SOL     OW81113   4.430   4.605   5.042 -0.5401  0.4893 -0.0059
24688SOL    HW181114   4.373   4.594   4.966  0.5994  0.4054 -0.8675
24688SOL    HW281115   4.372   4.637   5.111 -1.4992  1.0423 -1.0461
24689SOL     OW81116  11.490   1.619   1.222 -0.0629 -0.2525 -0.0469
24689SOL    HW181117  11.540   1.548   1.182  0.9600 -0.1112  0.9580
24689SOL    HW281118  11.488   1.687   1.155  1.3029 -0.1727 -0.0383
24690SOL     OW81119  12.580   1.075   0.957  0.0138  0.4467  0.1249
24690SOL    HW181120  12.506   1.134   0.967  0.2284  0.7620 -0.1422
24690SOL    HW281121  12.648   1.112   1.014  0.1214  0.4193  0.0161
24691SOL     OW81122  10.096  11.388   3.718  0.1153 -0.6542 -0.1978
24691SOL    HW181123  10.161  11.444   3.676 -0.4559 -0.6379 -1.1024
24691SOL    HW281124  10.017  11.442   3.722 -0.8176 -1.7566 -2.2418
24692SOL     OW81125   7.548   8.850  11.333  0.3457 -0.0745 -0.0049
24692SOL    HW181126   7.475   8.815  11.384  1.2183 -1.1297  0.5583
24692SOL    HW281127   7.534   8.815  11.245  1.2469 -2.0122  0.5627
24693SOL     OW81128   9.798   2.223   0.553 -0.0693 -0.1159 -0.8371
24693SOL    HW181129   9.750   2.279   0.492 -0.0244  0.9612  0.1031
24693SOL    HW281130   9.802   2.273   0.634 -0.7729 -1.8133  0.3141
24694SOL     OW81131   5.003   6.985   9.381 -0.0993  0.2014  0.1692
24694SOL    HW181132   4.944   6.932   9.328 -1.9651  0.5900  1.7274
24694SOL    HW281133   4.963   7.072   9.382  2.4314  1.4998 -1.6087
24695SOL     OW81134   6.754   5.268  10.537  0.6299 -0.2944  0.1220
24695SOL    HW181135   6.734   5.192  10.592  1.9818 -0.4230  0.4796
24695SOL    HW281136   6.737   5.239  10.448  1.0081 -0.9784  0.2675
24696SOL     OW81137   1.049   0.507   7.349 -0.4175  0.3216 -0.6517
24696SOL    HW181138   1.005   0.493   7.434 -1.2436 -1.0387 -1.2673
24696SOL    HW281139   1.100   0.428   7.335  0.4025  0.9081 -1.0442
24697SOL     OW81140   9.845  12.557   9.948  0.0231  0.2759 -0.6879
24697SOL    HW181141   9.890  12.637   9.919 -0.6657  0.8453 -0.2417
24697SOL    HW281142   9.858  12.556  10.043 -0.9152  0.4770 -0.5450
24698SOL     OW81143   5.471   9.442   8.797  0.4301  0.3464  0.2875
24698SOL    HW181144   5.500   9.474   8.712 -0.9720  0.1464 -0.2918
24698SOL    HW281145   5.533   9.479   8.860  1.5044  0.4638 -0.8238
24699SOL     OW81146  12.363   3.881   7.862  0.3283 -0.6159  0.0807
24699SOL    HW181147  12.343   3.975   7.862  2.1226 -0.1044  2.5450
24699SOL    HW281148  12.445   3.874   7.813  0.6693 -0.7176  0.6490
24700SOL     OW81149   2.343  10.462   7.430 -0.1051  0.2093 -0.1659
24700SOL    HW181150   2.399  10.402   7.480 -0.9818 -0.0811  0.4986
24700SOL    HW281151   2.288  10.404   7.378 -0.5570  0.4509  0.0420
24701SOL     OW81152   5.189   3.895  12.129 -0.1235  0.4896  0.0947
24701SOL    HW181153   5.234   3.915  12.047 -1.1966  1.1397 -0.3543
24701SOL    HW281154   5.106   3.857  12.103 -0.6226  1.0147  0.8697
24702SOL     OW81155  12.475   0.419   0.176 -0.9277  0.1186 -0.0817
24702SOL    HW181156  12.527   0.362   0.119 -0.7571  0.6342 -0.4401
24702SOL    HW281157  12.536   0.485   0.207 -1.2077  0.3068  0.0693
24703SOL     OW81158   9.814   5.335   8.903 -0.0639  0.7767  0.4127
24703SOL    HW181159   9.740   5.283   8.936 -0.0074  0.4817  0.0826
24703SOL    HW281160   9.891   5.291   8.938 -0.0727  1.6729  1.5911
24704SOL     OW81161   3.481  10.109   9.510  0.3973  0.1826 -0.7489
24704SOL    HW181162   3.410  10.094   9.447  2.0573 -0.3393 -2.6054
24704SOL    HW281163   3.478  10.034   9.568 -0.7752  0.3413 -0.5775
24705SOL     OW81164   2.237   1.253   2.163 -0.2835 -0.1691 -0.1535
24705SOL    HW181165   2.192   1.292   2.088 -1.7630 -2.3851 -0.5119
24705SOL    HW281166   2.168   1.237   2.227  0.3313 -1.6788  0.1783
24706SOL     OW81167   8.962   3.699   9.394  0.3754  0.3712  0.6011
24706SOL    HW181168   8.900   3.639   9.435  1.5507 -0.2402  1.5411
24706SOL    HW281169   8.962   3.776   9.450 -0.9109  1.1709 -0.4430
24707SOL     OW81170  11.604   6.558  11.391 -0.5615  0.1677 -0.0985
24707SOL    HW181171  11.588   6.515  11.307 -1.7157  1.0525 -0.3595
24707SOL    HW281172  11.603   6.487  11.455 -2.2759 -0.2616 -0.5334
24708SOL     OW81173  11.763  12.227   8.195  0.3512  0.1515  0.1196
24708SOL    HW181174  11.807  12.293   8.248 -2.0356 -0.0264  2.5469
24708SOL    HW281175  11.694  12.274   8.150  0.4867 -0.2159 -0.4844
24709SOL     OW81176  10.945   7.414   3.112  0.6526  0.0960  0.0943
24709SOL    HW181177  10.854   7.403   3.141 -0.3339 -0.7394 -2.9736
24709SOL    HW281178  10.944   7.491   3.056  1.2956 -1.1675 -1.7428
24710SOL     OW81179   7.511  10.272   7.828  0.6832 -0.1837  0.4303
24710SOL    HW181180   7.602  10.273   7.796  0.1448 -0.5366 -1.2017
24710SOL    HW281181   7.504  10.350   7.883  1.2460  1.3300 -1.5542
24711SOL     OW81182   0.971  12.305   0.772 -0.0048  0.0629  0.5120
24711SOL    HW181183   0.890  12.344   0.741 -0.1602  0.2478  1.1357
24711SOL    HW281184   1.008  12.262   0.695 -1.1860 -0.8837  0.4532
24712SOL     OW81185   0.016   9.421   0.535  0.1847 -0.4516 -0.2916
24712SOL    HW181186  -0.003   9.496   0.591  0.3502  0.2812 -1.1925
24712SOL    HW281187  -0.015   9.345   0.585 -0.4681  0.2583  0.4094
24713SOL     OW81188  12.065   9.380  10.261  0.1223 -0.5976  0.1610
24713SOL    HW181189  12.040   9.335  10.343  1.5401 -1.1915  0.2895
24713SOL    HW281190  12.155   9.408  10.276  0.4022 -0.7346 -1.2132
24714SOL     OW81191  12.175   6.583   2.249  0.1913  0.4148 -0.2060
24714SOL    HW181192  12.184   6.517   2.317  1.0592  0.6060 -0.1218
24714SOL    HW281193  12.149   6.534   2.171 -0.4755  0.1517  0.1741
24715SOL     OW81194  11.478   7.245   5.968  0.3084 -0.1920 -0.6794
24715SOL    HW181195  11.395   7.273   5.930  0.0419 -0.1589 -0.0774
24715SOL    HW281196  11.543   7.263   5.899 -0.1126  0.2185 -0.9752
24716SOL     OW81197   8.546  10.183   8.188  0.2925  0.4924 -0.2508
24716SOL    HW181198   8.464  10.231   8.203  0.5079  0.4418  1.2063
24716SOL    HW281199   8.613  10.251   8.187  0.3713  0.4139 -0.2324
24717SOL     OW81200  11.391   3.451   8.663  0.0795  0.1728  0.1236
24717SOL    HW181201  11.355   3.376   8.712  1.4617 -0.6043 -0.0152
24717SOL    HW281202  11.352   3.444   8.576 -0.6750  0.2853  0.4430
24718SOL     OW81203   6.879   0.430  11.145  0.0641 -1.1071 -0.9585
24718SOL    HW181204   6.928   0.503  11.181 -0.9637 -0.5417 -0.6543
24718SOL    HW281205   6.844   0.383  11.221 -0.9488 -0.7225 -1.1626
24719SOL     OW81206   7.317   0.743   8.557 -0.0731 -0.3474 -0.7229
24719SOL    HW181207   7.300   0.649   8.567  0.3522 -0.2390  1.4198
24719SOL    HW281208   7.260   0.785   8.621 -0.4857  0.9112 -1.8657
24720SOL     OW81209   2.109   3.862   0.958 -0.5464 -0.0292 -0.4050
24720SOL    HW181210   2.042   3.832   0.897  1.3436 -1.0841 -2.0538
24720SOL    HW281211   2.152   3.935   0.913  1.8018 -1.7219 -1.0422
24721SOL     OW81212   3.261   8.758   0.999  0.5897  0.7161 -0.0383
24721SOL    HW181213   3.238   8.730   0.911 -3.5830  2.0597  0.4171
24721SOL    HW281214   3.285   8.678   1.044 -1.8605 -0.8124 -1.2239
24722SOL     OW81215   2.559   9.535   8.985 -0.2549 -0.0120 -0.2133
24722SOL    HW181216   2.580   9.576   8.901  0.3017 -1.7780 -0.9708
24722SOL    HW281217   2.481   9.581   9.015  0.6863  2.0201 -0.6902
24723SOL     OW81218  12.577   6.663  10.904 -0.1043  0.4677 -0.2419
24723SOL    HW181219  12.488   6.690  10.880 -0.8019 -0.8864  0.6356
24723SOL    HW281220  12.584   6.687  10.997 -0.2938 -1.1307  0.2184
24724SOL     OW81221  11.241   9.502   6.286 -0.3180 -0.2183 -0.1344
24724SOL    HW181222  11.203   9.545   6.362  1.2759  2.2727 -0.6192
24724SOL    HW281223  11.201   9.547   6.211  1.5198  0.5771 -0.6736
24725SOL     OW81224   6.103   3.639   1.039  0.3227 -0.0271 -0.3771
24725SOL    HW181225   6.191   3.646   1.076 -0.4426  0.9184  1.3469
24725SOL    HW281226   6.059   3.573   1.093 -1.1338  2.1040  1.2096
24726SOL     OW81227   9.531   7.853   6.235 -0.5684  0.3119  0.0863
24726SOL    HW181228   9.626   7.865   6.235 -0.2738 -1.6546  1.4468
24726SOL    HW281229   9.502   7.893   6.317 -0.3424 -2.3904  1.6074
24727SOL     OW81230  10.997   4.056   7.345 -0.2796  0.1745 -0.0756
24727SOL    HW181231  10.930   4.039   7.411 -0.5903 -0.5944 -0.5740
24727SOL    HW281232  10.952   4.043   7.261 -0.0511  1.7258 -0.4710
24728SOL     OW81233   7.240   0.714   5.853 -0.6882  0.2133 -0.5585
24728SOL    HW181234   7.303   0.778   5.886  1.3158 -1.2730 -1.3374
24728SOL    HW281235   7.204   0.755   5.773 -0.6184  0.9966 -0.2027
24729SOL     OW81236   2.904   8.175   1.037  0.1516  0.2609  0.7776
24729SOL    HW181237   2.967   8.248   1.034 -0.1590  0.5392  0.9028
24729SOL    HW281238   2.849   8.188   0.960  0.1401  0.1168  0.7620
24730SOL     OW81239   7.667  10.318   2.943  0.4857  0.5954 -0.0427
24730SOL    HW181240   7.717  10.337   2.863 -0.4797  0.6335 -0.6570
24730SOL    HW281241   7.587  10.276   2.911 -0.1217  1.0263  0.8808
24731SOL     OW81242   6.626   4.185  11.837  0.8584  0.0385  0.3376
24731SOL    HW181243   6.609   4.147  11.751  0.2462  0.4202  0.2848
24731SOL    HW281244   6.722   4.193  11.841  0.8299  1.5395 -0.9844
24732SOL     OW81245   2.568   0.460   2.640  0.3943  0.0553 -0.8671
24732SOL    HW181246   2.497   0.511   2.600  0.7084 -0.0066 -1.5160
24732SOL    HW281247   2.648   0.501   2.608  0.7145  1.3935  1.4326
24733SOL     OW81248   9.373   9.185   9.060 -0.8526 -0.1791 -0.3746
24733SOL    HW181249   9.420   9.181   9.144 -0.3128  0.5555 -0.6319
24733SOL    HW281250   9.315   9.261   9.068 -1.5653 -0.7231 -0.2880
24734SOL     OW81251   0.652  10.304   8.064 -0.3579 -0.0853  0.0801
24734SOL    HW181252   0.645  10.392   8.026  3.5741  1.2110  1.8631
24734SOL    HW281253   0.584  10.302   8.131  0.1594  2.0931  0.7642
24735SOL     OW81254   0.106   3.863   9.392  0.2852  0.4023 -0.0717
24735SOL    HW181255   0.085   3.949   9.428 -0.9554  0.1370 -0.1213
24735SOL    HW281256   0.042   3.849   9.323  1.2078 -0.0786 -0.8643
24736SOL     OW81257   0.964   8.404  10.385 -0.0902 -0.2184 -0.2633
24736SOL    HW181258   0.898   8.438  10.325 -0.3762  0.7399  0.5610
24736SOL    HW281259   1.018   8.480  10.407  0.6382 -0.7729 -0.1151
24737SOL     OW81260   8.572   4.387  10.819  0.1936 -0.1875 -0.3016
24737SOL    HW181261   8.627   4.310  10.831 -1.4672 -1.5950 -1.2536
24737SOL    HW281262   8.572   4.430  10.905  1.6355 -0.8707  0.0793
24738SOL     OW81263  10.828   8.643  10.456  0.3002  0.0110 -0.8080
24738SOL    HW181264  10.864   8.676  10.374  0.7618  1.8116  0.0669
24738SOL    HW281265  10.774   8.715  10.489  1.4731 -0.0088  1.2757
24739SOL     OW81266   9.955   3.608  10.467  0.2075  0.1177 -1.3448
24739SOL    HW181267   9.949   3.580  10.376  0.1199  0.8242 -1.5661
24739SOL    HW281268   9.880   3.667  10.479  0.3419  0.1989 -0.8788
24740SOL     OW81269   6.892   0.331   3.027  0.7571  0.3752  0.3072
24740SOL    HW181270   6.919   0.372   3.109  0.5588  1.5753 -0.2156
24740SOL    HW281271   6.858   0.403   2.974  0.9195 -0.3811 -0.8504
24741SOL     OW81272   2.360   3.882   6.850 -0.6385  0.4730 -0.0291
24741SOL    HW181273   2.421   3.822   6.892 -0.1548  0.1333 -1.1939
24741SOL    HW281274   2.281   3.878   6.905 -0.0625 -0.0161  0.7876
24742SOL     OW81275   5.051  11.072   2.767 -0.2487  0.0717  0.0667
24742SOL    HW181276   5.095  11.030   2.694  0.4948  0.8929  0.0198
24742SOL    HW281277   5.120  11.120   2.812 -0.4733 -1.2731  1.9626
24743SOL     OW81278   2.774   4.691   0.287 -0.1902  0.3637  0.2274
24743SOL    HW181279   2.721   4.722   0.360 -0.1899  2.3842 -0.5573
24743SOL    HW281280   2.785   4.597   0.303 -3.1747  0.0504  0.9073
24744SOL     OW81281  11.753   5.774   1.503 -0.1053  0.8224  0.0208
24744SOL    HW181282  11.730   5.860   1.467  0.2567  0.8101 -0.2465
24744SOL    HW281283  11.835   5.751   1.460 -0.3741  0.1844 -0.1781
24745SOL     OW81284   7.668   2.219   0.289 -0.5107 -0.0579  0.0402
24745SOL    HW181285   7.697   2.309   0.300 -0.6548 -0.0456  0.3348
24745SOL    HW281286   7.686   2.177   0.373 -0.2808 -0.3523 -0.1500
24746SOL     OW81287   9.682   7.971   3.639 -0.4375  0.2108 -0.1505
24746SOL    HW181288   9.624   7.959   3.564  1.1399  2.3328 -1.8328
24746SOL    HW281289   9.659   8.057   3.674  0.6598  0.4330  0.0588
24747SOL     OW81290  10.403   8.032   6.071 -0.1335  0.2220 -0.1107
24747SOL    HW181291  10.398   8.029   6.167 -0.1691  1.0573 -0.0770
24747SOL    HW281292  10.322   8.076   6.045 -0.4076 -0.5386 -0.5703
24748SOL     OW81293  11.596   6.950   8.134  0.2242  0.1216 -0.6353
24748SOL    HW181294  11.651   6.881   8.170  0.2331 -0.0972 -1.0545
24748SOL    HW281295  11.568   7.001   8.210 -0.3030 -0.7291 -0.2388
24749SOL     OW81296   6.201   1.967   1.860  0.5882 -0.0913 -0.7363
24749SOL    HW181297   6.230   1.905   1.793 -1.2396  0.8058 -2.4618
24749SOL    HW281298   6.272   2.031   1.865  1.2635 -0.7978 -0.9445
24750SOL     OW81299   5.293   4.266   5.798  0.9193 -0.2824  0.3204
24750SOL    HW181300   5.367   4.214   5.829  0.7371 -1.1190 -0.5719
24750SOL    HW281301   5.296   4.255   5.702 -0.2810 -0.2337  0.2682
24751SOL     OW81302   4.414   5.099   4.378 -0.0046  0.4098 -0.3073
24751SOL    HW181303   4.399   5.170   4.316 -1.1258  0.7073  0.2786
24751SOL    HW281304   4.338   5.101   4.436 -0.7278 -2.0600 -1.0195
24752SOL     OW81305   2.997   9.561   7.232 -0.3130  0.4836 -0.5305
24752SOL    HW181306   3.050   9.627   7.186 -0.6826 -0.2812 -2.1177
24752SOL    HW281307   3.015   9.479   7.187 -0.2820 -0.4403  1.0753
24753SOL     OW81308   2.180   2.939   6.641 -0.4190 -0.5563 -0.4892
24753SOL    HW181309   2.132   2.860   6.665 -0.7193 -0.6175 -1.2459
24753SOL    HW281310   2.114   2.996   6.602 -0.2007  0.0673  0.0409
24754SOL     OW81311   7.638   1.442  10.698 -0.3454 -0.6657  0.2049
24754SOL    HW181312   7.660   1.459  10.789  1.3262  2.9517 -0.6863
24754SOL    HW281313   7.683   1.511  10.649 -2.6960 -1.2720 -3.1952
24755SOL     OW81314   3.741  11.860   2.960 -0.0233 -0.5129  0.8251
24755SOL    HW181315   3.816  11.915   2.982 -0.3723  0.2384  0.2063
24755SOL    HW281316   3.749  11.784   3.018  0.9522 -0.2292  1.0908
24756SOL     OW81317   1.175   1.637   7.547  0.3803 -0.1121  0.1899
24756SOL    HW181318   1.087   1.628   7.583  1.3755 -2.4417  2.3764
24756SOL    HW281319   1.210   1.716   7.589 -0.7610  1.1098 -1.0645
24757SOL     OW81320  10.436   0.658  12.267  0.2399 -0.3209 -0.0390
24757SOL    HW181321  10.479   0.738  12.297  0.1280  0.5231 -1.9799
24757SOL    HW281322  10.348   0.662  12.304 -0.0460  0.9204 -0.8026
24758SOL     OW81323  10.050   3.558   4.515 -0.1263 -0.3932 -0.1800
24758SOL    HW181324   9.956   3.576   4.505 -0.1224 -1.0213 -1.5170
24758SOL    HW281325  10.085   3.637   4.556 -1.2931 -0.3046  0.7225
24759SOL     OW81326   6.815   1.346   8.848  0.0851 -0.5150 -0.0964
24759SOL    HW181327   6.724   1.372   8.835 -0.0776 -2.1304 -3.2510
24759SOL    HW281328   6.811   1.274   8.911 -1.0247 -1.3664 -1.0947
24760SOL     OW81329   1.800   7.166   0.120  0.4111  0.3312  0.0415
24760SOL    HW181330   1.791   7.260   0.138 -1.4526  0.2354 -0.2482
24760SOL    HW281331   1.792   7.159   0.025 -0.6386 -0.2206  0.1606
24761SOL     OW81332   0.709   8.573   9.657 -0.3392 -0.6905 -0.4425
24761SOL    HW181333   0.661   8.656   9.652 -0.0628 -0.5589 -1.0514
24761SOL    HW281334   0.740   8.568   9.747  1.0713  0.6938 -0.8026
24762SOL     OW81335   6.516   2.443  10.650 -0.2737  0.4460  0.3646
24762SOL    HW181336   6.572   2.367  10.662 -0.8372  0.0751  0.7137
24762SOL    HW281337   6.437   2.423  10.701 -1.2523  0.3966 -1.0798
24763SOL     OW81338   4.310   8.298   0.230 -0.7333 -0.1687 -0.0557
24763SOL    HW181339   4.355   8.367   0.181 -2.3434  1.9987  1.3602
24763SOL    HW281340   4.217   8.317   0.217 -1.2896 -2.9608 -0.7524
24764SOL     OW81341   2.786   4.035   5.472 -0.3454 -0.0940 -0.1733
24764SOL    HW181342   2.797   4.045   5.377 -0.6505 -0.7199 -0.2850
24764SOL    HW281343   2.699   3.998   5.482 -0.7355  0.9660  0.4319
24765SOL     OW81344   5.742   3.311   5.610  0.2506  0.0061 -0.9901
24765SOL    HW181345   5.723   3.224   5.646 -0.7585  0.4539 -0.4102
24765SOL    HW281346   5.820   3.339   5.658  0.8329 -0.7264 -1.4697
24766SOL     OW81347   5.598   1.547   7.475  0.3983  0.4095  0.1247
24766SOL    HW181348   5.638   1.621   7.429 -1.6068  1.0592 -0.6537
24766SOL    HW281349   5.599   1.476   7.410  2.1208 -0.2564  0.8002
24767SOL     OW81350   6.502  11.782   9.986 -0.3679 -0.1030  0.1448
24767SOL    HW181351   6.539  11.849  10.044  0.4028  0.5840 -1.0887
24767SOL    HW281352   6.570  11.715   9.980 -1.2319 -1.1642  1.5670
24768SOL     OW81353   2.608   0.458   1.741 -0.2873  0.0099 -0.1645
24768SOL    HW181354   2.555   0.408   1.678  1.3012 -0.3666 -1.2632
24768SOL    HW281355   2.642   0.532   1.691  1.7464 -0.7826 -0.0468
24769SOL     OW81356  12.247   5.527  11.871 -0.3547  0.1413 -0.0222
24769SOL    HW181357  12.256   5.525  11.966 -1.6157 -1.9958  0.1107
24769SOL    HW281358  12.154   5.516  11.855  0.1328 -2.8436 -1.4845
24770SOL     OW81359   9.844   8.321   4.439 -0.4543 -0.3846  0.1919
24770SOL    HW181360   9.773   8.330   4.503 -0.9134  0.4317 -0.4111
24770SOL    HW281361   9.810   8.259   4.374 -0.0182 -1.1519  0.6667
24771SOL     OW81362   8.968   9.794   1.134 -0.4841 -0.3724  0.0710
24771SOL    HW181363   8.987   9.830   1.221 -0.5409  2.0800 -0.8293
24771SOL    HW281364   8.873   9.801   1.125 -0.2584  2.3433 -1.2453
24772SOL     OW81365   2.558   5.702   8.969 -0.7821  0.1834 -0.1329
24772SOL    HW181366   2.595   5.619   8.998 -0.2680  0.8041  1.0371
24772SOL    HW281367   2.495   5.677   8.902  1.2467 -0.9602 -1.7384
24773SOL     OW81368   2.779   0.923   9.541  0.0863  0.0554 -0.1751
24773SOL    HW181369   2.756   0.895   9.453  1.3853 -0.9110 -0.2443
24773SOL    HW281370   2.865   0.964   9.532 -0.4357  1.3396  0.4242
24774SOL     OW81371   6.350   4.670   2.711 -0.2702 -0.2667 -0.1754
24774SOL    HW181372   6.397   4.604   2.762 -0.0892 -0.5972 -0.7741
24774SOL    HW281373   6.266   4.629   2.690 -1.2196  0.6292  1.6276
24775SOL     OW81374   9.702   6.493   4.016 -0.0510 -0.1569  0.2825
24775SOL    HW181375   9.748   6.446   3.946 -1.5220  2.1151 -2.4158
24775SOL    HW281376   9.622   6.443   4.031 -0.2428 -0.0859 -0.4723
24776SOL     OW81377   5.824   8.446   9.688 -0.0630 -0.2684  0.2411
24776SOL    HW181378   5.854   8.357   9.704  1.2765  0.4960  2.5286
24776SOL    HW281379   5.746   8.456   9.742  1.0896  0.5444  1.8781
24777SOL     OW81380   5.208   9.431   7.239 -0.0383  0.2300 -0.0681
24777SOL    HW181381   5.205   9.479   7.321 -0.6771 -0.6149  0.4234
24777SOL    HW281382   5.230   9.497   7.173  1.4727  0.7455  0.8980
24778SOL     OW81383  10.311   0.358   6.295  0.2865  0.8723 -0.0925
24778SOL    HW181384  10.262   0.428   6.339 -1.2834 -0.4771  0.4021
24778SOL    HW281385  10.259   0.336   6.218  1.5862  1.2831 -1.1316
24779SOL     OW81386   8.588   5.619   5.264  0.0508 -0.4101 -0.1963
24779SOL    HW181387   8.668   5.632   5.315 -1.5772  0.9108  2.2093
24779SOL    HW281388   8.599   5.675   5.187  1.4763 -0.3566  0.0259
24780SOL     OW81389   8.253   9.395   0.800  0.2265 -0.6086  0.4517
24780SOL    HW181390   8.280   9.422   0.712  1.9830  3.6095  2.0458
24780SOL    HW281391   8.165   9.431   0.810  0.1883 -0.7335  0.5709
24781SOL     OW81392  12.151   4.896   4.723  0.1843  0.5133 -0.7382
24781SOL    HW181393  12.208   4.973   4.732 -1.6611  1.8793 -0.1775
24781SOL    HW281394  12.170   4.843   4.800  1.8820  0.0626 -1.4116
24782SOL     OW81395   1.103   7.910   5.651  0.2568 -0.2622 -0.2514
24782SOL    HW181396   1.199   7.919   5.649  0.2868 -0.3721  0.5315
24782SOL    HW281397   1.088   7.816   5.655  0.1392 -0.2083  0.6178
24783SOL     OW81398   8.548   5.718   7.175 -0.2743 -0.2984  0.5421
24783SOL    HW181399   8.507   5.681   7.253 -0.0607 -1.8727 -0.0707
24783SOL    HW281400   8.590   5.644   7.132  0.5956  0.7510 -0.4728
24784SOL     OW81401   9.287   8.041   4.509  0.3996 -0.4819 -0.6172
24784SOL    HW181402   9.269   7.955   4.470 -0.7132 -0.2350 -0.6971
24784SOL    HW281403   9.371   8.068   4.472 -0.4418 -0.4035 -2.6074
24785SOL     OW81404   4.142   8.302  11.306 -0.4398  0.2121  0.2111
24785SOL    HW181405   4.082   8.282  11.378  0.9502 -0.0905  1.3152
24785SOL    HW281406   4.210   8.356  11.345  1.3601 -1.4914 -0.4070
24786SOL     OW81407   5.543  11.946   7.168 -0.1360  0.5116 -0.1962
24786SOL    HW181408   5.474  12.011   7.155 -0.5265  0.4405  1.3529
24786SOL    HW281409   5.622  11.998   7.182 -0.5060  0.7053  1.3736
24787SOL     OW81410  11.469  10.569   3.565  0.1760 -0.5604  0.3336
24787SOL    HW181411  11.404  10.616   3.513  0.2211 -1.8996 -1.0155
24787SOL    HW281412  11.542  10.553   3.505  1.2393 -0.1898  1.4660
24788SOL     OW81413   2.660  11.261   4.288  0.1613 -0.0370  0.4750
24788SOL    HW181414   2.576  11.292   4.254  0.3275 -2.7097 -2.9320
24788SOL    HW281415   2.723  11.324   4.256 -0.2144  0.0597 -0.0938
24789SOL     OW81416   9.851   7.473   3.150 -0.1920  0.0247  0.3786
24789SOL    HW181417   9.848   7.446   3.242 -0.7536 -1.2469  0.0158
24789SOL    HW281418   9.944   7.469   3.126  0.1643  1.8912  1.2893
24790SOL     OW81419  11.243  10.765   0.354 -0.1105  0.8314 -0.4180
24790SOL    HW181420  11.264  10.740   0.264 -1.6987  1.1962 -0.9243
24790SOL    HW281421  11.315  10.822   0.381  1.8722 -1.4852 -0.4151
24791SOL     OW81422   7.735  10.615   9.520 -0.3634  0.7672 -0.3193
24791SOL    HW181423   7.684  10.632   9.441 -1.3403 -1.8075 -0.3523
24791SOL    HW281424   7.822  10.650   9.500 -0.6339  0.3757 -2.4983
24792SOL     OW81425   7.242   7.553   9.481  0.6860 -0.0407  0.0581
24792SOL    HW181426   7.179   7.607   9.434  1.3846 -0.1230 -1.0090
24792SOL    HW281427   7.226   7.573   9.573  0.6011  1.6432 -0.2793
24793SOL     OW81428   3.269  12.004   6.960  0.1019  0.0615  0.1488
24793SOL    HW181429   3.182  12.045   6.959 -0.2149 -0.5673 -1.8589
24793SOL    HW281430   3.267  11.948   7.038 -0.5578  1.5087  1.2230
24794SOL     OW81431   6.346   5.280   3.658  0.0270 -0.0206  0.1901
24794SOL    HW181432   6.272   5.236   3.699 -0.7025  0.7983 -0.2146
24794SOL    HW281433   6.415   5.215   3.657 -0.5746 -0.6809  0.9118
24795SOL     OW81434  10.662   8.965   7.311 -0.5981  0.3425  0.2657
24795SOL    HW181435  10.577   8.923   7.318 -0.8028  0.7079  0.0409
24795SOL    HW281436  10.648   9.037   7.249 -0.5157  1.3965  1.4368
24796SOL     OW81437  12.425   5.510  11.096  0.3763 -0.1225  0.4130
24796SOL    HW181438  12.501   5.452  11.097  0.2908 -0.2313  1.0993
24796SOL    HW281439  12.434   5.563  11.175  1.3584  2.0102 -1.0662
24797SOL     OW81440   9.726   6.752   7.163  0.4520 -0.0906 -0.0810
24797SOL    HW181441   9.640   6.730   7.128 -0.2950  1.6388  0.5872
24797SOL    HW281442   9.784   6.747   7.086 -0.0015 -2.2430 -0.3483
24798SOL     OW81443   8.741  11.881  10.241  0.1893 -0.4396 -0.7974
24798SOL    HW181444   8.685  11.813  10.277  1.1243 -0.4598  0.7286
24798SOL    HW281445   8.818  11.833  10.208  0.4235 -0.2172 -0.5809
24799SOL     OW81446   9.333   3.346   5.010 -0.1835  0.3065 -0.0298
24799SOL    HW181447   9.297   3.266   5.047  0.8531 -0.4347 -0.5816
24799SOL    HW281448   9.320   3.412   5.079 -0.5873 -0.4423  0.6267
24800SOL     OW81449   8.097   9.843   6.387  0.2159  0.2661  0.7709
24800SOL    HW181450   8.037   9.893   6.332 -0.2643 -2.9758 -2.0151
24800SOL    HW281451   8.184   9.875   6.365 -0.0569 -0.1693 -1.1756
24801SOL     OW81452  10.569   7.362   9.054 -0.6786 -0.0282 -0.4165
24801SOL    HW181453  10.516   7.292   9.015  0.8462 -0.9529 -0.9156
24801SOL    HW281454  10.660   7.337   9.035 -0.0519  1.5837  0.2684
24802SOL     OW81455   4.929   0.595  12.239 -0.3796 -0.0603  0.3101
24802SOL    HW181456   4.954   0.525  12.299 -0.0977 -1.2171 -1.0974
24802SOL    HW281457   4.993   0.665  12.254  0.8889 -1.1217 -0.0005
24803SOL     OW81458  10.974   5.059  12.516  0.2866 -0.3769 -0.0866
24803SOL    HW181459  10.881   5.078  12.522 -0.2457 -1.1667 -3.4059
24803SOL    HW281460  11.016   5.121  12.576 -2.2912  0.4821  0.9601
24804SOL     OW81461   9.400  11.347   9.966  0.6036 -0.0153 -0.3139
24804SOL    HW181462   9.343  11.394  10.027  1.0815  2.1485 -1.4517
24804SOL    HW281463   9.445  11.283  10.021 -0.4032  0.5298  1.2298
24805SOL     OW81464   2.873   4.504   8.312 -0.0924 -0.5954 -0.7161
24805SOL    HW181465   2.796   4.537   8.357  0.7986 -0.7284  0.9843
24805SOL    HW281466   2.908   4.436   8.370  1.1707 -0.6863 -1.5425
24806SOL     OW81467   9.033  10.692   6.708  0.0286  0.5675  0.3100
24806SOL    HW181468   8.984  10.633   6.765 -1.7029 -0.1471 -1.7861
24806SOL    HW281469   9.054  10.767   6.764 -2.1523  0.2267  1.7131
24807SOL     OW81470  11.904  11.633   3.827  0.3236 -0.8236 -0.3610
24807SOL    HW181471  11.979  11.646   3.769 -0.8117  1.5795 -1.4544
24807SOL    HW281472  11.838  11.592   3.772 -0.8731  1.7669 -0.9952
24808SOL     OW81473   5.833   3.853   2.406 -0.1035  0.3222 -0.2188
24808SOL    HW181474   5.837   3.759   2.384  0.1689  0.2321  0.2101
24808SOL    HW281475   5.851   3.856   2.500 -0.1999  0.7997 -0.2175
24809SOL     OW81476   9.674   0.555  10.447  0.4836  0.5607  0.2705
24809SOL    HW181477   9.746   0.520  10.394  0.8810 -1.2055  1.8663
24809SOL    HW281478   9.596   0.508  10.415 -0.2354  3.0186 -1.9869
24810SOL     OW81479   7.801   7.469   1.423 -0.2647  0.5816  0.3572
24810SOL    HW181480   7.802   7.452   1.517 -2.6625  0.1515  0.3643
24810SOL    HW281481   7.829   7.386   1.384 -1.2095  0.1069  0.6645
24811SOL     OW81482   1.036   0.943   2.157 -0.0388 -0.4062 -0.0496
24811SOL    HW181483   1.095   0.989   2.097 -0.0644  0.0690  0.2882
24811SOL    HW281484   1.043   0.851   2.131  0.5495 -0.3036 -0.2676
24812SOL     OW81485  12.010   2.551   1.624  0.5659  0.0751  0.0424
24812SOL    HW181486  11.924   2.542   1.583  0.2556  0.2150  0.6359
24812SOL    HW281487  12.035   2.461   1.647  0.6371  0.0208 -0.2508
24813SOL     OW81488   0.522   7.686   9.400  0.1123 -0.5189 -0.1592
24813SOL    HW181489   0.592   7.723   9.452  0.5056 -0.6411 -0.5933
24813SOL    HW281490   0.547   7.594   9.388  0.6618 -0.2130 -1.5829
24814SOL     OW81491   8.168  10.367   1.328  0.1319 -0.1779 -0.1562
24814SOL    HW181492   8.254  10.401   1.306  0.1837 -0.3239 -0.1829
24814SOL    HW281493   8.146  10.308   1.255 -0.3384  0.4695 -0.5535
24815SOL     OW81494   2.084   9.572  10.762 -0.0865  0.1972 -0.6242
24815SOL    HW181495   2.025   9.644  10.784 -0.4908 -0.1321 -0.6023
24815SOL    HW281496   2.166   9.614  10.736  0.0675  0.6291  0.4992
24816SOL     OW81497   9.025   3.472  12.218 -0.1456 -0.2088  0.2736
24816SOL    HW181498   8.935   3.485  12.189 -0.3004 -2.0020 -0.1905
24816SOL    HW281499   9.036   3.534  12.289 -1.0516  1.5245 -1.0161
24817SOL     OW81500  10.844   5.126   1.837 -0.5019 -0.4726 -0.9835
24817SOL    HW181501  10.793   5.162   1.910  2.7822  0.5155  1.0249
24817SOL    HW281502  10.873   5.040   1.868  0.8378 -0.0908 -1.1419
24818SOL     OW81503   3.269  10.593   1.765 -0.5264 -0.0787 -0.1398
24818SOL    HW181504   3.226  10.614   1.682 -0.5104  0.2089 -0.0739
24818SOL    HW281505   3.337  10.530   1.741 -0.5427 -0.0213 -0.3398
24819SOL     OW81506  11.826   4.641   0.864 -0.4506  0.6915 -0.1398
24819SOL    HW181507  11.784   4.668   0.782 -0.0650 -0.4570 -0.7333
24819SOL    HW281508  11.914   4.614   0.837 -0.4396 -0.0311  0.6064
24820SOL     OW81509   2.041   4.121   9.209  0.0522  0.6091 -0.2204
24820SOL    HW181510   2.114   4.059   9.205 -0.9827 -0.7069  0.1468
24820SOL    HW281511   2.030   4.138   9.302 -0.5446  0.2191 -0.2113
24821SOL     OW81512   4.544   0.712  12.573 -0.4398 -0.0300 -0.2604
24821SOL    HW181513   4.638   0.691  12.567  0.2531  2.4070  0.8572
24821SOL    HW281514   4.531   0.781  12.508 -1.2073  0.3567  0.2924
24822SOL     OW81515   6.179   9.265   2.820 -0.3591  0.9621  0.0943
24822SOL    HW181516   6.258   9.292   2.866 -0.9438  0.2733  1.5455
24822SOL    HW281517   6.168   9.330   2.750  0.5646  2.0176  0.9064
24823SOL     OW81518   3.852   1.955   4.647 -0.1621 -0.6311  0.3608
24823SOL    HW181519   3.804   2.027   4.605 -0.9723  0.0321  2.3216
24823SOL    HW281520   3.943   1.969   4.620 -0.5700  0.0405 -0.7543
24824SOL     OW81521   5.180  11.049   1.028  0.0369  0.2894  0.0026
24824SOL    HW181522   5.126  11.095   0.964  1.7117 -0.5653 -2.1584
24824SOL    HW281523   5.243  11.114   1.058 -0.4711  0.5774  0.4483
24825SOL     OW81524  11.005  11.546   0.007  0.4679 -0.3035 -0.3236
24825SOL    HW181525  10.985  11.453   0.017 -1.7076 -0.0569 -1.7068
24825SOL    HW281526  11.100  11.550   0.011  0.5953 -2.1028  3.2461
24826SOL     OW81527  11.368   0.505   8.680 -0.1806 -0.1492  0.2852
24826SOL    HW181528  11.322   0.441   8.736  2.4455 -2.0129  0.4729
24826SOL    HW281529  11.419   0.557   8.742  1.0120 -0.7500 -0.1693
24827SOL     OW81530   7.817   2.523   1.139 -0.3767  0.4172 -0.1027
24827SOL    HW181531   7.725   2.500   1.126 -0.5213  0.5701  0.5781
24827SOL    HW281532   7.853   2.449   1.188 -0.1511  0.3842 -0.3187
24828SOL     OW81533   2.653  12.406   2.052 -0.1164 -0.4247  0.0877
24828SOL    HW181534   2.738  12.406   2.097  0.2155 -0.3824 -0.5386
24828SOL    HW281535   2.619  12.318   2.067 -0.5690 -0.0366  1.4675
24829SOL     OW81536   6.607   1.808   4.528 -0.4977  0.3056  0.2590
24829SOL    HW181537   6.601   1.837   4.619 -2.2457  1.2103 -0.1099
24829SOL    HW281538   6.700   1.817   4.507  0.1157 -0.8000  2.1994
24830SOL     OW81539   7.853   6.355   7.183 -0.0097  0.1628 -0.1677
24830SOL    HW181540   7.878   6.432   7.132  1.1781 -0.1957 -0.1560
24830SOL    HW281541   7.931   6.333   7.233 -0.5994 -0.5668  0.4507
24831SOL     OW81542  11.811   9.583  10.613  0.1296  0.2142 -0.1615
24831SOL    HW181543  11.741   9.630  10.569 -1.4697 -0.1982  1.7941
24831SOL    HW281544  11.778   9.494  10.623  1.2011 -0.1611  0.2295
24832SOL     OW81545  11.566   0.604   3.351 -0.1598 -0.3078 -0.1362
24832SOL    HW181546  11.554   0.551   3.272  0.3894 -0.7260  0.0464
24832SOL    HW281547  11.533   0.549   3.422 -2.0678  0.6695 -0.2205
24833SOL     OW81548   8.230  11.478   0.483 -0.0373  0.8105 -0.0436
24833SOL    HW181549   8.250  11.551   0.541  1.5720  0.4178 -0.0698
24833SOL    HW281550   8.139  11.455   0.504 -0.0831  1.8691  0.9916
24834SOL     OW81551   2.710   9.165  10.507  0.4853 -0.0469 -0.0881
24834SOL    HW181552   2.779   9.127  10.452 -0.0434  0.8337 -1.4154
24834SOL    HW281553   2.743   9.253  10.529 -0.1003  0.2936 -0.5411
24835SOL     OW81554   2.019   3.924   1.949 -0.5655 -0.3314  0.4532
24835SOL    HW181555   2.028   3.942   2.043 -0.4468  2.0642  0.0416
24835SOL    HW281556   2.099   3.876   1.926  1.3554  2.3517  0.9355
24836SOL     OW81557   5.613   0.353  10.623  0.0343 -0.3563  0.1721
24836SOL    HW181558   5.673   0.420  10.656 -1.0562  0.3234  0.8454
24836SOL    HW281559   5.536   0.402  10.595 -0.1649 -1.1981 -0.8019
24837SOL     OW81560   1.811   9.628  10.200  0.0820  0.1461  0.2919
24837SOL    HW181561   1.805   9.681  10.279 -1.8224  0.6683 -0.1491
24837SOL    HW281562   1.728   9.643  10.155 -0.0012 -2.2750 -0.4708
24838SOL     OW81563   0.650  11.088   6.796  0.1010  1.1133 -0.0421
24838SOL    HW181564   0.604  11.024   6.850  0.0379  0.8478 -0.4121
24838SOL    HW281565   0.587  11.111   6.727  0.6381  0.5182 -0.7279
24839SOL     OW81566   0.974   2.114  11.045  0.6092  0.1563 -0.0605
24839SOL    HW181567   0.983   2.022  11.020  1.4390  0.9798 -3.3186
24839SOL    HW281568   0.998   2.117  11.137  1.2732 -2.7821 -0.0546
24840SOL     OW81569   4.711   2.638  11.875  0.5243 -0.2836 -0.3405
24840SOL    HW181570   4.773   2.602  11.939  2.7074  0.4685 -1.9322
24840SOL    HW281571   4.757   2.633  11.792 -2.5365 -2.0058 -2.1047
24841SOL     OW81572   6.160   4.596   1.171 -0.1431 -0.3567 -0.2283
24841SOL    HW181573   6.226   4.638   1.115 -0.1058  0.7968  0.6533
24841SOL    HW281574   6.169   4.502   1.152 -0.0023 -0.0336 -2.0081
24842SOL     OW81575   1.971   8.682  10.880  0.2754 -0.0768 -0.6858
24842SOL    HW181576   1.972   8.634  10.797  0.2840 -0.0099 -0.7238
24842SOL    HW281577   2.032   8.754  10.867 -0.4129  0.4716 -0.9386
24843SOL     OW81578   9.602   1.310  11.639  0.7109 -0.2030 -0.1142
24843SOL    HW181579   9.535   1.289  11.703  0.8496  0.1409  0.1473
24843SOL    HW281580   9.569   1.389  11.595  0.4097 -0.6819 -0.7691
24844SOL     OW81581   0.491   3.622   0.779  0.4095  0.1599 -0.4601
24844SOL    HW181582   0.403   3.649   0.753  0.2065  0.0425  0.0832
24844SOL    HW281583   0.533   3.704   0.807  0.0096  0.0306  0.5726
24845SOL     OW81584   8.863   5.285  12.213  0.3260 -0.1983  0.0488
24845SOL    HW181585   8.950   5.260  12.183  1.1902  1.7520  0.7327
24845SOL    HW281586   8.829   5.207  12.257  2.0264 -0.7889  0.3879
24846SOL     OW81587   1.545   6.560   8.634 -0.1059 -0.1169  0.3271
24846SOL    HW181588   1.600   6.483   8.649  0.0827  0.4776  3.2979
24846SOL    HW281589   1.457   6.530   8.657 -0.0555  0.4781  1.3402
24847SOL     OW81590   6.745  12.115   6.426 -0.0690 -0.0251  0.0454
24847SOL    HW181591   6.755  12.025   6.457  0.2645  0.4172  1.2791
24847SOL    HW281592   6.653  12.120   6.399 -0.1028 -0.7199 -0.0001
24848SOL     OW81593   1.552   9.749   6.708  0.3567  0.4120 -1.4041
24848SOL    HW181594   1.461   9.734   6.681 -0.3935  2.2323 -0.1238
24848SOL    HW281595   1.567   9.683   6.776  0.0813 -0.0498 -1.7816
24849SOL     OW81596   7.790   5.757  12.126  0.0881 -0.3657 -0.1626
24849SOL    HW181597   7.778   5.713  12.042  1.4569 -0.9241 -0.0866
24849SOL    HW281598   7.840   5.696  12.179 -1.4887 -0.4063  1.4110
24850SOL     OW81599   4.192   4.867   8.905  0.0671 -0.1556 -0.1177
24850SOL    HW181600   4.203   4.777   8.873  0.1639 -0.4272  0.6663
24850SOL    HW281601   4.102   4.870   8.937  0.7272 -0.6382  1.8862
24851SOL     OW81602   5.147   4.234   4.340  0.3237  0.2691  0.2360
24851SOL    HW181603   5.162   4.214   4.248 -1.1499  1.0114 -0.1910
24851SOL    HW281604   5.081   4.171   4.368 -1.5689  2.0105 -0.1042
24852SOL     OW81605   4.980   2.730   6.802 -0.2038  0.0860 -0.1605
24852SOL    HW181606   5.019   2.721   6.715 -0.3242  2.0324 -0.4655
24852SOL    HW281607   4.906   2.669   6.801  1.3979 -1.9467 -0.3889
24853SOL     OW81608   2.757   3.220   6.388 -0.0153 -0.0765 -0.2529
24853SOL    HW181609   2.695   3.276   6.342 -1.8687 -0.9418  1.0450
24853SOL    HW281610   2.797   3.167   6.318 -1.4477 -0.1560 -1.0577
24854SOL     OW81611  10.474  10.468  11.144  0.2373 -0.2610  0.4663
24854SOL    HW181612  10.381  10.452  11.158  0.3228 -1.6877 -0.4611
24854SOL    HW281613  10.515  10.453  11.230 -0.5454  2.1822  1.3674
24855SOL     OW81614   7.935   1.679   1.723  1.0678  0.3620  0.2577
24855SOL    HW181615   7.936   1.738   1.798  0.8681  1.0834 -0.2911
24855SOL    HW281616   7.976   1.729   1.653 -0.5633  0.4825 -0.6661
24856SOL     OW81617  12.144   7.082   7.217  0.0057 -0.4184 -0.3639
24856SOL    HW181618  12.157   7.047   7.305  1.9293 -0.2292 -0.5276
24856SOL    HW281619  12.058   7.051   7.191 -0.3813 -0.9000  1.3852
24857SOL     OW81620   0.969  10.976   8.030 -0.3927 -0.3529  0.1634
24857SOL    HW181621   0.988  11.050   8.088 -1.6964  1.0305 -1.1147
24857SOL    HW281622   1.006  10.900   8.077  0.3028  0.9572  1.8727
24858SOL     OW81623   9.236   6.585   6.061 -0.0737  0.0628  0.1395
24858SOL    HW181624   9.219   6.566   6.153  1.2119 -0.6848  0.2521
24858SOL    HW281625   9.205   6.507   6.015  3.2625 -1.6076  0.4031
24859SOL     OW81626   3.328   9.329   7.492 -0.5497  0.2281 -0.2640
24859SOL    HW181627   3.365   9.397   7.549 -1.6314 -0.1864  0.9654
24859SOL    HW281628   3.234   9.349   7.489 -1.0507 -1.7395  0.9060
24860SOL     OW81629   6.446   4.620   3.090  0.9358  0.1524 -0.4033
24860SOL    HW181630   6.518   4.653   3.144  0.6485  0.4830 -0.2217
24860SOL    HW281631   6.425   4.691   3.031  0.1678  0.3859  0.1392
24861SOL     OW81632   1.926  10.322  10.024 -0.9262  0.4419 -0.2610
24861SOL    HW181633   1.924  10.255   9.955 -0.8687 -0.4102  0.5336
24861SOL    HW281634   2.006  10.303  10.073 -1.7614 -0.0097  1.0037
24862SOL     OW81635   6.554  12.297   5.513 -0.3940  0.1689 -0.6936
24862SOL    HW181636   6.553  12.211   5.555  0.0665  0.8197  0.6757
24862SOL    HW281637   6.553  12.360   5.585 -1.4870  1.3399 -1.6818
24863SOL     OW81638  11.902   8.478  11.478 -0.0761  0.7937 -0.9916
24863SOL    HW181639  11.846   8.555  11.464 -0.8285  0.5123  0.2674
24863SOL    HW281640  11.841   8.409  11.504  0.9411  0.8658  1.9098
24864SOL     OW81641  11.794   9.116   3.013  0.2882  1.0476  0.4462
24864SOL    HW181642  11.761   9.158   3.092  0.1983  1.4174  0.2172
24864SOL    HW281643  11.841   9.039   3.044 -0.5029  0.7030  0.7988
24865SOL     OW81644   0.342   5.333   8.110  0.3078  0.5015 -0.3658
24865SOL    HW181645   0.350   5.425   8.136 -0.5855  0.6724 -0.6796
24865SOL    HW281646   0.249   5.314   8.118  0.7125 -0.9860  1.7043
24866SOL     OW81647   1.387   3.008   5.855 -0.1184  0.1312 -0.5366
24866SOL    HW181648   1.381   3.102   5.870 -1.7741 -0.2323  1.4010
24866SOL    HW281649   1.414   3.000   5.763 -2.4439  2.4764 -1.5205
24867SOL     OW81650  10.837  12.504   5.210  0.0354 -0.1938  0.1674
24867SOL    HW181651  10.889  12.574   5.172 -0.4512  0.7744  1.2391
24867SOL    HW281652  10.758  12.547   5.243 -0.1318 -1.1799  1.1311
24868SOL     OW81653   2.908   6.816   3.976 -0.3674  0.1707  0.5475
24868SOL    HW181654   2.877   6.726   3.978  2.0870 -0.8049 -0.2546
24868SOL    HW281655   2.849   6.861   3.916 -0.4742 -1.4272 -0.5986
24869SOL     OW81656   5.124   4.446   1.980  0.0051  0.2756 -0.0830
24869SOL    HW181657   5.170   4.494   2.048 -0.6728  1.0712 -0.1639
24869SOL    HW281658   5.135   4.354   2.003 -0.0016  0.5287  0.9486
24870SOL     OW81659   6.349   1.501  10.894 -0.6079 -0.5807  0.4684
24870SOL    HW181660   6.352   1.534  10.805 -2.4526  0.7509  0.8368
24870SOL    HW281661   6.397   1.567  10.945  1.1296 -1.7331  0.4089
24871SOL     OW81662   5.523   2.615   5.872 -0.0494  0.1803  0.1427
24871SOL    HW181663   5.578   2.543   5.840 -0.5038 -0.8457  1.5530
24871SOL    HW281664   5.585   2.680   5.905  0.3963 -1.4220  2.6959
24872SOL     OW81665   7.051   6.671   9.325  0.1931 -0.2471 -0.1104
24872SOL    HW181666   7.072   6.759   9.357 -1.3237 -0.3784  1.3634
24872SOL    HW281667   7.132   6.641   9.285  1.4855  0.8813  1.5246
24873SOL     OW81668   4.922   1.742  10.404  0.3140 -0.3952 -0.2473
24873SOL    HW181669   4.877   1.718  10.485  1.6335 -0.4995  0.4814
24873SOL    HW281670   4.851   1.764  10.343 -0.7229 -0.8539  0.7510
24874SOL     OW81671   3.357   6.993   6.079 -0.1691 -0.2988  0.0953
24874SOL    HW181672   3.372   7.049   6.154 -2.2132  1.4331 -0.6667
24874SOL    HW281673   3.436   6.941   6.071  1.6240  2.0798  1.2155
24875SOL     OW81674   4.927   7.243   9.371  0.1244  0.2554 -0.0584
24875SOL    HW181675   5.005   7.297   9.361  0.5745 -0.2973  0.3973
24875SOL    HW281676   4.859   7.290   9.323  1.2109 -0.2937 -2.2489
24876SOL     OW81677  11.630  10.568  10.295  0.0644  0.0370 -0.2268
24876SOL    HW181678  11.689  10.634  10.258  0.3409  0.9814  1.7756
24876SOL    HW281679  11.686  10.517  10.353 -0.1633 -1.9828 -1.6781
24877SOL     OW81680   0.444   7.893   1.918  0.3149  0.2989 -0.5458
24877SOL    HW181681   0.462   7.934   2.003 -0.5698  2.3343 -1.2712
24877SOL    HW281682   0.349   7.885   1.914  0.3732 -0.1964 -1.1721
24878SOL     OW81683   2.313   2.694   6.929  0.1488  0.1682  0.0407
24878SOL    HW181684   2.226   2.694   6.888 -0.1227 -0.1313  0.5913
24878SOL    HW281685   2.331   2.602   6.947 -0.4628  0.3809  2.0324
24879SOL     OW81686   6.450   7.524   9.244 -0.1553 -0.2203 -0.0064
24879SOL    HW181687   6.422   7.460   9.179  0.5612  0.6086 -1.1730
24879SOL    HW281688   6.370   7.573   9.266 -0.3609 -0.3623 -0.4354
24880SOL     OW81689  11.314   4.098   3.805  0.2452 -0.0522  0.7522
24880SOL    HW181690  11.234   4.107   3.856  0.1280  0.6034  0.4606
24880SOL    HW281691  11.297   4.145   3.724  1.0095  0.3175  0.7965
24881SOL     OW81692  12.174   4.266   6.672 -0.4999 -0.7022  0.0253
24881SOL    HW181693  12.209   4.317   6.745 -0.3604 -1.9030  0.8142
24881SOL    HW281694  12.114   4.204   6.712 -1.0572 -0.8403 -0.9784
24882SOL     OW81695  11.678   1.372   7.777  0.0218 -0.0204 -0.1007
24882SOL    HW181696  11.716   1.362   7.864  0.9122 -1.9871 -0.6628
24882SOL    HW281697  11.751   1.356   7.717 -0.1114  3.0979 -1.2852
24883SOL     OW81698  12.359   3.265  10.450  0.0032  0.4819 -0.5886
24883SOL    HW181699  12.420   3.298  10.383 -1.1090  0.9219 -1.4164
24883SOL    HW281700  12.363   3.330  10.520  0.4392  0.5312 -0.6535
24884SOL     OW81701  12.431   5.200   7.588  0.7033 -0.3132  0.4614
24884SOL    HW181702  12.413   5.294   7.590  1.3948 -0.1709  0.3321
24884SOL    HW281703  12.501   5.191   7.523  0.3399 -0.9749  0.1496
24885SOL     OW81704   7.494   8.693   4.300  0.5856  0.1752 -0.8598
24885SOL    HW181705   7.546   8.736   4.368 -0.3480 -0.2350  0.1388
24885SOL    HW281706   7.533   8.723   4.218  0.8385  1.8081 -0.1785
24886SOL     OW81707  10.763   9.118   7.878  0.1872  0.0508  0.0764
24886SOL    HW181708  10.852   9.146   7.854 -0.3104  0.4352 -1.4575
24886SOL    HW281709  10.768   9.022   7.877  0.5132  0.0666 -0.3308
24887SOL     OW81710  10.679   0.323   2.195  0.0327 -0.0754 -0.5926
24887SOL    HW181711  10.653   0.292   2.108  0.1344 -2.1902  0.0755
24887SOL    HW281712  10.760   0.372   2.180  0.6150 -1.3020 -1.5701
24888SOL     OW81713   3.019   0.091   4.135 -0.1155 -0.1822  0.5811
24888SOL    HW181714   2.974   0.009   4.155 -2.2617  1.5207  3.5208
24888SOL    HW281715   3.112   0.071   4.145 -0.4068 -2.7330 -1.1145
24889SOL     OW81716   2.864   3.920   0.548 -0.0205 -0.1652  0.1151
24889SOL    HW181717   2.801   3.852   0.570  0.4698 -1.4645 -2.1690
24889SOL    HW281718   2.949   3.877   0.555  0.5965  1.1935  1.8561
24890SOL     OW81719   9.787   3.298  11.304  0.4818 -0.4727 -0.3639
24890SOL    HW181720   9.860   3.305  11.241  1.2266  1.8430  0.6612
24890SOL    HW281721   9.792   3.208  11.336  1.7054 -0.9218 -1.7049
24891SOL     OW81722   2.726   8.046   2.523  0.3567  0.0500  0.7856
24891SOL    HW181723   2.791   8.048   2.594  0.5658  0.1155  0.5901
24891SOL    HW281724   2.774   8.072   2.445  0.0320  0.3684  0.6894
24892SOL     OW81725   1.133   6.588   8.353  0.1238 -0.0585  0.2252
24892SOL    HW181726   1.043   6.611   8.331 -0.0806 -0.4677  0.6189
24892SOL    HW281727   1.184   6.665   8.328 -0.3628  0.2639  0.2081
24893SOL     OW81728   9.617   7.235   1.599  0.4123 -0.0020  0.2438
24893SOL    HW181729   9.662   7.259   1.679 -0.2234  0.1310  0.5734
24893SOL    HW281730   9.549   7.174   1.627  0.5027 -0.3477 -0.2634
24894SOL     OW81731   1.139   1.164  11.782  0.3103 -0.4936  0.6435
24894SOL    HW181732   1.101   1.208  11.858  0.8552  1.4734 -0.1668
24894SOL    HW281733   1.067   1.158  11.719  0.9239  2.0337 -0.3855
24895SOL     OW81734   6.534   2.249   9.617 -0.2047  0.1370  0.2230
24895SOL    HW181735   6.475   2.222   9.547 -0.7163 -0.0945  0.7315
24895SOL    HW281736   6.621   2.247   9.578 -0.4623 -0.1881 -0.3426
24896SOL     OW81737  11.852  10.511   1.654  0.3486 -0.3992 -0.3926
24896SOL    HW181738  11.860  10.430   1.705 -1.0605 -1.1751 -1.3393
24896SOL    HW281739  11.838  10.482   1.565  0.8872  0.9291 -0.9391
24897SOL     OW81740   7.701  11.227   6.858 -0.5292 -0.1496  0.0264
24897SOL    HW181741   7.734  11.302   6.810 -2.2399 -0.3433 -1.5656
24897SOL    HW281742   7.628  11.262   6.909 -0.4487 -0.4763  0.3727
24898SOL     OW81743   7.046   2.082   9.636 -0.2512  0.3505  0.2956
24898SOL    HW181744   7.066   2.122   9.551 -2.2279  0.0413 -0.3610
24898SOL    HW281745   7.131   2.066   9.675  0.6887  1.7398 -1.0428
24899SOL     OW81746   1.082   0.615   4.621  0.2494 -0.1731 -0.2993
24899SOL    HW181747   0.993   0.583   4.636 -0.4454  1.4818 -0.6749
24899SOL    HW281748   1.073   0.710   4.612  2.2864  0.2713  1.3747
24900SOL     OW81749   7.919   8.392  10.824 -0.0588 -0.2423  0.0897
24900SOL    HW181750   7.946   8.368  10.912 -0.2070  1.6869  0.7117
24900SOL    HW281751   7.997   8.431  10.785  0.4346 -2.3896 -1.1915
24901SOL     OW81752   4.611   9.155   1.583  0.0195  0.2508  0.0664
24901SOL    HW181753   4.609   9.209   1.504  0.5167  0.0501 -0.0884
24901SOL    HW281754   4.697   9.112   1.580 -1.2431 -2.4218 -1.0658
24902SOL     OW81755   6.772   8.024   3.634 -0.2265 -0.2807  0.9872
24902SOL    HW181756   6.796   7.980   3.715  2.4604  1.8255  1.4663
24902SOL    HW281757   6.807   8.113   3.643 -0.8886  0.3913 -1.9766
24903SOL     OW81758   9.779   5.053   3.365  0.0101 -0.0435  0.2987
24903SOL    HW181759   9.843   5.013   3.423  1.3130 -0.7494 -1.5361
24903SOL    HW281760   9.728   4.979   3.331  0.3488  0.1524 -0.6785
24904SOL     OW81761   5.040  11.104  11.268 -0.4313 -0.0427  0.1449
24904SOL    HW181762   4.946  11.106  11.249 -0.4196  0.3264  0.1306
24904SOL    HW281763   5.062  11.010  11.268 -1.0269 -0.2059  1.2836
24905SOL     OW81764   7.384   5.314  10.899 -0.2756 -0.4169 -0.0286
24905SOL    HW181765   7.297   5.354  10.895 -0.2709 -0.4869 -1.0209
24905SOL    HW281766   7.418   5.340  10.985 -0.1949  1.8879 -0.6886
24906SOL     OW81767   3.513  10.417   8.959 -0.3588  0.0592 -0.0220
24906SOL    HW181768   3.503  10.364   9.038  0.7862 -1.4565 -0.8177
24906SOL    HW281769   3.424  10.436   8.930 -0.8532 -2.1868 -0.1434
24907SOL     OW81770   9.314  10.839  10.007  0.4474  0.1602 -0.2675
24907SOL    HW181771   9.300  10.810  10.097  0.2317  1.5251  0.1563
24907SOL    HW281772   9.283  10.930  10.005  1.7764  0.6250 -1.3591
24908SOL     OW81773   5.125  12.458  10.604  0.0775 -0.3796 -0.4048
24908SOL    HW181774   5.192  12.391  10.603  0.8982  0.4166 -1.1020
24908SOL    HW281775   5.168  12.535  10.566 -0.9413  0.4245  0.0301
24909SOL     OW81776   1.144  12.178   8.045  0.0179 -0.3619  0.5641
24909SOL    HW181777   1.087  12.255   8.047 -1.7822 -1.6221  0.5846
24909SOL    HW281778   1.230  12.212   8.020 -1.1276  1.4335 -1.2856
24910SOL     OW81779   7.395   3.185   9.591 -0.1007  0.4237 -0.2850
24910SOL    HW181780   7.373   3.145   9.676 -0.4651  2.6164  0.7185
24910SOL    HW281781   7.332   3.147   9.530  0.3808 -1.4574  0.3135
24911SOL     OW81782   4.609   4.248  11.753  0.3079  0.4293  0.2367
24911SOL    HW181783   4.667   4.245  11.829 -0.1566 -3.1275  0.6175
24911SOL    HW281784   4.523   4.270  11.789  0.5638  1.4237  0.2851
24912SOL     OW81785   1.378   1.866  10.209  0.3209  0.1639 -0.9150
24912SOL    HW181786   1.408   1.870  10.300 -0.8258  0.5858 -0.5339
24912SOL    HW281787   1.361   1.774  10.193  0.2503  0.1180 -0.5902
24913SOL     OW81788   1.514  11.546   9.836 -0.1824  0.1260 -0.0038
24913SOL    HW181789   1.466  11.628   9.845  0.2148  0.2139  1.4897
24913SOL    HW281790   1.606  11.573   9.829 -0.2502 -0.0575 -2.5285
24914SOL     OW81791  11.147   8.923   4.212 -0.4332 -0.0577 -0.2306
24914SOL    HW181792  11.065   8.925   4.263 -0.2369 -1.1002  0.1502
24914SOL    HW281793  11.201   8.858   4.257  0.6079  0.6153 -0.4907
24915SOL     OW81794   1.915   0.457   4.668 -0.3543 -0.1402 -0.3524
24915SOL    HW181795   1.865   0.390   4.621  1.6298 -0.0012 -2.8542
24915SOL    HW281796   1.900   0.537   4.619  1.9443 -0.0233 -0.9620
24916SOL     OW81797   8.322   2.747   3.692  0.5976  0.4181  0.9468
24916SOL    HW181798   8.416   2.757   3.710  0.7603  0.6726 -0.0191
24916SOL    HW281799   8.300   2.661   3.728  1.4378 -0.1117  0.2387
24917SOL     OW81800  11.793   6.234  10.176  0.6042 -0.1251 -0.1582
24917SOL    HW181801  11.721   6.224  10.238  0.5882  0.0205 -0.1527
24917SOL    HW281802  11.801   6.148  10.135  2.8010 -1.2536  2.3812
24918SOL     OW81803   7.156   4.456   6.827  0.6197 -0.3074 -0.2913
24918SOL    HW181804   7.065   4.481   6.845  0.9672  0.9160 -0.1112
24918SOL    HW281805   7.158   4.362   6.841 -0.5221 -0.2905  0.1415
24919SOL     OW81806   5.442  11.937   4.622  0.4651  0.0403  0.4127
24919SOL    HW181807   5.450  12.032   4.610  0.8806 -0.2194 -1.9918
24919SOL    HW281808   5.356  11.925   4.661  0.2682  1.4010  0.4524
24920SOL     OW81809   8.398   7.893  10.977  0.4858 -0.1821  0.3459
24920SOL    HW181810   8.415   7.939  10.895 -3.1202  0.5393 -0.1602
24920SOL    HW281811   8.411   7.801  10.956 -0.6535 -0.0362 -1.2130
24921SOL     OW81812   9.739   6.808   0.031  0.6100 -0.4226  0.4529
24921SOL    HW181813   9.834   6.813   0.046  0.3960 -0.6881  2.0734
24921SOL    HW281814   9.702   6.866   0.097 -0.4199 -1.2246  0.5942
24922SOL     OW81815   6.325   1.590   5.303 -0.5138  0.8121  0.0910
24922SOL    HW181816   6.266   1.572   5.230  3.0350 -0.7445 -2.6977
24922SOL    HW281817   6.363   1.676   5.282  1.3237 -0.1183 -0.6239
24923SOL     OW81818  12.518   6.022   5.954 -0.4951  0.0398 -0.0982
24923SOL    HW181819  12.487   5.972   5.878 -1.2428 -2.4688  1.6981
24923SOL    HW281820  12.463   6.100   5.956 -0.4227  0.1759 -2.1188
24924SOL     OW81821   9.911  11.309   8.838 -0.6159 -0.0626  0.1012
24924SOL    HW181822   9.861  11.343   8.912 -0.8083  0.0984 -0.1011
24924SOL    HW281823   9.973  11.248   8.877 -0.8079 -0.0811  0.3799
24925SOL     OW81824   6.803   0.850   8.242  0.1662 -0.4330 -0.2118
24925SOL    HW181825   6.879   0.905   8.259  1.4538 -2.0092 -0.6770
24925SOL    HW281826   6.799   0.791   8.318 -0.6661 -0.3053 -0.1448
24926SOL     OW81827   2.598   1.196   2.603 -0.0206 -0.5314 -0.3226
24926SOL    HW181828   2.549   1.171   2.524  0.1261 -0.2933 -0.4908
24926SOL    HW281829   2.548   1.159   2.675  0.6038 -2.0336 -0.6045
24927SOL     OW81830   1.047   0.841   3.109 -0.2663 -0.1949  0.2372
24927SOL    HW181831   0.975   0.889   3.149  0.0198  0.4617 -0.0285
24927SOL    HW281832   1.041   0.754   3.147 -0.5004  0.1831  1.0830
24928SOL     OW81833   5.340  10.523   1.316 -0.4549 -0.1619 -0.2980
24928SOL    HW181834   5.359  10.616   1.331  0.1301 -0.2937 -0.2023
24928SOL    HW281835   5.425  10.480   1.321 -0.8418 -0.8510  0.7515
24929SOL     OW81836   9.944   4.402   5.553  0.0312 -0.5512 -0.1550
24929SOL    HW181837   9.901   4.320   5.579 -1.3333  0.0237 -0.5474
24929SOL    HW281838  10.009   4.375   5.488 -0.5204 -1.3060 -0.4110
24930SOL     OW81839   1.480   6.029   6.274  0.2406  0.7430  0.7522
24930SOL    HW181840   1.448   6.090   6.340  0.6073  1.7120  0.0560
24930SOL    HW281841   1.452   6.067   6.191  1.2193  0.4182  0.2634
24931SOL     OW81842   1.290   0.088   6.501 -0.3497 -0.0237 -0.1726
24931SOL    HW181843   1.375   0.067   6.539  0.3141  1.3918 -0.8274
24931SOL    HW281844   1.305   0.090   6.407 -1.5690 -1.6561 -0.4573
24932SOL     OW81845  11.878   5.327   0.688  0.0095 -0.9099  0.1535
24932SOL    HW181846  11.805   5.273   0.660  0.9851 -1.0632 -2.3802
24932SOL    HW281847  11.847   5.417   0.675  0.1963 -0.9701 -0.7282
24933SOL     OW81848   4.225  10.653  11.034  0.2196  0.6170 -0.4765
24933SOL    HW181849   4.277  10.711  10.978  0.1652  0.8829 -0.2512
24933SOL    HW281850   4.198  10.708  11.108 -0.9872  0.6932 -0.9395
24934SOL     OW81851   6.234   4.821   5.795 -0.1985  0.1427  0.1522
24934SOL    HW181852   6.266   4.818   5.885  0.6531 -1.3200 -0.1627
24934SOL    HW281853   6.234   4.729   5.767  0.0333  0.6140 -1.4873
24935SOL     OW81854   1.989  11.885   2.319 -0.3461  0.1069  0.3894
24935SOL    HW181855   2.006  11.857   2.409  0.4093 -1.8745 -0.3183
24935SOL    HW281856   2.052  11.955   2.303  0.3622 -0.3786  1.0104
24936SOL     OW81857   5.271   7.692   2.666  0.3009 -0.0546  0.2948
24936SOL    HW181858   5.279   7.597   2.656  0.1923  0.0503 -0.8725
24936SOL    HW281859   5.190   7.704   2.717 -1.2472 -0.5214 -1.9220
24937SOL     OW81860  11.767   1.530   2.260  0.2869 -0.9446  0.9664
24937SOL    HW181861  11.715   1.470   2.206  0.8308 -0.3228 -0.2865
24937SOL    HW281862  11.750   1.502   2.349  0.1303 -2.6659  0.4468
24938SOL     OW81863  10.485   4.304   3.415 -0.0293 -0.2603 -0.1445
24938SOL    HW181864  10.434   4.356   3.354  0.2664 -1.2776 -1.2889
24938SOL    HW281865  10.565   4.356   3.429 -0.1718  0.0532 -0.4716
24939SOL     OW81866   2.251   9.238   8.018  0.3557 -0.3271 -0.3208
24939SOL    HW181867   2.228   9.168   7.957 -0.2588 -0.7677  0.3869
24939SOL    HW281868   2.287   9.308   7.964  1.1279 -1.2503 -1.0247
24940SOL     OW81869   0.020   9.841   4.044 -0.2270 -0.5996 -0.0649
24940SOL    HW181870  -0.030   9.808   4.119 -0.5936  1.1176  0.4946
24940SOL    HW281871   0.112   9.831   4.070 -0.2927  2.9385  2.1286
24941SOL     OW81872  11.190   5.557   8.412 -0.0468 -0.5021 -0.0065
24941SOL    HW181873  11.283   5.549   8.392 -0.2803  0.4415 -1.6969
24941SOL    HW281874  11.159   5.467   8.424  0.6510 -1.0059 -1.6861
24942SOL     OW81875   6.554  10.699   2.554 -0.0190 -0.9496  0.0871
24942SOL    HW181876   6.552  10.725   2.647 -1.5858 -0.5111 -0.0494
24942SOL    HW281877   6.471  10.731   2.518  0.1863 -1.8710 -1.2727
24943SOL     OW81878   7.669   3.939   1.864  0.2067 -0.1595  0.1012
24943SOL    HW181879   7.648   4.030   1.840 -1.1888 -0.1743  1.1289
24943SOL    HW281880   7.728   3.946   1.938  0.4263 -0.0970 -0.0789
24944SOL     OW81881   4.388  10.410   3.721 -1.0031 -0.3460  0.6167
24944SOL    HW181882   4.418  10.446   3.638 -1.8891  0.1891  0.5112
24944SOL    HW281883   4.324  10.343   3.697 -0.2262 -1.1840  0.8445
24945SOL     OW81884   4.384   9.985   3.070 -0.2253 -0.5167 -0.3527
24945SOL    HW181885   4.414   9.999   2.980 -2.1406  2.5107 -0.6270
24945SOL    HW281886   4.380   9.889   3.078  2.4652 -0.9723 -2.5474
24946SOL     OW81887  11.422  11.649  10.936 -0.3624  0.0066 -0.0545
24946SOL    HW181888  11.426  11.742  10.958 -0.2346  0.0819 -0.3908
24946SOL    HW281889  11.475  11.606  11.003 -0.6329  0.1486  0.2529
24947SOL     OW81890   3.327   6.016   9.328 -0.3494 -0.0889 -0.5446
24947SOL    HW181891   3.422   6.012   9.324 -0.2837 -1.6298  0.9374
24947SOL    HW281892   3.301   6.070   9.254  1.5891 -0.9346 -1.9125
24948SOL     OW81893  12.258  10.019  12.431  0.3510  0.0733 -0.1771
24948SOL    HW181894  12.312   9.946  12.399 -2.3465 -2.6715  0.9877
24948SOL    HW281895  12.225  10.061  12.352  0.8582 -0.8449 -0.8992
24949SOL     OW81896   5.756   0.438   8.303 -0.0690  0.2820 -0.4683
24949SOL    HW181897   5.845   0.409   8.323  0.8023  3.1955  0.4083
24949SOL    HW281898   5.703   0.405   8.375  0.6019 -0.1018 -0.1370
24950SOL     OW81899  12.374   5.559   2.523  0.2895  0.3119  0.4481
24950SOL    HW181900  12.310   5.555   2.594  0.3646  0.1932  0.5085
24950SOL    HW281901  12.416   5.473   2.523 -1.9649 -0.9097 -1.8572
24951SOL     OW81902   1.092   3.056   8.489  0.1670 -0.2992  0.3632
24951SOL    HW181903   1.061   3.147   8.488 -0.1073 -0.3962  0.1774
24951SOL    HW281904   1.020   3.005   8.453 -0.0423 -0.7080  1.3338
24952SOL     OW81905   2.876  10.656   5.329  0.8188  0.5695 -0.3662
24952SOL    HW181906   2.791  10.675   5.289 -0.1387  0.3812  1.4600
24952SOL    HW281907   2.867  10.687   5.419  3.0209  1.3645 -0.3605
24953SOL     OW81908   5.131   0.157   4.695  0.6528  0.0641  0.5496
24953SOL    HW181909   5.053   0.213   4.694 -1.1368 -2.3035  0.3507
24953SOL    HW281910   5.196   0.207   4.746 -1.3388  1.6595  1.6627
24954SOL     OW81911   0.832   5.856   1.472  0.1140 -0.0733  0.1632
24954SOL    HW181912   0.816   5.796   1.544 -2.2103  0.2737 -0.0014
24954SOL    HW281913   0.790   5.938   1.498  1.8997  1.0467 -0.2754
24955SOL     OW81914   6.004  12.259   4.802 -0.4836 -0.3641 -0.2453
24955SOL    HW181915   6.042  12.214   4.878  0.9012  0.3201 -0.5023
24955SOL    HW281916   6.021  12.200   4.728 -0.1553 -0.1794 -0.3181
24956SOL     OW81917   8.117   0.126   6.335  0.7325  0.5720 -0.4719
24956SOL    HW181918   8.112   0.200   6.274  1.2193 -0.0506 -1.2855
24956SOL    HW281919   8.141   0.052   6.280  1.2867  0.0141  0.5100
24957SOL     OW81920   5.069  11.357   1.966 -0.8728 -0.2643  0.1857
24957SOL    HW181921   5.067  11.262   1.979 -0.2798 -0.4554 -0.9592
24957SOL    HW281922   5.031  11.370   1.879  0.6399  0.3725 -0.4221
24958SOL     OW81923   6.216  11.051   8.437  0.1326 -0.0649 -0.0158
24958SOL    HW181924   6.183  10.990   8.371 -0.8122 -0.2075  0.5776
24958SOL    HW281925   6.231  11.132   8.389  0.3279 -0.4252 -0.5804
24959SOL     OW81926  10.781   9.870   1.026  0.5292  0.2485 -0.7531
24959SOL    HW181927  10.787   9.803   1.095  0.9452  0.2993 -0.7337
24959SOL    HW281928  10.759   9.951   1.073 -2.9095 -0.3699 -1.0666
24960SOL     OW81929   3.714   8.383   4.160  0.5553 -0.2337 -0.1226
24960SOL    HW181930   3.634   8.337   4.187 -0.0042  1.4080  1.2489
24960SOL    HW281931   3.689   8.430   4.081  0.5122 -0.6135 -0.3387
24961SOL     OW81932   6.062   8.640   2.997 -0.6068  0.1443 -0.0499
24961SOL    HW181933   6.135   8.668   2.942  0.6662 -1.5994  0.6493
24961SOL    HW281934   6.012   8.581   2.941 -0.3156 -0.2518  0.1060
24962SOL     OW81935   1.207   1.844  11.524  0.0216  0.5770  0.2664
24962SOL    HW181936   1.277   1.803  11.576  0.1359 -0.1665 -0.4344
24962SOL    HW281937   1.155   1.770  11.492 -0.5135  1.0680 -0.0118
24963SOL     OW81938   2.775   7.482  11.256 -0.3394 -0.2424 -0.1850
24963SOL    HW181939   2.699   7.532  11.228 -1.7867 -1.5923  1.0850
24963SOL    HW281940   2.749   7.391  11.246  1.0497 -0.7455  0.4413
24964SOL     OW81941   6.955   6.823   4.758 -0.0549  0.3040 -0.3301
24964SOL    HW181942   6.891   6.842   4.826 -1.0847  1.4907 -1.5613
24964SOL    HW281943   7.034   6.869   4.786 -0.6930  1.4150 -0.2624
24965SOL     OW81944   2.890   4.154   0.136  0.0460  0.0725  0.2130
24965SOL    HW181945   2.877   4.145   0.042  1.9812 -2.5375  0.0767
24965SOL    HW281946   2.964   4.215   0.144  0.5308 -0.4658 -0.0528
24966SOL     OW81947   7.061   5.400   6.069 -0.0214 -0.0707  0.4395
24966SOL    HW181948   6.985   5.421   6.016 -0.4744 -1.5429  0.4610
24966SOL    HW281949   7.100   5.323   6.027 -1.0082 -1.9672  2.7269
24967SOL     OW81950  12.405   8.660   1.701  0.7229 -0.4586  0.2455
24967SOL    HW181951  12.332   8.720   1.689  0.0511 -1.6140 -2.1240
24967SOL    HW281952  12.454   8.696   1.775 -2.9438 -0.4085  2.8815
24968SOL     OW81953   2.530   3.333   4.141  0.0663 -0.5443  0.0593
24968SOL    HW181954   2.479   3.384   4.078 -2.0931 -2.1130  0.4425
24968SOL    HW281955   2.556   3.397   4.208 -0.9230  0.4232 -0.4418
24969SOL     OW81956  12.459   6.490   5.925 -0.1255  0.4719 -0.0194
24969SOL    HW181957  12.507   6.557   5.973  0.0981  0.9095 -0.8218
24969SOL    HW281958  12.516   6.469   5.851 -0.6976  0.2173 -0.3956
24970SOL     OW81959   2.418  10.792  10.705  0.0893  0.0786  0.0700
24970SOL    HW181960   2.442  10.701  10.686 -1.9046 -0.8152  1.4875
24970SOL    HW281961   2.496  10.842  10.681  1.9241 -2.1845  0.8559
24971SOL     OW81962  10.228   0.804   2.548 -0.3096  0.5791  0.3856
24971SOL    HW181963  10.280   0.880   2.523  0.0787  0.0007 -0.6399
24971SOL    HW281964  10.288   0.730   2.538 -0.9080  0.0545  0.6027
24972SOL     OW81965  11.360   9.383  10.310 -0.1148 -0.5411 -0.5040
24972SOL    HW181966  11.435   9.324  10.300  0.2595 -0.7506  2.5733
24972SOL    HW281967  11.344   9.416  10.222  4.4154  0.5059 -1.2018
24973SOL     OW81968  11.374   3.763   1.536 -0.2864 -0.3956  0.6362
24973SOL    HW181969  11.459   3.798   1.509 -0.8878  1.3289  0.8436
24973SOL    HW281970  11.330   3.743   1.454 -0.3185  0.3501  0.4602
24974SOL     OW81971   9.321   4.254   9.803 -0.2122  0.2680  0.2897
24974SOL    HW181972   9.263   4.320   9.840 -0.5045  0.0521  0.2213
24974SOL    HW281973   9.353   4.204   9.878 -2.7694 -1.8079  0.1522
24975SOL     OW81974   3.037  10.168  10.320  0.1638  0.3793 -0.4229
24975SOL    HW181975   3.087  10.194  10.243  0.3486  0.4657 -0.2739
24975SOL    HW281976   3.008  10.079  10.300  0.4905  0.2771 -0.4542
24976SOL     OW81977   2.845   8.063  10.504 -0.1332 -0.1059 -0.4387
24976SOL    HW181978   2.805   8.016  10.577  0.2592 -0.4218 -0.4259
24976SOL    HW281979   2.770   8.097  10.454 -0.4144 -0.4829 -0.2799
24977SOL     OW81980   6.676   0.714  11.941  0.1140  0.3841  0.3154
24977SOL    HW181981   6.656   0.638  11.995 -0.0156  0.4792  0.4009
24977SOL    HW281982   6.727   0.771  11.998  0.9379 -0.0109 -0.0072
24978SOL     OW81983   5.714   9.600  10.964 -0.2011  0.3555  0.4755
24978SOL    HW181984   5.693   9.603  11.057 -1.8360 -0.9102  0.1968
24978SOL    HW281985   5.649   9.657  10.922 -1.9341 -1.9459 -0.1942
24979SOL     OW81986   0.374  11.404   5.439 -0.0314  0.3365 -0.0948
24979SOL    HW181987   0.369  11.312   5.466 -0.8712  0.2279 -0.5759
24979SOL    HW281988   0.448  11.407   5.378  1.2846  0.4018  1.4437
24980SOL     OW81989   2.629  11.883   5.155 -0.0124 -0.0535 -0.1328
24980SOL    HW181990   2.709  11.922   5.119  0.6820 -1.9020 -0.7175
24980SOL    HW281991   2.658  11.798   5.189 -1.7063 -0.7013 -0.2390
24981SOL     OW81992  10.825   5.508  10.157  1.2185 -0.1034 -0.1013
24981SOL    HW181993  10.769   5.489  10.082 -2.6530  2.5335  1.7324
24981SOL    HW281994  10.785   5.460  10.229  1.7518  1.2634  1.1675
24982SOL     OW81995   0.513   5.327   0.839 -0.2212  0.4095 -0.1406
24982SOL    HW181996   0.470   5.371   0.912 -0.5811  1.0304 -0.7126
24982SOL    HW281997   0.449   5.262   0.810  0.3048 -0.5173  0.6953
24983SOL     OW81998   6.613   1.412   2.854 -0.0563  0.1930  0.2344
24983SOL    HW181999   6.557   1.489   2.865 -0.0846  0.3846 -1.1603
24983SOL    HW282000   6.562   1.353   2.799 -1.1800 -2.0364  3.3705
24984SOL     OW82001   5.996   8.543   6.907  0.0356  0.1304 -0.1713
24984SOL    HW182002   6.043   8.602   6.966 -1.1326  0.4711  0.4470
24984SOL    HW282003   6.009   8.456   6.944  0.0236  0.2478  0.1104
24985SOL     OW82004   9.600  11.509   6.030  0.0988 -0.8140  0.2842
24985SOL    HW182005   9.524  11.496   6.087 -0.8234 -0.6962 -0.8899
24985SOL    HW282006   9.673  11.521   6.091 -0.7491 -1.2921  1.4372
24986SOL     OW82007   1.395   4.154   1.480  0.9366  0.6503  0.3222
24986SOL    HW182008   1.439   4.126   1.560 -1.8465 -0.2468  1.6912
24986SOL    HW282009   1.364   4.073   1.441  0.5141  1.2331 -0.5799
24987SOL     OW82010   5.713   5.624   2.524 -0.0874  0.0052  0.2528
24987SOL    HW182011   5.808   5.620   2.514 -0.0726  1.2833 -0.2625
24987SOL    HW282012   5.679   5.604   2.437 -0.2866 -0.1375  0.3613
24988SOL     OW82013   7.086   6.958   3.660 -0.7662  0.1559  0.5716
24988SOL    HW182014   7.137   6.943   3.739 -0.2757 -1.6284 -0.0309
24988SOL    HW282015   7.051   7.047   3.670 -1.1544 -0.2047  3.0077
24989SOL     OW82016  10.771  12.037  11.870  0.0305  0.5401 -0.5477
24989SOL    HW182017  10.769  11.955  11.918  0.4928  1.2606  0.7659
24989SOL    HW282018  10.728  12.100  11.927 -0.7466  1.1311 -1.7314
24990SOL     OW82019  10.908   2.573   5.320  0.2383  0.0690 -0.0137
24990SOL    HW182020  10.973   2.617   5.375 -0.1783  1.1654 -0.3796
24990SOL    HW282021  10.943   2.580   5.231 -1.4246  2.8383 -0.5926
24991SOL     OW82022   2.169   0.605   3.304 -0.2766 -0.2579 -0.2334
24991SOL    HW182023   2.186   0.676   3.366  0.2711  1.0033 -1.7605
24991SOL    HW282024   2.255   0.570   3.283 -0.3196  0.1923 -1.2331
24992SOL     OW82025   0.334   2.424   1.043  0.1022 -0.0278 -0.0423
24992SOL    HW182026   0.256   2.454   1.089  0.2769  0.6864 -0.1997
24992SOL    HW282027   0.308   2.422   0.951  0.2021  0.0137 -0.0720
24993SOL     OW82028   9.255   0.081  12.022  0.4871  0.6287  0.1994
24993SOL    HW182029   9.274   0.173  12.039 -0.9216  1.0220 -0.2454
24993SOL    HW282030   9.323   0.053  11.960  1.4281  1.1155  0.9942
24994SOL     OW82031   4.231   7.632   3.219  0.3182  0.2186  0.0127
24994SOL    HW182032   4.197   7.609   3.305  0.7908  0.3293  0.2319
24994SOL    HW282033   4.257   7.724   3.227  0.0097  0.3395 -0.3588
24995SOL     OW82034   1.292   2.706   3.523 -0.1838 -0.2538 -0.4649
24995SOL    HW182035   1.230   2.718   3.594 -0.8951  1.1562 -1.2788
24995SOL    HW282036   1.378   2.706   3.566 -0.5195  1.7815  0.3119
24996SOL     OW82037   6.362   1.023   1.673  0.3980 -0.5049 -0.0212
24996SOL    HW182038   6.389   0.967   1.600 -0.4233  1.1995 -1.6911
24996SOL    HW282039   6.409   1.105   1.659  0.9045 -0.4136  1.9032
24997SOL     OW82040   7.535  12.353   3.146 -0.6286 -0.0363  0.1094
24997SOL    HW182041   7.446  12.362   3.182  0.4369  0.2947  2.9369
24997SOL    HW282042   7.521  12.327   3.055 -3.6124 -0.2873  0.5153
24998SOL     OW82043   2.501   8.406  10.875 -0.6406 -0.8258  0.2538
24998SOL    HW182044   2.529   8.481  10.821  0.1444  0.2888  2.1006
24998SOL    HW282045   2.415   8.431  10.907 -0.8421 -1.2162  0.0251
24999SOL     OW82046   8.736  10.909   6.135 -0.8944  0.1163  0.5792
24999SOL    HW182047   8.726  10.952   6.220 -1.6157 -0.6266  0.8744
24999SOL    HW282048   8.769  10.821   6.156 -1.1584 -0.0986  0.0941
25000SOL     OW82049   4.292   5.662  12.471 -0.3052  0.4395  0.4336
25000SOL    HW182050   4.347   5.605  12.524  0.9014  1.9013  0.8285
25000SOL    HW282051   4.266   5.733  12.530 -2.3600 -0.0110  0.1517
25001SOL     OW82052   3.713   9.013  12.007  0.1155 -0.0687 -0.4947
25001SOL    HW182053   3.807   9.017  12.024  0.1526 -1.5378 -0.1519
25001SOL    HW282054   3.707   8.979  11.917 -0.0358 -2.0977  0.2198
25002SOL     OW82055   6.377   8.413   1.307 -0.2007  0.3213 -0.0748
25002SOL    HW182056   6.462   8.405   1.264  0.5742  1.0614  1.2798
25002SOL    HW282057   6.342   8.497   1.275  0.0733  0.5449  0.2071
25003SOL     OW82058   0.115   0.765   9.163 -0.3251 -0.3618 -0.1324
25003SOL    HW182059   0.181   0.815   9.115 -0.4853  1.0509  1.0359
25003SOL    HW282060   0.160   0.733   9.241 -0.3159 -1.8058 -0.7016
25004SOL     OW82061   1.801   9.481   6.799 -0.0941 -0.3128  0.0807
25004SOL    HW182062   1.855   9.525   6.864  0.8370 -1.2862 -0.0077
25004SOL    HW282063   1.711   9.501   6.826  0.2495 -0.9022  1.8411
25005SOL     OW82064   2.023   7.223   8.214 -0.3015  1.0782  0.3064
25005SOL    HW182065   1.968   7.148   8.238 -0.5771  0.7814 -1.1527
25005SOL    HW282066   1.962   7.288   8.179  0.3512 -0.1159 -3.4837
25006SOL     OW82067   8.701   4.664   0.115 -0.8375  0.3145 -0.3306
25006SOL    HW182068   8.753   4.624   0.185 -2.5738  0.3059  1.0364
25006SOL    HW282069   8.653   4.735   0.159 -1.8692  0.4101 -1.5389
25007SOL     OW82070   0.168   4.898  11.272 -0.6574 -0.2084  0.5245
25007SOL    HW182071   0.232   4.964  11.299  1.8723 -2.1347 -0.2864
25007SOL    HW282072   0.121   4.876  11.353 -1.2349  2.1590  0.8994
25008SOL     OW82073   5.429   1.248   0.032 -0.0165  0.8192 -0.1519
25008SOL    HW182074   5.410   1.294   0.113  0.4771  0.7051  0.0312
25008SOL    HW282075   5.522   1.225   0.038 -0.0683  0.4748 -0.5781
25009SOL     OW82076  10.068   4.840   1.985  0.2630  0.2148  0.3552
25009SOL    HW182077  10.060   4.838   1.890  0.4163 -1.2308  0.3433
25009SOL    HW282078  10.000   4.780   2.016  0.9609 -0.2283  1.0792
25010SOL     OW82079   7.605   2.342  10.903 -0.7429  0.3105  0.7081
25010SOL    HW182080   7.696   2.332  10.932  0.1499  2.1355 -1.1810
25010SOL    HW282081   7.575   2.253  10.889  0.9941 -0.3257  0.7482
25011SOL     OW82082   1.410  10.966  10.958 -0.0936  0.1163 -0.2595
25011SOL    HW182083   1.343  11.020  10.999 -0.2429  0.2595 -0.6818
25011SOL    HW282084   1.403  10.881  11.001 -0.1097  0.3221  0.1482
25012SOL     OW82085  11.457   2.278   4.834  0.0630 -0.5181 -0.5789
25012SOL    HW182086  11.550   2.282   4.813 -0.1329 -0.7259 -1.5455
25012SOL    HW282087  11.451   2.313   4.922  0.9775  0.0737 -0.7377
25013SOL     OW82088  11.823   3.435  10.408  0.5571 -0.0549 -0.0610
25013SOL    HW182089  11.756   3.435  10.339  1.2628 -3.5669 -0.9369
25013SOL    HW282090  11.773   3.425  10.489 -0.1257 -2.8332 -0.7212
25014SOL     OW82091  11.484   5.394   0.178  0.1923  0.2762 -0.2825
25014SOL    HW182092  11.393   5.387   0.209  0.5751  0.6308  0.9868
25014SOL    HW282093  11.519   5.470   0.225  1.3079 -0.1882 -0.3345
25015SOL     OW82094   5.270   1.749   5.197  0.0217 -0.2083 -0.1548
25015SOL    HW182095   5.188   1.730   5.243  1.1922 -1.1682  1.6726
25015SOL    HW282096   5.301   1.664   5.167  1.5788 -0.2696  1.4564
25016SOL     OW82097   5.455   4.901  10.555  0.2171 -0.1755 -0.3266
25016SOL    HW182098   5.363   4.910  10.583 -0.6182  0.3211 -2.9390
25016SOL    HW282099   5.501   4.875  10.635 -2.6641 -3.4644  0.5746
25017SOL     OW82100   4.673   0.293  11.436  0.2175  0.0872 -0.2286
25017SOL    HW182101   4.700   0.227  11.372  0.3116  0.6666 -0.8079
25017SOL    HW282102   4.626   0.245  11.503 -0.7166 -0.4273 -1.2253
25018SOL     OW82103   4.596   1.883   1.054  0.5283  0.1509 -0.8311
25018SOL    HW182104   4.571   1.938   0.979  0.7407 -1.8229 -2.4669
25018SOL    HW282105   4.614   1.797   1.014 -0.0967 -1.1928  1.6093
25019SOL     OW82106  11.035   8.033   5.221  0.1603 -0.2310 -0.1167
25019SOL    HW182107  11.101   7.987   5.272  1.4324 -0.0492 -1.5513
25019SOL    HW282108  11.072   8.119   5.204 -1.4354  0.7392  0.9868
25020SOL     OW82109   0.777   7.500   7.854 -0.1856 -0.5292  0.1637
25020SOL    HW182110   0.755   7.461   7.769  0.1833 -0.2121 -0.0856
25020SOL    HW282111   0.741   7.440   7.919 -2.0454  0.1177 -0.2112
25021SOL     OW82112   3.107   7.079  12.449 -0.2393 -0.0435  0.4771
25021SOL    HW182113   3.138   7.169  12.441  1.9744 -0.8849 -1.9398
25021SOL    HW282114   3.160   7.042  12.519 -1.1207  0.5024  1.4433
25022SOL     OW82115   2.984   5.394   3.175  0.2180 -0.8931  0.2380
25022SOL    HW182116   3.002   5.486   3.194 -2.5315  0.1197 -1.4368
25022SOL    HW282117   2.972   5.392   3.080 -0.1773 -2.9003  0.2918
25023SOL     OW82118  10.046   7.238   4.564  0.2900 -0.0828 -0.2648
25023SOL    HW182119   9.968   7.265   4.612 -0.1230  1.0616 -1.4896
25023SOL    HW282120  10.013   7.188   4.489  0.7544  0.0246 -0.5508
25024SOL     OW82121  10.791  11.871  10.903  0.4541 -0.0395 -0.1315
25024SOL    HW182122  10.747  11.952  10.876 -0.3261  0.0486  1.2683
25024SOL    HW282123  10.843  11.845  10.827 -1.5075  0.2113 -1.6303
25025SOL     OW82124   1.177   9.685   0.723  0.0865  0.2079 -0.1946
25025SOL    HW182125   1.225   9.746   0.779  0.0726  1.4463 -1.4619
25025SOL    HW282126   1.153   9.613   0.780  3.3689 -0.4597  0.5200
25026SOL     OW82127   2.578   6.063   2.565  0.0966  0.1936 -0.3108
25026SOL    HW182128   2.558   6.037   2.475 -0.4991  0.3402 -0.2269
25026SOL    HW282129   2.629   6.143   2.556  0.1777  0.1186 -0.5221
25027SOL     OW82130   5.115   4.933  10.985 -0.2650  0.2526  1.1517
25027SOL    HW182131   5.140   4.886  11.065 -0.0209 -1.2997  0.2072
25027SOL    HW282132   5.024   4.906  10.969  0.6377 -1.9880 -0.7463
25028SOL     OW82133  11.546  11.180  11.574 -0.6293  0.1421 -0.0481
25028SOL    HW182134  11.628  11.224  11.593  0.7662 -2.3855  0.1657
25028SOL    HW282135  11.522  11.211  11.486  1.4316 -0.2811 -0.8086
25029SOL     OW82136   8.925   2.668  12.477 -0.2854  0.4648 -0.1443
25029SOL    HW182137   8.949   2.578  12.455  0.7144  0.7512 -0.2828
25029SOL    HW282138   8.843   2.682  12.430 -1.4084 -0.9395  1.2983
25030SOL     OW82139   8.069  11.706   8.763 -0.2997 -0.3336  0.2344
25030SOL    HW182140   8.119  11.624   8.757 -1.1680 -1.3508  4.0936
25030SOL    HW282141   7.978  11.678   8.764 -0.7736  1.0115 -1.1291
25031SOL     OW82142   4.161   1.337   6.797  0.6486  0.3776 -0.2760
25031SOL    HW182143   4.168   1.413   6.855 -1.8123  0.0126  0.6238
25031SOL    HW282144   4.231   1.350   6.732  1.9569  2.0338  1.3433
25032SOL     OW82145   2.019  11.111   9.900  0.1392  0.0557 -0.1620
25032SOL    HW182146   1.955  11.112   9.829  0.3487  0.2579 -0.3522
25032SOL    HW282147   2.089  11.052   9.869  0.7646  1.0131 -0.6083
25033SOL     OW82148   4.028   2.228  11.212  0.2741  0.0553  0.2134
25033SOL    HW182149   4.024   2.270  11.298  0.2052 -0.7017  0.5866
25033SOL    HW282150   4.048   2.136  11.230 -0.8401 -0.3534 -0.5051
25034SOL     OW82151   8.032  12.280   8.274  0.0548  0.0538 -0.0459
25034SOL    HW182152   7.939  12.297   8.259  0.0681 -0.8253 -1.2351
25034SOL    HW282153   8.068  12.364   8.304 -1.5881 -0.1537  2.9270
25035SOL     OW82154   6.293   0.177  12.444 -0.0000 -0.4587  0.3269
25035SOL    HW182155   6.302   0.248  12.508  0.9916 -0.2451 -0.0407
25035SOL    HW282156   6.376   0.177  12.396 -1.2209  0.3272 -1.9482
25036SOL     OW82157  11.376  12.242  10.442 -0.5750 -0.5113  0.0390
25036SOL    HW182158  11.397  12.307  10.509 -1.4930 -0.8188  0.6383
25036SOL    HW282159  11.428  12.165  10.467  2.2333  0.5840 -1.8773
25037SOL     OW82160   3.735   1.106   5.172 -0.2207 -0.2840  0.3467
25037SOL    HW182161   3.751   1.189   5.127  1.0429  0.8248  2.6765
25037SOL    HW282162   3.799   1.046   5.135 -0.5713 -0.0229 -0.7415
25038SOL     OW82163   6.121  11.573   2.151  0.3766 -0.6219 -0.1935
25038SOL    HW182164   6.137  11.479   2.139  1.3902 -0.6613  1.2752
25038SOL    HW282165   6.201  11.606   2.192 -0.3854  0.6861  0.2844
25039SOL     OW82166   0.447   8.304   2.094 -0.2818 -0.4383 -0.1588
25039SOL    HW182167   0.476   8.374   2.036 -1.5610 -0.8480 -1.3546
25039SOL    HW282168   0.526   8.277   2.140  0.8069 -0.1171 -1.7472
25040SOL     OW82169   8.235   1.164  10.540  0.3371 -0.1448 -0.1604
25040SOL    HW182170   8.169   1.170  10.609 -0.6369 -1.1981 -0.9650
25040SOL    HW282171   8.301   1.103  10.575  0.0930 -0.2976  0.0388
25041SOL     OW82172  12.054   4.332   8.711 -0.5417 -0.9779 -0.0277
25041SOL    HW182173  12.076   4.355   8.801  0.4009 -0.0947 -0.4712
25041SOL    HW282174  12.084   4.242   8.701 -0.8534 -1.1541  0.5994
25042SOL     OW82175   1.854   2.478   5.621 -0.1616  0.1869 -0.0851
25042SOL    HW182176   1.824   2.431   5.698  0.6717  0.1375  0.2173
25042SOL    HW282177   1.799   2.445   5.550  1.3850 -2.4284 -0.2027
25043SOL     OW82178  10.858   1.336   4.259  0.1156  0.3202 -0.1329
25043SOL    HW182179  10.953   1.335   4.246  0.0189  1.5560 -1.1661
25043SOL    HW282180  10.822   1.347   4.171 -0.9016  1.9090  0.4324
25044SOL     OW82181   6.177   2.791   2.499  0.2392  0.3920 -0.4155
25044SOL    HW182182   6.140   2.743   2.425 -0.6017  0.3221  0.0356
25044SOL    HW282183   6.242   2.731   2.537 -1.0060 -0.5439  0.3206
25045SOL     OW82184   0.011  11.540   2.329 -0.7853  0.3821  0.1900
25045SOL    HW182185   0.063  11.620   2.340 -0.1985 -0.1619  1.6741
25045SOL    HW282186   0.045  11.480   2.396 -2.0447 -0.6718 -0.0751
25046SOL     OW82187   5.960   2.738   6.603  0.0268  0.1451 -0.0350
25046SOL    HW182188   6.056   2.742   6.599  0.0444 -0.3368 -0.0606
25046SOL    HW282189   5.935   2.822   6.643  0.4387  0.4101 -0.3215
25047SOL     OW82190   8.832   7.713   8.288  0.3825  0.5040  0.6007
25047SOL    HW182191   8.911   7.740   8.335 -0.0107  2.4799  0.1947
25047SOL    HW282192   8.817   7.781   8.223 -1.6988  0.2168  0.6936
25048SOL     OW82193   9.196  10.650   2.079  0.0516 -0.1117 -0.0874
25048SOL    HW182194   9.170  10.572   2.128  1.1413  0.5293  1.6005
25048SOL    HW282195   9.286  10.632   2.051  0.7990  0.9559  1.4122
25049SOL     OW82196   1.808  12.177   0.125  0.4315  0.2574 -0.3303
25049SOL    HW182197   1.728  12.145   0.083  1.0233  1.2414 -2.3365
25049SOL    HW282198   1.785  12.264   0.157  0.5576  0.3366 -0.4553
25050SOL     OW82199   2.351  10.779   0.154 -0.2155 -0.7166 -0.2851
25050SOL    HW182200   2.292  10.710   0.186 -0.9954 -0.2702 -0.7261
25050SOL    HW282201   2.295  10.856   0.145  0.2368 -0.5222 -1.5936
25051SOL     OW82202   9.575   5.953   9.230 -0.4946  0.5350  0.0014
25051SOL    HW182203   9.576   5.919   9.320 -2.5713 -2.2539 -0.9007
25051SOL    HW282204   9.645   5.906   9.186 -2.2711 -1.4527 -0.8327
25052SOL     OW82205   8.300  12.355   5.845  0.6098 -0.3336 -0.0165
25052SOL    HW182206   8.345  12.350   5.761 -0.9016  0.3372 -0.9171
25052SOL    HW282207   8.259  12.442   5.844  0.8904 -0.1549  1.6003
25053SOL     OW82208   6.907   7.585   3.505 -0.1143 -0.2219 -0.0245
25053SOL    HW182209   6.913   7.490   3.499  2.5729 -0.0542 -1.1211
25053SOL    HW282210   6.847   7.601   3.579 -0.2460 -2.7247  0.4837
25054SOL     OW82211   5.790  10.384  12.525 -0.3733  0.5506  0.4335
25054SOL    HW182212   5.774  10.327  12.450 -0.9766 -0.0080  0.9710
25054SOL    HW282213   5.838  10.329  12.587 -2.4936  0.0293  1.6964
25055SOL     OW82214   4.630  10.853   2.000  0.0299  0.1384 -0.1263
25055SOL    HW182215   4.599  10.865   2.090  1.9243 -0.1761  0.6190
25055SOL    HW282216   4.617  10.760   1.982  3.4043 -0.7709  1.4237
25056SOL     OW82217   7.545  12.537   5.993 -0.5190  0.3474 -0.4454
25056SOL    HW182218   7.608  12.490   5.939  1.3962  3.3465 -1.0353
25056SOL    HW282219   7.485  12.577   5.930  0.0299  1.5362 -0.2520
25057SOL     OW82220   8.927   4.828   9.531 -0.3652 -0.3360 -0.8190
25057SOL    HW182221   8.837   4.797   9.538 -0.5725  0.0995 -1.4100
25057SOL    HW282222   8.960   4.827   9.621 -1.9033  2.2135 -0.1003
25058SOL     OW82223   0.007   4.845   2.703 -0.0035  0.1847  0.4020
25058SOL    HW182224   0.006   4.926   2.755 -1.4349  0.6504 -0.2718
25058SOL    HW282225   0.098   4.818   2.701  0.9040  2.9695 -1.1240
25059SOL     OW82226   6.718   8.607   6.348  0.1510 -0.7373  0.1380
25059SOL    HW182227   6.719   8.513   6.369 -2.8165 -0.4744  1.9880
25059SOL    HW282228   6.645   8.617   6.287  0.2063  0.4253  0.2496
25060SOL     OW82229   0.257   9.916   1.690 -0.7433 -0.1633 -0.0576
25060SOL    HW182230   0.180   9.860   1.691 -0.5158 -0.4789  0.8029
25060SOL    HW282231   0.309   9.883   1.616 -0.8902 -0.7065  0.0733
25061SOL     OW82232   3.167  10.941  12.457  0.3527  0.0988  0.2171
25061SOL    HW182233   3.078  10.969  12.479  0.1763 -0.1367 -0.1800
25061SOL    HW282234   3.192  10.882  12.528 -0.4639 -1.1831 -0.5263
25062SOL     OW82235   9.230   2.140   5.530 -0.3623  0.4963  0.1807
25062SOL    HW182236   9.293   2.084   5.485  0.1758 -0.4371  2.0223
25062SOL    HW282237   9.159   2.150   5.467  0.0727 -1.2591 -0.6616
25063SOL     OW82238   3.187  11.860   8.026 -0.2283 -0.8251 -0.1248
25063SOL    HW182239   3.146  11.773   8.035 -2.3657  0.1718  0.5154
25063SOL    HW282240   3.141  11.901   7.953  1.7066 -0.6773 -1.3280
25064SOL     OW82241   1.996   4.374   4.612  0.1187  0.1996 -0.5239
25064SOL    HW182242   1.982   4.280   4.602 -1.1893  0.0565  1.7931
25064SOL    HW282243   2.010   4.386   4.706  1.0878  2.2415 -0.8782
25065SOL     OW82244   6.661   3.773   4.603 -0.0497 -0.1756  0.0458
25065SOL    HW182245   6.660   3.868   4.605  0.8200 -0.1429 -0.7268
25065SOL    HW282246   6.631   3.750   4.515  1.8375 -0.5389 -0.5443
25066SOL     OW82247   4.707   7.536  10.818  0.0078 -0.3200 -0.3917
25066SOL    HW182248   4.644   7.603  10.793 -0.0497 -0.5569 -0.8910
25066SOL    HW282249   4.710   7.476  10.743  0.3803 -0.6368 -0.1292
25067SOL     OW82250   5.589   2.350  11.359 -0.1094 -0.3207  0.0469
25067SOL    HW182251   5.605   2.443  11.376 -0.0018 -0.2350 -0.4798
25067SOL    HW282252   5.676   2.311  11.362 -0.3507 -0.8101  2.4347
25068SOL     OW82253   7.879   9.682   0.275  0.0427 -0.1519  0.4393
25068SOL    HW182254   7.916   9.601   0.310  1.4650  0.8311  1.3167
25068SOL    HW282255   7.859   9.662   0.184  1.4272 -1.1776  0.3316
25069SOL     OW82256   2.784   6.948   6.830 -0.1489  0.4001  0.1153
25069SOL    HW182257   2.862   6.936   6.775 -2.0641 -2.2142 -2.3004
25069SOL    HW282258   2.717   6.982   6.771 -1.0451  2.2747  2.0601
25070SOL     OW82259   7.297   5.774   9.079  0.0164  0.6520 -0.3260
25070SOL    HW182260   7.208   5.741   9.089 -0.2900  1.7945  0.9334
25070SOL    HW282261   7.321   5.806   9.166  1.1797  1.5224 -0.9395
25071SOL     OW82262   7.748   6.442  12.491 -0.5288  0.0134  0.1472
25071SOL    HW182263   7.805   6.457  12.415  0.5110  0.0644  0.9206
25071SOL    HW282264   7.706   6.358  12.473  0.3998 -0.4158 -0.0714
25072SOL     OW82265  12.378   5.307   3.950 -0.1060  0.6563  0.4352
25072SOL    HW182266  12.421   5.246   3.890 -1.8456 -1.4046  1.1437
25072SOL    HW282267  12.421   5.292   4.034  0.6168  1.7006  0.2704
25073SOL     OW82268   6.801   3.959  12.211 -0.0495 -0.1970  0.0752
25073SOL    HW182269   6.843   4.030  12.259 -0.3581  0.3358 -0.4355
25073SOL    HW282270   6.835   3.967  12.121  0.3078 -1.0096  0.1194
25074SOL     OW82271  11.763   9.462   8.889  0.7232  0.3011 -0.1813
25074SOL    HW182272  11.835   9.524   8.900 -0.4645  1.7260 -0.0109
25074SOL    HW282273  11.748   9.427   8.977 -0.9514  2.5986  0.5478
25075SOL     OW82274   8.812  12.378  10.238 -0.0992  0.1831  0.2175
25075SOL    HW182275   8.811  12.400  10.331  0.1234  2.3166 -0.2244
25075SOL    HW282276   8.904  12.390  10.212 -0.7080  3.1947 -0.9635
25076SOL     OW82277   4.956   8.737   6.303 -0.1867  0.3690  0.1925
25076SOL    HW182278   4.928   8.752   6.213 -0.5487  2.4030  0.6085
25076SOL    HW282279   4.929   8.815   6.350  1.6355  0.1552  1.6890
25077SOL     OW82280  11.506   3.401   6.315  0.1988  0.2649 -0.2391
25077SOL    HW182281  11.555   3.401   6.233  1.9100 -0.0947  0.7341
25077SOL    HW282282  11.507   3.310   6.344  0.0185  0.4647  0.4104
25078SOL     OW82283   2.591   5.502   1.526  0.5516  0.3591 -0.1739
25078SOL    HW182284   2.656   5.561   1.564 -0.0745  0.9185  0.0605
25078SOL    HW282285   2.520   5.560   1.497 -0.3052 -0.3075  0.5092
25079SOL     OW82286   8.404   3.096  10.212  0.1068 -0.3847  0.4686
25079SOL    HW182287   8.397   3.007  10.179 -2.8051  0.3896 -1.3652
25079SOL    HW282288   8.349   3.097  10.290  0.0172 -0.1398  0.4017
25080SOL     OW82289   3.366   6.486   3.809  0.3186 -0.2140  0.0210
25080SOL    HW182290   3.292   6.533   3.847  0.5013 -0.6521  0.9636
25080SOL    HW282291   3.443   6.523   3.853  0.8114  1.1345 -1.8598
25081SOL     OW82292  11.528   5.278   0.872 -0.9192  0.4717 -0.3112
25081SOL    HW182293  11.482   5.232   0.802  2.5008 -0.3131 -2.2767
25081SOL    HW282294  11.563   5.208   0.928  0.0779  0.9121 -0.3806
25082SOL     OW82295  11.757   7.842  10.578  0.5259  0.1819 -0.0042
25082SOL    HW182296  11.782   7.935  10.581  0.3987  0.1965  1.7004
25082SOL    HW282297  11.799   7.808  10.500  1.5865  1.4037  0.0046
25083SOL     OW82298   8.641   6.696   1.384  0.0806 -0.1558  0.4377
25083SOL    HW182299   8.632   6.680   1.478  0.3510  0.0118  0.4952
25083SOL    HW282300   8.569   6.755   1.362 -0.0699 -0.3122  0.5095
25084SOL     OW82301   4.122  10.641   0.719 -0.2469 -0.3648 -0.5804
25084SOL    HW182302   4.139  10.654   0.813  0.4676 -0.0117 -0.7534
25084SOL    HW282303   4.065  10.564   0.716  0.2112 -0.7398  0.1076
25085SOL     OW82304   0.528   6.895   7.590  0.2907 -0.5104 -0.9176
25085SOL    HW182305   0.439   6.897   7.626  0.4710  0.3126 -0.4913
25085SOL    HW282306   0.559   6.806   7.607  0.6277  0.0171  1.6493
25086SOL     OW82307   1.409   8.423  12.249  0.2074  0.1331 -0.5374
25086SOL    HW182308   1.339   8.405  12.185  1.3311 -0.9913 -1.4951
25086SOL    HW282309   1.466   8.486  12.205  0.5684 -0.0421 -0.3183
25087SOL     OW82310   7.802   0.156   0.665  0.5262  0.3549 -0.5524
25087SOL    HW182311   7.718   0.194   0.638 -0.0258 -0.6543 -0.3312
25087SOL    HW282312   7.852   0.148   0.583  0.8989  2.0519 -0.5318
25088SOL     OW82313   1.960   5.430   2.828  0.0821 -0.0893  0.0069
25088SOL    HW182314   1.947   5.503   2.889  0.6729 -0.0552  0.0970
25088SOL    HW282315   2.040   5.388   2.858  0.5109  0.0700 -0.8923
25089SOL     OW82316   5.700  11.032   3.217  0.7387  0.3189  0.2787
25089SOL    HW182317   5.773  11.069   3.166  0.2772 -2.6888 -2.9363
25089SOL    HW282318   5.726  10.941   3.232 -0.4671  0.3576  3.1385
25090SOL     OW82319  11.279   6.731   6.240  0.7880  0.0468 -0.2040
25090SOL    HW182320  11.241   6.802   6.292 -0.1293  0.9333 -2.0047
25090SOL    HW282321  11.350   6.697   6.294  0.3631  1.4207  1.2865
25091SOL     OW82322  11.188   9.950   2.519  0.2065 -0.1924  0.1522
25091SOL    HW182323  11.258   9.994   2.566 -0.4766  0.7067  0.3571
25091SOL    HW282324  11.175   9.868   2.568  0.1422  0.3001  0.9808
25092SOL     OW82325   7.058   5.622   1.018 -0.1042 -0.0395 -0.1742
25092SOL    HW182326   7.061   5.527   1.016  0.1376 -0.0254 -1.4569
25092SOL    HW282327   7.021   5.643   1.104  0.3874 -1.2609  0.3613
25093SOL     OW82328  11.175   6.706   7.919  0.4665 -0.4291 -0.3654
25093SOL    HW182329  11.227   6.781   7.948 -1.0166  0.8332 -0.8512
25093SOL    HW282330  11.203   6.690   7.829  0.3360 -0.0431 -0.4742
25094SOL     OW82331   8.845   3.573   2.445 -0.0426 -0.0972 -0.4308
25094SOL    HW182332   8.914   3.627   2.407  0.0645  0.5516  0.6423
25094SOL    HW282333   8.821   3.512   2.376  1.4049 -0.1407 -0.9147
25095SOL     OW82334   6.188  11.698   8.108 -0.0169  0.3785 -0.3868
25095SOL    HW182335   6.101  11.669   8.135  0.1332  1.3009  1.1818
25095SOL    HW282336   6.172  11.771   8.049 -0.3039 -0.0558 -0.8586
25096SOL     OW82337  10.580  11.049   6.826 -0.0748  0.3783  0.5873
25096SOL    HW182338  10.673  11.068   6.837  0.0242 -0.3017  1.0451
25096SOL    HW282339  10.537  11.102   6.893 -0.0478  0.8860  0.2105
25097SOL     OW82340   8.123   4.469   2.310 -0.0968 -0.2630  0.3984
25097SOL    HW182341   8.078   4.463   2.225 -0.7840 -0.8781  0.7910
25097SOL    HW282342   8.137   4.377   2.335 -0.0944 -0.0808  1.0599
25098SOL     OW82343   4.426   6.153  11.979 -0.1052  0.0316 -0.0383
25098SOL    HW182344   4.359   6.084  11.986 -0.6889  0.6803  0.8942
25098SOL    HW282345   4.478   6.144  12.059  0.5929 -0.1014 -0.4957
25099SOL     OW82346   1.883   7.376  11.825 -0.3716 -0.7393 -0.0250
25099SOL    HW182347   1.890   7.329  11.908  0.4807  0.6350  0.7173
25099SOL    HW282348   1.789   7.379  11.807 -0.4967 -2.0140  0.2905
25100SOL     OW82349   6.429   3.456   2.566 -0.4284  0.0096  0.1211
25100SOL    HW182350   6.504   3.467   2.508  0.3092  0.4604  1.1267
25100SOL    HW282351   6.374   3.390   2.523 -0.7158  1.4532 -1.8673
25101SOL     OW82352   4.595  12.045   9.109 -0.2425 -0.3624 -0.1402
25101SOL    HW182353   4.571  12.026   9.200  0.5363  0.1383  0.1774
25101SOL    HW282354   4.649  11.970   9.083  0.1777 -0.1345  0.0679
25102SOL     OW82355   7.073   2.632   4.808  0.0157 -0.1275 -0.2373
25102SOL    HW182356   7.034   2.718   4.820 -2.3291 -1.0785 -0.4356
25102SOL    HW282357   7.019   2.574   4.863  1.0564 -1.5728 -0.6786
25103SOL     OW82358  11.972   4.691  11.234  0.2228  0.6114  0.3025
25103SOL    HW182359  11.927   4.764  11.277 -1.0690 -0.2396  0.4540
25103SOL    HW282360  12.065   4.706  11.253 -0.0729  1.8255  0.9222
25104SOL     OW82361   7.234  10.373   9.483 -0.0492  0.0475 -0.1831
25104SOL    HW182362   7.319  10.410   9.505 -0.2461 -0.3551  1.4157
25104SOL    HW282363   7.251  10.315   9.409  1.1722 -0.4122  0.4273
25105SOL     OW82364   5.034   9.107   5.848 -0.0812 -0.0527 -0.0943
25105SOL    HW182365   4.983   9.083   5.925  0.4328 -0.7402  0.0419
25105SOL    HW282366   5.120   9.068   5.863  0.2254  0.3659 -0.7136
25106SOL     OW82367   0.519   4.334  12.250  0.1514  0.0811 -0.2129
25106SOL    HW182368   0.536   4.250  12.207  0.0579  0.0060 -0.1074
25106SOL    HW282369   0.539   4.317  12.343 -0.5451 -0.0240 -0.0768
25107SOL     OW82370   2.248  10.895  12.191  0.0203 -0.2924  0.0677
25107SOL    HW182371   2.267  10.850  12.108  1.8678  1.5429 -0.6068
25107SOL    HW282372   2.218  10.982  12.165  0.9704  0.4368  1.2859
25108SOL     OW82373   8.857   4.060   7.531 -0.6050 -0.1124 -0.1302
25108SOL    HW182374   8.901   3.999   7.473  0.8068  1.3143 -0.6492
25108SOL    HW282375   8.861   4.144   7.485 -3.3274  0.2344  0.1181
25109SOL     OW82376   9.437  11.862   7.478  0.2518 -0.0117  0.3004
25109SOL    HW182377   9.349  11.897   7.488 -0.2870 -1.4510  0.7697
25109SOL    HW282378   9.483  11.892   7.557  0.3680  1.1922 -0.2006
25110SOL     OW82379   0.840  12.258   2.269  0.0444 -0.2353 -0.3903
25110SOL    HW182380   0.800  12.179   2.304  0.0848 -0.4706 -0.8573
25110SOL    HW282381   0.929  12.231   2.246  0.8818  0.5626  1.7006
25111SOL     OW82382  12.366   3.500   9.914  0.0508  0.3794 -0.2004
25111SOL    HW182383  12.443   3.533   9.960  0.4137  0.3719 -0.7924
25111SOL    HW282384  12.307   3.471   9.984  0.0073  1.6294  0.3146
25112SOL     OW82385   6.358  11.656   7.659 -0.0915  0.2465  0.6659
25112SOL    HW182386   6.293  11.727   7.659  0.9993  1.2912  1.8547
25112SOL    HW282387   6.400  11.663   7.573 -0.6217  0.4238  0.4118
25113SOL     OW82388   8.996   2.570  11.558 -0.3271 -0.4631 -0.9021
25113SOL    HW182389   9.091   2.583  11.561 -0.1218 -1.8600 -0.5853
25113SOL    HW282390   8.961   2.630  11.624  0.2942  0.3021 -1.2488
25114SOL     OW82391   7.848   4.318   3.161 -0.1180 -0.2283 -0.1769
25114SOL    HW182392   7.822   4.374   3.235  1.1973  0.0902  0.0729
25114SOL    HW282393   7.790   4.344   3.090 -0.3101  0.6359  0.2805
25115SOL     OW82394   7.373   4.324   2.952 -0.0324 -0.3143  0.0198
25115SOL    HW182395   7.404   4.381   2.882 -1.9506  4.1590  2.4248
25115SOL    HW282396   7.283   4.302   2.926 -0.5932  0.9879  0.7607
25116SOL     OW82397   5.203  11.831  10.327  0.5660 -0.4226  0.1543
25116SOL    HW182398   5.219  11.916  10.286 -0.0451 -0.9046 -1.1636
25116SOL    HW282399   5.291  11.795  10.342  0.8369  0.5676  1.0557
25117SOL     OW82400   6.407   6.369  12.564 -0.0533  0.1800  0.4681
25117SOL    HW182401   6.414   6.339  12.654  3.6660  0.4211  0.4243
25117SOL    HW282402   6.387   6.462  12.571  3.1615  0.9325  1.3258
25118SOL     OW82403   4.895  11.681   6.770 -0.0543  0.6704 -0.4922
25118SOL    HW182404   4.858  11.600   6.805 -0.3635  0.5073 -1.1796
25118SOL    HW282405   4.866  11.684   6.679  1.1319  0.8487 -0.8825
25119SOL     OW82406  10.756   2.004   2.487 -0.0052  0.3025 -0.1075
25119SOL    HW182407  10.709   2.068   2.540 -0.5717 -0.4281  0.2847
25119SOL    HW282408  10.707   1.922   2.498 -0.3717  0.2085 -2.0743
25120SOL     OW82409   3.242   5.965   2.433 -0.0948 -0.5862 -0.4673
25120SOL    HW182410   3.316   5.905   2.421  0.8549  0.9057 -2.6856
25120SOL    HW282411   3.165   5.909   2.428  0.7973 -1.8272 -0.9761
25121SOL     OW82412   8.496   8.575   6.206 -0.5511  0.4226 -0.6168
25121SOL    HW182413   8.507   8.481   6.193  0.8098  0.3928  0.5306
25121SOL    HW282414   8.585   8.609   6.215 -0.9640  0.9287  4.5621
25122SOL     OW82415  10.602  10.748   5.376 -0.7420 -0.1218  0.2073
25122SOL    HW182416  10.571  10.833   5.343 -0.8320 -0.2480 -0.0376
25122SOL    HW282417  10.526  10.690   5.365 -0.2791 -0.5535 -0.8416
25123SOL     OW82418   8.728   9.257   2.766  0.4031 -0.0835 -0.3079
25123SOL    HW182419   8.738   9.190   2.834  2.2788  0.6565  0.2193
25123SOL    HW282420   8.662   9.222   2.706  1.3490 -2.3950 -0.0787
25124SOL     OW82421   9.183   2.613   8.726 -0.3089  0.1271  0.0966
25124SOL    HW182422   9.143   2.658   8.652 -0.3426  0.5736  0.3841
25124SOL    HW282423   9.276   2.634   8.720 -0.6372  2.4196  1.6962
25125SOL     OW82424   9.071   6.836  10.839  0.1188 -0.1134  0.7284
25125SOL    HW182425   9.122   6.821  10.919 -1.2487  1.5003  1.9710
25125SOL    HW282426   9.136   6.861  10.774  1.0639  1.0150  2.0317
25126SOL     OW82427   8.064  10.221   8.699 -0.7269  0.2985  0.4706
25126SOL    HW182428   8.139  10.210   8.640  0.4964 -0.3782  2.0723
25126SOL    HW282429   8.080  10.305   8.743 -0.5913 -0.1176  1.2301
25127SOL     OW82430   3.602  10.287  10.277 -0.1717 -0.2264  0.2542
25127SOL    HW182431   3.645  10.225  10.336  1.6334 -0.6989 -1.4500
25127SOL    HW282432   3.672  10.318  10.219 -1.8191  0.2122 -1.6230
25128SOL     OW82433   1.720   4.877   3.565 -0.7445  0.1788  0.1999
25128SOL    HW182434   1.749   4.880   3.656 -0.2786  1.4854  0.0273
25128SOL    HW282435   1.757   4.795   3.531 -1.7940 -0.8688  1.4382
25129SOL     OW82436   3.555   7.274   7.175 -0.6924 -0.4426  0.0141
25129SOL    HW182437   3.603   7.215   7.232  0.1476 -1.4019 -1.5988
25129SOL    HW282438   3.500   7.217   7.121 -0.9345  0.3585 -0.6099
25130SOL     OW82439   5.256   7.430   3.274  0.1080 -0.0132 -0.7179
25130SOL    HW182440   5.258   7.489   3.199 -0.5498  1.8937  0.6862
25130SOL    HW282441   5.310   7.474   3.341 -1.6026 -0.2238  0.8765
25131SOL     OW82442   8.879   5.988   5.118 -0.3782 -0.2737 -0.4236
25131SOL    HW182443   8.832   6.072   5.117  0.8353  0.4646  0.8270
25131SOL    HW282444   8.870   5.954   5.029 -2.1020  0.4851 -0.5745
25132SOL     OW82445   3.643   2.206   6.845  0.3629 -0.2232 -0.0135
25132SOL    HW182446   3.663   2.217   6.752 -0.7770 -0.0630 -0.2575
25132SOL    HW282447   3.710   2.146   6.877  0.8833 -0.1319 -0.8957
25133SOL     OW82448  10.496   9.389  12.220  0.4676  0.1314  0.2412
25133SOL    HW182449  10.454   9.303  12.228 -1.7753  1.0026 -1.1617
25133SOL    HW282450  10.550   9.382  12.141 -1.0387  0.4555 -0.8580
25134SOL     OW82451  12.580   0.188   5.576 -0.8351 -0.8150  0.2130
25134SOL    HW182452  12.658   0.204   5.523 -0.9696 -0.4940  0.1095
25134SOL    HW282453  12.587   0.250   5.648 -0.8651 -0.9629  0.3440
25135SOL     OW82454   7.121  11.443   1.434  0.0975  0.1689 -0.2005
25135SOL    HW182455   7.078  11.448   1.520 -1.3268  3.5410 -0.9733
25135SOL    HW282456   7.209  11.476   1.450  0.0682  0.1191  0.0774
25136SOL     OW82457   9.207   4.237   3.209  0.0830 -0.1974 -0.2771
25136SOL    HW182458   9.183   4.290   3.133  0.5356  1.2697  0.5544
25136SOL    HW282459   9.301   4.220   3.198  0.6659  1.8089  0.9101
25137SOL     OW82460   4.093  10.748   8.157 -0.1041  0.1527 -0.1883
25137SOL    HW182461   4.114  10.841   8.159 -0.0458  0.1261  0.5795
25137SOL    HW282462   4.113  10.716   8.245  0.4584 -0.7215 -0.6177
25138SOL     OW82463   6.471   3.370   9.764  0.0541  0.2138  0.0177
25138SOL    HW182464   6.476   3.278   9.738 -0.2458  0.6652 -1.8054
25138SOL    HW282465   6.498   3.371   9.856  0.6173 -1.6032 -0.0918
25139SOL     OW82466   6.267   6.097   0.070 -0.4085 -0.6211 -0.0382
25139SOL    HW182467   6.284   6.102   0.164  0.1544 -0.8473 -0.1219
25139SOL    HW282468   6.341   6.047   0.035 -1.0312 -1.2502 -0.4861
25140SOL     OW82469   8.987   1.508   0.987 -0.3214 -0.3520  0.3565
25140SOL    HW182470   9.030   1.577   1.038 -0.0913 -1.0078  1.0848
25140SOL    HW282471   9.007   1.428   1.036  0.4924 -1.1052 -1.1429
25141SOL     OW82472   8.817   2.108   2.406  0.5287  0.2350 -0.2367
25141SOL    HW182473   8.870   2.074   2.478 -0.7859  0.0716  0.6896
25141SOL    HW282474   8.867   2.184   2.374  1.3114  0.0982  0.6146
25142SOL     OW82475  10.849  11.202  12.439  0.3983 -0.2512  0.5321
25142SOL    HW182476  10.795  11.239  12.369 -0.6108 -2.8022 -0.1259
25142SOL    HW282477  10.939  11.214  12.409  0.2005  2.0777  0.6323
25143SOL     OW82478   8.732   8.919   0.355 -0.0102  0.3897  0.1893
25143SOL    HW182479   8.691   8.872   0.283  0.8870  2.6504 -1.9551
25143SOL    HW282480   8.661   8.968   0.396 -0.2690  0.3871 -0.2530
25144SOL     OW82481   7.862   7.935   3.682  0.1127  0.3554 -0.1323
25144SOL    HW182482   7.834   7.857   3.728 -0.1247 -0.4732 -1.6022
25144SOL    HW282483   7.946   7.958   3.721  0.2470 -0.7116  0.2204
25145SOL     OW82484   6.384   1.155   9.936  0.1872  0.1467 -0.2170
25145SOL    HW182485   6.412   1.183  10.023  1.6215  1.4019 -1.0337
25145SOL    HW282486   6.303   1.106   9.952 -0.0992  1.1376  1.7143
25146SOL     OW82487   4.411   3.121   5.969 -0.2468  0.6833 -0.1878
25146SOL    HW182488   4.410   3.210   5.934  1.0543  1.0582  0.6373
25146SOL    HW282489   4.463   3.071   5.906 -0.9983  0.4874 -0.6637
25147SOL     OW82490   9.453   4.619   0.621  0.0683 -0.0440  0.5398
25147SOL    HW182491   9.478   4.644   0.533 -0.5953 -0.2215  0.2930
25147SOL    HW282492   9.520   4.556   0.649 -0.0421 -0.4446 -0.0684
25148SOL     OW82493  11.743   3.003  10.668 -0.7739 -0.2531 -0.0232
25148SOL    HW182494  11.649   3.014  10.681 -1.0113 -0.6995 -1.2603
25148SOL    HW282495  11.752   2.916  10.629  0.0457  0.1918 -0.8733
25149SOL     OW82496   1.826   3.943   3.352 -0.4031 -0.2502  0.1565
25149SOL    HW182497   1.909   3.946   3.304 -0.7555  1.4042 -0.3842
25149SOL    HW282498   1.851   3.912   3.440  1.1043  1.9594  0.5775
25150SOL     OW82499   6.334   1.417   6.077 -0.1770  0.1782 -0.3113
25150SOL    HW182500   6.267   1.456   6.019 -0.5062 -0.6902 -0.5257
25150SOL    HW282501   6.385   1.361   6.020  0.2053  0.1797  0.0286
25151SOL     OW82502   5.752   7.982   3.662 -0.0079 -0.0053  0.3659
25151SOL    HW182503   5.716   7.914   3.606 -1.7618  0.6902  0.5773
25151SOL    HW282504   5.770   8.055   3.603 -0.1316  0.0816  0.4333
25152SOL     OW82505   4.388   8.819   4.570  0.6097 -0.6893 -0.2150
25152SOL    HW182506   4.409   8.859   4.486  1.8921  1.5338  1.0641
25152SOL    HW282507   4.397   8.725   4.555 -1.4155 -0.5900 -3.0942
25153SOL     OW82508   2.581   9.374   3.825 -0.1174  0.0764 -0.2390
25153SOL    HW182509   2.599   9.367   3.731 -1.5445 -0.0391 -0.5188
25153SOL    HW282510   2.667   9.362   3.867  0.4401 -0.4446 -1.4935
25154SOL     OW82511   1.978  10.095   0.518  0.2709 -0.1779 -0.4541
25154SOL    HW182512   1.916  10.022   0.522 -0.2734  0.1310 -2.5336
25154SOL    HW282513   1.932  10.162   0.468  1.1652  1.2202  0.5582
25155SOL     OW82514   0.716   7.152  10.599  0.5575 -0.5765 -0.0147
25155SOL    HW182515   0.727   7.123  10.689 -1.4219  2.6190  1.4098
25155SOL    HW282516   0.696   7.245  10.606 -0.7417 -0.4303 -3.7122
25156SOL     OW82517  11.479   1.740   5.840  0.2363 -0.5032  0.0961
25156SOL    HW182518  11.520   1.734   5.927 -1.1308 -0.9274  0.7355
25156SOL    HW282519  11.524   1.813   5.798  1.3202 -0.6464  0.9374
25157SOL     OW82520   1.030   3.580   6.310 -0.1281 -0.6733 -0.6423
25157SOL    HW182521   1.030   3.643   6.238  2.6762  0.3263  0.0874
25157SOL    HW282522   1.091   3.511   6.280  2.0286  0.3452  1.1273
25158SOL     OW82523   0.691   5.191   3.045 -0.3342  0.2638  0.7920
25158SOL    HW182524   0.605   5.208   3.007 -0.5493 -0.5625  0.9061
25158SOL    HW282525   0.750   5.251   2.997 -0.9474  0.7732  0.6617
25159SOL     OW82526   2.783   6.995  10.469 -0.6520  0.6885  0.1693
25159SOL    HW182527   2.821   7.076  10.437 -1.4967  0.6035 -1.1503
25159SOL    HW282528   2.725   7.021  10.540 -1.5576  1.3761 -0.7855
25160SOL     OW82529   0.752   1.513   4.621 -0.2577  0.2701 -0.1619
25160SOL    HW182530   0.704   1.529   4.541  0.5140  0.9208 -0.5117
25160SOL    HW282531   0.749   1.596   4.668 -1.6353 -0.4081  1.0168
25161SOL     OW82532   0.441   2.929  11.029  0.5190  0.6769  0.6375
25161SOL    HW182533   0.360   2.951  11.075 -0.1983  1.0494 -0.7402
25161SOL    HW282534   0.411   2.883  10.950  1.5639  1.8022 -0.4532
25162SOL     OW82535   1.463  10.972  12.150 -0.4450  0.0029 -0.2837
25162SOL    HW182536   1.553  10.938  12.147 -0.6145 -0.8634  1.9797
25162SOL    HW282537   1.471  11.062  12.120  1.2810  0.0947  0.3136
25163SOL     OW82538   4.835  10.795   3.046  0.2180 -0.0235  0.4434
25163SOL    HW182539   4.815  10.819   2.956  1.1964 -0.2423  0.1540
25163SOL    HW282540   4.756  10.751   3.078  0.1113 -0.5417 -0.5196
25164SOL     OW82541  11.201   2.111   7.131 -0.3119 -0.0733 -0.4380
25164SOL    HW182542  11.143   2.141   7.061  0.4367  1.8902 -0.2864
25164SOL    HW282543  11.142   2.097   7.206 -1.0459 -1.7003 -1.2818
25165SOL     OW82544   0.021   7.443   7.650 -0.2464  0.0229  0.3487
25165SOL    HW182545   0.023   7.363   7.596 -1.3701 -0.6187  1.2154
25165SOL    HW282546   0.097   7.493   7.621  0.1818 -1.1212 -0.5909
25166SOL     OW82547   6.545  10.159   2.531  0.4479 -0.8808  0.2598
25166SOL    HW182548   6.622  10.205   2.562  0.2458 -0.7424  0.5626
25166SOL    HW282549   6.484  10.162   2.605 -1.3271  2.2720 -1.1439
25167SOL     OW82550   4.692   8.329   4.524 -0.2014 -0.1881  0.3138
25167SOL    HW182551   4.692   8.417   4.563  0.1971  0.0079 -0.1199
25167SOL    HW282552   4.612   8.288   4.558 -0.0710  0.1211  1.0122
25168SOL     OW82553   9.148  11.627  11.219 -0.0175  0.3327  0.2250
25168SOL    HW182554   9.212  11.571  11.174  0.3815  0.9690 -0.0121
25168SOL    HW282555   9.190  11.648  11.303 -0.6851 -0.7091  0.8513
25169SOL     OW82556  12.003   2.260   7.286  0.6772  0.1701 -0.0244
25169SOL    HW182557  12.085   2.291   7.247  0.1597  0.1993 -1.1411
25169SOL    HW282558  12.029   2.185   7.339  1.2329 -0.9964 -1.8200
25170SOL     OW82559   5.318   5.372   7.224 -0.4618  0.5650 -0.3057
25170SOL    HW182560   5.337   5.286   7.260 -1.6547 -0.2984 -1.5795
25170SOL    HW282561   5.403   5.410   7.203  0.1325  0.1963  1.2990
25171SOL     OW82562  12.176   8.870   5.448 -0.1383 -0.4161 -0.2358
25171SOL    HW182563  12.139   8.847   5.534  1.7201  0.0317  0.7335
25171SOL    HW282564  12.142   8.958   5.430 -1.4413 -0.9565 -0.5219
25172SOL     OW82565   6.296   1.430   9.291 -0.0343  0.3802  0.3593
25172SOL    HW182566   6.272   1.338   9.303 -0.7561  0.6974  1.4142
25172SOL    HW282567   6.285   1.445   9.197 -1.3379 -0.2232  0.3968
25173SOL     OW82568   7.092   5.268   5.635 -0.1902 -0.2706  0.1239
25173SOL    HW182569   7.100   5.263   5.730  1.3627 -2.2339 -0.0589
25173SOL    HW282570   7.131   5.187   5.603 -0.7447  0.3105 -2.2017
25174SOL     OW82571   8.931   6.932   7.280 -0.2332  0.1782  0.2445
25174SOL    HW182572   8.989   6.861   7.308 -0.2485 -0.8126 -1.9778
25174SOL    HW282573   8.986   7.010   7.281 -0.5854  0.5823  4.1327
25175SOL     OW82574   8.688   1.511  12.587  0.1265  0.1633  0.5726
25175SOL    HW182575   8.763   1.525  12.645 -0.0287  1.4786  0.4895
25175SOL    HW282576   8.613   1.543  12.636 -0.1077  0.6275 -0.0719
25176SOL     OW82577  11.888  11.561   5.962  0.1762 -0.5436  0.5212
25176SOL    HW182578  11.954  11.514   5.910 -1.1861  0.3162 -2.1912
25176SOL    HW282579  11.929  11.644   5.985  0.7109 -0.8304  0.6118
25177SOL     OW82580  12.417  11.889  12.370 -0.4950 -0.0208 -0.1209
25177SOL    HW182581  12.344  11.827  12.363 -2.0028  1.5927  0.4132
25177SOL    HW282582  12.420  11.930  12.283 -1.2465  0.9616  0.3002
25178SOL     OW82583   8.230   3.465   7.142  0.2568 -0.2753 -0.4209
25178SOL    HW182584   8.270   3.445   7.227 -0.6209 -0.8655 -0.1395
25178SOL    HW282585   8.215   3.379   7.102 -0.3915 -0.0459 -0.6783
25179SOL     OW82586  10.505   8.744   3.034 -0.4037 -0.0235  0.1344
25179SOL    HW182587  10.550   8.811   2.982  3.0881 -2.4123 -0.3116
25179SOL    HW282588  10.512   8.775   3.124  1.7532 -0.0158  0.0073
25180SOL     OW82589  12.477   5.531   3.493 -0.5917  0.8036  0.0339
25180SOL    HW182590  12.434   5.507   3.575  0.1832  1.3176  0.5992
25180SOL    HW282591  12.453   5.460   3.433  0.1268 -0.4243  1.1436
25181SOL     OW82592   4.703   2.009   0.323  0.0869  0.2997 -0.4512
25181SOL    HW182593   4.782   2.016   0.270 -1.1057  3.3127 -2.0476
25181SOL    HW282594   4.664   1.926   0.297  1.2414  0.1458 -1.8130
25182SOL     OW82595   2.916  10.869   7.733 -0.0404  0.2475 -0.1223
25182SOL    HW182596   2.882  10.881   7.822 -0.9199  0.7748 -0.5093
25182SOL    HW282597   2.900  10.953   7.690 -0.0497 -0.1498 -0.9119
25183SOL     OW82598   9.832   2.452   7.100 -0.2196 -0.0007 -0.3916
25183SOL    HW182599   9.786   2.416   7.024  0.9917 -0.0907 -1.1161
25183SOL    HW282600   9.918   2.411   7.097 -0.7023 -1.3361  2.0583
25184SOL     OW82601  11.922   1.563   2.591  0.0011  0.8845  0.0335
25184SOL    HW182602  11.995   1.513   2.628  1.1428  2.9551  0.7442
25184SOL    HW282603  11.964   1.632   2.540 -1.5216  0.8790 -1.2917
25185SOL     OW82604   8.112   1.889   6.214  0.3420  0.4047  0.0578
25185SOL    HW182605   8.197   1.898   6.171  0.3558  2.1250  0.3705
25185SOL    HW282606   8.048   1.896   6.143  0.4136 -2.0957 -0.3563
25186SOL     OW82607  11.942   2.823   6.611 -0.0809  0.3409 -0.3249
25186SOL    HW182608  12.033   2.851   6.604 -0.2374  1.0043  0.2601
25186SOL    HW282609  11.939   2.739   6.564  0.4468  1.1547 -1.8798
25187SOL     OW82610   1.656  12.144   6.839 -0.0562 -0.0793  0.5814
25187SOL    HW182611   1.622  12.135   6.928 -0.2143  0.3703  0.5714
25187SOL    HW282612   1.742  12.102   6.840 -0.6091 -1.2472  0.6106
25188SOL     OW82613  11.676   6.831   7.844 -0.1453 -0.0504 -0.1452
25188SOL    HW182614  11.650   6.742   7.824  1.2852 -1.8068  4.4456
25188SOL    HW282615  11.619   6.858   7.916  2.2086  0.9094  1.5025
25189SOL     OW82616   8.105  12.122   9.902 -0.2401 -0.0001 -0.1707
25189SOL    HW182617   8.078  12.063   9.972  1.1040  0.5123  0.8351
25189SOL    HW282618   8.197  12.100   9.888 -0.1229  0.8608 -0.8025
25190SOL     OW82619   8.176   9.541   5.134 -0.2257  0.4416  0.2533
25190SOL    HW182620   8.222   9.496   5.205 -1.0105  2.0585  1.8813
25190SOL    HW282621   8.237   9.610   5.107 -1.2157  2.0036  1.7845
25191SOL     OW82622   8.893   4.209  12.271 -0.3910  0.1494  0.7346
25191SOL    HW182623   8.888   4.261  12.192 -0.8845  0.9243  1.2682
25191SOL    HW282624   8.986   4.190  12.281 -0.4705 -1.6379 -1.0743
25192SOL     OW82625  12.103   7.526   7.084 -0.4045  0.0528  0.3259
25192SOL    HW182626  12.122   7.599   7.025 -0.0730  0.1003  0.4870
25192SOL    HW282627  12.070   7.457   7.027 -1.0733  0.4511  0.2155
25193SOL     OW82628   1.966   6.059   1.751  0.0438 -0.2777 -0.7160
25193SOL    HW182629   2.024   6.135   1.745  0.9196 -0.8966 -0.3050
25193SOL    HW282630   1.885   6.093   1.789  0.6167  0.3477 -0.0370
25194SOL     OW82631   6.536   0.888  10.528  0.3486  0.3792  0.5718
25194SOL    HW182632   6.625   0.886  10.493  0.1547  1.9909 -0.1250
25194SOL    HW282633   6.527   0.977  10.563 -0.8200  0.0792  1.0644
25195SOL     OW82634   3.697   5.917   8.947 -0.1763  0.1374  0.6096
25195SOL    HW182635   3.691   5.972   9.026  0.4651  0.4993  0.4169
25195SOL    HW282636   3.763   5.961   8.893 -0.8367  0.0561 -0.2672
25196SOL     OW82637  12.441   2.505   9.962 -0.1685 -0.6231  0.3959
25196SOL    HW182638  12.386   2.465   9.894  1.3679  1.8214 -2.5553
25196SOL    HW282639  12.379   2.545  10.023 -1.8659  1.9212 -2.7118
25197SOL     OW82640   9.448   7.030   1.621 -0.6594 -0.3647  0.4739
25197SOL    HW182641   9.449   6.945   1.666  1.2659  0.1270  1.4757
25197SOL    HW282642   9.478   7.010   1.532 -2.2593 -1.0053  0.0409
25198SOL     OW82643   7.777   7.647   7.539 -0.2850  0.0521 -0.2649
25198SOL    HW182644   7.838   7.584   7.576  0.5822  0.1765 -1.4250
25198SOL    HW282645   7.714   7.665   7.609 -0.8801 -2.4798 -0.0834
25199SOL     OW82646  10.664  11.811   8.876  0.0401  0.0639 -0.4021
25199SOL    HW182647  10.583  11.779   8.916  0.1642  2.0864  1.6849
25199SOL    HW282648  10.713  11.850   8.949  1.5090  1.6324 -2.1249
25200SOL     OW82649   2.381   9.162   6.225  0.1067 -0.1568  0.2477
25200SOL    HW182650   2.330   9.098   6.275  0.0312 -0.4153 -0.1497
25200SOL    HW282651   2.462   9.116   6.203 -0.6888 -0.7812 -1.5854
25201SOL     OW82652   0.376  11.642   0.625  0.2225 -0.0816 -0.1467
25201SOL    HW182653   0.437  11.658   0.696  1.1166  3.2375 -1.4627
25201SOL    HW282654   0.330  11.562   0.649  1.5337  0.0824  3.3618
25202SOL     OW82655   1.920   9.834   8.134  0.2567  0.0494 -0.3830
25202SOL    HW182656   1.954   9.832   8.223 -0.0801  0.5688 -0.2339
25202SOL    HW282657   1.891   9.925   8.122 -3.8550 -0.9120  0.5991
25203SOL     OW82658   0.547  12.228   3.523 -0.2942 -0.1049  0.1786
25203SOL    HW182659   0.498  12.274   3.456  1.5344  1.4959 -0.1158
25203SOL    HW282660   0.483  12.168   3.562 -2.0121  0.6857 -1.3020
25204SOL     OW82661  12.346   1.475  10.660  0.0488 -0.5969  0.2816
25204SOL    HW182662  12.427   1.521  10.677  0.4417 -0.4117 -1.8602
25204SOL    HW282663  12.323   1.497  10.570 -1.7432 -1.6033  0.4282
25205SOL     OW82664  10.248   6.647   4.008 -0.4027  0.2682 -0.7698
25205SOL    HW182665  10.319   6.608   4.060  0.4330  0.9204 -1.4095
25205SOL    HW282666  10.170   6.602   4.039  0.3815 -1.0538 -0.6120
25206SOL     OW82667   6.353  11.664  10.516  0.5710 -0.3554 -0.5310
25206SOL    HW182668   6.445  11.646  10.532  0.1135 -2.4542  0.1543
25206SOL    HW282669   6.352  11.740  10.457  2.5787  1.9727  2.2083
25207SOL     OW82670   8.476   5.686   6.802  0.7394  0.0364 -0.0084
25207SOL    HW182671   8.426   5.639   6.735  1.9653  1.8539 -2.3694
25207SOL    HW282672   8.415   5.697   6.875 -0.6048 -2.1893 -0.6949
25208SOL     OW82673   8.915   1.222   3.198 -0.1921  0.1672  0.0446
25208SOL    HW182674   8.949   1.135   3.179 -0.8976 -0.3371  1.0077
25208SOL    HW282675   8.881   1.253   3.114 -0.3169 -0.6614 -0.2234
25209SOL     OW82676   3.458   9.240   4.909  0.3013  0.2385 -0.3118
25209SOL    HW182677   3.459   9.335   4.915 -0.3528  0.4094 -2.3486
25209SOL    HW282678   3.402   9.221   4.834 -0.9025 -1.8332  1.0143
25210SOL     OW82679   6.485   3.555   1.904  0.0464  0.1120  0.4589
25210SOL    HW182680   6.513   3.641   1.872  1.4341 -0.6323 -0.4091
25210SOL    HW282681   6.424   3.523   1.838  0.2700  0.0217  0.2968
25211SOL     OW82682  11.971   7.671   6.418 -0.4359  0.3354  0.6723
25211SOL    HW182683  11.897   7.704   6.469 -0.5633 -0.4070  0.9982
25211SOL    HW282684  12.044   7.671   6.480 -0.2424  0.7611  0.4446
25212SOL     OW82685   3.301  10.419   5.276 -0.0301  0.1048  0.0811
25212SOL    HW182686   3.370  10.462   5.327  1.1714 -2.0875  0.4632
25212SOL    HW282687   3.240  10.488   5.254  3.0044  2.5443 -1.5339
25213SOL     OW82688   7.640   3.928   3.810  0.3999  0.4525  0.2107
25213SOL    HW182689   7.641   4.024   3.809  0.4851  0.4539 -0.8643
25213SOL    HW282690   7.730   3.903   3.827  0.2047  0.5443  1.5106
25214SOL     OW82691   2.414   8.713   5.030  0.3145  0.1053 -0.0404
25214SOL    HW182692   2.386   8.624   5.007 -2.3329  0.4022  1.7588
25214SOL    HW282693   2.355   8.770   4.981  0.2713  0.8332  0.8441
25215SOL     OW82694  12.071   6.938  11.858  0.0423 -0.0124  0.2587
25215SOL    HW182695  12.099   6.849  11.835  0.4508  0.0482  0.5004
25215SOL    HW282696  12.031   6.929  11.944  0.7541  0.1454  0.6179
25216SOL     OW82697   0.608   6.646   7.594 -0.3183 -0.4575  0.3918
25216SOL    HW182698   0.629   6.560   7.557 -3.0138 -0.5782 -1.1744
25216SOL    HW282699   0.600   6.631   7.688 -1.6951 -2.2080  0.0477
25217SOL     OW82700  10.659   5.284  10.990  0.1971 -0.5100 -0.0574
25217SOL    HW182701  10.563   5.286  10.981 -0.1800 -4.0072  1.5212
25217SOL    HW282702  10.690   5.276  10.900 -1.0060  0.2037 -0.5685
25218SOL     OW82703  12.387   8.423   0.207  0.2185  0.5587  0.1213
25218SOL    HW182704  12.292   8.424   0.203  0.0889 -2.2034  0.5635
25218SOL    HW282705  12.413   8.352   0.149  2.0209  1.1308  0.1571
25219SOL     OW82706   6.377  11.865   5.853  0.2577  0.1083 -1.0155
25219SOL    HW182707   6.319  11.813   5.798 -0.6517  0.7197 -0.6556
25219SOL    HW282708   6.464  11.830   5.835 -0.2807 -1.2362 -1.1020
25220SOL     OW82709   3.411   6.903  10.890 -0.3081 -0.8179 -0.3504
25220SOL    HW182710   3.488   6.927  10.839  0.7692 -1.8219  0.7592
25220SOL    HW282711   3.405   6.971  10.958  0.5515 -1.5785  0.5167
25221SOL     OW82712   2.502   0.356   3.859 -0.1135  0.2406 -0.0887
25221SOL    HW182713   2.424   0.336   3.808 -0.1002  1.7541 -0.7515
25221SOL    HW282714   2.571   0.368   3.794  0.5653 -0.5954  0.4606
25222SOL     OW82715   9.458   7.446   1.583  0.8048 -0.4551 -0.2157
25222SOL    HW182716   9.544   7.403   1.586 -0.3729 -2.9903  2.5780
25222SOL    HW282717   9.406   7.390   1.525  0.2610 -0.6474  0.4495
25223SOL     OW82718  10.599   4.642   3.752 -0.3243 -0.1711 -1.1262
25223SOL    HW182719  10.694   4.639   3.741 -0.4147 -1.4384 -1.7202
25223SOL    HW282720  10.566   4.680   3.671 -0.4016 -0.9253 -1.4517
25224SOL     OW82721   7.895   5.477   8.831  0.2359 -0.4124 -0.3497
25224SOL    HW182722   7.987   5.500   8.842 -0.3626  1.3587  1.6328
25224SOL    HW282723   7.855   5.497   8.916 -2.1223 -0.4542 -1.3741
25225SOL     OW82724   7.650  12.152   8.481 -0.6643  0.6255  0.2977
25225SOL    HW182725   7.733  12.200   8.473  0.2534 -1.1119 -1.2649
25225SOL    HW282726   7.670  12.078   8.537 -1.7276  1.2717  1.5868
25226SOL     OW82727   0.934  11.632  12.547 -0.5113  0.7272  0.3145
25226SOL    HW182728   0.948  11.538  12.540 -1.7491  0.4852  0.7155
25226SOL    HW282729   0.908  11.660  12.459 -0.8661  0.5526  0.3630
25227SOL     OW82730  11.713   3.296  11.217  0.0517  0.1751  0.1492
25227SOL    HW182731  11.699   3.390  11.228  0.9432  0.3855 -0.4318
25227SOL    HW282732  11.625   3.258  11.228 -1.4355  1.5446 -4.5437
25228SOL     OW82733   8.774   8.338   4.004  0.1436  0.3378 -0.1708
25228SOL    HW182734   8.748   8.282   3.931  1.8067 -1.7026  0.6852
25228SOL    HW282735   8.830   8.405   3.965 -0.0460  0.0715 -0.9187
25229SOL     OW82736   7.026   8.667   8.583 -0.6293 -0.2047 -0.9299
25229SOL    HW182737   7.005   8.575   8.599  0.4783 -0.4420 -0.7072
25229SOL    HW282738   6.978   8.715   8.650  1.3618 -0.9168  1.1273
25230SOL     OW82739   3.043  12.052   7.120  0.7749  0.0926 -0.1559
25230SOL    HW182740   2.967  12.030   7.066  0.5646  0.8379 -0.1682
25230SOL    HW282741   3.069  12.140   7.092  1.2580  0.0953  0.2820
25231SOL     OW82742   9.208   4.194   4.926  0.1296  0.7595  0.7282
25231SOL    HW182743   9.254   4.251   4.865  1.3589  0.0532  0.9707
25231SOL    HW282744   9.135   4.247   4.958  0.6599  1.8389  0.1794
25232SOL     OW82745   8.960   1.330   6.920 -0.2999 -0.0334 -0.4884
25232SOL    HW182746   8.891   1.299   6.862  0.0764 -0.5029 -0.6962
25232SOL    HW282747   9.033   1.351   6.861 -0.1688  0.1778 -0.2488
25233SOL     OW82748   3.329  11.358   7.223 -0.0122 -0.1297 -0.5023
25233SOL    HW182749   3.424  11.361   7.220  0.0616  0.6413  1.3180
25233SOL    HW282750   3.300  11.434   7.172  0.3467 -0.0458 -0.5808
25234SOL     OW82751   2.796   8.605  12.021  0.2583  0.3235 -0.4380
25234SOL    HW182752   2.723   8.565  12.069  1.0440 -1.8916 -0.9954
25234SOL    HW282753   2.834   8.667  12.084  0.0601 -1.0589  1.1295
25235SOL     OW82754   1.325  10.484  12.280  0.0872  0.0868 -0.1578
25235SOL    HW182755   1.308  10.505  12.372  0.3048 -1.6299  0.2972
25235SOL    HW282756   1.411  10.522  12.262  0.4774 -0.3937  0.6401
25236SOL     OW82757   3.681   9.274   4.720 -0.1121  0.2374 -0.2108
25236SOL    HW182758   3.601   9.260   4.770  1.0202  1.1383  1.9720
25236SOL    HW282759   3.742   9.208   4.752  0.2766  0.0071 -1.3517
25237SOL     OW82760   6.201   1.909   6.836  0.1183  0.3835 -0.5745
25237SOL    HW182761   6.127   1.970   6.830 -0.0189  0.3053  0.2552
25237SOL    HW282762   6.260   1.948   6.899 -0.1695 -0.5325  0.2927
25238SOL     OW82763   2.392   3.118   5.817  0.5964  0.3015  0.2781
25238SOL    HW182764   2.415   3.110   5.724  0.7637 -1.4206  0.4454
25238SOL    HW282765   2.356   3.033   5.840  0.3494  0.7860  1.7545
25239SOL     OW82766   9.127  11.559   8.557 -0.1014  0.2435 -0.2231
25239SOL    HW182767   9.113  11.583   8.649  0.3767 -1.8674  0.4602
25239SOL    HW282768   9.096  11.469   8.551 -1.4653  0.7888 -2.5267
25240SOL     OW82769  10.279   4.976  12.490  0.0039 -0.4284 -0.5468
25240SOL    HW182770  10.351   4.938  12.541  0.8282  1.5460 -0.1620
25240SOL    HW282771  10.212   4.998  12.555 -0.4982 -1.2057 -0.7786
25241SOL     OW82772   6.586   6.194   3.308  0.0999 -0.2771  0.0247
25241SOL    HW182773   6.536   6.273   3.291 -1.3410 -0.8747  1.2792
25241SOL    HW282774   6.677   6.221   3.300 -0.3365  0.6521 -3.2771
25242SOL     OW82775   0.454   7.792   9.142  0.2861 -0.4798 -0.2005
25242SOL    HW182776   0.504   7.770   9.221 -0.9954 -0.1848  0.7392
25242SOL    HW282777   0.363   7.790   9.171 -0.1595  0.6325 -1.4353
25243SOL     OW82778  11.992   7.176   6.097 -0.2064  0.5114 -0.4506
25243SOL    HW182779  11.907   7.139   6.120 -0.0907  0.7660  0.3978
25243SOL    HW282780  12.023   7.120   6.026 -0.8195  0.0590 -0.3730
25244SOL     OW82781  10.613   4.113   7.456 -0.6982  0.2647 -0.2293
25244SOL    HW182782  10.575   4.182   7.402  0.1299  1.1836  0.3345
25244SOL    HW282783  10.606   4.034   7.403 -3.1908  0.4159 -0.2425
25245SOL     OW82784   3.052   7.914  10.483 -0.1061 -0.0135 -0.4573
25245SOL    HW182785   3.099   7.934  10.563 -0.1747  0.2202 -0.4748
25245SOL    HW282786   2.980   7.977  10.481 -1.0183 -0.9959  0.0777
25246SOL     OW82787  11.257   0.230   6.532  0.2062  0.0594 -0.6596
25246SOL    HW182788  11.189   0.295   6.514  0.3910  0.2938 -0.5264
25246SOL    HW282789  11.339   0.274   6.507  0.1605 -0.9108 -2.6934
25247SOL     OW82790   2.482   6.968   7.051  0.2867 -0.5744 -0.2779
25247SOL    HW182791   2.477   6.977   7.146 -0.0462 -1.7040 -0.1754
25247SOL    HW282792   2.541   7.038   7.023 -1.0336  0.9365  0.5601
25248SOL     OW82793   3.909   0.713   9.101 -0.1831 -0.1246 -0.5185
25248SOL    HW182794   3.927   0.621   9.122  0.6659  0.1000 -0.2154
25248SOL    HW282795   3.827   0.711   9.051  0.9380 -1.2640 -2.3982
25249SOL     OW82796   4.439   3.754   1.985  0.4841  0.1736 -0.5395
25249SOL    HW182797   4.416   3.683   1.926  0.4097  0.2537 -0.6074
25249SOL    HW282798   4.355   3.795   2.006  0.6099  0.7749 -1.1733
25250SOL     OW82799  12.387   0.702   4.239  0.7352 -0.9097  0.3708
25250SOL    HW182800  12.345   0.639   4.297 -0.5197 -0.2894  0.1524
25250SOL    HW282801  12.316   0.754   4.204  1.3581 -1.6820 -2.2767
25251SOL     OW82802   8.978   8.792   6.456 -0.1091  0.4071 -0.0069
25251SOL    HW182803   8.896   8.776   6.408 -0.3822  1.5865  0.0354
25251SOL    HW282804   8.950   8.816   6.544  0.3473 -0.4533  0.3837
25252SOL     OW82805   2.041  11.014   9.540 -0.4030  0.0876 -0.2829
25252SOL    HW182806   2.016  10.971   9.622 -1.1287  1.2902  0.1400
25252SOL    HW282807   2.093  10.948   9.494 -0.2144 -0.7054  1.0167
25253SOL     OW82808   3.219   7.688   0.385 -0.4688  0.1044 -0.5705
25253SOL    HW182809   3.234   7.609   0.332  0.0695 -1.3869  1.6597
25253SOL    HW282810   3.124   7.697   0.388 -0.5066  0.1592 -1.6981
25254SOL     OW82811   5.673  10.398   1.679 -0.1567 -0.1186 -0.0296
25254SOL    HW182812   5.626  10.350   1.610 -1.6097  1.3543 -0.1090
25254SOL    HW282813   5.632  10.484   1.682  2.1077  1.0408  0.3996
25255SOL     OW82814   1.050   1.108   6.759  0.2528  0.2146 -0.3346
25255SOL    HW182815   1.124   1.087   6.703  1.8345  0.9854  1.3635
25255SOL    HW282816   1.048   1.037   6.824  1.0342  1.4003  1.0355
25256SOL     OW82817   5.152   3.094   4.389 -0.3719  0.1787  0.2005
25256SOL    HW182818   5.229   3.040   4.409  0.5198  1.1673 -0.3993
25256SOL    HW282819   5.190   3.176   4.355 -1.6646  1.1228  0.9539
25257SOL     OW82820   0.249   2.622   5.434 -0.3947  0.5181  0.3562
25257SOL    HW182821   0.160   2.588   5.442 -0.0130 -0.2242  1.9437
25257SOL    HW282822   0.264   2.669   5.516  0.1133  2.0814 -0.5928
25258SOL     OW82823   1.487  11.991  10.605 -0.0874  0.4016 -0.2537
25258SOL    HW182824   1.471  12.014  10.697  0.5147 -0.8624  0.1952
25258SOL    HW282825   1.580  11.968  10.601  0.2283  1.7779 -1.4967
25259SOL     OW82826   9.709   4.878   8.301 -0.6514  0.0202  0.0985
25259SOL    HW182827   9.783   4.873   8.240 -0.6859 -0.3240  0.0807
25259SOL    HW282828   9.697   4.972   8.317 -0.5662  0.1072 -0.3287
25260SOL     OW82829   8.839   2.880   9.869  0.1988 -0.3291 -0.1617
25260SOL    HW182830   8.757   2.857   9.912 -0.3612  2.8441  0.7412
25260SOL    HW282831   8.870   2.958   9.916  4.0905 -1.6971 -0.0498
25261SOL     OW82832   6.288  11.339   9.782 -0.2396 -0.4676  0.6204
25261SOL    HW182833   6.319  11.417   9.735 -0.6671 -1.2186 -0.9904
25261SOL    HW282834   6.327  11.347   9.869 -0.0591  1.4046  0.4185
25262SOL     OW82835   2.747  11.486  11.202 -0.1175  0.3911 -0.3141
25262SOL    HW182836   2.724  11.427  11.273  0.1573 -0.0459 -0.5823
25262SOL    HW282837   2.730  11.574  11.237 -0.9968  0.1382 -0.0844
25263SOL     OW82838   4.018  11.583   2.508 -0.1826  0.0144 -0.4187
25263SOL    HW182839   4.033  11.673   2.538 -0.5705  0.0844 -0.4212
25263SOL    HW282840   3.966  11.543   2.578 -1.3136  0.2571 -1.0942
25264SOL     OW82841   0.434   7.542   1.485 -0.1049  0.1796  0.4555
25264SOL    HW182842   0.387   7.471   1.442 -1.1744  0.9269  0.3618
25264SOL    HW282843   0.386   7.557   1.567 -0.2951  1.2295  0.1674
25265SOL     OW82844   5.612   0.290   3.183 -0.5224  0.2733  0.3074
25265SOL    HW182845   5.656   0.361   3.229  1.1247  0.4013 -1.3593
25265SOL    HW282846   5.615   0.216   3.244  3.0653 -0.0644 -0.0870
25266SOL     OW82847   4.832   7.080   9.108 -0.0335  0.9916  0.0459
25266SOL    HW182848   4.889   7.032   9.047  0.4956  1.0746  0.4688
25266SOL    HW282849   4.861   7.171   9.102  1.1589  0.7577  1.6367
25267SOL     OW82850   0.177   8.813   9.143  0.0485  0.1732 -0.9244
25267SOL    HW182851   0.121   8.743   9.176 -0.8625  1.8877  1.4339
25267SOL    HW282852   0.121   8.864   9.086  0.3088 -0.1888 -1.5148
25268SOL     OW82853  11.446   0.466  12.423  0.1450  0.4035  0.4876
25268SOL    HW182854  11.377   0.457  12.489 -0.1752  1.6263  0.3428
25268SOL    HW282855  11.441   0.386  12.371 -2.5518  1.3132 -0.7990
25269SOL     OW82856   1.041   3.949   2.500 -0.2146  0.2068 -0.0232
25269SOL    HW182857   1.009   3.964   2.589  0.5286 -0.6661  0.4112
25269SOL    HW282858   1.134   3.969   2.505 -0.4149  1.4827 -0.9576
25270SOL     OW82859   1.775  10.938   6.193  0.0555 -0.0366 -0.0794
25270SOL    HW182860   1.706  10.944   6.126 -1.0030 -1.0248  0.8771
25270SOL    HW282861   1.823  11.020   6.186 -1.3544  0.7646 -0.6429
25271SOL     OW82862   2.117   8.990   9.901 -0.3533 -0.6854 -0.5013
25271SOL    HW182863   2.150   9.018   9.987  0.5786  1.8846 -1.5750
25271SOL    HW282864   2.022   8.987   9.912 -0.4743  2.1451  0.0699
25272SOL     OW82865   2.810   2.800   3.609  0.7227 -0.0576 -0.3974
25272SOL    HW182866   2.893   2.810   3.563  0.9787 -1.0461 -0.1676
25272SOL    HW282867   2.755   2.750   3.549  1.0728 -1.3873  0.3557
25273SOL     OW82868   8.113  12.415   2.459 -0.1488  0.1307 -0.3290
25273SOL    HW182869   8.072  12.332   2.436  0.1044 -0.8448  2.3737
25273SOL    HW282870   8.080  12.434   2.547  0.9748  2.1357 -0.2860
25274SOL     OW82871   5.155   0.362   8.912 -0.1591 -0.3155  0.3247
25274SOL    HW182872   5.214   0.312   8.854 -0.6402 -0.2184 -0.2637
25274SOL    HW282873   5.188   0.451   8.909  1.1443 -0.6905  1.9510
25275SOL     OW82874   4.962   9.460   9.567  0.1470 -0.4003 -0.2296
25275SOL    HW182875   5.024   9.455   9.494 -1.4677  0.3303 -1.7204
25275SOL    HW282876   4.935   9.552   9.569 -1.2825 -0.8050  0.0208
25276SOL     OW82877  11.023   0.893   9.232  0.4427  1.0880 -0.0887
25276SOL    HW182878  10.944   0.946   9.245  0.1049  1.2174 -2.3095
25276SOL    HW282879  11.008   0.814   9.283 -1.4857  0.7657 -1.0914
25277SOL     OW82880   7.169   4.825   2.875  0.0325  0.3018 -0.8526
25277SOL    HW182881   7.157   4.920   2.883  1.7012  0.4446  0.5171
25277SOL    HW282882   7.137   4.791   2.959  0.2245 -0.2492 -1.0039
25278SOL     OW82883   2.797  10.797  10.826 -0.3961  0.3976  0.0777
25278SOL    HW182884   2.881  10.752  10.834 -0.2699  0.2202 -1.8443
25278SOL    HW282885   2.809  10.856  10.751 -1.0154  2.6381  1.6319
25279SOL     OW82886   7.189   1.502   0.321 -0.0912 -0.4975  0.2830
25279SOL    HW182887   7.245   1.556   0.265  0.3105 -0.4360  0.7329
25279SOL    HW282888   7.134   1.453   0.261 -0.2655  0.2100 -0.1457
25280SOL     OW82889  11.112   4.055   2.503 -0.1049  0.6310 -0.4892
25280SOL    HW182890  11.075   3.967   2.501 -2.4191  1.4546  0.9471
25280SOL    HW282891  11.062   4.104   2.438  0.2133  1.1874 -0.3227
25281SOL     OW82892   2.630   3.138   9.805 -0.3275 -0.4887 -0.0491
25281SOL    HW182893   2.578   3.219   9.811 -0.1663 -0.3600 -0.3371
25281SOL    HW282894   2.601   3.085   9.879 -1.1802 -0.5994 -0.4479
25282SOL     OW82895  11.416   5.544   4.920 -0.0305  0.3750 -0.0496
25282SOL    HW182896  11.320   5.549   4.925  0.0353  1.7325  0.1008
25282SOL    HW282897  11.435   5.451   4.930 -1.2454  0.2498  1.5328
25283SOL     OW82898  11.353   2.034   2.197 -0.2901  0.1764  0.1979
25283SOL    HW182899  11.310   1.948   2.195  0.1076 -0.0183 -0.6152
25283SOL    HW282900  11.410   2.030   2.274  0.4876 -0.6866 -0.3928
25284SOL     OW82901  10.363   3.227   7.811 -0.4883 -0.5418  0.3923
25284SOL    HW182902  10.433   3.290   7.791  1.4090 -2.0671  1.7878
25284SOL    HW282903  10.310   3.271   7.878  0.0640  0.0524  0.4521
25285SOL     OW82904  11.311   9.371   4.085 -0.6489  0.1350  0.2936
25285SOL    HW182905  11.261   9.302   4.131 -0.2806  0.8515  1.8406
25285SOL    HW282906  11.403   9.348   4.101 -0.5256  1.0223  0.9140
25286SOL     OW82907   8.471   6.634   4.505  0.0074  0.7663 -0.0641
25286SOL    HW182908   8.493   6.718   4.544 -1.4399  2.0867 -1.9260
25286SOL    HW282909   8.384   6.613   4.540  0.0895  0.3493 -0.0980
25287SOL     OW82910   1.855  11.000  12.400  0.0863 -0.3675  0.0383
25287SOL    HW182911   1.814  11.076  12.357  1.8506 -0.5954 -2.2519
25287SOL    HW282912   1.939  11.032  12.431  0.9361 -1.3686 -1.1243
25288SOL     OW82913   6.148   0.681   5.443 -0.2048  0.0079 -0.0256
25288SOL    HW182914   6.207   0.699   5.516 -0.4916  0.8979  0.0016
25288SOL    HW282915   6.207   0.668   5.368  0.0403  1.5051 -0.1325
25289SOL     OW82916  12.065   9.511   4.304 -0.1322 -0.2862 -0.0839
25289SOL    HW182917  12.132   9.472   4.248 -0.1810  0.9135 -1.0389
25289SOL    HW282918  11.987   9.456   4.291  0.8942 -2.3819  1.9115
25290SOL     OW82919   0.836   5.067   7.543  0.3546  0.1335  0.1224
25290SOL    HW182920   0.911   5.095   7.595  1.3450 -0.4319 -0.9736
25290SOL    HW282921   0.826   4.974   7.564 -0.8885  0.4869  1.2590
25291SOL     OW82922  10.292  12.396   4.072  0.0145  0.1667  0.6171
25291SOL    HW182923  10.259  12.313   4.108 -0.0004  0.8137  2.1687
25291SOL    HW282924  10.307  12.451   4.149  1.6542  1.0212 -0.2703
25292SOL     OW82925   6.940   0.373   2.553 -0.1730 -0.6667  0.0525
25292SOL    HW182926   6.886   0.300   2.582 -2.4758  0.1102 -1.9148
25292SOL    HW282927   6.992   0.337   2.482  0.4225 -0.9272  0.6125
25293SOL     OW82928   4.148  10.387   2.693  0.2747 -0.1295  0.0615
25293SOL    HW182929   4.225  10.346   2.653 -0.1986 -2.4073  1.3527
25293SOL    HW282930   4.074  10.352   2.645 -0.0535  2.2539 -1.3442
25294SOL     OW82931   5.912   5.329   3.954 -0.2053 -0.1622  0.3727
25294SOL    HW182932   5.952   5.412   3.979  0.4323  0.0476 -1.2264
25294SOL    HW282933   5.978   5.285   3.900 -1.3594 -0.6921 -0.6735
25295SOL     OW82934   3.564   0.780  11.110 -0.5943  0.1218  0.2887
25295SOL    HW182935   3.572   0.863  11.064  1.5507  0.1039  0.5033
25295SOL    HW282936   3.531   0.804  11.197 -0.0288  0.7544  0.3387
25296SOL     OW82937   6.671   8.599   1.178 -1.0857 -0.5250  0.1247
25296SOL    HW182938   6.706   8.618   1.091 -0.2477 -1.9092  0.1310
25296SOL    HW282939   6.588   8.647   1.181  0.2395  2.0059 -0.2910
25297SOL     OW82940   9.250  11.852   4.867  0.5964  0.3392 -0.0952
25297SOL    HW182941   9.158  11.831   4.850  0.3161  0.9294  0.6179
25297SOL    HW282942   9.299  11.785   4.819 -0.2157 -0.5136  0.2282
25298SOL     OW82943   9.724   5.221   3.167 -0.1607  0.1449 -0.1682
25298SOL    HW182944   9.747   5.159   3.236  0.9708 -0.3314 -0.9479
25298SOL    HW282945   9.638   5.191   3.137 -0.2683 -0.1695  0.4396
25299SOL     OW82946   8.078   5.963   9.647 -0.0943 -0.0019  0.4171
25299SOL    HW182947   8.091   5.965   9.742  0.1366  1.5069  0.3754
25299SOL    HW282948   8.158   6.001   9.611 -0.0159 -0.9057 -0.4304
25300SOL     OW82949   6.876   3.687   2.803 -0.2924 -0.1029  0.9863
25300SOL    HW182950   6.785   3.661   2.818 -0.3286 -0.7145 -0.2271
25300SOL    HW282951   6.877   3.782   2.816 -1.6412  0.3040 -1.4217
25301SOL     OW82952   4.678   2.033   8.296 -0.1011 -0.1055 -0.3365
25301SOL    HW182953   4.584   2.045   8.306  0.1374  0.7196  1.2271
25301SOL    HW282954   4.708   2.112   8.252 -0.0204  0.0573  0.0070
25302SOL     OW82955   1.151   5.467   2.563  0.2281 -0.4382  0.4137
25302SOL    HW182956   1.237   5.431   2.587  0.2538 -0.0268  0.9361
25302SOL    HW282957   1.169   5.520   2.486  0.3431 -0.8087  0.1788
25303SOL     OW82958  12.448   2.048   6.903  0.1962 -0.4052 -0.1510
25303SOL    HW182959  12.456   2.138   6.936  0.7500 -0.2199 -0.7622
25303SOL    HW282960  12.354   2.032   6.903  0.1672 -0.4144  1.4718
25304SOL     OW82961   1.868   0.785   9.962 -0.2130  0.1443  0.3161
25304SOL    HW182962   1.863   0.795   9.867 -1.2445 -1.5380  0.1504
25304SOL    HW282963   1.889   0.873   9.994  0.9510  0.5884 -1.5030
25305SOL     OW82964   4.823  10.305   3.884  0.0311  0.2618  0.2401
25305SOL    HW182965   4.802  10.325   3.793  2.4377 -0.6460 -0.6078
25305SOL    HW282966   4.800  10.385   3.932 -1.8560  0.5485 -1.0121
25306SOL     OW82967   8.782  11.371  10.662  0.3737 -0.2607  0.2628
25306SOL    HW182968   8.755  11.279  10.655  0.5798 -0.4562  1.6648
25306SOL    HW282969   8.703  11.417  10.692 -0.7578  0.6944 -3.6262
25307SOL     OW82970   5.161   1.570   6.965 -0.6172 -0.4826 -0.8526
25307SOL    HW182971   5.211   1.522   7.030 -0.0799 -0.9043 -1.5619
25307SOL    HW282972   5.207   1.554   6.882  0.1628  2.0472 -0.9838
25308SOL     OW82973  11.541   5.605   1.806  0.3759 -0.0196  0.5484
25308SOL    HW182974  11.627   5.600   1.764  0.3710 -2.6799  0.6587
25308SOL    HW282975  11.484   5.552   1.750 -0.5726 -0.4112  1.8281
25309SOL     OW82976   5.677   1.061  10.760  0.0658  0.6847  0.2345
25309SOL    HW182977   5.700   1.002  10.832 -1.3202 -0.8982 -0.5329
25309SOL    HW282978   5.759   1.106  10.739  0.7854  0.2783  1.9591
25310SOL     OW82979  11.596  10.648   4.133  0.4617 -0.2298 -0.4107
25310SOL    HW182980  11.510  10.646   4.092  0.4503  0.6414 -0.4543
25310SOL    HW282981  11.632  10.560   4.119 -0.8808 -0.9761  0.6333
25311SOL     OW82982   0.746   8.418   2.025  0.1047  0.6521 -0.1628
25311SOL    HW182983   0.828   8.409   1.975  0.2467  0.0361  0.1732
25311SOL    HW282984   0.750   8.349   2.091  0.3376  2.0305  1.3136
25312SOL     OW82985  11.530  11.089   3.857 -0.2978 -0.3932  0.7223
25312SOL    HW182986  11.596  11.043   3.807  0.2137 -0.5655  1.5470
25312SOL    HW282987  11.570  11.173   3.880  0.0613 -0.9174  2.1307
25313SOL     OW82988   2.636   4.891   0.132  0.6784 -0.4332 -0.0422
25313SOL    HW182989   2.697   4.829   0.173  0.5995  1.0707  2.5881
25313SOL    HW282990   2.552   4.876   0.177  0.1954  0.3450 -0.6442
25314SOL     OW82991   1.962  12.542   1.247 -0.5569 -0.3046 -0.1464
25314SOL    HW182992   1.898  12.551   1.176 -2.2324 -0.1649  1.3280
25314SOL    HW282993   1.931  12.466   1.297 -1.2004  1.4005  2.1832
25315SOL     OW82994   4.857   7.511   1.427 -0.2915 -0.7389 -0.3708
25315SOL    HW182995   4.878   7.541   1.339  2.2104  2.1175  1.0015
25315SOL    HW282996   4.922   7.443   1.445  1.0460  0.6171  0.1423
25316SOL     OW82997   5.007   9.849   8.390  0.6883  0.1756  0.4033
25316SOL    HW182998   4.975   9.761   8.409  0.9218 -0.1340 -0.5816
25316SOL    HW282999   4.929   9.896   8.358  0.8433 -0.0819 -0.3727
25317SOL     OW83000   7.709   5.554   1.949  0.5656  0.4871  0.4293
25317SOL    HW183001   7.788   5.601   1.976  1.7839 -1.0434 -0.3318
25317SOL    HW283002   7.713   5.552   1.854 -1.8380  2.6910  0.1648
25318SOL     OW83003   0.792   4.178   3.254  0.6036 -0.2508 -0.5363
25318SOL    HW183004   0.748   4.168   3.169 -0.5920  0.4280 -0.0292
25318SOL    HW283005   0.749   4.115   3.311 -1.6138  2.1007  0.6344
25319SOL     OW83006   9.788   5.298  11.033 -0.3093  0.1520 -0.0265
25319SOL    HW183007   9.836   5.378  11.053 -2.5538  1.1072  2.2194
25319SOL    HW283008   9.760   5.265  11.119 -0.4848 -2.3979 -0.9649
25320SOL     OW83009   3.322   9.195  12.529  0.7418  0.0434  0.1254
25320SOL    HW183010   3.302   9.105  12.557  0.1103 -0.3257 -1.4154
25320SOL    HW283011   3.391   9.185  12.464 -1.9736  0.2051 -3.0171
25321SOL     OW83012   6.905   6.304   9.030  0.0334 -0.0657  0.4487
25321SOL    HW183013   6.817   6.342   9.040  0.5298  1.3939 -0.4207
25321SOL    HW283014   6.941   6.347   8.953  1.1054 -1.4977  0.1123
25322SOL     OW83015   2.910   0.348  11.923  0.0445 -0.6352 -0.2452
25322SOL    HW183016   2.903   0.385  12.011 -0.1070 -1.2345 -0.0007
25322SOL    HW283017   2.998   0.311  11.920 -0.1541 -1.1177 -0.1468
25323SOL     OW83018   3.506   1.375   8.141  0.4643 -0.7556 -0.3060
25323SOL    HW183019   3.541   1.374   8.230 -0.1573 -0.5533 -0.0512
25323SOL    HW283020   3.418   1.337   8.149 -0.8775  2.0822 -0.2408
25324SOL     OW83021   6.505   3.832   4.378 -0.7729  0.0148 -0.2652
25324SOL    HW183022   6.446   3.890   4.330 -2.0760 -0.3679  0.7990
25324SOL    HW283023   6.449   3.790   4.443  0.7882  0.0196  1.1483
25325SOL     OW83024   9.728  10.939   5.923 -0.2029  0.2980  0.2997
25325SOL    HW183025   9.754  10.857   5.882 -0.2535 -0.3375  1.5034
25325SOL    HW283026   9.759  11.007   5.862  1.5614 -0.5278  0.2178
25326SOL     OW83027   0.158   1.885   2.319 -0.1345  0.5084  0.4869
25326SOL    HW183028   0.091   1.953   2.314 -0.3298  0.3209  0.5246
25326SOL    HW283029   0.139   1.838   2.400 -0.1146  0.2960  0.3712
25327SOL     OW83030  10.293   9.560   2.686 -0.0702 -0.1880 -0.5900
25327SOL    HW183031  10.377   9.527   2.653  0.1781  0.7084 -0.8929
25327SOL    HW283032  10.238   9.565   2.608  0.1004  0.6939 -0.6668
25328SOL     OW83033   1.778   2.103   0.422  0.1199  0.1197  0.0730
25328SOL    HW183034   1.776   2.143   0.335  1.4082  2.1931  0.9376
25328SOL    HW283035   1.738   2.017   0.409 -0.5148  0.7032 -2.3793
25329SOL     OW83036   3.875   8.827   7.916  0.0350 -0.4724 -0.2903
25329SOL    HW183037   3.797   8.862   7.959  0.5887 -1.9841  2.1128
25329SOL    HW283038   3.855   8.734   7.903  0.5317 -0.3890 -1.9247
25330SOL     OW83039   3.372   7.220   6.978  0.0303 -0.0679 -0.0395
25330SOL    HW183040   3.291   7.247   7.022 -0.9074 -2.4266 -0.1354
25330SOL    HW283041   3.382   7.281   6.905 -1.4627  0.4994  0.1977
25331SOL     OW83042   4.144   1.618  11.043  0.2583 -0.2226 -0.1989
25331SOL    HW183043   4.086   1.688  11.015  0.0209 -0.0140  0.7860
25331SOL    HW283044   4.134   1.550  10.976  0.4342  0.6369 -1.1236
25332SOL     OW83045   8.977   3.684   6.374  0.1090 -0.0992 -0.0920
25332SOL    HW183046   8.921   3.673   6.451 -0.0137 -2.2902 -0.4286
25332SOL    HW283047   8.916   3.701   6.302  0.1353  0.7080  0.0685
25333SOL     OW83048   7.023   1.901   0.561 -0.2979  0.8674 -0.4409
25333SOL    HW183049   7.103   1.850   0.574  0.7628  2.1083 -1.9092
25333SOL    HW283050   6.953   1.835   0.561  0.4039 -0.0773  2.8453
25334SOL     OW83051   8.464   9.749   6.071  0.3080 -0.1338  0.4886
25334SOL    HW183052   8.452   9.836   6.032  0.6393  0.3059  1.3436
25334SOL    HW283053   8.550   9.754   6.114  0.3814 -0.9239  0.4504
25335SOL     OW83054   4.143   1.430   4.506 -0.6888 -0.2982 -0.1704
25335SOL    HW183055   4.166   1.337   4.501 -0.9376 -0.3215 -0.9839
25335SOL    HW283056   4.204   1.473   4.446 -0.4974  0.0879  0.2879
25336SOL     OW83057   1.783   0.784   3.299  0.1005  0.3957  0.1930
25336SOL    HW183058   1.847   0.813   3.364  0.3328 -1.4330  0.8611
25336SOL    HW283059   1.734   0.862   3.276 -0.0314  1.1111  2.6367
25337SOL     OW83060   9.760   0.238  11.620 -0.7146 -0.3996 -0.0600
25337SOL    HW183061   9.794   0.207  11.536  0.1450  0.2141  0.0477
25337SOL    HW283062   9.716   0.320  11.599  0.1314  0.1314  0.1798
25338SOL     OW83063   7.053   0.937   8.318  0.5032 -0.0932 -0.1032
25338SOL    HW183064   7.087   1.026   8.312  1.2296 -0.4426 -2.4455
25338SOL    HW283065   7.131   0.881   8.312 -0.0887 -0.8715 -0.8688
25339SOL     OW83066   1.426  10.786  11.307 -0.6421  0.0141  1.1233
25339SOL    HW183067   1.370  10.854  11.345  0.2214  1.5083 -0.1764
25339SOL    HW283068   1.382  10.761  11.226  0.8200  1.7120 -0.2788
25340SOL     OW83069   9.247   7.477  10.427  0.1403  0.0872 -0.1272
25340SOL    HW183070   9.179   7.445  10.367 -0.8229  0.0678  0.9296
25340SOL    HW283071   9.218   7.448  10.513  1.0210  0.8820  0.4601
25341SOL     OW83072   7.891   0.563  12.375  0.1802  0.3492  0.1150
25341SOL    HW183073   7.823   0.538  12.438 -0.0462  1.2580  0.2389
25341SOL    HW283074   7.843   0.603  12.302  0.5533  0.6308  0.0226
25342SOL     OW83075   0.787  10.832   6.614 -0.0715  0.6096  0.3198
25342SOL    HW183076   0.837  10.816   6.694 -0.6282 -0.1142  0.5196
25342SOL    HW283077   0.702  10.791   6.629 -1.0449  2.5218  0.2961
25343SOL     OW83078  11.929   7.365   5.127  0.0153  0.2136  0.0793
25343SOL    HW183079  11.872   7.305   5.175 -0.8661  0.6525 -0.3858
25343SOL    HW283080  11.917   7.341   5.035  0.4620  0.4139 -0.0327
25344SOL     OW83081   6.778   7.324   4.367  0.5303 -0.2044  0.2642
25344SOL    HW183082   6.855   7.364   4.405 -1.2082  3.7788  0.0481
25344SOL    HW283083   6.730   7.287   4.442  1.3356 -0.3510  0.7165
25345SOL     OW83084   8.893   0.608   3.258 -0.4242 -0.4888  0.2981
25345SOL    HW183085   8.914   0.516   3.238  1.1993  0.1274 -1.0523
25345SOL    HW283086   8.810   0.623   3.212 -0.7733 -1.3025  0.6373
25346SOL     OW83087   1.625   0.637   5.518  0.1811  0.0382  0.0119
25346SOL    HW183088   1.546   0.612   5.470  0.1822 -0.3014  0.1816
25346SOL    HW283089   1.597   0.635   5.610  0.0373  1.1723  0.0086
25347SOL     OW83090   3.569   8.427   0.536 -0.4848 -0.2868  0.3065
25347SOL    HW183091   3.489   8.406   0.488 -0.0642  1.3960 -1.2448
25347SOL    HW283092   3.539   8.448   0.624 -1.6681 -0.4430 -0.0447
25348SOL     OW83093   7.513   6.908  12.523 -0.1109 -0.6336  0.6344
25348SOL    HW183094   7.583   6.920  12.459 -0.9685  1.7468  0.0053
25348SOL    HW283095   7.556   6.915  12.608  0.5262  0.2058  0.2626
25349SOL     OW83096   9.229   9.101   6.848  0.2670 -0.1039 -0.1575
25349SOL    HW183097   9.241   9.012   6.881  1.6875  0.4345  0.8817
25349SOL    HW283098   9.316   9.140   6.852  0.1158  0.6592 -2.7594
25350SOL     OW83099   3.080  11.990   7.815  0.1744 -0.6657  0.0376
25350SOL    HW183100   3.086  11.955   7.727  0.9058  1.8625 -1.0228
25350SOL    HW283101   2.987  12.010   7.827  0.0636 -1.0858 -0.1234
25351SOL     OW83102   0.597   0.885   8.710 -0.3103 -0.2249 -0.2893
25351SOL    HW183103   0.632   0.919   8.627 -1.5696  1.3641 -0.2262
25351SOL    HW283104   0.656   0.918   8.777  0.9208 -1.8130 -0.5321
25352SOL     OW83105   0.823   0.943   4.761  0.3021  0.1412  0.2966
25352SOL    HW183106   0.883   0.891   4.709  0.2846  0.8051 -0.4055
25352SOL    HW283107   0.862   1.031   4.762 -0.8864  0.7141 -0.6045
25353SOL     OW83108   6.188  11.248   6.529  0.4995 -0.1687  0.0035
25353SOL    HW183109   6.229  11.167   6.560 -0.1736 -0.4599  0.1577
25353SOL    HW283110   6.118  11.218   6.471 -0.8942  0.2272  1.4199
25354SOL     OW83111   0.501   7.534  11.783 -0.3501  0.4146 -0.2249
25354SOL    HW183112   0.461   7.453  11.813  1.3358 -0.2216  0.4723
25354SOL    HW283113   0.545   7.511  11.701  0.4427  0.5082  0.1608
25355SOL     OW83114  11.823   0.512   8.383  0.1590  0.0988  0.1994
25355SOL    HW183115  11.757   0.465   8.435 -0.4394  1.5278  0.7842
25355SOL    HW283116  11.901   0.457   8.388 -0.7077 -1.1724  0.2628
25356SOL     OW83117  11.409   5.162   6.647 -0.4465 -0.0993  0.1171
25356SOL    HW183118  11.457   5.134   6.725 -0.2492 -2.0554 -0.6349
25356SOL    HW283119  11.396   5.256   6.659  1.8947  0.1495  1.2402
25357SOL     OW83120   3.243   1.283   2.747 -0.0045  0.1142  0.4916
25357SOL    HW183121   3.167   1.335   2.722  0.8978  2.0426  1.4756
25357SOL    HW283122   3.287   1.336   2.814  1.7970 -1.2663  0.4841
25358SOL     OW83123   3.930   1.772   9.058  0.1428 -0.0144  0.1203
25358SOL    HW183124   4.008   1.806   9.015 -0.2262  0.0018 -0.5492
25358SOL    HW283125   3.956   1.687   9.092  0.7360  0.4174  0.7796
25359SOL     OW83126   6.627   9.029   2.294  0.3946  0.0317 -0.1093
25359SOL    HW183127   6.536   9.012   2.317  0.3271 -0.1255 -0.4868
25359SOL    HW283128   6.649   8.961   2.231  1.0815 -0.5319  0.7275
25360SOL     OW83129   6.848   0.165   1.131  0.7035 -0.2323 -0.4528
25360SOL    HW183130   6.794   0.225   1.184 -0.6710 -1.9446  0.2066
25360SOL    HW283131   6.936   0.175   1.166  0.4281  1.0970 -0.0822
25361SOL     OW83132   5.501  10.194   4.110  0.2816 -0.2567  0.8058
25361SOL    HW183133   5.413  10.210   4.144  0.0477 -0.2200  0.2006
25361SOL    HW283134   5.559  10.208   4.185  0.0544  2.7557  0.5268
25362SOL     OW83135   1.728  11.306   3.321 -0.0777 -0.2460 -0.2175
25362SOL    HW183136   1.807  11.336   3.365  0.8184 -1.6405 -0.8155
25362SOL    HW283137   1.661  11.370   3.345  0.7550 -0.0975  1.8731
25363SOL     OW83138  11.345  11.644   4.003 -0.5123  0.0708 -0.4698
25363SOL    HW183139  11.380  11.702   4.070 -2.4187  1.4822 -0.6142
25363SOL    HW283140  11.373  11.683   3.920 -0.7562  0.0760 -0.5497
25364SOL     OW83141   1.853   6.867   2.248  0.3284  0.0918  0.4374
25364SOL    HW183142   1.895   6.781   2.235  0.4050 -0.3109  2.8245
25364SOL    HW283143   1.764   6.855   2.216  0.6401 -0.5266 -0.2486
25365SOL     OW83144   7.929  10.137   8.233  0.1269 -0.0946 -0.4450
25365SOL    HW183145   7.912  10.201   8.303 -0.1244 -2.0950  1.4436
25365SOL    HW283146   7.848  10.135   8.182 -0.8979 -0.7691  1.1133
25366SOL     OW83147   8.194   4.024   3.984 -0.2973 -0.0108  0.2503
25366SOL    HW183148   8.136   4.068   3.921 -0.6033  1.5587  1.5588
25366SOL    HW283149   8.277   4.071   3.975 -0.6446  0.9415  1.7016
25367SOL     OW83150   0.147   5.972   2.455 -0.7939 -0.3056 -0.3149
25367SOL    HW183151   0.104   5.902   2.503  0.1688  0.4081  1.7447
25367SOL    HW283152   0.232   5.982   2.499  1.1651 -1.0543 -3.6042
25368SOL     OW83153   3.910   5.716   7.996  0.5827 -0.5086 -0.4466
25368SOL    HW183154   3.817   5.694   7.984  0.2090 -0.6540  2.0658
25368SOL    HW283155   3.926   5.785   7.933 -0.8964 -1.3083 -1.7830
25369SOL     OW83156   4.995   4.041   2.362  0.2173 -0.0900 -0.2408
25369SOL    HW183157   4.952   4.056   2.278 -0.8906  0.6342  0.4329
25369SOL    HW283158   4.962   4.111   2.419  0.1516 -1.1573  1.0813
25370SOL     OW83159   7.162  12.064   1.840 -0.4143  0.3116  0.3430
25370SOL    HW183160   7.204  12.150   1.825 -1.5016  0.8649  0.3971
25370SOL    HW283161   7.082  12.067   1.789 -1.0768 -0.2010  1.3232
25371SOL     OW83162   9.581   4.758  11.808  0.2818  0.4966  0.2974
25371SOL    HW183163   9.610   4.844  11.838  0.3387  0.6663 -0.2292
25371SOL    HW283164   9.616   4.751  11.719  1.0473 -0.4420  0.6523
25372SOL     OW83165  10.079   8.468   3.808 -0.1696 -0.4990 -0.8975
25372SOL    HW183166  10.161   8.425   3.785  0.3077 -0.4264  0.6210
25372SOL    HW283167  10.078   8.472   3.903 -1.3811  0.5873 -0.9118
25373SOL     OW83168   0.578   6.464   9.341  0.5254  0.1532  0.7086
25373SOL    HW183169   0.620   6.380   9.320 -1.1256  0.0173 -2.8490
25373SOL    HW283170   0.487   6.441   9.360  0.5022  0.9885  1.6659
25374SOL     OW83171   8.418   7.758   6.581 -0.0137  0.4185  0.2763
25374SOL    HW183172   8.365   7.835   6.601 -0.8036  0.2745 -1.1226
25374SOL    HW283173   8.494   7.792   6.535  0.2519  0.4615  0.7381
25375SOL     OW83174   6.593   0.745   2.808 -0.3330  0.1793 -0.3141
25375SOL    HW183175   6.571   0.709   2.722 -0.2923  1.0965 -0.7144
25375SOL    HW283176   6.647   0.821   2.790 -1.8646  1.5120  0.4150
25376SOL     OW83177   3.072   9.599  12.508 -0.5559  0.2349 -0.2130
25376SOL    HW183178   2.997   9.639  12.552  0.2282  0.0988  1.2843
25376SOL    HW283179   3.118   9.672  12.466 -1.0546  0.4215 -0.4390
25377SOL     OW83180   2.614  10.652  10.960 -0.4176 -0.1636  0.1916
25377SOL    HW183181   2.685  10.672  10.900 -1.8295  1.9430 -0.9360
25377SOL    HW283182   2.548  10.609  10.906 -2.1812  2.7645 -0.1925
25378SOL     OW83183   9.622   9.798   7.949 -0.2045  0.0655 -0.5913
25378SOL    HW183184   9.698   9.739   7.946 -1.4292 -1.5554 -1.8035
25378SOL    HW283185   9.601   9.805   8.043  1.2100  0.2414 -0.2718
25379SOL     OW83186   2.214  11.009   3.074  0.1180 -0.4927  0.1118
25379SOL    HW183187   2.135  10.957   3.086 -0.1624  0.2536  1.7448
25379SOL    HW283188   2.285  10.945   3.073 -0.3940 -1.0672 -0.0622
25380SOL     OW83189  12.347  10.307   9.055  0.0604 -0.2296 -0.0163
25380SOL    HW183190  12.305  10.239   9.107 -1.2621  0.4688 -0.1303
25380SOL    HW283191  12.375  10.262   8.975 -1.4226 -0.5282 -0.4035
25381SOL     OW83192   2.048   2.806   8.093 -0.1309  0.6057  0.0732
25381SOL    HW183193   2.051   2.710   8.089  2.2459  0.5447  1.6084
25381SOL    HW283194   1.960   2.828   8.061 -0.1850 -1.9529 -1.8536
25382SOL     OW83195   7.899   7.997   4.147  0.0737 -0.1305 -0.1276
25382SOL    HW183196   7.984   7.955   4.159 -0.6269 -1.2350  1.5538
25382SOL    HW283197   7.915   8.090   4.161  1.0229 -0.3100  0.0303
25383SOL     OW83198   4.251   2.739   5.379 -0.2299 -0.1893 -0.3453
25383SOL    HW183199   4.248   2.665   5.439 -0.5359  0.8487  0.9651
25383SOL    HW283200   4.323   2.719   5.319 -0.0525 -1.3437  0.2345
25384SOL     OW83201   5.682   3.871  11.938 -0.4520 -0.0345 -0.0798
25384SOL    HW183202   5.748   3.827  11.991 -0.8800 -0.6720 -0.0567
25384SOL    HW283203   5.659   3.950  11.988  1.7353  1.2919 -1.0579
25385SOL     OW83204  11.604   5.854   3.334  0.4762 -0.6604  0.0865
25385SOL    HW183205  11.589   5.783   3.396 -0.2664 -1.5607 -1.0901
25385SOL    HW283206  11.581   5.817   3.249 -0.1625  1.0635 -0.5302
25386SOL     OW83207  10.136   9.236   5.576  0.3868 -0.4132 -0.3742
25386SOL    HW183208  10.062   9.178   5.591 -0.9166  1.1959 -0.2646
25386SOL    HW283209  10.145   9.286   5.657  1.1842 -0.1224 -0.6264
25387SOL     OW83210   8.713   6.663   3.587 -0.2464 -0.1184 -0.0811
25387SOL    HW183211   8.727   6.757   3.595  0.4744 -0.1311 -1.0796
25387SOL    HW283212   8.765   6.625   3.658  2.7369  0.0143 -2.0390
25388SOL     OW83213   3.660  11.075   1.714 -0.0490  0.4414 -0.0871
25388SOL    HW183214   3.592  11.111   1.771 -1.3039 -2.2109  0.2103
25388SOL    HW283215   3.734  11.057   1.772 -0.2911  0.3247  0.1855
25389SOL     OW83216   9.917   4.729   6.186  0.3327 -0.0745  0.4348
25389SOL    HW183217   9.857   4.792   6.226 -1.1382  0.2700 -2.1169
25389SOL    HW283218   9.945   4.770   6.104 -0.2262 -2.4457 -1.0451
25390SOL     OW83219  11.205   6.422   3.458  0.2279  0.6430 -0.2554
25390SOL    HW183220  11.289   6.395   3.495 -0.3894  1.6383  2.0183
25390SOL    HW283221  11.163   6.473   3.527 -2.1247  0.4479 -1.4315
25391SOL     OW83222   1.110   8.957   2.958 -0.3582  0.6231 -0.0329
25391SOL    HW183223   1.170   8.991   2.892 -1.3469  1.5523 -0.4896
25391SOL    HW283224   1.131   9.007   3.037 -0.4655  0.8982 -0.1744
25392SOL     OW83225   8.051   0.485   0.697  0.5362  0.4572 -0.5184
25392SOL    HW183226   8.139   0.523   0.686  0.1890  1.0026 -1.5388
25392SOL    HW283227   8.006   0.506   0.616 -0.1304 -0.9682 -0.5382
25393SOL     OW83228   7.713  11.982   3.975  0.0450 -0.7590 -0.2847
25393SOL    HW183229   7.751  11.897   3.951 -1.1478 -1.7251  1.0802
25393SOL    HW283230   7.773  12.018   4.040  1.0372 -0.0942 -1.5242
25394SOL     OW83231   0.287  10.269  12.411  0.0777  0.1000  0.1728
25394SOL    HW183232   0.308  10.206  12.479 -0.5743 -0.1310  0.1681
25394SOL    HW283233   0.296  10.221  12.329 -2.8537 -0.7532  0.2646
25395SOL     OW83234   5.431   0.337   5.354  0.1656 -0.0818  0.7055
25395SOL    HW183235   5.401   0.258   5.400  0.1525 -0.1729  0.5406
25395SOL    HW283236   5.456   0.397   5.424  0.9314 -0.5263  0.8282
25396SOL     OW83237   3.722   3.482   2.377  0.0782  0.1357  0.1458
25396SOL    HW183238   3.753   3.513   2.462  0.2289 -0.4161  0.2958
25396SOL    HW283239   3.687   3.560   2.335  0.6916  0.5691  0.4100
25397SOL     OW83240  11.003   4.827  10.314 -0.7152  0.8228  0.0639
25397SOL    HW183241  11.088   4.855  10.279  0.6291 -0.4095  2.1500
25397SOL    HW283242  11.007   4.851  10.407 -1.5055 -1.7141  0.8129
25398SOL     OW83243   9.569  11.674   5.814  0.0528 -0.8451  0.3092
25398SOL    HW183244   9.539  11.639   5.898  0.0771 -0.6611  0.3942
25398SOL    HW283245   9.546  11.767   5.817 -0.0529 -0.8600  0.0643
25399SOL     OW83246  11.968   5.694   5.008  0.6257  0.2454  0.5270
25399SOL    HW183247  11.889   5.693   4.954  1.0219 -2.6770 -0.1503
25399SOL    HW283248  12.034   5.736   4.954 -0.0888  1.4882  0.5806
25400SOL     OW83249   4.227  10.049   0.663 -0.1910 -0.2832 -0.7107
25400SOL    HW183250   4.279  10.065   0.585  0.4594 -2.7415 -0.8523
25400SOL    HW283251   4.258   9.965   0.697  0.6312  1.3344  3.0999
25401SOL     OW83252  11.170   2.918   8.414  0.2423  0.2652 -0.4645
25401SOL    HW183253  11.165   3.012   8.427  1.6822  0.6097 -2.0755
25401SOL    HW283254  11.096   2.898   8.356  0.0084  0.4190 -0.2210
25402SOL     OW83255   6.269   9.903   3.011  0.6272 -0.1488  0.6635
25402SOL    HW183256   6.324   9.892   2.933  2.1264  0.1617  1.6322
25402SOL    HW283257   6.205   9.832   3.005 -0.9842  1.3596 -2.1501
25403SOL     OW83258   8.235   1.051   7.946  0.0780  0.0719 -0.3236
25403SOL    HW183259   8.187   1.036   7.865  1.5801  0.7768 -1.3807
25403SOL    HW283260   8.258   0.964   7.977  2.0092 -0.1833 -2.2547
25404SOL     OW83261   9.360   8.858  10.042  0.4547 -0.1540  0.2180
25404SOL    HW183262   9.323   8.891   9.960  0.8708 -0.8239 -0.2506
25404SOL    HW283263   9.301   8.892  10.109  0.1880  0.5300 -0.3382
25405SOL     OW83264   8.293   9.210   7.150 -0.7335 -0.4077  0.4867
25405SOL    HW183265   8.300   9.259   7.068  0.2244  0.7380  1.2320
25405SOL    HW283266   8.199   9.199   7.163 -0.9722  1.0810  0.1923
25406SOL     OW83267  11.039   8.344   6.469 -0.0943 -0.2654 -0.3531
25406SOL    HW183268  11.021   8.386   6.553 -1.0184 -0.2262 -0.5697
25406SOL    HW283269  11.122   8.297   6.484 -1.5728 -2.5206  1.4284
25407SOL     OW83270   3.622  12.224   3.072 -0.3732  0.6033 -0.2643
25407SOL    HW183271   3.646  12.284   3.143 -0.9448  0.3481  0.1569
25407SOL    HW283272   3.655  12.139   3.100  0.2489  0.6806 -0.7609
25408SOL     OW83273  10.139   6.823  11.982 -0.1992  0.5380 -0.1565
25408SOL    HW183274  10.216   6.874  11.954  0.0393  0.3970  0.2382
25408SOL    HW283275  10.139   6.830  12.078  1.0460 -1.9139  0.0861
25409SOL     OW83276   4.357   9.865  12.260 -0.2502  0.4041 -0.0778
25409SOL    HW183277   4.411   9.904  12.192  1.2105 -0.9798  0.2352
25409SOL    HW283278   4.284   9.825  12.213  0.2781  0.2128 -0.7516
25410SOL     OW83279   9.799   6.904   1.404  0.4161 -0.2242  0.0466
25410SOL    HW183280   9.709   6.933   1.417  0.6112  0.4692 -0.0657
25410SOL    HW283281   9.810   6.897   1.309  0.6587  0.3195  0.0280
25411SOL     OW83282   1.260   3.726  10.925  0.3624  0.2507  0.1698
25411SOL    HW183283   1.225   3.735  11.014  0.4032  3.2239  0.0030
25411SOL    HW283284   1.354   3.712  10.939  0.5815  1.9422  0.6692
25412SOL     OW83285  10.666   0.773   7.013 -0.6986  0.2501  0.0601
25412SOL    HW183286  10.727   0.755   6.942  0.3148  0.3175  0.8900
25412SOL    HW283287  10.701   0.851   7.057 -1.1349  0.0452  0.8044
25413SOL     OW83288   0.451   8.051   8.994  0.0231  0.8720 -0.1628
25413SOL    HW183289   0.448   7.974   9.051  0.1674  0.2765 -0.9482
25413SOL    HW283290   0.374   8.102   9.019 -0.8870 -0.2406 -0.6301
25414SOL     OW83291  11.339   0.033   1.734 -0.0333  0.4343  0.3204
25414SOL    HW183292  11.348  -0.028   1.807  0.2422  0.2887  0.1706
25414SOL    HW283293  11.291   0.107   1.769 -0.6223  0.0035  0.4333
25415SOL     OW83294   9.747   8.019   3.312  0.3474 -0.0704  0.3175
25415SOL    HW183295   9.765   7.932   3.276  3.8894 -0.2481  2.0716
25415SOL    HW283296   9.832   8.049   3.345 -1.0227  3.5137  1.0067
25416SOL     OW83297   9.445   9.453   0.322 -0.2417 -0.3340  0.0878
25416SOL    HW183298   9.491   9.419   0.245 -1.2652  1.2227 -1.2749
25416SOL    HW283299   9.356   9.471   0.291 -0.9133 -0.3906  1.8574
25417SOL     OW83300  11.737   1.809   2.325 -0.1312 -0.1444 -0.1293
25417SOL    HW183301  11.802   1.740   2.311 -0.2946 -0.2059 -0.6117
25417SOL    HW283302  11.787   1.890   2.320  0.0082 -0.2158  0.1120
25418SOL     OW83303   4.312   3.246   7.521  0.3116  0.3418  0.2620
25418SOL    HW183304   4.269   3.332   7.527 -1.0780 -0.3713  0.9014
25418SOL    HW283305   4.404   3.265   7.542 -0.0284  1.6304  0.7255
25419SOL     OW83306  10.824   3.799   2.423 -0.2416 -0.3234 -0.2259
25419SOL    HW183307  10.874   3.744   2.484  1.6710  1.3643 -0.2073
25419SOL    HW283308  10.806   3.742   2.349  0.6053 -1.3349  0.3198
25420SOL     OW83309   4.351  11.322  11.428 -0.1034  0.1458 -0.3194
25420SOL    HW183310   4.438  11.347  11.460  0.3796 -0.9687 -0.7225
25420SOL    HW283311   4.296  11.322  11.506  0.5018 -0.1676  0.1131
25421SOL     OW83312   4.352   2.462   5.334  0.2776 -0.1402  0.5945
25421SOL    HW183313   4.312   2.395   5.389  1.3102 -0.0013  1.5340
25421SOL    HW283314   4.319   2.443   5.246 -0.4009 -1.1330  1.0486
25422SOL     OW83315   2.598   0.942   9.040 -0.0076 -0.6717 -0.0056
25422SOL    HW183316   2.604   0.847   9.051  1.7028 -0.5390  0.4852
25422SOL    HW283317   2.668   0.963   8.979 -0.5027  0.2622 -0.2570
25423SOL     OW83318   3.327  11.118  10.539  0.2556  0.0683 -0.8400
25423SOL    HW183319   3.258  11.112  10.605  0.9498 -2.2943 -0.2305
25423SOL    HW283320   3.403  11.077  10.580  1.0224 -0.4810 -2.7042
25424SOL     OW83321   9.087   3.489   7.347  0.2008  0.2846 -0.5890
25424SOL    HW183322   9.130   3.575   7.350 -0.1822  0.4718  2.1146
25424SOL    HW283323   9.155   3.427   7.373  0.3694 -0.2423 -2.1566
25425SOL     OW83324   0.668   2.230   2.800 -0.1091 -0.1583 -0.1551
25425SOL    HW183325   0.742   2.290   2.814 -1.4275  2.0604 -2.0925
25425SOL    HW283326   0.702   2.166   2.737  0.3072  0.5778 -0.6965
25426SOL     OW83327   5.216   7.416   8.573 -0.2907  0.1210  0.5945
25426SOL    HW183328   5.163   7.426   8.652 -0.4616  1.9147  0.2945
25426SOL    HW283329   5.153   7.422   8.501 -0.2056 -1.9586  0.2648
25427SOL     OW83330   7.445  10.230   4.897 -0.0274 -0.1398 -0.3191
25427SOL    HW183331   7.471  10.283   4.973  0.9803 -0.1077 -0.6740
25427SOL    HW283332   7.429  10.294   4.827 -0.6164 -0.1943 -0.2454
25428SOL     OW83333  12.078   8.251   9.780 -0.1406 -0.2536 -0.8505
25428SOL    HW183334  12.135   8.178   9.805  0.9689  0.4827 -1.1120
25428SOL    HW283335  12.088   8.314   9.852 -0.7367 -0.1723 -0.8390
25429SOL     OW83336  12.491   1.035  10.570  0.2146 -0.7489 -0.7181
25429SOL    HW183337  12.579   1.063  10.598 -0.5784  1.6258 -0.3280
25429SOL    HW283338  12.464   1.103  10.508 -2.3933  0.1838  1.2547
25430SOL     OW83339   8.627   8.624   3.294  0.0045 -0.8002 -0.5291
25430SOL    HW183340   8.686   8.622   3.369 -0.3392 -0.3139 -0.2453
25430SOL    HW283341   8.603   8.532   3.280 -1.1151 -0.7608  0.9006
25431SOL     OW83342   1.029   4.879   7.199  0.4449 -0.1594 -0.1774
25431SOL    HW183343   1.086   4.801   7.194  1.1635  0.4181 -1.5428
25431SOL    HW283344   0.946   4.850   7.162  0.4225 -0.5193  0.1496
25432SOL     OW83345   9.916   0.628  12.166 -0.0644 -0.1074 -1.3743
25432SOL    HW183346   9.845   0.642  12.104 -0.7452  2.7968 -0.1132
25432SOL    HW283347   9.875   0.584  12.240 -0.1114 -0.2269 -1.4722
25433SOL     OW83348   7.515   8.521   0.188  0.3255  0.1050  0.3723
25433SOL    HW183349   7.502   8.613   0.208 -2.4310  0.5772 -2.6945
25433SOL    HW283350   7.531   8.519   0.094  1.0070 -2.5173  0.4655
25434SOL     OW83351   7.638   1.618   2.482 -0.3833 -0.0074  0.4710
25434SOL    HW183352   7.556   1.652   2.446 -0.0617  1.3418  0.9515
25434SOL    HW283353   7.616   1.531   2.515 -0.7964 -1.1361 -2.5001
25435SOL     OW83354   1.746   7.210  11.568  0.6328 -0.2982  0.4366
25435SOL    HW183355   1.704   7.155  11.634  1.1697  0.9715  1.8914
25435SOL    HW283356   1.837   7.218  11.597  1.2794 -0.8641 -1.2507
25436SOL     OW83357   8.138   7.912   8.832  0.3965 -0.1477 -0.1851
25436SOL    HW183358   8.208   7.875   8.886  0.8746 -0.1017 -0.7637
25436SOL    HW283359   8.113   7.993   8.876 -0.5633 -1.0705  1.0196
25437SOL     OW83360   4.371   6.970   6.052  0.4376  0.0194  0.1918
25437SOL    HW183361   4.287   7.015   6.046  0.5551  0.1855 -0.2665
25437SOL    HW283362   4.418   7.013   6.123  1.1844  1.6897 -1.2509
25438SOL     OW83363  10.090   1.545  11.067  0.3828  0.1417  0.2845
25438SOL    HW183364  10.054   1.630  11.041  1.6525  0.7980  0.5469
25438SOL    HW283365  10.185   1.556  11.057  0.5761 -1.1873  0.5204
25439SOL     OW83366   6.344  10.548   4.166  0.1451  0.2745  0.1926
25439SOL    HW183367   6.249  10.552   4.179  0.0468  0.4943 -0.5756
25439SOL    HW283368   6.357  10.565   4.073  0.9759  0.7296  0.3816
25440SOL     OW83369   7.106   8.611   6.775  0.0147 -0.4027 -0.6080
25440SOL    HW183370   7.142   8.596   6.863 -1.3472  0.1570  0.0719
25440SOL    HW283371   7.183   8.612   6.718  0.8899 -1.2221  0.5095
25441SOL     OW83372   9.073   6.234   7.142 -0.7743 -0.4568  0.6526
25441SOL    HW183373   9.080   6.220   7.048 -3.6268  0.0283  0.2634
25441SOL    HW283374   9.118   6.317   7.158 -0.2220 -0.5778 -0.2784
25442SOL     OW83375  10.277   1.904   3.864  0.1443 -0.2306  0.3455
25442SOL    HW183376  10.187   1.931   3.882  0.6323  1.2959  0.5614
25442SOL    HW283377  10.319   1.900   3.950  0.6394  0.3760  0.1367
25443SOL     OW83378   5.971   8.340   2.595  0.0738 -0.3449 -0.3954
25443SOL    HW183379   6.063   8.333   2.572  0.2321 -1.2259  0.4791
25443SOL    HW283380   5.963   8.424   2.640  1.4535 -2.1977  3.8214
25444SOL     OW83381  12.439   2.674   0.434  0.2964 -0.0393 -0.4315
25444SOL    HW183382  12.360   2.628   0.404 -0.5348 -0.8080  2.6012
25444SOL    HW283383  12.510   2.635   0.382 -0.8809 -1.9307 -0.7233
25445SOL     OW83384   9.457   5.352   9.627  0.4096  0.0490  0.4343
25445SOL    HW183385   9.489   5.360   9.537  2.8613  0.2523  1.2628
25445SOL    HW283386   9.388   5.286   9.621  0.7847 -0.2372 -1.5355
25446SOL     OW83387   3.230   8.335   9.782 -0.4400 -0.1796  0.0377
25446SOL    HW183388   3.306   8.382   9.817 -0.1241  0.0997 -1.0061
25446SOL    HW283389   3.167   8.335   9.855  0.8460 -1.1271  1.2002
25447SOL     OW83390   2.369  11.999   5.294  0.4186  0.0514  0.1510
25447SOL    HW183391   2.344  12.034   5.380 -1.6628 -1.8417  0.3805
25447SOL    HW283392   2.457  11.964   5.307 -0.3396 -1.3227  1.8884
25448SOL     OW83393  11.625   6.558   7.517 -0.4472 -0.0444 -0.4067
25448SOL    HW183394  11.659   6.470   7.524  1.3961  0.5912 -0.9115
25448SOL    HW283395  11.604   6.584   7.607  1.2041 -0.1771  0.0342
25449SOL     OW83396   1.982  10.627  11.992  0.3077  0.6174 -0.0357
25449SOL    HW183397   1.995  10.613  12.086 -1.2491  0.1727  0.1470
25449SOL    HW283398   1.993  10.541  11.953  0.0301  0.6304 -0.1444
25450SOL     OW83399   6.343   7.360   9.067  0.1182 -0.4094  0.0891
25450SOL    HW183400   6.353   7.386   8.975  1.7443 -2.1295 -0.2832
25450SOL    HW283401   6.307   7.272   9.063 -0.6607 -0.1573  1.1568
25451SOL     OW83402   9.885   9.385  10.135  0.6213  0.3231 -0.1775
25451SOL    HW183403   9.899   9.457  10.074  0.9395  1.0001  0.6851
25451SOL    HW283404   9.953   9.396  10.202  0.8796 -0.9629 -0.2039
25452SOL     OW83405  11.391   7.286   2.202 -0.3495 -0.3231  0.7517
25452SOL    HW183406  11.452   7.255   2.269  1.1455 -0.7079 -0.7302
25452SOL    HW283407  11.409   7.379   2.193 -0.7271 -0.2196  1.0555
25453SOL     OW83408   0.936   8.013   7.732  0.5314 -0.3962 -0.1064
25453SOL    HW183409   0.858   7.998   7.678  0.4096 -1.3095  0.3044
25453SOL    HW283410   0.904   8.016   7.822  1.0169 -1.2855  0.1131
25454SOL     OW83411  10.895   5.761   4.447  0.6339  0.0926  0.2340
25454SOL    HW183412  10.895   5.806   4.362 -0.0423  0.1138  0.2347
25454SOL    HW283413  10.962   5.693   4.439  0.2918 -0.1763 -0.4768
25455SOL     OW83414   9.434   8.589   6.520  0.5010 -0.7574  0.5490
25455SOL    HW183415   9.458   8.502   6.551  0.6030 -0.5161  1.1633
25455SOL    HW283416   9.342   8.599   6.543  0.4254 -0.7882  0.2703
25456SOL     OW83417   6.662   5.313   6.197 -0.0580  0.1122  0.2406
25456SOL    HW183418   6.658   5.382   6.130  1.5157  0.5425  0.5501
25456SOL    HW283419   6.710   5.241   6.155 -0.1311 -0.0915  0.5024
25457SOL     OW83420   2.248   6.783  11.866 -0.0900  0.6635 -0.1166
25457SOL    HW183421   2.255   6.704  11.813 -0.6197  0.3584  0.2604
25457SOL    HW283422   2.175   6.832  11.827 -1.7704 -0.4494  1.4211
25458SOL     OW83423   1.140   9.125   1.064  0.0934  0.0291 -0.1969
25458SOL    HW183424   1.182   9.198   1.018 -0.5085  1.0578  0.8609
25458SOL    HW283425   1.207   9.056   1.063 -0.1393 -0.2924 -3.2533
25459SOL     OW83426  10.222   1.045   6.809 -0.7708 -0.1886 -0.1432
25459SOL    HW183427  10.218   1.136   6.779 -1.5598 -0.7584 -1.8687
25459SOL    HW283428  10.264   0.998   6.737  1.2257 -0.9677  1.4127
25460SOL     OW83429   2.273   4.563   3.111 -0.2145  0.2053  0.3339
25460SOL    HW183430   2.300   4.654   3.103  0.1962  0.1207  0.6965
25460SOL    HW283431   2.284   4.527   3.023  0.4856  0.2781  0.3799
25461SOL     OW83432   4.604   3.700   1.181  0.1304 -0.1671  0.1219
25461SOL    HW183433   4.659   3.629   1.147  3.2615  2.4264 -0.7044
25461SOL    HW283434   4.550   3.726   1.106  1.7000  0.6924 -0.7682
25462SOL     OW83435   4.765   0.070   8.929  0.2237 -0.2412  0.2096
25462SOL    HW183436   4.853   0.093   8.957  0.5549  0.3196 -1.2055
25462SOL    HW283437   4.741  -0.006   8.982  2.2327 -1.4867 -0.5554
25463SOL     OW83438   0.055  11.128   7.336  0.2463 -0.5932  0.6436
25463SOL    HW183439   0.000  11.092   7.406 -1.4380 -0.9612 -0.7936
25463SOL    HW283440   0.104  11.053   7.302 -1.6651 -1.2116 -0.9283
25464SOL     OW83441   6.253   7.562  11.511  0.3694  0.1342 -0.1150
25464SOL    HW183442   6.207   7.502  11.569  0.6023 -0.1440 -0.2155
25464SOL    HW283443   6.290   7.628  11.569 -1.1487  1.0453 -0.1289
25465SOL     OW83444   2.680  10.634   7.418  0.0608 -0.6945  0.0492
25465SOL    HW183445   2.739  10.710   7.414 -0.3454 -0.2992  1.1982
25465SOL    HW283446   2.615  10.651   7.349  0.5443 -0.4972 -0.3664
25466SOL     OW83447   5.821   1.731  10.565 -0.1403  0.4860 -0.0347
25466SOL    HW183448   5.828   1.779  10.482  2.9263 -1.1473 -0.8727
25466SOL    HW283449   5.762   1.658  10.545  0.9299 -0.1552 -0.9615
25467SOL     OW83450   3.009  11.055   6.199  0.5654 -0.7053  0.0742
25467SOL    HW183451   3.045  11.138   6.232  0.1274 -0.8730  1.0196
25467SOL    HW283452   3.068  10.988   6.233  0.1529 -0.8765  0.4678
25468SOL     OW83453   2.044   6.657   0.408 -0.2283  0.2585 -0.2783
25468SOL    HW183454   2.074   6.599   0.478 -1.7587  0.5510  0.6764
25468SOL    HW283455   2.024   6.740   0.453 -2.1055  0.1772 -0.8623
25469SOL     OW83456   6.221   7.774   4.574 -0.0141 -0.3313  0.3483
25469SOL    HW183457   6.233   7.694   4.625  1.7716 -0.5486 -0.3218
25469SOL    HW283458   6.257   7.752   4.488 -1.0256  0.6873 -0.3524
25470SOL     OW83459  11.124   8.334   0.880 -0.0967  0.1845  0.5494
25470SOL    HW183460  11.109   8.304   0.791  1.5694  0.0584  0.2636
25470SOL    HW283461  11.037   8.348   0.917 -0.8164 -0.3522 -0.8896
25471SOL     OW83462   7.416  12.568   4.728  0.0252  0.4251  0.0191
25471SOL    HW183463   7.394  12.477   4.748  0.9313 -0.0221 -0.9525
25471SOL    HW283464   7.360  12.619   4.787 -0.5801 -0.7470  0.4991
25472SOL     OW83465   7.291   2.142   7.236  0.1301  0.6806 -0.8658
25472SOL    HW183466   7.332   2.070   7.188 -0.3659 -0.2165  0.0072
25472SOL    HW283467   7.256   2.101   7.315 -1.6607  1.5784 -1.1525
25473SOL     OW83468   8.843   3.539   4.380  0.0619  0.1917  0.0346
25473SOL    HW183469   8.827   3.631   4.359  1.4501  0.1013 -1.5872
25473SOL    HW283470   8.938   3.531   4.384 -0.0515 -0.7957  2.1496
25474SOL     OW83471  12.513   2.024   4.556 -0.1233 -0.7103  0.1020
25474SOL    HW183472  12.463   2.025   4.475  0.0206 -0.6885  0.0133
25474SOL    HW283473  12.567   2.103   4.552 -2.5722  1.2238  1.7777
25475SOL     OW83474  10.193   3.757   3.828 -0.7339 -0.6749 -0.6690
25475SOL    HW183475  10.170   3.832   3.773  0.7426  0.7763  0.5656
25475SOL    HW283476  10.112   3.732   3.871 -0.7684  2.2908  1.2606
25476SOL     OW83477   6.980  12.260  10.786 -0.0148  0.9740  0.2049
25476SOL    HW183478   6.901  12.302  10.753 -0.3243 -0.0726 -0.3920
25476SOL    HW283479   6.949  12.204  10.857  0.0657 -0.1092 -0.6062
25477SOL     OW83480   5.445   4.306   0.153  0.3193  0.3428  0.4388
25477SOL    HW183481   5.407   4.274   0.071 -2.2600  2.0189  0.8804
25477SOL    HW283482   5.518   4.362   0.126 -0.2673  0.5769 -0.7010
25478SOL     OW83483  11.763  10.920   2.363 -0.4068 -0.5276  0.0522
25478SOL    HW183484  11.723  10.854   2.307 -0.6433 -0.9018  0.6534
25478SOL    HW283485  11.696  10.941   2.428  0.2445 -0.9360  0.8761
25479SOL     OW83486   6.270   3.636  11.311  0.0512 -0.4831 -0.2991
25479SOL    HW183487   6.281   3.726  11.280 -0.3730 -0.2768  0.1312
25479SOL    HW283488   6.197   3.641  11.373  1.3219 -0.7393  1.3001
25480SOL     OW83489   1.267  10.136  10.335  0.2179 -0.8576 -0.2921
25480SOL    HW183490   1.241  10.228  10.341 -2.9405 -1.6627  0.1672
25480SOL    HW283491   1.318  10.131  10.255  1.8073  1.5097  0.4465
25481SOL     OW83492   1.499   3.861   9.614 -0.7115  0.0399 -0.3634
25481SOL    HW183493   1.466   3.867   9.524  1.9183  0.1629 -1.4186
25481SOL    HW283494   1.462   3.779   9.648 -2.1028  0.2128 -1.3761
25482SOL     OW83495   2.548   2.956   1.707  0.4407  0.1844  0.5825
25482SOL    HW183496   2.643   2.966   1.701  0.3186  0.6477 -1.5260
25482SOL    HW283497   2.528   2.885   1.646 -0.6235  0.5288  0.5097
25483SOL     OW83498   1.871  10.167  10.903  0.3051 -0.4697  0.3315
25483SOL    HW183499   1.836  10.122  10.980 -3.7706  0.2157 -0.8392
25483SOL    HW283500   1.837  10.256  10.911  1.1689  0.0531 -1.4544
25484SOL     OW83501   5.766   9.259   6.228  0.0623 -0.0916  0.3766
25484SOL    HW183502   5.681   9.287   6.194  0.5034  1.6282  0.6202
25484SOL    HW283503   5.783   9.316   6.302  1.9048  0.3208 -0.2913
25485SOL     OW83504   8.001   4.626   1.406  0.6208 -0.3816 -0.0051
25485SOL    HW183505   7.919   4.675   1.404 -0.4112 -2.0190  0.2820
25485SOL    HW283506   8.069   4.693   1.404 -0.7157  1.0449  0.4380
25486SOL     OW83507  12.548   9.844   5.335 -0.0519 -0.3064 -0.0408
25486SOL    HW183508  12.592   9.832   5.251  0.6050  0.9329  0.0972
25486SOL    HW283509  12.493   9.922   5.322 -0.5027 -0.5390  0.4585
25487SOL     OW83510   0.751   3.628  11.428 -0.5940  0.0984  0.1066
25487SOL    HW183511   0.807   3.564  11.384 -0.0596 -0.2030  1.1678
25487SOL    HW283512   0.702   3.575  11.491 -1.0331  0.5683  0.1549
25488SOL     OW83513   7.163   1.521   3.147 -0.0104  0.1052  0.6943
25488SOL    HW183514   7.092   1.551   3.092  1.1151 -2.0157 -2.1739
25488SOL    HW283515   7.121   1.465   3.212 -0.9988 -2.6945 -2.1020
25489SOL     OW83516   7.807   6.638   6.557 -0.1362 -0.4854 -0.2933
25489SOL    HW183517   7.837   6.723   6.590 -1.7832 -0.7134  2.0028
25489SOL    HW283518   7.883   6.581   6.566  0.5605  0.3764 -0.4964
25490SOL     OW83519   4.222   0.444  10.700  0.3967  1.0196 -0.0232
25490SOL    HW183520   4.189   0.413  10.784 -3.2309  0.5188 -1.4489
25490SOL    HW283521   4.215   0.539  10.705 -0.3561  0.9614  0.0397
25491SOL     OW83522   3.649   0.549   1.040 -0.3653  0.0263  0.9988
25491SOL    HW183523   3.658   0.627   0.986 -0.7590 -0.4723  0.2042
25491SOL    HW283524   3.555   0.534   1.046 -0.2558 -1.4819 -0.4720
25492SOL     OW83525   6.413   3.732   9.325  0.3884 -0.1677 -0.0758
25492SOL    HW183526   6.487   3.793   9.329 -0.3046  0.6454  2.1680
25492SOL    HW283527   6.432   3.668   9.394 -0.8031 -0.1287  0.3043
25493SOL     OW83528   6.089   9.052   3.899 -0.1359 -0.1786 -0.2505
25493SOL    HW183529   6.036   9.068   3.977 -0.1095  0.9212 -0.4502
25493SOL    HW283530   6.163   9.112   3.908  1.0446 -1.6014 -0.0327
25494SOL     OW83531   2.271   2.716   7.814  0.1372  0.5521 -0.0188
25494SOL    HW183532   2.351   2.671   7.839  1.7762  0.5310 -4.4408
25494SOL    HW283533   2.300   2.805   7.793 -0.7552  0.3518 -2.3565
25495SOL     OW83534   4.444   6.239   2.162 -0.5707  0.0020  0.3008
25495SOL    HW183535   4.422   6.314   2.107 -2.4009 -1.1033 -0.5690
25495SOL    HW283536   4.360   6.207   2.194  0.2958 -0.6680  2.0704
25496SOL     OW83537   8.664   7.680  12.194 -0.1830  0.3523  0.1485
25496SOL    HW183538   8.575   7.702  12.222  0.0465  0.6583  0.6478
25496SOL    HW283539   8.668   7.585  12.201 -0.7757  0.2322 -0.8120
25497SOL     OW83540   9.644   9.483   8.271  0.4612 -0.1077 -0.2112
25497SOL    HW183541   9.683   9.419   8.331  0.7827  1.8460  1.8120
25497SOL    HW283542   9.705   9.557   8.270  0.6287 -0.1489 -3.2917
25498SOL     OW83543   0.985   9.485   5.807  0.0133  0.3126  0.0304
25498SOL    HW183544   0.917   9.424   5.778 -0.8981 -0.6109  3.6418
25498SOL    HW283545   0.937   9.563   5.834  0.7558  0.8892 -0.2661
25499SOL     OW83546  11.640  10.689   1.742  0.2469 -0.1465  0.1531
25499SOL    HW183547  11.641  10.652   1.830 -0.8132 -0.0437  0.2195
25499SOL    HW283548  11.684  10.623   1.688  0.1179 -0.6168  0.6108
25500SOL     OW83549   6.249   4.456   1.442 -0.0543 -0.5816  0.2954
25500SOL    HW183550   6.156   4.466   1.460  0.5073  0.3380  3.1591
25500SOL    HW283551   6.253   4.394   1.369 -2.8446 -1.3521  0.6928
25501SOL     OW83552  10.639   4.323   2.262 -0.0107  0.4740 -0.0167
25501SOL    HW183553  10.680   4.241   2.237  0.8688 -0.2486  3.3018
25501SOL    HW283554  10.545   4.307   2.253  0.2022 -0.1365 -1.3566
25502SOL     OW83555  10.171  11.147   8.718  0.6162 -0.1711 -0.0554
25502SOL    HW183556  10.121  11.118   8.794  2.2660 -0.3876  1.0021
25502SOL    HW283557  10.226  11.219   8.751  1.5505 -0.4439 -0.9464
25503SOL     OW83558   4.107   3.419   6.070  0.1773  0.0517 -0.1211
25503SOL    HW183559   4.150   3.395   6.153  0.7402  0.2779 -0.3421
25503SOL    HW283560   4.016   3.394   6.083 -0.2562  2.0795  1.4300
25504SOL     OW83561  10.999   4.750   8.254 -0.0104 -0.0128 -0.2426
25504SOL    HW183562  11.090   4.747   8.282 -0.8098 -0.7967  2.6441
25504SOL    HW283563  10.996   4.694   8.176  1.8433 -0.5904  0.0547
25505SOL     OW83564   3.030   3.920  11.173  0.7240  0.0576  0.1412
25505SOL    HW183565   2.972   3.929  11.097  2.3280 -1.0571 -1.3055
25505SOL    HW283566   3.030   4.007  11.214 -0.9474  0.4099 -0.5456
25506SOL     OW83567   4.193   2.145  12.032  0.0266  0.1427  0.0984
25506SOL    HW183568   4.230   2.155  11.944 -1.7724  0.0296 -0.6975
25506SOL    HW283569   4.187   2.235  12.066 -0.1350  0.2722 -0.2659
25507SOL     OW83570   4.270   9.988   9.592 -0.5758 -0.1405  0.2394
25507SOL    HW183571   4.353  10.009   9.635 -0.8611  0.2040  0.6414
25507SOL    HW283572   4.209   9.973   9.665 -1.0970  0.5605 -0.0406
25508SOL     OW83573  11.678   8.831   3.817  0.2878 -0.2983  0.3675
25508SOL    HW183574  11.746   8.825   3.884 -0.0761 -2.6577  0.6095
25508SOL    HW283575  11.692   8.755   3.761  0.3200  1.3883 -2.0567
25509SOL     OW83576   4.838   8.905   8.523  0.0797  0.2067 -0.2581
25509SOL    HW183577   4.759   8.879   8.476 -1.0487  1.2336  0.9871
25509SOL    HW283578   4.836   8.855   8.604  0.5066  0.5243 -0.0454
25510SOL     OW83579   3.304   7.932   5.627  0.1852  0.2212  0.0979
25510SOL    HW183580   3.228   7.899   5.675  1.3785 -1.9201  0.6649
25510SOL    HW283581   3.301   8.027   5.639  0.0796 -0.1217  3.9654
25511SOL     OW83582   7.264   6.630   6.934 -0.4185  0.5198  0.3402
25511SOL    HW183583   7.338   6.596   6.983 -0.4521  0.8212  0.6016
25511SOL    HW283584   7.245   6.715   6.974 -1.6806 -0.0890  1.0890
25512SOL     OW83585  10.519  10.313   8.995 -0.1499  0.1678 -0.3924
25512SOL    HW183586  10.470  10.388   9.029  0.8162  0.2576  0.8581
25512SOL    HW283587  10.596  10.352   8.952 -0.7221 -0.0158 -1.6341
25513SOL     OW83588   3.584   8.810   4.254 -0.0554  0.3146  0.0512
25513SOL    HW183589   3.552   8.894   4.220 -0.9003 -0.6654 -1.7194
25513SOL    HW283590   3.544   8.803   4.341 -0.0649  1.6849  0.1800
25514SOL     OW83591   4.993  10.497   8.188 -0.6093  0.2967  0.1585
25514SOL    HW183592   4.922  10.561   8.182 -1.2459 -0.3816  0.3665
25514SOL    HW283593   5.070  10.550   8.208 -1.4237  0.8515  2.1040
25515SOL     OW83594   1.812   1.076  10.588  0.3437 -0.0151 -0.4555
25515SOL    HW183595   1.754   1.075  10.512 -0.7422 -1.7264  0.3284
25515SOL    HW283596   1.894   1.039  10.556 -0.0286 -0.5143 -0.8586
25516SOL     OW83597   0.000   3.217   9.423 -1.1462 -0.2070 -0.3975
25516SOL    HW183598  -0.032   3.307   9.432  0.8791  0.5378 -0.2170
25516SOL    HW283599  -0.077   3.163   9.438 -1.8487  1.3891  2.5625
25517SOL     OW83600  10.961  11.179   6.128 -0.0162  0.4205 -0.0218
25517SOL    HW183601  11.036  11.187   6.187 -1.0073 -0.3963  1.4027
25517SOL    HW283602  10.894  11.236   6.167 -0.5877  0.0973 -0.5222
25518SOL     OW83603   2.482   9.245   7.533 -0.2140  0.5445 -0.3416
25518SOL    HW183604   2.512   9.154   7.546 -0.1252  0.8163  1.7613
25518SOL    HW283605   2.562   9.297   7.540 -0.6007  0.9653  1.2422
25519SOL     OW83606   4.470   4.411   3.901 -0.1843 -0.2021  0.3998
25519SOL    HW183607   4.463   4.331   3.849 -1.3566 -0.3838  0.8066
25519SOL    HW283608   4.383   4.451   3.895 -0.3177 -0.1579  2.1155
25520SOL     OW83609   0.303   2.521   9.927  0.2672  0.3526  0.4281
25520SOL    HW183610   0.310   2.447   9.988  1.2679 -1.1342 -1.4025
25520SOL    HW283611   0.386   2.567   9.935  1.3087 -1.1296 -1.3347
25521SOL     OW83612   6.364   1.441   4.375  0.1278 -0.3505 -0.4139
25521SOL    HW183613   6.389   1.475   4.462 -1.6806 -0.3384  0.1402
25521SOL    HW283614   6.342   1.349   4.391 -0.3020 -0.3224 -0.8255
25522SOL     OW83615  11.438  10.443  11.557 -0.1265 -0.1733 -0.4822
25522SOL    HW183616  11.503  10.506  11.589  1.8734 -0.1902 -3.9792
25522SOL    HW283617  11.354  10.487  11.568  0.8589  1.5592  0.5250
25523SOL     OW83618   6.109   9.405  11.262  0.9141  0.1908  0.4189
25523SOL    HW183619   6.024   9.424  11.302  0.7732 -0.4795  0.4562
25523SOL    HW283620   6.099   9.431  11.171  1.2739  1.8399  0.8231
25524SOL     OW83621   6.215   9.211   0.153  0.1472 -0.0535  0.0920
25524SOL    HW183622   6.198   9.119   0.132 -1.5003  0.2853 -0.1960
25524SOL    HW283623   6.232   9.251   0.068  1.9963 -0.2728  0.3213
25525SOL     OW83624   5.661   5.292   4.959  0.8096  0.3133  0.0080
25525SOL    HW183625   5.721   5.355   4.999  2.8437 -1.6865  0.3047
25525SOL    HW283626   5.650   5.223   5.025  0.1461 -0.5785 -0.9920
25526SOL     OW83627  12.100   8.593   6.867 -0.0911  0.5165  0.1114
25526SOL    HW183628  12.124   8.685   6.854  0.2021  0.3440 -0.6284
25526SOL    HW283629  12.126   8.574   6.957 -1.0530  1.4233  0.6088
25527SOL     OW83630   6.439  11.005   2.586 -0.0294  0.0953  0.3437
25527SOL    HW183631   6.402  10.918   2.575  0.1092  0.0846 -0.0516
25527SOL    HW283632   6.363  11.062   2.598 -0.2342  0.1811 -1.2031
25528SOL     OW83633   1.446  11.463   1.252  0.1866  0.0263 -0.3215
25528SOL    HW183634   1.403  11.438   1.334 -0.3146  1.8483  0.0195
25528SOL    HW283635   1.385  11.524   1.211  1.8197  1.6497 -0.4731
25529SOL     OW83636   2.822  11.449  10.926 -0.1822  0.2938  0.1251
25529SOL    HW183637   2.796  11.468  11.016  1.8580  0.1142  0.8050
25529SOL    HW283638   2.795  11.357  10.913 -0.1248  0.1953  0.6813
25530SOL     OW83639   9.207  11.877   9.223  0.2612  0.2447 -0.2421
25530SOL    HW183640   9.160  11.886   9.307 -1.4141 -2.0093 -0.8469
25530SOL    HW283641   9.140  11.896   9.157  1.7133  2.5953 -1.1604
25531SOL     OW83642   4.830   7.355   4.382  0.1256 -0.0759 -0.2516
25531SOL    HW183643   4.821   7.437   4.333 -0.6822 -0.6282 -1.0402
25531SOL    HW283644   4.834   7.287   4.315 -0.7538 -0.8232  0.4361
25532SOL     OW83645  11.442   3.190   1.662  0.0640 -0.1361  0.1157
25532SOL    HW183646  11.370   3.238   1.703 -0.7819 -0.2371 -1.1957
25532SOL    HW283647  11.415   3.099   1.664  0.1611 -0.1760 -0.3790
25533SOL     OW83648  10.554   9.572  10.925  0.4050  0.0130  0.1950
25533SOL    HW183649  10.538   9.489  10.970 -0.0679  0.1928  0.3613
25533SOL    HW283650  10.503   9.636  10.974  2.3305  0.7904  1.3101
25534SOL     OW83651   1.690   8.530   3.339  0.0532  0.3684 -0.2388
25534SOL    HW183652   1.760   8.540   3.274 -0.5762 -0.0745 -0.9930
25534SOL    HW283653   1.662   8.620   3.357  0.3212  0.5040 -0.4835
25535SOL     OW83654   7.199   8.099   6.940 -0.9649  0.2517 -0.4816
25535SOL    HW183655   7.201   8.107   6.845 -0.0027 -0.1278 -0.4996
25535SOL    HW283656   7.287   8.071   6.964 -2.0445 -3.0690  0.2012
25536SOL     OW83657   3.049   6.685   2.139  0.2946  0.5323 -0.4896
25536SOL    HW183658   2.985   6.617   2.120  1.1184 -0.3582 -0.1789
25536SOL    HW283659   3.003   6.747   2.195 -0.1324 -0.4162  0.2355
25537SOL     OW83660   3.502   0.692   5.713 -0.7088  0.4362 -0.2765
25537SOL    HW183661   3.519   0.669   5.621  0.4355 -1.0498  0.2558
25537SOL    HW283662   3.407   0.680   5.724 -0.6983 -0.4415 -1.0114
25538SOL     OW83663   4.400   0.659  10.892  0.5042 -0.1447 -0.4054
25538SOL    HW183664   4.396   0.754  10.904  0.9071 -0.1993  0.2223
25538SOL    HW283665   4.467   0.646  10.825  2.0980 -0.0794  1.1032
25539SOL     OW83666   4.076   3.012   5.950 -0.0895  0.7519 -0.3245
25539SOL    HW183667   4.117   3.075   6.010  3.4166 -3.1450  1.9140
25539SOL    HW283668   4.143   2.997   5.883 -0.9308 -0.3293 -0.9483
25540SOL     OW83669   9.892   5.194   0.222  0.6986  0.1023  0.7189
25540SOL    HW183670   9.824   5.147   0.270  0.3561  1.2500  1.4134
25540SOL    HW283671   9.886   5.161   0.133  0.0059 -0.6473  1.0295
25541SOL     OW83672   5.916   9.800   0.706 -0.2138 -0.1639  0.0539
25541SOL    HW183673   5.833   9.846   0.721 -0.6858 -0.0086 -2.5947
25541SOL    HW283674   5.947   9.833   0.622  2.7341 -0.0034  1.0728
25542SOL     OW83675   7.526   0.186   1.788  0.2861  0.2512  0.3167
25542SOL    HW183676   7.503   0.255   1.726 -1.3930 -0.0583  0.5561
25542SOL    HW283677   7.553   0.232   1.867 -1.1767  0.6510  0.5987
25543SOL     OW83678   5.535   0.869   0.298 -0.5538  0.1028 -0.7474
25543SOL    HW183679   5.554   0.961   0.285 -1.3779  0.5204  0.7484
25543SOL    HW283680   5.542   0.830   0.210  0.8736  1.3514 -1.2212
25544SOL     OW83681   1.148   4.837   7.598  0.3050  0.1630  0.2196
25544SOL    HW183682   1.132   4.743   7.610  2.9047 -0.0649  3.3568
25544SOL    HW283683   1.230   4.841   7.550  0.2524  0.8453  0.1812
25545SOL     OW83684  10.347  10.547  12.236 -0.3368 -0.4190 -0.1636
25545SOL    HW183685  10.430  10.594  12.233  0.7516 -2.2510  0.0387
25545SOL    HW283686  10.335  10.513  12.148 -0.9185 -0.1467 -0.1997
25546SOL     OW83687   6.542  12.565   8.324  0.1802 -0.0277 -0.0217
25546SOL    HW183688   6.465  12.585   8.376 -1.1283  0.2133 -1.9446
25546SOL    HW283689   6.546  12.636   8.259  2.0080 -0.0495  0.0003
25547SOL     OW83690   4.316   7.644  10.829 -0.0686 -0.1248 -0.4917
25547SOL    HW183691   4.246   7.696  10.790 -1.0960 -2.2000 -1.5920
25547SOL    HW283692   4.396   7.673  10.786 -0.4547  1.1888 -0.3505
25548SOL     OW83693   3.909   8.639  11.430  0.0399  0.8080  0.0913
25548SOL    HW183694   3.903   8.621  11.336  1.3808 -0.2498  0.1783
25548SOL    HW283695   3.837   8.700  11.448 -1.1279 -0.0890 -1.3522
25549SOL     OW83696   5.624   1.472   2.521  0.1569  0.2396 -0.4926
25549SOL    HW183697   5.603   1.509   2.607  1.7875  1.5348 -0.5938
25549SOL    HW283698   5.697   1.412   2.538 -0.3633 -0.4833 -0.7977
25550SOL     OW83699   0.685   6.396   6.242 -0.1410  0.0204  0.2704
25550SOL    HW183700   0.765   6.434   6.279  0.4044 -0.5171 -0.3206
25550SOL    HW283701   0.717   6.329   6.181 -1.0700 -2.3261  2.2127
25551SOL     OW83702   1.853  11.056   0.194 -0.1644  0.1069  0.0303
25551SOL    HW183703   1.820  11.084   0.108  0.2490  0.8516  0.1027
25551SOL    HW283704   1.791  10.989   0.223 -0.4317  0.0007 -0.7531
25552SOL     OW83705   3.796   6.249  11.500  1.0347 -0.1997  0.5554
25552SOL    HW183706   3.767   6.159  11.512  0.1512 -0.1819 -1.1260
25552SOL    HW283707   3.790   6.264  11.405 -0.5560  2.1492  0.9431
25553SOL     OW83708  11.677   4.796  12.071  0.2514  0.4489 -0.4187
25553SOL    HW183709  11.650   4.711  12.038 -1.9281  0.8975  0.0337
25553SOL    HW283710  11.647   4.797  12.162 -0.8093  2.0853 -0.7355
25554SOL     OW83711   9.796   3.466  10.686  0.0663 -0.2078 -0.3335
25554SOL    HW183712   9.755   3.531  10.743 -1.0127 -0.7171 -0.5119
25554SOL    HW283713   9.844   3.518  10.621  2.0096  0.3732  1.4860
25555SOL     OW83714   3.435   6.353  12.528  0.2682  0.3172 -0.5614
25555SOL    HW183715   3.528   6.333  12.517  0.3430  1.1394 -1.5115
25555SOL    HW283716   3.391   6.294  12.466  0.0891 -0.4862  0.2990
25556SOL     OW83717   6.643  11.415   5.115  0.3827  0.3893 -0.1008
25556SOL    HW183718   6.603  11.409   5.028  0.3559  2.4868 -0.2666
25556SOL    HW283719   6.569  11.424   5.175  0.4312 -0.4301  0.0949
25557SOL     OW83720   1.511   3.658   1.530 -0.4219  0.1730 -0.3029
25557SOL    HW183721   1.599   3.696   1.539 -0.1814 -0.5679  0.8149
25557SOL    HW283722   1.527   3.568   1.503 -0.9163  0.4127 -1.4494
25558SOL     OW83723  12.145   4.090   1.838 -0.2975 -0.2382  0.7096
25558SOL    HW183724  12.080   4.081   1.907 -1.4920 -0.4337 -0.3904
25558SOL    HW283725  12.096   4.072   1.757  0.8238  0.8748 -0.2629
25559SOL     OW83726   5.174  10.783   4.472 -0.0941  0.6624 -0.7629
25559SOL    HW183727   5.179  10.847   4.542 -0.8683  0.2579 -0.3257
25559SOL    HW283728   5.265  10.768   4.447  0.2460  0.3323  0.5903
25560SOL     OW83729  11.298   5.923   1.992 -0.0751  0.2478  0.1922
25560SOL    HW183730  11.264   5.978   2.063  1.7095  0.2982  1.0796
25560SOL    HW283731  11.391   5.944   1.989 -0.0053 -0.1568 -1.8489
25561SOL     OW83732  11.848   7.641   5.065 -0.0858  0.1953  0.2314
25561SOL    HW183733  11.772   7.686   5.028 -0.0734  1.4261  1.6460
25561SOL    HW283734  11.811   7.563   5.107 -0.3790  0.0609 -0.2569
25562SOL     OW83735  10.306   4.820   5.245  0.3195  0.0439  0.4482
25562SOL    HW183736  10.266   4.771   5.174 -0.8510 -1.4418  2.0380
25562SOL    HW283737  10.291   4.912   5.222  1.1619 -0.3173 -1.8210
25563SOL     OW83738   9.386   2.423   5.405  0.0218 -0.0529 -0.0785
25563SOL    HW183739   9.391   2.486   5.477 -2.0136  0.5446 -0.4087
25563SOL    HW283740   9.410   2.339   5.445  0.1628  0.4812  0.9890
25564SOL     OW83741   1.651   5.071  12.012 -0.5398 -0.3493 -0.0826
25564SOL    HW183742   1.615   4.996  11.965  1.6400 -1.8427  0.4500
25564SOL    HW283743   1.722   5.103  11.956 -1.1483  1.0512 -0.0910
25565SOL     OW83744  12.342   2.829   0.669 -0.6866  0.1023 -0.0015
25565SOL    HW183745  12.385   2.761   0.618 -2.3805 -0.2588 -1.0577
25565SOL    HW283746  12.365   2.911   0.625  1.1201  0.2451  1.1028
25566SOL     OW83747   7.287   9.146   4.368  0.2084 -0.1782 -0.2106
25566SOL    HW183748   7.245   9.096   4.438  0.6141  0.9673  0.8586
25566SOL    HW283749   7.381   9.137   4.384  0.3414 -0.6764 -1.1628
25567SOL     OW83750   1.932   4.608   0.678  0.4572 -0.8178 -0.0652
25567SOL    HW183751   1.932   4.593   0.773  1.1661  0.9740  0.2529
25567SOL    HW283752   1.858   4.556   0.646 -0.2014 -0.9416  1.5540
25568SOL     OW83753  11.683   6.615   4.785 -0.7728  0.7888 -0.2439
25568SOL    HW183754  11.606   6.644   4.833  0.7141 -0.2898  3.0191
25568SOL    HW283755  11.681   6.520   4.789  0.4738  0.7262 -0.5178
25569SOL     OW83756   5.894   9.877   3.349  0.7409  0.4151 -0.5238
25569SOL    HW183757   5.949   9.816   3.300 -1.2252 -0.9617 -1.1900
25569SOL    HW283758   5.834   9.913   3.283 -0.3922  0.3584  0.4331
25570SOL     OW83759   0.753   1.203   5.366  0.0094 -0.2890  0.4342
25570SOL    HW183760   0.828   1.177   5.421 -0.0919 -2.2206 -0.2620
25570SOL    HW283761   0.776   1.173   5.278 -2.4584 -3.0562  0.5668
25571SOL     OW83762   8.519   4.458   4.547 -0.1890 -0.0908  0.3539
25571SOL    HW183763   8.596   4.476   4.600  0.3020 -1.3635  0.1228
25571SOL    HW283764   8.497   4.541   4.505  1.6673  0.0810 -0.3456
25572SOL     OW83765  11.619  12.589   3.766 -0.3112  0.5610 -0.4323
25572SOL    HW183766  11.546  12.531   3.788 -0.8682  1.4405  0.0709
25572SOL    HW283767  11.586  12.644   3.696  0.5753 -0.4144 -1.6791
25573SOL     OW83768   1.609  10.088   1.744  0.2463  0.5238  0.3307
25573SOL    HW183769   1.529  10.051   1.706 -0.2292  2.9598 -1.2200
25573SOL    HW283770   1.600  10.182   1.733  1.9109  1.1024  3.0678
25574SOL     OW83771   8.597   2.038   3.416  0.0751  0.0210  0.1086
25574SOL    HW183772   8.508   2.065   3.395  0.0499 -0.4923 -0.4931
25574SOL    HW283773   8.634   2.009   3.332  0.6946 -0.0933  0.4097
25575SOL     OW83774   4.266  12.478   0.594 -0.2388  0.0427  0.3402
25575SOL    HW183775   4.347  12.434   0.570  0.1194  0.5553  0.5703
25575SOL    HW283776   4.295  12.557   0.641 -0.8503  0.5334 -0.0818
25576SOL     OW83777   6.249  12.395   2.356 -0.1597 -0.2961  0.0336
25576SOL    HW183778   6.164  12.352   2.348 -1.8311  2.4927  1.5884
25576SOL    HW283779   6.265  12.433   2.269 -1.1951  0.3109  0.0881
25577SOL     OW83780   8.402  12.125   8.082 -0.2831  0.2144  0.4195
25577SOL    HW183781   8.325  12.072   8.103  0.3119 -0.3973  1.2058
25577SOL    HW283782   8.439  12.147   8.168  0.1339  0.9201  0.0656
25578SOL     OW83783   1.973   8.942   2.467 -0.3753  0.5801 -0.3940
25578SOL    HW183784   1.944   8.965   2.555 -1.6807  1.7504 -1.0885
25578SOL    HW283785   1.993   8.849   2.472 -0.5303  0.6040  1.1083
25579SOL     OW83786   5.415   0.498   3.411 -0.0355 -0.1115  0.1460
25579SOL    HW183787   5.468   0.522   3.488 -1.3402  1.4032  0.6400
25579SOL    HW283788   5.454   0.549   3.340  2.1003 -2.6114 -0.6291
25580SOL     OW83789   7.447   1.546   8.099  0.4211 -0.0175 -0.3779
25580SOL    HW183790   7.494   1.610   8.045  0.7708 -0.8038 -1.0566
25580SOL    HW283791   7.429   1.474   8.038 -0.4444 -0.3214  0.2286
25581SOL     OW83792   0.511   4.512   5.351  0.8997 -0.2258 -0.0530
25581SOL    HW183793   0.566   4.549   5.283  0.9067 -1.6991 -0.8860
25581SOL    HW283794   0.449   4.582   5.373 -0.3817 -0.3009 -2.9720
25582SOL     OW83795  11.394  12.275   8.081  0.4065 -0.2946 -0.5224
25582SOL    HW183796  11.478  12.310   8.054  1.6425 -1.5706  1.3570
25582SOL    HW283797  11.391  12.187   8.044  0.3360 -0.5851  0.1389
25583SOL     OW83798  10.407   2.412   9.537 -0.0424  0.0089 -0.2963
25583SOL    HW183799  10.500   2.415   9.561 -0.3252 -0.0674  0.8360
25583SOL    HW283800  10.386   2.318   9.535 -0.3725  0.0617  0.5626
25584SOL     OW83801  11.461   6.854  11.732  0.4894 -0.4387  0.6306
25584SOL    HW183802  11.439   6.848  11.639  0.4774 -0.1327  0.6150
25584SOL    HW283803  11.553   6.828  11.737  0.0530 -2.0949  0.7437
25585SOL     OW83804   7.985   7.983   4.587  0.1451  0.1569  0.7399
25585SOL    HW183805   8.039   7.910   4.556  1.0459  0.4671  1.4942
25585SOL    HW283806   7.929   8.005   4.514  0.1559 -1.0239  0.3623
25586SOL     OW83807  12.230  12.555   1.206  0.2486  0.1694  0.0566
25586SOL    HW183808  12.252  12.463   1.201 -2.7664 -0.6270 -2.2101
25586SOL    HW283809  12.276  12.595   1.131 -1.6237 -0.4475 -1.5171
25587SOL     OW83810   6.078   4.596   0.215  0.1636 -0.7768  0.1661
25587SOL    HW183811   6.017   4.524   0.231  0.9300 -1.4990 -0.0229
25587SOL    HW283812   6.027   4.662   0.168 -0.0550 -2.0951 -1.5484
25588SOL     OW83813   3.573   3.763   2.307 -0.4913  0.0582 -0.4779
25588SOL    HW183814   3.538   3.818   2.378  0.5304  1.0189 -0.6916
25588SOL    HW283815   3.503   3.700   2.290 -0.9713  0.1410  1.0139
25589SOL     OW83816   3.998   2.880  12.129  0.2445  0.1532  0.4554
25589SOL    HW183817   3.919   2.888  12.076  0.4155 -0.7267  0.0514
25589SOL    HW283818   3.996   2.791  12.163  0.5273  0.4651  1.3121
25590SOL     OW83819   7.276   5.204   4.409  0.0145 -0.1026 -0.3864
25590SOL    HW183820   7.317   5.290   4.401 -1.7734  0.8540 -0.0019
25590SOL    HW283821   7.288   5.180   4.500  1.6550 -0.9157 -0.7808
25591SOL     OW83822   0.250  11.503   4.717  0.0130  0.7091  0.0367
25591SOL    HW183823   0.345  11.495   4.711  0.0745  1.9061 -1.2144
25591SOL    HW283824   0.217  11.414   4.705  0.9884  0.1334  1.4693
25592SOL     OW83825   5.776   5.068   4.766  0.2537 -0.1493 -0.6713
25592SOL    HW183826   5.849   5.119   4.731  0.1384 -0.9289 -2.1596
25592SOL    HW283827   5.805   5.038   4.852  0.8933  1.1713 -0.4133
25593SOL     OW83828  11.058   4.831   0.138 -0.2683  0.0157 -0.2644
25593SOL    HW183829  11.069   4.823   0.233 -1.4218  0.8810 -0.0436
25593SOL    HW283830  11.090   4.919   0.117 -0.7267  0.1179 -0.5601
25594SOL     OW83831   1.482   0.013   3.561  0.2644 -0.1456  0.0832
25594SOL    HW183832   1.478   0.088   3.502  0.8604 -0.3935 -0.2892
25594SOL    HW283833   1.442  -0.059   3.512 -0.0057 -0.1504  0.3096
25595SOL     OW83834   6.888   3.936  11.926  0.2754  0.3715  0.0289
25595SOL    HW183835   6.894   3.969  11.836 -1.0024  0.9168  0.1191
25595SOL    HW283836   6.959   3.872  11.933  1.3265  1.4010 -0.8868
25596SOL     OW83837   1.729   4.725  10.854 -0.1495  0.1163 -0.4368
25596SOL    HW183838   1.652   4.684  10.893 -0.3145 -0.5006 -1.3883
25596SOL    HW283839   1.697   4.763  10.773  0.8907 -1.7922 -1.8057
25597SOL     OW83840  11.045   0.940   1.407  0.2128  0.1046 -0.2418
25597SOL    HW183841  11.049   0.976   1.319 -0.1254  0.0171 -0.2927
25597SOL    HW283842  11.119   0.879   1.411  0.7432  0.7317 -0.1803
25598SOL     OW83843   9.602   5.668   4.943 -0.3802  0.2998  1.2763
25598SOL    HW183844   9.674   5.632   4.892 -1.4970  0.5179 -0.5554
25598SOL    HW283845   9.643   5.729   5.004  0.8676  2.0772 -1.1629
25599SOL     OW83846   6.779   3.785   0.429 -0.7417  0.6138  0.4392
25599SOL    HW183847   6.734   3.706   0.400 -1.9530  1.7991 -1.0745
25599SOL    HW283848   6.745   3.801   0.516  0.3975 -1.1299  1.2761
25600SOL     OW83849   0.315   9.062  10.673  0.7407 -0.0146  0.1546
25600SOL    HW183850   0.234   9.044  10.626  0.6148  1.6720 -0.3484
25600SOL    HW283851   0.376   8.996  10.642 -0.6185 -1.7963  1.1137
25601SOL     OW83852   1.473   9.336   3.483 -0.2056  0.3061 -0.1498
25601SOL    HW183853   1.459   9.427   3.505 -0.5018  0.4697 -0.9751
25601SOL    HW283854   1.394   9.310   3.435 -0.7271 -0.7689  1.1922
25602SOL     OW83855  12.249   9.305   4.535 -0.1136 -0.7713 -0.1847
25602SOL    HW183856  12.202   9.345   4.608  0.9722 -1.4566  0.9482
25602SOL    HW283857  12.187   9.242   4.499 -1.5770  1.3224 -1.5312
25603SOL     OW83858  11.058   2.024  12.187  0.2998  0.8133 -1.0147
25603SOL    HW183859  11.095   2.028  12.275  1.0223  0.6840 -1.3045
25603SOL    HW283860  11.096   2.100  12.142 -1.1482  1.6855 -0.8178
25604SOL     OW83861   1.953  10.680   0.410 -0.5370  0.0665 -0.6850
25604SOL    HW183862   1.998  10.677   0.325  0.2370  0.0265 -0.2794
25604SOL    HW283863   2.022  10.705   0.472 -1.0268 -0.2339 -0.0178
25605SOL     OW83864   0.139   3.770   6.696 -0.1763 -0.2140 -0.6241
25605SOL    HW183865   0.205   3.730   6.639  0.5758  0.9569 -0.6236
25605SOL    HW283866   0.179   3.853   6.724 -1.9236  0.8749 -1.1739
25606SOL     OW83867   7.614   1.885   9.814 -0.2089 -0.7133  0.7189
25606SOL    HW183868   7.527   1.859   9.785 -0.2372 -1.4562  1.4405
25606SOL    HW283869   7.664   1.896   9.733 -1.1239  0.3458  0.2632
25607SOL     OW83870   9.320   6.062  12.345  0.5007 -0.4966  0.9185
25607SOL    HW183871   9.249   6.048  12.282 -1.5661 -1.7744  3.3676
25607SOL    HW283872   9.384   5.993  12.326  1.4861  0.9700 -1.6420
25608SOL     OW83873  12.031  11.629   8.157  0.0125  0.1347  0.0849
25608SOL    HW183874  12.104  11.655   8.213  0.8868  0.0947 -1.0105
25608SOL    HW283875  12.071  11.608   8.073 -1.3488  0.9613 -0.8176
25609SOL     OW83876  10.280  10.075   6.964 -0.0604 -0.1870  0.4165
25609SOL    HW183877  10.211  10.038   6.908 -0.0061  1.0735 -0.5272
25609SOL    HW283878  10.289  10.012   7.035 -1.6143 -0.7925  0.1231
25610SOL     OW83879  10.616   5.543   9.686 -0.4962 -0.2010  0.0576
25610SOL    HW183880  10.643   5.601   9.758 -0.7369  0.4629 -0.3723
25610SOL    HW283881  10.588   5.463   9.729  0.5948 -0.3042  0.6192
25611SOL     OW83882   7.728   6.974   7.186 -0.4238  0.6100 -0.0672
25611SOL    HW183883   7.794   6.949   7.251 -0.2552 -0.6831 -0.7124
25611SOL    HW283884   7.773   6.966   7.102 -1.0530  0.8976 -0.4349
25612SOL     OW83885   0.792  11.121   7.544 -0.6706  0.2795 -0.1907
25612SOL    HW183886   0.755  11.170   7.618  1.8154  0.6861  0.8671
25612SOL    HW283887   0.834  11.187   7.490 -0.0029 -0.3384 -0.4316
25613SOL     OW83888   1.288   4.792   2.342  0.3485 -0.5047 -0.1714
25613SOL    HW183889   1.257   4.702   2.349  0.0404 -0.4505 -0.7431
25613SOL    HW283890   1.336   4.794   2.259  3.8574 -1.1497  1.6307
25614SOL     OW83891   3.357   7.728   3.218  1.0866  0.4629 -0.5155
25614SOL    HW183892   3.340   7.795   3.284 -0.2878 -0.3159 -0.0269
25614SOL    HW283893   3.445   7.747   3.185  1.1525  1.8225  0.3933
25615SOL     OW83894   3.667   3.537   4.823  0.3581 -0.1162  0.0323
25615SOL    HW183895   3.645   3.607   4.761 -1.8436 -0.9247 -0.1720
25615SOL    HW283896   3.706   3.468   4.769  0.1756 -0.0649 -0.1643
25616SOL     OW83897   6.394  12.210   2.494 -0.0958 -0.2340  0.4453
25616SOL    HW183898   6.360  12.122   2.476 -0.4246 -0.0623  0.2224
25616SOL    HW283899   6.334  12.269   2.449  0.8985  0.0516 -0.5674
25617SOL     OW83900   0.645   6.390   8.285  0.1977 -0.3960  0.0213
25617SOL    HW183901   0.566   6.406   8.233  0.1059 -0.3898  0.1593
25617SOL    HW283902   0.618   6.324   8.350 -0.1679  0.7685  1.1057
25618SOL     OW83903   1.325  10.802   7.772 -0.0494 -0.1523 -0.1780
25618SOL    HW183904   1.354  10.838   7.689  0.1613 -0.4758 -0.2483
25618SOL    HW283905   1.249  10.854   7.796  1.0584  1.2490  0.4148
25619SOL     OW83906   7.610   3.434   6.825 -0.6972 -0.1928 -0.8323
25619SOL    HW183907   7.575   3.500   6.885  1.2290 -0.2605  0.4860
25619SOL    HW283908   7.541   3.368   6.820 -0.2099 -1.2636  3.1350
25620SOL     OW83909  10.309   2.398   4.257  0.1173  0.4973 -0.9522
25620SOL    HW183910  10.226   2.355   4.281  0.4728  0.0289 -0.5477
25620SOL    HW283911  10.348   2.339   4.193  0.7315  0.0713 -0.1996
25621SOL     OW83912   9.635   4.903   7.336  0.1857 -0.2576  0.5188
25621SOL    HW183913   9.724   4.871   7.349  0.8787 -0.1077 -2.9222
25621SOL    HW283914   9.587   4.826   7.305 -0.9565 -0.3174  2.2602
25622SOL     OW83915  10.746   0.659  12.250 -0.1419  0.0631  0.1586
25622SOL    HW183916  10.789   0.608  12.182 -0.3814 -0.6975  0.5585
25622SOL    HW283917  10.656   0.670  12.219 -0.3282 -0.5199  0.4527
25623SOL     OW83918  10.113   1.803  10.566  0.5663 -0.2766  0.3713
25623SOL    HW183919  10.130   1.730  10.507 -0.0182 -0.7241  0.7482
25623SOL    HW283920  10.031   1.841  10.534  0.9958  0.3815  0.0218
25624SOL     OW83921   0.269   6.919   7.693  0.0234  0.5031 -0.1229
25624SOL    HW183922   0.241   6.993   7.747 -0.9595 -1.4029  2.1136
25624SOL    HW283923   0.201   6.853   7.705  1.4174 -1.2100 -1.1701
25625SOL     OW83924   2.335   6.404   4.633 -0.1128 -0.2073  1.3541
25625SOL    HW183925   2.278   6.326   4.628  0.7454 -0.7712 -1.7536
25625SOL    HW283926   2.302   6.461   4.564  1.9996  0.1791  0.5919
25626SOL     OW83927   1.262  11.237  12.061  0.1995 -0.4311 -0.0256
25626SOL    HW183928   1.230  11.324  12.085  1.1774  0.0005 -0.2552
25626SOL    HW283929   1.186  11.194  12.022 -0.0085  0.7125 -0.9423
25627SOL     OW83930  10.390  11.824   3.979  0.0548  0.4562 -0.5241
25627SOL    HW183931  10.484  11.815   3.995  0.3499  0.6030 -2.0058
25627SOL    HW283932  10.367  11.908   4.017  0.4733  0.3054  0.0673
25628SOL     OW83933   4.410   1.319  11.643 -0.1438 -0.5759  0.1615
25628SOL    HW183934   4.379   1.332  11.733  0.2561  1.7409  0.0194
25628SOL    HW283935   4.487   1.262  11.651 -0.3871 -0.7718  1.2073
25629SOL     OW83936   4.140   9.979   2.776 -0.1274 -0.3184  0.5543
25629SOL    HW183937   4.196  10.057   2.768  1.4065 -1.3931  0.3712
25629SOL    HW283938   4.064  10.010   2.825  0.1289  1.4474 -0.0755
25630SOL     OW83939   9.888   1.796  11.701  0.0959  0.2103 -0.5926
25630SOL    HW183940   9.918   1.769  11.614 -1.3045  0.5636 -1.2111
25630SOL    HW283941   9.927   1.882  11.714  0.8712 -0.1399 -0.5704
25631SOL     OW83942   8.009   9.980   6.140  0.6146 -0.0329 -0.3971
25631SOL    HW183943   8.048   9.913   6.085  0.3307 -0.3245 -0.2424
25631SOL    HW283944   8.050  10.062   6.110  0.4804 -0.1888 -1.0225
25632SOL     OW83945   3.247   9.159   2.465 -0.2255  0.2386  0.2816
25632SOL    HW183946   3.318   9.141   2.403  0.6591  1.3195  0.9299
25632SOL    HW283947   3.189   9.219   2.418 -0.1651  0.1471  0.0904
25633SOL     OW83948   0.643   2.823   0.094 -0.0481 -0.1476  0.0315
25633SOL    HW183949   0.601   2.741   0.120  0.1462 -0.5908 -1.0185
25633SOL    HW283950   0.731   2.797   0.066  0.2598  0.5207  0.3475
25634SOL     OW83951   7.598   0.308   2.485  0.6813  0.5849  1.0565
25634SOL    HW183952   7.569   0.241   2.548 -0.6131 -0.0691 -0.1709
25634SOL    HW283953   7.678   0.344   2.523  1.2137 -1.4058  1.9415
25635SOL     OW83954  10.331   9.140   1.645  0.1895  0.1089 -0.0262
25635SOL    HW183955  10.371   9.130   1.731 -1.1878 -1.4141  0.4880
25635SOL    HW283956  10.241   9.167   1.664 -1.0884 -3.2039 -0.7541
25636SOL     OW83957   9.787   4.323  10.564  0.2068 -0.2757 -0.6803
25636SOL    HW183958   9.715   4.383  10.585  2.5721  1.6466  3.0099
25636SOL    HW283959   9.745   4.237  10.560 -2.6803  1.0502 -1.8391
25637SOL     OW83960   2.930   4.641   1.260 -0.1354  0.3100 -0.1129
25637SOL    HW183961   3.012   4.618   1.216  0.8964  1.8808  0.8934
25637SOL    HW283962   2.903   4.559   1.302  1.7996  0.1165  0.8785
25638SOL     OW83963   0.750   0.886   1.596 -0.2104  0.0005 -0.0868
25638SOL    HW183964   0.751   0.793   1.574 -2.3043 -0.2227  0.6009
25638SOL    HW283965   0.747   0.888   1.692 -1.0340  0.7550 -0.1171
25639SOL     OW83966   3.608   9.091   8.683 -0.1634  0.0132  0.5125
25639SOL    HW183967   3.615   9.047   8.598 -0.5489  2.0993 -0.6687
25639SOL    HW283968   3.647   9.030   8.745  1.0504 -1.1657 -1.3171
25640SOL     OW83969   9.607  10.912  10.429 -0.0964 -0.9271 -0.6042
25640SOL    HW183970   9.616  10.907  10.333 -0.9332  0.9427 -0.8197
25640SOL    HW283971   9.528  10.964  10.443 -0.0425 -1.2475  1.1322
25641SOL     OW83972  10.373   2.207  12.263  0.4927  0.5817  0.2780
25641SOL    HW183973  10.390   2.218  12.170  1.3807 -1.0217  0.2102
25641SOL    HW283974  10.339   2.292  12.292  0.2773  1.1229 -1.4732
25642SOL     OW83975   7.202   1.000   7.321 -0.2775  0.6085  0.1813
25642SOL    HW183976   7.282   1.052   7.310 -1.4410  2.2919 -0.7657
25642SOL    HW283977   7.211   0.960   7.407  1.3073  1.2444  0.3489
25643SOL     OW83978   7.821   1.400   7.175  0.5010  0.0360 -0.2583
25643SOL    HW183979   7.859   1.354   7.250  2.0398  0.5165 -0.7041
25643SOL    HW283980   7.839   1.493   7.192 -0.5186  0.2942 -0.4855
25644SOL     OW83981   3.750   0.606  11.335  0.4293 -0.8698 -0.0701
25644SOL    HW183982   3.689   0.672  11.369  0.7429 -0.6697  0.1030
25644SOL    HW283983   3.756   0.624  11.242 -0.2184 -1.2461 -0.1951
25645SOL     OW83984   6.139   5.776   4.945  0.0532 -0.3244 -0.2763
25645SOL    HW183985   6.208   5.842   4.940  1.5910 -1.7523  0.9003
25645SOL    HW283986   6.181   5.695   4.918 -1.8298 -0.8818 -1.8514
25646SOL     OW83987   3.164   8.666  11.509  0.4425 -0.2353  0.1423
25646SOL    HW183988   3.216   8.745  11.525  0.6952 -0.2706 -0.4887
25646SOL    HW283989   3.076   8.699  11.492  0.6616 -0.0518 -0.6507
25647SOL     OW83990   0.907  10.528   9.241  0.3903 -0.2654 -0.3974
25647SOL    HW183991   0.842  10.490   9.301  1.8515  0.2160  1.5902
25647SOL    HW283992   0.856  10.588   9.186 -0.8432  0.3166  1.2765
25648SOL     OW83993   1.299   3.318   3.362 -0.5657 -0.0123  0.0872
25648SOL    HW183994   1.261   3.239   3.325 -1.2992  0.0983  0.5927
25648SOL    HW283995   1.325   3.293   3.451  0.3260 -0.0176 -0.1658
25649SOL     OW83996   1.583   0.316   9.919  1.0356 -0.6952 -0.2216
25649SOL    HW183997   1.675   0.340   9.922  1.2902 -1.6692  2.5747
25649SOL    HW283998   1.563   0.283  10.006 -2.0203 -0.4282 -0.6806
25650SOL     OW83999  10.481  10.119  11.632  0.1459  0.4882  0.3091
25650SOL    HW184000  10.488  10.051  11.699  0.4957  0.7974  0.5913
25650SOL    HW284001  10.528  10.084  11.557 -1.8064 -0.6636 -0.4593
25651SOL     OW84002   8.303   1.017  11.689  0.5904  0.3451 -0.1470
25651SOL    HW184003   8.341   0.959  11.623  2.3703  0.1996  0.9539
25651SOL    HW284004   8.329   1.105  11.662  0.4275  0.3799 -0.1941
25652SOL     OW84005   1.445   1.653   6.727  0.5950 -0.3327 -0.9960
25652SOL    HW184006   1.435   1.697   6.642  1.8322 -1.0939 -1.5555
25652SOL    HW284007   1.436   1.724   6.791  0.1695  0.3421 -1.7724
25653SOL     OW84008   0.689   0.351   8.621  0.7463 -0.2131  0.5507
25653SOL    HW184009   0.763   0.356   8.681 -0.8209  0.9987  2.5400
25653SOL    HW284010   0.645   0.435   8.631  1.4975  0.9569 -3.9696
25654SOL     OW84011  10.122   6.580   1.469  0.1832  0.4265 -0.3738
25654SOL    HW184012  10.105   6.578   1.375  1.2610 -0.5168 -0.5690
25654SOL    HW284013  10.217   6.569   1.476  0.2417  1.4695  0.7940
25655SOL     OW84014  11.164   8.999   3.256 -1.0335 -0.1465 -0.5069
25655SOL    HW184015  11.173   8.928   3.191 -1.9150 -0.2686 -0.5063
25655SOL    HW284016  11.238   9.056   3.239 -0.7570 -0.6515 -1.0440
25656SOL     OW84017   9.264  10.554  11.746  0.4055 -0.2832 -0.0144
25656SOL    HW184018   9.252  10.546  11.840  0.3548  1.6887  0.1751
25656SOL    HW284019   9.188  10.602  11.715  1.2857  0.6697 -0.7859
25657SOL     OW84020   9.790  11.899   9.427 -0.3852 -0.0475 -0.4030
25657SOL    HW184021   9.750  11.916   9.342  0.9554 -0.7209 -1.2115
25657SOL    HW284022   9.856  11.831   9.409  0.3078  0.1924  1.0700
25658SOL     OW84023   3.725   4.509   3.618 -0.0766 -0.2612  0.4115
25658SOL    HW184024   3.706   4.586   3.564  0.5013 -0.0527  0.4933
25658SOL    HW284025   3.750   4.442   3.555  0.9658  0.0940  0.4309
25659SOL     OW84026  10.185   4.487   1.485  0.1837  0.3838  0.4412
25659SOL    HW184027  10.144   4.415   1.533 -3.4562  1.7366 -0.3722
25659SOL    HW284028  10.260   4.446   1.441 -1.4868 -2.8542  0.3035
25660SOL     OW84029   2.343  10.874   1.234  0.5492 -0.0556  0.1709
25660SOL    HW184030   2.387  10.910   1.310 -1.2193  1.8384  0.3983
25660SOL    HW284031   2.409  10.874   1.165  0.7702  3.6171  0.2146
25661SOL     OW84032   5.628   1.278   4.412  0.0998 -0.0526 -0.5424
25661SOL    HW184033   5.616   1.337   4.487  1.8813  0.2477 -0.4485
25661SOL    HW284034   5.653   1.195   4.451 -0.6562 -0.3868 -0.7523
25662SOL     OW84035  10.189   1.579  11.650 -0.2352  0.1365 -0.6334
25662SOL    HW184036  10.116   1.561  11.709  0.9045  0.2347  0.8662
25662SOL    HW284037  10.177   1.518  11.577 -0.2767 -1.8440  0.9605
25663SOL     OW84038   1.947   8.332  10.592 -0.4408  0.3093  0.4220
25663SOL    HW184039   2.040   8.346  10.580 -0.8560  1.5045 -2.0096
25663SOL    HW284040   1.929   8.362  10.681  1.7049 -1.4781  1.5365
25664SOL     OW84041   0.885  11.850   1.157 -0.0816 -0.4688 -0.0465
25664SOL    HW184042   0.879  11.755   1.150 -0.1944 -0.4273 -0.5744
25664SOL    HW284043   0.930  11.866   1.240 -1.7298 -0.9403  0.9901
25665SOL     OW84044  10.205   2.386  11.913  0.3243  0.0557  0.4081
25665SOL    HW184045  10.160   2.304  11.933  0.6022 -0.8648 -2.2799
25665SOL    HW284046  10.226   2.380  11.820  0.0477  3.3535 -0.0063
25666SOL     OW84047   2.022  10.742   9.952 -0.6711  0.2200  0.4606
25666SOL    HW184048   1.989  10.822   9.992 -0.6862 -0.1414  1.2003
25666SOL    HW284049   2.010  10.755   9.858 -0.3604  1.2133  0.5498
25667SOL     OW84050  11.272  10.709  11.179 -0.2136 -0.7667  0.3977
25667SOL    HW184051  11.340  10.764  11.216  0.2522 -0.7209 -0.4964
25667SOL    HW284052  11.217  10.769  11.128 -0.0483 -1.0363 -0.0991
25668SOL     OW84053   8.678   9.936   1.052  0.0163 -0.1726  0.0980
25668SOL    HW184054   8.688  10.023   1.011 -2.5972  0.9800  1.6252
25668SOL    HW284055   8.673   9.876   0.978  3.6919  0.6236 -0.9836
25669SOL     OW84056   1.432   9.605   6.334  0.2084 -0.4541 -0.5457
25669SOL    HW184057   1.394   9.554   6.406  1.4361 -1.7141 -0.7404
25669SOL    HW284058   1.409   9.696   6.354  1.4625 -0.6234  2.0602
25670SOL     OW84059  11.027  10.368   0.261 -0.5130 -0.3018 -0.3268
25670SOL    HW184060  10.970  10.386   0.336 -1.5007  0.4944 -1.2240
25670SOL    HW284061  11.091  10.305   0.293  0.5291  1.7279  1.8406
25671SOL     OW84062  11.019   9.847   4.619  0.0325 -0.2005  0.5062
25671SOL    HW184063  10.929   9.881   4.612  0.2758  0.3266 -0.2177
25671SOL    HW284064  11.012   9.772   4.678 -0.8218  0.0590  0.7499
25672SOL     OW84065   4.103   9.398   2.588 -0.4574  0.2799 -0.6053
25672SOL    HW184066   4.113   9.472   2.529 -1.7114 -0.8017 -2.2570
25672SOL    HW284067   4.092   9.437   2.675 -0.4194  1.9712 -1.3260
25673SOL     OW84068   3.755  11.545   5.430 -0.5934 -0.6161 -0.2016
25673SOL    HW184069   3.799  11.523   5.349  1.3969  0.9298  0.4043
25673SOL    HW284070   3.706  11.625   5.411 -1.0610 -0.8901 -0.1714
25674SOL     OW84071   0.613   4.718   1.491 -0.7625  0.5270 -0.5561
25674SOL    HW184072   0.686   4.758   1.538 -0.7231  0.5447 -0.6313
25674SOL    HW284073   0.647   4.701   1.403 -0.4574 -0.6161 -0.2296
25675SOL     OW84074   9.570   1.833   7.384 -0.2907  0.0386  0.1816
25675SOL    HW184075   9.488   1.879   7.404  0.2576  1.5933 -1.0015
25675SOL    HW284076   9.639   1.891   7.416  0.4256  0.0237 -1.2687
25676SOL     OW84077   3.664   2.993   2.214  0.0107  0.2333  0.3516
25676SOL    HW184078   3.646   3.052   2.287  0.2118  0.4400  0.2392
25676SOL    HW284079   3.755   3.014   2.190 -0.3331  0.7575 -0.4998
25677SOL     OW84080   6.308   7.168  10.425  0.4820  0.4431 -1.1038
25677SOL    HW184081   6.309   7.210  10.339  0.7563 -0.5495 -1.5997
25677SOL    HW284082   6.384   7.111  10.426  0.8793  0.9493  0.0794
25678SOL     OW84083  11.610  11.150   2.096 -0.1386 -0.4969  0.9013
25678SOL    HW184084  11.574  11.210   2.030 -0.5604  0.3027  1.8416
25678SOL    HW284085  11.534  11.115   2.141  0.1727  0.3024  2.1146
25679SOL     OW84086   2.269   3.407  11.180  0.4718 -0.1830 -0.2612
25679SOL    HW184087   2.224   3.475  11.230  0.3445 -0.7259  0.3738
25679SOL    HW284088   2.202   3.373  11.120  0.4345 -0.0017 -0.3227
25680SOL     OW84089   0.012  11.187   0.877 -0.0152  0.2084  0.5304
25680SOL    HW184090   0.090  11.138   0.849 -0.0756  1.4271 -2.0057
25680SOL    HW284091  -0.021  11.138   0.952  0.0711 -3.5165 -1.6385
25681SOL     OW84092  11.819   0.471   7.309 -0.3272 -0.5155  0.7231
25681SOL    HW184093  11.911   0.450   7.323  0.2410  0.5097 -1.1477
25681SOL    HW284094  11.801   0.443   7.219 -1.7098 -0.2448  0.8883
25682SOL     OW84095   2.790  12.236   2.827  0.2948 -0.5141 -0.0882
25682SOL    HW184096   2.808  12.320   2.785  1.0896 -0.1253  0.9707
25682SOL    HW284097   2.836  12.241   2.911 -2.2336 -0.7158  1.4354
25683SOL     OW84098   9.023  11.463   1.126  0.0438 -0.0314  0.3053
25683SOL    HW184099   8.954  11.443   1.063 -0.4589 -0.7239  1.0468
25683SOL    HW284100   8.976  11.500   1.201  0.5557  0.1196  0.5544
25684SOL     OW84101   3.278   9.084   7.111 -0.3992 -0.6011 -0.6714
25684SOL    HW184102   3.349   9.105   7.171 -0.6943 -0.6806 -0.2929
25684SOL    HW284103   3.305   9.123   7.027  1.6225 -3.3960 -1.4400
25685SOL     OW84104  10.373   3.862   2.815  0.0138  0.7187  0.5517
25685SOL    HW184105  10.300   3.923   2.824 -0.9100 -0.2875  0.2047
25685SOL    HW284106  10.398   3.842   2.905  0.3517  1.6195  0.6688
25686SOL     OW84107   7.614   6.667   8.409 -0.2211 -0.0713 -0.2466
25686SOL    HW184108   7.654   6.607   8.346 -0.5522  0.1539 -0.6806
25686SOL    HW284109   7.567   6.730   8.354 -0.2743  0.2962  0.2215
25687SOL     OW84110  10.423  11.930  11.318  0.8118 -0.1244  0.7607
25687SOL    HW184111  10.489  11.928  11.249  0.0554 -1.0306  0.0349
25687SOL    HW284112  10.470  11.901  11.397  1.7213  1.0897  0.6820
25688SOL     OW84113   1.802   4.671   8.393  0.2477 -0.0370  0.6328
25688SOL    HW184114   1.773   4.737   8.330  0.2496  0.0557  0.7279
25688SOL    HW284115   1.722   4.641   8.435  0.2889  0.2267  0.9036
25689SOL     OW84116  10.767   7.615   6.372  0.0016  0.3402 -0.6807
25689SOL    HW184117  10.801   7.526   6.385  0.7024  0.8514  1.4909
25689SOL    HW284118  10.843   7.671   6.385 -0.9109  1.3551  0.4562
25690SOL     OW84119   4.620   9.930   8.675  0.4721 -0.3229  0.1453
25690SOL    HW184120   4.531   9.962   8.689 -0.1847 -1.2764 -1.5743
25690SOL    HW284121   4.668  10.005   8.640 -0.1409 -0.2921 -0.6323
25691SOL     OW84122   1.836  10.298  12.408 -0.7691 -0.0524 -0.0795
25691SOL    HW184123   1.820  10.367  12.344 -2.0674  0.5897  0.8794
25691SOL    HW284124   1.751  10.285  12.451 -0.2951 -1.5120  0.4882
25692SOL     OW84125  12.588   7.014   1.667 -0.3761  0.0547  0.5845
25692SOL    HW184126  12.664   7.072   1.671 -0.3275 -0.0300  0.9118
25692SOL    HW284127  12.513   7.071   1.683 -0.2130 -0.2232  2.5997
25693SOL     OW84128   5.862   3.821   4.263 -0.3754  0.1840 -0.0258
25693SOL    HW184129   5.885   3.898   4.315 -0.5991  1.2821 -1.4948
25693SOL    HW284130   5.946   3.787   4.232 -0.2997  0.0017  0.3655
25694SOL     OW84131   7.977  11.729  11.885 -0.3085 -0.3202 -0.5096
25694SOL    HW184132   8.069  11.719  11.862  0.2326  2.0188  0.3241
25694SOL    HW284133   7.976  11.731  11.981 -1.1468  0.1784 -0.5151
25695SOL     OW84134   6.122   6.988  11.957  0.4011  0.0022 -0.1438
25695SOL    HW184135   6.104   6.910  11.904  0.1978 -0.5758  0.7549
25695SOL    HW284136   6.039   7.035  11.959 -0.2131 -1.0762  1.4175
25696SOL     OW84137   6.660   8.236   3.142  0.3354 -0.2839  0.3697
25696SOL    HW184138   6.642   8.147   3.112  1.3475 -0.4193  0.1533
25696SOL    HW284139   6.730   8.267   3.085  0.5605  0.3547  0.9891
25697SOL     OW84140   3.352   1.461  10.980 -0.2984  0.2427  0.7995
25697SOL    HW184141   3.393   1.542  11.010  0.8996 -0.1183  0.2057
25697SOL    HW284142   3.328   1.415  11.061  0.5075  0.4542  1.1685
25698SOL     OW84143   0.734   8.379   7.859 -0.2855  0.9508  0.3467
25698SOL    HW184144   0.806   8.440   7.878  1.2528 -0.4155 -0.8634
25698SOL    HW284145   0.670   8.432   7.810  0.9531  1.6462 -0.5739
25699SOL     OW84146   7.693   7.900   8.591 -0.1152 -0.7029 -0.1363
25699SOL    HW184147   7.656   7.828   8.641 -2.0360  0.8553  0.7817
25699SOL    HW284148   7.636   7.909   8.515  0.7205 -0.7963 -0.7897
25700SOL     OW84149  12.567   8.808   5.366 -0.1437  0.2237 -0.3008
25700SOL    HW184150  12.555   8.776   5.277  0.9568 -1.8525  0.2361
25700SOL    HW284151  12.582   8.729   5.418  3.2542  1.5967  1.0572
25701SOL     OW84152   5.470  12.575  12.223  0.4721 -0.1415 -0.1034
25701SOL    HW184153   5.408  12.571  12.297 -0.8964 -0.2981 -1.2162
25701SOL    HW284154   5.555  12.556  12.262 -0.2144 -0.2108  1.4386
25702SOL     OW84155   9.726   8.498   9.707  0.1407  0.1240 -0.1138
25702SOL    HW184156   9.763   8.551   9.637 -1.1613 -0.6841 -1.4841
25702SOL    HW284157   9.632   8.517   9.704 -0.2594 -1.6520 -0.1497
25703SOL     OW84158   9.378  10.781  11.497  0.2873 -0.1832 -0.4736
25703SOL    HW184159   9.428  10.794  11.577  1.2039 -2.0622 -0.6938
25703SOL    HW284160   9.435  10.815  11.427  0.0986  0.1442 -0.4701
25704SOL     OW84161   4.055  12.115   6.665 -0.0461  0.5619  0.2044
25704SOL    HW184162   4.027  12.124   6.574  0.2747  1.5319  0.1837
25704SOL    HW284163   4.066  12.021   6.678  2.3600  0.5169 -1.5273
25705SOL     OW84164  12.218   9.666   1.274 -0.2641 -0.6857 -0.4638
25705SOL    HW184165  12.269   9.699   1.347 -0.6354 -1.3766  0.1230
25705SOL    HW284166  12.283   9.642   1.208  0.0653  0.0765 -0.4280
25706SOL     OW84167  11.699   0.010   9.619 -0.0674  0.1315  0.8181
25706SOL    HW184168  11.766   0.075   9.596  0.5688 -0.3457  1.2897
25706SOL    HW284169  11.702   0.005   9.714  0.4095 -1.1162  0.7548
25707SOL     OW84170  11.880   5.767   2.829  0.4641  0.3759  0.2609
25707SOL    HW184171  11.808   5.798   2.883  0.5708  0.4108  0.3866
25707SOL    HW284172  11.959   5.794   2.877  0.5962 -1.8709  1.4618
25708SOL     OW84173   5.694   0.119   3.621 -0.2195 -0.3936  0.7347
25708SOL    HW184174   5.768   0.111   3.681 -0.9691 -0.9105  1.6380
25708SOL    HW284175   5.618   0.096   3.675 -1.0105 -0.0831 -0.2184
25709SOL     OW84176  10.001   5.310   0.695  0.4700 -0.6675  0.4069
25709SOL    HW184177  10.075   5.279   0.748  1.7622  0.4209 -0.6953
25709SOL    HW284178  10.027   5.290   0.605 -0.1806  0.5305 -0.0602
25710SOL     OW84179   9.823   5.956  10.260 -0.3859 -0.4801  0.4418
25710SOL    HW184180   9.756   6.012  10.299 -0.5758  1.1921 -2.0437
25710SOL    HW284181   9.775   5.902  10.197  0.2971 -0.9259  0.2941
25711SOL     OW84182   5.610   7.839   6.795  0.0911 -0.6933  0.3427
25711SOL    HW184183   5.599   7.934   6.800 -0.1612 -0.6624 -0.5497
25711SOL    HW284184   5.647   7.824   6.708  0.4645 -1.3906  0.6094
25712SOL     OW84185   4.516  12.461   6.620 -0.3348  0.0230  0.3599
25712SOL    HW184186   4.446  12.407   6.657 -0.4096 -1.0398 -1.2186
25712SOL    HW284187   4.546  12.412   6.543  2.1227  0.4617  0.9419
25713SOL     OW84188   6.653   8.749   4.875 -0.6371  0.0601 -0.0235
25713SOL    HW184189   6.573   8.705   4.904 -1.0503 -0.0019 -1.2364
25713SOL    HW284190   6.721   8.682   4.883 -0.7707 -0.0085  0.6128
25714SOL     OW84191   0.106  10.083   2.366  0.1597  0.0674 -0.0598
25714SOL    HW184192   0.140  10.123   2.446 -0.2549  0.5525 -0.1186
25714SOL    HW284193   0.174  10.097   2.301 -0.3503  1.4985 -0.3138
25715SOL     OW84194   0.826   3.626   6.491 -0.3626 -0.0619  0.6918
25715SOL    HW184195   0.891   3.620   6.422  0.0629 -2.0049  1.1905
25715SOL    HW284196   0.827   3.717   6.518  1.0090  0.2714 -0.3855
25716SOL     OW84197   7.245  12.254  12.106 -0.1295 -0.7339 -0.9430
25716SOL    HW184198   7.297  12.191  12.056  2.0820 -0.7552  1.1716
25716SOL    HW284199   7.287  12.339  12.087 -1.5476 -0.1934 -1.8521
25717SOL     OW84200   2.864   5.411   2.478  0.0583  0.1351  0.4990
25717SOL    HW184201   2.937   5.432   2.536  0.9806  0.3781 -0.6961
25717SOL    HW284202   2.797   5.477   2.498  0.8856  1.0336  0.3691
25718SOL     OW84203   9.150   6.255   3.330 -0.6022  0.1953 -0.3200
25718SOL    HW184204   9.148   6.177   3.274 -0.2509 -0.0926  0.0640
25718SOL    HW284205   9.062   6.293   3.321 -0.8084 -0.3006 -0.4297
25719SOL     OW84206   2.221   2.336   3.599  0.2089 -0.3297  0.1792
25719SOL    HW184207   2.262   2.290   3.672 -0.2681 -1.2932 -0.1429
25719SOL    HW284208   2.136   2.364   3.634  0.4572  0.2170  0.3437
25720SOL     OW84209   4.438  12.096   1.031 -0.4542 -0.4377 -0.1109
25720SOL    HW184210   4.481  12.085   0.946 -1.7751 -0.6602 -0.7713
25720SOL    HW284211   4.383  12.174   1.020  0.6539  0.5772  1.1125
25721SOL     OW84212   2.623   1.010   4.552 -0.2225 -0.0310 -0.2801
25721SOL    HW184213   2.583   0.923   4.556  0.2738 -0.2398  0.4785
25721SOL    HW284214   2.568   1.064   4.608 -1.1389  0.4184 -1.5738
25722SOL     OW84215   9.828   8.466  11.863 -0.1395  0.0868 -0.1762
25722SOL    HW184216   9.911   8.514  11.871  0.5616 -1.1839  0.5165
25722SOL    HW284217   9.762   8.525  11.899  0.2585  1.5900 -1.7972
25723SOL     OW84218   5.390   1.897   1.967  0.1289  0.2838  0.0593
25723SOL    HW184219   5.358   1.969   2.022 -0.0949  0.2709 -0.0505
25723SOL    HW284220   5.312   1.868   1.919  0.5218  1.0492 -1.1107
25724SOL     OW84221   2.839   8.670   5.968 -0.6801 -0.1227  0.3882
25724SOL    HW184222   2.848   8.580   6.000  0.6854  0.9273  3.3704
25724SOL    HW284223   2.888   8.671   5.886 -0.8542 -2.1254  0.2104
25725SOL     OW84224  10.399   0.233   4.066 -0.4601  0.6495 -0.2315
25725SOL    HW184225  10.442   0.316   4.088 -1.1264  0.4657  2.0004
25725SOL    HW284226  10.436   0.170   4.129 -1.4259 -0.2889 -0.5803
25726SOL     OW84227   8.958  10.105   7.794  0.0379 -0.0564 -0.3835
25726SOL    HW184228   9.025  10.043   7.823 -0.4579 -0.2590  0.3611
25726SOL    HW284229   8.953  10.169   7.864 -2.2658 -1.3982  0.7814
25727SOL     OW84230  11.280   8.933   5.517 -0.3795  0.2403 -0.3501
25727SOL    HW184231  11.218   8.866   5.489 -1.0807  1.3793 -1.6804
25727SOL    HW284232  11.236   9.016   5.495  1.6990  1.0968 -1.5687
25728SOL     OW84233   4.142   3.633   4.517  0.2022 -0.0491 -0.3086
25728SOL    HW184234   4.130   3.543   4.545  0.5901 -0.3441 -1.0650
25728SOL    HW284235   4.054   3.666   4.502  0.0638 -0.3384 -0.1270
25729SOL     OW84236   0.806   5.899   4.600 -0.4578  0.2349  0.0464
25729SOL    HW184237   0.898   5.889   4.625 -0.8119  2.5066  2.8689
25729SOL    HW284238   0.807   5.960   4.527  0.2931 -0.9189 -0.9462
25730SOL     OW84239   1.724   1.142   0.956  0.0275 -0.2148 -0.2586
25730SOL    HW184240   1.734   1.228   0.996  1.7692 -0.3035 -0.3986
25730SOL    HW284241   1.647   1.150   0.900 -0.0519  1.1307  0.0116
25731SOL     OW84242  10.839  10.189   7.745  0.4329  0.4792 -0.7803
25731SOL    HW184243  10.768  10.133   7.712  0.0909  0.0779  0.5768
25731SOL    HW284244  10.857  10.156   7.833  1.5231  1.3168 -0.6690
25732SOL     OW84245  10.949   2.672   9.681  0.2549 -1.2018 -0.0410
25732SOL    HW184246  10.908   2.733   9.742 -1.5830 -2.4308  0.0227
25732SOL    HW284247  10.969   2.595   9.734  1.5207 -1.1157 -0.3617
25733SOL     OW84248   7.202   2.318   0.148 -0.9138 -0.0701  0.5018
25733SOL    HW184249   7.132   2.373   0.113  1.2941  2.2102 -0.6750
25733SOL    HW284250   7.216   2.350   0.237  0.9452  2.1047 -0.4574
25734SOL     OW84251   3.671   6.506  10.691 -0.3399  0.0107 -0.5010
25734SOL    HW184252   3.716   6.591  10.687  0.5076 -0.2281  2.1061
25734SOL    HW284253   3.579   6.528  10.703 -0.4724  0.5169 -2.2037
25735SOL     OW84254   0.861   2.968   6.831 -0.8326  0.2288  0.3825
25735SOL    HW184255   0.900   3.053   6.851 -1.4263  0.5591  0.1664
25735SOL    HW284256   0.912   2.906   6.882 -1.8453  0.9543  2.4071
25736SOL     OW84257  11.830   3.662   8.611  0.2703 -0.2318  0.5677
25736SOL    HW184258  11.790   3.575   8.617 -0.3862 -0.2222 -2.3212
25736SOL    HW284259  11.795   3.699   8.530  1.6181  2.1953  1.0000
25737SOL     OW84260   9.131   8.988   9.906 -0.1863  0.2487  0.1950
25737SOL    HW184261   9.109   8.988   9.813 -0.3844 -0.3559  0.2397
25737SOL    HW284262   9.105   9.074   9.937  0.8955  0.8744 -0.5458
25738SOL     OW84263   0.339  12.354   9.839 -0.4884  0.0534 -0.0846
25738SOL    HW184264   0.355  12.377   9.747 -0.3225  1.5114  0.2906
25738SOL    HW284265   0.338  12.258   9.839  1.7588 -0.0505 -1.2457
25739SOL     OW84266  12.196   9.461   9.836 -0.0960  0.5131 -0.3743
25739SOL    HW184267  12.221   9.430   9.749  1.5430 -1.6696  0.7859
25739SOL    HW284268  12.250   9.539   9.850 -0.7052  1.1623 -1.4385
25740SOL     OW84269  10.732   6.602   3.667 -0.8701  0.4740  0.2243
25740SOL    HW184270  10.747   6.690   3.632 -0.6018  0.5384  0.5002
25740SOL    HW284271  10.646   6.607   3.710 -0.5428  0.7944  0.8531
25741SOL     OW84272   7.079   6.302   9.246 -0.3349 -0.2163 -0.2841
25741SOL    HW184273   6.999   6.253   9.264  0.3389 -1.0549  0.5531
25741SOL    HW284274   7.058   6.357   9.171 -2.0077  0.3303  0.5414
25742SOL     OW84275   7.708   6.030  10.806  0.3558  0.0403 -0.0387
25742SOL    HW184276   7.649   6.070  10.742  0.1449 -0.7291 -0.3392
25742SOL    HW284277   7.711   6.092  10.879 -0.6440  0.1935 -0.1183
25743SOL     OW84278   6.450   4.507   4.538 -0.3978  0.4739  0.0409
25743SOL    HW184279   6.515   4.469   4.480 -0.5446  0.7689 -0.3204
25743SOL    HW284280   6.396   4.562   4.481 -0.6785  0.5903  0.4158
25744SOL     OW84281   9.165   9.976  10.054 -0.3659 -0.1941 -0.2088
25744SOL    HW184282   9.133  10.065  10.064 -0.2913 -0.1177 -0.6102
25744SOL    HW284283   9.260   9.985  10.047 -0.3103 -0.3586  0.3114
25745SOL     OW84284  11.292   4.713   2.084  0.1324  0.3162  0.0709
25745SOL    HW184285  11.259   4.653   2.151 -0.5306  1.3777  0.7232
25745SOL    HW284286  11.265   4.673   2.001 -1.2527  0.2386  0.5321
25746SOL     OW84287   6.973   4.957   2.401 -0.2665  0.3105  0.2907
25746SOL    HW184288   6.918   4.914   2.467  0.1601  0.2280  0.5976
25746SOL    HW284289   7.058   4.965   2.443 -0.3020  1.3422  0.1897
25747SOL     OW84290   7.535   0.601   1.608  0.2061  0.3511 -0.3278
25747SOL    HW184291   7.507   0.639   1.525 -0.6109  1.6124  0.4925
25747SOL    HW284292   7.617   0.556   1.588 -0.9359 -1.0172 -2.2206
25748SOL     OW84293   8.534   7.494   6.241 -0.6299 -0.5197 -0.1673
25748SOL    HW184294   8.588   7.457   6.310  1.6748  0.5886 -1.2882
25748SOL    HW284295   8.587   7.489   6.162 -1.7371  1.5433 -1.1417
25749SOL     OW84296   3.642   8.890   4.670  0.2395  0.1461 -0.2106
25749SOL    HW184297   3.599   8.902   4.755 -1.1710 -0.5379 -0.7845
25749SOL    HW284298   3.591   8.821   4.627  0.0820  1.3829 -2.1393
25750SOL     OW84299  11.019   5.534   7.444 -0.5964  0.0971 -0.3406
25750SOL    HW184300  10.937   5.574   7.416 -2.4272 -3.6333 -0.8820
25750SOL    HW284301  10.999   5.441   7.454  3.3093 -0.8403  0.6330
25751SOL     OW84302   4.169   0.187   0.105  0.0421  0.0603 -0.6277
25751SOL    HW184303   4.164   0.115   0.167  0.7835  0.1263 -0.4841
25751SOL    HW284304   4.100   0.247   0.132  0.0045 -0.1734 -0.1999
25752SOL     OW84305  10.684   5.238   7.706 -0.1839  0.6126 -0.4580
25752SOL    HW184306  10.655   5.311   7.651 -1.1924  0.4368 -0.1747
25752SOL    HW284307  10.673   5.160   7.651  0.0341  0.5744 -0.4481
25753SOL     OW84308   8.970   1.324   2.361 -0.4693  0.1915  0.0467
25753SOL    HW184309   8.889   1.320   2.412 -0.3041 -0.8426  0.2631
25753SOL    HW284310   8.949   1.279   2.280  0.1914 -1.1528  0.5803
25754SOL     OW84311   8.530  11.716   1.040 -0.1850 -0.0475  0.0661
25754SOL    HW184312   8.552  11.623   1.044  2.9513  0.4771 -1.7038
25754SOL    HW284313   8.463  11.722   0.972 -2.6747 -1.2091  2.2363
25755SOL     OW84314   6.397   5.110   1.657 -0.3021 -0.3282 -0.0055
25755SOL    HW184315   6.429   5.023   1.682 -1.5229 -0.3889  1.4676
25755SOL    HW284316   6.394   5.159   1.740  1.6113  1.5905 -0.9566
25756SOL     OW84317   6.879   1.883   5.964  0.1214 -0.5801  0.1293
25756SOL    HW184318   6.878   1.977   5.945  1.2018 -0.5859  0.0027
25756SOL    HW284319   6.881   1.841   5.879 -1.7926 -0.7826  0.1358
25757SOL     OW84320  10.374   5.892   1.206  0.1260 -0.5388 -0.3539
25757SOL    HW184321  10.344   5.818   1.258 -1.0147  0.6441  0.7365
25757SOL    HW284322  10.465   5.871   1.184  0.5281 -1.2790  1.7732
25758SOL     OW84323   6.231   4.925  10.305 -0.2249 -0.0595 -0.0459
25758SOL    HW184324   6.176   4.997  10.276 -0.0733  0.1350  0.1445
25758SOL    HW284325   6.296   4.913  10.236 -0.4810 -0.2632 -0.2522
25759SOL     OW84326   1.223   6.302  10.466  0.5052  0.5327 -0.2884
25759SOL    HW184327   1.232   6.240  10.393  0.8286 -1.5997  1.4647
25759SOL    HW284328   1.305   6.351  10.465  1.3179 -0.7584 -0.2727
25760SOL     OW84329   9.695   4.347   7.277  0.5706  0.1962 -0.9983
25760SOL    HW184330   9.622   4.311   7.328  1.1022 -0.9309 -1.0017
25760SOL    HW284331   9.653   4.385   7.199 -0.1550  1.0895 -0.1968
25761SOL     OW84332  11.660   7.133   9.882 -0.2753  0.6181 -0.4673
25761SOL    HW184333  11.734   7.073   9.891  1.5929  2.8729 -0.1298
25761SOL    HW284334  11.652   7.175   9.967 -1.4652  0.9743 -0.7289
25762SOL     OW84335  10.672   7.944   6.913  0.1112  0.0394 -0.0500
25762SOL    HW184336  10.594   7.894   6.893  0.5282 -0.5212 -0.3073
25762SOL    HW284337  10.650   7.994   6.992 -1.1849  1.4400 -1.2433
25763SOL     OW84338  12.119   2.553  12.101 -0.0089 -0.2045 -0.2389
25763SOL    HW184339  12.074   2.525  12.021 -1.4719 -1.8068  1.0676
25763SOL    HW284340  12.060   2.617  12.141 -0.8632 -1.7434  1.0923
25764SOL     OW84341   5.953   4.344   2.458 -0.2100 -0.4727 -0.1985
25764SOL    HW184342   5.883   4.391   2.503 -0.8180 -0.3158 -1.2850
25764SOL    HW284343   5.961   4.262   2.506  0.0326  0.2090  0.9695
25765SOL     OW84344   6.562   7.496   6.146 -0.2313 -0.0852  0.2855
25765SOL    HW184345   6.562   7.582   6.103 -0.6135 -0.7774 -1.1496
25765SOL    HW284346   6.609   7.511   6.228  0.5612  1.2848 -0.3677
25766SOL     OW84347   0.591   6.620   2.089 -0.2062 -0.2863 -0.1282
25766SOL    HW184348   0.614   6.543   2.038 -0.4764 -0.2386 -0.3244
25766SOL    HW284349   0.530   6.669   2.033 -0.4506 -0.2006  0.2088
25767SOL     OW84350  10.406   8.356   4.830  0.0959  0.6638 -0.1524
25767SOL    HW184351  10.384   8.436   4.877  0.0594 -0.3504  1.6346
25767SOL    HW284352  10.362   8.287   4.878  2.6225 -0.8013  0.2592
25768SOL     OW84353   5.954   4.614   3.591 -0.8182  0.7909  0.2789
25768SOL    HW184354   5.871   4.594   3.633  0.0868 -3.2917  0.5583
25768SOL    HW284355   6.020   4.591   3.656  0.5313  0.2059 -1.2230
25769SOL     OW84356   1.673   3.113   2.842 -0.3275  0.1684  0.1690
25769SOL    HW184357   1.666   3.173   2.768  2.1703 -0.5301 -0.7118
25769SOL    HW284358   1.649   3.166   2.918  2.2241  2.5134 -0.4932
25770SOL     OW84359   4.092   5.815   3.094 -0.0891  0.8252 -0.4187
25770SOL    HW184360   4.065   5.885   3.153  0.8277  0.9348 -0.1160
25770SOL    HW284361   4.186   5.806   3.108  0.0128  0.3258 -1.3017
25771SOL     OW84362  10.323   6.125   1.471 -0.3794 -0.3739 -0.3435
25771SOL    HW184363  10.263   6.122   1.396 -0.5562 -0.9008 -0.1822
25771SOL    HW284364  10.356   6.036   1.479  0.4653 -0.0828 -0.4554
25772SOL     OW84365   1.450   7.942  12.435  0.0521 -0.4685  0.2131
25772SOL    HW184366   1.545   7.948  12.432  0.0098  0.7449  0.7103
25772SOL    HW284367   1.420   8.018  12.386 -0.6828 -1.6239 -1.1902
25773SOL     OW84368   2.243   7.600   2.599  0.1826  0.1358 -0.4171
25773SOL    HW184369   2.183   7.631   2.531  1.6550 -0.1605 -1.9015
25773SOL    HW284370   2.240   7.505   2.593  0.3436  0.1066 -0.0706
25774SOL     OW84371  11.623   8.582   1.446 -0.4199  0.1948  0.0733
25774SOL    HW184372  11.545   8.589   1.391 -2.4027  1.5441  2.8450
25774SOL    HW284373  11.641   8.672   1.473 -0.8253 -0.5604  3.2243
25775SOL     OW84374   8.424   7.819   5.270  0.4246  0.1583  0.3216
25775SOL    HW184375   8.489   7.753   5.295 -0.6159 -0.7642  0.6521
25775SOL    HW284376   8.444   7.895   5.325  0.9074 -0.2946  0.7778
25776SOL     OW84377   5.526  11.394   9.440 -0.0956  0.2962  0.3479
25776SOL    HW184378   5.497  11.333   9.372 -1.9130  1.4561  0.0072
25776SOL    HW284379   5.618  11.374   9.453  0.1449 -0.3670 -2.0218
25777SOL     OW84380   5.293  11.297   2.591 -0.4245 -0.4688 -0.0579
25777SOL    HW184381   5.349  11.370   2.567 -2.1460  1.0026  0.2375
25777SOL    HW284382   5.285  11.246   2.510  0.6138 -0.2364 -0.3268
25778SOL     OW84383  11.203   2.422   6.311  0.1062  0.0702 -0.5400
25778SOL    HW184384  11.126   2.371   6.285 -0.5515  0.8213 -0.1040
25778SOL    HW284385  11.227   2.470   6.231  0.3100 -0.3778 -0.7562
25779SOL     OW84386   4.641   6.237  10.968 -0.0491  0.2094  0.7976
25779SOL    HW184387   4.626   6.207  10.879  1.0547 -0.2201  0.7333
25779SOL    HW284388   4.694   6.316  10.958  1.5102 -0.7441  1.0761
25780SOL     OW84389   0.186   0.975   2.890  0.0615 -0.0888  0.5397
25780SOL    HW184390   0.141   0.970   2.975  0.4148 -0.2013  0.7214
25780SOL    HW284391   0.267   0.926   2.903  0.9585  1.3945  0.6584
25781SOL     OW84392  12.576   4.827  10.081  0.3646  0.3894 -0.4244
25781SOL    HW184393  12.544   4.744  10.116  0.5230  1.1114  1.6353
25781SOL    HW284394  12.498   4.869  10.045 -0.1602  0.2378  0.4971
25782SOL     OW84395   1.221   8.201  10.371  0.0278 -0.0249 -0.3799
25782SOL    HW184396   1.150   8.160  10.420 -0.6866  2.1672  0.5650
25782SOL    HW284397   1.188   8.206  10.281 -0.4913 -0.1958 -0.2050
25783SOL     OW84398   1.102   4.430   8.242  0.0698  0.1018 -0.5151
25783SOL    HW184399   1.181   4.483   8.227  0.1309  0.1837  0.0990
25783SOL    HW284400   1.034   4.493   8.265  0.1563 -0.0938  0.2764
25784SOL     OW84401   8.822   1.197   8.201  0.2523  0.0966 -0.0840
25784SOL    HW184402   8.744   1.225   8.249 -0.6840 -2.5895  0.1362
25784SOL    HW284403   8.870   1.143   8.264  1.3703  0.2355 -0.7929
25785SOL     OW84404   7.220  10.936   1.901  0.4840  0.6048 -0.5136
25785SOL    HW184405   7.270  10.854   1.902  1.5140  1.2241  0.0081
25785SOL    HW284406   7.128  10.908   1.908  0.8959 -0.4705  1.4155
25786SOL     OW84407   8.333   2.125   1.741  0.0510  0.2707 -0.5114
25786SOL    HW184408   8.259   2.074   1.774  0.4650  0.1041  0.1834
25786SOL    HW284409   8.314   2.215   1.767  0.4138  0.1289  0.2743
25787SOL     OW84410   1.217   2.574   7.325  0.1413 -0.4373 -0.1484
25787SOL    HW184411   1.235   2.588   7.418 -1.7414  1.0625  0.0373
25787SOL    HW284412   1.147   2.510   7.323 -0.6281  0.3979 -0.4698
25788SOL     OW84413   8.068   8.431   3.968 -0.1305 -0.0640 -0.4727
25788SOL    HW184414   8.081   8.445   4.062 -3.2645 -0.8224  0.2170
25788SOL    HW284415   8.091   8.515   3.928  1.4146  0.2237  0.9097
25789SOL     OW84416  10.785  11.787   3.871  0.2522  0.3207  0.4254
25789SOL    HW184417  10.733  11.861   3.903  0.0904  0.0140  0.8785
25789SOL    HW284418  10.870  11.797   3.914  0.4441  0.5971 -0.0062
25790SOL     OW84419   0.281   9.984   3.024 -0.4645  0.4666 -0.4668
25790SOL    HW184420   0.298   9.892   3.043 -0.6702  0.6351  0.5726
25790SOL    HW284421   0.335  10.033   3.086 -2.2894  1.0200  0.7896
25791SOL     OW84422   0.203   4.689   6.400  1.0167 -0.0137  0.1729
25791SOL    HW184423   0.284   4.711   6.354  1.0491 -0.6985 -0.1076
25791SOL    HW284424   0.136   4.690   6.332  0.6182  1.4043  0.5510
25792SOL     OW84425   3.252   2.318   5.651 -0.0022 -0.4590 -0.4643
25792SOL    HW184426   3.265   2.381   5.723  1.1103 -0.7219 -0.4094
25792SOL    HW284427   3.225   2.372   5.577  0.6047  0.0605 -0.3238
25793SOL     OW84428   2.735  11.955  12.565  0.0690  0.6805  0.7510
25793SOL    HW184429   2.791  12.019  12.521  0.9348  0.2878  1.2627
25793SOL    HW284430   2.650  11.998  12.570 -0.3910  0.3190 -2.2767
25794SOL     OW84431  11.068   3.148   4.066  0.3917  0.1966 -0.1455
25794SOL    HW184432  11.126   3.074   4.085  0.8543  0.4651 -0.4777
25794SOL    HW284433  10.980   3.111   4.068  0.6923 -0.6786 -1.6720
25795SOL     OW84434   9.575   4.271  10.333 -0.1571 -0.0001 -0.3970
25795SOL    HW184435   9.500   4.296  10.279  0.2734  0.2056 -0.9079
25795SOL    HW284436   9.602   4.353  10.375 -1.2079 -0.3626  1.0715
25796SOL     OW84437   5.994   1.464   1.391  0.2295 -0.0383 -0.2113
25796SOL    HW184438   5.963   1.377   1.365 -1.9245  0.6695 -0.1811
25796SOL    HW284439   5.967   1.473   1.482  0.7695  0.5476 -0.0989
25797SOL     OW84440   0.810   9.331   3.996 -0.0384 -0.3772 -0.0543
25797SOL    HW184441   0.828   9.413   3.949  2.0352 -0.0835  1.1327
25797SOL    HW284442   0.788   9.269   3.927 -0.7914  0.9426 -1.0668
25798SOL     OW84443   6.001   7.232  12.206  0.3279 -0.1451  0.2640
25798SOL    HW184444   5.977   7.319  12.174 -0.5415 -0.1792  0.7866
25798SOL    HW284445   5.917   7.190  12.227  0.6875 -1.3506 -0.5713
25799SOL     OW84446   9.736   5.042  10.375 -0.1512  0.2657 -0.1188
25799SOL    HW184447   9.766   4.951  10.380  1.8165  0.9043  1.2854
25799SOL    HW284448   9.717   5.066  10.466 -0.4647  1.2998 -0.4433
25800SOL     OW84449  11.657  10.535   6.948  0.0425  0.0797  0.6354
25800SOL    HW184450  11.646  10.597   6.875  1.1085  0.1314  0.5099
25800SOL    HW284451  11.628  10.451   6.912 -1.2459  0.4408  0.7508
25801SOL     OW84452   2.257   1.581   6.860  0.2398  0.1191  0.0781
25801SOL    HW184453   2.321   1.625   6.804 -0.1823  0.8615  0.1612
25801SOL    HW284454   2.307   1.554   6.937  0.8032 -0.8206 -0.6004
25802SOL     OW84455   7.573   4.099   1.388  0.1479 -0.2568  0.2035
25802SOL    HW184456   7.658   4.096   1.431  1.1165 -0.4645 -1.6096
25802SOL    HW284457   7.577   4.176   1.331 -0.4932 -0.7963 -0.6087
25803SOL     OW84458   4.383   0.278   2.548  0.4941  0.1593  0.4289
25803SOL    HW184459   4.474   0.288   2.521  0.4594 -2.7239 -1.1996
25803SOL    HW284460   4.348   0.367   2.549  3.0299  1.2408  0.0847
25804SOL     OW84461   3.428   7.941  11.376 -0.3540 -0.0280  0.3367
25804SOL    HW184462   3.475   8.006  11.428  0.3810 -0.3525  0.0995
25804SOL    HW284463   3.336   7.957  11.395 -0.1163 -0.0169  1.5833
25805SOL     OW84464   2.441  10.144  12.281 -0.1957 -0.3476 -0.1716
25805SOL    HW184465   2.436  10.162  12.187  0.9711 -0.5207 -0.2872
25805SOL    HW284466   2.500  10.211  12.315 -0.4184 -0.4353  0.3980
25806SOL     OW84467  12.050   1.900   3.373  0.2382  0.1533  0.5276
25806SOL    HW184468  12.045   1.957   3.450  1.4486  3.2899 -1.4695
25806SOL    HW284469  12.141   1.871   3.371  0.4486  0.8154 -0.1244
25807SOL     OW84470   5.767   4.786   4.686 -0.0641 -0.4355  0.4762
25807SOL    HW184471   5.789   4.748   4.771 -0.8803 -0.0169  0.8924
25807SOL    HW284472   5.726   4.870   4.708 -2.0936 -1.1809 -0.2213
25808SOL     OW84473   9.428   2.987   2.505  0.0406 -0.2163  0.1140
25808SOL    HW184474   9.440   2.892   2.506 -1.4365 -0.4302  1.6286
25808SOL    HW284475   9.509   3.021   2.544  0.6006 -0.8421 -0.4754
25809SOL     OW84476   5.193   3.845   3.763 -0.0249 -0.2445  0.0365
25809SOL    HW184477   5.227   3.931   3.786 -1.8409  0.0071  2.0921
25809SOL    HW284478   5.127   3.862   3.696 -3.0620  0.5742  2.9838
25810SOL     OW84479   1.282   2.511   1.549 -0.2352  0.4038 -0.1540
25810SOL    HW184480   1.273   2.427   1.593 -0.2943  0.5412  0.0981
25810SOL    HW284481   1.196   2.553   1.559 -0.0758  0.6750  0.0963
25811SOL     OW84482   0.016   4.804  11.466 -0.2938 -0.3415 -0.4636
25811SOL    HW184483   0.040   4.711  11.466  2.3267  0.2568  0.3894
25811SOL    HW284484   0.030   4.833  11.556 -2.6339  0.5715 -0.3335
25812SOL     OW84485   0.975   6.637   6.582  0.1155  0.3482  0.1609
25812SOL    HW184486   1.011   6.680   6.660  3.0876 -2.0378  0.3068
25812SOL    HW284487   0.892   6.599   6.612 -0.3029  2.0085  1.2419
25813SOL     OW84488   0.490   2.699   1.957 -0.4015  0.1255  0.2535
25813SOL    HW184489   0.504   2.793   1.943 -1.1764  0.1376 -0.4899
25813SOL    HW284490   0.567   2.658   1.917 -0.4988  0.3956 -0.2221
25814SOL     OW84491  11.033   0.493  11.258 -0.0380  0.0400  0.2637
25814SOL    HW184492  11.117   0.461  11.291 -0.4090 -0.6235  0.5908
25814SOL    HW284493  10.998   0.420  11.207 -0.0811  0.5784 -0.4893
25815SOL     OW84494   9.154  12.381   1.782  0.0358 -0.1558 -0.6333
25815SOL    HW184495   9.205  12.451   1.821 -1.3343  1.3042 -1.3186
25815SOL    HW284496   9.218  12.314   1.759  1.2826  0.4711  0.8535
25816SOL     OW84497   4.929   8.651   8.129 -0.1448 -0.4698  0.6284
25816SOL    HW184498   4.989   8.579   8.108  0.7377  0.2825  0.4752
25816SOL    HW284499   4.853   8.608   8.169 -0.8334 -1.7448 -1.8438
25817SOL     OW84500   2.465  10.968   2.468 -0.3501 -0.1286  0.1803
25817SOL    HW184501   2.394  11.009   2.518 -1.7640 -1.8982 -0.2918
25817SOL    HW284502   2.511  10.914   2.533 -1.3808 -1.3996 -0.1065
25818SOL     OW84503   1.167   4.778   5.670  0.3868  0.7622  0.0513
25818SOL    HW184504   1.241   4.830   5.703  0.1868  0.8123  0.4211
25818SOL    HW284505   1.157   4.807   5.579  0.3867  1.2565  0.2025
25819SOL     OW84506   5.559  12.096  11.427  0.2469 -0.1045  0.1107
25819SOL    HW184507   5.583  12.171  11.372  0.0376  0.6342  1.0159
25819SOL    HW284508   5.604  12.022  11.386  1.2490  0.6680 -0.2359
25820SOL     OW84509  10.922   8.948   4.400 -0.3123  0.3342 -0.1478
25820SOL    HW184510  10.981   8.914   4.468  0.1487  0.3215 -0.5488
25820SOL    HW284511  10.837   8.953   4.443  0.3068  2.0445  1.0046
25821SOL     OW84512   2.234   0.566   2.079  0.6918  0.1910  0.2194
25821SOL    HW184513   2.267   0.576   1.990 -0.8402  0.5962 -0.3322
25821SOL    HW284514   2.312   0.565   2.134  1.7267 -1.1305 -1.2086
25822SOL     OW84515   2.998   6.780   4.987  0.1947 -0.0290 -0.0570
25822SOL    HW184516   3.089   6.758   5.008 -0.3114 -1.4371  0.8579
25822SOL    HW284517   2.962   6.811   5.070 -0.4897 -0.7345 -0.0775
25823SOL     OW84518  10.151   0.832   1.160  0.2249  0.0068 -0.2853
25823SOL    HW184519  10.092   0.897   1.122 -1.5449 -1.7901 -0.7372
25823SOL    HW284520  10.238   0.874   1.155 -0.9089  2.6266  0.2037
25824SOL     OW84521   1.944   1.976  11.198  0.2636  0.3344 -0.7634
25824SOL    HW184522   1.852   1.983  11.175  0.7666  2.4687 -2.3999
25824SOL    HW284523   1.947   1.997  11.292 -1.1186 -2.3547 -0.0096
25825SOL     OW84524  10.796   9.751   7.078  0.1630 -0.0119 -0.0206
25825SOL    HW184525  10.829   9.715   6.996  0.2754 -1.5492  0.6635
25825SOL    HW284526  10.861   9.725   7.143 -1.5998 -1.8071  1.1156
25826SOL     OW84527  11.507  11.835   4.149  0.0169  0.3380  0.0886
25826SOL    HW184528  11.594  11.807   4.123 -0.2723  1.5891 -2.4838
25826SOL    HW284529  11.515  11.853   4.243  2.4250  0.1539 -0.0249
25827SOL     OW84530   8.927   2.253  12.475 -0.5042  0.4131 -0.3847
25827SOL    HW184531   8.993   2.186  12.490  0.6708  1.8044  1.0381
25827SOL    HW284532   8.968   2.314  12.413 -0.0826  1.6797  1.0725
25828SOL     OW84533   8.064   2.319   3.651 -0.4291  0.0270 -0.0563
25828SOL    HW184534   8.126   2.253   3.682 -0.9176 -1.1041 -1.3739
25828SOL    HW284535   7.979   2.288   3.680 -0.6729  0.0055 -0.7721
25829SOL     OW84536   9.467   3.170   7.798 -0.4349  0.7374  0.2943
25829SOL    HW184537   9.388   3.126   7.830 -0.5685  0.5503 -0.2775
25829SOL    HW284538   9.491   3.122   7.719 -1.1137  2.2173 -0.8830
25830SOL     OW84539   4.516   9.895   7.828 -0.0156 -0.4910 -0.6401
25830SOL    HW184540   4.563   9.823   7.870  1.3429  0.2750 -0.7726
25830SOL    HW284541   4.524   9.967   7.890 -0.0156 -0.0250 -1.1748
25831SOL     OW84542   3.130   9.497   4.509 -0.1880  0.0025 -0.4030
25831SOL    HW184543   3.124   9.585   4.544 -0.5547 -0.5738  1.0530
25831SOL    HW284544   3.156   9.509   4.418  0.8250  1.5658  0.0499
25832SOL     OW84545   5.419   1.566   1.817  0.2037  0.0798 -0.0250
25832SOL    HW184546   5.460   1.485   1.786  1.1427  0.4295  0.2743
25832SOL    HW284547   5.332   1.539   1.846  0.1760 -0.6624 -0.7558
25833SOL     OW84548   0.916   2.714  11.803  0.2565  0.6327 -0.3224
25833SOL    HW184549   0.861   2.787  11.830 -2.4122 -2.0062  2.0347
25833SOL    HW284550   0.986   2.710  11.868  0.5133  1.1391 -0.5608
25834SOL     OW84551   3.664   3.565  11.542 -0.0782 -0.1031  0.6310
25834SOL    HW184552   3.599   3.565  11.612 -0.5864  1.6546  0.2151
25834SOL    HW284553   3.623   3.613  11.470  1.1025 -0.3004 -0.2223
25835SOL     OW84554  10.399   9.650  11.336 -0.1654  0.0003 -0.0803
25835SOL    HW184555  10.330   9.609  11.388 -0.9882  0.0189 -1.1296
25835SOL    HW284556  10.353   9.695  11.266  0.9060  0.1366 -0.7201
25836SOL     OW84557   8.890   7.857   3.295  0.6091  0.1910 -0.0416
25836SOL    HW184558   8.823   7.900   3.242  0.2730  0.0411  0.2597
25836SOL    HW284559   8.950   7.928   3.319  1.5103  0.0338 -1.7220
25837SOL     OW84560   9.045   6.002   2.724 -0.2947  0.3591  0.1046
25837SOL    HW184561   9.048   5.918   2.771 -1.2412  0.4645  0.3626
25837SOL    HW284562   9.011   6.064   2.788 -1.4600  0.5370 -0.6665
25838SOL     OW84563   7.124   0.448  11.375 -0.8256  0.1802  0.6886
25838SOL    HW184564   7.092   0.518  11.318 -1.9112  1.0121  2.2521
25838SOL    HW284565   7.142   0.492  11.458  0.5666 -1.0264  1.0592
25839SOL     OW84566   5.868  12.136   8.349  0.4241 -0.3822 -0.3345
25839SOL    HW184567   5.918  12.055   8.358  1.5265  0.3661  0.5566
25839SOL    HW284568   5.922  12.203   8.390 -0.9983  0.6018  0.0351
25840SOL     OW84569   6.032  12.253   2.284  0.1886 -0.0671  0.4287
25840SOL    HW184570   5.956  12.195   2.289  0.5939 -0.5774  0.9149
25840SOL    HW284571   6.030  12.289   2.195 -0.3753 -0.4071  0.3009
25841SOL     OW84572  10.664   8.644   4.375  0.5333 -0.6305 -0.1633
25841SOL    HW184573  10.614   8.565   4.396  0.3958 -1.1003 -2.0235
25841SOL    HW284574  10.752   8.613   4.357  1.0037 -0.0710  1.0901
25842SOL     OW84575  11.774   6.989   6.123  0.2448  0.0358  0.4727
25842SOL    HW184576  11.720   6.949   6.054 -1.0445 -0.1817  1.5598
25842SOL    HW284577  11.780   6.921   6.190  0.5152  0.6352  1.0609
25843SOL     OW84578   4.098   0.602   3.429  0.6854 -0.0774 -0.3537
25843SOL    HW184579   4.145   0.536   3.378 -0.7934 -1.1573 -0.3817
25843SOL    HW284580   4.063   0.662   3.363  1.7935  0.6079 -0.3459
25844SOL     OW84581   4.755   8.307  12.375 -0.3845 -0.0399  0.6161
25844SOL    HW184582   4.729   8.399  12.362  0.3061  0.1388  0.4370
25844SOL    HW284583   4.677   8.265  12.413 -0.2289  0.9600  2.1222
25845SOL     OW84584   7.198   6.070  10.806  0.1015 -0.6982  0.2680
25845SOL    HW184585   7.103   6.073  10.789  0.2660 -0.8539 -0.7695
25845SOL    HW284586   7.205   6.053  10.900 -0.8929  0.7775  0.6367
25846SOL     OW84587   5.004   8.510   9.537  0.0534  0.0643 -0.6469
25846SOL    HW184588   4.977   8.452   9.466  0.1756  1.7260 -2.1199
25846SOL    HW284589   4.921   8.536   9.579 -0.0388 -0.6972 -0.3391
25847SOL     OW84590   2.627   6.484  11.541  0.2737 -0.2940 -0.2917
25847SOL    HW184591   2.607   6.527  11.624 -0.3785 -0.5928 -0.2847
25847SOL    HW284592   2.567   6.409  11.538  0.4402 -0.4080 -0.9299
25848SOL     OW84593   2.061  10.592  12.230 -0.3338  0.1248  0.1532
25848SOL    HW184594   1.968  10.586  12.251  0.1971 -1.7140  2.4339
25848SOL    HW284595   2.095  10.657  12.291 -0.2618  1.7781 -1.5521
25849SOL     OW84596   9.418   3.390   3.999  0.4823  0.1389 -0.6277
25849SOL    HW184597   9.412   3.294   3.996 -0.5675  0.0419  2.0299
25849SOL    HW284598   9.367   3.419   3.923 -1.3293 -1.4087 -0.0881
25850SOL     OW84599   8.629   4.700   1.078 -0.2894 -0.0407  0.6308
25850SOL    HW184600   8.651   4.629   1.138  1.1842  0.0650  0.2641
25850SOL    HW284601   8.562   4.664   1.020 -1.9329 -0.0659  2.4512
25851SOL     OW84602  12.088   3.549   8.282  0.8846  0.0405 -0.3517
25851SOL    HW184603  12.092   3.515   8.371  2.4234 -0.5034 -0.5982
25851SOL    HW284604  12.007   3.513   8.246  0.1375  0.4396  0.8777
25852SOL     OW84605   3.399   7.195   7.771 -0.0885  0.1485  0.5052
25852SOL    HW184606   3.473   7.151   7.813  0.2583  0.4421  0.2123
25852SOL    HW284607   3.399   7.283   7.808  0.7777  0.7040 -0.7392
25853SOL     OW84608   3.881   3.758   8.147  0.6546  0.0134  0.3089
25853SOL    HW184609   3.933   3.742   8.226  1.2128 -0.1557 -0.0861
25853SOL    HW284610   3.791   3.739   8.173  0.9121 -0.6540  0.7402
25854SOL     OW84611   7.886   3.376   4.755  0.3874 -0.0020 -0.8949
25854SOL    HW184612   7.955   3.340   4.698  0.3862 -0.2755 -0.7259
25854SOL    HW284613   7.809   3.324   4.734  0.0934  0.6454 -1.4580
25855SOL     OW84614  11.714  11.716   4.682  0.4939 -0.0182 -0.0112
25855SOL    HW184615  11.680  11.805   4.682 -0.5465 -0.4038 -0.4826
25855SOL    HW284616  11.662  11.670   4.748 -0.6560 -0.8815 -1.4756
25856SOL     OW84617   3.808   3.794   7.263 -0.9028  0.2331  0.1227
25856SOL    HW184618   3.733   3.762   7.213 -1.1321  0.8295  0.0727
25856SOL    HW284619   3.884   3.758   7.218 -1.1508 -0.2476  0.0815
25857SOL     OW84620  11.347   0.935  10.481 -0.1146  0.2770  0.5968
25857SOL    HW184621  11.268   0.932  10.427  0.5311  0.0295 -0.3684
25857SOL    HW284622  11.382   0.846  10.478  0.1175  0.3453  1.1458
25858SOL     OW84623   3.716   4.432   5.784  0.4617  0.5531 -0.2467
25858SOL    HW184624   3.800   4.466   5.815 -0.3069  0.5311  2.0475
25858SOL    HW284625   3.739   4.359   5.727  2.0582 -1.0686  2.2591
25859SOL     OW84626  12.485  10.428   0.083  0.5449  0.5045 -0.4772
25859SOL    HW184627  12.447  10.399   0.001 -1.0573  1.5960 -0.1589
25859SOL    HW284628  12.410  10.447   0.140  1.5960  0.0117  1.1687
25860SOL     OW84629   4.287  11.427  12.287  0.0278 -0.7212 -0.8125
25860SOL    HW184630   4.382  11.427  12.271  0.3392  1.3512  0.6426
25860SOL    HW284631   4.277  11.374  12.366  0.4810  1.6257  0.9568
25861SOL     OW84632   3.355   2.363   3.515 -0.4225  0.4437 -0.1209
25861SOL    HW184633   3.375   2.390   3.425 -0.0132  0.1360 -0.1251
25861SOL    HW284634   3.354   2.445   3.564 -1.5936  0.7248 -0.5698
25862SOL     OW84635   2.606   4.791   4.509 -0.0857 -0.2526  0.0069
25862SOL    HW184636   2.606   4.847   4.431  1.7303 -0.8472 -0.4824
25862SOL    HW284637   2.694   4.801   4.546 -0.5511 -0.8401  1.3652
25863SOL     OW84638  12.419   5.088  10.842 -0.1784  0.2468  0.0740
25863SOL    HW184639  12.440   5.030  10.768  2.7489  1.1000  0.0761
25863SOL    HW284640  12.387   5.168  10.801 -1.8926 -0.4652 -0.0448
25864SOL     OW84641   5.611   1.906  12.409 -0.0961  0.2465 -0.4307
25864SOL    HW184642   5.537   1.924  12.351  0.5032  0.3564 -1.1765
25864SOL    HW284643   5.638   1.817  12.387  0.2533  0.3570 -0.4552
25865SOL     OW84644   2.683   6.507   9.416  0.5694  0.1099 -0.5000
25865SOL    HW184645   2.700   6.475   9.328 -1.5613 -0.1695 -0.8734
25865SOL    HW284646   2.769   6.512   9.458  1.5034 -0.7690 -2.2338
25866SOL     OW84647   5.800   8.797   4.108  0.7658 -0.4518 -0.2072
25866SOL    HW184648   5.793   8.703   4.127 -1.1209 -0.6129 -1.4701
25866SOL    HW284649   5.823   8.801   4.015  0.7965  0.3444 -0.1666
25867SOL     OW84650  11.225   4.710   7.717  0.7115 -0.4708  0.2115
25867SOL    HW184651  11.183   4.626   7.733  0.2001 -0.4861 -1.0496
25867SOL    HW284652  11.157   4.775   7.736  0.5727 -0.4323 -0.3705
25868SOL     OW84653  11.469   4.276   7.646  0.4187  0.5661 -0.1019
25868SOL    HW184654  11.453   4.196   7.596  0.3807 -0.0236  0.8258
25868SOL    HW284655  11.519   4.247   7.722  0.1779  1.3874  0.3797
25869SOL     OW84656   5.330   1.814   6.058  0.4313 -0.2665 -0.3094
25869SOL    HW184657   5.405   1.872   6.059  2.6343 -2.8997 -0.5468
25869SOL    HW284658   5.356   1.742   6.000 -1.6250 -2.0702  0.8623
25870SOL     OW84659   7.339   3.194   7.084 -0.5520 -0.6510 -0.3417
25870SOL    HW184660   7.389   3.145   7.018  0.7573 -0.6302  0.5947
25870SOL    HW284661   7.349   3.286   7.058 -1.2931 -0.7247 -0.9351
25871SOL     OW84662   0.728   1.189   7.571  0.3049 -0.3368 -0.4679
25871SOL    HW184663   0.733   1.256   7.639  0.0353 -0.3023 -0.4809
25871SOL    HW284664   0.758   1.235   7.492 -0.6717  0.0144 -0.6501
25872SOL     OW84665   2.465   5.005   8.639 -0.2247 -0.1939  0.0587
25872SOL    HW184666   2.469   5.100   8.649 -1.4871 -0.0926 -0.3201
25872SOL    HW284667   2.520   4.986   8.563 -0.3042  0.2773 -0.1176
25873SOL     OW84668  11.265   3.880   3.178 -0.1016 -0.0160 -0.0007
25873SOL    HW184669  11.296   3.964   3.211  0.2974  0.1268 -0.7209
25873SOL    HW284670  11.266   3.889   3.083  1.9531 -1.4968 -0.1989
25874SOL     OW84671  10.136   0.515  11.079  0.5781  0.4233  0.5079
25874SOL    HW184672  10.066   0.492  11.139  0.2921 -0.0683 -0.0105
25874SOL    HW284673  10.117   0.605  11.053  1.1004  0.8962  1.6969
25875SOL     OW84674   1.958   5.284   5.996  0.0191  0.5646 -0.0807
25875SOL    HW184675   2.000   5.353   5.945 -2.3732  0.9336 -1.6898
25875SOL    HW284676   1.941   5.325   6.081  0.2277  1.3851 -0.4218
25876SOL     OW84677   7.573   1.054   8.588 -0.1869  0.2142 -0.4843
25876SOL    HW184678   7.606   0.976   8.633  1.2951  1.8046  1.3635
25876SOL    HW284679   7.603   1.044   8.498  2.5877 -0.0099  0.3858
25877SOL     OW84680   8.245  10.312   7.152 -0.0308 -0.0140  0.0799
25877SOL    HW184681   8.255  10.218   7.143 -3.1522 -0.5786  1.2960
25877SOL    HW284682   8.215  10.341   7.066  0.6622 -0.1331 -0.2132
25878SOL     OW84683   0.066   2.626   3.509 -0.0266 -0.4893  0.0691
25878SOL    HW184684   0.150   2.586   3.533  0.7463  0.1024 -1.4784
25878SOL    HW284685   0.012   2.553   3.480  0.7495 -0.6631 -1.0251
25879SOL     OW84686   1.513  10.674   1.781  0.4074  0.0631 -0.1848
25879SOL    HW184687   1.455  10.606   1.745  1.0793 -0.9759  0.6387
25879SOL    HW284688   1.521  10.652   1.874  0.4434  1.4305  0.1472
25880SOL     OW84689   8.191   3.950   1.297  0.1097 -0.0304  0.5831
25880SOL    HW184690   8.137   4.020   1.334 -0.1838 -0.8346  1.7310
25880SOL    HW284691   8.255   3.930   1.365  1.5335  0.5308 -0.5500
25881SOL     OW84692  10.078  10.827   8.197  0.0512  0.0146 -0.5548
25881SOL    HW184693  10.145  10.780   8.247 -0.6302 -0.7017 -0.2978
25881SOL    HW284694  10.054  10.901   8.253  1.7337  1.1971 -1.3239
25882SOL     OW84695   3.576   1.467   3.361 -0.1778 -0.3999  0.0960
25882SOL    HW184696   3.613   1.474   3.450 -0.8138 -0.2221  0.3524
25882SOL    HW284697   3.485   1.494   3.371  0.4661  2.6543 -1.1504
25883SOL     OW84698   2.461   8.471  11.964 -0.4739 -0.1925  0.1207
25883SOL    HW184699   2.501   8.447  12.048  0.7950 -1.3878 -0.7811
25883SOL    HW284700   2.422   8.557  11.981 -0.5150 -0.5272  2.0101
25884SOL     OW84701   2.912   8.753  11.466  0.6118  0.4528 -0.8066
25884SOL    HW184702   2.887   8.841  11.494 -0.3992  0.8096 -2.6137
25884SOL    HW284703   2.828   8.707  11.455  1.0877 -0.4717 -0.6714
25885SOL     OW84704   1.983  11.468   0.206  0.2181 -0.8276  0.9411
25885SOL    HW184705   1.951  11.471   0.116  1.6795 -0.4603  0.4151
25885SOL    HW284706   1.943  11.388   0.242 -2.0346  0.0817  0.6544
25886SOL     OW84707   8.092   3.920   1.738  0.3987  0.1906  0.3367
25886SOL    HW184708   8.098   3.933   1.833 -0.3215 -0.2533  0.4543
25886SOL    HW284709   8.058   4.003   1.704  0.8419  0.4173  0.4391
25887SOL     OW84710  12.201   7.013   0.399  0.1199  0.0091  0.1862
25887SOL    HW184711  12.170   7.075   0.464  1.0882  0.6390  0.0595
25887SOL    HW284712  12.133   6.945   0.396 -0.7766  0.8705  0.5768
25888SOL     OW84713   2.491  11.451   4.830  0.3928  0.9826 -0.2433
25888SOL    HW184714   2.566  11.490   4.784 -0.0668  1.8074 -0.3140
25888SOL    HW284715   2.507  11.357   4.826 -0.2256  0.9181 -3.1625
25889SOL     OW84716  10.040   4.614   4.276 -0.0742  0.3448  0.2207
25889SOL    HW184717  10.096   4.551   4.231 -1.5711  0.3360 -1.7667
25889SOL    HW284718  10.006   4.567   4.352 -1.1059 -1.3026 -1.1881
25890SOL     OW84719   2.727   8.048   4.295  0.0330  0.0583  0.2040
25890SOL    HW184720   2.722   7.998   4.376 -0.7907  0.6804  0.5583
25890SOL    HW284721   2.812   8.025   4.257  0.3756 -0.3344  1.1786
25891SOL     OW84722   8.818   0.498   2.506  0.4240  0.2689 -0.1714
25891SOL    HW184723   8.748   0.558   2.534  1.6273  1.2687  0.7773
25891SOL    HW284724   8.783   0.411   2.525 -0.1629  0.7952  1.3359
25892SOL     OW84725   3.751  10.547   6.330  0.0181  0.1763 -0.3068
25892SOL    HW184726   3.789  10.467   6.366 -1.5845 -1.2922 -1.7116
25892SOL    HW284727   3.691  10.517   6.262  0.0342  2.6311 -1.5251
25893SOL     OW84728   7.609   4.970   6.558 -0.1633 -0.0379  0.8559
25893SOL    HW184729   7.664   4.992   6.483 -0.2758  0.0344  0.7948
25893SOL    HW284730   7.531   5.024   6.547  0.0551  0.3825  1.3100
25894SOL     OW84731   2.672   3.042   2.679 -0.3144  0.2860 -0.3517
25894SOL    HW184732   2.599   2.987   2.650 -1.2580  1.5857 -0.5538
25894SOL    HW284733   2.737   3.034   2.610 -1.6191  1.6077 -1.8161
25895SOL     OW84734   3.271  11.401   3.717  0.6825 -0.3362 -0.4953
25895SOL    HW184735   3.312  11.436   3.796  2.9134 -1.9979 -0.8076
25895SOL    HW284736   3.324  11.435   3.645 -1.9562  2.0374 -1.4857
25896SOL     OW84737   7.229   0.876   7.601 -0.1977 -0.4170 -0.3980
25896SOL    HW184738   7.264   0.961   7.629 -0.5788 -0.2891 -0.3068
25896SOL    HW284739   7.162   0.855   7.666  1.6080 -1.9899  1.0643
25897SOL     OW84740  11.054  11.986   1.196  0.2811 -0.2392 -0.1048
25897SOL    HW184741  10.973  12.026   1.229 -0.1292 -0.4714 -0.8142
25897SOL    HW284742  11.030  11.951   1.110  0.5802 -2.1170  0.5296
25898SOL     OW84743   1.767  10.582   0.002  0.0412  0.0012 -0.4577
25898SOL    HW184744   1.730  10.504   0.044  1.5938  0.2150  1.4088
25898SOL    HW284745   1.860  10.563  -0.006  0.3595  1.4756 -0.4478
25899SOL     OW84746   7.173   3.706   4.246  0.8037 -0.5046 -0.0779
25899SOL    HW184747   7.101   3.768   4.259  0.4446 -0.9594  0.1258
25899SOL    HW284748   7.179   3.659   4.330  2.6067  0.8400  0.6283
25900SOL     OW84749  10.050   0.303  12.336 -0.0167  0.1018 -0.4613
25900SOL    HW184750  10.126   0.252  12.307 -1.8268 -2.0533 -1.6866
25900SOL    HW284751   9.996   0.313  12.258 -1.4096  0.8468  0.5509
25901SOL     OW84752   1.701  11.176   2.082 -0.2680 -0.1602  0.2390
25901SOL    HW184753   1.734  11.225   2.006  0.1253 -0.0364  0.4847
25901SOL    HW284754   1.775  11.174   2.143 -0.4329 -0.6584  0.4264
25902SOL     OW84755   4.346   9.665   1.791 -0.6376 -0.2438  0.2956
25902SOL    HW184756   4.292   9.621   1.726  2.0553 -2.2805 -0.7394
25902SOL    HW284757   4.385   9.594   1.843  1.1581  1.0659  0.8711
25903SOL     OW84758   0.855   4.553   6.430 -0.2837 -0.3253 -0.4192
25903SOL    HW184759   0.834   4.639   6.467 -0.8477  0.3859 -2.2696
25903SOL    HW284760   0.932   4.524   6.480 -0.1410  1.1909  0.3212
25904SOL     OW84761   1.292   0.478   3.242  0.1794  0.0072  0.2351
25904SOL    HW184762   1.216   0.517   3.286 -0.9746 -2.4167  0.5960
25904SOL    HW284763   1.366   0.497   3.300 -0.0802  2.4236 -0.1289
25905SOL     OW84764   9.778   6.624  10.049 -0.5084 -0.2135  0.2436
25905SOL    HW184765   9.796   6.630   9.956  1.2964  0.1789  0.5833
25905SOL    HW284766   9.796   6.712  10.083 -0.3061 -0.5671  1.0879
25906SOL     OW84767   1.827   3.327  11.197  0.4075  0.0200  0.1200
25906SOL    HW184768   1.831   3.422  11.200  1.3149 -0.0214  0.3212
25906SOL    HW284769   1.733   3.308  11.190  0.2681  0.9452 -0.8664
25907SOL     OW84770   2.017   0.701  12.563 -0.7043  0.0463 -0.1327
25907SOL    HW184771   2.001   0.611  12.534  1.3600  0.6387 -3.5717
25907SOL    HW284772   2.021   0.752  12.483  2.5427  2.4504  1.3471
25908SOL     OW84773   2.784  11.649   7.541 -0.0388  0.5367 -0.5906
25908SOL    HW184774   2.838  11.673   7.467 -1.5283  4.1087 -0.7590
25908SOL    HW284775   2.834  11.677   7.618  0.3882 -0.7621 -0.3645
25909SOL     OW84776   7.371  11.970   9.062 -0.1797 -0.4900 -0.2619
25909SOL    HW184777   7.375  12.046   9.119  1.3965  0.3393 -1.3859
25909SOL    HW284778   7.291  11.982   9.010 -1.5544 -1.1953  1.5954
25910SOL     OW84779   9.583   0.659   3.313 -0.1007  0.0162  0.6438
25910SOL    HW184780   9.589   0.578   3.263  0.6253 -0.3873  1.3637
25910SOL    HW284781   9.499   0.697   3.287 -1.5942 -2.1364  2.0386
25911SOL     OW84782   2.327   9.662   8.924  0.1313 -0.0395  0.3676
25911SOL    HW184783   2.249   9.695   8.970  0.7083  1.6309  0.2028
25911SOL    HW284784   2.293   9.627   8.842 -0.4123  1.0163  0.1283
25912SOL     OW84785   1.341  12.092   1.652  0.2044  0.6058 -0.4574
25912SOL    HW184786   1.378  12.029   1.589 -1.6777 -1.5682  0.4716
25912SOL    HW284787   1.400  12.167   1.648  1.4823 -0.4140 -3.0594
25913SOL     OW84788   6.482   6.317   2.885 -0.2311  0.2637 -0.1572
25913SOL    HW184789   6.509   6.402   2.921 -0.8355  0.4907 -0.2412
25913SOL    HW284790   6.501   6.255   2.955 -0.1269  0.5178  0.0428
25914SOL     OW84791   0.798  12.167   1.484 -0.3394 -0.6422 -0.0582
25914SOL    HW184792   0.834  12.203   1.565 -1.9205 -0.1853  0.4950
25914SOL    HW284793   0.871  12.166   1.423  0.2494  1.8356  0.4661
25915SOL     OW84794   8.554   0.999   8.933 -0.1996  0.2194  0.6569
25915SOL    HW184795   8.473   1.018   8.887 -0.3187 -0.2029  0.6961
25915SOL    HW284796   8.532   0.929   8.994  0.5812 -1.1123 -0.5306
25916SOL     OW84797  10.188   9.436   0.580  0.5619 -0.8807  0.3564
25916SOL    HW184798  10.123   9.494   0.540  2.8854  1.0610 -0.7786
25916SOL    HW284799  10.190   9.360   0.523 -1.0702 -1.2746  0.7452
25917SOL     OW84800   4.011   3.687   2.449  0.6225  0.3639  0.5783
25917SOL    HW184801   4.093   3.674   2.401  0.5981 -2.8929  1.1959
25917SOL    HW284802   3.946   3.708   2.381  1.1613 -1.2614 -0.4909
25918SOL     OW84803   5.493   2.010   3.558 -0.4153  0.0386  0.3073
25918SOL    HW184804   5.510   2.008   3.652  1.9594  0.8704 -0.0354
25918SOL    HW284805   5.473   2.102   3.539 -0.2441 -0.0012 -0.0892
25919SOL     OW84806   9.516   0.606   1.770 -0.1245 -0.2690 -0.4078
25919SOL    HW184807   9.480   0.550   1.838 -0.1389  0.4922  0.2267
25919SOL    HW284808   9.497   0.695   1.800  0.8551  0.1052 -0.8489
25920SOL     OW84809   8.919   1.802   7.529 -0.1448 -0.0058 -0.1842
25920SOL    HW184810   8.953   1.836   7.612 -1.4269 -1.1887  0.8781
25920SOL    HW284811   8.995   1.798   7.472  0.8304  0.5873  1.0247
25921SOL     OW84812   0.883  11.743   9.115  0.0111 -0.2009 -0.3690
25921SOL    HW184813   0.878  11.657   9.074  2.5997 -0.3044 -0.5946
25921SOL    HW284814   0.821  11.797   9.065 -0.5581 -1.5395 -1.1583
25922SOL     OW84815   7.877   3.225   7.933 -0.2552 -0.1048  0.0606
25922SOL    HW184816   7.784   3.205   7.919 -0.6522  0.5484  1.5472
25922SOL    HW284817   7.907   3.256   7.848 -1.4576 -0.1407 -0.4044
25923SOL     OW84818  11.866   7.458   9.745 -0.0049 -0.0031 -0.5276
25923SOL    HW184819  11.854   7.429   9.654 -0.8953  0.1662 -0.4668
25923SOL    HW284820  11.781   7.445   9.786  0.2745  0.3348  0.1733
25924SOL     OW84821  11.728   0.890   5.849 -0.1329 -0.3494  0.2800
25924SOL    HW184822  11.752   0.848   5.766 -1.1637 -1.1157  0.3549
25924SOL    HW284823  11.645   0.850   5.874 -0.2531  0.4628  1.2779
25925SOL     OW84824  11.193  11.945  11.504 -0.1212 -0.0236  0.5269
25925SOL    HW184825  11.108  11.964  11.545 -0.9755 -1.0366 -0.6845
25925SOL    HW284826  11.178  11.863  11.457  0.7036  1.1843 -1.9912
25926SOL     OW84827   9.906   4.498   7.166  0.8001 -0.5442 -0.4807
25926SOL    HW184828   9.857   4.454   7.235  0.9396 -2.1485 -1.3508
25926SOL    HW284829   9.998   4.486   7.190  0.8209 -0.0644 -0.3276
25927SOL     OW84830  10.965   1.951   3.034 -0.8024  0.5102 -0.2791
25927SOL    HW184831  10.878   1.917   3.057 -0.6779 -1.4786 -2.4170
25927SOL    HW284832  11.017   1.938   3.113 -1.7764 -0.7987  0.1821
25928SOL     OW84833   8.165   5.550   7.968  0.5069 -0.3800  0.6916
25928SOL    HW184834   8.233   5.593   8.020  1.4950 -0.4562 -0.4900
25928SOL    HW284835   8.124   5.488   8.028 -0.5345  1.7221  2.2613
25929SOL     OW84836   8.313   8.146   8.523 -0.2950 -0.3609 -0.2014
25929SOL    HW184837   8.361   8.072   8.562  0.5745 -0.2458 -1.0436
25929SOL    HW284838   8.351   8.224   8.564  1.3607 -0.1711 -1.9996
25930SOL     OW84839   6.232   9.546   3.067  0.3542 -0.1897  0.4357
25930SOL    HW184840   6.298   9.583   3.127  1.8576 -0.0083 -1.2419
25930SOL    HW284841   6.277   9.473   3.024 -0.1790  0.5660 -1.4912
25931SOL     OW84842   3.341   6.114  11.893 -0.3275  0.0078 -0.1563
25931SOL    HW184843   3.281   6.181  11.927  0.7487  1.4277 -0.9433
25931SOL    HW284844   3.383   6.078  11.971 -1.2173 -0.0678  0.3033
25932SOL     OW84845  10.342  11.524   7.456 -0.6639  0.5458 -0.2413
25932SOL    HW184846  10.389  11.498   7.376 -1.7450 -0.8145 -0.4718
25932SOL    HW284847  10.300  11.444   7.486  0.8958  0.6607  2.5716
25933SOL     OW84848   8.644   4.418  12.210 -0.0565 -0.1195  0.5685
25933SOL    HW184849   8.570   4.372  12.250  0.3917 -0.6437  0.8076
25933SOL    HW284850   8.629   4.510  12.230  0.2633 -0.3843  2.1326
25934SOL     OW84851  11.321   7.506   1.608  0.5760 -0.3973 -0.1832
25934SOL    HW184852  11.285   7.461   1.531  0.5035 -0.8185  0.0971
25934SOL    HW284853  11.395   7.556   1.573 -0.5610  0.8756 -0.8573
25935SOL     OW84854   3.726  11.680   5.749 -0.1664  0.5116 -0.5727
25935SOL    HW184855   3.734  11.743   5.677  2.3408  1.2519  0.2399
25935SOL    HW284856   3.780  11.606   5.721 -1.8701 -0.6829 -0.8517
25936SOL     OW84857   5.564  10.333   2.258 -0.0483 -0.3480  0.0052
25936SOL    HW184858   5.509  10.404   2.224  1.1217  0.2209 -0.7259
25936SOL    HW284859   5.614  10.303   2.183 -0.5154 -1.9645  0.3112
25937SOL     OW84860   6.757   1.555   1.915 -0.3772  0.2256  0.1263
25937SOL    HW184861   6.798   1.621   1.859 -2.3531  1.1706 -0.2827
25937SOL    HW284862   6.666   1.584   1.924 -0.6066 -0.9633  2.2327
25938SOL     OW84863   8.362   4.430   4.887  0.3016 -0.4186 -0.2754
25938SOL    HW184864   8.328   4.343   4.909  0.2617  0.0652  1.7176
25938SOL    HW284865   8.298   4.465   4.825 -1.2425 -0.7190  1.0825
25939SOL     OW84866   5.259   3.095   9.361 -0.2176 -0.4686  0.2363
25939SOL    HW184867   5.185   3.141   9.320 -0.4871 -0.1945  1.0159
25939SOL    HW284868   5.242   3.003   9.346  0.4958 -0.3433 -1.6471
25940SOL     OW84869   4.151   8.882  11.038 -0.1995 -0.2695  0.1680
25940SOL    HW184870   4.091   8.843  10.974 -0.1936 -0.9387  0.5529
25940SOL    HW284871   4.152   8.975  11.017  0.3606 -0.5826 -1.2463
25941SOL     OW84872  10.389   7.189   9.276 -0.1189  0.2692 -0.1839
25941SOL    HW184873  10.437   7.120   9.322 -0.3869 -0.7550 -1.4193
25941SOL    HW284874  10.409   7.175   9.184 -0.4779  1.6293 -0.4841
25942SOL     OW84875  11.726   8.897   3.441 -0.4627 -0.6248  0.5556
25942SOL    HW184876  11.773   8.824   3.479 -1.6304 -1.4714  0.4199
25942SOL    HW284877  11.713   8.958   3.513  2.3549  0.5020  0.2450
25943SOL     OW84878   9.061   1.822   7.760  0.1441 -0.0565 -0.0975
25943SOL    HW184879   9.133   1.801   7.819 -0.5471 -0.3357  0.6676
25943SOL    HW284880   8.984   1.831   7.817 -0.4255  0.2567 -0.8882
25944SOL     OW84881  11.882   4.691   4.870  0.3579  0.7166 -0.0360
25944SOL    HW184882  11.844   4.625   4.927  0.7586  0.1834 -0.3704
25944SOL    HW284883  11.836   4.772   4.892 -0.5682  0.2054 -0.0416
25945SOL     OW84884  10.333   8.954   4.107  0.7844 -0.3041 -0.3569
25945SOL    HW184885  10.359   8.931   4.196 -1.1302  1.7459  0.8368
25945SOL    HW284886  10.320   8.870   4.063  1.4505 -1.3628  1.3905
25946SOL     OW84887   8.292   6.267   3.799 -0.4882  0.0524  0.0112
25946SOL    HW184888   8.300   6.220   3.717  0.6981 -0.2968  0.3023
25946SOL    HW284889   8.382   6.293   3.820 -0.7012 -0.2716  1.4204
25947SOL     OW84890  11.218  10.935   5.174  0.4236 -0.3879 -0.4752
25947SOL    HW184891  11.307  10.941   5.208 -0.2043  0.8560  1.0860
25947SOL    HW284892  11.207  11.013   5.119 -0.0052  0.0083  0.1574
25948SOL     OW84893   9.655  11.378   3.916 -0.0631 -0.1451  0.1493
25948SOL    HW184894   9.649  11.292   3.874  1.2078 -0.5087  0.6373
25948SOL    HW284895   9.694  11.434   3.849 -1.1666  0.1400 -0.2691
25949SOL     OW84896   8.876   3.950   4.178  0.7076  0.3488 -0.1344
25949SOL    HW184897   8.803   3.889   4.169  1.1819 -0.1213 -0.9337
25949SOL    HW284898   8.954   3.895   4.170  1.1552  0.8591  0.6069
25950SOL     OW84899   8.254   0.433   5.015 -0.0526  0.5402  0.0870
25950SOL    HW184900   8.333   0.441   5.068  0.9366  1.4422 -1.4349
25950SOL    HW284901   8.284   0.444   4.925 -1.4408 -2.3677 -0.8444
25951SOL     OW84902   7.605   7.189   2.743  0.0269  0.1633  0.1671
25951SOL    HW184903   7.598   7.179   2.838 -2.7291 -1.4118 -0.1113
25951SOL    HW284904   7.574   7.106   2.707  1.0137  0.7109 -2.1462
25952SOL     OW84905   8.269   1.618   4.536 -0.0315 -0.0406 -0.8565
25952SOL    HW184906   8.330   1.569   4.481 -0.1588  0.4460 -1.4435
25952SOL    HW284907   8.192   1.562   4.542  0.7764 -1.0639  0.6267
25953SOL     OW84908   9.443   5.747   6.545 -0.0199 -0.3962  0.1595
25953SOL    HW184909   9.397   5.718   6.467 -0.7397  3.4582 -1.1026
25953SOL    HW284910   9.536   5.732   6.525 -0.2720 -0.6491 -0.8818
25954SOL     OW84911   9.566  10.074   9.685 -0.0544 -0.0352 -0.0155
25954SOL    HW184912   9.630  10.007   9.710  0.8200  0.3656 -1.0938
25954SOL    HW284913   9.493  10.024   9.649 -0.0480 -0.4688  0.5568
25955SOL     OW84914   2.022   9.933   5.863  0.6590 -0.8045  0.2313
25955SOL    HW184915   2.076   9.978   5.798 -0.4695 -2.1817 -1.7644
25955SOL    HW284916   1.934   9.969   5.852  0.4509 -1.0321  1.0307
25956SOL     OW84917   8.647   6.034   6.427 -0.3636  0.2151 -0.0615
25956SOL    HW184918   8.576   5.971   6.424  0.9218 -1.3585  0.7719
25956SOL    HW284919   8.677   6.032   6.518  0.0745  1.6178 -0.1526
25957SOL     OW84920  11.997  11.634  10.518  0.2864  0.5001 -0.4332
25957SOL    HW184921  11.934  11.640  10.446  0.0610  1.1476 -0.1885
25957SOL    HW284922  12.064  11.699  10.496 -0.1700  1.2269  0.3138
25958SOL     OW84923   1.238   7.481   9.008  0.2669 -0.2782 -0.2212
25958SOL    HW184924   1.295   7.417   8.964  0.1006 -0.0293 -0.8171
25958SOL    HW284925   1.151   7.440   9.007  0.4527 -0.7216  0.8185
25959SOL     OW84926   4.319   5.249   2.196  0.5225  0.0944  0.0499
25959SOL    HW184927   4.406   5.275   2.167 -0.2755  0.7799 -1.8992
25959SOL    HW284928   4.291   5.183   2.133  1.0883 -3.1103  2.8774
25960SOL     OW84929   8.319   4.685  11.000  0.6237 -0.0211  0.2828
25960SOL    HW184930   8.272   4.625  10.943  1.4178 -0.9513  0.5810
25960SOL    HW284931   8.254   4.715  11.063  0.6192 -2.0766  1.3268
25961SOL     OW84932   0.848   1.938   7.552 -0.2011 -0.2052 -0.5767
25961SOL    HW184933   0.879   1.870   7.492  0.1039 -0.0169 -0.6384
25961SOL    HW284934   0.907   2.012   7.536 -1.5758  0.7018 -1.7380
25962SOL     OW84935   0.428   0.998  11.106 -0.4290 -0.0278  0.3717
25962SOL    HW184936   0.443   0.967  11.195 -0.0708  0.6042  0.5426
25962SOL    HW284937   0.446   0.923  11.050  1.0910  0.0439  0.7232
25963SOL     OW84938   8.261   8.392   9.646  0.2347  0.2968  0.2040
25963SOL    HW184939   8.231   8.332   9.714  2.3209 -1.0842  0.0277
25963SOL    HW284940   8.243   8.479   9.680 -0.9318 -0.3959  1.4477
25964SOL     OW84941  12.135  11.124   8.206 -0.6557 -0.0749  0.6681
25964SOL    HW184942  12.123  11.193   8.141  1.3500  0.6489  1.0068
25964SOL    HW284943  12.047  11.091   8.222 -1.3630  0.6919 -1.3550
25965SOL     OW84944   3.285   0.024   1.982  0.0403  0.2153 -0.1681
25965SOL    HW184945   3.235  -0.035   1.926 -0.5150  0.9340 -0.4465
25965SOL    HW284946   3.281  -0.017   2.069  0.9152 -0.9122 -0.6349
25966SOL     OW84947   2.745   8.770   3.428 -0.4080  0.1146 -0.0872
25966SOL    HW184948   2.714   8.829   3.358  1.9435 -1.8813 -3.0845
25966SOL    HW284949   2.820   8.815   3.466 -0.3310  0.2656 -0.4123
25967SOL     OW84950   6.560   8.994  10.655 -0.1662 -0.2356  0.1013
25967SOL    HW184951   6.479   8.954  10.686 -1.1194  0.6267 -1.1979
25967SOL    HW284952   6.587   8.941  10.580  0.8593 -0.9178  0.9231
25968SOL     OW84953   5.530   3.756   1.546 -0.1122 -0.0799 -0.0275
25968SOL    HW184954   5.538   3.707   1.464 -1.2075 -1.1014  0.4558
25968SOL    HW284955   5.585   3.708   1.608 -3.3281 -2.5010  1.2083
25969SOL     OW84956   6.734   8.032   8.661  0.0703  0.1500 -0.0210
25969SOL    HW184957   6.706   8.094   8.593 -2.8596 -0.3859  0.5769
25969SOL    HW284958   6.792   7.971   8.615  0.6340  1.5755 -1.2933
25970SOL     OW84959   2.231   3.224   1.900 -0.0169 -0.5790 -0.6185
25970SOL    HW184960   2.310   3.202   1.850 -0.4170  0.0544 -1.5521
25970SOL    HW284961   2.245   3.183   1.986  0.2465 -2.5238 -1.5471
25971SOL     OW84962   4.056   7.595   4.792 -0.0839 -0.3554  0.0222
25971SOL    HW184963   4.030   7.577   4.701 -0.4960 -0.7484  0.2124
25971SOL    HW284964   4.146   7.565   4.798 -0.4265 -1.4439  0.0515
25972SOL     OW84965   5.723   1.132   2.339 -0.1355 -0.1851 -0.0774
25972SOL    HW184966   5.756   1.115   2.251  1.5847  1.0054  0.3032
25972SOL    HW284967   5.656   1.199   2.327 -0.0425 -0.1636 -0.4859
25973SOL     OW84968  11.611   7.465   9.804 -0.2653 -0.4570  0.0843
25973SOL    HW184969  11.596   7.548   9.848  1.0928 -0.4669  0.6290
25973SOL    HW284970  11.546   7.406   9.841  0.5884 -0.3562  1.8078
25974SOL     OW84971   6.693  11.068  12.576  0.0145  0.8704 -0.3377
25974SOL    HW184972   6.616  11.039  12.527 -0.6894 -1.0461  1.7460
25974SOL    HW284973   6.659  11.125  12.645  0.3859 -0.1311  0.7125
25975SOL     OW84974  10.882   8.490   6.327  0.2373  0.4709  0.0259
25975SOL    HW184975  10.939   8.428   6.372  1.1669  0.9476 -0.4596
25975SOL    HW284976  10.939   8.565   6.307 -0.0415  0.1604 -2.1705
25976SOL     OW84977   4.290   1.989   9.881 -0.4074 -0.6459 -0.4499
25976SOL    HW184978   4.288   1.949   9.794 -0.7432 -0.7155 -0.4133
25976SOL    HW284979   4.198   2.006   9.901 -0.4882 -2.1747  0.6151
25977SOL     OW84980   1.448   0.135   5.216 -0.5888 -0.1668  0.1099
25977SOL    HW184981   1.431   0.207   5.155  2.3893  0.6594  0.1174
25977SOL    HW284982   1.483   0.178   5.294  0.0791 -1.5461  0.5938
25978SOL     OW84983   5.290  11.818  11.374 -0.0579 -0.0031  0.6784
25978SOL    HW184984   5.242  11.805  11.292 -1.4087 -0.1302  1.4481
25978SOL    HW284985   5.251  11.898  11.411  0.3555 -0.0872  1.3072
25979SOL     OW84986   6.298  10.975   4.353 -0.3289 -0.5271  0.0586
25979SOL    HW184987   6.269  11.041   4.290  0.5039 -0.7179 -0.5316
25979SOL    HW284988   6.347  11.025   4.418 -1.2724 -0.3154  0.6289
25980SOL     OW84989  11.666   1.922   5.652 -0.1138 -0.2398  0.1516
25980SOL    HW184990  11.619   1.999   5.619  0.2971  0.4099  1.0352
25980SOL    HW284991  11.708   1.953   5.732  0.2035 -1.3506  0.4220
25981SOL     OW84992   7.276  11.319   7.169 -0.2118  0.5005  0.9053
25981SOL    HW184993   7.248  11.358   7.252  0.2602  0.9209  0.8698
25981SOL    HW284994   7.320  11.237   7.194 -2.8168 -1.0059  0.8757
25982SOL     OW84995   6.645  11.174  10.297 -0.1655 -0.0712  0.3579
25982SOL    HW184996   6.651  11.079  10.288 -0.8432 -0.0655 -0.2543
25982SOL    HW284997   6.689  11.208  10.219  0.8689  0.1440  1.0203
25983SOL     OW84998   5.035  12.371   1.118 -1.0466  0.1927 -0.1505
25983SOL    HW184999   5.123  12.383   1.083 -1.4249 -1.6011 -1.9260
25983SOL    HW285000   4.982  12.435   1.071 -1.0614 -0.3026 -0.8288
25984SOL     OW85001   5.111   9.346   6.963 -0.1366  0.7017  0.4616
25984SOL    HW185002   5.127   9.394   7.044 -0.0610  1.4724  0.0014
25984SOL    HW285003   5.105   9.414   6.895  2.2224 -0.0466 -0.6030
25985SOL     OW85004  11.229  10.911   1.315 -0.2114  0.5291 -0.3794
25985SOL    HW185005  11.190  10.970   1.251 -0.1070  0.7564 -0.2338
25985SOL    HW285006  11.317  10.894   1.281 -0.6245 -0.4491 -1.0147
25986SOL     OW85007  12.358   2.517   7.564  0.4197 -0.2210  0.3558
25986SOL    HW185008  12.309   2.435   7.569 -2.1379  1.2324  3.6495
25986SOL    HW285009  12.448   2.493   7.586  0.5941 -2.5228 -2.3551
25987SOL     OW85010   5.974   1.730   6.373  0.2059  0.0937  0.0462
25987SOL    HW185011   5.990   1.787   6.448 -1.1889  0.5846 -0.0192
25987SOL    HW285012   5.882   1.741   6.352  0.4221 -0.5084 -1.3646
25988SOL     OW85013   1.207   7.704   7.139 -0.5800  0.6035 -0.3490
25988SOL    HW185014   1.244   7.787   7.167 -0.6420  1.3389 -2.2566
25988SOL    HW285015   1.283   7.651   7.114 -0.5228 -0.0459  1.1226
25989SOL     OW85016   8.398  10.331   7.926  0.3263 -0.0068 -0.0184
25989SOL    HW185017   8.339  10.379   7.868 -0.9872 -2.1075 -0.5609
25989SOL    HW285018   8.368  10.240   7.920  3.3231 -1.0962  0.1438
25990SOL     OW85019  12.120  12.359   0.301 -0.5654  0.0568 -0.1431
25990SOL    HW185020  12.103  12.440   0.254  0.1481 -0.0727 -0.6496
25990SOL    HW285021  12.039  12.309   0.292 -0.9620  0.6608  0.0647
25991SOL     OW85022   9.190  10.794   3.174  0.0859 -0.0402  1.1247
25991SOL    HW185023   9.212  10.765   3.086  0.7408  2.3362  0.4364
25991SOL    HW285024   9.119  10.856   3.163 -0.0061  0.0961  2.3030
25992SOL     OW85025   6.125   9.597  10.307 -0.3597  0.2748 -0.9256
25992SOL    HW185026   6.065   9.661  10.269  0.0362  0.5250 -1.1381
25992SOL    HW285027   6.208   9.643  10.314 -0.0727 -0.2102 -1.0651
25993SOL     OW85028  10.685   5.574   3.335 -0.4035 -0.0929  0.4613
25993SOL    HW185029  10.673   5.667   3.317  0.2966 -0.1706 -0.4805
25993SOL    HW285030  10.600   5.545   3.367 -0.5438  0.9287  1.0651
25994SOL     OW85031   7.963   2.830   5.828 -0.3965 -0.6041 -0.0894
25994SOL    HW185032   7.931   2.786   5.907 -1.3410  0.2978  0.0452
25994SOL    HW285033   7.892   2.821   5.765  0.5636 -1.8003 -1.0577
25995SOL     OW85034   8.813  12.546   0.702  0.6928 -0.1030 -0.1168
25995SOL    HW185035   8.843  12.637   0.702 -0.9895  0.5188  1.3595
25995SOL    HW285036   8.717  12.553   0.702  0.3883 -1.6883  3.8780
25996SOL     OW85037   9.930   3.359   6.587  0.3281  0.0165 -0.1620
25996SOL    HW185038   9.919   3.300   6.661  0.0101 -0.6631 -0.7323
25996SOL    HW285039   9.841   3.375   6.556  0.5201 -0.6921 -1.1327
25997SOL     OW85040   2.207   0.304   6.809 -0.2826 -0.2591  0.3456
25997SOL    HW185041   2.293   0.293   6.850 -0.2362 -1.1994  0.0165
25997SOL    HW285042   2.214   0.386   6.762  0.9946 -1.0823 -0.9882
25998SOL     OW85043   9.598   3.677   2.304  0.4256  0.0076 -0.3702
25998SOL    HW185044   9.561   3.736   2.238 -1.2773 -0.4224  0.1590
25998SOL    HW285045   9.571   3.715   2.388  1.9386  0.1380  0.0880
25999SOL     OW85046   1.856   4.306  10.218  0.2607  0.2209 -0.1935
25999SOL    HW185047   1.808   4.383  10.187 -0.9102 -0.5619 -0.3483
25999SOL    HW285048   1.829   4.235  10.159  1.9619 -0.1553 -0.5909
26000SOL     OW85049   1.925   9.517   1.834 -0.7199 -0.3926 -0.3076
26000SOL    HW185050   1.897   9.518   1.743  0.6160 -0.6236 -0.7433
26000SOL    HW285051   1.998   9.455   1.836  0.8716  1.4051  0.3989
26001SOL     OW85052   4.467   4.250   5.025  0.5864  0.5739 -0.0245
26001SOL    HW185053   4.463   4.154   5.029 -0.4833  0.6423  1.4967
26001SOL    HW285054   4.493   4.269   4.935  2.3373 -1.1674  0.0412
26002SOL     OW85055  11.136   6.476   7.115  0.5888 -0.8533 -0.8025
26002SOL    HW185056  11.116   6.504   7.025  2.0176  1.5201 -0.4847
26002SOL    HW285057  11.226   6.506   7.129  0.0946 -0.3394  1.7148
26003SOL     OW85058   9.377   6.174   2.409  0.3190  0.1517 -0.2528
26003SOL    HW185059   9.422   6.143   2.489 -0.8819  0.5777  0.6154
26003SOL    HW285060   9.428   6.250   2.382  0.3471  0.4282  0.5279
26004SOL     OW85061  11.031   1.367   8.031 -0.1672  0.1917 -0.0466
26004SOL    HW185062  10.972   1.341   8.101 -0.4547  0.5908 -0.1359
26004SOL    HW285063  11.073   1.447   8.064 -0.1382  0.2555 -0.2392
26005SOL     OW85064   3.484   3.575   8.583 -0.1450 -0.3019 -0.0343
26005SOL    HW185065   3.546   3.513   8.544 -0.6649 -0.8232 -0.0536
26005SOL    HW285066   3.529   3.660   8.579  0.7445 -0.7422  0.3728
26006SOL     OW85067   7.985   9.687  11.374 -0.2233 -0.3966  0.4434
26006SOL    HW185068   8.005   9.750  11.305 -1.2210  0.5412  0.9711
26006SOL    HW285069   8.061   9.629  11.377  0.4232  0.3721 -0.5181
26007SOL     OW85070   1.563   3.219   1.214 -0.4237  0.3337 -0.7642
26007SOL    HW185071   1.586   3.195   1.304  1.8599  0.6454 -1.2106
26007SOL    HW285072   1.516   3.143   1.180  2.0412 -1.4283 -0.4838
26008SOL     OW85073   6.540   2.357  10.340 -0.1858 -0.1405  0.4314
26008SOL    HW185074   6.610   2.405  10.295 -1.1270  1.6741  0.8147
26008SOL    HW285075   6.586   2.298  10.399  1.0360  0.0809 -0.2631
26009SOL     OW85076   2.150   9.320  12.500  0.0389  0.7430 -0.3204
26009SOL    HW185077   2.182   9.293  12.586 -2.5194 -0.4317  0.3831
26009SOL    HW285078   2.138   9.238  12.452 -2.8088  0.9397 -0.1025
26010SOL     OW85079  11.531   4.751   1.633 -0.5515 -0.2431  0.1790
26010SOL    HW185080  11.531   4.656   1.619  1.8247 -0.6334  2.2862
26010SOL    HW285081  11.534   4.761   1.728 -0.0141  1.9353 -0.0310
26011SOL     OW85082   9.585   9.019  12.475  0.4462 -0.3224  0.2092
26011SOL    HW185083   9.571   9.051  12.564  0.4038  1.3354 -0.3700
26011SOL    HW285084   9.567   8.925  12.481 -1.0937  0.0147  1.6299
26012SOL     OW85085   1.177   3.522   3.935 -0.1925 -0.0000  0.4154
26012SOL    HW185086   1.127   3.445   3.907 -0.1695  0.5094 -1.1441
26012SOL    HW285087   1.162   3.586   3.866  2.6318  0.1664 -0.1687
26013SOL     OW85088   7.416   6.216   2.594  0.0861  0.7522  0.5280
26013SOL    HW185089   7.338   6.225   2.538  2.4015 -1.3541 -3.4836
26013SOL    HW285090   7.489   6.235   2.536  2.7520 -0.1802  3.3210
26014SOL     OW85091  11.156   4.572   4.050 -0.1747 -0.5143  1.0882
26014SOL    HW185092  11.202   4.582   4.134  0.3266 -2.2410  1.0563
26014SOL    HW285093  11.198   4.636   3.993  0.7921 -0.6381  1.6318
26015SOL     OW85094   2.307  11.486   5.852  0.4010 -0.2947 -0.5163
26015SOL    HW185095   2.356  11.462   5.930  0.7855 -0.4369 -0.7934
26015SOL    HW285096   2.357  11.559   5.814 -0.1980  0.2790 -0.2249
26016SOL     OW85097   8.928  10.664   4.025  0.0975 -0.3058  0.0075
26016SOL    HW185098   8.902  10.741   3.975 -1.9172 -0.4845  0.7025
26016SOL    HW285099   8.940  10.596   3.958 -0.3688  0.0214 -0.4170
26017SOL     OW85100   0.457   9.880   1.468 -0.3642  0.3506  0.1356
26017SOL    HW185101   0.517   9.813   1.501 -0.5149  0.8312  1.4400
26017SOL    HW285102   0.450   9.861   1.374  0.2255 -0.9599  0.3258
26018SOL     OW85103   1.270   8.786   9.356 -0.2799  0.2663  0.3600
26018SOL    HW185104   1.228   8.701   9.364 -0.3643  0.2435 -0.2420
26018SOL    HW285105   1.263   8.808   9.263 -0.6479  1.1294  0.5795
26019SOL     OW85106   4.223   1.211   0.339 -0.0776  0.0044 -0.3800
26019SOL    HW185107   4.292   1.254   0.390 -1.1613 -1.4390  2.5152
26019SOL    HW285108   4.149   1.271   0.342 -0.0543  0.0437 -0.5479
26020SOL     OW85109   4.645   6.703   0.174 -0.0847  0.4930  0.6216
26020SOL    HW185110   4.681   6.780   0.220  0.1138  0.4300  0.5738
26020SOL    HW285111   4.689   6.629   0.216  0.2202  0.4438  0.2177
26021SOL     OW85112   4.330   3.663   6.047 -1.0469  0.2436  0.0830
26021SOL    HW185113   4.284   3.694   6.125 -0.9982  1.5193 -0.3708
26021SOL    HW285114   4.331   3.739   5.989  1.1454  0.0902 -0.1501
26022SOL     OW85115   2.392   1.819   7.992  0.2396  0.7439 -0.1040
26022SOL    HW185116   2.347   1.737   8.015  0.3590  0.5132 -0.6854
26022SOL    HW285117   2.433   1.801   7.907  1.3433  0.9828  0.3553
26023SOL     OW85118  11.141   7.272   5.456  0.1021 -0.0816  0.1861
26023SOL    HW185119  11.072   7.256   5.521  1.3473  1.6971  2.1038
26023SOL    HW285120  11.184   7.352   5.487  0.9853  0.6980 -2.7223
26024SOL     OW85121   2.956  10.726  10.150  0.4491  0.5943  0.2469
26024SOL    HW185122   2.933  10.783  10.223  0.3889  0.1850  0.5536
26024SOL    HW285123   2.919  10.769  10.073 -0.6060  0.3838  0.6148
26025SOL     OW85124   1.697   0.656   8.516  0.2423 -0.6902  0.9789
26025SOL    HW185125   1.613   0.698   8.500 -0.0955 -1.1758  1.4493
26025SOL    HW285126   1.749   0.723   8.561  0.1318 -0.3761  0.6517
26026SOL     OW85127   2.252   8.247   2.700 -0.2842  0.3583 -0.1889
26026SOL    HW185128   2.274   8.284   2.785  0.6148 -0.2594 -0.1300
26026SOL    HW285129   2.184   8.182   2.719 -0.0244  0.1606  0.0735
26027SOL     OW85130   7.558  10.939   0.345 -0.0576 -0.5001  0.2511
26027SOL    HW185131   7.518  11.024   0.327  0.1958 -0.1418  1.3158
26027SOL    HW285132   7.534  10.920   0.436  2.9403  0.1661  1.2715
26028SOL     OW85133   2.205   1.413   3.612 -0.1502  0.5714  0.4585
26028SOL    HW185134   2.113   1.390   3.621 -0.6758  1.4986 -1.8178
26028SOL    HW285135   2.214   1.443   3.521  2.4077  0.4781  0.5969
26029SOL     OW85136   1.192   0.705   1.134 -0.3367  1.1722 -0.3638
26029SOL    HW185137   1.277   0.741   1.160  0.1131  0.5259 -0.8947
26029SOL    HW285138   1.138   0.712   1.213  0.9216 -0.5198  0.7218
26030SOL     OW85139  12.207   0.672   1.834  0.7558  0.2051 -0.1760
26030SOL    HW185140  12.150   0.598   1.812  1.2242  0.2803 -1.7717
26030SOL    HW285141  12.194   0.686   1.928 -0.5953 -0.8307 -0.1887
26031SOL     OW85142   9.246   8.914   4.631  0.1582 -0.0122 -0.5429
26031SOL    HW185143   9.150   8.922   4.634  0.1702  0.1184 -0.4801
26031SOL    HW285144   9.276   9.003   4.612  0.3077  0.1474  0.3779
26032SOL     OW85145   9.868   4.042   1.607  0.0055 -0.2182  0.3682
26032SOL    HW185146   9.903   3.962   1.648 -0.4169 -1.8975 -2.3225
26032SOL    HW285147   9.910   4.045   1.521  0.4760  2.8729  0.5870
26033SOL     OW85148   2.083   4.959   2.471  1.2320  0.3043 -0.3010
26033SOL    HW185149   2.068   5.046   2.436  0.0427  0.5612  0.7510
26033SOL    HW285150   2.131   4.913   2.403  1.7645  1.7372 -0.9194
26034SOL     OW85151   6.348  11.794   3.689  0.2348  0.4893  0.9666
26034SOL    HW185152   6.329  11.865   3.750  0.6868  1.2255  0.2607
26034SOL    HW285153   6.389  11.836   3.613 -0.4252 -0.3804  0.0878
26035SOL     OW85154  11.613   5.038   3.540  0.0746 -0.7427  0.3600
26035SOL    HW185155  11.593   4.949   3.509  0.2444 -0.5898 -0.2061
26035SOL    HW285156  11.595   5.035   3.633 -1.5172 -0.9227  0.0744
26036SOL     OW85157   7.111   1.846   7.043 -0.9037 -0.4836 -0.8125
26036SOL    HW185158   7.181   1.847   6.978 -0.0787  0.7906  0.0558
26036SOL    HW285159   7.156   1.824   7.125 -1.7016 -0.6843 -0.4254
26037SOL     OW85160   8.698   5.110   5.204  0.5040 -0.0673  0.3691
26037SOL    HW185161   8.763   5.092   5.136  0.3133  0.0284  0.1577
26037SOL    HW285162   8.645   5.030   5.207  1.2881 -0.5734  1.3003
26038SOL     OW85163  12.440  10.370   9.433 -0.4632 -0.6174 -0.0385
26038SOL    HW185164  12.466  10.280   9.414 -0.7904 -0.6929 -0.1302
26038SOL    HW285165  12.519  10.411   9.469  0.0824 -0.5476 -1.2691
26039SOL     OW85166   6.820   2.197  10.256  0.2574 -0.4016  0.2902
26039SOL    HW185167   6.784   2.164  10.338 -1.9882 -1.8239 -1.1678
26039SOL    HW285168   6.799   2.130  10.191  2.3643  0.4575 -1.4199
26040SOL     OW85169  11.018   4.537   7.334  0.0375 -0.1721  0.5254
26040SOL    HW185170  11.014   4.444   7.357  0.1842 -0.4412 -0.5003
26040SOL    HW285171  11.109   4.562   7.350  0.4225 -0.6460 -0.7671
26041SOL     OW85172   0.523   0.845   9.562  0.3566  0.3667 -0.1429
26041SOL    HW185173   0.483   0.839   9.475 -1.5440  0.0729  0.6931
26041SOL    HW285174   0.580   0.769   9.567  0.4285  0.3461 -1.1114
26042SOL     OW85175   3.009   2.064   3.543 -0.2354  0.2977 -0.7521
26042SOL    HW185176   2.957   2.119   3.601 -0.6218 -0.7333 -0.0960
26042SOL    HW285177   3.100   2.091   3.559 -0.4568  1.1877 -0.9350
26043SOL     OW85178   9.992   5.906   8.321 -0.0998  0.3661  0.4087
26043SOL    HW185179  10.011   5.988   8.366  0.9548  1.4381 -1.8766
26043SOL    HW285180   9.931   5.930   8.251 -1.4166 -1.2021  0.9300
26044SOL     OW85181   5.877   4.248   1.881  0.0603  0.1957 -0.5001
26044SOL    HW185182   5.846   4.315   1.820  1.6764  0.7334 -0.7716
26044SOL    HW285183   5.800   4.227   1.934 -0.6874  1.6991 -0.9285
26045SOL     OW85184   9.036   1.050   5.964  0.5121 -0.2677  0.3062
26045SOL    HW185185   9.054   0.971   5.914  1.0184  0.4296 -0.6368
26045SOL    HW285186   8.943   1.066   5.952  0.7416  0.2409 -0.9649
26046SOL     OW85187   6.180   2.274  12.471  0.0570 -0.3502  0.1452
26046SOL    HW185188   6.096   2.233  12.452 -0.0287  0.2514 -0.7962
26046SOL    HW285189   6.175   2.295  12.565  0.2467 -2.7832  0.7855
26047SOL     OW85190   8.288   9.872   0.856 -0.4213 -0.4864 -0.3738
26047SOL    HW185191   8.332   9.956   0.869 -2.8086  0.6290  1.1201
26047SOL    HW285192   8.279   9.836   0.944  0.4228 -2.3064 -0.9745
26048SOL     OW85193   7.097   0.841   1.827  0.2602 -0.1097  0.5770
26048SOL    HW185194   7.065   0.891   1.903 -0.2243  0.2935  0.1202
26048SOL    HW285195   7.172   0.891   1.796 -0.6345  0.7407 -0.2924
26049SOL     OW85196   2.871  12.494   6.322 -0.6317 -0.1932  0.0461
26049SOL    HW185197   2.812  12.419   6.328  0.2597 -0.7896  2.2388
26049SOL    HW285198   2.929  12.473   6.248 -0.8566 -1.3200  0.1685
26050SOL     OW85199   2.027  11.061  10.526  0.1344 -0.1319  0.8714
26050SOL    HW185200   2.082  11.062  10.604  0.8146  1.1902  0.4121
26050SOL    HW285201   2.075  11.005  10.464 -0.2502 -0.9266  1.2812
26051SOL     OW85202   7.635   5.814   3.367 -0.3814 -0.2125  0.4052
26051SOL    HW185203   7.669   5.731   3.333  2.9617  0.5905  1.4280
26051SOL    HW285204   7.622   5.798   3.461  3.1297  1.0302  1.2610
26052SOL     OW85205   9.380   6.538   3.839 -0.0856  0.3496  0.4520
26052SOL    HW185206   9.313   6.484   3.796  0.6475 -0.4633  0.3038
26052SOL    HW285207   9.416   6.482   3.908  0.7210  0.6207  0.2654
26053SOL     OW85208   1.229  10.322   6.062 -0.3335 -0.3302 -0.5689
26053SOL    HW185209   1.146  10.362   6.089  0.0175 -0.8623  1.5428
26053SOL    HW285210   1.295  10.390   6.076 -0.0200 -0.8991  1.0074
26054SOL     OW85211   2.965   7.862   5.387  0.3977 -0.1789 -0.2381
26054SOL    HW185212   2.952   7.815   5.304 -0.8896 -1.5273  0.6678
26054SOL    HW285213   2.900   7.932   5.385 -0.5402 -1.0126  0.1578
26055SOL     OW85214   2.779   1.057   3.444 -0.2737  0.1413 -0.2959
26055SOL    HW185215   2.717   1.130   3.451 -0.1075  0.1763  1.2138
26055SOL    HW285216   2.735   0.995   3.385 -1.1878  0.7119 -0.2479
26056SOL     OW85217   8.550   0.846   1.319  0.2084 -0.0968  0.5199
26056SOL    HW185218   8.576   0.903   1.392  0.7528 -1.1214  1.1522
26056SOL    HW285219   8.512   0.769   1.362 -0.3991 -0.2728 -0.3156
26057SOL     OW85220   4.185   4.855   0.486  0.0324 -0.4044  0.5711
26057SOL    HW185221   4.239   4.802   0.546  1.1674 -0.4771 -0.4722
26057SOL    HW285222   4.246   4.917   0.448 -1.0527  0.8673  0.8494
26058SOL     OW85223   3.803   6.155   3.410  0.0541 -0.4821 -0.1103
26058SOL    HW185224   3.871   6.142   3.476 -0.4940 -0.3066  0.5008
26058SOL    HW285225   3.760   6.070   3.403 -0.9990 -0.0788  1.0338
26059SOL     OW85226   5.137   3.840   5.600 -0.0860  0.4491 -0.6188
26059SOL    HW185227   5.203   3.815   5.536 -1.1278 -1.5549 -0.9968
26059SOL    HW285228   5.054   3.814   5.560 -0.7358 -1.4602  1.7124
26060SOL     OW85229   7.283   6.826   4.327 -0.6881 -0.1521 -0.7263
26060SOL    HW185230   7.187   6.822   4.324 -0.9385  2.9022  0.3682
26060SOL    HW285231   7.303   6.889   4.395  2.2035 -1.5501 -0.1211
26061SOL     OW85232   7.190   1.426  10.308 -1.0809  0.4031 -0.3034
26061SOL    HW185233   7.109   1.390  10.345 -1.0704  0.5992 -0.0828
26061SOL    HW285234   7.245   1.350  10.293  0.2700  0.4542  3.3001
26062SOL     OW85235   6.285   9.820   0.840 -0.7299  0.7035  0.2583
26062SOL    HW185236   6.236   9.850   0.917 -2.0446 -1.5279  0.3927
26062SOL    HW285237   6.374   9.849   0.856 -0.9132  0.1771  2.7760
26063SOL     OW85238  10.367   5.930   8.478 -0.2964  0.2993 -0.2150
26063SOL    HW185239  10.413   5.851   8.452  3.3194  1.6671  1.2996
26063SOL    HW285240  10.347   5.975   8.396 -0.4585 -1.1436 -0.9939
26064SOL     OW85241   1.329   8.959   8.823  0.0217 -0.3664 -0.3714
26064SOL    HW185242   1.282   8.981   8.904  0.2917 -1.1374  0.0003
26064SOL    HW285243   1.421   8.957   8.849  0.2554  0.8773 -1.0399
26065SOL     OW85244   5.313  10.797   4.963  0.6357 -0.6454  0.4635
26065SOL    HW185245   5.278  10.715   4.997  1.3911 -0.2904  2.1854
26065SOL    HW285246   5.250  10.864   4.989  1.1849 -0.3799  1.1540
26066SOL     OW85247  10.537   5.110   7.276  0.5246 -0.9666 -0.4242
26066SOL    HW185248  10.540   5.174   7.205  0.7466 -0.1382  0.3163
26066SOL    HW285249  10.443   5.095   7.291  0.4335 -0.0568  0.0408
26067SOL     OW85250   9.227   0.866   4.629  0.3988  0.0393 -0.2680
26067SOL    HW185251   9.240   0.952   4.668  0.5749  0.9911 -2.3055
26067SOL    HW285252   9.314   0.828   4.623  0.5449  0.4626 -0.9378
26068SOL     OW85253   1.112   0.623   8.807  0.5098  0.6413 -0.0640
26068SOL    HW185254   1.022   0.644   8.784  0.9745  0.1257 -2.6383
26068SOL    HW285255   1.152   0.593   8.726  2.4650 -1.1534  1.4387
26069SOL     OW85256   2.583  10.883   4.848 -0.3086 -0.2837 -0.2369
26069SOL    HW185257   2.665  10.914   4.885 -0.2391 -0.0334 -0.5917
26069SOL    HW285258   2.607  10.852   4.760 -0.5393 -0.4963 -0.2267
26070SOL     OW85259   9.720  12.416   2.551  0.1911  0.2279 -0.6163
26070SOL    HW185260   9.758  12.366   2.624  0.9970  1.1348 -0.3848
26070SOL    HW285261   9.666  12.353   2.504  1.1775 -0.8615 -0.3447
26071SOL     OW85262   8.945   4.440   9.577 -0.0906 -0.6183 -0.3714
26071SOL    HW185263   8.943   4.491   9.496  1.9100 -0.8074 -0.6085
26071SOL    HW285264   8.998   4.493   9.637  1.3184 -1.9712 -0.3492
26072SOL     OW85265  11.929  12.425   1.757  0.0110  0.6515  0.3874
26072SOL    HW185266  11.849  12.470   1.731  1.0606  2.4125  0.0296
26072SOL    HW285267  11.972  12.403   1.674 -0.1347 -0.3876  0.5743
26073SOL     OW85268  12.291  10.918   4.426  0.6059 -0.2488  0.0390
26073SOL    HW185269  12.255  11.001   4.457  0.7655 -0.5354  1.0006
26073SOL    HW285270  12.228  10.887   4.361  1.4146  1.4971 -1.7100
26074SOL     OW85271   7.281  11.412   1.888 -0.0892 -0.1839  0.9420
26074SOL    HW185272   7.253  11.347   1.952 -1.5799  0.2406  0.7716
26074SOL    HW285273   7.366  11.381   1.857 -0.0210 -1.1628  2.0519
26075SOL     OW85274   8.604   4.599  11.075  0.1468 -0.5200 -0.0060
26075SOL    HW185275   8.614   4.665  11.143 -0.4888 -0.3369 -0.0842
26075SOL    HW285276   8.512   4.605  11.049 -0.3103 -2.4037  0.9935
26076SOL     OW85277   0.353   2.832   7.610  0.5086 -0.2737  1.1011
26076SOL    HW185278   0.438   2.853   7.570  0.6543  0.7814  1.9250
26076SOL    HW285279   0.296   2.903   7.583  0.0873 -0.5808  1.1809
26077SOL     OW85280   8.572  11.425   5.658  0.7030  0.0581 -0.4235
26077SOL    HW185281   8.562  11.495   5.723  1.7006 -0.0433 -0.1534
26077SOL    HW285282   8.631  11.362   5.699  1.2600 -0.0653 -1.3948
26078SOL     OW85283   8.330  12.556   9.432 -0.5503 -0.1791 -0.1317
26078SOL    HW185284   8.340  12.569   9.526  0.6137 -1.3014 -0.0674
26078SOL    HW285285   8.266  12.621   9.405 -0.7599  0.2835  1.4047
26079SOL     OW85286   1.082   6.547   0.704 -0.2098 -0.2552 -0.0132
26079SOL    HW185287   1.102   6.587   0.789  1.9039  2.0072 -1.4196
26079SOL    HW285288   1.106   6.455   0.715  1.9949  0.3989  1.3206
26080SOL     OW85289  11.610   9.121  11.758  0.1219  0.1223 -0.1313
26080SOL    HW185290  11.666   9.048  11.782 -0.4910  0.1165  1.4790
26080SOL    HW285291  11.653   9.198  11.797  0.0722  0.4160 -0.6483
26081SOL     OW85292   3.595   3.189   0.876 -0.1821 -0.0233 -0.3650
26081SOL    HW185293   3.542   3.111   0.860  0.8973 -0.7068 -0.7718
26081SOL    HW285294   3.581   3.209   0.969  0.1202 -1.1931 -0.0411
26082SOL     OW85295   7.237   9.798  10.237 -0.2706 -0.1741 -0.4880
26082SOL    HW185296   7.332   9.787  10.239 -0.2565 -0.4857 -1.9199
26082SOL    HW285297   7.220   9.845  10.155 -1.1523  2.1987  0.9298
26083SOL     OW85298   9.850   3.456   4.753 -0.2522  0.0964  0.7118
26083SOL    HW185299   9.790   3.523   4.721 -0.5028  0.2565  1.4920
26083SOL    HW285300   9.925   3.460   4.693 -0.5787  0.5814  0.3285
26084SOL     OW85301   3.904   7.405   5.752  0.1484  0.6080 -0.2829
26084SOL    HW185302   3.913   7.487   5.802 -0.0226 -0.8527  2.3331
26084SOL    HW285303   3.824   7.418   5.700 -1.1075  1.3617  1.7018
26085SOL     OW85304   6.997   3.711   3.797  0.2470  0.4452 -0.2699
26085SOL    HW185305   7.034   3.655   3.729  0.4185  1.0543 -0.6891
26085SOL    HW285306   7.063   3.712   3.866 -0.6811 -1.6391  0.7574
26086SOL     OW85307   2.432   1.894  12.329 -0.4326  0.1730 -0.1799
26086SOL    HW185308   2.438   1.970  12.387  0.3460 -0.8334  1.1239
26086SOL    HW285309   2.351   1.908  12.279 -0.7073  1.4676  0.5829
26087SOL     OW85310   7.638   4.236   9.397 -0.1916 -0.0421 -0.7038
26087SOL    HW185311   7.732   4.251   9.386 -0.6290  2.3984 -1.5683
26087SOL    HW285312   7.617   4.169   9.331  1.1612 -1.9088  0.6330
26088SOL     OW85313  10.320   4.313   8.506 -0.1373 -0.3389 -0.3616
26088SOL    HW185314  10.310   4.372   8.431 -0.2857  0.8697  0.5890
26088SOL    HW285315  10.314   4.369   8.583 -0.3740 -1.6096  0.5875
26089SOL     OW85316   3.748  10.868   4.881  0.0038  0.5368 -0.0548
26089SOL    HW185317   3.710  10.956   4.881  0.1277  0.6036 -1.0503
26089SOL    HW285318   3.690  10.817   4.938 -0.0726  1.2520  0.5304
26090SOL     OW85319  11.523   2.785   5.095  0.5061 -0.1323  0.0378
26090SOL    HW185320  11.587   2.850   5.067  1.3417 -1.6354 -1.7926
26090SOL    HW285321  11.455   2.789   5.028  0.6345 -1.1770 -0.1769
26091SOL     OW85322   4.317   6.988   2.585  0.0353 -0.5409 -0.4714
26091SOL    HW185323   4.380   7.058   2.596 -0.1653 -0.7070  2.2119
26091SOL    HW285324   4.365   6.908   2.605 -0.7861 -0.7388  0.8131
26092SOL     OW85325   4.948   0.105   6.338  0.0922 -0.4127  0.1556
26092SOL    HW185326   4.972   0.132   6.249  1.8465 -0.4915  0.5701
26092SOL    HW285327   4.969   0.181   6.392 -0.3806 -0.5913  0.5908
26093SOL     OW85328   1.106  12.151   0.550 -0.2534  0.1885 -0.3598
26093SOL    HW185329   1.196  12.121   0.533 -0.6272 -1.1394 -0.1683
26093SOL    HW285330   1.067  12.079   0.600 -0.9757  1.4117  0.8949
26094SOL     OW85331   7.413   6.980   5.354 -0.4615 -0.5097  0.0388
26094SOL    HW185332   7.364   6.908   5.393 -0.3467 -2.3255 -2.8564
26094SOL    HW285333   7.390   6.976   5.261  4.0448 -0.6179 -1.2943
26095SOL     OW85334   4.181   6.369   2.556  0.2120  0.5477  0.3715
26095SOL    HW185335   4.262   6.319   2.544  0.0046  0.3021 -0.0519
26095SOL    HW285336   4.207   6.460   2.540  0.3991  0.4669  0.1946
26096SOL     OW85337   6.351   0.122   0.955 -0.2251 -0.1852 -0.1918
26096SOL    HW185338   6.304   0.043   0.928  0.1434 -0.6262  0.4277
26096SOL    HW285339   6.340   0.125   1.050 -1.7142  1.4652 -0.3497
26097SOL     OW85340   9.673   3.334   5.721  0.2433  0.2147 -0.3421
26097SOL    HW185341   9.608   3.270   5.689  0.9579 -2.6766  3.2918
26097SOL    HW285342   9.624   3.389   5.782  0.6050 -0.1505  0.2866
26098SOL     OW85343   5.671   9.681   1.832 -0.1209  0.1817  0.1369
26098SOL    HW185344   5.648   9.709   1.921 -0.8987  0.1318 -0.0463
26098SOL    HW285345   5.766   9.674   1.834 -0.0501  1.1416  0.6837
26099SOL     OW85346   9.307   7.809   3.789 -0.0323 -0.1851 -0.2678
26099SOL    HW185347   9.391   7.786   3.828 -0.1445  0.5537  0.4414
26099SOL    HW285348   9.309   7.770   3.701  1.8086  1.2988 -0.9610
26100SOL     OW85349   4.055   4.958   1.543  0.3660  0.1752 -0.3392
26100SOL    HW185350   4.089   5.009   1.617 -1.7782 -0.4642  1.1792
26100SOL    HW285351   4.103   4.875   1.548 -0.7294 -0.4295  1.3144
26101SOL     OW85352   4.800   0.987   3.701 -0.1123 -0.4302  0.0805
26101SOL    HW185353   4.795   1.064   3.644  2.4662 -1.2540 -1.4197
26101SOL    HW285354   4.887   0.992   3.740 -0.2098 -2.1465  0.5880
26102SOL     OW85355   6.519   0.669   8.083  0.0670 -0.3630 -0.0213
26102SOL    HW185356   6.599   0.626   8.110 -0.0118 -0.2154  0.4504
26102SOL    HW285357   6.506   0.739   8.147  0.0254  0.1606 -0.5886
26103SOL     OW85358   7.950   9.215   0.176 -0.4387  0.0175  0.0326
26103SOL    HW185359   8.003   9.139   0.198  0.3938  1.1583  2.2518
26103SOL    HW285360   7.968   9.232   0.083  2.7597  0.0779  0.5694
26104SOL     OW85361  11.856   6.594   1.161 -0.0390  0.7106  0.4194
26104SOL    HW185362  11.782   6.534   1.161 -0.7360  1.5138 -1.0664
26104SOL    HW285363  11.824   6.672   1.207  0.7267  0.1594  1.9700
26105SOL     OW85364   6.816   0.159   2.692 -0.1678 -0.1246 -0.1243
26105SOL    HW185365   6.764   0.179   2.770  2.7727 -0.3721  2.1125
26105SOL    HW285366   6.752   0.138   2.624 -2.9116  0.3136  2.1479
26106SOL     OW85367  10.146  11.016   3.280 -0.4942  0.1315 -0.0369
26106SOL    HW185368  10.237  11.034   3.255 -1.1937  1.2489 -1.9535
26106SOL    HW285369  10.140  10.920   3.282  0.7254  0.0402  0.2042
26107SOL     OW85370   6.213   4.022   4.948 -0.0572  0.2275  0.0839
26107SOL    HW185371   6.154   3.949   4.962 -0.0219 -0.0423 -1.0555
26107SOL    HW285372   6.299   3.981   4.934 -0.3222  0.3111 -2.2749
26108SOL     OW85373   4.606  10.747  10.925 -0.0058  0.0786 -0.1370
26108SOL    HW185374   4.700  10.756  10.909  0.4471 -0.1807  2.0641
26108SOL    HW285375   4.583  10.661  10.891  0.8973 -0.4785  0.6263
26109SOL     OW85376   9.666   7.070   2.275  0.7562  0.3209  0.6511
26109SOL    HW185377   9.708   6.984   2.270 -0.0389 -0.2162  2.4319
26109SOL    HW285378   9.738   7.133   2.275  1.4235 -0.4380  0.8983
26110SOL     OW85379   6.645   3.628   5.092 -0.1008 -0.1392 -0.0036
26110SOL    HW185380   6.647   3.548   5.145 -0.8204 -0.1291  0.0488
26110SOL    HW285381   6.591   3.605   5.017  0.7977 -0.1065 -0.6806
26111SOL     OW85382   5.245   5.948   7.947 -0.5944 -1.0086 -0.0960
26111SOL    HW185383   5.222   5.997   8.026  0.6196  0.2333 -0.4744
26111SOL    HW285384   5.177   5.882   7.939 -1.6138 -0.1497  1.1221
26112SOL     OW85385   2.598  10.865   9.942 -0.0472 -0.1464 -0.1781
26112SOL    HW185386   2.593  10.951   9.900 -2.9159 -0.9787 -1.8367
26112SOL    HW285387   2.692  10.850   9.955  0.5383  3.3466  0.5853
26113SOL     OW85388   1.762   4.778   5.605  0.6361  0.0855 -0.2459
26113SOL    HW185389   1.718   4.859   5.578 -0.5407 -1.0437 -1.8663
26113SOL    HW285390   1.693   4.712   5.608  1.7471 -1.1126  0.0498
26114SOL     OW85391  10.126   9.905   2.334  0.0092  0.1099  0.2128
26114SOL    HW185392  10.087   9.847   2.269  0.2461 -0.4527  0.5662
26114SOL    HW285393  10.096   9.872   2.418 -1.0250  1.3846  0.3683
26115SOL     OW85394   7.854   2.320   5.711 -0.1833 -0.2482 -0.1575
26115SOL    HW185395   7.888   2.404   5.681 -0.8869  0.8607  1.9117
26115SOL    HW285396   7.848   2.329   5.806 -2.1278 -1.9205 -0.0399
26116SOL     OW85397   2.454  12.329   4.882  0.8428 -0.4377 -0.0086
26116SOL    HW185398   2.374  12.380   4.864  1.4737  0.4359 -0.3926
26116SOL    HW285399   2.422  12.248   4.921 -0.4867 -1.5265 -3.0345
26117SOL     OW85400  10.165   5.945   8.011  0.1857 -0.5577  0.5638
26117SOL    HW185401  10.188   5.854   8.029  0.9901 -0.5551 -0.3966
26117SOL    HW285402  10.093   5.964   8.072  0.2827 -1.7011  1.0552
26118SOL     OW85403   7.851   4.997   6.041 -0.0330 -0.4607  0.3951
26118SOL    HW185404   7.937   4.971   6.010 -0.5186 -0.7421 -0.7624
26118SOL    HW285405   7.861   5.003   6.136  1.6980  1.1521  0.1807
26119SOL     OW85406  11.390  10.247   5.902  0.1736  0.4175  0.0499
26119SOL    HW185407  11.334  10.295   5.842  1.2126 -0.1142 -1.4100
26119SOL    HW285408  11.472  10.298   5.904  1.3871 -1.3253 -1.7284
26120SOL     OW85409   1.348  11.424   5.168 -0.0604  0.4747 -0.5077
26120SOL    HW185410   1.299  11.481   5.108  1.3015  2.1610 -0.0775
26120SOL    HW285411   1.440  11.442   5.149  0.4086 -0.5682  0.6237
26121SOL     OW85412  12.496   3.764   3.346  0.2577  0.0414  0.1767
26121SOL    HW185413  12.484   3.725   3.433 -1.1719 -0.7362 -0.3219
26121SOL    HW285414  12.407   3.779   3.315  0.7696  1.9750 -0.4545
26122SOL     OW85415   9.512   8.727   0.812  1.0098 -0.1413  0.3889
26122SOL    HW185416   9.586   8.669   0.793 -0.2673 -1.3723 -1.0544
26122SOL    HW285417   9.486   8.762   0.727 -1.8688 -2.0296  0.3757
26123SOL     OW85418   4.231   4.421  11.592 -0.0136  0.2466  0.2439
26123SOL    HW185419   4.152   4.446  11.543 -0.6301  0.7715  1.4614
26123SOL    HW285420   4.262   4.504  11.630 -1.0208 -0.4663  2.8283
26124SOL     OW85421   5.056   1.792   7.836 -0.5562  0.2920 -0.2796
26124SOL    HW185422   5.053   1.697   7.839 -1.3149  0.3228  1.7169
26124SOL    HW285423   5.038   1.814   7.745  0.5193 -1.4731 -0.9620
26125SOL     OW85424   9.462   1.504   5.726  0.2323  0.3137  0.3543
26125SOL    HW185425   9.452   1.589   5.769  0.2334  0.8911 -0.7536
26125SOL    HW285426   9.381   1.457   5.746 -0.9918  1.6246 -1.2652
26126SOL     OW85427   5.633   5.889   3.465 -0.4086 -0.0560  0.8315
26126SOL    HW185428   5.618   5.815   3.407 -0.1638  0.7706 -0.3235
26126SOL    HW285429   5.604   5.859   3.551 -1.4161 -1.0791  0.1590
26127SOL     OW85430   8.281   4.075   1.040 -0.2297  0.4177 -0.2043
26127SOL    HW185431   8.237   4.160   1.039  2.4639  1.9443  0.3963
26127SOL    HW285432   8.248   4.032   1.119  0.4739  2.1920  1.1380
26128SOL     OW85433   8.025   3.136   9.738 -0.6423  0.2659  0.2036
26128SOL    HW185434   8.092   3.112   9.802 -0.1050  0.6880 -0.1871
26128SOL    HW285435   7.948   3.156   9.791 -0.9599 -1.7616  0.5664
26129SOL     OW85436   9.295   4.854   6.836  0.1995 -0.3596  0.8777
26129SOL    HW185437   9.204   4.828   6.828 -0.3247  1.6171 -0.1669
26129SOL    HW285438   9.343   4.790   6.782 -0.8438 -0.0729 -0.4275
26130SOL     OW85439   4.182   3.231   3.522  0.5162 -0.2750  0.6386
26130SOL    HW185440   4.112   3.288   3.552  0.9786  0.5839  0.1247
26130SOL    HW285441   4.151   3.196   3.438  0.5633 -0.1504  0.5690
26131SOL     OW85442  11.063  11.544   7.512  0.1655 -0.4580 -0.9349
26131SOL    HW185443  11.049  11.509   7.424 -1.5047 -2.0730 -0.1006
26131SOL    HW285444  11.041  11.637   7.506 -1.2681 -0.8353 -1.9376
26132SOL     OW85445   8.790  10.437   5.780  0.0198 -0.0981 -0.0250
26132SOL    HW185446   8.874  10.419   5.823 -1.1153 -0.6325  2.1512
26132SOL    HW285447   8.753  10.350   5.766 -1.8489  0.1185  2.7771
26133SOL     OW85448  12.490  11.078   2.924  0.3129  1.0364  0.4117
26133SOL    HW185449  12.520  11.119   2.842  0.3177  0.6861  0.2363
26133SOL    HW285450  12.469  11.152   2.981  0.4016  1.2843  0.1278
26134SOL     OW85451   5.618   3.807   3.003 -0.3331  0.6851 -0.3273
26134SOL    HW185452   5.643   3.747   2.932 -0.3193  0.0043  0.2444
26134SOL    HW285453   5.587   3.886   2.958  0.9655  0.7979 -1.0784
26135SOL     OW85454  10.397   6.814   7.754  0.0420 -0.0445 -0.0993
26135SOL    HW185455  10.412   6.720   7.764  0.1030 -0.2146 -1.5657
26135SOL    HW285456  10.386   6.827   7.660  0.1635  1.4401  0.0604
26136SOL     OW85457   3.738   9.276   7.571 -0.0587 -0.2220 -0.5502
26136SOL    HW185458   3.646   9.258   7.592  0.4094 -0.8042  1.1073
26136SOL    HW285459   3.787   9.207   7.615  1.1653 -0.2237 -1.8577
26137SOL     OW85460   6.686   3.095   7.463 -0.5755  0.0109 -0.0931
26137SOL    HW185461   6.742   3.160   7.506  0.7928 -1.3241  0.2343
26137SOL    HW285462   6.719   3.011   7.494 -2.0411 -0.8669 -0.8147
26138SOL     OW85463   8.372   8.862   1.487 -0.1807  0.1341  0.4850
26138SOL    HW185464   8.433   8.809   1.539  0.4359  1.1434  0.8150
26138SOL    HW285465   8.316   8.904   1.553  0.4606  1.2464  0.3442
26139SOL     OW85466   2.122   8.877   1.469  0.1320  0.2062  0.2063
26139SOL    HW185467   2.040   8.838   1.500  0.9383 -0.9088  1.0084
26139SOL    HW285468   2.173   8.803   1.437  1.8817  0.5116  2.1480
26140SOL     OW85469   0.390   9.234   9.710 -0.1324  0.0080 -0.2770
26140SOL    HW185470   0.478   9.255   9.677 -0.2803  0.3824 -0.4470
26140SOL    HW285471   0.394   9.257   9.803  0.1500 -0.6186 -0.1310
26141SOL     OW85472   6.895   5.332  11.611  0.4216 -0.0344  0.0447
26141SOL    HW185473   6.805   5.340  11.644  0.8683  1.6783  0.9815
26141SOL    HW285474   6.886   5.327  11.516 -0.7862 -2.7968  0.2202
26142SOL     OW85475  12.143  12.073   5.744 -0.4142  0.0794  0.1586
26142SOL    HW185476  12.149  12.162   5.778  0.4163 -0.0595  0.3864
26142SOL    HW285477  12.229  12.035   5.761 -0.2957 -0.3145 -1.1838
26143SOL     OW85478   8.275   6.144  12.335  0.5010  0.4114  0.0348
26143SOL    HW185479   8.223   6.096  12.271  0.1131 -0.1360  0.7347
26143SOL    HW285480   8.362   6.105  12.329  0.1246 -0.5899  0.7773
26144SOL     OW85481   9.822   7.676   5.653  0.1322 -0.0615  0.0175
26144SOL    HW185482   9.910   7.646   5.631 -0.4091 -0.1307 -2.2275
26144SOL    HW285483   9.837   7.754   5.707  1.5719  0.0356 -0.4615
26145SOL     OW85484   7.813   3.472   9.609  0.3857 -0.1408  0.2843
26145SOL    HW185485   7.750   3.403   9.588 -0.3085  0.9865 -1.5672
26145SOL    HW285486   7.762   3.538   9.656  0.3594  0.3815 -0.4579
26146SOL     OW85487   8.643   4.742   0.575  0.1747 -0.3153  0.6243
26146SOL    HW185488   8.657   4.784   0.660  0.1304  0.7591  0.1074
26146SOL    HW285489   8.730   4.743   0.534 -0.1600  0.8559 -0.0934
26147SOL     OW85490   1.211   6.738   0.312  0.2319 -0.0659  0.2009
26147SOL    HW185491   1.219   6.739   0.216 -0.8816  2.4677  0.0515
26147SOL    HW285492   1.301   6.738   0.344  0.6214  0.2639 -0.8657
26148SOL     OW85493  12.312   3.022   7.692  0.2795 -0.1218 -0.4237
26148SOL    HW185494  12.407   3.022   7.685  0.3103 -1.0718 -0.0756
26148SOL    HW285495  12.295   3.044   7.784  0.2720 -3.1011  0.3832
26149SOL     OW85496   7.668  10.882   5.876  0.1209  0.1050  0.1275
26149SOL    HW185497   7.701  10.897   5.788 -1.1844 -1.3252 -0.6527
26149SOL    HW285498   7.618  10.800   5.870  0.3030 -0.2344  2.2802
26150SOL     OW85499   9.877   4.602   8.580 -0.8559 -0.9878 -0.1169
26150SOL    HW185500   9.927   4.640   8.507 -0.0496  1.0508  1.4107
26150SOL    HW285501   9.839   4.522   8.543  0.8867 -0.9266 -2.2747
26151SOL     OW85502  12.452  11.908   0.654 -0.3327  0.5447 -0.0571
26151SOL    HW185503  12.375  11.965   0.652  0.4415  1.6175 -1.0662
26151SOL    HW285504  12.503  11.934   0.577  0.6532 -0.6901  0.1389
26152SOL     OW85505   6.524   9.922   3.101 -0.1611  0.1019  0.1252
26152SOL    HW185506   6.431   9.940   3.084 -0.1287 -0.8632 -1.2805
26152SOL    HW285507   6.543   9.967   3.183 -1.4737  1.6490 -0.3631
26153SOL     OW85508  11.558  10.549  11.179 -0.4744 -0.1998 -0.4217
26153SOL    HW185509  11.557  10.487  11.106 -2.1169  0.5056 -1.0396
26153SOL    HW285510  11.480  10.604  11.166 -0.2192  0.6427  1.2648
26154SOL     OW85511   9.827  12.444   5.741 -0.0817 -0.1450  0.3815
26154SOL    HW185512   9.789  12.357   5.729 -0.3530  0.0010  0.1669
26154SOL    HW285513   9.852  12.471   5.652  1.1465 -0.5180  0.5929
26155SOL     OW85514   0.985   6.266   8.638  0.6698  0.0399  0.5182
26155SOL    HW185515   0.932   6.346   8.637  0.7026  0.0705  0.9420
26155SOL    HW285516   0.943   6.210   8.703  0.9789 -0.0564  0.6404
26156SOL     OW85517   5.654   0.340   9.099 -1.1795 -0.9384 -0.6147
26156SOL    HW185518   5.712   0.380   9.034 -2.5024  2.0639 -0.1565
26156SOL    HW285519   5.574   0.320   9.050 -0.6763 -2.7275 -0.7422
26157SOL     OW85520   3.137   5.580  11.867 -0.1315  0.0776  0.3850
26157SOL    HW185521   3.094   5.498  11.843 -0.9908  0.7321 -0.3703
26157SOL    HW285522   3.096   5.646  11.811  0.0160  1.1521  1.4988
26158SOL     OW85523  12.464   3.907   3.716  0.1141 -0.2532  0.7883
26158SOL    HW185524  12.530   3.957   3.669 -0.5095  1.2872  1.4983
26158SOL    HW285525  12.495   3.905   3.807 -0.1812 -0.6370  0.8851
26159SOL     OW85526   1.943   7.629   4.197 -0.7739  0.6470 -0.0743
26159SOL    HW185527   1.910   7.543   4.171 -2.3705  1.0707  0.4052
26159SOL    HW285528   1.864   7.682   4.210  0.0380  1.4540  2.1516
26160SOL     OW85529  11.731   3.807   2.811  0.0011 -0.3715 -0.2472
26160SOL    HW185530  11.792   3.762   2.752 -0.2870  0.5559 -1.2807
26160SOL    HW285531  11.651   3.755   2.806  0.3627 -0.9961  0.2996
26161SOL     OW85532   1.064   5.161   7.646  0.0153 -0.1796  0.1198
26161SOL    HW185533   1.025   5.243   7.616  2.5115  0.8548 -0.5349
26161SOL    HW285534   1.158   5.179   7.652  0.3070 -2.0333  3.2115
26162SOL     OW85535  11.403  10.108   9.013 -0.2255 -0.7585 -0.4915
26162SOL    HW185536  11.319  10.140   8.980 -1.2969 -1.7042  1.1731
26162SOL    HW285537  11.397  10.013   9.007  1.5046 -0.8410 -2.0413
26163SOL     OW85538   8.716   4.005   0.054  0.4488  0.1566 -0.3901
26163SOL    HW185539   8.771   4.079   0.080 -0.9838  0.9980  0.3909
26163SOL    HW285540   8.657   4.041  -0.011  0.7145 -0.6970 -1.1180
26164SOL     OW85541   5.133  11.101   3.096  0.4404  0.6634 -0.7606
26164SOL    HW185542   5.155  11.008   3.108  0.9092  0.9253  0.5370
26164SOL    HW285543   5.191  11.131   3.027  1.0775  0.2592 -0.4120
26165SOL     OW85544   2.020   2.139   2.063 -0.4530 -0.6918  0.5396
26165SOL    HW185545   1.942   2.098   2.026 -0.6139 -1.7808  2.0199
26165SOL    HW285546   2.083   2.068   2.073  0.0662 -0.1705  1.0977
26166SOL     OW85547  11.134   6.886   2.155  0.9260 -0.0586  0.1626
26166SOL    HW185548  11.117   6.975   2.184 -1.9949 -0.6198  0.4813
26166SOL    HW285549  11.181   6.846   2.228 -0.3303  0.4405  1.2810
26167SOL     OW85550   0.150   1.911  10.722  0.3300 -0.3700 -0.2888
26167SOL    HW185551   0.208   1.846  10.764 -0.1917 -0.5095  0.2381
26167SOL    HW285552   0.129   1.873  10.637 -1.8917 -2.1130  0.9020
26168SOL     OW85553  11.323   9.899   1.218 -0.8698  0.7003  0.2002
26168SOL    HW185554  11.396   9.943   1.175 -0.7864 -0.1105 -0.5276
26168SOL    HW285555  11.248   9.956   1.202 -1.0137  0.0348 -1.8118
26169SOL     OW85556   9.189  12.394   8.252  1.0095  0.8449  0.5157
26169SOL    HW185557   9.153  12.464   8.197  3.9503 -0.6154 -3.8191
26169SOL    HW285558   9.129  12.321   8.239  1.9297  0.3662 -1.3381
26170SOL     OW85559   3.888  11.822   8.820  0.1659 -0.2183 -0.1196
26170SOL    HW185560   3.965  11.866   8.855 -0.2257  1.6297 -1.4174
26170SOL    HW285561   3.911  11.729   8.818  1.5591  0.0568  1.4233
26171SOL     OW85562   1.473  11.613   4.069  0.7918  0.6497  0.2614
26171SOL    HW185563   1.531  11.644   4.000  2.4583 -4.4473 -1.1016
26171SOL    HW285564   1.390  11.594   4.024  0.4714  1.1518  0.6267
26172SOL     OW85565   5.035   5.420   3.726 -0.3148 -0.3126 -0.0536
26172SOL    HW185566   5.072   5.337   3.694  0.5840  0.3895 -0.8866
26172SOL    HW285567   5.093   5.447   3.797 -1.6504 -1.2806  1.4847
26173SOL     OW85568   0.711   5.391   2.858  0.0406 -0.2400 -0.6128
26173SOL    HW185569   0.773   5.374   2.787 -1.1016 -1.5937 -1.3530
26173SOL    HW285570   0.626   5.402   2.814 -0.6102 -0.5960  0.5018
26174SOL     OW85571   5.256   4.874  11.280 -0.0479 -0.2192  0.5776
26174SOL    HW185572   5.216   4.957  11.306  0.3741  0.0501  0.3867
26174SOL    HW285573   5.290   4.837  11.361  2.4465  1.2499  0.3035
26175SOL     OW85574   1.876   6.677  12.355  0.6055 -0.5463 -0.0914
26175SOL    HW185575   1.929   6.736  12.408 -0.7731  0.3691  0.3074
26175SOL    HW285576   1.836   6.733  12.289  0.8932 -1.3854 -0.9991
26176SOL     OW85577   3.657   8.432   3.108  0.1898 -0.0821 -0.2606
26176SOL    HW185578   3.734   8.375   3.103 -0.8871 -1.4970 -1.3901
26176SOL    HW285579   3.674   8.487   3.185  2.1500 -0.5857 -0.2682
26177SOL     OW85580   5.777  10.334   7.509  0.3755  0.1486  0.2351
26177SOL    HW185581   5.858  10.333   7.560  0.6017  0.9211 -0.0855
26177SOL    HW285582   5.782  10.254   7.455  1.1224  0.3836 -0.0651
26178SOL     OW85583   1.000   2.521   9.569 -0.1107  0.3520  0.2655
26178SOL    HW185584   0.997   2.591   9.503 -0.9714 -0.8901 -1.0946
26178SOL    HW285585   0.932   2.459   9.540 -2.2100  0.8272  3.5928
26179SOL     OW85586   1.036   8.613  12.180 -0.3278  0.4067  0.0717
26179SOL    HW185587   1.065   8.676  12.115  2.2157  1.0627  1.6911
26179SOL    HW285588   1.076   8.530  12.153  0.2647  0.5569  0.4720
26180SOL     OW85589   9.497  11.167   2.343  0.3495  0.1415 -0.3495
26180SOL    HW185590   9.558  11.239   2.358 -0.5445  0.5512  1.6594
26180SOL    HW285591   9.521  11.101   2.408 -0.4224 -0.3010 -0.4954
26181SOL     OW85592   6.530   6.273   2.256  0.2662  0.3764  0.3065
26181SOL    HW185593   6.543   6.343   2.321 -0.3009  0.2609  0.5461
26181SOL    HW285594   6.600   6.210   2.276  0.1689  0.3977  0.7316
26182SOL     OW85595   7.747  10.066   4.621  0.0086 -0.1034  0.0751
26182SOL    HW185596   7.703  10.043   4.703  0.1519 -0.5226  0.0358
26182SOL    HW285597   7.834  10.027   4.628 -0.1535 -0.5913 -0.4894
26183SOL     OW85598   7.290  10.942   5.381 -0.1135 -0.9412 -0.1311
26183SOL    HW185599   7.242  10.921   5.461 -0.7117 -0.6672 -0.4109
26183SOL    HW285600   7.264  10.874   5.319  0.2216 -1.0604 -0.1389
26184SOL     OW85601   7.303   7.091   9.292  0.0305 -0.3849  0.0770
26184SOL    HW185602   7.384   7.133   9.318 -0.7656  0.3580  1.4734
26184SOL    HW285603   7.240   7.164   9.283 -0.3994 -0.8896 -1.4140
26185SOL     OW85604   3.792   1.764   0.942  0.8571 -0.0748 -0.2715
26185SOL    HW185605   3.736   1.715   1.002  0.1001 -0.8194 -1.5593
26185SOL    HW285606   3.822   1.839   0.994  0.8399 -1.0896  1.2653
26186SOL     OW85607   8.643  12.025   5.195  0.1982  0.0656 -0.2563
26186SOL    HW185608   8.611  12.113   5.175 -0.0836 -0.1553 -0.7978
26186SOL    HW285609   8.738  12.032   5.189  0.2837  0.7494  1.4411
26187SOL     OW85610  11.007   2.679   0.329  0.4312 -0.2871  0.2463
26187SOL    HW185611  10.972   2.764   0.300 -0.9182 -0.6753  0.7036
26187SOL    HW285612  11.096   2.677   0.292 -0.0891  0.6158 -1.1448
26188SOL     OW85613   8.495   5.262   6.422  0.1490 -0.2419 -0.1432
26188SOL    HW185614   8.497   5.318   6.500 -1.9236  0.2278 -0.3659
26188SOL    HW285615   8.523   5.319   6.351  3.2442 -0.9920  0.3422
26189SOL     OW85616   9.180   7.862   9.221  0.3425 -0.0932  0.5208
26189SOL    HW185617   9.173   7.767   9.207 -1.1100 -0.2206  1.8904
26189SOL    HW285618   9.215   7.895   9.138  1.0632 -1.8332  0.0717
26190SOL     OW85619   8.171  11.613   6.440 -0.2841  0.1401 -0.2048
26190SOL    HW185620   8.227  11.551   6.486 -0.4749 -0.2839 -0.5350
26190SOL    HW285621   8.230  11.680   6.407  0.0505 -0.3699 -0.6591
26191SOL     OW85622   8.876   6.538   5.620 -0.4459 -0.3114 -0.1556
26191SOL    HW185623   8.886   6.550   5.525 -3.7738  0.7624 -0.5058
26191SOL    HW285624   8.879   6.443   5.632  1.8559 -0.4135 -1.0026
26192SOL     OW85625   9.131   7.670   1.170 -0.3786 -0.3289  0.1735
26192SOL    HW185626   9.039   7.681   1.191 -0.6607 -1.1146 -0.6213
26192SOL    HW285627   9.159   7.595   1.221 -0.0827  0.1237  0.6846
26193SOL     OW85628  10.391   7.335   2.655 -0.1182 -0.2671  0.2374
26193SOL    HW185629  10.312   7.357   2.606 -0.4977  0.8511  1.3048
26193SOL    HW285630  10.463   7.357   2.595 -0.5934  0.2843 -0.1411
26194SOL     OW85631   4.649   4.952   1.956  0.0237  0.0612  0.0368
26194SOL    HW185632   4.592   4.966   1.880  0.1717  0.6312  0.0309
26194SOL    HW285633   4.616   4.870   1.994 -1.7888  1.1299  0.9104
26195SOL     OW85634   8.398   1.223  11.556 -0.5682  0.4150 -0.1753
26195SOL    HW185635   8.437   1.176  11.482 -1.5521 -0.6864 -0.0301
26195SOL    HW285636   8.464   1.288  11.581  0.7164 -0.6844 -0.5951
26196SOL     OW85637   9.201   4.089   6.358 -0.4386  0.0684 -0.1434
26196SOL    HW185638   9.275   4.101   6.417  0.1403 -0.3257 -0.7748
26196SOL    HW285639   9.193   4.173   6.312 -1.6211  0.7800  1.2820
26197SOL     OW85640   9.328   3.548   2.538 -0.0414 -0.2545  0.1506
26197SOL    HW185641   9.283   3.518   2.459  0.3759  1.7634 -0.9034
26197SOL    HW285642   9.310   3.479   2.603 -2.0824 -0.9824 -1.0900
26198SOL     OW85643   2.369   2.437  10.146  0.3737 -0.3445 -0.4236
26198SOL    HW185644   2.414   2.475  10.222  0.8722 -0.0316 -0.8727
26198SOL    HW285645   2.359   2.511  10.086 -0.8265 -0.3868 -0.2962
26199SOL     OW85646   1.504   2.835  10.852 -0.0122  0.5774  0.1028
26199SOL    HW185647   1.410   2.848  10.845 -0.0110  0.3137 -0.4939
26199SOL    HW285648   1.518   2.744  10.824  0.4918  0.8347 -0.5262
26200SOL     OW85649   2.226  12.116   2.070  0.0499  0.3463 -0.1077
26200SOL    HW185650   2.228  12.090   2.162  0.0266 -0.4377 -0.3296
26200SOL    HW285651   2.238  12.035   2.021 -1.5887  0.5010 -0.8303
26201SOL     OW85652  12.493   0.521   2.929 -0.5502 -0.0563  0.5796
26201SOL    HW185653  12.578   0.560   2.951 -0.7579  0.0176  1.2745
26201SOL    HW285654  12.513   0.429   2.908 -0.2527  0.0531  0.3835
26202SOL     OW85655   6.527   3.280   4.707  0.4445  0.3922 -0.0038
26202SOL    HW185656   6.489   3.215   4.767  0.0140  1.7187  1.2196
26202SOL    HW285657   6.620   3.258   4.704  0.3082 -0.2751  0.3968
26203SOL     OW85658  11.373   2.064  12.565 -0.2654 -0.0419  0.2099
26203SOL    HW185659  11.349   1.975  12.591  1.7941 -0.7159 -0.0735
26203SOL    HW285660  11.293   2.100  12.526 -0.6173 -2.4632 -1.4863
26204SOL     OW85661  11.110  11.683   8.412 -0.9085 -0.3560  0.0421
26204SOL    HW185662  11.096  11.590   8.391 -1.2976 -0.4460  0.6435
26204SOL    HW285663  11.022  11.721   8.409 -0.5601  0.3806 -1.8728
26205SOL     OW85664   1.322   0.826   4.646  0.2877 -0.3591 -0.2790
26205SOL    HW185665   1.317   0.811   4.552 -0.6027 -3.8663  0.1716
26205SOL    HW285666   1.412   0.805   4.669  0.2066 -0.6548 -0.2237
26206SOL     OW85667   1.191   9.442   8.157 -0.3755 -0.1808  0.1414
26206SOL    HW185668   1.192   9.353   8.121  1.0578  0.0687 -0.5202
26206SOL    HW285669   1.106   9.477   8.132 -0.5395 -1.0137 -0.5230
26207SOL     OW85670   6.005  12.119   7.462 -0.0037  0.2133 -0.7028
26207SOL    HW185671   6.101  12.120   7.456  0.0619 -0.0622  0.1554
26207SOL    HW285672   5.985  12.033   7.497 -0.4628  0.8546  0.6542
26208SOL     OW85673  11.542   8.621   3.331 -0.7452  0.3902  0.0318
26208SOL    HW185674  11.621   8.619   3.384 -0.6412  0.3317 -0.1252
26208SOL    HW285675  11.483   8.681   3.377 -0.8574 -0.0785  0.5003
26209SOL     OW85676   6.914   6.238  10.273  0.3966  0.1334  0.0509
26209SOL    HW185677   6.906   6.328  10.244  2.8882 -0.1763 -1.8563
26209SOL    HW285678   6.884   6.185  10.199 -0.2730 -0.6462  0.8460
26210SOL     OW85679  12.483  10.034   7.953  0.3921  0.3622 -0.0321
26210SOL    HW185680  12.550  10.013   7.887  1.4783  0.1524  1.0961
26210SOL    HW285681  12.526  10.096   8.012 -0.5598  0.5555  0.4788
26211SOL     OW85682   5.498   1.625   0.680 -0.0681 -0.0503  0.2191
26211SOL    HW185683   5.557   1.699   0.666 -0.3523 -0.4024 -4.4878
26211SOL    HW285684   5.413   1.657   0.649 -0.5770 -1.7928 -0.2877
26212SOL     OW85685   0.847  11.487   6.466 -0.1364  0.1769  0.8382
26212SOL    HW185686   0.784  11.425   6.503  0.8848 -0.4274  1.5923
26212SOL    HW285687   0.876  11.446   6.385 -0.7469  0.4851  0.4572
26213SOL     OW85688   7.184   5.503   6.644  0.2579 -0.3842  0.8344
26213SOL    HW185689   7.128   5.484   6.569 -1.1327 -0.3956  1.8442
26213SOL    HW285690   7.180   5.598   6.654  1.5210 -0.2218  0.1213
26214SOL     OW85691  11.005   6.335   8.957 -0.5595  0.2520  0.0486
26214SOL    HW185692  11.012   6.241   8.943 -1.6270  0.0979  0.4920
26214SOL    HW285693  11.077   6.355   9.017 -1.7910 -0.7394  1.9861
26215SOL     OW85694  11.640   0.353   8.539  0.5626 -0.1048 -0.4876
26215SOL    HW185695  11.649   0.324   8.630 -1.0372  0.9736  0.0698
26215SOL    HW285696  11.593   0.436   8.545  1.7776  0.7838 -2.2271
26216SOL     OW85697   7.381  10.663  10.948  0.1579  0.6161  0.1256
26216SOL    HW185698   7.410  10.721  11.018  1.7124 -1.3824  1.2546
26216SOL    HW285699   7.330  10.595  10.992  1.5985 -0.9706 -0.5212
26217SOL     OW85700   5.538   0.968   3.045  0.3886 -0.2378  1.2094
26217SOL    HW185701   5.617   1.017   3.066  0.8177  0.3855 -1.5076
26217SOL    HW285702   5.549   0.943   2.953 -3.2779  1.4565  0.1077
26218SOL     OW85703   3.437  11.087   5.939 -0.2441  0.0105 -0.0573
26218SOL    HW185704   3.349  11.112   5.913 -0.2774 -0.9216 -0.8878
26218SOL    HW285705   3.464  11.020   5.875 -0.5281 -2.7973  2.5058
26219SOL     OW85706  11.177   0.639   0.699 -0.0611 -0.5551 -0.0759
26219SOL    HW185707  11.220   0.686   0.627  1.5629 -1.1970  0.4134
26219SOL    HW285708  11.233   0.657   0.775 -1.0814 -0.8599  0.7697
26220SOL     OW85709  10.984   4.371  12.178  0.2595 -0.1559 -0.3541
26220SOL    HW185710  11.061   4.353  12.125  0.5338 -1.1782  0.3648
26220SOL    HW285711  10.961   4.287  12.216  0.7308  0.7120  2.0138
26221SOL     OW85712   3.094   2.739   8.246  0.1835  0.7065  0.2496
26221SOL    HW185713   3.068   2.768   8.159 -0.7000 -0.4825  0.0852
26221SOL    HW285714   3.019   2.757   8.302 -1.2736 -2.8688 -0.2530
26222SOL     OW85715  10.624   2.128   1.400 -0.0622  0.7592 -0.2185
26222SOL    HW185716  10.687   2.194   1.429  2.3608 -1.4304 -0.1334
26222SOL    HW285717  10.647   2.111   1.308 -0.5570 -0.0415 -0.2084
26223SOL     OW85718   5.605   9.614   4.554 -0.2622 -0.1497 -0.1852
26223SOL    HW185719   5.608   9.567   4.638  0.9829  0.2121 -0.0026
26223SOL    HW285720   5.512   9.621   4.534 -0.6304  0.4537  1.5715
26224SOL     OW85721   5.916   5.908   2.488 -0.3808 -0.5442 -0.1497
26224SOL    HW185722   5.924   5.946   2.575  1.6193  1.0044 -0.9433
26224SOL    HW285723   5.962   5.824   2.494 -1.2286 -0.9753  0.5437
26225SOL     OW85724  11.663   3.205   9.380 -0.2904  0.0117 -0.3521
26225SOL    HW185725  11.625   3.291   9.365 -0.7773 -0.1556 -0.0939
26225SOL    HW285726  11.647   3.157   9.298 -0.8063 -0.1166 -0.1821
26226SOL     OW85727   0.340   9.103   1.083 -0.3456 -0.1831  0.6898
26226SOL    HW185728   0.280   9.047   1.035  0.3685 -1.2947  1.0564
26226SOL    HW285729   0.415   9.113   1.024 -0.2022 -0.1320  0.8802
26227SOL     OW85730   9.175   0.189  12.419  0.3726  0.0571  0.3813
26227SOL    HW185731   9.145   0.190  12.510  0.7475 -1.3522  0.5481
26227SOL    HW285732   9.264   0.154  12.424  1.1976  1.9400 -0.3336
26228SOL     OW85733   9.431   0.063  11.815 -0.1664  0.0994  0.3611
26228SOL    HW185734   9.519   0.093  11.837  0.2743 -2.2006  2.1568
26228SOL    HW285735   9.445  -0.010  11.754 -0.5059 -2.2750  2.9334
26229SOL     OW85736  11.421   1.630   9.660 -0.2072 -0.6145  0.5758
26229SOL    HW185737  11.373   1.593   9.586 -0.1565 -2.4111  1.3791
26229SOL    HW285738  11.359   1.689   9.702  0.1823  1.4894 -1.5976
26230SOL     OW85739   3.267   5.564   2.455  0.0662 -0.0813  0.2963
26230SOL    HW185740   3.193   5.553   2.515  0.5207  1.1198  1.1058
26230SOL    HW285741   3.227   5.590   2.372 -0.3587  2.3772  1.2050
26231SOL     OW85742  10.817   6.861  12.333  0.7889  0.7505 -0.1130
26231SOL    HW185743  10.897   6.828  12.291  0.8095  1.2165 -0.4466
26231SOL    HW285744  10.829   6.955  12.337  0.1991  0.8403 -0.2867
26232SOL     OW85745   2.364  11.845  12.233 -0.3188  0.0367  0.1177
26232SOL    HW185746   2.275  11.860  12.265 -0.4451  3.5601 -1.4734
26232SOL    HW285747   2.358  11.765  12.182 -2.7346  0.5034 -0.4445
26233SOL     OW85748   1.616  12.043  10.217 -0.3147  0.3350  0.5572
26233SOL    HW185749   1.708  12.021  10.204 -0.7238 -2.1057  1.3364
26233SOL    HW285750   1.614  12.087  10.302  0.0717 -0.0415  0.7634
26234SOL     OW85751   1.604   7.610   8.671 -0.3492 -0.4055  0.1096
26234SOL    HW185752   1.620   7.521   8.704  1.2841 -0.5309 -0.9033
26234SOL    HW285753   1.591   7.599   8.577  1.2445  0.5213 -0.2572
26235SOL     OW85754   9.381   8.350   6.821 -0.2391  0.1819 -0.1712
26235SOL    HW185755   9.324   8.273   6.815 -0.1718  0.2333 -1.9777
26235SOL    HW285756   9.437   8.344   6.744 -0.1622  1.9756 -0.2854
26236SOL     OW85757   6.136   2.375   3.401  0.3680  0.4426 -0.2832
26236SOL    HW185758   6.095   2.435   3.463 -1.8089 -2.1746  1.0753
26236SOL    HW285759   6.217   2.348   3.443  0.0796  0.4931  0.3152
26237SOL     OW85760   0.483   2.387   7.712 -0.3653 -0.0469  0.5434
26237SOL    HW185761   0.408   2.444   7.723  1.4781  2.5589  0.4743
26237SOL    HW285762   0.548   2.419   7.774  0.8300 -2.0012  0.4067
26238SOL     OW85763   6.170   8.434  11.921 -0.3393 -0.3799 -0.7475
26238SOL    HW185764   6.120   8.500  11.874 -1.6741  0.1729  1.3234
26238SOL    HW285765   6.116   8.412  11.997  1.6019 -1.3589  0.4440
26239SOL     OW85766   9.308   5.676   5.104 -0.2655  0.0724  0.0912
26239SOL    HW185767   9.338   5.638   5.187  0.2399 -1.3675 -0.7079
26239SOL    HW285768   9.388   5.711   5.064 -0.2301 -0.5917 -0.4427
26240SOL     OW85769  11.142   8.819   2.339  0.1820  0.2916  0.5831
26240SOL    HW185770  11.055   8.817   2.380  0.2044  1.1780  0.6893
26240SOL    HW285771  11.136   8.888   2.274  0.4568 -0.4512 -0.2537
26241SOL     OW85772   5.995   7.607  10.076 -0.5624 -0.2457 -0.1783
26241SOL    HW185773   6.086   7.615  10.046 -0.5702 -1.8429 -0.7485
26241SOL    HW285774   6.002   7.609  10.172 -0.0540  0.6638 -0.2211
26242SOL     OW85775   5.098  10.459   6.282  0.1956  0.3714 -0.2817
26242SOL    HW185776   5.078  10.366   6.265  4.4477 -0.9960  1.0028
26242SOL    HW285777   5.148  10.486   6.205  2.8625  0.0804  1.2466
26243SOL     OW85778   0.723   7.930   6.059  0.3100  0.0397 -0.4102
26243SOL    HW185779   0.697   7.853   6.109 -1.1788  1.0963  0.5028
26243SOL    HW285780   0.769   7.894   5.983 -1.0188 -1.8090 -0.4216
26244SOL     OW85781  12.028   2.790   1.749  0.8039  0.1066 -0.3478
26244SOL    HW185782  12.022   2.700   1.716  4.3371  0.2023 -1.7159
26244SOL    HW285783  12.094   2.785   1.818 -1.2040  1.2014  1.7430
26245SOL     OW85784  10.601   3.128   5.468  0.1954 -0.6072 -0.6277
26245SOL    HW185785  10.528   3.160   5.415  1.5114 -0.7222 -2.5816
26245SOL    HW285786  10.667   3.197   5.463  0.1183 -0.2958  1.5011
26246SOL     OW85787   7.498   5.174   5.781 -0.2304 -0.0698 -0.6720
26246SOL    HW185788   7.502   5.161   5.876 -0.5750 -0.4941 -0.7085
26246SOL    HW285789   7.466   5.090   5.747 -0.3267  0.1525 -1.1418
26247SOL     OW85790  11.696   7.380   1.446  0.2187 -0.5384  0.9480
26247SOL    HW185791  11.724   7.398   1.356 -1.2432 -1.9799  0.1428
26247SOL    HW285792  11.773   7.400   1.500  2.2141 -2.5564 -0.9300
26248SOL     OW85793   4.253   6.619   2.478 -0.1457 -0.2035  0.3606
26248SOL    HW185794   4.316   6.675   2.523  2.5158 -1.4621 -1.5468
26248SOL    HW285795   4.210   6.677   2.416  0.0635  0.4226  0.7894
26249SOL     OW85796   9.458   5.534   3.135 -0.2944  0.4132  0.5279
26249SOL    HW185797   9.431   5.448   3.169 -0.0883  0.9639  2.1991
26249SOL    HW285798   9.554   5.530   3.135 -0.2766 -0.0772 -1.4398
26250SOL     OW85799   1.454   6.385  12.457  0.0711 -0.0430 -0.0346
26250SOL    HW185800   1.409   6.468  12.463  0.7909  0.3928 -0.4849
26250SOL    HW285801   1.546   6.408  12.440  0.8608 -0.8291  2.6480
26251SOL     OW85802  10.824  11.144   2.433  0.4508 -0.0977  0.6279
26251SOL    HW185803  10.863  11.138   2.519  1.4814  1.6577  0.3322
26251SOL    HW285804  10.869  11.217   2.390 -0.7082 -0.2742 -1.0328
26252SOL     OW85805   1.940  10.147   7.114  0.5620 -0.1369 -0.2787
26252SOL    HW185806   2.033  10.156   7.094  0.5094  1.8324  0.2245
26252SOL    HW285807   1.898  10.217   7.066 -0.4169  0.2062  1.0275
26253SOL     OW85808   4.228  10.334   1.232 -0.0716  0.2475 -0.4986
26253SOL    HW185809   4.191  10.247   1.247 -1.6834  0.9182 -0.3912
26253SOL    HW285810   4.287  10.322   1.157 -1.9047 -0.5306 -1.8923
26254SOL     OW85811   4.837  11.095  10.122  0.1669  0.1384 -0.1265
26254SOL    HW185812   4.878  11.018  10.161 -1.3861 -1.0302 -0.7402
26254SOL    HW285813   4.911  11.149  10.093  1.3913 -2.6023 -2.6309
26255SOL     OW85814   1.924   5.021   4.125 -0.5296  0.1902  0.6645
26255SOL    HW185815   1.831   5.022   4.106 -0.4570 -0.7643  0.1859
26255SOL    HW285816   1.947   4.928   4.129  0.3203  0.4110  1.1741
26256SOL     OW85817   8.747   5.738   0.637  0.5110  0.1362 -0.0253
26256SOL    HW185818   8.671   5.733   0.694  0.6043 -0.5511  0.0476
26256SOL    HW285819   8.811   5.678   0.677  1.3737  1.2712  0.3383
26257SOL     OW85820   7.140   6.552   5.054  0.0280 -0.4909 -0.0781
26257SOL    HW185821   7.202   6.624   5.050  0.7797 -1.1190 -0.1616
26257SOL    HW285822   7.141   6.524   5.146  0.6291 -1.1298 -0.2685
26258SOL     OW85823   7.239   1.120   3.604  0.1315  0.1862 -0.2630
26258SOL    HW185824   7.305   1.174   3.559 -0.2970  0.1222 -0.9848
26258SOL    HW285825   7.241   1.037   3.557  0.1796 -0.1376  0.3045
26259SOL     OW85826   6.735   6.419   8.812  0.6696 -0.0672 -0.6648
26259SOL    HW185827   6.706   6.482   8.747  0.2936  0.1888 -0.2543
26259SOL    HW285828   6.824   6.395   8.785  1.3076  1.5616 -0.1483
26260SOL     OW85829   7.180  12.024   3.328 -0.1028  0.2350 -0.1585
26260SOL    HW185830   7.089  12.052   3.331 -0.4525 -0.7668 -0.7687
26260SOL    HW285831   7.222  12.071   3.400 -0.8571  1.4943 -0.5068
26261SOL     OW85832   5.721  12.346   6.016  0.3731  0.1242 -0.1132
26261SOL    HW185833   5.779  12.379   6.084  0.2419 -0.8730  0.4990
26261SOL    HW285834   5.778  12.327   5.942  0.3564  2.4786 -0.8116
26262SOL     OW85835   3.457   7.128   1.474 -0.0447  0.5038  0.1428
26262SOL    HW185836   3.497   7.191   1.414  0.3797 -0.2887 -0.4218
26262SOL    HW285837   3.386   7.088   1.423 -0.5396  0.7686  0.6150
26263SOL     OW85838  10.160   4.099   4.167 -0.1610 -0.8078  0.0632
26263SOL    HW185839  10.228   4.115   4.102  0.9831 -1.8360  0.9515
26263SOL    HW285840  10.115   4.020   4.137  1.5639 -2.3824  1.3640
26264SOL     OW85841   8.203   1.048   0.487 -1.4285 -0.3431 -0.9479
26264SOL    HW185842   8.124   1.014   0.530 -0.7087 -0.4720  0.3184
26264SOL    HW285843   8.249   0.969   0.457 -0.0735 -0.5476  1.4313
26265SOL     OW85844   0.656   9.417  11.187 -0.0433  0.7329  0.3671
26265SOL    HW185845   0.729   9.357  11.170 -0.9247 -0.5183  0.9316
26265SOL    HW285846   0.696   9.487  11.241  1.1793  1.1487 -1.0045
26266SOL     OW85847   2.157   0.373   1.236  0.3419  0.0160 -0.0355
26266SOL    HW185848   2.219   0.389   1.307 -0.5430  0.5553  0.6531
26266SOL    HW285849   2.160   0.279   1.221  2.1598  0.1713 -0.8244
26267SOL     OW85850   7.189   3.233   6.488  0.1693  0.0380  0.6134
26267SOL    HW185851   7.185   3.325   6.512  1.8826  0.1342  0.6667
26267SOL    HW285852   7.121   3.222   6.422 -0.0412  1.3399  0.5857
26268SOL     OW85853   8.847  11.921   8.613  0.1770 -0.0347  0.8734
26268SOL    HW185854   8.903  11.875   8.551 -0.3709 -0.5047  0.7129
26268SOL    HW285855   8.907  11.957   8.678  0.6924 -0.1909  0.4877
26269SOL     OW85856  11.131   1.959   7.895  0.0108  0.0117  0.4475
26269SOL    HW185857  11.172   1.911   7.823  0.8374  2.2663 -0.6744
26269SOL    HW285858  11.051   1.995   7.857 -0.2177  0.1428  1.0495
26270SOL     OW85859   1.117  12.432   4.754 -0.2549  0.2435 -0.4647
26270SOL    HW185860   1.175  12.508   4.754 -1.4385  1.2666  2.1895
26270SOL    HW285861   1.048  12.454   4.690  0.8461  0.1278 -1.7370
26271SOL     OW85862   1.866   5.498   4.320 -0.6017  0.1579  0.0116
26271SOL    HW185863   1.880   5.449   4.239 -0.0692 -0.1259  0.2675
26271SOL    HW285864   1.814   5.439   4.375  2.0464 -1.1971  1.2622
26272SOL     OW85865  11.635  12.387  11.089 -0.2192  0.1823  0.5561
26272SOL    HW185866  11.614  12.395  10.996  0.4042 -0.4859  0.3483
26272SOL    HW285867  11.595  12.303  11.115  1.6013 -0.8185  0.2950
26273SOL     OW85868   9.965   8.198   4.041  0.2921  0.3154  0.1689
26273SOL    HW185869   9.900   8.183   4.110  0.0072 -0.3391 -0.2282
26273SOL    HW285870   9.920   8.254   3.977  0.2593  0.2175  0.1041
26274SOL     OW85871   3.791   6.162   7.078 -0.4091  0.0159  0.3947
26274SOL    HW185872   3.785   6.123   6.991  1.1494 -0.2473  0.3837
26274SOL    HW285873   3.790   6.257   7.062 -4.1951  0.1424  0.4228
26275SOL     OW85874   0.186   2.204   9.178  0.2717 -0.0059  0.0232
26275SOL    HW185875   0.143   2.257   9.110 -1.3101  1.6051  2.1288
26275SOL    HW285876   0.254   2.261   9.213  0.9062 -0.7255 -0.0274
26276SOL     OW85877   2.663   4.396  11.219 -0.0390 -0.7267  0.3928
26276SOL    HW185878   2.570   4.414  11.233  0.0851 -0.4299  0.8832
26276SOL    HW285879   2.707   4.440  11.292  0.3974 -1.8051  0.8117
26277SOL     OW85880   4.745   2.702   9.032  0.2533 -0.4172 -0.2363
26277SOL    HW185881   4.836   2.676   9.045  0.1179 -1.5996 -1.4410
26277SOL    HW285882   4.697   2.657   9.102  0.2484 -2.1517 -1.3050
26278SOL     OW85883   5.234  12.079   5.436  0.6932  0.1329  0.3379
26278SOL    HW185884   5.257  11.986   5.444 -0.5662 -0.4599 -1.9424
26278SOL    HW285885   5.195  12.086   5.349  1.7159  3.0429  0.0256
26279SOL     OW85886   5.656   9.284   8.427  0.2732  0.1422  0.1173
26279SOL    HW185887   5.597   9.223   8.472  0.2220  0.4988  0.5350
26279SOL    HW285888   5.734   9.232   8.408  0.5108  0.1290  1.0930
26280SOL     OW85889  12.237   0.355   0.986 -0.2797  0.2672 -0.2385
26280SOL    HW185890  12.215   0.388   1.073 -1.3961  0.7202 -0.6832
26280SOL    HW285891  12.315   0.405   0.961  1.5207 -1.5156  1.4402
26281SOL     OW85892   9.041   5.591   9.840 -0.1280 -0.0758 -0.2384
26281SOL    HW185893   9.068   5.639   9.918 -0.8721  0.9711 -0.6141
26281SOL    HW285894   9.084   5.505   9.849  1.9786  0.9479 -0.0289
26282SOL     OW85895  10.836   7.033   3.978  0.1993  0.3846  0.4887
26282SOL    HW185896  10.745   7.058   3.961  0.5494  2.0823  0.9319
26282SOL    HW285897  10.832   6.939   3.998 -1.2741  0.1544 -0.7347
26283SOL     OW85898   1.173   0.186   0.364 -0.1108  0.9094 -0.4026
26283SOL    HW185899   1.232   0.161   0.435 -2.5053  0.6866  1.6468
26283SOL    HW285900   1.211   0.146   0.286  1.8281 -0.1443  1.0039
26284SOL     OW85901   7.709  11.657   9.588 -0.1373  0.3100 -0.0930
26284SOL    HW185902   7.666  11.742   9.577 -0.1799  0.0361 -2.7426
26284SOL    HW285903   7.637  11.594   9.590 -0.0335  0.1915 -0.0714
26285SOL     OW85904  10.413  12.535   0.902 -0.4531  0.3389  0.6283
26285SOL    HW185905  10.421  12.563   0.993 -0.7781  0.0396  0.7536
26285SOL    HW285906  10.451  12.447   0.901  0.6249  0.7904  0.2247
26286SOL     OW85907   2.681   0.145   4.686  0.3290 -0.0962  0.2149
26286SOL    HW185908   2.735   0.201   4.630  2.1618 -1.2174  0.7547
26286SOL    HW285909   2.618   0.205   4.726  1.0216  1.2555 -0.6382
26287SOL     OW85910   7.320  10.592   3.648 -0.1319 -0.5222  0.0718
26287SOL    HW185911   7.281  10.679   3.648  0.5250 -0.2284  0.3721
26287SOL    HW285912   7.357  10.582   3.560  1.4111  0.2428  0.5945
26288SOL     OW85913   6.215   2.067   9.641  0.4371 -0.1493  0.5167
26288SOL    HW185914   6.283   2.005   9.665  0.3951  0.0259  1.1033
26288SOL    HW285915   6.206   2.124   9.718 -0.3434 -0.1550  0.4370
26289SOL     OW85916  10.882   0.217   0.465  0.0688 -0.5638 -0.0135
26289SOL    HW185917  10.936   0.185   0.538  1.0006  2.2683  0.6644
26289SOL    HW285918  10.822   0.280   0.505  1.6078  2.2148 -1.7870
26290SOL     OW85919   1.046   5.930   7.808 -0.3046 -0.1977 -0.1159
26290SOL    HW185920   1.102   5.857   7.833  2.9320  2.1673  0.2341
26290SOL    HW285921   0.965   5.916   7.857  0.6513 -2.8362  0.9025
26291SOL     OW85922   0.859   5.447   9.096  0.1624  0.5509 -0.4355
26291SOL    HW185923   0.868   5.361   9.138  0.2603 -0.8811 -3.1983
26291SOL    HW285924   0.783   5.486   9.139 -0.2124 -1.1312  0.5282
26292SOL     OW85925  11.447   1.155   0.837 -0.1157  0.2070  0.0686
26292SOL    HW185926  11.381   1.133   0.771 -1.7220 -3.1246  2.4778
26292SOL    HW285927  11.441   1.250   0.846 -0.6244  0.6725 -3.5988
26293SOL     OW85928   4.231   2.812   6.082 -0.0954  0.0863 -0.9428
26293SOL    HW185929   4.203   2.903   6.082 -0.8023 -0.0876  1.0258
26293SOL    HW285930   4.302   2.809   6.146 -0.1369 -0.7551 -0.9260
26294SOL     OW85931   0.609   2.875   0.369  0.0540  0.6884  0.4042
26294SOL    HW185932   0.521   2.857   0.402 -0.3385  0.8666 -0.5237
26294SOL    HW285933   0.606   2.848   0.277  1.4226 -0.7883  0.7334
26295SOL     OW85934   4.390  10.281   7.999 -0.6516  0.2284 -0.2295
26295SOL    HW185935   4.427  10.193   7.997  0.6687  0.7292  0.3320
26295SOL    HW285936   4.456  10.335   7.954 -0.6059  1.1835  0.9370
26296SOL     OW85937  11.821  10.032   5.306  0.1921 -0.0972  0.3043
26296SOL    HW185938  11.780  10.026   5.220 -2.0030  1.4823  1.1440
26296SOL    HW285939  11.840  10.125   5.318 -0.0347 -0.2110  1.7299
26297SOL     OW85940   5.151   6.388   2.217  0.3431 -0.1424  0.1860
26297SOL    HW185941   5.188   6.377   2.305 -0.4203 -1.2359  0.3947
26297SOL    HW285942   5.188   6.316   2.166  1.2647  0.8424 -0.5826
26298SOL     OW85943   1.623  10.396   1.118  0.9409  0.1299 -0.3185
26298SOL    HW185944   1.570  10.465   1.079  0.5950 -0.2203 -0.4786
26298SOL    HW285945   1.572  10.316   1.105  0.8257 -0.0045  0.8244
26299SOL     OW85946   5.366   4.827  11.532 -0.2757 -0.3602  0.3099
26299SOL    HW185947   5.457   4.840  11.560 -0.0487 -0.4568 -0.3737
26299SOL    HW285948   5.324   4.783  11.606  0.3490 -0.7276  0.4476
26300SOL     OW85949   7.916  10.514   6.551  0.0906 -0.6792 -0.4463
26300SOL    HW185950   7.828  10.550   6.562 -0.0169 -0.5613 -1.6065
26300SOL    HW285951   7.902  10.427   6.512  0.4818 -0.7173 -0.5066
26301SOL     OW85952   7.132   1.947   1.689  0.0505 -0.4516  0.8126
26301SOL    HW185953   7.205   1.902   1.648  0.0070 -0.0976  0.3496
26301SOL    HW285954   7.059   1.937   1.628 -0.5307 -1.5137  1.6311
26302SOL     OW85955   2.690   2.443   5.016  0.4684 -0.5076 -0.5436
26302SOL    HW185956   2.598   2.438   4.990  0.5467  0.2974 -1.0227
26302SOL    HW285957   2.693   2.516   5.078  0.7864 -0.5158 -0.5469
26303SOL     OW85958   1.931   7.567   6.645  0.5753  0.0661 -1.0598
26303SOL    HW185959   2.007   7.536   6.695 -0.5982  1.2220  1.6711
26303SOL    HW285960   1.878   7.489   6.630  0.8717 -0.2927 -0.2925
26304SOL     OW85961   4.686   5.558  10.225  0.6086  0.1380 -0.0878
26304SOL    HW185962   4.723   5.646  10.232  0.0257  0.3732  0.1016
26304SOL    HW285963   4.674   5.530  10.316 -0.0751  0.2359 -0.1440
26305SOL     OW85964   8.847   8.357   6.693  0.2060  0.1577 -0.2023
26305SOL    HW185965   8.841   8.280   6.637  0.9830 -0.1709  0.1420
26305SOL    HW285966   8.816   8.429   6.639 -2.4832 -0.6639  0.0988
26306SOL     OW85967   5.953   8.398   6.322  0.1964  0.3526 -0.1160
26306SOL    HW185968   6.018   8.467   6.329 -0.2116  0.9366 -1.6525
26306SOL    HW285969   6.001   8.323   6.288  0.6634 -0.1944  1.6619
26307SOL     OW85970   9.307   1.627  12.199  0.1839 -0.0723  0.8315
26307SOL    HW185971   9.215   1.631  12.173  0.0319 -0.1866  1.3450
26307SOL    HW285972   9.356   1.631  12.117 -0.2806  0.0144  0.5622
26308SOL     OW85973   5.502   4.128   4.904  0.2699 -0.3760 -0.5156
26308SOL    HW185974   5.597   4.116   4.905  0.9347  3.3929 -1.6945
26308SOL    HW285975   5.478   4.139   4.995  1.5330  1.5396 -0.3645
26309SOL     OW85976  11.707  11.857   9.790  0.3001  0.0022  0.1824
26309SOL    HW185977  11.668  11.844   9.877  0.8078 -2.5510  0.1110
26309SOL    HW285978  11.698  11.950   9.774 -1.1011  0.3304  2.3671
26310SOL     OW85979   6.593   1.017   5.633 -0.4787 -0.2577 -0.3741
26310SOL    HW185980   6.544   1.027   5.715 -1.3879  1.7733 -1.0886
26310SOL    HW285981   6.630   0.929   5.638 -3.1169 -1.4338  0.8248
26311SOL     OW85982   6.574  10.067   8.096  0.7828  0.1509  0.3876
26311SOL    HW185983   6.576  10.011   8.173  1.6428 -0.7747 -0.2787
26311SOL    HW285984   6.481  10.079   8.077  0.5677  0.3108  1.4915
26312SOL     OW85985   6.650   3.757   1.056 -0.2720 -0.2747 -0.7149
26312SOL    HW185986   6.625   3.697   0.986 -3.5334 -0.2587  0.2945
26312SOL    HW285987   6.572   3.810   1.072 -0.0120 -0.7707  3.3851
26313SOL     OW85988  10.843   0.026   9.995 -0.1908 -0.4795 -0.3499
26313SOL    HW185989  10.923  -0.027   9.985 -1.2713 -2.2882  0.2150
26313SOL    HW285990  10.848   0.060  10.084  2.0673  3.1909 -1.6486
26314SOL     OW85991   9.592  11.807   4.215 -0.2607 -0.4586 -0.1301
26314SOL    HW185992   9.555  11.752   4.146 -0.1081 -0.2801 -0.3569
26314SOL    HW285993   9.677  11.767   4.235 -0.1886 -0.3589 -0.2337
26315SOL     OW85994   1.348   6.663   1.738 -0.0452 -0.2022  0.7386
26315SOL    HW185995   1.391   6.629   1.660 -1.2739 -1.1386  0.4433
26315SOL    HW285996   1.276   6.716   1.705  1.2268  1.9616  1.2136
26316SOL     OW85997   7.656  10.287   5.827  0.4148 -0.4706 -0.0851
26316SOL    HW185998   7.707  10.338   5.764 -1.6931  2.8331  0.6533
26316SOL    HW285999   7.567  10.286   5.792 -0.8080  1.3627  2.6098
26317SOL     OW86000   7.940   1.445  12.340  0.2835 -0.0006  0.5919
26317SOL    HW186001   7.870   1.397  12.384 -0.3333 -0.1722 -0.5353
26317SOL    HW286002   7.909   1.535  12.335  0.1792 -0.0571  0.1800
26318SOL     OW86003   0.823   8.685   0.555  0.2028 -0.0218 -0.1679
26318SOL    HW186004   0.893   8.746   0.577 -1.4524  2.0957 -0.4123
26318SOL    HW286005   0.754   8.703   0.619  0.3210 -3.0128  0.9372
26319SOL     OW86006   7.570   7.551   9.222 -0.3898 -0.1521  0.8179
26319SOL    HW186007   7.543   7.555   9.130  1.1310 -0.7737  0.3131
26319SOL    HW286008   7.636   7.620   9.231 -0.9271  0.2714  1.6012
26320SOL     OW86009   4.094   8.680  11.833 -0.5159 -0.2902  0.2520
26320SOL    HW186010   4.134   8.656  11.749  0.8368  1.3780  0.3797
26320SOL    HW286011   4.006   8.643  11.828 -0.5331 -0.0933 -1.9864
26321SOL     OW86012  12.294   8.155   9.044 -0.0797 -0.3458 -0.2511
26321SOL    HW186013  12.313   8.107   9.125 -0.5900 -0.9781 -0.4982
26321SOL    HW286014  12.299   8.248   9.070 -0.3434 -0.5386  0.5334
26322SOL     OW86015   6.994   1.986   5.482 -0.4427  0.6787 -0.3968
26322SOL    HW186016   6.928   2.043   5.442 -0.9780  0.9119  0.7726
26322SOL    HW286017   6.959   1.898   5.472 -0.1195  0.6353 -1.2622
26323SOL     OW86018   6.258   9.300  11.725  0.8072  0.1231  0.1274
26323SOL    HW186019   6.296   9.386  11.740  0.6514  0.1432  0.3992
26323SOL    HW286020   6.186   9.316  11.664 -0.5591  0.4958  1.7728
26324SOL     OW86021  11.565   8.818  12.498  0.1794  0.0966  0.1685
26324SOL    HW186022  11.530   8.892  12.547  1.7972  0.1930  1.2815
26324SOL    HW286023  11.641   8.789  12.549  0.9565 -0.8703 -1.4387
26325SOL     OW86024   1.644  10.797   7.627 -0.1935  0.1752 -0.3488
26325SOL    HW186025   1.736  10.794   7.653  0.7157  2.4165 -2.9024
26325SOL    HW286026   1.605  10.721   7.670  2.9134 -1.1065  0.4794
26326SOL     OW86027   4.283   8.675   0.837  0.2026 -0.2670  0.1040
26326SOL    HW186028   4.291   8.599   0.781 -0.0521  0.1030 -0.4466
26326SOL    HW286029   4.244   8.742   0.781 -0.4394 -0.0133  0.8297
26327SOL     OW86030  10.899  12.513   4.523  0.0952  0.4062  0.0327
26327SOL    HW186031  10.889  12.456   4.599  0.0507  1.5652  0.9197
26327SOL    HW286032  10.855  12.594   4.547 -2.8558 -0.2536 -2.4951
26328SOL     OW86033   8.297   7.998   6.581  0.1876  0.2417 -0.1535
26328SOL    HW186034   8.262   8.068   6.636 -0.9949 -1.2209  1.0557
26328SOL    HW286035   8.227   7.977   6.520 -0.5381 -1.5524  1.1756
26329SOL     OW86036   5.303  12.178   1.308  0.0860 -0.3995  0.1705
26329SOL    HW186037   5.361  12.254   1.298  3.1188 -2.4336  0.9051
26329SOL    HW286038   5.315  12.128   1.228  0.2351 -1.4101  0.8131
26330SOL     OW86039  11.715   1.212  10.223 -0.4071 -0.0856  0.4216
26330SOL    HW186040  11.650   1.155  10.264 -0.7255  0.1759  0.2795
26330SOL    HW286041  11.680   1.300  10.234 -0.3637  0.0079 -0.1727
26331SOL     OW86042  11.799   4.560   6.760  0.3740  0.2709  0.2099
26331SOL    HW186043  11.749   4.495   6.710 -0.6028 -0.8437  2.4908
26331SOL    HW286044  11.816   4.631   6.698 -1.7927 -0.4966 -1.3531
26332SOL     OW86045   6.753  11.633  10.035  0.2263 -0.0743 -0.0488
26332SOL    HW186046   6.761  11.629  10.130  0.0764 -0.2887 -0.0452
26332SOL    HW286047   6.828  11.583  10.003 -0.8995 -1.8665 -0.0182
26333SOL     OW86048   5.268   1.855   2.611  0.2679  0.1002 -0.3013
26333SOL    HW186049   5.209   1.886   2.680 -0.5718 -0.3177 -0.8149
26333SOL    HW286050   5.347   1.829   2.657 -0.0693  0.3578  0.4429
26334SOL     OW86051  12.107   1.445   6.682 -0.2823 -0.8061  0.0287
26334SOL    HW186052  12.178   1.431   6.744 -0.5181 -0.2969  0.4180
26334SOL    HW286053  12.034   1.475   6.735 -0.3543  0.0570 -0.5449
26335SOL     OW86054   1.275   4.115   7.722 -0.2906  0.0153 -0.1711
26335SOL    HW186055   1.240   4.034   7.759  0.7409  0.0459  0.9102
26335SOL    HW286056   1.356   4.131   7.770 -0.9639  2.2376  0.3387
26336SOL     OW86057   6.098  10.290   7.195 -0.2153  0.2225  0.2732
26336SOL    HW186058   6.127  10.239   7.270  0.7522 -0.3344 -0.4518
26336SOL    HW286059   6.154  10.369   7.196  1.5437 -0.9109 -1.1974
26337SOL     OW86060   4.646  12.095   4.446 -0.2351 -0.0543 -0.9129
26337SOL    HW186061   4.610  12.163   4.388  0.0188 -0.4583 -1.5569
26337SOL    HW286062   4.668  12.023   4.387 -1.1277 -0.9732 -0.1582
26338SOL     OW86063   2.146   6.407   5.685 -0.4305  0.0101  0.0871
26338SOL    HW186064   2.185   6.447   5.607 -1.1996  1.8993  0.6143
26338SOL    HW286065   2.063   6.371   5.654 -0.8637  0.9994  0.0457
26339SOL     OW86066   2.795   1.522   0.729 -0.1774 -0.1613  0.0841
26339SOL    HW186067   2.837   1.592   0.779 -0.2718 -0.5560  0.7333
26339SOL    HW286068   2.804   1.548   0.638 -1.2021  1.2676  0.3634
26340SOL     OW86069   2.422   7.175   2.019  0.2204  0.3232 -0.2140
26340SOL    HW186070   2.458   7.139   2.100 -1.7300  1.3918  1.2049
26340SOL    HW286071   2.373   7.252   2.046 -1.4064  0.1081 -2.2751
26341SOL     OW86072  11.757  10.250  11.776  0.1567  0.2073  0.3013
26341SOL    HW186073  11.848  10.238  11.801  0.4689  1.1494 -0.3482
26341SOL    HW286074  11.712  10.174  11.814  1.2939 -0.5859  0.1235
26342SOL     OW86075   4.172   1.124   7.128  0.7839  0.0893  0.0048
26342SOL    HW186076   4.191   1.043   7.175 -0.0632  0.1318  0.4307
26342SOL    HW286077   4.252   1.177   7.137  0.8339 -0.1295  0.9203
26343SOL     OW86078  11.762   1.334   7.316 -0.7233 -0.2161  0.0553
26343SOL    HW186079  11.811   1.258   7.286 -0.4698 -0.5382  1.2108
26343SOL    HW286080  11.790   1.405   7.258  1.7427 -0.2004  1.1335
26344SOL     OW86081   7.125   8.074  12.531 -0.6191  0.4774  0.0742
26344SOL    HW186082   7.046   8.070  12.584 -0.1733  1.0306  0.7933
26344SOL    HW286083   7.097   8.045  12.444 -1.7298  1.1833  0.1785
26345SOL     OW86084   3.745   1.727   5.100  0.1643 -0.8353  0.0424
26345SOL    HW186085   3.759   1.737   5.005 -0.1696 -0.6719  0.0094
26345SOL    HW286086   3.661   1.683   5.107 -1.4615  2.0780  0.3165
26346SOL     OW86087   7.619   8.677   4.567 -0.4292  0.1832 -0.0530
26346SOL    HW186088   7.657   8.595   4.535 -0.5386  0.0157  0.2499
26346SOL    HW286089   7.661   8.744   4.514  0.8973  0.0771  0.8140
26347SOL     OW86090   3.711   2.358   1.262 -0.2628 -0.1667 -0.6457
26347SOL    HW186091   3.786   2.372   1.205  0.5410 -0.3553  0.3314
26347SOL    HW286092   3.704   2.439   1.313  0.5409 -0.8602  0.6473
26348SOL     OW86093  10.738   7.291   3.822 -0.0161 -0.4960  0.7728
26348SOL    HW186094  10.683   7.213   3.830  0.0334 -0.8242 -1.5350
26348SOL    HW286095  10.690   7.348   3.762  2.0482 -0.7494 -1.2489
26349SOL     OW86096  10.762   2.098   1.035 -0.0199 -0.0026  0.4210
26349SOL    HW186097  10.787   2.032   0.970  1.3928 -0.7822  1.6995
26349SOL    HW286098  10.834   2.100   1.097 -1.2223  0.8846  1.8694
26350SOL     OW86099   6.772   3.332   0.215  0.4110  0.0617 -0.4061
26350SOL    HW186100   6.686   3.290   0.219  0.3943  0.0218 -1.0010
26350SOL    HW286101   6.830   3.273   0.262  0.0652  0.2161  0.2184
26351SOL     OW86102  12.215   7.847   7.718 -0.4584  0.0754 -0.5619
26351SOL    HW186103  12.294   7.814   7.762 -2.0931 -1.9019  1.1005
26351SOL    HW286104  12.213   7.801   7.634 -0.9947 -1.7001  0.3701
26352SOL     OW86105   3.441   3.596   7.348 -0.3056  0.5752  0.9043
26352SOL    HW186106   3.457   3.503   7.365  0.3169  1.0265  3.1647
26352SOL    HW286107   3.367   3.597   7.287  0.0439 -1.4048  0.3934
26353SOL     OW86108  11.692   3.275   5.016 -0.7521 -0.2087 -0.5370
26353SOL    HW186109  11.689   3.347   4.953 -1.2913  0.5299  0.3149
26353SOL    HW286110  11.725   3.315   5.097 -0.2341 -1.1090 -0.2885
26354SOL     OW86111  11.853   2.206   5.115 -0.3505 -0.0260  0.1128
26354SOL    HW186112  11.934   2.200   5.065  0.1748  0.8770  0.8346
26354SOL    HW286113  11.790   2.156   5.064  0.3840  0.1683 -1.0111
26355SOL     OW86114   2.093   7.819  10.053  0.5178 -0.6605  0.0262
26355SOL    HW186115   2.158   7.876  10.092  0.8719  0.4871 -2.0841
26355SOL    HW286116   2.028   7.805  10.122  1.6608  0.2977  1.3384
26356SOL     OW86117  11.049   8.078  12.428  0.2974 -0.5067 -0.0545
26356SOL    HW186118  11.029   7.991  12.461  1.3391 -0.4929  0.6662
26356SOL    HW286119  11.096   8.121  12.500 -2.8743  1.7727  0.8748
26357SOL     OW86120   0.655   3.100   6.084  0.4372  0.3899  0.1314
26357SOL    HW186121   0.656   3.088   6.179  1.1510 -1.6673 -0.0861
26357SOL    HW286122   0.562   3.111   6.062  0.2137  0.2988  1.0208
26358SOL     OW86123   8.111   9.648   1.045  0.0852 -0.1154  0.1824
26358SOL    HW186124   8.057   9.598   0.984 -1.4519 -1.0782  2.2088
26358SOL    HW286125   8.054   9.721   1.072  0.8475  0.4636  0.2571
26359SOL     OW86126   3.050   1.577   2.972  0.0446 -0.0280 -0.4661
26359SOL    HW186127   3.002   1.498   2.996  0.3131 -0.3496 -0.9764
26359SOL    HW286128   3.047   1.580   2.877 -1.3925  1.4894 -0.4127
26360SOL     OW86129   7.828   2.125  10.402  0.2837  0.2963  0.1080
26360SOL    HW186130   7.769   2.182  10.452  0.2438  0.9267 -0.6429
26360SOL    HW286131   7.870   2.183  10.339  0.1136 -0.5213 -0.7880
26361SOL     OW86132   0.256  10.485   5.451 -0.4611  0.6949  0.4339
26361SOL    HW186133   0.221  10.560   5.499 -3.0309  0.4849 -0.8895
26361SOL    HW286134   0.343  10.471   5.487 -0.0901  3.9628  1.0875
26362SOL     OW86135   1.378   4.163  10.150 -0.4212 -0.3314 -0.1116
26362SOL    HW186136   1.286   4.158  10.126 -1.6458 -0.9442  3.9389
26362SOL    HW286137   1.423   4.114  10.081 -3.3259 -1.5301 -1.3294
26363SOL     OW86138   2.101  12.357   5.626 -0.1438  0.0404  0.6550
26363SOL    HW186139   2.021  12.395   5.662  0.8043  2.4831  0.4191
26363SOL    HW286140   2.089  12.361   5.531 -0.4782 -1.3435  0.6300
26364SOL     OW86141  10.839  10.679   0.793 -0.0234 -0.1216 -0.9875
26364SOL    HW186142  10.924  10.705   0.759  0.9000 -2.5131 -0.6851
26364SOL    HW286143  10.858  10.631   0.874 -1.6807 -0.4001 -0.7110
26365SOL     OW86144   0.705   8.691   3.470  0.1960  0.5933 -0.6336
26365SOL    HW186145   0.629   8.685   3.528  0.6799  1.2618  0.0941
26365SOL    HW286146   0.777   8.656   3.522  0.7237  1.6218 -0.6600
26366SOL     OW86147   6.980  11.265   2.624 -0.2662 -0.2476 -0.6766
26366SOL    HW186148   6.957  11.230   2.538  1.2586 -2.8950 -0.1124
26366SOL    HW286149   6.899  11.304   2.657 -2.3681 -3.7810 -1.2069
26367SOL     OW86150   7.971   9.846   2.968 -0.1946  0.1869 -0.1725
26367SOL    HW186151   8.009   9.785   2.905  0.7150 -0.2694  0.7955
26367SOL    HW286152   7.944   9.921   2.915  0.2289 -0.3302 -1.1488
26368SOL     OW86153  10.096  12.101   2.643 -0.4175  0.1576 -0.0359
26368SOL    HW186154  10.011  12.101   2.598  0.0165 -1.2650 -0.9306
26368SOL    HW286155  10.077  12.068   2.731 -0.5967 -1.9336 -0.7868
26369SOL     OW86156  11.314   3.709   1.836 -0.0890  0.4054  0.4485
26369SOL    HW186157  11.328   3.694   1.742 -1.3293  1.1146  0.1238
26369SOL    HW286158  11.358   3.636   1.879  1.2110  0.4980 -0.6383
26370SOL     OW86159  10.150   4.302   4.730 -0.3567 -0.0985 -0.1745
26370SOL    HW186160  10.095   4.324   4.805 -0.0049 -0.1124  0.0858
26370SOL    HW286161  10.135   4.373   4.668 -1.6556 -0.7438 -0.6407
26371SOL     OW86162   9.575   0.158   7.122 -0.4615  0.3197 -0.5955
26371SOL    HW186163   9.601   0.249   7.107  2.7243 -0.7905 -3.0854
26371SOL    HW286164   9.658   0.110   7.120 -2.1439 -2.7987 -0.5841
26372SOL     OW86165   4.115   0.176   6.548 -0.5130  0.4929  0.2427
26372SOL    HW186166   4.089   0.109   6.611 -0.2506  1.1049  1.0163
26372SOL    HW286167   4.209   0.165   6.538 -0.8227 -1.0439 -1.7682
26373SOL     OW86168   0.987   9.660   0.134  0.1123 -0.8593 -0.9566
26373SOL    HW186169   1.042   9.720   0.083 -0.5224  0.0032 -0.6408
26373SOL    HW286170   0.901   9.666   0.093 -0.6474  0.5522  0.7392
26374SOL     OW86171   6.714   3.034   9.066  0.6283 -0.6713 -0.3870
26374SOL    HW186172   6.761   3.025   8.984  1.6991  1.0706 -0.0214
26374SOL    HW286173   6.622   3.042   9.041  0.8640 -0.9312 -1.3579
26375SOL     OW86174   2.881   3.293   9.701 -0.1296  0.3135 -0.1358
26375SOL    HW186175   2.804   3.285   9.643 -1.8093  2.2195  1.6831
26375SOL    HW286176   2.876   3.216   9.758 -0.6279  0.3577 -0.1139
26376SOL     OW86177   1.406   6.225   6.462 -0.3238  0.8128 -0.1318
26376SOL    HW186178   1.358   6.289   6.410 -3.1934  1.2449  2.7063
26376SOL    HW286179   1.412   6.265   6.549  1.1191 -1.2417  0.8019
26377SOL     OW86180  11.022   5.822  10.609 -0.3073  0.5115 -0.3709
26377SOL    HW186181  10.954   5.864  10.661  1.7620  0.1110  2.8858
26377SOL    HW286182  11.081   5.893  10.584 -0.8774  0.5792 -1.6385
26378SOL     OW86183  12.352   2.232   2.342  0.3128 -0.1883 -0.2684
26378SOL    HW186184  12.278   2.271   2.389 -0.4120  0.3568 -1.7709
26378SOL    HW286185  12.357   2.142   2.374 -1.0086 -0.2232 -0.1134
26379SOL     OW86186   5.058   2.297   0.251 -0.3700 -0.0525  0.0610
26379SOL    HW186187   5.053   2.379   0.201 -1.4631 -0.7719 -1.0498
26379SOL    HW286188   5.061   2.326   0.343 -1.2581  1.2277 -0.2825
26380SOL     OW86189   1.170   7.558   6.011  0.0926  0.1473  0.4340
26380SOL    HW186190   1.221   7.478   6.020 -1.6983 -1.2110 -0.9039
26380SOL    HW286191   1.090   7.543   6.062 -0.4609  0.8903 -0.1804
26381SOL     OW86192  10.558   5.720   3.064  0.5953 -0.6707 -0.1545
26381SOL    HW186193  10.603   5.636   3.061 -0.5756 -1.3206 -0.1441
26381SOL    HW286194  10.627   5.785   3.049  1.5724 -1.6041  0.1649
26382SOL     OW86195   4.480   2.009   2.908  0.2322  0.5264  0.2960
26382SOL    HW186196   4.395   2.004   2.865 -0.5726  0.6951  1.7855
26382SOL    HW286197   4.521   1.925   2.891 -0.4738  0.2284  0.0272
26383SOL     OW86198   3.949   2.470   3.666 -0.7323  0.0131  0.7892
26383SOL    HW186199   4.043   2.469   3.686 -0.7213 -0.9570  0.7099
26383SOL    HW286200   3.941   2.417   3.587 -1.4247 -0.4160  1.1386
26384SOL     OW86201   6.869  12.133   5.674 -0.4189 -0.1659  0.2581
26384SOL    HW186202   6.796  12.191   5.655  0.0530  0.6097  0.7217
26384SOL    HW286203   6.875  12.075   5.599 -1.9703 -0.7387  0.5415
26385SOL     OW86204   6.726   9.215   5.278  1.0512 -0.3510  0.1040
26385SOL    HW186205   6.775   9.285   5.321 -0.4682 -0.3529  2.0050
26385SOL    HW286206   6.643   9.256   5.253  0.8552 -1.0262 -0.3672
26386SOL     OW86207   2.026   5.770   7.711 -0.5865  0.6914  0.2043
26386SOL    HW186208   2.048   5.822   7.633  0.0275 -0.4276 -0.3831
26386SOL    HW286209   2.004   5.836   7.777  2.5478  1.8551  0.2262
26387SOL     OW86210   8.642   7.279   4.377  0.4749 -0.5142 -0.3071
26387SOL    HW186211   8.627   7.373   4.383 -1.4004 -0.8637  2.7780
26387SOL    HW286212   8.582   7.248   4.310 -1.1838  0.1666  0.8095
26388SOL     OW86213   8.521   0.803   9.096 -0.6101 -0.1314  0.1351
26388SOL    HW186214   8.601   0.798   9.148 -0.3424  0.5358 -0.2033
26388SOL    HW286215   8.459   0.746   9.142 -0.9340  1.6985  2.1807
26389SOL     OW86216  11.321   4.716   4.686 -0.2971 -0.8904 -0.2245
26389SOL    HW186217  11.292   4.766   4.762  0.2182  0.3898 -0.8356
26389SOL    HW286218  11.415   4.736   4.678 -0.4116 -0.7314 -1.3779
26390SOL     OW86219   6.939   1.607   6.995  0.8100 -0.6517 -0.1643
26390SOL    HW186220   6.872   1.599   7.064  1.1530 -3.0306 -0.0219
26390SOL    HW286221   7.004   1.667   7.031  0.1637 -0.5675  0.8982
26391SOL     OW86222   3.646   3.600  10.190  0.0117 -0.0544 -0.4656
26391SOL    HW186223   3.562   3.628  10.153 -0.8940  0.1423  1.6015
26391SOL    HW286224   3.665   3.666  10.257  0.9640 -1.0443  0.2562
26392SOL     OW86225   0.966   1.747   1.372  0.3161 -0.3376  0.5693
26392SOL    HW186226   1.050   1.782   1.400 -0.0753 -0.4115  1.8978
26392SOL    HW286227   0.943   1.682   1.439 -0.3186 -1.0549 -0.3192
26393SOL     OW86228  10.048   2.258   4.286  0.0211  0.3888  0.2826
26393SOL    HW186229  10.019   2.231   4.199 -1.0032 -0.8440  0.9839
26393SOL    HW286230   9.985   2.326   4.312 -0.1696  0.1698  0.3950
26394SOL     OW86231   2.438   5.309   7.725  0.1826  0.3436 -0.0543
26394SOL    HW186232   2.467   5.238   7.782 -1.0323 -0.3061 -0.2070
26394SOL    HW286233   2.345   5.290   7.709  0.7280 -0.1246 -3.1355
26395SOL     OW86234   8.839  10.709   8.556 -0.6721 -0.3026 -0.8037
26395SOL    HW186235   8.787  10.739   8.482 -0.5756 -0.0382 -0.7655
26395SOL    HW286236   8.784  10.645   8.600 -0.8553 -0.2255 -0.9210
26396SOL     OW86237   4.064   3.956   0.918 -0.1654 -0.2552 -0.4099
26396SOL    HW186238   4.006   3.880   0.911 -0.2480 -0.5114  1.9961
26396SOL    HW286239   4.045   3.992   1.005 -0.4095  2.7990 -1.6222
26397SOL     OW86240  11.103   2.272   5.628 -0.0616 -0.3381  0.1131
26397SOL    HW186241  11.098   2.257   5.534 -0.6900 -0.2901  0.1343
26397SOL    HW286242  11.150   2.195   5.662  1.1692  0.1743 -0.3605
26398SOL     OW86243   8.164   7.883  11.117 -0.2159 -0.5635  0.3852
26398SOL    HW186244   8.243   7.870  11.064  0.0518 -0.2545  0.7045
26398SOL    HW286245   8.196   7.889  11.207 -0.4662  0.7884  0.4039
26399SOL     OW86246   6.203   0.128   8.829  0.1164  0.0826  0.3028
26399SOL    HW186247   6.111   0.133   8.803 -0.0040 -0.4140  0.6348
26399SOL    HW286248   6.215   0.204   8.886 -0.0141  0.2960  0.0538
26400SOL     OW86249   7.288   4.058   1.428  0.1070  0.1493  0.3909
26400SOL    HW186250   7.266   4.058   1.521 -0.5455  2.1659  0.2858
26400SOL    HW286251   7.383   4.053   1.426  0.1420  0.2978  1.1786
26401SOL     OW86252  12.149   0.137   8.229  0.5398 -0.1606 -0.0499
26401SOL    HW186253  12.161   0.093   8.145  3.9821  0.2690  0.0536
26401SOL    HW286254  12.070   0.098   8.265  0.2393 -2.0579 -2.4632
26402SOL     OW86255   0.763  11.299   9.710 -0.1685 -0.2659  0.0845
26402SOL    HW186256   0.748  11.380   9.759  0.1693 -1.1822  1.7857
26402SOL    HW286257   0.676  11.266   9.689 -0.3057  0.5385 -0.6299
26403SOL     OW86258   6.323   5.104   3.891  0.0724  0.5561  0.0379
26403SOL    HW186259   6.250   5.164   3.878 -0.7842 -0.3329  0.6141
26403SOL    HW286260   6.355   5.124   3.979  0.8724  1.2855 -0.3987
26404SOL     OW86261   7.422  11.783  10.967 -0.0474 -0.3703 -0.2433
26404SOL    HW186262   7.506  11.753  11.001  0.8684  0.3442 -1.7722
26404SOL    HW286263   7.385  11.707  10.921  0.1528 -0.4452 -0.2802
26405SOL     OW86264   1.281  11.493   0.862  0.2062  0.5960 -0.0716
26405SOL    HW186265   1.284  11.541   0.945 -1.6192  1.4540 -0.4522
26405SOL    HW286266   1.193  11.456   0.859  0.7806 -0.7779 -0.9212
26406SOL     OW86267   7.493   3.207   5.158 -0.1721 -0.6725 -0.1778
26406SOL    HW186268   7.538   3.226   5.075 -0.2543  1.3242  0.1837
26406SOL    HW286269   7.447   3.288   5.180  0.0745 -1.0379  1.9594
26407SOL     OW86270  12.241   7.716   5.602  0.3464 -0.5270  0.0652
26407SOL    HW186271  12.179   7.759   5.543 -0.0626 -0.2066  0.7219
26407SOL    HW286272  12.327   7.742   5.569  0.1247 -0.5155 -0.5114
26408SOL     OW86273   2.738   5.661   6.734  0.2168  0.3522 -0.2135
26408SOL    HW186274   2.729   5.698   6.646 -0.6644 -0.7199 -0.5930
26408SOL    HW286275   2.683   5.583   6.733 -0.4273  0.7400  1.5422
26409SOL     OW86276   3.270   6.442  11.126  0.1854 -0.4708 -0.0704
26409SOL    HW186277   3.301   6.392  11.202  0.1184  0.9785  0.9431
26409SOL    HW286278   3.309   6.529  11.137 -1.7282  0.4763 -0.4062
26410SOL     OW86279   6.192   4.112   0.902  0.2961 -0.4477  0.7676
26410SOL    HW186280   6.167   4.077   0.988 -1.1924  1.4718  1.1777
26410SOL    HW286281   6.253   4.183   0.922  1.1217 -0.9542  0.1167
26411SOL     OW86282  10.885   1.856   5.673 -0.5543  0.2795 -0.1724
26411SOL    HW186283  10.969   1.890   5.706 -1.5539  1.2985  1.4791
26411SOL    HW286284  10.882   1.885   5.582  0.9630  0.0510 -0.3317
26412SOL     OW86285   5.129   4.972   0.916  0.3882  0.0129 -0.1883
26412SOL    HW186286   5.046   4.990   0.873  0.3366 -0.7821 -0.4325
26412SOL    HW286287   5.133   5.036   0.987 -0.2657  0.2902 -0.3934
26413SOL     OW86288   9.096   6.512   3.638 -0.0350 -0.0118  0.3062
26413SOL    HW186289   9.127   6.432   3.681  0.2872  0.3708  0.7909
26413SOL    HW286290   9.158   6.527   3.567 -0.4281 -0.5094 -0.1486
26414SOL     OW86291   5.526   9.805   9.308  0.1791  0.0850 -0.0941
26414SOL    HW186292   5.479   9.747   9.369  0.2805  0.6807  0.5560
26414SOL    HW286293   5.597   9.842   9.360  0.6379  0.1300 -0.7492
26415SOL     OW86294   5.871   5.093   7.889  0.3927  0.0844 -0.2098
26415SOL    HW186295   5.835   5.071   7.975 -1.3142 -1.7534 -1.3099
26415SOL    HW286296   5.820   5.169   7.860 -1.0527 -1.0268 -0.7297
26416SOL     OW86297   8.796   2.566   7.256  0.0026 -0.3281  0.1844
26416SOL    HW186298   8.795   2.584   7.350  2.3594 -1.6450  0.5354
26416SOL    HW286299   8.888   2.574   7.231 -0.4034 -1.1832 -1.7706
26417SOL     OW86300   9.748   7.205   2.788  0.6480 -0.0258 -0.3767
26417SOL    HW186301   9.691   7.267   2.743  0.4619 -0.7058 -1.0945
26417SOL    HW286302   9.807   7.172   2.720  0.7758 -0.5898 -0.0036
26418SOL     OW86303  11.942   7.143   7.946  0.3661 -0.1689  0.2705
26418SOL    HW186304  11.988   7.145   7.862 -0.4306  0.8885 -0.1615
26418SOL    HW286305  11.982   7.070   7.994  0.7987 -0.8116 -1.0321
26419SOL     OW86306   8.079   8.652   8.615 -0.2333  0.2870  0.4562
26419SOL    HW186307   8.032   8.690   8.541  0.2735  1.1684  0.5792
26419SOL    HW286308   8.143   8.593   8.575 -1.0741 -0.5302  0.2677
26420SOL     OW86309  11.490   8.668  11.305  0.0550  0.2395 -0.0275
26420SOL    HW186310  11.458   8.601  11.244  1.0386  0.1334 -0.4343
26420SOL    HW286311  11.410   8.708  11.339 -0.5407 -0.6560 -0.3149
26421SOL     OW86312   8.875   4.352   2.950 -0.3115 -0.0918 -0.7184
26421SOL    HW186313   8.808   4.314   3.007  0.6211 -0.9784 -0.1840
26421SOL    HW286314   8.887   4.287   2.881  1.6551 -1.0700  0.4758
26422SOL     OW86315   1.310   6.326   4.143  0.6033 -0.5198 -0.4621
26422SOL    HW186316   1.216   6.338   4.149  0.5981  0.3429 -1.7580
26422SOL    HW286317   1.322   6.232   4.134 -0.1540 -0.6153 -0.5386
26423SOL     OW86318   3.406   0.486   7.059 -0.4228  0.1573  0.7023
26423SOL    HW186319   3.398   0.396   7.091 -1.2811  0.3880  1.1831
26423SOL    HW286320   3.334   0.496   6.997  1.1569 -0.2444 -1.2820
26424SOL     OW86321   1.550   6.041   2.240 -0.3046  0.3812 -0.5441
26424SOL    HW186322   1.585   6.093   2.168  0.7718  1.2864  0.5828
26424SOL    HW286323   1.625   5.989   2.270 -0.5640  0.5165  0.3586
26425SOL     OW86324  11.238  11.744   5.903 -0.0601 -0.0917  0.8643
26425SOL    HW186325  11.331  11.724   5.915 -0.1922 -0.8656  0.6358
26425SOL    HW286326  11.211  11.688   5.831 -0.8853 -0.4160  1.4121
26426SOL     OW86327   9.957   9.766   0.927  0.3352 -0.0947 -0.0648
26426SOL    HW186328   9.993   9.708   0.860  1.0803 -0.0425  0.2798
26426SOL    HW286329   9.888   9.815   0.882 -1.2310 -2.1721 -0.0365
26427SOL     OW86330   1.814   4.256   8.386  0.4964  0.1287  0.2360
26427SOL    HW186331   1.774   4.211   8.460  0.5505  1.2767  0.9797
26427SOL    HW286332   1.866   4.188   8.342 -0.4931 -0.8498  0.5344
26428SOL     OW86333   8.597   9.972   8.019 -1.0651 -0.0690 -0.3313
26428SOL    HW186334   8.541   9.905   8.059 -1.5365 -1.0258 -2.4491
26428SOL    HW286335   8.566  10.055   8.057 -1.8799 -0.8511  0.7852
26429SOL     OW86336   0.033   4.280  12.093 -0.4716 -0.0191  0.2814
26429SOL    HW186337   0.019   4.333  12.015  0.4247  0.4218  0.4091
26429SOL    HW286338   0.112   4.230  12.075 -0.4623 -0.1849  0.7584
26430SOL     OW86339  11.592   4.319  10.603  0.2276  0.2871  0.1928
26430SOL    HW186340  11.653   4.353  10.668 -0.6732  0.4047  0.9941
26430SOL    HW286341  11.538   4.256  10.651 -0.5725  0.5176 -0.3868
26431SOL     OW86342  11.767   8.785   0.062  0.1051 -0.0846 -0.3830
26431SOL    HW186343  11.748   8.874   0.092 -0.8783 -0.3715 -0.1458
26431SOL    HW286344  11.842   8.796   0.003  0.4326  0.8076  0.1771
26432SOL     OW86345   8.539   8.849   9.325  0.1186 -0.3219 -0.6722
26432SOL    HW186346   8.628   8.885   9.321  0.2128 -0.6594 -1.8390
26432SOL    HW286347   8.552   8.758   9.353  0.0301 -0.0115  0.4102
26433SOL     OW86348  12.295   5.180   1.140 -0.6806 -0.0065  0.1222
26433SOL    HW186349  12.246   5.231   1.075  1.3053 -0.4156 -1.8149
26433SOL    HW286350  12.331   5.246   1.200  0.0654  0.7088 -1.0753
26434SOL     OW86351   5.285   8.110  11.550  0.2173 -0.0578  0.1645
26434SOL    HW186352   5.295   8.205  11.554  1.3737 -0.1872  0.8837
26434SOL    HW286353   5.360   8.080  11.499  0.6003 -0.6777  1.0624
26435SOL     OW86354   5.753  12.440   3.388 -0.2554 -0.7391 -0.0071
26435SOL    HW186355   5.820  12.438   3.456  0.6284  0.9437 -0.7593
26435SOL    HW286356   5.787  12.384   3.319 -0.6919 -1.6544  0.4991
26436SOL     OW86357   5.895   3.515   8.014  0.2642  0.0429  0.2405
26436SOL    HW186358   5.959   3.455   8.055 -0.7814 -0.5726  1.0112
26436SOL    HW286359   5.819   3.460   7.995 -0.3825  0.9510  0.1363
26437SOL     OW86360   9.934   3.551  12.579  0.1765 -0.6031  0.5043
26437SOL    HW186361   9.990   3.516  12.648  1.0498  0.3802  0.3279
26437SOL    HW286362   9.976   3.523  12.498  0.2733 -0.0848  0.3713
26438SOL     OW86363  11.612   2.451  10.282  0.2912 -0.0553 -0.1152
26438SOL    HW186364  11.702   2.437  10.254  0.3329 -0.9677  0.4245
26438SOL    HW286365  11.610   2.423  10.373 -0.7657 -1.0823 -0.4246
26439SOL     OW86366   1.154  10.142   6.539  0.1979  0.8342 -0.5280
26439SOL    HW186367   1.197  10.165   6.457  0.5306 -0.0145 -0.6048
26439SOL    HW286368   1.078  10.090   6.513  0.6030  0.1023 -0.2902
26440SOL     OW86369   8.941   5.620   9.310  0.2779  0.1574  0.2281
26440SOL    HW186370   8.955   5.645   9.219 -0.0711  2.4330  0.7608
26440SOL    HW286371   8.849   5.642   9.327  0.6012  0.6376  1.3993
26441SOL     OW86372  10.102   9.732   5.621 -0.1069  0.2715  0.0267
26441SOL    HW186373  10.118   9.717   5.714 -2.6249 -1.6623  0.2228
26441SOL    HW286374  10.008   9.742   5.614  0.0388  0.5184 -2.3333
26442SOL     OW86375   2.770   1.598   9.586  0.0929  0.2947  1.1065
26442SOL    HW186376   2.848   1.599   9.531 -0.6106  2.4365  0.0638
26442SOL    HW286377   2.797   1.641   9.667  0.2018  0.2773  1.0798
26443SOL     OW86378   2.850   3.681   8.087 -0.2203 -0.3476 -0.4729
26443SOL    HW186379   2.932   3.632   8.081  0.1711  0.3591 -0.9496
26443SOL    HW286380   2.792   3.623   8.136  1.6154  0.5385  3.0696
26444SOL     OW86381   5.661   2.091   6.494 -0.6642 -0.6020 -0.0605
26444SOL    HW186382   5.745   2.081   6.538  1.1840  1.0546 -2.8891
26444SOL    HW286383   5.629   2.177   6.522  0.1055  0.0855 -1.2144
26445SOL     OW86384   2.698  12.298   6.257  0.2685  0.3128 -0.2100
26445SOL    HW186385   2.704  12.202   6.257 -3.9383 -0.1002 -0.3655
26445SOL    HW286386   2.723  12.323   6.168 -1.4359 -0.9708 -1.0994
26446SOL     OW86387   1.283   2.050   7.611  0.4666 -0.2219 -0.0126
26446SOL    HW186388   1.217   2.042   7.541 -1.1987 -0.2067  1.4819
26446SOL    HW286389   1.286   1.963   7.650  0.1784  0.1788  0.9177
26447SOL     OW86390  10.381   6.799   3.602  0.2557 -0.4019 -0.1711
26447SOL    HW186391  10.372   6.727   3.663  0.7820  0.3891  0.8606
26447SOL    HW286392  10.375   6.758   3.515 -1.4809 -1.4059  0.3850
26448SOL     OW86393   8.598   2.134   4.126 -0.0129  0.3935  0.0521
26448SOL    HW186394   8.578   2.157   4.217  0.7898  2.6556 -0.2774
26448SOL    HW286395   8.627   2.217   4.087  0.9315 -0.8162 -1.9145
26449SOL     OW86396   6.011   6.836   8.929 -0.3947 -0.0135 -0.3611
26449SOL    HW186397   5.926   6.861   8.965 -0.0455 -0.9015  1.2083
26449SOL    HW286398   6.054   6.790   9.001  0.7563 -1.0452 -1.6596
26450SOL     OW86399  11.587   4.626   8.227  0.0671  0.1023 -0.0479
26450SOL    HW186400  11.552   4.555   8.281  1.4664 -0.1348  0.5922
26450SOL    HW286401  11.680   4.626   8.246  0.8008 -0.5557 -3.1460
26451SOL     OW86402   5.051   4.321   4.702 -0.3248  0.2544  0.4052
26451SOL    HW186403   5.146   4.319   4.712 -0.3774 -2.6863  1.2903
26451SOL    HW286404   5.017   4.347   4.788 -0.3606  0.9076  0.2020
26452SOL     OW86405   5.037   1.655   5.329 -0.2707  0.6562  0.4053
26452SOL    HW186406   5.026   1.565   5.360 -1.1205  0.7388  0.3771
26452SOL    HW286407   4.949   1.682   5.304  0.2431  0.8552 -1.3537
26453SOL     OW86408   8.081   5.385  11.588  0.1876 -0.2381 -0.1392
26453SOL    HW186409   8.051   5.464  11.542  0.9678 -1.0031 -2.0479
26453SOL    HW286410   8.035   5.388  11.672  0.5335  2.4727  0.0455
26454SOL     OW86411  12.080   9.787   6.190 -0.1487 -0.4218  0.0597
26454SOL    HW186412  12.000   9.768   6.142 -0.8729  0.5651  0.8295
26454SOL    HW286413  12.073   9.735   6.270  0.4454 -1.0702 -0.2982
26455SOL     OW86414   5.427   7.086   1.830 -0.1779  0.3115 -0.1005
26455SOL    HW186415   5.395   6.997   1.843  1.2812 -0.0021  1.7152
26455SOL    HW286416   5.393   7.135   1.905  0.7532  0.7800  0.0283
26456SOL     OW86417   3.286   3.809   4.966  0.0972  0.3077  0.7393
26456SOL    HW186418   3.339   3.883   4.935  1.8521 -1.1941 -0.0397
26456SOL    HW286419   3.281   3.750   4.891 -0.8662 -0.5976  1.4889
26457SOL     OW86420  10.592   9.753  12.051 -0.1796  0.0671 -0.1728
26457SOL    HW186421  10.677   9.721  12.023 -0.2614  0.8267 -1.3464
26457SOL    HW286422  10.531   9.725  11.983 -0.6731  0.5129  0.0757
26458SOL     OW86423   5.343   6.801   5.287  0.1063  0.3032  0.2643
26458SOL    HW186424   5.398   6.869   5.248  0.3890 -0.2581 -0.3328
26458SOL    HW286425   5.387   6.719   5.265 -0.9431 -0.1625 -0.1846
26459SOL     OW86426   9.617  12.300   8.573  0.5428 -0.3093 -0.7278
26459SOL    HW186427   9.615  12.314   8.479  0.1405  0.2824 -0.6326
26459SOL    HW286428   9.600  12.386   8.611  0.2422 -0.6346 -0.1184
26460SOL     OW86429  10.367   0.821   4.918 -0.3685 -0.4465  0.2019
26460SOL    HW186430  10.370   0.912   4.948  2.3323  0.0218 -1.1432
26460SOL    HW286431  10.422   0.773   4.980 -0.8464 -0.9520  0.2465
26461SOL     OW86432   6.434  12.288  11.816 -0.4357  0.3566 -0.4296
26461SOL    HW186433   6.430  12.369  11.765  2.0659  0.9897  0.2331
26461SOL    HW286434   6.478  12.226  11.759 -0.0485  0.2516 -0.0211
26462SOL     OW86435  10.355   9.977   0.634 -0.3446 -0.0486  0.0017
26462SOL    HW186436  10.298   9.913   0.592 -0.1723 -0.7092  0.7502
26462SOL    HW286437  10.378  10.038   0.564 -4.4834  2.1598  0.2758
26463SOL     OW86438   7.053  12.572   6.790 -0.6580  0.4721 -0.1632
26463SOL    HW186439   6.992  12.508   6.826 -0.8174 -0.8042 -2.5134
26463SOL    HW286440   6.998  12.636   6.746 -0.4106  0.1439 -0.9880
26464SOL     OW86441   0.142   4.929   1.782  0.3583  0.4340  0.1980
26464SOL    HW186442   0.111   5.012   1.747 -0.7529  0.0785  0.2975
26464SOL    HW286443   0.106   4.863   1.723  0.6917 -0.0185  0.4888
26465SOL     OW86444   0.623   1.239   4.656  0.5024  0.2248  0.2031
26465SOL    HW186445   0.707   1.203   4.684  1.8672  0.8907 -2.6095
26465SOL    HW286446   0.639   1.333   4.647 -0.3660  0.2977 -0.8341
26466SOL     OW86447   7.917   1.747   6.398 -0.3373  0.5812 -0.1564
26466SOL    HW186448   7.849   1.806   6.365 -0.0426  0.0237 -1.8481
26466SOL    HW286449   7.997   1.776   6.354  0.1159 -0.0944  0.2126
26467SOL     OW86450   8.283   4.262   7.671  0.3864  0.2086 -0.0614
26467SOL    HW186451   8.275   4.174   7.708  0.1544 -0.1394 -0.9093
26467SOL    HW286452   8.377   4.281   7.676  0.7703 -0.9476 -1.7091
26468SOL     OW86453   9.737   8.770  11.729  0.3452 -0.0550 -0.3116
26468SOL    HW186454   9.647   8.788  11.702  0.1726  1.4163  1.0910
26468SOL    HW286455   9.770   8.710  11.663 -1.0224  0.9439 -1.9970
26469SOL     OW86456   4.455   7.559   9.787  0.1090 -0.3384  0.0591
26469SOL    HW186457   4.458   7.547   9.882 -1.4995  2.0714  0.5128
26469SOL    HW286458   4.483   7.649   9.773 -1.4823 -0.0210 -1.5265
26470SOL     OW86459  12.455   3.829   7.262 -0.2373  0.1057 -0.4619
26470SOL    HW186460  12.459   3.924   7.266 -1.0357  0.1063  1.2591
26470SOL    HW286461  12.379   3.809   7.208 -0.6837  0.4601  0.0345
26471SOL     OW86462   3.865   0.232   1.128 -0.3376  0.3310  0.5157
26471SOL    HW186463   3.904   0.300   1.073 -0.7419  0.0028 -0.1965
26471SOL    HW286464   3.940   0.188   1.169  0.2360 -1.4222 -2.1508
26472SOL     OW86465   1.040  10.760   9.381 -0.2391  0.4861 -0.0293
26472SOL    HW186466   1.014  10.848   9.354 -0.5229  0.4390  0.0912
26472SOL    HW286467   1.002  10.702   9.316  0.8819  0.5285 -0.7416
26473SOL     OW86468   8.726   9.326   1.808 -0.4425 -1.0102  0.3203
26473SOL    HW186469   8.710   9.411   1.848 -1.2602  0.5352 -2.9810
26473SOL    HW286470   8.821   9.318   1.806 -0.1876  1.2266 -1.7361
26474SOL     OW86471   1.262   1.382   5.564  0.1721  0.0833  0.3536
26474SOL    HW186472   1.176   1.411   5.595 -0.6986  0.6413 -2.3211
26474SOL    HW286473   1.322   1.450   5.595 -0.2929 -0.3238  2.2732
26475SOL     OW86474   9.883   1.526   0.005 -0.2191 -0.4748 -0.2686
26475SOL    HW186475   9.862   1.618   0.021 -0.5658 -0.5060 -0.5404
26475SOL    HW286476   9.825   1.500  -0.066 -1.3679 -1.3866  0.9382
26476SOL     OW86477   4.191   0.531   1.879 -0.3297  0.2078 -0.5012
26476SOL    HW186478   4.225   0.499   1.795  0.2203 -0.2342 -0.1174
26476SOL    HW286479   4.175   0.624   1.864 -0.1592  0.1504 -1.0747
26477SOL     OW86480   1.099   7.902   1.384  0.5303  0.2579 -0.7123
26477SOL    HW186481   1.007   7.879   1.370  0.0943  0.8381  0.9679
26477SOL    HW286482   1.135   7.827   1.430  0.8097  0.1995 -1.0224
26478SOL     OW86483   2.494  11.210  11.412  0.3752 -0.0382 -0.0884
26478SOL    HW186484   2.459  11.298  11.423  1.2769  0.4644 -0.9991
26478SOL    HW286485   2.537  11.213  11.326  1.6448 -0.9393  0.4939
26479SOL     OW86486   3.923  10.032   3.513 -0.6821 -0.1543  0.0873
26479SOL    HW186487   3.939  10.080   3.432  1.3134 -1.3043 -0.2521
26479SOL    HW286488   3.872   9.956   3.485  0.0748 -0.5938 -0.1303
26480SOL     OW86489   2.879   4.898  11.332 -0.2751  0.1765  0.0179
26480SOL    HW186490   2.796   4.859  11.361  0.7561 -0.4718  2.3405
26480SOL    HW286491   2.870   4.905  11.237 -3.3465  0.9914  0.2462
26481SOL     OW86492  10.497  11.752   2.845 -0.1540 -0.2883 -0.5723
26481SOL    HW186493  10.504  11.840   2.883 -0.1846 -1.4675  2.4818
26481SOL    HW286494  10.403  11.737   2.835 -0.1539 -0.0293 -0.9769
26482SOL     OW86495  10.793   1.658   3.186 -0.4629  0.1226  0.3011
26482SOL    HW186496  10.840   1.575   3.177  1.4602  1.2497 -0.7050
26482SOL    HW286497  10.843   1.706   3.252  0.3625  1.6940 -1.3985
26483SOL     OW86498  10.085   6.468  11.603 -0.2864 -0.7447 -0.0132
26483SOL    HW186499   9.994   6.441  11.603  0.0811 -2.0718 -1.1572
26483SOL    HW286500  10.097   6.510  11.689 -2.1896  0.3568 -0.2256
26484SOL     OW86501   8.919   4.831   8.346 -0.3656  0.2814 -0.3883
26484SOL    HW186502   9.012   4.817   8.368 -0.0383 -1.7242 -2.6296
26484SOL    HW286503   8.878   4.746   8.362 -2.0536  1.3392  1.2836
26485SOL     OW86504   7.029   9.749   5.932 -0.2079 -0.2534 -0.0370
26485SOL    HW186505   7.004   9.700   5.854 -2.2582 -1.8143  1.4971
26485SOL    HW286506   6.951   9.799   5.955 -0.8123 -2.2634  2.7344
26486SOL     OW86507  12.340   9.394   9.624  0.7693  0.3905  0.7512
26486SOL    HW186508  12.336   9.356   9.536  0.6445  1.1113  0.4423
26486SOL    HW286509  12.423   9.364   9.659  0.0567 -1.3491  1.0632
26487SOL     OW86510   3.683   4.291   5.213  0.2701  0.1545 -0.1710
26487SOL    HW186511   3.669   4.217   5.153  1.7960  0.0441 -0.4443
26487SOL    HW286512   3.595   4.316   5.242 -0.3467 -1.1246 -0.8512
26488SOL     OW86513   2.604   8.732   8.200  0.0488  0.7345 -0.4515
26488SOL    HW186514   2.519   8.771   8.177 -0.2867  0.0821 -0.3533
26488SOL    HW286515   2.648   8.719   8.117 -0.4719 -0.0834 -0.6090
26489SOL     OW86516   6.986   5.730  11.272 -0.5490  0.3360  0.1067
26489SOL    HW186517   7.020   5.724  11.362 -2.1344 -2.7904  0.6586
26489SOL    HW286518   7.063   5.739  11.217  0.4824  2.1334  1.7253
26490SOL     OW86519   1.770   3.779   9.646 -0.0638  0.2971 -0.1492
26490SOL    HW186520   1.688   3.827   9.635  0.2947  0.7092 -1.1640
26490SOL    HW286521   1.744   3.691   9.671 -0.8371  0.3320 -0.8005
26491SOL     OW86522   7.452   5.434   6.688  0.1880  0.3441 -0.1614
26491SOL    HW186523   7.450   5.455   6.782 -0.9888  2.6983 -0.6352
26491SOL    HW286524   7.363   5.451   6.658  0.6938  0.1744 -1.8290
26492SOL     OW86525   9.285   4.579   1.029  0.7325 -0.6586 -0.0272
26492SOL    HW186526   9.301   4.490   0.999 -1.0763 -1.0527  0.0602
26492SOL    HW286527   9.193   4.579   1.058  0.4178  1.4279 -0.7934
26493SOL     OW86528  11.416   6.845   7.319  0.2947 -0.1271  0.0488
26493SOL    HW186529  11.396   6.858   7.226 -0.8321 -3.6573 -0.3748
26493SOL    HW286530  11.330   6.838   7.361  0.7944  0.6523  1.2545
26494SOL     OW86531   4.242  11.342  11.665 -0.1617  0.0495 -0.6960
26494SOL    HW186532   4.256  11.434  11.689  1.1508 -0.6407  1.4976
26494SOL    HW286533   4.167  11.315  11.718  1.3939 -0.9120  1.1389
26495SOL     OW86534   6.684   5.179  12.468 -0.1016 -0.1824  0.2615
26495SOL    HW186535   6.685   5.274  12.481 -2.7342 -0.0031 -0.4463
26495SOL    HW286536   6.596   5.152  12.493  1.3570 -2.9005  3.0411
26496SOL     OW86537  11.021   9.803   3.126 -0.2478 -0.1681 -0.6970
26496SOL    HW186538  10.995   9.895   3.123 -0.1453 -0.1187 -0.1000
26496SOL    HW286539  10.946   9.758   3.164  0.2888 -0.1004  0.5031
26497SOL     OW86540   1.391   2.511   6.371  0.2658 -0.1457 -0.0063
26497SOL    HW186541   1.351   2.597   6.364  0.0703 -0.2378 -0.0181
26497SOL    HW286542   1.475   2.520   6.326 -0.3681 -0.3425 -1.2852
26498SOL     OW86543   2.247  10.909   8.936 -0.0698  0.3551 -0.1951
26498SOL    HW186544   2.239  10.827   8.886 -0.4096  0.1839  0.1315
26498SOL    HW286545   2.326  10.897   8.988 -0.3315  0.0755  0.1390
26499SOL     OW86546   2.854   3.235  11.296  0.2104  0.6747  0.4959
26499SOL    HW186547   2.944   3.265  11.283  0.9536 -1.6520 -0.2973
26499SOL    HW286548   2.858   3.180  11.374 -1.0881  2.4011  1.8690
26500SOL     OW86549   9.568   3.140   1.451  1.0605 -0.0795 -0.1803
26500SOL    HW186550   9.491   3.194   1.435  2.3528  2.0469  0.3395
26500SOL    HW286551   9.591   3.157   1.543  0.3055 -3.2481  0.7146
26501SOL     OW86552   6.642   1.796   2.463 -0.0691 -0.1693 -0.1812
26501SOL    HW186553   6.733   1.827   2.468 -0.3153  0.4387  0.8622
26501SOL    HW286554   6.623   1.793   2.369  0.9296 -0.0146 -0.4042
26502SOL     OW86555  12.510   0.712  12.022 -0.1052  0.5490  0.2041
26502SOL    HW186556  12.579   0.660  12.062  2.5962  1.4142 -2.8996
26502SOL    HW286557  12.466   0.652  11.961 -2.0323  0.0752  1.9672
26503SOL     OW86558   4.990   1.188   3.354  0.0472 -0.4294  0.1854
26503SOL    HW186559   5.014   1.275   3.322 -2.0435 -0.4748 -1.6951
26503SOL    HW286560   4.923   1.205   3.420  0.8660 -0.5816  1.0841
26504SOL     OW86561  10.463   0.673   6.517 -0.4935  0.3304  0.0245
26504SOL    HW186562  10.542   0.619   6.515 -1.0959 -0.6315  1.2142
26504SOL    HW286563  10.448   0.690   6.610 -1.0717  1.4477 -0.2548
26505SOL     OW86564   1.697  10.770   2.982  0.3037 -0.2693  0.3762
26505SOL    HW186565   1.714  10.820   3.062  1.0534 -2.1040  1.4397
26505SOL    HW286566   1.697  10.678   3.011 -0.8869 -0.9062 -1.4942
26506SOL     OW86567   8.195   1.017   1.041  0.0144  0.1481 -0.2075
26506SOL    HW186568   8.256   1.045   0.973  1.3033  1.4134  1.3678
26506SOL    HW286569   8.120   1.075   1.031  0.1882  0.3163 -0.5529
26507SOL     OW86570   0.163   3.832   3.237 -0.3474 -0.3218 -0.5930
26507SOL    HW186571   0.219   3.795   3.305  0.1137  0.2963 -0.6297
26507SOL    HW286572   0.075   3.832   3.276 -0.0203  0.4681  0.2049
26508SOL     OW86573   4.496   9.916   0.584 -0.0268  0.4709  0.1777
26508SOL    HW186574   4.533   9.992   0.629  0.4187  0.4674 -0.1694
26508SOL    HW286575   4.517   9.841   0.640 -1.1702  0.6877  0.9258
26509SOL     OW86576   2.874   8.420   3.248 -0.2727 -0.3343 -0.7388
26509SOL    HW186577   2.810   8.352   3.224 -0.2178  0.0841 -2.1393
26509SOL    HW286578   2.832   8.466   3.321 -1.8338  0.2521 -1.9422
26510SOL     OW86579   8.331  11.101   7.358 -0.5098  0.0663 -0.0535
26510SOL    HW186580   8.298  11.046   7.430 -0.3021 -0.8564 -0.6531
26510SOL    HW286581   8.402  11.152   7.398 -0.5791 -0.2338  0.4637
26511SOL     OW86582  11.061   1.027  12.518  0.0996 -0.5599 -0.5094
26511SOL    HW186583  11.089   0.954  12.573  1.1575  0.4567  0.3485
26511SOL    HW286584  11.107   1.013  12.435  1.0120 -0.3939 -0.0425
26512SOL     OW86585   2.268   9.481   0.141  0.3552 -0.1547 -0.2402
26512SOL    HW186586   2.353   9.505   0.178 -0.0744  0.8006  0.1619
26512SOL    HW286587   2.209   9.477   0.217  0.2331 -1.8184 -0.3761
26513SOL     OW86588  10.457   0.525   4.144  0.3048 -0.4585 -0.4978
26513SOL    HW186589  10.371   0.558   4.172 -0.3804 -3.7493  1.8759
26513SOL    HW286590  10.469   0.562   4.057 -2.6500  1.6055 -0.2150
26514SOL     OW86591  11.101   6.251  11.249  0.1611  0.2104 -0.0362
26514SOL    HW186592  11.049   6.292  11.179  1.3215 -0.0608 -1.0780
26514SOL    HW286593  11.061   6.165  11.261  0.8676 -0.3315 -1.4280
26515SOL     OW86594  10.925   7.858  12.056 -0.1748 -1.0568 -0.2053
26515SOL    HW186595  10.851   7.919  12.058  0.6075 -0.0714 -0.4533
26515SOL    HW286596  10.906   7.796  12.126 -0.7653 -0.2436  0.3818
26516SOL     OW86597   5.048   7.164  12.067  0.5374 -0.2847 -0.5826
26516SOL    HW186598   5.072   7.104  12.137  0.0051  0.7247  0.5034
26516SOL    HW286599   5.092   7.246  12.090 -1.6944  0.8202  0.0183
26517SOL     OW86600   5.607   0.067   7.050  0.6187 -0.0485 -0.2981
26517SOL    HW186601   5.646   0.110   6.975  0.3782 -1.2055 -1.1204
26517SOL    HW286602   5.598  -0.025   7.023  0.4209 -0.4643  1.0976
26518SOL     OW86603  11.627  10.713   2.196 -0.2890 -0.0009 -0.0289
26518SOL    HW186604  11.573  10.656   2.140 -1.3764 -0.9300  1.8559
26518SOL    HW286605  11.629  10.667   2.280  1.0795  1.4664  0.7699
26519SOL     OW86606   6.784   6.662  10.666  0.0879 -0.1518  0.4319
26519SOL    HW186607   6.743   6.575  10.658  0.0804 -0.0921 -0.2746
26519SOL    HW286608   6.874   6.643  10.693 -0.2899 -0.3033  1.6339
26520SOL     OW86609  10.089  11.610   5.325 -0.7029  0.9128  0.1879
26520SOL    HW186610  10.117  11.672   5.392 -1.0474  1.1412  0.1206
26520SOL    HW286611  10.019  11.560   5.366  0.2735 -0.1452  0.6005
26521SOL     OW86612   7.354  10.686   8.607  0.2510 -0.1347  0.0251
26521SOL    HW186613   7.437  10.638   8.602  1.3283  1.7149 -1.0818
26521SOL    HW286614   7.330  10.701   8.516 -1.4787 -0.8715  0.3302
26522SOL     OW86615   7.167  10.075   0.519 -0.3241  0.5440  0.3230
26522SOL    HW186616   7.143  10.158   0.561 -0.6133 -0.3882  2.0815
26522SOL    HW286617   7.098  10.014   0.545  0.0442 -0.3371 -0.6945
26523SOL     OW86618  12.211   4.100   5.419 -0.0801 -0.2364 -0.5287
26523SOL    HW186619  12.267   4.138   5.487  0.7459 -0.1625 -1.2241
26523SOL    HW286620  12.272   4.076   5.349 -1.0200  0.6638 -1.6966
26524SOL     OW86621   5.462   8.876  10.081  0.2293 -0.1710  0.0547
26524SOL    HW186622   5.535   8.903  10.025  0.7298 -0.2981  0.6328
26524SOL    HW286623   5.500   8.871  10.169  0.1203 -2.5236  0.0268
26525SOL     OW86624   9.942   9.162   6.377 -0.2887 -0.2241  0.1419
26525SOL    HW186625   9.895   9.207   6.306 -0.0756  0.6502  0.5390
26525SOL    HW286626  10.008   9.225   6.405 -0.9863 -0.1671  1.7810
26526SOL     OW86627  11.292   2.170   8.000  0.4223  0.2975  0.4425
26526SOL    HW186628  11.278   2.237   7.933  1.8812  0.7086  0.5359
26526SOL    HW286629  11.237   2.097   7.971  0.6262  0.6589 -0.9393
26527SOL     OW86630   3.002   0.226   3.173 -0.4077  0.1125  0.3662
26527SOL    HW186631   2.918   0.247   3.131 -0.8286 -1.9397  0.0991
26527SOL    HW286632   2.981   0.157   3.236  0.8347  0.6475  1.4057
26528SOL     OW86633   2.406   7.523   0.868  0.7020 -0.4050 -0.2753
26528SOL    HW186634   2.375   7.503   0.957 -1.5447 -0.4417 -1.0066
26528SOL    HW286635   2.419   7.437   0.828 -0.8393 -0.4544 -0.7598
26529SOL     OW86636   2.034   4.049  10.588  0.0401  0.6580 -0.4557
26529SOL    HW186637   1.942   4.061  10.564 -0.1015  1.2460  0.3462
26529SOL    HW286638   2.082   4.071  10.509 -0.5548 -1.3718 -1.4539
26530SOL     OW86639   1.557   5.619   5.024  0.2879 -0.0056 -0.1840
26530SOL    HW186640   1.564   5.696   4.969  2.0527  1.1617  1.5224
26530SOL    HW286641   1.565   5.545   4.964  0.6615  1.1702 -1.6246
26531SOL     OW86642  12.253   7.660  11.011  0.5227 -0.4781  0.5195
26531SOL    HW186643  12.263   7.738  11.066 -1.4842  1.5669 -1.8074
26531SOL    HW286644  12.174   7.618  11.044 -0.2214  0.2934 -0.2647
26532SOL     OW86645   6.241   3.420   7.491 -0.3566  0.0469 -0.0603
26532SOL    HW186646   6.317   3.363   7.480 -0.0860  0.2753  0.6031
26532SOL    HW286647   6.173   3.378   7.438  0.3149  0.0267 -0.9383
26533SOL     OW86648   3.581   2.983   3.350  0.3396  0.2808  0.0666
26533SOL    HW186649   3.631   2.902   3.354  0.2404  0.1958 -0.3530
26533SOL    HW286650   3.509   2.964   3.290  1.0977  1.1029 -1.1391
26534SOL     OW86651   1.687   9.101   4.622  0.3862 -0.2807 -0.1257
26534SOL    HW186652   1.718   9.028   4.677  0.1566 -0.3839 -0.1328
26534SOL    HW286653   1.767   9.144   4.592  0.5061  0.2014  0.8475
26535SOL     OW86654   6.238   7.765   2.441  0.3302 -0.2179 -0.6718
26535SOL    HW186655   6.213   7.710   2.515  0.2188 -1.2018 -1.4196
26535SOL    HW286656   6.161   7.765   2.384  0.0329  1.3733 -0.3350
26536SOL     OW86657   8.608   3.980  11.602 -0.3144 -0.0893  0.8010
26536SOL    HW186658   8.576   4.006  11.516  0.6678  1.2006  0.7831
26536SOL    HW286659   8.531   3.948  11.649 -0.8261 -1.0065 -0.6034
26537SOL     OW86660  12.405  12.326   2.344  0.1534  0.2632 -0.3901
26537SOL    HW186661  12.429  12.411   2.308  0.5161  0.2103 -0.2770
26537SOL    HW286662  12.397  12.341   2.438 -0.6718  0.3733 -0.4702
26538SOL     OW86663   6.640  10.093   3.300 -0.4069 -0.7987 -0.3660
26538SOL    HW186664   6.728  10.084   3.335 -0.4394 -0.6495 -0.2439
26538SOL    HW286665   6.649  10.156   3.228 -0.3883 -0.8978 -0.4520
26539SOL     OW86666   6.635  11.903  11.487 -0.2418 -0.2920 -0.1630
26539SOL    HW186667   6.687  11.937  11.560 -0.7862  0.7208 -0.2351
26539SOL    HW286668   6.691  11.836  11.447  0.6611  0.1813  0.2769
26540SOL     OW86669  11.539   5.332  11.555 -0.1081 -0.1732 -0.4440
26540SOL    HW186670  11.455   5.339  11.510 -1.5248 -2.3874  1.6462
26540SOL    HW286671  11.580   5.254  11.518 -0.7498 -1.3076  1.0921
26541SOL     OW86672   3.686   8.662   1.238  0.5238 -0.6638 -0.5871
26541SOL    HW186673   3.703   8.745   1.193 -1.7959  0.1399 -0.1097
26541SOL    HW286674   3.771   8.618   1.239  2.5519  2.7969  1.4326
26542SOL     OW86675  11.931   6.706   5.465  0.3082 -0.0937  0.0092
26542SOL    HW186676  11.978   6.631   5.499  2.2626  1.3210  0.6097
26542SOL    HW286677  11.925   6.690   5.371  0.7185 -0.9725  0.1206
26543SOL     OW86678   1.056   3.692   2.010  0.5133 -0.4244  0.1355
26543SOL    HW186679   0.982   3.632   1.999  0.0861  0.1971 -0.4870
26543SOL    HW286680   1.019   3.767   2.056  0.8914 -0.3460  0.3130
26544SOL     OW86681  10.672   5.486   1.555 -0.0866  0.3079  0.0339
26544SOL    HW186682  10.676   5.577   1.586 -2.9224  0.3864  0.5127
26544SOL    HW286683  10.619   5.441   1.621 -0.3553 -1.2248 -1.1766
26545SOL     OW86684   7.832   7.395   1.897  0.4079 -0.0684 -0.0218
26545SOL    HW186685   7.927   7.395   1.891  0.5952 -0.8298  2.1064
26545SOL    HW286686   7.813   7.427   1.986 -1.4761  3.1335 -1.3716
26546SOL     OW86687   6.880   0.732   3.864 -0.0738 -0.0572  0.3023
26546SOL    HW186688   6.975   0.738   3.875  0.1729 -2.5224  0.2882
26546SOL    HW286689   6.867   0.646   3.823 -2.3049  0.3332  0.0842
26547SOL     OW86690   0.458   0.176   9.663 -0.4623 -0.1443 -0.0955
26547SOL    HW186691   0.429   0.116   9.594 -2.5730  0.2529  0.3609
26547SOL    HW286692   0.483   0.119   9.735 -0.9334 -0.5221 -0.2226
26548SOL     OW86693   8.408   8.668  11.747 -0.1693  0.2817 -0.0904
26548SOL    HW186694   8.427   8.750  11.701  1.1190 -0.7483 -1.5094
26548SOL    HW286695   8.494   8.633  11.771 -0.7094 -0.5659  0.6576
26549SOL     OW86696  11.822   0.991   8.127 -0.2538  0.1838 -0.1384
26549SOL    HW186697  11.835   0.941   8.207  0.6918  1.7838  0.7724
26549SOL    HW286698  11.727   0.992   8.114 -0.2891 -1.9677 -0.3263
26550SOL     OW86699   3.245   8.509   2.817  0.4421 -0.3584 -0.0394
26550SOL    HW186700   3.274   8.419   2.800 -0.0640 -0.1294 -2.4368
26550SOL    HW286701   3.321   8.563   2.795  0.6794 -0.1456  1.2068
26551SOL     OW86702   7.378   7.426   2.743  0.0872  0.8132  0.0719
26551SOL    HW186703   7.346   7.515   2.761 -0.4231  0.4948  0.8233
26551SOL    HW286704   7.367   7.380   2.827 -0.7487 -0.2799 -0.6129
26552SOL     OW86705   3.636  11.382   8.044  0.7972  0.5710  0.7007
26552SOL    HW186706   3.554  11.431   8.041  0.2114 -0.4383 -1.1339
26552SOL    HW286707   3.608  11.291   8.054  1.6816  0.1994 -0.1303
26553SOL     OW86708   9.891   9.959   5.789 -0.0865 -0.3074  0.0628
26553SOL    HW186709   9.901   9.907   5.869 -2.1814  2.7225  2.5201
26553SOL    HW286710   9.977   9.999   5.775 -0.2910  1.1918  2.4909
26554SOL     OW86711  10.578  11.938   5.793 -0.0324 -0.8557 -0.6501
26554SOL    HW186712  10.637  11.941   5.868 -1.2593  1.7693  0.3183
26554SOL    HW286713  10.634  11.956   5.717  0.3992  2.9148  0.3680
26555SOL     OW86714   7.413  10.522   1.605  0.7329 -0.1718  0.4266
26555SOL    HW186715   7.504  10.492   1.610  0.2978 -1.8413 -0.8057
26555SOL    HW286716   7.371  10.484   1.681  0.2917 -2.4795 -0.8900
26556SOL     OW86717   9.890   4.211   0.777 -0.5288  0.5395  0.2902
26556SOL    HW186718   9.872   4.295   0.817  1.4269  0.9644  0.3965
26556SOL    HW286719   9.947   4.166   0.839  0.6085  0.2336 -0.9186
26557SOL     OW86720   5.737  11.086  10.718 -0.0969 -0.4912  0.1924
26557SOL    HW186721   5.748  11.052  10.807 -0.1319 -1.9448 -0.3313
26557SOL    HW286722   5.805  11.153  10.709 -0.2232 -0.1679  1.3674
26558SOL     OW86723  11.411  11.261   8.628  0.3074  0.3828  0.4167
26558SOL    HW186724  11.436  11.182   8.579  2.9407  0.6027  1.2574
26558SOL    HW286725  11.407  11.232   8.719 -1.0425  0.7567  0.5019
26559SOL     OW86726   1.637   1.686   8.722 -0.1884  0.0906  0.4885
26559SOL    HW186727   1.601   1.710   8.807 -0.3818  0.1484  0.3908
26559SOL    HW286728   1.666   1.595   8.733 -0.1793  0.1097  0.6260
26560SOL     OW86729  11.861  11.695   4.942  0.3588 -0.0838 -0.0183
26560SOL    HW186730  11.928  11.755   4.908  0.7087 -0.9842 -0.9660
26560SOL    HW286731  11.858  11.714   5.036  2.2512 -0.3011  0.1254
26561SOL     OW86732  12.533  10.297   6.273 -0.5749 -0.3797 -0.2924
26561SOL    HW186733  12.491  10.289   6.358 -2.0930 -1.1391 -1.0781
26561SOL    HW286734  12.594  10.371   6.283 -2.2682  0.9364  0.8320
26562SOL     OW86735   6.443  10.305   6.034  0.6805 -0.5190 -0.5110
26562SOL    HW186736   6.491  10.349   6.104  0.2758  0.6265 -0.9414
26562SOL    HW286737   6.394  10.236   6.079 -0.2578  0.7517  0.4886
26563SOL     OW86738  11.192   2.775   8.803 -0.0457  0.0164  0.7453
26563SOL    HW186739  11.147   2.835   8.744  0.9482  0.8041  0.7517
26563SOL    HW286740  11.285   2.792   8.787  0.2829 -1.9184  0.3532
26564SOL     OW86741  12.099   4.927   4.218  0.5924 -0.7067 -0.4349
26564SOL    HW186742  12.094   4.832   4.215 -2.9562 -0.6784  0.0433
26564SOL    HW286743  12.046   4.951   4.295 -0.7770  1.6674 -2.0090
26565SOL     OW86744  11.849   8.828   2.139 -0.5143 -0.8358 -0.5134
26565SOL    HW186745  11.851   8.913   2.182 -0.7535  0.3923 -2.7570
26565SOL    HW286746  11.939   8.814   2.109 -0.4119 -1.5220  0.0944
26566SOL     OW86747  12.041   8.697   8.919  0.5023  0.1737 -0.4939
26566SOL    HW186748  12.120   8.745   8.945  0.7263 -0.3169 -0.2551
26566SOL    HW286749  11.972   8.733   8.975  0.6011  0.4457 -0.5446
26567SOL     OW86750   2.190   0.286   8.227 -0.3694 -0.3256 -0.1697
26567SOL    HW186751   2.237   0.352   8.177  1.5483 -0.6272  1.1483
26567SOL    HW286752   2.179   0.213   8.167  2.7462 -1.0637 -0.0017
26568SOL     OW86753   3.399   4.924   9.514  0.0591 -0.2621 -0.1212
26568SOL    HW186754   3.434   5.013   9.519  0.3696 -0.4541  1.8767
26568SOL    HW286755   3.477   4.868   9.517 -0.1222 -0.6417 -1.5267
26569SOL     OW86756   9.774   4.150   4.983 -0.1998  0.1323 -0.1266
26569SOL    HW186757   9.826   4.231   4.989  0.9643 -0.6667  1.2056
26569SOL    HW286758   9.822   4.095   4.922  1.1181 -0.9640  1.7948
26570SOL     OW86759   0.648  12.551   1.224  0.3724  0.3735 -0.4292
26570SOL    HW186760   0.693  12.635   1.232  0.2112  0.5004 -0.8008
26570SOL    HW286761   0.717  12.489   1.197  0.5542  0.3169  0.1633
26571SOL     OW86762  11.532  10.813   9.129  0.6241  0.0782  0.3019
26571SOL    HW186763  11.470  10.778   9.065  0.2331 -0.4468  0.9612
26571SOL    HW286764  11.594  10.864   9.076  0.1951 -0.1819 -0.4703
26572SOL     OW86765  11.329   5.091   9.039  0.4155  0.8470  0.4831
26572SOL    HW186766  11.239   5.100   9.008  1.0237  0.0336 -1.7084
26572SOL    HW286767  11.383   5.115   8.964  2.0139 -0.5459  1.1094
26573SOL     OW86768   8.620   7.365   7.298 -0.1903 -0.1206  0.1357
26573SOL    HW186769   8.635   7.347   7.391 -0.3626 -1.1756 -0.0228
26573SOL    HW286770   8.595   7.457   7.295 -1.7104 -0.4460  1.3221
26574SOL     OW86771   7.457   8.932   4.455 -0.6409  0.3226  0.7167
26574SOL    HW186772   7.498   8.939   4.541 -0.3148 -0.2926  0.6166
26574SOL    HW286773   7.367   8.904   4.474 -2.1644  4.6267  1.1753
26575SOL     OW86774   4.813   2.636   6.496 -0.3917  0.0074  0.0487
26575SOL    HW186775   4.809   2.546   6.528  1.6779 -0.6882 -1.4497
26575SOL    HW286776   4.893   2.672   6.534  0.0969  0.3799 -1.2754
26576SOL     OW86777   6.971   7.995   0.473  0.0378  0.0144 -0.0484
26576SOL    HW186778   7.062   7.968   0.458  0.1653  1.0880 -1.4750
26576SOL    HW286779   6.952   7.968   0.562  1.4854 -0.9967 -0.0166
26577SOL     OW86780  10.108  11.664   4.371 -0.0736  0.0819  0.4208
26577SOL    HW186781  10.078  11.631   4.456  0.8932 -1.0018  0.3737
26577SOL    HW286782  10.168  11.735   4.394  1.7716 -1.5093  0.7892
26578SOL     OW86783  11.332   6.389   0.160 -0.3612 -0.0220 -0.1977
26578SOL    HW186784  11.260   6.410   0.220  0.3681  2.4319 -0.0908
26578SOL    HW286785  11.408   6.433   0.198  0.7506 -0.7973 -1.4462
26579SOL     OW86786   3.549   2.400   4.323 -0.4097  0.1407  0.0746
26579SOL    HW186787   3.577   2.447   4.244 -0.8496  0.9574  0.3938
26579SOL    HW286788   3.608   2.324   4.328 -0.8107 -0.3140 -1.4143
26580SOL     OW86789   3.131   0.019   5.315 -0.2456 -0.1658  0.4663
26580SOL    HW186790   3.122   0.103   5.360  0.6510 -1.8772  4.2875
26580SOL    HW286791   3.042  -0.015   5.310 -0.3467 -0.0646  1.3497
26581SOL     OW86792   4.368   9.678   4.846 -0.1907 -0.4170  0.2038
26581SOL    HW186793   4.330   9.591   4.860  1.5690 -1.1371  0.7281
26581SOL    HW286794   4.388   9.680   4.752 -2.8186  0.5792 -0.4413
26582SOL     OW86795  10.746   3.834   3.750  0.7184 -0.1635  0.7204
26582SOL    HW186796  10.769   3.807   3.839  1.8431 -1.0646  0.1885
26582SOL    HW286797  10.655   3.807   3.739  1.0454 -1.4853  1.0865
26583SOL     OW86798   4.418  10.734   1.319 -0.0904  0.0879  0.4250
26583SOL    HW186799   4.435  10.728   1.413  2.6109 -0.5215 -0.0266
26583SOL    HW286800   4.475  10.805   1.289 -0.4858 -0.1075 -0.8422
26584SOL     OW86801   0.239  11.102   5.377  0.0789  0.6458 -0.5495
26584SOL    HW186802   0.185  11.180   5.362 -0.1222  0.2946 -1.8480
26584SOL    HW286803   0.178  11.028   5.365  0.3000  0.2716  0.5053
26585SOL     OW86804  12.559  11.784   9.278  0.1615 -0.6261 -0.3091
26585SOL    HW186805  12.608  11.708   9.248  0.9932 -0.8298  1.4590
26585SOL    HW286806  12.611  11.820   9.349 -0.3223  1.4829 -0.9397
26586SOL     OW86807  10.707   2.128  10.054  0.3016  0.2236 -0.4981
26586SOL    HW186808  10.620   2.164  10.075  0.0710 -0.6115  0.0054
26586SOL    HW286809  10.717   2.144   9.960  0.4127  2.0356 -0.2149
26587SOL     OW86810  11.197   6.056   5.819 -0.2787 -0.0506 -0.4576
26587SOL    HW186811  11.256   6.035   5.746  1.1615 -0.3287  0.7288
26587SOL    HW286812  11.147   5.976   5.833  0.0375 -0.2801 -0.6141
26588SOL     OW86813   1.352   7.213   4.855 -0.0860  0.0163  0.0036
26588SOL    HW186814   1.278   7.262   4.820  0.9027  1.9689  0.5189
26588SOL    HW286815   1.428   7.248   4.809  0.6567 -1.2326  0.2167
26589SOL     OW86816   6.856   6.498   1.150 -0.5697 -0.5542 -0.4809
26589SOL    HW186817   6.879   6.560   1.081 -0.3490 -0.4206 -0.2895
26589SOL    HW286818   6.814   6.425   1.103  0.7710 -1.0735 -0.9279
26590SOL     OW86819  12.334   0.911  11.485  0.0215  0.4366  0.4751
26590SOL    HW186820  12.352   0.927  11.577  0.0082  0.3344  0.4969
26590SOL    HW286821  12.241   0.887  11.483  0.5964 -2.1091  0.7805
26591SOL     OW86822   4.164   6.008   2.919 -0.8296  0.4488 -0.0747
26591SOL    HW186823   4.155   5.919   2.953  2.9298 -0.3914 -0.8889
26591SOL    HW286824   4.163   5.997   2.824  3.1123  0.6470 -0.2634
26592SOL     OW86825   3.939   5.079  11.436 -0.0326 -0.0047  0.3039
26592SOL    HW186826   3.964   4.987  11.445  1.6502  0.3549 -0.2306
26592SOL    HW286827   3.965   5.119  11.519  1.0810  0.3417 -0.1908
26593SOL     OW86828  11.952  10.966   1.161 -0.5261 -0.0857  0.0960
26593SOL    HW186829  11.999  10.944   1.081  0.8874 -1.1292  1.1595
26593SOL    HW286830  11.948  11.062   1.161 -0.1355 -0.0559 -0.9818
26594SOL     OW86831   4.265   2.918   2.934  0.1227  0.3736  0.6776
26594SOL    HW186832   4.318   2.875   3.001  0.8909 -0.4032 -0.4047
26594SOL    HW286833   4.321   2.988   2.900  0.2454 -0.0787 -0.0695
26595SOL     OW86834   5.218   6.535   1.925  0.1291  0.0015 -0.1126
26595SOL    HW186835   5.122   6.542   1.919 -0.0189 -1.3221  0.2662
26595SOL    HW286836   5.246   6.519   1.835 -0.0034  0.3548 -0.2204
26596SOL     OW86837   3.808   8.445   4.530  0.2982  0.1284  0.4244
26596SOL    HW186838   3.744   8.375   4.522  0.3131  0.1971 -0.3444
26596SOL    HW286839   3.818   8.457   4.624  0.8860 -1.4308  0.5920
26597SOL     OW86840   0.955   3.922   2.114  0.5666 -0.7534  0.4325
26597SOL    HW186841   0.868   3.939   2.078  1.0718 -0.2234 -0.5816
26597SOL    HW286842   0.972   3.994   2.174 -0.3837 -1.7725  1.9860
26598SOL     OW86843   9.700   5.800   2.991 -1.0575 -0.2311 -0.1139
26598SOL    HW186844   9.661   5.785   2.905 -2.4403 -0.3589  0.5066
26598SOL    HW286845   9.626   5.822   3.047 -0.2746 -0.8332  1.2055
26599SOL     OW86846   0.635   8.794  10.577 -0.0939 -0.9551 -0.0431
26599SOL    HW186847   0.624   8.770  10.484  1.4916 -0.5602 -0.3564
26599SOL    HW286848   0.663   8.713  10.619  0.5502 -0.8143 -0.1882
26600SOL     OW86849   6.028   8.180  11.411  0.1607  0.1655  0.3014
26600SOL    HW186850   5.998   8.255  11.461  0.1398 -0.1486  0.7677
26600SOL    HW286851   6.095   8.139  11.466 -0.9959 -1.1195  0.8252
26601SOL     OW86852   8.863   0.238   5.972 -0.1460  0.5363 -0.2524
26601SOL    HW186853   8.952   0.225   6.005  0.1876  0.3763 -1.1856
26601SOL    HW286854   8.867   0.211   5.880 -1.2110  0.3198 -0.2501
26602SOL     OW86855   4.595   8.297   0.557  0.3396 -0.1036 -0.8303
26602SOL    HW186856   4.617   8.214   0.600  0.9469  0.3995 -0.1378
26602SOL    HW286857   4.674   8.349   0.564 -0.1308  0.6501 -1.0006
26603SOL     OW86858   7.656  12.550   4.096 -0.6090 -0.3308 -0.1120
26603SOL    HW186859   7.572  12.503   4.089 -0.2968 -0.6808 -1.7199
26603SOL    HW286860   7.641  12.633   4.052 -0.0627 -0.4503 -0.5203
26604SOL     OW86861   4.224  12.125   0.673  0.3242  0.0046  0.3584
26604SOL    HW186862   4.151  12.099   0.617 -0.0384  0.6509  0.5190
26604SOL    HW286863   4.185  12.136   0.760  1.0122 -1.6927  0.9281
26605SOL     OW86864  11.739  11.367  11.318  0.4097  0.2309  0.3537
26605SOL    HW186865  11.742  11.411  11.403 -0.9230 -0.8207  0.9690
26605SOL    HW286866  11.821  11.318  11.314 -0.0134 -0.5938  1.5287
26606SOL     OW86867   3.321   4.558   0.235  0.1161  0.1227 -0.6553
26606SOL    HW186868   3.300   4.620   0.305 -0.3399  1.2134 -1.7366
26606SOL    HW286869   3.334   4.475   0.281  1.9415  1.2091  0.9921
26607SOL     OW86870   0.966  10.770   8.204 -0.2656 -0.6239 -0.3821
26607SOL    HW186871   0.986  10.794   8.294  1.2002 -1.4696 -0.4482
26607SOL    HW286872   0.875  10.797   8.191  0.0724  1.2066  0.7364
26608SOL     OW86873  10.429  11.685   1.405  0.2790 -0.3367 -0.3754
26608SOL    HW186874  10.358  11.621   1.400 -1.0523  1.0148  0.2097
26608SOL    HW286875  10.448  11.692   1.499  1.5989 -1.0872 -0.5666
26609SOL     OW86876   5.911  10.281   1.809 -0.0018  0.4461 -0.4082
26609SOL    HW186877   5.936  10.342   1.878 -2.7779 -0.1316  1.3047
26609SOL    HW286878   5.850  10.330   1.754  0.3956  0.2150 -1.0570
26610SOL     OW86879   2.374   6.730   2.542 -0.0760  0.7737  0.3857
26610SOL    HW186880   2.392   6.792   2.613  1.7228  1.1630 -0.3624
26610SOL    HW286881   2.432   6.757   2.471 -0.6422 -0.6144 -0.6565
26611SOL     OW86882   0.361  11.209  10.361 -0.2786 -0.9317  0.2781
26611SOL    HW186883   0.268  11.192  10.377 -0.1926 -2.6836 -0.8538
26611SOL    HW286884   0.373  11.197  10.267  0.5618  2.2951 -0.1522
26612SOL     OW86885  11.922   7.981  11.962  0.5146 -0.0508  0.1880
26612SOL    HW186886  11.854   8.048  11.958  1.0913  0.5072 -0.3653
26612SOL    HW286887  12.004   8.028  11.951  1.0187 -0.7005  0.9835
26613SOL     OW86888   4.890   8.284   9.305 -0.6981 -0.1556  0.1250
26613SOL    HW186889   4.808   8.282   9.355 -0.8494  0.8906 -0.0639
26613SOL    HW286890   4.862   8.286   9.213 -0.4204 -2.5624 -0.0838
26614SOL     OW86891   1.445   0.762   2.087  0.0447  0.2768  0.4579
26614SOL    HW186892   1.380   0.726   2.027  0.7141  0.3123 -0.3006
26614SOL    HW286893   1.394   0.819   2.146 -0.4977  0.9953 -0.6766
26615SOL     OW86894   8.083   1.548   8.270 -0.3994  0.0010 -0.5648
26615SOL    HW186895   8.000   1.590   8.290 -0.9516 -1.0701 -0.5086
26615SOL    HW286896   8.149   1.613   8.291 -1.2188  0.8383 -0.5238
26616SOL     OW86897   0.882  11.336   2.139 -0.3498 -0.2093 -0.0377
26616SOL    HW186898   0.904  11.313   2.230 -0.2917  0.8847  0.2396
26616SOL    HW286899   0.966  11.354   2.098 -0.2788 -1.7706 -0.6368
26617SOL     OW86900  11.490   0.703   2.118 -0.0372  0.8889  0.1783
26617SOL    HW186901  11.456   0.658   2.195 -0.1049  2.5444  1.1401
26617SOL    HW286902  11.417   0.700   2.055  0.2927 -1.1878 -0.2052
26618SOL     OW86903   1.864  12.392   4.440 -0.0824  0.6337  0.1224
26618SOL    HW186904   1.858  12.437   4.355 -2.0048 -0.7218 -0.5320
26618SOL    HW286905   1.951  12.351   4.439 -0.3595  0.0122 -1.5507
26619SOL     OW86906   3.037   9.913   7.931 -0.3694 -0.3840 -0.0612
26619SOL    HW186907   2.952   9.875   7.955  0.5140 -1.6527  1.2709
26619SOL    HW286908   3.085   9.917   8.014  0.8347  0.4257 -0.7696
26620SOL     OW86909   2.190   6.991   0.413 -0.3084  0.1829 -0.2658
26620SOL    HW186910   2.125   7.053   0.381 -0.7147  0.4847  1.0768
26620SOL    HW286911   2.272   7.040   0.411 -0.1220 -0.1290 -1.7554
26621SOL     OW86912   0.213   3.528   9.124  0.2897  0.3501  0.0382
26621SOL    HW186913   0.245   3.446   9.088 -1.3974 -0.2236 -0.2519
26621SOL    HW286914   0.231   3.593   9.056 -1.4857 -0.4518 -1.2980
26622SOL     OW86915   3.556   9.929   3.931  0.0949  0.7166  0.2227
26622SOL    HW186916   3.578  10.000   3.991  4.1633  0.2477 -0.3924
26622SOL    HW286917   3.633   9.873   3.932 -2.1107 -2.6043 -0.9242
26623SOL     OW86918   0.630   8.158   6.178  0.4590  0.4775  0.2197
26623SOL    HW186919   0.669   8.105   6.108 -1.6662 -0.4866 -0.3140
26623SOL    HW286920   0.675   8.242   6.172  1.1488  0.0432 -1.5360
26624SOL     OW86921   9.162  11.955  10.447 -0.1180 -0.3408  0.6580
26624SOL    HW186922   9.173  12.021  10.379  1.3607 -0.8084  0.4083
26624SOL    HW286923   9.196  11.995  10.527  1.0609 -0.8723  0.4443
26625SOL     OW86924   3.543   2.264   4.692 -0.8187 -0.0857  0.0880
26625SOL    HW186925   3.603   2.337   4.708 -0.1712 -0.9199  1.6853
26625SOL    HW286926   3.585   2.212   4.625  0.3563 -0.7283  1.2837
26626SOL     OW86927   4.702  11.026   0.366  0.8242  0.2737  0.3253
26626SOL    HW186928   4.638  11.019   0.437  2.5176  1.0595  1.9993
26626SOL    HW286929   4.754  10.945   0.373  0.2172 -0.2375 -0.8525
26627SOL     OW86930   9.833   2.119   5.052 -0.0188  0.0833 -0.0180
26627SOL    HW186931   9.770   2.048   5.038  1.5796 -1.6121  0.7807
26627SOL    HW286932   9.833   2.133   5.147  0.6558  0.1669 -0.0210
26628SOL     OW86933   9.353   8.294   1.095 -0.0516  0.6078 -0.1552
26628SOL    HW186934   9.329   8.369   1.040  1.2639 -0.5794 -2.4988
26628SOL    HW286935   9.449   8.295   1.096  0.1663 -2.5337 -2.6404
26629SOL     OW86936   6.837   8.373   2.951 -0.1255 -0.4411  0.2417
26629SOL    HW186937   6.840   8.406   2.861  1.7197  0.0377  0.4394
26629SOL    HW286938   6.838   8.452   3.006 -1.7402 -0.7164  0.7068
26630SOL     OW86939   3.342   3.789   0.564  0.1341 -0.1964 -0.5470
26630SOL    HW186940   3.247   3.794   0.552  0.2633 -0.3949 -1.8524
26630SOL    HW286941   3.354   3.743   0.647 -0.9253 -0.9618 -0.7993
26631SOL     OW86942   9.780   1.495  10.353 -0.0444  0.1796  0.1935
26631SOL    HW186943   9.701   1.456  10.317  0.2273 -0.2379  0.0423
26631SOL    HW286944   9.796   1.448  10.435  0.2247  0.0378  0.0631
26632SOL     OW86945   6.728   2.669   1.283  0.1288  0.5530  0.1305
26632SOL    HW186946   6.820   2.692   1.295 -0.2568  2.3652 -0.2086
26632SOL    HW286947   6.729   2.603   1.213  1.2783 -0.7475  1.2952
26633SOL     OW86948   1.499   7.863   3.382  0.2001  0.0557  0.1274
26633SOL    HW186949   1.461   7.872   3.469 -0.6326 -1.2964 -0.0738
26633SOL    HW286950   1.581   7.913   3.386  0.4990 -0.5271  1.8762
26634SOL     OW86951   9.277  12.149   7.209 -0.0346  0.7203 -0.0453
26634SOL    HW186952   9.239  12.207   7.144 -0.7521 -0.8518 -1.0821
26634SOL    HW286953   9.316  12.078   7.158  0.0535 -0.1608  1.2120
26635SOL     OW86954   9.493   6.211   0.139 -0.1861  0.5673  0.2526
26635SOL    HW186955   9.580   6.188   0.171 -0.4922  0.0632  0.7510
26635SOL    HW286956   9.486   6.170   0.054 -0.1557  0.1024  0.4726
26636SOL     OW86957   1.993   0.377  11.661 -0.1413 -0.2540 -0.2280
26636SOL    HW186958   1.974   0.371  11.568 -0.1588 -0.4507 -0.2132
26636SOL    HW286959   1.917   0.422  11.698  0.2161  0.5130 -0.4182
26637SOL     OW86960   7.357   8.773   5.310 -0.5799  0.0072 -0.2426
26637SOL    HW186961   7.377   8.816   5.393  0.6612 -0.1371 -0.4391
26637SOL    HW286962   7.284   8.714   5.330 -2.2064  2.0149  0.0728
26638SOL     OW86963   9.870  10.932   0.127  0.0746  0.1861 -0.5766
26638SOL    HW186964   9.947  10.921   0.071  0.3371  0.0530 -0.1950
26638SOL    HW286965   9.838  10.843   0.140  0.3578  0.1572 -0.0443
26639SOL     OW86966  10.938   0.021  12.265  0.0566  0.1745  0.3192
26639SOL    HW186967  10.857   0.038  12.218 -0.4390 -1.4672  0.5115
26639SOL    HW286968  10.982  -0.047  12.214  1.0754  0.6941  0.4862
26640SOL     OW86969   8.047   1.532   2.326  0.4466 -0.1940 -0.7617
26640SOL    HW186970   8.008   1.595   2.386 -1.1071  0.3094 -2.1876
26640SOL    HW286971   7.974   1.474   2.302  1.9143 -2.9078  0.8585
26641SOL     OW86972   5.253  12.123  10.328 -0.1043  0.3695  0.4726
26641SOL    HW186973   5.322  12.128  10.263 -0.8507 -0.2304 -0.3895
26641SOL    HW286974   5.298  12.126  10.412  1.0486 -0.8981 -0.0661
26642SOL     OW86975   3.196  11.442   3.269 -0.1362  0.0494 -0.3031
26642SOL    HW186976   3.252  11.474   3.198 -1.1101  0.8881 -0.7124
26642SOL    HW286977   3.217  11.499   3.343  1.1031 -1.0191  0.2103
26643SOL     OW86978   3.399   4.176   9.069 -0.1528  0.2253  0.8952
26643SOL    HW186979   3.435   4.175   9.158  0.5022  1.0710  0.6560
26643SOL    HW286980   3.358   4.090   9.058 -0.1485  0.0754  1.9744
26644SOL     OW86981  11.877   3.196   6.495  0.0725 -0.0299 -0.4818
26644SOL    HW186982  11.918   3.170   6.577  1.7143 -1.1614 -1.6005
26644SOL    HW286983  11.785   3.172   6.506  0.1373  0.4137  1.2378
26645SOL     OW86984   3.989   7.709   0.360 -0.1347 -0.7795 -0.1195
26645SOL    HW186985   4.039   7.773   0.410 -0.8135 -0.2480 -0.1138
26645SOL    HW286986   3.954   7.758   0.286 -0.6611 -1.1439 -0.1162
26646SOL     OW86987  10.342   5.565   6.297 -0.3215 -0.1802 -0.5004
26646SOL    HW186988  10.382   5.548   6.382 -1.7410 -0.0745  0.2181
26646SOL    HW286989  10.308   5.481   6.268 -1.3295  0.0997 -0.1569
26647SOL     OW86990  10.532   9.497   0.810 -0.1918  0.3072 -0.2404
26647SOL    HW186991  10.551   9.457   0.725 -0.5737  0.9436 -0.6325
26647SOL    HW286992  10.438   9.485   0.822  0.2006 -1.9285  1.2333
26648SOL     OW86993   6.946   9.383  12.356 -0.2339  0.0817 -0.5365
26648SOL    HW186994   6.963   9.476  12.340  1.4691 -0.3669 -1.6141
26648SOL    HW286995   6.948   9.374  12.451  0.8290  0.9616 -0.4612
26649SOL     OW86996  11.290   3.335   0.134  0.4966 -0.3246  0.3889
26649SOL    HW186997  11.344   3.395   0.186  0.8939 -0.5095  0.1924
26649SOL    HW286998  11.350   3.264   0.110  0.0475 -0.7667  0.5632
26650SOL     OW86999   5.637   8.288  12.051  0.1742 -0.2409 -0.1788
26650SOL    HW187000   5.599   8.313  12.135 -0.4790 -2.4962  0.2653
26650SOL    HW287001   5.686   8.207  12.069 -0.2921 -0.9954 -2.0048
26651SOL     OW87002  12.546   3.245  12.487 -0.2186 -0.1644 -0.2243
26651SOL    HW187003  12.600   3.165  12.489 -1.4881 -1.0392  0.7323
26651SOL    HW287004  12.456   3.213  12.491 -0.7856  1.3120 -0.5873
26652SOL     OW87005   5.070   1.238   5.080 -0.3945  0.3460 -0.3902
26652SOL    HW187006   4.991   1.244   5.134 -1.6861 -0.3623 -2.1201
26652SOL    HW287007   5.097   1.147   5.086 -0.0276  0.4582 -0.2753
26653SOL     OW87008   9.615  11.340   5.105  0.2735  0.7579 -0.0629
26653SOL    HW187009   9.535  11.291   5.088  0.5865  0.4004 -0.5220
26653SOL    HW287010   9.593  11.431   5.085  0.2450  0.5327 -1.0884
26654SOL     OW87011  10.889   7.208   7.345  0.8949  0.1913  0.4960
26654SOL    HW187012  10.824   7.182   7.411 -0.7880 -0.7347 -1.4320
26654SOL    HW287013  10.953   7.136   7.346 -0.4470 -1.0602 -0.5453
26655SOL     OW87014   1.489   2.940   9.260 -0.0083 -0.1426 -0.0353
26655SOL    HW187015   1.459   2.912   9.347 -0.4049  1.6034  0.4378
26655SOL    HW287016   1.502   3.035   9.269  3.5754 -0.4099 -0.8225
26656SOL     OW87017   9.402  12.237   1.727 -0.0810  0.1040 -0.4821
26656SOL    HW187018   9.468  12.304   1.742 -0.1880  0.0412  0.3299
26656SOL    HW287019   9.447  12.169   1.676  0.3355  0.2899 -0.3617
26657SOL     OW87020   3.790   9.334   6.783 -0.2288 -0.5403  0.1341
26657SOL    HW187021   3.769   9.292   6.700 -1.1067  1.4048 -0.6972
26657SOL    HW287022   3.706   9.370   6.813 -0.0082 -1.5014  2.0755
26658SOL     OW87023   3.784   5.352   1.727 -0.1879 -0.0026  0.3370
26658SOL    HW187024   3.879   5.351   1.715  0.0195 -4.1839  0.7374
26658SOL    HW287025   3.771   5.321   1.816 -1.9223 -0.5340 -0.0682
26659SOL     OW87026   2.376  11.882   8.601 -0.0450  0.8492  0.1575
26659SOL    HW187027   2.283  11.871   8.580 -0.1569  0.9192  0.6236
26659SOL    HW287028   2.383  11.970   8.637 -0.1759  0.0555  2.2102
26660SOL     OW87029   7.997   9.861   8.348  0.4458  0.6746  0.5024
26660SOL    HW187030   7.994   9.927   8.278 -1.5278  0.1878  0.0767
26660SOL    HW287031   8.052   9.791   8.312 -1.0225  0.1573 -0.8638
26661SOL     OW87032   4.824   1.695   1.028 -0.5188  0.8415 -0.1735
26661SOL    HW187033   4.792   1.615   1.070  2.0219 -0.2485 -0.1034
26661SOL    HW287034   4.857   1.665   0.943  1.5446  1.5448  0.3326
26662SOL     OW87035   8.104   1.607   8.597  0.0196 -0.2054  0.0244
26662SOL    HW187036   8.154   1.555   8.534  0.0961  1.1951 -1.1297
26662SOL    HW287037   8.170   1.653   8.648 -0.0379  1.3060 -1.2064
26663SOL     OW87038   0.820   0.127   1.080  0.1220 -0.1833  0.0247
26663SOL    HW187039   0.896   0.123   1.138  2.2729 -1.8315 -2.6785
26663SOL    HW287040   0.827   0.211   1.036 -0.9220  0.6068  1.2866
26664SOL     OW87041   0.451   8.641   7.179 -0.2131  0.2510  0.9208
26664SOL    HW187042   0.489   8.718   7.137  0.2544 -0.8623 -0.7680
26664SOL    HW287043   0.521   8.575   7.178 -0.3909 -0.0509  2.9034
26665SOL     OW87044   7.219   6.696  12.111  0.3895  0.0508  0.2166
26665SOL    HW187045   7.219   6.608  12.150  0.3680  0.5771  1.4746
26665SOL    HW287046   7.204   6.681  12.018  1.5068 -1.3402  0.2317
26666SOL     OW87047  12.038   6.876   6.463 -1.3244  0.2526  0.4060
26666SOL    HW187048  12.066   6.859   6.372  0.5076  0.7924  0.8360
26666SOL    HW287049  11.988   6.957   6.458 -0.4321  0.7911 -0.0014
26667SOL     OW87050   9.917  11.215   6.820  0.5070  0.0373  0.5201
26667SOL    HW187051   9.977  11.260   6.880 -0.5118 -0.2866  1.8481
26667SOL    HW287052   9.832  11.258   6.836  0.0609 -0.5962 -0.1152
26668SOL     OW87053   0.651   0.602  11.122 -0.0065 -0.4478 -0.1547
26668SOL    HW187054   0.632   0.669  11.188  1.1333  3.1560 -3.1196
26668SOL    HW287055   0.740   0.575  11.140  2.0544  3.8130 -2.3748
26669SOL     OW87056   9.403  10.560   6.326 -0.0680  0.1768 -0.1313
26669SOL    HW187057   9.479  10.527   6.279 -0.0796  0.4875 -0.3766
26669SOL    HW287058   9.375  10.636   6.275 -1.2265 -0.5897 -0.6696
26670SOL     OW87059   5.145  11.741  10.603 -0.2398  0.1053  0.0616
26670SOL    HW187060   5.223  11.743  10.547 -0.6633 -1.5742 -0.6414
26670SOL    HW287061   5.079  11.790  10.553  0.3481  1.5985  0.6929
26671SOL     OW87062   2.750   9.505   5.927  0.4949  0.3424 -0.6067
26671SOL    HW187063   2.665   9.547   5.917  1.2221  1.8520 -0.7481
26671SOL    HW287064   2.737   9.438   5.995 -0.5010  1.4113  0.2868
26672SOL     OW87065   9.288   8.899   3.941 -0.2286  0.2059 -0.2153
26672SOL    HW187066   9.269   8.872   3.851 -0.6911 -0.9070  0.1945
26672SOL    HW287067   9.251   8.987   3.948 -1.1155 -0.0985 -0.8199
26673SOL     OW87068   3.918   3.056   2.175  0.5698 -0.0841 -0.4447
26673SOL    HW187069   3.924   3.137   2.226  1.3688  0.2464 -1.0336
26673SOL    HW287070   4.008   3.034   2.154  0.6231 -2.6727  1.9960
26674SOL     OW87071   7.694   9.885   1.596  0.3997 -0.6518  0.7000
26674SOL    HW187072   7.601   9.898   1.579  0.5839  1.8448  1.2985
26674SOL    HW287073   7.732   9.871   1.509 -0.3921 -0.7264  0.3583
26675SOL     OW87074   7.671   3.695   1.442 -0.1173  0.1593 -0.6295
26675SOL    HW187075   7.723   3.622   1.476 -0.5548 -0.0171 -0.3294
26675SOL    HW287076   7.736   3.757   1.408  0.5249  1.3398  2.4425
26676SOL     OW87077   0.549  12.529   5.862  0.0634  0.2184 -0.1323
26676SOL    HW187078   0.470  12.563   5.819  0.9444  1.3525 -0.9054
26676SOL    HW287079   0.565  12.445   5.819 -1.0278 -0.3101  0.4369
26677SOL     OW87080  11.754   5.596   4.122  0.4847  0.3867 -0.0208
26677SOL    HW187081  11.775   5.515   4.167 -0.3498 -0.8620 -1.7391
26677SOL    HW287082  11.796   5.587   4.036 -0.7989  1.1234 -0.7546
26678SOL     OW87083   2.820  10.533  11.653  0.1209 -0.5569 -0.2629
26678SOL    HW187084   2.915  10.524  11.640 -0.1556 -2.3283 -1.4595
26678SOL    HW287085   2.782  10.470  11.592 -1.8235 -0.3046  0.6225
26679SOL     OW87086   6.083  10.665   4.666 -0.5610  0.3290  0.5117
26679SOL    HW187087   6.066  10.572   4.652  0.8392  0.1627 -0.3760
26679SOL    HW287088   6.120  10.670   4.754  1.1219 -0.2696 -0.1077
26680SOL     OW87089   3.360   3.541   1.796  0.4565 -0.3254  0.5377
26680SOL    HW187090   3.404   3.480   1.856  1.5506 -1.0037 -0.8990
26680SOL    HW287091   3.430   3.599   1.765 -0.2175  0.4417  0.3982
26681SOL     OW87092  11.262  12.315   5.203  0.1708  0.3173 -0.6775
26681SOL    HW187093  11.220  12.245   5.253  1.8525 -0.1937  0.1071
26681SOL    HW287094  11.235  12.298   5.113 -1.1711 -0.0498 -0.2359
26682SOL     OW87095  10.533   2.182   8.194  0.0044 -0.1154 -0.0262
26682SOL    HW187096  10.597   2.172   8.264  0.5134 -1.8163 -0.6896
26682SOL    HW287097  10.570   2.249   8.137 -0.3230  1.1455  1.1896
26683SOL     OW87098  12.074  11.385   1.482 -0.0380 -0.8511 -0.5075
26683SOL    HW187099  11.981  11.377   1.459  0.2329 -0.6365 -1.7335
26683SOL    HW287100  12.094  11.302   1.526 -1.2460 -0.1637  1.4548
26684SOL     OW87101  12.083  10.946  10.873  0.3907  0.6156 -0.0698
26684SOL    HW187102  12.042  11.021  10.914  1.9956  3.2317 -2.8743
26684SOL    HW287103  12.146  10.915  10.938 -2.0989 -0.1336  2.1601
26685SOL     OW87104   2.989   3.660   6.626  0.5319 -0.1884  0.2895
26685SOL    HW187105   3.035   3.692   6.548 -0.5163  0.9327  0.1055
26685SOL    HW287106   2.975   3.567   6.610  0.6348 -0.0405 -0.6999
26686SOL     OW87107   6.429   0.711   9.165  0.4538 -0.3677  0.1167
26686SOL    HW187108   6.372   0.788   9.162 -1.4074 -1.6200  0.8543
26686SOL    HW287109   6.516   0.745   9.185 -0.5089  1.4760  1.4890
26687SOL     OW87110   4.651   5.360   8.445  0.0379 -0.4455 -0.5067
26687SOL    HW187111   4.735   5.353   8.490  1.0710 -0.3092 -2.3119
26687SOL    HW287112   4.622   5.450   8.463  0.6710 -0.2322 -0.5053
26688SOL     OW87113   1.831   2.963   5.512 -0.2855 -0.1270  0.2923
26688SOL    HW187114   1.925   2.942   5.513  0.0783  0.2788 -4.0931
26688SOL    HW287115   1.792   2.891   5.462 -2.1977  0.2272  1.2044
26689SOL     OW87116   5.880   2.824   7.013 -0.0248  0.1454  0.0653
26689SOL    HW187117   5.800   2.832   7.064 -0.3265  0.6959 -0.4817
26689SOL    HW287118   5.927   2.906   7.028  0.3004 -0.0529  0.1494
26690SOL     OW87119  10.121   6.854   7.623  0.8014  0.0505  0.3647
26690SOL    HW187120  10.174   6.874   7.546  0.2337  0.9576  0.1927
26690SOL    HW287121  10.165   6.780   7.664  0.8400 -0.7786 -1.1089
26691SOL     OW87122   3.240  10.051  11.980 -0.4114  0.4554 -0.1787
26691SOL    HW187123   3.299  10.125  11.990 -0.2850  0.3424 -0.0697
26691SOL    HW287124   3.289   9.988  11.926  0.5139 -0.6179  1.7917
26692SOL     OW87125   6.572  11.583   7.821 -0.3753  0.2620  0.6321
26692SOL    HW187126   6.483  11.611   7.798 -0.1924  0.7232  0.4761
26692SOL    HW287127   6.602  11.534   7.745  0.3105  1.9705 -0.2492
26693SOL     OW87128   3.370   0.498  11.917  0.0243  0.0684 -0.0395
26693SOL    HW187129   3.445   0.538  11.872 -0.1999  1.5499  0.8256
26693SOL    HW287130   3.387   0.512  12.010  0.8976 -3.6958  0.5239
26694SOL     OW87131  10.070   0.853  11.366  0.2946  0.0780 -0.6350
26694SOL    HW187132   9.977   0.833  11.369 -0.6456  3.7474  0.8344
26694SOL    HW287133  10.093   0.849  11.273 -1.2723 -1.0303 -1.0069
26695SOL     OW87134   1.286   1.716   9.492  0.0981  0.0839 -0.5249
26695SOL    HW187135   1.364   1.723   9.437  0.1329 -1.0953 -0.6519
26695SOL    HW287136   1.283   1.799   9.541  0.6580  0.7038 -1.5115
26696SOL     OW87137   1.787  12.097   1.849 -0.0299  0.1161 -0.3177
26696SOL    HW187138   1.736  12.146   1.913  0.2051 -1.0404  0.7946
26696SOL    HW287139   1.877  12.127   1.862 -0.1948  1.1043 -1.2924
26697SOL     OW87140   1.945  11.590   6.930 -0.4468 -0.1265 -0.1667
26697SOL    HW187141   1.867  11.549   6.893 -1.4408  0.3121  1.3329
26697SOL    HW287142   1.978  11.526   6.993  0.9905 -0.7042 -1.4498
26698SOL     OW87143  11.831  12.382   7.787  0.3553 -0.6551 -0.1690
26698SOL    HW187144  11.919  12.400   7.821  0.3095  2.9415 -1.6027
26698SOL    HW287145  11.820  12.442   7.714 -2.2550 -3.0757 -2.0047
26699SOL     OW87146   1.893   0.145   4.994  0.2754 -0.0223 -0.1074
26699SOL    HW187147   1.955   0.078   4.965 -0.7191 -2.1573  2.3322
26699SOL    HW287148   1.938   0.191   5.065 -0.5047 -0.9667  1.0456
26700SOL     OW87149   9.792   9.324   4.475  0.4298 -0.2421 -0.1279
26700SOL    HW187150   9.756   9.236   4.466  1.5855 -0.5196 -3.4552
26700SOL    HW287151   9.883   9.310   4.502  0.8326 -0.1618 -1.3857
26701SOL     OW87152   2.119   4.492   4.279 -0.2775 -0.0994  0.1799
26701SOL    HW187153   2.153   4.424   4.338 -0.6413 -1.4347 -1.0745
26701SOL    HW287154   2.159   4.573   4.310 -0.3475 -0.7627  2.1534
26702SOL     OW87155   5.508   0.028   3.766 -0.0515 -0.4644 -0.1466
26702SOL    HW187156   5.443   0.098   3.766  1.0973  0.6932  1.4594
26702SOL    HW287157   5.479  -0.030   3.837 -0.1613 -0.7889 -0.4549
26703SOL     OW87158   0.846   6.518  10.310 -0.0962  0.6534 -0.1505
26703SOL    HW187159   0.756   6.548  10.322  0.3146  2.5728 -1.3559
26703SOL    HW287160   0.848   6.481  10.221  0.5944  2.0103 -0.7371
26704SOL     OW87161   2.792   3.398  10.766  0.1492 -0.1134 -0.8940
26704SOL    HW187162   2.743   3.478  10.784  1.3450  0.3916  0.2426
26704SOL    HW287163   2.725   3.334  10.740 -0.9980  0.8003 -0.2670
26705SOL     OW87164   5.935   3.906   3.933  0.0359  0.2869 -0.6028
26705SOL    HW187165   6.014   3.853   3.918 -0.2203 -1.1175  2.2540
26705SOL    HW287166   5.965   3.977   3.990 -0.9357 -1.3193  2.1211
26706SOL     OW87167   5.612   2.187  10.482 -0.0567 -0.0206 -0.1140
26706SOL    HW187168   5.703   2.209  10.505 -0.3551 -0.3115  1.4714
26706SOL    HW287169   5.561   2.218  10.557 -1.1596 -0.7392 -0.5476
26707SOL     OW87170   1.824   0.469   7.786 -0.4496  0.3591 -0.0872
26707SOL    HW187171   1.816   0.544   7.845 -1.4728  0.2610 -0.0773
26707SOL    HW287172   1.747   0.475   7.730 -0.4583 -0.6029 -0.1852
26708SOL     OW87173  10.758   7.096  11.561  0.2176 -0.0418  0.2413
26708SOL    HW187174  10.757   7.053  11.476 -0.6378 -1.8164  1.0893
26708SOL    HW287175  10.848   7.084  11.592 -0.0792 -1.6465  0.6098
26709SOL     OW87176   7.923   6.509   9.600  0.0177 -0.3264  0.4948
26709SOL    HW187177   7.928   6.604   9.608  2.0933 -0.2423 -0.8818
26709SOL    HW287178   7.829   6.490   9.594 -0.4386  1.6207  0.7752
26710SOL     OW87179   4.072   5.327   4.444 -0.0386 -0.3535 -0.0898
26710SOL    HW187180   3.999   5.353   4.388 -0.1623 -0.7230 -0.1026
26710SOL    HW287181   4.148   5.323   4.386  0.0962  0.4887  0.0098
26711SOL     OW87182  10.689  11.473   2.453 -0.6248 -0.1066 -0.2071
26711SOL    HW187183  10.634  11.417   2.508 -1.5062 -0.7990 -1.7508
26711SOL    HW287184  10.775  11.431   2.457 -1.8220 -3.4762 -3.5910
26712SOL     OW87185   6.945   8.610   1.321 -0.2729  0.0472  0.2563
26712SOL    HW187186   6.944   8.520   1.291 -3.5103 -0.7324  2.2004
26712SOL    HW287187   6.856   8.642   1.305  0.4555  2.5121  0.6855
26713SOL     OW87188   7.490   5.741   0.724 -0.4272 -0.7391  0.4520
26713SOL    HW187189   7.441   5.722   0.645 -0.3440 -1.8182  0.6542
26713SOL    HW287190   7.429   5.727   0.796 -0.0516 -1.3387  0.6623
26714SOL     OW87191   7.915   1.187   9.425  0.3644  0.1554  0.1357
26714SOL    HW187192   7.985   1.121   9.427  0.4796  0.1835 -1.5182
26714SOL    HW287193   7.891   1.194   9.332 -0.9332  1.1071  0.5059
26715SOL     OW87194   1.483   4.412   1.484  0.1206  0.1336  0.8001
26715SOL    HW187195   1.475   4.317   1.471  0.2603 -0.0221  1.7519
26715SOL    HW287196   1.449   4.450   1.403 -1.2043 -0.7005  0.9249
26716SOL     OW87197   9.042   7.302   0.695  0.3770 -0.3524 -0.4887
26716SOL    HW187198   9.041   7.209   0.718 -2.2609 -0.2084  0.2200
26716SOL    HW287199   9.102   7.341   0.759  1.6277 -1.5174 -0.8774
26717SOL     OW87200   6.308   1.640   3.085  0.1242 -0.0138  0.2824
26717SOL    HW187201   6.275   1.623   2.997  0.1901 -0.5884  0.3680
26717SOL    HW287202   6.232   1.674   3.133 -0.0490 -0.2216  0.1552
26718SOL     OW87203   8.834  11.935   8.127  0.3295  0.6274  0.0499
26718SOL    HW187204   8.758  11.962   8.076  1.0684  1.4852 -0.6466
26718SOL    HW287205   8.871  11.862   8.078 -0.2212  0.0075  0.5569
26719SOL     OW87206   5.799   5.987   7.741  0.1978 -0.2156 -0.0525
26719SOL    HW187207   5.849   6.052   7.789  0.7507 -0.0471 -0.8424
26719SOL    HW287208   5.737   6.038   7.688  0.4960 -0.3408 -0.5216
26720SOL     OW87209   3.985   8.839   5.336 -0.9175  0.0468  0.0038
26720SOL    HW187210   4.073   8.848   5.374 -0.5617  0.5304 -0.9031
26720SOL    HW287211   3.926   8.868   5.405 -0.2766  1.0627  0.1436
26721SOL     OW87212   5.471  10.223   7.268  0.1939  1.0372  0.0306
26721SOL    HW187213   5.529  10.197   7.340 -0.2509 -0.3391 -0.0803
26721SOL    HW287214   5.397  10.162   7.273  0.1058  0.9754 -1.5130
26722SOL     OW87215   2.996  10.617  10.904 -0.1836  0.1912  0.5363
26722SOL    HW187216   2.994  10.522  10.889 -0.8831  0.2269  0.3881
26722SOL    HW287217   3.070  10.647  10.852 -0.5160 -0.1513 -0.1420
26723SOL     OW87218   2.287   8.756   8.112 -0.7045 -0.0139  0.3305
26723SOL    HW187219   2.242   8.823   8.061 -2.4266 -0.3377  1.3409
26723SOL    HW287220   2.224   8.730   8.179 -0.4688 -3.2435 -0.5118
26724SOL     OW87221   0.091   4.592  10.982  0.8637  0.0943  0.2498
26724SOL    HW187222   0.009   4.543  10.982 -0.0016  1.4517 -0.5785
26724SOL    HW287223   0.088   4.644  11.062  0.1066  1.3575 -0.5651
26725SOL     OW87224   3.026   4.196   1.422 -0.1369  0.1615  0.0146
26725SOL    HW187225   3.054   4.189   1.331 -0.2215 -1.7511  0.0833
26725SOL    HW287226   3.106   4.179   1.473 -0.2973  0.1719  0.2697
26726SOL     OW87227   2.296   2.595   2.771  0.5135 -0.1643  0.2556
26726SOL    HW187228   2.245   2.599   2.852  0.4356 -1.1045  0.2613
26726SOL    HW287229   2.250   2.654   2.711 -0.4608 -0.8153  0.3402
26727SOL     OW87230  12.506   5.147   9.044 -0.0413  0.0383 -0.7601
26727SOL    HW187231  12.514   5.242   9.053 -0.8912  0.0448 -0.0197
26727SOL    HW287232  12.442   5.121   9.110 -1.7478 -0.7379 -2.6081
26728SOL     OW87233  10.530   8.968   0.311 -0.2788 -0.1130  0.2874
26728SOL    HW187234  10.453   8.969   0.254 -0.9321 -0.1309  1.1523
26728SOL    HW287235  10.532   8.880   0.348  1.5635 -0.9291 -1.5555
26729SOL     OW87236   6.605   9.497  11.140  0.3483 -0.3795  0.0399
26729SOL    HW187237   6.674   9.436  11.165  1.0043 -0.4360 -1.7532
26729SOL    HW287238   6.645   9.584  11.145  0.4529 -0.3835 -0.6674
26730SOL     OW87239   0.650   2.685   3.702 -0.1869 -0.0950 -0.2968
26730SOL    HW187240   0.666   2.775   3.675 -1.3880 -0.0989 -1.0919
26730SOL    HW287241   0.691   2.631   3.634  0.4731 -0.1523  0.1428
26731SOL     OW87242  10.126   0.408   2.465  0.2043  0.0030  0.4202
26731SOL    HW187243  10.141   0.326   2.512  1.6645 -0.5368 -0.8785
26731SOL    HW287244  10.208   0.456   2.474 -0.3478  0.9695  0.4561
26732SOL     OW87245   6.263   2.443  10.765  0.4850 -0.5011  0.3351
26732SOL    HW187246   6.318   2.489  10.829 -0.0600 -1.4508  1.5202
26732SOL    HW287247   6.199   2.395  10.818 -0.4986 -0.6740 -0.9616
26733SOL     OW87248   1.539   5.372   4.844  0.2943  0.4914 -0.1405
26733SOL    HW187249   1.500   5.332   4.921 -1.1385  1.7359 -0.1726
26733SOL    HW287250   1.598   5.305   4.809 -1.4840 -1.3286  0.1839
26734SOL     OW87251   0.738   0.643  11.886  0.0417  0.3572 -0.0265
26734SOL    HW187252   0.748   0.736  11.865 -0.0224  0.0704 -1.4765
26734SOL    HW287253   0.664   0.639  11.945 -0.0670  1.2147 -0.0927
26735SOL     OW87254   5.487   2.053   3.208  0.0381  0.7227 -0.2881
26735SOL    HW187255   5.442   2.123   3.255  0.5839  2.6391 -2.4277
26735SOL    HW287256   5.417   1.998   3.172 -0.5289  1.8653 -0.9720
26736SOL     OW87257  10.554   2.633   3.399 -0.1210 -0.1067 -0.3465
26736SOL    HW187258  10.641   2.636   3.359  0.0046  0.9970 -0.0060
26736SOL    HW287259  10.547   2.545   3.435  0.0831 -0.8779 -2.0682
26737SOL     OW87260  10.326   3.100   3.403 -0.4020  0.0640 -0.5620
26737SOL    HW187261  10.349   3.079   3.313 -0.0690  0.3802 -0.5542
26737SOL    HW287262  10.379   3.177   3.424 -0.1343 -0.2734  0.0476
26738SOL     OW87263  11.832   0.497  10.395  0.4554  0.3036  0.3374
26738SOL    HW187264  11.748   0.526  10.359  0.6511  1.1232  0.5201
26738SOL    HW287265  11.878   0.456  10.322 -0.1862 -0.3537  0.2885
26739SOL     OW87266   1.589   7.809   7.357  0.0105 -0.3165  0.1457
26739SOL    HW187267   1.620   7.899   7.359  1.1608 -0.6094 -1.6808
26739SOL    HW287268   1.631   7.767   7.432  1.6060  0.0752 -0.4905
26740SOL     OW87269   7.253   8.764  12.511  0.2806  0.1608  0.3027
26740SOL    HW187270   7.321   8.799  12.453 -1.7675  2.5154 -0.9156
26740SOL    HW287271   7.294   8.761  12.597  2.9738 -2.0208 -0.9175
26741SOL     OW87272  12.229   0.915   2.533  0.0919  0.0679  0.5515
26741SOL    HW187273  12.164   0.868   2.586  1.7410 -0.0026  2.6048
26741SOL    HW287274  12.311   0.869   2.549  1.1173  1.6007 -0.0973
26742SOL     OW87275   7.591   3.952   2.379  0.0252  0.4325 -0.1494
26742SOL    HW187276   7.564   3.909   2.298  2.4955 -1.5294 -0.0634
26742SOL    HW287277   7.587   3.884   2.445  0.2250  1.3981  0.8965
26743SOL     OW87278   7.950   5.081  12.073  0.4412  0.1475  0.3109
26743SOL    HW187279   8.014   5.128  12.127  1.6047 -1.7824  0.7287
26743SOL    HW287280   7.946   5.131  11.992  1.3058  1.1876  0.8809
26744SOL     OW87281   8.254  10.285   2.724  0.0805 -0.9767  0.0407
26744SOL    HW187282   8.321  10.252   2.664 -1.0524 -0.7137 -1.4440
26744SOL    HW287283   8.235  10.212   2.782  1.6677 -1.0399  0.5292
26745SOL     OW87284   5.693   5.779   3.022 -0.4389 -0.0767  0.0200
26745SOL    HW187285   5.658   5.863   3.052 -0.7201 -0.6861  1.5150
26745SOL    HW287286   5.676   5.778   2.928 -1.0976  1.2276  0.0989
26746SOL     OW87287   4.390   3.948   0.755  0.7791 -0.3969 -0.1554
26746SOL    HW187288   4.347   4.019   0.803 -0.0510 -1.6975  1.1041
26746SOL    HW287289   4.476   3.941   0.796  0.3821 -0.9483  0.6080
26747SOL     OW87290   9.248   2.426   9.517  0.2075  0.0561 -0.3994
26747SOL    HW187291   9.192   2.445   9.592  0.5148  0.0708 -0.1729
26747SOL    HW287292   9.312   2.362   9.550  0.6867  0.4824 -0.4973
26748SOL     OW87293  12.562   6.652   9.545 -0.0881 -0.2162 -0.0017
26748SOL    HW187294  12.583   6.567   9.506  0.1807 -0.6615  1.0909
26748SOL    HW287295  12.468   6.663   9.530  0.3225  0.5344 -2.5022
26749SOL     OW87296  12.221  10.643   4.730  0.2145  0.5440  0.1226
26749SOL    HW187297  12.171  10.709   4.683 -0.0470 -1.0654 -1.9842
26749SOL    HW287298  12.302  10.688   4.756  0.7693  1.3151 -2.6606
26750SOL     OW87299   5.320   2.953  11.337  0.6775  0.1208 -0.2139
26750SOL    HW187300   5.350   2.921  11.422 -1.7075 -1.4630  0.1012
26750SOL    HW287301   5.285   3.040  11.355  0.4797 -0.0792  0.3869
26751SOL     OW87302   5.491   1.758  10.662 -0.3377 -0.0033  0.1844
26751SOL    HW187303   5.510   1.783  10.752 -1.4045 -1.6323  0.9149
26751SOL    HW287304   5.501   1.663  10.661 -1.6433 -0.1627 -1.0620
26752SOL     OW87305   9.224   2.972   2.678 -0.2389 -0.2262 -0.3328
26752SOL    HW187306   9.300   2.993   2.623 -0.2374  1.0072  0.1157
26752SOL    HW287307   9.157   3.034   2.651 -1.1029 -1.2828 -0.6935
26753SOL     OW87308  10.739  12.047   2.181  0.1776 -0.5607 -0.1182
26753SOL    HW187309  10.781  11.961   2.183  0.1419 -0.5749  0.0942
26753SOL    HW287310  10.724  12.068   2.273 -0.4313 -0.6313 -0.1965
26754SOL     OW87311   5.952   7.840  11.945  0.4279  0.4277  0.3566
26754SOL    HW187312   6.005   7.807  11.873 -0.6640  0.7642 -0.6431
26754SOL    HW287313   5.915   7.922  11.912 -2.5692 -0.9187  0.0330
26755SOL     OW87314   9.626   0.199   8.949  0.2905  0.1502  0.2321
26755SOL    HW187315   9.617   0.106   8.972  0.2539 -0.2407 -1.2277
26755SOL    HW287316   9.626   0.245   9.033  1.6549 -1.2771  1.0639
26756SOL     OW87317  11.903   6.186   4.973 -0.5177  0.2674  0.2177
26756SOL    HW187318  11.995   6.175   4.948 -0.4347  1.5692 -0.0981
26756SOL    HW287319  11.872   6.097   4.989  0.4560 -0.3061 -0.9030
26757SOL     OW87320   0.328   6.893   0.197 -0.4623  0.4004 -0.0457
26757SOL    HW187321   0.276   6.943   0.134 -0.6701  0.0261 -0.1727
26757SOL    HW287322   0.311   6.936   0.281 -1.0018  0.2663 -0.0814
26758SOL     OW87323   6.922   3.386  10.822 -0.1566  0.4096 -0.4638
26758SOL    HW187324   6.911   3.449  10.894 -1.4508  0.1652 -0.4167
26758SOL    HW287325   6.905   3.301  10.862 -1.3992  0.3168 -1.1416
26759SOL     OW87326   1.579  11.942  11.177  0.7182  0.7641  0.0882
26759SOL    HW187327   1.538  11.856  11.171 -0.1630  1.0730  1.4775
26759SOL    HW287328   1.673  11.923  11.181  0.5197 -0.1546  0.6437
26760SOL     OW87329   3.912   1.090   9.765 -0.1932 -0.7707 -0.2651
26760SOL    HW187330   3.875   1.133   9.842  1.5905 -0.6887  0.5971
26760SOL    HW287331   3.886   0.998   9.775 -1.6456 -0.4138 -0.6317
26761SOL     OW87332   6.676  10.985   8.275  0.3334 -0.3144 -0.2440
26761SOL    HW187333   6.608  11.030   8.225  1.1921  1.3798  0.0127
26761SOL    HW287334   6.758  11.019   8.238  1.0052 -0.8599  0.7024
26762SOL     OW87335   7.010  11.263   0.058  0.1544 -0.2774  0.4519
26762SOL    HW187336   7.081  11.218   0.103  0.3858  0.2211  0.5915
26762SOL    HW287337   6.945  11.280   0.126  0.4978  0.4628  0.6094
26763SOL     OW87338  12.328   4.096  11.268  0.5753 -0.0731  0.5010
26763SOL    HW187339  12.252   4.091  11.325  0.2765  0.6539  0.1802
26763SOL    HW287340  12.296   4.068  11.182  0.8003 -0.2962  0.4892
26764SOL     OW87341  11.836   9.868   9.440  0.0911  0.0140  0.3830
26764SOL    HW187342  11.889   9.795   9.471 -2.3007 -2.0309  0.0359
26764SOL    HW287343  11.874   9.892   9.356  0.4796 -1.3652  0.1484
26765SOL     OW87344  10.348   0.765   7.610  0.1483  0.8602 -0.5104
26765SOL    HW187345  10.411   0.782   7.680 -0.1900  0.2968 -0.0573
26765SOL    HW287346  10.397   0.716   7.545  0.0534 -0.0269  0.0731
26766SOL     OW87347   8.794  12.102   5.538 -0.5017 -0.1518 -0.3490
26766SOL    HW187348   8.838  12.027   5.498 -1.3670 -0.7891 -0.1177
26766SOL    HW287349   8.743  12.066   5.610 -0.5740  0.7204  0.0584
26767SOL     OW87350   8.182   3.259   2.515  0.1778 -0.5932 -0.2137
26767SOL    HW187351   8.252   3.212   2.562  0.6698  0.0686 -0.2699
26767SOL    HW287352   8.201   3.243   2.423  0.7906  0.3142 -0.2603
26768SOL     OW87353   9.899   9.656   1.666  0.3151  0.1249 -0.2171
26768SOL    HW187354   9.870   9.626   1.580 -0.6790 -0.3009  0.2511
26768SOL    HW287355   9.979   9.706   1.649 -0.5736  1.1436 -1.5217
26769SOL     OW87356  11.421  11.864   0.254  0.5827  0.4397 -1.1799
26769SOL    HW187357  11.388  11.893   0.169 -1.3533  1.2044 -0.2344
26769SOL    HW287358  11.405  11.939   0.312  0.7458 -0.4983  0.1063
26770SOL     OW87359   9.966   4.962   0.997 -0.0719  0.1588  0.4952
26770SOL    HW187360   9.942   4.999   1.082  0.0811  2.2173 -0.3052
26770SOL    HW287361   9.903   4.891   0.984 -0.8250  0.5432  1.8093
26771SOL     OW87362  10.615   2.533   6.697  0.2405 -0.0431 -0.0719
26771SOL    HW187363  10.530   2.496   6.674 -0.5551  1.3223  0.5679
26771SOL    HW287364  10.598   2.626   6.711  2.1428  0.6094 -1.5590
26772SOL     OW87365  11.589   8.153   3.261 -0.2123  0.3335 -0.1524
26772SOL    HW187366  11.547   8.239   3.262 -0.1432  0.3827  1.3791
26772SOL    HW287367  11.682   8.172   3.267 -0.1822  0.1684 -0.0850
26773SOL     OW87368   8.111   6.791   6.802  0.0614 -0.8810  0.1655
26773SOL    HW187369   8.141   6.701   6.794  0.9520 -0.5129 -0.9232
26773SOL    HW287370   8.189   6.844   6.786 -0.8417  0.1012 -1.1790
26774SOL     OW87371   8.488   3.392   9.498  0.0488 -0.5502 -0.2204
26774SOL    HW187372   8.433   3.363   9.426 -1.7921  0.4526  0.7128
26774SOL    HW287373   8.542   3.316   9.520 -0.1834 -1.2295 -1.8540
26775SOL     OW87374   3.405   9.238   1.987  0.4439 -0.4867 -0.0093
26775SOL    HW187375   3.392   9.297   2.061  1.5370  2.6079 -2.0771
26775SOL    HW287376   3.317   9.205   1.967 -0.3929  1.1961  0.6884
26776SOL     OW87377  10.416   7.811  11.508  0.4719 -0.2863 -0.4684
26776SOL    HW187378  10.384   7.837  11.594  1.4367 -1.0134  0.1344
26776SOL    HW287379  10.339   7.775  11.464 -0.0302  0.0792  0.0982
26777SOL     OW87380   1.567   6.052   5.069  0.1851  0.3148 -0.0551
26777SOL    HW187381   1.531   5.979   5.020  0.2065 -0.0251  0.4314
26777SOL    HW287382   1.492   6.092   5.113  0.3558 -0.2661  0.7892
26778SOL     OW87383   7.651   0.550   5.873  0.2525 -0.1821  0.4171
26778SOL    HW187384   7.708   0.605   5.819 -2.2984  2.0086 -0.2245
26778SOL    HW287385   7.660   0.585   5.962  0.8120 -0.6723  0.5637
26779SOL     OW87386  11.409   3.869   0.655  0.3031 -0.1563  0.4688
26779SOL    HW187387  11.395   3.779   0.685 -1.4817 -0.2547 -0.5210
26779SOL    HW287388  11.347   3.921   0.706 -0.3306  0.1559 -0.5944
26780SOL     OW87389   7.831   1.099  10.616 -0.3832  0.1886 -0.5549
26780SOL    HW187390   7.874   1.047  10.549  1.2234 -0.1413  0.6687
26780SOL    HW287391   7.902   1.147  10.659 -1.3147  0.2042  1.0609
26781SOL     OW87392   7.791   7.733   9.188 -0.7048 -0.2570  0.0172
26781SOL    HW187393   7.837   7.737   9.104  0.6275  0.4467  0.7660
26781SOL    HW287394   7.781   7.824   9.215 -1.6336 -0.4498  0.3715
26782SOL     OW87395  12.090   4.048   8.694 -0.5768 -0.3774 -0.1181
26782SOL    HW187396  12.038   3.983   8.741 -1.7624  0.2198 -0.5664
26782SOL    HW287397  12.092   4.017   8.604  1.8029 -1.5855  0.2781
26783SOL     OW87398   0.550   5.836   0.779  0.1004 -0.7825  0.6849
26783SOL    HW187399   0.627   5.782   0.764 -0.8377 -1.9455 -0.1460
26783SOL    HW287400   0.491   5.781   0.830 -1.3386 -1.0235 -1.1400
26784SOL     OW87401   1.603   9.995   4.038 -0.1653  0.4033  0.2407
26784SOL    HW187402   1.564   9.957   4.117 -1.3074 -0.2512 -0.6075
26784SOL    HW287403   1.613   9.921   3.978 -0.1286  1.0372 -0.5439
26785SOL     OW87404   4.370   3.859   8.517 -0.5090 -0.2454  0.2743
26785SOL    HW187405   4.317   3.923   8.563  0.0533  0.4549 -0.0415
26785SOL    HW287406   4.311   3.819   8.453 -1.2131 -1.0067  1.3625
26786SOL     OW87407   1.911   2.956  12.461  0.3414 -0.1220 -0.5076
26786SOL    HW187408   1.966   2.957  12.383  0.7066  1.1323 -0.2567
26786SOL    HW287409   1.888   2.863  12.473  3.0125 -0.8258 -0.1908
26787SOL     OW87410   2.016   0.940   8.320 -0.0950 -0.2925 -0.3665
26787SOL    HW187411   1.948   0.965   8.382 -2.7082 -1.2433 -2.6234
26787SOL    HW287412   1.971   0.883   8.257  2.4839  0.1278 -2.7882
26788SOL     OW87413   1.711   1.369   2.496 -0.6598  0.3239 -0.3260
26788SOL    HW187414   1.688   1.277   2.501  0.9908 -0.2118 -1.4597
26788SOL    HW287415   1.797   1.370   2.453 -0.1706  2.3287  0.5532
26789SOL     OW87416   3.574   7.141   6.547 -0.1235 -0.0416 -0.0891
26789SOL    HW187417   3.619   7.187   6.477 -0.9321  1.0727  0.1070
26789SOL    HW287418   3.528   7.209   6.596 -0.4615 -0.9225  0.8729
26790SOL     OW87419   5.809   6.064  11.740  0.4392  0.1890  0.4578
26790SOL    HW187420   5.895   6.023  11.741  0.6540  0.6208 -0.1586
26790SOL    HW287421   5.774   6.047  11.828  1.3313  0.3989  0.8605
26791SOL     OW87422   9.917   5.668   6.147 -0.4833  0.5935  0.2473
26791SOL    HW187423   9.992   5.720   6.120  0.8429 -1.0881  0.5370
26791SOL    HW287424   9.939   5.637   6.235 -0.7220 -1.2874 -0.3022
26792SOL     OW87425   8.673   3.040   4.830 -0.3440 -0.1682  0.3771
26792SOL    HW187426   8.647   3.131   4.842 -1.0900 -0.3726  0.3697
26792SOL    HW287427   8.613   2.991   4.885 -0.7482 -0.7517 -0.5619
26793SOL     OW87428   9.603   2.894   4.544 -0.2035  0.3195 -0.0200
26793SOL    HW187429   9.572   2.829   4.607 -1.0590 -0.1335 -0.8871
26793SOL    HW287430   9.664   2.949   4.594  2.2041 -2.3627  0.2611
26794SOL     OW87431  10.342  12.410   6.685 -0.6892  0.3146  0.0295
26794SOL    HW187432  10.273  12.471   6.658 -0.9511 -0.1201 -0.2905
26794SOL    HW287433  10.423  12.456   6.665 -0.8487  1.4629  1.7793
26795SOL     OW87434   4.656   9.446   6.472  0.5561 -0.0809  0.2272
26795SOL    HW187435   4.620   9.502   6.403  0.4257 -0.5004 -0.0491
26795SOL    HW287436   4.636   9.493   6.554  0.7674  0.4463 -0.0193
26796SOL     OW87437   6.895   8.713  10.987  0.3515 -0.6756  0.2685
26796SOL    HW187438   6.899   8.754  11.073 -1.3073  1.1840 -0.4728
26796SOL    HW287439   6.812   8.741  10.950  0.5272 -2.2992 -1.5469
26797SOL     OW87440   3.549  11.518   4.230  0.2263 -0.4037  1.1568
26797SOL    HW187441   3.459  11.512   4.199  0.7916  0.7834 -0.8953
26797SOL    HW287442   3.546  11.586   4.297 -0.1003  1.1622 -0.3792
26798SOL     OW87443   3.090   0.257   1.662  0.7216 -0.0815  0.0207
26798SOL    HW187444   3.039   0.188   1.705  0.0577  0.8360  0.7652
26798SOL    HW287445   3.129   0.215   1.586  1.4616 -1.6311  1.1993
26799SOL     OW87446   9.596   0.330   6.887  0.2402 -0.0158  0.6933
26799SOL    HW187447   9.584   0.356   6.795 -1.2228  0.2334  0.9259
26799SOL    HW287448   9.533   0.259   6.900  0.3072  0.0707  1.5433
26800SOL     OW87449  12.207   6.376  11.879 -0.5897 -0.0722 -0.9277
26800SOL    HW187450  12.282   6.366  11.820 -0.2031  0.5137 -0.5460
26800SOL    HW287451  12.186   6.470  11.874 -0.1451  0.1137  0.3430
26801SOL     OW87452   7.575   5.904   1.890  1.1695  0.1947 -0.0756
26801SOL    HW187453   7.563   5.826   1.945  0.3410 -0.4392 -1.1069
26801SOL    HW287454   7.571   5.977   1.951 -3.2539 -0.2240  0.4564
26802SOL     OW87455   9.059   6.093   4.365 -0.0951  0.0498 -0.1408
26802SOL    HW187456   9.011   6.053   4.438 -0.9170  1.8917  0.4025
26802SOL    HW287457   9.113   6.023   4.329 -0.4759 -1.1693  1.5740
26803SOL     OW87458   9.732   7.593   7.811  0.1097 -0.5212 -0.3909
26803SOL    HW187459   9.661   7.603   7.748 -0.2893 -0.7257  0.0191
26803SOL    HW287460   9.812   7.605   7.760 -0.2310  1.6821 -0.5101
26804SOL     OW87461   8.244  11.192  10.856  0.2416  0.2573  0.5731
26804SOL    HW187462   8.235  11.286  10.870 -0.7678  0.4766 -1.1667
26804SOL    HW287463   8.336  11.178  10.836  0.1582  1.0930 -0.4280
26805SOL     OW87464   1.985   3.494   5.537 -0.0582  0.5235 -0.3283
26805SOL    HW187465   2.074   3.507   5.572 -0.5602 -1.2796  1.8623
26805SOL    HW287466   1.991   3.415   5.484 -0.6474 -0.6331  1.2562
26806SOL     OW87467   5.132   4.923  11.776  0.2375  0.2699 -0.8102
26806SOL    HW187468   5.174   4.837  11.783  0.2978  0.2926 -0.8853
26806SOL    HW287469   5.158   4.968  11.857  3.1396  1.4977 -2.2909
26807SOL     OW87470   5.418   8.178   4.068 -0.1828  0.2315  0.0497
26807SOL    HW187471   5.377   8.215   3.990  0.9682 -0.2796 -0.8264
26807SOL    HW287472   5.367   8.098   4.086 -1.3772  1.1032  0.7365
26808SOL     OW87473  10.583   9.307   4.456 -0.0413  0.1869  0.1796
26808SOL    HW187474  10.615   9.388   4.415  0.5773  0.8518  1.9004
26808SOL    HW287475  10.661   9.255   4.471 -0.4444 -0.7933 -0.9656
26809SOL     OW87476   5.368   4.327   2.864  0.1363 -0.2936  0.9084
26809SOL    HW187477   5.312   4.329   2.786  1.6515 -1.1434 -0.2402
26809SOL    HW287478   5.309   4.351   2.936 -1.0734  1.5284 -0.5992
26810SOL     OW87479   5.866   3.092   7.517  0.1102 -0.1125 -0.2861
26810SOL    HW187480   5.854   3.004   7.553 -0.3691  0.5085  1.1523
26810SOL    HW287481   5.822   3.090   7.432  0.2308 -1.2995 -0.3293
26811SOL     OW87482   2.179   8.955   5.654 -0.1297  0.3212  0.3107
26811SOL    HW187483   2.229   8.874   5.667 -2.5884 -1.7356 -1.7795
26811SOL    HW287484   2.138   8.972   5.739  0.2835 -0.7523  0.7392
26812SOL     OW87485   2.844   1.758   5.275 -0.4686  0.1500 -0.2386
26812SOL    HW187486   2.759   1.716   5.268 -1.2699  1.8232 -1.1029
26812SOL    HW287487   2.841   1.805   5.358 -0.3350  0.1225 -0.2165
26813SOL     OW87488   0.290   1.850   5.365  0.1944  0.2230  0.3115
26813SOL    HW187489   0.211   1.901   5.349 -0.9498 -1.1688  1.3425
26813SOL    HW287490   0.327   1.886   5.445 -0.5524 -0.4563  0.9772
26814SOL     OW87491   3.034   1.325   1.733  0.1605  0.4124 -0.4988
26814SOL    HW187492   3.038   1.384   1.658 -0.3018 -1.7518 -2.3558
26814SOL    HW287493   2.941   1.321   1.755  0.3525  1.4547  0.5952
26815SOL     OW87494  10.920   1.995   1.765 -0.1030  0.4162 -0.5037
26815SOL    HW187495  10.853   1.971   1.828  2.2319 -0.6786  1.7399
26815SOL    HW287496  10.881   1.976   1.680 -1.7787 -2.5478  0.7922
26816SOL     OW87497   4.003   3.663   3.819  0.0078 -0.1230  0.0869
26816SOL    HW187498   4.040   3.606   3.886 -0.2191 -1.0536 -0.5592
26816SOL    HW287499   4.072   3.728   3.802  0.8232 -1.0299 -0.1474
26817SOL     OW87500   6.661  12.127   3.740  0.0660 -0.2740  0.4068
26817SOL    HW187501   6.574  12.158   3.767  0.7892  0.7771  1.6945
26817SOL    HW287502   6.707  12.112   3.823  0.5682 -2.5160 -0.2256
26818SOL     OW87503   8.297   2.585  10.880 -0.3836  0.4437 -0.1392
26818SOL    HW187504   8.336   2.581  10.967 -1.8482  1.4600  0.5796
26818SOL    HW287505   8.204   2.569  10.894 -0.7125  1.0918 -1.4661
26819SOL     OW87506   7.006   8.804  10.095 -0.1565  0.0233 -0.4393
26819SOL    HW187507   6.924   8.854  10.091 -0.0043  0.4909  1.4653
26819SOL    HW287508   7.028   8.802  10.188  0.8842 -1.9431 -0.6918
26820SOL     OW87509  12.308  12.434  11.508  0.3667  0.3552  0.3866
26820SOL    HW187510  12.308  12.525  11.480  1.0134  0.0936 -0.4877
26820SOL    HW287511  12.351  12.436  11.594 -0.8827  1.0394  1.0349
26821SOL     OW87512   6.190   1.599   8.984  0.4047  0.0241  0.1709
26821SOL    HW187513   6.113   1.552   9.015 -0.7881  1.6524 -0.2326
26821SOL    HW287514   6.213   1.658   9.056 -0.1658  1.2094 -0.5905
26822SOL     OW87515   0.597   8.330   2.810 -0.3714 -0.0291 -0.1628
26822SOL    HW187516   0.505   8.352   2.823 -0.8051 -1.1618 -1.1183
26822SOL    HW287517   0.634   8.325   2.898 -0.2618  4.0661  0.2267
26823SOL     OW87518   2.789  12.080   1.192  0.1438  0.5577 -0.6561
26823SOL    HW187519   2.783  11.997   1.238  0.5413  1.4756  1.1529
26823SOL    HW287520   2.703  12.120   1.201 -0.1383  0.2190 -1.7870
26824SOL     OW87521   6.881   5.512   8.344  0.2608  0.2549 -0.1801
26824SOL    HW187522   6.957   5.541   8.295 -0.1619  0.9408 -0.4418
26824SOL    HW287523   6.806   5.546   8.295 -0.3041 -1.8602 -0.8851
26825SOL     OW87524  10.488   5.145   0.892  0.5900 -0.2215  0.1838
26825SOL    HW187525  10.578   5.126   0.866  1.1711  0.5272  1.5497
26825SOL    HW287526  10.496   5.192   0.975 -1.0992 -1.2011  0.9641
26826SOL     OW87527   4.693  11.004  12.315  0.6044 -0.3024  0.3238
26826SOL    HW187528   4.694  10.924  12.262  0.2862  0.3839 -0.7498
26826SOL    HW287529   4.699  11.075  12.251  2.6811  0.5269  1.3356
26827SOL     OW87530   3.503  11.643   7.526 -0.2017  0.0361 -0.0687
26827SOL    HW187531   3.459  11.711   7.475  3.0696  2.1495 -0.3854
26827SOL    HW287532   3.555  11.595   7.461  2.0828  1.1565  0.8425
26828SOL     OW87533   0.500   4.447   5.852 -0.1831 -0.5920 -0.1623
26828SOL    HW187534   0.558   4.441   5.777  2.0956 -0.3997  1.4771
26828SOL    HW287535   0.487   4.357   5.881  1.8134 -0.4932  1.2115
26829SOL     OW87536   5.147   2.757   2.344 -0.0681  0.1997 -0.2064
26829SOL    HW187537   5.087   2.831   2.341 -1.2357 -0.7200 -0.6145
26829SOL    HW287538   5.206   2.777   2.417  0.1727  1.8907 -0.8315
26830SOL     OW87539   9.877   3.931   9.508  0.1302 -0.3034 -0.8041
26830SOL    HW187540   9.905   3.883   9.429  0.4723  2.2279 -2.3353
26830SOL    HW287541   9.789   3.897   9.526  1.5408 -3.8464  0.2703
26831SOL     OW87542   9.075  10.623   7.932  0.2680  0.1404  0.1055
26831SOL    HW187543   9.159  10.645   7.894 -0.0160  0.0550 -0.5912
26831SOL    HW287544   9.095  10.559   8.001  0.7612  0.1127 -0.0654
26832SOL     OW87545   9.962   8.270   4.856  0.3731  0.0651  0.3959
26832SOL    HW187546   9.901   8.286   4.928 -1.6882  2.0775 -1.6259
26832SOL    HW287547  10.000   8.356   4.837 -1.8566  0.5044 -3.0624
26833SOL     OW87548  12.528   6.045  11.694  0.0215 -0.1455  0.4091
26833SOL    HW187549  12.439   6.038  11.662  0.8072 -1.7818 -1.6700
26833SOL    HW287550  12.523   6.107  11.767 -2.7916 -0.2930  0.4442
26834SOL     OW87551   8.014   5.146   1.759  0.4527  0.5572 -0.3148
26834SOL    HW187552   7.981   5.218   1.813  0.9670  0.3590  0.2783
26834SOL    HW287553   7.972   5.158   1.674 -0.5916  0.7159  0.2127
26835SOL     OW87554   5.987   2.512  11.362 -0.0581  0.3505  0.3109
26835SOL    HW187555   6.082   2.508  11.348 -0.1885 -1.3564 -0.2286
26835SOL    HW287556   5.967   2.433  11.412 -1.5267 -0.6693 -1.7754
26836SOL     OW87557   9.852   1.750   9.922  0.1601  0.1481 -0.3603
26836SOL    HW187558   9.924   1.752   9.859  0.8737  0.8125  0.4507
26836SOL    HW287559   9.872   1.674   9.978  0.8757  1.0039  0.5766
26837SOL     OW87560   8.714   2.136  10.317  0.2501  0.3006  0.3715
26837SOL    HW187561   8.681   2.092  10.395 -0.4040  0.6305  0.2855
26837SOL    HW287562   8.727   2.227  10.344  0.6949  0.2623  0.2904
26838SOL     OW87563   0.785   3.908  11.654 -0.3015  0.4375  0.0729
26838SOL    HW187564   0.745   3.821  11.651  0.8069 -0.0692 -1.6400
26838SOL    HW287565   0.784   3.932  11.746 -1.3574 -1.0435  0.4823
26839SOL     OW87566   6.378   3.083   5.718  0.3040  0.0203  0.5371
26839SOL    HW187567   6.368   3.157   5.658  2.5588  0.6747  0.8582
26839SOL    HW287568   6.326   3.013   5.680 -0.7607  1.3479 -0.5354
26840SOL     OW87569   1.105   4.480   6.567 -0.5004  0.3426  0.3305
26840SOL    HW187570   1.156   4.466   6.487 -0.6811  0.7105  0.1493
26840SOL    HW287571   1.129   4.407   6.624  1.1302  1.1300  0.7170
26841SOL     OW87572   1.992   5.491   3.482  0.0841 -0.3519  0.3566
26841SOL    HW187573   2.061   5.557   3.490  2.0523 -2.3948  1.1450
26841SOL    HW287574   1.922   5.524   3.538  1.0258  1.0492  0.7657
26842SOL     OW87575   9.296   8.131  10.004  0.0282  0.4907  0.3534
26842SOL    HW187576   9.331   8.219   9.990 -0.8989  1.0018  1.0940
26842SOL    HW287577   9.300   8.118  10.098  0.2121 -0.2899  0.2424
26843SOL     OW87578   9.558   8.634   2.268  0.1174  0.0956  0.1415
26843SOL    HW187579   9.571   8.568   2.200 -1.1165  0.7876 -0.8201
26843SOL    HW287580   9.551   8.717   2.220  2.3287  1.0811  1.3688
26844SOL     OW87581   1.844   5.465   4.949  0.3631 -0.1215 -0.2769
26844SOL    HW187582   1.871   5.557   4.948  1.0993 -0.3229  0.1832
26844SOL    HW287583   1.846   5.438   4.857  0.0676  0.3407 -0.4208
26845SOL     OW87584   6.060   7.395   1.408  0.1533 -0.3293  1.1315
26845SOL    HW187585   6.011   7.427   1.483  0.5164  2.4164  0.2981
26845SOL    HW287586   5.994   7.377   1.341 -0.0719 -1.7030  1.6861
26846SOL     OW87587   1.250   1.051   3.949 -0.8140 -0.0600 -0.4546
26846SOL    HW187588   1.299   0.970   3.964 -1.9616 -0.8964 -1.1073
26846SOL    HW287589   1.162   1.022   3.925 -1.8248  1.4075  1.2429
26847SOL     OW87590   4.840   2.811   5.556  0.3920  0.7183  0.6174
26847SOL    HW187591   4.871   2.820   5.466  2.0449  1.0251  1.1898
26847SOL    HW287592   4.919   2.802   5.608 -0.4759  1.5722  2.1616
26848SOL     OW87593   8.145   5.428   6.302  0.0081  0.1324  0.3763
26848SOL    HW187594   8.214   5.494   6.292 -1.6114  1.6430 -1.9549
26848SOL    HW287595   8.180   5.351   6.257  0.6459  0.5055  0.2111
26849SOL     OW87596  11.009   7.448   4.543  0.2972 -0.0528  0.3112
26849SOL    HW187597  11.037   7.433   4.633 -1.4834 -0.7064  0.7930
26849SOL    HW287598  10.936   7.388   4.530  0.5911 -0.0527 -1.6186
26850SOL     OW87599   3.403   3.594  10.528  0.4690 -0.4668  0.3434
26850SOL    HW187600   3.435   3.526  10.468  1.8959  0.4509 -0.0000
26850SOL    HW287601   3.383   3.547  10.609  1.2193 -1.3467  0.0413
26851SOL     OW87602   7.149  10.781   0.707  0.0230  0.5446 -0.0109
26851SOL    HW187603   7.135  10.798   0.800 -0.6696 -2.3552  0.5347
26851SOL    HW287604   7.063  10.793   0.667  0.1773  1.1280 -0.1835
26852SOL     OW87605   0.948  11.501  10.341  0.1520 -0.3957  0.5977
26852SOL    HW187606   0.883  11.490  10.410 -0.3339 -0.5094  0.1324
26852SOL    HW287607   0.987  11.587  10.358 -1.5243  0.5982 -0.2498
26853SOL     OW87608   3.131   7.526   9.679  0.4568 -0.1624 -0.6447
26853SOL    HW187609   3.052   7.515   9.732  1.1265 -2.4591  0.0062
26853SOL    HW287610   3.169   7.608   9.709 -0.0121 -0.6279  1.3747
26854SOL     OW87611   6.343  10.132   6.520  0.3148 -0.9489  0.4031
26854SOL    HW187612   6.256  10.153   6.487  0.4962 -0.2403  0.3559
26854SOL    HW287613   6.403  10.176   6.459  0.6662 -0.1749  1.2890
26855SOL     OW87614  12.260   7.295   7.837  0.7324  0.0802  0.0732
26855SOL    HW187615  12.282   7.386   7.821 -1.4129  0.6252 -0.1116
26855SOL    HW287616  12.243   7.259   7.750 -0.7001  0.1849  0.2796
26856SOL     OW87617  11.257   3.629   5.592 -0.1953  0.0259  0.0625
26856SOL    HW187618  11.215   3.651   5.509  1.9372  0.0829 -1.0685
26856SOL    HW287619  11.342   3.673   5.589  0.0320 -0.1635  2.1840
26857SOL     OW87620   2.555   1.911  11.383  0.5184  0.0872 -0.6947
26857SOL    HW187621   2.578   1.836  11.329  0.8025  1.7846 -3.0595
26857SOL    HW287622   2.615   1.980  11.356 -0.9447  1.7316  0.0244
26858SOL     OW87623   3.884   1.473  12.017 -0.2294  0.2718  0.2685
26858SOL    HW187624   3.915   1.552  11.972 -0.6712 -0.4140 -1.3024
26858SOL    HW287625   3.892   1.403  11.952  0.8227 -1.1579  1.8305
26859SOL     OW87626   7.319   9.077   5.355 -0.2187  0.6271  0.4673
26859SOL    HW187627   7.330   9.032   5.439  0.2347  0.1578  0.1588
26859SOL    HW287628   7.224   9.075   5.339 -0.0624 -2.4947 -0.7474
26860SOL     OW87629   7.084   6.788   1.616  0.0983 -0.0590  0.4208
26860SOL    HW187630   7.028   6.773   1.540 -0.6207  0.8392  0.7547
26860SOL    HW287631   7.085   6.883   1.627 -1.0734 -0.2067  2.4187
26861SOL     OW87632   5.956   7.849   4.822  0.0232 -0.3718  0.2562
26861SOL    HW187633   5.928   7.768   4.864 -0.0522 -0.5538 -0.1318
26861SOL    HW287634   6.043   7.867   4.858 -0.3430 -0.1187  1.0378
26862SOL     OW87635  11.168   1.225   1.747 -0.6326 -0.0884  0.4456
26862SOL    HW187636  11.259   1.232   1.777 -0.5531  0.5064  0.0781
26862SOL    HW287637  11.171   1.250   1.655 -0.9133 -1.6960 -0.0271
26863SOL     OW87638   5.312   1.231   4.728 -0.3659  0.4646 -0.0696
26863SOL    HW187639   5.365   1.215   4.807 -0.2201  1.7084  0.1081
26863SOL    HW287640   5.343   1.167   4.665  1.0300  0.8571  0.1890
26864SOL     OW87641  10.042   8.652   3.157 -0.4227  0.3336 -0.0971
26864SOL    HW187642  10.117   8.598   3.182  0.1729  0.3241 -1.7940
26864SOL    HW287643  10.021   8.624   3.068 -4.5696 -2.0588  1.2994
26865SOL     OW87644  12.002  10.117  10.850 -0.0290  0.3504 -0.2938
26865SOL    HW187645  12.077  10.091  10.904 -0.0071 -0.5781 -0.7653
26865SOL    HW287646  11.945  10.165  10.910 -0.0446 -0.7400  0.5942
26866SOL     OW87647   0.401   4.017   9.881 -0.7186  0.2022  0.2381
26866SOL    HW187648   0.432   4.031   9.971  0.9186  1.3120 -0.4526
26866SOL    HW287649   0.447   3.937   9.853 -0.8994  0.0989  0.2335
26867SOL     OW87650   4.690   1.998   6.942 -0.1129 -0.9941  0.6672
26867SOL    HW187651   4.779   2.030   6.956 -0.4408  0.0231  0.4825
26867SOL    HW287652   4.701   1.903   6.928  0.9368 -0.8777  0.5808
26868SOL     OW87653   7.921   2.417   6.444 -0.1702 -0.0416 -0.2355
26868SOL    HW187654   7.987   2.430   6.376  0.8720  1.2044  0.9578
26868SOL    HW287655   7.948   2.475   6.515 -2.4007  0.2724  0.4238
26869SOL     OW87656   0.480   5.349   0.060 -0.0880  0.0096  0.1372
26869SOL    HW187657   0.493   5.431   0.013  0.3377 -0.9569 -1.4934
26869SOL    HW287658   0.540   5.354   0.135  1.2817  0.4304 -0.9575
26870SOL     OW87659  10.137   7.914   2.038 -0.2065  0.1326  0.0155
26870SOL    HW187660  10.070   7.972   2.002  1.5569  3.1277  1.2004
26870SOL    HW287661  10.207   7.915   1.974 -0.2483 -0.9952 -0.0751
26871SOL     OW87662   8.417   8.988   2.877 -0.1767 -0.3269  0.0512
26871SOL    HW187663   8.325   8.992   2.850  0.2737 -2.3269 -2.1150
26871SOL    HW287664   8.414   8.968   2.971 -1.9241  0.1871  0.1325
26872SOL     OW87665   2.721   2.653   5.264 -0.3920 -0.1001  0.0127
26872SOL    HW187666   2.671   2.652   5.345 -0.4246  2.3802  0.1052
26872SOL    HW287667   2.666   2.702   5.203  0.9205  0.7085 -0.5646
26873SOL     OW87668  11.301   1.338  10.397  0.2290 -0.3384 -0.3190
26873SOL    HW187669  11.226   1.310  10.346 -0.4736  1.1118 -0.1386
26873SOL    HW287670  11.318   1.266  10.457 -0.8833 -0.7760 -0.5200
26874SOL     OW87671   5.693   8.700   8.580 -0.5255  0.1827 -0.0255
26874SOL    HW187672   5.600   8.693   8.560 -0.5085 -0.5151  0.0901
26874SOL    HW287673   5.733   8.628   8.532  0.1769  1.3735 -1.2750
26875SOL     OW87674  11.317   5.949   2.992  0.5420 -0.5681 -0.2223
26875SOL    HW187675  11.326   5.902   2.910  0.2587 -1.2846  0.1474
26875SOL    HW287676  11.298   5.881   3.057  0.6053  0.0016  0.4075
26876SOL     OW87677  12.523   2.816   6.061 -0.1506 -0.1519  0.3151
26876SOL    HW187678  12.530   2.812   5.965 -0.0840 -1.6686  0.3481
26876SOL    HW287679  12.442   2.769   6.081 -0.0599 -0.0181  1.0093
26877SOL     OW87680  10.881   5.674   8.121 -1.0747  0.0933  0.2049
26877SOL    HW187681  10.930   5.625   8.056  0.5077 -0.4950  1.7649
26877SOL    HW287682  10.875   5.762   8.085  2.7232  0.7007  0.6380
26878SOL     OW87683   3.956   4.015   2.220  0.3173 -0.2169 -0.5273
26878SOL    HW187684   3.946   3.921   2.232  0.2662 -0.2275 -0.6514
26878SOL    HW287685   4.024   4.024   2.153  1.1653 -0.1454  0.3272
26879SOL     OW87686   7.850   2.477   0.103 -0.1888 -0.1408  0.5106
26879SOL    HW187687   7.808   2.486   0.189 -0.8382 -0.0375  0.1893
26879SOL    HW287688   7.832   2.561   0.059 -1.4083 -0.8387 -0.3907
26880SOL     OW87689   5.896   6.356  10.106  0.0034  0.1364  0.2220
26880SOL    HW187690   5.846   6.307  10.040 -1.6372 -0.0589  1.5496
26880SOL    HW287691   5.985   6.323  10.097 -0.5328 -1.1580 -0.7137
26881SOL     OW87692  10.803   3.914   8.744 -0.6123  0.1683  0.4063
26881SOL    HW187693  10.844   3.996   8.771 -1.6348  0.7564  0.2399
26881SOL    HW287694  10.788   3.866   8.826  0.2934 -0.0058  0.4718
26882SOL     OW87695  10.059  12.578   1.783 -0.3036  0.0586  0.2776
26882SOL    HW187696  10.112  12.574   1.863 -0.7800  1.1420  0.6679
26882SOL    HW287697  10.058  12.671   1.760 -1.0041 -0.1138 -0.4305
26883SOL     OW87698   5.601  10.773  12.160  0.0211  0.2756  0.0644
26883SOL    HW187699   5.633  10.755  12.072  0.9536  0.2640  0.3976
26883SOL    HW287700   5.609  10.868  12.170  1.1855  0.1364  0.6020
26884SOL     OW87701  12.257   9.887   5.928 -0.2099  0.1889  0.2471
26884SOL    HW187702  12.170   9.917   5.955 -0.2015 -1.1971  1.9980
26884SOL    HW287703  12.302   9.966   5.900 -1.2557  1.3003  1.5550
26885SOL     OW87704   8.120   1.412   0.349  0.4421 -0.6323  0.1723
26885SOL    HW187705   8.112   1.507   0.348 -0.0715 -0.6373  1.4339
26885SOL    HW287706   8.098   1.385   0.260 -2.3824  0.2541  0.4994
26886SOL     OW87707  10.452   7.367   2.278  0.3811 -0.1185  0.2831
26886SOL    HW187708  10.477   7.303   2.345  2.0568  0.1985  0.0127
26886SOL    HW287709  10.530   7.375   2.222 -1.0710 -0.6703 -1.9715
26887SOL     OW87710   5.149   3.948   1.289 -0.7217 -0.0442 -0.4033
26887SOL    HW187711   5.132   3.858   1.316  0.2879 -0.1937 -0.2103
26887SOL    HW287712   5.243   3.950   1.271 -0.6140  1.1202  0.1990
26888SOL     OW87713  10.910   8.713   5.643 -0.0068  0.1616  0.1196
26888SOL    HW187714  10.864   8.659   5.579  2.5934 -1.5082 -0.5035
26888SOL    HW287715  10.939   8.651   5.710  0.2493  1.3464  1.1448
26889SOL     OW87716   6.951  11.725   9.507 -0.0571  0.0237 -0.4490
26889SOL    HW187717   6.889  11.722   9.579 -1.1841 -0.2148 -1.3899
26889SOL    HW287718   6.896  11.735   9.429  0.8209 -3.1544 -1.6361
26890SOL     OW87719   0.699   4.864   0.953  0.2242  0.0781 -0.2342
26890SOL    HW187720   0.616   4.895   0.917 -0.2877  0.6201  1.3421
26890SOL    HW287721   0.692   4.878   1.047  1.1636 -2.1308  0.2327
26891SOL     OW87722   7.160   9.416   5.264 -0.2583  0.5966  0.2861
26891SOL    HW187723   7.151   9.335   5.315  0.0633  1.4375  1.7293
26891SOL    HW287724   7.182   9.386   5.176 -0.1326 -0.8907  0.7870
26892SOL     OW87725   0.894   8.747  11.171  0.2674 -0.1415 -0.5915
26892SOL    HW187726   0.851   8.817  11.123  1.4362  0.2673 -1.0883
26892SOL    HW287727   0.960   8.713  11.111  1.1713 -0.2099  0.4040
26893SOL     OW87728  11.707   5.563   5.388 -0.1951  0.2540 -0.0409
26893SOL    HW187729  11.783   5.594   5.340 -0.7242  2.7719  0.5812
26893SOL    HW287730  11.636   5.563   5.324  0.2553 -2.0670 -0.6141
26894SOL     OW87731   4.977  10.660  10.049  0.3607  0.2864  0.6122
26894SOL    HW187732   5.022  10.728   9.998  2.3064 -1.3539  0.0446
26894SOL    HW287733   4.943  10.599   9.983  0.3345 -0.3269  1.1920
26895SOL     OW87734   2.353   4.015   4.923  0.1090  0.2605 -0.1549
26895SOL    HW187735   2.444   4.038   4.940 -0.2948  2.0044 -0.1804
26895SOL    HW287736   2.357   3.956   4.848  1.1195  1.7435 -1.3278
26896SOL     OW87737  11.804   4.531   8.977  0.4272 -0.6184  0.2074
26896SOL    HW187738  11.724   4.556   9.023  0.0677  0.8638 -1.1378
26896SOL    HW287739  11.782   4.539   8.884  2.3022  0.5013 -0.1998
26897SOL     OW87740   6.203   1.157   9.334  0.1610 -0.5004 -0.5732
26897SOL    HW187741   6.252   1.096   9.279  1.1036  0.5286 -0.9065
26897SOL    HW287742   6.186   1.108   9.415  0.6659 -1.2860 -0.9314
26898SOL     OW87743   8.828  11.267  11.978  0.0079 -0.7687 -0.4377
26898SOL    HW187744   8.879  11.230  11.905  0.2619  1.2467 -1.3642
26898SOL    HW287745   8.844  11.207  12.051  1.2824 -1.8372 -1.5254
26899SOL     OW87746   8.546   4.673   3.855  0.1011  0.5429 -0.2088
26899SOL    HW187747   8.499   4.610   3.801  0.3386 -1.1942  1.5084
26899SOL    HW287748   8.505   4.757   3.836 -2.2270 -0.5713 -0.4052
26900SOL     OW87749  12.384   5.913   3.768 -0.0560  0.4022 -0.3098
26900SOL    HW187750  12.325   5.988   3.767 -0.9925 -0.1167  3.0474
26900SOL    HW287751  12.398   5.892   3.676 -1.3975  3.3754 -1.3215
26901SOL     OW87752   6.538   2.753   3.207 -0.0868  0.0721 -0.3759
26901SOL    HW187753   6.538   2.785   3.298  0.6695 -0.8823 -0.0300
26901SOL    HW287754   6.452   2.712   3.197 -0.9745  1.9129 -0.7438
26902SOL     OW87755   9.584   5.717  11.081 -0.4353  0.2996 -0.5061
26902SOL    HW187756   9.645   5.765  11.025  0.7958 -0.0818  0.4716
26902SOL    HW287757   9.500   5.763  11.070 -0.6832 -0.6740 -3.8216
26903SOL     OW87758  11.732   3.512   3.163  0.6490 -0.0851 -0.2295
26903SOL    HW187759  11.699   3.424   3.184  0.6411 -0.0660 -0.1622
26903SOL    HW287760  11.706   3.565   3.238  1.2125 -0.1603  0.0202
26904SOL     OW87761  10.311   1.605   3.773 -0.2672  0.0659  0.0335
26904SOL    HW187762  10.401   1.603   3.740 -0.2221 -2.6550  0.0804
26904SOL    HW287763  10.318   1.579   3.865 -1.2415 -3.8078 -0.7973
26905SOL     OW87764   5.887   2.826   2.185 -0.2108 -0.6140  0.3334
26905SOL    HW187765   5.867   2.735   2.207  1.2928 -1.0821 -0.1700
26905SOL    HW287766   5.804   2.861   2.151 -0.8943 -1.6743  0.8641
26906SOL     OW87767  11.858  11.109   4.343 -0.5053  0.0730  0.3140
26906SOL    HW187768  11.794  11.103   4.415 -1.0108  2.3151  0.1255
26906SOL    HW287769  11.805  11.125   4.265  0.1801  0.0208 -0.1688
26907SOL     OW87770   0.737   8.574   2.386  0.3208 -0.8843 -0.0019
26907SOL    HW187771   0.682   8.617   2.452  2.5392  3.0189 -0.3539
26907SOL    HW287772   0.774   8.498   2.432 -1.6273 -0.8791  1.7253
26908SOL     OW87773   9.018   8.515  11.073 -0.2473 -0.5108 -0.1903
26908SOL    HW187774   9.077   8.529  10.999  0.1232  0.7134  0.3208
26908SOL    HW287775   9.046   8.431  11.110  1.2826  0.0869  0.1084
26909SOL     OW87776   9.305   7.985   8.119  0.4262 -0.0743 -0.0303
26909SOL    HW187777   9.375   7.989   8.054  0.3093  3.8603 -0.1400
26909SOL    HW287778   9.225   8.001   8.069 -0.0500 -0.2696  0.6550
26910SOL     OW87779  11.115  10.588   9.111  0.6509 -0.4901 -0.3986
26910SOL    HW187780  11.062  10.552   9.181  0.1099  0.8087 -0.1150
26910SOL    HW287781  11.205  10.585   9.144  0.6479 -1.6820 -0.4493
26911SOL     OW87782   5.181   4.258   2.197 -0.1965 -0.0312  0.4530
26911SOL    HW187783   5.182   4.275   2.291  1.8729 -0.6448  0.5865
26911SOL    HW287784   5.089   4.238   2.177 -1.0901  2.2541  1.9036
26912SOL     OW87785   2.341  10.182   7.704  0.4259 -0.0764 -0.0472
26912SOL    HW187786   2.358  10.276   7.708 -0.8975  0.2170 -0.7422
26912SOL    HW287787   2.268  10.168   7.765 -1.5001 -0.0822 -2.2061
26913SOL     OW87788   2.379  11.927  10.391 -0.1788  0.0985  0.2956
26913SOL    HW187789   2.474  11.925  10.408 -0.5292 -0.5669  2.5364
26913SOL    HW287790   2.340  11.888  10.470 -2.4091  1.6498  0.0458
26914SOL     OW87791   4.139   2.827   3.350  0.7944 -0.2196 -0.5591
26914SOL    HW187792   4.076   2.761   3.323 -0.3312  0.1124  1.1166
26914SOL    HW287793   4.185   2.787   3.424 -0.5630  1.1706  1.1081
26915SOL     OW87794  12.586   6.519   9.204 -0.2257  0.0991 -0.2286
26915SOL    HW187795  12.561   6.610   9.186 -0.5752  0.1162  0.3280
26915SOL    HW287796  12.504   6.475   9.223 -0.0341 -0.2943 -0.3022
26916SOL     OW87797  12.340   1.452   4.691  0.1595 -0.0124 -0.3841
26916SOL    HW187798  12.307   1.525   4.638  1.8637 -0.1120 -1.6592
26916SOL    HW287799  12.266   1.391   4.696 -0.8969  1.2378 -0.3201
26917SOL     OW87800   0.025   2.100   2.566  0.7427  0.6545  0.2895
26917SOL    HW187801   0.062   2.052   2.640 -1.4054 -1.4857  0.1183
26917SOL    HW287802  -0.037   2.038   2.526 -0.4448  2.8030 -1.4229
26918SOL     OW87803  10.745  11.295   8.148 -0.8399 -0.3250 -0.0562
26918SOL    HW187804  10.777  11.242   8.221 -1.1766  0.7891  0.9465
26918SOL    HW287805  10.824  11.326   8.104 -0.5388  0.7798  1.1939
26919SOL     OW87806  10.719   3.902   9.442  0.4282 -0.3207 -0.1344
26919SOL    HW187807  10.780   3.832   9.466  0.8538  0.6962  2.0321
26919SOL    HW287808  10.637   3.877   9.484  0.1674 -0.2347 -0.5895
26920SOL     OW87809   5.881   9.805   0.197  0.4357  0.2403 -0.1062
26920SOL    HW187810   5.836   9.722   0.182  0.5490 -0.0979  1.3429
26920SOL    HW287811   5.961   9.782   0.244  0.7713  1.1163 -0.2233
26921SOL     OW87812   4.486   5.833   5.574  0.2320  0.3650  0.2141
26921SOL    HW187813   4.484   5.835   5.478  0.3322  0.6266  0.2166
26921SOL    HW287814   4.549   5.902   5.598  0.1981  0.3085  0.4675
26922SOL     OW87815   1.360   6.523   4.562 -0.3555  0.1189 -0.4059
26922SOL    HW187816   1.299   6.570   4.619 -1.0390  0.9784 -1.7878
26922SOL    HW287817   1.333   6.431   4.569 -1.0680  0.3398 -0.1037
26923SOL     OW87818   4.915   7.432   5.393  1.0012 -0.1231 -0.0708
26923SOL    HW187819   4.970   7.497   5.349  1.7888  0.8590  2.2486
26923SOL    HW287820   4.960   7.413   5.475 -1.3352 -0.4548  1.2267
26924SOL     OW87821   9.421  10.092   1.076  0.6580 -0.3591  0.5696
26924SOL    HW187822   9.388  10.014   1.031  0.2035  0.8268 -1.2383
26924SOL    HW287823   9.516  10.081   1.076  0.5706 -1.1552  0.8007
26925SOL     OW87824  11.495   5.268   1.649  0.1368 -0.0217  0.0342
26925SOL    HW187825  11.410   5.260   1.694  0.6337  0.1651  1.0321
26925SOL    HW287826  11.492   5.355   1.609 -1.7812 -1.4770 -3.5107
26926SOL     OW87827   5.351   2.284   0.804  0.0584 -0.1370  0.1532
26926SOL    HW187828   5.389   2.231   0.734  2.0984 -0.3065  1.3096
26926SOL    HW287829   5.267   2.314   0.768  0.6170 -0.9341 -1.9986
26927SOL     OW87830   3.139   5.001   8.799 -0.4819  0.1398  0.4871
26927SOL    HW187831   3.121   4.996   8.893 -1.9172  0.2344  0.2341
26927SOL    HW287832   3.198   4.927   8.782 -0.8135 -0.3265  1.3285
26928SOL     OW87833   3.942   9.810   8.971 -0.3224 -0.3313 -0.3161
26928SOL    HW187834   3.988   9.884   8.931 -0.3847 -0.5586 -0.8199
26928SOL    HW287835   3.946   9.741   8.904  1.8684 -1.6455  1.0625
26929SOL     OW87836   5.629  10.695   1.815  0.5275  0.0479 -0.1847
26929SOL    HW187837   5.587  10.730   1.893 -0.3146  1.3230 -1.1644
26929SOL    HW287838   5.719  10.678   1.841  0.2347  0.3604  1.0858
26930SOL     OW87839   1.726   6.950   1.227  0.2891  0.6280 -0.5602
26930SOL    HW187840   1.722   7.023   1.165 -1.0325  0.8343 -0.2566
26930SOL    HW287841   1.721   6.872   1.172 -1.3336  0.8155 -0.7124
26931SOL     OW87842   4.029   0.784   9.421 -0.2646 -0.6778  0.4489
26931SOL    HW187843   4.060   0.872   9.399 -0.3919 -0.8155 -0.3000
26931SOL    HW287844   4.098   0.726   9.388  0.0754 -0.8417  1.4157
26932SOL     OW87845   3.991   8.660   0.510  0.2698 -0.5131 -0.0083
26932SOL    HW187846   4.045   8.724   0.555  0.4475 -1.0900  0.6170
26932SOL    HW287847   3.942   8.711   0.445  1.9653 -0.0442 -0.9859
26933SOL     OW87848   2.671   3.629  10.797  0.4420  1.0856  0.2851
26933SOL    HW187849   2.598   3.632  10.859  0.1895  0.2169  0.0505
26933SOL    HW287850   2.680   3.719  10.767  0.2121  1.4155  1.1712
26934SOL     OW87851   8.804   9.859   2.492  0.1826 -0.9359 -0.1078
26934SOL    HW187852   8.733   9.916   2.517 -0.7974 -1.8499 -0.7150
26934SOL    HW287853   8.864   9.915   2.442 -0.4953 -0.3388 -0.2535
26935SOL     OW87854   2.828   2.316   6.424  0.9535 -0.4412 -0.4153
26935SOL    HW187855   2.781   2.291   6.503  1.8677 -0.7734  0.0356
26935SOL    HW287856   2.761   2.318   6.356  0.1929 -0.3478  0.3217
26936SOL     OW87857  10.679   0.677   4.488 -0.3539  0.7962  0.5343
26936SOL    HW187858  10.715   0.766   4.489  0.8619  0.3240  0.6311
26936SOL    HW287859  10.641   0.666   4.575 -2.3323  1.8996 -0.1200
26937SOL     OW87860   2.260  11.133   7.550 -0.4471  0.4616 -0.0442
26937SOL    HW187861   2.284  11.100   7.463  1.3822 -1.1869  1.0105
26937SOL    HW287862   2.171  11.102   7.563 -0.2269 -0.5610 -0.7803
26938SOL     OW87863   5.094   9.750   1.274  0.2341 -0.3746 -0.2048
26938SOL    HW187864   5.155   9.798   1.329 -0.7545  0.5618  0.1083
26938SOL    HW287865   5.008   9.787   1.295 -0.7366 -2.8909  0.7445
26939SOL     OW87866   7.817   3.914   2.118  0.2329 -0.4503  0.0635
26939SOL    HW187867   7.872   3.858   2.171  1.1162  0.3462  0.0085
26939SOL    HW287868   7.850   4.003   2.133  0.0714 -0.1322 -1.2598
26940SOL     OW87869   7.152   3.138   5.025 -0.0383 -0.2700  0.0350
26940SOL    HW187870   7.105   3.069   4.977  2.3090 -1.4847 -0.7009
26940SOL    HW287871   7.139   3.116   5.117  0.8557 -1.8950 -0.1905
26941SOL     OW87872   9.276   6.529   3.441 -0.2400 -0.3067  0.1531
26941SOL    HW187873   9.365   6.563   3.430 -1.3621  2.0122 -3.3620
26941SOL    HW287874   9.276   6.445   3.395  0.3749 -0.9569  1.2906
26942SOL     OW87875  12.377   1.034   3.397 -0.1184 -0.5510 -0.4017
26942SOL    HW187876  12.438   1.001   3.463 -0.5632 -0.3196  0.1293
26942SOL    HW287877  12.389   1.129   3.398 -1.7824 -0.3048  1.0380
26943SOL     OW87878   1.283   3.319   6.858  0.8150 -0.4033  0.4109
26943SOL    HW187879   1.280   3.382   6.930 -2.2285  1.6076 -1.2224
26943SOL    HW287880   1.251   3.237   6.896  1.7739 -0.1489  1.8612
26944SOL     OW87881   2.111   5.609   1.515 -0.4085  0.0317  0.2178
26944SOL    HW187882   2.204   5.632   1.510 -0.2512 -0.0413  2.1075
26944SOL    HW287883   2.109   5.515   1.497 -0.1852  0.1227 -0.3104
26945SOL     OW87884   1.123   4.880   1.932  0.6902 -0.4351  0.0023
26945SOL    HW187885   1.084   4.793   1.945 -0.0931 -0.1190 -0.1375
26945SOL    HW287886   1.205   4.877   1.980  0.5301 -1.1586  0.2460
26946SOL     OW87887  10.318   6.198   8.355 -0.0084  0.2274  0.5125
26946SOL    HW187888  10.380   6.134   8.320  0.6589  0.3122  1.4718
26946SOL    HW287889  10.325   6.273   8.297 -0.1697 -0.2536 -0.1328
26947SOL     OW87890   8.203  11.514   4.881 -0.1870 -0.3376  0.2906
26947SOL    HW187891   8.291  11.548   4.864 -0.5188 -0.2154 -1.4165
26947SOL    HW287892   8.150  11.591   4.901 -0.4359 -0.0735 -1.2629
26948SOL     OW87893   3.520   3.774   1.747  0.1210 -0.0904  0.0586
26948SOL    HW187894   3.605   3.803   1.713 -0.4527  1.6850  0.0960
26948SOL    HW287895   3.526   3.789   1.841 -0.1190 -0.2972  0.1066
26949SOL     OW87896   0.572   7.898  11.261  0.1516  0.2636  0.2294
26949SOL    HW187897   0.534   7.890  11.173  0.0763  0.6449  0.2250
26949SOL    HW287898   0.599   7.990  11.267 -1.3860  0.6979  1.2095
26950SOL     OW87899   2.892   9.492   3.425 -0.7220 -0.6270  0.3180
26950SOL    HW187900   2.958   9.535   3.480  0.0622  2.8657 -2.9525
26950SOL    HW287901   2.920   9.401   3.421  3.3478  0.4505  0.0851
26951SOL     OW87902   9.008   0.080   1.425  0.0759 -0.3902  0.1416
26951SOL    HW187903   9.017  -0.004   1.379 -0.1005 -0.5149  0.3312
26951SOL    HW287904   8.935   0.066   1.486 -0.5087  0.1573 -0.4136
26952SOL     OW87905   3.171  10.172   9.414  0.6265  0.3454  0.3419
26952SOL    HW187906   3.172  10.218   9.330 -0.1052  1.2690  0.8239
26952SOL    HW287907   3.112  10.223   9.469  2.1785  0.5735  1.8831
26953SOL     OW87908  11.945  11.981   2.018  0.0984  0.1342  0.1989
26953SOL    HW187909  11.923  11.929   1.941 -2.1906 -1.0824  1.5732
26953SOL    HW287910  11.991  12.057   1.983 -0.8803 -0.3488 -2.3654
26954SOL     OW87911   4.937   6.209   5.532 -0.1330 -0.2898 -0.0138
26954SOL    HW187912   4.925   6.292   5.579  0.6726 -0.1304 -0.0721
26954SOL    HW287913   4.864   6.206   5.470  1.3545  1.7451 -2.0007
26955SOL     OW87914   3.430   9.486   7.962  0.3831 -0.7229  0.1680
26955SOL    HW187915   3.521   9.461   7.974  0.6095 -0.2817 -0.5828
26955SOL    HW287916   3.393   9.485   8.051  0.4007 -3.4681  0.2216
26956SOL     OW87917   4.702  10.590   4.330  0.2983 -0.0108 -0.0217
26956SOL    HW187918   4.649  10.666   4.354 -1.4630 -1.5144  1.1901
26956SOL    HW287919   4.733  10.554   4.413 -0.3323 -1.5488 -0.4091
26957SOL     OW87920   7.426   1.787   8.934  0.2647 -0.6958  0.0030
26957SOL    HW187921   7.364   1.714   8.925 -0.2087 -0.1994 -0.8669
26957SOL    HW287922   7.439   1.818   8.845 -0.2240  0.8445  0.4421
26958SOL     OW87923   1.005   4.245   9.484  0.0826  0.2202 -0.7671
26958SOL    HW187924   1.054   4.304   9.541 -1.4011 -0.8625  1.7732
26958SOL    HW287925   0.924   4.292   9.465 -0.1457 -0.1054 -0.5921
26959SOL     OW87926   3.158   3.817   9.184 -0.0280 -0.6996  0.3717
26959SOL    HW187927   3.174   3.907   9.214 -2.1583 -0.7056  1.7463
26959SOL    HW287928   3.075   3.793   9.225 -1.1073 -2.2136 -2.3967
26960SOL     OW87929   7.597   2.708   3.054  0.2537 -0.0577 -0.2782
26960SOL    HW187930   7.679   2.659   3.057  0.5047  0.3915  1.1085
26960SOL    HW287931   7.530   2.643   3.073  0.5768  0.0580  1.4573
26961SOL     OW87932  12.432  10.633   7.941 -0.1368  0.2574  0.5282
26961SOL    HW187933  12.408  10.725   7.941 -1.8247 -0.1492  1.8147
26961SOL    HW287934  12.396  10.598   8.023  0.1653 -1.6188 -0.0879
26962SOL     OW87935   8.901   4.192   4.654  0.0561  0.4984  0.1820
26962SOL    HW187936   8.989   4.157   4.666  0.1157  0.9111  0.9922
26962SOL    HW287937   8.843   4.117   4.668  0.3166 -0.1445 -1.9129
26963SOL     OW87938  10.229   1.037  12.229  0.3364 -0.2311 -0.3741
26963SOL    HW187939  10.256   1.120  12.189 -0.2011 -0.1547 -0.5932
26963SOL    HW287940  10.303   1.011  12.283  0.4736  0.4418 -0.2285
26964SOL     OW87941  10.902  10.809   4.633  0.3378 -0.1155 -0.6973
26964SOL    HW187942  10.850  10.800   4.553 -0.5422 -0.0535 -0.1461
26964SOL    HW287943  10.967  10.739   4.628 -0.1640 -0.5551 -1.1288
26965SOL     OW87944   7.049   5.774   2.843  0.6602 -0.4395 -0.4118
26965SOL    HW187945   7.051   5.856   2.794 -0.1679 -0.8371 -1.1265
26965SOL    HW287946   7.044   5.706   2.776 -1.0463 -0.9672  0.2090
26966SOL     OW87947  12.567   9.996   5.595 -0.5973  0.3455 -0.8867
26966SOL    HW187948  12.605   9.908   5.585 -1.3982  0.0288 -1.1911
26966SOL    HW287949  12.638  10.048   5.634 -0.2457 -0.5331 -0.3146
26967SOL     OW87950   1.122  11.486   8.729 -0.1803 -0.1267  0.0046
26967SOL    HW187951   1.164  11.429   8.666 -0.0890  1.4452 -1.4438
26967SOL    HW287952   1.100  11.565   8.679 -1.8703  0.4207  1.4843
26968SOL     OW87953   7.423   4.438   1.005 -0.0694 -0.2283 -0.2209
26968SOL    HW187954   7.367   4.471   0.935  1.5644 -0.4630 -1.7152
26968SOL    HW287955   7.498   4.399   0.960  0.3523 -1.7208  1.6228
26969SOL     OW87956   4.090   2.652   5.719 -0.2957 -0.0133 -0.1649
26969SOL    HW187957   4.026   2.722   5.701 -0.1821 -0.1279 -1.0799
26969SOL    HW287958   4.039   2.571   5.716 -0.3787 -0.0007  0.6391
26970SOL     OW87959   9.080   1.811  12.578  0.2355 -0.1162 -0.2332
26970SOL    HW187960   9.080   1.718  12.555 -0.4852 -0.6046  1.5278
26970SOL    HW287961   9.001   1.822  12.632 -0.6573  1.9164 -1.8275
26971SOL     OW87962  10.512   5.400   9.036 -0.3470  0.3915  0.2147
26971SOL    HW187963  10.507   5.402   8.940 -0.2502 -2.2504  0.1019
26971SOL    HW287964  10.604   5.416   9.055 -0.6416  2.7229  0.0300
26972SOL     OW87965   7.248  10.281   6.761 -0.0214  0.3185 -0.2059
26972SOL    HW187966   7.162  10.318   6.777 -0.3747 -0.3267 -0.5655
26972SOL    HW287967   7.233  10.213   6.695  1.0444  1.4677 -1.6949
26973SOL     OW87968   9.669  11.203   4.716 -0.4047  0.7320  0.1779
26973SOL    HW187969   9.728  11.128   4.720 -0.7963  0.3717 -0.5995
26973SOL    HW287970   9.625  11.195   4.631 -1.7565  0.8507  0.8358
26974SOL     OW87971   2.099   2.336  12.151  0.7046  0.6753 -0.2133
26974SOL    HW187972   2.142   2.352  12.067  2.1305  0.2491  0.4005
26974SOL    HW287973   2.142   2.396  12.212  0.2291  0.4349  0.3701
26975SOL     OW87974   9.992   3.901   8.786  0.4982 -1.1006 -0.1072
26975SOL    HW187975  10.059   3.839   8.757  1.1410 -0.6639  0.4162
26975SOL    HW287976  10.041   3.974   8.822 -0.1730  0.6884 -2.5576
26976SOL     OW87977   1.837   5.004   8.916 -0.1968  0.0196  0.1522
26976SOL    HW187978   1.932   5.001   8.910  0.0258  3.8350 -0.7963
26976SOL    HW287979   1.807   4.941   8.849  1.6967  0.0917 -0.8317
26977SOL     OW87980   5.782   3.974   5.300  0.2649  0.3720 -0.2826
26977SOL    HW187981   5.769   4.015   5.386 -0.2485  1.6860 -0.9629
26977SOL    HW287982   5.845   4.031   5.256  0.2079 -0.0613 -0.9367
26978SOL     OW87983   6.107   1.865  11.090  0.3657 -0.1787  0.4954
26978SOL    HW187984   6.165   1.868  11.166 -0.9001 -1.6559  1.5747
26978SOL    HW287985   6.047   1.793  11.109  0.6967 -1.3395 -2.4185
26979SOL     OW87986   9.965   0.139   8.401  0.0752  0.1616 -0.5771
26979SOL    HW187987   9.930   0.058   8.364  0.9313 -0.5078  0.0527
26979SOL    HW287988  10.048   0.152   8.356  0.1353  0.4704 -0.3771
26980SOL     OW87989   2.303   1.614   1.107 -0.6912 -0.5459 -0.3824
26980SOL    HW187990   2.328   1.537   1.057  0.9134  0.1962 -0.7888
26980SOL    HW287991   2.333   1.688   1.055 -0.1791  0.2944  1.0242
26981SOL     OW87992   4.580  11.500   8.958 -0.0572 -0.1816  0.2729
26981SOL    HW187993   4.648  11.455   8.908  0.5075  1.0228 -0.0732
26981SOL    HW287994   4.525  11.542   8.892 -1.3490 -1.3705  0.5304
26982SOL     OW87995   6.401   8.732   3.132 -0.5867 -0.8355 -0.2906
26982SOL    HW187996   6.471   8.666   3.134  0.0706 -0.1637 -0.4600
26982SOL    HW287997   6.432   8.801   3.191 -0.6533 -0.0860 -1.1182
26983SOL     OW87998   3.746   9.808  10.882 -0.0693  0.0126  0.2233
26983SOL    HW187999   3.718   9.716  10.877  0.4258 -0.1123 -0.5990
26983SOL    HW288000   3.836   9.803  10.915 -0.1208  0.2113  0.3860
26984SOL     OW88001   6.578   3.330   5.195 -0.3162 -0.2701 -0.1592
26984SOL    HW188002   6.564   3.255   5.252  1.4976 -1.0454 -0.6572
26984SOL    HW288003   6.493   3.347   5.155 -0.4261 -3.2328 -1.4470
26985SOL     OW88004  12.253   6.280   5.649 -0.3483 -0.0782 -0.1600
26985SOL    HW188005  12.216   6.290   5.737  2.8236  0.5262  1.2625
26985SOL    HW288006  12.253   6.186   5.634  1.3646 -0.4524  1.6895
26986SOL     OW88007   3.372   1.518  10.139  0.0195 -0.4612  0.1466
26986SOL    HW188008   3.447   1.566  10.173 -0.2110 -1.0646  1.5514
26986SOL    HW288009   3.353   1.560  10.055  1.8014 -0.1792 -0.1576
26987SOL     OW88010   2.320  11.506   8.676 -0.1075  0.1348  0.3521
26987SOL    HW188011   2.361  11.443   8.734 -0.6620 -0.4280  0.1453
26987SOL    HW288012   2.230  11.474   8.665 -0.1129  0.4080 -0.5400
26988SOL     OW88013   8.620   6.289   9.057  0.2092  0.2790 -0.3345
26988SOL    HW188014   8.543   6.235   9.072  0.1715  0.3926 -0.1172
26988SOL    HW288015   8.694   6.234   9.083  0.3074 -0.2953 -1.7244
26989SOL     OW88016  10.275   9.081   6.266  0.4220 -0.1906 -0.3311
26989SOL    HW188017  10.360   9.078   6.222 -0.2498  0.9014 -1.8097
26989SOL    HW288018  10.294   9.065   6.358  2.2600  0.2823 -0.5989
26990SOL     OW88019   2.008   4.241   0.795  0.1722  0.7432 -0.2267
26990SOL    HW188020   2.040   4.181   0.729 -0.2084  0.4717 -0.1684
26990SOL    HW288021   2.073   4.312   0.798 -0.6612  1.6457 -2.1077
26991SOL     OW88022   4.724   8.235   8.311 -0.1857 -0.3567 -0.1338
26991SOL    HW188023   4.818   8.226   8.293 -0.2919 -2.7263  0.2317
26991SOL    HW288024   4.720   8.298   8.383  1.2999 -1.4673  0.9983
26992SOL     OW88025   4.461  10.820   6.882 -0.3206 -0.4646  0.4545
26992SOL    HW188026   4.438  10.794   6.793  3.4887 -0.5351 -0.6764
26992SOL    HW288027   4.509  10.902   6.872 -0.3361 -0.1449  2.5258
26993SOL     OW88028   4.677   7.206   5.041 -0.0523  0.0158 -0.3271
26993SOL    HW188029   4.686   7.215   5.136  1.8965 -0.3017 -0.4415
26993SOL    HW288030   4.631   7.123   5.028  1.6412 -1.0575  0.3232
26994SOL     OW88031   3.739   4.073   9.326  0.6067  0.4374 -0.5908
26994SOL    HW188032   3.800   4.146   9.336  0.0957  0.6661  1.1647
26994SOL    HW288033   3.783   4.000   9.370 -0.1935  0.5019  0.3471
26995SOL     OW88034   4.377   4.479  11.204  0.7525  0.5929  0.3244
26995SOL    HW188035   4.363   4.405  11.264 -0.5303  1.1151  0.6922
26995SOL    HW288036   4.413   4.548  11.259 -1.2009  1.3533  0.7082
26996SOL     OW88037   7.863   9.507   9.455  0.1866 -0.0788 -0.2008
26996SOL    HW188038   7.820   9.590   9.434  0.1725 -0.3273 -1.2415
26996SOL    HW288039   7.856   9.456   9.374 -0.9954 -1.6257  0.8294
26997SOL     OW88040   6.811   5.119   0.461 -0.0516  0.2666  0.4421
26997SOL    HW188041   6.787   5.058   0.392 -1.3044  1.0786  0.1294
26997SOL    HW288042   6.816   5.065   0.540  0.0544 -0.4369 -0.0368
26998SOL     OW88043   0.582   5.100   8.884  0.1388  0.3365  0.1689
26998SOL    HW188044   0.608   5.192   8.885 -0.3524  0.4816  0.0243
26998SOL    HW288045   0.488   5.102   8.901 -0.3752  0.0579 -2.2507
26999SOL     OW88046   4.765   8.582  12.366 -0.1229  1.2086  0.2224
26999SOL    HW188047   4.825   8.654  12.345 -1.2482  2.0533 -0.2027
26999SOL    HW288048   4.746   8.592  12.459  2.7208 -0.8933  1.1581
27000SOL     OW88049   4.781   0.470   1.189  0.3619 -0.1555  0.5014
27000SOL    HW188050   4.826   0.551   1.164  2.0244 -1.5166 -1.3061
27000SOL    HW288051   4.780   0.472   1.284 -0.3768  2.3174  0.5253
27001SOL     OW88052   3.376   0.843   6.401  0.2521 -0.5973  0.9365
27001SOL    HW188053   3.361   0.881   6.315  2.0764  0.5149  1.0340
27001SOL    HW288054   3.469   0.819   6.400  0.2882 -0.6252  2.5458
27002SOL     OW88055   9.354   4.064   1.951 -0.2632 -0.1086  0.3778
27002SOL    HW188056   9.310   4.110   1.880 -0.5058 -1.9551 -0.7457
27002SOL    HW288057   9.384   3.982   1.911  1.3286 -0.3442  1.9323
27003SOL     OW88058   6.028   3.452   3.522 -0.0063  0.6151 -0.5715
27003SOL    HW188059   5.956   3.430   3.580  3.1490 -2.2468  2.7783
27003SOL    HW288060   6.044   3.545   3.537 -1.8531  0.9074 -0.1442
27004SOL     OW88061   1.403   0.501   1.382  0.0833  0.4252 -0.3135
27004SOL    HW188062   1.360   0.435   1.327 -2.2871  1.0071  0.7095
27004SOL    HW288063   1.357   0.582   1.362 -1.7230  0.4676  3.1978
27005SOL     OW88064   7.939  12.247   5.275 -0.6493  0.1841  0.3416
27005SOL    HW188065   8.035  12.241   5.277 -0.5081  2.0745  0.5836
27005SOL    HW288066   7.912  12.230   5.365 -0.6236 -1.1173  0.1241
27006SOL     OW88067  10.793   7.877   1.716  0.2064  0.1418 -0.3935
27006SOL    HW188068  10.724   7.855   1.654  0.2921  1.0425 -0.8338
27006SOL    HW288069  10.858   7.924   1.663  0.5364  0.4400  0.2699
27007SOL     OW88070   7.780   8.831  12.170  0.2542  0.5173 -0.0952
27007SOL    HW188071   7.853   8.892  12.180  0.3733  0.2608  0.5719
27007SOL    HW288072   7.797   8.787  12.086  0.8465  0.4779  0.0442
27008SOL     OW88073  10.638  12.529   3.358 -0.5417  0.6243  0.2595
27008SOL    HW188074  10.604  12.615   3.331  1.7975  1.3870 -0.5140
27008SOL    HW288075  10.703  12.550   3.426  0.0738 -0.5262  0.0503
27009SOL     OW88076   0.400   9.347   3.367 -0.1484 -0.3764  0.5498
27009SOL    HW188077   0.342   9.405   3.318  0.6783  0.4050  0.4785
27009SOL    HW288078   0.371   9.357   3.458  0.1246  0.3333  0.5687
27010SOL     OW88079   7.904   5.208   4.003  0.1417 -0.6092  0.5925
27010SOL    HW188080   7.810   5.215   4.018 -0.1180 -0.1870 -0.9888
27010SOL    HW288081   7.943   5.275   4.059 -0.2414 -2.2245  2.9536
27011SOL     OW88082   2.114  11.378   7.081 -0.3848 -0.6306 -0.0135
27011SOL    HW188083   2.054  11.303   7.076  0.5953 -1.4258 -0.1657
27011SOL    HW288084   2.176  11.353   7.149  0.0777 -0.0432 -0.2216
27012SOL     OW88085   6.383  11.817  11.394 -0.4188 -0.1020 -0.0521
27012SOL    HW188086   6.469  11.844  11.428  0.1838 -0.5636 -1.1755
27012SOL    HW288087   6.393  11.819  11.299 -1.7745  0.1851 -0.2085
27013SOL     OW88088   8.797   0.816  10.498  0.3292  0.4785  0.3995
27013SOL    HW188089   8.707   0.818  10.468  1.0398 -1.6171 -2.2534
27013SOL    HW288090   8.797   0.866  10.579 -3.6803 -1.5273  1.8693
27014SOL     OW88091   0.724   5.683   4.738 -0.3490 -0.3272 -0.0017
27014SOL    HW188092   0.632   5.708   4.728 -0.5704 -1.8525 -3.1428
27014SOL    HW288093   0.772   5.746   4.684  0.4686  0.3418  1.4632
27015SOL     OW88094   8.009   2.783   3.522 -0.0025 -0.2154  0.4366
27015SOL    HW188095   8.039   2.792   3.613  1.0516 -0.7314  0.1506
27015SOL    HW288096   7.952   2.706   3.523  1.0609 -1.0163  0.4142
27016SOL     OW88097   4.752   6.466   3.929  0.4288  0.2381 -0.1494
27016SOL    HW188098   4.690   6.464   4.002  1.6883 -1.4426  0.9642
27016SOL    HW288099   4.792   6.552   3.933 -0.1960  0.5035  0.5432
27017SOL     OW88100   5.993   7.481   5.184 -0.3421 -0.2948  0.0994
27017SOL    HW188101   6.083   7.485   5.217  0.4427  2.0706 -2.0148
27017SOL    HW288102   5.986   7.395   5.143  2.2874  0.7629 -2.8983
27018SOL     OW88103   6.179  10.516  10.545  0.2171  0.5534  0.1887
27018SOL    HW188104   6.094  10.475  10.560 -1.0933  2.3958 -1.6246
27018SOL    HW288105   6.215  10.468  10.469 -0.9657  2.1064 -1.4347
27019SOL     OW88106   7.216  11.169   2.046 -0.0675 -0.1106  0.1034
27019SOL    HW188107   7.124  11.150   2.064 -1.0091  1.4052 -2.5951
27019SOL    HW288108   7.247  11.092   1.997  0.4362 -1.0437  1.8169
27020SOL     OW88109  10.954   3.070  10.052  0.2252 -0.0655  0.2541
27020SOL    HW188110  10.889   3.129  10.014 -1.2183 -1.3776  0.5585
27020SOL    HW288111  11.033   3.085  10.001 -0.5594  0.9681 -0.7109
27021SOL     OW88112   3.154   6.913   1.140 -0.2939 -0.3948  0.3030
27021SOL    HW188113   3.249   6.912   1.132 -0.2161  1.3907  0.7591
27021SOL    HW288114   3.126   6.829   1.101  1.3223 -0.1125 -1.6374
27022SOL     OW88115   7.980   9.147   9.988  0.4069 -0.4226  0.2179
27022SOL    HW188116   7.898   9.153   9.938  1.0014 -1.0784 -0.8634
27022SOL    HW288117   7.955   9.101  10.068 -0.4474  0.1547  0.3033
27023SOL     OW88118  11.879   6.982   1.940 -0.0201 -0.5433 -0.5957
27023SOL    HW188119  11.921   7.038   2.006 -0.7384 -1.0596  0.3270
27023SOL    HW288120  11.933   6.993   1.862 -0.1597  1.4602 -0.4646
27024SOL     OW88121   3.216   5.170   9.119  0.3115  0.0665 -0.0071
27024SOL    HW188122   3.306   5.201   9.122  0.0256  0.8743  0.6827
27024SOL    HW288123   3.220   5.082   9.156  0.9149 -0.1884 -0.6491
27025SOL     OW88124   7.863   3.443   5.822  0.3813  0.3181  0.6532
27025SOL    HW188125   7.936   3.383   5.840  0.2693 -0.3965 -1.0477
27025SOL    HW288126   7.785   3.387   5.826  0.2657  0.3211 -0.8674
27026SOL     OW88127   8.514   6.129   6.120  0.1283  0.5950  0.1310
27026SOL    HW188128   8.588   6.109   6.063 -0.7068  1.6120 -1.3668
27026SOL    HW288129   8.554   6.172   6.196  1.1512  0.3843 -0.2653
27027SOL     OW88130   7.501  11.417   9.747 -0.6126  0.5898  0.5083
27027SOL    HW188131   7.458  11.391   9.829  0.0314 -1.1187  0.3556
27027SOL    HW288132   7.592  11.390   9.758 -0.3301  1.1204 -0.4410
27028SOL     OW88133   1.055   8.532   5.122  0.3375 -0.1522 -0.7644
27028SOL    HW188134   1.051   8.440   5.098 -0.0324 -0.4198  0.2619
27028SOL    HW288135   1.147   8.547   5.143  0.3183 -0.4120 -0.4894
27029SOL     OW88136   0.045  11.606   0.331  0.6232 -0.3011 -0.0450
27029SOL    HW188137   0.052  11.517   0.297  1.6132  0.0827 -0.8745
27029SOL    HW288138   0.020  11.594   0.423 -0.6431 -1.3833 -0.5030
27030SOL     OW88139   1.955   0.043   7.400  0.5411 -0.0139  0.4939
27030SOL    HW188140   1.945   0.122   7.452 -1.3116  1.5471 -1.9986
27030SOL    HW288141   1.989  -0.022   7.461 -0.1738  2.0165  3.2481
27031SOL     OW88142  10.849   7.294   9.025 -0.8473  0.3585  0.9364
27031SOL    HW188143  10.867   7.382   8.993 -2.7800  0.0931 -1.0892
27031SOL    HW288144  10.934   7.263   9.056  0.6707  1.7154 -1.4705
27032SOL     OW88145   2.630   0.904   3.250  0.0572 -0.5947  0.2309
27032SOL    HW188146   2.537   0.902   3.225 -0.1410 -0.4491  0.9283
27032SOL    HW288147   2.666   0.823   3.213  0.0011  0.0350 -1.3060
27033SOL     OW88148   1.739   7.099   5.972  0.3518 -0.3560  0.4720
27033SOL    HW188149   1.756   7.012   5.936 -0.4725 -0.0620 -0.6836
27033SOL    HW288150   1.823   7.144   5.965  0.4642 -0.6430 -0.1445
27034SOL     OW88151   9.034   6.683   2.842 -0.2976 -0.2608  0.2157
27034SOL    HW188152   9.111   6.669   2.787 -0.0835  0.5393  0.2986
27034SOL    HW288153   9.052   6.631   2.921  0.9332  1.1794  0.9432
27035SOL     OW88154   7.843   0.739   5.754 -0.0084 -0.2921  0.6480
27035SOL    HW188155   7.921   0.773   5.709 -0.6338 -0.1577 -0.3849
27035SOL    HW288156   7.862   0.749   5.847  1.7098 -1.4312  0.4487
27036SOL     OW88157   1.342   1.255  11.355  0.6407 -0.6135 -0.6031
27036SOL    HW188158   1.252   1.275  11.381  1.7377  2.1401  1.6509
27036SOL    HW288159   1.366   1.180  11.409 -0.0087 -0.8183 -0.5826
27037SOL     OW88160   8.506   5.312   2.292  0.0167 -0.0386 -0.1168
27037SOL    HW188161   8.504   5.407   2.308  0.4549 -0.2503  1.3747
27037SOL    HW288162   8.576   5.299   2.228 -1.9457  0.9017 -2.6095
27038SOL     OW88163   8.316   4.913   3.212  0.1797  0.0439  0.5020
27038SOL    HW188164   8.397   4.935   3.165  1.6219 -0.0821  2.7953
27038SOL    HW288165   8.318   4.969   3.290 -1.8003 -0.2285  0.7925
27039SOL     OW88166   3.153   1.555   3.243  0.1915 -0.5132 -0.3869
27039SOL    HW188167   3.105   1.472   3.242 -0.0504 -0.3700 -0.6394
27039SOL    HW288168   3.159   1.581   3.151 -1.8114  0.9396 -0.1633
27040SOL     OW88169  10.173  12.010   7.148 -0.1576  0.3682  0.4114
27040SOL    HW188170  10.133  12.035   7.232  1.1872  1.0907  0.8616
27040SOL    HW288171  10.257  12.056   7.146  0.9326 -1.5305 -0.2631
27041SOL     OW88172   2.740  10.449  11.401 -0.2150  0.7840  0.0417
27041SOL    HW188173   2.693  10.514  11.349 -1.3908 -1.5674 -2.0578
27041SOL    HW288174   2.804  10.411  11.340  2.0568  1.4419  1.8492
27042SOL     OW88175   0.365   8.123   4.480 -0.2902  0.5185 -0.1911
27042SOL    HW188176   0.333   8.065   4.411 -0.4492 -0.5315  0.7383
27042SOL    HW288177   0.305   8.109   4.553  1.6217 -0.7362  1.2373
27043SOL     OW88178   0.612   7.420   8.287 -0.4440 -0.0400  0.2532
27043SOL    HW188179   0.639   7.405   8.196 -0.9227 -0.5526  0.1891
27043SOL    HW288180   0.575   7.336   8.315  1.0335 -0.3430  1.4042
27044SOL     OW88181   2.273   6.534   2.011  0.7574 -0.5490 -0.5083
27044SOL    HW188182   2.301   6.446   2.037  0.4412 -1.0957 -1.8852
27044SOL    HW288183   2.314   6.593   2.074  0.0405 -1.7552  1.1293
27045SOL     OW88184   6.572   1.024   9.071  0.0355  0.3969  0.0353
27045SOL    HW188185   6.603   0.935   9.058 -0.6374  0.3797 -1.7215
27045SOL    HW288186   6.521   1.044   8.992 -0.8204  1.9187  0.9156
27046SOL     OW88187   3.420   8.863  11.854  0.0853  0.0584  0.5329
27046SOL    HW188188   3.451   8.791  11.910  1.2318 -0.1444 -0.3313
27046SOL    HW288189   3.500   8.898  11.814 -0.4651  1.7628  0.8528
27047SOL     OW88190   8.981   6.865   9.525  0.4238  0.0047  0.5329
27047SOL    HW188191   9.008   6.774   9.538  1.7630  0.4966  1.4327
27047SOL    HW288192   8.889   6.867   9.551  0.0937 -1.2720 -0.4232
27048SOL     OW88193  10.312   9.617  10.386  1.0787  0.2852 -0.5251
27048SOL    HW188194  10.391   9.662  10.357 -0.0214  3.0507  0.5218
27048SOL    HW288195  10.297   9.648  10.475 -0.6331 -0.9737 -0.3244
27049SOL     OW88196   9.239  10.491   5.945  0.0468  0.2494 -0.0720
27049SOL    HW188197   9.237  10.570   5.998 -0.0076  0.0976  0.1541
27049SOL    HW288198   9.251  10.420   6.009 -0.1909  0.0519 -0.2466
27050SOL     OW88199   7.108  11.221   3.509 -0.3176 -0.1968  0.4572
27050SOL    HW188200   7.174  11.290   3.513 -0.8060  0.4052 -1.1543
27050SOL    HW288201   7.025  11.268   3.495 -1.1003 -0.9490  2.2561
27051SOL     OW88202   8.073  10.472   6.791 -0.2922 -0.2554 -0.2268
27051SOL    HW188203   8.047  10.465   6.699  1.2105 -0.3191 -0.6734
27051SOL    HW288204   8.028  10.550   6.823 -2.5790 -1.4471 -0.3719
27052SOL     OW88205   4.449   7.925  10.453 -0.1746  0.2210 -0.1723
27052SOL    HW188206   4.380   7.895  10.512 -1.2351 -0.8779 -1.8729
27052SOL    HW288207   4.434   7.876  10.372  3.2561 -0.9013 -0.3000
27053SOL     OW88208   2.041  12.108   0.493 -0.3577 -0.0248  0.0022
27053SOL    HW188209   2.043  12.200   0.464 -1.2394  0.0973  0.2840
27053SOL    HW288210   2.025  12.058   0.412 -0.3366  0.1119 -0.0875
27054SOL     OW88211   8.955   4.989   7.073 -0.0312  0.2588 -0.2110
27054SOL    HW188212   8.974   4.898   7.097  1.1856  0.8331  1.1947
27054SOL    HW288213   8.860   4.995   7.075 -0.2505 -1.4192 -2.1739
27055SOL     OW88214   1.118   5.642   8.085  0.2284  0.8661  0.3135
27055SOL    HW188215   1.111   5.564   8.140  0.5041  1.6969  1.5490
27055SOL    HW288216   1.211   5.664   8.086  0.3907  0.3744 -1.2524
27056SOL     OW88217   3.088   5.385  11.290  0.0829  0.0645  0.7610
27056SOL    HW188218   3.162   5.336  11.327 -0.1492  0.2182  1.4437
27056SOL    HW288219   3.074   5.345  11.205  1.3086  0.3906  0.3768
27057SOL     OW88220   2.912   7.710  11.622 -0.0372 -0.4449  0.1859
27057SOL    HW188221   2.834   7.655  11.611  0.1575 -0.5373 -0.8447
27057SOL    HW288222   2.881   7.799  11.610 -0.2722 -0.3276  1.4340
27058SOL     OW88223   9.537   0.946   0.362 -0.0261 -0.2193  0.4018
27058SOL    HW188224   9.501   1.012   0.422 -2.3420 -1.9926  1.1237
27058SOL    HW288225   9.461   0.898   0.331  1.3477 -0.9177 -2.1705
27059SOL     OW88226   4.359   8.567   2.751 -0.3639  0.3076  0.2234
27059SOL    HW188227   4.377   8.479   2.785  0.4432  0.6847  0.7885
27059SOL    HW288228   4.401   8.569   2.665 -1.0204 -0.0943 -0.1214
27060SOL     OW88229   1.294   3.391   4.796 -0.0603  0.0382  0.1572
27060SOL    HW188230   1.258   3.350   4.717 -0.2377 -0.3834  0.4509
27060SOL    HW288231   1.382   3.354   4.805  1.3275  2.6367 -1.7327
27061SOL     OW88232   4.361  10.116   5.202  0.3717  0.7408 -0.0019
27061SOL    HW188233   4.322  10.119   5.289  1.1866  1.4669  0.3520
27061SOL    HW288234   4.322  10.038   5.161 -0.6885  0.8845  0.6763
27062SOL     OW88235   5.033   9.533   1.926 -0.4526 -0.1501 -0.5389
27062SOL    HW188236   5.030   9.629   1.919  3.7003  0.2407  0.1982
27062SOL    HW288237   5.063   9.503   1.841  0.4719 -0.5195 -0.0994
27063SOL     OW88238   6.264   8.473   1.894 -0.5820  0.1206 -0.3114
27063SOL    HW188239   6.314   8.507   1.968 -1.0703 -0.3051  0.2265
27063SOL    HW288240   6.246   8.382   1.917 -1.2207  0.1448 -0.6967
27064SOL     OW88241  11.337  10.171   4.814 -0.5780 -0.1255 -0.1302
27064SOL    HW188242  11.282  10.168   4.735  0.3444  2.5925 -0.9725
27064SOL    HW288243  11.413  10.223   4.788  0.0502  0.3515  2.4071
27065SOL     OW88244   8.769   6.496   2.461 -0.5253  0.7160 -0.3610
27065SOL    HW188245   8.736   6.500   2.551  0.4363 -1.0772  0.1163
27065SOL    HW288246   8.864   6.492   2.470 -0.4743 -1.6769 -1.2995
27066SOL     OW88247   0.602  12.532   8.465  0.0647 -0.6396  0.5548
27066SOL    HW188248   0.632  12.529   8.555 -0.8778 -1.6449  0.8621
27066SOL    HW288249   0.620  12.621   8.436  0.8636 -0.4634  1.5545
27067SOL     OW88250   4.723   2.991   5.311  0.1072 -0.3796  0.3420
27067SOL    HW188251   4.742   3.060   5.374 -1.2459  0.4890 -0.1561
27067SOL    HW288252   4.754   3.026   5.227 -2.8932  0.8484 -0.3962
27068SOL     OW88253   1.841   7.842  12.502 -0.2136  0.5880  0.2748
27068SOL    HW188254   1.827   7.937  12.496 -1.2307  0.3527 -2.3316
27068SOL    HW288255   1.790   7.806  12.429 -1.5349 -2.1692  2.3930
27069SOL     OW88256  11.031  10.393   7.726  0.1462  0.3428  0.4063
27069SOL    HW188257  11.015  10.454   7.654 -0.4021  0.9176  0.9961
27069SOL    HW288258  10.965  10.325   7.715 -1.0396  1.3091  1.3041
27070SOL     OW88259   3.699   6.959   5.160  0.5509  0.0659  0.3372
27070SOL    HW188260   3.742   7.042   5.182 -1.8313  0.8835  2.3691
27070SOL    HW288261   3.684   6.917   5.244 -1.3307 -0.8136 -0.3890
27071SOL     OW88262   0.297   1.867   0.313  0.6472  0.0123 -0.1341
27071SOL    HW188263   0.297   1.817   0.395 -1.0187  1.1932  0.6348
27071SOL    HW288264   0.293   1.958   0.341  1.4111  0.5031 -1.5467
27072SOL     OW88265   4.800  12.035  10.588  0.0158 -0.8383 -0.0552
27072SOL    HW188266   4.722  12.086  10.564 -0.3221 -0.0383  2.3880
27072SOL    HW288267   4.805  11.966  10.522 -4.3786 -2.5776  1.0046
27073SOL     OW88268   3.144   1.039   9.765 -0.3520 -0.1119  0.2312
27073SOL    HW188269   3.086   1.071   9.834  0.6351 -0.5332  1.2849
27073SOL    HW288270   3.197   0.972   9.807  0.0267 -0.6416 -1.0447
27074SOL     OW88271   8.871   3.674  10.238  0.6707  0.0589  0.2173
27074SOL    HW188272   8.805   3.605  10.240 -0.0421  0.6323 -1.5853
27074SOL    HW288273   8.953   3.629  10.258 -0.2695 -0.5214  3.3682
27075SOL     OW88274   8.726  10.485   4.636 -0.5319 -0.0762  0.2433
27075SOL    HW188275   8.812  10.444   4.630 -0.9245 -1.3609  2.3628
27075SOL    HW288276   8.683  10.463   4.553  1.4933  1.5218 -1.3335
27076SOL     OW88277   6.371   2.680   8.215 -0.6806 -0.2784  0.2838
27076SOL    HW188278   6.387   2.636   8.298 -0.4153 -1.7662 -0.5231
27076SOL    HW288279   6.363   2.772   8.238 -1.3464 -0.7424  2.0382
27077SOL     OW88280   3.806   4.141   7.542  0.1551 -0.6125 -0.0484
27077SOL    HW188281   3.827   4.199   7.469  2.7299 -2.0061 -0.5448
27077SOL    HW288282   3.716   4.114   7.527 -0.3169  1.3497 -1.0865
27078SOL     OW88283   7.063   3.666   2.623  0.3070 -0.6496 -0.1052
27078SOL    HW188284   7.005   3.643   2.696 -0.1218  1.4248  0.2489
27078SOL    HW288285   7.125   3.728   2.661 -1.1315  2.0533 -1.8819
27079SOL     OW88286   1.383  10.508   6.592 -0.2186 -0.2792  0.2442
27079SOL    HW188287   1.345  10.467   6.514 -0.3226  1.5108 -0.6890
27079SOL    HW288288   1.477  10.511   6.574 -0.2874  0.5119 -0.0164
27080SOL     OW88289   7.962   8.132   6.468 -0.3494  0.0364 -0.1434
27080SOL    HW188290   7.868   8.127   6.485 -0.5930 -0.2834 -1.4627
27080SOL    HW288291   7.968   8.183   6.386  0.6338  0.1556 -0.0066
27081SOL     OW88292  11.740   9.086   0.038  0.1091  0.0271 -0.3432
27081SOL    HW188293  11.688   9.152  -0.007 -0.0314  0.5274  0.5422
27081SOL    HW288294  11.736   9.110   0.130 -0.0245 -1.2727  0.0149
27082SOL     OW88295  10.548   1.596   8.506 -0.1067 -0.2802 -0.6755
27082SOL    HW188296  10.529   1.557   8.592 -1.0314  1.3123 -0.1208
27082SOL    HW288297  10.628   1.552   8.477  0.7448 -0.2101  1.4123
27083SOL     OW88298  10.019  11.417   9.104  0.0343 -0.8056 -1.2893
27083SOL    HW188299   9.998  11.491   9.047  1.5228 -0.4000 -1.3422
27083SOL    HW288300   9.965  11.432   9.182  1.0378  0.9277 -0.8620
27084SOL     OW88301  12.593   1.937   4.859  0.3186 -0.3843 -0.3154
27084SOL    HW188302  12.615   1.965   4.771  0.7154  0.6614  0.0994
27084SOL    HW288303  12.676   1.909   4.897  0.3938  0.4370  0.1555
27085SOL     OW88304   8.783   3.816   0.340  0.2485  0.4322 -0.1076
27085SOL    HW188305   8.688   3.824   0.332  0.3471  2.9638  0.3449
27085SOL    HW288306   8.797   3.788   0.431 -0.0739  0.9017  0.0940
27086SOL     OW88307   7.055  12.342  11.720  0.0351 -0.1250  0.3443
27086SOL    HW188308   6.990  12.392  11.768 -0.5279  0.0454 -0.5679
27086SOL    HW288309   7.122  12.406  11.695 -0.6385  0.1936 -0.7433
27087SOL     OW88310   7.018   7.945  11.059 -0.0896  0.3718 -0.2403
27087SOL    HW188311   6.947   7.998  11.094  1.5140  1.7113  1.1978
27087SOL    HW288312   7.082   7.939  11.131 -0.0671 -3.4545 -0.3405
27088SOL     OW88313   4.789  11.578   5.096  0.1293  0.1964  0.0920
27088SOL    HW188314   4.808  11.504   5.038 -1.3437  2.2970 -3.3421
27088SOL    HW288315   4.694  11.588   5.093  0.0493  0.8579  2.4263
27089SOL     OW88316  11.752   9.533   5.584 -0.8966  0.1682 -0.1263
27089SOL    HW188317  11.747   9.441   5.558 -2.0366 -0.4246  1.9643
27089SOL    HW288318  11.797   9.576   5.511  0.1561 -2.1160 -0.9340
27090SOL     OW88319   9.308   4.715   6.413  0.1364  0.4411  0.2890
27090SOL    HW188320   9.296   4.744   6.504 -1.0635  1.0132 -0.0412
27090SOL    HW288321   9.297   4.795   6.361  0.8979  0.1323 -0.3658
27091SOL     OW88322   2.923   6.988   8.204  0.3436  0.0387 -0.0878
27091SOL    HW188323   2.875   6.916   8.162  1.1018 -0.9524  0.6765
27091SOL    HW288324   2.910   6.973   8.298 -1.2463  2.1426  0.1000
27092SOL     OW88325  10.878  10.248   0.014  0.0356  0.0676 -0.5349
27092SOL    HW188326  10.830  10.329  -0.000 -0.3285  0.3463  1.8632
27092SOL    HW288327  10.948  10.273   0.074  0.5765 -1.2012 -0.6162
27093SOL     OW88328   6.995   8.819   3.532 -0.4501  0.1911 -0.6794
27093SOL    HW188329   6.975   8.734   3.492  0.0176 -0.4795  0.4830
27093SOL    HW288330   7.075   8.848   3.487  0.6571 -1.0348  0.4193
27094SOL     OW88331   4.309  11.553   2.085  0.5502  0.3919  0.0962
27094SOL    HW188332   4.241  11.518   2.028  0.4091 -1.7721  1.4668
27094SOL    HW288333   4.340  11.632   2.041 -0.4178 -0.4884 -2.2918
27095SOL     OW88334   4.204  10.032   3.839  0.0458 -0.4390  0.3604
27095SOL    HW188335   4.113  10.062   3.845  0.7785  2.3125 -0.8773
27095SOL    HW288336   4.225  10.039   3.746  1.1327 -2.4205  0.4167
27096SOL     OW88337  10.154  10.516   2.665 -0.2596 -0.4373 -0.2070
27096SOL    HW188338  10.159  10.599   2.712 -1.8967 -0.7728  0.6295
27096SOL    HW288339  10.187  10.536   2.577  0.0356  0.9205  0.1960
27097SOL     OW88340   3.821  12.513   7.816 -0.1191  0.0649 -0.1726
27097SOL    HW188341   3.913  12.515   7.790  0.0976 -1.5774  0.3252
27097SOL    HW288342   3.819  12.559   7.900 -0.1003  1.6810 -1.0106
27098SOL     OW88343   4.142   7.783   5.078  0.3869 -0.7275 -0.1678
27098SOL    HW188344   4.077   7.838   5.034 -0.1367  0.2411  1.6966
27098SOL    HW288345   4.099   7.699   5.091 -0.4480 -0.1588  0.8616
27099SOL     OW88346  12.108  11.756   2.115 -0.0425 -0.1307  0.0124
27099SOL    HW188347  12.147  11.811   2.047  0.8877  0.9240  1.3287
27099SOL    HW288348  12.030  11.804   2.142 -0.2455 -0.3916 -0.1161
27100SOL     OW88349   1.811   7.793   2.703 -0.1998  0.1013 -0.5988
27100SOL    HW188350   1.745   7.726   2.722 -0.1011  0.2836  0.4089
27100SOL    HW288351   1.894   7.753   2.727 -0.2866  1.1873  1.8251
27101SOL     OW88352   3.616   0.445   0.433  0.2582  0.2843  0.6816
27101SOL    HW188353   3.668   0.441   0.353  0.3340  0.2906  0.7306
27101SOL    HW288354   3.661   0.508   0.488 -1.0630  2.0516 -0.1811
27102SOL     OW88355  11.074  11.782   5.588 -0.1522  0.4083 -0.3539
27102SOL    HW188356  11.004  11.812   5.529  0.9868  1.8681 -1.0289
27102SOL    HW288357  11.125  11.861   5.607  0.4903 -0.3521  1.2764
27103SOL     OW88358  12.275   0.946   5.526  0.0546  0.0065 -0.0204
27103SOL    HW188359  12.277   1.034   5.564 -1.1699 -0.0411  0.1747
27103SOL    HW288360  12.318   0.956   5.441 -1.5550  1.1781 -0.7590
27104SOL     OW88361  11.111   0.893   1.063 -0.0708  0.3691 -0.1311
27104SOL    HW188362  11.149   0.879   0.976  1.0343  2.1782 -0.0004
27104SOL    HW288363  11.018   0.877   1.051 -0.0264  1.1530 -1.8240
27105SOL     OW88364   0.471  11.611  11.549  0.3536 -0.8102 -0.3816
27105SOL    HW188365   0.412  11.682  11.575 -0.3452 -1.2939 -0.6187
27105SOL    HW288366   0.492  11.566  11.631  0.9352 -0.2323 -0.2071
27106SOL     OW88367   2.618  11.102   9.811 -0.1012  0.0723  0.1940
27106SOL    HW188368   2.601  11.096   9.717 -0.1685 -1.1136  0.2707
27106SOL    HW288369   2.621  11.196   9.829 -0.0051  0.3119 -1.0058
27107SOL     OW88370   6.751   5.390   0.815 -0.0592  0.2080  0.0378
27107SOL    HW188371   6.752   5.478   0.852  0.4322  0.6287 -0.9346
27107SOL    HW288372   6.756   5.403   0.720  1.2774 -0.8843 -0.0824
27108SOL     OW88373   9.960   8.556  12.172 -0.0232  0.0411  0.6888
27108SOL    HW188374   9.986   8.549  12.080 -2.1805  0.9992 -0.0518
27108SOL    HW288375   9.949   8.466  12.202  1.1606 -0.2881  0.1675
27109SOL     OW88376  12.542  12.138   0.159 -0.1631 -1.0535 -0.1679
27109SOL    HW188377  12.473  12.201   0.177 -0.0995 -1.2422  0.7618
27109SOL    HW288378  12.561  12.098   0.244  4.0066  1.8826  0.5748
27110SOL     OW88379  11.806   9.527   5.139  0.1090 -0.1441  0.3699
27110SOL    HW188380  11.847   9.476   5.209 -0.4039 -0.2774  0.5725
27110SOL    HW288381  11.759   9.597   5.184 -2.1893 -1.5741  0.3413
27111SOL     OW88382   6.761  12.053  10.924  0.5350  0.0831  0.2958
27111SOL    HW188383   6.719  12.068  10.839  2.7414  1.3771 -0.6329
27111SOL    HW288384   6.750  11.959  10.939 -2.6349  0.3087  0.1741
27112SOL     OW88385   2.911   3.108   9.135 -0.6289  0.1328 -0.0284
27112SOL    HW188386   2.989   3.161   9.122  0.4491 -1.0228  1.3500
27112SOL    HW288387   2.940   3.018   9.122 -1.7845 -0.3083  0.2499
27113SOL     OW88388   3.638   2.961   3.829 -0.2202 -0.1917  0.1707
27113SOL    HW188389   3.643   2.983   3.736 -0.2163  0.2746  0.2776
27113SOL    HW288390   3.546   2.978   3.852 -0.1001  0.1844  0.3707
27114SOL     OW88391   5.095   6.942   4.923 -0.0108  0.3121 -0.3298
27114SOL    HW188392   5.014   6.901   4.952 -0.0088  1.2951  1.1985
27114SOL    HW288393   5.072   6.984   4.840 -0.5927 -0.8491 -0.7764
27115SOL     OW88394   1.183   4.351   6.322 -0.2234 -0.0799  0.0175
27115SOL    HW188395   1.183   4.331   6.228 -0.5645 -1.9659  0.3819
27115SOL    HW288396   1.266   4.316   6.354 -0.1682  0.4347  0.4483
27116SOL     OW88397  12.388   2.077   9.825 -0.4308  0.3744  0.0470
27116SOL    HW188398  12.473   2.121   9.814  0.5428 -1.3181  0.4885
27116SOL    HW288399  12.392   2.002   9.766 -1.7408  0.4024 -0.1032
27117SOL     OW88400   4.995   6.858   9.617  0.2159  0.1216  0.1941
27117SOL    HW188401   4.996   6.910   9.536 -0.1207 -0.0919  0.0545
27117SOL    HW288402   5.028   6.919   9.684 -0.0403  0.4716  0.0047
27118SOL     OW88403   0.056   4.188   4.572  0.3409  0.4680 -0.4723
27118SOL    HW188404   0.117   4.126   4.612 -0.1985 -0.1127 -0.5326
27118SOL    HW288405   0.089   4.274   4.597  1.1616  0.1636 -0.4719
27119SOL     OW88406  10.827   0.661   6.815  0.5966 -0.1086 -0.9997
27119SOL    HW188407  10.903   0.713   6.790  0.2522  0.3824 -1.0363
27119SOL    HW288408  10.863   0.575   6.837  1.3769  0.5722  0.5676
27120SOL     OW88409   8.287   6.136  11.957 -0.4370  0.3691  0.5095
27120SOL    HW188410   8.301   6.230  11.966 -0.1684  0.5816 -1.5737
27120SOL    HW288411   8.232   6.127  11.879 -0.6540 -1.1917  0.8078
27121SOL     OW88412   0.032   9.328   2.525 -0.3294  0.3875 -0.3304
27121SOL    HW188413  -0.033   9.369   2.582 -0.9343  0.2123 -0.8778
27121SOL    HW288414   0.015   9.234   2.532 -0.1100  0.3381 -0.4513
27122SOL     OW88415   1.612   1.336   6.595 -0.3217  0.2201 -0.1866
27122SOL    HW188416   1.522   1.364   6.582  0.0678  0.7036 -2.1511
27122SOL    HW288417   1.664   1.415   6.581  0.5473 -0.5835 -1.6998
27123SOL     OW88418   6.534   9.919   0.892 -0.0024  0.2875 -0.4372
27123SOL    HW188419   6.617   9.873   0.906 -0.5819 -0.9569 -0.8772
27123SOL    HW288420   6.559  10.008   0.870  1.2184 -0.0479 -0.4913
27124SOL     OW88421   9.581   7.379   6.920 -0.3299 -0.9460  0.0969
27124SOL    HW188422   9.652   7.388   6.856  1.0942  0.2931  1.7650
27124SOL    HW288423   9.526   7.457   6.907 -0.8352 -1.3885 -0.5015
27125SOL     OW88424   0.253   7.650   6.304 -0.6397 -0.6877  0.3504
27125SOL    HW188425   0.178   7.707   6.289 -0.4336 -0.2352  0.9781
27125SOL    HW288426   0.329   7.708   6.299 -0.3307 -1.1401 -0.2550
27126SOL     OW88427   1.185  12.139   4.473  0.1112  0.0902  0.0795
27126SOL    HW188428   1.209  12.212   4.415  0.1885 -0.5583 -0.7142
27126SOL    HW288429   1.091  12.129   4.460  0.3014 -0.7238 -0.7225
27127SOL     OW88430   7.459   5.710   4.225 -0.0929  0.1399 -0.0312
27127SOL    HW188431   7.368   5.729   4.202 -0.7173 -1.7862  0.6448
27127SOL    HW288432   7.510   5.772   4.173 -1.7119  0.1248 -1.7625
27128SOL     OW88433   0.786   1.098   1.814 -0.0855  0.2770  0.4062
27128SOL    HW188434   0.868   1.051   1.826  2.7925  4.1145 -1.8991
27128SOL    HW288435   0.792   1.172   1.873 -0.8127  1.7747 -1.2979
27129SOL     OW88436   5.008   3.915  11.516 -0.4013  0.0294  0.2502
27129SOL    HW188437   5.066   3.907  11.592 -0.3601 -1.2661  0.1074
27129SOL    HW288438   4.920   3.917  11.552 -0.3890 -0.7265  0.3431
27130SOL     OW88439   0.608   1.547   8.924  0.3209 -0.0912 -0.2809
27130SOL    HW188440   0.689   1.585   8.957 -0.9564  0.3295  2.6800
27130SOL    HW288441   0.592   1.592   8.841  2.0299  1.3423  0.1161
27131SOL     OW88442   9.943   9.482   2.200  0.4690  0.2853  0.2328
27131SOL    HW188443   9.984   9.439   2.125  0.4833  0.5376  0.0945
27131SOL    HW288444   9.933   9.412   2.265 -3.0599 -0.9357 -1.3605
27132SOL     OW88445   7.852   9.003  10.189 -0.0685 -0.3760  0.1331
27132SOL    HW188446   7.757   9.009  10.197 -0.0400  2.7855 -0.5816
27132SOL    HW288447   7.884   9.012  10.279 -0.4321  1.9413  0.0777
27133SOL     OW88448   8.610   7.107  12.554 -0.2483 -0.3507 -0.1950
27133SOL    HW188449   8.652   7.038  12.605 -0.8883  0.0117  0.8657
27133SOL    HW288450   8.647   7.098  12.467 -0.6663 -2.3636 -0.2232
27134SOL     OW88451   8.435   0.397   1.900 -0.1073 -0.3608  0.3820
27134SOL    HW188452   8.385   0.321   1.869  2.5220 -1.5865 -1.1718
27134SOL    HW288453   8.455   0.447   1.821 -0.8972  1.4578  1.2673
27135SOL     OW88454   5.673   4.493   3.641 -0.4769  0.4385  0.1573
27135SOL    HW188455   5.686   4.484   3.735  1.3163  1.1432  0.0017
27135SOL    HW288456   5.578   4.486   3.630 -0.7236  0.3123  1.9950
27136SOL     OW88457  11.185  11.338  11.167 -0.1314 -0.3659  0.6702
27136SOL    HW188458  11.170  11.313  11.258 -3.0250  1.2296  0.7639
27136SOL    HW288459  11.121  11.408  11.151 -0.6490 -1.4698 -2.9471
27137SOL     OW88460   4.355   9.719   6.519 -0.1593 -0.1556 -0.0629
27137SOL    HW188461   4.314   9.761   6.594 -0.2639 -1.6610  0.7591
27137SOL    HW288462   4.283   9.678   6.472  0.0497 -0.2638 -0.2919
27138SOL     OW88463  12.497   9.417   8.108  0.1696 -0.2197  0.0696
27138SOL    HW188464  12.588   9.402   8.136  0.2020  1.1061  0.7415
27138SOL    HW288465  12.478   9.507   8.134 -1.1948 -0.3195 -0.4905
27139SOL     OW88466   3.230   0.811   4.590 -0.6279  0.1290 -0.0692
27139SOL    HW188467   3.184   0.831   4.509  0.8313  2.6384 -0.3795
27139SOL    HW288468   3.212   0.718   4.606 -0.7380 -0.5289 -3.3862
27140SOL     OW88469   4.704  11.190   6.047  0.1024  0.3205  0.4497
27140SOL    HW188470   4.740  11.163   5.963  0.7890  0.9470  0.5294
27140SOL    HW288471   4.673  11.280   6.033  1.3030  0.8744  1.1536
27141SOL     OW88472  12.435   3.751   5.844  0.3616  0.1424  0.4689
27141SOL    HW188473  12.503   3.690   5.816 -1.0341 -1.9395  1.3187
27141SOL    HW288474  12.444   3.755   5.939  0.7254  1.7247  0.4065
27142SOL     OW88475   7.583  11.916   6.427  0.4474  0.4946  0.2291
27142SOL    HW188476   7.655  11.953   6.477 -1.0404  0.6795  2.3560
27142SOL    HW288477   7.586  11.822   6.445  1.2136  0.2160 -1.1720
27143SOL     OW88478   9.403   2.026   6.311  0.3330 -0.6763 -0.0084
27143SOL    HW188479   9.485   2.050   6.354  0.7252 -0.2688 -0.9536
27143SOL    HW288480   9.335   2.053   6.373  0.7932  1.8377 -0.4844
27144SOL     OW88481  11.952   0.334   0.638  0.3661  0.2589  0.5802
27144SOL    HW188482  11.981   0.257   0.588  0.6333  0.7142  0.0239
27144SOL    HW288483  11.994   0.408   0.594 -1.0038  0.8564  0.2304
27145SOL     OW88484   3.331  10.906   7.198 -0.5029  0.5417 -0.0089
27145SOL    HW188485   3.244  10.869   7.185 -0.8568  1.1011  0.7018
27145SOL    HW288486   3.322  10.997   7.169 -0.4920  0.9467  1.2192
27146SOL     OW88487   3.159   2.801   4.369 -0.1104  0.3182 -0.2893
27146SOL    HW188488   3.187   2.889   4.395 -1.9436  0.7111  0.4900
27146SOL    HW288489   3.123   2.812   4.281 -0.0081  0.2590 -0.3396
27147SOL     OW88490   1.216   2.461  11.806 -0.3486  0.5347  0.2823
27147SOL    HW188491   1.236   2.555  11.805  0.9292  0.2882 -1.2247
27147SOL    HW288492   1.299   2.419  11.786 -1.1970 -0.8622 -0.4225
27148SOL     OW88493   7.285   5.075  10.927 -0.3906 -0.0372 -0.2132
27148SOL    HW188494   7.262   5.071  10.834  0.4010 -0.0635 -0.4131
27148SOL    HW288495   7.330   5.159  10.937 -2.2088  0.8956  0.5678
27149SOL     OW88496   2.438   1.849   0.555  0.5383  0.4682 -0.1193
27149SOL    HW188497   2.459   1.794   0.630 -0.3015  0.6203  0.2410
27149SOL    HW288498   2.513   1.840   0.496  0.5064 -0.8886  0.0295
27150SOL     OW88499   0.488   8.656   3.653 -0.0348  0.0745 -0.0086
27150SOL    HW188500   0.453   8.574   3.617 -0.4993  1.0434 -1.9142
27150SOL    HW288501   0.471   8.651   3.747  0.3120 -2.1735 -0.0165
27151SOL     OW88502   8.327   4.646   6.690  0.3677  0.0558 -0.5988
27151SOL    HW188503   8.329   4.572   6.629  0.7592  0.9217 -1.6744
27151SOL    HW288504   8.384   4.711   6.649 -0.2159  1.0704  0.1770
27152SOL     OW88505   6.481   0.581  10.149 -0.7342  0.3906 -0.2099
27152SOL    HW188506   6.436   0.645  10.204 -0.4733 -1.1399  1.9349
27152SOL    HW288507   6.437   0.498  10.167 -0.5526 -0.2085 -2.2887
27153SOL     OW88508  12.170   5.128   2.969  0.1034  0.2512  0.0291
27153SOL    HW188509  12.261   5.157   2.961 -0.4589  1.6955 -1.5948
27153SOL    HW288510  12.142   5.160   3.055  1.0187  0.0429  0.4198
27154SOL     OW88511   3.471   8.312   1.881 -0.4070 -0.5956 -0.2406
27154SOL    HW188512   3.536   8.276   1.941 -0.5185  0.0658  0.2796
27154SOL    HW288513   3.514   8.308   1.795 -0.6095 -2.4402 -0.3097
27155SOL     OW88514  12.186   3.638   5.074 -0.0204  0.1071  0.4667
27155SOL    HW188515  12.268   3.687   5.079  0.0442  0.1341 -0.6726
27155SOL    HW288516  12.209   3.557   5.029 -0.9449  0.8799 -1.5047
27156SOL     OW88517  12.357   4.090   2.597 -0.6936 -1.0445  0.3441
27156SOL    HW188518  12.353   4.185   2.589 -0.6798 -0.8767  1.9628
27156SOL    HW288519  12.424   4.075   2.664 -1.5604 -2.1410  0.9797
27157SOL     OW88520   4.083   4.502   9.552 -0.0160 -0.1242 -0.0636
27157SOL    HW188521   4.006   4.474   9.602  0.2926  0.1366  0.5694
27157SOL    HW288522   4.089   4.596   9.568 -0.3345  0.0955 -1.1868
27158SOL     OW88523   7.035   0.816   7.833  0.2840 -0.1688  0.4876
27158SOL    HW188524   7.032   0.722   7.817 -0.4513  0.0981 -1.1297
27158SOL    HW288525   6.943   0.842   7.844  0.3751  0.5351 -0.2912
27159SOL     OW88526   7.429   2.484   3.003  0.6050  0.1828  0.0779
27159SOL    HW188527   7.334   2.494   3.007  0.6553  0.4169  0.9428
27159SOL    HW288528   7.448   2.471   2.910 -0.4851 -1.9808  0.0803
27160SOL     OW88529   4.809   9.743   0.729 -0.2981  0.4468 -0.3317
27160SOL    HW188530   4.738   9.724   0.667 -0.9597 -1.6790  0.9686
27160SOL    HW288531   4.764   9.772   0.808  0.3039 -0.1637  0.2489
27161SOL     OW88532   7.731   9.221   9.932 -0.3005 -0.0682  0.0235
27161SOL    HW188533   7.679   9.226  10.012 -1.2937 -1.5411 -0.4962
27161SOL    HW288534   7.746   9.313   9.907 -1.1328  0.3934  1.1453
27162SOL     OW88535   2.781   6.809   3.628 -0.4676 -0.1856 -0.1710
27162SOL    HW188536   2.842   6.819   3.700  1.2915 -0.6785 -1.5200
27162SOL    HW288537   2.764   6.898   3.597  0.1825 -0.0880 -0.2554
27163SOL     OW88538   1.564   3.036  10.133 -0.2289 -0.1332 -0.0622
27163SOL    HW188539   1.651   3.071  10.111  0.1734 -1.5833 -0.8987
27163SOL    HW288540   1.580   2.945  10.157 -1.2324  0.2053  2.1844
27164SOL     OW88541  12.429  12.478  11.749  0.1069  0.0652 -0.0005
27164SOL    HW188542  12.437  12.547  11.815  0.3500 -0.3837  0.4438
27164SOL    HW288543  12.509  12.484  11.697 -0.4012  0.8895 -0.7304
27165SOL     OW88544   6.639   1.514   6.061  0.1601  0.3118  0.3518
27165SOL    HW188545   6.588   1.434   6.048  2.0653 -0.7328 -1.2765
27165SOL    HW288546   6.636   1.558   5.976  0.3433  1.2546  0.8235
27166SOL     OW88547  12.045   1.556  11.690  0.2482  0.9951 -0.3563
27166SOL    HW188548  12.042   1.469  11.730  1.7227  1.3505  0.6414
27166SOL    HW288549  11.975   1.605  11.734 -0.0387  0.5514 -0.3128
27167SOL     OW88550  10.970   3.960  11.659 -0.3818 -0.5534 -0.4724
27167SOL    HW188551  11.041   3.993  11.715  1.8207 -1.0386 -2.7842
27167SOL    HW288552  10.932   4.039  11.620 -0.0887 -0.3586 -0.3683
27168SOL     OW88553   5.481  10.561   2.746 -0.1560 -0.2307  0.1651
27168SOL    HW188554   5.451  10.470   2.735  1.0936 -0.6956  0.3735
27168SOL    HW288555   5.507  10.588   2.658 -0.3131 -0.1602  0.1413
27169SOL     OW88556  11.835   1.792   9.193 -0.9077 -0.2694 -0.0304
27169SOL    HW188557  11.924   1.822   9.206 -1.6370  1.6961  0.8327
27169SOL    HW288558  11.825   1.717   9.252  0.4875 -1.2802 -1.0285
27170SOL     OW88559  10.375   6.484  11.495 -0.3099 -0.3427  0.2545
27170SOL    HW188560  10.394   6.578  11.497 -0.6945 -0.2685  0.6255
27170SOL    HW288561  10.286   6.477  11.528 -0.5138 -0.7886 -0.3682
27171SOL     OW88562  10.544   1.248   8.745 -0.6082  0.0333 -0.4517
27171SOL    HW188563  10.500   1.205   8.672 -0.1791  0.5257 -1.0113
27171SOL    HW288564  10.590   1.322   8.705 -0.2383  0.2164  0.2952
27172SOL     OW88565   9.781   7.785  10.859  0.3838  0.4782 -0.0262
27172SOL    HW188566   9.764   7.747  10.945  1.1174  0.2773  0.0380
27172SOL    HW288567   9.734   7.868  10.860 -0.2252  0.1394  0.2890
27173SOL     OW88568   0.386   5.098   9.916 -0.5015  0.2504  0.4341
27173SOL    HW188569   0.297   5.120   9.943 -0.4530 -0.9175  1.6529
27173SOL    HW288570   0.443   5.155   9.968 -0.5121  0.9773 -0.3245
27174SOL     OW88571   7.432   8.214   3.428 -0.5522 -0.1105 -0.2347
27174SOL    HW188572   7.410   8.284   3.367 -3.5439 -0.4170  0.3238
27174SOL    HW288573   7.431   8.135   3.375  1.8383  0.0576 -0.6636
27175SOL     OW88574   5.983   2.135   7.479 -0.4200  0.4547 -0.2728
27175SOL    HW188575   6.007   2.222   7.513 -0.5115 -0.0126  1.0550
27175SOL    HW288576   5.967   2.083   7.558 -0.8314 -0.6404 -1.0675
27176SOL     OW88577   9.978   6.898   2.786 -0.1037  0.1315  0.2753
27176SOL    HW188578  10.018   6.811   2.787  1.6750  0.9251  0.5226
27176SOL    HW288579  10.050   6.958   2.765 -1.1951  1.6109  0.5973
27177SOL     OW88580  12.540   1.501  11.248 -0.2427  0.0894 -0.0939
27177SOL    HW188581  12.480   1.445  11.297 -0.2752  1.4421  1.4992
27177SOL    HW288582  12.508   1.590  11.265  1.4068  0.7520 -0.3490
27178SOL     OW88583  10.858   9.231   5.350 -0.1664 -0.0392 -0.5160
27178SOL    HW188584  10.779   9.253   5.399  0.0159  0.3055 -0.3763
27178SOL    HW288585  10.920   9.203   5.417  1.2501  3.6512 -0.0641
27179SOL     OW88586   5.173   1.609  12.358 -0.7513  0.1972 -0.0362
27179SOL    HW188587   5.237   1.611  12.429  2.3106 -0.6587 -2.4983
27179SOL    HW288588   5.147   1.517  12.352  1.0177 -0.2621 -1.5281
27180SOL     OW88589   1.548   5.511   1.820 -0.2204 -0.1759 -0.3274
27180SOL    HW188590   1.456   5.531   1.836 -0.5650 -2.0200  0.2037
27180SOL    HW288591   1.552   5.489   1.727 -0.2824  0.0650 -0.3870
27181SOL     OW88592   8.953   8.841   9.025  0.3624  0.3528 -0.2633
27181SOL    HW188593   8.926   8.750   9.036  0.5686  0.4078  0.7342
27181SOL    HW288594   8.877   8.883   8.984  0.7403 -0.5254 -1.9947
27182SOL     OW88595   9.710   3.245   9.810  0.0006  0.4779  0.1991
27182SOL    HW188596   9.624   3.270   9.845 -0.0165  0.5075  0.1356
27182SOL    HW288597   9.690   3.192   9.733 -0.0184 -2.1519  1.9052
27183SOL     OW88598   6.219   2.695  11.830 -0.0437  0.0833  0.6739
27183SOL    HW188599   6.231   2.771  11.773  1.6391 -0.5573  0.1109
27183SOL    HW288600   6.128   2.700  11.857 -1.2778 -0.0672 -2.8345
27184SOL     OW88601   5.406  10.887   5.940 -0.9469 -0.0453 -0.4603
27184SOL    HW188602   5.422  10.795   5.963 -0.5495  0.0445 -0.3788
27184SOL    HW288603   5.473  10.936   5.987  0.0764  0.1197 -2.0136
27185SOL     OW88604   8.620   6.404   9.381 -0.7658 -0.0311 -0.2299
27185SOL    HW188605   8.694   6.363   9.337 -1.0804  0.3209 -1.1005
27185SOL    HW288606   8.649   6.413   9.472  0.5442  0.7385 -0.6880
27186SOL     OW88607   9.029  11.542   3.829 -1.3904 -0.2004  0.3209
27186SOL    HW188608   8.942  11.570   3.800 -1.7102 -1.2244  0.2132
27186SOL    HW288609   9.013  11.501   3.914 -0.6385  1.6983  1.4206
27187SOL     OW88610   6.449   2.357   3.171  0.8317 -0.0373 -0.2797
27187SOL    HW188611   6.422   2.297   3.241 -0.6062  0.5022 -0.3344
27187SOL    HW288612   6.503   2.422   3.215  0.5893 -0.1503  0.1932
27188SOL     OW88613   1.293   8.043   7.541 -0.5298  0.3904 -0.3073
27188SOL    HW188614   1.280   7.948   7.535  0.3759  0.2740 -0.5045
27188SOL    HW288615   1.206   8.080   7.524 -1.1112 -0.4270  0.7523
27189SOL     OW88616   6.441  12.244   0.736 -0.1414  0.3166 -0.5834
27189SOL    HW188617   6.358  12.278   0.770  0.5507 -0.3031  1.9351
27189SOL    HW288618   6.508  12.299   0.776  0.7272  0.1170 -1.7114
27190SOL     OW88619   4.007   0.719   8.656  0.5494 -0.0707  0.7332
27190SOL    HW188620   4.009   0.785   8.724 -0.3467  1.9031 -1.0425
27190SOL    HW288621   3.980   0.766   8.577  0.8473 -2.3674 -0.8525
27191SOL     OW88622   8.855   1.105   9.039  0.4874 -0.3113 -0.4459
27191SOL    HW188623   8.771   1.059   9.046  1.0015 -1.1200  0.5411
27191SOL    HW288624   8.892   1.075   8.956 -0.4148  0.4610 -1.1595
27192SOL     OW88625   8.106   4.945   7.097 -0.0307  0.2099  0.4838
27192SOL    HW188626   8.028   4.942   7.042 -0.0913  2.0851  0.3999
27192SOL    HW288627   8.144   4.857   7.090 -2.5447 -1.0364  1.1863
27193SOL     OW88628   6.952   7.356   0.830  0.1640  0.4318  0.3297
27193SOL    HW188629   7.026   7.318   0.783 -0.9155 -1.3763 -0.0190
27193SOL    HW288630   6.967   7.450   0.826  0.8501  0.3001 -2.4702
27194SOL     OW88631   1.840  10.186   6.010 -0.3110  0.2155  0.2087
27194SOL    HW188632   1.773  10.181   5.942 -1.3654 -1.2436  1.2799
27194SOL    HW288633   1.802  10.138   6.084  1.4211  0.4328  1.2912
27195SOL     OW88634   5.167  10.225   5.210  0.1640  0.0696  0.2938
27195SOL    HW188635   5.170  10.157   5.277  2.5924  0.4285  0.6473
27195SOL    HW288636   5.146  10.305   5.259  0.8853  0.1536  0.4801
27196SOL     OW88637  10.017   5.703  11.660 -0.8765 -0.1367  0.1621
27196SOL    HW188638  10.002   5.764  11.732  0.1187  0.8998 -0.4915
27196SOL    HW288639   9.930   5.688  11.623 -1.4171 -0.7301  1.5805
27197SOL     OW88640   6.127   1.217   2.802  0.5320  0.0663 -0.0279
27197SOL    HW188641   6.171   1.217   2.887 -0.5775 -3.3810  0.7034
27197SOL    HW288642   6.034   1.218   2.824  0.2298 -0.0494 -1.2355
27198SOL     OW88643  10.037  12.351   9.532 -0.8281  0.2075 -0.6353
27198SOL    HW188644   9.971  12.309   9.477 -0.4778 -0.4676 -0.5588
27198SOL    HW288645  10.002  12.343   9.621 -1.3324  1.1827 -0.7381
27199SOL     OW88646   2.805   8.407   6.965  0.1997  0.3377  0.2762
27199SOL    HW188647   2.834   8.492   6.934  0.0452  0.2147 -0.2135
27199SOL    HW288648   2.817   8.348   6.890  0.3303 -0.0761  0.6179
27200SOL     OW88649   2.010   1.009   4.232 -0.2951  0.5971 -0.5201
27200SOL    HW188650   2.008   0.974   4.321  0.9900  1.8097  0.0212
27200SOL    HW288651   2.066   0.948   4.183 -0.9814 -0.0559 -0.5100
27201SOL     OW88652   3.529   2.240   9.948 -0.6050 -0.1466  0.5621
27201SOL    HW188653   3.506   2.332   9.939 -1.1986 -0.2412  1.0282
27201SOL    HW288654   3.554   2.230  10.040  3.1993  0.3444 -0.2321
27202SOL     OW88655   1.285  11.549   0.188 -0.2551  0.3467  0.3567
27202SOL    HW188656   1.192  11.570   0.179 -0.1226  0.1765 -2.1020
27202SOL    HW288657   1.289  11.454   0.185  0.0258  0.3687 -0.1942
27203SOL     OW88658   7.563   7.629   2.619 -0.3478  0.5361 -0.0793
27203SOL    HW188659   7.653   7.650   2.641  0.2399  0.4693 -2.2266
27203SOL    HW288660   7.532   7.577   2.693  1.9771 -1.0137 -0.0831
27204SOL     OW88661   9.004   3.830   3.573 -0.4909 -0.2723 -0.4409
27204SOL    HW188662   8.917   3.852   3.540 -0.3705 -0.3036 -0.7803
27204SOL    HW288663   8.990   3.754   3.629 -1.0913  1.3201  1.6840
27205SOL     OW88664   5.984   4.514   3.101 -0.2626  0.0563  0.2311
27205SOL    HW188665   5.932   4.492   3.024  1.2769 -0.1702 -0.7720
27205SOL    HW288666   5.998   4.430   3.145  1.0938 -0.2410 -0.7092
27206SOL     OW88667   4.411  12.468   1.615 -0.2330  0.1115 -0.3551
27206SOL    HW188668   4.318  12.461   1.593 -0.0300 -0.0487 -1.1739
27206SOL    HW288669   4.418  12.555   1.656 -0.8023 -0.0313  0.0750
27207SOL     OW88670   1.879   9.165   2.005 -0.2087  0.6387 -1.0693
27207SOL    HW188671   1.843   9.254   2.003  3.6694  2.4711  0.2991
27207SOL    HW288672   1.882   9.143   2.098  2.6859  0.9803 -0.9795
27208SOL     OW88673   4.298  12.420   4.649 -0.0597  0.3010  0.8661
27208SOL    HW188674   4.384  12.378   4.642  0.0809  0.8675 -2.2768
27208SOL    HW288675   4.248  12.362   4.706  1.2726 -2.1109 -0.2600
27209SOL     OW88676   3.403   7.510   2.447 -0.0558 -0.2758  0.6365
27209SOL    HW188677   3.473   7.445   2.453  0.2390 -0.0284 -0.0502
27209SOL    HW288678   3.432   7.582   2.502  0.2832 -0.1291  0.2702
27210SOL     OW88679   1.100   3.766   9.516  0.3625 -0.7228  0.3861
27210SOL    HW188680   1.050   3.839   9.551  0.1097 -0.0566 -1.2613
27210SOL    HW288681   1.177   3.806   9.476  0.6260 -1.4250  0.1714
27211SOL     OW88682  11.459  10.699   8.010 -0.3028 -0.0213 -0.5312
27211SOL    HW188683  11.410  10.642   7.950  0.2623  0.3578 -1.3723
27211SOL    HW288684  11.415  10.688   8.095 -0.3498 -1.5157 -0.7297
27212SOL     OW88685   1.707  10.869   5.782 -0.1497 -0.4518  0.0816
27212SOL    HW188686   1.705  10.828   5.868 -1.9755  1.8397  1.2258
27212SOL    HW288687   1.634  10.830   5.735 -0.5998 -0.0255  0.4213
27213SOL     OW88688   8.658   7.050   6.349 -0.2997 -0.3806 -0.1221
27213SOL    HW188689   8.568   7.054   6.379 -0.7999  0.4471 -1.5936
27213SOL    HW288690   8.710   7.079   6.424 -1.4233  1.0866  0.1507
27214SOL     OW88691   4.170   6.465   8.974 -0.6095 -0.3037  0.4070
27214SOL    HW188692   4.205   6.547   9.008 -0.0189 -0.4451  0.1549
27214SOL    HW288693   4.238   6.433   8.915 -1.7715  0.1562 -1.2597
27215SOL     OW88694   6.121   1.735   1.654 -0.1461 -0.1994  0.0238
27215SOL    HW188695   6.030   1.762   1.639 -0.5101 -2.3653 -2.5220
27215SOL    HW288696   6.173   1.790   1.596  0.0639  0.3913  0.7668
27216SOL     OW88697  11.346   5.943   5.620 -0.1848 -0.2827 -0.0691
27216SOL    HW188698  11.329   6.034   5.593  0.2875  0.1281  0.9853
27216SOL    HW288699  11.366   5.898   5.538  0.8700  0.8608 -0.4728
27217SOL     OW88700   7.308   1.807   4.432 -0.2735  0.0418 -0.3572
27217SOL    HW188701   7.298   1.857   4.513 -3.8243 -1.2743  0.1906
27217SOL    HW288702   7.341   1.871   4.369  1.0157  1.5129  1.6763
27218SOL     OW88703   3.873   5.450   9.149 -0.1638  0.3946 -0.6903
27218SOL    HW188704   3.902   5.440   9.239 -0.0270 -0.2022 -0.7900
27218SOL    HW288705   3.782   5.480   9.155 -0.5518 -0.7819 -0.3258
27219SOL     OW88706   3.008  12.180   3.254 -0.1819 -0.2558 -0.7886
27219SOL    HW188707   2.938  12.246   3.256 -0.2675 -0.3670  0.6820
27219SOL    HW288708   3.089  12.232   3.251 -0.2943 -0.1128 -1.4249
27220SOL     OW88709  11.013   8.102   7.965 -0.4846 -0.3101  0.2906
27220SOL    HW188710  11.048   8.022   7.925  0.3723  0.6037 -0.8361
27220SOL    HW288711  10.951   8.136   7.900 -0.2804  0.3458  0.4317
27221SOL     OW88712   4.765  12.493   9.678  0.1719  0.2359  0.1596
27221SOL    HW188713   4.740  12.439   9.754 -1.5272  1.6915  0.6972
27221SOL    HW288714   4.729  12.446   9.603  1.5683 -1.0409  0.2297
27222SOL     OW88715   4.818   6.287   8.770  0.0914  0.4013 -0.5178
27222SOL    HW188716   4.796   6.239   8.690  0.6722  2.5004 -2.0351
27222SOL    HW288717   4.733   6.317   8.805 -0.1123  0.2144 -0.8512
27223SOL     OW88718   7.515   1.689   7.006 -0.1021 -0.0407  0.2303
27223SOL    HW188719   7.609   1.674   7.019  0.0216 -1.4512 -1.8517
27223SOL    HW288720   7.478   1.602   6.996 -1.6512  0.5072  0.9593
27224SOL     OW88721   2.017   8.056   6.551 -0.9781 -0.0189 -0.2179
27224SOL    HW188722   1.951   7.987   6.552  0.0060 -1.1272 -2.7001
27224SOL    HW288723   2.085   8.024   6.491  0.9891  1.8212  0.8616
27225SOL     OW88724   1.583   3.474   8.829 -0.6238 -0.5230  0.1395
27225SOL    HW188725   1.585   3.477   8.924 -0.3136 -0.0353  0.1178
27225SOL    HW288726   1.650   3.536   8.801 -0.8479 -0.5165 -0.3974
27226SOL     OW88727   1.291  12.543   3.777  0.3848 -0.0960  0.6018
27226SOL    HW188728   1.348  12.565   3.703  0.2445  0.0294  0.5309
27226SOL    HW288729   1.342  12.481   3.828  0.7972  0.4022  0.8084
27227SOL     OW88730   2.700   5.166   6.544 -0.8825  0.0731 -0.5919
27227SOL    HW188731   2.734   5.211   6.467 -0.8108  1.7090  0.3520
27227SOL    HW288732   2.778   5.133   6.589 -0.7355  1.1886 -0.0036
27228SOL     OW88733   9.365   2.812   9.591 -0.5925  0.2118  0.0187
27228SOL    HW188734   9.291   2.825   9.650 -1.8299  2.1350 -1.8321
27228SOL    HW288735   9.440   2.846   9.641 -1.1662 -0.4060  1.3643
27229SOL     OW88736   5.402   4.508   8.461  0.2358  0.1773 -0.2508
27229SOL    HW188737   5.391   4.414   8.476 -0.2876  0.1712 -0.6539
27229SOL    HW288738   5.332   4.549   8.511 -0.4176  0.2611 -1.2183
27230SOL     OW88739  12.192   1.151  11.612  0.2627  0.0522 -0.2668
27230SOL    HW188740  12.134   1.218  11.648  0.9935  1.1251 -1.0429
27230SOL    HW288741  12.152   1.128  11.528  0.6914  0.4451 -0.5819
27231SOL     OW88742  10.632  10.124   6.243 -0.0016 -0.2119 -0.3462
27231SOL    HW188743  10.623  10.052   6.179  0.2433 -0.2041 -0.3920
27231SOL    HW288744  10.568  10.189   6.215  2.0907  1.1208 -2.3887
27232SOL     OW88745   0.933   6.225   6.619  0.0571  0.3151  0.2171
27232SOL    HW188746   0.879   6.149   6.643  2.0264 -2.1029 -2.2880
27232SOL    HW288747   0.940   6.218   6.524  3.6829  1.2155  0.3038
27233SOL     OW88748   1.769  10.050   6.861 -0.7269  0.3633 -0.3197
27233SOL    HW188749   1.816   9.999   6.927 -0.9454  0.0730 -0.3908
27233SOL    HW288750   1.688  10.002   6.845 -2.1753  2.0705  1.5138
27234SOL     OW88751   8.263  12.019  10.294 -0.0245  0.3198 -0.2614
27234SOL    HW188752   8.262  12.049  10.384  0.6253 -0.9787  0.2041
27234SOL    HW288753   8.342  12.058  10.256  0.3060 -0.0218  0.0644
27235SOL     OW88754   7.431  11.597   2.189 -0.4248  0.0614  0.1613
27235SOL    HW188755   7.493  11.537   2.229  1.1999  0.7478 -1.2104
27235SOL    HW288756   7.348  11.549   2.186 -0.2658 -0.5317  2.9307
27236SOL     OW88757   3.847   3.484   2.076 -0.6924 -0.7035  0.3142
27236SOL    HW188758   3.926   3.470   2.128  0.5336 -1.6156 -1.6462
27236SOL    HW288759   3.851   3.416   2.008 -3.4449 -1.0956  0.4254
27237SOL     OW88760   2.090  11.893   5.195  0.0335  0.4749 -0.3529
27237SOL    HW188761   2.185  11.909   5.200  0.1358 -0.0066 -0.7090
27237SOL    HW288762   2.069  11.846   5.275  0.4184 -0.9857 -1.0717
27238SOL     OW88763   0.704  12.590  12.198  0.4048  0.1090 -0.0955
27238SOL    HW188764   0.797  12.570  12.206  0.6573  1.5949  1.3032
27238SOL    HW288765   0.663  12.548  12.274 -0.1128 -0.6932 -0.8023
27239SOL     OW88766   7.061   8.037   5.001 -0.1393 -0.3565 -0.1875
27239SOL    HW188767   7.006   8.000   5.070  0.3369 -0.7488 -0.0152
27239SOL    HW288768   7.003   8.098   4.955 -0.5212 -0.2460  0.4276
27240SOL     OW88769   9.336   7.387   5.535 -0.1042  0.1894 -0.0346
27240SOL    HW188770   9.358   7.472   5.495  1.4394 -2.0653 -4.7801
27240SOL    HW288771   9.420   7.354   5.566  0.1020 -1.0856 -1.8021
27241SOL     OW88772   8.922   4.117   9.081 -0.1001  0.5405 -0.3954
27241SOL    HW188773   8.953   4.164   9.158 -0.9356  1.8441 -0.8316
27241SOL    HW288774   8.923   4.025   9.107  0.5328  0.8764  0.8425
27242SOL     OW88775   8.211   6.865   3.859 -0.4135 -0.0413  0.0272
27242SOL    HW188776   8.129   6.862   3.908  0.0223 -1.0750  0.7230
27242SOL    HW288777   8.271   6.811   3.910  0.7452  0.7945 -0.4034
27243SOL     OW88778   6.478   2.144   1.511  0.1113  0.7430  0.0548
27243SOL    HW188779   6.537   2.117   1.441 -0.2386 -0.2026  0.1115
27243SOL    HW288780   6.536   2.179   1.579  0.4190  2.2497 -0.9246
27244SOL     OW88781   5.875   0.788   1.719  0.9456 -0.6619 -0.5231
27244SOL    HW188782   5.826   0.861   1.680  1.0834 -0.0370  0.4434
27244SOL    HW288783   5.834   0.709   1.683 -0.0671 -0.1281 -0.5592
27245SOL     OW88784  12.466   7.897   3.385 -0.1554  0.6458  0.2441
27245SOL    HW188785  12.555   7.922   3.362  1.1918 -3.1479  0.6271
27245SOL    HW288786  12.466   7.893   3.481 -0.7878  0.8075  0.2525
27246SOL     OW88787  11.438   2.833   2.220  1.0401  0.2890  0.7409
27246SOL    HW188788  11.444   2.764   2.285  1.5747 -0.5324 -0.1561
27246SOL    HW288789  11.511   2.892   2.240  1.7718 -0.4638  0.3264
27247SOL     OW88790  10.976  10.895  10.748  0.4529 -0.2124  0.1418
27247SOL    HW188791  10.925  10.822  10.783  1.2630 -0.3898  0.9923
27247SOL    HW288792  10.938  10.912  10.662 -1.9202  0.5281  1.2440
27248SOL     OW88793   6.981   4.193   9.642 -0.3239  0.5224 -0.1078
27248SOL    HW188794   7.070   4.228   9.638  0.5884 -1.5002  0.6211
27248SOL    HW288795   6.990   4.102   9.611 -1.4246 -0.8570  3.2019
27249SOL     OW88796  10.548   6.244   7.954 -0.5939  0.4814 -0.7220
27249SOL    HW188797  10.608   6.250   8.028 -0.7976 -0.9508 -0.4180
27249SOL    HW288798  10.584   6.173   7.900 -1.7108 -0.0579 -0.7918
27250SOL     OW88799   9.545   0.411   2.944  0.3454  0.5366 -0.1786
27250SOL    HW188800   9.507   0.340   2.995  1.9905 -0.1269  0.1633
27250SOL    HW288801   9.505   0.490   2.980 -1.9936 -0.1943 -0.9785
27251SOL     OW88802   5.403   0.582   9.141 -0.4179  0.0881 -0.0692
27251SOL    HW188803   5.376   0.507   9.195 -1.0275  0.4109  0.0867
27251SOL    HW288804   5.436   0.646   9.204  1.1266 -0.4409 -0.2822
27252SOL     OW88805   6.805   4.323  10.552 -0.0258  0.4657 -0.1730
27252SOL    HW188806   6.812   4.366  10.637  0.6367  0.7070 -0.3497
27252SOL    HW288807   6.875   4.259  10.551 -0.3687  0.0873 -0.3256
27253SOL     OW88808   9.945   5.598   2.022  0.7921  0.3665  0.1929
27253SOL    HW188809   9.944   5.591   1.926 -1.9476  0.6243  0.1420
27253SOL    HW288810  10.023   5.548   2.048  2.3403  1.3354 -2.2037
27254SOL     OW88811   5.009   8.628   5.042  0.0432 -0.3404  0.2771
27254SOL    HW188812   5.092   8.621   4.996 -0.8460 -0.4416 -1.4097
27254SOL    HW288813   4.944   8.594   4.980 -1.5018  1.5497  0.7681
27255SOL     OW88814   0.675   1.783   5.521  0.1676  0.2616  0.0136
27255SOL    HW188815   0.700   1.719   5.455  0.7056  1.4367 -0.9667
27255SOL    HW288816   0.740   1.853   5.512 -0.9778  1.4064  0.3417
27256SOL     OW88817   2.586  10.748  11.693 -0.0950  0.3202 -0.3911
27256SOL    HW188818   2.528  10.798  11.636 -0.5554 -0.0640 -0.2579
27256SOL    HW288819   2.672  10.753  11.650 -0.4377  0.0306 -1.1189
27257SOL     OW88820  11.047  10.796   9.728  0.7001 -0.4129  0.5092
27257SOL    HW188821  11.034  10.785   9.822 -0.2088  2.6088  0.8300
27257SOL    HW288822  11.140  10.775   9.715  1.2376  0.5575  2.3640
27258SOL     OW88823   4.151   6.920   0.369 -0.1243  0.0222 -0.0416
27258SOL    HW188824   4.245   6.935   0.364  0.0630 -0.9026  0.4689
27258SOL    HW288825   4.130   6.876   0.286 -0.1390  0.3611 -0.2198
27259SOL     OW88826   2.759   6.801   0.308 -0.0765 -0.2564  0.3891
27259SOL    HW188827   2.724   6.717   0.338 -0.5778  0.3278  1.4819
27259SOL    HW288828   2.682   6.858   0.300  0.2815  0.1586 -0.1389
27260SOL     OW88829  11.729   9.890   3.517  0.6322 -0.5575 -0.1043
27260SOL    HW188830  11.778   9.854   3.591 -0.6985 -2.2366  0.0271
27260SOL    HW288831  11.785   9.873   3.441  2.1788  1.5148  0.4831
27261SOL     OW88832  10.047   3.254   3.450  0.0804 -0.3156  0.4680
27261SOL    HW188833  10.116   3.195   3.480 -0.1816  0.5932  3.1994
27261SOL    HW288834  10.052   3.252   3.355  1.5248 -2.9769  0.5117
27262SOL     OW88835  11.528   6.446   5.457 -0.0320 -0.4437  0.8235
27262SOL    HW188836  11.488   6.524   5.495 -2.8449 -1.1252 -0.4814
27262SOL    HW288837  11.578   6.408   5.529 -1.3568  0.7894  2.4817
27263SOL     OW88838   1.137   3.052   4.338  0.5801  0.0033 -0.2141
27263SOL    HW188839   1.125   3.146   4.339  1.9529  0.2277 -0.9423
27263SOL    HW288840   1.073   3.017   4.399  0.2202  1.4262  0.2324
27264SOL     OW88841   9.846  12.155   7.728 -0.0272 -0.7101 -0.0818
27264SOL    HW188842   9.767  12.207   7.713  0.7555  0.3938 -0.4673
27264SOL    HW288843   9.888  12.195   7.804 -0.9299 -2.6608  1.5521
27265SOL     OW88844  10.417   1.519  10.208 -0.2637 -0.1068 -0.7489
27265SOL    HW188845  10.416   1.592  10.146 -1.3360 -1.5587 -2.5528
27265SOL    HW288846  10.326   1.511  10.237  0.5256  1.8633  2.7844
27266SOL     OW88847   7.127   6.335   6.276  0.1386  0.0384  0.5170
27266SOL    HW188848   7.168   6.421   6.280  0.7086 -0.1946 -0.1160
27266SOL    HW288849   7.180   6.286   6.213 -0.0390 -0.8479  1.0396
27267SOL     OW88850  10.220  10.645   7.120  0.0159 -0.4969  0.6192
27267SOL    HW188851  10.125  10.640   7.123 -0.1408  1.8203  1.7362
27267SOL    HW288852  10.250  10.557   7.142 -1.8730 -0.9954  1.3318
27268SOL     OW88853   0.790   3.103   0.421 -0.6065 -0.1752  0.8763
27268SOL    HW188854   0.747   3.033   0.371  0.5329 -0.1308 -0.2198
27268SOL    HW288855   0.754   3.095   0.510 -1.6437 -1.1516  0.3935
27269SOL     OW88856   1.445  10.168   9.297  0.0655 -0.2538 -0.7872
27269SOL    HW188857   1.512  10.119   9.344  0.9310 -0.4646 -2.1540
27269SOL    HW288858   1.441  10.253   9.341  2.9189  0.6307 -1.9788
27270SOL     OW88859   7.101   6.141   5.807 -0.2327  0.2761  0.5070
27270SOL    HW188860   7.164   6.073   5.781 -1.4053 -1.9956  3.1854
27270SOL    HW288861   7.156   6.215   5.832  1.2466 -0.6212  0.0859
27271SOL     OW88862  12.369   2.364   8.529  0.3190  0.5117  0.1734
27271SOL    HW188863  12.429   2.434   8.500 -0.6265  2.2010  2.0570
27271SOL    HW288864  12.282   2.402   8.518 -0.1951 -0.1594  1.7285
27272SOL     OW88865   6.672   7.633   0.447  0.3335 -0.1550 -0.1260
27272SOL    HW188866   6.648   7.682   0.526  1.6927  0.0502  0.1824
27272SOL    HW288867   6.714   7.698   0.391  1.8270 -0.8728  0.1376
27273SOL     OW88868   3.663   1.006   3.610  0.1310  0.4220 -0.2185
27273SOL    HW188869   3.593   1.071   3.608  1.4028  1.8697 -0.2336
27273SOL    HW288870   3.618   0.922   3.610 -1.6032  1.2908  0.3553
27274SOL     OW88871   8.565   8.136  10.072  0.4877 -0.0397 -0.0196
27274SOL    HW188872   8.591   8.056  10.025 -0.4479 -0.2127 -0.2687
27274SOL    HW288873   8.528   8.104  10.154 -2.4286 -0.1131 -1.2387
27275SOL     OW88874   4.889  11.292   2.855 -0.2513  0.1414 -0.2883
27275SOL    HW188875   4.923  11.208   2.825 -1.2524  0.2533 -1.8171
27275SOL    HW288876   4.821  11.269   2.918  2.0268 -0.0872  2.2995
27276SOL     OW88877   5.679  10.605   2.136  0.7430  0.1971  0.4117
27276SOL    HW188878   5.622  10.682   2.133 -0.0820 -0.4172 -1.0850
27276SOL    HW288879   5.734  10.614   2.058  1.4783 -0.1185  0.8910
27277SOL     OW88880  11.093   5.696  11.226  0.6685  0.3122 -0.1153
27277SOL    HW188881  11.156   5.737  11.167  0.8070  1.3605  0.7393
27277SOL    HW288882  11.025   5.661  11.167  2.1611 -1.1260 -1.0660
27278SOL     OW88883   1.564   1.974  10.371 -0.2294  0.1680 -0.3298
27278SOL    HW188884   1.608   2.051  10.335 -0.1153 -0.0183 -0.5923
27278SOL    HW288885   1.555   1.993  10.464  1.5960 -0.3512 -0.0166
27279SOL     OW88886  12.274   3.293  12.032 -0.0898  0.0710 -0.6286
27279SOL    HW188887  12.185   3.285  11.996 -0.7828 -0.4909  1.1195
27279SOL    HW288888  12.298   3.203  12.056  0.9702  0.2192 -1.0496
27280SOL     OW88889   4.029   0.444   7.118  0.5842 -0.1109 -0.0055
27280SOL    HW188890   4.015   0.372   7.180 -2.6204 -0.1553 -0.6020
27280SOL    HW288891   4.045   0.520   7.173 -1.7404 -0.2416  0.9767
27281SOL     OW88892  10.668   4.340   5.675 -0.2964  0.3931  0.5571
27281SOL    HW188893  10.759   4.368   5.661  0.0547 -1.0014 -0.1281
27281SOL    HW288894  10.675   4.272   5.743 -0.7837  0.0238  0.2371
27282SOL     OW88895  10.764  11.635   6.957  0.1773  0.0425 -0.5624
27282SOL    HW188896  10.683  11.682   6.939 -1.0796 -1.6277  0.4501
27282SOL    HW288897  10.777  11.578   6.881  0.8098  0.7975 -1.0390
27283SOL     OW88898   1.823   1.824   9.182 -0.0078 -0.5523  0.4812
27283SOL    HW188899   1.749   1.830   9.122 -0.2369 -3.5029  0.3571
27283SOL    HW288900   1.788   1.859   9.265 -0.0695  2.3213 -0.6195
27284SOL     OW88901   6.340   3.473   5.900 -0.5693 -0.0526  0.1320
27284SOL    HW188902   6.383   3.516   5.827 -0.3864  0.6187  0.6320
27284SOL    HW288903   6.410   3.431   5.949 -0.7706 -1.1525 -0.4920
27285SOL     OW88904  12.349   4.177   7.899 -0.4341  0.2323  0.0196
27285SOL    HW188905  12.344   4.257   7.952  1.0192  0.6885 -0.4617
27285SOL    HW288906  12.325   4.206   7.811 -1.7060 -0.2755  0.1838
27286SOL     OW88907   7.645  11.850   6.901  0.3168  0.3032  0.5191
27286SOL    HW188908   7.707  11.918   6.873 -0.8835  0.8102 -1.0666
27286SOL    HW288909   7.570  11.860   6.842 -2.4462  1.3927  3.9089
27287SOL     OW88910   2.612  10.113   2.498 -0.2415  0.0130  0.4496
27287SOL    HW188911   2.539  10.159   2.456 -0.4963 -0.3736  0.4617
27287SOL    HW288912   2.654  10.179   2.552  1.7625  1.3069 -2.4220
27288SOL     OW88913   2.616   1.843  10.618 -0.3177  0.1802  0.2039
27288SOL    HW188914   2.652   1.928  10.592 -0.4494  0.1140 -0.2038
27288SOL    HW288915   2.548   1.864  10.682 -1.9462  0.5619 -1.5667
27289SOL     OW88916  12.199   7.071   9.314  0.4221 -0.3197  0.2662
27289SOL    HW188917  12.160   7.028   9.390  0.0066 -2.1445 -0.9050
27289SOL    HW288918  12.137   7.141   9.292  0.4307  0.0718  1.4502
27290SOL     OW88919   0.755   5.183  11.616  0.2061 -0.0195 -0.1312
27290SOL    HW188920   0.841   5.144  11.626 -0.1906 -1.2202 -1.2344
27290SOL    HW288921   0.717   5.140  11.539 -1.5882  0.0809  0.6474
27291SOL     OW88922   9.693   9.761   3.756  0.0434 -0.3229  0.0581
27291SOL    HW188923   9.714   9.723   3.841  0.2768  0.3926  0.3255
27291SOL    HW288924   9.604   9.731   3.737 -0.2427  0.0262  0.8435
27292SOL     OW88925   0.413   2.086  10.891 -0.1959 -0.4730 -0.1587
27292SOL    HW188926   0.419   2.068  10.798 -0.0802  1.3099 -0.5380
27292SOL    HW288927   0.319   2.088  10.910 -0.2262 -0.5716 -0.3018
27293SOL     OW88928   1.672   8.945   0.857 -0.0677 -0.2472  0.3142
27293SOL    HW188929   1.632   8.897   0.930  1.2561 -0.3485  1.0090
27293SOL    HW288930   1.651   8.893   0.780 -1.2575 -0.2867  0.6459
27294SOL     OW88931   5.595  11.047   4.145  0.1215 -0.3972  0.4620
27294SOL    HW188932   5.550  10.963   4.154 -0.1406 -0.4948 -1.3270
27294SOL    HW288933   5.582  11.071   4.053 -1.4814  2.5269  1.3189
27295SOL     OW88934   9.979   8.346   2.711  0.6386  0.3234 -0.6254
27295SOL    HW188935   9.892   8.369   2.743  0.8718  1.7355 -0.9224
27295SOL    HW288936  10.010   8.279   2.772 -1.6158 -2.1138 -1.9764
27296SOL     OW88937   3.333   4.390   5.756 -1.5027 -0.2175 -0.0322
27296SOL    HW188938   3.284   4.310   5.738 -0.5409 -0.2155 -3.4615
27296SOL    HW288939   3.279   4.460   5.719 -1.5336  0.5522  1.3891
27297SOL     OW88940   3.211   6.756  11.673  0.2228  0.3544 -0.5462
27297SOL    HW188941   3.122   6.720  11.671 -0.4329  1.8577  0.2385
27297SOL    HW288942   3.247   6.725  11.756  0.5814 -0.5448 -1.0224
27298SOL     OW88943   6.101   9.749   4.928 -0.0723 -0.4368  0.2636
27298SOL    HW188944   6.062   9.819   4.979 -1.0834 -0.0961 -0.9338
27298SOL    HW288945   6.028   9.692   4.904  0.2345 -0.2208 -1.3444
27299SOL     OW88946   2.387   7.574  10.226 -0.0664 -0.4553 -0.2707
27299SOL    HW188947   2.461   7.606  10.277  1.2840 -2.3650 -0.8851
27299SOL    HW288948   2.331   7.531  10.290 -0.6561  0.9564  0.1936
27300SOL     OW88949   9.300   2.937   6.118 -0.1353 -0.0047  0.6985
27300SOL    HW188950   9.229   2.900   6.170 -2.2490  1.1634 -1.1412
27300SOL    HW288951   9.298   2.886   6.037 -0.3185  1.3747 -0.2012
27301SOL     OW88952   7.336   9.723   0.544 -0.1783 -0.0646 -0.0471
27301SOL    HW188953   7.355   9.629   0.539  0.2248 -0.0449  0.9784
27301SOL    HW288954   7.359   9.756   0.457  0.3998 -0.7832 -0.1805
27302SOL     OW88955   3.339   0.071   7.588  0.0076  0.4132  0.6389
27302SOL    HW188956   3.362   0.163   7.573 -0.1074  0.1608 -1.3126
27302SOL    HW288957   3.423   0.025   7.580 -0.0101  0.2867  1.1543
27303SOL     OW88958   1.107   3.595   8.364 -0.8728  0.2912  0.3616
27303SOL    HW188959   1.139   3.626   8.279  0.0738 -0.2271  0.5165
27303SOL    HW288960   1.021   3.636   8.374 -1.0599  0.2376 -0.9104
27304SOL     OW88961  12.183   2.928   0.026 -0.1261  0.5600  0.2105
27304SOL    HW188962  12.088   2.924   0.035 -0.2068  1.6381 -0.0364
27304SOL    HW288963  12.217   2.898   0.110 -0.6657 -0.4712  0.0707
27305SOL     OW88964   8.413   6.326   2.103  0.0695 -0.1497  0.4558
27305SOL    HW188965   8.469   6.335   2.180 -1.0816 -0.7084  1.3961
27305SOL    HW288966   8.439   6.242   2.064  0.4516 -0.0075  0.4047
27306SOL     OW88967   7.395  10.150   7.343 -0.3881 -0.1860 -0.5288
27306SOL    HW188968   7.428  10.062   7.321  1.5543 -0.0312  1.4017
27306SOL    HW288969   7.395  10.152   7.439 -0.7226  1.8204 -0.5424
27307SOL     OW88970   7.313   9.018   7.174 -0.6327 -0.3921  0.0223
27307SOL    HW188971   7.352   8.993   7.258  1.0451  1.2725 -0.2079
27307SOL    HW288972   7.241   9.077   7.198  0.2828  0.6436  0.2970
27308SOL     OW88973   7.042  11.270   0.694  0.1518  0.0935 -0.7426
27308SOL    HW188974   7.064  11.289   0.603  1.3715 -1.4425 -0.8090
27308SOL    HW288975   7.126  11.267   0.739 -0.4450  1.0044  0.4982
27309SOL     OW88976  12.434  11.293   0.437 -0.1962 -0.0820 -0.7508
27309SOL    HW188977  12.384  11.214   0.455 -0.9789  0.0492 -2.1913
27309SOL    HW288978  12.451  11.331   0.523 -0.0412 -1.6573 -0.0603
27310SOL     OW88979   4.875   4.331   3.390 -0.1758 -0.3949  0.7640
27310SOL    HW188980   4.850   4.299   3.304 -0.2961  2.0320 -0.1696
27310SOL    HW288981   4.958   4.286   3.409  1.1324  0.7895 -1.7281
27311SOL     OW88982   0.662   6.193  10.437 -0.3913 -0.2911 -0.2849
27311SOL    HW188983   0.605   6.151  10.501 -0.2564  0.2481  0.2000
27311SOL    HW288984   0.610   6.194  10.356 -1.1902  0.4094  0.2055
27312SOL     OW88985   6.926   1.694  11.543 -0.5058 -0.2809 -0.4599
27312SOL    HW188986   7.021   1.699  11.547 -0.5090 -0.7241  0.2900
27312SOL    HW288987   6.908   1.641  11.465 -0.1124 -0.8931 -0.1449
27313SOL     OW88988   5.645   1.774  11.729  0.1224 -0.3432  0.2258
27313SOL    HW188989   5.625   1.728  11.810 -1.9952 -0.3973 -0.2865
27313SOL    HW288990   5.734   1.744  11.706  0.8710 -0.1409  2.5900
27314SOL     OW88991   5.186   5.653   1.604 -0.1129 -0.5322 -0.0622
27314SOL    HW188992   5.137   5.574   1.626  1.0925 -1.2718  0.0782
27314SOL    HW288993   5.252   5.660   1.673  1.5519 -0.9684 -1.5531
27315SOL     OW88994   5.671   2.942   2.066  0.3577  0.0104 -0.1133
27315SOL    HW188995   5.671   2.967   1.974  1.9137  1.1764  0.1636
27315SOL    HW288996   5.652   3.023   2.113 -0.1452 -0.5177  0.6250
27316SOL     OW88997   0.484   3.852   7.673  0.1056 -0.0560 -0.4291
27316SOL    HW188998   0.453   3.864   7.762  1.0827  0.0745 -0.0900
27316SOL    HW288999   0.449   3.927   7.625 -0.6296 -0.2586 -0.2223
27317SOL     OW89000   1.853   7.465   0.200  0.3773  0.1870  0.0817
27317SOL    HW189001   1.886   7.526   0.133  0.5563 -0.1962 -0.1819
27317SOL    HW289002   1.924   7.457   0.263 -0.2495  1.5402  1.0181
27318SOL     OW89003   9.449   8.841   7.700 -0.2845  0.0376 -0.5008
27318SOL    HW189004   9.421   8.782   7.630  0.4630 -0.7721 -0.1312
27318SOL    HW289005   9.538   8.867   7.675  0.0984 -0.4904  0.2898
27319SOL     OW89006   9.577   0.360   4.395 -0.1459  0.6388  0.0411
27319SOL    HW189007   9.661   0.347   4.439 -0.4094  1.6608  0.8766
27319SOL    HW289008   9.592   0.331   4.305  0.3866 -1.5613  0.7770
27320SOL     OW89009   1.209   2.935   4.829 -0.5631  0.2604  0.4262
27320SOL    HW189010   1.199   2.979   4.914 -0.7584  2.0487 -0.4650
27320SOL    HW289011   1.123   2.898   4.811 -0.6683  0.3245  0.7838
27321SOL     OW89012   5.823  11.631   1.003  0.1186 -0.0948 -0.5528
27321SOL    HW189013   5.901  11.657   0.954  1.3551 -2.3406  0.0826
27321SOL    HW289014   5.775  11.573   0.943  0.6624 -1.3200  0.1438
27322SOL     OW89015   5.512  12.033   5.245 -0.7786  0.4557  0.6557
27322SOL    HW189016   5.505  12.129   5.251  0.9227  0.6509 -0.1290
27322SOL    HW289017   5.512  12.015   5.152  0.6648 -0.1541  0.7614
27323SOL     OW89018  11.086   8.285   7.572  0.2570  0.0883 -0.0517
27323SOL    HW189019  11.009   8.334   7.546 -0.4944 -0.3311  1.3209
27323SOL    HW289020  11.134   8.344   7.630  0.6457  0.1090 -0.3877
27324SOL     OW89021   0.502   9.655   8.318 -0.1949 -0.0946  0.1564
27324SOL    HW189022   0.465   9.708   8.389  0.9942  0.2511  0.5540
27324SOL    HW289023   0.524   9.719   8.250 -0.3758 -0.2950 -0.0887
27325SOL     OW89024   0.783   5.423   4.774 -0.2484  0.5498 -0.5139
27325SOL    HW189025   0.766   5.437   4.868  1.1395  0.4445 -0.2337
27325SOL    HW289026   0.781   5.511   4.737 -1.9960  0.5076 -0.6360
27326SOL     OW89027   6.718   0.145  10.911 -0.0167  0.8145  0.6542
27326SOL    HW189028   6.750   0.114  10.827 -0.2663 -1.9868  1.4843
27326SOL    HW289029   6.771   0.099  10.976 -0.6814  1.9084  2.0419
27327SOL     OW89030   3.076  11.514   7.422  0.2627 -0.1403  0.2246
27327SOL    HW189031   3.001  11.459   7.397 -0.1408  0.9039 -0.9797
27327SOL    HW289032   3.151  11.473   7.378 -0.1416  0.6000 -1.2189
27328SOL     OW89033   1.601   1.514   5.751  0.9214  0.2851 -0.3436
27328SOL    HW189034   1.615   1.473   5.836  1.9380  0.4511 -0.4212
27328SOL    HW289035   1.581   1.441   5.692  4.5062 -0.4082 -0.8765
27329SOL     OW89036   0.173  10.767   3.675 -0.5342 -0.4043 -0.1256
27329SOL    HW189037   0.079  10.782   3.664 -0.3549 -0.7712 -2.8228
27329SOL    HW289038   0.179  10.681   3.718 -1.4771 -1.2242 -1.5539
27330SOL     OW89039   2.491   7.725   2.590  0.0546 -0.1695  0.5535
27330SOL    HW189040   2.399   7.701   2.585  0.1402 -0.3597 -0.1842
27330SOL    HW289041   2.517   7.704   2.680  0.0942 -2.7619  0.0002
27331SOL     OW89042   6.780   7.308   1.908  0.5319 -0.5503  0.0862
27331SOL    HW189043   6.870   7.319   1.878 -0.0294  0.4377 -1.4064
27331SOL    HW289044   6.727   7.349   1.839 -0.9764  0.3272  1.6693
27332SOL     OW89045   5.949   2.016   5.022 -0.5822 -0.0752 -0.0911
27332SOL    HW189046   6.010   2.069   4.970 -0.9306  0.2133 -0.2113
27332SOL    HW289047   5.955   1.928   4.985 -1.1320  0.2111 -0.8973
27333SOL     OW89048  12.396   4.628  10.184  0.6658 -0.5263 -0.1366
27333SOL    HW189049  12.458   4.569  10.225  1.5210  0.8191  0.5800
27333SOL    HW289050  12.402   4.609  10.091  1.1831 -1.3145  0.0542
27334SOL     OW89051  11.339   8.753   0.806 -0.3926  0.0505  0.7704
27334SOL    HW189052  11.361   8.832   0.855 -0.0564  1.5895 -1.6976
27334SOL    HW289053  11.423   8.723   0.771 -0.9165  0.4429 -0.8845
27335SOL     OW89054   8.490   1.322  10.230 -0.0284 -0.2717 -0.5745
27335SOL    HW189055   8.429   1.266  10.182 -1.3943  1.1460 -0.5655
27335SOL    HW289056   8.524   1.383  10.164  0.4842 -0.3061 -0.3470
27336SOL     OW89057  10.008  10.443   4.425  0.0598 -0.2715  0.0140
27336SOL    HW189058   9.923  10.398   4.426  0.1177 -0.4210 -0.7695
27336SOL    HW289059  10.060  10.392   4.363  0.3598  0.4717 -0.3548
27337SOL     OW89060   7.629  10.884   1.766 -0.1361 -0.5222 -0.3077
27337SOL    HW189061   7.720  10.857   1.753 -0.2259 -0.6695 -0.6539
27337SOL    HW289062   7.586  10.806   1.802 -0.3092 -0.7289 -0.9409
27338SOL     OW89063  10.477   4.538   0.066 -0.8126 -0.2377  0.2016
27338SOL    HW189064  10.508   4.489  -0.010  1.0987 -0.6880  1.2018
27338SOL    HW289065  10.399   4.491   0.094  0.2697 -2.0543  0.3936
27339SOL     OW89066   5.700   4.092   4.178  0.2480 -0.4880  0.2667
27339SOL    HW189067   5.701   4.011   4.126 -0.4070 -0.7786  0.6905
27339SOL    HW289068   5.674   4.063   4.266 -0.5763  0.2588  0.2769
27340SOL     OW89069   3.419  11.378  10.865 -0.2376 -0.7926  0.2685
27340SOL    HW189070   3.410  11.293  10.907 -0.8616 -0.6295  0.4801
27340SOL    HW289071   3.362  11.436  10.916 -0.0936 -0.3276 -0.0867
27341SOL     OW89072   4.741  10.778  11.470 -0.0720  0.4350 -0.2903
27341SOL    HW189073   4.731  10.860  11.517 -1.8471  0.5923 -0.8596
27341SOL    HW289074   4.740  10.803  11.377 -3.4777 -0.3761 -0.5830
27342SOL     OW89075   4.660   2.661   1.392 -0.4048  0.1004 -0.0854
27342SOL    HW189076   4.716   2.693   1.322  1.0733 -1.3847  0.3363
27342SOL    HW289077   4.592   2.610   1.348  0.6508 -1.0247 -0.4689
27343SOL     OW89078   0.988  11.387   2.695 -0.0855  0.6998 -0.0532
27343SOL    HW189079   1.004  11.301   2.734  2.4875  1.0998 -0.0013
27343SOL    HW289080   0.904  11.415   2.732  0.6013 -0.3734  2.6176
27344SOL     OW89081   1.558   0.101   9.126 -0.1662  0.3186  0.3329
27344SOL    HW189082   1.485   0.160   9.109  0.9709  1.1804 -1.9090
27344SOL    HW289083   1.526   0.015   9.098 -0.4167  0.6339 -0.3590
27345SOL     OW89084   7.307   5.086   4.660 -0.1890 -0.5076 -0.3858
27345SOL    HW189085   7.327   5.012   4.717 -4.1522 -1.8840 -0.4569
27345SOL    HW289086   7.310   5.162   4.717  0.6774 -1.1804  0.5000
27346SOL     OW89087   2.485   4.579  12.228  0.1174 -0.0864 -0.1018
27346SOL    HW189088   2.543   4.530  12.169 -1.4651 -0.8255 -1.1226
27346SOL    HW289089   2.529   4.578  12.312  2.7557  1.4894 -1.3304
27347SOL     OW89090   9.342   2.406  11.390 -0.0542  0.2048 -0.0161
27347SOL    HW189091   9.341   2.460  11.311  1.8309  1.5832  0.8307
27347SOL    HW289092   9.335   2.469  11.462  0.9923 -0.7693  0.9731
27348SOL     OW89093  10.597   5.921   7.327  0.0209 -0.9979 -0.2952
27348SOL    HW189094  10.524   5.868   7.295 -1.2160 -0.1972  1.0652
27348SOL    HW289095  10.582   5.929   7.421  1.8244 -0.7181  0.0172
27349SOL     OW89096   4.176  10.102   7.496 -0.7769  0.6660  0.3541
27349SOL    HW189097   4.257  10.054   7.516 -0.9814  0.5962  1.0100
27349SOL    HW289098   4.161  10.082   7.403  0.4809  1.4704 -0.0552
27350SOL     OW89099   1.540   4.036   9.971  0.9080  0.4627  0.9306
27350SOL    HW189100   1.541   3.941   9.957  2.5533  0.6563 -0.7364
27350SOL    HW289101   1.631   4.062   9.962  0.7158  2.0492  2.9185
27351SOL     OW89102   8.451  10.078   7.623 -0.1290  0.3622  0.0597
27351SOL    HW189103   8.518  10.031   7.672  2.0159  2.9581 -0.1198
27351SOL    HW289104   8.385  10.100   7.689 -1.6353 -3.3101  0.0023
27352SOL     OW89105   5.684   1.012  11.919 -0.5132 -0.4773 -0.2920
27352SOL    HW189106   5.706   0.926  11.955  1.1428  0.1448  0.2693
27352SOL    HW289107   5.707   1.007  11.827 -1.5849 -0.9996 -0.5507
27353SOL     OW89108   3.319  10.291   3.654 -0.0339 -0.6814 -0.0609
27353SOL    HW189109   3.404  10.254   3.629 -0.2891 -2.0149  0.9108
27353SOL    HW289110   3.306  10.264   3.745 -0.6507  1.1431  0.4434
27354SOL     OW89111   7.563   8.773   5.924  0.4803 -0.2366  0.6117
27354SOL    HW189112   7.560   8.857   5.879 -2.8831 -0.6713 -0.2373
27354SOL    HW289113   7.611   8.716   5.864 -0.5081  0.1936 -0.6350
27355SOL     OW89114   3.787   7.042  10.498 -0.4291 -0.1344 -0.1929
27355SOL    HW189115   3.791   6.988  10.577  0.0113  0.6779  0.3544
27355SOL    HW289116   3.694   7.054  10.482 -0.5122  0.5180  0.7810
27356SOL     OW89117   4.297   9.537   3.727  0.5347 -0.2427  0.1900
27356SOL    HW189118   4.359   9.600   3.692 -0.4282  1.2970  1.1389
27356SOL    HW289119   4.311   9.539   3.821 -1.2852  0.5403  0.4763
27357SOL     OW89120   0.155   0.013   2.576 -0.2078  0.3513 -0.0703
27357SOL    HW189121   0.127   0.077   2.511 -0.9115 -0.5341 -0.6454
27357SOL    HW289122   0.250   0.020   2.577 -0.2456  1.0235 -0.5096
27358SOL     OW89123   4.707   8.590   0.924 -0.1534  0.0011 -0.3103
27358SOL    HW189124   4.654   8.564   0.849  1.2028 -0.9913 -0.9678
27358SOL    HW289125   4.727   8.508   0.969  0.0652  0.4545  0.4463
27359SOL     OW89126   0.168   2.144   7.810  0.4364 -0.4093  0.0599
27359SOL    HW189127   0.138   2.066   7.764  0.1228  0.5273 -1.3603
27359SOL    HW289128   0.260   2.126   7.830  0.2648 -1.2870  0.1024
27360SOL     OW89129   7.272   4.401   6.059 -0.1411  0.0718  1.0758
27360SOL    HW189130   7.192   4.394   6.007 -0.5872  0.6735  1.6579
27360SOL    HW289131   7.302   4.310   6.069  0.2690 -0.0090 -0.6799
27361SOL     OW89132   9.467   4.352   5.508 -0.1098 -0.0176 -0.3790
27361SOL    HW189133   9.381   4.360   5.465 -0.3904  0.7809  0.3150
27361SOL    HW289134   9.483   4.438   5.547  1.0087 -0.1600 -0.4782
27362SOL     OW89135   8.953   9.566   3.063  0.1422 -0.6394  0.1450
27362SOL    HW189136   8.963   9.494   3.001 -1.4227  0.5994 -1.7048
27362SOL    HW289137   8.867   9.552   3.103 -0.6315  0.6415 -0.9645
27363SOL     OW89138   3.915  11.070   0.941 -0.0412  0.2144  0.2901
27363SOL    HW189139   3.941  10.984   0.909  0.0842  0.4359 -0.2065
27363SOL    HW289140   3.838  11.093   0.889  1.3123  1.4345 -1.2708
27364SOL     OW89141   9.511   7.571   8.124  0.1916 -0.1483 -0.1412
27364SOL    HW189142   9.484   7.514   8.196 -1.3641  1.3635  0.5180
27364SOL    HW289143   9.431   7.586   8.074  0.9596  0.0009 -1.3790
27365SOL     OW89144   2.988   4.138   0.490  0.0369 -0.0925 -0.2644
27365SOL    HW189145   2.919   4.073   0.506 -0.8486  0.9095  0.1715
27365SOL    HW289146   2.940   4.221   0.480  1.2416  0.7893  0.9547
27366SOL     OW89147   0.196   7.776   1.920  0.3170  0.2586  0.1242
27366SOL    HW189148   0.118   7.832   1.925 -1.0725 -1.5667 -0.2101
27366SOL    HW289149   0.166   7.690   1.949  2.4095 -0.3471  0.6912
27367SOL     OW89150   0.058   8.955  11.435  0.2310  0.1273 -0.1399
27367SOL    HW189151  -0.028   8.913  11.442 -0.7810  1.8882 -1.1138
27367SOL    HW289152   0.045   9.040  11.477  0.9509  1.1512 -1.9059
27368SOL     OW89153  12.059  12.386   1.510  0.2549  0.1274 -0.3356
27368SOL    HW189154  12.022  12.387   1.422  1.0207  1.0370 -0.6623
27368SOL    HW289155  12.079  12.293   1.526  0.2683 -0.0298 -1.1855
27369SOL     OW89156   4.098   3.374   1.861  0.1122 -0.3354  0.6520
27369SOL    HW189157   4.130   3.302   1.806 -1.1253 -0.0193 -0.5334
27369SOL    HW289158   4.003   3.371   1.852 -0.0056  0.9047  1.2722
27370SOL     OW89159  10.842   0.830   3.720  0.5038  0.0058  0.6945
27370SOL    HW189160  10.772   0.844   3.785 -0.6727  0.1418 -0.5685
27370SOL    HW289161  10.913   0.789   3.771 -1.4736 -2.6731  1.5597
27371SOL     OW89162   5.529  11.325   0.684 -0.1676  0.1778 -0.2798
27371SOL    HW189163   5.508  11.242   0.726  0.2822 -0.0531 -0.5001
27371SOL    HW289164   5.530  11.304   0.590 -0.0874  0.4397 -0.3373
27372SOL     OW89165  10.291   3.047   9.831 -0.6655 -0.5313 -0.4025
27372SOL    HW189166  10.198   3.070   9.835 -0.8832 -0.9957 -2.0458
27372SOL    HW289167  10.307   2.999   9.912 -1.9250 -0.6983 -0.2245
27373SOL     OW89168   2.624   1.066   7.991 -0.4024 -0.2659  0.1917
27373SOL    HW189169   2.574   1.013   7.928 -0.3387  0.8307 -0.8116
27373SOL    HW289170   2.715   1.058   7.963 -0.2227 -0.7057  0.8659
27374SOL     OW89171  11.887   2.592   8.701  0.4514 -0.0946  0.2059
27374SOL    HW189172  11.907   2.557   8.614  2.3569  1.2978  0.0191
27374SOL    HW289173  11.793   2.579   8.711 -0.1552  1.1700 -2.7745
27375SOL     OW89174   8.507  11.334   7.231 -0.0911 -0.3930 -0.7124
27375SOL    HW189175   8.570  11.287   7.285  0.0892  1.2494  0.5985
27375SOL    HW289176   8.432  11.347   7.289 -0.2436  0.6813 -1.1384
27376SOL     OW89177   8.829   8.858  11.072 -0.1380  0.6011 -0.1811
27376SOL    HW189178   8.865   8.808  11.146 -2.1659  1.0150  1.1750
27376SOL    HW289179   8.873   8.943  11.077 -0.7241  0.8614  1.0104
27377SOL     OW89180   7.748   7.027   2.380 -0.3609 -0.0209 -0.3331
27377SOL    HW189181   7.754   6.964   2.309  0.7488  1.4931 -1.6639
27377SOL    HW289182   7.702   6.980   2.450  0.8769 -2.4428 -1.0383
27378SOL     OW89183   1.758   2.062   5.832 -0.2273 -0.3095  0.1777
27378SOL    HW189184   1.685   2.043   5.891  0.6885  0.9419  1.8044
27378SOL    HW289185   1.819   1.989   5.846 -1.2064 -1.4809 -1.3580
27379SOL     OW89186   4.350   8.674   8.213 -0.4042 -1.0657 -0.0155
27379SOL    HW189187   4.430   8.716   8.245  0.6310 -0.7511 -2.7126
27379SOL    HW289188   4.283   8.699   8.276  1.3874 -0.4137  1.7415
27380SOL     OW89189   3.762   4.893   2.305  0.6020 -0.0959 -0.0918
27380SOL    HW189190   3.782   4.805   2.335 -1.3190 -1.0120 -1.2854
27380SOL    HW289191   3.829   4.912   2.239  1.4689 -0.3220  0.6998
27381SOL     OW89192   0.266  11.950   4.492  0.3161  0.3713 -0.2451
27381SOL    HW189193   0.286  11.874   4.438  0.8286 -0.5147  1.1265
27381SOL    HW289194   0.207  11.916   4.560 -0.1181  1.3943 -0.0888
27382SOL     OW89195  11.033  11.856   4.003  0.8155 -0.1882  0.4347
27382SOL    HW189196  11.024  11.929   3.942 -0.3491 -1.1153 -0.5550
27382SOL    HW289197  11.122  11.865   4.038  1.7008  0.1013 -1.7535
27383SOL     OW89198  11.775  12.127   7.800  0.6148 -0.0533  0.0262
27383SOL    HW189199  11.810  12.214   7.819  0.1830  0.1620 -0.1539
27383SOL    HW289200  11.697  12.121   7.854 -0.0117  0.1335 -0.8469
27384SOL     OW89201  10.072   4.930   8.601 -0.3825 -0.7060 -0.6453
27384SOL    HW189202  10.129   4.990   8.648  0.3980 -0.3517 -1.9937
27384SOL    HW289203   9.991   4.979   8.587 -1.1261 -1.2631  1.4076
27385SOL     OW89204   8.766   3.163  11.102 -0.3327  0.0422 -0.0868
27385SOL    HW189205   8.814   3.132  11.178  2.0241  0.9042 -1.1404
27385SOL    HW289206   8.830   3.166  11.032 -2.0377  0.8428 -1.7125
27386SOL     OW89207   6.366   8.839   3.854  0.4986  0.2950 -0.6919
27386SOL    HW189208   6.362   8.882   3.939  2.1505 -1.6622  0.4838
27386SOL    HW289209   6.459   8.842   3.830  0.0871  0.7354 -2.4336
27387SOL     OW89210  11.721   0.100   9.936 -0.9578  0.5669 -0.0975
27387SOL    HW189211  11.741   0.194   9.930 -1.3545  0.7242  0.8347
27387SOL    HW289212  11.633   0.097   9.974 -0.3344 -0.1968  1.3427
27388SOL     OW89213   9.127   2.703   0.766  0.5724  0.1427  0.5724
27388SOL    HW189214   9.087   2.628   0.722  1.7813 -0.8874  1.1393
27388SOL    HW289215   9.078   2.712   0.848 -1.1739  1.5732 -0.5596
27389SOL     OW89216   9.184   6.978   5.221  0.5463 -0.0910 -0.5046
27389SOL    HW189217   9.148   6.996   5.308 -0.0019 -0.7062 -0.5985
27389SOL    HW289218   9.173   6.884   5.209  2.0414 -0.2819 -0.6161
27390SOL     OW89219   0.567   2.438   1.413  0.0136 -0.3639  0.0471
27390SOL    HW189220   0.546   2.380   1.340  0.5471  0.5559 -0.8526
27390SOL    HW289221   0.558   2.382   1.491 -0.7583 -1.3044 -0.6860
27391SOL     OW89222   0.643   2.111   9.565 -0.5080  0.3228 -0.1293
27391SOL    HW189223   0.635   2.055   9.488 -1.3497 -0.4362  0.4838
27391SOL    HW289224   0.626   2.052   9.639  1.4101  0.7669  0.7339
27392SOL     OW89225  10.032   6.715  11.773 -0.1881  0.0442  0.0302
27392SOL    HW189226  10.071   6.758  11.849  2.3428  0.3682 -1.3499
27392SOL    HW289227  10.016   6.786  11.710 -1.5331 -0.3215 -0.0862
27393SOL     OW89228  12.253   8.568   0.907 -0.5051  0.2657 -0.1471
27393SOL    HW189229  12.158   8.569   0.899 -0.3523  0.7321 -2.4122
27393SOL    HW289230  12.280   8.485   0.867  0.1307  1.0783 -1.4900
27394SOL     OW89231   3.573   9.055   9.876 -0.1514  0.5313 -0.4125
27394SOL    HW189232   3.500   9.110   9.906  0.4356  0.4353  1.2500
27394SOL    HW289233   3.649   9.087   9.924  0.7760  0.1474 -1.5856
27395SOL     OW89234   8.501   7.997   0.394 -0.4949 -0.5400  0.1655
27395SOL    HW189235   8.587   8.033   0.377 -0.2528 -0.8092  0.7872
27395SOL    HW289236   8.496   7.991   0.489 -0.7074 -1.6933  0.0974
27396SOL     OW89237   7.286   2.975   7.834  0.8589 -0.2352 -0.7327
27396SOL    HW189238   7.308   3.067   7.851 -0.3828 -0.3303  2.0234
27396SOL    HW289239   7.204   2.978   7.785 -0.0538  0.2071  0.7504
27397SOL     OW89240   8.201   5.009   2.506 -0.1618 -0.1874  0.3117
27397SOL    HW189241   8.136   5.080   2.503 -0.4176 -0.4373 -1.6738
27397SOL    HW289242   8.205   4.984   2.598 -1.7386  0.8853  0.7201
27398SOL     OW89243   7.690   1.599   2.146 -0.0755  0.3490 -0.2844
27398SOL    HW189244   7.703   1.524   2.087 -0.1157  0.6015 -0.6133
27398SOL    HW289245   7.616   1.572   2.201  1.0644 -0.6096  0.8274
27399SOL     OW89246   3.883   6.631  11.925  0.4301  0.2265 -0.0461
27399SOL    HW189247   3.822   6.669  11.862 -0.2003  0.4602  0.6939
27399SOL    HW289248   3.905   6.546  11.888 -0.1302  0.2546 -0.4584
27400SOL     OW89249  10.276  12.140  11.418 -0.0666 -0.2399 -0.4303
27400SOL    HW189250  10.278  12.123  11.512  1.3196  2.0661  0.0565
27400SOL    HW289251  10.328  12.069  11.379  1.6404  0.2099  0.8900
27401SOL     OW89252   7.216   0.464   7.249  1.0112  0.1042 -0.4270
27401SOL    HW189253   7.254   0.542   7.208 -0.9285  1.0171 -0.5723
27401SOL    HW289254   7.224   0.480   7.343  0.5375  0.5095 -0.4572
27402SOL     OW89255   0.891   9.115   1.170  0.6344 -0.4614  0.3136
27402SOL    HW189256   0.966   9.115   1.111 -0.2620  0.3230 -0.8770
27402SOL    HW289257   0.886   9.204   1.203  0.6525 -0.7001  0.9883
27403SOL     OW89258  11.049   4.632   1.489 -0.0153  0.5437 -0.1592
27403SOL    HW189259  11.054   4.539   1.509  1.9194  0.5826 -0.3258
27403SOL    HW289260  11.003   4.670   1.564 -0.2974 -0.4564  0.1899
27404SOL     OW89261   7.403   3.850   4.272 -0.1676  0.1886  0.3010
27404SOL    HW189262   7.328   3.790   4.267  1.0695 -1.7061  2.4957
27404SOL    HW289263   7.467   3.804   4.326  2.7262  1.6411 -1.6536
27405SOL     OW89264   4.434  11.976  10.638  0.1778 -0.0012  0.5239
27405SOL    HW189265   4.432  12.067  10.609 -2.7509 -0.5226 -1.3252
27405SOL    HW289266   4.523  11.947  10.619  0.6435  1.9723 -0.5652
27406SOL     OW89267   9.820   0.624   1.452 -0.0186  0.2269 -0.3163
27406SOL    HW189268   9.906   0.583   1.457  0.0872  0.5297  0.6325
27406SOL    HW289269   9.808   0.664   1.538 -1.0876  0.2325 -0.4552
27407SOL     OW89270   3.568   3.093   5.463 -0.0704 -0.2936  0.5703
27407SOL    HW189271   3.649   3.049   5.490  0.1510  1.0035  2.1291
27407SOL    HW289272   3.579   3.183   5.491 -2.0075 -0.0518  0.6839
27408SOL     OW89273   6.041  11.652   2.415 -0.3754 -0.1495 -0.3550
27408SOL    HW189274   6.064  11.627   2.326  0.3170 -0.0868 -0.2031
27408SOL    HW289275   5.976  11.722   2.405  1.6964  1.8209 -0.8915
27409SOL     OW89276   2.309   4.813  12.245 -0.0781  0.2004  0.6099
27409SOL    HW189277   2.334   4.721  12.234  0.2189  0.3647 -0.2087
27409SOL    HW289278   2.391   4.857  12.268 -0.1554  0.3157  0.6649
27410SOL     OW89279   4.053   7.254   4.962 -0.5351 -0.1355 -0.0801
27410SOL    HW189280   4.060   7.166   4.926  1.3634 -0.3524  0.7332
27410SOL    HW289281   4.141   7.290   4.957 -1.1052  1.4433  0.3399
27411SOL     OW89282   5.528  11.144   9.304  0.3324  0.0630 -0.1192
27411SOL    HW189283   5.485  11.110   9.226 -0.1022  1.8706 -0.7247
27411SOL    HW289284   5.621  11.137   9.285  0.2433  1.7086 -1.4327
27412SOL     OW89285   7.095   8.513   4.361  0.2313  0.3772  0.0549
27412SOL    HW189286   7.157   8.523   4.289  0.9438 -2.8026  0.0715
27412SOL    HW289287   7.148   8.525   4.440  0.4191 -0.3700  0.0506
27413SOL     OW89288  11.482   0.852  11.563 -0.0186 -0.0502 -0.0637
27413SOL    HW189289  11.407   0.886  11.515 -0.4919  0.8367  1.2474
27413SOL    HW289290  11.554   0.911  11.542 -0.0418 -0.0815 -0.2300
27414SOL     OW89291   9.887   8.312   3.728 -0.1849  0.6471 -0.1382
27414SOL    HW189292   9.956   8.373   3.753  0.0082  0.2092  0.4173
27414SOL    HW289293   9.837   8.358   3.661  0.3170  1.1798 -0.1512
27415SOL     OW89294  10.953  11.145   4.311 -0.2658 -0.1212 -0.1665
27415SOL    HW189295  11.013  11.097   4.253  0.5709  1.4665 -0.6791
27415SOL    HW289296  10.866  11.125   4.277  0.0657 -1.1690 -0.4328
27416SOL     OW89297  12.358  10.381   8.179 -0.0955  0.5607  0.0286
27416SOL    HW189298  12.428  10.443   8.201 -1.5879  2.5842 -0.6173
27416SOL    HW289299  12.291  10.396   8.245 -1.0951  0.7050 -0.9976
27417SOL     OW89300   7.138   7.367   4.267 -0.6165  0.5293  0.0331
27417SOL    HW189301   7.089   7.366   4.349  0.4722 -2.3573  0.7891
27417SOL    HW289302   7.205   7.434   4.280 -1.3507  1.1186  0.9193
27418SOL     OW89303  10.722  11.565   0.057 -0.3896  0.0462  0.9452
27418SOL    HW189304  10.817  11.568   0.047 -0.5817  0.9244 -0.9511
27418SOL    HW289305  10.702  11.640   0.114 -0.0453  0.6086  0.3402
27419SOL     OW89306  12.214   0.521   6.353  0.6815  0.4636 -0.3930
27419SOL    HW189307  12.192   0.537   6.261 -2.7466  0.6378  0.3293
27419SOL    HW289308  12.189   0.430   6.368  2.4951  0.0016  0.1059
27420SOL     OW89309   4.468   9.812  11.939  0.1710  0.6976  0.2245
27420SOL    HW189310   4.518   9.829  11.860 -0.9404 -1.6353 -1.0560
27420SOL    HW289311   4.492   9.724  11.966  0.0309  1.1893  2.1527
27421SOL     OW89312  10.965   9.175   8.146 -0.1927  0.1523 -0.4408
27421SOL    HW189313  10.894   9.203   8.204 -0.6564 -1.2629 -0.2988
27421SOL    HW289314  10.936   9.202   8.058 -1.0147 -0.6008 -0.4124
27422SOL     OW89315  11.715   9.533   8.548  0.2913  0.3557  0.6152
27422SOL    HW189316  11.625   9.517   8.574 -1.0291  0.5776 -3.1527
27422SOL    HW289317  11.754   9.446   8.542  0.0801  0.1983  1.4225
27423SOL     OW89318   3.633   0.036  12.554  0.3534 -0.3298 -0.1422
27423SOL    HW189319   3.724   0.015  12.574  0.5756 -1.2583 -1.8583
27423SOL    HW289320   3.604  -0.037  12.499 -0.4890  1.3836 -2.0894
27424SOL     OW89321  12.497   6.628   0.728  0.3100 -0.2211  0.3836
27424SOL    HW189322  12.443   6.607   0.804 -1.4472 -1.7862 -1.1667
27424SOL    HW289323  12.448   6.697   0.683  0.6415 -0.2119  0.0321
27425SOL     OW89324  11.404   3.225  11.453 -0.2554 -0.0468 -0.1119
27425SOL    HW189325  11.469   3.155  11.464  0.8049  0.9477  0.0759
27425SOL    HW289326  11.433   3.294  11.512 -1.1649  0.6549 -0.4731
27426SOL     OW89327   9.093   3.177   4.808  0.3106  0.3624  0.1334
27426SOL    HW189328   9.050   3.225   4.879  0.6691  0.2130  0.4499
27426SOL    HW289329   9.076   3.230   4.730 -1.4282 -0.2564  0.0423
27427SOL     OW89330   0.008   6.811   3.854 -0.2228  0.0231  0.5986
27427SOL    HW189331  -0.031   6.873   3.792  0.6267 -0.7211 -0.7341
27427SOL    HW289332  -0.055   6.739   3.859  0.8706 -1.1935 -1.5768
27428SOL     OW89333   5.784   3.691   0.860  0.3370 -0.2788  0.4604
27428SOL    HW189334   5.801   3.781   0.885 -1.6024  0.2316  0.1450
27428SOL    HW289335   5.870   3.652   0.847  1.2657  2.4873 -2.9203
27429SOL     OW89336   6.685   7.173   3.615  0.3114 -0.4204  0.2539
27429SOL    HW189337   6.642   7.106   3.668 -1.2775  0.3528 -0.0068
27429SOL    HW289338   6.618   7.239   3.601  1.0055 -0.0931 -1.8360
27430SOL     OW89339  11.446   0.204  12.298  0.8389 -0.3451  0.0980
27430SOL    HW189340  11.463   0.160  12.215 -0.9332 -0.7053 -0.1208
27430SOL    HW289341  11.417   0.135  12.357  0.1393  0.1830  0.3971
27431SOL     OW89342   2.144   3.396   6.618 -0.2335  0.0686 -0.1606
27431SOL    HW189343   2.202   3.390   6.694 -0.5785 -1.8465  0.0012
27431SOL    HW289344   2.162   3.482   6.580  0.6115  0.6824  1.5465
27432SOL     OW89345   4.953   1.249   6.660 -0.4199  0.6764  0.1434
27432SOL    HW189346   5.046   1.236   6.681  0.1456  0.4618 -2.1798
27432SOL    HW289347   4.944   1.344   6.653  0.0867  0.6561 -1.2371
27433SOL     OW89348   7.391   8.457  10.388  0.2381 -0.1458  0.3561
27433SOL    HW189349   7.357   8.444  10.300  0.4392 -0.2239  0.2920
27433SOL    HW289350   7.430   8.545  10.386  0.8719 -0.4282  0.1705
27434SOL     OW89351   0.741   2.359   9.201  0.1047 -0.4687  0.1623
27434SOL    HW189352   0.774   2.291   9.260 -1.2305 -1.6797 -0.4302
27434SOL    HW289353   0.777   2.440   9.236  0.9815 -1.3677  1.4527
27435SOL     OW89354   7.480   9.523  11.661  0.4773  0.3704  0.2955
27435SOL    HW189355   7.511   9.437  11.688  1.6198  0.2694 -1.1826
27435SOL    HW289356   7.533   9.584  11.712  0.4646  0.1924  0.5221
27436SOL     OW89357   3.795   4.652   2.413  0.1246 -0.2174 -0.1034
27436SOL    HW189358   3.766   4.576   2.363  0.0811  0.9052 -1.8629
27436SOL    HW289359   3.782   4.627   2.504  0.6707 -2.5299 -0.5879
27437SOL     OW89360   7.912   9.109   6.172 -0.0673  0.2941 -0.2158
27437SOL    HW189361   7.830   9.060   6.172 -0.3277  0.6842  1.0761
27437SOL    HW289362   7.955   9.084   6.091 -0.9388 -0.8019 -0.3643
27438SOL     OW89363   1.150   9.130   1.376  0.4143 -0.3821  0.4379
27438SOL    HW189364   1.116   9.041   1.379  0.7075 -0.5037  0.2230
27438SOL    HW289365   1.141   9.156   1.284 -0.5400  0.1580  0.6710
27439SOL     OW89366   0.639   3.790  10.069 -0.1982  0.0330 -0.2506
27439SOL    HW189367   0.572   3.807  10.136  1.8324 -0.7073  2.1318
27439SOL    HW289368   0.696   3.867  10.073  0.3745 -0.3702 -0.5879
27440SOL     OW89369   0.356   4.708   5.426  0.0606 -0.0388  0.6187
27440SOL    HW189370   0.308   4.656   5.490  0.7825 -1.5133  0.0219
27440SOL    HW289371   0.375   4.790   5.471  0.1499 -0.8483  2.1260
27441SOL     OW89372   4.326   1.153   9.517  0.3094 -0.4188 -0.4172
27441SOL    HW189373   4.256   1.207   9.554 -0.8029 -2.0952  0.0430
27441SOL    HW289374   4.315   1.159   9.422 -0.2744 -0.4306 -0.3517
27442SOL     OW89375   6.097   7.561   2.926 -0.2738 -0.0783  0.0966
27442SOL    HW189376   6.055   7.475   2.922  1.4763 -0.9492 -0.1115
27442SOL    HW289377   6.134   7.565   3.015  0.5890 -0.0135 -0.2575
27443SOL     OW89378   6.182   6.886   9.707  0.9761 -0.1871 -0.2804
27443SOL    HW189379   6.211   6.795   9.717  1.9037  0.1320  0.0747
27443SOL    HW289380   6.154   6.912   9.794  1.6711  0.1765 -0.1611
27444SOL     OW89381  10.775   1.995  10.496  0.2120 -0.2535 -0.9208
27444SOL    HW189382  10.830   1.949  10.431 -1.1696 -0.8791 -1.6809
27444SOL    HW289383  10.783   2.087  10.472 -2.5180 -0.6184 -3.9209
27445SOL     OW89384   6.474   2.185   2.496 -0.4401  0.5134 -0.7547
27445SOL    HW189385   6.393   2.135   2.499 -1.0616  1.4130 -1.8884
27445SOL    HW289386   6.496   2.200   2.588 -0.8948 -0.7486 -0.4191
27446SOL     OW89387  10.892   5.527   0.126 -0.4376 -0.7544  0.2791
27446SOL    HW189388  10.924   5.599   0.180  1.5539 -0.6849 -0.8931
27446SOL    HW289389  10.805   5.555   0.098 -0.1674  0.6693  0.7820
27447SOL     OW89390   4.812  11.549  10.257 -0.0334 -0.2500  0.1920
27447SOL    HW189391   4.869  11.608  10.207  0.3240  0.7056  1.6400
27447SOL    HW289392   4.868  11.475  10.279  0.0598 -0.2656 -0.0891
27448SOL     OW89393   5.244  10.040  10.389 -0.0254  0.7888 -0.2510
27448SOL    HW189394   5.219  10.124  10.426  0.7866  1.1580 -0.5084
27448SOL    HW289395   5.320  10.013  10.441  1.4038  1.5182 -1.8361
27449SOL     OW89396   1.570   9.334  10.268  0.1088  0.2361 -0.3358
27449SOL    HW189397   1.479   9.312  10.290  0.4725  0.0931  1.1049
27449SOL    HW289398   1.570   9.430  10.261  0.0018  0.2982  0.4416
27450SOL     OW89399   4.136  11.609   8.538 -0.2079 -0.1362  0.0687
27450SOL    HW189400   4.062  11.567   8.494 -0.5435 -0.3978  0.8558
27450SOL    HW289401   4.204  11.614   8.471 -0.2637 -1.6579 -0.1534
27451SOL     OW89402   5.429   5.158  11.467  0.3237 -0.5363  0.2304
27451SOL    HW189403   5.414   5.154  11.562  1.7069 -0.3026  0.4909
27451SOL    HW289404   5.435   5.066  11.440 -1.6592 -0.6479  0.0587
27452SOL     OW89405   8.958  12.400   5.984 -0.1554  0.0509 -0.0532
27452SOL    HW189406   8.990  12.485   5.955  0.4128  0.0443  0.5298
27452SOL    HW289407   9.032  12.361   6.030 -0.9875  0.0127  1.3064
27453SOL     OW89408   5.058   2.780   0.231 -0.4875  0.2044 -0.1303
27453SOL    HW189409   4.974   2.785   0.276 -0.1751 -0.7075  0.6094
27453SOL    HW289410   5.046   2.712   0.165  0.0569 -0.9837  0.9418
27454SOL     OW89411   0.118  10.572   7.642  0.6718  0.0507  0.5954
27454SOL    HW189412   0.072  10.516   7.704 -0.6414  0.7286  0.2608
27454SOL    HW289413   0.161  10.638   7.697  0.9866 -0.3944  0.8898
27455SOL     OW89414   0.228   8.009  11.403  0.1861  0.6037 -0.0405
27455SOL    HW189415   0.225   7.933  11.461  1.5139  1.5176  1.2999
27455SOL    HW289416   0.146   8.055  11.420 -0.0155  0.1821  0.1399
27456SOL     OW89417  10.355   9.827  11.539 -0.3803 -0.0271  0.3217
27456SOL    HW189418  10.355   9.734  11.516  2.1284 -0.4308  1.6095
27456SOL    HW289419  10.396   9.871  11.465  1.5005 -0.4324  1.0822
27457SOL     OW89420   7.608   2.773   0.381 -0.0419 -0.0306  0.2129
27457SOL    HW189421   7.592   2.681   0.398  0.4143  0.1415  1.6433
27457SOL    HW289422   7.702   2.778   0.362 -0.1204  0.1116 -0.1601
27458SOL     OW89423   7.713   9.177   3.452 -0.1008  0.0084  0.4627
27458SOL    HW189424   7.737   9.264   3.420  0.3463 -0.0262  0.6967
27458SOL    HW289425   7.691   9.128   3.373 -1.1087  0.5514  0.3855
27459SOL     OW89426   2.930   8.916   5.053  0.0344 -0.2564  0.2199
27459SOL    HW189427   2.880   8.857   4.997 -0.9247  0.2398  0.5230
27459SOL    HW289428   2.955   8.989   4.995 -0.4150 -0.0476  0.2865
27460SOL     OW89429   0.312   8.912  11.368 -0.5208 -0.4096 -0.0609
27460SOL    HW189430   0.229   8.949  11.399 -0.3372 -0.1450  0.1209
27460SOL    HW289431   0.379   8.972  11.401 -0.1567 -1.3054  0.9143
27461SOL     OW89432   4.211   5.488   4.628 -0.2431  0.0931 -0.6043
27461SOL    HW189433   4.277   5.492   4.559 -1.1368 -0.6802 -1.5362
27461SOL    HW289434   4.134   5.450   4.586 -0.0888 -2.7700  1.3569
27462SOL     OW89435   9.908   0.614   2.409 -0.1058  0.0979  0.2188
27462SOL    HW189436   9.828   0.615   2.462  0.0416 -1.3944  0.5062
27462SOL    HW289437   9.963   0.548   2.450  1.4295  1.3281  0.2130
27463SOL     OW89438   3.656   3.327   7.741  0.3211  0.0405 -0.2798
27463SOL    HW189439   3.713   3.403   7.739  0.7852 -0.2230  1.3404
27463SOL    HW289440   3.576   3.358   7.784 -0.3196  0.1239 -1.5094
27464SOL     OW89441   0.287   1.141  10.828  0.0493  0.1871 -0.8424
27464SOL    HW189442   0.374   1.131  10.788  0.9611  0.3376  0.9963
27464SOL    HW289443   0.305   1.151  10.921 -1.7035  3.6903 -0.7291
27465SOL     OW89444   3.926   2.577   4.097 -0.2572  0.3166  0.3609
27465SOL    HW189445   3.897   2.630   4.022  0.1012  0.8003  0.5618
27465SOL    HW289446   3.846   2.532   4.126 -0.1946 -0.6972 -0.9533
27466SOL     OW89447   0.517   7.804   8.632 -0.4443 -0.1550  0.3420
27466SOL    HW189448   0.494   7.786   8.541 -1.2130  0.0858  0.4820
27466SOL    HW289449   0.606   7.772   8.641 -0.4479 -0.4007 -0.4319
27467SOL     OW89450  10.405   4.734   4.098  0.4848  0.4396 -0.0990
27467SOL    HW189451  10.487   4.686   4.085 -0.0279 -0.8010  1.0022
27467SOL    HW289452  10.433   4.821   4.127  1.4187  0.4116 -0.8477
27468SOL     OW89453   9.173   1.753  10.028 -0.1524 -0.7462  0.3755
27468SOL    HW189454   9.258   1.775  10.066  0.2569 -1.7858  0.1072
27468SOL    HW289455   9.175   1.657  10.020 -1.5630 -0.8417  0.8704
27469SOL     OW89456   6.038   8.449   0.447  0.5022  0.6607 -0.4364
27469SOL    HW189457   6.003   8.381   0.389 -0.9715  0.2416  0.8868
27469SOL    HW289458   6.132   8.434   0.446  0.5569  0.7159 -2.7380
27470SOL     OW89459   5.375  11.069  10.115  0.2347  0.1792  0.1447
27470SOL    HW189460   5.423  11.108  10.041 -1.7306  0.7171 -0.9046
27470SOL    HW289461   5.357  11.142  10.173  0.2447  0.0616  0.2959
27471SOL     OW89462   1.898   9.091  11.455  0.4085 -0.2173 -0.6243
27471SOL    HW189463   1.895   9.048  11.370 -0.3602  0.3553 -0.8905
27471SOL    HW289464   1.829   9.156  11.452 -1.2833 -1.7858  1.3039
27472SOL     OW89465   9.098  10.597  10.337 -0.1278  0.0996 -0.2767
27472SOL    HW189466   9.110  10.636  10.424 -0.6465  0.9589 -0.5705
27472SOL    HW289467   9.156  10.649  10.281  1.1308 -1.2336 -0.2610
27473SOL     OW89468  11.813   0.913   8.918  0.8912  0.4899 -0.4095
27473SOL    HW189469  11.867   0.990   8.936  1.4775  0.6712 -2.6751
27473SOL    HW289470  11.780   0.887   9.004 -0.0912  3.8029  0.3671
27474SOL     OW89471   9.063   8.229   1.136 -0.0541 -0.4999 -0.5712
27474SOL    HW189472   8.987   8.195   1.183  0.1237 -0.7152 -0.4362
27474SOL    HW289473   9.045   8.323   1.126 -0.3539 -0.5574 -0.5780
27475SOL     OW89474  10.152   3.634  11.465  0.6886 -0.8395 -0.0227
27475SOL    HW189475  10.160   3.586  11.383 -2.2088 -0.2319 -0.7560
27475SOL    HW289476  10.082   3.697  11.450  1.6029  0.8711  2.2239
27476SOL     OW89477   2.836   2.001   1.036  0.5594  0.3802  0.3154
27476SOL    HW189478   2.864   2.084   0.996 -0.3808  1.0148  0.9487
27476SOL    HW289479   2.915   1.967   1.077  0.9150  1.0744  0.2289
27477SOL     OW89480  12.381   1.082   0.073  0.0796  0.6683 -0.1905
27477SOL    HW189481  12.431   1.008   0.108 -1.5286 -1.0224 -1.2389
27477SOL    HW289482  12.417   1.096  -0.015 -1.9082 -1.4066 -1.4742
27478SOL     OW89483   9.086   4.590  11.163  0.9052 -0.4072 -0.7590
27478SOL    HW189484   8.992   4.578  11.146  0.2598 -0.6800  2.3675
27478SOL    HW289485   9.111   4.514  11.217  2.2737  0.8750  0.5158
27479SOL     OW89486   0.165   4.163   6.575 -0.2956  0.4050  0.2777
27479SOL    HW189487   0.102   4.226   6.611 -1.5727 -0.5126 -0.2687
27479SOL    HW289488   0.243   4.215   6.555 -1.3673  1.8598 -0.3062
27480SOL     OW89489   4.971  12.330   6.773 -0.2217 -0.3370 -0.0985
27480SOL    HW189490   4.894  12.308   6.826 -0.6133  0.6012 -0.2560
27480SOL    HW289491   4.940  12.326   6.683 -0.6006  1.8073 -0.1079
27481SOL     OW89492   7.828   0.316   5.846  0.0325 -0.0929 -0.1450
27481SOL    HW189493   7.755   0.375   5.827  0.5795  0.8451  0.5782
27481SOL    HW289494   7.832   0.313   5.942  0.9821 -0.0775 -0.1727
27482SOL     OW89495   9.898   7.604   2.879  0.2915  0.4392  0.2977
27482SOL    HW189496   9.804   7.617   2.864  0.7901  3.2167 -1.2639
27482SOL    HW289497   9.917   7.517   2.842 -1.8770 -0.9341  2.1971
27483SOL     OW89498   0.543   5.932   7.433 -0.2589  0.4922 -0.2024
27483SOL    HW189499   0.486   5.871   7.479 -0.6115  0.5867 -0.5129
27483SOL    HW289500   0.485   5.983   7.377  0.1496  0.4366 -0.6892
27484SOL     OW89501   3.852   6.632   5.863 -0.0281 -0.5848 -0.3885
27484SOL    HW189502   3.791   6.665   5.929  0.2671 -0.5001 -0.1524
27484SOL    HW289503   3.843   6.692   5.790  0.2936 -0.1503 -0.0742
27485SOL     OW89504   3.865   0.961  10.745 -0.4681  0.5206 -0.0839
27485SOL    HW189505   3.787   0.939  10.694  0.1972  0.9652 -1.3323
27485SOL    HW289506   3.889   0.878  10.787 -0.6688 -0.0255 -1.0037
27486SOL     OW89507   4.677   0.558   4.429  0.3101 -0.4638  0.3092
27486SOL    HW189508   4.642   0.553   4.340  0.1679  0.9477  0.2649
27486SOL    HW289509   4.730   0.638   4.430 -0.4536  0.0731  1.7401
27487SOL     OW89510   0.697   2.092   7.717  0.0934 -0.1947  0.5367
27487SOL    HW189511   0.640   2.043   7.777 -1.6508 -2.0348 -2.3840
27487SOL    HW289512   0.729   2.026   7.656  1.7836  1.5717 -0.5792
27488SOL     OW89513   3.777  11.032   6.966  0.3843 -0.1616 -0.4006
27488SOL    HW189514   3.802  11.047   7.057 -0.3355  1.9198 -0.4937
27488SOL    HW289515   3.803  10.941   6.948 -0.0814 -0.8324  2.0577
27489SOL     OW89516  10.021   8.264  10.867 -0.4125 -0.1488  0.1467
27489SOL    HW189517  10.033   8.330  10.798 -1.4818 -0.6672 -0.5596
27489SOL    HW289518   9.985   8.314  10.940 -1.2764  0.0604 -0.4036
27490SOL     OW89519   3.706   1.919   7.911  0.9995  0.1249  0.1086
27490SOL    HW189520   3.680   1.942   8.000  0.7695 -0.6447  0.2429
27490SOL    HW289521   3.624   1.924   7.861  0.6837 -1.6027  0.3896
27491SOL     OW89522  10.111  10.704   4.401  0.3464  0.6033 -0.4523
27491SOL    HW189523  10.153  10.740   4.323 -0.0405 -0.3426 -1.1215
27491SOL    HW289524  10.077  10.619   4.373 -2.3121  1.4443 -0.0659
27492SOL     OW89525  12.249  11.516   8.704  0.1030 -0.0581 -0.3154
27492SOL    HW189526  12.310  11.582   8.738  0.2632 -0.2982 -0.1351
27492SOL    HW289527  12.275  11.505   8.612  0.5963 -0.4574 -0.1304
27493SOL     OW89528   9.227   3.133   5.865  0.0631 -0.0003  0.1944
27493SOL    HW189529   9.246   3.223   5.890  2.4680 -0.5228  0.4266
27493SOL    HW289530   9.151   3.109   5.919 -0.9633  1.9931 -0.2524
27494SOL     OW89531   0.825   0.805   7.038 -0.0444  0.1423 -0.1428
27494SOL    HW189532   0.734   0.777   7.024 -0.6469  1.4840  0.9184
27494SOL    HW289533   0.827   0.838   7.128  1.8261 -1.0373  0.3128
27495SOL     OW89534   7.784   7.120   1.817  0.0294 -0.2843 -0.1299
27495SOL    HW189535   7.714   7.115   1.752 -1.1076  2.2264  0.7794
27495SOL    HW289536   7.790   7.213   1.838  1.4873 -0.8266  2.1696
27496SOL     OW89537   0.510  10.816  12.518 -0.4328 -0.0521 -0.2890
27496SOL    HW189538   0.566  10.882  12.558 -0.1898  0.2769 -1.1555
27496SOL    HW289539   0.560  10.735  12.523  0.5898  0.4162 -1.9393
27497SOL     OW89540  11.065   3.176  10.793 -0.1969 -0.1848  0.3722
27497SOL    HW189541  11.139   3.164  10.853 -0.8083  0.0094  1.1813
27497SOL    HW289542  10.991   3.197  10.850 -0.1488  3.2171 -0.5723
27498SOL     OW89543   8.605   1.593   8.183  0.1633  0.2596 -0.3523
27498SOL    HW189544   8.608   1.553   8.097 -0.4597 -1.0779  0.2241
27498SOL    HW289545   8.647   1.678   8.171  1.6203 -0.5851 -1.6023
27499SOL     OW89546   7.528   5.255   2.095 -0.0313 -0.1286 -0.0565
27499SOL    HW189547   7.482   5.180   2.133 -1.9131  1.4286  0.9136
27499SOL    HW289548   7.572   5.297   2.169 -1.0937  1.1307 -0.1043
27500SOL     OW89549   4.090  11.755  10.605  0.3605  0.4548 -0.7022
27500SOL    HW189550   4.098  11.662  10.627 -3.4551  0.4802  1.7735
27500SOL    HW289551   4.137  11.801  10.674  0.3899  0.3815 -0.6738
27501SOL     OW89552   0.153   6.165   5.923 -0.1203 -0.3321  0.3268
27501SOL    HW189553   0.106   6.246   5.944  2.4414  0.6579  2.9765
27501SOL    HW289554   0.090   6.095   5.943 -1.2331  0.9482  1.5266
27502SOL     OW89555   9.058   9.461   8.609 -0.3096  0.2724 -0.0464
27502SOL    HW189556   9.034   9.544   8.651  1.2515  0.4442  0.5720
27502SOL    HW289557   9.032   9.472   8.518  0.0004  1.5025 -0.0042
27503SOL     OW89558   0.222   1.130   0.037 -0.1609 -0.5659  0.6429
27503SOL    HW189559   0.174   1.070   0.094 -1.1964 -0.0289  0.3637
27503SOL    HW289560   0.205   1.216   0.073  1.5403 -0.4185  1.2022
27504SOL     OW89561  11.934   0.065   6.402  0.2667 -0.0522 -0.3241
27504SOL    HW189562  11.862   0.120   6.431 -0.0936 -0.7032  0.0304
27504SOL    HW289563  11.985   0.048   6.481  0.3090 -0.3224 -0.4083
27505SOL     OW89564   0.326   0.301   4.720 -0.4359 -0.1714  0.3051
27505SOL    HW189565   0.329   0.384   4.672  1.6021  1.4178  2.9051
27505SOL    HW289566   0.333   0.234   4.652  1.9372  1.8897 -1.6931
27506SOL     OW89567  12.512   2.482   9.613 -0.4930 -0.3155  0.2688
27506SOL    HW189568  12.589   2.468   9.668  0.4564  0.8882 -0.6911
27506SOL    HW289569  12.471   2.561   9.647  0.9396  1.3068 -1.5743
27507SOL     OW89570   4.247  11.547   1.763 -0.4764 -0.0155 -0.0808
27507SOL    HW189571   4.252  11.629   1.714 -1.8351  0.3898  0.4174
27507SOL    HW289572   4.154  11.536   1.782 -0.2122 -1.2245  0.6251
27508SOL     OW89573   8.998  12.334   1.116  0.2966 -0.0597 -0.6130
27508SOL    HW189574   9.029  12.419   1.086  0.1195 -0.2202 -1.2656
27508SOL    HW289575   9.041  12.271   1.059 -1.1481 -0.2929 -1.5060
27509SOL     OW89576   9.349   3.397   7.139  0.2541 -1.1751 -0.0325
27509SOL    HW189577   9.401   3.475   7.123  1.1700 -1.4638  1.3367
27509SOL    HW289578   9.376   3.335   7.071  1.7163 -1.3057  0.6279
27510SOL     OW89579  12.221   6.044   3.232 -0.1795  0.0083 -0.5154
27510SOL    HW189580  12.261   5.965   3.268 -1.0315 -0.7588 -1.2046
27510SOL    HW289581  12.138   6.053   3.278 -0.8409 -0.4503 -1.5692
27511SOL     OW89582   6.767   9.216   8.099  0.1412  0.3623  0.2564
27511SOL    HW189583   6.770   9.131   8.144 -0.5043  0.6123  0.7845
27511SOL    HW289584   6.826   9.272   8.150  1.1381  0.0416 -0.5182
27512SOL     OW89585   5.724   4.733  11.848 -0.0719 -0.3043  0.4972
27512SOL    HW189586   5.675   4.795  11.903 -0.8093 -1.7282  1.4994
27512SOL    HW289587   5.664   4.661  11.833  0.2549 -0.1515 -1.9164
27513SOL     OW89588   8.289   4.974  12.206  0.5720  0.7352 -0.1263
27513SOL    HW189589   8.383   4.991  12.211  0.3643  2.0741 -0.3086
27513SOL    HW289590   8.273   4.907  12.272  1.6734  0.3876 -0.1929
27514SOL     OW89591  11.271   7.173   6.984 -0.4163  0.0470 -0.5709
27514SOL    HW189592  11.200   7.223   7.026  0.4687  2.7562 -2.0856
27514SOL    HW289593  11.349   7.195   7.035  0.2966  1.7219 -2.2886
27515SOL     OW89594   5.302  10.014   5.805  0.2890  0.2374  0.0732
27515SOL    HW189595   5.338  10.026   5.717  1.9394  0.7861  0.7693
27515SOL    HW289596   5.227   9.956   5.793  1.1418 -0.6162 -1.5656
27516SOL     OW89597   9.216   9.419   9.100 -0.4125  0.7475  0.5028
27516SOL    HW189598   9.171   9.491   9.054 -0.5756 -0.8532 -2.0431
27516SOL    HW289599   9.147   9.372   9.145 -0.4312  1.6102  1.4065
27517SOL     OW89600   7.192   9.436   7.251 -0.8886  0.0318  0.8531
27517SOL    HW189601   7.164   9.523   7.281  0.2312  0.8271 -0.2812
27517SOL    HW289602   7.210   9.448   7.158 -0.2893 -1.3219  0.7791
27518SOL     OW89603   8.992   7.391   6.274 -0.5412  0.0895 -0.1412
27518SOL    HW189604   9.080   7.357   6.257  0.4386  1.7491  1.3052
27518SOL    HW289605   9.004   7.458   6.341 -2.9183  0.4159  0.0618
27519SOL     OW89606   6.241   0.812  11.361 -0.3963 -0.3012  0.0891
27519SOL    HW189607   6.226   0.797  11.267  0.2670  0.8910 -0.2236
27519SOL    HW289608   6.330   0.847  11.366  1.0663 -3.7088  1.5221
27520SOL     OW89609  11.673  10.049   5.964  0.0801  0.0126 -0.5487
27520SOL    HW189610  11.731  10.105   5.912  0.6754  0.9635  1.0621
27520SOL    HW289611  11.706   9.961   5.949  0.5923  0.3148 -1.3234
27521SOL     OW89612  11.599   7.767   3.421  0.5423  0.0703 -0.5967
27521SOL    HW189613  11.547   7.721   3.355 -0.6882 -0.1393  0.4927
27521SOL    HW289614  11.543   7.837   3.452  0.7379 -0.3832  0.8692
27522SOL     OW89615   6.176   9.523  11.508  0.2740  0.4438  0.5334
27522SOL    HW189616   6.186   9.617  11.496  0.4174  0.2354 -1.2327
27522SOL    HW289617   6.195   9.486  11.422 -1.8830 -1.0360  0.6208
27523SOL     OW89618   0.983   7.063   4.233  0.4928 -0.2823  0.2310
27523SOL    HW189619   0.965   7.062   4.327 -0.1152 -0.7984  0.1087
27523SOL    HW289620   0.907   7.106   4.195  0.2595 -1.0170 -0.1313
27524SOL     OW89621   8.489   1.451   4.462  0.2213 -0.2636 -0.6551
27524SOL    HW189622   8.532   1.436   4.547  0.4265  0.4893 -0.6184
27524SOL    HW289623   8.534   1.528   4.426 -1.5708  1.0369 -0.2672
27525SOL     OW89624   6.588   0.797   2.081  0.7412  0.2010 -0.2588
27525SOL    HW189625   6.558   0.747   2.157 -1.3157 -1.5713 -2.0731
27525SOL    HW289626   6.650   0.738   2.037  0.5102  0.4184 -0.8877
27526SOL     OW89627  12.173   1.413   2.650 -0.0540  0.4090 -0.6628
27526SOL    HW189628  12.175   1.427   2.745 -2.1174 -0.2592 -0.4730
27526SOL    HW289629  12.220   1.331   2.637 -1.0232 -0.2691 -0.0226
27527SOL     OW89630   1.325   1.397   4.198 -0.0858 -0.3056  0.2609
27527SOL    HW189631   1.378   1.320   4.219 -1.7144 -1.4994  0.2057
27527SOL    HW289632   1.245   1.386   4.249 -0.3349  1.4044  0.3015
27528SOL     OW89633  10.739   4.253  10.767 -1.2044  0.2253 -0.2303
27528SOL    HW189634  10.698   4.168  10.779  1.0108 -0.6642  1.8006
27528SOL    HW289635  10.783   4.247  10.682 -0.1238 -1.1228  0.3933
27529SOL     OW89636   0.269   3.460   6.054 -0.3287  0.1980 -0.3684
27529SOL    HW189637   0.299   3.369   6.054  1.3614  0.6961  1.3129
27529SOL    HW289638   0.349   3.511   6.036 -0.6565  1.4606  1.5608
27530SOL     OW89639   6.432   8.394   2.786 -0.6071  0.4116  0.0797
27530SOL    HW189640   6.416   8.302   2.766  0.7113  0.0826  0.4552
27530SOL    HW289641   6.480   8.427   2.711 -1.3216  0.8786 -0.1807
27531SOL     OW89642   6.775  10.858   6.219 -0.1946  0.0481  0.0238
27531SOL    HW189643   6.812  10.773   6.196  1.2416  0.8178 -0.6340
27531SOL    HW289644   6.752  10.897   6.135 -2.0644 -0.1724  0.3787
27532SOL     OW89645  11.223  11.380   3.676 -0.0770 -0.0869 -0.2644
27532SOL    HW189646  11.176  11.436   3.737 -0.2144 -0.5054  0.0186
27532SOL    HW289647  11.198  11.291   3.701 -1.1848 -0.2402 -1.7630
27533SOL     OW89648   0.612   2.896  11.541  0.1862 -0.0395 -0.1898
27533SOL    HW189649   0.644   2.815  11.501 -0.2319  0.6058 -1.9191
27533SOL    HW289650   0.666   2.965  11.503  0.5779  0.5086  1.3120
27534SOL     OW89651   6.430   9.970   0.042 -0.3273 -0.5581  0.0486
27534SOL    HW189652   6.489   9.908   0.084  0.8675 -1.0551 -2.2201
27534SOL    HW289653   6.344   9.930   0.049  0.2066 -1.7533 -0.0875
27535SOL     OW89654   4.476   8.234  11.442 -0.1797  0.1795 -0.2618
27535SOL    HW189655   4.412   8.301  11.466 -1.1451 -0.7924 -0.0032
27535SOL    HW289656   4.482   8.238  11.347 -0.2966  0.5715 -0.2521
27536SOL     OW89657   8.790   4.346  12.001 -0.1779 -0.0816 -0.1528
27536SOL    HW189658   8.780   4.251  12.004 -1.0141  0.0254  0.5597
27536SOL    HW289659   8.744   4.378  12.078  0.6804  0.8608 -0.0167
27537SOL     OW89660   5.771   0.154   6.394  0.1695 -0.0796 -0.1062
27537SOL    HW189661   5.718   0.109   6.329 -0.2540  1.7792 -1.1137
27537SOL    HW289662   5.736   0.125   6.479 -0.5491 -1.0546 -0.7233
27538SOL     OW89663  12.507   1.767   1.784 -0.0967  0.2902  0.0884
27538SOL    HW189664  12.586   1.718   1.762 -1.0319 -0.4929 -1.7277
27538SOL    HW289665  12.436   1.716   1.746 -1.2948  2.0483 -0.1408
27539SOL     OW89666   2.071   9.524   5.126  0.4799  0.1790  0.1694
27539SOL    HW189667   2.039   9.456   5.066  0.9810  0.4659 -0.4299
27539SOL    HW289668   2.001   9.588   5.128  0.4069  0.1085 -0.0218
27540SOL     OW89669   1.464   0.540   6.323  0.2860 -0.5928 -0.1091
27540SOL    HW189670   1.375   0.572   6.340  0.7080  0.8599 -0.4590
27540SOL    HW289671   1.458   0.445   6.334 -1.2496 -0.4989  0.1168
27541SOL     OW89672   2.697  11.091   5.168 -0.4132 -0.3275 -0.0840
27541SOL    HW189673   2.734  11.131   5.089  1.5295  1.9685  1.8529
27541SOL    HW289674   2.768  11.037   5.203 -0.8822 -0.4452  0.7002
27542SOL     OW89675   5.132   6.455   4.985  0.3629 -0.0359 -0.6057
27542SOL    HW189676   5.151   6.548   4.976 -0.2901  0.0775 -0.8382
27542SOL    HW289677   5.107   6.427   4.897 -1.0943 -0.0482 -0.2125
27543SOL     OW89678   4.283   0.955   9.726 -0.0093 -0.3570  0.0214
27543SOL    HW189679   4.308   1.026   9.667 -0.6138 -1.6103 -1.8369
27543SOL    HW289680   4.190   0.939   9.707 -0.1845 -0.9050  1.2259
27544SOL     OW89681  10.194   4.564   9.322  0.2093  0.0684  0.0041
27544SOL    HW189682  10.179   4.620   9.246  0.5852 -0.9331 -0.8121
27544SOL    HW289683  10.174   4.621   9.397 -1.3602  0.7019 -0.8521
27545SOL     OW89684   6.931   9.640   8.330 -0.0125 -0.1495 -0.0740
27545SOL    HW189685   6.925   9.666   8.422  2.9987 -1.2316  0.5369
27545SOL    HW289686   6.859   9.578   8.318 -2.1503  2.0034  0.7018
27546SOL     OW89687   1.236  12.528  10.273 -0.0386 -0.1737  0.2636
27546SOL    HW189688   1.291  12.452  10.259 -0.1575 -0.4808  1.3904
27546SOL    HW289689   1.297  12.602  10.272  0.3720 -0.4808  1.1864
27547SOL     OW89690  11.267   7.501   6.239  0.0434 -0.8578 -0.3777
27547SOL    HW189691  11.217   7.424   6.266  1.3044 -2.4946 -2.4078
27547SOL    HW289692  11.357   7.469   6.229  0.5917  0.8632 -1.3109
27548SOL     OW89693  11.493   5.813   4.876 -0.3092  0.0423 -0.3569
27548SOL    HW189694  11.402   5.831   4.853 -1.2161 -1.7094  1.4984
27548SOL    HW289695  11.496   5.718   4.889  1.5182  0.1866  0.6550
27549SOL     OW89696  11.767   0.608   8.979 -0.5527 -0.2470 -0.0546
27549SOL    HW189697  11.755   0.686   9.033 -0.2956  0.0935 -0.4851
27549SOL    HW289698  11.821   0.550   9.032 -0.1154  0.1766 -0.0345
27550SOL     OW89699   3.378   4.824   8.763 -0.2033 -0.3070 -0.3163
27550SOL    HW189700   3.364   4.855   8.853  0.6848  1.3794 -0.7252
27550SOL    HW289701   3.459   4.774   8.767 -0.2667 -0.3958 -0.1365
27551SOL     OW89702   6.568   1.334   7.720 -0.2467 -0.0750 -0.1341
27551SOL    HW189703   6.484   1.339   7.766  0.2157  2.1893  0.6205
27551SOL    HW289704   6.619   1.407   7.757  1.3796 -0.2761 -1.8690
27552SOL     OW89705   5.057  10.948  10.438  0.1682  0.2321  0.3613
27552SOL    HW189706   5.089  10.998  10.513  2.1952 -0.3564 -0.0303
27552SOL    HW289707   5.124  10.881  10.424 -0.4902 -0.0949 -1.5520
27553SOL     OW89708   6.005  12.470   5.844 -0.2708 -0.2831  0.1681
27553SOL    HW189709   6.079  12.458   5.786  0.2660  1.4919  0.4027
27553SOL    HW289710   5.928  12.464   5.787  0.0992 -1.1439 -0.2505
27554SOL     OW89711   7.845   8.745   2.520 -0.0572 -0.3666  0.4521
27554SOL    HW189712   7.828   8.698   2.601  0.5126  1.1154  1.4755
27554SOL    HW289713   7.806   8.832   2.533  0.2352 -0.0266 -0.7619
27555SOL     OW89714  10.372  11.467   2.185  0.2591  0.7648 -0.6358
27555SOL    HW189715  10.369  11.373   2.201  0.3932  0.7786 -0.5352
27555SOL    HW289716  10.295  11.502   2.230  0.2346  0.7098 -0.6351
27556SOL     OW89717   3.115   7.800   2.103 -0.1764  0.3208 -0.2106
27556SOL    HW189718   3.134   7.861   2.175  1.4018 -2.3221  1.8127
27556SOL    HW289719   3.181   7.820   2.037  0.2125  0.9077  0.3419
27557SOL     OW89720   8.745  10.371  10.674 -0.6051 -0.1015 -0.3142
27557SOL    HW189721   8.815  10.342  10.733 -1.1709 -0.0664  0.3758
27557SOL    HW289722   8.757  10.465  10.666 -2.3732  0.4552  2.2620
27558SOL     OW89723   7.714  10.123   2.207  0.5173 -0.1592 -0.5198
27558SOL    HW189724   7.637  10.174   2.183  0.8448  1.0041  0.7199
27558SOL    HW289725   7.776  10.139   2.136  0.1293  0.0908 -0.8073
27559SOL     OW89726   7.508   5.378   3.416 -0.0162  0.0347 -0.4769
27559SOL    HW189727   7.462   5.375   3.500  1.3959  0.0761  0.3213
27559SOL    HW289728   7.438   5.384   3.351 -1.1039  1.0321  0.7389
27560SOL     OW89729   1.386  10.831   0.769 -0.6401 -0.2811 -0.9267
27560SOL    HW189730   1.438  10.903   0.733  1.7530  0.6972  3.6740
27560SOL    HW289731   1.428  10.752   0.735  0.5152  0.5324 -1.4613
27561SOL     OW89732   8.475   3.151   2.122  0.2851 -0.0562  0.0956
27561SOL    HW189733   8.516   3.166   2.036 -0.1710  3.4280  0.3113
27561SOL    HW289734   8.549   3.135   2.181  0.7912 -0.3026 -0.5905
27562SOL     OW89735   9.088   1.142   9.214 -0.1120  0.1113  0.2441
27562SOL    HW189736   9.014   1.108   9.163 -0.3407  1.2058 -0.2073
27562SOL    HW289737   9.072   1.237   9.217  1.6752  0.4720 -0.5307
27563SOL     OW89738   6.280   7.782   6.675  0.3016  0.2694  0.1618
27563SOL    HW189739   6.288   7.788   6.770 -1.4064  3.4889  0.2404
27563SOL    HW289740   6.360   7.824   6.641 -0.1588  1.2674  0.2711
27564SOL     OW89741   6.764   2.868   9.938 -0.3423 -0.2761 -0.4552
27564SOL    HW189742   6.811   2.820  10.006 -1.1605 -0.0262  0.3042
27564SOL    HW289743   6.692   2.811   9.913 -0.5367 -0.0048 -0.5131
27565SOL     OW89744   9.616   7.758   1.312  0.4434 -0.1490 -0.0743
27565SOL    HW189745   9.685   7.792   1.255  0.0369 -0.4186 -0.7370
27565SOL    HW289746   9.547   7.729   1.252  0.5930 -1.7306  0.4823
27566SOL     OW89747   4.960   9.681   5.430 -0.4039  0.1663 -0.4778
27566SOL    HW189748   4.871   9.703   5.405 -0.6446 -1.8290 -1.5481
27566SOL    HW289749   4.994   9.630   5.357  1.0561 -0.4657  0.5916
27567SOL     OW89750   5.687   2.643   5.098 -0.2568 -0.4026  0.0730
27567SOL    HW189751   5.604   2.625   5.054  0.7874 -0.2864 -2.0832
27567SOL    HW289752   5.728   2.710   5.044  1.5402 -0.9711  0.6683
27568SOL     OW89753  10.467   5.118   6.216  0.3727  0.1054  0.2220
27568SOL    HW189754  10.434   5.029   6.223 -0.3427  0.4315  1.4227
27568SOL    HW289755  10.388   5.172   6.205  0.7143  0.6641  0.4231
27569SOL     OW89756  11.565   6.857   5.211  0.1612  0.2560 -0.4389
27569SOL    HW189757  11.549   6.765   5.233  2.8780 -0.5136 -1.2630
27569SOL    HW289758  11.622   6.888   5.281 -0.8843  1.4249 -0.0682
27570SOL     OW89759   7.520  11.449   4.828 -0.4070  0.4413 -0.1022
27570SOL    HW189760   7.523  11.396   4.748 -1.8405  0.8393 -0.4564
27570SOL    HW289761   7.489  11.535   4.798 -0.7979  0.6456  0.8478
27571SOL     OW89762   3.723   5.935   9.621  0.2626 -0.1148 -0.2381
27571SOL    HW189763   3.640   5.902   9.656 -0.9397  1.7761 -1.1836
27571SOL    HW289764   3.720   5.914   9.528  0.1147  1.3604 -0.5807
27572SOL     OW89765   0.577   2.681   1.542 -0.0315  0.5408 -0.1390
27572SOL    HW189766   0.567   2.597   1.498  0.2509 -0.4084  1.5354
27572SOL    HW289767   0.525   2.673   1.623  1.2394  1.3824  0.8055
27573SOL     OW89768  11.262   4.434   5.904  0.2871 -0.1098 -0.5413
27573SOL    HW189769  11.244   4.428   5.998  0.1200 -0.9838 -0.6192
27573SOL    HW289770  11.269   4.528   5.886 -0.2903  0.0827  0.2275
27574SOL     OW89771   4.930   3.470   1.941  0.1068  0.8305 -0.5417
27574SOL    HW189772   4.840   3.498   1.960  0.3612  0.9294  0.5809
27574SOL    HW289773   4.975   3.552   1.918 -0.1197  0.7599 -1.2561
27575SOL     OW89774   2.409  11.210   5.732 -0.5559  0.1147 -0.0492
27575SOL    HW189775   2.338  11.148   5.751 -0.3741  0.2496  1.1947
27575SOL    HW289776   2.369  11.279   5.680 -1.1517 -0.2067 -0.0182
27576SOL     OW89777   3.046   6.423   7.357 -0.2256  0.0803 -0.1617
27576SOL    HW189778   3.030   6.492   7.293 -0.3301 -0.2601 -0.5046
27576SOL    HW289779   2.970   6.428   7.416 -0.4777 -0.0613 -0.4728
27577SOL     OW89780   9.844   6.066   3.975  0.0312 -0.4042  0.0235
27577SOL    HW189781   9.919   6.064   4.034  0.5028 -0.6507 -0.5782
27577SOL    HW289782   9.882   6.067   3.888 -0.6240  1.7755 -0.2814
27578SOL     OW89783   9.363   8.722   8.684 -0.1874 -0.1035  0.0803
27578SOL    HW189784   9.381   8.665   8.759 -1.1995 -0.2820  0.1965
27578SOL    HW289785   9.410   8.803   8.705  2.8563 -1.4670 -0.9700
27579SOL     OW89786   5.365   0.289   6.837 -0.2467  0.2609  0.0831
27579SOL    HW189787   5.291   0.268   6.781  0.3523 -0.6003 -0.4067
27579SOL    HW289788   5.389   0.379   6.813 -0.1866  0.0103 -0.8362
27580SOL     OW89789   8.757   3.563   8.438  0.1639  0.8673 -0.2896
27580SOL    HW189790   8.679   3.508   8.430  0.3287  0.3883  1.1502
27580SOL    HW289791   8.816   3.529   8.371 -0.4499  0.5304 -0.6803
27581SOL     OW89792  10.595   7.920   3.339  0.4415 -0.6734 -0.2913
27581SOL    HW189793  10.564   7.862   3.269 -0.3215  0.6430 -1.0695
27581SOL    HW289794  10.630   7.996   3.294  1.8103 -0.6677  0.7095
27582SOL     OW89795  12.115   7.984  10.426 -0.0841  0.2583 -0.3415
27582SOL    HW189796  12.123   8.039  10.348  0.7016 -1.6227 -1.6654
27582SOL    HW289797  12.038   7.930  10.410  0.0876 -0.1548  0.1823
27583SOL     OW89798   9.147   2.809   5.104 -0.4107  0.1706 -0.2506
27583SOL    HW189799   9.083   2.746   5.070  0.0784 -0.2661 -0.3800
27583SOL    HW289800   9.231   2.764   5.095 -0.1217  0.6132  0.2156
27584SOL     OW89801   0.803   2.102   2.348  0.1938  0.3832  0.0717
27584SOL    HW189802   0.869   2.170   2.364 -0.3698  0.9770 -0.0896
27584SOL    HW289803   0.766   2.126   2.263  1.3053 -1.2144 -0.9175
27585SOL     OW89804   4.598   7.280  12.149 -0.7680 -0.4404 -0.7115
27585SOL    HW189805   4.524   7.283  12.211 -0.8960 -0.2645 -0.8725
27585SOL    HW289806   4.569   7.332  12.075 -0.2003  0.2331 -0.4733
27586SOL     OW89807   6.243   5.497   3.771 -0.2136 -0.0059  0.1662
27586SOL    HW189808   6.294   5.430   3.726  0.2614  1.4856 -1.6103
27586SOL    HW289809   6.160   5.500   3.725 -1.0889 -0.8449  1.6235
27587SOL     OW89810   9.489   3.905  10.019  0.2638 -0.1077 -0.2550
27587SOL    HW189811   9.534   3.848   9.957  0.4931 -0.4580  0.2241
27587SOL    HW289812   9.456   3.845  10.086 -1.0635  0.1270 -0.6807
27588SOL     OW89813   3.557   9.437   5.794  0.4923 -0.1348  0.1055
27588SOL    HW189814   3.466   9.452   5.768  1.2684  1.1945 -2.1074
27588SOL    HW289815   3.591   9.376   5.729  1.7169  0.9575 -0.3164
27589SOL     OW89816   4.710  10.543   2.906 -0.3124  0.5387 -0.0209
27589SOL    HW189817   4.703  10.564   2.812 -2.3741  0.5482  0.0816
27589SOL    HW289818   4.622  10.560   2.940 -0.2134 -1.5798  1.4752
27590SOL     OW89819   9.967   7.967   8.925  0.1545  0.5369  0.7805
27590SOL    HW189820   9.884   8.015   8.926 -0.0574  0.1694  1.3475
27590SOL    HW289821  10.002   7.977   9.014  1.0109  1.1803  0.3917
27591SOL     OW89822   9.811   4.240  10.057 -0.4607 -0.1542  0.3047
27591SOL    HW189823   9.833   4.237   9.964 -1.0096  0.1433  0.1552
27591SOL    HW289824   9.879   4.294  10.097  0.1192 -0.7866  0.1840
27592SOL     OW89825   2.286  11.366  11.956 -0.5344 -0.4314  0.1342
27592SOL    HW189826   2.303  11.374  11.862 -0.0985  0.1121  0.2517
27592SOL    HW289827   2.306  11.274  11.976  0.8148 -0.2070 -0.0355
27593SOL     OW89828   3.602   8.369   8.452 -0.7694 -0.2485  0.5977
27593SOL    HW189829   3.616   8.276   8.436  1.6066  0.1989 -0.3745
27593SOL    HW289830   3.548   8.398   8.378  0.7047 -0.3985 -0.5988
27594SOL     OW89831   2.072   7.754   3.748  0.2211 -0.0796 -0.0648
27594SOL    HW189832   1.980   7.776   3.762 -0.0628 -1.5562  0.5702
27594SOL    HW289833   2.119   7.837   3.763 -0.8784  0.3877  1.0023
27595SOL     OW89834   1.273   9.227   9.537  0.3128  0.2509  0.0814
27595SOL    HW189835   1.233   9.223   9.624 -0.4119 -0.0955 -0.2596
27595SOL    HW289836   1.225   9.162   9.486 -0.0415  1.2408 -0.8896
27596SOL     OW89837   8.683   6.616   0.240 -0.3128  0.3642  0.4943
27596SOL    HW189838   8.708   6.636   0.150 -0.5318 -0.1262  0.3201
27596SOL    HW289839   8.756   6.563   0.274 -0.5797 -0.1017  0.3527
27597SOL     OW89840   3.306   0.430   9.201  0.5667 -0.0244  0.1031
27597SOL    HW189841   3.385   0.384   9.230  0.2218 -1.6133 -1.2503
27597SOL    HW289842   3.246   0.425   9.275  1.4446  0.4466  0.8482
27598SOL     OW89843   7.087   8.801   1.429 -0.1914 -0.4569 -0.5275
27598SOL    HW189844   7.026   8.733   1.403 -0.1216 -0.4459 -0.7187
27598SOL    HW289845   7.083   8.801   1.525 -1.3419  0.3157 -0.5629
27599SOL     OW89846   7.286   3.270   4.389  0.5481 -0.0150  0.5467
27599SOL    HW189847   7.209   3.213   4.396  1.4428 -1.7246 -1.9990
27599SOL    HW289848   7.353   3.226   4.440  0.3716  0.4787  1.2122
27600SOL     OW89849   1.670   3.318  11.798  0.3743 -0.0908 -0.0559
27600SOL    HW189850   1.663   3.222  11.799  1.8139 -0.2161 -0.4701
27600SOL    HW289851   1.763   3.335  11.784  0.1559  1.3801  0.1790
27601SOL     OW89852   0.544   3.330   1.592 -0.2751 -0.4378 -0.2893
27601SOL    HW189853   0.448   3.325   1.587 -0.3460  0.8736 -0.6748
27601SOL    HW289854   0.560   3.390   1.665  0.2295 -0.2130 -0.5820
27602SOL     OW89855  11.973   2.786   7.225 -0.8678 -0.3905  0.4391
27602SOL    HW189856  11.884   2.797   7.193 -1.3408  0.3992  1.9283
27602SOL    HW289857  12.013   2.873   7.214 -0.1408 -0.8380 -0.5820
27603SOL     OW89858   3.995   9.950   6.317 -0.0038  0.2856 -0.0905
27603SOL    HW189859   4.038   9.938   6.232  0.3465  0.8782 -0.0026
27603SOL    HW289860   3.949  10.033   6.309 -1.1808 -0.3584 -0.1912
27604SOL     OW89861   3.744  10.118  10.423 -0.2900 -0.6289  0.0651
27604SOL    HW189862   3.824  10.131  10.373  0.2968 -1.7322  0.6758
27604SOL    HW289863   3.767  10.052  10.489 -1.6878 -0.9540  0.2707
27605SOL     OW89864   9.925   8.806   7.433 -0.2267 -0.0934 -0.2997
27605SOL    HW189865   9.905   8.795   7.340 -0.0008 -0.4246 -0.3107
27605SOL    HW289866   9.961   8.721   7.460 -1.2584 -0.3540  0.3396
27606SOL     OW89867   3.207   3.784   7.467  0.3160  0.5070  0.1283
27606SOL    HW189868   3.289   3.786   7.418  0.9330 -0.8245  1.0323
27606SOL    HW289869   3.205   3.696   7.505 -0.9031  0.9683  1.1807
27607SOL     OW89870   5.918   6.822  12.500  0.2487  0.0884  0.2888
27607SOL    HW189871   5.935   6.730  12.482 -0.2547  0.3200 -1.6472
27607SOL    HW289872   5.991   6.850  12.555  2.2935 -0.6770 -1.8448
27608SOL     OW89873   1.455   0.510   9.596 -0.5127  0.2928  0.3463
27608SOL    HW189874   1.459   0.424   9.639  1.2710  1.1399  1.9752
27608SOL    HW289875   1.520   0.563   9.641 -1.0631  2.3216 -1.1119
27609SOL     OW89876   1.725   5.451   8.429 -0.0032  0.0423  0.3376
27609SOL    HW189877   1.688   5.478   8.345  2.4622  0.8059 -0.6155
27609SOL    HW289878   1.794   5.388   8.405  1.2569  0.8391  1.6961
27610SOL     OW89879  10.853   1.932   3.410 -0.3828  0.0310 -0.4000
27610SOL    HW189880  10.835   1.863   3.474 -0.8906 -0.4233 -1.0190
27610SOL    HW289881  10.938   1.909   3.373 -1.1954 -1.1108 -1.6539
27611SOL     OW89882  11.408  10.327  10.551  0.1373 -0.3632  0.0015
27611SOL    HW189883  11.410  10.420  10.574 -0.1742 -0.4146  0.2432
27611SOL    HW289884  11.403  10.282  10.635 -0.3470 -0.5735 -0.1356
27612SOL     OW89885   8.109   2.690   7.819 -0.7136 -0.0907 -0.4754
27612SOL    HW189886   8.131   2.717   7.908 -1.1051 -1.2444 -0.0120
27612SOL    HW289887   8.194   2.675   7.777 -0.5067 -2.1046  0.5378
27613SOL     OW89888   7.147   2.319  10.672  0.1286  0.3372 -0.3864
27613SOL    HW189889   7.171   2.226  10.673  0.0805  0.3284 -0.1453
27613SOL    HW289890   7.229   2.364  10.649  0.2958  0.2793  0.0850
27614SOL     OW89891   7.119   2.674  10.675 -0.4528 -0.1773  0.0235
27614SOL    HW189892   7.028   2.651  10.659 -0.3034 -0.4904 -0.4187
27614SOL    HW289893   7.139   2.740  10.608  0.4361 -2.1289 -1.7513
27615SOL     OW89894   7.162   0.053  11.219 -0.3804 -0.1721 -0.5927
27615SOL    HW189895   7.129  -0.028  11.256 -1.5689  0.2158 -0.7484
27615SOL    HW289896   7.140   0.048  11.126 -0.7586  0.4593 -0.5441
27616SOL     OW89897   7.768   4.790   2.383  0.3575 -0.2654 -0.0873
27616SOL    HW189898   7.811   4.807   2.467 -0.2684 -0.4656  0.2843
27616SOL    HW289899   7.839   4.773   2.322  0.8503  0.5369  0.2500
27617SOL     OW89900  10.038   4.186   1.384 -0.4719 -0.1538  0.3693
27617SOL    HW189901  10.052   4.211   1.476 -0.0141  0.9613  0.0114
27617SOL    HW289902  10.124   4.155   1.354  0.1202  2.1020 -0.4440
27618SOL     OW89903   9.520   8.850   9.356 -0.0942  0.3573 -0.6617
27618SOL    HW189904   9.451   8.871   9.419  0.8313  1.4876  0.0135
27618SOL    HW289905   9.473   8.830   9.275 -1.2183  0.9295 -0.1764
27619SOL     OW89906   3.502   3.816   4.059  0.4883 -0.0728 -0.1084
27619SOL    HW189907   3.546   3.853   4.136  0.0907  0.7305 -0.2559
27619SOL    HW289908   3.574   3.793   4.000  0.7623  0.0544  0.1670
27620SOL     OW89909   0.015   3.550   5.282 -0.1537  0.2540 -0.2838
27620SOL    HW189910   0.076   3.483   5.250 -0.7637  0.6439 -2.3757
27620SOL    HW289911   0.071   3.619   5.317  0.5006 -0.8942  1.0349
27621SOL     OW89912   7.072   6.533   3.012 -0.2388 -0.1515 -0.3059
27621SOL    HW189913   7.019   6.587   3.071 -0.3003 -1.1523  0.5837
27621SOL    HW289914   7.162   6.554   3.035 -0.2599 -0.7736  0.3978
27622SOL     OW89915   4.901   5.571   0.022 -0.4224  0.4186  0.4738
27622SOL    HW189916   4.987   5.588  -0.016  1.2452 -1.9223  2.8968
27622SOL    HW289917   4.913   5.494   0.077 -4.6564 -1.5893 -0.9439
27623SOL     OW89918   4.904  12.062   5.759 -0.2366 -0.3899 -0.2197
27623SOL    HW189919   4.979  12.102   5.717 -1.4318  1.0714 -1.0626
27623SOL    HW289920   4.906  12.093   5.849  0.6683 -1.1324  0.0336
27624SOL     OW89921   7.218   8.246   8.851 -0.1859  0.3823  0.1168
27624SOL    HW189922   7.293   8.241   8.793  0.1669  0.4288  0.5594
27624SOL    HW289923   7.256   8.252   8.939 -0.7100  0.1212  0.3673
27625SOL     OW89924   3.486   3.244   3.679 -1.1189 -0.3274  0.4169
27625SOL    HW189925   3.542   3.319   3.657 -1.5054 -0.2589 -0.3679
27625SOL    HW289926   3.524   3.208   3.759  0.8259 -1.0442 -0.7493
27626SOL     OW89927  11.122   4.361   1.537 -0.0933 -0.0508 -0.0124
27626SOL    HW189928  11.138   4.303   1.462 -0.8012 -0.3762  0.0843
27626SOL    HW289929  11.081   4.305   1.603  3.3808 -0.5974  1.9173
27627SOL     OW89930  12.439   4.039   4.624  0.1738  0.3138 -0.1587
27627SOL    HW189931  12.524   4.074   4.597  0.5243 -0.5091 -0.1528
27627SOL    HW289932  12.414   3.979   4.553 -0.1672  0.1719  0.0763
27628SOL     OW89933  11.168   7.469   8.947  0.9741  0.0078 -0.0594
27628SOL    HW189934  11.223   7.451   8.871  1.8953  0.0663  0.5741
27628SOL    HW289935  11.136   7.383   8.974 -1.1938  0.1776 -1.8089
27629SOL     OW89936   1.068   6.624   1.487  0.2017 -0.0655 -0.1080
27629SOL    HW189937   0.975   6.641   1.473  0.1500 -0.9363 -0.9773
27629SOL    HW289938   1.103   6.706   1.520 -0.9014  0.2312  0.3903
27630SOL     OW89939   8.234  10.830   6.026 -0.1998  0.4322 -0.0006
27630SOL    HW189940   8.327  10.849   6.029 -0.2831  0.8193  0.1097
27630SOL    HW289941   8.192  10.905   6.068 -0.3009 -1.7416  4.4533
27631SOL     OW89942   9.905   8.939   2.536 -0.3343 -0.7376 -0.2433
27631SOL    HW189943   9.945   8.968   2.618  1.4046 -0.2451 -1.2242
27631SOL    HW289944   9.842   9.008   2.514  0.2509 -0.1336 -0.0638
27632SOL     OW89945   6.056  11.644   0.112  0.3837 -0.5162 -0.3923
27632SOL    HW189946   6.043  11.737   0.129 -0.1983 -0.7140  0.2907
27632SOL    HW289947   6.000  11.599   0.176  0.3862 -1.3322 -0.9384
27633SOL     OW89948   7.249   2.610   5.260 -0.6778 -0.1386  0.0096
27633SOL    HW189949   7.251   2.517   5.282 -2.0101  0.2906  2.2555
27633SOL    HW289950   7.263   2.613   5.166 -2.6543 -2.7761 -0.4839
27634SOL     OW89951   7.363   4.607   0.760  0.0358  0.2250 -0.4328
27634SOL    HW189952   7.391   4.587   0.671 -1.7206 -0.6958 -0.8388
27634SOL    HW289953   7.275   4.644   0.750  0.0900  0.8010  0.8849
27635SOL     OW89954   7.791   8.751  10.323  0.3439 -0.3276  0.1435
27635SOL    HW189955   7.829   8.779  10.240 -0.1619 -0.8458 -0.2728
27635SOL    HW289956   7.783   8.832  10.374 -0.5694  0.2279 -0.8177
27636SOL     OW89957   4.138   1.998   5.493 -0.1135  0.0952 -0.2851
27636SOL    HW189958   4.160   1.923   5.548  1.5210  0.1029 -0.8831
27636SOL    HW289959   4.070   1.965   5.433  1.8441 -1.5068 -1.7543
27637SOL     OW89960  11.651   6.032   4.950 -0.0243 -0.4700 -0.0860
27637SOL    HW189961  11.688   6.063   4.867 -1.1415  1.4408  0.0538
27637SOL    HW289962  11.587   5.965   4.925 -0.2720  0.0116 -0.7903
27638SOL     OW89963   2.643   0.275  10.081  0.3391  0.4578  0.0324
27638SOL    HW189964   2.560   0.260  10.126  0.8379  0.6337  1.0538
27638SOL    HW289965   2.646   0.370  10.068  0.4562  0.4755  0.1750
27639SOL     OW89966   3.709   2.057   9.018 -0.1975 -0.0863 -0.1994
27639SOL    HW189967   3.639   2.002   9.052  0.0018 -0.3782 -0.2590
27639SOL    HW289968   3.724   2.026   8.929 -1.1444  1.0854 -0.7974
27640SOL     OW89969   0.552   8.456  12.045  0.1951 -0.1452  0.1979
27640SOL    HW189970   0.578   8.402  11.970  0.0472  0.8467 -0.5822
27640SOL    HW289971   0.623   8.519  12.055 -0.9658  1.3880 -0.7742
27641SOL     OW89972  10.861   0.294   8.475  0.0419  0.2491  0.1679
27641SOL    HW189973  10.897   0.207   8.490  1.2508  0.7296  0.1476
27641SOL    HW289974  10.895   0.347   8.547  1.0574  1.1972 -0.9764
27642SOL     OW89975   4.791   5.102   9.640  0.1631  0.2860 -0.2882
27642SOL    HW189976   4.791   5.189   9.600 -2.1272  0.2822 -0.4661
27642SOL    HW289977   4.771   5.118   9.732 -1.4477 -0.0534 -0.5374
27643SOL     OW89978  11.226   4.669   2.405 -0.3276 -0.0804  0.5392
27643SOL    HW189979  11.272   4.751   2.387 -0.3375 -0.2613 -0.3521
27643SOL    HW289980  11.286   4.618   2.459 -0.3909  0.5788  1.2405
27644SOL     OW89981   0.876   9.960   0.899  0.6023  0.0485  0.3853
27644SOL    HW189982   0.848  10.030   0.839 -1.3636  0.0765  1.2679
27644SOL    HW289983   0.813   9.890   0.884  0.7507 -0.3668  1.6440
27645SOL     OW89984  12.436   1.278  11.684  0.6819 -0.1120 -0.1354
27645SOL    HW189985  12.368   1.229  11.637 -0.3671  1.2389 -0.1054
27645SOL    HW289986  12.479   1.329  11.616 -0.0603  0.9601  0.1707
27646SOL     OW89987  10.549   0.315  10.832  0.0782 -0.0650 -0.4725
27646SOL    HW189988  10.469   0.312  10.779 -0.9755 -2.4462  1.0600
27646SOL    HW289989  10.586   0.227  10.823  1.4629  0.4008  0.4318
27647SOL     OW89990  11.649   6.104   9.021  0.3731 -0.0466 -0.2701
27647SOL    HW189991  11.632   6.141   9.107  0.5176 -0.4043 -0.0814
27647SOL    HW289992  11.738   6.133   9.000  1.8177 -2.8389  1.3099
27648SOL     OW89993   7.531   9.508   4.362 -0.3304  0.1777 -0.8469
27648SOL    HW189994   7.621   9.483   4.383 -0.3649  0.1455 -0.7382
27648SOL    HW289995   7.533   9.527   4.269 -0.8335 -2.6641 -1.5373
27649SOL     OW89996  10.110   4.893   4.941 -0.4006 -0.1816  1.0648
27649SOL    HW189997  10.045   4.915   4.875 -1.0367  1.4477  2.1663
27649SOL    HW289998  10.058   4.875   5.020  0.4270  0.1201  1.6901
27650SOL     OW89999  10.336  11.383   4.269 -0.4807 -0.3603 -0.1641
27650SOL    HW190000  10.318  11.453   4.206 -0.4268 -0.6741 -0.5384
27650SOL    HW290001  10.268  11.318   4.251  1.5643 -2.0727 -2.3630
27651SOL     OW90002  10.787  10.608   5.216  0.6313 -0.2331 -0.3431
27651SOL    HW190003  10.742  10.648   5.290 -0.2584 -0.3039 -0.8261
27651SOL    HW290004  10.846  10.675   5.184  2.2775 -0.7551  1.4454
27652SOL     OW90005  11.332  12.475   4.026  0.1557  0.1809  0.9446
27652SOL    HW190006  11.380  12.556   4.039  0.8750  0.5801 -2.9822
27652SOL    HW290007  11.244  12.502   3.998  0.3570 -0.3233 -0.2616
27653SOL     OW90008   7.588   2.597   0.849  0.4582  0.0604 -0.9114
27653SOL    HW190009   7.568   2.540   0.924 -1.1745  0.4581 -1.0252
27653SOL    HW290010   7.620   2.537   0.782 -1.6855 -0.8402 -1.1980
27654SOL     OW90011   3.465   6.058  10.963  0.6038 -0.1566 -0.0629
27654SOL    HW190012   3.391   6.008  10.996  0.4676  0.8109  1.1854
27654SOL    HW290013   3.483   6.021  10.877 -0.6282 -1.1275  0.0738
27655SOL     OW90014   6.247   4.996   2.614  0.2165 -0.1070 -0.0161
27655SOL    HW190015   6.184   5.055   2.657  1.3769  0.7201  0.6019
27655SOL    HW290016   6.192   4.934   2.566 -1.0762  1.8736 -1.2423
27656SOL     OW90017   9.685   0.819   8.119 -0.1388 -0.4094 -0.5428
27656SOL    HW190018   9.753   0.771   8.071  0.1863 -0.5686  0.0667
27656SOL    HW290019   9.603   0.776   8.093  0.0695 -0.7288 -0.6809
27657SOL     OW90020  10.463  10.349  12.530 -0.1745 -0.3140  0.1742
27657SOL    HW190021  10.408  10.427  12.534  1.2920  0.7055  2.4674
27657SOL    HW290022  10.523  10.358  12.603  0.9721 -2.9483 -0.3209
27658SOL     OW90023  12.088   1.979   2.438 -0.2598 -1.0345 -0.7109
27658SOL    HW190024  12.064   1.991   2.529  0.0649 -0.9943 -0.6281
27658SOL    HW290025  12.009   1.998   2.389  0.3924  2.3544 -0.6858
27659SOL     OW90026  12.164   7.345   1.954  0.9767  0.3839  0.1883
27659SOL    HW190027  12.100   7.406   1.916  1.1429  0.0903 -0.5730
27659SOL    HW290028  12.110   7.282   2.002  0.7093  0.3532 -0.1433
27660SOL     OW90029  10.683  11.974   2.690 -0.1436  0.0695  0.2751
27660SOL    HW190030  10.594  11.991   2.720 -0.3594  1.8740 -1.1937
27660SOL    HW290031  10.681  11.884   2.657 -2.3836  1.0519 -2.7093
27661SOL     OW90032   5.843   2.184   0.907  0.3614 -0.2534  0.0062
27661SOL    HW190033   5.796   2.265   0.925 -1.3265 -1.3074  0.5692
27661SOL    HW290034   5.883   2.198   0.821  0.2975  1.2402  0.1989
27662SOL     OW90035   1.586   5.025   3.814  0.0945 -0.5123 -0.5274
27662SOL    HW190036   1.545   4.951   3.769  1.6887 -0.3851 -2.3407
27662SOL    HW290037   1.561   5.101   3.761 -1.3566  0.2744  1.1984
27663SOL     OW90038   0.493   0.383   7.793  0.6933  0.4931 -0.4074
27663SOL    HW190039   0.482   0.478   7.788  1.5941  0.5746 -1.1287
27663SOL    HW290040   0.463   0.350   7.708  1.7056  0.2854 -0.6941
27664SOL     OW90041   4.004  12.219   8.809  0.4915  0.3507  0.0695
27664SOL    HW190042   3.915  12.191   8.787  0.5560 -0.3961  0.6981
27664SOL    HW290043   4.043  12.242   8.724  0.0047 -0.2381 -0.3279
27665SOL     OW90044   2.316   4.159   1.159  0.2928 -0.2209 -0.4637
27665SOL    HW190045   2.375   4.092   1.123  0.1278 -0.4164 -0.3748
27665SOL    HW290046   2.229   4.131   1.130  0.3462  0.6913 -1.5738
27666SOL     OW90047   4.884   3.676   4.451  0.1513  0.2616 -0.2151
27666SOL    HW190048   4.891   3.764   4.415  4.5070 -0.9070 -3.1068
27666SOL    HW290049   4.813   3.635   4.402 -0.3771  1.4579 -0.4814
27667SOL     OW90050   3.525   2.716   2.989 -0.4054 -0.1372 -0.3343
27667SOL    HW190051   3.550   2.624   2.986 -1.9895 -0.6210  0.0675
27667SOL    HW290052   3.438   2.719   2.949 -0.8913  0.9800  0.7172
27668SOL     OW90053   0.805   0.918   3.251  0.4284 -0.2753 -0.9462
27668SOL    HW190054   0.739   0.941   3.317  0.3126  0.0825 -1.1873
27668SOL    HW290055   0.762   0.851   3.198  0.7076 -0.9406 -0.3448
27669SOL     OW90056   9.739  10.637  10.026 -0.6313  0.1323  0.1996
27669SOL    HW190057   9.817  10.595  10.063 -0.4467 -1.0674 -1.4685
27669SOL    HW290058   9.703  10.572   9.965 -0.7413  2.1135 -1.9602
27670SOL     OW90059   9.415   2.697   0.126 -0.7345  0.2891 -0.1518
27670SOL    HW190060   9.335   2.683   0.177  0.7874  0.4551  2.4337
27670SOL    HW290061   9.399   2.779   0.078 -1.2753  1.6123  2.1503
27671SOL     OW90062  12.417  10.963   5.269 -0.3868  0.3870  0.1678
27671SOL    HW190063  12.357  10.956   5.344 -1.6176  1.3443 -0.6894
27671SOL    HW290064  12.501  10.932   5.303 -1.3532 -1.0082  1.4078
27672SOL     OW90065   8.067  11.010   7.458 -0.0502  0.4021  0.2143
27672SOL    HW190066   8.013  10.951   7.511 -1.7659  1.6284 -0.0803
27672SOL    HW290067   8.014  11.088   7.448  1.3347  1.2277 -1.1115
27673SOL     OW90068   6.462  12.452   6.378 -0.6910 -0.3323  0.4968
27673SOL    HW190069   6.477  12.473   6.470  1.9352  0.9816 -0.1301
27673SOL    HW290070   6.523  12.508   6.330 -0.7877 -2.1289 -1.9522
27674SOL     OW90071  12.413   2.646   5.435  0.7451 -0.2234  0.2242
27674SOL    HW190072  12.458   2.613   5.513 -0.0385  1.2395  1.3484
27674SOL    HW290073  12.478   2.704   5.395  2.2756 -3.1899 -1.9785
27675SOL     OW90074   5.997  11.017  10.231  0.2030 -0.1032  0.4264
27675SOL    HW190075   5.946  11.050  10.305  0.6912  0.2392  0.6174
27675SOL    HW290076   5.932  10.974  10.174 -0.1620 -0.4666  1.0991
27676SOL     OW90077  10.935  11.275   0.908 -0.2746 -0.0074  0.1204
27676SOL    HW190078  10.882  11.353   0.925  0.5538  0.8456 -1.0537
27676SOL    HW290079  10.883  11.223   0.847  0.1648  0.7821 -0.9566
27677SOL     OW90080   9.406  11.216   3.431 -0.2279 -0.2263  0.3104
27677SOL    HW190081   9.321  11.252   3.405  0.7271  1.0268 -1.3090
27677SOL    HW290082   9.386  11.127   3.460 -2.2538  0.4758  1.2814
27678SOL     OW90083   6.396   2.781   1.634  0.0882  0.5076  1.2201
27678SOL    HW190084   6.359   2.864   1.665  0.1986  0.9123  0.3030
27678SOL    HW290085   6.456   2.807   1.564 -0.5874 -0.4229  0.2739
27679SOL     OW90086   3.306   2.795   4.706  0.2755  0.1722 -0.5069
27679SOL    HW190087   3.359   2.871   4.729  0.9010 -0.3825 -0.0783
27679SOL    HW290088   3.231   2.799   4.766  1.3545 -0.6761  0.9731
27680SOL     OW90089   7.910   1.713  12.323 -0.4045  0.4382 -0.1708
27680SOL    HW190090   7.926   1.732  12.415 -0.3496 -0.4217  0.0101
27680SOL    HW290091   7.828   1.758  12.303 -0.8258  0.0084  0.5219
27681SOL     OW90092   5.489   1.552  10.224  0.1989  0.4603 -0.0015
27681SOL    HW190093   5.550   1.553  10.298 -0.8709  0.4113  0.9066
27681SOL    HW290094   5.492   1.641  10.189 -2.6609  1.9838  3.0391
27682SOL     OW90095  11.098   3.616   4.837 -0.2858  0.4998 -0.0543
27682SOL    HW190096  11.024   3.657   4.792 -0.3480 -0.4735 -0.8517
27682SOL    HW290097  11.159   3.593   4.768 -0.6801 -1.6275  0.2416
27683SOL     OW90098  11.988   7.887   3.118  0.8434  0.1530 -0.3024
27683SOL    HW190099  11.974   7.925   3.205 -0.1534 -1.6936  0.3972
27683SOL    HW290100  12.023   7.800   3.135 -1.0133 -0.9185 -1.6561
27684SOL     OW90101   3.294  10.519   7.709  0.4596 -0.4864  0.5354
27684SOL    HW190102   3.268  10.430   7.687  0.6383 -0.6075  0.8191
27684SOL    HW290103   3.387  10.524   7.687 -0.0569  0.3617 -1.8208
27685SOL     OW90104  10.422   4.805   7.451  0.1042 -0.8720 -0.0280
27685SOL    HW190105  10.481   4.733   7.429  0.9296 -0.8036  1.7190
27685SOL    HW290106  10.381   4.829   7.368  1.4414 -1.9066 -1.0485
27686SOL     OW90107   2.283   3.188   1.262  0.2936  0.0627 -0.0617
27686SOL    HW190108   2.319   3.108   1.300  0.0329  0.0665  0.2054
27686SOL    HW290109   2.281   3.172   1.168 -0.0173 -0.3597  0.0123
27687SOL     OW90110   4.364   9.922  10.813  0.1338  0.2566  0.4182
27687SOL    HW190111   4.375  10.016  10.800 -0.4773  0.1794 -0.7823
27687SOL    HW290112   4.370   9.885  10.725  0.1628 -0.8097  0.8596
27688SOL     OW90113  10.748   9.955   0.763  0.1194 -0.2903  0.1893
27688SOL    HW190114  10.671   9.924   0.715 -0.2973 -1.0600  1.3321
27688SOL    HW290115  10.738   9.918   0.851  0.8623  1.0970  0.8826
27689SOL     OW90116   9.129   8.473   9.736 -0.2899  0.1847  0.2963
27689SOL    HW190117   9.208   8.517   9.767  0.0809 -0.2288 -0.0634
27689SOL    HW290118   9.140   8.382   9.761  0.3567 -0.3119 -1.6593
27690SOL     OW90119   7.594   4.306   5.589  0.3674  0.0337 -0.3517
27690SOL    HW190120   7.528   4.239   5.569  1.3213 -0.7126 -1.0649
27690SOL    HW290121   7.669   4.284   5.534  1.3895  0.6134  0.7584
27691SOL     OW90122   7.735  10.595   9.998 -0.9208  0.0105  0.1793
27691SOL    HW190123   7.788  10.672  10.017  1.4737 -1.1298 -1.4106
27691SOL    HW290124   7.704  10.609   9.908 -0.5186 -0.8403 -0.0958
27692SOL     OW90125   2.551   2.519   1.330 -0.0810  0.1690  0.1943
27692SOL    HW190126   2.558   2.553   1.419 -1.5032  2.5186 -0.5236
27692SOL    HW290127   2.635   2.541   1.290 -0.1735  0.8826  0.3829
27693SOL     OW90128   7.940   4.370   9.691  0.1072  0.0242 -0.0047
27693SOL    HW190129   7.969   4.341   9.605 -0.1647  0.3798 -0.2174
27693SOL    HW290130   8.020   4.377   9.743  0.1695 -1.4651  0.1710
27694SOL     OW90131   5.319   4.522   5.680  0.2108  0.1577  0.3399
27694SOL    HW190132   5.322   4.448   5.741  0.8475  0.8989  1.2315
27694SOL    HW290133   5.359   4.487   5.599 -2.0437 -1.2949 -0.2314
27695SOL     OW90134   3.534   9.880  12.199  0.4185 -0.5269 -0.3513
27695SOL    HW190135   3.507   9.909  12.111 -2.6112 -0.9650  0.3120
27695SOL    HW290136   3.553   9.961  12.246  0.9318 -0.2191 -1.0722
27696SOL     OW90137   2.146   9.074  12.340  0.2641 -0.0667 -0.3907
27696SOL    HW190138   2.112   9.033  12.261  1.1070 -1.3044 -0.1447
27696SOL    HW290139   2.216   9.015  12.369  1.9809  1.8686 -0.3655
27697SOL     OW90140   3.125   3.437   2.811 -0.1190  0.5490 -0.0091
27697SOL    HW190141   3.196   3.500   2.824 -0.7317  1.3059 -0.2877
27697SOL    HW290142   3.047   3.480   2.846 -0.7277  0.3408 -1.0631
27698SOL     OW90143   0.293   4.248   7.733  0.0066  0.0876 -0.2450
27698SOL    HW190144   0.272   4.210   7.648 -1.5935  0.8081 -0.2138
27698SOL    HW290145   0.217   4.302   7.755 -0.2300 -1.0772  2.2070
27699SOL     OW90146   3.958   6.373  11.862 -0.2460 -0.3792 -0.4518
27699SOL    HW190147   3.946   6.370  11.767  1.0733  2.5760 -0.8306
27699SOL    HW290148   4.053   6.376  11.874 -0.3893 -0.8786  0.9964
27700SOL     OW90149   2.642  11.811  10.552 -0.3039  0.5243 -0.0388
27700SOL    HW190150   2.692  11.847  10.625 -0.3672 -0.9507  0.7658
27700SOL    HW290151   2.708  11.794  10.485  0.7154 -3.0532  1.6449
27701SOL     OW90152   8.865   3.126   6.331  0.1559  0.2965  0.0132
27701SOL    HW190153   8.786   3.113   6.385 -1.2526  1.4315 -1.6330
27701SOL    HW290154   8.866   3.221   6.314  1.5921  0.2184 -0.4616
27702SOL     OW90155  10.970   2.610   3.634 -0.3731  0.0616 -0.3419
27702SOL    HW190156  10.930   2.536   3.589  2.5841  0.1744 -3.4979
27702SOL    HW290157  10.952   2.685   3.577  0.9692  0.7994  0.1651
27703SOL     OW90158  11.428  11.576  12.199 -0.0992 -0.0072  0.1637
27703SOL    HW190159  11.387  11.657  12.230 -0.5007 -0.5753  1.1318
27703SOL    HW290160  11.415  11.513  12.269  2.6863 -0.1462  0.6950
27704SOL     OW90161   6.901   7.981  10.557 -0.0242 -0.4098  0.0732
27704SOL    HW190162   6.982   7.957  10.602 -0.2965  0.8868  1.3366
27704SOL    HW290163   6.907   7.938  10.472  0.2180 -3.5415  1.5302
27705SOL     OW90164  11.361   9.507  12.138 -0.0453 -0.1247 -0.3720
27705SOL    HW190165  11.333   9.547  12.221 -2.2700 -0.6274 -0.8019
27705SOL    HW290166  11.396   9.421  12.163 -0.6348 -0.2443  0.0729
27706SOL     OW90167   3.139  11.017   5.398 -0.0349  0.6592 -0.0727
27706SOL    HW190168   3.073  11.038   5.464  1.1946  2.7054  0.6071
27706SOL    HW290169   3.104  11.053   5.317 -0.5020  0.2156 -0.0724
27707SOL     OW90170   2.502   6.081   6.567 -0.4267  0.3401 -0.0222
27707SOL    HW190171   2.458   6.076   6.483 -1.0596 -0.1711  0.3250
27707SOL    HW290172   2.557   6.003   6.569  1.0204  1.3051 -0.7233
27708SOL     OW90173  12.406   6.001   4.777  0.4103  0.4221 -1.0135
27708SOL    HW190174  12.463   6.052   4.720  0.6806 -0.9837 -2.0364
27708SOL    HW290175  12.464   5.935   4.816 -0.0793  0.4048 -0.2958
27709SOL     OW90176   8.582   1.548   2.350  0.2845  0.5631  0.1617
27709SOL    HW190177   8.487   1.562   2.342  0.2377 -0.0530 -0.3639
27709SOL    HW290178   8.602   1.579   2.438 -0.4196  0.6497  0.3029
27710SOL     OW90179   1.585   7.930   4.491 -0.1650  0.6471  0.0713
27710SOL    HW190180   1.672   7.959   4.462 -0.4159  2.2348  0.7536
27710SOL    HW290181   1.594   7.836   4.504  1.6381  0.8556  0.6819
27711SOL     OW90182  10.678   7.031   4.566  0.0462 -0.1055 -0.3212
27711SOL    HW190183  10.649   7.028   4.657  0.8006 -0.1937 -0.0745
27711SOL    HW290184  10.709   6.942   4.547  1.2957  0.2706 -0.1732
27712SOL     OW90185  12.195  11.996   9.271  0.1696  0.3421 -0.7303
27712SOL    HW190186  12.180  11.980   9.364  0.7801  0.3573 -0.6254
27712SOL    HW290187  12.187  11.910   9.230 -2.5888  0.6439 -1.0506
27713SOL     OW90188   1.561   6.798   1.916 -0.3817 -0.6730 -0.5007
27713SOL    HW190189   1.504   6.745   1.861  0.4969 -1.6566 -0.4970
27713SOL    HW290190   1.649   6.767   1.897  0.0780  0.1476  0.2009
27714SOL     OW90191   5.222   9.891   4.345  0.6412 -0.4835 -0.4365
27714SOL    HW190192   5.173   9.818   4.384 -0.6574  0.5890  0.0373
27714SOL    HW290193   5.310   9.883   4.381  0.5088 -1.7797 -0.3533
27715SOL     OW90194  11.857   5.365   6.160  0.1103 -0.4547  0.2040
27715SOL    HW190195  11.895   5.444   6.120 -1.0328 -1.0689 -2.2774
27715SOL    HW290196  11.808   5.398   6.235  0.7284  1.0589 -0.0218
27716SOL     OW90197   5.114   5.102  11.993 -0.1480  0.5175 -0.4623
27716SOL    HW190198   5.182   5.051  12.038  1.2442  2.0362 -0.7430
27716SOL    HW290199   5.060   5.138  12.064 -0.3161 -0.2221 -0.2067
27717SOL     OW90200   4.432  11.236   7.397 -0.0128 -0.4683  0.0262
27717SOL    HW190201   4.484  11.155   7.406  0.7191  0.0251  0.3925
27717SOL    HW290202   4.469  11.279   7.320 -1.1829 -1.0201 -0.8828
27718SOL     OW90203   8.125   2.027  10.511 -0.4430 -0.0539 -0.2594
27718SOL    HW190204   8.049   2.031  10.453  0.1520 -1.1884 -1.1603
27718SOL    HW290205   8.088   2.035  10.599 -1.3214  2.0253 -0.7759
27719SOL     OW90206   8.090   3.106  11.197 -0.1680  0.0187  0.5990
27719SOL    HW190207   8.108   3.140  11.109  0.6627 -2.6975 -0.3829
27719SOL    HW290208   7.996   3.085  11.195  0.1353 -1.3775 -0.1990
27720SOL     OW90209   8.649   6.385  11.471  0.0937 -0.4843 -0.1520
27720SOL    HW190210   8.693   6.469  11.459 -0.0586  0.0396  2.3157
27720SOL    HW290211   8.720   6.320  11.474  0.2575 -0.3813 -1.4027
27721SOL     OW90212   2.437   2.386   5.750  0.7165  0.4568  0.5748
27721SOL    HW190213   2.374   2.388   5.823 -0.8624  2.3141 -0.7352
27721SOL    HW290214   2.430   2.298   5.715 -0.9229  0.5085  0.6916
27722SOL     OW90215   4.337   8.166  10.753  0.0170  0.2360 -0.6260
27722SOL    HW190216   4.365   8.229  10.687 -2.4183  0.5541 -1.4476
27722SOL    HW290217   4.262   8.208  10.796  0.8071 -0.4541  1.5683
27723SOL     OW90218   1.503   5.432   7.933 -0.3957 -0.3001 -0.0235
27723SOL    HW190219   1.455   5.487   7.870 -2.4313 -1.5437  0.3408
27723SOL    HW290220   1.518   5.490   8.008 -2.0180 -0.0220  0.1342
27724SOL     OW90221   7.568   2.047  10.561  0.4775  0.3107  0.4003
27724SOL    HW190222   7.521   2.040  10.478  1.3630  2.2632 -0.3177
27724SOL    HW290223   7.580   1.957  10.590 -1.0375 -0.3513 -0.8984
27725SOL     OW90224   0.004   7.017   2.344 -0.2662  0.1795 -0.3017
27725SOL    HW190225  -0.044   7.003   2.263  1.6857  0.5077 -1.5750
27725SOL    HW290226  -0.043   6.966   2.410 -1.2187 -1.0243 -1.8738
27726SOL     OW90227   2.589   2.007   1.124 -0.1801  0.6857 -0.1100
27726SOL    HW190228   2.683   1.998   1.109  0.4270 -1.8037  3.7007
27726SOL    HW290229   2.578   2.096   1.158  0.7027  1.1230 -0.9167
27727SOL     OW90230  11.439   2.584   3.864  0.1160  0.1309 -0.3102
27727SOL    HW190231  11.366   2.610   3.808  1.2803  0.7372 -1.6086
27727SOL    HW290232  11.423   2.627   3.947 -0.3920  1.2235 -0.9597
27728SOL     OW90233   2.985   5.918   8.628 -0.0770  0.4196 -0.7210
27728SOL    HW190234   2.970   5.890   8.718  0.2250  0.1212 -0.7588
27728SOL    HW290235   3.015   6.008   8.635  2.5974 -0.4172 -0.2959
27729SOL     OW90236   8.081   5.520   2.493 -0.8182  0.0169 -0.1349
27729SOL    HW190237   8.020   5.591   2.515  0.3121  0.4373  1.9108
27729SOL    HW290238   8.036   5.440   2.523 -1.8085 -0.1253 -1.8466
27730SOL     OW90239  10.885   4.053  12.014  0.6275  0.1472 -0.7245
27730SOL    HW190240  10.959   4.106  11.986  0.3881  0.3752 -0.9271
27730SOL    HW290241  10.874   4.073  12.106 -0.2795  1.4447 -1.0918
27731SOL     OW90242   4.477   4.281   1.995  0.0836  0.1803 -0.2915
27731SOL    HW190243   4.441   4.312   2.078 -2.7428 -0.9674 -0.9649
27731SOL    HW290244   4.492   4.188   2.008 -2.1346 -0.4208 -1.5018
27732SOL     OW90245   8.877   3.738   0.591 -0.1723 -0.3113  0.1284
27732SOL    HW190246   8.847   3.678   0.660  1.0144  0.2061  1.1339
27732SOL    HW290247   8.972   3.727   0.589 -0.1708 -0.2151 -1.3633
27733SOL     OW90248   4.024  10.882   4.329 -0.4555  0.6842 -0.5088
27733SOL    HW190249   3.935  10.894   4.296 -0.2406  0.8527 -1.0329
27733SOL    HW290250   4.064  10.969   4.321  0.5016  0.1064 -2.5203
27734SOL     OW90251   5.254  12.253  10.689  0.7945 -1.0071  0.1634
27734SOL    HW190252   5.318  12.201  10.640  1.0367 -2.2368  1.7139
27734SOL    HW290253   5.179  12.195  10.699 -0.1266  0.0130 -0.6003
27735SOL     OW90254   7.557   3.761   3.622  0.0101  0.4212  0.2807
27735SOL    HW190255   7.570   3.812   3.702 -1.0305 -1.2945  1.6384
27735SOL    HW290256   7.538   3.826   3.554  3.4281  2.1140  0.7765
27736SOL     OW90257   7.569   5.427   6.957  0.5008 -0.5157  0.4436
27736SOL    HW190258   7.595   5.367   7.027  0.5731 -1.2489 -0.1936
27736SOL    HW290259   7.620   5.398   6.881  1.8527  1.4419  0.5332
27737SOL     OW90260   2.050   2.408   4.478 -0.2734  0.0296 -0.3409
27737SOL    HW190261   2.040   2.502   4.488  1.5913  0.2524 -0.2092
27737SOL    HW290262   2.128   2.398   4.423  1.1823 -1.4291  1.8177
27738SOL     OW90263   5.181   2.356   7.074  0.2505 -0.4094  0.8790
27738SOL    HW190264   5.098   2.333   7.033  0.0628  0.0031  1.0242
27738SOL    HW290265   5.215   2.429   7.022 -0.5121  0.8455  2.0782
27739SOL     OW90266   3.316   3.790  10.337 -0.5447 -0.0155 -0.0618
27739SOL    HW190267   3.319   3.840  10.419 -1.9244 -1.3192  0.8273
27739SOL    HW290268   3.318   3.698  10.364  1.5375 -0.5147 -1.6360
27740SOL     OW90269  12.002  10.302   7.305  0.6519 -0.0798  0.5800
27740SOL    HW190270  11.907  10.312   7.301  0.4265 -1.2653  1.8584
27740SOL    HW290271  12.015  10.229   7.366  2.4139  0.6325  1.1047
27741SOL     OW90272   4.269  12.142  12.139  0.0547  0.0263  0.3148
27741SOL    HW190273   4.325  12.065  12.145 -2.7176 -2.2946 -0.9195
27741SOL    HW290274   4.308  12.195  12.070  2.3492  0.1367  1.5793
27742SOL     OW90275   9.371  10.894   4.532  0.2454  0.1095  0.4544
27742SOL    HW190276   9.321  10.955   4.586 -1.2591  1.1397 -1.9605
27742SOL    HW290277   9.360  10.926   4.443 -0.0794 -3.3188 -0.8845
27743SOL     OW90278   4.597   5.679   6.081 -0.1685  0.0789 -0.2376
27743SOL    HW190279   4.617   5.734   6.006  1.2186 -1.8833 -1.4097
27743SOL    HW290280   4.525   5.623   6.051  0.3997 -0.7256 -0.1480
27744SOL     OW90281   2.982   0.670  10.528 -0.2528  0.4883  0.1559
27744SOL    HW190282   2.967   0.638  10.439  0.7111  2.3226 -0.7226
27744SOL    HW290283   3.055   0.616  10.561 -0.8674 -0.4573  0.0192
27745SOL     OW90284  12.078   9.786   7.889  0.3755  0.8157  0.7353
27745SOL    HW190285  12.134   9.811   7.962 -0.5126 -0.2790  1.8215
27745SOL    HW290286  11.993   9.826   7.909 -0.3272 -0.8191  1.1557
27746SOL     OW90287   0.154  11.991   8.718 -0.2417 -0.2145 -0.1993
27746SOL    HW190288   0.124  12.077   8.691 -0.6927 -0.2069  0.3021
27746SOL    HW290289   0.236  11.978   8.671  0.0296  0.6482  0.0219
27747SOL     OW90290   4.020   6.225  11.051  0.6489  0.4348 -0.0277
27747SOL    HW190291   3.985   6.136  11.041 -0.2235  0.5376  1.6470
27747SOL    HW290292   4.115   6.213  11.056  0.7523 -0.0993 -2.4032
27748SOL     OW90293  10.866   9.780   9.386 -0.0157  0.0630 -0.4955
27748SOL    HW190294  10.866   9.744   9.298 -1.2979  0.7601 -0.7985
27748SOL    HW290295  10.820   9.714   9.439 -1.3861  0.7056 -0.8380
27749SOL     OW90296  10.934   3.709   9.503 -0.3667 -0.4764 -0.2292
27749SOL    HW190297  11.018   3.751   9.520 -1.4108  0.9465  1.8647
27749SOL    HW290298  10.937   3.629   9.556  0.2096 -1.2333 -1.3594
27750SOL     OW90299   1.703  12.133   8.732  0.5651  0.4526 -0.1245
27750SOL    HW190300   1.703  12.143   8.827  1.7209  2.3569 -0.2733
27750SOL    HW290301   1.728  12.042   8.717  2.2027  0.5978  1.4046
27751SOL     OW90302   2.457   9.452   9.858  0.0849 -0.1810 -0.2833
27751SOL    HW190303   2.451   9.357   9.870 -2.1994 -0.0430  0.2005
27751SOL    HW290304   2.395   9.487   9.922  0.1501  1.5863 -1.1465
27752SOL     OW90305  10.693   7.954   4.440  0.3276 -0.5832 -0.1528
27752SOL    HW190306  10.613   7.908   4.414  2.3722 -4.2798 -0.5414
27752SOL    HW290307  10.692   8.035   4.388 -2.2372 -1.3493 -1.4697
27753SOL     OW90308  10.649  12.501   8.924  0.1203  0.1601  0.6283
27753SOL    HW190309  10.620  12.464   9.008 -1.4189  0.5265  0.2956
27753SOL    HW290310  10.586  12.468   8.860 -0.8095  2.5899  0.1808
27754SOL     OW90311  12.505   0.342   4.187 -0.3910  0.1819  0.3806
27754SOL    HW190312  12.590   0.332   4.143 -0.0876  1.6612  0.6082
27754SOL    HW290313  12.464   0.256   4.176  0.4204 -0.0510 -1.2232
27755SOL     OW90314   7.861   8.362   0.698  0.2299  0.0753 -0.9405
27755SOL    HW190315   7.854   8.457   0.689  1.9006  0.1547 -1.8161
27755SOL    HW290316   7.942   8.349   0.748 -1.2917 -0.8582  1.4607
27756SOL     OW90317   3.188   8.928   4.656 -0.2005  0.2572 -0.2113
27756SOL    HW190318   3.222   8.905   4.743  0.7309  0.7262 -0.4415
27756SOL    HW290319   3.174   9.022   4.660 -0.4793  0.2300 -0.4728
27757SOL     OW90320   2.968   3.743   9.343  0.0861  0.1065 -0.2353
27757SOL    HW190321   2.942   3.651   9.336  0.7870 -0.3987  2.5605
27757SOL    HW290322   2.887   3.789   9.365 -0.0421 -0.0354 -0.4037
27758SOL     OW90323   6.675  11.296   3.988  0.2059  0.1446 -0.5170
27758SOL    HW190324   6.687  11.382   3.948  2.0000  0.4738  0.6199
27758SOL    HW290325   6.722  11.236   3.930  1.4298  0.3832  0.2040
27759SOL     OW90326   3.162   5.671   2.223  0.1121  1.2931 -0.0297
27759SOL    HW190327   3.219   5.746   2.206  3.1468  0.1020  3.6102
27759SOL    HW290328   3.100   5.703   2.288 -0.3919  1.2936 -0.4955
27760SOL     OW90329   3.192  10.746   0.088 -0.0607 -0.1098 -0.2902
27760SOL    HW190330   3.111  10.713   0.126 -1.0919  1.5003 -0.9595
27760SOL    HW290331   3.258  10.680   0.109 -1.2371 -0.7915  1.5022
27761SOL     OW90332   3.710   8.481   9.844  0.0866 -0.4506  0.3714
27761SOL    HW190333   3.715   8.444   9.756 -2.9356 -0.2782  0.0435
27761SOL    HW290334   3.736   8.572   9.833  0.2064 -0.5519 -0.2294
27762SOL     OW90335   3.450   8.305   1.573 -0.0643  0.6552 -1.2140
27762SOL    HW190336   3.524   8.322   1.514  0.1667  2.2325 -0.5177
27762SOL    HW290337   3.404   8.389   1.579  0.7578  1.0032  1.9654
27763SOL     OW90338   4.996   2.783   0.982  0.0336 -0.4698  0.2164
27763SOL    HW190339   4.903   2.805   0.976  0.4865  2.0913  1.3099
27763SOL    HW290340   5.038   2.864   1.011  2.3786 -2.0969  1.6831
27764SOL     OW90341   5.867  11.302   0.148 -0.7535  0.1248  0.2805
27764SOL    HW190342   5.900  11.323   0.061  1.2556 -0.5280  0.8317
27764SOL    HW290343   5.926  11.348   0.208 -1.5923 -0.1109  1.3184
27765SOL     OW90344  10.015   6.305  12.157 -0.4347  0.5000  0.1677
27765SOL    HW190345   9.989   6.347  12.075 -1.5648 -2.0672 -0.8882
27765SOL    HW290346  10.091   6.252  12.134  1.0200  1.8880  1.4959
27766SOL     OW90347   6.066   5.528   8.010  0.2989  0.6470  0.2508
27766SOL    HW190348   6.133   5.485   7.956  1.0606  1.1180  0.7919
27766SOL    HW290349   6.026   5.457   8.060  1.4319  0.5220  1.0209
27767SOL     OW90350   1.944   8.970   2.757 -0.8220  0.6580 -0.5250
27767SOL    HW190351   2.019   8.985   2.815 -0.3060  0.5100 -1.1426
27767SOL    HW290352   1.871   8.955   2.817 -0.5350  1.6345  0.0858
27768SOL     OW90353   7.978  12.575   3.290  0.0886  0.0018 -1.1445
27768SOL    HW190354   7.973  12.531   3.205 -1.1524  0.2040 -1.2015
27768SOL    HW290355   7.899  12.545   3.336  1.6758 -1.6006  0.6919
27769SOL     OW90356  10.390   7.680   7.489  0.1108 -0.4097  0.2642
27769SOL    HW190357  10.466   7.731   7.519 -0.3421  0.0983  0.5614
27769SOL    HW290358  10.405   7.669   7.395  1.3941 -1.7675  0.5971
27770SOL     OW90359   7.728   4.853   3.725 -0.2919  0.0705 -0.0230
27770SOL    HW190360   7.674   4.818   3.796 -0.6920 -0.5510 -0.6294
27770SOL    HW290361   7.666   4.896   3.666  0.0459  0.6332  0.0249
27771SOL     OW90362  10.418   0.788  10.713 -0.5746 -0.4269 -0.2069
27771SOL    HW190363  10.404   0.802  10.807  1.3933  0.0069  0.0616
27771SOL    HW290364  10.499   0.738  10.707  0.1175  0.7492 -1.6890
27772SOL     OW90365   4.206   1.433   0.594  0.3542 -0.3222 -0.4782
27772SOL    HW190366   4.222   1.468   0.681  0.0847  0.1900 -0.6343
27772SOL    HW290367   4.151   1.356   0.608 -4.0790  2.4793 -0.4640
27773SOL     OW90368   2.849   0.660  11.079 -0.2086 -0.1609 -0.6191
27773SOL    HW190369   2.877   0.694  11.164 -1.3143  0.0382 -0.3262
27773SOL    HW290370   2.822   0.570  11.097  2.7622 -1.3182 -1.4033
27774SOL     OW90371   9.340   6.771  10.417 -0.0094  0.0496 -0.2336
27774SOL    HW190372   9.332   6.844  10.479  0.7830 -1.2720  1.5295
27774SOL    HW290373   9.427   6.782  10.379 -0.4937  0.8592 -1.1492
27775SOL     OW90374   6.944  11.711   5.723 -0.3856 -0.3187  0.2589
27775SOL    HW190375   6.930  11.630   5.772  3.6580 -1.3180  0.1458
27775SOL    HW290376   6.914  11.690   5.634  0.4969 -1.7206  0.2523
27776SOL     OW90377   4.392   5.971  11.503  0.1127  0.3230 -0.0228
27776SOL    HW190378   4.351   5.889  11.529  0.1912  0.5377  0.8112
27776SOL    HW290379   4.450   5.947  11.430  0.3290 -0.4019  0.3820
27777SOL     OW90380  10.547  10.612   0.320 -0.0139 -0.5259 -0.3380
27777SOL    HW190381  10.581  10.642   0.405  2.0619 -0.1319 -1.2419
27777SOL    HW290382  10.625  10.585   0.271 -1.2498 -1.5899 -1.8111
27778SOL     OW90383   4.926  11.693   8.811 -0.1013  0.2974 -0.8408
27778SOL    HW190384   5.000  11.754   8.816  0.0529  0.1589 -1.4204
27778SOL    HW290385   4.961  11.611   8.847 -0.3933  0.6135  0.2133
27779SOL     OW90386   5.755   2.832   3.305  0.1225  0.1125  0.0098
27779SOL    HW190387   5.808   2.880   3.242  0.6849  0.3773  0.6715
27779SOL    HW290388   5.745   2.892   3.378  1.5941 -1.0553  1.2476
27780SOL     OW90389   9.233   1.789   0.576  0.7817  0.6681 -0.4436
27780SOL    HW190390   9.326   1.793   0.553  0.8748  0.1453 -0.1642
27780SOL    HW290391   9.225   1.710   0.629  0.2079  0.8075 -0.3188
27781SOL     OW90392   9.114   0.981   5.248  0.0370  0.2975 -0.2009
27781SOL    HW190393   9.127   0.900   5.299 -0.6488  0.2498 -0.0960
27781SOL    HW290394   9.195   1.030   5.260  0.5489 -0.4683 -0.4313
27782SOL     OW90395   0.865   3.936   9.551  0.8292 -0.3207 -0.2262
27782SOL    HW190396   0.772   3.957   9.556  0.5154 -1.7090  0.0791
27782SOL    HW290397   0.876   3.894   9.465  0.7344 -2.0746  0.5737
27783SOL     OW90398   2.547   4.573   8.838  0.2931 -0.2909  0.0928
27783SOL    HW190399   2.458   4.537   8.842  0.3396 -0.2812  1.7472
27783SOL    HW290400   2.535   4.667   8.848  0.4256 -0.1725 -0.7884
27784SOL     OW90401   3.677  12.056   5.307 -0.2078 -0.3748  0.4524
27784SOL    HW190402   3.738  12.128   5.319  1.2145 -1.4006 -0.3381
27784SOL    HW290403   3.733  11.979   5.294 -1.6656 -1.3761 -0.1498
27785SOL     OW90404  12.309   4.143   8.883  0.4664 -0.1142 -0.0132
27785SOL    HW190405  12.256   4.098   8.818  0.2498 -0.3709  0.3349
27785SOL    HW290406  12.299   4.091   8.963  1.9298 -0.6566 -0.1510
27786SOL     OW90407   5.797  12.354   5.719 -0.3122 -0.4733 -0.0790
27786SOL    HW190408   5.711  12.313   5.714 -0.1340 -0.8047 -0.5365
27786SOL    HW290409   5.854  12.295   5.670  0.0851 -0.0283 -0.1551
27787SOL     OW90410   4.471  12.126   5.913  0.4727  0.1279 -0.3808
27787SOL    HW190411   4.450  12.043   5.957  2.4460  0.2711  0.9448
27787SOL    HW290412   4.406  12.187   5.944 -0.2605 -0.6218 -0.4046
27788SOL     OW90413   1.472   2.986   2.693 -0.3717  0.0277  0.8388
27788SOL    HW190414   1.516   3.022   2.770  0.0914 -1.0201  1.0842
27788SOL    HW290415   1.384   2.966   2.722  0.0059 -1.0185  1.3161
27789SOL     OW90416  11.404   7.938   9.270  0.2031  0.1860 -0.0128
27789SOL    HW190417  11.365   7.957   9.355  0.6462 -0.3284  0.3155
27789SOL    HW290418  11.335   7.894   9.220 -0.7210  2.2770 -0.6639
27790SOL     OW90419   7.181   5.490   8.823  0.1549 -0.8484 -0.4814
27790SOL    HW190420   7.138   5.565   8.863  0.1015 -0.8210 -0.5917
27790SOL    HW290421   7.163   5.499   8.730 -0.7319 -1.5638 -0.3911
27791SOL     OW90422   9.595   7.062  11.052 -0.4671  0.5216  0.1000
27791SOL    HW190423   9.531   7.121  11.011 -0.1854  0.9811  0.3093
27791SOL    HW290424   9.605   6.991  10.989 -0.5138  0.9023 -0.3492
27792SOL     OW90425   6.321  12.452   8.851 -0.2657  0.1919  0.3283
27792SOL    HW190426   6.298  12.542   8.873 -0.9349  0.8320 -2.6700
27792SOL    HW290427   6.241  12.402   8.869 -0.5978  0.5718 -0.0910
27793SOL     OW90428   4.991   8.250   0.170 -0.4106 -0.2030  0.1150
27793SOL    HW190429   5.081   8.227   0.147 -0.8046 -0.1465 -1.6345
27793SOL    HW290430   4.949   8.167   0.190 -0.3256 -0.3863 -0.4567
27794SOL     OW90431   8.153   2.089  10.157 -0.4780  0.9471 -0.2114
27794SOL    HW190432   8.078   2.032  10.141 -0.5685  1.3914 -1.5363
27794SOL    HW290433   8.218   2.033  10.199 -1.1191  0.2551 -0.1320
27795SOL     OW90434   2.815  10.342   2.425  0.1225 -0.4171  0.4734
27795SOL    HW190435   2.852  10.395   2.354  0.1691  2.0084  2.2015
27795SOL    HW290436   2.887  10.331   2.487 -0.3584 -1.0965  0.9221
27796SOL     OW90437   1.346   0.146   2.833 -0.6335 -0.1914  0.3300
27796SOL    HW190438   1.440   0.167   2.835 -0.6722  0.0040  0.1830
27796SOL    HW290439   1.342   0.054   2.856 -0.4075 -0.1884  0.3917
27797SOL     OW90440  10.149   7.577   8.455  0.0001 -0.2539 -0.2003
27797SOL    HW190441  10.196   7.628   8.389  0.5841 -0.6207 -0.0668
27797SOL    HW290442  10.059   7.574   8.422 -0.3707  2.0083  0.4617
27798SOL     OW90443   1.476  12.332   5.007  0.7001 -0.1338  0.0625
27798SOL    HW190444   1.464  12.363   4.917  1.6331 -0.0860 -0.0619
27798SOL    HW290445   1.555  12.378   5.037  0.7894 -0.6693  0.6661
27799SOL     OW90446   8.964   0.218   9.238 -0.3970 -0.4862 -0.8768
27799SOL    HW190447   8.937   0.128   9.258 -0.0206 -0.3842  0.1530
27799SOL    HW290448   8.907   0.244   9.166  0.5384 -2.0865 -2.2766
27800SOL     OW90449   2.892   1.831   0.060  0.4972 -0.5363  0.8364
27800SOL    HW190450   2.952   1.887   0.011  0.2682  0.3206  1.5150
27800SOL    HW290451   2.876   1.757   0.001 -0.4089  0.8473 -0.7401
27801SOL     OW90452   1.296   2.001  12.214  0.0549 -0.2192 -0.4926
27801SOL    HW190453   1.285   1.909  12.241 -1.9417  0.1764  0.1693
27801SOL    HW290454   1.208   2.038  12.217  1.0357  2.2342  1.0868
27802SOL     OW90455   6.371  10.057   4.826  0.0958 -0.6156  0.3586
27802SOL    HW190456   6.462  10.068   4.797  0.2377 -1.6984  0.3564
27802SOL    HW290457   6.363   9.964   4.843 -0.6146 -0.3187  1.7502
27803SOL     OW90458  10.466   4.764   2.410 -0.1701  0.0860 -0.7526
27803SOL    HW190459  10.504   4.772   2.323 -0.2540 -0.6427 -0.8598
27803SOL    HW290460  10.408   4.840   2.418 -1.5189 -0.7505 -2.0173
27804SOL     OW90461   6.179   5.110   1.190  0.0415 -0.1168 -0.8223
27804SOL    HW190462   6.084   5.106   1.181  0.0066 -0.0811 -0.4746
27804SOL    HW290463   6.195   5.099   1.283  0.3329  0.6949 -0.7695
27805SOL     OW90464  12.467  10.320   7.406  0.4823 -0.6457 -0.0148
27805SOL    HW190465  12.428  10.300   7.491  1.9777 -2.4292  0.2881
27805SOL    HW290466  12.404  10.285   7.343 -0.1810 -0.1545  0.3530
27806SOL     OW90467  11.233   6.446   7.520 -0.2751  0.1810 -0.6693
27806SOL    HW190468  11.218   6.363   7.565 -0.0529 -0.7250 -2.1882
27806SOL    HW290469  11.302   6.427   7.456  1.7344  2.2311  0.7324
27807SOL     OW90470   6.574   4.338   1.819 -0.4606  0.1869  0.2581
27807SOL    HW190471   6.533   4.294   1.745 -1.7852  1.8048 -0.0109
27807SOL    HW290472   6.655   4.375   1.783 -0.6119  0.1355 -0.1400
27808SOL     OW90473   5.954  11.118   8.564  0.1752 -0.0360  0.4750
27808SOL    HW190474   6.050  11.114   8.566  0.1868  0.3195  0.8547
27808SOL    HW290475   5.930  11.154   8.650 -0.3245 -0.6134  0.5854
27809SOL     OW90476   9.185   6.050   8.385  0.5495  0.0610 -0.3076
27809SOL    HW190477   9.153   6.139   8.373  1.2528  0.2345 -0.9863
27809SOL    HW290478   9.182   6.036   8.480 -2.0584 -0.1548 -0.3276
27810SOL     OW90479   5.092   9.072   4.815  0.3792  0.7576  0.0882
27810SOL    HW190480   5.136   9.001   4.768  1.0505  1.2173  0.0120
27810SOL    HW290481   5.101   9.048   4.907 -0.8703 -0.1054  0.0074
27811SOL     OW90482   4.777   0.862   6.397  0.6328 -0.1198  0.0353
27811SOL    HW190483   4.698   0.821   6.431  0.1316  1.3578  0.7470
27811SOL    HW290484   4.786   0.827   6.309 -1.7107  0.8406 -0.6551
27812SOL     OW90485   8.349   4.192   9.958  0.2467  0.3363 -0.2043
27812SOL    HW190486   8.338   4.243  10.038  1.6362  0.8445 -0.3194
27812SOL    HW290487   8.402   4.117   9.984 -0.3433 -0.1577 -0.4011
27813SOL     OW90488   8.376   6.248   9.689  0.3383 -0.0872 -0.2374
27813SOL    HW190489   8.458   6.294   9.673  1.1784 -1.7864 -1.0201
27813SOL    HW290490   8.364   6.192   9.613 -1.3598 -0.1648  0.0487
27814SOL     OW90491   3.092   0.641   7.754 -0.1676  0.2733 -0.0713
27814SOL    HW190492   3.133   0.725   7.771 -1.9764  0.7640  2.4368
27814SOL    HW290493   3.000   0.662   7.738 -0.6633 -1.1938  0.6408
27815SOL     OW90494   9.959   6.101   3.725  0.3824 -0.1601 -0.0766
27815SOL    HW190495   9.959   6.021   3.672  0.1115 -0.2977  0.1263
27815SOL    HW290496  10.047   6.107   3.761  0.8768  0.4721 -1.3434
27816SOL     OW90497   1.561   2.361   9.460 -0.4361  0.3145 -0.2057
27816SOL    HW190498   1.545   2.368   9.554 -2.0462  0.3768 -0.4531
27816SOL    HW290499   1.496   2.419   9.420  2.0273  2.5634 -1.2966
27817SOL     OW90500  10.707  11.866   0.546 -0.1595 -0.1295 -0.0948
27817SOL    HW190501  10.759  11.786   0.536 -0.1377  0.0106 -1.1816
27817SOL    HW290502  10.616  11.837   0.532 -0.0997  0.1278 -1.0512
27818SOL     OW90503   3.501   0.545   2.338 -0.6220 -0.1198 -0.2363
27818SOL    HW190504   3.500   0.586   2.252  0.9530 -0.1183 -0.2676
27818SOL    HW290505   3.577   0.488   2.337 -0.9752 -0.6422  0.9269
27819SOL     OW90506   9.870   9.396  11.943 -0.4928  0.1197 -0.3236
27819SOL    HW190507   9.818   9.471  11.916 -0.3976 -0.0283 -0.9205
27819SOL    HW290508   9.939   9.388  11.877  1.7073  1.6911  1.6189
27820SOL     OW90509   9.652   5.873   0.580  0.0708 -0.0257 -0.0743
27820SOL    HW190510   9.615   5.785   0.593  0.6773 -0.4052 -0.8281
27820SOL    HW290511   9.585   5.920   0.531 -0.4578  0.0887  0.7457
27821SOL     OW90512   1.639   2.780  11.916  0.1368 -0.0472  0.2237
27821SOL    HW190513   1.604   2.693  11.899 -1.1099  0.4585  0.0652
27821SOL    HW290514   1.706   2.793  11.849 -2.6580  0.7770 -2.6978
27822SOL     OW90515  11.768   4.066   3.877  0.2122  0.1942 -0.6432
27822SOL    HW190516  11.827   3.997   3.908 -1.0133 -0.9545 -0.7685
27822SOL    HW290517  11.700   4.072   3.944 -1.5684 -1.1802 -2.1862
27823SOL     OW90518   6.604   2.957   5.707 -0.0456 -0.1563  0.4068
27823SOL    HW190519   6.614   2.904   5.628 -0.5426 -0.2234  0.3880
27823SOL    HW290520   6.521   3.003   5.695 -0.8237 -1.2113  1.5001
27824SOL     OW90521   2.936   2.290   7.709  0.2180  0.2366  0.3244
27824SOL    HW190522   3.008   2.227   7.713  0.2686  0.3556  1.8541
27824SOL    HW290523   2.947   2.343   7.788 -0.7911  1.0995 -0.0984
27825SOL     OW90524   8.787  10.249   2.964  0.0782  0.2938  0.0951
27825SOL    HW190525   8.793  10.269   3.058  0.6775 -2.9398  0.8546
27825SOL    HW290526   8.823  10.161   2.955 -0.8846  0.0798 -3.0564
27826SOL     OW90527   6.827   6.868  12.139  0.1769 -0.1624 -0.2832
27826SOL    HW190528   6.826   6.844  12.232 -1.1955 -2.3445 -0.7823
27826SOL    HW290529   6.749   6.921  12.127  0.8907  0.9781 -0.0297
27827SOL     OW90530   6.339   0.968   0.243 -0.4528 -0.2404 -0.5777
27827SOL    HW190531   6.320   0.959   0.336 -0.3109  0.6989 -0.4483
27827SOL    HW290532   6.299   0.890   0.203  0.3952 -1.2158  0.3792
27828SOL     OW90533   6.667   6.142   4.881 -0.6679  0.0533 -0.0337
27828SOL    HW190534   6.621   6.196   4.946  0.3343  0.0827  0.6849
27828SOL    HW290535   6.740   6.197   4.853  0.5877 -1.0223  0.9864
27829SOL     OW90536   1.816   5.703   1.963  0.1561  0.6207  0.4668
27829SOL    HW190537   1.901   5.674   1.994  0.0493 -0.1350  0.0868
27829SOL    HW290538   1.756   5.633   1.989 -0.2484  0.8680  0.2125
27830SOL     OW90539   8.621   0.593   4.851 -0.1046  0.6109  0.4936
27830SOL    HW190540   8.700   0.591   4.905  0.2956 -0.0291 -0.0888
27830SOL    HW290541   8.630   0.672   4.799  1.1554 -0.4424 -0.9865
27831SOL     OW90542   2.179   2.706   3.494 -0.3900 -0.1493 -0.7481
27831SOL    HW190543   2.194   2.710   3.588 -0.3657 -3.6200 -0.4770
27831SOL    HW290544   2.226   2.782   3.459 -1.8216  2.2460  2.0896
27832SOL     OW90545   3.636   1.176   0.896 -0.5406 -0.0589  0.1405
27832SOL    HW190546   3.723   1.137   0.887  0.1751  1.3672  0.3894
27832SOL    HW290547   3.579   1.123   0.841  0.0071 -2.4070  1.7094
27833SOL     OW90548   6.869   1.042  10.699 -0.6913 -0.0733  0.5217
27833SOL    HW190549   6.854   1.136  10.711  2.4660  0.8357 -1.5195
27833SOL    HW290550   6.947   1.023  10.751 -1.4363 -1.6919  1.1122
27834SOL     OW90551   3.764  11.139  11.434  0.2436 -0.0651  0.1738
27834SOL    HW190552   3.798  11.078  11.369 -0.5080 -0.0828 -0.2114
27834SOL    HW290553   3.790  11.225  11.402 -0.3397 -0.0554 -0.2950
27835SOL     OW90554   6.395   4.606  10.320 -0.3511 -0.8935  0.2708
27835SOL    HW190555   6.327   4.553  10.279 -0.2285 -1.1842  0.4359
27835SOL    HW290556   6.384   4.591  10.414 -1.2957  0.5826  0.4335
27836SOL     OW90557   6.078   5.833   1.039  0.3281 -0.0261 -0.0054
27836SOL    HW190558   6.071   5.873   1.126 -1.6799  0.1127 -0.1956
27836SOL    HW290559   6.137   5.892   0.991  0.5248  0.5438  0.9103
27837SOL     OW90560  12.575   9.149  12.155  0.0008  0.0457  0.5068
27837SOL    HW190561  12.597   9.057  12.138 -0.6876 -0.2184  1.0122
27837SOL    HW290562  12.589   9.160  12.249 -2.1837 -0.2005  0.9115
27838SOL     OW90563   5.809  10.908  10.077  0.4212 -0.5888  0.2151
27838SOL    HW190564   5.731  10.907  10.132  0.8912 -1.1895  0.8984
27838SOL    HW290565   5.793  10.841  10.011  0.8326 -1.5722  1.0755
27839SOL     OW90566  10.963   5.607  11.475  0.1024  0.3782 -0.3155
27839SOL    HW190567  10.902   5.680  11.480  1.1131  1.2697 -0.5111
27839SOL    HW290568  11.023   5.630  11.404  1.4321  0.1628  0.6856
27840SOL     OW90569   9.995   2.569   3.563 -0.0595 -0.3020  0.3834
27840SOL    HW190570  10.024   2.480   3.546  0.7496  0.1209 -0.5751
27840SOL    HW290571   9.975   2.571   3.656  0.7933 -1.2392  0.6009
27841SOL     OW90572   8.702   1.851   8.188  0.3800  0.3982  0.5726
27841SOL    HW190573   8.654   1.930   8.163  0.5672  0.5129  0.5735
27841SOL    HW290574   8.780   1.883   8.232 -0.5431  0.1957  2.4899
27842SOL     OW90575   4.779   3.454  11.928 -0.4182 -0.3433  0.7706
27842SOL    HW190576   4.834   3.475  12.003 -0.7415  2.2549  0.3807
27842SOL    HW290577   4.838   3.458  11.853 -0.7317  0.6328  0.5516
27843SOL     OW90578  11.624   2.179   0.830  0.2405  0.0124 -0.0357
27843SOL    HW190579  11.707   2.197   0.784  0.8055 -1.3416  0.3906
27843SOL    HW290580  11.586   2.105   0.782  0.9234 -1.5358  1.7169
27844SOL     OW90581   2.350   3.419   6.814  0.3896  0.0767 -0.1691
27844SOL    HW190582   2.382   3.331   6.830 -0.6179 -0.1392  0.7532
27844SOL    HW290583   2.350   3.462   6.899  0.7917  0.9556 -0.5906
27845SOL     OW90584   2.706   6.532   2.623  0.2435 -0.3934 -1.1515
27845SOL    HW190585   2.612   6.547   2.635  0.2195 -0.3529 -1.3794
27845SOL    HW290586   2.748   6.606   2.666  0.1833 -0.6168 -0.7035
27846SOL     OW90587   9.801   2.634  10.948  0.0300  0.0872 -0.4278
27846SOL    HW190588   9.894   2.635  10.970  0.7047 -0.7125 -2.9301
27846SOL    HW290589   9.792   2.696  10.876 -1.4399  0.3451 -0.0564
27847SOL     OW90590  12.174  11.962   0.363  0.1068  0.3928 -0.2773
27847SOL    HW190591  12.147  12.032   0.304  0.2529  0.9935  0.3579
27847SOL    HW290592  12.240  11.913   0.314  0.7073  1.2815 -0.3707
27848SOL     OW90593   3.040   2.961   6.378  0.5203 -0.0794  0.6244
27848SOL    HW190594   3.060   3.049   6.408  2.1268 -0.6474  1.3722
27848SOL    HW290595   3.082   2.904   6.442 -0.8275 -1.3999  0.3846
27849SOL     OW90596   0.635   6.524   3.831  0.2564  0.1073  0.0694
27849SOL    HW190597   0.616   6.618   3.824  3.4857  0.8111 -0.7465
27849SOL    HW290598   0.682   6.503   3.751 -0.0341 -2.1623  0.4346
27850SOL     OW90599  11.764   5.177   2.833  0.0871  0.2853 -0.3364
27850SOL    HW190600  11.712   5.250   2.799  1.0344  1.1708  0.0556
27850SOL    HW290601  11.853   5.211   2.837  0.9152 -1.5115 -1.9208
27851SOL     OW90602   8.038  11.103   0.999 -0.1590 -0.4406 -0.3096
27851SOL    HW190603   8.118  11.098   0.947  0.9320  1.6642  1.0436
27851SOL    HW290604   8.058  11.055   1.080 -0.9045 -1.3790 -0.6586
27852SOL     OW90605   6.667   1.628   5.238  0.3096  0.2431  0.4590
27852SOL    HW190606   6.635   1.552   5.287  0.0378 -0.3822 -0.6687
27852SOL    HW290607   6.741   1.660   5.289 -0.0600 -0.2980  1.3570
27853SOL     OW90608   3.614   1.587   4.105 -0.3084  0.0266 -0.9037
27853SOL    HW190609   3.668   1.598   4.184 -1.6994 -2.5660  0.5426
27853SOL    HW290610   3.675   1.553   4.040  0.7530  1.7132 -0.8802
27854SOL     OW90611   9.860   9.042  12.411  0.2514 -0.2314  0.1554
27854SOL    HW190612   9.785   8.992  12.443  0.2232 -0.1151  0.2712
27854SOL    HW290613   9.933   8.980  12.416 -0.0811 -0.7815 -1.2381
27855SOL     OW90614   1.360   2.864   9.842  0.3305 -0.1378  0.1876
27855SOL    HW190615   1.400   2.924   9.778 -1.9403  0.1255 -1.1034
27855SOL    HW290616   1.385   2.899   9.927  1.1752  1.1433 -0.5570
27856SOL     OW90617  11.324   8.142  10.296 -0.2895 -0.0303  0.2337
27856SOL    HW190618  11.363   8.118  10.380 -1.1201  0.0017  0.6346
27856SOL    HW290619  11.397   8.139  10.234  0.4970  0.7358  1.0997
27857SOL     OW90620   6.543   4.819   7.601  0.8029  0.0522 -0.0417
27857SOL    HW190621   6.529   4.758   7.674 -0.6491 -0.4090 -0.6596
27857SOL    HW290622   6.621   4.785   7.557  2.1955  0.8055  1.7120
27858SOL     OW90623  11.275  12.368   8.614  0.3246 -0.2247  0.2375
27858SOL    HW190624  11.260  12.334   8.526  1.1660 -0.7513  0.2851
27858SOL    HW290625  11.366  12.347   8.632 -0.4346 -2.2460  2.1477
27859SOL     OW90626   1.696   9.393   9.451  0.3091 -0.7955  0.2890
27859SOL    HW190627   1.670   9.407   9.360  0.3380 -1.5688  0.1512
27859SOL    HW290628   1.619   9.420   9.502  0.5630  0.3360  0.0804
27860SOL     OW90629   3.254   6.703   5.141 -0.3516 -0.0364 -0.3854
27860SOL    HW190630   3.287   6.716   5.230 -1.6825  0.5845  0.0566
27860SOL    HW290631   3.234   6.610   5.136 -1.4990  0.1341  0.4569
27861SOL     OW90632   7.423   4.931   5.684  0.0779 -0.1170  0.0706
27861SOL    HW190633   7.467   4.893   5.759 -0.9266 -2.1563 -0.3182
27861SOL    HW290634   7.480   4.912   5.609 -1.4575 -3.0992 -0.4951
27862SOL     OW90635   9.513   4.556  10.412  0.2934  0.2501 -0.0566
27862SOL    HW190636   9.537   4.643  10.379  0.5267  0.4172  0.5301
27862SOL    HW290637   9.438   4.530  10.359 -0.2246  1.1170  0.2283
27863SOL     OW90638  10.541   3.196  12.059  0.1817  0.2159 -0.5435
27863SOL    HW190639  10.540   3.129  12.128 -0.7833  0.1505 -0.5975
27863SOL    HW290640  10.538   3.146  11.977  2.0089  0.2746 -0.6745
27864SOL     OW90641   9.685   1.193   8.302 -0.2606  0.1144 -0.4776
27864SOL    HW190642   9.665   1.266   8.362 -0.6433 -0.3161 -0.0668
27864SOL    HW290643   9.670   1.229   8.215 -1.6456  0.1858 -0.2312
27865SOL     OW90644   9.318  11.245   0.591 -0.9164 -0.6174 -0.1503
27865SOL    HW190645   9.294  11.236   0.499 -1.0551 -1.7277 -0.0209
27865SOL    HW290646   9.392  11.306   0.591 -2.8718  1.8941 -0.6680
27866SOL     OW90647   7.604   2.170   9.808  0.2366  0.1646 -0.5133
27866SOL    HW190648   7.696   2.182   9.833 -0.3793  1.7408  1.1842
27866SOL    HW290649   7.587   2.077   9.823  0.2132  0.7216  4.3426
27867SOL     OW90650   0.380   2.778   0.508  0.4141 -0.0760 -0.3095
27867SOL    HW190651   0.431   2.709   0.551 -1.0730 -0.9492  0.1273
27867SOL    HW290652   0.366   2.843   0.577  1.5763  0.5498 -0.6446
27868SOL     OW90653   0.401   1.088   9.410 -0.0675 -0.0878  0.2471
27868SOL    HW190654   0.429   1.056   9.495 -1.5428  0.0710  0.8163
27868SOL    HW290655   0.412   1.014   9.351  0.7774 -0.2549  0.5962
27869SOL     OW90656   8.318   8.698  11.422 -0.3112 -0.2411 -0.0015
27869SOL    HW190657   8.233   8.732  11.392 -0.1667 -0.0938 -0.2450
27869SOL    HW290658   8.358   8.662  11.344 -0.5270 -1.1143  0.2846
27870SOL     OW90659  10.541  10.509   2.626 -0.6973  0.4810  0.7516
27870SOL    HW190660  10.634  10.512   2.648 -0.4257 -2.2762  0.3617
27870SOL    HW290661  10.509  10.598   2.643  2.3073  1.9841 -0.6870
27871SOL     OW90662  11.504   2.241   9.818 -0.1694  0.3558 -0.1288
27871SOL    HW190663  11.569   2.225   9.750  0.1999  1.7227 -0.1195
27871SOL    HW290664  11.526   2.179   9.888  0.4588  0.0855 -0.5575
27872SOL     OW90665   6.343   0.018   3.090 -0.1195 -0.0220  0.0266
27872SOL    HW190666   6.413   0.009   3.025  0.7196 -0.3440  0.9525
27872SOL    HW290667   6.299  -0.067   3.089  0.2060 -0.1962  0.2224
27873SOL     OW90668   8.026   7.333   7.271  0.1176  0.7765 -0.3887
27873SOL    HW190669   8.058   7.346   7.361  0.0376 -0.9662 -0.0707
27873SOL    HW290670   7.934   7.308   7.281  0.3636 -0.3851 -0.8728
27874SOL     OW90671   1.183   5.162   4.356  0.5044 -0.3523  0.6576
27874SOL    HW190672   1.252   5.229   4.352  0.3282 -0.2268 -0.6562
27874SOL    HW290673   1.121   5.187   4.287  1.1345 -2.6108 -0.8353
27875SOL     OW90674  10.627   4.607   4.035 -0.5269 -0.0257 -0.1746
27875SOL    HW190675  10.722   4.602   4.042 -0.3855  2.8671  1.1806
27875SOL    HW290676  10.609   4.593   3.942  0.9245 -2.9990 -0.1341
27876SOL     OW90677  11.082   7.279   1.148  0.1130  0.3150 -0.5152
27876SOL    HW190678  11.045   7.198   1.113  1.1496 -0.8258  0.8771
27876SOL    HW290679  11.021   7.306   1.216  2.4835 -2.7170  3.2743
27877SOL     OW90680   1.604   0.513   4.198 -0.2715  0.5398  0.3195
27877SOL    HW190681   1.672   0.457   4.159  0.9299  1.5703  0.8657
27877SOL    HW290682   1.533   0.511   4.135  1.4232  1.8006 -1.7868
27878SOL     OW90683   6.640   2.934   0.960 -0.3118 -0.2776 -0.2591
27878SOL    HW190684   6.710   2.971   1.013  0.4571 -1.0490 -0.7237
27878SOL    HW290685   6.657   2.839   0.960 -0.9723 -0.4036 -0.9183
27879SOL     OW90686   3.388   3.955   6.246  0.2234 -0.0353 -0.0635
27879SOL    HW190687   3.459   3.969   6.184  0.2484 -0.9671 -0.2623
27879SOL    HW290688   3.328   3.896   6.201  0.5780 -1.2837  1.0273
27880SOL     OW90689   2.876   8.681   6.851  0.2482  0.6710  0.2329
27880SOL    HW190690   2.954   8.727   6.820  0.0516  1.0974  0.3590
27880SOL    HW290691   2.804   8.741   6.830  0.1685  1.2946  2.1318
27881SOL     OW90692   9.976  12.298   5.444  0.6363 -0.0680  0.4268
27881SOL    HW190693  10.029  12.299   5.523 -0.4438  0.2953  1.1644
27881SOL    HW290694   9.945  12.388   5.435  0.1875 -0.2622 -0.0226
27882SOL     OW90695   9.388   0.889  11.403 -0.7417  0.3955 -0.0690
27882SOL    HW190696   9.481   0.877  11.423 -0.7076  0.3916 -0.2305
27882SOL    HW290697   9.367   0.816  11.346 -0.1867  1.8047 -2.2055
27883SOL     OW90698  11.089   3.012   8.705 -0.6128  0.4213  0.8589
27883SOL    HW190699  11.138   3.071   8.762  0.0733  0.5880  0.1268
27883SOL    HW290700  11.090   3.055   8.619  0.2116 -0.7814  0.2198
27884SOL     OW90701   3.548   8.461   3.446 -0.1580  0.2960  0.1323
27884SOL    HW190702   3.586   8.374   3.453  0.0489  0.4500  0.9805
27884SOL    HW290703   3.617   8.515   3.407  0.3986  0.4909  1.3262
27885SOL     OW90704   3.745   4.403  10.147 -0.4760 -0.4232  0.1478
27885SOL    HW190705   3.732   4.354  10.066 -0.0925 -0.9332  0.3879
27885SOL    HW290706   3.671   4.464  10.151  0.8344  1.4174 -1.8816
27886SOL     OW90707   4.290   7.229   5.194 -0.4038  0.2100 -0.4394
27886SOL    HW190708   4.266   7.257   5.106  0.2842 -0.7812 -0.9567
27886SOL    HW290709   4.375   7.270   5.211  0.2746 -0.9403 -0.9265
27887SOL     OW90710  11.083  10.500   0.033 -0.6488  0.1505 -0.2632
27887SOL    HW190711  11.081  10.462   0.121  0.4882  2.6673  0.9805
27887SOL    HW290712  11.118  10.431  -0.023 -1.4438 -1.5332  1.2408
27888SOL     OW90713   8.675   9.697  12.359 -0.1861  0.0369 -0.0295
27888SOL    HW190714   8.658   9.785  12.393 -1.1790 -0.6692  1.4196
27888SOL    HW290715   8.769   9.697  12.338 -0.1224  1.3602  0.1899
27889SOL     OW90716   6.000   2.110   6.749  0.3645  0.6719 -0.0497
27889SOL    HW190717   5.959   2.144   6.828 -0.9588  1.5259 -1.0674
27889SOL    HW290718   6.092   2.139   6.755  0.5650 -0.1612  1.6328
27890SOL     OW90719   5.483  10.217   6.346 -0.4718 -0.0585  0.2345
27890SOL    HW190720   5.430  10.138   6.361  0.4423 -0.9082 -0.8790
27890SOL    HW290721   5.465  10.241   6.256 -0.2626  0.6535  0.3782
27891SOL     OW90722   6.218  11.613  10.107  0.1190 -0.4890  0.0240
27891SOL    HW190723   6.305  11.598  10.069  0.7378  0.1201  1.1334
27891SOL    HW290724   6.160  11.625  10.032  1.2351  0.3859 -0.7243
27892SOL     OW90725   7.846   8.377   5.931  0.2832 -0.2407 -0.0339
27892SOL    HW190726   7.881   8.464   5.946  0.2872  0.5775 -3.7608
27892SOL    HW290727   7.752   8.390   5.918  0.2017 -0.8647 -0.1067
27893SOL     OW90728   5.811   3.311   0.152 -0.2285  0.2269 -0.1176
27893SOL    HW190729   5.903   3.336   0.159  0.6449 -2.5788 -0.3314
27893SOL    HW290730   5.778   3.362   0.078  1.2095  1.0824 -0.2114
27894SOL     OW90731  11.274   5.521   7.274 -0.5958  0.2173 -0.1500
27894SOL    HW190732  11.337   5.552   7.340 -0.1989  0.7093 -0.7503
27894SOL    HW290733  11.189   5.530   7.316 -0.3343  0.3692  0.3561
27895SOL     OW90734  12.178   8.625   7.915 -0.1049  0.2759  0.0365
27895SOL    HW190735  12.182   8.709   7.868  0.6831  0.7185  0.8654
27895SOL    HW290736  12.095   8.627   7.961 -1.0501 -0.3004 -1.5486
27896SOL     OW90737   5.836   7.699   0.762  0.0624 -0.3800 -0.1032
27896SOL    HW190738   5.792   7.644   0.828  2.1215 -1.8706  0.1118
27896SOL    HW290739   5.918   7.725   0.803  0.2083  0.8763 -1.1404
27897SOL     OW90740   5.081   2.728   6.548 -0.2938 -0.2357 -0.4515
27897SOL    HW190741   5.168   2.755   6.577 -1.1771  2.7339 -0.3167
27897SOL    HW290742   5.079   2.751   6.455 -1.4030  1.1737 -0.1138
27898SOL     OW90743   1.252  11.061   7.451  0.0400 -0.4138 -0.1346
27898SOL    HW190744   1.320  11.037   7.514 -0.1168 -1.8794 -0.4998
27898SOL    HW290745   1.265  11.002   7.377  0.7947  1.8629 -1.9516
27899SOL     OW90746   1.993   9.591  11.938 -0.1850 -0.1386  0.5683
27899SOL    HW190747   2.016   9.502  11.967 -3.4107 -1.8262 -1.4795
27899SOL    HW290748   1.930   9.621  12.004  0.3276  0.3461  0.8435
27900SOL     OW90749   2.217   9.517   1.472 -0.3493 -0.4866  0.3267
27900SOL    HW190750   2.185   9.437   1.514 -1.4421 -1.3040 -1.9156
27900SOL    HW290751   2.140   9.574   1.466  0.5078  1.0004  2.3099
27901SOL     OW90752  11.486   4.244   2.523 -0.2184 -1.0180 -0.1153
27901SOL    HW190753  11.564   4.194   2.498  0.7168 -0.5561  1.6287
27901SOL    HW290754  11.438   4.185   2.582  0.1316 -0.4364  0.7794
27902SOL     OW90755   4.091  10.127   5.397 -0.2050 -0.1230  0.1219
27902SOL    HW190756   4.107  10.205   5.344  1.1921 -0.7663 -0.4767
27902SOL    HW290757   4.055  10.063   5.336  0.3583 -0.5111  0.1863
27903SOL     OW90758   8.924  11.273   7.323  0.5397 -0.2883  0.5283
27903SOL    HW190759   8.984  11.256   7.395  0.4848  1.5644  1.0628
27903SOL    HW290760   8.942  11.364   7.297  0.6388 -0.9285 -1.8906
27904SOL     OW90761  12.530   9.082   9.199  0.0337 -0.0028 -0.7530
27904SOL    HW190762  12.529   9.044   9.111  0.7689 -1.1126 -0.3094
27904SOL    HW290763  12.502   9.010   9.256  0.0160  0.5631 -0.0315
27905SOL     OW90764  10.138  11.048  10.183  0.2372  0.1552 -0.1753
27905SOL    HW190765  10.195  10.980  10.218  2.9387  1.9309 -0.8079
27905SOL    HW290766  10.168  11.129  10.226 -1.7578  1.2187 -0.6476
27906SOL     OW90767   6.595  12.465   0.774  0.5072 -0.0245 -0.0947
27906SOL    HW190768   6.658  12.532   0.801  0.0586  0.2879  0.2011
27906SOL    HW290769   6.569  12.489   0.686  1.4877 -0.6765 -0.5804
27907SOL     OW90770   5.371   0.964  11.807  0.7150  0.3093 -0.2465
27907SOL    HW190771   5.447   0.938  11.858  0.5722 -0.9376 -0.6154
27907SOL    HW290772   5.353   0.888  11.751 -1.2753  0.2520  0.3936
27908SOL     OW90773  10.948  10.510   4.059 -0.4806 -0.3837 -0.4099
27908SOL    HW190774  10.905  10.595   4.070  0.6015  0.1711 -0.2542
27908SOL    HW290775  10.938  10.490   3.966 -0.1120  0.2929 -0.6103
27909SOL     OW90776   2.495  12.495   8.728  0.3300 -0.1881  0.1297
27909SOL    HW190777   2.461  12.430   8.789  0.2933  0.5383  0.8869
27909SOL    HW290778   2.567  12.537   8.775  0.3240  0.3565 -0.3383
27910SOL     OW90779   6.727   7.345   0.139 -0.1780 -0.2227  0.3971
27910SOL    HW190780   6.818   7.318   0.140 -0.4404 -1.6830 -3.0680
27910SOL    HW290781   6.679   7.272   0.178 -0.1074 -0.9951 -0.9070
27911SOL     OW90782   6.575   1.458   7.050  0.1648 -0.3309 -0.5576
27911SOL    HW190783   6.567   1.541   7.098 -0.9663 -1.0781  0.5891
27911SOL    HW290784   6.669   1.440   7.049  0.3182  0.3826  0.1878
27912SOL     OW90785   0.610  10.474   0.863 -0.1386 -0.6770  0.4238
27912SOL    HW190786   0.650  10.559   0.847 -0.9904  0.2225  2.7106
27912SOL    HW290787   0.656  10.439   0.939 -2.0541 -0.6645  1.6571
27913SOL     OW90788   4.537   7.498   9.219  0.1481  0.5144 -0.0216
27913SOL    HW190789   4.455   7.534   9.184 -0.5814 -1.1943 -0.1712
27913SOL    HW290790   4.562   7.560   9.288 -1.3300  1.0311  0.0976
27914SOL     OW90791   7.398   0.040   5.789 -0.2240  0.1035  0.3927
27914SOL    HW190792   7.343   0.111   5.755 -1.7664 -1.1600  0.1535
27914SOL    HW290793   7.388  -0.030   5.725  1.4083 -0.3032  0.5492
27915SOL     OW90794   6.374  10.589  12.587  0.1006 -0.2005  0.0536
27915SOL    HW190795   6.310  10.526  12.554  1.3773 -1.1982 -0.6187
27915SOL    HW290796   6.367  10.584  12.682  0.2895 -1.4689  0.0094
27916SOL     OW90797   1.091   6.435   3.311 -0.4333  0.3011  0.5485
27916SOL    HW190798   1.119   6.527   3.306 -1.5842  0.7861  2.1683
27916SOL    HW290799   1.172   6.385   3.307  0.2518  1.4189  0.0800
27917SOL     OW90800   0.643  11.908   9.598  0.2090 -0.3920 -0.2417
27917SOL    HW190801   0.634  11.814   9.607 -0.3052 -0.3776 -0.5909
27917SOL    HW290802   0.594  11.930   9.520  0.0933  0.2031 -0.0095
27918SOL     OW90803   9.926   1.003   8.480  0.0694  0.3551 -0.2064
27918SOL    HW190804   9.906   1.093   8.451 -1.3309  0.3843  0.7401
27918SOL    HW290805   9.852   0.951   8.447 -0.3927  0.0073  1.3167
27919SOL     OW90806  10.898   2.257  12.587  0.5594  0.0462  0.1198
27919SOL    HW190807  10.824   2.232  12.643  2.6692 -0.1198  3.0730
27919SOL    HW290808  10.881   2.349  12.565 -1.3181 -0.4534 -0.7385
27920SOL     OW90809  11.635  10.020   2.836 -0.0030 -0.2112 -0.0924
27920SOL    HW190810  11.658   9.932   2.808  1.1763 -0.3363  1.1766
27920SOL    HW290811  11.717  10.058   2.867 -0.7381  0.8786  0.5933
27921SOL     OW90812   3.121   0.772   4.897 -0.0210 -0.2064 -0.3023
27921SOL    HW190813   3.036   0.802   4.866 -1.4343 -2.4885  1.0480
27921SOL    HW290814   3.184   0.815   4.840 -2.1496  0.3595 -2.3882
27922SOL     OW90815   8.221   4.663   6.301  0.3272  0.4418 -1.1965
27922SOL    HW190816   8.139   4.620   6.274  0.2268  0.5216 -1.0186
27922SOL    HW290817   8.194   4.749   6.332  0.3666  0.1191 -0.2345
27923SOL     OW90818   4.273   9.436   0.100 -0.6081  0.4125  0.1646
27923SOL    HW190819   4.237   9.415   0.186 -1.0512 -2.4765 -0.6226
27923SOL    HW290820   4.199   9.428   0.040  0.2198 -0.2592 -0.8055
27924SOL     OW90821   9.457   0.267   5.968  0.5950  0.0295  0.0312
27924SOL    HW190822   9.363   0.256   5.952  0.5510  0.6259 -0.1769
27924SOL    HW290823   9.472   0.360   5.952  1.2735 -0.1167 -0.1887
27925SOL     OW90824   9.093   8.817   8.579 -0.0721 -0.2342 -0.2543
27925SOL    HW190825   9.147   8.878   8.630  0.5305 -1.0915  0.1517
27925SOL    HW290826   9.121   8.831   8.488 -0.5798  0.7275 -0.2757
27926SOL     OW90827   9.130   7.564  11.082  0.0450 -0.4166  0.4017
27926SOL    HW190828   9.089   7.525  11.005 -0.5906 -0.2987  0.6740
27926SOL    HW290829   9.132   7.493  11.146 -0.7171 -0.1320  0.7498
27927SOL     OW90830   3.995   5.180   7.551  0.0553 -0.0667 -0.0175
27927SOL    HW190831   3.969   5.265   7.587 -2.4238 -0.7851  0.0684
27927SOL    HW290832   4.016   5.126   7.627  2.3555  0.6182 -0.1014
27928SOL     OW90833   1.897  10.522  11.539 -0.3347  0.2752  0.0408
27928SOL    HW190834   1.852  10.550  11.459 -1.6210  0.0502  0.6638
27928SOL    HW290835   1.931  10.603  11.577 -0.5045  0.4904 -0.2639
27929SOL     OW90836   0.999   9.568   9.000  0.0403 -0.1236 -0.0489
27929SOL    HW190837   0.988   9.489   8.947 -0.3014 -0.1950  0.1270
27929SOL    HW290838   1.028   9.535   9.086 -1.8662 -0.2210  0.6126
27930SOL     OW90839   8.162   5.658   0.152  0.3775  0.7342  0.0870
27930SOL    HW190840   8.166   5.568   0.118  0.0287  1.2020 -1.2745
27930SOL    HW290841   8.233   5.663   0.216  2.0007  0.1666 -1.5740
27931SOL     OW90842  10.342   5.640   1.348  0.1049  0.3871  0.2968
27931SOL    HW190843  10.268   5.613   1.402  0.8379  1.5125  1.9356
27931SOL    HW290844  10.365   5.561   1.298 -2.4087  0.1270 -0.5620
27932SOL     OW90845   7.907   3.846  10.842  0.2651 -0.1149  0.1313
27932SOL    HW190846   7.854   3.925  10.847 -0.5543 -0.6117 -0.5257
27932SOL    HW290847   7.986   3.873  10.794 -0.3973  0.1091 -0.8545
27933SOL     OW90848  10.944   2.947   0.254 -0.1152 -0.6322 -0.3106
27933SOL    HW190849  10.946   3.038   0.226 -0.9549 -0.6264 -0.3981
27933SOL    HW290850  10.891   2.948   0.333  0.6796 -0.9161  0.2366
27934SOL     OW90851  12.222   2.107   6.394  0.2534  0.6707  0.2481
27934SOL    HW190852  12.230   2.196   6.359  0.6521  0.5019 -0.1073
27934SOL    HW290853  12.309   2.088   6.430  0.8917 -0.4036 -1.7238
27935SOL     OW90854   3.967   2.590   5.277  0.1303  0.1151  0.1040
27935SOL    HW190855   4.055   2.628   5.289 -1.0510  2.9426  0.5508
27935SOL    HW290856   3.934   2.632   5.198 -1.1552 -0.2654  0.4263
27936SOL     OW90857   4.022  12.385  10.378  0.0914 -0.0263  0.4975
27936SOL    HW190858   3.940  12.342  10.402  0.8886 -2.2333 -0.4414
27936SOL    HW290859   4.010  12.410  10.286  0.1527  0.4474  0.6185
27937SOL     OW90860   7.401   6.317   4.505 -0.0137 -0.2482 -0.3760
27937SOL    HW190861   7.324   6.304   4.449  0.9076 -0.5448 -1.6245
27937SOL    HW290862   7.420   6.411   4.497  0.6362 -0.4484 -1.2873
27938SOL     OW90863   8.898   5.897   6.363 -0.3320  0.5285 -0.1416
27938SOL    HW190864   8.890   5.883   6.269 -3.2971 -1.8348  0.3198
27938SOL    HW290865   8.828   5.958   6.385  0.5845  1.3790  0.5378
27939SOL     OW90866  10.478   6.115   5.677  0.1256 -0.5788  0.0778
27939SOL    HW190867  10.533   6.190   5.655  0.3501 -1.2936 -2.0213
27939SOL    HW290868  10.432   6.141   5.756  3.2070  0.1726  1.7593
27940SOL     OW90869   6.541   2.899   3.763 -0.2826  0.1576 -0.0419
27940SOL    HW190870   6.588   2.979   3.739 -1.7920  1.4379  1.0780
27940SOL    HW290871   6.538   2.901   3.859 -2.6023  0.1605 -0.0757
27941SOL     OW90872  12.487   8.859   1.480 -0.3294  0.0640  0.0254
27941SOL    HW190873  12.484   8.805   1.559 -0.3786  1.2526  0.8769
27941SOL    HW290874  12.458   8.801   1.410  0.2477 -1.1856  0.7805
27942SOL     OW90875   1.865   0.231   3.853 -0.0246  0.1613  0.5216
27942SOL    HW190876   1.783   0.207   3.810  0.6590  0.0454 -0.7879
27942SOL    HW290877   1.900   0.148   3.885 -0.5285  0.2441  1.2960
27943SOL     OW90878   8.960  10.071   6.115 -0.4516  0.4816  0.0172
27943SOL    HW190879   8.958   9.984   6.156  1.9908  0.3713  0.0684
27943SOL    HW290880   9.049  10.103   6.133  0.0903  1.2746 -3.4557
27944SOL     OW90881   6.427  12.001   4.389 -0.1279 -0.2473 -0.1661
27944SOL    HW190882   6.354  12.042   4.342 -1.3847  0.1650  1.9726
27944SOL    HW290883   6.498  12.065   4.382 -0.2434 -0.2400 -1.5220
27945SOL     OW90884   8.400   5.635   7.666  0.4150 -0.5259  0.1741
27945SOL    HW190885   8.305   5.633   7.653 -0.1304 -0.6818  3.4671
27945SOL    HW290886   8.422   5.729   7.668  0.5792 -0.4838 -1.6074
27946SOL     OW90887   0.779   7.103   1.390 -0.3950 -0.2075 -0.1360
27946SOL    HW190888   0.828   7.106   1.308  0.6744 -1.7293  0.3942
27946SOL    HW290889   0.761   7.010   1.403  1.3228 -0.3047  2.3714
27947SOL     OW90890   5.295   0.740   1.067  0.3887 -0.0368  0.1427
27947SOL    HW190891   5.311   0.791   1.147  1.1096  0.8218 -0.5411
27947SOL    HW290892   5.284   0.650   1.099 -0.6499  0.4740  1.3451
27948SOL     OW90893  10.665   1.923   4.516  0.9287 -0.3583  0.2954
27948SOL    HW190894  10.675   2.017   4.536  1.2510 -0.7266  2.0198
27948SOL    HW290895  10.580   1.900   4.554  1.9173 -1.2618  2.1232
27949SOL     OW90896   2.271   4.642   5.559  0.5568 -0.3605  0.1662
27949SOL    HW190897   2.307   4.697   5.628 -0.0886 -0.0233  0.2366
27949SOL    HW290898   2.229   4.703   5.498 -0.6486 -0.7999  0.5326
27950SOL     OW90899   6.542   8.884   1.662  0.2939  0.3812 -0.5510
27950SOL    HW190900   6.531   8.821   1.734 -0.0195 -0.7221 -1.5447
27950SOL    HW290901   6.609   8.845   1.606  0.1257  0.9507 -1.1589
27951SOL     OW90902   2.154   9.665   0.499  0.2890 -0.4451 -0.7524
27951SOL    HW190903   2.121   9.711   0.576  0.4706 -0.8343 -0.4384
27951SOL    HW290904   2.182   9.735   0.440 -0.9830 -0.1018 -0.9851
27952SOL     OW90905   5.504   3.218   6.757  0.6364  0.4075  0.1595
27952SOL    HW190906   5.522   3.171   6.676  0.8568 -1.8099  1.4152
27952SOL    HW290907   5.527   3.157   6.827 -0.8799  1.6986  1.9118
27953SOL     OW90908   1.146   8.005   4.130  0.5833  0.4021  0.0467
27953SOL    HW190909   1.223   7.987   4.186  0.0318  1.3363  1.1360
27953SOL    HW290910   1.099   8.075   4.175 -1.7104 -1.1217  0.1867
27954SOL     OW90911  11.861   8.432   5.189  0.0214  0.3652  0.1447
27954SOL    HW190912  11.839   8.353   5.237 -0.0700  0.5348  0.3840
27954SOL    HW290913  11.848   8.409   5.097 -0.1811  0.1574  0.2241
27955SOL     OW90914   0.432  11.817   2.927 -0.4610  0.1061 -0.0787
27955SOL    HW190915   0.510  11.843   2.878  0.5387 -1.7796  0.4430
27955SOL    HW290916   0.466  11.782   3.009 -1.9229 -0.0165  0.4971
27956SOL     OW90917   3.933   3.546  12.431 -0.5283 -0.6420  0.0729
27956SOL    HW190918   3.865   3.592  12.480 -1.2639  1.6195 -2.7850
27956SOL    HW290919   4.014   3.570  12.475 -1.1144  1.6551  0.0200
27957SOL     OW90920   4.272   7.727   4.543  0.1466 -0.1246  0.0835
27957SOL    HW190921   4.325   7.677   4.480  1.1767  1.8648 -0.6975
27957SOL    HW290922   4.330   7.737   4.619  0.5901  1.2281 -0.4010
27958SOL     OW90923   4.532  11.295   2.635 -0.7418  0.3173 -0.3207
27958SOL    HW190924   4.559  11.267   2.547  0.1526  0.6179 -0.1587
27958SOL    HW290925   4.574  11.381   2.646 -3.0067  1.5253 -0.6227
27959SOL     OW90926   7.953   8.402   1.977 -0.7784  0.4398 -0.5711
27959SOL    HW190927   7.981   8.494   1.982  0.4809  0.2504 -2.8953
27959SOL    HW290928   7.875   8.404   1.922 -0.0045  0.0004 -1.7002
27960SOL     OW90929   1.962   0.205   1.858  0.5403  0.4289 -0.0506
27960SOL    HW190930   1.973   0.292   1.819  0.1627 -0.1816 -1.5923
27960SOL    HW290931   1.894   0.163   1.806 -0.7551 -0.0944  1.9448
27961SOL     OW90932   3.444  10.518   3.295  0.2558  0.2075  0.2148
27961SOL    HW190933   3.382  10.492   3.227 -0.8325 -1.3529  1.7240
27961SOL    HW290934   3.457  10.612   3.281 -0.5815  0.0964 -1.5989
27962SOL     OW90935   5.766   3.467   1.465  0.2365  0.0972 -0.3069
27962SOL    HW190936   5.779   3.561   1.483  0.9420 -0.0066 -0.2807
27962SOL    HW290937   5.697   3.465   1.399 -0.0355  0.6207 -0.0514
27963SOL     OW90938   2.654   0.094   3.504 -0.0236  0.0791 -0.0191
27963SOL    HW190939   2.577   0.037   3.511  2.4519 -3.5185  0.6718
27963SOL    HW290940   2.647   0.133   3.417 -1.6591 -1.7236 -0.7603
27964SOL     OW90941  10.423   8.686   3.820  0.7321 -0.1239  0.2991
27964SOL    HW190942  10.447   8.662   3.910 -0.3179  2.5158  1.3943
27964SOL    HW290943  10.495   8.741   3.790  0.4013  0.2074  0.0980
27965SOL     OW90944  11.225  10.284   2.564 -0.1675  0.1867  0.3470
27965SOL    HW190945  11.155  10.239   2.612  0.4116 -0.6560  0.4364
27965SOL    HW290946  11.242  10.362   2.615 -1.3411  0.6429  0.0845
27966SOL     OW90947   2.563   9.932  12.387 -0.2599 -0.3394 -0.0359
27966SOL    HW190948   2.621   9.909  12.314 -0.2275 -2.1880  0.5318
27966SOL    HW290949   2.507  10.001  12.351  0.9320  0.0562 -1.2335
27967SOL     OW90950   9.261  12.461   9.984 -0.2409  0.0768  0.5003
27967SOL    HW190951   9.195  12.512   9.936  1.6982  1.0525 -1.2534
27967SOL    HW290952   9.269  12.379   9.935  0.8491  0.5667 -0.1868
27968SOL     OW90953  11.641   5.365   2.404 -0.0478  0.3324 -0.1364
27968SOL    HW190954  11.708   5.386   2.468  0.0719 -0.6937  0.0973
27968SOL    HW290955  11.653   5.429   2.334  1.2060  0.1476 -0.1129
27969SOL     OW90956  11.857   6.574  10.110  0.0362  0.0903 -0.4133
27969SOL    HW190957  11.831   6.556  10.020 -0.1512  0.2073 -0.3842
27969SOL    HW290958  11.774   6.582  10.158  0.1328  0.1349 -0.2532
27970SOL     OW90959   4.892  12.339   3.114 -0.5068  0.4404 -0.1377
27970SOL    HW190960   4.923  12.420   3.072  2.0169  1.4032  3.1436
27970SOL    HW290961   4.971  12.286   3.122 -0.9915  0.0193  2.5516
27971SOL     OW90962   9.040   6.675   5.113  0.4224 -0.7013 -0.3471
27971SOL    HW190963   9.116   6.662   5.056 -0.7720  3.2075 -3.2470
27971SOL    HW290964   8.965   6.657   5.056 -0.8255  0.9388  0.7159
27972SOL     OW90965   4.960   4.861  10.068  0.4467 -0.8516  0.6940
27972SOL    HW190966   5.020   4.890  10.137  0.3239 -0.1117  0.5045
27972SOL    HW290967   4.876   4.847  10.113  0.1085  0.5676  0.5614
27973SOL     OW90968   9.581   0.735   5.645 -0.1150 -0.7759  0.7372
27973SOL    HW190969   9.662   0.785   5.650  0.5353 -1.8305  1.3155
27973SOL    HW290970   9.514   0.793   5.680  0.5555 -0.1980  1.0827
27974SOL     OW90971   1.224   5.847   9.224 -0.5829 -0.2954 -0.0359
27974SOL    HW190972   1.138   5.811   9.247 -0.9124  0.8377  0.5733
27974SOL    HW290973   1.263   5.872   9.308 -0.3398  0.6826 -0.4327
27975SOL     OW90974   0.135  11.726   4.017 -0.4750  0.2711 -0.2819
27975SOL    HW190975   0.050  11.686   3.999 -1.4257  1.7431  0.7656
27975SOL    HW290976   0.135  11.743   4.111  0.9337  0.4319 -0.2850
27976SOL     OW90977  11.708   6.828   6.357  0.0091 -0.0570 -0.1080
27976SOL    HW190978  11.746   6.814   6.444 -1.3771  0.0242  0.5364
27976SOL    HW290979  11.614   6.841   6.374  0.0375  2.3055 -1.3926
27977SOL     OW90980   6.221  11.136   9.625  0.0706  0.4710  0.1395
27977SOL    HW190981   6.251  11.196   9.693 -0.4119  2.7468 -1.5209
27977SOL    HW290982   6.230  11.186   9.544 -0.0590 -1.8671 -1.4126
27978SOL     OW90983  12.120   3.344   5.396 -0.5702  0.0432  0.6393
27978SOL    HW190984  12.059   3.404   5.440 -0.1811  1.6340 -0.8826
27978SOL    HW290985  12.121   3.373   5.305  1.0733 -1.1143  0.2380
27979SOL     OW90986   1.898  12.331   3.673 -0.3832  0.0897 -0.0816
27979SOL    HW190987   1.959  12.405   3.672 -1.9460  1.4261 -0.8997
27979SOL    HW290988   1.954  12.254   3.665  1.2232  1.2377 -0.3587
27980SOL     OW90989   5.092   4.798   2.625  0.0914  0.4102 -0.7029
27980SOL    HW190990   5.074   4.759   2.710  3.1069  1.1354  0.3917
27980SOL    HW290991   5.161   4.743   2.587 -1.0501  0.2074 -2.6806
27981SOL     OW90992  11.108   1.146   8.613  0.1128  0.1765 -0.1383
27981SOL    HW190993  11.031   1.184   8.657 -0.5172 -1.6733  0.4385
27981SOL    HW290994  11.178   1.209   8.628 -0.4896  0.3582  2.1785
27982SOL     OW90995   2.847   0.774   5.822  0.1780  0.4435  0.0922
27982SOL    HW190996   2.765   0.767   5.871 -0.0233  2.7255  0.1704
27982SOL    HW290997   2.904   0.827   5.879  0.9843  0.5884 -0.8360
27983SOL     OW90998   5.383   2.120  10.823 -0.1895 -0.0285 -0.2591
27983SOL    HW190999   5.297   2.152  10.850 -0.1913  0.4652 -0.8196
27983SOL    HW291000   5.379   2.026  10.836 -0.4122  0.1191  0.8202
27984SOL     OW91001   6.615   2.927   6.621 -0.0539 -0.1478 -0.4271
27984SOL    HW191002   6.677   2.922   6.548  0.3857  1.5776 -0.2155
27984SOL    HW291003   6.529   2.925   6.579  0.1634 -0.7479 -0.8615
27985SOL     OW91004   0.411   8.119   6.872 -0.0957 -0.4296  0.1781
27985SOL    HW191005   0.328   8.083   6.840 -0.0070  0.8320 -1.6086
27985SOL    HW291006   0.427   8.195   6.816  1.6537  0.0784  1.3068
27986SOL     OW91007   3.336  10.050   0.104  0.2981 -0.4690  0.1424
27986SOL    HW191008   3.263   9.996   0.132 -0.2473 -0.5919 -1.4481
27986SOL    HW291009   3.358  10.018   0.016  2.7797 -0.9643  0.8565
27987SOL     OW91010   6.205   4.006   3.575 -0.0950  0.5560 -0.1197
27987SOL    HW191011   6.203   4.101   3.565 -2.2576  0.5459 -0.3451
27987SOL    HW291012   6.228   3.991   3.667  0.1863  1.3005 -0.0704
27988SOL     OW91013   0.555   7.635   4.073  0.0349 -0.3989  0.2514
27988SOL    HW191014   0.548   7.712   4.130  1.2416 -0.7748  0.9541
27988SOL    HW291015   0.600   7.667   3.995 -0.1311 -0.2283  0.2256
27989SOL     OW91016  11.442   8.518   0.646 -0.4717 -0.4079 -0.5672
27989SOL    HW191017  11.466   8.506   0.554 -0.8040  0.0663 -0.7198
27989SOL    HW291018  11.348   8.502   0.650 -0.3033 -1.3527 -0.1331
27990SOL     OW91019   1.011   1.356   0.948  0.3956  0.2893 -0.4477
27990SOL    HW191020   0.960   1.377   0.870 -0.5990  0.1786  0.1503
27990SOL    HW291021   0.964   1.401   1.019 -0.4481 -1.9880  0.5373
27991SOL     OW91022   9.122   8.172   7.277  0.1152  0.3432  0.4475
27991SOL    HW191023   9.089   8.088   7.244 -0.2968  0.5540  0.3254
27991SOL    HW291024   9.124   8.161   7.372  0.0601  0.1991  0.4326
27992SOL     OW91025  11.536  11.193   1.561 -0.2287  0.0262  0.4483
27992SOL    HW191026  11.461  11.244   1.531 -1.6141 -2.0420  0.1257
27992SOL    HW291027  11.606  11.214   1.500 -0.8744  1.2001  0.0955
27993SOL     OW91028   7.143  11.713  10.119  0.0074 -0.0637 -0.2359
27993SOL    HW191029   7.074  11.663  10.163 -0.1060  0.8342  0.6461
27993SOL    HW291030   7.171  11.657  10.047 -1.0792 -0.7983 -0.1174
27994SOL     OW91031   5.015   5.536   0.739  0.1960 -0.0714  0.4942
27994SOL    HW191032   4.951   5.481   0.784  0.1807  0.1687  0.7662
27994SOL    HW291033   5.018   5.501   0.650  0.4572 -0.7418  0.7655
27995SOL     OW91034   0.837   8.091   2.015  0.1614 -0.1628 -0.0183
27995SOL    HW191035   0.825   8.124   2.104  0.6232  1.7935 -0.6319
27995SOL    HW291036   0.756   8.115   1.970  0.6626  0.5391 -0.5750
27996SOL     OW91037   5.205   0.175   6.639  0.1083  0.0803  0.1231
27996SOL    HW191038   5.162   0.239   6.584 -0.5335 -1.1079 -0.8055
27996SOL    HW291039   5.274   0.138   6.584 -0.1342 -0.6829  0.3235
27997SOL     OW91040   5.211   0.617   8.956 -0.1917  0.0121  0.2835
27997SOL    HW191041   5.260   0.656   8.885 -0.1322 -0.3384  0.1299
27997SOL    HW291042   5.274   0.610   9.028 -0.3572  0.7407  0.5113
27998SOL     OW91043   2.481   5.174   0.413  0.2682 -0.5163  0.2985
27998SOL    HW191044   2.508   5.143   0.499  1.8389  1.4527  0.5883
27998SOL    HW291045   2.562   5.205   0.372 -0.8091  0.8358 -0.9163
27999SOL     OW91046  11.456   0.051   8.734  0.5385 -0.1528 -0.1128
27999SOL    HW191047  11.383   0.066   8.674  0.9203 -0.2075 -0.6002
27999SOL    HW291048  11.529   0.027   8.677  1.2816  1.1426  0.2506
28000SOL     OW91049   8.602   2.938   2.374  0.1648  0.0488  0.9633
28000SOL    HW191050   8.625   2.869   2.436  0.5913 -0.1871  0.5420
28000SOL    HW291051   8.506   2.933   2.366  0.0209  0.5462  2.1456
28001SOL     OW91052   9.416   4.384  12.479 -0.0534 -1.0982  0.4291
28001SOL    HW191053   9.405   4.325  12.553  1.5353 -0.5377  1.1617
28001SOL    HW291054   9.369   4.463  12.505 -1.5868 -1.7452 -0.2551
28002SOL     OW91055   7.970  10.291  12.257  0.3437 -0.4673  0.0832
28002SOL    HW191056   8.064  10.275  12.256  0.9251  2.4300 -1.4856
28002SOL    HW291057   7.961  10.384  12.276 -2.1204 -0.3275 -1.2993
28003SOL     OW91058   9.403   5.026   7.064  0.0631  0.6117  0.6476
28003SOL    HW191059   9.361   4.949   7.026  0.6360 -0.5961  2.3206
28003SOL    HW291060   9.338   5.060   7.126  0.9660 -0.5187  2.3084
28004SOL     OW91061   5.967   2.469   0.341 -0.1477 -0.2982 -0.2203
28004SOL    HW191062   6.017   2.529   0.397 -1.8873  1.0426 -0.0533
28004SOL    HW291063   5.896   2.522   0.306 -1.9629 -2.3364  0.2002
28005SOL     OW91064   7.826  11.995   8.948  0.3587 -0.1366  0.4192
28005SOL    HW191065   7.897  11.992   9.012 -0.2575  1.9514  1.2513
28005SOL    HW291066   7.816  12.088   8.927 -0.4208 -0.6293 -1.6538
28006SOL     OW91067  10.289   8.621   9.634 -0.1607  0.8838  0.1240
28006SOL    HW191068  10.201   8.586   9.645 -0.0483  1.0741  1.8028
28006SOL    HW291069  10.337   8.551   9.589 -0.3777 -0.5137  1.9341
28007SOL     OW91070   8.134   1.653   9.273 -0.4706  0.2249  0.0295
28007SOL    HW191071   8.230   1.661   9.277 -0.3458 -0.2920 -1.5784
28007SOL    HW291072   8.104   1.740   9.247 -0.3805  0.1620 -0.2834
28008SOL     OW91073   0.378  10.263   1.799 -0.1678 -0.5305 -0.4896
28008SOL    HW191074   0.306  10.311   1.759  0.5748  0.6399 -0.4820
28008SOL    HW291075   0.442  10.252   1.729  0.1973 -0.4011 -0.1853
28009SOL     OW91076   0.178  12.288   0.168 -0.0778 -0.0162  0.0996
28009SOL    HW191077   0.096  12.242   0.149 -0.2411  0.3134 -0.0168
28009SOL    HW291078   0.217  12.302   0.081  0.2513 -0.4450  0.1794
28010SOL     OW91079   8.541  11.478  10.733  0.0673 -0.1445  0.3709
28010SOL    HW191080   8.489  11.399  10.719  0.6171 -0.6957  1.3442
28010SOL    HW291081   8.496  11.524  10.804 -0.0524  0.2469  0.0461
28011SOL     OW91082   4.448   3.433   2.207 -0.1347  0.1050  0.4528
28011SOL    HW191083   4.402   3.369   2.153  0.6610 -1.5148  1.5935
28011SOL    HW291084   4.504   3.480   2.146  0.4260 -1.3724 -0.2293
28012SOL     OW91085  11.065  11.434   8.301  0.1555 -0.2298  0.1451
28012SOL    HW191086  11.023  11.353   8.332  0.3573  0.4652  2.4549
28012SOL    HW291087  10.995  11.483   8.259 -0.3994 -0.8422  0.3420
28013SOL     OW91088   5.649   3.025   1.784  0.1986 -0.4736 -0.0067
28013SOL    HW191089   5.645   2.948   1.727  1.8452  0.2840 -1.2389
28013SOL    HW291090   5.621   3.098   1.728  0.7553  0.1268  0.4691
28014SOL     OW91091  12.420   1.352   6.505 -0.0748 -0.2630  0.1559
28014SOL    HW191092  12.367   1.359   6.584 -0.9774 -0.8008 -0.3830
28014SOL    HW291093  12.445   1.260   6.500 -3.3084 -1.1939 -2.1794
28015SOL     OW91094   4.489   8.847  10.002  0.0110 -0.2542 -0.7342
28015SOL    HW191095   4.454   8.776  10.055  1.7007  0.8255  2.0160
28015SOL    HW291096   4.520   8.804   9.922 -2.1486 -2.0296 -0.6976
28016SOL     OW91097   1.425  10.983   1.090  0.5284  0.4741 -0.0562
28016SOL    HW191098   1.509  11.003   1.048  1.3850 -0.8727  0.9400
28016SOL    HW291099   1.448  10.958   1.179 -0.9751  0.3640  0.3225
28017SOL     OW91100   6.427   6.234   1.549  0.0984 -0.0274  0.7911
28017SOL    HW191101   6.435   6.216   1.642 -0.7335  1.8113  1.2626
28017SOL    HW291102   6.406   6.149   1.510  1.0932 -0.9459  2.1622
28018SOL     OW91103  10.422   4.241   6.895  0.3241  0.0118  0.3781
28018SOL    HW191104  10.345   4.187   6.916 -0.0091  0.4664  0.3315
28018SOL    HW291105  10.448   4.212   6.807 -1.3966  1.6745 -0.7466
28019SOL     OW91106   4.956  10.237   8.781  0.2733  0.2860  0.1295
28019SOL    HW191107   5.010  10.171   8.825  1.0833  0.4264 -0.6280
28019SOL    HW291108   5.015  10.311   8.767 -0.3814  0.8242  0.1505
28020SOL     OW91109   9.260   0.469  11.072 -0.4246 -0.8110  0.0234
28020SOL    HW191110   9.183   0.413  11.077 -0.0527 -1.3408 -0.1302
28020SOL    HW291111   9.299   0.450  10.987 -0.0509 -0.6398  0.1524
28021SOL     OW91112  12.110   0.683   2.652 -0.3360 -0.1550 -0.3772
28021SOL    HW191113  12.022   0.700   2.685 -0.6641 -0.5287 -1.0372
28021SOL    HW291114  12.109   0.590   2.628  0.2807 -0.1973 -0.2591
28022SOL     OW91115   6.013  10.175   3.406  0.0547 -0.0876 -0.2396
28022SOL    HW191116   5.933  10.158   3.356 -0.6570  0.6041  0.6281
28022SOL    HW291117   6.083  10.175   3.341 -0.9058  1.2897 -1.3185
28023SOL     OW91118   4.200   9.998  11.042 -0.7175 -0.4242 -0.5739
28023SOL    HW191119   4.217   9.955  10.958 -2.4664 -1.9164 -0.2292
28023SOL    HW291120   4.286  10.029  11.071  0.4439 -2.5174 -1.5336
28024SOL     OW91121  12.534   3.124   3.937  0.0043  0.2597  0.1364
28024SOL    HW191122  12.540   3.220   3.940  0.3833  0.2519 -0.2556
28024SOL    HW291123  12.586   3.100   3.860 -1.8346 -0.1062 -1.0563
28025SOL     OW91124   7.629   1.221   9.042  0.1540  0.1348  0.2013
28025SOL    HW191125   7.611   1.306   9.002  2.6351  0.9641  0.6854
28025SOL    HW291126   7.676   1.241   9.123  3.0096 -1.6580 -0.8493
28026SOL     OW91127  10.117  11.062  11.054 -0.5006 -0.2080  0.3558
28026SOL    HW191128  10.082  10.973  11.055 -0.1999 -0.3297  0.0020
28026SOL    HW291129  10.192  11.058  10.995 -0.7308  0.3703  0.0123
28027SOL     OW91130   8.688   5.292   2.750 -0.3329 -0.1400  0.5240
28027SOL    HW191131   8.732   5.255   2.674 -0.8273 -0.2468  0.2868
28027SOL    HW291132   8.596   5.299   2.724 -0.4403  0.1874  0.9709
28028SOL     OW91133  12.298  11.493   5.546 -0.8023 -0.0244  0.6354
28028SOL    HW191134  12.211  11.532   5.544 -0.4244  0.8825  1.2103
28028SOL    HW291135  12.329  11.507   5.636 -0.5430 -1.4309  0.7903
28029SOL     OW91136   3.230   1.970   6.032 -0.4884  0.2231 -0.0377
28029SOL    HW191137   3.186   1.892   6.066 -1.4626  1.0057  0.5663
28029SOL    HW291138   3.221   1.963   5.937 -1.3782  0.0353  0.0457
28030SOL     OW91139   0.892   2.466   7.854 -0.0081  0.4721 -0.2572
28030SOL    HW191140   0.894   2.415   7.773 -0.8439  0.7219 -0.4454
28030SOL    HW291141   0.857   2.405   7.919 -3.2565  1.3790 -0.9657
28031SOL     OW91142  12.572   2.096   0.376 -0.1763  0.3856  0.1440
28031SOL    HW191143  12.555   2.027   0.311 -0.6512  0.7186 -0.0935
28031SOL    HW291144  12.494   2.151   0.372  0.3208  1.0917  0.1433
28032SOL     OW91145   6.342   5.440   4.503  0.3829  0.0224 -0.0706
28032SOL    HW191146   6.348   5.535   4.516 -0.5023  0.2394 -1.0606
28032SOL    HW291147   6.404   5.422   4.432  0.4006 -0.1072 -0.0219
28033SOL     OW91148   3.192   9.541   9.295 -0.3077 -0.1592  0.4593
28033SOL    HW191149   3.114   9.485   9.291 -1.0313  0.9104 -1.8397
28033SOL    HW291150   3.159   9.629   9.279  1.1113  0.6757  1.8508
28034SOL     OW91151   9.270   3.937   2.644  0.1359 -0.0877 -0.7212
28034SOL    HW191152   9.320   3.941   2.725  0.7576  0.3737 -1.1135
28034SOL    HW291153   9.335   3.916   2.577 -0.1333  0.8488 -1.2951
28035SOL     OW91154   9.106   1.835   0.924 -0.0623  0.2953  0.2636
28035SOL    HW191155   9.145   1.798   1.003  0.8951 -1.1302 -0.8298
28035SOL    HW291156   9.166   1.905   0.898 -1.0769  1.6705  1.4945
28036SOL     OW91157   7.432  10.961   0.873  0.3279  0.5476 -0.6065
28036SOL    HW191158   7.438  10.888   0.935 -1.3570  0.7345 -0.1781
28036SOL    HW291159   7.516  11.005   0.880  0.7848 -0.4270  0.3109
28037SOL     OW91160   3.144  10.428   0.265  0.6223  0.1516  0.1285
28037SOL    HW191161   3.145  10.379   0.347 -0.4949 -0.6587 -0.3139
28037SOL    HW291162   3.130  10.362   0.197 -1.3262  1.0777 -0.4481
28038SOL     OW91163   8.880   4.474   6.799  0.4918  0.4592  0.3308
28038SOL    HW191164   8.796   4.428   6.801  0.5464  0.3959  1.5924
28038SOL    HW291165   8.904   4.475   6.706 -0.0858 -0.9974  0.1470
28039SOL     OW91166   0.825   8.569   6.586 -0.2699 -0.0992  0.2891
28039SOL    HW191167   0.765   8.555   6.513 -0.8483  0.8319  0.5634
28039SOL    HW291168   0.912   8.573   6.546 -0.5103 -0.3008 -0.2586
28040SOL     OW91169   4.605  11.870   6.540 -0.2286  0.1174 -0.0782
28040SOL    HW191170   4.654  11.939   6.585  0.0918 -0.3863  0.3633
28040SOL    HW291171   4.568  11.913   6.463  0.9344  0.5258 -0.4446
28041SOL     OW91172   4.434   2.361  10.948 -0.1797  0.1526  0.5341
28041SOL    HW191173   4.501   2.300  10.978  0.9462  1.1926  0.1844
28041SOL    HW291174   4.354   2.308  10.942  0.6629 -1.1664  0.6883
28042SOL     OW91175   6.697   4.458  10.061  0.1867 -0.0475 -0.5222
28042SOL    HW191176   6.760   4.424   9.998  0.0289 -1.5554  0.0795
28042SOL    HW291177   6.745   4.464  10.143 -0.3070 -0.7877 -0.1612
28043SOL     OW91178   5.347  10.852   0.793  0.3457 -0.5463  0.2178
28043SOL    HW191179   5.357  10.776   0.735 -0.5668 -0.1495 -0.4953
28043SOL    HW291180   5.327  10.815   0.879  2.1232 -1.1617  0.4075
28044SOL     OW91181  11.682   9.500   9.426  0.1708 -0.5132  0.0214
28044SOL    HW191182  11.612   9.437   9.409  0.1288 -0.2096 -1.0180
28044SOL    HW291183  11.727   9.465   9.503 -0.5311 -1.2212  0.1305
28045SOL     OW91184   1.446   6.974   4.615  0.1404  0.1009 -0.0004
28045SOL    HW191185   1.491   6.922   4.681  0.0166  1.5455  1.2899
28045SOL    HW291186   1.505   7.047   4.598 -1.2626  1.5795  1.0956
28046SOL     OW91187   0.761   5.134   7.086  0.3652 -0.3106  0.1800
28046SOL    HW191188   0.704   5.080   7.141 -0.6360 -1.7279 -2.0933
28046SOL    HW291189   0.839   5.149   7.140 -0.3466 -1.9901  1.7897
28047SOL     OW91190   7.807   4.029  12.528 -0.1274 -0.0932  0.1601
28047SOL    HW191191   7.835   4.013  12.437 -0.4559 -1.1243  0.2229
28047SOL    HW291192   7.887   4.058  12.573  0.4188 -1.1190 -0.1031
28048SOL     OW91193  12.561  12.185   5.724 -0.0709 -0.3325  0.3888
28048SOL    HW191194  12.584  12.202   5.816 -1.1111 -1.0518  0.8055
28048SOL    HW291195  12.625  12.119   5.695  0.1563 -0.2301  0.6526
28049SOL     OW91196   1.673   0.604   0.614  0.2213  0.3300 -0.4236
28049SOL    HW191197   1.763   0.584   0.642 -0.4456  1.1445  2.6310
28049SOL    HW291198   1.671   0.700   0.608  0.1005  0.2388 -2.7821
28050SOL     OW91199   3.362  11.404  11.298 -0.5036 -0.0651  0.3097
28050SOL    HW191200   3.381  11.416  11.391  0.8636  1.0404 -0.0809
28050SOL    HW291201   3.426  11.340  11.268  0.6734  1.3408 -0.3357
28051SOL     OW91202   6.646   4.881   6.586  0.2918  0.0651 -0.5509
28051SOL    HW191203   6.620   4.933   6.662 -1.1174 -1.5805  0.1741
28051SOL    HW291204   6.583   4.809   6.584  2.1290 -1.6310 -1.4705
28052SOL     OW91205   4.751   2.592   9.491  0.6482  0.7393 -0.2213
28052SOL    HW191206   4.741   2.516   9.548 -0.1219  2.1907  1.6974
28052SOL    HW291207   4.846   2.599   9.477  0.8849  0.4198  1.0599
28053SOL     OW91208   7.914   0.591   3.898  0.1986  0.7219 -0.0704
28053SOL    HW191209   7.995   0.642   3.901  0.2498  0.6929 -0.7443
28053SOL    HW291210   7.847   0.651   3.933  0.2620  1.2541 -0.8362
28054SOL     OW91211   5.395   2.628   2.448  0.0425  0.4237  0.1293
28054SOL    HW191212   5.459   2.673   2.393 -0.1637  0.0163 -0.4610
28054SOL    HW291213   5.397   2.537   2.417  0.1110  0.1265  0.9781
28055SOL     OW91214   7.956   4.694   2.964  0.1668  0.2803 -0.5327
28055SOL    HW191215   7.890   4.685   3.033 -0.1492 -0.5437 -0.9364
28055SOL    HW291216   8.002   4.775   2.986  1.4980 -0.9914  1.9028
28056SOL     OW91217   5.075   5.454   5.208  0.4992  0.2994  0.1934
28056SOL    HW191218   4.981   5.447   5.218  0.8032 -1.3851  3.2271
28056SOL    HW291219   5.089   5.465   5.114 -2.6709  0.3606 -0.3638
28057SOL     OW91220  11.436   5.078  10.184 -0.0670  0.1234 -0.6958
28057SOL    HW191221  11.498   5.126  10.129 -1.5230  0.3947 -2.1553
28057SOL    HW291222  11.445   5.118  10.271  2.0927 -0.1475 -0.7371
28058SOL     OW91223  10.060   2.549  11.015 -0.2048 -0.5240 -0.0639
28058SOL    HW191224  10.106   2.627  11.047  2.3834 -2.3093  0.9553
28058SOL    HW291225  10.120   2.511  10.951 -2.3257 -0.6638 -2.0742
28059SOL     OW91226   5.965   1.609   4.534 -0.5954  0.2859  0.2236
28059SOL    HW191227   5.876   1.616   4.500 -0.8021  1.7530  1.0399
28059SOL    HW291228   5.963   1.651   4.619  0.5630 -0.9488  0.9089
28060SOL     OW91229  11.171  10.833   4.426 -0.2101 -0.1331  1.0120
28060SOL    HW191230  11.148  10.742   4.446 -0.5406 -0.7716 -1.8095
28060SOL    HW291231  11.099  10.865   4.372  0.2131  1.6259  1.4215
28061SOL     OW91232   8.521  11.160   5.372 -0.0603 -0.3990 -0.5304
28061SOL    HW191233   8.471  11.239   5.351  0.0680 -0.2886 -0.4268
28061SOL    HW291234   8.467  11.113   5.435 -0.9656 -1.2933 -1.9248
28062SOL     OW91235  12.325   2.556   9.349  0.1216 -0.0510 -0.4237
28062SOL    HW191236  12.298   2.495   9.280 -0.9649  0.9720 -0.9391
28062SOL    HW291237  12.264   2.629   9.341  0.9318  0.7703  0.6601
28063SOL     OW91238  11.642   3.480   9.287  0.5745 -0.2924 -0.1234
28063SOL    HW191239  11.549   3.495   9.303  0.8913  0.7474  0.8014
28063SOL    HW291240  11.649   3.478   9.191 -0.1180  1.4673 -0.2401
28064SOL     OW91241  12.246   3.429   7.587  0.4972  0.1505  0.1998
28064SOL    HW191242  12.258   3.430   7.682 -1.7689 -0.1769  0.5459
28064SOL    HW291243  12.194   3.508   7.569  0.3206 -0.1608 -0.6803
28065SOL     OW91244  10.860   1.841   0.771  0.4607  0.8177  0.1182
28065SOL    HW191245  10.850   1.928   0.731  1.1542  1.3607  1.0876
28065SOL    HW291246  10.802   1.843   0.847  0.5662  0.4653  0.2093
28066SOL     OW91247  12.431   9.725   8.879 -0.2248  0.4084 -0.2954
28066SOL    HW191248  12.491   9.664   8.837 -0.1023  0.5780 -0.3650
28066SOL    HW291249  12.351   9.719   8.826 -0.8768 -1.0884  0.7776
28067SOL     OW91250   1.301  10.416   6.371 -0.2603  0.3280  0.5780
28067SOL    HW191251   1.225  10.406   6.313  0.3248  1.6537 -0.4531
28067SOL    HW291252   1.377  10.412   6.313  0.3886  0.5571  1.3962
28068SOL     OW91253   2.557   0.433  10.441 -0.1483 -0.2622  0.3394
28068SOL    HW191254   2.624   0.491  10.405 -2.2388  0.8602 -2.0528
28068SOL    HW291255   2.486   0.491  10.468 -1.3758 -1.5638  0.0304
28069SOL     OW91256   3.122   4.681   8.421  0.6906  0.2325 -0.8268
28069SOL    HW191257   3.115   4.586   8.406  1.9181  0.2292 -1.4505
28069SOL    HW291258   3.146   4.688   8.513 -0.2614 -0.0091 -0.5411
28070SOL     OW91259   4.165   5.066   2.340 -0.4583  0.0392 -0.3865
28070SOL    HW191260   4.169   4.995   2.276  0.6638 -1.8866  1.7182
28070SOL    HW291261   4.212   5.138   2.298  2.4696 -1.9725 -0.8561
28071SOL     OW91262   9.469   0.455  10.297  0.3056  0.4905 -0.3059
28071SOL    HW191263   9.389   0.403  10.294 -0.2379  1.3320 -0.8021
28071SOL    HW291264   9.524   0.418  10.228 -0.1565  0.6849 -0.7886
28072SOL     OW91265  12.277   7.305   0.877  0.7251 -0.6897 -0.7109
28072SOL    HW191266  12.315   7.393   0.873 -1.8145  0.5683  0.2987
28072SOL    HW291267  12.251   7.286   0.787  0.1535  0.1703 -0.7389
28073SOL     OW91268  10.567   0.217   5.982  0.4250  0.1182 -0.1073
28073SOL    HW191269  10.577   0.129   6.018  0.7232 -0.0253 -0.5360
28073SOL    HW291270  10.556   0.274   6.059  1.3868 -0.1352  0.2308
28074SOL     OW91271   2.080  12.540   3.628 -0.0701 -0.3670 -0.4511
28074SOL    HW191272   2.035  12.623   3.613  2.7850  1.5480  0.7538
28074SOL    HW291273   2.067  12.490   3.547 -3.6072  0.2828 -0.4416
28075SOL     OW91274   2.445   0.868  11.347  0.4173 -0.1043  0.0843
28075SOL    HW191275   2.397   0.895  11.269  0.0485 -1.3262 -0.1353
28075SOL    HW291276   2.489   0.787  11.321 -0.2015 -0.8608  1.3037
28076SOL     OW91277   7.154   1.116  10.401 -0.3628  0.9095 -0.5093
28076SOL    HW191278   7.135   1.059  10.326  0.9116  0.1362 -0.2935
28076SOL    HW291279   7.249   1.131  10.396  0.0830 -0.5580  1.8543
28077SOL     OW91280   5.658   8.500   4.859 -0.0452 -0.3981 -0.0931
28077SOL    HW191281   5.583   8.486   4.918  1.7988 -0.3570  2.4267
28077SOL    HW291282   5.724   8.438   4.889  0.6941 -1.0490 -2.8279
28078SOL     OW91283   9.500   9.193   8.413 -0.0538  0.3380 -0.8338
28078SOL    HW191284   9.498   9.156   8.324 -1.2647  0.5626 -0.9191
28078SOL    HW291285   9.588   9.228   8.422  0.3563 -0.4312 -1.6367
28079SOL     OW91286   7.892   1.255   2.429 -0.3748 -0.3986  0.1068
28079SOL    HW191287   7.906   1.259   2.334 -1.2617  1.2850  0.0236
28079SOL    HW291288   7.936   1.174   2.455 -0.7389 -1.3035 -1.8454
28080SOL     OW91289   8.988  11.957   6.439 -0.4810  0.4701 -0.0734
28080SOL    HW191290   9.039  12.037   6.451 -0.3083  0.4246 -0.4872
28080SOL    HW291291   8.985  11.918   6.526  0.6583  0.2009 -0.1397
28081SOL     OW91292   1.048   3.502  12.448 -0.3772  0.0412 -0.2023
28081SOL    HW191293   0.992   3.506  12.525 -1.1484  0.6667 -0.7677
28081SOL    HW291294   1.092   3.418  12.454 -0.8094 -0.1342  0.6599
28082SOL     OW91295   7.764   3.742   8.104  0.2103 -0.0796 -0.0823
28082SOL    HW191296   7.778   3.647   8.105 -2.7666 -0.6204  1.8319
28082SOL    HW291297   7.830   3.776   8.165 -0.9890 -1.4508  2.1299
28083SOL     OW91298   1.456   1.137  12.393  0.1548  1.0605 -0.1782
28083SOL    HW191299   1.368   1.107  12.419  1.3205 -0.6321  2.2191
28083SOL    HW291300   1.449   1.232  12.390 -1.6054  0.9979  0.6683
28084SOL     OW91301   7.690  10.930   6.597  0.0906 -0.0263  0.4655
28084SOL    HW191302   7.773  10.883   6.595 -0.6799 -1.3938 -0.4060
28084SOL    HW291303   7.644  10.895   6.673  0.1135  0.4025  0.6807
28085SOL     OW91304   4.459   8.950   0.401  0.9136  0.0723  0.0312
28085SOL    HW191305   4.478   8.988   0.486 -1.9790  0.8208  0.4700
28085SOL    HW291306   4.462   9.024   0.340 -1.7803  0.5737  0.3858
28086SOL     OW91307   4.221  12.165   1.686 -0.4710 -0.1708  0.0377
28086SOL    HW191308   4.169  12.154   1.606 -1.4687  1.9725  0.3106
28086SOL    HW291309   4.299  12.112   1.672 -0.7657 -0.1038 -2.2400
28087SOL     OW91310  10.315   6.617   9.675 -0.1842  0.3292 -0.0133
28087SOL    HW191311  10.313   6.618   9.771  0.6742  2.5123  0.0262
28087SOL    HW291312  10.388   6.558   9.654 -1.6996 -1.8690  0.5608
28088SOL     OW91313   9.003   5.882   8.963 -0.1135 -0.0485 -0.0847
28088SOL    HW191314   8.994   5.931   9.045 -0.3801  0.7229 -0.5636
28088SOL    HW291315   9.097   5.880   8.947  0.0696 -1.5457  1.0242
28089SOL     OW91316   8.300   4.678   7.554 -0.7013 -0.1426  0.2621
28089SOL    HW191317   8.226   4.617   7.555 -0.8260 -0.0081 -0.3727
28089SOL    HW291318   8.269   4.753   7.604 -0.7467 -0.3663  0.5756
28090SOL     OW91319  12.140   9.291   2.956 -0.6077  0.3073  0.0112
28090SOL    HW191320  12.226   9.267   2.990 -0.2399 -0.9571 -1.7049
28090SOL    HW291321  12.094   9.328   3.032  0.9168 -0.3362  1.3064
28091SOL     OW91322   8.049   6.986  10.323  0.4441  0.8956  0.2504
28091SOL    HW191323   8.085   7.074  10.336 -0.5034  1.1402  1.3696
28091SOL    HW291324   8.110   6.944  10.262  1.3135  2.0771  0.2710
28092SOL     OW91325  12.354   3.662   5.329  0.1604 -0.1737  0.1303
28092SOL    HW191326  12.364   3.679   5.236 -2.8668 -1.1088 -0.4891
28092SOL    HW291327  12.408   3.585   5.346  1.1129  0.2881 -0.6826
28093SOL     OW91328  12.199   2.647   2.289  0.4241  0.0602 -0.0522
28093SOL    HW191329  12.132   2.653   2.357 -1.7957  0.7514 -2.1402
28093SOL    HW291330  12.221   2.738   2.270 -2.0466  0.2576 -2.9014
28094SOL     OW91331  10.591   5.968   2.738  0.5973 -0.2955 -0.1954
28094SOL    HW191332  10.506   5.962   2.783 -0.3162 -1.1623 -1.9359
28094SOL    HW291333  10.645   6.022   2.796 -1.9428  2.5337 -0.1893
28095SOL     OW91334   5.520   8.205   6.361  0.0155 -0.4637 -0.1497
28095SOL    HW191335   5.534   8.114   6.334  0.0938 -0.0187 -1.6989
28095SOL    HW291336   5.598   8.251   6.328 -1.1271  0.5703 -1.5211
28096SOL     OW91337   8.379   5.859   1.385  0.4668 -0.1812 -0.4337
28096SOL    HW191338   8.381   5.765   1.402 -1.1120 -0.3141 -0.8692
28096SOL    HW291339   8.436   5.871   1.309 -0.7401 -1.0618 -1.5100
28097SOL     OW91340   5.103   5.130   0.276  0.7934  0.0642 -0.5233
28097SOL    HW191341   5.036   5.099   0.337  0.2000  2.0344 -0.1017
28097SOL    HW291342   5.185   5.116   0.322  0.5090 -0.3393 -0.1241
28098SOL     OW91343   2.481   9.897  10.692  0.0721  0.4301  0.4005
28098SOL    HW191344   2.535   9.824  10.723 -1.0406 -0.5958  0.0359
28098SOL    HW291345   2.543   9.966  10.671  1.4324 -1.3010 -1.6571
28099SOL     OW91346   1.442  10.268   8.590 -0.0465  0.3834 -0.4768
28099SOL    HW191347   1.485  10.205   8.531 -0.4543  1.5564 -2.1125
28099SOL    HW291348   1.515  10.311   8.635  0.2719 -0.6750  0.0388
28100SOL     OW91349   4.003  12.301   4.996  0.0336 -0.2954  0.0965
28100SOL    HW191350   3.966  12.358   4.928 -1.6515 -1.7643 -0.2895
28100SOL    HW291351   3.985  12.348   5.078  2.7581  1.8612 -0.3927
28101SOL     OW91352   3.221   9.833   6.090 -0.6154 -0.3094  0.3548
28101SOL    HW191353   3.127   9.816   6.094 -0.9196  1.0950 -0.1947
28101SOL    HW291354   3.237   9.859   5.999  0.1856  0.0836  0.5990
28102SOL     OW91355   8.268   9.428  10.239 -0.7532 -0.2791 -0.0029
28102SOL    HW191356   8.174   9.411  10.246 -0.8030  0.5431  2.3828
28102SOL    HW291357   8.306   9.385  10.316  0.7202  0.0482 -0.5081
28103SOL     OW91358  12.093   3.649   9.994 -0.4174 -0.0436 -0.0138
28103SOL    HW191359  12.129   3.723  10.042 -1.3949  0.5853 -0.2381
28103SOL    HW291360  12.141   3.573  10.028 -0.7852  0.4332  1.6719
28104SOL     OW91361   3.820   4.466   9.650  0.1218 -0.1259  0.5286
28104SOL    HW191362   3.807   4.424   9.735  1.3049 -3.5356 -0.7618
28104SOL    HW291363   3.742   4.443   9.600  0.9580 -1.2515 -0.3231
28105SOL     OW91364   6.479  10.240   3.908 -0.3591 -0.2035  0.3202
28105SOL    HW191365   6.414  10.171   3.925 -0.6244  0.1581  0.8352
28105SOL    HW291366   6.432  10.321   3.930 -0.5931  0.2900 -1.8066
28106SOL     OW91367   3.903  12.123   3.456 -0.5100 -0.4698 -0.2478
28106SOL    HW191368   3.992  12.117   3.422 -0.2852 -1.2099  0.4487
28106SOL    HW291369   3.890  12.216   3.472 -0.4938 -0.1377 -1.9790
28107SOL     OW91370  10.062   7.330  11.640 -0.4484 -0.2836 -0.3608
28107SOL    HW191371  10.157   7.339  11.646 -0.3563 -1.6355  1.0585
28107SOL    HW291372  10.035   7.310  11.730 -2.0587 -0.0818 -0.7757
28108SOL     OW91373   0.263   0.465   4.152 -0.0263 -0.4647 -0.4812
28108SOL    HW191374   0.190   0.516   4.188 -0.4004  0.3441 -2.3056
28108SOL    HW291375   0.333   0.478   4.215 -0.3515  1.7305 -0.4876
28109SOL     OW91376  12.145   8.959   0.995  0.1780  0.3332 -0.0596
28109SOL    HW191377  12.200   8.885   1.023 -1.1226 -0.6521 -0.0191
28109SOL    HW291378  12.121   9.003   1.076 -0.1249  0.0029  0.0328
28110SOL     OW91379   4.878  10.868   1.866 -0.3832 -0.2286  0.1803
28110SOL    HW191380   4.787  10.875   1.892 -0.7001 -0.3078 -0.8655
28110SOL    HW291381   4.921  10.822   1.938 -1.0624  0.2341  0.8949
28111SOL     OW91382   8.526  10.179  11.353 -0.5815  0.2891 -0.8627
28111SOL    HW191383   8.582  10.253  11.376 -2.3641  0.7505  2.6681
28111SOL    HW291384   8.583  10.102  11.362  0.7313  1.0102 -2.4804
28112SOL     OW91385   1.482  12.364   6.173  0.1612  0.2939  0.2428
28112SOL    HW191386   1.546  12.350   6.103  0.8942  2.2157  0.4501
28112SOL    HW291387   1.450  12.453   6.158 -1.1046  0.0362  1.2379
28113SOL     OW91388  12.448  10.654   4.444  0.1259 -0.2072  0.3064
28113SOL    HW191389  12.395  10.733   4.462  0.4026  0.6282 -2.1967
28113SOL    HW291390  12.538  10.684   4.449  0.2258  0.0807 -2.1434
28114SOL     OW91391  10.752   5.265   3.103 -1.1383 -0.3321  0.6262
28114SOL    HW191392  10.831   5.268   3.158 -0.9131 -0.4757  0.3134
28114SOL    HW291393  10.693   5.206   3.150 -0.5913 -1.1869  0.2568
28115SOL     OW91394   3.594   2.133   4.248  0.5204 -0.2675  0.1817
28115SOL    HW191395   3.502   2.107   4.240  0.4988 -0.2707  0.4276
28115SOL    HW291396   3.637   2.093   4.172  0.2658 -0.0215 -0.0958
28116SOL     OW91397  10.756   0.185   6.993 -0.4536 -0.4971  0.1478
28116SOL    HW191398  10.665   0.155   6.990 -0.0664 -1.9095  1.2217
28116SOL    HW291399  10.807   0.110   6.961  0.3305  0.3277 -0.5736
28117SOL     OW91400   3.258  10.480   8.927  0.2933  0.2007  0.3104
28117SOL    HW191401   3.201  10.548   8.962 -0.2489 -0.1720  0.1731
28117SOL    HW291402   3.272  10.420   9.000  0.8506  0.5060  0.4586
28118SOL     OW91403  10.700   6.686   9.427  0.1589  0.0118 -0.4280
28118SOL    HW191404  10.753   6.710   9.351  1.6413  1.8833  1.0693
28118SOL    HW291405  10.693   6.591   9.423  1.5409 -0.0621 -2.0526
28119SOL     OW91406   0.848   5.344   8.422  0.2224 -0.3652 -0.1009
28119SOL    HW191407   0.904   5.287   8.475 -1.5924  0.6620  3.2301
28119SOL    HW291408   0.842   5.300   8.337  3.1289 -2.2985  0.5363
28120SOL     OW91409  11.512  11.233  12.195 -1.0324 -0.5571  0.1820
28120SOL    HW191410  11.428  11.196  12.165 -2.2217  0.5072  2.0030
28120SOL    HW291411  11.489  11.284  12.273  1.4388 -0.7832  1.1391
28121SOL     OW91412   3.315   1.552   4.529 -0.2508 -0.6775  0.2627
28121SOL    HW191413   3.393   1.496   4.524 -1.1920 -1.9346 -1.3102
28121SOL    HW291414   3.261   1.512   4.597 -0.1159 -0.5794  0.4292
28122SOL     OW91415   9.547   0.201   8.252  0.6205 -0.2588 -0.4041
28122SOL    HW191416   9.556   0.119   8.301 -0.2211 -0.6409 -0.8654
28122SOL    HW291417   9.556   0.270   8.318  1.1828 -0.7183  0.0129
28123SOL     OW91418   5.498   7.587   6.802 -0.1279  0.1704  0.1557
28123SOL    HW191419   5.540   7.673   6.802  0.2449  0.0578  2.5724
28123SOL    HW291420   5.570   7.526   6.786 -0.0436  0.2136  0.3563
28124SOL     OW91421   5.368   1.293   8.930 -0.5425 -0.5185  0.4666
28124SOL    HW191422   5.307   1.222   8.949 -0.5382 -0.4177  0.8546
28124SOL    HW291423   5.325   1.344   8.862 -1.8791  0.8113  2.2261
28125SOL     OW91424   4.280  11.793   3.458  0.1855 -0.3227 -0.2997
28125SOL    HW191425   4.354  11.790   3.397 -0.2232 -0.3879 -0.7982
28125SOL    HW291426   4.307  11.855   3.526  0.7668 -0.4798 -0.3820
28126SOL     OW91427  10.277   7.886  10.241  0.1267  0.2462  0.6216
28126SOL    HW191428  10.309   7.802  10.208  1.2582  0.8034  0.2232
28126SOL    HW291429  10.252   7.869  10.331  0.6317 -0.4580  0.6372
28127SOL     OW91430   1.451   8.823   1.596 -0.5481  0.2105 -0.2763
28127SOL    HW191431   1.498   8.775   1.664 -0.8829  0.2810  0.0074
28127SOL    HW291432   1.507   8.899   1.579  1.2527 -1.4586 -2.4877
28128SOL     OW91433   6.569  11.817   5.368 -0.3610 -0.0920  0.8281
28128SOL    HW191434   6.622  11.795   5.292 -0.0334  0.3839  0.9192
28128SOL    HW291435   6.573  11.738   5.423 -0.9320 -0.5923  0.1793
28129SOL     OW91436   0.726   6.099   8.142 -0.2661  0.4114  0.4392
28129SOL    HW191437   0.754   6.061   8.226  1.7769  1.0176  0.0890
28129SOL    HW291438   0.690   6.185   8.165 -2.6107 -0.6299  0.9652
28130SOL     OW91439   8.831   8.638   7.486 -0.1809  0.0172 -0.1308
28130SOL    HW191440   8.853   8.654   7.578  1.0101 -1.6691 -0.0684
28130SOL    HW291441   8.901   8.681   7.436 -1.2019  1.5367 -0.3286
28131SOL     OW91442   3.485   9.563   3.693 -0.0931  0.0412 -0.2120
28131SOL    HW191443   3.541   9.640   3.683 -0.4801  0.2729 -0.6112
28131SOL    HW291444   3.422   9.589   3.760 -2.3155  1.3343 -2.6267
28132SOL     OW91445   9.170   1.618   7.175 -0.0209 -0.3596  0.0863
28132SOL    HW191446   9.116   1.540   7.161  0.6164 -0.9142  0.6563
28132SOL    HW291447   9.254   1.584   7.205 -0.2811  0.6268  2.0721
28133SOL     OW91448   7.679   7.029   0.598  0.5153 -0.3535 -0.3372
28133SOL    HW191449   7.660   7.033   0.504 -0.4509 -0.9776 -0.1840
28133SOL    HW291450   7.732   6.950   0.607  0.0236 -0.6841 -0.2771
28134SOL     OW91451   3.266   2.807  10.763  0.3235  0.1734 -0.2902
28134SOL    HW191452   3.317   2.726  10.762  1.1002  0.6467 -0.8428
28134SOL    HW291453   3.179   2.781  10.790  1.0243 -0.5630  1.3494
28135SOL     OW91454  10.946   6.617   7.232  0.2667  0.7029 -0.0716
28135SOL    HW191455  10.872   6.623   7.171 -0.7077 -0.7612  0.9090
28135SOL    HW291456  10.998   6.543   7.199  0.7441  1.0829 -0.1770
28136SOL     OW91457   4.601  10.307   4.228  0.1686 -0.1063  0.4918
28136SOL    HW191458   4.650  10.383   4.261  1.0298 -0.2609 -0.3697
28136SOL    HW291459   4.509  10.331   4.237  0.4313  0.8858  0.5987
28137SOL     OW91460   7.537   8.673  10.284  0.2695  0.2363  0.0570
28137SOL    HW191461   7.513   8.757  10.244 -0.4732 -0.6159 -1.3917
28137SOL    HW291462   7.629   8.683  10.309  0.1473  1.5251  0.0613
28138SOL     OW91463   4.550   0.227   2.287 -0.5467 -0.1777 -0.6434
28138SOL    HW191464   4.549   0.139   2.250 -2.7694 -1.3303  1.8071
28138SOL    HW291465   4.461   0.259   2.273 -0.2991  0.9044  0.1701
28139SOL     OW91466   1.117  10.252   4.093 -0.0884  0.3504  0.3812
28139SOL    HW191467   1.064  10.173   4.081 -0.1859  0.3537  0.7769
28139SOL    HW291468   1.203  10.229   4.059 -0.3180  0.3210 -0.2041
28140SOL     OW91469   0.109   4.704  12.499 -0.2487  0.0364 -0.3817
28140SOL    HW191470   0.119   4.777  12.560  0.4550 -0.8481  0.5867
28140SOL    HW291471   0.180   4.716  12.436  0.6240 -0.4778  0.4871
28141SOL     OW91472   9.537   9.058   2.447 -0.2870 -1.0260  0.8828
28141SOL    HW191473   9.488   9.075   2.367 -0.0691 -0.7657  0.8026
28141SOL    HW291474   9.539   8.963   2.454  2.5036 -1.2172 -1.1803
28142SOL     OW91475   6.139   6.531  11.982  0.7034 -0.0439  0.0584
28142SOL    HW191476   6.085   6.545  12.060 -0.1851  0.0653 -0.5594
28142SOL    HW291477   6.226   6.513  12.017  0.5396  0.9350  1.0530
28143SOL     OW91478  11.090   4.310   0.756 -0.2421  0.6179  0.5788
28143SOL    HW191479  11.014   4.321   0.813  0.4284 -2.4495  2.2651
28143SOL    HW291480  11.165   4.312   0.815  0.5097 -2.1341 -0.1419
28144SOL     OW91481   9.694   2.769   5.306 -0.0414  0.5696 -0.3236
28144SOL    HW191482   9.688   2.861   5.332 -2.5541  0.4039 -0.0906
28144SOL    HW291483   9.645   2.764   5.224 -0.1370 -0.6054 -0.2063
28145SOL     OW91484   9.591  11.782   1.546 -0.3748  0.2473 -0.1282
28145SOL    HW191485   9.682  11.809   1.533 -0.4526  0.1506 -0.9333
28145SOL    HW291486   9.595  11.722   1.621  0.5087 -1.1031 -1.1908
28146SOL     OW91487   7.377   5.349  11.557 -0.1339 -0.2382  0.2681
28146SOL    HW191488   7.351   5.343  11.649  2.2891  0.0369  1.0279
28146SOL    HW291489   7.468   5.378  11.559  0.0623 -0.4455 -2.2284
28147SOL     OW91490  11.964   9.666   8.619  0.4175  0.0047 -0.2264
28147SOL    HW191491  11.893   9.609   8.590 -1.1550  2.0424 -0.6343
28147SOL    HW291492  11.971   9.651   8.714  0.3715 -1.1728 -0.4032
28148SOL     OW91493   0.341   5.188   8.593 -0.2695  0.3426 -0.1562
28148SOL    HW191494   0.431   5.177   8.561 -0.7337  0.8556 -1.7081
28148SOL    HW291495   0.334   5.281   8.613 -0.6057  0.3925 -0.5060
28149SOL     OW91496  11.221  11.725   8.671  0.2561  0.2657 -0.3764
28149SOL    HW191497  11.194  11.696   8.584  0.7183 -0.1416 -0.3897
28149SOL    HW291498  11.309  11.689   8.682 -0.0099 -0.1734  0.4832
28150SOL     OW91499   2.474   5.262   8.587 -0.4627 -0.1880 -0.1375
28150SOL    HW191500   2.497   5.353   8.606  2.9540 -1.1055  0.7962
28150SOL    HW291501   2.539   5.234   8.523 -1.8172 -1.8600 -0.8559
28151SOL     OW91502   8.488   8.583   9.364 -0.7360  0.1923  0.0468
28151SOL    HW191503   8.418   8.590   9.298 -0.5810 -1.5848 -0.3444
28151SOL    HW291504   8.453   8.524   9.430 -0.2516  0.6571  0.7225
28152SOL     OW91505   2.202   8.024   7.821 -0.6393 -0.4124 -0.0908
28152SOL    HW191506   2.202   8.045   7.915  1.2361 -1.4745  0.2068
28152SOL    HW291507   2.180   8.106   7.778  2.3556  1.2061  1.1618
28153SOL     OW91508   2.519   7.855   3.670  0.2049  0.1638 -0.3448
28153SOL    HW191509   2.568   7.933   3.646  2.0567 -1.2530 -1.5172
28153SOL    HW291510   2.585   7.785   3.671 -1.6876 -1.7583 -1.5007
28154SOL     OW91511   3.060  10.694   4.149  0.4738  0.3886 -0.0785
28154SOL    HW191512   3.012  10.728   4.073 -2.1851 -1.1006  0.8136
28154SOL    HW291513   3.120  10.629   4.112 -0.6620 -0.1927 -0.9814
28155SOL     OW91514   8.822   6.140   1.440 -0.4216  0.3174 -0.5951
28155SOL    HW191515   8.824   6.046   1.456 -0.6170 -0.0900 -2.6160
28155SOL    HW291516   8.898   6.155   1.383 -0.7363  1.2808 -0.7680
28156SOL     OW91517   1.244   6.228   8.796  0.3658 -0.4568 -0.7286
28156SOL    HW191518   1.179   6.165   8.827 -0.1990  0.7335  0.6767
28156SOL    HW291519   1.210   6.259   8.712 -0.1334 -0.9112 -0.7001
28157SOL     OW91520   9.344   2.628   2.822  0.0766  0.4685 -0.0804
28157SOL    HW191521   9.255   2.593   2.814 -0.4902  1.5010  1.0844
28157SOL    HW291522   9.397   2.553   2.848 -1.1094  0.3757  2.4765
28158SOL     OW91523   8.377  12.002   4.945  0.3084  0.1757  0.8178
28158SOL    HW191524   8.418  12.087   4.935  1.1531 -0.3831 -0.7822
28158SOL    HW291525   8.446  11.939   4.921 -0.2269 -0.9781  2.1357
28159SOL     OW91526   4.148  10.741   2.679  0.5372  0.2286  0.8621
28159SOL    HW191527   4.150  10.657   2.725  1.1670 -0.1990  0.0840
28159SOL    HW291528   4.063  10.741   2.634 -0.0860  0.6567  2.0131
28160SOL     OW91529   4.062   4.459   3.519 -0.3025 -0.2463  0.5266
28160SOL    HW191530   3.992   4.396   3.502  0.9678 -1.1498 -1.9368
28160SOL    HW291531   4.126   4.411   3.571 -1.0483  0.2824  1.9695
28161SOL     OW91532   0.063   3.665   1.764 -0.1911 -0.3338 -0.2398
28161SOL    HW191533   0.106   3.604   1.824  2.2813  1.8458  0.4018
28161SOL    HW291534   0.009   3.720   1.821 -1.0982 -0.8485 -0.5912
28162SOL     OW91535   0.100   0.764   3.997 -0.2138 -0.3162  0.0822
28162SOL    HW191536   0.004   0.764   4.005 -0.3928 -0.0611 -1.5935
28162SOL    HW291537   0.130   0.711   4.071 -1.6525 -0.3916  0.6486
28163SOL     OW91538   5.225  12.299   0.666  0.0460  0.3094  0.4424
28163SOL    HW191539   5.200  12.213   0.632  0.9018  0.4528 -0.5881
28163SOL    HW291540   5.145  12.332   0.708  0.2204 -1.7857  2.6133
28164SOL     OW91541   8.627   5.452   7.991 -0.0102  0.2454  0.2438
28164SOL    HW191542   8.548   5.449   7.937  0.0752  0.2596  0.1179
28164SOL    HW291543   8.624   5.371   8.043  0.2950 -0.1398 -0.3293
28165SOL     OW91544   3.696   6.534   6.444 -0.3374 -0.1173 -0.2415
28165SOL    HW191545   3.640   6.532   6.522  0.0753 -0.3988  0.0556
28165SOL    HW291546   3.779   6.496   6.474 -0.2129 -0.3317 -0.8486
28166SOL     OW91547   0.103   6.858   9.473 -0.5261 -0.4517  0.7724
28166SOL    HW191548   0.052   6.784   9.505 -2.8032  0.2549 -0.9288
28166SOL    HW291549   0.128   6.833   9.384  0.1762  0.1536  0.7866
28167SOL     OW91550   0.274   2.796   5.976  0.0364  0.2053  0.5337
28167SOL    HW191551   0.355   2.838   6.005  0.3468  1.6377 -2.1266
28167SOL    HW291552   0.211   2.867   5.970 -1.1408 -0.7161  1.5065
28168SOL     OW91553  11.739   1.461   9.736 -0.1939  0.1663 -0.3647
28168SOL    HW191554  11.729   1.502   9.822  1.1096 -1.0273  0.4029
28168SOL    HW291555  11.670   1.394   9.733  0.5850 -0.6973  0.3459
28169SOL     OW91556   2.393   7.805  11.103 -0.6946  0.0705  0.4793
28169SOL    HW191557   2.335   7.787  11.177 -0.2860  1.6804  1.2412
28169SOL    HW291558   2.390   7.900  11.092 -0.3518 -0.0840 -1.2678
28170SOL     OW91559   3.845   9.078   4.829  0.4959 -0.4331  0.2491
28170SOL    HW191560   3.874   9.096   4.918 -0.7011  0.0978  0.5452
28170SOL    HW291561   3.846   8.983   4.822  0.1421 -0.4945  0.9920
28171SOL     OW91562   5.869  12.299   1.914  0.6086  0.4488  0.6715
28171SOL    HW191563   5.859  12.380   1.863  0.4158 -0.5376 -0.9316
28171SOL    HW291564   5.910  12.237   1.853  1.4202 -0.4595  2.0910
28172SOL     OW91565  11.879   2.964  11.480  0.8138  0.4609 -0.0200
28172SOL    HW191566  11.859   2.909  11.404  1.8162  0.9937 -0.6844
28172SOL    HW291567  11.969   2.941  11.502 -0.1117 -1.2723  2.3820
28173SOL     OW91568   0.348   5.759   3.541  0.3620  0.0193 -0.2675
28173SOL    HW191569   0.339   5.663   3.538  0.6448  0.0075 -0.9915
28173SOL    HW291570   0.269   5.789   3.585  1.6676 -0.7421  2.8586
28174SOL     OW91571   0.605   3.295   5.396 -0.2528 -0.2253 -0.5210
28174SOL    HW191572   0.617   3.351   5.319  2.4889 -0.2359 -0.1976
28174SOL    HW291573   0.634   3.348   5.469  0.6633 -1.4377  0.0242
28175SOL     OW91574   8.834   8.645   1.844 -0.8460  0.3601  0.3531
28175SOL    HW191575   8.836   8.605   1.757 -0.4769  1.3885 -0.1327
28175SOL    HW291576   8.804   8.575   1.902  0.4811 -0.8150 -0.3286
28176SOL     OW91577   4.452   3.180   4.493  0.0775 -0.4804 -0.6134
28176SOL    HW191578   4.528   3.226   4.458 -2.1156  3.5231 -0.7906
28176SOL    HW291579   4.445   3.210   4.584 -1.0609 -0.9989 -0.5083
28177SOL     OW91580   7.970  11.286   1.219 -0.2476 -0.2990 -0.6837
28177SOL    HW191581   8.003  11.274   1.130 -0.7953 -0.0140 -0.9331
28177SOL    HW291582   7.898  11.224   1.226 -1.9144  1.4476 -1.3604
28178SOL     OW91583  10.963   2.054   9.941  0.4101  0.0654  0.5169
28178SOL    HW191584  11.020   2.106   9.884  0.8337  0.9002  1.6728
28178SOL    HW291585  10.969   2.097  10.026 -0.6627 -0.8232  1.0560
28179SOL     OW91586   4.804   8.163   8.590  0.1736  0.5757  0.3760
28179SOL    HW191587   4.790   8.155   8.496 -1.4594 -1.9761  0.7084
28179SOL    HW291588   4.734   8.221   8.620 -0.0527  0.4394  0.1230
28180SOL     OW91589  12.532   5.381   0.925  0.7806  0.1548 -0.1281
28180SOL    HW191590  12.525   5.305   0.983 -0.4249  1.0279  0.9119
28180SOL    HW291591  12.493   5.453   0.975  0.9547  1.2335 -1.5005
28181SOL     OW91592  11.754   7.703  11.304 -0.1664  0.0585 -0.1708
28181SOL    HW191593  11.694   7.773  11.278 -1.0364 -0.8865 -0.7906
28181SOL    HW291594  11.703   7.648  11.363  0.0410 -0.8091 -0.7782
28182SOL     OW91595   7.293   0.627  10.990  0.3380 -0.0385 -0.5923
28182SOL    HW191596   7.353   0.702  10.995 -0.4309  0.5017  1.0677
28182SOL    HW291597   7.222   0.657  10.934 -0.7211  1.0869  1.2535
28183SOL     OW91598   4.059   4.586   9.864 -1.1149  0.3782  0.0199
28183SOL    HW191599   4.088   4.674   9.840 -0.1930 -0.1750 -0.9930
28183SOL    HW291600   3.963   4.590   9.857 -0.9985  0.7646 -2.1067
28184SOL     OW91601   0.921   5.397   7.854 -0.4737  0.3933  0.1579
28184SOL    HW191602   0.878   5.312   7.842  0.2088 -0.4043  2.7255
28184SOL    HW291603   0.874   5.438   7.926 -0.1208  1.7574 -0.3521
28185SOL     OW91604  11.737   4.075   8.136 -0.6838  0.0506  0.3954
28185SOL    HW191605  11.801   4.027   8.084 -0.0011  1.2253  0.1174
28185SOL    HW291606  11.652   4.048   8.100 -0.2146  1.4521 -1.9436
28186SOL     OW91607  11.003  12.558   1.406  0.5586  0.1595  0.2442
28186SOL    HW191608  10.962  12.472   1.414  1.6195 -0.4129 -0.2813
28186SOL    HW291609  11.088  12.548   1.448 -0.4944  1.8567  2.9985
28187SOL     OW91610  11.614  10.352   7.753 -0.3294 -0.3313  0.1012
28187SOL    HW191611  11.612  10.356   7.848 -2.5325  0.7059  0.0767
28187SOL    HW291612  11.526  10.379   7.726  0.4112 -0.0167 -2.2452
28188SOL     OW91613  10.643   1.340  10.561  0.0855  0.1818 -0.3932
28188SOL    HW191614  10.597   1.416  10.526  0.7435  0.0911 -1.5360
28188SOL    HW291615  10.586   1.265  10.541 -0.0355  0.2511 -0.3056
28189SOL     OW91616   4.195  11.761  11.548  0.2386 -0.3229 -0.4899
28189SOL    HW191617   4.140  11.698  11.595  0.6884  0.9284  1.9155
28189SOL    HW291618   4.284  11.727  11.558  1.0211  2.2003  4.0603
28190SOL     OW91619   7.288   5.604   6.323 -0.0655  0.9477 -0.1021
28190SOL    HW191620   7.361   5.561   6.279 -0.5893 -1.1772  0.9664
28190SOL    HW291621   7.326   5.640   6.403 -0.3070 -1.0037  0.9362
28191SOL     OW91622   0.164  10.210  12.123  0.3163 -0.1524 -0.3064
28191SOL    HW191623   0.238  10.165  12.165 -0.3454 -0.9733 -0.0016
28191SOL    HW291624   0.094  10.207  12.188 -0.2466 -0.1123 -0.9066
28192SOL     OW91625   8.191  11.652   2.554  0.2451  0.0345  0.1244
28192SOL    HW191626   8.147  11.736   2.566 -0.8614 -0.4604 -0.4135
28192SOL    HW291627   8.284  11.675   2.546 -0.0304  1.1941  0.0682
28193SOL     OW91628  11.989   0.513   1.778  0.0413 -0.0338  0.3528
28193SOL    HW191629  11.931   0.545   1.847 -0.7993  0.0918 -0.3803
28193SOL    HW291630  11.989   0.418   1.788  3.2040  0.0752  3.0602
28194SOL     OW91631   8.370   0.464   9.531  0.2903 -0.5906  0.1375
28194SOL    HW191632   8.315   0.402   9.578 -2.0835  0.4134 -1.1098
28194SOL    HW291633   8.363   0.438   9.439  1.2191  0.0941 -0.1510
28195SOL     OW91634   2.143   0.544   3.838  0.2126  0.1826  0.0896
28195SOL    HW191635   2.137   0.465   3.893  0.4254 -0.4997 -0.8484
28195SOL    HW291636   2.055   0.554   3.802  0.0276  0.7318  0.6872
28196SOL     OW91637  10.485   4.712   1.895  0.6981  0.7018 -0.0430
28196SOL    HW191638  10.544   4.641   1.919  0.6440  1.1175  1.4339
28196SOL    HW291639  10.449   4.686   1.810 -0.2605 -1.6599  1.0076
28197SOL     OW91640   4.741   3.219   2.559  0.1120  0.4661 -0.3603
28197SOL    HW191641   4.685   3.259   2.626  0.3281 -1.2065  0.8737
28197SOL    HW291642   4.829   3.223   2.596  0.2093 -0.6262 -0.4463
28198SOL     OW91643   0.228   4.215   0.622  0.1245  0.2381 -0.4114
28198SOL    HW191644   0.282   4.294   0.619  0.3659  0.0507 -1.4944
28198SOL    HW291645   0.138   4.246   0.617  0.0523  0.5818  1.8184
28199SOL     OW91646   2.932   8.493  11.816  0.5113  0.3725  0.6546
28199SOL    HW191647   2.928   8.570  11.760  2.3470 -0.0239 -0.0801
28199SOL    HW291648   2.861   8.506  11.880 -1.8558  0.6858 -1.8630
28200SOL     OW91649   7.465   3.900   2.908 -0.2559 -0.0342 -0.1151
28200SOL    HW191650   7.488   3.808   2.916 -3.0040 -0.8810 -0.6675
28200SOL    HW291651   7.458   3.915   2.814 -0.6148  0.4826 -0.0127
28201SOL     OW91652   8.081   9.182   6.735  0.2804 -0.1878 -0.0913
28201SOL    HW191653   8.004   9.207   6.786 -0.3912 -2.1455 -0.0396
28201SOL    HW291654   8.141   9.144   6.799  0.8310  0.3171 -0.3001
28202SOL     OW91655  11.337   3.395  11.038 -0.4955  0.2817 -0.1191
28202SOL    HW191656  11.270   3.419  11.101 -1.9737  0.8783 -1.8395
28202SOL    HW291657  11.332   3.462  10.970  2.8549  1.2089  0.3403
28203SOL     OW91658   0.567   5.130   6.166 -0.1512 -0.0578  0.1376
28203SOL    HW191659   0.544   5.037   6.160  1.3120 -0.4124 -0.1644
28203SOL    HW291660   0.632   5.134   6.236  1.7470  0.3269 -1.5703
28204SOL     OW91661   8.938   1.996  10.575 -0.8690  0.2377 -0.1535
28204SOL    HW191662   8.912   1.919  10.524 -0.7100  0.8190 -1.1487
28204SOL    HW291663   8.974   1.960  10.656  0.9601 -0.8486 -1.3719
28205SOL     OW91664   6.123  10.693   5.244 -0.4440 -0.0393 -0.5563
28205SOL    HW191665   6.178  10.708   5.321 -0.3073  0.9578 -0.8382
28205SOL    HW291666   6.148  10.605   5.214  1.9851  0.8641 -1.4621
28206SOL     OW91667   8.766   9.313   9.079  0.0330  0.8771 -0.0054
28206SOL    HW191668   8.804   9.316   8.991  0.5804 -0.1354  0.1896
28206SOL    HW291669   8.709   9.236   9.078 -1.3664  1.8760 -0.0173
28207SOL     OW91670   7.390   7.335   0.494 -0.5609 -0.1853  0.4024
28207SOL    HW191671   7.459   7.400   0.481  0.2366 -1.1915 -0.5561
28207SOL    HW291672   7.400   7.308   0.586 -0.3374  0.3916  0.5517
28208SOL     OW91673   3.258   5.318   2.309 -0.4254 -0.6503 -0.8062
28208SOL    HW191674   3.263   5.367   2.391  1.6687 -0.8256 -0.7742
28208SOL    HW291675   3.256   5.385   2.241 -1.1947 -0.5124 -0.6545
28209SOL     OW91676  12.379   7.518   1.915  0.1161  0.2325  0.3885
28209SOL    HW191677  12.344   7.583   1.853  1.4607 -0.9323 -1.7106
28209SOL    HW291678  12.307   7.457   1.928 -0.2832  0.6597  0.2227
28210SOL     OW91679   4.669   0.721   9.145  0.8081  0.0939  0.0759
28210SOL    HW191680   4.739   0.719   9.210  0.3878 -0.8454  0.5159
28210SOL    HW291681   4.644   0.629   9.134 -0.3752  0.4169 -0.0436
28211SOL     OW91682   2.251   0.052  11.489 -0.3733  0.2474  0.4160
28211SOL    HW191683   2.253   0.013  11.402 -0.2283  2.6985 -0.7344
28211SOL    HW291684   2.167   0.098  11.494  0.0764  1.0266  1.1509
28212SOL     OW91685   3.454  10.634   2.807 -0.0957  0.3223  0.2903
28212SOL    HW191686   3.473  10.694   2.879 -0.7448  1.9255 -0.7877
28212SOL    HW291687   3.504  10.555   2.826 -0.6366  0.4973  2.7299
28213SOL     OW91688   2.220  11.304   9.905 -0.3005  0.2382  0.1336
28213SOL    HW191689   2.181  11.220   9.878 -0.1884 -0.0672  0.8963
28213SOL    HW291690   2.150  11.368   9.892 -0.6299 -0.0911  0.2460
28214SOL     OW91691   4.477   3.137  11.317 -0.0973 -0.5482 -0.0436
28214SOL    HW191692   4.501   3.229  11.306 -1.3113 -0.3561 -1.4331
28214SOL    HW291693   4.444   3.131  11.407 -0.2290  0.4369 -0.0121
28215SOL     OW91694   7.864   7.155   1.143  0.0142  0.2128  0.1185
28215SOL    HW191695   7.934   7.218   1.162  0.0049  0.0490  0.7237
28215SOL    HW291696   7.798   7.172   1.211 -0.4207  0.1947 -0.2916
28216SOL     OW91697   7.137  10.656  11.773 -0.5377  0.5230 -0.1521
28216SOL    HW191698   7.213  10.713  11.781 -0.7982  1.0457 -1.2451
28216SOL    HW291699   7.083  10.697  11.706 -2.4718  0.9258  1.5383
28217SOL     OW91700   9.589   2.360   6.917 -0.3571  0.2085  0.1221
28217SOL    HW191701   9.503   2.398   6.931 -0.2997  0.6802 -0.7571
28217SOL    HW291702   9.603   2.365   6.823 -0.5669 -2.4603 -0.1449
28218SOL     OW91703  10.859   1.784  10.766 -0.3176 -0.4197  0.0041
28218SOL    HW191704  10.847   1.705  10.714 -0.2370 -1.6322  1.7344
28218SOL    HW291705  10.771   1.819  10.778 -0.6601 -1.6742  1.3134
28219SOL     OW91706  10.937   6.508   9.752 -0.3473 -0.7619 -0.2759
28219SOL    HW191707  11.026   6.544   9.746 -0.6119  0.3686  1.5234
28219SOL    HW291708  10.881   6.578   9.719 -0.6334 -1.0915 -0.4908
28220SOL     OW91709   3.707   7.899   6.096  0.2251  0.4617 -0.6294
28220SOL    HW191710   3.663   7.848   6.028 -1.6574 -1.0834  1.5424
28220SOL    HW291711   3.763   7.836   6.141  0.8802  1.2555 -0.3056
28221SOL     OW91712   3.117   0.297  11.645 -0.9503 -0.3855 -0.4551
28221SOL    HW191713   3.091   0.207  11.627 -0.8299 -0.4851 -0.1371
28221SOL    HW291714   3.036   0.348  11.632 -1.4813 -0.7685  1.1212
28222SOL     OW91715   9.584  10.878   2.017 -0.2905 -0.1583 -0.2849
28222SOL    HW191716   9.506  10.903   2.066 -0.1402 -0.3354  0.0422
28222SOL    HW291717   9.653  10.935   2.050 -0.2127 -0.2045 -0.3664
28223SOL     OW91718   6.041   6.911   1.613 -0.1954  0.2851  0.3431
28223SOL    HW191719   6.111   6.974   1.597  0.5470 -0.5143  0.3403
28223SOL    HW291720   5.991   6.948   1.686  0.0244  1.0295  0.1221
28224SOL     OW91721  11.676   6.362   5.055  0.6355  0.4163  0.2826
28224SOL    HW191722  11.752   6.341   5.001  0.2674  3.5227 -1.7236
28224SOL    HW291723  11.639   6.277   5.080  3.7956 -1.1797  0.0190
28225SOL     OW91724   6.280   9.002   5.304  0.8071 -0.2539  0.0245
28225SOL    HW191725   6.259   8.925   5.358  1.1238 -0.6132 -0.3566
28225SOL    HW291726   6.198   9.022   5.259  0.9537 -0.9189 -0.5532
28226SOL     OW91727   8.365  12.033   5.216  0.1798  0.3164  0.4705
28226SOL    HW191728   8.455  12.009   5.238  0.4007 -0.0123 -0.7646
28226SOL    HW291729   8.358  12.023   5.122 -1.3994 -0.4726  0.6293
28227SOL     OW91730  10.768   1.540   9.668 -0.6225 -0.1118  0.4708
28227SOL    HW191731  10.711   1.470   9.698 -2.4936  0.9175 -0.4992
28227SOL    HW291732  10.752   1.612   9.729  0.7704 -0.2615  1.0510
28228SOL     OW91733   0.528   3.036   4.950  0.1758  0.3789 -0.6513
28228SOL    HW191734   0.613   3.063   4.983  0.0273  0.4148 -0.2970
28228SOL    HW291735   0.465   3.095   4.992 -0.1170 -0.3001 -0.1087
28229SOL     OW91736   0.009  10.588  11.756  0.1735 -0.0564  0.2893
28229SOL    HW191737   0.010  10.512  11.814  1.6303 -1.1539 -1.1070
28229SOL    HW291738   0.079  10.645  11.790 -0.3942  0.3265  0.8547
28230SOL     OW91739  11.129   1.596   2.958  0.2729 -0.6115  0.2620
28230SOL    HW191740  11.161   1.671   3.008 -1.9571 -0.0245  0.9292
28230SOL    HW291741  11.103   1.533   3.025  0.3349 -1.1858 -0.2505
28231SOL     OW91742  11.124   8.554  10.937 -0.0243 -0.5615 -0.3683
28231SOL    HW191743  11.070   8.578  10.861 -0.7186 -0.1062  0.2575
28231SOL    HW291744  11.075   8.586  11.012  0.7259 -0.8903  0.2716
28232SOL     OW91745   6.004   6.492   8.265 -0.0567 -0.0364  0.3960
28232SOL    HW191746   6.085   6.447   8.288  0.0980 -0.8208 -1.4885
28232SOL    HW291747   5.935   6.438   8.301  0.2307  0.3553  1.5609
28233SOL     OW91748   1.052   2.403   4.060  0.9645 -0.7085 -0.3401
28233SOL    HW191749   1.016   2.465   3.996 -0.9860  0.0777  1.3847
28233SOL    HW291750   1.111   2.456   4.114 -0.5960 -0.2964  1.0475
28234SOL     OW91751   0.290   3.257   6.526  0.0309  0.1410 -0.4330
28234SOL    HW191752   0.257   3.307   6.451  1.7153  1.0485 -0.6129
28234SOL    HW291753   0.291   3.166   6.495 -0.9292  0.2689 -0.8892
28235SOL     OW91754  10.621  10.737   9.824  0.2757 -0.0381 -0.1595
28235SOL    HW191755  10.617  10.815   9.768 -2.1829  0.3410  0.4009
28235SOL    HW291756  10.658  10.768   9.906 -1.2196  0.7430  0.2617
28236SOL     OW91757  11.138   4.013   0.799  0.2294  0.1483 -0.1287
28236SOL    HW191758  11.169   4.096   0.834 -0.3539 -0.4346  1.9366
28236SOL    HW291759  11.058   4.035   0.751  0.2076  0.8209  0.2015
28237SOL     OW91760   7.096  12.155   1.500  0.3267  0.3758 -0.3372
28237SOL    HW191761   7.059  12.161   1.588  0.7117 -1.5131 -0.0104
28237SOL    HW291762   7.074  12.239   1.459 -1.2034  0.6909  1.0299
28238SOL     OW91763   4.860   0.690   7.516  0.4671  0.2464 -0.0947
28238SOL    HW191764   4.906   0.772   7.536  0.5566 -0.0241  0.8600
28238SOL    HW291765   4.865   0.683   7.421 -1.2823  2.3635 -0.4375
28239SOL     OW91766   4.634   4.625   6.226  0.3347 -0.2303  0.1569
28239SOL    HW191767   4.716   4.586   6.256  0.0584 -2.1196 -1.3642
28239SOL    HW291768   4.613   4.578   6.145 -3.2394 -1.2028  1.4634
28240SOL     OW91769   5.743   2.485  12.115  0.9421  0.0622  0.3643
28240SOL    HW191770   5.767   2.521  12.201  0.3954  1.6768 -0.1243
28240SOL    HW291771   5.666   2.431  12.133  0.1260  1.3133  0.7455
28241SOL     OW91772   9.290   6.329   4.647  0.1583  0.3038  0.3168
28241SOL    HW191773   9.317   6.239   4.633  1.3827  0.5183  1.1661
28241SOL    HW291774   9.203   6.335   4.606 -0.4005 -1.5286  1.1438
28242SOL     OW91775   9.663   1.442   4.579  0.1669  0.4280 -0.2451
28242SOL    HW191776   9.654   1.521   4.526  3.8092  0.9020 -0.4407
28242SOL    HW291777   9.728   1.389   4.532  0.0913 -1.2716  1.4281
28243SOL     OW91778  10.023   4.408   3.990 -0.1071  0.6214  0.2372
28243SOL    HW191779  10.107   4.427   4.032 -0.0479  0.0855  0.3595
28243SOL    HW291780   9.964   4.386   4.062  0.1238 -0.7922  0.0275
28244SOL     OW91781   4.762  10.885   9.768 -0.1233 -0.5269 -0.0037
28244SOL    HW191782   4.791  10.972   9.796  0.7475 -1.0305  0.7071
28244SOL    HW291783   4.709  10.902   9.690  0.7379  0.5629 -0.3873
28245SOL     OW91784   2.486   5.465   9.257 -0.4382  0.2309 -0.3438
28245SOL    HW191785   2.552   5.455   9.188 -0.9644  1.3577 -1.0262
28245SOL    HW291786   2.503   5.391   9.316  1.2492  0.3241 -0.6444
28246SOL     OW91787   9.222   1.067   4.340 -0.0740 -0.5305  0.2571
28246SOL    HW191788   9.132   1.043   4.320 -0.8291  0.1799  2.5334
28246SOL    HW291789   9.229   1.061   4.435  2.5328 -1.3308  0.0999
28247SOL     OW91790   2.234   4.440   3.589 -0.4925 -0.3177 -0.5328
28247SOL    HW191791   2.229   4.499   3.514 -1.5141 -0.0193 -0.2371
28247SOL    HW291792   2.186   4.362   3.562  0.1340 -0.6858 -0.6098
28248SOL     OW91793  10.201   7.487   3.312 -0.0334 -0.2330  0.4569
28248SOL    HW191794  10.132   7.549   3.337  0.1279 -0.1281  0.6509
28248SOL    HW291795  10.257   7.483   3.389 -0.3372 -1.0369  0.6454
28249SOL     OW91796  11.155   0.268  10.538  0.4027 -0.2479  0.0118
28249SOL    HW191797  11.167   0.223  10.455  1.2547  1.3909 -0.8014
28249SOL    HW291798  11.073   0.233  10.573 -0.5851 -0.1578 -2.0679
28250SOL     OW91799  12.078  11.086   9.424 -0.2304  0.8498 -0.2034
28250SOL    HW191800  12.071  11.035   9.344 -0.1282  0.0508  0.2903
28250SOL    HW291801  12.167  11.070   9.455 -0.1550  1.4226 -0.0979
28251SOL     OW91802   9.979  10.971   3.670  0.4248  0.3491  0.1132
28251SOL    HW191803  10.037  10.913   3.621 -0.1276  1.3320 -1.7919
28251SOL    HW291804  10.036  11.038   3.707  0.9942 -1.0143  1.8612
28252SOL     OW91805   2.375   3.152   1.592  0.2842  0.2054  0.0451
28252SOL    HW191806   2.439   3.102   1.643 -0.3315 -2.5511 -1.6432
28252SOL    HW291807   2.429   3.214   1.543  1.0189  1.8557  2.7330
28253SOL     OW91808  12.413  12.217   8.298  0.3504 -0.2685 -0.2004
28253SOL    HW191809  12.374  12.168   8.370 -1.1738  2.2736  0.8222
28253SOL    HW291810  12.340  12.233   8.238  1.0629 -0.1933 -1.0651
28254SOL     OW91811   8.599   2.744   9.979  0.0152 -0.1034 -0.1064
28254SOL    HW191812   8.510   2.778   9.983 -0.0459 -0.3329  0.4740
28254SOL    HW291813   8.603   2.678  10.048  0.8107  0.3277  0.2729
28255SOL     OW91814   4.260   0.407   5.437 -0.3135 -0.2923 -0.4074
28255SOL    HW191815   4.164   0.404   5.439 -0.3814  0.1902 -1.8380
28255SOL    HW291816   4.282   0.420   5.345  1.0861  0.9281  0.0541
28256SOL     OW91817   0.530   0.946   5.277 -0.2049 -0.1595 -0.6191
28256SOL    HW191818   0.624   0.956   5.266  0.0241 -1.2696  0.2226
28256SOL    HW291819   0.494   0.954   5.189  0.6928  0.0454 -0.9704
28257SOL     OW91820   8.494   0.198   6.736 -0.0535 -0.4448  0.2145
28257SOL    HW191821   8.513   0.122   6.789  0.3471 -0.1688  0.4722
28257SOL    HW291822   8.473   0.163   6.649  2.7831 -0.7578 -0.4499
28258SOL     OW91823   0.706   2.087   2.588  0.5415 -0.0051  0.3040
28258SOL    HW191824   0.730   2.114   2.499 -0.3539 -1.7501 -0.5091
28258SOL    HW291825   0.721   1.993   2.590 -0.7215 -0.2184  1.5863
28259SOL     OW91826   4.291   8.755   0.356  0.1187  0.3277  0.2166
28259SOL    HW191827   4.353   8.827   0.363  0.1372  0.4716 -1.1241
28259SOL    HW291828   4.333   8.682   0.401  0.1465  1.1132  1.4841
28260SOL     OW91829   1.999  10.259   0.199 -0.1613  0.1228  0.0592
28260SOL    HW191830   2.025  10.256   0.107 -1.2946  2.3822 -0.4020
28260SOL    HW291831   2.064  10.315   0.241 -0.7812  0.7715  0.1758
28261SOL     OW91832   2.930  11.009  11.849  0.3390  0.3232 -0.1791
28261SOL    HW191833   3.005  11.004  11.789 -0.2754  0.2996 -0.9631
28261SOL    HW291834   2.929  10.924  11.893  0.1582 -0.0796 -0.9396
28262SOL     OW91835   3.151  11.609   2.940 -0.0845 -0.5080  0.2044
28262SOL    HW191836   3.120  11.694   2.970 -0.3611 -1.0030  1.3822
28262SOL    HW291837   3.072  11.564   2.909  0.0846 -0.2905 -0.5675
28263SOL     OW91838   1.663   9.053   7.801  0.1999  0.2408  0.4055
28263SOL    HW191839   1.741   9.004   7.776 -0.8411  0.7759 -5.1435
28263SOL    HW291840   1.606   8.987   7.842  1.7165 -1.3200  0.1357
28264SOL     OW91841  11.364   1.637   4.399  0.0445  0.3498  0.1658
28264SOL    HW191842  11.458   1.626   4.413 -0.1781  0.6919  2.2439
28264SOL    HW291843  11.355   1.723   4.359  0.6768 -0.3463 -1.6041
28265SOL     OW91844  11.490   8.396   3.190 -0.2767 -0.3039 -0.3481
28265SOL    HW191845  11.540   8.447   3.253 -0.7130  1.2195 -1.1795
28265SOL    HW291846  11.522   8.425   3.104 -0.4236 -1.5613 -0.8482
28266SOL     OW91847   8.245   8.602   3.012  0.0497 -0.2068 -0.2192
28266SOL    HW191848   8.245   8.684   3.061  0.9863 -1.0378  1.2668
28266SOL    HW291849   8.176   8.550   3.053 -0.1970 -0.3470 -0.8118
28267SOL     OW91850   9.012   9.328   1.998  0.5500 -0.2788 -1.2119
28267SOL    HW191851   9.014   9.415   1.957 -2.0297 -0.0922 -1.1221
28267SOL    HW291852   9.058   9.272   1.936  2.6984  1.1583 -1.0603
28268SOL     OW91853  10.885   9.678  12.043  0.0593 -0.6884  0.2963
28268SOL    HW191854  10.881   9.716  12.130 -1.1040  1.1991 -0.5233
28268SOL    HW291855  10.979   9.675  12.022  0.2230  2.2947  0.2348
28269SOL     OW91856   5.778   7.272   1.507  0.0982 -0.0131 -0.0276
28269SOL    HW191857   5.740   7.216   1.575  0.7511 -0.4779 -0.0276
28269SOL    HW291858   5.843   7.324   1.554 -0.6293  0.8872  0.0051
28270SOL     OW91859   9.011   8.838   2.144 -0.2272  0.1388  0.6878
28270SOL    HW191860   9.000   8.805   2.055 -3.0318 -2.2302  1.7528
28270SOL    HW291861   9.097   8.804   2.171  1.4655  2.3131 -1.5333
28271SOL     OW91862   9.159   9.629   0.842  0.1963 -0.9092  0.1887
28271SOL    HW191863   9.093   9.656   0.778 -1.0822 -2.6578  0.6762
28271SOL    HW291864   9.132   9.540   0.868  1.4067 -0.7619  2.1802
28272SOL     OW91865  11.421   0.621   6.306  0.3443 -0.1708  0.3430
28272SOL    HW191866  11.480   0.546   6.302 -0.9798 -1.3432  1.6856
28272SOL    HW291867  11.337   0.588   6.273 -0.0749  0.9455  0.2320
28273SOL     OW91868   1.000   2.702   4.868  0.4105 -0.7460 -0.1520
28273SOL    HW191869   1.063   2.661   4.927  0.0179 -1.4403 -0.2069
28273SOL    HW291870   1.036   2.688   4.780  0.9091  0.1408 -0.1082
28274SOL     OW91871   4.791  10.630   7.691 -0.0981 -0.6244  0.2199
28274SOL    HW191872   4.862  10.682   7.653  0.9136 -0.9166  1.5870
28274SOL    HW291873   4.818  10.539   7.678 -0.6509 -0.7597 -0.0075
28275SOL     OW91874  10.923   5.801  12.295  0.9188  0.3019  0.2224
28275SOL    HW191875  10.923   5.783  12.201  0.7039 -1.8896  0.5854
28275SOL    HW291876  10.876   5.727  12.334  1.9729  0.5764  2.1498
28276SOL     OW91877   9.101   5.765   2.876 -0.6364  0.4083 -0.0096
28276SOL    HW191878   9.041   5.725   2.939 -0.2857  2.0356  1.4388
28276SOL    HW291879   9.188   5.739   2.906 -0.4952  0.6770 -0.1801
28277SOL     OW91880  10.170  11.834   9.378  0.4034 -0.0560 -0.2929
28277SOL    HW191881  10.149  11.901   9.442  1.0363 -0.8180  0.7485
28277SOL    HW291882  10.100  11.769   9.387  1.9676 -1.6105  1.7736
28278SOL     OW91883   3.111   0.032   5.730  0.7866  0.1635 -0.3358
28278SOL    HW191884   3.025   0.004   5.761  1.1044  0.8827  1.3128
28278SOL    HW291885   3.161  -0.049   5.723  0.0349 -0.2498 -1.2019
28279SOL     OW91886   5.946   5.019   6.242  0.0690  0.7026  0.3457
28279SOL    HW191887   5.891   5.023   6.164  1.2990  2.4112 -0.5027
28279SOL    HW291888   6.004   4.944   6.227 -1.6565 -0.8630  1.0696
28280SOL     OW91889   6.530   9.307  12.566 -0.1525 -0.1753 -0.3771
28280SOL    HW191890   6.620   9.341  12.572 -0.0580 -0.4930  0.0200
28280SOL    HW291891   6.513   9.268  12.652 -1.3709  1.6207  0.2648
28281SOL     OW91892  11.151   1.695  10.154 -0.3833  0.1001  0.1373
28281SOL    HW191893  11.192   1.689  10.240 -1.6928 -0.3045  0.7568
28281SOL    HW291894  11.132   1.605  10.129 -2.3476  0.3135  0.6308
28282SOL     OW91895   1.581   0.891  11.119 -0.1458  0.2370 -0.1602
28282SOL    HW191896   1.597   0.982  11.143  0.1847 -0.0959  0.9124
28282SOL    HW291897   1.504   0.895  11.063 -1.5724  0.9457  1.7716
28283SOL     OW91898   6.626   8.931  10.372  0.0472 -0.0331 -0.3854
28283SOL    HW191899   6.628   9.016  10.328  0.5894  0.5579  0.7425
28283SOL    HW291900   6.578   8.874  10.312 -0.4787  1.1115 -1.0803
28284SOL     OW91901   9.238   6.515   9.792 -0.5307  0.0708  0.1472
28284SOL    HW191902   9.296   6.579   9.832  0.7719 -1.6299  1.0873
28284SOL    HW291903   9.188   6.480   9.865 -0.5847 -0.6270 -0.2225
28285SOL     OW91904   0.642  10.204   1.662  0.3944  0.1129 -0.0723
28285SOL    HW191905   0.636  10.271   1.594 -2.4821 -0.2338 -0.2720
28285SOL    HW291906   0.687  10.131   1.619 -0.2785  0.3597 -1.2402
28286SOL     OW91907   9.866   2.170   9.285  0.9956  0.5850  0.4411
28286SOL    HW191908   9.850   2.255   9.326  2.0701  1.2184 -0.3740
28286SOL    HW291909   9.959   2.172   9.262  0.7445 -0.2928 -0.7524
28287SOL     OW91910  11.518   6.451   6.813  0.0657  0.4845  1.0137
28287SOL    HW191911  11.484   6.538   6.834  2.0459  1.7107 -0.4157
28287SOL    HW291912  11.613   6.461   6.820  0.4872 -0.8271 -1.5968
28288SOL     OW91913   6.554   0.770   4.886 -0.1936 -0.0538  0.1133
28288SOL    HW191914   6.574   0.686   4.844  0.5345 -0.3475  1.0333
28288SOL    HW291915   6.592   0.764   4.973 -0.6330  1.0212  0.4016
28289SOL     OW91916   5.637   5.623   9.757 -0.5539 -0.0120  0.8002
28289SOL    HW191917   5.663   5.614   9.849 -1.2516  0.8189  1.0900
28289SOL    HW291918   5.543   5.604   9.757 -0.3024 -1.3731  0.0251
28290SOL     OW91919   9.300   0.488   3.387  0.1376  0.6814  0.1007
28290SOL    HW191920   9.338   0.565   3.429 -1.0890  2.4412 -1.7776
28290SOL    HW291921   9.207   0.492   3.410 -0.1899  0.5752 -1.1339
28291SOL     OW91922   4.870   0.303   3.513 -0.0904  0.5971 -0.2229
28291SOL    HW191923   4.931   0.358   3.464  0.5949 -0.5679 -0.7507
28291SOL    HW291924   4.793   0.357   3.528  0.2310  1.4106 -1.4316
28292SOL     OW91925  10.220  12.495   3.828  0.1936  0.1199  0.0721
28292SOL    HW191926  10.129  12.521   3.838  0.1618  0.7835 -1.6833
28292SOL    HW291927  10.246  12.465   3.916 -1.2709  1.2549  0.9374
28293SOL     OW91928   8.389   3.115   1.557  0.2081 -0.3798 -0.1861
28293SOL    HW191929   8.423   3.204   1.559 -1.7042  0.4352 -1.1438
28293SOL    HW291930   8.331   3.110   1.633 -0.1055 -0.6274 -0.4398
28294SOL     OW91931   8.915  11.076  12.155 -0.1624 -0.2066  0.2359
28294SOL    HW191932   8.857  11.000  12.164 -0.7835 -0.0941 -2.0557
28294SOL    HW291933   8.977  11.068  12.227 -0.6157 -2.5211  0.4465
28295SOL     OW91934   2.051  11.797   9.389 -0.0403 -0.8580  0.0832
28295SOL    HW191935   2.021  11.815   9.300 -1.1737 -1.2724  0.3605
28295SOL    HW291936   2.136  11.754   9.378 -0.1008 -0.7773 -0.7811
28296SOL     OW91937  12.403   1.976   0.147 -0.1963  0.1530  0.0362
28296SOL    HW191938  12.401   1.890   0.188  1.2692  0.5667  1.0500
28296SOL    HW291939  12.496   1.996   0.138 -0.4699  0.7480 -2.1227
28297SOL     OW91940   1.318   2.058   6.427  0.0022 -0.1057 -0.0171
28297SOL    HW191941   1.272   1.986   6.382 -0.3368 -0.6620  1.1647
28297SOL    HW291942   1.375   2.095   6.360  0.6876 -1.9069 -0.4933
28298SOL     OW91943  10.446   9.095   3.089  0.4959  0.4119 -0.3329
28298SOL    HW191944  10.536   9.121   3.107 -0.0524  2.6416 -0.5613
28298SOL    HW291945  10.449   9.055   3.003  1.3209  0.1551 -0.1887
28299SOL     OW91946   9.702   8.801   1.944 -0.4802 -0.1558 -0.0825
28299SOL    HW191947   9.771   8.780   2.008  0.8594  2.0859 -0.6961
28299SOL    HW291948   9.659   8.878   1.980 -1.5078 -0.4633 -0.6113
28300SOL     OW91949   0.141  10.256   8.394  0.3930  0.1408  0.3286
28300SOL    HW191950   0.104  10.295   8.473 -0.7432 -0.2067 -0.0197
28300SOL    HW291951   0.188  10.179   8.425  2.0982  1.3682  0.9441
28301SOL     OW91952   7.691   2.851   2.327 -0.5490  0.0199 -0.0272
28301SOL    HW191953   7.712   2.774   2.274  0.8886  0.7163 -0.5243
28301SOL    HW291954   7.631   2.818   2.394  0.2489 -1.5989 -0.0542
28302SOL     OW91955   3.343   2.802  11.451  0.4802  0.5701  0.3833
28302SOL    HW191956   3.405   2.758  11.392 -0.5696  0.6941 -0.8292
28302SOL    HW291957   3.257   2.789  11.411  0.0624  3.4844  0.0876
28303SOL     OW91958   6.643  10.945   0.770 -0.3542 -0.7261  0.0757
28303SOL    HW191959   6.675  11.034   0.781 -0.5092 -0.5495 -0.8397
28303SOL    HW291960   6.629  10.913   0.860 -1.1780  0.4825  0.4026
28304SOL     OW91961   4.473   4.193   3.740  0.3715 -0.6380  0.3124
28304SOL    HW191962   4.536   4.211   3.670  0.4259 -1.2680  0.1974
28304SOL    HW291963   4.518   4.131   3.797  0.0453 -0.6980  0.5035
28305SOL     OW91964   9.241   5.302   7.919 -0.2495  0.4223  0.2412
28305SOL    HW191965   9.202   5.261   7.842 -0.0521 -0.3750  0.5455
28305SOL    HW291966   9.329   5.265   7.923  0.4344  1.9294 -0.2384
28306SOL     OW91967   5.227   1.829   8.683 -0.2481  0.0185 -0.6106
28306SOL    HW191968   5.189   1.745   8.706  0.1723 -0.2062 -0.7267
28306SOL    HW291969   5.157   1.877   8.639 -0.2527 -0.5736 -1.2568
28307SOL     OW91970   4.210   1.833   8.888  0.2143 -0.0030  0.2423
28307SOL    HW191971   4.220   1.927   8.871  2.9534 -0.5359 -1.7797
28307SOL    HW291972   4.285   1.810   8.942  0.1960 -1.2405 -0.2299
28308SOL     OW91973  10.773   7.208   6.127  0.0267 -0.6409 -1.0111
28308SOL    HW191974  10.699   7.153   6.151 -0.0177  0.0019  0.4288
28308SOL    HW291975  10.837   7.195   6.198 -0.4130  1.8836 -0.0371
28309SOL     OW91976   3.096  11.370  10.862  0.2514  0.0448  0.9643
28309SOL    HW191977   3.139  11.398  10.942 -0.6370  3.0704  0.5238
28309SOL    HW291978   3.004  11.394  10.874 -0.1791 -0.7656 -0.4232
28310SOL     OW91979   2.342   6.043   5.997  0.1753  0.3235 -0.1463
28310SOL    HW191980   2.291   6.105   6.051  1.8801 -0.3369  2.3970
28310SOL    HW291981   2.285   5.967   5.989 -0.7919  1.0873 -0.8094
28311SOL     OW91982   9.483   1.398  10.734  0.1791 -0.4066 -0.1880
28311SOL    HW191983   9.474   1.493  10.742 -0.1396 -0.3965 -0.5983
28311SOL    HW291984   9.394   1.368  10.714 -0.0041 -0.9549  1.3542
28312SOL     OW91985   9.695   9.992   0.033 -0.0967  0.0319  1.2798
28312SOL    HW191986   9.787   9.982   0.010 -0.3239 -0.4408  0.5577
28312SOL    HW291987   9.668   9.904   0.060  0.0107  0.4405  2.8268
28313SOL     OW91988  11.316   2.287   3.611  1.0998  0.0935 -0.6564
28313SOL    HW191989  11.295   2.209   3.561  0.0647  0.9655 -1.6460
28313SOL    HW291990  11.239   2.301   3.667 -1.0376  2.9744 -3.8691
28314SOL     OW91991   9.870   1.060   3.960 -0.4023 -0.0812 -0.3745
28314SOL    HW191992   9.958   1.024   3.973  0.1763  1.2413 -0.5145
28314SOL    HW291993   9.877   1.113   3.881 -1.2301  0.3486 -0.1674
28315SOL     OW91994   7.669   4.549   5.071  0.3238  0.5116 -0.0946
28315SOL    HW191995   7.684   4.459   5.101 -0.0569  0.5933  0.3425
28315SOL    HW291996   7.583   4.547   5.030  0.0058  0.8341  0.5501
28316SOL     OW91997   0.510   2.152   8.680 -0.0082 -0.6710  0.0224
28316SOL    HW191998   0.443   2.161   8.612 -0.0405  1.6443  0.2762
28316SOL    HW291999   0.474   2.198   8.756  0.4385 -2.3741  1.3463
28317SOL     OW92000  11.898   5.208   7.168 -0.0009 -0.2996  0.4169
28317SOL    HW192001  11.981   5.248   7.140 -0.6842  0.2319 -0.9596
28317SOL    HW292002  11.922   5.119   7.194  0.8085 -0.7425 -1.5896
28318SOL     OW92003   3.860   7.350   2.303  0.5041  0.1810 -0.2203
28318SOL    HW192004   3.781   7.390   2.265  0.5297  0.4048 -0.0363
28318SOL    HW292005   3.855   7.258   2.276  0.7019  0.4067 -1.0669
28319SOL     OW92006  12.067   4.050   8.435 -0.4154 -0.5245  0.4602
28319SOL    HW192007  12.075   3.976   8.374 -0.2405 -1.3250  1.4363
28319SOL    HW292008  12.041   4.124   8.379  1.6250 -0.7491 -0.9352
28320SOL     OW92009   3.925  10.705   6.716  0.5416  0.0552 -0.0532
28320SOL    HW192010   3.891  10.740   6.799 -0.8427 -0.2847 -0.4381
28320SOL    HW292011   4.019  10.697   6.730  0.5731  1.6393  0.8681
28321SOL     OW92012   4.637   5.224  10.582 -0.6331 -0.3728  0.2282
28321SOL    HW192013   4.728   5.195  10.594 -0.0442  0.4949 -1.7520
28321SOL    HW292014   4.594   5.152  10.537 -0.5885 -0.3053  0.0754
28322SOL     OW92015   0.096   6.343   6.546  0.0306  0.3161  0.2298
28322SOL    HW192016   0.067   6.343   6.455  0.6423 -0.8408  0.0139
28322SOL    HW292017   0.187   6.315   6.543  0.4711  1.5764  1.1056
28323SOL     OW92018  10.077   5.251   8.572  0.3044 -0.0209 -0.0728
28323SOL    HW192019  10.130   5.303   8.513  1.3178 -0.6980  0.2114
28323SOL    HW292020  10.130   5.243   8.652 -0.4157 -0.3322  0.3932
28324SOL     OW92021   8.124  10.312   4.162 -0.1704  0.1749 -0.2488
28324SOL    HW192022   8.168  10.329   4.246 -2.2095 -1.4031  1.2493
28324SOL    HW292023   8.038  10.354   4.172 -0.6527 -0.5273 -1.3093
28325SOL     OW92024   9.238   3.325   1.661  0.0884 -0.1475  0.3565
28325SOL    HW192025   9.292   3.286   1.730 -1.6015 -0.6831  1.4301
28325SOL    HW292026   9.216   3.412   1.694 -0.9381 -0.5011  0.6201
28326SOL     OW92027  12.091   7.910   9.269  0.1515  0.4355 -0.2845
28326SOL    HW192028  12.088   7.896   9.364 -0.2555 -1.6161 -0.5663
28326SOL    HW292029  12.001   7.896   9.241  0.3304  0.7504 -1.0205
28327SOL     OW92030   9.945   6.281   8.155  0.0493 -0.0004  0.4846
28327SOL    HW192031   9.861   6.327   8.159  1.3157  2.8086 -1.5361
28327SOL    HW292032   9.925   6.197   8.113 -1.6610  0.9128 -0.6235
28328SOL     OW92033   4.627   5.630   9.233 -0.3370  0.2804  0.1465
28328SOL    HW192034   4.637   5.554   9.176  0.8180 -0.0643  0.7777
28328SOL    HW292035   4.582   5.597   9.310 -2.2296  0.8236 -0.6754
28329SOL     OW92036   8.671  11.587   7.143 -0.3402  0.2385 -0.4506
28329SOL    HW192037   8.651  11.495   7.124 -0.4547  0.3723 -1.0025
28329SOL    HW292038   8.707  11.621   7.061 -1.3627  0.9963 -0.6069
28330SOL     OW92039  10.660  11.538   4.177  0.3312  0.1075 -0.0509
28330SOL    HW192040  10.636  11.624   4.211  1.1859 -0.0880  1.1205
28330SOL    HW292041  10.750  11.548   4.147 -0.4400  0.3236 -2.5727
28331SOL     OW92042   9.148   1.432   6.643 -0.3442  0.4270 -0.0725
28331SOL    HW192043   9.209   1.440   6.569  1.1631  1.9899  1.2319
28331SOL    HW292044   9.063   1.459   6.607  0.5032  1.9578 -1.0633
28332SOL     OW92045   5.263  11.764   9.653 -0.1420  0.2767 -0.2659
28332SOL    HW192046   5.354  11.777   9.624  1.0676  0.1922  3.1144
28332SOL    HW292047   5.257  11.670   9.670 -0.0357  0.6231  1.8627
28333SOL     OW92048   4.188   7.591   2.841 -0.0613 -0.0261  0.0507
28333SOL    HW192049   4.135   7.524   2.884 -2.0513  0.9122 -0.8436
28333SOL    HW292050   4.189   7.665   2.901 -1.5609  0.7162 -0.7788
28334SOL     OW92051   8.588   3.108   7.042  0.4550  0.6581 -0.0173
28334SOL    HW192052   8.639   3.188   7.055 -0.0365  0.6227  2.8827
28334SOL    HW292053   8.620   3.048   7.110 -0.7895 -0.7656 -0.6173
28335SOL     OW92054  12.030   0.641   0.797  0.9065 -0.4092  0.1090
28335SOL    HW192055  12.115   0.598   0.801  0.4760 -1.2131  1.4262
28335SOL    HW292056  11.969   0.576   0.833 -0.9595 -1.4359 -4.1836
28336SOL     OW92057   8.056   5.825   5.300  0.0219 -0.2772 -0.3647
28336SOL    HW192058   8.129   5.884   5.314  0.1557 -0.4754 -0.2194
28336SOL    HW292059   8.090   5.738   5.322 -0.7272 -0.1773  1.3432
28337SOL     OW92060   9.694   3.446   4.149 -0.1815 -0.1317 -0.1736
28337SOL    HW192061   9.666   3.435   4.058  1.4578 -1.5375 -0.5636
28337SOL    HW292062   9.781   3.485   4.142 -0.3703  0.5036  0.8487
28338SOL     OW92063  11.959  11.973   6.712 -0.2068 -0.1696 -0.0447
28338SOL    HW192064  12.030  11.910   6.711 -0.0424  0.0229 -0.4388
28338SOL    HW292065  11.970  12.021   6.795 -0.6814 -1.0458  0.5398
28339SOL     OW92066   2.691  11.807   3.575  0.1084 -0.0803  0.1550
28339SOL    HW192067   2.597  11.825   3.580  0.2722  1.2176 -0.8101
28339SOL    HW292068   2.714  11.827   3.484  1.3537 -0.1977  0.4252
28340SOL     OW92069   9.482   7.373   1.215 -0.4150  0.3178  0.3274
28340SOL    HW192070   9.443   7.290   1.244  1.0582 -0.7782 -0.6999
28340SOL    HW292071   9.560   7.383   1.269 -0.7125  1.1891  0.6166
28341SOL     OW92072   6.353   2.910   4.345 -0.0574  0.2561  0.0551
28341SOL    HW192073   6.299   2.921   4.267  1.2948 -0.5451 -1.0396
28341SOL    HW292074   6.308   2.961   4.412 -1.8193  0.1293 -0.9538
28342SOL     OW92075   4.804   6.739   6.695  0.9141 -0.0617  0.4931
28342SOL    HW192076   4.819   6.784   6.612  2.5158  2.0012  1.8055
28342SOL    HW292077   4.739   6.793   6.740 -0.0444 -1.2427  0.5668
28343SOL     OW92078   9.836   4.447   7.627 -0.6769 -0.3631  0.7443
28343SOL    HW192079   9.803   4.469   7.540  0.5818 -0.7910  0.1375
28343SOL    HW292080   9.931   4.440   7.616 -0.5058 -0.5036  2.1356
28344SOL     OW92081   7.323   2.004   5.519 -0.4561 -0.3361  0.3345
28344SOL    HW192082   7.243   1.990   5.468 -0.4922 -0.4124  0.4125
28344SOL    HW292083   7.387   1.944   5.480 -0.0447  0.6843 -0.6116
28345SOL     OW92084   1.327   9.116   9.064 -0.6736 -0.0607 -0.1201
28345SOL    HW192085   1.333   9.207   9.091  0.5913 -0.2102  0.1303
28345SOL    HW292086   1.417   9.084   9.062 -1.0955 -1.3395 -0.0957
28346SOL     OW92087   2.523   9.837   0.219 -0.1030  0.2534 -0.1824
28346SOL    HW192088   2.542   9.784   0.142  2.2965  0.0232  0.4979
28346SOL    HW292089   2.584   9.911   0.213 -1.0314  1.1284  0.6595
28347SOL     OW92090  10.413   1.263  11.666  0.2754  0.2285  0.3719
28347SOL    HW192091  10.323   1.282  11.638  0.7996  0.7554 -1.0782
28347SOL    HW292092  10.464   1.340  11.638  1.1281  0.0900  1.4774
28348SOL     OW92093   8.418   7.229  11.562  0.3819  0.0114  0.6000
28348SOL    HW192094   8.447   7.285  11.635 -0.1069 -0.7699  1.4085
28348SOL    HW292095   8.437   7.140  11.591 -0.7279 -0.3693  0.1819
28349SOL     OW92096   7.032   8.534   6.203 -0.3114  0.0309  0.0520
28349SOL    HW192097   6.964   8.473   6.232 -2.3586  1.1310 -2.0980
28349SOL    HW292098   7.069   8.569   6.284 -0.9981 -1.9959  1.3062
28350SOL     OW92099  10.808   1.946   8.833 -0.2039 -0.1101  0.1256
28350SOL    HW192100  10.832   2.037   8.852  0.3565 -0.1167 -0.5247
28350SOL    HW292101  10.830   1.934   8.741  0.7248 -1.2167  0.4643
28351SOL     OW92102  10.227   8.479  10.148  0.0835  0.0179 -0.0236
28351SOL    HW192103  10.229   8.403  10.207  0.7732 -0.2294 -0.3577
28351SOL    HW292104  10.264   8.447  10.066  3.0622  1.3578  0.6408
28352SOL     OW92105  10.450   9.193   5.021 -0.1499 -0.2799 -0.0700
28352SOL    HW192106  10.472   9.101   5.033 -0.4531 -0.5353 -1.2928
28352SOL    HW292107  10.390   9.194   4.947 -2.6127  0.6168  1.8152
28353SOL     OW92108   7.440   0.049   6.934  0.1558 -0.1305 -0.1005
28353SOL    HW192109   7.515   0.061   6.993 -0.1360 -1.4843  0.5813
28353SOL    HW292110   7.458   0.108   6.861  2.3206 -1.0070 -0.3548
28354SOL     OW92111  12.437   6.660   3.508 -0.3880  0.5539  0.2131
28354SOL    HW192112  12.531   6.647   3.520 -0.4454 -1.6336 -1.0875
28354SOL    HW292113  12.397   6.597   3.568 -0.9933  0.9787  0.2551
28355SOL     OW92114   6.851   0.388   4.331 -0.3742 -0.6697 -0.4149
28355SOL    HW192115   6.943   0.403   4.353  0.0907 -1.8741 -1.3489
28355SOL    HW292116   6.805   0.391   4.414  0.1107  2.2425 -0.1424
28356SOL     OW92117   4.028   4.828   2.227 -0.1101 -0.1975  0.2645
28356SOL    HW192118   4.002   4.770   2.298 -0.1350 -1.2669 -0.5795
28356SOL    HW292119   4.067   4.769   2.162  2.0892  1.0088  0.3763
28357SOL     OW92120  12.199  11.918  11.825 -0.6561  0.4305 -0.1090
28357SOL    HW192121  12.260  11.972  11.773  2.1931 -1.7525  0.6896
28357SOL    HW292122  12.156  11.862  11.760  0.2683  0.1278 -0.4883
28358SOL     OW92123   9.270  11.087  10.253 -0.4410 -0.2980 -0.2417
28358SOL    HW192124   9.311  11.136  10.323 -2.2832  1.7951 -0.5187
28358SOL    HW292125   9.180  11.073  10.283 -0.8359 -0.6673 -1.5356
28359SOL     OW92126   2.224   8.050   8.233 -0.1438 -0.1929 -0.0021
28359SOL    HW192127   2.276   8.130   8.241  0.8302 -0.8845  0.8501
28359SOL    HW292128   2.164   8.067   8.161  1.0400  0.7547 -0.7947
28360SOL     OW92129   2.897  12.060   9.648  0.4102  0.0475  0.1382
28360SOL    HW192130   2.887  12.129   9.714  0.1102  2.1902 -2.0258
28360SOL    HW292131   2.946  11.991   9.693  2.4782  2.4758  1.8780
28361SOL     OW92132   2.146   8.577   3.028 -0.3375  0.3651 -0.1091
28361SOL    HW192133   2.057   8.541   3.024 -0.6397  1.0634  0.0581
28361SOL    HW292134   2.192   8.535   2.955 -1.4049  1.5185 -1.5225
28362SOL     OW92135   8.713   7.025   4.049  0.2100 -0.1619  0.3324
28362SOL    HW192136   8.808   7.027   4.064  0.6791 -0.0129 -2.2240
28362SOL    HW292137   8.675   7.019   4.137  2.5895 -0.7002  1.4093
28363SOL     OW92138   1.199   0.504   3.524 -0.0060 -0.3613 -0.3091
28363SOL    HW192139   1.194   0.409   3.535  0.7647 -0.3143  0.5741
28363SOL    HW292140   1.134   0.539   3.584  0.5820 -0.2982  0.3074
28364SOL     OW92141   2.496   5.278   5.994  0.5261  0.3516 -0.2326
28364SOL    HW192142   2.475   5.259   6.086  1.4065  0.1006 -0.0772
28364SOL    HW292143   2.484   5.373   5.986  2.5615  0.7555  0.7397
28365SOL     OW92144   4.504  10.841  12.434 -0.2064  0.1477 -0.6993
28365SOL    HW192145   4.518  10.926  12.393 -0.9756 -0.1069 -1.5295
28365SOL    HW292146   4.555  10.780  12.380  0.2013  0.0575 -0.2160
28366SOL     OW92147  10.755   0.304   2.466 -0.4341 -0.5046  0.5215
28366SOL    HW192148  10.808   0.228   2.489  0.4595 -0.1815 -0.4195
28366SOL    HW292149  10.704   0.275   2.390  1.8160  0.5922 -1.5077
28367SOL     OW92150   1.136   3.533   6.738 -0.5020  0.3799  0.3276
28367SOL    HW192151   1.048   3.501   6.720 -0.3683  0.5192 -0.6231
28367SOL    HW292152   1.185   3.455   6.765 -1.1749  0.4830  1.9388
28368SOL     OW92153  11.522   9.200   0.641 -0.0726 -1.1337 -0.1701
28368SOL    HW192154  11.583   9.179   0.713 -0.1576 -1.5887 -0.2290
28368SOL    HW292155  11.572   9.182   0.562  0.2075 -0.1165 -0.2486
28369SOL     OW92156   1.102   7.433  12.087  0.0129 -0.4496  0.2446
28369SOL    HW192157   1.081   7.522  12.115 -1.3356 -1.2495  1.9096
28369SOL    HW292158   1.034   7.412  12.023  0.7600 -0.0563 -0.7073
28370SOL     OW92159   8.484   0.147  11.939  0.4850  0.6488 -0.3400
28370SOL    HW192160   8.572   0.151  11.976  0.7225  1.4683 -0.9671
28370SOL    HW292161   8.448   0.064  11.971  2.0510 -0.4658 -1.3280
28371SOL     OW92162   9.045   0.077   8.088 -0.2977 -0.4533  0.1634
28371SOL    HW192163   8.997  -0.005   8.079 -2.3233  0.7015 -0.0661
28371SOL    HW292164   9.025   0.126   8.009  0.8971  0.2688  0.2859
28372SOL     OW92165   1.269   3.987   0.408 -0.0675  0.6498  0.5419
28372SOL    HW192166   1.332   4.013   0.341  0.8152  1.7278  1.7675
28372SOL    HW292167   1.282   3.893   0.418 -1.2189  0.1528 -1.7835
28373SOL     OW92168   2.766   5.791   1.424 -0.4028  0.7152 -0.1986
28373SOL    HW192169   2.784   5.701   1.395  0.0363  1.1486 -1.3354
28373SOL    HW292170   2.682   5.812   1.384 -1.3066  0.2635  1.4031
28374SOL     OW92171   5.418   9.613   8.526 -0.5442  0.3635 -0.1440
28374SOL    HW192172   5.349   9.678   8.533 -0.1581  0.9479 -1.4290
28374SOL    HW292173   5.380   9.544   8.471 -1.0912 -0.7381  1.5257
28375SOL     OW92174   9.155   6.065   4.855 -0.0448  0.0377  0.6151
28375SOL    HW192175   9.240   6.049   4.814  0.9949  2.3473  1.6972
28375SOL    HW292176   9.129   5.979   4.889  1.8854 -0.7316  0.3310
28376SOL     OW92177   6.370   1.085  12.489 -0.0442  0.4771 -0.0059
28376SOL    HW192178   6.332   1.157  12.540 -1.1363 -0.4355  0.5153
28376SOL    HW292179   6.372   1.011  12.550  1.6950  0.2188 -0.3273
28377SOL     OW92180   6.101   0.213  10.151  0.1863  0.2110 -0.8591
28377SOL    HW192181   6.020   0.163  10.164  0.5163 -0.1593 -0.2019
28377SOL    HW292182   6.072   0.299  10.122 -0.5506  0.7583  1.3518
28378SOL     OW92183   0.366   3.395  11.676 -0.5477  0.2381  0.5715
28378SOL    HW192184   0.358   3.475  11.625 -1.1466 -0.0341  0.2370
28378SOL    HW292185   0.288   3.392  11.730 -1.3377 -0.9092 -0.5643
28379SOL     OW92186   5.161   9.359   9.312 -0.5078 -0.0367  0.3668
28379SOL    HW192187   5.228   9.312   9.361 -0.5985 -0.2689  0.2711
28379SOL    HW292188   5.210   9.423   9.260 -0.5049  1.0621  1.6764
28380SOL     OW92189  11.610   8.837   1.618 -0.4719 -0.6769 -0.0127
28380SOL    HW192190  11.561   8.796   1.688  0.7277  0.3815  1.5138
28380SOL    HW292191  11.578   8.927   1.615  1.0107 -0.0977  0.7064
28381SOL     OW92192   4.148   0.819   4.506 -0.2651 -0.2674  0.0942
28381SOL    HW192193   4.167   0.742   4.452 -0.4640  0.4879 -1.0708
28381SOL    HW292194   4.232   0.865   4.511 -0.5625  0.3930 -0.7658
28382SOL     OW92195   1.168   4.559   3.226 -0.0674  0.2497 -0.4198
28382SOL    HW192196   1.117   4.517   3.295  0.7312 -0.2886 -0.1419
28382SOL    HW292197   1.127   4.531   3.144  0.2780 -0.8311 -0.2263
28383SOL     OW92198   9.656   8.027   8.472  0.2374  0.0269  0.6974
28383SOL    HW192199   9.616   7.980   8.545  0.3907  0.4972  1.0908
28383SOL    HW292200   9.582   8.050   8.416 -0.5318  3.2312  2.7374
28384SOL     OW92201   6.187   5.495   9.833 -0.8607 -0.4581  0.3897
28384SOL    HW192202   6.138   5.418   9.863 -0.6521 -0.4460  0.7633
28384SOL    HW292203   6.136   5.527   9.758 -1.2341 -0.6512  0.5541
28385SOL     OW92204  10.390   5.781   7.102 -0.1901  0.0500 -0.2683
28385SOL    HW192205  10.338   5.812   7.176 -2.2782 -0.9897 -1.2116
28385SOL    HW292206  10.395   5.686   7.115  1.4935  0.1181 -0.2256
28386SOL     OW92207   5.655   6.468   2.038  0.1174  0.0695 -0.1995
28386SOL    HW192208   5.571   6.427   2.058  0.0755 -0.1200 -0.7632
28386SOL    HW292209   5.644   6.508   1.952  0.4199  0.5589 -0.0215
28387SOL     OW92210   8.696   5.560   1.917  0.4253 -0.1881 -0.5765
28387SOL    HW192211   8.631   5.490   1.906  0.3355  0.1544 -2.5532
28387SOL    HW292212   8.777   5.514   1.936 -0.3466 -0.6268  2.0215
28388SOL     OW92213  12.084   7.063   9.601  0.1704  0.5760 -0.1465
28388SOL    HW192214  12.000   7.093   9.636  0.6871  1.0705  0.6872
28388SOL    HW292215  12.132   7.143   9.581  0.6059  0.2975 -0.2257
28389SOL     OW92216   3.751   4.487   0.163  0.3663 -0.3945  0.2570
28389SOL    HW192217   3.685   4.541   0.206 -0.6580 -1.1525 -0.3284
28389SOL    HW292218   3.808   4.457   0.234 -0.9604 -1.1719  1.0327
28390SOL     OW92219   7.692   2.609   2.214 -0.0075 -0.5093  0.6437
28390SOL    HW192220   7.717   2.548   2.283  3.2036  0.7416  0.7474
28390SOL    HW292221   7.730   2.572   2.134 -1.1191 -0.4363  0.0668
28391SOL     OW92222   4.488  12.379   3.932 -0.3370  0.4410  0.4063
28391SOL    HW192223   4.533  12.313   3.880 -1.9248 -1.2686  1.0790
28391SOL    HW292224   4.460  12.445   3.868 -1.5572 -1.2082 -0.8705
28392SOL     OW92225   1.830   5.696   7.293 -0.2069  0.0221  0.0348
28392SOL    HW192226   1.810   5.667   7.382 -0.7344  1.6135  0.4674
28392SOL    HW292227   1.746   5.692   7.247 -0.0872 -0.0797 -0.1767
28393SOL     OW92228   3.693   7.641   7.727  0.7814  0.3988 -0.3160
28393SOL    HW192229   3.724   7.622   7.638  1.0993  1.8215 -0.5476
28393SOL    HW292230   3.621   7.703   7.714 -0.2049 -0.5763  0.3658
28394SOL     OW92231   3.271   8.725   4.825  0.1247 -0.0402 -0.2920
28394SOL    HW192232   3.314   8.763   4.902  0.0335 -1.0160  0.2451
28394SOL    HW292233   3.237   8.641   4.855 -0.4521 -0.1572 -1.2402
28395SOL     OW92234   5.463   6.557   0.612 -0.4554  0.1298 -0.3025
28395SOL    HW192235   5.476   6.615   0.537 -1.2771 -0.0416 -0.5753
28395SOL    HW292236   5.552   6.531   0.637 -0.0675  1.4728 -0.2001
28396SOL     OW92237  11.830   1.811  11.065  0.2166 -0.3923  0.1708
28396SOL    HW192238  11.855   1.899  11.095 -1.0639  1.0448 -2.5809
28396SOL    HW292239  11.903   1.783  11.010 -1.7236  1.8775 -4.1490
28397SOL     OW92240   3.657   6.768   3.155 -0.3552 -0.2836 -0.1934
28397SOL    HW192241   3.619   6.841   3.204  0.2303 -1.3271  1.9366
28397SOL    HW292242   3.586   6.705   3.147 -0.3506 -0.2655 -0.3865
28398SOL     OW92243   9.855   9.594   6.228 -0.4481  0.1558  0.0436
28398SOL    HW192244   9.793   9.651   6.274 -0.2859  0.7023 -0.3918
28398SOL    HW292245   9.921   9.572   6.293 -1.4955 -1.0658  0.7255
28399SOL     OW92246   6.664   3.778   8.896  0.0714 -0.2592  0.4766
28399SOL    HW192247   6.649   3.800   8.988 -2.4067  0.0506  0.0614
28399SOL    HW292248   6.646   3.684   8.891 -0.5691 -0.1233  0.1772
28400SOL     OW92249   5.736   7.557  10.008 -0.7229  0.6925  0.3904
28400SOL    HW192250   5.742   7.613   9.930 -0.9381  2.3201  1.4987
28400SOL    HW292251   5.823   7.562  10.047 -0.5450 -0.3168  0.1420
28401SOL     OW92252   9.060   0.488  12.415 -0.9063 -0.0346  0.5193
28401SOL    HW192253   9.060   0.404  12.462  1.8267 -0.1304  0.5215
28401SOL    HW292254   9.153   0.512  12.410 -1.2230  0.9851 -3.0329
28402SOL     OW92255   6.843   7.943   4.615 -0.2954  0.3684  0.0063
28402SOL    HW192256   6.808   8.026   4.586 -1.8229 -0.1338  0.3271
28402SOL    HW292257   6.927   7.934   4.569 -0.1367  2.0334 -0.0581
28403SOL     OW92258   9.868   0.418  10.312  0.7663  0.3441 -0.4153
28403SOL    HW192259   9.962   0.427  10.326  0.5768 -0.6994  2.1665
28403SOL    HW292260   9.859   0.341  10.255  1.4849 -1.1836  1.4141
28404SOL     OW92261   8.453   4.493   2.858  0.1495  0.1700  0.4842
28404SOL    HW192262   8.427   4.420   2.915 -0.4527  1.9821  2.7013
28404SOL    HW292263   8.513   4.545   2.912  1.5623  0.7163 -1.4775
28405SOL     OW92264   5.349   1.583   7.593 -0.2338  0.2543  0.0740
28405SOL    HW192265   5.440   1.578   7.561 -0.5410  0.0283 -0.8091
28405SOL    HW292266   5.315   1.494   7.579 -1.2419  0.8585 -1.6636
28406SOL     OW92267   0.914   6.303   5.023 -0.1960 -0.4324  0.0670
28406SOL    HW192268   0.899   6.244   4.950 -1.0109 -2.3109  1.6695
28406SOL    HW292269   1.003   6.286   5.052 -0.2382 -0.4787  0.1738
28407SOL     OW92270   4.821   6.013   4.669  0.5752  0.0172  0.9426
28407SOL    HW192271   4.897   5.956   4.678  0.8889 -0.5052 -3.0699
28407SOL    HW292272   4.752   5.955   4.637 -0.0492  1.2996 -0.1199
28408SOL     OW92273  12.115  12.164  12.341 -0.1782 -0.3543 -0.0322
28408SOL    HW192274  12.106  12.221  12.265  1.0688 -0.5675 -0.3712
28408SOL    HW292275  12.148  12.222  12.410  2.0496 -0.7963 -0.6506
28409SOL     OW92276   4.878   2.084   9.823  0.1930 -0.5137 -0.1749
28409SOL    HW192277   4.917   2.104   9.738 -0.4513  3.2519  0.2507
28409SOL    HW292278   4.950   2.094   9.885 -0.1085  0.3398  0.0424
28410SOL     OW92279  12.430   0.119   3.627  1.0315 -0.2142 -0.4181
28410SOL    HW192280  12.453   0.197   3.577  0.7241  0.7672  0.9051
28410SOL    HW292281  12.412   0.152   3.715 -0.5700 -1.5809 -0.1887
28411SOL     OW92282  10.308   1.389   9.528 -0.3098  0.5009  0.3696
28411SOL    HW192283  10.393   1.430   9.515 -0.6202  0.9017 -0.4917
28411SOL    HW292284  10.264   1.397   9.443  0.0342 -2.6312 -0.2311
28412SOL     OW92285  10.048   4.140   1.992 -0.8379 -0.0526  0.4387
28412SOL    HW192286  10.058   4.200   2.066 -1.5662  0.2705  0.2869
28412SOL    HW292287  10.137   4.113   1.971 -0.2127  2.7479 -0.9441
28413SOL     OW92288   0.125   8.343   0.604  0.3831  0.3767 -0.0067
28413SOL    HW192289   0.136   8.256   0.567  0.5542 -0.2483  1.4314
28413SOL    HW292290   0.037   8.369   0.578  0.5157  0.0015 -0.8753
28414SOL     OW92291  11.432   0.615   7.423 -0.2797 -0.3840 -0.1607
28414SOL    HW192292  11.375   0.596   7.497  0.6938 -1.9982  0.2333
28414SOL    HW292293  11.506   0.662   7.462 -0.8512  0.8333 -0.5090
28415SOL     OW92294   1.967  12.091   9.871  0.5329 -0.1637 -0.0901
28415SOL    HW192295   1.956  12.109   9.778  0.7209  1.0648  0.0973
28415SOL    HW292296   1.965  12.178   9.912  2.1131 -0.5406  0.8683
28416SOL     OW92297   1.396   1.265   6.306  0.2155  0.3271  0.5989
28416SOL    HW192298   1.457   1.205   6.349 -1.0787 -1.1554  0.4631
28416SOL    HW292299   1.416   1.258   6.213  0.1198  0.1714  0.5903
28417SOL     OW92300  11.101  11.980   0.130  0.3862  0.4973  0.3459
28417SOL    HW192301  11.117  11.922   0.204  1.9295  1.7377  1.0309
28417SOL    HW292302  11.010  12.008   0.142  0.4124  0.1825  1.4249
28418SOL     OW92303   3.670   7.534  10.324 -0.2158 -0.2085  0.5073
28418SOL    HW192304   3.659   7.629  10.327  0.2442  0.0253 -2.4067
28418SOL    HW292305   3.764   7.520  10.334 -0.3887 -0.5063  2.0527
28419SOL     OW92306   8.914   9.115   1.375 -0.0598  0.4368  0.6365
28419SOL    HW192307   8.980   9.179   1.403  0.6307 -0.2316  0.5702
28419SOL    HW292308   8.892   9.068   1.455  0.5315 -0.2248  0.4168
28420SOL     OW92309   0.907  11.091   9.782  0.0235 -0.3929  0.4508
28420SOL    HW192310   0.981  11.135   9.824  0.9976  1.2047 -2.5821
28420SOL    HW292311   0.845  11.161   9.762 -0.1565 -0.9560 -1.1155
28421SOL     OW92312   1.749   4.232  12.288  0.7511  0.1712  0.1426
28421SOL    HW192313   1.702   4.312  12.311  0.4317  0.4397 -1.3406
28421SOL    HW292314   1.839   4.262  12.270  1.0306 -0.0539  1.1434
28422SOL     OW92315  10.691  12.439   9.363  1.1204 -0.0312 -0.4386
28422SOL    HW192316  10.764  12.400   9.411  0.9342  0.3778  0.1928
28422SOL    HW292317  10.731  12.474   9.283  1.5499 -0.1548 -0.2795
28423SOL     OW92318   1.604   1.660  11.843  0.0615  0.2585 -0.0675
28423SOL    HW192319   1.626   1.618  11.760  0.6137  0.9678 -0.2900
28423SOL    HW292320   1.536   1.723  11.820 -1.5849 -1.2268  0.4516
28424SOL     OW92321   6.625   2.926   1.551 -0.2037 -0.3443 -0.1979
28424SOL    HW192322   6.609   3.017   1.526 -0.4801 -0.9339 -2.3168
28424SOL    HW292323   6.629   2.878   1.469 -1.3349 -2.4741  0.8927
28425SOL     OW92324   5.886   8.856   9.838 -0.1203  0.4812  0.3636
28425SOL    HW192325   5.909   8.811   9.757 -2.7731  0.8542 -0.7286
28425SOL    HW292326   5.950   8.927   9.846  0.5064  0.1208 -1.1350
28426SOL     OW92327   1.370   9.769   7.527  0.2122  0.7828  0.1546
28426SOL    HW192328   1.388   9.825   7.452 -0.4841  0.6501 -0.1144
28426SOL    HW292329   1.437   9.793   7.591  0.9628  0.7178 -0.5932
28427SOL     OW92330   5.042   3.684   1.837 -0.6086  0.2768 -0.0753
28427SOL    HW192331   5.053   3.775   1.862 -0.0416  0.6232 -1.4848
28427SOL    HW292332   4.999   3.687   1.751  0.5975 -0.7212 -0.7472
28428SOL     OW92333  11.966   5.053   9.857  0.0831 -0.2551 -0.0784
28428SOL    HW192334  11.993   4.988   9.792 -1.4085 -0.7369 -0.2633
28428SOL    HW292335  11.899   5.008   9.908 -0.7910  1.0468 -0.0307
28429SOL     OW92336   8.670   1.120   0.118  0.1026  0.5490 -0.1487
28429SOL    HW192337   8.688   1.027   0.129 -0.1545  0.7019  2.1049
28429SOL    HW292338   8.575   1.128   0.129 -0.2231  0.8338 -2.7283
28430SOL     OW92339   6.990  10.453   7.794 -0.8186 -0.0820 -0.5413
28430SOL    HW192340   6.911  10.411   7.762 -1.2026  0.9122 -0.9443
28430SOL    HW292341   6.984  10.543   7.762 -0.9424  0.8263  1.8387
28431SOL     OW92342   0.560   9.349   2.229 -0.7281  0.2004 -0.1796
28431SOL    HW192343   0.494   9.394   2.176 -0.5141 -1.1341 -1.6620
28431SOL    HW292344   0.639   9.349   2.174 -0.2339 -0.4204  0.5185
28432SOL     OW92345  12.079  11.971   5.501  0.5926 -0.4924 -0.1729
28432SOL    HW192346  12.108  12.024   5.575  2.2620 -1.8121  0.2033
28432SOL    HW292347  12.003  12.016   5.466  1.0871  1.3364  1.0024
28433SOL     OW92348   8.526   0.984   4.879 -0.5711  0.1093 -0.0478
28433SOL    HW192349   8.470   1.057   4.903 -0.0105  0.5542 -0.0806
28433SOL    HW292350   8.479   0.941   4.807 -1.7985 -0.6804  1.1641
28434SOL     OW92351  11.292   8.570   3.777  0.3235 -0.1617  0.1560
28434SOL    HW192352  11.318   8.660   3.757 -0.5702 -0.0862 -0.7518
28434SOL    HW292353  11.230   8.579   3.849  2.1981 -0.2949  1.8912
28435SOL     OW92354   4.575   1.484  10.381  0.0536 -1.2881  0.2501
28435SOL    HW192355   4.520   1.405  10.389  0.7976 -1.8450 -0.0799
28435SOL    HW292356   4.608   1.498  10.470 -0.8286 -0.7898  0.5116
28436SOL     OW92357   0.977   9.737   8.573  0.2521 -0.1734  0.0751
28436SOL    HW192358   0.983   9.707   8.483 -0.6370  0.6090 -0.2586
28436SOL    HW292359   0.925   9.817   8.569  3.0739  1.8354  0.8454
28437SOL     OW92360   5.199   4.596   8.622  0.0703 -0.0244  0.2350
28437SOL    HW192361   5.114   4.580   8.662  0.7213  0.1434  1.7559
28437SOL    HW292362   5.215   4.689   8.635  0.0451  0.1667 -0.9773
28438SOL     OW92363   7.304   7.761   0.210 -0.3405  0.1662 -0.1064
28438SOL    HW192364   7.321   7.714   0.128  2.5038  0.9444 -0.0693
28438SOL    HW292365   7.307   7.854   0.185  3.6988  0.5803  1.1753
28439SOL     OW92366   6.134   4.184   6.056 -0.0169  0.1412  0.1061
28439SOL    HW192367   6.089   4.181   6.141  1.0426 -0.6594  0.6580
28439SOL    HW292368   6.220   4.147   6.073  0.8369  1.5541 -0.9622
28440SOL     OW92369   5.628   9.139   0.233 -0.2690  0.5261 -0.5696
28440SOL    HW192370   5.662   9.120   0.146 -0.8923 -0.7342 -0.5592
28440SOL    HW292371   5.562   9.207   0.219  0.4267  1.1391 -0.9182
28441SOL     OW92372   7.509  11.845  10.150 -0.3721  0.3637  0.1934
28441SOL    HW192373   7.481  11.923  10.103  0.4294  0.4466 -0.1618
28441SOL    HW292374   7.568  11.878  10.218 -1.2690  0.2142  1.0702
28442SOL     OW92375   5.853   9.591   1.384 -0.5962 -0.1825 -0.2112
28442SOL    HW192376   5.795   9.633   1.447 -0.7387  0.8771 -1.0130
28442SOL    HW292377   5.835   9.636   1.301  0.3379 -0.8182 -0.7825
28443SOL     OW92378   7.136   3.623   8.516 -0.3756 -0.2251 -0.1603
28443SOL    HW192379   7.044   3.647   8.526 -0.6116 -0.4524 -1.6249
28443SOL    HW292380   7.171   3.687   8.455  0.4100 -0.2284  0.2768
28444SOL     OW92381   0.661   9.071   4.072 -0.2905  0.4249 -0.4806
28444SOL    HW192382   0.632   9.162   4.058  0.5022  0.7651  0.0436
28444SOL    HW292383   0.748   9.079   4.111 -0.9981 -0.5399  1.3844
28445SOL     OW92384   2.789   0.320   7.898  0.1339  0.0343  0.8299
28445SOL    HW192385   2.796   0.407   7.937  0.2450 -0.3909  1.7712
28445SOL    HW292386   2.707   0.323   7.848 -1.0542 -0.0179  2.6942
28446SOL     OW92387   8.502   6.812   2.448  0.7590 -0.7785 -0.2281
28446SOL    HW192388   8.426   6.869   2.456  0.8272 -0.9278  1.8425
28446SOL    HW292389   8.487   6.764   2.366  0.7596  2.2241 -2.1675
28447SOL     OW92390   6.791   5.100   5.923  0.1743 -0.2139 -0.3534
28447SOL    HW192391   6.800   5.009   5.896 -0.6142 -0.5104  0.3422
28447SOL    HW292392   6.835   5.104   6.009  0.4513  0.1303 -0.5053
28448SOL     OW92393   0.650   7.135   8.768 -0.4231 -0.3575 -0.1263
28448SOL    HW192394   0.746   7.131   8.764 -0.4111 -0.1331 -0.0801
28448SOL    HW292395   0.624   7.168   8.682 -0.5830 -2.3490 -0.9067
28449SOL     OW92396   7.945   5.032  10.817 -0.1594  0.0519  0.5289
28449SOL    HW192397   7.956   5.044  10.912  1.1505 -2.0889  0.7102
28449SOL    HW292398   7.926   4.939  10.807  0.0994  0.1795 -1.3622
28450SOL     OW92399   4.318  11.097   3.323 -0.4037  0.1121  0.2726
28450SOL    HW192400   4.273  11.018   3.294  0.4221  0.0656 -0.9885
28450SOL    HW292401   4.401  11.065   3.358 -0.0994  0.3891 -0.1727
28451SOL     OW92402   3.893   3.524   5.466 -0.7465  0.5541 -0.7349
28451SOL    HW192403   3.822   3.474   5.507  0.4072  1.1956  2.2887
28451SOL    HW292404   3.969   3.467   5.470 -0.0643  1.5001  0.1877
28452SOL     OW92405   3.511   1.308   5.672  0.4384 -0.4933  0.1023
28452SOL    HW192406   3.535   1.219   5.646  0.5780 -0.3849 -0.1423
28452SOL    HW292407   3.516   1.359   5.591  0.3395 -0.2673  0.2378
28453SOL     OW92408  10.736   0.496   1.550 -0.3347  0.1531  0.1756
28453SOL    HW192409  10.726   0.514   1.643  0.2887 -0.7307  0.4256
28453SOL    HW292410  10.794   0.564   1.518 -1.5677  1.2237  0.1482
28454SOL     OW92411  11.890  11.268   5.683  0.9466  0.8766 -0.1946
28454SOL    HW192412  11.823  11.255   5.750  0.2215  0.7412 -0.9290
28454SOL    HW292413  11.973  11.257   5.730  0.4588 -1.9925  0.1622
28455SOL     OW92414   2.281  10.891   6.309  0.2347 -0.7457 -0.5561
28455SOL    HW192415   2.284  10.801   6.342  0.1394  0.0626  1.7695
28455SOL    HW292416   2.352  10.936   6.354 -0.6491  0.7031 -0.5343
28456SOL     OW92417   6.661   8.714   9.983  0.7271 -0.1547  0.4235
28456SOL    HW192418   6.620   8.782  10.037  0.5383  0.9505 -1.0223
28456SOL    HW292419   6.652   8.634  10.034 -2.2189  0.2425  0.7161
28457SOL     OW92420   5.511   3.050   8.972  0.2622  0.0700  0.3249
28457SOL    HW192421   5.549   2.983   9.028 -1.3557 -0.3847  0.9167
28457SOL    HW292422   5.461   3.001   8.906  2.8545  0.5217 -2.2112
28458SOL     OW92423  12.588  12.481   8.722 -0.5785  0.3596 -0.3050
28458SOL    HW192424  12.495  12.472   8.700 -0.6462  2.1759 -0.8660
28458SOL    HW292425  12.590  12.545   8.792  0.1557 -0.9343  0.9205
28459SOL     OW92426  12.507   5.804   3.542 -0.5371 -0.1531  0.3174
28459SOL    HW192427  12.483   5.712   3.540  0.0384 -0.2965 -0.4661
28459SOL    HW292428  12.590   5.806   3.590  1.4321 -0.5655 -2.8038
28460SOL     OW92429   7.484  12.146   4.296  0.2429  0.4302 -0.4571
28460SOL    HW192430   7.565  12.097   4.309 -0.9828 -1.2217  1.5195
28460SOL    HW292431   7.486  12.214   4.364 -0.5979 -0.4475  0.4677
28461SOL     OW92432   9.194   5.570   9.426  0.8165 -0.2283  0.0531
28461SOL    HW192433   9.247   5.571   9.347  0.9109  0.2476  0.1183
28461SOL    HW292434   9.108   5.601   9.398  1.3160  1.6420  0.4393
28462SOL     OW92435   7.789  12.061   6.767  0.0162  0.7258  0.3773
28462SOL    HW192436   7.845  12.102   6.832  2.2729 -0.7691 -0.4911
28462SOL    HW292437   7.730  12.130   6.738  2.0015  2.6572  0.7145
28463SOL     OW92438   0.224   3.546  10.101  0.7642 -0.0581 -0.1821
28463SOL    HW192439   0.214   3.540  10.196  2.1269 -1.5000 -0.0869
28463SOL    HW292440   0.291   3.481  10.080  1.7257  1.4165 -1.9483
28464SOL     OW92441   1.907   6.509   7.983 -0.1666 -0.0101 -0.1532
28464SOL    HW192442   1.817   6.497   8.012  0.1992 -0.1931  0.9741
28464SOL    HW292443   1.959   6.460   8.046  0.6672 -0.7146 -1.3469
28465SOL     OW92444   8.251   4.705  11.797 -0.1001  0.2582 -0.4600
28465SOL    HW192445   8.202   4.737  11.721 -0.0105 -0.5661 -0.8741
28465SOL    HW292446   8.221   4.760  11.870  0.3594  1.5327 -1.2282
28466SOL     OW92447   0.040   9.905   7.511 -0.1607  0.2498 -0.1878
28466SOL    HW192448   0.104   9.949   7.568  0.9555  0.5120 -1.5857
28466SOL    HW292449  -0.045   9.924   7.551  0.5031  1.4588  0.7078
28467SOL     OW92450   7.298   1.271   8.040  0.5543 -0.0963 -0.6980
28467SOL    HW192451   7.332   1.194   7.995  0.6616 -0.8401  0.6231
28467SOL    HW292452   7.353   1.280   8.118 -0.8639 -0.0230  0.3301
28468SOL     OW92453   2.951   9.444  12.285  0.1083  0.1196  0.5584
28468SOL    HW192454   2.970   9.507  12.355 -0.0384  0.3798  0.3651
28468SOL    HW292455   3.033   9.435  12.238  0.3975 -0.5823  1.1818
28469SOL     OW92456   4.967   1.847   1.470 -0.5202  0.6536  0.0719
28469SOL    HW192457   5.038   1.858   1.407 -0.3589  0.2997  0.1907
28469SOL    HW292458   4.887   1.846   1.417 -0.2837 -1.2473 -0.3074
28470SOL     OW92459   7.440  11.250   9.470 -0.8765 -0.4636 -0.1407
28470SOL    HW192460   7.464  11.332   9.427 -1.9160 -0.9073 -1.6832
28470SOL    HW292461   7.413  11.275   9.558 -2.0066  0.9872 -0.8611
28471SOL     OW92462  12.027   9.693  10.742 -0.6449 -0.6780  0.1334
28471SOL    HW192463  12.028   9.778  10.699  0.6274 -0.2678  0.8985
28471SOL    HW292464  11.950   9.648  10.707 -0.4332  0.1627 -1.4805
28472SOL     OW92465   8.661  10.960   9.529  0.7180 -0.4075  0.1859
28472SOL    HW192466   8.647  10.993   9.617  0.4803  0.3834 -0.1390
28472SOL    HW292467   8.645  10.866   9.535  1.2228 -0.4494  1.0910
28473SOL     OW92468   0.663   0.722   3.107  0.3474 -0.6129  0.0711
28473SOL    HW192469   0.701   0.653   3.052 -0.4179 -1.0380  0.0574
28473SOL    HW292470   0.577   0.688   3.131 -0.8567  1.1163 -1.4889
28474SOL     OW92471   4.345  12.557  11.577  0.8157  0.0852  0.2567
28474SOL    HW192472   4.320  12.646  11.552  0.1105 -0.3197 -0.5590
28474SOL    HW292473   4.262  12.514  11.597  1.0340 -0.6955 -0.4424
28475SOL     OW92474   2.990  11.330   8.611 -0.0694 -0.0426 -0.2150
28475SOL    HW192475   2.978  11.379   8.693 -1.3579 -0.8974  0.1446
28475SOL    HW292476   2.903  11.294   8.592  0.7367 -1.9176 -0.6156
28476SOL     OW92477   7.100   4.988   7.745  0.0037  0.2560 -0.5435
28476SOL    HW192478   7.026   5.044   7.724  0.4317  1.1903  0.3343
28476SOL    HW292479   7.076   4.945   7.827 -0.5231 -1.2682 -1.4455
28477SOL     OW92480   5.132   4.403   0.452 -0.4692 -0.0331  0.0597
28477SOL    HW192481   5.109   4.481   0.401 -0.7475  0.1150  0.4041
28477SOL    HW292482   5.050   4.375   0.491 -0.0146  0.8233  1.7469
28478SOL     OW92483   0.588   2.273   0.273  0.1003  0.3000  0.1069
28478SOL    HW192484   0.501   2.274   0.234 -0.3180  2.5396  0.9540
28478SOL    HW292485   0.647   2.256   0.200 -1.0427 -2.5033 -0.2913
28479SOL     OW92486   9.641   1.766   9.252  0.2872  0.4654  0.0133
28479SOL    HW192487   9.687   1.822   9.314 -0.0876  2.1954 -1.1942
28479SOL    HW292488   9.668   1.677   9.275 -0.2532  0.9746  2.9515
28480SOL     OW92489   8.351   2.915   4.028 -0.8691  0.0394 -0.9837
28480SOL    HW192490   8.293   2.946   3.958 -0.1632  1.4684 -0.9713
28480SOL    HW292491   8.322   2.963   4.106  1.0087  1.6577 -1.2110
28481SOL     OW92492   4.608   3.210   3.700 -0.0990 -0.6209 -0.2574
28481SOL    HW192493   4.702   3.191   3.702  0.0767 -0.0207 -1.6446
28481SOL    HW292494   4.603   3.304   3.687 -0.9520  0.0085  3.4398
28482SOL     OW92495   8.568   1.055  12.095 -0.1537 -0.3927  0.1925
28482SOL    HW192496   8.493   1.049  12.155 -0.6828  0.5640 -0.3520
28482SOL    HW292497   8.530   1.086  12.013  0.9336  0.7201  0.0925
28483SOL     OW92498   8.698  10.269  10.182  0.5454  0.4297  0.0404
28483SOL    HW192499   8.724  10.322  10.257 -1.6776  1.0272  0.4566
28483SOL    HW292500   8.687  10.332  10.111  2.7495 -0.1400 -0.9112
28484SOL     OW92501   2.069   2.582   4.924  0.0165 -0.2515 -0.1944
28484SOL    HW192502   2.091   2.669   4.891  1.0900 -1.0359 -1.6812
28484SOL    HW292503   2.137   2.563   4.989 -1.8166  1.0908  2.3007
28485SOL     OW92504   0.240  11.537   6.831  0.2140 -0.2999  0.5978
28485SOL    HW192505   0.267  11.609   6.889  2.0023  0.4660 -1.0876
28485SOL    HW292506   0.151  11.560   6.804  0.6713  1.1992  0.2634
28486SOL     OW92507   7.406   8.369   0.846  0.6282  0.2872 -0.0410
28486SOL    HW192508   7.416   8.328   0.933 -1.3322 -1.3885 -0.5038
28486SOL    HW292509   7.466   8.321   0.790  0.6307  0.1851  0.0484
28487SOL     OW92510   6.414   6.245   4.515  0.5482 -0.5002  0.4537
28487SOL    HW192511   6.506   6.241   4.487  0.3465 -0.1162 -0.2943
28487SOL    HW292512   6.416   6.298   4.595  0.8405  0.5731 -0.2406
28488SOL     OW92513   6.728   1.455   9.420  0.3898  0.3809 -0.1714
28488SOL    HW192514   6.768   1.397   9.485 -0.3840 -0.6134 -0.5669
28488SOL    HW292515   6.637   1.426   9.414 -0.0122  1.6281 -0.4074
28489SOL     OW92516   4.000   1.941  10.508  0.0827  0.5152  0.0728
28489SOL    HW192517   3.972   2.009  10.570  2.1312  0.5428  1.0441
28489SOL    HW292518   4.004   1.861  10.561  0.1974  0.1784 -0.4378
28490SOL     OW92519  12.550   7.707   2.612  0.1557 -0.0519  0.0175
28490SOL    HW192520  12.518   7.640   2.551  0.1565  1.2466 -1.4952
28490SOL    HW292521  12.645   7.703   2.603  0.1233  1.0328 -1.1488
28491SOL     OW92522   9.731   5.423   2.213  0.3307 -0.2422 -0.6671
28491SOL    HW192523   9.646   5.461   2.191  0.2065  0.1677  0.4878
28491SOL    HW292524   9.792   5.465   2.152 -0.0514  0.6637 -0.4399
28492SOL     OW92525   3.339  11.812   8.266  0.7044 -0.4551  0.4625
28492SOL    HW192526   3.299  11.807   8.179 -0.7820 -1.5913  1.1559
28492SOL    HW292527   3.425  11.852   8.251 -0.1877  0.9454 -1.2815
28493SOL     OW92528   6.292  11.715   3.135  0.3904  0.0112 -0.2675
28493SOL    HW192529   6.378  11.756   3.146  0.1865  0.2573  0.5129
28493SOL    HW292530   6.242  11.745   3.211  0.2563 -1.7097  0.3614
28494SOL     OW92531   5.553   5.251   3.048  0.1136  0.4794  0.5100
28494SOL    HW192532   5.550   5.204   2.965  1.4491  1.6931 -0.2585
28494SOL    HW292533   5.543   5.182   3.114  0.7408 -0.7388 -0.6070
28495SOL     OW92534   2.301   9.999   0.775  0.4390  0.0620  0.2786
28495SOL    HW192535   2.226  10.010   0.833 -1.2610 -2.1346 -1.3211
28495SOL    HW292536   2.268  10.027   0.689  0.7617 -2.6571 -0.8247
28496SOL     OW92537  11.863   0.302   1.121 -0.6628  0.1272  0.2189
28496SOL    HW192538  11.878   0.344   1.036 -0.8794 -0.3726 -0.0742
28496SOL    HW292539  11.949   0.305   1.164  0.0078 -1.4487 -0.8723
28497SOL     OW92540   4.211  12.372   2.460  0.1994  0.1074  0.4867
28497SOL    HW192541   4.299  12.355   2.427 -0.0140  0.1890 -0.1503
28497SOL    HW292542   4.201  12.467   2.453 -0.1868  0.0276 -0.0994
28498SOL     OW92543   2.993   4.659   9.523 -0.4279 -0.4190 -0.3598
28498SOL    HW192544   3.049   4.621   9.591 -0.2014 -1.0850 -0.9048
28498SOL    HW292545   2.988   4.752   9.545  1.0155 -0.3218 -0.3784
28499SOL     OW92546   9.277   6.935   0.791  0.2595  0.1067  0.3942
28499SOL    HW192547   9.316   6.882   0.722  1.5518  0.3046  0.9376
28499SOL    HW292548   9.285   7.025   0.759  1.9285  0.2993  1.2700
28500SOL     OW92549  12.094   3.880   3.529 -0.1486  0.0656 -0.1400
28500SOL    HW192550  12.104   3.826   3.608 -0.1690  1.6419  0.9972
28500SOL    HW292551  12.153   3.954   3.544  0.5823 -0.0640 -2.0721
28501SOL     OW92552   2.789   1.413   3.492 -0.5722  0.1110 -0.1074
28501SOL    HW192553   2.743   1.439   3.572 -0.5628  0.8808 -0.3434
28501SOL    HW292554   2.745   1.462   3.422 -0.3399 -0.2711 -0.5218
28502SOL     OW92555   3.309   9.953   8.127  0.2380  0.3125 -0.4665
28502SOL    HW192556   3.373   9.920   8.064 -1.0562 -0.9757 -1.1525
28502SOL    HW292557   3.294  10.044   8.100  0.8199  0.2302 -1.0761
28503SOL     OW92558   4.008   4.418   5.897  0.8755  0.7289  0.0288
28503SOL    HW192559   4.024   4.475   5.822 -0.2575 -0.4582 -1.1891
28503SOL    HW292560   4.042   4.466   5.972  2.9428  1.5701 -1.3449
28504SOL     OW92561   8.312   5.155   7.424 -0.3746  0.0649  0.1038
28504SOL    HW192562   8.261   5.226   7.464 -0.0368 -0.5833  1.7864
28504SOL    HW292563   8.343   5.104   7.499  0.9299 -0.7987 -0.9880
28505SOL     OW92564   1.352   7.566  11.382  0.1028 -0.4714 -0.1515
28505SOL    HW192565   1.283   7.578  11.447 -0.7797 -0.3648 -1.0816
28505SOL    HW292566   1.353   7.648  11.332  0.2171 -0.8545 -0.7867
28506SOL     OW92567   2.269   9.572   6.609 -0.4500 -0.1228 -0.1413
28506SOL    HW192568   2.288   9.526   6.527  3.7041 -1.7818  1.4668
28506SOL    HW292569   2.243   9.503   6.670  2.0851  0.0700  1.3081
28507SOL     OW92570   3.372   3.084   7.378  0.1234 -0.7373 -0.5468
28507SOL    HW192571   3.295   3.048   7.420  2.3014 -2.1554  2.6605
28507SOL    HW292572   3.431   3.010   7.367  2.1529  0.6868 -0.0308
28508SOL     OW92573   2.768   7.346   0.182  0.2328  0.1344 -0.4331
28508SOL    HW192574   2.777   7.433   0.219  0.9192 -0.3207  0.5309
28508SOL    HW292575   2.756   7.360   0.088  0.3562  1.2538 -0.2896
28509SOL     OW92576   5.092   4.808   4.374  0.2370  0.1789  0.3456
28509SOL    HW192577   5.125   4.722   4.347  1.0248 -0.2107  2.3880
28509SOL    HW292578   5.003   4.811   4.339  1.2078 -0.1545 -2.4025
28510SOL     OW92579   4.796   1.822   8.094 -0.1899  0.0926  0.6524
28510SOL    HW192580   4.740   1.746   8.077 -2.7751  2.0271 -0.1719
28510SOL    HW292581   4.776   1.847   8.184  1.4359 -0.7367  1.2839
28511SOL     OW92582   1.822   9.056  10.995 -0.3530 -0.0515  0.2290
28511SOL    HW192583   1.771   9.131  11.022 -0.2477  0.2581 -0.4001
28511SOL    HW292584   1.882   9.090  10.928 -0.5131 -0.7503 -0.2856
28512SOL     OW92585   5.698  12.088   1.998 -0.3208  0.0669 -0.1015
28512SOL    HW192586   5.773  12.146   1.988  0.1079 -0.2690  1.0336
28512SOL    HW292587   5.623  12.139   1.968  0.0960  1.0980  0.5796
28513SOL     OW92588   9.700  10.727   0.852 -0.0853 -0.0574  1.0552
28513SOL    HW192589   9.657  10.713   0.768  2.8065 -0.7190 -0.4442
28513SOL    HW292590   9.629  10.729   0.916 -2.4358  0.8816 -1.4066
28514SOL     OW92591   2.386  10.371   5.314 -0.2883 -0.4239  0.0494
28514SOL    HW192592   2.319  10.339   5.254 -0.0504 -0.5501 -0.1487
28514SOL    HW292593   2.457  10.307   5.308  0.1178  0.0386 -0.2165
28515SOL     OW92594   3.259  12.304   0.228 -0.0561  0.1469  0.0579
28515SOL    HW192595   3.241  12.380   0.172 -0.3002  0.0210 -0.0356
28515SOL    HW292596   3.206  12.319   0.307  2.1425  1.5520  1.3624
28516SOL     OW92597   7.490   2.808   1.240  0.2587 -0.0599  0.3695
28516SOL    HW192598   7.559   2.853   1.290  0.3828  1.6822 -1.2425
28516SOL    HW292599   7.450   2.878   1.187 -0.4939 -1.6319 -1.2295
28517SOL     OW92600   9.113   9.138   8.918  0.2813  0.5064 -0.2381
28517SOL    HW192601   9.204   9.160   8.936  0.5978 -1.6277  1.1134
28517SOL    HW292602   9.117   9.084   8.839  0.2076  0.3182 -0.1142
28518SOL     OW92603  10.972   2.930  10.475 -0.4105 -0.0719  0.1018
28518SOL    HW192604  11.042   2.957  10.416  0.4753  1.2890  1.7072
28518SOL    HW292605  10.906   2.998  10.468 -0.6364 -0.2841  0.1352
28519SOL     OW92606   7.956   0.277   0.876 -0.3215  0.3999 -0.2329
28519SOL    HW192607   8.003   0.356   0.849  0.3631 -0.3999 -1.4944
28519SOL    HW292608   7.901   0.255   0.801 -0.4439 -0.3491  0.0607
28520SOL     OW92609   9.616   0.882  12.056  0.4344 -0.0130 -0.4307
28520SOL    HW192610   9.537   0.840  12.024 -0.1543  0.4759  0.3494
28520SOL    HW292611   9.685   0.852  11.996 -0.3225 -0.4722 -1.0912
28521SOL     OW92612   6.177   7.353  10.770 -0.2273 -0.2773 -0.0810
28521SOL    HW192613   6.118   7.288  10.732 -0.3355 -0.0582 -0.2907
28521SOL    HW292614   6.192   7.323  10.859 -0.5883 -0.3800 -0.0545
28522SOL     OW92615   5.885  11.584  10.254  0.0193  0.3550  0.7182
28522SOL    HW192616   5.879  11.680  10.247  2.2257  0.5539  0.8246
28522SOL    HW292617   5.969  11.568  10.297 -0.0849 -1.6565  0.2772
28523SOL     OW92618   6.428   5.351  10.413 -0.1831 -0.8764 -0.4867
28523SOL    HW192619   6.336   5.376  10.403 -0.2928 -0.4477  1.2191
28523SOL    HW292620   6.429   5.298  10.492  0.9482 -1.4751 -0.8883
28524SOL     OW92621   1.793  10.426   6.152  0.6741  0.2739  0.1691
28524SOL    HW192622   1.826  10.404   6.239  2.2840  0.5355 -0.3359
28524SOL    HW292623   1.802  10.345   6.102 -0.6856 -0.0059  0.3464
28525SOL     OW92624  12.129  12.115   3.864 -0.6048 -0.1798 -0.1466
28525SOL    HW192625  12.173  12.194   3.834  0.4533 -0.0883  1.5157
28525SOL    HW292626  12.075  12.088   3.790  1.3504  0.3587 -1.8421
28526SOL     OW92627   6.292   8.186  10.723 -0.1262  0.2192 -0.3538
28526SOL    HW192628   6.327   8.247  10.787 -0.3996 -0.4243  0.4362
28526SOL    HW292629   6.240   8.240  10.663  0.2161  0.8429 -0.0897
28527SOL     OW92630  10.725   7.673  12.175 -0.1411  0.4535 -0.2212
28527SOL    HW192631  10.645   7.620  12.168  0.6934 -1.2429  1.8437
28527SOL    HW292632  10.795   7.614  12.147  0.4709  1.8020 -1.6613
28528SOL     OW92633  12.421   5.947   9.208  0.2714  0.2041  0.4284
28528SOL    HW192634  12.465   5.883   9.153 -0.0353  0.2093  0.1713
28528SOL    HW292635  12.482   6.021   9.211 -0.4308  0.9342 -1.3769
28529SOL     OW92636  12.190   4.308   9.209 -0.3189  0.3934 -0.0804
28529SOL    HW192637  12.138   4.310   9.128  0.4515 -1.4512 -0.6613
28529SOL    HW292638  12.130   4.273   9.274 -0.5302  0.5859 -0.1673
28530SOL     OW92639   2.738   1.727   3.721 -0.3105 -0.4084  0.1492
28530SOL    HW192640   2.811   1.730   3.782 -0.4820 -1.0149  0.3900
28530SOL    HW292641   2.778   1.745   3.635  0.1548 -0.9042  0.2537
28531SOL     OW92642  11.607  11.254   1.290  0.1253 -0.0877  0.2949
28531SOL    HW192643  11.530  11.276   1.238 -0.8970 -1.0030  1.3389
28531SOL    HW292644  11.599  11.159   1.305  2.1326 -0.4466 -0.6061
28532SOL     OW92645   2.193   2.647   9.527 -0.2224 -0.9094  0.1037
28532SOL    HW192646   2.163   2.563   9.493  1.3483 -2.6031  2.5446
28532SOL    HW292647   2.285   2.652   9.501 -0.3977  0.3086 -0.3728
28533SOL     OW92648   2.243   7.398   4.193  0.3133 -0.0513 -0.7762
28533SOL    HW192649   2.150   7.387   4.209  0.3255 -0.3471 -0.8944
28533SOL    HW292650   2.254   7.491   4.174  0.6788  0.9378  3.4203
28534SOL     OW92651   9.523   8.203   4.783  0.2424 -0.5831  0.4451
28534SOL    HW192652   9.523   8.262   4.708 -0.5882 -0.6714  0.3616
28534SOL    HW292653   9.557   8.256   4.855  0.7239 -0.3953  0.0835
28535SOL     OW92654   5.645   2.836   8.732 -0.5484 -0.0211  0.4901
28535SOL    HW192655   5.564   2.848   8.781 -1.5091  2.5726 -1.4981
28535SOL    HW292656   5.618   2.787   8.653  0.2043 -0.7533  0.6732
28536SOL     OW92657   6.905   9.559   7.862 -0.3678 -0.7465  0.1838
28536SOL    HW192658   6.836   9.617   7.894  0.2080 -0.5295  1.0757
28536SOL    HW292659   6.951   9.611   7.796 -0.2498 -0.4231  0.5199
28537SOL     OW92660  11.097   0.745  12.056 -0.0962 -0.4003 -0.4513
28537SOL    HW192661  11.019   0.759  12.002 -1.0468  1.2632  1.2588
28537SOL    HW292662  11.159   0.703  11.996 -1.6948 -0.2567 -2.3343
28538SOL     OW92663  11.792   5.591   3.349 -0.4835 -0.1021  0.2983
28538SOL    HW192664  11.734   5.611   3.422 -0.1146 -0.2432  0.6366
28538SOL    HW292665  11.753   5.635   3.274 -1.2977 -0.6149  0.4132
28539SOL     OW92666   0.813   6.686   1.815 -0.1184 -0.1183 -0.8706
28539SOL    HW192667   0.818   6.778   1.844  0.3718  0.1203 -1.6924
28539SOL    HW292668   0.863   6.638   1.881 -1.0011  0.0972 -0.0240
28540SOL     OW92669   4.512  11.705   6.754  0.2324 -0.3322  0.3562
28540SOL    HW192670   4.505  11.775   6.689  1.6182 -1.6563 -1.3001
28540SOL    HW292671   4.568  11.741   6.823  1.2730  0.0946 -0.6762
28541SOL     OW92672   2.656   8.318   3.577 -0.0465 -0.1040  0.4999
28541SOL    HW192673   2.738   8.327   3.624 -0.5885 -0.5130  1.5603
28541SOL    HW292674   2.606   8.396   3.601  0.8161  1.3071 -1.8745
28542SOL     OW92675   9.792  10.744   7.515 -0.0323 -0.0913  0.3666
28542SOL    HW192676   9.816  10.807   7.583 -2.1849  0.8883  0.3048
28542SOL    HW292677   9.726  10.688   7.556  0.5808 -1.2043 -0.1241
28543SOL     OW92678  11.868   6.125  11.369 -0.1628  0.1826  0.4072
28543SOL    HW192679  11.852   6.189  11.438 -0.5924  1.6528 -0.9862
28543SOL    HW292680  11.859   6.040  11.412 -0.1056  1.0392  2.2032
28544SOL     OW92681   4.992   6.932   4.329  0.6177  0.4137  0.1249
28544SOL    HW192682   5.014   6.845   4.360  1.9476 -0.7524 -3.6093
28544SOL    HW292683   5.052   6.990   4.376  1.9469 -1.0721  0.3301
28545SOL     OW92684  11.488   5.004   2.711  0.1647 -0.4303  0.0570
28545SOL    HW192685  11.432   5.037   2.781 -1.8418 -0.9844 -1.2337
28545SOL    HW292686  11.577   5.029   2.739 -0.7458  1.1614  1.7856
28546SOL     OW92687  10.979   0.741   1.814  0.0015  0.6459 -0.1834
28546SOL    HW192688  11.023   0.672   1.763 -1.0953  0.1545 -0.5151
28546SOL    HW292689  10.955   0.807   1.749  1.4569  1.5895  0.2028
28547SOL     OW92690   0.148   6.951   8.052 -0.6209 -0.1598 -0.0757
28547SOL    HW192691   0.192   7.029   8.018  0.8788 -0.1985  1.6217
28547SOL    HW292692   0.197   6.878   8.015 -2.2447 -0.3804 -1.9531
28548SOL     OW92693   1.033   7.661   1.679  0.1259 -0.8591 -0.2363
28548SOL    HW192694   1.085   7.661   1.598 -0.5492 -1.0367 -0.6777
28548SOL    HW292695   1.091   7.699   1.745  0.0144  1.1134 -1.2239
28549SOL     OW92696   1.156   8.889   9.095  0.0851 -0.2751  0.2192
28549SOL    HW192697   1.191   8.975   9.119 -1.1059  0.5799 -0.9608
28549SOL    HW292698   1.072   8.908   9.054  0.7112 -1.8562 -1.9486
28550SOL     OW92699   7.047   7.435   7.705  0.1477 -0.0900 -0.4950
28550SOL    HW192700   7.025   7.526   7.724 -1.1394 -0.2911 -0.9343
28550SOL    HW292701   7.044   7.429   7.609  1.6370 -0.2688 -0.5497
28551SOL     OW92702   7.348   0.899   6.048 -0.0513  0.3631 -0.1146
28551SOL    HW192703   7.428   0.850   6.068  0.0762  0.6984  0.2012
28551SOL    HW292704   7.361   0.985   6.089 -1.0728  0.0226  0.9692
28552SOL     OW92705   2.272  12.167  11.452  0.2014 -0.5592  0.0539
28552SOL    HW192706   2.292  12.204  11.538 -1.7067 -0.2156  0.3885
28552SOL    HW292707   2.345  12.196  11.397 -0.0064  1.7297  0.8710
28553SOL     OW92708   6.458   7.368  11.509 -0.1078  0.1131 -0.1946
28553SOL    HW192709   6.393   7.432  11.482 -0.1165 -0.4742 -1.6678
28553SOL    HW292710   6.411   7.285  11.510  0.1232 -0.0285  0.8117
28554SOL     OW92711   1.764   2.199   5.495 -0.0309  0.2294  0.1964
28554SOL    HW192712   1.834   2.135   5.509  0.5031  0.9155  0.7746
28554SOL    HW292713   1.684   2.154   5.524 -0.1773 -1.2569 -2.2480
28555SOL     OW92714   7.800   4.778   1.335  0.3763 -0.0600 -0.1653
28555SOL    HW192715   7.768   4.760   1.246 -1.3960 -0.0233  0.4117
28555SOL    HW292716   7.815   4.872   1.336  1.2382 -0.1860 -0.6697
28556SOL     OW92717   5.465   8.287   1.536 -0.1984  0.2669  0.1169
28556SOL    HW192718   5.549   8.257   1.502  0.2225  0.7150  0.7320
28556SOL    HW292719   5.402   8.265   1.468  0.4231 -0.0579 -0.3604
28557SOL     OW92720   5.143   0.736   3.097  0.1025  0.3687  0.1183
28557SOL    HW192721   5.199   0.726   3.020  1.6206 -0.7626  1.2898
28557SOL    HW292722   5.163   0.823   3.131  2.5279 -0.5929  1.4444
28558SOL     OW92723   4.097   1.408   7.264  0.4420 -0.2086  0.4749
28558SOL    HW192724   4.187   1.393   7.237  0.5063 -0.2510  0.7097
28558SOL    HW292725   4.080   1.500   7.245  1.0370  0.2066  1.8733
28559SOL     OW92726  12.543   8.070   2.092 -0.4185 -0.5313  0.0174
28559SOL    HW192727  12.479   8.137   2.115 -0.0156 -0.6322  1.4831
28559SOL    HW292728  12.627   8.115   2.096 -0.2861 -0.7061 -0.6864
28560SOL     OW92729   8.718   4.257   3.135  0.9098  0.1034 -0.4696
28560SOL    HW192730   8.664   4.332   3.159  2.3592  0.9833  0.1818
28560SOL    HW292731   8.660   4.181   3.145 -0.1744  0.9999  0.2608
28561SOL     OW92732   1.108  10.499   9.078  0.2299  0.3971 -0.3085
28561SOL    HW192733   1.141  10.410   9.091 -0.7920  0.2392  1.4428
28561SOL    HW292734   1.039  10.510   9.144 -0.0584  2.2974 -0.8506
28562SOL     OW92735   9.839   6.087   6.305 -0.5260  0.3598  0.5353
28562SOL    HW192736   9.808   6.177   6.294 -0.2995  0.3597 -0.1742
28562SOL    HW292737   9.814   6.043   6.224  1.1408  0.3086  0.0046
28563SOL     OW92738   5.857   8.123   8.477 -0.4246 -0.9168 -0.1527
28563SOL    HW192739   5.767   8.116   8.444 -0.3910 -0.0721 -0.4457
28563SOL    HW292740   5.870   8.216   8.492  0.3169 -1.0607  0.1541
28564SOL     OW92741   6.510   7.111   2.613 -0.5730 -0.4538 -0.5214
28564SOL    HW192742   6.532   7.196   2.651 -2.5890  1.6425 -3.5490
28564SOL    HW292743   6.594   7.072   2.590  0.5129 -0.3766  2.8080
28565SOL     OW92744  10.493   5.715   1.787  0.4414 -0.7958 -0.0546
28565SOL    HW192745  10.502   5.807   1.764 -0.5150 -0.6256  0.1899
28565SOL    HW292746  10.570   5.695   1.840 -0.0559  0.2654  1.1274
28566SOL     OW92747   8.318   2.924   6.875 -0.1925  0.1490  0.3276
28566SOL    HW192748   8.268   2.930   6.794  0.8660  1.2388 -0.2792
28566SOL    HW292749   8.389   2.863   6.855  1.8324  2.6006 -0.6362
28567SOL     OW92750   8.554   0.083   0.938  0.2320 -0.0720 -0.0830
28567SOL    HW192751   8.626   0.145   0.945  1.2574 -1.1295 -0.8797
28567SOL    HW292752   8.478   0.137   0.915  1.2377  0.8326 -1.4460
28568SOL     OW92753  12.038   4.751   8.741  0.4414  0.1894 -0.2417
28568SOL    HW192754  12.133   4.738   8.746  0.6277  1.4758  0.0540
28568SOL    HW292755  12.003   4.667   8.713  1.7958  0.0620 -1.6536
28569SOL     OW92756   9.487  11.054   1.602 -0.2877 -0.1528  0.0656
28569SOL    HW192757   9.406  11.006   1.581  0.8868 -2.4054  0.3450
28569SOL    HW292758   9.497  11.116   1.531 -1.4624 -0.9219 -0.8160
28570SOL     OW92759   6.036   3.558   0.783 -0.1622  0.0233 -0.1046
28570SOL    HW192760   6.050   3.589   0.873 -1.7403 -0.5537  0.3665
28570SOL    HW292761   6.042   3.637   0.729  2.0469  0.2190  0.3108
28571SOL     OW92762   2.725   3.504   0.539 -0.0235  0.4077 -0.3864
28571SOL    HW192763   2.819   3.486   0.543 -0.0225  0.6236  0.7526
28571SOL    HW292764   2.716   3.590   0.580 -0.7030  0.4728 -0.6633
28572SOL     OW92765   3.937   0.586   9.659  0.1677 -0.0641  0.4644
28572SOL    HW192766   3.904   0.641   9.730  0.8689 -0.1931  0.9033
28572SOL    HW292767   3.998   0.642   9.611  0.4872 -0.2906  0.5991
28573SOL     OW92768   2.692   9.011   5.289 -0.0932  0.1788 -0.2965
28573SOL    HW192769   2.661   9.045   5.373  1.4890 -0.7332  0.6931
28573SOL    HW292770   2.691   8.916   5.299 -0.3470  0.0291 -1.5084
28574SOL     OW92771  12.549   9.394   6.689 -0.2984  0.2357 -0.0919
28574SOL    HW192772  12.626   9.406   6.633  0.7914  0.3768  1.3684
28574SOL    HW292773  12.574   9.432   6.773 -2.2061  0.8293  0.2552
28575SOL     OW92774   6.378   1.825   3.373  0.6435 -0.3184 -0.5872
28575SOL    HW192775   6.460   1.789   3.340  1.2140 -0.4342  0.8723
28575SOL    HW292776   6.365   1.781   3.457 -1.6348 -1.3084 -1.3947
28576SOL     OW92777   4.871   5.999   9.793 -0.0861 -0.1849  0.4630
28576SOL    HW192778   4.782   5.966   9.802 -0.5568  1.4211  2.2552
28576SOL    HW292779   4.927   5.923   9.811 -1.0493 -1.1897 -0.6129
28577SOL     OW92780   2.160   3.696   2.521 -0.5790  0.2339 -0.3198
28577SOL    HW192781   2.192   3.721   2.435  0.1777 -4.0110 -1.5175
28577SOL    HW292782   2.231   3.644   2.559 -2.3167 -1.1789  1.2178
28578SOL     OW92783  10.183  12.521  12.307  0.3285  0.4840 -0.5433
28578SOL    HW192784  10.200  12.604  12.264  1.4085  0.1909 -0.7073
28578SOL    HW292785  10.241  12.521  12.383 -0.0337  0.0968 -0.2627
28579SOL     OW92786  10.322  12.481   4.327 -0.1556  0.2192 -0.1444
28579SOL    HW192787  10.252  12.532   4.368 -1.7359  0.4422 -2.8392
28579SOL    HW292788  10.380  12.458   4.399 -4.1753 -2.0311  2.8153
28580SOL     OW92789   5.788  10.588   4.713 -0.0871  0.2698 -0.6460
28580SOL    HW192790   5.855  10.617   4.652  0.4684 -2.0966 -1.2786
28580SOL    HW292791   5.715  10.559   4.657  0.0745 -1.0944 -0.1989
28581SOL     OW92792   7.609   4.207  11.684  0.0487  0.4307  0.1244
28581SOL    HW192793   7.514   4.215  11.698 -0.2044 -0.6238 -0.9388
28581SOL    HW292794   7.620   4.127  11.635  1.4359  1.0130 -0.5645
28582SOL     OW92795   9.693  11.352   1.057 -0.1600  0.2408  0.2257
28582SOL    HW192796   9.762  11.348   0.991 -0.0962  1.9510  0.1522
28582SOL    HW292797   9.737  11.329   1.139  1.0685  3.3184  0.5451
28583SOL     OW92798   7.310  12.139   6.265 -0.1792 -0.5903  0.2355
28583SOL    HW192799   7.396  12.098   6.254 -0.1008 -0.2377 -0.4918
28583SOL    HW292800   7.260  12.110   6.189  0.3154  1.7801 -1.0724
28584SOL     OW92801   4.600  10.205   5.101 -0.1944  0.4047 -0.4015
28584SOL    HW192802   4.508  10.209   5.127 -0.9118  0.4098 -2.7086
28584SOL    HW292803   4.634  10.293   5.118 -0.8569  0.6566 -0.3591
28585SOL     OW92804   7.557  10.394   8.467  0.4717 -0.8764  0.6672
28585SOL    HW192805   7.468  10.360   8.458  0.2277 -0.3116  0.8898
28585SOL    HW292806   7.586  10.409   8.377  0.2018 -0.7057  0.6072
28586SOL     OW92807   5.762   0.017   6.654 -0.3440  0.1180  0.0129
28586SOL    HW192808   5.775  -0.040   6.729  0.7344 -0.1075 -0.3253
28586SOL    HW292809   5.712   0.091   6.688  1.1023  0.5804  1.2216
28587SOL     OW92810   2.977  12.179   6.267  0.0087  0.0465 -0.5464
28587SOL    HW192811   2.960  12.183   6.173 -1.1029  1.4814 -0.3314
28587SOL    HW292812   3.038  12.106   6.278 -0.0219 -0.2921 -2.3424
28588SOL     OW92813   3.749   4.687   3.962 -0.5631 -0.1252 -0.1162
28588SOL    HW192814   3.795   4.627   3.904 -1.9273 -2.5637  1.1580
28588SOL    HW292815   3.662   4.696   3.924 -1.3049 -1.3350  1.2043
28589SOL     OW92816   2.752   9.286   1.493  0.0148 -0.6337 -0.3679
28589SOL    HW192817   2.824   9.315   1.438  0.1672  1.3772  0.8061
28589SOL    HW292818   2.795   9.243   1.568 -0.0486 -0.2609 -0.1179
28590SOL     OW92819  10.835   1.563   2.873  0.1915  0.1728 -0.1413
28590SOL    HW192820  10.765   1.601   2.927 -0.5650 -1.6971  0.2507
28590SOL    HW292821  10.891   1.518   2.935  0.7685  0.1611 -0.6630
28591SOL     OW92822   3.762   2.392  12.559 -1.1202  0.6804 -0.6295
28591SOL    HW192823   3.733   2.311  12.601  0.3604  0.4902  0.0878
28591SOL    HW292824   3.683   2.427  12.518 -2.5154  0.5045  1.7174
28592SOL     OW92825  11.393   5.567  12.435  0.6402 -0.3237 -0.4468
28592SOL    HW192826  11.322   5.616  12.476  0.7297 -0.8559  0.3612
28592SOL    HW292827  11.405   5.610  12.350  0.3367  0.6842  0.0005
28593SOL     OW92828   6.389   4.116  10.405 -0.1205 -0.0182 -0.3446
28593SOL    HW192829   6.441   4.159  10.474 -0.1300 -0.2663 -0.1842
28593SOL    HW292830   6.401   4.172  10.329  1.8946 -1.0454 -0.8515
28594SOL     OW92831   1.823   4.538   4.487  0.4076  0.0177  0.1405
28594SOL    HW192832   1.870   4.620   4.474 -0.5738  0.3998 -1.3141
28594SOL    HW292833   1.887   4.479   4.527  0.7181  1.8977  2.6037
28595SOL     OW92834   4.862   1.875   4.016  0.2072 -0.6445 -0.7682
28595SOL    HW192835   4.949   1.916   4.010 -0.3420  0.9021  0.7980
28595SOL    HW292836   4.824   1.888   3.930  1.7295 -1.8984 -1.6828
28596SOL     OW92837   2.681   2.878   6.813  0.2352  0.1134  0.1078
28596SOL    HW192838   2.655   2.808   6.753  0.6643  1.1926 -1.4245
28596SOL    HW292839   2.600   2.903   6.858  0.1739 -1.6573  1.0564
28597SOL     OW92840   5.841   3.218   6.876 -0.2303 -0.2069  0.2571
28597SOL    HW192841   5.936   3.209   6.881 -0.2384 -0.0510  0.8452
28597SOL    HW292842   5.826   3.298   6.827 -0.0942 -1.2129 -1.4872
28598SOL     OW92843   7.849  12.421   1.361 -0.1277  0.1568 -0.2118
28598SOL    HW192844   7.939  12.448   1.379 -0.4813  0.1299  1.7754
28598SOL    HW292845   7.828  12.465   1.278  1.1478  1.5154  0.1240
28599SOL     OW92846   7.994  10.628   7.674  0.2200 -0.4343  0.0323
28599SOL    HW192847   7.960  10.709   7.636 -1.3606 -0.6167  0.9660
28599SOL    HW292848   7.957  10.559   7.618  2.6117 -0.5518 -1.5743
28600SOL     OW92849  12.327   2.778  12.434 -0.4530 -0.3530 -0.3424
28600SOL    HW192850  12.403   2.721  12.449 -0.2571  0.0164  0.0919
28600SOL    HW292851  12.299   2.803  12.522 -0.2866  0.5528 -0.5400
28601SOL     OW92852  10.933  10.299  11.969 -0.4389  0.2739  0.2449
28601SOL    HW192853  10.953  10.209  11.944 -2.7385  0.3129 -2.1054
28601SOL    HW292854  10.856  10.292  12.025  0.3985  0.7243  1.5052
28602SOL     OW92855  11.449   7.642   3.134 -0.4433  0.1503  0.4711
28602SOL    HW192856  11.539   7.628   3.107 -0.5020 -0.4538  0.5883
28602SOL    HW292857  11.429   7.569   3.193 -0.1939  1.6095  2.4962
28603SOL     OW92858  12.020   8.911  10.749 -0.2538 -0.2987  0.1698
28603SOL    HW192859  12.089   8.950  10.803 -1.3584  2.1523 -0.0448
28603SOL    HW292860  11.942   8.911  10.806 -0.6457 -0.7773 -0.3529
28604SOL     OW92861   5.778   9.405   1.985 -0.1653 -0.3751  0.0602
28604SOL    HW192862   5.750   9.452   2.063 -2.3688 -0.8853 -0.3659
28604SOL    HW292863   5.871   9.387   2.000 -0.3417  0.2122  2.1893
28605SOL     OW92864   4.960   5.250  12.223  0.0160 -0.2237 -0.7212
28605SOL    HW192865   4.973   5.200  12.304 -1.2714 -0.4483 -0.6199
28605SOL    HW292866   4.995   5.337  12.242 -0.9045 -0.0537  0.3594
28606SOL     OW92867   1.296  10.732   6.275  0.5186  0.0109 -0.3655
28606SOL    HW192868   1.385  10.727   6.310  0.2813  3.7055  1.1915
28606SOL    HW292869   1.304  10.702   6.184  2.8164 -1.9185  0.3589
28607SOL     OW92870   3.787  11.586   4.685  0.3063 -0.1873  0.6627
28607SOL    HW192871   3.707  11.638   4.695 -0.5147 -0.9549 -1.3765
28607SOL    HW292872   3.829  11.620   4.606  1.4483 -0.5019  1.1180
28608SOL     OW92873  11.931  12.519   3.157  0.5107 -0.2206  0.1085
28608SOL    HW192874  11.977  12.568   3.090 -0.7967  0.4264 -0.3419
28608SOL    HW292875  12.000  12.476   3.208  1.6587  1.5740  0.1238
28609SOL     OW92876  10.693  11.684  12.254 -0.4073 -0.3225 -0.1870
28609SOL    HW192877  10.694  11.770  12.212 -2.0184  1.0225  2.3021
28609SOL    HW292878  10.784  11.666  12.274 -0.1396  1.4771  0.4129
28610SOL     OW92879   6.870   8.191   4.908  0.0264 -0.2232  0.0478
28610SOL    HW192880   6.857   8.218   4.817 -0.7728  2.6113  0.8910
28610SOL    HW292881   6.784   8.162   4.938 -0.0458  0.1954  0.2625
28611SOL     OW92882   4.810  11.220   4.376 -0.3570  0.1973  0.1602
28611SOL    HW192883   4.763  11.156   4.322 -1.1514  1.8041 -1.1537
28611SOL    HW292884   4.890  11.175   4.403 -1.5450 -1.8337  0.5260
28612SOL     OW92885   2.852   6.566  11.391 -0.0970  0.3960 -0.5009
28612SOL    HW192886   2.928   6.548  11.446  0.7328 -1.9026 -2.2622
28612SOL    HW292887   2.777   6.541  11.445  0.3216  2.2412  1.0724
28613SOL     OW92888  11.974   6.739   9.917  0.6215  0.1584  0.5527
28613SOL    HW192889  12.069   6.740   9.906  0.9778  0.7352  3.1460
28613SOL    HW292890  11.960   6.710  10.007 -1.7355 -1.0368 -0.1013
28614SOL     OW92891   3.471   1.624  12.501 -0.9233 -0.1104 -0.1665
28614SOL    HW192892   3.488   1.530  12.511  0.2799  0.1557  0.5275
28614SOL    HW292893   3.483   1.642  12.408  1.7724 -0.1439  0.1152
28615SOL     OW92894   9.536  11.901   9.663  0.2614 -0.5284 -0.1614
28615SOL    HW192895   9.480  11.842   9.714 -0.0954 -1.5417 -1.6805
28615SOL    HW292896   9.599  11.935   9.728 -0.7035 -1.0932  1.1217
28616SOL     OW92897  10.102   7.699   2.206  0.0340  0.2611 -0.3972
28616SOL    HW192898  10.195   7.678   2.211 -0.0532 -0.2254 -0.6757
28616SOL    HW292899  10.098   7.774   2.146  0.1297 -0.6597 -1.6023
28617SOL     OW92900  10.531   1.635   8.015  0.4001 -0.1496  0.1008
28617SOL    HW192901  10.554   1.660   8.105  0.0253 -0.1163  0.1859
28617SOL    HW292902  10.589   1.560   7.997 -1.7864 -2.3606  1.5775
28618SOL     OW92903  10.083   8.270  11.548  0.3416  0.1376  0.0734
28618SOL    HW192904  10.068   8.245  11.639  3.3012  3.3050  1.6975
28618SOL    HW292905  10.086   8.187  11.500 -2.2413 -1.6093  2.5857
28619SOL     OW92906  10.409   4.849  12.103  0.2202 -0.4528 -0.1575
28619SOL    HW192907  10.426   4.763  12.066  1.6215 -0.3632  0.2390
28619SOL    HW292908  10.314   4.852  12.114  0.0085 -1.4010 -1.4648
28620SOL     OW92909   7.330  11.635   0.396  0.5902 -0.4688  0.2340
28620SOL    HW192910   7.285  11.719   0.381 -0.5270 -0.8386  1.3689
28620SOL    HW292911   7.422  11.654   0.377  0.1726  0.6490 -0.8690
28621SOL     OW92912  12.556  12.055   4.839  0.3011 -0.1218 -0.1300
28621SOL    HW192913  12.539  12.032   4.930  0.4801 -1.6763 -0.4593
28621SOL    HW292914  12.598  12.141   4.843  0.9941 -0.4972  1.3041
28622SOL     OW92915   1.452  11.073  12.490  0.5357 -0.0929 -0.4087
28622SOL    HW192916   1.377  11.049  12.435  0.9113  0.7962 -1.3488
28622SOL    HW292917   1.503  10.992  12.498 -0.8371 -0.8783  0.8033
28623SOL     OW92918   6.125  12.401  11.345 -0.2721 -0.6833 -0.3293
28623SOL    HW192919   6.184  12.326  11.346 -2.3875 -2.4807 -1.7361
28623SOL    HW292920   6.143  12.446  11.263 -0.5453 -0.9945 -0.5633
28624SOL     OW92921   6.692  11.311  11.618  0.3719 -0.4912 -0.2790
28624SOL    HW192922   6.667  11.390  11.666 -3.0579 -0.8341 -1.2692
28624SOL    HW292923   6.709  11.342  11.529  0.7207 -0.6651 -0.2747
28625SOL     OW92924   1.172   9.496  12.543  0.0047 -0.5865  0.0082
28625SOL    HW192925   1.250   9.480  12.596 -0.3124 -0.1295  0.6232
28625SOL    HW292926   1.153   9.589  12.556 -0.5454 -0.6551 -0.2729
28626SOL     OW92927   9.117   0.369  10.064 -0.3646 -0.2970  0.0311
28626SOL    HW192928   9.192   0.421  10.035 -0.7834  0.0155 -0.5089
28626SOL    HW292929   9.148   0.326  10.144 -0.0253  0.8175  0.5222
28627SOL     OW92930  11.201   7.305   7.534  0.2123 -0.6534  0.2348
28627SOL    HW192931  11.131   7.261   7.581  0.0682 -2.0065 -1.1586
28627SOL    HW292932  11.156   7.354   7.465  0.6015 -1.2691 -0.4672
28628SOL     OW92933   2.613   1.268   4.679 -0.0749  0.0416  0.0780
28628SOL    HW192934   2.541   1.223   4.722  0.2622  0.6240  1.2958
28628SOL    HW292935   2.572   1.337   4.627 -0.3442  1.4334  2.0554
28629SOL     OW92936  11.710   2.135  12.347 -0.4945  0.2006 -0.0504
28629SOL    HW192937  11.646   2.065  12.354  0.7973 -0.9104  1.6099
28629SOL    HW292938  11.698   2.171  12.259 -3.5509  0.2712  0.2849
28630SOL     OW92939  11.111  10.359   1.642  0.1506 -0.3717 -0.0586
28630SOL    HW192940  11.148  10.424   1.701  0.6238 -0.4424 -0.2792
28630SOL    HW292941  11.073  10.411   1.570 -0.9505 -0.2521  0.5892
28631SOL     OW92942   0.684   2.311   3.886  0.2685 -0.0788 -0.1841
28631SOL    HW192943   0.754   2.247   3.900  0.1583  0.2367  2.3675
28631SOL    HW292944   0.641   2.281   3.806  1.3539 -2.1143 -0.1061
28632SOL     OW92945   0.467  11.045   4.657 -0.4591 -0.0425 -0.2953
28632SOL    HW192946   0.526  11.106   4.613 -0.7976 -0.2378 -1.0261
28632SOL    HW292947   0.482  11.060   4.750 -0.4061  1.0223 -0.4700
28633SOL     OW92948   3.124   9.722  11.035  0.4887  0.2050 -0.1034
28633SOL    HW192949   3.118   9.795  10.973  0.3762  0.3278  0.0536
28633SOL    HW292950   3.097   9.759  11.119  1.1121  0.1645  0.1201
28634SOL     OW92951   1.002   8.627   2.202  0.2373 -0.4050  0.0670
28634SOL    HW192952   1.052   8.618   2.283 -0.5444  0.1146  0.6272
28634SOL    HW292953   0.974   8.538   2.181  1.3814 -0.7006 -0.2602
28635SOL     OW92954   3.982   2.675   2.075  0.3185 -0.0749  0.5921
28635SOL    HW192955   3.950   2.633   2.155  0.6565  0.0981  0.8184
28635SOL    HW292956   4.053   2.618   2.044  0.9751  0.4789  1.0608
28636SOL     OW92957  12.040   8.738   6.320  0.1374  0.3973 -0.6894
28636SOL    HW192958  12.087   8.665   6.281 -1.6158 -1.1870 -0.0003
28636SOL    HW292959  12.096   8.767   6.393 -0.0864 -1.7340  0.3980
28637SOL     OW92960   5.213   0.295  11.975  0.1018 -0.3705  0.2141
28637SOL    HW192961   5.179   0.283  12.063  0.4809 -1.2994  0.2492
28637SOL    HW292962   5.258   0.213  11.955  0.1543 -0.1180 -0.7861
28638SOL     OW92963   0.223  11.135   0.530  0.2443 -0.0478 -0.3052
28638SOL    HW192964   0.139  11.124   0.576  0.7693 -0.4618  0.5844
28638SOL    HW292965   0.204  11.112   0.439  0.1077 -3.6456  0.4600
28639SOL     OW92966   0.962   2.170   3.962  0.2686 -0.7548  0.8131
28639SOL    HW192967   1.032   2.147   3.901 -0.1681  0.0662 -0.0335
28639SOL    HW292968   0.991   2.251   4.004 -0.3589 -0.1438  0.1050
28640SOL     OW92969   1.860   9.895   0.792 -0.1503 -0.2485  0.3583
28640SOL    HW192970   1.812   9.867   0.715 -0.9634  1.1622  0.3382
28640SOL    HW292971   1.945   9.850   0.785  0.1230  0.5174 -1.7950
28641SOL     OW92972  11.593   4.019   7.530 -0.1341  0.5578  0.1763
28641SOL    HW192973  11.529   3.950   7.512  0.1544  0.7350 -1.6661
28641SOL    HW292974  11.656   3.977   7.590 -0.2698 -0.6101 -0.4657
28642SOL     OW92975  12.182   4.395  11.012  0.2920 -0.5523 -0.1690
28642SOL    HW192976  12.148   4.451  10.941  0.9251  0.5404  0.3612
28642SOL    HW292977  12.269   4.430  11.030  0.6262 -1.6049  0.3305
28643SOL     OW92978  12.080  11.027  12.382  0.1919 -0.0498 -0.5277
28643SOL    HW192979  12.030  11.108  12.384 -0.3626 -0.3298 -1.9918
28643SOL    HW292980  12.014  10.958  12.383  0.5704 -0.4406 -1.4866
28644SOL     OW92981   1.099   6.472  11.059  0.1572  0.6843  0.0072
28644SOL    HW192982   1.191   6.499  11.059 -0.0281  1.3213 -0.3277
28644SOL    HW292983   1.050   6.554  11.065 -0.3777  0.2725  2.0846
28645SOL     OW92984   5.261   7.419   6.492 -0.0008 -0.2490 -0.0330
28645SOL    HW192985   5.199   7.454   6.429  0.5831 -0.8032 -0.9351
28645SOL    HW292986   5.279   7.330   6.462  0.5063 -0.4245  0.7511
28646SOL     OW92987  11.131   9.990   5.390 -0.0290  0.6648  0.6314
28646SOL    HW192988  11.133  10.034   5.476  1.3936 -0.2994  1.1203
28646SOL    HW292989  11.163  10.056   5.329  0.1711  0.9549  1.0418
28647SOL     OW92990   3.417   6.894   3.982  0.3701  0.0563  0.0659
28647SOL    HW192991   3.326   6.902   3.956  0.5542 -0.3679 -0.7240
28647SOL    HW292992   3.414   6.881   4.077 -0.4748 -1.5212 -0.1533
28648SOL     OW92993  10.222   5.842   6.858 -0.0886  0.4587 -0.1774
28648SOL    HW192994  10.279   5.771   6.828  3.3685  2.5052  0.9648
28648SOL    HW292995  10.186   5.810   6.941  1.1621 -0.1297  0.1638
28649SOL     OW92996  10.698   8.675   1.074 -0.5750 -0.0364  0.6062
28649SOL    HW192997  10.729   8.597   1.028  1.8596 -0.5269  2.8151
28649SOL    HW292998  10.616   8.648   1.115 -2.8890  0.4540 -3.2261
28650SOL     OW92999   2.418   6.129  11.672 -0.9142 -0.4608  0.2108
28650SOL    HW193000   2.503   6.116  11.713 -0.5399  2.5658  0.6154
28650SOL    HW293001   2.357   6.140  11.745 -0.8153  1.6887  0.0401
28651SOL     OW93002   7.159   1.878   0.210 -0.3075  0.0362  0.1689
28651SOL    HW193003   7.067   1.859   0.231 -0.1607  0.4659  1.2718
28651SOL    HW293004   7.207   1.855   0.289  0.8986 -2.5202 -1.2057
28652SOL     OW93005  10.625   8.071   8.568 -0.2806  0.0407  0.3582
28652SOL    HW193006  10.589   8.140   8.512  0.8296  0.5061  0.1818
28652SOL    HW293007  10.641   7.997   8.509 -0.2138  0.1150  0.2828
28653SOL     OW93008  10.891   2.853   6.797 -0.2084 -0.3683 -0.5897
28653SOL    HW193009  10.936   2.930   6.830  0.0146 -0.2688 -1.1248
28653SOL    HW293010  10.800   2.880   6.789 -0.3825 -0.5650  0.4783
28654SOL     OW93011   4.118   0.752   2.740  0.4864  0.5503 -0.0317
28654SOL    HW193012   4.035   0.705   2.735  1.7722 -2.2872  2.3320
28654SOL    HW293013   4.137   0.758   2.834  2.8050  1.3382 -0.4859
28655SOL     OW93014   0.072   7.086   9.196  0.1747 -0.2534  0.5872
28655SOL    HW193015  -0.014   7.079   9.154 -0.3274 -0.4498  1.6215
28655SOL    HW293016   0.057   7.141   9.273  1.0307 -0.0912  0.6542
28656SOL     OW93017   9.396   7.679   1.699  0.5463  0.4392 -0.0667
28656SOL    HW193018   9.422   7.589   1.682  3.7274  1.1081  0.6127
28656SOL    HW293019   9.428   7.728   1.623  1.5700  1.3672  0.9296
28657SOL     OW93020   3.805   6.106   0.331  0.2002 -0.1841 -0.1082
28657SOL    HW193021   3.853   6.037   0.286 -0.2786  0.3659 -1.5601
28657SOL    HW293022   3.803   6.080   0.422  1.3057 -1.3276 -0.3854
28658SOL     OW93023   9.692   6.926   5.857 -0.2464 -0.0328 -0.1069
28658SOL    HW193024   9.617   6.867   5.867  0.5107 -0.6360  2.8291
28658SOL    HW293025   9.664   7.007   5.900  1.1711 -0.7240  2.2773
28659SOL     OW93026   6.702  11.843   4.587  0.4316  0.5881 -0.0050
28659SOL    HW193027   6.683  11.880   4.501  2.3724 -0.8666 -1.1445
28659SOL    HW293028   6.638  11.772   4.597  1.0343 -0.1200 -0.9118
28660SOL     OW93029   1.004   8.162   0.076 -0.0822  0.2969  0.0581
28660SOL    HW193030   0.911   8.142   0.072 -0.3545  1.6373 -0.5861
28660SOL    HW293031   1.009   8.244   0.125  1.0392 -1.3318  2.9619
28661SOL     OW93032   6.299   1.450   7.869  0.6469 -0.0166  0.0992
28661SOL    HW193033   6.292   1.453   7.964  0.2301 -2.2530  0.1903
28661SOL    HW293034   6.251   1.371   7.843 -1.0199  1.6002 -2.1791
28662SOL     OW93035   0.512  12.361   8.215 -0.4551 -0.1100 -0.1716
28662SOL    HW193036   0.594  12.381   8.259 -0.8090  0.7086  0.1410
28662SOL    HW293037   0.537  12.345   8.124 -0.0078  0.6729 -0.1929
28663SOL     OW93038   3.435  10.822   2.610  0.0320  0.5165 -0.1823
28663SOL    HW193039   3.458  10.775   2.691 -0.7815  2.2051  1.0839
28663SOL    HW293040   3.352  10.783   2.583  0.2388  0.0306 -0.1383
28664SOL     OW93041   4.578   5.755  12.358 -0.4482  0.3380 -0.5212
28664SOL    HW193042   4.552   5.809  12.433 -2.5549 -0.0312 -0.9144
28664SOL    HW293043   4.562   5.665  12.387  0.6619  0.0504 -0.7453
28665SOL     OW93044   4.435  10.218  10.071 -0.0517 -0.1126  0.2153
28665SOL    HW193045   4.347  10.251  10.052  0.1602  0.8012  0.8099
28665SOL    HW293046   4.480  10.219   9.986  0.6525  3.2468  0.4932
28666SOL     OW93047   7.749   9.030   2.835 -0.2319  0.2598  0.0593
28666SOL    HW193048   7.706   8.944   2.839  0.8003 -0.4101 -1.6550
28666SOL    HW293049   7.817   9.026   2.902 -0.1354 -0.3014 -0.0681
28667SOL     OW93050   0.307   7.083   2.996 -0.3057  0.2694  0.5887
28667SOL    HW193051   0.336   7.159   3.046  3.4367  0.9873 -2.2351
28667SOL    HW293052   0.381   7.023   2.998 -0.1926  0.0366 -3.2131
28668SOL     OW93053   2.903   0.359  12.348 -0.0926  0.3950  0.1333
28668SOL    HW193054   2.962   0.305  12.295  1.4221  0.2075  1.9237
28668SOL    HW293055   2.956   0.387  12.422 -1.9782  1.0892  1.2912
28669SOL     OW93056   1.713   5.989   7.468  0.2509  0.0664 -0.0031
28669SOL    HW193057   1.679   5.912   7.514 -0.5601  1.2620  1.4861
28669SOL    HW293058   1.637   6.023   7.421  0.7280 -0.2892 -1.0725
28670SOL     OW93059   7.569   7.890  12.570  0.1748  0.1618 -0.1745
28670SOL    HW193060   7.634   7.927  12.629 -0.6401 -0.0686  0.8865
28670SOL    HW293061   7.521   7.965  12.536  0.0545  0.2375  0.1640
28671SOL     OW93062   9.819   5.273   9.556 -0.0363 -0.8074  0.5788
28671SOL    HW193063   9.827   5.226   9.640  0.2891 -1.0083  0.4379
28671SOL    HW293064   9.756   5.222   9.506  0.2761 -1.0683  0.4467
28672SOL     OW93065   1.590   5.513   7.004  0.3006  0.5512  0.1262
28672SOL    HW193066   1.522   5.456   6.967  0.4590  1.5461 -1.8491
28672SOL    HW293067   1.668   5.458   7.007  0.3335  0.4758 -1.3034
28673SOL     OW93068   0.903   3.865   9.240  0.4197 -0.2254  0.2783
28673SOL    HW193069   0.831   3.807   9.264  0.5210 -1.6297 -2.4619
28673SOL    HW293070   0.863   3.934   9.188  0.8544 -0.2282 -0.0660
28674SOL     OW93071   6.210   2.744   9.701 -0.9498 -0.3069 -0.2876
28674SOL    HW193072   6.117   2.749   9.677 -1.8373 -4.0637  1.7464
28674SOL    HW293073   6.231   2.651   9.698  2.4801  0.3145  0.4803
28675SOL     OW93074   9.389   2.734   0.827 -0.7851 -0.1277 -0.8315
28675SOL    HW193075   9.300   2.714   0.800 -1.8651  0.8637  1.6860
28675SOL    HW293076   9.444   2.672   0.778 -2.8149 -0.6978 -2.4989
28676SOL     OW93077   0.684  11.968   2.930  0.1965 -0.0870 -0.0534
28676SOL    HW193078   0.717  12.002   3.013 -2.6537 -1.4588  1.8302
28676SOL    HW293079   0.737  11.890   2.913  1.6376  0.9009 -0.2677
28677SOL     OW93080   1.754   0.943   1.935 -0.0120 -0.1851 -0.3117
28677SOL    HW193081   1.658   0.945   1.943  0.0430  0.9484  0.3125
28677SOL    HW293082   1.785   0.920   2.023  0.2966 -0.2742 -0.4432
28678SOL     OW93083   6.491   7.684   3.911  0.5455 -0.2500  0.0604
28678SOL    HW193084   6.406   7.725   3.892  0.1341 -0.8352  0.5907
28678SOL    HW293085   6.475   7.591   3.898  1.4641 -0.2723 -1.1109
28679SOL     OW93086   7.223   9.129  11.660 -0.0173 -0.0771  0.4228
28679SOL    HW193087   7.279   9.093  11.591 -1.6262 -1.6343 -0.1450
28679SOL    HW293088   7.246   9.079  11.738 -0.0814 -0.1732  0.3795
28680SOL     OW93089  11.574   1.411  11.255  0.1205 -0.3784  0.3903
28680SOL    HW193090  11.592   1.486  11.198 -0.9569 -0.1906  0.2857
28680SOL    HW293091  11.578   1.335  11.196 -1.2879 -0.1579 -0.0270
28681SOL     OW93092   8.033   1.907   8.878 -0.0075  0.1875 -0.2149
28681SOL    HW193093   7.946   1.937   8.902 -0.5128 -1.8988  0.7214
28681SOL    HW293094   8.033   1.908   8.782 -2.1313 -2.4542 -0.3595
28682SOL     OW93095   1.280   1.088   1.315  0.2787 -0.0907 -0.0227
28682SOL    HW193096   1.197   1.041   1.322 -0.7831  1.4156 -1.6319
28682SOL    HW293097   1.311   1.070   1.227  0.2376  1.5222 -0.4050
28683SOL     OW93098   2.043   4.544   9.353 -0.2299 -0.3808 -0.5836
28683SOL    HW193099   2.074   4.508   9.270 -3.2548 -2.8854 -0.8028
28683SOL    HW293100   1.972   4.604   9.329  2.2037  3.0785  0.0531
28684SOL     OW93101   1.068   8.182   1.904 -0.3912 -0.6631 -0.3025
28684SOL    HW193102   0.993   8.154   1.957  0.3163 -2.3351 -0.1267
28684SOL    HW293103   1.124   8.105   1.899  1.7108  0.7370  0.1995
28685SOL     OW93104   8.437  10.203   1.425 -0.1730 -0.3692  0.0502
28685SOL    HW193105   8.384  10.242   1.494 -0.1271 -0.4804  0.1487
28685SOL    HW293106   8.465  10.119   1.461 -1.5114 -1.1849 -0.7216
28686SOL     OW93107  10.534   6.333   8.868  0.2874  0.2886 -0.1035
28686SOL    HW193108  10.491   6.322   8.783  1.0024  0.2353 -0.4635
28686SOL    HW293109  10.463   6.358   8.927  0.1401  2.7305 -1.2019
28687SOL     OW93110   0.327   4.847  12.420 -0.2622 -0.0797 -0.0267
28687SOL    HW193111   0.401   4.787  12.431  0.8612  1.4734  1.3830
28687SOL    HW293112   0.330   4.872  12.328 -0.3921 -1.6695 -0.5025
28688SOL     OW93113   9.001  10.239  10.123 -0.3877 -0.2024 -0.4175
28688SOL    HW193114   8.931  10.271  10.181 -0.4617  0.1448 -0.6954
28688SOL    HW293115   9.077  10.230  10.180 -0.4101  0.3207 -0.2963
28689SOL     OW93116   3.461   0.292  12.139 -0.0685 -0.1574 -0.6440
28689SOL    HW193117   3.452   0.245  12.222 -0.9149  0.9616 -0.0783
28689SOL    HW293118   3.532   0.354  12.155 -0.4994  0.3341 -0.6111
28690SOL     OW93119   7.558   5.899   7.149  0.1555  0.1638 -0.1857
28690SOL    HW193120   7.619   5.866   7.215 -1.8288 -1.3428  1.0147
28690SOL    HW293121   7.480   5.923   7.198 -0.4445  1.5309 -1.7282
28691SOL     OW93122   2.884   7.354  11.895 -0.7182  0.3006  0.1581
28691SOL    HW193123   2.828   7.314  11.962 -3.4145  2.3112 -0.7244
28691SOL    HW293124   2.851   7.319  11.812 -0.2600  1.0469 -0.3558
28692SOL     OW93125  10.904   1.410   4.951  0.6373  0.2871 -0.4825
28692SOL    HW193126  10.880   1.319   4.931  2.7594 -0.5391  0.4228
28692SOL    HW293127  10.907   1.453   4.866  0.1186 -0.6355 -0.9853
28693SOL     OW93128   6.071   9.656   3.291  0.3867 -0.4866  0.1963
28693SOL    HW193129   6.161   9.628   3.307  1.2427  1.4061 -0.9930
28693SOL    HW293130   6.028   9.580   3.251  1.6805 -1.1481  0.0210
28694SOL     OW93131   1.890   0.340  10.909  0.1474 -0.4299 -0.0248
28694SOL    HW193132   1.827   0.360  10.978  0.5821 -0.3778  0.3625
28694SOL    HW293133   1.850   0.267  10.861 -0.0449 -0.6294  0.4325
28695SOL     OW93134   5.796   8.144  12.492  0.1333 -0.2087  0.1780
28695SOL    HW193135   5.840   8.059  12.496 -0.6554 -0.5928  2.1738
28695SOL    HW293136   5.864   8.208  12.515  0.1761 -0.5920  1.1931
28696SOL     OW93137   8.910  11.921   3.813 -0.0863  0.1802 -0.6124
28696SOL    HW193138   8.841  11.977   3.778 -1.9610 -1.2690  0.5957
28696SOL    HW293139   8.939  11.868   3.739 -2.8140 -1.6721 -0.4889
28697SOL     OW93140   3.406   4.468  10.400  0.2058  0.2446 -0.4391
28697SOL    HW193141   3.331   4.437  10.349 -1.2504  0.9757  1.1826
28697SOL    HW293142   3.382   4.557  10.427  0.8718 -0.1236  1.5360
28698SOL     OW93143   1.699   0.682  11.982  0.5146  0.0577  0.7133
28698SOL    HW193144   1.611   0.690  12.017  0.2622 -1.6747  0.5401
28698SOL    HW293145   1.704   0.748  11.913 -0.4736  0.4927  1.0528
28699SOL     OW93146   1.848  12.430   2.289 -0.4803  0.3231  0.0549
28699SOL    HW193147   1.930  12.387   2.316  0.2150  2.1030  0.9211
28699SOL    HW293148   1.876  12.508   2.241 -1.5954  1.8148  1.6967
28700SOL     OW93149  11.998   9.222   0.742  0.2761  0.2271  0.0896
28700SOL    HW193150  12.017   9.288   0.675  0.2443  0.2986  0.1500
28700SOL    HW293151  12.061   9.242   0.812 -0.2552  0.6908  0.4439
28701SOL     OW93152   5.515   7.076  10.993 -0.1255  0.3350  0.2955
28701SOL    HW193153   5.450   7.146  10.985 -0.1945  0.1501 -0.9062
28701SOL    HW293154   5.599   7.120  10.983 -0.1354  0.3644  0.3418
28702SOL     OW93155   1.718   9.800  11.797 -0.5264 -0.0199 -0.3992
28702SOL    HW193156   1.774   9.876  11.783 -0.1020 -0.0191  1.0822
28702SOL    HW293157   1.727   9.748  11.717 -0.1382  1.0551 -1.0708
28703SOL     OW93158   1.818   3.942   2.602 -0.1486  0.5050  0.4917
28703SOL    HW193159   1.796   3.890   2.525 -3.0173  3.6565 -1.1293
28703SOL    HW293160   1.749   3.922   2.665  0.7117 -0.1561  1.2411
28704SOL     OW93161  11.638  10.403   5.266 -0.3924  0.4437 -0.0542
28704SOL    HW193162  11.648  10.381   5.358 -0.4673  1.1105  0.1187
28704SOL    HW293163  11.687  10.485   5.256 -3.1483  2.2351  0.1552
28705SOL     OW93164   8.323   4.491   0.647 -0.2505 -0.0190 -0.4538
28705SOL    HW193165   8.356   4.497   0.557  0.5428 -2.4663 -0.4083
28705SOL    HW293166   8.243   4.438   0.639  0.3729 -1.1160  0.3610
28706SOL     OW93167   2.969   4.930   9.656  0.2390  0.0015 -0.6059
28706SOL    HW193168   3.023   4.911   9.733 -0.4216 -0.5685 -0.2730
28706SOL    HW293169   2.891   4.973   9.692  0.5287  0.9551 -1.0937
28707SOL     OW93170   3.785   2.723  11.377  0.1884  0.2376 -0.0119
28707SOL    HW193171   3.789   2.627  11.373 -0.6682  0.0060  2.4525
28707SOL    HW293172   3.766   2.742  11.469  1.3562  2.8388 -0.2074
28708SOL     OW93173  12.035  11.617   6.526  0.5318  0.2818 -0.5261
28708SOL    HW193174  12.055  11.529   6.559  0.3191 -0.6108 -2.5878
28708SOL    HW293175  12.096  11.675   6.572  2.1187 -1.2422 -0.6043
28709SOL     OW93176   8.563   7.262  11.029 -0.0404 -0.1002  0.1861
28709SOL    HW193177   8.555   7.193  11.095  0.2148 -0.4283 -0.1268
28709SOL    HW293178   8.504   7.236  10.959 -1.0723  0.7520  0.7037
28710SOL     OW93179   6.823  10.597   6.049 -0.1345  0.0891 -0.0781
28710SOL    HW193180   6.769  10.550   5.985 -1.3883  1.2471  0.1028
28710SOL    HW293181   6.884  10.649   5.995 -1.2119  1.0912 -0.3712
28711SOL     OW93182  11.611   7.427   7.125 -0.2758  0.3215  0.2965
28711SOL    HW193183  11.633   7.437   7.032  0.3349  1.9296  0.5780
28711SOL    HW293184  11.694   7.401   7.166 -0.1141  1.3409  0.6308
28712SOL     OW93185   8.758  10.959   2.366 -0.0577  0.6991 -0.0306
28712SOL    HW193186   8.687  11.004   2.320 -0.4322  2.0373  1.7641
28712SOL    HW293187   8.718  10.880   2.402 -0.5919  1.3057  0.7356
28713SOL     OW93188  11.024   9.520   3.254 -0.0517  0.1280  0.0146
28713SOL    HW193189  11.031   9.527   3.159  0.6297  0.6442  0.0934
28713SOL    HW293190  10.954   9.581   3.278  0.3468  0.6306 -0.0824
28714SOL     OW93191   8.958   8.408   3.358 -0.1620 -0.2998  0.4097
28714SOL    HW193192   8.896   8.383   3.427 -0.7420  0.6778  0.2662
28714SOL    HW293193   8.923   8.368   3.278  0.4864 -1.3960  0.6617
28715SOL     OW93194   9.881   3.904   0.120 -0.5952 -0.4325  0.5074
28715SOL    HW193195   9.964   3.953   0.120  0.1337 -1.5879  1.7007
28715SOL    HW293196   9.818   3.965   0.159 -0.9515  1.3326 -2.4980
28716SOL     OW93197  11.369   1.139  12.317  0.3166  0.6284  0.1033
28716SOL    HW193198  11.296   1.093  12.276  2.5154 -1.1493 -2.1176
28716SOL    HW293199  11.350   1.135  12.411 -1.2658 -1.9748 -0.2230
28717SOL     OW93200   8.368   7.507   4.748 -0.3825 -0.1033 -0.3936
28717SOL    HW193201   8.365   7.567   4.673  0.8395  0.0689 -0.3270
28717SOL    HW293202   8.303   7.541   4.809  0.6518  1.5307 -0.1249
28718SOL     OW93203   2.002   5.072   8.119 -0.5078  0.3739 -0.4904
28718SOL    HW193204   1.978   5.134   8.187 -2.5397 -0.6481 -0.1973
28718SOL    HW293205   1.934   5.005   8.123  2.4010 -2.7831  0.2849
28719SOL     OW93206   0.654   5.482   9.959 -0.5852 -0.1319  0.1441
28719SOL    HW193207   0.594   5.434  10.016 -0.2647 -0.0731  0.5393
28719SOL    HW293208   0.740   5.471  10.000 -0.2930 -0.3748 -0.5197
28720SOL     OW93209   7.381  11.790   2.965  0.2072 -0.1154  0.3866
28720SOL    HW193210   7.357  11.801   3.057 -1.2380 -0.4295  0.0783
28720SOL    HW293211   7.397  11.696   2.956 -0.2360 -0.1758  0.1986
28721SOL     OW93212   0.860   5.751   8.200 -0.0929  0.6001  0.2086
28721SOL    HW193213   0.867   5.779   8.291 -0.1904  0.5591  0.2289
28721SOL    HW293214   0.949   5.722   8.178 -0.1986  0.0558  0.4749
28722SOL     OW93215   7.605  11.868   3.431 -0.4784 -0.8380  0.2945
28722SOL    HW193216   7.689  11.824   3.423 -0.5156 -1.0070  0.7887
28722SOL    HW293217   7.627  11.961   3.430 -0.3835 -0.8620 -0.5596
28723SOL     OW93218   6.610  12.443   3.129  0.1829  0.0981  0.5483
28723SOL    HW193219   6.573  12.369   3.082  0.9587 -0.2211  0.4259
28723SOL    HW293220   6.638  12.504   3.061 -1.1167  0.8504  0.6597
28724SOL     OW93221  10.799   2.926   3.693  0.3224  0.3348 -0.1576
28724SOL    HW193222  10.833   2.952   3.607  0.3136 -0.1983 -0.3238
28724SOL    HW293223  10.704   2.932   3.684  0.2881 -0.4809 -0.4359
28725SOL     OW93224   4.332  10.914   2.802  0.6278 -0.0228 -0.1159
28725SOL    HW193225   4.318  11.000   2.762  2.8495 -0.4583 -2.0081
28725SOL    HW293226   4.282  10.854   2.747 -1.1760 -0.0127  1.3817
28726SOL     OW93227   8.282   0.412   3.685  0.0532 -0.3512  0.3439
28726SOL    HW193228   8.329   0.472   3.743  0.1734  0.5097 -0.6167
28726SOL    HW293229   8.244   0.347   3.744  0.6729  0.1503  1.3300
28727SOL     OW93230   0.714   2.550  10.323 -0.0168  0.1001  0.2881
28727SOL    HW193231   0.763   2.573  10.244 -0.8944 -1.6193 -0.8171
28727SOL    HW293232   0.623   2.569  10.301 -0.0637  2.0661  1.8700
28728SOL     OW93233   5.626  10.858   7.321 -0.9219  0.0741  0.2034
28728SOL    HW193234   5.685  10.933   7.322  0.5241 -1.0120 -0.2453
28728SOL    HW293235   5.599  10.850   7.229 -1.1267  0.0780  0.2617
28729SOL     OW93236   7.831   9.463   1.322  0.0055  0.8525 -0.3117
28729SOL    HW193237   7.835   9.527   1.251  1.1180  0.5177 -0.5758
28729SOL    HW293238   7.770   9.396   1.291 -1.6321  2.0283  0.2107
28730SOL     OW93239   1.211  11.226  10.849 -0.0301  0.2534  0.3090
28730SOL    HW193240   1.235  11.269  10.931 -1.6006  1.4744  0.1745
28730SOL    HW293241   1.240  11.288  10.781  0.7703 -0.5009 -0.0535
28731SOL     OW93242   2.822  10.841   7.364 -0.3305  0.0459 -0.3908
28731SOL    HW193243   2.799  10.844   7.271  0.9721 -1.8356 -0.8488
28731SOL    HW293244   2.842  10.931   7.387 -0.7188  0.5553 -1.9258
28732SOL     OW93245   7.288  12.000   5.391 -0.0628  0.2590 -0.4146
28732SOL    HW193246   7.382  11.995   5.406 -0.2459 -2.7976  0.3367
28732SOL    HW293247   7.251  12.027   5.475  0.0421 -0.0251 -0.2772
28733SOL     OW93248   9.379  10.839   8.764 -0.1689 -0.7206  0.4664
28733SOL    HW193249   9.324  10.896   8.818  1.6901  0.8909  0.7919
28733SOL    HW293250   9.330  10.826   8.684 -0.4963  1.7717  0.2072
28734SOL     OW93251   8.391   2.501   0.703  0.0159  0.2429  0.4126
28734SOL    HW193252   8.311   2.540   0.669 -0.2657  0.7395  1.6077
28734SOL    HW293253   8.384   2.408   0.680  0.2029  0.6692 -1.5311
28735SOL     OW93254   2.415   8.336  10.016  0.2733  0.2813  0.0022
28735SOL    HW193255   2.325   8.368  10.017  0.1786  0.0258  0.7736
28735SOL    HW293256   2.407   8.241  10.025  0.6366  0.3809  1.9275
28736SOL     OW93257   5.858   3.320   1.674  0.5664 -0.1032 -0.5500
28736SOL    HW193258   5.886   3.234   1.641  1.0586 -0.7595  1.4156
28736SOL    HW293259   5.818   3.363   1.598  0.6753 -1.8993 -1.6978
28737SOL     OW93260   5.375  12.298   9.896  0.2183 -0.1088 -0.3593
28737SOL    HW193261   5.428  12.249   9.835 -0.0438  1.0897 -1.5973
28737SOL    HW293262   5.285  12.285   9.866  0.1244  0.8902 -0.5548
28738SOL     OW93263   3.340   7.836   2.325 -0.0137  0.6151 -0.7063
28738SOL    HW193264   3.401   7.897   2.364 -0.2678 -0.5337  1.6355
28738SOL    HW293265   3.255   7.879   2.330 -0.0485  0.4615  0.0689
28739SOL     OW93266  10.154   7.416   6.938 -0.6667 -0.3786 -0.4013
28739SOL    HW193267  10.211   7.432   7.013 -1.8810  0.7132  0.3276
28739SOL    HW293268  10.213   7.387   6.869  0.3889 -2.5762  1.2717
28740SOL     OW93269   6.484   0.809   9.563  0.1621 -0.4006 -0.2254
28740SOL    HW193270   6.516   0.807   9.473  1.4141  0.2421  0.1791
28740SOL    HW293271   6.394   0.777   9.558 -0.2942  1.0366 -1.9167
28741SOL     OW93272   0.010   1.375   4.321 -0.0928  0.2233  0.1086
28741SOL    HW193273   0.026   1.444   4.385 -0.4075  0.9629 -0.6087
28741SOL    HW293274   0.079   1.310   4.339  0.3018  0.7882  0.6758
28742SOL     OW93275   4.379  10.400   4.885  0.0569 -0.0701  0.0982
28742SOL    HW193276   4.332  10.317   4.882  1.0957 -0.7242  0.8767
28742SOL    HW293277   4.316  10.465   4.855 -1.0188 -1.0353  0.1960
28743SOL     OW93278   0.396  10.851   2.069  0.3926 -0.2201  0.0984
28743SOL    HW193279   0.315  10.807   2.096  0.7050 -0.6491  0.3684
28743SOL    HW293280   0.394  10.850   1.974 -0.0488  0.0116  0.1073
28744SOL     OW93281   6.924   0.491   3.682  0.0387  0.0252 -0.2801
28744SOL    HW193282   6.834   0.465   3.703 -0.3185  0.0053 -1.7640
28744SOL    HW293283   6.937   0.462   3.592  0.0926  3.6471 -1.6128
28745SOL     OW93284   8.836   8.560   3.825 -0.3839 -0.2833 -0.1935
28745SOL    HW193285   8.893   8.591   3.895  1.5580  0.3043 -1.9571
28745SOL    HW293286   8.779   8.635   3.806  0.9556  0.5440 -1.0777
28746SOL     OW93287   9.245   5.221   4.732  0.5575  0.6328 -0.6489
28746SOL    HW193288   9.333   5.185   4.723  0.3444  0.4503 -2.2975
28746SOL    HW293289   9.250   5.277   4.810  1.4144 -1.3813  0.8247
28747SOL     OW93290   6.308   4.856   1.023  0.2506  0.3726 -0.3329
28747SOL    HW193291   6.320   4.947   1.051 -0.1751  0.1010  0.7828
28747SOL    HW293292   6.395   4.818   1.026 -0.0190 -0.2816  3.0132
28748SOL     OW93293   6.667   5.516  10.569 -0.1027 -0.3012  0.2803
28748SOL    HW193294   6.700   5.429  10.548  0.0093 -0.0418 -0.6696
28748SOL    HW293295   6.744   5.573  10.568 -0.3972  0.1006 -0.8044
28749SOL     OW93296   6.120   5.039   8.622 -0.1330  0.5060 -0.1038
28749SOL    HW193297   6.183   5.069   8.687 -1.7623  1.5273  1.0752
28749SOL    HW293298   6.074   4.967   8.664 -1.0262  1.0071 -0.1859
28750SOL     OW93299  10.208   3.344   4.468 -0.0735  0.0065  0.0616
28750SOL    HW193300  10.243   3.354   4.557 -0.1771  1.0055  0.0080
28750SOL    HW293301  10.137   3.409   4.464  0.7777  0.8963 -1.1639
28751SOL     OW93302  10.206  10.826   8.873 -0.0417 -0.0500  0.1044
28751SOL    HW193303  10.176  10.914   8.850 -0.9025 -0.3764 -0.0721
28751SOL    HW293304  10.176  10.813   8.963  1.4867  0.4234  0.7262
28752SOL     OW93305   7.857   5.790   2.008  0.5561 -0.1840  0.1396
28752SOL    HW193306   7.949   5.771   1.993  0.5430  0.0835 -0.3008
28752SOL    HW293307   7.845   5.880   1.977 -0.6164 -1.3213 -3.2809
28753SOL     OW93308   6.850   5.385   4.043  0.2056 -0.1191  0.3892
28753SOL    HW193309   6.903   5.396   4.122 -0.2974  0.6754  0.6240
28753SOL    HW293310   6.788   5.458   4.045 -2.0090 -1.9112  1.0100
28754SOL     OW93311   3.843  11.163   5.558  0.0598 -0.0376  0.1649
28754SOL    HW193312   3.832  11.073   5.587  1.7024 -0.6121 -0.8278
28754SOL    HW293313   3.754  11.198   5.551 -0.5975 -1.5424  0.6707
28755SOL     OW93314   7.273   1.802  10.900 -0.4348  0.2736  0.4558
28755SOL    HW193315   7.219   1.737  10.856  0.1758  0.3464 -0.4235
28755SOL    HW293316   7.358   1.759  10.911 -0.7823 -0.0313  2.2976
28756SOL     OW93317   7.478   2.368   8.440  0.2041 -0.9599  0.4361
28756SOL    HW193318   7.573   2.367   8.433  0.3272 -0.5093  1.6977
28756SOL    HW293319   7.449   2.426   8.369  0.8832 -0.8605  0.2374
28757SOL     OW93320  10.831   8.498   5.475  0.4720 -0.1251  0.7120
28757SOL    HW193321  10.866   8.517   5.388 -0.5009 -0.1977  0.2994
28757SOL    HW293322  10.867   8.412   5.497  0.3929 -0.2891  0.2072
28758SOL     OW93323   0.697   7.678   6.174  0.1071  0.0059  0.7413
28758SOL    HW193324   0.773   7.628   6.145  0.0287  1.4105 -2.4044
28758SOL    HW293325   0.622   7.623   6.152  0.1331  0.1377  0.2997
28759SOL     OW93326   1.315   0.709  11.314  0.1657  0.0908 -0.0926
28759SOL    HW193327   1.301   0.655  11.392 -1.0824  0.0759 -0.3099
28759SOL    HW293328   1.230   0.711  11.270 -0.0987  2.9631  0.3558
28760SOL     OW93329   8.321   8.989  12.270 -0.5078 -0.1530 -0.0837
28760SOL    HW193330   8.242   8.954  12.311 -1.1918 -0.5006 -1.6349
28760SOL    HW293331   8.338   8.930  12.196  1.6341 -0.5158  0.6201
28761SOL     OW93332   0.946   2.278   7.653 -0.1360 -0.2298  0.3144
28761SOL    HW193333   1.018   2.239   7.703  2.0760 -1.1759 -3.2387
28761SOL    HW293334   0.875   2.214   7.659  0.8796 -1.3886  0.4701
28762SOL     OW93335   1.728   6.219   0.866 -0.2585  0.2091 -0.5629
28762SOL    HW193336   1.726   6.314   0.859 -1.6469  0.1159 -2.2118
28762SOL    HW293337   1.651   6.189   0.817 -0.9289 -1.7045  1.4860
28763SOL     OW93338   7.330   5.367   4.052 -0.1909 -0.0374  0.5397
28763SOL    HW193339   7.343   5.373   4.146 -0.9930  1.6577  0.5848
28763SOL    HW293340   7.398   5.424   4.015 -1.2527  1.0826  0.2471
28764SOL     OW93341   4.395   8.037   5.463  0.9344  0.2351 -0.0921
28764SOL    HW193342   4.416   7.944   5.451  1.9068  0.2604  1.1458
28764SOL    HW293343   4.479   8.081   5.455  0.6419  0.8894  0.4080
28765SOL     OW93344  10.387   8.170   9.894 -0.1061  0.3885 -0.2222
28765SOL    HW193345  10.312   8.137   9.943  1.1444 -1.5552  0.4880
28765SOL    HW293346  10.372   8.265   9.889 -2.6911  0.0455 -0.3318
28766SOL     OW93347   4.520   2.934   5.808  0.7783  0.6089  0.0681
28766SOL    HW193348   4.453   2.868   5.788  0.3350  0.4653  1.8356
28766SOL    HW293349   4.572   2.941   5.728  0.3574 -1.3324 -0.4226
28767SOL     OW93350   4.385   0.520   5.661 -0.2381 -0.2772  0.0249
28767SOL    HW193351   4.444   0.591   5.636  1.0966 -1.4981 -0.4240
28767SOL    HW293352   4.334   0.502   5.582 -0.3928  0.0006  0.0604
28768SOL     OW93353   2.533  11.856   2.928  0.1658 -0.5604  0.4192
28768SOL    HW193354   2.572  11.774   2.897 -1.3357 -0.6119 -1.5431
28768SOL    HW293355   2.448  11.830   2.964  0.2592 -0.0155  1.0385
28769SOL     OW93356   5.546   9.384  11.391  0.3940 -0.1177 -0.0438
28769SOL    HW193357   5.616   9.359  11.330 -0.7695  0.5205 -1.7347
28769SOL    HW293358   5.511   9.465  11.353 -0.9523 -0.1780  1.0334
28770SOL     OW93359  10.753   1.373  12.361  0.0023 -0.1504  0.2965
28770SOL    HW193360  10.762   1.283  12.332  0.0007  0.0615 -0.3829
28770SOL    HW293361  10.825   1.420  12.318 -0.8685  0.4502 -0.5783
28771SOL     OW93362  11.419   3.140  11.144  0.0726 -0.0296 -0.2983
28771SOL    HW193363  11.424   3.222  11.095 -1.0969  0.0738 -0.2563
28771SOL    HW293364  11.332   3.140  11.184 -0.1202 -1.4819 -0.6440
28772SOL     OW93365   4.158   5.889  12.298  0.3168 -0.3854 -0.0190
28772SOL    HW193366   4.225   5.907  12.364  0.3317  0.9605 -0.3621
28772SOL    HW293367   4.155   5.794  12.291  1.7054 -0.4853  0.5004
28773SOL     OW93368   3.339   2.460   5.354 -0.5351 -0.0618  0.2210
28773SOL    HW193369   3.341   2.372   5.316  1.3267 -0.7764  1.8138
28773SOL    HW293370   3.401   2.511   5.302  0.0787 -0.3348  0.6709
28774SOL     OW93371  11.206   4.686  11.907 -0.2360 -0.1230  0.2139
28774SOL    HW193372  11.154   4.751  11.859 -0.7446  0.7419  1.8869
28774SOL    HW293373  11.155   4.667  11.986  1.3125 -0.3206  1.2093
28775SOL     OW93374   7.605  10.386   9.474 -0.3444 -0.0714  0.3741
28775SOL    HW193375   7.662  10.457   9.504  1.2307 -0.4174 -1.5785
28775SOL    HW293376   7.647  10.354   9.395 -3.1997 -0.5232 -1.0656
28776SOL     OW93377   9.386   2.168  12.456 -0.2913 -0.8485  0.1161
28776SOL    HW193378   9.467   2.204  12.419 -0.7858  1.7777  1.3389
28776SOL    HW293379   9.415   2.102  12.519  0.7924 -1.0069 -0.5264
28777SOL     OW93380   0.251  10.762   9.552 -0.2563 -0.0453  0.1410
28777SOL    HW193381   0.328  10.714   9.582 -0.6655 -1.7362 -1.3554
28777SOL    HW293382   0.177  10.721   9.598 -0.6419 -1.1616 -1.3806
28778SOL     OW93383   5.815   4.208  11.756 -0.7057  0.7780 -0.6698
28778SOL    HW193384   5.875   4.144  11.793  0.1199  2.4785  1.0854
28778SOL    HW293385   5.851   4.228  11.669 -1.0696 -1.1765 -1.3185
28779SOL     OW93386   1.676   3.643   5.049  0.4110  0.0982  0.9538
28779SOL    HW193387   1.741   3.609   4.988  1.4212  0.9355  1.5296
28779SOL    HW293388   1.648   3.567   5.100 -0.5372 -0.6308 -0.6061
28780SOL     OW93389   8.831   3.738  11.395 -0.9918  0.6606  0.1880
28780SOL    HW193390   8.815   3.735  11.489 -0.6722  0.6367  0.2449
28780SOL    HW293391   8.791   3.820  11.366 -0.5901  0.9546  0.4485
28781SOL     OW93392   0.108   3.566   3.115  0.3739  0.2774  0.0294
28781SOL    HW193393   0.124   3.656   3.144  1.0428  0.1075  0.1906
28781SOL    HW293394   0.057   3.575   3.035 -0.3026  0.7840  0.5000
28782SOL     OW93395  10.853   7.370   5.380  0.1924  0.0079  0.1067
28782SOL    HW193396  10.884   7.447   5.427  0.3397 -0.7699  1.3255
28782SOL    HW293397  10.833   7.402   5.292  1.5812  1.1527  0.1666
28783SOL     OW93398  11.875   0.051   7.628 -0.4844 -0.1914 -0.0115
28783SOL    HW193399  11.843   0.009   7.549  0.9039 -1.1986 -0.0641
28783SOL    HW293400  11.938   0.116   7.598 -1.1714  0.5921  0.1914
28784SOL     OW93401   2.475   2.079   6.393 -0.5453 -0.0432  0.2804
28784SOL    HW193402   2.539   2.025   6.439 -0.9216 -0.5137  0.2581
28784SOL    HW293403   2.526   2.150   6.355  0.1386 -1.0301 -0.6894
28785SOL     OW93404   5.252   4.106  10.893  0.0688 -0.7655 -0.4607
28785SOL    HW193405   5.172   4.065  10.927 -1.0597  0.9407 -0.9255
28785SOL    HW293406   5.236   4.200  10.903  3.1710 -0.3539  2.0228
28786SOL     OW93407   2.015   1.860   1.186 -0.4779  0.0665  0.4506
28786SOL    HW193408   2.072   1.859   1.109 -0.4662 -0.8128  0.4611
28786SOL    HW293409   2.020   1.950   1.218 -0.5881  0.4851 -0.6526
28787SOL     OW93410  10.240   4.666   2.085 -0.2705 -0.8191  0.2348
28787SOL    HW193411  10.183   4.736   2.051 -1.0692 -1.2657  0.6217
28787SOL    HW293412  10.314   4.665   2.025 -1.2592 -1.0466 -1.0290
28788SOL     OW93413  10.337   4.317   7.772  0.2224 -0.2481  0.4941
28788SOL    HW193414  10.311   4.250   7.709  0.2132  0.0146  0.2147
28788SOL    HW293415  10.376   4.386   7.719  0.7304 -0.2721  0.8334
28789SOL     OW93416   5.440  12.542   6.793  0.1186  0.1732 -0.2743
28789SOL    HW193417   5.431  12.587   6.709 -0.2446 -0.5564 -0.6255
28789SOL    HW293418   5.351  12.534   6.826  0.1000 -0.9518 -0.5657
28790SOL     OW93419   6.606   4.404   0.961 -0.6273  1.0647 -0.7213
28790SOL    HW193420   6.588   4.498   0.956  1.0653  1.6458  1.8003
28790SOL    HW293421   6.688   4.393   0.913  0.7209  1.5024  1.3371
28791SOL     OW93422   0.411   8.643   6.812  0.3029 -0.0618  0.5013
28791SOL    HW193423   0.489   8.589   6.799  0.9685  0.9852 -0.0338
28791SOL    HW293424   0.436   8.705   6.881  0.3960  1.0517 -0.4924
28792SOL     OW93425   7.360   5.068   7.614  0.3091  0.4683  0.2930
28792SOL    HW193426   7.378   5.155   7.579 -0.7141  0.3209 -0.6607
28792SOL    HW293427   7.267   5.069   7.636  0.0225 -0.6829 -0.7155
28793SOL     OW93428   6.512   6.082   3.940  0.1688 -0.1826 -0.0986
28793SOL    HW193429   6.480   6.168   3.968  0.8396  0.1786 -0.4021
28793SOL    HW293430   6.606   6.094   3.930  0.1361 -0.6780 -1.1176
28794SOL     OW93431   0.362  12.385  10.596 -0.5124 -0.7068  0.8680
28794SOL    HW193432   0.359  12.324  10.522  0.2875 -0.4423  0.6092
28794SOL    HW293433   0.406  12.336  10.665 -3.3435 -1.8288  2.0403
28795SOL     OW93434   0.185  11.116   9.914 -0.4764  0.0252 -0.0417
28795SOL    HW193435   0.128  11.052   9.957  0.2640 -0.8274 -0.2928
28795SOL    HW293436   0.168  11.105   9.821 -0.5992  0.4509 -0.0726
28796SOL     OW93437   9.720   1.541   3.237 -0.0014 -0.3933  0.1560
28796SOL    HW193438   9.794   1.596   3.210  0.6486 -1.6065 -0.6116
28796SOL    HW293439   9.643   1.589   3.207  0.6385 -1.1126 -2.9905
28797SOL     OW93440   5.615   1.626   1.988 -0.5155  0.0496 -0.1122
28797SOL    HW193441   5.545   1.646   2.050 -2.0372 -0.9685 -1.4212
28797SOL    HW293442   5.573   1.633   1.902  1.0683 -0.3559 -0.9557
28798SOL     OW93443   4.185   8.318   1.095 -0.2735 -0.5580  0.3842
28798SOL    HW193444   4.152   8.288   1.010  1.0244 -2.5126  0.5053
28798SOL    HW293445   4.191   8.413   1.086 -1.2496 -0.6130 -1.3090
28799SOL     OW93446  12.208   5.704   0.535 -0.4859 -0.5890 -0.0031
28799SOL    HW193447  12.225   5.611   0.550  3.2894 -0.3047 -1.4385
28799SOL    HW293448  12.246   5.722   0.450  0.9022  2.6643  1.1398
28800SOL     OW93449   6.738   4.151  11.041  0.4566  0.1532 -0.3581
28800SOL    HW193450   6.660   4.107  11.007  1.0478 -0.2602 -1.2178
28800SOL    HW293451   6.717   4.245  11.035 -0.4469  0.0320  0.6100
28801SOL     OW93452   4.425   6.105   5.794 -0.0498  0.1717 -0.1164
28801SOL    HW193453   4.356   6.151   5.748 -1.1159  0.2553  1.4951
28801SOL    HW293454   4.406   6.012   5.781 -1.1459  0.1804  1.2255
28802SOL     OW93455  10.529  11.677   1.675  0.2843  0.5479  0.3368
28802SOL    HW193456  10.544  11.724   1.758  0.1329  0.8978  0.1697
28802SOL    HW293457  10.589  11.603   1.678 -0.4601 -0.0522  1.2398
28803SOL     OW93458   0.068   3.469   8.400  0.2233 -0.0304 -0.3423
28803SOL    HW193459  -0.010   3.504   8.444  0.5672  0.1233  0.1644
28803SOL    HW293460   0.054   3.487   8.307 -0.5352 -0.3843 -0.3044
28804SOL     OW93461   4.606  12.100  11.811  0.0794 -0.4170 -0.1693
28804SOL    HW193462   4.647  12.125  11.728 -0.3768  0.6772 -0.0767
28804SOL    HW293463   4.608  12.180  11.864 -0.3033 -0.9101  0.5997
28805SOL     OW93464   9.405   4.616   3.365 -0.1239 -0.1855  0.2662
28805SOL    HW193465   9.474   4.611   3.431 -0.0066  2.0076  0.3606
28805SOL    HW293466   9.334   4.562   3.400  1.2755 -2.0313  0.4287
28806SOL     OW93467   9.427   5.619   7.541 -0.2677 -0.6282  0.0581
28806SOL    HW193468   9.340   5.659   7.539  1.0364  2.5026 -0.8766
28806SOL    HW293469   9.487   5.693   7.534  2.4499 -2.8010 -1.5632
28807SOL     OW93470   7.043   4.640   3.595 -0.4343  0.3950 -0.7508
28807SOL    HW193471   7.049   4.724   3.641 -1.0242  0.7602 -1.3388
28807SOL    HW293472   7.000   4.582   3.658 -2.1699  1.1599 -1.1804
28808SOL     OW93473   1.490   5.294   4.400  0.8109  0.2912 -0.4110
28808SOL    HW193474   1.429   5.315   4.471 -1.4574 -1.6580 -1.6373
28808SOL    HW293475   1.444   5.322   4.321  1.0752 -1.9678 -1.4457
28809SOL     OW93476   3.141   8.096   7.160  0.2375  0.1156  0.0848
28809SOL    HW193477   3.212   8.083   7.223 -1.0697  0.3084  1.6647
28809SOL    HW293478   3.086   8.165   7.199  0.0727  1.2081 -1.9132
28810SOL     OW93479   7.667   3.076   5.778  0.1690 -0.4570 -0.5331
28810SOL    HW193480   7.636   3.164   5.801  1.4850  0.2541 -1.3314
28810SOL    HW293481   7.742   3.062   5.834  0.5213 -0.6807 -1.0560
28811SOL     OW93482  11.490  11.192   0.183 -0.2130  0.1064 -0.0389
28811SOL    HW193483  11.510  11.281   0.213 -1.6726  0.1138  0.9973
28811SOL    HW293484  11.418  11.203   0.121  0.1849 -0.2920 -0.5878
28812SOL     OW93485   8.253  12.180   2.076  0.3805  0.7041 -0.0056
28812SOL    HW193486   8.302  12.113   2.123  0.4077 -1.1477 -2.4680
28812SOL    HW293487   8.198  12.132   2.014  0.1140  2.9174 -1.6401
28813SOL     OW93488   3.482   4.508   0.553 -0.1174  0.3919  0.2452
28813SOL    HW193489   3.555   4.453   0.579  0.8945  0.7480 -1.6901
28813SOL    HW293490   3.493   4.588   0.604  0.2190  0.0376  0.7369
28814SOL     OW93491   9.324  10.904   3.482  0.6941  0.0352  0.2873
28814SOL    HW193492   9.327  10.828   3.541  1.8460 -1.1088 -1.1812
28814SOL    HW293493   9.276  10.873   3.406  0.2136  1.1480  0.1202
28815SOL     OW93494  10.428   5.365   2.628 -0.1879 -0.0488  0.0795
28815SOL    HW193495  10.518   5.393   2.643 -0.5463  1.7098 -0.8642
28815SOL    HW293496  10.433   5.305   2.553  0.0598  1.1439 -0.8871
28816SOL     OW93497   3.730   0.986   8.651 -0.3426 -0.0331 -0.3696
28816SOL    HW193498   3.688   0.951   8.729  1.3807  0.3387  0.7936
28816SOL    HW293499   3.739   1.080   8.669 -1.0802  0.2944 -1.5962
28817SOL     OW93500  10.603   6.900  10.132 -0.1598 -0.1260  0.0957
28817SOL    HW193501  10.675   6.956  10.104  0.2751  0.6355  2.5000
28817SOL    HW293502  10.526   6.957  10.129 -0.3287 -0.3734 -0.5605
28818SOL     OW93503  12.305   4.742  10.647  0.2408  0.4386  0.2126
28818SOL    HW193504  12.255   4.688  10.586  0.6925 -0.5864  0.7174
28818SOL    HW293505  12.358   4.799  10.592  0.2859 -0.1358 -0.3490
28819SOL     OW93506   1.102   2.797  11.128 -0.2797  0.1378  0.5636
28819SOL    HW193507   1.146   2.881  11.121  0.8756 -0.5157 -0.5049
28819SOL    HW293508   1.172   2.732  11.121 -1.0376 -0.9241  2.2154
28820SOL     OW93509  10.409  10.847   4.230 -0.1032  0.2138  0.0894
28820SOL    HW193510  10.336  10.812   4.179  0.0671 -0.2140  0.1273
28820SOL    HW293511  10.369  10.878   4.311 -0.0595 -1.5352  0.8247
28821SOL     OW93512  12.422   3.455   0.516  0.6282  0.1677  0.5907
28821SOL    HW193513  12.384   3.536   0.549  2.2707  1.7780 -1.2265
28821SOL    HW293514  12.495   3.437   0.575  0.0437 -0.2256  1.2090
28822SOL     OW93515   8.489   0.329   4.829  0.1762 -0.1870 -0.1934
28822SOL    HW193516   8.413   0.351   4.774  0.4850  0.1154 -0.5060
28822SOL    HW293517   8.532   0.412   4.844  0.0081 -0.2489  0.6534
28823SOL     OW93518   2.143   6.096   9.657 -0.1821 -0.2333  0.1095
28823SOL    HW193519   2.237   6.111   9.652 -0.1329 -0.0051  1.3402
28823SOL    HW293520   2.133   6.002   9.647 -0.0931 -0.0106 -2.8850
28824SOL     OW93521  10.895   1.424   1.704  0.3460  0.4865 -0.3962
28824SOL    HW193522  10.835   1.362   1.663  0.3033  0.1905  0.1035
28824SOL    HW293523  10.838   1.480   1.757  0.6177 -0.5904  1.0848
28825SOL     OW93524  11.188   8.901   4.951  0.3055 -0.1097 -0.6671
28825SOL    HW193525  11.258   8.923   5.013 -1.3829  1.3385  0.8223
28825SOL    HW293526  11.215   8.942   4.869  1.1739  0.4863 -0.1056
28826SOL     OW93527  11.438   1.831   7.219  0.4383 -0.1991  0.0373
28826SOL    HW193528  11.480   1.887   7.284 -0.3046 -0.4036  0.7149
28826SOL    HW293529  11.470   1.863   7.135 -0.6823  1.8613  0.3305
28827SOL     OW93530   6.353   2.605   5.447  0.0443  0.1381  0.1356
28827SOL    HW193531   6.392   2.558   5.373  0.7928  1.0929 -0.0991
28827SOL    HW293532   6.332   2.537   5.511  0.0643 -0.6219 -0.6594
28828SOL     OW93533   3.010   4.527  11.792 -0.3405  0.5054 -0.9106
28828SOL    HW193534   3.020   4.599  11.853 -0.8436  0.0638 -0.2801
28828SOL    HW293535   2.976   4.455  11.846  0.2893 -0.2402 -1.4931
28829SOL     OW93536   1.026   9.414   4.473 -0.0475  0.4251  0.4790
28829SOL    HW193537   0.991   9.493   4.514 -3.0827 -1.2715  1.4885
28829SOL    HW293538   0.979   9.407   4.390  0.2534 -0.2704  0.3534
28830SOL     OW93539   3.256   1.682   9.431  0.2056  0.3302 -0.5069
28830SOL    HW193540   3.183   1.634   9.392  1.0863 -0.9490 -0.6181
28830SOL    HW293541   3.232   1.690   9.524  1.3465 -3.0613  0.2359
28831SOL     OW93542  10.038  12.547  11.709  0.0402  0.7740 -0.0635
28831SOL    HW193543  10.078  12.584  11.630 -0.0085 -1.5209 -1.2352
28831SOL    HW293544  10.086  12.466  11.724 -2.9759 -1.2425 -0.5208
28832SOL     OW93545  11.861   3.315   8.406  0.2038 -0.3775  0.3602
28832SOL    HW193546  11.836   3.224   8.391 -0.1851 -0.0390 -1.2594
28832SOL    HW293547  11.955   3.317   8.386  0.3909 -0.5716  1.1891
28833SOL     OW93548   9.250   1.866   3.355  0.2831  0.1686 -0.4375
28833SOL    HW193549   9.158   1.850   3.333  0.3507 -1.0421  0.0771
28833SOL    HW293550   9.298   1.822   3.285  0.4679  0.2595 -0.3663
28834SOL     OW93551   9.644   4.831   9.799 -0.0241  0.1123 -0.0338
28834SOL    HW193552   9.626   4.751   9.848 -0.0844 -0.2045 -0.5620
28834SOL    HW293553   9.591   4.822   9.720 -0.7233  1.0864  0.3153
28835SOL     OW93554   4.064   5.147   8.807 -0.0264  0.0639 -0.2340
28835SOL    HW193555   4.010   5.179   8.879 -0.4492 -0.8575 -0.1147
28835SOL    HW293556   4.126   5.087   8.848 -1.0194 -1.3853 -0.7195
28836SOL     OW93557   4.180   3.235  11.366  0.0734 -0.1177  0.8001
28836SOL    HW193558   4.114   3.208  11.429  0.2255 -0.4075  0.8343
28836SOL    HW293559   4.251   3.270  11.419 -0.6385  1.5315  0.7204
28837SOL     OW93560  10.040   5.504   9.583 -0.1377  0.1772 -0.4187
28837SOL    HW193561   9.991   5.577   9.545 -0.8419 -0.3809 -0.5927
28837SOL    HW293562  10.003   5.493   9.670 -1.2652 -1.1155 -1.0362
28838SOL     OW93563   0.357  10.053  12.252  0.7845  0.1909 -0.3329
28838SOL    HW193564   0.296   9.983  12.275 -0.7745  1.4288 -0.4552
28838SOL    HW293565   0.443  10.020  12.277 -0.2327 -0.4954  2.6542
28839SOL     OW93566   8.369   8.195   4.110 -0.4051  0.2186  0.1117
28839SOL    HW193567   8.382   8.105   4.140  2.1971  0.3497 -0.3613
28839SOL    HW293568   8.379   8.190   4.015 -1.2046  0.8940 -0.0172
28840SOL     OW93569   1.862  11.693   9.114  0.2846 -0.4647 -0.3706
28840SOL    HW193570   1.792  11.757   9.109  0.1370 -0.5581  0.3592
28840SOL    HW293571   1.817  11.609   9.122  0.4753 -0.6806 -1.4145
28841SOL     OW93572   5.868   8.391   1.527  0.3880 -0.3307 -0.2741
28841SOL    HW193573   5.924   8.419   1.456 -1.3621 -2.4302 -2.6558
28841SOL    HW293574   5.908   8.311   1.560  0.2775 -0.3157 -0.1008
28842SOL     OW93575   6.994   4.735   6.793  0.1599 -0.0001 -0.5279
28842SOL    HW193576   7.058   4.801   6.767  0.0755  0.9937  1.5797
28842SOL    HW293577   6.917   4.786   6.819 -0.0156 -0.9366  0.8695
28843SOL     OW93578   2.151   0.103   3.224 -0.8492 -0.7237 -0.3783
28843SOL    HW193579   2.121   0.027   3.272  0.5569 -0.0149  1.7725
28843SOL    HW293580   2.076   0.162   3.222 -0.5323 -0.1121  2.4482
28844SOL     OW93581  11.494   7.924  10.632 -0.2896 -0.6199  0.3418
28844SOL    HW193582  11.458   8.004  10.592  2.2474  0.6046  0.2574
28844SOL    HW293583  11.583   7.918  10.595 -0.3900 -3.5053  0.3834
28845SOL     OW93584   2.545   9.999   9.583  0.8517 -0.4482 -0.1017
28845SOL    HW193585   2.510   9.947   9.656  0.5992  0.4943  0.4667
28845SOL    HW293586   2.631  10.027   9.613  0.1607  1.1652  0.4694
28846SOL     OW93587   0.596   6.544   4.606 -0.0043  0.2931  0.6874
28846SOL    HW193588   0.679   6.584   4.632  1.4513 -2.8755  1.3824
28846SOL    HW293589   0.558   6.511   4.687  0.1382 -1.8683 -0.0638
28847SOL     OW93590   3.394   9.219   4.080  0.4234  0.3741 -0.0372
28847SOL    HW193591   3.474   9.208   4.029 -0.4899  0.1234 -1.4752
28847SOL    HW293592   3.359   9.130   4.091  0.2431  0.4953  0.4314
28848SOL     OW93593  11.106   2.986   7.519 -0.4651 -0.2100 -0.1651
28848SOL    HW193594  11.087   2.905   7.566  3.3560 -1.6542 -0.7446
28848SOL    HW293595  11.182   3.023   7.565  0.2338  1.0103 -2.1578
28849SOL     OW93596   6.983   7.746  12.192  0.1299 -0.5792 -0.3335
28849SOL    HW193597   6.900   7.703  12.171 -0.8071  0.9382  0.0978
28849SOL    HW293598   7.050   7.687  12.157 -1.1430 -1.5249 -1.2762
28850SOL     OW93599  11.058   4.605   0.625 -0.3117 -0.0381 -0.1879
28850SOL    HW193600  11.064   4.513   0.649  0.7201  0.4467  1.5598
28850SOL    HW293601  10.999   4.643   0.690  1.6080  1.0843  0.9909
28851SOL     OW93602   3.344  10.740   4.591 -0.6849 -0.3097  0.7149
28851SOL    HW193603   3.276  10.693   4.543  0.9850 -0.5108 -1.5661
28851SOL    HW293604   3.353  10.692   4.674 -1.5651 -1.7687 -0.0092
28852SOL     OW93605   3.427  11.778  11.981 -0.8577  0.0145  0.1791
28852SOL    HW193606   3.341  11.736  11.974 -1.4277  1.3267 -1.4276
28852SOL    HW293607   3.410  11.870  11.960  1.1567  0.0147 -1.8579
28853SOL     OW93608   1.280   5.711   7.208  0.3221 -0.1891 -0.2745
28853SOL    HW193609   1.255   5.691   7.298  0.6051  1.3482  0.1778
28853SOL    HW293610   1.374   5.690   7.204  0.0644 -1.3502 -0.5652
28854SOL     OW93611   2.836   9.889   5.141  0.3704 -0.0161 -0.3343
28854SOL    HW193612   2.745   9.895   5.111  0.3464  0.3928 -0.1925
28854SOL    HW293613   2.852   9.795   5.150 -1.1332 -0.0694  2.9621
28855SOL     OW93614  11.858   9.009   9.841 -0.1860 -0.3701 -0.2160
28855SOL    HW193615  11.790   9.073   9.862 -0.3073 -0.0943 -1.3783
28855SOL    HW293616  11.938   9.047   9.878 -0.0273  1.0903 -1.8775
28856SOL     OW93617   4.201  10.367   5.281 -0.0095  0.0888 -0.1014
28856SOL    HW193618   4.295  10.376   5.268  0.1567  0.0450  0.9310
28856SOL    HW293619   4.183  10.416   5.362 -0.7613 -0.4331  0.0654
28857SOL     OW93620   0.065   4.043   8.182 -0.3843  0.6784 -0.4604
28857SOL    HW193621   0.071   4.053   8.087  1.2791  1.2649 -0.3362
28857SOL    HW293622   0.004   4.111   8.210 -1.4175  0.0597 -1.1515
28858SOL     OW93623   5.772   4.228   8.089 -0.0151 -0.0222  0.2673
28858SOL    HW193624   5.794   4.213   7.997  1.8271 -1.0840  0.8178
28858SOL    HW293625   5.683   4.194   8.099 -0.7175  1.2007 -1.3423
28859SOL     OW93626  10.268  10.439   9.341  0.5094 -0.2418  0.6948
28859SOL    HW193627  10.354  10.443   9.383  0.7405  1.4965  0.1303
28859SOL    HW293628  10.208  10.474   9.407  0.5647  0.4764  0.3812
28860SOL     OW93629   7.325  10.467   7.630 -0.1614 -0.2255  0.0166
28860SOL    HW193630   7.334  10.496   7.721 -0.2355  0.3459 -0.1565
28860SOL    HW293631   7.414  10.469   7.595  0.1609 -2.2226  0.5940
28861SOL     OW93632   5.126  12.071   1.875  0.3277 -0.3486 -0.0478
28861SOL    HW193633   5.144  12.165   1.868 -1.2503  0.0579  0.9065
28861SOL    HW293634   5.079  12.049   1.795  0.3449 -0.2409 -0.0872
28862SOL     OW93635   1.337   9.585   8.532  0.0487 -0.0009 -0.4145
28862SOL    HW193636   1.384   9.537   8.600 -1.2271 -0.2843  0.2957
28862SOL    HW293637   1.303   9.662   8.576  1.4649  1.2441 -1.3816
28863SOL     OW93638   8.411   3.136  12.076  0.2098 -0.3200 -0.0523
28863SOL    HW193639   8.478   3.203  12.062 -0.7870  0.5329 -0.9072
28863SOL    HW293640   8.419   3.078  12.000  0.4908 -0.6730  0.2439
28864SOL     OW93641   0.216   0.488   9.984  0.5775 -0.2120 -0.4987
28864SOL    HW193642   0.132   0.492   9.937  0.1314 -1.3527  0.1778
28864SOL    HW293643   0.227   0.396  10.005  0.8308  0.2516  1.5346
28865SOL     OW93644   5.592  10.006   5.713 -0.0844  0.3671  0.4290
28865SOL    HW193645   5.616   9.920   5.748 -1.2898  0.5189  1.7221
28865SOL    HW293646   5.524  10.038   5.772  1.3749  2.8862  0.8878
28866SOL     OW93647  11.147   8.140   6.834  0.2565  0.4313  0.2609
28866SOL    HW193648  11.060   8.102   6.847  0.0473  0.7095 -0.2934
28866SOL    HW293649  11.159   8.199   6.909  0.0261  0.2853  0.4147
28867SOL     OW93650   9.471   5.889   1.306 -0.1268  0.0330  0.7154
28867SOL    HW193651   9.480   5.870   1.212  1.1083  0.1155  0.8008
28867SOL    HW293652   9.530   5.963   1.321 -2.5426  2.0344  0.9969
28868SOL     OW93653   9.123   7.885  11.406  0.4842 -0.3294  0.4852
28868SOL    HW193654   9.128   7.925  11.493 -0.9877  2.2203 -0.4885
28868SOL    HW293655   9.208   7.902  11.366  1.0019 -1.1081  1.2155
28869SOL     OW93656   7.498   7.186   4.297 -0.1938  0.2208 -0.0315
28869SOL    HW193657   7.575   7.177   4.354 -0.3910 -2.4344 -0.0229
28869SOL    HW293658   7.425   7.153   4.350 -0.7398 -0.3645 -1.1073
28870SOL     OW93659   0.041   0.968   2.118 -0.3537 -0.2661  0.2428
28870SOL    HW193660   0.047   0.874   2.100  1.8895 -0.1135 -0.1079
28870SOL    HW293661   0.021   0.973   2.212  1.3243 -1.1520  0.6994
28871SOL     OW93662   1.052   5.042   1.733  0.4122  0.6187 -0.4792
28871SOL    HW193663   1.092   4.995   1.807 -0.2338  1.1364  0.2159
28871SOL    HW293664   0.958   5.041   1.752  0.2956  1.2891 -0.9899
28872SOL     OW93665   9.682   0.391   3.918  0.2467  0.0369  0.0489
28872SOL    HW193666   9.709   0.341   3.995  1.3584  0.3566 -0.1205
28872SOL    HW293667   9.723   0.477   3.929  0.8189 -0.0669 -1.1232
28873SOL     OW93668   6.774   3.570   9.174 -0.4465  0.3255  0.3800
28873SOL    HW193669   6.823   3.497   9.135 -0.8481 -0.0293  0.5277
28873SOL    HW293670   6.804   3.572   9.265  1.1258  1.6972 -0.1225
28874SOL     OW93671   6.674   5.454   6.847  0.0708 -0.3475 -0.3323
28874SOL    HW193672   6.694   5.360   6.845 -0.9355 -0.5740 -2.5526
28874SOL    HW293673   6.680   5.478   6.940  2.0300 -2.2073  0.0918
28875SOL     OW93674   3.041   3.872   1.832 -0.1008  0.2751  0.3697
28875SOL    HW193675   3.019   3.942   1.892  0.3407 -0.2987  1.2219
28875SOL    HW293676   3.132   3.851   1.852  0.5546  1.0663 -1.5211
28876SOL     OW93677   3.569  10.214   8.770 -0.6856  0.4864  0.2650
28876SOL    HW193678   3.572  10.133   8.819 -1.3904 -0.5277 -1.2809
28876SOL    HW293679   3.560  10.283   8.836 -0.8920 -0.7462  1.5518
28877SOL     OW93680   6.871   0.823  11.647  0.0619 -0.3645  0.0128
28877SOL    HW193681   6.850   0.846  11.556  0.2368 -1.7494 -0.4057
28877SOL    HW293682   6.823   0.887  11.700 -2.0925 -1.0465 -0.9988
28878SOL     OW93683   4.553   9.177   8.151  0.0304  0.2129  0.2589
28878SOL    HW193684   4.512   9.123   8.219 -1.1546 -0.7796 -1.2009
28878SOL    HW293685   4.550   9.266   8.186  0.5047 -0.4064  1.9868
28879SOL     OW93686   6.106   4.255  10.442 -0.0265 -0.6728  0.0055
28879SOL    HW193687   6.127   4.328  10.384 -2.3649  0.9403  1.0208
28879SOL    HW293688   6.097   4.180  10.384  3.7105 -0.5734 -0.9478
28880SOL     OW93689   7.130   8.677   3.948  0.1077  0.7212  0.1273
28880SOL    HW193690   7.094   8.751   3.899 -0.7443  0.1879 -0.0800
28880SOL    HW293691   7.153   8.613   3.881  2.3283  1.3866  0.1824
28881SOL     OW93692   6.811   3.282   9.418  0.5413  0.1444  0.4970
28881SOL    HW193693   6.802   3.191   9.390 -1.3621  0.0397  1.3112
28881SOL    HW293694   6.874   3.280   9.490  0.1761 -0.5975  0.7993
28882SOL     OW93695   0.907  10.365  11.269  0.0433 -0.2833 -0.4429
28882SOL    HW193696   0.876  10.411  11.192 -2.3079 -1.2669 -0.1787
28882SOL    HW293697   0.866  10.278  11.264  0.7418 -0.7773  1.3070
28883SOL     OW93698  10.845   1.112  12.335  0.2875  0.7226 -0.6386
28883SOL    HW193699  10.909   1.112  12.263  1.3733  0.0875  0.2985
28883SOL    HW293700  10.889   1.067  12.406 -0.4732  2.0066  0.7064
28884SOL     OW93701   1.734   6.885   1.593 -0.3906 -0.3123 -0.1797
28884SOL    HW193702   1.822   6.851   1.572 -0.6016 -1.3588  0.5654
28884SOL    HW293703   1.742   6.918   1.682 -0.7221 -0.2719 -0.1660
28885SOL     OW93704  12.089   0.143   4.127 -0.0070 -0.3513 -0.4981
28885SOL    HW193705  12.041   0.060   4.134 -0.7468  0.1481  0.6873
28885SOL    HW293706  12.034   0.198   4.072 -0.7637  0.1609  0.7178
28886SOL     OW93707   1.882   8.267   0.134 -0.3542 -0.4978  0.1510
28886SOL    HW193708   1.853   8.295   0.221  1.9202  0.1297  0.7670
28886SOL    HW293709   1.941   8.336   0.104  0.3957 -1.6236 -1.0736
28887SOL     OW93710   5.993   6.688   2.411  0.2372  0.0772  0.1137
28887SOL    HW193711   6.074   6.659   2.453  1.5634  1.1472 -1.6075
28887SOL    HW293712   5.981   6.629   2.337 -0.4222  0.0997  0.1926
28888SOL     OW93713   8.539  10.205  11.020 -0.4618 -0.3240 -0.3204
28888SOL    HW193714   8.630  10.214  11.049 -0.8174  0.1196  0.7569
28888SOL    HW293715   8.492  10.181  11.100 -1.4141  0.3230 -0.6760
28889SOL     OW93716  11.954   9.161   6.492 -0.0521  0.1194 -0.0378
28889SOL    HW193717  11.867   9.120   6.488 -0.1790  0.3708  0.0661
28889SOL    HW293718  11.946   9.239   6.438  0.2822 -0.1552 -0.4900
28890SOL     OW93719   1.883   4.304   2.860  0.0073 -0.2699 -0.2425
28890SOL    HW193720   1.839   4.219   2.869 -1.6266  0.6108  0.5312
28890SOL    HW293721   1.820   4.359   2.814  0.3335  1.0138  0.7879
28891SOL     OW93722   5.651   1.209   8.800 -0.5103 -0.3225  0.0796
28891SOL    HW193723   5.582   1.263   8.838 -1.3164 -1.3404  0.1026
28891SOL    HW293724   5.633   1.120   8.833  1.0716 -0.5444  0.4518
28892SOL     OW93725   6.557  11.124   6.492 -0.5407  0.0105  0.5624
28892SOL    HW193726   6.548  11.158   6.580  0.2920  0.4241  0.5036
28892SOL    HW293727   6.609  11.190   6.446 -1.1569 -0.0956 -0.2976
28893SOL     OW93728   6.548   1.687   2.888  1.0112  0.2259 -0.4733
28893SOL    HW193729   6.508   1.728   2.964  0.2881  0.6808 -1.0937
28893SOL    HW293730   6.511   1.733   2.813  1.3396 -0.5487 -1.1238
28894SOL     OW93731   8.351   1.203   6.176  0.0806  0.2820  0.2558
28894SOL    HW193732   8.280   1.266   6.165 -0.9553 -0.7891  0.5093
28894SOL    HW293733   8.427   1.256   6.199 -0.1780  1.6325 -1.7161
28895SOL     OW93734   2.132  10.915  11.158  0.1628  0.2607 -0.9646
28895SOL    HW193735   2.204  10.971  11.188  0.0501 -0.4368  0.6804
28895SOL    HW293736   2.056  10.975  11.154  0.5088  0.6845 -1.3297
28896SOL     OW93737   9.783   0.408   4.881  0.0600 -0.6300  0.4343
28896SOL    HW193738   9.740   0.361   4.952 -0.6938 -0.9205 -0.2015
28896SOL    HW293739   9.831   0.340   4.834  0.5286 -0.4436  0.6370
28897SOL     OW93740  11.273   9.158   9.568 -0.3918 -0.3969  0.3711
28897SOL    HW193741  11.196   9.133   9.619 -0.4454 -1.2593 -0.1216
28897SOL    HW293742  11.278   9.094   9.498 -1.2930  1.7454 -1.7781
28898SOL     OW93743   9.631   2.604   9.129  0.0637  0.2741 -0.0705
28898SOL    HW193744   9.672   2.557   9.056  0.0206  0.5951 -0.3007
28898SOL    HW293745   9.653   2.551   9.206 -0.5503 -0.4978 -0.4044
28899SOL     OW93746   8.008   4.650   7.103 -0.2282 -0.4755 -0.4341
28899SOL    HW193747   8.013   4.671   7.009 -0.1363 -0.8709 -0.5164
28899SOL    HW293748   8.093   4.677   7.137  0.0913 -1.2147 -0.6415
28900SOL     OW93749   5.914   9.400  10.289 -0.1299  0.1401  0.2067
28900SOL    HW193750   5.973   9.475  10.282  0.7266 -0.6362 -2.1722
28900SOL    HW293751   5.965   9.334  10.336  0.4154 -0.0740 -0.6705
28901SOL     OW93752   1.455   8.909   4.752  0.0459 -0.1792 -0.3976
28901SOL    HW193753   1.549   8.924   4.761  0.1247 -1.0602  0.4009
28901SOL    HW293754   1.449   8.836   4.690 -0.1124 -0.1552 -0.4097
28902SOL     OW93755   9.028  12.183   8.172  1.0492 -0.2449  0.4374
28902SOL    HW193756   8.971  12.127   8.225 -0.0326 -0.0313 -0.4631
28902SOL    HW293757   9.102  12.127   8.148  0.3225 -1.0842  0.1243
28903SOL     OW93758   5.025   4.588   4.175  0.4709  0.1995  0.4059
28903SOL    HW193759   4.967   4.663   4.190 -1.4507 -1.2837  0.6996
28903SOL    HW293760   5.016   4.570   4.081 -0.7744 -0.9692  0.7296
28904SOL     OW93761   6.075   5.756   7.423  0.3103 -0.3132  0.4071
28904SOL    HW193762   6.132   5.687   7.459 -0.4795 -1.0142  0.3358
28904SOL    HW293763   6.078   5.742   7.328  0.0839 -0.3007  0.3985
28905SOL     OW93764   0.848   2.528   3.567 -0.3180 -0.3218 -0.1930
28905SOL    HW193765   0.859   2.433   3.572  2.3811 -0.0456  0.6352
28905SOL    HW293766   0.880   2.552   3.480  1.2169  0.0212  0.4385
28906SOL     OW93767   5.741   9.996   3.086 -0.0683  0.0176 -0.0338
28906SOL    HW193768   5.804  10.025   3.020 -0.6405 -0.6296 -0.8795
28906SOL    HW293769   5.741   9.900   3.079 -1.4445  0.0203 -0.3436
28907SOL     OW93770   1.384   2.917   4.443 -0.1611  0.5215 -0.3593
28907SOL    HW193771   1.316   2.956   4.389 -0.3260  0.3577 -0.2748
28907SOL    HW293772   1.373   2.958   4.529 -2.2396 -1.7347  0.5923
28908SOL     OW93773   8.754   7.667   7.087  0.5793 -0.2970  0.5488
28908SOL    HW193774   8.671   7.714   7.085  1.3073  1.1855  1.9780
28908SOL    HW293775   8.820   7.736   7.085  1.8655 -1.4765 -1.8753
28909SOL     OW93776   6.190   2.637   7.600 -0.3753  0.2212  0.2131
28909SOL    HW193777   6.256   2.580   7.559 -0.3004  0.2629  0.2741
28909SOL    HW293778   6.239   2.717   7.621 -0.5074  0.3546  0.0191
28910SOL     OW93779   7.427   4.535   3.727  0.0536  0.1836  0.4466
28910SOL    HW193780   7.464   4.450   3.754 -0.2281 -0.6458 -1.6149
28910SOL    HW293781   7.346   4.512   3.681 -0.7018  1.6824  0.9716
28911SOL     OW93782   6.574   0.540   7.011  0.1816 -0.4954  0.4040
28911SOL    HW193783   6.555   0.465   7.068 -0.0530 -1.4056 -0.8141
28911SOL    HW293784   6.509   0.534   6.941  0.1504  0.8841  0.2868
28912SOL     OW93785   4.995  12.033  10.252  0.3994 -0.0112 -0.4090
28912SOL    HW193786   5.083  12.044  10.286 -0.2319  0.8851  1.0596
28912SOL    HW293787   4.946  12.108  10.288 -1.1733 -0.9932 -0.3979
28913SOL     OW93788   1.948   7.963   4.134 -0.4939 -0.2336 -0.5267
28913SOL    HW193789   1.928   8.037   4.077  1.3269  0.0010 -0.8996
28913SOL    HW293790   2.043   7.954   4.131 -0.4429 -0.9830  1.5428
28914SOL     OW93791   0.124   1.149   7.815 -0.5666  0.7622 -0.0575
28914SOL    HW193792   0.158   1.166   7.727  2.2014  1.0072  0.9810
28914SOL    HW293793   0.147   1.058   7.833 -0.4770  0.9314  0.6974
28915SOL     OW93794   4.719   0.111  11.231 -0.0866  0.3675 -0.0259
28915SOL    HW193795   4.778   0.039  11.211 -0.8837 -0.0774 -0.8836
28915SOL    HW293796   4.634   0.083  11.196 -0.3177  1.9116 -0.8257
28916SOL     OW93797   2.297   1.627  12.025 -0.3931  0.4605  0.0751
28916SOL    HW193798   2.242   1.678  12.085 -0.1091 -0.0756  0.8022
28916SOL    HW293799   2.277   1.535  12.047  0.2042  0.2634 -0.2001
28917SOL     OW93800  10.909   7.057  10.891 -0.0219  0.1990  0.2406
28917SOL    HW193801  10.839   7.118  10.870  0.0308  0.3659  0.5487
28917SOL    HW293802  10.963   7.103  10.955  1.0184  0.5354 -0.8284
28918SOL     OW93803   3.916   0.904   8.473  0.2138 -0.2570 -0.5363
28918SOL    HW193804   3.838   0.944   8.512 -0.2009  0.4634 -1.9994
28918SOL    HW293805   3.941   0.964   8.403  2.4973 -0.1565  0.2849
28919SOL     OW93806   1.768  12.299   2.823 -0.0496  0.0009  0.5431
28919SOL    HW193807   1.703  12.285   2.755 -0.5722 -0.7050  1.1657
28919SOL    HW293808   1.750  12.386   2.858 -0.2993  0.0291  0.3392
28920SOL     OW93809   4.700  10.368   0.609  0.2963 -0.1819  0.0594
28920SOL    HW193810   4.779  10.398   0.563 -0.1535  1.4209  0.2522
28920SOL    HW293811   4.726  10.365   0.701  0.0541  0.6745  0.1621
28921SOL     OW93812   9.995  10.956  11.424  0.0972 -0.2629  0.2490
28921SOL    HW193813  10.030  10.884  11.373  0.6366  0.2904 -0.1862
28921SOL    HW293814  10.042  10.951  11.508  0.4932 -0.1182  0.0350
28922SOL     OW93815   8.807   9.172   5.269 -0.2014  1.0536 -0.0261
28922SOL    HW193816   8.883   9.211   5.312  0.7723 -1.2299  0.5107
28922SOL    HW293817   8.741   9.166   5.338  0.2606  0.2656  0.3755
28923SOL     OW93818   6.995   3.176   9.640  0.4818  0.2126 -0.0956
28923SOL    HW193819   6.920   3.152   9.694  0.0716  0.2541 -0.6479
28923SOL    HW293820   7.036   3.249   9.687 -0.9106  1.4494 -0.7259
28924SOL     OW93821  12.589   0.233   9.001  0.0417  0.3963 -0.2502
28924SOL    HW193822  12.678   0.210   8.973 -0.6339  0.0213 -2.2869
28924SOL    HW293823  12.578   0.323   8.972  0.1426  0.8674  1.1016
28925SOL     OW93824   7.373   6.332   0.466  0.5510  0.3217  0.5463
28925SOL    HW193825   7.292   6.282   0.457  0.0266  1.4792 -2.0495
28925SOL    HW293826   7.357   6.388   0.542 -1.4193  0.9836 -0.2640
28926SOL     OW93827  11.425   6.832  11.463 -0.1761 -0.2107 -0.1391
28926SOL    HW193828  11.427   6.741  11.432 -0.6913 -0.4723  0.5552
28926SOL    HW293829  11.416   6.884  11.384 -0.9672 -0.8375 -0.4813
28927SOL     OW93830   1.981   4.531   6.153 -0.3175 -0.4898  0.1383
28927SOL    HW193831   1.923   4.542   6.228 -0.0690 -0.2086  0.2908
28927SOL    HW293832   1.971   4.439   6.128  0.1291 -0.7740  0.9624
28928SOL     OW93833  11.474   7.148   1.332  0.3445  0.2642 -0.1207
28928SOL    HW193834  11.488   7.196   1.414 -0.6075 -1.1218  0.8839
28928SOL    HW293835  11.563   7.133   1.299  0.7006  3.1248 -0.7910
28929SOL     OW93836  10.654   5.023   7.519 -0.4697 -0.2656 -0.2859
28929SOL    HW193837  10.608   4.943   7.543 -1.1839  0.3508  0.4065
28929SOL    HW293838  10.613   5.051   7.437  0.4156 -1.0960 -1.0507
28930SOL     OW93839   9.098   3.460   5.392 -0.3371 -0.4637 -0.0180
28930SOL    HW193840   9.039   3.414   5.451  0.0986 -0.1199  0.7000
28930SOL    HW293841   9.169   3.397   5.375 -0.3649 -0.4936 -0.0242
28931SOL     OW93842   5.441   7.644  10.043  0.4714  0.1853  0.1300
28931SOL    HW193843   5.484   7.589   9.977  0.5868  1.5605 -0.9876
28931SOL    HW293844   5.501   7.717  10.057  0.4413 -0.0751  1.7852
28932SOL     OW93845   6.788   0.921   7.287 -0.0344  0.3257  0.0992
28932SOL    HW193846   6.702   0.960   7.274 -0.0380  0.1073 -0.6053
28932SOL    HW293847   6.799   0.862   7.212  1.4337  1.6219 -0.7919
28933SOL     OW93848   1.349   5.959   7.985  0.1017 -0.0385  0.1755
28933SOL    HW193849   1.313   5.950   8.073  0.2404  0.1812  0.2550
28933SOL    HW293850   1.426   5.902   7.985 -0.2453 -0.5107  0.0042
28934SOL     OW93851   6.028   9.249   7.942  0.3984 -0.1105 -0.1066
28934SOL    HW193852   5.956   9.223   8.000  0.0319 -1.9246 -1.3066
28934SOL    HW293853   6.107   9.234   7.994  0.0109 -0.1224  0.4888
28935SOL     OW93854   6.937   9.882  11.763 -0.2896  0.2093  0.5471
28935SOL    HW193855   6.995   9.820  11.719 -1.5868 -0.7238  0.0871
28935SOL    HW293856   6.988   9.914  11.837  0.8904 -0.3951  0.0186
28936SOL     OW93857  11.802   1.109   3.965  0.2052 -0.1265 -0.4362
28936SOL    HW193858  11.706   1.107   3.967  0.1073  1.9172  1.0472
28936SOL    HW293859  11.828   1.084   4.054  0.9409  1.0410 -0.2983
28937SOL     OW93860   8.638   2.507  12.247 -0.5581  0.4979  0.5742
28937SOL    HW193861   8.558   2.481  12.203  0.5173 -1.5623 -0.3282
28937SOL    HW293862   8.624   2.481  12.339 -0.2977 -1.5684  0.0775
28938SOL     OW93863   9.138  10.800   1.380 -0.2502 -0.4220 -0.7766
28938SOL    HW193864   9.154  10.708   1.362 -0.2299 -0.2229 -1.8482
28938SOL    HW293865   9.157  10.844   1.297 -0.0491  0.5702 -0.2189
28939SOL     OW93866  12.264   7.663   8.103  0.1755 -0.0358  0.2321
28939SOL    HW193867  12.340   7.715   8.128 -1.1704  0.8141  2.9188
28939SOL    HW293868  12.297   7.573   8.096  1.4171  0.3154  1.3057
28940SOL     OW93869   0.198   4.447   4.590 -0.1827 -0.0555 -0.5801
28940SOL    HW193870   0.219   4.497   4.511 -0.4725  0.4293 -0.3527
28940SOL    HW293871   0.227   4.502   4.662  0.2528 -0.5769 -0.3460
28941SOL     OW93872   5.987   9.132  10.586 -0.1483 -0.0179 -0.3092
28941SOL    HW193873   5.999   9.227  10.585 -0.6828  0.0695  0.1920
28941SOL    HW293874   6.007   9.107  10.676 -2.0104 -0.0682  0.1437
28942SOL     OW93875   9.436  11.870  10.145 -0.1480 -0.3835 -0.0163
28942SOL    HW193876   9.454  11.778  10.161 -0.7630 -0.6758 -0.9773
28942SOL    HW293877   9.477  11.889  10.061 -0.6712  0.0224 -0.1842
28943SOL     OW93878   2.457   9.055   2.547 -0.1924  0.3627 -0.1978
28943SOL    HW193879   2.516   9.078   2.476 -0.5769  0.1986 -0.5739
28943SOL    HW293880   2.385   9.008   2.505  0.6085 -1.6557  0.5317
28944SOL     OW93881  10.192   7.878   6.609  0.2099  0.3373 -0.1565
28944SOL    HW193882  10.156   7.910   6.526 -1.0559  0.1639  0.3145
28944SOL    HW293883  10.184   7.782   6.603 -1.1245  0.3718  0.6900
28945SOL     OW93884  11.484   1.421   0.799 -0.0994 -0.0911 -0.7122
28945SOL    HW193885  11.406   1.470   0.827  1.2754  2.6736 -1.4213
28945SOL    HW293886  11.558   1.476   0.826  1.6154 -2.1928 -0.8699
28946SOL     OW93887   3.630   3.296   8.844 -0.0214  0.2301 -0.6291
28946SOL    HW193888   3.535   3.293   8.855  0.1644 -1.4158  0.9748
28946SOL    HW293889   3.664   3.231   8.906  2.0966 -0.0138 -1.9315
28947SOL     OW93890   2.741   2.110  11.329 -0.3461  0.4612 -0.4069
28947SOL    HW193891   2.828   2.114  11.291 -0.9012 -0.9035 -1.9180
28947SOL    HW293892   2.697   2.189  11.297  0.6145  1.7452  1.2583
28948SOL     OW93893   7.787   8.428  11.502 -0.3279 -0.3853 -0.2830
28948SOL    HW193894   7.751   8.433  11.591 -1.1140 -1.8952 -0.4881
28948SOL    HW293895   7.873   8.469  11.509  0.1813 -1.6407  1.4901
28949SOL     OW93896   7.479   4.767   6.955 -0.5161  0.0706 -0.2392
28949SOL    HW193897   7.515   4.793   7.040 -1.1351  1.4190 -0.3526
28949SOL    HW293898   7.424   4.691   6.974  0.5458 -0.5733  0.3073
28950SOL     OW93899  10.103  11.580   5.794  0.7812 -0.2385 -0.3436
28950SOL    HW193900  10.128  11.530   5.872  0.4553  1.6645  1.0652
28950SOL    HW293901  10.059  11.516   5.738  0.0167 -1.4654  1.5462
28951SOL     OW93902   8.599   8.401  11.333 -0.6587  0.0537 -0.1713
28951SOL    HW193903   8.631   8.312  11.353 -1.1087  0.1559  1.1178
28951SOL    HW293904   8.657   8.432  11.263 -0.5830 -1.3042 -0.7410
28952SOL     OW93905   5.100   3.664   0.827  0.3329  0.3028 -0.2253
28952SOL    HW193906   5.025   3.720   0.807  0.5951  0.9243  0.4997
28952SOL    HW293907   5.118   3.619   0.744  0.4688  1.7024 -1.0003
28953SOL     OW93908   8.819   2.736   0.110 -0.1615  0.0074 -0.3079
28953SOL    HW193909   8.729   2.756   0.085 -0.0584  0.8061 -0.0623
28953SOL    HW293910   8.870   2.745   0.030 -0.4868 -1.7631 -0.7485
28954SOL     OW93911   1.044   7.440   2.097 -0.2315 -0.1077 -0.1062
28954SOL    HW193912   0.977   7.385   2.056  1.8315 -1.5688 -1.7291
28954SOL    HW293913   1.051   7.405   2.186 -0.1840 -1.3517 -0.5687
28955SOL     OW93914  10.866   3.424   4.826 -0.0568  0.3360  0.3710
28955SOL    HW193915  10.932   3.489   4.802 -1.5835  1.1017 -2.1694
28955SOL    HW293916  10.803   3.472   4.881  0.0871  0.3324  0.5394
28956SOL     OW93917   7.003   4.318  10.845  0.0120  0.5282  0.0414
28956SOL    HW193918   7.014   4.383  10.776  1.6384  0.2567  0.0245
28956SOL    HW293919   7.038   4.360  10.923 -0.0934  0.1282  0.3085
28957SOL     OW93920   2.735   2.947   8.783  0.3997  0.1898  0.3619
28957SOL    HW193921   2.732   2.952   8.688  1.7262 -0.3577  0.2795
28957SOL    HW293922   2.826   2.963   8.806  0.5710 -1.8925  1.3842
28958SOL     OW93923  11.448  11.052   9.736  0.6943 -0.0693 -0.2037
28958SOL    HW193924  11.367  11.010   9.763  0.5844  1.6050  2.3603
28958SOL    HW293925  11.515  10.983   9.745 -0.1263 -0.9516 -0.6329
28959SOL     OW93926   4.218   3.702  11.992  0.2522  0.0919  0.1747
28959SOL    HW193927   4.128   3.735  11.990  0.8246  1.6828 -1.0159
28959SOL    HW293928   4.216   3.626  11.933 -0.6372 -0.9427  1.4528
28960SOL     OW93929   9.047   5.635   5.271  0.1246  0.2999 -0.1796
28960SOL    HW193930   9.111   5.625   5.200 -0.1585  1.8041 -0.6785
28960SOL    HW293931   9.088   5.696   5.332  0.2118 -0.7067  0.8021
28961SOL     OW93932   8.955   1.459  11.967  0.6031  0.0390 -0.3234
28961SOL    HW193933   8.921   1.473  11.879  0.5411 -0.8334 -0.4414
28961SOL    HW293934   8.936   1.368  11.987 -0.6447  0.5819  1.1493
28962SOL     OW93935  11.371   1.032   4.754 -0.4671 -0.0217  0.1643
28962SOL    HW193936  11.317   1.110   4.762 -0.5643 -0.0960  0.2303
28962SOL    HW293937  11.422   1.046   4.675 -0.2627  0.2464  0.3423
28963SOL     OW93938   7.218   2.962   4.664 -0.6424 -0.2391 -0.4571
28963SOL    HW193939   7.240   3.047   4.702  0.1718 -0.2328 -0.9109
28963SOL    HW293940   7.170   2.916   4.733  1.9814 -0.7786  1.1475
28964SOL     OW93941   3.494   0.589  10.928  0.2162 -0.0291 -0.7962
28964SOL    HW193942   3.556   0.517  10.915 -0.6613 -1.4099  1.8958
28964SOL    HW293943   3.540   0.651  10.985 -0.5102 -0.6889  0.5735
28965SOL     OW93944   4.390   0.657   6.022  0.2475  0.4143 -0.1496
28965SOL    HW193945   4.370   0.593   6.089 -0.3748 -0.5054 -1.1749
28965SOL    HW293946   4.395   0.740   6.068 -1.1390 -0.0425  0.8822
28966SOL     OW93947   5.301  10.295   7.572 -0.0350 -0.0590  0.4599
28966SOL    HW193948   5.390  10.263   7.583 -0.4582 -1.4935 -0.1171
28966SOL    HW293949   5.288  10.354   7.646  1.4873  0.4240  0.3833
28967SOL     OW93950   9.432   3.388   1.355  0.0511  0.1604  0.4886
28967SOL    HW193951   9.355   3.444   1.341  0.3892  0.3784 -0.5587
28967SOL    HW293952   9.478   3.428   1.429 -0.2913  0.6173  0.4572
28968SOL     OW93953   0.683  11.392   9.022  0.5259 -0.1949 -0.2985
28968SOL    HW193954   0.747  11.435   8.965 -0.6126  0.8358 -0.8628
28968SOL    HW293955   0.627  11.343   8.962 -0.0705  0.0799  0.0182
28969SOL     OW93956   9.393   8.622   3.241 -0.0665  0.4465  0.3464
28969SOL    HW193957   9.343   8.544   3.265  2.0662 -0.6896  1.3231
28969SOL    HW293958   9.376   8.634   3.147 -1.1730 -0.6079  0.3920
28970SOL     OW93959   1.730   4.734   0.321  0.4545 -0.3041 -0.5473
28970SOL    HW193960   1.680   4.725   0.402 -0.9913 -1.5756 -1.5139
28970SOL    HW293961   1.809   4.683   0.336  1.3783  1.4410  0.8845
28971SOL     OW93962  11.307   4.697   9.501 -0.1098  0.2853  0.4077
28971SOL    HW193963  11.385   4.676   9.552  1.1347  0.5122 -1.3419
28971SOL    HW293964  11.263   4.612   9.490  1.2716 -0.3306 -0.7649
28972SOL     OW93965  12.197   5.375   6.068 -0.7526 -0.1098  0.1270
28972SOL    HW193966  12.149   5.455   6.046 -0.7644  0.6761  2.6948
28972SOL    HW293967  12.268   5.404   6.124 -0.8234 -1.9053  1.2208
28973SOL     OW93968   0.238   0.259   1.481 -0.0656 -0.3796  0.5189
28973SOL    HW193969   0.327   0.252   1.514 -0.4983 -0.2284  1.7750
28973SOL    HW293970   0.219   0.172   1.445  0.2862 -0.6660  1.0188
28974SOL     OW93971   8.353   5.282   4.910 -0.3738  0.1442  0.6732
28974SOL    HW193972   8.402   5.296   4.991 -0.7287 -1.0559  1.1116
28974SOL    HW293973   8.410   5.228   4.856 -0.8523 -0.5438  0.8446
28975SOL     OW93974  11.310   3.050   7.664 -0.1543  0.2749  0.3268
28975SOL    HW193975  11.307   3.112   7.737 -1.5037 -0.8587  1.2796
28975SOL    HW293976  11.378   2.987   7.689 -1.4156 -0.7759  1.1926
28976SOL     OW93977   6.091   3.585  10.487  0.1750 -0.5120 -0.1805
28976SOL    HW193978   6.055   3.670  10.513  1.3066 -0.1759  0.3207
28976SOL    HW293979   6.175   3.579  10.532  2.2610  0.0732 -3.6148
28977SOL     OW93980   6.097   3.007   7.045  0.1067 -0.5004  0.2075
28977SOL    HW193981   6.145   2.996   6.963 -1.5019  0.6613 -0.9606
28977SOL    HW293982   6.140   3.081   7.088  0.3448 -0.4760 -0.0666
28978SOL     OW93983   8.605   9.519   6.960  0.1983 -0.0969  0.0460
28978SOL    HW193984   8.538   9.512   7.028 -0.8970 -0.6118 -1.0705
28978SOL    HW293985   8.687   9.496   7.005 -0.5774 -0.9226  1.0699
28979SOL     OW93986   9.897   7.592   6.946 -0.2055 -0.3022  0.5402
28979SOL    HW193987   9.877   7.498   6.936  2.5088 -1.0426  1.1381
28979SOL    HW293988   9.992   7.596   6.942 -0.0353  2.0663  3.5933
28980SOL     OW93989   0.434   2.168   7.893 -0.1319 -0.6156  0.7539
28980SOL    HW193990   0.438   2.233   7.823 -0.2702 -1.8260 -0.3978
28980SOL    HW293991   0.525   2.151   7.915 -0.0949  0.0935  1.2176
28981SOL     OW93992   4.570   6.789  11.797  0.5680 -0.1835 -0.4296
28981SOL    HW193993   4.661   6.784  11.826  0.1243 -2.3934  0.8478
28981SOL    HW293994   4.559   6.713  11.739 -0.6748 -0.5405  0.2356
28982SOL     OW93995   3.514  12.090   8.640 -0.2304  0.1472  0.4630
28982SOL    HW193996   3.533  12.101   8.547  1.4911  0.0076  0.7568
28982SOL    HW293997   3.492  11.997   8.650 -3.0616  0.6539 -0.1659
28983SOL     OW93998   1.870   7.472   2.821  0.2301 -0.2400 -0.7084
28983SOL    HW193999   1.926   7.394   2.816  0.7324 -0.0889  1.4055
28983SOL    HW294000   1.931   7.546   2.814 -0.0848 -0.0452 -1.4097
28984SOL     OW94001   4.592   2.268   2.219 -0.4216  0.6723 -0.5600
28984SOL    HW194002   4.664   2.331   2.214 -0.0666  0.3902  0.8491
28984SOL    HW294003   4.625   2.189   2.176  0.6524  0.0600  1.3143
28985SOL     OW94004   9.441   4.427   2.269  0.1968 -0.0568  0.2257
28985SOL    HW194005   9.523   4.383   2.244 -0.6253 -1.4437 -0.1056
28985SOL    HW294006   9.439   4.506   2.215  0.9124 -0.4371 -0.3753
28986SOL     OW94007   6.142   1.950   7.741  0.2552  0.3587 -0.0141
28986SOL    HW194008   6.048   1.968   7.746 -1.0946 -4.1531 -2.7020
28986SOL    HW294009   6.161   1.901   7.821 -0.0605  0.0713 -0.1120
28987SOL     OW94010  10.073   5.161  11.981  0.2048  0.4488 -0.0663
28987SOL    HW194011  10.143   5.117  11.932  0.6723 -0.7041  1.5629
28987SOL    HW294012  10.118   5.223  12.038 -0.1383  0.1985  0.4913
28988SOL     OW94013   3.370   1.351   7.335 -0.1249 -0.2474  0.4280
28988SOL    HW194014   3.321   1.274   7.365 -0.3165 -1.1127 -1.8358
28988SOL    HW294015   3.335   1.367   7.247  3.4310 -0.7919 -1.2663
28989SOL     OW94016   1.839   1.091   3.673 -0.2274 -0.0087  0.0951
28989SOL    HW194017   1.867   1.160   3.732 -1.7715  0.5584  0.2136
28989SOL    HW294018   1.884   1.012   3.705  0.3359  0.6307  0.9159
28990SOL     OW94019   4.189   0.178   9.441 -0.0190 -0.1124 -0.2722
28990SOL    HW194020   4.179   0.226   9.523 -1.0457 -0.3505 -0.2342
28990SOL    HW294021   4.172   0.244   9.373  2.9883  0.6226 -0.4266
28991SOL     OW94022   4.992   8.022   5.538 -0.0322 -0.3668 -0.5508
28991SOL    HW194023   4.942   7.964   5.481 -3.0670  1.2171  0.2771
28991SOL    HW294024   4.957   8.006   5.625  0.6036  1.1140  0.0104
28992SOL     OW94025  11.838   3.590   0.042  0.0552  0.3162  0.2911
28992SOL    HW194026  11.792   3.582  -0.042 -1.1475 -0.2608  0.9689
28992SOL    HW294027  11.930   3.581   0.020 -0.2913 -0.6862 -0.8731
28993SOL     OW94028   3.687   5.323  12.135  0.0504 -0.2580  0.6432
28993SOL    HW194029   3.631   5.398  12.152  1.0445  0.5149  0.5529
28993SOL    HW294030   3.625   5.252  12.113 -0.8921  0.5058  0.7597
28994SOL     OW94031   9.523   2.069   0.410 -0.0630  0.1568 -0.1057
28994SOL    HW194032   9.455   2.059   0.343 -0.9602 -1.7535  1.0422
28994SOL    HW294033   9.476   2.099   0.488  0.5206 -0.4351  0.4828
28995SOL     OW94034   4.730   5.617   4.987 -0.0605  0.0684 -0.0259
28995SOL    HW194035   4.744   5.710   5.003 -1.1130  0.2491 -0.0880
28995SOL    HW294036   4.763   5.602   4.899  0.8833  0.2017  0.3009
28996SOL     OW94037   6.096   8.660   0.928  0.0743  0.2192 -0.3212
28996SOL    HW194038   6.084   8.754   0.912  2.6078  0.7408  0.4655
28996SOL    HW294039   6.056   8.618   0.852  0.4058  2.0209 -1.5674
28997SOL     OW94040   4.199   8.450   0.546  0.4062 -0.0673 -0.7490
28997SOL    HW194041   4.128   8.515   0.549  0.0756 -0.4076  2.4815
28997SOL    HW294042   4.160   8.374   0.504 -0.5341  0.4014 -0.7632
28998SOL     OW94043   1.767  10.811   3.825 -0.2281  0.4506 -0.1826
28998SOL    HW194044   1.676  10.790   3.842 -0.6833  3.0409  1.1181
28998SOL    HW294045   1.764  10.898   3.784  1.6148  0.2557 -0.8261
28999SOL     OW94046   8.849  11.684   7.964  0.0787  0.2495 -0.9233
28999SOL    HW194047   8.797  11.697   7.885 -1.8929  0.8373  0.3784
28999SOL    HW294048   8.791  11.635   8.023  1.6694 -0.6061 -0.0065
29000SOL     OW94049   4.498   2.609  10.115  0.3102 -0.1957 -0.0598
29000SOL    HW194050   4.582   2.576  10.147  0.6666  0.6846 -0.0417
29000SOL    HW294051   4.434   2.543  10.142  1.0981 -1.2845 -0.7987
29001SOL     OW94052   8.676   4.419   8.687 -0.3032  0.2421  0.0993
29001SOL    HW194053   8.669   4.324   8.696 -1.6793  0.4285  1.6237
29001SOL    HW294054   8.706   4.449   8.773 -2.6450  1.3586  0.6161
29002SOL     OW94055   9.216   6.174   9.943 -0.4693 -0.2431 -0.2886
29002SOL    HW194056   9.270   6.200   9.869 -1.1008  1.1580 -0.2895
29002SOL    HW294057   9.154   6.247   9.954 -1.0369 -0.8906  0.9710
29003SOL     OW94058  11.760   3.115   7.986 -0.4509 -0.4074 -0.3022
29003SOL    HW194059  11.678   3.066   7.976 -0.9710  0.5839 -1.0252
29003SOL    HW294060  11.755   3.184   7.920  0.3608  0.4824  0.5306
29004SOL     OW94061   9.865   3.567   2.434 -0.0347  0.0965 -0.0454
29004SOL    HW194062   9.776   3.586   2.405  0.6247  0.9070 -1.7003
29004SOL    HW294063   9.908   3.653   2.437 -0.0406  0.1068  3.6296
29005SOL     OW94064   9.095   7.780   6.762  0.2853 -0.0083  0.2042
29005SOL    HW194065   9.144   7.706   6.798  0.3780  0.3260  0.7781
29005SOL    HW294066   9.005   7.765   6.791  0.5273  0.7524  1.3871
29006SOL     OW94067   1.208   4.611   8.974 -0.0649  0.7224  0.0222
29006SOL    HW194068   1.285   4.578   8.928 -1.4314 -0.8793 -1.2417
29006SOL    HW294069   1.232   4.605   9.067  0.8393 -1.0982 -0.2787
29007SOL     OW94070   6.585   8.718   6.596  0.7874  0.2154  0.2508
29007SOL    HW194071   6.631   8.676   6.524  0.0364  0.9580 -0.7024
29007SOL    HW294072   6.634   8.694   6.674  2.6487  0.8055 -0.6855
29008SOL     OW94073   3.173  11.194   6.511  0.6080  0.1235  0.1702
29008SOL    HW194074   3.173  11.104   6.479 -0.4982 -0.5520  1.9687
29008SOL    HW294075   3.170  11.247   6.431 -1.0023 -1.4551 -0.9007
29009SOL     OW94076   3.110   2.880   0.652 -0.4616 -0.3453 -0.8715
29009SOL    HW194077   3.078   2.790   0.655 -0.6800 -0.2459  0.6830
29009SOL    HW294078   3.100   2.912   0.742 -0.3335  1.2179 -1.3827
29010SOL     OW94079   9.731   7.609   3.657 -0.6269 -0.1757 -0.6233
29010SOL    HW194080   9.780   7.602   3.739 -0.3246 -1.5694 -0.8969
29010SOL    HW294081   9.658   7.548   3.668 -0.2849 -0.7832 -1.5822
29011SOL     OW94082   5.150   9.457   5.534 -0.0276 -0.2381  0.8636
29011SOL    HW194083   5.094   9.379   5.524 -1.4478  0.6745  1.3538
29011SOL    HW294084   5.095   9.529   5.503  1.5612  0.4946 -0.3440
29012SOL     OW94085   2.029   1.700   4.034  0.3795 -0.9170  0.7930
29012SOL    HW194086   2.066   1.747   4.109  0.2179 -1.0386  0.9489
29012SOL    HW294087   1.935   1.719   4.038  0.3265 -1.1764  0.8026
29013SOL     OW94088   6.440   4.707  11.058 -0.1070 -0.1211  0.2699
29013SOL    HW194089   6.502   4.644  11.095  0.7770  1.2467  1.1990
29013SOL    HW294090   6.389   4.738  11.133 -0.0743  0.7597 -0.0659
29014SOL     OW94091   0.743   4.189   9.602  0.3843  0.2552  0.1848
29014SOL    HW194092   0.807   4.118   9.596  2.0112  1.5457  1.1772
29014SOL    HW294093   0.793   4.263   9.636 -1.0354  2.1406 -1.5616
29015SOL     OW94094   6.938   2.220   1.685  0.0206  0.8132  0.2919
29015SOL    HW194095   6.989   2.260   1.755 -0.4885  1.5825  0.2360
29015SOL    HW294096   6.968   2.264   1.605  1.6864 -1.0952 -0.2289
29016SOL     OW94097   2.026   0.595   2.519 -0.1605  0.5246 -0.5034
29016SOL    HW194098   2.010   0.554   2.434  0.4743 -2.1913  0.5822
29016SOL    HW294099   1.950   0.572   2.572  1.1769 -1.2919  0.7842
29017SOL     OW94100  10.613   3.256   6.788  0.2140 -0.3937  0.6229
29017SOL    HW194101  10.611   3.329   6.726 -3.6456 -1.8445 -1.2743
29017SOL    HW294102  10.668   3.288   6.860  1.8889  2.8166 -1.7892
29018SOL     OW94103   3.445  11.090   2.673  1.0665 -0.0646  0.2167
29018SOL    HW194104   3.395  11.142   2.610  1.7855  1.5961  0.9460
29018SOL    HW294105   3.444  11.001   2.637  0.7917  0.6641 -1.7103
29019SOL     OW94106   0.861   1.081   1.443  0.2653  0.5103 -0.3389
29019SOL    HW194107   0.820   1.010   1.493  0.0257  0.3974 -0.6923
29019SOL    HW294108   0.788   1.125   1.399  0.5032  0.3971 -0.8605
29020SOL     OW94109   2.561   8.549   4.553 -0.1277  0.5460 -0.0709
29020SOL    HW194110   2.612   8.494   4.612  0.8001  1.0866 -0.3500
29020SOL    HW294111   2.499   8.489   4.511 -1.0097  0.2017  1.6537
29021SOL     OW94112   3.896  10.874   7.970 -0.2155 -0.1016 -0.1793
29021SOL    HW194113   3.941  10.942   8.018 -0.7742 -0.7973  1.3834
29021SOL    HW294114   3.966  10.824   7.928  0.1743  1.7960 -1.9557
29022SOL     OW94115   1.690   3.551   4.092 -0.3607  0.1679  0.4335
29022SOL    HW194116   1.701   3.638   4.053 -1.1414 -1.0133 -2.6667
29022SOL    HW294117   1.630   3.505   4.033  1.9774 -3.3553  0.4967
29023SOL     OW94118  11.964   3.169  10.224 -0.0669 -0.0989  0.3871
29023SOL    HW194119  11.899   3.100  10.231 -2.0317  1.7586  1.6969
29023SOL    HW294120  11.995   3.182  10.314  1.9633 -0.7430 -0.1677
29024SOL     OW94121   9.320   6.209   4.246  0.8646  0.3989 -0.5288
29024SOL    HW194122   9.364   6.125   4.240  0.4881  0.0927  0.6924
29024SOL    HW294123   9.233   6.188   4.281  0.3284  1.1725 -1.3294
29025SOL     OW94124  11.738   6.752   2.599  0.2842 -0.8764  0.1304
29025SOL    HW194125  11.664   6.756   2.660 -0.3769  2.7666 -0.6891
29025SOL    HW294126  11.793   6.826   2.623  0.7558 -0.1805 -2.7406
29026SOL     OW94127   3.914  10.944   6.526  0.1257  0.6815 -0.1078
29026SOL    HW194128   3.942  10.855   6.551  1.5209  1.3452  0.8299
29026SOL    HW294129   3.824  10.950   6.558  0.8424  0.4444  2.1794
29027SOL     OW94130   6.253   7.920   9.432 -0.0125  0.4493  0.0672
29027SOL    HW194131   6.233   8.012   9.450  0.9164  0.6663  0.0324
29027SOL    HW294132   6.256   7.914   9.337  0.5067  0.5212  0.0744
29028SOL     OW94133   8.669  12.060  11.525  0.3694 -0.4316 -0.6902
29028SOL    HW194134   8.754  12.067  11.481  1.4342  0.6919  1.3768
29028SOL    HW294135   8.605  12.078  11.457  1.9556  2.3072 -1.6136
29029SOL     OW94136   8.217   5.716  11.891  0.5027  0.2935 -0.7303
29029SOL    HW194137   8.196   5.624  11.875  2.1135 -0.1580 -0.4214
29029SOL    HW294138   8.214   5.725  11.987 -2.0335  1.2074 -0.8156
29030SOL     OW94139   3.479  12.202   9.069  0.3302 -0.1793  0.0283
29030SOL    HW194140   3.460  12.181   8.977  1.3994  1.1596 -0.5208
29030SOL    HW294141   3.574  12.202   9.074  0.3091  1.1527  0.7916
29031SOL     OW94142   2.582   5.859   9.220 -0.1067  0.5972  0.0798
29031SOL    HW194143   2.578   5.805   9.298  0.1223  1.8334  0.9839
29031SOL    HW294144   2.557   5.801   9.148 -0.1595 -0.5992  1.0471
29032SOL     OW94145   7.411   8.187   8.655 -0.6330 -0.3687  0.2827
29032SOL    HW194146   7.434   8.228   8.572  0.0195 -0.2486  0.5154
29032SOL    HW294147   7.421   8.093   8.640  2.4792 -0.2726  1.0372
29033SOL     OW94148   9.868   3.008   2.446  0.0054  0.3258  0.4889
29033SOL    HW194149   9.943   3.067   2.454  0.2000  0.2750 -0.7922
29033SOL    HW294150   9.794   3.060   2.479  0.3985  0.8069  0.6297
29034SOL     OW94151  12.375   1.910   3.370  0.6160 -0.0746  0.0328
29034SOL    HW194152  12.440   1.951   3.427  1.3423 -1.6138  0.3657
29034SOL    HW294153  12.354   1.828   3.413 -0.0563 -0.5157 -1.0919
29035SOL     OW94154   7.865   8.700   9.551  0.1413  0.4355 -0.0159
29035SOL    HW194155   7.931   8.768   9.553  0.7337 -0.1411  0.5645
29035SOL    HW294156   7.841   8.691   9.459  1.2023  0.3294 -0.2837
29036SOL     OW94157   4.623  10.610   7.447 -0.5119  0.7734  0.1963
29036SOL    HW194158   4.533  10.640   7.458 -0.6940 -0.5317  3.3287
29036SOL    HW294159   4.671  10.650   7.519  1.0109 -0.0100 -0.3282
29037SOL     OW94160   1.875   0.415   6.946  0.5131 -0.1494 -0.1164
29037SOL    HW194161   1.830   0.404   6.862  1.7716  1.6661 -1.0818
29037SOL    HW294162   1.952   0.359   6.940  1.4342  1.1611 -0.8388
29038SOL     OW94163  11.330   4.009   8.265  0.1438 -0.0962  0.8988
29038SOL    HW194164  11.248   3.960   8.260 -0.5675  1.0208  1.3445
29038SOL    HW294165  11.320   4.078   8.199  0.9392 -0.2508  0.6064
29039SOL     OW94166   0.700   2.543   7.431 -0.2021 -0.3885 -0.1761
29039SOL    HW194167   0.694   2.616   7.493  1.0430  0.5448 -1.1066
29039SOL    HW294168   0.790   2.511   7.440 -0.8414 -2.1304  0.5223
29040SOL     OW94169   0.388   3.309   3.722 -0.4683  0.3864 -0.1249
29040SOL    HW194170   0.376   3.268   3.636 -0.4180  1.1983 -0.5276
29040SOL    HW294171   0.300   3.313   3.759 -0.6483  0.9952 -0.5951
29041SOL     OW94172   1.094   2.218   3.045 -0.6799  0.5288  0.3093
29041SOL    HW194173   1.116   2.308   3.020  1.5181  0.1730  0.7199
29041SOL    HW294174   1.005   2.223   3.078 -0.6889  2.5123  0.0862
29042SOL     OW94175   6.974   1.216   1.776  0.0159  0.5656  0.1666
29042SOL    HW194176   6.947   1.292   1.724 -0.5091 -0.7969 -1.6580
29042SOL    HW294177   7.067   1.205   1.757 -0.4714 -0.7605 -1.6988
29043SOL     OW94178   3.462   6.149   8.325  0.9917  0.0760  0.8069
29043SOL    HW194179   3.433   6.224   8.274  0.3935  0.4270  1.6449
29043SOL    HW294180   3.392   6.085   8.315  1.8181 -0.6858 -0.4912
29044SOL     OW94181   7.942   8.158   6.016  0.0379 -0.1739  0.0060
29044SOL    HW194182   8.036   8.149   6.001 -0.1943 -1.5877 -0.8769
29044SOL    HW294183   7.916   8.234   5.964  0.5058 -0.5476 -0.7929
29045SOL     OW94184   4.657  12.427   9.409 -0.2657 -0.6884 -0.0949
29045SOL    HW194185   4.590  12.441   9.342  0.2353 -2.3405 -0.9991
29045SOL    HW294186   4.664  12.332   9.416 -1.4960 -0.6635  3.5694
29046SOL     OW94187   6.121   7.454  12.053 -0.5805 -0.3889  0.4218
29046SOL    HW194188   6.184   7.389  12.086 -0.5172 -1.1737 -1.1403
29046SOL    HW294189   6.171   7.506  11.990 -1.0981  0.0196  0.3430
29047SOL     OW94190   3.850   0.871  11.656  0.5042  0.7976 -0.1604
29047SOL    HW194191   3.810   0.792  11.620  1.8103 -0.6053  1.3312
29047SOL    HW294192   3.941   0.868  11.627  0.7004  1.4958  0.3488
29048SOL     OW94193   1.383   5.869   8.497  0.2883 -0.0614 -0.5123
29048SOL    HW194194   1.336   5.947   8.467  1.7650  0.5075 -1.4864
29048SOL    HW294195   1.318   5.819   8.547 -0.6183  1.9417  0.4207
29049SOL     OW94196   5.430   2.695   4.211 -0.0155 -0.4687 -0.1320
29049SOL    HW194197   5.357   2.757   4.204 -1.9425 -2.1843  2.6705
29049SOL    HW294198   5.398   2.615   4.169  0.9338 -0.7304 -0.3733
29050SOL     OW94199   2.268  10.335   5.931  0.0550  0.0040  0.2037
29050SOL    HW194200   2.195  10.325   5.869 -0.2020  0.9273  0.3439
29050SOL    HW294201   2.230  10.309   6.015  0.6054 -1.9710 -0.0987
29051SOL     OW94202  11.885   5.410   4.597  0.1227  0.2754  0.3630
29051SOL    HW194203  11.937   5.366   4.529 -0.7664 -0.4234  0.1198
29051SOL    HW294204  11.926   5.385   4.679  1.3412  1.2935  0.1065
29052SOL     OW94205   4.756   2.292   0.302  0.6129  0.6333 -0.3545
29052SOL    HW194206   4.695   2.229   0.340  0.1408  0.9817 -0.5070
29052SOL    HW294207   4.826   2.301   0.366  0.3490  0.4469 -0.0391
29053SOL     OW94208  10.116   7.687   4.719 -0.9284 -0.3345 -0.5293
29053SOL    HW194209  10.148   7.620   4.659 -1.4137 -0.4206 -0.6888
29053SOL    HW294210  10.040   7.724   4.675 -1.7416 -0.9106  0.3724
29054SOL     OW94211  10.003   3.794   4.229 -0.4128 -0.3665 -0.0691
29054SOL    HW194212   9.962   3.836   4.153 -3.1870 -0.3457  1.3231
29054SOL    HW294213  10.002   3.701   4.209 -0.3847 -0.2975 -0.3942
29055SOL     OW94214  11.255   8.940  12.131 -0.4905  0.1773  0.2548
29055SOL    HW194215  11.212   8.865  12.173 -0.5870  1.1400  1.9546
29055SOL    HW294216  11.341   8.906  12.104 -1.1432 -0.9642 -0.5301
29056SOL     OW94217   7.101   9.477   3.145 -0.4780 -0.0833 -0.5124
29056SOL    HW194218   7.130   9.397   3.189 -0.0472 -0.1742 -0.9654
29056SOL    HW294219   7.095   9.453   3.053 -2.0851 -0.1016 -0.4397
29057SOL     OW94220   2.502  10.064   2.845 -0.0150 -0.3783  0.1550
29057SOL    HW194221   2.464   9.989   2.799  0.4258 -0.0080 -0.8426
29057SOL    HW294222   2.590  10.034   2.870  0.0437 -0.3020  0.0393
29058SOL     OW94223   9.672   7.112  12.387  0.5572  0.4370 -0.0761
29058SOL    HW194224   9.735   7.166  12.338  1.6211  0.9135  1.7335
29058SOL    HW294225   9.629   7.173  12.447 -1.5781  0.0886 -1.1404
29059SOL     OW94226   1.513   1.871   1.936 -0.1062  0.7816  0.2850
29059SOL    HW194227   1.432   1.906   1.899  0.3573 -0.2969 -1.8904
29059SOL    HW294228   1.485   1.826   2.016 -1.3799  1.8581  0.4847
29060SOL     OW94229   3.148   7.594   6.369 -0.1523  0.0013 -0.1330
29060SOL    HW194230   3.093   7.591   6.447 -2.0299  0.1458 -1.3781
29060SOL    HW294231   3.146   7.504   6.336 -0.1095  0.1343 -0.4957
29061SOL     OW94232  11.033  10.764   9.986 -0.0271 -0.3367  0.6882
29061SOL    HW194233  10.995  10.681  10.016 -1.2580 -0.6186 -1.5014
29061SOL    HW294234  11.034  10.819  10.065 -3.1738 -0.9940  1.3352
29062SOL     OW94235   6.096   9.784   9.125 -0.6809  0.5056 -0.1327
29062SOL    HW194236   6.165   9.835   9.167  0.8903 -2.5735  1.3478
29062SOL    HW294237   6.133   9.758   9.041 -0.5123 -0.1249  0.1320
29063SOL     OW94238   2.581  11.074   3.902 -0.1665 -0.0825  0.8801
29063SOL    HW194239   2.556  11.001   3.845 -0.4358  1.1162 -0.5842
29063SOL    HW294240   2.589  11.034   3.989  1.0758 -2.1601 -0.0834
29064SOL     OW94241  10.676  11.188   7.467  0.4029 -0.2457 -0.2963
29064SOL    HW194242  10.744  11.168   7.404  2.2293 -0.8422  1.7326
29064SOL    HW294243  10.629  11.105   7.480  0.5623 -0.3308 -0.2660
29065SOL     OW94244   9.879   6.887   8.340 -0.2093  0.2756  0.6434
29065SOL    HW194245   9.790   6.854   8.349 -0.7807  1.9960  1.6347
29065SOL    HW294246   9.892   6.945   8.415  0.5760  2.6322 -1.1921
29066SOL     OW94247   8.048   4.422   2.918 -0.0401 -0.3668  0.0455
29066SOL    HW194248   7.977   4.370   2.956  0.1580 -0.6559  0.0184
29066SOL    HW294249   8.016   4.513   2.923 -1.4494 -0.6523 -2.0992
29067SOL     OW94250   2.059   3.047   0.113 -0.0532 -0.0152  0.3660
29067SOL    HW194251   2.019   3.121   0.157 -1.6078  0.1469 -1.2015
29067SOL    HW294252   2.026   3.052   0.023  3.8713  0.3970 -1.2463
29068SOL     OW94253   3.061  10.157   5.142 -0.1498  0.1108 -0.4781
29068SOL    HW194254   3.060  10.094   5.069  1.1071 -0.2807 -0.1819
29068SOL    HW294255   3.154  10.175   5.156 -0.4604  1.6189 -0.1820
29069SOL     OW94256   5.340   4.392   4.233  0.6067  0.8531 -0.0222
29069SOL    HW194257   5.356   4.483   4.260  2.5102  0.3754  0.6328
29069SOL    HW294258   5.297   4.352   4.309  1.3514  0.7802  0.3678
29070SOL     OW94259   0.974   7.369   9.823  0.3509  0.7214 -0.6456
29070SOL    HW194260   1.039   7.348   9.756  1.8930  3.3321 -0.1042
29070SOL    HW294261   0.911   7.425   9.778 -0.3338 -0.0132 -0.6212
29071SOL     OW94262   2.274   9.421   4.309  0.0368  0.5202 -0.6535
29071SOL    HW194263   2.327   9.393   4.235 -0.4052 -0.9167 -0.4528
29071SOL    HW294264   2.287   9.353   4.375 -2.6670 -0.3285 -0.8915
29072SOL     OW94265   3.030   8.312   5.484  0.2958 -0.1826  0.0606
29072SOL    HW194266   2.947   8.280   5.449  0.4951  0.3556 -0.9377
29072SOL    HW294267   3.047   8.393   5.437  1.4024 -0.2966  0.2233
29073SOL     OW94268   9.016   0.905   4.064  0.4423 -0.2515  0.0278
29073SOL    HW194269   9.001   0.939   4.152  2.0931 -1.7502  0.9638
29073SOL    HW294270   9.045   0.981   4.014 -0.8964  0.6972  0.6595
29074SOL     OW94271   7.404   8.414   3.245  0.0728 -0.4345 -0.3768
29074SOL    HW194272   7.318   8.415   3.202  0.3997 -0.2020 -1.0512
29074SOL    HW294273   7.466   8.394   3.174  0.6269 -0.0879 -0.0016
29075SOL     OW94274   1.189   3.531   9.616  0.2222 -0.0528 -0.4952
29075SOL    HW194275   1.230   3.562   9.697 -1.5323 -0.3132  0.5432
29075SOL    HW294276   1.167   3.611   9.569 -0.9192  0.1961  0.4317
29076SOL     OW94277   2.687   9.956   7.272 -0.1596 -0.3157  0.3226
29076SOL    HW194278   2.741  10.029   7.302 -0.8980 -0.1701  1.3494
29076SOL    HW294279   2.654   9.916   7.352 -1.3744 -0.5416 -0.2689
29077SOL     OW94280   4.388   6.104   6.144  0.1826  0.2767  0.2836
29077SOL    HW194281   4.364   6.098   6.236 -1.0853  1.0009  0.0222
29077SOL    HW294282   4.476   6.066   6.140 -0.3075 -1.1003  1.5327
29078SOL     OW94283   2.071   2.074   2.625 -0.0955 -0.3819  0.2942
29078SOL    HW194284   2.004   2.013   2.657 -0.4227 -1.5110 -2.2741
29078SOL    HW294285   2.116   2.025   2.556 -0.4833  2.3085 -2.0402
29079SOL     OW94286  11.432  12.458   9.204  0.2570 -0.2823 -0.1047
29079SOL    HW194287  11.446  12.532   9.263  0.1621  0.3324 -0.8433
29079SOL    HW294288  11.407  12.497   9.121 -2.0507 -1.2024  0.0753
29080SOL     OW94289   3.617   2.717   7.889  0.2891  0.2056  0.2261
29080SOL    HW194290   3.711   2.720   7.872  0.2110  0.4452 -0.1925
29080SOL    HW294291   3.578   2.749   7.808 -0.1129  1.3432  0.8503
29081SOL     OW94292   6.561   7.051   9.157 -0.1620  0.0562  0.8276
29081SOL    HW194293   6.507   7.068   9.079  0.9089 -1.7015 -0.3738
29081SOL    HW294294   6.599   7.136   9.179 -2.2279  1.0369  0.8180
29082SOL     OW94295   3.919   1.769   5.289 -0.2181 -0.2281  0.3529
29082SOL    HW194296   3.854   1.775   5.219 -0.4216 -2.2384  0.3128
29082SOL    HW294297   3.868   1.761   5.370 -0.0148 -0.5641  0.4505
29083SOL     OW94298   1.395   4.142   2.766 -0.4615  0.1127  0.3824
29083SOL    HW194299   1.374   4.065   2.819  1.3612 -0.1957  0.7413
29083SOL    HW294300   1.310   4.180   2.743 -1.3696 -1.4158  1.0614
29084SOL     OW94301   8.352   4.541   1.309 -0.5739 -0.7037  0.0362
29084SOL    HW194302   8.367   4.591   1.389 -1.7500  0.1411 -0.2462
29084SOL    HW294303   8.440   4.523   1.276 -0.0964 -0.0509  0.9012
29085SOL     OW94304   1.510   2.780   9.502  0.1002  0.2760  0.4130
29085SOL    HW194305   1.525   2.837   9.577  1.9050 -0.9314  1.0435
29085SOL    HW294306   1.598   2.760   9.469 -0.4476 -2.0040  0.1554
29086SOL     OW94307   3.592   7.498  10.610 -0.1259  0.1964  0.5149
29086SOL    HW194308   3.632   7.543  10.685 -0.1005 -0.1977  0.7433
29086SOL    HW294309   3.665   7.482  10.551 -0.3782  1.8517 -0.3055
29087SOL     OW94310   0.384  11.634   1.688  0.6038  0.4582 -0.0836
29087SOL    HW194311   0.449  11.565   1.673 -0.4771 -1.1343  1.8949
29087SOL    HW294312   0.428  11.715   1.664  2.2381 -0.8342 -1.7036
29088SOL     OW94313   2.688   2.197  11.973  0.2372 -0.1124  0.2498
29088SOL    HW194314   2.769   2.215  12.022  0.7995  0.2859 -0.7830
29088SOL    HW294315   2.718   2.163  11.889 -0.6628  0.3982 -0.2933
29089SOL     OW94316   1.489   4.644   5.892 -0.0336  0.0450  0.1502
29089SOL    HW194317   1.524   4.675   5.809 -0.4215 -0.3170 -0.1498
29089SOL    HW294318   1.398   4.619   5.873 -0.0946 -0.1361  0.6529
29090SOL     OW94319   0.331  12.567   8.478 -0.3467 -0.3880  0.7890
29090SOL    HW194320   0.425  12.547   8.478 -0.4671 -1.1199 -0.5360
29090SOL    HW294321   0.317  12.617   8.558  1.1819 -0.2316  0.9992
29091SOL     OW94322  11.365   7.433  11.137  0.3507  0.0393  0.0353
29091SOL    HW194323  11.419   7.354  11.139 -0.0484 -0.2339  2.1645
29091SOL    HW294324  11.343   7.449  11.229 -0.5520  1.9646 -0.4772
29092SOL     OW94325   0.590   0.834   2.638 -0.5350 -0.3522 -0.2035
29092SOL    HW194326   0.646   0.896   2.684 -1.5890  0.4049  0.1051
29092SOL    HW294327   0.631   0.748   2.653  0.7923  0.2215 -0.4140
29093SOL     OW94328   1.851   7.164   4.745 -0.1922 -0.3930  0.1090
29093SOL    HW194329   1.826   7.105   4.817  2.5838 -2.8269 -0.7150
29093SOL    HW294330   1.911   7.226   4.786 -1.0903  0.2776  0.4556
29094SOL     OW94331  11.993  12.099   2.517  0.0092 -0.1452  0.3631
29094SOL    HW194332  12.017  12.046   2.593  0.4616 -2.4891 -1.3186
29094SOL    HW294333  11.933  12.044   2.467  0.8087  0.7331 -1.6796
29095SOL     OW94334   3.455   6.685   5.368 -0.3253  0.2976  0.3338
29095SOL    HW194335   3.466   6.605   5.420 -2.7720  0.6579  1.5477
29095SOL    HW294336   3.541   6.725   5.366  0.7265 -1.8294  0.5829
29096SOL     OW94337   8.414   3.852  10.895 -0.0214  0.5822  0.2279
29096SOL    HW194338   8.420   3.758  10.911  1.6078  0.3747 -1.3486
29096SOL    HW294339   8.412   3.891  10.983 -0.7618 -0.8961  0.9028
29097SOL     OW94340  11.286  12.257   8.336 -0.0560  0.4681  0.1609
29097SOL    HW194341  11.209  12.312   8.346 -0.0029  0.4616  0.6330
29097SOL    HW294342  11.343  12.305   8.275 -0.3831  0.5220 -0.1049
29098SOL     OW94343   5.998   8.409  12.136 -1.4378  0.0780 -0.4578
29098SOL    HW194344   5.947   8.331  12.161 -2.1794  0.2806 -1.2667
29098SOL    HW294345   5.952   8.482  12.178 -2.5701  0.3962 -2.1148
29099SOL     OW94346   7.006   9.701   2.823  0.0441 -0.5121 -0.5929
29099SOL    HW194347   6.964   9.712   2.738 -2.3472  0.5321  0.6178
29099SOL    HW294348   6.956   9.633   2.866 -0.9715  1.2491  1.1693
29100SOL     OW94349   5.994   4.569   1.543 -0.0141  0.3262 -0.0733
29100SOL    HW194350   6.062   4.631   1.571 -0.1900  1.1644 -1.4099
29100SOL    HW294351   5.935   4.621   1.489 -1.3780 -0.5423  0.5194
29101SOL     OW94352   5.689   1.847   0.731  0.2086 -0.3034 -0.8801
29101SOL    HW194353   5.705   1.915   0.795 -1.3663 -0.1840 -0.5810
29101SOL    HW294354   5.677   1.894   0.648 -0.6454 -0.2182 -0.7162
29102SOL     OW94355   3.457   1.089   5.261  0.8081  0.3440 -0.0677
29102SOL    HW194356   3.538   1.118   5.219  1.3269  1.0199  1.3319
29102SOL    HW294357   3.484   1.017   5.318  0.1469 -0.4274 -0.6891
29103SOL     OW94358   8.746  10.462   5.376  0.3404 -0.0456 -0.1574
29103SOL    HW194359   8.773  10.525   5.442 -0.1522 -0.1475  0.1478
29103SOL    HW294360   8.674  10.414   5.416 -0.0784  0.0043 -0.8303
29104SOL     OW94361   3.386   0.861  12.578 -0.0891  0.0206  0.2585
29104SOL    HW194362   3.407   0.910  12.657 -1.5698 -1.1183  1.4292
29104SOL    HW294363   3.293   0.842  12.586 -0.1067 -0.7537 -1.4122
29105SOL     OW94364   0.515   9.601   7.415  0.0295 -0.2553  0.4507
29105SOL    HW194365   0.562   9.554   7.345  1.7668  2.2991 -0.2217
29105SOL    HW294366   0.516   9.540   7.489  0.1785 -2.1318 -1.0093
29106SOL     OW94367   0.283  10.448  12.030  0.3736 -0.0128 -0.8190
29106SOL    HW194368   0.243  10.371  12.073  1.1280  0.8162  1.5433
29106SOL    HW294369   0.350  10.411  11.973  1.0310 -1.1600  0.6027
29107SOL     OW94370   0.009   7.976   0.785 -0.0323 -0.0483  0.2147
29107SOL    HW194371  -0.052   7.973   0.712 -0.5181  0.7447  0.5760
29107SOL    HW294372   0.035   7.885   0.798 -1.9890 -0.5730  0.7748
29108SOL     OW94373   5.352  10.737  11.209  0.4925  0.8103 -0.2877
29108SOL    HW194374   5.432  10.741  11.157  0.8888  1.4877  0.3544
29108SOL    HW294375   5.366  10.663  11.268  0.6323  0.8949 -0.2120
29109SOL     OW94376   7.893   3.370   0.036 -0.4710  0.3885  0.1432
29109SOL    HW194377   7.961   3.346   0.100 -0.8240  2.1138  1.2424
29109SOL    HW294378   7.847   3.288   0.018 -0.3413 -0.1881  2.1170
29110SOL     OW94379   5.877   2.532   6.171 -0.5181 -0.2897  0.5545
29110SOL    HW194380   5.816   2.540   6.244  0.7298 -2.0965  1.8806
29110SOL    HW294381   5.914   2.445   6.180  0.2957 -0.2592 -1.7891
29111SOL     OW94382   1.965   5.690  10.622 -0.0084  0.8551  0.1617
29111SOL    HW194383   1.911   5.718  10.695 -0.5513  3.3273 -1.0797
29111SOL    HW294384   2.017   5.767  10.599  0.8662 -0.1483 -1.4290
29112SOL     OW94385   2.270   6.011   8.427 -0.5861 -0.0253 -0.0223
29112SOL    HW194386   2.291   6.086   8.372 -1.2500  0.4762  0.3957
29112SOL    HW294387   2.339   5.947   8.408  0.5840  1.0839  0.3743
29113SOL     OW94388   2.200   3.910   4.424 -0.0515 -0.7006  0.3030
29113SOL    HW194389   2.185   3.830   4.474 -0.8189 -1.0022 -0.3753
29113SOL    HW294390   2.235   3.973   4.487 -0.5011 -1.2331  1.0914
29114SOL     OW94391   9.460   4.933   3.332  0.1403 -0.0513  0.5446
29114SOL    HW194392   9.401   4.859   3.318  1.9080 -1.4406  0.0505
29114SOL    HW294393   9.484   4.928   3.424 -0.3142  0.3877  0.6942
29115SOL     OW94394   2.823  10.733   6.493 -0.0930 -0.2485 -0.0483
29115SOL    HW194395   2.775  10.815   6.483 -0.8554 -0.7463 -0.5686
29115SOL    HW294396   2.890  10.736   6.425  1.4645  0.9978  1.4477
29116SOL     OW94397   6.005   1.004   3.817  0.1385  0.3858  0.2185
29116SOL    HW194398   6.006   1.084   3.764  1.3835 -0.9549 -1.9285
29116SOL    HW294399   5.912   0.982   3.826 -0.2124  1.9703  0.7436
29117SOL     OW94400   3.442   6.491  11.722  0.2863 -0.3817 -0.2943
29117SOL    HW194401   3.369   6.436  11.695 -1.7849 -0.0836  3.8741
29117SOL    HW294402   3.405   6.549  11.788  3.7270  1.8797 -0.0901
29118SOL     OW94403  11.204   8.152   1.088  0.1382 -0.2636  0.5552
29118SOL    HW194404  11.242   8.215   1.027  0.2573 -0.2364  0.6563
29118SOL    HW294405  11.162   8.086   1.032 -0.3164  0.1077  0.4554
29119SOL     OW94406   1.059  11.175   5.654  0.3936 -0.3129  0.1673
29119SOL    HW194407   0.991  11.168   5.720  1.0473  1.3092  1.0655
29119SOL    HW294408   1.141  11.180   5.704  0.9965 -0.0658 -0.8014
29120SOL     OW94409   1.540   9.885   5.524  0.8026  0.0403  0.6522
29120SOL    HW194410   1.578   9.918   5.443 -0.4955  0.4887  0.2038
29120SOL    HW294411   1.452   9.923   5.527 -0.3923 -2.4975  0.6311
29121SOL     OW94412  10.719  10.973   9.935 -0.3738  0.4927 -0.3832
29121SOL    HW194413  10.753  10.934   9.855 -0.5927 -2.0610  0.6723
29121SOL    HW294414  10.777  11.047   9.953  0.1411  0.6391 -2.4226
29122SOL     OW94415   8.121   2.001   2.405 -0.2714  0.1163  0.1951
29122SOL    HW194416   8.035   2.018   2.444  0.1221 -0.7847  1.5409
29122SOL    HW294417   8.141   1.910   2.429  1.3032  0.4837  0.4120
29123SOL     OW94418   0.104   8.200   7.972  0.2417  0.3246  0.1227
29123SOL    HW194419   0.111   8.114   8.014  0.8465  0.8869  1.2230
29123SOL    HW294420   0.013   8.227   7.986 -0.9856 -1.5469 -3.1854
29124SOL     OW94421   2.439   6.433   8.677 -0.1312 -0.2379  0.1029
29124SOL    HW194422   2.517   6.392   8.715  0.4390 -0.1883 -0.9635
29124SOL    HW294423   2.439   6.404   8.586 -1.1027  0.1509 -0.0320
29125SOL     OW94424   6.807   4.835   5.884 -0.2721  0.2041  0.5075
29125SOL    HW194425   6.809   4.740   5.899 -1.0624  0.0312 -0.3531
29125SOL    HW294426   6.730   4.849   5.829 -0.1424  1.3474  0.5882
29126SOL     OW94427  11.520   3.485   1.561 -0.0839 -0.4849  0.0925
29126SOL    HW194428  11.471   3.561   1.530  1.4822 -0.1376 -1.7097
29126SOL    HW294429  11.493   3.414   1.503  2.0946 -0.0837 -1.5202
29127SOL     OW94430   9.381   7.324   9.788 -0.3292  0.1617 -0.6891
29127SOL    HW194431   9.471   7.344   9.814 -0.4864 -1.3107  1.2133
29127SOL    HW294432   9.388   7.296   9.697  0.8715  1.6591 -1.0998
29128SOL     OW94433   3.875   1.102  10.199  0.0395  0.1288 -0.1729
29128SOL    HW194434   3.825   1.021  10.197 -1.3984  0.9210  1.0809
29128SOL    HW294435   3.887   1.121  10.292  0.8129  1.0890 -0.4396
29129SOL     OW94436   2.953   1.889   7.219 -0.0133  0.3228 -0.3983
29129SOL    HW194437   3.010   1.922   7.149  0.2503 -0.9885 -0.8386
29129SOL    HW294438   3.014   1.849   7.281 -0.4363 -1.4164 -1.0495
29130SOL     OW94439  12.207   0.612  10.920  0.2926 -0.5831 -0.0232
29130SOL    HW194440  12.222   0.623  10.826 -0.4684  0.3927 -0.0520
29130SOL    HW294441  12.295   0.603  10.957  0.5876 -1.2601 -0.8554
29131SOL     OW94442   2.191  11.522   2.929 -0.2300 -0.6838 -0.1798
29131SOL    HW194443   2.203  11.476   2.846 -0.9279 -0.4189 -0.4403
29131SOL    HW294444   2.207  11.456   2.996  0.7886 -0.7917 -0.5061
29132SOL     OW94445  11.337  10.567   1.004  0.2170 -0.0059 -0.4433
29132SOL    HW194446  11.329  10.479   0.967 -0.5886 -0.5736  0.9903
29132SOL    HW294447  11.350  10.553   1.098 -0.4284  1.4010 -0.1056
29133SOL     OW94448  11.434   2.472   0.346  0.0859  0.2416 -0.6769
29133SOL    HW194449  11.516   2.425   0.360 -0.0852  0.1576  0.1015
29133SOL    HW294450  11.450   2.561   0.378 -0.2432  0.1121 -0.1307
29134SOL     OW94451   3.441  11.065  11.986 -0.6502 -0.1057  0.2549
29134SOL    HW194452   3.367  11.074  11.926  0.5505  1.0622 -1.1118
29134SOL    HW294453   3.409  11.102  12.069 -1.9924 -0.7988  0.0819
29135SOL     OW94454   7.935  10.380   5.362  0.2488 -0.0097 -0.4962
29135SOL    HW194455   7.965  10.433   5.288 -0.1333 -1.2885 -1.6178
29135SOL    HW294456   7.990  10.408   5.435  0.5948  1.3443 -1.2357
29136SOL     OW94457  11.925   6.995   7.077 -0.6333  0.5934  0.6287
29136SOL    HW194458  11.833   6.987   7.103 -0.6835  0.3678  0.3886
29136SOL    HW294459  11.930   6.949   6.993 -0.2006  0.1916  0.8682
29137SOL     OW94460   7.029  10.086   9.743 -0.3389  0.1652 -0.2533
29137SOL    HW194461   7.117  10.094   9.706 -0.4714  0.7503 -0.4532
29137SOL    HW294462   6.999  10.176   9.753 -1.2537 -0.0345 -1.0020
29138SOL     OW94463   0.745   7.524   9.707 -0.6587  0.7989 -0.2920
29138SOL    HW194464   0.675   7.479   9.660 -0.1733 -1.5387  1.0908
29138SOL    HW294465   0.703   7.560   9.784 -0.5226  0.1709  0.0809
29139SOL     OW94466   5.844   2.989   6.699 -0.2093  0.2823  0.1050
29139SOL    HW194467   5.833   3.078   6.732 -1.4911  0.4698 -0.7754
29139SOL    HW294468   5.777   2.938   6.745 -1.0235  0.2513 -1.0948
29140SOL     OW94469   1.025   3.924  11.475 -0.1107 -0.0352 -0.0177
29140SOL    HW194470   0.963   3.942  11.546  1.3233  0.5957  1.1305
29140SOL    HW294471   0.970   3.899  11.401 -1.7121  0.2351  1.0282
29141SOL     OW94472   5.664  11.570   6.327 -0.6154 -0.5983  0.1563
29141SOL    HW194473   5.641  11.656   6.291 -1.6805 -1.1337 -0.4990
29141SOL    HW294474   5.606  11.509   6.282  0.0716 -1.6623  0.6689
29142SOL     OW94475   3.853   1.548   4.297 -0.0915 -0.0913 -0.5577
29142SOL    HW194476   3.909   1.530   4.221 -1.3462 -1.8952 -1.1313
29142SOL    HW294477   3.808   1.465   4.313 -1.8270  1.0031  0.5228
29143SOL     OW94478   6.602   7.369   7.828  0.1594 -0.8508 -0.3323
29143SOL    HW194479   6.620   7.428   7.902  0.2448 -2.8935  1.3931
29143SOL    HW294480   6.687   7.332   7.806  0.2774  0.3486 -2.0906
29144SOL     OW94481   4.716   8.005  10.466  0.1359 -0.5176  0.1957
29144SOL    HW194482   4.621   7.997  10.472 -0.1768  1.5678 -1.2499
29144SOL    HW294483   4.739   7.955  10.388 -0.0778  0.7599 -0.7119
29145SOL     OW94484   0.686  10.535   5.833 -0.6560  0.3920 -0.0241
29145SOL    HW194485   0.669  10.624   5.864  1.6641  0.8278  0.1632
29145SOL    HW294486   0.632  10.479   5.889 -2.0088  1.6373 -0.0166
29146SOL     OW94487   8.070   9.151   0.619  0.6483  0.0494  0.3243
29146SOL    HW194488   7.979   9.136   0.594  1.3574 -1.1558 -1.7764
29146SOL    HW294489   8.065   9.189   0.707 -1.8099 -1.0655  0.7354
29147SOL     OW94490   9.538   7.336   0.497 -0.0084  0.1858 -0.5479
29147SOL    HW194491   9.506   7.409   0.444  1.8612  0.5357 -1.2402
29147SOL    HW294492   9.583   7.378   0.570 -1.2204 -0.3067  0.5263
29148SOL     OW94493   6.814   9.051   6.622  0.2283  0.0069 -0.1703
29148SOL    HW194494   6.810   8.991   6.697 -0.0949  1.6781  1.2135
29148SOL    HW294495   6.842   8.996   6.549 -0.3792 -1.8955  0.9469
29149SOL     OW94496   4.225   9.604  11.365  0.0365  0.0225 -0.3547
29149SOL    HW194497   4.300   9.591  11.307 -0.4516 -2.9251 -0.4550
29149SOL    HW294498   4.165   9.658  11.314  0.5322 -0.7059 -1.7525
29150SOL     OW94499   5.291   4.304   4.812  0.0507 -0.0664 -0.2372
29150SOL    HW194500   5.351   4.230   4.806 -0.0504 -0.1259 -0.5477
29150SOL    HW294501   5.229   4.279   4.881 -0.1275 -0.3753 -0.5077
29151SOL     OW94502   0.243   8.280   1.529 -0.2145 -0.4671  0.0894
29151SOL    HW194503   0.220   8.191   1.504  0.9818 -0.5093 -0.9555
29151SOL    HW294504   0.302   8.310   1.460  0.1508  0.8029  0.9169
29152SOL     OW94505   9.606  10.000   4.447  0.2579  0.2133  0.2115
29152SOL    HW194506   9.630  10.052   4.370  0.7756  1.9819  1.5050
29152SOL    HW294507   9.649  10.044   4.520 -0.3489 -1.3250  1.5628
29153SOL     OW94508   2.993  11.396  11.941 -0.3710  0.3793  0.3553
29153SOL    HW194509   2.959  11.485  11.949 -2.7804 -0.2893 -1.4478
29153SOL    HW294510   2.994  11.378  11.847  1.1756 -1.1366  0.5914
29154SOL     OW94511   6.344   1.305   6.323 -0.1537 -0.5228  0.6869
29154SOL    HW194512   6.326   1.385   6.372 -0.4075  0.8528 -1.5261
29154SOL    HW294513   6.351   1.334   6.232  0.6325 -2.9053 -0.0711
29155SOL     OW94514   1.527   9.558   4.423  0.0566  0.0055 -0.0030
29155SOL    HW194515   1.620   9.567   4.441 -0.1608  0.6975  0.8175
29155SOL    HW294516   1.514   9.464   4.408  0.8709 -0.0981 -0.1088
29156SOL     OW94517  11.237   0.286  10.959 -0.0425  0.1838  0.6182
29156SOL    HW194518  11.206   0.359  10.906  0.7732  1.4605  1.8356
29156SOL    HW294519  11.166   0.222  10.957 -1.0516  1.3046  0.0690
29157SOL     OW94520  10.917   0.454   9.392 -0.2124  0.4917 -0.1131
29157SOL    HW194521  10.880   0.536   9.358  1.3460  0.5557 -1.8012
29157SOL    HW294522  10.992   0.481   9.445  0.5565  0.1578 -1.0129
29158SOL     OW94523   3.986   1.752   4.878  0.0382  0.5063 -0.4112
29158SOL    HW194524   3.892   1.767   4.873  0.0248  0.0949 -2.5044
29158SOL    HW294525   4.012   1.733   4.788  2.0384  0.0503  0.2008
29159SOL     OW94526   9.856   5.304  11.873  0.0054 -0.7360 -0.0506
29159SOL    HW194527   9.827   5.255  11.796 -1.2754  1.0720 -0.7901
29159SOL    HW294528   9.935   5.258  11.903 -0.5125 -2.5575 -1.3213
29160SOL     OW94529   4.100   7.647   1.623 -0.1366 -0.1655 -0.8232
29160SOL    HW194530   4.078   7.573   1.565  0.4571 -0.6895 -0.3946
29160SOL    HW294531   4.194   7.639   1.636 -0.2879 -0.1803  0.3806
29161SOL     OW94532  12.228   2.647  10.103 -0.4500 -0.1452  0.4140
29161SOL    HW194533  12.143   2.691  10.103  0.2429  1.3073 -0.6566
29161SOL    HW294534  12.287   2.709  10.146  0.3513 -0.4556 -0.2097
29162SOL     OW94535   3.201   7.062  12.145 -0.1311  0.2248 -0.3554
29162SOL    HW194536   3.263   7.050  12.217 -0.1297 -0.1911 -0.4218
29162SOL    HW294537   3.249   7.113  12.079  0.0582  0.1175 -0.3005
29163SOL     OW94538  11.160   7.414   0.734  0.0828  0.0273  0.6372
29163SOL    HW194539  11.165   7.328   0.776  0.6010  0.1234  0.7810
29163SOL    HW294540  11.172   7.397   0.641  1.1380  0.0351  0.7615
29164SOL     OW94541   9.969  11.234  10.424 -0.5153  0.6498  0.6425
29164SOL    HW194542   9.974  11.161  10.486  0.8412  1.0992  1.0942
29164SOL    HW294543  10.059  11.265  10.415 -1.2384  3.4239  1.8505
29165SOL     OW94544   9.756  11.952   1.159  0.3193 -0.2083  0.3079
29165SOL    HW194545   9.777  11.908   1.077 -2.4384  0.6151 -0.9964
29165SOL    HW294546   9.824  11.925   1.220  1.6165 -2.0831 -1.8228
29166SOL     OW94547   5.822   2.380  10.209 -0.2212 -0.6015 -0.2669
29166SOL    HW194548   5.810   2.392  10.303  0.4639 -1.5914 -0.0392
29166SOL    HW294549   5.823   2.469  10.174 -0.8636 -0.2318  0.6059
29167SOL     OW94550   3.993   5.839   6.919 -0.6044 -0.5801 -0.7228
29167SOL    HW194551   4.072   5.893   6.916 -0.9418  0.0397  0.5301
29167SOL    HW294552   4.025   5.750   6.931 -0.0548 -0.6112 -2.2311
29168SOL     OW94553   5.979  11.260   6.320 -0.4607  0.0321  0.3420
29168SOL    HW194554   5.895  11.304   6.309  0.4435  1.7878  0.0757
29168SOL    HW294555   6.021  11.266   6.234 -0.4699 -1.7660  0.1791
29169SOL     OW94556  10.541   6.389   5.557  0.0446  0.2979 -1.3993
29169SOL    HW194557  10.633   6.412   5.548  0.2019 -0.0754 -0.7419
29169SOL    HW294558  10.497   6.443   5.491  0.6253  1.1215 -1.1308
29170SOL     OW94559   5.792   7.631   3.737  0.2328 -0.5205 -0.0413
29170SOL    HW194560   5.829   7.564   3.795 -1.1092 -0.0808  1.3999
29170SOL    HW294561   5.858   7.699   3.733  0.3344 -0.5378  1.0440
29171SOL     OW94562   2.188   8.459   0.105  0.2216 -0.3060  0.1196
29171SOL    HW194563   2.220   8.479   0.017 -0.7770 -0.3731 -0.2726
29171SOL    HW294564   2.116   8.521   0.120 -2.1850 -2.7037 -0.6716
29172SOL     OW94565   4.851  11.722  12.136 -0.4134  0.0371 -0.2494
29172SOL    HW194566   4.759  11.713  12.160  0.0462  0.5822  2.0035
29172SOL    HW294567   4.857  11.806  12.092 -0.8784  0.4024  0.3715
29173SOL     OW94568   5.661   2.385   0.468  0.1317  0.3242  0.1006
29173SOL    HW194569   5.619   2.469   0.449 -1.5099 -0.5951 -0.5611
29173SOL    HW294570   5.730   2.406   0.531 -0.8134  2.0332  0.6185
29174SOL     OW94571  10.845   9.231   4.408 -0.7584 -0.4785  0.2266
29174SOL    HW194572  10.908   9.166   4.439 -0.8786  0.0183  1.5831
29174SOL    HW294573  10.885   9.316   4.428 -1.3816 -0.1513  0.1265
29175SOL     OW94574  11.561  10.791   0.287 -0.2515 -0.0168 -0.6026
29175SOL    HW194575  11.632  10.849   0.259  0.3727 -1.4048 -2.0520
29175SOL    HW294576  11.496  10.799   0.217 -1.8704  1.6697  0.9698
29176SOL     OW94577   0.657   2.559  12.396 -0.1526 -0.3575 -0.2201
29176SOL    HW194578   0.631   2.579  12.306 -0.1273  0.6243 -0.0200
29176SOL    HW294579   0.585   2.592  12.450 -0.1500 -0.9038  0.1243
29177SOL     OW94580   0.932   4.726   1.056  0.0940  0.3177 -0.3830
29177SOL    HW194581   0.902   4.747   1.145  0.3056  0.0678 -0.2501
29177SOL    HW294582   1.016   4.681   1.070 -0.3622 -0.6434 -0.6571
29178SOL     OW94583   6.977   4.981   4.159  0.1134  0.2949 -0.0859
29178SOL    HW194584   7.018   5.064   4.133  0.3417  0.7531  1.5672
29178SOL    HW294585   7.013   4.964   4.247 -1.5920 -0.4105  0.5150
29179SOL     OW94586   2.185  10.077   3.446 -0.0303 -0.1972 -0.2936
29179SOL    HW194587   2.217   9.988   3.434  0.5616  0.0457 -0.5369
29179SOL    HW294588   2.135  10.096   3.366  0.7151  0.0541 -0.7106
29180SOL     OW94589  11.606   7.975   3.071 -0.5670 -0.2716 -0.1272
29180SOL    HW194590  11.611   7.882   3.094 -3.3634 -0.7089 -0.8801
29180SOL    HW294591  11.603   8.021   3.155 -0.9526 -1.0138  0.2667
29181SOL     OW94592   5.510   3.032  11.959 -0.0390 -0.2441  0.3534
29181SOL    HW194593   5.456   2.987  12.023 -1.6813  0.6281 -0.3631
29181SOL    HW294594   5.556   2.962  11.913 -2.5012 -1.2714 -0.7239
29182SOL     OW94595   4.941  10.477   1.259  0.1214  0.3349  0.6902
29182SOL    HW194596   4.858  10.502   1.299 -1.4550 -3.3989  0.1279
29182SOL    HW294597   4.997  10.452   1.333  0.7695  2.6553  1.0537
29183SOL     OW94598   2.558   7.478  12.159 -0.8681  0.1879 -0.3615
29183SOL    HW194599   2.507   7.541  12.108 -1.6290  0.3492  0.5626
29183SOL    HW294600   2.643   7.519  12.171 -0.0676 -0.5471 -2.8791
29184SOL     OW94601   4.320   2.666   6.437  0.2836 -0.2106  0.3706
29184SOL    HW194602   4.291   2.647   6.526  1.9778  0.9924  1.2372
29184SOL    HW294603   4.248   2.716   6.399 -0.3900 -0.5931  1.1026
29185SOL     OW94604   1.184   2.182   7.847 -0.2014  0.7262 -0.0260
29185SOL    HW194605   1.215   2.150   7.762 -0.8796  1.9072 -0.7550
29185SOL    HW294606   1.257   2.234   7.881  0.7857 -1.2643  1.0197
29186SOL     OW94607   9.806   5.083   9.756  0.0442 -1.0303  0.1257
29186SOL    HW194608   9.851   5.042   9.830 -0.1504 -0.1429  0.7492
29186SOL    HW294609   9.731   5.026   9.740 -1.8306  0.4460  2.8060
29187SOL     OW94610  10.461  11.134   4.765  0.6999  0.2858  0.5511
29187SOL    HW194611  10.397  11.083   4.814  0.1862  2.3144  2.1088
29187SOL    HW294612  10.433  11.125   4.674  0.7415 -2.2588  0.7041
29188SOL     OW94613   0.622   0.894  12.389  0.8024 -0.7517 -0.2409
29188SOL    HW194614   0.626   0.821  12.328  1.2315 -1.2825  0.4087
29188SOL    HW294615   0.637   0.972  12.336  1.3363 -1.2196 -0.7774
29189SOL     OW94616   5.018   2.790  10.053  0.5753 -1.1280  0.4639
29189SOL    HW194617   5.093   2.818  10.106  0.8840  1.3458 -1.1421
29189SOL    HW294618   5.047   2.707  10.014  1.9273 -0.9227  0.9635
29190SOL     OW94619   4.790   5.560  12.034 -0.4063  0.4226 -0.1150
29190SOL    HW194620   4.726   5.564  12.105  0.5614  1.9120  0.7357
29190SOL    HW294621   4.738   5.570  11.954 -1.2320  1.8902  0.5688
29191SOL     OW94622   1.207   2.981   9.397 -0.1721 -0.8611  0.6882
29191SOL    HW194623   1.237   3.041   9.465  0.1859  2.0405 -1.7986
29191SOL    HW294624   1.113   3.000   9.388  0.1434  0.1063 -0.7862
29192SOL     OW94625  12.235   2.701  10.442  0.2309 -0.0835 -0.0815
29192SOL    HW194626  12.253   2.625  10.498  0.1188  0.0046  0.0732
29192SOL    HW294627  12.146   2.687  10.411 -0.3600  0.7444  1.1613
29193SOL     OW94628   1.196   8.437   6.782 -0.3830  0.4117 -0.1546
29193SOL    HW194629   1.273   8.450   6.727  0.3241  0.0281  0.7291
29193SOL    HW294630   1.154   8.523   6.783  0.7293  0.9743  0.3686
29194SOL     OW94631   1.316  10.484   1.787  0.2897  0.3817  0.0181
29194SOL    HW194632   1.272  10.437   1.717 -1.1192  0.9472  0.4843
29194SOL    HW294633   1.246  10.533   1.832  1.1499  0.1444  1.7292
29195SOL     OW94634   4.739   9.286   7.963 -0.2908 -0.3658  0.2359
29195SOL    HW194635   4.679   9.232   8.013 -1.1001 -0.6977 -1.0410
29195SOL    HW294636   4.685   9.359   7.932 -0.1163 -0.7832 -1.1102
29196SOL     OW94637  12.165   0.692   0.141 -0.3777 -0.2993  0.2795
29196SOL    HW194638  12.084   0.721   0.183 -0.1769  0.7174  0.0153
29196SOL    HW294639  12.197   0.771   0.097  1.3373 -0.3806  1.3038
29197SOL     OW94640   4.930   9.959   1.344  0.4132 -0.4012  0.2738
29197SOL    HW194641   4.910  10.040   1.391  0.2302 -0.4984  0.3664
29197SOL    HW294642   4.970   9.987   1.262 -0.7324 -0.1843 -0.2230
29198SOL     OW94643  10.014   0.772   9.897 -0.8361 -0.3504  0.3862
29198SOL    HW194644  10.034   0.688   9.856  0.3102 -0.3228  0.8433
29198SOL    HW294645   9.966   0.820   9.830  1.0403 -0.2878 -1.0170
29199SOL     OW94646   5.563   0.661   3.246  0.2074  0.1308  0.2205
29199SOL    HW194647   5.531   0.681   3.158  1.2018 -1.4678 -0.5558
29199SOL    HW294648   5.641   0.716   3.256  0.9016 -0.6610 -0.5069
29200SOL     OW94649  10.203   2.441   4.690  0.0424 -0.3852 -0.0267
29200SOL    HW194650  10.250   2.371   4.643  2.4489  1.2386 -0.2296
29200SOL    HW294651  10.124   2.456   4.638  0.3873 -1.6964 -0.9949
29201SOL     OW94652  11.287   9.130   7.487  0.3355  0.3318  0.2319
29201SOL    HW194653  11.322   9.194   7.549 -0.0045  0.1388  0.6277
29201SOL    HW294654  11.364   9.082   7.457  0.4859  0.3025  0.6511
29202SOL     OW94655   3.805   4.308   3.438 -0.2168  0.2121  0.7460
29202SOL    HW194656   3.726   4.319   3.385 -1.2424  0.8105  2.3124
29202SOL    HW294657   3.818   4.214   3.444  1.7284  0.0416 -3.0081
29203SOL     OW94658   6.116   8.276   1.192 -0.2305  0.2868 -0.1483
29203SOL    HW194659   6.070   8.355   1.163  0.9505  1.8403  1.9552
29203SOL    HW294660   6.207   8.304   1.202  0.9637 -2.2649 -2.5466
29204SOL     OW94661   3.817   6.498   1.775  0.2491  0.1671 -0.9819
29204SOL    HW194662   3.770   6.415   1.762 -0.6057  0.6134 -0.8058
29204SOL    HW294663   3.901   6.471   1.813 -0.6575 -0.5379  0.6690
29205SOL     OW94664   6.935   4.188   5.730 -0.6175  0.2247  0.1219
29205SOL    HW194665   6.979   4.267   5.699 -2.2425  0.4936 -1.7279
29205SOL    HW294666   6.849   4.218   5.759 -0.7110 -0.6710  0.8032
29206SOL     OW94667  10.943   5.660   1.686 -0.5917 -0.1527  0.3545
29206SOL    HW194668  10.937   5.566   1.706  0.2148 -0.6893 -1.6261
29206SOL    HW294669  11.021   5.689   1.733 -0.4420 -0.6529  0.4311
29207SOL     OW94670  11.191  11.462   6.023 -0.1548  0.5860 -0.4680
29207SOL    HW194671  11.151  11.472   6.109 -1.4406 -0.0502 -0.9582
29207SOL    HW294672  11.284  11.482   6.037 -0.5062  1.4396  0.8551
29208SOL     OW94673   1.570   2.651   0.796 -0.2084 -0.4223 -0.5805
29208SOL    HW194674   1.497   2.625   0.740 -0.7067 -2.2805  0.8382
29208SOL    HW294675   1.532   2.712   0.859  0.1890  1.0729 -1.7409
29209SOL     OW94676   9.583   4.366   5.240  0.0155  0.2343  0.1314
29209SOL    HW194677   9.621   4.317   5.313 -0.1011  1.1755  0.8279
29209SOL    HW294678   9.493   4.334   5.234 -0.2072  0.7029  0.8992
29210SOL     OW94679   9.360   3.392  11.587  0.1322 -0.0750 -0.9221
29210SOL    HW194680   9.301   3.390  11.663  0.8884 -0.4059 -0.3342
29210SOL    HW294681   9.425   3.324  11.605  2.0299  1.7516 -0.4445
29211SOL     OW94682   3.421   7.095   4.474 -0.7064  0.3256  0.3507
29211SOL    HW194683   3.420   7.190   4.462 -0.2658  0.2890  0.0085
29211SOL    HW294684   3.365   7.061   4.404  0.5756  0.2223 -0.6713
29212SOL     OW94685   5.432   0.809   9.305 -0.0382  0.1273  0.5415
29212SOL    HW194686   5.358   0.869   9.311  0.1062  0.2626  0.9907
29212SOL    HW294687   5.476   0.816   9.389  0.8317  0.4911  0.0695
29213SOL     OW94688   2.103   4.372   7.437 -0.1252 -0.0908  0.0403
29213SOL    HW194689   2.121   4.279   7.422 -1.7957 -0.8982  2.4913
29213SOL    HW294690   2.145   4.392   7.520  0.8193  1.6060 -0.7843
29214SOL     OW94691   7.540   7.466   3.917 -0.4468 -0.9842  0.2854
29214SOL    HW194692   7.601   7.479   3.844  0.5284 -3.4490  0.5701
29214SOL    HW294693   7.465   7.422   3.878 -1.1008  0.0534  0.3368
29215SOL     OW94694   7.480   6.973   3.998 -0.1306 -0.0780  0.2916
29215SOL    HW194695   7.418   7.032   4.041  0.0939 -0.2775  0.8963
29215SOL    HW294696   7.461   6.887   4.036 -0.6867 -0.4703 -0.8357
29216SOL     OW94697  10.081   5.656  10.074 -0.2455 -0.1691  0.1447
29216SOL    HW194698  10.030   5.721  10.025 -0.4344 -1.1732 -1.0387
29216SOL    HW294699  10.091   5.694  10.161  0.7598  2.0517 -0.8502
29217SOL     OW94700   1.339   5.599   9.600  0.1479  0.4792 -0.5578
29217SOL    HW194701   1.253   5.581   9.561  0.1409 -0.5317 -0.1306
29217SOL    HW294702   1.319   5.637   9.685  0.1142  0.2392 -0.4563
29218SOL     OW94703   4.490   6.457   3.112  0.1615  0.2861 -0.1872
29218SOL    HW194704   4.451   6.419   3.191  1.0801  1.0034  0.6417
29218SOL    HW294705   4.499   6.550   3.132  1.3281  0.3132 -0.7429
29219SOL     OW94706   1.521   2.814   5.194  0.7151  0.4051  0.1334
29219SOL    HW194707   1.566   2.875   5.252 -0.4817 -0.2617  1.8471
29219SOL    HW294708   1.584   2.794   5.125  1.5710  2.5662  0.2293
29220SOL     OW94709   8.608   3.928   8.657 -0.2535  0.1111  0.0077
29220SOL    HW194710   8.544   3.911   8.587 -0.6847  1.0244  0.1547
29220SOL    HW294711   8.593   3.859   8.721 -0.1347 -0.4980 -0.6063
29221SOL     OW94712   2.901  11.753   7.760  0.1578  0.0337 -0.5724
29221SOL    HW194713   2.951  11.706   7.827  0.1837 -1.2607 -1.4497
29221SOL    HW294714   2.860  11.825   7.807  1.2633 -0.0343  0.5530
29222SOL     OW94715   9.381   8.718   0.299  0.0184  0.2814 -0.0191
29222SOL    HW194716   9.391   8.784   0.230  0.1741 -0.2672 -0.5329
29222SOL    HW294717   9.422   8.639   0.263 -0.9471 -0.3493  0.2233
29223SOL     OW94718   5.267   0.007  10.389 -1.2274  0.5615 -0.0497
29223SOL    HW194719   5.349   0.057  10.388 -0.6563 -0.3099  0.9077
29223SOL    HW294720   5.260  -0.031  10.302 -1.8746  2.5927 -0.9250
29224SOL     OW94721   7.128   1.777   6.033 -0.2069 -0.2963  0.0777
29224SOL    HW194722   7.185   1.797   5.958  0.8146 -2.4834  0.1780
29224SOL    HW294723   7.039   1.791   6.000  0.3136  1.7808 -0.5457
29225SOL     OW94724   8.924  12.318   2.302  0.4835 -0.2860 -0.1173
29225SOL    HW194725   8.866  12.387   2.270  0.5415 -0.0017  0.3730
29225SOL    HW294726   9.006  12.330   2.253 -0.0060 -0.9693 -1.1355
29226SOL     OW94727  10.652   2.145   3.372  0.2427  0.0824  0.2358
29226SOL    HW194728  10.738   2.102   3.377 -0.0528 -0.5493  0.0080
29226SOL    HW294729  10.589   2.074   3.386 -0.2365  0.6139  0.8415
29227SOL     OW94730   0.497   8.101   9.259 -0.0975  0.1586  0.4290
29227SOL    HW194731   0.539   8.117   9.174 -0.2383 -0.9531  0.1321
29227SOL    HW294732   0.555   8.039   9.302  0.1950  1.0424  1.3401
29228SOL     OW94733   7.797   6.343   4.581  0.8764  0.0670 -0.1677
29228SOL    HW194734   7.734   6.271   4.585 -1.4984  1.7946 -2.3060
29228SOL    HW294735   7.874   6.311   4.628 -1.5402 -2.2171  2.6461
29229SOL     OW94736   7.077   6.079   7.102  0.1685  0.1129 -0.3966
29229SOL    HW194737   7.159   6.069   7.151 -0.3356  1.0060  0.6735
29229SOL    HW294738   7.013   6.029   7.153 -0.2427  0.5847 -0.4440
29230SOL     OW94739   3.560   1.423   4.519 -0.0846  0.2803  0.2345
29230SOL    HW194740   3.581   1.515   4.500  0.5486 -0.1396 -1.2332
29230SOL    HW294741   3.616   1.401   4.593  0.4280  0.8363  0.0271
29231SOL     OW94742   7.842   4.197   0.540  0.1365  0.3236  0.3575
29231SOL    HW194743   7.776   4.264   0.553 -0.3798 -0.1193  0.0392
29231SOL    HW294744   7.816   4.125   0.598  1.3735  0.8616  1.6578
29232SOL     OW94745   2.589  11.754   1.934 -0.6830 -0.1875  0.4958
29232SOL    HW194746   2.652  11.827   1.928 -1.2377  0.4295  1.8381
29232SOL    HW294747   2.639  11.677   1.906  0.2492  0.5260  0.1514
29233SOL     OW94748   8.296  10.654   6.741  0.1300  0.5637  0.2499
29233SOL    HW194749   8.270  10.564   6.761  0.2509  0.6708  0.9072
29233SOL    HW294750   8.217  10.706   6.758 -0.3453  0.4322 -1.4108
29234SOL     OW94751  11.544   6.388  12.159  0.2947  0.2041 -0.1015
29234SOL    HW194752  11.460   6.349  12.133  1.1294 -0.3591 -2.1074
29234SOL    HW294753  11.599   6.313  12.181  0.8439  0.4461 -0.6308
29235SOL     OW94754   6.091   1.023  11.052  0.4798 -0.1385 -0.5282
29235SOL    HW194755   6.060   1.060  11.135  0.8709 -0.5630 -0.1911
29235SOL    HW294756   6.148   0.950  11.078 -0.1242 -0.8603 -1.1757
29236SOL     OW94757  10.235   5.964   4.498 -0.1835 -0.0693 -0.2098
29236SOL    HW194758  10.226   5.873   4.526 -1.3532  0.0427 -0.1792
29236SOL    HW294759  10.278   6.008   4.571  0.3261 -0.5721 -0.1988
29237SOL     OW94760  10.301  12.265   8.453  0.0266 -0.3287  0.4076
29237SOL    HW194761  10.268  12.337   8.507  0.0638 -0.5470  0.7263
29237SOL    HW294762  10.251  12.189   8.482  1.6388 -0.9314  1.7982
29238SOL     OW94763   2.622   4.131   4.970  0.0054 -0.0639 -0.0774
29238SOL    HW194764   2.701   4.089   4.937  1.0365  1.7978 -0.1018
29238SOL    HW294765   2.636   4.225   4.956 -1.9819  0.3587  0.4094
29239SOL     OW94766  12.479  10.084   4.011  0.5064  0.0193 -0.3619
29239SOL    HW194767  12.535  10.007   3.999 -0.1500 -0.3768 -0.9477
29239SOL    HW294768  12.393  10.048   4.035  0.2100  0.5703 -0.5727
29240SOL     OW94769   4.470   0.450   3.934 -0.1641  0.7764 -0.0427
29240SOL    HW194770   4.455   0.465   4.027 -0.9844 -0.1252 -0.0072
29240SOL    HW294771   4.383   0.442   3.896  0.1613  1.0352 -0.8731
29241SOL     OW94772   1.875   9.447  11.718  0.0645  0.4393  0.2665
29241SOL    HW194773   1.858   9.497  11.638 -1.5456 -0.2534  0.1280
29241SOL    HW294774   1.888   9.513  11.785  3.5290  1.0980 -0.8463
29242SOL     OW94775   7.378   7.979  11.544 -0.3121 -0.5269  0.4142
29242SOL    HW194776   7.284   7.975  11.557 -0.2745  1.1632  1.4663
29242SOL    HW294777   7.407   8.056  11.593  1.9664 -2.2947  2.0856
29243SOL     OW94778   2.442   8.658   1.059  0.2302  0.3456  0.2256
29243SOL    HW194779   2.507   8.718   1.095  1.0120 -0.9054  0.9644
29243SOL    HW294780   2.491   8.578   1.041 -0.8194 -0.1265 -0.6053
29244SOL     OW94781   3.767   2.109   6.206  0.2153 -0.5297 -0.2161
29244SOL    HW194782   3.807   2.190   6.237  0.2466 -0.3079 -0.8362
29244SOL    HW294783   3.706   2.085   6.276 -1.9330  1.5541 -1.2457
29245SOL     OW94784  10.635   0.076   3.110 -0.2243 -0.2671 -0.7372
29245SOL    HW194785  10.574   0.136   3.153 -0.3256  0.1607 -1.4544
29245SOL    HW294786  10.643   0.003   3.171  0.2191  0.6463  0.3466
29246SOL     OW94787   8.137   2.779   0.132  0.7926  0.4700  0.4896
29246SOL    HW194788   8.188   2.750   0.056  1.5587 -0.4505  1.3179
29246SOL    HW294789   8.058   2.818   0.095  0.3696 -1.4461 -0.7705
29247SOL     OW94790   0.734   1.753   6.117  0.1949  0.2794 -0.0803
29247SOL    HW194791   0.667   1.778   6.181 -0.7707 -2.5947  0.1469
29247SOL    HW294792   0.796   1.700   6.167  0.8783  0.2177 -0.9858
29248SOL     OW94793   5.317   4.079   7.408  0.2422 -0.4046 -0.1935
29248SOL    HW194794   5.408   4.061   7.384  0.4339  0.0182  0.2055
29248SOL    HW294795   5.268   4.007   7.369  1.0055 -1.9537  1.5207
29249SOL     OW94796   7.805  11.781   0.061 -0.2892  0.0978  0.1771
29249SOL    HW194797   7.827  11.690   0.077  2.4120  0.4905 -0.7793
29249SOL    HW294798   7.722  11.795   0.108  0.5199 -2.1415  2.5046
29250SOL     OW94799   6.318   4.229   2.901  0.3872  0.7330 -0.3018
29250SOL    HW194800   6.337   4.139   2.875  0.9790  1.1390 -1.2863
29250SOL    HW294801   6.337   4.230   2.995 -0.8110 -0.4768 -0.0113
29251SOL     OW94802   2.022  10.650   7.876 -0.2503  0.0100 -0.0950
29251SOL    HW194803   2.105  10.697   7.870  1.7436 -2.9283  1.7134
29251SOL    HW294804   1.974  10.695   7.946 -0.0087  1.4528 -0.8255
29252SOL     OW94805  11.127   0.024   0.678  0.3739  0.1906  0.0896
29252SOL    HW194806  11.123  -0.045   0.611 -2.6667  0.9849 -0.7032
29252SOL    HW294807  11.095  -0.019   0.758 -2.9161  0.8529 -0.7271
29253SOL     OW94808  12.027  10.366  11.328  0.2100 -0.1763 -0.2415
29253SOL    HW194809  11.938  10.383  11.357 -0.4469 -1.8029 -1.1720
29253SOL    HW294810  12.025  10.275  11.298  1.5353  0.5306 -2.6962
29254SOL     OW94811   0.001   0.662   0.197  0.7930  0.3454 -0.0386
29254SOL    HW194812  -0.046   0.740   0.226 -1.8868 -1.0766 -0.1834
29254SOL    HW294813  -0.005   0.664   0.102 -1.5201 -1.1644 -0.0116
29255SOL     OW94814  11.868  10.146   4.045  0.7539 -0.0027 -0.6396
29255SOL    HW194815  11.773  10.149   4.046  0.7314 -0.6670 -0.3208
29255SOL    HW294816  11.896  10.232   4.078  0.2618 -0.2760  0.5211
29256SOL     OW94817   1.610  12.576  10.027 -0.0186 -0.1846 -0.8672
29256SOL    HW194818   1.611  12.480  10.026 -1.8995 -0.2374 -0.9246
29256SOL    HW294819   1.621  12.600  10.119 -0.8227 -0.4955 -0.6877
29257SOL     OW94820   8.322   8.860   5.809 -0.0558  0.3832 -0.5163
29257SOL    HW194821   8.330   8.829   5.899 -0.4375  0.4602 -0.4548
29257SOL    HW294822   8.314   8.955   5.817 -0.5294  0.3526 -0.6050
29258SOL     OW94823   4.414  12.037   6.781 -0.2767 -0.3767 -0.2582
29258SOL    HW194824   4.336  11.987   6.755 -1.4880  0.2916  1.8565
29258SOL    HW294825   4.380  12.105   6.840  2.0382 -0.9123  1.8632
29259SOL     OW94826   5.243   4.215  12.191 -0.5056 -0.5969 -0.6627
29259SOL    HW194827   5.252   4.122  12.168  0.8091 -0.4913 -0.6760
29259SOL    HW294828   5.255   4.217  12.286  1.3063 -0.2750 -0.8623
29260SOL     OW94829   0.897   6.700   7.782 -0.5778  0.1946 -0.2978
29260SOL    HW194830   0.887   6.716   7.688 -0.1897 -1.3763 -0.6540
29260SOL    HW294831   0.887   6.605   7.791  0.4503  0.1761  1.0921
29261SOL     OW94832  10.760   6.505   2.434  0.6933  0.1002  0.3991
29261SOL    HW194833  10.774   6.595   2.407 -1.2374  1.0120  2.1539
29261SOL    HW294834  10.757   6.455   2.352  1.2485  1.6952 -0.6345
29262SOL     OW94835   8.230  11.163   6.556  0.5372 -0.1802  0.4647
29262SOL    HW194836   8.137  11.171   6.579  0.8202  1.6743  1.1846
29262SOL    HW294837   8.231  11.164   6.460 -0.2074 -0.6411  0.4447
29263SOL     OW94838   2.721  11.194   6.816  0.7594 -0.0861  0.3503
29263SOL    HW194839   2.772  11.132   6.868 -0.6470 -0.6870  1.0872
29263SOL    HW294840   2.739  11.279   6.856  1.5522 -0.2176  0.2850
29264SOL     OW94841   0.085   4.512   1.822 -0.0198  0.0380  0.5883
29264SOL    HW194842   0.031   4.570   1.876 -1.0325  0.2055 -0.5537
29264SOL    HW294843   0.053   4.526   1.733  1.2189 -0.6584  0.0144
29265SOL     OW94844   3.465  10.761  11.663 -0.4779  0.0625 -0.0104
29265SOL    HW194845   3.543  10.776  11.609 -1.1076 -0.4635 -1.0975
29265SOL    HW294846   3.498  10.762  11.753  0.9025 -0.8132 -0.4722
29266SOL     OW94847   9.570   8.134   2.723  0.0024  0.1983 -0.3334
29266SOL    HW194848   9.590   8.084   2.802  0.2357  0.9101  0.0637
29266SOL    HW294849   9.639   8.110   2.662 -0.6377 -0.9856 -0.6258
29267SOL     OW94850   9.576   7.942   7.738 -0.8458  0.3447 -0.0350
29267SOL    HW194851   9.647   8.001   7.764  1.4513 -2.4364  0.3970
29267SOL    HW294852   9.551   7.897   7.819 -2.5185  0.6199 -0.3627
29268SOL     OW94853  10.249   8.125   1.599  0.0059 -0.2176  0.3445
29268SOL    HW194854  10.334   8.087   1.581  0.2236  0.9210 -1.2149
29268SOL    HW294855  10.188   8.052   1.592  0.7129 -0.8070  0.2433
29269SOL     OW94856   0.086   2.132   8.709  0.5722 -0.2994  0.3493
29269SOL    HW194857   0.114   2.072   8.778  0.1128  0.0382  0.8439
29269SOL    HW294858  -0.008   2.144   8.725  0.0033 -1.7928 -1.5427
29270SOL     OW94859   6.017  10.485   2.261  0.5162  0.2755  0.2657
29270SOL    HW194860   5.932  10.500   2.301  0.1881 -0.6967 -0.0191
29270SOL    HW294861   6.049  10.572   2.236 -0.7976  0.5732 -0.4290
29271SOL     OW94862   9.532   6.147   3.344  0.0096  0.6465  0.5946
29271SOL    HW194863   9.491   6.176   3.263 -0.5352 -2.3726 -0.3513
29271SOL    HW294864   9.626   6.151   3.325 -0.1133 -0.2794 -0.3458
29272SOL     OW94865   7.933  11.817   2.286 -0.0181 -0.0661  0.6229
29272SOL    HW194866   7.843  11.813   2.317  0.5382  0.4410  2.4426
29272SOL    HW294867   7.963  11.727   2.287 -0.6936 -0.3227 -0.6595
29273SOL     OW94868  11.937   6.703   2.912 -0.0673 -0.1336 -0.2540
29273SOL    HW194869  11.847   6.714   2.882  0.3734  0.1281 -1.5275
29273SOL    HW294870  11.952   6.775   2.973 -0.4441  0.3349 -0.7111
29274SOL     OW94871  12.320  10.381   8.748 -0.2359 -0.4143  0.5785
29274SOL    HW194872  12.277  10.463   8.771 -1.5736 -0.8142 -0.4107
29274SOL    HW294873  12.248  10.318   8.736  0.6980 -1.4679  0.2909
29275SOL     OW94874   8.678  10.374   1.346 -0.0003  0.4789  0.2304
29275SOL    HW194875   8.587  10.344   1.351 -0.5567  1.8147 -0.9218
29275SOL    HW294876   8.672  10.470   1.350  1.4887  0.5572  1.5134
29276SOL     OW94877   8.043   6.566   1.945  0.0353  0.2102  0.0596
29276SOL    HW194878   7.960   6.584   1.901  0.8762 -1.1890 -2.2723
29276SOL    HW294879   8.037   6.473   1.969  1.6718 -0.5136 -2.0601
29277SOL     OW94880   6.483  11.021   0.225 -0.0689 -0.3505  0.4346
29277SOL    HW194881   6.513  11.112   0.225 -0.9162 -0.0335  2.1097
29277SOL    HW294882   6.495  10.992   0.135  1.1459  1.1004  0.0816
29278SOL     OW94883   4.686  11.773   0.402  0.4943  0.3265  0.4179
29278SOL    HW194884   4.751  11.722   0.353 -0.5453  2.1626 -3.2090
29278SOL    HW294885   4.637  11.707   0.452  1.8141 -1.6953 -0.7773
29279SOL     OW94886   4.975   7.812   3.774 -0.5229 -0.5104  0.0262
29279SOL    HW194887   4.916   7.850   3.709  0.6360 -0.3453 -0.9658
29279SOL    HW294888   4.921   7.800   3.852 -1.8312 -0.2908 -0.8228
29280SOL     OW94889   6.843  11.972   5.441  0.1050 -0.0955  0.0570
29280SOL    HW194890   6.923  11.920   5.425  0.0908 -0.1806  0.2554
29280SOL    HW294891   6.772  11.915   5.412  0.1205  0.0055 -0.1775
29281SOL     OW94892   3.036   4.463   8.856  0.3518  0.5844  0.0467
29281SOL    HW194893   2.954   4.505   8.881 -0.4468 -0.2129 -1.1623
29281SOL    HW294894   3.057   4.405   8.930 -0.4380  0.4241  0.1524
29282SOL     OW94895   2.055   1.988   6.564 -0.1025 -0.6347  0.2418
29282SOL    HW194896   2.089   1.899   6.558  0.0566 -0.5195 -0.8593
29282SOL    HW294897   1.966   1.977   6.598 -0.1826 -1.2444 -0.1390
29283SOL     OW94898   0.686   6.117   0.938 -0.0253 -0.5384  0.6015
29283SOL    HW194899   0.771   6.098   0.899  0.6586  1.2848  1.0999
29283SOL    HW294900   0.623   6.078   0.878  1.1290 -1.1726 -0.2414
29284SOL     OW94901  12.559  11.516   7.374 -0.4456  0.0283  0.3421
29284SOL    HW194902  12.602  11.473   7.301 -0.6694  1.8244 -0.9110
29284SOL    HW294903  12.575  11.458   7.449  2.5605 -0.2812 -0.4171
29285SOL     OW94904  11.311   5.527   5.923  0.5542 -0.0676 -0.8248
29285SOL    HW194905  11.363   5.607   5.916 -0.3728  0.4283 -2.2942
29285SOL    HW294906  11.323   5.482   5.840  1.6894 -1.9056  0.2460
29286SOL     OW94907  12.564   1.475  10.834 -0.4980  0.1016  0.2480
29286SOL    HW194908  12.469   1.481  10.847 -0.6836  0.7148 -1.2637
29286SOL    HW294909  12.601   1.525  10.907 -1.3283 -0.0259  0.7702
29287SOL     OW94910   6.423  10.315   3.605  0.2392  0.1471  0.2471
29287SOL    HW194911   6.411  10.341   3.513 -1.8699  0.1436  0.4787
29287SOL    HW294912   6.398  10.222   3.607 -1.7101  0.6309  1.1261
29288SOL     OW94913   9.987   0.222   4.398 -0.5545 -0.2107  0.1218
29288SOL    HW194914   9.984   0.317   4.401  0.6739 -0.1651  2.8982
29288SOL    HW294915   9.903   0.194   4.435 -0.1814 -0.1545  1.0315
29289SOL     OW94916   7.383  10.138  11.799 -0.2447 -0.3069 -0.1060
29289SOL    HW194917   7.318  10.104  11.739  1.5520  0.1755 -2.4577
29289SOL    HW294918   7.365  10.232  11.805  0.1950 -0.1747 -0.7527
29290SOL     OW94919   0.143   4.517   9.454  0.6225 -0.1266 -0.1375
29290SOL    HW194920   0.211   4.584   9.450  0.8050 -0.3604 -1.4829
29290SOL    HW294921   0.178   4.450   9.512 -0.4826  1.8629  3.1197
29291SOL     OW94922  11.931   4.569  10.343  0.5617 -0.3737  0.1944
29291SOL    HW194923  11.906   4.566  10.251 -1.0585  1.5586  0.5018
29291SOL    HW294924  11.868   4.512  10.387  0.0765  0.2231  0.3011
29292SOL     OW94925   1.894   4.646   6.901 -0.0276 -0.2183 -0.5274
29292SOL    HW194926   1.817   4.590   6.917 -1.1028  1.3468 -0.0235
29292SOL    HW294927   1.882   4.720   6.959  0.9053  0.9946 -1.8200
29293SOL     OW94928  10.550   1.804   3.811  0.0294 -0.9166  0.5970
29293SOL    HW194929  10.455   1.813   3.819  0.0701 -0.5593  0.7048
29293SOL    HW294930  10.585   1.887   3.845  0.3541 -0.8236  0.0564
29294SOL     OW94931   0.913   1.028   6.229 -0.2608 -0.3362  0.3033
29294SOL    HW194932   0.930   1.043   6.136 -0.0173  1.5872  0.6189
29294SOL    HW294933   0.846   1.092   6.252  0.8931  0.4063  1.8029
29295SOL     OW94934  10.878   1.543  10.654  0.0471 -0.0006 -0.1147
29295SOL    HW194935  10.919   1.457  10.666  1.6369  0.7292  0.0541
29295SOL    HW294936  10.863   1.550  10.560  0.5437 -0.2021 -0.2109
29296SOL     OW94937   8.172   4.711   5.983 -0.4408  0.1636 -0.2013
29296SOL    HW194938   8.239   4.779   5.974  1.4578 -1.5527  0.1453
29296SOL    HW294939   8.145   4.691   5.893  0.5726 -0.0836 -0.4650
29297SOL     OW94940   7.082   9.627   3.499  0.0519  0.1581  0.1896
29297SOL    HW194941   6.995   9.610   3.464  0.6982 -0.1264 -1.3691
29297SOL    HW294942   7.141   9.613   3.424  1.3170  1.6842  0.8581
29298SOL     OW94943   7.212  12.500   8.417  0.0068  0.0540  0.7519
29298SOL    HW194944   7.176  12.444   8.349  0.6806  0.1235  0.3272
29298SOL    HW294945   7.175  12.586   8.400  0.0218  0.0288  0.5883
29299SOL     OW94946   3.661   2.324   8.556 -0.5250  0.6261 -0.6784
29299SOL    HW194947   3.727   2.257   8.537 -0.5928  1.0477 -2.6352
29299SOL    HW294948   3.657   2.328   8.652  1.9515  0.2670 -0.4986
29300SOL     OW94949   3.966   1.520   4.064 -0.1117  0.4028 -0.3015
29300SOL    HW194950   4.034   1.455   4.048  0.1327  0.3677  0.7817
29300SOL    HW294951   3.888   1.485   4.021  0.7088  0.7907 -2.1919
29301SOL     OW94952   4.806  11.858   5.061  0.1566  0.0233  0.1689
29301SOL    HW194953   4.755  11.902   5.128  1.0063  0.5190  0.5069
29301SOL    HW294954   4.785  11.765   5.071 -1.3058  0.2735 -0.2523
29302SOL     OW94955   8.265   8.680   7.637 -0.1410 -0.1410 -0.1463
29302SOL    HW194956   8.347   8.647   7.673 -0.6650 -1.1361  0.1850
29302SOL    HW294957   8.271   8.775   7.645  0.4912 -0.2593  0.9206
29303SOL     OW94958   9.864   0.505   4.561  0.7765  0.3017 -0.3194
29303SOL    HW194959   9.886   0.506   4.654  1.6069  0.5049 -0.5076
29303SOL    HW294960   9.797   0.572   4.551 -1.3966 -1.6214  0.5954
29304SOL     OW94961   7.183  10.229   7.610 -0.0451  0.0906  0.3071
29304SOL    HW194962   7.214  10.318   7.628 -1.5412  0.8477 -0.6525
29304SOL    HW294963   7.098  10.224   7.652  0.3972 -1.2227  1.1016
29305SOL     OW94964   5.872   0.074  10.222  0.0533  0.0647  0.0982
29305SOL    HW194965   5.849   0.033  10.305 -1.6704 -0.8966 -0.7961
29305SOL    HW294966   5.820   0.155  10.220  0.3995  0.2870  0.1360
29306SOL     OW94967   4.271   2.285   4.608 -0.7498 -0.1642 -0.4562
29306SOL    HW194968   4.279   2.379   4.589  0.3821 -0.0921  0.3333
29306SOL    HW294969   4.254   2.245   4.522  0.2968  0.5979 -1.0424
29307SOL     OW94970  11.654   2.533   7.049 -0.1377  0.0117  0.6683
29307SOL    HW194971  11.662   2.444   7.084  1.0359 -1.1266 -2.1282
29307SOL    HW294972  11.573   2.532   6.999  0.0985  0.3488  0.2672
29308SOL     OW94973  11.107   2.333   3.317  0.4915  0.5185 -0.2369
29308SOL    HW194974  11.123   2.335   3.411 -0.2739 -0.2933 -0.0815
29308SOL    HW294975  11.029   2.387   3.305 -1.0767 -1.6060 -0.0342
29309SOL     OW94976   6.364   2.510   8.470  0.0551  0.1586  0.5117
29309SOL    HW194977   6.282   2.512   8.520  0.2421 -1.6490  0.9742
29309SOL    HW294978   6.415   2.440   8.511  1.2480  0.2984 -0.6674
29310SOL     OW94979   3.442   2.323   1.430 -0.0442  0.3238  0.0062
29310SOL    HW194980   3.520   2.313   1.375  0.2821 -1.3659  0.7021
29310SOL    HW294981   3.447   2.412   1.463  2.1081 -0.0107  0.7538
29311SOL     OW94982   4.396   9.893   7.551  0.0075  0.2938 -0.3082
29311SOL    HW194983   4.467   9.907   7.489  0.3553  1.2505  0.2781
29311SOL    HW294984   4.439   9.889   7.636 -0.5264 -0.3816 -0.0595
29312SOL     OW94985   1.936   9.799  10.881 -0.1921  0.4131 -0.0313
29312SOL    HW194986   2.015   9.853  10.880 -0.2512  0.5833  1.5958
29312SOL    HW294987   1.867   9.856  10.847 -0.0911  1.1229  0.9117
29313SOL     OW94988   9.202   8.862  12.063 -0.4587 -0.6332 -0.0209
29313SOL    HW194989   9.119   8.903  12.089 -0.3028  1.0111 -1.8535
29313SOL    HW294990   9.252   8.933  12.023  0.7163 -2.1769 -1.4457
29314SOL     OW94991   0.896   5.138   4.480 -0.1207 -0.4131 -0.3335
29314SOL    HW194992   0.917   5.077   4.551  0.3899  0.6435  0.4458
29314SOL    HW294993   0.972   5.195   4.474 -0.5654  0.1076 -1.0963
29315SOL     OW94994  10.745   1.102   2.704 -0.2956 -0.0183  0.0234
29315SOL    HW194995  10.726   1.008   2.697 -2.1379  0.3188 -0.1626
29315SOL    HW294996  10.731   1.136   2.616 -0.2928  0.5342  0.2337
29316SOL     OW94997   4.749   0.450   3.244  0.0313 -0.3285  0.1736
29316SOL    HW194998   4.695   0.464   3.322 -1.8260 -1.8266 -0.7447
29316SOL    HW294999   4.833   0.490   3.265 -0.6515 -0.0211  2.6307
29317SOL     OW95000   4.599   9.543   7.954  0.4300  0.6201 -0.8181
29317SOL    HW195001   4.633   9.624   7.992  0.0638  0.1213  0.6278
29317SOL    HW295002   4.504   9.553   7.957  0.3826  0.1206 -0.5900
29318SOL     OW95003   5.235   2.998   6.377  0.5805  0.2277  0.4083
29318SOL    HW195004   5.290   2.929   6.415  0.3547 -0.2165 -0.0498
29318SOL    HW295005   5.280   3.022   6.296  0.0034 -0.3022 -0.0881
29319SOL     OW95006   3.610   3.900  10.680  0.3400  0.2076 -0.2538
29319SOL    HW195007   3.558   3.900  10.761  0.7269 -0.0112 -0.0034
29319SOL    HW295008   3.690   3.946  10.704  0.4512  0.1493 -0.5198
29320SOL     OW95009  10.153   2.405  12.344 -0.0269  0.3984 -0.5463
29320SOL    HW195010  10.060   2.425  12.345 -0.1082  0.0222  0.3844
29320SOL    HW295011  10.191   2.469  12.284 -0.9105  0.4147 -1.0914
29321SOL     OW95012   2.232   6.186   4.439 -0.1808  0.4054 -0.1959
29321SOL    HW195013   2.315   6.144   4.415 -0.0818  0.0750  0.6868
29321SOL    HW295014   2.203   6.228   4.359 -0.3545 -1.4791 -1.1855
29322SOL     OW95015   2.503   1.760   3.115 -0.1173 -0.3935 -0.2554
29322SOL    HW195016   2.595   1.734   3.107  0.2066  0.6499 -0.1414
29322SOL    HW295017   2.498   1.844   3.070 -1.0023 -0.3997 -0.1842
29323SOL     OW95018   3.804   4.068   4.755 -0.3694 -0.1753 -0.1623
29323SOL    HW195019   3.741   4.048   4.824  0.3586  0.3339  0.6750
29323SOL    HW295020   3.804   3.991   4.698 -0.9815 -0.5989  0.4027
29324SOL     OW95021   0.381   4.195   1.772 -0.0836  0.1128  0.0306
29324SOL    HW195022   0.402   4.127   1.708  0.2822  0.1989  0.0620
29324SOL    HW295023   0.438   4.177   1.846  1.9145  1.9565 -0.9476
29325SOL     OW95024   0.401   5.860   3.282  0.0562  0.2012  0.2585
29325SOL    HW195025   0.372   5.813   3.360 -0.8930 -1.7776 -1.1970
29325SOL    HW295026   0.321   5.897   3.245  0.5351  1.3716  0.3466
29326SOL     OW95027   7.314   8.206   6.238 -0.0239 -0.2875  0.1984
29326SOL    HW195028   7.357   8.190   6.322  0.0552 -0.2518  0.1638
29326SOL    HW295029   7.269   8.290   6.250 -0.0033 -0.2768  0.2005
29327SOL     OW95030   4.604   8.369   1.841 -0.0544 -0.2159 -0.2533
29327SOL    HW195031   4.690   8.328   1.829 -0.0722 -0.6794  1.0844
29327SOL    HW295032   4.614   8.456   1.802  1.2073 -0.0554  0.3617
29328SOL     OW95033   9.230  11.218  11.506 -0.3665 -0.1327  0.4584
29328SOL    HW195034   9.296  11.286  11.492 -1.8780  1.4727  0.7842
29328SOL    HW295035   9.172  11.224  11.430 -0.1246 -1.5886  0.1253
29329SOL     OW95036   9.659   7.275   9.871 -0.1540 -0.4709  0.1031
29329SOL    HW195037   9.697   7.208   9.928 -0.8735 -0.7260  0.2944
29329SOL    HW295038   9.695   7.256   9.785 -0.8075 -1.4834  0.0342
29330SOL     OW95039   0.237   7.341   7.211  0.3220  0.0411  0.2335
29330SOL    HW195040   0.313   7.387   7.176  1.4164 -1.1806  0.8989
29330SOL    HW295041   0.264   7.313   7.298 -0.9599 -0.2798  0.5492
29331SOL     OW95042   6.678   1.134   0.719 -0.2057 -0.0891 -0.0676
29331SOL    HW195043   6.716   1.207   0.767  0.1822 -0.5767  0.3721
29331SOL    HW295044   6.744   1.064   0.724 -0.8831 -0.7288  0.1651
29332SOL     OW95045  10.726   7.837   0.779  0.0801  0.0203 -0.5800
29332SOL    HW195046  10.787   7.763   0.772 -0.0652 -0.2637  0.8858
29332SOL    HW295047  10.751   7.896   0.708  2.2652  0.0482  0.1563
29333SOL     OW95048  11.890   7.955   6.287 -0.1338 -0.1402 -0.3553
29333SOL    HW195049  11.936   7.916   6.214 -2.5144 -1.2037 -1.3901
29333SOL    HW295050  11.908   7.898   6.361  1.6310  0.4944 -0.2535
29334SOL     OW95051   6.366   6.272  10.236 -0.7831  0.5873  0.7210
29334SOL    HW195052   6.290   6.303  10.186  0.0907  0.7571 -0.5449
29334SOL    HW295053   6.430   6.343  10.227 -0.9529  1.1026  3.0006
29335SOL     OW95054   2.988   1.077   7.805 -0.7463 -0.1790  0.0087
29335SOL    HW195055   3.060   1.015   7.817 -0.2690  0.7173  2.4515
29335SOL    HW295056   2.917   1.025   7.768  0.0778 -1.8766  0.6936
29336SOL     OW95057   7.029   8.872   6.519  0.0788  0.4057 -0.0080
29336SOL    HW195058   7.017   8.857   6.613 -0.6197 -0.8596 -0.2727
29336SOL    HW295059   7.124   8.871   6.507  0.1930  1.0551  0.7424
29337SOL     OW95060   6.188   1.947   2.149 -0.0144  0.2178 -0.0531
29337SOL    HW195061   6.202   1.958   2.055 -3.0045  2.2273 -0.4179
29337SOL    HW295062   6.124   1.875   2.156  2.2918 -1.8891  0.7523
29338SOL     OW95063  11.975   3.290   7.556  0.5057  0.5494  0.1018
29338SOL    HW195064  12.058   3.328   7.585  1.2691 -1.0114  0.0741
29338SOL    HW295065  11.984   3.285   7.461  0.6253 -0.1199  0.1418
29339SOL     OW95066   6.597  10.922   7.109 -0.7092  0.5073  0.4023
29339SOL    HW195067   6.514  10.932   7.064 -0.3811  2.4010  0.1282
29339SOL    HW295068   6.599  10.831   7.136 -1.9846 -0.0779 -1.3068
29340SOL     OW95069   0.174   4.297   3.717  0.1329  0.8897  0.0662
29340SOL    HW195070   0.251   4.336   3.759  0.5925  0.0820 -0.0144
29340SOL    HW295071   0.141   4.366   3.659  1.3347  0.9448 -0.5856
29341SOL     OW95072  10.000   5.376   1.180  0.7365  0.5389  0.2280
29341SOL    HW195073   9.927   5.316   1.192  0.3567  1.3355  2.3169
29341SOL    HW295074   9.971   5.436   1.111 -0.4540  0.6630  0.8244
29342SOL     OW95075   4.806  10.077   8.352 -0.1101 -0.1727 -0.0619
29342SOL    HW195076   4.817  10.101   8.444  0.2166  1.7862 -0.5523
29342SOL    HW295077   4.716  10.043   8.347 -0.1908 -0.1404  0.9549
29343SOL     OW95078  10.726   1.725   3.640 -0.0790  0.2507 -0.1265
29343SOL    HW195079  10.665   1.772   3.696  0.6788 -1.8345  2.6943
29343SOL    HW295080  10.685   1.639   3.628  0.7187 -0.0054 -1.1245
29344SOL     OW95081   2.565   7.481   6.367 -0.5405 -0.0285  0.4632
29344SOL    HW195082   2.617   7.481   6.287 -1.7288  0.7942 -0.3465
29344SOL    HW295083   2.493   7.541   6.349 -2.2367 -1.7189  1.2239
29345SOL     OW95084   1.667   3.731   6.824  0.2630 -0.4406 -0.1929
29345SOL    HW195085   1.571   3.732   6.825  0.2525  0.5369  1.9431
29345SOL    HW295086   1.690   3.768   6.739 -1.2833  1.8871  0.3099
29346SOL     OW95087   2.193  12.031   5.925  0.1955 -0.1025 -0.0513
29346SOL    HW195088   2.198  11.992   6.012  1.8911  0.0901 -0.0217
29346SOL    HW295089   2.277  12.008   5.884  0.1802  1.3432 -0.9581
29347SOL     OW95090   3.568  11.830   8.398  0.2115  0.4392 -0.3640
29347SOL    HW195091   3.609  11.915   8.383  1.7960 -0.2349 -0.0849
29347SOL    HW295092   3.632  11.781   8.449 -1.3928 -0.3493  0.9821
29348SOL     OW95093   4.344   6.515   7.580 -0.0132 -0.4065 -0.3527
29348SOL    HW195094   4.428   6.514   7.626  0.3402  2.6270 -0.7793
29348SOL    HW295095   4.357   6.457   7.505  2.0252  0.6377 -0.8815
29349SOL     OW95096   9.186   0.239   0.750 -0.1053 -0.2730  0.0060
29349SOL    HW195097   9.185   0.188   0.831 -0.5509 -0.9818 -0.4364
29349SOL    HW295098   9.162   0.328   0.778  1.7414 -0.0221  0.9436
29350SOL     OW95099   8.451   1.504   6.503 -0.4448 -0.3548 -0.0273
29350SOL    HW195100   8.402   1.435   6.548  1.7498 -0.6998  2.0073
29350SOL    HW295101   8.476   1.565   6.573  2.3487 -0.4420 -0.8344
29351SOL     OW95102  12.341   8.891   4.967 -0.4763  0.5301  0.2989
29351SOL    HW195103  12.293   8.834   5.028 -1.1888  0.8017  0.0034
29351SOL    HW295104  12.314   8.979   4.991  1.4103  0.8518  1.4253
29352SOL     OW95105   4.492  12.486   9.197 -0.1187  0.1906 -0.1027
29352SOL    HW195106   4.447  12.415   9.152 -0.6467 -0.6921  1.7299
29352SOL    HW295107   4.435  12.562   9.187 -0.6962 -0.2407 -0.0796
29353SOL     OW95108   2.298   9.528   4.930  0.6067 -0.1085  0.3201
29353SOL    HW195109   2.332   9.439   4.933 -0.5146 -0.5457  0.4887
29353SOL    HW295110   2.223   9.528   4.989  0.1553  0.7620 -0.2249
29354SOL     OW95111  10.259   0.819   3.756  0.0307  0.5774 -0.1556
29354SOL    HW195112  10.196   0.841   3.688  0.0477 -0.0585 -0.3780
29354SOL    HW295113  10.324   0.890   3.752 -0.9064  1.4920  0.3981
29355SOL     OW95114   9.542   6.765   6.339 -0.5984  0.4570 -0.1687
29355SOL    HW195115   9.492   6.830   6.290 -0.6477 -0.0745 -0.8445
29355SOL    HW295116   9.510   6.773   6.429 -2.5030 -0.4106 -0.7253
29356SOL     OW95117   5.473  10.240   2.492  0.0332 -0.4758  0.0597
29356SOL    HW195118   5.550  10.240   2.549  1.2540 -4.4273 -1.2477
29356SOL    HW295119   5.507  10.271   2.407 -0.3183 -0.3836 -0.0480
29357SOL     OW95120   9.175  11.662  11.513 -0.0573  0.9474  0.5632
29357SOL    HW195121   9.102  11.602  11.502  0.9397 -0.2857  0.4524
29357SOL    HW295122   9.236  11.616  11.572  0.2867  2.2634  1.2748
29358SOL     OW95123   4.866  11.199  10.724 -0.5601  0.2211 -0.0150
29358SOL    HW195124   4.957  11.180  10.749 -0.2810  1.1529 -0.2529
29358SOL    HW295125   4.813  11.139  10.776  0.1100  0.7401  1.3107
29359SOL     OW95126  10.506   7.339  12.429  0.5157  0.5612  0.5849
29359SOL    HW195127  10.410   7.333  12.419  0.7629 -1.4079 -1.6606
29359SOL    HW295128  10.527   7.273  12.494  0.5098 -1.1876 -1.0848
29360SOL     OW95129   9.235   5.165  10.937  0.1013  0.1410 -0.2055
29360SOL    HW195130   9.223   5.175  10.843  2.2657 -0.8642 -0.6514
29360SOL    HW295131   9.330   5.163  10.949 -0.1141 -1.1371  1.8233
29361SOL     OW95132   6.660   5.111  12.204 -0.7320 -0.2564  0.4436
29361SOL    HW195133   6.642   5.150  12.290  0.1230  2.2380 -0.4059
29361SOL    HW295134   6.745   5.068  12.214 -0.9484 -0.5607  1.0111
29362SOL     OW95135  11.672  11.784   3.908  0.2205 -0.0304  0.5585
29362SOL    HW195136  11.737  11.713   3.906  3.0727  2.3790 -0.2073
29362SOL    HW295137  11.655  11.803   3.816 -2.3149 -1.1170  0.7266
29363SOL     OW95138   0.354   9.996   7.604  0.2686 -0.0538  0.3135
29363SOL    HW195139   0.355   9.932   7.533 -1.9032  0.6711 -0.4824
29363SOL    HW295140   0.443  10.030   7.607  0.4658 -0.1860 -2.0363
29364SOL     OW95141   8.391   9.700   7.488  0.5161 -0.6790 -0.8486
29364SOL    HW195142   8.418   9.775   7.435 -1.5913 -0.2014 -1.3295
29364SOL    HW295143   8.394   9.731   7.578  2.4292 -0.9580 -0.7745
29365SOL     OW95144  12.515   3.770   0.316  0.4395  0.3050 -0.0007
29365SOL    HW195145  12.495   3.696   0.260  2.1136 -0.0594 -0.1769
29365SOL    HW295146  12.533   3.842   0.255 -2.3677  1.2712  0.1721
29366SOL     OW95147   3.396   9.547   3.071  0.2252  0.6738  0.2407
29366SOL    HW195148   3.330   9.496   3.118 -0.2593  0.0229 -1.1134
29366SOL    HW295149   3.385   9.524   2.979  0.5872  2.5651 -0.3304
29367SOL     OW95150   8.536  12.510   9.244 -0.5651  0.2272  0.2387
29367SOL    HW195151   8.461  12.493   9.301  0.4507 -0.4336  1.4382
29367SOL    HW295152   8.536  12.437   9.182 -0.2172 -0.4705  1.0315
29368SOL     OW95153   9.252   1.058   0.944 -0.2906 -0.5289  0.2510
29368SOL    HW195154   9.308   1.133   0.925 -1.9328  0.7583  0.3522
29368SOL    HW295155   9.167   1.079   0.905 -0.6080 -2.6776 -0.3917
29369SOL     OW95156   4.781  10.842  11.943  0.4392  0.0765 -0.2419
29369SOL    HW195157   4.830  10.850  11.862  0.1478  0.7292 -0.3590
29369SOL    HW295158   4.843  10.807  12.006  0.4339 -1.3185 -0.9680
29370SOL     OW95159   1.051   1.138  10.173 -0.7320 -0.2836 -0.1493
29370SOL    HW195160   1.105   1.215  10.157  0.4767 -0.8682  0.8857
29370SOL    HW295161   0.971   1.172  10.213 -0.5881  0.5013 -0.5167
29371SOL     OW95162   3.253  10.431   1.213  0.7360 -0.3779 -0.3155
29371SOL    HW195163   3.166  10.462   1.240  1.8114  3.0585 -0.2919
29371SOL    HW295164   3.240  10.340   1.189 -2.1762 -1.0464  2.9552
29372SOL     OW95165   4.669   9.471   3.666  0.2974 -0.0304  0.3697
29372SOL    HW195166   4.611   9.547   3.666  0.1106 -0.1582 -0.4268
29372SOL    HW295167   4.755   9.506   3.642  0.7558  0.2835  2.3234
29373SOL     OW95168  11.628   0.353  11.487  0.0086  0.4271 -0.0227
29373SOL    HW195169  11.711   0.389  11.455 -0.4821  1.7001  0.0835
29373SOL    HW295170  11.563   0.420  11.466 -0.6961  0.2941  1.5834
29374SOL     OW95171   9.956   2.738   5.374  0.3379 -0.0867  0.2062
29374SOL    HW195172   9.860   2.732   5.375  0.3398 -0.5145 -0.9751
29374SOL    HW295173   9.974   2.830   5.395 -0.3602  0.1433 -0.1601
29375SOL     OW95174   7.438   2.682   8.959 -0.3192  0.1776  0.3791
29375SOL    HW195175   7.354   2.718   8.931  0.7023  2.0940 -0.3718
29375SOL    HW295176   7.473   2.748   9.019  0.4246 -0.8616  1.1135
29376SOL     OW95177   9.984  12.443   3.213  0.3009  0.3542  0.6670
29376SOL    HW195178   9.943  12.528   3.197  0.4913  0.3573  0.1804
29376SOL    HW295179   9.914  12.389   3.248  0.2752  0.8299  1.3709
29377SOL     OW95180   9.330   1.532  11.082  0.7079 -0.5070 -0.2274
29377SOL    HW195181   9.312   1.454  11.134 -0.5848 -0.9092 -1.2459
29377SOL    HW295182   9.349   1.600  11.147  0.8647 -1.4191  0.7013
29378SOL     OW95183   0.190   0.923   4.286  0.5619  0.1769 -0.1571
29378SOL    HW195184   0.277   0.889   4.304  0.4444 -0.1989 -0.2722
29378SOL    HW295185   0.132   0.847   4.294  0.0941  0.6374  1.0212
29379SOL     OW95186  11.834   2.827   7.569 -0.4392  0.3140 -0.1909
29379SOL    HW195187  11.892   2.761   7.531  0.3664  1.3630 -0.8614
29379SOL    HW295188  11.893   2.884   7.619 -0.7041  1.9584 -1.6601
29380SOL     OW95189  11.244   2.936  12.412 -0.0983 -0.1348 -0.4361
29380SOL    HW195190  11.241   3.020  12.366  1.2950  1.0737  1.5453
29380SOL    HW295191  11.336   2.911  12.411 -0.2242 -0.6976  0.6000
29381SOL     OW95192   2.268   0.839  10.596  0.0950 -0.0326  0.4155
29381SOL    HW195193   2.211   0.837  10.673  0.4495  1.9835  0.7844
29381SOL    HW295194   2.353   0.868  10.629  0.0606  1.6474 -0.7848
29382SOL     OW95195   0.401  11.406   1.929 -0.2185  0.4786 -0.0316
29382SOL    HW195196   0.491  11.388   1.953  0.3727 -2.0900 -3.4095
29382SOL    HW295197   0.349  11.369   2.000  1.3756 -0.8579  0.5083
29383SOL     OW95198   2.845   8.883   0.044 -0.5562 -0.0335 -0.6522
29383SOL    HW195199   2.888   8.941  -0.018 -1.9157 -0.8991 -2.4884
29383SOL    HW295200   2.864   8.921   0.130  2.2233  0.6301 -1.4759
29384SOL     OW95201   2.247   5.246   7.985 -0.4421 -0.1066  0.7680
29384SOL    HW195202   2.327   5.195   7.993  0.3014  0.5861 -1.5263
29384SOL    HW295203   2.248   5.304   8.062  1.4743  0.1613  0.5822
29385SOL     OW95204   4.861   2.719   8.616  0.5733 -0.0340  0.9853
29385SOL    HW195205   4.802   2.772   8.668 -1.0951 -0.8405 -0.0156
29385SOL    HW295206   4.916   2.674   8.681 -0.0140  0.5802  1.9352
29386SOL     OW95207   2.477  12.251  12.449 -0.1825 -0.0585 -0.2212
29386SOL    HW195208   2.395  12.287  12.417  0.0337  0.0234 -0.6861
29386SOL    HW295209   2.512  12.318  12.507 -0.6538 -0.2752  0.3270
29387SOL     OW95210   8.043   5.665   1.355 -0.2348 -0.0800 -0.3454
29387SOL    HW195211   7.966   5.692   1.305 -0.2530  1.7522  0.6177
29387SOL    HW295212   8.064   5.740   1.410  2.3853 -0.4334 -0.7247
29388SOL     OW95213   1.225   8.284   8.129  0.2671  0.1397 -0.4023
29388SOL    HW195214   1.134   8.266   8.106 -0.5993  1.8921  1.3355
29388SOL    HW295215   1.260   8.330   8.052 -0.6330  0.3261 -0.7170
29389SOL     OW95216   4.796   7.105   0.969  0.1467  0.6389 -0.4003
29389SOL    HW195217   4.887   7.098   0.940  0.6464  1.9760  0.7694
29389SOL    HW295218   4.799   7.163   1.044 -1.5122 -0.4015  0.5246
29390SOL     OW95219   9.538   1.042   8.512 -0.6063  0.0613 -0.4892
29390SOL    HW195220   9.488   1.120   8.534 -2.2838 -0.6690 -1.5400
29390SOL    HW295221   9.591   1.067   8.436 -0.7630  0.3129 -0.5157
29391SOL     OW95222   0.398  11.472  10.014  0.2251 -0.2743 -0.1397
29391SOL    HW195223   0.459  11.546  10.003 -2.5142  2.0650 -0.8605
29391SOL    HW295224   0.411  11.445  10.105  0.0545  2.4107  0.7889
29392SOL     OW95225   1.550   8.629   1.804  0.1225 -0.2841  0.3143
29392SOL    HW195226   1.635   8.659   1.835 -0.2932  0.6639  0.5726
29392SOL    HW295227   1.492   8.640   1.879 -0.8116  1.6552 -0.6365
29393SOL     OW95228  11.679   5.242   1.998  0.1466 -0.0775  0.0064
29393SOL    HW195229  11.736   5.309   1.961  0.8319 -0.3210  0.5963
29393SOL    HW295230  11.601   5.289   2.025  0.6361  0.4991  0.4517
29394SOL     OW95231  12.421   1.157   7.254 -0.0964 -0.0182 -0.1947
29394SOL    HW195232  12.484   1.112   7.310 -0.3437 -0.9424 -0.6566
29394SOL    HW295233  12.419   1.247   7.288  2.0466  0.2534 -0.6558
29395SOL     OW95234   2.694   3.878   1.278  0.1227  0.5011  0.5344
29395SOL    HW195235   2.699   3.853   1.370  0.6879 -1.3340  0.0468
29395SOL    HW295236   2.780   3.855   1.242 -0.0885  1.1803 -0.4577
29396SOL     OW95237   8.668   3.423   9.101 -0.2365 -0.3902  0.2893
29396SOL    HW195238   8.635   3.353   9.045 -1.3711  1.7695 -1.9438
29396SOL    HW295239   8.598   3.489   9.100  1.4275  1.4731  0.9031
29397SOL     OW95240   1.485   8.075   5.739 -0.3577  0.1925 -0.1328
29397SOL    HW195241   1.524   7.997   5.701 -2.8781 -0.7525 -0.9296
29397SOL    HW295242   1.538   8.147   5.704  1.7080 -1.0509  0.2352
29398SOL     OW95243   8.705   0.166   4.477  0.1693  0.3300  0.2008
29398SOL    HW195244   8.762   0.205   4.411  1.4109 -0.4161  0.8080
29398SOL    HW295245   8.721   0.217   4.556  0.3784 -0.2144  0.5086
29399SOL     OW95246   7.027   8.550  11.883  0.6376 -0.3525  0.2577
29399SOL    HW195247   6.949   8.496  11.869 -1.0675  2.2439 -1.1753
29399SOL    HW295248   7.040   8.596  11.800  2.2764  1.0658  1.2187
29400SOL     OW95249   3.680   0.900   9.812 -0.0290 -0.0300  0.0693
29400SOL    HW195250   3.648   0.875   9.899 -1.9273  0.0362 -0.5491
29400SOL    HW295251   3.629   0.978   9.790  1.1095  0.5045 -0.7185
29401SOL     OW95252   4.605   6.055   7.888  0.1620  0.2356 -0.0528
29401SOL    HW195253   4.673   6.021   7.830  0.7729  1.1651  0.0871
29401SOL    HW295254   4.532   6.077   7.830  0.2122 -0.1960 -0.2821
29402SOL     OW95255   9.473   8.051   7.067  0.0569 -0.0405  0.1538
29402SOL    HW195256   9.397   8.003   7.034  0.2249 -0.2355  0.0451
29402SOL    HW295257   9.438   8.136   7.093 -0.2939 -0.3125  0.5940
29403SOL     OW95258   0.996   4.482  11.452  0.1853 -0.1892 -0.2568
29403SOL    HW195259   0.901   4.488  11.455  0.0917  1.3192 -3.0786
29403SOL    HW295260   1.014   4.399  11.408  0.1441 -0.0013 -0.6284
29404SOL     OW95261  11.654   1.218   8.009  0.2261 -0.3469  0.5217
29404SOL    HW195262  11.640   1.178   7.923  1.5379 -0.7769  0.4884
29404SOL    HW295263  11.602   1.165   8.069  0.4924 -0.9717  0.2073
29405SOL     OW95264   5.099   4.302   5.034 -0.4160  0.5633 -0.5491
29405SOL    HW195265   5.010   4.268   5.046  1.1907 -3.9955  0.0700
29405SOL    HW295266   5.127   4.327   5.122 -0.4994  0.4012 -0.4756
29406SOL     OW95267   1.301   2.594   8.787  0.1573  0.4837 -0.1761
29406SOL    HW195268   1.341   2.673   8.751 -0.4270  1.5878  1.4846
29406SOL    HW295269   1.207   2.615   8.793  0.3686  1.0757  3.4648
29407SOL     OW95270   3.517   4.644   5.773  0.1588  0.2934 -0.2643
29407SOL    HW195271   3.423   4.658   5.758  0.3602  1.6135 -0.4166
29407SOL    HW295272   3.524   4.550   5.792 -1.3234  0.3476  0.7524
29408SOL     OW95273   6.082   3.230   2.855  0.3025 -0.2434  0.1781
29408SOL    HW195274   6.166   3.264   2.825 -0.3304  0.8209 -0.4720
29408SOL    HW295275   6.099   3.197   2.943  1.4603 -0.3256 -0.0568
29409SOL     OW95276  10.720   8.817  11.209 -0.6841  0.2679  0.0298
29409SOL    HW195277  10.673   8.829  11.292  1.3291  0.1047  1.2638
29409SOL    HW295278  10.770   8.898  11.198  0.5809 -0.4756  0.0499
29410SOL     OW95279   0.120   0.225   9.948 -0.1133 -0.0608  0.0822
29410SOL    HW195280   0.060   0.240  10.021 -0.8914 -1.0087 -0.3360
29410SOL    HW295281   0.120   0.130   9.936  0.1736  0.0611 -1.0085
29411SOL     OW95282   6.975   1.213  12.365 -0.6444  0.3656  0.0748
29411SOL    HW195283   6.956   1.151  12.435 -1.1888 -0.0818 -0.4698
29411SOL    HW295284   6.932   1.294  12.392 -3.8608 -0.7388 -1.3600
29412SOL     OW95285   0.473  12.126   4.524 -0.4464  0.0809 -0.2771
29412SOL    HW195286   0.517  12.117   4.440  0.4145 -0.2047  0.1951
29412SOL    HW295287   0.407  12.056   4.524 -0.1792 -0.1717 -0.5553
29413SOL     OW95288   1.888   4.508   7.662  0.6389 -0.3938 -0.7973
29413SOL    HW195289   1.947   4.576   7.629  0.4538 -0.8057 -2.0398
29413SOL    HW295290   1.858   4.462   7.583 -0.8941 -0.5650 -0.1575
29414SOL     OW95291   8.895   6.974   3.841 -0.4392  0.1815 -0.4769
29414SOL    HW195292   8.939   6.931   3.768  1.0106 -0.2072  0.5721
29414SOL    HW295293   8.831   6.909   3.871 -0.2421 -0.1125 -0.6826
29415SOL     OW95294  10.318   0.671   7.925  0.0213  0.1413  0.0312
29415SOL    HW195295  10.360   0.637   7.847  0.2198  0.0824  0.1628
29415SOL    HW295296  10.269   0.747   7.895 -0.2575 -0.1416 -0.2258
29416SOL     OW95297   0.360   5.773   0.983  0.1188  0.6612  0.2034
29416SOL    HW195298   0.321   5.690   1.010 -2.3696  1.7175  0.1885
29416SOL    HW295299   0.384   5.816   1.065 -0.9444  0.9419  0.3885
29417SOL     OW95300   3.817   2.533   0.561 -0.1658  0.5052  0.3001
29417SOL    HW195301   3.893   2.574   0.521 -1.3016  2.5995  0.1628
29417SOL    HW295302   3.824   2.554   0.654 -0.2306  0.1032  0.3999
29418SOL     OW95303  12.472   0.232  10.115  0.2619  0.9185  0.6832
29418SOL    HW195304  12.388   0.242  10.071  0.8097 -1.6989 -1.2037
29418SOL    HW295305  12.451   0.237  10.208 -2.2027 -0.7072  0.3018
29419SOL     OW95306   9.987   6.488   5.603  0.1530 -0.6239 -0.2608
29419SOL    HW195307  10.036   6.541   5.666 -2.4509  0.2201  1.1771
29419SOL    HW295308   9.997   6.398   5.634  0.4943 -0.4314  0.2026
29420SOL     OW95309   4.225   9.381   5.565 -0.2798  0.3636 -0.2053
29420SOL    HW195310   4.237   9.459   5.618  0.8755  1.0430 -1.3887
29420SOL    HW295311   4.224   9.413   5.475  0.4725 -0.9927 -0.7324
29421SOL     OW95312   5.431  11.952   9.174 -0.3122  0.1119  0.1823
29421SOL    HW195313   5.374  11.917   9.242 -0.2221  1.0935  0.7863
29421SOL    HW295314   5.384  12.028   9.140  0.6165  0.9432  0.6975
29422SOL     OW95315   9.845  10.711   8.323 -0.1738 -0.2392 -0.7137
29422SOL    HW195316   9.888  10.739   8.404 -0.3557  0.5295 -0.8707
29422SOL    HW295317   9.867  10.779   8.260 -1.4760  0.0921 -0.8330
29423SOL     OW95318   2.674   0.313   4.261  0.7049  0.3525  0.0927
29423SOL    HW195319   2.704   0.236   4.211 -0.2849  0.9495 -1.4931
29423SOL    HW295320   2.607   0.278   4.320  1.3494 -0.2379  0.4999
29424SOL     OW95321   6.117   4.831   4.146  0.1019  0.0544 -0.5683
29424SOL    HW195322   6.201   4.789   4.130 -0.2968 -1.6006  1.3170
29424SOL    HW295323   6.056   4.759   4.163 -1.1157  1.2842  0.6281
29425SOL     OW95324   5.390   6.043   5.563 -0.1115 -0.5759  0.3654
29425SOL    HW195325   5.477   6.070   5.592  0.3052 -0.8230 -0.6155
29425SOL    HW295326   5.402   6.017   5.472 -1.9013  2.8412 -1.0352
29426SOL     OW95327   2.975   2.755   4.588  0.5781 -0.5907 -0.2241
29426SOL    HW195328   3.044   2.699   4.554  0.4258 -0.9651  0.0726
29426SOL    HW295329   2.918   2.696   4.637  1.6176  0.1440  2.0072
29427SOL     OW95330   5.182   1.455   5.868  0.6841 -0.2370  0.1334
29427SOL    HW195331   5.247   1.523   5.888  1.3810 -1.0052  0.5091
29427SOL    HW295332   5.231   1.386   5.825 -0.1117 -0.3091 -0.6872
29428SOL     OW95333  10.455  11.474   9.506  0.4194 -0.1854  0.4820
29428SOL    HW195334  10.365  11.440   9.512 -0.6914  2.5541  0.8864
29428SOL    HW295335  10.458  11.545   9.570  2.5157  0.5690 -0.3660
29429SOL     OW95336   9.856   6.599   4.712  0.2024  0.6242 -0.1539
29429SOL    HW195337   9.850   6.573   4.804  1.3406  0.0950 -0.2097
29429SOL    HW295338   9.765   6.613   4.685 -0.2023 -0.0349  0.8126
29430SOL     OW95339  11.687   4.869   2.547 -0.2826 -0.3687 -0.5558
29430SOL    HW195340  11.716   4.821   2.624 -0.4127 -0.3632 -0.5032
29430SOL    HW295341  11.612   4.919   2.577  0.2881  0.4241 -0.4279
29431SOL     OW95342   7.327  11.009   9.481  0.4872 -0.7904 -0.3353
29431SOL    HW195343   7.341  10.983   9.390  0.7678  1.1716 -0.9081
29431SOL    HW295344   7.348  11.102   9.483 -0.6864 -0.5030  1.4862
29432SOL     OW95345   2.063   2.964   2.735  0.0800  0.2243  0.0312
29432SOL    HW195346   2.027   2.949   2.822  1.9736 -0.9660  0.6754
29432SOL    HW295347   1.987   2.983   2.681 -1.4580 -1.5423  1.4278
29433SOL     OW95348   3.040   3.141   7.469  0.4574  0.1340  0.0969
29433SOL    HW195349   2.966   3.145   7.530  1.5046  0.0272  1.4255
29433SOL    HW295350   3.081   3.056   7.487  0.1626 -0.3888 -1.5559
29434SOL     OW95351  12.488   5.272   4.197 -0.0291 -0.1243 -0.3317
29434SOL    HW195352  12.574   5.312   4.190 -0.4337  1.6996  2.9825
29434SOL    HW295353  12.502   5.192   4.248 -0.2119 -0.0439 -0.1497
29435SOL     OW95354   9.671   3.753   9.510  0.3760 -0.3110 -0.2909
29435SOL    HW195355   9.733   3.686   9.540  0.5476 -0.1409 -0.2651
29435SOL    HW295356   9.585   3.714   9.525  0.4830 -0.9619 -1.2669
29436SOL     OW95357   1.169  12.279   7.655 -0.5240 -0.3408 -0.2317
29436SOL    HW195358   1.220  12.325   7.589  0.5415  1.3245  1.6541
29436SOL    HW295359   1.139  12.348   7.715 -2.3681 -1.6459  0.4439
29437SOL     OW95360   6.292  11.943   6.097 -0.0578 -0.4281 -0.1397
29437SOL    HW195361   6.226  12.002   6.059 -1.1571 -1.2425  0.4576
29437SOL    HW295362   6.320  11.889   6.024 -2.0544 -1.8857  0.0871
29438SOL     OW95363   6.099   8.793   4.412  0.1504 -0.0097  0.3290
29438SOL    HW195364   6.143   8.804   4.496 -0.4408 -1.4669  0.8566
29438SOL    HW295365   6.148   8.849   4.352  1.3227  0.1297  1.3776
29439SOL     OW95366  12.309   0.949  11.950  0.3725 -0.1040 -0.4703
29439SOL    HW195367  12.294   0.889  11.877  0.2288  1.6052 -1.9265
29439SOL    HW295368  12.399   0.934  11.976  0.1525 -1.3588 -0.3972
29440SOL     OW95369  10.336   2.733   4.770  0.0627  0.2656 -0.0605
29440SOL    HW195370  10.380   2.687   4.699 -2.3721 -0.8464 -0.9449
29440SOL    HW295371  10.282   2.799   4.727  0.4036  1.2557  0.9638
29441SOL     OW95372   2.054   7.437   0.380 -0.3809 -0.1594  0.4390
29441SOL    HW195373   2.056   7.342   0.365  0.0872 -0.1173  0.2017
29441SOL    HW295374   2.130   7.453   0.437 -1.9960 -0.2932  2.7640
29442SOL     OW95375   2.984   1.544   2.219 -0.2545  0.2701  0.1413
29442SOL    HW195376   2.996   1.557   2.125  0.0060 -3.1810 -0.4493
29442SOL    HW295377   2.890   1.558   2.233 -1.0839 -2.6384 -1.4962
29443SOL     OW95378   2.296   6.398   3.654  0.3405 -0.3810  0.4586
29443SOL    HW195379   2.375   6.352   3.625  0.5441  0.6905 -0.7741
29443SOL    HW295380   2.239   6.397   3.577 -0.3066  0.0121  0.9282
29444SOL     OW95381  10.581   3.427   3.983 -0.0153  0.2046 -0.4235
29444SOL    HW195382  10.579   3.513   4.026  1.0620  0.0781 -0.0865
29444SOL    HW295383  10.492   3.393   3.992  0.2069  0.1084  1.8474
29445SOL     OW95384   1.385  11.140   3.723  0.2226 -0.3677  0.1368
29445SOL    HW195385   1.336  11.068   3.682 -0.2909  0.0513  0.0046
29445SOL    HW295386   1.457  11.158   3.661 -0.5792  0.2951 -0.6406
29446SOL     OW95387   6.458  10.413   8.159 -0.2447  0.6138 -0.1336
29446SOL    HW195388   6.402  10.427   8.083  0.4600 -0.6936 -0.9352
29446SOL    HW295389   6.478  10.501   8.191 -0.4410  1.1946 -1.5507
29447SOL     OW95390   2.882   7.818   8.409 -0.4739 -0.0695  0.5111
29447SOL    HW195391   2.871   7.830   8.503 -1.4930  1.7795  0.2104
29447SOL    HW295392   2.928   7.734   8.400  0.6330  0.2441  2.6798
29448SOL     OW95393   7.911   8.884   7.814 -0.2674  0.2960  0.0037
29448SOL    HW195394   7.927   8.790   7.803  0.0033  0.1483  1.4906
29448SOL    HW295395   7.998   8.924   7.806 -0.0654  0.1859  1.4215
29449SOL     OW95396   1.325   8.402  10.819  0.0922 -0.1221  0.1012
29449SOL    HW195397   1.320   8.378  10.726  3.4897  1.6309 -0.7013
29449SOL    HW295398   1.318   8.497  10.820  1.5072  0.0103  1.4296
29450SOL     OW95399   0.648   7.609   2.099  0.0321 -0.6547  0.3071
29450SOL    HW195400   0.595   7.574   2.171 -0.2355  0.6648  0.7714
29450SOL    HW295401   0.734   7.623   2.138 -0.3446  0.8992  0.6522
29451SOL     OW95402   4.919   1.087   4.004  0.1531 -0.4115  0.0593
29451SOL    HW195403   4.931   1.179   3.982  0.6304 -0.6977 -0.8960
29451SOL    HW295404   4.972   1.039   3.941  0.7865 -1.3047  1.2139
29452SOL     OW95405  10.947  11.069   2.111  0.3937 -0.4258 -0.5204
29452SOL    HW195406  10.989  11.043   2.029  0.2465 -1.5867 -0.2468
29452SOL    HW295407  10.941  10.988   2.162  0.8035  0.3294  0.7916
29453SOL     OW95408   0.769   1.996   3.819  0.4751 -0.2856  0.1407
29453SOL    HW195409   0.846   1.981   3.873  0.5665 -3.3662 -0.6648
29453SOL    HW295410   0.695   1.983   3.879  0.5899 -0.3694  0.2664
29454SOL     OW95411   4.439   6.621  12.077  0.3719 -0.1152  0.2749
29454SOL    HW195412   4.436   6.706  12.034 -2.7898 -0.6811 -0.8735
29454SOL    HW295413   4.521   6.582  12.046  0.5151  1.3974 -1.4390
29455SOL     OW95414   9.442   8.347   3.571  0.5940 -0.1531 -0.7017
29455SOL    HW195415   9.517   8.309   3.617  0.7510 -1.4322 -1.9387
29455SOL    HW295416   9.376   8.277   3.571  0.8351 -0.4343 -2.9304
29456SOL     OW95417   5.345   7.896  10.779  0.2468 -0.4926 -0.3428
29456SOL    HW195418   5.348   7.897  10.874  1.5507  1.0676 -0.3523
29456SOL    HW295419   5.253   7.912  10.757 -0.3114 -2.1916  0.6172
29457SOL     OW95420  12.186   1.306   9.645  0.0541  0.3116  0.4760
29457SOL    HW195421  12.101   1.264   9.636  1.0848 -1.8554  0.2457
29457SOL    HW295422  12.231   1.254   9.712  1.9488  0.0509 -0.9289
29458SOL     OW95423   0.034   9.629   1.266 -0.1274 -0.2602 -0.5893
29458SOL    HW195424  -0.024   9.555   1.286  1.4071 -1.0691  1.1935
29458SOL    HW295425   0.057   9.617   1.174 -0.6218 -1.5117 -0.5700
29459SOL     OW95426   9.737   0.539   9.811  0.3316  0.2418 -0.3524
29459SOL    HW195427   9.721   0.604   9.880 -0.6839 -1.5005  1.1497
29459SOL    HW295428   9.667   0.553   9.748  0.2775  0.7658 -0.1847
29460SOL     OW95429  12.229   8.674   7.205 -0.0077 -0.2689 -0.3232
29460SOL    HW195430  12.311   8.644   7.165  0.0632  0.5963 -0.8501
29460SOL    HW295431  12.256   8.727   7.280 -0.1330 -1.5650  0.6638
29461SOL     OW95432  11.720   4.926  10.275 -0.2529  0.2312 -0.2379
29461SOL    HW195433  11.651   4.960  10.332  0.3591 -0.7674  1.1847
29461SOL    HW295434  11.796   4.918  10.333  0.9416  0.8689 -1.6501
29462SOL     OW95435   5.507   8.525   5.120 -0.0298 -0.1577 -0.1460
29462SOL    HW195436   5.475   8.460   5.182 -0.0223  0.0649  0.0911
29462SOL    HW295437   5.438   8.591   5.116  0.7451  0.7575  0.9991
29463SOL     OW95438   8.711   8.272   7.269  0.4857  0.1830 -0.3609
29463SOL    HW195439   8.720   8.185   7.307 -0.1368  0.4547  0.4375
29463SOL    HW295440   8.655   8.260   7.193  3.3585 -0.7132 -2.5184
29464SOL     OW95441   3.349   2.267   8.746 -0.0403 -1.0201  0.2190
29464SOL    HW195442   3.443   2.271   8.763 -0.2807  0.3991  1.4030
29464SOL    HW295443   3.333   2.338   8.683 -0.4282 -0.7657  0.6019
29465SOL     OW95444   9.167   3.737   0.590 -0.5519 -0.6961 -0.1109
29465SOL    HW195445   9.220   3.780   0.657  0.5743 -1.8370 -0.2295
29465SOL    HW295446   9.127   3.809   0.541 -1.9445  0.1718  2.1431
29466SOL     OW95447   3.197   4.512   1.201  0.0041 -0.0488 -0.2485
29466SOL    HW195448   3.259   4.441   1.181  0.5464 -0.2007  1.8045
29466SOL    HW295449   3.227   4.547   1.284 -0.5087  2.3738 -1.0241
29467SOL     OW95450   8.738   5.060   8.300  0.1363 -0.2366  0.7686
29467SOL    HW195451   8.662   5.037   8.354 -0.6852 -1.1475 -0.7127
29467SOL    HW295452   8.787   4.979   8.291 -0.4245 -0.4257 -0.8729
29468SOL     OW95453   6.060   5.648   1.698  0.1225  0.8469  0.3221
29468SOL    HW195454   6.139   5.701   1.687  0.6093 -0.3404 -2.8829
29468SOL    HW295455   6.084   5.562   1.664 -1.4281 -0.7613  2.9621
29469SOL     OW95456   7.526   7.277   7.571  0.6087 -0.1666 -0.1135
29469SOL    HW195457   7.479   7.326   7.638 -2.2520 -2.5653 -0.1492
29469SOL    HW295458   7.606   7.247   7.615  0.2824  0.8402  1.2202
29470SOL     OW95459   8.748  10.780   3.182  0.0899 -0.0170  0.0371
29470SOL    HW195460   8.765  10.709   3.120  0.7992 -0.3592  0.5992
29470SOL    HW295461   8.739  10.736   3.266 -2.1377  0.3150  0.0315
29471SOL     OW95462   8.784   2.028  11.044 -0.2408 -0.3078  0.1924
29471SOL    HW195463   8.859   1.969  11.051 -0.4066 -0.4760  0.6248
29471SOL    HW295464   8.733   2.011  11.124 -0.7929 -0.2718 -0.1489
29472SOL     OW95465   7.785   4.167   8.402 -0.2350  0.2985 -0.6402
29472SOL    HW195466   7.825   4.158   8.488  0.2875  2.3869 -0.6242
29472SOL    HW295467   7.711   4.105   8.403 -0.9413  1.1025  1.7304
29473SOL     OW95468   4.096   5.152   1.316 -0.0744 -0.0429 -0.1585
29473SOL    HW195469   4.066   5.092   1.385 -1.9739  1.9726  0.9069
29473SOL    HW295470   4.064   5.113   1.235 -1.4063 -0.4396  0.5294
29474SOL     OW95471   3.835   1.146   3.831  0.8493 -0.0552 -0.6241
29474SOL    HW195472   3.883   1.079   3.879  0.3829 -0.9436 -1.3626
29474SOL    HW295473   3.778   1.097   3.772  0.8929  0.9997 -1.5762
29475SOL     OW95474   5.672   3.545   8.923 -0.4216  0.1711  0.4087
29475SOL    HW195475   5.620   3.625   8.910 -0.8716 -0.0384  0.8691
29475SOL    HW295476   5.701   3.521   8.835 -1.0898  0.3076  0.1407
29476SOL     OW95477   3.987  11.391   1.324 -0.1339  0.0301  0.6876
29476SOL    HW195478   3.941  11.393   1.240  1.1280 -1.8054 -0.0866
29476SOL    HW295479   4.027  11.478   1.332 -1.3718  0.6812  0.0602
29477SOL     OW95480   1.241   1.094   4.365  0.1783 -0.0150 -0.0076
29477SOL    HW195481   1.205   1.092   4.277 -0.2081 -1.3250  0.1534
29477SOL    HW295482   1.302   1.020   4.368  2.0582  1.4652  0.0939
29478SOL     OW95483   4.562   5.502   1.050 -0.4668  0.3435  0.1196
29478SOL    HW195484   4.488   5.464   1.002  0.4696  0.5908 -1.6377
29478SOL    HW295485   4.529   5.517   1.138 -2.9029  1.5657 -0.8963
29479SOL     OW95486   5.898   0.273   3.985 -0.2813  0.4420 -0.4345
29479SOL    HW195487   5.824   0.330   3.964  0.2911  0.6749 -1.9216
29479SOL    HW295488   5.888   0.199   3.926  0.1206 -0.0169  0.0672
29480SOL     OW95489   9.840   3.296   8.104  0.2182 -0.0147 -0.0153
29480SOL    HW195490   9.922   3.343   8.091 -0.8314  1.5183 -1.7170
29480SOL    HW295491   9.787   3.319   8.027 -0.1771 -4.6391 -1.4326
29481SOL     OW95492   0.785  12.464   0.621  0.1560 -0.0464  0.2573
29481SOL    HW195493   0.692  12.442   0.619  0.5425 -1.9369  1.0227
29481SOL    HW295494   0.806  12.489   0.531 -1.2927  1.5214  0.2951
29482SOL     OW95495   1.604   6.438  10.095  0.2251 -0.1134 -0.8775
29482SOL    HW195496   1.561   6.434  10.009  2.6895  1.3415 -2.2846
29482SOL    HW295497   1.673   6.372  10.090  0.5811  0.1927 -0.1071
29483SOL     OW95498   5.645   0.089   1.614  0.0481  0.2603 -0.0081
29483SOL    HW195499   5.650   0.104   1.519  1.4986  1.8839  0.2855
29483SOL    HW295500   5.562   0.043   1.626 -0.4229  0.4794 -2.0075
29484SOL     OW95501  10.794   7.351   8.536  0.3056  0.2472  0.6305
29484SOL    HW195502  10.814   7.392   8.452  1.9387  0.1336  0.9429
29484SOL    HW295503  10.765   7.424   8.591  1.4622  0.7150  0.6462
29485SOL     OW95504   2.038  11.827   2.575  0.3478  0.6129  0.1885
29485SOL    HW195505   2.128  11.798   2.589 -0.0490  0.0303  1.7608
29485SOL    HW295506   1.984  11.755   2.607 -0.7147  0.5261 -1.6426
29486SOL     OW95507   3.407   1.877  10.987  0.1247  0.3765  0.5587
29486SOL    HW195508   3.366   1.953  11.028 -0.5801 -0.0521  0.6762
29486SOL    HW295509   3.365   1.802  11.031  1.5783 -0.0811  1.2185
29487SOL     OW95510   0.325   1.197   2.856  0.6986 -0.2380 -0.4850
29487SOL    HW195511   0.278   1.116   2.838  1.0849 -1.5165  3.3152
29487SOL    HW295512   0.262   1.266   2.837 -1.7637 -1.7525  1.5365
29488SOL     OW95513   1.412   4.942   6.571  0.5522  0.1984 -0.1994
29488SOL    HW195514   1.457   4.869   6.528 -0.9589 -0.2946 -0.9840
29488SOL    HW295515   1.327   4.907   6.598 -0.3924  1.7687 -0.9817
29489SOL     OW95516   6.266   6.391   1.115  0.2866 -0.4145 -0.4841
29489SOL    HW195517   6.332   6.326   1.140 -1.1051 -1.4690  0.6213
29489SOL    HW295518   6.230   6.423   1.198  0.5757  1.4212 -1.0272
29490SOL     OW95519   3.453   1.623   4.966 -0.8707  0.0131 -0.1115
29490SOL    HW195520   3.427   1.561   5.034 -1.0289  0.8233  0.5762
29490SOL    HW295521   3.386   1.614   4.898 -0.6753 -0.8465 -0.1986
29491SOL     OW95522   4.141  11.003   7.014  0.5466 -0.3234 -0.2886
29491SOL    HW195523   4.171  10.916   7.042 -1.8148 -0.8946  0.7267
29491SOL    HW295524   4.047  10.992   6.999  0.6468  1.4792 -2.7229
29492SOL     OW95525   9.353   6.229   8.677 -0.3011  0.2373 -0.3427
29492SOL    HW195526   9.371   6.298   8.740  1.4112 -1.1287  0.7637
29492SOL    HW295527   9.260   6.210   8.688 -0.6351  1.8410 -0.1802
29493SOL     OW95528   8.341   7.518   4.168 -0.2633  0.0583 -0.0235
29493SOL    HW195529   8.327   7.509   4.074 -0.9837 -2.3557  0.2455
29493SOL    HW295530   8.255   7.504   4.207 -0.1732  2.0152  1.0009
29494SOL     OW95531   2.340   7.724  10.544  0.3684  0.2616  0.9557
29494SOL    HW195532   2.288   7.653  10.507 -2.6029  2.1987  1.0539
29494SOL    HW295533   2.420   7.726  10.491 -0.1151 -2.1535  0.0064
29495SOL     OW95534  10.667   2.939   4.162  0.4776  0.1500 -0.8494
29495SOL    HW195535  10.631   2.923   4.249  0.2239 -0.8251 -1.1184
29495SOL    HW295536  10.759   2.913   4.169  0.3350 -0.4103 -0.9954
29496SOL     OW95537  12.176  12.266   3.452 -0.3346  0.1118 -0.4313
29496SOL    HW195538  12.093  12.293   3.491 -0.8482  0.3887 -1.6748
29496SOL    HW295539  12.191  12.330   3.382 -0.3440 -1.3832 -1.8486
29497SOL     OW95540  11.247   4.309   6.976 -0.4324 -0.2161  0.0547
29497SOL    HW195541  11.247   4.245   7.047  0.4040 -1.2756 -0.8819
29497SOL    HW295542  11.300   4.382   7.009 -1.2769 -0.0297  1.0686
29498SOL     OW95543  10.968   4.337   0.471  0.3641 -0.0499  0.3149
29498SOL    HW195544  11.020   4.347   0.550  0.4845 -0.2847  0.2644
29498SOL    HW295545  10.881   4.313   0.503  1.0920 -3.0720  0.3070
29499SOL     OW95546   5.774   3.039   8.605  0.0481 -0.1874 -0.0195
29499SOL    HW195547   5.724   2.968   8.646 -1.4973  1.1745  0.5228
29499SOL    HW295548   5.783   3.106   8.672  0.8242  0.4731 -0.7492
29500SOL     OW95549   0.256  12.003   9.080  0.6551  0.1766 -0.0842
29500SOL    HW195550   0.313  12.026   9.006  0.5291  0.6022 -0.0484
29500SOL    HW295551   0.243  11.908   9.071  1.2532  0.1013 -0.1725
29501SOL     OW95552   1.552  11.848   3.611 -0.9113 -1.5871  0.1482
29501SOL    HW195553   1.519  11.892   3.689 -1.4281 -2.1403  0.2456
29501SOL    HW295554   1.544  11.755   3.630 -0.5692 -1.7270 -0.3666
29502SOL     OW95555   1.837   7.757  11.343  0.0507  0.3537 -0.3825
29502SOL    HW195556   1.895   7.722  11.275 -2.7409  0.6695 -3.1643
29502SOL    HW295557   1.798   7.680  11.383  0.2567  0.1684 -0.5336
29503SOL     OW95558   2.547   8.977   0.175 -0.1256  0.1520 -0.3781
29503SOL    HW195559   2.573   8.889   0.146 -1.0756 -0.1379 -0.4023
29503SOL    HW295560   2.565   9.034   0.100  0.4833 -0.0199 -0.3678
29504SOL     OW95561   9.836   2.984   7.798 -0.1301  0.0378 -0.7183
29504SOL    HW195562   9.888   2.976   7.878 -1.4785  0.9882  0.2985
29504SOL    HW295563   9.805   3.074   7.798 -0.3114  0.0058 -2.2366
29505SOL     OW95564  11.543   7.551   9.051 -0.3927 -0.3620 -0.0851
29505SOL    HW195565  11.560   7.645   9.059 -0.3954 -0.4216  0.8005
29505SOL    HW295566  11.476   7.533   9.118 -0.2656 -1.0185 -0.1234
29506SOL     OW95567   8.234   5.609   3.893 -0.1178 -0.3109 -0.1704
29506SOL    HW195568   8.221   5.531   3.838 -0.7785 -0.5702  0.3319
29506SOL    HW295569   8.313   5.650   3.858 -0.0185 -0.9570 -0.7393
29507SOL     OW95570  10.129   1.814  11.239  0.3077  0.1797  0.1697
29507SOL    HW195571  10.134   1.909  11.254 -0.0591  0.2653 -0.2462
29507SOL    HW295572  10.084   1.805  11.156  1.1213 -0.3382 -0.2263
29508SOL     OW95573   4.086   8.382   5.217  0.3496 -0.3672  0.5121
29508SOL    HW195574   4.153   8.322   5.248  1.3947  0.6156  0.2551
29508SOL    HW295575   4.132   8.439   5.155 -0.2840  1.4616  1.6336
29509SOL     OW95576   5.170   2.262   8.187 -0.0536 -0.1791  0.0383
29509SOL    HW195577   5.107   2.322   8.227 -0.4650  0.7366 -1.8189
29509SOL    HW295578   5.255   2.295   8.215 -0.2881  1.1575 -0.6958
29510SOL     OW95579  12.030   9.092   5.008 -0.3997 -0.1311  0.0658
29510SOL    HW195580  11.974   9.170   5.015  0.9448  0.9264 -0.6311
29510SOL    HW295581  12.085   9.109   4.932  0.6151 -1.3258  0.5165
29511SOL     OW95582   6.383  12.173   1.971  0.2410 -0.0375 -0.1219
29511SOL    HW195583   6.396  12.266   1.991  0.8239  0.0419 -0.8335
29511SOL    HW295584   6.436  12.128   2.037 -0.6578  0.0924  0.7195
29512SOL     OW95585   6.543   0.796   5.197  0.0213 -0.1963 -0.0400
29512SOL    HW195586   6.524   0.885   5.168 -2.1432 -0.4166  0.5163
29512SOL    HW295587   6.579   0.806   5.285  1.0358  0.1781 -0.4898
29513SOL     OW95588   7.094  11.161   8.224 -0.0078  1.4374 -0.6330
29513SOL    HW195589   7.080  11.151   8.319  2.7793  0.0993 -0.2550
29513SOL    HW295590   7.023  11.110   8.184 -1.2631  2.0623  0.6900
29514SOL     OW95591   2.827   9.448   8.678  0.3247  0.4615  0.3071
29514SOL    HW195592   2.890   9.494   8.734  0.5460  2.4791 -1.4547
29514SOL    HW295593   2.809   9.510   8.608 -0.7608 -1.5433 -1.2798
29515SOL     OW95594   3.356  10.302   5.517  0.5372 -0.0225  0.0413
29515SOL    HW195595   3.317  10.259   5.593  1.1604  0.0706  0.4203
29515SOL    HW295596   3.285  10.307   5.453  0.3404 -1.2771  0.1311
29516SOL     OW95597   0.779   3.802   6.786 -0.6168 -0.5279 -0.1704
29516SOL    HW195598   0.868   3.788   6.817 -1.1406 -0.3799  1.5535
29516SOL    HW295599   0.771   3.897   6.779 -1.5040 -0.2673  2.7697
29517SOL     OW95600  12.531   7.161  11.838  0.2226  0.1754  0.2459
29517SOL    HW195601  12.462   7.141  11.775  1.3624 -0.6484 -0.7880
29517SOL    HW295602  12.612   7.161  11.786  1.4793 -2.5255  1.9718
29518SOL     OW95603   5.130   7.899   1.659 -0.4720 -0.4566 -0.3078
29518SOL    HW195604   5.211   7.949   1.668 -1.2241  0.5271  1.4222
29518SOL    HW295605   5.097   7.890   1.748 -2.7173 -0.0657 -1.0458
29519SOL     OW95606   5.709  10.885   7.770  0.0953 -0.7841 -0.5776
29519SOL    HW195607   5.678  10.920   7.854 -2.6755 -2.9130 -0.5833
29519SOL    HW295608   5.642  10.911   7.707  1.1703 -0.8484 -1.7845
29520SOL     OW95609   6.944   2.585   9.723 -0.3169 -0.1638 -0.1315
29520SOL    HW195610   6.948   2.630   9.808 -0.8160  0.1622 -0.2765
29520SOL    HW295611   6.942   2.492   9.745  0.6554 -0.1248  0.1761
29521SOL     OW95612  11.665   2.575  12.559  0.4024  0.0064 -0.2964
29521SOL    HW195613  11.723   2.564  12.484 -1.1808 -0.1488 -1.5383
29521SOL    HW295614  11.650   2.487  12.592  1.6780  0.1324  0.7002
29522SOL     OW95615   3.236   0.994   2.677 -0.0971 -0.1682 -0.0212
29522SOL    HW195616   3.206   1.075   2.718  0.2669 -0.4952  0.9291
29522SOL    HW295617   3.321   0.977   2.718  0.1638 -0.6466 -0.7453
29523SOL     OW95618  10.666   4.057   9.730 -0.7970  0.1683 -0.3315
29523SOL    HW195619  10.755   4.034   9.755 -0.6804 -0.7574 -1.5094
29523SOL    HW295620  10.616   3.976   9.742 -1.6009  0.7864  0.7405
29524SOL     OW95621   8.681   9.571   1.892  0.1456  0.1553 -0.8023
29524SOL    HW195622   8.683   9.621   1.811  0.6983 -0.8795 -1.4487
29524SOL    HW295623   8.750   9.611   1.946  0.6451  0.0534 -1.3476
29525SOL     OW95624  10.838   1.672   0.473 -0.0846  0.4788 -0.4138
29525SOL    HW195625  10.878   1.585   0.474 -1.7911 -0.4205  3.1511
29525SOL    HW295626  10.888   1.722   0.537 -1.1925  1.0684  0.0060
29526SOL     OW95627  10.314   7.284   0.813  0.0792 -0.2164 -0.0638
29526SOL    HW195628  10.240   7.343   0.825 -0.9578 -1.2150 -1.1634
29526SOL    HW295629  10.326   7.243   0.899  1.7703  2.5586  1.1280
29527SOL     OW95630   7.750   2.178   5.337 -0.3001 -0.1467 -0.5590
29527SOL    HW195631   7.684   2.247   5.332 -0.7033 -0.5908 -1.8252
29527SOL    HW295632   7.746   2.146   5.427 -1.1992  0.4319 -0.3867
29528SOL     OW95633  11.792   8.772   1.882  0.2348  0.9371 -0.1320
29528SOL    HW195634  11.813   8.860   1.850  1.5079  0.5090 -0.5536
29528SOL    HW295635  11.800   8.779   1.977 -2.8452  2.0320  0.1456
29529SOL     OW95636   2.849   0.264   0.443 -0.8719  0.2720  0.3684
29529SOL    HW195637   2.863   0.222   0.528 -1.1950 -1.3171 -0.3168
29529SOL    HW295638   2.936   0.283   0.410 -0.6222 -1.2874  0.0490
29530SOL     OW95639   0.950   3.339  10.253 -0.3432  0.0020 -0.2711
29530SOL    HW195640   0.964   3.420  10.303  1.6297  0.3141 -1.2387
29530SOL    HW295641   0.883   3.361  10.190 -1.0904  0.3401  0.6223
29531SOL     OW95642  10.106   7.815   2.918 -0.2224 -0.5869  0.7307
29531SOL    HW195643  10.047   7.740   2.922 -1.2243  0.1890  1.0041
29531SOL    HW295644  10.092   7.861   3.001  1.5254 -0.9162  1.2657
29532SOL     OW95645   2.872   2.290  10.090  0.0380 -0.3532  0.1530
29532SOL    HW195646   2.790   2.323  10.053 -0.8564 -0.9766  1.4967
29532SOL    HW295647   2.913   2.368  10.128  0.5874  0.1455 -1.4062
29533SOL     OW95648   4.912   8.262   5.896  0.2210  0.0516  0.0427
29533SOL    HW195649   5.001   8.230   5.882  0.7271  0.5688  1.8124
29533SOL    HW295650   4.870   8.193   5.947 -0.1963  0.0924 -0.2447
29534SOL     OW95651   4.156   4.617   0.351  0.2634  0.7124 -0.2231
29534SOL    HW195652   4.149   4.699   0.399  1.7443  0.6131  0.1976
29534SOL    HW295653   4.215   4.637   0.278  0.6962  0.0120 -0.0723
29535SOL     OW95654  12.085   8.574   1.751 -1.3307  0.2095  0.0950
29535SOL    HW195655  12.115   8.581   1.660 -2.1699 -0.3611 -0.2427
29535SOL    HW295656  12.023   8.502   1.750 -2.5357  1.1977  0.8082
29536SOL     OW95657   2.934  11.163   0.351 -0.8331 -0.0821 -0.2483
29536SOL    HW195658   3.000  11.111   0.398 -0.7233 -0.4014 -0.7487
29536SOL    HW295659   2.881  11.099   0.304 -1.1072  0.2162 -0.3538
29537SOL     OW95660  11.242   6.973  12.115  0.3501  0.1044  0.6023
29537SOL    HW195661  11.160   7.003  12.153 -1.8136 -2.5879 -1.5070
29537SOL    HW295662  11.270   7.044  12.057 -0.5229  1.0094  1.2630
29538SOL     OW95663   2.641   7.129  10.684  0.3060 -0.4941 -0.2092
29538SOL    HW195664   2.618   7.108  10.774  2.0725  1.9186  0.9327
29538SOL    HW295665   2.561   7.165  10.646  0.1339  0.7395  1.2301
29539SOL     OW95666   4.466   0.485  12.305 -0.3453 -0.3210  0.6265
29539SOL    HW195667   4.525   0.450  12.371 -0.9722 -0.7779  0.9538
29539SOL    HW295668   4.384   0.501  12.352 -1.2054 -1.8230 -0.2680
29540SOL     OW95669   6.669   2.943  10.673 -0.6358  0.5199  0.7110
29540SOL    HW195670   6.638   2.863  10.630 -1.4299 -0.0938  2.3363
29540SOL    HW295671   6.593   2.975  10.721  0.5647  0.3095  2.8867
29541SOL     OW95672  12.429  10.510   9.836  0.1378  0.3175  0.2831
29541SOL    HW195673  12.378  10.579   9.793  2.2190  2.1554  0.6069
29541SOL    HW295674  12.387  10.500   9.922 -0.9389  0.2744 -0.2303
29542SOL     OW95675  10.210  10.366   3.805 -0.1732  0.1666  0.2662
29542SOL    HW195676  10.258  10.368   3.888 -1.4749 -0.2082  1.0497
29542SOL    HW295677  10.137  10.426   3.818 -1.5902 -1.4569  0.1712
29543SOL     OW95678  10.564  10.412   2.366  0.4078 -0.2358  0.2541
29543SOL    HW195679  10.610  10.490   2.337 -0.9470  0.2303 -0.7080
29543SOL    HW295680  10.529  10.435   2.452 -0.4876  0.4436 -0.2802
29544SOL     OW95681   8.757   1.379   9.024  0.2465 -0.0499  0.1580
29544SOL    HW195682   8.766   1.366   8.930  0.3551 -0.2787  0.1982
29544SOL    HW295683   8.792   1.298   9.063 -0.4864 -0.2684  0.3703
29545SOL     OW95684   7.700   4.286   2.007 -0.0110  0.4804  0.0271
29545SOL    HW195685   7.671   4.281   2.098  0.5491 -2.4163  0.1266
29545SOL    HW295686   7.784   4.332   2.011 -0.0741  0.5268  0.9405
29546SOL     OW95687   0.644   3.371   7.868 -0.5744 -0.5155 -0.1375
29546SOL    HW195688   0.557   3.339   7.891 -0.7842 -0.3267 -0.6660
29546SOL    HW295689   0.631   3.424   7.790 -0.0327 -0.2063 -0.0256
29547SOL     OW95690   2.362   6.036   9.886 -0.2315 -0.3571 -0.0467
29547SOL    HW195691   2.452   6.020   9.855  0.1625  0.6031  0.5473
29547SOL    HW295692   2.324   6.092   9.819  0.0944  0.4129  0.4029
29548SOL     OW95693   7.324   8.902   8.379  0.2573  0.5933 -0.3375
29548SOL    HW195694   7.408   8.919   8.422  0.3673 -1.3673  0.3168
29548SOL    HW295695   7.342   8.831   8.318 -0.9968 -0.1195  0.0926
29549SOL     OW95696   0.480   9.945  11.109 -0.3402  0.2705  0.5484
29549SOL    HW195697   0.468  10.005  11.036  1.0596  0.8733  0.7674
29549SOL    HW295698   0.397   9.899  11.117 -1.2221  1.6823 -0.0847
29550SOL     OW95699   0.970  11.968   9.810  0.8723 -0.1525  0.0596
29550SOL    HW195700   0.918  11.947   9.887 -0.9363 -0.6889 -1.2261
29550SOL    HW295701   0.999  11.883   9.777 -0.0527 -0.1105 -0.9220
29551SOL     OW95702   7.902   0.699   4.890  0.1533 -0.7897  0.2583
29551SOL    HW195703   7.847   0.769   4.923  1.8382  0.7269 -0.0255
29551SOL    HW295704   7.988   0.715   4.927  0.7888 -2.2327 -0.4823
29552SOL     OW95705  11.901   9.013   1.868  0.0444 -0.4799 -0.3275
29552SOL    HW195706  11.973   9.003   1.805 -0.1092 -2.2677 -0.2696
29552SOL    HW295707  11.941   9.059   1.942  0.2833  1.4690 -1.5801
29553SOL     OW95708   0.318  10.316  10.922 -0.4086  0.4117  0.1302
29553SOL    HW195709   0.224  10.299  10.928 -0.0096 -2.5546 -0.2809
29553SOL    HW295710   0.336  10.317  10.828  0.1895 -1.0085  0.1934
29554SOL     OW95711   5.804   4.837  10.272  0.0161  0.0750 -0.5862
29554SOL    HW195712   5.808   4.891  10.351 -0.5730  0.4035 -0.7804
29554SOL    HW295713   5.835   4.895  10.203  0.5566 -0.2214 -0.5955
29555SOL     OW95714   9.150   7.075   9.463  0.0159  0.1334 -0.5325
29555SOL    HW195715   9.102   7.134   9.522  0.6519 -1.0394  1.2584
29555SOL    HW295716   9.098   6.995   9.462 -0.3247  0.3471 -2.1554
29556SOL     OW95717   6.321   5.240   3.369 -0.4798 -0.2860 -0.2303
29556SOL    HW195718   6.401   5.262   3.321 -1.3083 -1.7961 -2.4490
29556SOL    HW295719   6.333   5.281   3.455  2.3779  0.0773 -0.6981
29557SOL     OW95720  12.129   6.528   4.932  0.3301  0.1985 -0.6593
29557SOL    HW195721  12.067   6.529   5.004  0.7478  2.0973 -0.2628
29557SOL    HW295722  12.139   6.436   4.909 -0.1193 -0.4129  1.4423
29558SOL     OW95723   1.764   1.434   2.746  0.0873  0.2366  0.3702
29558SOL    HW195724   1.726   1.420   2.659  1.4462 -1.9440  0.0559
29558SOL    HW295725   1.842   1.488   2.730 -0.4207  1.0123  0.4484
29559SOL     OW95726  11.345   7.927   3.970 -0.2299  0.0044 -0.5560
29559SOL    HW195727  11.295   7.946   4.050 -1.7742  2.5995 -2.0104
29559SOL    HW295728  11.428   7.974   3.982 -0.9011  1.3159 -0.8836
29560SOL     OW95729   6.783   3.590   4.750 -0.1429  0.4741 -0.2591
29560SOL    HW195730   6.707   3.574   4.807 -1.0623 -2.6001 -2.0943
29560SOL    HW295731   6.754   3.660   4.692 -0.3522  1.4764  1.0043
29561SOL     OW95732   1.912   6.943  11.743  0.4667  0.2386  0.1975
29561SOL    HW195733   1.861   6.865  11.767 -1.0746  0.8408 -0.9617
29561SOL    HW295734   1.926   6.935  11.649  0.9375  1.0047  0.1946
29562SOL     OW95735   1.750   7.498   3.742  0.0068  0.7026  0.1209
29562SOL    HW195736   1.750   7.584   3.783 -1.1517  0.5887  0.4094
29562SOL    HW295737   1.661   7.488   3.708 -0.0818 -0.6565  0.6966
29563SOL     OW95738  10.574   7.514   4.331 -0.1148 -0.2009 -0.4043
29563SOL    HW195739  10.595   7.495   4.239  0.2495 -2.6261  0.1044
29563SOL    HW295740  10.658   7.504   4.376 -0.2422  1.2313  0.1976
29564SOL     OW95741   5.359  10.300   3.010  0.3954 -0.3633 -0.5344
29564SOL    HW195742   5.338  10.288   2.918 -0.1236  1.1163 -0.6440
29564SOL    HW295743   5.438  10.353   3.010  0.3463 -0.2822 -0.1367
29565SOL     OW95744   1.586   9.530   7.868 -0.1790 -0.0472 -0.1726
29565SOL    HW195745   1.580   9.449   7.918 -0.8107 -0.1497 -0.4109
29565SOL    HW295746   1.529   9.517   7.793 -0.5371  0.7392 -0.0489
29566SOL     OW95747   5.656   5.232   4.009 -0.1030  0.2254  0.4736
29566SOL    HW195748   5.659   5.270   4.097  3.4619 -1.0621  1.1030
29566SOL    HW295749   5.735   5.265   3.967 -0.2813 -1.3870 -1.2437
29567SOL     OW95750  11.401   8.830   3.773  0.0360 -0.2083 -0.4872
29567SOL    HW195751  11.495   8.825   3.787  0.0285 -0.8512 -0.6047
29567SOL    HW295752  11.363   8.839   3.861  0.2091  0.0621 -0.4419
29568SOL     OW95753   4.607  12.251   3.722 -0.2008 -0.1939 -0.5715
29568SOL    HW195754   4.682  12.296   3.684 -0.6966 -0.5853 -2.0805
29568SOL    HW295755   4.643  12.205   3.798  0.8005  0.7020 -0.4773
29569SOL     OW95756   0.726   0.405   6.511 -0.2565  0.0041  0.2179
29569SOL    HW195757   0.768   0.460   6.577 -1.1647  2.2872 -0.9966
29569SOL    HW295758   0.632   0.417   6.526 -0.4991 -1.4846  0.0786
29570SOL     OW95759   5.847  12.403   4.618  0.1560 -0.1277  0.1275
29570SOL    HW195760   5.885  12.370   4.699 -0.0332 -1.6917 -0.3890
29570SOL    HW295761   5.869  12.338   4.552  2.1929  2.1590 -1.6152
29571SOL     OW95762  10.428   9.776   4.327 -0.0938  0.2095  0.3433
29571SOL    HW195763  10.445   9.696   4.278 -0.9999 -0.7967  1.6229
29571SOL    HW295764  10.369   9.826   4.270 -1.6233 -1.2180  0.5991
29572SOL     OW95765   7.869   6.181   6.137  0.0972  0.0466 -0.9227
29572SOL    HW195766   7.799   6.230   6.092  0.4421 -1.0426 -2.7614
29572SOL    HW295767   7.827   6.099   6.163  0.5172 -0.3471 -1.4705
29573SOL     OW95768   6.079   8.678  10.660 -0.1066  0.1498  0.2294
29573SOL    HW195769   6.031   8.615  10.605 -0.6636 -0.6576  1.5994
29573SOL    HW295770   6.010   8.730  10.703  0.2664  3.5865 -2.7889
29574SOL     OW95771  10.253  11.683   1.133 -0.4687  0.8612  0.2043
29574SOL    HW195772  10.337  11.651   1.099 -0.1114  2.2762 -0.3262
29574SOL    HW295773  10.235  11.628   1.209 -0.0593 -0.7745 -0.8229
29575SOL     OW95774   4.913   2.987   4.175 -0.1994  0.4394 -0.6443
29575SOL    HW195775   4.953   2.984   4.262 -1.8224  0.4731  0.1446
29575SOL    HW295776   4.891   2.896   4.156 -1.0292  0.5864 -0.4231
29576SOL     OW95777   2.934   6.289   8.603 -0.2623  0.0046  0.1241
29576SOL    HW195778   3.029   6.278   8.599 -0.3403 -0.9008  0.4049
29576SOL    HW295779   2.909   6.258   8.690 -0.7405  0.8989  0.3145
29577SOL     OW95780   6.416   8.554   2.462 -0.7887  0.4386  0.4479
29577SOL    HW195781   6.351   8.496   2.503  1.3997  0.1266  3.8814
29577SOL    HW295782   6.373   8.639   2.458 -2.9336 -0.6303 -1.7101
29578SOL     OW95783   8.037   1.313   2.101  0.0384  0.4738  0.3438
29578SOL    HW195784   8.118   1.282   2.141 -0.0527  2.2633  2.0371
29578SOL    HW295785   8.065   1.373   2.032  0.1420 -0.6376 -0.6240
29579SOL     OW95786   3.140   5.321   8.906  0.6884  0.4102  0.1025
29579SOL    HW195787   3.226   5.339   8.945 -0.1106  0.0240  2.1436
29579SOL    HW295788   3.142   5.226   8.889  0.9279  0.5282 -0.5471
29580SOL     OW95789   0.311   0.593   8.117 -0.2087 -0.5817 -0.1211
29580SOL    HW195790   0.406   0.599   8.107 -0.2501 -0.1417 -0.2624
29580SOL    HW295791   0.296   0.600   8.211 -0.0881 -0.8629 -0.0801
29581SOL     OW95792   8.615   6.553   5.741  0.3578  0.0295 -0.1068
29581SOL    HW195793   8.588   6.464   5.718 -0.9113  0.2849  0.2883
29581SOL    HW295794   8.695   6.568   5.691 -0.8561 -0.3936 -2.3084
29582SOL     OW95795   1.350  10.303   1.042  0.3786  0.0864 -0.1676
29582SOL    HW195796   1.329  10.370   1.107 -0.5946  0.2174 -0.5985
29582SOL    HW295797   1.298  10.227   1.067  1.0845 -0.3517  0.0182
29583SOL     OW95798   2.368   2.417   4.694  0.4257  0.0291 -0.9076
29583SOL    HW195799   2.396   2.412   4.785  2.0746  3.5322 -1.0778
29583SOL    HW295800   2.372   2.326   4.662  1.5605 -1.0231  1.9562
29584SOL     OW95801   5.216   4.855   2.066  0.3279 -0.2504 -0.2117
29584SOL    HW195802   5.302   4.886   2.094  0.4493  0.3524 -1.1663
29584SOL    HW295803   5.214   4.763   2.091  0.8962 -0.0466  0.6242
29585SOL     OW95804  10.852   0.152   7.823  0.1114  0.3630 -1.0489
29585SOL    HW195805  10.942   0.154   7.855  0.7005  0.2182 -2.6142
29585SOL    HW295806  10.798   0.143   7.902  1.3360  2.3384  0.0842
29586SOL     OW95807   5.116   3.776   4.039 -0.6846 -0.2378  0.0927
29586SOL    HW195808   5.029   3.743   4.018 -0.1663 -1.0630 -0.8622
29586SOL    HW295809   5.137   3.838   3.969 -0.5436  0.0338  0.3717
29587SOL     OW95810  11.340   3.614   8.254  0.5224 -0.3742 -0.6306
29587SOL    HW195811  11.405   3.681   8.229  0.4933 -0.1437 -0.0918
29587SOL    HW295812  11.283   3.607   8.177  1.9076 -1.4780 -1.6159
29588SOL     OW95813   6.286   9.607   5.179 -0.4149  0.5677 -0.5600
29588SOL    HW195814   6.243   9.678   5.226 -0.6529  0.8155 -1.1365
29588SOL    HW295815   6.380   9.623   5.191 -0.4682  0.9565 -0.6426
29589SOL     OW95816   0.691   8.656   2.129 -0.5216 -0.2483 -0.5414
29589SOL    HW195817   0.712   8.639   2.221  0.8400  0.7084 -0.6468
29589SOL    HW295818   0.718   8.577   2.083 -0.4086 -0.3994 -0.2180
29590SOL     OW95819   9.223   6.107   1.056 -0.2593  0.6553 -0.4506
29590SOL    HW195820   9.224   6.058   1.139 -1.6460 -0.1972 -0.9145
29590SOL    HW295821   9.246   6.041   0.990 -0.1046  1.1213 -0.8646
29591SOL     OW95822   3.035   9.145   2.234 -0.3181 -0.1262  0.5352
29591SOL    HW195823   2.985   9.196   2.170  2.1142 -0.4600 -1.7414
29591SOL    HW295824   3.018   9.054   2.211 -1.6747 -0.3829  2.2684
29592SOL     OW95825   0.406   0.953   2.107 -0.3609 -0.2250  0.1531
29592SOL    HW195826   0.344   0.911   2.048  0.0253  0.5782 -0.8389
29592SOL    HW295827   0.359   1.031   2.140  0.6577  1.3665 -1.9387
29593SOL     OW95828   1.398   6.313   2.413 -0.0420  0.1762 -0.2489
29593SOL    HW195829   1.339   6.244   2.381  0.7595 -0.2865 -0.7744
29593SOL    HW295830   1.360   6.394   2.379 -1.0190  0.0157  0.4066
29594SOL     OW95831   8.627   8.860   4.627  0.4318  0.0658 -0.4556
29594SOL    HW195832   8.688   8.811   4.683 -0.3621 -0.9341 -0.4376
29594SOL    HW295833   8.551   8.803   4.619 -0.6931  1.4874 -0.1297
29595SOL     OW95834   5.918   8.458  11.317 -0.0996 -0.0762  0.3999
29595SOL    HW195835   5.835   8.416  11.297  0.6383 -1.7604  0.7333
29595SOL    HW295836   5.897   8.519  11.388 -1.1433 -0.0247  0.0695
29596SOL     OW95837   4.277   1.952   4.834  0.2251  0.4137  0.1164
29596SOL    HW195838   4.244   1.890   4.899  0.9858  1.7014  1.8057
29596SOL    HW295839   4.244   2.037   4.862  0.9009  1.0633 -0.9668
29597SOL     OW95840   0.396   8.669   9.053 -0.3143  0.1424 -0.0404
29597SOL    HW195841   0.379   8.576   9.068  1.3366  0.0216  1.2825
29597SOL    HW295842   0.325   8.714   9.100 -0.4619 -0.4179  0.2777
29598SOL     OW95843   2.251   8.825  11.424  0.2111 -0.0061 -0.1297
29598SOL    HW195844   2.156   8.812  11.423  0.1935 -0.6912  2.7354
29598SOL    HW295845   2.280   8.799  11.337 -2.1016 -0.8482 -0.7067
29599SOL     OW95846   7.577   5.450  12.103  0.2800 -0.0590 -0.2033
29599SOL    HW195847   7.657   5.485  12.063  0.2319  0.5394  0.2183
29599SOL    HW295848   7.523   5.423  12.029  0.5955  0.1519 -0.5117
29600SOL     OW95849   5.983   3.145   5.024  0.1350 -0.0417 -0.0596
29600SOL    HW195850   6.004   3.148   5.117 -0.4589  1.0732  0.0533
29600SOL    HW295851   5.967   3.236   4.999 -1.9941 -0.5326 -0.7052
29601SOL     OW95852   8.355   4.044  11.230 -0.2183 -0.2138  0.5955
29601SOL    HW195853   8.366   3.950  11.246  0.3280  0.0055  1.5582
29601SOL    HW295854   8.361   4.084  11.316 -0.9221  0.6750  0.2475
29602SOL     OW95855   5.792   0.077   5.235 -0.4753 -0.2008 -0.3827
29602SOL    HW195856   5.784   0.163   5.275 -2.4134  0.4628 -2.0366
29602SOL    HW295857   5.863   0.035   5.283  0.5366  2.3012  0.4766
29603SOL     OW95858  11.244   3.757   8.032 -0.1794  0.1500 -0.7032
29603SOL    HW195859  11.210   3.784   7.947  1.1555 -1.5776 -1.8417
29603SOL    HW295860  11.337   3.777   8.028  0.3874 -2.1821 -0.6468
29604SOL     OW95861   5.138   0.607   6.877 -0.3131  0.5043 -0.3443
29604SOL    HW195862   5.069   0.545   6.903  0.5986 -0.2317  0.4035
29604SOL    HW295863   5.199   0.607   6.951  0.1681  1.6379 -0.7189
29605SOL     OW95864   0.359  10.241   7.887 -0.2687  0.3426  0.7196
29605SOL    HW195865   0.324  10.153   7.904 -0.3073  0.3978  0.9373
29605SOL    HW295866   0.296  10.300   7.930 -0.9072  0.5485 -0.4662
29606SOL     OW95867  10.238  11.640   6.719  0.0317 -0.3824 -0.5143
29606SOL    HW195868  10.153  11.605   6.743 -0.0081 -0.8784 -1.3241
29606SOL    HW295869  10.227  11.735   6.723  0.0637 -0.4222  1.4256
29607SOL     OW95870   9.245   6.686   2.622 -0.6970  0.5850  0.1328
29607SOL    HW195871   9.265   6.654   2.534 -1.4407  0.4004  0.0238
29607SOL    HW295872   9.326   6.727   2.651 -0.3217  0.3036 -0.4856
29608SOL     OW95873  12.306   6.920   1.020  0.2232  0.2748  0.3146
29608SOL    HW195874  12.358   6.878   0.951 -0.7171 -0.9115  0.2800
29608SOL    HW295875  12.330   6.872   1.099 -0.0746  0.3832  0.4688
29609SOL     OW95876   0.139   5.565   0.905 -0.0703  0.1566 -0.2709
29609SOL    HW195877   0.063   5.508   0.887 -2.1204  2.8019 -0.5748
29609SOL    HW295878   0.149   5.617   0.826  4.0851 -2.0503 -1.4406
29610SOL     OW95879   4.417   1.143   6.619  0.8247  0.2348 -0.5503
29610SOL    HW195880   4.410   1.230   6.578  1.1768  1.3164  1.5265
29610SOL    HW295881   4.507   1.116   6.602  0.4371 -0.2149 -2.0446
29611SOL     OW95882   8.459   8.422  10.676  0.4878  0.0358 -0.1373
29611SOL    HW195883   8.532   8.470  10.715  0.4511 -1.2337  1.6386
29611SOL    HW295884   8.424   8.369  10.748 -2.4567  0.8646 -0.8037
29612SOL     OW95885  10.869   8.328   0.987 -0.3492 -0.4554 -0.2920
29612SOL    HW195886  10.824   8.384   1.050 -0.1344 -0.7889  0.1588
29612SOL    HW295887  10.859   8.239   1.021  0.3039 -0.5758 -0.3998
29613SOL     OW95888   9.532   6.672  10.624  0.2409  0.3588  0.0363
29613SOL    HW195889   9.590   6.596  10.632  1.4584  1.4929  3.5199
29613SOL    HW295890   9.445   6.634  10.611  1.1625 -1.4908 -1.1344
29614SOL     OW95891   0.067   9.989   3.334  0.1041  0.0965 -0.1571
29614SOL    HW195892   0.127  10.062   3.347  0.1197 -0.0955  0.9142
29614SOL    HW295893  -0.014  10.017   3.377  0.2185 -0.6459  0.5709
29615SOL     OW95894   8.727   4.223  11.684  0.1816 -0.0049 -0.3118
29615SOL    HW195895   8.688   4.142  11.650 -1.6283  0.2356  1.0335
29615SOL    HW295896   8.657   4.287  11.679  1.0705  1.0312  0.2586
29616SOL     OW95897   9.799   6.215   3.311 -0.2156 -0.3458 -0.3290
29616SOL    HW195898   9.870   6.159   3.281  0.4788  0.7762 -0.8837
29616SOL    HW295899   9.825   6.243   3.399 -0.7078 -1.1265  0.0672
29617SOL     OW95900   6.815  11.455  11.948 -0.6509  0.5146  0.0847
29617SOL    HW195901   6.724  11.435  11.972 -0.5014 -1.1600 -0.5827
29617SOL    HW295902   6.862  11.373  11.966  1.1228  1.9010  2.2019
29618SOL     OW95903   1.123   3.042   2.003 -0.0400  0.4369 -0.9486
29618SOL    HW195904   1.147   3.004   2.088  1.6950  0.1450 -1.5448
29618SOL    HW295905   1.089   3.129   2.026 -0.1991  0.1271  0.0860
29619SOL     OW95906   2.661   3.712   5.191  0.0638 -0.4001 -0.0918
29619SOL    HW195907   2.620   3.787   5.233 -0.1232 -0.0227 -0.9241
29619SOL    HW295908   2.596   3.642   5.196 -0.2192 -0.1568 -0.3509
29620SOL     OW95909   0.207   4.200   1.439  0.3019  0.2990 -0.7868
29620SOL    HW195910   0.169   4.277   1.398  0.7885  1.4719  0.8558
29620SOL    HW295911   0.150   4.182   1.514 -1.4614 -2.6996 -2.6156
29621SOL     OW95912   3.585   4.428   9.857 -0.3737  0.1015  0.0192
29621SOL    HW195913   3.601   4.502   9.798  0.9674 -0.0219  0.2111
29621SOL    HW295914   3.559   4.356   9.799  1.1365 -0.0780 -0.4802
29622SOL     OW95915   3.213   1.334   3.586  0.1186  0.1139  0.0750
29622SOL    HW195916   3.288   1.283   3.557  0.6678  0.4733  0.8267
29622SOL    HW295917   3.142   1.270   3.596  0.1519 -0.1322 -1.2163
29623SOL     OW95918   3.371   4.678   1.883  0.3527  0.5802 -0.2033
29623SOL    HW195919   3.425   4.725   1.819 -1.5131  0.2136 -2.1583
29623SOL    HW295920   3.281   4.702   1.860 -0.5173 -1.7790  0.4999
29624SOL     OW95921  10.450   3.348   3.391 -0.0906  0.2734 -0.6468
29624SOL    HW195922  10.535   3.324   3.354  0.0843 -1.6214  0.7999
29624SOL    HW295923  10.452   3.443   3.397  0.9488  0.4505 -2.8379
29625SOL     OW95924   0.454   7.582   5.665  0.2323  0.0711 -0.4895
29625SOL    HW195925   0.408   7.666   5.660  0.1198  0.0520  0.1345
29625SOL    HW295926   0.434   7.538   5.582 -0.9939  0.0069 -0.1724
29626SOL     OW95927   5.031   1.226  11.244  0.3045  0.1724  0.0374
29626SOL    HW195928   5.087   1.272  11.306  0.6437  0.6824 -0.6252
29626SOL    HW295929   5.032   1.135  11.273 -0.1444  0.5235  1.1986
29627SOL     OW95930   1.861  11.611  10.590 -0.2544  0.0767 -0.8561
29627SOL    HW195931   1.876  11.651  10.504  0.0049 -0.6057 -1.1309
29627SOL    HW295932   1.887  11.679  10.653  1.5553 -0.1409 -1.3229
29628SOL     OW95933   3.992   6.019   9.672 -0.1013  0.6998  0.1000
29628SOL    HW195934   4.029   5.972   9.598 -1.0942 -0.0098  0.0412
29628SOL    HW295935   3.899   5.995   9.672 -0.2099  1.0678  1.2859
29629SOL     OW95936   2.424   2.765   1.901 -0.0176 -0.0579  0.2242
29629SOL    HW195937   2.372   2.824   1.846 -0.6597 -0.2966  0.5609
29629SOL    HW295938   2.467   2.707   1.839 -0.2747  0.0472 -0.0567
29630SOL     OW95939   7.490  12.331   1.480 -0.0568  0.1655 -0.1418
29630SOL    HW195940   7.548  12.404   1.502  0.2784 -0.5613  1.5352
29630SOL    HW295941   7.402  12.364   1.500  0.1589 -0.1245  1.4052
29631SOL     OW95942   7.809   0.758   1.813 -0.1902 -0.4703 -0.5837
29631SOL    HW195943   7.899   0.727   1.804 -0.1178 -0.1603 -0.9823
29631SOL    HW295944   7.817   0.846   1.850 -0.5034 -1.8786  3.2235
29632SOL     OW95945   7.518   8.766   6.374  0.0594 -0.0787 -0.8897
29632SOL    HW195946   7.603   8.745   6.335  0.4927 -0.9008  0.4469
29632SOL    HW295947   7.534   8.770   6.468 -1.6409 -1.5754 -0.4855
29633SOL     OW95948   4.845   4.506   1.173  0.3664 -0.4522  0.2729
29633SOL    HW195949   4.924   4.467   1.136 -0.1836 -0.1681 -1.2637
29633SOL    HW295950   4.848   4.598   1.147 -0.3290 -0.3747  0.4231
29634SOL     OW95951   3.356   1.715   2.671 -0.6182  0.3597 -0.3643
29634SOL    HW195952   3.407   1.737   2.749 -0.4868 -1.6827  0.1902
29634SOL    HW295953   3.285   1.779   2.670 -0.5064  0.5606  1.3301
29635SOL     OW95954   1.292   9.944   3.304 -0.2050 -0.1008  0.6212
29635SOL    HW195955   1.232   9.908   3.239  1.2666 -1.3257 -0.1305
29635SOL    HW295956   1.247  10.021   3.339 -1.0603  0.5559 -1.7808
29636SOL     OW95957  12.467   0.656   9.517 -0.0994 -0.3847 -0.8403
29636SOL    HW195958  12.409   0.665   9.592  2.2762  2.4921  0.8707
29636SOL    HW295959  12.551   0.627   9.554  0.8126 -0.0856 -2.5366
29637SOL     OW95960   8.149  11.366  11.415  0.0268 -0.1273  0.7839
29637SOL    HW195961   8.212  11.343  11.483  1.7454 -0.7195 -0.9087
29637SOL    HW295962   8.078  11.303  11.424  1.0554 -1.2881  0.9607
29638SOL     OW95963  11.632   3.438  10.617 -0.3575  0.4899 -0.0584
29638SOL    HW195964  11.572   3.494  10.666  0.3892  1.5843 -0.3713
29638SOL    HW295965  11.651   3.366  10.677  0.1590  1.5460  1.0887
29639SOL     OW95966  10.838   0.360   0.162 -0.1429  0.6299 -0.2530
29639SOL    HW195967  10.813   0.407   0.083  0.2072  0.2645 -0.5811
29639SOL    HW295968  10.816   0.421   0.233 -3.1410 -0.1007 -0.3921
29640SOL     OW95969   3.248   3.051   9.821  0.2189  0.3291  0.6781
29640SOL    HW195970   3.185   3.079   9.886  1.2760  0.7306  1.5605
29640SOL    HW295971   3.197   3.041   9.740 -0.6789  2.1923  0.9645
29641SOL     OW95972  10.902   3.891   5.502  0.4680  0.3701  0.0061
29641SOL    HW195973  10.855   3.974   5.495  1.7598  1.1053 -0.2570
29641SOL    HW295974  10.834   3.824   5.490 -0.6566  1.3600  0.5593
29642SOL     OW95975   3.989   6.201   6.764  0.2247  0.0822  0.0468
29642SOL    HW195976   4.070   6.167   6.803 -0.5609  1.1607  2.9067
29642SOL    HW295977   3.920   6.142   6.797 -0.4115  0.6089 -0.3124
29643SOL     OW95978  10.721  11.293   6.983  0.3728  0.0182  0.0364
29643SOL    HW195979  10.741  11.338   6.901  1.3687  1.0029  0.7846
29643SOL    HW295980  10.805  11.259   7.013  0.2039  0.5026  1.1211
29644SOL     OW95981   2.915   7.488  10.854 -0.1289  0.3082 -0.1445
29644SOL    HW195982   2.909   7.558  10.918  1.3222  0.3185  0.0208
29644SOL    HW295983   2.851   7.510  10.787 -0.3372  1.2961  0.3711
29645SOL     OW95984  12.441  10.086   2.708  0.1074  0.2432  0.4465
29645SOL    HW195985  12.476  10.171   2.684 -1.7134  0.7975 -0.3826
29645SOL    HW295986  12.446  10.034   2.628 -3.6520  1.3023 -0.6521
29646SOL     OW95987   7.994   1.077   7.203  0.5455  0.2092  0.0578
29646SOL    HW195988   7.976   0.983   7.198  0.9453  0.1427 -0.2227
29646SOL    HW295989   8.078   1.083   7.248 -0.0571  0.5038  1.1810
29647SOL     OW95990   0.416  10.207   3.125  0.5952  0.0856 -0.0992
29647SOL    HW195991   0.425  10.259   3.205 -1.0646 -1.9439  1.5151
29647SOL    HW295992   0.365  10.263   3.067 -0.0705  0.7780  1.1013
29648SOL     OW95993   8.424   3.972   7.587  0.1850 -0.1622  0.0544
29648SOL    HW195994   8.390   3.975   7.676  0.8321  0.6500  0.2875
29648SOL    HW295995   8.517   3.952   7.596  0.5491  1.2375 -0.3346
29649SOL     OW95996   9.055   5.962  11.223 -0.1904  0.9800 -0.1987
29649SOL    HW195997   8.964   5.932  11.220  0.1199 -0.1004  0.5329
29649SOL    HW295998   9.094   5.928  11.142  0.0852 -0.4513  0.4886
29650SOL     OW95999   1.585   4.188   1.009 -0.2299 -0.2825  0.2455
29650SOL    HW196000   1.588   4.134   1.088  1.0885  1.5874  1.5786
29650SOL    HW296001   1.671   4.176   0.968  0.2996  1.1203  0.8596
29651SOL     OW96002   9.516   8.156   5.399  0.7985 -0.6350  0.2256
29651SOL    HW196003   9.503   8.240   5.442  0.9600  0.8477 -2.4175
29651SOL    HW296004   9.595   8.120   5.440  0.9334  0.6658  1.1717
29652SOL     OW96005  10.223   3.393   7.590 -0.3461 -0.0313  0.4478
29652SOL    HW196006  10.172   3.361   7.665  0.6015 -1.6118  0.4640
29652SOL    HW296007  10.279   3.319   7.566 -0.9749  0.2322 -2.1619
29653SOL     OW96008  11.856   5.207   5.945  0.4179  0.5005  0.2042
29653SOL    HW196009  11.875   5.115   5.962  0.6472  0.4689 -0.2093
29653SOL    HW296010  11.886   5.252   6.024 -0.6797  0.1169  0.8618
29654SOL     OW96011   5.545  11.858  12.522 -0.5050 -0.7158 -0.6138
29654SOL    HW196012   5.594  11.872  12.441 -0.5569  2.0064 -0.2600
29654SOL    HW296013   5.454  11.878  12.499 -0.7352 -1.2657 -0.2002
29655SOL     OW96014  10.336   7.219   1.600 -0.0808 -0.0370  0.5487
29655SOL    HW196015  10.271   7.287   1.587  0.7797  0.6670 -0.2073
29655SOL    HW296016  10.412   7.264   1.636  1.0521 -0.2704 -1.4017
29656SOL     OW96017   8.685   7.658   8.725  0.6715  0.4705  0.5719
29656SOL    HW196018   8.688   7.597   8.799  0.3501  1.3292  1.3023
29656SOL    HW296019   8.632   7.731   8.757  0.1374  0.6389 -0.6647
29657SOL     OW96020   8.117   6.851   0.416  0.1878 -0.5028  0.6480
29657SOL    HW196021   8.050   6.791   0.382 -1.1871  0.0138  2.3305
29657SOL    HW296022   8.198   6.821   0.376 -0.7152 -2.4741  0.1912
29658SOL     OW96023   8.569   6.649   9.258  0.5241  0.0389 -0.5280
29658SOL    HW196024   8.613   6.572   9.292  1.5025  0.7013 -0.2571
29658SOL    HW296025   8.494   6.662   9.316  0.0026 -1.0342 -0.9270
29659SOL     OW96026   6.359  11.219   9.193 -0.7395  0.0918  0.1315
29659SOL    HW196027   6.267  11.242   9.208 -0.4764  1.5450 -0.2805
29659SOL    HW296028   6.375  11.242   9.102 -0.0513 -0.4916  0.0951
29660SOL     OW96029   3.340   2.862   6.187  0.2842 -0.4824  0.0274
29660SOL    HW196030   3.335   2.869   6.092  1.0592 -2.9585 -0.2690
29660SOL    HW296031   3.253   2.832   6.213  0.1174  0.0473  0.0744
29661SOL     OW96032   7.988   0.649   0.208 -0.1583 -0.1901  0.6944
29661SOL    HW196033   7.973   0.735   0.168 -2.1449 -0.0572  1.6239
29661SOL    HW296034   8.083   0.645   0.220  0.1512  1.1528 -0.8951
29662SOL     OW96035   0.982   4.197   9.842 -0.5703 -0.0163 -0.6855
29662SOL    HW196036   0.936   4.277   9.816 -0.0393  2.2950  4.1965
29662SOL    HW296037   0.912   4.133   9.855 -1.4094  0.6667 -1.6760
29663SOL     OW96038  10.255   3.617  11.142  0.0801 -0.7468 -0.1501
29663SOL    HW196039  10.196   3.562  11.090  0.6574 -0.6810 -0.8806
29663SOL    HW296040  10.226   3.706  11.126 -0.6448 -0.7966  0.7747
29664SOL     OW96041   3.925   4.950   1.159  0.1304 -0.4476  0.1683
29664SOL    HW196042   3.836   4.973   1.132  0.4311  1.5492  0.7310
29664SOL    HW296043   3.981   4.991   1.094  0.6739 -1.3926  0.0260
29665SOL     OW96044   8.304   0.256   1.375  0.2675  0.3440  0.1282
29665SOL    HW196045   8.368   0.258   1.447  0.2977 -1.2490  0.1739
29665SOL    HW296046   8.225   0.217   1.414 -0.5950  1.8307 -0.0591
29666SOL     OW96047   5.701   8.016  12.052 -0.5691 -0.1109 -0.1170
29666SOL    HW196048   5.617   8.009  12.098 -0.0143 -1.9359  0.7242
29666SOL    HW296049   5.725   7.925  12.033  1.5837  0.2943  0.3750
29667SOL     OW96050   5.027  10.723   5.529  0.4070 -0.6487 -0.0552
29667SOL    HW196051   4.968  10.799   5.526  0.4180 -0.6586 -1.1178
29667SOL    HW296052   4.969  10.647   5.525  0.4719 -0.6613 -0.8750
29668SOL     OW96053   9.507   2.914   9.800 -0.8579  0.1254  0.2257
29668SOL    HW196054   9.533   2.878   9.885  0.4563 -1.5436 -0.8242
29668SOL    HW296055   9.575   2.978   9.779  0.3572 -1.4047 -0.7328
29669SOL     OW96056   1.012   8.426   0.129 -0.3974  0.0509 -0.3567
29669SOL    HW196057   0.986   8.445   0.039 -2.4408 -2.0099 -0.2976
29669SOL    HW296058   0.969   8.495   0.181 -2.0088 -0.6499 -0.7029
29670SOL     OW96059  10.108  11.415   1.653 -0.4917 -0.6405  0.1113
29670SOL    HW196060  10.035  11.430   1.594  0.6881  3.0333 -0.6782
29670SOL    HW296061  10.150  11.335   1.620 -2.0370 -0.8036 -1.6222
29671SOL     OW96062   0.853  10.495   4.752  0.2010 -0.1277  0.2797
29671SOL    HW196063   0.863  10.563   4.684 -1.7070 -1.5025 -1.5176
29671SOL    HW296064   0.770  10.517   4.794 -0.8241 -1.6910 -0.8319
29672SOL     OW96065   8.403   4.345   4.287  0.4276 -0.0954 -0.0344
29672SOL    HW196066   8.478   4.322   4.232 -0.4689 -0.6110 -1.0853
29672SOL    HW296067   8.440   4.361   4.374  1.5023 -2.4774  0.0154
29673SOL     OW96068   4.594   5.491  12.217 -0.2789  0.2067 -0.8825
29673SOL    HW196069   4.501   5.469  12.212 -0.0561 -0.7419 -1.0301
29673SOL    HW296070   4.617   5.477  12.309 -0.0392 -0.5950 -1.0611
29674SOL     OW96071  11.135   4.775   0.393  0.1759 -0.2395  0.0372
29674SOL    HW196072  11.066   4.756   0.456  0.5898  0.2191  0.6385
29674SOL    HW296073  11.201   4.707   0.410 -0.7775 -1.6484 -1.5858
29675SOL     OW96074   2.009   1.970   9.616 -0.0294 -0.8959 -0.3628
29675SOL    HW196075   2.047   2.055   9.597  1.3698 -1.3579  0.2174
29675SOL    HW296076   1.940   1.988   9.681 -0.9098 -0.0363 -1.4978
29676SOL     OW96077   8.612   1.412   2.782 -0.2299  0.0575 -0.1361
29676SOL    HW196078   8.619   1.439   2.873 -0.7487 -0.8465  0.1859
29676SOL    HW296079   8.702   1.394   2.755 -0.2115 -1.1705  0.6772
29677SOL     OW96080  11.486   7.177   7.154 -0.2153 -0.2031 -0.1835
29677SOL    HW196081  11.495   7.271   7.170  0.4591 -0.5207  1.4223
29677SOL    HW296082  11.467   7.139   7.239 -0.3551 -1.5562 -0.7848
29678SOL     OW96083   3.995  10.406  12.500 -0.0131  0.5456  0.0819
29678SOL    HW196084   4.030  10.320  12.475  0.6927  0.7381  0.3895
29678SOL    HW296085   3.909  10.388  12.536  0.8227 -0.2444  1.7882
29679SOL     OW96086  11.710  11.097   4.113  0.0400 -0.7343  0.4514
29679SOL    HW196087  11.639  11.034   4.123 -0.5358 -0.2355 -0.3569
29679SOL    HW296088  11.667  11.178   4.086  1.0459 -0.8915 -1.9080
29680SOL     OW96089  11.137   0.859  10.883 -0.0218 -0.6784  0.3216
29680SOL    HW196090  11.075   0.829  10.950 -0.5356  0.7269  0.4945
29680SOL    HW296091  11.105   0.945  10.857  2.3495  0.5207  1.0684
29681SOL     OW96092   6.097  11.010   1.885  0.8937 -0.6510 -0.2956
29681SOL    HW196093   6.051  10.927   1.880  1.2883 -1.1748  2.7860
29681SOL    HW296094   6.162  10.998   1.954  1.0455  2.1739  0.1984
29682SOL     OW96095   1.863  12.488  11.970 -0.4660 -0.3837 -0.0260
29682SOL    HW196096   1.779  12.519  11.936 -0.3496  1.1904  1.0064
29682SOL    HW296097   1.928  12.524  11.909 -0.4197  0.3369  0.4310
29683SOL     OW96098   5.759   2.476   3.010 -0.1588 -1.3411 -0.1659
29683SOL    HW196099   5.710   2.416   2.953 -0.2284 -2.2239  0.7777
29683SOL    HW296100   5.698   2.496   3.081 -1.0422  1.8513 -1.6272
29684SOL     OW96101   2.833   0.335   4.553  0.1917  0.1283  0.6647
29684SOL    HW196102   2.902   0.392   4.584  0.7366 -0.8554  1.2887
29684SOL    HW296103   2.865   0.301   4.469  1.1576 -1.4646  1.6252
29685SOL     OW96104  11.309   4.620   6.366  0.3828 -0.4104 -0.1966
29685SOL    HW196105  11.295   4.663   6.450  0.6534  0.1445 -0.4271
29685SOL    HW296106  11.362   4.543   6.387 -1.4990 -1.5938  0.4453
29686SOL     OW96107   3.180  11.065   9.589 -0.5479 -0.4886  0.1684
29686SOL    HW196108   3.184  10.992   9.650  1.3404 -1.2182 -0.7320
29686SOL    HW296109   3.171  11.143   9.644 -1.4645 -1.3062  1.2026
29687SOL     OW96110   5.432   2.716   9.091  0.1359 -0.5370  0.0811
29687SOL    HW196111   5.407   2.626   9.109 -1.8283  0.2860  1.9387
29687SOL    HW296112   5.396   2.735   9.005  0.2527 -1.4040 -0.1661
29688SOL     OW96113   8.743   3.262  12.138 -0.0008 -0.2847  0.6893
29688SOL    HW196114   8.743   3.259  12.234  0.4010 -0.6920  0.6805
29688SOL    HW296115   8.781   3.347  12.116  1.2930 -0.8045  0.8829
29689SOL     OW96116  10.363   5.751  11.828  0.1855  0.4910 -0.0813
29689SOL    HW196117  10.410   5.679  11.870 -1.6999  0.3229  1.9252
29689SOL    HW296118  10.273   5.718  11.819 -0.3154  1.9571 -0.7661
29690SOL     OW96119   9.888   3.633   0.262 -0.2480  0.1460  0.3292
29690SOL    HW196120   9.829   3.609   0.333 -0.2320  1.2487  0.7402
29690SOL    HW296121   9.949   3.560   0.255 -0.8895 -0.4359  0.7504
29691SOL     OW96122   7.564   4.796  12.273 -0.4879  0.5303  0.2122
29691SOL    HW196123   7.615   4.804  12.353  0.8286 -0.7448 -0.4532
29691SOL    HW296124   7.603   4.859  12.212  1.6705 -1.7462 -0.9263
29692SOL     OW96125  12.040  11.123   0.475  0.2126 -0.3474 -0.1571
29692SOL    HW196126  11.969  11.113   0.537 -0.1169 -0.1711 -0.5011
29692SOL    HW296127  12.000  11.167   0.399  0.2687 -1.8755 -1.1024
29693SOL     OW96128   1.124   3.038   9.776 -0.1773  0.5242  0.3803
29693SOL    HW196129   1.195   2.990   9.819  0.4689  2.1920  1.2816
29693SOL    HW296130   1.168   3.090   9.708 -0.5981  1.0776  0.5185
29694SOL     OW96131   4.049   1.632   3.625 -0.6222  0.2902  0.3389
29694SOL    HW196132   4.062   1.679   3.542 -0.4957 -1.0257 -0.4090
29694SOL    HW296133   3.955   1.614   3.628 -0.6587  0.5125  0.5868
29695SOL     OW96134   4.327  10.697   6.662  0.1992 -0.2577 -0.3357
29695SOL    HW196135   4.421  10.686   6.648  0.3191 -0.4150  0.5402
29695SOL    HW296136   4.299  10.614   6.701 -0.5163 -0.6307 -1.5699
29696SOL     OW96137   1.279  11.265   0.185  0.1146  0.2833  0.1596
29696SOL    HW196138   1.325  11.181   0.186 -0.5917 -0.1177 -0.2488
29696SOL    HW296139   1.296  11.300   0.097  0.7884  0.7940  0.4820
29697SOL     OW96140   5.734  12.236   9.990  0.2972 -0.0024 -0.1772
29697SOL    HW196141   5.822  12.222   9.954  0.7198 -1.3498  1.3013
29697SOL    HW296142   5.738  12.325  10.027  2.0842 -1.1071  2.5750
29698SOL     OW96143  10.804  10.927  12.350 -0.1204  0.0768 -0.4822
29698SOL    HW196144  10.840  10.866  12.414 -2.0657  0.6696  1.2810
29698SOL    HW296145  10.833  11.013  12.380 -0.2888  0.2989 -0.9483
29699SOL     OW96146  11.040   6.921   9.931 -0.1608 -0.1782 -0.2348
29699SOL    HW196147  11.032   6.833   9.894 -0.2455 -0.6575  0.8903
29699SOL    HW296148  11.094   6.909  10.009 -1.7926  0.4370  1.0446
29700SOL     OW96149   2.532   2.335   0.476  0.5324 -0.3684 -0.4376
29700SOL    HW196150   2.448   2.365   0.441  0.2665 -0.4656  0.1027
29700SOL    HW296151   2.590   2.333   0.401  0.5441  1.4526 -0.5257
29701SOL     OW96152   4.440   6.484   1.246  0.2587 -0.4274 -0.1223
29701SOL    HW196153   4.370   6.533   1.201  0.2270  0.1782  0.5681
29701SOL    HW296154   4.462   6.413   1.185 -0.8112 -0.5060 -0.4491
29702SOL     OW96155   6.056   0.473   4.760  0.1935  0.1266 -0.1905
29702SOL    HW196156   6.114   0.444   4.830 -0.7461 -0.9544  0.1684
29702SOL    HW296157   6.011   0.394   4.731 -0.9831  0.9003 -0.5661
29703SOL     OW96158  11.040   8.097   1.403  0.0856  0.1346  0.3347
29703SOL    HW196159  11.123   8.080   1.358  0.0210 -0.6512  0.4840
29703SOL    HW296160  11.050   8.184   1.440  1.1469 -0.2324  0.9887
29704SOL     OW96161  10.465   6.425   2.617 -0.1559 -0.3419 -0.1341
29704SOL    HW196162  10.431   6.509   2.587 -0.5678 -0.4385  0.0486
29704SOL    HW296163  10.454   6.367   2.542 -0.5181 -0.4037 -0.0367
29705SOL     OW96164   4.767   0.754   4.206 -0.1383  0.1837 -0.3029
29705SOL    HW196165   4.841   0.815   4.204  1.1844 -1.3519 -2.1495
29705SOL    HW296166   4.690   0.810   4.201  0.8721  1.8180  1.2982
29706SOL     OW96167   6.108   8.876   1.798 -0.2685  0.0171  0.3594
29706SOL    HW196168   6.072   8.788   1.803  0.7941 -0.4593 -0.1156
29706SOL    HW296169   6.167   8.875   1.723  3.3261 -0.2692  2.9192
29707SOL     OW96170   2.991   3.436   0.816 -0.2664 -0.3445 -0.1556
29707SOL    HW196171   3.069   3.485   0.793  0.1021 -1.3447 -1.1175
29707SOL    HW296172   2.985   3.366   0.750 -1.2945 -1.0160  0.6030
29708SOL     OW96173  10.251   7.671   3.889  0.1155  0.5411  0.1677
29708SOL    HW196174  10.211   7.603   3.834 -0.9244  0.8836  0.4655
29708SOL    HW296175  10.196   7.748   3.876  0.1545  0.7840  1.2722
29709SOL     OW96176   7.669  11.999   7.565 -0.3253  0.6405  0.6925
29709SOL    HW196177   7.757  11.985   7.531  0.1046  2.4310  0.9484
29709SOL    HW296178   7.626  12.053   7.498 -1.2005 -0.1476  0.6084
29710SOL     OW96179   1.532   0.884  12.446 -0.0584 -1.1458 -0.2400
29710SOL    HW196180   1.617   0.852  12.414 -0.7664 -1.9999 -1.3771
29710SOL    HW296181   1.524   0.972  12.409  0.8322 -0.5713  0.8716
29711SOL     OW96182  10.850   0.359   4.804  0.4964  0.3523 -0.5032
29711SOL    HW196183  10.899   0.406   4.871  1.5033  2.4490 -2.5778
29711SOL    HW296184  10.912   0.295   4.769 -0.6904 -2.3448  1.8980
29712SOL     OW96185   8.292  11.736   0.881  0.8337  0.0426  0.0480
29712SOL    HW196186   8.257  11.817   0.918  0.0126 -0.4180  0.3291
29712SOL    HW296187   8.216  11.677   0.879  1.5460 -0.9099  0.4232
29713SOL     OW96188   5.883   4.261   3.798 -0.4615  0.6038  0.3889
29713SOL    HW196189   5.898   4.212   3.879  0.0640  0.8106  0.4210
29713SOL    HW296190   5.961   4.243   3.745 -1.2161 -0.2922 -0.4600
29714SOL     OW96191  11.242   3.331   2.679  0.1580 -0.1818  0.3435
29714SOL    HW196192  11.205   3.373   2.756  1.9713  0.4730  0.9078
29714SOL    HW296193  11.279   3.249   2.711 -2.3632 -1.7794 -0.5526
29715SOL     OW96194  12.245   2.854   6.725  0.1411  0.1521 -0.1670
29715SOL    HW196195  12.194   2.776   6.748 -0.7365  0.6452 -0.3940
29715SOL    HW296196  12.303   2.825   6.655  0.8865 -0.6702  0.7745
29716SOL     OW96197  11.521  10.857   8.274 -0.0170  0.2616  0.4202
29716SOL    HW196198  11.477  10.903   8.345 -0.4771 -0.7526  0.8139
29716SOL    HW296199  11.457  10.856   8.203  0.6287  1.7273 -0.2234
29717SOL     OW96200  10.439   9.847   5.807  0.4092 -0.5816  0.0695
29717SOL    HW196201  10.388   9.890   5.738 -0.7666 -0.1687  1.1528
29717SOL    HW296202  10.495   9.785   5.760  0.1637  0.1948 -1.3060
29718SOL     OW96203   5.264   8.939   6.085 -0.3574  0.5854 -0.1878
29718SOL    HW196204   5.295   8.999   6.018 -0.1437  0.4619 -0.1997
29718SOL    HW296205   5.169   8.945   6.081 -0.3410  0.6967 -0.3925
29719SOL     OW96206  12.438   9.652  12.506 -0.1216 -0.4498  0.5799
29719SOL    HW196207  12.388   9.597  12.446 -0.9517  1.4290 -0.5237
29719SOL    HW296208  12.372   9.708  12.547  0.6386 -0.6238  2.0986
29720SOL     OW96209   9.218   1.654   3.597  0.3647 -0.5648 -0.2129
29720SOL    HW196210   9.142   1.708   3.575  1.9919  2.0516  0.1465
29720SOL    HW296211   9.261   1.637   3.514  0.3031 -0.5459 -0.2483
29721SOL     OW96212   8.923   9.341   8.842 -0.3166  0.8587  0.0854
29721SOL    HW196213   8.990   9.273   8.843 -0.0191  1.1314 -0.6239
29721SOL    HW296214   8.934   9.384   8.757 -2.2177  0.0707 -0.6380
29722SOL     OW96215   4.087   0.489   1.409 -0.3231 -0.9065 -0.3888
29722SOL    HW196216   4.033   0.430   1.358 -0.3208 -0.8344 -0.4746
29722SOL    HW296217   4.028   0.559   1.436 -0.1941 -0.6502 -0.7711
29723SOL     OW96218   9.642   6.786   8.389 -0.4382 -0.4201 -0.0469
29723SOL    HW196219   9.630   6.820   8.478  0.9461 -1.1686  0.4578
29723SOL    HW296220   9.568   6.727   8.376 -0.2734 -0.8576  0.9029
29724SOL     OW96221  11.160   4.660   8.735  0.0305  0.3624  0.3465
29724SOL    HW196222  11.140   4.566   8.737  1.1937  0.1055  1.1267
29724SOL    HW296223  11.118   4.696   8.813  0.3071  0.3300  0.5107
29725SOL     OW96224  10.675   5.840   6.300  0.3110  0.2306 -0.8186
29725SOL    HW196225  10.603   5.877   6.249  1.1404  1.4896 -1.1322
29725SOL    HW296226  10.641   5.833   6.389 -0.2983  0.5317 -1.0209
29726SOL     OW96227   4.860   0.847   2.101  0.4995 -0.0826  0.2114
29726SOL    HW196228   4.815   0.768   2.130 -0.9446  0.7219  0.3241
29726SOL    HW296229   4.951   0.834   2.124 -0.2333 -0.2898  3.4680
29727SOL     OW96230   6.655   9.387   2.346 -0.0276  0.6302 -0.2060
29727SOL    HW196231   6.700   9.445   2.285  0.2920  0.0934 -0.4882
29727SOL    HW296232   6.681   9.298   2.319  1.1154  0.4151  1.4573
29728SOL     OW96233   4.301  10.093   4.080  0.2213  0.0561 -0.0551
29728SOL    HW196234   4.268  10.183   4.076  0.1070  0.0025 -0.2849
29728SOL    HW296235   4.290  10.059   3.992 -1.2649 -0.7308  0.3884
29729SOL     OW96236   3.550   0.876  11.783  0.0295 -0.0192  0.2216
29729SOL    HW196237   3.525   0.803  11.726  0.1386 -0.5179  0.7961
29729SOL    HW296238   3.616   0.839  11.843  0.6702  0.7556  0.0196
29730SOL     OW96239   5.535   2.441  10.085 -0.0315  0.0492 -0.2940
29730SOL    HW196240   5.582   2.409  10.162 -1.9476  2.0191  1.8001
29730SOL    HW296241   5.463   2.379  10.074 -0.0856  0.0928 -0.1803
29731SOL     OW96242   7.162   8.498   1.147  0.2407 -0.0842  0.3141
29731SOL    HW196243   7.099   8.495   1.075  0.5710  0.8813 -0.0336
29731SOL    HW296244   7.132   8.430   1.207 -2.0535  1.3060  0.8915
29732SOL     OW96245   3.558   2.344  10.612  0.6043  0.6773 -0.7512
29732SOL    HW196246   3.637   2.307  10.573  0.6115 -0.1445  0.0124
29732SOL    HW296247   3.503   2.268  10.632  1.1998  0.8814  2.1213
29733SOL     OW96248   4.428   7.730   6.791  0.0729 -0.2404  0.4770
29733SOL    HW196249   4.433   7.670   6.717 -0.4722  0.6842 -0.3499
29733SOL    HW296250   4.338   7.722   6.823 -0.3501  0.8811 -0.3380
29734SOL     OW96251   7.771   7.800   2.084 -0.3185 -0.5774  0.1964
29734SOL    HW196252   7.722   7.719   2.098 -2.8460  0.7312 -0.4461
29734SOL    HW296253   7.738   7.860   2.151 -1.9494  1.2708 -2.1021
29735SOL     OW96254   4.958   6.112   4.434 -0.0423 -0.8499 -0.1175
29735SOL    HW196255   4.991   6.025   4.410  0.0105 -1.5616  2.2132
29735SOL    HW296256   4.893   6.094   4.502 -1.7826  0.8323 -1.2486
29736SOL     OW96257   9.673   8.263   0.591 -0.6359 -0.1893  0.3567
29736SOL    HW196258   9.638   8.177   0.613 -0.2410  0.1461  2.5411
29736SOL    HW296259   9.768   8.252   0.591 -0.4685  0.6301  2.8432
29737SOL     OW96260   8.123   1.286   4.764  0.1871  0.5071  0.3354
29737SOL    HW196261   8.072   1.242   4.833  0.9576 -2.0336 -0.6056
29737SOL    HW296262   8.057   1.323   4.706 -0.5579 -0.2708  0.6537
29738SOL     OW96263   2.066   9.368   2.586  0.2913  0.3615 -0.1271
29738SOL    HW196264   1.971   9.376   2.595  0.2147  0.4172 -0.9506
29738SOL    HW296265   2.079   9.313   2.508  0.9278 -0.2168  0.3689
29739SOL     OW96266   0.881   8.870   0.060  1.1345 -0.4825 -0.1117
29739SOL    HW196267   0.955   8.815   0.036  2.1122  1.3282 -1.4290
29739SOL    HW296268   0.807   8.834   0.010  1.1615 -1.9774  0.8287
29740SOL     OW96269   8.421   2.551  10.185  0.5056  0.2801 -0.0149
29740SOL    HW196270   8.362   2.618  10.221 -1.5100 -1.2551 -0.2664
29740SOL    HW296271   8.363   2.494  10.134  2.6441  0.1463 -2.4955
29741SOL     OW96272   3.053   1.732   6.044  0.4334 -0.2271  0.4778
29741SOL    HW196273   2.998   1.752   6.120  0.2760  0.1105  0.2772
29741SOL    HW296274   3.056   1.636   6.041 -0.4065 -0.2559  0.3018
29742SOL     OW96275   3.081   3.740   3.922 -0.3171 -0.4192 -1.0329
29742SOL    HW196276   3.016   3.779   3.981 -0.6557  0.0569 -1.7068
29742SOL    HW296277   3.153   3.714   3.980  0.2602  1.9086 -0.6043
29743SOL     OW96278  12.459   9.496  10.188 -0.1157 -0.6777 -0.3540
29743SOL    HW196279  12.497   9.410  10.205 -1.2695 -1.3642 -1.0619
29743SOL    HW296280  12.373   9.493  10.231 -0.0469  0.2459 -0.1180
29744SOL     OW96281   6.232   7.241  11.813  0.1142 -0.4684  0.3109
29744SOL    HW196282   6.238   7.203  11.901 -0.5003 -0.5724  0.3167
29744SOL    HW296283   6.251   7.334  11.826 -0.1002 -0.4583  0.5784
29745SOL     OW96284   4.615   0.984   9.189 -0.3620  0.5487  0.5608
29745SOL    HW196285   4.647   0.894   9.189  0.6879  0.9142  0.7775
29745SOL    HW296286   4.520   0.975   9.177 -0.5878 -0.6797  2.8188
29746SOL     OW96287   2.291  11.622   2.520  0.4008  0.1548  0.3279
29746SOL    HW196288   2.285  11.654   2.430 -1.6500  2.3086  1.1263
29746SOL    HW296289   2.234  11.545   2.522  0.8105 -0.1717 -0.3035
29747SOL     OW96290   1.300  11.002   9.248  0.1715  0.2874  0.3236
29747SOL    HW196291   1.283  10.928   9.190  0.9994 -0.4688  1.0183
29747SOL    HW296292   1.326  10.962   9.331  1.0360  1.3425  0.5875
29748SOL     OW96293   7.374  10.689  11.376  0.1880  0.5678 -0.7570
29748SOL    HW196294   7.340  10.761  11.429  2.3989  0.7768  0.5012
29748SOL    HW296295   7.355  10.610  11.426  1.8769  0.7294  0.2288
29749SOL     OW96296   3.499   2.063   4.876 -0.1772  0.1152  0.8400
29749SOL    HW196297   3.570   2.003   4.902 -1.1176 -1.3115  0.2882
29749SOL    HW296298   3.540   2.121   4.812  0.1776 -1.7739 -0.7784
29750SOL     OW96299   9.490   0.920   6.866 -0.1203 -0.2166 -0.1081
29750SOL    HW196300   9.438   0.868   6.804  0.5792  1.5614 -2.2984
29750SOL    HW296301   9.575   0.877   6.867 -0.7530 -1.5255  1.3782
29751SOL     OW96302  11.361   7.757  12.377  0.2982  0.7361 -0.0385
29751SOL    HW196303  11.429   7.822  12.394  1.2183 -0.2358  0.0971
29751SOL    HW296304  11.316   7.747  12.461  0.6211  0.6722  0.1280
29752SOL     OW96305   7.366   7.910   8.628  0.0837 -0.4020  0.3669
29752SOL    HW196306   7.367   7.825   8.583  0.2262 -0.0088 -0.3817
29752SOL    HW296307   7.367   7.887   8.721  1.2870 -1.2036  0.1804
29753SOL     OW96308   2.689   4.901   2.841 -0.0702  0.1929 -0.0913
29753SOL    HW196309   2.597   4.919   2.861  0.1167 -0.0060  1.0379
29753SOL    HW296310   2.713   4.830   2.901  0.5765 -0.3808 -1.0064
29754SOL     OW96311   9.423   1.993   4.119 -0.0711  0.4490  0.3695
29754SOL    HW196312   9.378   2.076   4.110  0.5310  0.7122 -0.3728
29754SOL    HW296313   9.386   1.938   4.050 -0.0051  0.3170  0.4379
29755SOL     OW96314   1.132  10.917  10.551  0.6950 -0.3338  0.3133
29755SOL    HW196315   1.212  10.914  10.605  0.4296 -0.9082  0.6831
29755SOL    HW296316   1.064  10.948  10.610  1.0397  2.3271 -0.5418
29756SOL     OW96317   7.410   0.626  10.312 -0.1713  0.0516 -0.1130
29756SOL    HW196318   7.423   0.531  10.313 -1.0586 -0.0955 -0.5385
29756SOL    HW296319   7.497   0.663  10.323  0.5002 -0.8194 -1.9729
29757SOL     OW96320   0.458   3.687   9.109  0.7133 -0.0856 -0.2667
29757SOL    HW196321   0.406   3.620   9.153  0.0179 -0.1191 -1.1111
29757SOL    HW296322   0.423   3.770   9.141  1.0291 -0.1132  0.1603
29758SOL     OW96323   7.117   9.219   3.538  0.4388  0.3543 -0.2391
29758SOL    HW196324   7.135   9.273   3.615  1.4827  1.4364 -1.1936
29758SOL    HW296325   7.022   9.224   3.526  0.5158  2.1302 -0.3724
29759SOL     OW96326  12.460   2.744   9.676 -0.1169  0.1582  0.6895
29759SOL    HW196327  12.448   2.824   9.625  0.2363  1.3733  2.4246
29759SOL    HW296328  12.457   2.773   9.767  3.3207 -1.2772  1.4197
29760SOL     OW96329   3.787  12.263  11.820 -0.0751  0.0031 -0.1750
29760SOL    HW196330   3.820  12.344  11.782 -0.2023  0.6598  1.0578
29760SOL    HW296331   3.863  12.221  11.860 -0.2947  0.3552  0.6343
29761SOL     OW96332   4.582   4.372   4.170  0.1545 -0.1774 -0.0695
29761SOL    HW196333   4.533   4.448   4.202  1.4142  0.7714 -0.2778
29761SOL    HW296334   4.553   4.362   4.079 -1.1869 -0.9590  0.4348
29762SOL     OW96335   3.477   8.310   6.640  0.6797 -0.3186  0.0598
29762SOL    HW196336   3.509   8.321   6.729  1.2194  1.6488 -0.3390
29762SOL    HW296337   3.433   8.392   6.619 -0.6385 -1.2499 -1.0353
29763SOL     OW96338  10.134   4.412   6.016  0.3365  0.0368 -0.1828
29763SOL    HW196339  10.220   4.411   5.974  0.0990  0.5554 -0.6943
29763SOL    HW296340  10.074   4.444   5.949 -0.0370  0.9808  0.5705
29764SOL     OW96341   1.618   7.052  11.757  0.1890 -0.2040 -0.1587
29764SOL    HW196342   1.593   7.062  11.849 -0.3277 -0.5561 -0.2628
29764SOL    HW296343   1.628   6.958  11.745  0.1865 -0.1627 -0.4845
29765SOL     OW96344  12.514   5.107   8.646  0.1321 -0.0495  0.5923
29765SOL    HW196345  12.502   5.023   8.601 -1.9920  0.2028  0.5771
29765SOL    HW296346  12.583   5.151   8.597  1.3315 -1.7956  0.6372
29766SOL     OW96347   0.563   4.582   0.233  0.0094  0.2174 -0.3173
29766SOL    HW196348   0.585   4.518   0.301  0.5091  0.2209 -0.4725
29766SOL    HW296349   0.571   4.667   0.276 -1.5162  0.1725  0.1414
29767SOL     OW96350   3.325   5.576   8.777  0.1121 -0.2040  0.0637
29767SOL    HW196351   3.326   5.488   8.814 -0.7837 -0.0029  0.5919
29767SOL    HW296352   3.376   5.629   8.838  0.7868 -0.3814 -0.3376
29768SOL     OW96353  11.074  10.119   7.213  0.0641 -0.3017 -0.3278
29768SOL    HW196354  10.984  10.098   7.188  0.4286 -0.0850 -1.8841
29768SOL    HW296355  11.089  10.068   7.292 -1.2285 -0.7943 -0.3771
29769SOL     OW96356   0.984   1.425   8.805  0.2184 -0.1473  0.1721
29769SOL    HW196357   1.045   1.357   8.775 -0.7749 -0.3946 -1.3996
29769SOL    HW296358   0.982   1.414   8.900  5.5462  2.3470  0.9504
29770SOL     OW96359   8.731   8.101   5.921  0.1491 -0.2760 -0.1861
29770SOL    HW196360   8.747   8.027   5.863 -0.3613 -0.2092 -0.4224
29770SOL    HW296361   8.743   8.067   6.009  0.4078 -0.5113 -0.3114
29771SOL     OW96362  10.507   2.844  11.451  0.0916  0.3524 -0.1908
29771SOL    HW196363  10.531   2.754  11.473  0.1891  0.0405 -1.5066
29771SOL    HW296364  10.443   2.869  11.518 -1.4666 -1.4133 -0.9305
29772SOL     OW96365   6.034   2.354   3.159 -0.2160 -0.5970 -0.1747
29772SOL    HW196366   6.054   2.372   3.251 -0.8871  0.2587 -0.1959
29772SOL    HW296367   6.085   2.275   3.139 -1.8986 -2.2441  1.6040
29773SOL     OW96368   7.454   7.773  12.348 -0.3229 -0.1872 -0.0109
29773SOL    HW196369   7.494   7.823  12.418 -0.9617 -0.2974  0.4432
29773SOL    HW296370   7.523   7.713  12.319  0.0242  0.0360  0.3417
29774SOL     OW96371   5.804  11.397   8.606  0.5037  0.4948  0.1898
29774SOL    HW196372   5.858  11.399   8.685  1.1666  1.9569 -0.2712
29774SOL    HW296373   5.810  11.306   8.575  1.5549  0.2949  0.9230
29775SOL     OW96374   8.171   4.035   2.003 -0.0498  0.0243 -0.5848
29775SOL    HW196375   8.214   4.116   1.976  1.4820 -0.3194  0.6521
29775SOL    HW296376   8.099   4.064   2.059  0.4656  0.5414 -0.1733
29776SOL     OW96377   2.806  12.063   5.058  0.1626  0.1314 -0.1799
29776SOL    HW196378   2.786  12.113   4.979 -1.8702  0.1907  0.3088
29776SOL    HW296379   2.817  12.129   5.126 -2.9735  0.0275  0.5634
29777SOL     OW96380   0.131   2.127   3.639  0.2617  0.0921 -0.4022
29777SOL    HW196381   0.144   2.218   3.665 -2.0618  0.0241  1.3693
29777SOL    HW296382   0.169   2.077   3.712 -1.3363 -0.2404  0.2327
29778SOL     OW96383  10.017   6.175   4.772 -0.2207  0.4343 -0.5653
29778SOL    HW196384   9.969   6.153   4.692 -0.1758 -0.9863 -0.2216
29778SOL    HW296385  10.098   6.217   4.740 -0.6082  0.7063 -1.2207
29779SOL     OW96386   6.940   6.693   1.859 -0.0207  0.3834  0.3138
29779SOL    HW196387   7.013   6.727   1.806 -0.4326  1.2299  0.2709
29779SOL    HW296388   6.869   6.678   1.797  0.8558 -2.8963 -0.0823
29780SOL     OW96389   1.838   7.855   4.992  0.6849 -0.3234 -0.0831
29780SOL    HW196390   1.777   7.883   4.924  0.1073  1.2185  1.0249
29780SOL    HW296391   1.782   7.834   5.067  1.4660  1.5872  1.1170
29781SOL     OW96392   7.932   6.702   9.330 -0.0007 -0.4794 -0.0056
29781SOL    HW196393   7.909   6.735   9.242 -1.0103  0.4682  0.5804
29781SOL    HW296394   7.986   6.625   9.313  0.1910 -0.0680 -1.4637
29782SOL     OW96395   1.697   5.178   4.789 -0.2271 -0.7032 -0.1213
29782SOL    HW196396   1.751   5.130   4.852 -1.0671 -0.5861  0.7079
29782SOL    HW296397   1.674   5.112   4.723 -1.6476 -1.5665  1.1843
29783SOL     OW96398   2.102   5.128  10.386 -0.6624 -0.0087  0.4930
29783SOL    HW196399   2.014   5.166  10.384  0.1876  2.1444  0.8862
29783SOL    HW296400   2.111   5.092  10.474 -1.5537 -1.3961  0.0549
29784SOL     OW96401   0.378   5.375   1.768  0.1467  0.5670 -0.4583
29784SOL    HW196402   0.442   5.445   1.776 -2.0816  3.0186 -2.2577
29784SOL    HW296403   0.339   5.368   1.855  0.1192  1.9063 -0.3378
29785SOL     OW96404   9.950   9.728   0.258 -0.7805  0.3477  0.3172
29785SOL    HW196405  10.039   9.698   0.242 -0.7554 -0.0228  1.1078
29785SOL    HW296406   9.897   9.684   0.192 -0.1787  1.8522 -1.2621
29786SOL     OW96407   2.888   5.457   8.786  0.0634  0.2058  0.3706
29786SOL    HW196408   2.845   5.515   8.849 -0.9395 -1.5222  1.3247
29786SOL    HW296409   2.966   5.426   8.832  0.2390  0.2535  0.1095
29787SOL     OW96410   8.182   0.855  10.037 -0.2605 -0.4180  0.4772
29787SOL    HW196411   8.137   0.885   9.959  0.7854  0.0373  0.0279
29787SOL    HW296412   8.180   0.759  10.032  2.2892 -0.4749 -1.6641
29788SOL     OW96413   6.969   0.054   5.535  0.1927 -0.3366  0.2579
29788SOL    HW196414   7.001  -0.019   5.587  0.6503  0.1547  0.6819
29788SOL    HW296415   7.039   0.119   5.540  0.1160 -0.1623 -0.7290
29789SOL     OW96416   5.663  10.554   5.223  0.6313  1.0066  0.1019
29789SOL    HW196417   5.669  10.485   5.289 -1.0260  3.0059  2.5221
29789SOL    HW296418   5.750  10.557   5.184  0.9302 -1.9958  0.3074
29790SOL     OW96419   9.894   0.044   1.301  0.0126  0.3941  0.0815
29790SOL    HW196420   9.804   0.014   1.288 -0.0051  0.4217  0.1370
29790SOL    HW296421   9.928  -0.012   1.372  0.3255 -0.2106 -0.5344
29791SOL     OW96422   8.226   6.912   6.002  0.5613  0.1537 -0.4602
29791SOL    HW196423   8.305   6.866   5.975 -0.4641  0.3236 -4.2258
29791SOL    HW296424   8.242   7.003   5.979 -0.2532  0.4270  0.0123
29792SOL     OW96425   8.260   7.155   1.189  0.7477 -0.1384  0.2669
29792SOL    HW196426   8.196   7.169   1.259 -1.0826  2.0394 -1.6551
29792SOL    HW296427   8.227   7.080   1.140  1.6462 -1.2222  1.2822
29793SOL     OW96428   1.837   2.549   9.573  0.4616 -0.4745  0.1060
29793SOL    HW196429   1.748   2.527   9.602 -0.0757 -1.8197 -2.3304
29793SOL    HW296430   1.824   2.619   9.508  1.4116  0.7669  1.1936
29794SOL     OW96431  12.065  11.129   6.948  0.8751 -0.6747  0.7990
29794SOL    HW196432  12.003  11.072   6.994 -0.7540 -1.4615 -2.1340
29794SOL    HW296433  12.044  11.217   6.979 -2.0908 -0.8632 -0.3979
29795SOL     OW96434  12.122  10.846   3.646  0.0146 -0.3763 -0.2586
29795SOL    HW196435  12.029  10.831   3.661 -0.1589  0.4095 -0.4884
29795SOL    HW296436  12.166  10.778   3.697 -0.6346  0.1996  1.1373
29796SOL     OW96437   1.594   8.977   0.166  0.4985 -0.4634  0.5486
29796SOL    HW196438   1.567   9.038   0.098  0.3789 -1.8698 -0.7122
29796SOL    HW296439   1.680   9.008   0.194  1.0611 -0.4816 -1.0553
29797SOL     OW96440   1.930  11.639   8.513 -0.1126  0.5220 -0.8219
29797SOL    HW196441   1.922  11.677   8.426 -0.3352  0.2648 -0.9157
29797SOL    HW296442   1.908  11.546   8.501 -2.8719  0.9973 -0.0410
29798SOL     OW96443   2.332   7.205   1.679  0.4569  0.1989 -0.0879
29798SOL    HW196444   2.307   7.142   1.611 -0.0883  0.6022 -0.2684
29798SOL    HW296445   2.389   7.155   1.737 -1.6380 -1.1144  0.9574
29799SOL     OW96446   1.508   4.848  10.684 -0.1134 -0.3067 -0.0721
29799SOL    HW196447   1.483   4.907  10.613 -0.7361  0.1885  0.5384
29799SOL    HW296448   1.475   4.891  10.763 -0.1114 -1.2176  0.4374
29800SOL     OW96449  12.272   0.634   1.207 -0.0721  0.0032  0.3438
29800SOL    HW196450  12.233   0.550   1.232  0.5630 -0.5334 -0.4064
29800SOL    HW296451  12.204   0.699   1.226 -1.2461 -0.8753 -0.6918
29801SOL     OW96452   7.106   1.390   7.131 -0.1220 -0.3946 -0.5126
29801SOL    HW196453   7.039   1.440   7.177  0.0060 -0.8170  0.1489
29801SOL    HW296454   7.071   1.301   7.127  0.3322 -0.5841 -0.2953
29802SOL     OW96455   2.651   1.447   2.105  0.0930  0.0463  0.4619
29802SOL    HW196456   2.613   1.371   2.060  1.7690 -0.0147 -0.9546
29802SOL    HW296457   2.676   1.414   2.191 -3.8490  0.3480  1.9197
29803SOL     OW96458   8.330  11.836   6.576  0.5184  0.6466  0.1424
29803SOL    HW196459   8.284  11.897   6.634  0.3842  1.2599 -0.5905
29803SOL    HW296460   8.360  11.765   6.634 -1.3948  0.1934  0.6247
29804SOL     OW96461   6.188   9.384  10.772  0.0171 -0.1144  0.3427
29804SOL    HW196462   6.264   9.336  10.806 -0.8398 -0.3812  1.9614
29804SOL    HW296463   6.113   9.347  10.818 -1.0312  0.6346 -0.7093
29805SOL     OW96464   5.482   5.821   1.243 -0.4384  0.3828 -0.1861
29805SOL    HW196465   5.519   5.847   1.327  0.9455  1.3437 -1.0478
29805SOL    HW296466   5.453   5.731   1.256  1.6949 -0.2457  0.7636
29806SOL     OW96467   4.230   3.443   4.260 -0.2634 -0.2623 -0.0256
29806SOL    HW196468   4.223   3.409   4.349 -1.1401 -1.0786 -0.3802
29806SOL    HW296469   4.283   3.522   4.268 -1.4627  0.4474  1.4236
29807SOL     OW96470  10.252   4.030   0.354 -0.4994  0.1716 -0.3068
29807SOL    HW196471  10.192   3.961   0.383 -0.4054 -0.2106 -1.0075
29807SOL    HW296472  10.211   4.112   0.382  0.3386 -0.2066  2.3696
29808SOL     OW96473  12.497   5.693   2.060  0.2830  0.3830 -0.4514
29808SOL    HW196474  12.578   5.708   2.108 -0.6968  0.4724  1.2560
29808SOL    HW296475  12.514   5.616   2.006  1.9837  1.3362 -1.3475
29809SOL     OW96476   4.270   0.763   3.610 -0.1388  0.5501 -0.0315
29809SOL    HW196477   4.202   0.737   3.548  0.3303  1.6149 -1.0367
29809SOL    HW296478   4.245   0.851   3.638  0.8931  1.0378 -0.5736
29810SOL     OW96479  10.822   6.676  11.020  0.2601 -0.6036 -0.5075
29810SOL    HW196480  10.915   6.700  11.019  0.0657  0.2234  0.0021
29810SOL    HW296481  10.820   6.592  11.067  0.7885 -0.8614 -0.9226
29811SOL     OW96482   9.541   8.867   2.978  0.9670 -0.3958  0.0379
29811SOL    HW196483   9.586   8.918   2.911  0.3036  0.4496  0.2219
29811SOL    HW296484   9.572   8.903   3.061 -0.6029  0.7290  0.1691
29812SOL     OW96485   1.011   8.963   7.150 -0.2178 -0.0805  0.1372
29812SOL    HW196486   1.011   8.962   7.245  0.0405  0.3889  0.1464
29812SOL    HW296487   0.976   9.049   7.126 -2.0652 -0.8852 -0.2216
29813SOL     OW96488   3.885   4.291  10.744  0.0812 -0.1809  0.7726
29813SOL    HW196489   3.980   4.303  10.737  0.1389 -0.6894  0.6490
29813SOL    HW296490   3.851   4.378  10.765  0.5040  0.1413  0.1437
29814SOL     OW96491   0.008   1.364   6.755 -0.5347 -0.6536  0.5630
29814SOL    HW196492   0.055   1.355   6.838 -0.0928  2.2643  0.7243
29814SOL    HW296493   0.064   1.321   6.691  0.4692 -0.5213  1.3332
29815SOL     OW96494   4.625   1.976   4.454  0.2462  0.1254  0.3619
29815SOL    HW196495   4.619   2.009   4.543  0.4548  0.2593  0.3271
29815SOL    HW296496   4.662   1.889   4.462 -0.6637 -0.2574  0.4849
29816SOL     OW96497   3.637   3.909   7.835 -0.5546 -0.0074  0.0943
29816SOL    HW196498   3.587   3.831   7.812 -1.6305  1.1610 -1.7979
29816SOL    HW296499   3.575   3.965   7.881 -0.5456  0.7502 -0.7799
29817SOL     OW96500  10.644   9.101  10.976  0.2808 -0.1346  0.2414
29817SOL    HW196501  10.680   9.186  10.950  0.2896 -0.2711 -0.2002
29817SOL    HW296502  10.568   9.123  11.029 -0.4535  0.1663 -0.8896
29818SOL     OW96503   0.139   5.814   3.693  0.5225 -0.3072 -0.4306
29818SOL    HW196504   0.152   5.884   3.757 -0.8227  0.2777 -0.7571
29818SOL    HW296505   0.157   5.733   3.742 -1.1520  0.0812  0.9267
29819SOL     OW96506  12.440   9.123   4.714 -0.1066 -0.9712  0.4050
29819SOL    HW196507  12.532   9.110   4.733  0.5265  0.7947 -1.1313
29819SOL    HW296508  12.439   9.185   4.641 -2.5171 -0.6977  0.5809
29820SOL     OW96509   4.362   8.636  12.125  0.2942  0.4169 -0.4067
29820SOL    HW196510   4.454   8.612  12.113 -0.0294 -1.7252  0.9948
29820SOL    HW296511   4.325   8.566  12.178 -1.3885  2.8085  1.8327
29821SOL     OW96512   2.871   9.658   0.554 -0.2760  0.2893  0.1276
29821SOL    HW196513   2.788   9.686   0.594 -0.5637  2.9493 -2.0367
29821SOL    HW296514   2.845   9.600   0.483 -0.0160 -1.2511  1.2374
29822SOL     OW96515   9.422   3.322   6.879 -0.6021 -0.3262 -0.1038
29822SOL    HW196516   9.332   3.309   6.849 -1.2337 -2.5612  2.3601
29822SOL    HW296517   9.476   3.272   6.818 -1.0659  0.4824 -1.2094
29823SOL     OW96518   5.569   9.153   6.465  0.2476 -0.3676  0.0335
29823SOL    HW196519   5.642   9.100   6.497  0.1529 -0.0223  0.8569
29823SOL    HW296520   5.580   9.155   6.370  1.2166 -0.4627  0.1336
29824SOL     OW96521  12.422   4.170   5.587  0.1648 -0.0100  0.2120
29824SOL    HW196522  12.476   4.136   5.658  1.5025  0.7144 -0.4370
29824SOL    HW296523  12.449   4.261   5.578 -2.0029  0.7557  0.6435
29825SOL     OW96524   7.133   1.901  10.188 -0.2729 -0.1055 -0.0169
29825SOL    HW196525   7.075   1.893  10.264 -0.3549 -2.2739 -0.2479
29825SOL    HW296526   7.077   1.936  10.119 -0.4281  1.0183  0.6503
29826SOL     OW96527   8.174   1.571   3.844  0.0512 -0.0987 -0.2596
29826SOL    HW196528   8.209   1.555   3.756  0.9630 -1.1468  0.2786
29826SOL    HW296529   8.155   1.665   3.845  0.4956  0.0175 -1.4060
29827SOL     OW96530  11.214   2.830  10.601 -0.8476 -0.4104  0.3955
29827SOL    HW196531  11.239   2.913  10.641  0.3572 -2.1627  3.6287
29827SOL    HW296532  11.124   2.843  10.572 -0.6224  2.0409  0.6107
29828SOL     OW96533   4.101   7.231   0.011 -0.3213  0.3294 -0.0734
29828SOL    HW196534   4.163   7.230   0.084 -0.1476  1.0584 -0.2083
29828SOL    HW296535   4.060   7.144   0.013 -0.8014  0.5767  1.2959
29829SOL     OW96536  10.267   0.959   2.861  0.2144  0.0866  0.0886
29829SOL    HW196537  10.252   0.898   2.933  0.2750 -0.5566 -0.4292
29829SOL    HW296538  10.188   0.952   2.807  0.9512 -0.8919 -0.9256
29830SOL     OW96539   7.610   7.378   6.961  0.5015 -0.1333 -0.2601
29830SOL    HW196540   7.610   7.447   7.027  0.4544  0.1179 -0.5192
29830SOL    HW296541   7.529   7.329   6.977 -0.5830  1.1857 -1.4144
29831SOL     OW96542   2.996   0.285   8.326  0.4418 -0.3475  0.0989
29831SOL    HW196543   2.932   0.309   8.392  0.4357 -1.2972  0.4552
29831SOL    HW296544   2.981   0.192   8.311 -0.1432  0.0153 -1.8898
29832SOL     OW96545   7.651  10.198   8.190 -0.2528 -0.1562  0.5548
29832SOL    HW196546   7.559  10.171   8.196 -0.6626  1.0364  0.1224
29832SOL    HW296547   7.650  10.291   8.214  0.8682 -0.1750  0.7188
29833SOL     OW96548   2.383   9.081   0.808 -0.2216  0.1519  0.2793
29833SOL    HW196549   2.472   9.044   0.809 -0.6650 -1.0964 -1.4642
29833SOL    HW296550   2.392   9.165   0.852  1.3476 -0.9510  2.2364
29834SOL     OW96551  11.824  11.249  11.671 -0.1030 -0.6093  0.7579
29834SOL    HW196552  11.894  11.252  11.605 -1.5265 -1.7222 -0.8922
29834SOL    HW296553  11.849  11.316  11.735  1.5424  0.2656 -0.6928
29835SOL     OW96554  10.044   4.627   5.261 -0.6530 -0.1274 -0.1633
29835SOL    HW196555   9.975   4.568   5.230  0.0516 -0.0952 -1.9528
29835SOL    HW296556  10.006   4.714   5.257 -0.5781 -0.1259 -0.9965
29836SOL     OW96557   3.797   0.325   2.743 -0.5138 -0.1751 -0.1042
29836SOL    HW196558   3.888   0.297   2.755  0.3989  2.1445 -1.1609
29836SOL    HW296559   3.755   0.301   2.826  1.3717 -0.1136  0.9480
29837SOL     OW96560   2.332   9.480  11.244  0.8003 -0.3708 -0.2871
29837SOL    HW196561   2.276   9.475  11.321  0.4358 -0.8288 -0.5714
29837SOL    HW296562   2.402   9.540  11.268  0.7175 -0.5500  0.4171
29838SOL     OW96563   3.710   9.424   9.672  0.2332  0.1067  0.4753
29838SOL    HW196564   3.656   9.487   9.720 -1.6468 -1.2565  0.2524
29838SOL    HW296565   3.708   9.455   9.582  0.6990  0.6394  0.6455
29839SOL     OW96566  11.974  10.020   9.240 -0.3422 -0.1526 -0.0284
29839SOL    HW196567  11.930  10.053   9.162  0.7136  0.2622 -0.4662
29839SOL    HW296568  11.992  10.098   9.292  0.1510 -0.2811 -0.0021
29840SOL     OW96569   3.385   6.895   7.020 -0.2964 -0.1660  0.5256
29840SOL    HW196570   3.294   6.922   7.005 -0.6530 -1.2046  0.7850
29840SOL    HW296571   3.435   6.975   7.005 -1.2499  0.4326  0.3910
29841SOL     OW96572  10.131   0.686   4.915 -0.0244 -0.0629 -0.1071
29841SOL    HW196573  10.202   0.751   4.908  1.1499 -1.4174 -1.3960
29841SOL    HW296574  10.065   0.716   4.852  0.5689 -0.1660 -0.7904
29842SOL     OW96575   7.322   8.578   5.037 -0.1453  0.2750 -0.0801
29842SOL    HW196576   7.301   8.589   5.129  2.1232  1.7749  0.3419
29842SOL    HW296577   7.290   8.490   5.015  1.5373 -1.2073  2.8384
29843SOL     OW96578  11.331  12.389   7.698 -0.5716  0.1884 -0.1980
29843SOL    HW196579  11.348  12.457   7.632  0.9547  1.6959  1.6522
29843SOL    HW296580  11.361  12.308   7.656 -1.9025  0.6615 -2.2485
29844SOL     OW96581   6.529   6.391   3.715  0.1228  0.0613  0.0241
29844SOL    HW196582   6.476   6.404   3.793 -0.3154  2.1823 -0.5472
29844SOL    HW296583   6.515   6.300   3.690 -1.5861  0.0100  1.0829
29845SOL     OW96584   7.141   4.170  11.934  0.1177 -0.1890 -0.0980
29845SOL    HW196585   7.182   4.084  11.923  1.3660  0.4441 -0.5884
29845SOL    HW296586   7.167   4.197  12.023  0.0501 -0.1580 -0.0878
29846SOL     OW96587   5.503   8.098   0.116  0.2429 -0.2981  0.3036
29846SOL    HW196588   5.510   8.102   0.020  1.3759  0.3338  0.3899
29846SOL    HW296589   5.505   8.004   0.136  0.9526 -0.4144 -0.2508
29847SOL     OW96590   4.822   9.237   7.254  0.3910  0.3605  0.8399
29847SOL    HW196591   4.800   9.286   7.333  0.6881 -0.6577  1.5765
29847SOL    HW296592   4.915   9.217   7.263  0.4618  0.3569  0.1584
29848SOL     OW96593   2.307  10.274  10.626 -0.6980  0.0774 -0.1229
29848SOL    HW196594   2.397  10.244  10.643 -0.5404  1.6062  2.2020
29848SOL    HW296595   2.254  10.225  10.689 -1.3910 -0.1929 -0.9034
29849SOL     OW96596   4.662   1.735   2.140 -0.0948  0.0996 -0.0553
29849SOL    HW196597   4.692   1.659   2.089 -0.4483  0.1903 -0.4049
29849SOL    HW296598   4.618   1.696   2.215 -0.4188 -0.0486 -0.3181
29850SOL     OW96599   4.125   4.751  10.219 -0.3267 -0.2621  0.7603
29850SOL    HW196600   4.076   4.749  10.137 -2.2437 -0.8612  1.8490
29850SOL    HW296601   4.106   4.837  10.256  1.2996  0.3889  0.2022
29851SOL     OW96602   9.994   2.879   7.590 -0.7336  0.1897  0.6826
29851SOL    HW196603   9.926   2.902   7.652  0.1745 -0.3154  1.9119
29851SOL    HW296604  10.064   2.841   7.643 -0.7221 -2.1672 -0.8189
29852SOL     OW96605   1.293   2.936   0.209 -0.3116 -0.4845  0.0812
29852SOL    HW196606   1.293   2.925   0.304 -1.9207  1.6848  0.4170
29852SOL    HW296607   1.374   2.982   0.190 -1.1301  1.3415  0.7936
29853SOL     OW96608   9.621   0.030   5.406  0.1927 -0.3001 -0.2075
29853SOL    HW196609   9.590   0.084   5.479 -0.5004 -1.5928  0.4846
29853SOL    HW296610   9.600   0.081   5.328  3.3471  2.4192  0.4531
29854SOL     OW96611   4.958   9.974  12.066 -0.2628  0.5658  0.0435
29854SOL    HW196612   4.933   9.912  11.997  1.7366  2.0240 -2.1913
29854SOL    HW296613   5.053   9.962  12.074 -0.6000 -0.8387  4.0216
29855SOL     OW96614   2.611   2.432   9.667  0.4442  0.2657 -0.2615
29855SOL    HW196615   2.626   2.387   9.584  1.4052 -1.7624  0.9332
29855SOL    HW296616   2.587   2.362   9.728 -0.6494  1.7559  1.0984
29856SOL     OW96617   2.815   7.404   2.348  0.3006  0.1732  0.0551
29856SOL    HW196618   2.846   7.395   2.439  1.3343 -0.4959 -0.3465
29856SOL    HW296619   2.891   7.437   2.301  0.3766 -1.3424 -0.9355
29857SOL     OW96620   1.893   1.897   0.603  0.0022  0.0521 -0.0448
29857SOL    HW196621   1.904   1.857   0.689 -0.7073  1.0042  0.5023
29857SOL    HW296622   1.799   1.897   0.587  0.0668  0.6104 -0.4648
29858SOL     OW96623  11.482  12.442   7.092  0.5228  0.1042  0.7874
29858SOL    HW196624  11.397  12.399   7.103  0.5819 -0.4874 -0.8627
29858SOL    HW296625  11.460  12.530   7.061  0.5044 -0.2091 -0.1176
29859SOL     OW96626  10.979   2.566  12.266 -0.5554  0.1983 -0.2733
29859SOL    HW196627  10.941   2.479  12.272  0.2206 -0.1060  0.3696
29859SOL    HW296628  10.999   2.590  12.356 -0.5728  0.9560 -0.4617
29860SOL     OW96629   9.155  11.943   0.900 -0.6557 -0.5002  0.1238
29860SOL    HW196630   9.227  11.896   0.942  0.1064 -0.7629 -1.4010
29860SOL    HW296631   9.097  11.873   0.868 -1.6670 -0.2895  1.4364
29861SOL     OW96632   9.461  10.737   1.447  0.8204 -0.0536 -0.1542
29861SOL    HW196633   9.453  10.674   1.375 -0.7383  0.6969 -0.6816
29861SOL    HW296634   9.457  10.682   1.526 -2.8553 -0.5662 -0.5250
29862SOL     OW96635   3.590   0.598   4.206 -0.1493 -0.0270  0.3261
29862SOL    HW196636   3.648   0.564   4.138 -0.4669  1.8772 -0.9840
29862SOL    HW296637   3.648   0.647   4.264 -0.1026 -0.2476  0.4650
29863SOL     OW96638   7.992   3.433   2.337  0.0937 -0.3388 -0.2262
29863SOL    HW196639   8.014   3.460   2.248  0.8409 -0.3180 -0.0426
29863SOL    HW296640   8.075   3.437   2.384  0.0015 -1.7549  0.1146
29864SOL     OW96641   6.282   2.481   5.153 -0.0757 -0.2626 -0.0354
29864SOL    HW196642   6.261   2.570   5.122  0.2654 -0.2571 -0.2609
29864SOL    HW296643   6.228   2.470   5.231  2.0324  1.2699  1.7463
29865SOL     OW96644   8.878   8.527   5.901  0.1082  0.0625 -0.1488
29865SOL    HW196645   8.799   8.493   5.943  0.9337  0.5730  1.9393
29865SOL    HW296646   8.851   8.612   5.865 -0.3972  0.0587  0.2056
29866SOL     OW96647   8.685   3.943   3.875  0.3325 -0.0366 -0.6542
29866SOL    HW196648   8.699   4.010   3.808 -0.1000  1.2071  0.4442
29866SOL    HW296649   8.612   3.891   3.842 -1.8511  2.3337  0.0576
29867SOL     OW96650   2.004  10.078   6.340 -0.1526 -0.2628 -0.8988
29867SOL    HW196651   1.956  10.070   6.423 -0.0583  0.9275 -0.7114
29867SOL    HW296652   1.941  10.054   6.273 -1.6153  2.8452 -0.7987
29868SOL     OW96653   4.290   3.693   2.348  0.6631  0.6114 -0.0602
29868SOL    HW196654   4.304   3.631   2.418  0.8171  0.6570 -0.0512
29868SOL    HW296655   4.347   3.664   2.277 -1.8555 -1.4274 -1.4563
29869SOL     OW96656   1.557  10.450  10.002 -0.0531 -0.1821 -0.1288
29869SOL    HW196657   1.620  10.497   9.948  1.6976 -1.1147  1.0342
29869SOL    HW296658   1.485  10.513  10.014 -0.0560  0.3996 -2.6532
29870SOL     OW96659  10.497  10.555  10.839 -0.7246  0.1352  0.1046
29870SOL    HW196660  10.541  10.633  10.872 -1.4858  0.3235  0.7142
29870SOL    HW296661  10.443  10.525  10.912 -0.6186 -0.8412 -0.1913
29871SOL     OW96662   8.805   3.330   3.731 -0.2017 -0.1497 -0.5968
29871SOL    HW196663   8.724   3.373   3.758  0.0178  0.5997 -1.1015
29871SOL    HW296664   8.866   3.344   3.804  0.2664  1.5287 -1.2555
29872SOL     OW96665   6.322   1.670  10.671  0.0968  1.0030  0.5254
29872SOL    HW196666   6.307   1.693  10.579  2.0398  1.9669  0.3908
29872SOL    HW296667   6.244   1.700  10.717 -1.1320  0.0259 -0.8662
29873SOL     OW96668   5.974  10.530   2.596  0.1061 -0.1216 -0.3957
29873SOL    HW196669   5.957  10.591   2.524 -0.4964  0.3587  0.1400
29873SOL    HW296670   6.005  10.586   2.668  0.5365 -0.5748 -0.2224
29874SOL     OW96671  11.502   3.760   3.556  0.0207  0.2954 -0.2871
29874SOL    HW196672  11.438   3.756   3.627  0.1446 -1.3120 -0.2415
29874SOL    HW296673  11.570   3.820   3.589 -1.0869  1.4690 -0.0567
29875SOL     OW96674   8.071   0.938   3.726 -0.7875 -0.1143 -0.0202
29875SOL    HW196675   7.998   0.994   3.750  0.9415  1.4979  1.8091
29875SOL    HW296676   8.072   0.870   3.793 -0.0342  0.4582  0.5642
29876SOL     OW96677   5.521   3.482  12.491 -0.2369  0.8296 -0.3320
29876SOL    HW196678   5.616   3.495  12.487  0.1034 -0.8892  0.9269
29876SOL    HW296679   5.495   3.515  12.577 -0.5168 -0.0779 -0.0568
29877SOL     OW96680   7.851   1.795   2.242 -0.1943  0.2945 -0.7130
29877SOL    HW196681   7.840   1.798   2.337  0.3036 -0.6432 -0.6142
29877SOL    HW296682   7.793   1.725   2.213 -0.3492  0.5825 -1.1026
29878SOL     OW96683   8.797   7.451   0.361 -0.2139  0.2483 -0.0298
29878SOL    HW196684   8.777   7.407   0.444  0.9110  0.6961  0.4904
29878SOL    HW296685   8.848   7.387   0.312 -0.4337  0.1792 -0.1721
29879SOL     OW96686   1.304   3.401   8.358  0.5983  0.1957  0.0209
29879SOL    HW196687   1.215   3.428   8.382  0.7215  0.5794  0.0644
29879SOL    HW296688   1.357   3.426   8.434  1.1082  2.0615 -0.8863
29880SOL     OW96689   8.818   8.030   0.444  0.3008 -0.1079  0.0862
29880SOL    HW196690   8.819   7.964   0.514  0.1283 -0.8242 -0.5677
29880SOL    HW296691   8.828   8.113   0.490 -0.7452 -0.4764  1.0631
29881SOL     OW96692   6.314  10.098   6.794  0.5591 -0.3492 -0.1831
29881SOL    HW196693   6.219  10.088   6.797  0.3402  1.2388 -0.8930
29881SOL    HW296694   6.333  10.121   6.704  1.2281  2.4748  0.5815
29882SOL     OW96695   5.508   5.699   0.903 -0.2220  0.4032 -0.5822
29882SOL    HW196696   5.570   5.770   0.885 -0.3453  0.5444 -0.4476
29882SOL    HW296697   5.560   5.619   0.895  0.1600  0.5562  0.2860
29883SOL     OW96698   8.654  10.111   1.747  0.5296 -0.2199 -0.0461
29883SOL    HW196699   8.702  10.170   1.690  1.3371  1.0041  1.7901
29883SOL    HW296700   8.566  10.149   1.753  0.3153 -0.5849 -0.7613
29884SOL     OW96701   6.626   7.760   2.050 -0.1250 -0.0942  0.3280
29884SOL    HW196702   6.633   7.692   2.116 -1.4166 -0.2275  0.3515
29884SOL    HW296703   6.641   7.716   1.967 -2.0324 -0.6750  0.2409
29885SOL     OW96704  11.500   7.695   9.885 -0.0061  0.0904  0.6182
29885SOL    HW196705  11.543   7.780   9.873  0.9294 -0.5683 -0.8791
29885SOL    HW296706  11.409   7.710   9.859 -0.1008  0.8574  1.3312
29886SOL     OW96707   5.347   9.522   3.056  0.2106 -0.2281  0.2956
29886SOL    HW196708   5.369   9.581   3.128  3.2634 -1.3281  0.3893
29886SOL    HW296709   5.398   9.554   2.982 -1.7251 -0.0261 -1.0185
29887SOL     OW96710   9.675   8.832   5.028  0.4676 -0.3442  0.0815
29887SOL    HW196711   9.581   8.834   5.011  0.7179 -0.6476 -1.4679
29887SOL    HW296712   9.715   8.833   4.941  1.9339  0.8416  0.7363
29888SOL     OW96713  12.012   2.966   4.285  0.1378  0.0830 -0.2763
29888SOL    HW196714  12.016   3.012   4.369  0.9895  1.2640 -0.9419
29888SOL    HW296715  11.923   2.929   4.282  0.4091 -0.8133  1.5501
29889SOL     OW96716   2.537   2.476  12.335 -0.3026  0.3856 -0.3064
29889SOL    HW196717   2.592   2.471  12.258 -0.6060 -1.7975 -0.4389
29889SOL    HW296718   2.598   2.482  12.409 -0.0119  2.2386 -0.6517
29890SOL     OW96719   7.609   2.904  11.776 -0.3515  0.1153  0.6671
29890SOL    HW196720   7.585   2.963  11.705 -0.8339 -0.3687  0.4164
29890SOL    HW296721   7.621   2.961  11.852  0.1827  0.6407  0.2000
29891SOL     OW96722  11.769   1.961   3.348  0.2382 -0.2037 -0.3949
29891SOL    HW196723  11.753   2.055   3.360 -0.1479 -0.4589  1.1692
29891SOL    HW296724  11.864   1.953   3.348  0.2650  0.0554  0.6032
29892SOL     OW96725  10.498   7.284   6.917 -0.4268  0.1869 -0.2760
29892SOL    HW196726  10.563   7.333   6.867 -0.5253  0.1877 -0.4020
29892SOL    HW296727  10.455   7.350   6.972  2.0082 -0.2234  2.4243
29893SOL     OW96728   1.929   6.392   2.233 -0.1505  0.1674  0.5570
29893SOL    HW196729   1.996   6.325   2.248  0.5072  0.8612  0.7566
29893SOL    HW296730   1.935   6.412   2.140 -0.7720 -0.4833  0.3657
29894SOL     OW96731   8.574   1.054   1.985 -0.6640 -0.5489  0.2668
29894SOL    HW196732   8.642   1.085   1.925  0.0015 -1.2392  0.6488
29894SOL    HW296733   8.553   1.130   2.039 -1.4601  0.1602 -0.9880
29895SOL     OW96734   8.960   9.076   6.237  0.0821 -0.2592 -0.3672
29895SOL    HW196735   8.932   9.132   6.164  1.0578  0.6861 -0.0410
29895SOL    HW296736   8.897   9.096   6.307 -1.2942 -1.7021 -1.1497
29896SOL     OW96737  12.222  12.165   2.803 -0.2421  0.1282 -0.0888
29896SOL    HW196738  12.158  12.235   2.788 -1.4093 -0.8598  0.0831
29896SOL    HW296739  12.169  12.085   2.807  0.8319 -0.5531  1.5843
29897SOL     OW96740  11.995   0.796   3.583  0.3877  0.1053 -0.4252
29897SOL    HW196741  11.936   0.748   3.524  0.0372 -1.9322  1.4654
29897SOL    HW296742  11.937   0.841   3.644  0.7286 -0.7553  0.5661
29898SOL     OW96743   5.990   2.196   0.621 -0.1596  0.1464  0.2029
29898SOL    HW196744   5.954   2.204   0.533  0.0641 -0.6757  0.0278
29898SOL    HW296745   6.077   2.235   0.615  0.3186 -0.9255 -0.2530
29899SOL     OW96746   4.789  11.629   6.538 -0.0282  0.1602  0.4531
29899SOL    HW196747   4.703  11.672   6.546  0.0902  0.7669 -1.0745
29899SOL    HW296748   4.825  11.665   6.457  1.1815 -0.9572  0.4776
29900SOL     OW96749   6.163   7.977   2.227  0.5148 -0.0221  0.3589
29900SOL    HW196750   6.123   7.960   2.142 -0.2532 -0.2072  0.7492
29900SOL    HW296751   6.101   7.942   2.290  1.3446 -0.3904  0.9832
29901SOL     OW96752   3.075  12.528   1.307 -0.4066 -0.2683  0.2356
29901SOL    HW196753   3.117  12.481   1.235 -0.8251 -0.5608  0.1828
29901SOL    HW296754   3.025  12.598   1.265  0.9512  0.8398  0.3582
29902SOL     OW96755   4.852  12.263   8.748  0.7782 -0.3127 -0.4481
29902SOL    HW196756   4.903  12.189   8.715 -0.3298 -0.8368 -1.0371
29902SOL    HW296757   4.773  12.263   8.695  0.5952  1.0860 -0.2141
29903SOL     OW96758   6.944   6.591   4.620  0.2827  1.0783  0.0527
29903SOL    HW196759   6.939   6.673   4.671  1.6964  1.5534 -0.5227
29903SOL    HW296760   6.866   6.593   4.565  0.3222  2.0668  0.0127
29904SOL     OW96761   5.747  10.187   8.939  0.1426  0.0447  0.2455
29904SOL    HW196762   5.689  10.206   8.865 -0.0350  0.3573  0.4604
29904SOL    HW296763   5.827  10.154   8.899  0.0930  0.3222 -0.0940
29905SOL     OW96764   3.198  10.486   7.994  0.1567  0.3162 -0.1842
29905SOL    HW196765   3.248  10.500   7.913 -2.4880  2.7129 -1.5445
29905SOL    HW296766   3.227  10.555   8.053 -0.5290  0.8403 -0.4568
29906SOL     OW96767   7.059   8.091   1.491  0.1895  0.5037  0.2210
29906SOL    HW196768   7.042   8.165   1.549 -1.6001  0.9546 -0.8051
29906SOL    HW296769   6.973   8.050   1.479  1.2738 -2.6556  1.8692
29907SOL     OW96770  11.694   9.189   6.384 -0.3124  0.1486  0.1412
29907SOL    HW196771  11.730   9.110   6.345 -0.3142  0.7034 -1.0400
29907SOL    HW296772  11.623   9.215   6.325 -1.6320 -0.0478  1.5718
29908SOL     OW96773   7.526  10.277  11.571  0.5370 -0.0954  0.9501
29908SOL    HW196774   7.487  10.237  11.648  2.5825 -0.2650  1.9691
29908SOL    HW296775   7.607  10.229  11.557  1.2622  1.3227 -0.0084
29909SOL     OW96776  10.158   5.995  11.896  0.5134  0.4341 -0.2738
29909SOL    HW196777  10.174   6.032  11.983 -0.1528 -0.3652  0.1979
29909SOL    HW296778  10.079   5.943  11.907  0.2356  0.5915 -1.4436
29910SOL     OW96779   6.137   9.805   5.333  0.3992 -0.0952  0.5589
29910SOL    HW196780   6.126   9.882   5.277 -1.2358 -0.9419 -0.3620
29910SOL    HW296781   6.056   9.801   5.384  1.2027 -0.2442  1.8533
29911SOL     OW96782   4.467   4.958   5.275 -0.4454  0.1481 -0.5052
29911SOL    HW196783   4.525   4.882   5.278 -1.4807 -0.6537 -0.1381
29911SOL    HW296784   4.413   4.950   5.353 -1.4429  0.5463 -1.1269
29912SOL     OW96785   1.048   2.037   8.653 -0.2111  0.8426 -0.2191
29912SOL    HW196786   0.965   2.015   8.612 -0.8912  0.8964  1.1014
29912SOL    HW296787   1.068   1.963   8.709  1.5175  0.0436 -1.7716
29913SOL     OW96788   9.038   8.176  11.849  0.0882  0.5774 -0.2256
29913SOL    HW196789   9.127   8.163  11.884 -0.4444  0.5880  1.1873
29913SOL    HW296790   9.016   8.266  11.874 -0.5252  0.3924 -0.1100
29914SOL     OW96791   5.293   6.149   8.170 -0.5440  0.3096  0.4432
29914SOL    HW196792   5.386   6.128   8.177 -0.3972  1.0425  0.8249
29914SOL    HW296793   5.259   6.142   8.259 -0.2951  2.4325  0.7684
29915SOL     OW96794   8.254  11.177   4.775  0.2041  0.0142 -0.4910
29915SOL    HW196795   8.171  11.135   4.751 -0.2032  0.2208  0.5242
29915SOL    HW296796   8.230  11.267   4.795  0.7069  0.1273 -0.3932
29916SOL     OW96797   5.131   2.128   1.116  0.2413  0.0301  0.1085
29916SOL    HW196798   5.137   2.170   1.202 -0.3261 -2.0266  1.2207
29916SOL    HW296799   5.060   2.175   1.072  1.9751  2.5527 -0.1599
29917SOL     OW96800   3.976   2.625  12.237  0.7660 -0.3294 -0.3764
29917SOL    HW196801   3.923   2.547  12.220  2.2407 -1.8772  1.5578
29917SOL    HW296802   4.066   2.595  12.227  1.3650  1.0940  0.4814
29918SOL     OW96803   8.306   9.415   2.221 -0.1351  0.7988 -0.3088
29918SOL    HW196804   8.366   9.430   2.294 -0.6846  3.1486 -0.2526
29918SOL    HW296805   8.222   9.396   2.264  0.0431 -0.1971 -0.3758
29919SOL     OW96806   8.661  11.726   5.238 -0.1511  0.1029  0.1591
29919SOL    HW196807   8.746  11.694   5.209  0.2170 -1.3672  2.5378
29919SOL    HW296808   8.656  11.815   5.205  2.3814  0.2520  0.0096
29920SOL     OW96809  11.617   5.066   1.014  0.3368 -0.3488  0.2632
29920SOL    HW196810  11.543   5.046   1.071  0.9816  1.4311  1.8411
29920SOL    HW296811  11.690   5.018   1.053  0.1241 -1.8349 -1.0943
29921SOL     OW96812   5.538   8.753   5.417 -0.1413  0.5243 -0.1243
29921SOL    HW196813   5.478   8.792   5.481  0.0228  1.6828 -0.6606
29921SOL    HW296814   5.485   8.745   5.337  0.4889  1.8817 -0.7066
29922SOL     OW96815   2.961   2.395   5.080  0.0000  0.3456  0.0392
29922SOL    HW196816   2.989   2.324   5.023 -0.7508  0.4088 -0.4351
29922SOL    HW296817   2.870   2.411   5.055  0.2139  1.6175 -0.0174
29923SOL     OW96818   4.162   1.662   6.272  0.1799  0.2513 -0.1722
29923SOL    HW196819   4.245   1.613   6.279 -0.6533 -1.1490  0.2954
29923SOL    HW296820   4.188   1.748   6.238  1.9187  0.1021  0.6455
29924SOL     OW96821  11.116  10.600   6.021  0.0656 -0.1011 -0.3576
29924SOL    HW196822  11.122  10.544   5.943 -0.6591 -1.2503  0.3807
29924SOL    HW296823  11.082  10.683   5.988 -0.0802 -0.5173 -1.2954
29925SOL     OW96824  10.920   5.623   8.387 -0.1922  0.2758  0.1685
29925SOL    HW196825  10.911   5.639   8.293 -0.0605  1.6755  0.3646
29925SOL    HW296826  11.014   5.633   8.403  0.0625 -1.7395  0.1843
29926SOL     OW96827   3.472   2.694   6.859  0.2399  0.7548  0.0892
29926SOL    HW196828   3.477   2.641   6.779  0.6216  0.6125  0.2054
29926SOL    HW296829   3.547   2.665   6.911  1.0470  2.1077 -0.2767
29927SOL     OW96830   3.010   8.641   7.777 -0.2120 -0.5542  0.0894
29927SOL    HW196831   2.942   8.587   7.736  0.8073 -1.5231 -0.3721
29927SOL    HW296832   3.064   8.579   7.826  0.0476  0.2744  0.8804
29928SOL     OW96833   5.122   4.847   7.976 -0.2922  1.0551 -0.0568
29928SOL    HW196834   5.043   4.859   7.923 -0.5718  0.6976  0.2708
29928SOL    HW296835   5.101   4.888   8.059 -0.3997  0.3519  0.2726
29929SOL     OW96836   6.631  10.075   4.746 -0.5013 -0.9525  0.1122
29929SOL    HW196837   6.708  10.087   4.690  0.8939 -1.8502  1.7451
29929SOL    HW296838   6.667  10.064   4.834 -2.6254  1.3121  1.3996
29930SOL     OW96839   0.341   9.808   7.107 -0.4337  0.0182 -0.5100
29930SOL    HW196840   0.351   9.718   7.139  0.1119 -0.0941 -0.9692
29930SOL    HW296841   0.274   9.846   7.163  0.7169 -0.0689  1.0108
29931SOL     OW96842   0.013  10.406   5.371 -0.0946  0.7986  0.4760
29931SOL    HW196843  -0.004  10.477   5.308  1.2246  0.7704  0.0417
29931SOL    HW296844   0.103  10.422   5.401 -0.0561 -0.2466  0.9633
29932SOL     OW96845   5.158   3.846   3.069  0.5525  0.0006 -0.0437
29932SOL    HW196846   5.119   3.909   3.130  1.5227  0.1748  0.4270
29932SOL    HW296847   5.085   3.816   3.016 -0.2243  0.2868  0.8230
29933SOL     OW96848   9.863   0.872   1.336 -0.1332  0.2930  0.2922
29933SOL    HW196849   9.942   0.911   1.373 -1.9352  1.8081  2.8856
29933SOL    HW296850   9.864   0.781   1.369  1.0848 -0.0991 -0.7426
29934SOL     OW96851   1.250   8.446   3.751 -0.2805  0.1815  0.9235
29934SOL    HW196852   1.261   8.383   3.822  0.9127  0.4003  0.9546
29934SOL    HW296853   1.283   8.528   3.787  1.6157  0.0196 -0.2790
29935SOL     OW96854  10.881  10.135   2.173  0.2216  0.2436 -0.1756
29935SOL    HW196855  10.802  10.155   2.223 -0.9518 -4.2692  0.1760
29935SOL    HW296856  10.869  10.181   2.090 -1.9657  0.9907  0.4822
29936SOL     OW96857   2.160   5.254   0.659 -0.2932  0.0160  0.3804
29936SOL    HW196858   2.180   5.293   0.744 -1.5538  1.9132 -0.1285
29936SOL    HW296859   2.235   5.275   0.604 -0.5865  1.0195  0.3527
29937SOL     OW96860   3.763   1.535   0.384 -0.2073 -0.3161 -0.1671
29937SOL    HW196861   3.769   1.560   0.476  5.0995 -0.1867 -0.2666
29937SOL    HW296862   3.686   1.478   0.380 -0.9372  0.0195  4.2072
29938SOL     OW96863   5.541  11.189   7.255 -0.2585  0.0276 -0.2408
29938SOL    HW196864   5.542  11.231   7.169  1.1652 -0.5886 -0.5598
29938SOL    HW296865   5.634  11.179   7.277 -0.6015 -0.8765  0.8456
29939SOL     OW96866   9.305   2.751   3.757 -0.0048  0.4241  0.4073
29939SOL    HW196867   9.242   2.692   3.798 -2.0320  0.5181 -2.3191
29939SOL    HW296868   9.350   2.697   3.693 -0.3921  1.3246 -0.6508
29940SOL     OW96869   2.027  11.955   1.557 -0.9185 -0.5747  0.1888
29940SOL    HW196870   1.932  11.954   1.546 -0.9897  0.0285  0.6926
29940SOL    HW296871   2.053  12.044   1.533 -0.0982 -1.5253 -2.8373
29941SOL     OW96872   0.867   5.248   9.297  0.3882  0.0973  0.6213
29941SOL    HW196873   0.950   5.255   9.344 -0.1757  1.5193  1.4728
29941SOL    HW296874   0.834   5.161   9.319  1.2776 -0.1780  0.9079
29942SOL     OW96875   7.540   3.431   7.836  0.2537  0.6369  0.2086
29942SOL    HW196876   7.542   3.483   7.755 -0.5677 -0.7432 -0.7335
29942SOL    HW296877   7.544   3.496   7.906  2.0684  1.8233 -0.9123
29943SOL     OW96878   9.035   8.856  10.427  0.2076 -0.5760  0.4294
29943SOL    HW196879   9.010   8.787  10.366  1.6783  0.2221 -1.1492
29943SOL    HW296880   8.990   8.934  10.394  0.3360 -0.3141  0.8681
29944SOL     OW96881   0.002   4.097   9.485 -0.3068  0.5732  0.1893
29944SOL    HW196882  -0.061   4.128   9.420 -0.8832  2.3136  1.4865
29944SOL    HW296883  -0.012   4.155   9.561  0.3217 -1.3475  1.8730
29945SOL     OW96884  12.200   4.475   3.623 -0.3026  0.1462  0.1391
29945SOL    HW196885  12.134   4.544   3.618 -1.4012 -0.8184  0.6141
29945SOL    HW296886  12.152   4.395   3.601  0.6119 -0.6398  0.9057
29946SOL     OW96887   2.878   7.016   7.263  0.0544  0.1415  0.1710
29946SOL    HW196888   2.941   7.087   7.273 -2.1108  2.0782  0.9609
29946SOL    HW296889   2.869   6.979   7.350 -0.3519  0.2910  0.1945
29947SOL     OW96890  11.230   3.066   0.069  0.1870 -0.1805  0.1503
29947SOL    HW196891  11.203   3.011  -0.004  1.2773  0.4534 -0.7610
29947SOL    HW296892  11.154   3.123   0.084 -0.0342 -0.2786 -0.5289
29948SOL     OW96893  11.804   9.782   7.266 -0.0378 -0.1839  0.0306
29948SOL    HW196894  11.797   9.702   7.318 -0.7709 -0.3665 -0.3231
29948SOL    HW296895  11.798   9.751   7.175 -1.1539  0.3257 -0.0909
29949SOL     OW96896   5.983   9.715   3.587 -0.0312  0.5230 -0.1220
29949SOL    HW196897   5.913   9.650   3.589 -0.0636  0.5541  1.7048
29949SOL    HW296898   5.980   9.750   3.498 -1.5842 -0.2713 -0.4324
29950SOL     OW96899  11.626   6.593  11.994 -0.2369  0.2390 -0.1376
29950SOL    HW196900  11.535   6.622  11.984 -0.0666  0.7445 -0.2733
29950SOL    HW296901  11.620   6.503  12.026 -0.7865  0.0025 -0.8976
29951SOL     OW96902   2.498   6.535   3.339  0.1497  0.2447  0.7895
29951SOL    HW196903   2.416   6.487   3.350  0.9774 -0.9936  1.8239
29951SOL    HW296904   2.514   6.576   3.424  0.1005  1.3423  0.2883
29952SOL     OW96905   9.097   1.895   6.017 -0.3346  0.5957 -0.2188
29952SOL    HW196906   9.140   1.968   5.974 -0.9779  0.8463 -0.4402
29952SOL    HW296907   9.136   1.892   6.105 -0.0045  0.9303 -0.3537
29953SOL     OW96908   6.621  10.898  10.327  0.1573 -0.1818  0.0281
29953SOL    HW196909   6.601  10.848  10.405  0.3430 -0.2915  0.0039
29953SOL    HW296910   6.537  10.905  10.281 -0.0485  0.2641  0.4548
29954SOL     OW96911   0.124   4.644   6.122  0.2528  0.6305 -0.2937
29954SOL    HW196912   0.062   4.714   6.101 -0.3276  0.0466 -0.5376
29954SOL    HW296913   0.196   4.657   6.060 -1.1497 -0.6891 -2.3319
29955SOL     OW96914  10.683   4.142  10.305 -0.4769 -0.0951  0.2768
29955SOL    HW196915  10.631   4.065  10.280 -0.7311  0.5607 -1.3706
29955SOL    HW296916  10.633   4.184  10.375 -2.0921  0.3730 -1.0950
29956SOL     OW96917   0.910   4.754   3.426 -0.2001 -0.3457 -0.1429
29956SOL    HW196918   0.936   4.694   3.497 -0.5304 -1.1258 -0.6674
29956SOL    HW296919   0.973   4.825   3.431 -0.0078 -0.5625  0.7194
29957SOL     OW96920   0.861   1.449  10.655  0.2734 -0.4875 -0.0034
29957SOL    HW196921   0.852   1.506  10.579  0.3004  1.5371  1.4205
29957SOL    HW296922   0.947   1.409  10.644 -0.6015 -1.9434 -2.0789
29958SOL     OW96923   9.317   1.995   3.040 -0.4643 -0.0124  0.5629
29958SOL    HW196924   9.222   1.988   3.036 -0.4694  0.7211 -1.7542
29958SOL    HW296925   9.349   1.923   2.986  0.3861 -1.0131  2.3121
29959SOL     OW96926  11.392   5.423   6.360 -0.3062 -0.4965  0.1388
29959SOL    HW196927  11.366   5.357   6.295 -1.7707 -0.8565  1.0261
29959SOL    HW296928  11.355   5.505   6.327  0.5379 -0.3195 -0.3925
29960SOL     OW96929   5.730   2.568   3.960  0.4549  0.4626  0.3609
29960SOL    HW196930   5.747   2.566   4.054 -1.2379  2.9499  0.7865
29960SOL    HW296931   5.696   2.480   3.940  0.7442 -0.0646  2.0580
29961SOL     OW96932   0.256  11.155   7.623 -0.6954 -0.4335  0.9461
29961SOL    HW196933   0.195  11.113   7.683 -1.2785  0.0718  0.7105
29961SOL    HW296934   0.267  11.092   7.552 -3.3272  0.6631 -0.5612
29962SOL     OW96935   8.714   1.216   8.779 -0.0628  0.4564  0.0627
29962SOL    HW196936   8.642   1.253   8.727  0.3767  0.5922 -0.4608
29962SOL    HW296937   8.674   1.142   8.825 -0.7256  1.0096  0.3961
29963SOL     OW96938   7.443   3.130   4.580 -0.0980  0.1408 -0.8035
29963SOL    HW196939   7.400   3.168   4.656  1.0227  0.4014 -0.2849
29963SOL    HW296940   7.428   3.036   4.588 -0.0500  0.1753 -0.3001
29964SOL     OW96941   9.709   2.271   7.595 -0.0290 -0.1675  0.9854
29964SOL    HW196942   9.713   2.297   7.503  0.6787  0.6092  1.2253
29964SOL    HW296943   9.629   2.312   7.628  0.8899  1.4505  1.2687
29965SOL     OW96944   9.870   0.685  10.946  0.0013 -0.0632 -0.4311
29965SOL    HW196945   9.838   0.601  10.912  0.4233 -0.7137  0.7313
29965SOL    HW296946   9.791   0.728  10.979 -0.0238 -0.7320  0.4496
29966SOL     OW96947   8.866  10.007   8.082 -0.4579 -0.1626 -0.5413
29966SOL    HW196948   8.773   9.987   8.093 -0.2216 -0.3089  1.5628
29966SOL    HW296949   8.867  10.100   8.059 -1.0730  0.3062  1.1977
29967SOL     OW96950   5.959   1.410  11.128  0.1578  0.2148 -0.3495
29967SOL    HW196951   5.966   1.502  11.104  2.3236  0.3657  0.6314
29967SOL    HW296952   5.965   1.409  11.224 -1.2124 -0.8766 -0.2369
29968SOL     OW96953  11.863   4.546   4.633 -0.1699  0.5222 -0.6854
29968SOL    HW196954  11.942   4.576   4.588 -0.7935  0.2788 -1.9730
29968SOL    HW296955  11.873   4.579   4.722  0.9941  1.1896 -1.0358
29969SOL     OW96956   6.989  11.990  12.001 -0.0385 -0.4780 -0.3931
29969SOL    HW196957   6.996  11.895  11.998  0.7805 -0.5918  2.3482
29969SOL    HW296958   6.898  12.007  12.023 -0.2918 -0.5607 -1.3078
29970SOL     OW96959   3.319  10.760   6.081  0.5803  0.0115  0.7003
29970SOL    HW196960   3.345  10.843   6.120  0.0806  0.0774  0.8928
29970SOL    HW296961   3.402  10.712   6.071  1.0132  0.9093 -0.3193
29971SOL     OW96962  12.594   8.788   2.444  0.2077  0.0490  0.4257
29971SOL    HW196963  12.536   8.743   2.382 -0.8516  0.7530  0.8702
29971SOL    HW296964  12.551   8.777   2.529  0.9408  0.2504  0.8280
29972SOL     OW96965   5.969   0.795   2.455  0.4865 -0.0134  0.2590
29972SOL    HW196966   5.979   0.783   2.360  0.2609 -1.9784  0.4605
29972SOL    HW296967   5.875   0.791   2.470  0.5482 -0.0711  0.6271
29973SOL     OW96968   4.375   1.994   6.934 -0.4116  0.1412  0.6638
29973SOL    HW196969   4.468   2.004   6.910 -1.0570  0.4725 -2.1124
29973SOL    HW296970   4.364   1.899   6.946 -0.0568 -0.1496 -0.9539
29974SOL     OW96971  10.964   2.511   4.047 -0.2560 -0.0221  0.0031
29974SOL    HW196972  10.877   2.473   4.037 -0.7024  0.6591  1.1571
29974SOL    HW296973  10.973   2.570   3.971 -0.3589 -0.8741 -0.6891
29975SOL     OW96974   0.029   5.119   1.285 -0.0348 -0.1594  0.8047
29975SOL    HW196975   0.002   5.048   1.344  0.9195  1.0872  2.8577
29975SOL    HW296976   0.101   5.083   1.235  1.1099 -0.4021  2.5332
29976SOL     OW96977   1.367   8.886   5.288 -0.4191 -0.6451 -0.5938
29976SOL    HW196978   1.367   8.876   5.193  0.4108  1.6557 -0.8887
29976SOL    HW296979   1.445   8.939   5.307 -1.6534  0.6422  1.1611
29977SOL     OW96980   3.416  11.143  11.004 -0.1015  0.4414  0.7645
29977SOL    HW196981   3.466  11.169  11.081  2.4948 -1.2273 -0.2091
29977SOL    HW296982   3.348  11.085  11.038 -0.1216  1.1182  1.9343
29978SOL     OW96983   1.370   8.127   3.231 -0.1259  0.4772 -0.3322
29978SOL    HW196984   1.437   8.195   3.226  1.5832 -1.1883 -1.4532
29978SOL    HW296985   1.354   8.116   3.324  2.9343 -0.6582  0.1711
29979SOL     OW96986   6.542   4.042   0.225 -0.4002 -0.1856  0.4945
29979SOL    HW196987   6.556   4.126   0.181 -0.7880  0.8154  2.2041
29979SOL    HW296988   6.592   4.049   0.306  0.5756 -2.1176  0.1111
29980SOL     OW96989   1.973   8.051  12.278 -0.4490  0.2892 -0.4198
29980SOL    HW196990   1.903   8.078  12.219 -1.5389 -0.0452  0.6687
29980SOL    HW296991   1.935   8.059  12.365  0.8972  0.1333  0.2083
29981SOL     OW96992   8.179   2.999  11.488 -0.2916 -0.2255  0.3915
29981SOL    HW196993   8.172   2.907  11.514 -1.6764 -0.8490 -1.9400
29981SOL    HW296994   8.121   3.008  11.413 -3.0867  3.4022  2.6171
29982SOL     OW96995  10.658  11.112   6.276  0.3890 -0.3415 -0.0146
29982SOL    HW196996  10.574  11.119   6.230 -1.2774 -1.1130  2.6909
29982SOL    HW296997  10.707  11.190   6.248 -1.6041  0.6366 -0.9897
29983SOL     OW96998   9.060   7.220   9.710 -0.6141  0.1224  0.2214
29983SOL    HW196999   9.085   7.299   9.759 -0.9855 -0.2413  1.0075
29983SOL    HW297000   9.048   7.153   9.777  1.9890 -1.2617 -0.5778
29984SOL     OW97001   3.352  10.142   0.481 -0.3837  0.3483 -0.2491
29984SOL    HW197002   3.259  10.156   0.496 -0.5081 -0.4952 -0.1782
29984SOL    HW297003   3.356  10.060   0.432  0.4819 -1.5297  2.7108
29985SOL     OW97004   9.015   0.182  11.618  0.4458 -0.0994  0.4712
29985SOL    HW197005   9.043   0.133  11.695  0.3373  0.5513  0.9346
29985SOL    HW297006   9.088   0.242  11.600 -1.2486  3.0390  2.8904
29986SOL     OW97007  10.681   8.411   4.775 -0.0740  0.2274 -0.0705
29986SOL    HW197008  10.732   8.356   4.716  0.2927  1.2549 -0.7403
29986SOL    HW297009  10.593   8.375   4.772  0.5490 -1.4902  1.0008
29987SOL     OW97010   1.993   8.816   5.187  0.2752 -0.1047  0.7431
29987SOL    HW197011   2.056   8.815   5.259  1.4358 -0.2251 -0.2326
29987SOL    HW297012   1.957   8.905   5.188  2.6839  0.9638 -0.4931
29988SOL     OW97013   7.743   9.792   9.448  0.0704 -0.3286 -0.1338
29988SOL    HW197014   7.821   9.801   9.502 -0.3330  0.1269  0.3777
29988SOL    HW297015   7.678   9.752   9.506 -0.0643 -0.7451 -0.5687
29989SOL     OW97016   0.580   2.498   9.975 -0.3396 -0.2170  0.0100
29989SOL    HW197017   0.650   2.563   9.983 -0.9520  0.8775 -2.4730
29989SOL    HW297018   0.592   2.441  10.050  2.0210  1.0709  0.7297
29990SOL     OW97019   1.037   3.440   3.298  0.4371 -0.2872  0.3426
29990SOL    HW197020   1.052   3.464   3.206  0.8168 -0.5967  0.3193
29990SOL    HW297021   1.122   3.407   3.328  1.1053  2.3150  1.5976
29991SOL     OW97022   9.570   6.089   8.957  0.4767  0.6316  0.3296
29991SOL    HW197023   9.489   6.061   9.000  0.5321  1.3115  0.8927
29991SOL    HW297024   9.564   6.051   8.869  0.1851 -0.4566  0.8008
29992SOL     OW97025   4.123   0.229   5.709  0.4723  0.2202 -0.0318
29992SOL    HW197026   4.053   0.294   5.718  0.9646  0.7065  0.3382
29992SOL    HW297027   4.187   0.254   5.775 -0.1626 -1.7272  1.4349
29993SOL     OW97028  10.434   2.682  11.995 -0.1957 -0.4246  0.3692
29993SOL    HW197029  10.400   2.624  11.927 -0.1477 -1.8754  1.5306
29993SOL    HW297030  10.529   2.684  11.979 -0.4629  1.8496 -1.5166
29994SOL     OW97031   6.860   5.508  11.974 -0.1826  0.4479 -0.1326
29994SOL    HW197032   6.803   5.441  11.937 -0.8026  1.9926 -2.1430
29994SOL    HW297033   6.937   5.459  12.005  0.8455 -1.0226 -4.3269
29995SOL     OW97034   2.664   4.945   7.700  0.2867 -1.0130 -0.4379
29995SOL    HW197035   2.695   4.972   7.786  1.2382 -0.2668 -0.9961
29995SOL    HW297036   2.573   4.920   7.714 -0.3203  1.3829  0.3551
29996SOL     OW97037   8.071   4.609   0.828 -0.0493 -0.5356 -0.5538
29996SOL    HW197038   8.123   4.575   0.901  0.8334  0.1808 -0.8464
29996SOL    HW297039   8.042   4.696   0.858 -0.4353 -0.6109 -0.7020
29997SOL     OW97040   0.876   6.098  11.889  0.1773 -0.1128  0.4684
29997SOL    HW197041   0.814   6.141  11.948 -0.9865  1.7709 -1.9457
29997SOL    HW297042   0.832   6.016  11.864 -1.7168  1.4391 -1.6139
29998SOL     OW97043   0.497   0.033   8.881 -0.4043  0.6879  0.0348
29998SOL    HW197044   0.461   0.069   8.800  0.3653 -0.0839 -0.6664
29998SOL    HW297045   0.587   0.064   8.884 -0.3412  0.4740  0.4461
29999SOL     OW97046   0.743   4.691   9.332  0.2175  0.3313  0.1538
29999SOL    HW197047   0.788   4.751   9.273 -1.0679  1.3026  0.1444
29999SOL    HW297048   0.771   4.718   9.420  0.7806 -0.0217  0.0944
30000SOL     OW97049   8.137  11.858   5.712  0.3304 -0.1127  0.6965
30000SOL    HW197050   8.150  11.786   5.774  1.0191 -0.5675  0.0559
30000SOL    HW297051   8.129  11.936   5.767  0.8092 -0.5156  1.3648
30001SOL     OW97052   7.387   8.224  11.697 -0.5347 -0.0091  0.3199
30001SOL    HW197053   7.347   8.257  11.778 -0.5952 -0.1789  0.3595
30001SOL    HW297054   7.412   8.303  11.649 -2.8037  0.1633 -0.6679
30002SOL     OW97055   2.239  10.537   6.112 -0.7707 -0.1928  0.1084
30002SOL    HW197056   2.272  10.494   6.033  0.5511  0.6906  0.1566
30002SOL    HW297057   2.317  10.550   6.167 -1.6874 -0.9730  1.6650
30003SOL     OW97058   9.626   4.252   2.184  0.5884  0.0444 -0.3070
30003SOL    HW197059   9.604   4.209   2.101  0.8842  1.3511 -1.0862
30003SOL    HW297060   9.695   4.198   2.222  1.0786 -0.0871 -1.3536
30004SOL     OW97061   6.248   4.505   7.741 -0.5802  0.2858  0.1005
30004SOL    HW197062   6.249   4.519   7.646  1.0920 -0.0882  0.0303
30004SOL    HW297063   6.191   4.429   7.753 -0.8339  0.3563 -0.6036
30005SOL     OW97064   8.039   1.201  10.762  0.7271  0.2968  0.3477
30005SOL    HW197065   8.097   1.147  10.815 -1.3727  0.2665  2.7867
30005SOL    HW297066   8.053   1.290  10.793 -2.1225  0.0480  2.8356
30006SOL     OW97067   4.912   1.419   5.852 -0.3816  0.2774  0.3228
30006SOL    HW197068   4.888   1.477   5.779 -0.3686  0.5552  0.5365
30006SOL    HW297069   5.006   1.431   5.861 -0.5686  1.2462  1.2246
30007SOL     OW97070   6.878  11.052   8.121 -0.4128 -0.3037 -0.1749
30007SOL    HW197071   6.869  10.960   8.095  2.4539 -0.4019 -1.1747
30007SOL    HW297072   6.868  11.101   8.040  0.8001 -0.0005 -0.1692
30008SOL     OW97073   6.880   0.498   8.630 -0.1275 -0.4599 -0.1047
30008SOL    HW197074   6.913   0.585   8.651 -1.5633 -0.4392  2.4909
30008SOL    HW297075   6.914   0.442   8.701 -3.4185 -0.8989  1.3258
30009SOL     OW97076   6.657   6.961   1.392 -0.1708 -0.2975 -0.2013
30009SOL    HW197077   6.567   6.945   1.361 -0.5246 -0.1062  0.6925
30009SOL    HW297078   6.646   6.986   1.483  0.5207  3.0197 -0.9037
30010SOL     OW97079   2.066   9.365   9.606 -0.0470 -0.1692  0.3707
30010SOL    HW197080   2.112   9.287   9.638 -1.3179 -0.9145  0.4616
30010SOL    HW297081   1.974   9.338   9.603 -0.3462  0.9106 -0.8655
30011SOL     OW97082   9.768  12.151   4.016  0.1939 -0.1241  0.6544
30011SOL    HW197083   9.767  12.241   3.982  0.6085 -0.3882 -0.0812
30011SOL    HW297084   9.731  12.158   4.104 -0.5861  0.6355  0.2844
30012SOL     OW97085   9.920  10.024   4.423  0.1685 -0.3422 -0.3436
30012SOL    HW197086   9.884  10.113   4.421 -0.9944 -0.8185 -1.8222
30012SOL    HW297087   9.971  10.017   4.342  0.0962 -1.0798 -0.3338
30013SOL     OW97088   8.144   9.120  11.476 -0.4921 -0.1153 -0.0740
30013SOL    HW197089   8.165   9.211  11.454  0.1886  0.2384  1.8293
30013SOL    HW297090   8.075   9.126  11.541  0.7152 -0.8459  1.3341
30014SOL     OW97091   0.167   0.447   4.911  0.2410 -0.4456  0.3822
30014SOL    HW197092   0.222   0.422   4.837  0.0610 -0.1774  0.1546
30014SOL    HW297093   0.109   0.373   4.925 -1.3813  0.4171 -1.3054
30015SOL     OW97094   1.812   5.299  11.478  0.1911  0.3334  0.3221
30015SOL    HW197095   1.799   5.394  11.471 -1.0590  0.0698 -1.4117
30015SOL    HW297096   1.897   5.284  11.436  1.0375  0.8062  1.8009
30016SOL     OW97097  10.714   9.502   9.544  0.2394  0.5544 -0.6707
30016SOL    HW197098  10.641   9.544   9.500  0.4920  1.8075  0.0629
30016SOL    HW297099  10.743   9.434   9.483 -0.6085  0.9982 -1.5916
30017SOL     OW97100   8.143   7.569   8.942  0.3389 -0.0326 -0.2051
30017SOL    HW197101   8.191   7.651   8.931  0.4270 -0.2095 -1.2559
30017SOL    HW297102   8.207   7.501   8.921 -0.7739 -0.2317 -3.5635
30018SOL     OW97103  11.641  10.788   8.665 -0.3135  0.9208 -0.0800
30018SOL    HW197104  11.698  10.863   8.684 -1.3057  1.2034  2.0473
30018SOL    HW297105  11.688  10.739   8.598  1.7324  1.9019  0.5496
30019SOL     OW97106  12.220   5.199   0.696 -0.1889 -0.0741  0.1509
30019SOL    HW197107  12.161   5.142   0.647 -0.5615  0.5316 -0.1133
30019SOL    HW297108  12.171   5.224   0.774 -0.1581  0.1605  0.0958
30020SOL     OW97109   1.223  12.108  11.431 -0.0387  0.3595  1.1091
30020SOL    HW197110   1.253  12.133  11.519  0.1524  1.5578  0.7155
30020SOL    HW297111   1.298  12.126  11.375  0.4934 -2.0639  0.8982
30021SOL     OW97112   8.102   8.493   7.461 -0.1830 -0.2465 -0.4919
30021SOL    HW197113   8.095   8.557   7.390 -3.5037  1.0009  0.7555
30021SOL    HW297114   8.110   8.546   7.540 -2.1886 -1.3160  0.5054
30022SOL     OW97115   6.511  12.008   0.844 -0.5415  0.0768 -0.2521
30022SOL    HW197116   6.461  12.072   0.793 -0.3342  2.7497  2.5884
30022SOL    HW297117   6.593  12.053   0.864  0.7428 -2.1313 -0.2142
30023SOL     OW97118   6.726   2.406   5.188  0.3209  0.1550  0.5125
30023SOL    HW197119   6.703   2.336   5.127 -2.1997  1.2258  0.1205
30023SOL    HW297120   6.721   2.367   5.274 -3.9349  0.3621  0.5445
30024SOL     OW97121  11.999   3.928  10.679 -0.1273  0.4443 -0.1191
30024SOL    HW197122  11.986   3.944  10.772 -1.8154 -0.3714 -0.1823
30024SOL    HW297123  11.929   3.976  10.636  1.1624  1.5672 -1.0734
30025SOL     OW97124   8.039   9.678   0.644 -0.1878  0.1258 -0.2759
30025SOL    HW197125   7.988   9.672   0.564  0.9009 -0.7354 -0.9351
30025SOL    HW297126   8.129   9.694   0.615  0.0747  0.8486  0.8209
30026SOL     OW97127   1.439   9.219  10.902  0.4133  0.5401  0.0674
30026SOL    HW197128   1.392   9.294  10.867  0.7674  1.0135  0.5940
30026SOL    HW297129   1.437   9.154  10.831 -4.1177 -0.9240  1.2056
30027SOL     OW97130   3.210   4.935   8.302 -0.4002 -0.3296  0.6573
30027SOL    HW197131   3.249   5.003   8.358  2.5962 -1.0412 -0.3544
30027SOL    HW297132   3.206   4.858   8.358 -0.8349 -0.1434  0.8928
30028SOL     OW97133   8.850   1.891   0.428  0.1504 -0.0050  0.8349
30028SOL    HW197134   8.824   1.865   0.516  0.6249 -1.0539  0.6838
30028SOL    HW297135   8.925   1.835   0.408 -0.5343 -0.4551 -0.6040
30029SOL     OW97136  11.345   9.360   0.936  0.2815 -0.0282 -0.0208
30029SOL    HW197137  11.371   9.381   0.846  0.4753  1.2482  0.3095
30029SOL    HW297138  11.381   9.273   0.951 -1.5759 -1.2055 -1.8790
30030SOL     OW97139   7.965  12.164   6.051  0.0588  0.0465 -0.1353
30030SOL    HW197140   7.970  12.234   6.117 -0.2683  0.1075 -0.1722
30030SOL    HW297141   7.879  12.125   6.064 -0.2338  0.4281 -0.9008
30031SOL     OW97142  12.545  10.414   7.806 -0.2979 -0.1037 -0.7921
30031SOL    HW197143  12.511  10.496   7.842  0.6678  1.0938 -2.4992
30031SOL    HW297144  12.610  10.385   7.871 -0.3959  0.6776 -0.3333
30032SOL     OW97145   2.541  10.766   5.360 -0.3824 -0.6541 -0.1115
30032SOL    HW197146   2.536  10.752   5.266  4.1536 -1.7704 -0.4025
30032SOL    HW297147   2.486  10.698   5.398  1.2888 -3.2150 -1.9885
30033SOL     OW97148   0.199   0.454   6.645  0.3755 -0.2554  0.2408
30033SOL    HW197149   0.206   0.494   6.558  1.2465 -1.6976 -0.3873
30033SOL    HW297150   0.265   0.499   6.697  2.6102 -1.9938 -0.9451
30034SOL     OW97151   0.774   7.138   3.250  0.5242  0.4555  0.6179
30034SOL    HW197152   0.703   7.156   3.312  0.7535  1.3696  0.6429
30034SOL    HW297153   0.735   7.083   3.183 -0.0118  0.3381  1.0201
30035SOL     OW97154   0.323  12.485   9.583  0.2200 -0.2807  0.3770
30035SOL    HW197155   0.281  12.539   9.516  0.0853  0.2674  0.8958
30035SOL    HW297156   0.386  12.432   9.534 -0.4320 -0.4693 -0.2919
30036SOL     OW97157   5.311   3.694   1.816 -0.0533 -0.2287  0.4264
30036SOL    HW197158   5.232   3.648   1.847 -0.3757 -1.2059 -1.6881
30036SOL    HW297159   5.381   3.631   1.827 -0.1323 -0.5029 -0.5532
30037SOL     OW97160   5.495  12.581   5.623  0.1607  0.2641 -0.7502
30037SOL    HW197161   5.426  12.519   5.598 -0.5980  0.4585  0.7546
30037SOL    HW297162   5.545  12.536   5.691  0.9457  0.5011 -1.1491
30038SOL     OW97163   3.983   4.474   1.914  0.6429 -0.0938 -0.0310
30038SOL    HW197164   4.051   4.493   1.850 -0.0685  0.6482 -0.5841
30038SOL    HW297165   3.924   4.550   1.910  0.4638 -0.1336  1.3385
30039SOL     OW97166   1.339  10.679   4.070  0.3857  0.0764 -0.0411
30039SOL    HW197167   1.342  10.629   4.152  0.9918  1.3576  0.7569
30039SOL    HW297168   1.248  10.674   4.043  0.1604 -0.3131  0.7428
30040SOL     OW97169   6.220   4.891   5.250 -0.4573  0.3538  0.2265
30040SOL    HW197170   6.179   4.806   5.267 -0.7210  0.9371  2.8521
30040SOL    HW297171   6.305   4.886   5.293 -0.2180  1.2154 -0.1201
30041SOL     OW97172   8.744  11.782  12.160  0.0827  0.5356 -0.0943
30041SOL    HW197173   8.794  11.854  12.121  1.8554  0.6946  2.2762
30041SOL    HW297174   8.667  11.825  12.198  1.0936  1.2223  1.2418
30042SOL     OW97175   7.068  10.149  11.712 -0.2907 -0.1052 -0.7942
30042SOL    HW197176   7.107  10.236  11.719 -2.1580  0.7317 -0.3232
30042SOL    HW297177   7.086  10.122  11.622 -0.1750  1.0241 -1.1224
30043SOL     OW97178   1.780   6.177   5.266 -0.3983  1.1110  0.1487
30043SOL    HW197179   1.751   6.211   5.182 -1.4681 -0.2397 -0.0485
30043SOL    HW297180   1.876   6.187   5.264 -0.3904  0.8675 -1.3216
30044SOL     OW97181  11.335   8.292   9.127 -0.1335  0.7298  0.0717
30044SOL    HW197182  11.372   8.204   9.124 -1.7270  0.0566 -1.4769
30044SOL    HW297183  11.276   8.296   9.052 -2.1108  2.2093  1.5811
30045SOL     OW97184   6.219   1.830   5.027 -0.0270 -0.1315  0.2052
30045SOL    HW197185   6.280   1.835   5.101  0.0684  0.2470  0.1057
30045SOL    HW297186   6.209   1.921   4.999  0.8295 -0.3760 -0.9751
30046SOL     OW97187   5.299  10.015  10.122 -0.5510 -0.5563 -0.3817
30046SOL    HW197188   5.288  10.007  10.217 -1.8176  2.8217 -0.1165
30046SOL    HW297189   5.378  10.067  10.111 -1.9626  1.6043 -0.9458
30047SOL     OW97190  12.417   7.024   9.121  0.6228  0.8576 -0.6053
30047SOL    HW197191  12.375   6.998   9.040  1.8815  1.8910 -1.6331
30047SOL    HW297192  12.345   7.039   9.182 -0.3063 -0.8140 -1.2266
30048SOL     OW97193   8.821   8.448   8.317 -0.1839 -0.0548  0.0114
30048SOL    HW197194   8.886   8.488   8.259 -1.0029 -0.3279 -1.1241
30048SOL    HW297195   8.742   8.500   8.305 -0.3773 -0.1277  0.8817
30049SOL     OW97196   7.710   2.413   3.190 -0.2016 -0.3121 -0.0118
30049SOL    HW197197   7.765   2.342   3.156  1.7839 -0.2485  2.7016
30049SOL    HW297198   7.720   2.483   3.127  1.5119 -0.9249 -0.4770
30050SOL     OW97199   5.522   1.839   5.268 -0.2398  0.4915  0.0360
30050SOL    HW197200   5.433   1.804   5.257 -0.0769  0.2553 -0.5826
30050SOL    HW297201   5.562   1.829   5.182  1.1533 -1.5177  0.8530
30051SOL     OW97202   1.422   7.032   9.242  0.3695 -0.1312 -0.1088
30051SOL    HW197203   1.348   6.995   9.194  2.2778 -0.4408 -3.0755
30051SOL    HW297204   1.451   6.960   9.298  0.2632 -1.0647 -1.2035
30052SOL     OW97205   3.238   2.445   0.470 -0.0643 -0.0522  0.5316
30052SOL    HW197206   3.319   2.463   0.518  0.7474  0.6882 -1.0416
30052SOL    HW297207   3.170   2.492   0.519  0.4712 -0.5011  1.7509
30053SOL     OW97208   8.326  11.304   8.064 -0.9243 -0.1646 -0.3269
30053SOL    HW197209   8.312  11.386   8.111 -3.0893 -0.7698  0.2226
30053SOL    HW297210   8.404  11.319   8.011 -1.4459  2.3672 -0.4944
30054SOL     OW97211   3.935   2.318   4.414  0.3763 -0.3749  0.0526
30054SOL    HW197212   3.975   2.405   4.413  1.7467 -0.8714  2.8529
30054SOL    HW297213   3.986   2.268   4.351  0.1311  0.6000 -0.9503
30055SOL     OW97214   9.796   2.665   8.310 -0.5559  0.3755  0.2143
30055SOL    HW197215   9.714   2.715   8.310 -0.5631  0.4085 -1.1177
30055SOL    HW297216   9.768   2.574   8.310 -0.5744  0.3799  0.6784
30056SOL     OW97217   0.680  11.008   2.545  0.7709  0.4027  0.0681
30056SOL    HW197218   0.601  11.061   2.554 -1.1620 -2.3592  0.7692
30056SOL    HW297219   0.686  10.989   2.451  0.1023 -0.0423  0.1105
30057SOL     OW97220   0.818   9.642   3.896 -0.5145 -0.0658  0.0807
30057SOL    HW197221   0.861   9.707   3.841  0.7600  0.3559  1.4708
30057SOL    HW297222   0.736   9.682   3.922 -0.0523  0.7225  0.3679
30058SOL     OW97223  12.239   1.469   2.961 -0.1871 -0.0566  0.5485
30058SOL    HW197224  12.279   1.510   3.037 -4.1478  3.7324  1.0348
30058SOL    HW297225  12.178   1.405   2.998 -0.9601  0.6580  0.5600
30059SOL     OW97226   9.844   0.495   9.166  0.0374 -0.2605  0.4650
30059SOL    HW197227   9.913   0.451   9.116 -0.7214 -0.0967 -0.7660
30059SOL    HW297228   9.860   0.588   9.151 -0.1671 -0.2083  0.5720
30060SOL     OW97229   1.284   6.562   2.043  0.1992  0.3278 -0.1916
30060SOL    HW197230   1.225   6.635   2.025  0.6138  0.6703 -0.1651
30060SOL    HW297231   1.300   6.567   2.137 -1.2033 -0.8868  0.1515
30061SOL     OW97232   3.865   0.659   2.747  0.0163  0.4208  0.1811
30061SOL    HW197233   3.819   0.733   2.787 -0.9493  0.0705 -0.2666
30061SOL    HW297234   3.802   0.587   2.749  0.3035  0.1118 -1.0301
30062SOL     OW97235   9.376   2.587   2.114  0.0845 -0.6813 -0.3667
30062SOL    HW197236   9.336   2.500   2.112  0.9658 -1.0967 -0.5808
30062SOL    HW297237   9.343   2.627   2.195  2.3410 -2.5676  1.6422
30063SOL     OW97238  11.982   3.312   2.458  0.0355 -0.3378 -0.6567
30063SOL    HW197239  11.990   3.221   2.487  0.8652 -0.0070  0.1927
30063SOL    HW297240  11.930   3.354   2.526  0.6052  0.0783 -0.4778
30064SOL     OW97241  10.793   5.667   6.648  0.8309 -0.3448 -0.2001
30064SOL    HW197242  10.816   5.658   6.555 -0.0277  2.2275 -0.7533
30064SOL    HW297243  10.858   5.727   6.683 -1.6347  2.7705 -0.4990
30065SOL     OW97244   0.636   8.834  11.530 -0.0068 -0.3591 -0.2106
30065SOL    HW197245   0.607   8.819  11.440  0.4125 -0.3350 -0.3536
30065SOL    HW297246   0.555   8.835  11.582 -0.3540  0.7680 -0.7466
30066SOL     OW97247   2.593   8.839   1.184 -0.0324 -0.1715 -0.0036
30066SOL    HW197248   2.656   8.834   1.112  0.2465 -2.1812  0.3224
30066SOL    HW297249   2.645   8.867   1.260 -0.0908  0.7820 -0.3049
30067SOL     OW97250   2.148   9.280   2.861 -0.1474 -0.1566  0.6225
30067SOL    HW197251   2.088   9.287   2.787  0.5410 -1.2416 -0.0583
30067SOL    HW297252   2.139   9.189   2.891 -0.2924  0.2190  1.7771
30068SOL     OW97253  11.233   8.760  10.148  0.0583  0.1871  0.2015
30068SOL    HW197254  11.324   8.776  10.122  0.1455  2.1848  1.4863
30068SOL    HW297255  11.186   8.751  10.066  1.3126 -0.2521 -0.5067
30069SOL     OW97256   0.330   5.104   1.287 -0.1867  0.4043  0.4763
30069SOL    HW197257   0.379   5.185   1.275  0.0803  0.3090  0.8955
30069SOL    HW297258   0.357   5.072   1.373  2.7103 -2.1558 -1.1854
30070SOL     OW97259   0.378   8.055   4.902 -0.0556 -0.5810 -0.6340
30070SOL    HW197260   0.402   7.964   4.922 -0.6551 -0.9825 -1.6583
30070SOL    HW297261   0.461   8.103   4.908  0.0790 -0.9579  1.0587
30071SOL     OW97262   5.148   0.945   8.780  0.0781  0.5168  0.0889
30071SOL    HW197263   5.210   0.996   8.728 -0.3389  0.8097 -0.1246
30071SOL    HW297264   5.179   0.954   8.870  1.0996 -0.4064 -0.1532
30072SOL     OW97265  11.142   1.519  12.131  0.4683  0.3323 -0.3552
30072SOL    HW197266  11.204   1.591  12.137  0.4672  0.3355 -0.3839
30072SOL    HW297267  11.075   1.539  12.197  0.4520  0.3726 -0.3838
30073SOL     OW97268   0.030   7.919   9.624  0.0289 -0.0986 -0.0711
30073SOL    HW197269   0.067   7.939   9.539  0.8612  0.6904  0.4564
30073SOL    HW297270  -0.029   7.992   9.643  1.1297  0.6163  0.7432
30074SOL     OW97271   4.616   8.259  10.900 -0.1017  0.2344 -0.3451
30074SOL    HW197272   4.704   8.251  10.863  1.7566  2.3136  3.0915
30074SOL    HW297273   4.584   8.342  10.867 -0.2737  0.0704 -0.5982
30075SOL     OW97274   5.400   7.325  11.015 -0.0566 -0.2329 -0.2718
30075SOL    HW197275   5.442   7.313  11.100  0.5315 -0.1438 -0.5448
30075SOL    HW297276   5.388   7.420  11.008  0.5730 -0.1709 -0.6009
30076SOL     OW97277   1.688   4.729   2.567 -0.2646  0.3112 -0.2165
30076SOL    HW197278   1.599   4.764   2.579 -0.7039 -0.6372 -0.5729
30076SOL    HW297279   1.685   4.686   2.481 -0.0001 -1.2723  0.5242
30077SOL     OW97280   5.017   9.226   3.040  0.5860 -0.0648 -0.0993
30077SOL    HW197281   4.984   9.310   3.072  0.3398 -1.0979  2.6741
30077SOL    HW297282   5.104   9.219   3.079  0.8570 -0.8052 -0.8306
30078SOL     OW97283   0.184   6.944  10.146 -0.3291 -0.2387  0.2393
30078SOL    HW197284   0.185   6.977  10.236 -1.2022 -1.6091  0.7812
30078SOL    HW297285   0.150   6.855  10.153  1.5058 -1.1175 -1.2143
30079SOL     OW97286   8.673  12.578   9.478 -0.7101 -0.0257 -0.5237
30079SOL    HW197287   8.600  12.592   9.537 -0.2790  1.4401 -0.2861
30079SOL    HW297288   8.633  12.550   9.396 -1.5050  0.4204 -0.2957
30080SOL     OW97289  10.949   0.020   4.159 -0.3623  0.0572  0.1333
30080SOL    HW197290  10.894   0.074   4.102  2.5600  2.1572 -0.9495
30080SOL    HW297291  10.980   0.081   4.226  2.2748 -0.4340 -0.5428
30081SOL     OW97292   0.313   7.236   3.566  0.9101 -0.4278  0.2316
30081SOL    HW197293   0.244   7.250   3.631  1.4786 -0.1941  0.7930
30081SOL    HW297294   0.270   7.188   3.496 -0.6309  2.2060 -0.7927
30082SOL     OW97295   1.288   3.144   4.048  0.1643 -0.8103  0.5909
30082SOL    HW197296   1.209   3.090   4.055  0.0812 -0.8118 -0.1908
30082SOL    HW297297   1.337   3.106   3.975  0.5235 -0.3551  0.5852
30083SOL     OW97298   5.529   2.407   2.026  0.3510 -0.0268  0.0680
30083SOL    HW197299   5.455   2.408   2.085  0.7723 -0.6832  0.6255
30083SOL    HW297300   5.549   2.499   2.010 -1.2819  0.1786 -1.0119
30084SOL     OW97301   3.573   1.629  10.627  0.1726 -0.0278 -0.1783
30084SOL    HW197302   3.644   1.659  10.570  0.0191  0.6863  0.0072
30084SOL    HW297303   3.585   1.678  10.708 -1.7143  1.5972 -0.8277
30085SOL     OW97304  12.067   5.215   3.201  0.3224  0.1063  0.2749
30085SOL    HW197305  12.064   5.158   3.277  1.7777 -0.7322 -0.2497
30085SOL    HW297306  11.997   5.279   3.215  0.8852  0.2864  2.5337
30086SOL     OW97307   6.131  12.404   0.086  0.1552  0.9722  0.2359
30086SOL    HW197308   6.077  12.467   0.133 -3.9905 -0.4048 -2.2189
30086SOL    HW297309   6.141  12.441  -0.002 -0.2995 -0.6566 -0.5402
30087SOL     OW97310   6.763   2.618   7.871 -0.4170 -0.2694 -0.0230
30087SOL    HW197311   6.794   2.565   7.798 -2.9530 -0.5329 -1.0002
30087SOL    HW297312   6.760   2.707   7.837  0.0684 -0.1046  0.3506
30088SOL     OW97313   7.221  12.387   0.113  0.4883 -1.3805  0.1401
30088SOL    HW197314   7.170  12.313   0.080 -0.0667 -1.4302  1.0778
30088SOL    HW297315   7.170  12.419   0.188  0.2753  0.4922 -0.7593
30089SOL     OW97316   6.904   3.052   3.879  0.0801 -0.4294  0.2615
30089SOL    HW197317   6.973   3.000   3.837  0.8613  0.6471  0.1573
30089SOL    HW297318   6.839   3.065   3.811  0.1481 -0.7810  0.1235
30090SOL     OW97319   9.931  10.077   7.977  0.7179 -0.1937  0.3566
30090SOL    HW197320   9.972  10.088   7.892  2.1660 -0.6967  0.9641
30090SOL    HW297321   9.838  10.092   7.961  0.8615 -1.0295 -1.4531
30091SOL     OW97322   6.863   7.936   6.839 -0.1195  0.2515 -0.7698
30091SOL    HW197323   6.858   8.010   6.901 -0.9732 -1.0994  0.8532
30091SOL    HW297324   6.928   7.964   6.775  0.6481  1.8426  0.6002
30092SOL     OW97325  12.463   0.891   0.249 -1.0218  0.4400  0.4657
30092SOL    HW197326  12.509   0.960   0.297  0.3602 -0.1673  0.0644
30092SOL    HW297327  12.394   0.862   0.309 -0.7885  1.2633  1.1534
30093SOL     OW97328   4.705   6.146  12.225  0.0073  0.2009 -0.0721
30093SOL    HW197329   4.624   6.100  12.247  0.5111 -0.3594  0.6763
30093SOL    HW297330   4.738   6.178  12.309  0.2486  0.9570 -0.4496
30094SOL     OW97331   3.324   7.683   4.708 -0.2648 -0.9272 -0.2614
30094SOL    HW197332   3.249   7.731   4.675 -0.5979 -1.5672 -0.4634
30094SOL    HW297333   3.361   7.738   4.777  0.7282  0.6700 -1.9890
30095SOL     OW97334   6.337   0.658   0.382 -0.3077  0.0184 -0.4074
30095SOL    HW197335   6.259   0.710   0.400  0.5515  1.5888 -1.0555
30095SOL    HW297336   6.342   0.656   0.286  1.7781  2.0677 -0.4006
30096SOL     OW97337  12.385   3.991   6.511  0.7369  0.3920 -0.8101
30096SOL    HW197338  12.380   3.983   6.607 -1.3286  0.8733 -0.8317
30096SOL    HW297339  12.406   3.903   6.481 -0.2107 -0.1554  0.0354
30097SOL     OW97340   5.869  12.304   4.005  0.2628 -0.6737  0.2885
30097SOL    HW197341   5.802  12.325   3.941 -0.4872 -2.3923  0.4568
30097SOL    HW297342   5.843  12.352   4.084  0.6676  0.6877 -0.3810
30098SOL     OW97343   9.701  12.042   2.490  1.0073 -0.3983  0.2000
30098SOL    HW197344   9.781  12.068   2.445  1.4328 -3.3436 -0.9725
30098SOL    HW297345   9.730  11.983   2.559 -0.0709 -0.6467  0.4559
30099SOL     OW97346   4.614   6.964   5.808  0.5738 -0.0772 -0.2669
30099SOL    HW197347   4.662   7.047   5.802  0.5610  0.0135  0.8395
30099SOL    HW297348   4.529   6.983   5.769  0.6260  0.3904 -0.1592
30100SOL     OW97349   8.106   1.834  12.146 -0.1183 -0.1466 -0.2599
30100SOL    HW197350   8.189   1.792  12.168  0.1051  0.0864 -0.6516
30100SOL    HW297351   8.042   1.794  12.206  0.5374  0.7250  1.0552
30101SOL     OW97352   1.898  11.371  12.160 -0.0632 -0.1578  0.3816
30101SOL    HW197353   1.867  11.423  12.086  0.0625  0.4406  0.7437
30101SOL    HW297354   1.960  11.428  12.206  1.8100 -1.4069 -0.4684
30102SOL     OW97355   7.246   2.265   8.264  0.6640  0.1559 -0.0685
30102SOL    HW197356   7.319   2.206   8.278 -0.0652 -1.0378 -1.0708
30102SOL    HW297357   7.284   2.353   8.269  1.8061 -0.3833  1.2227
30103SOL     OW97358   8.349   9.362   6.868  0.0085  0.1042  0.3711
30103SOL    HW197359   8.437   9.389   6.894 -0.0317  1.0751 -0.4188
30103SOL    HW297360   8.297   9.443   6.873 -0.4084 -0.0686 -0.9210
30104SOL     OW97361   5.201  10.268  11.003 -0.0334 -0.2576  0.1310
30104SOL    HW197362   5.163  10.191  11.046  0.7534 -0.6517  0.1303
30104SOL    HW297363   5.217  10.330  11.074  1.5176 -1.0120  0.4682
30105SOL     OW97364   9.121  11.079  12.388 -0.2763  0.6230  0.1954
30105SOL    HW197365   9.093  11.156  12.436  2.0646  1.0379  1.0115
30105SOL    HW297366   9.191  11.110  12.330  0.6862 -0.8564  0.5072
30106SOL     OW97367  12.175   6.888   3.905 -0.1397 -0.1958  0.4538
30106SOL    HW197368  12.148   6.805   3.866 -3.9644  1.0616  0.0033
30106SOL    HW297369  12.237   6.925   3.842 -0.5958 -1.4495 -0.7768
30107SOL     OW97370   8.066  10.506   8.803  0.7235 -0.2328  0.0064
30107SOL    HW197371   8.149  10.508   8.851 -1.2278 -0.6739  3.7500
30107SOL    HW297372   8.042  10.598   8.793  1.2914 -0.1280 -0.4905
30108SOL     OW97373  10.440   5.457   9.455  0.2202 -0.2470 -0.6300
30108SOL    HW197374  10.502   5.396   9.415  1.3794  0.1593  0.4690
30108SOL    HW297375  10.354   5.424   9.430  0.8440 -1.6330 -1.0581
30109SOL     OW97376  10.775   0.911   8.648  0.4376  0.3079 -0.1988
30109SOL    HW197377  10.727   0.860   8.713 -0.1814 -1.5204 -1.9696
30109SOL    HW297378  10.809   0.986   8.696  1.5510 -1.8287  2.6427
30110SOL     OW97379   4.963   4.302   0.895  0.1053 -0.4023 -1.1322
30110SOL    HW197380   5.015   4.373   0.857 -0.9547  0.2447 -1.4105
30110SOL    HW297381   5.020   4.264   0.961  0.1518  1.7514  0.1564
30111SOL     OW97382  11.638   0.157   7.420  0.4761 -0.4419  0.0367
30111SOL    HW197383  11.605   0.168   7.509 -0.0107  0.2133 -0.2153
30111SOL    HW297384  11.651   0.247   7.388 -1.1775 -0.5862 -1.2028
30112SOL     OW97385   5.088  10.690   7.746 -0.1307 -0.0833 -0.0705
30112SOL    HW197386   5.159  10.626   7.736 -0.4989 -0.8411  1.6887
30112SOL    HW297387   5.130  10.774   7.728  0.7911 -0.6611 -0.7377
30113SOL     OW97388   4.084   6.663   1.356 -0.0489 -0.0623 -0.2877
30113SOL    HW197389   4.091   6.627   1.444  1.2979 -3.0315 -1.4668
30113SOL    HW297390   4.007   6.720   1.359 -0.9172 -1.2133  2.4336
30114SOL     OW97391  10.748   2.524   9.576  0.3679 -0.2692  0.9594
30114SOL    HW197392  10.833   2.567   9.571 -0.1447  0.8976  1.8550
30114SOL    HW297393  10.709   2.558   9.656 -1.2086 -0.3101  0.2340
30115SOL     OW97394   2.462   2.706   7.372 -0.4312 -0.1867 -0.0590
30115SOL    HW197395   2.391   2.689   7.309 -0.4952 -0.6681  0.1417
30115SOL    HW297396   2.431   2.667   7.454  1.2627 -3.0055 -0.6427
30116SOL     OW97397   1.639   4.456   1.091  0.0532  0.4674  0.5127
30116SOL    HW197398   1.615   4.523   1.026  1.5264  1.8226  1.3136
30116SOL    HW297399   1.626   4.373   1.044 -0.3637  1.3406 -1.0186
30117SOL     OW97400   5.601   5.028   9.021  0.2336 -0.0371  0.3331
30117SOL    HW197401   5.696   5.039   9.024  0.3262 -0.7509  2.8150
30117SOL    HW297402   5.588   4.935   9.008 -0.0625 -0.2053  1.7028
30118SOL     OW97403  12.318   5.825  11.870 -0.0774  0.2858 -0.3391
30118SOL    HW197404  12.360   5.887  11.929 -0.3174 -0.8686  1.1035
30118SOL    HW297405  12.229   5.859  11.858  0.2961  1.0876 -0.9086
30119SOL     OW97406   5.823   2.557   0.652  0.2048  0.1561  0.2487
30119SOL    HW197407   5.833   2.651   0.640 -1.4536  0.3536  0.1334
30119SOL    HW297408   5.903   2.529   0.696  2.0629  1.0998 -2.3032
30120SOL     OW97409   1.762   5.306   4.130 -0.1174  0.2159 -0.4314
30120SOL    HW197410   1.731   5.216   4.120 -3.5162  1.2617 -0.4159
30120SOL    HW297411   1.700   5.347   4.190  0.8014  2.8303 -1.1168
30121SOL     OW97412   3.869   8.529   6.790  1.0038  0.3350  0.6391
30121SOL    HW197413   3.812   8.523   6.866  1.7488 -1.2632  1.1103
30121SOL    HW297414   3.809   8.530   6.715  0.2508  2.2055  1.1930
30122SOL     OW97415   9.659  10.397   4.802 -0.2252 -0.4237  0.0945
30122SOL    HW197416   9.570  10.412   4.834 -0.3835 -0.2538 -0.4236
30122SOL    HW297417   9.678  10.471   4.744 -0.0939 -0.9290 -0.5227
30123SOL     OW97418  10.564   2.914   1.379  0.5439  0.1989 -0.4366
30123SOL    HW197419  10.558   2.958   1.464  1.1511 -2.3157  1.0310
30123SOL    HW297420  10.646   2.946   1.342  0.2663  1.3511 -0.1207
30124SOL     OW97421   9.529   6.905   3.336 -0.2321 -0.1356  0.7593
30124SOL    HW197422   9.547   6.964   3.409 -0.5461 -2.7525  3.1037
30124SOL    HW297423   9.453   6.943   3.293  0.5716  2.0290  1.0921
30125SOL     OW97424   4.632   3.848   8.561 -0.1919  0.6387 -0.2243
30125SOL    HW197425   4.540   3.854   8.534 -0.5171  0.3030  0.7861
30125SOL    HW297426   4.656   3.938   8.583 -0.3638  0.6864 -0.2280
30126SOL     OW97427   0.586   1.375  10.681  0.0604  0.1401  0.1477
30126SOL    HW197428   0.679   1.392  10.696 -0.5635  1.6017  3.0694
30126SOL    HW297429   0.574   1.282  10.702  0.6496  0.2772  1.1272
30127SOL     OW97430   6.634   4.697   5.473  0.4855  0.3142  0.1148
30127SOL    HW197431   6.729   4.684   5.480  0.4686  0.0696 -0.1014
30127SOL    HW297432   6.597   4.634   5.536  0.3726 -1.2412 -1.4245
30128SOL     OW97433   6.493  10.511  10.474  0.8082  0.0134  0.5277
30128SOL    HW197434   6.429  10.581  10.465  0.5352 -0.1682  0.9825
30128SOL    HW297435   6.524  10.494  10.385  0.3811  0.2532  0.3327
30129SOL     OW97436  11.727   5.008   6.215 -0.2306  0.2357 -0.1292
30129SOL    HW197437  11.672   5.028   6.138 -0.0541 -0.3179 -0.4103
30129SOL    HW297438  11.665   4.999   6.287 -0.5900 -0.9620 -0.5602
30130SOL     OW97439   8.967   4.201  11.542 -0.1200 -0.7032 -0.4241
30130SOL    HW197440   8.889   4.213  11.597 -0.5699  0.1014 -1.2082
30130SOL    HW297441   9.031   4.159  11.600  0.3699  2.4065  1.5438
30131SOL     OW97442   1.072  10.853   8.708  0.2264  0.2382 -0.1636
30131SOL    HW197443   1.070  10.912   8.783 -0.4450 -1.9528  1.6519
30131SOL    HW297444   1.164  10.851   8.681  0.6959  0.1459  1.3738
30132SOL     OW97445   2.409   2.459   3.415 -0.1888  0.2445  0.1436
30132SOL    HW197446   2.349   2.529   3.442 -1.5357 -0.3046 -1.2967
30132SOL    HW297447   2.389   2.387   3.474  2.3223  1.4392  2.7382
30133SOL     OW97448   2.133   5.192   2.380 -0.2537  0.1091  0.3003
30133SOL    HW197449   2.165   5.229   2.298  2.6063 -2.5967 -0.0252
30133SOL    HW297450   2.209   5.195   2.438 -1.0109 -1.6439  1.4490
30134SOL     OW97451   1.123   9.175   8.094 -0.1071  0.1005  0.2884
30134SOL    HW197452   1.043   9.142   8.053 -0.1899 -0.2530  0.7369
30134SOL    HW297453   1.099   9.193   8.184  0.0278  1.0607  0.1483
30135SOL     OW97454   0.316   1.276   4.967 -0.2903 -0.4370  0.1696
30135SOL    HW197455   0.374   1.239   5.034  0.1484 -0.1871 -0.0629
30135SOL    HW297456   0.310   1.369   4.990 -0.8588 -0.5214  0.3731
30136SOL     OW97457   6.080  12.325   1.353 -0.1799  0.2816 -0.0964
30136SOL    HW197458   6.162  12.338   1.305  1.1186 -1.9052  1.3471
30136SOL    HW297459   6.047  12.240   1.322 -1.6950  0.9116 -0.3148
30137SOL     OW97460   9.100   3.077   0.108  0.3750 -0.3817 -0.2735
30137SOL    HW197461   9.086   2.995   0.060 -0.3411 -0.7451  0.5407
30137SOL    HW297462   9.134   3.050   0.193  2.4855  0.3024 -0.8394
30138SOL     OW97463   2.526   1.947   7.620 -0.3845 -0.9021  0.0137
30138SOL    HW197464   2.554   1.897   7.544 -0.7221  1.0671 -1.4772
30138SOL    HW297465   2.455   2.003   7.588 -1.2568 -0.7494  2.0310
30139SOL     OW97466   3.902   8.529   4.289 -0.2494  0.2627 -0.4594
30139SOL    HW197467   3.866   8.542   4.377  0.7803  0.0132  0.0151
30139SOL    HW297468   3.829   8.494   4.238 -1.0584  1.0829  0.1039
30140SOL     OW97469   0.554   8.953   0.879 -0.2941 -0.1437 -0.8795
30140SOL    HW197470   0.538   9.045   0.862 -1.4154  0.0896  1.1072
30140SOL    HW297471   0.584   8.917   0.795  1.1055  2.1947 -1.4641
30141SOL     OW97472   4.277   6.300   7.345 -0.2237 -0.4575  0.5204
30141SOL    HW197473   4.368   6.292   7.374 -0.2740  0.6743  1.0424
30141SOL    HW297474   4.283   6.321   7.252 -0.0122 -2.1312  0.1311
30142SOL     OW97475   0.323   4.283  11.585 -0.1597  0.6014 -0.2246
30142SOL    HW197476   0.330   4.326  11.670 -1.5032  0.3343  0.0452
30142SOL    HW297477   0.242   4.233  11.590 -0.6341  1.1228 -1.8953
30143SOL     OW97478   2.933  11.161   1.162  0.1874  0.2246 -0.0750
30143SOL    HW197479   2.894  11.089   1.112  1.1794  0.3588 -1.0562
30143SOL    HW297480   2.982  11.117   1.232 -0.3905  0.0077  0.2032
30144SOL     OW97481  10.311   5.635   5.392  0.3656  0.6024 -0.2623
30144SOL    HW197482  10.384   5.694   5.410  0.3490  0.4586  0.2999
30144SOL    HW297483  10.240   5.692   5.362  0.4294  0.8348  0.0297
30145SOL     OW97484   1.802   3.248   0.886 -0.3250 -0.7648  0.3029
30145SOL    HW197485   1.890   3.239   0.922 -0.3349 -1.3112  0.2019
30145SOL    HW297486   1.753   3.297   0.953  0.5559  1.3118 -0.4927
30146SOL     OW97487   9.558   9.820   6.936 -0.2595 -0.2669 -0.1640
30146SOL    HW197488   9.587   9.911   6.931 -0.3923 -0.1964  0.2649
30146SOL    HW297489   9.623   9.771   6.886 -0.3225  0.0944 -0.5998
30147SOL     OW97490   3.680   9.562   2.189  0.1857 -0.1078  0.3037
30147SOL    HW197491   3.705   9.562   2.097 -3.1856 -1.5919 -0.7864
30147SOL    HW297492   3.741   9.500   2.230  2.2468  1.1756 -0.6790
30148SOL     OW97493  11.697  12.518   7.258  0.4823 -0.4084 -0.4632
30148SOL    HW197494  11.656  12.585   7.313 -0.8826  1.2951 -3.3519
30148SOL    HW297495  11.627  12.490   7.198  1.9197 -2.0447 -1.4774
30149SOL     OW97496   0.422   0.184   0.778  0.1498 -0.1789 -0.1694
30149SOL    HW197497   0.486   0.159   0.844  0.5057  0.9727 -0.0651
30149SOL    HW297498   0.356   0.114   0.781  0.0769 -0.0835  1.4949
30150SOL     OW97499  10.393   2.821   3.533 -0.3060 -0.4099 -0.0550
30150SOL    HW197500  10.450   2.883   3.577 -1.4362  1.1921 -0.7620
30150SOL    HW297501  10.451   2.771   3.476  0.5025  0.5937 -0.1324
30151SOL     OW97502   0.924   2.761   0.088  1.0813 -0.3380  0.0144
30151SOL    HW197503   0.941   2.849   0.055 -0.9691  0.1994  0.2788
30151SOL    HW297504   1.004   2.737   0.136  2.1355  0.8679 -1.0817
30152SOL     OW97505   9.128  11.694   2.701  0.0482 -0.8384 -0.6122
30152SOL    HW197506   9.077  11.614   2.690 -0.0186 -0.8616 -0.1531
30152SOL    HW297507   9.219  11.663   2.708 -0.1936 -1.1573  2.3632
30153SOL     OW97508   1.002  10.210   8.499  0.3936 -0.5455  0.3043
30153SOL    HW197509   1.046  10.147   8.442  0.1905  0.3623 -0.8968
30153SOL    HW297510   1.061  10.286   8.501  0.0048 -0.2483  0.6097
30154SOL     OW97511   6.793  11.438   5.459 -0.0408 -0.3265  0.2723
30154SOL    HW197512   6.791  11.387   5.378 -1.6692 -0.8039  0.5657
30154SOL    HW297513   6.834  11.521   5.435 -0.7184 -0.3573 -1.1179
30155SOL     OW97514  11.254   9.650   8.544 -0.0618 -0.2535  0.2695
30155SOL    HW197515  11.283   9.736   8.512 -0.3020  0.3964  1.7378
30155SOL    HW297516  11.233   9.664   8.636  0.7874 -2.1131  0.7954
30156SOL     OW97517   3.326   9.829   3.479  0.5894  0.6068  0.7158
30156SOL    HW197518   3.234   9.849   3.463  0.9273  1.4004 -0.3892
30156SOL    HW297519   3.341   9.857   3.569 -0.2683  0.3822  0.9363
30157SOL     OW97520   1.925  11.126   8.838  0.3433 -0.2647  0.3191
30157SOL    HW197521   2.012  11.125   8.880  0.5651  0.2608 -0.1196
30157SOL    HW297522   1.864  11.137   8.911  0.5707 -1.5598  0.7360
30158SOL     OW97523   4.483   8.454   1.228 -0.1022  0.3476  0.1413
30158SOL    HW197524   4.464   8.516   1.298 -0.5446 -0.7488  1.0373
30158SOL    HW297525   4.414   8.470   1.163  2.1192  3.5740 -1.6942
30159SOL     OW97526   4.743   4.649   1.621 -0.3416  0.0519 -0.2536
30159SOL    HW197527   4.701   4.568   1.651  0.2644  0.0837  0.7366
30159SOL    HW297528   4.835   4.627   1.613 -0.3048  0.4084 -0.8470
30160SOL     OW97529   5.995  11.831  10.511  0.2676  0.0836 -0.7794
30160SOL    HW197530   6.043  11.843  10.593  0.8207  1.7355 -1.3002
30160SOL    HW297531   6.047  11.769  10.461  0.2161 -0.5032 -0.1230
30161SOL     OW97532  11.131   9.529   9.453  0.0185 -0.5995 -0.2057
30161SOL    HW197533  11.083   9.544   9.535  1.2010 -0.7913  0.5409
30161SOL    HW297534  11.177   9.611   9.437  1.7693 -1.3681  0.6863
30162SOL     OW97535   9.592   2.656   0.601 -0.2051 -0.2481  0.1309
30162SOL    HW197536   9.680   2.694   0.609  0.3246 -0.8895 -1.9196
30162SOL    HW297537   9.546   2.717   0.542 -1.0501 -0.0851  0.9426
30163SOL     OW97538  12.493  10.327   1.218  0.3408 -0.6567 -0.2690
30163SOL    HW197539  12.575  10.287   1.245  0.3352 -0.1821  0.4606
30163SOL    HW297540  12.469  10.385   1.290  0.1730  0.4087 -1.1501
30164SOL     OW97541  12.399   4.952   1.016 -0.6917  0.6308 -0.7695
30164SOL    HW197542  12.341   5.018   1.055 -2.5100 -0.2807 -1.7847
30164SOL    HW297543  12.343   4.905   0.954  1.0188 -0.6886 -1.3868
30165SOL     OW97544   0.369   5.983   2.633 -0.0959 -0.0631 -0.4802
30165SOL    HW197545   0.408   5.904   2.596  0.5232  0.5139 -1.1054
30165SOL    HW297546   0.402   6.054   2.577 -1.1950  0.5635 -0.3658
30166SOL     OW97547   2.765   6.838   7.093  0.4800  0.2465  0.3273
30166SOL    HW197548   2.740   6.893   7.019  1.5101 -0.4521 -0.5623
30166SOL    HW297549   2.809   6.898   7.154  3.0278  0.2253 -1.3341
30167SOL     OW97550   0.037   9.337   8.860  0.3830 -0.0094 -0.1638
30167SOL    HW197551   0.077   9.252   8.878 -0.9320 -0.1861  2.3008
30167SOL    HW297552   0.045   9.386   8.942 -2.3411  0.7535 -0.2468
30168SOL     OW97553   6.029   5.460  12.478 -0.5677  0.4334  0.2441
30168SOL    HW197554   6.115   5.439  12.514 -0.7592  1.0168  1.0709
30168SOL    HW297555   6.012   5.392  12.413  0.3268  0.0707  0.3886
30169SOL     OW97556  10.864   3.172   6.489 -0.7326  0.0261  0.1762
30169SOL    HW197557  10.772   3.152   6.471 -0.1718 -0.7319 -2.1990
30169SOL    HW297558  10.912   3.097   6.454  0.8125  0.5439  1.1091
30170SOL     OW97559   4.208  10.561  10.116 -0.2379 -0.6140 -0.2370
30170SOL    HW197560   4.197  10.612  10.036 -2.4730 -0.6793 -0.0167
30170SOL    HW297561   4.214  10.471  10.087  1.1351 -0.4808 -0.4431
30171SOL     OW97562   2.488   0.680   1.180  0.4000 -0.3663  0.1017
30171SOL    HW197563   2.459   0.614   1.116  0.3290 -1.1643  0.9299
30171SOL    HW297564   2.581   0.693   1.161  0.5027 -0.9839  0.1589
30172SOL     OW97565   2.468   0.053   6.044  0.4042  0.4465  0.5627
30172SOL    HW197566   2.513  -0.031   6.031 -2.1961 -0.8661 -0.8999
30172SOL    HW297567   2.433   0.047   6.133 -0.2755 -0.3443  0.2618
30173SOL     OW97568   0.115   5.493   6.726  0.3158  0.0374 -0.2549
30173SOL    HW197569   0.078   5.574   6.692  0.0537 -0.2319 -0.6244
30173SOL    HW297570   0.185   5.471   6.664  1.2131  0.6189  0.5167
30174SOL     OW97571   8.453   6.825   1.960  0.1045  0.3730 -0.2947
30174SOL    HW197572   8.383   6.888   1.982 -1.8597 -1.4416 -0.9506
30174SOL    HW297573   8.496   6.863   1.884 -0.1145  1.5785  0.1576
30175SOL     OW97574  11.553   8.373   6.398  0.3187 -0.4564 -0.6476
30175SOL    HW197575  11.509   8.321   6.465  0.3575 -0.7002 -0.8103
30175SOL    HW297576  11.606   8.310   6.349  0.0303 -0.3379 -1.1181
30176SOL     OW97577   4.374   9.313  10.739 -0.2395  0.2507  0.4680
30176SOL    HW197578   4.333   9.395  10.713 -0.2450  0.0595 -0.1431
30176SOL    HW297579   4.319   9.245  10.700  1.0632 -0.0008 -1.0012
30177SOL     OW97580   7.067   4.317   1.673  0.0994  0.0861 -0.4222
30177SOL    HW197581   7.097   4.376   1.603 -3.0217  0.9331 -1.2109
30177SOL    HW297582   7.018   4.249   1.628  0.2575 -0.8534  0.7824
30178SOL     OW97583   1.688   7.717   2.393 -0.0719 -0.7664  0.3110
30178SOL    HW197584   1.759   7.657   2.370 -0.4878 -0.6444 -1.4293
30178SOL    HW297585   1.725   7.804   2.380 -0.2755 -0.6833  0.2862
30179SOL     OW97586   2.727   0.327   1.936  0.4764  0.1283 -0.2042
30179SOL    HW197587   2.676   0.380   1.875  3.0817  0.4468 -2.2600
30179SOL    HW297588   2.694   0.238   1.924  0.0971  0.3843 -1.1515
30180SOL     OW97589  11.337   4.102   8.516  0.0092 -0.3619 -0.2008
30180SOL    HW197590  11.343   4.073   8.425 -0.4987  1.1497 -0.7439
30180SOL    HW297591  11.255   4.064   8.548  0.2988 -1.0816 -0.2954
30181SOL     OW97592  12.416   4.604   6.266  0.2654 -0.5151 -0.2380
30181SOL    HW197593  12.420   4.684   6.318  0.4699  0.1488 -1.2599
30181SOL    HW297594  12.470   4.541   6.314  2.5873  0.8411 -0.9163
30182SOL     OW97595   4.245  12.324   5.849 -0.6803  0.1674  0.5383
30182SOL    HW197596   4.240  12.419   5.860  4.0684  0.7547 -0.3334
30182SOL    HW297597   4.204  12.308   5.764 -1.1011  1.4965  0.4614
30183SOL     OW97598   2.371  11.819   6.882  0.1189  0.4132 -0.1539
30183SOL    HW197599   2.292  11.870   6.867 -0.9909 -1.2705 -0.2913
30183SOL    HW297600   2.342  11.743   6.932  2.1763  1.2267  2.5034
30184SOL     OW97601   2.741  10.674   4.403 -0.4159 -0.3551 -0.3192
30184SOL    HW197602   2.691  10.603   4.363 -2.0245  0.6364 -0.1852
30184SOL    HW297603   2.777  10.722   4.328  1.4529 -1.7620 -0.4010
30185SOL     OW97604   1.611   7.711  10.510 -0.0459  0.3535  0.0166
30185SOL    HW197605   1.646   7.754  10.432  1.9378  0.3534  0.8504
30185SOL    HW297606   1.634   7.770  10.582  0.3100 -0.7997  0.8698
30186SOL     OW97607   5.441   0.917   1.243  0.0906  0.1477  0.2324
30186SOL    HW197608   5.454   0.995   1.189  0.8521  0.9514  1.5347
30186SOL    HW297609   5.524   0.868   1.234  0.3792  0.4913  0.9877
30187SOL     OW97610   9.800   7.931   9.179  0.4497  0.6068 -0.3486
30187SOL    HW197611   9.890   7.905   9.195  2.0886  3.5546 -3.3920
30187SOL    HW297612   9.780   7.993   9.248  1.0438  0.5264 -0.0988
30188SOL     OW97613   9.893   0.037   8.060  0.1058  0.1593 -0.0086
30188SOL    HW197614   9.945  -0.021   8.115  0.2567  2.7670  2.8691
30188SOL    HW297615   9.948   0.056   7.985  1.6689 -0.3059  0.9793
30189SOL     OW97616   5.980   6.853   3.738 -0.1032 -0.5565 -0.1323
30189SOL    HW197617   5.983   6.833   3.644  2.9153 -3.4963  0.3933
30189SOL    HW297618   5.906   6.802   3.771 -1.8216  1.2832 -0.9567
30190SOL     OW97619  12.141  12.579   3.833 -0.1299  0.3123  0.4004
30190SOL    HW197620  12.048  12.597   3.818 -0.3115 -0.2426  0.8116
30190SOL    HW297621  12.147  12.556   3.926  0.6220  1.5553  0.6838
30191SOL     OW97622   2.101  11.109   4.584 -0.2540 -0.3038  0.3185
30191SOL    HW197623   2.016  11.089   4.545 -0.2193  0.8140 -0.3659
30191SOL    HW297624   2.099  11.065   4.669 -0.6058 -2.2017 -0.6096
30192SOL     OW97625   7.485   7.384   3.462  0.3618 -0.0816 -0.0970
30192SOL    HW197626   7.483   7.390   3.366 -1.6679 -2.0172 -0.2474
30192SOL    HW297627   7.398   7.411   3.489 -0.0079 -2.1398  0.9495
30193SOL     OW97628   8.152   0.833   8.999  0.3165  0.6644 -0.2555
30193SOL    HW197629   8.168   0.918   9.040 -0.2287  0.5982  0.0953
30193SOL    HW297630   8.210   0.773   9.045 -0.7443  0.4689  0.8691
30194SOL     OW97631   1.541   6.483   4.087  0.1057 -0.3185  0.2768
30194SOL    HW197632   1.554   6.546   4.158  1.5035 -3.0454  2.6541
30194SOL    HW297633   1.462   6.435   4.112  0.2193 -0.8646 -0.3900
30195SOL     OW97634   6.402  10.688   3.384 -0.4002 -0.0738 -0.3574
30195SOL    HW197635   6.373  10.707   3.473  1.7253  0.0084  0.3934
30195SOL    HW297636   6.408  10.774   3.342  0.9506  0.1662  0.2597
30196SOL     OW97637   8.701   7.932   7.621  0.8444 -0.5988 -0.0005
30196SOL    HW197638   8.722   7.870   7.551  0.2951  1.3279 -1.9833
30196SOL    HW297639   8.645   7.997   7.579  1.4938  1.3134  1.9226
30197SOL     OW97640   5.520   5.229   6.013  0.2682 -0.2329 -0.2574
30197SOL    HW197641   5.469   5.307   6.037  1.2159  0.6898 -1.1430
30197SOL    HW297642   5.455   5.162   5.993 -0.5633  0.0250  1.4398
30198SOL     OW97643   8.643   4.291   3.873  0.1048  0.3014 -0.4093
30198SOL    HW197644   8.701   4.366   3.858  0.4038  0.4472  1.3051
30198SOL    HW297645   8.693   4.232   3.929 -1.0058 -0.0767  0.2190
30199SOL     OW97646   4.377   6.581   6.033  0.1932 -0.0145  0.1781
30199SOL    HW197647   4.347   6.506   5.982  1.7522  0.1616 -1.0630
30199SOL    HW297648   4.371   6.655   5.973 -1.3749  0.9239  1.4004
30200SOL     OW97649   1.202   0.267   7.270  0.4828  0.5089  0.3250
30200SOL    HW197650   1.148   0.332   7.225  1.5610  0.6212 -0.8573
30200SOL    HW297651   1.225   0.204   7.201  2.1674  0.6792  0.7015
30201SOL     OW97652   3.684  12.332   1.276  0.6178 -0.7100 -0.0150
30201SOL    HW197653   3.736  12.383   1.339  0.1340 -1.8347  1.3583
30201SOL    HW297654   3.654  12.397   1.212  1.6743  0.3668  0.5394
30202SOL     OW97655   9.325   4.738   9.122  0.2381 -0.0050 -0.1650
30202SOL    HW197656   9.395   4.716   9.184  1.4515  1.4452 -0.9693
30202SOL    HW297657   9.291   4.653   9.095  1.8124 -0.7711  0.1226
30203SOL     OW97658   3.256   8.967   7.623  0.7648  0.3352 -0.2203
30203SOL    HW197659   3.248   8.888   7.570 -1.2925  0.4534 -0.1599
30203SOL    HW297660   3.335   9.010   7.590  0.9764 -0.8951 -1.4013
30204SOL     OW97661   9.045  12.535   9.826  0.1893  0.3608  0.2835
30204SOL    HW197662   9.011  12.503   9.743  2.6815 -0.7688 -0.3884
30204SOL    HW297663   9.015  12.471   9.891  0.8718 -0.5216 -0.2582
30205SOL     OW97664   7.271   5.974   4.671  0.4345  1.2388 -0.0907
30205SOL    HW197665   7.357   5.937   4.691 -0.2861 -0.4354  0.0533
30205SOL    HW297666   7.252   6.032   4.745 -0.4644 -1.8252  2.2804
30206SOL     OW97667   0.596   5.169   0.410  0.4283 -0.1820  0.3149
30206SOL    HW197668   0.679   5.217   0.409 -0.1019  0.7697 -1.1894
30206SOL    HW297669   0.542   5.216   0.473  0.2052  0.7015 -0.5182
30207SOL     OW97670   6.418   5.521   0.974  0.7381  0.0003 -0.1201
30207SOL    HW197671   6.377   5.437   0.997 -2.0974  1.3857  0.2013
30207SOL    HW297672   6.446   5.557   1.058  0.2338  0.2082 -0.0383
30208SOL     OW97673   7.681   2.689   9.228 -0.0224 -0.0791  0.1252
30208SOL    HW197674   7.759   2.744   9.221  2.0698 -2.2870  3.3668
30208SOL    HW297675   7.612   2.749   9.256  1.6776  1.3081  1.5912
30209SOL     OW97676   1.287   7.420   4.078  0.4386 -0.1985 -0.3421
30209SOL    HW197677   1.342   7.395   4.003 -0.0974 -0.1256 -0.7693
30209SOL    HW297678   1.251   7.337   4.110  1.1885 -0.3032  0.2595
30210SOL     OW97679   9.190   5.372   0.790  0.3890  0.0829  0.1998
30210SOL    HW197680   9.181   5.352   0.697 -0.9090 -0.2722  0.3813
30210SOL    HW297681   9.220   5.290   0.830  2.2268  0.5787 -0.0492
30211SOL     OW97682   3.311   4.743   0.947 -0.5072 -0.1494  0.4238
30211SOL    HW197683   3.320   4.657   0.906  1.6738  0.4326 -0.4583
30211SOL    HW297684   3.373   4.799   0.900 -1.1076  1.6604  1.6618
30212SOL     OW97685   1.969   8.081   6.243  0.0887 -0.2341 -0.0157
30212SOL    HW197686   1.946   8.124   6.325 -0.2471 -1.4166  0.5283
30212SOL    HW297687   1.954   7.988   6.259  0.8161 -0.5726 -1.1514
30213SOL     OW97688   9.027   8.412   6.093  0.1368  0.6248  0.8778
30213SOL    HW197689   9.028   8.497   6.136  1.0882 -0.4796  3.2175
30213SOL    HW297690   8.996   8.430   6.004  1.1974  3.5218  0.9976
30214SOL     OW97691   2.277   0.015   8.950 -0.5247  0.1515 -0.0598
30214SOL    HW197692   2.366  -0.010   8.976 -1.1977 -2.0123  0.3155
30214SOL    HW297693   2.241  -0.063   8.910 -2.3463  0.9301 -0.0100
30215SOL     OW97694   1.789   8.007   2.546 -0.4334 -0.7544  0.0570
30215SOL    HW197695   1.803   7.931   2.603  2.1404 -1.9886 -2.0016
30215SOL    HW297696   1.704   7.991   2.505 -2.2827  0.0810  3.2043
30216SOL     OW97697   3.927   9.806   2.248  0.0475 -0.1018 -0.0309
30216SOL    HW197698   3.844   9.821   2.202 -0.1870  1.1763  0.7430
30216SOL    HW297699   3.989   9.865   2.206 -0.0375  0.6856  0.9160
30217SOL     OW97700   8.724  10.488   7.090 -0.2237  0.5221 -0.1826
30217SOL    HW197701   8.791  10.519   7.150 -1.5003  0.4187  1.3492
30217SOL    HW297702   8.722  10.393   7.102 -1.0386  0.5787  0.2528
30218SOL     OW97703   4.591  10.067   3.731 -0.1797 -0.7349  0.0546
30218SOL    HW197704   4.576  10.085   3.638 -1.1973  0.6761  0.4534
30218SOL    HW297705   4.628  10.148   3.765 -0.0051 -1.1759  0.9349
30219SOL     OW97706   7.690   9.627   8.689 -0.0737 -0.0365  0.1200
30219SOL    HW197707   7.746   9.658   8.618  0.1205  3.3729  1.5654
30219SOL    HW297708   7.606   9.608   8.647  0.6744 -0.2840 -1.3102
30220SOL     OW97709  11.206   5.309   7.899 -0.5979  0.0918 -0.4864
30220SOL    HW197710  11.289   5.355   7.910  0.3387 -1.9137  1.8717
30220SOL    HW297711  11.231   5.218   7.880 -2.1494 -0.7014  0.9479
30221SOL     OW97712   9.180  11.015   7.352 -0.2470 -0.3229 -0.2131
30221SOL    HW197713   9.141  10.948   7.407  1.3915 -1.0942  0.0807
30221SOL    HW297714   9.231  10.967   7.287 -2.1099  0.5590 -2.4756
30222SOL     OW97715   7.691  10.325  10.163 -0.5816  0.4434  0.7646
30222SOL    HW197716   7.600  10.323  10.133 -0.1283 -0.4938 -0.6334
30222SOL    HW297717   7.730  10.399  10.116 -0.0220 -0.6686 -0.6143
30223SOL     OW97718   0.990   3.598  10.936 -0.4327 -0.8178  0.0016
30223SOL    HW197719   1.077   3.638  10.932 -2.0860  3.2035 -0.6823
30223SOL    HW297720   0.974   3.568  10.846  0.3338 -2.0214  0.2353
30224SOL     OW97721   9.549   2.151   3.117  0.1251 -0.6449  0.1778
30224SOL    HW197722   9.472   2.125   3.067 -0.5695 -0.5464  1.1746
30224SOL    HW297723   9.567   2.077   3.175  1.1332 -0.9016 -0.4306
30225SOL     OW97724  12.067   2.082   3.591 -0.7934  0.1854 -0.4622
30225SOL    HW197725  12.113   2.065   3.674  1.0616 -1.0769 -1.6717
30225SOL    HW297726  11.982   2.115   3.618 -0.4584 -0.6774  1.9799
30226SOL     OW97727   0.275   9.819   5.325 -0.2514 -0.1007 -0.2133
30226SOL    HW197728   0.232   9.900   5.351 -1.1429 -1.1830  1.8117
30226SOL    HW297729   0.207   9.753   5.328  0.5808 -1.0613 -1.3630
30227SOL     OW97730  12.349   6.171   9.892  0.3275 -0.1137 -0.7237
30227SOL    HW197731  12.357   6.265   9.909  0.1387 -0.7087  3.6223
30227SOL    HW297732  12.255   6.156   9.885  0.3726  0.0071 -1.8125
30228SOL     OW97733   0.773   9.319  12.210  0.0327 -0.2046 -0.4214
30228SOL    HW197734   0.802   9.410  12.220 -0.4950 -0.1163  0.4800
30228SOL    HW297735   0.818   9.272  12.281 -0.9635 -0.3119  0.1669
30229SOL     OW97736   4.740   7.892   8.733 -0.3722 -0.4009  0.1265
30229SOL    HW197737   4.711   7.981   8.754  2.0439  0.2454  1.0815
30229SOL    HW297738   4.698   7.837   8.799 -1.1116  0.1554  0.1363
30230SOL     OW97739   7.578   4.641   4.108  0.0348  0.8102 -0.3130
30230SOL    HW197740   7.633   4.689   4.169  1.0730 -0.8733  0.1544
30230SOL    HW297741   7.502   4.614   4.161  0.2966  0.4730 -0.1042
30231SOL     OW97742   4.162   1.158  11.067 -0.2007 -0.3859  0.3918
30231SOL    HW197743   4.181   1.109  10.987 -1.5061 -0.8052  0.3225
30231SOL    HW297744   4.103   1.102  11.117  1.0306 -0.3828  1.9367
30232SOL     OW97745  10.053   4.389   6.282  0.1212 -0.3580 -0.7174
30232SOL    HW197746  10.102   4.442   6.219 -0.8710  1.2166 -0.2204
30232SOL    HW297747   9.965   4.384   6.246 -0.4020  0.3760  0.4245
30233SOL     OW97748   9.303   5.310  12.007  0.2583  0.3203 -0.2614
30233SOL    HW197749   9.256   5.318  12.089  0.4916 -1.0358  0.0215
30233SOL    HW297750   9.239   5.274  11.945  0.8478 -1.4993  0.1173
30234SOL     OW97751   8.095  11.323   1.534 -0.3803  0.4035  0.2337
30234SOL    HW197752   8.054  11.237   1.547 -2.3029  1.0639 -1.0019
30234SOL    HW297753   8.158  11.308   1.463 -1.7118  0.2491 -0.9679
30235SOL     OW97754   8.985  12.587   1.040  0.1538  0.7910  0.0695
30235SOL    HW197755   8.912  12.590   1.101 -0.0712 -0.2317 -0.1374
30235SOL    HW297756   9.011  12.679   1.029 -0.1909  1.0374  1.2161
30236SOL     OW97757   9.939   0.694   0.926 -0.1181 -0.5693  0.6777
30236SOL    HW197758   9.918   0.645   1.005 -0.5889  0.0639  0.9520
30236SOL    HW297759   9.963   0.782   0.957 -0.8099 -0.1594  0.0923
30237SOL     OW97760   4.675   9.539  11.371  0.5633  0.2957 -0.0630
30237SOL    HW197761   4.601   9.593  11.400 -0.5750 -1.1891 -0.1246
30237SOL    HW297762   4.674   9.463  11.429  1.8803  0.1093 -0.2549
30238SOL     OW97763   8.920   3.114   7.558 -0.0309 -0.1702 -0.4498
30238SOL    HW197764   9.003   3.106   7.605 -0.2825  1.5915  0.3734
30238SOL    HW297765   8.942   3.095   7.467  0.7437 -2.2718  0.1330
30239SOL     OW97766   7.271   4.916   1.351 -0.1635  0.2296 -0.3596
30239SOL    HW197767   7.287   4.978   1.422  1.7100 -0.6455  0.0685
30239SOL    HW297768   7.191   4.946   1.310  0.2565  2.4704  0.3099
30240SOL     OW97769   6.572   1.023   4.992  0.1515 -0.4640 -0.1340
30240SOL    HW197770   6.577   0.953   4.927  0.1060 -1.9499  1.3680
30240SOL    HW297771   6.482   1.054   4.988  0.4106  0.1770 -1.4463
30241SOL     OW97772   7.603  10.529  11.673  0.0955 -0.3064  0.3355
30241SOL    HW197773   7.543  10.462  11.641 -0.2409 -0.2247  0.7742
30241SOL    HW297774   7.546  10.593  11.717  0.5345 -0.4689  1.1772
30242SOL     OW97775   1.947   4.783   4.403  0.2650 -0.5940 -0.5704
30242SOL    HW197776   1.910   4.771   4.316 -1.0436 -0.7088 -0.0258
30242SOL    HW297777   2.040   4.762   4.393  0.3218  0.2541 -2.1073
30243SOL     OW97778  11.778  11.655   2.248  0.0797  0.3561  0.6560
30243SOL    HW197779  11.728  11.653   2.330  1.5699  1.5056  1.6555
30243SOL    HW297780  11.801  11.564   2.232  0.9122  0.2291  2.3032
30244SOL     OW97781   7.652   5.236   6.748 -0.2383 -0.3726 -0.2715
30244SOL    HW197782   7.589   5.284   6.694 -1.4884 -1.9220 -0.2454
30244SOL    HW297783   7.600   5.171   6.795  1.1661 -0.6275  1.0095
30245SOL     OW97784   9.300   3.896  11.680  0.0672 -0.4269 -0.2124
30245SOL    HW197785   9.316   3.804  11.660 -0.8586 -0.4814 -0.7523
30245SOL    HW297786   9.352   3.913  11.759 -0.3822 -1.6379  0.3709
30246SOL     OW97787   6.561   5.843   7.704  0.0252 -0.4488  0.4151
30246SOL    HW197788   6.577   5.748   7.709  0.5672 -0.3052  1.6609
30246SOL    HW297789   6.502   5.853   7.629 -0.4153 -1.8270  0.5480
30247SOL     OW97790   1.527  11.398  11.209  0.2304  0.4773  0.5502
30247SOL    HW197791   1.494  11.472  11.259 -1.0592  0.7212 -0.6236
30247SOL    HW297792   1.622  11.413  11.204  0.3334  0.7127  2.4307
30248SOL     OW97793   1.458   6.041  10.741 -0.2307 -0.3472  0.3984
30248SOL    HW197794   1.373   6.022  10.700 -0.7061 -0.2057  1.2970
30248SOL    HW297795   1.439   6.108  10.806  0.8663  0.8757 -0.4856
30249SOL     OW97796   4.536   2.350  10.287  0.4545  0.0723  0.3058
30249SOL    HW197797   4.527   2.256  10.300  1.5301  0.0867  1.3461
30249SOL    HW297798   4.572   2.382  10.370  0.8747  1.2678 -0.3228
30250SOL     OW97799  10.494   5.978   8.212  0.1227 -0.2451  0.4406
30250SOL    HW197800  10.475   5.971   8.118 -0.0329  0.1142  0.4433
30250SOL    HW297801  10.537   5.895   8.234  0.4453 -0.2043 -0.0145
30251SOL     OW97802   8.229  11.484   1.682 -0.8687 -0.4433 -0.2833
30251SOL    HW197803   8.172  11.419   1.642 -0.8541 -0.3552 -0.4490
30251SOL    HW297804   8.281  11.435   1.746 -0.7432 -0.6251 -0.5224
30252SOL     OW97805   2.538   2.813   0.853 -0.5579 -0.4494 -0.1845
30252SOL    HW197806   2.548   2.907   0.866  0.8902 -0.6858  0.5525
30252SOL    HW297807   2.448   2.795   0.882 -0.0916  0.3541  1.9361
30253SOL     OW97808   7.109   5.534   0.118 -0.5627 -0.0104 -0.2859
30253SOL    HW197809   7.138   5.623   0.100 -0.1482 -0.3759 -1.5299
30253SOL    HW297810   7.014   5.541   0.128 -0.3096  0.9877  2.5273
30254SOL     OW97811   1.359   0.828   5.137  0.5681  0.7351  0.2047
30254SOL    HW197812   1.334   0.758   5.196  0.7490  0.6600  0.1920
30254SOL    HW297813   1.292   0.827   5.069  0.8905  0.1997 -0.1063
30255SOL     OW97814  12.230   8.750   4.020  0.1309  0.5235  0.1978
30255SOL    HW197815  12.232   8.838   3.980  0.2734  1.3347  1.9020
30255SOL    HW297816  12.314   8.711   3.996 -0.1861  0.5958 -1.0973
30256SOL     OW97817   0.773   2.860   4.997  0.0249 -0.1746 -0.1108
30256SOL    HW197818   0.821   2.800   4.939  0.5077  1.3576 -1.3651
30256SOL    HW297819   0.840   2.918   5.032 -0.7863  1.8372 -1.6858
30257SOL     OW97820   8.385   9.828   7.862 -0.1532 -0.2707  0.0091
30257SOL    HW197821   8.342   9.793   7.939 -0.7474  0.2010 -0.1027
30257SOL    HW297822   8.474   9.847   7.891 -0.2776 -0.3975  0.4855
30258SOL     OW97823   6.717   0.294   9.287  0.3944  0.4868  0.7978
30258SOL    HW197824   6.770   0.225   9.328 -0.0111 -1.0928 -1.1824
30258SOL    HW297825   6.712   0.269   9.195  0.4879  3.3799 -0.0945
30259SOL     OW97826  11.671   8.720   0.437  0.0223 -0.0913 -0.0034
30259SOL    HW197827  11.614   8.795   0.456  0.2698 -0.0290  0.4985
30259SOL    HW297828  11.611   8.650   0.413 -0.1953  0.3890 -0.9187
30260SOL     OW97829   6.894   9.400  10.745 -0.3740  0.2491 -0.1607
30260SOL    HW197830   6.901   9.309  10.717  1.1712  0.0069  0.8838
30260SOL    HW297831   6.911   9.398  10.839 -1.0611  1.5389  0.0223
30261SOL     OW97832   5.241   1.500  11.793  0.0262  0.2626  0.2694
30261SOL    HW197833   5.281   1.446  11.862 -0.0739 -0.5978 -0.3288
30261SOL    HW297834   5.314   1.549  11.755  0.2647 -0.1339  0.2136
30262SOL     OW97835  11.568   4.294   1.293 -0.1317  0.3947  0.0742
30262SOL    HW197836  11.530   4.358   1.233  0.2074  0.6700  0.1470
30262SOL    HW297837  11.660   4.289   1.267 -0.0117  0.4192  0.4803
30263SOL     OW97838   1.768  10.655   1.304 -0.1854  0.0705 -0.0438
30263SOL    HW197839   1.807  10.739   1.282  1.0455 -0.5706 -0.4383
30263SOL    HW297840   1.776  10.603   1.224 -2.0306 -0.0605 -0.1899
30264SOL     OW97841   6.617  12.097   6.801  0.3953 -0.3177 -0.0440
30264SOL    HW197842   6.628  12.105   6.706  1.0823 -1.5215 -0.0852
30264SOL    HW297843   6.562  12.020   6.812  0.3892 -0.2325  0.5450
30265SOL     OW97844   8.205   1.257   8.148  0.4889 -0.6030  0.4000
30265SOL    HW197845   8.242   1.345   8.156  1.5375 -0.9624 -0.2451
30265SOL    HW297846   8.191   1.245   8.054 -1.5088 -0.4062  0.6362
30266SOL     OW97847  11.954   0.381  11.529  0.3033  0.2399 -0.1455
30266SOL    HW197848  11.996   0.327  11.596  2.6486 -0.5051 -2.1073
30266SOL    HW297849  12.024   0.436  11.494 -1.2531  1.9440 -0.7836
30267SOL     OW97850   1.106   1.726   6.996  0.3167 -0.4184  0.4677
30267SOL    HW197851   1.108   1.708   7.090 -1.8602  1.5650  0.9837
30267SOL    HW297852   1.136   1.816   6.988  1.4000 -0.8588 -0.9059
30268SOL     OW97853   9.770  12.466   1.048  0.4202 -0.0588 -0.9522
30268SOL    HW197854   9.722  12.444   1.128  0.2342  1.9207 -0.4735
30268SOL    HW297855   9.726  12.417   0.979 -0.4447 -0.5283 -0.0864
30269SOL     OW97856   6.495   3.634   5.687  0.2824  0.0600 -0.1771
30269SOL    HW197857   6.457   3.722   5.682  0.3049  0.1104  0.3964
30269SOL    HW297858   6.507   3.608   5.596  1.3386  1.1121 -0.3567
30270SOL     OW97859   1.810  11.092  10.109  0.6136 -0.9802  0.1801
30270SOL    HW197860   1.883  11.051  10.063  1.8471  0.3320  0.8640
30270SOL    HW297861   1.849  11.168  10.152 -1.4630  0.7824 -0.8127
30271SOL     OW97862   6.998   0.289   5.693  0.4144  0.3176  0.2933
30271SOL    HW197863   6.916   0.309   5.647  1.3101  2.1363 -0.6034
30271SOL    HW297864   6.970   0.250   5.776 -1.3254  0.0999 -0.3534
30272SOL     OW97865   5.904   7.401   7.520  0.5296 -0.2745  0.1483
30272SOL    HW197866   5.832   7.368   7.467 -0.1144  1.5437 -0.1847
30272SOL    HW297867   5.971   7.426   7.456  0.2809  0.7094  0.2613
30273SOL     OW97868   5.842   1.121   2.588 -0.2994  0.2059  0.0109
30273SOL    HW197869   5.761   1.104   2.637 -0.7262  1.5174 -0.2005
30273SOL    HW297870   5.812   1.133   2.498  0.2327 -0.0758 -0.2035
30274SOL     OW97871   4.850   1.488   4.909 -0.2644 -0.1334  0.2833
30274SOL    HW197872   4.885   1.571   4.875 -0.4546 -0.6542 -1.2490
30274SOL    HW297873   4.786   1.515   4.976 -0.7581  0.9920 -0.6000
30275SOL     OW97874   5.383  12.288   2.713 -0.3730 -0.2219 -0.5675
30275SOL    HW197875   5.443  12.215   2.727  0.0727  0.0087 -1.2040
30275SOL    HW297876   5.386  12.337   2.795 -0.6157 -0.8712 -0.1655
30276SOL     OW97877   9.390   3.004   9.307  0.4129  0.2736  0.3288
30276SOL    HW197878   9.361   2.969   9.392  0.7758 -0.1952  0.2662
30276SOL    HW297879   9.457   2.942   9.278 -0.0703  0.1418 -0.5425
30277SOL     OW97880   0.652   0.298  11.770 -0.3380  1.0608 -0.3660
30277SOL    HW197881   0.703   0.335  11.699 -0.2999  1.5129 -0.1059
30277SOL    HW297882   0.635   0.371  11.829 -1.5012  0.9732 -0.5635
30278SOL     OW97883   5.054   2.338  12.282 -0.5913 -0.1838  0.4832
30278SOL    HW197884   5.127   2.398  12.297 -1.4590  0.9502  0.3178
30278SOL    HW297885   5.079   2.288  12.205  0.7792 -1.0784  1.4619
30279SOL     OW97886  11.283   4.287   8.778  0.4285  0.4514 -0.3780
30279SOL    HW197887  11.268   4.264   8.686 -1.7588  2.6384 -0.6737
30279SOL    HW297888  11.200   4.266   8.822  1.1893  0.1355  0.9568
30280SOL     OW97889   1.027   9.609   2.637 -0.0664  0.0728 -0.4023
30280SOL    HW197890   1.004   9.550   2.565  2.2838 -1.0358 -0.3413
30280SOL    HW297891   1.073   9.682   2.595 -1.0862  0.8107 -0.2633
30281SOL     OW97892   5.738   9.451  10.595  0.0247  0.4312  0.0215
30281SOL    HW197893   5.720   9.517  10.528  0.3558  1.5685  1.0304
30281SOL    HW297894   5.688   9.375  10.567 -1.5622  1.5741 -0.3835
30282SOL     OW97895   5.834   3.727   0.134  0.0065 -0.4937 -0.0336
30282SOL    HW197896   5.913   3.740   0.187  0.7090  0.7541 -1.3032
30282SOL    HW297897   5.783   3.807   0.147  0.1565 -0.2019 -1.1388
30283SOL     OW97898   0.258   0.943   1.508  0.5993 -0.3497  0.1410
30283SOL    HW197899   0.278   1.037   1.512  1.2744 -0.4251 -1.0001
30283SOL    HW297900   0.303   0.913   1.430 -0.1590 -1.5039  0.1296
30284SOL     OW97901   2.676   0.636   2.377  0.5883 -0.3218 -0.6877
30284SOL    HW197902   2.736   0.607   2.446 -0.9813  0.8734  1.2845
30284SOL    HW297903   2.693   0.577   2.304  1.8585 -2.0900  0.9499
30285SOL     OW97904   5.303   6.958   5.622 -0.7039 -0.1785  0.0429
30285SOL    HW197905   5.213   6.958   5.589 -0.3265 -0.9337 -1.0051
30285SOL    HW297906   5.329   7.050   5.619 -0.7942 -0.1809 -1.4876
30286SOL     OW97907   5.764  11.959   5.612 -0.0473  0.1804  0.2381
30286SOL    HW197908   5.806  11.882   5.573 -1.2468 -0.6837  0.5686
30286SOL    HW297909   5.674  11.956   5.580 -0.3610  0.9207  1.0064
30287SOL     OW97910   8.980   2.744   2.586 -0.0902  0.1270 -0.1123
30287SOL    HW197911   8.925   2.714   2.514 -0.9601  0.1414  0.5327
30287SOL    HW297912   8.991   2.838   2.570 -2.0249  0.5595  0.8759
30288SOL     OW97913   7.835   8.771  11.089 -0.9199 -0.9202  0.0828
30288SOL    HW197914   7.805   8.682  11.105 -0.1532 -0.8504  2.2302
30288SOL    HW297915   7.842   8.811  11.176  1.7893  0.2138 -0.5243
30289SOL     OW97916   0.173   9.486   5.632  0.3333 -0.1955  0.0880
30289SOL    HW197917   0.095   9.436   5.655  0.6977 -0.5511  0.5692
30289SOL    HW297918   0.150   9.530   5.550 -0.4953 -0.0232  0.3973
30290SOL     OW97919   9.752  10.339   3.835  0.1193 -0.2539 -0.1125
30290SOL    HW197920   9.810  10.265   3.818  1.3935  0.8635 -0.8173
30290SOL    HW297921   9.674  10.321   3.782  0.0481 -1.4662  0.3575
30291SOL     OW97922   2.430   4.803  10.213 -0.1680 -0.0156  0.0305
30291SOL    HW197923   2.378   4.883  10.210  0.2003  0.2194 -0.0825
30291SOL    HW297924   2.474   4.806  10.298 -1.2386 -0.7870  0.6355
30292SOL     OW97925  12.274   2.594   3.002  0.1105  0.3645  0.3144
30292SOL    HW197926  12.287   2.535   3.076 -0.0505  1.3985  1.1943
30292SOL    HW297927  12.323   2.673   3.025  0.2189  0.6375 -0.7777
30293SOL     OW97928  11.636   6.636   6.115 -0.8791  0.0348 -1.0465
30293SOL    HW197929  11.604   6.708   6.060 -2.1550  0.4993  0.2560
30293SOL    HW297930  11.608   6.659   6.204  2.1118 -0.0951  0.0664
30294SOL     OW97931   0.657   7.661   3.117  0.0915  0.6103  0.3113
30294SOL    HW197932   0.629   7.750   3.138 -1.0268  0.2759  0.3559
30294SOL    HW297933   0.727   7.642   3.179 -1.3239  0.6010  1.9882
30295SOL     OW97934   7.240   8.980   5.879  0.3283 -0.3644  0.2574
30295SOL    HW197935   7.335   8.981   5.868  0.2529  0.1136 -0.4297
30295SOL    HW297936   7.227   8.978   5.974  1.0535  3.2400  0.5874
30296SOL     OW97937   7.279   5.756   2.505 -0.3751 -0.6435  0.1566
30296SOL    HW197938   7.308   5.780   2.592 -0.1808 -2.0893  0.5126
30296SOL    HW297939   7.296   5.834   2.451  0.4329 -0.0903  1.1842
30297SOL     OW97940   5.044   2.654  12.162  0.0528 -0.0791  0.0512
30297SOL    HW197941   4.968   2.710  12.179 -0.8246 -1.2008 -0.0001
30297SOL    HW297942   5.115   2.694  12.211 -0.6126  0.9206  0.2285
30298SOL     OW97943   3.695   2.146  12.342  0.3224  0.8353  0.3405
30298SOL    HW197944   3.710   2.135  12.436 -0.2588 -1.1998  0.2476
30298SOL    HW297945   3.731   2.067  12.302  0.9278  1.8522 -1.2194
30299SOL     OW97946   3.355   7.569  11.446  0.2780 -0.1629  0.0854
30299SOL    HW197947   3.282   7.622  11.479 -0.3071 -1.2040  0.5268
30299SOL    HW297948   3.397   7.623  11.379 -0.5014  0.7107  0.2945
30300SOL     OW97949   0.976  10.105   5.686  0.0853  0.1619 -0.2921
30300SOL    HW197950   0.913  10.154   5.738 -0.9373 -0.5307 -0.8328
30300SOL    HW297951   0.985  10.156   5.606  0.5090  0.4607 -0.0534
30301SOL     OW97952   2.668   0.744   0.532 -0.4133  0.0717 -0.0903
30301SOL    HW197953   2.714   0.671   0.574  0.4957  0.8420  0.3009
30301SOL    HW297954   2.702   0.745   0.443  0.2993  0.5779  0.1700
30302SOL     OW97955   1.133   6.629   9.033 -0.3470 -0.1172  0.3549
30302SOL    HW197956   1.040   6.636   9.054 -0.6040 -2.8333  0.3815
30302SOL    HW297957   1.135   6.614   8.939  0.3107  2.8999 -0.2075
30303SOL     OW97958   8.972   3.077   6.977  0.5817 -0.1647  0.0850
30303SOL    HW197959   8.938   3.166   6.986 -0.1518 -0.2148 -1.7225
30303SOL    HW297960   8.970   3.041   7.066 -0.7603  1.0521  0.5906
30304SOL     OW97961   9.686   3.918  11.784  0.3753 -0.1312 -0.0694
30304SOL    HW197962   9.721   3.833  11.756 -0.0218 -0.3441  0.0798
30304SOL    HW297963   9.627   3.897  11.856  1.0453  0.3658  0.6445
30305SOL     OW97964   6.822  10.462   2.214 -0.2693 -0.5422 -0.2696
30305SOL    HW197965   6.754  10.525   2.189 -0.4887 -0.3572  0.7484
30305SOL    HW297966   6.807  10.387   2.157 -0.3705  0.0942 -1.0973
30306SOL     OW97967   0.770  10.203   7.382  0.1808  0.2081 -0.0201
30306SOL    HW197968   0.796  10.166   7.467  1.6664  0.3843 -0.3682
30306SOL    HW297969   0.737  10.290   7.403  2.6190  1.1628  0.2320
30307SOL     OW97970   1.062   2.402   0.709  0.2011  0.4574  0.2676
30307SOL    HW197971   1.059   2.370   0.799  1.2533  0.4793  0.3211
30307SOL    HW297972   0.975   2.438   0.693 -0.2720 -0.3470  0.9777
30308SOL     OW97973   3.122   7.856  11.085 -1.3704 -0.1238  0.1480
30308SOL    HW197974   3.069   7.927  11.049 -1.1549  0.4643  0.9640
30308SOL    HW297975   3.070   7.777  11.069 -2.4797  0.4273  0.8793
30309SOL     OW97976   1.758   9.128   0.341 -0.2630 -0.1798 -0.0647
30309SOL    HW197977   1.801   9.187   0.279 -0.7249  1.5911  1.1855
30309SOL    HW297978   1.669   9.165   0.350 -0.9043 -1.6827  0.0270
30310SOL     OW97979  12.388   6.212   1.379  0.6041  0.1904 -0.1427
30310SOL    HW197980  12.366   6.294   1.333 -1.3263  0.2332  0.7682
30310SOL    HW297981  12.307   6.162   1.379  0.8677 -0.3355  2.1580
30311SOL     OW97982   0.688   9.247   1.539  0.1290 -0.6060 -0.3313
30311SOL    HW197983   0.765   9.191   1.539 -0.5967 -1.6508  0.8264
30311SOL    HW297984   0.624   9.200   1.487 -0.3943 -0.7302  0.4141
30312SOL     OW97985   9.050   8.160   8.440  0.5822 -0.0665 -0.1326
30312SOL    HW197986   9.088   8.171   8.353  0.6557  1.5935  0.0943
30312SOL    HW297987   8.957   8.181   8.428  0.0818 -2.0662 -0.2424
30313SOL     OW97988   2.885   3.080   6.202  0.2782  0.0518 -0.3327
30313SOL    HW197989   2.926   3.099   6.117  0.5069  0.2193 -0.1861
30313SOL    HW297990   2.953   3.035   6.252 -0.1155 -0.7810 -0.5199
30314SOL     OW97991  12.213   1.110   7.959 -0.7682  0.5998  0.1953
30314SOL    HW197992  12.294   1.149   7.994 -0.0798  0.4323 -1.1359
30314SOL    HW297993  12.201   1.030   8.009  1.1795 -0.5613 -1.0525
30315SOL     OW97994   2.276  10.643   1.838 -0.0151  0.2760 -0.6117
30315SOL    HW197995   2.337  10.597   1.895  0.8990  1.1597 -0.8469
30315SOL    HW297996   2.287  10.604   1.752 -0.0141  0.2191 -0.5855
30316SOL     OW97997   5.245   4.284   7.580 -0.4895 -0.2704  0.0824
30316SOL    HW197998   5.171   4.332   7.544  1.5608  1.8796 -1.5597
30316SOL    HW297999   5.265   4.217   7.514  0.3846  0.6289 -0.5880
30317SOL     OW98000   4.932   6.069   1.213 -0.1326  0.4133  0.3812
30317SOL    HW198001   5.017   6.034   1.185 -0.8683 -1.0012 -0.2202
30317SOL    HW298002   4.901   6.120   1.138  0.5628  1.7145  0.9431
30318SOL     OW98003  12.441  10.130   3.479 -0.3992 -0.0441 -0.0250
30318SOL    HW198004  12.488  10.205   3.515  1.7222 -1.1766 -0.3127
30318SOL    HW298005  12.408  10.083   3.556 -1.5271  0.9935  0.1621
30319SOL     OW98006   0.581   7.500   3.391 -0.1057  0.8447 -0.1115
30319SOL    HW198007   0.499   7.549   3.400 -0.3291  1.1559 -2.8715
30319SOL    HW298008   0.649   7.563   3.413 -0.5258  0.7789  1.5471
30320SOL     OW98009  11.969   3.316   8.098 -0.2379  0.9908 -0.0030
30320SOL    HW198010  12.041   3.264   8.133 -1.0323  0.6057  1.1319
30320SOL    HW298011  11.911   3.251   8.058  0.0279  1.2959 -0.8950
30321SOL     OW98012   6.173  11.855   3.320 -0.5489  0.3362 -0.7354
30321SOL    HW198013   6.088  11.811   3.322 -0.9792  1.1543 -0.4419
30321SOL    HW298014   6.164  11.927   3.383  0.5169  0.1622 -0.3600
30322SOL     OW98015   9.338   9.014   1.348  0.1678  0.2627 -0.2153
30322SOL    HW198016   9.363   9.106   1.362 -1.9893  0.7470  0.7643
30322SOL    HW298017   9.421   8.966   1.354  1.5523  2.2110 -1.9773
30323SOL     OW98018   5.275  10.460   7.788  0.3836  0.3397 -0.0146
30323SOL    HW198019   5.210  10.415   7.841 -0.7375  1.4143 -0.4274
30323SOL    HW298020   5.332  10.504   7.851  1.3066 -1.3320  0.3812
30324SOL     OW98021   0.696   6.248  12.290  0.3122 -0.3306  0.5726
30324SOL    HW198022   0.649   6.315  12.340  0.8916  2.5380 -2.3985
30324SOL    HW298023   0.778   6.236  12.338  0.4087  1.5137  0.9425
30325SOL     OW98024  11.594   1.971   0.321  0.4032  0.0190 -0.1998
30325SOL    HW198025  11.683   1.961   0.356 -0.1243 -0.9955  0.9662
30325SOL    HW298026  11.548   2.022   0.388 -0.0219  0.0727 -0.5312
30326SOL     OW98027   8.153   6.733  11.175 -0.3160 -0.6549  0.1916
30326SOL    HW198028   8.167   6.762  11.265  0.9087  1.7848 -0.6845
30326SOL    HW298029   8.229   6.678  11.155  0.0037 -0.2591  0.3051
30327SOL     OW98030  11.040   0.088  11.258  0.0313 -0.0403  0.2743
30327SOL    HW198031  11.047   0.089  11.354 -0.7980  1.3547  0.3539
30327SOL    HW298032  10.997   0.171  11.237  3.3659  1.4177 -1.5677
30328SOL     OW98033  11.367   8.501  11.081 -0.3539  0.1880  1.0911
30328SOL    HW198034  11.286   8.548  11.063  1.2858  2.1177 -2.2023
30328SOL    HW298035  11.355   8.415  11.040 -0.5677  0.6702  0.1229
30329SOL     OW98036   4.428   8.880   2.446  0.1219 -1.1887 -0.2036
30329SOL    HW198037   4.435   8.795   2.404 -2.0998 -1.3299 -0.4143
30329SOL    HW298038   4.357   8.924   2.399 -1.4456 -0.7745  2.3664
30330SOL     OW98039  11.663   9.463   0.782  0.5250  0.6116  0.1233
30330SOL    HW198040  11.662   9.525   0.855 -1.1004  0.0379  0.6392
30330SOL    HW298041  11.719   9.392   0.812 -0.0277  0.4422  0.7797
30331SOL     OW98042   1.785   7.332   6.522  0.3101  0.2189 -0.3893
30331SOL    HW198043   1.869   7.285   6.521 -0.8124 -1.9295  0.0220
30331SOL    HW298044   1.728   7.278   6.577 -2.4723 -0.4568 -3.5949
30332SOL     OW98045   1.421   3.538  11.179  0.0740 -0.2773  0.1454
30332SOL    HW198046   1.391   3.564  11.266 -1.4602 -3.0848  0.5623
30332SOL    HW298047   1.441   3.621  11.135 -1.7205  1.3762  2.2155
30333SOL     OW98048   0.973   0.688   2.368 -0.1422  0.2671  0.5769
30333SOL    HW198049   0.975   0.679   2.273 -0.7292  0.7604  0.5128
30333SOL    HW298050   1.037   0.757   2.386 -1.2375  1.3691  0.3773
30334SOL     OW98051   0.336   4.445   8.795  0.2690  0.1484 -0.3138
30334SOL    HW198052   0.353   4.539   8.786  2.7249  0.1203  2.4747
30334SOL    HW298053   0.256   4.440   8.847  0.0231  0.6779 -0.6336
30335SOL     OW98054  11.035  10.620   7.577 -0.3700 -0.3830 -0.5247
30335SOL    HW198055  11.070  10.577   7.499  2.3553 -0.6581  0.7630
30335SOL    HW298056  11.023  10.712   7.550  4.4624  0.5569 -0.3250
30336SOL     OW98057  11.100   0.860   7.910 -0.1352 -0.2181  0.1661
30336SOL    HW198058  11.043   0.790   7.878 -0.1437  0.3024 -0.9948
30336SOL    HW298059  11.144   0.821   7.986  2.3404 -2.6897 -2.3051
30337SOL     OW98060   9.638   0.429   1.381 -0.2147  0.0007  0.4191
30337SOL    HW198061   9.712   0.489   1.392  0.2703 -0.6898  0.9787
30337SOL    HW298062   9.673   0.355   1.332 -0.3870 -0.5863  1.1605
30338SOL     OW98063   9.958   3.822  11.395 -0.1565 -0.2677 -0.1818
30338SOL    HW198064   9.924   3.889  11.335 -2.3359  0.4935  1.7748
30338SOL    HW298065   9.881   3.773  11.423  0.8352 -0.8438  1.6979
30339SOL     OW98066   9.090   8.971   8.020 -0.5221 -0.2733 -0.0615
30339SOL    HW198067   9.040   9.052   8.011 -1.2779 -0.7698 -0.3554
30339SOL    HW298068   9.025   8.904   8.036  0.2141 -0.5652  2.1112
30340SOL     OW98069   6.054  10.216   3.792 -0.2224 -0.4425  0.0295
30340SOL    HW198070   6.001  10.168   3.856 -1.1908 -1.2761 -1.3572
30340SOL    HW298071   6.076  10.152   3.725 -1.3478  0.9467 -1.7675
30341SOL     OW98072   1.532   7.532   8.428 -0.6585 -0.0883  0.2883
30341SOL    HW198073   1.441   7.562   8.419 -0.1432  1.2573 -0.6643
30341SOL    HW298074   1.527   7.437   8.416 -1.8267  0.0802 -0.6611
30342SOL     OW98075   3.426  12.311   8.790  0.0004  0.0715 -0.0161
30342SOL    HW198076   3.468  12.246   8.733 -0.7577 -0.6914  0.2652
30342SOL    HW298077   3.334  12.306   8.767  0.0474  1.8061 -0.6993
30343SOL     OW98078   7.768   0.409  11.899 -0.5753  0.2038 -0.7933
30343SOL    HW198079   7.787   0.477  11.834 -3.0924  1.9618  0.1764
30343SOL    HW298080   7.679   0.428  11.928 -0.8521 -2.6988  0.5870
30344SOL     OW98081   2.366   9.840   2.744 -0.7377  0.0690  0.0693
30344SOL    HW198082   2.320   9.756   2.746 -1.3641  0.4242  1.1168
30344SOL    HW298083   2.441   9.825   2.686 -0.7492 -1.2609  0.3725
30345SOL     OW98084   7.368  11.007   4.422  0.1246 -0.1165 -0.0218
30345SOL    HW198085   7.311  11.039   4.352  0.2430 -0.5667 -0.3359
30345SOL    HW298086   7.332  11.045   4.502 -2.2381 -2.3917  0.1531
30346SOL     OW98087   9.577   7.956   7.291 -0.4220 -0.1687 -0.1494
30346SOL    HW198088   9.554   7.975   7.200  0.4419  0.2452 -0.2889
30346SOL    HW298089   9.670   7.932   7.288 -0.2968  0.1690  0.6608
30347SOL     OW98090   8.013   6.875   4.475  0.2153 -0.2453  0.1541
30347SOL    HW198091   7.921   6.875   4.449  0.1098  0.4135  0.5079
30347SOL    HW298092   8.011   6.875   4.571  0.5778  0.6541  0.1676
30348SOL     OW98093   1.958   6.248  10.643  0.2728  0.1733 -0.4085
30348SOL    HW198094   1.915   6.299  10.575 -2.5362 -2.4780 -0.8713
30348SOL    HW298095   1.925   6.159  10.630  1.8861 -1.0278  2.6630
30349SOL     OW98096   1.596   0.278   5.829  0.1246  0.0722 -0.0785
30349SOL    HW198097   1.659   0.250   5.762 -0.7802  1.8968 -1.8131
30349SOL    HW298098   1.650   0.305   5.903  1.1422 -2.5784  0.2714
30350SOL     OW98099   5.309   1.195  11.488  0.7081  0.5929 -0.1940
30350SOL    HW198100   5.309   1.250  11.410  0.9071 -1.0410 -1.3924
30350SOL    HW298101   5.402   1.186  11.511  0.9617 -1.4562 -1.7001
30351SOL     OW98102   2.056   3.716   7.197  0.4168  0.4013  0.4486
30351SOL    HW198103   1.973   3.687   7.236  0.3237 -1.7962 -1.1632
30351SOL    HW298104   2.122   3.694   7.262  0.0018 -0.6898  0.5251
30352SOL     OW98105   0.661   9.435  11.773  0.2604 -0.4020  0.3928
30352SOL    HW198106   0.676   9.394  11.688 -0.7223  0.1929 -0.0995
30352SOL    HW298107   0.743   9.424  11.821  0.3685 -1.9742 -0.1032
30353SOL     OW98108   1.121   3.584   1.650 -0.1760  0.0306 -0.7569
30353SOL    HW198109   1.047   3.532   1.682  1.0536 -0.4769  1.4783
30353SOL    HW298110   1.184   3.519   1.619 -1.1926  0.4861 -4.2889
30354SOL     OW98111   6.048   0.561   8.192 -0.0531 -0.0624 -0.0478
30354SOL    HW198112   6.129   0.537   8.237 -0.4938  0.5293  1.1006
30354SOL    HW298113   6.051   0.514   8.109  1.0805 -0.6846  0.3360
30355SOL     OW98114   8.240   9.260   2.785  0.0659 -0.1978  0.2617
30355SOL    HW198115   8.236   9.354   2.802  0.8918 -0.0416 -0.3788
30355SOL    HW298116   8.330   9.244   2.758  0.2219 -1.3599  1.3857
30356SOL     OW98117   6.904   5.994   1.747 -0.2075  0.7059 -0.0871
30356SOL    HW198118   6.850   5.915   1.753 -0.8533  1.2372  2.1936
30356SOL    HW298119   6.994   5.962   1.743 -0.5322 -0.1410 -1.0129
30357SOL     OW98120   7.924   3.814   5.701 -0.4185  0.5337 -0.0133
30357SOL    HW198121   8.014   3.833   5.675 -0.7620  1.3375 -0.6545
30357SOL    HW298122   7.922   3.834   5.795  0.0339  0.6479 -0.0265
30358SOL     OW98123   2.415   4.338   4.806 -0.0904  0.7601  0.1032
30358SOL    HW198124   2.371   4.383   4.878 -1.3155 -0.8226  0.4120
30358SOL    HW298125   2.495   4.303   4.845 -0.8754 -0.3223  0.8280
30359SOL     OW98126   8.063  10.832  12.221  0.6627 -0.0882 -0.3439
30359SOL    HW198127   8.001  10.797  12.157 -1.9192 -0.8516  2.3424
30359SOL    HW298128   8.053  10.927  12.215 -0.8704 -0.1998  0.0708
30360SOL     OW98129   9.018   0.950   8.812 -0.1789  0.5119  0.4877
30360SOL    HW198130   9.090   0.987   8.863 -0.5153  0.4404  1.0267
30360SOL    HW298131   9.054   0.870   8.774  0.2863  0.9303  0.0380
30361SOL     OW98132   3.298   1.764   1.260 -0.3658  0.0007  0.0605
30361SOL    HW198133   3.364   1.830   1.239 -1.4191  1.3517  0.8436
30361SOL    HW298134   3.339   1.709   1.327  0.5754 -0.2747 -0.7104
30362SOL     OW98135   5.666   9.295   4.085  0.7048  0.3389 -0.4207
30362SOL    HW198136   5.652   9.244   4.165  0.2406  0.2792 -0.5386
30362SOL    HW298137   5.626   9.380   4.104 -1.7152 -0.4805 -1.4860
30363SOL     OW98138   8.035   4.002   0.850  0.5615  0.2023  0.8655
30363SOL    HW198139   8.014   4.086   0.889  1.0744  0.5826  0.3356
30363SOL    HW298140   8.121   4.014   0.811 -1.1077  0.8182 -3.0942
30364SOL     OW98141   5.358   8.764   1.127  0.3877  0.5565 -0.1790
30364SOL    HW198142   5.278   8.782   1.177  0.3362 -1.4807  0.5501
30364SOL    HW298143   5.396   8.851   1.112 -2.8013  1.8272 -2.0978
30365SOL     OW98144   1.954  12.499   8.487  0.3370 -0.0944  0.3054
30365SOL    HW198145   2.046  12.511   8.508  0.0324 -0.5008  2.0297
30365SOL    HW298146   1.937  12.407   8.505 -0.4374  0.0136  0.1610
30366SOL     OW98147   0.020   1.122   3.785 -0.0627  0.5074 -0.1988
30366SOL    HW198148   0.082   1.183   3.747  0.6857 -0.8006 -1.1684
30366SOL    HW298149   0.056   1.101   3.871  1.7842 -1.4639 -1.3676
30367SOL     OW98150   9.882   3.289   0.318 -0.1962 -0.6283 -0.0929
30367SOL    HW198151   9.790   3.315   0.321 -0.5215 -1.7127 -0.3046
30367SOL    HW298152   9.918   3.319   0.401 -0.9771 -1.0450  0.4145
30368SOL     OW98153   6.715   4.638   2.688 -0.3150  0.3708 -1.0683
30368SOL    HW198154   6.659   4.691   2.632 -1.2347  0.8110  0.2061
30368SOL    HW298155   6.730   4.693   2.765  1.6243  0.1229 -1.2336
30369SOL     OW98156   0.216   3.735   5.335  0.3133  0.4513 -0.5237
30369SOL    HW198157   0.167   3.792   5.394 -0.7794 -0.8452 -0.1124
30369SOL    HW298158   0.301   3.723   5.378  0.0577  0.6956  0.0531
30370SOL     OW98159   3.025  11.411   6.667 -0.5375  0.0968 -0.1400
30370SOL    HW198160   2.970  11.488   6.656 -0.0802  0.3338 -0.8448
30370SOL    HW298161   3.053  11.388   6.578  0.7554  0.1687  0.2198
30371SOL     OW98162   8.370   3.677   9.991 -0.2539  0.4826  0.2937
30371SOL    HW198163   8.454   3.667   9.947 -0.5601  0.8010 -0.3803
30371SOL    HW298164   8.383   3.640  10.078  0.6004  0.5986  0.2165
30372SOL     OW98165   8.931   2.944   4.833 -0.1170  0.0478 -0.4960
30372SOL    HW198166   8.840   2.974   4.836  0.0656  0.6386  2.0334
30372SOL    HW298167   8.979   3.019   4.797 -0.3482  0.7381  0.5806
30373SOL     OW98168   6.659   3.063   0.244  0.1805 -0.0709 -0.7068
30373SOL    HW198169   6.599   3.060   0.169  0.0229 -2.6940 -0.5844
30373SOL    HW298170   6.727   3.000   0.222  0.4475 -0.4492  1.0809
30374SOL     OW98171   8.586   7.048  10.451 -0.4754 -0.0425  0.4203
30374SOL    HW198172   8.665   7.008  10.487  0.4325  1.0708 -0.2585
30374SOL    HW298173   8.581   7.015  10.361 -0.5796  0.1538  0.3529
30375SOL     OW98174   8.737   3.861   1.746  0.6478 -0.0413 -0.2626
30375SOL    HW198175   8.755   3.955   1.737  0.3643 -0.0754 -1.3001
30375SOL    HW298176   8.772   3.822   1.666 -1.2892 -0.5037 -0.9385
30376SOL     OW98177   4.485   3.018   3.148 -0.1452  0.0473 -0.2658
30376SOL    HW198178   4.498   3.111   3.167  1.6066 -0.2155 -0.0205
30376SOL    HW298179   4.401   2.997   3.189  0.6841  0.9262  2.0760
30377SOL     OW98180   0.174   5.465   0.298 -0.4302 -0.5777 -0.0610
30377SOL    HW198181   0.232   5.464   0.374 -1.3404  2.1517  0.8003
30377SOL    HW298182   0.108   5.399   0.318  0.1710 -0.9392  0.8028
30378SOL     OW98183  10.725   5.871  10.720  0.4068 -0.0246  0.1825
30378SOL    HW198184  10.684   5.797  10.675 -0.2664  1.4630 -1.8168
30378SOL    HW298185  10.664   5.943  10.707  1.3134  1.0340  1.5718
30379SOL     OW98186   3.458   3.673  12.051  0.2389  0.3017 -0.4777
30379SOL    HW198187   3.441   3.579  12.063  1.4750  0.3280  2.1962
30379SOL    HW298188   3.371   3.713  12.045 -0.4149 -0.7328  1.3140
30380SOL     OW98189   0.976   8.249   6.740 -0.2218  0.6853 -0.0376
30380SOL    HW198190   0.993   8.332   6.786 -1.0126  0.7734  0.1104
30380SOL    HW298191   1.063   8.215   6.719  0.4205 -0.9459  4.2922
30381SOL     OW98192   9.516   1.515   0.446  0.4699  0.1459 -0.0314
30381SOL    HW198193   9.501   1.609   0.449  1.6720  0.3265  0.8888
30381SOL    HW298194   9.461   1.484   0.374  0.6436  1.6493 -0.8271
30382SOL     OW98195   8.102   5.193   4.834  0.3263 -0.1633 -0.1566
30382SOL    HW198196   8.181   5.246   4.848 -0.1830  1.1571 -1.9473
30382SOL    HW298197   8.075   5.212   4.744 -2.3649 -0.0973  0.5640
30383SOL     OW98198   0.664   9.290   2.669 -0.0552  0.4080 -0.3749
30383SOL    HW198199   0.699   9.204   2.644  1.5137  1.2719 -1.3848
30383SOL    HW298200   0.742   9.344   2.683 -0.9371  2.3908 -2.4514
30384SOL     OW98201   8.605  12.257  11.715 -0.0886 -0.2102 -0.1461
30384SOL    HW198202   8.540  12.243  11.784 -0.6448  0.0034 -0.6127
30384SOL    HW298203   8.603  12.176  11.664  0.6209 -0.5274  0.3281
30385SOL     OW98204   2.330  12.581   4.821  0.1883 -0.0505  0.4370
30385SOL    HW198205   2.332  12.571   4.726 -1.9230  1.5915  0.1435
30385SOL    HW298206   2.388  12.655   4.839 -0.1116  0.2242  0.2950
30386SOL     OW98207   4.781   1.202   5.970  0.1609  0.0960 -0.0114
30386SOL    HW198208   4.843   1.212   6.042 -0.1251 -0.3326  0.3000
30386SOL    HW298209   4.799   1.276   5.912 -0.2664  1.0190  0.9947
30387SOL     OW98210   5.372   9.956   6.375  0.4178 -0.1492  0.0652
30387SOL    HW198211   5.309  10.008   6.327 -2.1421 -2.3644  0.7748
30387SOL    HW298212   5.323   9.920   6.448  2.6605 -1.5991  0.9766
30388SOL     OW98213   7.163   0.843  12.288 -0.3026  0.1916  0.0689
30388SOL    HW198214   7.115   0.842  12.371  1.7312 -0.2430  1.3017
30388SOL    HW298215   7.106   0.795  12.228 -0.8801 -1.4399  1.8041
30389SOL     OW98216   8.896   5.299   4.880  0.3168  0.5033  0.1856
30389SOL    HW198217   8.805   5.269   4.891  0.7538 -0.3623  1.7944
30389SOL    HW298218   8.890   5.394   4.877 -0.6292  0.4641  0.5609
30390SOL     OW98219   8.261   7.078  11.293  0.4008  0.3441  0.0897
30390SOL    HW198220   8.329   7.078  11.226  1.3306  0.8716  1.0139
30390SOL    HW298221   8.181   7.101  11.246  1.2157  1.7284 -0.6771
30391SOL     OW98222   7.265  10.890  11.498 -0.2558  0.2327  0.1280
30391SOL    HW198223   7.259  10.975  11.540 -2.2784 -0.4738  1.4246
30391SOL    HW298224   7.189  10.886  11.441  0.8900  0.0190 -1.4688
30392SOL     OW98225   6.859  11.087   9.909 -0.0462  0.2334 -0.2361
30392SOL    HW198226   6.874  11.049   9.996  0.8162  2.0234  0.4515
30392SOL    HW298227   6.945  11.085   9.867  0.2260  2.1145  0.1458
30393SOL     OW98228   9.258   2.597   0.352  0.1137  0.1947 -0.5923
30393SOL    HW198229   9.169   2.564   0.363 -0.2270  1.2495 -0.0476
30393SOL    HW298230   9.304   2.529   0.303 -0.7033 -0.8270  0.0457
30394SOL     OW98231   9.909   3.246   5.584 -0.1668 -0.4923  0.0498
30394SOL    HW198232   9.951   3.332   5.586 -2.3485  0.6294  0.5469
30394SOL    HW298233   9.849   3.246   5.659 -0.6072 -2.2380 -0.2530
30395SOL     OW98234   0.861   2.992   2.742 -0.1073  0.0498  0.2444
30395SOL    HW198235   0.801   2.923   2.714 -0.0596 -1.3760  3.2625
30395SOL    HW298236   0.808   3.072   2.739 -1.2829 -0.7111  0.1029
30396SOL     OW98237   1.871   0.321   0.406 -0.1498 -0.0278  0.0108
30396SOL    HW198238   1.898   0.381   0.476  1.3162 -0.4654 -0.1420
30396SOL    HW298239   1.903   0.361   0.326 -2.7573  1.0079 -0.5938
30397SOL     OW98240   0.953   6.344  11.784  0.0670 -0.0463  0.1977
30397SOL    HW198241   0.925   6.255  11.806  0.2924  0.1315  1.2581
30397SOL    HW298242   0.965   6.343  11.689 -2.6224 -0.3670 -0.2097
30398SOL     OW98243  11.011  10.349   7.092  0.2070 -0.3709 -0.5633
30398SOL    HW198244  10.940  10.327   7.032  0.3810 -1.3821 -0.4078
30398SOL    HW298245  11.021  10.272   7.148  0.2898  0.4133  0.5383
30399SOL     OW98246  10.866  12.064   0.644 -0.1318  0.0966 -0.0850
30399SOL    HW198247  10.807  12.139   0.654  0.8838  0.7823  0.9302
30399SOL    HW298248  10.809  11.987   0.652 -0.6933  0.6900  2.8292
30400SOL     OW98249  10.676   4.029   2.903  0.1135  0.1698 -0.0250
30400SOL    HW198250  10.613   4.022   2.832 -1.1450  1.5598  0.9065
30400SOL    HW298251  10.719   4.114   2.889  0.2970  0.1690  0.5243
30401SOL     OW98252  10.769  11.358   6.197 -0.3521  0.4821 -0.4248
30401SOL    HW198253  10.680  11.385   6.220  0.1869  1.6424  0.3899
30401SOL    HW298254  10.803  11.430   6.144  0.4254  0.4983  0.0744
30402SOL     OW98255   7.348   0.641   4.294 -0.8917 -0.2136  0.1274
30402SOL    HW198256   7.357   0.736   4.292 -0.4532 -0.2270  1.1541
30402SOL    HW298257   7.413   0.611   4.357 -2.4054 -1.0167  1.3676
30403SOL     OW98258  10.367  11.337  11.514 -0.0229  0.2681 -0.9983
30403SOL    HW198259  10.386  11.250  11.549  1.4574  0.5850 -0.9437
30403SOL    HW298260  10.391  11.331  11.421 -1.4815  0.1699 -1.3935
30404SOL     OW98261   4.034  11.992   9.714  0.1101 -0.0833  0.0364
30404SOL    HW198262   4.127  12.010   9.706  0.7144 -1.3929  2.9243
30404SOL    HW298263   4.027  11.897   9.705 -0.4758 -0.3540  2.6941
30405SOL     OW98264  10.530   0.675   0.874  0.2444 -0.4575  0.7724
30405SOL    HW198265  10.439   0.644   0.875  0.7221 -1.9348  1.5596
30405SOL    HW298266  10.568   0.637   0.795  0.4232 -0.6115  0.9319
30406SOL     OW98267   6.561   9.476   3.552  0.1061 -0.2706 -0.0696
30406SOL    HW198268   6.553   9.387   3.588 -1.7176 -0.3868 -0.6394
30406SOL    HW298269   6.494   9.526   3.599 -0.6697  0.1534 -1.5557
30407SOL     OW98270  10.382   5.699   4.768 -0.1582 -0.3307 -0.0051
30407SOL    HW198271  10.402   5.631   4.833  0.8538 -0.0445 -0.0118
30407SOL    HW298272  10.377   5.780   4.819 -0.8274 -0.3203 -0.0783
30408SOL     OW98273  10.197   0.247   7.322  0.4590 -0.0794 -0.2635
30408SOL    HW198274  10.182   0.156   7.297 -0.0271 -0.4186  1.1565
30408SOL    HW298275  10.132   0.264   7.390  0.6622  1.2854 -0.3798
30409SOL     OW98276   4.516   6.400   1.939  0.0439  0.2335 -0.5994
30409SOL    HW198277   4.576   6.399   2.013 -1.1477  1.6298  0.4496
30409SOL    HW298278   4.544   6.476   1.887  0.2423 -0.1469 -1.0640
30410SOL     OW98279  12.358   8.747   0.124  0.5497  0.3481 -0.4620
30410SOL    HW198280  12.360   8.734   0.030 -1.7534  1.0246 -0.6817
30410SOL    HW298281  12.291   8.686   0.155  0.4308  0.9710  0.5595
30411SOL     OW98282   0.426   4.953   5.832  0.0042 -0.2029  0.0869
30411SOL    HW198283   0.367   5.006   5.779  1.2479  0.8712 -0.2722
30411SOL    HW298284   0.513   4.987   5.813  0.5749 -0.3341  2.1996
30412SOL     OW98285  11.476   0.817  11.107  0.1556  0.0924  0.0300
30412SOL    HW198286  11.429   0.799  11.025  0.6643 -0.6935 -0.1067
30412SOL    HW298287  11.507   0.731  11.136  0.3318  0.4167  0.8367
30413SOL     OW98288   9.300  10.482   0.885  0.0207 -0.1807 -0.6250
30413SOL    HW198289   9.219  10.433   0.875  0.7142 -1.0593 -2.3199
30413SOL    HW298290   9.282  10.567   0.844 -0.7500  0.5584  1.1249
30414SOL     OW98291  12.211   7.313   6.578 -0.2662  0.5551  0.5315
30414SOL    HW198292  12.178   7.285   6.492  0.4788  0.3681  0.2986
30414SOL    HW298293  12.199   7.408   6.578  0.0628  0.5978  0.0784
30415SOL     OW98294  10.380   5.400   3.445  0.4225 -0.1516  0.9960
30415SOL    HW198295  10.361   5.493   3.455  1.9298  0.2993  0.0340
30415SOL    HW298296  10.358   5.380   3.354  0.7503 -0.5621  1.0011
30416SOL     OW98297   2.298   9.878   5.372  0.7501 -0.0083 -0.2364
30416SOL    HW198298   2.390   9.900   5.361  1.0840 -1.4013 -0.4122
30416SOL    HW298299   2.257   9.904   5.289  0.3566  3.3344  0.8604
30417SOL     OW98300   4.235   3.514  11.803 -0.1290 -0.6480  0.2598
30417SOL    HW198301   4.189   3.519  11.718 -2.1192 -1.7200  1.1995
30417SOL    HW298302   4.254   3.421  11.814 -0.5358 -0.6217  1.2865
30418SOL     OW98303   0.877   1.926   7.083  0.2816  0.1021  0.0731
30418SOL    HW198304   0.842   2.008   7.118 -0.7463 -0.0474 -0.5727
30418SOL    HW298305   0.883   1.940   6.989  1.9492  0.0935  0.1384
30419SOL     OW98306   4.940   0.557  11.489 -0.5785  0.1031 -0.3386
30419SOL    HW198307   4.846   0.576  11.490 -0.7283 -0.6226 -0.2502
30419SOL    HW298308   4.947   0.476  11.439  0.3589  2.0152 -3.6369
30420SOL     OW98309  10.403  11.208   9.022  0.4931 -0.5068  0.0198
30420SOL    HW198310  10.436  11.190   9.110  0.5764 -0.8591 -0.0835
30420SOL    HW298311  10.426  11.300   9.006  2.1607 -0.9528 -0.3653
30421SOL     OW98312   0.937   6.038   8.799 -0.1714  0.2243 -0.0190
30421SOL    HW198313   0.861   5.990   8.766  0.3394 -0.8173  0.2751
30421SOL    HW298314   0.930   6.032   8.895 -1.7065  3.3207  0.1557
30422SOL     OW98315   4.222   3.219   0.960 -0.0715  0.3832 -0.5308
30422SOL    HW198316   4.225   3.263   1.044  0.7735 -2.5897  1.1631
30422SOL    HW298317   4.155   3.151   0.970  0.8666 -0.8098 -1.7887
30423SOL     OW98318   5.853   2.765  11.259 -0.2228 -0.3481  0.4741
30423SOL    HW198319   5.912   2.690  11.266  0.0190 -0.6623 -3.1070
30423SOL    HW298320   5.910   2.841  11.270  0.3336 -0.6679 -0.1593
30424SOL     OW98321   6.717   9.013   0.080  0.0012  0.0168 -0.3437
30424SOL    HW198322   6.799   9.055   0.055  0.3336 -0.9440 -0.9122
30424SOL    HW298323   6.671   9.079   0.133  2.9977 -0.7588  3.7792
30425SOL     OW98324   4.806   1.589   8.857  0.3107 -0.0748 -0.5756
30425SOL    HW198325   4.771   1.579   8.768  1.0836 -0.7991 -0.8141
30425SOL    HW298326   4.861   1.668   8.852  0.0146  0.1310 -0.6244
30426SOL     OW98327   7.304   6.752   6.640  0.6615 -0.0695 -0.3457
30426SOL    HW198328   7.215   6.758   6.675  1.2252 -0.8615  1.2735
30426SOL    HW298329   7.347   6.832   6.671  0.9917 -0.4913  0.2952
30427SOL     OW98330   7.845   5.663   7.605 -0.7484  0.3652 -0.4730
30427SOL    HW198331   7.813   5.579   7.572 -2.0391  1.2542 -1.6087
30427SOL    HW298332   7.766   5.716   7.615  0.0633  1.5348 -0.0088
30428SOL     OW98333  12.176   5.471   5.665  0.2909  0.4376 -0.2363
30428SOL    HW198334  12.201   5.432   5.582  2.0983  0.1804  0.3766
30428SOL    HW298335  12.091   5.432   5.686  0.0551  0.1325 -1.7042
30429SOL     OW98336   9.862   7.812   6.278  0.1190  0.2326 -0.4066
30429SOL    HW198337   9.843   7.773   6.363  1.2699  0.4284 -0.0354
30429SOL    HW298338   9.886   7.739   6.222 -0.7386  0.0918 -0.6069
30430SOL     OW98339   5.141   9.996   0.026  0.0759 -0.1163  0.3492
30430SOL    HW198340   5.109   9.906   0.027 -0.2160 -0.0203 -0.1166
30430SOL    HW298341   5.074  10.045   0.075  0.2521 -0.1578  0.6331
30431SOL     OW98342   2.586   7.313   0.863  0.2618 -0.3788 -0.9125
30431SOL    HW198343   2.635   7.366   0.926 -1.0557  1.1720 -1.1251
30431SOL    HW298344   2.652   7.261   0.818  1.3902 -0.3872  0.6779
30432SOL     OW98345   8.537   9.115   8.312  0.1770 -0.1745 -0.2675
30432SOL    HW198346   8.514   9.202   8.279 -1.1863 -0.5258 -0.2759
30432SOL    HW298347   8.454   9.074   8.335  0.7992 -1.4495 -0.1685
30433SOL     OW98348   8.679   0.488  10.846 -0.3189 -0.6837  0.3278
30433SOL    HW198349   8.710   0.443  10.924  0.8582 -0.7782 -0.1858
30433SOL    HW298350   8.703   0.431  10.773  0.1845  0.2306 -0.2387
30434SOL     OW98351   3.208   2.993   0.927  0.3431 -0.7107 -0.3124
30434SOL    HW198352   3.233   3.085   0.920  0.1608 -0.4718  1.6016
30434SOL    HW298353   3.289   2.945   0.912  0.8628 -0.1464  0.5911
30435SOL     OW98354  11.904  11.259   9.848 -0.0647  0.0819 -0.8119
30435SOL    HW198355  11.918  11.226   9.760 -1.0019 -0.1239 -0.8980
30435SOL    HW298356  11.843  11.196   9.888  2.6354 -1.5460  1.0442
30436SOL     OW98357  11.703   7.324   1.881  0.2226  0.1809 -0.5714
30436SOL    HW198358  11.706   7.290   1.971 -2.0013  0.5257 -0.3141
30436SOL    HW298359  11.610   7.322   1.858  0.5353  1.8690 -2.1918
30437SOL     OW98360   7.959  10.376   4.844  0.1895 -0.4627  0.4985
30437SOL    HW198361   8.052  10.377   4.866 -0.0502 -2.5450  1.9176
30437SOL    HW298362   7.955  10.339   4.756  0.7292  0.6667 -0.0237
30438SOL     OW98363   3.456   3.157   9.003  0.1545 -0.1398 -0.2273
30438SOL    HW198364   3.375   3.126   8.962 -0.2054  0.1244  0.2746
30438SOL    HW298365   3.426   3.205   9.080  0.8899 -2.1966  1.4249
30439SOL     OW98366   5.532  11.082   9.647 -0.6044 -0.2775 -0.2503
30439SOL    HW198367   5.626  11.098   9.641 -0.1090 -2.4601  0.6434
30439SOL    HW298368   5.495  11.125   9.570  0.9522  1.6340  0.0049
30440SOL     OW98369   7.495  11.070   1.196 -0.2891 -0.2388 -0.1450
30440SOL    HW198370   7.488  11.141   1.260 -0.5690 -1.2012  0.9186
30440SOL    HW298371   7.415  11.077   1.144 -0.0096  0.6145 -0.4781
30441SOL     OW98372   3.348   8.240   3.466  0.4699 -0.2417 -0.0060
30441SOL    HW198373   3.353   8.241   3.371 -3.4599  2.2671 -0.4141
30441SOL    HW298374   3.379   8.327   3.492  0.0078 -0.3269  0.8540
30442SOL     OW98375  10.540   3.887   7.337 -0.2338  0.1555  0.6256
30442SOL    HW198376  10.528   3.797   7.367 -0.5019  0.6393  2.0404
30442SOL    HW298377  10.474   3.899   7.268  0.5509 -1.0539 -0.3989
30443SOL     OW98378   2.139  10.077   4.201  0.2505 -0.0422  0.5848
30443SOL    HW198379   2.141  10.059   4.295  0.4138  0.9985  0.8004
30443SOL    HW298380   2.062  10.031   4.169  0.1229 -0.3072  1.2501
30444SOL     OW98381   8.460   7.168   0.312  0.0627  0.4661  0.2193
30444SOL    HW198382   8.369   7.141   0.317  0.3220 -0.6051 -0.4378
30444SOL    HW298383   8.472   7.194   0.221  0.3267  0.9272  0.3839
30445SOL     OW98384   9.474   2.713   1.770  0.2635  0.2602  0.5017
30445SOL    HW198385   9.486   2.727   1.676  0.5729  0.2190  0.5316
30445SOL    HW298386   9.557   2.742   1.809  0.4424 -0.4574  0.6848
30446SOL     OW98387   6.269   5.550   8.382 -0.2237  0.1280  0.3093
30446SOL    HW198388   6.342   5.547   8.321  0.2389  0.9241  0.8061
30446SOL    HW298389   6.200   5.598   8.335  0.3260  1.2260  0.5962
30447SOL     OW98390   7.364   5.822   2.768 -0.8486  0.1261  0.0751
30447SOL    HW198391   7.300   5.806   2.837 -0.5060 -0.2117  0.3224
30447SOL    HW298392   7.422   5.746   2.771 -1.4158 -0.3825 -1.2559
30448SOL     OW98393   8.508   9.890   4.108  0.0585 -0.0446  0.2997
30448SOL    HW198394   8.429   9.945   4.111  0.8569  1.0841  1.5790
30448SOL    HW298395   8.568   9.931   4.169  1.3491 -1.3785 -0.0228
30449SOL     OW98396   1.252   2.082   3.178 -0.0631 -0.0950 -0.3148
30449SOL    HW198397   1.190   2.138   3.132 -0.8091 -0.3288  0.3837
30449SOL    HW298398   1.329   2.137   3.192 -0.3011  0.3524 -0.7552
30450SOL     OW98399   0.618   1.235   3.790 -0.1117 -0.1349  0.3252
30450SOL    HW198400   0.578   1.321   3.777 -0.2710 -0.2495  0.0486
30450SOL    HW298401   0.708   1.245   3.757  0.1300  0.1529  1.0456
30451SOL     OW98402   0.981  12.417  10.673 -0.2955 -0.1640 -0.5470
30451SOL    HW198403   0.992  12.496  10.621  0.6180  1.3896  1.8595
30451SOL    HW298404   1.069  12.379  10.678 -0.2771 -0.0316  0.2271
30452SOL     OW98405   4.874  11.050   3.172  1.1294  0.1082  0.0688
30452SOL    HW198406   4.861  10.982   3.107  1.0779 -0.8842  1.0925
30452SOL    HW298407   4.966  11.075   3.162  0.6057  1.5587 -1.8489
30453SOL     OW98408  10.079   8.163  12.090  0.0048 -0.0310  0.1799
30453SOL    HW198409  10.023   8.206  12.154  0.3531 -0.5202  0.8227
30453SOL    HW298410  10.101   8.078  12.129  0.5956 -0.1500 -0.3777
30454SOL     OW98411   6.631  11.731   4.077 -0.0601 -0.2108  0.1078
30454SOL    HW198412   6.546  11.698   4.047  1.1157 -2.8977 -0.5215
30454SOL    HW298413   6.631  11.716   4.171 -0.2583 -0.2271  0.1066
30455SOL     OW98414  11.705   4.922   5.736 -0.2666 -0.1298  0.6584
30455SOL    HW198415  11.674   5.010   5.712 -4.7546 -1.5892  0.2551
30455SOL    HW298416  11.722   4.927   5.830 -0.3781  1.1505  0.6335
30456SOL     OW98417   2.861  10.812   9.916  0.4674 -0.0225  0.2522
30456SOL    HW198418   2.848  10.731   9.867  0.0242  1.3349 -2.0164
30456SOL    HW298419   2.933  10.856   9.870 -1.9540  2.7013 -1.2523
30457SOL     OW98420   9.034   4.306  11.093  0.7210  0.3126 -0.0816
30457SOL    HW198421   9.031   4.211  11.078  0.3264  0.6310 -2.2550
30457SOL    HW298422   8.959   4.323  11.150 -0.2406 -0.4778 -1.0662
30458SOL     OW98423   0.917   0.812   3.526 -0.3834 -0.0512  0.0192
30458SOL    HW198424   0.936   0.844   3.438  1.0724  1.8929  0.9788
30458SOL    HW298425   0.844   0.865   3.556 -0.7171 -0.5472  0.1045
30459SOL     OW98426   8.779   2.147  10.798  0.4073 -0.2795  0.2339
30459SOL    HW198427   8.769   2.097  10.879  0.8401 -1.0129 -0.1588
30459SOL    HW298428   8.835   2.093  10.743 -0.5604 -0.1833 -0.8866
30460SOL     OW98429   9.289   4.091   4.498  0.3775  0.0522  0.1775
30460SOL    HW198430   9.199   4.080   4.529  0.8892 -1.9467  1.1392
30460SOL    HW298431   9.282   4.150   4.423 -1.9038 -1.0504 -0.5584
30461SOL     OW98432   6.492   3.436   2.995 -0.0814 -0.4386  1.0761
30461SOL    HW198433   6.467   3.467   3.082 -0.3718  0.8235  0.5652
30461SOL    HW298434   6.582   3.406   3.005  0.2946  0.7912  1.5698
30462SOL     OW98435   9.857   2.463   4.973 -0.2081  0.0760 -0.2431
30462SOL    HW198436   9.847   2.474   5.067  1.5379  0.6242 -0.0838
30462SOL    HW298437   9.952   2.464   4.959 -0.2866 -2.5755 -1.7052
30463SOL     OW98438   3.448   0.181   7.081  0.0995 -0.1596 -0.5925
30463SOL    HW198439   3.405   0.097   7.098  0.3956 -0.3189 -0.6126
30463SOL    HW298440   3.468   0.180   6.988  1.2085 -0.6042 -0.3622
30464SOL     OW98441   8.513   3.983   5.417  0.2032  0.4541  0.3397
30464SOL    HW198442   8.446   3.952   5.479  0.5816 -0.1524  0.4575
30464SOL    HW298443   8.583   3.919   5.424  1.2955  1.6689  1.0457
30465SOL     OW98444   1.844   7.287   9.498 -0.2948  0.5562  0.2260
30465SOL    HW198445   1.919   7.303   9.555 -0.1794 -3.0141  1.3407
30465SOL    HW298446   1.768   7.310   9.551 -0.0959  1.5602  0.0991
30466SOL     OW98447   5.807   8.778  10.667  0.2792 -0.4318  0.4103
30466SOL    HW198448   5.775   8.848  10.725 -0.2229 -0.1831 -0.1634
30466SOL    HW298449   5.822   8.821  10.583 -0.7272 -1.1451 -0.1627
30467SOL     OW98450   7.175   0.611   2.526 -0.1277  0.0719  0.1258
30467SOL    HW198451   7.157   0.530   2.478 -1.6065 -0.2420  1.1061
30467SOL    HW298452   7.204   0.581   2.613  2.6454  0.6227 -0.5178
30468SOL     OW98453  10.909   7.715  11.793 -0.2374  0.3631  0.4595
30468SOL    HW198454  10.884   7.764  11.871  0.6991  1.6874 -0.0408
30468SOL    HW298455  10.920   7.782  11.725 -0.0155 -0.6582 -0.5459
30469SOL     OW98456   2.780   8.854   0.945 -0.3644  0.4943 -0.1556
30469SOL    HW198457   2.728   8.928   0.914 -0.6722  0.1840 -0.4020
30469SOL    HW298458   2.860   8.893   0.979  0.2891  0.8275 -1.9523
30470SOL     OW98459  12.570   7.179   7.237 -0.4661  0.4394 -0.0012
30470SOL    HW198460  12.550   7.272   7.222 -0.5672  0.1501 -2.0220
30470SOL    HW298461  12.509   7.133   7.179 -1.1195 -0.9574  1.7309
30471SOL     OW98462   6.612   8.782  12.042 -0.0877  0.0281  0.5057
30471SOL    HW198463   6.568   8.766  12.126 -1.2665  1.8143  0.2763
30471SOL    HW298464   6.541   8.788  11.978  0.7682 -0.8069 -0.5575
30472SOL     OW98465  10.935  11.595   1.359 -0.4974  0.0286  0.1285
30472SOL    HW198466  11.029  11.579   1.357 -0.6272 -0.8646  1.0129
30472SOL    HW298467  10.913  11.617   1.268  0.0054 -3.0682 -0.8448
30473SOL     OW98468   8.172   9.852   4.316  0.0510  0.0677  0.5906
30473SOL    HW198469   8.145   9.767   4.351 -1.8474  0.4066  0.0756
30473SOL    HW298470   8.173   9.839   4.221  1.2381  0.2236  0.5789
30474SOL     OW98471  10.495   8.632   7.815 -0.0608  0.0373 -0.4323
30474SOL    HW198472  10.428   8.662   7.876 -1.4150 -0.7030 -1.4735
30474SOL    HW298473  10.527   8.712   7.773 -1.1877  0.3382 -0.7688
30475SOL     OW98474   1.612   8.415   2.668  0.2819 -0.0058 -0.2719
30475SOL    HW198475   1.682   8.415   2.602 -0.7242 -1.1045 -1.3839
30475SOL    HW298476   1.594   8.323   2.684 -1.5025  0.2476 -0.6677
30476SOL     OW98477   1.904   9.792  11.355  0.2128 -0.4623 -0.4431
30476SOL    HW198478   1.859   9.750  11.282  0.3183 -1.3658  0.0092
30476SOL    HW298479   1.961   9.858  11.313 -1.8597  1.0804 -0.9944
30477SOL     OW98480   3.870   4.126   6.340 -0.0126  1.1934  0.0091
30477SOL    HW198481   3.920   4.167   6.270  0.1153  1.2629  0.1414
30477SOL    HW298482   3.854   4.197   6.403  2.0789  0.5920  1.3069
30478SOL     OW98483   0.618   6.515   5.121 -0.4114 -0.2968  0.3094
30478SOL    HW198484   0.678   6.519   5.195  0.3594  0.4552 -0.3386
30478SOL    HW298485   0.533   6.497   5.161 -0.0415  0.2538  1.3997
30479SOL     OW98486  10.457   6.959  12.422  0.1034  0.7660 -0.3999
30479SOL    HW198487  10.519   7.009  12.475 -0.8519  0.4277  1.1045
30479SOL    HW298488  10.472   6.989  12.332  2.9074  0.2116 -0.2275
30480SOL     OW98489  11.290   3.346   4.991  0.4803  0.4496  0.5392
30480SOL    HW198490  11.312   3.413   4.927 -0.3540  0.1564 -0.0686
30480SOL    HW298491  11.210   3.306   4.958  1.9229 -2.1380 -0.1524
30481SOL     OW98492   9.620   8.424   1.795 -0.1184  0.0504  0.0071
30481SOL    HW198493   9.535   8.409   1.755 -0.7197  0.8108  0.9375
30481SOL    HW298494   9.683   8.389   1.733 -1.0127  1.0203 -1.5030
30482SOL     OW98495  10.572   6.998   3.974 -0.3454 -0.2429  0.4055
30482SOL    HW198496  10.521   6.923   3.941 -1.0644  1.1182 -1.7764
30482SOL    HW298497  10.512   7.044   4.033 -1.9299  1.5062 -2.3609
30483SOL     OW98498   5.636   3.832   3.694 -0.0570 -0.0306 -0.2808
30483SOL    HW198499   5.605   3.923   3.686 -0.4009 -0.1481 -0.3039
30483SOL    HW298500   5.631   3.797   3.605 -0.8721 -0.3738 -0.1086
30484SOL     OW98501   4.329   7.746   1.234 -0.3867 -0.3137  0.2374
30484SOL    HW198502   4.250   7.716   1.190 -1.3376  2.5065 -0.1823
30484SOL    HW298503   4.393   7.759   1.164 -0.7977  0.9636  0.0863
30485SOL     OW98504   6.819   2.344   4.777  0.4007 -0.4582 -0.2899
30485SOL    HW198505   6.857   2.256   4.776 -0.3398 -0.7875 -1.8221
30485SOL    HW298506   6.841   2.381   4.692  1.2031  1.0917  0.5534
30486SOL     OW98507   4.561   9.093   9.885 -0.1107 -0.3507  0.1286
30486SOL    HW198508   4.520   9.106   9.799  1.3230 -0.4984 -0.6191
30486SOL    HW298509   4.514   9.019   9.923 -1.6394  0.5423  0.0676
30487SOL     OW98510   1.405   7.814  11.228  0.6949 -0.5380  0.4769
30487SOL    HW198511   1.494   7.801  11.196  0.1480  0.1310 -1.4800
30487SOL    HW298512   1.356   7.840  11.150 -1.3321 -1.3920  1.4023
30488SOL     OW98513   4.931   8.759   2.982 -0.3967 -0.2690  0.2203
30488SOL    HW198514   4.849   8.785   2.939 -0.0083 -0.1937 -0.5059
30488SOL    HW298515   4.994   8.826   2.955 -0.0621 -0.4143  0.6373
30489SOL     OW98516   1.806  11.865  10.933 -0.0155  0.0810 -0.5743
30489SOL    HW198517   1.894  11.828  10.927  0.6001  1.2509  0.8185
30489SOL    HW298518   1.754  11.811  10.874  1.4168 -1.2713 -0.6683
30490SOL     OW98519   5.640   2.173  10.192 -0.7807 -0.0872 -0.1479
30490SOL    HW198520   5.720   2.226  10.194 -1.2211  0.7007 -1.6270
30490SOL    HW298521   5.605   2.179  10.281  0.0586  0.7382  0.1410
30491SOL     OW98522  11.413   5.094   3.248 -0.1831  0.4482  0.8562
30491SOL    HW198523  11.349   5.089   3.319 -1.1938  0.6218 -0.0244
30491SOL    HW298524  11.411   5.007   3.207 -1.5020  1.0857 -0.5418
30492SOL     OW98525   7.693   6.334   4.967  0.0038 -0.3513 -0.3314
30492SOL    HW198526   7.658   6.283   5.039  0.5507  0.1975  0.3390
30492SOL    HW298527   7.631   6.406   4.956 -0.3400 -0.7086 -0.7384
30493SOL     OW98528   4.678   5.618   8.817  0.1697 -0.1113 -0.0193
30493SOL    HW198529   4.751   5.678   8.804  0.2552 -0.1715  0.1725
30493SOL    HW298530   4.601   5.667   8.790  0.0515  0.6310  1.5137
30494SOL     OW98531   9.431  12.325   6.555  0.6620 -0.0021 -0.1633
30494SOL    HW198532   9.458  12.361   6.471 -0.4850  0.6149 -0.2735
30494SOL    HW298533   9.432  12.230   6.542 -0.5358  0.1079 -1.2169
30495SOL     OW98534   7.200   6.624  11.342 -0.3407 -0.3993 -0.0835
30495SOL    HW198535   7.273   6.665  11.389  1.2289 -1.6468 -1.3017
30495SOL    HW298536   7.181   6.545  11.393 -0.0246 -0.6774 -0.3851
30496SOL     OW98537  10.442   6.160   6.628 -0.1322 -0.8073  0.3723
30496SOL    HW198538  10.421   6.156   6.534  0.1855  0.8724  0.2002
30496SOL    HW298539  10.532   6.194   6.631 -0.7596  0.8670  1.3005
30497SOL     OW98540   4.510   7.696   1.444 -0.4394  1.1297 -0.1603
30497SOL    HW198541   4.467   7.670   1.526  0.4331 -2.1172 -0.5834
30497SOL    HW298542   4.437   7.712   1.384 -1.1325 -0.3702  0.2126
30498SOL     OW98543   0.763   1.491   3.104 -1.1261  0.5456 -0.1317
30498SOL    HW198544   0.787   1.522   3.016  0.1075 -0.9582 -0.3631
30498SOL    HW298545   0.716   1.409   3.088  0.4031 -0.5352  0.6216
30499SOL     OW98546   7.109   4.318  10.285 -0.2374  0.2815  0.3058
30499SOL    HW198547   7.163   4.239  10.276 -0.6652  0.0551 -0.3313
30499SOL    HW298548   7.165   4.380  10.332  1.6025  0.9598 -2.4926
30500SOL     OW98549  12.058   3.490  10.298 -0.1301 -0.1309 -0.2704
30500SOL    HW198550  11.984   3.460  10.351  0.3259  1.8261  1.6212
30500SOL    HW298551  12.075   3.580  10.329  2.6457 -0.2943 -1.0439
30501SOL     OW98552   6.100   3.706   6.042 -0.1550  0.1321 -0.1595
30501SOL    HW198553   6.112   3.712   6.137  0.9928 -0.3997 -0.2552
30501SOL    HW298554   6.164   3.767   6.005 -1.4709  1.3100 -0.5804
30502SOL     OW98555  12.361   8.228   6.512 -0.4912 -0.0899 -0.7788
30502SOL    HW198556  12.426   8.208   6.580  0.4698 -0.2637 -1.7203
30502SOL    HW298557  12.282   8.251   6.561  0.0635 -0.5715  0.3941
30503SOL     OW98558   6.024   3.175   7.902  0.3978  0.5410  0.3961
30503SOL    HW198559   6.052   3.241   7.965 -0.6823  1.5966 -0.2064
30503SOL    HW298560   6.061   3.204   7.819 -1.6487  1.4535 -0.2326
30504SOL     OW98561   3.274   0.346   0.648 -0.7104  0.3631 -0.0208
30504SOL    HW198562   3.271   0.340   0.743  0.5628  0.1846  0.0261
30504SOL    HW298563   3.291   0.257   0.619 -3.0197  0.0243 -0.5622
30505SOL     OW98564   0.814   0.529   4.696 -0.3702  0.2433 -0.3034
30505SOL    HW198565   0.762   0.457   4.732  0.6276  0.1660  1.0895
30505SOL    HW298566   0.806   0.599   4.761  2.7226 -0.4404  0.9995
30506SOL     OW98567  11.702  10.573  12.489  0.0444 -0.4031 -0.1333
30506SOL    HW198568  11.641  10.614  12.427 -0.3444 -0.5287  0.1630
30506SOL    HW298569  11.788  10.585  12.449 -0.1283  0.1558 -0.3534
30507SOL     OW98570   6.957  10.311   7.425 -0.0507  0.2386 -1.1397
30507SOL    HW198571   7.032  10.252   7.411 -0.8261 -0.6323 -1.7275
30507SOL    HW298572   6.930  10.294   7.515  1.1814  1.4430 -0.4956
30508SOL     OW98573   7.844   9.537   6.716 -0.1165  0.1103  0.2623
30508SOL    HW198574   7.830   9.629   6.694  0.6913  0.4097  0.9677
30508SOL    HW298575   7.917   9.509   6.661 -0.2387 -0.0655  0.1852
30509SOL     OW98576   4.147   5.632   9.302 -0.2074  0.1786 -0.4645
30509SOL    HW198577   4.138   5.696   9.231 -1.0586 -0.6189 -1.1172
30509SOL    HW298578   4.145   5.547   9.257 -0.5162 -0.3318  0.4908
30510SOL     OW98579   0.208   7.455   4.560 -0.1147  0.2555  0.2815
30510SOL    HW198580   0.206   7.381   4.499  1.0471 -0.9828  1.6613
30510SOL    HW298581   0.224   7.415   4.646  0.4664  2.1134  1.0930
30511SOL     OW98582   6.904   5.131   6.148 -0.2932 -0.3504  0.1120
30511SOL    HW198583   6.878   5.177   6.228  0.5988  1.8722 -0.7998
30511SOL    HW298584   6.989   5.091   6.169  0.4076  1.0415  0.0243
30512SOL     OW98585   2.613   1.847   0.192  0.1107 -0.0077  0.4073
30512SOL    HW198586   2.685   1.835   0.131  0.7254  0.6296  0.9978
30512SOL    HW298587   2.598   1.941   0.194 -0.7274 -0.1286  0.3130
30513SOL     OW98588   2.273   3.886   9.997 -0.2157 -0.3064 -0.3817
30513SOL    HW198589   2.197   3.828   9.988 -0.1325 -0.1243 -2.9881
30513SOL    HW298590   2.261   3.927  10.082 -2.2499 -1.3858 -0.0727
30514SOL     OW98591   7.265   3.017  10.756 -0.2768 -0.0729  0.1386
30514SOL    HW198592   7.318   3.095  10.741  0.0099 -0.2062  0.4389
30514SOL    HW298593   7.202   3.043  10.822 -0.2776 -0.0521  0.1291
30515SOL     OW98594  11.016  12.424   3.660 -0.3445  0.5679  0.0839
30515SOL    HW198595  10.921  12.417   3.666 -0.5250  2.4500  0.0127
30515SOL    HW298596  11.045  12.434   3.751 -0.2352  0.3275  0.0769
30516SOL     OW98597  11.939  10.037   3.353 -0.6877 -0.0265  0.4251
30516SOL    HW198598  12.012  10.040   3.291 -2.4708 -0.6459 -1.8472
30516SOL    HW298599  11.981  10.024   3.438  1.8742  0.4551 -0.6502
30517SOL     OW98600   5.001  10.742   4.758 -0.0849  0.6595 -0.4004
30517SOL    HW198601   5.069  10.685   4.722 -0.7363  0.4844 -1.4097
30517SOL    HW298602   5.013  10.738   4.853  1.6699  1.0863 -0.5575
30518SOL     OW98603   3.312  11.061  10.286 -0.1618 -0.4557 -0.1821
30518SOL    HW198604   3.390  11.008  10.305  1.3743  1.9238  0.4843
30518SOL    HW298605   3.312  11.130  10.353 -1.0341  1.4914 -2.0751
30519SOL     OW98606   4.951   2.529   3.673 -0.1837 -0.0328  0.0523
30519SOL    HW198607   5.020   2.501   3.612  1.7392  0.9898  1.6508
30519SOL    HW298608   4.960   2.624   3.678 -0.0197 -0.1121  2.1785
30520SOL     OW98609  10.685   6.737   3.332 -0.3811 -0.6245 -0.1684
30520SOL    HW198610  10.601   6.766   3.367 -0.3330 -0.6789 -0.0055
30520SOL    HW298611  10.664   6.667   3.270 -0.5744  0.3378 -1.2295
30521SOL     OW98612   3.765   0.229   4.247 -0.1001 -0.0731  0.1862
30521SOL    HW198613   3.770   0.133   4.247 -0.5237 -0.0985 -0.1384
30521SOL    HW298614   3.683   0.248   4.202  0.9642  0.4903 -1.6378
30522SOL     OW98615   1.381   2.968   1.632  0.2120  0.4822 -0.1243
30522SOL    HW198616   1.406   2.899   1.570  0.5900  1.3251 -0.9310
30522SOL    HW298617   1.310   3.015   1.588 -0.4039  0.2810  0.6515
30523SOL     OW98618   0.563   0.465  10.708 -0.2051  0.4993 -0.1208
30523SOL    HW198619   0.546   0.382  10.754  0.5534  0.4650  0.1216
30523SOL    HW298620   0.479   0.510  10.708 -0.2569  0.4674  1.2646
30524SOL     OW98621   5.028   0.842   9.191  0.2281 -0.1008 -0.4878
30524SOL    HW198622   4.943   0.806   9.215  0.4053 -0.0669  0.2039
30524SOL    HW298623   5.072   0.771   9.144 -1.1774  0.7201 -3.2531
30525SOL     OW98624  11.314   3.601   9.135 -0.6571 -0.7220 -0.5038
30525SOL    HW198625  11.284   3.681   9.093 -1.8749 -0.6074  0.5380
30525SOL    HW298626  11.346   3.629   9.221  1.5414 -0.9942 -1.1465
30526SOL     OW98627   3.142   0.216   9.911  0.3001  0.2701  0.5024
30526SOL    HW198628   3.135   0.311   9.912  0.0072  0.2497  0.4948
30526SOL    HW298629   3.235   0.199   9.926  0.4125  0.5642  0.1666
30527SOL     OW98630   4.916   0.517  10.449 -0.9961 -0.6947  0.2760
30527SOL    HW198631   4.933   0.480  10.535 -0.0700 -0.3124  0.2633
30527SOL    HW298632   4.929   0.443  10.389 -1.0915 -0.8232  0.4118
30528SOL     OW98633   0.463   0.873   2.907 -0.3305  0.3612  0.4184
30528SOL    HW198634   0.506   0.806   2.853 -0.7400  0.3502  0.0998
30528SOL    HW298635   0.523   0.947   2.904 -0.2922  0.3192  0.0435
30529SOL     OW98636   2.014   1.126   1.404 -0.0243  0.2249 -0.5149
30529SOL    HW198637   2.035   1.080   1.486 -0.7943 -0.4025 -0.6622
30529SOL    HW298638   2.085   1.102   1.345 -0.0086 -0.1500 -0.3477
30530SOL     OW98639  11.736   9.301  10.654  0.4971 -0.6014  0.0616
30530SOL    HW198640  11.819   9.253  10.649  0.3568 -0.9541  0.8542
30530SOL    HW298641  11.708   9.289  10.745  1.1616  2.1419  0.7285
30531SOL     OW98642   8.222   7.678   3.766  0.3501  0.0188 -0.4892
30531SOL    HW198643   8.179   7.731   3.700 -0.1961  2.2356  1.5305
30531SOL    HW298644   8.313   7.707   3.765 -0.1752  1.9153  1.3713
30532SOL     OW98645   5.957   9.825  11.731 -0.4275 -0.2958 -0.2971
30532SOL    HW198646   6.028   9.873  11.774 -1.4317 -0.2571  1.3520
30532SOL    HW298647   5.996   9.740  11.710  1.4090  1.1138 -3.3389
30533SOL     OW98648   0.604  11.734   9.314  0.3260  0.0891  0.2728
30533SOL    HW198649   0.555  11.667   9.265 -0.9481  0.7588  0.5844
30533SOL    HW298650   0.691  11.696   9.325 -0.2830 -1.4103  0.2158
30534SOL     OW98651   2.555   8.630  10.708  0.0071  0.6744  0.2735
30534SOL    HW198652   2.527   8.719  10.729 -0.4332  0.5766  0.1136
30534SOL    HW298653   2.650   8.632  10.720 -0.0790  0.9577  1.0268
30535SOL     OW98654   3.416   9.815  10.103 -0.4785 -0.1590  0.0937
30535SOL    HW198655   3.399   9.795  10.010  0.4888 -0.0548 -0.1162
30535SOL    HW298656   3.337   9.860  10.132 -0.4380  0.6172 -0.9339
30536SOL     OW98657   6.443   0.765   7.078  0.5434  0.4094  0.0719
30536SOL    HW198658   6.493   0.690   7.045 -2.2671 -1.3501 -0.5023
30536SOL    HW298659   6.407   0.736   7.162 -1.0233  0.8847 -0.4027
30537SOL     OW98660   0.031   5.361   7.974 -0.2360  0.2925 -0.1842
30537SOL    HW198661  -0.013   5.286   7.933 -2.3641  1.9780 -1.1470
30537SOL    HW298662   0.113   5.370   7.926 -0.2162 -1.0356 -0.4369
30538SOL     OW98663   6.215   9.596  10.000  0.2441 -0.1799  0.8717
30538SOL    HW198664   6.167   9.678  10.012 -0.2766 -0.7160  2.8612
30538SOL    HW298665   6.239   9.595   9.907 -2.0527  0.9477  0.1967
30539SOL     OW98666   0.982   8.835   9.633  0.1458 -0.6214 -0.3409
30539SOL    HW198667   0.887   8.847   9.635  0.2921  0.6169  1.2299
30539SOL    HW298668   1.005   8.850   9.541 -1.2015 -1.2517 -0.8063
30540SOL     OW98669   7.373  11.973   1.096  0.0062  0.0202  0.4254
30540SOL    HW198670   7.326  12.019   1.166 -0.0147 -2.0692  1.8659
30540SOL    HW298671   7.304  11.931   1.044  0.0753  0.7797 -0.3002
30541SOL     OW98672   0.332   3.599   7.713 -0.0980  0.0640 -0.5584
30541SOL    HW198673   0.401   3.662   7.736 -0.3728  0.7102 -1.4689
30541SOL    HW298674   0.262   3.617   7.775  1.0513 -1.5433  1.3219
30542SOL     OW98675   0.053   3.700  11.864  0.0223 -0.0342 -0.0369
30542SOL    HW198676  -0.025   3.661  11.902  0.3252  0.1443  0.7908
30542SOL    HW298677   0.125   3.642  11.893  0.0909 -0.9036 -1.7874
30543SOL     OW98678  12.318   4.525   9.397  0.4266 -0.5583  0.0708
30543SOL    HW198679  12.272   4.608   9.383  0.6061 -0.4661  0.0174
30543SOL    HW298680  12.293   4.471   9.323  0.6435 -0.4016 -0.1157
30544SOL     OW98681   9.945   3.622   5.414 -0.1377  0.0364 -0.1832
30544SOL    HW198682   9.977   3.549   5.467 -0.2898 -0.4018 -0.6914
30544SOL    HW298683   9.853   3.600   5.397 -0.4243  0.7492  0.3476
30545SOL     OW98684  12.199   6.583   2.875  0.1570  0.7207  0.4413
30545SOL    HW198685  12.173   6.671   2.848  0.1188  0.6045  0.0961
30545SOL    HW298686  12.227   6.593   2.966 -0.2762  1.0042  0.5459
30546SOL     OW98687   3.976  10.565   0.440  0.5139 -0.1319 -0.1400
30546SOL    HW198688   4.003  10.612   0.361  1.2508  0.3242  0.3751
30546SOL    HW298689   4.054  10.516   0.466  0.1505 -0.5963  0.0871
30547SOL     OW98690   5.964   9.913  10.452 -0.0048  0.0208 -0.4537
30547SOL    HW198691   6.039   9.940  10.399  0.1728 -2.5906 -1.6984
30547SOL    HW298692   5.990   9.828  10.489 -1.5674  0.0387  0.8167
30548SOL     OW98693   2.405   5.980   4.271  0.7610  0.0395  0.0250
30548SOL    HW198694   2.407   5.993   4.176  1.0904 -1.2323 -0.1621
30548SOL    HW298695   2.387   5.887   4.282 -2.1051  0.6331  1.2622
30549SOL     OW98696   4.196   7.931   3.656 -0.1673  0.9073  0.5315
30549SOL    HW198697   4.285   7.895   3.656 -0.4611  0.1587  0.5138
30549SOL    HW298698   4.197   7.996   3.726  0.5176  1.2206  0.2358
30550SOL     OW98699   7.519   9.041  11.863 -0.5907  0.0237  0.0493
30550SOL    HW198700   7.598   8.994  11.837 -1.2356 -0.8686 -0.3272
30550SOL    HW298701   7.524   9.124  11.814 -0.3194 -0.3950 -0.6474
30551SOL     OW98702   1.108   0.751   3.697 -0.5031  0.3820 -0.6230
30551SOL    HW198703   1.050   0.774   3.624  0.5337  0.7621 -1.3535
30551SOL    HW298704   1.180   0.814   3.691  0.3557 -0.5343 -0.1784
30552SOL     OW98705   7.925   2.797   3.070  0.0963  0.0264 -0.1939
30552SOL    HW198706   7.920   2.850   2.990 -3.3945  0.3704  0.0805
30552SOL    HW298707   7.924   2.861   3.141 -1.2703 -0.2989  0.1098
30553SOL     OW98708  11.347   0.302   4.781 -0.7967  0.5724 -0.3506
30553SOL    HW198709  11.302   0.369   4.730 -1.1797 -0.2775 -1.1447
30553SOL    HW298710  11.434   0.297   4.741 -0.1251  1.8277  0.8397
30554SOL     OW98711   2.972   5.742   9.308 -0.1075 -0.3662 -0.0219
30554SOL    HW198712   2.891   5.751   9.359 -0.5713 -1.2067 -0.5813
30554SOL    HW298713   2.947   5.689   9.233  0.8511 -0.1774 -0.4931
30555SOL     OW98714   5.483   5.121   9.240 -0.1315  0.1061 -0.0535
30555SOL    HW198715   5.547   5.097   9.173 -2.3484 -0.1493 -2.2255
30555SOL    HW298716   5.399   5.097   9.201 -1.6757  1.8738  2.0205
30556SOL     OW98717   9.194   9.226   6.249  0.4401  0.2778  0.4639
30556SOL    HW198718   9.264   9.162   6.234 -0.7625 -0.6397 -1.6452
30556SOL    HW298719   9.114   9.174   6.249 -0.5765  1.7359 -1.2626
30557SOL     OW98720  10.145   9.739   1.626 -0.0649  0.2590  0.2033
30557SOL    HW198721  10.165   9.738   1.533 -1.3877  0.6189 -0.1100
30557SOL    HW298722  10.209   9.679   1.665  0.9139  0.5989 -0.8312
30558SOL     OW98723   9.760   3.643  10.906  0.1083  0.1985 -0.7344
30558SOL    HW198724   9.793   3.729  10.930 -0.9940  0.3367  0.3997
30558SOL    HW298725   9.684   3.630  10.963  0.8021 -1.9146 -0.2146
30559SOL     OW98726   2.058   8.547  12.162  0.3549 -0.3272  0.1127
30559SOL    HW198727   2.068   8.469  12.107  1.1453 -0.2312  0.1150
30559SOL    HW298728   2.114   8.612  12.121  1.5871 -0.4939  1.4779
30560SOL     OW98729  10.455   2.779   7.677 -0.3658  0.0329  0.2438
30560SOL    HW198730  10.503   2.814   7.601  1.0229  0.6088  1.3326
30560SOL    HW298731  10.472   2.684   7.674 -0.7160 -0.0113 -0.4242
30561SOL     OW98732   5.935   9.235   2.957  0.2011  0.1892  0.0006
30561SOL    HW198733   5.921   9.142   2.974  1.9814 -0.1357 -0.0733
30561SOL    HW298734   6.029   9.242   2.942  0.1481  2.0565  0.3154
30562SOL     OW98735   0.196  12.154   9.339  0.2898 -0.4116 -0.4429
30562SOL    HW198736   0.207  12.095   9.265  0.7456 -1.1926  0.2268
30562SOL    HW298737   0.246  12.233   9.315  0.7290 -0.7954 -0.8098
30563SOL     OW98738   6.129   1.679  12.233 -0.1408  0.6057  0.2665
30563SOL    HW198739   6.171   1.673  12.147  1.4360  0.9033  0.9674
30563SOL    HW298740   6.150   1.596  12.276 -1.9968 -0.0705 -0.0583
30564SOL     OW98741   4.660   0.019   2.029 -0.6402  0.7033 -0.3592
30564SOL    HW198742   4.716   0.044   2.102 -0.9698  1.4111 -0.3440
30564SOL    HW298743   4.642  -0.074   2.043 -0.9864  0.9121  0.6570
30565SOL     OW98744   8.545  11.791   6.104  0.6426  0.2756  0.3771
30565SOL    HW198745   8.523  11.829   6.189 -0.4430  0.1214  0.1793
30565SOL    HW298746   8.549  11.697   6.122 -0.3119  0.1716  0.1310
30566SOL     OW98747   6.836   1.190   4.363  0.3423  0.2600 -0.4825
30566SOL    HW198748   6.802   1.103   4.342  2.3931 -0.3765 -1.3788
30566SOL    HW298749   6.923   1.174   4.400  0.7840  1.9358 -0.6997
30567SOL     OW98750   2.948   0.110   7.909  0.1755 -0.5680 -0.2245
30567SOL    HW198751   2.879   0.045   7.903 -0.2662 -0.2130  0.7558
30567SOL    HW298752   2.902   0.193   7.917  0.6886 -0.3793  1.0091
30568SOL     OW98753   7.005  12.442   1.044 -0.2730 -0.1428 -0.0313
30568SOL    HW198754   6.963  12.409   0.964  0.0021 -0.7932  0.0843
30568SOL    HW298755   7.096  12.413   1.037 -0.3458 -0.5777  0.7149
30569SOL     OW98756  10.146   3.257  10.811 -0.1081 -0.1175 -0.0119
30569SOL    HW198757  10.145   3.272  10.717  1.7206 -0.1108 -0.0564
30569SOL    HW298758  10.063   3.213  10.829 -1.5539  1.9060 -1.2501
30570SOL     OW98759   7.165   5.275   8.500  0.0747 -0.1512 -0.3752
30570SOL    HW198760   7.139   5.183   8.502  0.1775 -0.1789 -0.3043
30570SOL    HW298761   7.083   5.323   8.498  0.0261 -0.2692 -1.4196
30571SOL     OW98762   0.157  12.407   0.419  0.3861 -0.1178  0.0430
30571SOL    HW198763   0.072  12.446   0.439  0.8515  0.8158  0.2124
30571SOL    HW298764   0.144  12.363   0.335 -0.4261 -0.5161  0.3621
30572SOL     OW98765   5.934   5.992   8.310  0.0167  0.0364 -0.4938
30572SOL    HW198766   5.892   5.942   8.240 -1.6059  1.7409 -0.8152
30572SOL    HW298767   6.008   5.938   8.337 -0.9765 -1.9702 -1.5861
30573SOL     OW98768   7.294  10.025   8.310  0.2336  0.3091  0.2083
30573SOL    HW198769   7.205  10.050   8.283  1.0370  1.3980 -1.5787
30573SOL    HW298770   7.351  10.062   8.243  2.1481  0.5160  1.8610
30574SOL     OW98771  10.969  12.023  11.136  0.1984  0.0646  0.1802
30574SOL    HW198772  11.042  12.086  11.138  0.2732 -0.0291  1.5206
30574SOL    HW298773  10.894  12.074  11.165 -0.9001  0.8279 -3.5154
30575SOL     OW98774   9.371   4.426   1.294  0.2444 -0.0977  0.3160
30575SOL    HW198775   9.367   4.521   1.301  1.1559 -0.0261 -0.0231
30575SOL    HW298776   9.339   4.408   1.205 -0.7314 -0.1832  0.6694
30576SOL     OW98777   3.687   1.032   0.215  0.1002  0.3035 -0.0100
30576SOL    HW198778   3.744   1.051   0.290  0.6031  1.8494 -0.7472
30576SOL    HW298779   3.742   1.048   0.139 -1.0419  0.8921 -0.7316
30577SOL     OW98780   7.521  10.123   1.101  0.5650  0.0460 -0.2677
30577SOL    HW198781   7.522  10.218   1.114 -1.8877  0.3138 -1.5085
30577SOL    HW298782   7.428  10.099   1.102  1.1019 -2.3105 -0.3647
30578SOL     OW98783  12.199   0.464  10.443 -0.1332  0.4445  0.0785
30578SOL    HW198784  12.157   0.547  10.467  0.6738  1.2725 -1.2713
30578SOL    HW298785  12.165   0.445  10.355  0.1153 -0.3736  0.1518
30579SOL     OW98786   2.983   7.992   3.824  0.0967  0.0820  0.2703
30579SOL    HW198787   3.043   7.970   3.896  1.9002  0.8206 -0.9344
30579SOL    HW298788   2.984   7.914   3.769 -1.2177 -0.4501  0.9536
30580SOL     OW98789   6.956   1.921  10.421 -0.1326  0.2150  0.0583
30580SOL    HW198790   6.988   1.856  10.484 -0.6143 -1.1516 -1.0428
30580SOL    HW298791   6.877   1.957  10.462 -0.1933 -0.3266  0.4342
30581SOL     OW98792   0.476   8.558   5.648  0.1984  0.3967 -0.1411
30581SOL    HW198793   0.440   8.585   5.733 -0.1736  0.3583 -0.2837
30581SOL    HW298794   0.569   8.579   5.654  0.7579 -2.0518  1.2928
30582SOL     OW98795   8.589   0.811   3.588 -0.2504 -0.1297  0.2611
30582SOL    HW198796   8.651   0.849   3.526 -1.2994 -0.2332 -0.9101
30582SOL    HW298797   8.529   0.760   3.533 -1.4922  0.1440  1.3143
30583SOL     OW98798   7.850   6.356   5.558  0.1957 -0.1840 -0.0036
30583SOL    HW198799   7.802   6.417   5.613  0.2346  0.8860 -1.1062
30583SOL    HW298800   7.806   6.272   5.570 -3.3219  1.0653 -2.4392
30584SOL     OW98801   0.473   0.900   5.014 -0.0145  0.1265  0.8173
30584SOL    HW198802   0.501   0.813   5.043 -0.1008  0.3753  1.6651
30584SOL    HW298803   0.501   0.904   4.922 -1.4429 -1.4152  0.2566
30585SOL     OW98804   5.085   8.745   1.838 -0.2828 -0.1664  0.0393
30585SOL    HW198805   5.180   8.748   1.823 -0.1606  1.1922  0.9776
30585SOL    HW298806   5.077   8.717   1.929 -0.9197 -4.0313 -1.0280
30586SOL     OW98807   0.226   9.526  10.688 -0.0565  0.2202  0.2115
30586SOL    HW198808   0.207   9.585  10.614  1.5154  2.7034  1.6212
30586SOL    HW298809   0.201   9.577  10.765 -1.9673 -2.4360  1.4775
30587SOL     OW98810  12.297   1.948   5.774 -0.1808 -0.0810  0.1416
30587SOL    HW198811  12.340   1.953   5.689 -3.3997  1.4662 -1.5424
30587SOL    HW298812  12.344   1.877   5.820  2.5974 -0.0002 -2.2635
30588SOL     OW98813  10.371   3.296   0.684 -0.0086  0.0422  0.3201
30588SOL    HW198814  10.403   3.385   0.700  0.3006 -0.1143  0.5650
30588SOL    HW298815  10.301   3.284   0.747 -1.2124  0.7264 -0.8265
30589SOL     OW98816   1.228   2.020   6.975  0.2049  0.1991 -0.6221
30589SOL    HW198817   1.294   2.084   7.003 -0.2346 -0.2691  1.6145
30589SOL    HW298818   1.155   2.074   6.943  1.3075  0.7236 -2.4624
30590SOL     OW98819  11.084   4.083   8.611 -0.1827  0.0928  0.3067
30590SOL    HW198820  11.012   4.135   8.647 -0.6048 -0.3617  0.1364
30590SOL    HW298821  11.042   4.025   8.547 -0.2317 -2.4436  2.4619
30591SOL     OW98822   5.477   0.303   0.579  0.0611  0.1892  0.3307
30591SOL    HW198823   5.404   0.273   0.525  0.2353  2.5115 -1.3613
30591SOL    HW298824   5.436   0.360   0.644  0.0425 -1.2841  1.6593
30592SOL     OW98825   5.934   8.507   5.351  0.1047 -0.1504 -0.4115
30592SOL    HW198826   5.855   8.519   5.405 -0.1913  1.1468 -1.0848
30592SOL    HW298827   5.902   8.511   5.261  0.9989  1.1744 -0.7086
30593SOL     OW98828   5.460   7.718  12.329  0.6099  0.1046 -0.0085
30593SOL    HW198829   5.383   7.773  12.344  0.9536  0.8039 -0.7381
30593SOL    HW298830   5.496   7.703  12.416 -1.6169 -2.1692  0.6493
30594SOL     OW98831  11.779  12.329  12.352 -0.1871  0.0178 -0.3856
30594SOL    HW198832  11.741  12.267  12.289  0.9184 -0.5896 -0.4838
30594SOL    HW298833  11.850  12.372  12.304 -0.3995  0.7484 -0.0520
30595SOL     OW98834   8.546   5.604  11.338 -0.3528 -0.3935 -0.1238
30595SOL    HW198835   8.633   5.581  11.308  0.4139 -0.2544  1.8572
30595SOL    HW298836   8.509   5.522  11.371 -1.2327 -0.5752 -1.4753
30596SOL     OW98837   1.771   2.782  11.674  0.3946 -0.1261  0.2478
30596SOL    HW198838   1.863   2.802  11.655 -0.1032  1.9284 -0.2954
30596SOL    HW298839   1.747   2.716  11.609  1.4099 -0.5000  0.2313
30597SOL     OW98840   3.877  11.183  12.343 -0.6666  0.5501  0.8992
30597SOL    HW198841   3.923  11.250  12.394  1.3659 -0.4163  0.4406
30597SOL    HW298842   3.856  11.115  12.407  0.6727 -0.0505  0.7299
30598SOL     OW98843   0.822  11.602   1.992 -0.3181  0.2837 -0.4959
30598SOL    HW198844   0.871  11.683   2.005 -1.3221  1.0692 -1.3896
30598SOL    HW298845   0.848  11.546   2.065 -1.4631  2.3262  1.6395
30599SOL     OW98846   1.885  12.206   8.331  0.3134  0.0572  0.1044
30599SOL    HW198847   1.820  12.175   8.268 -0.7887 -0.1853  1.3099
30599SOL    HW298848   1.839  12.271   8.384  0.3620 -1.5877  2.3178
30600SOL     OW98849   2.700   4.122   5.784 -0.0266 -0.0890  0.1911
30600SOL    HW198850   2.691   4.116   5.689  0.0866  2.7047 -0.0746
30600SOL    HW298851   2.777   4.068   5.804  0.0470 -0.5996 -1.3186
30601SOL     OW98852   7.705   9.233   1.510 -0.0235  0.1090  0.1879
30601SOL    HW198853   7.692   9.161   1.448 -2.6188  0.3978  0.2888
30601SOL    HW298854   7.693   9.312   1.458 -2.6021  0.3529  1.0241
30602SOL     OW98855   9.575   6.283  12.091  1.1237 -0.6065 -0.2121
30602SOL    HW198856   9.520   6.327  12.156  0.5189 -1.9840  0.2350
30602SOL    HW298857   9.612   6.354  12.039 -0.4512  0.3869 -0.0284
30603SOL     OW98858   6.202   2.211   1.606 -0.5179  0.2608  0.4459
30603SOL    HW198859   6.277   2.223   1.547  0.2415 -1.1063  1.0837
30603SOL    HW298860   6.238   2.166   1.682 -1.4544  2.0996  2.0490
30604SOL     OW98861   8.319   2.213   1.208  0.5494  0.3183 -0.3322
30604SOL    HW198862   8.402   2.258   1.190  0.4433  0.2698 -0.9478
30604SOL    HW298863   8.300   2.164   1.128 -0.0547  0.2931 -0.1792
30605SOL     OW98864   9.103   5.819   4.980 -0.1571 -0.3536  0.3022
30605SOL    HW198865   9.191   5.781   4.976  0.9862  2.0899  0.7322
30605SOL    HW298866   9.087   5.831   5.073 -1.3801 -1.6279  0.2826
30606SOL     OW98867   8.405  12.318  10.216 -0.3542  0.5363  0.1004
30606SOL    HW198868   8.367  12.318  10.304  1.2765  3.0481  0.9036
30606SOL    HW298869   8.480  12.258  10.223  0.7408  1.9473  0.9498
30607SOL     OW98870   8.683   1.604   5.520 -0.2386  0.2060 -0.2506
30607SOL    HW198871   8.647   1.542   5.583 -0.8868  0.1750 -0.6454
30607SOL    HW298872   8.704   1.682   5.573  1.3817 -0.6220  0.3989
30608SOL     OW98873  11.862   2.385   2.920 -0.6716  0.2612  0.2894
30608SOL    HW198874  11.891   2.323   2.986 -1.1121 -1.3001 -0.9278
30608SOL    HW298875  11.769   2.367   2.909 -0.6538  0.6328 -0.6030
30609SOL     OW98876   2.075  11.619   7.335  0.6345  0.6666  0.3806
30609SOL    HW198877   2.155  11.672   7.330  0.1433  1.6344  1.9877
30609SOL    HW298878   2.004  11.682   7.325  0.0486  0.0889  0.8593
30610SOL     OW98879  11.666   9.605  12.512  0.4142  0.3000  0.0569
30610SOL    HW198880  11.572   9.623  12.517 -0.1802 -2.4228 -0.0001
30610SOL    HW298881  11.705   9.667  12.574 -1.5376  0.6056  1.0562
30611SOL     OW98882   0.924   5.025   0.779  0.2802 -0.1020  0.3178
30611SOL    HW198883   0.974   5.104   0.756 -0.0431 -0.0164 -0.0955
30611SOL    HW298884   0.851   5.024   0.718  0.3438 -0.7910  0.2406
30612SOL     OW98885   1.387   3.109   4.705 -0.0221  0.3029 -0.2266
30612SOL    HW198886   1.459   3.083   4.763 -0.2841 -2.5181 -1.0349
30612SOL    HW298887   1.308   3.077   4.748 -0.3411 -0.6248 -1.4544
30613SOL     OW98888   9.617   3.530   3.150  0.1296 -0.1946 -0.6836
30613SOL    HW198889   9.568   3.453   3.179 -0.9978  0.3501 -1.0552
30613SOL    HW298890   9.572   3.558   3.069  1.1039  0.2962 -1.0754
30614SOL     OW98891   9.659  12.420   2.872  0.4295  0.3602 -0.9977
30614SOL    HW198892   9.754  12.412   2.860  0.7892  3.1954 -0.6861
30614SOL    HW298893   9.638  12.354   2.938  2.0703 -0.6677 -1.4301
30615SOL     OW98894  12.595  10.687  10.391 -0.4386  0.0443 -0.2279
30615SOL    HW198895  12.565  10.647  10.310 -0.2453 -1.1135  0.2544
30615SOL    HW298896  12.663  10.628  10.424  0.8598  1.5064 -0.1892
30616SOL     OW98897   6.476   1.557  12.406  0.1797  0.0688 -0.0753
30616SOL    HW198898   6.424   1.608  12.469 -0.4332 -0.8996  0.2287
30616SOL    HW298899   6.412   1.502  12.362  0.4765  1.3167 -2.1728
30617SOL     OW98900   8.954   7.370  12.295 -0.0354 -0.0772  0.1219
30617SOL    HW198901   8.952   7.453  12.248 -1.7806 -0.9587 -1.5342
30617SOL    HW298902   8.918   7.307  12.233 -2.2154 -1.3860  2.5133
30618SOL     OW98903   6.416   1.957   0.098  0.0193 -0.2297  0.1615
30618SOL    HW198904   6.507   1.936   0.119  0.5779  0.5211 -1.3492
30618SOL    HW298905   6.385   2.008   0.172  0.9009 -0.2908  0.5873
30619SOL     OW98906   7.676   0.215   6.761  0.4393 -0.0362 -0.0667
30619SOL    HW198907   7.727   0.136   6.781 -0.4038 -0.4058  0.6853
30619SOL    HW298908   7.667   0.260   6.845  1.9811  1.5471 -0.6929
30620SOL     OW98909   0.580   8.156   7.941  0.1809  0.0483 -0.1328
30620SOL    HW198910   0.640   8.083   7.955 -0.0342 -0.0709  0.1619
30620SOL    HW298911   0.637   8.233   7.941  0.8169 -0.2932 -3.1472
30621SOL     OW98912   7.547  11.989   8.866 -0.6555 -0.1914 -0.0706
30621SOL    HW198913   7.631  12.005   8.908 -1.0193  1.5624  0.0350
30621SOL    HW298914   7.485  11.983   8.938 -0.9210  0.4486 -0.2467
30622SOL     OW98915   2.100  10.281  12.542  0.1146  0.4971 -0.2593
30622SOL    HW198916   2.165  10.211  12.544 -2.2668 -1.8600  1.7409
30622SOL    HW298917   2.031  10.249  12.485 -1.5141  0.6490  1.5241
30623SOL     OW98918   6.164   6.336   2.287  0.4960 -0.1226 -0.1596
30623SOL    HW198919   6.182   6.258   2.340 -0.0291  0.5332  1.0026
30623SOL    HW298920   6.247   6.354   2.242  1.5779  0.4459  1.9458
30624SOL     OW98921  11.215   7.577  12.256  0.1198 -0.8226  0.6303
30624SOL    HW198922  11.129   7.579  12.298 -1.2261  2.4821 -1.7964
30624SOL    HW298923  11.269   7.637  12.308  0.6052 -1.9045  1.4069
30625SOL     OW98924   1.800  10.319   6.925  0.2401 -0.5960 -0.2930
30625SOL    HW198925   1.726  10.378   6.912  1.3386  0.9416  0.1568
30625SOL    HW298926   1.775  10.238   6.881 -2.0202 -0.3832  0.4956
30626SOL     OW98927  10.767   4.720  11.974 -0.5742  0.0736 -0.9096
30626SOL    HW198928  10.743   4.630  11.998 -1.0002  0.5178  0.3922
30626SOL    HW298929  10.861   4.725  11.987 -0.5226 -0.2218 -1.1480
30627SOL     OW98930  11.235  11.994   5.671  0.4846 -0.1894 -0.5529
30627SOL    HW198931  11.324  11.971   5.645  0.2626 -0.2372 -1.2878
30627SOL    HW298932  11.244  12.027   5.760  1.0862 -1.2395 -0.2062
30628SOL     OW98933   4.401   5.872   2.454 -0.7132  0.2382  0.2306
30628SOL    HW198934   4.377   5.783   2.480 -1.8700  0.9070  1.5951
30628SOL    HW298935   4.318   5.920   2.454 -0.0984  1.3281 -0.4430
30629SOL     OW98936  11.417   0.716   9.378  0.0300  0.2699 -0.0734
30629SOL    HW198937  11.344   0.677   9.426 -0.0386 -0.2143 -0.5678
30629SOL    HW298938  11.405   0.811   9.390 -1.1537  0.2334 -0.8463
30630SOL     OW98939   3.173   4.204   2.758  0.4542 -0.2945 -0.0100
30630SOL    HW198940   3.246   4.236   2.705  1.4865 -2.1514  0.2201
30630SOL    HW298941   3.168   4.265   2.831  0.1683  1.2588 -1.2500
30631SOL     OW98942   2.490  10.643   1.555  0.3373  0.8946  0.6956
30631SOL    HW198943   2.411  10.604   1.518  1.0811 -0.5287  0.5358
30631SOL    HW298944   2.468  10.735   1.567 -1.7625  0.3135  1.7957
30632SOL     OW98945   0.757   1.951  10.296  0.3167 -0.5871 -0.1198
30632SOL    HW198946   0.843   1.964  10.335  0.3114 -1.1859  0.1095
30632SOL    HW298947   0.773   1.890  10.224  0.1311 -0.4628 -0.2663
30633SOL     OW98948  10.660   9.933  12.588  0.1458 -0.1008  0.6007
30633SOL    HW198949  10.755   9.920  12.592  0.0196 -0.8950  1.4577
30633SOL    HW298950  10.631   9.879  12.514  0.1317 -1.5762  1.6321
30634SOL     OW98951  10.263   9.719  10.644  0.2721 -0.3250 -0.5136
30634SOL    HW198952  10.255   9.635  10.690 -0.1908  0.0575  0.1274
30634SOL    HW298953  10.268   9.784  10.714  0.8360  0.1725 -1.0012
30635SOL     OW98954   7.139  11.397  11.858 -0.1638  1.3024 -0.2854
30635SOL    HW198955   7.181  11.482  11.859 -1.1763  1.8555 -1.5725
30635SOL    HW298956   7.092  11.394  11.775 -0.1765 -0.5039 -0.2673
30636SOL     OW98957  11.380   9.962   2.187  0.0719  0.3498 -0.1648
30636SOL    HW198958  11.317  10.026   2.220  0.4466  0.7805 -0.2906
30636SOL    HW298959  11.366   9.884   2.242 -0.3979  0.5281 -0.0311
30637SOL     OW98960  11.199   9.106  11.917 -0.2932 -0.2429  0.6250
30637SOL    HW198961  11.110   9.132  11.943  0.6703  1.9688  1.9660
30637SOL    HW298962  11.227   9.045  11.985 -0.3960 -0.0918  0.8034
30638SOL     OW98963   9.731   2.123  10.823 -0.3753  0.3827  0.4561
30638SOL    HW198964   9.656   2.148  10.877  0.3902  0.8998  1.3159
30638SOL    HW298965   9.763   2.205  10.786 -2.0090 -0.1188 -2.4039
30639SOL     OW98966  10.499   2.959   3.903  0.1770  0.1274  0.5077
30639SOL    HW198967  10.526   2.868   3.891  2.5708  0.7574  0.5096
30639SOL    HW298968  10.523   3.003   3.821  2.1756  1.3638  1.6721
30640SOL     OW98969   0.289  12.431   3.620 -0.3964 -0.6449  0.6168
30640SOL    HW198970   0.204  12.476   3.621 -0.1788 -0.2006  0.0708
30640SOL    HW298971   0.321  12.440   3.710 -0.3712  0.2922  0.5311
30641SOL     OW98972  11.554   6.255   1.746 -0.4905 -0.0397 -0.7496
30641SOL    HW198973  11.628   6.292   1.698  0.5041  0.5683  1.1163
30641SOL    HW298974  11.566   6.161   1.740  0.0595  0.0426 -1.0542
30642SOL     OW98975   8.491  11.011   2.570  0.0830 -0.1151  0.1563
30642SOL    HW198976   8.560  10.949   2.594  1.4133  1.5437  0.7379
30642SOL    HW298977   8.536  11.085   2.530 -0.9184  2.4339  3.3088
30643SOL     OW98978   8.755   2.937   0.805 -0.6248 -0.2221 -0.3211
30643SOL    HW198979   8.848   2.959   0.814 -0.7996  2.8500 -3.6636
30643SOL    HW298980   8.711   3.000   0.863 -0.7220 -1.7979  1.4045
30644SOL     OW98981   5.276   8.314   6.317  0.1011 -0.1169  0.1704
30644SOL    HW198982   5.351   8.255   6.307 -1.1528 -1.5751 -1.2310
30644SOL    HW298983   5.235   8.287   6.399  0.1495 -0.4837  0.0785
30645SOL     OW98984   5.281   4.499  10.698  0.0819  0.5248  0.2154
30645SOL    HW198985   5.352   4.549  10.737  1.3039 -1.3842  0.5929
30645SOL    HW298986   5.295   4.508  10.604  1.8797 -1.1210  0.2573
30646SOL     OW98987  10.397   4.538  10.232 -0.6538 -0.1227 -0.0523
30646SOL    HW198988  10.461   4.478  10.193 -1.4967 -0.1428 -1.4688
30646SOL    HW298989  10.439   4.623  10.228 -1.0000  0.0032 -1.7579
30647SOL     OW98990   9.585   1.521   8.828  0.4720 -0.2283 -0.1367
30647SOL    HW198991   9.667   1.571   8.823 -0.1591  0.8868  0.2706
30647SOL    HW298992   9.517   1.588   8.827 -0.3543 -0.9122  2.9032
30648SOL     OW98993   0.168  11.307   9.487  0.6591  0.2044 -0.0961
30648SOL    HW198994   0.080  11.335   9.463 -0.3457 -1.0707  1.8830
30648SOL    HW298995   0.186  11.353   9.569  1.8096  0.3707 -0.4261
30649SOL     OW98996   6.837   3.739   0.030  0.0752  0.0998 -0.0205
30649SOL    HW198997   6.864   3.653   0.063 -0.6694  0.1617  0.7993
30649SOL    HW298998   6.741   3.733   0.027  0.0122  0.9520  0.1885
30650SOL     OW98999   3.621  11.879  11.595  0.3042  0.0008 -0.0866
30650SOL    HW199000   3.550  11.942  11.578 -0.7940 -1.1172  0.2273
30650SOL    HW299001   3.643  11.845  11.508  0.0379 -0.0829 -0.1230
30651SOL     OW99002   9.364   9.444   2.014 -0.9438 -0.5394  0.2502
30651SOL    HW199003   9.332   9.505   2.081 -1.3875 -0.2084 -0.2543
30651SOL    HW299004   9.299   9.450   1.944  0.9282  1.2288 -1.4592
30652SOL     OW99005  10.751   9.298   9.296  0.0270 -0.2989 -0.3390
30652SOL    HW199006  10.722   9.226   9.239 -1.1113 -1.0723  1.1386
30652SOL    HW299007  10.846   9.300   9.286 -0.1228 -0.4126 -2.2318
30653SOL     OW99008   2.596   5.891  11.751  0.4876  0.0252  0.3326
30653SOL    HW199009   2.672   5.862  11.701  1.9104  0.7066  1.9922
30653SOL    HW299010   2.527   5.900  11.686  1.1911 -2.6611 -0.9167
30654SOL     OW99011   8.255   2.958   4.266 -0.3980  0.0153 -0.3880
30654SOL    HW199012   8.333   2.946   4.321 -0.3299  0.8408 -0.2840
30654SOL    HW299013   8.208   2.875   4.272  0.8923 -0.7919 -1.1135
30655SOL     OW99014   8.764   8.965   8.897 -0.5119 -0.0438 -0.0156
30655SOL    HW199015   8.683   9.016   8.895 -0.3338  0.2234 -0.6606
30655SOL    HW299016   8.820   9.006   8.830 -0.3908 -1.1200 -0.5954
30656SOL     OW99017  10.064   8.961   3.229  0.4664  0.8479  0.5713
30656SOL    HW199018   9.983   9.003   3.199 -0.5752 -0.8194  0.8563
30656SOL    HW299019  10.109   8.936   3.148  1.6995  3.4520  0.3736
30657SOL     OW99020   2.759  10.572   0.509  0.2216  0.6598  0.3078
30657SOL    HW199021   2.751  10.602   0.419  0.3972  0.8567  0.3585
30657SOL    HW299022   2.673  10.591   0.548 -0.2489 -0.4744 -0.1263
30658SOL     OW99023   3.555   4.884   4.540  0.4373 -0.0465 -0.1111
30658SOL    HW199024   3.485   4.906   4.479 -0.1133 -1.4569 -0.0129
30658SOL    HW299025   3.632   4.872   4.485  0.1961 -0.2278 -0.4128
30659SOL     OW99026   5.748   5.962  11.978 -0.5249 -0.2024 -0.4919
30659SOL    HW199027   5.666   5.982  12.023 -0.0678 -2.6198  1.6731
30659SOL    HW299028   5.816   5.993  12.039  0.1151 -3.0946  0.3977
30660SOL     OW99029   2.782   8.019   0.124  0.0680  0.0435  0.2435
30660SOL    HW199030   2.764   7.968   0.203 -0.3698  0.1211  0.1985
30660SOL    HW299031   2.793   7.952   0.055  0.1677 -0.0142  0.3157
30661SOL     OW99032   4.054  10.683   8.777  0.5786  0.1727  0.1444
30661SOL    HW199033   4.118  10.630   8.731  0.5857  0.6849 -0.4441
30661SOL    HW299034   3.980  10.691   8.716 -0.3813 -1.0245  1.0838
30662SOL     OW99035  12.579   0.809   1.369  0.6356  0.1702 -0.1097
30662SOL    HW199036  12.645   0.781   1.434  0.0428 -0.0276  0.4181
30662SOL    HW299037  12.609   0.895   1.341  1.0742  0.1275  0.1968
30663SOL     OW99038   9.231   3.112   3.828 -0.9548 -0.3827  0.2316
30663SOL    HW199039   9.248   3.184   3.767  0.8408 -1.5387 -0.7430
30663SOL    HW299040   9.150   3.136   3.872  0.1216  2.7488  0.7443
30664SOL     OW99041   3.103   0.793  11.847  0.2111 -0.1544  0.0744
30664SOL    HW199042   3.155   0.735  11.791 -0.2254 -0.3601 -0.1206
30664SOL    HW299043   3.097   0.748  11.931 -2.1848 -1.5940 -0.7776
30665SOL     OW99044   0.051   3.043   5.318 -0.8161 -0.2541  0.1756
30665SOL    HW199045  -0.024   3.061   5.262 -0.5929  1.1136  0.2571
30665SOL    HW299046   0.125   3.082   5.270 -0.2949 -0.8838  0.4642
30666SOL     OW99047   7.864   3.302   6.782  0.6237  0.1197  0.0482
30666SOL    HW199048   7.882   3.251   6.861 -0.8463 -0.6622 -0.0834
30666SOL    HW299049   7.780   3.344   6.800  0.8764  0.9323 -0.6235
30667SOL     OW99050  10.560   2.760   2.669 -0.4152  0.6497 -0.0739
30667SOL    HW199051  10.492   2.823   2.694 -1.3437  0.3124 -1.6172
30667SOL    HW299052  10.590   2.723   2.752 -1.7811  1.1608  0.6821
30668SOL     OW99053   9.127  12.484   5.581 -0.2746  0.2343 -0.0605
30668SOL    HW199054   9.095  12.566   5.618  0.6757  0.8628 -0.6065
30668SOL    HW299055   9.049  12.440   5.549 -0.5556  2.2486 -2.4026
30669SOL     OW99056   0.427   0.313   1.136 -0.1335  0.3662  0.2656
30669SOL    HW199057   0.351   0.304   1.193 -2.2523  1.5811 -2.1541
30669SOL    HW299058   0.411   0.394   1.088  2.0521 -0.0455 -1.3107
30670SOL     OW99059  11.095  10.484   8.661 -0.1918  0.4001 -0.1282
30670SOL    HW199060  11.001  10.479   8.643 -0.6709  1.8394  1.7485
30670SOL    HW299061  11.135  10.482   8.574 -1.9429 -0.2323 -0.9733
30671SOL     OW99062   3.009   9.243   3.412 -0.6421 -0.1378 -0.1304
30671SOL    HW199063   3.058   9.243   3.493 -3.1092 -1.3479  1.4951
30671SOL    HW299064   3.019   9.154   3.377 -0.3070  0.1166 -0.6987
30672SOL     OW99065   2.357   0.429   1.409  0.9612 -0.2961 -0.2179
30672SOL    HW199066   2.318   0.515   1.424 -1.5650 -1.0488 -1.8496
30672SOL    HW299067   2.353   0.385   1.494 -2.1008 -0.4005 -0.3226
30673SOL     OW99068  10.233   1.941   5.824 -0.3107 -0.8424 -0.5180
30673SOL    HW199069  10.256   1.988   5.744  1.4175 -1.5613 -0.4889
30673SOL    HW299070  10.301   1.966   5.887 -0.3790 -1.9976  0.0314
30674SOL     OW99071   9.636   1.831   7.088 -0.1162 -0.0906 -0.0342
30674SOL    HW199072   9.543   1.838   7.065 -0.2810  0.5753  0.7968
30674SOL    HW299073   9.637   1.808   7.181  0.5553 -1.3670 -0.3398
30675SOL     OW99074   3.629  11.255   4.060 -0.0776  0.0077 -0.4384
30675SOL    HW199075   3.683  11.216   3.991 -0.4958 -1.0041 -0.1967
30675SOL    HW299076   3.539  11.238   4.032 -0.3422  2.0300 -1.0525
30676SOL     OW99077   2.648  12.029   9.548 -0.0199  0.0259  0.3408
30676SOL    HW199078   2.731  12.016   9.593  0.3521 -1.4221 -0.6840
30676SOL    HW299079   2.628  11.944   9.509 -0.9755  0.8604 -1.0943
30677SOL     OW99080   2.839  11.355   7.373  0.1965  0.6573 -0.0064
30677SOL    HW199081   2.820  11.356   7.279  0.0703  1.4622  0.0268
30677SOL    HW299082   2.756  11.378   7.415  0.0362 -0.4988  0.3494
30678SOL     OW99083  11.804  12.380   5.116  0.2997 -0.1031  0.1362
30678SOL    HW199084  11.893  12.352   5.136  0.9925  1.8652  0.0816
30678SOL    HW299085  11.784  12.342   5.031  0.5718 -1.6071  0.7191
30679SOL     OW99086   6.829   4.224   2.545  0.4650  0.1117 -0.1453
30679SOL    HW199087   6.801   4.262   2.461  0.7381 -0.1673 -0.3685
30679SOL    HW299088   6.911   4.180   2.524  0.3693 -0.2325  0.2034
30680SOL     OW99089   0.863   7.841   4.047 -0.7992  0.2445 -0.4825
30680SOL    HW199090   0.931   7.907   4.059 -0.3818 -0.4336  1.2980
30680SOL    HW299091   0.783   7.882   4.080 -0.6618  0.0824  0.0626
30681SOL     OW99092   8.482   1.914   0.098 -0.0374  0.1885 -0.0259
30681SOL    HW199093   8.516   1.887   0.184 -0.4604 -0.0097  0.0859
30681SOL    HW299094   8.392   1.941   0.116  0.1658  1.0374 -0.2553
30682SOL     OW99095  11.404   3.576  10.756 -0.2159  0.2741  0.0411
30682SOL    HW199096  11.406   3.666  10.789 -0.9035  0.5532 -0.6704
30682SOL    HW299097  11.353   3.580  10.675  1.4672 -0.4021 -1.1063
30683SOL     OW99098   2.935   5.237   9.866  0.7418  0.1734 -0.2438
30683SOL    HW199099   3.000   5.175   9.899  0.2652 -0.0349  0.3308
30683SOL    HW299100   2.861   5.183   9.838  0.4687  0.4528 -0.0761
30684SOL     OW99101   5.984   7.646   0.277 -0.3942  0.0363  0.4241
30684SOL    HW199102   5.976   7.702   0.354 -0.1046 -1.3708  1.5014
30684SOL    HW299103   6.070   7.604   0.286 -0.0576  0.3545 -1.0255
30685SOL     OW99104   3.464  11.232   2.411  0.3234 -0.3508  0.2900
30685SOL    HW199105   3.536  11.171   2.427  0.0460  0.0379  3.7823
30685SOL    HW299106   3.399  11.181   2.364  1.3516 -1.8326  0.4124
30686SOL     OW99107   1.349   7.119   7.328  0.2434  0.1264 -0.3872
30686SOL    HW199108   1.401   7.060   7.274  1.0338  1.3066 -0.9667
30686SOL    HW299109   1.288   7.062   7.374  0.8435 -1.1104 -1.0680
30687SOL     OW99110   0.151   4.733   4.956 -0.1537 -0.1947 -0.5232
30687SOL    HW199111   0.057   4.730   4.973 -0.3198 -1.4520 -1.5466
30687SOL    HW299112   0.184   4.650   4.990  0.3610 -0.3263 -1.3205
30688SOL     OW99113  12.333   7.840   3.769 -0.6241  0.0411 -0.3289
30688SOL    HW199114  12.358   7.814   3.857 -0.0307 -0.0791 -0.5259
30688SOL    HW299115  12.351   7.763   3.715 -3.0471 -0.6680 -0.2334
30689SOL     OW99116  12.401  11.789   1.502  0.0451 -0.7513 -0.1500
30689SOL    HW199117  12.309  11.799   1.478  0.3752  3.6735 -0.3447
30689SOL    HW299118  12.399  11.745   1.587 -2.5081  1.5137  1.1011
30690SOL     OW99119   7.144   1.615   1.722 -0.2148  0.4478 -0.6399
30690SOL    HW199120   7.175   1.534   1.683 -0.3700  1.1633 -2.3762
30690SOL    HW299121   7.220   1.674   1.719 -0.2772  0.5602 -0.0011
30691SOL     OW99122   0.210   2.688   5.166  0.2503 -0.0698  0.0425
30691SOL    HW199123   0.232   2.643   5.248 -0.4532  0.4515  0.5201
30691SOL    HW299124   0.295   2.706   5.125  0.6493  0.4107  1.0542
30692SOL     OW99125   8.783  12.179   6.045 -0.4457  0.0495  0.0805
30692SOL    HW199126   8.857  12.240   6.048  0.6967 -1.2989  0.9497
30692SOL    HW299127   8.824  12.093   6.036 -2.0166 -0.5957 -1.4293
30693SOL     OW99128   9.086   5.888   2.156 -0.5050 -0.2247  0.0203
30693SOL    HW199129   9.103   5.967   2.207 -0.7438  0.1127 -0.4229
30693SOL    HW299130   9.122   5.817   2.210  1.2974  0.3503 -0.3826
30694SOL     OW99131   4.338   0.106   4.740 -0.1815 -0.3220  0.2496
30694SOL    HW199132   4.356   0.024   4.694 -1.1791 -0.8332  0.7431
30694SOL    HW299133   4.251   0.094   4.778  0.3090  0.3487  1.6706
30695SOL     OW99134   7.795   0.443   3.646 -0.0271  0.2646  0.0445
30695SOL    HW199135   7.870   0.389   3.622 -0.0114  0.6068 -0.7125
30695SOL    HW299136   7.826   0.495   3.721  0.2611 -0.0846  0.1725
30696SOL     OW99137   6.305   9.185   3.492  0.4967 -0.2440  0.1811
30696SOL    HW199138   6.296   9.172   3.397  0.0790 -1.3498  0.3553
30696SOL    HW299139   6.228   9.235   3.517  0.8510  0.4745 -0.1262
30697SOL     OW99140  11.636   1.165  12.311  0.0891  0.2065  0.3947
30697SOL    HW199141  11.545   1.161  12.284  1.0183  1.0385 -3.3149
30697SOL    HW299142  11.638   1.233  12.378 -1.5954  2.4580 -1.6873
30698SOL     OW99143  12.096   3.186  10.462 -0.0604 -0.3156 -0.4709
30698SOL    HW199144  12.107   3.095  10.489  0.4938 -0.6151 -1.6347
30698SOL    HW299145  12.184   3.214  10.436 -0.4683  0.0962 -1.4547
30699SOL     OW99146   9.538   0.519   9.605  0.4901  0.5662  0.1542
30699SOL    HW199147   9.536   0.424   9.619  0.3860  0.6761  0.9725
30699SOL    HW299148   9.447   0.543   9.588  0.9191  0.0731 -3.6032
30700SOL     OW99149   9.352   0.211   4.228  0.2450 -0.1021 -0.0875
30700SOL    HW199150   9.287   0.232   4.295  0.5165 -1.2641  0.5624
30700SOL    HW299151   9.314   0.243   4.147 -1.5248 -1.4657  0.1522
30701SOL     OW99152   8.223   9.807  11.013 -0.1274  0.0922  0.1459
30701SOL    HW199153   8.289   9.850  10.960  0.6984  0.5006  1.4607
30701SOL    HW299154   8.203   9.725  10.966 -0.3664  1.0133 -1.4133
30702SOL     OW99155  11.539   1.554  12.184  0.3654 -0.0112 -0.2206
30702SOL    HW199156  11.525   1.498  12.107  0.8537 -1.1937  0.5245
30702SOL    HW299157  11.552   1.641  12.148  0.0303 -0.4459 -1.4495
30703SOL     OW99158   9.235   6.627   1.160  0.5863  0.3067 -0.1722
30703SOL    HW199159   9.316   6.657   1.201  0.5679  1.2911 -0.8298
30703SOL    HW299160   9.250   6.533   1.145  1.0488  0.1812  0.9782
30704SOL     OW99161   0.505   7.260   1.241  0.5109  0.8078 -0.3847
30704SOL    HW199162   0.526   7.196   1.173 -0.0599  1.5126 -1.2435
30704SOL    HW299163   0.558   7.337   1.219  1.5538  0.5089  0.9061
30705SOL     OW99164   0.633   3.446  11.628 -0.2445 -0.2754  0.1019
30705SOL    HW199165   0.544   3.424  11.655  0.0151  0.3077  1.5259
30705SOL    HW299166   0.678   3.362  11.622 -1.2983 -0.7649 -2.3922
30706SOL     OW99167   1.290   9.859   2.656 -0.1311  0.0853  0.3750
30706SOL    HW199168   1.197   9.867   2.634 -0.0059  1.8520  0.3319
30706SOL    HW299169   1.307   9.933   2.714  1.8676  1.6034 -1.9073
30707SOL     OW99170   1.531   6.112   7.303  0.5611  0.2359  0.0417
30707SOL    HW199171   1.546   6.060   7.224 -1.7356 -0.1323 -0.2160
30707SOL    HW299172   1.454   6.165   7.283  0.6403  1.0027  1.6340
30708SOL     OW99173   9.783  11.230   9.847  0.4763 -0.1131 -0.0746
30708SOL    HW199174   9.850  11.186   9.898  0.3027 -0.1680  0.1090
30708SOL    HW299175   9.713  11.165   9.838  0.2909  0.0665  0.0514
30709SOL     OW99176  10.794   7.423   7.134 -0.5489  0.0126  0.0560
30709SOL    HW199177  10.778   7.482   7.060  0.8753 -0.3213 -0.5446
30709SOL    HW299178  10.742   7.461   7.206 -1.3325  0.7870 -0.8779
30710SOL     OW99179  11.013   4.660  12.100  0.0645 -0.0904  0.2631
30710SOL    HW199180  11.001   4.731  12.162  0.0390 -0.7566  1.0398
30710SOL    HW299181  11.009   4.580  12.153 -0.9683 -0.7388 -0.7214
30711SOL     OW99182   6.823   6.898   4.957  0.1807 -0.5501 -0.4776
30711SOL    HW199183   6.738   6.932   4.985  1.2959  2.7082 -0.6079
30711SOL    HW299184   6.880   6.913   5.032  1.1941 -0.2921 -1.2884
30712SOL     OW99185   0.083   7.597  12.496 -0.6329  0.1470 -0.5014
30712SOL    HW199186   0.002   7.552  12.519 -1.4360  1.0285 -1.4697
30712SOL    HW299187   0.055   7.668  12.437  0.7370  1.0024 -0.1777
30713SOL     OW99188  10.262   4.315  10.583  0.3095  0.5084  0.0459
30713SOL    HW199189  10.245   4.405  10.608  0.8478  1.2186 -1.9000
30713SOL    HW299190  10.204   4.299  10.508  0.7648 -0.4893 -0.1206
30714SOL     OW99191  12.164   6.771   3.109 -0.0727 -0.1343  0.1503
30714SOL    HW199192  12.192   6.834   3.043  0.6514 -3.9274 -3.5749
30714SOL    HW299193  12.242   6.719   3.128 -1.6127 -3.1446 -1.0341
30715SOL     OW99194  11.719   5.185   7.735 -0.0281  0.3414 -0.0018
30715SOL    HW199195  11.692   5.114   7.677 -2.3721  0.3815  0.9061
30715SOL    HW299196  11.758   5.250   7.677  1.7616 -1.4324 -0.9048
30716SOL     OW99197   9.709   8.966   4.224 -0.5948  0.1166  0.8885
30716SOL    HW199198   9.771   8.922   4.282 -0.2739 -0.6158  0.0139
30716SOL    HW299199   9.763   9.003   4.154 -1.2196 -1.5924 -0.5524
30717SOL     OW99200   4.041   3.328   8.828  0.0370  0.5560  0.3527
30717SOL    HW199201   3.974   3.271   8.867  0.2358 -0.2185 -0.4098
30717SOL    HW299202   3.995   3.372   8.756  0.4572 -0.3239 -0.4646
30718SOL     OW99203   9.955  11.655   5.053  0.3862  0.1374 -0.1316
30718SOL    HW199204   9.914  11.740   5.037 -1.5582 -0.3231  2.0148
30718SOL    HW299205   9.973  11.654   5.147  1.1394 -1.5313 -0.2563
30719SOL     OW99206   8.345   5.881  10.839 -0.4974 -0.1208 -0.0856
30719SOL    HW199207   8.412   5.857  10.775 -2.3240  1.3233 -2.7097
30719SOL    HW299208   8.380   5.959  10.883 -0.4748  0.7018 -1.5246
30720SOL     OW99209   4.243   2.787   1.763 -0.6592 -0.0988 -0.6502
30720SOL    HW199210   4.191   2.760   1.687 -1.9001 -1.2175  0.5511
30720SOL    HW299211   4.222   2.723   1.830  1.4574  0.0831  0.2401
30721SOL     OW99212   9.342   7.614   6.802 -0.5050 -0.8260  0.0418
30721SOL    HW199213   9.325   7.520   6.791  2.4204 -1.3232 -1.0207
30721SOL    HW299214   9.370   7.623   6.893 -0.2394 -1.0901 -0.0119
30722SOL     OW99215   4.948  10.059   1.675 -0.2811 -1.0590 -0.1585
30722SOL    HW199216   4.933  10.103   1.591 -0.2601 -1.0167 -0.1401
30722SOL    HW299217   5.004   9.984   1.654  0.0600 -0.8156 -0.1225
30723SOL     OW99218   6.584   9.874  12.353 -0.4849  0.3814 -0.2072
30723SOL    HW199219   6.505   9.820  12.353 -0.2378 -0.0487 -2.0697
30723SOL    HW299220   6.562   9.948  12.409 -1.6008 -0.5562  0.6487
30724SOL     OW99221   7.082  10.995  10.827  0.6659 -0.8171  0.0436
30724SOL    HW199222   7.132  11.075  10.813 -0.2781  0.0121  1.1880
30724SOL    HW299223   7.142  10.925  10.805  1.4665  0.1995 -1.1452
30725SOL     OW99224   3.755   8.432   2.461  0.2114 -0.0250  0.3446
30725SOL    HW199225   3.803   8.349   2.471 -0.9242 -0.9378 -1.1987
30725SOL    HW299226   3.819   8.493   2.425  0.9351 -0.3684  1.0218
30726SOL     OW99227   8.744  12.466   7.580  0.2604 -0.2841 -0.2991
30726SOL    HW199228   8.674  12.525   7.607  2.7240  1.7442  2.2606
30726SOL    HW299229   8.714  12.379   7.607 -1.8622  0.2613 -0.7111
30727SOL     OW99230   3.648   3.281   3.938 -0.3235 -0.1787  0.1097
30727SOL    HW199231   3.743   3.268   3.939 -0.1105  1.0442 -1.2937
30727SOL    HW299232   3.634   3.356   3.881 -2.1535 -0.3321  0.2859
30728SOL     OW99233   8.525  10.831   8.544  0.5193  0.8628  0.5237
30728SOL    HW199234   8.520  10.819   8.639 -1.6747 -0.5627  0.3019
30728SOL    HW299235   8.444  10.877   8.522 -0.0632 -0.7521 -0.8765
30729SOL     OW99236   8.787   8.936   2.491 -0.2173 -0.3971  0.0567
30729SOL    HW199237   8.770   8.945   2.584  0.4384 -0.3044  0.1769
30729SOL    HW299238   8.816   8.846   2.480 -2.2669 -1.0398 -0.3991
30730SOL     OW99239   8.023   6.206   4.056 -0.5721 -0.2603 -0.0296
30730SOL    HW199240   8.116   6.209   4.038 -0.6432 -0.8812 -0.5343
30730SOL    HW299241   8.018   6.191   4.151 -0.1710  0.1362  0.0581
30731SOL     OW99242   8.260   2.682   3.355 -0.6621 -0.0004 -0.0203
30731SOL    HW199243   8.295   2.707   3.441  0.1977  0.7052 -0.5493
30731SOL    HW299244   8.218   2.762   3.322 -1.0856 -0.2991 -0.2029
30732SOL     OW99245   2.776   0.766   0.258 -0.1497 -0.0259 -0.4348
30732SOL    HW199246   2.773   0.842   0.316  0.5690  0.6795 -1.2889
30732SOL    HW299247   2.794   0.802   0.171 -1.8990 -0.9899 -1.2492
30733SOL     OW99248   7.323   7.318   3.822  0.4741  0.7605 -0.3369
30733SOL    HW199249   7.342   7.275   3.905  0.5779  3.9531  1.4530
30733SOL    HW299250   7.239   7.362   3.837  0.0864  0.7483 -2.2383
30734SOL     OW99251   4.437   1.762  10.255 -0.0317 -0.8829  0.4150
30734SOL    HW199252   4.361   1.757  10.197  0.8931  0.0995 -0.9433
30734SOL    HW299253   4.485   1.681  10.238  0.7813 -0.1345 -1.0388
30735SOL     OW99254   3.779   8.953   0.557 -0.0707  0.6128 -0.4898
30735SOL    HW199255   3.797   9.044   0.578  0.5452  0.4138 -0.1599
30735SOL    HW299256   3.775   8.909   0.642 -0.9685  0.4350 -0.6089
30736SOL     OW99257   0.182   7.509  12.253  0.1801  0.5242  0.1739
30736SOL    HW199258   0.164   7.534  12.343  0.0117  2.1115 -0.2764
30736SOL    HW299259   0.095   7.500  12.212  0.2385  2.1610 -0.4082
30737SOL     OW99260   1.543   5.732   7.503 -0.3294 -0.5812 -0.2623
30737SOL    HW199261   1.469   5.759   7.558  0.1948  1.4222 -0.4707
30737SOL    HW299262   1.502   5.706   7.420 -0.8552 -0.0252 -0.1850
30738SOL     OW99263   6.913   0.037   7.935 -0.6195  0.9851 -0.0677
30738SOL    HW199264   6.931  -0.052   7.965  0.7780  1.8983  2.0367
30738SOL    HW299265   6.857   0.026   7.859  1.1118 -1.7746 -1.0900
30739SOL     OW99266  12.488   1.982   6.199  0.0338 -0.2267  0.1488
30739SOL    HW199267  12.468   1.959   6.108 -0.0914 -1.0803  0.3826
30739SOL    HW299268  12.526   1.903   6.236  0.1748  0.1468  0.8191
30740SOL     OW99269   8.354   9.729   5.331  0.1547  0.4160  0.2345
30740SOL    HW199270   8.404   9.796   5.285  0.1593  0.1958 -0.0840
30740SOL    HW299271   8.263   9.750   5.312  0.1850 -0.3083 -0.7850
30741SOL     OW99272  10.449   0.218   3.212 -0.2373  0.1072 -0.3496
30741SOL    HW199273  10.415   0.233   3.124 -1.2812  0.3522  0.0700
30741SOL    HW299274  10.370   0.210   3.266  0.3279  2.2887  0.9488
30742SOL     OW99275   7.049  11.424   1.700 -0.3585 -0.0309 -0.1054
30742SOL    HW199276   6.972  11.404   1.754 -0.2324  0.5797  0.3084
30742SOL    HW299277   7.124  11.402   1.755 -0.2183 -1.2771 -0.7537
30743SOL     OW99278   1.348   3.098  10.005 -0.5673 -0.0093 -0.2189
30743SOL    HW199279   1.274   3.119  10.062  0.3700 -1.1416  1.5175
30743SOL    HW299280   1.419   3.075  10.065  1.2190  0.9937 -1.8236
30744SOL     OW99281   0.331  10.002   3.684 -0.0235  0.4794  0.0827
30744SOL    HW199282   0.308  10.092   3.705  1.5091  0.6413  1.2319
30744SOL    HW299283   0.254   9.951   3.710 -0.3869  1.3168  0.6853
30745SOL     OW99284   5.948   0.701   2.785  0.1863 -0.4030 -0.4591
30745SOL    HW199285   6.023   0.661   2.829 -0.2610 -1.1962 -0.4038
30745SOL    HW299286   5.979   0.787   2.758  0.7952 -0.3176  0.4723
30746SOL     OW99287   1.143   6.916   9.150 -0.1553 -0.0273  0.3606
30746SOL    HW199288   1.136   6.825   9.178  0.8342  0.0493  0.9018
30746SOL    HW299289   1.096   6.966   9.216 -0.0782 -0.0742  0.4500
30747SOL     OW99290   6.235   9.466   9.494  0.0881 -0.1957 -0.1795
30747SOL    HW199291   6.287   9.466   9.575 -4.0390 -0.5703  2.8068
30747SOL    HW299292   6.215   9.374   9.479 -0.1398 -0.0207 -0.9634
30748SOL     OW99293   1.042  11.141  11.516  0.3664 -0.3961  0.0730
30748SOL    HW199294   1.037  11.189  11.432 -2.0471 -0.1700  0.2650
30748SOL    HW299295   1.002  11.057  11.497 -0.4955 -0.2249  1.0547
30749SOL     OW99296   4.468   9.536   5.452 -0.5583 -0.4301 -0.4500
30749SOL    HW199297   4.427   9.453   5.476 -2.7560  0.5612 -0.5147
30749SOL    HW299298   4.417   9.602   5.499  0.4126  0.9664 -1.2935
30750SOL     OW99299  10.970   5.199  10.224  0.3596  0.0026  0.1841
30750SOL    HW199300  10.894   5.253  10.246 -1.6110 -2.4685 -0.0692
30750SOL    HW299301  11.033   5.215  10.295 -1.4344  0.2784  1.7905
30751SOL     OW99302   0.385   5.232  11.910 -0.0843  0.1103  0.6060
30751SOL    HW199303   0.372   5.327  11.916  0.0425  0.2168 -0.5837
30751SOL    HW299304   0.301   5.198  11.880  0.1236 -0.0522  0.1983
30752SOL     OW99305   4.271  10.823   0.976  0.6662  0.2045 -0.3528
30752SOL    HW199306   4.233  10.735   0.978 -0.2554  0.6052  0.6892
30752SOL    HW299307   4.222  10.872   1.043  1.5202  1.3631 -0.5475
30753SOL     OW99308   8.348   1.801   1.697 -0.0328  0.0970 -0.4442
30753SOL    HW199309   8.384   1.805   1.608  0.5504  0.5848 -0.1940
30753SOL    HW299310   8.422   1.821   1.753 -0.3220 -0.5507  0.1738
30754SOL     OW99311  11.263   5.846   4.489  1.1289  0.5422 -0.3819
30754SOL    HW199312  11.235   5.766   4.532  0.0520  1.3116  0.4093
30754SOL    HW299313  11.349   5.865   4.527  0.6574  0.6391  0.6745
30755SOL     OW99314   2.710   2.281   2.373  0.1297 -0.5612 -0.2872
30755SOL    HW199315   2.626   2.322   2.354  0.7565  0.4566 -0.9427
30755SOL    HW299316   2.732   2.233   2.293  1.2227  1.0421 -0.9962
30756SOL     OW99317   3.271  11.652   4.236  0.4666  0.1041  0.6888
30756SOL    HW199318   3.176  11.656   4.229  0.4815 -0.0311  0.3813
30756SOL    HW299319   3.302  11.732   4.194  0.4985 -0.0105  0.4878
30757SOL     OW99320   0.302   5.094  11.380 -0.5765 -0.5559  0.0617
30757SOL    HW199321   0.353   5.103  11.460  0.3240 -1.0908 -0.4318
30757SOL    HW299322   0.288   5.184  11.350 -1.3106 -0.3353  1.0427
30758SOL     OW99323   5.674   6.611   0.083 -0.5297  0.2406 -0.8678
30758SOL    HW199324   5.601   6.673   0.084 -1.1186 -0.4508 -0.1509
30758SOL    HW299325   5.710   6.615   0.171 -1.3558 -1.3192 -0.4157
30759SOL     OW99326   3.712   0.868   0.584  0.3044 -0.9225  0.0104
30759SOL    HW199327   3.645   0.931   0.609  0.5942 -0.5553 -0.1349
30759SOL    HW299328   3.759   0.849   0.665 -1.4224 -2.9524  0.6325
30760SOL     OW99329   2.471   3.059   9.314  0.1491  0.4704  0.0134
30760SOL    HW199330   2.451   2.989   9.253  0.8981 -0.3319  0.6568
30760SOL    HW299331   2.554   3.095   9.283  0.4198  0.2049  0.4101
30761SOL     OW99332  11.766   8.200   6.346 -0.1778  0.3250 -0.4545
30761SOL    HW199333  11.787   8.106   6.348 -2.7339 -0.3270  1.7306
30761SOL    HW299334  11.781   8.230   6.436  1.2422  2.2492 -1.2613
30762SOL     OW99335   6.988   0.506   2.268  0.1788  0.8354  0.2550
30762SOL    HW199336   7.009   0.599   2.263  4.6177  0.0129 -0.7691
30762SOL    HW299337   6.983   0.478   2.176  1.0668 -0.2674  0.5186
30763SOL     OW99338   1.143   9.224   9.794  0.0541  0.4234 -0.3170
30763SOL    HW199339   1.088   9.170   9.850  0.3605  0.5768  0.1349
30763SOL    HW299340   1.203   9.268   9.854 -0.8624  2.0733 -0.5454
30764SOL     OW99341   3.332   8.098  11.742  0.6296 -0.3341  0.0721
30764SOL    HW199342   3.262   8.110  11.677 -0.2163 -0.4786  0.9420
30764SOL    HW299343   3.364   8.186  11.759  1.3136 -0.3494 -1.0128
30765SOL     OW99344  11.310   1.062   2.430 -0.0113 -0.4452  0.0899
30765SOL    HW199345  11.306   1.091   2.521  0.1952  0.6514 -0.2282
30765SOL    HW299346  11.223   1.028   2.411  0.0882 -1.1439  0.8281
30766SOL     OW99347   0.787   4.806   7.535 -0.4734 -0.2418  0.1555
30766SOL    HW199348   0.785   4.746   7.609 -0.4080  0.3418  0.6383
30766SOL    HW299349   0.844   4.764   7.471  1.5044  0.3588  1.4242
30767SOL     OW99350   6.289   5.885   1.656  0.6634  0.0075 -0.4824
30767SOL    HW199351   6.220   5.951   1.653  1.2686  0.6707 -0.3074
30767SOL    HW299352   6.289   5.846   1.569 -1.0297 -1.1812  0.0128
30768SOL     OW99353   3.612   3.101  12.257 -0.0390 -0.5516 -0.4544
30768SOL    HW199354   3.532   3.141  12.222  0.0316 -0.8308 -0.9594
30768SOL    HW299355   3.678   3.116  12.189  0.4769  0.1188  0.1815
30769SOL     OW99356   5.882   6.270   1.209 -0.0060  0.5230  0.4872
30769SOL    HW199357   5.816   6.338   1.223 -1.1419 -0.8347  2.2746
30769SOL    HW299358   5.924   6.260   1.295  0.3739 -0.7938  0.1683
30770SOL     OW99359   2.822  10.775   8.274 -0.5450  0.2640 -0.4340
30770SOL    HW199360   2.755  10.776   8.343 -1.0002 -0.1018 -0.8645
30770SOL    HW299361   2.857  10.686   8.276  0.5009  0.6746  0.3223
30771SOL     OW99362   9.170   8.960   5.079  0.4569 -0.3357  0.0021
30771SOL    HW199363   9.096   8.961   5.019 -0.7019 -0.1361  1.3941
30771SOL    HW299364   9.134   8.927   5.161  1.7517  0.4468  0.9115
30772SOL     OW99365   2.589   8.762   5.269  0.4461 -0.3304 -0.4144
30772SOL    HW199366   2.554   8.739   5.355 -0.3678  1.2648 -0.2772
30772SOL    HW299367   2.522   8.732   5.208  1.1213 -1.6539 -0.5263
30773SOL     OW99368   0.974   7.241   3.401  0.6552 -0.1572 -0.4186
30773SOL    HW199369   1.010   7.309   3.343  0.1860 -0.5181 -1.1500
30773SOL    HW299370   0.900   7.205   3.352 -0.6093  0.4278  0.9580
30774SOL     OW99371   1.522   4.524   7.516  0.3406  0.6054  0.6895
30774SOL    HW199372   1.480   4.467   7.581  0.7129 -1.2112 -0.5709
30774SOL    HW299373   1.600   4.475   7.489 -1.0471  0.0778 -2.8710
30775SOL     OW99374  12.188   4.611  10.422 -0.5124  0.2960 -0.9195
30775SOL    HW199375  12.099   4.620  10.389 -0.4352 -0.1683 -1.2632
30775SOL    HW299376  12.239   4.581  10.347 -0.3696 -0.9282 -0.3616
30776SOL     OW99377   7.291   9.484   6.375  0.6708  0.2449 -0.7320
30776SOL    HW199378   7.309   9.391   6.382  0.0089  0.1606  0.0009
30776SOL    HW299379   7.263   9.497   6.284 -1.4925 -0.7070 -0.2796
30777SOL     OW99380  10.746  11.169  10.493 -0.6010 -0.3381 -0.4087
30777SOL    HW199381  10.751  11.197  10.584 -1.1582  0.3376 -0.5778
30777SOL    HW299382  10.660  11.198  10.463 -0.1752  0.0269 -1.3291
30778SOL     OW99383   3.912   9.070   7.156  0.3785  0.1870  0.7420
30778SOL    HW199384   3.938   9.112   7.074  1.7688  1.8299  1.9492
30778SOL    HW299385   3.930   8.977   7.142  1.3001  0.5352 -0.5622
30779SOL     OW99386  11.578   5.949   1.932  0.2591  0.0675 -0.3394
30779SOL    HW199387  11.534   5.956   1.847 -1.5113 -0.4663  0.4958
30779SOL    HW299388  11.659   5.999   1.920 -0.5441  1.0949 -1.9463
30780SOL     OW99389   1.046   1.860   4.551 -0.1278 -0.4805 -0.0874
30780SOL    HW199390   1.020   1.783   4.500 -1.2953  0.9713 -1.8238
30780SOL    HW299391   1.139   1.872   4.531 -0.4915 -0.1234 -1.6818
30781SOL     OW99392   0.744   9.800   6.783  0.1472 -0.4400 -0.4207
30781SOL    HW199393   0.764   9.807   6.876  1.4834 -3.6187 -0.3350
30781SOL    HW299394   0.675   9.733   6.779  0.4868 -0.7268 -1.7457
30782SOL     OW99395   3.362  11.811   5.669 -0.0942 -0.2096 -0.2591
30782SOL    HW199396   3.401  11.741   5.617 -0.7721 -0.7998  0.0152
30782SOL    HW299397   3.288  11.770   5.713  0.1731  0.3915  0.7943
30783SOL     OW99398   6.243   8.288  12.240  0.4252  1.2044 -0.0684
30783SOL    HW199399   6.163   8.313  12.194 -2.1084  0.3669  3.4888
30783SOL    HW299400   6.246   8.344  12.317  2.4451  0.1531  0.7004
30784SOL     OW99401   6.568   6.604   8.968  0.1783 -0.1092 -0.3034
30784SOL    HW199402   6.483   6.559   8.966  1.3497 -2.7141  2.0237
30784SOL    HW299403   6.630   6.540   8.934  1.8591 -0.1599  2.5676
30785SOL     OW99404   7.339  12.505   4.460  0.3613  0.2970 -0.6122
30785SOL    HW199405   7.390  12.551   4.527 -0.4061  0.8985 -0.4125
30785SOL    HW299406   7.395  12.433   4.431  0.1291 -0.9703  1.8177
30786SOL     OW99407   1.762   3.165  12.536 -0.0313  0.8372  0.0549
30786SOL    HW199408   1.817   3.238  12.510  1.3807  0.7091  2.4075
30786SOL    HW299409   1.804   3.088  12.499 -0.3221  1.0176 -0.6528
30787SOL     OW99410   0.190   3.451   6.343  0.5235  0.5372  0.7502
30787SOL    HW199411   0.105   3.414   6.365  1.0863 -0.9057  0.5807
30787SOL    HW299412   0.180   3.485   6.254  0.6235 -1.3012  0.0045
30788SOL     OW99413   8.689  11.425   6.712  0.3086 -0.7085  0.7739
30788SOL    HW199414   8.724  11.416   6.624 -1.5256 -0.3053 -0.0578
30788SOL    HW299415   8.680  11.335   6.744 -2.7631 -1.2215 -1.1001
30789SOL     OW99416   0.174  12.289   7.348  0.4219 -0.4082 -0.2930
30789SOL    HW199417   0.171  12.264   7.440 -0.5482 -0.3513 -0.2986
30789SOL    HW299418   0.247  12.238   7.312 -0.3830 -1.9055  0.0951
30790SOL     OW99419   1.351   1.226   2.550 -0.0279 -0.7042 -0.6770
30790SOL    HW199420   1.368   1.173   2.627  0.9523  1.8100  0.9586
30790SOL    HW299421   1.256   1.240   2.550  0.0636  0.0673  0.6916
30791SOL     OW99422   2.830   1.805   3.463  0.3907 -0.0256  0.0735
30791SOL    HW199423   2.858   1.731   3.408 -0.1280  0.1832 -0.4878
30791SOL    HW299424   2.872   1.881   3.423 -0.3116  0.1815 -0.2865
30792SOL     OW99425   1.423  12.080   9.967  0.3399  0.3010 -0.0937
30792SOL    HW199426   1.344  12.135   9.972  2.2724  3.2745  0.3313
30792SOL    HW299427   1.478  12.111  10.039  1.7033 -2.0753 -0.0324
30793SOL     OW99428   0.712   7.735   7.682 -0.2723  0.0715  0.3566
30793SOL    HW199429   0.777   7.682   7.636 -0.1468  2.1673 -2.1018
30793SOL    HW299430   0.718   7.706   7.773  1.0309 -2.7784 -0.5259
30794SOL     OW99431   0.926   8.848  10.533  0.1155 -0.0375  0.3742
30794SOL    HW199432   0.836   8.834  10.562  0.9639 -0.8104  2.9069
30794SOL    HW299433   0.926   8.937  10.496 -1.4943  0.2861  1.0796
30795SOL     OW99434   4.150  12.212  11.330 -0.2244 -0.2287  0.1239
30795SOL    HW199435   4.113  12.185  11.414 -1.2538 -0.6235 -0.4286
30795SOL    HW299436   4.148  12.132  11.277 -1.0595  0.3696 -0.7726
30796SOL     OW99437   2.278   8.956   0.206  0.2111  0.1588 -0.4557
30796SOL    HW199438   2.371   8.979   0.201  0.0740  0.8096 -0.1321
30796SOL    HW299439   2.232   9.038   0.184 -0.2867 -0.4842 -1.9806
30797SOL     OW99440  12.228   6.059   1.713 -0.2097 -0.6277  0.0110
30797SOL    HW199441  12.265   6.055   1.801  0.3760  0.8011 -0.1487
30797SOL    HW299442  12.244   6.148   1.684 -0.7993 -0.9456 -1.3817
30798SOL     OW99443   5.315  11.073   5.237 -0.2716 -0.0557  0.3463
30798SOL    HW199444   5.234  11.118   5.259 -2.0460 -2.2152 -1.2862
30798SOL    HW299445   5.303  10.984   5.269  0.2058 -1.1836 -2.3131
30799SOL     OW99446   2.056   6.472   2.769 -0.3334 -0.4637 -0.1171
30799SOL    HW199447   2.091   6.385   2.747  0.6338  0.0503 -0.6623
30799SOL    HW299448   2.010   6.499   2.689  0.0325 -0.1503 -0.2235
30800SOL     OW99449   9.324   2.968   4.684  0.0417 -0.3391  0.4151
30800SOL    HW199450   9.248   2.995   4.632 -0.0532 -0.8756  0.2694
30800SOL    HW299451   9.380   3.045   4.686 -0.3973 -0.0138  0.3199
30801SOL     OW99452   2.996   9.025   3.867  0.2360 -0.3566 -0.3176
30801SOL    HW199453   2.907   8.993   3.857  0.1560 -0.5231  0.8490
30801SOL    HW299454   3.037   8.965   3.929  0.4861  0.9609  0.8436
30802SOL     OW99455   5.756   0.924   3.849 -0.5894 -0.1885  0.5596
30802SOL    HW199456   5.744   0.896   3.759  1.2681  2.8902 -0.7997
30802SOL    HW299457   5.682   0.884   3.896 -1.7783 -1.6971 -2.3034
30803SOL     OW99458   9.765   1.328   4.357 -0.2310  0.1362  0.0889
30803SOL    HW199459   9.778   1.260   4.290 -0.4641  0.1852 -0.0060
30803SOL    HW299460   9.837   1.390   4.343  0.2421 -0.3131  0.4541
30804SOL     OW99461   2.869  11.995   2.013  0.6987 -0.7750  1.1671
30804SOL    HW199462   2.878  11.900   2.007  0.9026 -0.6776 -0.6571
30804SOL    HW299463   2.958  12.028   2.001  1.0970 -0.3698  4.4436
30805SOL     OW99464   5.803   4.380   8.313  0.2311  0.4067  0.0824
30805SOL    HW199465   5.806   4.339   8.227  2.2927 -0.4568  0.5127
30805SOL    HW299466   5.812   4.308   8.375  2.4854  1.2944  0.8887
30806SOL     OW99467   3.967   9.116   8.146 -0.3805  0.1641  0.4981
30806SOL    HW199468   4.013   9.200   8.143 -1.1208  0.6047  1.2983
30806SOL    HW299469   4.037   9.051   8.155  0.2743  0.5874 -1.0974
30807SOL     OW99470   7.842   5.387   5.222  0.4573 -0.5686 -0.6138
30807SOL    HW199471   7.843   5.464   5.166 -2.2762  0.5235  0.6344
30807SOL    HW299472   7.845   5.421   5.311 -0.5771 -1.8731 -0.0331
30808SOL     OW99473   2.898   6.890   6.557  0.0149 -0.2032 -0.7483
30808SOL    HW199474   2.891   6.833   6.481 -1.1738  0.9416 -1.5605
30808SOL    HW299475   2.812   6.933   6.562  0.5210  0.7295  0.4452
30809SOL     OW99476   5.040   2.111   7.451 -0.3211 -0.1901  0.2690
30809SOL    HW199477   5.120   2.066   7.424  0.8671  2.6517 -1.4798
30809SOL    HW299478   5.071   2.193   7.489 -2.3791 -0.0499  1.8090
30810SOL     OW99479   6.951   0.566   7.220 -0.2351  0.4709  0.4157
30810SOL    HW199480   7.026   0.512   7.245 -1.8241 -2.0420  0.0609
30810SOL    HW299481   6.932   0.619   7.298  3.1236  2.8327 -0.1519
30811SOL     OW99482  10.527   8.377   0.214 -0.0273  0.4663 -0.2054
30811SOL    HW199483  10.509   8.459   0.168  0.2016 -0.6570 -2.4562
30811SOL    HW299484  10.454   8.320   0.190  0.3651 -0.3176  0.4345
30812SOL     OW99485   2.888   9.640   2.985  0.8585  0.4022  0.4894
30812SOL    HW199486   2.868   9.548   3.004  0.1889  0.5235  0.4085
30812SOL    HW299487   2.807   9.687   3.007  0.7112  0.7947 -0.8032
30813SOL     OW99488   8.780  10.136   0.907  0.1669  0.2989  0.6622
30813SOL    HW199489   8.851  10.163   0.965  0.0279  0.0677  0.9398
30813SOL    HW299490   8.816  10.147   0.819  0.0618  1.5331  0.7560
30814SOL     OW99491   5.803  12.289   8.779  0.0735  0.2585 -0.2968
30814SOL    HW199492   5.869  12.331   8.834  0.0377 -1.6368  1.3057
30814SOL    HW299493   5.765  12.361   8.729  0.4860  2.0164  1.7568
30815SOL     OW99494  12.359   9.378   1.807 -0.0792  1.1678  0.1274
30815SOL    HW199495  12.292   9.409   1.868  0.1269  0.9794  0.4472
30815SOL    HW299496  12.383   9.292   1.839 -0.6505  0.6585 -0.7666
30816SOL     OW99497   3.704   3.113  10.392 -0.4635 -0.2395  0.6358
30816SOL    HW199498   3.716   3.202  10.360 -1.0067  0.0616  1.2283
30816SOL    HW299499   3.617   3.114  10.433  0.1208 -0.6599  1.9154
30817SOL     OW99500   5.304   0.561   0.146  0.1335 -0.1259 -0.0860
30817SOL    HW199501   5.330   0.601   0.229  0.1092 -1.1218  0.4157
30817SOL    HW299502   5.384   0.518   0.114 -0.1111 -0.6047 -0.0627
30818SOL     OW99503   1.961   7.460   3.347 -0.3545 -0.2367 -0.1699
30818SOL    HW199504   1.894   7.391   3.349 -0.3066 -0.3314  3.1153
30818SOL    HW299505   2.014   7.445   3.425  2.9224  0.5095 -2.0587
30819SOL     OW99506   7.694   7.121   4.896  0.1513  0.6396  0.5513
30819SOL    HW199507   7.612   7.083   4.928 -1.1086  3.5952  1.2358
30819SOL    HW299508   7.751   7.124   4.973  0.7636 -0.9361  0.1953
30820SOL     OW99509   1.782   3.748  10.333  0.2967  0.1281 -0.0435
30820SOL    HW199510   1.699   3.789  10.357  0.6137  0.1126  1.1150
30820SOL    HW299511   1.790   3.673  10.392  0.6815 -0.4340 -0.7951
30821SOL     OW99512   5.777   1.769  11.299  0.1850  0.1222 -0.1346
30821SOL    HW199513   5.732   1.818  11.367  1.6607  0.9827  0.2653
30821SOL    HW299514   5.707   1.728  11.248 -0.9525 -0.0897  1.5498
30822SOL     OW99515   1.426  10.848   3.140 -0.3430  0.0993 -0.3315
30822SOL    HW199516   1.347  10.891   3.173 -0.0567  0.2584  0.1595
30822SOL    HW299517   1.488  10.852   3.213  0.1912  0.1642 -0.7796
30823SOL     OW99518   8.165   6.810   7.734 -0.5588  0.2796 -0.2883
30823SOL    HW199519   8.188   6.821   7.641  1.2645 -0.9486 -0.0166
30823SOL    HW299520   8.114   6.729   7.736  2.1862 -1.5610  0.1270
30824SOL     OW99521   0.856   0.276   0.862 -0.0801  0.0173 -0.1497
30824SOL    HW199522   0.922   0.256   0.796 -0.5866  0.3557 -0.7818
30824SOL    HW299523   0.800   0.198   0.864 -0.1793  0.0833 -0.2744
30825SOL     OW99524   0.069   2.285   7.194  0.1588  0.3594 -0.2925
30825SOL    HW199525   0.114   2.359   7.233 -0.2042  0.1387  0.5667
30825SOL    HW299526   0.038   2.233   7.269 -1.8507  0.6982 -0.8288
30826SOL     OW99527   0.750   9.335  11.537 -0.3003  0.1634  0.4038
30826SOL    HW199528   0.776   9.277  11.465 -0.9230  0.4782 -0.0858
30826SOL    HW299529   0.785   9.420  11.512 -1.0956  0.4144  0.1428
30827SOL     OW99530  11.716   3.388   9.652 -0.1142  0.3808 -0.0078
30827SOL    HW199531  11.694   3.315   9.595 -3.0900  0.8862  0.3049
30827SOL    HW299532  11.760   3.451   9.595  2.1445 -1.3997 -0.3619
30828SOL     OW99533   6.694   2.663   9.186 -0.4673 -0.4168 -0.1716
30828SOL    HW199534   6.681   2.752   9.155 -2.4093 -0.7754 -0.4991
30828SOL    HW299535   6.719   2.673   9.278  1.1469  0.4890 -0.6590
30829SOL     OW99536   7.571   9.879   8.411 -0.0841  0.5924 -0.1154
30829SOL    HW199537   7.499   9.921   8.458  0.8544  0.1313  1.8026
30829SOL    HW299538   7.648   9.932   8.432  0.7606 -0.9138  0.7325
30830SOL     OW99539   5.176   8.558   4.817  0.0708 -0.2753 -0.3108
30830SOL    HW199540   5.171   8.582   4.725  1.2170  0.6614 -0.1588
30830SOL    HW299541   5.251   8.499   4.823 -1.0549 -1.7501 -0.2319
30831SOL     OW99542   7.528   3.520   3.756 -0.1536 -0.4933  0.0045
30831SOL    HW199543   7.550   3.599   3.707  1.3844 -0.9585 -0.1050
30831SOL    HW299544   7.575   3.530   3.839 -2.9637  0.4374  1.6014
30832SOL     OW99545   1.454   9.909   4.243  0.1689  0.2327 -0.9970
30832SOL    HW199546   1.386   9.967   4.279 -0.3233 -0.9521  0.0849
30832SOL    HW299547   1.408   9.826   4.226  1.7971 -1.6665  2.6583
30833SOL     OW99548   0.611   7.573   2.741 -0.1301 -0.3356  0.0612
30833SOL    HW199549   0.620   7.517   2.664  0.0804  1.3904 -1.2098
30833SOL    HW299550   0.663   7.651   2.721 -1.2336  0.7849  1.3376
30834SOL     OW99551  10.551   9.453  10.235 -0.2171 -0.3714 -0.6201
30834SOL    HW199552  10.476   9.500  10.199  1.2249  2.7630  0.1065
30834SOL    HW299553  10.528   9.436  10.326 -1.0092 -1.7602 -1.0559
30835SOL     OW99554   9.782   4.814   4.200 -0.1045  0.6243  0.1691
30835SOL    HW199555   9.730   4.853   4.129  0.2763 -0.9861 -1.0711
30835SOL    HW299556   9.873   4.829   4.174  0.1399  2.9508  2.0571
30836SOL     OW99557   6.372   3.619   3.517 -0.1554  0.2325  0.1840
30836SOL    HW199558   6.288   3.647   3.480 -0.8024 -2.2829 -0.4481
30836SOL    HW299559   6.430   3.612   3.441 -0.1941 -0.6829  0.2315
30837SOL     OW99560   7.739   7.305   6.637  0.3202 -0.0909  0.3281
30837SOL    HW199561   7.783   7.268   6.561  1.0801  0.8536  0.2864
30837SOL    HW299562   7.802   7.294   6.709  0.3417  0.6429  0.4231
30838SOL     OW99563   2.376   7.035  12.443  0.3287  0.3988  0.4206
30838SOL    HW199564   2.309   6.977  12.479 -0.3678  0.9783  0.0889
30838SOL    HW299565   2.363   7.118  12.489 -1.4209  1.5624 -1.9348
30839SOL     OW99566   6.860   1.559   3.177 -0.0849 -0.0218  0.8056
30839SOL    HW199567   6.878   1.498   3.248 -1.0341  0.3709  1.4129
30839SOL    HW299568   6.772   1.537   3.147  1.2694 -1.9859 -2.1650
30840SOL     OW99569   0.370   2.273   8.899 -0.0441  0.2004 -0.3376
30840SOL    HW199570   0.275   2.262   8.901  0.0123 -0.3936  2.1624
30840SOL    HW299571   0.384   2.368   8.897 -0.6743  0.2914 -0.5031
30841SOL     OW99572   8.459   1.693  10.847 -0.1222  0.1952 -0.3077
30841SOL    HW199573   8.432   1.662  10.933  0.0992 -1.7402 -0.9036
30841SOL    HW299574   8.421   1.781  10.840 -1.1662 -0.1051  1.2630
30842SOL     OW99575  10.442   9.599  11.857  0.4430 -0.5555  0.3701
30842SOL    HW199576  10.466   9.507  11.863 -0.8924 -0.9107  0.7137
30842SOL    HW299577  10.368   9.600  11.796 -0.1428  0.1614  1.0788
30843SOL     OW99578   4.607   4.427   1.773 -0.5300  0.2075 -0.2792
30843SOL    HW199579   4.587   4.346   1.821 -1.5666 -0.1785 -1.2982
30843SOL    HW299580   4.661   4.478   1.832  0.7000 -1.5162  0.1491
30844SOL     OW99581   6.904  10.781   0.598 -0.4392  0.1898 -0.0827
30844SOL    HW199582   6.855  10.791   0.516 -0.7533  1.7556  0.2616
30844SOL    HW299583   6.846  10.817   0.665  0.2442 -0.1026  0.6777
30845SOL     OW99584   4.830  11.875   6.177 -0.4340  0.6674  0.0502
30845SOL    HW199585   4.788  11.792   6.155  0.5414  0.4015 -0.8865
30845SOL    HW299586   4.865  11.862   6.265  1.9567 -0.8799 -1.0257
30846SOL     OW99587   1.921   3.862   7.004 -0.4661 -0.0061 -0.0656
30846SOL    HW199588   1.987   3.836   7.068 -1.1725 -0.6877  0.4124
30846SOL    HW299589   1.939   3.807   6.928  0.1757  0.5731 -0.3351
30847SOL     OW99590   6.032   8.770   3.923  0.4368  0.1007 -0.2226
30847SOL    HW199591   6.085   8.845   3.897  0.2802  1.4511  2.9053
30847SOL    HW299592   6.088   8.721   3.983 -1.0007  0.3446  1.4200
30848SOL     OW99593   6.810  11.153  11.796 -0.4158 -0.5529 -0.2463
30848SOL    HW199594   6.804  11.222  11.730 -0.5395 -0.9700 -0.6783
30848SOL    HW299595   6.749  11.179  11.865  1.5085  1.1640  0.9132
30849SOL     OW99596   0.306   7.098   8.516 -0.0835  0.3366  0.1027
30849SOL    HW199597   0.270   7.129   8.599  1.5298 -0.5665  1.1885
30849SOL    HW299598   0.239   7.040   8.480 -0.5336  0.2271  1.0996
30850SOL     OW99599   0.599   5.049   8.437  0.0802  0.1041 -0.2254
30850SOL    HW199600   0.649   5.063   8.357 -0.7963 -1.0630 -1.0080
30850SOL    HW299601   0.529   4.989   8.412 -0.5979  0.2154  1.2723
30851SOL     OW99602   2.125   2.053   9.924  0.2049 -0.2917  0.2234
30851SOL    HW199603   2.117   2.110   9.847 -1.3328 -0.6575  0.0745
30851SOL    HW299604   2.148   2.113   9.995  2.7445 -0.0970 -0.6724
30852SOL     OW99605  12.283   8.129   6.903  0.3012  0.2163  0.2053
30852SOL    HW199606  12.303   8.110   6.995  1.4617  0.6033  0.0415
30852SOL    HW299607  12.231   8.054   6.874 -0.3338  0.2217  1.2504
30853SOL     OW99608   0.341   0.591   7.385  0.3828 -0.6410  0.3084
30853SOL    HW199609   0.257   0.545   7.391 -0.0687  0.2402  0.9600
30853SOL    HW299610   0.362   0.590   7.292 -0.4614 -0.6794  0.1115
30854SOL     OW99611  11.038   1.493   0.821 -0.3278  0.1524  0.7575
30854SOL    HW199612  11.049   1.572   0.768 -0.6479 -0.4006 -0.1492
30854SOL    HW299613  11.051   1.420   0.760  0.4930 -0.5189  1.6769
30855SOL     OW99614  10.678  10.372  10.963 -0.3840  0.3584  0.9285
30855SOL    HW199615  10.602  10.415  11.002 -0.1297 -0.0173  1.8820
30855SOL    HW299616  10.711  10.435  10.899 -1.5306  0.4880  0.4536
30856SOL     OW99617  10.668   7.853  12.371  0.2820 -0.5169  0.0843
30856SOL    HW199618  10.693   7.796  12.298 -0.4197 -0.7610  0.0319
30856SOL    HW299619  10.622   7.796  12.432 -3.1545  0.4743 -1.3360
30857SOL     OW99620   7.009   5.407   3.789  0.2527 -0.4669 -0.1963
30857SOL    HW199621   6.970   5.349   3.723  0.2478 -0.8733  0.1546
30857SOL    HW299622   6.944   5.408   3.860  0.5982 -0.6372  0.1222
30858SOL     OW99623   3.191   0.866   7.082  0.3226 -0.1569  0.2819
30858SOL    HW199624   3.103   0.828   7.088  0.6650 -1.2713 -1.0550
30858SOL    HW299625   3.178   0.960   7.087 -1.1588 -0.2121 -1.5716
30859SOL     OW99626   1.698   5.562   5.251  0.0914  0.5627  0.3719
30859SOL    HW199627   1.692   5.473   5.217  0.6429  0.9818 -0.8941
30859SOL    HW299628   1.644   5.614   5.192  2.6925  1.6573 -1.2381
30860SOL     OW99629   0.757   9.095   7.670  0.3889 -0.5284  0.4583
30860SOL    HW199630   0.761   9.190   7.659  0.4488 -0.6949 -1.0803
30860SOL    HW299631   0.747   9.060   7.582  0.0910 -1.9517  1.0187
30861SOL     OW99632   7.704   0.595   6.274 -0.1139 -0.3838 -0.6685
30861SOL    HW199633   7.752   0.512   6.279  3.5669  1.5540  0.0235
30861SOL    HW299634   7.662   0.603   6.360  0.2554 -1.1360 -0.4075
30862SOL     OW99635  11.141   5.879  11.034 -0.3563  0.8296  0.1248
30862SOL    HW199636  11.154   5.812  10.966  0.3354  1.8610 -0.8061
30862SOL    HW299637  11.059   5.923  11.009 -0.3922  0.8476  0.2743
30863SOL     OW99638   0.749   4.938   2.480 -0.0466 -0.1193  0.5053
30863SOL    HW199639   0.778   4.891   2.558  0.2588  0.6284  0.8501
30863SOL    HW299640   0.768   4.878   2.407 -1.2346 -1.2343  1.0687
30864SOL     OW99641   4.097   2.993   6.531 -0.1157  0.0634 -0.2614
30864SOL    HW199642   4.082   2.917   6.475 -0.7390 -0.8823  1.1425
30864SOL    HW299643   4.015   3.042   6.528  0.0409  0.3072 -0.6044
30865SOL     OW99644   3.754  10.371   4.325 -0.4224  0.3681 -0.6099
30865SOL    HW199645   3.738  10.287   4.282 -1.6022 -1.2974  2.7135
30865SOL    HW299646   3.676  10.422   4.306 -1.2272 -0.5845 -0.0052
30866SOL     OW99647   4.405   0.173   9.748  0.1114 -0.3367  0.0872
30866SOL    HW199648   4.312   0.195   9.753 -0.1676 -1.4324  0.0434
30866SOL    HW299649   4.412   0.113   9.674  1.0526  0.5888 -0.6065
30867SOL     OW99650   0.090   0.106   4.152 -0.6047 -0.1105 -0.3656
30867SOL    HW199651   0.177   0.123   4.116 -0.9242  0.9926 -0.6704
30867SOL    HW299652   0.047   0.054   4.085  0.1742 -1.6337  0.2776
30868SOL     OW99653   5.051   0.521   4.042  0.1718 -0.9207  0.1488
30868SOL    HW199654   5.119   0.465   4.078  0.5123 -0.5877  0.0312
30868SOL    HW299655   5.013   0.470   3.970  1.2470 -0.5635 -0.6994
30869SOL     OW99656   6.971  11.053   2.079 -0.1262  0.2188  0.5228
30869SOL    HW199657   6.950  10.985   2.015 -0.5480  0.3930  0.4752
30869SOL    HW299658   6.895  11.112   2.078  1.0420  1.7976 -0.8753
30870SOL     OW99659   8.298   8.594   3.866  0.0236 -0.6031  0.3925
30870SOL    HW199660   8.309   8.689   3.864 -1.2759 -0.4469 -1.7942
30870SOL    HW299661   8.368   8.563   3.925  1.8764  1.5005 -0.5472
30871SOL     OW99662   5.057   7.533   6.293 -0.0955  0.1390  0.0580
30871SOL    HW199663   5.018   7.614   6.260 -1.1759 -0.0212  0.8849
30871SOL    HW299664   5.058   7.474   6.217 -1.3461  0.2064 -0.0304
30872SOL     OW99665  11.349   7.258   4.294 -1.0529 -0.6491  0.4983
30872SOL    HW199666  11.438   7.261   4.260 -0.9467  0.5714  0.8308
30872SOL    HW299667  11.340   7.170   4.331 -0.1083 -0.8962  0.1700
30873SOL     OW99668  11.069  11.946   1.940  0.5092  0.2846  0.5894
30873SOL    HW199669  11.128  11.949   1.865  1.6812 -3.2918  1.1894
30873SOL    HW299670  10.996  11.893   1.911 -0.0075  0.5388  1.3843
30874SOL     OW99671   2.018   7.002   7.779 -0.2490  0.2004  0.3223
30874SOL    HW199672   2.097   6.993   7.725 -0.3485  0.7160  0.0778
30874SOL    HW299673   1.949   6.961   7.727 -0.3645  0.7853 -0.0020
30875SOL     OW99674  10.586   6.134  10.689  0.1680 -0.0954 -0.0285
30875SOL    HW199675  10.498   6.170  10.690  0.7149  1.3245  0.7035
30875SOL    HW299676  10.613   6.138  10.597  0.3094  1.7071  0.0551
30876SOL     OW99677   7.853   2.345   8.971 -0.0047 -0.2845  0.0840
30876SOL    HW199678   7.934   2.350   8.920  0.1520 -0.1952  0.3377
30876SOL    HW299679   7.811   2.264   8.942  1.5954 -1.9125  2.0180
30877SOL     OW99680  11.456  11.306  11.333 -0.0490  0.2958 -0.2433
30877SOL    HW199681  11.544  11.341  11.325 -0.2987  0.8008 -0.8937
30877SOL    HW299682  11.412  11.331  11.252 -1.6757  2.6654  1.2197
30878SOL     OW99683  10.389   3.040   3.139 -0.2697 -0.4344 -0.4558
30878SOL    HW199684  10.425   3.101   3.075 -0.2627 -1.7208 -1.7476
30878SOL    HW299685  10.448   2.964   3.135 -0.8170 -0.9203  0.3808
30879SOL     OW99686   6.076   6.026   0.763 -0.2415 -0.0604  0.0425
30879SOL    HW199687   6.072   6.105   0.817 -0.2499  0.4568 -0.7030
30879SOL    HW299688   6.168   5.998   0.769  0.1412  0.9184 -0.9601
30880SOL     OW99689   0.763   4.331   4.516  0.1110 -0.9787  0.6453
30880SOL    HW199690   0.808   4.380   4.448  0.2268 -2.1190 -0.1146
30880SOL    HW299691   0.832   4.309   4.579 -0.1800  1.0269  1.7602
30881SOL     OW99692   8.499  11.169   5.953  0.2535 -0.0021 -0.1740
30881SOL    HW199693   8.517  11.174   5.859  0.8601  1.5771 -0.0024
30881SOL    HW299694   8.562  11.228   5.993 -0.6132  0.0766  1.1485
30882SOL     OW99695   1.496   1.700   1.648  0.0611  0.3151 -0.2297
30882SOL    HW199696   1.574   1.676   1.699  0.4541 -1.1630 -1.4526
30882SOL    HW299697   1.423   1.665   1.698  0.4060 -0.7268 -0.4350
30883SOL     OW99698   4.495   9.983   2.804  0.6541 -0.0078  0.1294
30883SOL    HW199699   4.493   9.932   2.724  0.5741  1.3487 -0.7648
30883SOL    HW299700   4.586  10.010   2.814  0.9049 -1.1121  1.1523
30884SOL     OW99701   0.788  10.252  10.346  0.2740 -0.1214 -0.6931
30884SOL    HW199702   0.846  10.176  10.358  1.8828  1.0718 -0.6350
30884SOL    HW299703   0.841  10.316  10.300 -0.4495  1.6662  0.8084
30885SOL     OW99704   5.113  12.073   0.588 -0.2734 -0.1205 -0.4107
30885SOL    HW199705   5.026  12.091   0.552 -1.0151 -0.8685  0.9227
30885SOL    HW299706   5.142  11.994   0.542 -0.1197  0.3655 -1.1518
30886SOL     OW99707   0.784   0.157   1.507  0.2145 -0.0675  0.0037
30886SOL    HW199708   0.796   0.189   1.596  0.8378  1.3822 -0.5702
30886SOL    HW299709   0.851   0.089   1.496  0.2387 -0.1371  0.5839
30887SOL     OW99710  10.716   0.933   0.081 -0.1365  0.0617 -0.0957
30887SOL    HW199711  10.738   0.864   0.019  0.0259  0.4041 -0.4279
30887SOL    HW299712  10.793   0.939   0.138 -0.5636 -0.7242  0.5875
30888SOL     OW99713   4.363   6.739   1.762  0.0214 -0.1943 -0.3327
30888SOL    HW199714   4.439   6.691   1.729  2.6184  1.8615  2.1433
30888SOL    HW299715   4.328   6.684   1.832  0.7050 -0.1698  0.0405
30889SOL     OW99716   2.332   8.072  11.092  0.1574  0.0887  0.2915
30889SOL    HW199717   2.320   8.107  11.004  1.1552 -2.3876 -0.9319
30889SOL    HW299718   2.418   8.105  11.119  1.0436 -1.2044 -0.8038
30890SOL     OW99719   0.882   3.828   7.273  0.1853  0.1001  0.2933
30890SOL    HW199720   0.817   3.871   7.328  1.5754  1.3349  1.0669
30890SOL    HW299721   0.843   3.744   7.250 -1.9076  1.0340  0.2077
30891SOL     OW99722   7.980   7.323   3.567 -0.5754  0.2658 -0.0062
30891SOL    HW199723   7.984   7.342   3.661 -1.5011  1.4040 -0.1773
30891SOL    HW299724   8.031   7.242   3.557 -0.0188  0.4119  1.3888
30892SOL     OW99725   7.561  11.272  11.949  0.0842  0.1979 -0.1446
30892SOL    HW199726   7.624  11.246  11.882  0.6045 -0.2628  0.5046
30892SOL    HW299727   7.610  11.329  12.008 -0.3229  0.4780 -0.0721
30893SOL     OW99728   4.963   2.357  11.197 -0.8021  0.6525  0.3027
30893SOL    HW199729   5.038   2.417  11.202 -0.7975  0.8705 -1.6419
30893SOL    HW299730   4.904   2.386  11.267  0.1511  1.5929  0.7304
30894SOL     OW99731   0.277  10.178  11.750 -0.1101  0.6210  0.1661
30894SOL    HW199732   0.204  10.116  11.754 -0.7050  1.3682  1.8994
30894SOL    HW299733   0.350  10.131  11.791  0.6642 -0.3776 -2.1626
30895SOL     OW99734   7.566   7.185   9.311 -0.0060  0.4458  0.0360
30895SOL    HW199735   7.634   7.229   9.261  1.1455 -0.0978  1.0854
30895SOL    HW299736   7.594   7.093   9.314 -1.3862 -0.0240 -0.4924
30896SOL     OW99737   0.240   1.538   2.474 -0.4060  0.3507 -0.0867
30896SOL    HW199738   0.257   1.570   2.385 -0.8020  1.5730  0.2679
30896SOL    HW299739   0.166   1.589   2.505  1.0175  1.4385  1.7208
30897SOL     OW99740  10.620   4.613   5.078 -0.2246 -0.3984 -0.1169
30897SOL    HW199741  10.582   4.627   5.165 -0.2084 -1.3920  0.0631
30897SOL    HW299742  10.590   4.688   5.027 -2.6943 -1.2439 -0.0547
30898SOL     OW99743   3.259   0.384   1.313  0.2383 -0.0188  0.6371
30898SOL    HW199744   3.268   0.300   1.358 -1.2384  0.4122  1.8523
30898SOL    HW299745   3.305   0.447   1.369 -2.5860  0.7247  2.3455
30899SOL     OW99746   4.639   8.125  11.607  0.3928 -0.0250  0.1159
30899SOL    HW199747   4.688   8.193  11.653  1.6533 -1.7341  1.4502
30899SOL    HW299748   4.586   8.172  11.543  2.1097  2.0926  0.1528
30900SOL     OW99749  11.834   8.656   6.869  0.1388  0.0573  0.0809
30900SOL    HW199750  11.925   8.663   6.896  1.2560 -1.2274 -2.9213
30900SOL    HW299751  11.805   8.747   6.857  1.3778  0.4565  0.0004
30901SOL     OW99752   1.125   1.761   5.543  0.0427 -0.3648  0.2760
30901SOL    HW199753   1.167   1.724   5.621  1.3487  4.3188  2.1284
30901SOL    HW299754   1.197   1.782   5.484 -0.3821  0.8678  0.1606
30902SOL     OW99755   9.257   2.481  11.156 -0.5211 -0.0620 -0.5523
30902SOL    HW199756   9.170   2.511  11.131 -0.1282  1.2162 -0.4761
30902SOL    HW299757   9.302   2.466  11.072 -0.4550  0.4055 -0.6053
30903SOL     OW99758   0.484  11.931   1.563  0.0127  0.2841 -0.1251
30903SOL    HW199759   0.468  11.982   1.642  0.0472  1.6534 -0.9709
30903SOL    HW299760   0.411  11.952   1.505  0.1978 -0.3954 -0.6233
30904SOL     OW99761  12.449   7.383   7.393 -1.0580 -0.0698 -0.4729
30904SOL    HW199762  12.381   7.336   7.442 -0.4877  1.6724  2.2482
30904SOL    HW299763  12.527   7.328   7.402 -0.0246  1.6697  3.8784
30905SOL     OW99764   2.333   7.888   9.803  0.3267  0.3029 -0.2060
30905SOL    HW199765   2.370   7.933   9.879 -1.3023  0.6647  0.4076
30905SOL    HW299766   2.409   7.864   9.750  1.3920  1.6497  0.6428
30906SOL     OW99767   8.338   0.698  11.158 -0.7022 -0.1550  0.3585
30906SOL    HW199768   8.378   0.710  11.072 -1.0781 -0.2957  0.1613
30906SOL    HW299769   8.253   0.657  11.140  0.3544 -2.8171  0.9551
30907SOL     OW99770   3.834   6.725   5.048 -0.5146  0.8497  0.1491
30907SOL    HW199771   3.779   6.665   5.098  0.0354  0.9307  0.8694
30907SOL    HW299772   3.786   6.809   5.050 -0.5934  0.7997  0.3606
30908SOL     OW99773   9.893   2.090  12.503 -0.3216  0.1077  0.1565
30908SOL    HW199774   9.962   2.117  12.442 -1.7610  2.5677 -0.5649
30908SOL    HW299775   9.934   2.091  12.589  1.0385 -0.5301 -0.4677
30909SOL     OW99776   0.348   9.426   0.399  0.6451  0.4389  0.0721
30909SOL    HW199777   0.282   9.470   0.345  0.8893  2.5687  1.3867
30909SOL    HW299778   0.314   9.337   0.410 -0.7869  0.7801 -1.2653
30910SOL     OW99779   8.301   9.228   6.153 -0.5560  0.4844 -0.3518
30910SOL    HW199780   8.310   9.207   6.060 -0.2272 -0.9763 -0.0192
30910SOL    HW299781   8.215   9.267   6.161 -0.3407  1.2109 -1.3641
30911SOL     OW99782   7.011   2.575   7.402  0.2073  0.9014 -0.0325
30911SOL    HW199783   7.086   2.517   7.397  1.6523  2.6398  0.5925
30911SOL    HW299784   6.962   2.544   7.478 -0.7237 -1.2961 -1.4157
30912SOL     OW99785   9.966   7.543   1.571 -0.0290  0.3158  0.1378
30912SOL    HW199786  10.036   7.479   1.585 -1.1376 -0.6468  1.7268
30912SOL    HW299787   9.980   7.609   1.639 -0.3781  0.3782  0.1523
30913SOL     OW99788   7.354   9.500   8.674  0.3597 -0.6900  0.3206
30913SOL    HW199789   7.416   9.556   8.627 -0.2566  0.9474  1.3661
30913SOL    HW299790   7.329   9.433   8.610 -1.2014  1.9695 -2.1381
30914SOL     OW99791   1.006   5.791   2.692 -0.2627 -0.6650 -0.2765
30914SOL    HW199792   0.937   5.842   2.734  2.2724  1.0206  2.2466
30914SOL    HW299793   1.041   5.849   2.625 -0.6073 -1.1303 -0.8720
30915SOL     OW99794   5.376  10.086   6.834  0.8713 -0.4278 -0.2772
30915SOL    HW199795   5.402  10.175   6.811 -1.1908  0.2286 -0.2515
30915SOL    HW299796   5.369  10.040   6.751 -2.5710  0.8015 -0.8358
30916SOL     OW99797   6.026   0.930   2.665  0.2581  0.3014 -0.4255
30916SOL    HW199798   5.974   1.006   2.640  1.4276  1.1235 -0.4541
30916SOL    HW299799   6.024   0.873   2.588  0.1762  0.7647 -0.7694
30917SOL     OW99800   7.494   1.181   5.330 -0.3303 -0.4896  0.2824
30917SOL    HW199801   7.454   1.118   5.271 -0.6131  0.9216 -1.1012
30917SOL    HW299802   7.422   1.238   5.357  0.1473  0.0456  0.4465
30918SOL     OW99803   0.119   4.513   3.574 -0.1022 -0.2184 -0.2235
30918SOL    HW199804   0.126   4.537   3.482  0.0782 -0.2219 -0.2103
30918SOL    HW299805   0.026   4.527   3.595  0.2432  1.8970  0.1689
30919SOL     OW99806   8.466   0.755   9.922  0.0931 -0.2212  0.5891
30919SOL    HW199807   8.374   0.780   9.930  0.0881 -0.3290  0.8679
30919SOL    HW299808   8.466   0.684   9.857  0.0793  0.3295 -0.0145
30920SOL     OW99809   1.694   2.597   9.938  0.6108  0.1663 -0.8210
30920SOL    HW199810   1.765   2.641   9.985 -1.9915  1.0545  2.6162
30920SOL    HW299811   1.708   2.504   9.956  0.7009  0.3615  0.1815
30921SOL     OW99812   5.652   0.108   2.694 -0.0950 -0.0693  0.0298
30921SOL    HW199813   5.663   0.015   2.675  1.9804  0.1427 -0.0806
30921SOL    HW299814   5.669   0.116   2.788  2.4870  0.4816 -0.4057
30922SOL     OW99815   3.676  10.492   4.026  0.4600 -0.0402 -0.4211
30922SOL    HW199816   3.651  10.579   3.997  1.6722  0.1824 -0.8351
30922SOL    HW299817   3.659  10.492   4.120  3.4487  1.7964  0.2608
30923SOL     OW99818   1.509   2.076   8.249  0.3328  0.2547 -0.2058
30923SOL    HW199819   1.562   2.112   8.321  0.2143  0.3368 -0.1595
30923SOL    HW299820   1.569   2.019   8.201  0.3318 -0.0443  0.1392
30924SOL     OW99821   4.041   5.195   0.595 -0.3102 -0.0713  1.0873
30924SOL    HW199822   4.132   5.196   0.625  0.4509 -1.4303 -1.0049
30924SOL    HW299823   4.037   5.261   0.526 -0.7645 -0.4643  0.7323
30925SOL     OW99824   2.867   4.255  10.866 -0.3468 -0.3159 -0.2797
30925SOL    HW199825   2.952   4.291  10.893 -1.0224  0.9431  0.2713
30925SOL    HW299826   2.888   4.200  10.791  0.7198  1.7238 -1.5843
30926SOL     OW99827   9.552  11.138   7.610 -0.0627 -0.2661 -0.3723
30926SOL    HW199828   9.465  11.099   7.611  0.6816 -2.0424  0.7878
30926SOL    HW299829   9.581  11.135   7.702  1.6348 -0.7389 -0.8723
30927SOL     OW99830  11.916   7.578  11.630 -0.1316 -0.1479 -0.5390
30927SOL    HW199831  11.989   7.584  11.569 -1.7582 -0.4230 -2.6168
30927SOL    HW299832  11.914   7.664  11.673  0.3716  0.4669 -1.7097
30928SOL     OW99833  12.098   6.784   0.057  0.2433 -0.0129  0.0983
30928SOL    HW199834  12.146   6.703   0.074  0.0873  0.2408  1.8958
30928SOL    HW299835  12.155   6.853   0.088  0.5767  0.6393 -1.8647
30929SOL     OW99836  10.412  11.201   6.211 -0.3626 -0.2349 -0.2757
30929SOL    HW199837  10.422  11.294   6.230  0.0360 -0.0967 -1.1028
30929SOL    HW299838  10.465  11.187   6.133  0.6874 -1.4478  0.6210
30930SOL     OW99839   7.296   7.325   3.024 -0.7143  0.5215 -0.2904
30930SOL    HW199840   7.336   7.244   3.055 -2.0459 -1.0861 -2.4938
30930SOL    HW299841   7.279   7.376   3.104  2.6851 -0.0701  0.9540
30931SOL     OW99842   2.988   3.465   9.302 -0.3530 -0.6509  0.4675
30931SOL    HW199843   2.895   3.444   9.294 -0.0923 -2.0686  0.7251
30931SOL    HW299844   3.032   3.396   9.253  0.5446  0.4489 -0.3040
30932SOL     OW99845   6.508   4.200   3.170 -0.3970 -0.0287  0.6800
30932SOL    HW199846   6.568   4.266   3.205  0.2056  0.3575 -0.9454
30932SOL    HW299847   6.440   4.191   3.237  1.8347 -1.0660  2.9469
30933SOL     OW99848   3.638   3.987  11.548 -0.3950 -0.0662  0.0522
30933SOL    HW199849   3.668   4.078  11.541  0.0558 -0.3228 -1.9937
30933SOL    HW299850   3.706   3.944  11.600 -0.7449  0.8017  1.2604
30934SOL     OW99851   7.944  10.244   6.469  0.0226 -0.4644  0.2001
30934SOL    HW199852   7.978  10.209   6.386 -0.7910 -0.2561 -0.2244
30934SOL    HW299853   7.851  10.224   6.467 -0.0417 -0.2512  0.9706
30935SOL     OW99854   0.203   7.059   7.185 -0.0466  0.0465 -0.0186
30935SOL    HW199855   0.121   7.104   7.203 -0.3435 -0.9569  1.3380
30935SOL    HW299856   0.224   7.081   7.094 -1.6283  0.6024 -0.2757
30936SOL     OW99857  10.513   0.002   2.850  0.0789  0.2324 -0.5290
30936SOL    HW199858  10.423   0.034   2.858 -1.0754 -2.9935  0.9300
30936SOL    HW299859  10.555   0.026   2.933 -0.0761 -0.0560 -0.3674
30937SOL     OW99860   3.024  10.659  11.162 -0.5905 -0.3573 -0.5134
30937SOL    HW199861   3.009  10.649  11.068  0.8339  1.2492 -0.9522
30937SOL    HW299862   3.102  10.607  11.180 -0.1857  0.2444 -0.4755
30938SOL     OW99863   8.587   6.144  10.371 -0.8876 -0.2415 -0.2619
30938SOL    HW199864   8.557   6.123  10.460 -0.5536  1.3490  0.2651
30938SOL    HW299865   8.655   6.210  10.385 -1.8081  1.0812 -1.7620
30939SOL     OW99866   6.357   2.361   0.878  0.4258  0.3634 -0.3707
30939SOL    HW199867   6.412   2.283   0.870 -2.3808 -1.7383 -0.7361
30939SOL    HW299868   6.323   2.376   0.790  0.8053  1.9639 -0.2792
30940SOL     OW99869   2.717   0.840   8.220  0.1122 -0.2514  0.0848
30940SOL    HW199870   2.689   0.803   8.136 -1.7849  0.7592  0.2137
30940SOL    HW299871   2.746   0.764   8.271 -0.0095 -1.0455 -1.0043
30941SOL     OW99872   2.693   6.327   6.446  0.1220  0.6138  0.4105
30941SOL    HW199873   2.723   6.418   6.453 -0.5222  0.7735  1.2275
30941SOL    HW299874   2.603   6.334   6.415  0.2656  0.2211 -0.1045
30942SOL     OW99875   2.555  12.236   9.727 -0.0228  0.0465 -0.2738
30942SOL    HW199876   2.479  12.261   9.675  0.1033  0.0719 -0.4463
30942SOL    HW299877   2.604  12.177   9.671 -0.5362 -0.9398  0.2839
30943SOL     OW99878   1.707   7.544   5.535 -0.3205 -0.1947  0.1264
30943SOL    HW199879   1.726   7.635   5.559 -0.9818 -0.3352  1.2711
30943SOL    HW299880   1.738   7.492   5.609  0.2222 -0.9271 -0.5998
30944SOL     OW99881  11.833   4.843  11.813  0.0663 -0.0709  0.0627
30944SOL    HW199882  11.877   4.761  11.835 -1.9050 -1.3005 -0.3417
30944SOL    HW299883  11.794   4.872  11.895 -0.9894 -0.6873 -0.1975
30945SOL     OW99884   0.804   0.331   3.484  0.3266 -0.3046 -0.0864
30945SOL    HW199885   0.870   0.302   3.548 -0.5155  0.2295  1.0636
30945SOL    HW299886   0.754   0.251   3.465  0.9064 -0.5792 -0.4949
30946SOL     OW99887   4.513  11.168   6.367 -0.6034 -0.2251 -0.2173
30946SOL    HW199888   4.495  11.249   6.415 -2.6360  0.6035 -2.2219
30946SOL    HW299889   4.603  11.178   6.337 -0.2009  0.4212  1.1078
30947SOL     OW99890   2.994   5.206   7.833  0.1452  0.1305  0.5596
30947SOL    HW199891   3.011   5.284   7.886 -1.3478  1.5305 -0.9025
30947SOL    HW299892   3.064   5.204   7.768 -0.3463  0.8642 -0.0146
30948SOL     OW99893   2.781   6.239   3.449  0.3031  0.1635  0.2006
30948SOL    HW199894   2.691   6.234   3.481  0.5838 -0.3663  0.9430
30948SOL    HW299895   2.794   6.156   3.403  0.6763 -0.1448  0.8448
30949SOL     OW99896   3.283   0.018  10.915 -0.3393  0.2405  0.7786
30949SOL    HW199897   3.213  -0.024  10.965 -1.0867 -0.6341 -0.9164
30949SOL    HW299898   3.353  -0.047  10.913 -0.3549  0.2290  0.5960
30950SOL     OW99899   6.612   7.819   5.276 -0.0427  0.6466 -0.1575
30950SOL    HW199900   6.660   7.878   5.218  0.1997  0.8754  0.2704
30950SOL    HW299901   6.631   7.732   5.243 -0.6567  0.8170 -0.9946
30951SOL     OW99902   8.440   7.291   8.512 -0.0380 -0.1504 -0.3682
30951SOL    HW199903   8.451   7.358   8.444  1.5026 -0.2603 -0.2642
30951SOL    HW299904   8.460   7.208   8.468 -2.6688 -0.6939 -0.6911
30952SOL     OW99905   9.451  11.249   5.987 -0.0754 -0.6831 -0.4569
30952SOL    HW199906   9.441  11.154   5.973 -2.8138 -0.2470 -2.0749
30952SOL    HW299907   9.509  11.277   5.916 -1.0052 -0.8622 -1.3100
30953SOL     OW99908   7.068   7.848   7.311 -0.0018  0.0080 -0.0739
30953SOL    HW199909   7.152   7.822   7.273  0.3006  2.7510 -1.5342
30953SOL    HW299910   7.090   7.889   7.394 -0.0441 -0.3434  0.1145
30954SOL     OW99911  12.476  12.018   5.135  0.0730 -0.1075  0.0213
30954SOL    HW199912  12.524  12.095   5.163  1.2746 -0.5068 -0.8395
30954SOL    HW299913  12.427  11.990   5.212 -0.2573  1.4092  0.3801
30955SOL     OW99914  12.096   0.239   7.827 -0.2573  0.1295 -0.0500
30955SOL    HW199915  12.110   0.242   7.732 -0.5614 -1.4758 -0.1830
30955SOL    HW299916  12.121   0.326   7.858 -0.1906  0.6971 -1.6030
30956SOL     OW99917  10.255  11.631   0.572  0.8503  0.4941  0.0568
30956SOL    HW199918  10.296  11.553   0.536  1.6332  1.3880 -1.0944
30956SOL    HW299919  10.170  11.602   0.604 -0.2879 -0.3088 -3.2399
30957SOL     OW99920   6.522  10.753  11.304 -0.3534 -0.0183  0.0109
30957SOL    HW199921   6.427  10.740  11.300 -0.2543 -0.6271 -0.6480
30957SOL    HW299922   6.559  10.665  11.294  0.3512  0.5078 -4.2543
30958SOL     OW99923  11.525   9.743   9.702 -0.2454 -0.0329 -0.2599
30958SOL    HW199924  11.545   9.675   9.766 -0.5870 -0.2213 -0.3537
30958SOL    HW299925  11.449   9.710   9.654  0.8661 -0.5665 -1.7399
30959SOL     OW99926   3.951   7.376   5.438  0.3928  0.2578 -0.2694
30959SOL    HW199927   3.940   7.463   5.476  0.5959 -0.2963  1.1132
30959SOL    HW299928   3.865   7.352   5.406 -0.6776 -0.6450  2.9551
30960SOL     OW99929   2.871   5.379   8.511 -0.7813  0.2902 -0.0012
30960SOL    HW199930   2.886   5.377   8.605  2.2379 -0.3355 -0.4017
30960SOL    HW299931   2.836   5.466   8.494 -2.9859 -0.1346  1.8048
30961SOL     OW99932   1.913   0.922   0.379  0.0234 -0.0276  0.2684
30961SOL    HW199933   2.003   0.908   0.407 -0.0474 -0.8285  0.1124
30961SOL    HW299934   1.892   0.845   0.326 -0.4312  0.6069 -0.4971
30962SOL     OW99935  12.328  11.209   8.386 -0.3450 -0.3190 -0.3035
30962SOL    HW199936  12.412  11.166   8.402 -0.5642 -0.0542  1.8696
30962SOL    HW299937  12.299  11.174   8.302  1.5199 -1.0862 -0.6768
30963SOL     OW99938   4.850   0.025  11.962 -0.2440  0.0256  0.5870
30963SOL    HW199939   4.846   0.076  12.043  1.5321  0.5874  0.3651
30963SOL    HW299940   4.827   0.089  11.893 -0.5494 -0.1324  0.5436
30964SOL     OW99941   7.357   2.622   4.497  0.5062  0.0239 -0.7060
30964SOL    HW199942   7.441   2.588   4.527  0.7832  2.0078  1.0416
30964SOL    HW299943   7.379   2.700   4.446 -0.2649  0.8138  0.1347
30965SOL     OW99944   9.344  11.613  10.563 -0.3176 -0.0054  0.4600
30965SOL    HW199945   9.406  11.622  10.636  0.8799  0.6695 -0.6032
30965SOL    HW299946   9.340  11.519  10.547  0.8424 -0.0331  0.2258
30966SOL     OW99947   8.994   4.939   3.328  0.0087 -0.3016  0.4297
30966SOL    HW199948   9.037   4.900   3.404  0.0232 -0.0595  0.5471
30966SOL    HW299949   9.065   4.955   3.266 -0.0675 -0.9302  0.1765
30967SOL     OW99950   8.023   9.675   4.620  0.1595  0.3573  0.2257
30967SOL    HW199951   8.052   9.644   4.534  1.0867 -0.1499  0.7049
30967SOL    HW299952   7.933   9.642   4.628 -0.4383  1.5716 -1.1052
30968SOL     OW99953   5.441   9.005   4.514 -0.2986 -0.4701  0.1184
30968SOL    HW199954   5.347   8.989   4.508  0.0957 -2.9808 -0.5036
30968SOL    HW299955   5.451   9.066   4.587 -2.3821 -0.1882  0.2144
30969SOL     OW99956   8.756   8.614   7.208 -0.3965  0.3759 -0.2602
30969SOL    HW199957   8.819   8.608   7.280 -0.5586  1.5326 -0.0122
30969SOL    HW299958   8.804   8.580   7.132 -0.4784 -1.6162  0.5020
30970SOL     OW99959   3.372   6.392   7.821  0.2688  0.6051 -0.8406
30970SOL    HW199960   3.284   6.383   7.784  0.1365 -2.0566 -0.0458
30970SOL    HW299961   3.431   6.381   7.747 -0.0440 -1.1433 -0.8517
30971SOL     OW99962  10.621   2.741   5.642 -0.5971 -0.3619 -0.3936
30971SOL    HW199963  10.602   2.674   5.576 -0.7110 -2.1032  1.3142
30971SOL    HW299964  10.696   2.789   5.607 -0.2283 -1.6820 -1.4862
30972SOL     OW99965   4.231  10.973   3.592  0.5502 -0.3907  0.8578
30972SOL    HW199966   4.313  11.008   3.627  0.5348 -2.0672  2.7444
30972SOL    HW299967   4.174  11.050   3.584  1.8079  0.5860  0.9319
30973SOL     OW99968   2.830   4.564   3.777  0.8701  0.1629  0.1553
30973SOL    HW199969   2.878   4.547   3.858  0.0276 -1.2785  0.3831
30973SOL    HW299970   2.844   4.485   3.724  0.0870  0.4140 -0.4438
30974SOL     OW99971   1.647   2.067   3.315  0.0034 -0.5153 -0.0263
30974SOL    HW199972   1.739   2.053   3.336  0.0881  2.1447  1.7800
30974SOL    HW299973   1.641   2.051   3.221  2.2542 -0.9538 -0.1392
30975SOL     OW99974  10.954  12.540   7.501 -0.5173 -0.4866  0.1434
30975SOL    HW199975  10.865  12.562   7.472 -0.4918 -0.1766  0.2944
30975SOL    HW299976  10.963  12.447   7.481 -0.4552 -0.2594 -0.9621
30976SOL     OW99977   0.138  10.265   1.006  0.1137  0.3782  0.2434
30976SOL    HW199978   0.116  10.204   0.936 -0.8575 -0.1153  0.9426
30976SOL    HW299979   0.231  10.283   0.995  0.1692 -0.3898 -0.6268
30977SOL     OW99980   0.245   8.478   1.076 -0.0730  0.2645  0.0348
30977SOL    HW199981   0.297   8.522   1.008  0.9389  0.5552  0.9708
30977SOL    HW299982   0.200   8.408   1.029  1.8040 -0.5219 -0.7166
30978SOL     OW99983   7.093   7.648  10.404 -0.0898  0.4537  0.0031
30978SOL    HW199984   7.164   7.696  10.447  0.6379 -0.8055  0.2557
30978SOL    HW299985   7.101   7.673  10.312  0.9104  0.0708 -0.0273
30979SOL     OW99986   2.060   7.659   4.936  0.3304 -0.2957 -0.8229
30979SOL    HW199987   2.085   7.636   5.025  1.7340  0.6600 -0.9511
30979SOL    HW299988   1.993   7.727   4.946  3.2935  2.7804 -0.4119
30980SOL     OW99989   9.751   1.781   6.692  0.0619 -0.2579  0.0581
30980SOL    HW199990   9.734   1.723   6.766  2.8264 -1.0783  0.1544
30980SOL    HW299991   9.841   1.811   6.705 -0.8962  3.4178 -0.4754
30981SOL     OW99992   6.520   4.423   3.994  0.3615  0.0327 -0.5971
30981SOL    HW199993   6.544   4.360   3.926  2.5439 -1.0529  1.0419
30981SOL    HW299994   6.425   4.414   4.003  0.5478 -2.9479 -0.5839
30982SOL     OW99995  10.317  10.229  12.056  0.2018  0.5094 -0.1493
30982SOL    HW199996  10.358  10.264  12.135  1.0478  1.7247 -1.0860
30982SOL    HW299997  10.348  10.286  11.986 -0.6189 -0.4706 -1.3511
30983SOL     OW99998   2.771  12.381   9.830  0.6282 -0.1494  0.2157
30983SOL    HW199999   2.792  12.446   9.764  0.4817 -0.6822 -0.3621
30983SOL    HW2    0   2.685  12.348   9.804 -0.5439  1.2900  1.9704
30984SOL     OW    1   6.948   3.041  11.509  0.2319  0.0098 -0.3400
30984SOL    HW1    2   6.943   3.097  11.432 -3.5985  0.5461  0.0803
30984SOL    HW2    3   6.930   3.101  11.582 -0.2676 -1.1354  0.4989
30985SOL     OW    4   2.982   0.488  12.585  0.5617  0.2099  0.3160
30985SOL    HW1    5   2.976   0.420  12.652  1.4453 -0.4433 -0.2361
30985SOL    HW2    6   3.042   0.553  12.624 -1.0742  1.2173  1.2622
30986SOL     OW    7   7.761   6.152   8.421  0.4938  0.6425  0.3143
30986SOL    HW1    8   7.820   6.088   8.460  0.0276  0.5792  0.9329
30986SOL    HW2    9   7.795   6.165   8.333  0.7221 -0.3038  0.2453
30987SOL     OW   10   7.749   2.237   6.494 -0.6237 -0.2924 -0.2617
30987SOL    HW1   11   7.819   2.300   6.479  0.8029 -1.2749  1.7754
30987SOL    HW2   12   7.669   2.284   6.471  0.5927  1.2401 -1.5879
30988SOL     OW   13  10.524   2.526   2.536  0.5134  0.5429 -0.3147
30988SOL    HW1   14  10.565   2.583   2.601  1.2699 -1.4329  1.0415
30988SOL    HW2   15  10.436   2.511   2.570  1.3455 -1.6036  1.1203
30989SOL     OW   16   7.545  11.121   2.347  0.5549 -0.1614  0.0169
30989SOL    HW1   17   7.621  11.085   2.301  0.6049 -0.6337  0.4611
30989SOL    HW2   18   7.537  11.067   2.426 -0.9742 -0.9216 -0.6062
30990SOL     OW   19   0.746   2.731   1.840  0.1798  0.3682  0.4258
30990SOL    HW1   20   0.751   2.667   1.769 -2.7932  0.4139  0.0783
30990SOL    HW2   21   0.799   2.804   1.811  2.4315 -1.2522  0.1662
30991SOL     OW   22   0.636   4.118  12.147 -0.0643 -0.5640  0.5316
30991SOL    HW1   23   0.701   4.103  12.216  1.0853  0.3874 -0.3043
30991SOL    HW2   24   0.650   4.046  12.085  0.1406 -0.4143  0.4018
30992SOL     OW   25  12.339   5.065   9.606 -0.3610 -0.6237  0.2333
30992SOL    HW1   26  12.303   5.144   9.566 -1.1070 -0.3699  1.3690
30992SOL    HW2   27  12.303   4.993   9.554  0.6803 -0.2322 -1.0875
30993SOL     OW   28   2.722   8.728   7.969 -0.4393 -0.0796  0.5816
30993SOL    HW1   29   2.700   8.793   7.902  0.0254 -0.6321 -0.1329
30993SOL    HW2   30   2.713   8.644   7.924 -0.8243 -0.5032  1.4283
30994SOL     OW   31   8.128   8.242   6.670 -0.0164  0.4763 -0.1401
30994SOL    HW1   32   8.079   8.199   6.600  1.0700  0.3537 -0.8480
30994SOL    HW2   33   8.136   8.333   6.641  0.7092  0.3553 -0.3428
30995SOL     OW   34   8.060   2.333   1.191 -0.0519  0.5061 -0.0566
30995SOL    HW1   35   8.148   2.299   1.205 -0.6263 -2.0364 -1.8965
30995SOL    HW2   36   8.060   2.364   1.100 -1.5072 -1.4498 -0.8121
30996SOL     OW   37   3.045   5.119   2.965 -0.0254 -0.0794 -0.4828
30996SOL    HW1   38   3.108   5.190   2.980  0.1420 -0.0776 -1.1603
30996SOL    HW2   39   2.978   5.158   2.908 -1.1360  0.1884  0.9553
30997SOL     OW   40   3.284   1.393   8.388  0.1904 -0.1249 -0.6616
30997SOL    HW1   41   3.337   1.383   8.466 -0.1080 -1.5115 -0.6127
30997SOL    HW2   42   3.203   1.346   8.408 -0.5096  0.8003 -1.2401
30998SOL     OW   43  10.726   2.760  12.147  0.1292  0.1062  0.0220
30998SOL    HW1   44  10.757   2.712  12.224 -0.8568 -0.9608 -0.2186
30998SOL    HW2   45  10.643   2.799  12.175  0.0982  0.2688 -0.2992
30999SOL     OW   46   4.959   9.564  10.244  0.6262  0.5512  0.1843
30999SOL    HW1   47   5.028   9.588  10.307  2.6868  1.3009 -2.1986
30999SOL    HW2   48   4.982   9.476  10.217 -0.8515 -0.1688  1.1628
31000SOL     OW   49   9.100   9.694   6.292  0.5929 -0.2081 -0.1298
31000SOL    HW1   50   9.168   9.628   6.303 -0.1832 -0.9178  0.5283
31000SOL    HW2   51   9.026   9.646   6.256  0.2190  0.4279 -0.2264
31001SOL     OW   52   5.450   7.772   3.698 -0.4833 -0.8467 -0.0124
31001SOL    HW1   53   5.504   7.788   3.776  0.1276 -1.4727 -0.2938
31001SOL    HW2   54   5.405   7.689   3.717 -0.1653 -1.1144 -0.4103
31002SOL     OW   55  10.925   1.243   3.386  0.1551  0.0659 -0.5144
31002SOL    HW1   56  10.959   1.207   3.304  0.2554  1.9929 -1.3486
31002SOL    HW2   57  10.993   1.303   3.416 -0.5002  0.4398  0.2669
31003SOL     OW   58  10.532   8.536   5.447 -0.7187 -0.9129  0.5057
31003SOL    HW1   59  10.486   8.566   5.525 -0.7548  0.2431  0.0569
31003SOL    HW2   60  10.624   8.530   5.474  0.0829  3.7182 -0.3836
31004SOL     OW   61   7.023   7.678   3.228  0.0372  0.0867 -0.0479
31004SOL    HW1   62   6.989   7.649   3.312 -0.0242 -0.4044 -0.2364
31004SOL    HW2   63   6.945   7.693   3.175  0.0897 -0.4160 -0.2770
31005SOL     OW   64   9.561  11.469   1.804  0.5821  0.1774 -0.1115
31005SOL    HW1   65   9.578  11.375   1.806  0.3218  0.1305 -0.1033
31005SOL    HW2   66   9.468  11.476   1.783 -0.7509  0.2562  4.5877
31006SOL     OW   67  10.278  11.827   5.000  0.1819 -0.6144  0.3886
31006SOL    HW1   68  10.316  11.865   5.079 -1.2821  0.5732  0.5796
31006SOL    HW2   69  10.270  11.734   5.019 -0.1087 -0.3479  1.6382
31007SOL     OW   70   8.682   7.353  11.610  0.2596  0.5546 -0.1051
31007SOL    HW1   71   8.689   7.258  11.603 -1.3939  0.4537 -0.9751
31007SOL    HW2   72   8.651   7.380  11.523  0.0199  1.8046  0.3586
31008SOL     OW   73  12.206   5.203   1.774 -0.1887 -0.3963 -0.6317
31008SOL    HW1   74  12.166   5.201   1.861  0.2596  0.3393 -0.3997
31008SOL    HW2   75  12.145   5.154   1.719 -0.5383 -0.7695  0.0685
31009SOL     OW   76   6.142   0.531   7.056 -0.2626  0.1530 -0.0482
31009SOL    HW1   77   6.128   0.614   7.010 -1.7883  0.2276  0.4898
31009SOL    HW2   78   6.200   0.553   7.128 -3.2121  1.5661  2.0905
31010SOL     OW   79  10.764   8.385  10.041 -0.5928  0.4938 -0.7216
31010SOL    HW1   80  10.852   8.419  10.058 -0.4975 -0.7351  1.8741
31010SOL    HW2   81  10.778   8.293  10.018 -1.1656  0.2453 -0.1185
31011SOL     OW   82  10.703   9.911   2.457 -0.1398 -0.2933  0.3198
31011SOL    HW1   83  10.791   9.925   2.489  0.0839 -1.8746  0.4892
31011SOL    HW2   84  10.666   9.999   2.446  1.3164  0.3678  0.5891
31012SOL     OW   85   7.054   3.582   6.274 -0.4007 -0.0925 -0.0841
31012SOL    HW1   86   7.031   3.526   6.348 -0.0266  0.8913  0.7935
31012SOL    HW2   87   7.064   3.669   6.312  1.0620  0.1941 -1.0745
31013SOL     OW   88   5.303   6.700   9.601 -0.2122 -0.6172 -0.0060
31013SOL    HW1   89   5.261   6.658   9.526 -0.3240  0.5508 -0.6108
31013SOL    HW2   90   5.394   6.712   9.573  0.6195 -3.1168  1.2875
31014SOL     OW   91   0.948   7.587   0.851  0.0398  0.5953 -0.1965
31014SOL    HW1   92   0.889   7.570   0.778  2.2850 -1.5489 -1.6662
31014SOL    HW2   93   0.944   7.507   0.904  2.3889 -0.1194 -0.9794
31015SOL     OW   94   6.902  10.966   9.301 -0.2138  0.2700  0.1679
31015SOL    HW1   95   6.919  10.873   9.288  0.8458  0.3042  1.1909
31015SOL    HW2   96   6.820  10.969   9.349 -1.7276 -0.0063 -2.2339
31016SOL     OW   97   8.742   2.426   0.697  0.1904 -0.4634  0.0657
31016SOL    HW1   98   8.749   2.415   0.602  0.8055 -0.3536  0.0901
31016SOL    HW2   99   8.683   2.356   0.726  1.5053 -1.7154 -0.1646
31017SOL     OW  100   9.808   7.310   4.681  0.0212 -0.1328  0.2244
31017SOL    HW1  101   9.765   7.313   4.766 -1.7318 -1.1969 -0.5519
31017SOL    HW2  102   9.753   7.363   4.624 -0.1868 -1.3421 -0.7575
31018SOL     OW  103   8.838  12.060   1.646  0.3891 -0.3368 -0.0334
31018SOL    HW1  104   8.799  12.116   1.713  1.2401 -2.1794  2.1570
31018SOL    HW2  105   8.765  12.007   1.613  0.1066 -0.0023  0.0550
31019SOL     OW  106   5.329  11.672   6.866 -0.4127  0.1183 -0.0707
31019SOL    HW1  107   5.383  11.639   6.938  0.1789 -1.0603 -1.0150
31019SOL    HW2  108   5.376  11.749   6.834 -0.4486  0.3844  0.5090
31020SOL     OW  109   6.710   9.953   7.296  0.1468  0.0800 -0.7383
31020SOL    HW1  110   6.731   9.973   7.205  1.5168 -1.1750 -0.7172
31020SOL    HW2  111   6.782   9.992   7.346 -1.2480  1.9191 -0.0235
31021SOL     OW  112  11.464  12.255   3.175  0.0606 -0.6363  0.0679
31021SOL    HW1  113  11.555  12.259   3.144 -0.1736  0.1503 -0.5744
31021SOL    HW2  114  11.432  12.345   3.163 -0.9655 -1.0337 -0.2442
31022SOL     OW  115   5.438  10.789   4.394  0.0962  0.0857  0.4323
31022SOL    HW1  116   5.516  10.833   4.427  0.7355  1.3372 -2.4511
31022SOL    HW2  117   5.450  10.787   4.299 -2.6499 -1.1439  0.0163
31023SOL     OW  118   6.483   8.878  11.127  0.5238  0.1654  0.2427
31023SOL    HW1  119   6.566   8.925  11.122 -0.0216  0.9813 -1.8684
31023SOL    HW2  120   6.449   8.899  11.215  1.8330  1.0329  0.5649
31024SOL     OW  121  10.315   5.932   3.888  0.2334 -0.2243  0.0778
31024SOL    HW1  122  10.382   5.954   3.823  0.7227 -0.8488  0.3553
31024SOL    HW2  123  10.283   6.017   3.919  1.3352  0.1068  0.3753
31025SOL     OW  124   6.884   0.523   9.555  0.2997 -0.6293 -0.5393
31025SOL    HW1  125   6.815   0.569   9.604  2.2381  0.2205  1.5773
31025SOL    HW2  126   6.887   0.436   9.594  1.6759 -0.0314  0.8065
31026SOL     OW  127   2.712  11.371   7.065  0.0285 -0.4975 -0.8265
31026SOL    HW1  128   2.651  11.305   7.096 -0.7755  1.4239  2.0743
31026SOL    HW2  129   2.657  11.445   7.041  1.0673  0.6586  0.2213
31027SOL     OW  130   2.815   4.559  10.964  0.1582 -0.3943 -0.5369
31027SOL    HW1  131   2.805   4.497  10.892 -2.8383 -0.4551 -0.1972
31027SOL    HW2  132   2.726   4.578  10.992  1.1521  0.0158  2.8463
31028SOL     OW  133   4.200  10.698   7.519 -0.4046  0.4171 -0.0429
31028SOL    HW1  134   4.217  10.636   7.447 -0.2499 -0.4645  0.7400
31028SOL    HW2  135   4.150  10.768   7.477 -1.3738 -0.6666 -0.7867
31029SOL     OW  136   0.547   9.126   7.368 -0.1094  0.2139  0.2206
31029SOL    HW1  137   0.503   9.169   7.441 -1.2180 -1.0667  0.3364
31029SOL    HW2  138   0.616   9.074   7.408 -0.7532 -0.5329  0.3801
31030SOL     OW  139  12.402   8.856   6.665  0.0723 -0.3573 -0.0555
31030SOL    HW1  140  12.428   8.773   6.625  1.2657 -0.4294  0.8157
31030SOL    HW2  141  12.321   8.880   6.620  0.7070 -1.0359 -1.6464
31031SOL     OW  142   4.996   0.121   6.975  0.0121 -0.2284 -0.0741
31031SOL    HW1  143   5.061   0.093   6.911  0.9540 -0.3493  0.8971
31031SOL    HW2  144   4.922   0.063   6.961  0.3645 -0.5128 -0.7890
31032SOL     OW  145   7.883  11.893  10.576 -0.3300 -0.2705  0.1548
31032SOL    HW1  146   7.898  11.924  10.486  0.1704 -1.0044 -0.0283
31032SOL    HW2  147   7.829  11.815  10.565  0.4098 -0.8341  0.4223
31033SOL     OW  148   0.250   9.164   0.455 -0.1734 -0.1121  0.3084
31033SOL    HW1  149   0.188   9.095   0.480  1.3651 -0.8794  2.2625
31033SOL    HW2  150   0.287   9.134   0.372 -1.2526 -0.4222 -0.0769
31034SOL     OW  151   9.281   2.989  10.442 -0.6205 -0.1775  0.3726
31034SOL    HW1  152   9.232   3.048  10.385 -1.3349  0.1218  1.2728
31034SOL    HW2  153   9.295   2.911  10.388  1.7443  1.3467 -1.4163
31035SOL     OW  154   2.841   9.029   0.622  0.1022 -0.5471  0.2507
31035SOL    HW1  155   2.895   9.095   0.578 -0.9776 -0.8388 -1.6061
31035SOL    HW2  156   2.895   8.950   0.625 -0.4012 -1.0524 -2.2606
31036SOL     OW  157   1.515   8.330   0.966  0.2847  0.4282 -0.3181
31036SOL    HW1  158   1.609   8.311   0.973  0.0558 -0.9377 -0.5636
31036SOL    HW2  159   1.479   8.254   0.920 -1.4000 -0.5228  2.3358
31037SOL     OW  160   5.814   8.087   2.325 -0.5242  0.6920 -0.5110
31037SOL    HW1  161   5.874   8.089   2.251  2.1865  0.1134  1.4977
31037SOL    HW2  162   5.794   8.179   2.343  2.5946  1.2313  0.7745
31038SOL     OW  163   3.486   3.551   8.172 -0.4266  0.6582  0.7205
31038SOL    HW1  164   3.541   3.612   8.222  0.9739 -2.4359  3.3263
31038SOL    HW2  165   3.537   3.532   8.094 -0.0575  1.4383  0.7578
31039SOL     OW  166  10.951   3.609   4.618 -0.0058 -0.0740 -0.3075
31039SOL    HW1  167  10.988   3.636   4.534 -0.3261 -3.0554 -1.5252
31039SOL    HW2  168  10.862   3.581   4.597 -0.4553  0.1370  1.2329
31040SOL     OW  169   0.419   1.105  11.529 -0.5965 -0.1101 -0.0904
31040SOL    HW1  170   0.340   1.096  11.582 -1.6202  0.8749 -1.3720
31040SOL    HW2  171   0.394   1.163  11.457  0.8929 -0.8975 -1.3321
31041SOL     OW  172   8.916   9.297   7.319  0.7607 -0.2627  0.5252
31041SOL    HW1  173   8.884   9.254   7.398  1.0251  0.0992  0.8395
31041SOL    HW2  174   8.987   9.240   7.288 -0.3076 -1.1868 -0.3047
31042SOL     OW  175   0.903   8.484   4.243 -0.1722  0.2371  0.8389
31042SOL    HW1  176   0.978   8.502   4.300 -0.8001  0.1914  1.6933
31042SOL    HW2  177   0.872   8.571   4.216  0.3710  0.2475  0.2283
31043SOL     OW  178   5.536   9.095   8.618  0.1237  0.5246 -0.2129
31043SOL    HW1  179   5.523   9.005   8.648 -1.0900 -0.1009 -2.4315
31043SOL    HW2  180   5.484   9.148   8.679 -0.2729 -0.4223  0.2940
31044SOL     OW  181   9.302   7.132   8.521  0.1105  0.5960 -0.1579
31044SOL    HW1  182   9.234   7.166   8.462 -2.2275 -1.4267  1.2065
31044SOL    HW2  183   9.360   7.081   8.463 -1.6547 -0.6592 -0.9285
31045SOL     OW  184   4.078  11.646   1.371 -0.1789 -0.1489  0.4872
31045SOL    HW1  185   4.131  11.665   1.294  0.2136 -0.2183  0.7413
31045SOL    HW2  186   3.995  11.691   1.355  0.1010  0.2887  0.2735
31046SOL     OW  187   8.415  11.827  12.002 -0.0301  0.4495 -0.0735
31046SOL    HW1  188   8.491  11.842  11.945  0.6544  0.8028  0.9139
31046SOL    HW2  189   8.445  11.852  12.089 -1.2091  0.3475  0.3748
31047SOL     OW  190  10.848  11.515   5.466 -0.0801 -0.4959  0.3267
31047SOL    HW1  191  10.884  11.472   5.389  1.7197 -2.4489  2.1329
31047SOL    HW2  192  10.758  11.484   5.471  0.2132 -1.4843 -0.2213
31048SOL     OW  193  11.062   9.798  11.710  0.2276  0.1951 -0.5200
31048SOL    HW1  194  11.088   9.860  11.642 -1.8541  0.1781 -1.3930
31048SOL    HW2  195  11.118   9.721  11.696 -1.7350 -0.8061 -3.8472
31049SOL     OW  196   9.462  12.193   5.585 -0.1440 -0.5198 -0.0853
31049SOL    HW1  197   9.425  12.107   5.602 -2.2155  0.6450  2.0077
31049SOL    HW2  198   9.543  12.195   5.635 -1.2535 -0.5230  1.7932
31050SOL     OW  199   9.474   4.199   3.585 -0.5323 -0.2332  0.7260
31050SOL    HW1  200   9.514   4.186   3.671 -0.4605 -0.6085  0.6369
31050SOL    HW2  201   9.406   4.133   3.580  0.5728 -1.3580 -0.1761
31051SOL     OW  202   6.332  12.562   4.737  0.0991 -0.0291 -0.5328
31051SOL    HW1  203   6.386  12.492   4.700 -1.0445 -0.2525 -1.8924
31051SOL    HW2  204   6.337  12.549   4.831 -0.0887 -1.9852 -0.7472
31052SOL     OW  205   9.433   8.113   8.331 -0.4090  0.6574 -0.3270
31052SOL    HW1  206   9.394   8.072   8.254 -2.3449 -0.3120  1.0977
31052SOL    HW2  207   9.426   8.207   8.313 -0.0359  0.4545 -1.6730
31053SOL     OW  208   5.965  10.750   6.757  0.5880 -0.5224  0.5088
31053SOL    HW1  209   5.934  10.714   6.840  0.0824  0.2193  0.6513
31053SOL    HW2  210   5.970  10.844   6.772  2.9370 -0.5760  0.4915
31054SOL     OW  211   4.499   3.464   8.389  0.0254 -0.4641  0.0040
31054SOL    HW1  212   4.468   3.381   8.424 -1.5281  0.3024  0.5640
31054SOL    HW2  213   4.430   3.526   8.411  0.5478  0.7248 -1.5394
31055SOL     OW  214   8.854   6.719   0.879 -0.8372 -0.0708  0.0983
31055SOL    HW1  215   8.909   6.765   0.815 -1.5506  0.0466 -0.4396
31055SOL    HW2  216   8.906   6.719   0.959 -1.4538  3.2500  0.6580
31056SOL     OW  217   8.798   0.363   3.653  0.6549 -0.4785  0.2406
31056SOL    HW1  218   8.804   0.295   3.720 -0.3380  0.2537  1.0982
31056SOL    HW2  219   8.741   0.429   3.691 -1.2729 -0.7571 -1.9267
31057SOL     OW  220  10.902   6.121   1.117 -0.0525  0.0896  0.1721
31057SOL    HW1  221  10.951   6.059   1.171  1.9532  0.8422 -0.7186
31057SOL    HW2  222  10.931   6.207   1.146 -1.6294  0.6106  0.3061
31058SOL     OW  223   6.381   8.569   0.856 -0.2339 -0.1325  0.3014
31058SOL    HW1  224   6.292   8.604   0.864 -0.4316 -0.6249  0.2891
31058SOL    HW2  225   6.396   8.521   0.938  0.9991  2.0868  1.4589
31059SOL     OW  226   3.440   8.934  12.350 -0.2817 -0.6965  0.1429
31059SOL    HW1  227   3.462   8.841  12.343 -1.2353 -0.8419 -1.5694
31059SOL    HW2  228   3.349   8.939  12.319 -0.2643  0.7903  0.2828
31060SOL     OW  229   8.580   3.873   4.498  0.2657 -0.1519 -0.2362
31060SOL    HW1  230   8.673   3.855   4.484 -0.1457 -1.0911 -2.1323
31060SOL    HW2  231   8.546   3.794   4.540  0.6954  1.0701  2.6084
31061SOL     OW  232   1.339   4.652   0.276 -0.0019  0.3377 -0.1591
31061SOL    HW1  233   1.248   4.660   0.305 -1.7573 -1.4633 -4.3498
31061SOL    HW2  234   1.359   4.738   0.238  0.5376  1.0726  1.6668
31062SOL     OW  235   5.895   6.032   4.070  0.1866  0.7542  0.0362
31062SOL    HW1  236   5.902   6.029   3.974  2.4460  1.0317  0.1360
31062SOL    HW2  237   5.817   5.981   4.090  0.2904 -0.2629 -1.9021
31063SOL     OW  238  10.800   0.463  10.892 -0.5188 -0.1388  0.4322
31063SOL    HW1  239  10.719   0.419  10.866 -1.8073  1.5725  1.2909
31063SOL    HW2  240  10.857   0.458  10.815 -1.3676 -1.5422 -0.1273
31064SOL     OW  241   4.210   9.392   5.281 -0.5063 -0.1599  0.3865
31064SOL    HW1  242   4.270   9.442   5.225 -1.1474 -0.2693 -0.4162
31064SOL    HW2  243   4.198   9.309   5.235 -1.0043 -0.2744  0.7168
31065SOL     OW  244   8.589   0.841   2.310 -0.6002 -0.1130 -0.4010
31065SOL    HW1  245   8.508   0.791   2.304 -0.4034 -0.6342  0.8585
31065SOL    HW2  246   8.624   0.819   2.397  1.3887 -0.6480 -1.2821
31066SOL     OW  247   4.452   0.839   3.790 -0.5002 -0.5265  0.2572
31066SOL    HW1  248   4.418   0.827   3.701 -0.5424 -2.6481  0.5003
31066SOL    HW2  249   4.432   0.756   3.834  2.0592 -0.6151  1.4022
31067SOL     OW  250  11.046   1.402  10.982 -0.1019  0.0741 -0.1296
31067SOL    HW1  251  11.053   1.497  10.983 -0.3276  0.0915  0.1633
31067SOL    HW2  252  11.136   1.371  10.989  0.2276  0.2387 -2.7548
31068SOL     OW  253   6.356   2.591   9.098  0.0989 -0.1611 -0.1393
31068SOL    HW1  254   6.328   2.676   9.065  0.0038 -1.0536 -2.5516
31068SOL    HW2  255   6.399   2.549   9.024 -2.4421 -3.3604 -0.0570
31069SOL     OW  256   8.026   8.839   4.488  0.1249  0.0853  0.7280
31069SOL    HW1  257   7.936   8.837   4.454  0.0265 -0.4849  1.0137
31069SOL    HW2  258   8.015   8.835   4.583  0.5125 -2.0777  0.7178
31070SOL     OW  259   4.017   3.885   3.389  0.5430  0.2478 -0.7557
31070SOL    HW1  260   3.986   3.958   3.336 -0.7130  0.3221  0.0276
31070SOL    HW2  261   3.959   3.813   3.366  0.1766  0.1995  0.2457
31071SOL     OW  262   4.130   9.121  10.881 -0.5994  0.4889  0.3037
31071SOL    HW1  263   4.184   9.195  10.909  0.3572  0.8349 -2.2161
31071SOL    HW2  264   4.113   9.137  10.788  0.6021 -3.0122 -0.6800
31072SOL     OW  265   5.401  11.841   5.734  0.2747 -0.0488  0.5567
31072SOL    HW1  266   5.485  11.801   5.756 -0.3635 -2.3324 -0.8040
31072SOL    HW2  267   5.360  11.860   5.818  1.0048 -1.5332  1.2806
31073SOL     OW  268   7.246   9.427   8.074 -0.1153  0.2495  0.0459
31073SOL    HW1  269   7.182   9.361   8.101 -0.6005  0.7895  0.2550
31073SOL    HW2  270   7.196   9.509   8.070  0.1920  0.3924 -1.4362
31074SOL     OW  271   3.285   1.350   0.525  0.0094 -0.0672  0.6032
31074SOL    HW1  272   3.260   1.409   0.596 -3.2560 -0.3044 -0.1779
31074SOL    HW2  273   3.365   1.388   0.489 -0.7383  2.6378  1.5509
31075SOL     OW  274  11.804  12.330   9.670 -0.1636 -0.2119 -0.9083
31075SOL    HW1  275  11.731  12.390   9.655 -0.1275 -0.3924 -1.8755
31075SOL    HW2  276  11.875  12.385   9.703 -0.3895  0.1408 -1.0149
31076SOL     OW  277   1.767   9.413   2.063  0.0586 -0.5191  0.1350
31076SOL    HW1  278   1.852   9.455   2.077  0.5874 -0.3859 -2.7771
31076SOL    HW2  279   1.706   9.486   2.049 -0.2669 -0.6395  0.8873
31077SOL     OW  280   8.751   4.107   2.499  0.0285 -0.1419  0.1365
31077SOL    HW1  281   8.760   4.147   2.413 -0.7074 -0.4993 -0.1194
31077SOL    HW2  282   8.666   4.139   2.531  0.3422  0.0723  0.7724
31078SOL     OW  283   1.442   2.432   4.574 -0.6143  0.5246  0.1251
31078SOL    HW1  284   1.519   2.417   4.630 -0.3199 -1.2292 -0.6727
31078SOL    HW2  285   1.367   2.424   4.633 -0.2219  1.3175  0.7416
31079SOL     OW  286   6.418  10.914  10.801  0.2532  0.7499  0.3024
31079SOL    HW1  287   6.453  10.841  10.853 -0.3030  0.7167  0.6454
31079SOL    HW2  288   6.457  10.992  10.840  0.6804  0.6504  0.0766
31080SOL     OW  289   1.022   5.970   4.245 -0.0148  0.1634 -0.5301
31080SOL    HW1  290   0.996   5.920   4.167  0.8185  1.4882 -1.7128
31080SOL    HW2  291   0.941   6.012   4.275 -1.0104 -2.7691  1.2483
31081SOL     OW  292   0.992  10.053  10.359 -0.2946 -0.1196  0.0899
31081SOL    HW1  293   1.081  10.074  10.331 -0.2964  1.1252  0.9475
31081SOL    HW2  294   0.998  10.041  10.453 -1.2594  1.4850  0.4001
31082SOL     OW  295   8.417   7.253   9.863 -0.1505  0.3900 -0.5170
31082SOL    HW1  296   8.470   7.190   9.813  2.4385  0.6238  1.6802
31082SOL    HW2  297   8.435   7.337   9.822 -0.6391  0.1949 -1.1525
31083SOL     OW  298   1.339   4.809   2.054 -0.3306 -0.8526  0.2367
31083SOL    HW1  299   1.418   4.863   2.058 -1.3813  0.6750  1.7468
31083SOL    HW2  300   1.371   4.719   2.055  1.3851 -0.2771  0.4859
31084SOL     OW  301  10.523   4.648   0.844 -0.4499  0.5037 -0.2620
31084SOL    HW1  302  10.497   4.669   0.933  1.6000  0.9792  0.2660
31084SOL    HW2  303  10.586   4.716   0.820 -2.0047  1.2714 -2.6455
31085SOL     OW  304   0.582   4.402   8.937 -0.0258 -0.4305  0.2324
31085SOL    HW1  305   0.503   4.434   8.893  1.6030  1.8052 -1.2973
31085SOL    HW2  306   0.603   4.471   9.001 -0.1641 -1.7755  1.7938
31086SOL     OW  307  10.246  11.305  10.351  0.3616 -0.0445 -0.5586
31086SOL    HW1  308  10.245  11.394  10.387 -0.6633 -0.2587 -0.0266
31086SOL    HW2  309  10.268  11.317  10.259  0.4855  0.7356 -0.4348
31087SOL     OW  310   6.119  12.306  10.924  0.2890  0.1235 -0.3356
31087SOL    HW1  311   6.057  12.234  10.927  0.5566 -0.0723  1.0473
31087SOL    HW2  312   6.123  12.330  10.831 -0.5079 -1.0108 -0.6879
31088SOL     OW  313   0.197  10.669  10.996  0.3787 -0.3082  0.2185
31088SOL    HW1  314   0.253  10.616  10.939 -0.2504 -1.3092  0.5060
31088SOL    HW2  315   0.255  10.696  11.067  0.9145  0.1154 -0.3540
31089SOL     OW  316  12.094  12.442  10.743 -0.5565  0.1298 -0.0085
31089SOL    HW1  317  12.106  12.359  10.788 -0.3750 -0.5479 -1.2858
31089SOL    HW2  318  12.032  12.423  10.673 -0.7865  1.1547 -0.1067
31090SOL     OW  319  10.237   8.481   3.168 -0.3128 -0.1189  0.2498
31090SOL    HW1  320  10.286   8.422   3.111 -2.4187 -2.9734  1.1877
31090SOL    HW2  321  10.295   8.494   3.243  1.8645  2.5000 -1.6894
31091SOL     OW  322   3.684   7.708   5.295 -0.2880 -0.2065  0.1785
31091SOL    HW1  323   3.753   7.676   5.352  0.2214  1.2212  0.4052
31091SOL    HW2  324   3.608   7.652   5.315  0.9411 -2.2542 -0.5743
31092SOL     OW  325  12.487   5.674   9.084  0.1917 -0.0711  0.3600
31092SOL    HW1  326  12.442   5.622   9.017 -2.5783  0.8091  1.3703
31092SOL    HW2  327  12.567   5.703   9.042 -1.5448  0.7069 -2.7405
31093SOL     OW  328  10.817  10.604   1.054  0.0391 -0.1326 -0.5043
31093SOL    HW1  329  10.781  10.564   1.133  3.5951 -1.2247  0.7495
31093SOL    HW2  330  10.824  10.697   1.074  1.4181 -0.4806  0.7403
31094SOL     OW  331   7.229   8.325   7.981 -0.2476  0.5756 -0.4045
31094SOL    HW1  332   7.220   8.359   7.892 -2.0997  1.1723 -0.0259
31094SOL    HW2  333   7.210   8.400   8.037 -0.8384 -0.2254  0.4784
31095SOL     OW  334   7.025   2.777   1.314  0.5744 -0.1529  0.5012
31095SOL    HW1  335   6.986   2.762   1.400  0.6134 -0.4105  0.4754
31095SOL    HW2  336   7.085   2.850   1.327 -1.2042  1.4572  0.1669
31096SOL     OW  337   3.370   6.663   6.891  0.3493  0.6657 -0.2226
31096SOL    HW1  338   3.383   6.699   6.803  1.0102 -0.1233 -0.4585
31096SOL    HW2  339   3.367   6.740   6.948 -1.7731  1.3053 -1.0928
31097SOL     OW  340   2.295  10.484  12.100 -0.3185  0.2892 -0.1837
31097SOL    HW1  341   2.226  10.509  12.161  0.9208 -0.9688  1.8511
31097SOL    HW2  342   2.264  10.403  12.060 -0.5009  0.3243 -0.1127
31098SOL     OW  343  11.026   9.743  10.597 -0.5150  0.0638 -0.1410
31098SOL    HW1  344  10.936   9.752  10.629 -0.0858  0.0311  1.1596
31098SOL    HW2  345  11.048   9.652  10.614 -0.2460  0.0687 -0.4678
31099SOL     OW  346   7.701   6.558   2.133 -0.5650 -0.5664  0.1889
31099SOL    HW1  347   7.715   6.473   2.174 -1.1859  0.0303  1.7114
31099SOL    HW2  348   7.732   6.621   2.198  0.1791  0.3736 -1.0406
31100SOL     OW  349   5.789   9.953   5.186  0.2719  0.4367  0.4827
31100SOL    HW1  350   5.795   9.864   5.220  0.0167  0.6646  1.1383
31100SOL    HW2  351   5.735   9.945   5.107  2.4206 -0.4077 -1.0254
31101SOL     OW  352   7.287   8.112   5.972  0.6291 -0.5147  0.2023
31101SOL    HW1  353   7.361   8.088   5.916  0.3419 -0.2960 -0.2775
31101SOL    HW2  354   7.326   8.167   6.041  0.7368  0.7165 -0.7958
31102SOL     OW  355   1.176   4.091   0.063  0.2196  0.1856 -0.4197
31102SOL    HW1  356   1.249   4.152   0.073 -0.1544  0.7026 -0.7816
31102SOL    HW2  357   1.108   4.142   0.019 -0.7196  0.0028  0.7535
31103SOL     OW  358   9.741   4.761   0.912  0.2287 -0.2099  0.6630
31103SOL    HW1  359   9.746   4.800   0.824  0.6230 -1.3204  0.1735
31103SOL    HW2  360   9.653   4.781   0.942 -0.5875 -1.4051 -0.7746
31104SOL     OW  361   9.700   1.121   1.480  0.2007  0.1459 -0.0988
31104SOL    HW1  362   9.668   1.057   1.416 -0.3153 -0.5166  0.8090
31104SOL    HW2  363   9.770   1.075   1.527  0.6381  0.6613 -0.2422
31105SOL     OW  364   4.773   4.523   4.709 -0.2395  0.0135  0.0018
31105SOL    HW1  365   4.820   4.603   4.686  0.5384 -0.2741  0.5555
31105SOL    HW2  366   4.731   4.543   4.793 -0.4267 -0.0015 -0.0890
31106SOL     OW  367   8.656   9.964   0.348 -0.0415  0.4282  0.4281
31106SOL    HW1  368   8.714   9.914   0.405 -1.0994 -0.4208  0.7778
31106SOL    HW2  369   8.668   9.924   0.261 -1.1067 -0.6639  0.7626
31107SOL     OW  370   3.670  10.850   9.018  0.2538 -0.3395  0.1642
31107SOL    HW1  371   3.730  10.873   8.947  2.0524 -0.4279  1.5985
31107SOL    HW2  372   3.593  10.814   8.973  0.9957  0.3308 -1.7521
31108SOL     OW  373   4.586  11.829   3.733  0.6063 -0.1050  0.2398
31108SOL    HW1  374   4.512  11.888   3.720 -0.3108 -1.4384 -0.9866
31108SOL    HW2  375   4.549  11.754   3.780  1.4514 -0.2896  0.6297
31109SOL     OW  376   6.838   2.486   4.550  0.4312 -0.2212  0.1764
31109SOL    HW1  377   6.923   2.525   4.530  0.3181  0.0408  0.2102
31109SOL    HW2  378   6.779   2.521   4.483  0.3657 -0.4627  0.1052
31110SOL     OW  379  11.113   9.167   1.140 -0.7679  0.2822 -0.2175
31110SOL    HW1  380  11.203   9.136   1.137 -0.7100  0.1198  1.6956
31110SOL    HW2  381  11.119   9.254   1.179 -1.5342 -0.5173  1.8473
31111SOL     OW  382   8.813   2.367   6.224 -0.2680 -0.0232 -0.1666
31111SOL    HW1  383   8.806   2.450   6.270 -0.3263 -0.4471  0.6144
31111SOL    HW2  384   8.813   2.390   6.131  1.7249  0.9944  0.0396
31112SOL     OW  385  12.396  10.356   5.204 -0.5387  0.8175  0.1621
31112SOL    HW1  386  12.323  10.295   5.214  0.5034 -0.4843  0.1516
31112SOL    HW2  387  12.437  10.359   5.290  1.6166 -1.4626 -0.6579
31113SOL     OW  388  11.505   4.017   9.986 -0.3037 -0.6288 -0.4327
31113SOL    HW1  389  11.597   4.038   9.972 -0.6747  0.7679 -0.9339
31113SOL    HW2  390  11.468   4.096  10.028 -1.5885 -0.5595 -1.6299
31114SOL     OW  391   2.424   6.800   3.739  0.0357  0.4103 -0.2560
31114SOL    HW1  392   2.330   6.796   3.719 -0.5350 -0.6732  2.3189
31114SOL    HW2  393   2.439   6.892   3.762 -0.8399  0.2251  1.1332
31115SOL     OW  394   8.082   9.616   7.965  0.2200  0.3960  0.3514
31115SOL    HW1  395   8.032   9.697   7.955 -0.7671 -0.2932 -0.4913
31115SOL    HW2  396   8.137   9.611   7.887 -1.2713 -0.7531 -0.7041
31116SOL     OW  397   2.190   6.078   5.465 -0.0843  0.0232 -0.2186
31116SOL    HW1  398   2.218   5.999   5.512 -3.8261 -2.0503 -1.0778
31116SOL    HW2  399   2.116   6.112   5.516 -0.7238  0.9334 -1.6614
31117SOL     OW  400   2.169  10.657   7.471  0.1607  0.6607 -0.9915
31117SOL    HW1  401   2.109  10.647   7.397 -1.3228 -1.5772  0.3749
31117SOL    HW2  402   2.230  10.584   7.463 -1.1911 -0.7673  0.9252
31118SOL     OW  403   6.990  11.740   4.593 -0.0462  0.1168  0.1216
31118SOL    HW1  404   6.964  11.747   4.501  0.7351 -1.2382 -0.2256
31118SOL    HW2  405   6.924  11.790   4.641 -0.5947  0.6395 -1.1533
31119SOL     OW  406   7.065  11.051   9.734  0.0353  0.0662  0.3837
31119SOL    HW1  407   7.156  11.046   9.705 -0.0678  0.7982 -0.1093
31119SOL    HW2  408   7.017  10.998   9.671  0.1184 -0.3131  0.6386
31120SOL     OW  409   2.628   3.752  11.067  0.3172 -0.1131 -0.4000
31120SOL    HW1  410   2.705   3.696  11.072  0.2715 -0.0861  1.0040
31120SOL    HW2  411   2.567   3.716  11.130 -0.3772  0.5401 -0.6735
31121SOL     OW  412   2.568   5.153   9.013 -0.0614  0.5614  0.2531
31121SOL    HW1  413   2.505   5.081   9.019 -0.8820  1.3020  0.6003
31121SOL    HW2  414   2.585   5.178   9.103  1.6068 -0.3481  0.2387
31122SOL     OW  415   9.752   1.866   1.841 -0.5619  0.7917  0.5825
31122SOL    HW1  416   9.772   1.802   1.772 -0.4569  0.2773  1.0819
31122SOL    HW2  417   9.659   1.885   1.829 -0.4203  1.1197 -0.0369
31123SOL     OW  418   7.607   7.935   5.924  0.1549  0.1507  0.0590
31123SOL    HW1  419   7.558   7.967   5.848 -1.6134 -0.1009  1.0188
31123SOL    HW2  420   7.698   7.957   5.906 -0.5768  2.9468 -0.7064
31124SOL     OW  421   2.820   5.446  11.097 -0.3518  0.2646 -0.5932
31124SOL    HW1  422   2.751   5.404  11.047  0.7770 -2.3015 -0.1904
31124SOL    HW2  423   2.901   5.413  11.058  0.5833 -1.3089  2.3251
31125SOL     OW  424   0.641   6.297   5.477 -0.3876  0.5901 -0.0457
31125SOL    HW1  425   0.723   6.304   5.525  0.1517  0.5002 -0.9452
31125SOL    HW2  426   0.627   6.384   5.439 -1.2939  0.9387  1.0054
31126SOL     OW  427   8.232   6.186   7.642 -0.0794  0.2516 -0.5719
31126SOL    HW1  428   8.311   6.221   7.683 -1.1375  0.0104  1.8054
31126SOL    HW2  429   8.256   6.097   7.617  0.3059  0.0299  0.5297
31127SOL     OW  430   0.061   8.618   7.688  0.0964  0.3292 -0.2881
31127SOL    HW1  431   0.149   8.583   7.693  0.2241  0.7669  0.5688
31127SOL    HW2  432   0.046   8.632   7.594  0.4808 -0.8631 -0.5455
31128SOL     OW  433   8.649   6.468   6.673  0.2104  0.6862  0.2075
31128SOL    HW1  434   8.596   6.466   6.594  2.2041  1.8405 -1.2649
31128SOL    HW2  435   8.735   6.500   6.644  1.1895  0.6486  2.7477
31129SOL     OW  436  11.969   9.888   8.179  0.2905 -0.1569 -0.1714
31129SOL    HW1  437  11.941   9.848   8.261 -0.7462  1.4252  0.2898
31129SOL    HW2  438  12.062   9.864   8.171 -0.2552 -2.6013  0.0501
31130SOL     OW  439   7.825   8.643   8.126  0.0382 -0.5223  0.4944
31130SOL    HW1  440   7.813   8.592   8.046 -1.0408  0.1503  0.2088
31130SOL    HW2  441   7.857   8.579   8.190  1.8389 -0.8711 -0.6962
31131SOL     OW  442   8.376   9.273   4.200 -0.2495  0.1761  0.3131
31131SOL    HW1  443   8.434   9.349   4.210  1.2240 -0.0669 -4.1628
31131SOL    HW2  444   8.434   9.198   4.198 -0.8864 -0.3249 -1.8385
31132SOL     OW  445   3.891   0.783   4.495  0.1134 -0.0633  0.2811
31132SOL    HW1  446   3.983   0.786   4.522  0.2402  2.1161 -0.1460
31132SOL    HW2  447   3.891   0.733   4.413  1.0752  0.6362 -0.1673
31133SOL     OW  448  10.428   8.850  11.833 -0.4367 -0.9766  0.6856
31133SOL    HW1  449  10.461   8.895  11.911 -0.2361 -2.0090  1.2314
31133SOL    HW2  450  10.497   8.859  11.768 -0.2609 -0.7790  0.9006
31134SOL     OW  451   3.083   9.965   1.289 -0.3662  0.1225 -0.0692
31134SOL    HW1  452   3.034   9.931   1.214 -0.5287  2.2480 -0.9798
31134SOL    HW2  453   3.091   9.890   1.348 -0.6625 -1.4886 -1.9754
31135SOL     OW  454  12.093   7.739   1.023  0.2557 -0.0109  0.0173
31135SOL    HW1  455  12.020   7.762   0.965  1.0331 -1.3734 -1.5890
31135SOL    HW2  456  12.097   7.643   1.019 -0.1804 -0.2488  3.0328
31136SOL     OW  457   6.835   7.224   7.159  0.7012  0.3107  0.1569
31136SOL    HW1  458   6.883   7.141   7.149  0.9564  0.4037  0.6004
31136SOL    HW2  459   6.846   7.247   7.251  1.6954  1.4799 -0.2197
31137SOL     OW  460   8.851  10.569   1.510 -0.1286 -0.1393 -0.0443
31137SOL    HW1  461   8.937  10.543   1.545  0.2994 -0.1692 -1.1039
31137SOL    HW2  462   8.857  10.664   1.500 -0.7679  0.0735  1.3066
31138SOL     OW  463   5.220  12.455  11.582  0.7373 -0.2123  0.0268
31138SOL    HW1  464   5.286  12.387  11.569  0.3023 -0.5962 -0.2081
31138SOL    HW2  465   5.137  12.413  11.558  0.4688  0.4156 -0.1702
31139SOL     OW  466   4.269   4.121   0.927  0.2368  0.2717 -0.2345
31139SOL    HW1  467   4.315   4.078   0.999 -1.0617  0.1621  0.5505
31139SOL    HW2  468   4.178   4.093   0.936  0.1119 -0.1111 -2.1942
31140SOL     OW  469  11.348  10.763   9.602  0.3291 -0.2653 -0.1287
31140SOL    HW1  470  11.409  10.823   9.561 -0.2195  2.3182  2.5018
31140SOL    HW2  471  11.403  10.699   9.647  1.2262  1.7693  1.8448
31141SOL     OW  472   3.425   6.529   1.947 -0.0255 -0.4054 -0.2305
31141SOL    HW1  473   3.439   6.498   1.857  0.3433  0.3378 -0.4335
31141SOL    HW2  474   3.511   6.525   1.988 -0.2108 -0.8402  0.1349
31142SOL     OW  475   5.714  10.081   4.675 -0.0525  0.6095 -0.0254
31142SOL    HW1  476   5.776  10.044   4.738  1.0551  1.1934 -0.7431
31142SOL    HW2  477   5.630  10.080   4.721  0.1408 -1.6905  0.3885
31143SOL     OW  478   2.321  12.300  11.712 -0.2831 -0.1846  0.2454
31143SOL    HW1  479   2.331  12.322  11.805 -0.8601 -0.5312  0.3969
31143SOL    HW2  480   2.263  12.368  11.678  0.4786  0.3332 -0.0226
31144SOL     OW  481   9.995  11.004   9.376  0.5001 -0.1392  0.1091
31144SOL    HW1  482  10.039  11.025   9.293 -0.9496 -1.1748 -0.9643
31144SOL    HW2  483  10.048  10.933   9.413  0.7195 -0.2007 -0.3069
31145SOL     OW  484   5.183   0.042   8.038 -0.2335 -0.3719  0.0645
31145SOL    HW1  485   5.106   0.072   8.087  1.2487  0.3402  2.0958
31145SOL    HW2  486   5.215   0.120   7.994  0.4912 -0.1538  0.9377
31146SOL     OW  487  11.544  10.193   9.982 -0.6620 -0.1638  0.1215
31146SOL    HW1  488  11.481  10.242   9.929  0.2642  0.2869 -0.5969
31146SOL    HW2  489  11.608  10.160   9.919  0.8417  0.9384  0.9986
31147SOL     OW  490   4.222   2.192   2.089 -0.4286  0.3896  0.3531
31147SOL    HW1  491   4.239   2.187   1.995  0.2102  3.9658  0.1528
31147SOL    HW2  492   4.126   2.192   2.096 -0.4921  1.0053 -0.3934
31148SOL     OW  493   2.960  10.524   1.856  0.4844  0.0715  0.3782
31148SOL    HW1  494   2.894  10.538   1.924  0.0365  1.4289 -0.3032
31148SOL    HW2  495   2.967  10.608   1.812  2.3690 -0.1737  0.1416
31149SOL     OW  496   1.611   6.306  11.662  0.1987 -0.9130 -0.2412
31149SOL    HW1  497   1.618   6.212  11.647 -0.2579 -1.4799  2.5233
31149SOL    HW2  498   1.520   6.319  11.692  0.5299  0.2137  0.3706
31150SOL     OW  499   6.403   5.747   4.520  0.0241  0.3397 -0.1279
31150SOL    HW1  500   6.377   5.833   4.553  0.3889  0.8348 -1.0861
31150SOL    HW2  501   6.398   5.755   4.425 -0.8895 -1.0085 -0.2201
31151SOL     OW  502   0.036   7.362  10.482 -0.4013 -0.0153  0.1147
31151SOL    HW1  503  -0.002   7.385  10.398  0.3808  0.8244 -0.0242
31151SOL    HW2  504  -0.010   7.417  10.546  0.2629  0.7109 -0.0068
31152SOL     OW  505   1.320   8.740   1.341  0.7819  0.0499 -0.4096
31152SOL    HW1  506   1.330   8.739   1.436  0.1295  2.1025 -0.2678
31152SOL    HW2  507   1.382   8.806   1.311  0.1891  0.2251 -1.2888
31153SOL     OW  508   1.488   7.883   8.215 -0.3002 -0.1948 -0.3962
31153SOL    HW1  509   1.490   7.971   8.252  2.0456 -0.7367  0.9445
31153SOL    HW2  510   1.507   7.895   8.122  0.1466  0.7140 -0.1938
31154SOL     OW  511   4.844   0.464   6.128 -0.3457  0.0798  0.2526
31154SOL    HW1  512   4.813   0.545   6.168 -2.1617  0.0262 -0.9021
31154SOL    HW2  513   4.773   0.402   6.144 -0.0083 -0.6149 -0.8739
31155SOL     OW  514  10.226  11.186   5.897 -0.0818  0.5561  0.4515
31155SOL    HW1  515  10.211  11.215   5.987  2.5499 -0.2199  1.2442
31155SOL    HW2  516  10.164  11.114   5.884 -0.9566  1.1213  1.3941
31156SOL     OW  517   7.831   1.562   0.652  0.0758 -0.2058 -0.4477
31156SOL    HW1  518   7.816   1.538   0.561 -2.7584  0.0845 -0.1530
31156SOL    HW2  519   7.831   1.658   0.653  0.4722 -0.2048 -0.1887
31157SOL     OW  520   3.931   4.190  11.313  0.4059 -0.2627  0.6432
31157SOL    HW1  521   3.880   4.214  11.391  0.2593  1.1755  0.1424
31157SOL    HW2  522   3.940   4.273  11.265  1.3349 -0.9397 -0.3745
31158SOL     OW  523  11.757  11.339  12.171 -0.2280 -0.3435  0.1363
31158SOL    HW1  524  11.678  11.285  12.169 -0.8971  0.4630  2.0800
31158SOL    HW2  525  11.724  11.429  12.164  0.2850  0.1228  2.8191
31159SOL     OW  526   5.394   5.834   9.807  0.1784 -0.8485  0.6477
31159SOL    HW1  527   5.332   5.777   9.852 -0.2228 -1.2811 -0.4206
31159SOL    HW2  528   5.360   5.922   9.821  0.2936 -0.9335  1.5298
31160SOL     OW  529   3.009   1.942  10.704 -0.2011 -0.0158  0.2650
31160SOL    HW1  530   2.996   1.848  10.691 -1.4202  0.3907 -1.8894
31160SOL    HW2  531   3.103   1.951  10.720  0.2667 -1.4226 -1.4119
31161SOL     OW  532  10.350   7.511  10.526  0.0986  0.0314 -0.0971
31161SOL    HW1  533  10.278   7.537  10.585 -0.1992 -2.4278  0.7499
31161SOL    HW2  534  10.424   7.565  10.554  0.0962 -1.2933  2.9507
31162SOL     OW  535  11.154   9.203   1.501  0.0559  0.3245 -0.1013
31162SOL    HW1  536  11.177   9.166   1.416  0.3756 -1.1208  0.5844
31162SOL    HW2  537  11.061   9.222   1.496  0.0055 -0.0709 -0.6563
31163SOL     OW  538   0.092   2.640  10.077 -0.1414  0.6252  0.0715
31163SOL    HW1  539   0.142   2.566  10.043 -0.9550 -0.1664  0.5388
31163SOL    HW2  540   0.155   2.692  10.126  0.3667  0.0247  0.0617
31164SOL     OW  541  12.430   2.527   5.761  0.4116  0.3081 -0.1986
31164SOL    HW1  542  12.366   2.598   5.755  0.4694  0.3469 -0.3440
31164SOL    HW2  543  12.392   2.456   5.710  0.4013  0.2699 -0.1368
31165SOL     OW  544   3.454  11.481   1.449 -0.3804 -0.5059  0.1998
31165SOL    HW1  545   3.417  11.553   1.501 -0.8104  0.1892 -1.0267
31165SOL    HW2  546   3.419  11.402   1.490 -2.3445  0.0960 -0.2171
31166SOL     OW  547   3.494   6.883   1.173  0.1541 -0.2607 -0.2378
31166SOL    HW1  548   3.498   6.870   1.268 -0.3469  2.0359  0.1622
31166SOL    HW2  549   3.583   6.866   1.143 -0.0785 -2.8091  0.3282
31167SOL     OW  550   5.606   2.577   3.233 -0.5625  0.1815 -0.2080
31167SOL    HW1  551   5.639   2.666   3.247  0.5288  0.4431 -3.5333
31167SOL    HW2  552   5.512   2.587   3.224 -0.4003  1.1157 -1.0297
31168SOL     OW  553   2.636  10.518   5.667  0.6159  0.1414 -0.3176
31168SOL    HW1  554   2.716  10.553   5.708  0.5256 -0.8205  0.7476
31168SOL    HW2  555   2.605  10.588   5.611  2.1265  0.6057 -0.6239
31169SOL     OW  556   1.923   9.270   5.352  0.3576  0.2153  0.5039
31169SOL    HW1  557   2.008   9.226   5.350 -0.3317 -1.1541  0.0580
31169SOL    HW2  558   1.898   9.279   5.260 -0.2093  0.1211  0.6441
31170SOL     OW  559   4.783   4.830   2.427  0.2265 -0.4578 -0.2121
31170SOL    HW1  560   4.779   4.837   2.332  0.1975 -1.4680 -0.2976
31170SOL    HW2  561   4.866   4.871   2.451  0.4522 -0.6147 -0.7196
31171SOL     OW  562   8.066   0.820  11.413  0.0201  0.2315 -0.3775
31171SOL    HW1  563   8.011   0.762  11.360 -2.2307  2.7696 -1.0173
31171SOL    HW2  564   8.018   0.832  11.494  0.7524  0.7335 -0.0081
31172SOL     OW  565   0.601   1.896   7.880  0.4350 -0.0889  0.5346
31172SOL    HW1  566   0.513   1.876   7.848 -0.4709  1.7470  1.7127
31172SOL    HW2  567   0.593   1.893   7.976  1.4837  0.7484  0.6651
31173SOL     OW  568   2.066   2.229   4.787  0.2599 -0.3513  0.4221
31173SOL    HW1  569   2.082   2.241   4.880  2.1925 -1.5026  0.3026
31173SOL    HW2  570   2.086   2.314   4.748 -3.3388  1.0560  1.2368
31174SOL     OW  571   4.144   3.027   7.358  0.4897  0.4925  0.2330
31174SOL    HW1  572   4.078   3.028   7.428  0.2496  0.1950  0.0135
31174SOL    HW2  573   4.209   3.092   7.385 -0.2694  1.3189  0.0920
31175SOL     OW  574  11.329   1.625   9.112  0.3726  0.3560  0.1226
31175SOL    HW1  575  11.335   1.556   9.047  2.4172  0.8537 -0.2691
31175SOL    HW2  576  11.262   1.685   9.077 -0.6795 -0.8609 -0.0193
31176SOL     OW  577   8.670  11.783   6.647 -0.4747  0.5004 -0.1130
31176SOL    HW1  578   8.631  11.705   6.607  2.5734 -0.4155 -1.6228
31176SOL    HW2  579   8.710  11.750   6.728  0.5318  0.4932 -0.5899
31177SOL     OW  580  12.248  11.785   5.253 -0.7227 -0.3431  0.6517
31177SOL    HW1  581  12.287  11.844   5.317  1.4540  0.6597 -1.4516
31177SOL    HW2  582  12.154  11.794   5.267 -0.4047  1.9469  1.8759
31178SOL     OW  583   4.672   8.109   5.505  0.8267 -0.0778  0.2157
31178SOL    HW1  584   4.735   8.042   5.478  0.6117 -0.5631  0.8919
31178SOL    HW2  585   4.705   8.190   5.467 -0.8262 -1.0418 -3.8237
31179SOL     OW  586   7.930   2.975   0.082  0.2135  0.1607  0.6393
31179SOL    HW1  587   7.925   3.060   0.126 -0.6124 -0.4333  1.7311
31179SOL    HW2  588   7.986   2.991   0.006 -0.5005  1.8471  0.4318
31180SOL     OW  589   1.490   4.279   4.557  0.8814 -0.3654  0.4467
31180SOL    HW1  590   1.498   4.360   4.607  1.4880  1.1786 -1.9466
31180SOL    HW2  591   1.396   4.270   4.541  0.6199 -1.1686  2.1955
31181SOL     OW  592   0.643   5.036   4.368 -0.9118 -0.0326  0.0742
31181SOL    HW1  593   0.629   5.103   4.302 -0.5287 -0.8811 -0.8997
31181SOL    HW2  594   0.734   5.046   4.395 -0.9938  0.1504  0.2801
31182SOL     OW  595   5.977   4.108   0.195  0.2903  0.1219  0.5106
31182SOL    HW1  596   5.993   4.080   0.284 -0.0059 -3.7177 -0.4770
31182SOL    HW2  597   5.888   4.078   0.176 -0.0290  1.7297 -0.8147
31183SOL     OW  598  10.503   9.415  10.513 -0.6595 -0.0615  1.2209
31183SOL    HW1  599  10.493   9.341  10.573 -0.7926  0.1324  1.4389
31183SOL    HW2  600  10.525   9.489  10.569 -0.5700  0.0742  1.0088
31184SOL     OW  601   0.654   3.524  11.989 -0.6445  0.2156 -0.0217
31184SOL    HW1  602   0.702   3.502  12.068 -1.2284 -0.6804  0.0948
31184SOL    HW2  603   0.562   3.520  12.015 -0.8107  1.1545 -0.4310
31185SOL     OW  604  10.918   3.195   0.133  0.0421 -0.2400  0.0372
31185SOL    HW1  605  10.955   3.264   0.188  0.2297  0.1109 -0.5177
31185SOL    HW2  606  10.925   3.229   0.044  1.7638 -1.6956 -0.4371
31186SOL     OW  607   9.159   8.426   1.973  0.5049  0.4411 -0.4710
31186SOL    HW1  608   9.230   8.456   1.917  0.4360 -0.6443 -1.1743
31186SOL    HW2  609   9.104   8.372   1.915  0.5536 -0.9024  0.6854
31187SOL     OW  610   4.579  11.422   6.015  0.4765  0.5220 -0.4606
31187SOL    HW1  611   4.488  11.430   6.045  1.2027  1.2043  1.7805
31187SOL    HW2  612   4.577  11.450   5.924 -1.7496 -0.6895 -0.8775
31188SOL     OW  613   0.653   7.378   0.130  1.0150 -0.7324  0.1532
31188SOL    HW1  614   0.727   7.388   0.191  3.1010 -0.0761 -2.3251
31188SOL    HW2  615   0.684   7.315   0.065 -0.8616 -0.8945 -0.6363
31189SOL     OW  616   5.726   3.568   4.221  0.2290 -0.1229  0.1857
31189SOL    HW1  617   5.801   3.621   4.248  0.8529 -0.8782 -0.0363
31189SOL    HW2  618   5.655   3.632   4.210  0.8618  0.6195  0.2701
31190SOL     OW  619   2.659   0.901   3.710  0.3535  0.5039  0.0132
31190SOL    HW1  620   2.729   0.943   3.759  0.3383 -0.6147  1.0167
31190SOL    HW2  621   2.597   0.872   3.776 -1.2870  1.8236 -0.8721
31191SOL     OW  622  11.036   4.167  11.066 -0.4476 -0.8854 -0.2158
31191SOL    HW1  623  11.097   4.161  11.140  0.2745  0.9217 -0.5983
31191SOL    HW2  624  11.092   4.186  10.991 -1.4777  1.2525 -0.5142
31192SOL     OW  625  10.072   8.794   5.822 -0.3865 -0.2875  0.2874
31192SOL    HW1  626   9.986   8.769   5.788  0.1620  0.5170 -1.8583
31192SOL    HW2  627  10.132   8.780   5.749  1.0293  0.6971  1.2087
31193SOL     OW  628   6.063   3.596  11.480 -0.0078  0.3467  0.8235
31193SOL    HW1  629   6.088   3.595  11.572 -1.5411 -1.4860  1.2705
31193SOL    HW2  630   6.008   3.674  11.471 -1.2918 -0.4111  1.8872
31194SOL     OW  631   6.848   3.857  11.067  0.5926  0.3966  0.2368
31194SOL    HW1  632   6.937   3.889  11.082  0.2154  1.7016 -0.1526
31194SOL    HW2  633   6.792   3.932  11.089 -0.3191  0.0428 -0.8097
31195SOL     OW  634   2.149   4.074   7.350 -0.1416 -0.2711  0.1138
31195SOL    HW1  635   2.121   4.075   7.259 -2.8577  1.0743  0.8720
31195SOL    HW2  636   2.073   4.041   7.398  1.0982 -0.5936  1.9655
31196SOL     OW  637   9.581  10.982   2.559  0.1009  0.3376  0.0299
31196SOL    HW1  638   9.561  11.013   2.647  2.0781  1.7192  0.0373
31196SOL    HW2  639   9.611  10.892   2.572  1.7109  0.9690  0.9899
31197SOL     OW  640   9.113   9.461   2.564  0.1361 -0.1698 -0.4048
31197SOL    HW1  641   9.098   9.385   2.620  0.3092  0.2681  0.2481
31197SOL    HW2  642   9.045   9.524   2.590 -0.5370 -0.4058 -1.5219
31198SOL     OW  643  10.356   3.345  11.304 -0.7173 -0.3228 -0.5655
31198SOL    HW1  644  10.297   3.269  11.300  1.1306 -1.8171 -2.5301
31198SOL    HW2  645  10.376   3.364  11.212  1.8222  0.0715 -0.0152
31199SOL     OW  646   6.783   7.690   7.634 -0.3133  0.1484 -0.1217
31199SOL    HW1  647   6.727   7.737   7.695 -0.1537 -0.6676  0.6873
31199SOL    HW2  648   6.724   7.659   7.565 -1.0733 -1.4474  1.1696
31200SOL     OW  649   0.651   4.635   2.354  0.0559  0.4277  0.2689
31200SOL    HW1  650   0.558   4.645   2.337  0.1960  1.0054 -0.2252
31200SOL    HW2  651   0.694   4.674   2.278  0.7096 -1.9434 -0.6677
31201SOL     OW  652   6.744   2.296   8.051 -0.3011  0.2989 -0.0202
31201SOL    HW1  653   6.777   2.329   7.968  0.9278  1.0749  0.7333
31201SOL    HW2  654   6.747   2.201   8.042 -1.7402  0.3561 -1.4266
31202SOL     OW  655  12.440  10.095   5.336  0.0381 -0.0890  0.1301
31202SOL    HW1  656  12.464  10.080   5.428  0.4118  0.3533  0.1115
31202SOL    HW2  657  12.359  10.147   5.340  0.0978 -0.0027  0.2114
31203SOL     OW  658   2.253   0.340  11.690 -0.0581  0.6082 -0.4892
31203SOL    HW1  659   2.280   0.285  11.617  1.8214  1.0692 -0.1953
31203SOL    HW2  660   2.157   0.343  11.684 -0.0490 -0.7625 -1.8794
31204SOL     OW  661   5.035  10.882   9.894 -0.0951 -0.2222  0.1716
31204SOL    HW1  662   5.072  10.938   9.826 -0.0303 -1.3583 -0.7706
31204SOL    HW2  663   4.948  10.858   9.860 -0.5547  0.1659  1.0534
31205SOL     OW  664  10.914   5.881   2.558  0.1282 -0.5872 -0.2759
31205SOL    HW1  665  10.893   5.928   2.638  0.3114 -0.5245 -0.2633
31205SOL    HW2  666  10.861   5.801   2.562  0.8374 -1.0514  0.3748
31206SOL     OW  667  11.709  11.155   8.447  0.5079 -0.5562 -0.5016
31206SOL    HW1  668  11.680  11.180   8.359  2.1143  0.7824 -0.6977
31206SOL    HW2  669  11.797  11.193   8.455  0.2967 -0.4158  1.7906
31207SOL     OW  670  12.011   9.377   3.982  0.4542  0.2475 -0.9555
31207SOL    HW1  671  11.962   9.329   3.915 -0.6202 -1.6450  1.0744
31207SOL    HW2  672  11.979   9.343   4.065  0.2522  3.9315  0.6740
31208SOL     OW  673  11.827  11.037   4.952  0.1522 -0.1943  0.3191
31208SOL    HW1  674  11.795  10.983   4.880 -1.7340  0.4786  0.5962
31208SOL    HW2  675  11.778  11.006   5.028  1.8630 -0.6566  1.2929
31209SOL     OW  676  11.168   6.452   4.469 -0.4601 -0.0448 -0.2442
31209SOL    HW1  677  11.098   6.509   4.435 -0.5016 -0.8840 -1.6674
31209SOL    HW2  678  11.192   6.490   4.553 -2.2133  0.6256 -0.0083
31210SOL     OW  679   7.914   7.664   3.568  0.2168 -0.0644 -0.0083
31210SOL    HW1  680   7.929   7.638   3.659  0.0630 -0.1105  0.0049
31210SOL    HW2  681   7.836   7.615   3.542  0.6942 -0.6250 -0.4018
31211SOL     OW  682  11.241   2.622   7.808  0.8076  0.1155  0.1374
31211SOL    HW1  683  11.189   2.660   7.737  1.2124 -0.0070 -0.2297
31211SOL    HW2  684  11.277   2.541   7.770  1.3453  0.2491  0.3483
31212SOL     OW  685   2.649   4.960   5.313  0.1852  0.1992 -0.0677
31212SOL    HW1  686   2.624   4.899   5.382  1.4993  0.7128  0.9027
31212SOL    HW2  687   2.571   5.015   5.300 -0.7921 -1.2187 -0.5027
31213SOL     OW  688   1.671  10.395   9.577 -0.3984 -0.4716 -0.3834
31213SOL    HW1  689   1.623  10.357   9.651  0.0353 -1.1333 -0.4299
31213SOL    HW2  690   1.607  10.398   9.506 -0.6873 -0.2690 -0.1206
31214SOL     OW  691   8.425  10.326   4.651  0.2036 -0.1089 -0.1226
31214SOL    HW1  692   8.466  10.313   4.566  1.2716  2.1092 -0.0232
31214SOL    HW2  693   8.491  10.374   4.702 -1.1480  0.3252  1.2923
31215SOL     OW  694   8.156  12.415   3.611 -0.0317  0.2095  0.0426
31215SOL    HW1  695   8.066  12.388   3.595  0.5003 -2.9393  1.5291
31215SOL    HW2  696   8.203  12.389   3.532  0.0297 -1.0063  0.4549
31216SOL     OW  697   3.646   3.771   5.816  0.1047  0.7985 -0.2794
31216SOL    HW1  698   3.579   3.736   5.758  0.8003 -1.5720  0.2214
31216SOL    HW2  699   3.725   3.777   5.762 -0.1419  2.3062 -0.5222
31217SOL     OW  700   0.287   5.778  10.209  0.4317 -0.6577  0.3176
31217SOL    HW1  701   0.352   5.717  10.172  0.6625  0.6157 -1.4899
31217SOL    HW2  702   0.333   5.819  10.282  0.4727 -2.2101  1.1928
31218SOL     OW  703   8.116  10.248   1.077  0.1817 -0.4369  0.1471
31218SOL    HW1  704   8.185  10.293   1.027  1.6471 -2.2929  0.3791
31218SOL    HW2  705   8.073  10.192   1.013 -1.4210  0.9788 -0.0714
31219SOL     OW  706   9.632   3.660   7.919 -0.1432 -0.0384 -0.5427
31219SOL    HW1  707   9.684   3.595   7.872 -0.0327 -0.0064 -0.4656
31219SOL    HW2  708   9.684   3.681   7.997  0.0123  0.4432 -0.7736
31220SOL     OW  709   2.436   4.817   9.689 -0.0280  0.1123  0.1271
31220SOL    HW1  710   2.488   4.746   9.725 -0.8974 -0.8967 -0.5583
31220SOL    HW2  711   2.346   4.786   9.694 -0.5626  1.6797  0.9535
31221SOL     OW  712  12.395  10.449   0.533  0.0737 -0.0099 -0.7074
31221SOL    HW1  713  12.402  10.369   0.586  0.8347 -0.6642 -1.7680
31221SOL    HW2  714  12.325  10.499   0.575 -0.4325 -1.2421 -0.0337
31222SOL     OW  715   7.674   3.544  11.376 -0.2648  0.4755 -0.1922
31222SOL    HW1  716   7.706   3.579  11.459  0.5743 -0.1088 -0.2635
31222SOL    HW2  717   7.639   3.621  11.330  2.2829  1.4155 -0.7094
31223SOL     OW  718   7.820   1.506  11.728 -0.3935 -0.2988 -0.2592
31223SOL    HW1  719   7.762   1.430  11.718 -1.2554 -0.3150  3.3402
31223SOL    HW2  720   7.765   1.581  11.707 -1.6049 -0.3880  2.1527
31224SOL     OW  721   0.456  11.252   3.601  0.4111  0.1152 -0.3156
31224SOL    HW1  722   0.382  11.290   3.554  0.0647  0.9290  0.8481
31224SOL    HW2  723   0.500  11.327   3.642 -0.4637 -0.6798  2.3112
31225SOL     OW  724   2.755  11.513   0.297  0.0254  0.4922  0.2304
31225SOL    HW1  725   2.826  11.452   0.275 -2.2580 -1.1331 -3.6386
31225SOL    HW2  726   2.777  11.593   0.250  0.6588  1.0733  1.4573
31226SOL     OW  727   3.509   8.043   3.791 -0.3270 -0.0821 -0.1391
31226SOL    HW1  728   3.598   8.015   3.772 -0.0913  0.7501 -0.2966
31226SOL    HW2  729   3.472   8.066   3.705  0.1407  1.9548  0.1637
31227SOL     OW  730   5.861   2.093   9.483  0.1818 -0.3086 -0.5053
31227SOL    HW1  731   5.858   2.010   9.436  0.2769 -0.1640 -0.7672
31227SOL    HW2  732   5.934   2.083   9.544  0.5527 -0.2165 -0.9227
31228SOL     OW  733   1.961   7.207   1.672 -0.0775 -0.1268 -0.1783
31228SOL    HW1  734   1.894   7.156   1.717  0.4998 -0.9508 -0.2396
31228SOL    HW2  735   1.954   7.181   1.580 -0.2228  0.4138 -0.3289
31229SOL     OW  736   1.058  10.274   4.821 -0.6086 -0.4161 -0.0438
31229SOL    HW1  737   1.048  10.278   4.916 -1.6263 -1.7389 -0.0521
31229SOL    HW2  738   0.975  10.306   4.787 -1.1478 -2.1037 -0.4059
31230SOL     OW  739   3.697   9.228   0.628  0.0868 -0.3033 -0.0770
31230SOL    HW1  740   3.659   9.226   0.716  1.6994  0.0924  0.6672
31230SOL    HW2  741   3.743   9.312   0.624  0.9681 -0.8059 -0.8829
31231SOL     OW  742   4.744   7.776  12.432  0.2227 -0.2908 -0.6822
31231SOL    HW1  743   4.676   7.729  12.384 -1.0339  0.6123  0.1334
31231SOL    HW2  744   4.695   7.832  12.493  1.7011  0.8237 -0.4778
31232SOL     OW  745   8.164   5.987   4.825  0.5989  0.4992 -0.1062
31232SOL    HW1  746   8.120   5.945   4.751  1.7650  1.1041 -1.1892
31232SOL    HW2  747   8.094   6.025   4.877 -0.2402  0.2366 -1.0227
31233SOL     OW  748   7.162   5.789   6.658 -0.0947  0.0720 -0.8567
31233SOL    HW1  749   7.092   5.811   6.719  0.0397  0.2080 -0.7499
31233SOL    HW2  750   7.161   5.859   6.593  1.2669  1.2030  0.2819
31234SOL     OW  751   6.359  11.661  10.877  0.0246  0.3933  0.1442
31234SOL    HW1  752   6.365  11.736  10.818 -0.6181 -0.1611 -0.6440
31234SOL    HW2  753   6.287  11.609  10.843 -1.9063  1.1603  2.7173
31235SOL     OW  754   3.904   4.357   9.355 -0.0780 -0.5686 -0.1903
31235SOL    HW1  755   3.914   4.426   9.420  0.6493  1.4175 -2.2981
31235SOL    HW2  756   3.954   4.284   9.391  2.0479  1.1573  0.5583
31236SOL     OW  757  10.936  11.365   3.974 -0.3576 -0.0822  1.2447
31236SOL    HW1  758  10.997  11.429   3.939 -2.7868  3.0552  2.3266
31236SOL    HW2  759  10.968  11.347   4.063  1.2974 -1.8547  0.3608
31237SOL     OW  760   6.478   8.893  10.114  0.1226 -0.0537  0.1277
31237SOL    HW1  761   6.400   8.838  10.113  0.8278 -1.0870  0.0636
31237SOL    HW2  762   6.451   8.974  10.071 -0.9601 -0.3236  0.2792
31238SOL     OW  763   3.531   5.272   2.853  0.2338 -0.1115 -0.6732
31238SOL    HW1  764   3.507   5.243   2.765  0.7966  2.2398 -1.6919
31238SOL    HW2  765   3.619   5.309   2.843  0.1414  0.5846  0.7883
31239SOL     OW  766  11.573   1.771   2.100 -0.0952 -0.0753  0.2603
31239SOL    HW1  767  11.636   1.795   2.167  3.8622 -2.9017 -2.0667
31239SOL    HW2  768  11.518   1.704   2.141  0.7978 -0.1818  1.3241
31240SOL     OW  769  10.552   2.824   6.554  0.6865 -0.0637  0.2163
31240SOL    HW1  770  10.509   2.886   6.495  0.1446 -0.2153  0.4350
31240SOL    HW2  771  10.604   2.879   6.613 -0.0453  0.2243  0.6160
31241SOL     OW  772   1.195   6.288   0.810 -0.8645  0.0336 -0.5947
31241SOL    HW1  773   1.259   6.346   0.852 -0.3052 -0.7240 -0.3717
31241SOL    HW2  774   1.156   6.239   0.882  0.5282 -1.7052 -0.9503
31242SOL     OW  775   1.246   7.334  10.021 -0.5614 -0.4318  0.5399
31242SOL    HW1  776   1.165   7.304   9.980 -0.3625  0.2630 -0.4184
31242SOL    HW2  777   1.223   7.352  10.112 -1.4475 -0.4079  0.3163
31243SOL     OW  778   5.543   0.711   2.308 -0.4440  0.2099 -0.1043
31243SOL    HW1  779   5.607   0.669   2.251  0.9449  1.5504  0.4244
31243SOL    HW2  780   5.486   0.760   2.248  1.7240  2.5969 -0.3797
31244SOL     OW  781   5.900   9.584   0.918  0.5319  0.3961  0.0509
31244SOL    HW1  782   5.874   9.505   0.871 -1.1139  0.4554  0.7882
31244SOL    HW2  783   5.935   9.642   0.850  1.5140 -0.8372 -0.5365
31245SOL     OW  784   1.382   4.872   1.456 -1.0489  0.0155 -0.2127
31245SOL    HW1  785   1.454   4.810   1.468 -0.3402  0.6240 -1.1148
31245SOL    HW2  786   1.304   4.818   1.450 -0.5384 -0.7383 -0.2717
31246SOL     OW  787  12.048   3.316   4.552 -0.1957 -0.0929 -0.3579
31246SOL    HW1  788  12.131   3.305   4.505  0.5870  0.3465  0.8620
31246SOL    HW2  789  12.012   3.228   4.559  1.4475 -0.6966  1.3112
31247SOL     OW  790  10.868  12.130   9.321  0.3890 -0.3445 -0.4668
31247SOL    HW1  791  10.924  12.189   9.372  0.1671 -0.1871 -0.4023
31247SOL    HW2  792  10.779  12.159   9.341  0.2476 -1.1795  0.1376
31248SOL     OW  793   9.137   2.059   7.183  0.2918  0.1557  0.0365
31248SOL    HW1  794   9.230   2.083   7.176  0.9274 -2.0342  0.2790
31248SOL    HW2  795   9.100   2.078   7.097  1.0246  0.7796 -0.1523
31249SOL     OW  796   3.631  10.233   5.696 -0.5431 -0.4417  0.4017
31249SOL    HW1  797   3.566  10.163   5.697  0.2255 -1.1737  0.3629
31249SOL    HW2  798   3.685  10.215   5.619  0.0750 -0.1997  0.7705
31250SOL     OW  799   1.446   0.772   8.454 -0.4492  0.0616 -0.8112
31250SOL    HW1  800   1.414   0.751   8.366  0.5330 -0.5882 -1.0303
31250SOL    HW2  801   1.481   0.861   8.445 -0.8214  0.1950 -0.9486
31251SOL     OW  802   9.697   9.732  10.430  0.5456 -0.4691 -0.2198
31251SOL    HW1  803   9.661   9.650  10.395 -1.3724  0.0315  0.4408
31251SOL    HW2  804   9.640   9.800  10.393 -0.4548  0.2176  2.3618
31252SOL     OW  805  11.648   6.308   0.002 -0.3264 -0.1356  0.3402
31252SOL    HW1  806  11.675   6.390   0.043 -1.7162  0.1709  0.7031
31252SOL    HW2  807  11.704   6.241   0.042  0.0092  0.4791  0.9156
31253SOL     OW  808   1.327   1.560   1.826  0.3999  0.1592 -0.0894
31253SOL    HW1  809   1.247   1.611   1.835  1.3487  1.7361 -0.3272
31253SOL    HW2  810   1.362   1.553   1.915  0.0119 -0.5327  0.0150
31254SOL     OW  811   8.085   8.644   1.957 -0.5727 -0.0896 -0.5623
31254SOL    HW1  812   8.146   8.678   2.022 -0.7136 -0.8366 -0.0153
31254SOL    HW2  813   8.140   8.596   1.895 -0.2417  1.9501 -1.9516
31255SOL     OW  814   3.470  10.978   9.919 -0.3603  0.1737 -0.7003
31255SOL    HW1  815   3.412  10.909   9.950  1.1577 -0.3839  1.1190
31255SOL    HW2  816   3.545  10.931   9.882  1.2820  0.6962  1.6948
31256SOL     OW  817   5.829   8.760   5.000  0.0108 -0.1649 -0.0772
31256SOL    HW1  818   5.854   8.674   4.966 -1.8719 -0.3083 -1.2056
31256SOL    HW2  819   5.810   8.744   5.092  1.7057 -0.4902  0.2646
31257SOL     OW  820   9.745   3.238  10.511 -0.0398 -0.2904 -0.0755
31257SOL    HW1  821   9.691   3.295  10.456 -0.7369 -1.1196 -0.2821
31257SOL    HW2  822   9.750   3.283  10.595 -1.1048 -0.2110 -0.0344
31258SOL     OW  823   5.536   9.677   2.286 -0.2420  0.3265 -0.0478
31258SOL    HW1  824   5.545   9.738   2.213 -0.1930  0.1733 -0.1699
31258SOL    HW2  825   5.544   9.732   2.364  0.6127  0.3751 -0.1529
31259SOL     OW  826   1.960   6.867  11.467  0.5769  0.2645  0.1498
31259SOL    HW1  827   1.943   6.894  11.377  0.6075  3.2554  0.9142
31259SOL    HW2  828   1.994   6.778  11.460  0.9092  0.5265 -2.8076
31260SOL     OW  829  10.252   9.503   7.540 -0.0773  0.1605  0.4939
31260SOL    HW1  830  10.315   9.559   7.495 -0.5690  0.9723  0.7802
31260SOL    HW2  831  10.172   9.510   7.487  0.0638 -0.8608  0.1296
31261SOL     OW  832   5.235   0.195   8.725 -0.5304 -0.3078  0.2263
31261SOL    HW1  833   5.223   0.101   8.740 -1.7151 -0.3756 -1.0102
31261SOL    HW2  834   5.284   0.200   8.643 -0.3136  0.1636  0.3789
31262SOL     OW  835   2.018   7.726   7.346 -0.3371  0.2633  0.0019
31262SOL    HW1  836   2.094   7.671   7.365 -0.7623  0.2631  1.8829
31262SOL    HW2  837   1.968   7.727   7.427 -1.1154  2.2371 -0.4338
31263SOL     OW  838  11.941   7.454   5.842 -0.7247 -1.0275 -0.2012
31263SOL    HW1  839  11.911   7.429   5.930 -0.1101 -1.7300 -0.1800
31263SOL    HW2  840  12.032   7.426   5.840 -0.0316  1.1159 -0.2444
31264SOL     OW  841   0.037   3.761   4.754  0.4567  1.0173 -0.4814
31264SOL    HW1  842   0.121   3.769   4.800  0.0537  0.3926  0.3840
31264SOL    HW2  843   0.000   3.679   4.786  0.2605  0.4445 -2.1032
31265SOL     OW  844   3.290  10.057   1.502 -0.1802 -0.3493 -0.6114
31265SOL    HW1  845   3.244  10.140   1.518 -0.4937 -0.2573 -1.8211
31265SOL    HW2  846   3.220   9.996   1.479  0.1596 -0.6191 -0.9385
31266SOL     OW  847   6.682   3.757   6.672  0.4483 -0.2705  0.6852
31266SOL    HW1  848   6.654   3.680   6.622  2.2808  0.0804 -1.0244
31266SOL    HW2  849   6.644   3.831   6.625 -0.0744 -0.0472  1.4500
31267SOL     OW  850   1.249   9.378  10.057 -0.3250  0.3705 -0.0936
31267SOL    HW1  851   1.275   9.470  10.057  0.8437  0.0508  0.3356
31267SOL    HW2  852   1.164   9.378  10.101 -0.6243  1.3069 -0.6178
31268SOL     OW  853   7.538   1.478   2.688 -0.1375 -0.2078 -0.0359
31268SOL    HW1  854   7.448   1.465   2.657 -0.0997 -0.9804  0.1547
31268SOL    HW2  855   7.535   1.562   2.735 -0.2712  0.8202 -1.7949
31269SOL     OW  856   3.443   7.868   6.262  0.4093  0.3596  0.1347
31269SOL    HW1  857   3.457   7.791   6.317  0.2194  0.6541  0.6052
31269SOL    HW2  858   3.517   7.868   6.201 -0.2055 -0.8419 -0.6451
31270SOL     OW  859   4.577  11.932   0.211 -0.0079  0.0342  0.2494
31270SOL    HW1  860   4.616  11.857   0.255  2.1368  0.5764 -0.5979
31270SOL    HW2  861   4.558  11.994   0.281 -0.9505 -0.8996  0.8519
31271SOL     OW  862   2.076  11.359   5.289 -0.3161  0.2394 -0.0385
31271SOL    HW1  863   2.107  11.289   5.231 -0.5451 -0.4690  0.6668
31271SOL    HW2  864   2.098  11.328   5.377  0.0686  1.3127  0.2585
31272SOL     OW  865   3.752   1.542   6.622  0.1761  0.3287  0.1818
31272SOL    HW1  866   3.832   1.555   6.569  0.1206 -0.7501 -0.1927
31272SOL    HW2  867   3.783   1.497   6.700 -0.4403 -3.3869 -1.5043
31273SOL     OW  868  12.436   3.583   2.153  0.1739 -0.2371  0.5870
31273SOL    HW1  869  12.377   3.658   2.154 -0.5071 -0.7532  0.3112
31273SOL    HW2  870  12.380   3.508   2.177  1.1297 -0.4675  2.3341
31274SOL     OW  871  12.008   4.486   7.545  0.0651 -0.5780 -0.1952
31274SOL    HW1  872  12.031   4.571   7.508  1.4708 -0.6320  0.4865
31274SOL    HW2  873  12.092   4.444   7.561 -0.5912 -1.6829  0.4468
31275SOL     OW  874   1.339   4.572   9.225 -0.2200  0.2307 -0.2249
31275SOL    HW1  875   1.421   4.618   9.245  0.4165 -1.1646  0.5067
31275SOL    HW2  876   1.366   4.485   9.197 -1.4545 -0.1886 -0.1924
31276SOL     OW  877   7.040   1.266   2.140  0.3578  0.2975 -0.4127
31276SOL    HW1  878   6.949   1.294   2.140  0.4829  0.7218 -0.1920
31276SOL    HW2  879   7.079   1.312   2.066  0.4226  0.2293 -0.4209
31277SOL     OW  880   3.836   9.215   0.921  0.7933 -0.0945 -0.3438
31277SOL    HW1  881   3.744   9.190   0.915  0.2562  0.7917  2.7901
31277SOL    HW2  882   3.882   9.145   0.874 -1.3941 -0.7685 -1.6483
31278SOL     OW  883   2.863   8.129   1.299 -0.3441  0.3532  0.0802
31278SOL    HW1  884   2.877   8.100   1.209  0.1208 -0.9492  0.5389
31278SOL    HW2  885   2.950   8.153   1.331 -0.1421 -1.2375  0.8205
31279SOL     OW  886  10.100  10.296  12.280 -0.2512  0.2271  0.3486
31279SOL    HW1  887  10.113  10.360  12.210  0.4503  0.0905  0.3544
31279SOL    HW2  888  10.152  10.220  12.255 -1.1847 -0.4028  0.2794
31280SOL     OW  889   6.457   7.650   6.433 -0.0906 -0.0498 -0.0059
31280SOL    HW1  890   6.538   7.647   6.384  0.4742  1.0734  0.8134
31280SOL    HW2  891   6.402   7.712   6.385 -0.3861 -0.6416 -0.4382
31281SOL     OW  892   8.690  11.915   9.643 -0.9628 -0.1840 -0.3984
31281SOL    HW1  893   8.674  11.847   9.578  2.7123 -1.1087 -0.5793
31281SOL    HW2  894   8.751  11.975   9.600 -1.7811  1.6080  0.8001
31282SOL     OW  895  12.169   2.070   0.037 -0.1087 -0.5934 -0.0918
31282SOL    HW1  896  12.253   2.041   0.072  0.8953  0.0365 -1.8674
31282SOL    HW2  897  12.188   2.098  -0.053 -1.8897  1.1661 -0.0020
31283SOL     OW  898   9.949   8.983   4.415 -0.2524  0.2570  0.3092
31283SOL    HW1  899   9.964   9.070   4.451  1.0067 -0.2245  1.0104
31283SOL    HW2  900  10.033   8.938   4.425 -0.9630 -1.1423  0.2678
31284SOL     OW  901   1.909   9.565   9.435  0.4471  0.3041  0.4396
31284SOL    HW1  902   1.824   9.521   9.442  0.7742 -0.2738  0.9000
31284SOL    HW2  903   1.971   9.504   9.476  0.7332  1.7299  2.2384
31285SOL     OW  904   5.802   8.176   8.935 -0.4762 -1.2921 -0.0557
31285SOL    HW1  905   5.878   8.202   8.987  1.0399  1.6303 -3.3263
31285SOL    HW2  906   5.735   8.241   8.958 -0.9435 -1.9581  0.5126
31286SOL     OW  907  11.083   6.463  11.991  0.2578  0.0762  0.3270
31286SOL    HW1  908  10.990   6.442  11.979  0.2993 -0.3995  0.8209
31286SOL    HW2  909  11.090   6.555  11.964  0.0311 -0.4409 -1.5813
31287SOL     OW  910   8.946   1.339   5.727 -0.5026  0.2896 -0.2551
31287SOL    HW1  911   8.903   1.297   5.653  1.4664 -1.4197 -0.5418
31287SOL    HW2  912   8.927   1.281   5.801  1.7633 -0.9307 -0.5338
31288SOL     OW  913  11.855   2.276   1.062 -0.0178  0.0288  0.0124
31288SOL    HW1  914  11.779   2.289   1.006  0.3328  0.7684 -0.2986
31288SOL    HW2  915  11.830   2.203   1.119 -0.9849  0.3038 -0.0350
31289SOL     OW  916  10.169   5.504   3.141 -0.3551  0.4174  0.5108
31289SOL    HW1  917  10.251   5.454   3.131  0.3154  1.2816  1.4565
31289SOL    HW2  918  10.178   5.577   3.080  0.4721  1.5836  1.9503
31290SOL     OW  919  10.187  11.498   1.358  0.0417  0.2731 -0.4166
31290SOL    HW1  920  10.123  11.526   1.424  1.2319  1.6563  0.2036
31290SOL    HW2  921  10.154  11.413   1.328 -1.0515  0.0420  1.2547
31291SOL     OW  922  12.400   5.257   8.391 -0.0778 -0.7215 -0.1154
31291SOL    HW1  923  12.360   5.173   8.366  0.8640 -1.7529  1.7066
31291SOL    HW2  924  12.492   5.236   8.408  0.8125  1.1905 -2.0532
31292SOL     OW  925  10.928   5.406   1.802  0.5422 -0.3169  0.2555
31292SOL    HW1  926  11.001   5.350   1.829  0.9252 -0.0750 -0.2630
31292SOL    HW2  927  10.857   5.345   1.782  1.0715 -0.6573 -0.6662
31293SOL     OW  928  10.808   4.408   9.922 -0.2150  0.2143  0.5030
31293SOL    HW1  929  10.854   4.457   9.990 -0.0921  2.9349 -1.4203
31293SOL    HW2  930  10.721   4.392   9.959 -0.1888  1.7096  1.2986
31294SOL     OW  931   4.797   1.377   9.931 -0.1936 -0.3525 -0.0503
31294SOL    HW1  932   4.711   1.416   9.950 -0.0637  0.1804 -0.5289
31294SOL    HW2  933   4.779   1.306   9.870 -0.1612  0.5910 -1.1788
31295SOL     OW  934   8.810  11.506   6.486  0.0994  0.1831 -0.6726
31295SOL    HW1  935   8.859  11.487   6.406  0.6032 -1.8671  0.0881
31295SOL    HW2  936   8.849  11.588   6.519  0.9793  0.1812 -1.6585
31296SOL     OW  937  12.224   2.131  12.022  0.3060 -0.3818 -0.4752
31296SOL    HW1  938  12.250   2.042  11.997 -3.6294 -2.2831  1.2985
31296SOL    HW2  939  12.155   2.154  11.960 -0.9102  0.0005  0.9438
31297SOL     OW  940   3.086   1.905   7.700  0.2276 -0.1715 -0.1605
31297SOL    HW1  941   2.991   1.893   7.712  0.4422 -0.4423  1.5634
31297SOL    HW2  942   3.103   1.992   7.734  0.4678  0.2963 -1.4385
31298SOL     OW  943  11.693   4.907  10.777 -0.4039 -0.0797 -0.1065
31298SOL    HW1  944  11.728   4.835  10.725 -2.1790 -0.7449 -0.4675
31298SOL    HW2  945  11.708   4.985  10.725  2.8506  0.1071  0.9119
31299SOL     OW  946   1.836   4.889  10.437 -0.4171  0.6307  0.9916
31299SOL    HW1  947   1.819   4.907  10.530  1.0347 -0.4426  1.5067
31299SOL    HW2  948   1.761   4.837  10.409  0.4410 -1.5624  2.4147
31300SOL     OW  949   7.702   0.587   7.226 -0.1152 -0.1065 -0.8075
31300SOL    HW1  950   7.727   0.635   7.147 -0.3963  1.4337 -0.0035
31300SOL    HW2  951   7.785   0.562   7.266  0.0292 -0.9625 -1.6014
31301SOL     OW  952   1.694   5.466  11.214  0.1913  0.6348 -0.1776
31301SOL    HW1  953   1.664   5.556  11.228 -0.2034  0.3859  0.6357
31301SOL    HW2  954   1.621   5.411  11.243 -0.4404  0.0355 -2.7153
31302SOL     OW  955   2.546   3.276  11.863  0.8367 -0.5681 -0.4114
31302SOL    HW1  956   2.556   3.274  11.767 -0.3382  1.3971 -0.6333
31302SOL    HW2  957   2.480   3.343  11.878  0.0956 -1.7180  1.7396
31303SOL     OW  958   4.859   3.750   6.853 -0.0334  0.8251  0.3142
31303SOL    HW1  959   4.877   3.691   6.926 -0.3944 -0.7850 -0.8467
31303SOL    HW2  960   4.944   3.789   6.832  0.7168 -1.0206 -0.3118
31304SOL     OW  961   7.335   3.649   1.969 -0.7752 -0.7763  0.0519
31304SOL    HW1  962   7.357   3.556   1.975  0.9488 -0.2877  2.5550
31304SOL    HW2  963   7.250   3.656   2.012 -0.7201 -1.1248  0.2219
31305SOL     OW  964   9.096   5.972   0.683  0.2718 -0.0175  0.7262
31305SOL    HW1  965   9.125   5.946   0.770 -0.5950 -0.3354  0.9310
31305SOL    HW2  966   9.167   6.025   0.648  0.2634  0.8310  1.9688
31306SOL     OW  967   9.385   1.048  10.016  0.1370  0.4066 -0.3447
31306SOL    HW1  968   9.420   1.125   9.972  1.3807  0.0152 -0.0854
31306SOL    HW2  969   9.314   1.017   9.959  1.2139  0.3470 -1.6767
31307SOL     OW  970   0.829   3.607   8.338  0.2530 -0.0237 -0.4171
31307SOL    HW1  971   0.810   3.565   8.254  0.4148  0.3628 -0.6514
31307SOL    HW2  972   0.835   3.700   8.317  0.3427  0.0699  0.0164
31308SOL     OW  973   1.796  11.458   2.376 -0.2949 -0.3317 -0.2057
31308SOL    HW1  974   1.766  11.510   2.301  2.2726  0.4183 -0.8009
31308SOL    HW2  975   1.810  11.523   2.445 -1.4207 -0.8673  0.5525
31309SOL     OW  976   2.780   5.936  10.777 -0.2148 -0.3232  0.4703
31309SOL    HW1  977   2.827   5.916  10.858 -2.9918  0.8260  2.5393
31309SOL    HW2  978   2.704   5.878  10.779 -0.4019 -0.1874 -1.2783
31310SOL     OW  979   5.800   2.226   9.869 -0.0554  0.2621  0.8256
31310SOL    HW1  980   5.733   2.163   9.895  0.1684 -0.7012 -0.8040
31310SOL    HW2  981   5.791   2.233   9.774  1.1564  1.2852  0.7578
31311SOL     OW  982   8.063   2.243   6.201 -0.2308 -0.1300  0.1520
31311SOL    HW1  983   8.137   2.206   6.153  0.4840  0.6223  0.6543
31311SOL    HW2  984   7.988   2.231   6.143  0.3184 -0.7231 -0.4427
31312SOL     OW  985   3.613  10.657  10.922  0.1236 -0.0003 -0.2657
31312SOL    HW1  986   3.609  10.673  10.828  0.2132 -0.6047 -0.3774
31312SOL    HW2  987   3.698  10.613  10.936  0.7696  1.3801  0.3027
31313SOL     OW  988   4.909  11.843   1.518 -0.1765  0.1308  0.4377
31313SOL    HW1  989   4.924  11.774   1.583 -0.1293 -3.1694 -2.7384
31313SOL    HW2  990   4.815  11.838   1.499  0.0904 -0.2414 -0.9284
31314SOL     OW  991   1.696   7.915   7.045  0.2631 -0.3589 -0.7375
31314SOL    HW1  992   1.734   7.984   7.100 -0.7335  1.3053 -2.0131
31314SOL    HW2  993   1.624   7.880   7.097  2.3988 -2.4043  1.0282
31315SOL     OW  994   0.087   2.004   6.756 -0.5602  0.2775  0.5023
31315SOL    HW1  995   0.139   2.049   6.823  0.4729  0.7518 -0.5905
31315SOL    HW2  996  -0.004   2.017   6.784 -0.1783  1.1076  1.4117
31316SOL     OW  997  10.873   6.937   9.690 -0.7448  0.2451  0.1556
31316SOL    HW1  998  10.805   6.871   9.704  0.0884 -0.7915 -0.5989
31316SOL    HW2  999  10.921   6.939   9.773  0.8755 -2.0649 -0.6270
31317SOL     OW 1000   1.291   1.946   2.470 -0.3396 -0.2204 -0.5462
31317SOL    HW1 1001   1.252   1.859   2.475  0.0236 -0.3317  0.6876
31317SOL    HW2 1002   1.376   1.932   2.427 -0.5792 -0.3599 -0.9766
31318SOL     OW 1003  12.099   5.170   2.037  0.0089 -0.0392 -0.3967
31318SOL    HW1 1004  12.015   5.126   2.027 -0.3401  0.3405  0.7272
31318SOL    HW2 1005  12.086   5.233   2.108  1.7738 -1.3553  1.1928
31319SOL     OW 1006   1.155  11.518   5.568  0.0703 -0.1359  0.2876
31319SOL    HW1 1007   1.233  11.469   5.540  0.8759  0.6130  1.1589
31319SOL    HW2 1008   1.131  11.479   5.652 -1.1162 -1.0080 -0.4133
31320SOL     OW 1009   1.273   8.456   0.231  0.4489  0.2217 -0.0042
31320SOL    HW1 1010   1.203   8.433   0.171 -0.3561 -0.9053  1.3038
31320SOL    HW2 1011   1.349   8.407   0.200  0.0443 -0.3492 -0.1122
31321SOL     OW 1012   8.336   5.326   8.758 -0.1250  0.2240 -0.3510
31321SOL    HW1 1013   8.366   5.303   8.846 -3.0747  0.1445  0.7579
31321SOL    HW2 1014   8.304   5.416   8.766  0.0849  0.4082 -1.4909
31322SOL     OW 1015   0.499   4.899   2.928 -0.4152 -0.4531  0.0154
31322SOL    HW1 1016   0.429   4.835   2.928 -1.0280  0.2000 -0.1167
31322SOL    HW2 1017   0.464   4.973   2.979  0.7527 -0.7237  1.2656
31323SOL     OW 1018   8.696   1.770   1.718  0.4122  0.0096  0.3390
31323SOL    HW1 1019   8.764   1.783   1.784 -0.0220  2.5198  0.3878
31323SOL    HW2 1020   8.633   1.840   1.735 -0.7836 -0.5892 -1.4123
31324SOL     OW 1021  11.410   1.514   5.391  0.1337 -0.0151  0.2743
31324SOL    HW1 1022  11.419   1.552   5.303 -0.5563 -0.3904  0.0354
31324SOL    HW2 1023  11.465   1.569   5.446 -3.3372  3.6268  0.6217
31325SOL     OW 1024   0.120   2.891   4.158 -0.0209  0.2214 -0.1442
31325SOL    HW1 1025   0.025   2.882   4.157 -0.0764  0.7757 -0.2747
31325SOL    HW2 1026   0.152   2.815   4.110 -0.5027  1.2124 -2.1115
31326SOL     OW 1027   3.278   3.246  11.564  0.3206  0.1036 -0.3228
31326SOL    HW1 1028   3.327   3.164  11.554 -0.0983 -0.2306  0.3214
31326SOL    HW2 1029   3.278   3.263  11.658 -0.8425  0.0711 -0.3093
31327SOL     OW 1030   8.862   0.913  12.586 -0.0477 -0.3118  0.2137
31327SOL    HW1 1031   8.884   0.822  12.567  1.3905 -0.0055  0.3054
31327SOL    HW2 1032   8.941   0.963  12.562 -0.9665  0.9730 -0.2916
31328SOL     OW 1033   3.838  10.997   2.848  0.1813  0.3039 -0.4872
31328SOL    HW1 1034   3.776  11.066   2.824  0.2317 -0.1104 -1.8983
31328SOL    HW2 1035   3.921  11.043   2.862 -0.1056  0.6876  0.0068
31329SOL     OW 1036   9.715   6.867   0.864 -0.0794  0.2684 -0.4230
31329SOL    HW1 1037   9.685   6.776   0.858 -0.2827  0.3065 -0.0135
31329SOL    HW2 1038   9.647   6.917   0.821 -0.9567  0.4222  1.0766
31330SOL     OW 1039   3.228   3.607   9.434 -0.2752 -0.2304 -0.4635
31330SOL    HW1 1040   3.170   3.637   9.364  0.2511 -1.1718 -1.3348
31330SOL    HW2 1041   3.182   3.533   9.473 -0.0868 -0.3708 -0.5101
31331SOL     OW 1042   3.795   4.873   8.446  0.0177  0.4069 -0.6025
31331SOL    HW1 1043   3.807   4.944   8.383  0.0530 -0.1679 -1.2581
31331SOL    HW2 1044   3.826   4.795   8.400  2.5586  0.3307  1.0201
31332SOL     OW 1045   4.322   3.812   5.825  0.2507 -0.3764 -0.1535
31332SOL    HW1 1046   4.374   3.772   5.756  0.0164 -0.4195 -0.3070
31332SOL    HW2 1047   4.301   3.900   5.793 -0.0071 -0.4597 -0.2142
31333SOL     OW 1048   9.347  12.224   7.489 -0.0173  0.6288  0.4210
31333SOL    HW1 1049   9.296  12.152   7.527 -0.4113 -0.1352 -1.4707
31333SOL    HW2 1050   9.350  12.205   7.395  0.1458  2.9235 -0.0907
31334SOL     OW 1051   5.815   6.546  11.912 -0.0850  0.4605  0.6870
31334SOL    HW1 1052   5.792   6.459  11.945 -0.2149 -0.3024 -1.2683
31334SOL    HW2 1053   5.765   6.607  11.967  0.5209 -0.6370  2.5178
31335SOL     OW 1054   4.806   6.745   3.818  0.3636 -0.6676 -0.2185
31335SOL    HW1 1055   4.901   6.748   3.822  0.4646  1.4776 -2.1531
31335SOL    HW2 1056   4.778   6.830   3.854 -0.9108 -1.6751  1.2846
31336SOL     OW 1057   6.670   4.843   4.321 -0.4303 -0.2412  0.3508
31336SOL    HW1 1058   6.612   4.786   4.271 -2.2505  2.7537 -1.2548
31336SOL    HW2 1059   6.612   4.886   4.385  0.3198  1.4383 -0.0237
31337SOL     OW 1060  12.099   2.946   1.564  0.4659  0.6633 -0.4554
31337SOL    HW1 1061  12.021   2.984   1.524 -0.0661 -2.1983 -2.4088
31337SOL    HW2 1062  12.066   2.884   1.629  1.2684  1.7130  1.0510
31338SOL     OW 1063   8.708  11.904  10.843  0.4557 -0.1333 -0.4199
31338SOL    HW1 1064   8.783  11.858  10.806  0.9350 -0.2127  0.6043
31338SOL    HW2 1065   8.732  11.919  10.935 -0.9218 -0.4802  0.0244
31339SOL     OW 1066   3.047   5.101   2.539 -0.6307 -0.0579 -0.3886
31339SOL    HW1 1067   3.032   5.077   2.448 -2.7858  0.8684 -0.3305
31339SOL    HW2 1068   2.962   5.094   2.581  0.0032  1.0375  1.1944
31340SOL     OW 1069   3.601   2.849   7.393 -0.1587 -0.7004  0.1004
31340SOL    HW1 1070   3.545   2.830   7.468 -0.9147 -1.7354 -0.6923
31340SOL    HW2 1071   3.672   2.784   7.400 -0.7672 -1.4721 -0.5952
31341SOL     OW 1072   6.788  12.402   1.461 -0.0283 -0.1879  0.5496
31341SOL    HW1 1073   6.818  12.466   1.525 -1.8552  0.5888  0.7038
31341SOL    HW2 1074   6.693  12.415   1.457 -0.1052 -0.9503 -1.5143
31342SOL     OW 1075   2.977   1.747   3.243 -0.3382 -0.7098  0.1670
31342SOL    HW1 1076   3.051   1.687   3.246  1.1158  0.9404 -0.8403
31342SOL    HW2 1077   2.947   1.743   3.152  1.5790  2.0109 -0.7310
31343SOL     OW 1078   7.424   2.456  11.592  0.4523  0.3995  0.1899
31343SOL    HW1 1079   7.374   2.402  11.653 -2.7436  2.1339 -0.6695
31343SOL    HW2 1080   7.467   2.521  11.647 -0.0850  0.2273  0.8269
31344SOL     OW 1081  12.239   2.666   4.718 -0.2259  0.3877 -0.1524
31344SOL    HW1 1082  12.213   2.673   4.626  2.0084 -0.5585 -0.9302
31344SOL    HW2 1083  12.199   2.585   4.748  0.3120 -0.1211 -0.7785
31345SOL     OW 1084   9.279   1.678   1.871 -0.2900 -0.5516 -0.0030
31345SOL    HW1 1085   9.334   1.624   1.928  1.4082  0.7042 -0.3730
31345SOL    HW2 1086   9.245   1.616   1.806 -2.3645 -2.0289  2.3276
31346SOL     OW 1087   3.262   2.221   2.864 -0.5379 -0.7561 -0.8468
31346SOL    HW1 1088   3.293   2.255   2.780 -1.0641 -2.0459 -1.5908
31346SOL    HW2 1089   3.171   2.198   2.848 -0.6609 -0.9755  0.1029
31347SOL     OW 1090   7.525   3.656  10.156  0.3722  0.1640 -0.6529
31347SOL    HW1 1091   7.490   3.570  10.134 -1.1010  1.1799 -2.5502
31347SOL    HW2 1092   7.557   3.647  10.246 -1.5744 -1.8122 -0.0868
31348SOL     OW 1093   2.935  11.106   3.911 -0.5459  0.2029  0.0939
31348SOL    HW1 1094   2.993  11.055   3.967 -0.1327  0.1702 -0.3589
31348SOL    HW2 1095   2.848  11.071   3.928 -0.4786  0.4347  0.9886
31349SOL     OW 1096  11.413   8.059   4.455  0.1449  0.1941  0.3794
31349SOL    HW1 1097  11.434   7.966   4.469 -0.4310 -0.2524 -1.4601
31349SOL    HW2 1098  11.427   8.073   4.361 -3.0412  1.0717 -0.0757
31350SOL     OW 1099   5.557  10.111  12.170  0.7240 -0.0331  0.3578
31350SOL    HW1 1100   5.492  10.158  12.117  1.3224 -0.8636 -1.1774
31350SOL    HW2 1101   5.515  10.029  12.193  0.5115  0.2749  1.1029
31351SOL     OW 1102   9.879   2.536   3.824 -0.1707 -0.2245  0.0904
31351SOL    HW1 1103   9.872   2.488   3.907  2.6674 -1.6786 -0.3727
31351SOL    HW2 1104   9.908   2.623   3.849 -0.7348 -0.1965  0.6833
31352SOL     OW 1105   0.335   0.966  10.473  0.6500 -0.0918 -0.1366
31352SOL    HW1 1106   0.402   1.004  10.530  1.3847  0.9844 -1.6458
31352SOL    HW2 1107   0.273   0.924  10.533  1.7215  0.4368  1.3967
31353SOL     OW 1108  10.814   1.046   7.067  0.2146 -0.2015 -0.0986
31353SOL    HW1 1109  10.839   1.110   7.134  0.7532  1.6023 -1.9424
31353SOL    HW2 1110  10.720   1.059   7.055  0.5087  1.0415 -1.2218
31354SOL     OW 1111   3.954  10.070   8.511 -0.1502  0.1791  0.3070
31354SOL    HW1 1112   3.943  10.020   8.592  0.9935 -0.3462  0.1441
31354SOL    HW2 1113   3.924  10.012   8.442  1.7683 -0.5710  0.0505
31355SOL     OW 1114   5.065   3.035   8.732  0.5042 -0.0961  0.0537
31355SOL    HW1 1115   5.001   2.978   8.689 -0.1479 -0.3660  1.3320
31355SOL    HW2 1116   5.143   2.980   8.741  0.4728 -0.2039 -0.3162
31356SOL     OW 1117   3.275   4.816   9.018  0.1160  0.0797 -0.2026
31356SOL    HW1 1118   3.260   4.851   9.106 -4.2072 -0.4832 -0.5168
31356SOL    HW2 1119   3.284   4.722   9.030 -2.5431 -0.2701 -0.3861
31357SOL     OW 1120   2.733   4.958   0.726 -0.7072  0.1554 -0.3805
31357SOL    HW1 1121   2.783   5.024   0.773 -2.5195  1.3758 -0.0742
31357SOL    HW2 1122   2.782   4.877   0.738  2.2860  1.6192 -1.8349
31358SOL     OW 1123   6.191  12.398   3.390 -0.0383  0.5837 -0.4004
31358SOL    HW1 1124   6.258  12.466   3.384  0.4406  0.0549 -1.2676
31358SOL    HW2 1125   6.206  12.343   3.313  0.1317 -1.0145  0.7168
31359SOL     OW 1126  10.313   4.197   1.268 -0.6579  0.0475  0.1762
31359SOL    HW1 1127  10.402   4.181   1.300 -0.6002 -0.6054 -0.2901
31359SOL    HW2 1128  10.301   4.134   1.197 -1.2172  0.6608 -0.2867
31360SOL     OW 1129   2.837   4.872  10.045 -0.1997  0.6005  0.1565
31360SOL    HW1 1130   2.769   4.804  10.050  0.3671 -0.0035 -0.1154
31360SOL    HW2 1131   2.843   4.907  10.134 -1.6520  1.4585 -0.0506
31361SOL     OW 1132   0.983   3.559   9.356 -0.3293  0.7035  0.9476
31361SOL    HW1 1133   0.920   3.620   9.316  0.5004 -0.3573 -2.2846
31361SOL    HW2 1134   1.045   3.616   9.402 -0.5092  2.2041 -0.5679
31362SOL     OW 1135   4.352   5.627   5.755 -0.0979 -0.1592 -0.0675
31362SOL    HW1 1136   4.373   5.641   5.847 -0.1014  1.0279 -0.2260
31362SOL    HW2 1137   4.381   5.707   5.711 -1.8671  0.1312 -0.7956
31363SOL     OW 1138   4.138   6.561  11.078 -0.0096 -0.0064  0.0017
31363SOL    HW1 1139   4.060   6.537  11.128 -0.2706 -1.1921 -0.9097
31363SOL    HW2 1140   4.207   6.504  11.112 -0.4767 -1.7397 -1.7255
31364SOL     OW 1141   9.201  10.959   8.935 -0.1199 -0.0031  0.7152
31364SOL    HW1 1142   9.265  10.946   9.005  0.4276 -0.4792  0.1350
31364SOL    HW2 1143   9.199  11.053   8.921 -0.2058  0.0946  1.3410
31365SOL     OW 1144   9.672   6.919   6.780 -0.3208 -0.0879 -0.0116
31365SOL    HW1 1145   9.738   6.941   6.715  1.0445 -0.4188  1.2060
31365SOL    HW2 1146   9.701   6.963   6.860  0.6756 -3.3420  1.6123
31366SOL     OW 1147  10.157   3.604  10.746 -0.4228 -0.2032  0.0694
31366SOL    HW1 1148  10.236   3.604  10.692 -0.7484  0.3543 -0.4232
31366SOL    HW2 1149  10.085   3.606  10.683 -0.8057  2.4007  0.4667
31367SOL     OW 1150   7.840   8.600   1.206 -0.1969  0.3666  0.0767
31367SOL    HW1 1151   7.862   8.512   1.177 -0.3378  0.5540 -0.6204
31367SOL    HW2 1152   7.747   8.611   1.183  0.0993  1.0812 -0.8601
31368SOL     OW 1153   1.400   2.690   8.314 -0.5441  0.0944 -0.1689
31368SOL    HW1 1154   1.360   2.608   8.285 -0.9372  0.8175 -1.8217
31368SOL    HW2 1155   1.328   2.754   8.309  0.1355  0.8537 -0.5006
31369SOL     OW 1156   6.033  10.239   9.873 -0.1907  0.7072 -0.2560
31369SOL    HW1 1157   6.107  10.183   9.897 -0.9009  0.5953  1.8508
31369SOL    HW2 1158   6.047  10.319   9.923 -2.5212 -0.0947  1.8773
31370SOL     OW 1159   0.337   5.160   4.081  0.3845 -0.1710 -0.4161
31370SOL    HW1 1160   0.371   5.085   4.130 -0.3168 -0.6093 -0.5777
31370SOL    HW2 1161   0.244   5.141   4.070  0.1468  0.8281 -0.2720
31371SOL     OW 1162   5.742  11.557  10.824  0.0345 -0.4582 -0.6227
31371SOL    HW1 1163   5.775  11.634  10.871 -0.8914  0.6785 -1.7433
31371SOL    HW2 1164   5.801  11.547  10.750  0.9358 -1.6707  0.2313
31372SOL     OW 1165   7.437   9.947  12.032  0.0832 -0.2016  0.2871
31372SOL    HW1 1166   7.447  10.039  12.059 -0.3256 -0.5878  1.8486
31372SOL    HW2 1167   7.374   9.950  11.960 -1.8122  0.5465  1.8808
31373SOL     OW 1168   3.970   1.790   4.040 -0.1566  0.7968  0.2569
31373SOL    HW1 1169   4.013   1.822   3.961 -2.6986  1.2448 -1.0876
31373SOL    HW2 1170   3.984   1.695   4.039  0.7132  0.9252 -0.1590
31374SOL     OW 1171  10.933   6.404   4.147 -0.0480  0.1881  0.0301
31374SOL    HW1 1172  10.918   6.486   4.196  0.1501  0.6655 -0.6879
31374SOL    HW2 1173  10.897   6.336   4.204  0.4532  0.6896  0.9846
31375SOL     OW 1174   1.487  11.448   4.523 -0.1120  0.2376  0.3832
31375SOL    HW1 1175   1.580  11.470   4.527  0.6029 -2.4020  0.5012
31375SOL    HW2 1176   1.457  11.452   4.614 -0.0837  0.9001  0.3682
31376SOL     OW 1177   4.915   3.766   5.180  0.4374  0.2755 -0.0547
31376SOL    HW1 1178   4.933   3.672   5.175 -0.2563  0.1590 -0.4654
31376SOL    HW2 1179   4.830   3.776   5.137  0.4140  1.0646  0.1740
31377SOL     OW 1180   0.338   8.828  10.432 -0.4043  0.0772  0.5413
31377SOL    HW1 1181   0.322   8.922  10.424  0.3313  0.2833  1.2786
31377SOL    HW2 1182   0.414   8.811  10.375 -0.2339  0.0229  0.7840
31378SOL     OW 1183   0.066   0.879   5.454  0.5874 -0.0417  0.0959
31378SOL    HW1 1184   0.142   0.838   5.412  0.6674 -1.0596  1.1586
31378SOL    HW2 1185  -0.008   0.826   5.425  0.5721 -0.3885  0.7514
31379SOL     OW 1186   8.158   8.512  10.755 -0.8860  0.5738  0.7445
31379SOL    HW1 1187   8.210   8.456  10.812  0.1592  0.9902  0.2238
31379SOL    HW2 1188   8.221   8.550  10.694 -2.0252 -0.1948 -0.9858
31380SOL     OW 1189   2.737   9.160   4.050 -0.6952  0.6765 -0.1582
31380SOL    HW1 1190   2.832   9.168   4.055 -0.6962  1.2916 -0.9108
31380SOL    HW2 1191   2.705   9.195   4.133 -0.2951  1.0037 -0.1406
31381SOL     OW 1192   7.543   7.825   8.881 -0.3579  0.3352  0.2125
31381SOL    HW1 1193   7.610   7.888   8.855 -0.2295 -0.1997 -0.8080
31381SOL    HW2 1194   7.572   7.742   8.843 -1.9296  0.2274 -0.8611
31382SOL     OW 1195   4.552   1.359   6.974 -0.0602  0.3624  0.3056
31382SOL    HW1 1196   4.588   1.411   6.902  1.1721 -0.5380  0.2411
31382SOL    HW2 1197   4.629   1.321   7.017 -0.8997 -1.8980 -0.0284
31383SOL     OW 1198   9.402   8.796   9.111 -0.1690  0.1105 -0.3063
31383SOL    HW1 1199   9.455   8.718   9.095 -0.9008 -0.3567 -0.5109
31383SOL    HW2 1200   9.313   8.762   9.122 -0.4435  0.8904 -0.0822
31384SOL     OW 1201   3.775   1.171   6.887 -0.0190  1.0092 -0.9819
31384SOL    HW1 1202   3.828   1.183   6.965 -0.3569  1.8529 -0.8681
31384SOL    HW2 1203   3.733   1.256   6.873 -0.5711  0.6439 -1.6286
31385SOL     OW 1204  10.938   9.903   3.880  0.6274 -0.0858 -0.0558
31385SOL    HW1 1205  10.960   9.966   3.948 -2.0785  3.3733 -2.1042
31385SOL    HW2 1206  10.847   9.879   3.897  0.3443 -0.2500 -1.6048
31386SOL     OW 1207  12.508  10.229   0.314  0.3354  0.2152  0.4524
31386SOL    HW1 1208  12.483  10.298   0.377 -0.0147  1.5219 -1.0362
31386SOL    HW2 1209  12.603  10.223   0.321  0.4489  1.3796  0.1145
31387SOL     OW 1210   8.910   7.598   5.769  0.4375  0.7199  0.5211
31387SOL    HW1 1211   8.964   7.603   5.691  2.3890 -0.8713  1.6744
31387SOL    HW2 1212   8.826   7.563   5.738  1.4973 -0.8515 -0.7677
31388SOL     OW 1213   4.426   1.387   6.040 -0.0055 -0.5066  0.1037
31388SOL    HW1 1214   4.336   1.417   6.054 -0.0890 -0.6961 -0.0204
31388SOL    HW2 1215   4.437   1.387   5.945 -0.0687 -1.0490  0.0953
31389SOL     OW 1216   0.361   6.366   1.447 -0.1443 -0.5609  0.4460
31389SOL    HW1 1217   0.285   6.309   1.460 -1.2817  0.8281  0.1072
31389SOL    HW2 1218   0.426   6.311   1.404 -0.5640 -2.0641  1.6535
31390SOL     OW 1219   9.580   6.066   3.956  0.4771 -0.4922 -0.0542
31390SOL    HW1 1220   9.667   6.030   3.941 -0.4305 -1.8693 -2.7886
31390SOL    HW2 1221   9.539   6.066   3.869 -1.9256  0.9849  0.9831
31391SOL     OW 1222   5.667  12.064   9.253  0.4707 -0.0735 -0.0242
31391SOL    HW1 1223   5.740  12.009   9.283  1.0918  0.3408 -0.7499
31391SOL    HW2 1224   5.601  12.001   9.224  1.3644 -0.4798 -1.2910
31392SOL     OW 1225  11.926  12.494   9.885  0.3038 -0.0347  0.4572
31392SOL    HW1 1226  11.999  12.495   9.946  0.6957 -1.3408  0.0539
31392SOL    HW2 1227  11.859  12.549   9.925  1.5601  1.3427  0.7475
31393SOL     OW 1228   9.235  10.731   8.160 -0.3362  0.3612  0.3577
31393SOL    HW1 1229   9.184  10.692   8.232  0.5605  1.5910  1.7088
31393SOL    HW2 1230   9.186  10.809   8.136 -1.3379 -0.7360 -1.3249
31394SOL     OW 1231   5.346  10.037  10.882  0.3896 -0.2521  0.4244
31394SOL    HW1 1232   5.437  10.029  10.911 -0.4341 -1.4135  2.9906
31394SOL    HW2 1233   5.313  10.115  10.926 -0.1048 -0.3176  0.1826
31395SOL     OW 1234   3.266   4.148   5.404  0.0845  0.4250 -0.1764
31395SOL    HW1 1235   3.176   4.124   5.425  0.2179 -1.9667 -1.8517
31395SOL    HW2 1236   3.319   4.076   5.437  1.1101  0.6374 -1.2620
31396SOL     OW 1237   9.296  11.700   6.599 -0.2182 -0.5146 -0.3506
31396SOL    HW1 1238   9.208  11.663   6.610  0.3009 -1.7563 -0.2665
31396SOL    HW2 1239   9.308  11.755   6.676  0.8877 -4.1113  2.3043
31397SOL     OW 1240   2.062   6.149   0.099  0.3056 -0.2121  0.1299
31397SOL    HW1 1241   2.150   6.169   0.131  0.1760  1.5713 -0.4849
31397SOL    HW2 1242   2.050   6.209   0.025 -1.5263 -0.1908  0.3997
31398SOL     OW 1243  12.139   1.587   3.306 -0.0379 -0.7025  0.2113
31398SOL    HW1 1244  12.137   1.515   3.243  1.8063  1.3839 -2.4720
31398SOL    HW2 1245  12.052   1.627   3.301  0.5403  0.4303 -2.4290
31399SOL     OW 1246   3.777   4.134   9.040  0.6859  0.3270 -0.0145
31399SOL    HW1 1247   3.762   4.086   9.121 -0.8241 -0.8945 -0.9544
31399SOL    HW2 1248   3.840   4.080   8.991  0.1177  0.0364 -0.4447
31400SOL     OW 1249  11.955   9.318   2.709 -0.1315  0.1274  0.3476
31400SOL    HW1 1250  11.985   9.249   2.649  0.4563  1.4604 -0.9570
31400SOL    HW2 1251  12.022   9.320   2.778 -0.1442 -0.5879  0.3861
31401SOL     OW 1252  11.146   1.578   7.519 -0.1837  0.1910  0.2568
31401SOL    HW1 1253  11.061   1.541   7.542 -0.6021  1.6441  1.1562
31401SOL    HW2 1254  11.131   1.624   7.436 -0.5307  1.2951  0.9259
31402SOL     OW 1255   9.616  12.114   7.343  0.6802  0.4908 -0.4476
31402SOL    HW1 1256   9.654  12.067   7.269  0.8481  0.3909 -0.2988
31402SOL    HW2 1257   9.583  12.044   7.401  0.1440  0.5756 -0.6416
31403SOL     OW 1258   7.206  10.834   5.609  0.6019  0.2580  0.7043
31403SOL    HW1 1259   7.136  10.793   5.661  1.0442 -0.5493  0.6824
31403SOL    HW2 1260   7.242  10.902   5.666  0.3183  0.1501  1.0128
31404SOL     OW 1261   5.633   7.116   9.763 -0.2737  0.1955  0.1132
31404SOL    HW1 1262   5.545   7.092   9.732  0.1491 -1.0636 -0.1470
31404SOL    HW2 1263   5.660   7.186   9.704 -0.0699 -1.1718 -1.4974
31405SOL     OW 1264   5.032   6.817   2.191  0.0291  0.2291 -0.0165
31405SOL    HW1 1265   5.104   6.853   2.243  0.8439 -0.5275 -0.5907
31405SOL    HW2 1266   5.054   6.839   2.101  1.1785 -2.6117 -0.5248
31406SOL     OW 1267   9.315   3.194   2.380 -0.3254 -0.3752  0.3014
31406SOL    HW1 1268   9.282   3.241   2.456  0.9581  0.6676  0.2387
31406SOL    HW2 1269   9.355   3.115   2.416  0.3156  0.1344  0.7225
31407SOL     OW 1270   9.076   0.269  11.040 -0.0997  0.7436 -0.0760
31407SOL    HW1 1271   9.038   0.242  10.956  0.1467  0.2129 -0.0250
31407SOL    HW2 1272   9.010   0.246  11.105 -0.7739  2.1934 -0.2131
31408SOL     OW 1273   6.946   7.792   1.879  0.2586  0.4243 -0.2797
31408SOL    HW1 1274   6.962   7.795   1.785  3.1611 -3.0407 -0.1266
31408SOL    HW2 1275   6.880   7.724   1.889  1.0326 -0.2817  0.1867
31409SOL     OW 1276   0.709   3.542   0.357  0.4066 -0.0734 -0.5658
31409SOL    HW1 1277   0.639   3.605   0.342  0.2572 -0.6099 -2.3918
31409SOL    HW2 1278   0.677   3.487   0.429 -1.5240 -0.8978 -1.9617
31410SOL     OW 1279   5.050   4.057  12.527 -0.6730  0.3799  0.4876
31410SOL    HW1 1280   5.041   4.128  12.590  0.4803  1.6312 -0.7111
31410SOL    HW2 1281   5.141   4.061  12.498 -0.9502 -0.7099 -0.6349
31411SOL     OW 1282   5.730   6.820   1.072 -0.0890  0.5650 -0.4719
31411SOL    HW1 1283   5.637   6.843   1.062 -0.0081  0.6951 -0.9263
31411SOL    HW2 1284   5.756   6.865   1.152 -0.2609  1.0419 -0.6768
31412SOL     OW 1285   5.199   9.063   4.406  1.0045 -0.4536  0.2554
31412SOL    HW1 1286   5.260   9.068   4.332  1.1462  0.6295  0.4276
31412SOL    HW2 1287   5.114   9.047   4.367  1.5617 -3.7335  0.0930
31413SOL     OW 1288   6.353   7.057   9.588  0.2184 -0.0561  0.2382
31413SOL    HW1 1289   6.290   6.991   9.617  1.4052 -0.9054  0.9682
31413SOL    HW2 1290   6.389   7.022   9.507 -0.8731  0.8727 -0.6944
31414SOL     OW 1291  11.747   6.128   4.011  0.0405  0.2302 -0.1991
31414SOL    HW1 1292  11.834   6.108   3.976  0.3919  1.7923 -0.3186
31414SOL    HW2 1293  11.735   6.221   3.992 -2.2755 -0.2600 -1.4629
31415SOL     OW 1294   4.994   2.379  11.614  0.4903 -0.8630 -0.1314
31415SOL    HW1 1295   4.942   2.433  11.674  1.2036 -1.5258  1.1376
31415SOL    HW2 1296   4.968   2.289  11.633  3.1769 -1.3834  1.7924
31416SOL     OW 1297   1.434   1.715   7.194  0.1653  0.1714  0.2203
31416SOL    HW1 1298   1.520   1.673   7.193  0.4075  0.4477  3.1344
31416SOL    HW2 1299   1.372   1.643   7.178  0.8665  0.2358 -3.7620
31417SOL     OW 1300  10.105  11.016   5.434 -0.2015  0.3351  0.1231
31417SOL    HW1 1301  10.196  11.041   5.446 -0.3309  1.5575 -1.1667
31417SOL    HW2 1302  10.056  11.098   5.447 -1.0161 -0.0907 -0.2083
31418SOL     OW 1303   5.390   9.204   9.375 -0.1123  0.1478  0.1020
31418SOL    HW1 1304   5.454   9.195   9.304 -2.3077 -2.0604 -1.7321
31418SOL    HW2 1305   5.373   9.114   9.404 -1.2322  0.8159  1.6485
31419SOL     OW 1306  11.800   8.229   6.621  0.1177  0.1165  0.4360
31419SOL    HW1 1307  11.870   8.218   6.684 -0.8325  0.4211  1.5799
31419SOL    HW2 1308  11.776   8.321   6.627 -1.1416 -0.2150  0.9255
31420SOL     OW 1309  11.680   8.986  11.394  0.2832  0.5763 -0.6094
31420SOL    HW1 1310  11.603   8.941  11.430  0.8546  0.5914  0.6574
31420SOL    HW2 1311  11.666   8.982  11.299  0.9396 -3.5418 -0.7374
31421SOL     OW 1312   8.312  12.391   3.367 -0.3739 -0.1590  0.0167
31421SOL    HW1 1313   8.385  12.347   3.412 -0.5954  0.3293  0.8715
31421SOL    HW2 1314   8.316  12.358   3.277 -0.9557 -2.5066  0.7799
31422SOL     OW 1315   6.407   3.089  11.915 -0.4287  0.4113 -0.0258
31422SOL    HW1 1316   6.438   3.177  11.896 -1.5886  0.3518 -2.5725
31422SOL    HW2 1317   6.316   3.088  11.885 -0.6853 -1.4551  0.6511
31423SOL     OW 1318  10.325   5.920   7.773  0.3354  0.2652  0.2124
31423SOL    HW1 1319  10.264   5.881   7.711 -0.1492  0.0637  0.8018
31423SOL    HW2 1320  10.269   5.954   7.843  0.8336  0.9908  0.2636
31424SOL     OW 1321   1.804   5.045   1.760  0.4859  0.5029  0.0266
31424SOL    HW1 1322   1.709   5.053   1.747  0.3698 -1.1295 -0.3314
31424SOL    HW2 1323   1.817   4.952   1.782  1.7652  1.1347  2.3002
31425SOL     OW 1324   3.709   2.608   7.405 -0.3778  0.4979  0.1923
31425SOL    HW1 1325   3.706   2.549   7.480 -1.0860 -0.6553 -0.7087
31425SOL    HW2 1326   3.802   2.630   7.395 -0.2036  0.1639  1.0255
31426SOL     OW 1327   0.884   3.842  10.638 -0.6404  0.9947 -0.1817
31426SOL    HW1 1328   0.877   3.885  10.552 -0.2876  2.2137  0.3918
31426SOL    HW2 1329   0.829   3.895  10.696 -2.0839 -0.6713  0.0550
31427SOL     OW 1330   9.877  11.634  12.176 -0.1940 -0.1606 -0.1489
31427SOL    HW1 1331   9.857  11.667  12.088  0.2295 -0.3316 -0.3092
31427SOL    HW2 1332   9.972  11.627  12.178 -0.1418  0.6390  0.6173
31428SOL     OW 1333   9.817   9.454   4.213 -0.5070  0.4465 -0.0617
31428SOL    HW1 1334   9.787   9.400   4.285 -0.7743 -0.0918 -0.5644
31428SOL    HW2 1335   9.886   9.510   4.251 -0.4357 -0.0383  0.5281
31429SOL     OW 1336   9.631   9.318   8.714 -0.1406  0.1856 -0.4225
31429SOL    HW1 1337   9.598   9.390   8.659  1.5255 -0.3652 -2.2542
31429SOL    HW2 1338   9.713   9.352   8.750 -0.4642 -0.0186  0.5244
31430SOL     OW 1339   6.874   6.021   0.452 -0.7362  0.0538  0.1806
31430SOL    HW1 1340   6.817   6.006   0.528  1.4501 -3.1584  1.4348
31430SOL    HW2 1341   6.957   6.051   0.490  0.9312 -3.1457 -0.5596
31431SOL     OW 1342  10.754   4.975   1.609 -0.5032  0.1813  0.0369
31431SOL    HW1 1343  10.793   5.060   1.624  0.6667 -0.3062 -0.1172
31431SOL    HW2 1344  10.755   4.965   1.513 -1.1682  0.2270  0.0194
31432SOL     OW 1345   0.159   0.302   9.684  0.4785 -0.3947  0.3052
31432SOL    HW1 1346   0.248   0.319   9.652  0.4209 -1.9105 -0.7850
31432SOL    HW2 1347   0.171   0.255   9.766  0.6713  0.0404  0.5282
31433SOL     OW 1348   8.573   0.836   5.686 -0.8027  0.0838 -0.5253
31433SOL    HW1 1349   8.517   0.758   5.687 -2.3198  1.0946  1.7783
31433SOL    HW2 1350   8.653   0.807   5.641 -1.4675 -2.6650 -0.1391
31434SOL     OW 1351   1.665   2.442   1.827 -0.3432 -0.1548  0.0678
31434SOL    HW1 1352   1.603   2.503   1.786  0.1509 -0.7433 -1.6313
31434SOL    HW2 1353   1.611   2.366   1.850 -0.4444 -0.2588 -0.4939
31435SOL     OW 1354   1.303  12.177   4.053  0.2468 -0.7768  0.0079
31435SOL    HW1 1355   1.282  12.084   4.039 -0.5576 -0.9449  2.0482
31435SOL    HW2 1356   1.232  12.210   4.108  0.7640  0.9600 -0.3006
31436SOL     OW 1357   3.373   0.614  12.270 -0.9923 -0.2313 -0.2282
31436SOL    HW1 1358   3.360   0.707  12.256 -1.4028 -0.2504 -0.0003
31436SOL    HW2 1359   3.354   0.600  12.363 -0.9574 -0.5418 -0.2637
31437SOL     OW 1360   0.019   7.610   3.394  0.0019  0.0444  0.3077
31437SOL    HW1 1361   0.113   7.605   3.412  0.0582  0.0763  0.0254
31437SOL    HW2 1362   0.008   7.688   3.340 -0.1997  0.0946  0.4198
31438SOL     OW 1363   9.681   0.187  11.895 -0.0291 -0.2206  0.2566
31438SOL    HW1 1364   9.699   0.265  11.843 -0.5137 -0.4248 -0.2186
31438SOL    HW2 1365   9.767   0.159  11.926  0.1423  0.5386  0.4954
31439SOL     OW 1366   4.194   2.820   4.423 -0.2324 -0.0936 -1.0985
31439SOL    HW1 1367   4.273   2.870   4.443 -0.7898  0.3466  0.0561
31439SOL    HW2 1368   4.215   2.730   4.450 -0.6623  0.3237  0.7586
31440SOL     OW 1369  12.509   4.271   8.258  0.3959  0.1304 -0.6917
31440SOL    HW1 1370  12.573   4.319   8.205  1.0969 -1.2473 -1.1521
31440SOL    HW2 1371  12.424   4.307   8.231  0.7702 -0.1549 -2.3737
31441SOL     OW 1372  11.884   1.746  12.395  0.3893  0.1928  0.2511
31441SOL    HW1 1373  11.863   1.664  12.439  1.3074  0.2450  0.8195
31441SOL    HW2 1374  11.925   1.799  12.463  1.2614  0.5228 -0.5177
31442SOL     OW 1375   3.582   6.522   7.961  0.5737  0.2787  0.1934
31442SOL    HW1 1376   3.629   6.568   7.892  0.4934  1.4229  0.8745
31442SOL    HW2 1377   3.512   6.475   7.916  0.5797  0.9355 -0.5144
31443SOL     OW 1378   2.696  10.617   6.058  0.3928 -0.1767  0.6439
31443SOL    HW1 1379   2.688  10.534   6.104  1.5476 -0.1937  0.8598
31443SOL    HW2 1380   2.608  10.636   6.026  0.0924 -1.4226  0.6838
31444SOL     OW 1381   4.282  11.728  12.275 -0.4908  0.4531  0.2346
31444SOL    HW1 1382   4.197  11.756  12.309 -0.4837  0.3963  0.2997
31444SOL    HW2 1383   4.271  11.635  12.258 -0.5058  0.4892  0.0448
31445SOL     OW 1384  12.033   5.207  12.082 -0.1702  0.0286 -0.5890
31445SOL    HW1 1385  11.989   5.274  12.135  0.1920 -0.3412  0.2021
31445SOL    HW2 1386  12.066   5.255  12.006  0.6526  0.8991  0.2834
31446SOL     OW 1387  11.500   0.343   7.655 -0.2261 -0.5691  0.0844
31446SOL    HW1 1388  11.420   0.327   7.704 -1.4755  2.5285 -0.6843
31446SOL    HW2 1389  11.477   0.325   7.564  1.0236 -2.8474  0.1439
31447SOL     OW 1390   3.013   4.521   2.036 -0.2487 -1.1717  0.3702
31447SOL    HW1 1391   3.083   4.467   2.001 -0.9226 -1.1366 -1.0742
31447SOL    HW2 1392   3.057   4.601   2.066  0.4632 -1.6101  0.5078
31448SOL     OW 1393   4.308   7.107   7.097 -0.4649  0.1036  0.0267
31448SOL    HW1 1394   4.316   7.106   7.001  1.3300  0.4839  0.1302
31448SOL    HW2 1395   4.217   7.131   7.113 -1.2365 -1.4540 -1.5686
31449SOL     OW 1396   6.271   3.602  12.021  0.2294 -0.7050 -0.3026
31449SOL    HW1 1397   6.287   3.652  11.941 -0.6490  1.0111  0.5500
31449SOL    HW2 1398   6.348   3.618  12.076 -0.0154 -0.3478 -0.0610
31450SOL     OW 1399  10.547   2.913   7.446  0.5856  0.0820  0.2548
31450SOL    HW1 1400  10.526   2.856   7.372 -2.2927  2.0935 -0.6683
31450SOL    HW2 1401  10.615   2.971   7.413  0.5026 -0.0931 -0.2339
31451SOL     OW 1402   7.921   2.988   3.897  1.1638  0.3269 -0.2743
31451SOL    HW1 1403   7.913   2.930   3.972 -0.8651 -0.4512 -1.0090
31451SOL    HW2 1404   8.010   2.975   3.865  1.2989 -1.0559  0.6006
31452SOL     OW 1405   5.322   7.089   9.038  0.1571 -0.2299 -0.0496
31452SOL    HW1 1406   5.287   7.089   9.127 -2.1084 -0.4028 -0.8855
31452SOL    HW2 1407   5.355   7.000   9.025  1.4369  0.0755  0.9249
31453SOL     OW 1408   5.843   5.455   4.418  0.1279 -0.5017  0.1803
31453SOL    HW1 1409   5.849   5.388   4.350 -1.6994  0.2829 -0.8151
31453SOL    HW2 1410   5.883   5.533   4.379 -1.3378  0.0787 -0.2012
31454SOL     OW 1411   3.908  10.403   0.963 -0.4995  0.6796 -0.0360
31454SOL    HW1 1412   3.905  10.317   1.005 -2.7593  1.6466  1.9998
31454SOL    HW2 1413   3.943  10.385   0.875 -0.7632 -2.2644  0.3485
31455SOL     OW 1414   9.725  11.380   2.103 -0.5053 -0.2682  0.4246
31455SOL    HW1 1415   9.694  11.470   2.113 -1.2982 -0.5301  0.3824
31455SOL    HW2 1416   9.758  11.376   2.013 -1.3289 -0.2708  0.1184
31456SOL     OW 1417   8.072  11.428   8.664 -0.3976 -0.1425  0.1755
31456SOL    HW1 1418   8.032  11.346   8.692  0.9706 -0.3724  1.6001
31456SOL    HW2 1419   8.166  11.413   8.672 -0.1115  1.5239  0.4075
31457SOL     OW 1420   0.824   0.798   1.167  0.5576 -0.2178 -0.0554
31457SOL    HW1 1421   0.875   0.737   1.219 -0.6874 -1.0029  0.3003
31457SOL    HW2 1422   0.765   0.743   1.116  0.0123  0.6520 -0.3946
31458SOL     OW 1423   4.323   9.800   3.393  0.1324 -0.4133  0.7063
31458SOL    HW1 1424   4.416   9.818   3.402  0.2721  0.9032 -2.1287
31458SOL    HW2 1425   4.319   9.720   3.340 -0.3340 -0.4383  0.7773
31459SOL     OW 1426   0.336  11.573   4.033 -0.2188 -0.5889 -0.2386
31459SOL    HW1 1427   0.368  11.550   3.946  1.7142  1.5083 -0.1707
31459SOL    HW2 1428   0.285  11.653   4.020  1.3517  0.6247  0.6766
31460SOL     OW 1429   9.365  11.477   6.958 -0.0138 -0.3052 -0.3076
31460SOL    HW1 1430   9.270  11.472   6.945 -0.0094 -0.1959 -0.3847
31460SOL    HW2 1431   9.377  11.467   7.052 -0.2764  2.0380  0.0370
31461SOL     OW 1432   4.024   8.826   1.028  0.2881 -0.1490 -0.1820
31461SOL    HW1 1433   4.027   8.766   1.102  1.5206 -0.0085 -0.0935
31461SOL    HW2 1434   3.935   8.859   1.027  0.0393 -0.7629  0.7485
31462SOL     OW 1435   6.449   6.355   5.015 -0.2434 -0.2774  0.4450
31462SOL    HW1 1436   6.421   6.442   5.044 -1.0808  0.2515 -1.7540
31462SOL    HW2 1437   6.524   6.334   5.071 -1.9534  0.4366  3.1722
31463SOL     OW 1438   4.069   1.574   1.750 -0.1807 -0.3170 -0.1430
31463SOL    HW1 1439   4.032   1.522   1.822 -1.2299 -0.9581 -1.1134
31463SOL    HW2 1440   4.114   1.647   1.794 -1.4110 -0.2846  1.1510
31464SOL     OW 1441   6.096   2.598   2.328  0.2449  0.1807  0.3051
31464SOL    HW1 1442   6.003   2.591   2.307  0.5517 -3.1495 -0.5895
31464SOL    HW2 1443   6.141   2.580   2.245  1.7393  1.6608  0.7234
31465SOL     OW 1444   4.891   7.251   3.999 -0.0516 -0.0316  0.5669
31465SOL    HW1 1445   4.982   7.234   3.975  0.6551  1.4539  1.9942
31465SOL    HW2 1446   4.881   7.346   3.987 -1.0415  0.0079  1.5662
31466SOL     OW 1447   7.147   9.255   3.862 -0.4001  0.2195  0.1455
31466SOL    HW1 1448   7.132   9.308   3.940 -1.3888  2.7783 -1.6444
31466SOL    HW2 1449   7.199   9.311   3.805 -1.7269 -0.6028 -1.9711
31467SOL     OW 1450   1.606   3.624   6.045 -0.8566  0.2069  0.0055
31467SOL    HW1 1451   1.683   3.680   6.057 -1.4006  1.6619 -2.6710
31467SOL    HW2 1452   1.540   3.661   6.103 -0.0621 -0.1022  1.1527
31468SOL     OW 1453   2.219  11.322   6.729  0.3149  0.1839 -0.1919
31468SOL    HW1 1454   2.208  11.409   6.767 -0.8108 -0.7058  1.6595
31468SOL    HW2 1455   2.288  11.281   6.780 -1.1874 -1.0144  0.9878
31469SOL     OW 1456   1.025  10.528   0.368  0.0991 -0.1301  0.1683
31469SOL    HW1 1457   1.029  10.432   0.368 -1.8336 -0.2842 -1.4643
31469SOL    HW2 1458   1.057  10.553   0.281 -2.2122  0.4715 -0.5546
31470SOL     OW 1459   5.907   9.541   0.545 -0.6751  0.2253  0.0345
31470SOL    HW1 1460   5.860   9.525   0.463 -1.2148 -1.3604  0.6168
31470SOL    HW2 1461   5.865   9.619   0.582 -1.0303  0.4165 -0.7487
31471SOL     OW 1462   8.574   0.970   8.091  0.1044  0.4599 -0.1740
31471SOL    HW1 1463   8.573   0.876   8.106 -0.4977  0.3657 -0.7432
31471SOL    HW2 1464   8.489   1.001   8.124 -0.1600  0.6286 -0.9842
31472SOL     OW 1465   8.359  10.009  12.322 -0.6238  0.0846 -0.0485
31472SOL    HW1 1466   8.313  10.019  12.405  0.3927  0.1941  0.5238
31472SOL    HW2 1467   8.307  10.059  12.259 -0.2884  1.7771  0.9674
31473SOL     OW 1468   0.387   3.335   7.636  0.0482 -0.3094  0.4668
31473SOL    HW1 1469   0.366   3.416   7.683  3.2038 -0.7836  3.0332
31473SOL    HW2 1470   0.440   3.364   7.561 -1.5942  0.1351 -0.5897
31474SOL     OW 1471  11.803   8.114  10.574 -0.2073 -0.0434  0.4552
31474SOL    HW1 1472  11.749   8.101  10.652 -1.1148  0.4817 -0.0619
31474SOL    HW2 1473  11.789   8.206  10.550  1.2548  0.2340  0.5357
31475SOL     OW 1474  10.068   0.849   4.499  0.5721 -0.1028  0.6434
31475SOL    HW1 1475  10.136   0.784   4.487  0.5181  0.0871 -0.8993
31475SOL    HW2 1476  10.030   0.860   4.412  0.8193  2.2308  0.7629
31476SOL     OW 1477   6.089   6.644   4.439 -0.0103 -0.2088 -0.4494
31476SOL    HW1 1478   6.118   6.588   4.511  0.8457  0.5784 -0.1470
31476SOL    HW2 1479   6.103   6.733   4.472  2.3003  0.2108 -2.2630
31477SOL     OW 1480   3.262  11.758   2.619  0.4368 -0.4555  0.6123
31477SOL    HW1 1481   3.285  11.739   2.710  0.6727 -2.7973  0.1246
31477SOL    HW2 1482   3.345  11.785   2.579  0.1722  1.4083  1.2396
31478SOL     OW 1483  11.518   5.976   1.145  0.0541 -0.2624  0.3207
31478SOL    HW1 1484  11.448   6.039   1.161 -0.2251 -0.7022  0.8904
31478SOL    HW2 1485  11.599   6.027   1.151 -0.1411 -0.0478  1.2569
31479SOL     OW 1486  12.428  12.386   3.465 -0.1913 -0.3167  0.3552
31479SOL    HW1 1487  12.394  12.469   3.432 -0.5257  1.0859  3.7732
31479SOL    HW2 1488  12.359  12.323   3.446  0.0205  0.0928 -2.2070
31480SOL     OW 1489   5.233   8.817  10.245 -0.6021 -0.3346  0.5179
31480SOL    HW1 1490   5.304   8.783  10.300 -0.6233 -1.2976 -0.0196
31480SOL    HW2 1491   5.278   8.871  10.179 -0.4913  0.0760  0.9266
31481SOL     OW 1492   7.097  12.353   8.230 -0.1284 -0.3874 -0.1473
31481SOL    HW1 1493   7.040  12.398   8.168  0.4943  2.4985  1.2011
31481SOL    HW2 1494   7.058  12.266   8.239 -2.3146  0.3176 -1.7973
31482SOL     OW 1495   5.648  11.430   7.959 -0.1526 -0.4319  0.0663
31482SOL    HW1 1496   5.627  11.519   7.988 -0.2691 -0.4740  0.1135
31482SOL    HW2 1497   5.708  11.397   8.025 -1.2156 -0.8945  0.8309
31483SOL     OW 1498   4.280   6.345  11.206  0.4597  0.2951  0.8239
31483SOL    HW1 1499   4.300   6.275  11.144 -2.8657 -1.1615  1.1711
31483SOL    HW2 1500   4.262   6.300  11.289  1.4987  1.9160  2.0045
31484SOL     OW 1501   5.615   0.200   3.995  0.5397  0.5128  0.4335
31484SOL    HW1 1502   5.521   0.220   3.991  0.7260  1.5768  1.1367
31484SOL    HW2 1503   5.621   0.111   3.959 -1.1187 -0.8117  3.0597
31485SOL     OW 1504   8.015   0.897   5.618  0.2563  0.2223  0.2826
31485SOL    HW1 1505   7.987   0.873   5.530 -2.2555 -2.0495  1.5158
31485SOL    HW2 1506   8.006   0.992   5.622  0.0198  0.3191 -1.7512
31486SOL     OW 1507   4.636   0.584  10.737  0.1457 -0.3581  0.0107
31486SOL    HW1 1508   4.708   0.580  10.800 -1.4239  1.0033  2.0388
31486SOL    HW2 1509   4.641   0.501  10.690  1.8205 -1.1694  1.4914
31487SOL     OW 1510   7.769   3.470   2.596 -0.1070  0.3056 -0.3191
31487SOL    HW1 1511   7.699   3.415   2.563  0.7089 -1.9123  1.3962
31487SOL    HW2 1512   7.827   3.483   2.521 -1.1406  0.2038 -1.1563
31488SOL     OW 1513   9.707  11.641  11.723  0.5686  0.1999  0.1155
31488SOL    HW1 1514   9.749  11.572  11.672  0.5714  1.3685 -1.5615
31488SOL    HW2 1515   9.617  11.612  11.733  0.6093 -0.1422 -0.4404
31489SOL     OW 1516   0.438   6.944  11.118  0.5286 -0.0682  0.5140
31489SOL    HW1 1517   0.392   6.962  11.036  0.5637 -1.3811  0.1933
31489SOL    HW2 1518   0.500   6.874  11.097  0.0748 -0.9045  1.7993
31490SOL     OW 1519   8.962   5.571   0.994 -0.0722  0.0332  0.7632
31490SOL    HW1 1520   8.909   5.496   0.965  0.9232 -0.3010 -0.2603
31490SOL    HW2 1521   8.898   5.641   1.008 -0.9264 -0.7360  0.8470
31491SOL     OW 1522  11.763   3.042   7.411 -0.2327  0.5358 -0.0513
31491SOL    HW1 1523  11.850   3.077   7.390 -0.1499  0.3614 -0.0023
31491SOL    HW2 1524  11.781   2.959   7.456 -0.4219 -0.3557 -1.5292
31492SOL     OW 1525   3.642   7.088   4.060  0.2120 -0.3008 -0.0353
31492SOL    HW1 1526   3.555   7.051   4.049  0.1610 -0.4040  0.7198
31492SOL    HW2 1527   3.678   7.089   3.971 -1.3333  1.7482 -0.7215
31493SOL     OW 1528   8.795   7.087  11.839 -0.9250 -0.3870  0.3368
31493SOL    HW1 1529   8.762   7.134  11.916 -2.1295 -0.5793 -0.0563
31493SOL    HW2 1530   8.884   7.061  11.864 -1.1705 -0.1355  1.5312
31494SOL     OW 1531   9.564  10.734   8.575 -0.1034 -0.0310  0.1820
31494SOL    HW1 1532   9.609  10.650   8.571 -1.5220 -0.8221  0.5260
31494SOL    HW2 1533   9.521  10.734   8.660  1.0662  1.6916  0.8469
31495SOL     OW 1534   5.306   7.812   0.984 -0.2729 -0.2980  0.2370
31495SOL    HW1 1535   5.256   7.740   0.945 -1.8123  1.6899 -1.7409
31495SOL    HW2 1536   5.242   7.883   0.993  1.7827  1.8000 -0.7214
31496SOL     OW 1537   6.592   6.535   3.007 -0.4295  0.3798  0.1445
31496SOL    HW1 1538   6.666   6.559   2.951 -0.3695  0.0265  0.0653
31496SOL    HW2 1539   6.531   6.608   3.000 -1.8747 -0.9337 -2.9049
31497SOL     OW 1540   3.865   2.995   2.727 -0.3089  0.0568  0.1998
31497SOL    HW1 1541   3.771   2.992   2.711 -0.5574  1.8731  1.0630
31497SOL    HW2 1542   3.902   3.033   2.647 -0.1545 -1.5485 -0.5307
31498SOL     OW 1543   4.314   8.344  11.976  0.4926 -0.2405 -0.2461
31498SOL    HW1 1544   4.246   8.278  11.985  1.2455 -1.0257 -0.2078
31498SOL    HW2 1545   4.271   8.427  11.999 -0.4943 -0.6887 -0.4484
31499SOL     OW 1546   1.599   8.649   5.277 -0.0229  0.0878 -0.2020
31499SOL    HW1 1547   1.553   8.693   5.349 -0.0507  0.0294 -0.1845
31499SOL    HW2 1548   1.585   8.556   5.292 -0.3644  0.0876 -0.5037
31500SOL     OW 1549   4.115   3.380   4.592 -0.3234  0.0162 -0.2635
31500SOL    HW1 1550   4.024   3.350   4.594  0.2122 -1.7079  0.8949
31500SOL    HW2 1551   4.153   3.344   4.672  1.9675 -1.2746 -1.8237
31501SOL     OW 1552   9.274   2.495   5.181  0.2711  0.6927 -0.3085
31501SOL    HW1 1553   9.339   2.462   5.244  1.1301  1.8902 -0.5349
31501SOL    HW2 1554   9.302   2.458   5.097 -0.6168 -0.5379 -0.0968
31502SOL     OW 1555   4.886   8.196  10.328 -0.1713 -0.6930  0.0340
31502SOL    HW1 1556   4.911   8.128  10.266  1.3823  0.6678 -0.8841
31502SOL    HW2 1557   4.807   8.161  10.371 -1.1769 -1.7731 -2.5110
31503SOL     OW 1558   0.180   4.123   2.086  0.1550 -0.1503 -0.6967
31503SOL    HW1 1559   0.274   4.132   2.074  0.4656 -0.4960  1.1576
31503SOL    HW2 1560   0.141   4.188   2.028  1.6558  2.1729  0.7392
31504SOL     OW 1561   0.651   8.504  11.604 -0.3622 -0.3387  0.1094
31504SOL    HW1 1562   0.693   8.588  11.626  0.2419 -0.0883 -1.8037
31504SOL    HW2 1563   0.558   8.524  11.603 -0.2956  0.0298  0.7809
31505SOL     OW 1564  10.851  12.543   0.301  0.4790 -0.4966 -0.0724
31505SOL    HW1 1565  10.885  12.480   0.364 -0.9067 -1.4149 -0.1845
31505SOL    HW2 1566  10.756  12.544   0.317  0.2608  0.2287 -1.2681
31506SOL     OW 1567   4.218   4.375   5.038 -0.6063  0.8053 -0.1833
31506SOL    HW1 1568   4.304   4.336   5.057 -0.9247 -0.2078 -0.7370
31506SOL    HW2 1569   4.233   4.428   4.959 -1.0103 -1.5132 -1.9302
31507SOL     OW 1570   8.369   5.381  12.065  0.1586  0.3643  0.2958
31507SOL    HW1 1571   8.453   5.352  12.030 -1.0373 -1.6394 -1.2030
31507SOL    HW2 1572   8.385   5.398  12.157  2.0202 -0.7958  0.2335
31508SOL     OW 1573  10.800   1.805  11.929  0.2049  0.3372 -0.0286
31508SOL    HW1 1574  10.806   1.794  11.834  1.7052  0.3865  0.0391
31508SOL    HW2 1575  10.872   1.864  11.951 -1.1454  1.6979  0.9528
31509SOL     OW 1576   6.967   3.855   9.879 -0.2192 -0.4924  0.2498
31509SOL    HW1 1577   6.979   3.881   9.788 -1.4276  0.1293  0.2451
31509SOL    HW2 1578   6.906   3.781   9.875 -2.6084  1.3287  0.6663
31510SOL     OW 1579   5.010   8.843   9.816 -0.0991  0.4544  0.2268
31510SOL    HW1 1580   5.069   8.898   9.868 -0.7035  0.7867  0.5661
31510SOL    HW2 1581   5.047   8.845   9.728 -0.8299  2.4618 -0.0675
31511SOL     OW 1582  12.177   8.330   1.386 -0.0719  0.4421  0.1633
31511SOL    HW1 1583  12.232   8.300   1.458 -0.1777  0.3521  0.2078
31511SOL    HW2 1584  12.140   8.249   1.350  0.7901  0.3893 -0.6523
31512SOL     OW 1585  12.566   9.208  11.503  0.7448  0.0047  0.0266
31512SOL    HW1 1586  12.503   9.231  11.571 -1.0540 -1.6152 -0.9998
31512SOL    HW2 1587  12.546   9.267  11.431  2.0133  1.0707  0.5116
31513SOL     OW 1588  12.164   1.331  10.765 -0.1375 -0.6531 -0.5144
31513SOL    HW1 1589  12.233   1.375  10.715 -0.6605  1.9524  0.9292
31513SOL    HW2 1590  12.182   1.238  10.753  3.4679 -0.0947 -0.4303
31514SOL     OW 1591   5.314   9.663   2.704  0.3655 -0.0480  0.3077
31514SOL    HW1 1592   5.224   9.693   2.699  0.5244  0.8749  2.1362
31514SOL    HW2 1593   5.309   9.567   2.697 -0.9468 -0.1477  2.0100
31515SOL     OW 1594   1.487   2.297   8.700 -0.3323 -0.4681 -0.3120
31515SOL    HW1 1595   1.483   2.389   8.674 -0.5339 -0.3703  0.0712
31515SOL    HW2 1596   1.421   2.288   8.768  1.4563 -0.2890  1.5496
31516SOL     OW 1597   0.577   6.361   2.553 -0.0145  0.0306  0.9106
31516SOL    HW1 1598   0.594   6.413   2.631  0.8980  0.9293  0.1499
31516SOL    HW2 1599   0.663   6.352   2.511 -0.2499 -1.6059  0.7106
31517SOL     OW 1600   4.280  11.002   0.707  1.0165  0.2655  0.2527
31517SOL    HW1 1601   4.338  11.005   0.783  1.2552 -0.8140  0.1377
31517SOL    HW2 1602   4.205  10.950   0.736 -0.4298  2.4844  0.7208
31518SOL     OW 1603   3.132   3.260   1.499 -0.1495  0.8807  0.6472
31518SOL    HW1 1604   3.218   3.301   1.493  1.4577 -2.3324 -1.1238
31518SOL    HW2 1605   3.102   3.278   1.588  3.4055  0.3407  2.0969
31519SOL     OW 1606   0.397  10.793  10.537 -0.4895  0.5775 -0.1567
31519SOL    HW1 1607   0.491  10.779  10.550 -0.4164  1.6309  0.5337
31519SOL    HW2 1608   0.356  10.718  10.578  0.0704 -0.4285 -1.3539
31520SOL     OW 1609   6.526   6.495   2.420 -0.6048  0.0842 -0.5002
31520SOL    HW1 1610   6.558   6.534   2.501  2.9930  0.6464 -2.0172
31520SOL    HW2 1611   6.431   6.489   2.432 -0.4660  2.2000  2.8089
31521SOL     OW 1612   1.496   9.319   1.031  0.5904  0.3528  0.1887
31521SOL    HW1 1613   1.427   9.261   1.000  0.3548  0.2771  0.8495
31521SOL    HW2 1614   1.466   9.407   1.007  0.8996  0.2188 -0.7184
31522SOL     OW 1615  11.419   5.026  12.362  0.5099  0.2634  0.6448
31522SOL    HW1 1616  11.398   5.119  12.368 -0.7682  0.0767 -0.4054
31522SOL    HW2 1617  11.342   4.982  12.400 -0.0838 -0.4082 -1.2349
31523SOL     OW 1618   9.341   2.267   6.478  0.6210 -0.2431 -0.4460
31523SOL    HW1 1619   9.290   2.193   6.510 -2.3729  1.4506 -0.8964
31523SOL    HW2 1620   9.407   2.282   6.546 -0.3735 -1.6718  0.8961
31524SOL     OW 1621   4.588   9.148   2.434 -0.3251  0.2687 -0.7725
31524SOL    HW1 1622   4.544   9.067   2.463 -1.6751  0.0920 -3.1012
31524SOL    HW2 1623   4.521   9.216   2.443  0.6326  1.0943  0.6258
31525SOL     OW 1624   0.773   4.850   5.804 -0.5082  0.4379 -0.6596
31525SOL    HW1 1625   0.731   4.936   5.799 -2.6920 -0.5742 -0.9805
31525SOL    HW2 1626   0.726   4.804   5.873  2.6989  0.4726  1.7924
31526SOL     OW 1627  11.631   3.822   1.537  0.3379  0.1912 -0.1252
31526SOL    HW1 1628  11.621   3.842   1.630 -2.6110  0.3682 -0.3839
31526SOL    HW2 1629  11.640   3.908   1.495  1.2497  0.1338 -0.0638
31527SOL     OW 1630  10.601   7.713   9.233 -0.1724  0.2478 -0.0408
31527SOL    HW1 1631  10.583   7.626   9.267  0.7262 -0.1215 -0.4822
31527SOL    HW2 1632  10.518   7.760   9.241 -1.2341 -1.2539 -1.6106
31528SOL     OW 1633   9.861   9.742   9.255 -0.0457 -0.5457  0.1809
31528SOL    HW1 1634   9.853   9.708   9.166  0.8008 -0.3475  0.0144
31528SOL    HW2 1635   9.955   9.762   9.264 -0.0418 -0.9686  1.2574
31529SOL     OW 1636   8.442  10.009   2.722  0.5291  0.2195 -0.8727
31529SOL    HW1 1637   8.354   9.975   2.737  0.6509  0.0701 -0.4825
31529SOL    HW2 1638   8.462  10.059   2.802  1.1520 -0.5021 -0.5680
31530SOL     OW 1639   6.718  10.051   1.596  0.5447  0.1809 -0.1791
31530SOL    HW1 1640   6.761  10.019   1.517  0.4219  1.0599 -0.6045
31530SOL    HW2 1641   6.745   9.989   1.664  1.9507  0.3380 -0.5681
31531SOL     OW 1642  10.681   6.405   9.445  0.3119 -0.1476  0.0276
31531SOL    HW1 1643  10.773   6.410   9.418  0.8511 -3.2232  0.9307
31531SOL    HW2 1644  10.644   6.336   9.389 -1.1177  0.1624  0.5581
31532SOL     OW 1645   9.454   5.502  11.894 -0.1096 -0.1785  0.3143
31532SOL    HW1 1646   9.504   5.527  11.972  0.2398 -0.8986  0.3249
31532SOL    HW2 1647   9.385   5.445  11.926 -0.7368  0.5304  0.2514
31533SOL     OW 1648  10.178   4.625  10.374 -0.5567  0.0388  0.5497
31533SOL    HW1 1649  10.198   4.596  10.463 -1.1049 -4.6264 -0.5638
31533SOL    HW2 1650  10.254   4.600  10.323 -1.9804 -1.6463 -0.8985
31534SOL     OW 1651   1.623  11.413   0.081 -0.5780 -0.0013  0.6941
31534SOL    HW1 1652   1.623  11.407   0.177 -1.5041 -1.8886  0.6238
31534SOL    HW2 1653   1.640  11.323   0.052  1.8738  0.9125 -0.9587
31535SOL     OW 1654   1.962  10.994   5.815  0.7718  0.0322 -0.3573
31535SOL    HW1 1655   1.974  11.021   5.724  1.3128 -2.3851 -1.0759
31535SOL    HW2 1656   1.895  10.926   5.811 -1.7675  2.2128  1.5632
31536SOL     OW 1657  10.723   3.194   5.863 -0.0232  0.0488  0.2209
31536SOL    HW1 1658  10.701   3.244   5.941  0.0959  0.7219 -0.1723
31536SOL    HW2 1659  10.747   3.107   5.897 -0.4341  0.1845  0.8863
31537SOL     OW 1660   9.535   5.139   2.945 -0.3596 -0.3213 -0.2831
31537SOL    HW1 1661   9.564   5.222   2.906  0.1197  0.3147  1.3570
31537SOL    HW2 1662   9.539   5.076   2.873 -0.7531  1.0657 -1.5801
31538SOL     OW 1663   0.240   3.722   0.743 -0.0744  0.4009 -0.1450
31538SOL    HW1 1664   0.148   3.711   0.767  0.4784  0.5389  2.3707
31538SOL    HW2 1665   0.239   3.744   0.650 -2.6166  1.1511 -0.0052
31539SOL     OW 1666   3.533   7.596   3.999  0.1458 -0.1877  0.2677
31539SOL    HW1 1667   3.627   7.586   3.985  0.6029  2.0007  1.4211
31539SOL    HW2 1668   3.505   7.652   3.927  0.3499  1.6438  1.5451
31540SOL     OW 1669  10.273   8.156   6.426  0.3258 -0.2695  0.1455
31540SOL    HW1 1670  10.360   8.115   6.421  1.4160  1.8248  0.7045
31540SOL    HW2 1671  10.270   8.193   6.514 -0.0875  1.8154 -0.6997
31541SOL     OW 1672   2.846   4.760   2.640 -0.6753 -0.4718 -0.0997
31541SOL    HW1 1673   2.785   4.771   2.567  0.2935  0.7049 -0.7798
31541SOL    HW2 1674   2.802   4.799   2.715 -0.3474  1.4520 -0.8413
31542SOL     OW 1675   2.124   9.435   6.007 -0.0357 -0.4355 -0.0076
31542SOL    HW1 1676   2.156   9.506   5.952  1.8237 -1.1059  0.1477
31542SOL    HW2 1677   2.173   9.358   5.978 -0.9041 -1.3442  0.8564
31543SOL     OW 1678   3.836  12.190   2.628  0.2459 -0.4504 -0.2005
31543SOL    HW1 1679   3.828  12.216   2.720 -1.8053  0.4657 -0.5853
31543SOL    HW2 1680   3.847  12.095   2.631 -0.1196 -0.4768  0.9729
31544SOL     OW 1681   9.434   0.448  11.911 -0.6688 -0.1372  0.5034
31544SOL    HW1 1682   9.339   0.439  11.917 -1.0520  1.7850 -1.5418
31544SOL    HW2 1683   9.457   0.403  11.829 -0.1636  1.2463 -0.1459
31545SOL     OW 1684  10.854   0.597   7.271 -0.5840 -0.6588 -0.2344
31545SOL    HW1 1685  10.879   0.683   7.302 -3.2269  0.3502 -0.6142
31545SOL    HW2 1686  10.882   0.595   7.179  0.2544 -0.5630  0.0142
31546SOL     OW 1687   1.714   5.057  11.455  0.5651  0.1017  0.2085
31546SOL    HW1 1688   1.744   5.148  11.460  1.5816 -0.1845 -0.5915
31546SOL    HW2 1689   1.769   5.016  11.389  1.4968 -1.6393  1.9476
31547SOL     OW 1690   0.609  10.513   0.319 -0.0330 -0.3250 -0.5020
31547SOL    HW1 1691   0.659  10.435   0.294  1.3385  1.0301 -2.3406
31547SOL    HW2 1692   0.540  10.520   0.253 -1.5365 -1.1282  0.9214
31548SOL     OW 1693  10.032  10.439   3.558  0.1336  0.0195 -0.0213
31548SOL    HW1 1694  10.128  10.434   3.563  0.0488 -1.6446  0.2038
31548SOL    HW2 1695  10.005  10.466   3.646  0.4417  2.0172 -0.4831
31549SOL     OW 1696   4.055  11.795   7.056 -1.0771  0.1543 -0.6481
31549SOL    HW1 1697   4.027  11.881   7.087  2.1076  0.4217  1.9959
31549SOL    HW2 1698   4.029  11.735   7.125 -0.2082 -0.4283 -0.8074
31550SOL     OW 1699  11.381   6.003   7.906 -0.6243 -0.5149  0.1865
31550SOL    HW1 1700  11.365   6.094   7.882  1.4328 -0.3613 -0.8321
31550SOL    HW2 1701  11.294   5.967   7.924 -1.6572  1.1512 -1.1674
31551SOL     OW 1702   8.129  12.568   9.670 -0.1949 -0.1146  0.1596
31551SOL    HW1 1703   8.136  12.504   9.741 -1.3883 -0.4866 -0.0389
31551SOL    HW2 1704   8.060  12.628   9.698  0.4194  0.6815  0.0171
31552SOL     OW 1705   0.837   9.416   1.866  0.1703  0.0405 -0.2392
31552SOL    HW1 1706   0.868   9.355   1.932 -1.2155 -0.4386  0.0099
31552SOL    HW2 1707   0.839   9.501   1.909 -1.6980 -0.4000  0.8368
31553SOL     OW 1708  12.549   1.875   1.030  0.1655  0.3643  0.5117
31553SOL    HW1 1709  12.533   1.823   0.951 -1.5597  0.5096  0.7228
31553SOL    HW2 1710  12.632   1.919   1.013  0.0372  0.0773 -1.0563
31554SOL     OW 1711   5.138   7.727   5.978 -0.5095  0.2976 -0.3842
31554SOL    HW1 1712   5.130   7.780   5.899  2.3204  0.3233 -0.7398
31554SOL    HW2 1713   5.138   7.637   5.946 -0.3571  0.2706 -0.3076
31555SOL     OW 1714   8.839   6.133   8.940  0.0856  0.2534 -0.5775
31555SOL    HW1 1715   8.909   6.179   8.986  2.5542 -0.2717 -3.4987
31555SOL    HW2 1716   8.856   6.040   8.959 -0.2227  0.1533 -0.7865
31556SOL     OW 1717   2.248   2.881   1.722  0.0179  1.0635 -0.0087
31556SOL    HW1 1718   2.181   2.944   1.698  1.0166  1.6049 -1.5761
31556SOL    HW2 1719   2.294   2.863   1.640  1.4209  0.2839  0.9035
31557SOL     OW 1720   4.454  10.389   1.041 -0.4897  0.4234 -0.4335
31557SOL    HW1 1721   4.490  10.477   1.052 -3.2713  1.5700  0.3060
31557SOL    HW2 1722   4.447  10.379   0.946  0.0135  0.9105 -0.5307
31558SOL     OW 1723   8.905   7.828  12.343 -0.0028  0.1488 -0.5630
31558SOL    HW1 1724   8.986   7.801  12.300  0.0111 -0.6175 -0.0749
31558SOL    HW2 1725   8.836   7.791  12.288  0.0248 -2.2179  0.8792
31559SOL     OW 1726   5.823   3.496   6.754  0.5952  0.0910 -0.1760
31559SOL    HW1 1727   5.792   3.484   6.664  1.3001 -0.6506 -0.3278
31559SOL    HW2 1728   5.918   3.489   6.747  0.7294  1.1032  0.4719
31560SOL     OW 1729   9.092   9.272   4.314 -1.1044  0.1493 -0.5830
31560SOL    HW1 1730   9.034   9.294   4.242 -0.6262  0.9270 -0.7409
31560SOL    HW2 1731   9.081   9.343   4.377 -0.4725  0.2091 -0.5327
31561SOL     OW 1732   2.596   6.893   6.030 -0.3325  0.8175  0.7354
31561SOL    HW1 1733   2.673   6.851   6.068 -0.0899 -0.8234 -1.3839
31561SOL    HW2 1734   2.523   6.835   6.052 -0.5363  1.0040  0.5642
31562SOL     OW 1735   2.439   2.392   4.956 -0.0698 -0.1413 -0.2491
31562SOL    HW1 1736   2.411   2.320   5.011 -1.0286  0.2823 -0.1672
31562SOL    HW2 1737   2.387   2.467   4.986  0.9232  0.5917 -0.3121
31563SOL     OW 1738   8.471  10.575   3.844 -0.4987  0.5227 -0.5539
31563SOL    HW1 1739   8.492  10.494   3.889  0.4115  1.1062  0.0894
31563SOL    HW2 1740   8.459  10.639   3.914  0.2584  1.2867 -1.1119
31564SOL     OW 1741   7.660  11.135   5.465  0.0691  0.1479  0.5518
31564SOL    HW1 1742   7.597  11.154   5.395 -0.4714  0.8710  1.2121
31564SOL    HW2 1743   7.685  11.221   5.498 -0.0267 -0.1909  1.5456
31565SOL     OW 1744   2.404   9.518   2.552 -0.0931 -0.6881 -0.5338
31565SOL    HW1 1745   2.384   9.453   2.484 -0.4068  0.6009 -1.7408
31565SOL    HW2 1746   2.319   9.552   2.578 -0.1634 -2.4880  1.9835
31566SOL     OW 1747   2.783   6.785   8.108 -0.1881  0.1897  0.1837
31566SOL    HW1 1748   2.710   6.796   8.047 -0.4102 -0.5671  0.3044
31566SOL    HW2 1749   2.764   6.704   8.155  0.2142  0.5231  0.9437
31567SOL     OW 1750   4.918   5.625   3.515 -0.0610  0.5456 -0.0726
31567SOL    HW1 1751   4.909   5.579   3.599 -0.5618  0.6420 -0.0743
31567SOL    HW2 1752   4.831   5.659   3.496 -0.0024  0.3407 -0.7407
31568SOL     OW 1753   7.855   8.984  10.483 -0.1087 -0.2905  0.0301
31568SOL    HW1 1754   7.947   8.965  10.500 -0.6582 -2.8517  0.6370
31568SOL    HW2 1755   7.833   9.055  10.544  1.4962  0.5424 -0.3241
31569SOL     OW 1756   0.481   6.041   1.159 -0.1752  0.1944 -0.2141
31569SOL    HW1 1757   0.554   6.087   1.118 -0.3169  0.4620 -0.1663
31569SOL    HW2 1758   0.410   6.105   1.161 -0.0667  0.2935  0.7510
31570SOL     OW 1759   3.534  10.068   1.635  0.7830 -0.1895 -0.1074
31570SOL    HW1 1760   3.534  10.094   1.543 -0.0023  0.4572  0.0705
31570SOL    HW2 1761   3.452  10.020   1.646  0.4521  0.4887  0.4568
31571SOL     OW 1762   5.358   6.163   4.441 -0.5109 -0.0870  0.4978
31571SOL    HW1 1763   5.288   6.101   4.425 -0.2044 -0.7936  1.7339
31571SOL    HW2 1764   5.410   6.163   4.361 -1.6236  0.0713 -0.2342
31572SOL     OW 1765   0.579   5.430   5.482 -0.1782 -0.3325 -0.2470
31572SOL    HW1 1766   0.601   5.512   5.526  1.2747  0.2629 -1.9752
31572SOL    HW2 1767   0.658   5.376   5.491 -0.9767 -1.4309  0.5258
31573SOL     OW 1768   8.324   5.807   5.752 -0.1200  0.3210 -0.2375
31573SOL    HW1 1769   8.313   5.891   5.797  2.7860  1.0598 -0.6522
31573SOL    HW2 1770   8.399   5.766   5.796 -0.5039 -1.3449 -1.0454
31574SOL     OW 1771   3.121   9.780   1.486  0.1632 -0.0976 -0.2958
31574SOL    HW1 1772   3.212   9.759   1.506  0.1268 -2.0190 -1.7857
31574SOL    HW2 1773   3.070   9.713   1.532 -0.2658 -0.8733 -1.8274
31575SOL     OW 1774   9.942   8.090   8.453 -0.5896  0.3011  0.1749
31575SOL    HW1 1775   9.863   8.038   8.438 -0.3145  0.3858 -1.9539
31575SOL    HW2 1776  10.003   8.029   8.496 -1.2537 -0.2460  0.3520
31576SOL     OW 1777   3.556   9.570   6.427 -0.5328  0.5707 -0.6812
31576SOL    HW1 1778   3.529   9.479   6.436 -0.0678  0.4908 -0.0202
31576SOL    HW2 1779   3.617   9.569   6.353  0.8714  0.0121  0.4453
31577SOL     OW 1780   6.555   6.703  12.142  0.1553  0.0716 -0.0482
31577SOL    HW1 1781   6.500   6.770  12.182  0.7873  0.9270 -0.5786
31577SOL    HW2 1782   6.581   6.646  12.214  0.9028  1.3255  0.6978
31578SOL     OW 1783   9.337   1.905   7.506  0.0592  0.4320  0.3548
31578SOL    HW1 1784   9.253   1.881   7.468 -0.1680  0.4633  0.8339
31578SOL    HW2 1785   9.345   1.851   7.585  0.0487  1.1031  0.8267
31579SOL     OW 1786  11.207   8.120  12.231  1.0535 -0.0876  0.1059
31579SOL    HW1 1787  11.201   8.045  12.172 -0.2320  0.5932 -0.6679
31579SOL    HW2 1788  11.139   8.105  12.297  0.8997  0.3154  0.0418
31580SOL     OW 1789  10.620   1.374   7.480 -0.9787 -0.4068  0.2209
31580SOL    HW1 1790  10.572   1.448   7.518  0.3515  0.0467  1.1027
31580SOL    HW2 1791  10.613   1.305   7.547 -1.6248 -0.8459 -0.2925
31581SOL     OW 1792   1.597   7.826   6.485 -0.0540  0.2261  0.7708
31581SOL    HW1 1793   1.563   7.855   6.570 -0.8981 -1.8741  1.2114
31581SOL    HW2 1794   1.575   7.898   6.425  0.4347  1.7000  2.2563
31582SOL     OW 1795  10.830   6.091   5.066  0.1401  0.0134 -0.0474
31582SOL    HW1 1796  10.836   6.031   4.991  1.0854 -0.1334  0.1286
31582SOL    HW2 1797  10.910   6.143   5.060 -0.1784  0.5604  0.3953
31583SOL     OW 1798   8.198   7.212  12.273 -0.4526  0.0131  0.1121
31583SOL    HW1 1799   8.228   7.292  12.316 -0.9199  0.0090  0.4589
31583SOL    HW2 1800   8.167   7.242  12.187 -1.1447  0.3042  0.4496
31584SOL     OW 1801  10.517   3.433   5.888 -0.0418  0.3046  0.3133
31584SOL    HW1 1802  10.501   3.392   5.803  0.3589 -0.4630  0.6007
31584SOL    HW2 1803  10.559   3.365   5.940 -2.5429 -0.1087  1.9919
31585SOL     OW 1804   8.913   6.998   1.525  0.0031 -0.0224  0.0044
31585SOL    HW1 1805   8.885   6.975   1.613  1.9460 -0.9519  0.4423
31585SOL    HW2 1806   8.900   7.093   1.519 -1.7001 -0.1933  0.6639
31586SOL     OW 1807   5.582  10.129   8.474  0.0755  0.0860 -0.2455
31586SOL    HW1 1808   5.520  10.184   8.425  0.5259 -0.2131 -1.1835
31586SOL    HW2 1809   5.564  10.040   8.443  2.2817  0.1938 -2.0506
31587SOL     OW 1810   1.557   9.568   6.885  0.1888  0.6011  0.2034
31587SOL    HW1 1811   1.512   9.484   6.895 -0.2214  0.7665 -0.2169
31587SOL    HW2 1812   1.537   9.615   6.966  0.3980  0.3063  0.4285
31588SOL     OW 1813  11.781   7.830   6.830 -0.3228  0.1789 -0.1442
31588SOL    HW1 1814  11.755   7.873   6.911 -0.4286 -0.5126  0.1861
31588SOL    HW2 1815  11.800   7.740   6.855  0.4104  0.1560 -0.7424
31589SOL     OW 1816  12.265   5.865   1.497 -0.2811 -0.2236 -0.2812
31589SOL    HW1 1817  12.288   5.937   1.555 -0.4216 -0.2879 -0.1454
31589SOL    HW2 1818  12.349   5.838   1.458  0.2483 -1.7734  1.7187
31590SOL     OW 1819   7.450   7.605   0.395 -0.7124  0.3408  0.0206
31590SOL    HW1 1820   7.526   7.660   0.415 -0.1417 -1.0457  1.8801
31590SOL    HW2 1821   7.390   7.664   0.349  0.6634  1.9906  0.2248
31591SOL     OW 1822  10.947   7.052   2.450  0.3585 -0.0394  0.2952
31591SOL    HW1 1823  10.980   7.082   2.365  0.5544 -0.9180  0.0409
31591SOL    HW2 1824  11.015   7.075   2.513  1.1499 -1.1565 -0.1104
31592SOL     OW 1825   3.252  11.103   3.456  0.4553 -0.4064 -0.3183
31592SOL    HW1 1826   3.197  11.124   3.531  0.8754  1.6188 -0.5316
31592SOL    HW2 1827   3.334  11.072   3.494  0.2216 -0.6023  0.0309
31593SOL     OW 1828   9.095  10.838   7.737 -0.4444  0.4227  0.4802
31593SOL    HW1 1829   9.058  10.768   7.791  1.8326 -0.3016  1.1674
31593SOL    HW2 1830   9.020  10.869   7.685 -1.7177 -1.9571  0.7355
31594SOL     OW 1831   7.420  10.587   9.917 -0.0213  0.1109  0.3917
31594SOL    HW1 1832   7.492  10.621   9.864 -1.0985  1.3902 -0.3262
31594SOL    HW2 1833   7.418  10.644   9.994 -1.6158  1.5759 -0.6517
31595SOL     OW 1834   9.110   2.993   4.500  0.2290 -0.6625 -0.2196
31595SOL    HW1 1835   9.059   3.041   4.435  2.1484  1.3628 -0.3725
31595SOL    HW2 1836   9.076   2.904   4.497 -2.3783  0.2739 -1.1665
31596SOL     OW 1837   6.390   6.152  12.061 -0.1461 -0.2752 -0.0287
31596SOL    HW1 1838   6.353   6.145  12.148  0.3281  0.6184  0.2583
31596SOL    HW2 1839   6.367   6.070  12.018 -1.3026 -0.2928  0.5740
31597SOL     OW 1840   4.353  11.587   8.372  0.2138 -0.4361 -0.0445
31597SOL    HW1 1841   4.338  11.561   8.281 -0.8466 -2.6001  0.6848
31597SOL    HW2 1842   4.443  11.558   8.390  0.8238  0.9742 -0.6779
31598SOL     OW 1843   5.182   7.244   8.827 -0.3682  0.2376  0.4762
31598SOL    HW1 1844   5.137   7.175   8.778 -0.6420  1.7990 -1.5929
31598SOL    HW2 1845   5.256   7.199   8.868 -0.0042 -1.1500 -1.5337
31599SOL     OW 1846   3.300   9.516   2.811  0.5918  0.1767 -0.4666
31599SOL    HW1 1847   3.224   9.487   2.861  0.9543  0.3719  0.1945
31599SOL    HW2 1848   3.265   9.580   2.749  0.1185 -0.1878 -0.5848
31600SOL     OW 1849   8.073   1.338   5.247 -0.1134 -0.2922 -0.0485
31600SOL    HW1 1850   8.052   1.322   5.339 -1.1488 -2.0368 -0.5370
31600SOL    HW2 1851   8.010   1.404   5.219 -0.9784 -1.0657  0.0465
31601SOL     OW 1852   8.771   2.013   0.846 -0.5733 -0.2964 -0.0453
31601SOL    HW1 1853   8.788   2.078   0.777 -0.7163 -0.4574 -0.2344
31601SOL    HW2 1854   8.799   1.930   0.807  0.3206 -0.2544  0.4685
31602SOL     OW 1855   5.849  11.697   6.771 -0.2270  0.1119  0.9713
31602SOL    HW1 1856   5.831  11.671   6.861 -2.1344  1.4182  1.0041
31602SOL    HW2 1857   5.842  11.616   6.720 -0.5816 -0.3760  1.7927
31603SOL     OW 1858   0.363   4.698   1.604  0.1152 -0.2509  0.0586
31603SOL    HW1 1859   0.332   4.608   1.619 -1.6256  0.0262 -1.4923
31603SOL    HW2 1860   0.454   4.687   1.577 -0.0836 -1.5712 -0.1747
31604SOL     OW 1861  11.218   3.321  12.051  0.3393 -0.0833 -0.5730
31604SOL    HW1 1862  11.139   3.374  12.038 -0.5390 -1.2459 -0.1778
31604SOL    HW2 1863  11.282   3.381  12.089 -1.2097  0.3069  1.5976
31605SOL     OW 1864   8.903   4.459   5.879  0.0639  0.0269 -0.2918
31605SOL    HW1 1865   8.895   4.377   5.830  1.8275  0.3042 -1.1466
31605SOL    HW2 1866   8.820   4.503   5.866 -0.4987 -1.1313 -0.7674
31606SOL     OW 1867   3.742   7.262  10.847 -0.4395 -0.4478 -0.1450
31606SOL    HW1 1868   3.659   7.309  10.839  0.1671  1.0310  1.5958
31606SOL    HW2 1869   3.783   7.271  10.762 -1.1948  0.5339 -0.4195
31607SOL     OW 1870   3.611   7.842  10.381 -0.0799 -0.1951  0.3607
31607SOL    HW1 1871   3.546   7.828  10.451  0.3787 -1.1825  0.6111
31607SOL    HW2 1872   3.695   7.845  10.427  0.0568  1.3208  0.0606
31608SOL     OW 1873   5.549  12.273   5.658  0.0390 -0.0750  0.5105
31608SOL    HW1 1874   5.559  12.323   5.577 -0.9816 -0.1743  0.3161
31608SOL    HW2 1875   5.552  12.181   5.631 -0.4739 -0.1091  0.5523
31609SOL     OW 1876   0.189   1.547   4.967 -0.5126  0.3410  0.1358
31609SOL    HW1 1877   0.105   1.565   4.924 -1.2609  0.4078  1.5575
31609SOL    HW2 1878   0.175   1.574   5.058  1.6709  2.1515 -0.0027
31610SOL     OW 1879   9.295  10.262   4.257 -0.0291  0.0258  0.1519
31610SOL    HW1 1880   9.239  10.185   4.262 -0.3414  0.2928  0.9505
31610SOL    HW2 1881   9.239  10.330   4.219  0.4494 -0.2964 -1.2203
31611SOL     OW 1882  12.172   9.371   1.187 -0.6129 -0.5689 -0.2186
31611SOL    HW1 1883  12.147   9.358   1.096 -1.5304  1.3568 -0.3144
31611SOL    HW2 1884  12.108   9.434   1.220  0.2306 -0.5477  1.5078
31612SOL     OW 1885   8.241   3.191   1.803 -0.1823  0.1972 -0.4179
31612SOL    HW1 1886   8.194   3.267   1.769 -0.4934  0.5650  0.7628
31612SOL    HW2 1887   8.248   3.208   1.897 -1.7385 -2.0017  0.1724
31613SOL     OW 1888   2.885   0.443  11.657  0.6063 -0.1333 -0.2468
31613SOL    HW1 1889   2.907   0.458  11.749  0.2955  2.1684 -0.4716
31613SOL    HW2 1890   2.795   0.475  11.648  0.6081 -0.3718 -1.3372
31614SOL     OW 1891  12.018   7.138   2.114 -0.2434 -0.6383  0.4124
31614SOL    HW1 1892  11.952   7.191   2.158  0.8308 -0.6196  2.0567
31614SOL    HW2 1893  12.074   7.105   2.184  2.0401  0.0807 -0.9723
31615SOL     OW 1894  10.110   1.779  12.568  0.4653  0.0033  0.1145
31615SOL    HW1 1895  10.111   1.685  12.556 -2.0003 -0.5320  2.8202
31615SOL    HW2 1896  10.017   1.802  12.567  0.9842  2.3906 -0.1941
31616SOL     OW 1897   4.529   2.276  12.150 -0.4135 -0.2878  0.0045
31616SOL    HW1 1898   4.611   2.320  12.173 -0.1392 -0.4888 -0.5840
31616SOL    HW2 1899   4.541   2.185  12.177 -0.6996 -0.1743  0.5320
31617SOL     OW 1900  11.799   1.063  12.492 -0.0967  0.0913 -0.0490
31617SOL    HW1 1901  11.747   1.096  12.420 -1.0727  0.0200  0.6041
31617SOL    HW2 1902  11.817   0.972  12.469 -0.4608  0.0494 -0.1665
31618SOL     OW 1903   9.342  10.534  12.137  0.4159 -0.1552 -0.3704
31618SOL    HW1 1904   9.426  10.540  12.091  0.8353 -0.4979  0.3300
31618SOL    HW2 1905   9.357  10.470  12.207 -0.1916  0.3866  0.2761
31619SOL     OW 1906  11.485   8.731   6.538 -0.6005 -0.1202  0.4311
31619SOL    HW1 1907  11.526   8.765   6.459 -0.7977  0.1081  0.4262
31619SOL    HW2 1908  11.400   8.697   6.508 -1.9428  2.5214  0.9758
31620SOL     OW 1909  11.405   8.207   2.556 -0.4324 -0.2384 -0.4401
31620SOL    HW1 1910  11.480   8.244   2.601 -0.8220 -1.7703  1.5888
31620SOL    HW2 1911  11.329   8.247   2.597 -0.7969 -1.7452  0.4399
31621SOL     OW 1912  10.103   4.646   2.326  0.5989 -0.1080 -0.2282
31621SOL    HW1 1913  10.182   4.626   2.277  0.2163 -0.1365 -0.8378
31621SOL    HW2 1914  10.031   4.633   2.264  0.1981  1.1086 -0.0536
31622SOL     OW 1915  10.895   4.484   4.122 -0.1025 -0.5303 -0.1136
31622SOL    HW1 1916  10.890   4.579   4.135 -0.2177 -0.5808  0.2285
31622SOL    HW2 1917  10.988   4.464   4.121 -0.0819 -0.4619  0.2058
31623SOL     OW 1918   0.087  10.754   4.904  0.7513  0.3414 -0.2144
31623SOL    HW1 1919   0.004  10.740   4.858  1.0219 -0.0136 -0.6036
31623SOL    HW2 1920   0.154  10.744   4.837  1.2043 -1.0714  0.4008
31624SOL     OW 1921   9.081  10.390   2.130  0.4278 -0.0812 -0.6518
31624SOL    HW1 1922   9.012  10.377   2.064  2.6116 -0.2135 -3.1059
31624SOL    HW2 1923   9.132  10.309   2.127  1.0636  0.2556  0.6379
31625SOL     OW 1924   6.083   4.955   2.211 -0.3621  0.0387 -0.4618
31625SOL    HW1 1925   6.101   4.864   2.188 -0.0935  0.1769 -0.8025
31625SOL    HW2 1926   6.040   4.991   2.133  2.1653  1.0049 -1.4895
31626SOL     OW 1927  11.664   4.884   8.153  0.0007  0.2395 -0.5000
31626SOL    HW1 1928  11.642   4.791   8.156 -1.1846  0.4471 -1.6859
31626SOL    HW2 1929  11.692   4.899   8.063 -3.4884  1.7125 -1.5291
31627SOL     OW 1930   1.764   0.971   0.117 -0.1403 -0.4427 -0.1710
31627SOL    HW1 1931   1.676   1.006   0.132  0.0924 -0.0221  0.2689
31627SOL    HW2 1932   1.818   1.014   0.184  0.6320  0.2151 -1.1749
31628SOL     OW 1933   0.090   4.378   4.280  0.4340 -0.7456  0.7420
31628SOL    HW1 1934   0.012   4.419   4.317  0.5590 -1.2961  1.6606
31628SOL    HW2 1935   0.062   4.290   4.257 -0.1354  0.1199 -2.2755
31629SOL     OW 1936   6.127   9.659   6.934  0.6896  0.0689 -0.0624
31629SOL    HW1 1937   6.100   9.643   7.024 -0.5764  1.6390 -0.1054
31629SOL    HW2 1938   6.200   9.721   6.941 -0.0936  1.0215 -0.1168
31630SOL     OW 1939   7.276   7.355  10.669  0.1704 -0.2047  0.9462
31630SOL    HW1 1940   7.233   7.377  10.586 -0.6054 -0.4424  1.2786
31630SOL    HW2 1941   7.330   7.431  10.689 -1.6299  0.9735  1.5314
31631SOL     OW 1942  10.453   4.630   9.005 -0.6763 -0.1165 -0.3783
31631SOL    HW1 1943  10.497   4.574   9.069 -0.0776 -0.5516 -1.1486
31631SOL    HW2 1944  10.362   4.635   9.036  0.0395  1.4319  1.6647
31632SOL     OW 1945   3.570  11.371   0.354 -0.3683 -0.2871  0.6681
31632SOL    HW1 1946   3.540  11.414   0.273  0.5774 -0.9054 -0.0196
31632SOL    HW2 1947   3.598  11.284   0.326 -0.4101 -0.6527  1.7394
31633SOL     OW 1948   7.020   2.424   2.183 -0.4503  0.7162 -0.7239
31633SOL    HW1 1949   7.090   2.471   2.138 -0.8989  1.7752 -0.3552
31633SOL    HW2 1950   7.008   2.472   2.265 -0.7455 -0.2095 -0.2170
31634SOL     OW 1951   6.091   4.630   6.692  0.0105  0.1642  0.0338
31634SOL    HW1 1952   6.043   4.709   6.715  0.0718  0.2268 -0.0529
31634SOL    HW2 1953   6.179   4.662   6.671  1.0628 -0.2322  3.2333
31635SOL     OW 1954   9.294   2.709   5.910 -0.1977  0.3578 -0.5708
31635SOL    HW1 1955   9.253   2.623   5.917 -0.6173  0.4156 -2.1604
31635SOL    HW2 1956   9.249   2.753   5.838  0.5233  1.6344 -0.2896
31636SOL     OW 1957  11.129   0.782   7.494 -0.8340 -0.1466  0.8041
31636SOL    HW1 1958  11.166   0.808   7.409 -1.8824 -1.5428 -0.1327
31636SOL    HW2 1959  11.053   0.839   7.505 -0.0629  0.8009  1.3745
31637SOL     OW 1960   6.252   0.490  11.518 -0.4300 -0.1400 -0.2373
31637SOL    HW1 1961   6.209   0.534  11.591  1.6739 -0.5439  1.3394
31637SOL    HW2 1962   6.284   0.561  11.462 -0.1761  0.2369  0.3825
31638SOL     OW 1963   0.409   1.243  12.027  0.0514  0.6230  0.3425
31638SOL    HW1 1964   0.359   1.265  12.106 -0.8629  0.5805 -0.2113
31638SOL    HW2 1965   0.412   1.147  12.028  0.6867  0.6359  0.7028
31639SOL     OW 1966   2.456   1.333   6.513  0.7460  0.2543 -0.4246
31639SOL    HW1 1967   2.453   1.299   6.423  1.0358  0.4791 -0.5237
31639SOL    HW2 1968   2.514   1.409   6.507  0.7321  0.2942 -0.0539
31640SOL     OW 1969   8.749   4.369   0.983  0.3620  0.1293  0.3577
31640SOL    HW1 1970   8.701   4.288   1.001  0.3253 -0.3300 -1.5868
31640SOL    HW2 1971   8.712   4.402   0.901  1.4442  1.2881  0.2915
31641SOL     OW 1972  11.476   2.099   3.367  0.3574 -0.2892  0.6203
31641SOL    HW1 1973  11.486   2.185   3.406  0.8926 -0.4622  0.8784
31641SOL    HW2 1974  11.442   2.116   3.279 -0.8910  0.0983  1.1643
31642SOL     OW 1975  10.864   7.393   1.366  0.4807  0.1004 -0.1056
31642SOL    HW1 1976  10.864   7.419   1.458  0.1959 -0.9944  0.2184
31642SOL    HW2 1977  10.810   7.314   1.363  1.3964 -0.5180 -1.0256
31643SOL     OW 1978   0.331   0.387   6.272  0.1473 -0.0263 -0.0077
31643SOL    HW1 1979   0.321   0.313   6.332  0.6352 -0.0918 -0.0011
31643SOL    HW2 1980   0.241   0.409   6.246 -0.0230 -0.4106  0.2410
31644SOL     OW 1981   6.363   3.355  11.718  0.2833  0.6352  0.4489
31644SOL    HW1 1982   6.364   3.448  11.739 -1.3991  0.6923  0.3750
31644SOL    HW2 1983   6.274   3.326  11.739  0.5328 -0.7731 -0.3103
31645SOL     OW 1984   0.363  10.426   7.601  0.2513  0.2023 -0.7858
31645SOL    HW1 1985   0.365  10.388   7.689 -0.4597 -1.3488 -1.4026
31645SOL    HW2 1986   0.285  10.482   7.601  0.6263  0.7306 -0.2335
31646SOL     OW 1987   8.871   3.698   7.672  0.4759  0.0840 -0.3833
31646SOL    HW1 1988   8.914   3.760   7.731 -1.0973  0.9600 -0.0867
31646SOL    HW2 1989   8.896   3.612   7.706  2.5347  0.5250 -0.6744
31647SOL     OW 1990   4.909  10.802   3.533  0.5872  0.1152  0.5110
31647SOL    HW1 1991   4.902  10.761   3.619 -0.2332 -1.7584 -0.3771
31647SOL    HW2 1992   4.826  10.780   3.490  0.8390  1.3203 -0.6309
31648SOL     OW 1993   4.679   1.011   4.374 -0.4250 -0.1473  0.2261
31648SOL    HW1 1994   4.771   1.002   4.352 -0.2742  1.5009  0.0946
31648SOL    HW2 1995   4.678   1.026   4.468 -0.4100  1.4654 -0.0066
31649SOL     OW 1996   4.959   3.507   4.842 -0.4269  0.2805 -0.3774
31649SOL    HW1 1997   5.011   3.578   4.803  0.6610 -0.4504 -0.2871
31649SOL    HW2 1998   4.870   3.524   4.812  0.1097  0.6882 -1.8186
31650SOL     OW 1999  12.354  12.125  11.099 -0.1449 -0.2553  0.2670
31650SOL    HW1 2000  12.407  12.153  11.174 -1.9031  1.0455  1.0887
31650SOL    HW2 2001  12.321  12.207  11.062 -2.2926 -1.0281  0.3341
31651SOL     OW 2002   3.029   7.094   1.852  0.0582  0.2014  0.1208
31651SOL    HW1 2003   3.094   7.142   1.902  1.3477  0.1815 -1.4705
31651SOL    HW2 2004   3.058   7.101   1.761 -0.2967 -2.6357 -0.2992
31652SOL     OW 2005  11.690  10.132   2.502  0.1878 -0.0774  0.4624
31652SOL    HW1 2006  11.776  10.162   2.530 -0.5830  1.1897  1.5810
31652SOL    HW2 2007  11.695  10.037   2.507  0.7230  0.0088  3.1792
31653SOL     OW 2008   9.811  11.291   4.912  0.1077 -0.3129  0.0380
31653SOL    HW1 2009   9.765  11.304   4.995 -1.2963  4.6447 -1.2009
31653SOL    HW2 2010   9.743  11.264   4.851 -0.3618  2.4382 -0.7727
31654SOL     OW 2011   2.595   2.107   9.316 -0.2590  0.0507 -0.2502
31654SOL    HW1 2012   2.548   2.059   9.247  0.6413  0.3349 -1.0959
31654SOL    HW2 2013   2.683   2.119   9.280 -0.5217  2.6007 -0.2052
31655SOL     OW 2014   5.841   5.632  11.611 -0.1776 -0.6576 -0.0041
31655SOL    HW1 2015   5.908   5.631  11.679  0.1682 -0.4769 -0.3417
31655SOL    HW2 2016   5.809   5.722  11.610 -0.0970 -0.6319 -0.1688
31656SOL     OW 2017   3.031  12.186   5.815 -0.0283  0.4503  0.3410
31656SOL    HW1 2018   3.077  12.268   5.793  0.2662  0.4521  0.9312
31656SOL    HW2 2019   2.955  12.215   5.867 -0.3626  0.4018 -0.1158
31657SOL     OW 2020  10.128   2.775   3.417 -0.0308  0.5646 -1.0498
31657SOL    HW1 2021  10.218   2.784   3.450  0.1500 -0.3917 -1.2647
31657SOL    HW2 2022  10.088   2.709   3.474  0.0465 -0.5405 -2.2267
31658SOL     OW 2023   3.929   0.480   9.288  0.4003 -0.0352  0.5263
31658SOL    HW1 2024   3.895   0.552   9.340 -0.4207 -1.4160  2.0089
31658SOL    HW2 2025   4.005   0.448   9.337  1.4777  0.5299 -0.7241
31659SOL     OW 2026   1.685   8.357   3.766  0.1752 -1.2204 -0.6351
31659SOL    HW1 2027   1.621   8.290   3.791  1.0362 -1.8114  0.0458
31659SOL    HW2 2028   1.644   8.439   3.795  0.2692 -1.7106  1.0036
31660SOL     OW 2029   3.208   4.114  11.758 -0.0630  0.4316  0.1961
31660SOL    HW1 2030   3.221   4.193  11.707 -0.6774 -0.3462 -1.2319
31660SOL    HW2 2031   3.287   4.062  11.742 -0.5434 -0.0938 -0.5178
31661SOL     OW 2032   5.883  12.268  11.423 -0.0151 -0.2658  0.4927
31661SOL    HW1 2033   5.935  12.209  11.477  1.2137  0.3526  0.0314
31661SOL    HW2 2034   5.941  12.342  11.405 -0.7962  0.1078 -0.6621
31662SOL     OW 2035   3.852  10.843   5.323  0.0342 -0.1350 -0.1852
31662SOL    HW1 2036   3.817  10.927   5.292 -1.3866 -0.9154 -0.8050
31662SOL    HW2 2037   3.790  10.778   5.290 -0.2678 -1.2467  2.3436
31663SOL     OW 2038   3.065   4.764  11.926  0.2104 -0.3191  0.5214
31663SOL    HW1 2039   3.123   4.841  11.922 -2.2220  1.6351  0.4116
31663SOL    HW2 2040   3.003   4.785  11.995 -2.0102 -1.0209 -1.1438
31664SOL     OW 2041   8.812   3.012   9.638  0.1194 -0.1985 -0.6327
31664SOL    HW1 2042   8.719   3.033   9.648 -0.3272 -1.9624 -0.8251
31664SOL    HW2 2043   8.842   2.991   9.727 -0.0280 -0.9970 -0.7656
31665SOL     OW 2044   3.990  12.453   6.447  0.4790  0.2285  0.7999
31665SOL    HW1 2045   3.956  12.364   6.448  0.1772  0.3019 -0.5396
31665SOL    HW2 2046   3.917  12.507   6.477  0.4399  0.0865  0.9597
31666SOL     OW 2047   3.591   1.141   1.510  0.4400 -0.4970 -1.0377
31666SOL    HW1 2048   3.624   1.227   1.538 -0.4908  0.2894 -2.1984
31666SOL    HW2 2049   3.500   1.158   1.486  0.1065 -1.9252 -0.8597
31667SOL     OW 2050   2.508   7.910   1.843 -0.1729  0.7088  0.5397
31667SOL    HW1 2051   2.468   7.995   1.829 -0.1546  0.6961  0.4123
31667SOL    HW2 2052   2.482   7.886   1.932 -1.3801  0.1954  0.0769
31668SOL     OW 2053   2.830   4.045   4.795 -0.2630 -0.3711 -0.2077
31668SOL    HW1 2054   2.835   4.032   4.700  0.7911 -0.7570 -0.1148
31668SOL    HW2 2055   2.832   3.957   4.832 -2.2475 -0.3064  0.1415
31669SOL     OW 2056  10.649   2.735   7.225 -0.0297 -0.3099 -0.2455
31669SOL    HW1 2057  10.633   2.788   7.146 -1.7424  1.2411  1.0569
31669SOL    HW2 2058  10.588   2.662   7.217 -0.2351 -0.1293 -0.3552
31670SOL     OW 2059   6.400  10.916   8.173 -0.1020 -0.1935  0.7350
31670SOL    HW1 2060   6.310  10.935   8.200 -0.1869  0.8507 -0.2125
31670SOL    HW2 2061   6.435  11.000   8.146  1.4004 -0.4659  1.7169
31671SOL     OW 2062   3.992   6.468  12.591 -0.4791  0.0043  0.4804
31671SOL    HW1 2063   4.055   6.428  12.530 -0.9143  0.3240 -0.1834
31671SOL    HW2 2064   4.043   6.535  12.637 -0.8341  1.8692 -1.6808
31672SOL     OW 2065  10.574   8.985   8.138 -0.0136  0.3303  0.0655
31672SOL    HW1 2066  10.582   9.080   8.146 -0.2497  0.2243  2.0745
31672SOL    HW2 2067  10.504   8.961   8.199  0.0101 -1.1348 -0.4315
31673SOL     OW 2068   0.461   2.550   6.969 -0.3520 -0.0427  0.3237
31673SOL    HW1 2069   0.377   2.594   6.981  0.2193  0.7549  1.5646
31673SOL    HW2 2070   0.525   2.621   6.965  0.3743 -0.6792  0.4547
31674SOL     OW 2071   9.547   9.090   5.126  0.3468 -0.4232  0.1202
31674SOL    HW1 2072   9.495   9.074   5.205 -0.1743 -1.3157 -0.3935
31674SOL    HW2 2073   9.551   9.005   5.082 -0.2589  0.2883 -1.3602
31675SOL     OW 2074   7.271   2.102   0.439  0.0504 -0.3376 -0.7089
31675SOL    HW1 2075   7.314   2.020   0.414  0.8692  0.4706 -2.1423
31675SOL    HW2 2076   7.184   2.096   0.400  0.0682 -0.5650 -0.7162
31676SOL     OW 2077   4.159  10.170   0.957 -0.1206 -0.3244  0.2191
31676SOL    HW1 2078   4.230  10.118   0.921 -1.1701 -0.8607 -1.1752
31676SOL    HW2 2079   4.146  10.241   0.894  0.2140  0.7136  1.2756
31677SOL     OW 2080   8.303   2.329   8.935 -0.4732 -0.2627 -0.3137
31677SOL    HW1 2081   8.296   2.356   9.027 -2.5804  2.4705 -1.1584
31677SOL    HW2 2082   8.388   2.364   8.907 -0.8401  0.9119  0.0031
31678SOL     OW 2083  10.115   1.390  10.202  0.4066  0.1560  0.2037
31678SOL    HW1 2084  10.122   1.314  10.260  1.7207  1.1005  1.3570
31678SOL    HW2 2085  10.072   1.357  10.124  0.4156 -1.6365  0.9135
31679SOL     OW 2086   6.234   2.336   8.837  0.6162 -0.5559 -0.4578
31679SOL    HW1 2087   6.158   2.394   8.843 -0.3591 -1.4328 -2.9255
31679SOL    HW2 2088   6.306   2.393   8.810  0.0623 -0.2058 -1.2293
31680SOL     OW 2089   2.310   7.361   1.092 -0.0488  0.3168  0.4300
31680SOL    HW1 2090   2.358   7.323   1.166 -1.4652  1.5952  2.1045
31680SOL    HW2 2091   2.326   7.301   1.020  2.1313 -0.5323  1.5085
31681SOL     OW 2092   0.536   5.788  12.359 -0.6124  0.0023 -0.0250
31681SOL    HW1 2093   0.498   5.869  12.390 -0.1878  0.0407  0.3974
31681SOL    HW2 2094   0.620   5.813  12.321 -0.5431 -0.2171 -0.0213
31682SOL     OW 2095   2.666   4.715  11.413 -0.3667  0.3503  0.0395
31682SOL    HW1 2096   2.672   4.781  11.482  0.5158  0.0121  0.3086
31682SOL    HW2 2097   2.573   4.711  11.391 -0.8577 -0.3206  1.9950
31683SOL     OW 2098  10.151   5.673   8.294 -0.0175  0.0143 -0.2405
31683SOL    HW1 2099  10.123   5.764   8.306 -0.6661 -0.2940  0.6718
31683SOL    HW2 2100  10.184   5.670   8.204 -0.9360  0.9140 -0.6302
31684SOL     OW 2101  11.052   8.548   5.828 -0.2519  0.4161  0.3536
31684SOL    HW1 2102  11.033   8.455   5.820  0.4853  0.2437  0.5253
31684SOL    HW2 2103  11.136   8.551   5.873  0.6092  1.1302 -1.2390
31685SOL     OW 2104  12.535  10.479   4.733 -0.0006  0.3049  0.0684
31685SOL    HW1 2105  12.623  10.479   4.696  0.3716  0.3028  0.9395
31685SOL    HW2 2106  12.501  10.567   4.715 -0.0145  0.1474 -0.7016
31686SOL     OW 2107   7.258   7.011   0.191 -0.3225 -0.1128 -0.5621
31686SOL    HW1 2108   7.242   6.924   0.153  1.7210 -0.4001 -0.9380
31686SOL    HW2 2109   7.314   7.055   0.126  2.0843 -0.0773  1.3620
31687SOL     OW 2110   3.699   9.102  10.144 -0.2269  0.2868  0.2559
31687SOL    HW1 2111   3.656   9.184  10.168 -2.6401 -0.8272  0.0217
31687SOL    HW2 2112   3.716   9.058  10.228 -0.9900  0.0516  0.2891
31688SOL     OW 2113   0.643   2.329   0.538  0.1539 -0.1107  0.6630
31688SOL    HW1 2114   0.694   2.265   0.588  0.4029 -0.8493 -0.4966
31688SOL    HW2 2115   0.654   2.303   0.447  1.0722  2.1816  0.0488
31689SOL     OW 2116  10.948   5.249   8.351  0.2912 -0.1948  0.5280
31689SOL    HW1 2117  11.021   5.268   8.292 -1.5253  0.7173 -1.5420
31689SOL    HW2 2118  10.934   5.155   8.341 -0.2341  0.0109 -0.8195
31690SOL     OW 2119   1.790  11.686   4.444 -0.2253 -0.0614 -0.4490
31690SOL    HW1 2120   1.719  11.745   4.471  0.9783  0.6054  1.4666
31690SOL    HW2 2121   1.793  11.619   4.511  0.5671 -0.4231 -0.8277
31691SOL     OW 2122   5.215   8.802   3.275 -0.6800 -0.2836 -0.0420
31691SOL    HW1 2123   5.173   8.878   3.315  0.4969  1.0579 -1.2339
31691SOL    HW2 2124   5.163   8.727   3.304 -0.3362  0.6405  3.3096
31692SOL     OW 2125   1.311   9.640  10.022  0.3004 -0.7024  0.2475
31692SOL    HW1 2126   1.267   9.702  10.080  0.9810  0.9993 -0.9686
31692SOL    HW2 2127   1.255   9.636   9.944  1.4565  0.2741 -0.6659
31693SOL     OW 2128   6.774   5.259   2.626 -0.3761 -0.3480  0.1554
31693SOL    HW1 2129   6.840   5.271   2.558 -0.3217 -2.9415 -0.3601
31693SOL    HW2 2130   6.691   5.262   2.579 -0.6406  1.8307  0.6471
31694SOL     OW 2131   9.797   6.273   3.569 -0.1924  0.3071  0.6007
31694SOL    HW1 2132   9.860   6.226   3.623  0.3170  0.1281 -0.1361
31694SOL    HW2 2133   9.782   6.355   3.617 -0.8938 -0.4636  1.7602
31695SOL     OW 2134   0.697  10.207   2.747  0.0565 -0.3593  0.0118
31695SOL    HW1 2135   0.632  10.277   2.742  0.0460 -0.4437 -1.5300
31695SOL    HW2 2136   0.695  10.166   2.661  1.9953 -0.5047 -0.0095
31696SOL     OW 2137   4.348   1.914   4.375  0.0253 -0.1619  0.6310
31696SOL    HW1 2138   4.291   1.990   4.379 -0.4168 -0.4500 -0.1134
31696SOL    HW2 2139   4.421   1.936   4.434  1.1088  1.8291 -1.3112
31697SOL     OW 2140   7.721   8.680  12.370 -0.2365  0.0004 -0.3903
31697SOL    HW1 2141   7.725   8.735  12.448 -1.4544 -0.0840 -0.2415
31697SOL    HW2 2142   7.728   8.741  12.296  2.9394 -0.0863 -0.2881
31698SOL     OW 2143  12.459   2.489   0.240  0.4034  0.6444 -0.3210
31698SOL    HW1 2144  12.414   2.552   0.184 -1.1413  0.7814  1.0046
31698SOL    HW2 2145  12.499   2.427   0.179 -1.0283  0.9071 -1.5999
31699SOL     OW 2146  11.399   6.703   8.796  0.1489  0.3192  0.7135
31699SOL    HW1 2147  11.392   6.663   8.709  2.6683  0.5084  0.3429
31699SOL    HW2 2148  11.347   6.783   8.790 -0.7298 -0.2920 -0.2074
31700SOL     OW 2149   0.688   7.402  10.657  0.0091  0.1250  0.2548
31700SOL    HW1 2150   0.609   7.456  10.652 -0.3932 -0.5225 -0.7969
31700SOL    HW2 2151   0.746   7.438  10.590 -0.4555 -1.0098 -0.7956
31701SOL     OW 2152   6.931   2.551   6.886  0.6092 -0.5379  0.2791
31701SOL    HW1 2153   6.859   2.605   6.853  0.1264 -0.1255  1.8758
31701SOL    HW2 2154   6.921   2.555   6.982  2.8571 -0.3350  0.5575
31702SOL     OW 2155  12.256   9.000  10.931  0.3057 -0.2026  0.4809
31702SOL    HW1 2156  12.343   9.018  10.897  0.4756 -0.3829  0.8134
31702SOL    HW2 2157  12.215   9.086  10.940  0.0251 -0.1826 -0.7648
31703SOL     OW 2158   5.250   7.049   9.311 -0.5641 -0.0040  0.0875
31703SOL    HW1 2159   5.272   7.139   9.337  0.0579 -0.6650  2.0628
31703SOL    HW2 2160   5.167   7.031   9.354 -0.5132 -0.4689 -0.0008
31704SOL     OW 2161   3.881   4.691   7.433  0.2234  0.2820  0.2892
31704SOL    HW1 2162   3.917   4.710   7.346  1.0360 -3.2853 -0.3209
31704SOL    HW2 2163   3.831   4.611   7.421  0.8647 -0.6741  3.2106
31705SOL     OW 2164   8.531   1.520   1.399 -0.2461 -0.2163 -0.4423
31705SOL    HW1 2165   8.588   1.538   1.325 -1.1656  0.1925 -1.0709
31705SOL    HW2 2166   8.480   1.600   1.410  0.3029 -0.0336  1.0389
31706SOL     OW 2167   4.705  10.552   3.256  0.1465  0.2031 -0.1472
31706SOL    HW1 2168   4.691  10.616   3.327 -0.9388  0.2778 -0.4154
31706SOL    HW2 2169   4.650  10.584   3.184 -2.0447 -2.0862  0.3767
31707SOL     OW 2170   3.142   8.918   0.397 -0.3721  0.4124  0.2945
31707SOL    HW1 2171   3.181   9.005   0.391  0.8456 -0.2399 -2.8083
31707SOL    HW2 2172   3.216   8.858   0.396 -1.2086 -0.7624 -3.0243
31708SOL     OW 2173   3.577  11.598  10.815 -0.5472  0.0205 -0.3532
31708SOL    HW1 2174   3.672  11.585  10.804 -0.3633  1.0440 -0.0384
31708SOL    HW2 2175   3.542  11.509  10.821  0.3740 -0.3785 -0.6125
31709SOL     OW 2176   2.660   6.553  10.978  0.3888 -0.4863  0.1990
31709SOL    HW1 2177   2.597   6.484  10.999 -1.1342  0.8006  0.0287
31709SOL    HW2 2178   2.737   6.532  11.032 -0.6931 -1.3232  1.4921
31710SOL     OW 2179   3.563   0.885  12.153 -0.3108 -0.2736  0.1341
31710SOL    HW1 2180   3.468   0.899  12.162 -0.1318  1.0161  0.2462
31710SOL    HW2 2181   3.602   0.955  12.205  0.7053  0.7392 -1.8505
31711SOL     OW 2182   1.466   8.943   1.976  0.4103 -0.3152  0.5451
31711SOL    HW1 2183   1.386   8.908   1.937  1.2352 -1.9805  0.2450
31711SOL    HW2 2184   1.438   8.985   2.057 -0.9297  0.4290 -0.2654
31712SOL     OW 2185   6.275   2.797   0.280  0.4154 -0.5756  0.3252
31712SOL    HW1 2186   6.351   2.825   0.229  1.0642  2.6353  2.6979
31712SOL    HW2 2187   6.210   2.865   0.267 -1.2542 -2.1251  0.1213
31713SOL     OW 2188   7.450  11.667   7.274 -0.2866 -0.3983 -0.2892
31713SOL    HW1 2189   7.390  11.689   7.345  0.2160  0.6077 -0.1616
31713SOL    HW2 2190   7.537  11.672   7.313 -0.0636 -1.0378 -0.6822
31714SOL     OW 2191   7.686   2.189  12.575  0.2687  0.1481  0.4657
31714SOL    HW1 2192   7.680   2.280  12.546 -0.0554 -0.3613 -1.1642
31714SOL    HW2 2193   7.667   2.192  12.669  2.5569  2.0319  0.9658
31715SOL     OW 2194   6.583   1.775  10.214  0.0565  0.1678 -0.4992
31715SOL    HW1 2195   6.626   1.690  10.222 -0.7948 -0.3585 -1.3490
31715SOL    HW2 2196   6.490   1.756  10.225 -0.2008  0.8939 -1.3346
31716SOL     OW 2197   1.227  10.376   3.016  0.3224 -0.3572 -0.1876
31716SOL    HW1 2198   1.173  10.321   3.072 -1.0819  2.2450  1.2045
31716SOL    HW2 2199   1.165  10.432   2.969  1.6633  0.5911 -0.9218
31717SOL     OW 2200   6.994  10.073   7.949 -0.2852 -0.0351  0.2577
31717SOL    HW1 2201   7.066  10.136   7.956 -0.5862  0.4007 -0.4332
31717SOL    HW2 2202   6.944  10.102   7.872 -1.0008 -0.5312  0.5203
31718SOL     OW 2203   7.850   2.744   7.305  0.0572  0.1437  0.0676
31718SOL    HW1 2204   7.761   2.747   7.341 -0.7171  2.2617 -1.7866
31718SOL    HW2 2205   7.837   2.732   7.211  1.8457 -1.0460 -0.0784
31719SOL     OW 2206   8.794   1.815   1.980 -0.2349  0.2639 -0.1875
31719SOL    HW1 2207   8.713   1.863   1.994 -0.4190  0.2557 -1.1852
31719SOL    HW2 2208   8.797   1.753   2.053 -0.8607  0.6094  0.1444
31720SOL     OW 2209   1.594   1.835   0.609  0.4224  0.7244  0.9217
31720SOL    HW1 2210   1.551   1.912   0.647 -0.5788  0.5713  0.1211
31720SOL    HW2 2211   1.523   1.778   0.582  1.0501  1.0057 -1.5651
31721SOL     OW 2212  10.629  12.080  10.822 -0.4757 -0.5817  0.1525
31721SOL    HW1 2213  10.549  12.119  10.856  0.0558  1.8622 -1.1510
31721SOL    HW2 2214  10.601  12.000  10.779 -2.0769 -0.2352  0.4872
31722SOL     OW 2215  10.501   2.194  10.508  0.3889 -0.2584 -0.4893
31722SOL    HW1 2216  10.438   2.265  10.520  1.4680  0.5781  0.4378
31722SOL    HW2 2217  10.528   2.200  10.417  0.7820  0.8198 -0.3123
31723SOL     OW 2218  10.429   9.108  11.136 -0.4221  0.1894  0.4484
31723SOL    HW1 2219  10.356   9.064  11.092 -0.8550 -0.6503  1.9533
31723SOL    HW2 2220  10.472   9.039  11.186  0.5019  0.9755  0.7674
31724SOL     OW 2221   3.751   3.277   0.223 -0.0812 -0.3087 -0.6094
31724SOL    HW1 2222   3.716   3.288   0.135 -1.0192 -1.2775 -0.3625
31724SOL    HW2 2223   3.787   3.189   0.224 -1.8923 -1.0917  0.5672
31725SOL     OW 2224  10.492   4.822   9.676 -0.2785  0.3871  0.2875
31725SOL    HW1 2225  10.567   4.818   9.617  0.2587  0.2800  0.9664
31725SOL    HW2 2226  10.438   4.747   9.651  1.3919 -1.4347  1.8243
31726SOL     OW 2227   1.609   0.442   1.825  0.0347 -0.3157 -0.0191
31726SOL    HW1 2228   1.613   0.439   1.730 -0.6237 -0.5387 -0.0407
31726SOL    HW2 2229   1.623   0.351   1.853  0.8878 -0.1504  0.1301
31727SOL     OW 2230   3.405   8.098  10.481 -0.1125  0.3124 -0.1098
31727SOL    HW1 2231   3.405   8.016  10.529 -2.0978  0.3956  0.1047
31727SOL    HW2 2232   3.436   8.074  10.393 -0.2355 -0.5736  0.0801
31728SOL     OW 2233   5.195   8.141   5.120 -0.2809 -0.0216  0.3637
31728SOL    HW1 2234   5.172   8.169   5.209 -0.8756 -0.8945  0.5061
31728SOL    HW2 2235   5.211   8.047   5.128 -1.6006 -0.3717 -0.6592
31729SOL     OW 2236   2.961   4.541   9.266  0.1884 -0.6201  0.5051
31729SOL    HW1 2237   2.976   4.593   9.345  0.3399  1.0630 -0.5760
31729SOL    HW2 2238   2.870   4.511   9.273  0.2187 -0.5334  1.3312
31730SOL     OW 2239   0.021  10.233   5.885  0.2702  0.1931  0.0394
31730SOL    HW1 2240   0.044  10.237   5.792  0.0429 -0.5637 -0.0618
31730SOL    HW2 2241  -0.019  10.318   5.904  0.3585  0.3712 -0.5445
31731SOL     OW 2242  10.161   1.064   3.929  0.5191  0.7037  0.1362
31731SOL    HW1 2243  10.141   0.997   3.862 -1.2381  0.7861  0.5341
31731SOL    HW2 2244  10.223   1.020   3.988 -0.3897 -0.5046  0.2371
31732SOL     OW 2245  10.855   5.969   8.543 -0.6570  0.4362 -0.0421
31732SOL    HW1 2246  10.883   5.880   8.522 -0.2658  0.8834 -1.5681
31732SOL    HW2 2247  10.786   5.958   8.609  0.0799 -0.9219  0.5275
31733SOL     OW 2248   2.644   8.741   5.715 -0.3251 -0.1102  0.7932
31733SOL    HW1 2249   2.607   8.825   5.741  1.0605  1.0949 -0.9080
31733SOL    HW2 2250   2.569   8.688   5.690 -1.0870  1.5498 -0.6149
31734SOL     OW 2251   0.958   2.057   3.591  0.7849 -0.2207 -0.3781
31734SOL    HW1 2252   0.910   2.026   3.668 -0.6234  2.0464 -0.2745
31734SOL    HW2 2253   1.046   2.019   3.601  0.0656 -1.5610  1.3044
31735SOL     OW 2254   4.783   4.004   4.825  0.1095 -0.0186 -0.2744
31735SOL    HW1 2255   4.747   3.994   4.913  0.9665  0.3988  0.1382
31735SOL    HW2 2256   4.873   3.971   4.833  0.0330 -0.4408 -1.1189
31736SOL     OW 2257   1.890   0.266  12.528  0.0809 -0.4088 -0.1568
31736SOL    HW1 2258   1.864   0.269  12.621 -1.1918  3.3718 -0.4883
31736SOL    HW2 2259   1.983   0.286  12.529 -0.3543  1.8358  0.2760
31737SOL     OW 2260  10.270   7.862   7.967 -0.1230 -0.0580 -0.3919
31737SOL    HW1 2261  10.223   7.906   7.896 -1.9569 -0.4124  0.5493
31737SOL    HW2 2262  10.211   7.869   8.043  1.3740 -0.5062  0.8584
31738SOL     OW 2263   5.121   2.925   2.945 -0.0776  0.0798  0.2754
31738SOL    HW1 2264   5.189   2.938   3.011  0.2713 -1.1045  0.1733
31738SOL    HW2 2265   5.151   2.975   2.869  2.3218 -2.8128 -0.8768
31739SOL     OW 2266   6.333   8.758   6.704  0.1818 -0.0196 -0.1716
31739SOL    HW1 2267   6.428   8.748   6.699 -0.0579 -2.7127 -0.6044
31739SOL    HW2 2268   6.318   8.794   6.792  1.6670  3.2720 -1.0825
31740SOL     OW 2269   4.311   2.183  11.499  0.2948  0.5570 -0.3908
31740SOL    HW1 2270   4.389   2.173  11.445  1.0732 -1.7324  1.0129
31740SOL    HW2 2271   4.289   2.276  11.493  2.3904  1.0190 -1.8074
31741SOL     OW 2272  11.736   1.730   5.302 -0.3358 -0.4082 -0.3763
31741SOL    HW1 2273  11.658   1.692   5.260  0.0379 -0.9960 -0.5452
31741SOL    HW2 2274  11.733   1.697   5.392 -1.2767  1.0572  0.1718
31742SOL     OW 2275  11.739   0.390  12.117 -0.5486 -0.4334 -0.3582
31742SOL    HW1 2276  11.647   0.416  12.112 -0.7369 -0.7758  0.9884
31742SOL    HW2 2277  11.780   0.456  12.173 -0.1323 -0.7131 -0.3282
31743SOL     OW 2278   7.093   3.521   2.906 -0.7908  0.0286 -0.7364
31743SOL    HW1 2279   7.005   3.559   2.900 -1.2775 -1.1803 -1.6628
31743SOL    HW2 2280   7.102   3.471   2.825  1.9311  2.5334 -2.1833
31744SOL     OW 2281  11.717   5.574   2.238 -0.2871 -0.4265 -0.5294
31744SOL    HW1 2282  11.665   5.633   2.183 -0.7036 -0.3265 -0.0392
31744SOL    HW2 2283  11.807   5.585   2.208 -0.0998  1.7004  0.6143
31745SOL     OW 2284   4.381   0.937   4.555  0.1326 -0.0082  0.0523
31745SOL    HW1 2285   4.363   0.893   4.638 -1.4297  0.5430  0.0462
31745SOL    HW2 2286   4.469   0.972   4.565  0.5359 -1.1964  0.9072
31746SOL     OW 2287   8.903   8.745  11.369  0.6599  0.5107  0.3529
31746SOL    HW1 2288   8.915   8.733  11.463  0.3282  1.0436  0.4673
31746SOL    HW2 2289   8.808   8.757  11.358  0.6509  0.0489 -0.0955
31747SOL     OW 2290   9.946   1.085   0.497  0.3954  0.3982 -0.4337
31747SOL    HW1 2291   9.924   1.029   0.423 -0.3696  0.4983 -0.2977
31747SOL    HW2 2292  10.032   1.121   0.476  0.8962 -0.8218 -0.5185
31748SOL     OW 2293  10.693   0.383   3.305 -0.4006  0.5728  0.0770
31748SOL    HW1 2294  10.607   0.340   3.296  0.3631 -1.2531  1.0598
31748SOL    HW2 2295  10.675   0.463   3.354 -1.6625  0.6470 -0.4715
31749SOL     OW 2296   7.365   1.243   3.991 -0.1704 -0.0129  0.1264
31749SOL    HW1 2297   7.439   1.238   4.052 -0.4089 -0.4771  0.3754
31749SOL    HW2 2298   7.288   1.256   4.046 -0.5137 -1.3848  0.0072
31750SOL     OW 2299   4.595  12.162   3.238  0.2801  0.0450 -0.5112
31750SOL    HW1 2300   4.609  12.069   3.217  2.7662  0.5370 -1.3401
31750SOL    HW2 2301   4.584  12.163   3.333 -0.0883 -1.1188 -0.5189
31751SOL     OW 2302  10.234  12.084   3.953  0.2972 -0.1522  0.1273
31751SOL    HW1 2303  10.223  12.053   3.863  0.4497  0.3915 -0.0894
31751SOL    HW2 2304  10.156  12.137   3.970 -1.2061 -2.6121  1.3782
31752SOL     OW 2305  11.375   4.397   0.380 -0.1859 -0.3418 -0.2930
31752SOL    HW1 2306  11.461   4.438   0.372  0.7942 -2.4208 -0.9160
31752SOL    HW2 2307  11.323   4.460   0.430  1.3749  1.4085 -0.7837
31753SOL     OW 2308   0.702   4.184  10.616 -0.4972 -0.0408 -0.0618
31753SOL    HW1 2309   0.705   4.100  10.661  1.4939 -1.4416 -2.5380
31753SOL    HW2 2310   0.731   4.248  10.682  3.4326 -2.1301  0.5319
31754SOL     OW 2311  12.251   8.040   9.831 -0.2783  0.3232 -0.3122
31754SOL    HW1 2312  12.224   8.019   9.920  0.7201  0.2240 -0.0236
31754SOL    HW2 2313  12.239   7.959   9.782 -1.3247  0.5165 -0.4054
31755SOL     OW 2314   3.488   9.771   6.024 -0.3627  0.1179  0.4073
31755SOL    HW1 2315   3.541   9.756   6.102 -2.0237  0.5390  1.6799
31755SOL    HW2 2316   3.400   9.790   6.058 -1.0060  0.8960 -1.5417
31756SOL     OW 2317   0.684   4.173   3.845 -0.4947 -0.3960 -0.3793
31756SOL    HW1 2318   0.706   4.094   3.895  0.4687  0.5364  0.7280
31756SOL    HW2 2319   0.716   4.154   3.756  0.7093 -0.8529  0.1297
31757SOL     OW 2320   7.501   8.333   8.455 -0.1056 -0.3830 -0.1243
31757SOL    HW1 2321   7.504   8.415   8.505 -0.2163 -0.8412  0.6523
31757SOL    HW2 2322   7.591   8.317   8.429 -0.0911  0.0124 -0.3310
31758SOL     OW 2323   4.773   3.176   1.619 -0.7462  0.2740 -0.5224
31758SOL    HW1 2324   4.861   3.209   1.637 -0.3133  0.0542 -2.1060
31758SOL    HW2 2325   4.772   3.087   1.655 -0.8045  0.7739  0.7470
31759SOL     OW 2326   9.831  10.641   1.700  0.1993  0.2912 -0.2554
31759SOL    HW1 2327   9.899  10.704   1.723 -0.0870 -0.0549  1.7192
31759SOL    HW2 2328   9.749  10.689   1.716 -0.0268  0.0018 -0.5353
31760SOL     OW 2329   6.360  11.134   1.163 -0.3087  0.3514 -0.4517
31760SOL    HW1 2330   6.389  11.062   1.218 -1.8317  0.2871  0.3293
31760SOL    HW2 2331   6.423  11.204   1.179  1.1476 -0.7504 -1.1615
31761SOL     OW 2332  10.666   6.892   5.157 -0.2956  0.2091 -0.2722
31761SOL    HW1 2333  10.740   6.938   5.117  0.5026 -0.9698 -0.1912
31761SOL    HW2 2334  10.590   6.947   5.136  0.5196  1.1680 -0.8093
31762SOL     OW 2335   6.560   5.750   1.992 -0.0038  0.6281  0.4253
31762SOL    HW1 2336   6.488   5.687   1.989  0.3974  0.1772 -0.2045
31762SOL    HW2 2337   6.518   5.834   2.009 -0.7054  0.3958 -0.0839
31763SOL     OW 2338   2.656   6.961   2.471 -0.3716  0.4400 -0.2801
31763SOL    HW1 2339   2.616   7.030   2.525 -0.3715  0.7778 -0.7048
31763SOL    HW2 2340   2.727   6.926   2.525  0.0695  1.2397 -0.3215
31764SOL     OW 2341  11.209   0.619   5.450  0.5120 -0.4206 -0.3824
31764SOL    HW1 2342  11.134   0.640   5.506 -0.1912  2.1512 -2.1170
31764SOL    HW2 2343  11.247   0.540   5.489 -3.9267 -2.7526 -0.2502
31765SOL     OW 2344   1.501   5.547   6.609  0.3790  0.4047 -0.2823
31765SOL    HW1 2345   1.543   5.606   6.672 -0.2246 -0.4113  0.9236
31765SOL    HW2 2346   1.427   5.509   6.657  1.0022 -1.6681 -0.8555
31766SOL     OW 2347   3.647  10.897   5.741  0.0698 -0.0184  0.2324
31766SOL    HW1 2348   3.719  10.861   5.689 -0.4293  1.0705 -1.3188
31766SOL    HW2 2349   3.573  10.898   5.680 -0.2354  2.4257  0.5389
31767SOL     OW 2350   4.328   2.000   7.394  0.4675 -0.0100 -0.2502
31767SOL    HW1 2351   4.324   2.094   7.414  0.1363 -0.1200  0.2310
31767SOL    HW2 2352   4.252   1.984   7.339 -0.2532 -0.2462  0.7898
31768SOL     OW 2353   3.010   3.559  10.980  0.2994 -0.3179  0.2811
31768SOL    HW1 2354   3.000   3.628  10.914 -0.0567 -1.5650 -1.0163
31768SOL    HW2 2355   3.021   3.479  10.929  0.4766 -1.2608  1.7550
31769SOL     OW 2356   0.147   8.907   0.501  0.0081 -0.1950 -0.5460
31769SOL    HW1 2357   0.125   8.832   0.556 -1.2021 -0.1188 -0.9147
31769SOL    HW2 2358   0.122   8.881   0.413  0.4478  0.2964 -0.8275
31770SOL     OW 2359   1.631  11.280   6.007 -0.9370 -0.6966  0.2267
31770SOL    HW1 2360   1.594  11.192   6.003 -1.1831 -0.5474 -1.0708
31770SOL    HW2 2361   1.725  11.267   6.012 -0.9078 -1.0272 -1.0597
31771SOL     OW 2362   9.047   1.901   5.311  0.1318 -0.4429 -0.2536
31771SOL    HW1 2363   9.054   1.996   5.311  1.3321 -0.5026  0.8831
31771SOL    HW2 2364   8.981   1.882   5.377  0.1004 -0.4135 -0.2769
31772SOL     OW 2365   0.275   5.423   9.675 -0.4967 -0.0516 -0.4689
31772SOL    HW1 2366   0.280   5.440   9.769 -0.2055  0.9092 -0.6467
31772SOL    HW2 2367   0.357   5.458   9.640 -0.2900 -1.0332 -0.9949
31773SOL     OW 2368  10.685   9.055   2.403 -0.4954 -0.0650  0.6661
31773SOL    HW1 2369  10.744   9.007   2.345 -2.1290  0.4011 -1.5249
31773SOL    HW2 2370  10.742   9.091   2.471  1.5045 -0.7858 -0.5379
31774SOL     OW 2371   7.646   4.160   4.686 -0.8179 -0.1812  0.0494
31774SOL    HW1 2372   7.580   4.227   4.703  1.1150  1.7069  0.5030
31774SOL    HW2 2373   7.674   4.177   4.596 -0.4741 -0.5284  0.0875
31775SOL     OW 2374   0.139   1.084   8.403  0.0384 -0.3586  0.6632
31775SOL    HW1 2375   0.145   1.132   8.485  0.5088 -0.8944  0.9490
31775SOL    HW2 2376   0.086   1.140   8.346 -0.1932  0.0662  1.2912
31776SOL     OW 2377   5.247  12.568  12.424  0.4541  0.4731 -0.1063
31776SOL    HW1 2378   5.169  12.512  12.422  0.0819  0.9271 -2.5663
31776SOL    HW2 2379   5.252  12.599  12.514 -0.5140 -1.8339  0.8434
31777SOL     OW 2380  10.790  10.321   5.148 -0.2592 -0.3146  0.6969
31777SOL    HW1 2381  10.808  10.306   5.056  0.0513  0.9085  0.5452
31777SOL    HW2 2382  10.804  10.415   5.161 -0.6179 -0.4057  1.9141
31778SOL     OW 2383  10.731   0.421  10.116 -0.0406  0.4537  0.4528
31778SOL    HW1 2384  10.666   0.491  10.112 -0.4733  0.0648  0.6417
31778SOL    HW2 2385  10.699   0.355  10.055 -0.0862  0.0416  0.9146
31779SOL     OW 2386  12.076   2.527   1.943 -0.3767  0.4432  0.3117
31779SOL    HW1 2387  12.089   2.456   1.880  0.9134 -2.0660  3.1508
31779SOL    HW2 2388  12.151   2.585   1.930 -0.5218  0.3666 -0.9211
31780SOL     OW 2389   3.806   3.798  11.679 -0.1282 -0.2080 -0.0241
31780SOL    HW1 2390   3.800   3.707  11.651  1.5732 -0.0944 -0.8356
31780SOL    HW2 2391   3.797   3.794  11.775  1.2938 -1.3733  0.0911
31781SOL     OW 2392   3.190   6.899   2.809  0.5652 -0.0995  0.3886
31781SOL    HW1 2393   3.217   6.915   2.899  0.6210  0.3766  0.2923
31781SOL    HW2 2394   3.272   6.880   2.762  0.3879 -1.7918  0.7177
31782SOL     OW 2395   9.507   5.390   6.243 -0.2819  0.7398  0.4797
31782SOL    HW1 2396   9.505   5.294   6.236  0.1525  0.7802 -0.4514
31782SOL    HW2 2397   9.538   5.407   6.332  1.9672 -0.0280 -0.0728
31783SOL     OW 2398   7.500   2.698  12.137 -0.1283 -0.4921 -0.5061
31783SOL    HW1 2399   7.533   2.788  12.134 -0.2694 -0.4215 -0.0180
31783SOL    HW2 2400   7.553   2.652  12.072  1.3856 -0.5128  0.6719
31784SOL     OW 2401   3.924   5.970   4.830 -0.1005 -0.4638  0.3915
31784SOL    HW1 2402   3.916   5.878   4.856  0.3940 -0.5492  0.2545
31784SOL    HW2 2403   3.948   6.016   4.910  1.1458 -0.6851  0.1569
31785SOL     OW 2404   4.820  12.444   2.544  0.6772 -0.1380 -0.3112
31785SOL    HW1 2405   4.855  12.373   2.598 -0.0889 -0.5723 -0.3730
31785SOL    HW2 2406   4.856  12.524   2.583 -0.7639 -0.3549  1.5599
31786SOL     OW 2407   4.480   3.748   0.130 -0.0702 -0.3153 -0.2772
31786SOL    HW1 2408   4.417   3.808   0.090  0.9434  0.3156 -0.9685
31786SOL    HW2 2409   4.488   3.777   0.220 -0.2585  0.0240 -0.3693
31787SOL     OW 2410  11.798   1.786   1.920 -0.5073 -0.4692 -0.1416
31787SOL    HW1 2411  11.773   1.741   1.839 -0.8317  1.4533 -1.1610
31787SOL    HW2 2412  11.716   1.791   1.970 -0.3962 -1.2766  0.1431
31788SOL     OW 2413   0.799  11.047  12.437  0.0741  0.6612  0.7618
31788SOL    HW1 2414   0.885  11.061  12.477 -0.2447  1.3268  1.2211
31788SOL    HW2 2415   0.795  10.952  12.423  0.9647  0.6437  0.5458
31789SOL     OW 2416   6.295  10.898   6.622  0.1505  0.2612 -0.3211
31789SOL    HW1 2417   6.281  10.811   6.658 -1.8958 -0.2143 -2.0403
31789SOL    HW2 2418   6.365  10.936   6.675 -1.2361 -1.1056  2.7178
31790SOL     OW 2419   4.530  12.356   4.977  0.1281 -0.2985 -0.2449
31790SOL    HW1 2420   4.554  12.447   4.958 -1.5212 -0.0413 -1.2623
31790SOL    HW2 2421   4.547  12.309   4.895 -0.5187 -0.5896 -0.2110
31791SOL     OW 2422   8.166   2.972   5.632 -0.0520 -0.3702  0.3006
31791SOL    HW1 2423   8.131   2.951   5.545  1.4355  0.4302 -0.5346
31791SOL    HW2 2424   8.139   2.899   5.687 -0.7393 -1.0712 -0.9150
31792SOL     OW 2425   4.726   7.268   4.633  0.4572 -0.0415 -0.3693
31792SOL    HW1 2426   4.768   7.303   4.555 -0.1865  1.5401 -0.0572
31792SOL    HW2 2427   4.639   7.240   4.604  0.2974  0.3499 -0.2893
31793SOL     OW 2428   4.316  12.010  10.259 -0.4235 -0.1323  0.4784
31793SOL    HW1 2429   4.264  12.060  10.196 -0.7682  1.6132  2.0585
31793SOL    HW2 2430   4.305  12.057  10.342  1.5873 -1.2149  1.4313
31794SOL     OW 2431  10.360   3.076   0.926 -0.5405 -0.2064  0.3487
31794SOL    HW1 2432  10.286   3.043   0.875  0.4215  0.0836 -1.3077
31794SOL    HW2 2433  10.437   3.054   0.873  0.6545 -1.2316  2.4028
31795SOL     OW 2434   7.887  10.146   3.369  0.5875  0.0637  0.5275
31795SOL    HW1 2435   7.829  10.208   3.323 -0.9298 -0.7697  1.2301
31795SOL    HW2 2436   7.930  10.097   3.299 -0.6517 -0.2631 -0.0441
31796SOL     OW 2437   9.715   1.231   1.135 -0.0062 -0.5044  0.0348
31796SOL    HW1 2438   9.730   1.324   1.122 -0.3915 -0.2102  1.5049
31796SOL    HW2 2439   9.783   1.188   1.084  2.0529  0.6394  1.6722
31797SOL     OW 2440   9.956   0.339  12.077 -0.3398 -0.1183  0.1610
31797SOL    HW1 2441   9.913   0.413  12.119  0.1653  0.0467  0.3925
31797SOL    HW2 2442   9.933   0.347  11.984 -2.1021 -0.9131  0.4831
31798SOL     OW 2443  10.669   5.721   2.648 -0.4507  0.0615  0.2929
31798SOL    HW1 2444  10.611   5.796   2.660 -0.7250 -0.0838 -0.1286
31798SOL    HW2 2445  10.684   5.688   2.737 -0.7491  0.2965  0.4297
31799SOL     OW 2446   3.175   9.099   4.335  0.0166  0.6016 -0.3277
31799SOL    HW1 2447   3.265   9.126   4.352  0.3338 -0.8417  0.4265
31799SOL    HW2 2448   3.174   9.005   4.352 -2.2442  0.9756  2.3216
31800SOL     OW 2449   6.795   2.563   7.605 -0.5172  0.1673  0.4655
31800SOL    HW1 2450   6.726   2.621   7.575 -0.7119  0.4605  1.4271
31800SOL    HW2 2451   6.779   2.480   7.559 -0.0273  0.9535 -1.1860
31801SOL     OW 2452  11.238   0.252   1.914  0.1810 -0.3351 -0.2311
31801SOL    HW1 2453  11.204   0.303   1.987  0.1432  0.2482 -0.6486
31801SOL    HW2 2454  11.269   0.317   1.852 -0.8946 -0.7779 -1.2761
31802SOL     OW 2455  11.228   7.175   7.831  0.2421  0.6665  0.3024
31802SOL    HW1 2456  11.310   7.209   7.796  1.1420 -1.3033  0.3419
31802SOL    HW2 2457  11.254   7.115   7.901 -1.1574 -0.5721 -0.1711
31803SOL     OW 2458   3.652   8.189  12.109 -0.0136 -0.5171  0.0956
31803SOL    HW1 2459   3.690   8.162  12.192 -0.1334 -1.4081 -0.1305
31803SOL    HW2 2460   3.642   8.284  12.117 -0.1565 -0.6084  1.1512
31804SOL     OW 2461   9.982   5.950   7.617  0.5940 -0.0552 -0.2333
31804SOL    HW1 2462   9.932   6.002   7.554  1.7973 -0.3603 -1.5173
31804SOL    HW2 2463   9.919   5.925   7.684 -0.7118  0.4542 -1.2317
31805SOL     OW 2464   2.153   1.791   7.493  0.0643  0.3239  0.0147
31805SOL    HW1 2465   2.136   1.749   7.409  3.6458 -1.0858 -0.1748
31805SOL    HW2 2466   2.212   1.864   7.472  0.1914  0.5761  1.1855
31806SOL     OW 2467   8.927   9.198   1.121  0.2836 -0.2713 -0.0840
31806SOL    HW1 2468   8.916   9.186   1.215 -1.9838 -0.4020 -0.2990
31806SOL    HW2 2469   8.933   9.109   1.086 -0.7199 -0.3025 -0.2081
31807SOL     OW 2470   0.898   9.353   0.826 -0.1966 -0.0486  0.5048
31807SOL    HW1 2471   0.969   9.414   0.847 -0.9796  1.1039 -0.1380
31807SOL    HW2 2472   0.819   9.395   0.858 -0.7864 -0.5745 -0.2272
31808SOL     OW 2473  10.668   3.074   1.029 -0.1627 -0.7042  0.0929
31808SOL    HW1 2474  10.710   3.097   0.946  0.3667  1.5031  0.9030
31808SOL    HW2 2475  10.599   3.139   1.039 -0.0424 -0.7697  1.5012
31809SOL     OW 2476   0.369  12.344   5.275 -0.4083  0.0838  0.1286
31809SOL    HW1 2477   0.304  12.390   5.221  0.4443  2.3696  0.9420
31809SOL    HW2 2478   0.322  12.322   5.355 -0.8897 -0.7631 -0.3643
31810SOL     OW 2479   5.378   3.355   6.455 -0.4992  0.0567  0.8344
31810SOL    HW1 2480   5.392   3.269   6.494  0.1004  0.7351  2.2016
31810SOL    HW2 2481   5.436   3.357   6.380  0.9323 -0.0531  1.9013
31811SOL     OW 2482  11.176   2.655   6.942 -0.5199 -0.0878 -0.1126
31811SOL    HW1 2483  11.206   2.566   6.959 -0.0957  0.2543  1.0211
31811SOL    HW2 2484  11.233   2.710   6.995 -0.2167  0.9433 -1.4452
31812SOL     OW 2485  11.332   9.037  11.184  0.2415  0.1352 -0.5360
31812SOL    HW1 2486  11.275   9.112  11.168  1.1979  0.9307 -0.2571
31812SOL    HW2 2487  11.349   9.039  11.278  0.4611 -0.3034 -0.5635
31813SOL     OW 2488   1.266   8.446   0.745  0.1800  0.1941 -0.1680
31813SOL    HW1 2489   1.312   8.490   0.817 -0.7028  0.3167  0.3355
31813SOL    HW2 2490   1.258   8.513   0.677 -0.9591  0.7623  0.5080
31814SOL     OW 2491   0.440   3.210   6.943  0.5495 -0.3936  0.3697
31814SOL    HW1 2492   0.429   3.146   7.013 -0.7718  1.3359  1.8440
31814SOL    HW2 2493   0.529   3.245   6.957  0.4099 -0.2746  1.0060
31815SOL     OW 2494   8.013   8.758  11.590  0.0268  0.0094  0.5431
31815SOL    HW1 2495   8.039   8.743  11.681  1.6274 -0.3921  0.0389
31815SOL    HW2 2496   8.059   8.838  11.565  1.1714 -0.9305 -0.4852
31816SOL     OW 2497  12.283   3.483   5.716  0.2380 -0.3021  0.4424
31816SOL    HW1 2498  12.229   3.535   5.657 -1.2618 -0.7647  1.3680
31816SOL    HW2 2499  12.373   3.497   5.685 -0.2573  1.6574 -0.2225
31817SOL     OW 2500   8.693   1.313   2.475  0.1529 -0.7569 -0.2509
31817SOL    HW1 2501   8.700   1.234   2.528 -2.0532 -3.1197 -3.1248
31817SOL    HW2 2502   8.607   1.349   2.495  0.7712  0.4564  0.3551
31818SOL     OW 2503  12.180  10.976   3.922  0.1687  0.2141 -0.2536
31818SOL    HW1 2504  12.125  11.052   3.941  1.2292  0.9490  0.0025
31818SOL    HW2 2505  12.137  10.933   3.849 -0.8204  0.6794  0.0368
31819SOL     OW 2506   4.734   3.195   8.529  0.2846 -0.1084  0.1980
31819SOL    HW1 2507   4.677   3.169   8.457  0.0806  0.7812  0.0245
31819SOL    HW2 2508   4.753   3.114   8.576 -1.3181 -0.3808  0.4088
31820SOL     OW 2509   9.658   3.268   8.296 -0.7597 -1.0124 -0.2088
31820SOL    HW1 2510   9.693   3.270   8.207  0.4735 -1.0014  0.2482
31820SOL    HW2 2511   9.594   3.339   8.298 -0.0212 -0.3044 -0.7937
31821SOL     OW 2512   6.802   6.436   1.589 -0.7495 -0.4035  0.0632
31821SOL    HW1 2513   6.799   6.529   1.613 -3.1553 -0.3687 -0.0938
31821SOL    HW2 2514   6.878   6.428   1.531  0.7930  0.9961  1.7754
31822SOL     OW 2515   4.851   7.703   6.454 -0.4304  0.1767  0.1636
31822SOL    HW1 2516   4.757   7.690   6.442 -0.5156  0.2240  0.7789
31822SOL    HW2 2517   4.876   7.756   6.378 -0.7683 -0.3926 -0.3618
31823SOL     OW 2518   7.394   9.761   7.910  0.2980 -0.0719 -0.7352
31823SOL    HW1 2519   7.304   9.786   7.889  0.6362  1.0593 -0.9387
31823SOL    HW2 2520   7.422   9.826   7.974  0.3088 -1.6355  0.9106
31824SOL     OW 2521  10.553   5.022   3.640 -0.1433  0.2240 -0.2396
31824SOL    HW1 2522  10.592   4.978   3.565  0.0036 -0.3528  0.1671
31824SOL    HW2 2523  10.459   5.007   3.631 -0.0103 -1.5032  0.6780
31825SOL     OW 2524   2.409   8.025  10.043 -0.3727 -0.4327 -0.2091
31825SOL    HW1 2525   2.496   8.018  10.081  0.0950  0.4488 -1.0712
31825SOL    HW2 2526   2.350   8.029  10.118  0.3854 -0.4326  0.3956
31826SOL     OW 2527   2.218   2.826   8.317  0.1776 -0.7566 -0.0100
31826SOL    HW1 2528   2.174   2.840   8.234 -0.0128  1.8541  0.4462
31826SOL    HW2 2529   2.158   2.771   8.367 -0.1641 -1.5024 -1.2003
31827SOL     OW 2530   1.800   6.260   1.815  0.4240  0.2599  0.4509
31827SOL    HW1 2531   1.831   6.321   1.881 -0.7163  2.5209 -0.9856
31827SOL    HW2 2532   1.788   6.313   1.736 -0.5771 -1.8294 -0.9144
31828SOL     OW 2533   8.376   2.977  11.844 -0.5131  0.0183  0.3627
31828SOL    HW1 2534   8.440   2.930  11.790  0.3776  1.1977  0.3706
31828SOL    HW2 2535   8.328   3.032  11.782 -2.2225 -1.5591  0.2021
31829SOL     OW 2536   1.532   4.550  11.772 -0.2511 -0.6073 -0.4485
31829SOL    HW1 2537   1.573   4.478  11.820  0.7472 -0.1615 -0.5956
31829SOL    HW2 2538   1.551   4.627  11.825 -0.0482 -0.2562 -1.0216
31830SOL     OW 2539   1.520   1.096   5.015  0.3866  0.2127 -0.1411
31830SOL    HW1 2540   1.485   1.032   5.077 -0.1005  1.3008  0.7680
31830SOL    HW2 2541   1.451   1.162   5.009  1.1015  0.9319 -0.5965
31831SOL     OW 2542   8.664  10.922  11.831  0.4947  0.4115 -0.2005
31831SOL    HW1 2543   8.740  10.917  11.773 -0.7551  0.3846 -1.9116
31831SOL    HW2 2544   8.681  10.998  11.887  1.5699  0.6670 -0.8511
31832SOL     OW 2545  11.482   9.417   2.819 -0.0948 -0.1317 -0.2037
31832SOL    HW1 2546  11.567   9.404   2.860 -1.3595 -2.5265  1.9459
31832SOL    HW2 2547  11.473   9.342   2.759 -0.2710  0.7047 -1.2469
31833SOL     OW 2548   2.244   8.948   6.345 -0.0392 -0.3357 -0.3351
31833SOL    HW1 2549   2.250   8.884   6.416 -1.1352  0.5338  0.5812
31833SOL    HW2 2550   2.153   8.944   6.316  0.3022 -0.3957 -1.4302
31834SOL     OW 2551   5.834   2.110   4.789 -0.3545 -0.1147 -0.1050
31834SOL    HW1 2552   5.776   2.170   4.835 -0.4927 -1.1866  1.1779
31834SOL    HW2 2553   5.776   2.045   4.750 -0.0786 -1.1782  1.1595
31835SOL     OW 2554   6.912  10.044   0.063  0.4398 -0.5455  0.1644
31835SOL    HW1 2555   6.905  10.121   0.007  0.7232 -0.4127  0.3100
31835SOL    HW2 2556   6.967  10.072   0.136 -0.8091 -0.3903  1.0898
31836SOL     OW 2557  12.192   2.958   5.982  0.1598  0.0281 -0.1184
31836SOL    HW1 2558  12.127   2.903   6.026  2.0040  0.3775  3.3984
31836SOL    HW2 2559  12.157   3.047   5.989 -1.5644 -0.1935 -3.4873
31837SOL     OW 2560   9.903   3.997   4.789  0.6202 -0.1204 -0.2171
31837SOL    HW1 2561   9.911   4.049   4.709  0.8571 -1.6469 -1.2269
31837SOL    HW2 2562   9.865   3.914   4.761 -4.3705  1.0490  2.0373
31838SOL     OW 2563   2.007   0.097  11.403 -0.5372  0.6045 -0.2591
31838SOL    HW1 2564   1.923   0.058  11.380 -0.0225  0.0863 -1.3521
31838SOL    HW2 2565   2.003   0.185  11.365  0.9590 -0.7879 -4.2161
31839SOL     OW 2566   7.969  10.767   9.123  0.5160 -0.7285 -0.1442
31839SOL    HW1 2567   7.946  10.680   9.155  0.6335 -0.2277  1.4084
31839SOL    HW2 2568   7.903  10.825   9.161  0.5730 -0.0960 -0.9724
31840SOL     OW 2569   0.782   9.849   9.706 -0.3072 -0.1509  0.3669
31840SOL    HW1 2570   0.838   9.878   9.778  0.3358  1.4609 -0.7221
31840SOL    HW2 2571   0.798   9.913   9.636 -1.3831 -1.2999 -0.9841
31841SOL     OW 2572   1.667   3.078   2.460  0.3867  0.3959  0.1598
31841SOL    HW1 2573   1.610   3.063   2.536  0.9144 -0.8130  0.3399
31841SOL    HW2 2574   1.628   3.154   2.415 -0.5471  0.4585  1.0417
31842SOL     OW 2575   9.330   4.178   0.444 -0.0597 -0.1977 -0.2024
31842SOL    HW1 2576   9.333   4.099   0.391  1.1238  0.2912 -0.9088
31842SOL    HW2 2577   9.257   4.229   0.408 -1.0195 -1.0533  0.4477
31843SOL     OW 2578   9.483   6.878  11.974 -0.0119 -0.8234 -0.4704
31843SOL    HW1 2579   9.514   6.826  12.047 -0.8648 -1.4966 -0.5716
31843SOL    HW2 2580   9.562   6.903  11.926  0.5045 -0.8203  0.3797
31844SOL     OW 2581   0.073   7.863  10.870 -0.6523  0.0897 -0.4035
31844SOL    HW1 2582   0.069   7.767  10.875 -1.9477  0.1066 -0.7718
31844SOL    HW2 2583   0.150   7.881  10.816  0.4585 -0.6764  0.8351
31845SOL     OW 2584   7.603  11.573   4.523  0.3500 -0.0627 -0.1556
31845SOL    HW1 2585   7.698  11.588   4.517  0.2203  0.9706  0.2019
31845SOL    HW2 2586   7.594  11.478   4.516  1.2104 -0.0315 -2.7084
31846SOL     OW 2587   0.579   6.811   1.651  0.5489 -0.3120 -0.2437
31846SOL    HW1 2588   0.655   6.787   1.704  1.3675  0.3605 -1.0870
31846SOL    HW2 2589   0.615   6.832   1.565 -0.8372 -2.3065 -1.4096
31847SOL     OW 2590   8.633   1.298   4.999  0.0580  0.5520 -0.0577
31847SOL    HW1 2591   8.542   1.320   4.979  0.5434  1.5668 -1.2663
31847SOL    HW2 2592   8.627   1.235   5.071 -1.6069  0.3342 -0.3476
31848SOL     OW 2593   8.142   0.693   6.043 -0.6283 -0.1407  0.8162
31848SOL    HW1 2594   8.190   0.652   6.114  3.1666  1.6545 -0.4346
31848SOL    HW2 2595   8.139   0.786   6.067  0.2990  0.4221 -1.0409
31849SOL     OW 2596   3.826   4.399   2.859  0.2565  0.3367  0.2854
31849SOL    HW1 2597   3.911   4.409   2.901  0.7320  1.4370 -0.8555
31849SOL    HW2 2598   3.762   4.414   2.929  1.0123  1.7206  0.7140
31850SOL     OW 2599  10.689  10.536   0.628 -0.0357 -0.6071 -0.5402
31850SOL    HW1 2600  10.652  10.481   0.697 -1.2844 -0.2324 -0.8713
31850SOL    HW2 2601  10.746  10.597   0.673  0.7436 -1.6460 -0.0773
31851SOL     OW 2602   4.908  12.105   3.393  0.2365  0.3646 -0.1447
31851SOL    HW1 2603   4.895  12.041   3.464  2.0426  0.8577  0.6784
31851SOL    HW2 2604   4.996  12.087   3.361 -0.0419  1.0777 -1.3442
31852SOL     OW 2605  11.020  11.187  10.297  0.2927 -0.0180 -0.3612
31852SOL    HW1 2606  10.954  11.168  10.364  0.0947 -1.5631 -0.9620
31852SOL    HW2 2607  11.017  11.282  10.288 -0.6178  0.1041  0.8614
31853SOL     OW 2608   4.005   1.135   4.312  0.1709 -0.6522 -0.7334
31853SOL    HW1 2609   4.057   1.167   4.386  0.4394 -3.0472  0.2113
31853SOL    HW2 2610   3.919   1.174   4.325  0.4371 -0.4088  0.4220
31854SOL     OW 2611  12.386   6.719   6.683  0.5940  0.3636  0.1824
31854SOL    HW1 2612  12.480   6.724   6.698  0.5117  0.9554  0.5315
31854SOL    HW2 2613  12.361   6.632   6.715  0.9218  0.4418  0.6572
31855SOL     OW 2614   5.968   7.045   2.977 -0.1989  0.2274  0.3489
31855SOL    HW1 2615   6.034   7.050   2.907 -0.9969  2.0006 -0.3447
31855SOL    HW2 2616   5.910   6.974   2.951  0.1679  0.1214 -0.2023
31856SOL     OW 2617  10.138   2.175   3.412 -0.0479  0.5210 -0.4053
31856SOL    HW1 2618  10.171   2.135   3.331  1.9089 -0.3445  0.7675
31856SOL    HW2 2619  10.216   2.196   3.463 -1.2458  0.3625  1.6019
31857SOL     OW 2620   9.510   7.502  10.398 -0.2568  0.1810  0.1860
31857SOL    HW1 2621   9.509   7.567  10.327 -0.0265 -0.5146 -0.4596
31857SOL    HW2 2622   9.419   7.497  10.427 -0.4125  0.2098 -0.2949
31858SOL     OW 2623   7.762   2.449   0.370 -0.0410  0.4636 -0.3108
31858SOL    HW1 2624   7.690   2.472   0.429  0.1010  1.1717 -0.4030
31858SOL    HW2 2625   7.840   2.488   0.411 -0.0263  1.4554 -1.2440
31859SOL     OW 2626   9.332   0.159  11.429  0.0726 -0.1827 -0.4972
31859SOL    HW1 2627   9.370   0.235  11.384  0.2967  0.1646  0.2510
31859SOL    HW2 2628   9.290   0.108  11.360 -1.1297  1.2439 -0.8525
31860SOL     OW 2629   9.096   0.381   2.985  0.1325  0.6177  0.0454
31860SOL    HW1 2630   9.109   0.473   3.008 -0.5940  0.2854  1.9452
31860SOL    HW2 2631   9.095   0.334   3.068  1.9203 -1.3546 -0.9320
31861SOL     OW 2632   0.977   4.296   6.049 -0.1824 -0.0406 -0.1115
31861SOL    HW1 2633   0.939   4.310   5.962  2.0847  0.1040 -1.1468
31861SOL    HW2 2634   0.932   4.359   6.105 -0.1481  1.4197 -1.6600
31862SOL     OW 2635   4.545   4.722   2.042 -0.8631 -0.2954  0.0040
31862SOL    HW1 2636   4.577   4.632   2.030 -1.5732 -0.4276 -1.0073
31862SOL    HW2 2637   4.514   4.724   2.132  2.3270 -0.0334  1.2015
31863SOL     OW 2638  12.048   8.440  11.699  0.0563 -0.0089  0.1206
31863SOL    HW1 2639  11.987   8.397  11.758  0.2072 -0.3459  0.0338
31863SOL    HW2 2640  11.996   8.462  11.622 -0.5318  1.8700  1.0068
31864SOL     OW 2641  12.507   5.382   5.364  0.8321 -0.4101 -0.0132
31864SOL    HW1 2642  12.539   5.295   5.387  2.9431  0.2816 -0.1042
31864SOL    HW2 2643  12.560   5.408   5.289  1.9726  1.8799  1.4690
31865SOL     OW 2644   3.423   7.972   2.936  0.3829  0.2225 -0.0827
31865SOL    HW1 2645   3.463   7.975   3.023  1.9993 -1.1943 -0.7167
31865SOL    HW2 2646   3.348   7.914   2.945  1.6962 -1.5655  0.0136
31866SOL     OW 2647   9.803  10.532   1.336 -0.5197 -0.1311 -0.4519
31866SOL    HW1 2648   9.898  10.531   1.319 -0.3899  0.1703  0.2253
31866SOL    HW2 2649   9.768  10.466   1.276 -0.1098  0.9974 -2.0001
31867SOL     OW 2650  12.026   7.258   9.226 -0.7409 -0.1508 -0.1746
31867SOL    HW1 2651  12.084   7.268   9.151  0.7828  2.1162  1.1855
31867SOL    HW2 2652  11.946   7.304   9.200 -0.8573 -0.7687 -0.9689
31868SOL     OW 2653   6.688   0.035   5.583  0.6216 -0.4245  0.1838
31868SOL    HW1 2654   6.655   0.024   5.494  1.9937 -2.3760 -0.1491
31868SOL    HW2 2655   6.775   0.074   5.571 -0.4971  2.5732  0.9277
31869SOL     OW 2656   7.637   2.697   3.387 -0.0566 -0.3085  0.2745
31869SOL    HW1 2657   7.634   2.775   3.332 -2.1976  0.0573  0.8079
31869SOL    HW2 2658   7.560   2.647   3.361 -0.4055 -0.7403  2.0254
31870SOL     OW 2659   5.358   5.097   1.907  0.3534 -0.2069  0.0164
31870SOL    HW1 2660   5.307   5.022   1.878  0.9255 -0.2319 -0.9735
31870SOL    HW2 2661   5.379   5.078   1.999  0.5294 -1.2782 -0.2316
31871SOL     OW 2662   8.855   9.552   6.274  0.2233 -0.0235  0.4157
31871SOL    HW1 2663   8.771   9.547   6.229  0.1786  2.0508  0.1530
31871SOL    HW2 2664   8.837   9.520   6.362 -1.1631  1.3983  0.7036
31872SOL     OW 2665   2.975   2.897   1.077 -0.0085  0.3648 -0.0646
31872SOL    HW1 2666   2.948   2.904   0.985  0.1327 -0.9125 -0.2153
31872SOL    HW2 2667   3.071   2.904   1.073 -0.0572  1.3357  0.1098
31873SOL     OW 2668   5.707   0.234  12.486 -0.0603  0.0319  0.2142
31873SOL    HW1 2669   5.621   0.194  12.477 -0.3239  0.8492 -1.1690
31873SOL    HW2 2670   5.755   0.208  12.408  1.0043 -0.4919  1.0051
31874SOL     OW 2671   9.447   8.244  11.712  0.2401  0.0575 -0.4127
31874SOL    HW1 2672   9.458   8.156  11.676  0.7347  1.0182 -2.8553
31874SOL    HW2 2673   9.392   8.233  11.789 -2.2689 -2.0746 -2.3548
31875SOL     OW 2674   6.824   8.792   4.652 -0.5462 -0.6170  0.1902
31875SOL    HW1 2675   6.742   8.832   4.621 -1.7820 -1.7601  1.7736
31875SOL    HW2 2676   6.822   8.703   4.617 -0.0225 -0.6869  0.3302
31876SOL     OW 2677   5.576   3.156   2.219 -0.7143  0.0007 -0.1335
31876SOL    HW1 2678   5.557   3.177   2.311  0.4515  0.2641  0.0724
31876SOL    HW2 2679   5.625   3.232   2.188  0.0587 -0.6722 -0.5795
31877SOL     OW 2680   5.243   8.742  12.485 -0.0284  1.1777 -0.8975
31877SOL    HW1 2681   5.226   8.649  12.504 -0.0597  1.5325  0.8947
31877SOL    HW2 2682   5.266   8.780  12.569 -0.0852  2.8362 -1.6082
31878SOL     OW 2683   6.748   0.618   8.426  0.1675  0.3717 -0.3591
31878SOL    HW1 2684   6.759   0.558   8.352  0.8438 -0.7258  0.5974
31878SOL    HW2 2685   6.788   0.572   8.500 -1.2464  1.0576  0.8885
31879SOL     OW 2686   0.700   8.383   5.912  0.5212 -0.5710  0.5869
31879SOL    HW1 2687   0.721   8.470   5.878 -1.1052 -0.0445  0.8477
31879SOL    HW2 2688   0.712   8.325   5.837  3.0697 -0.4003  0.7746
31880SOL     OW 2689   1.423   4.792   2.567  0.6111  0.3868  0.4807
31880SOL    HW1 2690   1.445   4.885   2.565  2.5502 -0.0260 -0.3088
31880SOL    HW2 2691   1.375   4.777   2.486  0.1986  0.7103  0.6626
31881SOL     OW 2692  12.531   2.322   0.050  0.5062  0.5248 -0.6388
31881SOL    HW1 2693  12.466   2.297  -0.016 -0.0027  2.1486 -0.7865
31881SOL    HW2 2694  12.584   2.243   0.061 -2.1667 -1.2663  0.3693
31882SOL     OW 2695  11.822   8.358   9.331  0.1742  0.2232 -0.0395
31882SOL    HW1 2696  11.757   8.290   9.348  1.5082 -0.8705  0.9174
31882SOL    HW2 2697  11.882   8.354   9.407  1.1007  1.4825 -0.6639
31883SOL     OW 2698  11.046   8.013   7.646 -0.2206 -0.7242  0.9072
31883SOL    HW1 2699  10.996   7.970   7.577 -1.3540 -1.1345  1.9528
31883SOL    HW2 2700  11.040   8.106   7.626 -0.3177 -0.8551  0.3163
31884SOL     OW 2701   0.128   2.872   4.960  0.0696  0.5148  0.4642
31884SOL    HW1 2702   0.161   2.801   5.015  1.3298  1.2446  0.6861
31884SOL    HW2 2703   0.037   2.848   4.942  0.0181 -0.3942  1.7819
31885SOL     OW 2704   3.334   4.910   0.236  0.5639 -0.8281  0.5293
31885SOL    HW1 2705   3.415   4.880   0.194 -0.1973  0.0083 -1.6787
31885SOL    HW2 2706   3.264   4.884   0.175 -0.6700 -0.0373  1.5573
31886SOL     OW 2707   8.382  11.098   5.084  0.0986 -0.4183 -0.5024
31886SOL    HW1 2708   8.305  11.068   5.132  0.1531 -0.6226 -0.5393
31886SOL    HW2 2709   8.447  11.118   5.152 -0.0895  0.0548 -0.4569
31887SOL     OW 2710   0.999   8.878   8.456  0.0308  0.2903  0.6522
31887SOL    HW1 2711   1.068   8.878   8.522  0.3824  0.0900  0.2896
31887SOL    HW2 2712   0.948   8.957   8.474 -1.3258 -0.9743  2.6483
31888SOL     OW 2713   1.027   5.205   5.533 -0.6928  0.1920 -0.1499
31888SOL    HW1 2714   1.074   5.194   5.450 -0.9453  1.3795 -0.4675
31888SOL    HW2 2715   1.082   5.161   5.598 -0.7328 -1.1882 -1.0068
31889SOL     OW 2716   2.377   8.531   7.341  0.3978 -0.8296  0.5570
31889SOL    HW1 2717   2.470   8.512   7.350  0.3380 -1.6354 -0.3995
31889SOL    HW2 2718   2.353   8.496   7.255 -1.0356 -1.6507  1.2641
31890SOL     OW 2719   0.237   4.304   9.592 -0.6861 -0.1847 -0.2600
31890SOL    HW1 2720   0.312   4.262   9.633  0.5906  0.8742 -1.4305
31890SOL    HW2 2721   0.218   4.251   9.514 -0.9341 -0.2414 -0.1636
31891SOL     OW 2722   4.192   5.209   3.853 -0.0800  0.1951 -0.4600
31891SOL    HW1 2723   4.265   5.172   3.903  0.6947  0.1643 -1.5744
31891SOL    HW2 2724   4.145   5.263   3.917  0.1620 -0.7967  0.5965
31892SOL     OW 2725   1.577   4.608  11.506 -0.2953  0.0002  0.3110
31892SOL    HW1 2726   1.579   4.567  11.592  1.2573 -0.5688  0.0433
31892SOL    HW2 2727   1.668   4.632  11.488 -0.3437 -1.0274 -1.6748
31893SOL     OW 2728   8.006   7.133   3.299  0.0997  0.4722 -0.1314
31893SOL    HW1 2729   8.098   7.109   3.293 -0.2428 -0.9286 -0.0132
31893SOL    HW2 2730   7.975   7.093   3.380 -0.4547  1.5305  0.2086
31894SOL     OW 2731  10.240   6.380   9.991  0.1773 -0.2365  0.1335
31894SOL    HW1 2732  10.214   6.468   9.963  1.6129 -0.3224 -1.6762
31894SOL    HW2 2733  10.241   6.385  10.087 -0.7017  1.4226  0.1020
31895SOL     OW 2734   5.899   1.897  10.354  0.0655  0.6955  0.1540
31895SOL    HW1 2735   5.951   1.976  10.372  1.8945 -0.7396  1.5486
31895SOL    HW2 2736   5.935   1.862  10.273 -0.4143  1.0163 -0.2017
31896SOL     OW 2737  12.436   6.724   0.039  0.1982 -0.0177  0.4865
31896SOL    HW1 2738  12.439   6.712  -0.056  0.3636  0.6625  0.3958
31896SOL    HW2 2739  12.377   6.799   0.051  0.7602  0.3697  0.8699
31897SOL     OW 2740   7.107   0.767   6.789  0.6263  0.2919 -0.1816
31897SOL    HW1 2741   7.067   0.761   6.702  0.0350  1.7784 -0.0425
31897SOL    HW2 2742   7.055   0.708   6.844 -1.3268  1.9902 -0.0620
31898SOL     OW 2743   0.146   5.564   9.473 -0.1922  0.4904 -0.2373
31898SOL    HW1 2744   0.189   5.503   9.533 -1.5400 -1.4384 -1.1319
31898SOL    HW2 2745   0.189   5.648   9.490  2.0620 -0.7548  0.7453
31899SOL     OW 2746   3.549   7.978   9.346  0.0965  0.0482  0.0442
31899SOL    HW1 2747   3.512   7.913   9.406 -1.6522 -0.6646 -1.7287
31899SOL    HW2 2748   3.476   8.035   9.323  1.1911  1.5684  0.1229
31900SOL     OW 2749   5.978   6.747   7.825 -0.0633  0.0210 -0.0993
31900SOL    HW1 2750   6.000   6.668   7.874 -0.0304 -0.4847 -0.9155
31900SOL    HW2 2751   5.957   6.812   7.892  0.5121 -0.4993  0.5910
31901SOL     OW 2752   8.272   5.075   1.916 -0.1910  0.4129  0.7838
31901SOL    HW1 2753   8.274   5.148   1.978  0.1963  0.4393  0.7430
31901SOL    HW2 2754   8.341   5.015   1.947 -0.1904  0.2905  0.5470
31902SOL     OW 2755   1.173   8.391  12.063 -0.9205 -0.4230  0.5216
31902SOL    HW1 2756   1.188   8.404  11.970 -2.0191 -1.3508  0.2087
31902SOL    HW2 2757   1.157   8.298  12.073  2.2791 -0.9519  2.0992
31903SOL     OW 2758   3.388  12.121   3.923  0.3278  0.2863 -0.2309
31903SOL    HW1 2759   3.453  12.191   3.910  0.5805 -0.1410 -1.4052
31903SOL    HW2 2760   3.440  12.044   3.944  0.3245 -0.3027 -2.1908
31904SOL     OW 2761   2.146   1.340   1.522  0.2352  0.0208 -0.0279
31904SOL    HW1 2762   2.169   1.411   1.462  1.8469  0.1111  0.6743
31904SOL    HW2 2763   2.082   1.288   1.472 -0.6305  1.6759 -0.7222
31905SOL     OW 2764   9.343   0.569  12.392  0.0508  0.1252 -0.1643
31905SOL    HW1 2765   9.365   0.514  12.317 -0.0809  1.1092 -0.9414
31905SOL    HW2 2766   9.425   0.614  12.414  0.1931 -0.4659  0.5543
31906SOL     OW 2767   9.412   3.342   2.149  0.1515  1.0230  0.0261
31906SOL    HW1 2768   9.469   3.283   2.099  0.3475  2.0348 -0.9874
31906SOL    HW2 2769   9.354   3.284   2.198 -0.5266 -0.0295 -1.9319
31907SOL     OW 2770   0.632   7.315   8.016  0.4264  0.1415 -0.2515
31907SOL    HW1 2771   0.663   7.234   8.057 -0.1479 -0.4047 -0.8600
31907SOL    HW2 2772   0.578   7.285   7.942 -1.3510  1.0268  0.6215
31908SOL     OW 2773   1.785   9.807  12.373 -0.0681  0.3062 -0.4420
31908SOL    HW1 2774   1.858   9.756  12.338 -0.3623  0.1973 -0.9178
31908SOL    HW2 2775   1.824   9.866  12.437 -0.1841 -3.5212  3.6446
31909SOL     OW 2776  12.439   2.047   2.055 -0.3510  0.2161  0.3825
31909SOL    HW1 2777  12.502   2.060   2.125  0.0249 -2.2327  0.5933
31909SOL    HW2 2778  12.382   1.977   2.086 -1.2546  0.2612 -1.0555
31910SOL     OW 2779   6.425   5.640  11.170  0.2864  0.2179  0.0274
31910SOL    HW1 2780   6.389   5.571  11.114  1.8858 -3.0681  2.6854
31910SOL    HW2 2781   6.472   5.698  11.109  1.9066 -3.0905 -2.1916
31911SOL     OW 2782   6.906   8.285   7.284  0.2854  0.1599  0.0919
31911SOL    HW1 2783   6.962   8.362   7.290  1.1540 -0.3553 -0.8894
31911SOL    HW2 2784   6.961   8.220   7.239 -0.2667 -1.1718  1.2868
31912SOL     OW 2785  10.268  12.372   3.517 -0.0152 -0.4823  0.1227
31912SOL    HW1 2786  10.279  12.291   3.466 -0.0901  1.1389 -2.6663
31912SOL    HW2 2787  10.178  12.368   3.548  0.0807 -1.6119  0.3246
31913SOL     OW 2788   4.750   7.914  12.123  0.1776 -0.4500  0.1519
31913SOL    HW1 2789   4.791   7.854  12.185  2.6598 -0.3564 -1.2467
31913SOL    HW2 2790   4.790   7.999  12.143 -0.9650  0.1083  0.1067
31914SOL     OW 2791  12.572   7.230   7.848 -0.3140 -0.6801  0.6055
31914SOL    HW1 2792  12.595   7.195   7.762 -1.1187  0.0539  0.0706
31914SOL    HW2 2793  12.490   7.277   7.834  0.3359  0.7905  1.4348
31915SOL     OW 2794   1.300   9.444   6.553  0.8759 -0.0169  0.3077
31915SOL    HW1 2795   1.212   9.479   6.566 -0.1634 -1.9090 -1.0624
31915SOL    HW2 2796   1.327   9.412   6.639 -0.1554 -0.1915  0.5751
31916SOL     OW 2797   9.334   8.080   0.658  0.0822 -0.2178  0.0357
31916SOL    HW1 2798   9.426   8.053   0.659 -0.2414 -1.3751  0.9127
31916SOL    HW2 2799   9.336   8.174   0.676  1.1886  0.1945 -1.9807
31917SOL     OW 2800   5.354   3.954   1.936 -0.7267 -0.2370  0.6629
31917SOL    HW1 2801   5.443   3.951   1.972  0.4931  0.7388 -1.9922
31917SOL    HW2 2802   5.342   3.868   1.895 -1.2790 -0.5861  1.5306
31918SOL     OW 2803   7.471  12.133   0.075 -0.4628  0.4113  0.1619
31918SOL    HW1 2804   7.426  12.078   0.139  0.9482  0.9465  1.6926
31918SOL    HW2 2805   7.452  12.092  -0.009 -0.7931 -1.4741  1.0980
31919SOL     OW 2806   8.448  10.129   1.157  0.1269 -0.6683  0.3180
31919SOL    HW1 2807   8.425  10.177   1.237  1.7597  0.9239 -0.1091
31919SOL    HW2 2808   8.450  10.037   1.185  0.8184 -0.1505  2.1704
31920SOL     OW 2809   0.979   0.970   9.729 -0.3580 -0.1503  0.1982
31920SOL    HW1 2810   1.053   0.920   9.762  0.9513  2.7859  2.2049
31920SOL    HW2 2811   1.006   0.997   9.641  0.0104 -0.8811  0.0807
31921SOL     OW 2812   3.618   5.024  11.472  0.5676 -0.0562 -0.2703
31921SOL    HW1 2813   3.713   5.032  11.457  0.5867  1.0544  0.3105
31921SOL    HW2 2814   3.605   5.057  11.561 -0.3265 -0.5216 -0.2212
31922SOL     OW 2815   9.525   2.460   1.468 -0.1675  0.2252  0.2224
31922SOL    HW1 2816   9.558   2.471   1.379 -0.0550 -1.9277 -0.0606
31922SOL    HW2 2817   9.528   2.547   1.506 -0.6535  1.2814 -2.0242
31923SOL     OW 2818   3.936   9.570  12.220 -0.5675 -0.2488 -0.3109
31923SOL    HW1 2819   3.856   9.620  12.238 -0.6226 -0.3958 -0.1446
31923SOL    HW2 2820   3.916   9.481  12.250 -0.0770 -0.1191  0.4119
31924SOL     OW 2821   0.841   4.611  10.515  0.4918  0.3094 -0.4389
31924SOL    HW1 2822   0.900   4.667  10.463  0.8021  0.2897 -0.1122
31924SOL    HW2 2823   0.897   4.574  10.583  0.4444 -0.9386 -1.0534
31925SOL     OW 2824   3.199   3.007   5.812 -0.8272  0.7049 -0.4963
31925SOL    HW1 2825   3.276   2.962   5.848 -2.1266 -0.7643  0.5541
31925SOL    HW2 2826   3.225   3.030   5.723  0.3630 -1.0017 -0.6471
31926SOL     OW 2827   1.500   3.288   0.587 -0.0927  0.4142 -0.2491
31926SOL    HW1 2828   1.536   3.294   0.499 -0.7574 -1.9679 -0.7518
31926SOL    HW2 2829   1.536   3.206   0.622  1.0807  1.8523  2.1699
31927SOL     OW 2830   1.344   2.633   3.115  0.6070 -0.2132 -0.1954
31927SOL    HW1 2831   1.426   2.609   3.158  1.1148  0.1650 -0.9367
31927SOL    HW2 2832   1.347   2.588   3.030 -0.1745 -0.5779 -0.0442
31928SOL     OW 2833   8.007   5.267   2.586 -0.3715  0.0359  0.4445
31928SOL    HW1 2834   8.096   5.263   2.622  0.2097  2.1708 -0.5970
31928SOL    HW2 2835   7.952   5.288   2.661 -0.0119 -1.1969  1.0833
31929SOL     OW 2836   5.372   2.375   5.209 -0.1477 -0.1047 -0.4157
31929SOL    HW1 2837   5.398   2.447   5.150 -0.3715 -0.2605 -0.7080
31929SOL    HW2 2838   5.311   2.415   5.270  0.5083  0.1846  0.0559
31930SOL     OW 2839  12.015   5.719   8.295 -0.3419  0.0707 -0.6240
31930SOL    HW1 2840  12.020   5.643   8.237 -1.3365 -0.7079  0.2902
31930SOL    HW2 2841  11.966   5.689   8.371  3.1813  0.1981  1.9944
31931SOL     OW 2842   1.121   8.634  10.503  0.2767  0.1863  0.9981
31931SOL    HW1 2843   1.174   8.647  10.581  1.9234 -1.4449  0.2350
31931SOL    HW2 2844   1.044   8.690  10.516  1.2670  1.1753  3.0182
31932SOL     OW 2845  11.638   3.998   5.298 -0.3641 -0.0577  0.1233
31932SOL    HW1 2846  11.571   3.956   5.243  0.4839 -0.0639 -0.9300
31932SOL    HW2 2847  11.676   3.926   5.349  1.1174 -0.6460 -1.7067
31933SOL     OW 2848   0.841   0.690   9.959  0.1425 -0.4545 -0.4678
31933SOL    HW1 2849   0.810   0.641  10.035  0.8121 -0.9414 -0.4975
31933SOL    HW2 2850   0.914   0.743   9.992 -1.5730  1.8284 -0.0604
31934SOL     OW 2851   2.530   4.185   2.307 -0.4891  0.4087  0.3026
31934SOL    HW1 2852   2.596   4.172   2.239 -1.8717 -2.1103 -0.6600
31934SOL    HW2 2853   2.451   4.212   2.260 -1.5438 -1.6243  0.7929
31935SOL     OW 2854   8.125   9.579   0.061 -0.1425 -0.2394 -0.2495
31935SOL    HW1 2855   8.066   9.537  -0.001  1.4394 -0.6227 -1.5747
31935SOL    HW2 2856   8.107   9.673   0.052 -1.8589 -0.4388  0.7997
31936SOL     OW 2857   5.374  10.493   4.498 -0.1101  0.3972 -0.2365
31936SOL    HW1 2858   5.398  10.586   4.492  0.0525  0.3708  0.0035
31936SOL    HW2 2859   5.316  10.478   4.423  0.7973  0.4120 -0.9484
31937SOL     OW 2860   9.595  11.225   0.234 -0.0459 -0.2341  0.7517
31937SOL    HW1 2861   9.512  11.180   0.246 -1.2686  1.7162  0.0418
31937SOL    HW2 2862   9.581  11.312   0.271  1.0963  0.6875 -0.8335
31938SOL     OW 2863  12.340   2.360   6.683  0.1687 -0.0981  0.4173
31938SOL    HW1 2864  12.343   2.414   6.762  0.0961 -1.5700  1.4734
31938SOL    HW2 2865  12.396   2.405   6.621  1.5437  0.2789  1.8630
31939SOL     OW 2866   9.953  11.533   0.127 -0.2090  0.3755  0.4766
31939SOL    HW1 2867   9.916  11.558   0.042  1.8716 -1.5189 -1.1326
31939SOL    HW2 2868  10.037  11.579   0.131 -0.1981  0.2892  1.4188
31940SOL     OW 2869   3.113   2.523   7.579  0.5868  0.0631 -0.0562
31940SOL    HW1 2870   3.135   2.564   7.663  1.1516  1.1905 -0.7346
31940SOL    HW2 2871   3.024   2.491   7.591  0.9202 -0.4537  1.2131
31941SOL     OW 2872   9.782  10.485   3.427 -0.0431 -0.0381 -0.5624
31941SOL    HW1 2873   9.870  10.457   3.451 -0.4879  0.1878  1.4591
31941SOL    HW2 2874   9.773  10.573   3.463 -1.1577 -0.1235 -0.5705
31942SOL     OW 2875   5.421   2.602  12.036 -0.0631  0.0022 -0.2714
31942SOL    HW1 2876   5.443   2.527  12.091 -0.6069 -0.4759 -0.6883
31942SOL    HW2 2877   5.492   2.605  11.971 -0.5153 -0.7430 -0.8252
31943SOL     OW 2878   1.472   3.085  12.265  0.0132  0.1075 -0.3405
31943SOL    HW1 2879   1.457   3.180  12.265 -0.5495  0.0598  1.2940
31943SOL    HW2 2880   1.565   3.076  12.243  0.8637  1.2783  2.2800
31944SOL     OW 2881   1.626  10.098   5.341  0.1703 -0.1428  0.2024
31944SOL    HW1 2882   1.557  10.099   5.275 -0.6537 -2.1374  0.9283
31944SOL    HW2 2883   1.660  10.187   5.343 -0.1073  0.1065 -2.5258
31945SOL     OW 2884   0.112   0.999   0.565 -0.3536 -0.1235  1.0221
31945SOL    HW1 2885   0.081   0.938   0.632  1.3171 -0.9601  1.0777
31945SOL    HW2 2886   0.186   0.954   0.525 -1.6157  0.1056 -1.7891
31946SOL     OW 2887  10.231  11.625   2.614  0.2877  0.1671  0.2778
31946SOL    HW1 2888  10.256  11.696   2.555  0.0034 -1.1714 -1.5813
31946SOL    HW2 2889  10.295  11.556   2.596 -0.6783 -0.8083  0.4742
31947SOL     OW 2890   6.024  10.984   6.205 -0.3661 -0.0153 -0.1440
31947SOL    HW1 2891   6.037  11.003   6.112 -0.5913 -1.4160 -0.4776
31947SOL    HW2 2892   6.048  11.065   6.249  1.5808  0.0917 -1.2885
31948SOL     OW 2893   9.609  12.440  11.966  0.0181 -0.3642  0.1061
31948SOL    HW1 2894   9.520  12.421  11.934  0.1178 -0.2607 -0.2337
31948SOL    HW2 2895   9.650  12.488  11.895 -0.5585  2.0892  1.3016
31949SOL     OW 2896  11.598   1.512   1.906 -0.2872  0.2756 -0.3742
31949SOL    HW1 2897  11.516   1.537   1.949 -1.2441  0.5206 -2.2659
31949SOL    HW2 2898  11.649   1.471   1.976 -1.6531  0.8864  1.0607
31950SOL     OW 2899   9.149   4.026   7.158  0.3222  0.2332  0.1607
31950SOL    HW1 2900   9.202   4.072   7.223 -0.0785 -0.5948  1.0983
31950SOL    HW2 2901   9.203   4.026   7.079  0.7938  1.3001  0.4624
31951SOL     OW 2902   9.440  11.430  12.086  0.3070 -0.2984  0.2063
31951SOL    HW1 2903   9.380  11.492  12.044 -2.3254 -0.9781  2.6088
31951SOL    HW2 2904   9.521  11.437  12.037 -0.7470  3.0220 -1.3218
31952SOL     OW 2905  11.729   5.806  10.685 -0.3518 -0.2906  0.0314
31952SOL    HW1 2906  11.637   5.785  10.667 -0.0644 -0.3338 -1.5663
31952SOL    HW2 2907  11.767   5.820  10.598  0.9808  0.4676  0.7121
31953SOL     OW 2908  12.344   8.490  12.101 -0.8370 -0.0411  0.8495
31953SOL    HW1 2909  12.352   8.436  12.022 -0.7483  1.0831  0.0579
31953SOL    HW2 2910  12.432   8.491  12.139 -0.4008  0.9769 -0.1284
31954SOL     OW 2911   9.622   1.621   4.366  0.2381  0.2944 -0.3566
31954SOL    HW1 2912   9.627   1.711   4.333 -1.6937  0.7205  0.3759
31954SOL    HW2 2913   9.532   1.594   4.346  0.6150 -1.2883 -0.0423
31955SOL     OW 2914   8.987   9.889   8.295  0.0336  0.2322 -0.0777
31955SOL    HW1 2915   8.996   9.798   8.267  1.1076  0.2238  0.2212
31955SOL    HW2 2916   8.932   9.930   8.229 -0.9300 -0.7638  0.0831
31956SOL     OW 2917  10.426  11.605  12.348  0.4441 -0.3726  0.2485
31956SOL    HW1 2918  10.509  11.644  12.319  0.3140  1.5216  2.1675
31956SOL    HW2 2919  10.452  11.537  12.411  0.5562 -0.3215  0.2581
31957SOL     OW 2920   8.158  10.603   4.642  0.1249  0.3734 -0.4593
31957SOL    HW1 2921   8.158  10.694   4.613 -1.2902 -0.1473 -2.2871
31957SOL    HW2 2922   8.070  10.571   4.622  0.5242 -1.3419  0.3322
31958SOL     OW 2923  11.986  10.786   4.962 -0.0519 -0.0176 -0.0354
31958SOL    HW1 2924  11.970  10.769   4.869  1.1074 -0.5305 -0.1560
31958SOL    HW2 2925  11.968  10.880   4.973  2.6393  0.7793 -1.4512
31959SOL     OW 2926   1.685  10.241  10.133  0.8120 -0.9920 -0.0785
31959SOL    HW1 2927   1.635  10.313  10.095  1.6729  0.7912  1.9854
31959SOL    HW2 2928   1.773  10.250  10.096  0.9364 -0.9610  0.2234
31960SOL     OW 2929   0.903   3.541  10.680  0.6748 -0.5387  0.2101
31960SOL    HW1 2930   0.839   3.470  10.690 -0.6808  0.9653  3.4869
31960SOL    HW2 2931   0.851   3.615  10.650  1.2295  0.1797  0.9856
31961SOL     OW 2932   8.080   9.475   8.425  1.0273  0.1994 -0.1616
31961SOL    HW1 2933   8.044   9.511   8.506  2.5368  0.4629  0.4082
31961SOL    HW2 2934   8.102   9.384   8.446 -0.3725 -0.3415 -0.8659
31962SOL     OW 2935   9.953  10.368   2.290 -0.0939 -0.9954 -0.1371
31962SOL    HW1 2936  10.003  10.329   2.361  0.0225 -1.1226 -0.2882
31962SOL    HW2 2937   9.870  10.322   2.290  0.0044 -1.1750 -0.2492
31963SOL     OW 2938   1.400  11.934  11.897 -0.0194 -0.0973 -0.5669
31963SOL    HW1 2939   1.478  11.937  11.953  0.1079 -1.1827 -0.6639
31963SOL    HW2 2940   1.341  11.874  11.941 -0.7546  0.6017 -0.5764
31964SOL     OW 2941   9.470  10.242   4.031 -0.6325 -0.2846 -0.0677
31964SOL    HW1 2942   9.412  10.262   3.957 -1.3123  0.1315  0.5657
31964SOL    HW2 2943   9.412  10.233   4.106  0.0698 -0.4877  0.4655
31965SOL     OW 2944   4.636   6.100   8.314  0.4852 -0.2660  0.3812
31965SOL    HW1 2945   4.660   6.104   8.221  2.2693 -1.0896  0.7528
31965SOL    HW2 2946   4.624   6.007   8.332 -2.7904  0.0633  0.3600
31966SOL     OW 2947   8.314   7.086   5.200  0.1344  0.0155  0.5492
31966SOL    HW1 2948   8.365   7.162   5.171 -0.3750  0.3104  0.4238
31966SOL    HW2 2949   8.295   7.038   5.119 -0.0540  0.0673  0.5641
31967SOL     OW 2950   5.008   9.412   7.953  0.4293  0.2761 -0.3752
31967SOL    HW1 2951   4.962   9.494   7.973 -0.5454 -0.6338  1.3277
31967SOL    HW2 2952   4.939   9.353   7.922  1.4418  0.6906 -3.8271
31968SOL     OW 2953   1.253   6.932   9.660  0.3370  0.2256 -0.0759
31968SOL    HW1 2954   1.274   6.990   9.587 -0.3328  0.6664  0.0772
31968SOL    HW2 2955   1.187   6.978   9.710  0.8528 -0.0327  0.8800
31969SOL     OW 2956   1.932  10.413   3.204  0.2018  0.0462  0.2799
31969SOL    HW1 2957   1.873  10.362   3.149  0.6429  2.1670 -2.3906
31969SOL    HW2 2958   2.019  10.382   3.182  0.3175 -0.0848  0.9071
31970SOL     OW 2959   7.199   6.572   1.150 -0.2797  0.3295  0.1374
31970SOL    HW1 2960   7.206   6.651   1.204  2.3858  0.9266 -0.9027
31970SOL    HW2 2961   7.121   6.527   1.182  0.5623  1.1431  3.8047
31971SOL     OW 2962   5.170  11.046   9.749  0.3367 -0.2720 -0.1947
31971SOL    HW1 2963   5.164  11.110   9.678 -0.4868 -0.2338 -0.1022
31971SOL    HW2 2964   5.243  11.076   9.802  0.9472 -0.2815 -0.9966
31972SOL     OW 2965   6.683   0.479   3.829 -0.1642  0.0475  0.4142
31972SOL    HW1 2966   6.588   0.476   3.839 -0.3710 -0.4346 -1.3841
31972SOL    HW2 2967   6.716   0.462   3.917 -1.7431 -0.5114  0.9466
31973SOL     OW 2968  10.277   4.124   8.780 -0.3573 -0.2208 -0.2277
31973SOL    HW1 2969  10.337   4.198   8.770  0.7956 -1.3887 -2.8447
31973SOL    HW2 2970  10.307   4.080   8.860 -0.9951  1.9827  1.3141
31974SOL     OW 2971  11.431   6.688  12.420 -0.1965 -0.1644  0.5061
31974SOL    HW1 2972  11.361   6.634  12.457 -0.5395  0.7555  1.2237
31974SOL    HW2 2973  11.414   6.689  12.326 -0.4636 -0.8956  0.5366
31975SOL     OW 2974   8.344   8.500   0.960 -0.0355 -0.3734 -0.1237
31975SOL    HW1 2975   8.366   8.586   0.996 -1.6696 -0.4234  1.1039
31975SOL    HW2 2976   8.372   8.505   0.868  0.4009  1.2627  0.0642
31976SOL     OW 2977   5.270   8.192   1.388  0.1271  0.0723 -0.1485
31976SOL    HW1 2978   5.246   8.236   1.306  0.3853  0.9759  0.2372
31976SOL    HW2 2979   5.268   8.099   1.368 -2.0157  0.1635 -0.5773
31977SOL     OW 2980   5.612   1.125   2.724 -0.3645  0.2310 -0.6187
31977SOL    HW1 2981   5.518   1.139   2.734 -0.6440 -2.2736  0.8091
31977SOL    HW2 2982   5.652   1.195   2.777 -1.5438 -1.0069  2.0879
31978SOL     OW 2983   8.947   5.869   6.081  0.7373 -0.0942  0.3050
31978SOL    HW1 2984   8.909   5.957   6.078  1.8868  0.4091 -1.9760
31978SOL    HW2 2985   9.011   5.869   6.010  1.4267 -2.4934  0.8609
31979SOL     OW 2986  12.159   9.469  11.448  0.0159 -0.3675  0.3204
31979SOL    HW1 2987  12.149   9.534  11.518  1.1464 -2.1153  2.2101
31979SOL    HW2 2988  12.212   9.400  11.487  1.5035 -1.0309 -2.5968
31980SOL     OW 2989   0.420   0.217   3.619  0.0355  0.4044  0.8977
31980SOL    HW1 2990   0.442   0.229   3.527 -0.8084 -1.9565  0.3252
31980SOL    HW2 2991   0.335   0.262   3.629  0.2341  0.8587  0.5949
31981SOL     OW 2992   0.613   8.313   6.976  0.3179  0.2482 -0.3077
31981SOL    HW1 2993   0.617   8.233   7.029 -0.2154  0.3527 -0.1056
31981SOL    HW2 2994   0.520   8.334   6.971  0.5575  1.7679  1.0229
31982SOL     OW 2995   8.429   1.820   3.165 -0.0327 -0.3386  0.6194
31982SOL    HW1 2996   8.446   1.730   3.194  0.6720 -0.1418  0.8109
31982SOL    HW2 2997   8.515   1.859   3.156 -0.3016  0.0159 -0.4486
31983SOL     OW 2998  12.325  12.322   7.300 -0.8279 -0.1189 -0.5140
31983SOL    HW1 2999  12.266  12.393   7.322 -1.9611 -0.9398 -0.8358
31983SOL    HW2 3000  12.280  12.243   7.329  1.7734 -0.5884  2.9758
31984SOL     OW 3001  11.535   1.905   0.753  0.0023  0.4896 -0.0307
31984SOL    HW1 3002  11.630   1.899   0.741 -0.0558  0.6314 -0.5670
31984SOL    HW2 3003  11.524   1.906   0.848  0.7198  2.8714  0.1123
31985SOL     OW 3004   0.888   6.180   6.369 -0.5803  0.2804 -0.2644
31985SOL    HW1 3005   0.927   6.192   6.282 -0.2944 -0.9362 -0.3234
31985SOL    HW2 3006   0.870   6.086   6.374  1.6779 -0.1618  1.9024
31986SOL     OW 3007   8.053   3.171  10.939 -0.4487  0.5183  0.2044
31986SOL    HW1 3008   8.000   3.095  10.914  1.2006 -0.6667  0.0775
31986SOL    HW2 3009   8.050   3.228  10.862  1.4338 -1.2982 -1.3504
31987SOL     OW 3010   3.735   4.398   0.568 -0.4097  0.2067 -0.1008
31987SOL    HW1 3011   3.790   4.436   0.499  0.6989 -1.5333 -0.2178
31987SOL    HW2 3012   3.792   4.337   0.614 -1.8142 -0.4588  0.8245
31988SOL     OW 3013   8.393   1.877  11.947  0.3490  0.2834 -0.5141
31988SOL    HW1 3014   8.347   1.845  12.025 -0.7850  0.6706 -1.0020
31988SOL    HW2 3015   8.480   1.902  11.979 -0.6090  1.9856  0.9698
31989SOL     OW 3016   6.055   9.132   5.229 -0.2367 -0.2371  0.1847
31989SOL    HW1 3017   5.985   9.121   5.165 -2.0705 -0.4505  2.1381
31989SOL    HW2 3018   6.047   9.222   5.259  0.3021 -0.2846  0.4887
31990SOL     OW 3019  10.466   1.917   4.250 -0.2885  0.1799  0.7512
31990SOL    HW1 3020  10.535   1.875   4.199 -0.9114 -0.1583  0.1778
31990SOL    HW2 3021  10.495   1.909   4.341  0.3090 -0.1693  0.5317
31991SOL     OW 3022  10.600   1.636  12.002  0.3039  0.2021  0.2222
31991SOL    HW1 3023  10.656   1.700  11.958  1.7514  0.2534  2.0262
31991SOL    HW2 3024  10.572   1.577  11.931  1.3744  1.0943 -0.9974
31992SOL     OW 3025   7.885  10.318   2.760  0.0558 -0.1986  0.6194
31992SOL    HW1 3026   7.945  10.393   2.755 -0.2813 -0.0040 -1.2592
31992SOL    HW2 3027   7.861  10.300   2.669 -0.0987 -2.4383  1.0549
31993SOL     OW 3028   6.857   2.197   4.332  0.3615  0.2169  0.2729
31993SOL    HW1 3029   6.805   2.244   4.267  0.5762 -0.3516 -0.3138
31993SOL    HW2 3030   6.906   2.266   4.378  0.6636  0.5767 -0.5722
31994SOL     OW 3031   6.842   7.112   2.738  0.1250  0.2183  0.6176
31994SOL    HW1 3032   6.901   7.163   2.793  0.7820 -0.4823  0.5752
31994SOL    HW2 3033   6.773   7.174   2.713 -0.2007  0.5482  2.2289
31995SOL     OW 3034   6.703   7.559   6.370 -0.8226 -0.1250  0.3501
31995SOL    HW1 3035   6.711   7.540   6.464 -0.6022 -0.7191  0.2137
31995SOL    HW2 3036   6.793   7.555   6.338 -0.4473  3.1386  0.6695
31996SOL     OW 3037  12.060   2.036   5.391  0.2028 -0.4660 -0.3618
31996SOL    HW1 3038  11.973   2.014   5.357  0.2996 -1.9729  0.2872
31996SOL    HW2 3039  12.114   1.960   5.369  1.2023  0.1713 -0.1763
31997SOL     OW 3040   1.045  12.089   6.663 -0.5713  0.2533  0.4501
31997SOL    HW1 3041   1.049  11.997   6.638  1.8804  0.4262 -0.0838
31997SOL    HW2 3042   0.991  12.130   6.596  1.0870 -0.2748 -1.2850
31998SOL     OW 3043  12.557  11.081   2.185 -0.1631 -0.4989  0.1158
31998SOL    HW1 3044  12.571  11.126   2.102 -1.6021  0.6167  0.4359
31998SOL    HW2 3045  12.465  11.055   2.183 -1.1002  2.0707  2.4526
31999SOL     OW 3046  11.357   5.849   6.417 -0.3585  0.7171  0.2758
31999SOL    HW1 3047  11.331   5.797   6.340  0.6503 -0.3585  0.6295
31999SOL    HW2 3048  11.452   5.858   6.408 -0.4528  2.1260  0.4832
32000SOL     OW 3049  11.151   4.010   9.240 -0.2229 -0.4704 -0.2614
32000SOL    HW1 3050  11.209   3.944   9.201  1.1201 -0.4323  1.5268
32000SOL    HW2 3051  11.198   4.040   9.318 -1.3786  1.6777 -0.3074
32001SOL     OW 3052   5.351  10.446   2.017 -0.1480 -0.1996 -0.8706
32001SOL    HW1 3053   5.320  10.367   2.062 -0.6736  0.3624 -0.2055
32001SOL    HW2 3054   5.278  10.470   1.959 -0.8023  0.8455  0.3272
32002SOL     OW 3055   4.025   5.196   8.477  0.3288 -0.3132  0.6250
32002SOL    HW1 3056   4.094   5.134   8.501  1.2894  1.3343  2.4606
32002SOL    HW2 3057   4.031   5.204   8.382  1.7189 -1.2707  0.5998
32003SOL     OW 3058   9.774   6.588  10.407  0.3960  0.3414 -0.1855
32003SOL    HW1 3059   9.816   6.602  10.492  0.0294  0.6416 -0.0508
32003SOL    HW2 3060   9.834   6.529  10.361  0.5129  0.0328  0.3458
32004SOL     OW 3061   5.340   2.563  10.663  0.0117 -0.1074  0.0134
32004SOL    HW1 3062   5.314   2.558  10.755 -0.5745  0.3330 -0.1195
32004SOL    HW2 3063   5.344   2.471  10.635  2.6146 -0.4253  1.0997
32005SOL     OW 3064   9.252   1.865  10.884  0.2974 -0.4347  0.1844
32005SOL    HW1 3065   9.251   1.871  10.980  1.8347  2.4285  0.1558
32005SOL    HW2 3066   9.325   1.807  10.864  0.1334 -0.8377  0.7415
32006SOL     OW 3067   8.627   1.958  12.148  0.7068  0.4146  0.2600
32006SOL    HW1 3068   8.571   2.035  12.137 -0.8773 -0.7254 -0.0389
32006SOL    HW2 3069   8.662   1.967  12.236 -2.3536 -0.2645  1.7004
32007SOL     OW 3070  11.915   0.054   8.378 -0.1319  1.2449 -0.0336
32007SOL    HW1 3071  11.951   0.092   8.459 -0.9587 -1.2476  1.6165
32007SOL    HW2 3072  11.825   0.087   8.374 -0.2845  0.8852  0.4042
32008SOL     OW 3073   7.687   4.023   5.741 -0.2428 -1.3314 -0.3003
32008SOL    HW1 3074   7.752   4.071   5.793 -2.2871  0.9768  0.2858
32008SOL    HW2 3075   7.615   4.006   5.802 -1.9698 -0.0890 -1.8974
32009SOL     OW 3076   1.936   4.675   2.919 -0.0224  0.2914  0.2171
32009SOL    HW1 3077   1.920   4.651   3.010  0.5121  0.1685  0.2825
32009SOL    HW2 3078   2.031   4.689   2.914  0.2276 -1.5102 -0.7608
32010SOL     OW 3079   8.311   0.427   6.886  0.0820 -0.7647  0.1430
32010SOL    HW1 3080   8.368   0.392   6.818  0.6791 -0.8173  0.6553
32010SOL    HW2 3081   8.243   0.361   6.897 -0.0099 -0.7619 -0.3907
32011SOL     OW 3082   6.542   9.043  12.277  0.0636 -0.3574  0.0371
32011SOL    HW1 3083   6.481   9.053  12.203 -1.5560  0.7412  1.4354
32011SOL    HW2 3084   6.546   9.130  12.317  1.0472 -0.8789  1.1394
32012SOL     OW 3085   6.808  12.152   3.986  0.9087  0.3002  0.0859
32012SOL    HW1 3086   6.836  12.105   4.065 -0.4280 -1.2959 -0.3350
32012SOL    HW2 3087   6.797  12.243   4.015  0.5949 -0.2234  1.7170
32013SOL     OW 3088   6.993  12.091   8.635 -0.5754  0.2207 -0.5102
32013SOL    HW1 3089   6.946  12.175   8.637  0.5473  0.8776 -0.9748
32013SOL    HW2 3090   7.081  12.114   8.606 -0.0152 -1.0182  0.1733
32014SOL     OW 3091   6.688   0.651  11.460  0.2245 -0.1010  0.1043
32014SOL    HW1 3092   6.754   0.604  11.511 -0.1423  1.8666  2.6178
32014SOL    HW2 3093   6.632   0.693  11.526 -0.0938  2.9332 -1.8878
32015SOL     OW 3094   7.799   2.643  10.427 -0.5890  0.4754  0.0959
32015SOL    HW1 3095   7.764   2.706  10.490  0.3015  0.5508  0.5370
32015SOL    HW2 3096   7.735   2.572  10.425 -0.4070  0.2455  1.4597
32016SOL     OW 3097   3.496   0.362   5.662  0.2011  0.2625  0.3597
32016SOL    HW1 3098   3.479   0.419   5.587  0.2395 -0.0852  0.0792
32016SOL    HW2 3099   3.425   0.380   5.723 -2.9620 -3.0298 -1.8457
32017SOL     OW 3100   6.926   0.370   1.319 -0.5086 -0.2951  0.0979
32017SOL    HW1 3101   6.845   0.353   1.368 -0.9608  1.0479 -0.1239
32017SOL    HW2 3102   6.991   0.313   1.359 -0.7787  0.9569  2.5311
32018SOL     OW 3103  12.385   3.053  12.103 -0.3236  0.3693  0.3311
32018SOL    HW1 3104  12.476   3.039  12.129 -0.3153  0.5917  0.4212
32018SOL    HW2 3105  12.335   3.034  12.182 -0.2437  1.8716  0.7756
32019SOL     OW 3106   7.613   3.539   2.326 -0.0394  0.4943  0.1122
32019SOL    HW1 3107   7.674   3.562   2.256 -0.9633  1.2906 -0.4601
32019SOL    HW2 3108   7.657   3.469   2.374  2.2972  2.4737  1.0424
32020SOL     OW 3109   6.718   7.532   6.635  0.1275  0.1661  0.6859
32020SOL    HW1 3110   6.809   7.521   6.662  0.3823  0.9146  0.1531
32020SOL    HW2 3111   6.676   7.579   6.707  0.5994  1.4028  0.1701
32021SOL     OW 3112   2.390   3.937   2.175 -0.3653 -0.3433 -0.4255
32021SOL    HW1 3113   2.455   3.897   2.116 -0.4284 -2.2392  0.6891
32021SOL    HW2 3114   2.357   3.863   2.226 -0.2701  1.2034  2.0156
32022SOL     OW 3115   9.567   9.528   1.617  0.7285 -0.0896  0.3688
32022SOL    HW1 3116   9.538   9.449   1.662  2.9877 -0.4872  1.2613
32022SOL    HW2 3117   9.498   9.592   1.634  0.6201 -0.7676  2.9151
32023SOL     OW 3118   1.804   1.725   2.981  0.4504 -0.3127 -0.1432
32023SOL    HW1 3119   1.878   1.669   3.006 -0.8602 -1.9599  0.2417
32023SOL    HW2 3120   1.737   1.663   2.950 -0.5565  1.1709 -1.0564
32024SOL     OW 3121   5.114   7.083   9.723  0.3574  0.1913  0.6045
32024SOL    HW1 3122   5.148   7.145   9.658 -0.1792  1.8139  1.8127
32024SOL    HW2 3123   5.050   7.133   9.773 -1.3465 -1.8327  0.5833
32025SOL     OW 3124  11.323   5.614   0.887  0.1186 -0.4916 -1.1534
32025SOL    HW1 3125  11.300   5.561   0.810 -2.4378 -0.4942 -0.4767
32025SOL    HW2 3126  11.364   5.551   0.947 -0.9761 -1.2708 -1.1918
32026SOL     OW 3127   1.269   3.549   1.299  0.0136 -0.1201  0.1964
32026SOL    HW1 3128   1.295   3.561   1.390 -0.0344 -0.8824  0.3127
32026SOL    HW2 3129   1.176   3.528   1.303  0.2763 -1.3831  0.0721
32027SOL     OW 3130  11.420   6.371   2.297 -0.3074  0.1209  0.0475
32027SOL    HW1 3131  11.433   6.396   2.388 -0.3192  0.9933 -0.1731
32027SOL    HW2 3132  11.453   6.446   2.247  0.3891 -0.6495 -0.6856
32028SOL     OW 3133   4.218   4.078   2.018  0.3609  0.3594  1.0906
32028SOL    HW1 3134   4.225   4.022   1.941  0.1518 -0.3314  1.5728
32028SOL    HW2 3135   4.239   4.021   2.092 -0.2429  0.8069  1.6225
32029SOL     OW 3136  10.938  11.995   0.362  0.3807 -0.1008 -0.4629
32029SOL    HW1 3137  10.911  12.031   0.447  1.2086  2.0214 -1.0397
32029SOL    HW2 3138  10.942  11.900   0.377 -0.8699  0.0855  1.4559
32030SOL     OW 3139   8.321   3.175   7.027  0.8888 -0.1816  0.3837
32030SOL    HW1 3140   8.403   3.149   7.069 -0.1721 -1.3385  1.8421
32030SOL    HW2 3141   8.323   3.131   6.942  2.2530  0.7141 -0.0786
32031SOL     OW 3142   0.824   1.553   1.040 -0.1618  1.0300  0.2441
32031SOL    HW1 3143   0.857   1.642   1.052  0.2120  0.9471 -0.1304
32031SOL    HW2 3144   0.785   1.530   1.125 -0.5035  1.6449  0.2571
32032SOL     OW 3145   5.390   6.975   4.305 -0.7550 -0.0788 -0.0308
32032SOL    HW1 3146   5.316   7.036   4.311  0.3559  1.2541  0.7641
32032SOL    HW2 3147   5.359   6.906   4.246 -1.6582  1.8545 -1.9847
32033SOL     OW 3148   6.664  11.849   0.672 -0.1230 -0.2576 -0.1801
32033SOL    HW1 3149   6.665  11.868   0.578 -2.0850 -0.0885 -0.2054
32033SOL    HW2 3150   6.578  11.879   0.702  0.6313  0.1136  1.7779
32034SOL     OW 3151  10.566   8.432   6.748  0.6411  0.5632  0.4044
32034SOL    HW1 3152  10.636   8.496   6.765 -0.2103  1.7126 -0.2669
32034SOL    HW2 3153  10.584   8.400   6.660  0.8606  0.1286  0.6026
32035SOL     OW 3154   8.859  11.892   5.945 -0.5806  0.1116  0.4866
32035SOL    HW1 3155   8.838  11.875   6.037  0.9187  1.3241  1.0975
32035SOL    HW2 3156   8.907  11.815   5.916 -2.0829 -0.8077  0.3163
32036SOL     OW 3157  12.412  12.307   0.327 -0.0226  0.5095 -0.1724
32036SOL    HW1 3158  12.446  12.395   0.346  3.0953 -0.6021 -0.0050
32036SOL    HW2 3159  12.323  12.322   0.295  0.9770  3.8743 -1.8423
32037SOL     OW 3160   6.554  10.267   6.744  0.4421 -0.1355  0.4403
32037SOL    HW1 3161   6.646  10.244   6.730  0.7479  0.3039  1.6034
32037SOL    HW2 3162   6.514  10.186   6.777  0.3638 -0.3713 -0.2137
32038SOL     OW 3163   6.286  12.355  10.075 -0.1842  0.0900  0.1145
32038SOL    HW1 3164   6.244  12.428  10.029  0.9860  1.8957  1.7610
32038SOL    HW2 3165   6.217  12.320  10.131 -0.5687  0.4127 -0.1476
32039SOL     OW 3166  10.525   9.777   7.182  0.7117  0.2667 -0.0137
32039SOL    HW1 3167  10.616   9.782   7.154  0.5538 -0.7536 -0.7490
32039SOL    HW2 3168  10.483   9.718   7.120 -0.0958 -0.5451  1.2461
32040SOL     OW 3169   5.033   6.763   6.006 -0.1941 -0.5707 -0.0287
32040SOL    HW1 3170   4.988   6.742   5.924  1.7071 -1.1970 -0.9792
32040SOL    HW2 3171   4.964   6.761   6.073 -1.9616  0.8087 -1.7054
32041SOL     OW 3172   4.133   9.424   0.875 -0.5609  0.7962  0.2404
32041SOL    HW1 3173   4.142   9.388   0.786  0.9346  1.6027  0.0401
32041SOL    HW2 3174   4.046   9.464   0.876 -0.6026  0.7570 -0.8489
32042SOL     OW 3175   6.085  11.250   5.715 -0.3218 -0.2158 -0.3724
32042SOL    HW1 3176   6.047  11.268   5.629 -1.4761 -0.0067  0.1686
32042SOL    HW2 3177   6.096  11.337   5.754  2.3215 -0.1103 -1.1417
32043SOL     OW 3178   1.246   2.983   7.462  0.3308  0.0474 -0.0859
32043SOL    HW1 3179   1.318   3.042   7.441  0.3277 -0.0571 -0.3990
32043SOL    HW2 3180   1.271   2.943   7.545 -0.4386  1.7202  1.0050
32044SOL     OW 3181   9.119  11.556   0.107 -0.0573  0.5664 -0.0119
32044SOL    HW1 3182   9.107  11.607   0.187  0.0155  1.5536 -0.6112
32044SOL    HW2 3183   9.106  11.619   0.036  0.9093 -0.0485 -0.7641
32045SOL     OW 3184  11.181   3.831   7.374  0.3204  0.0029 -0.7048
32045SOL    HW1 3185  11.126   3.909   7.364  0.8183  0.3532 -0.7711
32045SOL    HW2 3186  11.148   3.769   7.309  0.8282  0.6865 -1.6391
32046SOL     OW 3187  11.262   7.431   3.146  0.0935 -0.0451 -0.2379
32046SOL    HW1 3188  11.217   7.459   3.225 -0.0511 -1.1015  0.0709
32046SOL    HW2 3189  11.196   7.443   3.076  0.3070  1.1208 -0.2521
32047SOL     OW 3190   2.452  10.553   2.008  0.1772  0.1010  0.0806
32047SOL    HW1 3191   2.539  10.516   2.015 -0.4462 -1.9286 -1.7814
32047SOL    HW2 3192   2.414  10.543   2.096  0.6193 -2.3094  0.0574
32048SOL     OW 3193   1.789   8.209  11.017 -0.3807  0.9552 -0.4168
32048SOL    HW1 3194   1.819   8.197  11.107 -0.0511  1.0885 -0.5055
32048SOL    HW2 3195   1.867   8.239  10.970 -1.0104  2.9818 -0.2966
32049SOL     OW 3196   2.177   0.108   7.908 -0.7574  0.6711  0.1659
32049SOL    HW1 3197   2.104   0.059   7.946 -0.3719  0.0992  0.1900
32049SOL    HW2 3198   2.233   0.040   7.869  0.3951  0.9889  1.2207
32050SOL     OW 3199   7.929   8.189   8.014  0.0843 -0.3936  0.0077
32050SOL    HW1 3200   8.019   8.155   8.007 -0.6759 -2.5259 -0.0611
32050SOL    HW2 3201   7.878   8.114   8.044 -1.6447  0.8688  0.3157
32051SOL     OW 3202   0.356   0.813  12.501  0.0042  0.3581 -0.6299
32051SOL    HW1 3203   0.449   0.804  12.480  0.0332  0.0243 -0.3669
32051SOL    HW2 3204   0.311   0.761  12.435  0.1159 -0.9994  0.3150
32052SOL     OW 3205  11.438   7.180   4.653 -0.3384 -0.0495 -0.1765
32052SOL    HW1 3206  11.365   7.158   4.595 -1.1310 -0.2422  0.8627
32052SOL    HW2 3207  11.472   7.262   4.619 -0.3648 -0.4935 -1.3034
32053SOL     OW 3208  11.620   2.876  10.970 -0.1264 -0.1907  0.8127
32053SOL    HW1 3209  11.692   2.933  10.944  0.0323 -0.8401 -0.2596
32053SOL    HW2 3210  11.577   2.922  11.042  0.1727  1.1373  0.1706
32054SOL     OW 3211   1.710   0.255  10.706 -0.0991 -0.4314  0.4852
32054SOL    HW1 3212   1.679   0.340  10.737  0.7927 -0.1674  0.6964
32054SOL    HW2 3213   1.638   0.221  10.652 -0.4865  0.4284  0.4389
32055SOL     OW 3214   4.756   6.950   7.075 -0.2149 -0.4757  0.0319
32055SOL    HW1 3215   4.821   7.013   7.043 -0.8303 -0.9136 -2.2263
32055SOL    HW2 3216   4.808   6.880   7.114  0.5778  0.2090  0.2470
32056SOL     OW 3217   5.234   0.359   9.288  0.5339  0.0678 -0.1055
32056SOL    HW1 3218   5.147   0.318   9.293 -0.4686  1.9786 -0.9914
32056SOL    HW2 3219   5.250   0.392   9.377  0.2738 -0.1007  0.0069
32057SOL     OW 3220   7.262   0.483   2.207  0.6361 -0.8939  0.3040
32057SOL    HW1 3221   7.189   0.448   2.258  1.1796 -0.8935  1.0971
32057SOL    HW2 3222   7.273   0.421   2.135 -2.4319  0.9236 -1.9474
32058SOL     OW 3223   3.313   8.659  10.726  0.1636 -0.3475 -0.2524
32058SOL    HW1 3224   3.316   8.612  10.809  1.6344  0.3293  0.0983
32058SOL    HW2 3225   3.311   8.752  10.751  1.7891 -0.0905 -0.9473
32059SOL     OW 3226   8.794   7.247   1.816  0.3233 -1.0472 -1.0184
32059SOL    HW1 3227   8.781   7.152   1.807  0.6496 -1.4999  2.0093
32059SOL    HW2 3228   8.706   7.283   1.826  0.2803 -1.4724  0.4853
32060SOL     OW 3229  11.737   9.429   7.147 -0.6365 -0.1633 -0.3677
32060SOL    HW1 3230  11.816   9.468   7.109 -0.9934  0.1413 -0.8080
32060SOL    HW2 3231  11.679   9.413   7.072 -1.4747  0.7239  0.0717
32061SOL     OW 3232  11.811   3.014   6.101  0.6157 -0.7428  0.1529
32061SOL    HW1 3233  11.837   3.020   6.009  0.9649  1.1194  0.3312
32061SOL    HW2 3234  11.854   3.089   6.142 -4.3324  2.3167  0.6108
32062SOL     OW 3235   2.042   3.002  10.164 -0.0737 -0.5300 -0.0148
32062SOL    HW1 3236   2.026   2.952  10.244  1.0495  1.1279  1.3125
32062SOL    HW2 3237   2.124   3.048  10.180  0.5781 -0.7015 -2.4407
32063SOL     OW 3238   9.199  10.486   4.164  0.7271  0.4741 -0.1372
32063SOL    HW1 3239   9.158  10.568   4.192  0.2149  0.0141  0.5055
32063SOL    HW2 3240   9.247  10.509   4.085 -2.7925  0.5235 -2.4508
32064SOL     OW 3241  10.563  11.000   1.508  0.0953  0.3701  0.2798
32064SOL    HW1 3242  10.617  10.980   1.584  0.6303  0.5721 -0.0368
32064SOL    HW2 3243  10.546  11.094   1.515  1.0933  0.6247 -0.4282
32065SOL     OW 3244   7.207   7.636   3.802 -0.7517  0.0649 -0.6736
32065SOL    HW1 3245   7.151   7.709   3.774  0.1228  1.1487  0.2761
32065SOL    HW2 3246   7.146   7.563   3.815 -1.6780  0.6676 -1.4670
32066SOL     OW 3247   1.414   6.738  11.562 -0.4063  1.0544  0.4716
32066SOL    HW1 3248   1.401   6.819  11.512 -0.7133  1.2874  0.9264
32066SOL    HW2 3249   1.451   6.766  11.645 -2.1010  0.9061  1.3111
32067SOL     OW 3250   0.853  11.762  11.763 -0.2939 -0.0955  0.3981
32067SOL    HW1 3251   0.879  11.802  11.680 -1.4522  1.3927  0.7259
32067SOL    HW2 3252   0.856  11.833  11.826 -0.7584 -0.9136  1.3674
32068SOL     OW 3253   3.630   7.850   8.575 -0.1592  0.3204 -0.3186
32068SOL    HW1 3254   3.574   7.908   8.628 -0.2747  0.9319 -1.0904
32068SOL    HW2 3255   3.717   7.890   8.581  0.0576 -0.2361  0.3084
32069SOL     OW 3256   5.790   9.066   6.601  0.1340 -0.0455  0.7045
32069SOL    HW1 3257   5.838   9.148   6.599  2.0648 -1.1419 -0.0016
32069SOL    HW2 3258   5.856   8.999   6.618 -1.5757 -1.3722  2.6995
32070SOL     OW 3259   6.855   3.399   6.831 -0.2042 -0.5213  0.0763
32070SOL    HW1 3260   6.925   3.333   6.823 -1.0020 -1.6611  1.8532
32070SOL    HW2 3261   6.783   3.364   6.780 -0.0462 -0.1595 -0.3990
32071SOL     OW 3262   8.711   7.166  11.319 -0.2233 -0.3946  0.4103
32071SOL    HW1 3263   8.751   7.141  11.402 -0.6123 -1.4802  0.2807
32071SOL    HW2 3264   8.728   7.092  11.261  3.0262  1.6531 -1.5777
32072SOL     OW 3265  11.089   3.906   0.059 -0.2040 -0.5864  0.7166
32072SOL    HW1 3266  11.129   3.863   0.134 -0.5347 -1.3312  0.4748
32072SOL    HW2 3267  11.031   3.840   0.021 -1.4650  0.3768  0.9059
32073SOL     OW 3268  11.696   8.180   8.218 -0.3895  0.2027 -0.7910
32073SOL    HW1 3269  11.694   8.275   8.226 -0.2099  0.1499 -0.0988
32073SOL    HW2 3270  11.604   8.154   8.213 -0.4689  0.3391 -0.0761
32074SOL     OW 3271   3.041   8.535   1.374 -0.2684  0.0619 -0.3294
32074SOL    HW1 3272   3.043   8.583   1.456 -0.0650  0.4939 -0.5817
32074SOL    HW2 3273   3.106   8.465   1.385  0.3941  0.6521 -0.4397
32075SOL     OW 3274   6.727   2.266   6.065 -0.1421 -0.5330  0.0083
32075SOL    HW1 3275   6.642   2.294   6.100 -0.3744 -0.3420 -0.6891
32075SOL    HW2 3276   6.783   2.259   6.142 -0.7590 -0.5509  0.4667
32076SOL     OW 3277   2.231   6.830   2.155  0.3252  0.5013 -0.2770
32076SOL    HW1 3278   2.203   6.846   2.065  0.5714  0.7042 -0.3159
32076SOL    HW2 3279   2.168   6.766   2.188  0.7962 -0.3067 -0.9026
32077SOL     OW 3280   8.536   3.475   5.116 -0.6162  0.6005  0.7027
32077SOL    HW1 3281   8.503   3.517   5.195  0.3864  0.8579  1.0055
32077SOL    HW2 3282   8.459   3.439   5.073 -1.1318  0.0777  2.0154
32078SOL     OW 3283   3.676   4.755   9.050 -0.4396 -0.3598 -0.5743
32078SOL    HW1 3284   3.607   4.821   9.055 -0.3975 -0.4300  1.3711
32078SOL    HW2 3285   3.757   4.805   9.037 -0.3229  0.0710  1.5503
32079SOL     OW 3286   6.347   4.522   9.091  0.3010 -0.7533  0.1702
32079SOL    HW1 3287   6.370   4.470   9.168  0.2926 -1.6103 -0.3953
32079SOL    HW2 3288   6.256   4.499   9.072  0.4447 -0.9088 -0.3666
32080SOL     OW 3289   0.182   4.872   3.784  0.1738  0.1963 -0.5664
32080SOL    HW1 3290   0.248   4.805   3.802 -2.4749 -3.1125 -2.0108
32080SOL    HW2 3291   0.114   4.856   3.850 -1.0210  0.6782 -1.6347
32081SOL     OW 3292   5.150  10.298   6.015  0.3718 -0.0208  0.0180
32081SOL    HW1 3293   5.072  10.274   5.965  0.3041 -0.7186  0.4332
32081SOL    HW2 3294   5.223  10.262   5.965  0.3342 -0.3719  0.2109
32082SOL     OW 3295   5.856   4.965  11.472  0.0362 -0.5018 -0.2291
32082SOL    HW1 3296   5.924   4.907  11.440  2.0113  2.3455 -1.6205
32082SOL    HW2 3297   5.877   4.977  11.565  0.1177 -1.3148 -0.1364
32083SOL     OW 3298   1.197   4.467   9.857  0.4057 -0.4504  0.5845
32083SOL    HW1 3299   1.182   4.489   9.948 -0.5836 -0.3890  0.4152
32083SOL    HW2 3300   1.280   4.420   9.857  0.3286 -0.5973  1.5350
32084SOL     OW 3301   8.422   2.651  12.105  0.3576  0.5249 -0.0391
32084SOL    HW1 3302   8.375   2.725  12.141 -0.4485  0.9564 -1.9107
32084SOL    HW2 3303   8.367   2.619  12.034  1.3486 -1.0109 -0.1623
32085SOL     OW 3304   8.890   4.245   7.302  0.0478 -0.0318  0.1432
32085SOL    HW1 3305   8.863   4.312   7.239  1.0595 -0.3213 -0.6167
32085SOL    HW2 3306   8.968   4.280   7.344 -0.5870  0.1372  1.2301
32086SOL     OW 3307   2.599   9.705  12.572 -0.0251  0.0542 -0.4379
32086SOL    HW1 3308   2.613   9.647  12.497  0.6631  1.1585 -1.1896
32086SOL    HW2 3309   2.558   9.783  12.535 -2.2281 -0.4647  0.7667
32087SOL     OW 3310   5.149  10.764   3.461  0.1093  0.1393 -0.4657
32087SOL    HW1 3311   5.057  10.782   3.475  0.3575  0.4174  0.9458
32087SOL    HW2 3312   5.164  10.678   3.502 -0.2188 -1.6554 -3.7002
32088SOL     OW 3313   9.251   4.701   3.907 -0.0437  0.1292 -0.1469
32088SOL    HW1 3314   9.184   4.768   3.898  0.3233  0.2943 -1.8664
32088SOL    HW2 3315   9.218   4.626   3.858  0.3249 -0.3534  0.3231
32089SOL     OW 3316   0.779   7.038  11.138  0.5551 -0.3006  0.1943
32089SOL    HW1 3317   0.715   7.033  11.209  0.2258  1.8434  0.0878
32089SOL    HW2 3318   0.863   7.051  11.182  0.7087 -1.3531  0.2521
32090SOL     OW 3319   2.493   9.471  11.679 -0.6391  0.3560 -0.2746
32090SOL    HW1 3320   2.408   9.489  11.638 -0.6574  1.3038  0.1424
32090SOL    HW2 3321   2.549   9.544  11.652 -0.0424 -0.1129 -0.3135
32091SOL     OW 3322   6.601   0.779   0.155  0.1614 -0.0120  0.1912
32091SOL    HW1 3323   6.665   0.709   0.165 -0.6415 -0.6659  1.0347
32091SOL    HW2 3324   6.552   0.756   0.075  0.6901  0.2601 -0.2152
32092SOL     OW 3325   1.515   1.046   0.204  0.1756 -0.1545 -0.2795
32092SOL    HW1 3326   1.514   0.955   0.233 -0.3399  0.3828  1.5857
32092SOL    HW2 3327   1.436   1.084   0.242 -0.0152  0.9103 -1.6614
32093SOL     OW 3328   8.916   6.549   8.233  0.4072  0.3015 -0.0781
32093SOL    HW1 3329   8.845   6.613   8.230 -1.2546 -1.4862 -1.1362
32093SOL    HW2 3330   8.905   6.506   8.318 -0.8036 -1.0315 -0.8804
32094SOL     OW 3331   7.418   8.457   1.232  0.0835  0.5390 -0.2622
32094SOL    HW1 3332   7.340   8.475   1.180 -0.1993 -0.6899 -0.3026
32094SOL    HW2 3333   7.459   8.382   1.189  0.7536  0.5526  0.3268
32095SOL     OW 3334   2.449   3.509   5.224 -0.3202  0.4456 -0.6140
32095SOL    HW1 3335   2.510   3.466   5.284 -0.9437 -0.8958 -0.9176
32095SOL    HW2 3336   2.408   3.577   5.278  1.2977  1.2777 -0.3615
32096SOL     OW 3337   4.955   7.972   2.776 -0.1387  0.2838 -0.0071
32096SOL    HW1 3338   5.046   7.993   2.754  0.2798 -0.2670  1.1017
32096SOL    HW2 3339   4.955   7.877   2.787 -1.1656  0.1141 -1.3120
32097SOL     OW 3340   1.952   8.973   4.424  0.2135 -0.1834  0.3319
32097SOL    HW1 3341   1.892   8.905   4.393 -0.0045  0.0832  0.1592
32097SOL    HW2 3342   1.997   9.003   4.345  0.5494 -0.3595  0.4574
32098SOL     OW 3343  10.567   6.648  10.218  0.1832 -0.0456 -0.0474
32098SOL    HW1 3344  10.489   6.648  10.274 -0.3924 -1.3378 -0.8145
32098SOL    HW2 3345  10.592   6.741  10.213  1.2572  0.0450  3.6552
32099SOL     OW 3346   6.569  11.925   8.460  0.0935 -0.4419  0.3302
32099SOL    HW1 3347   6.497  11.890   8.409  0.9213 -2.4457  0.4470
32099SOL    HW2 3348   6.621  11.975   8.398 -0.5804 -0.2224 -0.0679
32100SOL     OW 3349   4.387   8.309   4.888 -0.1090 -0.0606 -0.1092
32100SOL    HW1 3350   4.339   8.228   4.906 -1.0651  0.5120 -0.0335
32100SOL    HW2 3351   4.319   8.373   4.867  0.7024  0.4827 -1.1240
32101SOL     OW 3352  10.346   5.130   7.636 -0.2117 -0.1988 -0.6075
32101SOL    HW1 3353  10.430   5.094   7.662 -0.6689 -0.8027  0.0462
32101SOL    HW2 3354  10.318   5.182   7.711 -1.3131 -1.5610 -0.0490
32102SOL     OW 3355   3.558   1.910  12.467  0.3859 -0.4596 -0.2439
32102SOL    HW1 3356   3.556   1.853  12.544 -1.9614  0.7960  0.7476
32102SOL    HW2 3357   3.572   1.851  12.393  0.2073 -2.0330  0.9305
32103SOL     OW 3358   9.204   9.140   1.906 -0.5765  0.4197 -0.4157
32103SOL    HW1 3359   9.175   9.057   1.943 -1.7011  0.5570 -0.9683
32103SOL    HW2 3360   9.289   9.119   1.865  0.0405 -0.0223  1.0225
32104SOL     OW 3361  12.560  11.918   2.858 -0.5867 -0.4556 -0.7146
32104SOL    HW1 3362  12.575  11.869   2.939  0.7314 -2.0498 -1.8393
32104SOL    HW2 3363  12.634  11.979   2.852 -0.9090 -0.0447 -0.5139
32105SOL     OW 3364   7.674   3.365   2.874  0.3392  0.1859 -0.3888
32105SOL    HW1 3365   7.630   3.434   2.825 -1.0897  0.1009  0.7107
32105SOL    HW2 3366   7.633   3.284   2.844 -1.3003  0.2030  1.5943
32106SOL     OW 3367   5.646   3.852   4.481 -0.2605 -0.3604  0.0211
32106SOL    HW1 3368   5.660   3.943   4.456  0.6515 -0.3204  0.6116
32106SOL    HW2 3369   5.679   3.801   4.408  3.2197 -0.2671  1.3368
32107SOL     OW 3370   5.166   5.939   2.158  0.1893  0.1624  0.2519
32107SOL    HW1 3371   5.090   5.896   2.198 -0.3747  0.3404 -0.5883
32107SOL    HW2 3372   5.128   6.010   2.106  0.9437  0.2787 -0.1526
32108SOL     OW 3373   4.649   1.738   6.094 -0.2060 -0.1178  0.2734
32108SOL    HW1 3374   4.658   1.790   6.174  0.2843  0.3847 -0.0984
32108SOL    HW2 3375   4.726   1.761   6.042 -2.3950  2.6598 -2.1068
32109SOL     OW 3376   9.573   6.205   0.959  0.2303 -0.4609  0.2605
32109SOL    HW1 3377   9.649   6.194   1.015 -0.3054  0.2883  1.1700
32109SOL    HW2 3378   9.548   6.116   0.933  1.5724 -0.6930 -0.2932
32110SOL     OW 3379   0.445  11.090  10.658  0.0355 -0.0791 -0.1209
32110SOL    HW1 3380   0.428  11.116  10.567 -0.9763  0.1411  0.1222
32110SOL    HW2 3381   0.519  11.144  10.685 -1.7531  2.3840  0.2525
32111SOL     OW 3382   9.520   3.166  10.828 -0.3079  0.0929 -0.0996
32111SOL    HW1 3383   9.540   3.256  10.854 -3.2801  0.9971 -0.5886
32111SOL    HW2 3384   9.493   3.173  10.737  1.7948 -1.7519 -0.9564
32112SOL     OW 3385   4.949   2.057   2.168 -0.1835 -0.0697  0.1769
32112SOL    HW1 3386   4.894   2.061   2.090 -0.9513 -0.5331  0.6690
32112SOL    HW2 3387   4.909   2.119   2.229  1.5860  1.8212 -0.4678
32113SOL     OW 3388   0.072   5.057   0.911 -0.6634 -0.3588 -0.4193
32113SOL    HW1 3389   0.016   5.108   0.852 -2.2123 -1.4596  0.0444
32113SOL    HW2 3390   0.011   5.018   0.973  0.9567  1.6810  2.7227
32114SOL     OW 3391   0.470   2.790   9.356  0.0211 -0.1951 -0.5619
32114SOL    HW1 3392   0.383   2.811   9.323  0.1907  0.4973 -0.5705
32114SOL    HW2 3393   0.457   2.768   9.448 -0.3343 -1.3320 -0.8602
32115SOL     OW 3394   9.051   2.195   5.333  0.1107  0.3373 -0.0332
32115SOL    HW1 3395   9.049   2.189   5.238 -0.4860  0.0972 -0.0113
32115SOL    HW2 3396   8.987   2.263   5.355  1.8138  1.9988  0.0978
32116SOL     OW 3397   6.803   7.565  11.476 -0.4659 -0.1227  0.4369
32116SOL    HW1 3398   6.865   7.608  11.535 -0.5435 -0.8529  1.0673
32116SOL    HW2 3399   6.717   7.580  11.515 -0.5034 -0.7399  0.6034
32117SOL     OW 3400   6.919  10.467   0.568 -0.3709 -0.1325 -0.0100
32117SOL    HW1 3401   6.978  10.437   0.498  0.0865  0.0978  0.2677
32117SOL    HW2 3402   6.955  10.553   0.593  0.1159 -0.6819  1.2470
32118SOL     OW 3403  11.415   0.054  10.599 -0.5699  0.4616 -0.4972
32118SOL    HW1 3404  11.327   0.034  10.569 -0.5159  0.9498 -0.9871
32118SOL    HW2 3405  11.461   0.086  10.522 -0.9114  3.4120  0.4130
32119SOL     OW 3406   7.183   5.501  10.717  0.1208  0.1915 -0.2603
32119SOL    HW1 3407   7.164   5.577  10.773  0.9697  0.2120  0.0031
32119SOL    HW2 3408   7.098   5.457  10.708 -0.3999  1.2068 -0.4820
32120SOL     OW 3409   6.328   1.524  11.970  0.0603  0.0656  0.2319
32120SOL    HW1 3410   6.404   1.522  11.912 -0.7949 -1.8023 -0.9394
32120SOL    HW2 3411   6.305   1.432  11.983 -2.6718  0.5290 -0.4595
32121SOL     OW 3412   8.015   8.223   4.734  0.2210 -0.8355  0.0757
32121SOL    HW1 3413   8.065   8.270   4.667 -1.1603 -0.0290 -0.4217
32121SOL    HW2 3414   8.004   8.135   4.697 -0.3429 -0.4614 -0.6798
32122SOL     OW 3415   4.835   0.635  12.563  0.0728 -0.2481 -0.1193
32122SOL    HW1 3416   4.910   0.631  12.504  0.5292 -0.8087  0.4889
32122SOL    HW2 3417   4.851   0.567  12.628  0.0430  0.9421  1.1845
32123SOL     OW 3418   9.600   4.061   8.625 -0.3428  0.0753 -0.1500
32123SOL    HW1 3419   9.527   4.122   8.614 -1.3322 -0.9842  0.3344
32123SOL    HW2 3420   9.593   4.031   8.716  0.9242  0.2152  0.0159
32124SOL     OW 3421  10.818   8.258   3.083 -0.3043  0.3418  0.1183
32124SOL    HW1 3422  10.806   8.352   3.093 -0.4472  0.3007  0.3516
32124SOL    HW2 3423  10.872   8.232   3.158  0.5377  0.3890 -0.4632
32125SOL     OW 3424   5.184   4.798   8.963 -0.3359  0.1112  0.2735
32125SOL    HW1 3425   5.210   4.826   8.875 -1.1938 -0.2044 -0.0958
32125SOL    HW2 3426   5.141   4.714   8.949 -0.9955  0.3311  0.9315
32126SOL     OW 3427   0.979   8.029   0.970 -0.2730  0.2956  0.7425
32126SOL    HW1 3428   0.931   7.963   0.921  0.4764 -0.0768  0.4960
32126SOL    HW2 3429   0.984   8.104   0.910 -0.4630  0.2995  0.7315
32127SOL     OW 3430   4.721  10.538   4.053 -0.3220  0.1709 -0.6723
32127SOL    HW1 3431   4.635  10.502   4.030 -0.0855 -1.5902  0.9493
32127SOL    HW2 3432   4.701  10.608   4.115 -0.6637  1.4030 -2.1090
32128SOL     OW 3433   8.775   2.612   8.640  0.1952  0.6697 -0.1327
32128SOL    HW1 3434   8.777   2.625   8.735 -0.1447 -0.0806 -0.0210
32128SOL    HW2 3435   8.800   2.697   8.605  0.7880  0.8252  0.6341
32129SOL     OW 3436  12.418   5.039   4.783  0.4189  0.2716 -0.6378
32129SOL    HW1 3437  12.390   5.130   4.788  0.7461  0.4053 -1.1630
32129SOL    HW2 3438  12.513   5.043   4.767  0.4805 -0.1581 -0.4065
32130SOL     OW 3439   9.732   0.912   6.010 -0.2025  0.4979  0.4009
32130SOL    HW1 3440   9.646   0.952   6.019 -0.2913  0.1458  1.2395
32130SOL    HW2 3441   9.745   0.903   5.916 -0.4363  1.9104  0.2201
32131SOL     OW 3442   1.830   3.758   0.328 -0.0228  0.0126 -0.2695
32131SOL    HW1 3443   1.761   3.695   0.304  1.2183 -1.6709  0.3596
32131SOL    HW2 3444   1.870   3.782   0.244  0.0996 -0.8077 -0.4588
32132SOL     OW 3445   9.047   8.562  10.751  0.0698  0.5500 -0.9051
32132SOL    HW1 3446   8.998   8.485  10.723  1.4524 -0.9193  0.5216
32132SOL    HW2 3447   9.086   8.595  10.670  0.0976 -0.7340 -1.4484
32133SOL     OW 3448   9.535   0.513   5.902 -0.1806  0.2581  0.2465
32133SOL    HW1 3449   9.557   0.508   5.809 -0.4002 -0.8219  0.2462
32133SOL    HW2 3450   9.612   0.554   5.943 -0.0262  0.6037 -0.3839
32134SOL     OW 3451   5.915   9.667  10.599  0.0014  0.8261 -0.1550
32134SOL    HW1 3452   6.006   9.670  10.630 -0.2185  2.1177  0.4589
32134SOL    HW2 3453   5.876   9.594  10.646  0.5764  0.6129  0.0011
32135SOL     OW 3454   4.013   8.973   4.037 -0.2599 -0.0430  0.0139
32135SOL    HW1 3455   3.919   8.989   4.034 -0.6249 -2.0932 -0.7026
32135SOL    HW2 3456   4.041   8.970   3.946 -0.4635 -4.1578 -0.0911
32136SOL     OW 3457   2.167   2.921   9.911 -0.3225 -0.1797  0.7947
32136SOL    HW1 3458   2.146   2.944   9.821  1.6588  0.0871  0.3565
32136SOL    HW2 3459   2.088   2.943   9.961 -1.0290  0.7847 -0.6924
32137SOL     OW 3460   7.582   6.185   0.687 -0.0800  0.2618  0.0116
32137SOL    HW1 3461   7.582   6.227   0.601 -1.7589  2.6500  1.0738
32137SOL    HW2 3462   7.627   6.247   0.744 -0.4481 -0.5183  1.1859
32138SOL     OW 3463  10.266  11.776  11.520  0.1185  0.2078 -0.0474
32138SOL    HW1 3464  10.309  11.691  11.519  1.2366  0.7424  0.7249
32138SOL    HW2 3465  10.283  11.813  11.434 -2.6090 -1.3759 -1.4100
32139SOL     OW 3466   7.885   0.133   9.461 -0.4372  0.1579  0.2729
32139SOL    HW1 3467   7.896   0.122   9.555 -1.7287 -0.3508  0.3804
32139SOL    HW2 3468   7.822   0.066   9.436 -1.0179  1.0466 -0.7515
32140SOL     OW 3469   9.835  10.654   7.942 -0.3484 -0.3528  0.4220
32140SOL    HW1 3470   9.845  10.749   7.953  0.1002 -0.1008 -1.6968
32140SOL    HW2 3471   9.787  10.626   8.020 -3.3309  2.1103 -0.3116
32141SOL     OW 3472  11.476   0.020   2.757  0.1549 -0.3036 -0.1365
32141SOL    HW1 3473  11.426   0.049   2.681  0.8290 -0.8444 -0.7961
32141SOL    HW2 3474  11.410  -0.020   2.814 -0.8352  2.6317  0.9272
32142SOL     OW 3475   7.927   9.914  10.036  0.4596 -0.2036  0.3807
32142SOL    HW1 3476   7.872   9.977  10.083 -1.1040 -0.0934 -1.4686
32142SOL    HW2 3477   8.012   9.958  10.028 -0.1847  1.0988  0.3558
32143SOL     OW 3478   6.029   9.384   0.262 -0.0190 -0.1098 -0.2510
32143SOL    HW1 3479   5.995   9.440   0.192  0.6552 -1.6124 -1.8543
32143SOL    HW2 3480   6.104   9.339   0.223  1.5593  0.3533  2.0456
32144SOL     OW 3481  11.899  10.896   2.849  0.3452 -0.3083  0.1114
32144SOL    HW1 3482  11.812  10.887   2.890 -0.2844  0.7563 -0.9218
32144SOL    HW2 3483  11.910  10.817   2.796 -0.4015 -0.0341 -0.4657
32145SOL     OW 3484  12.392  12.298   1.252  0.5454 -0.6449  0.6655
32145SOL    HW1 3485  12.481  12.273   1.227  0.3006  0.9939 -2.3952
32145SOL    HW2 3486  12.337  12.266   1.181 -1.2095 -0.7731  1.9980
32146SOL     OW 3487  11.959   8.797   0.557 -0.3458  0.3141 -0.0340
32146SOL    HW1 3488  12.054   8.801   0.564 -0.2646  2.8057 -1.3211
32146SOL    HW2 3489  11.928   8.787   0.647  1.0928 -4.1324  0.2015
32147SOL     OW 3490   3.936   6.443   2.329  0.3834 -0.2980 -0.1250
32147SOL    HW1 3491   3.874   6.507   2.365 -0.3322 -0.6075 -0.7788
32147SOL    HW2 3492   4.003   6.496   2.286 -0.5690  0.0346 -1.2702
32148SOL     OW 3493   3.505  10.878   8.616  0.0941 -0.1720  0.0247
32148SOL    HW1 3494   3.518  10.786   8.596  1.8995 -0.0082  0.2639
32148SOL    HW2 3495   3.447  10.910   8.546  0.1859 -1.2750 -0.5747
32149SOL     OW 3496  10.755   8.585   0.389  0.5071  0.2799  0.3379
32149SOL    HW1 3497  10.789   8.496   0.379 -1.7389 -0.4503 -2.0227
32149SOL    HW2 3498  10.744   8.617   0.299 -1.3494  1.8376  1.0481
32150SOL     OW 3499   4.789  10.035   5.164  0.2705  0.1792  0.3024
32150SOL    HW1 3500   4.742   9.967   5.115  1.6141  0.3495 -1.3316
32150SOL    HW2 3501   4.734  10.112   5.156 -0.5655 -0.3400  0.9211
32151SOL     OW 3502   9.625   5.979   5.727 -0.2472 -0.0446  0.3810
32151SOL    HW1 3503   9.570   6.045   5.768 -2.6522 -1.1379 -0.8486
32151SOL    HW2 3504   9.688   6.029   5.675  0.5951  1.2605  2.5249
32152SOL     OW 3505  11.421   2.291   2.120  0.4682 -0.0443 -0.3753
32152SOL    HW1 3506  11.414   2.284   2.025  3.4142 -0.8952 -0.5978
32152SOL    HW2 3507  11.379   2.211   2.153  0.8887 -0.5478 -1.0441
32153SOL     OW 3508  10.340   0.992   5.194 -0.1434 -0.0268 -0.7426
32153SOL    HW1 3509  10.302   1.002   5.282  0.7919 -0.0118 -0.3251
32153SOL    HW2 3510  10.433   1.008   5.207  0.1033 -0.6893 -1.6307
32154SOL     OW 3511   0.492   4.940   4.823 -0.1716 -0.3792 -0.1974
32154SOL    HW1 3512   0.542   5.021   4.819  0.2978 -0.7188 -2.1954
32154SOL    HW2 3513   0.443   4.937   4.741  0.9565 -2.7949 -0.8663
32155SOL     OW 3514   6.623   1.498  11.379  0.2648 -0.4525 -0.6947
32155SOL    HW1 3515   6.649   1.424  11.434 -0.9968 -1.3757 -1.2768
32155SOL    HW2 3516   6.539   1.526  11.416  1.3461  1.6352  0.3784
32156SOL     OW 3517  12.215  12.127   1.707 -0.0932  0.0438 -0.4281
32156SOL    HW1 3518  12.304  12.149   1.732 -0.9366  1.7693  1.2834
32156SOL    HW2 3519  12.219  12.113   1.612  2.4212 -2.5009 -0.0874
32157SOL     OW 3520   4.855   1.634   0.770  0.5531 -0.2877 -0.1711
32157SOL    HW1 3521   4.835   1.714   0.722  1.8696  0.7605  0.9491
32157SOL    HW2 3522   4.792   1.570   0.738 -0.3543  1.1216 -1.2881
32158SOL     OW 3523   7.407   5.280   0.037  0.4463 -0.0418  0.1591
32158SOL    HW1 3524   7.471   5.210   0.052  1.4429  0.7334 -0.3758
32158SOL    HW2 3525   7.388   5.314   0.124  1.0627 -0.0303  0.2971
32159SOL     OW 3526   4.856   8.997   1.534  0.4648 -0.9346  0.1607
32159SOL    HW1 3527   4.911   8.974   1.609  0.1106 -1.1638  0.3514
32159SOL    HW2 3528   4.918   9.026   1.467  0.6725  2.4569  1.6092
32160SOL     OW 3529  10.383   1.121   8.950 -0.3438 -0.2880  0.7457
32160SOL    HW1 3530  10.325   1.154   9.019 -0.3104 -0.4088  0.8329
32160SOL    HW2 3531  10.393   1.194   8.890 -3.0046 -1.1325 -0.8967
32161SOL     OW 3532   7.296   5.868   9.336  0.1836 -0.2002 -0.5254
32161SOL    HW1 3533   7.251   5.953   9.333  0.9339  0.1848 -1.9082
32161SOL    HW2 3534   7.287   5.839   9.427 -1.9256  0.3402 -0.5139
32162SOL     OW 3535  10.279   5.831   2.586  0.0318 -0.3640 -0.3048
32162SOL    HW1 3536  10.218   5.762   2.558 -0.1458 -0.5879  0.5926
32162SOL    HW2 3537  10.284   5.821   2.681  1.1719 -0.0847 -0.3298
32163SOL     OW 3538  10.969   2.699  10.866 -0.2133  0.3641  0.3814
32163SOL    HW1 3539  10.989   2.743  10.949  0.3915  0.8676 -0.0195
32163SOL    HW2 3540  10.903   2.754  10.824  0.2049  0.6513  0.0892
32164SOL     OW 3541   2.025   3.789   5.851  0.3142  0.0876  0.4232
32164SOL    HW1 3542   2.033   3.808   5.758 -0.1675  0.2626  0.4138
32164SOL    HW2 3543   1.970   3.711   5.854  1.4084 -0.7065  0.5088
32165SOL     OW 3544   5.386  11.584  11.190  0.0176  0.5677 -0.2041
32165SOL    HW1 3545   5.442  11.517  11.150 -0.0844  0.0941  0.4268
32165SOL    HW2 3546   5.303  11.576  11.144  0.2036  0.6965 -0.5662
32166SOL     OW 3547  10.571   1.292   6.512  0.2330  0.1205 -0.5029
32166SOL    HW1 3548  10.666   1.302   6.505  0.2822 -0.4293 -0.6237
32166SOL    HW2 3549  10.542   1.374   6.553  0.6132  0.8620 -1.6482
32167SOL     OW 3550   9.662   4.613   1.905  0.1591  0.2830 -0.5332
32167SOL    HW1 3551   9.675   4.708   1.908  0.0118  0.2722  1.1838
32167SOL    HW2 3552   9.613   4.599   1.824  0.2854  1.6519 -0.8759
32168SOL     OW 3553   0.672   1.407  12.338 -0.6644 -0.1058 -0.2061
32168SOL    HW1 3554   0.712   1.354  12.270 -1.0175  0.0750 -0.5572
32168SOL    HW2 3555   0.641   1.485  12.293 -0.1219  0.4205  0.3132
32169SOL     OW 3556   9.661   0.752  11.114 -0.2183  0.2893 -0.2349
32169SOL    HW1 3557   9.689   0.844  11.112  2.4598 -0.4498 -2.4337
32169SOL    HW2 3558   9.596   0.746  11.044  1.5622  0.0572 -1.9508
32170SOL     OW 3559  10.187   5.760   7.585  0.7952 -0.3539 -0.4145
32170SOL    HW1 3560  10.156   5.684   7.634  0.4242 -1.0926 -1.7241
32170SOL    HW2 3561  10.112   5.820   7.585  0.9929 -0.0979  0.3841
32171SOL     OW 3562   8.865   6.195   4.185 -0.1134 -0.1775 -0.1237
32171SOL    HW1 3563   8.840   6.207   4.276 -0.2784  1.4497 -0.3491
32171SOL    HW2 3564   8.960   6.187   4.187 -0.0232  0.7981  0.1361
32172SOL     OW 3565   7.544   8.270   0.066  0.1038  0.0578 -0.1177
32172SOL    HW1 3566   7.450   8.267   0.049  0.3090 -1.9966 -1.0836
32172SOL    HW2 3567   7.552   8.333   0.138 -2.2370 -1.2060  1.4016
32173SOL     OW 3568  10.366   4.223   3.938  0.2748  0.0564 -0.1219
32173SOL    HW1 3569  10.386   4.256   4.026  0.1073 -1.1370  0.3867
32173SOL    HW2 3570  10.408   4.285   3.879 -0.0514  1.1704  0.7852
32174SOL     OW 3571  10.559   2.763   9.322  0.1321  0.1431  0.0991
32174SOL    HW1 3572  10.600   2.802   9.399 -0.5557 -0.7719  0.9568
32174SOL    HW2 3573  10.497   2.829   9.292  2.5582  1.8141 -1.5969
32175SOL     OW 3574   2.824   2.214   7.180  0.3860  0.1821 -0.4219
32175SOL    HW1 3575   2.876   2.182   7.253  0.5175  1.3205  0.0093
32175SOL    HW2 3576   2.733   2.194   7.205  0.2951  1.8711  0.7889
32176SOL     OW 3577   4.149  10.816   1.473  0.4063  0.0233 -0.3476
32176SOL    HW1 3578   4.162  10.825   1.378  1.1922  0.8250 -0.1768
32176SOL    HW2 3579   4.198  10.737   1.496  1.6154  0.7365 -0.3718
32177SOL     OW 3580   6.651  10.075   6.124 -0.0872  0.2097 -0.6505
32177SOL    HW1 3581   6.735  10.082   6.170 -0.7024 -0.4787  0.6205
32177SOL    HW2 3582   6.585  10.088   6.192 -1.0315 -0.6715 -1.3670
32178SOL     OW 3583   9.530   5.259   0.161 -0.1973 -0.1665  0.6190
32178SOL    HW1 3584   9.559   5.347   0.187  1.7129 -0.1678 -1.2203
32178SOL    HW2 3585   9.562   5.202   0.231  1.8778  0.2009  0.0334
32179SOL     OW 3586   4.567   7.522   2.449 -0.2893 -0.0748 -0.1283
32179SOL    HW1 3587   4.643   7.578   2.460 -0.6246  0.5862 -1.0176
32179SOL    HW2 3588   4.586   7.445   2.501  2.1420 -1.0908 -2.3072
32180SOL     OW 3589   3.525   7.324   4.620  0.5755  0.3433 -0.0203
32180SOL    HW1 3590   3.565   7.237   4.625  0.3832  0.2529 -0.0421
32180SOL    HW2 3591   3.507   7.347   4.711 -0.6151 -0.2219 -0.0971
32181SOL     OW 3592   8.887   5.409   3.392  0.3271 -0.0361  0.1255
32181SOL    HW1 3593   8.951   5.424   3.323 -2.1244  1.1662 -2.0514
32181SOL    HW2 3594   8.841   5.329   3.365 -0.1532  0.0087  0.7891
32182SOL     OW 3595   8.860   7.842  11.414  0.3076 -0.8541 -0.0395
32182SOL    HW1 3596   8.946   7.829  11.455  1.6031  1.2681 -1.8518
32182SOL    HW2 3597   8.877   7.830  11.320 -0.7963  1.9080 -0.6824
32183SOL     OW 3598   6.975   5.675  11.798  0.1786  0.2372  0.1289
32183SOL    HW1 3599   7.005   5.748  11.852  0.3914 -0.0155  0.3558
32183SOL    HW2 3600   6.930   5.617  11.860 -0.8447  0.6408 -0.2124
32184SOL     OW 3601   0.964  10.262   5.487 -0.3215 -0.3970  0.5797
32184SOL    HW1 3602   1.042  10.255   5.432 -1.0466 -0.4487 -0.4565
32184SOL    HW2 3603   0.955  10.356   5.503 -0.8670 -0.2433 -0.5294
32185SOL     OW 3604   1.260   3.909   1.121 -0.3679  0.1708 -0.1611
32185SOL    HW1 3605   1.277   3.920   1.028 -1.2071 -2.1777 -0.6599
32185SOL    HW2 3606   1.344   3.881   1.158 -0.9115 -2.9907 -1.0511
32186SOL     OW 3607   2.264  10.500   3.877 -0.0966  0.4158  0.0901
32186SOL    HW1 3608   2.348  10.462   3.852  0.4167  3.0542 -2.7601
32186SOL    HW2 3609   2.276  10.529   3.967  1.0720 -1.6578  0.6585
32187SOL     OW 3610   1.254   9.149   2.584  0.1202 -0.7227  0.7130
32187SOL    HW1 3611   1.270   9.122   2.674  2.5707 -0.1985  0.4974
32187SOL    HW2 3612   1.308   9.227   2.572 -1.5292  0.3003 -0.7121
32188SOL     OW 3613  12.061   4.217   7.088 -0.4282  0.1403  0.7741
32188SOL    HW1 3614  12.024   4.285   7.032 -0.8602 -0.9275 -0.2823
32188SOL    HW2 3615  11.998   4.145   7.083  1.2377 -1.3376 -0.2550
32189SOL     OW 3616   8.060   0.237   6.935 -0.1954  0.3323  0.2864
32189SOL    HW1 3617   8.028   0.327   6.947 -0.0624  0.3257  0.7172
32189SOL    HW2 3618   8.045   0.195   7.020  1.7677  0.5848  0.8078
32190SOL     OW 3619   2.310   6.920   6.434 -0.2875  0.0227  0.0660
32190SOL    HW1 3620   2.404   6.918   6.415 -0.3145 -3.1063 -0.3381
32190SOL    HW2 3621   2.303   6.880   6.521 -1.1987  1.0302  0.4656
32191SOL     OW 3622   4.735   0.332   2.504 -0.0075 -0.1996 -0.3904
32191SOL    HW1 3623   4.788   0.254   2.515  0.9444  0.2350 -1.6431
32191SOL    HW2 3624   4.681   0.314   2.427 -0.5622 -0.0192 -0.0548
32192SOL     OW 3625   8.143   9.230   4.032 -0.0628 -0.0125  0.2188
32192SOL    HW1 3626   8.229   9.260   4.061 -0.4873  0.1870  1.3127
32192SOL    HW2 3627   8.155   9.136   4.015  1.0560  0.5189 -2.4245
32193SOL     OW 3628   7.275   3.395   5.056  0.3663  0.1148 -0.0279
32193SOL    HW1 3629   7.243   3.305   5.063  0.3699  0.1168  0.0154
32193SOL    HW2 3630   7.246   3.424   4.970  0.7864 -0.0910 -0.2423
32194SOL     OW 3631   2.406   7.295   5.232 -0.5971  0.0845  0.1518
32194SOL    HW1 3632   2.310   7.295   5.227 -0.6155  1.5496  0.1429
32194SOL    HW2 3633   2.434   7.258   5.148 -1.1448 -0.9676  0.4129
32195SOL     OW 3634   8.622   6.492  10.288 -0.4945 -0.0362 -0.6339
32195SOL    HW1 3635   8.539   6.531  10.260 -1.5346 -1.3353  0.5276
32195SOL    HW2 3636   8.674   6.485  10.207 -0.5297  2.9596 -1.0287
32196SOL     OW 3637  12.173   6.042  12.528 -0.0950 -0.7407 -0.5999
32196SOL    HW1 3638  12.243   5.977  12.526  0.3797 -0.3269  0.8650
32196SOL    HW2 3639  12.106   6.007  12.470  0.2246 -2.4347 -0.0140
32197SOL     OW 3640  10.157  11.763   8.868  0.0365  0.0792 -0.0650
32197SOL    HW1 3641  10.104  11.837   8.837  1.1175  0.7209 -0.4377
32197SOL    HW2 3642  10.118  11.687   8.824 -1.7782  0.2329  1.1728
32198SOL     OW 3643  12.495   5.925   9.596 -0.2260 -0.0818  0.0728
32198SOL    HW1 3644  12.443   5.847   9.576  0.2242 -0.3085 -0.2058
32198SOL    HW2 3645  12.436   5.998   9.575 -0.1550 -0.3268 -1.0329
32199SOL     OW 3646   7.270   9.393   0.605  0.8908 -0.1982  0.1602
32199SOL    HW1 3647   7.361   9.424   0.598  1.5559 -1.1735  3.1785
32199SOL    HW2 3648   7.275   9.301   0.581  0.5262 -0.0763 -0.4024
32200SOL     OW 3649   1.508  11.506   6.516 -0.4577  0.6732 -0.2427
32200SOL    HW1 3650   1.499  11.426   6.463 -0.7009  0.0644  0.7005
32200SOL    HW2 3651   1.437  11.563   6.486 -1.3556 -0.1561  0.2647
32201SOL     OW 3652   9.553  12.134   0.834  0.2845  0.1414  0.2637
32201SOL    HW1 3653   9.647  12.135   0.820  0.2674  1.2453  0.1722
32201SOL    HW2 3654   9.519  12.206   0.781 -0.6562 -0.4329  0.0395
32202SOL     OW 3655  11.468   3.098  10.683 -0.4257  0.3370 -0.0592
32202SOL    HW1 3656  11.463   3.183  10.727  0.0728  0.3693 -0.0591
32202SOL    HW2 3657  11.417   3.039  10.738 -2.1914  0.9824 -0.9220
32203SOL     OW 3658   9.619   0.725   0.461  0.4164  0.2499  0.9299
32203SOL    HW1 3659   9.684   0.734   0.531  1.8719 -1.7010 -0.0684
32203SOL    HW2 3660   9.599   0.815   0.435  1.0740  0.9555  2.7257
32204SOL     OW 3661  11.593   8.682   5.021  0.2938  0.2566  0.3424
32204SOL    HW1 3662  11.552   8.706   5.104 -0.2598 -2.0624  0.7885
32204SOL    HW2 3663  11.555   8.743   4.957 -1.2807  0.3672  1.3285
32205SOL     OW 3664   9.608   3.250   0.807  0.4123  0.3123  0.8286
32205SOL    HW1 3665   9.542   3.190   0.773  0.0495  0.6987  0.8487
32205SOL    HW2 3666   9.558   3.323   0.842  0.8965  1.1019 -0.1095
32206SOL     OW 3667   6.172   0.117   8.384 -0.3420  0.1914  0.2023
32206SOL    HW1 3668   6.198   0.159   8.302  0.6581 -1.1631 -0.2162
32206SOL    HW2 3669   6.081   0.091   8.370  0.1215 -0.9594 -0.9250
32207SOL     OW 3670   2.893   9.035   2.962 -0.2772 -0.6515 -0.8727
32207SOL    HW1 3671   2.852   9.036   2.875  0.0504 -0.6878 -1.0261
32207SOL    HW2 3672   2.899   9.127   2.986 -0.1346 -0.6277 -0.9968
32208SOL     OW 3673   6.274  10.155   6.184  0.7853 -0.3138 -0.0602
32208SOL    HW1 3674   6.221  10.164   6.263 -0.5913  0.2363 -1.0212
32208SOL    HW2 3675   6.254  10.067   6.151  0.2410  0.0107 -0.5911
32209SOL     OW 3676   3.219   2.984   1.451  0.2113  0.2447 -0.4805
32209SOL    HW1 3677   3.219   3.080   1.456  0.3621  0.2007  0.6094
32209SOL    HW2 3678   3.154   2.964   1.383  0.1629  1.1138 -0.7032
32210SOL     OW 3679   2.912   0.266   5.498  0.7265  0.1373  0.4263
32210SOL    HW1 3680   2.853   0.239   5.568 -0.2061  0.1696 -0.3207
32210SOL    HW2 3681   2.999   0.264   5.537  0.4557 -1.8665  0.9989
32211SOL     OW 3682  11.607   3.919   9.257  0.5829  0.2960 -0.1026
32211SOL    HW1 3683  11.585   3.932   9.165  0.1827 -0.6948 -0.1593
32211SOL    HW2 3684  11.631   4.006   9.289  0.1653  0.7455 -0.9901
32212SOL     OW 3685  11.576   5.443  10.711  0.0247 -0.0348  0.2204
32212SOL    HW1 3686  11.537   5.369  10.759 -1.4319 -1.3377 -2.6931
32212SOL    HW2 3687  11.511   5.513  10.718 -0.0125 -0.0856  0.4085
32213SOL     OW 3688   1.571   5.118  11.048 -0.2977 -0.0738  0.1876
32213SOL    HW1 3689   1.537   5.108  11.137 -1.3508  1.7028  0.0356
32213SOL    HW2 3690   1.557   5.210  11.027  2.2009  0.1494 -0.9232
32214SOL     OW 3691  12.248  10.904   6.849 -0.9125  0.1375 -0.0183
32214SOL    HW1 3692  12.219  10.969   6.913 -0.2262 -0.0261  0.4762
32214SOL    HW2 3693  12.323  10.861   6.891  0.7472  1.2644 -1.6710
32215SOL     OW 3694   1.329   3.339   5.755  1.1127  0.0555 -0.2524
32215SOL    HW1 3695   1.252   3.347   5.810  0.6380 -1.0668 -0.7294
32215SOL    HW2 3696   1.365   3.428   5.750  0.5513  0.3657  0.9562
32216SOL     OW 3697  10.777   1.659  11.145  0.6068 -0.2631 -0.0063
32216SOL    HW1 3698  10.766   1.661  11.240 -2.6425  1.1760 -0.2778
32216SOL    HW2 3699  10.791   1.566  11.125  1.3193 -0.5977  1.8473
32217SOL     OW 3700   2.366  10.563   5.482 -0.4371  0.1755 -0.2492
32217SOL    HW1 3701   2.292  10.528   5.532  0.3745 -0.0768  0.8168
32217SOL    HW2 3702   2.386  10.494   5.418  0.6174 -1.0366  1.2860
32218SOL     OW 3703   9.996   5.179   5.479  0.1530 -0.2034  0.1996
32218SOL    HW1 3704   9.939   5.104   5.494  3.1225 -2.4182  1.6131
32218SOL    HW2 3705  10.001   5.223   5.564 -0.9860  1.2209 -0.4361
32219SOL     OW 3706  10.541  10.481   7.169 -0.1747 -0.0463  0.5844
32219SOL    HW1 3707  10.574  10.571   7.163  0.9771 -0.3359  2.1252
32219SOL    HW2 3708  10.472  10.477   7.102  0.7064  1.5489 -0.4981
32220SOL     OW 3709   8.520  11.075  11.252  0.0361  0.0067 -0.0996
32220SOL    HW1 3710   8.445  11.083  11.311 -0.0575 -2.5680  0.2693
32220SOL    HW2 3711   8.511  11.148  11.191 -0.9241  1.6541  1.8911
32221SOL     OW 3712   5.927   8.943   5.379  0.4288 -0.5284 -0.2736
32221SOL    HW1 3713   5.833   8.957   5.371  0.1739 -1.7572  0.3356
32221SOL    HW2 3714   5.965   9.029   5.362 -0.6778 -0.3840 -2.3670
32222SOL     OW 3715   3.425   1.388   5.426 -0.4814 -0.0101 -0.5683
32222SOL    HW1 3716   3.368   1.326   5.380 -1.2127 -0.4757  0.9192
32222SOL    HW2 3717   3.370   1.464   5.442 -0.7811 -0.5081  0.9786
32223SOL     OW 3718   8.667   7.560   4.443  0.0538 -0.1473  0.4927
32223SOL    HW1 3719   8.682   7.652   4.424 -1.2675  0.6293  2.8231
32223SOL    HW2 3720   8.717   7.543   4.523  1.4518 -1.8844 -0.6874
32224SOL     OW 3721   9.718   3.900   7.824 -0.4010 -0.5160 -0.0500
32224SOL    HW1 3722   9.667   3.822   7.846 -0.9148 -0.7792 -1.9821
32224SOL    HW2 3723   9.806   3.880   7.855 -0.9883 -0.9420  1.4294
32225SOL     OW 3724  10.902   4.577   5.065  0.2936 -0.5597  0.2752
32225SOL    HW1 3725  10.811   4.582   5.093  0.8559 -0.5460  2.3349
32225SOL    HW2 3726  10.911   4.490   5.026 -1.0685  0.2568 -2.0398
32226SOL     OW 3727  10.247   5.315   6.208 -0.7616  0.1515  0.6513
32226SOL    HW1 3728  10.151   5.319   6.210 -0.8725  0.1271 -1.8250
32226SOL    HW2 3729  10.269   5.316   6.115  1.6897  0.8013  1.1770
32227SOL     OW 3730   6.291  10.110   2.156 -0.1745 -0.3730 -0.1823
32227SOL    HW1 3731   6.204  10.071   2.166 -0.0697 -0.4400  0.4790
32227SOL    HW2 3732   6.349  10.054   2.208  0.0206  0.4989  0.5661
32228SOL     OW 3733   8.865   9.188   0.628 -0.4645  0.5626 -0.0311
32228SOL    HW1 3734   8.856   9.094   0.615 -2.0647  0.8054 -0.7605
32228SOL    HW2 3735   8.790   9.213   0.682 -0.2884  1.4908 -0.1893
32229SOL     OW 3736   8.748  12.493   4.547 -0.1021  1.0408  0.2432
32229SOL    HW1 3737   8.716  12.579   4.521  0.5269  1.7359  1.6321
32229SOL    HW2 3738   8.752  12.442   4.466  2.3736  3.2159 -1.1467
32230SOL     OW 3739   7.218   5.335   1.633  0.0274 -0.2452  0.2430
32230SOL    HW1 3740   7.137   5.346   1.685 -0.3875 -0.2981 -0.3831
32230SOL    HW2 3741   7.277   5.403   1.667 -0.2191 -0.3046  0.8136
32231SOL     OW 3742  10.788   4.422   8.773  0.1220  0.2635  0.7100
32231SOL    HW1 3743  10.729   4.440   8.699  0.7412  1.1487  0.4093
32231SOL    HW2 3744  10.875   4.436   8.737  0.4049  1.8477  1.8887
32232SOL     OW 3745   7.537   5.631   2.676 -0.1585 -0.8541 -0.2118
32232SOL    HW1 3746   7.500   5.558   2.626  1.0722 -1.1221 -0.7643
32232SOL    HW2 3747   7.570   5.691   2.609 -0.5482 -0.0990  0.2540
32233SOL     OW 3748   7.620   5.590   2.938 -0.0142 -0.0647 -0.2503
32233SOL    HW1 3749   7.702   5.638   2.948 -0.4582  0.6310  0.0825
32233SOL    HW2 3750   7.611   5.579   2.843  0.4528 -0.1387 -0.2924
32234SOL     OW 3751   2.179  12.388   0.467  0.2648  0.1704  0.1481
32234SOL    HW1 3752   2.234  12.320   0.428 -0.1263 -0.4534  0.6638
32234SOL    HW2 3753   2.204  12.468   0.421  0.0468 -0.4879 -1.1611
32235SOL     OW 3754   9.150   6.975   2.893 -0.0057 -0.7090  0.0713
32235SOL    HW1 3755   9.178   6.982   2.801  0.8378 -0.6387  0.3275
32235SOL    HW2 3756   9.088   6.902   2.893  0.7973 -1.4097 -0.3817
32236SOL     OW 3757   5.173   2.730  10.516 -0.2788 -0.6258 -0.0171
32236SOL    HW1 3758   5.254   2.682  10.533 -0.2706 -0.5307  0.2204
32236SOL    HW2 3759   5.103   2.668  10.537 -0.3018  0.0288  2.1232
32237SOL     OW 3760   1.717   2.938   3.447 -0.0394  0.6483 -0.1275
32237SOL    HW1 3761   1.790   2.976   3.497  0.1172  0.2436 -0.0495
32237SOL    HW2 3762   1.758   2.882   3.382 -0.2600  0.8751 -0.4679
32238SOL     OW 3763   0.618   4.059   3.033  0.5146  0.6615 -0.0199
32238SOL    HW1 3764   0.614   4.084   2.941 -0.8134  1.9897  0.3531
32238SOL    HW2 3765   0.532   4.024   3.053  0.9369 -0.0638  0.6134
32239SOL     OW 3766  10.202   3.614   3.154 -0.3836 -0.3743  0.5196
32239SOL    HW1 3767  10.187   3.641   3.245  1.8700 -2.4066  1.6003
32239SOL    HW2 3768  10.124   3.564   3.130 -0.6996 -0.4083  1.5799
32240SOL     OW 3769   3.088   8.954   6.599 -0.0020 -0.2960 -0.4982
32240SOL    HW1 3770   3.026   9.026   6.600  1.1729  0.7662  1.0707
32240SOL    HW2 3771   3.067   8.903   6.677  0.5521 -0.4151 -0.4228
32241SOL     OW 3772   3.179   5.319   8.272  0.1625 -0.4198 -0.5067
32241SOL    HW1 3773   3.097   5.353   8.236 -0.0976  1.0939  1.3018
32241SOL    HW2 3774   3.212   5.258   8.207 -2.4893 -1.1910 -1.2016
32242SOL     OW 3775  10.360   0.198   5.501 -0.0037 -0.4966 -0.4850
32242SOL    HW1 3776  10.352   0.291   5.519 -0.1027 -0.7684  1.0029
32242SOL    HW2 3777  10.270   0.166   5.499  0.0679 -0.7344  0.0241
32243SOL     OW 3778   9.813   1.736   0.313  0.2832  0.5933 -0.1020
32243SOL    HW1 3779   9.791   1.823   0.281  0.9955  0.7586 -0.1575
32243SOL    HW2 3780   9.749   1.678   0.273 -1.4406  1.3214  1.4446
32244SOL     OW 3781   1.215  11.545  11.272  0.3638 -0.1818 -0.2345
32244SOL    HW1 3782   1.168  11.606  11.329  0.4467 -0.5390  0.2237
32244SOL    HW2 3783   1.162  11.465  11.273  0.4782 -0.2606 -0.4846
32245SOL     OW 3784   1.911  10.095   2.843 -0.5255  0.0919 -0.1294
32245SOL    HW1 3785   1.906  10.000   2.853  1.3509 -0.0906 -0.6332
32245SOL    HW2 3786   1.957  10.109   2.761  0.3228  1.4127  0.5205
32246SOL     OW 3787   1.831   0.337   7.267 -0.4056  0.7274  0.0225
32246SOL    HW1 3788   1.799   0.371   7.351 -2.0207 -1.7631  0.5385
32246SOL    HW2 3789   1.901   0.276   7.290 -0.8352  0.0523 -0.4108
32247SOL     OW 3790  11.593   4.619   9.106 -0.2973 -0.2060  0.3077
32247SOL    HW1 3791  11.635   4.657   9.184 -0.5068  0.7235 -0.0129
32247SOL    HW2 3792  11.526   4.683   9.082  0.1103 -0.2179 -0.9448
32248SOL     OW 3793   6.989   2.673   1.591 -0.0638  0.0587  0.1329
32248SOL    HW1 3794   6.933   2.600   1.618 -0.3865  0.9202  1.9414
32248SOL    HW2 3795   6.960   2.746   1.645  1.4167  1.0860 -0.4114
32249SOL     OW 3796   2.299  10.211   4.023  0.1089 -0.5612  0.3275
32249SOL    HW1 3797   2.285  10.190   3.931  1.5023  1.2306 -0.3491
32249SOL    HW2 3798   2.226  10.168   4.069 -1.0663 -0.8153 -1.6739
32250SOL     OW 3799   7.850   7.908   1.362 -0.2133 -0.3957  0.8305
32250SOL    HW1 3800   7.938   7.908   1.401  1.4832 -0.0681 -2.6062
32250SOL    HW2 3801   7.830   8.001   1.348 -0.9300 -0.4893  1.2259
32251SOL     OW 3802   3.726   2.420   0.329  0.0822 -0.1238  0.4946
32251SOL    HW1 3803   3.700   2.503   0.289 -0.2703 -0.7883 -0.7153
32251SOL    HW2 3804   3.728   2.438   0.423  0.2081  1.2972  0.2426
32252SOL     OW 3805   5.583   9.490   9.772 -0.3191  0.8905 -0.3812
32252SOL    HW1 3806   5.552   9.449   9.691  1.7375 -0.6869 -0.4572
32252SOL    HW2 3807   5.567   9.584   9.760 -4.4000  0.3469 -0.5896
32253SOL     OW 3808  10.344  11.736   6.117  0.5513 -0.0700 -0.8734
32253SOL    HW1 3809  10.392  11.654   6.106  2.5228  0.7844  0.7624
32253SOL    HW2 3810  10.411  11.801   6.138 -1.0466  1.8062 -1.2241
32254SOL     OW 3811  11.677  11.243   2.762  0.0251  0.3383  0.0852
32254SOL    HW1 3812  11.613  11.197   2.708  0.3385 -0.2593  0.2189
32254SOL    HW2 3813  11.653  11.221   2.852  0.8226 -0.4457  0.1189
32255SOL     OW 3814   9.544   8.719   9.707 -0.0932 -0.3580  0.3650
32255SOL    HW1 3815   9.608   8.783   9.738  2.1912 -2.7470  0.9659
32255SOL    HW2 3816   9.531   8.740   9.615  0.8826  0.7418  0.4570
32256SOL     OW 3817   7.636   3.417  11.689 -0.3769  0.0329  0.2752
32256SOL    HW1 3818   7.561   3.403  11.746  0.2799  1.8153  1.6548
32256SOL    HW2 3819   7.686   3.336  11.695 -0.1819  0.2689  2.4935
32257SOL     OW 3820   2.926   0.951  10.347  0.2225  0.6838 -0.2524
32257SOL    HW1 3821   2.953   0.895  10.420  1.2197  1.8812  0.3212
32257SOL    HW2 3822   2.974   0.915  10.272 -1.0133 -0.7207 -0.4159
32258SOL     OW 3823   3.874   8.524   7.938 -0.2345 -0.2581  0.2902
32258SOL    HW1 3824   3.849   8.434   7.916  0.1593 -0.3536  0.2191
32258SOL    HW2 3825   3.910   8.517   8.027 -1.4699  0.0594  0.8412
32259SOL     OW 3826   1.910   9.086   0.963  0.2343 -0.1486  0.1380
32259SOL    HW1 3827   1.995   9.057   0.930 -0.1260 -0.9749 -0.0969
32259SOL    HW2 3828   1.847   9.031   0.917 -0.6236  2.1726 -1.6581
32260SOL     OW 3829   3.855  11.834  11.943  0.1585 -0.0482 -0.3010
32260SOL    HW1 3830   3.787  11.867  12.002  1.0481  0.0134  0.7202
32260SOL    HW2 3831   3.826  11.746  11.921 -2.5722  1.4524 -3.5603
32261SOL     OW 3832   2.175   6.411   9.723 -0.5118  0.1978  0.5442
32261SOL    HW1 3833   2.158   6.470   9.797  0.3502  1.0266  0.1011
32261SOL    HW2 3834   2.099   6.352   9.722 -0.8145  0.5250  1.7366
32262SOL     OW 3835   9.606   6.778   9.078 -0.2250 -0.1613 -0.5653
32262SOL    HW1 3836   9.578   6.687   9.069  0.1825 -0.3796  0.3445
32262SOL    HW2 3837   9.675   6.789   9.013  0.2048 -0.7040 -0.2094
32263SOL     OW 3838   7.990   6.984   9.944 -0.4443 -0.0527  0.2327
32263SOL    HW1 3839   8.031   6.953  10.025 -1.4858  0.5472  1.0111
32263SOL    HW2 3840   8.056   7.040   9.903  0.2557 -0.7151  0.4259
32264SOL     OW 3841   4.755   0.431   0.440  0.5131  0.1974  0.1652
32264SOL    HW1 3842   4.808   0.354   0.463  0.9175 -0.3980 -2.4180
32264SOL    HW2 3843   4.665   0.402   0.453  0.6838 -0.4598 -0.0565
32265SOL     OW 3844   7.187   9.512  10.222 -0.2960  0.1273  0.1709
32265SOL    HW1 3845   7.091   9.503  10.216 -0.3768  0.8452  0.2291
32265SOL    HW2 3846   7.200   9.605  10.240  0.4114 -0.0110  0.3680
32266SOL     OW 3847   8.936   2.158   7.701  0.4728  0.3937  0.0673
32266SOL    HW1 3848   8.961   2.080   7.750 -0.2383  0.4338  0.5222
32266SOL    HW2 3849   9.018   2.206   7.687  0.7172  0.3123  1.1097
32267SOL     OW 3850  10.907   6.005  10.936  0.2874  0.4642  0.5546
32267SOL    HW1 3851  10.861   5.953  10.870 -0.8460  0.0767  1.6077
32267SOL    HW2 3852  10.872   6.093  10.926 -0.8501  0.1457  1.4348
32268SOL     OW 3853   4.963   4.717   8.435 -0.3549 -0.2910 -0.7020
32268SOL    HW1 3854   4.968   4.810   8.457  2.1518 -0.6454  0.5361
32268SOL    HW2 3855   4.892   4.683   8.491  1.1851  0.2252  1.7128
32269SOL     OW 3856   0.867  12.207   7.319  0.2281  0.3396  0.6670
32269SOL    HW1 3857   0.886  12.288   7.367 -3.0668  1.1364  0.8922
32269SOL    HW2 3858   0.900  12.223   7.231  0.1754  1.6923  0.8695
32270SOL     OW 3859   9.525   2.938   6.270  0.0872  0.0950  0.3831
32270SOL    HW1 3860   9.454   2.966   6.213 -1.5545 -2.3943  1.0225
32270SOL    HW2 3861   9.480   2.908   6.350  2.0350  0.2920  1.6047
32271SOL     OW 3862  12.587   8.600   0.250  0.4063 -0.3916  0.1323
32271SOL    HW1 3863  12.550   8.688   0.243  0.3698 -0.2077  2.0630
32271SOL    HW2 3864  12.522   8.543   0.209 -0.4108  0.2944  0.4493
32272SOL     OW 3865  11.754   3.347   8.913 -0.0865 -0.0517  0.5566
32272SOL    HW1 3866  11.684   3.408   8.936 -0.0932 -0.2663  1.1067
32272SOL    HW2 3867  11.762   3.355   8.818 -0.0410  0.8580  0.6309
32273SOL     OW 3868   6.196   8.357   5.986 -0.5498  0.0447 -0.1330
32273SOL    HW1 3869   6.246   8.350   5.905 -1.3353 -0.0682 -0.6149
32273SOL    HW2 3870   6.164   8.268   6.003  1.1492 -0.3497  1.3229
32274SOL     OW 3871   0.599   1.177   6.396 -0.2762 -0.1310 -0.1627
32274SOL    HW1 3872   0.564   1.177   6.485 -0.9871  0.5357 -0.4320
32274SOL    HW2 3873   0.533   1.130   6.344 -0.9397  1.3772 -0.7246
32275SOL     OW 3874  11.884   5.378   7.619  0.4668  0.0426 -0.1651
32275SOL    HW1 3875  11.854   5.432   7.547 -0.7147 -1.4383 -0.8267
32275SOL    HW2 3876  11.887   5.437   7.694  0.2741  1.2592 -1.0930
32276SOL     OW 3877   9.809   9.370   3.366 -0.4033 -0.0914 -0.3031
32276SOL    HW1 3878   9.743   9.439   3.358 -1.2972 -0.6137  1.7451
32276SOL    HW2 3879   9.854   9.389   3.448  0.7772 -0.7780 -0.7678
32277SOL     OW 3880   3.278   3.966   1.959  0.5407 -0.4040 -0.1420
32277SOL    HW1 3881   3.330   4.045   1.945  0.1095 -0.4728 -2.6942
32277SOL    HW2 3882   3.342   3.895   1.959  0.6841 -0.2984 -1.1116
32278SOL     OW 3883   1.875   4.863  11.572 -0.3040 -0.1836 -0.0688
32278SOL    HW1 3884   1.849   4.786  11.521  1.0849 -0.4997 -0.3486
32278SOL    HW2 3885   1.817   4.933  11.541  0.3591 -0.4077 -1.9941
32279SOL     OW 3886   0.939   2.051   2.028  0.6319 -0.0130 -0.0328
32279SOL    HW1 3887   0.920   2.118   1.962 -0.3139 -0.2647 -0.0294
32279SOL    HW2 3888   0.914   2.092   2.111  0.3982 -0.2324  0.0070
32280SOL     OW 3889   2.605   9.254   2.943  0.2444 -0.0626 -0.5000
32280SOL    HW1 3890   2.607   9.159   2.929  2.4381  0.1408 -2.1415
32280SOL    HW2 3891   2.530   9.284   2.892 -0.9919 -0.9551  0.7274
32281SOL     OW 3892  10.780   8.236   1.654  0.2831 -0.1054 -0.7570
32281SOL    HW1 3893  10.728   8.316   1.667 -0.6603 -0.8667  0.2745
32281SOL    HW2 3894  10.867   8.268   1.629 -0.1448  1.2349 -0.6114
32282SOL     OW 3895   5.540   8.576   3.890  0.5257 -0.0592 -0.1407
32282SOL    HW1 3896   5.493   8.511   3.943  0.9849 -1.3709 -1.2882
32282SOL    HW2 3897   5.474   8.643   3.870 -0.2376 -0.6947  0.2074
32283SOL     OW 3898   0.862   7.536  10.501  0.0543 -0.7798  0.0996
32283SOL    HW1 3899   0.952   7.556  10.477 -0.0603 -0.7939 -0.3489
32283SOL    HW2 3900   0.811   7.553  10.422 -0.4318 -0.1220  0.5398
32284SOL     OW 3901   0.812  10.012   9.230  0.9197 -0.3978 -0.6822
32284SOL    HW1 3902   0.728  10.028   9.274  1.4683 -0.0564  0.2701
32284SOL    HW2 3903   0.788   9.984   9.142 -0.1949 -0.1346 -0.4765
32285SOL     OW 3904   6.893  10.347  11.858  0.2149 -0.2246  0.4849
32285SOL    HW1 3905   6.920  10.374  11.771 -2.5026  0.7040 -0.1535
32285SOL    HW2 3906   6.855  10.260  11.846 -1.1274  0.3431  0.5258
32286SOL     OW 3907   7.657   1.885   1.713 -0.4506 -0.5403  0.0637
32286SOL    HW1 3908   7.629   1.939   1.787 -0.6228 -1.8381  0.9850
32286SOL    HW2 3909   7.715   1.820   1.752 -1.2318 -1.7859 -0.7700
32287SOL     OW 3910   3.261   2.308   2.214 -0.2952 -0.5656 -0.4228
32287SOL    HW1 3911   3.327   2.258   2.261 -0.4581 -0.2625  0.1355
32287SOL    HW2 3912   3.184   2.251   2.213 -1.1576  0.4534  2.0425
32288SOL     OW 3913   5.488   1.348   4.025  0.3792  0.2777 -0.1428
32288SOL    HW1 3914   5.569   1.355   4.077  0.1169  0.0296  0.3114
32288SOL    HW2 3915   5.510   1.386   3.940  1.5215 -1.3725 -0.6348
32289SOL     OW 3916  11.063   1.312   0.638 -0.1640 -0.3951  0.3646
32289SOL    HW1 3917  10.971   1.316   0.612 -0.2861  0.4485  0.8982
32289SOL    HW2 3918  11.105   1.260   0.570 -1.0733 -0.9683  0.2312
32290SOL     OW 3919   1.816   1.858   3.958 -0.7540  0.6068  1.2839
32290SOL    HW1 3920   1.731   1.827   3.928 -0.5424  0.3968  0.8878
32290SOL    HW2 3921   1.838   1.931   3.899 -1.0023  1.1609  1.8672
32291SOL     OW 3922   4.269   4.208   8.269 -0.1514  0.4734 -0.0577
32291SOL    HW1 3923   4.193   4.170   8.226  0.3017  1.3387 -1.7108
32291SOL    HW2 3924   4.233   4.252   8.346 -1.3707  1.1105 -0.9578
32292SOL     OW 3925   5.620   9.516   8.317  0.6107 -0.4632  0.1649
32292SOL    HW1 3926   5.634   9.431   8.357  0.3124 -0.2877  0.6592
32292SOL    HW2 3927   5.566   9.564   8.381 -1.3194 -0.7583 -1.1631
32293SOL     OW 3928   4.333   8.098   0.443  0.0503  0.0804  0.1196
32293SOL    HW1 3929   4.342   8.138   0.530 -0.4988 -1.0327  0.7047
32293SOL    HW2 3930   4.299   8.168   0.388  1.3671  1.1026  0.5464
32294SOL     OW 3931   5.257   0.175   2.042 -0.4013 -0.4029  0.2873
32294SOL    HW1 3932   5.217   0.225   2.114  2.2084 -0.5183  1.9697
32294SOL    HW2 3933   5.342   0.217   2.028  0.1023 -1.7983 -1.1888
32295SOL     OW 3934   8.656  11.596   1.456  0.1881 -0.1351 -0.1325
32295SOL    HW1 3935   8.635  11.622   1.546 -1.5894  2.1595 -1.0934
32295SOL    HW2 3936   8.651  11.501   1.457  0.2673 -0.1762  2.2049
32296SOL     OW 3937  12.365   1.732   5.952  0.3289  0.2664  0.7087
32296SOL    HW1 3938  12.450   1.702   5.986  0.5208 -0.5703 -0.4588
32296SOL    HW2 3939  12.301   1.699   6.015  0.7030 -1.0108  0.4483
32297SOL     OW 3940   9.784  10.465  10.901 -0.9236 -0.0459 -0.1448
32297SOL    HW1 3941   9.816  10.413  10.828  0.3566 -1.2082  1.1749
32297SOL    HW2 3942   9.689  10.463  10.893 -0.8566 -1.5620 -0.8304
32298SOL     OW 3943   4.574  10.735   5.014 -0.0577  0.3121  0.1170
32298SOL    HW1 3944   4.632  10.730   5.090 -0.5400 -0.5030  0.4459
32298SOL    HW2 3945   4.619  10.682   4.948 -0.5646 -0.5898  0.4774
32299SOL     OW 3946   7.854   0.389   5.064 -0.3017 -0.4346  0.3648
32299SOL    HW1 3947   7.804   0.337   5.126  0.3398 -1.7170 -0.1592
32299SOL    HW2 3948   7.926   0.426   5.116  0.6802 -2.1284  0.2851
32300SOL     OW 3949   9.806  11.168   8.079  0.2019 -0.1509  0.0750
32300SOL    HW1 3950   9.746  11.181   8.153  1.7836 -2.3633  1.9152
32300SOL    HW2 3951   9.765  11.213   8.006 -0.7530  3.4992  2.6012
32301SOL     OW 3952   1.184   4.395  10.876  0.0484  0.2115  0.7106
32301SOL    HW1 3953   1.234   4.324  10.916 -0.2451 -0.0933  0.5416
32301SOL    HW2 3954   1.210   4.473  10.926  1.6452  0.2925 -0.1766
32302SOL     OW 3955   5.322   4.438  11.578 -0.0099  0.0618  0.3920
32302SOL    HW1 3956   5.356   4.460  11.491 -0.0521  0.6323  0.5144
32302SOL    HW2 3957   5.227   4.445  11.569 -0.0231 -0.0636  0.4339
32303SOL     OW 3958   1.794   1.120   6.841 -0.2634  0.1378  0.3663
32303SOL    HW1 3959   1.708   1.136   6.804 -0.5508 -0.2884  0.8276
32303SOL    HW2 3960   1.856   1.148   6.774 -0.7473  1.6551  0.5298
32304SOL     OW 3961  10.735   4.667  10.535 -0.3048  0.1644 -0.4609
32304SOL    HW1 3962  10.643   4.652  10.559 -0.3048  0.2250 -0.4213
32304SOL    HW2 3963  10.748   4.614  10.456 -0.3690  0.1423 -0.4573
32305SOL     OW 3964   4.122   9.214   2.039 -0.3194 -0.2537 -0.6502
32305SOL    HW1 3965   4.201   9.189   2.087  0.0848  2.2147  0.1149
32305SOL    HW2 3966   4.144   9.199   1.947  0.3142 -1.4046 -0.3274
32306SOL     OW 3967   9.858  12.237   8.943 -0.6258 -0.1742 -0.1175
32306SOL    HW1 3968   9.901  12.173   9.000 -0.1979  2.9295  3.4729
32306SOL    HW2 3969   9.764  12.221   8.956 -0.5392 -1.2759 -0.8041
32307SOL     OW 3970   8.742   8.061  11.572 -0.3499 -0.5746 -0.1254
32307SOL    HW1 3971   8.729   8.000  11.644 -2.6088 -0.9486 -0.7643
32307SOL    HW2 3972   8.795   8.013  11.509  0.0847 -0.9124  0.4865
32308SOL     OW 3973   0.508   1.388   2.334  0.4492  0.3085 -0.5141
32308SOL    HW1 3974   0.426   1.405   2.288  0.9479  1.0410 -1.1464
32308SOL    HW2 3975   0.481   1.367   2.423 -0.4089  0.8384 -0.6377
32309SOL     OW 3976   3.410   8.717   5.806  0.5434 -0.2162 -0.6719
32309SOL    HW1 3977   3.406   8.662   5.884  0.0112 -0.2157 -0.6955
32309SOL    HW2 3978   3.323   8.709   5.766 -0.0174  1.6947  0.0382
32310SOL     OW 3979   3.008   2.687   2.585 -0.0173  0.1824 -0.6991
32310SOL    HW1 3980   3.089   2.734   2.606  0.2040 -0.0152 -1.0987
32310SOL    HW2 3981   2.946   2.715   2.652  0.0442  1.2186 -1.0604
32311SOL     OW 3982   6.729   5.153   5.669  0.5591  0.1441 -0.0291
32311SOL    HW1 3983   6.761   5.134   5.757 -2.0196  0.8498  1.1510
32311SOL    HW2 3984   6.803   5.133   5.612  2.3323 -0.3064  2.2766
32312SOL     OW 3985   3.135  10.896   2.524  0.1311  0.4738 -0.2418
32312SOL    HW1 3986   3.164  10.809   2.552 -0.9739  0.3344  0.5463
32312SOL    HW2 3987   3.041  10.887   2.513 -0.1186  1.7596  0.6114
32313SOL     OW 3988   9.273   9.422   9.878  0.2606 -0.0495 -0.0049
32313SOL    HW1 3989   9.260   9.448   9.787 -0.7428 -1.2392 -0.2376
32313SOL    HW2 3990   9.336   9.484   9.913 -0.2361  1.1550 -1.1774
32314SOL     OW 3991  11.509   5.398   9.042  0.4229 -0.4687 -0.1049
32314SOL    HW1 3992  11.570   5.344   9.092 -0.3967 -1.4421 -0.1079
32314SOL    HW2 3993  11.491   5.346   8.963 -2.2768 -1.4243  1.0091
32315SOL     OW 3994  12.113   6.394   3.910 -0.2345  0.5098 -0.0803
32315SOL    HW1 3995  12.168   6.380   3.987  1.7339  0.5238 -1.4064
32315SOL    HW2 3996  12.023   6.383   3.942  0.5704 -0.9270  1.8946
32316SOL     OW 3997   6.932   3.038   8.028  0.1999  0.2720 -0.1072
32316SOL    HW1 3998   6.952   2.978   8.100 -0.5882 -0.6345 -0.6231
32316SOL    HW2 3999   6.986   3.115   8.046  0.7360 -0.3173  0.9317
32317SOL     OW 4000  11.127  12.440   0.168 -0.1269  0.4341  0.0468
32317SOL    HW1 4001  11.216  12.471   0.182 -0.2668  1.2817 -0.8496
32317SOL    HW2 4002  11.127  12.351   0.202  1.0989  0.3769 -0.0659
32318SOL     OW 4003   4.398   8.250   2.007  0.1712  0.0353  0.3665
32318SOL    HW1 4004   4.436   8.162   2.004 -0.4545 -0.2736  1.1497
32318SOL    HW2 4005   4.458   8.303   1.955 -0.0254 -1.0561 -1.0457
32319SOL     OW 4006   1.116   7.394   4.415 -0.2336 -0.2856 -0.6064
32319SOL    HW1 4007   1.099   7.488   4.404  0.1295 -0.1534 -0.1077
32319SOL    HW2 4008   1.056   7.351   4.354 -1.5858  0.1993  0.3306
32320SOL     OW 4009  12.308   6.343   0.742 -0.1640  0.5100 -0.0551
32320SOL    HW1 4010  12.231   6.288   0.730 -0.4253  0.7784  0.3458
32320SOL    HW2 4011  12.341   6.358   0.653 -1.3139  1.4323 -0.3671
32321SOL     OW 4012   5.725   4.298   2.615 -0.5248 -0.4053  0.8745
32321SOL    HW1 4013   5.779   4.335   2.686 -2.2925  1.4720  1.3365
32321SOL    HW2 4014   5.716   4.206   2.637  0.8613 -0.3501  1.8234
32322SOL     OW 4015   1.262   9.651   2.220  0.3310 -0.7372  0.4473
32322SOL    HW1 4016   1.283   9.621   2.309  2.1460  0.9125  0.6285
32322SOL    HW2 4017   1.169   9.672   2.223 -0.0119 -2.2323  1.4745
32323SOL     OW 4018   2.569  10.895   5.599  0.1646  0.3402  0.4203
32323SOL    HW1 4019   2.586  10.988   5.585  0.8955  0.3897  1.5208
32323SOL    HW2 4020   2.574  10.856   5.512 -0.5606  1.3823 -0.1141
32324SOL     OW 4021  10.396   4.050   8.430  0.3000 -0.1480 -0.5017
32324SOL    HW1 4022  10.443   4.005   8.500 -1.8713  0.5820  1.5569
32324SOL    HW2 4023  10.391   4.141   8.458 -1.7226 -0.0676 -0.8970
32325SOL     OW 4024   4.099   8.836   4.509 -0.4031 -0.4008 -0.1608
32325SOL    HW1 4025   4.038   8.874   4.447 -0.1651  1.2822  0.5968
32325SOL    HW2 4026   4.186   8.850   4.471 -0.1269  2.0358  1.1664
32326SOL     OW 4027   8.459   3.540  11.017  0.0549  0.0594  0.9977
32326SOL    HW1 4028   8.465   3.464  11.074 -0.6589 -0.4924  0.3695
32326SOL    HW2 4029   8.481   3.506  10.930 -1.8510  0.1551  0.4174
32327SOL     OW 4030   9.736   9.153   2.577  0.3869  0.6219 -0.5865
32327SOL    HW1 4031   9.728   9.248   2.584 -0.8271  0.4535  0.7152
32327SOL    HW2 4032   9.657   9.126   2.530  0.6179  0.2335 -0.7550
32328SOL     OW 4033   9.837   0.048   7.090  0.8496  0.7592 -0.6804
32328SOL    HW1 4034   9.901  -0.023   7.086  1.4383  1.2938 -1.0319
32328SOL    HW2 4035   9.875   0.116   7.034 -0.6327  0.5922 -1.9500
32329SOL     OW 4036   6.392  11.763  11.118 -0.3685 -0.2737 -0.3622
32329SOL    HW1 4037   6.487  11.780  11.116 -0.6153  1.3287 -2.6867
32329SOL    HW2 4038   6.371  11.739  11.027 -2.2824 -0.0129 -0.0172
32330SOL     OW 4039   8.480   0.342   4.198 -0.1251  0.2217 -0.0132
32330SOL    HW1 4040   8.534   0.320   4.273  1.0306  0.3334 -0.7961
32330SOL    HW2 4041   8.540   0.343   4.123 -1.0067  1.3727 -0.7449
32331SOL     OW 4042   2.608  11.443   0.920  0.1249  0.2521  0.2906
32331SOL    HW1 4043   2.538  11.508   0.920  0.7941  1.0083  1.6000
32331SOL    HW2 4044   2.599  11.397   1.004 -0.2823 -1.3159 -0.5736
32332SOL     OW 4045   5.381  10.314   3.520 -0.0137 -0.1817  0.2254
32332SOL    HW1 4046   5.366  10.323   3.426  0.1652 -0.0657  0.2075
32332SOL    HW2 4047   5.448  10.246   3.526  0.7224  0.5346  0.2172
32333SOL     OW 4048   9.273   4.661   7.948  0.1835  0.8606 -0.4087
32333SOL    HW1 4049   9.329   4.678   7.873 -0.5684 -0.2503 -1.2551
32333SOL    HW2 4050   9.328   4.612   8.009 -0.0471 -0.9630 -1.5857
32334SOL     OW 4051   4.511  10.957  10.749 -0.2960  0.1835  0.3683
32334SOL    HW1 4052   4.516  10.862  10.742 -1.4093  0.1156  0.3247
32334SOL    HW2 4053   4.569  10.979  10.822 -0.8955 -0.6401  1.1098
32335SOL     OW 4054   9.982   7.784   5.318 -0.5119 -0.4519  0.1092
32335SOL    HW1 4055  10.057   7.787   5.377 -0.7553 -0.0138  0.4015
32335SOL    HW2 4056  10.018   7.753   5.235 -0.0733 -0.5705  0.3396
32336SOL     OW 4057  10.564   3.427  10.820  0.3413  0.0813  0.2435
32336SOL    HW1 4058  10.522   3.506  10.854  2.1477  0.8576  0.7967
32336SOL    HW2 4059  10.594   3.452  10.733  0.9003  0.0008  0.4118
32337SOL     OW 4060   7.689   6.073  10.275  0.0678  0.1405  0.2894
32337SOL    HW1 4061   7.683   6.155  10.226  2.1477  0.2945  0.1734
32337SOL    HW2 4062   7.675   6.098  10.366  4.0486  1.3805  0.7511
32338SOL     OW 4063   7.335   2.815   2.705  0.4041 -0.4753 -0.3296
32338SOL    HW1 4064   7.350   2.830   2.799 -1.1938  1.9821 -0.3586
32338SOL    HW2 4065   7.245   2.782   2.701  0.1348  0.3243 -1.0310
32339SOL     OW 4066   8.887   1.307   4.006  0.6422  0.3220 -0.2445
32339SOL    HW1 4067   8.852   1.218   4.002  0.5433  0.2332  1.6539
32339SOL    HW2 4068   8.824   1.355   4.060  0.6504  1.5869 -1.3181
32340SOL     OW 4069   3.558   1.775   6.600 -0.0334  0.3474  0.0940
32340SOL    HW1 4070   3.477   1.723   6.605  0.6104 -0.9281 -1.5485
32340SOL    HW2 4071   3.628   1.710   6.603  0.8533  1.2434 -0.5439
32341SOL     OW 4072  12.396   8.276  11.932 -0.0798  0.3637  0.1006
32341SOL    HW1 4073  12.423   8.256  11.842 -0.4213 -3.8719  0.7568
32341SOL    HW2 4074  12.478   8.275  11.982 -0.0083  1.7407  0.0605
32342SOL     OW 4075   2.431   7.944   1.537 -0.8413  0.1927  0.2456
32342SOL    HW1 4076   2.411   7.971   1.447 -1.2804  1.2471  0.6351
32342SOL    HW2 4077   2.522   7.970   1.550 -1.2333  1.5090  0.5866
32343SOL     OW 4078  11.092   1.289   2.129  0.2593  0.1187  0.7437
32343SOL    HW1 4079  11.048   1.272   2.046  2.3563 -0.5998 -0.3094
32343SOL    HW2 4080  11.022   1.315   2.189 -1.2700  1.2289 -1.3823
32344SOL     OW 4081   7.915   2.130   9.584 -0.5237  0.1404 -0.9366
32344SOL    HW1 4082   7.866   2.049   9.571  0.0059  0.0834 -2.9357
32344SOL    HW2 4083   7.891   2.159   9.672 -3.1565 -0.5440 -1.3412
32345SOL     OW 4084   5.572   8.930  11.860  0.1617 -0.3152  0.1372
32345SOL    HW1 4085   5.481   8.955  11.871  0.8605  1.7642  1.7995
32345SOL    HW2 4086   5.604   8.912  11.948  1.4840 -0.5204 -0.3483
32346SOL     OW 4087   7.178  11.962   5.128 -0.0008 -0.6619  0.0952
32346SOL    HW1 4088   7.247  12.027   5.114 -0.3564 -0.1388  0.7199
32346SOL    HW2 4089   7.182  11.942   5.221 -2.2440  1.2192  0.7122
32347SOL     OW 4090  12.408   7.119   6.455  0.2877  0.0244 -0.5403
32347SOL    HW1 4091  12.485   7.118   6.398  0.9133  1.2958  0.2406
32347SOL    HW2 4092  12.339   7.157   6.402  0.5659  0.1592 -0.8065
32348SOL     OW 4093   1.434   5.069   6.073 -0.3986  0.1234  0.2710
32348SOL    HW1 4094   1.442   5.004   6.143  0.6729  0.4305  0.4604
32348SOL    HW2 4095   1.428   5.153   6.118  1.6706  0.4588  0.0464
32349SOL     OW 4096   1.819   1.561   5.492  0.2013 -0.1530 -0.2103
32349SOL    HW1 4097   1.862   1.516   5.420 -2.4820 -2.1351 -0.7311
32349SOL    HW2 4098   1.818   1.497   5.563 -1.9557 -0.3112 -0.3097
32350SOL     OW 4099   4.600   2.441  10.537 -0.2100  0.0317  0.2701
32350SOL    HW1 4100   4.658   2.381  10.583  1.0911  1.4790  0.6167
32350SOL    HW2 4101   4.545   2.479  10.605 -1.0731 -0.7814  0.0434
32351SOL     OW 4102   2.286   0.670   0.187  0.3121  0.3971  0.1401
32351SOL    HW1 4103   2.228   0.692   0.114  0.0573 -2.5204 -0.6552
32351SOL    HW2 4104   2.372   0.658   0.147  0.1213 -1.4684  0.2131
32352SOL     OW 4105   7.883   4.951   4.680  0.0402  0.1384  0.0880
32352SOL    HW1 4106   7.978   4.954   4.689  0.0578 -0.7953  0.3559
32352SOL    HW2 4107   7.853   4.895   4.752 -0.7565  0.7610  0.2605
32353SOL     OW 4108   8.126   9.049  10.333 -0.1635  0.1632  0.2977
32353SOL    HW1 4109   8.127   8.957  10.306 -1.0816  0.2380 -0.0204
32353SOL    HW2 4110   8.206   9.059  10.385 -0.5302 -1.0627  1.1705
32354SOL     OW 4111   9.028   3.094   1.902 -0.4358 -0.1999  0.4387
32354SOL    HW1 4112   9.060   3.071   1.815 -3.2335 -0.8054 -0.5249
32354SOL    HW2 4113   9.057   3.022   1.959 -0.1404 -0.7312 -0.3790
32355SOL     OW 4114   9.483   1.157   1.642  0.3954 -0.1579  0.8481
32355SOL    HW1 4115   9.526   1.141   1.558  0.4828  0.5605  0.7485
32355SOL    HW2 4116   9.548   1.131   1.708 -0.2972 -2.4184  0.7389
32356SOL     OW 4117   6.997  12.446   3.812 -0.1464  0.6887  0.4167
32356SOL    HW1 4118   6.901  12.443   3.805 -0.1028  0.1171 -0.0323
32356SOL    HW2 4119   7.014  12.428   3.904 -0.5284  2.5861  0.8947
32357SOL     OW 4120   8.657  10.180   3.621 -0.0643  0.6722  0.2273
32357SOL    HW1 4121   8.671  10.228   3.539  0.3992 -0.8884 -0.6503
32357SOL    HW2 4122   8.569  10.143   3.613 -0.0846  0.6576  0.5079
32358SOL     OW 4123  12.400   5.375   7.088 -0.1636 -0.1288  0.2598
32358SOL    HW1 4124  12.392   5.328   7.171  0.8732  0.5852  0.7884
32358SOL    HW2 4125  12.476   5.335   7.045  1.1521  1.4483  1.0179
32359SOL     OW 4126   2.512  11.565   7.167  0.1215 -0.0134 -0.0077
32359SOL    HW1 4127   2.444  11.623   7.203  0.2437 -0.0351  0.2589
32359SOL    HW2 4128   2.549  11.522   7.243  0.8769  0.4709 -0.0923
32360SOL     OW 4129   7.270   7.051  10.459  0.1995 -0.0890  0.3219
32360SOL    HW1 4130   7.307   7.096  10.535  0.1268 -0.6418  0.6873
32360SOL    HW2 4131   7.177   7.039  10.481  0.2597 -0.5892  0.3120
32361SOL     OW 4132  10.400  12.127   5.526 -0.6355  0.7941 -0.0759
32361SOL    HW1 4133  10.393  12.035   5.500 -0.9575  0.9804 -0.6793
32361SOL    HW2 4134  10.476  12.160   5.479 -0.7702  0.9410 -0.1940
32362SOL     OW 4135   8.084   2.489   1.537 -0.4360  0.4931  0.3153
32362SOL    HW1 4136   8.110   2.401   1.510  1.9364  1.0062  0.7726
32362SOL    HW2 4137   7.989   2.492   1.520 -0.3842 -1.7687 -0.6845
32363SOL     OW 4138   5.760   6.585   8.633 -0.1668 -0.0698  0.0742
32363SOL    HW1 4139   5.813   6.507   8.650  1.5976  1.4703  2.2432
32363SOL    HW2 4140   5.808   6.631   8.563  0.3201  0.3481  0.6664
32364SOL     OW 4141   9.233   2.624   7.328 -0.6305 -0.1945 -0.5493
32364SOL    HW1 4142   9.277   2.553   7.282 -0.0492  0.5837 -1.2153
32364SOL    HW2 4143   9.250   2.606   7.421 -0.3873 -0.8508 -0.7119
32365SOL     OW 4144   8.980   3.399   2.705 -0.1160  0.1430  0.2721
32365SOL    HW1 4145   9.031   3.443   2.773 -0.8082  1.4919 -0.0414
32365SOL    HW2 4146   9.009   3.440   2.623 -0.0217 -0.7464 -0.1509
32366SOL     OW 4147  12.241   4.178   0.236  0.0804 -0.1723  0.3577
32366SOL    HW1 4148  12.304   4.249   0.231 -0.9630  0.8447  1.1790
32366SOL    HW2 4149  12.238   4.141   0.148  0.5551  0.8596 -0.0972
32367SOL     OW 4150  10.323   4.379   0.827  0.0877  0.6680 -0.0442
32367SOL    HW1 4151  10.354   4.293   0.798  0.5004  0.2281  1.6139
32367SOL    HW2 4152  10.369   4.395   0.909 -2.4905  0.9423  1.4500
32368SOL     OW 4153  11.305   7.886   0.447 -0.7246  0.6577 -0.1809
32368SOL    HW1 4154  11.291   7.905   0.355  0.8691 -0.3676 -0.6803
32368SOL    HW2 4155  11.346   7.799   0.448  0.4667  1.1862  1.4083
32369SOL     OW 4156   0.440   8.786   8.689 -0.4728 -0.0149 -0.1183
32369SOL    HW1 4157   0.489   8.789   8.772 -0.8692 -0.1633  0.1278
32369SOL    HW2 4158   0.488   8.844   8.630  0.5361 -0.8746 -0.1737
32370SOL     OW 4159   2.930   6.122   6.516  0.0526 -0.4935 -0.0470
32370SOL    HW1 4160   2.835   6.120   6.515  0.0209  0.5787 -0.2432
32370SOL    HW2 4161   2.952   6.203   6.561  0.8387  0.2346 -1.6434
32371SOL     OW 4162   3.134   3.334   4.750  0.1088  0.1200 -0.2270
32371SOL    HW1 4163   3.044   3.340   4.783  0.2069 -0.2223  0.1034
32371SOL    HW2 4164   3.149   3.240   4.739  0.6631  0.1325  0.3769
32372SOL     OW 4165   6.331  10.725  10.455  0.4473 -0.6789  0.7749
32372SOL    HW1 4166   6.308  10.813  10.425 -0.1426 -1.9262 -3.0501
32372SOL    HW2 4167   6.247  10.684  10.477  0.3895 -1.1015 -0.1799
32373SOL     OW 4168   5.889   6.351   1.960 -1.1293 -0.0445  0.2721
32373SOL    HW1 4169   5.807   6.388   1.990 -0.8792  0.7170  0.0210
32373SOL    HW2 4170   5.956   6.389   2.017 -0.7630  0.6537 -0.6029
32374SOL     OW 4171   8.660   4.992   7.088  0.0433 -0.2766  0.0596
32374SOL    HW1 4172   8.684   4.925   7.153 -0.2108 -0.1313  0.3060
32374SOL    HW2 4173   8.568   4.973   7.068  1.1653 -3.0017 -3.4450
32375SOL     OW 4174   7.423   1.683   6.738 -0.4765  0.0282  0.0720
32375SOL    HW1 4175   7.449   1.661   6.828  1.7119  1.0029 -0.2510
32375SOL    HW2 4176   7.458   1.611   6.686  2.6469  1.7331 -0.4606
32376SOL     OW 4177  11.188   7.704   1.079  0.4842 -0.4190 -0.5022
32376SOL    HW1 4178  11.107   7.673   1.119  0.2693  0.1065 -0.5182
32376SOL    HW2 4179  11.250   7.633   1.092 -0.7305 -2.1093 -3.0476
32377SOL     OW 4180  11.244   5.454   4.076  0.4233 -0.0622 -0.4109
32377SOL    HW1 4181  11.230   5.524   4.011  0.9503 -0.5303 -1.0454
32377SOL    HW2 4182  11.294   5.496   4.146  0.7572  0.1993 -0.7989
32378SOL     OW 4183   6.964   2.847   5.102  0.1139  0.3141 -0.0829
32378SOL    HW1 4184   6.971   2.921   5.162 -3.2163  0.1896  0.6792
32378SOL    HW2 4185   6.999   2.773   5.151  2.5713  1.1398 -0.4883
32379SOL     OW 4186   5.799   1.998   5.318 -0.2246  0.2445 -0.0632
32379SOL    HW1 4187   5.812   1.915   5.272  0.9521  0.2623  0.2108
32379SOL    HW2 4188   5.804   2.064   5.250  0.9834  0.2309 -0.0178
32380SOL     OW 4189   9.812   0.348   2.899  0.4946 -0.2901 -0.5800
32380SOL    HW1 4190   9.730   0.396   2.913  0.4886 -0.1179 -1.1846
32380SOL    HW2 4191   9.784   0.260   2.874  0.4781 -0.0881 -1.3049
32381SOL     OW 4192  12.271   5.676  11.499 -0.2783 -0.4167  0.0994
32381SOL    HW1 4193  12.239   5.708  11.414 -2.9147 -0.4802  0.9660
32381SOL    HW2 4194  12.365   5.663  11.486 -0.3039  1.1368 -2.3036
32382SOL     OW 4195   2.843   5.511  11.601  0.3743  0.1820 -0.8235
32382SOL    HW1 4196   2.906   5.484  11.668 -1.2454 -3.7140 -0.6301
32382SOL    HW2 4197   2.759   5.511  11.647 -0.4264  0.1315 -2.2289
32383SOL     OW 4198  10.546   9.256  10.722  0.7686 -0.0069 -0.7064
32383SOL    HW1 4199  10.631   9.257  10.767 -0.0859 -0.8569  1.0523
32383SOL    HW2 4200  10.547   9.175  10.671  0.9535 -0.1217 -0.5251
32384SOL     OW 4201   1.333   2.001   5.480  0.4689  0.6751 -0.5183
32384SOL    HW1 4202   1.405   2.039   5.529  0.9714 -1.0243  0.1397
32384SOL    HW2 4203   1.374   1.934   5.425 -0.5391  0.0195 -0.5015
32385SOL     OW 4204   6.732  10.650   9.421  0.0465 -0.5529  0.1986
32385SOL    HW1 4205   6.801  10.650   9.488 -0.3064 -1.2408  0.5777
32385SOL    HW2 4206   6.701  10.740   9.419  1.9826  0.1458 -1.0822
32386SOL     OW 4207   3.940  10.096   9.650  0.4361  0.6225  0.0763
32386SOL    HW1 4208   3.905  10.178   9.686 -0.5820  0.5985 -0.7887
32386SOL    HW2 4209   4.016  10.124   9.598  0.8093  0.8657  0.7424
32387SOL     OW 4210  10.411   0.242   6.949  0.0068 -0.5783  0.3106
32387SOL    HW1 4211  10.348   0.304   6.984  1.1416  0.2270  0.9698
32387SOL    HW2 4212  10.400   0.248   6.854 -0.2611  0.2322  0.3892
32388SOL     OW 4213   3.434   7.853  10.609 -0.3663 -0.5792 -0.2305
32388SOL    HW1 4214   3.511   7.847  10.667 -0.9460 -0.2224  0.5918
32388SOL    HW2 4215   3.364   7.809  10.657 -2.1536  3.6704  1.5988
32389SOL     OW 4216   3.869   4.758  10.106 -0.0055  0.5275 -0.4474
32389SOL    HW1 4217   3.847   4.709  10.027  1.0456  1.5312 -1.4108
32389SOL    HW2 4218   3.837   4.847  10.089  1.7941  1.2056 -0.5381
32390SOL     OW 4219   4.457   7.327   3.001  0.4165  0.7389  0.4790
32390SOL    HW1 4220   4.413   7.410   3.020 -1.1193 -0.2112  1.2546
32390SOL    HW2 4221   4.457   7.281   3.085  0.2800 -0.4938 -0.1803
32391SOL     OW 4222   0.495   7.825   0.925 -0.2683 -0.1565  0.0265
32391SOL    HW1 4223   0.508   7.878   0.846 -1.2534 -0.0051 -0.0446
32391SOL    HW2 4224   0.539   7.873   0.994  0.7664 -0.3826 -0.4598
32392SOL     OW 4225   1.549   0.729  10.575 -0.1813 -0.3388 -0.3358
32392SOL    HW1 4226   1.604   0.777  10.636  0.6350 -1.9771  0.2804
32392SOL    HW2 4227   1.475   0.788  10.557  0.8826  1.2003  0.1774
32393SOL     OW 4228   4.676   3.323   4.446 -0.8034  0.4293 -0.0834
32393SOL    HW1 4229   4.679   3.408   4.402 -2.4981 -0.4041 -1.9613
32393SOL    HW2 4230   4.760   3.282   4.424 -0.7929  0.8499 -0.8810
32394SOL     OW 4231   1.100  10.894   0.166  0.3901  0.6162 -0.4590
32394SOL    HW1 4232   1.148  10.866   0.088  3.0749  1.7824  0.6715
32394SOL    HW2 4233   1.014  10.853   0.156  1.5877 -1.6931 -2.5675
32395SOL     OW 4234   7.678   2.486   1.941  0.0863 -0.0885 -0.0041
32395SOL    HW1 4235   7.617   2.518   1.875 -0.5075 -0.2887  0.4442
32395SOL    HW2 4236   7.627   2.424   1.993  1.2090 -1.7648 -0.8409
32396SOL     OW 4237   5.252   5.964   0.003 -0.0552  0.2338 -0.2558
32396SOL    HW1 4238   5.291   5.988   0.088 -1.3289 -0.7326  0.6414
32396SOL    HW2 4239   5.319   5.986  -0.061  1.4044 -0.0691  1.1022
32397SOL     OW 4240   9.038   1.408   9.263 -0.1448  0.3486 -0.3547
32397SOL    HW1 4241   9.121   1.454   9.273  0.7231 -1.5968  4.1033
32397SOL    HW2 4242   8.972   1.471   9.293  0.4824  0.2275  1.4002
32398SOL     OW 4243   2.815  10.003   9.172 -0.0107 -0.5907  0.1522
32398SOL    HW1 4244   2.857   9.992   9.087 -1.2144 -2.7751 -0.2516
32398SOL    HW2 4245   2.812  10.098   9.185  1.6664 -0.2457 -1.4507
32399SOL     OW 4246  12.390  10.568   4.054  0.1133 -0.2082 -0.0076
32399SOL    HW1 4247  12.343  10.538   4.131  0.1521 -0.7224 -0.1806
32399SOL    HW2 4248  12.419  10.657   4.076  0.2433 -0.4048  0.6171
32400SOL     OW 4249  11.692   9.481   2.039 -0.2371 -0.4080  0.2549
32400SOL    HW1 4250  11.721   9.561   1.996  0.2795 -1.4335 -1.4155
32400SOL    HW2 4251  11.598   9.494   2.053 -0.1771  0.4472 -0.1075
32401SOL     OW 4252  11.699   5.003   6.814  0.1568 -0.2526 -0.1599
32401SOL    HW1 4253  11.680   5.030   6.904  1.5017  0.9589 -0.2023
32401SOL    HW2 4254  11.792   4.978   6.816 -0.1599 -1.5614 -0.9238
32402SOL     OW 4255   6.322   3.255   4.365  0.3463 -0.6289  0.1182
32402SOL    HW1 4256   6.417   3.263   4.353  0.6621 -2.1148  1.3853
32402SOL    HW2 4257   6.312   3.213   4.450 -1.4226 -1.6274 -0.5495
32403SOL     OW 4258   7.490   8.993   7.724  0.1326 -0.4525 -0.5480
32403SOL    HW1 4259   7.561   8.978   7.787 -2.1162 -0.5104  2.1779
32403SOL    HW2 4260   7.473   8.908   7.686  0.2233 -0.8708  0.3091
32404SOL     OW 4261   8.399   1.729   9.245 -0.1494 -0.2816  0.1916
32404SOL    HW1 4262   8.349   1.770   9.175  0.0945 -0.2068  0.0602
32404SOL    HW2 4263   8.450   1.801   9.283 -0.5668 -0.2469  0.6969
32405SOL     OW 4264   2.173   5.046   4.992 -0.5676 -0.6777  0.1655
32405SOL    HW1 4265   2.263   5.079   5.002 -0.5810  0.4874 -2.6899
32405SOL    HW2 4266   2.164   4.981   5.062  2.6794 -1.2193  0.2428
32406SOL     OW 4267   1.485   3.002   3.200 -0.0807 -0.4950 -0.3495
32406SOL    HW1 4268   1.463   3.037   3.286  0.1310  2.7977 -1.5129
32406SOL    HW2 4269   1.401   2.986   3.157 -0.2015  0.0043 -0.3028
32407SOL     OW 4270   6.001   6.532   7.995  0.0969 -0.4785  0.5544
32407SOL    HW1 4271   5.977   6.448   7.955 -1.2545 -0.0402  0.4292
32407SOL    HW2 4272   6.020   6.510   8.087 -0.2134 -0.9318  0.5124
32408SOL     OW 4273   1.588   7.117  12.513 -0.5658 -0.0660 -0.0275
32408SOL    HW1 4274   1.516   7.170  12.546 -0.4921 -0.7093  1.2460
32408SOL    HW2 4275   1.550   7.030  12.501 -0.7295  0.2593 -2.2472
32409SOL     OW 4276   4.229   4.291   3.703 -0.8066 -0.1921 -0.2650
32409SOL    HW1 4277   4.167   4.218   3.695  0.0803 -1.0056  0.0653
32409SOL    HW2 4278   4.315   4.249   3.712 -0.0927  0.9148 -1.4657
32410SOL     OW 4279   4.463   2.955   9.771  0.1652 -0.0977 -0.6361
32410SOL    HW1 4280   4.449   3.050   9.776  2.6388  0.3398 -0.6676
32410SOL    HW2 4281   4.444   2.924   9.860  2.6013  1.0242  0.3805
32411SOL     OW 4282   4.506   0.541   2.109 -0.3915  0.6586  0.5016
32411SOL    HW1 4283   4.471   0.552   2.198 -0.5954  3.2125  0.1781
32411SOL    HW2 4284   4.489   0.625   2.066  1.0649  0.0089 -1.4808
32412SOL     OW 4285   7.650   5.576   5.383 -0.0545 -0.0560 -0.3941
32412SOL    HW1 4286   7.631   5.483   5.392 -0.1247  0.0143  0.2240
32412SOL    HW2 4287   7.711   5.595   5.454 -2.3479  0.9899  1.4326
32413SOL     OW 4288  11.315   6.291   9.421  0.1596  0.2137  0.2361
32413SOL    HW1 4289  11.363   6.356   9.369  0.0971  0.1328  0.0742
32413SOL    HW2 4290  11.335   6.208   9.378  3.1401 -0.3981  2.4977
32414SOL     OW 4291   3.331   6.479   2.351  0.6452 -0.2608 -0.1284
32414SOL    HW1 4292   3.318   6.414   2.282  1.7967  0.1738 -0.7816
32414SOL    HW2 4293   3.337   6.428   2.432 -1.2142 -0.7475 -0.2369
32415SOL     OW 4294   1.683   5.364   0.513 -0.7706  0.1821 -0.9854
32415SOL    HW1 4295   1.661   5.450   0.548 -2.6405  0.3150 -2.3037
32415SOL    HW2 4296   1.682   5.376   0.418  1.3595 -0.7818 -1.1750
32416SOL     OW 4297   1.293   9.856   9.189  0.5959  0.1853 -0.0503
32416SOL    HW1 4298   1.202   9.839   9.164  0.3991  0.0202  0.7252
32416SOL    HW2 4299   1.334   9.893   9.111 -0.4123  1.2364 -0.1017
32417SOL     OW 4300   9.546   7.007   4.923 -0.0192 -0.4819  0.1519
32417SOL    HW1 4301   9.624   6.991   4.976 -0.3473 -0.1562  0.7443
32417SOL    HW2 4302   9.476   7.022   4.986 -0.3704  0.1595 -0.3754
32418SOL     OW 4303   8.938  10.837   7.476 -0.0186  0.0378  1.0744
32418SOL    HW1 4304   8.988  10.757   7.495  0.8313  0.4820  0.7310
32418SOL    HW2 4305   8.865  10.806   7.421  1.6092 -0.2140 -1.0779
32419SOL     OW 4306   4.574   0.717   5.585 -0.2729 -0.2436 -0.2437
32419SOL    HW1 4307   4.654   0.664   5.589  0.2964  0.0513 -3.9868
32419SOL    HW2 4308   4.604   0.805   5.566 -1.4493 -0.0243 -1.2089
32420SOL     OW 4309   8.483   0.048   9.683  0.7365 -0.6051 -0.7790
32420SOL    HW1 4310   8.444  -0.028   9.727  0.3160  0.1688  0.2071
32420SOL    HW2 4311   8.422   0.120   9.699  1.2171 -0.0055 -1.5587
32421SOL     OW 4312   7.485  11.041   6.012  0.3364  0.3801 -0.4732
32421SOL    HW1 4313   7.560  11.002   5.968  0.5713  1.0001 -0.6416
32421SOL    HW2 4314   7.465  10.982   6.084 -0.0975 -0.6954 -1.4461
32422SOL     OW 4315   8.176   9.837   5.949 -0.1878 -0.4188 -0.1095
32422SOL    HW1 4316   8.159   9.785   5.871  1.5694  0.1162 -0.9088
32422SOL    HW2 4317   8.253   9.889   5.927 -1.7654  2.4580  0.7066
32423SOL     OW 4318   2.742   0.480   0.602  0.0684  0.0244 -0.3762
32423SOL    HW1 4319   2.656   0.446   0.627 -0.4870 -0.2999 -2.5244
32423SOL    HW2 4320   2.768   0.426   0.527  1.1399  1.5389 -1.1441
32424SOL     OW 4321  10.624  12.263   5.974 -0.3853  0.6294  0.1406
32424SOL    HW1 4322  10.543  12.260   5.923 -0.4026 -1.9530  0.2009
32424SOL    HW2 4323  10.594  12.278   6.064 -0.8290 -0.5071  0.1926
32425SOL     OW 4324  11.710  11.856   6.247 -0.5884 -0.7815 -0.6514
32425SOL    HW1 4325  11.735  11.858   6.340  0.2740 -1.6945 -0.8418
32425SOL    HW2 4326  11.617  11.837   6.248 -0.5998 -0.7324  0.0302
32426SOL     OW 4327   2.228   8.024   6.404  0.2500 -0.3980 -0.1527
32426SOL    HW1 4328   2.266   7.938   6.389  0.8180  0.2381 -2.9137
32426SOL    HW2 4329   2.219   8.062   6.316  0.9929  2.7640  1.0029
32427SOL     OW 4330   8.025   7.203   6.117 -0.1012  0.2689 -0.6161
32427SOL    HW1 4331   8.022   7.204   6.022  2.3596  0.9824 -0.7436
32427SOL    HW2 4332   8.115   7.226   6.139 -1.1385  2.5163  1.9226
32428SOL     OW 4333   6.348   1.586   5.733 -0.6003 -0.0111  0.1853
32428SOL    HW1 4334   6.380   1.634   5.657  2.2753 -0.6540  0.8738
32428SOL    HW2 4335   6.397   1.622   5.807 -0.8333 -1.7169  1.2263
32429SOL     OW 4336   1.996   5.707  11.026 -0.1234  0.4868 -0.6745
32429SOL    HW1 4337   2.018   5.618  11.053  1.0208  1.0390  0.2873
32429SOL    HW2 4338   1.911   5.698  10.983 -0.6097 -0.8891  0.4805
32430SOL     OW 4339   3.298   4.582  11.793 -0.5601  0.1169 -0.1302
32430SOL    HW1 4340   3.203   4.582  11.806 -0.4482 -2.4323  1.2587
32430SOL    HW2 4341   3.334   4.610  11.877 -0.0460  1.2688 -0.7129
32431SOL     OW 4342  10.220   0.587   6.426 -0.2996  0.0310  0.6133
32431SOL    HW1 4343  10.163   0.595   6.502  0.2821  0.7126  0.9878
32431SOL    HW2 4344  10.305   0.618   6.456 -0.4032  1.7250 -0.7100
32432SOL     OW 4345   1.656   6.654   3.615 -0.3004  0.1573 -0.7456
32432SOL    HW1 4346   1.738   6.633   3.659 -0.4339  0.7464 -0.1968
32432SOL    HW2 4347   1.672   6.737   3.571 -0.9872  0.9661  0.4709
32433SOL     OW 4348  11.635   1.899   2.846 -0.3749  0.2227 -0.5980
32433SOL    HW1 4349  11.679   1.816   2.831  0.6184  0.5954  0.1874
32433SOL    HW2 4350  11.570   1.904   2.776 -2.5213 -2.5813  0.9303
32434SOL     OW 4351   2.130   7.171   3.396 -0.0545  0.1843 -0.4197
32434SOL    HW1 4352   2.115   7.259   3.433  0.7748  0.0560  0.2512
32434SOL    HW2 4353   2.092   7.176   3.308  0.1913  1.3011 -0.4883
32435SOL     OW 4354   8.625  11.402   9.854  0.2567 -0.1689  0.5131
32435SOL    HW1 4355   8.625  11.448   9.771 -1.2160 -1.5807 -0.3173
32435SOL    HW2 4356   8.669  11.462   9.915  0.1917  1.4407 -0.9581
32436SOL     OW 4357  11.435  11.758   6.279  0.1255 -0.0613  0.4956
32436SOL    HW1 4358  11.368  11.717   6.333 -0.1003  0.9596  1.0236
32436SOL    HW2 4359  11.403  11.748   6.190 -0.6141  0.1886  0.7225
32437SOL     OW 4360   2.992   0.113   0.715 -0.1466 -0.6279  0.6116
32437SOL    HW1 4361   2.940   0.188   0.745 -0.0790  0.1894 -1.2029
32437SOL    HW2 4362   3.076   0.122   0.761 -0.3823  0.0101  0.9303
32438SOL     OW 4363   2.840   4.851   4.640  0.6420  0.4755  0.1135
32438SOL    HW1 4364   2.872   4.762   4.657  0.9163 -0.2027 -3.1960
32438SOL    HW2 4365   2.863   4.900   4.718  2.4861 -1.8618  1.1724
32439SOL     OW 4366   4.165   2.757  10.803  0.0201 -0.1235  0.0707
32439SOL    HW1 4367   4.143   2.664  10.797  0.0605 -0.0614 -1.1930
32439SOL    HW2 4368   4.238   2.769  10.742  0.9795  0.4663  1.2789
32440SOL     OW 4369   6.775   9.569  12.049  0.1184  0.3968 -0.2119
32440SOL    HW1 4370   6.719   9.511  11.998 -0.5170  0.4341  0.4330
32440SOL    HW2 4371   6.716   9.610  12.112  0.8891  0.3383  0.5630
32441SOL     OW 4372   2.257  11.838  11.886  0.4126  0.2440 -0.3305
32441SOL    HW1 4373   2.296  11.760  11.925  1.0805  0.4165 -0.6384
32441SOL    HW2 4374   2.321  11.908  11.903  0.1030  0.5902 -0.5878
32442SOL     OW 4375   4.726   0.547   2.965  0.5306  0.5482 -0.0628
32442SOL    HW1 4376   4.772   0.526   3.047  1.1652  2.1768  0.0453
32442SOL    HW2 4377   4.717   0.463   2.920  1.2660 -0.1982  1.1281
32443SOL     OW 4378   9.210   7.795   2.345  0.6156 -0.0263  0.2569
32443SOL    HW1 4379   9.263   7.724   2.382  1.1505  0.9065  1.3554
32443SOL    HW2 4380   9.198   7.856   2.418 -2.9669 -0.7173  0.4227
32444SOL     OW 4381   2.546   2.559   2.904  0.0173  0.4309 -0.1842
32444SOL    HW1 4382   2.479   2.610   2.858 -0.4384 -0.2468 -0.2945
32444SOL    HW2 4383   2.527   2.574   2.997 -1.9423 -1.7261 -0.1247
32445SOL     OW 4384   2.435   0.187   0.942 -0.0820  0.0812 -0.5238
32445SOL    HW1 4385   2.473   0.199   0.855 -1.5947 -0.7934 -1.3438
32445SOL    HW2 4386   2.353   0.141   0.927 -0.3991 -0.0837  1.3797
32446SOL     OW 4387  10.578   7.351  10.479  0.4851 -0.1827 -0.0118
32446SOL    HW1 4388  10.488   7.342  10.448 -0.3207 -0.5765  2.2877
32446SOL    HW2 4389  10.570   7.383  10.569  2.6211 -0.6322  0.3899
32447SOL     OW 4390  12.084   7.649   3.031 -0.2259 -0.0659 -0.5988
32447SOL    HW1 4391  12.072   7.556   3.012 -0.9436 -0.0694 -0.1671
32447SOL    HW2 4392  12.176   7.656   3.057  0.1857 -0.4163 -1.9291
32448SOL     OW 4393   2.527  10.764   5.101  0.0014 -0.8034 -0.5128
32448SOL    HW1 4394   2.484  10.776   5.016  1.6248  0.7548 -1.1667
32448SOL    HW2 4395   2.616  10.736   5.079  0.8019  0.7317  0.5772
32449SOL     OW 4396   5.040  11.149   8.325 -0.2799  0.2674 -0.3466
32449SOL    HW1 4397   5.103  11.082   8.300  0.6703  1.2474 -0.6169
32449SOL    HW2 4398   5.071  11.229   8.283 -2.1457  0.6181 -1.1570
32450SOL     OW 4399   2.467   1.913  11.030 -0.0321  0.2137  0.4701
32450SOL    HW1 4400   2.403   1.956  11.086  0.2822  1.2757  0.0420
32450SOL    HW2 4401   2.458   1.820  11.050 -2.6271  0.1596 -0.5449
32451SOL     OW 4402   9.199   7.107   5.979 -0.3068  0.0467 -0.8718
32451SOL    HW1 4403   9.272   7.073   5.927  0.1192 -2.3556  1.1351
32451SOL    HW2 4404   9.131   7.040   5.971 -0.8290  0.4116  0.3822
32452SOL     OW 4405   6.944  12.059   1.203 -0.0893 -0.0901  0.2156
32452SOL    HW1 4406   6.908  12.144   1.177 -0.2828 -0.1715  0.2185
32452SOL    HW2 4407   6.901  12.040   1.287  0.0349 -0.1404  0.2678
32453SOL     OW 4408   3.318   6.529   0.396  0.1185  0.2099  0.0029
32453SOL    HW1 4409   3.294   6.515   0.304  0.2137  0.0161  0.0079
32453SOL    HW2 4410   3.398   6.580   0.392  0.2510  0.0002 -0.0244
32454SOL     OW 4411   6.046  11.762  12.278  0.2066 -0.1481 -0.0327
32454SOL    HW1 4412   5.985  11.758  12.351  0.0627 -0.0214 -0.1486
32454SOL    HW2 4413   6.132  11.775  12.320 -0.0004  1.0163  0.0589
32455SOL     OW 4414   6.386   5.215  10.664 -0.1790  0.1768 -0.5383
32455SOL    HW1 4415   6.296   5.204  10.632 -0.2614  0.8165 -0.5489
32455SOL    HW2 4416   6.377   5.218  10.759 -0.1253 -0.1458 -0.5247
32456SOL     OW 4417   2.221   9.930  12.351  0.2230 -0.1402  0.7018
32456SOL    HW1 4418   2.301   9.879  12.339  0.6117  0.5650  0.2554
32456SOL    HW2 4419   2.229   9.966  12.439  0.4609  0.0359  0.6096
32457SOL     OW 4420   1.746   6.055   2.870 -0.5305  0.2974 -0.0978
32457SOL    HW1 4421   1.718   6.061   2.779  0.1982 -0.6526 -0.3955
32457SOL    HW2 4422   1.665   6.043   2.920 -0.8706  0.0978 -0.6898
32458SOL     OW 4423  10.553  10.813  10.387  0.1225 -0.2713  0.1680
32458SOL    HW1 4424  10.573  10.828  10.295 -0.4111  0.2987  0.1353
32458SOL    HW2 4425  10.586  10.725  10.406  1.1132 -0.0133 -0.3077
32459SOL     OW 4426   4.620   5.627   8.475 -0.0951 -0.0438 -0.3235
32459SOL    HW1 4427   4.595   5.694   8.411  0.4197  0.3189 -0.1526
32459SOL    HW2 4428   4.606   5.669   8.559  0.9278  0.1145 -0.2217
32460SOL     OW 4429   8.857   8.566   4.671 -0.2251  0.1882 -0.0555
32460SOL    HW1 4430   8.924   8.590   4.607  0.2978 -0.8914  0.0598
32460SOL    HW2 4431   8.884   8.479   4.702 -0.7551  0.4646  1.2411
32461SOL     OW 4432   0.225   9.670   4.862 -0.0411 -0.2754  0.0328
32461SOL    HW1 4433   0.238   9.584   4.902 -0.0729 -0.4233 -0.2714
32461SOL    HW2 4434   0.225   9.653   4.768  0.2446  0.0964 -0.0389
32462SOL     OW 4435  11.022   8.432  10.117  0.3143 -0.5829  0.0577
32462SOL    HW1 4436  11.060   8.489  10.184  0.2846  0.2114 -0.5766
32462SOL    HW2 4437  11.092   8.372  10.094  0.6212 -0.2669  0.1560
32463SOL     OW 4438  12.195   9.935  10.097  0.0288 -0.2818  0.5211
32463SOL    HW1 4439  12.188   9.943  10.192  0.4702  0.9585  0.4732
32463SOL    HW2 4440  12.281   9.895  10.083  0.3512  0.3599  0.6283
32464SOL     OW 4441  10.465   4.874  10.835  0.1113 -0.4148 -0.0656
32464SOL    HW1 4442  10.371   4.856  10.842 -0.0021  0.4943  1.0575
32464SOL    HW2 4443  10.469   4.960  10.792  0.5061 -1.1406 -1.5560
32465SOL     OW 4444  12.514   8.750   3.117  0.3229  0.2916 -0.7129
32465SOL    HW1 4445  12.431   8.708   3.093 -0.6010  1.0442  0.9422
32465SOL    HW2 4446  12.505   8.840   3.086  0.2383  0.5441  0.0200
32466SOL     OW 4447   2.660   7.013  11.707  0.2714  0.1095  0.3647
32466SOL    HW1 4448   2.736   7.070  11.703  1.3097 -1.2301  0.1850
32466SOL    HW2 4449   2.666   6.971  11.793 -1.6087  1.7283  1.3517
32467SOL     OW 4450  12.241   7.776   1.822  0.1791  0.4364 -1.0219
32467SOL    HW1 4451  12.221   7.845   1.885 -0.0080  0.1852 -0.8063
32467SOL    HW2 4452  12.161   7.766   1.771  0.3768  0.7396 -1.3975
32468SOL     OW 4453   7.965   6.616  11.028 -0.1809  0.3492  0.5631
32468SOL    HW1 4454   8.041   6.673  11.040  0.6425 -0.6017  0.0839
32468SOL    HW2 4455   7.966   6.559  11.105  1.0506 -1.2435 -0.5558
32469SOL     OW 4456   3.800   8.108   5.430  0.2850 -0.1547  0.2778
32469SOL    HW1 4457   3.814   8.109   5.525 -0.8838  0.6994  0.4619
32469SOL    HW2 4458   3.802   8.200   5.405 -1.6499 -0.2006 -0.1572
32470SOL     OW 4459   0.858   9.676   0.442 -0.3148  0.2089  0.2012
32470SOL    HW1 4460   0.878   9.587   0.470 -1.4631 -0.3794 -0.7849
32470SOL    HW2 4461   0.886   9.679   0.350 -0.5405  0.7770  0.1491
32471SOL     OW 4462   2.147   4.516  10.256  0.2687  0.6359 -0.0242
32471SOL    HW1 4463   2.139   4.595  10.310  0.0650  0.6125 -0.0190
32471SOL    HW2 4464   2.176   4.448  10.317 -0.8067  0.3987  0.2477
32472SOL     OW 4465   4.407   5.836   7.973 -0.7231  0.3286  0.1278
32472SOL    HW1 4466   4.465   5.817   7.899  0.6238  0.7617  1.0172
32472SOL    HW2 4467   4.448   5.911   8.016 -3.4768  2.4532 -0.7499
32473SOL     OW 4468  10.648   9.242   4.110 -0.8594  0.3233  0.5167
32473SOL    HW1 4469  10.652   9.338   4.111  0.0934  0.3410 -1.1395
32473SOL    HW2 4470  10.673   9.217   4.199  1.9106  1.6031  0.2265
32474SOL     OW 4471   0.995  11.959   0.705  0.3767 -0.2424  0.2738
32474SOL    HW1 4472   1.002  11.874   0.661  2.4637  0.4742 -0.8661
32474SOL    HW2 4473   1.012  11.940   0.797 -0.7862 -1.2692  0.3042
32475SOL     OW 4474   8.111   9.585  11.676  0.2721 -0.3107  0.4572
32475SOL    HW1 4475   8.064   9.664  11.651  0.0148 -0.6972 -0.3135
32475SOL    HW2 4476   8.198   9.617  11.702 -0.2564  0.3541  1.4539
32476SOL     OW 4477   0.386   2.311  10.648  1.2507  0.2076  0.6176
32476SOL    HW1 4478   0.433   2.227  10.647  2.4453  0.8490  0.0167
32476SOL    HW2 4479   0.439   2.367  10.705  0.8406  0.7452  0.4713
32477SOL     OW 4480   7.446   1.591   2.253  0.5491 -0.1852 -0.7281
32477SOL    HW1 4481   7.455   1.519   2.316  0.8819  1.0090  0.6371
32477SOL    HW2 4482   7.357   1.581   2.220 -1.2696  1.4497  3.0076
32478SOL     OW 4483   8.331  10.986   5.492 -0.1220  0.6193  0.4415
32478SOL    HW1 4484   8.335  10.993   5.587 -1.1566  1.4502  0.4362
32478SOL    HW2 4485   8.318  10.893   5.475 -2.5894  0.7477  1.2395
32479SOL     OW 4486  10.106   9.449  10.285 -0.0207 -0.1607 -0.1107
32479SOL    HW1 4487  10.159   9.525  10.309  0.2183  0.0751 -1.3134
32479SOL    HW2 4488  10.148   9.375  10.328 -1.3882  0.5841  2.7471
32480SOL     OW 4489   4.124   4.819   4.427 -0.7050 -0.2973  0.0657
32480SOL    HW1 4490   4.139   4.752   4.361  0.7349  0.6689 -0.6511
32480SOL    HW2 4491   4.146   4.776   4.510 -3.7350 -1.9049  0.1579
32481SOL     OW 4492   7.494  11.867   9.418  0.0511  0.3484  0.1830
32481SOL    HW1 4493   7.585  11.877   9.389  0.9541 -2.3741  1.7077
32481SOL    HW2 4494   7.449  11.831   9.343  0.2479  1.5021 -0.5161
32482SOL     OW 4495   1.128  10.461   0.727 -0.2413 -0.0980 -0.6393
32482SOL    HW1 4496   1.104  10.377   0.767  2.9028 -1.1131 -0.5336
32482SOL    HW2 4497   1.160  10.513   0.801  1.8450 -0.4969 -1.1866
32483SOL     OW 4498  10.891  12.585   6.840 -0.0496  0.3768  0.1478
32483SOL    HW1 4499  10.872  12.518   6.774 -1.5123  0.4003  0.5033
32483SOL    HW2 4500  10.983  12.608   6.825  0.3561 -1.3591 -0.2953
32484SOL     OW 4501  10.347  11.403   9.881 -0.7602  0.0529 -0.4087
32484SOL    HW1 4502  10.383  11.314   9.883 -1.7548 -0.3597  0.6506
32484SOL    HW2 4503  10.416  11.456   9.841 -0.5158 -1.3456 -1.9355
32485SOL     OW 4504  11.754   2.357  11.335 -0.2184  0.2352  0.2246
32485SOL    HW1 4505  11.837   2.397  11.308 -0.8929  0.4087 -1.7868
32485SOL    HW2 4506  11.770   2.263  11.333 -0.1135  0.2610 -0.3846
32486SOL     OW 4507   8.499  12.192   9.512 -0.0991 -0.6551  0.1841
32486SOL    HW1 4508   8.463  12.132   9.576  0.0970  0.3942  1.3215
32486SOL    HW2 4509   8.455  12.275   9.529  0.7114 -0.0966 -0.3425
32487SOL     OW 4510   7.560   2.074   5.007  0.4217  0.3736 -0.3349
32487SOL    HW1 4511   7.578   2.164   4.978  1.3328 -0.2761 -1.9344
32487SOL    HW2 4512   7.607   2.019   4.944  0.5670 -1.2205  1.1051
32488SOL     OW 4513  10.549   1.242   4.891  0.3617 -0.0036  0.2600
32488SOL    HW1 4514  10.468   1.289   4.871  0.7782  0.4100 -0.4896
32488SOL    HW2 4515  10.558   1.248   4.986  1.1377  2.6751  0.0936
32489SOL     OW 4516  11.716  10.814   7.469  0.2348 -0.0482  0.0608
32489SOL    HW1 4517  11.625  10.798   7.443  0.5864  0.1310 -1.3591
32489SOL    HW2 4518  11.763  10.823   7.387  1.5488 -0.1161  0.7813
32490SOL     OW 4519  11.410   1.588   2.914 -0.3580  0.0710 -0.0378
32490SOL    HW1 4520  11.496   1.548   2.923 -0.6056 -0.7726 -1.1607
32490SOL    HW2 4521  11.392   1.584   2.820 -2.3872 -1.4665  0.3387
32491SOL     OW 4522  11.904   2.927  12.545 -0.1337  0.2768 -0.0016
32491SOL    HW1 4523  11.923   2.928  12.451 -0.4539 -1.6337 -0.1371
32491SOL    HW2 4524  11.818   2.967  12.552 -0.2262  0.1928 -0.5683
32492SOL     OW 4525   8.116   4.360   8.701  0.1268 -0.3778  0.1090
32492SOL    HW1 4526   8.064   4.415   8.760  1.3791  0.0838  0.8226
32492SOL    HW2 4527   8.204   4.360   8.740  0.2264 -2.7462  0.0379
32493SOL     OW 4528   9.517   2.311  10.556 -0.4384 -0.1902 -0.8590
32493SOL    HW1 4529   9.593   2.307  10.614 -0.1411 -0.7568 -1.2766
32493SOL    HW2 4530   9.455   2.248  10.594 -0.3260 -0.4090 -1.0338
32494SOL     OW 4531   1.296   4.468   5.344  0.5521  0.4031  0.3708
32494SOL    HW1 4532   1.315   4.461   5.250 -1.4184 -0.0254 -0.0385
32494SOL    HW2 4533   1.261   4.556   5.354  0.5248  0.3580  0.6616
32495SOL     OW 4534  10.660  10.062   5.887  0.0045 -0.4325  0.4615
32495SOL    HW1 4535  10.624   9.975   5.868 -0.3476 -0.2609  0.3468
32495SOL    HW2 4536  10.721  10.078   5.814  0.1637 -0.6330  0.5474
32496SOL     OW 4537   7.883   3.687   7.174 -0.3077  0.1391  0.3770
32496SOL    HW1 4538   7.825   3.611   7.177  2.7022 -2.5134 -1.0968
32496SOL    HW2 4539   7.920   3.692   7.262 -1.4693  0.7720  0.8451
32497SOL     OW 4540   8.798   6.812   8.250 -0.0845  0.1920  0.0850
32497SOL    HW1 4541   8.816   6.882   8.187  2.4801 -0.7423 -0.3569
32497SOL    HW2 4542   8.866   6.822   8.316 -2.1700  0.5726  2.2855
32498SOL     OW 4543   2.762   6.156   8.412 -0.4248  0.4337 -0.0847
32498SOL    HW1 4544   2.782   6.160   8.319 -0.1313  2.1302  0.0240
32498SOL    HW2 4545   2.843   6.183   8.455 -0.9743  1.0097  0.6083
32499SOL     OW 4546   9.918   4.710   9.833  0.3538 -0.2529 -0.6679
32499SOL    HW1 4547   9.830   4.739   9.809  0.1557  0.4980  0.8330
32499SOL    HW2 4548   9.908   4.617   9.853 -0.5852  0.2440  1.4503
32500SOL     OW 4549   7.251   9.250   9.369 -0.1728  0.0506  0.0732
32500SOL    HW1 4550   7.344   9.257   9.387 -0.0993  0.0251 -0.2818
32500SOL    HW2 4551   7.239   9.299   9.287 -0.2784 -0.8540 -0.4664
32501SOL     OW 4552   2.287  10.041   8.540 -0.2241 -0.9765  0.6754
32501SOL    HW1 4553   2.232  10.057   8.617  1.0078 -0.0092  1.3794
32501SOL    HW2 4554   2.274   9.948   8.521 -2.5840 -0.6636  0.4131
32502SOL     OW 4555  12.266   6.983   8.244 -0.0317  0.0185 -0.1662
32502SOL    HW1 4556  12.337   7.041   8.218 -0.9179  0.8343 -0.8151
32502SOL    HW2 4557  12.307   6.919   8.302  0.9121  1.5202  0.9019
32503SOL     OW 4558   2.779  11.775  11.001  0.3559 -0.0306 -0.2440
32503SOL    HW1 4559   2.867  11.786  10.965 -0.6331  2.2467 -2.2674
32503SOL    HW2 4560   2.771  11.845  11.066 -0.1884  0.1892 -0.5479
32504SOL     OW 4561   8.787   1.338   9.865  0.4132 -0.3003 -0.0378
32504SOL    HW1 4562   8.796   1.315   9.957 -2.6622 -1.6194  0.0642
32504SOL    HW2 4563   8.778   1.254   9.820 -0.6829  0.3717 -1.1426
32505SOL     OW 4564   8.800   8.539   1.575 -0.0887 -0.0909  0.4696
32505SOL    HW1 4565   8.805   8.612   1.514  1.5721 -0.3892  0.2233
32505SOL    HW2 4566   8.708   8.511   1.571 -0.6132  1.6010  0.1553
32506SOL     OW 4567   1.948   9.484   6.200 -0.2750  0.1965  0.2576
32506SOL    HW1 4568   2.027   9.468   6.148  0.0045 -0.0725  0.7545
32506SOL    HW2 4569   1.959   9.572   6.234 -0.0014  0.0112  0.6499
32507SOL     OW 4570   7.910   9.893  12.128  0.6746 -0.0764  0.4895
32507SOL    HW1 4571   7.826   9.895  12.174  0.3456 -0.2838 -0.1019
32507SOL    HW2 4572   7.914   9.976  12.081  0.1046 -0.7125 -0.7099
32508SOL     OW 4573  10.004   0.384  11.529  0.5744 -0.3758 -0.3198
32508SOL    HW1 4574  10.035   0.442  11.460  1.3733  0.2505  0.5242
32508SOL    HW2 4575  10.075   0.321  11.541  0.1980 -0.8239 -0.4543
32509SOL     OW 4576   3.994  10.325   5.117 -0.1614 -0.3950  0.4879
32509SOL    HW1 4577   4.053  10.331   5.192 -0.5440  0.2154  0.7396
32509SOL    HW2 4578   3.906  10.333   5.153 -0.4849 -2.2896  0.2355
32510SOL     OW 4579  10.236  11.626   4.118  0.0590 -0.6976  0.8344
32510SOL    HW1 4580  10.289  11.705   4.103  3.5415 -2.8377  0.8193
32510SOL    HW2 4581  10.196  11.641   4.203  0.9061  0.9750  0.9878
32511SOL     OW 4582   6.906   1.831   3.256 -0.0230 -0.1825  0.0957
32511SOL    HW1 4583   6.823   1.879   3.258 -0.1194 -0.1953 -1.9598
32511SOL    HW2 4584   6.882   1.743   3.227  0.7976  0.0853 -1.4677
32512SOL     OW 4585   7.458   5.644   8.212  0.5169  0.1566  0.3137
32512SOL    HW1 4586   7.415   5.603   8.287  0.8872 -0.2698  0.3001
32512SOL    HW2 4587   7.464   5.737   8.234 -0.3712  0.2163  0.3282
32513SOL     OW 4588   8.081   2.978   9.402  0.7532  0.8060  0.0705
32513SOL    HW1 4589   8.017   2.936   9.460  1.2287  0.3427  0.2586
32513SOL    HW2 4590   8.129   2.906   9.363  0.5766  1.1216 -0.7504
32514SOL     OW 4591   9.991  11.556   6.831 -0.5812  0.6768  0.2248
32514SOL    HW1 4592   9.928  11.566   6.759  0.7912  0.6502 -1.0302
32514SOL    HW2 4593   9.939  11.569   6.910 -1.8073  2.5835 -0.8218
32515SOL     OW 4594   6.664   1.487   9.984 -0.0147 -0.3747  0.5000
32515SOL    HW1 4595   6.620   1.447  10.059 -2.0131  1.2914  0.3125
32515SOL    HW2 4596   6.746   1.522  10.019  0.6170 -2.4282  1.1619
32516SOL     OW 4597   9.223   1.354  11.242 -0.1001 -0.4145 -0.4070
32516SOL    HW1 4598   9.272   1.285  11.287 -0.4089 -0.5799 -0.3170
32516SOL    HW2 4599   9.169   1.393  11.310 -0.6960 -0.7788 -0.6606
32517SOL     OW 4600   9.530  11.952   2.976  0.0754 -0.4085 -0.4682
32517SOL    HW1 4601   9.612  11.918   3.011  0.4216  0.1076 -0.7573
32517SOL    HW2 4602   9.462  11.895   3.012  0.2607  0.8755  2.1978
32518SOL     OW 4603  10.885   0.270   5.706 -0.5763  0.1934  0.0437
32518SOL    HW1 4604  10.859   0.239   5.793  0.6276  0.6993  0.6082
32518SOL    HW2 4605  10.804   0.270   5.656 -1.9385  2.7165  2.0098
32519SOL     OW 4606   0.867   5.167   6.091 -0.6733 -0.6021  0.1567
32519SOL    HW1 4607   0.845   5.260   6.084 -0.8305 -0.7021 -0.7329
32519SOL    HW2 4608   0.783   5.122   6.095 -0.6286 -0.8324 -1.2178
32520SOL     OW 4609  12.263   4.893  10.394  0.4405  0.3270 -0.0203
32520SOL    HW1 4610  12.339   4.919  10.342  0.0293  1.4266 -0.0998
32520SOL    HW2 4611  12.263   4.797  10.390  0.6519  0.3706 -1.7163
32521SOL     OW 4612   2.662   9.767   1.754 -0.4800  0.2893 -0.0525
32521SOL    HW1 4613   2.595   9.821   1.711 -0.2993 -0.8085 -1.8114
32521SOL    HW2 4614   2.616   9.722   1.824 -1.0013  1.4334  0.3618
32522SOL     OW 4615   8.942  12.288   8.553 -0.7851 -0.1839  0.2128
32522SOL    HW1 4616   8.889  12.225   8.506 -0.3060 -1.0579  0.8090
32522SOL    HW2 4617   8.907  12.287   8.642  0.2992 -0.9029  0.6593
32523SOL     OW 4618   7.045   7.248   0.393  0.1585  0.1754  0.1643
32523SOL    HW1 4619   7.100   7.326   0.401  0.1755  0.0981  0.8161
32523SOL    HW2 4620   7.037   7.215   0.482 -2.3953  1.2038  0.4012
32524SOL     OW 4621   4.521  12.324   8.811  0.0511 -0.2237 -0.6801
32524SOL    HW1 4622   4.449  12.383   8.834 -0.3303 -0.3177 -1.5865
32524SOL    HW2 4623   4.495  12.239   8.847 -0.9890 -0.5916 -2.1723
32525SOL     OW 4624   5.732   9.090   4.820  0.8683 -0.2852  0.5431
32525SOL    HW1 4625   5.739   9.029   4.894  0.5057  0.3966  1.1594
32525SOL    HW2 4626   5.772   9.044   4.747  2.2045 -0.5638  1.4204
32526SOL     OW 4627   5.225  10.771   9.686  0.1778  0.6769  0.2329
32526SOL    HW1 4628   5.194  10.860   9.699  0.6471  1.1004 -1.3112
32526SOL    HW2 4629   5.154  10.727   9.639  0.0918  0.3267  0.6764
32527SOL     OW 4630   6.257  10.989   2.107  0.4999 -0.4698 -0.1237
32527SOL    HW1 4631   6.324  10.938   2.061  1.3175  0.6699 -0.2354
32527SOL    HW2 4632   6.307  11.047   2.165 -0.3278  1.1151 -0.9467
32528SOL     OW 4633   3.136  11.487   7.777 -0.5944  0.2618 -0.2320
32528SOL    HW1 4634   3.177  11.566   7.742 -1.7438  0.3688 -1.4295
32528SOL    HW2 4635   3.153  11.420   7.710 -0.9716 -0.0962  0.0275
32529SOL     OW 4636   0.189   6.960   6.357 -0.0887  0.1484  0.1132
32529SOL    HW1 4637   0.257   6.904   6.396 -0.6056 -1.1560 -0.7729
32529SOL    HW2 4638   0.215   7.049   6.380  2.0353 -0.3033 -0.3741
32530SOL     OW 4639   9.655   0.093   7.919 -0.7226  0.2416 -0.3987
32530SOL    HW1 4640   9.616   0.163   7.971 -0.3836  1.2078 -1.4002
32530SOL    HW2 4641   9.726   0.060   7.973 -0.4795  1.1181 -0.1622
32531SOL     OW 4642  12.483   4.534   4.365  0.3791  0.3054 -0.2401
32531SOL    HW1 4643  12.464   4.561   4.455 -1.1656  1.1333 -0.7854
32531SOL    HW2 4644  12.560   4.586   4.341  0.2090  0.8230  0.2878
32532SOL     OW 4645   9.434   6.879   6.586 -0.0785  0.3592 -0.3583
32532SOL    HW1 4646   9.340   6.881   6.606 -0.0028 -1.7455  0.3971
32532SOL    HW2 4647   9.476   6.860   6.669  0.9613  0.3711 -0.8634
32533SOL     OW 4648   7.637   6.609   4.248  0.1453  0.3872 -0.1497
32533SOL    HW1 4649   7.652   6.515   4.263 -3.7437 -0.2008  1.2217
32533SOL    HW2 4650   7.629   6.617   4.153  1.9745 -0.3368 -0.3986
32534SOL     OW 4651   0.988   1.484   3.269  0.5195 -0.4240 -0.2109
32534SOL    HW1 4652   0.909   1.514   3.224  0.5018 -0.3169 -0.1114
32534SOL    HW2 4653   1.028   1.565   3.302  1.4814 -0.3198 -1.5783
32535SOL     OW 4654   7.959   9.508   9.982  0.5331 -0.1227  0.7925
32535SOL    HW1 4655   7.992   9.586  10.027  0.1034  0.7324 -0.3066
32535SOL    HW2 4656   7.935   9.448  10.052 -2.4774  2.1009  1.8887
32536SOL     OW 4657  12.461  11.629   3.823  0.1484  0.4270  0.0758
32536SOL    HW1 4658  12.388  11.621   3.885 -0.1299 -1.7903 -0.4723
32536SOL    HW2 4659  12.430  11.691   3.757 -2.1330 -1.9457 -1.2533
32537SOL     OW 4660  12.139   2.983   2.020  0.5531 -0.3100 -0.1256
32537SOL    HW1 4661  12.173   2.930   2.093  0.4998 -1.3442 -0.8324
32537SOL    HW2 4662  12.203   2.971   1.950 -1.3439 -2.6104 -1.6194
32538SOL     OW 4663  11.129  11.669  10.886 -0.4117 -0.2099  0.1404
32538SOL    HW1 4664  11.202  11.652  10.947  0.1118 -0.0937 -0.4402
32538SOL    HW2 4665  11.135  11.762  10.867  0.2558 -0.4786 -1.1030
32539SOL     OW 4666   9.401   3.947  12.545  0.4888  0.2945 -0.2467
32539SOL    HW1 4667   9.308   3.925  12.544  0.6702 -0.5554  0.3301
32539SOL    HW2 4668   9.417   3.978  12.634  0.8686 -0.0859 -0.1801
32540SOL     OW 4669   0.709   4.338  10.114  0.0524  0.3241  0.2454
32540SOL    HW1 4670   0.737   4.248  10.105  1.4561  0.5720  1.7321
32540SOL    HW2 4671   0.721   4.358  10.207 -0.8710  1.8387  0.0793
32541SOL     OW 4672   9.958   9.283   0.020 -0.3866  0.4078 -0.1681
32541SOL    HW1 4673   9.945   9.236   0.102  2.7951 -0.2786  0.0862
32541SOL    HW2 4674   9.996   9.367   0.046 -2.3488  1.5925 -0.8546
32542SOL     OW 4675  10.711   2.948   9.609  0.0601  0.4166  0.5764
32542SOL    HW1 4676  10.621   2.936   9.638  0.1415  0.6477  0.9214
32542SOL    HW2 4677  10.764   2.910   9.679  0.2240 -0.0667  0.1975
32543SOL     OW 4678  10.986  10.657   7.050  0.4578  0.1022  0.5301
32543SOL    HW1 4679  10.980  10.691   6.961  0.7763  2.5618  1.3786
32543SOL    HW2 4680  10.993  10.562   7.039 -0.2027  0.2855 -2.0103
32544SOL     OW 4681  11.344   4.907   2.331  0.0680  0.2876  0.3438
32544SOL    HW1 4682  11.286   4.938   2.261 -1.3606  1.0201  1.7801
32544SOL    HW2 4683  11.379   4.986   2.371  1.0521 -0.1275  0.3194
32545SOL     OW 4684   1.855  11.123   1.405  0.0327  0.6344 -0.4495
32545SOL    HW1 4685   1.891  11.083   1.485  1.3433 -0.5368 -1.5723
32545SOL    HW2 4686   1.803  11.197   1.437  0.1600 -0.0569  1.5111
32546SOL     OW 4687   8.277   9.229  12.377 -0.7018  0.1472 -0.2537
32546SOL    HW1 4688   8.361   9.248  12.418 -0.9522  0.3056  0.1837
32546SOL    HW2 4689   8.289   9.142  12.337  0.1004  0.7376 -1.3595
32547SOL     OW 4690  10.844  11.132   9.480  0.0901  0.0736  0.0759
32547SOL    HW1 4691  10.852  11.069   9.409  0.2247  0.8276 -0.5857
32547SOL    HW2 4692  10.775  11.192   9.452  0.1066  0.3504  0.6033
32548SOL     OW 4693   7.003   5.771   7.650  0.6433 -0.5112  0.5266
32548SOL    HW1 4694   6.937   5.821   7.601  0.9669 -0.0698  0.5331
32548SOL    HW2 4695   6.981   5.679   7.633 -0.7231 -0.3947  1.5192
32549SOL     OW 4696  12.133   2.156  10.863 -0.6629  0.3072  0.1473
32549SOL    HW1 4697  12.211   2.183  10.912 -0.7580 -0.7495  0.9179
32549SOL    HW2 4698  12.116   2.066  10.893 -1.8493  0.3268 -0.4235
32550SOL     OW 4699   3.687   9.657  10.550 -0.0191 -0.0058 -0.2630
32550SOL    HW1 4700   3.637   9.640  10.471 -1.5570 -0.6727  0.7949
32550SOL    HW2 4701   3.622   9.658  10.620  1.4577 -0.9613  1.2057
32551SOL     OW 4702   5.334   9.544   4.433  0.5502  0.3383 -0.0788
32551SOL    HW1 4703   5.296   9.631   4.447  1.5669  0.6770  0.7467
32551SOL    HW2 4704   5.274   9.484   4.478 -0.5986  0.4939 -1.3476
32552SOL     OW 4705   6.838   7.261   8.161  0.4073 -0.1136  0.2947
32552SOL    HW1 4706   6.930   7.269   8.136  1.0129 -1.5262  1.8623
32552SOL    HW2 4707   6.822   7.167   8.163 -1.2289  0.1251 -0.4076
32553SOL     OW 4708   7.946   2.940  10.871 -0.1785  0.3441  0.2174
32553SOL    HW1 4709   7.856   2.962  10.894  0.1939 -1.1190  3.8280
32553SOL    HW2 4710   7.938   2.868  10.809 -1.4614  0.6858 -0.0527
32554SOL     OW 4711   8.627   5.040   1.841 -0.1971 -0.4962  0.4226
32554SOL    HW1 4712   8.710   5.072   1.876  0.3333 -0.9507 -0.3672
32554SOL    HW2 4713   8.575   5.017   1.918  0.6237 -0.7214  0.9204
32555SOL     OW 4714   6.248   1.819   7.124  0.5315  0.4309 -0.3888
32555SOL    HW1 4715   6.192   1.852   7.194  0.3168 -1.9692  0.6775
32555SOL    HW2 4716   6.197   1.833   7.044  0.0897  1.7506  0.1006
32556SOL     OW 4717   7.859  12.326   9.842  0.1261  0.1250 -0.3543
32556SOL    HW1 4718   7.833  12.250   9.790  0.8548  1.5791 -3.0529
32556SOL    HW2 4719   7.940  12.300   9.885 -0.2983 -1.0059 -0.2111
32557SOL     OW 4720   1.872   6.510   2.957 -0.4854 -0.7967  0.8732
32557SOL    HW1 4721   1.838   6.423   2.977  1.5420 -1.3319  2.3180
32557SOL    HW2 4722   1.914   6.500   2.871 -0.3582 -1.2032  0.9813
32558SOL     OW 4723   0.189   0.318   3.921  0.1529  0.1429  0.3231
32558SOL    HW1 4724   0.227   0.230   3.915  0.0122  0.1696 -2.0038
32558SOL    HW2 4725   0.235   0.359   3.994  1.0648 -1.4610  0.7050
32559SOL     OW 4726   9.087   5.079   4.941  0.0713  0.2035 -0.1388
32559SOL    HW1 4727   9.041   5.146   4.891 -1.4217 -0.8431 -0.2223
32559SOL    HW2 4728   9.142   5.034   4.877  1.2764  1.4650 -0.0381
32560SOL     OW 4729   7.109  12.075   9.540  0.0978  0.2671  0.2737
32560SOL    HW1 4730   7.179  12.013   9.561 -0.6881 -0.2055  1.6243
32560SOL    HW2 4731   7.068  12.038   9.462 -0.7667 -1.3122  1.4205
32561SOL     OW 4732  11.768  10.939   8.950  0.7682  0.0267  0.3618
32561SOL    HW1 4733  11.794  10.989   9.028 -0.8072  1.0698  0.2846
32561SOL    HW2 4734  11.720  11.003   8.897  3.4046 -0.1147 -2.4231
32562SOL     OW 4735   3.714   8.935   3.550  0.2519 -0.4897 -0.3147
32562SOL    HW1 4736   3.663   8.877   3.608 -2.3118  1.2692 -0.6877
32562SOL    HW2 4737   3.770   8.984   3.610 -0.7295 -0.3007  0.4817
32563SOL     OW 4738   6.321  11.368  11.584  0.1290 -0.3500  0.5493
32563SOL    HW1 4739   6.280  11.282  11.580 -0.5157 -0.0753  1.0572
32563SOL    HW2 4740   6.415  11.351  11.571 -0.1658 -0.9449 -0.9658
32564SOL     OW 4741  11.321   6.118   8.520  0.1771  0.0903 -0.2440
32564SOL    HW1 4742  11.402   6.134   8.472  0.0227 -0.9198 -0.8681
32564SOL    HW2 4743  11.313   6.022   8.522 -0.9090  0.1789 -0.0281
32565SOL     OW 4744   4.877  12.063   8.371  0.2646  0.1662 -0.2787
32565SOL    HW1 4745   4.929  12.036   8.447  0.5672 -0.5164 -0.7254
32565SOL    HW2 4746   4.860  11.982   8.323  1.9537  0.8407 -2.1406
32566SOL     OW 4747   0.799  10.160  12.091 -0.2583  0.3216 -0.0913
32566SOL    HW1 4748   0.833  10.188  12.176  0.8099 -0.0939 -0.3606
32566SOL    HW2 4749   0.798  10.064  12.096  1.6400  0.1980 -1.1888
32567SOL     OW 4750   7.513   0.461   0.459  0.3561 -0.1792  0.4250
32567SOL    HW1 4751   7.484   0.494   0.374  0.1604 -0.4461  0.3863
32567SOL    HW2 4752   7.567   0.384   0.438 -0.0626 -0.5168  0.5580
32568SOL     OW 4753   1.493   7.142   4.287  0.0962 -0.0763 -0.0452
32568SOL    HW1 4754   1.442   7.175   4.361 -1.2149 -1.7196 -0.1468
32568SOL    HW2 4755   1.579   7.183   4.297 -1.1632  2.7924  0.1446
32569SOL     OW 4756   5.630   8.469   3.544  0.1864 -0.1621 -0.0395
32569SOL    HW1 4757   5.663   8.428   3.623 -0.4674 -0.7876 -0.0768
32569SOL    HW2 4758   5.692   8.540   3.525 -0.5986  1.1833  2.0366
32570SOL     OW 4759   2.602   0.347   8.218 -0.2139 -0.4284  0.5036
32570SOL    HW1 4760   2.547   0.342   8.140  0.5284 -1.2621  0.0169
32570SOL    HW2 4761   2.652   0.265   8.218 -0.8131 -0.8507  2.3349
32571SOL     OW 4762  10.453   0.645   3.638  0.0693 -0.0670  0.3953
32571SOL    HW1 4763  10.378   0.699   3.663 -0.6160  0.2658 -2.1172
32571SOL    HW2 4764  10.414   0.569   3.595  1.1103  0.5244 -1.7261
32572SOL     OW 4765   6.807   6.887   0.799  0.4483 -0.5233 -0.6109
32572SOL    HW1 4766   6.741   6.869   0.732  0.9907  1.6631 -1.8497
32572SOL    HW2 4767   6.881   6.923   0.749  1.3670 -0.0125  1.0596
32573SOL     OW 4768  10.115   5.794   1.947 -0.0651 -0.1510 -0.9410
32573SOL    HW1 4769  10.036   5.773   1.897  0.4717  0.1691 -1.9357
32573SOL    HW2 4770  10.155   5.709   1.965 -0.3029 -0.2712 -0.9722
32574SOL     OW 4771   2.029   6.848   7.127 -0.1036 -0.0378  0.1977
32574SOL    HW1 4772   2.080   6.907   7.072 -0.7735 -1.2778 -1.8845
32574SOL    HW2 4773   1.980   6.906   7.186  0.3711  1.3846 -0.7561
32575SOL     OW 4774  11.962   2.561  11.014  0.7644  0.2497  0.1391
32575SOL    HW1 4775  11.943   2.647  10.978  3.0648  0.6553 -0.2752
32575SOL    HW2 4776  11.886   2.508  10.991 -0.8795  2.2191  0.7194
32576SOL     OW 4777   2.578   3.286   5.666 -0.8584 -0.3985 -0.0728
32576SOL    HW1 4778   2.559   3.223   5.597 -0.4417 -0.6533  0.0489
32576SOL    HW2 4779   2.571   3.236   5.747 -0.9144 -0.1974  0.0472
32577SOL     OW 4780   2.239   6.601   8.711 -0.1769  0.7919 -0.4024
32577SOL    HW1 4781   2.210   6.605   8.620 -0.6173  2.0577 -0.2200
32577SOL    HW2 4782   2.303   6.530   8.713 -0.6281  0.3376 -1.5606
32578SOL     OW 4783  11.579   2.609   6.211 -0.4893 -0.7852 -0.5530
32578SOL    HW1 4784  11.501   2.620   6.266 -0.3156  0.6377 -0.5284
32578SOL    HW2 4785  11.635   2.549   6.261 -0.2599  0.6024  0.9815
32579SOL     OW 4786   7.700  12.520   9.867  0.5309  0.2316 -0.0444
32579SOL    HW1 4787   7.768  12.462   9.832  1.4175  0.8487  0.6203
32579SOL    HW2 4788   7.628  12.461   9.890  0.3385 -0.3036 -1.8726
32580SOL     OW 4789   8.205   2.162   3.038 -0.5505 -0.4572 -0.6004
32580SOL    HW1 4790   8.231   2.116   2.959 -2.3242  0.8452 -2.0232
32580SOL    HW2 4791   8.265   2.237   3.043  0.6235 -1.4032  0.2641
32581SOL     OW 4792  12.588   7.200   2.784 -0.3483 -0.1285  0.2608
32581SOL    HW1 4793  12.553   7.183   2.872  1.3045  0.1603  1.0269
32581SOL    HW2 4794  12.512   7.196   2.727 -1.4476 -0.5517  1.6743
32582SOL     OW 4795   2.195   6.809  12.376 -0.1527 -0.0499  0.1754
32582SOL    HW1 4796   2.177   6.790  12.284 -1.4963 -0.2657  0.4629
32582SOL    HW2 4797   2.213   6.724  12.416 -0.4143 -0.0548  0.2838
32583SOL     OW 4798   8.338   3.413   3.496 -0.7344  0.4028  0.2946
32583SOL    HW1 4799   8.267   3.376   3.549  1.6959 -2.4233  1.9225
32583SOL    HW2 4800   8.339   3.360   3.416 -0.2198  0.0918  0.4964
32584SOL     OW 4801   3.478   0.816   3.351 -0.6481 -0.0372  0.0260
32584SOL    HW1 4802   3.526   0.796   3.271 -0.2372 -0.9441  0.4822
32584SOL    HW2 4803   3.433   0.898   3.332  0.2419  0.2894 -0.7822
32585SOL     OW 4804  10.928   1.968  11.617  0.3843  0.4078 -0.3792
32585SOL    HW1 4805  10.865   2.005  11.555 -1.6668  2.8420  2.8242
32585SOL    HW2 4806  10.910   1.874  11.617 -0.2053  0.4727 -2.6612
32586SOL     OW 4807   0.964  12.045   9.459 -0.1834 -0.2050 -0.2358
32586SOL    HW1 4808   1.028  12.110   9.432 -0.8520 -0.4780 -2.7112
32586SOL    HW2 4809   0.895  12.096   9.501 -0.5393  0.6946 -1.8239
32587SOL     OW 4810  11.888   9.703  11.324  0.0573  0.1978 -0.0987
32587SOL    HW1 4811  11.865   9.713  11.232 -0.0621  0.9615  0.0040
32587SOL    HW2 4812  11.962   9.642  11.324 -0.6616 -0.7114 -0.5956
32588SOL     OW 4813  10.567  10.343   6.562 -0.0205 -0.0775  0.0011
32588SOL    HW1 4814  10.573  10.393   6.644  1.0667 -2.0965  1.2183
32588SOL    HW2 4815  10.625  10.391   6.501 -0.3259  1.0766  0.5813
32589SOL     OW 4816   7.046  11.277  10.148 -0.3805 -0.0102 -0.4567
32589SOL    HW1 4817   6.999  11.203  10.185 -0.4362  0.1754 -0.1475
32589SOL    HW2 4818   7.137  11.263  10.174 -0.6678  0.9749  1.2025
32590SOL     OW 4819  12.174  10.136   1.693  0.2876  0.4626 -0.2155
32590SOL    HW1 4820  12.185  10.049   1.653  0.3075  0.7113 -0.7540
32590SOL    HW2 4821  12.110  10.122   1.762  0.4599 -0.0318 -0.1505
32591SOL     OW 4822   8.232   1.755   2.532  0.0417 -0.0399  0.1634
32591SOL    HW1 4823   8.306   1.694   2.530  0.2399  0.1898 -1.6473
32591SOL    HW2 4824   8.155   1.700   2.547  0.6047 -0.1666  3.2145
32592SOL     OW 4825   6.250   5.298   8.478  0.5785  0.1953 -0.1506
32592SOL    HW1 4826   6.231   5.387   8.449  0.4930 -0.5280 -2.4990
32592SOL    HW2 4827   6.310   5.309   8.552 -1.2782  2.2255  1.1478
32593SOL     OW 4828   7.168   9.974  10.001  0.1091 -0.3288  0.0746
32593SOL    HW1 4829   7.075   9.954   9.997  0.0909 -1.5632  3.4742
32593SOL    HW2 4830   7.174  10.066   9.973 -1.9733 -0.4681 -1.0046
32594SOL     OW 4831   3.776   2.853   5.434 -0.3645  0.1597 -0.0097
32594SOL    HW1 4832   3.863   2.868   5.397  0.3757 -5.2541 -1.2872
32594SOL    HW2 4833   3.792   2.831   5.526 -0.1765 -1.5382 -0.4154
32595SOL     OW 4834   1.537   8.661  10.083 -0.4253  0.2038 -0.5305
32595SOL    HW1 4835   1.499   8.620  10.005 -1.3445  1.9264 -1.0475
32595SOL    HW2 4836   1.461   8.693  10.131  0.2641  2.7411 -1.0171
32596SOL     OW 4837   1.184   0.580   8.556  0.0276  0.3837  0.5108
32596SOL    HW1 4838   1.167   0.492   8.522  2.6559  0.4169 -1.2279
32596SOL    HW2 4839   1.112   0.633   8.523  0.5654 -0.3502 -2.1268
32597SOL     OW 4840   9.405   9.854   4.621  0.4967 -0.0428  0.4455
32597SOL    HW1 4841   9.440   9.865   4.533  0.3725 -0.0426  0.3956
32597SOL    HW2 4842   9.469   9.798   4.666 -0.0094 -1.0168 -0.0015
32598SOL     OW 4843   1.998   5.982   2.945 -0.6304 -0.1707  0.5767
32598SOL    HW1 4844   1.915   6.021   2.919 -0.1189  0.7559  0.2741
32598SOL    HW2 4845   1.974   5.914   3.008 -1.5946  0.2679  0.7036
32599SOL     OW 4846  10.400   4.470   5.950  0.1529 -0.0285  0.0576
32599SOL    HW1 4847  10.469   4.487   6.013  0.8658 -0.1636 -0.6652
32599SOL    HW2 4848  10.443   4.420   5.880 -0.6030  0.1507 -0.5531
32600SOL     OW 4849   0.515  10.454   5.560 -0.3058 -0.1943  0.0205
32600SOL    HW1 4850   0.537  10.361   5.567 -1.7232 -0.6198 -0.7639
32600SOL    HW2 4851   0.528  10.489   5.648 -2.0820 -1.6949  0.9601
32601SOL     OW 4852   6.559   9.996   9.487  0.3425  0.1773  0.4243
32601SOL    HW1 4853   6.546  10.066   9.552  2.6421  1.2562 -0.1691
32601SOL    HW2 4854   6.576   9.918   9.540  1.3447  0.8557  1.1581
32602SOL     OW 4855  11.960  11.747   9.752 -0.4326  0.5421  0.4319
32602SOL    HW1 4856  11.933  11.664   9.714 -1.8519  0.9036  0.5927
32602SOL    HW2 4857  11.884  11.776   9.802  0.6846  1.0596  1.8877
32603SOL     OW 4858   9.714   9.509   5.233  0.3105  0.8201  0.2094
32603SOL    HW1 4859   9.781   9.571   5.204 -0.3860  1.8064  0.6724
32603SOL    HW2 4860   9.707   9.446   5.162  1.7503  0.6799  0.1656
32604SOL     OW 4861  11.422   1.190   6.739 -0.2203 -0.4390 -0.0034
32604SOL    HW1 4862  11.404   1.274   6.783 -0.9579 -0.0717 -0.9546
32604SOL    HW2 4863  11.493   1.210   6.678 -1.0871 -0.2291 -0.9682
32605SOL     OW 4864   1.618   1.655   6.977  0.1133  0.1523  0.0816
32605SOL    HW1 4865   1.613   1.646   6.882 -0.1788 -0.5881  0.1628
32605SOL    HW2 4866   1.637   1.748   6.991  0.7441  0.1548 -0.7125
32606SOL     OW 4867   7.515   9.238  11.676  0.2477  0.2077  0.1926
32606SOL    HW1 4868   7.590   9.244  11.617  0.0491  1.3810  0.0327
32606SOL    HW2 4869   7.458   9.172  11.636  1.1583 -0.6620  0.2944
32607SOL     OW 4870  11.408   5.787   5.929  0.0786 -0.8089  0.4026
32607SOL    HW1 4871  11.331   5.820   5.882  0.8639 -0.8033 -0.9061
32607SOL    HW2 4872  11.464   5.863   5.942 -0.2414 -0.7564  1.6234
32608SOL     OW 4873   0.390  10.275   2.439  0.0511  0.4690 -0.2100
32608SOL    HW1 4874   0.307  10.295   2.482  0.0375  0.0384 -0.0305
32608SOL    HW2 4875   0.369  10.203   2.379 -0.0247  1.3476 -1.2714
32609SOL     OW 4876   3.728   7.988   4.896  0.0645  0.6154  0.2254
32609SOL    HW1 4877   3.769   7.993   4.810 -0.0671  1.0959  0.1918
32609SOL    HW2 4878   3.677   7.907   4.893  0.4325  0.3875  0.0191
32610SOL     OW 4879   3.253   8.134   1.802 -0.2249 -0.3447 -0.3413
32610SOL    HW1 4880   3.281   8.113   1.713  2.4714 -1.7511  0.7077
32610SOL    HW2 4881   3.315   8.202   1.831 -0.0745 -0.9989  0.9333
32611SOL     OW 4882   1.264   3.802   4.805 -0.2797 -0.1406 -0.0923
32611SOL    HW1 4883   1.177   3.765   4.795 -0.3520  0.2733 -1.1496
32611SOL    HW2 4884   1.323   3.738   4.765 -0.3240  0.4697 -1.1910
32612SOL     OW 4885  12.365   3.414   3.644 -0.2428 -0.3124 -0.7216
32612SOL    HW1 4886  12.414   3.497   3.649  1.2650 -1.1274 -1.2551
32612SOL    HW2 4887  12.303   3.418   3.716  1.3573  0.3151  0.6723
32613SOL     OW 4888   1.553  10.021   3.391  0.0291  0.4307  0.3299
32613SOL    HW1 4889   1.463  10.001   3.366 -0.9897  2.4556  2.0797
32613SOL    HW2 4890   1.563  10.115   3.375  1.5823  0.4069  0.8978
32614SOL     OW 4891   6.751  12.139   1.914 -0.5341 -0.1561 -0.0161
32614SOL    HW1 4892   6.755  12.113   2.006  0.0734  1.0136  0.3108
32614SOL    HW2 4893   6.785  12.229   1.913 -0.1699 -0.2871 -1.4376
32615SOL     OW 4894   7.964   7.479   0.049 -0.0207 -0.2983 -0.1658
32615SOL    HW1 4895   7.969   7.443  -0.040 -1.1937 -1.6285  0.2741
32615SOL    HW2 4896   8.030   7.430   0.098  1.3280  1.1233 -0.4889
32616SOL     OW 4897   6.365   6.097   8.523  0.4208  0.3188  0.7797
32616SOL    HW1 4898   6.366   6.035   8.596 -0.1824 -2.8053 -1.6502
32616SOL    HW2 4899   6.457   6.120   8.511  0.9302 -1.5811  0.6747
32617SOL     OW 4900   8.288   1.250   2.560 -0.4398  0.6269 -0.1897
32617SOL    HW1 4901   8.349   1.221   2.628 -0.6280 -1.5917 -0.8730
32617SOL    HW2 4902   8.202   1.237   2.598 -0.5292  1.3378 -0.1382
32618SOL     OW 4903   7.410   2.358   8.785  0.0345 -0.3110  0.6735
32618SOL    HW1 4904   7.444   2.299   8.718  0.5628  0.2680  0.4264
32618SOL    HW2 4905   7.427   2.445   8.751  1.2765  0.0162  2.0298
32619SOL     OW 4906   5.813   5.991   1.446  0.2220 -0.2220  0.8349
32619SOL    HW1 4907   5.819   6.036   1.531  0.4499  1.6447 -0.1285
32619SOL    HW2 4908   5.758   6.048   1.392 -0.0585 -1.4619 -0.2559
32620SOL     OW 4909   7.126  11.390   7.926  0.0456  0.1889  0.0910
32620SOL    HW1 4910   7.103  11.320   7.864 -3.0214 -0.5900  1.8612
32620SOL    HW2 4911   7.192  11.351   7.983 -0.3678 -0.6867 -0.0072
32621SOL     OW 4912   1.203   4.032   4.083  0.0544  0.1891 -0.0152
32621SOL    HW1 4913   1.289   4.019   4.122 -0.0010  2.4698  1.0366
32621SOL    HW2 4914   1.142   3.990   4.143  0.3702 -1.1002 -0.5649
32622SOL     OW 4915  12.009   5.447   5.334  0.3234  0.0102  0.4437
32622SOL    HW1 4916  12.091   5.404   5.358 -0.5429 -1.7799  0.3328
32622SOL    HW2 4917  11.942   5.381   5.349 -1.2615  1.7784  1.5546
32623SOL     OW 4918   4.968   9.484   3.753  0.3066  0.2199 -0.2547
32623SOL    HW1 4919   5.046   9.436   3.779  0.8405  0.7880 -0.7713
32623SOL    HW2 4920   4.999   9.573   3.734 -0.3786  0.3334 -0.9130
32624SOL     OW 4921  11.427   0.390   3.491  0.0664  0.4309  0.0619
32624SOL    HW1 4922  11.357   0.406   3.428  0.2640 -0.2603 -0.3447
32624SOL    HW2 4923  11.385   0.403   3.576 -0.3783  0.6958 -0.1901
32625SOL     OW 4924   2.677   9.979   8.688 -0.1810  0.3662 -0.3477
32625SOL    HW1 4925   2.661  10.073   8.692 -0.6225  0.2613  0.5936
32625SOL    HW2 4926   2.657   9.955   8.597  1.9633  1.5062 -1.1797
32626SOL     OW 4927   7.381   2.811   4.068  0.0964 -0.4580 -0.8304
32626SOL    HW1 4928   7.301   2.810   4.014  1.9815 -1.9644 -3.9154
32626SOL    HW2 4929   7.430   2.887   4.036  0.3808 -0.1632  0.2840
32627SOL     OW 4930  11.794  12.253   6.280  0.3421 -0.6220 -0.0477
32627SOL    HW1 4931  11.809  12.238   6.186 -0.2118 -0.2842 -0.1960
32627SOL    HW2 4932  11.871  12.302   6.309  0.2135 -0.1598 -0.4740
32628SOL     OW 4933   7.898   0.797   8.904 -0.3887  0.2950  0.5653
32628SOL    HW1 4934   7.853   0.774   8.986 -1.0973  1.8510  0.6447
32628SOL    HW2 4935   7.991   0.797   8.928 -0.3755 -1.6134  0.7369
32629SOL     OW 4936   8.497  11.996   7.399  0.4474  0.9125  0.2433
32629SOL    HW1 4937   8.438  12.004   7.474  0.4815 -0.6129  0.4760
32629SOL    HW2 4938   8.565  11.935   7.429  0.2626 -0.0239 -1.1241
32630SOL     OW 4939   1.091   1.661   9.995 -0.4536  0.4802  0.8477
32630SOL    HW1 4940   1.185   1.678   9.989 -0.6050  0.9423 -0.7706
32630SOL    HW2 4941   1.069   1.680  10.086  1.2324 -0.9176  1.6094
32631SOL     OW 4942  11.660   9.940   3.858 -0.2072  0.1719 -0.3547
32631SOL    HW1 4943  11.627  10.024   3.892  0.0866  1.3323 -2.7713
32631SOL    HW2 4944  11.755   9.951   3.857 -0.2093  0.2245 -1.5803
32632SOL     OW 4945   8.582   7.830   3.541 -0.2726 -0.3772  0.5942
32632SOL    HW1 4946   8.603   7.914   3.501 -0.0419 -1.1229 -0.9382
32632SOL    HW2 4947   8.579   7.769   3.467  0.5943 -1.9138  1.7803
32633SOL     OW 4948   4.930   1.374   5.401  0.3932  0.0074  0.5288
32633SOL    HW1 4949   4.910   1.296   5.350 -0.3005 -0.1127  0.9828
32633SOL    HW2 4950   5.018   1.359   5.435 -0.2707 -1.2146  1.7869
32634SOL     OW 4951   1.470  11.323   7.303  0.0129 -0.3295 -0.1233
32634SOL    HW1 4952   1.520  11.292   7.379 -0.1518 -0.1096  0.0780
32634SOL    HW2 4953   1.493  11.263   7.233  0.2741 -0.4541  0.0663
32635SOL     OW 4954   4.606   6.575   6.853  0.0808  0.2713 -0.3913
32635SOL    HW1 4955   4.576   6.517   6.783  1.7280 -1.1946  0.0437
32635SOL    HW2 4956   4.591   6.663   6.820 -0.1162 -0.3926 -2.1670
32636SOL     OW 4957  11.736   7.128   4.135  0.5017  0.0927  0.1717
32636SOL    HW1 4958  11.645   7.127   4.107  0.4656  0.5366  0.2588
32636SOL    HW2 4959  11.786   7.142   4.055  0.3908  1.4985  0.3207
32637SOL     OW 4960   6.290   2.111  10.916 -0.5804 -0.0138 -0.0843
32637SOL    HW1 4961   6.255   2.024  10.898 -3.2767  0.2697  2.8507
32637SOL    HW2 4962   6.369   2.096  10.968  0.4347 -0.6307 -1.7241
32638SOL     OW 4963   4.754   9.293  10.510 -0.6216  0.0388 -0.3003
32638SOL    HW1 4964   4.731   9.209  10.549  1.7929 -0.2598  0.6589
32638SOL    HW2 4965   4.725   9.358  10.573  0.1594 -0.2632  0.3848
32639SOL     OW 4966   5.429   9.189   8.850 -0.0999 -0.0251 -0.2785
32639SOL    HW1 4967   5.449   9.281   8.830 -1.9806 -0.0617 -2.7403
32639SOL    HW2 4968   5.466   9.176   8.938  1.0551  2.7882 -0.2231
32640SOL     OW 4969  10.315   2.028   9.215 -0.2890  0.3664  0.3884
32640SOL    HW1 4970  10.303   1.940   9.251 -2.2582  0.6720  0.6382
32640SOL    HW2 4971  10.408   2.046   9.225  0.1125 -1.5683  0.5948
32641SOL     OW 4972   5.196  11.325   4.712 -0.0274  0.3707  0.1831
32641SOL    HW1 4973   5.205  11.277   4.795 -3.0850 -0.0330  0.3840
32641SOL    HW2 4974   5.171  11.413   4.738  0.5431  0.6848 -0.3107
32642SOL     OW 4975   7.784   3.302  10.832  0.4035 -0.5919 -0.0654
32642SOL    HW1 4976   7.821   3.271  10.750  0.3812  0.2824 -0.4197
32642SOL    HW2 4977   7.690   3.310  10.814  0.3840 -0.4917  0.0808
32643SOL     OW 4978  10.829  10.011   7.175  0.2731 -0.1658 -0.4157
32643SOL    HW1 4979  10.808   9.927   7.134  1.6486 -0.9599  0.4306
32643SOL    HW2 4980  10.748  10.061   7.169 -0.5745 -1.5389 -0.9601
32644SOL     OW 4981   9.129   5.139  12.199 -0.1008 -0.0183  0.1873
32644SOL    HW1 4982   9.109   5.046  12.190  1.9335 -0.6960  1.6725
32644SOL    HW2 4983   9.165   5.146  12.288  0.5756  2.0282 -0.2103
32645SOL     OW 4984   4.863   8.602   9.789  0.4324  0.2649  0.2833
32645SOL    HW1 4985   4.931   8.655   9.830 -0.3065  0.2629  1.5481
32645SOL    HW2 4986   4.800   8.584   9.859  0.6212 -2.2500 -0.1160
32646SOL     OW 4987  10.723   5.308   0.293  0.3146 -0.1736 -0.1305
32646SOL    HW1 4988  10.680   5.273   0.371 -1.8284  1.1993 -0.6243
32646SOL    HW2 4989  10.702   5.401   0.293  0.4016 -0.0943 -2.2427
32647SOL     OW 4990   5.954  11.332   5.502 -0.6506  0.1718 -0.6767
32647SOL    HW1 4991   5.907  11.377   5.431  1.3510 -0.4944 -2.5315
32647SOL    HW2 4992   5.909  11.248   5.510 -0.4011 -0.0798 -1.7566
32648SOL     OW 4993   4.856   7.264   2.554 -0.6360  0.6002 -0.2475
32648SOL    HW1 4994   4.855   7.176   2.516 -2.8458  0.6208 -0.4208
32648SOL    HW2 4995   4.763   7.285   2.566 -0.1139  2.3246  1.1793
32649SOL     OW 4996   3.870   6.735   0.577  0.1148 -0.1525  0.6330
32649SOL    HW1 4997   3.910   6.651   0.555 -0.5234 -0.2885 -0.0189
32649SOL    HW2 4998   3.908   6.798   0.515  1.0243  0.1708  1.4831
32650SOL     OW 4999   7.190   9.442   2.617  0.1484 -0.0679 -0.0565
32650SOL    HW1 5000   7.257   9.420   2.552  1.1751 -1.1559  1.3085
32650SOL    HW2 5001   7.195   9.538   2.624  1.1821 -0.0810 -0.3913
32651SOL     OW 5002  12.567  10.938   4.573  0.3887  0.4736 -0.3788
32651SOL    HW1 5003  12.579  10.889   4.492  1.3143  2.5043 -1.5324
32651SOL    HW2 5004  12.530  11.022   4.545  1.6480  1.5999  1.1714
32652SOL     OW 5005   9.151   2.373   5.679 -0.1052  0.3785  0.3545
32652SOL    HW1 5006   9.246   2.380   5.669  0.3793 -1.6201  2.5802
32652SOL    HW2 5007   9.134   2.279   5.676 -2.3841  0.7675 -2.2269
32653SOL     OW 5008   9.050  12.224  11.157  0.5741  0.2208 -0.0338
32653SOL    HW1 5009   9.116  12.200  11.091  1.0159  0.4626  0.3104
32653SOL    HW2 5010   8.996  12.146  11.167 -0.4828  0.6742 -1.8090
32654SOL     OW 5011   5.911   4.303   5.697 -0.0118  0.3849 -0.0109
32654SOL    HW1 5012   5.841   4.368   5.699  0.6742  1.1384  0.9787
32654SOL    HW2 5013   5.960   4.322   5.617 -1.3345 -0.6291 -1.1135
32655SOL     OW 5014  11.710   0.652   7.505 -0.0798  0.2275 -0.2786
32655SOL    HW1 5015  11.706   0.602   7.587  1.6361 -0.2723 -0.4392
32655SOL    HW2 5016  11.735   0.587   7.440 -1.1250  0.6839 -1.1559
32656SOL     OW 5017  11.956   4.156   6.065 -0.2575  0.3196  0.1564
32656SOL    HW1 5018  12.031   4.216   6.069 -0.5033  0.6127  0.4221
32656SOL    HW2 5019  11.967   4.109   5.983  0.5190 -0.0285  0.4539
32657SOL     OW 5020   2.934   0.040   2.090  0.1669  0.3373  0.1442
32657SOL    HW1 5021   2.982   0.046   2.172  1.4020 -2.0435 -0.3121
32657SOL    HW2 5022   2.873  -0.033   2.103 -2.2676  2.2108  0.1145
32658SOL     OW 5023   5.014   3.674   0.279  0.1657  0.4853  0.1889
32658SOL    HW1 5024   4.992   3.767   0.279 -0.0769  0.4307  0.4761
32658SOL    HW2 5025   4.976   3.640   0.198 -0.8400  0.3876  0.6861
32659SOL     OW 5026   7.840   1.442   6.838 -0.2526 -0.0654  0.0893
32659SOL    HW1 5027   7.825   1.497   6.915 -1.3994  1.8668 -1.4010
32659SOL    HW2 5028   7.752   1.416   6.810 -0.0843  1.2025 -1.8159
32660SOL     OW 5029   4.035   7.862   8.278  0.2779  0.6330  0.5111
32660SOL    HW1 5030   4.094   7.935   8.259 -1.4127  1.9152 -0.0550
32660SOL    HW2 5031   3.976   7.859   8.202 -1.0542  0.1006  1.5359
32661SOL     OW 5032   6.309   2.875   7.666  0.2769 -0.2826 -0.0945
32661SOL    HW1 5033   6.319   2.915   7.580 -0.0838 -1.4227 -0.6837
32661SOL    HW2 5034   6.391   2.894   7.711  0.3949  0.4860 -0.6025
32662SOL     OW 5035   2.233   7.484   5.901 -0.1437  0.0164  0.2769
32662SOL    HW1 5036   2.282   7.481   5.983 -1.6261 -0.8130  1.1925
32662SOL    HW2 5037   2.293   7.451   5.835  0.8673  0.0556  1.1558
32663SOL     OW 5038   9.441  12.020  11.856 -0.5179 -0.1899  0.1638
32663SOL    HW1 5039   9.374  12.074  11.815 -0.2963  0.9648  1.2391
32663SOL    HW2 5040   9.513  12.018  11.792 -0.3832  1.1278  0.2506
32664SOL     OW 5041  10.727   2.628   5.898 -0.8250 -0.1547  0.2141
32664SOL    HW1 5042  10.747   2.698   5.836 -1.1446  1.0046  1.3983
32664SOL    HW2 5043  10.673   2.567   5.848 -0.5171  0.4058 -0.8416
32665SOL     OW 5044   3.846  11.848   5.301 -0.2005 -0.4735 -0.1543
32665SOL    HW1 5045   3.934  11.825   5.330 -0.6553 -0.0173  1.7651
32665SOL    HW2 5046   3.841  11.816   5.211  1.4334 -1.7895  0.1675
32666SOL     OW 5047   7.975   8.754  10.844  0.0587 -0.6679  0.2610
32666SOL    HW1 5048   7.996   8.660  10.840  0.9433 -0.5221  0.9741
32666SOL    HW2 5049   7.917   8.763  10.919 -1.1388 -0.8199 -0.6258
32667SOL     OW 5050  11.476   0.812   1.341 -0.1450  0.3143  0.0374
32667SOL    HW1 5051  11.555   0.761   1.359 -0.1632 -0.4728 -1.9483
32667SOL    HW2 5052  11.468   0.870   1.417  1.1475 -1.0384  1.2744
32668SOL     OW 5053   5.171   1.194  10.380  0.5564  0.2497 -0.4605
32668SOL    HW1 5054   5.194   1.225  10.292  1.2573  0.0320 -0.3618
32668SOL    HW2 5055   5.129   1.109  10.365 -0.1683  0.6314 -0.6411
32669SOL     OW 5056   7.998   4.164   9.050  0.0274 -0.6532 -0.3451
32669SOL    HW1 5057   7.977   4.177   9.143  0.1336 -3.3613  0.1439
32669SOL    HW2 5058   7.921   4.120   9.014  0.1771 -0.0417 -1.4388
32670SOL     OW 5059  10.376   4.434   7.506 -0.3949 -0.6909 -0.5029
32670SOL    HW1 5060  10.436   4.504   7.480  0.1117 -0.7349  0.5229
32670SOL    HW2 5061  10.395   4.362   7.445 -0.1156 -0.3535 -0.8166
32671SOL     OW 5062   5.277  10.780   2.103  0.1792 -0.3077  0.2978
32671SOL    HW1 5063   5.362  10.811   2.072  0.4654 -0.5899  0.7970
32671SOL    HW2 5064   5.281  10.685   2.090  0.0999 -0.3668  0.7181
32672SOL     OW 5065   3.227   7.791  10.306 -0.1115 -0.0556  0.3748
32672SOL    HW1 5066   3.159   7.826  10.364 -1.4510 -1.7147 -0.1222
32672SOL    HW2 5067   3.246   7.704  10.341  1.1648  0.0536 -0.0043
32673SOL     OW 5068   5.873   3.540   6.020  0.3375  0.2105 -0.2406
32673SOL    HW1 5069   5.818   3.554   6.097  1.1640  0.1815  0.3705
32673SOL    HW2 5070   5.942   3.605   6.028  1.0984 -0.5744 -0.3292
32674SOL     OW 5071   6.073   4.536   4.228  0.2963 -0.3135 -0.2916
32674SOL    HW1 5072   6.102   4.482   4.302 -0.2305 -0.0443  0.1146
32674SOL    HW2 5073   5.979   4.520   4.223 -0.4685  2.7481  1.6897
32675SOL     OW 5074  10.677   6.605   2.132  0.2431 -0.3122  0.4462
32675SOL    HW1 5075  10.584   6.614   2.109  0.1651 -1.0231  0.4398
32675SOL    HW2 5076  10.705   6.525   2.087  1.2472  0.6656 -0.7260
32676SOL     OW 5077   2.679   4.515   9.324 -0.0852 -0.3778 -0.1173
32676SOL    HW1 5078   2.670   4.559   9.408 -0.3135  0.7130 -0.6972
32676SOL    HW2 5079   2.684   4.586   9.260  0.2298 -1.1874 -1.0125
32677SOL     OW 5080   6.778   4.546   5.828  0.2800 -0.1866 -0.4111
32677SOL    HW1 5081   6.848   4.546   5.893  0.0951  2.6034 -0.0853
32677SOL    HW2 5082   6.736   4.461   5.838  1.0095 -0.3214  2.2722
32678SOL     OW 5083   1.511   8.670   2.692  0.5632  0.2310  0.6047
32678SOL    HW1 5084   1.537   8.580   2.677  0.8721  0.3624  0.3373
32678SOL    HW2 5085   1.449   8.689   2.622  0.7330  0.3220  0.4785
32679SOL     OW 5086   9.765   3.268   4.317 -0.7394 -0.3400 -0.5553
32679SOL    HW1 5087   9.724   3.311   4.392 -1.2888 -0.1395 -0.9684
32679SOL    HW2 5088   9.741   3.323   4.242  0.3169 -0.1895 -0.8034
32680SOL     OW 5089   0.371   6.534   1.709 -0.2908 -0.0148  0.0319
32680SOL    HW1 5090   0.370   6.622   1.672 -3.4341 -0.1174 -0.4682
32680SOL    HW2 5091   0.390   6.477   1.634 -0.3762  0.1288 -0.0990
32681SOL     OW 5092   5.602   3.815   2.610 -0.1749 -0.1522  0.6961
32681SOL    HW1 5093   5.622   3.731   2.650  1.0021 -0.9191 -1.3777
32681SOL    HW2 5094   5.602   3.798   2.516 -1.8355  1.7741  0.2863
32682SOL     OW 5095  11.749   0.736  11.330  0.1856 -0.1613  0.5073
32682SOL    HW1 5096  11.683   0.682  11.286  0.7465 -0.3706 -0.0817
32682SOL    HW2 5097  11.788   0.678  11.395  1.7126 -0.9240 -1.0035
32683SOL     OW 5098   4.404   8.168   9.187  0.1079  0.5489 -0.3267
32683SOL    HW1 5099   4.321   8.176   9.140  0.0421 -0.8576 -0.4941
32683SOL    HW2 5100   4.470   8.193   9.122 -0.0872  0.1609 -0.6794
32684SOL     OW 5101  11.936   2.203   3.104  0.3468  0.0093 -0.5835
32684SOL    HW1 5102  11.961   2.111   3.095  1.1523 -0.0160  1.4453
32684SOL    HW2 5103  11.912   2.213   3.196  0.6654  1.9252 -0.6656
32685SOL     OW 5104   0.556  10.379   9.439 -0.1435 -0.7113 -0.3358
32685SOL    HW1 5105   0.527  10.448   9.379 -0.4483 -0.2237  0.3595
32685SOL    HW2 5106   0.642  10.408   9.470 -0.4823 -0.3876  0.3295
32686SOL     OW 5107   8.235  10.092   1.581  0.6048  0.1540 -0.0377
32686SOL    HW1 5108   8.251  10.015   1.527  2.4370  1.0065 -0.8186
32686SOL    HW2 5109   8.145  10.117   1.562 -0.5705 -2.6160  1.3958
32687SOL     OW 5110   0.055  12.529  10.394 -0.0020 -0.2786 -0.0248
32687SOL    HW1 5111   0.110  12.530  10.317  1.5764 -0.5283  1.0557
32687SOL    HW2 5112   0.033  12.436  10.407  0.2154 -0.3063  0.1499
32688SOL     OW 5113   7.386  10.511   6.666  0.5744 -0.2121 -0.0114
32688SOL    HW1 5114   7.367  10.577   6.733 -0.6589  0.8976 -1.3808
32688SOL    HW2 5115   7.358  10.428   6.705 -0.3943  0.4457  0.7415
32689SOL     OW 5116  10.945  12.247   8.152  0.0992  0.1288 -0.2617
32689SOL    HW1 5117  10.908  12.215   8.070  0.0861  0.5417 -0.4185
32689SOL    HW2 5118  10.899  12.198   8.220 -2.3364  2.1439 -0.3144
32690SOL     OW 5119  12.127  11.267   8.736  0.0705  0.4532 -0.6241
32690SOL    HW1 5120  12.084  11.287   8.653 -1.3503  1.8578  0.3725
32690SOL    HW2 5121  12.177  11.346   8.757  2.4230 -0.7917 -1.2689
32691SOL     OW 5122   6.495   3.345   3.277 -0.2923 -0.2188  0.6522
32691SOL    HW1 5123   6.543   3.427   3.261  0.7221 -0.9341 -0.1104
32691SOL    HW2 5124   6.403   3.368   3.263  0.1222  0.3804 -1.4473
32692SOL     OW 5125  10.831  10.872   1.192  0.3126 -0.5948 -0.1270
32692SOL    HW1 5126  10.762  10.820   1.233 -0.3012  0.0340 -0.3516
32692SOL    HW2 5127  10.798  10.962   1.193  1.2043 -0.2542 -0.0798
32693SOL     OW 5128  10.528  10.953   0.232 -0.1731 -0.6492  0.3727
32693SOL    HW1 5129  10.567  10.991   0.153 -1.3113  0.5690  0.3617
32693SOL    HW2 5130  10.455  10.901   0.199 -0.5951 -0.2110  0.6213
32694SOL     OW 5131   2.854   4.389   1.449 -0.0095  0.2503 -0.4815
32694SOL    HW1 5132   2.928   4.330   1.438  0.1892  0.7478 -2.1988
32694SOL    HW2 5133   2.866   4.427   1.536  0.7345 -1.0328 -0.0014
32695SOL     OW 5134  10.220  10.343   8.291 -0.6499  0.0188  0.0564
32695SOL    HW1 5135  10.182  10.365   8.376 -0.1818 -2.3377  0.9469
32695SOL    HW2 5136  10.315  10.347   8.305 -0.4948  2.1549 -1.1243
32696SOL     OW 5137   1.880  11.350   1.234 -0.1455 -0.4430 -0.5844
32696SOL    HW1 5138   1.931  11.270   1.221  0.3180 -0.3726  0.6697
32696SOL    HW2 5139   1.932  11.419   1.194 -1.4217 -0.9774 -3.3753
32697SOL     OW 5140   1.417   5.233  12.134  0.1622 -0.2074 -0.2131
32697SOL    HW1 5141   1.365   5.277  12.067 -0.0667  1.5385  1.0448
32697SOL    HW2 5142   1.475   5.175  12.085 -0.8030  0.1342 -1.8306
32698SOL     OW 5143   8.633   9.274   0.204  0.6568  0.3613 -0.3626
32698SOL    HW1 5144   8.606   9.192   0.163  0.8031  0.1572 -0.0483
32698SOL    HW2 5145   8.579   9.341   0.161 -0.1556 -0.0130  0.0734
32699SOL     OW 5146   6.770  11.291   8.454  0.1154  0.5577 -0.2374
32699SOL    HW1 5147   6.816  11.221   8.407 -0.4705 -0.1965  0.2968
32699SOL    HW2 5148   6.820  11.370   8.433  1.1832 -0.1169 -0.3276
32700SOL     OW 5149   2.440  10.498  10.808 -0.2724  0.3440  0.9382
32700SOL    HW1 5150   2.380  10.523  10.878  0.8302 -0.0803  2.0709
32700SOL    HW2 5151   2.387  10.441  10.751 -1.3639  1.2082  1.0512
32701SOL     OW 5152   5.608  11.137  11.571 -0.5183 -0.0025 -0.6867
32701SOL    HW1 5153   5.676  11.073  11.551 -0.8889 -0.4323 -0.5930
32701SOL    HW2 5154   5.529  11.085  11.585 -0.9092  0.4989 -0.9641
32702SOL     OW 5155   4.019   4.024   9.401 -0.1877 -0.1408  0.6405
32702SOL    HW1 5156   4.032   3.968   9.478 -1.5380 -1.1501  0.1737
32702SOL    HW2 5157   4.030   3.964   9.327  0.7666  0.7523  0.0250
32703SOL     OW 5158   0.509  10.469   8.958 -0.3231  0.0709 -0.0908
32703SOL    HW1 5159   0.429  10.424   8.985 -0.4964 -0.5325 -1.5504
32703SOL    HW2 5160   0.560  10.402   8.912  1.4347  0.2028  1.4995
32704SOL     OW 5161   0.278  11.572  10.298 -0.1610 -0.3711  0.2555
32704SOL    HW1 5162   0.284  11.637  10.368 -0.2580 -1.1286  0.9724
32704SOL    HW2 5163   0.192  11.587  10.259 -0.5092 -0.5786  0.9307
32705SOL     OW 5164   3.519  11.884   3.162  0.3491 -0.1760 -0.4543
32705SOL    HW1 5165   3.476  11.914   3.082 -0.9684 -0.1169  0.2416
32705SOL    HW2 5166   3.611  11.907   3.151  0.1408  0.0452 -1.8397
32706SOL     OW 5167   5.736   4.744   4.396 -0.2694 -0.0157 -0.1116
32706SOL    HW1 5168   5.759   4.768   4.486  1.1730  0.9581 -0.6949
32706SOL    HW2 5169   5.707   4.653   4.402  1.2682 -0.4811  1.1416
32707SOL     OW 5170   5.526  10.140   0.374  0.1780  0.4303 -0.3015
32707SOL    HW1 5171   5.455  10.076   0.364 -0.5079  1.4191 -2.1157
32707SOL    HW2 5172   5.605  10.092   0.349 -0.2618  0.1171 -1.1431
32708SOL     OW 5173   1.168  11.525   8.219  0.3000  0.1419 -0.6071
32708SOL    HW1 5174   1.083  11.549   8.256  0.1957  2.1633 -1.9896
32708SOL    HW2 5175   1.199  11.453   8.275 -2.1165 -0.4088  0.1594
32709SOL     OW 5176  10.341   5.195   6.503 -0.4648 -0.0498 -0.2227
32709SOL    HW1 5177  10.348   5.288   6.523  0.6599 -0.4631  1.5065
32709SOL    HW2 5178  10.286   5.191   6.425  1.7153  2.2266 -2.0106
32710SOL     OW 5179   5.314   3.037   2.477  0.3548 -0.0055  0.3175
32710SOL    HW1 5180   5.360   2.972   2.530  1.4902 -0.2244 -0.8856
32710SOL    HW2 5181   5.337   3.015   2.386 -1.0577  0.7111 -0.2454
32711SOL     OW 5182   0.659   5.322   3.884  0.4321  0.6393  0.1260
32711SOL    HW1 5183   0.718   5.392   3.855  0.4729  0.4874 -0.1627
32711SOL    HW2 5184   0.574   5.364   3.892  0.8220  1.1769  1.8337
32712SOL     OW 5185   8.670   0.969   9.513  0.8134 -0.0317 -0.0923
32712SOL    HW1 5186   8.639   1.041   9.458  1.8464  0.3056 -0.2575
32712SOL    HW2 5187   8.605   0.899   9.500 -1.2334  1.4583  1.4840
32713SOL     OW 5188   6.278  10.658   1.885  0.3198  0.6306  0.5966
32713SOL    HW1 5189   6.269  10.594   1.814 -0.7491 -1.1736  2.2549
32713SOL    HW2 5190   6.302  10.605   1.961 -0.2100  2.2795  1.9640
32714SOL     OW 5191  11.398  11.354  10.182  0.1059  0.2505 -0.1977
32714SOL    HW1 5192  11.368  11.291  10.248  0.5775 -1.0366 -1.1670
32714SOL    HW2 5193  11.339  11.429  10.191 -0.7705 -0.5248  0.6675
32715SOL     OW 5194   0.315   8.576   7.416 -0.1438 -0.7680 -0.4406
32715SOL    HW1 5195   0.236   8.630   7.416  0.0158 -0.5297 -0.6794
32715SOL    HW2 5196   0.345   8.577   7.325 -0.2010 -1.3582 -0.4712
32716SOL     OW 5197   8.717   0.169  12.320  0.0955 -0.1813 -0.2671
32716SOL    HW1 5198   8.661   0.246  12.330 -0.0515 -0.0859 -1.5838
32716SOL    HW2 5199   8.680   0.123  12.244 -1.1382 -2.7167  1.7295
32717SOL     OW 5200   2.853   9.624  11.340 -0.1880  0.1177  0.2135
32717SOL    HW1 5201   2.875   9.596  11.429 -1.5959 -0.7617  0.3057
32717SOL    HW2 5202   2.760   9.645  11.343 -0.0818  0.8351 -0.8741
32718SOL     OW 5203  11.245  11.077   3.205 -0.3132  0.3686 -0.1946
32718SOL    HW1 5204  11.161  11.033   3.219  0.3847 -1.6717 -1.9027
32718SOL    HW2 5205  11.309  11.021   3.250  0.2782  1.2592  0.0968
32719SOL     OW 5206   4.825   6.003   1.474  0.1845 -0.1377 -0.4037
32719SOL    HW1 5207   4.795   6.056   1.400  1.6142  2.1166  0.5227
32719SOL    HW2 5208   4.920   6.016   1.476  0.3259 -1.1387  1.0964
32720SOL     OW 5209   0.745   7.664   5.151 -0.4114 -0.7918 -0.2556
32720SOL    HW1 5210   0.677   7.620   5.202  1.5990 -3.1224  0.5785
32720SOL    HW2 5211   0.817   7.678   5.212  0.3487  0.5470 -1.3854
32721SOL     OW 5212   3.073  10.762   2.859 -0.3387 -0.4096  0.1199
32721SOL    HW1 5213   3.095  10.847   2.821 -2.5102  0.1869  0.0627
32721SOL    HW2 5214   3.016  10.721   2.795  0.2177 -1.6790  0.4148
32722SOL     OW 5215   7.726   6.290   6.639 -0.0676  0.6527 -0.1133
32722SOL    HW1 5216   7.776   6.345   6.699 -0.6494  2.1965 -0.9787
32722SOL    HW2 5217   7.787   6.267   6.570  0.1440  0.3322  0.1813
32723SOL     OW 5218   3.964   4.932   7.859  0.1169  0.0665 -0.0307
32723SOL    HW1 5219   3.896   4.992   7.828 -2.0854 -2.2048  0.1651
32723SOL    HW2 5220   4.014   4.983   7.923 -1.0477  1.9624 -0.5659
32724SOL     OW 5221   1.084   3.644   5.060 -0.3266 -0.3065  0.3748
32724SOL    HW1 5222   1.071   3.663   4.967  0.2192  3.2043  0.8706
32724SOL    HW2 5223   1.175   3.615   5.066 -0.0409  0.4543 -0.0987
32725SOL     OW 5224  10.732   0.360   9.591  0.1622  0.1780  0.6060
32725SOL    HW1 5225  10.782   0.412   9.528  0.6464 -0.6848  0.2580
32725SOL    HW2 5226  10.684   0.296   9.537  0.0972 -0.1616  1.0587
32726SOL     OW 5227   4.820  11.360  11.437  0.2060  0.1197  0.0641
32726SOL    HW1 5228   4.843  11.452  11.420 -1.4566  0.6958  0.7793
32726SOL    HW2 5229   4.891  11.310  11.397  0.8442  1.6961 -0.8497
32727SOL     OW 5230   3.456   0.943   2.818  0.4757 -0.7988 -0.3911
32727SOL    HW1 5231   3.420   0.942   2.906 -0.8161  0.0619 -0.8787
32727SOL    HW2 5232   3.535   0.889   2.823  0.4480 -0.7160  1.2867
32728SOL     OW 5233   4.459   9.243   7.043  0.2370  0.4757 -0.0098
32728SOL    HW1 5234   4.383   9.292   7.012  0.4311  0.3644 -0.6697
32728SOL    HW2 5235   4.451   9.245   7.139 -0.6839  0.3258 -0.0760
32729SOL     OW 5236   5.589   5.677   3.304 -0.0547  0.4531 -0.0737
32729SOL    HW1 5237   5.587   5.700   3.211 -2.6421 -0.5121 -0.3560
32729SOL    HW2 5238   5.509   5.625   3.317  0.0743  0.8113  2.7558
32730SOL     OW 5239   1.437   4.041  11.781 -0.2353  0.1983  0.0878
32730SOL    HW1 5240   1.526   4.073  11.766  0.1216 -0.2641  1.1230
32730SOL    HW2 5241   1.418   3.985  11.706  0.2885  0.4073 -0.2071
32731SOL     OW 5242  10.779   2.196  11.963  0.8454  0.3220 -0.0086
32731SOL    HW1 5243  10.820   2.123  11.916  0.2554 -0.5926  0.8278
32731SOL    HW2 5244  10.806   2.183  12.054  2.4373  2.3828 -0.1175
32732SOL     OW 5245   8.363   3.546   2.748 -0.4176 -0.1273 -0.3918
32732SOL    HW1 5246   8.424   3.480   2.782 -1.4839  0.1785  2.3154
32732SOL    HW2 5247   8.420   3.618   2.720  0.5735  0.0296  1.7887
32733SOL     OW 5248  10.457   7.977   2.846 -0.2558  0.8815  0.5596
32733SOL    HW1 5249  10.494   7.892   2.821 -2.1937 -0.9134  3.2528
32733SOL    HW2 5250  10.526   8.040   2.824  2.0744 -1.5716  0.2288
32734SOL     OW 5251   4.152   5.236   5.790 -0.1151  0.0524 -0.1738
32734SOL    HW1 5252   4.218   5.169   5.807 -1.0747 -0.8405  0.0699
32734SOL    HW2 5253   4.074   5.207   5.836 -1.4313 -0.1606 -2.3579
32735SOL     OW 5254  11.557   2.075  10.061 -0.2043 -0.7903 -0.0888
32735SOL    HW1 5255  11.553   2.044  10.151  0.3252 -0.1574  0.1613
32735SOL    HW2 5256  11.648   2.063  10.035 -0.3668 -1.0307 -0.5646
32736SOL     OW 5257   6.767   8.618   3.072  0.1446  0.0007  0.0299
32736SOL    HW1 5258   6.691   8.561   3.077 -0.3536  0.6431 -0.1617
32736SOL    HW2 5259   6.732   8.704   3.050  1.0699 -0.1115 -2.2209
32737SOL     OW 5260  11.400   2.916  11.710 -0.0220  0.0309 -0.2507
32737SOL    HW1 5261  11.426   2.898  11.800  0.2769  1.4848 -0.0208
32737SOL    HW2 5262  11.467   2.975  11.677 -1.1748  1.1070 -0.7559
32738SOL     OW 5263   7.875  11.365   7.908 -0.2184 -0.2985 -0.2907
32738SOL    HW1 5264   7.916  11.295   7.959 -0.2714  0.7286  1.2554
32738SOL    HW2 5265   7.947  11.423   7.885 -0.4889  0.4536  0.6769
32739SOL     OW 5266  12.507   6.918   7.763  0.1645  0.0399 -0.4863
32739SOL    HW1 5267  12.425   6.963   7.782  1.2680  1.1185  2.1818
32739SOL    HW2 5268  12.498   6.833   7.806 -0.3534 -0.7391 -2.0722
32740SOL     OW 5269   9.319   6.525   6.627  0.1578 -0.5301  0.3971
32740SOL    HW1 5270   9.412   6.549   6.626  0.1085 -0.3490  0.2012
32740SOL    HW2 5271   9.316   6.441   6.582 -0.0586  0.4716 -1.5672
32741SOL     OW 5272   9.800   8.060   2.584  0.1046  0.1865  0.2577
32741SOL    HW1 5273   9.843   7.976   2.568 -2.2617 -0.8359 -1.4274
32741SOL    HW2 5274   9.843   8.122   2.525  1.2263 -0.0466  0.8147
32742SOL     OW 5275  10.528   0.020   4.196 -0.0325  0.2242  0.0288
32742SOL    HW1 5276  10.455  -0.031   4.229 -0.1606  0.8858  0.8111
32742SOL    HW2 5277  10.583   0.035   4.273  1.6629 -1.4269 -0.8012
32743SOL     OW 5278   0.144   8.614   3.675  0.3736 -0.1376  0.0676
32743SOL    HW1 5279   0.199   8.539   3.654  0.3266 -0.0075 -0.5429
32743SOL    HW2 5280   0.056   8.577   3.685  0.5691 -0.3536  1.0919
32744SOL     OW 5281  12.106   3.781   7.922 -0.0900  0.4298  0.4605
32744SOL    HW1 5282  12.105   3.688   7.900 -2.0684  0.8917 -1.7917
32744SOL    HW2 5283  12.189   3.814   7.887  0.0814 -0.2633  0.2064
32745SOL     OW 5284   1.272   7.985   0.970  0.3689  0.0336  0.1446
32745SOL    HW1 5285   1.249   7.892   0.964 -0.2214  0.1249  0.8394
32745SOL    HW2 5286   1.191   8.031   0.946 -0.1859  0.3588  2.4191
32746SOL     OW 5287   0.482  10.440  11.099  0.3579  0.1378  0.3429
32746SOL    HW1 5288   0.455  10.392  11.177 -0.2392 -0.0458  0.0271
32746SOL    HW2 5289   0.413  10.423  11.035 -0.0752  1.7085  0.3384
32747SOL     OW 5290  11.984   1.522   5.090 -0.6844  0.2721  0.4386
32747SOL    HW1 5291  12.015   1.528   5.180 -0.5107 -0.1132  0.4056
32747SOL    HW2 5292  12.057   1.483   5.041 -0.1820  1.9322 -0.1821
32748SOL     OW 5293  11.491   2.808  12.228  0.0559  0.2916  0.4597
32748SOL    HW1 5294  11.491   2.713  12.213  0.4797  0.3179  0.2825
32748SOL    HW2 5295  11.509   2.818  12.321  1.9580  0.2327  0.1470
32749SOL     OW 5296   3.767   9.105  12.280 -0.8339 -0.1866 -0.2471
32749SOL    HW1 5297   3.778   9.023  12.329  1.1845  0.9120  1.2880
32749SOL    HW2 5298   3.697   9.086  12.217  0.1668 -3.3843 -0.5941
32750SOL     OW 5299  11.241   3.750   0.217  0.9740 -0.4045  0.1000
32750SOL    HW1 5300  11.175   3.696   0.261 -0.2343  1.3437  0.5548
32750SOL    HW2 5301  11.321   3.739   0.268  0.4859 -1.0000  0.7463
32751SOL     OW 5302  11.323   5.474   1.688  0.0912  0.1482  0.3573
32751SOL    HW1 5303  11.288   5.408   1.748 -1.0226  0.4660  0.0745
32751SOL    HW2 5304  11.303   5.557   1.730  0.4368  0.3389  0.1431
32752SOL     OW 5305   6.324   6.986  12.133  0.6307 -0.1539 -0.4114
32752SOL    HW1 5306   6.323   6.901  12.176  0.2203 -1.1312 -2.2461
32752SOL    HW2 5307   6.253   6.981  12.068 -0.0362  1.9413  0.0803
32753SOL     OW 5308  10.037   0.134   5.655 -0.0943 -0.0831  0.0735
32753SOL    HW1 5309  10.011   0.205   5.714 -0.9631  2.7119 -3.3491
32753SOL    HW2 5310   9.954   0.099   5.621  0.3895 -0.9604 -0.2357
32754SOL     OW 5311   5.459   1.453   5.378 -0.5845 -0.4739 -0.3600
32754SOL    HW1 5312   5.520   1.509   5.330 -0.2710 -0.7294 -0.2614
32754SOL    HW2 5313   5.408   1.410   5.309  0.5480 -1.6234 -0.5244
32755SOL     OW 5314  12.312   8.742  10.244 -0.8868  0.1076  0.2413
32755SOL    HW1 5315  12.390   8.794  10.227 -2.0852  1.7818 -0.4375
32755SOL    HW2 5316  12.330   8.696  10.326  1.0087 -0.0161 -0.2163
32756SOL     OW 5317   9.545   5.484  11.274 -0.2033  0.1890  0.2315
32756SOL    HW1 5318   9.630   5.441  11.284 -0.1790  0.0210 -0.6350
32756SOL    HW2 5319   9.550   5.528  11.189  0.5033  3.5827  1.8441
32757SOL     OW 5320   8.704  11.005   7.562 -1.0837  0.2162  0.7581
32757SOL    HW1 5321   8.786  10.957   7.576 -1.0607  0.1903  0.5244
32757SOL    HW2 5322   8.655  10.992   7.644  0.4209  2.8227  2.2204
32758SOL     OW 5323   4.764  10.183   0.403  0.5082 -0.3379  0.4771
32758SOL    HW1 5324   4.780  10.092   0.429 -1.1613 -1.1995 -1.1998
32758SOL    HW2 5325   4.721  10.222   0.479 -1.0383 -1.7308  0.3844
32759SOL     OW 5326   8.837   8.291   5.740 -0.2939  0.1898 -0.3902
32759SOL    HW1 5327   8.854   8.372   5.790 -1.3186  0.1214  0.1145
32759SOL    HW2 5328   8.807   8.229   5.806 -1.4228  0.0143 -1.0386
32760SOL     OW 5329   9.471   0.200   0.989  0.0790 -0.2659  0.3887
32760SOL    HW1 5330   9.514   0.162   0.912 -1.5065 -2.2715  0.4136
32760SOL    HW2 5331   9.454   0.126   1.046 -0.2116  0.9753  1.9886
32761SOL     OW 5332   4.511  11.546   3.052  0.1556  0.4684  0.6656
32761SOL    HW1 5333   4.490  11.597   2.974 -0.8868  1.3116  1.4653
32761SOL    HW2 5334   4.537  11.460   3.019  0.7161  1.1333 -0.6439
32762SOL     OW 5335  12.584  11.727  10.525 -0.4853  0.2577 -0.4630
32762SOL    HW1 5336  12.562  11.804  10.578  0.0318 -0.9405  1.6165
32762SOL    HW2 5337  12.680  11.729  10.519 -0.4220 -0.5569  0.1619
32763SOL     OW 5338  11.637   2.503   3.705 -0.6521 -0.2937 -0.3724
32763SOL    HW1 5339  11.703   2.572   3.712  0.8278 -1.4211 -2.2381
32763SOL    HW2 5340  11.568   2.530   3.765  0.2626  2.3439 -0.3680
32764SOL     OW 5341  11.943   3.438   0.541  0.5670  0.7740 -0.1529
32764SOL    HW1 5342  12.022   3.467   0.496  1.4032  0.0618  0.8132
32764SOL    HW2 5343  11.971   3.363   0.595 -0.9391 -0.0515 -0.4481
32765SOL     OW 5344   2.284   1.795   4.591  0.1679  0.2220  0.3341
32765SOL    HW1 5345   2.191   1.791   4.609 -0.0355 -0.5538 -0.8138
32765SOL    HW2 5346   2.326   1.773   4.674 -0.6466  0.9187  0.9478
32766SOL     OW 5347  10.753   9.113   3.628  0.6793 -0.2715 -0.0498
32766SOL    HW1 5348  10.847   9.131   3.643  1.0601 -3.1614  1.8613
32766SOL    HW2 5349  10.709   9.189   3.666  2.1774  1.4917 -1.5954
32767SOL     OW 5350   6.269   3.335   6.521  0.1072  0.2940 -0.3508
32767SOL    HW1 5351   6.206   3.312   6.452  0.1746  2.5187 -1.2545
32767SOL    HW2 5352   6.354   3.332   6.477 -0.0252  3.8801 -1.1276
32768SOL     OW 5353  10.252   1.273   5.702 -0.5980  0.4106 -0.3679
32768SOL    HW1 5354  10.253   1.213   5.777  0.7072  3.1573  2.0030
32768SOL    HW2 5355  10.334   1.255   5.656 -1.3681 -1.2385 -1.1939
32769SOL     OW 5356   9.598  10.786   3.854  0.1826 -0.0656 -0.3434
32769SOL    HW1 5357   9.514  10.810   3.894  0.6244  1.5296 -0.3199
32769SOL    HW2 5358   9.646  10.868   3.846  1.3930 -0.8126 -1.2120
32770SOL     OW 5359  11.774   2.258   7.690 -0.1566  0.0384  0.8671
32770SOL    HW1 5360  11.866   2.281   7.701  0.5480 -1.5306 -1.0887
32770SOL    HW2 5361  11.764   2.174   7.735  0.4646 -1.7983 -2.1555
32771SOL     OW 5362   5.424   7.206   5.749  0.5755 -0.4579  0.4811
32771SOL    HW1 5363   5.329   7.212   5.758  0.3344 -1.4090 -1.0418
32771SOL    HW2 5364   5.448   7.284   5.698  0.2404 -1.4399 -1.2660
32772SOL     OW 5365   7.607   3.991   8.091  0.0201  0.4374  0.0824
32772SOL    HW1 5366   7.610   4.043   8.010  0.1391  0.6178  0.2036
32772SOL    HW2 5367   7.648   3.907   8.066  3.1791  1.6196  0.7741
32773SOL     OW 5368   1.400  10.148  10.106  0.1035  0.5041  0.3740
32773SOL    HW1 5369   1.342  10.195  10.046  0.0843  1.2484  0.9569
32773SOL    HW2 5370   1.488  10.163  10.071 -0.0313 -0.6066 -0.4962
32774SOL     OW 5371  10.599   2.753   4.923  0.1260 -0.0702  0.0298
32774SOL    HW1 5372  10.527   2.792   4.972  0.0910 -2.1130  1.7268
32774SOL    HW2 5373  10.565   2.744   4.834 -0.9775  0.8031  0.3424
32775SOL     OW 5374   3.183   6.192   2.583 -0.0980  0.0412 -0.0087
32775SOL    HW1 5375   3.090   6.170   2.582 -0.2214  0.5001  0.7235
32775SOL    HW2 5376   3.224   6.128   2.524 -1.1061  0.9510 -1.7722
32776SOL     OW 5377   9.732   6.055  10.759 -0.5623  0.5894  1.0270
32776SOL    HW1 5378   9.771   6.132  10.718 -0.6219 -0.1902 -0.5900
32776SOL    HW2 5379   9.659   6.032  10.702 -0.8768 -0.3417  1.7807
32777SOL     OW 5380   2.086   7.583   4.418 -1.0708  0.0480 -0.0091
32777SOL    HW1 5381   2.030   7.614   4.347 -0.1890 -2.0482 -1.7216
32777SOL    HW2 5382   2.061   7.492   4.431 -1.2523  0.3732  2.5043
32778SOL     OW 5383   7.973   8.234  11.357  0.3135  0.1816 -1.0395
32778SOL    HW1 5384   7.897   8.183  11.329 -0.1912  0.7763 -0.7631
32778SOL    HW2 5385   7.937   8.304  11.411  1.2827 -1.8201  2.5616
32779SOL     OW 5386   4.600   6.047   2.521 -0.3914  0.5478 -0.1494
32779SOL    HW1 5387   4.552   5.992   2.459  0.0342 -0.0914  0.0788
32779SOL    HW2 5388   4.532   6.092   2.571 -0.7434  0.9520 -0.9640
32780SOL     OW 5389  11.032   7.622   1.584 -0.2958 -0.4175  0.5917
32780SOL    HW1 5390  11.037   7.717   1.596 -0.9375 -0.1791 -0.7938
32780SOL    HW2 5391  11.102   7.602   1.522 -0.6686 -0.7120  0.2604
32781SOL     OW 5392  11.942   9.297  12.392 -0.4151  0.5526  0.0864
32781SOL    HW1 5393  11.856   9.286  12.433 -0.0367  1.0121  1.0377
32781SOL    HW2 5394  12.004   9.264  12.457  0.1222  0.1009 -0.6448
32782SOL     OW 5395   3.273   3.843  12.525  0.6261  0.6125  0.1947
32782SOL    HW1 5396   3.184   3.879  12.518  0.5264  0.4580  0.6163
32782SOL    HW2 5397   3.263   3.768  12.584  0.9212  0.2022 -0.2713
32783SOL     OW 5398   4.784   0.199  11.778  0.5916 -0.5101 -0.0049
32783SOL    HW1 5399   4.763   0.167  11.690  1.2302 -0.2400 -0.2581
32783SOL    HW2 5400   4.723   0.272  11.792  0.9372 -0.1256 -0.4880
32784SOL     OW 5401   2.972   0.679   9.561  0.5782 -0.4908  0.2828
32784SOL    HW1 5402   3.042   0.693   9.625  0.2283 -0.0189  0.5710
32784SOL    HW2 5403   2.913   0.753   9.574 -0.5193 -1.4242  0.7607
32785SOL     OW 5404   2.013   0.547   8.467  0.0718 -0.0364 -0.6538
32785SOL    HW1 5405   1.980   0.579   8.551 -1.5060  0.2073 -1.3200
32785SOL    HW2 5406   2.083   0.486   8.490  1.2482  1.7462  0.7421
32786SOL     OW 5407  10.799   1.686   4.553  0.1795  0.3144 -0.1649
32786SOL    HW1 5408  10.792   1.780   4.571  0.6764 -0.0308  2.0611
32786SOL    HW2 5409  10.722   1.667   4.499 -1.0942  1.6468  1.0696
32787SOL     OW 5410  10.116  10.487   8.528 -0.1161  0.1196 -0.5789
32787SOL    HW1 5411  10.023  10.468   8.520 -0.0455 -0.1295 -0.8156
32787SOL    HW2 5412  10.119  10.576   8.564 -0.4377 -0.2256  0.3143
32788SOL     OW 5413   7.158   5.644   1.464 -0.0690 -0.3836  0.1714
32788SOL    HW1 5414   7.231   5.582   1.459  0.0167 -0.4169  1.5086
32788SOL    HW2 5415   7.164   5.681   1.552 -0.7582  0.7470 -0.2325
32789SOL     OW 5416   6.005   9.375   9.702 -0.6108  0.1244 -0.2635
32789SOL    HW1 5417   5.940   9.304   9.696 -1.2879  0.7325 -0.3289
32789SOL    HW2 5418   6.085   9.332   9.731 -0.8186 -0.7842 -0.9813
32790SOL     OW 5419   1.105   2.242   6.201  0.2684  0.7403  0.6708
32790SOL    HW1 5420   1.107   2.208   6.290 -1.9082 -0.4224  0.3500
32790SOL    HW2 5421   1.065   2.171   6.149  2.3577  0.9944 -1.4357
32791SOL     OW 5422  11.338   8.746  11.701 -0.0073 -0.3742  0.1516
32791SOL    HW1 5423  11.428   8.727  11.675  0.2814 -1.8454  1.9803
32791SOL    HW2 5424  11.333   8.841  11.702  1.5584 -0.2636  0.0632
32792SOL     OW 5425   5.942   3.552   6.434 -0.0229  0.0704  0.1094
32792SOL    HW1 5426   5.982   3.568   6.519  1.4950  1.3153 -0.7773
32792SOL    HW2 5427   5.995   3.482   6.395  1.1190  1.4407 -0.9066
32793SOL     OW 5428  11.003   6.662   4.777  0.2252 -0.0048  0.2823
32793SOL    HW1 5429  10.983   6.730   4.713 -0.5717  0.4930  1.0413
32793SOL    HW2 5430  10.995   6.580   4.728 -1.3621  0.3034 -0.0332
32794SOL     OW 5431   0.049   4.750   5.698  0.1408 -0.3436  0.3293
32794SOL    HW1 5432   0.106   4.675   5.718  0.5986 -0.1153 -0.1038
32794SOL    HW2 5433  -0.027   4.711   5.655  0.4221 -0.5554  0.0187
32795SOL     OW 5434  12.538  10.551   7.105 -0.5501 -0.2887 -0.1171
32795SOL    HW1 5435  12.545  10.578   7.196 -0.7578 -0.6123 -0.0028
32795SOL    HW2 5436  12.478  10.477   7.106  0.4899 -1.1652 -0.3409
32796SOL     OW 5437   1.968   5.297   1.268 -0.0196  0.1968  0.1769
32796SOL    HW1 5438   1.904   5.363   1.294  1.0666  1.0148  0.8634
32796SOL    HW2 5439   2.044   5.314   1.324  1.3344  0.1640 -1.5730
32797SOL     OW 5440   8.818   0.197   5.708  0.3851  0.2144  0.1912
32797SOL    HW1 5441   8.725   0.219   5.716  0.3921 -0.2404  1.7676
32797SOL    HW2 5442   8.819   0.116   5.658 -0.0935  0.0556  0.4342
32798SOL     OW 5443  12.028  11.141   3.308  0.1351 -0.4523 -0.1721
32798SOL    HW1 5444  12.021  11.150   3.213  1.5001  2.7402 -0.1167
32798SOL    HW2 5445  12.093  11.072   3.321 -0.7058 -1.5268 -1.5126
32799SOL     OW 5446  11.388   0.878   4.114  0.2237  0.1069  0.2844
32799SOL    HW1 5447  11.434   0.794   4.118  0.2148  0.0128 -1.0510
32799SOL    HW2 5448  11.295   0.854   4.113  0.2289  0.0758 -0.7061
32800SOL     OW 5449   6.898   6.310   0.780  0.1797 -0.0624 -0.5588
32800SOL    HW1 5450   6.811   6.303   0.741 -0.4445 -0.9796  0.9455
32800SOL    HW2 5451   6.891   6.267   0.865  2.3317 -0.9888 -0.7605
32801SOL     OW 5452   1.616   2.771  10.184  0.2923  0.6403 -0.3151
32801SOL    HW1 5453   1.638   2.705  10.249 -0.5040 -0.4146 -1.0712
32801SOL    HW2 5454   1.642   2.731  10.100 -2.7061  0.0225 -1.0905
32802SOL     OW 5455   6.260   1.174  11.302  0.4810 -0.2070  0.0444
32802SOL    HW1 5456   6.312   1.094  11.296  2.7207  1.2282 -1.8209
32802SOL    HW2 5457   6.276   1.219  11.219 -1.9087  1.4874  0.4090
32803SOL     OW 5458   8.586   1.427   8.645 -0.3458  0.3178 -0.2618
32803SOL    HW1 5459   8.565   1.473   8.564 -0.4630 -0.6273 -0.7895
32803SOL    HW2 5460   8.547   1.480   8.714 -0.4152  1.0355 -0.8423
32804SOL     OW 5461   5.296  10.931   5.667  0.5517 -0.6507  0.3519
32804SOL    HW1 5462   5.292  11.024   5.645  1.9027 -0.9666 -1.4531
32804SOL    HW2 5463   5.322  10.929   5.759  0.1172  0.7608  0.5198
32805SOL     OW 5464   3.771  11.907   9.077  0.0759  0.2394 -0.2785
32805SOL    HW1 5465   3.830  11.889   9.004 -0.9306 -0.1708 -1.0209
32805SOL    HW2 5466   3.696  11.849   9.062 -1.2043  1.8149 -0.2088
32806SOL     OW 5467   6.595   1.657   9.150  0.0047 -0.0917 -0.0483
32806SOL    HW1 5468   6.680   1.655   9.106  0.1619 -2.1457  0.2673
32806SOL    HW2 5469   6.611   1.620   9.236 -1.2747 -0.8470 -0.1108
32807SOL     OW 5470   5.080   4.190  11.493 -0.3922 -0.1197  0.1125
32807SOL    HW1 5471   5.107   4.185  11.584  1.5946 -0.9268 -0.4797
32807SOL    HW2 5472   5.031   4.109  11.477 -0.9861  0.1512  0.5052
32808SOL     OW 5473  12.374  10.671  10.915 -0.2061 -0.2600 -0.3383
32808SOL    HW1 5474  12.306  10.709  10.970  0.3381 -0.4059  0.4561
32808SOL    HW2 5475  12.401  10.742  10.857  0.5432  0.4886  0.8833
32809SOL     OW 5476   2.667   5.525  10.738  0.2245 -0.5011  0.5540
32809SOL    HW1 5477   2.633   5.613  10.756  1.0602  0.3322 -1.5642
32809SOL    HW2 5478   2.596   5.481  10.691  0.6463 -0.0877 -0.5045
32810SOL     OW 5479   9.016   1.378   3.382 -0.6355  0.7039 -0.5940
32810SOL    HW1 5480   8.980   1.310   3.325 -0.4396  0.3384 -0.2907
32810SOL    HW2 5481   8.943   1.438   3.398 -0.9825  0.2257 -0.3669
32811SOL     OW 5482   8.062   7.887   2.301  0.2083  0.3829  0.3327
32811SOL    HW1 5483   8.084   7.843   2.383  0.8526  1.2091  0.6147
32811SOL    HW2 5484   7.987   7.838   2.267  1.7171 -1.8257 -0.0594
32812SOL     OW 5485   9.171   7.764   8.283 -0.5092  0.5415 -0.3012
32812SOL    HW1 5486   9.157   7.804   8.369 -1.3077  1.7432 -0.9486
32812SOL    HW2 5487   9.227   7.826   8.236 -0.0427 -0.1226 -0.6414
32813SOL     OW 5488   0.416   4.748   1.915  0.1144 -0.1739 -0.2085
32813SOL    HW1 5489   0.353   4.770   1.984 -1.1354 -2.6497 -0.4530
32813SOL    HW2 5490   0.366   4.761   1.834  0.1423 -1.3663 -0.4357
32814SOL     OW 5491   0.441   8.308   1.763 -0.5522 -0.0870  0.1062
32814SOL    HW1 5492   0.448   8.401   1.743 -0.7498 -0.0704  0.1090
32814SOL    HW2 5493   0.353   8.283   1.732 -0.4143 -0.3233 -0.1020
32815SOL     OW 5494   9.603   0.453   7.138  0.6609  0.0673  0.2707
32815SOL    HW1 5495   9.563   0.540   7.134 -3.9981 -1.7491  1.1143
32815SOL    HW2 5496   9.610   0.427   7.046  1.3596  0.9628  0.0477
32816SOL     OW 5497   8.918   8.946   1.006  0.6376 -0.4926  0.3217
32816SOL    HW1 5498   8.868   8.974   0.930 -2.8505  1.1807  2.9417
32816SOL    HW2 5499   8.885   8.859   1.027 -0.8090  0.3235  1.6411
32817SOL     OW 5500   7.350   0.206   3.218 -0.1859 -0.0304  0.5498
32817SOL    HW1 5501   7.280   0.150   3.249  0.0174  0.0261  1.1212
32817SOL    HW2 5502   7.421   0.195   3.281 -0.1616  0.9065  0.7084
32818SOL     OW 5503   9.529   0.226   9.651  0.0533 -0.1508  0.4827
32818SOL    HW1 5504   9.570   0.182   9.726 -0.8205  0.4045  1.3047
32818SOL    HW2 5505   9.446   0.258   9.684  0.8500  2.5631  0.0514
32819SOL     OW 5506   7.690   3.661  12.378 -0.1060  0.1989  0.1491
32819SOL    HW1 5507   7.775   3.626  12.402 -0.1003  0.2589  0.2193
32819SOL    HW2 5508   7.641   3.663  12.460 -0.7599 -1.4297 -0.1670
32820SOL     OW 5509  11.259   3.909   9.941 -0.0407 -0.1551 -0.7181
32820SOL    HW1 5510  11.351   3.929   9.958  0.2594 -2.2819  0.4830
32820SOL    HW2 5511  11.212   3.987   9.969  1.2331  0.0345  1.0680
32821SOL     OW 5512   5.758   6.043  12.501  0.1096  0.8036 -0.3045
32821SOL    HW1 5513   5.769   5.984  12.426  0.0117  0.4452 -0.0434
32821SOL    HW2 5514   5.845   6.049  12.541 -0.2182 -0.6165  0.7227
32822SOL     OW 5515   9.802   5.304   5.000 -0.5465 -0.2864  0.1678
32822SOL    HW1 5516   9.886   5.262   5.019 -0.9100 -1.8818 -1.5010
32822SOL    HW2 5517   9.783   5.280   4.909 -2.8377 -0.0146  0.5129
32823SOL     OW 5518   0.605   1.894   8.567  0.3213  0.0877  0.0977
32823SOL    HW1 5519   0.584   1.975   8.614 -0.4463  1.3666 -2.2692
32823SOL    HW2 5520   0.697   1.904   8.543  0.5503 -0.3063  0.7659
32824SOL     OW 5521  10.210   2.073   9.862 -0.0279  0.3760  0.0093
32824SOL    HW1 5522  10.126   2.092   9.820 -0.7134  0.1512  1.2301
32824SOL    HW2 5523  10.234   2.155   9.906  1.3627  1.0466 -1.8521
32825SOL     OW 5524   3.209  10.508  12.490  0.6336 -0.1655 -0.0182
32825SOL    HW1 5525   3.152  10.542  12.421  1.3605  0.9371 -0.0976
32825SOL    HW2 5526   3.276  10.575  12.501  0.6794 -0.4388  1.5915
32826SOL     OW 5527   1.095   6.527   7.246  0.3581  0.0780 -0.4040
32826SOL    HW1 5528   1.013   6.515   7.293  0.0982  0.5408 -0.7302
32826SOL    HW2 5529   1.069   6.551   7.157  0.8263  1.5572 -0.1716
32827SOL     OW 5530   3.242   1.401   9.026 -0.1483 -0.3347  0.1585
32827SOL    HW1 5531   3.148   1.415   9.035 -0.1539 -0.6021  0.5597
32827SOL    HW2 5532   3.263   1.434   8.939 -0.9863 -2.2427 -0.8284
32828SOL     OW 5533   9.842   6.459   6.995  0.0039  0.6768 -0.2827
32828SOL    HW1 5534   9.766   6.429   6.944 -0.1263 -1.4574  1.0442
32828SOL    HW2 5535   9.811   6.462   7.085  1.3985  0.0966  0.2436
32829SOL     OW 5536  10.060  10.944   5.122  0.1057  0.3680  0.7095
32829SOL    HW1 5537  10.053  11.036   5.145  1.1590  0.4461  0.7557
32829SOL    HW2 5538   9.971  10.910   5.131 -0.9738  2.0341 -2.2882
32830SOL     OW 5539   9.627   5.866  10.063  0.4197 -0.0037 -0.6484
32830SOL    HW1 5540   9.654   5.803   9.997  1.4866  2.9660 -3.2752
32830SOL    HW2 5541   9.599   5.943  10.014  0.5508  2.1595  2.3478
32831SOL     OW 5542   1.256   7.903   8.837 -0.0587 -0.3558  0.1898
32831SOL    HW1 5543   1.230   7.876   8.925  2.7296  0.8602  1.5118
32831SOL    HW2 5544   1.306   7.828   8.802 -0.3536 -0.4757  0.0222
32832SOL     OW 5545  12.286   3.554  12.402 -0.0470  0.0489 -0.4890
32832SOL    HW1 5546  12.375   3.522  12.385 -0.1657  0.2093 -1.4602
32832SOL    HW2 5547  12.233   3.513  12.334 -0.6847  0.1276 -0.0464
32833SOL     OW 5548   7.481   7.566  11.584  0.1580  0.4879 -0.0026
32833SOL    HW1 5549   7.518   7.624  11.518  1.3149 -0.8596 -0.5968
32833SOL    HW2 5550   7.549   7.559  11.651 -0.5767  0.9932  0.8151
32834SOL     OW 5551   3.307   9.922   3.776 -0.2792 -0.0994  0.0730
32834SOL    HW1 5552   3.255   9.995   3.811  1.5063  1.1251  0.2594
32834SOL    HW2 5553   3.383   9.916   3.834  1.6322  0.5075 -2.2293
32835SOL     OW 5554   4.062  11.229   2.461  0.4627 -0.8535  0.4641
32835SOL    HW1 5555   4.062  11.274   2.376  0.4869 -1.0030  0.3860
32835SOL    HW2 5556   3.976  11.247   2.498  0.9346  0.3756  1.0147
32836SOL     OW 5557   7.914   7.993   9.134  0.3309 -0.5042 -0.2225
32836SOL    HW1 5558   7.926   8.077   9.177  0.1309 -0.1884 -0.7692
32836SOL    HW2 5559   7.988   7.939   9.163 -0.7175 -0.8937  1.8839
32837SOL     OW 5560   8.734   1.407   4.204 -0.1522  0.0865  0.0701
32837SOL    HW1 5561   8.729   1.502   4.198 -1.2232 -0.0189 -1.1623
32837SOL    HW2 5562   8.698   1.386   4.290  0.4231  0.8037  0.4942
32838SOL     OW 5563   8.674   3.893   7.643 -0.3312  0.4172  0.5873
32838SOL    HW1 5564   8.705   3.806   7.617 -0.8427  0.5080 -0.3759
32838SOL    HW2 5565   8.746   3.952   7.620 -0.4050  0.3758  0.2432
32839SOL     OW 5566   7.847   7.838   9.898 -0.5959 -0.4731 -0.5223
32839SOL    HW1 5567   7.783   7.845   9.969 -0.3816 -0.8727 -0.2840
32839SOL    HW2 5568   7.931   7.826   9.943 -0.2177  0.9051 -0.8101
32840SOL     OW 5569  10.743   1.964   6.418 -0.0657 -0.2357 -0.0837
32840SOL    HW1 5570  10.810   1.934   6.479  0.8679 -0.1126 -1.0161
32840SOL    HW2 5571  10.679   1.893   6.416 -0.1978 -0.1743  1.1358
32841SOL     OW 5572  11.072   4.783   9.978  0.3514  0.3725 -0.0202
32841SOL    HW1 5573  11.001   4.797   9.916 -1.1549 -1.1314  1.2705
32841SOL    HW2 5574  11.093   4.870  10.011 -0.7807  0.8745 -0.5751
32842SOL     OW 5575   1.608   5.487   5.874 -0.2114 -0.0226  0.6392
32842SOL    HW1 5576   1.666   5.497   5.798 -1.2904  2.8366  0.0960
32842SOL    HW2 5577   1.551   5.414   5.850  0.5078 -0.2278 -0.5721
32843SOL     OW 5578   8.231  11.531   2.819  0.3501 -0.1012 -0.3155
32843SOL    HW1 5579   8.255  11.613   2.862  0.3275 -0.1986 -0.1204
32843SOL    HW2 5580   8.233  11.553   2.725  2.5159 -0.4294 -0.4144
32844SOL     OW 5581   8.520   7.375   8.114 -0.1415 -0.9914 -0.1921
32844SOL    HW1 5582   8.536   7.438   8.185  1.7199 -0.8572 -0.6880
32844SOL    HW2 5583   8.424   7.365   8.112 -0.5807  2.1821 -0.3827
32845SOL     OW 5584  10.224   3.020   2.169  0.2405  0.0653 -0.2237
32845SOL    HW1 5585  10.230   3.004   2.074 -0.3203  0.4778 -0.3357
32845SOL    HW2 5586  10.178   3.104   2.176 -1.2787 -0.7712  0.4376
32846SOL     OW 5587   9.634  10.718  12.263  0.5291 -0.0350 -0.6642
32846SOL    HW1 5588   9.618  10.686  12.352  0.3225 -1.8371 -1.3063
32846SOL    HW2 5589   9.715  10.768  12.270  0.6314 -0.3176  0.4901
32847SOL     OW 5590   9.811   5.558   2.874  0.5836 -0.1479 -0.3790
32847SOL    HW1 5591   9.789   5.587   2.963  0.9089 -1.2994  0.0911
32847SOL    HW2 5592   9.838   5.638   2.829 -0.7459  0.6669  0.1855
32848SOL     OW 5593   5.097  11.444   2.726 -0.4812  0.7835  0.1991
32848SOL    HW1 5594   5.037  11.379   2.764  0.0113  1.8828  3.0912
32848SOL    HW2 5595   5.171  11.392   2.695 -1.2376 -0.2492  0.0598
32849SOL     OW 5596   8.874   9.370   8.364  0.4055 -0.2679 -0.1536
32849SOL    HW1 5597   8.852   9.288   8.409  3.9996 -3.1672 -3.0414
32849SOL    HW2 5598   8.817   9.372   8.287  1.0593 -0.6740 -0.6559
32850SOL     OW 5599   3.325   0.248   8.799  0.4031  0.3058  0.8859
32850SOL    HW1 5600   3.309   0.163   8.759  0.7176  0.0142  1.3684
32850SOL    HW2 5601   3.377   0.229   8.877 -0.2965  0.8482  1.5055
32851SOL     OW 5602   8.384   9.120   7.978  0.4900  0.5986  0.0437
32851SOL    HW1 5603   8.445   9.046   7.968  2.0006  1.7832  0.1272
32851SOL    HW2 5604   8.304   9.081   8.014  1.8926 -0.7380  1.9109
32852SOL     OW 5605   1.471  10.186   6.603  0.1604  0.0860 -0.0126
32852SOL    HW1 5606   1.405  10.177   6.672 -0.2167 -2.4096 -0.6042
32852SOL    HW2 5607   1.504  10.097   6.590 -0.0231  0.3802 -3.2625
32853SOL     OW 5608   9.116   4.925   7.385 -0.0674 -0.0224 -0.3946
32853SOL    HW1 5609   9.124   4.953   7.294 -0.4610  2.2607  0.2100
32853SOL    HW2 5610   9.111   5.007   7.435  0.5958 -1.1987  1.7352
32854SOL     OW 5611   9.761   5.144   7.713 -0.4246 -0.3464  0.3639
32854SOL    HW1 5612   9.853   5.160   7.731 -0.3808  0.3011 -0.3802
32854SOL    HW2 5613   9.741   5.062   7.758  0.4096 -0.2887  0.8505
32855SOL     OW 5614   7.763   2.753   3.809  0.3373  0.2546 -0.8292
32855SOL    HW1 5615   7.858   2.754   3.809  0.3328  0.6805 -0.9110
32855SOL    HW2 5616   7.740   2.727   3.719  0.3707  1.0688 -1.0801
32856SOL     OW 5617   7.298   5.987   2.365 -0.1816 -0.0336  0.0656
32856SOL    HW1 5618   7.353   6.002   2.442 -0.7717  1.3579  0.2430
32856SOL    HW2 5619   7.317   6.060   2.306 -2.0353  0.6778  0.2645
32857SOL     OW 5620   7.191   4.738   0.630  0.5895 -0.2811 -0.4490
32857SOL    HW1 5621   7.134   4.751   0.554 -0.1767  0.4829  0.2469
32857SOL    HW2 5622   7.244   4.818   0.635 -0.8324  0.6213  1.0390
32858SOL     OW 5623   8.312   2.111   4.085  0.3612 -0.2050  0.3970
32858SOL    HW1 5624   8.388   2.111   4.027  0.3228 -0.4376  0.3433
32858SOL    HW2 5625   8.247   2.165   4.040  0.6190  0.2824  0.6112
32859SOL     OW 5626   9.181   7.196   5.063 -0.4912  0.3349 -0.1059
32859SOL    HW1 5627   9.181   7.104   5.087  1.8885  0.3841  0.3311
32859SOL    HW2 5628   9.143   7.241   5.139 -0.2850 -0.1535  0.2868
32860SOL     OW 5629   8.407   9.038   4.464  0.2587  0.4040  0.2149
32860SOL    HW1 5630   8.348   9.036   4.539 -1.3285  0.8818 -0.9655
32860SOL    HW2 5631   8.383   8.962   4.412  2.7710 -1.1581  1.1479
32861SOL     OW 5632  12.521   2.757   2.574 -0.2768 -0.3268  0.2207
32861SOL    HW1 5633  12.510   2.727   2.665 -0.1094  0.5957  0.5563
32861SOL    HW2 5634  12.545   2.849   2.582  1.3139 -0.6219 -0.7138
32862SOL     OW 5635   1.153  12.224  12.329  0.1746 -0.1539 -0.5580
32862SOL    HW1 5636   1.064  12.188  12.326 -0.0405  0.3781 -0.5172
32862SOL    HW2 5637   1.187  12.207  12.241 -0.7066  1.4927 -1.2717
32863SOL     OW 5638   9.608  10.990   3.309 -0.1030  0.0998  0.4480
32863SOL    HW1 5639   9.543  10.979   3.378  0.0729 -0.2854  0.5528
32863SOL    HW2 5640   9.690  10.961   3.348 -0.0147 -0.1797  0.0589
32864SOL     OW 5641   1.823  10.451   4.367 -0.0656 -0.0822  0.3675
32864SOL    HW1 5642   1.747  10.421   4.417  0.2534  0.0528  0.9443
32864SOL    HW2 5643   1.862  10.372   4.331 -0.4796 -0.1515  0.0757
32865SOL     OW 5644  11.643   5.222  12.133  0.2681  0.2273 -0.0223
32865SOL    HW1 5645  11.694   5.168  12.194 -1.6793 -2.8100 -0.8610
32865SOL    HW2 5646  11.692   5.218  12.051  1.1026  1.4629  0.3691
32866SOL     OW 5647   9.303   3.830   9.409  0.1667  0.4126  0.2518
32866SOL    HW1 5648   9.283   3.880   9.488 -2.3398  0.0103 -0.0196
32866SOL    HW2 5649   9.286   3.739   9.435 -0.5504  0.2690 -0.6874
32867SOL     OW 5650  11.512   5.178   0.020  0.6420  0.0340  0.4522
32867SOL    HW1 5651  11.496   5.252   0.079 -1.5282 -1.0672  1.3484
32867SOL    HW2 5652  11.505   5.216  -0.068  0.0376  0.9757  0.8929
32868SOL     OW 5653   8.049  12.580  11.634 -0.1511 -0.2996 -0.0282
32868SOL    HW1 5654   7.975  12.638  11.613 -0.9847 -0.8356  1.3190
32868SOL    HW2 5655   8.025  12.540  11.717  1.8656 -0.1908  0.6556
32869SOL     OW 5656   9.698   5.612  12.140  0.2732  0.8784 -0.4367
32869SOL    HW1 5657   9.775   5.669  12.143  0.4799  0.6432 -1.1573
32869SOL    HW2 5658   9.624   5.672  12.144  0.4903  1.1489 -0.4350
32870SOL     OW 5659   1.808   4.952  12.182 -0.2282  0.0379  0.2536
32870SOL    HW1 5660   1.846   5.030  12.223 -3.1000  1.5524  0.2877
32870SOL    HW2 5661   1.749   4.987  12.115  0.6692 -2.2568 -1.8707
32871SOL     OW 5662  10.095   6.280   5.263 -0.1078  0.6385  0.5737
32871SOL    HW1 5663  10.057   6.282   5.175 -0.2763 -0.3520  0.6200
32871SOL    HW2 5664  10.184   6.249   5.250  0.2436  1.5685  0.6396
32872SOL     OW 5665   6.313   4.833   2.036 -0.0248  0.5061  0.0311
32872SOL    HW1 5666   6.317   4.766   2.104  1.8916  1.9643  1.4507
32872SOL    HW2 5667   6.400   4.874   2.037  0.2199  0.3642 -3.5848
32873SOL     OW 5668   4.410   0.546   0.208  0.1757  0.2352  0.2647
32873SOL    HW1 5669   4.328   0.542   0.159 -0.1133  1.0412  0.6576
32873SOL    HW2 5670   4.474   0.583   0.146  0.8942 -2.5972 -0.8313
32874SOL     OW 5671  11.524   8.093   0.312  0.0037  0.2217  0.0023
32874SOL    HW1 5672  11.473   8.092   0.393 -0.1928  2.1951 -0.0394
32874SOL    HW2 5673  11.458   8.092   0.242  0.1300 -0.0857 -0.1150
32875SOL     OW 5674   3.150   0.379   3.765 -0.9276  0.7834  0.2696
32875SOL    HW1 5675   3.144   0.364   3.859  1.7889  0.2127  0.4277
32875SOL    HW2 5676   3.190   0.465   3.757  2.3891 -0.6396 -0.1640
32876SOL     OW 5677  10.284   3.806  10.501  0.2070  0.1930 -0.2107
32876SOL    HW1 5678  10.193   3.833  10.491  0.3449  0.3322 -1.1620
32876SOL    HW2 5679  10.334   3.888  10.500  0.1934  0.3082  2.5551
32877SOL     OW 5680   2.049  11.319   5.567  0.2449  0.0136 -0.0837
32877SOL    HW1 5681   2.053  11.345   5.659  1.9121  1.3882 -0.4914
32877SOL    HW2 5682   2.052  11.224   5.569 -1.4487 -0.0721  1.3064
32878SOL     OW 5683   6.452   6.194   1.206 -0.0260  0.3352  0.5224
32878SOL    HW1 5684   6.519   6.236   1.260  0.5637 -2.5638  2.2857
32878SOL    HW2 5685   6.482   6.208   1.116  0.4028  3.0482  1.0126
32879SOL     OW 5686   5.839   9.318   1.365  0.2332  0.0692 -0.1725
32879SOL    HW1 5687   5.859   9.411   1.381  1.2349 -0.0988 -0.4064
32879SOL    HW2 5688   5.838   9.309   1.270 -0.6116 -0.0175 -0.1677
32880SOL     OW 5689   7.044   5.255   1.418  0.1503  0.1088 -0.2044
32880SOL    HW1 5690   7.000   5.223   1.497 -0.1072  0.9379 -0.0054
32880SOL    HW2 5691   7.134   5.273   1.446  0.1154  0.1981 -0.1475
32881SOL     OW 5692   1.588   0.327  10.287 -0.1811 -0.3400 -0.2931
32881SOL    HW1 5693   1.522   0.353  10.351 -0.0584 -1.9494  0.5315
32881SOL    HW2 5694   1.670   0.362  10.321 -0.3572  0.2565 -0.4682
32882SOL     OW 5695  10.784  11.660   5.765  0.2294  0.1534 -0.5202
32882SOL    HW1 5696  10.693  11.667   5.737 -0.1251 -1.6299  0.0638
32882SOL    HW2 5697  10.834  11.696   5.692 -0.9565  1.9805 -0.4809
32883SOL     OW 5698   9.377   9.499   3.049  0.9371 -0.0461  0.1198
32883SOL    HW1 5699   9.352   9.415   3.088  0.2096  0.9752  1.9580
32883SOL    HW2 5700   9.345   9.493   2.959 -2.0808 -0.5792  1.0948
32884SOL     OW 5701   7.318   3.394   2.070 -0.0242 -0.1788 -1.0060
32884SOL    HW1 5702   7.357   3.312   2.040  0.0686 -1.0404  1.2880
32884SOL    HW2 5703   7.313   3.386   2.165 -0.5136  2.2756 -0.7368
32885SOL     OW 5704  11.606   8.372   2.704  0.1215 -0.2049  0.1455
32885SOL    HW1 5705  11.673   8.304   2.699  0.4130  0.0954 -0.0386
32885SOL    HW2 5706  11.610   8.416   2.619  0.7912  0.8528  0.7070
32886SOL     OW 5707   1.820   3.408   9.456 -1.1268 -0.2597  0.0133
32886SOL    HW1 5708   1.874   3.340   9.415 -1.4016 -0.0191 -0.7633
32886SOL    HW2 5709   1.823   3.482   9.395 -0.2151  0.7304  1.2070
32887SOL     OW 5710   7.676   8.715   9.753  0.8000 -0.1723  0.1986
32887SOL    HW1 5711   7.653   8.807   9.763  1.2942 -0.1886  1.9748
32887SOL    HW2 5712   7.733   8.712   9.676 -1.1375  0.5911 -1.3376
32888SOL     OW 5713   6.274  12.527   9.725 -0.2753 -0.0870 -0.3158
32888SOL    HW1 5714   6.281  12.557   9.815 -0.2432 -1.1930  0.0716
32888SOL    HW2 5715   6.195  12.472   9.725 -0.8747  0.7579 -1.2134
32889SOL     OW 5716   2.514   0.731   2.786 -0.0288 -0.3579  0.0753
32889SOL    HW1 5717   2.596   0.777   2.806 -1.5965  1.0238  4.7948
32889SOL    HW2 5718   2.536   0.639   2.796  1.0392 -0.0246  1.1637
32890SOL     OW 5719  11.154   9.436   8.379 -0.3538 -0.7723 -0.1911
32890SOL    HW1 5720  11.089   9.390   8.432 -1.3113  0.2173 -0.4785
32890SOL    HW2 5721  11.190   9.503   8.437  2.7132 -3.1879  0.9971
32891SOL     OW 5722  11.749   3.514   7.510  0.5000 -0.2091 -0.2921
32891SOL    HW1 5723  11.661   3.479   7.527  1.2416 -1.5318  1.0139
32891SOL    HW2 5724  11.798   3.494   7.589  1.7703  1.2747 -0.6658
32892SOL     OW 5725   1.889   3.123  11.364  0.2808  0.1104  0.0526
32892SOL    HW1 5726   1.848   3.154  11.284 -0.1514 -0.5894  0.0002
32892SOL    HW2 5727   1.928   3.039  11.340  0.5744  0.1264  0.4563
32893SOL     OW 5728   9.392   1.287   4.587  0.3478 -0.4228 -0.2277
32893SOL    HW1 5729   9.477   1.313   4.553 -0.2801  0.7528 -0.9783
32893SOL    HW2 5730   9.329   1.329   4.528 -0.7549 -0.6731  0.7380
32894SOL     OW 5731   5.901   2.513  11.030 -0.2217  0.4877 -0.2840
32894SOL    HW1 5732   5.990   2.542  11.049 -1.0884  2.0006  1.7947
32894SOL    HW2 5733   5.889   2.435  11.084 -1.1184  2.1012  2.0211
32895SOL     OW 5734   0.799   6.324   9.899  0.1797  0.4796 -0.1570
32895SOL    HW1 5735   0.747   6.391   9.944  3.3790  2.7654  0.5088
32895SOL    HW2 5736   0.798   6.350   9.807  0.1266  0.5135 -0.1471
32896SOL     OW 5737   9.363   4.078   8.393  0.0973  0.3288 -0.0238
32896SOL    HW1 5738   9.318   4.050   8.472 -1.4500  0.4021 -0.8492
32896SOL    HW2 5739   9.318   4.158   8.366  1.1444  0.7735 -0.5384
32897SOL     OW 5740   9.832   8.432   3.498  0.2241  0.2531 -0.0898
32897SOL    HW1 5741   9.760   8.464   3.444  0.5505  0.1537 -0.5847
32897SOL    HW2 5742   9.898   8.403   3.436  0.6513  0.2483  0.3618
32898SOL     OW 5743   6.395   8.402   8.860  0.5853 -0.5173 -0.2572
32898SOL    HW1 5744   6.396   8.488   8.902 -0.2464 -0.2343 -0.8059
32898SOL    HW2 5745   6.450   8.412   8.782  1.8420 -0.9494  0.5289
32899SOL     OW 5746  11.533   6.950  11.127  0.0476  0.0281 -0.4869
32899SOL    HW1 5747  11.581   6.950  11.045 -1.2386 -0.7616 -1.2892
32899SOL    HW2 5748  11.493   6.863  11.131  0.3062 -0.0481  1.1157
32900SOL     OW 5749  10.957   9.493   5.464 -0.3102  0.2691  0.2295
32900SOL    HW1 5750  10.873   9.448   5.473 -0.5026  0.3924 -0.7919
32900SOL    HW2 5751  10.937   9.571   5.413  0.6331 -0.4016 -1.2469
32901SOL     OW 5752   4.843   6.223   0.990 -0.7827  0.4745  0.0217
32901SOL    HW1 5753   4.778   6.290   0.971 -1.6633 -0.5265 -0.6476
32901SOL    HW2 5754   4.907   6.231   0.918  0.5991  2.3064  1.3689
32902SOL     OW 5755   3.548   6.676  11.388  0.0003 -0.0721  0.1189
32902SOL    HW1 5756   3.573   6.594  11.430 -2.6036 -1.7268 -1.2907
32902SOL    HW2 5757   3.458   6.691  11.416  0.5685  2.6889  0.7816
32903SOL     OW 5758   2.223   3.241   7.790 -0.4649  0.1348 -0.4334
32903SOL    HW1 5759   2.290   3.219   7.725 -0.7970 -1.2633 -0.3262
32903SOL    HW2 5760   2.243   3.184   7.865 -0.9733  0.6776  0.1217
32904SOL     OW 5761   6.767   2.633   8.486  0.0807 -0.0744  0.5972
32904SOL    HW1 5762   6.751   2.573   8.559  0.2661 -0.2760  0.4743
32904SOL    HW2 5763   6.772   2.577   8.409  1.0569  0.0051  0.5861
32905SOL     OW 5764   8.161   7.147   9.837  0.1085 -0.4887 -0.0734
32905SOL    HW1 5765   8.249   7.180   9.859 -0.9492  1.6213  1.4215
32905SOL    HW2 5766   8.120   7.219   9.789 -0.4177 -1.9667 -1.9716
32906SOL     OW 5767   9.149   0.424  12.024 -0.5228  0.2889 -0.6427
32906SOL    HW1 5768   9.123   0.511  12.053  0.7803  0.8531 -1.0866
32906SOL    HW2 5769   9.100   0.364  12.080  0.7837  1.3026  1.7527
32907SOL     OW 5770  10.708   6.056   7.838 -0.3249  0.1036  0.6292
32907SOL    HW1 5771  10.721   6.122   7.770  1.0506 -1.0866 -0.3263
32907SOL    HW2 5772  10.664   5.984   7.794  0.8239 -0.7952  0.9190
32908SOL     OW 5773   5.521   4.784   2.036 -0.0223 -0.5023 -0.4675
32908SOL    HW1 5774   5.596   4.728   2.055  0.3814  0.1476 -0.1356
32908SOL    HW2 5775   5.487   4.750   1.953 -1.6274 -3.1883  1.1321
32909SOL     OW 5776  10.316   0.274   6.677 -0.0613 -0.6343  0.2404
32909SOL    HW1 5777  10.266   0.313   6.605  0.7289  0.7331  0.4062
32909SOL    HW2 5778  10.387   0.227   6.633  0.8930  0.8660  0.1099
32910SOL     OW 5779   3.043   7.543   2.227  0.0389  0.0805  0.5668
32910SOL    HW1 5780   3.109   7.482   2.193  0.0173  0.2389  0.2407
32910SOL    HW2 5781   3.076   7.630   2.203  0.0081  0.1948  0.9217
32911SOL     OW 5782  12.082   5.591   3.351 -0.3183 -0.2670 -0.2411
32911SOL    HW1 5783  11.997   5.548   3.351 -0.2449 -0.4339 -1.1622
32911SOL    HW2 5784  12.140   5.531   3.397 -1.1001  0.7223  2.1838
32912SOL     OW 5785   5.706   0.801   2.482 -0.1667 -0.3572  0.4368
32912SOL    HW1 5786   5.674   0.892   2.485  0.2235 -0.2308  1.7130
32912SOL    HW2 5787   5.644   0.756   2.426 -0.3532  0.7095 -0.2547
32913SOL     OW 5788  11.537   9.050   7.361  0.0096 -0.5283 -0.0480
32913SOL    HW1 5789  11.509   9.072   7.272  0.2480 -1.6494 -0.4189
32913SOL    HW2 5790  11.618   9.100   7.374 -1.1404  1.3343  0.3704
32914SOL     OW 5791   3.619  11.002   9.414 -0.5459 -0.1487  0.5921
32914SOL    HW1 5792   3.546  10.957   9.457 -1.5117 -0.1588 -0.9707
32914SOL    HW2 5793   3.578  11.053   9.344  0.9113  0.0694 -0.1551
32915SOL     OW 5794  10.812   0.939   7.735 -0.1076  0.3645  0.0396
32915SOL    HW1 5795  10.850   0.946   7.648  1.8677 -0.7610  0.7340
32915SOL    HW2 5796  10.843   1.016   7.782 -0.3844  0.4869  0.0239
32916SOL     OW 5797  12.071   2.122   5.675 -0.1169  0.5569 -0.6581
32916SOL    HW1 5798  12.148   2.082   5.715 -1.1680 -0.2225  0.6614
32916SOL    HW2 5799  12.056   2.070   5.596  0.3216  0.3173 -0.5871
32917SOL     OW 5800   1.704   1.706   7.634 -0.2972 -0.6127  0.4698
32917SOL    HW1 5801   1.656   1.626   7.657 -0.9150 -0.2783  0.3346
32917SOL    HW2 5802   1.796   1.683   7.649 -0.2681 -2.0007 -1.3886
32918SOL     OW 5803   9.190   9.847   5.195  0.5648 -0.1033 -0.0013
32918SOL    HW1 5804   9.161   9.938   5.202  0.6442 -0.1447  0.9991
32918SOL    HW2 5805   9.122   9.804   5.143  0.9304  0.6845 -1.1943
32919SOL     OW 5806   3.299   6.492   5.647 -0.1387  0.2979 -0.3651
32919SOL    HW1 5807   3.282   6.568   5.703  0.3513 -0.1868  0.4660
32919SOL    HW2 5808   3.249   6.421   5.689  1.5972 -0.4776  0.4766
32920SOL     OW 5809   5.121   5.428   1.715 -0.1091  0.3406  0.6109
32920SOL    HW1 5810   5.059   5.365   1.750  1.4799 -0.2956  2.4703
32920SOL    HW2 5811   5.205   5.382   1.715  0.6273  1.5856 -0.6139
32921SOL     OW 5812   7.660  11.499   6.325 -0.3698  0.9349  0.1289
32921SOL    HW1 5813   7.658  11.565   6.256 -1.0948  1.6927  0.8402
32921SOL    HW2 5814   7.570  11.496   6.358 -0.5705 -1.0986 -0.4926
32922SOL     OW 5815  10.521   2.377   3.488  0.4017 -0.7091  0.1159
32922SOL    HW1 5816  10.494   2.330   3.567  1.9475  0.0707  1.1705
32922SOL    HW2 5817  10.579   2.316   3.442  0.1496 -0.8658  0.0046
32923SOL     OW 5818   0.565   7.249   5.637  0.3981 -0.2287 -0.0572
32923SOL    HW1 5819   0.640   7.190   5.644  0.8735  0.4247  0.5545
32923SOL    HW2 5820   0.599   7.326   5.592  0.5589  0.7598  1.6658
32924SOL     OW 5821   1.268   2.774  11.505  0.1910  0.6450  0.3448
32924SOL    HW1 5822   1.294   2.826  11.429  0.2846  1.3241  0.8276
32924SOL    HW2 5823   1.262   2.838  11.577 -1.1302  0.2243  0.6326
32925SOL     OW 5824   6.449  12.276   0.455 -0.9162  0.2925 -0.0054
32925SOL    HW1 5825   6.495  12.201   0.419 -2.9196 -0.4708 -1.1988
32925SOL    HW2 5826   6.462  12.271   0.549  0.2215 -0.6665 -0.1978
32926SOL     OW 5827  12.304   7.300   7.134  0.0146 -0.0134 -0.3497
32926SOL    HW1 5828  12.244   7.226   7.133 -1.0584  0.7843  0.8050
32926SOL    HW2 5829  12.306   7.328   7.226 -0.3589  1.9310 -0.8809
32927SOL     OW 5830   7.486   3.207  11.838 -0.5340  0.0182 -0.7202
32927SOL    HW1 5831   7.457   3.157  11.762 -0.4533  0.2439 -0.8992
32927SOL    HW2 5832   7.418   3.274  11.851  0.0731  0.7809 -1.3634
32928SOL     OW 5833   7.291  10.982   8.400  0.2842  0.1989 -0.0284
32928SOL    HW1 5834   7.257  11.039   8.469 -0.2293 -1.1714  0.9002
32928SOL    HW2 5835   7.213  10.954   8.352  0.5914  0.7317 -0.8643
32929SOL     OW 5836   7.934  10.755   2.941 -0.8455  0.6387  0.6563
32929SOL    HW1 5837   7.948  10.848   2.926 -2.3702  1.0479  1.5629
32929SOL    HW2 5838   7.895  10.723   2.859  2.2489  0.0996 -0.7684
32930SOL     OW 5839   4.782   8.043   2.579 -0.4524 -0.4405 -0.1625
32930SOL    HW1 5840   4.846   8.086   2.523 -0.0897 -1.5523 -0.6203
32930SOL    HW2 5841   4.833   8.012   2.654 -0.4714 -1.1922 -0.4534
32931SOL     OW 5842   8.846   7.133   8.274 -0.7176 -0.1738  0.3427
32931SOL    HW1 5843   8.845   7.225   8.303 -0.9881  0.7181 -2.2590
32931SOL    HW2 5844   8.877   7.085   8.351  0.1916  2.1671  1.5654
32932SOL     OW 5845   9.542   1.993   9.053  0.1829 -0.1079  0.0980
32932SOL    HW1 5846   9.617   2.019   8.999  0.0645 -0.5444 -0.2813
32932SOL    HW2 5847   9.561   1.903   9.078  0.2603  0.1078  0.8367
32933SOL     OW 5848   1.983   0.325   3.065  0.4818 -0.5023 -0.4157
32933SOL    HW1 5849   1.906   0.348   3.118  0.4208  0.1749 -0.7851
32933SOL    HW2 5850   1.967   0.235   3.038  0.4295 -0.8035  0.5672
32934SOL     OW 5851   1.764   5.576   0.782 -0.4178 -0.1502  0.0951
32934SOL    HW1 5852   1.786   5.499   0.835  0.8969  0.3747  0.3630
32934SOL    HW2 5853   1.848   5.603   0.744 -1.1405  0.1469 -1.3829
32935SOL     OW 5854   7.664   8.104   6.475  0.0152  0.3471 -0.3893
32935SOL    HW1 5855   7.583   8.149   6.497 -0.4031 -0.7970  0.4802
32935SOL    HW2 5856   7.636   8.021   6.436  0.7004 -0.9140  1.6413
32936SOL     OW 5857  12.445   1.039   6.737 -0.1661 -0.0112  0.0075
32936SOL    HW1 5858  12.474   1.060   6.826 -0.2278  1.1382 -0.2329
32936SOL    HW2 5859  12.352   1.019   6.746 -0.2302  0.3622  0.1593
32937SOL     OW 5860   7.251   3.735   7.612  0.0955 -0.4199 -0.0700
32937SOL    HW1 5861   7.226   3.709   7.523 -0.1266  1.3151 -0.5562
32937SOL    HW2 5862   7.184   3.696   7.668 -0.0506 -1.1213 -0.7180
32938SOL     OW 5863   0.268  11.511  11.758  0.4283 -0.3295 -0.2467
32938SOL    HW1 5864   0.241  11.596  11.722  0.8789  0.1098  0.4130
32938SOL    HW2 5865   0.215  11.447  11.711  1.0679  0.1939 -1.7663
32939SOL     OW 5866  12.036   6.684   0.615  0.3564 -0.1137  0.0868
32939SOL    HW1 5867  11.972   6.694   0.685  0.0630 -2.8327  0.3078
32939SOL    HW2 5868  12.002   6.737   0.543 -1.3838 -0.3701  0.6861
32940SOL     OW 5869   0.226   9.454   7.718  0.1917  0.3496  0.4487
32940SOL    HW1 5870   0.210   9.383   7.656  1.6109  0.6841 -0.3559
32940SOL    HW2 5871   0.171   9.526   7.688  0.2116  0.2195  0.1038
32941SOL     OW 5872   2.284   0.963   8.579  1.0502 -0.5467  0.1590
32941SOL    HW1 5873   2.313   0.874   8.556  0.0684 -0.4295 -1.6429
32941SOL    HW2 5874   2.194   0.951   8.608  1.3334 -0.2846  1.1795
32942SOL     OW 5875   4.881  10.436   9.898 -0.0084 -0.2511  0.2451
32942SOL    HW1 5876   4.898  10.370   9.966  1.0785  0.4780  0.7083
32942SOL    HW2 5877   4.844  10.386   9.825 -2.0451 -0.9383  1.6624
32943SOL     OW 5878  12.064  11.275   2.335 -0.0450 -0.4105  0.1937
32943SOL    HW1 5879  12.063  11.197   2.389 -1.7060 -1.2972 -1.0312
32943SOL    HW2 5880  12.102  11.247   2.252  1.3321  0.6272  0.4384
32944SOL     OW 5881   6.132   0.585   4.524  0.1869 -0.8873 -0.1328
32944SOL    HW1 5882   6.213   0.536   4.540 -0.8120 -2.3318  0.7080
32944SOL    HW2 5883   6.081   0.574   4.604 -1.4829 -1.3212 -1.2031
32945SOL     OW 5884   6.361  12.577   4.991 -0.5115  0.5892  0.0529
32945SOL    HW1 5885   6.402  12.505   5.040 -0.2025 -0.3794 -1.5540
32945SOL    HW2 5886   6.269  12.551   4.983 -0.3225  0.1747 -0.8482
32946SOL     OW 5887   8.416  10.886   9.809  0.0158  0.9230  0.2974
32946SOL    HW1 5888   8.361  10.961   9.829 -0.4270  0.4433  0.9256
32946SOL    HW2 5889   8.439  10.850   9.895 -1.0112 -0.5442 -0.0185
32947SOL     OW 5890   9.881   1.723   3.103 -0.2961  0.3166 -0.0152
32947SOL    HW1 5891   9.977   1.726   3.105 -0.2639 -0.6629  0.0881
32947SOL    HW2 5892   9.854   1.798   3.157  0.4091  0.5860 -0.0288
32948SOL     OW 5893   9.377   5.590  10.725  0.2456  0.1822 -0.0017
32948SOL    HW1 5894   9.348   5.681  10.721  1.7500  0.6558 -0.6891
32948SOL    HW2 5895   9.419   5.574  10.640 -1.2325 -1.6079 -0.4805
32949SOL     OW 5896   2.124   6.482  10.438 -0.5632 -0.0832 -0.2459
32949SOL    HW1 5897   2.046   6.485  10.492 -0.1337  1.2507  0.3443
32949SOL    HW2 5898   2.197   6.492  10.500 -0.0748  1.8793 -1.0566
32950SOL     OW 5899   0.911   9.153  10.493 -0.0894  0.2782 -0.0117
32950SOL    HW1 5900   0.824   9.177  10.523 -1.3903 -2.7222 -1.0107
32950SOL    HW2 5901   0.924   9.205  10.413 -0.8284  0.8928  0.2536
32951SOL     OW 5902   5.911   4.993   3.002 -0.0323  0.3464 -0.6424
32951SOL    HW1 5903   5.969   4.921   2.978  0.6393  1.0350 -1.1575
32951SOL    HW2 5904   5.824   4.954   3.006  0.5964 -0.9990  1.3787
32952SOL     OW 5905   8.644   5.089   4.831 -0.3552  0.2142 -0.0399
32952SOL    HW1 5906   8.665   5.044   4.749  0.3369  0.3540  0.0533
32952SOL    HW2 5907   8.569   5.041   4.866 -0.2300 -0.2701 -0.4207
32953SOL     OW 5908  12.571   9.295   5.054  0.1027 -0.2407 -0.7465
32953SOL    HW1 5909  12.605   9.337   4.976 -0.3197 -0.2957 -0.9641
32953SOL    HW2 5910  12.642   9.237   5.083  0.3886  0.0394 -0.8896
32954SOL     OW 5911   9.724   9.572   4.001  0.4856  0.6146  0.0461
32954SOL    HW1 5912   9.652   9.512   3.979  1.2168  0.1627 -1.2028
32954SOL    HW2 5913   9.771   9.528   4.071  1.8431 -1.0248 -1.7791
32955SOL     OW 5914   0.368   3.238   2.394 -0.1107 -0.4450  0.1203
32955SOL    HW1 5915   0.434   3.290   2.349 -2.0176  0.0622 -2.2843
32955SOL    HW2 5916   0.345   3.290   2.471  0.2859  0.7384 -0.5466
32956SOL     OW 5917   6.201   4.777   7.963 -0.0819  0.0825  0.1730
32956SOL    HW1 5918   6.177   4.827   8.041  1.6075  0.4585  0.4994
32956SOL    HW2 5919   6.168   4.689   7.981  0.5891  0.0711  1.4982
32957SOL     OW 5920   8.760  11.308   5.237  0.2642 -0.4952  0.6226
32957SOL    HW1 5921   8.828  11.310   5.169  0.8344 -0.4419  1.1838
32957SOL    HW2 5922   8.684  11.350   5.196  1.9800  4.0315  1.4591
32958SOL     OW 5923   8.551  12.392  10.843  0.3952  0.0350  0.2835
32958SOL    HW1 5924   8.574  12.326  10.909 -0.6257 -0.8531 -0.2067
32958SOL    HW2 5925   8.620  12.458  10.850  0.6168 -0.3185  1.8424
32959SOL     OW 5926   8.057   3.784   8.750  0.1492 -0.6254  0.1849
32959SOL    HW1 5927   8.054   3.801   8.656 -0.0546  2.6094  0.6363
32959SOL    HW2 5928   8.150   3.774   8.770  0.4777  1.4413 -0.0643
32960SOL     OW 5929   3.214   3.043  12.131 -0.0894 -0.2977  0.4286
32960SOL    HW1 5930   3.159   3.116  12.157  0.6468  0.9966 -1.4296
32960SOL    HW2 5931   3.163   2.965  12.153 -1.3664  0.7884  1.4482
32961SOL     OW 5932   6.489   7.394   5.613  0.3827 -0.2710  0.0562
32961SOL    HW1 5933   6.458   7.473   5.568  1.9607 -0.8212 -2.1337
32961SOL    HW2 5934   6.413   7.336   5.614 -1.1474  1.5240  2.6368
32962SOL     OW 5935   9.654   1.624   3.630  0.3025  0.3291  0.0765
32962SOL    HW1 5936   9.604   1.690   3.583 -0.4108  0.4379  0.9596
32962SOL    HW2 5937   9.726   1.672   3.671 -1.5981  1.0807  2.7858
32963SOL     OW 5938   6.535   9.198  11.655 -0.1019 -0.0754 -0.2521
32963SOL    HW1 5939   6.547   9.176  11.747 -0.1298  0.3864 -0.1321
32963SOL    HW2 5940   6.442   9.182  11.638  0.5978 -4.1378 -1.3106
32964SOL     OW 5941  10.029  10.028   6.880 -0.2363 -0.3682  0.3474
32964SOL    HW1 5942   9.945  10.033   6.834  0.8745  1.8873 -1.6229
32964SOL    HW2 5943  10.074   9.954   6.838 -0.3015 -0.0414 -0.3164
32965SOL     OW 5944   3.335   0.961   6.804  0.0774  0.1597 -0.4275
32965SOL    HW1 5945   3.423   0.994   6.822 -0.2394  1.6856 -1.4557
32965SOL    HW2 5946   3.296   0.949   6.890  0.9120  0.5968  0.0254
32966SOL     OW 5947  12.038   4.621   5.171  0.0733 -0.6527 -0.1607
32966SOL    HW1 5948  11.957   4.583   5.138  0.3280 -0.4545 -1.0154
32966SOL    HW2 5949  12.009   4.686   5.236 -0.4748 -0.1704 -0.8790
32967SOL     OW 5950   3.916   1.258   3.047 -0.0972  0.0104 -0.0388
32967SOL    HW1 5951   3.841   1.277   2.990  1.1371 -1.0807 -2.1544
32967SOL    HW2 5952   3.992   1.259   2.988  1.5615  0.8556  1.9775
32968SOL     OW 5953   0.077   2.910   3.445  0.4704  0.1046 -0.1037
32968SOL    HW1 5954   0.169   2.927   3.428  0.7290 -0.6967  0.4369
32968SOL    HW2 5955   0.071   2.815   3.454 -0.3846  0.1566 -0.0287
32969SOL     OW 5956   3.463   4.638   7.449  0.1777 -0.6197  0.3147
32969SOL    HW1 5957   3.452   4.546   7.423 -0.5680 -0.3801 -0.2395
32969SOL    HW2 5958   3.374   4.671   7.460  0.4011  0.3218 -0.5333
32970SOL     OW 5959   2.037   0.912   3.771  0.2015 -0.1631  0.3612
32970SOL    HW1 5960   2.076   0.985   3.724 -1.9584 -0.5775 -2.3026
32970SOL    HW2 5961   2.112   0.864   3.806  1.7720  1.9672  0.1753
32971SOL     OW 5962   3.330   5.401   9.922  0.0645  0.3783  1.5504
32971SOL    HW1 5963   3.370   5.318   9.947  2.5315  1.9351  3.2806
32971SOL    HW2 5964   3.397   5.445   9.869 -1.5158  0.9746 -0.0505
32972SOL     OW 5965   9.518   5.179   2.261 -0.2523  0.8388  0.0294
32972SOL    HW1 5966   9.465   5.152   2.336 -0.1176 -0.9904 -0.4681
32972SOL    HW2 5967   9.535   5.272   2.274  0.0754  0.4912  2.4507
32973SOL     OW 5968   8.586   8.355   9.659  0.8112  0.1609 -0.2672
32973SOL    HW1 5969   8.513   8.299   9.634  0.9083  0.1972 -0.6324
32973SOL    HW2 5970   8.551   8.411   9.728  0.8343 -0.6467  0.4171
32974SOL     OW 5971   5.634   0.358   6.164 -0.1428  0.5914  0.5112
32974SOL    HW1 5972   5.687   0.309   6.101 -0.7008  0.4334  0.1562
32974SOL    HW2 5973   5.597   0.290   6.221 -1.7549  0.4644 -0.6136
32975SOL     OW 5974   3.902   7.641   5.448  0.0879  0.4246  0.2047
32975SOL    HW1 5975   3.894   7.704   5.519  0.2175 -0.2827  0.8489
32975SOL    HW2 5976   3.978   7.670   5.398  0.4907  0.4384  0.8331
32976SOL     OW 5977   8.990   8.707   6.162 -0.1974 -0.4395 -0.2306
32976SOL    HW1 5978   9.070   8.744   6.200 -1.3571  1.1185  0.8154
32976SOL    HW2 5979   8.986   8.744   6.074  0.0755 -0.2791 -0.1757
32977SOL     OW 5980   8.414   0.853   6.510 -0.1827  0.0086 -0.1238
32977SOL    HW1 5981   8.437   0.859   6.603  0.2126 -0.6398 -0.1745
32977SOL    HW2 5982   8.432   0.762   6.487  0.6146  0.3845 -1.0668
32978SOL     OW 5983   2.791  12.344  12.542 -0.0798  0.4889 -0.1995
32978SOL    HW1 5984   2.827  12.321  12.628  0.7440  0.3938 -0.5614
32978SOL    HW2 5985   2.729  12.415  12.560  1.4260  1.7370  0.2713
32979SOL     OW 5986   8.147   6.286   3.345 -0.8599  0.6264 -0.3204
32979SOL    HW1 5987   8.089   6.320   3.413 -0.5281 -0.4814  0.5492
32979SOL    HW2 5988   8.140   6.349   3.273 -2.0853  1.2231  0.2954
32980SOL     OW 5989  10.233   1.533  12.019  0.7765 -0.2765 -0.5378
32980SOL    HW1 5990  10.147   1.567  11.997  0.6582 -0.9045 -1.0634
32980SOL    HW2 5991  10.271   1.599  12.077  1.0230  1.3759 -2.4502
32981SOL     OW 5992   7.341   1.555   4.377 -0.0700 -0.1369 -0.2290
32981SOL    HW1 5993   7.413   1.561   4.314 -0.8506  2.6578 -0.9696
32981SOL    HW2 5994   7.321   1.645   4.399 -1.3244 -0.9647  2.3714
32982SOL     OW 5995   0.822   3.410  10.029 -0.2964 -0.4526 -0.2457
32982SOL    HW1 5996   0.731   3.408  10.000 -0.2043 -0.6686 -0.5159
32982SOL    HW2 5997   0.871   3.367   9.960  0.2387  1.0886 -0.8714
32983SOL     OW 5998   8.202   6.610   4.585  0.4538 -0.0963 -0.6936
32983SOL    HW1 5999   8.153   6.676   4.536  0.1866 -0.8411 -1.4622
32983SOL    HW2 6000   8.166   6.613   4.673  0.8123  1.1405 -0.5728
32984SOL     OW 6001   8.747   5.557   7.630 -0.4511 -0.4677 -0.6433
32984SOL    HW1 6002   8.698   5.510   7.562 -0.0471 -0.8524 -0.6646
32984SOL    HW2 6003   8.797   5.490   7.675 -0.4398 -0.1602 -0.1949
32985SOL     OW 6004   2.629   9.033  11.087 -0.1017 -0.0276  0.1394
32985SOL    HW1 6005   2.592   8.945  11.076  1.0533 -0.5968  0.6869
32985SOL    HW2 6006   2.627   9.047  11.182  0.8802  0.0187  0.1573
32986SOL     OW 6007   1.387   5.210   6.687  0.4318  0.2981  0.5473
32986SOL    HW1 6008   1.451   5.244   6.625  0.5498  2.0548  1.5769
32986SOL    HW2 6009   1.367   5.122   6.654  2.2691  0.2507 -0.5994
32987SOL     OW 6010   3.701  11.324   5.845  0.2091 -0.3366  0.4352
32987SOL    HW1 6011   3.610  11.346   5.825 -0.3689 -2.7933  0.0695
32987SOL    HW2 6012   3.752  11.374   5.781 -1.0782 -0.8413 -1.0576
32988SOL     OW 6013   4.057   9.010   3.549  0.0011  0.2499 -0.0813
32988SOL    HW1 6014   4.091   8.969   3.470 -1.2252 -1.6207  0.3026
32988SOL    HW2 6015   4.017   9.091   3.518  1.6672  0.7736 -0.9987
32989SOL     OW 6016   0.887   9.061   4.248 -0.4241 -0.0323  0.3118
32989SOL    HW1 6017   0.896   8.967   4.236 -1.0140 -0.1109  0.4304
32989SOL    HW2 6018   0.863   9.071   4.340 -0.0967  0.2524  0.3653
32990SOL     OW 6019   0.353   3.002  10.171  0.3683 -0.1277  0.1180
32990SOL    HW1 6020   0.375   3.005  10.264  0.9670  1.0140 -0.0459
32990SOL    HW2 6021   0.437   2.986  10.127  0.5488  1.8563 -0.3600
32991SOL     OW 6022   4.111   2.746   5.037  0.4317  0.0151  0.3189
32991SOL    HW1 6023   4.083   2.680   4.973  2.2021 -0.3131 -0.1607
32991SOL    HW2 6024   4.200   2.720   5.061  0.3442  0.9775  1.8189
32992SOL     OW 6025   5.036   0.906   7.159 -0.3391 -0.4319 -0.5067
32992SOL    HW1 6026   5.024   0.900   7.064  0.8573  0.9368 -0.7752
32992SOL    HW2 6027   5.047   0.815   7.187 -1.7339 -0.9522 -1.4965
32993SOL     OW 6028   5.202  12.138   9.750 -0.2392  0.4095  0.1139
32993SOL    HW1 6029   5.143  12.071   9.783  1.2972 -2.1143 -1.9363
32993SOL    HW2 6030   5.169  12.159   9.662  0.4580  0.8624 -0.0495
32994SOL     OW 6031   6.678   5.979   7.354  0.3738 -0.9819 -0.2042
32994SOL    HW1 6032   6.588   5.949   7.347  0.2196 -0.3127 -1.2839
32994SOL    HW2 6033   6.730   5.914   7.306  0.5165 -1.5117  0.6429
32995SOL     OW 6034   6.014   9.096   2.466  0.2436 -0.0389 -0.2169
32995SOL    HW1 6035   5.939   9.144   2.502  0.9036  0.9136 -0.0566
32995SOL    HW2 6036   5.996   9.004   2.485 -0.3883  0.2706  0.7336
32996SOL     OW 6037   3.509   4.757   0.668 -0.1170  0.1110  0.3801
32996SOL    HW1 6038   3.450   4.824   0.636 -0.0118  0.2014  0.3745
32996SOL    HW2 6039   3.582   4.805   0.708  0.9521  0.0506 -1.3859
32997SOL     OW 6040   7.303   4.353   0.146 -0.0103 -0.2650  0.1963
32997SOL    HW1 6041   7.233   4.408   0.181  0.2032 -0.5264  1.0343
32997SOL    HW2 6042   7.359   4.333   0.220  0.7092 -0.4426 -0.3806
32998SOL     OW 6043   8.014  11.832   1.452  0.2221 -0.4995  0.5446
32998SOL    HW1 6044   7.986  11.912   1.407 -0.2568 -0.5966  0.6741
32998SOL    HW2 6045   7.935  11.797   1.492  0.8880  0.5454  3.0103
32999SOL     OW 6046   3.238   7.851   7.638 -0.0970  0.1855 -0.2313
32999SOL    HW1 6047   3.194   7.785   7.586  1.7603 -0.4597 -1.0621
32999SOL    HW2 6048   3.214   7.934   7.597 -0.1224 -0.1825 -0.9691
33000SOL     OW 6049  11.394   7.267  12.389  0.4267 -0.2621  0.4400
33000SOL    HW1 6050  11.299   7.275  12.384  0.3653 -0.5295  1.0976
33000SOL    HW2 6051  11.409   7.174  12.406  0.6981  0.1320  2.5851
33001SOL     OW 6052   6.698   9.819   7.712 -0.2895  0.6876  0.3837
33001SOL    HW1 6053   6.683   9.857   7.798 -0.0570  0.4747  0.5210
33001SOL    HW2 6054   6.680   9.890   7.651  3.5350  2.1947  0.7175
33002SOL     OW 6055   5.463   5.984   1.015  0.0267  0.1059 -0.1127
33002SOL    HW1 6056   5.509   6.067   1.029  0.7844 -0.5128  1.2264
33002SOL    HW2 6057   5.463   5.941   1.101 -1.9684 -0.4891 -0.3500
33003SOL     OW 6058   1.435   6.339   3.167  0.0524  0.4637 -0.0888
33003SOL    HW1 6059   1.518   6.377   3.196  1.4712 -1.5466 -1.1764
33003SOL    HW2 6060   1.413   6.275   3.235  1.5539 -1.7640 -1.5206
33004SOL     OW 6061   5.836   4.784   2.108 -0.0322  0.4073 -0.3420
33004SOL    HW1 6062   5.922   4.768   2.148 -0.7335 -2.5552  0.2040
33004SOL    HW2 6063   5.848   4.761   2.016 -0.9512 -3.7284  0.3766
33005SOL     OW 6064  11.498  11.605   1.692  0.0246  0.4630 -0.0510
33005SOL    HW1 6065  11.506  11.594   1.597  1.0459  2.1765 -0.2089
33005SOL    HW2 6066  11.589  11.609   1.722 -0.2776 -1.1262  1.1614
33006SOL     OW 6067   1.845   9.326   9.927 -0.3651  0.6147  0.2836
33006SOL    HW1 6068   1.769   9.274   9.950 -0.9691  0.7062 -1.3870
33006SOL    HW2 6069   1.861   9.307   9.834  1.2905  1.0433  0.4409
33007SOL     OW 6070   6.479   8.686   1.854  0.2387 -0.4029  0.5304
33007SOL    HW1 6071   6.502   8.621   1.787 -0.2360  0.8169 -0.8717
33007SOL    HW2 6072   6.384   8.681   1.860  0.2863 -0.5565  1.1803
33008SOL     OW 6073  12.543   3.661  10.522 -0.1254 -0.6135 -0.2068
33008SOL    HW1 6074  12.607   3.730  10.507  1.1419 -1.4911  0.8930
33008SOL    HW2 6075  12.465   3.707  10.554  0.1565  0.4093 -0.9247
33009SOL     OW 6076   8.569   1.665  10.598  0.2794 -0.2487 -0.5835
33009SOL    HW1 6077   8.524   1.702  10.674  2.4496 -0.1726  0.7323
33009SOL    HW2 6078   8.584   1.573  10.621  0.5572 -0.3437 -1.1139
33010SOL     OW 6079   0.316   8.534   7.771 -0.0156  0.0834 -0.4099
33010SOL    HW1 6080   0.402   8.575   7.769  0.2952 -0.3845  1.3769
33010SOL    HW2 6081   0.280   8.560   7.856 -1.9612  0.8729 -1.4106
33011SOL     OW 6082   4.107   0.181   3.685  0.5480 -0.1107 -0.1266
33011SOL    HW1 6083   4.052   0.139   3.619  1.3220 -1.5648  0.0949
33011SOL    HW2 6084   4.196   0.178   3.648  1.0498 -1.2681  1.0733
33012SOL     OW 6085   8.912   3.900   9.559  0.2078  0.8962  0.0267
33012SOL    HW1 6086   8.895   3.937   9.646  0.7867  2.9211 -0.6685
33012SOL    HW2 6087   8.887   3.969   9.498 -2.1962 -1.2113 -1.5907
33013SOL     OW 6088   1.611   7.193  10.845 -0.0908 -0.4975  0.8719
33013SOL    HW1 6089   1.601   7.279  10.805 -0.4632  0.0661  2.1251
33013SOL    HW2 6090   1.523   7.170  10.874  0.0532 -1.1916  0.7597
33014SOL     OW 6091   2.390   7.094   3.712 -0.6255 -0.6245 -0.4019
33014SOL    HW1 6092   2.463   7.154   3.715 -0.1362 -1.1751 -0.9149
33014SOL    HW2 6093   2.386   7.065   3.620 -0.4885 -1.7911 -0.0643
33015SOL     OW 6094   6.804   7.981   2.024 -0.7234 -0.2638 -0.6853
33015SOL    HW1 6095   6.849   7.906   1.984 -1.0715 -0.9943  0.2683
33015SOL    HW2 6096   6.734   7.942   2.076  0.1113  0.6010  1.1660
33016SOL     OW 6097  10.410   1.936   7.502  0.6079 -0.4540 -0.1531
33016SOL    HW1 6098  10.346   2.004   7.480  0.2720 -0.3321  1.0975
33016SOL    HW2 6099  10.487   1.956   7.449 -0.7181 -1.2001 -2.4757
33017SOL     OW 6100   0.278  10.441  10.096  0.3010 -0.4502  0.5156
33017SOL    HW1 6101   0.307  10.435  10.005 -1.5821  0.9190 -0.2307
33017SOL    HW2 6102   0.196  10.392  10.099 -0.4171  0.7395  1.0928
33018SOL     OW 6103   4.276   5.734   8.198  0.5265 -0.1565 -0.4298
33018SOL    HW1 6104   4.309   5.771   8.116 -0.0433 -0.4419 -0.7927
33018SOL    HW2 6105   4.182   5.727   8.186  0.2496  1.0404  0.7651
33019SOL     OW 6106   6.539   2.859   4.040 -0.4191  0.2418  0.1052
33019SOL    HW1 6107   6.504   2.819   4.119 -0.6504 -0.3885 -0.3064
33019SOL    HW2 6108   6.634   2.848   4.048 -0.3764  1.0287  0.7361
33020SOL     OW 6109   1.680   0.288   7.944  0.3347  0.0369  0.0646
33020SOL    HW1 6110   1.754   0.228   7.951 -0.2009 -0.6661 -0.2470
33020SOL    HW2 6111   1.718   0.368   7.908  1.0141 -0.1822  0.2731
33021SOL     OW 6112   5.258   5.472   5.433  0.2628  0.3657 -0.2049
33021SOL    HW1 6113   5.306   5.519   5.364 -0.0269  0.3414 -0.4251
33021SOL    HW2 6114   5.186   5.429   5.387  0.0879  0.3178  0.1092
33022SOL     OW 6115  10.868   4.519   6.312 -0.0625 -0.2014  0.1090
33022SOL    HW1 6116  10.883   4.596   6.258  3.8790 -1.5899 -1.1380
33022SOL    HW2 6117  10.880   4.550   6.402 -0.1885  0.9251 -0.2455
33023SOL     OW 6118   6.224   9.697   7.246  0.1854 -0.1252  0.1485
33023SOL    HW1 6119   6.277   9.774   7.223  1.2668 -0.8749  0.0565
33023SOL    HW2 6120   6.252   9.674   7.335  0.5962 -0.9943 -0.1957
33024SOL     OW 6121   5.518   2.361  12.168 -0.0200  0.7033 -0.0672
33024SOL    HW1 6122   5.521   2.322  12.081 -0.5467  1.0435 -0.2453
33024SOL    HW2 6123   5.480   2.293  12.223 -0.8838  0.9257 -0.3658
33025SOL     OW 6124  12.452  11.872   9.035 -0.2629  0.0821 -0.0319
33025SOL    HW1 6125  12.446  11.868   9.130 -2.0226 -0.5402 -0.1359
33025SOL    HW2 6126  12.393  11.942   9.009 -0.3752 -0.2456 -0.7005
33026SOL     OW 6127   7.931   9.219  10.755 -0.0406  0.3562 -0.4190
33026SOL    HW1 6128   7.999   9.263  10.807  0.3002 -1.8464  1.1502
33026SOL    HW2 6129   7.965   9.131  10.741 -0.7878  0.4334 -3.2544
33027SOL     OW 6130   3.217  11.176   8.536  0.5177 -0.2832  0.3317
33027SOL    HW1 6131   3.126  11.205   8.536  0.8067  0.9083 -2.0962
33027SOL    HW2 6132   3.249  11.197   8.624 -0.8568  1.6197  0.4338
33028SOL     OW 6133  10.758   2.488   1.872 -0.3393  0.5829  0.0306
33028SOL    HW1 6134  10.782   2.513   1.961 -0.9508  2.6044 -0.3174
33028SOL    HW2 6135  10.663   2.490   1.871 -0.3391  1.6991 -0.9069
33029SOL     OW 6136  11.173   1.727  11.558  0.2686  0.6901  0.1897
33029SOL    HW1 6137  11.162   1.654  11.619 -0.6521  0.6279 -0.0337
33029SOL    HW2 6138  11.177   1.804  11.613 -3.0933  0.9219  0.3069
33030SOL     OW 6139   8.636   7.081   2.849  0.1568 -0.4054 -0.1623
33030SOL    HW1 6140   8.655   7.071   2.756 -1.2055  0.3864 -0.5542
33030SOL    HW2 6141   8.548   7.119   2.852  0.3736  0.0594  1.4313
33031SOL     OW 6142   7.294  10.184  12.325  0.6736 -0.1232 -0.3567
33031SOL    HW1 6143   7.239  10.259  12.302 -0.3878 -0.6974  0.2419
33031SOL    HW2 6144   7.355  10.175  12.251  0.3900  0.9181 -0.7289
33032SOL     OW 6145  10.111   7.853   1.605  0.0189 -0.1951 -0.4027
33032SOL    HW1 6146  10.194   7.809   1.626  0.6744  0.9386 -0.5421
33032SOL    HW2 6147  10.052   7.828   1.676  0.4974 -0.9714 -0.2673
33033SOL     OW 6148   8.199   7.072   0.281 -0.2008 -0.0819  0.3958
33033SOL    HW1 6149   8.139   7.010   0.323 -0.7081  0.5530  0.6326
33033SOL    HW2 6150   8.185   7.060   0.187  2.1013 -2.6715  0.2365
33034SOL     OW 6151   6.054   3.238   7.393 -0.8587  0.6642  0.2720
33034SOL    HW1 6152   6.003   3.176   7.445 -0.1217 -1.5261 -1.4432
33034SOL    HW2 6153   5.995   3.263   7.321 -0.6055  0.6951  0.0746
33035SOL     OW 6154  10.750   0.929   4.499  0.3134  0.4993  0.2500
33035SOL    HW1 6155  10.779   0.888   4.580  1.2043 -0.1270 -0.3641
33035SOL    HW2 6156  10.807   1.005   4.488 -0.0314  0.7792  0.3818
33036SOL     OW 6157  10.594   9.524   3.696  0.3852 -0.3218 -0.2825
33036SOL    HW1 6158  10.604   9.579   3.619 -2.3695  1.1896  0.3162
33036SOL    HW2 6159  10.558   9.441   3.662 -1.2746  0.5053 -0.6651
33037SOL     OW 6160   6.277   7.490   6.086  0.3666 -0.1235  0.0204
33037SOL    HW1 6161   6.369   7.502   6.062  0.5974 -1.4533  0.1653
33037SOL    HW2 6162   6.268   7.536   6.169  0.6709  0.7342 -0.4015
33038SOL     OW 6163  12.128   2.573   0.618 -0.7619 -0.7695 -0.5008
33038SOL    HW1 6164  12.048   2.610   0.656 -1.0993 -0.8904 -1.0828
33038SOL    HW2 6165  12.128   2.604   0.528  0.3235 -0.0333 -0.2556
33039SOL     OW 6166   7.443   3.777   7.829 -0.0547  0.6448 -0.0911
33039SOL    HW1 6167   7.390   3.789   7.750  0.0863  0.6515 -0.1849
33039SOL    HW2 6168   7.379   3.761   7.899 -0.2988  2.3549  0.1299
33040SOL     OW 6169   2.875   6.810  12.421 -0.2157  0.1866 -0.4875
33040SOL    HW1 6170   2.942   6.748  12.451 -0.3011 -0.7539 -2.1112
33040SOL    HW2 6171   2.915   6.854  12.346 -1.2163 -0.0189 -1.1658
33041SOL     OW 6172   4.622   5.019  10.917  0.2880  0.1502  0.2040
33041SOL    HW1 6173   4.605   5.054  11.004 -0.8764 -0.7383  0.3617
33041SOL    HW2 6174   4.577   5.079  10.858 -0.6081 -0.3419  0.3740
33042SOL     OW 6175   1.977   3.469   8.760  0.5529 -0.2147  0.0087
33042SOL    HW1 6176   2.055   3.495   8.810  0.4042  0.6069 -0.1797
33042SOL    HW2 6177   1.913   3.538   8.777  0.3862 -0.0875 -1.0448
33043SOL     OW 6178   7.476   3.030   7.302 -0.3072 -0.2409 -0.4735
33043SOL    HW1 6179   7.442   2.978   7.230 -0.8334  0.2185 -0.5661
33043SOL    HW2 6180   7.433   3.115   7.293 -1.7228 -0.6815  1.3594
33044SOL     OW 6181   5.390  11.305   4.503 -0.0223 -1.1605  0.0744
33044SOL    HW1 6182   5.309  11.329   4.549  0.1397  0.2574 -0.3155
33044SOL    HW2 6183   5.371  11.219   4.465 -1.0213 -1.2627  0.7476
33045SOL     OW 6184  11.187   4.491  10.714  0.2206 -0.6715 -0.0107
33045SOL    HW1 6185  11.180   4.437  10.635  0.1360 -1.4290  0.4968
33045SOL    HW2 6186  11.102   4.534  10.722  0.0799 -0.9264 -0.1100
33046SOL     OW 6187   3.751   2.522   5.987  0.6755  0.0980 -0.5350
33046SOL    HW1 6188   3.776   2.454   6.050 -0.5347 -0.3040 -0.4564
33046SOL    HW2 6189   3.830   2.575   5.977  0.8185  0.4141  1.6227
33047SOL     OW 6190   9.246   9.188   0.230  0.0582  0.5392  0.4444
33047SOL    HW1 6191   9.240   9.279   0.200 -0.9508  1.0774  2.1410
33047SOL    HW2 6192   9.262   9.195   0.324 -3.6755 -0.9245  1.3661
33048SOL     OW 6193   3.331   6.428   6.368  0.2030  0.2547  0.3637
33048SOL    HW1 6194   3.392   6.426   6.442 -0.4632  1.0658  0.9510
33048SOL    HW2 6195   3.251   6.466   6.404 -0.1922  0.4857 -0.7312
33049SOL     OW 6196   0.521   5.581   5.255  0.4290 -0.6181  0.3441
33049SOL    HW1 6197   0.432   5.604   5.281  0.5371 -1.7762  1.8900
33049SOL    HW2 6198   0.552   5.524   5.326  2.2399 -0.5839 -0.3883
33050SOL     OW 6199   7.754   2.521   2.455  0.7859  0.6121  0.4819
33050SOL    HW1 6200   7.698   2.585   2.499  0.0343 -1.6858  3.1308
33050SOL    HW2 6201   7.819   2.496   2.521  1.8758 -0.4337 -0.9090
33051SOL     OW 6202   9.235   8.215   7.564  0.0246  0.5413  0.1476
33051SOL    HW1 6203   9.281   8.133   7.547 -0.8416  0.0785 -0.0046
33051SOL    HW2 6204   9.239   8.225   7.659 -0.0625  0.2080  0.1872
33052SOL     OW 6205  10.198   3.700   6.583 -0.2593  0.3996 -0.0164
33052SOL    HW1 6206  10.202   3.607   6.563 -2.1836 -0.5539  3.2741
33052SOL    HW2 6207  10.132   3.736   6.523  0.4634 -0.2993 -1.2680
33053SOL     OW 6208  10.613   3.460   6.604 -0.8560 -0.4740 -0.3506
33053SOL    HW1 6209  10.682   3.445   6.539 -0.4835 -0.6991  0.0938
33053SOL    HW2 6210  10.534   3.473   6.552 -0.9129 -2.4091 -0.8251
33054SOL     OW 6211   2.644  10.098   0.228 -0.0450  0.4268  0.8193
33054SOL    HW1 6212   2.691  10.067   0.305  0.8377  0.4074  0.2789
33054SOL    HW2 6213   2.707  10.151   0.180 -0.0461 -0.8987 -0.7436
33055SOL     OW 6214   7.646  12.440  12.484  0.0260 -0.2564  0.6590
33055SOL    HW1 6215   7.669  12.418  12.394  0.0312 -0.8231  0.7959
33055SOL    HW2 6216   7.680  12.368  12.536  1.4553  0.8309  1.3004
33056SOL     OW 6217   5.738  11.929   3.429  0.8797 -0.0033 -1.2360
33056SOL    HW1 6218   5.650  11.905   3.457  1.0625  0.0926 -0.5788
33056SOL    HW2 6219   5.761  12.005   3.482  2.0556 -1.1126 -0.0864
33057SOL     OW 6220   3.176   9.615   2.028 -0.6942 -0.0236 -0.6213
33057SOL    HW1 6221   3.137   9.529   2.011 -0.2827 -0.4788  0.6453
33057SOL    HW2 6222   3.139   9.672   1.961 -0.3052 -1.3780 -2.0524
33058SOL     OW 6223   1.913   9.171   0.576  0.5911  0.4103 -0.2037
33058SOL    HW1 6224   2.007   9.189   0.577  0.7136  0.0733 -2.2301
33058SOL    HW2 6225   1.888   9.180   0.485 -1.1026 -0.7689  0.0985
33059SOL     OW 6226  12.438   8.038   7.848 -0.1740  0.0396  0.2362
33059SOL    HW1 6227  12.422   8.086   7.930 -1.2071  0.7836 -0.3775
33059SOL    HW2 6228  12.475   8.103   7.789 -0.3444 -0.2576 -0.1976
33060SOL     OW 6229  10.303   6.957   9.922 -0.2178  0.0423 -0.1422
33060SOL    HW1 6230  10.302   6.964  10.017 -0.2548 -0.6785 -0.0900
33060SOL    HW2 6231  10.390   6.986   9.897 -0.2557  0.3666  0.0988
33061SOL     OW 6232   7.742   7.158   1.377  0.8045 -0.6879  0.2158
33061SOL    HW1 6233   7.695   7.077   1.355  2.3055 -1.7127  0.6375
33061SOL    HW2 6234   7.675   7.214   1.415 -0.4865 -1.3321 -0.9869
33062SOL     OW 6235  11.174   1.784   7.295 -0.4498 -0.0219  0.2957
33062SOL    HW1 6236  11.122   1.863   7.303 -1.8114 -0.6535 -1.5649
33062SOL    HW2 6237  11.261   1.814   7.270 -0.6914  0.9293  0.5902
33063SOL     OW 6238   9.803   6.101  12.154  0.1069 -0.3483 -0.1753
33063SOL    HW1 6239   9.718   6.142  12.139 -0.6929 -1.2330  1.6390
33063SOL    HW2 6240   9.862   6.175  12.172 -0.8575  0.1730  1.0298
33064SOL     OW 6241   9.202   6.471  11.309  0.5974 -0.3019 -0.6367
33064SOL    HW1 6242   9.246   6.448  11.228 -1.0184 -1.7106 -1.1710
33064SOL    HW2 6243   9.147   6.395  11.330  1.1167 -0.0733  1.8989
33065SOL     OW 6244   6.531   9.396   8.167  0.2968  0.0447 -0.3105
33065SOL    HW1 6245   6.552   9.305   8.186 -0.6366 -0.4439 -1.5027
33065SOL    HW2 6246   6.612   9.433   8.132  0.4203 -0.6094 -0.7306
33066SOL     OW 6247   4.114  11.226   3.447 -0.2719  0.3008 -0.5702
33066SOL    HW1 6248   4.196  11.190   3.413  0.2195 -0.2551  1.1563
33066SOL    HW2 6249   4.120  11.320   3.429  1.3270  0.4647  0.6379
33067SOL     OW 6250   4.508  11.532   1.849  0.3042  0.2282 -0.4794
33067SOL    HW1 6251   4.417  11.521   1.822  0.4616 -0.0675 -0.8927
33067SOL    HW2 6252   4.504  11.536   1.945 -0.1076 -0.1293 -0.4821
33068SOL     OW 6253   4.627   1.376   3.325 -0.5846 -0.9129  0.2298
33068SOL    HW1 6254   4.672   1.358   3.242  2.3083  0.4233  1.3989
33068SOL    HW2 6255   4.624   1.291   3.369  1.4513 -0.9510  0.3738
33069SOL     OW 6256   9.582  11.549   9.962 -0.3616  0.5783  0.1486
33069SOL    HW1 6257   9.658  11.516   9.914  0.0789  0.4943  0.8779
33069SOL    HW2 6258   9.517  11.478   9.957 -0.1119  0.3490  0.1389
33070SOL     OW 6259   5.357   0.810   7.487  0.5880 -0.6955 -0.0470
33070SOL    HW1 6260   5.281   0.754   7.472 -0.0183 -0.2425  1.1448
33070SOL    HW2 6261   5.420   0.754   7.532 -0.1963 -0.3577  1.5592
33071SOL     OW 6262   1.689   8.810   3.371 -0.3318 -0.3982  0.1360
33071SOL    HW1 6263   1.712   8.888   3.422 -2.1040 -0.0432  0.4642
33071SOL    HW2 6264   1.767   8.791   3.319  0.1486  1.5761  0.0647
33072SOL     OW 6265   2.286   4.129  12.594 -0.5513 -0.5124  0.2018
33072SOL    HW1 6266   2.225   4.088  12.533 -1.9092 -0.1278  1.2356
33072SOL    HW2 6267   2.258   4.221  12.597  0.4946 -0.1850  0.2208
33073SOL     OW 6268  11.397  10.338   8.080  0.7673 -0.5893 -0.0898
33073SOL    HW1 6269  11.320  10.296   8.118  0.0962 -0.4369 -1.2223
33073SOL    HW2 6270  11.406  10.420   8.128  0.1407 -0.5493 -0.0335
33074SOL     OW 6271   7.565   0.880   3.016  0.5832 -0.5386  0.0527
33074SOL    HW1 6272   7.524   0.837   2.941  0.0351 -2.5677  1.4511
33074SOL    HW2 6273   7.494   0.928   3.058  0.2611 -1.6405  0.7978
33075SOL     OW 6274   4.011   3.710   7.141 -0.5450  0.0278  0.5882
33075SOL    HW1 6275   4.088   3.653   7.131 -0.5777 -0.0330  0.6801
33075SOL    HW2 6276   3.991   3.739   7.052  0.7603  1.5944  0.7497
33076SOL     OW 6277   3.858   8.409   4.812 -0.6303  0.3682 -0.1225
33076SOL    HW1 6278   3.775   8.376   4.846 -0.3212  1.1490  1.4412
33076SOL    HW2 6279   3.901   8.449   4.887 -0.3376  3.0710 -1.6154
33077SOL     OW 6280  12.043   9.128  10.404  0.3390  0.0540 -0.6451
33077SOL    HW1 6281  12.132   9.154  10.379  1.1618 -1.6295  0.3464
33077SOL    HW2 6282  12.024   9.053  10.348 -0.5613  0.5405 -1.0034
33078SOL     OW 6283   5.959  10.467   8.373  0.5521 -0.1424  0.1444
33078SOL    HW1 6284   5.957  10.377   8.405  0.5627  0.4046  1.7737
33078SOL    HW2 6285   5.986  10.460   8.281  2.5152 -1.6563  0.7785
33079SOL     OW 6286  12.004   0.676   9.613  0.6042  0.0231  0.1507
33079SOL    HW1 6287  12.026   0.588   9.581  3.0767  1.2227 -1.6989
33079SOL    HW2 6288  12.083   0.706   9.659  0.5444  2.0000 -0.9443
33080SOL     OW 6289  12.545   7.560   1.251 -0.0644  0.5596 -0.0222
33080SOL    HW1 6290  12.495   7.567   1.170  0.2124  0.3361 -0.2107
33080SOL    HW2 6291  12.507   7.627   1.308 -0.1753  0.8000 -0.3779
33081SOL     OW 6292  11.948   2.582  11.889 -0.3114  0.3135 -0.2449
33081SOL    HW1 6293  11.852   2.588  11.888 -0.2808  1.4076  0.7729
33081SOL    HW2 6294  11.972   2.572  11.797 -1.3654  0.8591 -0.6047
33082SOL     OW 6295   0.949   1.814   1.107  0.3075 -0.1989  0.0809
33082SOL    HW1 6296   1.036   1.816   1.068 -0.1169  0.4277 -0.8630
33082SOL    HW2 6297   0.964   1.788   1.198  1.4417 -0.4182 -0.1549
33083SOL     OW 6298   0.084   9.953   4.634 -0.4660 -0.0848  0.3877
33083SOL    HW1 6299   0.170   9.920   4.658 -0.4270 -1.3365 -1.3185
33083SOL    HW2 6300   0.025   9.879   4.648 -0.7568 -0.2140 -1.3534
33084SOL     OW 6301   1.853   1.536   8.345  0.0729 -0.3710  0.1766
33084SOL    HW1 6302   1.849   1.628   8.371 -0.3218  0.3679 -2.2058
33084SOL    HW2 6303   1.947   1.515   8.344  0.1479 -0.0987  1.0038
33085SOL     OW 6304   2.477   8.736   2.196  0.7879  0.3537 -0.1693
33085SOL    HW1 6305   2.459   8.734   2.290  1.8788  0.8608  0.0687
33085SOL    HW2 6306   2.401   8.780   2.158  0.3210  0.1123  0.4624
33086SOL     OW 6307   3.770   9.620  11.828 -0.5747  0.0231  0.4289
33086SOL    HW1 6308   3.741   9.553  11.889  1.3116 -0.0163  1.3479
33086SOL    HW2 6309   3.741   9.589  11.742  1.1731 -2.5884  0.6674
33087SOL     OW 6310   8.642  10.923  11.435  0.9490 -0.1297 -0.1680
33087SOL    HW1 6311   8.603  10.936  11.522  1.2520 -3.4324  0.5625
33087SOL    HW2 6312   8.595  10.985  11.379  1.1393  2.5405  2.3701
33088SOL     OW 6313   7.901   2.232   0.682 -0.1127 -0.2014  0.1795
33088SOL    HW1 6314   7.936   2.186   0.758  0.0649 -0.9182 -0.3185
33088SOL    HW2 6315   7.928   2.178   0.607  1.6729  1.6372 -0.6130
33089SOL     OW 6316   9.978  10.643   1.973 -0.0362  0.0768 -0.0230
33089SOL    HW1 6317  10.043  10.689   2.025 -0.1007 -0.7951  0.8519
33089SOL    HW2 6318  10.025  10.615   1.894  0.3755  0.3385  0.1294
33090SOL     OW 6319   5.063   2.148   5.849 -0.1585 -0.0958  0.8005
33090SOL    HW1 6320   5.086   2.064   5.808  0.1672 -0.2755  1.3326
33090SOL    HW2 6321   5.041   2.125   5.939  1.1745  0.5248  1.3203
33091SOL     OW 6322   0.445   3.840  12.475  0.0888  0.0559  0.4281
33091SOL    HW1 6323   0.415   3.749  12.478  0.6780 -0.2165 -0.9985
33091SOL    HW2 6324   0.424   3.875  12.561 -0.6102 -1.2860  0.8333
33092SOL     OW 6325   8.340   8.942   1.003  0.0292  0.7125  0.9122
33092SOL    HW1 6326   8.362   9.014   0.944 -0.4107  1.8935  2.1421
33092SOL    HW2 6327   8.334   8.982   1.090  0.4508 -0.9349  1.7512
33093SOL     OW 6328   0.825   7.422   6.650  0.2594 -0.5593  0.1870
33093SOL    HW1 6329   0.798   7.366   6.723  1.1308 -0.0819  0.8944
33093SOL    HW2 6330   0.920   7.410   6.645  0.3113  0.0395 -0.3437
33094SOL     OW 6331  12.251   8.645   3.713 -0.1997  0.5698  0.0596
33094SOL    HW1 6332  12.210   8.668   3.796 -0.4961  0.5859 -0.0867
33094SOL    HW2 6333  12.273   8.729   3.672  1.5085  0.5545  0.8667
33095SOL     OW 6334   7.183   4.641  11.438  0.2178  0.0413 -0.6214
33095SOL    HW1 6335   7.277   4.639  11.457  0.3436 -0.0824 -1.2252
33095SOL    HW2 6336   7.177   4.684  11.352 -0.3023  0.3355 -0.4416
33096SOL     OW 6337   3.419  11.951   7.934 -0.4989 -0.5510 -0.2503
33096SOL    HW1 6338   3.326  11.929   7.938 -0.6833  0.2748  0.4050
33096SOL    HW2 6339   3.462  11.887   7.992 -0.6117 -1.1199 -0.7885
33097SOL     OW 6340   9.687   2.120   3.905 -0.0433 -0.5785  0.3100
33097SOL    HW1 6341   9.682   2.130   4.000 -0.9098  1.2726  0.1221
33097SOL    HW2 6342   9.640   2.038   3.887  1.7391 -1.9372  1.5812
33098SOL     OW 6343  12.398   1.800   9.690 -0.7382 -0.3682  0.4176
33098SOL    HW1 6344  12.389   1.729   9.753  1.1030 -0.4197  0.6943
33098SOL    HW2 6345  12.434   1.759   9.611  0.4413  0.2132  0.6146
33099SOL     OW 6346   7.235   5.827  11.127 -0.7216 -0.2747  0.3137
33099SOL    HW1 6347   7.256   5.779  11.207 -0.4148 -3.3860 -1.4687
33099SOL    HW2 6348   7.320   5.863  11.099 -0.9377  1.3829  1.6196
33100SOL     OW 6349  10.817   1.092   2.256 -0.5793  0.3008 -0.3870
33100SOL    HW1 6350  10.821   1.185   2.280  2.7041  0.4671 -1.1185
33100SOL    HW2 6351  10.799   1.093   2.162 -1.0501  0.1479 -0.3022
33101SOL     OW 6352   9.794  10.489   9.235  0.1725 -0.1282  0.9217
33101SOL    HW1 6353   9.761  10.402   9.212 -2.6043  1.4388 -1.9323
33101SOL    HW2 6354   9.737  10.519   9.306 -0.2198  0.1058  0.5108
33102SOL     OW 6355   1.049   5.619   7.703 -0.0620  0.5066 -0.1697
33102SOL    HW1 6356   0.973   5.669   7.673  1.0059  3.5074  1.7271
33102SOL    HW2 6357   1.012   5.546   7.753 -1.6603  0.5298 -1.2452
33103SOL     OW 6358   8.001   4.244  10.803 -0.5487  0.2063 -0.1477
33103SOL    HW1 6359   8.068   4.175  10.801 -1.4235 -0.7137  0.7716
33103SOL    HW2 6360   8.027   4.300  10.876 -0.3443  0.3094 -0.2991
33104SOL     OW 6361   7.251   1.229   0.070  0.2845  0.0172 -0.0365
33104SOL    HW1 6362   7.255   1.325   0.073  0.4440  0.0184 -0.3158
33104SOL    HW2 6363   7.317   1.204   0.006 -0.1582 -0.2502 -0.3944
33105SOL     OW 6364   2.525   6.029   4.523 -0.4907 -0.5909 -0.3232
33105SOL    HW1 6365   2.476   6.004   4.444 -0.9644  1.1068 -0.6012
33105SOL    HW2 6366   2.614   5.998   4.506  0.0345  1.8836 -2.6735
33106SOL     OW 6367   3.526  11.065   0.636  0.1226 -0.0692 -0.0895
33106SOL    HW1 6368   3.461  11.131   0.659  0.8212  0.1146  1.5005
33106SOL    HW2 6369   3.532  11.010   0.714  0.1713 -1.5112 -1.0767
33107SOL     OW 6370  10.714   3.504   1.293 -1.0241  0.0238  0.3112
33107SOL    HW1 6371  10.688   3.550   1.213 -2.3396 -0.6596  0.3093
33107SOL    HW2 6372  10.650   3.434   1.302 -0.4796 -0.3466  1.5927
33108SOL     OW 6373   9.280   7.280   6.471 -0.3523  0.4701  0.3814
33108SOL    HW1 6374   9.261   7.297   6.563  0.8125  0.8572  0.5595
33108SOL    HW2 6375   9.319   7.361   6.438 -2.3940  0.9858 -0.9545
33109SOL     OW 6376   8.602  11.509   8.141  0.1503  0.3353 -0.2661
33109SOL    HW1 6377   8.543  11.534   8.070 -1.4727 -3.2654 -0.4082
33109SOL    HW2 6378   8.544  11.495   8.216  1.2216 -0.4303  0.4432
33110SOL     OW 6379   9.644   3.552   7.312  0.2813  0.2916  0.0930
33110SOL    HW1 6380   9.701   3.564   7.388  0.0071  1.5491  0.1042
33110SOL    HW2 6381   9.556   3.566   7.346  0.1187  0.3292 -0.3487
33111SOL     OW 6382   0.013   8.762   5.792 -1.0202 -0.4663  0.0536
33111SOL    HW1 6383   0.073   8.688   5.781  0.8117  0.9510 -0.0427
33111SOL    HW2 6384  -0.044   8.759   5.716 -1.5304 -2.2205  0.4549
33112SOL     OW 6385  11.034   9.974   9.078 -0.1876 -0.2653  0.1252
33112SOL    HW1 6386  11.015  10.054   9.030  2.8214 -1.0490 -2.7262
33112SOL    HW2 6387  10.967   9.912   9.049  0.3325 -0.1049 -1.5038
33113SOL     OW 6388   7.060   8.331   0.839 -1.2974 -0.1137  0.1818
33113SOL    HW1 6389   7.061   8.250   0.788 -0.5307 -0.0774  0.1212
33113SOL    HW2 6390   7.130   8.384   0.801 -0.4456 -0.2331  1.4902
33114SOL     OW 6391   0.666  11.447   9.294 -0.1720  0.0837 -0.1785
33114SOL    HW1 6392   0.681  11.428   9.202  0.8894 -1.8733  0.3485
33114SOL    HW2 6393   0.605  11.379   9.323  1.1054 -0.6151  1.0073
33115SOL     OW 6394   9.161   6.950   8.730 -0.1864 -0.1308 -0.1457
33115SOL    HW1 6395   9.216   6.968   8.654 -0.3602  0.7620 -0.0718
33115SOL    HW2 6396   9.213   6.888   8.782  0.1055 -0.4387 -0.7886
33116SOL     OW 6397   5.382  12.256  11.559  0.0009 -0.3718 -0.0054
33116SOL    HW1 6398   5.456  12.201  11.537  0.9821  0.7606  0.3255
33116SOL    HW2 6399   5.308  12.196  11.568  1.5621 -2.0536  3.1545
33117SOL     OW 6400   2.913   9.165  11.978 -0.0349  0.2898 -0.0089
33117SOL    HW1 6401   2.949   9.253  11.975  1.1908 -0.1669 -3.1194
33117SOL    HW2 6402   2.843   9.169  12.043  1.1688  3.0290  1.2685
33118SOL     OW 6403  10.503   6.875   8.235  0.1243 -0.1454 -0.8073
33118SOL    HW1 6404  10.558   6.908   8.306  0.4344  1.1805 -1.6281
33118SOL    HW2 6405  10.528   6.783   8.226  0.6258 -0.1315  0.2733
33119SOL     OW 6406   4.396   7.378  12.342 -0.1540 -0.4559  0.9929
33119SOL    HW1 6407   4.377   7.384  12.436 -0.4636 -0.0063  0.9041
33119SOL    HW2 6408   4.433   7.463  12.319 -0.1578 -0.5348  0.6918
33120SOL     OW 6409  10.345   9.900   5.037 -0.4351 -0.1127  0.0587
33120SOL    HW1 6410  10.291   9.955   4.981 -0.2949 -0.3670 -0.3312
33120SOL    HW2 6411  10.309   9.812   5.027  0.0619 -0.2897 -0.2280
33121SOL     OW 6412   1.221   3.477   7.740  0.2821  0.1206 -0.7819
33121SOL    HW1 6413   1.143   3.474   7.796  0.3093 -0.0200 -0.7525
33121SOL    HW2 6414   1.186   3.485   7.651  0.1980 -1.4343 -0.9111
33122SOL     OW 6415   8.518   6.748   3.313  0.1423  0.2653 -0.5071
33122SOL    HW1 6416   8.586   6.695   3.271  0.4511  0.0661  0.2239
33122SOL    HW2 6417   8.442   6.740   3.255  0.2576 -0.7864 -0.5453
33123SOL     OW 6418  11.640   7.471   7.566  0.0087  0.2622 -0.0872
33123SOL    HW1 6419  11.639   7.567   7.556  0.3780  0.2256 -0.4844
33123SOL    HW2 6420  11.732   7.449   7.574 -0.1533  0.1068  1.7365
33124SOL     OW 6421   8.245   8.190  11.392  0.9430 -0.2163  0.3925
33124SOL    HW1 6422   8.150   8.208  11.393  1.1656  1.4436 -1.4992
33124SOL    HW2 6423   8.284   8.268  11.431  1.5511 -1.0255  1.4438
33125SOL     OW 6424   0.670   5.029   6.683  0.5601  0.4201  0.6038
33125SOL    HW1 6425   0.677   5.081   6.603  0.0304  1.6249  1.3239
33125SOL    HW2 6426   0.731   5.069   6.744  0.4561 -0.0619  1.0370
33126SOL     OW 6427   5.435   1.296   7.746 -0.0898 -0.5023  0.9336
33126SOL    HW1 6428   5.354   1.276   7.699  0.8120  2.0935 -2.0736
33126SOL    HW2 6429   5.503   1.249   7.697  0.8861  2.3550 -0.7547
33127SOL     OW 6430   9.640   0.345   5.142 -0.4307 -0.1299 -0.1537
33127SOL    HW1 6431   9.698   0.396   5.198  0.4733  0.3552 -1.5042
33127SOL    HW2 6432   9.556   0.392   5.147 -0.7800 -0.8385  1.8037
33128SOL     OW 6433   9.973   5.829   2.720 -1.3869 -0.0199  0.0769
33128SOL    HW1 6434   9.988   5.910   2.671  0.3969  0.2467  0.9672
33128SOL    HW2 6435   9.995   5.852   2.811 -0.6904 -1.5428  0.3216
33129SOL     OW 6436   9.453   3.382  11.870 -0.1253 -0.0916 -0.4414
33129SOL    HW1 6437   9.547   3.398  11.879 -0.1939 -0.5049  1.4135
33129SOL    HW2 6438   9.432   3.323  11.942 -2.0446  0.9575 -0.0962
33130SOL     OW 6439   3.038   1.074   1.855  0.0389  0.1228  0.4656
33130SOL    HW1 6440   3.038   1.114   1.941 -1.1671  0.2306  0.4288
33130SOL    HW2 6441   3.051   1.147   1.794 -0.4609  0.2340  0.4892
33131SOL     OW 6442   3.324   1.585   3.463  0.6590 -0.7271  0.2891
33131SOL    HW1 6443   3.312   1.493   3.486  0.5097 -0.9580 -0.6832
33131SOL    HW2 6444   3.262   1.600   3.391  1.6092 -0.2156 -0.4462
33132SOL     OW 6445   4.071  10.960   4.017  0.0872  0.1156  0.4576
33132SOL    HW1 6446   4.090  10.876   4.060  2.6138  0.3308 -0.0784
33132SOL    HW2 6447   4.042  10.936   3.929 -0.2365 -0.2164  0.6520
33133SOL     OW 6448   4.162   5.401   9.563 -0.2659 -0.1455 -0.2461
33133SOL    HW1 6449   4.228   5.378   9.498 -0.0305  0.9883 -0.4166
33133SOL    HW2 6450   4.186   5.488   9.593 -0.8332 -0.3177  0.7822
33134SOL     OW 6451  11.538   3.211   0.075  0.5332 -0.1649 -0.2830
33134SOL    HW1 6452  11.612   3.249   0.123  0.7712 -1.1962  0.2019
33134SOL    HW2 6453  11.560   3.224  -0.017  1.6273 -0.9864 -0.1594
33135SOL     OW 6454   0.250  12.358   8.820  0.2184  0.0581  0.1283
33135SOL    HW1 6455   0.218  12.448   8.830  0.6692  0.1882  0.3809
33135SOL    HW2 6456   0.185  12.304   8.866 -0.2534  0.2122 -0.3409
33136SOL     OW 6457   0.774   0.490   8.219 -0.0822  0.1295 -0.5357
33136SOL    HW1 6458   0.865   0.460   8.212 -0.3258 -0.2476 -3.1650
33136SOL    HW2 6459   0.728   0.442   8.150 -2.1617  0.8044  0.3113
33137SOL     OW 6460   2.168   5.543   2.392 -0.3099  0.5856 -0.1768
33137SOL    HW1 6461   2.093   5.517   2.446  0.7167  1.5859  1.8137
33137SOL    HW2 6462   2.185   5.634   2.417  1.7711  0.2778 -0.3516
33138SOL     OW 6463   3.284   3.992   4.102  0.0873 -0.2579 -0.0920
33138SOL    HW1 6464   3.325   3.929   4.043 -2.2279 -2.4349  0.4384
33138SOL    HW2 6465   3.348   4.005   4.172  0.5990 -2.1283 -0.1698
33139SOL     OW 6466   6.971   2.399   5.387  0.9283  0.2817 -0.1074
33139SOL    HW1 6467   6.923   2.480   5.372 -0.8195 -0.7777 -0.6521
33139SOL    HW2 6468   7.015   2.381   5.304  0.0448 -0.0998 -0.5026
33140SOL     OW 6469   3.136  10.707   9.027 -0.0520 -0.4804  0.4034
33140SOL    HW1 6470   3.048  10.726   8.993  0.7694  2.7368 -0.2757
33140SOL    HW2 6471   3.142  10.756   9.109  0.9469 -1.1045  0.7283
33141SOL     OW 6472   4.418   1.890   5.974  0.0007 -0.2423 -0.5612
33141SOL    HW1 6473   4.469   1.967   5.948  0.1379  0.0845  0.6251
33141SOL    HW2 6474   4.477   1.839   6.030 -0.8095 -0.0568  0.5013
33142SOL     OW 6475   1.497   0.047   4.456  0.4748  0.0162 -0.0615
33142SOL    HW1 6476   1.454   0.070   4.374  0.1530 -1.0996 -0.2343
33142SOL    HW2 6477   1.462   0.108   4.520 -2.0572 -1.3598 -0.0182
33143SOL     OW 6478   0.258  10.533   5.881 -0.4101  0.0435 -0.1099
33143SOL    HW1 6479   0.270  10.623   5.850 -1.8689  0.7344  1.1858
33143SOL    HW2 6480   0.170  10.532   5.917 -0.8831 -2.2688 -1.1710
33144SOL     OW 6481   4.445   4.263   5.951  0.3341 -0.2245  0.4117
33144SOL    HW1 6482   4.437   4.201   6.023  1.7811 -0.8553  0.0633
33144SOL    HW2 6483   4.390   4.337   5.977 -0.3118 -1.0534  1.4783
33145SOL     OW 6484   0.363  10.850  12.263 -0.0431 -0.0372  0.4468
33145SOL    HW1 6485   0.399  10.938  12.249  0.6951 -0.3018  0.6719
33145SOL    HW2 6486   0.404  10.819  12.343  1.3981 -1.4542 -0.7742
33146SOL     OW 6487   7.390   8.374   3.654  0.1279 -0.1746 -0.3675
33146SOL    HW1 6488   7.375   8.319   3.732 -0.4679 -0.2898 -0.5565
33146SOL    HW2 6489   7.398   8.311   3.582 -3.2161 -0.0117 -1.0435
33147SOL     OW 6490   7.359   8.057   1.490  0.6289 -0.3723 -0.7242
33147SOL    HW1 6491   7.280   8.079   1.540  0.4323 -0.2928 -1.0662
33147SOL    HW2 6492   7.428   8.109   1.532  0.4022 -0.0519 -0.7411
33148SOL     OW 6493   1.599   7.483  11.312 -0.2929 -0.2531  0.0387
33148SOL    HW1 6494   1.667   7.491  11.378  0.8199 -0.1667 -1.0729
33148SOL    HW2 6495   1.523   7.528  11.349  1.0676  2.0195  0.2665
33149SOL     OW 6496  10.964   1.597   1.184 -0.0051 -0.5366  0.3659
33149SOL    HW1 6497  11.028   1.667   1.172  0.7347 -0.8874  1.9636
33149SOL    HW2 6498  10.936   1.574   1.096  0.8208  0.7826 -0.2604
33150SOL     OW 6499   0.922   9.080   5.605 -0.5781 -0.1937  0.3495
33150SOL    HW1 6500   0.843   9.127   5.580 -0.6967  0.5426  1.9864
33150SOL    HW2 6501   0.994   9.135   5.574 -0.7002 -0.3424 -0.2088
33151SOL     OW 6502   8.260  10.786   1.454  0.4850 -0.3765  0.5956
33151SOL    HW1 6503   8.273  10.830   1.538  0.8987 -0.3759  0.5350
33151SOL    HW2 6504   8.246  10.857   1.392  0.6403 -0.3547  0.5856
33152SOL     OW 6505   7.042  11.575  12.450  0.0307 -0.0776 -0.1310
33152SOL    HW1 6506   7.041  11.535  12.364  0.4201  1.5646 -0.9440
33152SOL    HW2 6507   7.080  11.509  12.507 -1.1136 -1.5439 -1.0126
33153SOL     OW 6508   2.459  10.135   9.375  0.4848  0.2851 -0.2619
33153SOL    HW1 6509   2.488  10.075   9.306  1.2579 -0.2335  0.4957
33153SOL    HW2 6510   2.489  10.095   9.457 -1.0655  0.4998  0.4611
33154SOL     OW 6511   0.304   8.846  12.017  0.6597 -0.0336  0.3557
33154SOL    HW1 6512   0.395   8.829  12.041  0.7217 -1.9137 -1.0121
33154SOL    HW2 6513   0.282   8.778  11.954 -1.1800  1.4080 -0.6793
33155SOL     OW 6514   8.292   2.278   2.286 -0.3940  0.2303 -0.4632
33155SOL    HW1 6515   8.287   2.373   2.284 -1.0338  0.2592  1.1460
33155SOL    HW2 6516   8.385   2.258   2.273 -0.0846  1.1350  0.2812
33156SOL     OW 6517   2.991   4.474   3.978  0.3803 -0.1927 -0.3168
33156SOL    HW1 6518   3.014   4.384   3.954 -3.4757 -1.1350 -1.3275
33156SOL    HW2 6519   2.958   4.466   4.068 -1.0066 -0.0800 -0.7925
33157SOL     OW 6520   2.995  11.812   0.325 -0.0488 -0.2657  0.3008
33157SOL    HW1 6521   3.069  11.804   0.385  0.3428 -2.3372 -0.3661
33157SOL    HW2 6522   2.923  11.843   0.380  0.7613 -0.3404  1.4447
33158SOL     OW 6523   0.056   6.123   9.813 -0.0987 -0.1872 -0.2074
33158SOL    HW1 6524   0.002   6.045   9.802  1.1201 -1.1727  0.5072
33158SOL    HW2 6525   0.048   6.145   9.906  0.0882  0.1513 -0.2689
33159SOL     OW 6526   4.270   9.891   5.076  0.1145 -0.1751  0.1395
33159SOL    HW1 6527   4.257   9.838   5.154  0.5933  0.0713  0.3865
33159SOL    HW2 6528   4.326   9.838   5.020  1.0555  0.2933  0.6212
33160SOL     OW 6529  12.076  10.132   4.942  0.4631 -0.1410  0.2749
33160SOL    HW1 6530  12.128  10.119   4.863  0.4047 -1.6199  0.4489
33160SOL    HW2 6531  12.100  10.220   4.972  1.9271 -0.2928 -0.3432
33161SOL     OW 6532   7.217   8.485   0.690 -0.2054  0.4007 -0.4926
33161SOL    HW1 6533   7.286   8.470   0.754 -1.2860  0.1140  0.6287
33161SOL    HW2 6534   7.262   8.524   0.615  0.8152  2.6967  1.2031
33162SOL     OW 6535  11.493   0.141   5.159  0.1364 -0.0752 -0.0730
33162SOL    HW1 6536  11.512   0.047   5.159 -0.7735 -0.2878  1.2649
33162SOL    HW2 6537  11.574   0.182   5.129  0.3487 -1.2993 -1.2876
33163SOL     OW 6538   9.656   7.805  11.388  0.5074  0.9008 -0.2664
33163SOL    HW1 6539   9.706   7.732  11.352  1.0925  0.5908  1.1354
33163SOL    HW2 6540   9.682   7.810  11.480 -1.3388  1.3307  0.2748
33164SOL     OW 6541   3.799  11.799  10.600  0.0477  0.0373  0.2689
33164SOL    HW1 6542   3.886  11.828  10.573  1.1893 -0.7285  2.7544
33164SOL    HW2 6543   3.812  11.709  10.632 -1.7596 -0.2755  0.2699
33165SOL     OW 6544   0.930   0.798   5.561  0.3096  0.1042 -0.0995
33165SOL    HW1 6545   0.916   0.731   5.494 -0.6287 -0.2987  0.4783
33165SOL    HW2 6546   0.955   0.748   5.639  1.8851  0.6036 -0.2517
33166SOL     OW 6547  10.624   0.106   9.476 -0.1648  0.0815  0.7907
33166SOL    HW1 6548  10.643   0.143   9.390 -1.5774  0.0476  0.4333
33166SOL    HW2 6549  10.645   0.013   9.469 -2.3807 -0.4018 -0.2715
33167SOL     OW 6550  11.977   7.542   2.471 -0.5055 -0.0090  0.1402
33167SOL    HW1 6551  12.035   7.569   2.400 -0.5695  0.7221  0.3620
33167SOL    HW2 6552  12.029   7.553   2.550 -0.6991 -0.0713  0.2768
33168SOL     OW 6553  12.060   1.216   6.930 -0.5304 -0.0745  0.2635
33168SOL    HW1 6554  12.022   1.138   6.970 -0.1021 -0.7705 -0.6484
33168SOL    HW2 6555  12.145   1.187   6.897  0.2601  1.1355  1.1436
33169SOL     OW 6556  10.849   3.071   3.185 -0.3474 -0.0653  0.3437
33169SOL    HW1 6557  10.777   3.043   3.128 -1.4527 -0.6640  1.9541
33169SOL    HW2 6558  10.918   3.099   3.125 -0.5416 -2.8493 -1.3592
33170SOL     OW 6559   1.470   5.439  12.376 -0.0003 -0.2513 -0.3481
33170SOL    HW1 6560   1.410   5.465  12.445  0.9205 -2.9331  1.6378
33170SOL    HW2 6561   1.425   5.367  12.331  0.2603  0.1005 -1.1874
33171SOL     OW 6562  11.809   2.145   0.582 -0.3615 -0.2742 -0.0416
33171SOL    HW1 6563  11.903   2.159   0.572 -0.4663  1.0167  0.5880
33171SOL    HW2 6564  11.769   2.229   0.560 -1.3930 -0.8334 -0.4168
33172SOL     OW 6565   1.497   9.399   7.122  0.7109  0.3648  0.1244
33172SOL    HW1 6566   1.476   9.378   7.213  0.9593  1.6210  0.5014
33172SOL    HW2 6567   1.428   9.460   7.095  1.8287  1.7355  0.2228
33173SOL     OW 6568   6.800   8.999  10.090  0.8143 -0.1780 -0.4732
33173SOL    HW1 6569   6.750   9.023  10.168  1.4638 -3.5391  1.1530
33173SOL    HW2 6570   6.736   9.005  10.018 -0.9510 -0.8584  0.9569
33174SOL     OW 6571   9.236   3.144   9.990 -0.1680 -0.1014  0.8501
33174SOL    HW1 6572   9.230   3.207   9.918  0.1600 -2.4919 -1.4192
33174SOL    HW2 6573   9.329   3.123   9.996 -0.3304 -0.7288  1.2397
33175SOL     OW 6574  10.412   7.622  12.190 -0.1708 -0.0305 -0.4422
33175SOL    HW1 6575  10.362   7.541  12.184 -0.8841  0.4550 -1.2972
33175SOL    HW2 6576  10.390   7.670  12.110  0.3394  0.9500 -0.0146
33176SOL     OW 6577   7.876   7.423   8.904 -0.0410 -0.0750 -0.1052
33176SOL    HW1 6578   7.810   7.411   8.835  1.3236  0.6373 -1.5997
33176SOL    HW2 6579   7.934   7.491   8.870  0.9714 -0.0548  1.5599
33177SOL     OW 6580   1.425   1.648   3.099 -0.2101  0.3687 -0.0634
33177SOL    HW1 6581   1.373   1.726   3.080  0.1038  0.5259 -0.2998
33177SOL    HW2 6582   1.477   1.634   3.019  1.0293  0.9588  0.6049
33178SOL     OW 6583   1.530   6.972   5.270 -0.3243 -0.4076 -0.5091
33178SOL    HW1 6584   1.589   7.044   5.293 -2.4803  1.1346  0.5647
33178SOL    HW2 6585   1.507   6.990   5.178 -0.9471  0.4140 -0.2136
33179SOL     OW 6586   0.498  11.495  12.304  0.4178  0.4190 -0.2307
33179SOL    HW1 6587   0.508  11.536  12.390  2.1373 -0.9978  0.2944
33179SOL    HW2 6588   0.569  11.431  12.299 -1.1271 -1.2955 -1.6988
33180SOL     OW 6589   2.535   3.932   0.818  0.1857 -0.3393  0.5617
33180SOL    HW1 6590   2.582   4.006   0.778  0.2413  0.0427  1.3292
33180SOL    HW2 6591   2.448   3.966   0.836  0.0712 -0.6004  0.4977
33181SOL     OW 6592   6.110   3.780   2.301 -0.0120 -0.6634 -0.1499
33181SOL    HW1 6593   6.042   3.786   2.368  0.0159  1.4084 -0.2564
33181SOL    HW2 6594   6.192   3.769   2.350 -0.0958 -0.1200  0.1112
33182SOL     OW 6595   9.890   4.522  10.373  0.1172  0.2580  0.4434
33182SOL    HW1 6596   9.974   4.566  10.361  0.8352 -1.5839 -2.1491
33182SOL    HW2 6597   9.904   4.464  10.448  0.0250  2.3073  2.1275
33183SOL     OW 6598   4.347  12.492   8.913  0.3312  0.3910  0.0692
33183SOL    HW1 6599   4.353  12.586   8.896  0.3656  0.1369 -1.3931
33183SOL    HW2 6600   4.253  12.476   8.923  0.1643  0.3214 -1.3870
33184SOL     OW 6601   3.204   7.415   0.739  0.2275 -0.0712 -0.0071
33184SOL    HW1 6602   3.131   7.377   0.788  0.3670  1.4619  1.4912
33184SOL    HW2 6603   3.174   7.416   0.648 -1.4107  0.0313  0.5022
33185SOL     OW 6604   8.541   1.488   5.736 -0.3242 -0.1638 -0.2443
33185SOL    HW1 6605   8.494   1.568   5.763 -1.1937 -0.6076 -0.4041
33185SOL    HW2 6606   8.580   1.455   5.817 -1.7905 -0.7523  0.2527
33186SOL     OW 6607  12.199   5.773  11.216 -0.1008 -0.6081 -0.0448
33186SOL    HW1 6608  12.177   5.863  11.238 -0.1391 -0.9510  1.4584
33186SOL    HW2 6609  12.186   5.767  11.121 -2.6349  0.2752  0.1650
33187SOL     OW 6610   5.098   5.849   4.708  0.0660  0.4217 -0.4899
33187SOL    HW1 6611   5.173   5.792   4.717 -1.3227 -1.2550  1.5996
33187SOL    HW2 6612   5.023   5.790   4.704 -1.4502  2.0127  1.8894
33188SOL     OW 6613   8.489   4.964   6.080  0.6442  0.0704  0.4651
33188SOL    HW1 6614   8.584   4.976   6.082  0.7150 -0.5014  1.0884
33188SOL    HW2 6615   8.468   4.953   5.988  0.6346  4.0692 -0.1552
33189SOL     OW 6616   8.050   6.636   0.795  0.1607  0.0431 -0.0610
33189SOL    HW1 6617   8.087   6.598   0.715  0.4775  0.3074 -0.0410
33189SOL    HW2 6618   8.062   6.567   0.861  1.2879  0.3967  0.1191
33190SOL     OW 6619   1.870   5.876   5.757 -0.4906 -0.0235 -0.1395
33190SOL    HW1 6620   1.837   5.936   5.824 -2.8365  0.3856 -1.5470
33190SOL    HW2 6621   1.791   5.836   5.719  0.6335  0.3865 -3.2069
33191SOL     OW 6622   5.645   5.108   5.157 -0.3845  0.0208 -0.1097
33191SOL    HW1 6623   5.610   5.051   5.225 -0.5779 -0.4009 -0.5565
33191SOL    HW2 6624   5.707   5.054   5.108  1.7283  1.0442  1.2946
33192SOL     OW 6625   7.150   3.316   4.141 -0.7403 -0.3287 -0.5710
33192SOL    HW1 6626   7.061   3.283   4.155 -1.1669  1.3141  1.1040
33192SOL    HW2 6627   7.190   3.314   4.228  0.5695 -0.1931 -1.1441
33193SOL     OW 6628   1.811   8.475  11.919 -0.1984  0.1265  0.4183
33193SOL    HW1 6629   1.840   8.527  11.844 -2.0591 -1.3075 -1.4082
33193SOL    HW2 6630   1.803   8.538  11.991 -0.8348  2.0615 -1.2696
33194SOL     OW 6631   1.977   2.223   9.143 -0.5091 -0.5450 -0.2466
33194SOL    HW1 6632   1.918   2.273   9.199  0.3948  0.3682 -0.0713
33194SOL    HW2 6633   2.062   2.265   9.154 -0.0667 -1.0860 -1.3966
33195SOL     OW 6634   9.638   4.555   7.794 -0.1774 -0.7051  0.7335
33195SOL    HW1 6635   9.728   4.541   7.765  0.1962  1.6025  0.5980
33195SOL    HW2 6636   9.630   4.503   7.874  0.8893 -1.8622  0.1087
33196SOL     OW 6637   0.229   8.655  11.330 -0.0345 -0.4712 -0.4693
33196SOL    HW1 6638   0.262   8.745  11.321  1.3010 -1.0541 -1.7814
33196SOL    HW2 6639   0.291   8.612  11.388 -0.3296 -0.7079 -0.3270
33197SOL     OW 6640  12.397   3.181   3.289 -0.1267  0.2053 -0.3289
33197SOL    HW1 6641  12.480   3.181   3.243  1.4451  0.8625  2.3054
33197SOL    HW2 6642  12.393   3.095   3.332 -1.1233 -0.0594 -0.9250
33198SOL     OW 6643   5.527  10.942   7.568 -0.3806 -0.1056 -0.2273
33198SOL    HW1 6644   5.529  11.035   7.544  0.7006 -0.2689 -0.8439
33198SOL    HW2 6645   5.557  10.897   7.490 -1.1627 -1.0109 -0.0192
33199SOL     OW 6646  10.372   8.454   8.555 -0.1668 -0.2680  0.3338
33199SOL    HW1 6647  10.449   8.447   8.612 -0.9165  0.3040  1.4702
33199SOL    HW2 6648  10.367   8.546   8.533 -1.7165  0.1106  2.0527
33200SOL     OW 6649   7.915  12.218  11.072  0.1073  0.2847 -0.1733
33200SOL    HW1 6650   7.962  12.284  11.122  1.1472 -0.8805  0.4320
33200SOL    HW2 6651   7.915  12.140  11.128 -0.0033 -0.6107 -1.3746
33201SOL     OW 6652   0.233  10.974  11.339 -0.0659 -0.1012 -0.1012
33201SOL    HW1 6653   0.143  10.947  11.326 -0.0667  0.2143 -0.7631
33201SOL    HW2 6654   0.249  10.959  11.433 -0.3973 -1.3405 -0.2231
33202SOL     OW 6655   5.127   1.858   1.880  0.3701  0.4557  0.0915
33202SOL    HW1 6656   5.088   1.773   1.861 -0.0286  0.4247  0.9861
33202SOL    HW2 6657   5.054   1.914   1.905  0.7496  0.7438  0.5859
33203SOL     OW 6658  11.834   9.751   0.178 -0.0411 -0.2598  0.0442
33203SOL    HW1 6659  11.902   9.775   0.241  2.2724 -1.0202 -1.9925
33203SOL    HW2 6660  11.849   9.809   0.103 -1.5531 -0.5752 -0.5496
33204SOL     OW 6661  11.773   7.146   9.018  0.1013 -0.4347  0.3191
33204SOL    HW1 6662  11.708   7.097   8.968  1.6335 -1.7131 -0.5359
33204SOL    HW2 6663  11.779   7.231   8.974 -0.4506 -0.5795 -0.0371
33205SOL     OW 6664  11.125   8.829  11.147 -0.0296  0.1009  0.5764
33205SOL    HW1 6665  11.062   8.887  11.104 -0.1351  0.2440  0.9182
33205SOL    HW2 6666  11.196   8.888  11.174 -0.3134  0.1430  1.2641
33206SOL     OW 6667   0.946  12.488  12.256  0.4252  0.0918 -0.5529
33206SOL    HW1 6668   1.023  12.540  12.278  0.8009 -0.8132  0.3483
33206SOL    HW2 6669   0.980  12.419  12.198  0.1739  0.0780 -0.6860
33207SOL     OW 6670  10.011  12.188   4.183 -0.5222 -0.5251 -0.2115
33207SOL    HW1 6671   9.965  12.271   4.198 -0.6354 -0.5004 -0.6720
33207SOL    HW2 6672   9.948  12.135   4.134 -0.0066 -0.4330 -0.9917
33208SOL     OW 6673  12.467  10.899   7.535  0.1426  0.5117  0.4567
33208SOL    HW1 6674  12.527  10.874   7.464  0.1942 -0.6077  0.8751
33208SOL    HW2 6675  12.422  10.817   7.558 -1.3207  1.2720  0.3639
33209SOL     OW 6676   0.303   6.372   8.635  0.1570 -0.2356  0.5133
33209SOL    HW1 6677   0.233   6.324   8.680 -1.0628  0.9033 -0.0828
33209SOL    HW2 6678   0.316   6.451   8.687  0.5416 -0.1296  0.2582
33210SOL     OW 6679   8.256  11.551   8.156  0.0094 -0.8874  0.9746
33210SOL    HW1 6680   8.309  11.533   8.234 -0.0022  1.6345  1.6747
33210SOL    HW2 6681   8.179  11.597   8.190 -0.6915 -1.0040 -0.4028
33211SOL     OW 6682   4.542   7.877   0.355 -0.3426  0.0090 -0.0846
33211SOL    HW1 6683   4.460   7.899   0.398 -1.0224 -0.4196 -1.1305
33211SOL    HW2 6684   4.598   7.845   0.426 -0.8276  0.9491  0.7473
33212SOL     OW 6685   5.280  12.102   8.398 -0.2466  0.0456 -0.6484
33212SOL    HW1 6686   5.232  12.166   8.346 -0.5754  0.6907  0.4191
33212SOL    HW2 6687   5.221  12.027   8.404 -1.2589  0.9072  0.8231
33213SOL     OW 6688  10.914   2.786  11.667  0.5563 -0.1917 -0.0951
33213SOL    HW1 6689  11.008   2.787  11.684  0.3332  1.2112  1.2894
33213SOL    HW2 6690  10.887   2.696  11.687  1.4262 -0.3352  0.4835
33214SOL     OW 6691  11.150   4.133  10.039  0.4123  0.4714 -0.8227
33214SOL    HW1 6692  11.074   4.088  10.076  1.2094  0.3895  0.7892
33214SOL    HW2 6693  11.114   4.213  10.000 -0.3882  1.0083  0.9201
33215SOL     OW 6694   0.198   2.905   7.232 -0.1327 -0.1597  0.3893
33215SOL    HW1 6695   0.138   2.969   7.270  0.2633 -0.1205  0.9477
33215SOL    HW2 6696   0.285   2.943   7.243  0.2403 -1.3573  1.9334
33216SOL     OW 6697   4.415  10.012  12.504  0.1459 -0.2942 -0.0973
33216SOL    HW1 6698   4.502   9.971  12.511  0.2665  0.0154  0.2441
33216SOL    HW2 6699   4.384   9.986  12.418  1.5270  1.4278 -1.1922
33217SOL     OW 6700   1.760   4.476   3.094 -0.5143  0.5148  0.0787
33217SOL    HW1 6701   1.670   4.451   3.116 -0.0517 -0.5243  0.9000
33217SOL    HW2 6702   1.772   4.447   3.003 -1.0216  0.6949 -0.0463
33218SOL     OW 6703   0.920   8.499   1.007 -0.5521  0.1020 -0.4939
33218SOL    HW1 6704   0.950   8.519   1.095 -0.5356 -0.0423 -0.4673
33218SOL    HW2 6705   0.842   8.554   0.995 -0.6955 -0.0589 -0.3014
33219SOL     OW 6706  11.151   5.082  10.053  0.0396 -0.0712  0.1059
33219SOL    HW1 6707  11.090   5.118  10.116  1.1102 -0.5463  1.4703
33219SOL    HW2 6708  11.237   5.108  10.085  0.5880  0.3626 -1.6148
33220SOL     OW 6709   3.358   5.322   1.399  0.1037 -0.3006  0.2327
33220SOL    HW1 6710   3.312   5.384   1.342 -0.1875 -0.9113 -0.2136
33220SOL    HW2 6711   3.295   5.302   1.468  0.1243 -0.2558  0.2646
33221SOL     OW 6712  10.334  11.913   5.883 -0.7789  0.1398 -0.3121
33221SOL    HW1 6713  10.354  11.863   5.961  0.6427  3.1074  1.4021
33221SOL    HW2 6714  10.419  11.928   5.841 -1.2452  0.5231 -1.1625
33222SOL     OW 6715   8.081   5.704   9.118  0.4983  0.7782  0.4198
33222SOL    HW1 6716   8.086   5.800   9.128  2.4948  0.8125 -0.3844
33222SOL    HW2 6717   8.102   5.671   9.206  0.8661  1.0876  0.4537
33223SOL     OW 6718   9.826  10.692   5.833 -0.6421 -0.1836 -0.1836
33223SOL    HW1 6719   9.764  10.623   5.810 -0.5605 -0.9552  1.7576
33223SOL    HW2 6720   9.901  10.645   5.871 -0.4803  0.9530  0.9678
33224SOL     OW 6721  10.643  10.867   0.896  0.1324  0.2688 -0.3610
33224SOL    HW1 6722  10.701  10.831   0.829  0.8532 -0.1102  0.4439
33224SOL    HW2 6723  10.587  10.793   0.920  1.2439 -0.2057  0.8965
33225SOL     OW 6724   2.220   2.998   7.995 -0.2820  0.4144 -0.0178
33225SOL    HW1 6725   2.163   2.932   8.035  0.0451  0.7721  1.0875
33225SOL    HW2 6726   2.278   2.949   7.938 -2.6123  0.1588 -2.3884
33226SOL     OW 6727   2.897   7.242   2.561 -0.0276  0.4233 -0.0566
33226SOL    HW1 6728   2.978   7.199   2.533 -0.2923  0.4923 -0.9468
33226SOL    HW2 6729   2.921   7.288   2.642  1.5466  2.6424 -1.6541
33227SOL     OW 6730   2.845  11.115   7.654  0.0739  0.3511 -0.0620
33227SOL    HW1 6731   2.821  11.202   7.684  1.1587  1.0374 -1.0849
33227SOL    HW2 6732   2.785  11.096   7.583 -0.1563  0.2583  0.1548
33228SOL     OW 6733   8.751   2.207   3.826 -0.0226 -0.1476 -0.1224
33228SOL    HW1 6734   8.845   2.227   3.827 -0.3846  1.7890 -0.9466
33228SOL    HW2 6735   8.712   2.277   3.774 -2.0780 -0.3490  1.0553
33229SOL     OW 6736  10.175   0.739   8.332 -0.9796 -0.2451  0.1658
33229SOL    HW1 6737  10.270   0.728   8.338 -1.0497 -3.2644 -1.6106
33229SOL    HW2 6738  10.161   0.786   8.250 -0.9944 -1.0928 -0.3352
33230SOL     OW 6739   5.505  12.198   1.863 -0.7981 -0.2402 -0.0637
33230SOL    HW1 6740   5.475  12.258   1.932 -1.3922 -0.9780  0.3295
33230SOL    HW2 6741   5.425  12.168   1.821 -0.8234 -3.1402  1.7582
33231SOL     OW 6742   3.305   5.636   2.782 -0.2912  0.3005 -0.1117
33231SOL    HW1 6743   3.392   5.620   2.746 -0.8947 -1.2310 -0.9848
33231SOL    HW2 6744   3.281   5.723   2.750  0.6845  0.4903 -0.3432
33232SOL     OW 6745   2.456   3.608   9.671 -0.6060  0.0236 -0.8434
33232SOL    HW1 6746   2.435   3.520   9.703 -0.7060  0.6651  0.9646
33232SOL    HW2 6747   2.370   3.649   9.655 -0.5589 -0.2612 -1.9371
33233SOL     OW 6748  12.573   3.775   3.992 -0.4440  0.0797 -0.2368
33233SOL    HW1 6749  12.565   3.794   4.086 -0.8949 -0.6887 -0.1102
33233SOL    HW2 6750  12.662   3.743   3.982 -0.8740 -1.3228  0.2184
33234SOL     OW 6751   1.902   5.355   4.703 -0.0854  0.2941  0.5028
33234SOL    HW1 6752   1.861   5.367   4.618 -0.7512 -0.8843  0.6335
33234SOL    HW2 6753   1.851   5.285   4.745  1.5050 -0.6069  1.0344
33235SOL     OW 6754   9.207   9.578  12.111 -0.0550  0.3305 -0.2239
33235SOL    HW1 6755   9.258   9.540  12.182 -0.4994 -1.2481 -0.7193
33235SOL    HW2 6756   9.253   9.551  12.032  1.4257  3.4744 -0.5988
33236SOL     OW 6757   7.359   7.682   9.782  0.5530 -0.3047 -0.4359
33236SOL    HW1 6758   7.285   7.620   9.783  0.9396 -0.7839 -0.9435
33236SOL    HW2 6759   7.355   7.725   9.867 -1.8685  1.5517 -1.3809
33237SOL     OW 6760   8.407   4.800   2.486 -0.1473  0.3154  0.3047
33237SOL    HW1 6761   8.395   4.746   2.408 -0.9735  1.3561 -0.3206
33237SOL    HW2 6762   8.327   4.852   2.491  0.0141  0.4649  1.6995
33238SOL     OW 6763   5.000   1.375   8.924  0.0218 -0.1394 -0.3270
33238SOL    HW1 6764   4.993   1.302   8.985  1.0293 -0.5000 -0.6291
33238SOL    HW2 6765   4.914   1.418   8.928  0.4227  0.5534  2.1979
33239SOL     OW 6766   5.850   1.803   1.635  0.7738  0.0280 -0.0189
33239SOL    HW1 6767   5.838   1.784   1.542  1.0516  1.2745 -0.3304
33239SOL    HW2 6768   5.761   1.809   1.670  0.6564  0.0137 -0.3113
33240SOL     OW 6769   3.928   0.718   9.922 -0.4424 -0.0949 -0.2048
33240SOL    HW1 6770   3.840   0.692   9.947 -0.5252 -0.1358 -0.5343
33240SOL    HW2 6771   3.948   0.793   9.979  0.3897 -1.7582  1.8428
33241SOL     OW 6772   8.640   1.654   2.610  0.1938  0.2467  0.0233
33241SOL    HW1 6773   8.628   1.728   2.670  0.1051  0.7408 -0.5943
33241SOL    HW2 6774   8.617   1.577   2.662 -1.1316  0.7753  0.2482
33242SOL     OW 6775   1.610   1.949  10.862 -0.1839  0.0065 -0.0506
33242SOL    HW1 6776   1.525   1.914  10.889  0.0763  0.9430  2.1818
33242SOL    HW2 6777   1.589   2.010  10.792 -0.9680 -2.0874 -1.7625
33243SOL     OW 6778   6.707   6.104  11.031 -0.1253 -0.1989 -0.2357
33243SOL    HW1 6779   6.765   6.047  11.081 -1.7484 -1.2867  0.4837
33243SOL    HW2 6780   6.766   6.157  10.977  1.4801 -1.7380 -0.0723
33244SOL     OW 6781  12.360   0.244   6.011  0.0768 -0.6442 -0.2825
33244SOL    HW1 6782  12.320   0.166   6.050 -1.4699 -0.1024 -0.7102
33244SOL    HW2 6783  12.403   0.288   6.084 -1.7675 -0.2639  0.6395
33245SOL     OW 6784  11.425   3.282   2.288 -0.3058  0.2273  0.2801
33245SOL    HW1 6785  11.451   3.247   2.203  1.0148  2.5600 -0.3579
33245SOL    HW2 6786  11.455   3.217   2.351  1.4213 -0.1450 -0.8704
33246SOL     OW 6787  10.869   9.183   0.272 -0.0240  0.1256 -0.0393
33246SOL    HW1 6788  10.823   9.260   0.307 -1.4981 -1.3242  1.4193
33246SOL    HW2 6789  10.911   9.144   0.349  0.6527 -0.5749 -0.7498
33247SOL     OW 6790   7.750   0.850   9.776  0.5661  0.2772 -0.3408
33247SOL    HW1 6791   7.784   0.912   9.712 -1.6525  1.4505 -0.5101
33247SOL    HW2 6792   7.658   0.840   9.752  0.5025 -1.9257  0.6323
33248SOL     OW 6793   1.389   0.473   0.563 -0.0036 -0.7130 -0.5529
33248SOL    HW1 6794   1.448   0.535   0.519 -0.4303  0.4988  0.5368
33248SOL    HW2 6795   1.439   0.391   0.565  0.9352 -0.1849 -1.2207
33249SOL     OW 6796   8.348   0.488   7.162  0.1730  0.4331 -0.6909
33249SOL    HW1 6797   8.284   0.517   7.096 -0.0294 -0.3773 -0.8538
33249SOL    HW2 6798   8.300   0.491   7.245  0.7349  2.5080 -0.3839
33250SOL     OW 6799   5.200   7.605   0.819 -0.0738  0.0603 -0.0165
33250SOL    HW1 6800   5.236   7.580   0.734  0.3502  0.6361 -0.0134
33250SOL    HW2 6801   5.121   7.654   0.798  0.6509  1.2162 -0.1371
33251SOL     OW 6802  12.005   4.668   9.526 -0.1763 -0.4650 -0.1695
33251SOL    HW1 6803  12.004   4.574   9.508  1.2580 -0.4374 -0.5495
33251SOL    HW2 6804  12.048   4.706   9.449  0.7056  0.3263  0.6887
33252SOL     OW 6805   1.450  10.459  10.968 -0.5592  0.3545 -0.3140
33252SOL    HW1 6806   1.532  10.441  10.922  0.3058  1.6288  0.6569
33252SOL    HW2 6807   1.382  10.424  10.911  0.6672 -0.9450 -1.0274
33253SOL     OW 6808  10.615   1.030   0.331 -0.2498  0.4646 -0.5183
33253SOL    HW1 6809  10.644   0.992   0.248 -0.2866  0.0432 -0.3370
33253SOL    HW2 6810  10.626   1.124   0.318  0.7984  0.3395 -0.6053
33254SOL     OW 6811   0.790   1.300  10.056  0.6963 -0.3402  0.3450
33254SOL    HW1 6812   0.792   1.224   9.999  1.5019  0.0988 -0.2293
33254SOL    HW2 6813   0.865   1.353  10.029 -0.9174  1.6215 -0.6140
33255SOL     OW 6814   5.249   3.806   1.576  0.5969 -0.2401 -0.3789
33255SOL    HW1 6815   5.345   3.808   1.572  0.6680 -1.3793  0.2709
33255SOL    HW2 6816   5.230   3.767   1.661 -0.4901  2.0348  0.5095
33256SOL     OW 6817   1.532   7.185   0.812 -0.0830  0.1377 -0.0396
33256SOL    HW1 6818   1.582   7.245   0.757  0.2007 -0.1316 -0.0826
33256SOL    HW2 6819   1.440   7.203   0.792  0.0067  0.4130 -0.2006
33257SOL     OW 6820   2.601   1.362   8.822 -0.6736  0.6796 -0.2233
33257SOL    HW1 6821   2.535   1.358   8.892 -0.0965 -0.4496  0.2810
33257SOL    HW2 6822   2.682   1.333   8.864 -0.1161  0.8662 -1.1453
33258SOL     OW 6823   6.785   1.780   8.502  0.2130  0.1324  0.1067
33258SOL    HW1 6824   6.776   1.836   8.579  0.8449  0.4086 -0.0226
33258SOL    HW2 6825   6.783   1.839   8.427  1.4505  0.0644 -0.0077
33259SOL     OW 6826   9.521   7.676   1.938  0.1176 -0.1394  0.2844
33259SOL    HW1 6827   9.475   7.703   1.858  1.5341 -0.7635 -0.7742
33259SOL    HW2 6828   9.486   7.734   2.006 -2.2563 -0.6165 -0.4433
33260SOL     OW 6829   2.854   8.149  12.118 -0.2132  0.8762  0.0713
33260SOL    HW1 6830   2.939   8.187  12.095  0.0972  0.3496  0.3269
33260SOL    HW2 6831   2.872   8.094  12.195 -0.9625  1.4847  0.7009
33261SOL     OW 6832   4.169  12.515   6.261 -0.3643 -0.1029  0.0960
33261SOL    HW1 6833   4.080  12.501   6.292  0.3838  0.4989  2.7221
33261SOL    HW2 6834   4.224  12.457   6.313  1.0572  1.4695  0.4769
33262SOL     OW 6835   6.097  10.099  11.224  0.1681 -0.5584 -0.0904
33262SOL    HW1 6836   6.129  10.122  11.137 -1.9728 -1.7651 -1.2924
33262SOL    HW2 6837   6.016  10.049  11.207 -1.2607  0.6290  2.6239
33263SOL     OW 6838  11.930  10.478   9.748  0.2616  0.0082 -0.2576
33263SOL    HW1 6839  11.972  10.561   9.724  0.2836  0.3567  0.9237
33263SOL    HW2 6840  11.838  10.489   9.725 -0.3839  1.5512  2.5684
33264SOL     OW 6841  10.026   8.363   6.084  0.3086 -0.0977 -0.1747
33264SOL    HW1 6842  10.006   8.311   6.162  0.5761 -0.5253 -0.3874
33264SOL    HW2 6843  10.100   8.317   6.043  2.1546  1.7187  0.8948
33265SOL     OW 6844   5.913  10.413   5.832  0.5453 -0.3614  0.1422
33265SOL    HW1 6845   5.899  10.458   5.915  1.3112  2.1017 -0.9564
33265SOL    HW2 6846   5.974  10.342   5.852  0.5567  0.0696  1.6997
33266SOL     OW 6847   5.523  12.175   0.045 -0.3737  0.3010 -0.1277
33266SOL    HW1 6848   5.584  12.210  -0.019 -0.2087  0.9148  0.3466
33266SOL    HW2 6849   5.468  12.249   0.069 -0.1549  0.2031  0.7470
33267SOL     OW 6850   5.330   3.887   5.979 -0.1026 -0.3058 -0.1386
33267SOL    HW1 6851   5.326   3.834   5.899 -1.1433 -1.1846  0.4637
33267SOL    HW2 6852   5.243   3.925   5.987  0.4151  0.9335 -0.1546
33268SOL     OW 6853   1.673   4.198   7.852  0.2320  0.3787 -0.1627
33268SOL    HW1 6854   1.707   4.251   7.924  0.6845  1.4717 -1.1653
33268SOL    HW2 6855   1.597   4.153   7.890  1.7610 -0.8559  1.6531
33269SOL     OW 6856   6.818   5.517   3.115  0.1659 -0.3140  0.4804
33269SOL    HW1 6857   6.790   5.545   3.028  0.7042  0.4722  0.5563
33269SOL    HW2 6858   6.776   5.579   3.175 -3.7681 -3.2713  1.2196
33270SOL     OW 6859  10.815   0.965   5.683 -0.2277  0.7279  0.0097
33270SOL    HW1 6860  10.773   1.021   5.749 -1.5940  0.3232 -0.4715
33270SOL    HW2 6861  10.741   0.929   5.633  0.7642  0.8318 -1.5768
33271SOL     OW 6862   3.749   8.620  10.714  0.5565 -0.5997  0.0471
33271SOL    HW1 6863   3.715   8.566  10.785  0.6937 -1.4954 -0.5361
33271SOL    HW2 6864   3.726   8.571  10.634  0.2411  0.4701 -0.5374
33272SOL     OW 6865   9.428   7.023   7.961  0.5476  0.0566 -0.0232
33272SOL    HW1 6866   9.511   6.980   7.979  1.6889  1.5584 -1.3590
33272SOL    HW2 6867   9.418   7.018   7.865 -0.1541  1.1387 -0.0324
33273SOL     OW 6868   4.693   4.653  11.653 -0.4586 -0.1174 -0.2890
33273SOL    HW1 6869   4.725   4.633  11.741  0.4296  2.1444 -0.0399
33273SOL    HW2 6870   4.597   4.654  11.662 -0.3892 -0.4213  0.5265
33274SOL     OW 6871   2.458   1.160   4.376 -0.0416 -0.1415 -0.6713
33274SOL    HW1 6872   2.545   1.148   4.414 -1.1615  1.4224  2.7521
33274SOL    HW2 6873   2.402   1.098   4.423 -1.4604  1.7480  0.2743
33275SOL     OW 6874   9.657   7.220   4.311  0.1520 -0.4476  0.5464
33275SOL    HW1 6875   9.749   7.211   4.336 -0.3545 -1.4785  2.1541
33275SOL    HW2 6876   9.636   7.136   4.269 -0.0674 -0.2187  0.1976
33276SOL     OW 6877   8.839   2.733   0.396 -0.7314  0.5276 -0.3683
33276SOL    HW1 6878   8.848   2.717   0.302 -0.4578  0.8946 -0.4086
33276SOL    HW2 6879   8.805   2.651   0.431  0.6043 -0.1398 -0.5645
33277SOL     OW 6880   1.281   4.353   5.941 -0.4461  0.2608 -0.1038
33277SOL    HW1 6881   1.190   4.323   5.937 -0.8493  1.4529 -0.2682
33277SOL    HW2 6882   1.275   4.448   5.934  0.7748  0.4037  0.5973
33278SOL     OW 6883   5.271   6.450   3.053  0.2671  0.3789  0.1867
33278SOL    HW1 6884   5.190   6.487   3.018 -0.1471 -0.5510  0.1460
33278SOL    HW2 6885   5.327   6.526   3.070 -0.6038  1.0280  0.1960
33279SOL     OW 6886   1.688   1.632   1.827 -0.4174 -0.5623 -0.0482
33279SOL    HW1 6887   1.777   1.634   1.861 -0.3398  1.6103 -0.3004
33279SOL    HW2 6888   1.640   1.695   1.880 -1.2398  0.0031 -1.4081
33280SOL     OW 6889  11.164  11.262   1.927 -0.4188  0.1950 -0.0747
33280SOL    HW1 6890  11.230  11.303   1.872 -1.6185  0.9190 -1.0129
33280SOL    HW2 6891  11.214  11.207   1.988  0.9211 -1.3936 -2.4729
33281SOL     OW 6892   7.226   5.648   5.958  0.0548  0.1815  0.1434
33281SOL    HW1 6893   7.199   5.635   6.049 -1.5253  1.3805 -0.1110
33281SOL    HW2 6894   7.233   5.743   5.949  2.4492  0.0151 -0.4133
33282SOL     OW 6895   1.913   1.026   9.447 -0.2226  0.5670  0.0432
33282SOL    HW1 6896   1.950   1.108   9.480  1.4664  0.2288 -0.8815
33282SOL    HW2 6897   1.924   1.032   9.352 -1.8437  0.0644 -0.2024
33283SOL     OW 6898   5.216   5.174   5.327 -0.1766  0.4432  0.1510
33283SOL    HW1 6899   5.212   5.190   5.233  1.3823 -0.5264 -0.1309
33283SOL    HW2 6900   5.265   5.092   5.335 -0.5051  0.3627  1.8066
33284SOL     OW 6901   6.891   3.609   8.759  0.3564 -0.2025 -1.0117
33284SOL    HW1 6902   6.878   3.637   8.668 -0.8080 -2.1579 -1.5281
33284SOL    HW2 6903   6.926   3.520   8.751  1.6678  0.1540  0.4849
33285SOL     OW 6904   1.674  11.047   0.972 -0.1889 -0.5668 -0.3759
33285SOL    HW1 6905   1.662  11.114   1.040 -0.6757 -0.4366 -0.5872
33285SOL    HW2 6906   1.660  11.093   0.890  1.5466 -0.4630 -0.6479
33286SOL     OW 6907   4.915   6.883   6.452  0.4240  0.5918  0.2571
33286SOL    HW1 6908   4.980   6.951   6.432  1.4078 -0.5836 -0.7371
33286SOL    HW2 6909   4.882   6.855   6.367 -1.6080  1.3077  0.7506
33287SOL     OW 6910   4.122  12.058   2.786 -0.4459  0.1300 -0.2893
33287SOL    HW1 6911   4.081  12.076   2.701 -1.2817 -0.5239 -0.0375
33287SOL    HW2 6912   4.187  11.990   2.768 -2.4131 -1.9467 -0.0150
33288SOL     OW 6913   9.087  10.612   7.510 -0.0557 -0.0733  0.3922
33288SOL    HW1 6914   9.019  10.545   7.502  1.0801 -1.4640  1.6427
33288SOL    HW2 6915   9.136  10.587   7.589 -0.0763  2.7447  1.3915
33289SOL     OW 6916   1.657   6.687   9.973  0.8188 -0.3242 -0.1221
33289SOL    HW1 6917   1.749   6.703   9.950  0.4183  0.1273 -1.5215
33289SOL    HW2 6918   1.657   6.600  10.013  1.8062 -0.5106 -0.4967
33290SOL     OW 6919   4.725   0.752   3.571  0.1774  0.2111 -0.0540
33290SOL    HW1 6920   4.740   0.827   3.628  1.0706  1.9005 -2.3755
33290SOL    HW2 6921   4.804   0.747   3.517 -0.2796 -1.8241 -0.6305
33291SOL     OW 6922   3.505   8.262  10.197  0.1635 -0.4407  0.1180
33291SOL    HW1 6923   3.552   8.345  10.192  0.7096 -0.7786 -0.5029
33291SOL    HW2 6924   3.545   8.217  10.272 -0.4198  0.0129  0.7214
33292SOL     OW 6925   9.462   4.508   8.360 -0.8191 -0.3594 -0.3760
33292SOL    HW1 6926   9.477   4.598   8.388 -0.9437 -0.0689 -1.2097
33292SOL    HW2 6927   9.534   4.459   8.399 -0.5263  0.1727 -0.2385
33293SOL     OW 6928   2.929   1.246   6.489 -0.1082 -0.3181  0.3992
33293SOL    HW1 6929   3.003   1.251   6.429  0.3715 -3.8176  0.4516
33293SOL    HW2 6930   2.969   1.237   6.575 -0.6320 -0.3017  0.6462
33294SOL     OW 6931   0.007  10.510  10.880  0.3933 -0.3851  0.2354
33294SOL    HW1 6932   0.073  10.568  10.920  1.6671 -0.9443 -0.9900
33294SOL    HW2 6933  -0.074  10.560  10.884  0.8558  0.3020  1.8419
33295SOL     OW 6934   0.643   5.762   9.498 -0.4983 -0.0976 -0.0629
33295SOL    HW1 6935   0.620   5.688   9.554 -2.6098 -0.6390 -1.5038
33295SOL    HW2 6936   0.712   5.728   9.441 -2.2407 -1.4498 -1.4997
33296SOL     OW 6937   9.794   5.137   1.465 -0.1653  0.1961  0.4781
33296SOL    HW1 6938   9.799   5.191   1.544  0.7018 -0.0009  0.5668
33296SOL    HW2 6939   9.880   5.096   1.458 -0.1571  0.3661 -0.6822
33297SOL     OW 6940   4.483   9.194   5.424  0.2835 -0.6742 -0.1652
33297SOL    HW1 6941   4.547   9.240   5.371  1.6479 -1.9185  0.3269
33297SOL    HW2 6942   4.399   9.235   5.403  1.2906  1.3064 -0.4751
33298SOL     OW 6943   7.597   4.057   4.208 -0.1030  0.4909  0.3824
33298SOL    HW1 6944   7.535   3.999   4.252  0.7346 -0.9317 -0.2244
33298SOL    HW2 6945   7.542   4.117   4.158 -1.0889 -2.0264 -1.7977
33299SOL     OW 6946  10.609   1.267   9.804 -0.1617  0.3180 -0.1917
33299SOL    HW1 6947  10.663   1.217   9.743 -0.6602  1.2742 -1.4520
33299SOL    HW2 6948  10.655   1.259   9.888  1.4459  0.3191 -1.0177
33300SOL     OW 6949  11.045   4.809   7.081  0.0161 -0.2834 -0.0310
33300SOL    HW1 6950  10.971   4.757   7.113  0.1384 -0.4649 -0.0414
33300SOL    HW2 6951  11.047   4.792   6.987  0.6993 -1.0836  0.1184
33301SOL     OW 6952   0.242   3.259   8.444  0.1433 -0.3598  0.0289
33301SOL    HW1 6953   0.163   3.314   8.438 -0.1247 -0.5847  1.1349
33301SOL    HW2 6954   0.216   3.175   8.407  0.1205 -0.1732 -0.3790
33302SOL     OW 6955  10.219  10.117   3.684 -0.0067  0.4561 -0.5133
33302SOL    HW1 6956  10.275  10.063   3.740  1.3880  1.0798 -1.2641
33302SOL    HW2 6957  10.222  10.204   3.725 -0.2242  0.5529 -0.7016
33303SOL     OW 6958  11.867   1.164   2.985 -0.3427  0.2185 -0.2029
33303SOL    HW1 6959  11.893   1.128   3.069 -0.7117  1.0906  0.3032
33303SOL    HW2 6960  11.937   1.138   2.925  0.9462  1.2436  0.7963
33304SOL     OW 6961   3.292  11.192  10.055  0.6888  0.3203  0.7247
33304SOL    HW1 6962   3.348  11.169   9.981  1.1396  0.1621  1.1080
33304SOL    HW2 6963   3.322  11.135  10.126 -1.1974 -1.1051  0.4459
33305SOL     OW 6964   9.433   2.109   5.011 -0.1652  0.2760 -0.2922
33305SOL    HW1 6965   9.464   2.197   5.032 -0.9643  1.3524 -3.1587
33305SOL    HW2 6966   9.340   2.111   5.031 -0.6012  0.8059 -2.1383
33306SOL     OW 6967   4.341  10.402   3.059  0.2410 -0.2496 -0.2981
33306SOL    HW1 6968   4.361  10.382   2.968 -1.3558  2.0945 -1.2550
33306SOL    HW2 6969   4.246  10.394   3.066  0.4562 -1.6852  1.5472
33307SOL     OW 6970  12.571   3.025  10.614 -0.0113  0.0454  0.2870
33307SOL    HW1 6971  12.626   3.095  10.648  0.5981 -0.7154  0.9080
33307SOL    HW2 6972  12.497   3.021  10.675 -1.4768  1.8955 -1.2313
33308SOL     OW 6973   0.909   4.507   2.444  0.3066 -0.0609  0.2489
33308SOL    HW1 6974   0.862   4.587   2.419  1.4757 -0.0909 -2.4087
33308SOL    HW2 6975   0.842   4.439   2.443 -0.4208  0.6073  1.1073
33309SOL     OW 6976   5.361   1.520   7.178  0.0439  0.1813 -0.0224
33309SOL    HW1 6977   5.406   1.467   7.112  1.5912  1.7580 -0.3288
33309SOL    HW2 6978   5.388   1.483   7.262  0.2645 -0.1538 -0.2379
33310SOL     OW 6979   4.398  12.540  10.615 -0.0448  0.0675 -0.6616
33310SOL    HW1 6980   4.405  12.445  10.624 -1.3491 -0.1187 -1.3926
33310SOL    HW2 6981   4.308  12.560  10.642 -0.5036  0.8028 -2.5671
33311SOL     OW 6982   3.058  11.654  10.632 -0.1330  0.4609  0.2887
33311SOL    HW1 6983   3.040  11.635  10.540 -2.0491 -0.5102  0.8230
33311SOL    HW2 6984   3.134  11.600  10.654 -1.8235 -2.0819  0.1826
33312SOL     OW 6985   0.897   1.667   8.717  0.0779 -0.4467 -0.3620
33312SOL    HW1 6986   0.954   1.700   8.647  0.7532 -1.5483 -0.3594
33312SOL    HW2 6987   0.933   1.580   8.738 -0.8672 -0.6481  0.4961
33313SOL     OW 6988   9.206   4.295   6.992 -0.1356  0.2234  0.3630
33313SOL    HW1 6989   9.264   4.223   7.018 -1.9579 -1.6699 -0.6014
33313SOL    HW2 6990   9.200   4.288   6.897 -2.5407 -0.1155  0.5029
33314SOL     OW 6991   1.960  11.091  11.594 -0.0419 -0.2276  0.3077
33314SOL    HW1 6992   1.945  11.177  11.555  1.7862 -0.0730 -0.1593
33314SOL    HW2 6993   1.926  11.030  11.529  1.9658  0.0670 -1.1069
33315SOL     OW 6994   8.765   4.348   1.365  0.0384 -0.7379 -0.6059
33315SOL    HW1 6995   8.829   4.362   1.435  0.0007 -0.0268 -0.7030
33315SOL    HW2 6996   8.706   4.281   1.400 -0.2033 -0.1189  0.2077
33316SOL     OW 6997   6.054   1.366   9.993  0.3409  0.3172  0.3621
33316SOL    HW1 6998   6.091   1.314  10.064 -0.7342  1.1026  1.5559
33316SOL    HW2 6999   6.090   1.327   9.913 -1.0050 -2.7721  1.1057
33317SOL     OW 7000   7.844   8.859  11.405 -0.2340  0.5572  0.3366
33317SOL    HW1 7001   7.884   8.820  11.483  2.1943  2.0556 -0.0787
33317SOL    HW2 7002   7.754   8.825  11.405 -0.4775  0.7816  3.9942
33318SOL     OW 7003   8.152   3.728   0.888  0.2309  0.0855 -0.1480
33318SOL    HW1 7004   8.097   3.659   0.851  0.4681 -0.4733  0.5108
33318SOL    HW2 7005   8.092   3.783   0.938  0.0707  0.2354 -0.5067
33319SOL     OW 7006  11.623   9.593   4.183 -0.2315  0.0226  0.0417
33319SOL    HW1 7007  11.617   9.499   4.171  0.6407 -0.1176  0.5996
33319SOL    HW2 7008  11.704   9.606   4.232  0.3698  1.1546 -1.1597
33320SOL     OW 7009   6.820   2.125   5.862  0.4826  0.1227  0.0121
33320SOL    HW1 7010   6.780   2.184   5.925 -0.9128 -0.8153  0.0523
33320SOL    HW2 7011   6.844   2.181   5.788 -1.4280  0.6908 -0.2481
33321SOL     OW 7012   4.621  12.334   2.077  0.4796 -0.4186 -0.4037
33321SOL    HW1 7013   4.565  12.259   2.059  0.1187  0.1241 -1.6410
33321SOL    HW2 7014   4.680  12.304   2.146  0.6829 -2.0172 -1.2236
33322SOL     OW 7015   3.773   7.887   1.867  0.1014 -0.1594 -0.0339
33322SOL    HW1 7016   3.860   7.854   1.845  0.6797 -0.1634  2.1082
33322SOL    HW2 7017   3.733   7.907   1.782  1.8243 -1.0406 -1.1012
33323SOL     OW 7018   5.417  12.437   3.042 -0.1213 -0.3587  0.4054
33323SOL    HW1 7019   5.384  12.443   3.132  1.6170 -1.7124  1.1881
33323SOL    HW2 7020   5.511  12.452   3.049 -0.1496  1.1042 -1.4471
33324SOL     OW 7021   9.928  12.434   8.772  0.2363 -0.3707 -0.2702
33324SOL    HW1 7022   9.856  12.497   8.776  0.2584 -0.3740  0.2160
33324SOL    HW2 7023   9.893  12.356   8.815  0.4043 -0.4996 -0.3686
33325SOL     OW 7024  12.133   8.823   2.699 -0.3561 -0.1942 -0.0678
33325SOL    HW1 7025  12.046   8.796   2.670 -0.2397 -0.5510 -0.0804
33325SOL    HW2 7026  12.127   8.918   2.707 -1.1184 -0.3174  1.1226
33326SOL     OW 7027   7.090   6.895  10.005 -0.0173  0.2121 -0.1567
33326SOL    HW1 7028   7.107   6.876   9.912  0.4422  1.6901 -0.3982
33326SOL    HW2 7029   7.105   6.811  10.049 -0.2581 -0.5231 -1.4097
33327SOL     OW 7030   4.491   2.562   5.979 -0.0337 -0.1168  0.4216
33327SOL    HW1 7031   4.502   2.583   6.072 -0.4073 -1.2980  0.7509
33327SOL    HW2 7032   4.402   2.591   5.959 -0.7024 -1.6653  0.9846
33328SOL     OW 7033  11.963   4.136   6.813 -0.5827  0.0530  0.0638
33328SOL    HW1 7034  11.928   4.096   6.893  0.4672 -1.2304 -0.0749
33328SOL    HW2 7035  11.891   4.131   6.750 -0.3697 -2.0706 -0.0709
33329SOL     OW 7036   2.029  10.827   6.190 -0.7532  0.2951 -0.9483
33329SOL    HW1 7037   1.944  10.847   6.228 -0.2872  2.0648 -0.7370
33329SOL    HW2 7038   2.092  10.844   6.260 -0.2096 -1.1117 -1.0620
33330SOL     OW 7039  11.090  11.072   9.753  0.2686 -0.1076 -0.0283
33330SOL    HW1 7040  11.153  11.040   9.817  0.4948  0.1716 -0.1070
33330SOL    HW2 7041  11.022  11.004   9.749  0.5820 -0.4246  0.0305
33331SOL     OW 7042   0.208  11.246   4.702  0.5222 -0.2949 -0.0906
33331SOL    HW1 7043   0.142  11.211   4.642 -0.5706 -1.6318  1.8158
33331SOL    HW2 7044   0.200  11.193   4.781  1.4311  1.8578  1.5383
33332SOL     OW 7045   5.100  11.968   4.484  0.5990 -0.3584 -0.6515
33332SOL    HW1 7046   5.039  12.037   4.509 -0.0865 -0.6394 -1.4996
33332SOL    HW2 7047   5.056  11.921   4.413  1.6511 -0.7902 -1.0449
33333SOL     OW 7048  12.341   0.117   8.498 -0.4385  0.0801  0.0316
33333SOL    HW1 7049  12.320   0.046   8.439 -1.6703 -0.1880  0.7661
33333SOL    HW2 7050  12.356   0.193   8.441 -0.9015 -0.3342 -0.6481
33334SOL     OW 7051   9.479  10.107   7.227  0.3046 -0.2098  0.6812
33334SOL    HW1 7052   9.535  10.151   7.291  0.4327 -0.2419  0.5911
33334SOL    HW2 7053   9.526  10.117   7.144  0.4738 -0.7735  0.7090
33335SOL     OW 7054  12.358  10.532   6.080  0.0575  0.4689 -0.7172
33335SOL    HW1 7055  12.303  10.594   6.032  0.1861 -0.4859 -2.1832
33335SOL    HW2 7056  12.332  10.446   6.045  0.9999 -0.1631  0.0946
33336SOL     OW 7057   2.956   1.607  10.263  0.4812 -0.2542  0.4514
33336SOL    HW1 7058   2.907   1.538  10.218 -0.7237  1.7274 -1.4575
33336SOL    HW2 7059   2.893   1.645  10.324  0.3969  0.6125 -0.1545
33337SOL     OW 7060   0.221  11.764   2.339 -0.1211  0.6731 -0.2911
33337SOL    HW1 7061   0.299  11.719   2.305  0.5590  0.4529  1.4046
33337SOL    HW2 7062   0.217  11.846   2.290  1.3224  0.7766 -0.3038
33338SOL     OW 7063  12.200  12.246  12.040 -0.4998  0.2252 -0.4096
33338SOL    HW1 7064  12.197  12.342  12.046 -1.5736  0.1771  0.1717
33338SOL    HW2 7065  12.281  12.227  11.994  0.8004  1.3338  1.2994
33339SOL     OW 7066   1.659  11.136   5.582  0.4427 -0.0867 -0.1790
33339SOL    HW1 7067   1.618  11.086   5.653 -0.4048  1.0067  0.1449
33339SOL    HW2 7068   1.726  11.078   5.546  1.0850 -0.5820  1.7005
33340SOL     OW 7069   8.935   3.879   4.881 -0.1695 -0.3495 -0.0644
33340SOL    HW1 7070   8.876   3.945   4.845 -0.2247 -0.3783 -0.0264
33340SOL    HW2 7071   8.899   3.858   4.967 -0.3663 -0.7033 -0.2302
33341SOL     OW 7072   1.620   5.035   7.427 -0.1912 -0.3996 -0.1194
33341SOL    HW1 7073   1.685   5.083   7.376 -0.3255 -1.5253 -1.4045
33341SOL    HW2 7074   1.562   4.997   7.361 -0.4164 -1.8330  0.8661
33342SOL     OW 7075   2.318   8.710   1.308 -0.3483  0.4072  0.0254
33342SOL    HW1 7076   2.346   8.631   1.354  0.2384  1.1949  1.0907
33342SOL    HW2 7077   2.364   8.708   1.225 -1.7017 -1.2404 -0.7608
33343SOL     OW 7078   1.241   0.414  12.006 -0.4319 -0.3918 -0.9331
33343SOL    HW1 7079   1.175   0.360  11.961 -2.8708  1.1171  0.5964
33343SOL    HW2 7080   1.281   0.356  12.070 -3.4125 -0.4071  1.0792
33344SOL     OW 7081   7.280   2.223   6.102  1.0383  0.0028 -0.7703
33344SOL    HW1 7082   7.289   2.130   6.124  2.1540  0.1208 -0.6618
33344SOL    HW2 7083   7.369   2.258   6.110  0.5650  1.1687 -0.4082
33345SOL     OW 7084   3.391  10.680   5.378  0.7112  0.1812  0.2070
33345SOL    HW1 7085   3.301  10.675   5.409  1.1505 -0.4704  1.4479
33345SOL    HW2 7086   3.414  10.773   5.387  0.4910  0.1788  0.8865
33346SOL     OW 7087   6.927   2.040   7.898  0.2167 -0.9226  0.2588
33346SOL    HW1 7088   6.920   1.958   7.948 -0.4623 -0.2984  1.2255
33346SOL    HW2 7089   6.947   2.106   7.964 -0.8562 -0.0560 -0.2551
33347SOL     OW 7090  11.961   0.251   5.191  0.3252 -0.5282 -0.4296
33347SOL    HW1 7091  11.866   0.245   5.179  0.1022 -0.6234  1.1560
33347SOL    HW2 7092  11.988   0.161   5.207  0.8294 -0.6192 -1.6847
33348SOL     OW 7093   7.171   9.691   8.148  0.5506  0.0392  0.8267
33348SOL    HW1 7094   7.112   9.706   8.222 -1.0360 -2.0711  0.0621
33348SOL    HW2 7095   7.154   9.765   8.090  0.4621  0.7375  1.7039
33349SOL     OW 7096   3.787  11.135  11.095  0.1956 -0.1997  0.4182
33349SOL    HW1 7097   3.869  11.107  11.136 -0.2295 -1.7508  0.2824
33349SOL    HW2 7098   3.770  11.068  11.028 -0.2047  1.1409 -0.8729
33350SOL     OW 7099   1.426   8.465   6.197 -0.0368 -0.3908 -0.0080
33350SOL    HW1 7100   1.505   8.412   6.192  0.4124  0.2002  0.6705
33350SOL    HW2 7101   1.457   8.553   6.217 -0.9502 -0.4248  1.6882
33351SOL     OW 7102   4.113   6.039   5.430  0.1684  0.1233 -0.3599
33351SOL    HW1 7103   4.111   5.969   5.365 -2.1934  0.3724 -0.6490
33351SOL    HW2 7104   4.075   6.001   5.509  1.0224  0.4414  0.2272
33352SOL     OW 7105  12.394   0.385   4.434 -0.2975 -0.1319 -0.4807
33352SOL    HW1 7106  12.444   0.390   4.353 -1.0306  0.5516 -0.9104
33352SOL    HW2 7107  12.319   0.443   4.419  0.9138  2.1551  1.6570
33353SOL     OW 7108   0.946   3.031   7.174  0.3372  0.1037  0.3233
33353SOL    HW1 7109   0.852   3.013   7.164 -0.0329  1.3932  1.2242
33353SOL    HW2 7110   0.980   2.956   7.222  0.2705 -1.5234 -2.0051
33354SOL     OW 7111  11.450  11.488   3.108  0.2379 -0.2388 -0.4786
33354SOL    HW1 7112  11.464  11.561   3.168  0.5571  0.7979 -1.7602
33354SOL    HW2 7113  11.396  11.427   3.157 -0.0327  0.8553  0.6464
33355SOL     OW 7114   6.776  10.389   0.269 -0.5002  0.1706 -0.4643
33355SOL    HW1 7115   6.761  10.428   0.183  0.3398  0.0353 -0.6754
33355SOL    HW2 7116   6.727  10.445   0.329 -2.4478 -0.6739 -1.1901
33356SOL     OW 7117   5.772  11.647   7.045 -0.7738 -0.7466 -0.3345
33356SOL    HW1 7118   5.823  11.568   7.061 -0.9742 -0.6345  0.9755
33356SOL    HW2 7119   5.759  11.685   7.131  0.8135  1.6954 -1.0614
33357SOL     OW 7120   2.399   4.934   3.817 -0.1712  0.1866 -0.3974
33357SOL    HW1 7121   2.403   5.020   3.775 -0.7148 -0.0066 -0.8615
33357SOL    HW2 7122   2.307   4.909   3.811 -0.0072 -0.4483 -0.3127
33358SOL     OW 7123   6.514   1.656   7.921  0.3708  0.1410  0.1120
33358SOL    HW1 7124   6.499   1.708   8.000 -0.2662 -3.3193  2.5170
33358SOL    HW2 7125   6.427   1.622   7.898  0.8639 -0.5003 -0.8665
33359SOL     OW 7126   2.981   8.594   5.750 -0.3259  0.1820  0.0779
33359SOL    HW1 7127   3.026   8.542   5.817 -0.6546  0.2263  0.3384
33359SOL    HW2 7128   3.012   8.559   5.667 -1.4093 -1.2448  0.2189
33360SOL     OW 7129   3.715   5.533  11.819  0.1620  0.0205  0.0824
33360SOL    HW1 7130   3.690   5.514  11.729 -0.1752 -0.2670  0.2322
33360SOL    HW2 7131   3.698   5.627  11.829 -0.0957 -0.0076 -0.0664
33361SOL     OW 7132  11.055  12.117   4.253  0.5334  0.0302 -0.1083
33361SOL    HW1 7133  11.128  12.091   4.196 -0.2083 -1.7269 -0.3492
33361SOL    HW2 7134  11.065  12.211   4.263  1.3779  0.2300 -2.1923
33362SOL     OW 7135   2.136   5.005   8.410  0.4346  0.1997 -0.0163
33362SOL    HW1 7136   2.065   5.061   8.440  0.0563  0.0890 -0.6769
33362SOL    HW2 7137   2.200   5.065   8.372  0.5644  0.2776  0.3271
33363SOL     OW 7138  11.906   9.940  10.179  0.8412  0.1576  0.1564
33363SOL    HW1 7139  11.994   9.904  10.169  0.2581 -1.1689 -0.4205
33363SOL    HW2 7140  11.848   9.864  10.182 -0.5779  0.9999 -2.4445
33364SOL     OW 7141   5.194  12.474   9.232  0.2878 -0.1688  0.1033
33364SOL    HW1 7142   5.215  12.522   9.152 -0.5230 -1.3804 -0.8662
33364SOL    HW2 7143   5.279  12.446   9.266  0.6435  0.4198 -0.2769
33365SOL     OW 7144   9.768   8.107   6.825 -0.5790 -0.5386  0.5575
33365SOL    HW1 7145   9.831   8.071   6.888 -0.6373 -1.0185  0.3509
33365SOL    HW2 7146   9.754   8.197   6.853 -0.5432 -0.7210  1.1874
33366SOL     OW 7147   7.500   8.111   2.661 -0.4430  0.2261 -0.1488
33366SOL    HW1 7148   7.484   8.030   2.709  0.7517 -0.0755 -0.2200
33366SOL    HW2 7149   7.564   8.087   2.594 -0.7718  1.0262 -0.7685
33367SOL     OW 7150   9.572   9.236   6.051  0.4546 -0.6829  0.1975
33367SOL    HW1 7151   9.503   9.177   6.082  0.3857 -0.2988  0.7964
33367SOL    HW2 7152   9.531   9.322   6.049  0.8018 -0.5165  0.1628
33368SOL     OW 7153   5.548   4.138   3.704 -0.2171 -0.7604 -0.7233
33368SOL    HW1 7154   5.528   4.160   3.613  0.2071 -0.8329 -0.8341
33368SOL    HW2 7155   5.615   4.202   3.730 -1.2911  0.1303 -0.0342
33369SOL     OW 7156   0.030   9.585  12.150  0.1649 -0.1732 -0.1583
33369SOL    HW1 7157   0.098   9.587  12.083 -0.4485  1.9719 -0.8096
33369SOL    HW2 7158  -0.052   9.599  12.101 -0.2775  1.6142  0.9890
33370SOL     OW 7159   0.481   9.443   1.407  0.2158 -0.1282  0.3441
33370SOL    HW1 7160   0.423   9.451   1.483 -1.6797  1.5628 -1.1463
33370SOL    HW2 7161   0.485   9.349   1.390 -1.7247 -0.3524  0.8314
33371SOL     OW 7162   8.289   8.703   2.169  0.1293  0.4975 -0.9356
33371SOL    HW1 7163   8.202   8.698   2.206 -0.6521 -0.0285 -2.7350
33371SOL    HW2 7164   8.345   8.729   2.242 -1.1703 -1.1859  0.7395
33372SOL     OW 7165   5.868   0.216   0.109 -0.3091 -0.1441 -0.4412
33372SOL    HW1 7166   5.785   0.222   0.063 -1.1353  0.0469  0.9910
33372SOL    HW2 7167   5.911   0.300   0.093 -0.0752 -0.4917 -1.7261
33373SOL     OW 7168   3.840   1.949   9.553 -0.1676 -0.8696 -0.1324
33373SOL    HW1 7169   3.815   1.957   9.645  0.1453 -0.8955 -0.0443
33373SOL    HW2 7170   3.796   2.022   9.510 -1.7923 -1.8899 -0.2784
33374SOL     OW 7171   7.582   6.893   9.301 -0.0320 -0.0516  0.3089
33374SOL    HW1 7172   7.608   6.880   9.392  2.2218  0.1270 -0.2611
33374SOL    HW2 7173   7.570   6.805   9.266  0.1033 -0.1501  0.5140
33375SOL     OW 7174   9.629   3.612   8.443  0.0479  0.0205 -0.4565
33375SOL    HW1 7175   9.638   3.707   8.433  0.8287 -0.1179 -1.1191
33375SOL    HW2 7176   9.718   3.579   8.447 -0.2092 -0.7581 -0.9332
33376SOL     OW 7177   9.576   9.826   7.447 -0.2117 -0.4077 -0.4454
33376SOL    HW1 7178   9.487   9.846   7.474  0.1537 -0.0426  0.5460
33376SOL    HW2 7179   9.630   9.891   7.492  0.6416 -1.2561 -0.1927
33377SOL     OW 7180   4.732   1.119  11.241  0.0444 -0.2162 -0.5751
33377SOL    HW1 7181   4.812   1.140  11.192  0.1609 -1.9947 -1.2197
33377SOL    HW2 7182   4.763   1.075  11.320 -0.2657  0.1347 -0.2523
33378SOL     OW 7183   2.630   9.228   1.935  0.9973 -0.7041  0.6001
33378SOL    HW1 7184   2.596   9.306   1.892  2.0280 -0.7300 -0.3177
33378SOL    HW2 7185   2.552   9.179   1.961  0.3454  0.3095  0.5896
33379SOL     OW 7186  12.559   2.215   6.313  0.2487 -0.0669 -0.8103
33379SOL    HW1 7187  12.528   2.185   6.399 -1.1152  1.7585 -0.5861
33379SOL    HW2 7188  12.545   2.141   6.255 -2.2144 -0.2010 -0.1615
33380SOL     OW 7189   1.646   4.107  12.063 -0.3035 -0.0771 -0.8112
33380SOL    HW1 7190   1.551   4.102  12.069 -0.2982  0.9770  0.8858
33380SOL    HW2 7191   1.675   4.122  12.153  1.5822 -1.8128 -1.0485
33381SOL     OW 7192   6.144   1.471   6.536 -0.4976 -0.2086 -0.2999
33381SOL    HW1 7193   6.173   1.430   6.617  1.3910 -0.1975 -0.9202
33381SOL    HW2 7194   6.161   1.564   6.548 -2.0142  0.0628 -0.0197
33382SOL     OW 7195   8.516   2.176   6.649  0.3102 -0.3608  0.6967
33382SOL    HW1 7196   8.423   2.186   6.626  0.6899  0.3860 -0.6528
33382SOL    HW2 7197   8.537   2.087   6.622  0.0069 -0.5106  0.9440
33383SOL     OW 7198  10.991   9.264   9.852 -0.1562 -0.2464 -0.6226
33383SOL    HW1 7199  10.971   9.201   9.783 -0.7973  0.3535 -0.9992
33383SOL    HW2 7200  11.084   9.252   9.869  0.1599  0.0022 -2.0254
33384SOL     OW 7201   9.142   1.822   7.348  0.5154  0.2175  0.0733
33384SOL    HW1 7202   9.154   1.765   7.273 -0.7610 -0.7278  0.5530
33384SOL    HW2 7203   9.140   1.910   7.311  0.3933 -0.1930 -0.9341
33385SOL     OW 7204  10.891   3.735  10.289  0.7470  0.1544 -0.2871
33385SOL    HW1 7205  10.837   3.681  10.231  1.1111 -1.1276  0.5219
33385SOL    HW2 7206  10.941   3.672  10.340 -1.1803  1.1087  3.0646
33386SOL     OW 7207   2.162   3.891   1.598 -0.2282 -0.3959  0.2768
33386SOL    HW1 7208   2.100   3.821   1.576 -0.3723 -0.7031  1.5585
33386SOL    HW2 7209   2.131   3.967   1.549 -1.6515 -0.5372  0.8872
33387SOL     OW 7210   4.283   1.089   5.095 -0.4307 -0.0668  0.8615
33387SOL    HW1 7211   4.219   1.160   5.100 -0.7289 -0.3777  1.7783
33387SOL    HW2 7212   4.309   1.074   5.186  1.2058  0.2725  0.4752
33388SOL     OW 7213   8.544   7.275   9.144 -0.1908  0.5027 -0.3104
33388SOL    HW1 7214   8.581   7.240   9.226 -2.8205  0.9387  1.1630
33388SOL    HW2 7215   8.452   7.289   9.164 -1.0389  0.1708 -3.5567
33389SOL     OW 7216   2.845   2.524   9.789 -0.3532 -0.3580 -0.4967
33389SOL    HW1 7217   2.854   2.554   9.879 -0.8083 -0.2753 -0.4762
33389SOL    HW2 7218   2.754   2.494   9.782 -0.0052 -1.4319 -0.6103
33390SOL     OW 7219   8.380   8.773   3.388 -0.3852 -0.3791 -0.1664
33390SOL    HW1 7220   8.386   8.808   3.299  0.2207  1.3314  0.5182
33390SOL    HW2 7221   8.460   8.721   3.399 -0.4969 -0.6558 -0.6311
33391SOL     OW 7222  12.419   8.269   2.700 -0.1372 -0.5846  0.4891
33391SOL    HW1 7223  12.438   8.176   2.708  1.9153 -0.3378 -0.8301
33391SOL    HW2 7224  12.324   8.275   2.709 -0.4972 -2.9954 -0.9493
33392SOL     OW 7225   8.511   1.143   1.156  0.4306  0.0147 -0.2423
33392SOL    HW1 7226   8.496   1.057   1.194  0.8949 -0.1751 -0.4822
33392SOL    HW2 7227   8.576   1.128   1.088  1.8879  0.8524  0.9133
33393SOL     OW 7228  11.793   8.375  10.520  0.3039 -0.0849  0.0539
33393SOL    HW1 7229  11.819   8.435  10.590  1.7850 -0.3877 -0.2128
33393SOL    HW2 7230  11.780   8.431  10.444  0.2551  0.0552  0.1639
33394SOL     OW 7231   2.376   9.762   2.361  0.3040 -0.3652 -0.0406
33394SOL    HW1 7232   2.412   9.684   2.319  0.6905  0.5327 -1.4356
33394SOL    HW2 7233   2.282   9.747   2.362  0.4885 -1.6926  1.5040
33395SOL     OW 7234   6.585  12.099   4.736 -0.5314  0.3391  0.4197
33395SOL    HW1 7235   6.577  12.012   4.697 -0.6455 -0.0203  1.2208
33395SOL    HW2 7236   6.680  12.113   4.742 -0.4576 -0.4996  1.8883
33396SOL     OW 7237   5.092  12.098   2.144 -0.0819 -0.5907 -0.4022
33396SOL    HW1 7238   5.026  12.164   2.120 -0.8943 -0.6166  1.6186
33396SOL    HW2 7239   5.098  12.042   2.066  0.4682  1.6561 -2.1053
33397SOL     OW 7240  11.752   8.636   7.663  0.3576 -0.7695 -0.1583
33397SOL    HW1 7241  11.834   8.587   7.663 -0.5151 -2.2860 -0.1694
33397SOL    HW2 7242  11.721   8.633   7.753  0.1469 -0.4743 -0.2158
33398SOL     OW 7243  10.365   1.232   0.094 -0.1135  0.1175 -0.4114
33398SOL    HW1 7244  10.285   1.255   0.142 -0.6939  1.1873 -1.8207
33398SOL    HW2 7245  10.360   1.283   0.013  1.7517 -0.2014 -0.7741
33399SOL     OW 7246  11.405   2.446   9.075 -0.3427 -0.0662  0.3391
33399SOL    HW1 7247  11.330   2.404   9.033 -0.5719  0.3536  0.3271
33399SOL    HW2 7248  11.449   2.492   9.004  0.0522 -0.4904  0.3049
33400SOL     OW 7249   9.126  10.445   4.923 -0.1082  0.1390  0.1537
33400SOL    HW1 7250   9.127  10.396   5.005 -1.7471  0.2147  0.2494
33400SOL    HW2 7251   9.033  10.454   4.901  0.1372  2.8059 -0.0938
33401SOL     OW 7252   9.433   2.211   0.640  0.6017 -0.5089  0.6698
33401SOL    HW1 7253   9.519   2.253   0.647  0.7553 -0.8434  0.8073
33401SOL    HW2 7254   9.441   2.132   0.693 -0.3577  0.3631  2.1989
33402SOL     OW 7255  10.231   9.118   8.681  0.1368  0.5665 -0.2533
33402SOL    HW1 7256  10.191   9.124   8.594  2.8991  1.2150 -1.6082
33402SOL    HW2 7257  10.302   9.183   8.679  0.0329  0.8972  2.6693
33403SOL     OW 7258  11.249   3.197  12.297  0.5772 -0.1511  0.0530
33403SOL    HW1 7259  11.234   3.238  12.212  0.3934  0.3232  0.3064
33403SOL    HW2 7260  11.219   3.263  12.361 -2.5420 -1.7924  0.4639
33404SOL     OW 7261  10.977  11.550   2.673  0.4155  0.2336 -0.3934
33404SOL    HW1 7262  11.035  11.495   2.726  2.1017  0.5682 -1.8008
33404SOL    HW2 7263  11.021  11.635   2.669 -1.6711  1.4661  0.9128
33405SOL     OW 7264   8.829   3.524  11.241 -0.7434 -0.2555 -0.0563
33405SOL    HW1 7265   8.886   3.555  11.171  0.8265 -1.6247  0.5702
33405SOL    HW2 7266   8.816   3.601  11.296  0.4948  0.0897 -0.2177
33406SOL     OW 7267   9.190   1.507   7.754  0.5028 -0.6990 -0.0827
33406SOL    HW1 7268   9.258   1.551   7.702  0.7894 -2.3018 -1.0987
33406SOL    HW2 7269   9.116   1.568   7.754  0.9757 -0.1082 -1.2475
33407SOL     OW 7270   8.758   6.170   3.606  0.8037 -0.0150 -0.6512
33407SOL    HW1 7271   8.837   6.141   3.652 -0.3448 -1.6589  0.4046
33407SOL    HW2 7272   8.788   6.240   3.549  2.5732  1.1779  1.5762
33408SOL     OW 7273   2.272   9.587   7.277 -0.2906  0.3101  0.2037
33408SOL    HW1 7274   2.292   9.498   7.306  1.3362  1.0636  1.6048
33408SOL    HW2 7275   2.354   9.619   7.239 -1.5707  0.3740 -2.7579
33409SOL     OW 7276   6.390  10.635  11.042 -0.3869 -0.5208  1.2139
33409SOL    HW1 7277   6.382  10.619  11.136 -0.4647 -1.3549  1.0691
33409SOL    HW2 7278   6.310  10.599  11.004  0.1422 -1.1843  0.7041
33410SOL     OW 7279   2.218   1.662   3.134 -0.0198 -0.6273 -0.1339
33410SOL    HW1 7280   2.303   1.705   3.118  0.0589 -1.3892 -2.0685
33410SOL    HW2 7281   2.219   1.586   3.076 -1.2499 -1.7681  1.2675
33411SOL     OW 7282   0.017  10.653   1.744 -0.6290  0.0485  1.1731
33411SOL    HW1 7283   0.027  10.656   1.839 -0.9498  0.5297  1.1956
33411SOL    HW2 7284  -0.050  10.719   1.725  0.9295  1.4746  0.4052
33412SOL     OW 7285   5.419   8.256   8.695 -0.7479 -0.4218  0.0940
33412SOL    HW1 7286   5.383   8.340   8.722 -1.1188  0.0041 -1.6296
33412SOL    HW2 7287   5.472   8.276   8.618 -0.3012 -1.6724  0.0486
33413SOL     OW 7288   0.725   6.785  12.207  0.4368 -0.5406  0.5779
33413SOL    HW1 7289   0.721   6.781  12.302 -1.3979 -3.1258  0.4916
33413SOL    HW2 7290   0.637   6.813  12.180  1.0421  0.5606 -0.3906
33414SOL     OW 7291   1.997   6.264   8.513 -0.0616  1.3368 -0.3819
33414SOL    HW1 7292   2.033   6.293   8.430  0.9187 -2.3169 -1.4026
33414SOL    HW2 7293   1.902   6.265   8.500 -0.0357  3.0765 -0.6246
33415SOL     OW 7294   2.853   3.587  10.186 -0.6992  0.0004  0.3167
33415SOL    HW1 7295   2.792   3.525  10.144 -1.9788  1.6254 -0.3481
33415SOL    HW2 7296   2.800   3.631  10.252  0.5743 -0.5586  1.7510
33416SOL     OW 7297   3.499   2.703   0.468  0.8035 -0.2048  0.1686
33416SOL    HW1 7298   3.540   2.644   0.532  1.9222  0.8735  0.4943
33416SOL    HW2 7299   3.566   2.716   0.401  0.8330  1.1719  0.4310
33417SOL     OW 7300  10.199  10.351  11.132  0.1264  0.4081 -0.6166
33417SOL    HW1 7301  10.161  10.388  11.053 -0.5817  0.4304 -0.2733
33417SOL    HW2 7302  10.259  10.284  11.101 -1.2223 -0.6019 -1.1429
33418SOL     OW 7303   2.028  12.434   5.354 -0.2187 -0.0289  0.1315
33418SOL    HW1 7304   2.056  12.370   5.288  1.0126 -0.8989  1.4341
33418SOL    HW2 7305   1.933  12.442   5.341  0.0003 -0.0709 -1.7927
33419SOL     OW 7306   7.994   3.406   5.501  0.3875  0.3780  0.0382
33419SOL    HW1 7307   8.006   3.455   5.583 -1.0448 -1.6002  1.5411
33419SOL    HW2 7308   7.911   3.360   5.513  0.3943 -0.3844 -2.3608
33420SOL     OW 7309   6.134  10.903   9.369 -0.0269  0.6595  0.4697
33420SOL    HW1 7310   6.108  10.973   9.429  0.4041  0.9630  0.3049
33420SOL    HW2 7311   6.097  10.930   9.285  1.0465  1.2360  0.1727
33421SOL     OW 7312  11.369   9.087   1.076  0.1919  0.3939  0.1728
33421SOL    HW1 7313  11.440   9.082   1.140  1.5211  1.0672 -1.1900
33421SOL    HW2 7314  11.381   9.010   1.021  0.0292  0.6654 -0.2422
33422SOL     OW 7315   8.499   2.341   6.116  0.1528  0.1043  0.0157
33422SOL    HW1 7316   8.548   2.339   6.034 -0.7944  0.7163 -0.5838
33422SOL    HW2 7317   8.557   2.388   6.177  0.1147  1.3055 -0.8344
33423SOL     OW 7318  11.641   9.924   3.156  0.2877  0.4869  0.3752
33423SOL    HW1 7319  11.613   9.938   3.247 -0.2201  0.5577  0.2065
33423SOL    HW2 7320  11.646  10.012   3.118 -1.9102  0.3301 -0.3830
33424SOL     OW 7321   5.881   4.794   6.711 -0.7970 -0.1916  0.3910
33424SOL    HW1 7322   5.883   4.872   6.656  1.1200 -0.7064 -0.3321
33424SOL    HW2 7323   5.830   4.730   6.661 -0.7417 -0.0229  0.1171
33425SOL     OW 7324  11.902   6.140   2.709 -0.6137 -0.2250  0.3126
33425SOL    HW1 7325  11.907   6.231   2.681 -0.6510 -0.6041 -1.0104
33425SOL    HW2 7326  11.821   6.135   2.761  0.5592  0.9574  2.3712
33426SOL     OW 7327  10.645   4.422   6.665 -0.5645 -0.3442 -0.5308
33426SOL    HW1 7328  10.642   4.327   6.681 -1.3411 -0.1271  0.8015
33426SOL    HW2 7329  10.608   4.460   6.745  1.2409  1.1606 -0.3524
33427SOL     OW 7330   6.760   5.952   3.421 -0.6321 -0.0610 -0.0129
33427SOL    HW1 7331   6.737   5.966   3.329  0.0093  0.0903 -0.1544
33427SOL    HW2 7332   6.805   5.868   3.422 -0.0714  0.2381  0.0616
33428SOL     OW 7333   8.750   8.524  11.104  0.2272 -0.4185 -0.4426
33428SOL    HW1 7334   8.842   8.537  11.128  0.3124 -1.0492 -0.4193
33428SOL    HW2 7335   8.752   8.464  11.029 -0.2564 -2.5667  1.1576
33429SOL     OW 7336   8.349   3.361   0.005 -0.1472 -0.1209  0.1488
33429SOL    HW1 7337   8.295   3.419  -0.049  0.8782 -0.4689 -1.3004
33429SOL    HW2 7338   8.329   3.388   0.095 -1.8344  0.5427 -0.3660
33430SOL     OW 7339   8.851   8.787   1.438 -0.1214  0.2833 -0.0194
33430SOL    HW1 7340   8.786   8.812   1.373  0.0253 -1.3921 -0.8782
33430SOL    HW2 7341   8.935   8.795   1.392  0.0052 -0.6149  0.0387
33431SOL     OW 7342   7.704   3.846   7.855  0.2681  0.1837  0.1411
33431SOL    HW1 7343   7.717   3.810   7.943  0.9688 -2.6468 -0.9963
33431SOL    HW2 7344   7.613   3.824   7.834 -0.3428  2.0806  0.6015
33432SOL     OW 7345  10.940  11.581  12.313 -0.0335 -0.1802 -0.3265
33432SOL    HW1 7346  11.007  11.543  12.255  1.0969  1.7928 -0.3890
33432SOL    HW2 7347  10.962  11.546  12.399  1.7803  1.1875 -0.1613
33433SOL     OW 7348   8.575   0.722   9.400  0.2041 -0.2472 -0.2515
33433SOL    HW1 7349   8.558   0.628   9.403  0.7327 -0.3326  0.4357
33433SOL    HW2 7350   8.657   0.731   9.352  0.7122 -0.2334  0.5939
33434SOL     OW 7351  11.229  10.215   9.381 -0.1748 -0.3012  0.2776
33434SOL    HW1 7352  11.196  10.252   9.299  0.0105  0.6208  0.5990
33434SOL    HW2 7353  11.191  10.128   9.386 -1.3999  0.1928 -0.0605
33435SOL     OW 7354   2.181  10.581  10.103 -0.0985 -0.0026  0.0090
33435SOL    HW1 7355   2.110  10.618  10.050 -0.5838 -0.7405  0.1263
33435SOL    HW2 7356   2.259  10.631  10.078 -0.1510 -0.8189 -1.9857
33436SOL     OW 7357   1.215  12.327   7.141 -0.0596 -0.2833 -0.2457
33436SOL    HW1 7358   1.136  12.276   7.120 -0.5226 -0.3626  1.5124
33436SOL    HW2 7359   1.287  12.272   7.112 -0.6331 -0.4857 -1.3367
33437SOL     OW 7360   3.760   5.068  11.983 -0.7467 -0.1380  0.1422
33437SOL    HW1 7361   3.821   5.055  12.055 -0.1872 -0.4215 -0.3709
33437SOL    HW2 7362   3.675   5.083  12.025 -0.3071  0.3661  0.8615
33438SOL     OW 7363   8.656  12.387  12.397 -0.0668  0.1996 -0.3560
33438SOL    HW1 7364   8.594  12.382  12.470 -0.9353  1.3655 -0.9893
33438SOL    HW2 7365   8.738  12.414  12.438 -0.1178 -0.6965  0.3964
33439SOL     OW 7366  11.979   3.881  11.714  0.6408  0.1892  0.0250
33439SOL    HW1 7367  12.030   3.951  11.755  0.4322  0.5238 -0.2844
33439SOL    HW2 7368  11.893   3.887  11.756  0.5997  0.1677 -0.0566
33440SOL     OW 7369   9.143   2.288   7.589 -0.3868 -0.5017  0.3369
33440SOL    HW1 7370   9.206   2.359   7.598  0.9427 -1.5001 -0.7233
33440SOL    HW2 7371   9.063   2.331   7.557  0.5415  0.4440 -0.7910
33441SOL     OW 7372   5.239   2.842   7.402  0.2558  0.1816  0.7227
33441SOL    HW1 7373   5.147   2.865   7.385 -0.3581 -0.9228  2.3145
33441SOL    HW2 7374   5.259   2.882   7.486  1.4924  1.0282  0.0451
33442SOL     OW 7375  12.078   9.737   1.012  0.0210  0.0942  0.3992
33442SOL    HW1 7376  12.137   9.813   1.012 -0.2249  0.2883  0.8161
33442SOL    HW2 7377  12.094   9.694   1.096  0.0614 -0.2388  0.2198
33443SOL     OW 7378   2.626  11.343   5.864 -0.1782  0.2645 -0.1905
33443SOL    HW1 7379   2.579  11.420   5.897 -1.7045 -0.4142 -0.7012
33443SOL    HW2 7380   2.558  11.278   5.848  0.9047 -0.6505 -1.3049
33444SOL     OW 7381   2.821   9.741   8.052  0.4525 -0.0765  0.3779
33444SOL    HW1 7382   2.807   9.646   8.045 -1.0366  0.2172 -0.7931
33444SOL    HW2 7383   2.745   9.781   8.011  2.1585  1.6440 -1.3673
33445SOL     OW 7384   4.305   7.017   6.834 -0.1522  0.7911 -0.1415
33445SOL    HW1 7385   4.294   6.973   6.750  0.2713  1.3405 -0.4911
33445SOL    HW2 7386   4.239   6.977   6.891  0.4336 -0.5073 -0.3591
33446SOL     OW 7387   8.869   7.664   0.826 -0.2497 -0.2812 -0.0208
33446SOL    HW1 7388   8.866   7.668   0.921 -1.2989  1.9832 -0.0672
33446SOL    HW2 7389   8.791   7.614   0.801 -2.6824  2.9580  0.3306
33447SOL     OW 7390   0.138   9.846  11.431  0.1212 -0.4443 -0.4724
33447SOL    HW1 7391   0.127   9.880  11.520  2.4285 -1.0344  0.1122
33447SOL    HW2 7392   0.090   9.908  11.376 -1.3213 -0.0366  1.1593
33448SOL     OW 7393   6.779   4.327   0.243  0.7165  0.1160 -0.2791
33448SOL    HW1 7394   6.761   4.254   0.303  0.3793 -1.4479 -2.1936
33448SOL    HW2 7395   6.714   4.318   0.173  3.0031 -0.0483 -2.5123
33449SOL     OW 7396   4.674  10.231   6.722 -0.5147  0.2744 -0.9069
33449SOL    HW1 7397   4.682  10.262   6.813  1.2811  1.2527 -1.3543
33449SOL    HW2 7398   4.583  10.200   6.716 -0.5450 -0.3315  1.3684
33450SOL     OW 7399   0.255   2.963   9.267  0.1299  0.3199 -0.1401
33450SOL    HW1 7400   0.263   3.021   9.342  0.9722  1.1157 -0.8266
33450SOL    HW2 7401   0.283   3.015   9.192 -0.9049 -0.3810 -1.0577
33451SOL     OW 7402  12.043  10.585   3.419  0.5348  0.1534  0.2539
33451SOL    HW1 7403  12.127  10.619   3.386  0.3183  0.2829 -0.1592
33451SOL    HW2 7404  12.000  10.548   3.343 -1.0564  2.6478 -0.1586
33452SOL     OW 7405   6.451   6.920   9.370 -0.0972 -0.3200  0.1512
33452SOL    HW1 7406   6.369   6.871   9.360 -1.0932  1.5989 -2.2020
33452SOL    HW2 7407   6.474   6.947   9.281  1.9844  0.9408  0.9970
33453SOL     OW 7408   7.308  12.289   1.747 -0.1019 -0.1434 -0.1000
33453SOL    HW1 7409   7.296  12.372   1.794  0.6562  0.0092 -0.1501
33453SOL    HW2 7410   7.401  12.269   1.759 -0.6167 -1.9529  1.5004
33454SOL     OW 7411   6.914   7.261   5.456  0.2151  0.1714 -0.2865
33454SOL    HW1 7412   6.887   7.300   5.539 -1.5508  0.2038 -0.8287
33454SOL    HW2 7413   6.832   7.247   5.408  1.0469 -1.4012 -1.3459
33455SOL     OW 7414   0.280   1.781   8.070  0.4963  0.0817 -0.1656
33455SOL    HW1 7415   0.235   1.848   8.123 -1.1840 -0.3342 -1.0168
33455SOL    HW2 7416   0.314   1.719   8.135  2.7122  2.0429  0.7080
33456SOL     OW 7417   0.930   5.265  10.985 -0.2199  0.0509  0.0856
33456SOL    HW1 7418   0.950   5.285  10.893  1.3418  0.3104  0.4489
33456SOL    HW2 7419   0.962   5.341  11.034 -0.4887 -0.3470  0.8979
33457SOL     OW 7420   6.782   6.866  10.435  0.1162  0.6544  0.0715
33457SOL    HW1 7421   6.740   6.810  10.500  0.8492 -1.0746 -0.8846
33457SOL    HW2 7422   6.851   6.911  10.483 -1.1411  1.5978  1.0805
33458SOL     OW 7423   4.259   0.935   7.324  0.3218  0.0971 -0.1893
33458SOL    HW1 7424   4.220   0.986   7.395  1.0275  0.3793  0.0019
33458SOL    HW2 7425   4.341   0.902   7.360  0.5661  0.0391 -0.7901
33459SOL     OW 7426  11.826   5.472  11.470  0.0023  0.1336  0.3779
33459SOL    HW1 7427  11.892   5.540  11.457 -0.8393  0.6208 -1.7122
33459SOL    HW2 7428  11.798   5.482  11.561  2.3730  0.2717  1.1577
33460SOL     OW 7429   5.984   9.607   9.519  0.0886  0.0901  0.2172
33460SOL    HW1 7430   6.056   9.592   9.457 -0.0661  0.0223  0.0503
33460SOL    HW2 7431   5.972   9.522   9.561 -1.5955 -0.6307 -1.5924
33461SOL     OW 7432   3.745  11.387  10.942  0.6164  0.4293 -0.2731
33461SOL    HW1 7433   3.798  11.316  10.980  1.5645  1.1835 -0.1548
33461SOL    HW2 7434   3.659  11.347  10.928  0.5175 -0.1841  1.7213
33462SOL     OW 7435   9.931  10.800   2.415  0.2462  0.1450  0.3375
33462SOL    HW1 7436   9.902  10.738   2.349  0.1123  2.1646 -1.6188
33462SOL    HW2 7437   9.881  10.776   2.494 -1.1633 -1.0594 -0.8542
33463SOL     OW 7438   8.366   3.003   9.602  0.2962  0.0729 -0.2550
33463SOL    HW1 7439   8.276   3.026   9.578  0.3236 -0.1243 -0.5454
33463SOL    HW2 7440   8.358   2.922   9.651  0.4263 -0.6204 -1.3513
33464SOL     OW 7441   6.726   4.103   6.363  0.2314  0.2021 -0.3075
33464SOL    HW1 7442   6.711   4.160   6.289 -0.0972  0.0888 -0.3297
33464SOL    HW2 7443   6.723   4.160   6.439 -1.3568  0.0440 -0.2166
33465SOL     OW 7444   5.632   7.327   2.339 -0.1035 -0.0118  0.2834
33465SOL    HW1 7445   5.667   7.415   2.352  0.9400 -0.3960  0.1624
33465SOL    HW2 7446   5.583   7.332   2.257 -0.5811  0.6041  0.5977
33466SOL     OW 7447   6.139   3.149   0.826  0.0869  0.6831  0.9242
33466SOL    HW1 7448   6.171   3.232   0.791  0.3324 -0.2549 -1.1768
33466SOL    HW2 7449   6.218   3.105   0.857  0.4809 -0.2283 -1.2306
33467SOL     OW 7450  11.502   7.490  11.810  0.3654 -0.0785 -0.1382
33467SOL    HW1 7451  11.466   7.565  11.857  1.7552  0.8609 -0.5301
33467SOL    HW2 7452  11.542   7.436  11.878 -0.2923 -0.2858  0.0960
33468SOL     OW 7453   3.638   0.487   6.796  0.2316 -0.4668  0.2876
33468SOL    HW1 7454   3.691   0.413   6.825  0.4813  0.0194  1.0885
33468SOL    HW2 7455   3.625   0.540   6.874 -1.5603 -0.6387  0.1685
33469SOL     OW 7456  11.287  12.549  11.215 -0.0048 -0.3084  0.5038
33469SOL    HW1 7457  11.228  12.624  11.204  0.2825 -0.2869 -0.9607
33469SOL    HW2 7458  11.293  12.510  11.129  0.8726 -1.2724  0.9844
33470SOL     OW 7459  10.454   0.929  10.070  0.0444  0.2403 -0.4726
33470SOL    HW1 7460  10.463   0.928   9.974  0.2394 -0.6167 -0.4524
33470SOL    HW2 7461  10.362   0.947  10.086 -0.3954 -1.4854 -0.8662
33471SOL     OW 7462   9.902  10.542   6.808  0.2374  0.2375  0.0427
33471SOL    HW1 7463   9.932  10.519   6.896 -1.1376  0.8142  0.6959
33471SOL    HW2 7464   9.854  10.623   6.820 -1.3701 -0.5209 -0.9597
33472SOL     OW 7465   9.262  12.055   1.425 -0.0197  0.2705  0.1607
33472SOL    HW1 7466   9.274  11.971   1.380  0.6585 -0.5686  1.7842
33472SOL    HW2 7467   9.285  12.121   1.361  1.1455 -0.8702 -0.6337
33473SOL     OW 7468   7.393  11.713   9.116  0.1968  0.0578 -0.5915
33473SOL    HW1 7469   7.406  11.803   9.085  1.3176  0.1677  0.1451
33473SOL    HW2 7470   7.314  11.717   9.170 -0.4111  0.3495 -1.4771
33474SOL     OW 7471   7.234  10.439   0.431 -0.2006  0.1824 -0.3251
33474SOL    HW1 7472   7.244  10.533   0.446 -1.3368  0.1494  0.8187
33474SOL    HW2 7473   7.300  10.398   0.487 -0.2068  0.2692 -0.2547
33475SOL     OW 7474  12.195   3.789  11.260 -0.0678  0.1122  0.9060
33475SOL    HW1 7475  12.145   3.718  11.219  1.5423 -1.5007  1.5810
33475SOL    HW2 7476  12.257   3.817  11.193  1.9613 -1.9111  1.8228
33476SOL     OW 7477   9.673   2.244   2.285 -0.2496  0.9268  0.6803
33476SOL    HW1 7478   9.635   2.205   2.206  2.5800  0.1401 -0.4364
33476SOL    HW2 7479   9.709   2.169   2.333  1.1333  1.6818  0.8798
33477SOL     OW 7480  12.002   5.874   1.954 -0.0109  0.3166  0.8257
33477SOL    HW1 7481  12.086   5.920   1.947  0.1788 -0.1289  0.0003
33477SOL    HW2 7482  11.968   5.898   2.040  1.2160  0.0670  1.3921
33478SOL     OW 7483   7.577  12.197   1.257  0.6258  0.0328 -0.5694
33478SOL    HW1 7484   7.570  12.215   1.351  1.1480 -0.5515 -0.4106
33478SOL    HW2 7485   7.501  12.241   1.219  0.2945  0.1070  0.1495
33479SOL     OW 7486  10.607   2.705   9.002 -0.1804  0.1745 -0.6501
33479SOL    HW1 7487  10.525   2.729   8.959 -0.2853  0.9724 -0.0152
33479SOL    HW2 7488  10.582   2.681   9.091  0.1849 -0.3460 -0.6810
33480SOL     OW 7489   7.409   2.153  11.062 -0.1513 -0.3417 -0.6338
33480SOL    HW1 7490   7.467   2.154  11.138  0.3450  1.8960 -0.9507
33480SOL    HW2 7491   7.455   2.100  10.997  2.2118  2.2145 -1.2484
33481SOL     OW 7492   9.003   6.881  11.834  0.1605  0.4029 -0.3459
33481SOL    HW1 7493   9.073   6.845  11.888  0.3087  1.2612  0.0461
33481SOL    HW2 7494   8.924   6.836  11.864  0.0883  1.4854  1.2312
33482SOL     OW 7495   2.644   9.671  10.785 -0.5559  0.0516  0.6935
33482SOL    HW1 7496   2.676   9.667  10.875 -1.5228  0.2051  1.0611
33482SOL    HW2 7497   2.680   9.593  10.743 -0.8236 -0.5118  1.4722
33483SOL     OW 7498   8.550   6.287   5.770  0.0770  0.0878 -0.1052
33483SOL    HW1 7499   8.508   6.328   5.846  0.2626  0.1136 -0.0160
33483SOL    HW2 7500   8.618   6.231   5.808 -0.4307 -0.6153 -0.1982
33484SOL     OW 7501   0.472   6.562  10.971 -0.3485 -0.1966  0.2419
33484SOL    HW1 7502   0.455   6.639  10.917 -0.1449  0.6698  1.3696
33484SOL    HW2 7503   0.467   6.594  11.061  1.4841 -1.1291  0.7150
33485SOL     OW 7504  10.013   5.406   0.089 -0.0057 -0.0791  0.5189
33485SOL    HW1 7505  10.016   5.339   0.157 -1.8897  1.0357  1.8088
33485SOL    HW2 7506   9.927   5.397   0.049  0.2633  0.6556 -0.2854
33486SOL     OW 7507   0.370  11.821   7.195 -0.3519 -0.4520  0.2309
33486SOL    HW1 7508   0.296  11.882   7.200  0.5674  0.9926 -2.2486
33486SOL    HW2 7509   0.331  11.739   7.164 -0.9248  0.3806 -1.3604
33487SOL     OW 7510  10.574  10.745   6.839  0.5161  0.1580  0.0095
33487SOL    HW1 7511  10.615  10.739   6.752  0.5057  0.7927 -0.0390
33487SOL    HW2 7512  10.546  10.836   6.846 -2.6157 -0.6115 -0.7723
33488SOL     OW 7513   9.408   6.936   7.673  0.7254 -0.0239 -0.0179
33488SOL    HW1 7514   9.369   6.978   7.596 -0.2207  0.3065  0.6188
33488SOL    HW2 7515   9.396   6.842   7.657 -0.6648  0.0774  0.3137
33489SOL     OW 7516   5.296   4.561   3.909  0.0048  0.1019 -0.5394
33489SOL    HW1 7517   5.349   4.640   3.920  0.6355 -0.3526 -0.2121
33489SOL    HW2 7518   5.317   4.508   3.986  0.1663 -0.7028 -1.1257
33490SOL     OW 7519   3.488   5.221   0.796  0.2297  0.1860  0.3168
33490SOL    HW1 7520   3.486   5.290   0.863 -0.6952  0.8601 -0.3783
33490SOL    HW2 7521   3.405   5.231   0.749  1.2673  0.3784 -1.5882
33491SOL     OW 7522   6.467   6.531   4.154 -0.6518 -0.3419 -0.0660
33491SOL    HW1 7523   6.389   6.576   4.188  0.1970  1.9035 -0.8485
33491SOL    HW2 7524   6.540   6.579   4.193  0.3290  0.8246 -3.0871
33492SOL     OW 7525   2.874  12.137  12.381 -0.1887  0.0029 -0.4606
33492SOL    HW1 7526   2.833  12.212  12.423  3.3229  1.1611  1.3325
33492SOL    HW2 7527   2.887  12.163  12.290 -0.5850  0.8549 -0.2738
33493SOL     OW 7528  11.023  11.174  10.743  0.1064  0.0393 -0.1516
33493SOL    HW1 7529  11.004  11.081  10.739 -0.1873  0.1576 -2.4316
33493SOL    HW2 7530  11.014  11.196  10.836  0.2489 -2.1855  0.4432
33494SOL     OW 7531  10.840   1.214   6.199 -0.5268 -0.4560  0.4121
33494SOL    HW1 7532  10.884   1.292   6.165 -0.1192 -0.5895  0.6235
33494SOL    HW2 7533  10.749   1.240   6.212 -0.3480  0.0450  0.6769
33495SOL     OW 7534   7.767   5.945   1.656 -0.0838  0.4043 -0.0115
33495SOL    HW1 7535   7.772   6.040   1.641 -0.1061  0.3215 -0.5493
33495SOL    HW2 7536   7.673   5.928   1.670  0.1398  0.8349  2.6747
33496SOL     OW 7537   9.628   1.294  12.038  0.1824 -0.3448 -0.0684
33496SOL    HW1 7538   9.554   1.273  12.096  0.1268  0.2355  0.0762
33496SOL    HW2 7539   9.588   1.301  11.951  0.0129  0.2686  0.0559
33497SOL     OW 7540   7.090   3.864  10.461  0.1192  0.2388 -0.5034
33497SOL    HW1 7541   7.022   3.807  10.496  0.4126  0.2457  0.0914
33497SOL    HW2 7542   7.140   3.892  10.538 -0.1967  1.5290 -0.7394
33498SOL     OW 7543   3.302   2.881   2.020 -0.4014 -0.7055  0.3660
33498SOL    HW1 7544   3.310   2.936   1.942 -1.7470 -1.0242 -0.0256
33498SOL    HW2 7545   3.214   2.843   2.013  0.1541 -2.1711  1.1058
33499SOL     OW 7546   9.145   0.460  11.432 -0.4233 -0.0899  0.6956
33499SOL    HW1 7547   9.204   0.526  11.396 -0.3412 -1.1462 -1.2502
33499SOL    HW2 7548   9.117   0.496  11.516  0.2193  2.0370  0.0605
33500SOL     OW 7549   9.763   6.503  12.256  0.1058  0.0421 -0.4144
33500SOL    HW1 7550   9.748   6.417  12.295  0.3335  1.1589  2.3508
33500SOL    HW2 7551   9.826   6.545  12.315 -1.8728  3.0242 -0.2192
33501SOL     OW 7552   6.892   6.590   4.941 -0.3780 -0.4005  0.8059
33501SOL    HW1 7553   6.977   6.559   4.974  0.5392  0.0946 -0.9972
33501SOL    HW2 7554   6.904   6.684   4.928 -1.7101 -0.0364  1.9145
33502SOL     OW 7555  12.354   9.315   9.367  0.0813  0.0109 -0.4295
33502SOL    HW1 7556  12.301   9.375   9.314  0.7365 -0.1133 -1.2313
33502SOL    HW2 7557  12.408   9.268   9.304  0.9406 -0.0785  0.3541
33503SOL     OW 7558   1.643   1.593  12.101  1.1366 -0.3258  0.0547
33503SOL    HW1 7559   1.597   1.658  12.048  1.3733  0.4828  0.8259
33503SOL    HW2 7560   1.601   1.597  12.187  1.0666 -1.2942  0.0783
33504SOL     OW 7561   9.661   3.437   3.824 -0.2309 -0.1285 -0.1801
33504SOL    HW1 7562   9.697   3.494   3.756  0.5157 -1.1268 -0.6643
33504SOL    HW2 7563   9.712   3.356   3.815 -1.0349 -0.7423  0.6969
33505SOL     OW 7564   6.980   5.245   5.009  0.1466  0.4066 -0.0907
33505SOL    HW1 7565   7.074   5.226   5.008  0.5815  2.2476 -2.4057
33505SOL    HW2 7566   6.946   5.189   5.079  2.9210 -0.4018  0.7789
33506SOL     OW 7567  10.937   7.248   8.737  0.1450  0.6922 -0.1669
33506SOL    HW1 7568  10.885   7.264   8.658 -1.0576  1.3200  0.7121
33506SOL    HW2 7569  10.923   7.327   8.790  1.1775  0.4093  0.5466
33507SOL     OW 7570   9.809  10.392   0.800  0.2140 -0.1425 -0.2825
33507SOL    HW1 7571   9.843  10.306   0.826 -0.5604  0.1462  1.9093
33507SOL    HW2 7572   9.878  10.430   0.746  2.2442 -0.6409  1.7905
33508SOL     OW 7573   5.953   9.568   4.339 -0.2440  0.3375  0.1209
33508SOL    HW1 7574   5.895   9.538   4.269 -1.7363  0.0200  1.4455
33508SOL    HW2 7575   5.994   9.489   4.373 -1.2843  0.2036  1.1065
33509SOL     OW 7576   9.097   9.050   8.363  0.4354 -0.0809  0.1009
33509SOL    HW1 7577   9.122   9.129   8.315 -0.9095  0.1092 -0.3091
33509SOL    HW2 7578   9.093   8.981   8.297  0.0096 -0.1420  0.1914
33510SOL     OW 7579   1.987   7.736   0.342  0.1222 -0.6175  0.0708
33510SOL    HW1 7580   1.962   7.661   0.396 -0.1984 -1.0911 -0.7075
33510SOL    HW2 7581   1.979   7.704   0.252  0.4280  0.2170 -0.2646
33511SOL     OW 7582   6.274   4.090   3.849 -0.2944 -0.5771  0.2026
33511SOL    HW1 7583   6.217   4.111   3.923 -1.6447  0.8309 -1.1681
33511SOL    HW2 7584   6.288   4.174   3.805  0.4932 -1.3759 -1.1277
33512SOL     OW 7585   9.154   5.171   9.316  0.4886 -0.3098 -0.2591
33512SOL    HW1 7586   9.224   5.105   9.312  0.2962 -0.5060 -0.4013
33512SOL    HW2 7587   9.161   5.217   9.232 -0.3908 -1.1926 -0.8373
33513SOL     OW 7588   1.393   9.013  10.454 -0.5616 -0.3379 -0.5893
33513SOL    HW1 7589   1.461   9.075  10.482  0.8595 -1.7513 -0.7299
33513SOL    HW2 7590   1.328   9.067  10.409  0.7501  1.0217 -0.9303
33514SOL     OW 7591  10.978   0.044   8.504 -0.2679 -0.5941 -0.2226
33514SOL    HW1 7592  11.024  -0.032   8.469 -0.9382 -0.4500 -1.4606
33514SOL    HW2 7593  10.928   0.009   8.578 -0.4855 -1.3474 -0.7180
33515SOL     OW 7594   0.116   3.159   7.381  0.4170 -0.1425  0.5663
33515SOL    HW1 7595   0.119   3.194   7.292  0.4501  1.2032  1.0693
33515SOL    HW2 7596   0.026   3.176   7.410  0.4548 -0.4271  0.8488
33516SOL     OW 7597   9.916   9.279   2.398  0.2394 -0.6201 -0.5136
33516SOL    HW1 7598   9.855   9.226   2.450  0.6818 -0.4566  0.1870
33516SOL    HW2 7599   9.992   9.291   2.455  0.4383  0.1696 -0.9308
33517SOL     OW 7600  10.171  10.641   1.040  0.4380 -0.2920 -0.3080
33517SOL    HW1 7601  10.086  10.650   1.082  0.2247 -1.8337 -0.3329
33517SOL    HW2 7602  10.232  10.622   1.111  1.0209  1.9403 -0.1424
33518SOL     OW 7603  10.414  10.566   9.848 -0.5050  0.0453  0.3332
33518SOL    HW1 7604  10.467  10.645   9.857 -1.8863  1.3291 -1.7648
33518SOL    HW2 7605  10.470  10.495   9.878  0.9024  1.7665  2.0069
33519SOL     OW 7606   0.736   1.604  11.994  0.1528  0.1543 -0.2177
33519SOL    HW1 7607   0.715   1.617  12.086  0.3179  0.4641 -0.2239
33519SOL    HW2 7608   0.754   1.692  11.960  3.5007 -0.2292  0.2634
33520SOL     OW 7609   8.919   2.377   7.484  0.3521  0.4570  0.0057
33520SOL    HW1 7610   8.865   2.454   7.497  1.5238  1.3240 -0.0629
33520SOL    HW2 7611   8.885   2.336   7.405 -1.4408 -0.1416  1.0253
33521SOL     OW 7612   9.044   7.644  12.515  0.2165  0.4428 -0.1754
33521SOL    HW1 7613   9.069   7.644  12.422  1.3291  0.2485  0.1174
33521SOL    HW2 7614   8.956   7.682  12.515  0.2606  0.5958 -1.2953
33522SOL     OW 7615   8.560   7.577  10.527  0.0786  0.6689  0.2410
33522SOL    HW1 7616   8.622   7.506  10.544  1.8808  1.7531 -1.3600
33522SOL    HW2 7617   8.477   7.546  10.561  0.6401 -2.4517 -0.9602
33523SOL     OW 7618   1.268   1.110   5.661 -0.1250  0.2604 -0.1941
33523SOL    HW1 7619   1.231   1.137   5.745  0.6966  0.0433  0.2482
33523SOL    HW2 7620   1.307   1.190   5.626 -0.1804  0.2769 -0.2190
33524SOL     OW 7621  11.816   0.695   3.407  0.0265 -0.7423 -0.0329
33524SOL    HW1 7622  11.721   0.688   3.399 -0.3258  2.4699 -0.0866
33524SOL    HW2 7623  11.844   0.740   3.327  1.0532  1.5257  1.5103
33525SOL     OW 7624   2.565  11.803   9.321  0.2808 -0.4381  0.3785
33525SOL    HW1 7625   2.589  11.766   9.235  1.9796  0.4869  0.4280
33525SOL    HW2 7626   2.477  11.769   9.337  0.3572 -1.5162 -1.2324
33526SOL     OW 7627   4.644  10.884   8.342 -0.2263 -0.1522  0.5145
33526SOL    HW1 7628   4.597  10.826   8.401  1.1921 -2.6483 -0.6348
33526SOL    HW2 7629   4.726  10.903   8.386 -0.2931  0.2510  0.4774
33527SOL     OW 7630   1.510   4.341   5.787 -0.0353 -0.2128 -0.4645
33527SOL    HW1 7631   1.434   4.329   5.843  0.2526  0.6044  0.1170
33527SOL    HW2 7632   1.585   4.331   5.845  0.3116 -0.7219 -0.9772
33528SOL     OW 7633   6.193   0.644   5.951  0.1807 -0.3334 -0.6484
33528SOL    HW1 7634   6.255   0.674   5.884 -0.1699  0.2076 -0.7349
33528SOL    HW2 7635   6.230   0.674   6.034 -0.0659  0.1860 -0.7179
33529SOL     OW 7636   1.175   6.176   5.543 -0.0202  0.2360 -0.3654
33529SOL    HW1 7637   1.254   6.227   5.561  0.3530 -0.2249 -0.6712
33529SOL    HW2 7638   1.205   6.103   5.489 -0.6784  0.1263 -0.5957
33530SOL     OW 7639   0.828   2.696   5.545 -0.1744  0.2214  0.1759
33530SOL    HW1 7640   0.810   2.730   5.457  1.8806 -0.1501 -0.4448
33530SOL    HW2 7641   0.795   2.764   5.604 -0.8071  0.8759 -0.9020
33531SOL     OW 7642   4.412   1.332   3.734 -0.5119  0.6998 -0.1979
33531SOL    HW1 7643   4.359   1.411   3.734  0.6961  1.5358  0.5598
33531SOL    HW2 7644   4.419   1.307   3.826 -1.2952 -0.5947 -0.4650
33532SOL     OW 7645   7.282   8.415  10.138  0.4594 -0.0600 -0.4197
33532SOL    HW1 7646   7.309   8.503  10.111  1.2835 -0.4962 -1.0746
33532SOL    HW2 7647   7.286   8.363  10.058 -1.5212 -0.3669 -0.3538
33533SOL     OW 7648   5.220  11.391   3.293  0.3155  0.6152  1.1694
33533SOL    HW1 7649   5.177  11.392   3.208  0.3364  2.3755  1.1479
33533SOL    HW2 7650   5.251  11.301   3.303  0.6299  0.4560 -0.8287
33534SOL     OW 7651   8.606   9.420   6.683  0.0422 -0.0424 -0.0254
33534SOL    HW1 7652   8.635   9.421   6.774 -0.0986  0.4004  0.0207
33534SOL    HW2 7653   8.555   9.339   6.674  1.4142 -0.9094 -0.1560
33535SOL     OW 7654   7.219  12.368   2.530  0.0157  0.7447 -0.6415
33535SOL    HW1 7655   7.245  12.360   2.438  2.7072  1.9885 -0.0894
33535SOL    HW2 7656   7.263  12.447   2.560 -2.3837  1.4626  1.2755
33536SOL     OW 7657   5.113   2.982  10.974 -0.6392  0.2008 -0.4541
33536SOL    HW1 7658   5.124   2.912  10.910  0.7268  0.7285 -0.8173
33536SOL    HW2 7659   5.168   3.053  10.943 -0.8836  0.9208  0.6766
33537SOL     OW 7660   6.550   7.722   6.034  0.3297 -0.0346  0.1977
33537SOL    HW1 7661   6.561   7.774   5.955  0.5029 -1.4471 -0.7495
33537SOL    HW2 7662   6.503   7.779   6.095  0.0805  1.0299 -0.9644
33538SOL     OW 7663   4.583   1.477   2.145 -0.6450  0.2357  0.0894
33538SOL    HW1 7664   4.553   1.431   2.067  0.2679  0.3141 -0.3215
33538SOL    HW2 7665   4.503   1.495   2.194 -1.1095 -0.8931 -0.2262
33539SOL     OW 7666   7.199   6.348   3.621 -0.9969 -0.0684  0.2168
33539SOL    HW1 7667   7.232   6.259   3.628  0.2796  0.3721  0.0119
33539SOL    HW2 7668   7.202   6.382   3.710 -1.1046 -0.0938  0.2306
33540SOL     OW 7669   1.137   4.975   8.234  0.7074 -0.0444 -0.1582
33540SOL    HW1 7670   1.154   5.059   8.192  0.1241  0.3655  0.4136
33540SOL    HW2 7671   1.132   4.995   8.327 -0.6210 -0.5115 -0.1112
33541SOL     OW 7672   8.120   1.174   8.856  0.4095  0.4381 -0.1186
33541SOL    HW1 7673   8.139   1.261   8.892  1.2182  0.8716 -1.5302
33541SOL    HW2 7674   8.205   1.142   8.825 -0.3013  0.3023 -2.0494
33542SOL     OW 7675   1.665  12.382   5.948 -0.1439  0.0112  0.5093
33542SOL    HW1 7676   1.628  12.356   5.864 -0.7597  1.2713  0.3496
33542SOL    HW2 7677   1.635  12.473   5.960 -0.1896 -0.1821  2.1458
33543SOL     OW 7678  11.633   2.119   6.858  0.1176  0.6935 -0.4165
33543SOL    HW1 7679  11.646   2.143   6.950 -0.1680  0.8011 -0.4039
33543SOL    HW2 7680  11.719   2.132   6.817  0.3065  0.4102 -0.1136
33544SOL     OW 7681   4.447   6.174   7.075 -0.2937  0.3600 -0.1672
33544SOL    HW1 7682   4.419   6.261   7.102  0.5337  1.3845 -2.3712
33544SOL    HW2 7683   4.406   6.115   7.138 -1.0474  2.3082  1.2624
33545SOL     OW 7684   8.669   8.413   2.912 -0.0941 -0.1161 -0.2591
33545SOL    HW1 7685   8.586   8.408   2.960 -0.4275  0.8592 -0.7149
33545SOL    HW2 7686   8.681   8.325   2.875 -0.4103 -0.5489  0.6431
33546SOL     OW 7687   4.536   6.997   1.697 -0.4502 -0.4443  0.3827
33546SOL    HW1 7688   4.460   6.957   1.656 -1.2307  1.0122  0.3405
33546SOL    HW2 7689   4.500   7.057   1.762  0.5937  0.9385 -0.2461
33547SOL     OW 7690   5.871  12.096   4.165  0.5184  0.5718 -0.3502
33547SOL    HW1 7691   5.880  12.166   4.101 -0.5682  2.3448  1.3232
33547SOL    HW2 7692   5.776  12.084   4.175  0.5978 -2.7626 -2.1949
33548SOL     OW 7693   1.761   1.099   1.281  0.3263  0.3244 -0.0551
33548SOL    HW1 7694   1.763   1.037   1.209 -1.9120 -1.2837  1.1196
33548SOL    HW2 7695   1.850   1.101   1.315  1.3824  0.9786 -2.6531
33549SOL     OW 7696   5.648   9.438   7.877  0.2421  0.7556 -0.1806
33549SOL    HW1 7697   5.725   9.433   7.820  0.9550  1.7948  0.6504
33549SOL    HW2 7698   5.575   9.411   7.821  1.4604 -2.5705 -0.3374
33550SOL     OW 7699   8.811  12.294   3.726 -0.3632  0.0347 -0.3149
33550SOL    HW1 7700   8.803  12.385   3.698 -0.9102  0.7274  1.9421
33550SOL    HW2 7701   8.902  12.271   3.704 -0.3412  0.9722 -1.2945
33551SOL     OW 7702  11.698   8.102   9.420 -0.1507 -0.5942 -0.5601
33551SOL    HW1 7703  11.624   8.140   9.468  0.4706  0.1289 -0.1538
33551SOL    HW2 7704  11.762   8.082   9.487  0.4939 -0.1228 -1.0214
33552SOL     OW 7705   9.980   0.076   0.274  0.2722  0.3487  0.1442
33552SOL    HW1 7706  10.001   0.059   0.182  1.1274 -1.6059  0.6503
33552SOL    HW2 7707   9.937  -0.004   0.304  2.6240 -0.2567  2.1908
33553SOL     OW 7708   8.744   4.634   5.726  0.2042  0.1040 -0.5806
33553SOL    HW1 7709   8.711   4.580   5.654 -0.4081 -0.6820  0.2615
33553SOL    HW2 7710   8.727   4.724   5.699  1.2230 -0.1107 -2.0034
33554SOL     OW 7711   5.296   9.423   8.345 -0.2868  0.0833  0.1134
33554SOL    HW1 7712   5.291   9.334   8.309  0.3505 -0.0675  0.3820
33554SOL    HW2 7713   5.226   9.428   8.409 -2.1132  0.6738 -1.7932
33555SOL     OW 7714   5.385   1.545   3.189  0.0619  0.6763 -0.1677
33555SOL    HW1 7715   5.340   1.612   3.138 -0.5990 -0.0530 -0.5634
33555SOL    HW2 7716   5.370   1.570   3.280  0.3735  1.4200 -0.3207
33556SOL     OW 7717   6.159   0.376   4.990 -0.6505  0.5232  0.6731
33556SOL    HW1 7718   6.091   0.414   5.045 -2.9020 -0.4098 -1.2864
33556SOL    HW2 7719   6.204   0.314   5.048 -1.8778  0.7188  1.8927
33557SOL     OW 7720  12.473   2.468  12.023  1.0949 -0.0527 -0.3228
33557SOL    HW1 7721  12.546   2.454  11.963 -0.0883 -0.4293 -1.7064
33557SOL    HW2 7722  12.473   2.389  12.078 -0.1898 -1.6386 -2.4281
33558SOL     OW 7723   0.073   3.587   5.764 -0.6433  0.2029 -0.1944
33558SOL    HW1 7724   0.029   3.537   5.695  0.6243 -0.0953 -0.8206
33558SOL    HW2 7725   0.163   3.596   5.733 -0.9529  3.4953 -0.4422
33559SOL     OW 7726   9.768  10.736   5.157 -0.0019 -0.0724 -0.1229
33559SOL    HW1 7727   9.795  10.770   5.071 -0.6409 -2.0770 -1.1867
33559SOL    HW2 7728   9.752  10.643   5.141 -0.3529 -0.4415  2.1516
33560SOL     OW 7729   6.706   9.708   1.490 -0.0546 -0.7139 -0.4345
33560SOL    HW1 7730   6.746   9.669   1.568  0.7097  0.2147 -0.3423
33560SOL    HW2 7731   6.754   9.790   1.478 -0.2172 -0.8165 -1.8406
33561SOL     OW 7732  11.474   5.341  10.377 -0.1873 -0.2224  0.2278
33561SOL    HW1 7733  11.468   5.344  10.473 -1.3275 -1.5728  0.2368
33561SOL    HW2 7734  11.561   5.375  10.357  0.7088 -1.4267  1.8554
33562SOL     OW 7735   4.664   8.003  10.755  0.0334  0.0802 -0.2813
33562SOL    HW1 7736   4.668   8.040  10.666  0.3417  0.5599 -0.0729
33562SOL    HW2 7737   4.580   8.033  10.790 -0.2410 -0.3926 -0.5307
33563SOL     OW 7738  12.302   3.384   7.884 -0.1872 -0.1379  0.6640
33563SOL    HW1 7739  12.342   3.313   7.934  0.3667  1.2305  2.2322
33563SOL    HW2 7740  12.362   3.457   7.893 -1.1989  0.8301 -0.1296
33564SOL     OW 7741   0.578   8.510   8.787  0.2446  0.8917 -0.1128
33564SOL    HW1 7742   0.663   8.481   8.755  0.8536  0.7573  1.5391
33564SOL    HW2 7743   0.594   8.598   8.822 -0.0063  0.3993  1.2914
33565SOL     OW 7744  12.347   1.512   3.922 -0.1619  0.0814  0.2406
33565SOL    HW1 7745  12.322   1.571   3.851  0.4410  0.9638  0.7402
33565SOL    HW2 7746  12.342   1.425   3.883  1.0985  0.6063 -1.1831
33566SOL     OW 7747   2.745   7.727   5.698 -0.1545  0.6554 -0.4148
33566SOL    HW1 7748   2.695   7.738   5.617 -3.3785 -2.0446  0.9468
33566SOL    HW2 7749   2.714   7.798   5.755  0.0028  0.8978 -0.6302
33567SOL     OW 7750   2.676  10.702   3.844  0.3801  0.0374 -0.6205
33567SOL    HW1 7751   2.682  10.742   3.931  0.7058 -1.8896  0.2881
33567SOL    HW2 7752   2.616  10.759   3.796  2.2584  2.6945 -0.0603
33568SOL     OW 7753  11.507   2.372   8.412 -0.7634 -0.1831 -0.2213
33568SOL    HW1 7754  11.426   2.405   8.373  0.6608  1.5003 -1.9458
33568SOL    HW2 7755  11.517   2.284   8.377 -1.6803 -0.3056 -0.2013
33569SOL     OW 7756   9.117   9.878   5.888  0.4571  0.1338  0.0546
33569SOL    HW1 7757   9.024   9.856   5.902  0.5767  0.7378  2.2801
33569SOL    HW2 7758   9.153   9.802   5.842 -0.2013 -2.3135  3.1880
33570SOL     OW 7759   7.854   7.786   8.888  0.4118 -0.1205  0.3867
33570SOL    HW1 7760   7.880   7.724   8.820 -0.8891 -1.3261  0.9371
33570SOL    HW2 7761   7.937   7.815   8.927  1.1375  0.0557 -1.2014
33571SOL     OW 7762   9.353   5.036  11.653  0.1458  0.0690 -0.1004
33571SOL    HW1 7763   9.314   4.980  11.585 -0.3769  1.2625 -0.8319
33571SOL    HW2 7764   9.334   4.992  11.735 -3.3289  0.8071 -0.3559
33572SOL     OW 7765   0.443   3.372   9.346  0.0479  0.4170  0.6393
33572SOL    HW1 7766   0.383   3.366   9.272 -0.0603  1.2777  0.6543
33572SOL    HW2 7767   0.387   3.380   9.423  0.1685  0.0794  0.7656
33573SOL     OW 7768   6.191  10.866  11.130  0.2931  0.4601  0.2147
33573SOL    HW1 7769   6.263  10.922  11.157  0.7036  0.3433 -0.6134
33573SOL    HW2 7770   6.180  10.805  11.203  1.3860  0.1448  0.1373
33574SOL     OW 7771   5.449   0.295   7.130  0.0062  0.6397 -0.5086
33574SOL    HW1 7772   5.411   0.332   7.050 -1.4147 -0.0113 -0.1613
33574SOL    HW2 7773   5.496   0.218   7.101 -1.5930 -0.3485 -0.6083
33575SOL     OW 7774  10.760   5.078   0.817 -0.0080 -0.6353 -0.0444
33575SOL    HW1 7775  10.749   4.990   0.781  2.4869 -1.3015  0.6320
33575SOL    HW2 7776  10.820   5.121   0.755 -2.1385  1.0963 -1.0548
33576SOL     OW 7777  10.259   7.270   4.324  0.6074 -0.0881 -0.0292
33576SOL    HW1 7778  10.192   7.270   4.391  1.8255  2.4488  1.3178
33576SOL    HW2 7779  10.323   7.204   4.353 -1.1788 -2.6136 -1.3890
33577SOL     OW 7780   1.934   3.215   1.161 -0.0814 -0.9336  0.9217
33577SOL    HW1 7781   2.014   3.219   1.109  0.8221 -1.2958  2.2132
33577SOL    HW2 7782   1.898   3.128   1.143 -1.8010  0.2263 -1.8490
33578SOL     OW 7783  10.532   2.683   6.119  0.3724 -0.2508  0.0860
33578SOL    HW1 7784  10.534   2.603   6.173 -0.7821 -0.7504 -0.5700
33578SOL    HW2 7785  10.607   2.674   6.060 -1.4681 -2.4573 -2.1342
33579SOL     OW 7786   8.054   7.982  11.501  0.0700  0.3491  0.6183
33579SOL    HW1 7787   8.138   7.961  11.459 -0.0980 -1.0383  0.9309
33579SOL    HW2 7788   8.023   8.060  11.455  1.0287  0.2511 -0.2216
33580SOL     OW 7789   7.981  12.381  11.296  0.1336 -0.0543  0.4337
33580SOL    HW1 7790   8.006  12.368  11.387  1.4758  0.1820  0.1254
33580SOL    HW2 7791   7.891  12.350  11.290  0.5225 -1.4578  1.5127
33581SOL     OW 7792   9.062   8.327   0.855 -0.1925  0.3034 -0.4685
33581SOL    HW1 7793   9.050   8.329   0.950 -1.6036  0.5837 -0.6247
33581SOL    HW2 7794   9.018   8.406   0.824 -0.0268  0.0456 -1.3789
33582SOL     OW 7795   1.639   9.667   1.979  0.1400  0.0306  0.1569
33582SOL    HW1 7796   1.553   9.704   1.960 -1.5931 -3.7719 -0.3554
33582SOL    HW2 7797   1.689   9.682   1.899 -1.2731 -0.7351 -0.9139
33583SOL     OW 7798   9.611   0.630   2.576 -0.1156  0.5217  0.1017
33583SOL    HW1 7799   9.517   0.618   2.565  0.0273  0.9499 -2.0771
33583SOL    HW2 7800   9.620   0.703   2.637 -1.2260  0.9280 -0.2031
33584SOL     OW 7801   4.607   2.094  10.077 -0.1423 -0.1981 -0.4604
33584SOL    HW1 7802   4.529   2.090  10.132 -0.0434  1.2948 -0.1608
33584SOL    HW2 7803   4.574   2.102   9.988 -0.3486  0.4019 -0.3372
33585SOL     OW 7804  10.281  12.315   2.011  0.1074 -0.3785  0.8231
33585SOL    HW1 7805  10.260  12.277   1.926 -0.5032 -0.3261  0.9483
33585SOL    HW2 7806  10.358  12.369   1.994 -0.4749  0.2548  0.1316
33586SOL     OW 7807   7.961   3.069   5.075 -0.2367 -0.1971 -0.7581
33586SOL    HW1 7808   7.991   3.139   5.017  1.6904 -0.0324  0.3636
33586SOL    HW2 7809   7.946   3.111   5.159  0.0963 -0.9613 -0.2983
33587SOL     OW 7810   7.690  11.265   7.412  0.2075 -0.4852 -0.4565
33587SOL    HW1 7811   7.637  11.341   7.438 -0.1669 -0.0619 -2.3048
33587SOL    HW2 7812   7.779  11.287   7.440 -0.0695  0.1793 -0.0777
33588SOL     OW 7813   8.980   7.216   6.577 -0.1178 -0.2950  0.1040
33588SOL    HW1 7814   8.993   7.192   6.669 -1.9440 -1.9220 -0.0124
33588SOL    HW2 7815   8.886   7.209   6.563 -0.6993  4.9874 -0.5836
33589SOL     OW 7816   1.583   0.027  12.287  0.1510  0.1839  0.0975
33589SOL    HW1 7817   1.678   0.021  12.296 -0.0097 -0.3115  2.1082
33589SOL    HW2 7818   1.559   0.104  12.339 -0.6694 -0.6517  1.0022
33590SOL     OW 7819   2.169   9.194   0.151 -0.2026  0.4428  0.2074
33590SOL    HW1 7820   2.078   9.225   0.151 -0.4514 -0.2301  0.7426
33590SOL    HW2 7821   2.217   9.259   0.201  0.1221  2.1118 -2.1509
33591SOL     OW 7822   4.822   1.150  10.464 -0.2384  0.0937  1.2061
33591SOL    HW1 7823   4.738   1.111  10.489 -0.9185  0.5747 -0.2082
33591SOL    HW2 7824   4.818   1.155  10.369  1.8220 -0.7703  1.0245
33592SOL     OW 7825   3.697   6.593   2.013  0.0479 -0.2430 -0.0835
33592SOL    HW1 7826   3.734   6.574   1.927 -0.8413 -2.0025 -0.1232
33592SOL    HW2 7827   3.695   6.689   2.018 -0.6297 -0.0766 -2.3698
33593SOL     OW 7828   4.886   5.112   4.436 -0.4877 -0.4019 -0.0807
33593SOL    HW1 7829   4.895   5.181   4.502 -0.2740  0.6268 -1.1525
33593SOL    HW2 7830   4.967   5.116   4.385  0.5974 -3.0471  1.2689
33594SOL     OW 7831   3.395  12.039  11.918  0.3077 -0.5802  0.0048
33594SOL    HW1 7832   3.448  12.111  11.953  0.2341 -0.9612  0.9450
33594SOL    HW2 7833   3.325  12.027  11.983 -0.7695 -0.2850 -1.0667
33595SOL     OW 7834  11.536  10.323   4.746  0.2711 -0.1124 -0.4553
33595SOL    HW1 7835  11.502  10.366   4.667 -0.1256 -0.3507 -0.4186
33595SOL    HW2 7836  11.627  10.302   4.725  0.7958  1.6657 -0.1020
33596SOL     OW 7837   7.472  10.866   4.721  0.7001  0.0199  0.2666
33596SOL    HW1 7838   7.545  10.823   4.676 -0.4746 -1.1779 -0.5514
33596SOL    HW2 7839   7.397  10.853   4.663 -0.1510  1.3353  1.0300
33597SOL     OW 7840   3.096   0.928   0.033 -0.5119  0.2994 -0.1455
33597SOL    HW1 7841   3.105   0.987  -0.042 -2.9589 -1.0313 -1.5948
33597SOL    HW2 7842   3.002   0.922   0.048 -0.3592 -2.8708  0.2138
33598SOL     OW 7843  11.051   4.260   1.085  0.1573 -0.3298 -0.0274
33598SOL    HW1 7844  11.058   4.244   1.179  2.5319 -1.2135 -0.2822
33598SOL    HW2 7845  10.972   4.213   1.058  0.8238 -2.2396  1.1290
33599SOL     OW 7846   8.486   6.278   5.241 -0.7056  1.1137  0.1374
33599SOL    HW1 7847   8.492   6.372   5.258  1.6249  0.6055  2.7354
33599SOL    HW2 7848   8.469   6.239   5.327  0.1853 -0.9655 -0.5624
33600SOL     OW 7849   0.034   5.412   9.190 -0.0238 -0.4299 -0.0359
33600SOL    HW1 7850  -0.039   5.467   9.220 -0.5389 -1.4113  0.5449
33600SOL    HW2 7851   0.085   5.395   9.269  0.9934  0.4290 -0.4708
33601SOL     OW 7852  11.061   9.710   4.173 -0.0714 -0.5836 -0.0887
33601SOL    HW1 7853  11.103   9.729   4.089 -2.3679  0.5499 -1.0692
33601SOL    HW2 7854  11.073   9.789   4.225 -0.0184 -0.6952  0.0715
33602SOL     OW 7855   4.098   9.787   8.609 -0.0393  0.3281 -0.1408
33602SOL    HW1 7856   4.042   9.773   8.533  0.0360 -1.0061  0.0293
33602SOL    HW2 7857   4.169   9.843   8.576 -1.0949  1.5168 -0.5101
33603SOL     OW 7858  11.941   8.346   1.718  0.2956 -0.0853  0.3938
33603SOL    HW1 7859  11.881   8.345   1.643  0.7410 -0.2772  0.0377
33603SOL    HW2 7860  11.917   8.268   1.768  0.6441 -0.4893 -0.0645
33604SOL     OW 7861  10.627   9.485   8.608  0.1324 -0.1146  0.1442
33604SOL    HW1 7862  10.638   9.572   8.570  0.6986  0.1455  0.8861
33604SOL    HW2 7863  10.715   9.457   8.631  0.0274 -1.1382 -0.6043
33605SOL     OW 7864  11.653   4.868  12.386 -0.8247  0.1889  0.4801
33605SOL    HW1 7865  11.570   4.916  12.398  0.0873  1.6682  1.1627
33605SOL    HW2 7866  11.711   4.931  12.343  0.2927 -0.4638  1.0032
33606SOL     OW 7867  10.492   3.456   7.740  0.2354  0.2831 -0.8539
33606SOL    HW1 7868  10.538   3.527   7.696 -1.2647  2.3542  0.7252
33606SOL    HW2 7869  10.402   3.461   7.707  0.3494 -1.6455 -1.5514
33607SOL     OW 7870   8.518   8.526   9.859 -0.1312  0.2991 -0.0694
33607SOL    HW1 7871   8.508   8.590   9.788  0.7372 -0.4187 -0.8559
33607SOL    HW2 7872   8.556   8.576   9.931  0.7129  0.6387 -0.7360
33608SOL     OW 7873  10.222  10.178  11.629 -0.0647  0.5811  0.4526
33608SOL    HW1 7874  10.310  10.141  11.634  0.1041  0.9846  0.4954
33608SOL    HW2 7875  10.221  10.227  11.547 -0.6776 -0.5074 -0.2145
33609SOL     OW 7876   3.766   1.271   5.824 -0.3471  0.1550 -0.3307
33609SOL    HW1 7877   3.725   1.311   5.747 -1.7147  0.5993  0.5789
33609SOL    HW2 7878   3.794   1.346   5.877 -0.5028 -0.1319  0.1595
33610SOL     OW 7879   0.055  10.832   5.354  0.0245  0.3396  0.2359
33610SOL    HW1 7880   0.053  10.768   5.282 -2.3534 -0.2722  0.7631
33610SOL    HW2 7881   0.094  10.784   5.427 -1.0560 -0.3159  0.4115
33611SOL     OW 7882  10.840   8.464   8.837 -0.0671  0.6235 -0.0876
33611SOL    HW1 7883  10.774   8.414   8.789  0.8004 -0.1883 -0.4569
33611SOL    HW2 7884  10.849   8.418   8.920 -1.7494  2.1663  1.0489
33612SOL     OW 7885   3.644   2.295   3.367 -0.3265  0.3421 -0.0485
33612SOL    HW1 7886   3.641   2.314   3.461  0.9880  0.2376  0.0322
33612SOL    HW2 7887   3.642   2.382   3.326 -4.6013  0.3980 -0.1532
33613SOL     OW 7888   5.402   7.960   0.395  0.3478 -0.4811 -0.4484
33613SOL    HW1 7889   5.399   8.052   0.369  2.2615  0.3092  1.7718
33613SOL    HW2 7890   5.385   7.961   0.489 -2.2363 -2.7471 -0.7544
33614SOL     OW 7891   7.284   4.247   1.808  0.9219 -0.3683  0.0828
33614SOL    HW1 7892   7.224   4.281   1.741  0.6953  1.0414  0.9454
33614SOL    HW2 7893   7.272   4.153   1.807 -1.1044 -0.1481  0.0164
33615SOL     OW 7894   8.522  12.129   3.518 -0.7033  0.4216  0.1988
33615SOL    HW1 7895   8.429  12.106   3.524 -0.0495 -3.5876 -1.5824
33615SOL    HW2 7896   8.532  12.166   3.431 -0.4087 -1.0557 -0.4311
33616SOL     OW 7897   4.226   5.674   8.805 -0.3194 -0.0976  0.3963
33616SOL    HW1 7898   4.180   5.633   8.732 -2.4367  2.3339  0.2039
33616SOL    HW2 7899   4.184   5.639   8.884 -2.7478  2.1511  0.2202
33617SOL     OW 7900   2.469   0.261   7.273 -0.1996  0.4298  0.1330
33617SOL    HW1 7901   2.519   0.206   7.213 -0.0844 -0.3871  0.9481
33617SOL    HW2 7902   2.528   0.333   7.295 -0.7605  1.5726 -1.8516
33618SOL     OW 7903   0.350   8.600   1.651  0.0814 -0.1767 -0.6065
33618SOL    HW1 7904   0.352   8.603   1.746  0.1765 -3.1970 -0.3915
33618SOL    HW2 7905   0.262   8.627   1.627 -0.1636 -0.0568  0.4086
33619SOL     OW 7906   1.780  10.565  10.574  0.2510 -0.3925  0.0759
33619SOL    HW1 7907   1.843  10.495  10.558  0.5832 -1.1501  3.8517
33619SOL    HW2 7908   1.833  10.641  10.598 -0.1337 -0.9680  3.0493
33620SOL     OW 7909  11.403   9.803   1.969 -0.0825 -0.1893 -0.4885
33620SOL    HW1 7910  11.427   9.850   1.889  0.5933 -1.4109 -1.0382
33620SOL    HW2 7911  11.380   9.872   2.032 -0.4045  0.8026 -1.6503
33621SOL     OW 7912  10.151   7.323   2.182  0.7108  0.4391 -0.0644
33621SOL    HW1 7913  10.118   7.395   2.127  0.7258  0.2597 -0.3096
33621SOL    HW2 7914  10.241   7.349   2.202  1.0251  0.0435 -0.9334
33622SOL     OW 7915   4.977  11.501   4.931 -0.4530 -0.1323 -0.5115
33622SOL    HW1 7916   5.004  11.517   4.840  0.0677 -0.2661 -0.3801
33622SOL    HW2 7917   4.980  11.587   4.972 -0.2086 -0.1486 -0.4939
33623SOL     OW 7918   0.088   8.313   1.888 -0.0248 -0.2016  0.0626
33623SOL    HW1 7919  -0.005   8.313   1.863 -0.2072  1.3185  0.6116
33623SOL    HW2 7920   0.100   8.396   1.935  1.2964 -1.0003  1.2151
33624SOL     OW 7921   5.222  11.520   1.639  0.6237 -0.2396 -0.3995
33624SOL    HW1 7922   5.279  11.518   1.716  2.8080 -0.5489 -1.9351
33624SOL    HW2 7923   5.282  11.534   1.565 -1.5226  1.5687 -1.9348
33625SOL     OW 7924   1.053  11.137   8.552  0.2194 -0.0423  0.5618
33625SOL    HW1 7925   1.050  11.089   8.634 -1.9487 -0.7195  0.1427
33625SOL    HW2 7926   1.104  11.216   8.572  2.3197 -1.5844  1.7235
33626SOL     OW 7927   9.117   7.458   1.890 -0.0447 -0.2505 -0.6488
33626SOL    HW1 7928   9.182   7.506   1.943 -0.1142  1.4002 -1.9769
33626SOL    HW2 7929   9.034   7.473   1.935  0.1713 -0.5209 -0.1505
33627SOL     OW 7930   3.049   5.568   2.621  0.4065  0.1780 -0.3915
33627SOL    HW1 7931   2.999   5.624   2.680  0.3788 -0.0730 -0.1772
33627SOL    HW2 7932   3.108   5.520   2.678  2.4229  2.0041 -0.7913
33628SOL     OW 7933   4.069   2.835   0.625  0.0552 -0.2420 -0.1317
33628SOL    HW1 7934   4.120   2.785   0.689  0.1191 -0.5330 -0.4066
33628SOL    HW2 7935   3.983   2.844   0.665  0.1532 -0.2538  0.0830
33629SOL     OW 7936   0.877  12.467   7.453 -0.5471  0.6770  0.4037
33629SOL    HW1 7937   0.879  12.521   7.532  2.7840  1.4720 -0.0834
33629SOL    HW2 7938   0.908  12.525   7.383 -1.7849 -0.4869 -1.2064
33630SOL     OW 7939   0.347   4.643   2.279 -0.3561 -0.1724 -0.3433
33630SOL    HW1 7940   0.331   4.730   2.243  2.2813  0.0445 -1.1985
33630SOL    HW2 7941   0.272   4.590   2.249 -2.3077  1.8329  0.6777
33631SOL     OW 7942   1.348   2.925   0.533 -0.2380  0.0741 -0.0204
33631SOL    HW1 7943   1.295   2.974   0.595  0.0812  1.6731 -0.9673
33631SOL    HW2 7944   1.415   2.881   0.587 -1.5348 -0.7029  1.0051
33632SOL     OW 7945  12.085   4.041   4.920 -0.4719 -0.3917  0.2026
33632SOL    HW1 7946  12.041   4.051   4.836 -1.3428 -0.5408  0.6293
33632SOL    HW2 7947  12.020   4.067   4.985  0.3569  0.2062  0.8105
33633SOL     OW 7948   0.402   2.306  11.666 -0.0407  0.4615  0.3076
33633SOL    HW1 7949   0.441   2.323  11.752  0.4400  0.2485  0.1323
33633SOL    HW2 7950   0.339   2.235  11.682 -1.6288  1.9330  0.9268
33634SOL     OW 7951   1.798   5.622   7.829 -0.3203  0.3082 -0.2711
33634SOL    HW1 7952   1.858   5.621   7.755  0.9625 -0.8876  0.7292
33634SOL    HW2 7953   1.819   5.542   7.878 -0.0284  1.7821  2.2097
33635SOL     OW 7954   9.501   2.347   7.732 -0.6255  0.4634  0.2307
33635SOL    HW1 7955   9.421   2.363   7.781 -1.0824  0.1796 -0.4175
33635SOL    HW2 7956   9.571   2.368   7.794 -1.1819  2.4207  0.2492
33636SOL     OW 7957   8.656   4.907   7.589 -0.3026 -0.3562 -0.2181
33636SOL    HW1 7958   8.737   4.871   7.554 -1.1821 -2.1331 -0.5426
33636SOL    HW2 7959   8.654   4.998   7.559  0.2355 -1.0677 -2.5812
33637SOL     OW 7960   5.025   7.713   2.800 -0.1401  0.3719  0.3391
33637SOL    HW1 7961   5.035   7.703   2.894  2.1152 -0.4856  0.0707
33637SOL    HW2 7962   4.992   7.628   2.770 -1.2533  0.7774  0.3809
33638SOL     OW 7963  12.106   9.294   0.261 -0.3362  0.2122  0.7218
33638SOL    HW1 7964  12.096   9.226   0.194 -1.5056  0.0943  1.0092
33638SOL    HW2 7965  12.028   9.348   0.254  0.3784  1.3027  0.7829
33639SOL     OW 7966  12.536   6.587  10.333 -0.6155  0.2098  0.0438
33639SOL    HW1 7967  12.579   6.604  10.417 -0.9905 -0.0675  0.2951
33639SOL    HW2 7968  12.525   6.492  10.331 -1.6731  0.3182  0.2111
33640SOL     OW 7969   9.594   3.448   9.217 -0.0298  0.1230 -0.0024
33640SOL    HW1 7970   9.665   3.487   9.269  0.8615 -0.2662 -0.9125
33640SOL    HW2 7971   9.565   3.520   9.161 -0.9811  0.5388  0.9835
33641SOL     OW 7972   1.832   1.337   5.689  0.0421  0.4377  0.0922
33641SOL    HW1 7973   1.898   1.270   5.700  1.7274  2.0383  0.2386
33641SOL    HW2 7974   1.794   1.348   5.777 -2.0652 -2.0020 -0.4130
33642SOL     OW 7975  11.418   4.129   2.934  0.1592 -0.1074 -0.0728
33642SOL    HW1 7976  11.378   4.045   2.911 -0.6830  0.0327  0.8059
33642SOL    HW2 7977  11.506   4.124   2.899 -0.1723 -1.0027 -0.8186
33643SOL     OW 7978   2.184  11.742   6.243  0.0302  0.2476 -0.1397
33643SOL    HW1 7979   2.157  11.655   6.214 -1.0313  0.7549 -0.7201
33643SOL    HW2 7980   2.121  11.802   6.202 -0.7916  1.1059  2.1853
33644SOL     OW 7981   1.111   5.719   6.985 -0.0181 -0.3965  0.5486
33644SOL    HW1 7982   1.171   5.732   7.058 -0.1795 -0.6378  0.7281
33644SOL    HW2 7983   1.025   5.743   7.020  0.1463  1.2893 -0.1084
33645SOL     OW 7984  10.715   0.259   2.922 -0.1910 -0.5958 -0.0916
33645SOL    HW1 7985  10.791   0.225   2.874  1.1364  0.1276  1.4097
33645SOL    HW2 7986  10.714   0.209   3.003 -0.1919  0.6276  0.6946
33646SOL     OW 7987  10.093   6.556   1.175  0.4781 -0.5603 -0.0173
33646SOL    HW1 7988  10.118   6.648   1.182  0.3630 -0.6350  2.0308
33646SOL    HW2 7989  10.005   6.558   1.137  0.9203  0.0899 -1.0364
33647SOL     OW 7990   9.569   9.497  10.588  0.3247 -0.3464 -0.6294
33647SOL    HW1 7991   9.539   9.496  10.498 -2.2107  0.2222  0.1306
33647SOL    HW2 7992   9.665   9.492  10.582  0.1707 -1.5197 -3.2650
33648SOL     OW 7993   1.940   4.236   1.716  0.3792 -0.0105  0.2186
33648SOL    HW1 7994   1.933   4.253   1.809  0.9695  1.4217  0.0275
33648SOL    HW2 7995   1.965   4.320   1.678  0.7755 -0.7183 -1.1560
33649SOL     OW 7996   2.834   8.199   4.579 -0.1114  0.6307 -0.4671
33649SOL    HW1 7997   2.751   8.238   4.554 -0.5127 -0.0859 -0.2930
33649SOL    HW2 7998   2.815   8.105   4.589  0.3950  0.6422  0.8869
33650SOL     OW 7999   2.445  11.128   9.239  0.1969  0.3350  0.5507
33650SOL    HW1 8000   2.526  11.131   9.289  0.2108  0.3922  0.5246
33650SOL    HW2 8001   2.403  11.212   9.256  0.5337  0.6383 -0.0918
33651SOL     OW 8002   2.527   4.212  12.471 -0.5521  0.6160 -0.0296
33651SOL    HW1 8003   2.451   4.183  12.523 -0.5877  0.0005 -0.4204
33651SOL    HW2 8004   2.522   4.307  12.474 -3.2896  0.7207 -2.8041
33652SOL     OW 8005   3.124   1.737   0.965 -0.1886 -0.6047  0.1492
33652SOL    HW1 8006   3.112   1.667   1.029 -1.2594 -0.7381 -0.1790
33652SOL    HW2 8007   3.157   1.811   1.016  0.0414 -1.0544  0.6586
33653SOL     OW 8008  12.239   3.262   6.739 -0.0723  0.5043  0.2981
33653SOL    HW1 8009  12.182   3.192   6.708  0.2528  0.5286 -0.3834
33653SOL    HW2 8010  12.312   3.262   6.677  0.6458  0.4977  1.1259
33654SOL     OW 8011   8.419   5.931   1.870  0.7827 -0.1951 -0.0646
33654SOL    HW1 8012   8.479   5.995   1.909 -2.1048  2.0384  1.0976
33654SOL    HW2 8013   8.410   5.959   1.779  0.6338  0.1724  0.0620
33655SOL     OW 8014  12.031   0.942  10.635 -0.4089  0.3519  0.2801
33655SOL    HW1 8015  11.994   1.011  10.580 -0.7131 -0.7208 -0.9177
33655SOL    HW2 8016  12.107   0.983  10.677 -1.1909  1.7074  0.4222
33656SOL     OW 8017   2.889  11.966   9.356  0.1987 -0.7075 -0.3641
33656SOL    HW1 8018   2.827  11.894   9.342  1.2467 -2.1078  1.6759
33656SOL    HW2 8019   2.864  12.004   9.440 -0.5796  1.6652 -1.5742
33657SOL     OW 8020   6.479  11.846   0.403 -1.1474 -0.1080  0.4081
33657SOL    HW1 8021   6.514  11.762   0.433  0.8796  0.4416 -0.1890
33657SOL    HW2 8022   6.401  11.824   0.352 -1.0967 -1.5484  0.9381
33658SOL     OW 8023   3.042   2.071  10.113 -0.1574  0.7113  0.1473
33658SOL    HW1 8024   3.106   2.133  10.147 -0.7548  0.4623  1.8088
33658SOL    HW2 8025   2.961   2.121  10.107 -0.3021  0.4702  0.0912
33659SOL     OW 8026   3.354  12.372   6.630  0.1184 -0.5907 -0.1037
33659SOL    HW1 8027   3.292  12.445   6.627  1.3913  0.6309  1.0443
33659SOL    HW2 8028   3.306  12.297   6.595 -1.5043  0.6172 -0.5963
33660SOL     OW 8029   5.580   0.254  11.904  0.4951 -0.2396 -0.3265
33660SOL    HW1 8030   5.596   0.212  11.819  0.1755 -1.4861  0.2075
33660SOL    HW2 8031   5.501   0.211  11.937  1.8435 -1.3835  1.6042
33661SOL     OW 8032   5.867   2.631   5.773  0.4175 -0.3716  0.1004
33661SOL    HW1 8033   5.864   2.590   5.686  0.8372 -1.1499  0.4482
33661SOL    HW2 8034   5.817   2.572   5.829  1.0991 -0.4629  0.6231
33662SOL     OW 8035  10.659   0.246   9.924 -0.0226  0.5771 -0.4043
33662SOL    HW1 8036  10.714   0.173   9.952 -1.3205 -1.5289 -2.9168
33662SOL    HW2 8037  10.687   0.264   9.834 -0.7081  2.2155 -0.3245
33663SOL     OW 8038   0.291   4.321   5.369  0.8629  0.3271  0.3034
33663SOL    HW1 8039   0.221   4.372   5.329  1.1220  1.1520  0.8878
33663SOL    HW2 8040   0.363   4.382   5.380  1.5010 -0.3934  0.1798
33664SOL     OW 8041   5.142   4.975   0.616  0.2524 -0.1991 -0.1131
33664SOL    HW1 8042   5.207   4.919   0.658 -1.1141 -1.7966 -0.0306
33664SOL    HW2 8043   5.140   5.054   0.669  3.1974  0.6128 -0.9871
33665SOL     OW 8044   5.615   6.119   1.973  0.4823  0.0276  0.1793
33665SOL    HW1 8045   5.563   6.162   1.905  1.2239  0.5345 -0.0810
33665SOL    HW2 8046   5.705   6.129   1.944  0.6996 -1.3288  0.3427
33666SOL     OW 8047  10.729   6.128   8.925 -0.4983  0.5548 -0.3189
33666SOL    HW1 8048  10.701   6.106   8.836 -1.4679  2.2702 -0.4848
33666SOL    HW2 8049  10.723   6.224   8.929  4.1405  1.0689  0.0752
33667SOL     OW 8050   8.856   0.873   1.609 -0.6282 -0.2343  0.6537
33667SOL    HW1 8051   8.937   0.834   1.640 -1.3372 -0.9238  1.6812
33667SOL    HW2 8052   8.882   0.927   1.534  0.7792 -0.3642  1.0363
33668SOL     OW 8053   1.163   0.039   3.468  0.2475 -0.0429  0.0730
33668SOL    HW1 8054   1.215   0.091   3.530  1.1736 -2.4831  1.4929
33668SOL    HW2 8055   1.201   0.058   3.382  2.5009 -0.5347  0.8998
33669SOL     OW 8056   7.500   4.706  11.133 -0.6729  0.0681 -0.5770
33669SOL    HW1 8057   7.551   4.768  11.184 -4.3778  0.8187  2.6329
33669SOL    HW2 8058   7.417   4.750  11.117 -1.0294 -1.5660 -4.3500
33670SOL     OW 8059   3.127   3.167  11.049  0.1569  0.1691 -0.2555
33670SOL    HW1 8060   3.146   3.158  11.142 -0.9690 -2.0882 -0.1874
33670SOL    HW2 8061   3.042   3.125  11.037 -0.6235  2.0759 -2.0227
33671SOL     OW 8062   8.861  12.206   5.040 -0.2928 -0.5892 -0.0340
33671SOL    HW1 8063   8.817  12.289   5.022 -1.3890 -1.4406 -1.4853
33671SOL    HW2 8064   8.895  12.178   4.955  0.1043 -1.6031  0.4416
33672SOL     OW 8065  10.715   6.414   4.471 -0.1624  0.0766 -0.8235
33672SOL    HW1 8066  10.718   6.506   4.497 -0.2698 -0.0017 -0.5266
33672SOL    HW2 8067  10.749   6.366   4.547 -0.5248 -0.1611 -0.8081
33673SOL     OW 8068   0.838   0.103  11.396  0.1340 -0.3274 -0.2735
33673SOL    HW1 8069   0.805   0.025  11.439 -0.0505 -1.0142 -1.6118
33673SOL    HW2 8070   0.760   0.152  11.371  0.2304  1.4674  2.5033
33674SOL     OW 8071   8.848   5.844   8.240 -0.1238  0.5229  0.7246
33674SOL    HW1 8072   8.874   5.922   8.191 -0.6130  1.0699  1.3236
33674SOL    HW2 8073   8.781   5.803   8.185  1.2388 -0.3650 -0.3541
33675SOL     OW 8074  10.109   5.462   4.791 -0.6837  0.1486  0.0514
33675SOL    HW1 8075  10.138   5.388   4.843 -1.2834 -0.8662 -1.0196
33675SOL    HW2 8076  10.127   5.539   4.846 -0.3134 -0.7975  1.2869
33676SOL     OW 8077   2.283   9.454   7.789 -0.1037 -0.5433 -0.0467
33676SOL    HW1 8078   2.190   9.467   7.808  0.1961 -0.1162  1.2378
33676SOL    HW2 8079   2.301   9.514   7.716  0.0312  2.5422  2.3088
33677SOL     OW 8080  10.488  11.679   7.957  0.1776  0.5589 -0.3967
33677SOL    HW1 8081  10.571  11.702   7.916  0.1874  0.3778 -0.4826
33677SOL    HW2 8082  10.460  11.600   7.910 -0.0285  0.6033 -0.3488
33678SOL     OW 8083   8.374  12.372   9.684  0.8427 -0.0586  0.1925
33678SOL    HW1 8084   8.439  12.367   9.754 -0.4164  1.4797  1.5639
33678SOL    HW2 8085   8.291  12.384   9.730 -0.1923 -0.2327 -1.5571
33679SOL     OW 8086   8.750   2.460   5.979 -0.1361 -0.0740 -0.7739
33679SOL    HW1 8087   8.696   2.539   5.973  1.1878  0.9490  0.2811
33679SOL    HW2 8088   8.724   2.409   5.903 -2.1186  0.6563 -0.6765
33680SOL     OW 8089  11.755   8.334   1.540 -0.1699 -0.0215 -0.0818
33680SOL    HW1 8090  11.690   8.264   1.542 -1.6518  1.3073  0.3521
33680SOL    HW2 8091  11.703   8.415   1.531  1.4974  1.0020 -0.9517
33681SOL     OW 8092   1.220   5.125   0.655  0.2457 -0.4652  0.2726
33681SOL    HW1 8093   1.141   5.176   0.672  0.4135  0.1754 -0.8079
33681SOL    HW2 8094   1.292   5.180   0.688  0.2914 -0.8188  0.7773
33682SOL     OW 8095   6.184  10.255  10.369  0.3255  0.4555 -0.3946
33682SOL    HW1 8096   6.184  10.160  10.355 -0.9376  0.3600  0.1527
33682SOL    HW2 8097   6.194  10.293  10.282 -2.0833 -0.1662 -1.0153
33683SOL     OW 8098   8.301   3.392  11.874 -0.0288 -0.0812 -0.5782
33683SOL    HW1 8099   8.384   3.366  11.914 -0.2509 -0.0727 -0.1038
33683SOL    HW2 8100   8.267   3.312  11.833 -1.0823 -0.7941  1.5209
33684SOL     OW 8101   7.258   0.018   3.489  0.1131  0.1378 -0.2597
33684SOL    HW1 8102   7.222  -0.070   3.501 -1.0812  0.4775 -1.1305
33684SOL    HW2 8103   7.191   0.076   3.527  0.3567  0.7281 -0.7192
33685SOL     OW 8104  10.458   8.786   9.851  0.2699  0.7407 -0.0986
33685SOL    HW1 8105  10.518   8.722   9.889  0.4123  0.9737  0.0769
33685SOL    HW2 8106  10.408   8.819   9.926  0.4001  1.0439 -0.1422
33686SOL     OW 8107   4.003  11.863   1.793  0.0014 -0.2374 -0.1927
33686SOL    HW1 8108   4.013  11.934   1.730  2.6499 -0.6727 -0.3958
33686SOL    HW2 8109   4.049  11.894   1.871  2.4065 -2.1366 -0.7331
33687SOL     OW 8110  11.663   8.445  11.239 -0.7071 -0.1685  0.0150
33687SOL    HW1 8111  11.658   8.536  11.268  0.3400 -0.7414  2.2228
33687SOL    HW2 8112  11.623   8.395  11.311  2.8024 -1.7520  1.0922
33688SOL     OW 8113   0.620  11.613   4.965  0.3861 -0.2410  0.0631
33688SOL    HW1 8114   0.699  11.567   4.993 -0.3900 -1.7023 -0.0095
33688SOL    HW2 8115   0.565  11.544   4.927 -0.8412  0.7678 -0.0583
33689SOL     OW 8116   0.403  11.927   4.765 -0.6844  0.8159 -0.2033
33689SOL    HW1 8117   0.446  11.994   4.712 -0.4148  0.8015 -0.0017
33689SOL    HW2 8118   0.347  11.880   4.703  0.6758 -0.1104 -0.7863
33690SOL     OW 8119   8.589   0.451  11.483  0.3023 -0.2378 -0.0047
33690SOL    HW1 8120   8.654   0.383  11.463 -0.2806 -0.7780 -0.0946
33690SOL    HW2 8121   8.569   0.439  11.576  0.1638 -0.2264 -0.0322
33691SOL     OW 8122   0.121   0.532   2.594 -0.1420  0.5790  0.1126
33691SOL    HW1 8123   0.039   0.482   2.595 -0.3944  0.9886  0.5610
33691SOL    HW2 8124   0.189   0.467   2.578 -0.7283  0.5094 -2.6441
33692SOL     OW 8125   5.650   9.211  11.572 -0.2446 -0.0800  0.0122
33692SOL    HW1 8126   5.573   9.182  11.621 -0.8400 -1.3905 -1.6110
33692SOL    HW2 8127   5.615   9.265  11.502  0.2919 -0.5930 -0.6705
33693SOL     OW 8128   8.580   1.808  10.345 -0.1491  0.0861 -0.3050
33693SOL    HW1 8129   8.535   1.893  10.353 -0.8295 -0.0947 -1.8147
33693SOL    HW2 8130   8.535   1.751  10.407 -1.4057  0.1754 -1.0938
33694SOL     OW 8131  12.343   2.869  11.620 -0.1804  0.3735 -0.0534
33694SOL    HW1 8132  12.417   2.866  11.559  1.1424  1.1510  1.4540
33694SOL    HW2 8133  12.266   2.863  11.563  0.9836  1.3004 -1.8292
33695SOL     OW 8134   1.005   0.229   4.679 -0.1617 -0.5627  0.1928
33695SOL    HW1 8135   0.996   0.249   4.586 -0.9584 -2.4378 -0.1897
33695SOL    HW2 8136   0.915   0.222   4.711  0.0943 -1.1088  0.8152
33696SOL     OW 8137   5.665   9.346   7.110 -0.2537  0.0769 -0.5331
33696SOL    HW1 8138   5.650   9.440   7.119 -0.1386 -0.0651  1.7791
33696SOL    HW2 8139   5.756   9.333   7.138  0.4214 -0.5288 -2.7843
33697SOL     OW 8140   9.288   4.309   1.057 -0.5999 -0.4647 -0.0876
33697SOL    HW1 8141   9.218   4.315   0.992 -0.8432 -0.1967  0.1995
33697SOL    HW2 8142   9.308   4.215   1.062 -2.0900 -0.7529  1.0481
33698SOL     OW 8143   2.520   6.977   0.707 -0.5072  0.6557 -0.3389
33698SOL    HW1 8144   2.458   6.962   0.777 -1.6713  0.2263 -1.4185
33698SOL    HW2 8145   2.506   6.904   0.646  1.6467  0.0754 -0.2247
33699SOL     OW 8146  10.460   0.554   1.190 -0.1969  0.1161  0.1661
33699SOL    HW1 8147  10.525   0.609   1.147  0.1912  0.0436  0.6604
33699SOL    HW2 8148  10.453   0.477   1.134 -1.0186  0.8142 -0.7410
33700SOL     OW 8149   8.938   1.001   1.391 -0.2334  0.0861 -0.1993
33700SOL    HW1 8150   8.857   1.033   1.349  0.5253 -0.5005 -2.2522
33700SOL    HW2 8151   8.997   0.983   1.317  1.5537 -0.1201  1.2163
33701SOL     OW 8152   7.696   1.710   8.015  0.7076 -0.2609  0.3691
33701SOL    HW1 8153   7.646   1.765   8.075 -0.9386 -0.2933 -0.9147
33701SOL    HW2 8154   7.773   1.764   7.993  0.0591  0.7645  0.5492
33702SOL     OW 8155   3.739   7.079  11.045 -0.9656 -0.0319 -0.2961
33702SOL    HW1 8156   3.721   6.992  11.009 -2.5821  0.1954 -0.1202
33702SOL    HW2 8157   3.749   7.135  10.968  1.4717 -0.5617 -0.4554
33703SOL     OW 8158   2.674   1.365   1.039  0.1609 -0.4405  0.4605
33703SOL    HW1 8159   2.719   1.422   0.978  1.9036  0.4156  2.4125
33703SOL    HW2 8160   2.727   1.286   1.043 -0.0894 -0.6012  0.6668
33704SOL     OW 8161   7.658   8.195  12.367 -0.3124 -0.2773  0.1316
33704SOL    HW1 8162   7.700   8.219  12.449  0.9418 -0.9397 -0.2915
33704SOL    HW2 8163   7.565   8.189  12.388 -0.5677  3.2227  0.6598
33705SOL     OW 8164   0.914   5.203   7.284 -0.2282  0.2552  0.1443
33705SOL    HW1 8165   0.986   5.143   7.302  0.2465  1.2192  1.6454
33705SOL    HW2 8166   0.844   5.176   7.344 -0.0338  1.1377  0.7875
33706SOL     OW 8167   0.311   1.190   1.387  0.4476  0.3620  0.0108
33706SOL    HW1 8168   0.329   1.249   1.314 -1.5741  1.6847  0.4823
33706SOL    HW2 8169   0.227   1.149   1.365  0.0673  0.3816  1.3087
33707SOL     OW 8170   8.521  11.559   3.128  0.4287 -0.2809  0.0562
33707SOL    HW1 8171   8.570  11.502   3.188  1.8197 -0.3685 -1.0905
33707SOL    HW2 8172   8.530  11.516   3.043 -1.6957 -0.2833 -0.2046
33708SOL     OW 8173   7.195   8.871   2.856  0.0422 -0.0290  0.0425
33708SOL    HW1 8174   7.130   8.868   2.786 -0.5076 -1.3439  0.5873
33708SOL    HW2 8175   7.229   8.961   2.852 -0.0095 -0.0363 -1.8523
33709SOL     OW 8176   8.335   6.529   5.539 -0.0211 -0.0761  0.0982
33709SOL    HW1 8177   8.268   6.562   5.600  0.5489 -0.7473  1.1239
33709SOL    HW2 8178   8.388   6.606   5.518 -0.6558  0.3092 -0.1256
33710SOL     OW 8179   4.866   0.799  11.855 -0.2159 -0.3868 -0.0887
33710SOL    HW1 8180   4.876   0.715  11.809  2.1968  0.2800 -0.9549
33710SOL    HW2 8181   4.918   0.787  11.935 -1.4554 -0.3243  0.7545
33711SOL     OW 8182   3.246   1.815   8.350  0.3556 -0.4777  0.3271
33711SOL    HW1 8183   3.261   1.841   8.259  1.5897 -3.1135 -0.3157
33711SOL    HW2 8184   3.161   1.771   8.348 -0.4298  0.9567  0.8483
33712SOL     OW 8185   7.958   0.106   1.596 -0.0168 -0.3510  0.0973
33712SOL    HW1 8186   7.972   0.168   1.524  3.3180 -1.9247 -0.8019
33712SOL    HW2 8187   7.951   0.161   1.674  2.4371  1.2793 -0.7055
33713SOL     OW 8188   3.773  10.333  12.268 -0.2024 -0.2095 -0.2103
33713SOL    HW1 8189   3.862  10.310  12.239  0.3206  1.3830  0.0178
33713SOL    HW2 8190   3.785  10.364  12.358 -0.7327  1.3979 -0.6514
33714SOL     OW 8191   0.745   0.050   9.606 -0.6615  0.0438  0.1179
33714SOL    HW1 8192   0.680  -0.015   9.583 -0.6758 -0.2937  1.0589
33714SOL    HW2 8193   0.695   0.122   9.645 -0.5180 -0.0680  0.5219
33715SOL     OW 8194   3.467  12.445   9.566 -0.3910  0.2621 -0.3082
33715SOL    HW1 8195   3.521  12.483   9.495  0.6504 -1.7752 -0.6818
33715SOL    HW2 8196   3.478  12.351   9.556 -3.2232 -0.2080  0.3172
33716SOL     OW 8197   4.161   7.073   3.630 -1.0553  0.4583 -0.1942
33716SOL    HW1 8198   4.158   7.075   3.534  0.1346  0.1623 -0.2591
33716SOL    HW2 8199   4.230   7.010   3.650  0.9026  2.7322  0.7649
33717SOL     OW 8200   6.677   5.743   3.199 -0.4882  0.1207 -0.0215
33717SOL    HW1 8201   6.751   5.777   3.149 -0.5824 -0.5594 -0.6372
33717SOL    HW2 8202   6.606   5.735   3.135 -1.4524  1.7936  0.7650
33718SOL     OW 8203   0.300   2.084   1.280  0.0985 -0.5932  0.6004
33718SOL    HW1 8204   0.214   2.116   1.254  0.6845 -0.1526 -0.9086
33718SOL    HW2 8205   0.290   1.989   1.284  0.2349 -0.8135 -2.4852
33719SOL     OW 8206   4.847   2.569   9.909  0.3812  0.8286  0.4508
33719SOL    HW1 8207   4.927   2.564   9.962  0.1366 -0.0390  0.7546
33719SOL    HW2 8208   4.812   2.480   9.910 -0.5878  1.1994  0.3092
33720SOL     OW 8209   1.703   8.734   5.031 -0.2380  0.1604 -0.1541
33720SOL    HW1 8210   1.709   8.668   5.101  0.7116  1.4336  1.0284
33720SOL    HW2 8211   1.616   8.721   4.994  0.0864 -2.0516 -0.3017
33721SOL     OW 8212   3.844   9.779   3.050  0.0105 -0.3289  0.3811
33721SOL    HW1 8213   3.932   9.749   3.027  0.7339  0.8400  1.4250
33721SOL    HW2 8214   3.800   9.793   2.967  0.7803 -1.0283 -0.1578
33722SOL     OW 8215   4.127   3.267   5.746  0.6836 -0.1640 -0.2743
33722SOL    HW1 8216   4.191   3.323   5.789 -0.4843 -0.0313  1.3589
33722SOL    HW2 8217   4.155   3.178   5.767  0.7540 -0.1272 -0.2138
33723SOL     OW 8218   3.752   8.132   9.253  0.1603  0.4176 -0.0756
33723SOL    HW1 8219   3.715   8.216   9.224 -1.0745 -0.4045 -0.9676
33723SOL    HW2 8220   3.678   8.087   9.295  0.6893 -0.4177 -0.0240
33724SOL     OW 8221   7.245   7.020   1.304 -0.2604  0.0756 -0.0543
33724SOL    HW1 8222   7.306   7.094   1.305  0.7528 -0.7372 -0.0360
33724SOL    HW2 8223   7.184   7.040   1.234  0.4988  0.5422 -0.5987
33725SOL     OW 8224   3.120   5.473   2.031  0.9861 -0.1781 -0.1809
33725SOL    HW1 8225   3.118   5.537   2.103 -1.3107  0.4235 -0.7244
33725SOL    HW2 8226   3.182   5.511   1.968  1.8937  0.0128  0.7832
33726SOL     OW 8227   9.987   9.782  10.808  0.3916 -0.3301 -0.0410
33726SOL    HW1 8228  10.072   9.751  10.840  0.8843  0.2139 -0.7667
33726SOL    HW2 8229   9.937   9.702  10.791  1.3211 -0.7271 -1.0414
33727SOL     OW 8230   1.257  12.512   2.135 -0.3235  0.4956 -0.7134
33727SOL    HW1 8231   1.302  12.595   2.152  1.7489 -0.7643  0.3377
33727SOL    HW2 8232   1.236  12.478   2.222 -0.1479 -0.5957 -1.0860
33728SOL     OW 8233   8.560   2.562   4.468 -0.2544 -0.9074  0.2480
33728SOL    HW1 8234   8.541   2.572   4.561  0.8264 -0.2561  0.4129
33728SOL    HW2 8235   8.570   2.468   4.455 -0.4593 -1.0036  0.7797
33729SOL     OW 8236   5.868   5.876  12.318  0.2911 -0.2264 -0.5918
33729SOL    HW1 8237   5.921   5.947  12.282 -0.4539  0.4639 -0.3549
33729SOL    HW2 8238   5.924   5.798  12.311  0.9974  0.3193 -1.1439
33730SOL     OW 8239   3.342   3.398   8.369 -0.7742 -0.8337 -0.4416
33730SOL    HW1 8240   3.338   3.447   8.451  1.0130 -2.0266  0.4261
33730SOL    HW2 8241   3.404   3.446   8.315 -0.1651 -1.2829 -0.1626
33731SOL     OW 8242  11.497   4.991  11.463 -0.0877 -0.4130 -0.1604
33731SOL    HW1 8243  11.407   5.018  11.446  0.3811  0.6395 -1.1156
33731SOL    HW2 8244  11.490   4.900  11.489 -1.2891 -0.9167 -2.0163
33732SOL     OW 8245   5.807  10.246  11.876  0.2460 -0.1243 -0.1324
33732SOL    HW1 8246   5.871  10.297  11.827 -0.9004  0.4715 -1.0593
33732SOL    HW2 8247   5.727  10.299  11.873 -1.1053 -2.1112 -1.4604
33733SOL     OW 8248   8.971   4.100   3.730  0.0757  0.4373 -0.1139
33733SOL    HW1 8249   8.960   4.016   3.685 -0.0712  0.8271 -0.8022
33733SOL    HW2 8250   9.059   4.129   3.705  0.4902  0.0694  0.8405
33734SOL     OW 8251   0.222   2.151   9.445 -0.4669 -0.4482  0.5080
33734SOL    HW1 8252   0.218   2.057   9.461 -0.3550 -0.4068  0.8022
33734SOL    HW2 8253   0.243   2.160   9.352 -1.2982 -0.7050  0.2920
33735SOL     OW 8254  10.570   2.020   5.061  0.3622  0.1617  0.1788
33735SOL    HW1 8255  10.637   1.987   5.120  0.6015 -1.8188 -1.1132
33735SOL    HW2 8256  10.489   2.015   5.113  0.9335  1.0911  1.2182
33736SOL     OW 8257   9.508   4.645   5.570 -0.5542  0.0893 -0.1256
33736SOL    HW1 8258   9.430   4.699   5.575 -0.8335 -0.4326  2.2024
33736SOL    HW2 8259   9.560   4.685   5.500 -2.0026  1.6211 -0.3961
33737SOL     OW 8260   3.130   4.832   1.590  0.3787 -0.5813 -0.2246
33737SOL    HW1 8261   3.197   4.898   1.604 -0.8531  0.5687  0.5223
33737SOL    HW2 8262   3.132   4.779   1.670  0.1125 -0.2798 -0.0171
33738SOL     OW 8263   4.257   7.647   6.226 -0.5078  0.2999  0.0338
33738SOL    HW1 8264   4.265   7.587   6.299 -0.9532 -0.1998 -0.3204
33738SOL    HW2 8265   4.332   7.627   6.170 -0.8930 -0.2232 -0.2964
33739SOL     OW 8266   7.007   9.697   1.663  0.4623  0.6186 -0.3734
33739SOL    HW1 8267   6.930   9.653   1.698  0.3040 -0.3290 -1.8667
33739SOL    HW2 8268   7.063   9.710   1.740 -0.7138  0.3862  0.5534
33740SOL     OW 8269   9.903   2.311   6.683  0.3659  0.2357  0.0973
33740SOL    HW1 8270   9.859   2.367   6.747  1.1850  1.5437 -0.4304
33740SOL    HW2 8271   9.860   2.331   6.600 -0.5188 -1.2583  0.1596
33741SOL     OW 8272   6.925   9.980   7.459  0.8043  0.1545 -0.2088
33741SOL    HW1 8273   6.917  10.027   7.542  0.0666 -0.6283  0.1789
33741SOL    HW2 8274   7.010  10.006   7.425  1.1486  0.4322  0.8258
33742SOL     OW 8275   2.578   4.793   5.516  0.2300 -0.0807  0.4079
33742SOL    HW1 8276   2.641   4.722   5.529  0.8402  0.4163  0.1878
33742SOL    HW2 8277   2.546   4.812   5.605  1.3993  0.5715  0.7094
33743SOL     OW 8278   5.814  11.120  10.437 -0.1788 -0.0002 -0.5923
33743SOL    HW1 8279   5.871  11.175  10.490 -0.3113  0.5254 -0.9909
33743SOL    HW2 8280   5.757  11.076  10.501 -0.3514  0.6439 -0.2952
33744SOL     OW 8281  10.634   1.773   6.081  0.7743  0.4043  0.6258
33744SOL    HW1 8282  10.572   1.721   6.131 -2.0121  2.8649  0.0184
33744SOL    HW2 8283  10.671   1.712   6.017  0.0701 -1.4799  1.9336
33745SOL     OW 8284   6.780   3.286   0.848  0.1885 -0.3836  0.2711
33745SOL    HW1 8285   6.756   3.333   0.928  0.0922  1.8582 -0.9711
33745SOL    HW2 8286   6.696   3.261   0.809  0.0258  1.6264 -0.7999
33746SOL     OW 8287   2.245  12.418  10.093 -0.0324  0.1331 -0.1995
33746SOL    HW1 8288   2.297  12.340  10.073 -1.0732 -0.9026  0.9592
33746SOL    HW2 8289   2.275  12.445  10.180 -0.7153  0.1208  0.0476
33747SOL     OW 8290   9.572   1.297   8.701 -0.3255  0.1434 -0.1372
33747SOL    HW1 8291   9.645   1.237   8.717 -1.3986 -1.3921 -0.7601
33747SOL    HW2 8292   9.589   1.372   8.759  0.7317 -1.0461  1.1607
33748SOL     OW 8293   5.406   8.855   8.760  0.0446 -0.0939  0.4470
33748SOL    HW1 8294   5.448   8.819   8.681 -0.7630  3.4992 -1.8289
33748SOL    HW2 8295   5.321   8.811   8.764 -0.2661  0.2810 -1.2566
33749SOL     OW 8296   6.122   2.385   5.350 -0.1787 -0.3229 -0.3115
33749SOL    HW1 8297   6.134   2.302   5.395 -0.2816  0.2367  0.7856
33749SOL    HW2 8298   6.035   2.415   5.378  0.4656  0.8603  0.5155
33750SOL     OW 8299   2.103  12.506   2.436  0.0119  0.0612  0.0952
33750SOL    HW1 8300   2.169  12.533   2.499 -1.2009  0.7567  1.1104
33750SOL    HW2 8301   2.075  12.587   2.393 -0.5174 -0.1598  0.0087
33751SOL     OW 8302  10.346   1.933   0.613 -0.7050  0.7290  0.0886
33751SOL    HW1 8303  10.310   1.934   0.524  0.2958  0.5792 -0.3232
33751SOL    HW2 8304  10.437   1.906   0.603  0.3554  3.6614  0.8171
33752SOL     OW 8305  11.074   5.146   8.922 -0.2331 -0.1716 -0.0776
33752SOL    HW1 8306  11.000   5.087   8.905  0.0679 -0.8995  1.0089
33752SOL    HW2 8307  11.058   5.221   8.865 -2.6332  0.3754  1.1633
33753SOL     OW 8308   0.249   7.281   6.006  0.0498 -0.0888 -0.2505
33753SOL    HW1 8309   0.250   7.311   6.097  0.6663 -1.5169  0.2499
33753SOL    HW2 8310   0.331   7.313   5.969 -1.0852  2.2293 -0.9607
33754SOL     OW 8311  11.608   2.013   8.581  0.4377 -0.3075  0.3369
33754SOL    HW1 8312  11.677   1.948   8.599 -0.1432 -1.1892 -0.5142
33754SOL    HW2 8313  11.528   1.971   8.612  0.1148  0.2081  0.2001
33755SOL     OW 8314   6.665   2.529   5.509  0.0673  0.4473  0.4663
33755SOL    HW1 8315   6.705   2.443   5.497 -1.3596 -0.0435 -1.0823
33755SOL    HW2 8316   6.581   2.511   5.551 -0.1682  1.1039  0.2864
33756SOL     OW 8317  10.639   4.006   0.075  0.1104 -0.2497  0.0646
33756SOL    HW1 8318  10.576   4.059   0.123  0.0631 -0.6697  0.4683
33756SOL    HW2 8319  10.621   4.025  -0.017  1.2075  1.7185  0.2122
33757SOL     OW 8320   9.048   2.386   6.907 -0.3394 -0.5152  0.0832
33757SOL    HW1 8321   9.053   2.434   6.825 -0.2981  1.3255  1.1244
33757SOL    HW2 8322   8.955   2.370   6.920 -0.6892  2.1044  1.2531
33758SOL     OW 8323   3.124   6.241   6.226  0.3465 -0.0023  0.0786
33758SOL    HW1 8324   3.185   6.281   6.288 -0.0897  0.2849  0.3271
33758SOL    HW2 8325   3.057   6.308   6.211 -0.8549 -0.9131  1.1439
33759SOL     OW 8326  11.911   0.308   9.952  0.0850 -0.0575  0.0597
33759SOL    HW1 8327  11.958   0.391   9.960 -0.3739  0.0196  2.5339
33759SOL    HW2 8328  11.948   0.268   9.873  2.6244  1.0551  0.5765
33760SOL     OW 8329   1.255   9.015  12.010 -0.0390  0.2313  0.6424
33760SOL    HW1 8330   1.344   9.047  12.025  0.5849  0.1647 -2.3616
33760SOL    HW2 8331   1.208   9.091  11.976 -0.0459 -0.6141 -1.3368
33761SOL     OW 8332   9.518   5.814   1.054 -0.2534 -0.2145 -0.2900
33761SOL    HW1 8333   9.432   5.779   1.033 -0.0723 -0.0953 -1.3104
33761SOL    HW2 8334   9.537   5.875   0.982 -0.2615  1.4659  1.0661
33762SOL     OW 8335  11.870   0.031   2.299 -0.3504 -0.2580 -0.0703
33762SOL    HW1 8336  11.876  -0.064   2.293  0.8484 -0.3024  1.3042
33762SOL    HW2 8337  11.954   0.063   2.266 -0.1169  0.2126  0.9202
33763SOL     OW 8338   8.468   7.950   0.678  0.5859  0.7090 -0.3776
33763SOL    HW1 8339   8.561   7.936   0.692  1.1771  1.8145 -2.6749
33763SOL    HW2 8340   8.458   8.046   0.679 -0.3657  0.6268 -1.0437
33764SOL     OW 8341   8.492   9.681   0.700  0.2466 -0.5916  0.0905
33764SOL    HW1 8342   8.426   9.613   0.713 -0.5183  0.1770  0.3401
33764SOL    HW2 8343   8.444   9.763   0.710  1.0086  0.0013 -0.8905
33765SOL     OW 8344   2.886   2.406   5.980  0.0385  0.3535  0.3469
33765SOL    HW1 8345   2.918   2.495   5.994  0.9617  0.1503 -0.3216
33765SOL    HW2 8346   2.942   2.352   6.036  0.0388  0.1140  0.1175
33766SOL     OW 8347   4.552  10.121   9.310  0.2887 -0.7047  0.6261
33766SOL    HW1 8348   4.552  10.160   9.222 -0.1516 -0.1870  0.8489
33766SOL    HW2 8349   4.494  10.178   9.361  0.5325 -1.0119  1.2482
33767SOL     OW 8350   8.216  12.473   1.137  0.0415  0.2503 -0.0954
33767SOL    HW1 8351   8.135  12.490   1.089  0.1846 -0.6161 -0.6639
33767SOL    HW2 8352   8.201  12.512   1.223 -1.3749 -0.7434  0.1530
33768SOL     OW 8353   1.914   2.630   3.631  0.2315  0.3211 -0.3904
33768SOL    HW1 8354   1.871   2.599   3.551 -0.0353 -2.5181  0.7310
33768SOL    HW2 8355   2.007   2.636   3.608  0.2017 -0.7863 -0.8614
33769SOL     OW 8356   4.329   1.473   2.977 -0.7205 -0.2527  0.4238
33769SOL    HW1 8357   4.270   1.504   3.045  1.5620 -1.2272  3.0694
33769SOL    HW2 8358   4.334   1.378   2.991  1.5640 -0.1821  0.4507
33770SOL     OW 8359   0.719   6.600   7.109  0.2069  0.1036  0.3964
33770SOL    HW1 8360   0.812   6.593   7.132 -0.1753 -1.1793  1.6473
33770SOL    HW2 8361   0.719   6.657   7.032  2.0005  0.3703  0.5319
33771SOL     OW 8362   9.467   7.909   6.809  0.6717 -0.1824  0.9773
33771SOL    HW1 8363   9.537   7.967   6.837  0.3416  0.2579  0.9064
33771SOL    HW2 8364   9.405   7.908   6.882  0.5949 -0.3132  0.9111
33772SOL     OW 8365   5.725   8.542   9.131 -0.1468 -0.0244 -0.0037
33772SOL    HW1 8366   5.730   8.545   9.226 -1.7968  1.0347  0.0887
33772SOL    HW2 8367   5.700   8.452   9.111 -1.1277  0.0794  0.6730
33773SOL     OW 8368   4.817  10.199  12.006 -0.5989 -0.0474 -0.7148
33773SOL    HW1 8369   4.734  10.153  11.992  0.1752 -1.6441 -0.3525
33773SOL    HW2 8370   4.883  10.129  12.009  0.7083  1.1400 -0.5477
33774SOL     OW 8371  10.715   9.405   0.305  0.2456 -0.0249 -0.5320
33774SOL    HW1 8372  10.784   9.469   0.323 -0.3259  0.6385 -0.6295
33774SOL    HW2 8373  10.645   9.457   0.265  0.7811 -1.1119 -3.0869
33775SOL     OW 8374   2.251   4.650   9.801  0.2832  0.3532 -0.8259
33775SOL    HW1 8375   2.169   4.619   9.762 -0.1825 -1.4819  1.4062
33775SOL    HW2 8376   2.224   4.700   9.878  1.2239 -0.5646  0.1391
33776SOL     OW 8377   3.035   7.184   7.005  0.3146  0.8041  0.7749
33776SOL    HW1 8378   3.054   7.191   7.098  1.2569  2.6517  0.4885
33776SOL    HW2 8379   3.080   7.258   6.965  2.2149 -1.4042 -1.5309
33777SOL     OW 8380   9.395   4.916   0.182  0.0841  0.3904  0.2774
33777SOL    HW1 8381   9.323   4.948   0.129  0.3463  1.3502  0.4761
33777SOL    HW2 8382   9.366   4.930   0.273  0.1269 -0.1174  0.3726
33778SOL     OW 8383   6.997  11.028  10.534 -0.0982  0.5168  0.4273
33778SOL    HW1 8384   6.986  10.984  10.618  2.1971 -0.8452  0.1105
33778SOL    HW2 8385   7.092  11.040  10.526 -0.2655  0.7442 -1.8856
33779SOL     OW 8386   3.168   2.642   7.806 -0.0784 -0.2098 -0.1806
33779SOL    HW1 8387   3.249   2.676   7.769 -0.5404  0.3979 -0.6623
33779SOL    HW2 8388   3.134   2.713   7.859 -0.3129 -0.4483 -0.0091
33780SOL     OW 8389   5.404   9.695   9.831  0.2268  0.1261 -0.2341
33780SOL    HW1 8390   5.378   9.735   9.914 -0.7635  0.3642 -0.6344
33780SOL    HW2 8391   5.431   9.606   9.855 -1.2157 -0.2247  0.2280
33781SOL     OW 8392   0.900   9.938   5.052  0.6580  0.0342  0.3734
33781SOL    HW1 8393   0.831  10.000   5.076 -0.0109 -0.7379  0.4819
33781SOL    HW2 8394   0.888   9.865   5.112  1.0290 -0.4833 -0.1787
33782SOL     OW 8395   7.004   4.171   0.121 -0.6011 -0.2239  0.0245
33782SOL    HW1 8396   7.003   4.083   0.083  0.9331  0.7542 -2.5551
33782SOL    HW2 8397   6.917   4.181   0.159 -1.1038 -2.5593 -0.3293
33783SOL     OW 8398   4.327   4.901  10.619 -0.8082  0.1251 -0.0404
33783SOL    HW1 8399   4.263   4.972  10.629 -0.4703  0.2351  1.5209
33783SOL    HW2 8400   4.399   4.941  10.570 -1.2810  0.4171 -0.5139
33784SOL     OW 8401   2.428   0.454   3.270  0.0123  0.0573 -1.0829
33784SOL    HW1 8402   2.465   0.442   3.183 -2.1517  0.2053 -2.0911
33784SOL    HW2 8403   2.504   0.470   3.327  1.6072 -1.6165 -2.6226
33785SOL     OW 8404  11.134   7.806   6.707  0.2215  0.5765  0.5304
33785SOL    HW1 8405  11.192   7.747   6.755 -1.4960  0.6283  2.8440
33785SOL    HW2 8406  11.112   7.875   6.770 -1.2869  1.2692 -0.6757
33786SOL     OW 8407   6.065   4.269   3.200 -0.0090 -0.6321 -0.6821
33786SOL    HW1 8408   6.144   4.309   3.236  0.2855 -1.1073 -0.7780
33786SOL    HW2 8409   6.077   4.175   3.217 -0.8521 -0.6445 -0.1293
33787SOL     OW 8410   3.900  12.171   1.739 -0.0981  0.0948 -0.0706
33787SOL    HW1 8411   3.824  12.214   1.700 -0.4718 -1.5278 -1.2138
33787SOL    HW2 8412   3.953  12.143   1.665  0.2674 -1.1494  0.6297
33788SOL     OW 8413  10.680   8.956   3.825 -0.2703  0.1053  0.2321
33788SOL    HW1 8414  10.590   8.985   3.840  0.5635  1.5943  2.9798
33788SOL    HW2 8415  10.714   9.017   3.760 -0.8938  0.3085  0.0862
33789SOL     OW 8416   3.198   0.096   7.347 -0.8936  0.3441 -0.3341
33789SOL    HW1 8417   3.203   0.184   7.312 -3.0332 -0.1574 -2.0778
33789SOL    HW2 8418   3.238   0.103   7.434 -0.3196  2.8185 -0.7178
33790SOL     OW 8419   4.276   2.480   9.095  0.2336 -0.0588  0.4464
33790SOL    HW1 8420   4.248   2.520   9.177 -0.9245  0.8776 -0.3674
33790SOL    HW2 8421   4.235   2.394   9.095  0.9455 -0.4102  1.2270
33791SOL     OW 8422   6.522   7.208   0.243 -0.0777  0.4469  0.2834
33791SOL    HW1 8423   6.542   7.188   0.334 -0.0367 -1.2047 -0.0561
33791SOL    HW2 8424   6.457   7.143   0.217 -0.5933  1.3057 -0.6871
33792SOL     OW 8425   6.652   0.366   3.568  0.2877  0.2767 -0.0676
33792SOL    HW1 8426   6.581   0.394   3.510  0.8787  1.8374 -0.0761
33792SOL    HW2 8427   6.653   0.430   3.639  1.4200  0.0467  0.1516
33793SOL     OW 8428   3.998   5.068   2.858  0.4209  0.1465  0.2390
33793SOL    HW1 8429   3.998   5.158   2.825  1.9164  0.8255  1.9143
33793SOL    HW2 8430   3.986   5.014   2.779 -2.0417  1.7847 -0.6252
33794SOL     OW 8431  11.525   4.812   6.346 -0.3243 -0.4778 -0.0665
33794SOL    HW1 8432  11.453   4.749   6.340 -0.4859 -0.3045  0.0891
33794SOL    HW2 8433  11.491   4.883   6.399 -0.5187  0.2731 -1.1603
33795SOL     OW 8434   9.984   0.584  12.529 -0.6421  0.2462 -0.0670
33795SOL    HW1 8435   9.946   0.671  12.514 -2.0070 -0.6369 -2.2383
33795SOL    HW2 8436   9.908   0.526  12.532  0.3151 -1.0411 -0.0740
33796SOL     OW 8437   5.211  10.465   5.347  0.4178 -0.1203  0.0184
33796SOL    HW1 8438   5.234  10.436   5.436 -0.5043  2.4425  1.1994
33796SOL    HW2 8439   5.289  10.510   5.315  0.4395 -0.2458 -0.1058
33797SOL     OW 8440  11.672   2.367   0.439  0.6145 -0.6009 -0.1103
33797SOL    HW1 8441  11.751   2.388   0.390  2.9226 -3.7248  1.9128
33797SOL    HW2 8442  11.683   2.414   0.522 -0.6359  0.3920 -0.4688
33798SOL     OW 8443   8.179   2.552   7.538 -0.8926 -0.2654  0.0944
33798SOL    HW1 8444   8.215   2.493   7.472 -2.3890 -1.2646  0.1216
33798SOL    HW2 8445   8.248   2.561   7.603  0.9186  1.2951 -1.8636
33799SOL     OW 8446   7.484   7.211   5.832 -0.2073 -0.1961 -0.4803
33799SOL    HW1 8447   7.534   7.291   5.845 -2.2929  0.9612  1.0017
33799SOL    HW2 8448   7.439   7.225   5.749  0.7662 -0.6360 -1.1054
33800SOL     OW 8449   5.980   7.235   5.066 -0.1001 -0.3509 -0.0225
33800SOL    HW1 8450   5.943   7.152   5.096  1.7833 -1.1598  0.2262
33800SOL    HW2 8451   6.056   7.210   5.013 -0.1227  1.1960 -0.8560
33801SOL     OW 8452   2.861   1.794   0.855  0.8040  0.6606  0.0025
33801SOL    HW1 8453   2.952   1.776   0.880  1.0551  0.5840 -0.9184
33801SOL    HW2 8454   2.831   1.860   0.917  2.1182  2.1076 -0.8300
33802SOL     OW 8455  12.543   5.692   0.132 -0.6627  0.3178  0.0220
33802SOL    HW1 8456  12.527   5.776   0.176 -2.5559 -0.0603  0.1504
33802SOL    HW2 8457  12.461   5.643   0.144 -0.2847 -0.8134 -1.6973
33803SOL     OW 8458   3.521  10.336   1.072  0.4416 -0.4277  0.2070
33803SOL    HW1 8459   3.565  10.365   0.992  2.7780  2.5665  2.3033
33803SOL    HW2 8460   3.438  10.384   1.072  1.5276  1.5973  0.6219
33804SOL     OW 8461   9.357   5.122   8.225  0.1712  0.3113 -0.3301
33804SOL    HW1 8462   9.437   5.155   8.267  0.7008  1.2436 -1.9863
33804SOL    HW2 8463   9.382   5.111   8.133 -0.9438 -1.6727 -0.4442
33805SOL     OW 8464   6.276   3.499   9.191  0.3626 -0.3384 -0.4118
33805SOL    HW1 8465   6.341   3.433   9.168  0.1024 -0.0502 -2.1513
33805SOL    HW2 8466   6.326   3.569   9.233  1.2410 -0.0830 -1.7960
33806SOL     OW 8467   0.015   0.118  12.520  0.0318 -0.1882  0.5921
33806SOL    HW1 8468   0.099   0.077  12.541 -0.5186 -1.4362  0.4786
33806SOL    HW2 8469   0.006   0.106  12.425  0.0278  0.5418  0.4955
33807SOL     OW 8470   7.320   5.288   8.233  0.5851 -0.2462 -0.8493
33807SOL    HW1 8471   7.277   5.302   8.317  1.9268 -4.2774  0.7307
33807SOL    HW2 8472   7.394   5.348   8.233 -0.8145  1.5507 -0.3421
33808SOL     OW 8473   7.793  10.454  11.163  0.6501  0.5352  0.0500
33808SOL    HW1 8474   7.762  10.544  11.172 -0.7014 -0.0667  1.9835
33808SOL    HW2 8475   7.772  10.430  11.073 -0.6526  1.5641  0.0456
33809SOL     OW 8476   8.896   0.428  11.262  0.5055 -0.0128  0.2548
33809SOL    HW1 8477   8.887   0.387  11.347  1.2125 -0.6506  0.0343
33809SOL    HW2 8478   8.985   0.464  11.262  0.0124  1.2390  0.3197
33810SOL     OW 8479   5.389   4.601   3.217 -0.1137 -0.1082 -0.7852
33810SOL    HW1 8480   5.460   4.536   3.215  0.0322 -0.0011  0.4581
33810SOL    HW2 8481   5.316   4.555   3.258 -0.6653 -0.0986 -1.7237
33811SOL     OW 8482   9.329   9.315   0.900 -0.0187  0.1626  0.0238
33811SOL    HW1 8483   9.301   9.246   0.960  0.6217  1.4452  1.8972
33811SOL    HW2 8484   9.316   9.278   0.813 -0.4875 -1.9888  0.9412
33812SOL     OW 8485  12.189  10.817   4.144  0.2038 -0.3250 -0.1133
33812SOL    HW1 8486  12.225  10.896   4.104 -0.3621  0.8081  1.4980
33812SOL    HW2 8487  12.135  10.777   4.075 -0.7838  1.5581 -0.4920
33813SOL     OW 8488   7.322   9.008   7.932 -0.1244  0.9012 -0.3790
33813SOL    HW1 8489   7.391   9.010   7.867 -1.6798  1.4641 -2.0932
33813SOL    HW2 8490   7.347   9.075   7.996  1.0659  0.8347 -0.7627
33814SOL     OW 8491   6.789  10.583   5.357  0.3748 -0.4554 -0.0552
33814SOL    HW1 8492   6.809  10.506   5.303  2.0584  0.2946 -0.5244
33814SOL    HW2 8493   6.863  10.591   5.416 -1.0277 -0.7339  1.8536
33815SOL     OW 8494   2.584   6.709   8.727  0.2021  0.0177  0.1066
33815SOL    HW1 8495   2.531   6.703   8.647  0.1892 -0.1226  0.1242
33815SOL    HW2 8496   2.564   6.628   8.774 -1.7165  1.1941  1.4524
33816SOL     OW 8497   8.394   9.761   3.778 -0.2862 -0.0726  0.0588
33816SOL    HW1 8498   8.356   9.823   3.715 -0.8809  0.1925  0.6749
33816SOL    HW2 8499   8.474   9.805   3.807  0.8229 -0.8551 -1.6173
33817SOL     OW 8500   8.923   0.118   0.450 -0.5811 -0.2431 -0.3992
33817SOL    HW1 8501   8.847   0.129   0.393 -0.6145 -0.4071 -0.3858
33817SOL    HW2 8502   8.891   0.145   0.536 -0.4065  0.4297 -0.5429
33818SOL     OW 8503   0.259   3.517  11.919  0.0225  0.2336  0.4485
33818SOL    HW1 8504   0.300   3.591  11.964 -0.0022 -0.0460  0.9448
33818SOL    HW2 8505   0.314   3.442  11.940  1.2023  0.4222 -1.7014
33819SOL     OW 8506   2.085   0.720   5.839 -0.6519 -0.6061  0.3164
33819SOL    HW1 8507   2.037   0.724   5.922  2.2660  2.2427  2.1253
33819SOL    HW2 8508   2.050   0.793   5.788  0.2681  0.2236  0.8236
33820SOL     OW 8509  11.839   5.347   3.200 -0.4398  0.8710 -0.1694
33820SOL    HW1 8510  11.771   5.280   3.200  0.9778 -0.6561  0.8179
33820SOL    HW2 8511  11.810   5.412   3.264 -0.3444 -0.4932  1.3061
33821SOL     OW 8512   6.459   0.986  11.289  0.3423  0.2692 -0.2132
33821SOL    HW1 8513   6.475   1.013  11.198 -1.1870  1.9411 -0.0428
33821SOL    HW2 8514   6.536   1.017  11.337  0.7129  0.2350 -0.7695
33822SOL     OW 8515  11.615   5.260   0.496  0.3615  0.4174  0.1265
33822SOL    HW1 8516  11.646   5.346   0.469 -0.9450  1.6699  2.3322
33822SOL    HW2 8517  11.692   5.204   0.492  1.4319  1.8941 -0.5247
33823SOL     OW 8518   1.585   7.195   7.000  0.5130  0.3967  0.2183
33823SOL    HW1 8519   1.624   7.108   7.013  1.9379  0.9310 -0.2766
33823SOL    HW2 8520   1.638   7.253   7.055 -0.5702  0.9248  0.7219
33824SOL     OW 8521   9.354  10.960   0.746  1.0936 -0.2968 -0.2459
33824SOL    HW1 8522   9.390  11.025   0.807  0.6599  0.7715 -1.0937
33824SOL    HW2 8523   9.408  10.969   0.668  0.3769 -0.2373 -0.7354
33825SOL     OW 8524   4.922   7.465   5.077 -0.2603 -0.4346 -0.3960
33825SOL    HW1 8525   4.914   7.419   5.161 -3.9445  1.7494  0.7262
33825SOL    HW2 8526   4.905   7.397   5.011  0.8156 -1.8409  0.7061
33826SOL     OW 8527   7.972   6.912  10.941 -0.2200 -0.3213 -0.1983
33826SOL    HW1 8528   8.026   6.840  10.974 -0.1315 -0.6253 -0.9884
33826SOL    HW2 8529   7.943   6.958  11.020  0.5141 -0.6453  0.2678
33827SOL     OW 8530   5.936  10.810   8.572 -0.6805 -0.1110  0.2856
33827SOL    HW1 8531   6.008  10.755   8.542 -0.3436  1.1175 -1.2545
33827SOL    HW2 8532   5.965  10.899   8.554 -1.8152  0.5097  1.4001
33828SOL     OW 8533   8.870  10.223   2.580  0.5165  0.5347  0.5042
33828SOL    HW1 8534   8.826  10.254   2.501  1.3142  0.7892  0.1504
33828SOL    HW2 8535   8.810  10.159   2.617  0.4313 -0.1218 -0.7056
33829SOL     OW 8536   8.380   4.889   6.577  0.3744 -0.3126 -0.0565
33829SOL    HW1 8537   8.295   4.915   6.613 -0.0261 -4.0383  2.2154
33829SOL    HW2 8538   8.370   4.902   6.482 -2.7258 -0.5115  0.1171
33830SOL     OW 8539   8.029  11.945   6.679 -0.1464  0.2748 -0.4600
33830SOL    HW1 8540   7.956  12.005   6.689 -0.5098 -0.2093 -0.1797
33830SOL    HW2 8541   8.102  11.988   6.724 -0.6344  0.0980  0.5116
33831SOL     OW 8542   4.829   4.878   4.992  0.2422 -0.0985  0.2800
33831SOL    HW1 8543   4.776   4.953   4.962 -0.4783 -1.2032 -1.3457
33831SOL    HW2 8544   4.896   4.868   4.925 -1.2811 -2.5039 -1.0593
33832SOL     OW 8545   7.382  10.452   9.190  0.3001  0.2134 -0.3318
33832SOL    HW1 8546   7.454  10.388   9.188 -0.1831 -0.3768  0.4194
33832SOL    HW2 8547   7.303  10.399   9.201 -0.1294  0.9212  0.0803
33833SOL     OW 8548   5.651   2.346   9.119 -0.0592 -0.1396 -0.5022
33833SOL    HW1 8549   5.665   2.253   9.134 -0.3351  0.1093  1.4699
33833SOL    HW2 8550   5.571   2.367   9.167 -1.1396  0.7404 -2.5459
33834SOL     OW 8551   8.972   2.295  11.527 -0.0480  0.2031 -0.0877
33834SOL    HW1 8552   8.968   2.316  11.433 -0.0780  0.2883 -0.0676
33834SOL    HW2 8553   8.965   2.380  11.571 -1.2464  0.0680  0.0192
33835SOL     OW 8554   4.295   6.195   1.539 -0.0510  0.0106 -0.7083
33835SOL    HW1 8555   4.347   6.187   1.619 -1.8661 -0.1821  0.5153
33835SOL    HW2 8556   4.336   6.134   1.478  2.6145  1.6591 -0.6831
33836SOL     OW 8557   1.359   9.784   1.946 -0.0891  0.6166 -0.3306
33836SOL    HW1 8558   1.283   9.746   1.990 -0.1241  3.4140  2.3819
33836SOL    HW2 8559   1.323   9.830   1.870 -0.9897  1.0252  0.3269
33837SOL     OW 8560   8.450   3.030   6.287  0.1877  0.5684 -0.1509
33837SOL    HW1 8561   8.372   3.024   6.232  0.1814  1.5443 -0.2765
33837SOL    HW2 8562   8.417   3.059   6.372  0.3157  0.1184  0.0517
33838SOL     OW 8563   9.567  11.698   3.528  0.1674 -0.1154  0.2592
33838SOL    HW1 8564   9.634  11.664   3.588  0.3075 -0.0043  0.1679
33838SOL    HW2 8565   9.564  11.792   3.546 -1.7910 -0.4540  2.0641
33839SOL     OW 8566   7.688   0.782   5.249  0.5618 -0.2206 -0.3990
33839SOL    HW1 8567   7.783   0.772   5.261  0.7528  0.1300 -1.4792
33839SOL    HW2 8568   7.654   0.790   5.338  1.4443 -1.1680  0.0518
33840SOL     OW 8569  10.628   0.513   2.556  0.6393  0.0656  0.1051
33840SOL    HW1 8570  10.582   0.466   2.626 -0.8213 -0.5763 -1.2385
33840SOL    HW2 8571  10.674   0.444   2.507  0.0553  0.2566 -0.7273
33841SOL     OW 8572   8.946   9.651  12.190  0.0431 -0.0873 -0.0568
33841SOL    HW1 8573   9.038   9.631  12.170  0.3263 -2.8045  3.1119
33841SOL    HW2 8574   8.950   9.733  12.239  0.8095 -0.2748  0.2205
33842SOL     OW 8575   9.908   2.738   0.509 -0.2293  0.3993  0.0848
33842SOL    HW1 8576   9.886   2.800   0.578  1.2956  2.4950 -1.1955
33842SOL    HW2 8577   9.984   2.690   0.543  1.7250  2.7119 -0.6847
33843SOL     OW 8578   0.518   0.820  10.290 -0.1349 -0.3717 -0.4342
33843SOL    HW1 8579   0.473   0.755  10.235 -0.2797 -1.1459  0.5707
33843SOL    HW2 8580   0.448   0.875  10.325  0.0697  1.2015 -2.2842
33844SOL     OW 8581   1.347   9.931  12.038  0.1006  0.2029  0.4153
33844SOL    HW1 8582   1.370   9.886  11.957 -0.1024 -0.3367  0.6502
33844SOL    HW2 8583   1.275   9.990  12.013 -0.0735 -0.0836  0.2346
33845SOL     OW 8584  12.412   8.385   8.487  0.2884  0.1059  0.6338
33845SOL    HW1 8585  12.438   8.471   8.522 -0.2835  0.9668 -0.9502
33845SOL    HW2 8586  12.441   8.387   8.396 -2.9193  0.1011 -0.4896
33846SOL     OW 8587   1.680  11.634   7.963 -0.5995 -0.3987 -0.3593
33846SOL    HW1 8588   1.671  11.718   7.918 -0.8467 -0.6299 -0.7499
33846SOL    HW2 8589   1.595  11.591   7.950 -0.4913 -0.6836 -0.1154
33847SOL     OW 8590   0.650   9.067  12.153  0.3749 -0.0561 -0.4211
33847SOL    HW1 8591   0.665   9.160  12.167  0.6420 -0.3446  1.4815
33847SOL    HW2 8592   0.601   9.039  12.230  2.2935 -1.9406  0.1832
33848SOL     OW 8593   4.786   6.229   9.155  0.3520 -0.2076 -0.0437
33848SOL    HW1 8594   4.693   6.207   9.158  0.2223  0.4231  1.2128
33848SOL    HW2 8595   4.818   6.189   9.074 -1.0772 -0.1606 -0.6609
33849SOL     OW 8596  12.412   8.375   3.108  0.1487  0.1445  0.0098
33849SOL    HW1 8597  12.423   8.402   3.200 -0.7699  0.5785  0.0030
33849SOL    HW2 8598  12.411   8.279   3.112  2.3194  0.0643  0.1685
33850SOL     OW 8599   6.194   8.618   6.060 -0.3659  0.0455 -0.0304
33850SOL    HW1 8600   6.232   8.666   5.987  0.3216 -0.4275  0.0116
33850SOL    HW2 8601   6.193   8.527   6.031 -2.1267  0.1226 -0.3139
33851SOL     OW 8602   7.765   1.308  12.513 -0.1284 -0.2064  0.0634
33851SOL    HW1 8603   7.740   1.344  12.598 -0.0195  0.0316 -0.0049
33851SOL    HW2 8604   7.785   1.216  12.531 -0.4589 -0.2454  0.2261
33852SOL     OW 8605  12.251   0.574   8.371  0.3786 -0.5111  0.4439
33852SOL    HW1 8606  12.205   0.598   8.451  2.2869 -0.0642  1.4861
33852SOL    HW2 8607  12.270   0.657   8.327 -0.1454 -0.7133 -0.1841
33853SOL     OW 8608  10.394   4.374   4.819 -0.0878 -0.5186 -0.2724
33853SOL    HW1 8609  10.383   4.431   4.894  0.6758 -0.4757 -0.1892
33853SOL    HW2 8610  10.307   4.336   4.805  0.3458 -3.0419  2.6503
33854SOL     OW 8611   9.838   9.997   9.429 -0.2003 -0.0432  0.0461
33854SOL    HW1 8612   9.857   9.996   9.335  1.4874 -1.0308  0.3441
33854SOL    HW2 8613   9.752   9.956   9.436 -0.8070  0.9698 -1.1319
33855SOL     OW 8614  11.898   8.252  11.190  0.1904 -0.3268  0.3204
33855SOL    HW1 8615  11.832   8.297  11.243 -0.1318 -0.3549 -0.0507
33855SOL    HW2 8616  11.944   8.322  11.145 -0.0196 -0.3419  0.0803
33856SOL     OW 8617   3.544  10.957  12.368 -0.2066 -0.3444 -0.4715
33856SOL    HW1 8618   3.506  11.041  12.393  1.1083 -0.2723  1.5052
33856SOL    HW2 8619   3.517  10.896  12.437 -1.4583 -1.6860 -2.0709
33857SOL     OW 8620   5.452   7.689   5.909 -0.7882 -0.5209 -0.0040
33857SOL    HW1 8621   5.409   7.608   5.880 -1.0286  0.1352 -1.5842
33857SOL    HW2 8622   5.427   7.754   5.843  0.1833  0.6084  0.7127
33858SOL     OW 8623   4.248   2.798  11.064  0.1481  0.7744 -0.3888
33858SOL    HW1 8624   4.341   2.821  11.064  0.7707 -1.4293  0.7081
33858SOL    HW2 8625   4.227   2.785  10.972  1.2537  0.2358 -0.5869
33859SOL     OW 8626   6.211   2.678   7.995  0.4043  0.4982  0.0051
33859SOL    HW1 8627   6.202   2.767   7.963 -3.6090  0.6377  0.9572
33859SOL    HW2 8628   6.282   2.681   8.058  0.5842  2.9348 -0.2536
33860SOL     OW 8629   8.093  10.675  11.931 -0.4538  0.3974  0.0358
33860SOL    HW1 8630   8.004  10.642  11.918 -0.2197  0.1976 -1.1470
33860SOL    HW2 8631   8.148  10.612  11.884  0.4786 -0.3485  2.0175
33861SOL     OW 8632  10.666  11.418   5.805 -0.2283  0.4735 -0.1670
33861SOL    HW1 8633  10.738  11.481   5.796  1.9480 -2.0166 -1.5491
33861SOL    HW2 8634  10.681  11.355   5.735 -0.5115 -3.2167  2.7884
33862SOL     OW 8635   8.397   0.343   2.406  0.2538  0.0871 -0.3098
33862SOL    HW1 8636   8.468   0.304   2.457  0.6426  1.9872  0.7064
33862SOL    HW2 8637   8.370   0.274   2.345  1.7782 -1.2631  0.4673
33863SOL     OW 8638   9.763   5.122   8.441  0.0499  0.0072  0.1684
33863SOL    HW1 8639   9.698   5.189   8.425 -0.4737 -0.1805  1.4031
33863SOL    HW2 8640   9.772   5.119   8.536  0.5908 -1.1696  0.1019
33864SOL     OW 8641   4.907  11.056  12.517  0.3191 -0.3953 -0.2045
33864SOL    HW1 8642   4.818  11.041  12.484  0.7375  0.3456 -1.7908
33864SOL    HW2 8643   4.927  11.146  12.489  1.6262 -0.6169 -0.0224
33865SOL     OW 8644   6.416  11.299   4.066 -0.5604 -0.1863 -0.3234
33865SOL    HW1 8645   6.511  11.296   4.053 -0.3704 -0.3848  0.9951
33865SOL    HW2 8646   6.404  11.348   4.147 -1.5865 -0.2111 -0.4452
33866SOL     OW 8647   8.617   4.447   2.411  0.2218  0.1298 -0.4067
33866SOL    HW1 8648   8.561   4.376   2.444  2.3095 -1.3137  0.1719
33866SOL    HW2 8649   8.675   4.468   2.484  0.2830  1.8350 -0.8886
33867SOL     OW 8650   9.334   9.315  11.045 -0.1652 -0.3830  0.0035
33867SOL    HW1 8651   9.276   9.266  11.103  0.2192  0.6079  1.2830
33867SOL    HW2 8652   9.392   9.363  11.105  0.3146  0.5962 -1.2061
33868SOL     OW 8653   3.079  11.009   4.597  0.1254 -0.8381  0.3159
33868SOL    HW1 8654   3.060  10.916   4.597  0.0189 -0.8179 -0.1136
33868SOL    HW2 8655   3.003  11.050   4.556  1.1016 -0.7657 -1.5164
33869SOL     OW 8656   4.506   1.834   2.383 -0.1997  0.0984  0.3348
33869SOL    HW1 8657   4.423   1.817   2.427 -0.1664 -0.7400  0.0864
33869SOL    HW2 8658   4.488   1.908   2.325 -0.2126  1.2859  1.8057
33870SOL     OW 8659   0.380   0.377   9.119 -0.0688  0.1524  0.4551
33870SOL    HW1 8660   0.469   0.357   9.149  0.3189  1.9065  0.6278
33870SOL    HW2 8661   0.348   0.296   9.081  0.7349 -1.1976  2.4963
33871SOL     OW 8662   8.037   4.196   2.384  0.1055 -0.5870 -0.4108
33871SOL    HW1 8663   8.001   4.113   2.414  0.6956 -0.5366  0.4911
33871SOL    HW2 8664   8.023   4.256   2.457 -0.5023  0.1661 -1.1304
33872SOL     OW 8665   1.082   1.454   3.728  0.3108 -0.0269 -0.0759
33872SOL    HW1 8666   1.129   1.410   3.799  0.1881  0.8430  0.5604
33872SOL    HW2 8667   1.148   1.465   3.659 -0.2286 -3.3407 -1.2859
33873SOL     OW 8668   6.664   1.865   1.126  0.3320  0.2295 -0.0556
33873SOL    HW1 8669   6.662   1.843   1.219  2.0932  1.7473  0.3875
33873SOL    HW2 8670   6.757   1.876   1.106  0.0496 -0.7004 -2.1798
33874SOL     OW 8671   3.803   7.976   3.434 -0.1300 -0.5374 -0.5268
33874SOL    HW1 8672   3.887   8.004   3.397 -0.4250  0.5559 -0.4090
33874SOL    HW2 8673   3.813   7.989   3.528 -1.0849  1.5629 -0.6549
33875SOL     OW 8674   1.704   4.071   4.574  0.3540  0.0270 -0.2189
33875SOL    HW1 8675   1.660   4.155   4.555  1.8755  1.0604  0.6209
33875SOL    HW2 8676   1.632   4.010   4.588 -0.8098  0.9474 -1.8093
33876SOL     OW 8677  11.088   4.912   5.280  0.1909  0.2072  0.3317
33876SOL    HW1 8678  11.015   4.871   5.234 -1.6285  3.1989  0.3435
33876SOL    HW2 8679  11.140   4.838   5.312 -1.4478 -2.0196 -1.7824
33877SOL     OW 8680  10.441   2.911   0.374  0.0985  0.2900 -0.3057
33877SOL    HW1 8681  10.396   2.990   0.406 -0.4757 -0.6706  1.3508
33877SOL    HW2 8682  10.533   2.926   0.395 -0.0950  0.2581  0.6070
33878SOL     OW 8683   9.238   4.877   8.363 -0.3594 -0.0746  0.0367
33878SOL    HW1 8684   9.272   4.925   8.288 -0.5848 -1.3186 -0.8961
33878SOL    HW2 8685   9.316   4.847   8.410 -0.0664 -2.2974 -1.6943
33879SOL     OW 8686   1.329   8.660   3.947  0.5507 -0.2554 -0.1463
33879SOL    HW1 8687   1.311   8.744   3.990  0.3212  0.2414 -1.1610
33879SOL    HW2 8688   1.358   8.602   4.017  1.2615  0.8349  0.4964
33880SOL     OW 8689   5.620   2.694   1.957  0.0109 -0.3686  0.0691
33880SOL    HW1 8690   5.625   2.768   2.018 -0.8931  0.6810 -1.0648
33880SOL    HW2 8691   5.698   2.642   1.976  1.9327  2.0568 -0.5737
33881SOL     OW 8692  10.099   2.794   1.724  0.0997 -0.2390  0.6551
33881SOL    HW1 8693  10.083   2.787   1.630 -1.4819 -1.1876  0.9617
33881SOL    HW2 8694  10.187   2.757   1.736  0.5437  0.3925 -0.4992
33882SOL     OW 8695   9.660   1.068  10.828  0.1599 -0.3031 -0.0185
33882SOL    HW1 8696   9.716   1.038  10.900 -0.6711  1.1136  1.3035
33882SOL    HW2 8697   9.720   1.109  10.766  0.7502  0.0259  0.7484
33883SOL     OW 8698   7.455   5.398   0.868  0.1980  0.3774 -0.4442
33883SOL    HW1 8699   7.374   5.404   0.817 -0.5780  1.3806  0.8018
33883SOL    HW2 8700   7.462   5.306   0.892  0.0465  0.0762 -1.5017
33884SOL     OW 8701   7.849   6.950   6.955 -0.6558  0.2256  0.0719
33884SOL    HW1 8702   7.941   6.977   6.953 -0.7596  0.8327  1.6520
33884SOL    HW2 8703   7.840   6.890   6.881  0.9071  0.4698 -0.3613
33885SOL     OW 8704   6.442   5.305   1.501  0.3608 -0.0203 -0.0918
33885SOL    HW1 8705   6.429   5.223   1.548  0.0558 -0.0578 -0.2416
33885SOL    HW2 8706   6.450   5.372   1.569 -0.4017 -0.0253  0.0072
33886SOL     OW 8707  12.285   8.999   7.951 -0.1340  1.3938  0.3860
33886SOL    HW1 8708  12.298   9.059   8.024  1.3473  1.1514  0.3623
33886SOL    HW2 8709  12.372   8.964   7.933 -1.0622 -1.6074  1.1100
33887SOL     OW 8710   2.298   9.662   6.133  0.3683 -0.1576  0.0706
33887SOL    HW1 8711   2.225   9.600   6.127  0.6914 -0.4384 -2.2057
33887SOL    HW2 8712   2.269   9.728   6.195 -2.3132  0.2950 -1.4842
33888SOL     OW 8713   7.149   2.186   4.794  0.3355 -0.2279  0.0221
33888SOL    HW1 8714   7.114   2.121   4.734  0.3750  0.9837 -1.3592
33888SOL    HW2 8715   7.224   2.224   4.748  0.8016  0.2604  1.1290
33889SOL     OW 8716   6.797   2.021  10.889  0.3153 -0.4757  0.4382
33889SOL    HW1 8717   6.889   2.027  10.864  0.1407  0.5770 -0.0077
33889SOL    HW2 8718   6.798   2.019  10.985  0.8982 -2.8239  0.4451
33890SOL     OW 8719  12.034   2.349   3.652  0.2510 -0.1967 -0.2976
33890SOL    HW1 8720  12.029   2.422   3.590 -0.7739 -1.1403 -1.4015
33890SOL    HW2 8721  12.099   2.375   3.716  1.0942  0.9907 -1.5853
33891SOL     OW 8722   4.197   5.264   4.152 -0.7768 -0.3337  0.4154
33891SOL    HW1 8723   4.163   5.186   4.195  0.8621 -0.9488  0.6434
33891SOL    HW2 8724   4.118   5.312   4.125 -1.8304 -2.2011 -0.0332
33892SOL     OW 8725   1.622   6.718  11.207 -0.2796 -0.2987  0.6362
33892SOL    HW1 8726   1.604   6.723  11.300  0.4390  0.1658  0.7619
33892SOL    HW2 8727   1.599   6.805  11.173  1.0698  0.0971  0.6920
33893SOL     OW 8728   3.899   9.522  10.617 -0.3375 -0.0887  0.3289
33893SOL    HW1 8729   3.823   9.577  10.599  0.2649  0.4838 -0.5929
33893SOL    HW2 8730   3.894   9.452  10.552  0.8031  0.8968 -0.8802
33894SOL     OW 8731   4.212   6.947  10.463 -0.0100 -0.4225  0.0421
33894SOL    HW1 8732   4.265   6.917  10.389  1.5980  3.0290 -0.3724
33894SOL    HW2 8733   4.167   7.025  10.431 -1.0416 -0.1320  2.0500
33895SOL     OW 8734   8.932   3.418   9.042  0.4345 -0.1373 -0.1627
33895SOL    HW1 8735   8.844   3.428   9.080  1.2664 -1.1545  2.2157
33895SOL    HW2 8736   8.944   3.323   9.036  1.5705 -0.0213  0.0541
33896SOL     OW 8737   6.882   4.974   3.647 -0.2323 -0.5063  0.2440
33896SOL    HW1 8738   6.846   4.922   3.718  0.5211 -0.2671  0.8095
33896SOL    HW2 8739   6.959   5.017   3.684  0.7864 -1.1897 -0.9985
33897SOL     OW 8740   7.314   0.497  12.435 -0.1197 -0.4575 -0.3564
33897SOL    HW1 8741   7.353   0.421  12.478  0.2330 -0.9457 -1.4944
33897SOL    HW2 8742   7.228   0.467  12.405 -1.0404  0.3363  1.3075
33898SOL     OW 8743   0.183   7.571   3.073 -0.4352  0.5249  0.2439
33898SOL    HW1 8744   0.261   7.577   3.018 -0.3107  0.4023  0.4069
33898SOL    HW2 8745   0.174   7.657   3.114  0.4339  0.1030  1.3433
33899SOL     OW 8746   5.877  11.528   2.840  0.0251 -0.0890 -0.3074
33899SOL    HW1 8747   5.924  11.612   2.844 -1.1150  0.6511 -1.7493
33899SOL    HW2 8748   5.809  11.536   2.907  0.9954 -0.6011  0.7854
33900SOL     OW 8749   5.514   3.936   3.421  0.1720  0.4946  0.2728
33900SOL    HW1 8750   5.429   3.893   3.420  1.5356 -2.4575 -0.1710
33900SOL    HW2 8751   5.495   4.028   3.401 -2.8954  0.0120  0.5186
33901SOL     OW 8752  11.230  11.759   2.767 -0.1799  0.1692  0.5122
33901SOL    HW1 8753  11.178  11.779   2.845  0.0920  0.5245  0.6067
33901SOL    HW2 8754  11.213  11.831   2.707  1.4933  1.2086  1.2012
33902SOL     OW 8755   6.924  12.098  10.166 -0.0268  0.3884  0.3142
33902SOL    HW1 8756   6.895  12.027  10.109  1.4488  1.0372 -1.3548
33902SOL    HW2 8757   6.874  12.175  10.136 -2.5217 -0.0568  2.9015
33903SOL     OW 8758   0.188   0.308   7.912 -0.2266  0.0671 -0.2822
33903SOL    HW1 8759   0.265   0.364   7.899 -0.8216  0.8753 -0.3856
33903SOL    HW2 8760   0.224   0.222   7.934  0.7086  0.3490 -0.6809
33904SOL     OW 8761   1.044   4.301  12.364  0.1919 -0.0160  0.4959
33904SOL    HW1 8762   0.974   4.324  12.303  2.3486 -0.1355 -2.2329
33904SOL    HW2 8763   1.047   4.205  12.362  0.2164 -0.0215  0.8470
33905SOL     OW 8764   2.879   8.667   3.100  0.2152 -0.0699 -0.3086
33905SOL    HW1 8765   2.893   8.603   3.170 -0.4038  0.9075  0.7405
33905SOL    HW2 8766   2.784   8.679   3.097  0.3218  0.8317 -0.4482
33906SOL     OW 8767   2.819  11.885   3.794  0.0566 -1.2098  0.1797
33906SOL    HW1 8768   2.911  11.899   3.772 -0.5106  0.1735 -1.5172
33906SOL    HW2 8769   2.780  11.848   3.715 -0.8482 -1.8163  0.8894
33907SOL     OW 8770   4.807  11.885  11.895  0.0095 -0.5721  0.2856
33907SOL    HW1 8771   4.756  11.823  11.843  2.5123 -0.5941 -2.4295
33907SOL    HW2 8772   4.752  11.963  11.900 -0.1445 -0.2401 -3.3628
33908SOL     OW 8773   5.400   9.828   1.109  0.1116 -0.3728 -0.0055
33908SOL    HW1 8774   5.420   9.817   1.201 -0.7455  0.7864  0.3469
33908SOL    HW2 8775   5.349   9.909   1.105  0.5843 -0.1127 -1.5546
33909SOL     OW 8776   7.350   3.529   5.996 -0.0079  0.1653 -0.5144
33909SOL    HW1 8777   7.287   3.556   5.929  0.1337 -1.0476 -1.1643
33909SOL    HW2 8778   7.337   3.592   6.067  0.2906  1.8908 -1.9139
33910SOL     OW 8779   9.570   0.123   1.442 -0.5112  0.7147 -0.1397
33910SOL    HW1 8780   9.494   0.151   1.390 -0.4616 -0.1678 -0.6958
33910SOL    HW2 8781   9.533   0.100   1.527 -0.7816  0.8256 -0.2252
33911SOL     OW 8782   6.495   5.020   0.118 -0.1060 -0.2864  0.3291
33911SOL    HW1 8783   6.415   5.073   0.118  0.5602  0.7572 -0.8826
33911SOL    HW2 8784   6.508   4.997   0.026  2.7548  2.3921 -0.1058
33912SOL     OW 8785  10.117   1.257   5.087 -0.3011 -0.3142 -0.1386
33912SOL    HW1 8786  10.165   1.204   5.150 -1.3632 -2.1075 -0.7809
33912SOL    HW2 8787  10.065   1.317   5.141  0.3199 -0.4316  0.6137
33913SOL     OW 8788   7.106   7.791   4.897  0.2127 -0.0014 -0.2089
33913SOL    HW1 8789   7.113   7.879   4.933 -1.0157  0.3716 -0.8340
33913SOL    HW2 8790   7.017   7.763   4.919  0.4294 -0.9070 -0.4239
33914SOL     OW 8791   6.533   4.743   0.711  0.2824 -0.0332 -0.2149
33914SOL    HW1 8792   6.468   4.759   0.643  0.3150  1.7524  0.1401
33914SOL    HW2 8793   6.531   4.648   0.724 -1.9230 -0.0879 -0.5302
33915SOL     OW 8794   5.211   8.748  11.716 -0.5732 -0.7660  0.1032
33915SOL    HW1 8795   5.141   8.730  11.778 -0.9978 -1.4192 -0.5476
33915SOL    HW2 8796   5.205   8.841  11.698 -0.9010 -0.7114  0.4970
33916SOL     OW 8797   4.853   6.635   4.922 -0.4797  0.2500  0.4467
33916SOL    HW1 8798   4.890   6.627   4.834 -0.1458  0.0069  0.6056
33916SOL    HW2 8799   4.875   6.724   4.949 -1.7709  0.8020 -0.2407
33917SOL     OW 8800   1.553   2.955   8.288 -0.0274 -0.6540 -0.6757
33917SOL    HW1 8801   1.490   2.892   8.321  1.0149 -0.5745  1.7185
33917SOL    HW2 8802   1.637   2.908   8.290  0.4986  0.2674 -0.5062
33918SOL     OW 8803   8.805   7.438  11.259  0.4831 -0.0530  0.0894
33918SOL    HW1 8804   8.774   7.349  11.244  1.1006 -0.5398  1.4786
33918SOL    HW2 8805   8.896   7.428  11.287  0.5427  1.0013  0.3301
33919SOL     OW 8806   5.606   2.132   1.530 -0.4253 -0.2279 -0.9992
33919SOL    HW1 8807   5.565   2.163   1.611 -1.0268  1.2571 -1.8321
33919SOL    HW2 8808   5.536   2.087   1.483 -0.6033  0.6251 -1.5614
33920SOL     OW 8809   7.939   2.727   9.484  0.1466  0.1272  0.5427
33920SOL    HW1 8810   7.975   2.693   9.402  1.0410 -1.8394  1.6839
33920SOL    HW2 8811   7.863   2.778   9.457 -1.3464 -2.8160 -1.3770
33921SOL     OW 8812   8.838  12.328   9.692 -0.4171 -0.2385  0.4882
33921SOL    HW1 8813   8.822  12.350   9.784 -0.5491  1.4158  0.1105
33921SOL    HW2 8814   8.841  12.413   9.648 -0.5965 -1.0110 -1.0802
33922SOL     OW 8815  11.003   4.599   2.975 -0.0549 -1.4333 -0.1332
33922SOL    HW1 8816  11.004   4.543   2.897 -0.4046 -0.2156 -1.0470
33922SOL    HW2 8817  10.967   4.543   3.044 -1.4937 -2.0172 -1.2816
33923SOL     OW 8818  12.482   1.099  12.414 -0.1940 -0.2713 -0.5246
33923SOL    HW1 8819  12.425   1.114  12.338 -1.8029 -1.2386  0.4445
33923SOL    HW2 8820  12.571   1.103  12.378 -0.8680  0.7036 -2.1893
33924SOL     OW 8821   3.442   9.501   0.019 -0.0356  0.2499 -0.1368
33924SOL    HW1 8822   3.434   9.543   0.104 -0.6090  1.2209 -0.6612
33924SOL    HW2 8823   3.531   9.522  -0.010  0.4055 -0.6710  0.5200
33925SOL     OW 8824   0.181   7.735   9.176 -0.4158 -0.4746 -0.0955
33925SOL    HW1 8825   0.100   7.780   9.153  0.7893  0.4675 -3.1479
33925SOL    HW2 8826   0.174   7.650   9.132 -0.6919 -1.3784  1.6365
33926SOL     OW 8827   7.306   8.295   2.102 -0.5733  0.0873 -0.1072
33926SOL    HW1 8828   7.350   8.332   2.179  0.2341 -0.0551 -0.4875
33926SOL    HW2 8829   7.214   8.289   2.128 -0.1535 -1.0312  1.2897
33927SOL     OW 8830   6.198   7.270   2.634 -0.0527 -0.0472 -0.0853
33927SOL    HW1 8831   6.122   7.276   2.575  0.2535 -1.3118 -0.6540
33927SOL    HW2 8832   6.174   7.200   2.695  0.1765  0.3689  0.4893
33928SOL     OW 8833   1.691   0.617   5.886  0.4339  0.0970  0.1314
33928SOL    HW1 8834   1.595   0.614   5.880  0.4720  0.2467 -0.6832
33928SOL    HW2 8835   1.710   0.602   5.978 -0.2998 -1.5726  0.0325
33929SOL     OW 8836  11.746   2.298   9.326 -0.4772 -0.1180  0.7543
33929SOL    HW1 8837  11.775   2.234   9.260 -0.9619 -1.8537  2.1464
33929SOL    HW2 8838  11.827   2.327   9.368 -0.3071 -0.3858  0.6185
33930SOL     OW 8839   4.911   5.049  10.604  0.0938 -0.5286  0.5158
33930SOL    HW1 8840   4.965   5.041  10.525  0.4721  1.1847  0.5592
33930SOL    HW2 8841   4.916   4.963  10.646 -0.5584 -1.6619 -1.5823
33931SOL     OW 8842   1.042   2.174   6.838 -0.3974 -0.1209 -0.4607
33931SOL    HW1 8843   0.981   2.133   6.777  1.1450  0.6788 -2.6878
33931SOL    HW2 8844   1.014   2.266   6.842  0.1819  0.0823 -0.9063
33932SOL     OW 8845   6.637   6.347  12.187  0.2064  0.3345 -0.4987
33932SOL    HW1 8846   6.586   6.400  12.127  0.6919 -0.6597 -1.8539
33932SOL    HW2 8847   6.718   6.397  12.202 -0.3137  1.0155  0.1067
33933SOL     OW 8848   1.609   9.293   7.667 -0.1933 -0.2843  0.0806
33933SOL    HW1 8849   1.655   9.235   7.727  0.7580 -0.2367 -0.5688
33933SOL    HW2 8850   1.550   9.345   7.722  1.5809  0.6650  1.1591
33934SOL     OW 8851  11.734   5.360  11.260  0.3235 -0.4425  0.4243
33934SOL    HW1 8852  11.763   5.413  11.334  0.4013  1.0055 -0.6056
33934SOL    HW2 8853  11.706   5.277  11.300 -0.6893  0.6797  2.1911
33935SOL     OW 8854   4.542   2.468   0.548 -0.1576 -0.5074 -0.0486
33935SOL    HW1 8855   4.570   2.527   0.478 -0.1318 -1.1003 -0.5472
33935SOL    HW2 8856   4.450   2.449   0.527 -0.0866 -0.8573 -0.0507
33936SOL     OW 8857   4.780  12.570   0.300 -0.2481 -0.3918  0.4875
33936SOL    HW1 8858   4.744  12.506   0.361  0.5376 -1.3198  0.0306
33936SOL    HW2 8859   4.711  12.585   0.236 -1.0031  0.4383  1.4673
33937SOL     OW 8860   5.928   4.610   3.965 -0.2279  0.1307 -0.2274
33937SOL    HW1 8861   5.916   4.519   3.937 -2.0853  0.4368 -0.5398
33937SOL    HW2 8862   5.870   4.661   3.908  0.0333  1.4007  0.5963
33938SOL     OW 8863  10.588   7.618   6.597 -0.0598  0.0284  0.4758
33938SOL    HW1 8864  10.650   7.630   6.525 -1.3073  1.2543 -0.4373
33938SOL    HW2 8865  10.564   7.707   6.624 -0.5024 -0.4132  1.6427
33939SOL     OW 8866   9.057   7.217   1.069 -0.2047 -0.4233 -0.4311
33939SOL    HW1 8867   8.998   7.171   1.010  0.3774  0.3064 -1.6321
33939SOL    HW2 8868   9.004   7.286   1.108 -0.8230 -1.4683  0.6083
33940SOL     OW 8869   2.151   6.158   3.129 -0.3323  0.3555  0.1265
33940SOL    HW1 8870   2.063   6.129   3.105 -0.5707  1.0048  0.2000
33940SOL    HW2 8871   2.199   6.076   3.145 -0.8537 -0.0111 -0.1302
33941SOL     OW 8872  10.065   3.458   3.643 -0.2140 -0.1862 -0.2712
33941SOL    HW1 8873  10.055   3.403   3.565 -1.1860 -0.2427 -0.1276
33941SOL    HW2 8874  10.149   3.432   3.681 -0.4856 -1.3205 -0.4035
33942SOL     OW 8875   5.205   4.852   8.712 -1.0101 -0.7025  0.0263
33942SOL    HW1 8876   5.131   4.899   8.674 -2.1672 -1.0928  1.7215
33942SOL    HW2 8877   5.282   4.905   8.687 -2.0639  0.9944  0.2001
33943SOL     OW 8878  12.068   9.122   4.392  0.2057 -0.3619  0.1025
33943SOL    HW1 8879  12.002   9.062   4.425 -2.3235  2.4371  0.5464
33943SOL    HW2 8880  12.019   9.187   4.342  2.6411  1.6540  0.1164
33944SOL     OW 8881   6.951   9.842   8.560  0.2044  0.9397 -0.3776
33944SOL    HW1 8882   7.038   9.801   8.559 -0.3646 -0.3578  0.8265
33944SOL    HW2 8883   6.909   9.809   8.639 -1.5729  1.1839 -1.1643
33945SOL     OW 8884  11.433   9.763   2.416  0.3796 -0.2126 -0.6295
33945SOL    HW1 8885  11.400   9.821   2.485 -2.8407 -0.9896 -1.3558
33945SOL    HW2 8886  11.520   9.739   2.446  0.4198  2.0807  1.4983
33946SOL     OW 8887   0.379   6.644   0.062 -0.2096 -0.5271  0.5125
33946SOL    HW1 8888   0.410   6.573   0.118  0.8294 -0.0569  0.5690
33946SOL    HW2 8889   0.378   6.721   0.119  0.8242 -0.0514 -0.0837
33947SOL     OW 8890  10.014   2.015   7.972  0.2174 -0.2708  0.4695
33947SOL    HW1 8891   9.952   2.087   7.979 -0.6738 -1.0580  0.9722
33947SOL    HW2 8892  10.096   2.049   8.008  0.2086  0.9082 -0.5616
33948SOL     OW 8893   7.596   6.154   2.033 -0.2032 -0.0364  0.0404
33948SOL    HW1 8894   7.501   6.165   2.028 -0.4676 -1.6942  0.6738
33948SOL    HW2 8895   7.624   6.215   2.101 -0.8054  0.4849 -0.1682
33949SOL     OW 8896   0.871   8.423   0.534 -0.0110 -0.3192  0.1990
33949SOL    HW1 8897   0.844   8.514   0.547  1.7615  0.5304 -1.4633
33949SOL    HW2 8898   0.966   8.424   0.546 -0.1057 -2.2933  1.6371
33950SOL     OW 8899   3.196  12.070   2.642  0.3557  0.1405 -0.2752
33950SOL    HW1 8900   3.133  12.138   2.620 -0.2045 -0.4650 -0.5658
33950SOL    HW2 8901   3.148  11.988   2.631  0.5129 -0.2620  1.6374
33951SOL     OW 8902   3.275   1.539   8.776  0.5459  0.0295 -0.1607
33951SOL    HW1 8903   3.332   1.605   8.815  0.3978  0.6985 -1.0520
33951SOL    HW2 8904   3.228   1.585   8.706 -0.2580 -0.7845 -0.1806
33952SOL     OW 8905   3.043   5.289  12.258 -0.4274 -0.2486  0.0389
33952SOL    HW1 8906   3.099   5.329  12.191  1.1623 -1.3491  0.6582
33952SOL    HW2 8907   3.101   5.230  12.305 -2.3595 -2.2235  0.0848
33953SOL     OW 8908  10.172   8.932   0.833 -0.5606 -0.3220  0.6659
33953SOL    HW1 8909  10.193   8.964   0.745 -0.5856 -0.8601  0.4568
33953SOL    HW2 8910  10.095   8.877   0.820 -1.6933  1.0559  1.3151
33954SOL     OW 8911   0.891   3.187   4.515 -0.0679 -0.5139 -0.4731
33954SOL    HW1 8912   0.917   3.248   4.585 -0.7041  1.3003 -1.7303
33954SOL    HW2 8913   0.950   3.208   4.442  0.2517 -2.0280 -0.6702
33955SOL     OW 8914   0.607   2.590   5.896  0.2272  0.0169 -0.0183
33955SOL    HW1 8915   0.621   2.555   5.808 -0.4049  1.1036 -0.5688
33955SOL    HW2 8916   0.631   2.682   5.889  0.1082  0.1272  0.9394
33956SOL     OW 8917   2.614   8.672  11.511 -0.0978  0.4417  0.1565
33956SOL    HW1 8918   2.627   8.649  11.603 -0.9369 -0.9716 -0.0564
33956SOL    HW2 8919   2.567   8.755  11.513 -2.7193 -0.9865  1.0841
33957SOL     OW 8920   7.870   1.485   6.525  0.2954  0.2383  0.4407
33957SOL    HW1 8921   7.919   1.565   6.505  0.0034  0.2621 -0.2019
33957SOL    HW2 8922   7.882   1.473   6.619  1.9899 -0.0708  0.2159
33958SOL     OW 8923   0.563   9.055  11.875 -0.0162  0.4075 -0.2327
33958SOL    HW1 8924   0.600   9.035  11.960 -2.0205  0.0667  0.5988
33958SOL    HW2 8925   0.498   8.987  11.859  1.0504 -0.1657 -2.5469
33959SOL     OW 8926   6.076   1.396   7.393 -0.5673  0.2146  0.6059
33959SOL    HW1 8927   6.170   1.379   7.404 -0.4237  0.6204  0.0507
33959SOL    HW2 8928   6.034   1.341   7.459  0.0783  0.2608  1.0650
33960SOL     OW 8929  10.125   0.693   1.840  0.1636 -0.0307  0.0771
33960SOL    HW1 8930  10.139   0.617   1.895  0.4907 -0.2108 -0.2508
33960SOL    HW2 8931  10.146   0.768   1.895 -1.5860 -0.0818  0.8817
33961SOL     OW 8932   6.583   2.092  11.816  0.3824 -0.0162  0.0792
33961SOL    HW1 8933   6.546   2.111  11.902 -1.3182  0.2029 -0.6540
33961SOL    HW2 8934   6.590   2.177  11.773 -0.9005 -0.3105 -0.7776
33962SOL     OW 8935  10.978  10.026  10.495 -0.1652  0.4017  0.4179
33962SOL    HW1 8936  10.941   9.943  10.525 -1.0502  0.5782 -0.1290
33962SOL    HW2 8937  10.983  10.080  10.574 -0.7886  0.2625  0.5555
33963SOL     OW 8938   5.744   2.676   4.710 -0.2269  0.2226  0.0664
33963SOL    HW1 8939   5.806   2.633   4.769 -0.4931  0.7717  0.7475
33963SOL    HW2 8940   5.765   2.639   4.624  0.7115  0.0282  0.3619
33964SOL     OW 8941   4.585   9.776   4.345 -0.2635 -0.4433  0.2014
33964SOL    HW1 8942   4.637   9.750   4.269 -0.7192 -0.2397 -0.1855
33964SOL    HW2 8943   4.501   9.804   4.308  0.8025  3.4962  0.3616
33965SOL     OW 8944   4.717   7.314   9.188 -0.0565  0.4668  0.1182
33965SOL    HW1 8945   4.649   7.379   9.172 -0.6728  0.0587  1.0026
33965SOL    HW2 8946   4.670   7.235   9.212  0.6377 -0.7308 -2.2394
33966SOL     OW 8947   5.367   5.949   0.761 -0.3073 -0.0507  0.0832
33966SOL    HW1 8948   5.391   5.861   0.733 -0.6017 -0.0854 -0.0681
33966SOL    HW2 8949   5.402   5.957   0.850 -0.4827 -0.4052  0.1865
33967SOL     OW 8950   0.653   5.503   5.006  0.2488  0.0568 -0.6070
33967SOL    HW1 8951   0.731   5.516   5.060  0.3485  2.3765 -1.1905
33967SOL    HW2 8952   0.585   5.554   5.051 -0.2293  0.2554 -1.5366
33968SOL     OW 8953   8.696   2.727   2.533  0.4858  0.0465  0.2514
33968SOL    HW1 8954   8.736   2.641   2.527  2.5356  0.9773 -0.7201
33968SOL    HW2 8955   8.688   2.744   2.627 -1.4063 -1.7782  0.4674
33969SOL     OW 8956   1.629   6.899  10.756 -0.5762 -0.0881  0.8181
33969SOL    HW1 8957   1.640   6.984  10.799  1.2487 -0.8518  1.9769
33969SOL    HW2 8958   1.700   6.845  10.791 -0.4654 -1.4966 -1.4076
33970SOL     OW 8959   8.184   9.519   4.020 -0.0154  0.5693  0.2072
33970SOL    HW1 8960   8.208   9.515   3.927 -0.5980 -0.2008  0.0783
33970SOL    HW2 8961   8.268   9.516   4.066  0.2449 -0.0929 -0.2820
33971SOL     OW 8962   0.217   5.436   9.943  0.1798 -0.3718  0.1317
33971SOL    HW1 8963   0.245   5.393  10.024  1.1196 -1.0713 -0.5396
33971SOL    HW2 8964   0.124   5.455   9.957  0.9571  2.4371  2.6252
33972SOL     OW 8965  10.090  10.152   0.324  0.3161  0.2925 -0.1477
33972SOL    HW1 8966  10.112  10.229   0.273 -0.9748  0.1252 -1.0239
33972SOL    HW2 8967  10.137  10.162   0.406  1.3947  1.2287 -0.8653
33973SOL     OW 8968  10.102   3.156   6.960  0.1273  0.3065  0.0619
33973SOL    HW1 8969  10.140   3.236   6.924  0.4327 -0.2857 -0.9769
33973SOL    HW2 8970  10.081   3.178   7.051 -0.9437  1.9593 -0.5326
33974SOL     OW 8971  10.975   8.117  10.239 -0.3130  0.3143 -0.6432
33974SOL    HW1 8972  11.028   8.191  10.212 -1.0530  1.4391  0.8257
33974SOL    HW2 8973  10.913   8.104  10.167  0.8151  0.0737 -1.6040
33975SOL     OW 8974   1.778   7.123   1.466 -0.9593 -0.0172 -0.3201
33975SOL    HW1 8975   1.763   7.039   1.510  1.8999  0.3749  1.7370
33975SOL    HW2 8976   1.821   7.100   1.384 -0.3918 -0.6335  0.1326
33976SOL     OW 8977  11.700   2.428   8.827  0.2745  0.2039  0.0092
33976SOL    HW1 8978  11.779   2.396   8.871  0.2788 -0.8375 -0.7046
33976SOL    HW2 8979  11.665   2.350   8.782  1.3257  1.5391 -3.4427
33977SOL     OW 8980   0.275   4.936   8.725  0.1812 -0.7203  0.4387
33977SOL    HW1 8981   0.210   4.963   8.790 -0.6776  0.2075 -0.7386
33977SOL    HW2 8982   0.289   5.015   8.672  1.1175 -1.3474 -0.2814
33978SOL     OW 8983   0.068   7.791  12.305 -0.3236  0.1304 -0.3532
33978SOL    HW1 8984   0.005   7.741  12.254 -0.2868 -1.1255  0.7912
33978SOL    HW2 8985   0.020   7.869  12.332 -1.4975 -0.9294  0.7231
33979SOL     OW 8986   6.179   0.943   0.988  0.2836 -0.1630 -0.1917
33979SOL    HW1 8987   6.234   0.876   0.947  1.0078  1.0559 -1.2602
33979SOL    HW2 8988   6.173   1.012   0.923 -2.9374 -0.4343 -0.3018
33980SOL     OW 8989   2.754  11.489   3.572 -0.3835  0.1833 -0.3390
33980SOL    HW1 8990   2.850  11.494   3.574 -0.0983 -0.6118  5.4088
33980SOL    HW2 8991   2.725  11.576   3.600 -1.1992 -0.2552  0.2079
33981SOL     OW 8992   1.752   2.459   8.908  0.0899  0.0334 -0.0629
33981SOL    HW1 8993   1.776   2.417   8.825 -0.8369 -0.4387 -0.1084
33981SOL    HW2 8994   1.682   2.404   8.943  1.2942 -0.4663  1.6459
33982SOL     OW 8995  10.594   5.376   7.943 -0.0974  0.1106  0.4142
33982SOL    HW1 8996  10.635   5.348   8.025  1.2532 -0.0637 -0.2815
33982SOL    HW2 8997  10.627   5.313   7.878 -1.4030  0.0493 -0.2114
33983SOL     OW 8998   5.424  11.425   3.704 -0.0841  0.8503 -0.0212
33983SOL    HW1 8999   5.424  11.348   3.761 -0.6788 -0.5464 -1.8248
33983SOL    HW2 9000   5.337  11.424   3.663 -0.1330  2.5459 -0.0207
33984SOL     OW 9001   3.960   7.578   3.395 -0.4053 -0.3843  0.1665
33984SOL    HW1 9002   3.908   7.656   3.413 -0.5571 -0.4232 -0.1138
33984SOL    HW2 9003   3.990   7.549   3.482  1.5278  1.2755  0.1515
33985SOL     OW 9004   0.591   1.913   5.918  0.6157  0.3512 -0.5707
33985SOL    HW1 9005   0.502   1.879   5.921  0.5077  0.0707 -3.9848
33985SOL    HW2 9006   0.644   1.847   5.964 -0.5566 -0.7962 -0.8264
33986SOL     OW 9007   7.649   0.952   5.963  0.2689  0.0463  0.3072
33986SOL    HW1 9008   7.582   0.936   5.897 -0.0278  0.7471  0.4275
33986SOL    HW2 9009   7.678   0.865   5.990  0.8301 -0.2546 -1.1781
33987SOL     OW 9010  10.243   4.390   2.907  0.1684  0.3304  0.3079
33987SOL    HW1 9011  10.188   4.459   2.943  0.3823 -0.2051  1.7369
33987SOL    HW2 9012  10.239   4.402   2.813 -1.7022  0.8293  0.4268
33988SOL     OW 9013   5.962  11.554   7.590 -0.0176 -0.2410 -0.2119
33988SOL    HW1 9014   5.993  11.501   7.664  0.5826 -0.0966 -0.3551
33988SOL    HW2 9015   5.971  11.644   7.619 -1.7728 -0.2011  0.3261
33989SOL     OW 9016   8.439   4.566   6.917 -1.1599  0.0328  0.0449
33989SOL    HW1 9017   8.405   4.594   6.832 -1.2454  1.3882  0.5036
33989SOL    HW2 9018   8.524   4.610   6.924 -1.9501  1.4242  1.4139
33990SOL     OW 9019   3.845  12.146  11.353  0.4649  0.0219 -0.0389
33990SOL    HW1 9020   3.771  12.091  11.329 -1.5931  0.8332  3.6905
33990SOL    HW2 9021   3.916  12.084  11.373 -0.5673 -1.0665  0.3669
33991SOL     OW 9022   9.144   7.197   5.511 -0.2548 -0.0614  0.3889
33991SOL    HW1 9023   9.216   7.258   5.530 -1.4649  1.3545  0.6085
33991SOL    HW2 9024   9.079   7.215   5.579 -0.2386 -2.3572  1.0919
33992SOL     OW 9025   4.525  10.059   3.281 -0.8872 -0.3772  0.2239
33992SOL    HW1 9026   4.551  10.151   3.285 -0.8555 -0.3452 -0.4352
33992SOL    HW2 9027   4.488  10.049   3.193  0.6188 -1.3660 -0.3484
33993SOL     OW 9028   5.783   8.507   5.131 -0.1771 -0.4484  0.3607
33993SOL    HW1 9029   5.693   8.542   5.133  0.3119  0.9406 -0.6345
33993SOL    HW2 9030   5.775   8.423   5.085 -0.7913  0.2728 -0.8886
33994SOL     OW 9031   3.619   4.308  11.307  0.5710  0.1196 -0.3536
33994SOL    HW1 9032   3.526   4.321  11.292  0.3647 -0.2465  0.5423
33994SOL    HW2 9033   3.660   4.390  11.280  0.1263 -0.1387 -1.8577
33995SOL     OW 9034   3.660   0.235  11.768 -0.1242  0.7724  0.0467
33995SOL    HW1 9035   3.694   0.279  11.846 -1.2472  0.3986  0.7589
33995SOL    HW2 9036   3.716   0.267  11.697 -0.8066  3.2857  0.5472
33996SOL     OW 9037   5.918   5.744  11.863  0.2574 -0.4782 -0.0861
33996SOL    HW1 9038   5.984   5.694  11.911 -0.3240 -1.5743 -0.3822
33996SOL    HW2 9039   5.846   5.753  11.925  0.1172 -0.5456 -0.2383
33997SOL     OW 9040   6.573  11.923   8.747  0.0220  0.1569 -0.2552
33997SOL    HW1 9041   6.626  11.999   8.773 -1.1581  0.7691  0.4445
33997SOL    HW2 9042   6.568  11.928   8.652  1.3450 -0.0078 -0.3505
33998SOL     OW 9043   6.786   6.568   9.412  0.4911 -0.2140  0.3826
33998SOL    HW1 9044   6.857   6.625   9.384  0.7689 -1.3147 -1.2704
33998SOL    HW2 9045   6.710   6.597   9.360 -0.0034  0.2447  1.3403
33999SOL     OW 9046  10.873   8.765  10.152  0.3254  0.0871 -0.5570
33999SOL    HW1 9047  10.831   8.771  10.066  0.3725  1.1851 -0.5162
33999SOL    HW2 9048  10.924   8.846  10.159  0.7837 -0.2673  0.2648
34000SOL     OW 9049   8.422   5.307   2.563  0.3280 -0.3316 -0.3658
34000SOL    HW1 9050   8.436   5.212   2.568  1.8222 -0.1284 -0.1240
34000SOL    HW2 9051   8.449   5.330   2.474 -2.4309 -0.4461 -1.3098
34001SOL     OW 9052   6.214   7.630   1.157 -0.2698 -0.3587  0.4717
34001SOL    HW1 9053   6.135   7.670   1.193 -0.1003  1.0208 -0.6395
34001SOL    HW2 9054   6.188   7.600   1.070  0.0017 -1.4309  0.7388
34002SOL     OW 9055   0.987  10.010   4.046  0.1694  0.1049  0.4027
34002SOL    HW1 9056   0.910   9.960   4.020  0.6446 -0.2510 -0.3988
34002SOL    HW2 9057   1.019   9.966   4.124 -1.0615  0.9385  1.4090
34003SOL     OW 9058   2.937  10.721   6.994 -0.0645 -0.0250  0.5261
34003SOL    HW1 9059   2.888  10.783   7.047 -0.4522 -0.9707  1.3111
34003SOL    HW2 9060   2.887  10.640   6.999  0.8234 -0.6184  0.1551
34004SOL     OW 9061   2.406   1.677   4.156 -0.1703 -0.0960  0.3372
34004SOL    HW1 9062   2.366   1.719   4.079  0.9883  0.2754 -0.0929
34004SOL    HW2 9063   2.334   1.635   4.201 -1.1326  1.0438 -0.0896
34005SOL     OW 9064   2.868   1.469  12.306 -0.2189  0.2026  0.0596
34005SOL    HW1 9065   2.884   1.511  12.391  3.3059 -0.4593 -0.1494
34005SOL    HW2 9066   2.834   1.539  12.251 -1.0326  1.0354  1.5482
34006SOL     OW 9067   7.333   2.226   4.593 -0.2354  0.6707  0.5478
34006SOL    HW1 9068   7.411   2.269   4.629  0.9293 -0.3091 -0.7011
34006SOL    HW2 9069   7.347   2.133   4.610 -1.2804  0.5014  0.5370
34007SOL     OW 9070   7.419   1.020   2.356  0.5063  0.6065  0.8403
34007SOL    HW1 9071   7.330   0.991   2.376  0.2580  0.5704 -0.2506
34007SOL    HW2 9072   7.462   0.944   2.317  0.5113  1.0648 -0.0801
34008SOL     OW 9073   7.678   7.827   3.427 -0.1184  0.4404  0.7084
34008SOL    HW1 9074   7.754   7.781   3.462 -1.1090 -1.6216  0.2657
34008SOL    HW2 9075   7.609   7.813   3.491 -0.7935  0.1693 -0.0624
34009SOL     OW 9076  10.511   6.331   4.310 -0.1566 -0.2557  0.3482
34009SOL    HW1 9077  10.592   6.371   4.340  0.3498 -1.0176  0.0408
34009SOL    HW2 9078  10.512   6.244   4.350 -0.0371 -0.8562 -0.9159
34010SOL     OW 9079  11.930   6.489  10.945  0.2824 -0.4876 -0.4985
34010SOL    HW1 9080  11.906   6.565  10.998  0.5422 -1.1865  0.6525
34010SOL    HW2 9081  11.847   6.453  10.914  0.0945 -0.3702 -0.1318
34011SOL     OW 9082   4.486   9.185   5.794 -0.2153  0.4224 -0.0737
34011SOL    HW1 9083   4.528   9.268   5.818 -0.3797  1.6457 -3.4799
34011SOL    HW2 9084   4.397   9.210   5.768 -0.4829 -0.9231 -0.5285
34012SOL     OW 9085  12.506  11.887   1.876 -0.0439  0.4382 -0.2969
34012SOL    HW1 9086  12.505  11.820   1.945 -0.7938 -0.8658 -1.5370
34012SOL    HW2 9087  12.529  11.967   1.923 -1.2507 -0.2440  1.6350
34013SOL     OW 9088   5.322  10.372   6.781  0.2687 -0.2756  0.0461
34013SOL    HW1 9089   5.359  10.379   6.693 -0.8261 -0.8158 -0.4736
34013SOL    HW2 9090   5.228  10.375   6.768  0.0950  0.6090  1.3037
34014SOL     OW 9091   6.173  12.073   8.635  0.4421 -0.0596 -0.3329
34014SOL    HW1 9092   6.090  12.112   8.609  0.4191  0.0075 -0.1631
34014SOL    HW2 9093   6.233  12.148   8.641  0.5542 -0.1268 -0.6082
34015SOL     OW 9094   8.054  12.348   7.694  0.1195  0.0550  0.5890
34015SOL    HW1 9095   8.049  12.313   7.783 -0.3669  0.6613  0.8086
34015SOL    HW2 9096   8.056  12.443   7.706 -0.5214  0.1599 -0.0682
34016SOL     OW 9097  11.730   0.657   2.801  0.1899  0.2356 -0.4639
34016SOL    HW1 9098  11.712   0.602   2.724 -0.5696  3.0320 -2.4052
34016SOL    HW2 9099  11.671   0.623   2.868  0.8684 -2.2951 -1.0068
34017SOL     OW 9100   9.074   7.585   7.004  0.2841 -0.5605 -0.2152
34017SOL    HW1 9101   9.077   7.540   7.088 -0.3375  0.3409  0.3035
34017SOL    HW2 9102   9.056   7.676   7.026  2.7084  0.2242 -1.1469
34018SOL     OW 9103  12.045  10.766   7.819  0.5729 -0.0095 -0.4538
34018SOL    HW1 9104  12.095  10.691   7.849  1.1456 -0.0708 -1.5022
34018SOL    HW2 9105  11.971  10.773   7.880  1.3499 -0.4783  0.5578
34019SOL     OW 9106   3.643   5.638   7.942 -0.0065  0.3053  0.4181
34019SOL    HW1 9107   3.620   5.623   7.851 -0.2259  0.6784  0.4095
34019SOL    HW2 9108   3.680   5.555   7.972 -0.1581  0.1083  0.0598
34020SOL     OW 9109  10.552   7.837  10.419  0.0691 -0.0879 -0.1389
34020SOL    HW1 9110  10.508   7.890  10.485 -0.2652  0.1495 -0.5543
34020SOL    HW2 9111  10.541   7.885  10.337 -1.1861 -1.2928 -0.7301
34021SOL     OW 9112   8.124  11.653   9.906  0.8025 -0.1777  0.0624
34021SOL    HW1 9113   8.166  11.738   9.893 -1.5850  1.2223  0.9802
34021SOL    HW2 9114   8.086  11.632   9.821  0.1746  0.3852  0.2011
34022SOL     OW 9115  11.484   7.076   8.357  0.2788  0.2633  0.4964
34022SOL    HW1 9116  11.414   7.140   8.347 -0.2598 -0.4330 -0.3704
34022SOL    HW2 9117  11.438   6.993   8.375  0.9062 -0.0973  0.4663
34023SOL     OW 9118   8.312   1.493   3.012  0.1614 -0.4306 -0.6402
34023SOL    HW1 9119   8.395   1.475   2.968  1.1833 -1.8014  1.7048
34023SOL    HW2 9120   8.336   1.522   3.100 -1.7846 -2.4665  0.6788
34024SOL     OW 9121   8.501   4.932   2.029  0.0233 -0.3538  0.4854
34024SOL    HW1 9122   8.439   4.941   2.102  0.8808 -0.6417  1.2619
34024SOL    HW2 9123   8.573   4.879   2.064  0.7594  0.0521 -0.3675
34025SOL     OW 9124  11.641   2.983   0.572 -0.2545 -0.0793 -0.5521
34025SOL    HW1 9125  11.577   3.043   0.610  0.5405 -0.4946  1.5718
34025SOL    HW2 9126  11.711   3.039   0.540 -0.1905  0.2121  0.0921
34026SOL     OW 9127  11.805   4.891   8.401  0.0460  0.0527 -0.2412
34026SOL    HW1 9128  11.740   4.886   8.331 -1.8961 -0.2521  1.4926
34026SOL    HW2 9129  11.862   4.816   8.386 -1.3562 -0.9916 -0.5552
34027SOL     OW 9130   3.995   8.063   6.416  0.2990 -0.2977  0.0573
34027SOL    HW1 9131   4.024   7.979   6.379 -0.9683 -1.7576  2.1317
34027SOL    HW2 9132   4.037   8.129   6.361  2.1842 -2.2658 -1.0564
34028SOL     OW 9133   1.277   9.922   8.149  0.3760  0.4596  0.3651
34028SOL    HW1 9134   1.364   9.945   8.118  0.9245  1.7337  2.6036
34028SOL    HW2 9135   1.270   9.828   8.134 -0.0467  1.0056 -4.6937
34029SOL     OW 9136   1.767  12.437   5.273  0.3093  0.0160  0.2000
34029SOL    HW1 9137   1.776  12.342   5.282  0.0974 -0.1505 -1.1577
34029SOL    HW2 9138   1.679  12.457   5.306  0.5981 -0.1624  1.0922
34030SOL     OW 9139   4.342   0.102   6.142 -0.2303  0.0237 -0.0560
34030SOL    HW1 9140   4.280   0.033   6.167 -0.6763  0.2267 -0.5945
34030SOL    HW2 9141   4.402   0.059   6.082 -2.6361  0.8892 -3.3451
34031SOL     OW 9142   1.603   6.079   0.064  0.5575  0.3721 -0.2479
34031SOL    HW1 9143   1.647   6.013   0.118  1.4154 -0.7872 -2.2421
34031SOL    HW2 9144   1.524   6.036   0.033 -0.8822  1.6589  1.4552
34032SOL     OW 9145   5.302   6.130   2.845  0.1600  0.1677 -0.2506
34032SOL    HW1 9146   5.318   6.036   2.855 -0.9028  0.0578  0.6116
34032SOL    HW2 9147   5.210   6.137   2.820  0.2198  0.9779 -0.2804
34033SOL     OW 9148   3.760  12.280   8.988 -0.2515 -0.2093  0.0298
34033SOL    HW1 9149   3.748  12.363   8.942 -1.6302 -0.1115  0.5035
34033SOL    HW2 9150   3.770  12.215   8.918  1.2809  0.3877 -0.3377
34034SOL     OW 9151   5.110   4.398   1.189  0.1649  0.2403  0.4843
34034SOL    HW1 9152   5.118   4.417   1.283  0.0821 -0.5394  0.6550
34034SOL    HW2 9153   5.092   4.305   1.185  1.0700  0.0823 -0.3534
34035SOL     OW 9154   0.499   8.640   6.190  0.2005 -0.0802 -0.4040
34035SOL    HW1 9155   0.573   8.581   6.202 -0.0084  0.0874  2.2714
34035SOL    HW2 9156   0.537   8.718   6.148  2.0105  0.7239  2.4416
34036SOL     OW 9157   3.735   4.485   8.045  0.1380  0.1525 -0.0741
34036SOL    HW1 9158   3.802   4.419   8.027 -0.3123  0.1598 -2.0670
34036SOL    HW2 9159   3.762   4.561   7.992 -3.4423 -1.1967 -4.4628
34037SOL     OW 9160  11.721   9.365   1.057  0.0286  0.1999  0.4017
34037SOL    HW1 9161  11.632   9.377   1.089 -1.1255 -1.5317 -1.8919
34037SOL    HW2 9162  11.749   9.281   1.092 -0.2967 -0.5172 -0.9907
34038SOL     OW 9163   1.423   8.699   5.989 -0.6035 -0.1744  0.3907
34038SOL    HW1 9164   1.367   8.622   5.980  0.9889 -1.4381  0.9416
34038SOL    HW2 9165   1.394   8.758   5.919 -2.2433 -0.9935  0.3317
34039SOL     OW 9166   4.144   7.398   4.426 -0.2581  0.2918  0.0740
34039SOL    HW1 9167   4.077   7.458   4.459  0.4188  0.9349  0.2933
34039SOL    HW2 9168   4.192   7.448   4.360  0.5232  0.1052  0.4902
34040SOL     OW 9169   6.170  11.511   0.677  0.2458  0.3368 -0.2768
34040SOL    HW1 9170   6.225  11.550   0.608 -1.1177  1.1659 -0.9431
34040SOL    HW2 9171   6.138  11.430   0.638  0.0528  0.4506 -0.3598
34041SOL     OW 9172   2.592   5.956   5.986  0.4745 -0.0400 -0.0197
34041SOL    HW1 9173   2.647   6.019   5.940  0.9749 -0.7180 -0.3632
34041SOL    HW2 9174   2.503   5.990   5.977  0.7137  0.4914 -0.3977
34042SOL     OW 9175   5.591   3.827   4.971 -0.6634 -0.1384 -0.2018
34042SOL    HW1 9176   5.551   3.819   4.885 -1.0363  1.2471 -0.1813
34042SOL    HW2 9177   5.518   3.845   5.030 -0.4139 -1.0866  0.4280
34043SOL     OW 9178  12.364  10.361   7.119  0.0703  0.4273  0.1519
34043SOL    HW1 9179  12.288  10.420   7.128 -0.4436 -0.1682 -0.2178
34043SOL    HW2 9180  12.335  10.295   7.056  0.2172 -0.9059  1.4358
34044SOL     OW 9181   9.667  12.398   9.722  0.4353 -0.4092 -0.5985
34044SOL    HW1 9182   9.762  12.401   9.727  0.4188 -1.8034  1.2189
34044SOL    HW2 9183   9.649  12.389   9.628  2.0873 -0.5918 -0.9345
34045SOL     OW 9184   1.454   0.813   1.599  0.1318 -0.0699  0.3947
34045SOL    HW1 9185   1.475   0.884   1.538  1.3961 -0.8012 -0.0570
34045SOL    HW2 9186   1.504   0.738   1.566  1.1327 -0.3915  2.5353
34046SOL     OW 9187   1.932   7.607  11.150 -0.2297 -0.1549  0.1594
34046SOL    HW1 9188   1.909   7.535  11.091 -0.6968 -0.3630  0.5875
34046SOL    HW2 9189   2.026   7.619  11.137 -0.4886  0.4785 -1.3684
34047SOL     OW 9190   2.098   8.200   8.019  0.1030  0.1255 -0.1789
34047SOL    HW1 9191   2.105   8.282   7.969  0.4687  0.7559  0.8569
34047SOL    HW2 9192   2.010   8.202   8.056 -0.7432 -1.0984 -2.0256
34048SOL     OW 9193   1.257   1.472   3.282  0.3648 -0.2082 -0.0041
34048SOL    HW1 9194   1.172   1.446   3.246  1.3909 -1.8963 -1.3430
34048SOL    HW2 9195   1.298   1.523   3.212  0.6467  0.2315  0.4726
34049SOL     OW 9196   6.116   2.940   6.411  0.0267  0.3075 -0.5932
34049SOL    HW1 9197   6.164   2.887   6.475 -0.4564 -0.2260 -0.6620
34049SOL    HW2 9198   6.062   2.877   6.364 -1.4216  1.0006  0.0832
34050SOL     OW 9199   7.823   7.349   2.706 -0.3980 -0.1400 -0.0011
34050SOL    HW1 9200   7.872   7.294   2.767 -1.8902  0.5655  1.9528
34050SOL    HW2 9201   7.734   7.316   2.710 -1.0231  1.4589  0.0761
34051SOL     OW 9202   2.549   9.821   5.651 -0.4236  0.4070  0.0525
34051SOL    HW1 9203   2.595   9.858   5.576 -0.4489  1.2705  0.4502
34051SOL    HW2 9204   2.515   9.737   5.620  2.0154 -0.6096 -0.0526
34052SOL     OW 9205   0.472   7.426   5.127 -0.2955  0.4337 -0.3704
34052SOL    HW1 9206   0.414   7.390   5.194 -0.0871  1.3248  0.2997
34052SOL    HW2 9207   0.413   7.462   5.061 -0.5209 -1.5948 -1.3425
34053SOL     OW 9208   7.584   9.037  10.265  0.0676  0.0981  0.2648
34053SOL    HW1 9209   7.517   9.067  10.204  1.7316  3.9945  0.0966
34053SOL    HW2 9210   7.551   9.064  10.351  0.4643  0.0872  0.4210
34054SOL     OW 9211   2.754   3.707   3.488  0.1427 -0.1000 -0.6493
34054SOL    HW1 9212   2.713   3.639   3.435  0.0086 -1.6104  1.2935
34054SOL    HW2 9213   2.749   3.675   3.577  1.1902  1.9305  0.2166
34055SOL     OW 9214  11.212   1.471   1.323 -0.0841 -0.3609  0.0550
34055SOL    HW1 9215  11.276   1.539   1.303 -1.5944  0.6391 -1.6056
34055SOL    HW2 9216  11.128   1.509   1.298 -1.0714 -2.5286 -0.1137
34056SOL     OW 9217   7.629   6.731   7.053  0.1633 -0.7388  0.6743
34056SOL    HW1 9218   7.654   6.801   7.113 -1.6759  0.1147  0.5262
34056SOL    HW2 9219   7.584   6.777   6.981  0.3021 -1.9446 -0.2067
34057SOL     OW 9220   8.568   2.527   6.311 -0.0915  0.0599 -0.0614
34057SOL    HW1 9221   8.474   2.539   6.327 -0.4007  1.7634 -2.5297
34057SOL    HW2 9222   8.603   2.616   6.312  1.0736 -0.3579 -1.2180
34058SOL     OW 9223  10.643   4.010  10.746 -0.3379  0.2601 -0.7230
34058SOL    HW1 9224  10.573   3.967  10.795  0.4266  0.9901  1.1088
34058SOL    HW2 9225  10.709   3.942  10.735 -0.0923  0.3304  0.1871
34059SOL     OW 9226   9.768  10.505   7.702  0.1091 -0.0936  0.3302
34059SOL    HW1 9227   9.802  10.558   7.774 -0.8201  1.0341 -0.0324
34059SOL    HW2 9228   9.682  10.476   7.732 -0.2717  0.3584 -0.3012
34060SOL     OW 9229  11.733   3.559  12.354 -0.4916  0.4612  0.3215
34060SOL    HW1 9230  11.655   3.508  12.377 -0.7376  0.0548 -1.3175
34060SOL    HW2 9231  11.732   3.563  12.259  2.4964 -1.1613  0.1076
34061SOL     OW 9232   9.881   9.117   5.638  0.0295 -0.1907 -0.0611
34061SOL    HW1 9233   9.837   9.046   5.684 -1.6498  1.1610  0.5283
34061SOL    HW2 9234   9.853   9.107   5.547  0.0311 -0.4373 -0.0371
34062SOL     OW 9235   6.189   9.330   5.721  0.1477 -0.0866 -0.0254
34062SOL    HW1 9236   6.126   9.265   5.752  0.4370 -1.0716 -1.4059
34062SOL    HW2 9237   6.198   9.312   5.627  2.6985 -0.1865  0.1638
34063SOL     OW 9238   7.048   8.498   8.138  0.0855 -0.5936  0.5915
34063SOL    HW1 9239   7.066   8.533   8.051  1.8463  0.5476  1.3596
34063SOL    HW2 9240   6.996   8.566   8.181 -0.8618 -1.1938  0.4344
34064SOL     OW 9241   2.457   4.994   5.017 -0.3362 -0.3826  0.1316
34064SOL    HW1 9242   2.493   5.032   4.937 -2.6935  1.9619  0.0218
34064SOL    HW2 9243   2.446   4.901   4.996  0.6328 -0.1492 -1.6632
34065SOL     OW 9244   3.343   2.013  12.361  0.2211 -0.0828  0.1151
34065SOL    HW1 9245   3.421   1.998  12.414  1.3595 -0.5991 -1.6291
34065SOL    HW2 9246   3.355   2.100  12.324 -0.0558 -0.1331 -0.1013
34066SOL     OW 9247   2.975  11.569   4.414 -0.2567  0.2669 -0.1894
34066SOL    HW1 9248   3.026  11.650   4.414  0.8678 -0.4170 -0.5169
34066SOL    HW2 9249   2.937  11.564   4.502 -2.6929  2.5450 -0.9950
34067SOL     OW 9250   5.893   0.620   4.265  0.2355 -0.2866 -0.6884
34067SOL    HW1 9251   5.872   0.550   4.327 -0.4904  0.7663  0.3145
34067SOL    HW2 9252   5.967   0.666   4.305 -1.2682  1.4151  0.3168
34068SOL     OW 9253   9.261  10.595   7.299 -0.2338  0.6686 -0.7829
34068SOL    HW1 9254   9.199  10.587   7.371 -0.1568 -0.5564 -0.8365
34068SOL    HW2 9255   9.282  10.505   7.275  0.8309  1.0671 -1.4040
34069SOL     OW 9256   9.569  10.086  10.941 -0.0415  0.1510 -0.0814
34069SOL    HW1 9257   9.474  10.090  10.938 -0.0848  0.0218  0.7504
34069SOL    HW2 9258   9.597  10.098  10.850 -0.8495  0.0948 -0.3438
34070SOL     OW 9259   9.965  11.643   2.676  0.0573  0.5111 -0.3677
34070SOL    HW1 9260  10.050  11.649   2.634 -0.4307  0.3168 -1.4028
34070SOL    HW2 9261   9.906  11.611   2.608 -0.6293 -0.4494  0.6264
34071SOL     OW 9262   7.089   4.894   6.481  0.2229  0.3187 -0.4372
34071SOL    HW1 9263   7.112   4.805   6.507  2.2985  0.8306 -0.3336
34071SOL    HW2 9264   6.999   4.888   6.451  0.3075 -1.7996 -0.3907
34072SOL     OW 9265   2.238   8.191  10.827  0.5216 -0.6500  0.1992
34072SOL    HW1 9266   2.202   8.205  10.739  1.6228  0.9719 -0.0378
34072SOL    HW2 9267   2.184   8.246  10.884 -0.0768 -1.5638  0.5352
34073SOL     OW 9268   7.582  10.712   8.140 -0.0328 -0.1839  0.1517
34073SOL    HW1 9269   7.635  10.755   8.072 -2.1218 -1.4753 -2.4859
34073SOL    HW2 9270   7.542  10.785   8.188 -0.3892  0.8544 -1.6241
34074SOL     OW 9271   0.104   5.837   5.755 -0.0280  0.4113  0.2623
34074SOL    HW1 9272   0.155   5.916   5.771 -0.6219  0.5134  1.8307
34074SOL    HW2 9273   0.058   5.854   5.673  1.4646  0.8056 -0.5402
34075SOL     OW 9274   8.655   2.661  10.539 -0.0850  0.0542  0.6285
34075SOL    HW1 9275   8.656   2.695  10.629  0.1897 -1.4202  1.2132
34075SOL    HW2 9276   8.572   2.691  10.503 -1.4412 -1.5338  2.2849
34076SOL     OW 9277   0.251  10.377   9.020 -0.5924  0.0990 -0.4638
34076SOL    HW1 9278   0.178  10.438   9.035 -0.8356 -0.0333 -1.0932
34076SOL    HW2 9279   0.234  10.339   8.934  0.1128 -0.0928 -0.5262
34077SOL     OW 9280   4.206   2.469  10.723 -0.5029 -0.1664 -0.1870
34077SOL    HW1 9281   4.226   2.495  10.634 -1.2857 -0.0860 -0.3489
34077SOL    HW2 9282   4.250   2.385  10.734 -0.8099 -0.4150 -0.8170
34078SOL     OW 9283   5.145   9.628   0.347  0.0796  0.0886  0.0226
34078SOL    HW1 9284   5.065   9.605   0.299 -0.0197  1.5466 -0.5718
34078SOL    HW2 9285   5.115   9.647   0.436 -0.2086  0.3539 -0.1278
34079SOL     OW 9286   5.514   8.261   5.777  0.5359  0.1505  0.3226
34079SOL    HW1 9287   5.606   8.236   5.763  1.3312  2.4895  0.8992
34079SOL    HW2 9288   5.506   8.270   5.872 -1.0317 -2.3494  0.5239
34080SOL     OW 9289   5.907   9.905   7.073  0.5983 -0.1758  0.0607
34080SOL    HW1 9290   5.824   9.910   7.121  0.8656 -0.3527  0.5556
34080SOL    HW2 9291   5.937   9.995   7.067  0.3242 -0.1000 -0.2079
34081SOL     OW 9292   4.212   8.258   5.484  0.2149 -0.9493  0.6793
34081SOL    HW1 9293   4.248   8.340   5.452 -0.1744 -0.7016  0.8702
34081SOL    HW2 9294   4.285   8.215   5.529  0.5737 -0.9756  0.0821
34082SOL     OW 9295   3.220   1.303   5.698 -0.2700  0.2256  0.0904
34082SOL    HW1 9296   3.198   1.224   5.649 -1.7760 -0.2183  1.4005
34082SOL    HW2 9297   3.311   1.323   5.673  0.2942 -2.1436  0.0568
34083SOL     OW 9298   4.666   1.590  10.927  0.0599  0.1329  0.7416
34083SOL    HW1 9299   4.678   1.679  10.960 -1.1647 -0.0282  1.6668
34083SOL    HW2 9300   4.707   1.534  10.993 -0.4776 -0.0656  0.9128
34084SOL     OW 9301   1.868   5.332   3.296  0.0972  0.3630  0.1667
34084SOL    HW1 9302   1.863   5.253   3.350 -1.0155 -1.0881 -1.9499
34084SOL    HW2 9303   1.918   5.393   3.350  3.2886 -2.5800  0.9221
34085SOL     OW 9304   8.223   6.129  10.590  0.0556  0.1070  0.1412
34085SOL    HW1 9305   8.247   6.191  10.521 -1.3085  0.2569 -0.2241
34085SOL    HW2 9306   8.209   6.182  10.668  0.2231  0.1002  0.1765
34086SOL     OW 9307   4.295  10.466  11.979  0.1445 -0.1565  0.5488
34086SOL    HW1 9308   4.335  10.391  12.023  0.5511 -0.2303  0.0563
34086SOL    HW2 9309   4.356  10.538  11.993 -0.8231  0.4223  2.0866
34087SOL     OW 9310   1.814  10.306   2.194 -0.2423  0.1071 -0.3574
34087SOL    HW1 9311   1.858  10.380   2.151 -0.1436  0.1055 -0.2584
34087SOL    HW2 9312   1.805  10.241   2.124  3.9677 -1.7768  0.5413
34088SOL     OW 9313   7.126   1.836   3.819 -0.4135  0.1646 -0.3654
34088SOL    HW1 9314   7.194   1.904   3.818 -0.5252  0.2776 -1.1090
34088SOL    HW2 9315   7.096   1.832   3.729 -1.3511  0.0698 -0.0583
34089SOL     OW 9316   3.565  12.361   4.167 -0.0133  0.5806 -0.1553
34089SOL    HW1 9317   3.606  12.282   4.202 -0.4339  0.0017 -0.9280
34089SOL    HW2 9318   3.480  12.364   4.211  0.2264  0.9316  0.2992
34090SOL     OW 9319   6.819   1.424   4.198  0.4895  0.0152  0.0928
34090SOL    HW1 9320   6.725   1.428   4.182  0.2717 -1.2678  0.9108
34090SOL    HW2 9321   6.832   1.342   4.246  2.1649 -0.3947 -0.9500
34091SOL     OW 9322   0.226   1.937  11.509 -0.0521  0.5127 -0.1469
34091SOL    HW1 9323   0.149   1.981  11.472 -0.2897 -1.7712 -2.7738
34091SOL    HW2 9324   0.300   1.984  11.471 -0.2549  0.2398 -0.9087
34092SOL     OW 9325  11.353   8.633   2.309  0.6078 -0.0913 -0.0718
34092SOL    HW1 9326  11.374   8.677   2.226  1.3588 -3.2634 -1.7273
34092SOL    HW2 9327  11.272   8.675   2.338 -0.1871  0.5949 -2.8904
34093SOL     OW 9328   8.321   5.164  11.234  0.5935 -0.1822  0.0962
34093SOL    HW1 9329   8.259   5.139  11.303  1.9917 -0.6243  1.2444
34093SOL    HW2 9330   8.346   5.081  11.193  2.2292 -0.3105  1.2678
34094SOL     OW 9331   8.240   6.945   2.092  0.2618  0.0339  0.7631
34094SOL    HW1 9332   8.166   6.995   2.059  1.4366  0.5649 -1.2092
34094SOL    HW2 9333   8.200   6.869   2.135 -1.4197  0.4468  0.0055
34095SOL     OW 9334   6.393   3.664   6.136 -0.2865  0.1459 -0.1006
34095SOL    HW1 9335   6.362   3.740   6.186 -1.8369 -1.4931  1.6042
34095SOL    HW2 9336   6.362   3.678   6.047 -2.1571  0.6759  0.5984
34096SOL     OW 9337   4.350   4.644   0.146 -0.1420 -0.4533  0.0722
34096SOL    HW1 9338   4.286   4.627   0.077  0.7464 -1.8805 -0.4237
34096SOL    HW2 9339   4.433   4.653   0.101  0.1807  0.4542  0.8047
34097SOL     OW 9340   0.848  10.982   4.902 -0.2018  0.0650 -0.1410
34097SOL    HW1 9341   0.821  10.985   4.994 -0.3569 -1.9992 -0.0647
34097SOL    HW2 9342   0.888  11.067   4.886 -0.0006  0.4075  1.8912
34098SOL     OW 9343   5.004  11.801   0.457  0.1020  0.5004  0.0842
34098SOL    HW1 9344   5.065  11.745   0.409  0.1281 -1.0066  1.7607
34098SOL    HW2 9345   4.919  11.759   0.446 -0.7517  2.6598 -2.3464
34099SOL     OW 9346   1.733   7.394   2.225  0.1069 -0.0386 -0.0679
34099SOL    HW1 9347   1.790   7.445   2.282  2.5221 -0.8477 -1.6326
34099SOL    HW2 9348   1.754   7.423   2.137 -1.3773 -0.9251 -0.7502
34100SOL     OW 9349   1.072   1.236   8.557 -0.2892 -0.2903 -0.9895
34100SOL    HW1 9350   1.135   1.221   8.628  0.1686  1.5132 -0.9750
34100SOL    HW2 9351   1.028   1.152   8.546  0.1383 -0.8100  0.9443
34101SOL     OW 9352   8.859   3.831   6.132 -0.3459  0.2718  0.4030
34101SOL    HW1 9353   8.910   3.814   6.053 -0.9922 -0.4482  0.1390
34101SOL    HW2 9354   8.769   3.812   6.108 -0.6288  0.6463  1.1354
34102SOL     OW 9355   8.427  10.305   9.523 -0.5625  0.0020 -0.3782
34102SOL    HW1 9356   8.421  10.261   9.439  1.8445  0.0580 -0.6435
34102SOL    HW2 9357   8.380  10.387   9.511 -1.0053 -0.3806 -1.3613
34103SOL     OW 9358   4.751   4.420   0.156 -0.1308 -0.2162 -0.3520
34103SOL    HW1 9359   4.730   4.474   0.232  0.9657  0.1975 -0.3262
34103SOL    HW2 9360   4.695   4.343   0.166 -0.7897  0.3294  0.2895
34104SOL     OW 9361   7.961   9.047   4.750 -0.5174  0.5988  0.1031
34104SOL    HW1 9362   8.011   9.120   4.714  0.8244  0.0042  0.7013
34104SOL    HW2 9363   8.017   8.970   4.735 -2.7084 -0.6885 -2.3073
34105SOL     OW 9364   9.903   8.887  10.387 -0.4674 -0.3108  0.4390
34105SOL    HW1 9365   9.873   8.951  10.452  0.4280  0.8663 -0.2497
34105SOL    HW2 9366   9.926   8.940  10.311 -0.1525 -1.5236 -0.3389
34106SOL     OW 9367   1.432   9.577   1.018 -0.4945 -0.1719 -0.9187
34106SOL    HW1 9368   1.388   9.581   1.103 -2.0256 -0.3276 -1.6732
34106SOL    HW2 9369   1.396   9.652   0.969  0.6565  0.1439 -1.3076
34107SOL     OW 9370  11.450  12.087   7.912 -0.3760  0.1619 -0.3285
34107SOL    HW1 9371  11.432  12.095   7.818 -0.1186 -2.0536 -0.6255
34107SOL    HW2 9372  11.449  11.992   7.928  1.6111  0.3888  1.5017
34108SOL     OW 9373   7.197   0.702   9.036  0.1201  0.2439 -0.3864
34108SOL    HW1 9374   7.277   0.694   8.984 -0.7020 -1.0962 -1.5051
34108SOL    HW2 9375   7.225   0.682   9.126  1.0775  0.0788 -0.7063
34109SOL     OW 9376   6.073  11.140   7.816  0.5182  0.4551  0.3878
34109SOL    HW1 9377   5.992  11.185   7.838  0.5191  0.5991  0.1064
34109SOL    HW2 9378   6.046  11.068   7.758  0.2269 -1.3431  2.5998
34110SOL     OW 9379   3.092   8.312   7.573 -0.0300 -0.3068  0.1311
34110SOL    HW1 9380   3.003   8.347   7.565  0.1098  0.0119 -0.0911
34110SOL    HW2 9381   3.131   8.328   7.487 -0.2624 -1.8999 -0.2977
34111SOL     OW 9382   3.277   6.265  11.656 -0.5026 -0.5930 -0.7256
34111SOL    HW1 9383   3.322   6.245  11.738  0.7392  0.2242 -1.1880
34111SOL    HW2 9384   3.187   6.234  11.670 -0.0127 -1.5481  0.4996
34112SOL     OW 9385   8.058  11.106   8.492 -0.4614 -0.0383 -0.3446
34112SOL    HW1 9386   7.981  11.104   8.436  0.6877  0.1078 -1.9837
34112SOL    HW2 9387   8.028  11.148   8.573 -1.8035  1.1263 -1.4028
34113SOL     OW 9388   3.689  11.556  11.175  0.1978  0.2534 -0.3791
34113SOL    HW1 9389   3.724  11.490  11.115  0.5560  0.7222 -0.6990
34113SOL    HW2 9390   3.610  11.588  11.132 -1.6320 -1.9707  1.1029
34114SOL     OW 9391  11.979   9.691   9.598 -0.6381  0.0339  0.3420
34114SOL    HW1 9392  11.942   9.627   9.659  1.9740 -0.8603  1.1190
34114SOL    HW2 9393  12.016   9.759   9.654  0.8620 -0.2635 -0.2264
34115SOL     OW 9394   7.986  12.515   4.527  0.3692  0.5928  0.2450
34115SOL    HW1 9395   8.021  12.432   4.494 -0.3403  1.1020 -1.9747
34115SOL    HW2 9396   7.891  12.502   4.528  0.2899  1.1822  0.5107
34116SOL     OW 9397  11.918   1.468  10.665 -0.4033  0.3441  0.1809
34116SOL    HW1 9398  11.998   1.435  10.706 -0.3940  0.8510  0.5844
34116SOL    HW2 9399  11.855   1.397  10.675 -0.0709  0.0261  0.0578
34117SOL     OW 9400   5.641   3.440   0.438 -0.4576 -0.0859 -0.1574
34117SOL    HW1 9401   5.643   3.534   0.459 -2.5015  0.3043 -1.3236
34117SOL    HW2 9402   5.651   3.437   0.343  0.5737 -1.1545 -0.0336
34118SOL     OW 9403  10.863   1.287   3.974 -0.3099  0.0619  0.3222
34118SOL    HW1 9404  10.908   1.248   3.898  0.3495 -2.7869  2.0148
34118SOL    HW2 9405  10.829   1.370   3.942  1.1901 -0.3489 -2.6764
34119SOL     OW 9406  11.845   6.918   0.094  0.1823 -0.3675 -0.5580
34119SOL    HW1 9407  11.807   6.887   0.177  0.3556  0.9098  0.0175
34119SOL    HW2 9408  11.925   6.866   0.085  0.8620  0.3817  0.7764
34120SOL     OW 9409  10.568  10.356  11.806 -0.2697  0.7698 -0.4224
34120SOL    HW1 9410  10.533  10.272  11.774 -2.9789  1.6457 -0.0238
34120SOL    HW2 9411  10.633  10.381  11.740 -0.5739 -0.8576 -1.4135
34121SOL     OW 9412  12.422   6.427   5.421  0.3529  0.5179  0.4539
34121SOL    HW1 9413  12.344   6.461   5.378 -0.2140  0.7061  1.5992
34121SOL    HW2 9414  12.393   6.402   5.509  0.9265 -2.2038 -0.0555
34122SOL     OW 9415   6.721   4.830   2.883 -0.4306  0.8658 -0.1074
34122SOL    HW1 9416   6.631   4.811   2.911 -0.2174 -0.7176 -0.3858
34122SOL    HW2 9417   6.764   4.862   2.962 -0.6771 -0.5096  0.6236
34123SOL     OW 9418   0.427   2.823  11.746  0.3904 -0.2971  0.0505
34123SOL    HW1 9419   0.505   2.853  11.699 -0.2277 -0.1787 -0.9102
34123SOL    HW2 9420   0.355   2.838  11.686 -0.4096 -0.2730  0.9870
34124SOL     OW 9421   0.548   8.706   0.702  0.1758 -0.5229 -0.1660
34124SOL    HW1 9422   0.487   8.633   0.691 -0.6328  0.2837 -1.2617
34124SOL    HW2 9423   0.498   8.784   0.677  1.7462  0.1295 -1.5262
34125SOL     OW 9424   1.162   9.152   1.796  0.1579 -0.1890  0.2084
34125SOL    HW1 9425   1.190   9.061   1.805  2.8585  0.6377  1.0081
34125SOL    HW2 9426   1.233   9.195   1.748 -1.6462  1.2811 -1.3420
34126SOL     OW 9427  11.243  10.984   8.085  0.6527 -0.7349  0.1800
34126SOL    HW1 9428  11.295  11.060   8.111  0.3892  0.0086 -1.3435
34126SOL    HW2 9429  11.184  11.017   8.017  0.0029 -2.1360  0.0185
34127SOL     OW 9430   0.517   8.098   1.437  0.2549  0.5142  0.1074
34127SOL    HW1 9431   0.432   8.064   1.466 -0.3043  0.1529 -1.8122
34127SOL    HW2 9432   0.499   8.189   1.414  0.9266  1.1072  1.7502
34128SOL     OW 9433   4.164   9.371   9.800  0.5180  0.3886 -0.5376
34128SOL    HW1 9434   4.122   9.421   9.730 -0.6089 -0.4650 -0.4990
34128SOL    HW2 9435   4.218   9.436   9.847  0.6185  1.1416 -1.6571
34129SOL     OW 9436   7.772   2.757   0.015  0.5270 -0.2806 -0.2291
34129SOL    HW1 9437   7.814   2.828   0.063  0.7279 -1.2369  1.0888
34129SOL    HW2 9438   7.678   2.772   0.029  0.5788 -1.7846  2.5336
34130SOL     OW 9439   9.417   2.983  11.968  0.5463 -0.5850 -0.2836
34130SOL    HW1 9440   9.434   2.900  12.013  0.5827  0.0047  0.8304
34130SOL    HW2 9441   9.504   3.015  11.943  1.0521  1.1397  3.0739
34131SOL     OW 9442  12.226   6.796  10.992 -0.5755  0.3659 -0.1804
34131SOL    HW1 9443  12.204   6.835  11.077 -0.3964  0.2192 -0.0665
34131SOL    HW2 9444  12.226   6.702  11.008 -0.3620  0.3457 -0.3018
34132SOL     OW 9445   6.777   2.277   7.778 -0.4729 -0.0223 -0.0741
34132SOL    HW1 9446   6.766   2.307   7.688 -0.0586  0.8611  0.1559
34132SOL    HW2 9447   6.720   2.200   7.785 -0.5143 -0.0985 -1.0807
34133SOL     OW 9448  10.475   5.329  10.452  0.3671  0.1674  0.1639
34133SOL    HW1 9449  10.436   5.348  10.367 -0.1233 -0.6655  0.1983
34133SOL    HW2 9450  10.425   5.381  10.514  0.7699  0.8312 -0.0527
34134SOL     OW 9451  11.215   8.518   3.189  0.6741  0.1331  0.6768
34134SOL    HW1 9452  11.305   8.485   3.189 -0.0396 -2.0086  1.5542
34134SOL    HW2 9453  11.189   8.516   3.281  0.0607  1.8125  0.5697
34135SOL     OW 9454   6.810   1.727   2.949 -0.6863 -0.2206 -0.0400
34135SOL    HW1 9455   6.827   1.662   3.018 -1.7694 -0.6418 -0.1563
34135SOL    HW2 9456   6.730   1.697   2.907 -0.4868  0.4910 -0.9544
34136SOL     OW 9457   2.146   8.455   5.222 -0.0900  0.3286 -0.4089
34136SOL    HW1 9458   2.238   8.476   5.237  0.7202 -1.8352 -1.9176
34136SOL    HW2 9459   2.128   8.381   5.280 -0.4961 -0.1049 -1.0724
34137SOL     OW 9460   1.461  12.488   3.079 -0.1683 -0.0589  0.2293
34137SOL    HW1 9461   1.435  12.461   2.991  0.9861 -0.5547  0.0262
34137SOL    HW2 9462   1.388  12.461   3.135 -1.2966  1.0318 -0.6735
34138SOL     OW 9463   2.897  12.119   1.507  0.5390  0.1562  0.0892
34138SOL    HW1 9464   2.836  12.045   1.517  0.1671  0.6128  1.5445
34138SOL    HW2 9465   2.840  12.195   1.495  0.7954  0.5705  1.3592
34139SOL     OW 9466   3.455   4.137   4.571 -0.0928 -0.2364 -0.4597
34139SOL    HW1 9467   3.458   4.056   4.623 -0.6442  1.4672  2.4550
34139SOL    HW2 9468   3.364   4.165   4.575 -0.0880  0.1369 -2.1784
34140SOL     OW 9469   9.128   4.630  10.564 -0.7027 -0.1822 -0.0914
34140SOL    HW1 9470   9.175   4.680  10.631 -1.2697 -2.8010  2.4950
34140SOL    HW2 9471   9.196   4.586  10.514 -0.2665 -0.9786  1.1545
34141SOL     OW 9472  10.364   6.506   9.415  0.6596  0.2656 -0.2017
34141SOL    HW1 9473  10.449   6.495   9.458 -0.7126 -0.8625  2.4877
34141SOL    HW2 9474  10.318   6.569   9.470 -0.4642  0.3865 -1.2525
34142SOL     OW 9475  11.513   9.096   1.662  0.0450  0.0355 -0.1879
34142SOL    HW1 9476  11.432   9.140   1.635 -0.7545 -1.0207  0.4274
34142SOL    HW2 9477  11.579   9.166   1.662 -1.1137  1.1786  0.4529
34143SOL     OW 9478   5.546  10.391   9.189 -0.1795  0.3455 -0.8738
34143SOL    HW1 9479   5.479  10.434   9.136 -1.2499  0.4619  0.5087
34143SOL    HW2 9480   5.560  10.450   9.263  1.5531  0.3713 -1.1633
34144SOL     OW 9481  10.299   3.556   2.706  0.1290 -0.5956 -0.4319
34144SOL    HW1 9482  10.214   3.593   2.683 -0.4614 -1.1818  0.7000
34144SOL    HW2 9483  10.308   3.478   2.652 -1.4810 -2.2637  1.5216
34145SOL     OW 9484   8.700   9.211   6.427 -0.1205 -0.2956  0.2456
34145SOL    HW1 9485   8.667   9.243   6.343 -0.9887  0.5372  0.8776
34145SOL    HW2 9486   8.751   9.284   6.462 -1.6698  0.2681  1.4586
34146SOL     OW 9487   9.781  10.123  10.403  0.4413  0.1909  0.2799
34146SOL    HW1 9488   9.863  10.075  10.386  0.2918 -0.5961  1.6830
34146SOL    HW2 9489   9.808  10.215  10.403  1.7342 -0.1011  2.4817
34147SOL     OW 9490  12.119   4.072  11.850  0.5779  0.2969 -0.2951
34147SOL    HW1 9491  12.078   4.151  11.886  0.1135 -0.6347  1.3172
34147SOL    HW2 9492  12.202   4.103  11.814 -0.9132  2.0299 -2.5664
34148SOL     OW 9493   4.794   1.842   3.484 -0.2670 -0.0116 -0.3831
34148SOL    HW1 9494   4.862   1.895   3.526 -0.3357  1.4000 -1.9343
34148SOL    HW2 9495   4.842   1.783   3.425 -0.3130  0.0227 -0.4557
34149SOL     OW 9496   7.439   1.958   6.087 -0.4808 -0.4137  0.7194
34149SOL    HW1 9497   7.426   1.901   6.011  0.1264 -0.5839  0.7390
34149SOL    HW2 9498   7.467   1.899   6.156  0.2889 -0.0750  0.7059
34150SOL     OW 9499   3.519   8.449   4.713  0.4398  0.6859 -0.3514
34150SOL    HW1 9500   3.595   8.411   4.670  1.2548  1.5111  0.3408
34150SOL    HW2 9501   3.525   8.419   4.804  0.1622  1.0956 -0.1940
34151SOL     OW 9502   9.015   7.110   4.673 -0.1605 -0.3701  0.0318
34151SOL    HW1 9503   8.921   7.112   4.659 -0.2386 -1.1549  0.3373
34151SOL    HW2 9504   9.040   7.201   4.690 -0.5801  0.1012 -1.7352
34152SOL     OW 9505  11.648   0.082  11.091  0.1725 -0.2476 -0.1458
34152SOL    HW1 9506  11.632   0.088  10.997 -1.1438  0.0219  0.0768
34152SOL    HW2 9507  11.672  -0.010  11.105 -1.6071 -0.7971 -0.4856
34153SOL     OW 9508   7.654   3.720   2.622 -0.1448 -0.1078 -0.0330
34153SOL    HW1 9509   7.665   3.636   2.578 -1.2284  0.1859 -0.9042
34153SOL    HW2 9510   7.733   3.730   2.676  0.3627 -1.3011 -0.5345
34154SOL     OW 9511   5.588   3.237   5.022  0.1369 -0.1658  0.2124
34154SOL    HW1 9512   5.511   3.244   5.079 -0.0362  2.2891 -0.1936
34154SOL    HW2 9513   5.663   3.243   5.082 -0.0350  0.8915  0.3424
34155SOL     OW 9514  11.009   1.714   4.219 -0.2156  0.1137  0.3149
34155SOL    HW1 9515  10.927   1.761   4.206 -0.3172  0.0413  0.6697
34155SOL    HW2 9516  10.981   1.627   4.248 -0.0557 -0.4153 -1.0336
34156SOL     OW 9517  10.394   9.819   5.337 -0.0573  0.4773 -0.1889
34156SOL    HW1 9518  10.459   9.755   5.364 -1.6192 -0.7040  1.0036
34156SOL    HW2 9519  10.420   9.844   5.248  1.2891 -0.8810 -0.2177
34157SOL     OW 9520   8.971  11.250   5.038  0.8331 -0.3597  0.1035
34157SOL    HW1 9521   9.030  11.303   5.091 -0.4480  1.1923  0.0392
34157SOL    HW2 9522   8.925  11.313   4.982 -3.3159 -0.9575  2.4224
34158SOL     OW 9523   6.351   4.429   3.261 -0.2873  0.2105  0.4720
34158SOL    HW1 9524   6.374   4.472   3.178  0.1639 -1.6375 -0.4356
34158SOL    HW2 9525   6.288   4.488   3.302 -0.6536  1.1233 -1.2697
34159SOL     OW 9526   5.559  10.187   1.504  0.2458  0.4453  0.5318
34159SOL    HW1 9527   5.540  10.205   1.412 -1.4875 -0.4534  0.6655
34159SOL    HW2 9528   5.616  10.110   1.502  0.1665  0.3931  0.2063
34160SOL     OW 9529   8.610   5.887   2.205  0.5688 -0.1885 -0.1092
34160SOL    HW1 9530   8.661   5.863   2.127 -0.6184 -0.9113 -0.6919
34160SOL    HW2 9531   8.519   5.880   2.177  0.1305  0.5180  1.0782
34161SOL     OW 9532   3.425   2.776   5.150 -0.2822  0.2077 -0.0856
34161SOL    HW1 9533   3.473   2.724   5.214 -0.4736  0.7464  0.5122
34161SOL    HW2 9534   3.491   2.808   5.089 -0.2819 -1.5805 -1.0981
34162SOL     OW 9535   0.623   5.301   3.323  0.1458 -0.3398  0.5051
34162SOL    HW1 9536   0.610   5.227   3.263 -1.3418  0.0437  0.3144
34162SOL    HW2 9537   0.598   5.268   3.409  1.2111 -0.5575  0.7553
34163SOL     OW 9538   3.952   8.240  10.559 -0.1008 -0.0092  0.2598
34163SOL    HW1 9539   3.921   8.188  10.634 -1.2192  0.5019  0.1641
34163SOL    HW2 9540   4.009   8.180  10.511 -1.7475 -1.3427 -0.1251
34164SOL     OW 9541  11.776   7.887   7.094 -0.2332  0.6021 -0.3686
34164SOL    HW1 9542  11.736   7.960   7.141 -0.1264  1.0398 -0.9629
34164SOL    HW2 9543  11.753   7.810   7.147 -0.5586  1.0290  0.1188
34165SOL     OW 9544   2.672   3.332   0.174  0.0520  0.3064  0.1816
34165SOL    HW1 9545   2.649   3.347   0.266  1.4621  0.2787  0.5656
34165SOL    HW2 9546   2.689   3.238   0.168  2.2660  0.6115  0.5108
34166SOL     OW 9547   6.902  11.540  10.550 -0.2964  0.3549 -0.0127
34166SOL    HW1 9548   6.869  11.460  10.508  0.0071  0.4205 -0.3820
34166SOL    HW2 9549   6.992  11.518  10.574 -0.6169  0.1507  1.0558
34167SOL     OW 9550   7.595   1.393   0.961 -0.1694 -0.1060  0.3389
34167SOL    HW1 9551   7.583   1.462   0.896 -1.5788 -0.4005  0.2642
34167SOL    HW2 9552   7.685   1.405   0.992  0.1158  0.7925 -0.7798
34168SOL     OW 9553  11.860   2.528  12.373 -0.6621 -0.1788 -0.0813
34168SOL    HW1 9554  11.896   2.579  12.300 -1.1740 -1.8704 -1.5922
34168SOL    HW2 9555  11.897   2.441  12.363 -1.2087 -0.6115  1.3587
34169SOL     OW 9556  10.756   5.684   9.378  0.1879 -0.3764 -0.1815
34169SOL    HW1 9557  10.758   5.671   9.283  0.8816  1.1046 -0.3902
34169SOL    HW2 9558  10.847   5.673   9.405 -0.1805 -1.9166  0.4962
34170SOL     OW 9559   9.833  11.635   7.091  0.5320  0.1546 -0.5906
34170SOL    HW1 9560   9.806  11.639   7.183  1.8773  1.0637 -0.2077
34170SOL    HW2 9561   9.770  11.691   7.045  1.1267  1.4570  0.1276
34171SOL     OW 9562   1.469   7.015   4.994  0.4337  0.2285 -0.2660
34171SOL    HW1 9563   1.492   6.952   4.925 -0.8099 -0.5106 -0.0442
34171SOL    HW2 9564   1.402   7.070   4.955  0.8553  0.8278 -0.1501
34172SOL     OW 9565   8.078  10.503   1.659  0.1296 -0.1962  0.2614
34172SOL    HW1 9566   8.139  10.576   1.674  0.1361  0.1901 -1.4731
34172SOL    HW2 9567   8.132  10.425   1.672  0.2602  0.0743  1.5776
34173SOL     OW 9568   6.801   6.407   2.619 -0.7652 -0.3138 -0.4344
34173SOL    HW1 9569   6.729   6.469   2.630  0.3532  0.9031  0.1276
34173SOL    HW2 9570   6.783   6.338   2.683 -0.2519  1.1246  1.3243
34174SOL     OW 9571  12.445   2.918   4.077 -0.2760  0.1318  0.4719
34174SOL    HW1 9572  12.418   2.853   4.012  2.4929 -1.4504  0.7825
34174SOL    HW2 9573  12.483   2.989   4.025 -1.6797  0.7353  0.2234
34175SOL     OW 9574   5.799   1.881   2.359 -0.4809  0.0807 -0.0498
34175SOL    HW1 9575   5.810   1.974   2.381 -1.1269  0.0587  0.4052
34175SOL    HW2 9576   5.710   1.875   2.324 -1.4086 -0.7484  2.2308
34176SOL     OW 9577   8.303   4.309   2.997 -0.4913  0.8313  0.3710
34176SOL    HW1 9578   8.223   4.338   2.953 -0.9645  0.8961  1.2466
34176SOL    HW2 9579   8.272   4.256   3.070  0.3270 -1.1005 -0.6064
34177SOL     OW 9580   2.879   1.205   0.996  0.6076  0.5643  0.0625
34177SOL    HW1 9581   2.933   1.206   1.075  0.5707  0.2471  0.0934
34177SOL    HW2 9582   2.909   1.129   0.947  0.5298  0.6753 -0.1598
34178SOL     OW 9583  12.401   6.737   4.320  0.0945  0.6142  0.7263
34178SOL    HW1 9584  12.316   6.708   4.287  0.9366 -0.9703 -0.1755
34178SOL    HW2 9585  12.428   6.806   4.259  0.3935 -0.3809 -0.3120
34179SOL     OW 9586  10.115   6.908  10.901 -0.0099 -0.4791  0.5346
34179SOL    HW1 9587  10.152   6.839  10.846  1.3301  0.5575  0.0734
34179SOL    HW2 9588  10.144   6.989  10.859 -1.3807  0.3742  1.1745
34180SOL     OW 9589  11.061   3.380   9.741  0.1044  0.4938  0.3150
34180SOL    HW1 9590  11.048   3.308   9.679 -3.5781  1.6446 -0.4420
34180SOL    HW2 9591  11.142   3.356   9.788  0.0647 -3.1523 -1.1391
34181SOL     OW 9592   1.860   6.084  11.476 -0.1712  0.0726  0.0187
34181SOL    HW1 9593   1.786   6.076  11.537  0.0929  0.9657  0.4854
34181SOL    HW2 9594   1.825   6.136  11.404 -0.3428 -0.5654 -0.3654
34182SOL     OW 9595   6.319   6.225  10.646  0.0760 -0.1193 -0.3211
34182SOL    HW1 9596   6.297   6.133  10.659 -0.6156  0.2725  1.5633
34182SOL    HW2 9597   6.243   6.263  10.603  0.0132 -0.2344 -0.3113
34183SOL     OW 9598   6.006  11.287   4.018 -0.1761 -0.1262 -0.1061
34183SOL    HW1 9599   6.037  11.249   3.935 -0.3735 -0.0872 -0.1976
34183SOL    HW2 9600   5.924  11.331   3.995 -0.8248 -1.0744  0.3358
34184SOL     OW 9601  11.432  10.192   8.356  0.1989 -0.4378  0.1207
34184SOL    HW1 9602  11.508  10.248   8.341 -0.5357 -0.0995 -3.3325
34184SOL    HW2 9603  11.359  10.240   8.317 -1.7613 -0.9804  2.8595
34185SOL     OW 9604   1.940   3.222   9.274  0.2773 -0.5725  0.1720
34185SOL    HW1 9605   2.026   3.181   9.282  0.9097  0.8944  1.4625
34185SOL    HW2 9606   1.945   3.270   9.191  1.0788  0.2541  0.6733
34186SOL     OW 9607  11.256   6.396   9.103 -0.3977  0.2775  0.8578
34186SOL    HW1 9608  11.285   6.316   9.060 -0.0892  0.0358  1.5063
34186SOL    HW2 9609  11.333   6.452   9.104 -1.1352  1.4832 -1.5489
34187SOL     OW 9610   6.358   9.887   8.070 -0.0624  0.0912 -0.5811
34187SOL    HW1 9611   6.336   9.979   8.055  0.7097  0.8747  2.3258
34187SOL    HW2 9612   6.279   9.849   8.107  0.0436 -0.0142 -0.4579
34188SOL     OW 9613   8.250   9.287   0.171  0.2656  0.1005  0.3612
34188SOL    HW1 9614   8.316   9.347   0.135 -1.1223  1.5344  0.1218
34188SOL    HW2 9615   8.184   9.281   0.103  0.6621 -2.2882  0.0967
34189SOL     OW 9616   9.783   5.692  11.291 -0.0147 -0.5929  0.4716
34189SOL    HW1 9617   9.855   5.650  11.244  1.3584  2.5876 -0.5069
34189SOL    HW2 9618   9.722   5.719  11.222 -1.3898 -1.7464  1.1672
34190SOL     OW 9619   6.950  11.210   3.098  0.1120  0.3337 -0.3262
34190SOL    HW1 9620   7.035  11.248   3.118  0.5045 -0.2502 -0.8430
34190SOL    HW2 9621   6.959  11.117   3.121 -1.1665  0.6932  1.9588
34191SOL     OW 9622   6.782  11.968   1.465  0.0482  0.0841 -0.9138
34191SOL    HW1 9623   6.691  11.948   1.444 -0.0811 -1.0500  0.5259
34191SOL    HW2 9624   6.831  11.891   1.435  0.1209 -0.6115  0.8707
34192SOL     OW 9625  10.500   9.018   0.581  0.5575 -0.2254  0.0069
34192SOL    HW1 9626  10.413   9.057   0.577  0.7436  0.1998  0.0663
34192SOL    HW2 9627  10.520   8.994   0.491  1.1315  1.3552 -0.3083
34193SOL     OW 9628   7.888   5.294   8.116  0.6717  0.0108 -0.1888
34193SOL    HW1 9629   7.846   5.379   8.133 -1.1126 -1.0753  1.2747
34193SOL    HW2 9630   7.886   5.250   8.201  1.2527 -1.6261 -0.9953
34194SOL     OW 9631   0.430   9.257   2.800  0.4238  0.0447  0.1975
34194SOL    HW1 9632   0.373   9.312   2.746  0.3882  0.0398  0.2301
34194SOL    HW2 9633   0.519   9.284   2.776  0.4185 -0.3240 -0.2432
34195SOL     OW 9634   8.798   7.935   8.119 -0.2694  0.5619  0.5381
34195SOL    HW1 9635   8.882   7.966   8.086  0.6514  0.0323  2.2496
34195SOL    HW2 9636   8.751   7.906   8.041  0.9266  1.3300 -0.5143
34196SOL     OW 9637   2.551  10.176  10.664 -0.0310 -0.1510 -0.3340
34196SOL    HW1 9638   2.611  10.197  10.736  0.2213 -0.4307 -0.4622
34196SOL    HW2 9639   2.606  10.183  10.586 -0.7445  2.1243 -0.7168
34197SOL     OW 9640   1.015   7.256   2.901  0.2690  0.2220  0.0239
34197SOL    HW1 9641   0.932   7.303   2.892 -0.0105 -0.4053 -0.9078
34197SOL    HW2 9642   1.061   7.272   2.819  0.6754 -0.1775  0.1679
34198SOL     OW 9643   3.639   4.032   0.622 -0.4811 -0.7443  0.0028
34198SOL    HW1 9644   3.563   4.061   0.572 -1.5552 -0.6847  1.5701
34198SOL    HW2 9645   3.688   4.113   0.639 -0.4664 -0.6706 -0.3818
34199SOL     OW 9646  11.023   0.540   3.579  0.0539 -0.2081  0.1602
34199SOL    HW1 9647  10.998   0.630   3.560  1.5515  0.1306 -0.3404
34199SOL    HW2 9648  11.026   0.536   3.675 -1.0773 -0.0603  0.2214
34200SOL     OW 9649   5.859   3.579   2.375  0.4113 -0.5217  0.3101
34200SOL    HW1 9650   5.860   3.518   2.449  0.1188 -0.1298  0.6446
34200SOL    HW2 9651   5.858   3.523   2.298 -0.3585 -0.9478  0.6169
34201SOL     OW 9652   1.427   9.601   3.369  0.7160 -0.4058  0.3182
34201SOL    HW1 9653   1.345   9.571   3.328  0.7367 -0.8346  0.5928
34201SOL    HW2 9654   1.496   9.573   3.309  0.6381  0.3662 -0.1533
34202SOL     OW 9655  11.454   2.274   1.417 -0.1078 -0.6202  0.1790
34202SOL    HW1 9656  11.546   2.272   1.445  0.1407 -1.1517 -0.6203
34202SOL    HW2 9657  11.418   2.191   1.447 -0.5055 -0.1329  1.0534
34203SOL     OW 9658  11.894  12.510   5.755  0.1584 -0.7173  0.5445
34203SOL    HW1 9659  11.841  12.516   5.676  0.3585 -1.3910  0.3549
34203SOL    HW2 9660  11.976  12.553   5.734  0.1249 -0.6949  0.4623
34204SOL     OW 9661   2.129  10.226  10.199 -0.1413  0.0929  0.0048
34204SOL    HW1 9662   2.158  10.160  10.262  2.2724  1.2250  0.1723
34204SOL    HW2 9663   2.210  10.265  10.165 -1.4196  1.0231 -2.1980
34205SOL     OW 9664   5.378  10.515  11.867  0.4542 -0.1975  0.0517
34205SOL    HW1 9665   5.348  10.430  11.899 -1.0783 -0.0525 -0.9021
34205SOL    HW2 9666   5.298  10.566  11.857  1.2073  0.8486 -0.8541
34206SOL     OW 9667   8.314   8.218   6.848  0.1449 -0.0832 -0.1272
34206SOL    HW1 9668   8.378   8.287   6.828  0.4750 -0.6507 -1.1077
34206SOL    HW2 9669   8.241   8.236   6.788 -0.2347  0.0482  0.3746
34207SOL     OW 9670   9.247   8.546   8.898  0.1168 -0.1676 -0.2050
34207SOL    HW1 9671   9.228   8.565   8.990 -1.7034  1.1741 -0.7971
34207SOL    HW2 9672   9.163   8.557   8.854  1.2431  0.6946 -2.2731
34208SOL     OW 9673   2.671   1.034  10.468  0.7509  0.0317  1.0684
34208SOL    HW1 9674   2.749   0.982  10.449 -0.3619 -1.4993  0.4299
34208SOL    HW2 9675   2.702   1.124  10.474  2.1511 -0.1160 -2.1131
34209SOL     OW 9676  12.500   7.733   1.472  0.3493 -0.9119 -0.6432
34209SOL    HW1 9677  12.532   7.824   1.466  1.1677 -1.1142  0.3344
34209SOL    HW2 9678  12.406   7.742   1.482  0.3998 -0.1712 -0.7170
34210SOL     OW 9679   0.584  10.885   2.763 -0.2253  0.6498  0.0015
34210SOL    HW1 9680   0.504  10.836   2.744 -0.0284  0.2397  0.2156
34210SOL    HW2 9681   0.614  10.915   2.677 -1.2899  1.9149  0.0365
34211SOL     OW 9682  10.736   6.185   7.296  0.8730 -0.4998  0.1160
34211SOL    HW1 9683  10.691   6.257   7.340  2.9229 -0.4080  2.2759
34211SOL    HW2 9684  10.666   6.126   7.269 -0.9745  2.4524 -2.3478
34212SOL     OW 9685   4.850   0.174   0.533 -0.4319  0.1282 -0.1897
34212SOL    HW1 9686   4.841   0.123   0.453 -0.1400 -1.6116  0.8305
34212SOL    HW2 9687   4.776   0.148   0.587  0.0521  0.3176  0.5929
34213SOL     OW 9688   2.444   4.395   3.230  0.7890  0.0893 -0.8108
34213SOL    HW1 9689   2.409   4.306   3.240  1.5126  0.0248  1.5808
34213SOL    HW2 9690   2.374   4.443   3.185 -0.4203 -1.2056 -0.3831
34214SOL     OW 9691  10.985   9.283   3.443  0.2930 -0.1186 -0.4131
34214SOL    HW1 9692  11.031   9.334   3.375 -1.3162  0.6054 -1.0126
34214SOL    HW2 9693  10.955   9.349   3.505  0.7027 -0.6677  0.3833
34215SOL     OW 9694  10.957   3.628   9.150  0.1225 -0.3264  0.0205
34215SOL    HW1 9695  10.971   3.653   9.241 -0.8724 -0.2175  0.1544
34215SOL    HW2 9696  10.953   3.532   9.151  3.1740 -0.5398 -0.3818
34216SOL     OW 9697  12.468   1.320   2.923 -0.1874 -0.3930  0.2825
34216SOL    HW1 9698  12.429   1.250   2.977  0.3690  0.5978  2.0670
34216SOL    HW2 9699  12.395   1.377   2.902 -0.1786  0.0691  1.4112
34217SOL     OW 9700   8.283   1.183   2.277  0.1457  0.7030  0.0624
34217SOL    HW1 9701   8.379   1.187   2.277  0.2646 -1.0590  1.5806
34217SOL    HW2 9702   8.258   1.204   2.367 -0.9504  1.5546 -0.4143
34218SOL     OW 9703   0.963   8.795   9.345  0.3012  0.0262  0.6049
34218SOL    HW1 9704   0.894   8.835   9.292  1.0176  0.5416  0.0426
34218SOL    HW2 9705   0.918   8.726   9.394 -0.4721 -0.1364 -0.2968
34219SOL     OW 9706   9.160   0.690   8.900 -0.4137 -0.1941  0.0738
34219SOL    HW1 9707   9.235   0.683   8.959  0.0629  0.1847 -0.4768
34219SOL    HW2 9708   9.198   0.687   8.813 -1.1644 -1.3316 -0.2354
34220SOL     OW 9709   1.762  11.791   6.673 -0.5978  0.2768  0.1966
34220SOL    HW1 9710   1.707  11.758   6.744  0.2116  0.2263  0.8046
34220SOL    HW2 9711   1.798  11.712   6.632 -1.5019  0.2749 -0.6527
34221SOL     OW 9712  11.558   0.320   4.631  0.0434  0.1064  0.3428
34221SOL    HW1 9713  11.611   0.399   4.637  0.2829  0.0471 -0.7505
34221SOL    HW2 9714  11.621   0.251   4.608 -0.2094 -0.3443  0.9798
34222SOL     OW 9715   8.112  12.417   8.883  0.3513  0.7211 -0.0107
34222SOL    HW1 9716   8.178  12.454   8.824  1.7742  0.8114  1.5717
34222SOL    HW2 9717   8.040  12.392   8.825  2.0212  0.0088 -1.9116
34223SOL     OW 9718   4.282   7.370   1.817 -0.4963  0.0333 -0.2411
34223SOL    HW1 9719   4.313   7.430   1.886 -1.2303  0.8928 -0.6417
34223SOL    HW2 9720   4.191   7.354   1.839 -0.7017  0.2221 -0.9427
34224SOL     OW 9721   1.265   5.355   1.447 -0.0568 -0.4772  0.1183
34224SOL    HW1 9722   1.230   5.272   1.480  1.3831 -0.7937  0.9506
34224SOL    HW2 9723   1.352   5.333   1.414  0.2763  0.6628  0.1874
34225SOL     OW 9724   4.648   8.187   1.255  0.1074  0.1339  0.6161
34225SOL    HW1 9725   4.646   8.276   1.291  1.3018  0.6306 -0.4936
34225SOL    HW2 9726   4.587   8.138   1.310 -1.5467  1.9219  0.4713
34226SOL     OW 9727   1.501  10.052  11.138 -0.2319 -0.2176 -0.4270
34226SOL    HW1 9728   1.596  10.041  11.133 -0.2226 -1.1592  1.1108
34226SOL    HW2 9729   1.488  10.144  11.162  0.3760 -0.4737  0.9498
34227SOL     OW 9730   8.897  11.086   0.366 -0.0162 -0.1863  0.1128
34227SOL    HW1 9731   8.883  11.008   0.420  0.1360 -1.7876 -2.0188
34227SOL    HW2 9732   8.817  11.137   0.376 -0.7992 -1.4203  0.3145
34228SOL     OW 9733   2.412   6.111   3.878 -0.2591  0.2133  0.4864
34228SOL    HW1 9734   2.411   6.015   3.879  1.8955  0.1402  1.4274
34228SOL    HW2 9735   2.443   6.133   3.790  1.8858 -0.0934  1.1104
34229SOL     OW 9736   3.749  11.590   3.045  0.0645  0.2577  0.3622
34229SOL    HW1 9737   3.817  11.535   3.084  0.4705  0.2011 -0.4046
34229SOL    HW2 9738   3.678  11.529   3.024  0.2337  0.1338  0.1432
34230SOL     OW 9739   2.571   6.637  12.095 -0.3727 -0.4896 -0.2768
34230SOL    HW1 9740   2.481   6.627  12.062 -0.8278  1.0850  0.3894
34230SOL    HW2 9741   2.563   6.701  12.166  1.5229  1.0635 -1.3702
34231SOL     OW 9742   5.229   2.509   1.384 -0.5005  0.9726  0.1855
34231SOL    HW1 9743   5.166   2.579   1.365 -0.0459  1.5286  0.6835
34231SOL    HW2 9744   5.296   2.518   1.315  0.0425  1.6380  0.7783
34232SOL     OW 9745   2.837   1.717   4.384 -0.5666  0.1570  0.3915
34232SOL    HW1 9746   2.842   1.766   4.466 -1.0590 -0.0031  0.5176
34232SOL    HW2 9747   2.913   1.747   4.334 -1.2400  1.6073  0.1608
34233SOL     OW 9748   7.001   0.726   0.849 -0.4754  0.2117  0.6133
34233SOL    HW1 9749   6.967   0.815   0.845 -1.3520 -0.0363  1.8705
34233SOL    HW2 9750   7.019   0.711   0.942  1.9220 -0.1245  0.1508
34234SOL     OW 9751   3.458   0.228   5.257 -0.2029  0.2364  0.6010
34234SOL    HW1 9752   3.502   0.297   5.207 -0.3056  0.8799  1.3912
34234SOL    HW2 9753   3.373   0.266   5.281 -1.1545 -0.9237 -0.7512
34235SOL     OW 9754   2.540  10.510  11.959 -0.4805 -0.2196 -0.2148
34235SOL    HW1 9755   2.520  10.603  11.951 -0.9442 -0.3757 -0.9022
34235SOL    HW2 9756   2.469  10.473  12.011  0.2109 -0.0233  0.9062
34236SOL     OW 9757   0.835   2.936   1.687  0.3951  0.7419 -0.1982
34236SOL    HW1 9758   0.784   2.939   1.606  1.5218  0.1100 -0.9771
34236SOL    HW2 9759   0.805   3.011   1.738 -1.9879 -0.1768 -0.1648
34237SOL     OW 9760   0.590  11.014   3.651  0.6362  0.1938 -0.1273
34237SOL    HW1 9761   0.658  11.009   3.583  1.1292  2.0368  0.1877
34237SOL    HW2 9762   0.529  11.080   3.619  1.3881  1.8234  1.6186
34238SOL     OW 9763   6.484  10.085  10.945  0.2303  0.2769  0.0031
34238SOL    HW1 9764   6.446  10.157  10.894 -1.1406  0.4609  1.2078
34238SOL    HW2 9765   6.533  10.033  10.882 -1.0189  0.7535 -1.4006
34239SOL     OW 9766   6.191  11.921   7.164  0.3372 -0.0973 -0.4209
34239SOL    HW1 9767   6.126  11.892   7.228  0.3481 -1.2305 -0.8811
34239SOL    HW2 9768   6.275  11.910   7.207  0.2349  1.5935  0.2590
34240SOL     OW 9769   9.587   3.987   5.911 -0.1032 -0.4870 -0.1745
34240SOL    HW1 9770   9.619   4.064   5.863  0.9119 -2.8214 -3.6013
34240SOL    HW2 9771   9.666   3.946   5.946 -0.5337 -0.5410  0.7631
34241SOL     OW 9772   6.928  11.734  12.027 -0.6304 -0.3024  0.0513
34241SOL    HW1 9773   6.848  11.760  12.072 -1.7238 -1.5989 -1.0389
34241SOL    HW2 9774   6.914  11.642  12.004  1.0577 -0.4816 -0.4257
34242SOL     OW 9775   1.779   4.848   8.128  0.2504  0.3488 -0.1924
34242SOL    HW1 9776   1.723   4.855   8.051  0.1944  0.4418 -0.1440
34242SOL    HW2 9777   1.855   4.798   8.098 -0.4399 -0.9113  0.0629
34243SOL     OW 9778   6.485   4.637   0.386 -0.1761  0.5248  0.1554
34243SOL    HW1 9779   6.548   4.606   0.450  0.3824  0.6341 -0.3372
34243SOL    HW2 9780   6.438   4.707   0.430 -0.1436  0.2595  0.6163
34244SOL     OW 9781   7.778   3.297  11.430  0.4303  0.1313  0.3727
34244SOL    HW1 9782   7.744   3.382  11.404 -1.5503 -0.1936  1.6678
34244SOL    HW2 9783   7.729   3.234  11.377  1.1043 -0.2677  0.2035
34245SOL     OW 9784   7.475   2.828   3.572 -0.1750  0.9022  0.3751
34245SOL    HW1 9785   7.415   2.756   3.595  0.6523  0.4032  0.9977
34245SOL    HW2 9786   7.533   2.790   3.506  0.4508  0.9026  0.9164
34246SOL     OW 9787  11.191   4.215   3.198 -0.6689 -0.0321 -0.4011
34246SOL    HW1 9788  11.166   4.196   3.288 -1.0979  1.0706 -0.2670
34246SOL    HW2 9789  11.110   4.202   3.147 -0.4660 -0.5035 -0.6119
34247SOL     OW 9790  10.473   2.576  11.193 -0.2960 -0.2461  0.1797
34247SOL    HW1 9791  10.394   2.622  11.221  0.0441  0.6618 -0.2951
34247SOL    HW2 9792  10.441   2.501  11.143 -0.8773  0.8603 -1.1793
34248SOL     OW 9793   1.135   4.252  12.023  0.0877  0.1350 -0.0697
34248SOL    HW1 9794   1.067   4.311  12.055  1.0898  1.6367 -0.6164
34248SOL    HW2 9795   1.087   4.182  11.978 -1.1181  1.8696 -1.6404
34249SOL     OW 9796   2.448   1.072   4.783  0.3270  0.3390  0.3863
34249SOL    HW1 9797   2.475   0.980   4.790 -0.1988  0.2750  2.1985
34249SOL    HW2 9798   2.353   1.068   4.774  0.3379  0.7048  0.1179
34250SOL     OW 9799   8.260   4.124   4.264  0.0834 -0.3233 -0.3292
34250SOL    HW1 9800   8.251   4.106   4.170 -1.0671 -0.0533 -0.2900
34250SOL    HW2 9801   8.285   4.216   4.268  0.2430 -0.3641 -0.3677
34251SOL     OW 9802   1.303   6.966   2.388 -0.3486 -0.0482 -0.4360
34251SOL    HW1 9803   1.247   6.955   2.465 -0.6089  0.9686 -0.4691
34251SOL    HW2 9804   1.391   6.972   2.423 -0.5387  1.1847 -0.1395
34252SOL     OW 9805   5.158   7.664   2.390 -0.0036 -0.4529  0.1234
34252SOL    HW1 9806   5.177   7.718   2.467  1.6076 -2.8502  1.5696
34252SOL    HW2 9807   5.148   7.726   2.319  1.1353  1.7716  1.7725
34253SOL     OW 9808  10.247   8.830  10.635 -0.0423 -0.3040  0.0676
34253SOL    HW1 9809  10.317   8.806  10.575 -0.5027 -2.3587  0.2657
34253SOL    HW2 9810  10.283   8.901  10.688  0.9948  0.3270 -1.4265
34254SOL     OW 9811   3.957   2.108   1.850 -0.3733 -0.3186  0.5774
34254SOL    HW1 9812   4.039   2.107   1.800  0.5785 -1.1574  2.0796
34254SOL    HW2 9813   3.889   2.088   1.785  0.7192 -0.5629 -0.5234
34255SOL     OW 9814   5.127   2.151   9.991 -0.1548 -0.1686 -0.1545
34255SOL    HW1 9815   5.177   2.165   9.911 -2.2803  1.7586 -1.2861
34255SOL    HW2 9816   5.165   2.211  10.054 -0.6582  0.9324 -0.8588
34256SOL     OW 9817   7.095  11.027   3.733  0.3257  0.0056  0.6052
34256SOL    HW1 9818   7.098  11.077   3.815  3.1760 -0.4580  0.8549
34256SOL    HW2 9819   7.120  11.091   3.666  0.4912 -0.2494  0.4264
34257SOL     OW 9820  10.640   9.315   5.489 -0.3473 -0.3085  0.5352
34257SOL    HW1 9821  10.570   9.263   5.449  0.0935 -0.4735 -0.0330
34257SOL    HW2 9822  10.595   9.373   5.550 -0.8981 -0.9910  0.7877
34258SOL     OW 9823  10.763   4.401   7.061 -0.2613  0.6970  0.0140
34258SOL    HW1 9824  10.839   4.372   7.010 -0.8221  1.6488 -1.4536
34258SOL    HW2 9825  10.724   4.320   7.094  1.4967  0.2024  1.0179
34259SOL     OW 9826   9.577   2.372   5.034 -0.1428 -1.0623  0.3323
34259SOL    HW1 9827   9.615   2.406   5.115  1.6881 -1.3827 -0.3500
34259SOL    HW2 9828   9.645   2.383   4.968 -1.4187 -1.2413 -1.0833
34260SOL     OW 9829   6.463   6.344   7.923 -0.8759  0.0791  0.4306
34260SOL    HW1 9830   6.501   6.316   8.006  0.7833  1.7894  0.3256
34260SOL    HW2 9831   6.405   6.272   7.898  1.0205 -1.9651  1.4751
34261SOL     OW 9832   9.825  10.917   3.456 -0.5256  0.6503 -0.1601
34261SOL    HW1 9833   9.816  10.828   3.490  1.3339 -0.0449 -1.2924
34261SOL    HW2 9834   9.886  10.959   3.517  1.6711 -0.1448 -1.6813
34262SOL     OW 9835  10.247   0.841   3.133  0.9320 -0.2184  0.2172
34262SOL    HW1 9836  10.229   0.747   3.125 -1.0261  0.1676 -0.5264
34262SOL    HW2 9837  10.170   0.877   3.177  0.8300  1.2781 -1.0946
34263SOL     OW 9838   9.398   1.560   3.397 -0.3627  0.2603  0.2233
34263SOL    HW1 9839   9.423   1.468   3.387  1.9789  0.5733  2.1591
34263SOL    HW2 9840   9.423   1.601   3.314 -1.2430 -0.7793 -0.5795
34264SOL     OW 9841  12.494   7.961   4.295 -0.1888 -0.2405 -0.6651
34264SOL    HW1 9842  12.548   7.886   4.323  0.3287  0.2104 -0.4366
34264SOL    HW2 9843  12.536   7.990   4.214  0.7307  0.9246  0.1854
34265SOL     OW 9844   5.581   6.321  10.036  0.0009  0.6546 -0.2717
34265SOL    HW1 9845   5.598   6.414  10.044 -1.2257  0.8662  0.1572
34265SOL    HW2 9846   5.528   6.313   9.956  3.0490 -0.1484 -2.4175
34266SOL     OW 9847   1.184   8.834  11.494 -0.0056 -0.1568 -0.7150
34266SOL    HW1 9848   1.255   8.898  11.504  0.6385 -0.8265 -0.9500
34266SOL    HW2 9849   1.130   8.846  11.572  1.9941 -1.6460  1.0077
34267SOL     OW 9850   0.353   0.331   7.545  0.0770 -0.3433  0.7110
34267SOL    HW1 9851   0.282   0.266   7.548 -0.0944 -0.1976 -0.0116
34267SOL    HW2 9852   0.309   0.412   7.516  0.4339 -0.1073  0.8286
34268SOL     OW 9853   1.184   7.562  10.522 -0.5777  0.1699  0.1696
34268SOL    HW1 9854   1.236   7.636  10.491 -0.9775  0.2283 -0.3684
34268SOL    HW2 9855   1.248   7.491  10.531  0.0551  0.8922  1.9158
34269SOL     OW 9856  11.346   3.503   0.379 -0.1871  0.7483  0.3896
34269SOL    HW1 9857  11.276   3.555   0.420  0.5381 -0.4280  3.3920
34269SOL    HW2 9858  11.358   3.429   0.439  1.7977 -0.5383 -1.4760
34270SOL     OW 9859   7.480   5.154   0.982 -0.2743  0.1405  0.1116
34270SOL    HW1 9860   7.460   5.136   1.074  1.6234 -0.4109  0.4548
34270SOL    HW2 9861   7.511   5.071   0.947 -0.4207  0.4876 -0.8797
34271SOL     OW 9862  10.072   8.499   5.212  0.5080  0.4406 -0.6513
34271SOL    HW1 9863  10.054   8.592   5.224  1.0276  0.2238  3.4710
34271SOL    HW2 9864  10.165   8.495   5.191  0.7452  0.8871  0.2530
34272SOL     OW 9865   7.836   2.971  11.225 -0.6251  0.1799 -0.1456
34272SOL    HW1 9866   7.799   2.884  11.206 -2.7811  0.1754  3.1660
34272SOL    HW2 9867   7.777   3.032  11.179 -0.8617 -0.0230 -0.1169
34273SOL     OW 9868   9.795   0.233   1.590  0.6220 -0.4903  0.0434
34273SOL    HW1 9869   9.806   0.270   1.503 -1.0706 -0.2239 -0.0754
34273SOL    HW2 9870   9.707   0.195   1.590 -0.1696  1.1267  2.2022
34274SOL     OW 9871   3.102  11.417   0.369 -0.0221  0.3998  0.2734
34274SOL    HW1 9872   3.077  11.325   0.375  0.9371  0.1357  0.2936
34274SOL    HW2 9873   3.057  11.448   0.290 -0.4398 -0.0506  0.3263
34275SOL     OW 9874   7.837  11.393   9.313 -0.0647  0.3254  0.3294
34275SOL    HW1 9875   7.759  11.412   9.260 -1.0055  0.3430  1.6815
34275SOL    HW2 9876   7.870  11.479   9.339  0.5810  0.3284 -0.4471
34276SOL     OW 9877   8.122   5.560  10.381  0.0898  0.0574  0.2347
34276SOL    HW1 9878   8.123   5.504  10.459 -0.3914  0.7504  0.7494
34276SOL    HW2 9879   8.092   5.645  10.413 -0.5338  0.2323 -0.7906
34277SOL     OW 9880  10.110   0.430   8.350  0.0844  0.4186  0.3127
34277SOL    HW1 9881  10.085   0.395   8.435  0.4941  2.5909  1.3900
34277SOL    HW2 9882  10.096   0.524   8.357  1.7786  0.8761 -1.4219
34278SOL     OW 9883   7.153   5.825   4.477 -0.3046 -0.1120 -0.0731
34278SOL    HW1 9884   7.184   5.875   4.553  1.8980 -0.7428 -0.4813
34278SOL    HW2 9885   7.174   5.734   4.499 -1.6059 -0.5586 -0.5765
34279SOL     OW 9886   9.358   3.013   0.868 -0.1237 -0.6106  0.4103
34279SOL    HW1 9887   9.372   2.919   0.857  1.9015 -0.3875  0.6385
34279SOL    HW2 9888   9.381   3.051   0.783 -0.5948 -0.2850  0.4257
34280SOL     OW 9889   7.436  11.210   1.549  0.2828  0.1665 -0.2394
34280SOL    HW1 9890   7.422  11.245   1.461  0.7580  1.9690  0.3709
34280SOL    HW2 9891   7.526  11.179   1.549 -0.0553 -0.8523 -0.6999
34281SOL     OW 9892  10.854   3.979   9.214 -0.2373 -0.0852 -0.1291
34281SOL    HW1 9893  10.948   3.979   9.233 -0.3469 -0.5839  0.4230
34281SOL    HW2 9894  10.812   3.972   9.300 -0.7707 -0.3711 -0.4099
34282SOL     OW 9895  12.344   9.792   8.019  0.1079  0.1153  0.4527
34282SOL    HW1 9896  12.382   9.860   7.964 -0.9650 -0.1318 -0.6360
34282SOL    HW2 9897  12.390   9.712   7.994  1.7021  0.4587  2.0649
34283SOL     OW 9898   5.958   8.187   9.615  0.5889  0.4616 -0.4052
34283SOL    HW1 9899   5.864   8.175   9.598  0.5763 -0.0331 -0.0171
34283SOL    HW2 9900   5.985   8.105   9.655  1.5859 -0.0922 -2.1383
34284SOL     OW 9901   7.952   9.019   3.037 -0.2159 -0.3706 -0.2550
34284SOL    HW1 9902   7.981   9.090   3.095 -1.0614 -1.5320  1.6796
34284SOL    HW2 9903   7.997   8.941   3.069  0.9046 -0.7262 -2.5125
34285SOL     OW 9904   8.518   6.931   1.714  0.2708  0.3432  0.3726
34285SOL    HW1 9905   8.534   6.999   1.649  0.8017  0.0303  0.1775
34285SOL    HW2 9906   8.533   6.849   1.668 -0.9929  0.0526  0.4273
34286SOL     OW 9907   4.595   9.320   3.865 -0.2451  0.0524 -0.1152
34286SOL    HW1 9908   4.664   9.349   3.924  0.3228 -0.7166 -0.3799
34286SOL    HW2 9909   4.625   9.346   3.778  0.8676 -2.2836 -0.5103
34287SOL     OW 9910   0.854   2.153  11.484 -0.0795 -0.0209 -0.1605
34287SOL    HW1 9911   0.868   2.112  11.399  2.3548  2.2019 -0.9341
34287SOL    HW2 9912   0.932   2.130  11.535  0.1353  1.5252  0.2405
34288SOL     OW 9913   6.587  11.460   9.156  0.5385  0.2204 -0.2895
34288SOL    HW1 9914   6.582  11.447   9.250 -0.1871 -3.8520 -0.7199
34288SOL    HW2 9915   6.540  11.543   9.141  1.0741  1.2392  2.8620
34289SOL     OW 9916  10.781   9.794  10.692  0.0013  0.4858 -0.4663
34289SOL    HW1 9917  10.718   9.858  10.660 -0.4676 -0.0810 -0.6900
34289SOL    HW2 9918  10.735   9.710  10.688 -0.0371  0.3565  1.5387
34290SOL     OW 9919   1.494   3.186   9.791  0.2210 -0.3111 -0.3401
34290SOL    HW1 9920   1.454   3.147   9.868  0.2807  1.1072  0.4432
34290SOL    HW2 9921   1.522   3.111   9.738  1.1305 -1.3540  1.5043
34291SOL     OW 9922   8.560   9.471   2.847 -0.4403 -0.0308 -0.5007
34291SOL    HW1 9923   8.625   9.437   2.786 -1.0778 -1.2948 -0.5065
34291SOL    HW2 9924   8.493   9.510   2.792  0.2656  1.2549 -0.4954
34292SOL     OW 9925   1.523   0.156   3.165  0.5084  0.3978 -0.6456
34292SOL    HW1 9926   1.542   0.113   3.082  0.8842 -1.4904  0.3739
34292SOL    HW2 9927   1.434   0.127   3.187  1.4295 -1.4488  0.9337
34293SOL     OW 9928   8.474   6.556   7.274  0.3255  0.3033 -0.1701
34293SOL    HW1 9929   8.517   6.489   7.328  0.1799  1.0625  0.9213
34293SOL    HW2 9930   8.543   6.586   7.214  0.7873  0.1656  0.2803
34294SOL     OW 9931  11.451   0.650  10.595 -0.0169  0.3202  0.0858
34294SOL    HW1 9932  11.446   0.555  10.606  0.0917  0.3191  0.1201
34294SOL    HW2 9933  11.448   0.663  10.500 -1.3122  0.3470  0.1125
34295SOL     OW 9934   1.666   7.885  10.710 -0.1145  0.5389 -0.7023
34295SOL    HW1 9935   1.716   7.954  10.667 -1.2971  1.8249 -0.1015
34295SOL    HW2 9936   1.650   7.918  10.799 -2.5975  0.5555 -1.0791
34296SOL     OW 9937   9.302   7.774   6.557  0.0238  0.1525 -0.3179
34296SOL    HW1 9938   9.329   7.751   6.646 -1.0127  1.3822  0.3559
34296SOL    HW2 9939   9.344   7.859   6.541 -2.6394  1.7223  0.4577
34297SOL     OW 9940   2.446   9.631   2.942 -0.5368 -0.0948  0.0008
34297SOL    HW1 9941   2.423   9.553   2.892  0.0429  0.4485 -1.1438
34297SOL    HW2 9942   2.361   9.671   2.963 -0.8264 -0.9153  0.4215
34298SOL     OW 9943   3.375   7.263   0.510 -0.1525  0.2863  0.3341
34298SOL    HW1 9944   3.332   7.227   0.588  0.2023 -0.4599  0.1938
34298SOL    HW2 9945   3.458   7.299   0.543  0.1474 -0.3216  0.2620
34299SOL     OW 9946   3.213   0.099   2.615 -0.1185  0.5280 -0.0359
34299SOL    HW1 9947   3.299   0.141   2.607  0.1183  0.6191  2.2731
34299SOL    HW2 9948   3.197   0.094   2.710 -1.4565 -1.9212 -0.2880
34300SOL     OW 9949   3.459  12.207   4.839  0.2411  0.3417 -0.3109
34300SOL    HW1 9950   3.498  12.263   4.906  1.0251 -0.1075 -0.3783
34300SOL    HW2 9951   3.366  12.229   4.840  0.6075  2.0647 -0.7448
34301SOL     OW 9952   6.800   4.283   9.459 -0.6222  0.2610  0.0986
34301SOL    HW1 9953   6.845   4.288   9.543  4.1534 -1.7350 -2.0129
34301SOL    HW2 9954   6.805   4.373   9.425  0.5400  0.3931  0.5538
34302SOL     OW 9955   8.130   0.246   2.002  0.0691 -0.3822 -0.0334
34302SOL    HW1 9956   8.136   0.216   2.092  0.1094 -1.0008 -0.2330
34302SOL    HW2 9957   8.039   0.231   1.977 -0.1781  0.6609  0.1898
34303SOL     OW 9958   6.180  12.177   7.674 -0.4504  0.0069  0.0733
34303SOL    HW1 9959   6.235  12.160   7.598  1.2666 -0.2417  1.3324
34303SOL    HW2 9960   6.234  12.230   7.732 -0.6954 -2.0622  2.3129
34304SOL     OW 9961   2.503   5.491  11.268 -0.2908 -0.0894 -0.0604
34304SOL    HW1 9962   2.501   5.403  11.308  1.1918  0.6358  1.7929
34304SOL    HW2 9963   2.528   5.549  11.340 -2.7891  2.1351 -0.8557
34305SOL     OW 9964   7.114   0.125   6.173 -0.1009  0.3652 -0.0941
34305SOL    HW1 9965   7.190   0.142   6.229 -0.7467 -2.2028  1.7947
34305SOL    HW2 9966   7.133   0.040   6.133 -1.9489 -0.3576  0.4573
34306SOL     OW 9967   6.304   9.847   6.938  0.0814  0.1773 -0.4016
34306SOL    HW1 9968   6.360   9.865   7.014  0.2992  1.4793 -0.8494
34306SOL    HW2 9969   6.265   9.932   6.916 -1.9812 -0.6514 -0.2054
34307SOL     OW 9970   3.758   7.648   6.291 -0.5584 -0.0906 -0.1364
34307SOL    HW1 9971   3.838   7.656   6.240  0.1435 -1.6124  0.6608
34307SOL    HW2 9972   3.692   7.617   6.228 -0.2960  0.2521 -0.5877
34308SOL     OW 9973   4.137   2.133   5.000 -0.3599  0.1361 -0.0953
34308SOL    HW1 9974   4.088   2.215   5.010  0.9921  0.9087  0.4878
34308SOL    HW2 9975   4.116   2.083   5.079  0.5442  0.9089  0.6680
34309SOL     OW 9976   1.272   3.228   0.734  0.1657 -0.7706 -0.4303
34309SOL    HW1 9977   1.256   3.236   0.640 -0.0464 -2.7549 -0.6161
34309SOL    HW2 9978   1.357   3.183   0.739  0.2418 -0.5497  0.3404
34310SOL     OW 9979   6.359   8.818  10.446 -0.3534 -0.3500 -0.0879
34310SOL    HW1 9980   6.312   8.747  10.489 -0.2446 -0.0707  0.4993
34310SOL    HW2 9981   6.421   8.774  10.388 -2.4944 -0.7750 -2.2640
34311SOL     OW 9982   6.502   2.928   7.889  0.3481 -0.2933  0.4129
34311SOL    HW1 9983   6.444   2.882   7.950  0.3675 -0.2217  0.4861
34311SOL    HW2 9984   6.491   3.021   7.912  0.9111 -0.3176  0.7954
34312SOL     OW 9985   4.058   0.204   9.036  0.2237  0.3497 -0.2611
34312SOL    HW1 9986   3.978   0.182   8.989 -1.2648  1.5103  1.5998
34312SOL    HW2 9987   4.067   0.133   9.101  0.7975  0.1484 -0.5547
34313SOL     OW 9988   8.283   6.979   7.327  0.1818 -0.1643 -0.4307
34313SOL    HW1 9989   8.254   6.890   7.308  0.5329 -0.8426  1.9535
34313SOL    HW2 9990   8.303   7.016   7.240 -1.5499 -1.8029 -1.6058
34314SOL     OW 9991   7.210   8.788   4.196  0.0159 -0.8535  0.0975
34314SOL    HW1 9992   7.275   8.741   4.249  0.4360  0.7858  1.1055
34314SOL    HW2 9993   7.218   8.749   4.109  2.7408 -0.3855  0.0344
34315SOL     OW 9994   2.894  12.520   9.614  0.1366  0.2825 -0.1394
34315SOL    HW1 9995   2.853  12.568   9.542  0.3014  0.0080 -0.4180
34315SOL    HW2 9996   2.980  12.562   9.624  0.2717  0.0629 -0.3680
34316SOL     OW 9997  12.047  10.773   9.557 -0.3580  0.7000  0.4045
34316SOL    HW1 9998  12.027  10.711   9.486  0.8038  1.3277 -0.5022
34316SOL    HW2 9999  11.962  10.797   9.592 -0.9309 -0.0256 -0.4407
34317SOL     OW10000   0.090   8.018  10.084 -0.5163  0.3414 -0.0807
34317SOL    HW110001   0.003   8.055  10.102 -0.9028 -0.4801 -0.2165
34317SOL    HW210002   0.147   8.095  10.078 -1.1385  0.8694  0.4857
34318SOL     OW10003   2.045  10.427   7.701  0.0226  0.6903 -0.5087
34318SOL    HW110004   2.036  10.509   7.750  1.0502  0.7900 -0.4631
34318SOL    HW210005   2.130  10.434   7.658  1.0760 -1.1918  1.1063
34319SOL     OW10006   1.279   8.283   4.505  0.6420 -0.3561  0.0758
34319SOL    HW110007   1.216   8.347   4.538 -1.0345 -3.0068  2.4767
34319SOL    HW210008   1.283   8.300   4.411 -3.3727  0.3374 -0.1623
34320SOL     OW10009  12.130   2.735   9.364 -0.0515  0.1656 -0.5731
34320SOL    HW110010  12.077   2.780   9.430  1.0488  2.3794 -1.1072
34320SOL    HW210011  12.083   2.752   9.282  0.6565  0.8422 -0.8472
34321SOL     OW10012   3.461   3.718   1.023  0.4893 -0.2945  0.1189
34321SOL    HW110013   3.503   3.784   0.969 -1.0713  0.9778  0.3719
34321SOL    HW210014   3.391   3.682   0.968 -1.5333  1.4624  1.3865
34322SOL     OW10015   4.050   3.759   0.208 -0.3147  0.2482  0.0430
34322SOL    HW110016   3.992   3.697   0.252  0.0364 -0.1250 -0.0216
34322SOL    HW210017   4.132   3.756   0.258  0.6085 -1.2639 -1.4458
34323SOL     OW10018  12.424   0.501   3.725  0.6341 -0.8594  0.1302
34323SOL    HW110019  12.362   0.485   3.796 -1.4172 -0.2630 -1.4468
34323SOL    HW210020  12.402   0.588   3.692  2.8779 -0.2668  0.0164
34324SOL     OW10021   1.105   7.333   4.787 -0.6550 -0.3728  0.7716
34324SOL    HW110022   1.021   7.287   4.785 -0.2715 -1.1159  1.6503
34324SOL    HW210023   1.083   7.423   4.761 -1.5219 -0.8421 -0.2274
34325SOL     OW10024  12.564  11.698  11.770  0.0558 -0.4301  0.3638
34325SOL    HW110025  12.553  11.724  11.862  0.2111 -0.6992  0.4584
34325SOL    HW210026  12.559  11.603  11.771 -0.4813 -0.4119  0.0208
34326SOL     OW10027   8.065   9.885  11.201  0.9104  0.2911  0.6427
34326SOL    HW110028   8.122   9.874  11.125  1.1525  1.6061  0.6117
34326SOL    HW210029   8.001   9.951  11.174 -1.7256 -2.3057  0.0905
34327SOL     OW10030   0.192   6.716   2.114 -0.5453  0.5713  0.0768
34327SOL    HW110031   0.109   6.744   2.152  0.1552  1.3783  1.0417
34327SOL    HW210032   0.168   6.639   2.062 -1.8826  0.7248  0.4067
34328SOL     OW10033   5.115   0.100   3.587  0.2073  0.2282 -0.0240
34328SOL    HW110034   5.148   0.022   3.633  0.3339 -0.0088 -0.5016
34328SOL    HW210035   5.181   0.167   3.603 -1.0132  0.9692  2.3328
34329SOL     OW10036  12.125   1.144  10.218  0.4159  0.3834 -0.3602
34329SOL    HW110037  12.065   1.203  10.264  0.1908  0.8607 -1.2382
34329SOL    HW210038  12.211   1.164  10.255  0.1152  0.0584  0.5405
34330SOL     OW10039  12.446   9.216   7.099  0.2390 -0.0653 -0.0874
34330SOL    HW110040  12.405   9.215   7.013  0.6661  0.1700 -0.2995
34330SOL    HW210041  12.491   9.131   7.105  0.3051 -0.0343 -0.1435
34331SOL     OW10042   2.108   8.363   7.319 -0.2807 -0.1598 -0.4332
34331SOL    HW110043   2.188   8.371   7.266  0.7698 -0.6183  1.0142
34331SOL    HW210044   2.139   8.329   7.403 -1.8088  1.0579  0.6814
34332SOL     OW10045   9.393   4.844   7.504 -0.2018  0.3986 -0.4183
34332SOL    HW110046   9.314   4.889   7.474  0.7747  2.8327  0.4347
34332SOL    HW210047   9.465   4.899   7.473  1.0292 -0.0888  1.4014
34333SOL     OW10048  11.561  11.330  10.624  0.3526 -0.3456 -0.3127
34333SOL    HW110049  11.514  11.413  10.639 -0.0705 -0.3125 -1.6870
34333SOL    HW210050  11.518  11.268  10.683 -0.1375  0.1421 -0.1405
34334SOL     OW10051  10.577   9.221   9.610  0.1595 -0.1044 -0.3991
34334SOL    HW110052  10.607   9.138   9.573  2.1394  0.6764 -0.6614
34334SOL    HW210053  10.615   9.224   9.697 -2.4623 -0.8102  0.8723
34335SOL     OW10054   2.138   8.463   9.354 -0.1907 -0.3510  0.0309
34335SOL    HW110055   2.121   8.528   9.423 -1.7054 -1.4962  0.8050
34335SOL    HW210056   2.231   8.441   9.364  0.3352  1.5832 -0.1940
34336SOL     OW10057   6.379  12.082  10.119 -0.2548  0.2284  0.2501
34336SOL    HW110058   6.311  12.052  10.178 -0.8866 -1.9570 -1.4477
34336SOL    HW210059   6.364  12.176  10.111 -2.7252 -0.0891  0.3755
34337SOL     OW10060   4.012   8.969   6.010  0.5318  0.4551  0.2723
34337SOL    HW110061   4.099   8.938   5.986  0.3455 -0.2495  0.4710
34337SOL    HW210062   4.027   9.046   6.065  1.0066  0.7818 -0.3134
34338SOL     OW10063   8.258   9.567   4.739  0.0363  0.3089  0.1172
34338SOL    HW110064   8.310   9.638   4.777  0.4027  0.4623 -0.6454
34338SOL    HW210065   8.175   9.609   4.716 -0.1960  0.2093  0.7565
34339SOL     OW10066   2.024   3.089   3.290  0.4625  0.2870 -0.2209
34339SOL    HW110067   1.991   3.167   3.246 -0.9411 -1.2822 -2.1289
34339SOL    HW210068   1.962   3.020   3.266  1.9933 -1.5685  0.8747
34340SOL     OW10069   9.015   8.980   7.442 -0.2079 -0.8892  0.3151
34340SOL    HW110070   8.922   9.003   7.447  0.1245  0.3192  1.6476
34340SOL    HW210071   9.016   8.891   7.409 -1.8214 -0.7243 -0.2456
34341SOL     OW10072   0.822   0.314   5.381  0.1389  0.2992 -0.4376
34341SOL    HW110073   0.894   0.251   5.385 -0.6460 -0.5251  1.8145
34341SOL    HW210074   0.749   0.265   5.341 -0.3470 -0.1314  0.9378
34342SOL     OW10075   9.228   3.080   5.061  0.1684  0.0967 -0.7484
34342SOL    HW110076   9.182   3.100   4.980 -0.5718  1.5825  0.0032
34342SOL    HW210077   9.209   2.988   5.077  0.2270 -0.1834 -2.1835
34343SOL     OW10078  10.017  11.950   7.977  0.0661  0.0483  0.3293
34343SOL    HW110079  10.051  12.039   7.973 -0.6154  0.2685 -2.1574
34343SOL    HW210080  10.095  11.894   7.976  0.5341  0.5332  2.6711
34344SOL     OW10081  12.462   1.604  12.122  0.6465  0.3611  0.1754
34344SOL    HW110082  12.461   1.595  12.027  1.8428 -2.1280  0.3278
34344SOL    HW210083  12.375   1.574  12.150  1.1909 -1.5594 -0.0266
34345SOL     OW10084   0.315   2.846   2.636 -0.2802  0.3935  0.4045
34345SOL    HW110085   0.274   2.761   2.654  0.5207 -0.0488  0.1716
34345SOL    HW210086   0.263   2.884   2.565 -1.4313  0.6790  1.3660
34346SOL     OW10087  12.037  12.153   3.195  0.0798  0.0250  0.1771
34346SOL    HW110088  12.003  12.242   3.202 -1.9740 -0.8028  2.0156
34346SOL    HW210089  11.959  12.098   3.191  1.2873 -1.7217 -0.9410
34347SOL     OW10090   7.255   3.205   4.779 -0.6092  0.2592 -0.7252
34347SOL    HW110091   7.187   3.265   4.749 -1.4132  0.3381  1.1162
34347SOL    HW210092   7.222   3.171   4.862 -0.3303 -2.9836 -1.8234
34348SOL     OW10093   8.719   3.392   2.947  0.4868 -0.4959  0.2573
34348SOL    HW110094   8.801   3.437   2.969  0.7073 -0.5630 -0.3947
34348SOL    HW210095   8.746   3.324   2.884  0.0235 -0.9417  0.5364
34349SOL     OW10096   6.717   8.758   2.211  0.4470 -0.4466  0.3341
34349SOL    HW110097   6.631   8.797   2.196  0.5868  0.3784  1.5899
34349SOL    HW210098   6.712   8.673   2.167 -0.0762  0.6730 -1.9046
34350SOL     OW10099   5.233   9.379  10.384  0.1167 -0.5718 -0.3971
34350SOL    HW110100   5.319   9.421  10.374  0.3419 -1.0229 -0.3928
34350SOL    HW210101   5.222   9.329  10.303  0.2206 -1.1538 -0.0608
34351SOL     OW10102   0.310   9.425   1.614 -0.8480  0.3375  0.1652
34351SOL    HW110103   0.273   9.512   1.596 -0.6205  0.2804 -0.6196
34351SOL    HW210104   0.263   9.366   1.555  0.0505  0.1641 -0.3876
34352SOL     OW10105   2.353   2.081   2.224  0.2842 -0.4292 -0.0280
34352SOL    HW110106   2.295   2.010   2.252 -0.1964  0.3401  0.9782
34352SOL    HW210107   2.424   2.036   2.177 -0.0283 -1.5765  0.5423
34353SOL     OW10108   7.450   7.716   3.682  0.3116 -0.0369  0.5342
34353SOL    HW110109   7.409   7.800   3.665 -1.5031 -0.5413  2.0825
34353SOL    HW210110   7.384   7.666   3.731  1.5942 -2.0962  0.3022
34354SOL     OW10111   5.513   1.302  11.129  0.4665 -0.0015  0.0935
34354SOL    HW110112   5.480   1.213  11.115 -1.5779  0.8481 -0.8204
34354SOL    HW210113   5.554   1.326  11.045 -1.1017  0.7435 -0.4898
34355SOL     OW10114   4.065   6.677   7.186 -0.1698 -0.1546 -0.1557
34355SOL    HW110115   4.141   6.718   7.227  0.4926 -0.0098 -1.4686
34355SOL    HW210116   4.047   6.732   7.109 -0.3712 -1.3092 -0.9571
34356SOL     OW10117   6.088   9.347   3.593 -0.0578  0.2027 -0.0666
34356SOL    HW110118   6.055   9.436   3.584  0.6012  0.7551  2.2734
34356SOL    HW210119   6.058   9.302   3.514 -0.9795  2.2997 -0.9838
34357SOL     OW10120  12.416  10.173  10.166 -0.5051 -0.9147  0.1082
34357SOL    HW110121  12.479  10.116  10.211  1.0460  0.5450 -0.0837
34357SOL    HW210122  12.451  10.181  10.077 -1.7537 -1.1744 -0.4195
34358SOL     OW10123   3.901   9.082   4.348  0.0641 -0.1916  0.1925
34358SOL    HW110124   3.906   8.987   4.336  1.6467 -0.0314 -0.7148
34358SOL    HW210125   3.975   9.117   4.298  0.4565  1.4037  1.7531
34359SOL     OW10126   4.284   2.038   0.363  0.2100 -0.0240  0.2650
34359SOL    HW110127   4.195   2.022   0.332  0.2020 -0.8713  0.6955
34359SOL    HW210128   4.303   2.129   0.338  0.3027 -0.7080 -2.4712
34360SOL     OW10129   3.000   7.793   8.083 -0.3618 -0.2497 -0.0085
34360SOL    HW110130   2.922   7.844   8.060 -1.0275 -1.4449 -0.4794
34360SOL    HW210131   2.974   7.747   8.163 -0.5504 -1.5063 -0.7749
34361SOL     OW10132   1.085   1.303  11.405 -0.1551 -0.1574 -0.4661
34361SOL    HW110133   1.038   1.355  11.339 -0.8460 -0.9742 -0.6452
34361SOL    HW210134   1.024   1.300  11.479 -0.1849 -0.8278 -0.5176
34362SOL     OW10135  10.487   2.492  10.181 -0.0168  0.1041  0.0582
34362SOL    HW110136  10.508   2.585  10.191 -0.4885  0.3165 -0.8257
34362SOL    HW210137  10.396   2.485  10.211  0.5559 -0.4213  1.8360
34363SOL     OW10138   0.033   3.718  11.585  0.1418  0.2124 -0.2189
34363SOL    HW110139  -0.048   3.753  11.546  0.2221 -0.6319 -1.2094
34363SOL    HW210140   0.026   3.740  11.678 -1.5155 -0.3222 -0.1666
34364SOL     OW10141   3.302   0.716  10.127 -0.6813 -0.0695  0.3996
34364SOL    HW110142   3.293   0.623  10.149 -0.0230 -0.8956 -2.4055
34364SOL    HW210143   3.361   0.750  10.194  1.0485 -2.3169  0.1589
34365SOL     OW10144  12.145  12.006   3.398 -0.2011  0.5622 -0.2387
34365SOL    HW110145  12.115  12.061   3.326  1.2580  1.7053 -0.0247
34365SOL    HW210146  12.177  12.068   3.464 -0.3545 -0.4938  0.8746
34366SOL     OW10147   3.102   3.874   3.189 -0.3351 -0.2291 -0.6167
34366SOL    HW110148   3.031   3.813   3.210 -1.1564  0.0692 -2.3547
34366SOL    HW210149   3.177   3.841   3.238 -1.2209 -1.5645 -0.0951
34367SOL     OW10150   6.918   2.733  10.362  0.1603 -0.2707  0.5430
34367SOL    HW110151   6.903   2.663  10.426  0.3988 -0.5826  0.2647
34367SOL    HW210152   6.984   2.789  10.402  0.4881 -0.6023  0.4687
34368SOL     OW10153   7.408   0.289  10.855 -0.7547 -0.3138  0.5892
34368SOL    HW110154   7.440   0.329  10.937 -1.1529 -0.0696  0.6249
34368SOL    HW210155   7.463   0.328  10.787 -2.0577  1.3818  0.4571
34369SOL     OW10156  12.351   8.587   4.339  0.1404 -0.0480  0.4049
34369SOL    HW110157  12.307   8.536   4.271  1.1164  0.8211 -0.9442
34369SOL    HW210158  12.376   8.523   4.405  0.2252 -1.1398 -0.6462
34370SOL     OW10159   5.998  11.578   4.866  0.4943 -0.1419  0.2839
34370SOL    HW110160   5.911  11.539   4.874 -0.0848  0.7533 -1.3122
34370SOL    HW210161   6.004  11.638   4.941 -0.8428  0.8322 -0.3406
34371SOL     OW10162   2.172   5.589   9.999 -0.5089  0.1062  0.3134
34371SOL    HW110163   2.166   5.682  10.021 -0.5044 -0.3176  2.3028
34371SOL    HW210164   2.265   5.569  10.006 -0.6249 -0.2560  0.8569
34372SOL     OW10165   5.429   3.535   4.765  0.2308  0.3008 -0.4509
34372SOL    HW110166   5.392   3.572   4.845 -0.1932 -2.8950  0.9863
34372SOL    HW210167   5.355   3.491   4.722  1.2278 -1.5452 -0.3716
34373SOL     OW10168   2.797   9.317   0.726  0.1851 -0.2532 -0.6320
34373SOL    HW110169   2.716   9.346   0.684  0.5658  3.4046  0.8159
34373SOL    HW210170   2.867   9.354   0.672  0.7631  0.4268  0.5544
34374SOL     OW10171   7.892   6.766   1.294 -0.0443 -0.5046  1.3392
34374SOL    HW110172   7.891   6.736   1.385  0.7101 -0.7758  1.2614
34374SOL    HW210173   7.958   6.711   1.251 -0.1340 -0.1305  0.7120
34375SOL     OW10174   2.472   0.699  12.582  0.0654 -0.2751  0.4405
34375SOL    HW110175   2.407   0.746  12.529  1.4461  0.8068 -0.3436
34375SOL    HW210176   2.555   0.715  12.539  0.7074 -3.0450  0.4383
34376SOL     OW10177   6.136  10.974   3.163 -0.0670  0.0065  0.1877
34376SOL    HW110178   6.124  11.060   3.203 -1.5074  0.0437 -0.2875
34376SOL    HW210179   6.224  10.948   3.190  0.5349  1.7605  0.0717
34377SOL     OW10180  11.980  12.022   8.098  0.3968 -0.3370  0.7112
34377SOL    HW110181  11.921  11.963   8.144  0.9373 -0.7092  0.9384
34377SOL    HW210182  11.930  12.104   8.090 -0.4567 -0.8975  0.1346
34378SOL     OW10183   0.285   2.889   4.755 -0.5884  0.3568 -0.0202
34378SOL    HW110184   0.351   2.904   4.823 -1.5486  1.2368  0.7599
34378SOL    HW210185   0.204   2.873   4.803 -1.3736  1.4094 -0.9388
34379SOL     OW10186   2.117   5.184   4.078 -0.2427 -0.6526  0.5111
34379SOL    HW110187   2.040   5.130   4.092 -1.9601  1.5024 -0.0536
34379SOL    HW210188   2.109   5.213   3.987  1.9952 -1.4288 -0.0041
34380SOL     OW10189  11.770   8.668   4.280  0.7332 -0.3755  0.3584
34380SOL    HW110190  11.828   8.742   4.295  0.7604 -0.3230  0.0018
34380SOL    HW210191  11.824   8.605   4.231  0.4832 -0.3201  0.0131
34381SOL     OW10192  12.441  10.598  11.553 -0.7871  0.7528  0.0876
34381SOL    HW110193  12.501  10.595  11.628  0.3482  0.0267 -0.8157
34381SOL    HW210194  12.432  10.691  11.533  1.1371  0.8500 -0.5679
34382SOL     OW10195   2.553   1.021   9.799 -0.0646 -0.3190  0.3367
34382SOL    HW110196   2.579   0.931   9.779 -2.4462 -1.4729  1.9356
34382SOL    HW210197   2.507   1.051   9.721  0.7745 -0.4660 -0.2193
34383SOL     OW10198   3.103   7.364  12.197  0.0488  0.1813  0.8056
34383SOL    HW110199   3.144   7.361  12.110 -2.3997  0.2461 -0.4206
34383SOL    HW210200   3.177   7.361  12.257  1.7929 -2.8598 -1.1836
34384SOL     OW10201  10.313  10.568   3.148  0.0996 -0.4203 -0.5769
34384SOL    HW110202  10.386  10.587   3.089  0.2835  3.4322  0.6609
34384SOL    HW210203  10.350  10.575   3.236 -1.3557 -0.2305  0.0613
34385SOL     OW10204   5.980   2.347  11.619 -0.1326  0.2079 -0.8348
34385SOL    HW110205   6.066   2.306  11.619 -0.0569  0.3359  0.4591
34385SOL    HW210206   5.922   2.282  11.579 -0.0453 -1.2632  1.2938
34386SOL     OW10207   3.914   9.315   5.809  0.4550  0.0256 -0.6873
34386SOL    HW110208   3.877   9.352   5.729 -2.0764 -1.0433 -0.1290
34386SOL    HW210209   3.864   9.356   5.880  2.5116  0.8117  0.3812
34387SOL     OW10210  12.018   1.830  11.975  0.5641 -0.5380 -0.1306
34387SOL    HW110211  11.936   1.796  12.011 -0.1294  1.2044  0.0098
34387SOL    HW210212  12.085   1.801  12.038  0.1669 -2.4306 -0.5315
34388SOL     OW10213   8.706   2.122  12.399 -0.3521  0.4150  0.2979
34388SOL    HW110214   8.794   2.159  12.400  0.4295 -1.1796 -1.9535
34388SOL    HW210215   8.648   2.198  12.410  1.2670  1.7826 -0.2471
34389SOL     OW10216   7.387   7.898   1.835 -0.1474 -0.7528  0.1239
34389SOL    HW110217   7.472   7.941   1.833 -1.1838  1.4658  0.7930
34389SOL    HW210218   7.384   7.848   1.753  3.1210 -3.8297  1.5839
34390SOL     OW10219   5.483   1.046   5.152 -0.3720 -0.5121  0.0698
34390SOL    HW110220   5.441   0.961   5.165  0.4232 -0.8651  0.3863
34390SOL    HW210221   5.535   1.059   5.231 -2.2555  1.3324  1.1082
34391SOL     OW10222   0.833  10.193   0.267  0.0101 -0.1431 -0.2472
34391SOL    HW110223   0.779  10.230   0.197 -0.8187 -0.4433  0.2184
34391SOL    HW210224   0.820  10.098   0.260 -0.0532 -0.1788  0.2884
34392SOL     OW10225   8.415  11.596  10.281  0.4395  0.0310  0.6736
34392SOL    HW110226   8.401  11.610  10.375  0.2542 -2.0410  0.9891
34392SOL    HW210227   8.490  11.537  10.276  1.4891  1.3823 -0.5887
34393SOL     OW10228   7.363   2.465  11.024  0.3701 -0.3144  0.3552
34393SOL    HW110229   7.425   2.496  11.090 -0.5236 -2.4590  2.3275
34393SOL    HW210230   7.397   2.379  10.998  0.6708  0.4569 -2.0292
34394SOL     OW10231  10.860   6.253   9.835  0.1995 -0.1833  0.4435
34394SOL    HW110232  10.902   6.330   9.796  5.0075 -2.3784  0.6722
34394SOL    HW210233  10.822   6.285   9.917 -0.2576  2.3281 -0.6503
34395SOL     OW10234   7.812   3.870   8.821  0.4135 -0.4886 -0.0781
34395SOL    HW110235   7.891   3.817   8.814  0.7999 -0.0545  0.9482
34395SOL    HW210236   7.803   3.911   8.735  2.0354  0.4981  0.2025
34396SOL     OW10237  12.168  10.170   6.388  0.3425  0.3450  0.5675
34396SOL    HW110238  12.139  10.259   6.410  0.7348  0.5416  0.3021
34396SOL    HW210239  12.245  10.156   6.444  2.1650  1.3503 -1.5470
34397SOL     OW10240   9.062   6.875   6.645 -0.3201  0.0933  0.3376
34397SOL    HW110241   9.064   6.945   6.710  0.3622  0.6537 -0.2702
34397SOL    HW210242   8.990   6.898   6.587  0.2406  0.5878 -0.1724
34398SOL     OW10243  11.966   5.688   7.354  0.3434 -0.2303  0.0517
34398SOL    HW110244  12.043   5.635   7.377  1.5481  2.0320  1.5698
34398SOL    HW210245  11.955   5.673   7.260  1.2434 -2.3503  0.2293
34399SOL     OW10246   6.782   6.563  12.204  0.5288 -0.0162 -0.2009
34399SOL    HW110247   6.825   6.607  12.278  2.7058 -2.2036 -0.0251
34399SOL    HW210248   6.772   6.632  12.139  0.7236  1.4614  1.2533
34400SOL     OW10249  12.144   6.713   4.712 -0.0651  0.3371 -0.4333
34400SOL    HW110250  12.138   6.640   4.773  3.1800  0.5819  0.3950
34400SOL    HW210251  12.148   6.791   4.767  1.4280  0.6811 -0.9579
34401SOL     OW10252   4.566   2.769   5.247 -0.0054  0.0333  0.0354
34401SOL    HW110253   4.547   2.734   5.334  3.0448 -1.8248  0.1337
34401SOL    HW210254   4.590   2.860   5.262 -1.6159  0.3690  0.7727
34402SOL     OW10255   0.333   6.751   0.765 -0.3967  0.0644 -0.1039
34402SOL    HW110256   0.345   6.782   0.675 -0.0183  1.4130  0.3855
34402SOL    HW210257   0.398   6.682   0.775  0.3896  0.7222 -0.5052
34403SOL     OW10258   9.349   5.679   1.446  0.0841 -0.1466 -0.3030
34403SOL    HW110259   9.293   5.647   1.375 -0.2144 -0.5740  0.1250
34403SOL    HW210260   9.385   5.761   1.412 -0.8192  0.1450 -0.5687
34404SOL     OW10261   3.888  11.357   0.983 -0.4063  0.5160  0.0628
34404SOL    HW110262   3.827  11.342   1.056 -0.0603  0.6023  0.3682
34404SOL    HW210263   3.911  11.269   0.952 -0.5032  0.4792  0.0947
34405SOL     OW10264  11.620   9.292   9.745 -0.0536  0.1720  0.4072
34405SOL    HW110265  11.613   9.240   9.826 -1.5118 -2.4139 -1.2513
34405SOL    HW210266  11.547   9.354   9.750  0.4719  0.7466  1.4830
34406SOL     OW10267  11.646   5.398   9.426 -0.1585 -0.2814  0.2890
34406SOL    HW110268  11.668   5.367   9.338 -1.0504  0.7021 -0.2988
34406SOL    HW210269  11.567   5.450   9.414  0.6427  1.2572  1.4032
34407SOL     OW10270   8.788   7.723   6.796 -0.3569 -0.3187 -0.7329
34407SOL    HW110271   8.702   7.716   6.837 -0.3330  0.0306 -0.6266
34407SOL    HW210272   8.788   7.809   6.754  0.9510  0.9008  1.5847
34408SOL     OW10273   3.204   0.502   4.193  0.0668  0.1289 -0.1081
34408SOL    HW110274   3.275   0.446   4.225 -0.0397 -1.3392 -2.2108
34408SOL    HW210275   3.140   0.441   4.157 -1.3935  1.5165  0.0520
34409SOL     OW10276   4.238   4.551   4.831  0.0007 -0.6851  0.4170
34409SOL    HW110277   4.148   4.579   4.814  0.0241 -1.2682 -0.7491
34409SOL    HW210278   4.279   4.547   4.744  1.5325  0.7600  1.0062
34410SOL     OW10279   3.755  10.224  10.966 -0.3383 -0.6829  0.0336
34410SOL    HW110280   3.768  10.154  10.902  1.6445  0.4650 -0.8943
34410SOL    HW210281   3.745  10.303  10.914  0.6820  0.1907  1.0992
34411SOL     OW10282  11.874   5.315   3.608  0.6765  0.1890  0.2013
34411SOL    HW110283  11.897   5.264   3.531  1.3437  1.0069 -0.1538
34411SOL    HW210284  11.877   5.252   3.680  0.2703 -0.5275 -0.3981
34412SOL     OW10285   6.453  10.209   8.364 -0.1051 -0.6749  0.4170
34412SOL    HW110286   6.517  10.140   8.348  2.1547  1.4860 -0.5434
34412SOL    HW210287   6.475  10.277   8.300 -2.8074  0.5726  0.6897
34413SOL     OW10288   9.847  10.793   4.902 -0.2113 -0.2308  0.3531
34413SOL    HW110289   9.763  10.795   4.857 -1.0282 -0.3672  1.8177
34413SOL    HW210290   9.885  10.708   4.877 -1.1128 -0.7546  0.7006
34414SOL     OW10291  11.168   6.773   5.666 -0.4112  0.1061 -0.0829
34414SOL    HW110292  11.089   6.783   5.613 -1.0651 -2.1557  0.3862
34414SOL    HW210293  11.138   6.732   5.746  1.1422 -0.0049  0.4645
34415SOL     OW10294   6.016   6.988   0.107 -0.7142 -0.5397  0.0404
34415SOL    HW110295   5.991   7.017   0.195  0.5649 -0.6119  0.4469
34415SOL    HW210296   6.062   7.063   0.069 -0.7031 -0.7330 -0.3311
34416SOL     OW10297   7.178  12.466   0.738 -0.1374  0.2415  0.1021
34416SOL    HW110298   7.264  12.425   0.747  0.0166  0.1991 -1.2759
34416SOL    HW210299   7.117  12.403   0.776  0.4849  0.5633  1.7084
34417SOL     OW10300  12.250   3.269   2.084  0.0970 -0.3123  0.2940
34417SOL    HW110301  12.287   3.299   2.167  0.6883 -1.7226  0.5700
34417SOL    HW210302  12.157   3.256   2.102  0.4317 -1.8323  1.1515
34418SOL     OW10303   9.652   2.418   9.352 -0.3362 -0.1680 -0.4049
34418SOL    HW110304   9.566   2.445   9.384 -1.1743 -1.2693 -1.6125
34418SOL    HW210305   9.664   2.330   9.388 -0.9698 -1.1291 -2.4372
34419SOL     OW10306   2.827   9.382   3.029 -0.0355 -0.1695  0.2722
34419SOL    HW110307   2.797   9.356   3.116 -0.5575 -0.7781 -0.0758
34419SOL    HW210308   2.757   9.352   2.970  0.7916 -0.7106 -0.4596
34420SOL     OW10309   3.118   3.985  10.813 -0.2838 -0.1543 -0.3348
34420SOL    HW110310   3.118   4.044  10.889  1.2761  1.0692 -1.2190
34420SOL    HW210311   3.039   3.932  10.824 -0.3757  0.3315  1.8602
34421SOL     OW10312   7.144   2.790   5.821  0.0869  0.3257  0.5166
34421SOL    HW110313   7.166   2.789   5.728  0.5605  1.1981  0.6089
34421SOL    HW210314   7.091   2.711   5.834  2.0615 -1.1601  0.0155
34422SOL     OW10315   0.994  10.034   7.222  0.3455 -0.2079  0.0957
34422SOL    HW110316   0.963  10.124   7.213 -0.2409 -0.2733  1.2596
34422SOL    HW210317   1.014  10.024   7.315  1.3656 -0.9839 -0.1843
34423SOL     OW10318  11.352  10.935   6.421  0.3364 -0.2535 -0.6689
34423SOL    HW110319  11.382  10.978   6.341  0.2722 -1.1203 -1.1769
34423SOL    HW210320  11.355  10.842   6.400 -0.0285 -0.4763  0.2256
34424SOL     OW10321  10.222   3.610   7.273 -0.0857 -0.5595  0.3445
34424SOL    HW110322  10.221   3.610   7.368 -1.2110 -1.7763  0.3661
34424SOL    HW210323  10.307   3.572   7.249 -0.2564 -1.3098  0.8912
34425SOL     OW10324   2.716   3.920   7.304 -0.4977  0.2686 -0.4549
34425SOL    HW110325   2.805   3.956   7.297 -0.2161 -0.2894  0.1547
34425SOL    HW210326   2.727   3.840   7.356 -1.5517  0.8424  0.6620
34426SOL     OW10327   6.703   9.412   9.030 -0.3796  0.0433  0.1465
34426SOL    HW110328   6.647   9.337   9.051 -1.7114  0.5411 -1.3864
34426SOL    HW210329   6.643   9.487   9.029  0.4033  0.6790 -1.0787
34427SOL     OW10330   5.131   6.764   1.324  0.8899  0.6213  0.7458
34427SOL    HW110331   5.082   6.820   1.265  0.4759 -0.0329  0.4642
34427SOL    HW210332   5.072   6.747   1.397  0.7348 -0.0715  0.4632
34428SOL     OW10333  12.306   0.161   8.953  0.4453  0.7155  0.0491
34428SOL    HW110334  12.382   0.212   8.978  0.8403 -0.7899  2.2449
34428SOL    HW210335  12.302   0.090   9.018 -1.8747 -0.1999 -0.9616
34429SOL     OW10336   4.557   9.995  12.101 -0.0722 -0.3547  0.0654
34429SOL    HW110337   4.631   9.969  12.156 -0.7479 -1.1443  0.6406
34429SOL    HW210338   4.540   9.919  12.046 -3.2333 -2.1192  3.0300
34430SOL     OW10339   1.050   7.133  10.988 -0.8710 -0.3204 -0.1903
34430SOL    HW110340   0.959   7.162  10.982 -0.5285  0.5467 -1.5620
34430SOL    HW210341   1.082   7.135  10.898 -0.0449 -2.5195 -0.0246
34431SOL     OW10342  12.025  11.320  12.215  0.1126  0.2669  0.4902
34431SOL    HW110343  12.031  11.322  12.311 -0.9013 -0.5499  0.5917
34431SOL    HW210344  11.931  11.316  12.198  0.3277 -1.4091 -0.4770
34432SOL     OW10345   1.484  11.144   7.075 -0.4423 -0.7469 -0.2585
34432SOL    HW110346   1.523  11.215   7.024 -1.8893  0.5198  0.3097
34432SOL    HW210347   1.485  11.069   7.015  0.9296 -0.2172 -0.9514
34433SOL     OW10348   6.193   1.871  10.841 -0.4520 -0.0840 -0.0061
34433SOL    HW110349   6.150   1.861  10.926 -1.1877  1.6047 -0.1496
34433SOL    HW210350   6.123   1.895  10.781  0.2906  0.1587 -0.7904
34434SOL     OW10351   7.164   8.506   2.536 -0.0253  0.0400  0.2746
34434SOL    HW110352   7.203   8.426   2.571  0.6531 -0.2321 -1.0248
34434SOL    HW210353   7.091   8.476   2.482 -0.9554  0.4412  1.2734
34435SOL     OW10354   9.826   4.086   2.251  0.7251  0.8015 -0.6717
34435SOL    HW110355   9.839   4.033   2.329  1.0873  0.9277 -0.6447
34435SOL    HW210356   9.909   4.133   2.240  1.4785 -0.8181 -2.3782
34436SOL     OW10357   6.012   8.820   2.137  0.0608 -0.3319  0.4989
34436SOL    HW110358   6.087   8.816   2.197  1.6147 -0.1746 -1.3425
34436SOL    HW210359   6.039   8.770   2.061 -1.0918  1.0383 -0.8800
34437SOL     OW10360   8.233   9.706   9.183 -0.5395  0.4893 -0.3154
34437SOL    HW110361   8.253   9.749   9.100 -1.5079  1.0216 -0.2878
34437SOL    HW210362   8.191   9.623   9.157 -0.1344  0.2950 -0.3561
34438SOL     OW10363   3.542   5.580  12.426 -0.1761  0.4301  0.2184
34438SOL    HW110364   3.498   5.569  12.342 -0.9296  0.3693  0.6090
34438SOL    HW210365   3.591   5.499  12.439  1.6935  1.2907 -1.1460
34439SOL     OW10366   7.019   3.947  12.564  0.1729 -0.5395 -0.4284
34439SOL    HW110367   6.951   3.882  12.582 -0.3128  0.3428  1.1141
34439SOL    HW210368   7.034   3.940  12.469 -1.0881 -1.6908 -0.5796
34440SOL     OW10369   2.462   6.908  11.942  0.1769 -0.1333  0.0600
34440SOL    HW110370   2.375   6.887  11.909  0.5951 -0.6000 -0.7761
34440SOL    HW210371   2.456   6.894  12.037 -0.7153  0.0887  0.0460
34441SOL     OW10372   9.522   1.812   7.978  0.0970  0.4346 -0.3452
34441SOL    HW110373   9.530   1.730   8.026  0.8886  1.5228  1.4795
34441SOL    HW210374   9.583   1.804   7.905 -0.0478 -0.7005 -0.3498
34442SOL     OW10375   7.613   2.620  10.869  0.0695 -0.2195 -0.1304
34442SOL    HW110376   7.523   2.643  10.845  0.3086  1.7669  0.6495
34442SOL    HW210377   7.611   2.525  10.881 -1.7816 -0.2971 -0.6802
34443SOL     OW10378   9.052   8.089  10.440  0.2615  0.2382  0.1577
34443SOL    HW110379   8.990   8.063  10.372  1.6008  0.3909 -1.1795
34443SOL    HW210380   9.090   8.006  10.471 -0.7998  0.1214  1.1993
34444SOL     OW10381   8.479   7.759   3.791  0.4863  0.2694  0.0616
34444SOL    HW110382   8.533   7.812   3.849  0.1960  0.5642  0.0652
34444SOL    HW210383   8.515   7.773   3.704  1.0339 -0.3100  0.1895
34445SOL     OW10384   8.399   1.184  11.882  0.5548 -0.0382  0.0599
34445SOL    HW110385   8.457   1.252  11.847 -1.0135  0.4780 -1.6933
34445SOL    HW210386   8.393   1.119  11.812 -1.4134  0.2227 -0.0755
34446SOL     OW10387   9.231   5.424   0.315 -0.0204 -0.3025 -0.5117
34446SOL    HW110388   9.180   5.483   0.259 -0.0593  0.5749  0.3960
34446SOL    HW210389   9.306   5.477   0.342  0.3980 -0.9671 -0.3578
34447SOL     OW10390   5.570   8.477   0.307  0.4380  0.2063 -0.1749
34447SOL    HW110391   5.650   8.523   0.334  2.2150 -1.5830 -1.9777
34447SOL    HW210392   5.527   8.538   0.247 -0.3271  1.7232  1.8234
34448SOL     OW10393   0.239   4.209   9.334 -0.4507 -0.1824 -0.0501
34448SOL    HW110394   0.145   4.205   9.313 -1.0056  0.1474  2.1086
34448SOL    HW210395   0.282   4.218   9.249 -2.1851 -2.6537 -1.3207
34449SOL     OW10396   9.222   3.452   7.803  0.0211  0.2004 -0.0555
34449SOL    HW110397   9.241   3.431   7.894 -1.2399  1.4165  0.5179
34449SOL    HW210398   9.274   3.530   7.784 -1.2239  1.1325  0.2660
34450SOL     OW10399   0.524   4.905  11.325  0.3193 -0.2974  0.2490
34450SOL    HW110400   0.475   4.938  11.250  1.0572  1.7731  0.5932
34450SOL    HW210401   0.459   4.897  11.395 -0.2361 -1.5593 -0.3875
34451SOL     OW10402  10.398   9.366  11.070  0.0164  0.1245 -0.0560
34451SOL    HW110403  10.414   9.272  11.074 -0.4036  0.0201 -0.6069
34451SOL    HW210404  10.370   9.390  11.158  0.0575 -0.2777  0.0658
34452SOL     OW10405   6.376   2.825   4.758 -1.6439 -0.0515  0.1809
34452SOL    HW110406   6.429   2.878   4.817 -0.6073 -1.5950  0.7231
34452SOL    HW210407   6.440   2.785   4.699 -2.4659 -0.1033 -0.6966
34453SOL     OW10408   2.846   3.076   2.477  0.1565 -0.0123  0.5680
34453SOL    HW110409   2.850   3.167   2.447 -0.5424  0.0875  0.7553
34453SOL    HW210410   2.799   3.030   2.408  1.6577 -0.5126 -0.1534
34454SOL     OW10411   1.587   6.866   3.898  0.2746 -0.5382  0.5944
34454SOL    HW110412   1.596   6.938   3.836  1.2762 -0.9431  0.2440
34454SOL    HW210413   1.500   6.831   3.882  1.2970 -2.0966 -2.2549
34455SOL     OW10414   3.865   8.849   0.321  0.6281  0.2133 -0.2409
34455SOL    HW110415   3.815   8.881   0.396 -1.1641 -0.5069 -1.0649
34455SOL    HW210416   3.873   8.925   0.263 -1.2607 -0.0884 -0.9704
34456SOL     OW10417   4.563   2.733   1.656  0.1840 -0.8393  0.0200
34456SOL    HW110418   4.473   2.761   1.676  0.1490 -1.0566  0.1712
34456SOL    HW210419   4.556   2.688   1.572  0.3165  0.0064 -0.4519
34457SOL     OW10420   7.024   3.310   1.473  0.6039  0.0219  0.9742
34457SOL    HW110421   7.026   3.339   1.564  2.2957 -0.8775  1.2729
34457SOL    HW210422   7.051   3.386   1.422 -1.5909  0.9191  1.0510
34458SOL     OW10423   9.830   9.059  10.583  0.0721 -0.0130  0.1213
34458SOL    HW110424   9.770   9.127  10.613 -0.4991 -0.8333  0.8882
34458SOL    HW210425   9.880   9.035  10.661 -2.0787 -2.8489  0.7979
34459SOL     OW10426   8.233   4.982   3.999  0.3677 -0.3268  0.6749
34459SOL    HW110427   8.306   4.976   3.937  2.1574  0.3554  2.5855
34459SOL    HW210428   8.233   5.074   4.027 -0.4174 -0.6075  1.6389
34460SOL     OW10429  10.535   9.044  11.999  0.2977  0.1274 -0.6143
34460SOL    HW110430  10.568   9.125  11.958 -0.1071  1.5532  1.7189
34460SOL    HW210431  10.612   9.005  12.040  0.3067 -0.1379 -0.8807
34461SOL     OW10432  10.906   5.279   7.471 -0.1068  0.3234 -0.1661
34461SOL    HW110433  10.827   5.267   7.524 -0.2942 -1.2454 -0.7544
34461SOL    HW210434  10.891   5.226   7.393  1.2491  0.5438 -0.6016
34462SOL     OW10435   6.909   7.721   2.515  0.3195 -0.5291  0.4195
34462SOL    HW110436   7.004   7.724   2.505  0.3875  0.2796  1.1576
34462SOL    HW210437   6.892   7.636   2.555  0.5143 -1.5483 -1.5127
34463SOL     OW10438   2.679   3.613   1.931  0.7881 -0.1503 -0.1865
34463SOL    HW110439   2.695   3.549   1.862 -0.9671 -2.3870  1.3214
34463SOL    HW210440   2.731   3.583   2.005  1.0481  1.0123  0.1216
34464SOL     OW10441   6.689   2.174   9.814 -0.1024 -0.2216  0.3388
34464SOL    HW110442   6.659   2.128   9.892 -0.0079 -2.8623 -1.0631
34464SOL    HW210443   6.609   2.210   9.775 -0.3861 -0.4419  0.7144
34465SOL     OW10444   9.162   5.442   8.777  0.0103 -0.0982  0.5004
34465SOL    HW110445   9.240   5.398   8.813 -0.0839 -0.2634  0.5049
34465SOL    HW210446   9.105   5.370   8.750 -0.5581  0.0009  1.3707
34466SOL     OW10447   0.199   1.722  11.275 -0.6094  0.2436  0.1456
34466SOL    HW110448   0.126   1.724  11.338 -1.2699 -2.1172 -0.4505
34466SOL    HW210449   0.266   1.668  11.317  0.3188  1.3586  0.1516
34467SOL     OW10450   5.817   4.282   1.151  0.3718  0.2827 -0.4067
34467SOL    HW110451   5.898   4.256   1.194 -0.6837 -0.2250  1.4214
34467SOL    HW210452   5.782   4.352   1.206 -0.3876  0.5510 -1.1981
34468SOL     OW10453   0.032   1.186  11.837  0.0865 -0.0312  0.1572
34468SOL    HW110454   0.019   1.215  11.927  0.0181 -0.1365  0.1805
34468SOL    HW210455  -0.043   1.221  11.789 -0.4637 -0.9309  0.3574
34469SOL     OW10456   9.807   1.940   2.299 -0.7582  0.1361  0.0343
34469SOL    HW110457   9.897   1.943   2.333  0.5077  1.6604 -3.0713
34469SOL    HW210458   9.805   1.861   2.245 -1.3903 -0.0225  0.2830
34470SOL     OW10459   5.054  10.816   8.480  0.1318  0.4392  0.2682
34470SOL    HW110460   5.058  10.910   8.463 -0.8935  0.6456  1.0722
34470SOL    HW210461   4.965  10.800   8.510  0.5339 -0.6477  0.9674
34471SOL     OW10462  10.745   9.343   2.675  0.1573 -0.0345 -0.2225
34471SOL    HW110463  10.837   9.356   2.694  0.2101 -1.3883  0.5552
34471SOL    HW210464  10.704   9.330   2.761 -0.6247 -0.1905 -0.6059
34472SOL     OW10465   0.083   0.378  12.581  0.2571 -0.4503  0.2576
34472SOL    HW110466   0.067   0.290  12.545 -0.9441 -0.3311  0.4769
34472SOL    HW210467   0.171   0.400  12.550  0.8684 -2.0062  0.7616
34473SOL     OW10468   1.092  11.161   6.670 -0.1831 -0.1737  0.8414
34473SOL    HW110469   1.045  11.148   6.752 -1.9838 -0.6016 -0.2097
34473SOL    HW210470   1.138  11.245   6.681 -2.1070  0.8380  1.5179
34474SOL     OW10471   0.840  12.133   6.443 -0.7472  0.2911 -0.2978
34474SOL    HW110472   0.845  12.038   6.452 -1.8026  0.3545  1.3853
34474SOL    HW210473   0.850  12.149   6.349  2.1566 -1.2491 -0.3759
34475SOL     OW10474   0.330   9.538   6.750  0.2305 -0.0537  0.6998
34475SOL    HW110475   0.282   9.460   6.722  0.2424  0.8097 -2.0607
34475SOL    HW210476   0.274   9.611   6.724  0.7794  0.8869  2.0770
34476SOL     OW10477   4.645   6.775   5.402  0.2023  0.2014 -0.1094
34476SOL    HW110478   4.564   6.812   5.368  0.0428  0.5285  0.6193
34476SOL    HW210479   4.663   6.824   5.482  0.9420 -0.0916 -0.0854
34477SOL     OW10480   6.283   4.627   4.746  0.8711  0.1715  0.0365
34477SOL    HW110481   6.222   4.572   4.795  1.3358  0.0484  0.4960
34477SOL    HW210482   6.326   4.567   4.685  0.4615  0.2788 -0.3602
34478SOL     OW10483  12.077   9.641   2.696 -0.0251  0.3614 -0.0632
34478SOL    HW110484  12.086   9.636   2.791 -0.9306 -0.9112 -0.0283
34478SOL    HW210485  12.123   9.564   2.664 -1.5193 -0.3832 -0.5032
34479SOL     OW10486   1.617   3.202   1.601  0.3402  0.0602  0.2382
34479SOL    HW110487   1.705   3.179   1.572  2.0950  1.3344  3.9082
34479SOL    HW210488   1.579   3.119   1.630  0.4763 -0.4309 -0.9350
34480SOL     OW10489   4.710  11.378  10.879  0.1804  0.4213  0.0623
34480SOL    HW110490   4.778  11.421  10.931  0.4226  0.2110 -0.0790
34480SOL    HW210491   4.758  11.321  10.819 -0.1467 -0.1988  0.3810
34481SOL     OW10492   3.293   9.887  11.569 -0.2673 -0.7990  0.0338
34481SOL    HW110493   3.209   9.928  11.591 -0.9513 -0.7537 -2.3615
34481SOL    HW210494   3.312   9.919  11.481  3.2439  0.6797  1.1539
34482SOL     OW10495  11.882   6.872   1.554 -0.0090  0.3694 -0.2561
34482SOL    HW110496  11.901   6.798   1.613 -0.3723  1.2920  1.0633
34482SOL    HW210497  11.933   6.945   1.591  3.6030 -0.0243 -3.7662
34483SOL     OW10498   5.992   0.637   0.186  0.0048  0.3698 -0.0073
34483SOL    HW110499   5.923   0.603   0.243  1.6163 -0.3609  1.6333
34483SOL    HW210500   6.027   0.712   0.234  0.3337  0.7465 -0.8238
34484SOL     OW10501   8.613   1.249   9.415  0.0400 -0.9692  0.5157
34484SOL    HW110502   8.553   1.216   9.348  0.7818 -0.2541 -0.5369
34484SOL    HW210503   8.612   1.344   9.403  0.2822 -0.8383  1.4547
34485SOL     OW10504   2.663   2.711   0.131  0.2414  0.0038  0.4265
34485SOL    HW110505   2.655   2.746   0.042  1.4804  0.0511  0.3191
34485SOL    HW210506   2.757   2.704   0.146  0.0856 -3.0490  0.5496
34486SOL     OW10507   0.645   1.656   8.660  0.0672 -0.0868  0.2245
34486SOL    HW110508   0.622   1.742   8.624  0.4592 -0.0051  0.1545
34486SOL    HW210509   0.739   1.664   8.679  0.0451 -0.4142  0.4625
34487SOL     OW10510   8.161   5.976  10.368  0.0176  0.0787 -0.3369
34487SOL    HW110511   8.244   5.982  10.321  0.5035 -0.5319  0.4254
34487SOL    HW210512   8.174   6.030  10.446  0.2275 -1.1610  0.5196
34488SOL     OW10513   6.558   9.041   1.342 -0.4215  0.0368 -0.3031
34488SOL    HW110514   6.518   9.093   1.412 -1.0468 -1.1479  0.2541
34488SOL    HW210515   6.592   8.963   1.386  0.3696 -0.1055 -1.1367
34489SOL     OW10516   3.585  10.723  11.908 -0.2576  0.3247 -0.2463
34489SOL    HW110517   3.663  10.709  11.962 -0.4663 -0.8223 -0.2151
34489SOL    HW210518   3.523  10.765  11.968 -0.4485 -0.8336  0.4093
34490SOL     OW10519  12.000  12.470   4.082  0.2077 -0.3860 -0.2467
34490SOL    HW110520  12.003  12.382   4.119 -0.4595 -0.6310 -0.7597
34490SOL    HW210521  11.910  12.481   4.052  0.6775 -0.1513 -1.6703
34491SOL     OW10522   1.056   2.791   6.922 -0.5999  0.2934  0.2171
34491SOL    HW110523   1.093   2.732   6.857  1.7251  1.1359  0.6736
34491SOL    HW210524   1.041   2.737   6.999  1.0512  0.1385  0.4716
34492SOL     OW10525   3.826   5.744   3.122  0.1691 -0.3073  0.0565
34492SOL    HW110526   3.774   5.776   3.047  0.0601 -2.5398 -0.8875
34492SOL    HW210527   3.917   5.754   3.094  0.2596  1.7126  0.9068
34493SOL     OW10528   0.085   2.641   0.085  0.0789  0.2283  0.3548
34493SOL    HW110529   0.136   2.720   0.066  1.3155 -0.5287  0.4116
34493SOL    HW210530   0.081   2.638   0.180  0.8725 -0.2816  0.3788
34494SOL     OW10531   9.707  11.015  11.405 -0.4461  0.3944  0.0417
34494SOL    HW110532   9.800  10.996  11.398 -0.5417 -0.4170  0.9484
34494SOL    HW210533   9.697  11.058  11.490 -1.1830 -1.4399  0.9436
34495SOL     OW10534   9.630  10.819   7.276  0.1177  0.0903  0.3556
34495SOL    HW110535   9.658  10.795   7.188 -3.3120 -1.5561 -0.4252
34495SOL    HW210536   9.702  10.789   7.332  0.5344 -2.8454 -1.5279
34496SOL     OW10537   7.183   5.266   6.813 -0.4319 -0.6296  0.1594
34496SOL    HW110538   7.142   5.196   6.764  1.6391 -0.3811 -2.1415
34496SOL    HW210539   7.184   5.341   6.753  0.4737  0.3083  1.2730
34497SOL     OW10540   3.042  11.517   0.603 -0.5289 -0.2439 -0.3340
34497SOL    HW110541   3.034  11.500   0.509  2.7384 -0.0994 -0.7259
34497SOL    HW210542   3.136  11.526   0.619 -1.0585  1.4528  2.6718
34498SOL     OW10543   2.772   5.138   8.808 -0.3650 -0.0799 -0.4586
34498SOL    HW110544   2.686   5.144   8.849 -0.0965 -1.6985  0.4248
34498SOL    HW210545   2.834   5.150   8.881  0.1447 -0.1030 -0.8798
34499SOL     OW10546   4.235   4.002   4.640  0.5631  0.0022  0.1887
34499SOL    HW110547   4.198   4.032   4.723  0.1217 -0.9391  0.3405
34499SOL    HW210548   4.292   4.074   4.612  0.8180  0.2850  1.3682
34500SOL     OW10549  11.405   8.649   0.144  0.0167 -0.0395  0.0027
34500SOL    HW110550  11.424   8.743   0.136 -1.2520  0.2751  0.5037
34500SOL    HW210551  11.398   8.618   0.053 -0.2710  0.5103 -0.1667
34501SOL     OW10552   3.061  11.850   4.121 -0.1803 -0.2036 -0.2456
34501SOL    HW110553   3.030  11.926   4.071 -0.6287  0.3338  0.8171
34501SOL    HW210554   3.057  11.878   4.212 -0.9412 -1.7165  0.2198
34502SOL     OW10555   3.757  10.059   9.985 -0.4136  0.3280  0.1858
34502SOL    HW110556   3.673  10.099  10.009 -0.5338 -1.3244  2.9793
34502SOL    HW210557   3.754   9.972  10.024  2.1976 -0.1772 -0.5617
34503SOL     OW10558  10.012  11.929   0.028 -0.4390  0.0953  0.0578
34503SOL    HW110559  10.076  11.869  -0.010  1.5037  1.9000  0.2687
34503SOL    HW210560   9.979  11.980  -0.046  2.1677  2.5282  0.4104
34504SOL     OW10561   3.270  11.482  12.512  0.5154 -0.6191 -0.3925
34504SOL    HW110562   3.365  11.492  12.520  0.2891  0.3861  1.7725
34504SOL    HW210563   3.247  11.415  12.575 -0.4047  0.6317  0.6609
34505SOL     OW10564   6.561   3.119   9.614  0.1899  0.7635  0.3450
34505SOL    HW110565   6.508   3.044   9.587  1.2692 -0.3042  1.1131
34505SOL    HW210566   6.549   3.184   9.544 -1.4955  0.2594  0.1213
34506SOL     OW10567   1.897  12.265   1.271 -0.7201  1.0478 -0.2045
34506SOL    HW110568   1.978  12.226   1.303 -0.0918  1.8586 -0.7637
34506SOL    HW210569   1.882  12.223   1.186 -0.6963  1.1533 -0.2607
34507SOL     OW10570   5.903   1.657   2.468 -0.3374 -0.1876 -0.5475
34507SOL    HW110571   5.840   1.714   2.425 -0.8393 -0.0796  0.3011
34507SOL    HW210572   5.979   1.656   2.410 -0.7469  0.4573 -1.1056
34508SOL     OW10573   8.730   5.480   9.968 -0.1780 -0.0575 -0.2868
34508SOL    HW110574   8.780   5.525  10.035 -0.4314 -0.1170 -0.0569
34508SOL    HW210575   8.772   5.505   9.885 -0.6420  1.0222 -0.2057
34509SOL     OW10576   4.560   9.289   8.768 -1.0166  0.8778  0.1499
34509SOL    HW110577   4.606   9.325   8.693  0.1097 -1.3171 -0.3007
34509SOL    HW210578   4.606   9.325   8.844  0.2127  0.2550 -0.2764
34510SOL     OW10579   4.628   7.295   9.857 -0.0459  0.0547 -0.6218
34510SOL    HW110580   4.577   7.334   9.787  2.3876  3.4133 -0.7504
34510SOL    HW210581   4.600   7.341   9.936  0.7955 -0.0475 -0.2484
34511SOL     OW10582   0.373   9.659   1.301  0.3456 -0.1437  0.5382
34511SOL    HW110583   0.308   9.633   1.237 -1.0645 -1.7701  2.5109
34511SOL    HW210584   0.429   9.582   1.312  0.8651  0.2757  0.9245
34512SOL     OW10585   0.985   1.447  11.203  0.0232 -0.2397 -0.1868
34512SOL    HW110586   0.955   1.533  11.229  1.8930  0.3457  0.2000
34512SOL    HW210587   0.918   1.415  11.142 -2.5424 -0.0703  2.3429
34513SOL     OW10588   7.108   7.953   8.961  0.2230 -0.3077 -0.0052
34513SOL    HW110589   7.084   7.943   9.053  2.0184  1.3326  0.6929
34513SOL    HW210590   7.203   7.958   8.961  0.2165  0.7078 -1.8580
34514SOL     OW10591  12.237  10.431  10.910 -0.0108 -0.1337  0.4698
34514SOL    HW110592  12.290  10.509  10.899 -0.9344  0.2489 -1.6482
34514SOL    HW210593  12.165  10.459  10.966 -0.1208  0.4319  0.0524
34515SOL     OW10594   1.320   6.313  11.727 -0.2055  0.1889  0.8896
34515SOL    HW110595   1.287   6.224  11.722  2.5272 -1.0420  2.4995
34515SOL    HW210596   1.280   6.349  11.807 -2.1963  0.8872 -0.3618
34516SOL     OW10597   2.590   0.411   1.304 -0.1744  0.9077  0.1649
34516SOL    HW110598   2.611   0.386   1.394  2.6489 -0.0221 -0.6346
34516SOL    HW210599   2.507   0.458   1.311  0.2843  1.5019  3.3346
34517SOL     OW10600   5.404   1.666   4.081  0.0572  0.0143  0.1720
34517SOL    HW110601   5.339   1.599   4.102  0.0513 -0.1628 -0.4001
34517SOL    HW210602   5.478   1.647   4.137  1.0061 -1.9168 -1.6133
34518SOL     OW10603  10.302   0.563  11.474  0.6280 -0.6418 -0.2325
34518SOL    HW110604  10.282   0.655  11.490  1.0827 -0.2993 -1.4955
34518SOL    HW210605  10.359   0.538  11.547 -0.9778 -0.4775  1.1304
34519SOL     OW10606   6.715   7.094   6.083 -0.4652  0.0439  0.0721
34519SOL    HW110607   6.663   7.128   6.156 -0.8812  2.1541 -1.1167
34519SOL    HW210608   6.774   7.166   6.060  3.5004 -2.3999  1.6486
34520SOL     OW10609  10.296   5.931   9.462 -0.3384 -0.8450 -0.1027
34520SOL    HW110610  10.338   5.995   9.519  0.6295 -1.0376 -0.5897
34520SOL    HW210611  10.361   5.862   9.451 -0.4004 -0.6927 -1.6604
34521SOL     OW10612   6.661   5.522   3.897  0.0623 -0.0197  0.4239
34521SOL    HW110613   6.692   5.528   3.807  1.8253 -0.8838  0.9101
34521SOL    HW210614   6.617   5.437   3.902 -0.3744  0.1987  0.2840
34522SOL     OW10615   3.479  10.330   4.843  0.2400  0.1728 -0.4903
34522SOL    HW110616   3.516  10.341   4.756  1.4693 -2.9027 -0.4851
34522SOL    HW210617   3.387  10.306   4.828  0.5279 -0.6632 -0.9910
34523SOL     OW10618   2.955  10.545   2.286 -0.3383  0.5968 -0.2236
34523SOL    HW110619   2.973  10.638   2.299  0.7702  0.3431  0.2088
34523SOL    HW210620   3.030  10.513   2.236  0.5148 -0.5256  1.6563
34524SOL     OW10621   4.482   1.918   1.812  0.3374  0.1001 -0.0268
34524SOL    HW110622   4.544   1.978   1.770  0.6338  1.7495  2.5271
34524SOL    HW210623   4.522   1.832   1.804  0.3580  0.2817 -2.9987
34525SOL     OW10624   8.084   1.211   6.827  0.1459  0.4719  0.4089
34525SOL    HW110625   8.007   1.226   6.881 -0.8464  0.7355 -1.0394
34525SOL    HW210626   8.053   1.158   6.754  2.1312 -2.9373  1.7648
34526SOL     OW10627   8.390   9.158   3.664  0.3416 -0.4510 -0.1502
34526SOL    HW110628   8.309   9.140   3.616  0.2057 -2.3133  0.6938
34526SOL    HW210629   8.455   9.172   3.596 -0.0961 -1.8482 -0.9130
34527SOL     OW10630   2.443   1.807   6.270 -0.3319  0.3630 -0.2259
34527SOL    HW110631   2.507   1.749   6.311 -2.0204 -1.2986  0.2049
34527SOL    HW210632   2.452   1.890   6.317  0.1614 -0.4397  1.1628
34528SOL     OW10633   2.004   9.272   3.564 -0.3500  0.4068  0.1499
34528SOL    HW110634   1.919   9.304   3.593 -0.4582 -0.8442  1.2684
34528SOL    HW210635   2.015   9.188   3.607  1.9262  1.0057  0.8930
34529SOL     OW10636   7.140   1.552  10.079 -0.1831 -0.1308  0.0492
34529SOL    HW110637   7.221   1.601  10.063  0.0825  0.1608  2.0058
34529SOL    HW210638   7.151   1.517  10.167 -2.0655 -0.3525  0.2241
34530SOL     OW10639   1.511   2.552   7.731 -0.5034  0.1245 -0.0763
34530SOL    HW110640   1.563   2.625   7.696  0.3710  0.0588  1.0158
34530SOL    HW210641   1.475   2.508   7.654  3.2660 -1.4719 -1.1277
34531SOL     OW10642  10.582  11.944   6.088  0.4403  0.5468 -0.4949
34531SOL    HW110643  10.555  12.028   6.123  1.6537  1.0975 -0.8271
34531SOL    HW210644  10.668  11.928   6.127 -0.1001 -0.9125  0.1695
34532SOL     OW10645   4.868  11.204  11.867 -0.2715  0.7205  0.2439
34532SOL    HW110646   4.960  11.223  11.847 -0.0803 -0.3695 -0.0010
34532SOL    HW210647   4.846  11.130  11.810 -1.4367  1.2429 -0.0086
34533SOL     OW10648   4.192   4.299  12.449  0.7281  0.2334  0.3285
34533SOL    HW110649   4.181   4.316  12.355  0.4065 -0.3193  0.2624
34533SOL    HW210650   4.284   4.278  12.459  1.2942  2.5261  0.5016
34534SOL     OW10651   5.778   8.307   5.995 -0.6925  0.1498 -0.2393
34534SOL    HW110652   5.840   8.374   5.967  1.5430 -0.2431  3.0594
34534SOL    HW210653   5.781   8.241   5.926  3.7527 -0.4628  0.2392
34535SOL     OW10654   7.363   0.145   4.145 -0.1361 -0.2216  0.4653
34535SOL    HW110655   7.331   0.160   4.234  0.2219  2.2756  0.2530
34535SOL    HW210656   7.287   0.115   4.097 -1.2111  1.6253  0.9116
34536SOL     OW10657   5.487   5.316   5.220 -0.4459  0.4287 -0.1200
34536SOL    HW110658   5.558   5.260   5.190 -0.3869  0.5031 -0.1183
34536SOL    HW210659   5.425   5.318   5.147  0.1785  1.4451 -0.6503
34537SOL     OW10660   0.207  10.036  10.524 -0.7607 -0.5962  0.0323
34537SOL    HW110661   0.237   9.967  10.583 -1.5051 -0.2651  0.8135
34537SOL    HW210662   0.285  10.090  10.508 -1.5092  2.8783  5.5192
34538SOL     OW10663   8.892   2.465   8.393  0.0269  0.2501  0.3123
34538SOL    HW110664   8.972   2.503   8.356  0.4796 -0.3913  0.6247
34538SOL    HW210665   8.847   2.427   8.317 -0.2183  1.0008  0.0643
34539SOL     OW10666  10.601   6.428   7.306 -0.0321  0.2359 -0.6228
34539SOL    HW110667  10.645   6.471   7.379 -1.6570 -0.1780  0.6631
34539SOL    HW210668  10.636   6.471   7.228  3.2691 -0.6582  0.2070
34540SOL     OW10669   3.809   0.149   7.608 -0.4818  0.9909  0.3079
34540SOL    HW110670   3.771   0.237   7.608 -2.7295  0.1195 -1.1518
34540SOL    HW210671   3.757   0.101   7.671 -0.6464  0.2029 -0.4143
34541SOL     OW10672   3.492   3.657   9.454 -0.3685 -0.4746 -0.1581
34541SOL    HW110673   3.397   3.646   9.467 -0.5086  0.5226 -0.2802
34541SOL    HW210674   3.518   3.579   9.405 -0.9170 -1.3275  0.8594
34542SOL     OW10675  12.531   4.398   6.395  0.4995 -0.4587 -1.0877
34542SOL    HW110676  12.456   4.338   6.399 -1.6583  2.0711 -1.0444
34542SOL    HW210677  12.565   4.399   6.484 -1.2220  0.4556 -0.4013
34543SOL     OW10678  12.563   5.980   5.535  0.4544 -0.5106 -0.2316
34543SOL    HW110679  12.594   6.070   5.530  0.8653 -0.6788 -1.1355
34543SOL    HW210680  12.474   5.986   5.570  1.7470 -0.0684  3.4154
34544SOL     OW10681  10.937   9.530  10.989  0.0969  0.2368  0.3039
34544SOL    HW110682  10.973   9.580  11.062  1.4741 -0.2084 -0.0346
34544SOL    HW210683  11.010   9.474  10.961  0.1417  1.5412 -2.4304
34545SOL     OW10684   2.267  11.549   7.764  0.4811 -0.1356  0.1331
34545SOL    HW110685   2.260  11.551   7.859  2.1794 -2.0114  0.3719
34545SOL    HW210686   2.353  11.588   7.745 -0.7134  2.2081 -0.8523
34546SOL     OW10687   9.326   4.952   0.867 -0.1965 -0.4855  0.3151
34546SOL    HW110688   9.410   4.913   0.888 -1.4611 -3.0433  1.0694
34546SOL    HW210689   9.314   5.020   0.933  1.0597 -0.4011  0.4798
34547SOL     OW10690  10.244   4.102   9.381  0.3756 -0.1491  0.4648
34547SOL    HW110691  10.149   4.118   9.382  0.4147  0.2508 -0.4645
34547SOL    HW210692  10.281   4.174   9.433  0.3507  1.4465 -1.5647
34548SOL     OW10693   8.709  10.066   2.705  0.5861  0.3289  0.1547
34548SOL    HW110694   8.614  10.057   2.714  0.6874 -2.0047 -0.4630
34548SOL    HW210695   8.744  10.030   2.787  0.9752 -3.4439 -1.4721
34549SOL     OW10696   9.652  10.250   7.382  0.4225 -0.3682  0.0431
34549SOL    HW110697   9.680  10.189   7.451  1.0761 -1.2176 -0.9468
34549SOL    HW210698   9.624  10.329   7.430  1.0864 -0.8426  1.2598
34550SOL     OW10699  10.893   5.770   0.488  0.1839 -0.3650 -0.0048
34550SOL    HW110700  10.981   5.739   0.464  0.2678  0.4791 -0.8417
34550SOL    HW210701  10.877   5.843   0.429 -0.8799 -0.1802  0.5003
34551SOL     OW10702   6.394   0.494  10.848 -0.0753 -0.3329 -0.3697
34551SOL    HW110703   6.475   0.451  10.875  0.7106  0.6758 -1.0525
34551SOL    HW210704   6.331   0.470  10.915  0.7862 -1.1299  0.1859
34552SOL     OW10705   6.420   8.035   5.332  0.1659  0.1201 -0.2935
34552SOL    HW110706   6.500   7.984   5.320  0.2864 -0.5296  2.4648
34552SOL    HW210707   6.349   7.972   5.319  0.2527 -0.1937  0.6109
34553SOL     OW10708   9.808  11.576   6.223 -0.2392 -0.0514  0.1881
34553SOL    HW110709   9.831  11.492   6.262  1.2090  0.1027 -0.2759
34553SOL    HW210710   9.892  11.617   6.201 -0.9395  0.9079 -0.8754
34554SOL     OW10711   2.106  10.119   6.064  0.1694 -0.1110 -0.2872
34554SOL    HW110712   2.017  10.145   6.038  0.2160 -0.3554 -0.7014
34554SOL    HW210713   2.138  10.068   5.990  0.3225 -0.7946  0.2398
34555SOL     OW10714   9.068   8.288   2.391  0.3266 -0.3610 -0.2397
34555SOL    HW110715   8.983   8.304   2.350 -0.3949 -2.5433  0.2643
34555SOL    HW210716   9.107   8.217   2.340  0.0297 -2.1737  1.8684
34556SOL     OW10717   3.015   9.194   0.843  0.2794 -0.1512 -0.0668
34556SOL    HW110718   2.932   9.217   0.802  0.0213 -2.4231 -0.9700
34556SOL    HW210719   2.994   9.118   0.898  1.3221  0.6949  1.5878
34557SOL     OW10720   4.418   6.910   4.688 -0.1518  0.0932 -0.0178
34557SOL    HW110721   4.353   6.840   4.684  0.7762 -0.9046  1.4568
34557SOL    HW210722   4.376   6.985   4.644 -2.5679 -0.2846  1.5098
34558SOL     OW10723   5.535  10.688   3.864  0.2208  0.5087  0.5073
34558SOL    HW110724   5.538  10.602   3.821  2.2670  0.3504  0.8739
34558SOL    HW210725   5.455  10.728   3.830  0.3855 -0.6466 -1.4419
34559SOL     OW10726   1.035  11.468   3.022 -0.1526  0.0478 -0.7918
34559SOL    HW110727   1.093  11.402   2.985 -0.1465 -0.5845  0.2968
34559SOL    HW210728   0.972  11.418   3.074  1.3773  0.9843  2.1686
34560SOL     OW10729   9.893   2.965   8.936 -0.4058  0.3203  0.2129
34560SOL    HW110730   9.883   3.047   8.986 -1.6497  0.3210  0.0022
34560SOL    HW210731   9.805   2.945   8.905  0.0286 -0.6693 -0.4456
34561SOL     OW10732  10.712  10.487   0.047 -0.5420 -0.0219 -0.4651
34561SOL    HW110733  10.711  10.530  -0.038 -0.1516  0.1854 -0.3632
34561SOL    HW210734  10.752  10.550   0.106 -1.0173 -0.0731 -0.0760
34562SOL     OW10735   0.026   2.305  10.015 -0.1471 -0.5882  0.1179
34562SOL    HW110736  -0.031   2.234  10.043  0.0818 -0.8682 -0.1035
34562SOL    HW210737  -0.028   2.383  10.017 -0.0253 -0.5140  1.7519
34563SOL     OW10738   0.124   2.054   5.140 -0.1230  0.3460  0.0377
34563SOL    HW110739   0.187   2.013   5.081 -1.1287  0.7767 -1.3937
34563SOL    HW210740   0.172   2.127   5.179  1.1430 -1.0786  1.2923
34564SOL     OW10741  10.124   1.381   7.071  0.3294  0.2356 -0.3419
34564SOL    HW110742  10.155   1.404   7.159  1.4136 -1.4073 -0.2600
34564SOL    HW210743  10.199   1.340   7.029 -1.1617 -2.2348 -0.7775
34565SOL     OW10744  11.448  10.034  11.800 -0.5400 -0.3359  0.0980
34565SOL    HW110745  11.539  10.025  11.827 -0.5048 -0.0096  0.0875
34565SOL    HW210746  11.451  10.036  11.704 -0.4819  0.4953  0.1164
34566SOL     OW10747   6.646   1.413   3.129 -0.2870 -0.0354 -0.0723
34566SOL    HW110748   6.652   1.320   3.153 -1.2176  0.0374  0.5124
34566SOL    HW210749   6.637   1.412   3.033  1.8270 -0.4167 -0.3070
34567SOL     OW10750   8.193  10.350   4.439  0.0386 -0.3327 -0.7001
34567SOL    HW110751   8.252  10.399   4.496  1.3854 -0.0652 -2.2455
34567SOL    HW210752   8.218  10.258   4.453 -0.4067 -0.3663 -0.0623
34568SOL     OW10753   2.147   5.496   5.347 -0.4155  1.0083  0.1702
34568SOL    HW110754   2.113   5.566   5.291 -1.5847  0.3607  0.0464
34568SOL    HW210755   2.164   5.538   5.431 -0.4984  1.5743 -0.0947
34569SOL     OW10756   4.050   9.151   2.361  0.0380 -0.1052  0.6805
34569SOL    HW110757   3.966   9.113   2.336 -0.0206 -0.0538  0.7975
34569SOL    HW210758   4.027   9.227   2.415  0.1604 -0.1362  0.7774
34570SOL     OW10759  12.239   4.886  12.051  0.2556 -0.4051  0.3706
34570SOL    HW110760  12.230   4.802  12.096 -0.4769 -0.5042  0.0647
34570SOL    HW210761  12.149   4.913  12.035  0.4860 -0.6172 -1.4793
34571SOL     OW10762   8.670  10.406   7.837 -0.2568 -0.5381  0.4609
34571SOL    HW110763   8.648  10.400   7.744 -1.6674 -2.7589  0.8666
34571SOL    HW210764   8.593  10.374   7.882  1.2574 -1.8189  2.3098
34572SOL     OW10765   4.079   2.549   7.212 -0.1348  0.5469 -0.5432
34572SOL    HW110766   4.152   2.608   7.193 -0.3612  0.8295 -0.5388
34572SOL    HW210767   4.016   2.604   7.259 -0.9345  0.6558 -1.6977
34573SOL     OW10768  10.366   5.440  10.214  0.1284  0.1082  0.9266
34573SOL    HW110769  10.285   5.426  10.165  0.4752 -1.8733  0.8481
34573SOL    HW210770  10.383   5.534  10.206 -0.9334  0.1879 -1.0111
34574SOL     OW10771   5.730  11.608  12.411 -0.6223 -0.1708 -0.1648
34574SOL    HW110772   5.719  11.641  12.322 -0.0678 -1.3572 -0.6855
34574SOL    HW210773   5.716  11.685  12.466 -0.3121  0.7323 -1.2973
34575SOL     OW10774  10.681   5.306   5.165  0.6573  0.4871  0.1358
34575SOL    HW110775  10.767   5.286   5.201  0.2358  3.3674  3.1602
34575SOL    HW210776  10.623   5.238   5.200  1.0491  0.7496  1.3116
34576SOL     OW10777  10.246   5.099   5.163  0.3253  0.8491 -0.3092
34576SOL    HW110778  10.157   5.133   5.171  0.3011  0.7825 -0.2946
34576SOL    HW210779  10.284   5.110   5.250  0.0203  0.0149 -0.0612
34577SOL     OW10780   5.340   1.642   2.186 -0.7298  0.3451 -0.4007
34577SOL    HW110781   5.275   1.641   2.257 -0.8836 -2.4134 -0.4685
34577SOL    HW210782   5.298   1.692   2.116 -1.7856  0.6643  0.4306
34578SOL     OW10783   1.694   3.911   6.023 -0.5658 -0.0877  0.2990
34578SOL    HW110784   1.671   3.953   5.940 -0.9520 -0.8124  0.0319
34578SOL    HW210785   1.650   3.965   6.089 -1.3510 -0.2566 -0.0655
34579SOL     OW10786   1.427   2.990   3.832 -0.1043  0.0521 -0.7449
34579SOL    HW110787   1.422   2.911   3.887 -1.6944  0.2887 -0.4837
34579SOL    HW210788   1.466   2.960   3.750  0.0271 -0.8387 -0.3677
34580SOL     OW10789   6.081   3.772   3.513  0.0419  0.3732  0.1189
34580SOL    HW110790   6.025   3.741   3.584 -1.7662  2.1285 -0.4752
34580SOL    HW210791   6.108   3.859   3.539  0.9631  0.2855 -0.4918
34581SOL     OW10792   3.859   4.844  10.417 -0.4236  0.0501  0.4388
34581SOL    HW110793   3.889   4.815  10.504 -1.3790  0.8821  1.0700
34581SOL    HW210794   3.911   4.922  10.399  0.8690 -0.9781 -0.4536
34582SOL     OW10795  10.493   6.856   0.870  0.4397 -0.1241  0.2385
34582SOL    HW110796  10.484   6.934   0.815 -0.1386 -0.9253 -0.8392
34582SOL    HW210797  10.405   6.841   0.904  0.4822 -0.4799  0.1923
34583SOL     OW10798  12.572   3.571   4.301 -0.2165  0.6834 -0.5213
34583SOL    HW110799  12.519   3.493   4.286 -0.8512  1.3560 -1.9984
34583SOL    HW210800  12.663   3.542   4.289 -0.3334 -0.1429  0.5014
34584SOL     OW10801   0.133   6.686   8.747  0.1058 -0.9863 -0.3765
34584SOL    HW110802   0.134   6.757   8.812 -2.6041 -0.1346 -1.1277
34584SOL    HW210803   0.226   6.667   8.731  0.9438  1.8728  0.4150
34585SOL     OW10804  11.841   8.985   6.259  0.0708 -0.5586 -0.1430
34585SOL    HW110805  11.856   9.013   6.169  0.5024  0.5780  0.2651
34585SOL    HW210806  11.819   8.892   6.252  1.2338 -0.7759 -1.3238
34586SOL     OW10807   9.445  12.586   1.187 -0.4491  0.0973 -0.4911
34586SOL    HW110808   9.390  12.634   1.249 -0.5789 -1.2943  0.4985
34586SOL    HW210809   9.464  12.503   1.230  0.9836 -0.1706 -1.5555
34587SOL     OW10810   2.558   9.990   3.832 -0.4243 -0.0879  0.2252
34587SOL    HW110811   2.530  10.080   3.814  0.2143  0.1257  0.2753
34587SOL    HW210812   2.634   9.999   3.890 -0.8732 -0.6873  0.9232
34588SOL     OW10813   4.978  11.632   7.685 -0.7428 -0.1094  0.0332
34588SOL    HW110814   4.905  11.659   7.628 -0.7377  2.3890  1.0938
34588SOL    HW210815   4.941  11.633   7.773  0.6113  1.5394  0.6282
34589SOL     OW10816   1.983  11.601   3.860  0.0271 -0.0718  0.6943
34589SOL    HW110817   2.078  11.610   3.851 -0.2582  1.1389 -1.9123
34589SOL    HW210818   1.961  11.522   3.812 -0.4073  0.3159  0.2494
34590SOL     OW10819  10.330   4.067   9.044  0.2604 -0.0519  0.5718
34590SOL    HW110820  10.296   4.007   9.110  0.2778 -0.4798  0.1959
34590SOL    HW210821  10.409   4.105   9.083 -0.2295  0.3874  1.1546
34591SOL     OW10822   0.517   2.822   6.902 -0.4250  0.2234  0.1024
34591SOL    HW110823   0.441   2.879   6.916  0.5494  1.5049  0.3141
34591SOL    HW210824   0.507   2.792   6.811 -0.7654  1.0245 -0.1347
34592SOL     OW10825  10.968   2.290   6.290  0.3899  0.3747 -0.0829
34592SOL    HW110826  10.898   2.325   6.235  0.4334  2.2922  1.0111
34592SOL    HW210827  10.932   2.294   6.379  0.9905 -0.9602  0.2434
34593SOL     OW10828  12.428   2.902   0.923 -0.1366  0.0335  0.8359
34593SOL    HW110829  12.450   2.819   0.965  4.7109  0.0609 -0.9744
34593SOL    HW210830  12.409   2.879   0.833 -4.8073  0.5318  1.4694
34594SOL     OW10831   0.619  10.678   6.771 -0.2801  0.1741 -0.4405
34594SOL    HW110832   0.683  10.607   6.781 -0.8428 -0.1877  0.7405
34594SOL    HW210833   0.537  10.634   6.749 -0.6670  0.4425  0.4388
34595SOL     OW10834   4.802   7.059   3.052 -0.7013  0.8604  0.5491
34595SOL    HW110835   4.827   7.035   2.963  0.0566 -0.1257  1.0178
34595SOL    HW210836   4.884   7.063   3.100 -1.2927 -3.1023  2.2906
34596SOL     OW10837   7.782   5.064   1.598  0.0725 -0.2821  0.2299
34596SOL    HW110838   7.751   4.976   1.576  0.5136 -0.5458  0.6472
34596SOL    HW210839   7.809   5.101   1.515 -1.0536 -0.1608 -0.1012
34597SOL     OW10840   6.313  11.366   7.807 -0.1766 -0.2365 -0.0530
34597SOL    HW110841   6.313  11.425   7.731  0.1084 -0.3425 -0.1347
34597SOL    HW210842   6.224  11.372   7.841  0.1203  1.1012  0.5940
34598SOL     OW10843   8.641  12.077   2.036  0.2739  0.9347 -0.0292
34598SOL    HW110844   8.554  12.042   2.015  0.1800  1.1541 -0.0197
34598SOL    HW210845   8.660  12.044   2.123 -0.8321  2.7701  0.9879
34599SOL     OW10846   6.353   2.573  12.479 -0.0808  0.0856  0.1604
34599SOL    HW110847   6.284   2.524  12.433 -0.6285  1.3705 -0.4438
34599SOL    HW210848   6.323   2.664  12.475  0.3478  0.3515  2.2391
34600SOL     OW10849   5.930   7.629   7.911 -0.2062 -0.3284 -0.2183
34600SOL    HW110850   5.995   7.571   7.951 -0.0616  0.0881  0.1670
34600SOL    HW210851   5.924   7.703   7.971 -1.1405 -0.4198 -0.1805
34601SOL     OW10852   8.030   7.248   5.413  0.4000  0.4404 -0.0362
34601SOL    HW110853   8.093   7.182   5.443 -0.6620 -0.3741  0.4517
34601SOL    HW210854   7.949   7.227   5.459 -0.3505  1.2249 -0.9553
34602SOL     OW10855  11.542   0.941   7.270 -0.5294 -0.4606  0.3295
34602SOL    HW110856  11.599   0.867   7.251 -0.0190 -0.1262  0.5327
34602SOL    HW210857  11.459   0.919   7.230  0.2288 -0.2103 -1.4546
34603SOL     OW10858   3.442   9.079   3.700  0.2560  0.2607  0.4853
34603SOL    HW110859   3.454   9.151   3.763 -0.0529  0.4175  0.3628
34603SOL    HW210860   3.523   9.028   3.708  1.8734  2.2687 -1.5891
34604SOL     OW10861   3.873  12.504   0.880  0.0651  0.2365  0.4287
34604SOL    HW110862   3.794  12.553   0.856  0.8574  1.3981  0.0585
34604SOL    HW210863   3.941  12.540   0.822  0.7717 -1.0521  0.4246
34605SOL     OW10864   0.157  10.064   1.886  0.8435 -0.0377 -0.1582
34605SOL    HW110865   0.211  10.141   1.902  0.4524  0.5794 -1.5874
34605SOL    HW210866   0.188  10.030   1.802  2.2143 -2.5482  1.2187
34606SOL     OW10867   5.628   5.032   4.477  0.2519  0.7260 -0.4761
34606SOL    HW110868   5.650   4.950   4.522 -1.5627  1.1332  1.3085
34606SOL    HW210869   5.708   5.085   4.482  1.1576 -0.5452 -0.8415
34607SOL     OW10870  10.180   2.110   7.547  0.5749 -1.0116  0.1236
34607SOL    HW110871  10.149   2.113   7.457 -0.8239  1.5026  0.5925
34607SOL    HW210872  10.113   2.061   7.595  0.2396 -0.5418  0.1406
34608SOL     OW10873   7.187  10.686   4.415  0.3609  0.1864 -0.7112
34608SOL    HW110874   7.120  10.657   4.352  1.8308 -0.0210 -2.2707
34608SOL    HW210875   7.210  10.774   4.386  1.3794 -0.0823 -0.7594
34609SOL     OW10876   1.911   9.007   7.646  0.5411 -0.6910  0.7885
34609SOL    HW110877   1.928   9.048   7.562  0.7184 -0.2711  1.0256
34609SOL    HW210878   1.997   8.980   7.678  0.3674 -1.7085  0.4022
34610SOL     OW10879  11.751   7.262   4.477  0.0318  0.2951 -0.0519
34610SOL    HW110880  11.690   7.308   4.534 -1.3258 -1.0554 -0.3391
34610SOL    HW210881  11.734   7.297   4.390  1.1513  1.3858  0.1423
34611SOL     OW10882   8.458   9.195   1.846 -0.2423  0.4588 -0.2954
34611SOL    HW110883   8.534   9.252   1.833 -1.4101  2.2160  0.3389
34611SOL    HW210884   8.488   9.129   1.909  0.7953  1.0029 -0.2013
34612SOL     OW10885   9.299   8.871   9.486  0.3601 -0.3562 -0.5171
34612SOL    HW110886   9.280   8.921   9.565  0.8874 -1.7168  0.5309
34612SOL    HW210887   9.214   8.852   9.447 -0.0131 -0.9290  0.5575
34613SOL     OW10888   4.444   6.380   3.399 -0.3317  0.6109  0.0419
34613SOL    HW110889   4.536   6.403   3.390 -0.2945  0.3736 -0.1803
34613SOL    HW210890   4.430   6.373   3.493 -0.2794  1.2827  0.1081
34614SOL     OW10891   1.011   4.693  12.190  0.0672 -0.6791 -0.5139
34614SOL    HW110892   1.035   4.785  12.202 -1.4010 -0.2351 -0.6517
34614SOL    HW210893   1.047   4.648  12.266  0.1161  0.1710 -0.0191
34615SOL     OW10894   8.263  10.166   5.309  0.0417 -0.4058  0.4610
34615SOL    HW110895   8.264  10.255   5.343  0.3506 -0.7301  1.3265
34615SOL    HW210896   8.260  10.110   5.387 -1.2614 -1.1473 -0.0874
34616SOL     OW10897  10.194   7.000  12.248 -0.4142  0.4491 -0.0224
34616SOL    HW110898  10.152   7.080  12.277  0.3397  0.1002  2.2194
34616SOL    HW210899  10.219   6.955  12.329  1.0357 -1.0520 -1.2312
34617SOL     OW10900   8.670   9.013   8.086 -0.2400 -0.7389  0.7314
34617SOL    HW110901   8.681   9.090   8.029 -0.4359 -0.9509  0.4019
34617SOL    HW210902   8.641   9.049   8.170 -0.2682 -0.4485  0.5988
34618SOL     OW10903  10.363   4.583  11.708  0.3565 -0.0322  0.0112
34618SOL    HW110904  10.421   4.528  11.655 -0.3214  0.0345 -0.8221
34618SOL    HW210905  10.295   4.611  11.648 -0.3418  0.1985  0.8850
34619SOL     OW10906   9.356   3.838   8.809  0.3353 -0.4168 -0.2177
34619SOL    HW110907   9.391   3.757   8.774 -1.0369 -1.2767  0.3057
34619SOL    HW210908   9.428   3.876   8.859  1.3126 -0.7667 -1.3220
34620SOL     OW10909  10.574   4.166   1.344  0.1834  0.4730 -0.5041
34620SOL    HW110910  10.560   4.206   1.430  1.4408 -0.2879  0.0904
34620SOL    HW210911  10.659   4.200   1.315  0.0667  0.2234 -1.1424
34621SOL     OW10912   1.536   5.820   4.807  0.3578  0.4995 -0.7037
34621SOL    HW110913   1.577   5.901   4.777  0.8310 -0.0260 -1.5138
34621SOL    HW210914   1.573   5.752   4.750  2.0649 -0.7113  1.6494
34622SOL     OW10915   5.847   9.782   6.046 -0.2610  0.5834 -0.6372
34622SOL    HW110916   5.878   9.848   6.109  2.6781 -0.9541 -0.3306
34622SOL    HW210917   5.875   9.699   6.083 -0.2538 -0.5310 -3.0191
34623SOL     OW10918   8.963   3.852   7.020  0.8473  0.5191  0.1879
34623SOL    HW110919   9.030   3.807   6.968 -0.2112 -1.0176  0.0780
34623SOL    HW210920   9.011   3.891   7.093  1.8250 -0.9079  0.3525
34624SOL     OW10921   1.854   7.482   1.982  0.1798 -0.5325 -0.2102
34624SOL    HW110922   1.900   7.547   1.928 -0.1034 -0.1873 -0.0383
34624SOL    HW210923   1.779   7.455   1.930  1.3742 -2.2293 -1.1458
34625SOL     OW10924   7.995  12.213   6.864 -0.1237 -0.0570  0.5766
34625SOL    HW110925   8.006  12.305   6.841 -1.5264  0.0285  0.1259
34625SOL    HW210926   8.043  12.203   6.946  0.7474  0.8636  0.1973
34626SOL     OW10927  11.305   7.869   5.015 -0.4768 -0.4803 -0.1372
34626SOL    HW110928  11.346   7.785   5.037  2.8797  0.8212 -0.8841
34626SOL    HW210929  11.263   7.853   4.931  3.3584 -0.6584 -2.2423
34627SOL     OW10930   2.471   5.211  11.792  0.5282 -0.2966 -0.7210
34627SOL    HW110931   2.407   5.259  11.845  1.7282  1.1406 -0.4969
34627SOL    HW210932   2.515   5.153  11.854 -0.6104 -1.4017 -0.9015
34628SOL     OW10933   0.237   8.040   1.423 -0.7714  0.8194  0.7049
34628SOL    HW110934   0.260   7.961   1.374  1.0275  1.2872  0.7119
34628SOL    HW210935   0.181   8.090   1.363  0.9283  1.1212 -0.7043
34629SOL     OW10936   2.242   1.295   8.918 -0.0596  0.2256  0.3771
34629SOL    HW110937   2.175   1.361   8.931 -0.0750  0.0950  0.9635
34629SOL    HW210938   2.196   1.211   8.929  0.3519  0.1464  1.5487
34630SOL     OW10939   2.609   8.463   7.908 -0.1710  0.4834 -0.3278
34630SOL    HW110940   2.609   8.401   7.980  0.4353  0.1343 -0.6184
34630SOL    HW210941   2.687   8.441   7.857 -0.0463  1.3622 -0.5382
34631SOL     OW10942   3.453  11.908   4.256 -0.4946 -0.5751  0.1879
34631SOL    HW110943   3.487  11.922   4.168  0.0561  0.8614  0.5919
34631SOL    HW210944   3.402  11.988   4.274  1.3268  0.2595  2.0122
34632SOL     OW10945   0.785   1.714   2.189 -0.3370  0.0357 -0.0426
34632SOL    HW110946   0.764   1.623   2.169 -0.9259 -0.1403  1.2735
34632SOL    HW210947   0.758   1.763   2.111 -0.8161 -0.8158 -0.4222
34633SOL     OW10948   1.054  11.172   1.100  0.7700 -0.4490  0.5096
34633SOL    HW110949   0.975  11.118   1.101  0.0775  0.5148  0.0757
34633SOL    HW210950   1.091  11.159   1.013  0.6007 -0.2270  0.4034
34634SOL     OW10951   9.033  12.166  11.556  0.4525 -0.3031 -0.1583
34634SOL    HW110952   9.072  12.079  11.549 -0.6794 -0.8799  0.4086
34634SOL    HW210953   9.051  12.208  11.472  2.7808 -0.3084  0.2698
34635SOL     OW10954   1.363  10.369   0.593  0.1212 -0.4867 -0.0075
34635SOL    HW110955   1.332  10.281   0.615 -2.4326  0.3883  0.2712
34635SOL    HW210956   1.286  10.425   0.604  1.6949  1.8277 -0.0409
34636SOL     OW10957   3.020   7.497   8.052  0.4443  0.1270  0.0176
34636SOL    HW110958   2.929   7.526   8.054  0.2125 -0.5841 -0.0050
34636SOL    HW210959   3.041   7.494   7.958  0.8117  1.2369  0.0466
34637SOL     OW10960   2.775   0.040   3.791 -0.0627  0.2660  0.0205
34637SOL    HW110961   2.800  -0.048   3.762 -2.4074 -0.2879 -0.5388
34637SOL    HW210962   2.712   0.070   3.726 -0.8168  1.5523  1.2803
34638SOL     OW10963   2.468   7.618   7.268  0.7807 -0.3445  0.0027
34638SOL    HW110964   2.435   7.599   7.180  0.9099  0.6135 -0.2614
34638SOL    HW210965   2.538   7.682   7.254 -0.2650  1.0561  0.9210
34639SOL     OW10966  10.567   8.558  11.614 -0.1636 -0.4567  0.0180
34639SOL    HW110967  10.650   8.598  11.642 -2.4288  3.6468  1.7187
34639SOL    HW210968  10.560   8.582  11.521 -0.5261  1.4718  0.5046
34640SOL     OW10969   1.195   8.115   8.372  0.6223 -0.2197  0.0570
34640SOL    HW110970   1.288   8.117   8.349  0.6435  0.3092  0.1809
34640SOL    HW210971   1.150   8.116   8.287  0.6916  2.3180 -0.0192
34641SOL     OW10972  10.150  10.187   4.784 -0.1384  0.0880  0.2333
34641SOL    HW110973  10.179  10.266   4.738  0.6937 -0.1795  0.2753
34641SOL    HW210974  10.213  10.176   4.855 -0.3495 -0.5069  0.3365
34642SOL     OW10975   8.426   3.164   7.425  0.2216  0.3946 -0.1740
34642SOL    HW110976   8.377   3.101   7.372 -1.2775  1.3897 -0.0584
34642SOL    HW210977   8.517   3.151   7.400  0.0254 -2.0284  0.1074
34643SOL     OW10978   7.726   7.191   9.607 -0.3243  0.2335  0.1061
34643SOL    HW110979   7.718   7.232   9.693  1.1162 -0.3106  0.5238
34643SOL    HW210980   7.652   7.227   9.557  0.0527  2.2415  0.8817
34644SOL     OW10981   1.767   4.699  11.154  0.1366  0.0506 -0.3703
34644SOL    HW110982   1.697   4.634  11.156 -1.8117  1.9050 -2.4089
34644SOL    HW210983   1.785   4.712  11.061  1.3938  1.4927  0.0321
34645SOL     OW10984   7.297   8.479   4.585  0.4493  0.2901 -0.0827
34645SOL    HW110985   7.340   8.394   4.597 -0.4193 -0.2625 -0.8602
34645SOL    HW210986   7.358   8.529   4.531  0.2363 -0.4167 -0.9983
34646SOL     OW10987   2.022   9.690   1.417 -0.4430 -0.2341  0.4762
34646SOL    HW110988   1.927   9.684   1.431 -0.3189  1.1073  2.2785
34646SOL    HW210989   2.043   9.782   1.436  1.3491 -0.7141  1.0247
34647SOL     OW10990   1.749   7.476   5.818 -0.0251 -0.0334  0.3394
34647SOL    HW110991   1.842   7.498   5.820 -0.3217  1.8599 -2.0385
34647SOL    HW210992   1.714   7.513   5.899  1.1211  0.0992  0.7899
34648SOL     OW10993   9.248   0.000   5.314 -0.6829  0.1998  0.3138
34648SOL    HW110994   9.225   0.093   5.322  1.4543  0.6657  1.8980
34648SOL    HW210995   9.223  -0.037   5.399  0.7085 -0.1052  0.6041
34649SOL     OW10996  10.221   7.981   8.824  0.0412  0.1707 -0.3130
34649SOL    HW110997  10.136   7.952   8.857  0.1416  0.3311  0.0925
34649SOL    HW210998  10.211   8.075   8.811 -0.0129  0.1001 -0.7893
34650SOL     OW10999   0.757   8.646  12.033 -0.1725 -0.2342  0.1533
34650SOL    HW111000   0.777   8.633  11.940  0.6858  0.6908  0.1945
34650SOL    HW211001   0.809   8.723  12.058 -2.0033  0.8229  0.8753
34651SOL     OW11002   9.414   8.229  10.496 -0.1745  0.4052 -0.0122
34651SOL    HW111003   9.361   8.269  10.565 -0.6609  0.1241 -0.2122
34651SOL    HW211004   9.491   8.195  10.541 -0.8769 -0.5183  0.5429
34652SOL     OW11005   8.350   9.571  12.448 -0.1085 -0.0593 -0.3023
34652SOL    HW111006   8.350   9.664  12.428  0.6090  0.1703  0.6540
34652SOL    HW211007   8.266   9.539  12.418 -1.9558  1.6434  2.5734
34653SOL     OW11008   8.703  12.036   0.338 -0.2851  0.6650  0.4420
34653SOL    HW111009   8.786  12.084   0.346 -0.2741  0.8959 -0.8295
34653SOL    HW211010   8.729  11.944   0.336  0.0269  0.7567 -0.5995
34654SOL     OW11011   4.897  10.350   7.083 -0.0024  0.8038 -0.0012
34654SOL    HW111012   4.948  10.407   7.025 -0.2215  0.4595 -0.5384
34654SOL    HW211013   4.932  10.368   7.170 -0.1932  1.8961 -0.1303
34655SOL     OW11014   0.188   2.876  11.646  0.4647  0.0534 -0.1052
34655SOL    HW111015   0.144   2.929  11.712 -1.0612 -3.1738  1.7315
34655SOL    HW211016   0.129   2.877  11.570 -0.1692 -0.0287  0.3844
34656SOL     OW11017   9.495   4.541   2.695  0.7273  0.0489 -0.0491
34656SOL    HW111018   9.483   4.452   2.660  1.4910 -0.1533  0.1724
34656SOL    HW211019   9.417   4.557   2.747  1.1883 -1.0486  1.0393
34657SOL     OW11020   1.824   0.713   1.797  0.4175 -0.4066 -0.2507
34657SOL    HW111021   1.826   0.674   1.885  2.5598 -1.3377 -0.6580
34657SOL    HW211022   1.784   0.799   1.810 -2.8537 -1.9387  0.9850
34658SOL     OW11023   6.106   1.882  11.949 -0.0381 -0.3819  0.5475
34658SOL    HW111024   6.128   1.891  11.856  1.1414 -2.4950  0.5697
34658SOL    HW211025   6.175   1.929  11.995  0.6666 -1.2501  0.4017
34659SOL     OW11026   7.798   3.126   4.423  0.0724  0.3704 -0.0204
34659SOL    HW111027   7.777   3.219   4.411  0.6131  0.6871  1.2966
34659SOL    HW211028   7.885   3.116   4.386 -1.4332 -0.5421 -3.7933
34660SOL     OW11029  11.609   6.831   0.903 -0.2339 -0.3059 -0.0734
34660SOL    HW111030  11.653   6.860   0.984  0.7379  0.3586 -0.8084
34660SOL    HW211031  11.549   6.763   0.932  1.1594 -1.1339  1.0160
34661SOL     OW11032   5.918   1.037   9.734 -0.3926 -0.4743  0.1658
34661SOL    HW111033   5.896   0.987   9.655  1.3828 -0.8616 -0.1429
34661SOL    HW211034   5.836   1.079   9.760 -0.8919  0.1896 -2.2422
34662SOL     OW11035  10.443   3.428   8.275  0.1994 -0.3052 -0.1132
34662SOL    HW111036  10.409   3.340   8.259 -2.0476  0.3223  0.7517
34662SOL    HW211037  10.460   3.432   8.369 -2.6706  1.0006  0.4792
34663SOL     OW11038   6.921   5.232   4.367  0.0669 -0.1651 -0.3256
34663SOL    HW111039   6.911   5.299   4.435  1.1579  1.4585 -1.6837
34663SOL    HW211040   6.955   5.156   4.414  0.1808  0.6973  1.0448
34664SOL     OW11041  10.868   4.172  11.562  0.0146  0.0394 -0.3653
34664SOL    HW111042  10.865   4.267  11.549 -2.4378  0.0296 -0.3742
34664SOL    HW211043  10.802   4.155  11.629  0.7389 -1.6208 -0.0318
34665SOL     OW11044   7.637  11.754   1.583 -0.0136  0.7685  0.2723
34665SOL    HW111045   7.632  11.836   1.631 -0.4544  0.6326  0.4569
34665SOL    HW211046   7.572  11.763   1.513  0.6987  1.0090 -0.3711
34666SOL     OW11047  11.031   1.480   5.391 -0.4110 -0.2445 -0.3183
34666SOL    HW111048  10.981   1.466   5.310  0.8701 -2.4405 -0.8059
34666SOL    HW211049  11.088   1.554   5.371 -0.1861 -0.6931 -1.4174
34667SOL     OW11050   4.899   6.911   0.473 -0.1148  0.1610  0.8491
34667SOL    HW111051   4.852   6.880   0.551  0.8620 -2.5948  0.4571
34667SOL    HW211052   4.970   6.849   0.462  0.9301  1.6044 -1.1778
34668SOL     OW11053   6.322   8.715   2.864 -0.1496  0.5284 -0.0723
34668SOL    HW111054   6.403   8.732   2.817 -0.6640  0.0100 -1.1957
34668SOL    HW211055   6.348   8.701   2.955  0.7824  2.4685 -0.0008
34669SOL     OW11056  12.239  12.335  12.550  0.2714  0.7313 -0.1868
34669SOL    HW111057  12.325  12.377  12.563  0.4998  0.5521 -1.0756
34669SOL    HW211058  12.176  12.401  12.579  0.6175  1.8269 -1.8035
34670SOL     OW11059   1.957   9.671   0.311  0.6551  0.2402 -0.5164
34670SOL    HW111060   2.026   9.660   0.376  0.7326 -2.2189 -0.9433
34670SOL    HW211061   2.003   9.698   0.231  0.8322  0.9189 -0.1889
34671SOL     OW11062   0.547  12.030  11.397 -0.8005  0.0430 -0.2826
34671SOL    HW111063   0.544  11.936  11.413 -2.1565  0.0365 -0.4880
34671SOL    HW211064   0.496  12.043  11.317  0.2364  0.8483 -0.8412
34672SOL     OW11065  10.502   4.088  11.181  0.6734 -0.1063 -0.1344
34672SOL    HW111066  10.558   4.019  11.217  0.6461 -0.2668 -0.3967
34672SOL    HW211067  10.559   4.165  11.176  0.2665  0.3579  1.6953
34673SOL     OW11068   9.276   9.679   5.786  0.4294  0.3037 -0.2022
34673SOL    HW111069   9.326   9.609   5.828 -0.2110 -0.3120 -0.4540
34673SOL    HW211070   9.305   9.677   5.694  0.6910  0.6186 -0.1249
34674SOL     OW11071   3.458   8.598  11.089 -0.5067  0.2672 -0.1131
34674SOL    HW111072   3.383   8.551  11.050 -0.2113  0.7070 -1.2646
34674SOL    HW211073   3.533   8.571  11.035  0.8235 -2.5421  2.8183
34675SOL     OW11074   5.857   7.873  10.102  0.1731  0.1302 -0.8018
34675SOL    HW111075   5.925   7.805  10.102  0.4159  0.3555  0.6357
34675SOL    HW211076   5.798   7.847  10.031  0.0816 -1.7653 -0.0833
34676SOL     OW11077   0.279   6.551   9.291  0.2293 -0.2873 -0.1700
34676SOL    HW111078   0.244   6.637   9.271  0.6640 -0.2375 -0.7648
34676SOL    HW211079   0.304   6.555   9.383 -1.2205 -0.3019  0.2450
34677SOL     OW11080  10.696   9.275   3.855  0.1221 -1.0264 -0.0061
34677SOL    HW111081  10.685   9.269   3.950  0.6690 -0.0707  0.1233
34677SOL    HW211082  10.607   9.282   3.820 -0.0147  0.2972  0.5617
34678SOL     OW11083   5.808   8.316   6.718 -0.0414  0.0557  0.0499
34678SOL    HW111084   5.853   8.399   6.703 -0.9364  0.7674  1.1132
34678SOL    HW211085   5.725   8.324   6.671 -0.0600 -0.2963  0.0177
34679SOL     OW11086  12.042   9.442   8.365 -0.0960 -1.0742  0.4578
34679SOL    HW111087  12.108   9.489   8.313  0.8451  0.7351  3.1015
34679SOL    HW211088  12.092   9.401   8.436 -1.7898  1.4612  3.3407
34680SOL     OW11089   0.927   7.146   7.713  0.2528  0.4534  0.0503
34680SOL    HW111090   0.993   7.214   7.700 -0.9569  1.7582  0.4219
34680SOL    HW211091   0.847   7.184   7.675 -0.3187 -1.0172 -0.2611
34681SOL     OW11092  10.199  10.086  11.213 -0.0200  0.1309  0.2231
34681SOL    HW111093  10.115  10.110  11.176 -0.0811 -2.1259 -1.2466
34681SOL    HW211094  10.178  10.036  11.292 -0.0428 -0.3657 -0.1006
34682SOL     OW11095  10.682   8.603   3.412 -0.1128  0.3776  0.1777
34682SOL    HW111096  10.680   8.698   3.418 -1.9268  0.3625  0.3704
34682SOL    HW211097  10.638   8.583   3.330 -0.7954 -0.3141  0.6933
34683SOL     OW11098   6.936   8.502  10.042  0.4832 -0.1615  0.2840
34683SOL    HW111099   6.948   8.595  10.022 -1.0840 -0.1421 -0.7160
34683SOL    HW211100   6.943   8.497  10.137  0.2473  1.0279  0.3821
34684SOL     OW11101  10.270  11.217   6.746  0.0957 -0.2318  0.2615
34684SOL    HW111102  10.213  11.179   6.813  1.2326 -1.9629  0.2988
34684SOL    HW211103  10.306  11.295   6.788 -2.7004  1.3193 -0.0072
34685SOL     OW11104   1.243  11.411   6.989 -0.6569  0.5608  0.2161
34685SOL    HW111105   1.206  11.471   7.054  1.9295  0.2869  2.1155
34685SOL    HW211106   1.214  11.325   7.018 -2.5293  0.6344 -1.2300
34686SOL     OW11107   7.577   9.726   1.972  0.0621 -0.7136  0.7795
34686SOL    HW111108   7.597   9.819   1.986  0.7235 -0.7331 -0.0090
34686SOL    HW211109   7.501   9.727   1.914  0.3648 -0.6683  0.3832
34687SOL     OW11110   8.338   3.198   3.810 -0.0331  0.3571 -0.1938
34687SOL    HW111111   8.407   3.190   3.743  0.1252  0.8765 -0.1004
34687SOL    HW211112   8.312   3.290   3.806  0.2108  0.4713  0.6969
34688SOL     OW11113   7.907   6.021   0.104  0.0168  0.1702 -0.1974
34688SOL    HW111114   7.815   6.031   0.128  0.3928  1.2518  0.9304
34688SOL    HW211115   7.934   5.939   0.146 -0.0280  0.6943  0.8910
34689SOL     OW11116   1.212   8.868   4.074 -0.3404  1.0546 -0.4175
34689SOL    HW111117   1.122   8.901   4.071 -0.5407  0.7179  1.2211
34689SOL    HW211118   1.250   8.908   4.152  1.3338  2.1171 -1.7202
34690SOL     OW11119   6.747  11.562   6.938 -0.6135 -0.7917 -0.4407
34690SOL    HW111120   6.747  11.657   6.946  0.9105 -0.6841 -1.2328
34690SOL    HW211121   6.743  11.545   6.844 -3.0512 -1.6001 -0.2553
34691SOL     OW11122  12.387   1.267   3.816 -0.0466  0.2136  0.8669
34691SOL    HW111123  12.468   1.220   3.798 -1.2146 -1.4865 -0.1409
34691SOL    HW211124  12.330   1.203   3.858 -1.7968  0.5722 -0.8262
34692SOL     OW11125   4.929   0.257   1.221  0.0885 -0.1242  0.0200
34692SOL    HW111126   4.881   0.337   1.201 -0.5673  0.3803  3.1356
34692SOL    HW211127   5.007   0.286   1.268  3.3513 -0.9853 -4.2745
34693SOL     OW11128   6.535   5.714   8.760  0.0209  0.2159 -0.0633
34693SOL    HW111129   6.571   5.684   8.677  1.1448 -1.2465  0.8956
34693SOL    HW211130   6.441   5.721   8.745 -0.3824 -3.8291 -0.4549
34694SOL     OW11131   8.144   5.705   1.713 -0.6463  0.0625  0.0193
34694SOL    HW111132   8.209   5.706   1.783  0.1963 -0.9832 -0.7102
34694SOL    HW211133   8.104   5.618   1.717 -1.2841  0.3389 -0.1809
34695SOL     OW11134   4.655  12.104   6.688  0.0514 -0.6240  0.3100
34695SOL    HW111135   4.705  12.137   6.762  0.9855 -1.8749  0.2672
34695SOL    HW211136   4.567  12.088   6.723 -0.1722  0.9978  0.5407
34696SOL     OW11137   4.974   8.722   0.567 -0.1562 -0.3130  0.6360
34696SOL    HW111138   5.011   8.634   0.560 -1.1108 -0.7277  0.7220
34696SOL    HW211139   4.981   8.758   0.479 -1.2414 -1.0814  0.2317
34697SOL     OW11140   7.374   3.858   5.723  0.2429 -0.8133  0.0961
34697SOL    HW111141   7.395   3.928   5.661 -0.8935  1.0352  1.7005
34697SOL    HW211142   7.281   3.841   5.708  0.0313 -0.5447  1.0758
34698SOL     OW11143   5.382   5.481   4.923  0.5287 -0.2915  0.2958
34698SOL    HW111144   5.373   5.389   4.898 -0.0522 -0.3501  0.6965
34698SOL    HW211145   5.293   5.514   4.926  0.5840 -0.2067  1.9159
34699SOL     OW11146   5.682   4.112   4.448  0.5922  0.1299 -0.3119
34699SOL    HW111147   5.589   4.132   4.455  0.5097  0.0707 -1.1074
34699SOL    HW211148   5.724   4.168   4.513  0.1200  1.0517 -0.7759
34700SOL     OW11149  12.074   4.502  12.431  0.2001 -0.1329 -0.4708
34700SOL    HW111150  12.010   4.561  12.392  1.2402  1.2057 -0.2267
34700SOL    HW211151  12.077   4.426  12.372 -2.2733 -0.6982  0.0330
34701SOL     OW11152  11.618   8.005  11.213 -0.5079  0.1739 -0.0595
34701SOL    HW111153  11.632   8.073  11.147  0.1508 -0.5693 -0.6942
34701SOL    HW211154  11.543   7.955  11.181 -0.6628  0.2757  0.1420
34702SOL     OW11155   5.421   5.776  12.237 -0.1295 -0.5288 -0.2563
34702SOL    HW111156   5.506   5.736  12.259  0.6937 -0.3933 -2.8247
34702SOL    HW211157   5.363   5.749  12.308  2.0642 -0.5134  1.6870
34703SOL     OW11158   2.763   2.716   7.563  0.2416 -0.2544  0.7522
34703SOL    HW111159   2.777   2.725   7.657  0.6836 -0.0029  0.6646
34703SOL    HW211160   2.712   2.636   7.554  1.6353 -1.2129  1.0795
34704SOL     OW11161   0.631   1.614   7.954  0.5144  0.1776  0.2664
34704SOL    HW111162   0.658   1.549   7.889 -1.8038 -0.0079 -0.6065
34704SOL    HW211163   0.671   1.695   7.924 -0.2150  0.0206 -1.2598
34705SOL     OW11164   1.097   4.758   6.362  0.1895  0.2327  0.6443
34705SOL    HW111165   1.017   4.733   6.316  2.0091 -2.7420 -1.2129
34705SOL    HW211166   1.124   4.840   6.321 -0.5330 -0.1299 -0.5972
34706SOL     OW11167   5.374   3.627   7.267 -0.3703 -0.3284  0.1248
34706SOL    HW111168   5.359   3.534   7.252 -3.2668 -0.0036  0.5222
34706SOL    HW211169   5.414   3.658   7.186  0.2354 -1.8095 -0.1731
34707SOL     OW11170   3.005  10.618  10.547 -0.2254 -0.2831  0.5971
34707SOL    HW111171   3.057  10.545  10.513 -0.2325  0.8092 -1.9553
34707SOL    HW211172   2.917  10.602  10.515 -0.4552  0.3087  0.9200
34708SOL     OW11173  10.446   2.371   1.496 -0.0432  0.2960 -0.3291
34708SOL    HW111174  10.529   2.362   1.448 -0.2774  0.5781 -0.7958
34708SOL    HW211175  10.457   2.316   1.574  1.5788  2.3374  0.9900
34709SOL     OW11176   1.234  12.252   4.917  0.7710  0.2500  0.5577
34709SOL    HW111177   1.304  12.287   4.972  0.8074  1.3149 -0.1250
34709SOL    HW211178   1.196  12.330   4.876 -0.2034 -0.4007  0.2132
34710SOL     OW11179   2.987   1.127   9.967 -0.0999 -0.5753 -0.1885
34710SOL    HW111180   2.958   1.215   9.992 -1.8479 -1.3291  0.5689
34710SOL    HW211181   2.974   1.075  10.046 -3.0573 -2.3974 -1.7138
34711SOL     OW11182   4.364   9.996   4.551  0.2829  0.5853 -0.1498
34711SOL    HW111183   4.315   9.920   4.521 -0.5160  0.5975  1.0221
34711SOL    HW211184   4.419  10.021   4.477  1.3948 -1.7919 -0.2184
34712SOL     OW11185   1.908   9.236   4.511  0.2762  0.3082  0.4669
34712SOL    HW111186   1.864   9.266   4.431 -2.1967 -0.7678  1.3512
34712SOL    HW211187   1.936   9.147   4.491  1.2829  0.6643  0.2278
34713SOL     OW11188   6.491   0.095   5.756 -0.1392 -0.6578 -0.3131
34713SOL    HW111189   6.569   0.081   5.702 -0.2138  0.3152 -0.6765
34713SOL    HW211190   6.419   0.101   5.694 -0.3545 -0.4573 -0.0451
34714SOL     OW11191   1.092   4.133   3.557  0.0810 -0.3587 -0.0404
34714SOL    HW111192   1.138   4.084   3.489  0.0889 -0.4742  0.0472
34714SOL    HW211193   1.125   4.097   3.639  0.3149  0.0078  0.0264
34715SOL     OW11194   0.238   5.321   3.845  0.2957  0.0005  0.4346
34715SOL    HW111195   0.319   5.298   3.891 -0.1055 -2.0025  0.2189
34715SOL    HW211196   0.176   5.252   3.869 -0.9676  0.7936 -0.4113
34716SOL     OW11197   1.544   1.949  12.090  0.8267 -0.5023  0.0874
34716SOL    HW111198   1.615   1.927  12.150  0.7987 -3.1143 -0.7079
34716SOL    HW211199   1.479   1.993  12.145  2.6457  1.2023  0.9879
34717SOL     OW11200   1.074   4.136   0.922  0.0591  0.1819 -0.2158
34717SOL    HW111201   1.153   4.081   0.917  0.7664  1.1663 -0.2363
34717SOL    HW211202   1.093   4.209   0.863 -1.3971 -0.1871 -1.1859
34718SOL     OW11203   6.075   0.522   3.305 -0.4989  0.4877 -0.1270
34718SOL    HW111204   6.136   0.465   3.352 -0.2667 -0.0453 -1.0435
34718SOL    HW211205   6.094   0.610   3.336 -1.0425  0.0643  1.5250
34719SOL     OW11206   5.053  12.168   7.764 -0.1000 -0.2773  0.2073
34719SOL    HW111207   5.131  12.217   7.738 -0.7284  0.2172 -0.8660
34719SOL    HW211208   5.086  12.094   7.815  0.9357  0.8699  1.2699
34720SOL     OW11209   5.810   4.715   1.809  0.5134  0.4178  0.0885
34720SOL    HW111210   5.764   4.636   1.836  1.2013 -0.3720 -0.9837
34720SOL    HW211211   5.780   4.730   1.719  0.9198  0.9787  0.0418
34721SOL     OW11212  11.360   1.518  10.930  0.4617 -0.2518  0.0241
34721SOL    HW111213  11.369   1.572  10.851  0.6724  0.3555  0.4565
34721SOL    HW211214  11.436   1.459  10.927  1.2663  0.7157  0.4801
34722SOL     OW11215  12.248   2.674   8.536  0.1902  0.0217  0.2395
34722SOL    HW111216  12.263   2.622   8.615  1.6930 -1.4684 -0.9353
34722SOL    HW211217  12.154   2.667   8.520  0.0854 -0.8389  1.1348
34723SOL     OW11218   7.110   1.378   6.304 -0.6923  0.5805  0.0184
34723SOL    HW111219   7.097   1.424   6.387 -1.5924  1.9461 -0.8298
34723SOL    HW211220   7.071   1.436   6.238  0.9152  0.0478 -1.4937
34724SOL     OW11221  11.498   7.050   2.972 -0.3745  0.8639  0.3997
34724SOL    HW111222  11.504   7.144   2.991 -1.1814  0.6756  1.7257
34724SOL    HW211223  11.547   7.008   3.042  0.2129  0.2985 -0.3420
34725SOL     OW11224   3.995   7.628  12.469 -0.3739  0.4488  0.1038
34725SOL    HW111225   4.065   7.569  12.443  0.9248  2.5520 -1.5209
34725SOL    HW211226   3.983   7.612  12.563  0.9743 -1.2358  0.0406
34726SOL     OW11227   6.198   4.130   2.410 -0.0098 -0.2308  0.4724
34726SOL    HW111228   6.178   4.152   2.318 -1.8785  0.6270  1.0293
34726SOL    HW211229   6.115   4.141   2.455  0.8553 -0.7819  2.2673
34727SOL     OW11230   1.608  11.913   7.652  0.1408 -0.0827 -0.2671
34727SOL    HW111231   1.658  11.982   7.608 -1.6189  1.1777 -0.3744
34727SOL    HW211232   1.646  11.908   7.739 -0.4194  1.8489  0.1212
34728SOL     OW11233   8.699  11.011  10.141 -0.3759 -0.6755 -0.9296
34728SOL    HW111234   8.615  10.965  10.137 -1.1571  0.5141  0.7391
34728SOL    HW211235   8.684  11.083  10.203  2.3258 -1.3379  0.6199
34729SOL     OW11236   0.228   3.802   1.577 -0.0372 -0.3154 -0.2888
34729SOL    HW111237   0.175   3.765   1.648 -2.3637 -3.3597 -3.2767
34729SOL    HW211238   0.165   3.846   1.521  1.4940  0.6619 -1.3125
34730SOL     OW11239   6.990   1.763   5.732  0.0396  0.1409  0.0139
34730SOL    HW111240   7.055   1.693   5.730 -1.0811 -1.0340  1.7641
34730SOL    HW211241   6.953   1.765   5.644  1.5008 -0.0352 -0.6348
34731SOL     OW11242  11.489   7.943   5.872 -0.4332  0.1749  0.1657
34731SOL    HW111243  11.465   7.853   5.892  2.2188 -0.6403 -0.0597
34731SOL    HW211244  11.527   7.977   5.954  1.0499  0.1683 -0.4913
34732SOL     OW11245  10.990  10.209   8.669 -0.2193 -0.0115  0.3300
34732SOL    HW111246  11.005  10.260   8.590 -1.5761 -0.4339 -0.2325
34732SOL    HW211247  10.905  10.239   8.701 -1.2711 -2.1224 -0.2532
34733SOL     OW11248   4.579   9.873   2.546  0.1617 -0.0605 -0.3812
34733SOL    HW111249   4.657   9.922   2.520  1.0216 -1.1458  0.0724
34733SOL    HW211250   4.534   9.855   2.463 -1.9494  4.1629 -0.4207
34734SOL     OW11251   8.544  12.092  11.940 -0.2617 -0.0258 -0.1350
34734SOL    HW111252   8.583  12.165  11.987 -1.0424  0.6739 -0.5324
34734SOL    HW211253   8.454  12.120  11.924 -0.9776 -1.6266  0.8618
34735SOL     OW11254   1.320   8.186   4.778 -0.3977 -0.1308  0.6422
34735SOL    HW111255   1.288   8.206   4.690 -0.5562 -0.2333  0.6746
34735SOL    HW211256   1.408   8.223   4.781 -0.2902 -0.3571  0.3490
34736SOL     OW11257   6.169   6.447   9.475  0.2917  0.4607 -0.0215
34736SOL    HW111258   6.161   6.366   9.425  0.6780  0.0752  0.5266
34736SOL    HW211259   6.189   6.418   9.564 -0.6109  1.1170  0.4152
34737SOL     OW11260   4.330   5.665   3.925 -0.2162 -0.0588  0.0008
34737SOL    HW111261   4.287   5.648   3.841  0.3844  0.5959 -0.4504
34737SOL    HW211262   4.421   5.683   3.902 -0.4388  2.0548  0.5816
34738SOL     OW11263   9.165   1.279   9.848 -0.2444  0.1588  0.1254
34738SOL    HW111264   9.161   1.270   9.753 -1.2047 -0.7465  0.2292
34738SOL    HW211265   9.154   1.190   9.881 -0.7583  0.5630  1.0995
34739SOL     OW11266   6.046   2.789   1.931  0.1242  0.1608 -0.0165
34739SOL    HW111267   5.987   2.831   1.993  0.5259  1.6329 -0.5957
34739SOL    HW211268   6.074   2.708   1.975 -1.7032 -0.1902  0.5682
34740SOL     OW11269  11.087   4.729   3.697 -0.1479 -0.4631 -0.1396
34740SOL    HW111270  11.150   4.769   3.756  0.0383  0.3488 -0.8803
34740SOL    HW211271  11.139   4.674   3.638 -0.2877 -0.9128  0.1496
34741SOL     OW11272   8.828   2.016   1.095 -0.1880  0.6620  0.0904
34741SOL    HW111273   8.807   2.022   1.002  1.1742 -0.4433 -0.3267
34741SOL    HW211274   8.897   2.082   1.108  0.7673 -0.2694 -0.0767
34742SOL     OW11275   3.462  10.276   7.248  0.3850  0.0257 -0.8624
34742SOL    HW111276   3.520  10.216   7.201  1.2769  1.1285 -1.2148
34742SOL    HW211277   3.516  10.354   7.264  0.4593 -0.5985  2.8479
34743SOL     OW11278   4.428   4.896   3.046  0.2783  0.1006  0.3400
34743SOL    HW111279   4.461   4.984   3.063 -1.4924  0.9478 -0.4406
34743SOL    HW211280   4.454   4.845   3.123 -1.2412  2.0279  2.2334
34744SOL     OW11281   3.698   6.401   3.933 -0.4094 -0.2663  0.2243
34744SOL    HW111282   3.699   6.384   3.838 -1.2152 -0.6092  0.2735
34744SOL    HW211283   3.700   6.497   3.939  1.0278 -0.2456 -0.1014
34745SOL     OW11284  12.174   6.011  10.276 -0.4463  0.0825  0.1677
34745SOL    HW111285  12.267   5.990  10.280 -0.7474 -1.5116 -0.3659
34745SOL    HW211286  12.148   5.988  10.187 -0.7674  3.3421 -0.6878
34746SOL     OW11287   1.299  11.761  12.558 -0.0755  0.6146  0.3381
34746SOL    HW111288   1.308  11.687  12.618  1.0785  1.3538  1.1225
34746SOL    HW211289   1.205  11.775  12.550 -0.4079 -1.8448 -0.9909
34747SOL     OW11290   6.918   8.906   4.129 -0.0017 -0.8338  0.1720
34747SOL    HW111291   6.900   8.908   4.035 -1.2602  1.2929  0.3836
34747SOL    HW211292   7.000   8.954   4.139  0.1565 -1.1015  0.1466
34748SOL     OW11293   4.148   1.413  10.865 -0.5660 -0.3484 -0.1267
34748SOL    HW111294   4.220   1.415  10.801 -0.7956 -0.3564 -0.3884
34748SOL    HW211295   4.116   1.323  10.863 -0.5462 -0.3584  0.0298
34749SOL     OW11296  10.567   1.084   1.217 -0.4906 -0.8723  0.1416
34749SOL    HW111297  10.565   0.997   1.257 -0.4734 -0.7278  0.4585
34749SOL    HW211298  10.635   1.131   1.265  0.0895 -0.9486 -0.5856
34750SOL     OW11299   9.217   9.142   3.822 -0.2154 -0.6043  0.0371
34750SOL    HW111300   9.204   9.230   3.784  0.1077 -0.4551  0.2720
34750SOL    HW211301   9.129   9.106   3.827 -0.4131 -0.0749  0.4595
34751SOL     OW11302   8.797   5.843   1.427 -0.2156 -0.0337  0.1546
34751SOL    HW111303   8.719   5.796   1.396  1.3054 -2.6674  0.0057
34751SOL    HW211304   8.839   5.875   1.348 -0.3231 -0.0171  0.1043
34752SOL     OW11305   0.933   7.099   1.637  0.5537  0.0978  0.0439
34752SOL    HW111306   0.888   7.095   1.553 -0.4063  0.4787  0.5211
34752SOL    HW211307   0.932   7.191   1.661  0.2933 -0.0749  0.7330
34753SOL     OW11308   5.508  10.883  10.900  0.1744 -0.0011  0.3351
34753SOL    HW111309   5.522  10.928  10.984  0.6323 -0.2283  0.3829
34753SOL    HW211310   5.596  10.872  10.864  0.0592 -0.8138  0.3008
34754SOL     OW11311  11.963   0.547   3.841  0.5963  0.2995  0.1068
34754SOL    HW111312  11.921   0.596   3.770 -2.3501 -1.7830  0.2454
34754SOL    HW211313  12.012   0.478   3.797 -0.9629 -0.7919  0.0258
34755SOL     OW11314   5.018   3.764   6.518  0.5124 -0.2977  0.8167
34755SOL    HW111315   5.093   3.789   6.465  0.5513 -2.3285 -0.1855
34755SOL    HW211316   5.009   3.670   6.504  0.1782 -0.8509  4.0094
34756SOL     OW11317   0.796   7.987  12.439  0.0874 -0.0271 -0.1363
34756SOL    HW111318   0.815   8.069  12.394 -0.0962 -0.2215 -0.5778
34756SOL    HW211319   0.785   7.923  12.369  0.5578 -0.5051  0.2160
34757SOL     OW11320   2.200   4.756   9.434 -0.2460  1.4224 -0.1547
34757SOL    HW111321   2.135   4.690   9.413 -0.1582  1.2496  0.1141
34757SOL    HW211322   2.283   4.708   9.440 -0.1663  1.5689 -0.0616
34758SOL     OW11323   2.415  10.864   9.176 -0.1021  0.6103  0.0086
34758SOL    HW111324   2.435  10.835   9.265 -0.2298 -0.4012 -0.2809
34758SOL    HW211325   2.374  10.950   9.187 -0.7537  0.1876  0.9755
34759SOL     OW11326   4.051   0.898   0.777  0.9580  0.1043  0.0372
34759SOL    HW111327   3.967   0.858   0.800 -0.1303  0.1031 -3.3183
34759SOL    HW211328   4.063   0.968   0.841  0.2905 -2.1835  2.8294
34760SOL     OW11329  11.056   0.946   4.376 -0.5247 -0.1657  0.5952
34760SOL    HW111330  11.133   0.918   4.425 -0.0320  1.0308  0.5294
34760SOL    HW211331  11.051   1.041   4.390  0.0172  0.3578 -2.1705
34761SOL     OW11332   2.563   8.431   8.556 -0.5883  0.2734 -0.1628
34761SOL    HW111333   2.615   8.446   8.635  0.0792 -1.7007 -0.1788
34761SOL    HW211334   2.625   8.441   8.484 -0.0116 -2.4796 -0.1638
34762SOL     OW11335   3.048   3.843   8.257  0.2493 -0.1195  0.1726
34762SOL    HW111336   3.138   3.854   8.288  0.0150  3.3918 -0.0434
34762SOL    HW211337   3.050   3.760   8.209  3.1943 -0.4696  0.6689
34763SOL     OW11338   3.125   7.140   2.459  0.0272 -0.4676 -0.1197
34763SOL    HW111339   3.196   7.075   2.458  0.0461 -0.4472 -0.0912
34763SOL    HW211340   3.153   7.206   2.396  2.6417  2.3788  3.6163
34764SOL     OW11341   2.569   3.732   9.007  0.8435 -0.3088  0.1840
34764SOL    HW111342   2.551   3.692   8.921 -0.2511  1.1189 -0.3003
34764SOL    HW211343   2.576   3.826   8.989 -0.1310  0.1020  1.7432
34765SOL     OW11344   4.414   2.122   8.352  0.0243 -0.5986 -0.2967
34765SOL    HW111345   4.382   2.170   8.275 -1.5376 -0.5574  0.3492
34765SOL    HW211346   4.344   2.061   8.373  0.0302  0.0098  1.6438
34766SOL     OW11347   6.986   3.609   1.030  0.7008  0.0864  0.1619
34766SOL    HW111348   6.922   3.595   1.099 -0.6484 -1.6888 -1.3434
34766SOL    HW211349   7.056   3.547   1.049  0.0743 -0.7885 -0.3204
34767SOL     OW11350   2.542   6.860   0.030  0.1164 -0.1403  0.1618
34767SOL    HW111351   2.508   6.909  -0.044 -1.1196  0.3678  1.0446
34767SOL    HW211352   2.487   6.885   0.104 -0.9728 -3.2445  0.5565
34768SOL     OW11353   9.711   4.066   2.785 -0.2360  0.1131 -0.2223
34768SOL    HW111354   9.651   4.109   2.846  0.8137  1.1547  0.1139
34768SOL    HW211355   9.797   4.099   2.810  0.4751 -1.3449 -0.7041
34769SOL     OW11356   6.386   4.725   6.040 -0.2847 -0.3566 -0.1624
34769SOL    HW111357   6.472   4.738   6.080 -0.0720  0.8387 -0.9456
34769SOL    HW211358   6.397   4.649   5.983 -0.8470 -2.6679  2.6391
34770SOL     OW11359  11.625   0.010   4.846 -0.0078  0.1185  0.2638
34770SOL    HW111360  11.564  -0.022   4.912  0.1966 -0.2277  0.2879
34770SOL    HW211361  11.604  -0.039   4.767 -2.1596  2.5111 -0.7763
34771SOL     OW11362   7.204  12.062   0.229  0.3382  0.3613  0.0053
34771SOL    HW111363   7.171  12.100   0.148  0.5944  1.6885  0.5082
34771SOL    HW211364   7.169  12.118   0.298  0.6002 -0.4134  0.7838
34772SOL     OW11365   5.957  12.167   9.882 -0.2783 -0.0538  0.3005
34772SOL    HW111366   5.973  12.251   9.840 -0.5481  0.4946  1.2787
34772SOL    HW211367   6.043  12.125   9.884  0.0916  0.7108  0.8825
34773SOL     OW11368   2.082   5.545   0.003 -0.3153 -0.5094 -0.0834
34773SOL    HW111369   2.057   5.534   0.094  1.2108 -0.9993  0.2998
34773SOL    HW211370   2.069   5.459  -0.036 -1.5427 -0.1575 -0.5073
34774SOL     OW11371   9.184   1.201  11.827 -0.1268 -0.1105 -0.3548
34774SOL    HW111372   9.124   1.200  11.902 -0.6283  0.7556 -0.7108
34774SOL    HW211373   9.127   1.187  11.751  0.1805  0.2712 -0.6647
34775SOL     OW11374   2.865   9.075   0.250  0.7567 -0.3499 -0.4492
34775SOL    HW111375   2.912   9.117   0.323  3.2110 -1.4625 -1.2620
34775SOL    HW211376   2.799   9.139   0.224  0.6331  0.6114  1.8994
34776SOL     OW11377   8.329   0.857   4.286 -0.5189 -0.0488  0.0971
34776SOL    HW111378   8.341   0.832   4.378  0.7320  0.7560  0.1840
34776SOL    HW211379   8.261   0.798   4.254 -0.9471 -0.3786  1.5248
34777SOL     OW11380   9.201  10.323   4.627 -0.1802 -0.4350 -0.3674
34777SOL    HW111381   9.242  10.286   4.705  0.1871  0.0082 -0.3436
34777SOL    HW211382   9.275  10.341   4.568 -0.3860 -0.0749 -0.5177
34778SOL     OW11383   8.917   2.739  11.802 -0.6482  0.3133  0.2761
34778SOL    HW111384   8.920   2.831  11.775 -1.8338  0.2045 -0.2643
34778SOL    HW211385   8.827   2.725  11.832 -0.2662 -0.4653  1.1385
34779SOL     OW11386   5.139   8.242   5.421  0.1358 -0.0989 -0.4044
34779SOL    HW111387   5.192   8.256   5.499 -1.1383  0.8890  0.3274
34779SOL    HW211388   5.064   8.191   5.451 -1.2225  1.6979 -0.5635
34780SOL     OW11389   0.568   5.416   7.235 -0.8953  0.6154 -0.3958
34780SOL    HW111390   0.633   5.364   7.283 -1.5334 -1.3130 -1.5022
34780SOL    HW211391   0.610   5.501   7.222  0.8751 -0.1350  0.0818
34781SOL     OW11392   2.877   9.901   1.836 -0.0531 -0.3844  0.9037
34781SOL    HW111393   2.849   9.983   1.877  0.8332 -0.1074  0.9697
34781SOL    HW211394   2.795   9.855   1.819 -1.0922  2.4511 -3.3771
34782SOL     OW11395   7.619   4.202   2.695  0.0124 -0.0001  0.1317
34782SOL    HW111396   7.639   4.274   2.635 -0.4434 -0.8466 -1.0912
34782SOL    HW211397   7.535   4.168   2.664  0.3108 -1.1708  0.5588
34783SOL     OW11398   8.186   7.670   0.340  0.6880  0.0103 -0.1451
34783SOL    HW111399   8.257   7.618   0.302  1.1296  1.3347 -1.2395
34783SOL    HW211400   8.215   7.689   0.429  1.8535  0.7149 -0.6501
34784SOL     OW11401   2.452   0.231  10.276  0.8057  0.1948 -0.3854
34784SOL    HW111402   2.477   0.293  10.344  1.9942  0.5122 -1.0865
34784SOL    HW211403   2.463   0.145  10.316 -0.6014  0.3954  0.5057
34785SOL     OW11404   5.685   0.402  12.119  0.2931 -0.0733  0.0586
34785SOL    HW111405   5.656   0.347  12.046 -2.8991  1.3241  0.1200
34785SOL    HW211406   5.753   0.349  12.163 -0.8226 -2.8632 -1.3062
34786SOL     OW11407   1.934  10.514   2.931  0.1547  0.1881 -0.5677
34786SOL    HW111408   1.934  10.544   2.840 -0.3965 -0.7486 -0.8919
34786SOL    HW211409   2.006  10.562   2.972  1.3577 -0.4403 -1.8563
34787SOL     OW11410  11.926   8.650   3.107  0.1254  0.2308  0.1684
34787SOL    HW111411  12.013   8.648   3.146  0.1983 -0.1380 -0.0004
34787SOL    HW211412  11.942   8.645   3.012 -0.0679  0.4589  0.1228
34788SOL     OW11413   3.997   7.432   1.471  0.1504  0.4372 -0.2608
34788SOL    HW111414   3.949   7.352   1.450  1.3752 -0.5306  0.4435
34788SOL    HW211415   4.055   7.447   1.396  0.5303  0.1593 -0.0292
34789SOL     OW11416   5.150   5.496   1.045 -0.1613 -0.1951 -0.4588
34789SOL    HW111417   5.182   5.412   1.078 -0.5863  0.0920  0.7100
34789SOL    HW211418   5.056   5.495   1.063  0.1149  1.3032  1.3574
34790SOL     OW11419   9.229  12.008   7.595  0.6003 -0.9502  0.1238
34790SOL    HW111420   9.280  11.987   7.674  1.2935  0.4741  0.0893
34790SOL    HW211421   9.140  12.023   7.627  1.0088  0.2527  0.7458
34791SOL     OW11422  10.674   4.362   0.682 -0.2765 -0.6855  0.0084
34791SOL    HW111423  10.745   4.396   0.737  0.6118  0.0060 -1.4728
34791SOL    HW211424  10.688   4.267   0.680  1.0244 -0.5025 -0.7615
34792SOL     OW11425  11.987   1.424   1.185 -0.1489  0.1875  0.5104
34792SOL    HW111426  12.033   1.370   1.248 -1.3654 -1.3199  0.1674
34792SOL    HW211427  12.034   1.507   1.184  0.7089 -0.2541  2.3605
34793SOL     OW11428   6.078   5.470   1.019 -0.6194  0.0539 -0.2872
34793SOL    HW111429   6.043   5.469   1.108 -1.5378  0.4898 -0.6293
34793SOL    HW211430   6.094   5.562   1.000  0.9104 -0.1429 -0.0859
34794SOL     OW11431   7.245  10.597  10.435 -0.2841 -0.4267  0.5478
34794SOL    HW111432   7.290  10.655  10.373  0.7647 -0.5817  1.1402
34794SOL    HW211433   7.260  10.509  10.401 -2.1679 -0.3740 -0.5400
34795SOL     OW11434   0.993   8.407   7.288 -0.1362 -0.5204 -0.0294
34795SOL    HW111435   0.964   8.342   7.224  0.5380  0.1630 -1.0548
34795SOL    HW211436   0.915   8.425   7.341 -1.9491  1.7910 -3.1338
34796SOL     OW11437   1.011   3.942   4.301 -0.0983  0.4603 -0.3870
34796SOL    HW111438   1.089   3.957   4.355 -0.2175 -0.2352 -0.0064
34796SOL    HW211439   0.955   4.017   4.319 -0.7567 -0.4218  1.5945
34797SOL     OW11440   8.437   2.900   7.735  0.0864 -0.4864 -0.4321
34797SOL    HW111441   8.408   2.933   7.820 -0.9700 -3.0852  0.3199
34797SOL    HW211442   8.380   2.945   7.672 -0.5184 -0.0493  0.4058
34798SOL     OW11443   7.967   3.045   6.446 -0.5640  0.9330 -0.3399
34798SOL    HW111444   7.881   3.081   6.469 -0.8485  1.0204 -1.4570
34798SOL    HW211445   7.948   2.956   6.416 -0.2569  0.9213 -0.5045
34799SOL     OW11446   6.410   9.313   5.005  0.2337 -0.6203  0.0836
34799SOL    HW111447   6.389   9.236   4.953  1.5930 -0.3375 -0.9523
34799SOL    HW211448   6.344   9.378   4.981 -1.9426 -1.9062  2.1947
34800SOL     OW11449  11.423   5.448   6.644 -0.4439  0.0969 -0.2175
34800SOL    HW111450  11.517   5.452   6.661 -0.6023  1.3406  0.4905
34800SOL    HW211451  11.415   5.452   6.549  0.2131 -0.1046 -0.2848
34801SOL     OW11452   2.521   3.243  12.242 -0.0819  0.9865 -0.5066
34801SOL    HW111453   2.574   3.318  12.269 -1.1248  0.2767  4.4189
34801SOL    HW211454   2.430   3.271  12.255 -0.5135 -0.9204  1.0654
34802SOL     OW11455   1.654   8.065   1.922 -0.7673 -0.2261 -0.0421
34802SOL    HW111456   1.679   8.128   1.990 -1.3193 -1.7245  1.6048
34802SOL    HW211457   1.736   8.021   1.899 -0.5812  0.2830 -0.3964
34803SOL     OW11458   5.285   0.431  12.384 -0.8793  0.0231 -0.4913
34803SOL    HW111459   5.335   0.369  12.331  1.5189  0.2975  1.2755
34803SOL    HW211460   5.325   0.516  12.365  0.6555  0.0267  2.2502
34804SOL     OW11461   9.810   2.373  10.028  0.1994  0.4293  0.0452
34804SOL    HW111462   9.808   2.307  10.098 -1.0171 -0.3647 -0.7140
34804SOL    HW211463   9.743   2.345   9.966  0.9810  1.3452 -1.2551
34805SOL     OW11464   5.949   3.739   5.217  0.2209 -0.2784 -0.4006
34805SOL    HW111465   5.901   3.812   5.258  0.7147 -0.5840  0.7614
34805SOL    HW211466   5.891   3.709   5.147  0.0418  1.2766 -0.9515
34806SOL     OW11467   1.184   7.910   1.920  0.1499  0.3326  0.1532
34806SOL    HW111468   1.101   7.865   1.937 -0.9362  1.7125 -1.1848
34806SOL    HW211469   1.224   7.918   2.007 -1.1809 -0.2169  0.8670
34807SOL     OW11470   8.968   8.339   4.721 -0.5092 -0.1721  0.1158
34807SOL    HW111471   8.926   8.322   4.805  1.1617  0.1094  1.0510
34807SOL    HW211472   8.979   8.253   4.681 -1.5007 -0.2861  0.0574
34808SOL     OW11473   4.919   2.867   0.651 -0.3106  0.0666 -0.4715
34808SOL    HW111474   4.924   2.962   0.646  1.1015  0.0210 -0.2752
34808SOL    HW211475   5.002   2.840   0.689 -0.8809 -1.2260 -0.0675
34809SOL     OW11476   0.046   5.080   2.900  0.0596  0.2439  0.1036
34809SOL    HW111477   0.098   5.157   2.878  0.1538  0.4219  0.9187
34809SOL    HW211478  -0.033   5.088   2.847  1.2296 -0.5152 -1.8766
34810SOL     OW11479   8.141   1.041   7.544  0.6833 -0.1143  0.3753
34810SOL    HW111480   8.198   1.098   7.492  0.2959  0.2100  0.2968
34810SOL    HW211481   8.185   0.957   7.543  0.3712 -0.2983 -1.0580
34811SOL     OW11482  10.632   7.052  11.191  0.3467  0.5281  0.2002
34811SOL    HW111483  10.695   7.009  11.249 -0.4885 -1.2140 -0.1093
34811SOL    HW211484  10.646   7.011  11.105 -0.6575  0.6770 -0.0566
34812SOL     OW11485   3.204  12.268   7.745 -0.1522  0.1159 -0.2162
34812SOL    HW111486   3.119  12.235   7.718  0.4162 -1.2935 -0.3574
34812SOL    HW211487   3.267  12.203   7.713  0.9535  0.9578  0.1619
34813SOL     OW11488  12.027   8.170   4.080  0.1713  0.2716  0.4879
34813SOL    HW111489  11.998   8.082   4.105 -0.8077  0.5660  0.4301
34813SOL    HW211490  12.048   8.162   3.987  0.1489  0.0836  0.4982
34814SOL     OW11491   0.046   2.810   1.517 -0.2218  0.2854 -0.1118
34814SOL    HW111492   0.123   2.774   1.472 -0.5189 -0.0678 -0.3436
34814SOL    HW211493   0.076   2.829   1.605  0.6335  1.8301 -0.6816
34815SOL     OW11494  11.832   3.086   7.117  0.0886 -0.1432 -0.3040
34815SOL    HW111495  11.915   3.096   7.163  0.1437 -1.9968  0.0888
34815SOL    HW211496  11.825   3.163   7.062  1.1203  1.0182  1.1177
34816SOL     OW11497  10.764   6.711   5.983  0.2291 -0.1743  0.5180
34816SOL    HW111498  10.778   6.700   5.889  1.6108  0.0379  0.6674
34816SOL    HW211499  10.818   6.642   6.023  0.3510  0.2906  1.1671
34817SOL     OW11500   4.197   7.316   6.788  0.0644  0.6736  0.2023
34817SOL    HW111501   4.215   7.391   6.730  1.0856  2.2393  2.3757
34817SOL    HW211502   4.280   7.268   6.790  0.5004  1.4288  1.3883
34818SOL     OW11503   1.734  11.337   0.844  0.1272 -0.2966  0.5293
34818SOL    HW111504   1.801  11.287   0.891 -0.9111 -1.2778  0.9952
34818SOL    HW211505   1.701  11.399   0.909 -0.2274 -0.6097  0.6526
34819SOL     OW11506   8.461   1.771  11.604  0.2824  0.4946 -0.3123
34819SOL    HW111507   8.395   1.823  11.650  0.7041 -0.2355  1.1551
34819SOL    HW211508   8.521   1.836  11.566  0.3629  1.1017  0.8264
34820SOL     OW11509   0.398   0.187  12.025 -0.1734 -0.2150 -0.3487
34820SOL    HW111510   0.481   0.197  12.072 -0.3114  0.4325 -0.2309
34820SOL    HW211511   0.423   0.158  11.938  0.1635 -0.2746 -0.2361
34821SOL     OW11512  11.474   9.360  10.629 -0.2662  0.0349  0.3998
34821SOL    HW111513  11.565   9.330  10.631  0.0728  0.9932 -0.0892
34821SOL    HW211514  11.478   9.445  10.585 -1.3467  0.2716  0.7359
34822SOL     OW11515  12.036   2.526   3.443  0.1381 -0.3783  0.4728
34822SOL    HW111516  12.038   2.606   3.390 -1.9720 -1.3889 -1.3254
34822SOL    HW211517  12.104   2.471   3.404  2.2037  0.7665  2.2737
34823SOL     OW11518   7.510   0.275   0.970  0.2571 -0.2066 -0.2734
34823SOL    HW111519   7.510   0.329   0.891 -0.0288 -0.3793 -0.3935
34823SOL    HW211520   7.579   0.312   1.025 -1.0213  1.3299  0.3634
34824SOL     OW11521   9.394   2.081  11.759 -0.5641 -0.2346  0.4348
34824SOL    HW111522   9.374   2.154  11.699  1.4291  0.4634  0.5586
34824SOL    HW211523   9.311   2.035  11.769 -1.5584  1.2182 -0.7453
34825SOL     OW11524   5.310  10.827   3.767 -0.4527  0.2706 -0.5164
34825SOL    HW111525   5.360  10.851   3.689  2.0687 -3.1894 -0.2217
34825SOL    HW211526   5.227  10.874   3.758  0.4365  1.4667 -4.3042
34826SOL     OW11527   1.622   9.720  11.496  0.1900  0.3802 -0.1394
34826SOL    HW111528   1.575   9.758  11.422  2.2584  0.5658 -1.4513
34826SOL    HW211529   1.714   9.738  11.477  0.9500 -1.5681  1.3460
34827SOL     OW11530   7.571   5.842   8.615 -0.0681  0.1666  0.0710
34827SOL    HW111531   7.571   5.823   8.521 -2.3210 -1.4895  0.3105
34827SOL    HW211532   7.650   5.799   8.648 -1.3198 -2.8394 -0.5406
34828SOL     OW11533   1.836   5.658   1.509  0.4946 -0.2165 -0.1614
34828SOL    HW111534   1.931   5.662   1.494  0.6954 -0.6824  0.8557
34828SOL    HW211535   1.824   5.710   1.589 -0.5532  2.5412 -1.9555
34829SOL     OW11536  12.193   2.828   5.137  0.4622 -0.9752 -0.1718
34829SOL    HW111537  12.211   2.921   5.153  2.5479 -1.6984  2.5254
34829SOL    HW211538  12.276   2.792   5.104 -0.5718 -1.7816 -2.0393
34830SOL     OW11539   4.473  10.589   8.192  0.3691  0.5323  0.5611
34830SOL    HW111540   4.461  10.655   8.124  1.9151  0.7019  0.4185
34830SOL    HW211541   4.410  10.520   8.169 -0.4916  1.4431  0.0862
34831SOL     OW11542  10.381   1.777  12.589 -0.4749  0.4422 -0.4153
34831SOL    HW111543  10.413   1.805  12.675  1.1822 -1.2675 -0.3996
34831SOL    HW211544  10.290   1.806  12.586  0.3199  3.3419  0.6101
34832SOL     OW11545   5.755   2.459   7.575 -0.0246 -0.4366  0.2353
34832SOL    HW111546   5.815   2.429   7.506 -0.2564 -0.4729  0.0481
34832SOL    HW211547   5.715   2.379   7.608  0.7399 -0.5078  1.0285
34833SOL     OW11548   1.589   6.307   3.390  0.1041 -0.0774 -0.1957
34833SOL    HW111549   1.501   6.275   3.412  0.1309  0.1416  0.2503
34833SOL    HW211550   1.615   6.359   3.466  1.2336 -1.3907  0.3805
34834SOL     OW11551   8.006   3.775  11.387 -0.2265 -0.4359 -0.1662
34834SOL    HW111552   7.981   3.783  11.295  0.0936  2.8564 -0.0855
34834SOL    HW211553   7.934   3.817  11.435  0.5150 -0.3389  0.9011
34835SOL     OW11554  11.926   7.404   0.203 -0.4773 -0.4468  0.3755
34835SOL    HW111555  11.947   7.476   0.143  2.9944 -1.7596 -0.2421
34835SOL    HW211556  11.867   7.348   0.153 -0.7295  0.4115 -0.3144
34836SOL     OW11557  11.247   4.840  11.594 -0.6892  0.2030 -0.0233
34836SOL    HW111558  11.172   4.817  11.649 -0.4069 -1.5067 -0.2900
34836SOL    HW211559  11.323   4.827  11.651 -0.5553  1.8457  0.2215
34837SOL     OW11560   7.440  11.771   8.081  0.1695 -0.0888 -0.4505
34837SOL    HW111561   7.439  11.707   8.152 -0.8924 -0.9456 -1.2158
34837SOL    HW211562   7.389  11.845   8.114  1.8253  0.6347  0.6335
34838SOL     OW11563  12.136  12.138   4.719 -0.5940  0.0024 -0.2371
34838SOL    HW111564  12.044  12.154   4.738 -0.0463  2.0909  1.0375
34838SOL    HW211565  12.171  12.097   4.798  0.0765  1.6975  0.4106
34839SOL     OW11566   2.064   5.890   3.732  0.0363  0.5635 -0.1893
34839SOL    HW111567   1.977   5.860   3.703  0.4996 -1.6257  0.4989
34839SOL    HW211568   2.055   5.904   3.826  0.4510  0.1618 -0.0836
34840SOL     OW11569   6.487   4.903  12.112  0.0171 -0.3214 -0.4647
34840SOL    HW111570   6.533   4.822  12.136  1.6414  0.5729 -0.3964
34840SOL    HW211571   6.551   4.972  12.129 -1.2157  0.9531 -0.8568
34841SOL     OW11572   6.989   0.727   9.399 -0.7792  0.2861 -0.3993
34841SOL    HW111573   6.935   0.660   9.440 -2.2586  1.3092 -0.5895
34841SOL    HW211574   7.010   0.787   9.471  1.3732 -0.8509 -0.0169
34842SOL     OW11575   4.653  12.533   4.112 -0.2435  0.2426 -0.2833
34842SOL    HW111576   4.688  12.620   4.095 -1.7795  1.8392  3.5556
34842SOL    HW211577   4.580  12.524   4.051 -0.6253  2.0663 -0.1326
34843SOL     OW11578   5.468   8.285   6.058 -0.3384 -0.3094 -0.3476
34843SOL    HW111579   5.508   8.328   6.133  1.2155 -2.1647 -0.0213
34843SOL    HW211580   5.374   8.285   6.078  0.0934 -1.5820  2.1431
34844SOL     OW11581   6.271  12.128   6.853  0.0414  0.0614 -0.1332
34844SOL    HW111582   6.180  12.103   6.836  0.1240  0.0022 -0.5034
34844SOL    HW211583   6.323  12.066   6.802  0.3369 -0.6673  1.0003
34845SOL     OW11584  10.893   4.835   9.801  0.7430  0.1191  0.1960
34845SOL    HW111585  10.830   4.780   9.754 -0.2091  1.9359 -0.7131
34845SOL    HW211586  10.945   4.877   9.733  0.8944  1.0019  0.8368
34846SOL     OW11587   7.300   3.993   2.044 -0.1765  0.2684 -0.8096
34846SOL    HW111588   7.331   4.083   2.058  1.7454  0.0655 -3.1756
34846SOL    HW211589   7.357   3.939   2.099 -0.1476  0.3504 -0.7580
34847SOL     OW11590   9.745  11.065   9.275 -0.5149 -0.1691 -0.2387
34847SOL    HW111591   9.831  11.048   9.313 -1.3817  1.1514  2.5182
34847SOL    HW211592   9.752  11.153   9.238 -0.2842 -0.6525 -1.3966
34848SOL     OW11593   0.136   6.017   8.908  0.0770 -0.6778 -0.2861
34848SOL    HW111594   0.219   6.048   8.872 -1.2603  2.3022 -1.1499
34848SOL    HW211595   0.125   6.066   8.989 -1.2291 -0.2985 -0.6591
34849SOL     OW11596   6.044   1.318  11.945  0.1349  0.4198 -0.2736
34849SOL    HW111597   6.013   1.228  11.936 -0.4623  0.5828  0.0973
34849SOL    HW211598   6.112   1.313  12.013  0.1495  0.2410 -0.2993
34850SOL     OW11599   8.737   4.466   8.938 -0.4224  0.0875  0.4369
34850SOL    HW111600   8.712   4.412   9.013  0.0025  0.6199  0.9768
34850SOL    HW211601   8.711   4.555   8.963  1.0122  0.4957  0.5687
34851SOL     OW11602   0.283   7.808  11.215 -0.2054 -1.0273  0.3895
34851SOL    HW111603   0.283   7.896  11.253  1.1148  0.3785 -2.5386
34851SOL    HW211604   0.191   7.790  11.197 -0.6214 -0.8164  2.1070
34852SOL     OW11605   7.105   7.070   1.643 -0.6861  0.3822  0.4692
34852SOL    HW111606   7.169   7.059   1.573 -2.4256 -0.7889 -1.0303
34852SOL    HW211607   7.146   7.130   1.704  2.1691 -0.9435  0.0090
34853SOL     OW11608   8.804   6.837   9.197 -0.3750 -0.2178  0.1396
34853SOL    HW111609   8.871   6.774   9.223  0.3329  0.5367  0.1773
34853SOL    HW211610   8.722   6.788   9.203  0.1496 -1.1061  0.2564
34854SOL     OW11611   1.947   7.691   7.661  0.5624 -0.1755 -0.2695
34854SOL    HW111612   1.939   7.774   7.708  0.2942 -1.0272  1.2680
34854SOL    HW211613   1.979   7.630   7.727  0.5946 -1.3288 -1.3322
34855SOL     OW11614   6.620  10.715  10.914  0.3194 -0.1455  0.0059
34855SOL    HW111615   6.540  10.680  10.953 -0.1216  2.0480  1.2487
34855SOL    HW211616   6.685  10.646  10.927 -0.4145 -0.4680  2.5661
34856SOL     OW11617  12.030   0.403   0.262  0.2057 -0.3209 -0.0580
34856SOL    HW111618  12.080   0.364   0.190 -0.7615 -0.8578 -0.4593
34856SOL    HW211619  12.097   0.444   0.318  0.9199  0.8691 -1.7022
34857SOL     OW11620  11.068   7.353   4.097  0.2686  0.0933  0.0677
34857SOL    HW111621  10.979   7.333   4.125 -0.0333 -0.4585 -1.1926
34857SOL    HW211622  11.122   7.340   4.175 -0.4471 -1.8550  0.2937
34858SOL     OW11623   0.868   3.604   2.835  0.9922  0.7941  0.0985
34858SOL    HW111624   0.860   3.551   2.914  3.0611 -1.7150 -1.2117
34858SOL    HW211625   0.797   3.668   2.842 -0.2760 -0.7163  2.8840
34859SOL     OW11626   3.305   2.985   5.286 -0.5906  0.5601 -0.3656
34859SOL    HW111627   3.372   3.051   5.302 -1.4411  1.7130 -1.4381
34859SOL    HW211628   3.348   2.920   5.231 -0.0382  0.7109 -0.1204
34860SOL     OW11629  12.068   7.869   9.994 -0.7139 -0.1152 -0.2678
34860SOL    HW111630  12.110   7.928  10.056 -0.6290 -0.0149 -0.4199
34860SOL    HW211631  12.109   7.784  10.010 -0.4912 -0.0294 -0.3805
34861SOL     OW11632   9.347   7.951   6.058  0.1625  0.1355 -0.3154
34861SOL    HW111633   9.416   7.904   6.105 -1.0495  0.0864  1.5105
34861SOL    HW211634   9.283   7.973   6.126 -1.8361 -0.2148 -1.9936
34862SOL     OW11635   0.683   7.998   9.425 -0.5799 -0.1370 -0.1159
34862SOL    HW111636   0.689   8.077   9.478  0.4603  0.1690 -0.6685
34862SOL    HW211637   0.685   7.926   9.488  0.8054  0.2089  0.2667
34863SOL     OW11638  10.407   3.421   8.560  0.6947 -0.1066  0.0063
34863SOL    HW111639  10.441   3.423   8.650  0.3887  0.5669  0.1101
34863SOL    HW211640  10.358   3.338   8.556 -0.9011  0.7231  1.0781
34864SOL     OW11641  10.978   6.272   7.018 -0.0543  0.2728 -0.2746
34864SOL    HW111642  10.897   6.227   7.043 -0.3417 -0.2810 -2.0654
34864SOL    HW211643  11.013   6.307   7.101 -1.1710 -1.0120  0.7791
34865SOL     OW11644   6.862  11.964  11.275  0.0899  0.4846  0.1400
34865SOL    HW111645   6.840  12.044  11.228  1.8576 -0.3427 -2.2502
34865SOL    HW211646   6.950  11.978  11.309  0.1314 -0.1949  0.3379
34866SOL     OW11647   7.497   2.130  10.119 -0.0722  0.4340 -0.2269
34866SOL    HW111648   7.471   2.038  10.124 -0.6265  0.6290  0.6149
34866SOL    HW211649   7.592   2.127  10.108  0.0571 -0.2373  0.8712
34867SOL     OW11650  11.337   6.288   9.940  0.4047  0.8124  0.1202
34867SOL    HW111651  11.388   6.211   9.916  0.0381 -0.6748  3.4364
34867SOL    HW211652  11.251   6.273   9.901  0.8433  0.4533 -0.7399
34868SOL     OW11653   8.812  11.396   8.707  0.0372  0.0763  0.3215
34868SOL    HW111654   8.747  11.465   8.719  1.0378  1.0430  0.3893
34868SOL    HW211655   8.860  11.422   8.628  0.9739 -0.0707  0.8220
34869SOL     OW11656   4.536   2.334   9.232  0.1171 -0.0567 -0.4705
34869SOL    HW111657   4.498   2.306   9.148 -0.8289 -1.8312  0.4859
34869SOL    HW211658   4.585   2.414   9.211 -1.9540  0.8345 -2.2886
34870SOL     OW11659   1.871   2.698  10.129 -0.5938 -0.2514  0.0156
34870SOL    HW111660   1.964   2.721  10.128 -0.6599  0.0142 -0.8690
34870SOL    HW211661   1.866   2.622  10.188  0.1674 -0.2180  0.1362
34871SOL     OW11662   2.359   9.252  10.500 -0.2461  0.4734 -0.4549
34871SOL    HW111663   2.385   9.161  10.515  0.1929  0.6775  0.0790
34871SOL    HW211664   2.271   9.247  10.463 -0.3244 -0.1566 -0.1880
34872SOL     OW11665   7.041  12.435   2.809  0.6250 -0.2131  0.1457
34872SOL    HW111666   6.997  12.394   2.734  1.6624 -0.1842 -0.4970
34872SOL    HW211667   7.122  12.470   2.773  0.4677  1.0850  0.9974
34873SOL     OW11668   9.851   3.353   0.886  0.9362 -0.1787 -0.3348
34873SOL    HW111669   9.769   3.322   0.846  0.9805 -0.0263 -0.5457
34873SOL    HW211670   9.868   3.437   0.843 -0.1377  1.0389  1.4599
34874SOL     OW11671   2.837   2.209   3.664  0.1438 -0.0408 -0.4094
34874SOL    HW111672   2.816   2.302   3.678  1.1033  0.2977 -1.1611
34874SOL    HW211673   2.792   2.187   3.583 -0.6032 -0.4156  0.0986
34875SOL     OW11674  12.293   0.696   2.891  0.0228  0.0773  0.5457
34875SOL    HW111675  12.266   0.680   2.801  0.3077 -0.2435  0.5134
34875SOL    HW211676  12.335   0.614   2.918 -0.4602  0.0048  1.1209
34876SOL     OW11677   8.915  10.046   6.989 -0.4629 -0.3865  0.1085
34876SOL    HW111678   8.966  10.016   6.914 -1.3843  1.4374 -1.3318
34876SOL    HW211679   8.980  10.063   7.057  0.7166  0.4381 -1.1782
34877SOL     OW11680  10.234   5.423   7.471 -0.1137 -0.2761 -0.1089
34877SOL    HW111681  10.294   5.481   7.518 -1.3915  0.6874  0.3679
34877SOL    HW211682  10.152   5.427   7.520 -0.7597 -1.1418 -1.0603
34878SOL     OW11683   2.716   1.280  12.173 -0.6669  0.2191  0.2063
34878SOL    HW111684   2.768   1.346  12.219 -0.0374  0.5871 -0.9989
34878SOL    HW211685   2.757   1.197  12.196 -0.3400  0.3996  0.2878
34879SOL     OW11686   8.674   9.373   4.868 -0.4412  0.2165 -0.3020
34879SOL    HW111687   8.676   9.385   4.773  3.4347  0.6162 -0.3515
34879SOL    HW211688   8.665   9.462   4.904 -0.1866  0.2552 -0.3318
34880SOL     OW11689   6.730   4.283   5.178  0.3259  0.3729 -0.2302
34880SOL    HW111690   6.671   4.346   5.220  0.5651  0.4234  0.0298
34880SOL    HW211691   6.685   4.261   5.096 -0.8630 -0.8550  0.7074
34881SOL     OW11692   0.240   7.452   0.089 -0.0072  0.1350  0.2773
34881SOL    HW111693   0.181   7.481   0.019  1.0544 -0.6628 -0.9881
34881SOL    HW211694   0.184   7.399   0.146 -1.3024  2.1976  1.0609
34882SOL     OW11695  10.342   6.249   0.309 -0.2459  0.4013  0.5164
34882SOL    HW111696  10.354   6.339   0.337 -2.1700  0.2295  2.1362
34882SOL    HW211697  10.248   6.241   0.294  0.3291 -0.0970 -4.3581
34883SOL     OW11698   5.834   0.521   1.584 -0.9232  0.0871 -0.7394
34883SOL    HW111699   5.771   0.460   1.544 -2.0573  1.7362 -1.5785
34883SOL    HW211700   5.846   0.489   1.673 -2.4134 -0.6710 -0.7896
34884SOL     OW11701   7.827  12.173   6.522  0.8364  0.1449  0.7399
34884SOL    HW111702   7.808  12.128   6.604  0.9962 -0.9847  0.1769
34884SOL    HW211703   7.898  12.233   6.543  0.2641  0.5317  1.6339
34885SOL     OW11704   7.872   7.905   5.521  0.7762  0.0742 -0.5948
34885SOL    HW111705   7.967   7.916   5.521  0.7329  0.8599  1.1958
34885SOL    HW211706   7.843   7.948   5.601 -1.0280 -0.7617 -0.7413
34886SOL     OW11707  11.027   1.041   4.996 -0.3547 -0.0179  0.6895
34886SOL    HW111708  11.059   1.109   4.937 -0.3064 -0.4842  0.1657
34886SOL    HW211709  11.106   0.991   5.019 -0.4292 -0.0579  0.8603
34887SOL     OW11710   6.658   9.403  11.877 -0.1644  0.0517  0.3097
34887SOL    HW111711   6.570   9.439  11.873 -0.4364 -0.7114 -1.1683
34887SOL    HW211712   6.645   9.308  11.875  0.7055 -0.0759 -1.4531
34888SOL     OW11713  11.819  12.258   2.279  0.3471 -0.3875  0.1314
34888SOL    HW111714  11.767  12.248   2.358  1.0509  0.4950  0.7285
34888SOL    HW211715  11.768  12.316   2.223  0.0269 -0.7021  0.0937
34889SOL     OW11716   8.565  10.189  10.751 -0.7034 -0.1338 -0.2875
34889SOL    HW111717   8.609  10.268  10.720  1.8157 -1.0300  0.7323
34889SOL    HW211718   8.549  10.204  10.844 -1.0861 -0.4800 -0.2920
34890SOL     OW11719   5.954   9.069  12.384 -0.1997  0.0252 -0.3281
34890SOL    HW111720   6.049   9.080  12.394 -0.1699 -1.0124  0.7411
34890SOL    HW211721   5.917   9.154  12.407  0.3253 -0.3323  2.1262
34891SOL     OW11722   4.836  11.040   3.446 -0.2827  0.4794 -0.0238
34891SOL    HW111723   4.841  11.031   3.351 -3.4295 -0.4655 -0.2413
34891SOL    HW211724   4.873  10.958   3.480  0.0612  0.4454 -0.4774
34892SOL     OW11725   1.556   1.765   1.008  0.8163 -0.0142 -0.3790
34892SOL    HW111726   1.592   1.825   1.074  0.6292 -0.0230 -0.2695
34892SOL    HW211727   1.543   1.683   1.055 -1.6400  0.6437  0.2351
34893SOL     OW11728  10.930  10.696   6.788 -0.2742 -0.3585  0.3005
34893SOL    HW111729  11.008  10.666   6.742 -0.0290 -0.2952  0.6626
34893SOL    HW211730  10.857  10.668   6.734  0.0383  0.8185 -0.7755
34894SOL     OW11731   6.134   0.324   4.134  0.1447  0.0369  0.2026
34894SOL    HW111732   6.050   0.322   4.087  0.1414 -0.3949  0.2244
34894SOL    HW211733   6.189   0.381   4.080  0.2328 -0.6834 -0.4930
34895SOL     OW11734   3.108   3.123   2.573 -0.2729 -0.5530  0.4395
34895SOL    HW111735   3.018   3.098   2.551 -1.1189  1.1201  1.7858
34895SOL    HW211736   3.153   3.127   2.488 -1.9375  0.2584 -0.4564
34896SOL     OW11737  10.564   5.789   5.378 -0.0402 -0.3509  0.4953
34896SOL    HW111738  10.598   5.793   5.467 -0.6426 -0.9329  0.7597
34896SOL    HW211739  10.614   5.719   5.336  0.5684  0.2361  0.2276
34897SOL     OW11740  12.252   1.195   5.240  0.1106 -0.6105  0.6212
34897SOL    HW111741  12.325   1.146   5.278  1.9385 -0.6588 -2.5955
34897SOL    HW211742  12.246   1.275   5.294  3.9987  0.3965 -0.1089
34898SOL     OW11743  11.473   0.420  11.757  0.2773  0.0429  0.0619
34898SOL    HW111744  11.536   0.348  11.757 -0.3570 -0.5269 -0.2909
34898SOL    HW211745  11.393   0.383  11.795 -0.7874 -0.1416 -2.1650
34899SOL     OW11746   0.972   0.880   7.378 -0.6327 -0.7089 -0.2848
34899SOL    HW111747   0.901   0.915   7.324 -0.6591 -0.7136 -0.2529
34899SOL    HW211748   0.949   0.905   7.468 -0.3289 -0.2521 -0.3286
34900SOL     OW11749   8.747   3.061   4.553  0.0879  0.1435  0.3349
34900SOL    HW111750   8.715   3.067   4.643  0.3955 -2.2968  0.6799
34900SOL    HW211751   8.818   2.996   4.557  0.1996  0.0799 -1.6434
34901SOL     OW11752   7.968   1.431   4.110 -0.7201  0.3028 -0.4767
34901SOL    HW111753   8.017   1.364   4.062 -0.0005  1.1315 -0.9183
34901SOL    HW211754   7.908   1.468   4.045 -0.5793  0.6031 -0.4386
34902SOL     OW11755   9.573  11.430  12.321  0.0923  0.0962  0.5243
34902SOL    HW111756   9.571  11.514  12.367  1.4888 -0.2206  1.2490
34902SOL    HW211757   9.532  11.447  12.237  1.5857  1.8742  0.1028
34903SOL     OW11758   6.054  11.449   3.222  0.4543 -0.1047  0.3076
34903SOL    HW111759   5.969  11.456   3.181  0.5813  0.1763  0.0885
34903SOL    HW211760   6.040  11.479   3.312 -0.2464 -2.4907  1.0909
34904SOL     OW11761  10.294   7.057   0.274  0.5451 -0.3426 -0.2361
34904SOL    HW111762  10.228   7.094   0.332 -0.5714 -1.0696 -1.0032
34904SOL    HW211763  10.246   6.994   0.220  1.7214 -0.3520 -1.3255
34905SOL     OW11764  12.359   6.782   5.179  0.1559  0.3012  0.2990
34905SOL    HW111765  12.365   6.732   5.097  2.0017  2.4128 -0.9495
34905SOL    HW211766  12.265   6.792   5.194 -0.2751 -2.3794 -0.0433
34906SOL     OW11767  10.440  11.819   0.482 -0.0526 -0.3509  0.6067
34906SOL    HW111768  10.371  11.885   0.488  0.5717  0.6468 -1.9249
34906SOL    HW211769  10.401  11.740   0.518 -0.8652  1.2863  3.7197
34907SOL     OW11770   1.347   4.974   9.835 -0.2693  0.4111  0.1394
34907SOL    HW111771   1.374   4.975   9.743 -1.5660  2.1858 -0.2556
34907SOL    HW211772   1.291   4.897   9.843  0.9565 -0.5606 -0.1671
34908SOL     OW11773   6.260   0.273   3.869  0.0562  0.3403 -0.5812
34908SOL    HW111774   6.289   0.236   3.953  1.8131  2.5070 -0.1367
34908SOL    HW211775   6.331   0.252   3.808  0.3879  1.6174 -0.6662
34909SOL     OW11776  12.235   5.842   4.944 -0.8410  0.3018 -0.6584
34909SOL    HW111777  12.290   5.773   4.982 -0.0843  2.1745  1.8818
34909SOL    HW211778  12.214   5.899   5.018 -2.6229  2.0393 -2.4086
34910SOL     OW11779  10.771   7.603   9.941  0.1681  0.3216  0.6576
34910SOL    HW111780  10.676   7.619   9.945 -0.1106 -0.2164 -1.8502
34910SOL    HW211781  10.804   7.674   9.886  1.0866 -0.0266  0.7553
34911SOL     OW11782   5.565   5.055   3.747  0.1802 -0.1536  0.1602
34911SOL    HW111783   5.610   5.059   3.832  0.6553  1.6625 -0.1534
34911SOL    HW211784   5.531   4.965   3.743 -0.0319 -0.2260  2.3537
34912SOL     OW11785  11.404   5.653  10.769 -0.0784  0.1182 -0.3379
34912SOL    HW111786  11.462   5.642  10.844 -0.3404 -1.1431 -0.3005
34912SOL    HW211787  11.319   5.674  10.808 -0.2344 -0.6227 -0.2757
34913SOL     OW11788   3.279   2.568   1.757 -0.4868  0.0509 -0.3329
34913SOL    HW111789   3.215   2.502   1.784 -0.7665  0.4891  0.0836
34913SOL    HW211790   3.228   2.647   1.742 -0.1068  0.2679 -0.4915
34914SOL     OW11791   2.997   2.941   2.833 -0.2379  0.0416  0.0186
34914SOL    HW111792   2.937   2.887   2.782  2.8314 -0.3617 -3.6112
34914SOL    HW211793   2.942   3.010   2.870 -3.0433 -0.7582 -2.3087
34915SOL     OW11794   5.045   9.694  12.443 -0.0862 -0.2840  0.2563
34915SOL    HW111795   5.014   9.775  12.404  0.7919 -0.1225 -0.1123
34915SOL    HW211796   4.994   9.686  12.524  1.4883  1.9039  1.5761
34916SOL     OW11797   1.176   9.214   0.528  0.5473  0.4611  0.4749
34916SOL    HW111798   1.201   9.245   0.441  1.3012 -0.8078  0.2109
34916SOL    HW211799   1.259   9.209   0.576  0.3587 -0.4497  0.7183
34917SOL     OW11800   2.840   7.790   9.735 -0.1502  0.3557 -0.9016
34917SOL    HW111801   2.820   7.883   9.745 -1.2433  0.0918 -0.5191
34917SOL    HW211802   2.902   7.786   9.662  0.8942  1.4947 -0.1124
34918SOL     OW11803   1.471   0.288   8.528 -0.3763 -1.3410 -0.6991
34918SOL    HW111804   1.452   0.240   8.608 -0.9041  0.9859  0.6498
34918SOL    HW211805   1.565   0.280   8.516 -0.5816 -3.6334 -1.1984
34919SOL     OW11806   4.118   5.011   4.243 -0.6696 -0.1511  0.2027
34919SOL    HW111807   4.117   4.957   4.164  0.9458 -0.9385  0.6642
34919SOL    HW211808   4.144   4.951   4.313  0.0509  0.9719  0.9375
34920SOL     OW11809  11.641   1.651   6.067  0.4605  0.6914 -0.2729
34920SOL    HW111810  11.555   1.674   6.102  0.0062 -1.3761  0.1200
34920SOL    HW211811  11.702   1.665   6.140 -0.1419 -1.3523  0.7089
34921SOL     OW11812   0.132   0.182   8.694 -0.1787  0.3410 -0.2474
34921SOL    HW111813   0.090   0.268   8.692  0.1133  0.4803 -0.9079
34921SOL    HW211814   0.202   0.188   8.628 -0.3953 -0.5209 -0.5774
34922SOL     OW11815   7.551  11.099  10.576  0.8474 -0.5875  0.3477
34922SOL    HW111816   7.637  11.130  10.548 -0.0407  0.2371 -1.7013
34922SOL    HW211817   7.567  11.056  10.661  2.8499  1.6577  1.2146
34923SOL     OW11818   1.072   3.939   1.430  0.4286 -0.3999 -0.2200
34923SOL    HW111819   1.149   3.885   1.443  0.9610  0.4305  0.1329
34923SOL    HW211820   1.037   3.912   1.345  1.3948 -0.4386 -0.6201
34924SOL     OW11821   4.978   1.752   7.076 -0.2066  0.0210  0.2950
34924SOL    HW111822   4.929   1.677   7.110  1.5800 -1.3952 -0.0753
34924SOL    HW211823   5.051   1.713   7.028 -0.3466  2.0041 -1.6834
34925SOL     OW11824   2.012   7.123   1.276  0.2542  0.2781  0.2073
34925SOL    HW111825   1.996   7.199   1.219 -2.1826 -0.1467  0.2293
34925SOL    HW211826   2.056   7.060   1.219 -0.2280  0.6623 -0.6126
34926SOL     OW11827   7.162   3.418   7.700 -0.5940 -0.8599  0.0540
34926SOL    HW111828   7.083   3.383   7.660 -0.5381  0.0864 -0.9279
34926SOL    HW211829   7.141   3.510   7.718 -0.7591 -1.3076  2.5994
34927SOL     OW11830   5.323   0.788   6.643 -0.1758  0.3203  0.2835
34927SOL    HW111831   5.291   0.819   6.727 -2.0971  0.2524 -0.3711
34927SOL    HW211832   5.279   0.844   6.579 -0.5890 -1.1572 -0.7575
34928SOL     OW11833   8.950   0.064   5.046 -0.5213  0.4282 -0.0637
34928SOL    HW111834   8.887   0.135   5.053 -0.1598  1.1116 -2.6561
34928SOL    HW211835   8.929   0.021   4.963  0.5069 -1.2534  0.4990
34929SOL     OW11836   8.323   0.892   1.914  0.0858 -0.1923  0.6730
34929SOL    HW111837   8.315   0.947   1.836 -0.0768 -1.1669 -0.0235
34929SOL    HW211838   8.411   0.911   1.948  0.8441 -0.9992 -0.7398
34930SOL     OW11839   5.133  11.014   7.014 -0.4041  0.4598 -0.7922
34930SOL    HW111840   5.101  10.929   7.042  0.7962  0.3251  0.2662
34930SOL    HW211841   5.180  11.049   7.091 -0.2371  1.7384 -1.4420
34931SOL     OW11842   3.243   1.951   4.638  0.0062  0.0730 -0.3887
34931SOL    HW111843   3.238   2.040   4.672  0.8177 -0.4779  1.2680
34931SOL    HW211844   3.156   1.914   4.657  0.0400  0.1652 -0.0361
34932SOL     OW11845   6.005   8.089  10.199 -0.3495 -0.1012  0.1706
34932SOL    HW111846   6.080   8.089  10.140 -0.5923 -2.5670 -0.2580
34932SOL    HW211847   5.933   8.054  10.146 -0.7488 -1.7060  1.6894
34933SOL     OW11848   0.019   4.412   1.339 -0.0981  0.7578  0.5474
34933SOL    HW111849  -0.074   4.435   1.342 -0.2282  0.5278 -1.0296
34933SOL    HW211850   0.042   4.418   1.247  1.3068  0.2043  0.8447
34934SOL     OW11851   8.729  10.226   7.106 -0.3437 -0.5647  0.5918
34934SOL    HW111852   8.657  10.196   7.051 -0.3142 -0.1926  0.3456
34934SOL    HW211853   8.806  10.179   7.073 -0.6420 -1.7461  1.5260
34935SOL     OW11854   6.706   4.274   6.591  0.3706 -0.1167 -0.7361
34935SOL    HW111855   6.685   4.367   6.598  0.4739 -0.1168 -0.4115
34935SOL    HW211856   6.695   4.239   6.680  0.5149 -0.3747 -0.8168
34936SOL     OW11857   0.651   3.407   5.643 -0.1061  0.4375 -0.0728
34936SOL    HW111858   0.740   3.423   5.675 -0.6918  2.2689  0.7139
34936SOL    HW211859   0.606   3.366   5.717  0.1549 -0.8348 -0.5944
34937SOL     OW11860   7.114   1.402   7.870  0.3303  0.2938 -0.5842
34937SOL    HW111861   7.173   1.393   7.945 -0.1743 -1.3941 -0.3516
34937SOL    HW211862   7.124   1.320   7.822 -1.5820  0.1040 -0.7127
34938SOL     OW11863   7.079   4.949   5.834 -0.3761  0.1408 -0.0636
34938SOL    HW111864   7.016   4.905   5.891  0.1602 -0.4446  0.0847
34938SOL    HW211865   7.067   4.908   5.748  1.0324 -1.2854  0.3612
34939SOL     OW11866   1.587  10.327   4.487  0.2525 -0.2745 -0.5422
34939SOL    HW111867   1.653  10.260   4.467  0.4838 -0.3680  0.5056
34939SOL    HW211868   1.522  10.318   4.417  0.8017 -0.9050 -0.9826
34940SOL     OW11869   7.262   9.329   8.426 -0.0939  0.4581  0.3425
34940SOL    HW111870   7.340   9.276   8.443  0.3345  1.1622  0.6147
34940SOL    HW211871   7.290   9.391   8.359 -0.1254  1.3296  1.1124
34941SOL     OW11872   5.176  10.171   4.649  0.1523 -0.1897  0.1004
34941SOL    HW111873   5.108  10.196   4.587  0.7185 -0.3143 -0.5835
34941SOL    HW211874   5.128  10.143   4.727 -0.6088 -1.2610 -0.7327
34942SOL     OW11875   0.829  10.969   4.236 -0.1628  0.4360  0.2769
34942SOL    HW111876   0.745  11.014   4.236 -0.2558  0.3249 -1.0548
34942SOL    HW211877   0.831  10.919   4.317 -0.6003  1.8475  1.1872
34943SOL     OW11878  11.901  11.602   8.524  0.0801  0.0380  0.2862
34943SOL    HW111879  11.896  11.685   8.477 -2.8189 -0.4026 -0.4159
34943SOL    HW211880  11.872  11.624   8.613 -0.7758 -0.1891  0.0768
34944SOL     OW11881   5.031   4.127   1.116 -0.0151  0.2835  0.3560
34944SOL    HW111882   4.936   4.124   1.125 -0.1245  1.2501 -0.2946
34944SOL    HW211883   5.064   4.061   1.177 -1.0321  0.9697  1.6768
34945SOL     OW11884   5.360  11.743   8.598 -0.4144 -0.6609  0.6592
34945SOL    HW111885   5.383  11.826   8.555 -0.2054 -0.5709  0.9422
34945SOL    HW211886   5.439  11.690   8.591 -0.2545 -0.5101  1.2550
34946SOL     OW11887   9.980  10.147   8.539  0.0540  0.1604  0.5886
34946SOL    HW111888  10.064  10.133   8.496 -1.3819  0.1176 -2.4959
34946SOL    HW211889   9.931  10.202   8.478 -2.4611 -0.5469  1.8349
34947SOL     OW11890   4.622   2.784   8.250 -0.6287 -0.3760 -0.2805
34947SOL    HW111891   4.690   2.726   8.283  0.6385 -0.0810 -2.2078
34947SOL    HW211892   4.543   2.760   8.299  0.2513 -2.5135  0.1714
34948SOL     OW11893   0.023   6.372  10.014  0.1892  0.0520 -0.0939
34948SOL    HW111894   0.117   6.362  10.003  0.4885 -0.6673  2.4813
34948SOL    HW211895   0.005   6.337  10.101 -2.3382  0.9951 -0.1533
34949SOL     OW11896   5.839   3.966  10.988  0.4980 -0.6016 -0.4146
34949SOL    HW111897   5.816   3.896  10.927  1.7828 -1.1307 -0.3334
34949SOL    HW211898   5.844   4.045  10.933 -0.7825 -0.5791 -0.5344
34950SOL     OW11899  10.558  12.560   6.106 -0.3604  0.0810  0.4601
34950SOL    HW111900  10.510  12.548   6.024  0.5632 -1.1996  0.0642
34950SOL    HW211901  10.496  12.536   6.175 -0.6392 -0.4944  0.0226
34951SOL     OW11902  11.035   0.396   0.704  0.5179  0.4296  0.6337
34951SOL    HW111903  10.950   0.438   0.718  0.3695  0.6070 -0.6758
34951SOL    HW211904  11.098   0.467   0.711  0.2488  0.9878 -1.8065
34952SOL     OW11905   7.482  12.491   2.084  0.1446  0.0364 -0.3004
34952SOL    HW111906   7.526  12.547   2.148 -1.9111  0.4695  0.8191
34952SOL    HW211907   7.548  12.425   2.061  1.3105  0.5003  1.4590
34953SOL     OW11908  10.118   1.540   0.713 -0.2646  0.2429  0.1321
34953SOL    HW111909  10.131   1.487   0.792  1.3852 -0.7098 -0.6948
34953SOL    HW211910  10.151   1.627   0.736 -0.5555  0.1926  0.7383
34954SOL     OW11911   9.587   4.266   4.564 -0.0270  0.1013  0.6641
34954SOL    HW111912   9.551   4.269   4.653 -1.0195 -0.9108  0.3217
34954SOL    HW211913   9.512   4.288   4.508  0.8898  2.0123  0.1074
34955SOL     OW11914   4.869  11.586   0.685  0.0949 -0.3021 -0.4196
34955SOL    HW111915   4.902  11.666   0.725 -1.9464 -0.4666  1.8211
34955SOL    HW211916   4.773  11.593   0.692 -0.1747 -3.3628  0.9111
34956SOL     OW11917   4.430   7.865   5.984 -0.0317 -0.0261  0.3022
34956SOL    HW111918   4.374   7.787   5.980 -0.3708  0.1574  1.2460
34956SOL    HW211919   4.467   7.872   5.896  0.0873 -1.3151  0.2257
34957SOL     OW11920   8.744  10.690   5.019 -0.3301  0.1292 -0.3056
34957SOL    HW111921   8.781  10.768   4.977 -1.2024 -0.2437 -1.8774
34957SOL    HW211922   8.652  10.713   5.033 -0.2168 -0.0372  0.7521
34958SOL     OW11923   1.727   4.730  12.344 -0.7357  0.0873  0.0520
34958SOL    HW111924   1.759   4.806  12.295  0.7913 -0.7793 -0.3846
34958SOL    HW211925   1.723   4.760  12.435  1.3741  0.3024  0.1379
34959SOL     OW11926   1.372   8.158  12.315  0.2882 -0.2652  0.2307
34959SOL    HW111927   1.389   8.249  12.290  0.4113 -0.3238  0.1030
34959SOL    HW211928   1.288   8.162  12.361  0.2328 -0.1030  0.1202
34960SOL     OW11929  10.240   8.740   5.616 -0.1329 -0.2070  0.1622
34960SOL    HW111930  10.334   8.738   5.636  0.0286  1.4795 -0.3609
34960SOL    HW211931  10.234   8.782   5.531 -1.3255 -1.1593 -0.2495
34961SOL     OW11932   1.110  10.664   2.531  0.6083 -0.3829 -0.3834
34961SOL    HW111933   1.161  10.741   2.505 -0.8617  0.8557  0.2483
34961SOL    HW211934   1.054  10.647   2.456 -1.3209  1.1892  0.5949
34962SOL     OW11935   6.295   6.860   3.254 -0.3642 -0.6481  0.1134
34962SOL    HW111936   6.255   6.893   3.334 -0.7001  1.1411 -0.7399
34962SOL    HW211937   6.380   6.825   3.281  0.3797  1.7030  1.0037
34963SOL     OW11938   3.158  12.543   3.464  0.9552 -0.0210 -0.4928
34963SOL    HW111939   3.118  12.494   3.536  1.2789 -0.7497 -0.8023
34963SOL    HW211940   3.089  12.603   3.435  0.6774 -0.0344  0.1308
34964SOL     OW11941   2.945   7.367   3.082 -0.5087  0.2403  0.3881
34964SOL    HW111942   2.904   7.399   3.163 -2.2701  1.5203 -0.9416
34964SOL    HW211943   3.033   7.407   3.082 -0.0237 -0.7259  2.1971
34965SOL     OW11944   2.768  12.381   3.245  0.3421 -0.6272  0.5370
34965SOL    HW111945   2.735  12.339   3.324 -1.5324 -0.5109 -0.1171
34965SOL    HW211946   2.711  12.457   3.233  1.7336  0.3686  0.0407
34966SOL     OW11947  10.160   3.984   4.925  0.2965  0.4778  0.6082
34966SOL    HW111948  10.211   4.008   4.848  0.2108  1.0616  0.7227
34966SOL    HW211949  10.071   3.971   4.892  0.4745 -0.3474  0.4398
34967SOL     OW11950   5.061   5.889   9.231  0.5056  0.4402 -0.2056
34967SOL    HW111951   4.977   5.859   9.266  0.9908 -0.5370  0.1689
34967SOL    HW211952   5.041   5.919   9.142 -0.1500 -0.2680 -0.3100
34968SOL     OW11953  10.872   6.396   5.876  0.0377  0.3801  0.1468
34968SOL    HW111954  10.824   6.450   5.814  2.1608  0.8163 -1.2398
34968SOL    HW211955  10.915   6.459   5.935 -0.0918  0.0636  0.5829
34969SOL     OW11956   3.761   8.859  12.365  0.1493  0.0674 -0.2120
34969SOL    HW111957   3.678   8.825  12.331  0.2694  0.7032 -1.1740
34969SOL    HW211958   3.813   8.780  12.382  0.0680 -0.2822 -1.4724
34970SOL     OW11959  10.566   5.035   5.517 -0.1364  0.0876 -0.2635
34970SOL    HW111960  10.536   4.944   5.517 -0.4216  0.1338  1.5200
34970SOL    HW211961  10.499   5.083   5.468  0.8838 -0.8538 -2.7375
34971SOL     OW11962   9.794   0.766   0.663  0.0959 -0.3380 -0.4882
34971SOL    HW111963   9.839   0.765   0.748 -0.0242  0.4308 -0.4115
34971SOL    HW211964   9.864   0.782   0.600  0.3254 -1.7964 -0.6365
34972SOL     OW11965   2.160   6.269   4.884  0.7477 -0.1584 -0.5294
34972SOL    HW111966   2.147   6.364   4.885  0.5727 -0.1820  0.1113
34972SOL    HW211967   2.117   6.240   4.804 -0.8741  0.0972  0.2080
34973SOL     OW11968   1.459   3.900   6.556 -0.0219  0.2806  0.3874
34973SOL    HW111969   1.529   3.835   6.561 -0.2799  0.0636  1.8537
34973SOL    HW211970   1.389   3.857   6.507 -0.5475 -0.9790  2.1112
34974SOL     OW11971   3.883   0.692   2.292 -0.1595 -0.0639 -0.2483
34974SOL    HW111972   3.891   0.628   2.363  1.8484  1.9021  1.4460
34974SOL    HW211973   3.817   0.754   2.323 -0.3687 -0.0077 -0.8000
34975SOL     OW11974   0.037   2.134   1.224 -0.1799 -0.1202 -0.5714
34975SOL    HW111975   0.057   2.110   1.133  0.6244 -0.5328 -0.2961
34975SOL    HW211976  -0.058   2.128   1.230 -0.0840 -2.8260 -0.6726
34976SOL     OW11977   0.170   2.577   9.692  0.3016  0.2480 -0.1792
34976SOL    HW111978   0.201   2.565   9.782 -1.6013  2.5145  0.8823
34976SOL    HW211979   0.158   2.672   9.683  0.7467  0.1283 -2.9765
34977SOL     OW11980   2.558   4.057   3.177  0.0272 -0.0896 -0.6206
34977SOL    HW111981   2.631   3.997   3.195 -1.4775 -1.6922  0.5162
34977SOL    HW211982   2.555   4.061   3.081  1.6140  0.0492 -0.6929
34978SOL     OW11983   1.595  10.399   8.765 -0.6043  0.0106 -0.7531
34978SOL    HW111984   1.551  10.384   8.849  0.5691  0.6827  0.0108
34978SOL    HW211985   1.611  10.493   8.763 -0.5620 -0.0165 -1.7021
34979SOL     OW11986   2.064   2.279   1.835 -0.1871  0.1622  0.0153
34979SOL    HW111987   2.041   2.221   1.762 -2.1533 -0.0621  0.7679
34979SOL    HW211988   2.077   2.220   1.909 -3.2673  0.6413  1.0578
34980SOL     OW11989   4.753   1.486  11.451 -0.4985  0.1093  0.5898
34980SOL    HW111990   4.683   1.540  11.486  0.2518  1.0864  0.6511
34980SOL    HW211991   4.802   1.545  11.393 -1.6706 -1.4111 -2.1366
34981SOL     OW11992   1.338   3.653   3.298  0.0773  0.2866 -0.0935
34981SOL    HW111993   1.395   3.669   3.222  0.6655 -0.0488  0.2726
34981SOL    HW211994   1.254   3.628   3.259  0.3301  0.2572 -0.6374
34982SOL     OW11995   0.464  12.096   3.233  0.5062 -0.2839 -0.2310
34982SOL    HW111996   0.416  12.175   3.261  3.2744  1.6259 -0.4488
34982SOL    HW211997   0.414  12.063   3.158 -1.7555  0.1026  1.0104
34983SOL     OW11998   8.343   4.143  12.474  0.2466  0.5814  0.1716
34983SOL    HW111999   8.433   4.160  12.444  0.4894  0.9913  1.1177
34983SOL    HW212000   8.333   4.048  12.465  1.5620  0.1996  2.1395
34984SOL     OW12001   4.237   2.834  10.205 -0.3198 -0.4212 -0.4794
34984SOL    HW112002   4.204   2.824  10.295 -1.5496  0.6934 -0.7822
34984SOL    HW212003   4.209   2.754  10.161  0.6806 -1.1894  0.2087
34985SOL     OW12004   7.114   8.329   1.338 -0.2059 -0.6481  0.0788
34985SOL    HW112005   7.093   8.357   1.427 -2.6276 -0.3719 -0.5271
34985SOL    HW212006   7.114   8.233   1.342 -0.1925 -0.6339  0.3987
34986SOL     OW12007   7.923   9.873   8.949 -0.0608  0.4175 -0.1999
34986SOL    HW112008   7.851   9.848   9.008  0.3670  0.2011  0.2357
34986SOL    HW212009   7.905   9.965   8.927 -1.7974 -0.2861 -2.0312
34987SOL     OW12010  11.932   9.050   0.507 -0.0322  0.3894  0.4084
34987SOL    HW112011  11.929   8.955   0.517  3.5533  0.1556  0.5411
34987SOL    HW212012  11.963   9.082   0.592 -0.1358  1.5623  0.0259
34988SOL     OW12013  11.519   3.902   3.951 -0.2060 -0.2460 -0.1604
34988SOL    HW112014  11.475   3.952   3.882  2.0328 -1.2303 -2.4351
34988SOL    HW212015  11.513   3.959   4.028 -0.7445  1.9963 -1.7441
34989SOL     OW12016   3.247   3.110   3.566 -0.6214  0.0697  0.2237
34989SOL    HW112017   3.296   3.116   3.483 -0.3000 -1.2413  0.2942
34989SOL    HW212018   3.299   3.161   3.628 -0.5636  0.5876 -0.2381
34990SOL     OW12019   3.830   1.487   5.990  0.3541 -0.1255  0.1363
34990SOL    HW112020   3.872   1.457   6.071  0.6907 -0.7154 -0.2441
34990SOL    HW212021   3.825   1.582   5.999  2.4942  0.0570 -0.1240
34991SOL     OW12022   3.058   7.916   1.069 -0.1431 -0.4506  0.2074
34991SOL    HW112023   3.065   7.901   0.974 -0.0692 -0.1444  0.1625
34991SOL    HW212024   3.031   8.008   1.076  1.1793 -0.0646  0.5169
34992SOL     OW12025   2.537  11.988   8.101  0.2006  0.2424  0.1523
34992SOL    HW112026   2.511  11.907   8.146  1.5442  0.1968  0.8893
34992SOL    HW212027   2.458  12.014   8.052 -0.0126 -1.9875 -0.8414
34993SOL     OW12028   1.456   4.865  10.162 -0.4582 -0.0271  0.3545
34993SOL    HW112029   1.502   4.899  10.085 -0.8143 -0.0430  0.1318
34993SOL    HW212030   1.364   4.865  10.137 -0.6825  0.8599  1.1115
34994SOL     OW12031   6.287  12.101   7.435 -0.4381  0.2530 -0.1679
34994SOL    HW112032   6.355  12.166   7.452 -1.0042  1.7902 -3.1494
34994SOL    HW212033   6.335  12.019   7.422  0.7298  0.9956 -0.7311
34995SOL     OW12034   7.161   9.521   6.613  0.0098  0.2900  0.2741
34995SOL    HW112035   7.235   9.578   6.632  1.5635 -1.6521  0.3584
34995SOL    HW212036   7.173   9.495   6.522 -0.4419 -0.2091  0.3502
34996SOL     OW12037   4.408   0.529  11.606  0.2995 -0.3298  0.3060
34996SOL    HW112038   4.366   0.606  11.566  0.9519 -1.3045 -2.4906
34996SOL    HW212039   4.335   0.476  11.638 -0.2576  0.5284  0.4938
34997SOL     OW12040   8.283   5.450  11.780  0.5738  0.5733  0.6958
34997SOL    HW112041   8.242   5.441  11.694 -0.9078 -2.6352  1.6070
34997SOL    HW212042   8.376   5.464  11.760  0.5500 -1.5887 -1.4964
34998SOL     OW12043  11.111   0.783   6.587  0.2860  0.5001  0.4211
34998SOL    HW112044  11.128   0.877   6.580  0.4253  0.4197 -0.4521
34998SOL    HW212045  11.111   0.752   6.496 -1.2456 -0.0809  0.5813
34999SOL     OW12046   5.726   2.631   5.382  0.1640  0.0180 -0.1536
34999SOL    HW112047   5.719   2.640   5.287  1.6081  1.1136 -0.1971
34999SOL    HW212048   5.637   2.642   5.414 -0.6694 -2.2179 -1.4704
35000SOL     OW12049   4.066   3.088  12.274  0.7263 -1.0154  0.1845
35000SOL    HW112050   4.158   3.100  12.250  0.4983 -0.8008 -0.5906
35000SOL    HW212051   4.042   3.002  12.238 -0.0111 -0.0932 -1.6464
35001SOL     OW12052   6.498   1.305   1.500 -0.1467  0.3480 -0.3358
35001SOL    HW112053   6.435   1.377   1.503  0.1026  0.5709 -0.3924
35001SOL    HW212054   6.498   1.277   1.408 -1.0093 -0.4149 -0.1161
35002SOL     OW12055   4.318   5.193   3.001  0.1666  0.5829  0.2557
35002SOL    HW112056   4.361   5.259   3.056 -0.8512  0.2831  1.4566
35002SOL    HW212057   4.245   5.162   3.054  0.3365 -1.1743 -0.4785
35003SOL     OW12058  11.049   8.325   1.622  0.0740 -0.0403 -0.4991
35003SOL    HW112059  11.096   8.373   1.553  0.6841 -2.4981 -1.8941
35003SOL    HW212060  11.117   8.302   1.685  0.1743 -0.7988 -0.8733
35004SOL     OW12061   9.433   2.650   3.180  0.3151 -0.3071 -0.1473
35004SOL    HW112062   9.441   2.570   3.127 -0.8605 -1.2291  1.0101
35004SOL    HW212063   9.354   2.692   3.148  0.4538 -0.0466 -0.1493
35005SOL     OW12064   8.801   0.147   3.111 -0.0754  0.3260  0.0760
35005SOL    HW112065   8.864   0.101   3.056 -0.0711 -0.1551  0.4739
35005SOL    HW212066   8.839   0.234   3.124  1.3350 -0.4614  1.6404
35006SOL     OW12067   1.987   3.103  12.206  0.0235 -0.0461  0.0640
35006SOL    HW112068   2.060   3.160  12.183  0.2671  0.0606  1.0674
35006SOL    HW212069   1.992   3.031  12.143  0.6766  0.2217 -0.1979
35007SOL     OW12070   3.314   2.546   6.477 -0.1499  0.0203  0.1227
35007SOL    HW112071   3.292   2.622   6.422 -2.4976 -1.5387 -1.2516
35007SOL    HW212072   3.232   2.522   6.519 -0.4565 -3.8312 -2.2489
35008SOL     OW12073  12.343   4.231   3.358 -0.1908 -0.4906 -0.0954
35008SOL    HW112074  12.354   4.321   3.327 -1.0282  0.5754  2.3879
35008SOL    HW212075  12.249   4.215   3.352 -0.2565 -0.5663  0.9825
35009SOL     OW12076   5.181   1.914   6.844  0.2519 -0.9830 -0.4396
35009SOL    HW112077   5.112   1.895   6.780 -0.5908  2.0222 -0.6035
35009SOL    HW212078   5.261   1.881   6.804 -0.9798 -4.5796 -0.2638
35010SOL     OW12079  10.910   4.645   0.847 -0.2406  0.0932 -0.1371
35010SOL    HW112080  10.981   4.624   0.906 -0.5062 -1.1570 -0.2238
35010SOL    HW212081  10.837   4.591   0.877 -1.3329  1.7256  0.2743
35011SOL     OW12082   8.789  11.551  11.973  0.7721  0.0618  0.2099
35011SOL    HW112083   8.790  11.588  12.062  1.6632 -0.0494  0.2587
35011SOL    HW212084   8.822  11.462  11.985 -0.8210 -0.5683  0.0126
35012SOL     OW12085   4.213   3.773   3.037 -0.3619  0.2312 -0.4246
35012SOL    HW112086   4.307   3.757   3.049 -0.9014 -2.0602  1.5962
35012SOL    HW212087   4.195   3.851   3.090  0.4644  1.0131 -1.2661
35013SOL     OW12088   5.857   0.692  10.025  0.4416 -0.3001  0.7969
35013SOL    HW112089   5.794   0.749   9.981 -2.1728 -2.8455  0.9640
35013SOL    HW212090   5.881   0.740  10.104 -1.4613  0.7206  0.8174
35014SOL     OW12091   2.273   2.182   1.370  0.0564  0.1256 -0.3227
35014SOL    HW112092   2.245   2.188   1.461 -0.1309 -0.2791 -0.3519
35014SOL    HW212093   2.359   2.223   1.369 -0.2178  0.7284 -0.0931
35015SOL     OW12094   3.335   1.363  12.473 -0.6455 -0.4257  0.0424
35015SOL    HW112095   3.417   1.322  12.501  0.8391  0.4516 -2.6695
35015SOL    HW212096   3.356   1.403  12.389 -4.0278 -0.6460 -1.0467
35016SOL     OW12097   4.004   0.135   6.089 -0.2076 -0.2682  0.6896
35016SOL    HW112098   3.964   0.198   6.149  0.7471  0.5896  0.4555
35016SOL    HW212099   4.090   0.118   6.127  0.8714  1.1458 -0.9816
35017SOL     OW12100   0.462   9.405   8.431  0.1564 -0.7953  0.1014
35017SOL    HW112101   0.481   9.398   8.524  1.6443 -2.3453 -0.2369
35017SOL    HW212102   0.475   9.497   8.410 -0.6210 -0.3480  1.4834
35018SOL     OW12103   7.751   1.975  11.250  0.4157 -0.1171 -0.2450
35018SOL    HW112104   7.829   1.985  11.195  0.6783  2.1321  0.4329
35018SOL    HW212105   7.691   2.044  11.219 -0.3013 -0.2280  0.8440
35019SOL     OW12106   7.615   0.815  12.488  0.3063 -0.0492 -0.1485
35019SOL    HW112107   7.545   0.800  12.424 -0.5625 -1.3500  1.0565
35019SOL    HW212108   7.601   0.749  12.555  1.2367  1.2167  1.3684
35020SOL     OW12109  12.047   5.484   0.317 -0.3476  0.1004 -0.1348
35020SOL    HW112110  12.068   5.408   0.263 -0.4655  0.9382 -1.3738
35020SOL    HW212111  12.102   5.473   0.395  0.0157 -0.9786 -0.5190
35021SOL     OW12112   0.756   9.060   3.166 -0.1783 -0.0374  0.5117
35021SOL    HW112113   0.696   9.030   3.098  1.2621  0.3171 -0.9668
35021SOL    HW212114   0.823   9.111   3.120  1.9403 -1.3714  1.9012
35022SOL     OW12115   7.792   2.780   0.675 -0.0871 -1.0567  0.3750
35022SOL    HW112116   7.775   2.872   0.655  0.7784 -0.8863  0.3730
35022SOL    HW212117   7.737   2.761   0.751 -1.8806 -1.1454 -0.8783
35023SOL     OW12118  11.208  12.498   7.934 -0.7669  0.1309 -0.7548
35023SOL    HW112119  11.245  12.432   7.993  1.4347  2.5510  0.8293
35023SOL    HW212120  11.243  12.476   7.848  2.9289  1.0741  0.3349
35024SOL     OW12121   1.352   7.947   4.900  0.1098  0.4497 -0.6532
35024SOL    HW112122   1.309   7.867   4.871 -1.2840  1.2173 -0.7544
35024SOL    HW212123   1.320   8.015   4.841  1.3463  1.0791 -0.6286
35025SOL     OW12124   0.067   4.164  11.614 -0.3763 -0.4270 -0.3933
35025SOL    HW112125   0.057   4.095  11.679 -0.1170  0.0369  0.1528
35025SOL    HW212126  -0.020   4.203  11.606 -0.5023 -0.7599 -0.6400
35026SOL     OW12127   0.282  10.686   8.445 -0.0041 -0.4056  0.4363
35026SOL    HW112128   0.375  10.688   8.470  0.1479  0.2580 -0.1523
35026SOL    HW212129   0.248  10.770   8.473 -0.5772 -0.8633  1.1565
35027SOL     OW12130   2.055   1.096   8.074 -0.1281 -0.3974 -0.0656
35027SOL    HW112131   2.046   1.073   8.167  0.4036 -0.3985 -0.0087
35027SOL    HW212132   2.101   1.021   8.035 -1.2647 -0.8569 -0.5447
35028SOL     OW12133  10.936   1.553  10.366  0.1229 -0.2968 -0.2100
35028SOL    HW112134  10.958   1.466  10.333 -0.1321  0.4951 -2.6830
35028SOL    HW212135  10.867   1.584  10.308  0.2440  1.5727  0.5759
35029SOL     OW12136   2.474  11.425   5.119 -0.3334  0.0878 -0.2793
35029SOL    HW112137   2.501  11.442   5.028  0.9415  0.9777  0.2310
35029SOL    HW212138   2.380  11.443   5.119 -0.1874  1.0213 -1.2350
35030SOL     OW12139   8.428   8.000   1.728  0.0284 -0.4777  0.5790
35030SOL    HW112140   8.415   8.082   1.681 -0.0637 -0.1041  1.2429
35030SOL    HW212141   8.373   7.937   1.681 -0.5460  0.0292  0.5486
35031SOL     OW12142  12.000   6.634   7.425  0.0682  0.4365 -0.0494
35031SOL    HW112143  11.971   6.568   7.488 -1.8797  0.0120 -1.3116
35031SOL    HW212144  12.073   6.592   7.379 -1.0042 -0.7709 -0.6838
35032SOL     OW12145  10.174   6.731  12.504 -0.5112  0.1379  0.0327
35032SOL    HW112146  10.213   6.816  12.528  0.3839 -0.2243 -0.0886
35032SOL    HW212147  10.202   6.672  12.574 -0.6268 -0.1907 -0.1996
35033SOL     OW12148   7.788   9.061   4.948  0.0813 -0.1530  0.0509
35033SOL    HW112149   7.863   9.061   4.889  1.0042 -0.8399  1.1874
35033SOL    HW212150   7.745   9.145   4.933  0.2006 -0.3657 -1.6837
35034SOL     OW12151  10.300   1.179   7.738  0.1221  0.3920  0.3279
35034SOL    HW112152  10.294   1.270   7.768 -1.7817 -0.1519  1.8168
35034SOL    HW212153  10.354   1.136   7.804 -1.9462 -0.2551  1.7113
35035SOL     OW12154   4.493   3.892   0.376 -0.1179 -0.3020 -0.3735
35035SOL    HW112155   4.537   3.840   0.444 -0.1655 -1.4504 -1.1858
35035SOL    HW212156   4.548   3.970   0.366  0.7282 -0.8441 -0.0832
35036SOL     OW12157   2.830   7.202   4.537  0.5349  0.1248 -0.1719
35036SOL    HW112158   2.924   7.203   4.551  0.3132  0.6741  1.5133
35036SOL    HW212159   2.795   7.261   4.604 -0.7976  2.1580 -2.4859
35037SOL     OW12160   3.741   2.088   2.278  0.0343  0.3726  0.1587
35037SOL    HW112161   3.666   2.094   2.218  1.7194  1.0414 -2.0400
35037SOL    HW212162   3.806   2.149   2.241  1.8827 -0.5922  1.6430
35038SOL     OW12163   2.156  10.946   0.468 -0.2482  0.1154  0.2581
35038SOL    HW112164   2.247  10.915   0.467  0.6363  2.5095  0.2491
35038SOL    HW212165   2.113  10.892   0.535  0.9769 -1.5412 -0.2457
35039SOL     OW12166  10.331   0.905  10.956 -0.0846  0.3306  0.4290
35039SOL    HW112167  10.395   0.976  10.959  1.7252 -0.9672 -2.3807
35039SOL    HW212168  10.335   0.865  11.042  2.6964  0.5416  0.4934
35040SOL     OW12169   0.082   3.175   8.945 -0.1530 -0.0264 -0.2235
35040SOL    HW112170   0.041   3.218   9.021 -1.7321 -2.8046  0.6382
35040SOL    HW212171   0.097   3.246   8.883  0.7529  2.2963  2.4549
35041SOL     OW12172   6.835  10.420   8.445 -0.1316  0.7109 -0.0204
35041SOL    HW112173   6.851  10.427   8.351 -0.5788  0.3498 -0.1319
35041SOL    HW212174   6.788  10.337   8.455  0.0526  0.6688  0.5410
35042SOL     OW12175   9.100   6.831   6.004 -0.1213  0.7102  0.2137
35042SOL    HW112176   9.155   6.754   5.991 -2.4633 -1.3602  1.6502
35042SOL    HW212177   9.024   6.815   5.949 -0.3427  2.3632  0.0070
35043SOL     OW12178   4.330   9.418   4.869 -0.4960  0.1483  0.7750
35043SOL    HW112179   4.339   9.389   4.960  1.1915  1.4368  1.0656
35043SOL    HW212180   4.413   9.394   4.827 -0.1568  1.9739  0.3104
35044SOL     OW12181   7.464   5.031   1.761  0.4229  0.3034 -0.3749
35044SOL    HW112182   7.486   5.121   1.783  0.6893  0.2757 -0.5193
35044SOL    HW212183   7.383   5.013   1.808  0.3521  0.6289 -0.3731
35045SOL     OW12184   7.843   7.292   4.063  0.1361 -0.1270  0.1445
35045SOL    HW112185   7.801   7.287   3.978  1.4251 -1.5404 -0.4501
35045SOL    HW212186   7.836   7.204   4.100 -0.3333  0.4387  1.4813
35046SOL     OW12187   9.658   2.853   3.001 -0.4533  0.2379 -0.4595
35046SOL    HW112188   9.604   2.870   2.924 -1.1476  0.4946  0.0815
35046SOL    HW212189   9.681   2.760   2.994 -0.7319  0.1938 -0.8346
35047SOL     OW12190  12.241  10.603  10.144 -0.6769 -0.0081 -0.4380
35047SOL    HW112191  12.208  10.572  10.060  0.3973  0.7948 -1.1873
35047SOL    HW212192  12.179  10.672  10.170 -1.1052 -0.3753 -0.4860
35048SOL     OW12193   1.469  10.117  12.415  0.4962  0.0643 -0.3368
35048SOL    HW112194   1.378  10.113  12.444  0.7612 -0.0647  0.4856
35048SOL    HW212195   1.504  10.029  12.431  0.9734  0.3176  0.0586
35049SOL     OW12196   3.706  11.253   2.087 -0.1803  0.1426  0.5581
35049SOL    HW112197   3.792  11.284   2.060  0.1107 -0.2330  1.0278
35049SOL    HW212198   3.711  11.157   2.078 -1.3512  0.2343 -1.7293
35050SOL     OW12199   1.027   7.867  10.575 -0.0933 -0.4256  0.7630
35050SOL    HW112200   1.044   7.952  10.615 -0.7405 -0.6965  1.6610
35050SOL    HW212201   1.041   7.804  10.646  0.1747 -1.0518  0.1669
35051SOL     OW12202   0.981   5.971   5.885  0.5208 -0.2077 -0.3721
35051SOL    HW112203   0.926   5.993   5.810 -1.9079 -0.1315  1.2888
35051SOL    HW212204   1.047   6.040   5.888 -1.5601  1.9131 -0.3810
35052SOL     OW12205   7.686   0.711   0.275 -0.1552  0.2413 -0.2517
35052SOL    HW112206   7.626   0.762   0.331  1.4481  0.6933  1.1315
35052SOL    HW212207   7.768   0.708   0.324  0.0032 -3.3066 -0.4462
35053SOL     OW12208   2.152  11.840  10.928 -0.0817 -0.5203 -0.3838
35053SOL    HW112209   2.208  11.796  10.991  0.3665 -1.0056 -1.0991
35053SOL    HW212210   2.135  11.926  10.966  1.2554 -0.3223 -0.2020
35054SOL     OW12211   1.548   5.562   9.462  0.4466 -0.9111  0.4639
35054SOL    HW112212   1.595   5.642   9.440  1.0536 -1.7575 -1.6175
35054SOL    HW212213   1.461   5.591   9.489  0.0069  0.4157 -2.1091
35055SOL     OW12214  10.980   1.157   1.921  0.4527 -0.3803 -0.3713
35055SOL    HW112215  10.888   1.153   1.897  0.6903 -0.7309 -1.2391
35055SOL    HW212216  11.024   1.195   1.845  0.9408  0.4446  0.2981
35056SOL     OW12217   3.199   5.457  10.935  0.0064 -0.3624 -0.2426
35056SOL    HW112218   3.146   5.537  10.946  0.6479  0.2121 -1.1686
35056SOL    HW212219   3.274   5.486  10.882  1.6207 -0.9841  1.5868
35057SOL     OW12220  12.263  11.324   3.910 -0.2774  0.3154  0.0945
35057SOL    HW112221  12.261  11.264   3.984 -2.0982  0.1691 -0.0258
35057SOL    HW212222  12.179  11.370   3.914  0.0701  1.1337 -1.2128
35058SOL     OW12223   8.057   4.095   2.995  0.8945  0.0713  0.3588
35058SOL    HW112224   8.056   4.100   2.900  0.3314 -0.5017  0.3301
35058SOL    HW212225   7.967   4.117   3.021  1.1408  0.6097  0.7775
35059SOL     OW12226   9.333   9.700   4.950  0.2318  0.4025  0.4826
35059SOL    HW112227   9.238   9.694   4.957  0.3122 -1.0803  0.5944
35059SOL    HW212228   9.363   9.609   4.942  1.5790  0.8909 -0.3961
35060SOL     OW12229   2.584   7.889   8.448  0.3747  0.1352 -0.2716
35060SOL    HW112230   2.679   7.898   8.456  0.4969  0.1635 -1.5797
35060SOL    HW212231   2.552   7.979   8.438  0.4030  0.0090 -1.6148
35061SOL     OW12232  10.218   4.731   9.098  0.0428  0.0331  0.1791
35061SOL    HW112233  10.124   4.750   9.087 -0.3171 -1.0856  1.1467
35061SOL    HW212234  10.261   4.814   9.075 -1.1028  0.2839 -1.2208
35062SOL     OW12235   7.349  12.576   1.844 -0.1976 -0.1052  0.0269
35062SOL    HW112236   7.375  12.549   1.932 -1.8304  0.9734  0.8819
35062SOL    HW212237   7.406  12.651   1.825  0.5090 -0.6556 -0.0655
35063SOL     OW12238   2.267   1.105  12.536  0.0803  0.4580  0.0334
35063SOL    HW112239   2.336   1.043  12.513  0.4961  0.4025  1.3277
35063SOL    HW212240   2.199   1.051  12.577 -0.2924  0.6507 -0.3195
35064SOL     OW12241   7.667   6.441   9.616  0.4279  0.1110 -0.3066
35064SOL    HW112242   7.611   6.473   9.687  0.4262  0.3252 -0.4032
35064SOL    HW212243   7.611   6.446   9.538  0.4566 -0.0442 -0.3377
35065SOL     OW12244   2.926   4.836  11.063 -0.3374  0.0339 -0.2145
35065SOL    HW112245   2.917   4.902  10.994  0.2691  0.3718  0.0176
35065SOL    HW212246   2.876   4.761  11.032  0.5257 -0.0916 -1.3569
35066SOL     OW12247   2.352   3.625  11.428 -0.6155 -0.5452  0.5682
35066SOL    HW112248   2.298   3.644  11.351 -1.6482 -1.1025  1.1404
35066SOL    HW212249   2.427   3.577  11.393 -1.0161 -0.6981 -0.1066
35067SOL     OW12250  11.153   6.495   6.783 -0.2377  0.0469 -0.1411
35067SOL    HW112251  11.217   6.424   6.786 -0.1852  0.0859 -0.3588
35067SOL    HW212252  11.204   6.575   6.792 -0.4481  0.0030  2.0416
35068SOL     OW12253   9.125   3.415   6.498  0.1112 -0.0771  0.5900
35068SOL    HW112254   9.067   3.455   6.434  0.6669  0.2460  0.2839
35068SOL    HW212255   9.096   3.449   6.583 -1.0535 -1.0144  0.5975
35069SOL     OW12256   5.019   1.071  10.631 -0.1409 -0.1737  0.1375
35069SOL    HW112257   4.978   1.089  10.546 -1.7218  0.3709  0.9726
35069SOL    HW212258   5.013   0.976  10.641 -0.9497 -0.1338  0.1034
35070SOL     OW12259  10.199   8.026  10.004  0.2709 -0.3533 -0.6154
35070SOL    HW112260  10.112   8.066   9.995  1.4179  2.5085 -0.0218
35070SOL    HW212261  10.206   8.008  10.098  1.1644  1.7081 -0.2348
35071SOL     OW12262   3.397   1.245  10.180  0.4606  0.1658  0.3021
35071SOL    HW112263   3.336   1.219  10.249  0.4531 -1.0101 -0.1385
35071SOL    HW212264   3.386   1.340  10.174 -1.3428 -0.0042  0.2265
35072SOL     OW12265  12.177   8.604   0.276 -0.1677  0.1055 -0.2577
35072SOL    HW112266  12.224   8.649   0.347 -1.0752  3.5090 -1.5934
35072SOL    HW212267  12.085   8.624   0.292 -0.7718 -2.2893 -0.3994
35073SOL     OW12268   3.493   5.487   8.562  0.0634  0.3276 -0.3188
35073SOL    HW112269   3.462   5.574   8.588 -1.4166 -0.0515 -0.7653
35073SOL    HW212270   3.420   5.428   8.582  0.3760 -0.5544 -1.6760
35074SOL     OW12271   7.456   7.131  12.062 -0.5617  1.0228  0.3744
35074SOL    HW112272   7.480   7.053  12.113 -1.8591  1.4475  1.7062
35074SOL    HW212273   7.391   7.099  11.999  0.9843  0.5120 -1.0245
35075SOL     OW12274   4.444   2.655   0.303  0.1310 -0.0553  0.1908
35075SOL    HW112275   4.438   2.737   0.352  0.3699 -0.4442  0.8890
35075SOL    HW212276   4.353   2.631   0.286  0.0611  0.3454  0.0009
35076SOL     OW12277  12.030  11.171  10.596  0.0352 -0.1647  0.2115
35076SOL    HW112278  11.975  11.148  10.670  0.0067  2.3723  1.0932
35076SOL    HW212279  12.119  11.171  10.632  0.2741 -1.1384 -0.3673
35077SOL     OW12280   2.402   9.723  10.249  0.2464  0.1631  0.5957
35077SOL    HW112281   2.384   9.705  10.157  2.2594  0.5921  0.0691
35077SOL    HW212282   2.434   9.640  10.284  0.1792  0.1890  0.7194
35078SOL     OW12283   4.017  10.087   1.769  0.2170  0.1779 -0.0783
35078SOL    HW112284   4.051   9.997   1.769  0.4344  0.2608  0.2849
35078SOL    HW212285   3.948  10.086   1.702  2.3078  0.5135 -2.4032
35079SOL     OW12286   5.463   6.751   5.596  0.4969 -0.3021  0.0345
35079SOL    HW112287   5.546   6.798   5.590  0.2916 -0.0100 -0.6261
35079SOL    HW212288   5.396   6.820   5.593  0.2279 -0.5264  0.6584
35080SOL     OW12289   5.054   7.548   3.420 -0.3462  0.6823 -0.4421
35080SOL    HW112290   5.068   7.460   3.387  0.1209  1.1696 -1.5784
35080SOL    HW212291   5.131   7.597   3.392 -0.6968  1.5109 -0.0015
35081SOL     OW12292  10.561  10.667   8.002  0.1081 -0.3455  0.0030
35081SOL    HW112293  10.561  10.751   8.048  1.0680 -0.3528  0.0422
35081SOL    HW212294  10.490  10.617   8.041 -0.0083  0.1883  0.4746
35082SOL     OW12295   1.533   7.125   6.339  0.3415  0.2073 -0.4589
35082SOL    HW112296   1.570   7.081   6.415  0.2375  0.7749 -0.0659
35082SOL    HW212297   1.496   7.055   6.285 -0.6846 -0.1146  0.6198
35083SOL     OW12298   6.814  11.817   9.004  0.6783  0.6313  0.1191
35083SOL    HW112299   6.814  11.786   8.914  3.5224  0.2116  0.1686
35083SOL    HW212300   6.748  11.886   9.006 -0.2190 -0.0995 -1.9802
35084SOL     OW12301   0.275   6.820   1.587 -0.1167  0.1406 -0.3380
35084SOL    HW112302   0.347   6.880   1.608 -0.1419  0.0525  0.0072
35084SOL    HW212303   0.215   6.828   1.661  0.0585 -0.5802 -0.1161
35085SOL     OW12304   2.495  10.983   7.271  0.1113 -0.0542  0.2603
35085SOL    HW112305   2.427  10.979   7.338  0.1964 -0.5645  0.3210
35085SOL    HW212306   2.517  10.892   7.254 -1.4495 -0.0958 -2.0212
35086SOL     OW12307   4.908   0.404   8.809 -0.5601 -0.0257  0.2189
35086SOL    HW112308   4.991   0.394   8.854 -1.1394 -1.0848  1.0712
35086SOL    HW212309   4.931   0.407   8.716  0.3360 -1.6163  0.3622
35087SOL     OW12310   8.502   6.815  11.341  0.0010  0.1175  0.6524
35087SOL    HW112311   8.575   6.843  11.396  0.4788  0.7575 -0.2847
35087SOL    HW212312   8.432   6.795  11.403  1.0967 -0.9870  1.6153
35088SOL     OW12313  10.517  11.631   4.940  0.2415 -0.1980 -0.7284
35088SOL    HW112314  10.444  11.600   4.994 -1.1878 -0.1385 -2.5664
35088SOL    HW212315  10.527  11.564   4.872  1.2389  0.3160 -1.1104
35089SOL     OW12316   1.787   8.238   2.126 -0.5855 -1.0305 -0.2076
35089SOL    HW112317   1.853   8.286   2.177 -0.8437  0.1506 -0.9392
35089SOL    HW212318   1.703   8.266   2.162 -0.7089 -1.9936  0.2610
35090SOL     OW12319   4.257   1.870   8.301 -0.0110 -0.0452  0.2259
35090SOL    HW112320   4.337   1.820   8.318 -1.5859 -2.2821  1.7457
35090SOL    HW212321   4.192   1.803   8.277 -2.4947  1.0383  3.2721
35091SOL     OW12322   4.950   0.168   6.072 -0.0091 -0.4893 -0.2701
35091SOL    HW112323   4.993   0.224   6.007  0.6519  0.8855  1.3028
35091SOL    HW212324   4.857   0.173   6.050 -0.1946  2.6593  0.8140
35092SOL     OW12325   6.368  10.966   6.924 -0.4871  0.6341  0.0399
35092SOL    HW112326   6.330  10.880   6.943 -1.6429  1.1208  0.0038
35092SOL    HW212327   6.317  11.027   6.976 -0.2811  1.4020 -0.6353
35093SOL     OW12328   9.758   1.793   8.844 -0.6465  0.3719 -0.5128
35093SOL    HW112329   9.815   1.727   8.803 -1.4925  0.2615 -1.5822
35093SOL    HW212330   9.815   1.868   8.858 -0.0129 -0.0593 -0.6843
35094SOL     OW12331  11.747   7.044   5.715 -0.2275 -0.1753 -0.0359
35094SOL    HW112332  11.831   7.049   5.669 -0.2167 -0.4689 -0.0536
35094SOL    HW212333  11.752   6.961   5.763 -0.5238 -0.2121 -0.0694
35095SOL     OW12334   7.970   5.969   7.251 -0.1989 -0.5228  0.3676
35095SOL    HW112335   7.997   5.951   7.161 -1.8269  0.8964 -0.4767
35095SOL    HW212336   8.041   6.020   7.288 -0.7420  1.4471 -1.1369
35096SOL     OW12337   0.029   6.547   1.436  0.7609  0.5403  0.8154
35096SOL    HW112338   0.085   6.589   1.371  2.4446  0.2174  1.9871
35096SOL    HW212339   0.027   6.455   1.409  0.3731  0.6335  0.5079
35097SOL     OW12340  10.546   9.357   1.055 -0.3240  0.5406 -0.1810
35097SOL    HW112341  10.498   9.423   1.104  0.4948  0.6989  0.4215
35097SOL    HW212342  10.493   9.342   0.977 -1.8657 -0.0127  0.9310
35098SOL     OW12343  11.314   3.278   7.870  0.1089  0.3673  0.5911
35098SOL    HW112344  11.232   3.327   7.865 -0.2794 -0.3755 -1.3452
35098SOL    HW212345  11.310   3.233   7.954 -2.8249 -1.8388 -0.5380
35099SOL     OW12346   2.740   0.272   5.716  0.6029  0.4135 -0.0439
35099SOL    HW112347   2.653   0.307   5.734 -0.0509 -1.2435  0.1490
35099SOL    HW212348   2.742   0.188   5.762  0.9573 -1.3147 -2.9862
35100SOL     OW12349   3.526   0.801   6.007  0.1463 -0.1490 -0.0558
35100SOL    HW112350   3.516   0.888   6.046  1.3091 -0.5571  1.2081
35100SOL    HW212351   3.445   0.755   6.032  0.3652 -0.0311  0.9068
35101SOL     OW12352   6.811   2.836   6.426 -0.1661 -0.2650  0.2408
35101SOL    HW112353   6.830   2.900   6.357  1.0673 -1.0700 -0.2008
35101SOL    HW212354   6.770   2.763   6.380 -1.3234  0.0770  0.7033
35102SOL     OW12355   6.232   1.335  11.064 -0.8020  0.3199 -0.0443
35102SOL    HW112356   6.271   1.398  11.003 -0.1022  0.8236  0.9063
35102SOL    HW212357   6.141   1.362  11.072 -1.0591 -0.1064 -1.3132
35103SOL     OW12358   2.240   9.762  11.414 -0.6750  1.1775 -0.3175
35103SOL    HW112359   2.336   9.768  11.416 -0.8008  3.9576  1.3265
35103SOL    HW212360   2.219   9.691  11.474  0.3312 -1.7522 -3.1226
35104SOL     OW12361  11.239  10.466  11.309 -0.1097 -0.4139  0.8797
35104SOL    HW112362  11.263  10.498  11.396 -0.3599  0.8755  0.4939
35104SOL    HW212363  11.245  10.543  11.252  1.1694 -1.4484 -0.4912
35105SOL     OW12364   3.081  10.444  12.028 -0.1918 -0.6438  0.2735
35105SOL    HW112365   3.139  10.383  12.073 -1.4748 -1.8456  0.3689
35105SOL    HW212366   3.058  10.510  12.093  0.3665 -0.6495  0.4778
35106SOL     OW12367   6.678   7.328   3.014  0.0376 -0.6951 -0.2044
35106SOL    HW112368   6.613   7.339   3.083  1.6302  1.1871  1.1225
35106SOL    HW212369   6.752   7.382   3.042  0.9314 -0.1461 -3.2024
35107SOL     OW12370   2.161  11.533   4.225  0.1170  0.5088 -0.5679
35107SOL    HW112371   2.106  11.564   4.153 -1.6257 -0.0423  0.4845
35107SOL    HW212372   2.125  11.576   4.303  3.6515  3.3144 -0.1989
35108SOL     OW12373   6.641   9.837   9.030 -0.4153 -0.3532  0.0095
35108SOL    HW112374   6.698   9.801   8.962  0.8151  0.3683  0.6179
35108SOL    HW212375   6.569   9.774   9.037 -0.0871 -0.9081 -1.3036
35109SOL     OW12376  10.955   0.473   2.561  0.1215 -0.4934 -0.2841
35109SOL    HW112377  10.958   0.443   2.652 -1.5123 -0.3169 -0.1481
35109SOL    HW212378  10.885   0.422   2.521 -0.3316  0.6360 -0.9802
35110SOL     OW12379   3.543  10.555   6.081 -0.4016 -0.1875  0.6123
35110SOL    HW112380   3.554  10.516   5.995  0.9776  1.7986 -0.1851
35110SOL    HW212381   3.479  10.498   6.125 -3.1863  0.1299 -2.5772
35111SOL     OW12382  11.356   7.515   4.399 -0.3006  0.1408 -0.2310
35111SOL    HW112383  11.300   7.577   4.352 -0.2651 -0.3334 -0.9039
35111SOL    HW212384  11.329   7.429   4.367 -0.1355 -0.1814  0.4677
35112SOL     OW12385   6.369   9.613   3.317  0.8190  0.0741  0.1579
35112SOL    HW112386   6.432   9.542   3.327  1.6731  0.7398 -0.2634
35112SOL    HW212387   6.371   9.659   3.401 -1.5111 -1.7256  1.3291
35113SOL     OW12388  10.706   5.553   2.450  0.1946 -0.0343  0.3783
35113SOL    HW112389  10.758   5.624   2.412  0.6823 -0.5680  0.0372
35113SOL    HW212390  10.652   5.596   2.516  0.3143  0.6934  0.0115
35114SOL     OW12391   1.804   3.667   8.820 -0.2987  0.7786 -0.5607
35114SOL    HW112392   1.734   3.719   8.780 -1.3847  0.3343  0.7007
35114SOL    HW212393   1.799   3.686   8.913 -0.4031 -1.1553 -0.1145
35115SOL     OW12394   1.773  11.492   7.303  0.3200 -0.5526  0.1686
35115SOL    HW112395   1.857  11.519   7.341  0.7408  2.5311 -2.5077
35115SOL    HW212396   1.708  11.536   7.357  0.2575 -3.0998  2.3685
35116SOL     OW12397  10.527   3.953   5.453  0.3579 -0.1195  0.3878
35116SOL    HW112398  10.583   3.878   5.434 -0.7256 -0.5439 -1.3210
35116SOL    HW212399  10.588   4.026   5.464  1.3080 -0.1255 -3.3700
35117SOL     OW12400   6.960   0.083  10.139  0.0537  0.2075  0.6549
35117SOL    HW112401   6.986   0.000  10.180 -1.0659  0.0516  1.0859
35117SOL    HW212402   6.893   0.059  10.076 -1.0848  0.8921  1.5666
35118SOL     OW12403   2.854   2.810  11.390  0.3510 -0.2256  0.0799
35118SOL    HW112404   2.809   2.793  11.473  1.9872 -2.4713  0.6052
35118SOL    HW212405   2.816   2.746  11.329  0.1133  0.4949 -0.5309
35119SOL     OW12406  11.485   4.311  11.047 -0.3089  0.2621 -0.5196
35119SOL    HW112407  11.516   4.324  11.137 -0.0312  0.0494 -0.5829
35119SOL    HW212408  11.476   4.217  11.039  0.5650  0.2099 -1.0086
35120SOL     OW12409   3.194   2.661   5.935 -0.1775  0.0484 -0.4713
35120SOL    HW112410   3.197   2.570   5.908 -0.4699 -0.1409  0.1005
35120SOL    HW212411   3.272   2.701   5.897 -0.8038 -0.0780 -1.9599
35121SOL     OW12412   9.088   0.968   9.452 -0.4241  0.1216  0.5504
35121SOL    HW112413   9.059   1.045   9.403 -0.8770  0.4687  1.3394
35121SOL    HW212414   9.123   0.909   9.386 -1.9269  0.1659 -0.3148
35122SOL     OW12415   4.536   0.469   6.300  0.1304  0.2047  0.3177
35122SOL    HW112416   4.479   0.454   6.225 -0.0230 -3.0784  0.9250
35122SOL    HW212417   4.496   0.418   6.370  1.6563  1.1263  1.9362
35123SOL     OW12418   5.776   9.873   9.388 -0.5001  0.1461 -0.1164
35123SOL    HW112419   5.833   9.838   9.456 -0.7486  3.5718  2.0948
35123SOL    HW212420   5.834   9.921   9.329 -0.7902  2.5471  1.4135
35124SOL     OW12421   3.082   6.389   8.186 -0.1685 -0.4990  0.4976
35124SOL    HW112422   3.041   6.303   8.178  0.1348 -0.5444 -0.7720
35124SOL    HW212423   3.014   6.445   8.223 -0.1413 -1.4306  2.0379
35125SOL     OW12424   2.126   4.739  10.432  0.9574 -0.3665 -0.4171
35125SOL    HW112425   2.052   4.790  10.464  1.9608  0.2637  1.0302
35125SOL    HW212426   2.151   4.782  10.351  0.1887 -0.1386 -0.5427
35126SOL     OW12427   3.745  10.274  11.956 -0.1888 -0.2009  0.2899
35126SOL    HW112428   3.655  10.244  11.944 -0.1026 -0.6353  0.7207
35126SOL    HW212429   3.799  10.208  11.913  0.1112 -1.6807  2.7791
35127SOL     OW12430   0.457  12.418   0.863 -0.2851  0.1560  0.0730
35127SOL    HW112431   0.495  12.421   0.775  0.3398 -0.7870  0.2853
35127SOL    HW212432   0.446  12.324   0.881 -3.6546  0.3581 -0.3359
35128SOL     OW12433  11.693   1.086   8.686  0.2890 -0.0733 -0.2714
35128SOL    HW112434  11.706   1.028   8.761 -1.5599  0.1409  0.2697
35128SOL    HW212435  11.780   1.121   8.667  1.1298 -1.6703  0.4946
35129SOL     OW12436   7.683   8.173   0.948  0.4868 -0.1099  0.1494
35129SOL    HW112437   7.707   8.080   0.958  0.2943 -0.1697  0.0643
35129SOL    HW212438   7.697   8.191   0.855 -1.4342 -0.6184 -0.2840
35130SOL     OW12439   1.806   9.236  10.380 -0.0390  0.1031  0.0731
35130SOL    HW112440   1.860   9.311  10.409  0.1690 -0.0170 -0.0036
35130SOL    HW212441   1.746   9.273  10.316  1.0899 -0.0840 -1.1353
35131SOL     OW12442   7.820   3.431   0.970  0.0496  0.5005 -0.5464
35131SOL    HW112443   7.816   3.515   1.015  1.9526 -0.2772  1.2526
35131SOL    HW212444   7.731   3.417   0.937 -0.8772  2.1600  1.0710
35132SOL     OW12445   2.365   6.202   8.242  0.0813 -0.1082 -0.1983
35132SOL    HW112446   2.376   6.188   8.148  1.6193  2.1915 -0.4271
35132SOL    HW212447   2.291   6.263   8.248 -1.2991 -1.7489  0.2643
35133SOL     OW12448   5.700   7.745  10.610 -0.1555 -0.2805 -0.3022
35133SOL    HW112449   5.675   7.838  10.615 -0.9417 -0.3921 -1.6754
35133SOL    HW212450   5.788   7.742  10.648  0.1647  1.1462 -0.8663
35134SOL     OW12451  11.728   8.040   1.885  0.0939  0.0284  0.5203
35134SOL    HW112452  11.709   8.130   1.909  0.3150  0.3713 -0.5505
35134SOL    HW212453  11.784   8.007   1.956  0.8111  1.0315  0.4312
35135SOL     OW12454   0.281  11.925   3.860 -0.4795 -0.7234  0.4964
35135SOL    HW112455   0.360  11.940   3.912 -0.1253 -1.9485  0.3407
35135SOL    HW212456   0.230  11.862   3.912 -1.4919  0.2476  0.7213
35136SOL     OW12457   6.953   1.933   8.954 -0.0094 -0.3475 -0.3186
35136SOL    HW112458   7.033   1.985   8.954 -1.3758  1.9230  1.3297
35136SOL    HW212459   6.979   1.849   8.993  1.1460  1.2162  2.5734
35137SOL     OW12460   0.422   2.367   3.085  0.0369  0.4833  0.1078
35137SOL    HW112461   0.408   2.302   3.016  3.5481  0.3480 -0.6473
35137SOL    HW212462   0.472   2.437   3.043 -1.6664  2.6459  1.4802
35138SOL     OW12463   2.686   6.141  12.298  0.1218  0.1716  0.2485
35138SOL    HW112464   2.705   6.219  12.351 -1.6311  0.8147 -0.0141
35138SOL    HW212465   2.658   6.175  12.214  0.2524 -0.7890 -0.1993
35139SOL     OW12466   5.417   4.078   6.194  0.2178  0.5809  0.2000
35139SOL    HW112467   5.493   4.026   6.220 -0.4903 -0.6022 -0.0252
35139SOL    HW212468   5.382   4.032   6.117  0.8508  2.6235 -1.4143
35140SOL     OW12469   8.344   0.677   4.543 -0.3398 -0.1980  0.2586
35140SOL    HW112470   8.401   0.613   4.587 -1.0312 -0.5404  0.6706
35140SOL    HW212471   8.285   0.623   4.491  1.3623  0.2235 -2.2788
35141SOL     OW12472  12.131   6.013   2.821  0.3264 -0.3118 -0.2745
35141SOL    HW112473  12.063   6.060   2.772  0.8287 -0.9548 -1.6328
35141SOL    HW212474  12.191   6.081   2.850 -0.8054  0.2557  0.8423
35142SOL     OW12475   9.679   5.197   7.283 -0.6782  0.3644 -0.3046
35142SOL    HW112476   9.632   5.241   7.212  0.1830 -0.7973 -1.6447
35142SOL    HW212477   9.713   5.117   7.244 -3.0702 -2.1677  2.2663
35143SOL     OW12478  12.111  10.498   2.482  0.8814  0.2480 -0.3358
35143SOL    HW112479  12.169  10.423   2.467 -0.1024 -0.5965 -0.0663
35143SOL    HW212480  12.051  10.497   2.407 -0.8027 -0.8683  0.9629
35144SOL     OW12481   7.041   8.011   8.092  0.7043  0.3081 -0.3894
35144SOL    HW112482   7.009   8.066   8.164 -0.8603  0.0877 -0.8984
35144SOL    HW212483   7.044   7.923   8.129  2.1342  0.5159  0.0783
35145SOL     OW12484   2.917   9.011   7.047  0.3963  0.1462  0.4118
35145SOL    HW112485   2.906   8.991   7.140  0.5256  0.1944  0.4384
35145SOL    HW212486   2.952   8.930   7.009  1.7651  0.5794  0.6837
35146SOL     OW12487   7.992   5.486  11.233 -0.3325 -0.1370 -0.2428
35146SOL    HW112488   8.001   5.565  11.286 -0.6864 -0.1675 -0.1384
35146SOL    HW212489   7.904   5.454  11.251 -0.2871 -0.4097 -0.4891
35147SOL     OW12490   2.009   9.574   3.132 -0.3514 -0.2583  0.0302
35147SOL    HW112491   2.035   9.588   3.223  0.0152 -0.7713  0.0050
35147SOL    HW212492   1.922   9.614   3.125  0.0114  0.6145  0.3619
35148SOL     OW12493   2.527   6.280   6.121  0.0417  0.3014 -0.0766
35148SOL    HW112494   2.564   6.354   6.073  0.6270 -1.7513 -3.0688
35148SOL    HW212495   2.572   6.203   6.086 -2.8031 -1.8054  0.4585
35149SOL     OW12496   4.278   8.729  10.283 -0.1796  0.0515 -0.0818
35149SOL    HW112497   4.258   8.791  10.212  1.0635  2.7502  1.7404
35149SOL    HW212498   4.195   8.684  10.299 -0.9578  0.6742 -1.9965
35150SOL     OW12499   8.917   9.494  10.897 -0.0740 -0.2827 -0.0848
35150SOL    HW112500   8.969   9.559  10.850  0.7232 -0.9909 -0.2218
35150SOL    HW212501   8.829   9.501  10.859  0.2792 -0.0579 -0.8798
35151SOL     OW12502  11.060  11.913   6.036 -0.1513  0.3191 -0.0599
35151SOL    HW112503  11.115  11.853   5.985 -1.4988 -1.0975  0.0764
35151SOL    HW212504  11.070  11.998   5.992  1.3541 -0.1150 -0.6126
35152SOL     OW12505   8.560   6.455   8.258  0.4358 -0.1295  0.3184
35152SOL    HW112506   8.612   6.522   8.303  0.7488 -0.9198  1.1639
35152SOL    HW212507   8.597   6.372   8.288  0.6862 -0.6920 -1.4474
35153SOL     OW12508   0.174   3.676   2.627 -0.5651  0.0978  0.1307
35153SOL    HW112509   0.102   3.720   2.582  0.2613  1.6041  0.2257
35153SOL    HW212510   0.252   3.701   2.578  0.2155  0.7906  1.6490
35154SOL     OW12511  12.530   5.148   2.108 -0.2211  0.3601 -0.1016
35154SOL    HW112512  12.594   5.212   2.139  0.8336 -0.4872 -0.4446
35154SOL    HW212513  12.534   5.155   2.012  0.2524 -0.5220 -0.1583
35155SOL     OW12514  11.387   1.784   6.750  0.1947 -0.4182 -0.1180
35155SOL    HW112515  11.443   1.742   6.685 -0.0549 -0.0936 -0.5485
35155SOL    HW212516  11.298   1.757   6.725  0.1103 -0.4099  0.1740
35156SOL     OW12517   1.112   5.062   2.664  0.3305 -0.7610  0.1724
35156SOL    HW112518   1.154   4.989   2.710  0.1753 -0.6478  0.5023
35156SOL    HW212519   1.055   5.102   2.730  3.0179  1.8352  1.1415
35157SOL     OW12520   0.735   5.602   2.609 -0.1720  0.0355  0.2514
35157SOL    HW112521   0.819   5.632   2.644  0.1489  1.8702 -1.8538
35157SOL    HW212522   0.758   5.546   2.535 -0.7928  0.5256 -0.3211
35158SOL     OW12523   7.137   2.818   7.460 -0.1860 -0.1235 -0.4078
35158SOL    HW112524   7.142   2.726   7.433 -0.2921 -0.1413 -0.3669
35158SOL    HW212525   7.080   2.860   7.396  0.3096  0.0337 -0.7472
35159SOL     OW12526   3.902   6.502   4.162 -0.7143 -0.1111 -0.1570
35159SOL    HW112527   3.972   6.558   4.193 -0.3080 -1.2818  1.1314
35159SOL    HW212528   3.902   6.514   4.067  0.4940  0.7350 -0.0706
35160SOL     OW12529   2.030  11.806   1.214  0.0622  0.0487 -0.0558
35160SOL    HW112530   2.120  11.838   1.217  0.5121 -1.2153  0.8686
35160SOL    HW212531   2.015  11.787   1.122  1.6391 -2.0236  0.0321
35161SOL     OW12532   8.766  12.229   4.650 -0.1315  0.0137 -0.4285
35161SOL    HW112533   8.742  12.319   4.629  1.0053  0.6269  0.7344
35161SOL    HW212534   8.857  12.235   4.680 -0.4678 -1.3097  0.9884
35162SOL     OW12535  10.254  11.992   6.435 -0.3024  0.0749 -0.3834
35162SOL    HW112536  10.347  11.969   6.426  0.4749  2.1479  1.4370
35162SOL    HW212537  10.234  11.974   6.527 -2.1832 -1.6632 -1.0528
35163SOL     OW12538   6.736   5.340   7.357 -0.7487 -0.3322  0.1094
35163SOL    HW112539   6.764   5.366   7.444  1.0103  0.1133 -0.5367
35163SOL    HW212540   6.644   5.364   7.352  0.3780  5.3935 -0.1856
35164SOL     OW12541   1.475  11.923   6.642  0.4382 -0.4248 -0.0347
35164SOL    HW112542   1.418  11.863   6.689  0.5662 -0.3547  0.2161
35164SOL    HW212543   1.556  11.874   6.629  0.3074 -0.5367 -0.4226
35165SOL     OW12544   1.645  11.763  10.728 -0.0682  0.6083  0.6209
35165SOL    HW112545   1.632  11.745  10.635 -0.2974 -1.1273  0.9575
35165SOL    HW212546   1.566  11.732  10.771  0.1779  1.0709  1.4386
35166SOL     OW12547   7.331  11.011   5.770 -0.4991  0.1276 -0.3313
35166SOL    HW112548   7.380  11.093   5.775  1.4347 -0.7890 -2.2562
35166SOL    HW212549   7.356  10.963   5.849  0.1818  0.4756 -0.3290
35167SOL     OW12550   7.414   6.591   4.413 -0.0708 -0.1584  0.2676
35167SOL    HW112551   7.489   6.616   4.359 -0.9029 -3.2430 -2.6846
35167SOL    HW212552   7.347   6.655   4.391  0.8187  1.0131  0.8451
35168SOL     OW12553   3.683   8.935  11.742 -0.0001  0.2903 -0.6299
35168SOL    HW112554   3.726   9.012  11.707  0.3582  0.5055  0.2544
35168SOL    HW212555   3.698   8.866  11.677  0.7568  0.6376 -0.8225
35169SOL     OW12556   8.161   8.966  11.039  0.3914  0.1670 -0.1283
35169SOL    HW112557   8.242   8.987  11.086 -0.5051  1.6460  0.7945
35169SOL    HW212558   8.103   8.929  11.106  0.4330 -1.3900 -0.8906
35170SOL     OW12559   5.184   1.393   8.422  0.3990  1.2562 -0.1081
35170SOL    HW112560   5.243   1.342   8.368  1.7566  0.8239  1.7032
35170SOL    HW212561   5.238   1.426   8.494 -0.9499  3.2412  0.0969
35171SOL     OW12562   7.921   3.094  10.249 -0.3255  0.9172 -0.4781
35171SOL    HW112563   7.946   3.038  10.176  0.9113  0.5100  0.2413
35171SOL    HW212564   7.861   3.041  10.301  2.1493 -0.4819  1.1382
35172SOL     OW12565   6.513  11.175   7.828 -0.1186  0.1224  0.4328
35172SOL    HW112566   6.451  11.246   7.843 -1.7393 -1.0184 -0.5127
35172SOL    HW212567   6.531  11.178   7.734  1.3838  0.5019  0.7130
35173SOL     OW12568   6.339   5.707  10.590 -0.4276  0.0932 -0.4210
35173SOL    HW112569   6.350   5.625  10.638 -2.0186  1.1055  1.8249
35173SOL    HW212570   6.250   5.704  10.556 -0.4576  0.8343 -0.4338
35174SOL     OW12571  11.830   9.690  11.044  0.1004 -0.3643 -0.3362
35174SOL    HW112572  11.902   9.721  10.989  0.6519  1.2257  1.1776
35174SOL    HW212573  11.750   9.718  10.999  0.4947 -0.2385 -0.9597
35175SOL     OW12574   5.764   5.655   0.461 -0.2771 -0.4202 -0.4078
35175SOL    HW112575   5.716   5.738   0.453 -0.2288 -0.1934  1.2051
35175SOL    HW212576   5.696   5.590   0.481 -0.2915 -0.7572 -1.4854
35176SOL     OW12577   9.690   9.858   8.420  0.1909 -0.6378 -0.4076
35176SOL    HW112578   9.762   9.861   8.357  1.7830 -1.2519  1.3047
35176SOL    HW212579   9.693   9.944   8.463  0.2824 -0.8707  0.0576
35177SOL     OW12580   6.849   5.732   0.441  0.1202 -0.1801 -0.1070
35177SOL    HW112581   6.903   5.807   0.465  0.4414 -0.8589  1.4522
35177SOL    HW212582   6.798   5.713   0.520  0.5521 -2.0039 -0.2251
35178SOL     OW12583   8.188   7.954   2.999  0.7257 -0.2065  0.6541
35178SOL    HW112584   8.229   8.033   2.964  0.8028 -0.3806  0.3497
35178SOL    HW212585   8.256   7.913   3.052  0.5919  0.0883  1.0521
35179SOL     OW12586   1.210   6.835  10.960 -0.7161  0.0044  0.3537
35179SOL    HW112587   1.135   6.853  10.904 -2.4580 -0.4972  2.3580
35179SOL    HW212588   1.180   6.859  11.048  2.5435  2.6467  0.9228
35180SOL     OW12589   5.120   5.235   0.781  0.5062  0.6643  0.4605
35180SOL    HW112590   5.172   5.315   0.789  1.4980 -0.0498  1.4869
35180SOL    HW212591   5.038   5.254   0.827  0.5624  1.2393  0.3201
35181SOL     OW12592   6.643   0.441  12.009 -0.5704  0.2463 -0.1026
35181SOL    HW112593   6.567   0.389  12.036 -1.2482  0.8257 -0.8292
35181SOL    HW212594   6.717   0.382  12.018 -1.3176 -0.8622 -0.9091
35182SOL     OW12595   0.006   1.664   7.671  0.3825  0.1163 -0.0515
35182SOL    HW112596  -0.022   1.605   7.740  0.0052 -0.2268 -0.4934
35182SOL    HW212597   0.037   1.742   7.717 -1.8642  0.7716  0.4666
35183SOL     OW12598   2.095   6.200   2.786 -0.1517  0.5014 -0.8525
35183SOL    HW112599   2.048   6.120   2.808  0.5794 -0.3617 -2.3136
35183SOL    HW212600   2.187   6.178   2.797  0.0370  1.4097 -0.4792
35184SOL     OW12601   9.601   4.013   4.141 -0.2118 -0.0402  0.4740
35184SOL    HW112602   9.665   4.068   4.187  0.1796 -0.4745  0.4592
35184SOL    HW212603   9.635   3.924   4.149 -0.1578 -0.1395 -0.6009
35185SOL     OW12604   6.925   6.341   1.843  0.0853 -0.7629  0.0998
35185SOL    HW112605   6.997   6.401   1.828  0.0075 -0.4052  1.0518
35185SOL    HW212606   6.859   6.364   1.778  0.3062 -0.2160  0.0669
35186SOL     OW12607   3.409   5.720   1.593  0.5045 -0.0246  0.6458
35186SOL    HW112608   3.477   5.675   1.543  1.3155  0.1862  1.5414
35186SOL    HW212609   3.337   5.657   1.599  0.4110 -0.0786 -0.7108
35187SOL     OW12610   6.850  10.283   3.636  0.2737  0.4331 -0.4965
35187SOL    HW112611   6.945  10.275   3.644  0.1615  0.9680  3.2944
35187SOL    HW212612   6.831  10.372   3.667 -1.4944 -0.0080 -0.1905
35188SOL     OW12613   7.781   6.693   0.330 -0.0023  0.8529  0.5573
35188SOL    HW112614   7.697   6.658   0.301  0.6771  0.0464 -0.5059
35188SOL    HW212615   7.771   6.788   0.323 -0.2645  0.7209 -1.2808
35189SOL     OW12616   3.900   3.730   0.826  0.4799  0.4011  0.2802
35189SOL    HW112617   3.938   3.643   0.832  0.5026  0.4582  1.2422
35189SOL    HW212618   3.848   3.738   0.907 -0.2007  0.9563 -0.1990
35190SOL     OW12619   7.624   5.511   4.813  0.0738 -0.3678 -0.3839
35190SOL    HW112620   7.640   5.443   4.879  1.7067 -1.6753 -2.0129
35190SOL    HW212621   7.545   5.482   4.767 -0.9564  0.4470  0.7950
35191SOL     OW12622  12.469   4.091   7.316  0.5462 -0.2286 -0.1745
35191SOL    HW112623  12.558   4.099   7.349  1.0952 -1.6110 -1.2431
35191SOL    HW212624  12.435   4.181   7.317  2.6440  0.6591 -1.5995
35192SOL     OW12625   9.287   6.575  10.618 -0.4605  0.5319 -0.2886
35192SOL    HW112626   9.296   6.641  10.550  0.9979 -1.6728 -2.3837
35192SOL    HW212627   9.214   6.520  10.589 -0.8030  0.4025  0.7456
35193SOL     OW12628   5.495  12.273   4.403  0.2016  0.1117 -0.4970
35193SOL    HW112629   5.474  12.312   4.318 -0.5962  1.4297  0.2594
35193SOL    HW212630   5.411  12.272   4.450  0.7661  0.1092  0.5416
35194SOL     OW12631   7.365  12.025   1.613  0.2722  0.4045  0.3022
35194SOL    HW112632   7.298  11.957   1.603  0.7191 -0.2545  1.5716
35194SOL    HW212633   7.317  12.107   1.604 -0.4131 -0.0705 -0.4986
35195SOL     OW12634   6.432   4.614   1.322  0.1050  0.4448 -0.5811
35195SOL    HW112635   6.352   4.564   1.337 -0.1639  0.5877 -1.5038
35195SOL    HW212636   6.502   4.554   1.347 -0.2854  0.3542  0.3298
35196SOL     OW12637  10.625   4.078   3.172 -0.3693 -0.0673 -0.2630
35196SOL    HW112638  10.548   4.131   3.149 -0.3497 -0.1208 -0.4514
35196SOL    HW212639  10.637   4.019   3.097  0.3515  0.4991 -0.6137
35197SOL     OW12640   1.796   2.892   7.999  0.2912  0.0029  0.2658
35197SOL    HW112641   1.709   2.928   8.015 -0.4001 -1.6652  0.5045
35197SOL    HW212642   1.832   2.945   7.928 -1.4575 -0.0653 -0.7297
35198SOL     OW12643  10.616   3.074   9.037  0.2823  0.2142  0.0706
35198SOL    HW112644  10.676   3.065   8.963  1.0397 -1.2732  0.8167
35198SOL    HW212645  10.555   3.000   9.028  0.8185 -0.4070  1.2859
35199SOL     OW12646  10.093   2.626   9.665 -0.0636  0.4252  0.0419
35199SOL    HW112647  10.061   2.576   9.740  0.2328 -0.1908 -0.2326
35199SOL    HW212648  10.034   2.602   9.593  0.0975  0.4421 -0.0969
35200SOL     OW12649   0.475  12.160   2.871 -0.0147 -0.7588  0.1585
35200SOL    HW112650   0.417  12.130   2.941  0.5484 -2.7107 -0.1469
35200SOL    HW212651   0.554  12.107   2.881  0.5892 -0.1514 -1.1622
35201SOL     OW12652   1.850   3.156   7.466 -0.5824  0.1451  0.8591
35201SOL    HW112653   1.801   3.133   7.545 -2.6406 -1.6062 -0.8151
35201SOL    HW212654   1.933   3.110   7.475 -0.7463  0.0354  2.0128
35202SOL     OW12655   1.877  11.193   2.308  0.2026  0.0832 -0.2278
35202SOL    HW112656   1.878  11.138   2.387  1.2447  0.6065  0.1391
35202SOL    HW212657   1.866  11.282   2.342  4.3593  0.7959 -0.2904
35203SOL     OW12658  11.317  11.318   8.322  0.0003  0.1704  0.3360
35203SOL    HW112659  11.316  11.313   8.418 -0.6677  1.5127  0.4140
35203SOL    HW212660  11.235  11.361   8.299 -0.1482 -0.7281 -0.8955
35204SOL     OW12661   9.507   5.028   5.768 -0.3556 -0.1731 -0.3121
35204SOL    HW112662   9.420   5.061   5.791  0.4799  0.7976  1.7251
35204SOL    HW212663   9.540   5.091   5.703 -1.3310 -0.8544 -1.5208
35205SOL     OW12664   3.180   6.558   3.032 -0.6481 -0.3423 -0.0377
35205SOL    HW112665   3.122   6.532   2.960 -0.5672 -0.4182 -0.0750
35205SOL    HW212666   3.261   6.586   2.988  1.0222 -4.2906  0.1539
35206SOL     OW12667   5.740   8.735   3.531  0.0379 -0.2264  0.1643
35206SOL    HW112668   5.691   8.788   3.594  0.1932  0.2035 -0.0748
35206SOL    HW212669   5.816   8.703   3.580 -0.5825 -1.0739  0.6013
35207SOL     OW12670   2.228   5.783   2.540 -0.5342 -0.4359  0.1610
35207SOL    HW112671   2.216   5.871   2.506 -2.7202 -1.5733 -2.3654
35207SOL    HW212672   2.202   5.788   2.632 -1.2935  1.3838 -0.1330
35208SOL     OW12673   5.864   7.489   8.552  0.0465  0.0388 -0.2293
35208SOL    HW112674   5.958   7.489   8.569 -0.1901 -2.2572  1.5831
35208SOL    HW212675   5.832   7.569   8.593  1.2277  1.2076 -1.4603
35209SOL     OW12676   3.361   9.838   1.777 -0.2678  0.0062  0.7134
35209SOL    HW112677   3.275   9.797   1.769 -0.7462  0.9091  1.0772
35209SOL    HW212678   3.371   9.855   1.870  0.2455  0.0410  0.6548
35210SOL     OW12679   1.508   3.710  11.908 -0.2756  0.1474  0.0195
35210SOL    HW112680   1.568   3.694  11.981 -0.1190 -1.2049 -0.3866
35210SOL    HW212681   1.446   3.774  11.943  0.9915  1.0868  0.6617
35211SOL     OW12682   8.599   0.102   2.096  0.0180 -0.3233  0.5379
35211SOL    HW112683   8.509   0.128   2.115 -0.6628 -0.5586 -2.0406
35211SOL    HW212684   8.649   0.184   2.096 -0.6965  0.1243 -0.4574
35212SOL     OW12685   1.924  12.043   4.790 -0.4338 -0.1204 -0.1046
35212SOL    HW112686   1.933  12.092   4.872  0.8943 -1.0304  0.3203
35212SOL    HW212687   1.951  11.954   4.811  0.8159 -0.1769 -1.7231
35213SOL     OW12688   3.036   9.800  11.294  0.1727 -0.2432  0.1247
35213SOL    HW112689   3.052   9.815  11.387 -0.5323 -1.8799  0.5471
35213SOL    HW212690   2.973   9.728  11.292 -1.6462  1.2749 -1.5847
35214SOL     OW12691   2.605  10.993  10.261  0.3872 -0.4377 -0.1338
35214SOL    HW112692   2.530  10.952  10.304  1.2917  1.2457  3.3733
35214SOL    HW212693   2.566  11.059  10.202 -0.9182 -0.1352  1.0245
35215SOL     OW12694  10.488   0.637   9.951 -0.2854 -0.0699  0.7965
35215SOL    HW112695  10.556   0.610   9.889 -0.3034  2.6250 -0.5399
35215SOL    HW212696  10.409   0.591   9.923 -0.0987  0.4683 -0.7053
35216SOL     OW12697   2.391   3.036   8.224 -0.0299  0.0790 -0.1478
35216SOL    HW112698   2.389   2.960   8.282 -1.9537  1.3894  1.6127
35216SOL    HW212699   2.316   3.024   8.165 -0.1933  0.4990 -0.0252
35217SOL     OW12700   8.287  11.399   7.345 -0.5948  0.1793 -0.1243
35217SOL    HW112701   8.228  11.342   7.395  0.7336 -2.5382 -1.4286
35217SOL    HW212702   8.238  11.418   7.265 -0.4346 -0.5791 -0.4166
35218SOL     OW12703   0.522  10.815   8.522  0.9892  0.3205  0.0758
35218SOL    HW112704   0.603  10.765   8.530  1.1263  0.7066  1.2333
35218SOL    HW212705   0.530  10.884   8.587  0.7017  1.7261 -1.3019
35219SOL     OW12706   8.110   6.449  10.677 -0.4619 -0.2278  0.7905
35219SOL    HW112707   8.135   6.411  10.761 -0.8860  2.0771  2.0344
35219SOL    HW212708   8.188   6.442  10.623  0.0024 -1.2240  1.5673
35220SOL     OW12709   2.853   8.611   0.825  0.2787  0.5259 -0.0359
35220SOL    HW112710   2.822   8.686   0.876  1.4908  0.8097  0.2936
35220SOL    HW212711   2.872   8.647   0.738 -0.2430  0.3539 -0.2312
35221SOL     OW12712   2.219   1.724   1.390  0.1851 -0.2935 -0.1813
35221SOL    HW112713   2.298   1.776   1.406 -0.7626  1.3638 -0.6184
35221SOL    HW212714   2.224   1.699   1.298  0.6901 -1.0867  0.0544
35222SOL     OW12715   7.047   4.634   3.275 -0.5464  0.0225 -0.0745
35222SOL    HW112716   7.082   4.722   3.291  0.4833 -0.2716 -0.6016
35222SOL    HW212717   7.048   4.592   3.362 -2.9063  1.1338  0.5617
35223SOL     OW12718   9.867   8.968  11.844 -0.5884  0.0305  0.4556
35223SOL    HW112719   9.918   9.026  11.786 -0.6192  0.7499  1.1306
35223SOL    HW212720   9.826   8.906  11.785  0.3468  0.0042 -0.1894
35224SOL     OW12721   2.364  11.367  11.698 -0.1408  0.2652  0.1894
35224SOL    HW112722   2.333  11.391  11.610 -0.1937  3.2389  0.9142
35224SOL    HW212723   2.438  11.425  11.714  2.2271 -2.6724  0.8258
35225SOL     OW12724  10.200   9.964   9.510  0.3481 -0.3369  0.1452
35225SOL    HW112725  10.139  10.022   9.554  0.4625 -0.7902  0.9140
35225SOL    HW212726  10.275  10.020   9.489 -0.0693  0.0795 -0.2632
35226SOL     OW12727   2.276   9.746   9.644  0.6558  0.0429  0.0006
35226SOL    HW112728   2.234   9.678   9.697 -0.8326  0.8334 -0.1086
35226SOL    HW212729   2.347   9.779   9.699  1.5752 -1.7447 -0.0466
35227SOL     OW12730   6.163   0.535   1.990  0.1262  0.5261 -0.2326
35227SOL    HW112731   6.228   0.592   1.949 -0.7275  1.6441 -0.0876
35227SOL    HW212732   6.140   0.471   1.922  0.8743  0.5327 -0.4970
35228SOL     OW12733   9.788   4.278  11.262 -0.5455 -0.1614  0.8288
35228SOL    HW112734   9.714   4.308  11.315 -1.6135 -0.1148 -0.6367
35228SOL    HW212735   9.840   4.357  11.247 -0.7954  0.0262  0.9352
35229SOL     OW12736  10.339  12.212   5.919  0.1136 -0.2528 -0.1013
35229SOL    HW112737  10.319  12.119   5.906 -0.3518 -0.0694 -0.7811
35229SOL    HW212738  10.370  12.218   6.009 -0.6560 -0.9397  0.2223
35230SOL     OW12739  10.970   9.179   0.028 -0.0362  0.4836 -0.4108
35230SOL    HW112740  10.950   9.178   0.122 -0.7894  0.5985 -0.5586
35230SOL    HW212741  10.948   9.268  -0.000 -2.0123 -0.1704 -1.1230
35231SOL     OW12742   9.805  10.656   0.151 -0.0794  0.4637  0.5883
35231SOL    HW112743   9.737  10.656   0.218  0.1788 -1.4818  0.9094
35231SOL    HW212744   9.879  10.613   0.193  1.1582  1.9375  0.0237
35232SOL     OW12745   0.668  11.476   5.713 -0.2181  0.2579  0.4187
35232SOL    HW112746   0.678  11.390   5.753 -1.6736 -0.9361 -1.6023
35232SOL    HW212747   0.581  11.505   5.740 -0.1008  0.6857  0.3431
35233SOL     OW12748   0.530  11.442   2.852  0.2490  0.6866 -0.3664
35233SOL    HW112749   0.558  11.351   2.850  2.2566  1.1698  1.2413
35233SOL    HW212750   0.486  11.452   2.937  4.0473  2.0880  1.6845
35234SOL     OW12751   7.271   0.242   5.652 -0.7004 -0.2857  0.0159
35234SOL    HW112752   7.180   0.257   5.626  0.2382  1.3471 -2.8583
35234SOL    HW212753   7.298   0.324   5.694 -1.1039 -1.5740  2.9954
35235SOL     OW12754   0.115   3.148   1.278  0.2962  0.4587  0.1355
35235SOL    HW112755   0.168   3.072   1.254 -1.3739 -0.3339 -1.2829
35235SOL    HW212756   0.173   3.223   1.267  1.8037 -0.5395  0.9641
35236SOL     OW12757   0.261   3.563   4.303  0.8430 -0.0072  0.1792
35236SOL    HW112758   0.252   3.612   4.385  0.1791  0.4705 -0.1661
35236SOL    HW212759   0.347   3.521   4.309  0.1678 -1.2424  1.7864
35237SOL     OW12760   1.638   6.722   6.656  0.4008  0.3858 -0.1400
35237SOL    HW112761   1.646   6.743   6.749 -0.3173 -0.8905  0.2440
35237SOL    HW212762   1.549   6.687   6.647  0.8660 -0.6336 -1.0566
35238SOL     OW12763   5.292  10.008   5.526  0.0778  0.5276  0.0433
35238SOL    HW112764   5.220  10.067   5.503 -3.2229 -3.2383 -0.3664
35238SOL    HW212765   5.360  10.027   5.462 -0.6604  3.9241  0.1025
35239SOL     OW12766   8.823  11.319  10.148 -0.6633  0.0221  0.2300
35239SOL    HW112767   8.747  11.369  10.117 -0.3653  1.2908  1.4139
35239SOL    HW212768   8.883  11.319  10.073 -0.1067  2.6931  0.5579
35240SOL     OW12769  11.150  10.851   7.765 -0.2915  0.2434  0.6515
35240SOL    HW112770  11.116  10.846   7.676  0.0026 -1.0261  0.5954
35240SOL    HW212771  11.214  10.923   7.762 -0.0739  0.0246 -0.2315
35241SOL     OW12772   6.115   1.957   5.462 -0.4776 -0.3090 -0.4621
35241SOL    HW112773   6.098   2.014   5.387  2.0460  0.8940 -0.2152
35241SOL    HW212774   6.085   1.871   5.434 -0.2219  0.2499 -2.6030
35242SOL     OW12775   6.551   4.808   2.545  0.1382 -0.2933  0.3768
35242SOL    HW112776   6.488   4.747   2.583  0.3297  0.2638  1.6516
35242SOL    HW212777   6.520   4.894   2.572 -1.7252  0.5098 -3.6930
35243SOL     OW12778   5.453   5.169   8.836  0.0362 -0.1578  0.0269
35243SOL    HW112779   5.365   5.184   8.871  0.4063  2.0117  0.1801
35243SOL    HW212780   5.494   5.110   8.899 -0.7348  0.2271  0.9282
35244SOL     OW12781  11.186   2.038  11.563 -0.1187 -0.4811  0.2252
35244SOL    HW112782  11.095   2.057  11.590 -0.6412 -0.6177 -1.3400
35244SOL    HW212783  11.179   2.017  11.470  1.8263  2.0403 -0.6142
35245SOL     OW12784   8.797   4.894   6.536 -0.0971  0.0884  0.3577
35245SOL    HW112785   8.729   4.827   6.544  0.5692 -0.6448 -0.0435
35245SOL    HW212786   8.833   4.902   6.625  0.1685 -0.4522  0.2980
35246SOL     OW12787   4.905   5.565   8.424  0.0647 -0.3757 -0.2073
35246SOL    HW112788   4.923   5.653   8.457 -0.4480 -0.5422  0.5428
35246SOL    HW212789   4.894   5.511   8.503  0.5909 -1.1582 -0.6547
35247SOL     OW12790   7.000   1.140   7.194  0.6001  0.4154 -0.3242
35247SOL    HW112791   6.980   1.076   7.126  1.7352  0.3577 -0.6214
35247SOL    HW212792   7.056   1.093   7.256  1.5286  1.1373 -0.5978
35248SOL     OW12793   8.487   8.667   4.996  0.4855  0.4702 -0.1288
35248SOL    HW112794   8.520   8.578   4.988  1.0832  0.8110 -1.7834
35248SOL    HW212795   8.503   8.690   5.088  1.5160 -0.6674 -0.0001
35249SOL     OW12796   9.537   1.283   0.880 -0.3645  0.4070 -0.1288
35249SOL    HW112797   9.553   1.189   0.890 -2.7796  0.1166  1.6660
35249SOL    HW212798   9.455   1.288   0.831 -0.7648  1.5750  0.6484
35250SOL     OW12799   7.095   6.691   2.583  0.4904 -0.6561 -0.2740
35250SOL    HW112800   7.186   6.669   2.563  0.9891 -0.4732  1.5630
35250SOL    HW212801   7.099   6.732   2.670 -1.1979  0.5828 -0.7332
35251SOL     OW12802   0.269   6.210   4.388  0.5669 -0.1094 -0.6532
35251SOL    HW112803   0.253   6.304   4.398 -1.4509 -0.5741  1.8332
35251SOL    HW212804   0.345   6.193   4.443  1.5447  0.1720 -1.8846
35252SOL     OW12805   3.247   5.231   7.723  0.0634  0.5134 -0.2072
35252SOL    HW112806   3.269   5.161   7.661 -0.6876  0.1797 -0.1085
35252SOL    HW212807   3.331   5.269   7.747  0.4270  0.1027 -0.8025
35253SOL     OW12808  10.773   1.978   5.244  0.1567 -0.4559 -0.2414
35253SOL    HW112809  10.838   2.001   5.310  0.0747  1.6340 -0.8418
35253SOL    HW212810  10.785   1.883   5.232 -0.4892 -1.1578  3.4278
35254SOL     OW12811   7.420   4.129   2.498 -0.0906  0.6567 -0.3868
35254SOL    HW112812   7.483   4.088   2.438 -0.4995 -0.0302 -0.3527
35254SOL    HW212813   7.335   4.092   2.473 -0.4592  1.4498 -0.3170
35255SOL     OW12814   6.104   9.650   1.463  0.2222 -0.1190 -0.1915
35255SOL    HW112815   6.012   9.645   1.436 -0.2018 -1.3645  1.2937
35255SOL    HW212816   6.146   9.705   1.397 -1.4125 -0.2255 -1.3854
35256SOL     OW12817   2.444   2.801   3.971 -0.4412 -0.1649 -0.2070
35256SOL    HW112818   2.474   2.811   3.881 -0.9229  1.0430 -0.2482
35256SOL    HW212819   2.514   2.838   4.024 -0.2912 -0.6052 -0.0874
35257SOL     OW12820   9.409   2.156   5.958 -0.1465 -0.6082 -0.1818
35257SOL    HW112821   9.479   2.216   5.935  0.6274 -1.8217 -1.1441
35257SOL    HW212822   9.396   2.168   6.052 -0.4846  1.4982 -0.4667
35258SOL     OW12823   4.685   6.264   7.662  0.8750  0.0051  0.7667
35258SOL    HW112824   4.651   6.212   7.736 -0.4487 -2.2122 -1.2371
35258SOL    HW212825   4.774   6.232   7.649  0.1809 -1.6729 -0.2426
35259SOL     OW12826   1.680   0.048  11.813  0.2797 -0.9299  0.0318
35259SOL    HW112827   1.661   0.103  11.737 -0.7000  0.9719  1.5613
35259SOL    HW212828   1.647   0.098  11.888  2.4674 -2.0569  1.8824
35260SOL     OW12829   7.515   3.460   7.307 -0.0128 -0.6340  0.2638
35260SOL    HW112830   7.441   3.401   7.325 -1.3526  0.7879 -0.3933
35260SOL    HW212831   7.532   3.504   7.390 -1.3439  0.5736 -0.0664
35261SOL     OW12832   7.345   0.562   6.189 -0.0220  0.4188 -0.2206
35261SOL    HW112833   7.399   0.569   6.268 -0.4663 -0.4834  0.1815
35261SOL    HW212834   7.267   0.514   6.217 -0.9571  1.5215 -0.8484
35262SOL     OW12835   3.585   9.839   4.520 -0.9716  0.0771  0.3822
35262SOL    HW112836   3.651   9.782   4.562 -0.0832  1.3490  0.7669
35262SOL    HW212837   3.517   9.850   4.587 -0.6149  0.3427  0.7056
35263SOL     OW12838   3.725   7.201   5.504  0.3585  0.1533 -0.1140
35263SOL    HW112839   3.798   7.194   5.566  0.2650  2.4147  0.3562
35263SOL    HW212840   3.658   7.250   5.552 -1.0052 -0.8112 -0.9579
35264SOL     OW12841   4.521  10.114  11.749 -0.1323  0.1134  0.6196
35264SOL    HW112842   4.519  10.205  11.720  1.5663  0.1529  0.5022
35264SOL    HW212843   4.430  10.085  11.745 -0.8172  1.9998  1.3238
35265SOL     OW12844   0.813   6.461   1.683 -0.0034 -0.0366  0.2975
35265SOL    HW112845   0.792   6.543   1.729  2.3015  2.2850 -2.3948
35265SOL    HW212846   0.769   6.469   1.599  0.5965 -1.4017 -0.1738
35266SOL     OW12847   1.515   3.279  12.555 -0.2003  0.1984  0.0650
35266SOL    HW112848   1.577   3.217  12.516  1.2308  1.1429  0.7870
35266SOL    HW212849   1.560   3.363  12.552 -2.0454  1.2116 -0.7501
35267SOL     OW12850   2.839   3.502  10.519  0.3790  0.4704 -0.1116
35267SOL    HW112851   2.749   3.506  10.487  0.4944 -2.0318 -0.9744
35267SOL    HW212852   2.830   3.477  10.611  0.1918  0.0247 -0.2495
35268SOL     OW12853   3.859   0.421   3.600 -0.9769  0.6268  0.5726
35268SOL    HW112854   3.865   0.330   3.570 -0.1574  0.4394  1.2640
35268SOL    HW212855   3.926   0.468   3.552 -1.2584  0.8281  0.3713
35269SOL     OW12856   2.877   3.751   8.790 -0.1679 -0.2699  0.3393
35269SOL    HW112857   2.870   3.822   8.726 -2.4846 -0.0124  0.7891
35269SOL    HW212858   2.967   3.719   8.781  0.0330  0.7462 -1.9721
35270SOL     OW12859   4.192   9.969   3.561  0.2403 -0.2054 -0.8062
35270SOL    HW112860   4.211   9.899   3.499  0.3308  0.3689 -1.4405
35270SOL    HW212861   4.097   9.980   3.557  0.3965  0.9129 -2.0646
35271SOL     OW12862  12.185   5.278   9.059 -0.3147 -0.2203 -0.2719
35271SOL    HW112863  12.230   5.336   8.999 -0.4706 -1.1731 -1.3451
35271SOL    HW212864  12.249   5.259   9.127 -0.2372  1.1162  0.0598
35272SOL     OW12865   2.540   6.058   7.235 -0.1903 -0.4434  0.0426
35272SOL    HW112866   2.619   6.102   7.265  0.4677 -1.4297 -0.2022
35272SOL    HW212867   2.538   5.976   7.285 -1.8443  0.1904  1.1160
35273SOL     OW12868   0.394   2.291   6.933  0.4420 -0.7047 -1.0665
35273SOL    HW112869   0.452   2.266   7.005 -0.2198  1.2882  0.2608
35273SOL    HW212870   0.399   2.387   6.931 -1.6615 -0.5708 -1.8845
35274SOL     OW12871   2.939   1.101   7.049 -0.3222  0.0360  0.4181
35274SOL    HW112872   2.916   1.036   6.982 -2.9440  3.2763 -2.1965
35274SOL    HW212873   2.855   1.123   7.091  0.4707  1.5948  1.2751
35275SOL     OW12874   4.172   4.478   3.893  0.8778  0.5800  0.1152
35275SOL    HW112875   4.203   4.419   3.824  0.2116  1.0760 -0.6253
35275SOL    HW212876   4.079   4.490   3.874  1.3374  3.2268 -0.7956
35276SOL     OW12877   9.949   8.154  10.000 -0.1501  0.3992 -0.2079
35276SOL    HW112878   9.865   8.186  10.031  0.0941  0.3591  0.5151
35276SOL    HW212879   9.974   8.215   9.930 -0.5130  0.7401 -0.0436
35277SOL     OW12880   7.375   4.612   5.255 -0.0879 -0.1181  0.3816
35277SOL    HW112881   7.375   4.703   5.224  0.9622 -0.0409  0.5783
35277SOL    HW212882   7.462   4.599   5.293 -0.3415 -1.1084  0.6664
35278SOL     OW12883   1.299   1.032   7.508 -0.2604  0.6072 -0.3445
35278SOL    HW112884   1.308   0.953   7.455  0.0985  0.9503 -0.8103
35278SOL    HW212885   1.386   1.072   7.506 -0.6841  1.5546 -0.9936
35279SOL     OW12886   4.047   8.254   0.864 -0.0837 -0.6011 -0.6945
35279SOL    HW112887   3.975   8.299   0.907  1.5092  1.9824 -0.5012
35279SOL    HW212888   4.008   8.214   0.786 -1.9485 -0.5465  0.1572
35280SOL     OW12889   7.431   6.526   2.085  0.0331 -0.1562  0.8568
35280SOL    HW112890   7.427   6.522   1.990 -1.7758 -3.9569  0.9049
35280SOL    HW212891   7.525   6.532   2.105  0.6002 -1.2660 -1.2055
35281SOL     OW12892   4.455   2.782   0.822  0.3065 -0.1661 -0.3389
35281SOL    HW112893   4.535   2.757   0.776 -0.3961 -0.7574 -1.2750
35281SOL    HW212894   4.480   2.783   0.914  1.8840  1.5739 -0.7285
35282SOL     OW12895   8.995   9.193  10.714  0.3052  0.4273  0.0832
35282SOL    HW112896   8.934   9.252  10.671  0.6557  0.1642 -0.7982
35282SOL    HW212897   9.059   9.170  10.647  0.4830 -0.5358  0.5496
35283SOL     OW12898   3.024   8.987  11.256  0.9546 -0.1333  0.0263
35283SOL    HW112899   2.975   9.060  11.219 -1.4273 -1.7656 -0.2688
35283SOL    HW212900   2.986   8.974  11.343  1.1100 -1.1819 -0.0399
35284SOL     OW12901  10.390   5.470  11.515  0.3867 -0.4453  0.4188
35284SOL    HW112902  10.325   5.537  11.495 -0.0868 -0.8238  0.6605
35284SOL    HW212903  10.383   5.407  11.443 -0.8510 -1.4623  1.3738
35285SOL     OW12904   7.866   7.904   6.615 -0.4853 -0.4148 -0.8652
35285SOL    HW112905   7.902   7.935   6.532  0.5038 -1.5838 -0.9024
35285SOL    HW212906   7.795   7.965   6.635 -1.1232 -0.4652 -2.8459
35286SOL     OW12907   0.217   2.654   4.041 -0.2973 -0.8340  0.1764
35286SOL    HW112908   0.217   2.578   4.100  0.4705 -1.4266 -0.5673
35286SOL    HW212909   0.180   2.620   3.960 -1.7378  0.0823  0.4136
35287SOL     OW12910   6.189   0.750   6.644  0.4758  0.5624  0.8345
35287SOL    HW112911   6.188   0.842   6.671  3.8815  0.9187  0.2383
35287SOL    HW212912   6.200   0.753   6.549  0.1937 -0.4840  0.7583
35288SOL     OW12913   2.644   1.548   6.958  0.6037  0.5243  0.1982
35288SOL    HW112914   2.666   1.470   6.907  0.7198  0.2194  0.6977
35288SOL    HW212915   2.613   1.612   6.894 -0.8019 -0.3914 -0.0851
35289SOL     OW12916   1.132   5.066   7.373 -0.2850  0.1605  0.2893
35289SOL    HW112917   1.119   4.986   7.323 -0.4793  1.7949 -2.4759
35289SOL    HW212918   1.099   5.045   7.461 -3.5217 -1.7915 -1.1911
35290SOL     OW12919   3.136   1.666   6.969  0.4121 -0.0486  0.2075
35290SOL    HW112920   3.174   1.734   7.024 -0.5701  0.2437  0.5379
35290SOL    HW212921   3.186   1.587   6.989  1.0633  0.4010  0.3753
35291SOL     OW12922  10.410   4.679   6.392  0.0628 -0.5638  0.1487
35291SOL    HW112923  10.427   4.597   6.346  0.1846 -1.3307  1.5253
35291SOL    HW212924  10.315   4.683   6.400 -0.0339  0.0753 -1.0125
35292SOL     OW12925   8.754   3.466   1.380 -0.2656 -0.1199  0.0006
35292SOL    HW112926   8.720   3.451   1.292 -0.9318  0.0917  0.2189
35292SOL    HW212927   8.842   3.502   1.366 -0.1683 -0.5539 -0.5642
35293SOL     OW12928  11.693   3.520   5.173  0.0526  0.6528  0.0549
35293SOL    HW112929  11.743   3.598   5.149 -0.5682  2.3481  3.5951
35293SOL    HW212930  11.608   3.533   5.131 -0.2014  2.1827  0.9721
35294SOL     OW12931   3.622   9.273  10.867 -0.3068  0.0612  0.4439
35294SOL    HW112932   3.697   9.230  10.826 -0.3818 -0.7611  1.1565
35294SOL    HW212933   3.614   9.232  10.953 -1.7341 -0.0499  0.2770
35295SOL     OW12934   9.454   5.739   4.730  0.6473  0.5107  0.2603
35295SOL    HW112935   9.484   5.716   4.817  2.8110  2.9766  0.2775
35295SOL    HW212936   9.533   5.740   4.676 -0.4757  0.1567 -1.4825
35296SOL     OW12937  10.104   8.036   9.143  0.0146 -0.0253  0.2940
35296SOL    HW112938  10.173   8.098   9.167  1.1090 -1.2420  0.4337
35296SOL    HW212939  10.121   7.959   9.198  0.0818 -1.3165 -1.4520
35297SOL     OW12940   4.402   5.619   6.518 -0.3577  0.6139  0.1030
35297SOL    HW112941   4.428   5.538   6.560 -1.0339 -0.2037 -0.9964
35297SOL    HW212942   4.428   5.688   6.579 -0.5308 -0.4713  1.4322
35298SOL     OW12943   6.752   8.351   2.667 -0.4796  0.2203 -0.0094
35298SOL    HW112944   6.703   8.268   2.664  2.2696 -1.4984 -1.5294
35298SOL    HW212945   6.749   8.384   2.578  0.5179  0.4598  0.0446
35299SOL     OW12946   3.136   2.653   6.299  0.2101  0.0898 -0.1535
35299SOL    HW112947   3.048   2.685   6.280  0.4060  1.0516  0.4830
35299SOL    HW212948   3.139   2.566   6.259 -0.9342  0.1477 -0.4053
35300SOL     OW12949   7.688   8.993   6.651  0.8234  0.1749  0.0217
35300SOL    HW112950   7.698   8.898   6.655  1.5126  0.2659  0.6217
35300SOL    HW212951   7.756   9.021   6.589 -0.4019  0.1421 -1.3810
35301SOL     OW12952   3.971   6.365   3.173  0.0543  0.7501 -0.2880
35301SOL    HW112953   3.935   6.279   3.151 -2.5080  0.8026  2.8853
35301SOL    HW212954   3.946   6.421   3.099 -2.3677 -0.3090 -0.3712
35302SOL     OW12955   0.293   8.161   3.893  0.4706 -0.3428 -0.2379
35302SOL    HW112956   0.209   8.125   3.922  0.2156  1.2253  1.0647
35302SOL    HW212957   0.270   8.231   3.833  0.8129  0.4626  0.5530
35303SOL     OW12958   4.924   6.745   7.103 -0.4826  0.5442 -0.4651
35303SOL    HW112959   4.919   6.655   7.069 -0.8751  0.7475 -0.9620
35303SOL    HW212960   4.918   6.735   7.198 -0.2535  0.0254 -0.4990
35304SOL     OW12961   3.899   8.881   1.931  0.0568 -0.2684 -0.4320
35304SOL    HW112962   3.955   8.942   1.978 -0.7462 -0.4331  0.7605
35304SOL    HW212963   3.935   8.794   1.951  0.0217 -0.3134 -0.5566
35305SOL     OW12964   9.108  12.216   0.911 -0.4681  0.2264  0.0360
35305SOL    HW112965   9.125  12.121   0.906  0.1472  0.3184  0.3568
35305SOL    HW212966   9.123  12.247   0.822 -0.0269  0.1252  0.0726
35306SOL     OW12967   7.517  10.835   3.058  0.8606  0.5873  0.3845
35306SOL    HW112968   7.600  10.849   3.105  1.3231  0.4269 -0.3773
35306SOL    HW212969   7.478  10.922   3.054  2.5781  1.3553 -2.1821
35307SOL     OW12970   4.386   6.289   3.749  0.1609  0.2151 -0.2898
35307SOL    HW112971   4.388   6.231   3.673 -1.0778 -0.6704  0.3211
35307SOL    HW212972   4.449   6.250   3.810 -0.7302 -0.5625  0.1534
35308SOL     OW12973  12.513   9.012  10.810  0.1669  0.0220  0.4600
35308SOL    HW112974  12.566   9.010  10.890  1.6601  0.2062 -0.4799
35308SOL    HW212975  12.541   9.092  10.766 -1.2538  0.3594  0.1387
35309SOL     OW12976   4.010   0.042   1.269 -0.0952 -0.2139  0.1174
35309SOL    HW112977   4.041  -0.038   1.311 -0.5259 -1.2656 -1.4958
35309SOL    HW212978   3.949   0.080   1.333 -0.1235 -1.3248  0.7801
35310SOL     OW12979   0.397   1.287   8.883 -0.1865 -0.4540  0.0703
35310SOL    HW112980   0.470   1.233   8.853 -1.6236 -1.2577 -2.2043
35310SOL    HW212981   0.394   1.360   8.821 -1.6136 -0.7290 -0.2188
35311SOL     OW12982   5.342   2.403  11.839  0.4870 -0.0796  0.5437
35311SOL    HW112983   5.415   2.461  11.862 -0.3831  1.4230 -0.3090
35311SOL    HW212984   5.264   2.453  11.861 -0.3074 -1.0159 -0.0549
35312SOL     OW12985   6.150   7.177  12.588  0.7810  0.1898 -0.7768
35312SOL    HW112986   6.208   7.224  12.528  0.2448  0.6813 -0.9217
35312SOL    HW212987   6.145   7.234  12.665 -1.0683  1.1376 -1.5429
35313SOL     OW12988   2.115   6.838  12.101  0.2162  0.4686  0.1544
35313SOL    HW112989   2.169   6.916  12.116 -0.2270  1.1362 -1.4859
35313SOL    HW212990   2.174   6.776  12.058  0.2320  0.3729  0.3115
35314SOL     OW12991   9.895   6.650   0.401  0.6440 -0.2673  0.0249
35314SOL    HW112992   9.969   6.665   0.460  1.2313 -2.2193 -0.1483
35314SOL    HW212993   9.866   6.561   0.421 -1.5425  0.3638 -0.0703
35315SOL     OW12994   0.588   1.298   3.124 -0.5397 -0.2115  0.6672
35315SOL    HW112995   0.536   1.378   3.114  0.4613  0.2324 -1.5857
35315SOL    HW212996   0.567   1.266   3.212 -2.2903  1.5689  0.9538
35316SOL     OW12997   1.294   0.996   3.515 -0.0031 -0.4669  0.2774
35316SOL    HW112998   1.218   1.054   3.520  0.6484  0.3090  2.0169
35316SOL    HW212999   1.339   1.024   3.435 -1.3790 -0.7761 -0.6437
35317SOL     OW13000   1.876   6.020   4.555 -0.2975 -0.3110 -0.1876
35317SOL    HW113001   1.850   5.928   4.548 -0.9891 -0.0972 -0.4552
35317SOL    HW213002   1.808   6.068   4.508  0.9781  0.2013 -1.6080
35318SOL     OW13003   1.733   0.320   8.558 -0.2109 -0.1782  0.3909
35318SOL    HW113004   1.744   0.414   8.544 -3.4378  0.0115 -1.9552
35318SOL    HW213005   1.817   0.282   8.532  0.4963  1.8842 -0.5730
35319SOL     OW13006  11.566   9.711   0.247 -0.7669 -0.4867 -0.6847
35319SOL    HW113007  11.648   9.710   0.199 -0.8160 -1.5451 -0.7647
35319SOL    HW213008  11.587   9.755   0.330  0.2009 -1.8582 -0.1728
35320SOL     OW13009   9.238   9.994   8.875  0.0516  0.5707  0.2620
35320SOL    HW113010   9.144   9.977   8.875  0.1879 -0.2365 -0.0817
35320SOL    HW213011   9.278   9.907   8.875  0.8048  0.9067  0.7770
35321SOL     OW13012   9.025   6.399  12.310  0.2214  0.1476 -0.1281
35321SOL    HW113013   8.972   6.324  12.282  2.0122 -0.6371 -1.5987
35321SOL    HW213014   8.963   6.457  12.353 -1.0135 -2.8344  2.4996
35322SOL     OW13015  12.545   9.624   2.805 -0.4508 -0.4631  0.1941
35322SOL    HW113016  12.502   9.687   2.862  0.2235 -0.4287  0.6730
35322SOL    HW213017  12.598   9.677   2.745 -0.3126 -0.5447  0.2423
35323SOL     OW13018  11.739   6.756  12.181 -0.2076 -0.4328  0.1693
35323SOL    HW113019  11.731   6.705  12.100 -1.3861 -0.5218  0.3278
35323SOL    HW213020  11.716   6.694  12.250 -0.0533 -0.1228  0.4986
35324SOL     OW13021   4.714   8.637   0.024  0.2478 -0.1672  0.8564
35324SOL    HW113022   4.686   8.710   0.079 -0.5231  0.0848  0.1497
35324SOL    HW213023   4.674   8.560   0.064 -1.2815  0.1586  0.0165
35325SOL     OW13024   0.379   9.417  12.275  0.1659 -0.8189  0.1111
35325SOL    HW113025   0.332   9.342  12.311  0.1696 -1.2450 -0.7328
35325SOL    HW213026   0.461   9.420  12.324 -0.8326  0.1192  1.8141
35326SOL     OW13027  11.129   5.332   3.613  0.0257  0.3191 -0.2701
35326SOL    HW113028  11.158   5.260   3.557 -0.4700  0.0365 -0.1688
35326SOL    HW213029  11.053   5.297   3.660  0.7297  0.3708  0.9683
35327SOL     OW13030   1.800   7.937  11.875 -0.1625  0.2736  0.2788
35327SOL    HW113031   1.735   7.911  11.941 -0.0276 -1.1323 -0.1090
35327SOL    HW213032   1.751   7.991  11.813 -0.8808 -0.3978  0.2349
35328SOL     OW13033   4.218   6.082   2.282  0.0784 -0.0012 -0.5367
35328SOL    HW113034   4.231   6.016   2.214  1.2486 -0.8871  0.4868
35328SOL    HW213035   4.158   6.041   2.344  1.8701 -0.7569  0.8160
35329SOL     OW13036   8.737   8.907   5.943 -0.3595 -0.1370 -0.6564
35329SOL    HW113037   8.693   8.990   5.928 -1.8281 -0.6684  0.4122
35329SOL    HW213038   8.828   8.930   5.961 -1.3261  1.6344  2.9821
35330SOL     OW13039  11.326   3.866   2.223  0.3761 -0.3001 -0.1256
35330SOL    HW113040  11.318   3.796   2.287  0.1694  0.9583  1.2696
35330SOL    HW213041  11.416   3.898   2.233  0.5484 -0.5069 -0.9246
35331SOL     OW13042   5.643   1.108   0.276  0.2457 -0.6091 -0.0466
35331SOL    HW113043   5.717   1.089   0.334  0.2768 -0.1045  0.0884
35331SOL    HW213044   5.681   1.161   0.206  0.4097 -2.0503 -1.0947
35332SOL     OW13045   9.815   7.670   8.076 -0.0494  0.1112  0.0148
35332SOL    HW113046   9.833   7.758   8.044  0.8996  0.2694  0.9109
35332SOL    HW213047   9.841   7.673   8.168  0.8857 -1.3463 -0.1659
35333SOL     OW13048  12.082   1.411   5.341 -0.2855  0.0349 -0.1801
35333SOL    HW113049  12.023   1.356   5.393 -0.9398 -0.0940 -1.0192
35333SOL    HW213050  12.111   1.479   5.401 -0.1348 -0.7423  0.6485
35334SOL     OW13051   0.765   1.001   0.652  0.0707  0.3185  0.2429
35334SOL    HW113052   0.827   0.931   0.671 -0.0190  0.2297  0.2153
35334SOL    HW213053   0.680   0.957   0.648  0.0386  0.3950  0.0149
35335SOL     OW13054   9.968  11.003   5.779  0.0236 -0.5052  0.2044
35335SOL    HW113055   9.987  10.929   5.722 -1.4289 -0.6206 -0.1619
35335SOL    HW213056   9.948  10.964   5.864 -2.7228 -0.7627 -0.4678
35336SOL     OW13057   3.547  10.537   4.256 -0.1627  0.1074 -1.0136
35336SOL    HW113058   3.467  10.548   4.205 -0.5995  1.7496 -0.0500
35336SOL    HW213059   3.551  10.615   4.311 -0.4140 -2.0713  2.4145
35337SOL     OW13060  10.952   2.485   5.045  0.2567  0.0775 -0.1646
35337SOL    HW113061  10.919   2.574   5.032  1.5007  1.0880  2.6698
35337SOL    HW213062  10.888   2.428   5.003 -1.6015  2.2189 -0.3837
35338SOL     OW13063   8.282  11.585  12.139  0.0918 -0.0015  0.1100
35338SOL    HW113064   8.308  11.661  12.087 -1.5992  1.4854  1.2863
35338SOL    HW213065   8.360  11.530  12.142  0.5840  0.3423 -3.0357
35339SOL     OW13066   0.908   1.163   4.380  0.1059  0.3227 -0.3344
35339SOL    HW113067   0.843   1.111   4.426  2.0406 -2.1433 -0.1853
35339SOL    HW213068   0.954   1.211   4.450 -0.8655  1.2882 -0.3442
35340SOL     OW13069  12.146   6.238   9.205 -0.1030  0.5320 -0.6664
35340SOL    HW113070  12.139   6.156   9.253  0.9571  1.3227  0.9397
35340SOL    HW213071  12.229   6.231   9.157  1.0765  1.4090  1.1179
35341SOL     OW13072   6.892   0.199   5.939 -0.6187 -0.5486 -0.1359
35341SOL    HW113073   6.937   0.222   6.021 -0.4906 -1.4804  0.0674
35341SOL    HW213074   6.801   0.223   5.954 -0.5137 -0.2921  0.1088
35342SOL     OW13075  12.379   8.086   2.405  0.2563  0.2957 -0.3942
35342SOL    HW113076  12.381   8.182   2.412 -0.4847  0.3788 -1.1735
35342SOL    HW213077  12.362   8.056   2.494 -2.4642  1.0218 -0.5840
35343SOL     OW13078   9.969   3.127   9.509 -0.0438  0.0230  0.0037
35343SOL    HW113079  10.011   3.053   9.553  0.8004 -0.7262 -1.9574
35343SOL    HW213080   9.878   3.099   9.495  0.5327 -1.1604 -1.6986
35344SOL     OW13081   9.822   0.052  10.501 -0.0435  0.4583 -0.2776
35344SOL    HW113082   9.892   0.107  10.535  0.0898 -0.5106  1.1245
35344SOL    HW213083   9.762   0.112  10.457  0.5946  1.5840  0.3616
35345SOL     OW13084   4.599  11.377   8.325  0.5239  0.0067 -0.3598
35345SOL    HW113085   4.659  11.350   8.394  0.9011  0.1486 -0.6247
35345SOL    HW213086   4.555  11.297   8.298  0.3939 -0.0537  0.0221
35346SOL     OW13087   0.437   5.154  11.609 -0.2885  0.3037  0.2099
35346SOL    HW113088   0.423   5.143  11.703  1.1421  1.5271  0.6074
35346SOL    HW213089   0.530   5.175  11.601 -0.4085  0.3213 -1.4751
35347SOL     OW13090   0.488   8.423   3.903  0.2421  0.7618  0.3941
35347SOL    HW113091   0.575   8.415   3.865  0.2862  0.1863  0.6122
35347SOL    HW213092   0.428   8.391   3.835  0.3335 -0.4174  0.8628
35348SOL     OW13093  11.236   5.009   2.605 -0.4317 -0.6739 -0.1554
35348SOL    HW113094  11.328   4.997   2.629 -0.6458  1.6476  2.1451
35348SOL    HW213095  11.187   4.993   2.685 -1.5500  3.1838  0.1210
35349SOL     OW13096  10.071   9.079  11.166 -0.0861  0.2084  0.3677
35349SOL    HW113097  10.083   8.985  11.174  0.2309  0.2244  0.0828
35349SOL    HW213098   9.976   9.092  11.169 -0.1145 -0.0766  0.8514
35350SOL     OW13099   2.406   9.787   6.678 -0.0068  0.0581 -0.5141
35350SOL    HW113100   2.341   9.855   6.696 -0.2866 -0.1212 -0.8428
35350SOL    HW213101   2.355   9.713   6.646  0.4773  0.3868 -2.1099
35351SOL     OW13102   7.558   3.357   5.824  0.2738 -0.5898  0.6846
35351SOL    HW113103   7.550   3.452   5.838  0.4521 -0.3461 -0.7058
35351SOL    HW213104   7.501   3.340   5.749  0.1203 -1.6268  1.0285
35352SOL     OW13105   6.342  11.906   1.430  0.4302  0.1551  0.1218
35352SOL    HW113106   6.305  11.847   1.496  0.9429  0.3503  0.6024
35352SOL    HW213107   6.267  11.955   1.396 -0.0121 -0.8464 -0.3654
35353SOL     OW13108  11.496  12.460   4.638  0.3843  0.0490  0.1032
35353SOL    HW113109  11.485  12.386   4.697 -0.0298  0.4297  0.5059
35353SOL    HW213110  11.407  12.482   4.610  0.4778  0.5741  0.2117
35354SOL     OW13111  12.191   5.770   7.719 -0.1510 -0.1627 -0.1319
35354SOL    HW113112  12.182   5.749   7.626 -0.1172  0.3289 -0.2474
35354SOL    HW213113  12.109   5.739   7.758 -0.1819 -0.3335 -0.3285
35355SOL     OW13114   5.899   8.130   5.178 -0.6282  0.1450  0.2601
35355SOL    HW113115   5.939   8.043   5.178 -0.3600  0.2660  0.5728
35355SOL    HW213116   5.970   8.189   5.204 -1.5037  0.1145  3.0057
35356SOL     OW13117   7.617  10.522  10.956  0.4140 -0.0263 -0.4798
35356SOL    HW113118   7.539  10.577  10.948  1.4882  1.9722  1.6816
35356SOL    HW213119   7.686  10.572  10.912  0.7087 -1.4193 -1.6877
35357SOL     OW13120   7.812   5.595   5.035 -0.2513 -0.1616  0.4222
35357SOL    HW113121   7.740   5.571   4.977 -0.4026  1.9377 -0.3454
35357SOL    HW213122   7.889   5.594   4.979  0.2321 -1.6185  1.0588
35358SOL     OW13123  11.561   6.856   2.249 -0.4337  0.2929  0.3572
35358SOL    HW113124  11.573   6.940   2.203 -1.4534 -0.1067 -0.6770
35358SOL    HW213125  11.645   6.811   2.238 -1.3035 -0.8322 -3.3947
35359SOL     OW13126   8.963   6.224   6.610  0.1925  0.1061  0.1088
35359SOL    HW113127   8.959   6.301   6.668 -0.9065  0.3534 -0.2637
35359SOL    HW213128   8.901   6.163   6.648  1.0611 -0.6175  0.3979
35360SOL     OW13129   5.579  11.533   0.883 -0.0158  0.1603  0.2044
35360SOL    HW113130   5.524  11.477   0.829 -0.7957  0.7877  0.3324
35360SOL    HW213131   5.561  11.622   0.851 -1.5471  0.7140  2.3568
35361SOL     OW13132   5.018   1.325   2.954 -0.4166  0.0692  0.4951
35361SOL    HW113133   5.033   1.232   2.939  1.3383  0.3212  0.4666
35361SOL    HW213134   5.032   1.367   2.869  2.7173  0.7389  1.2353
35362SOL     OW13135   5.408   3.648   3.696 -0.3144  0.8203  0.1022
35362SOL    HW113136   5.323   3.691   3.702 -0.7641  0.0573 -0.6580
35362SOL    HW213137   5.463   3.695   3.760 -0.8669  2.2985 -0.4704
35363SOL     OW13138   0.317   0.312   2.829 -0.1509  0.2195 -0.1846
35363SOL    HW113139   0.256   0.316   2.755  0.7048  0.3536 -0.9041
35363SOL    HW213140   0.403   0.330   2.790  0.1626  1.6033  1.0565
35364SOL     OW13141   6.082   5.812   0.614  0.1680 -0.0071 -0.3154
35364SOL    HW113142   5.997   5.767   0.611 -0.1799  0.6748 -1.3872
35364SOL    HW213143   6.065   5.889   0.669 -0.3583  0.9549 -1.7655
35365SOL     OW13144   1.328   8.319   4.071 -0.4565 -0.1656 -0.1376
35365SOL    HW113145   1.360   8.365   4.148 -1.4328  1.4449 -0.6579
35365SOL    HW213146   1.234   8.337   4.068 -0.5634 -0.7899 -1.3118
35366SOL     OW13147  12.040   0.965   9.590 -0.2500  0.5488  0.3136
35366SOL    HW113148  12.095   0.976   9.512  1.0825 -1.2678  0.9257
35366SOL    HW213149  12.018   0.872   9.591  0.2218  0.4095  2.3826
35367SOL     OW13150   0.698   1.419   9.647  0.1265 -0.5052 -0.3156
35367SOL    HW113151   0.606   1.443   9.658 -0.8129 -3.4132 -0.7358
35367SOL    HW213152   0.724   1.458   9.563 -0.0218  2.0350  0.7447
35368SOL     OW13153  10.935   0.677   8.139  0.1348  0.3233 -0.1719
35368SOL    HW113154  11.027   0.660   8.162  0.0344 -0.0039 -0.0081
35368SOL    HW213155  10.930   0.655   8.046 -0.5088 -2.8050  0.5061
35369SOL     OW13156   2.087   8.652   1.742  0.1421 -0.1225 -0.1049
35369SOL    HW113157   2.055   8.563   1.724 -0.2510 -0.1927  0.8595
35369SOL    HW213158   2.010   8.698   1.774  0.2464  0.7012 -1.0113
35370SOL     OW13159   9.967   8.652   6.721  0.3674  0.0418 -0.1983
35370SOL    HW113160   9.921   8.736   6.708 -0.9209 -0.7921 -1.3069
35370SOL    HW213161   9.905   8.599   6.772 -0.6866 -1.6480 -3.0421
35371SOL     OW13162  11.787   2.831  10.057  0.2948 -0.0168  0.2787
35371SOL    HW113163  11.721   2.844   9.989  0.8616  4.5565  0.3000
35371SOL    HW213164  11.825   2.746  10.037 -1.2729 -0.0140 -3.5823
35372SOL     OW13165   9.014   4.648   0.715  0.2279 -0.1466  0.2228
35372SOL    HW113166   8.947   4.640   0.646  1.4493 -0.4402 -0.9762
35372SOL    HW213167   9.091   4.681   0.669  1.5899 -1.9486  1.0818
35373SOL     OW13168   4.168   5.031   9.489 -0.3471  0.0344 -0.3291
35373SOL    HW113169   4.255   5.069   9.499  0.0659 -0.6138 -1.2952
35373SOL    HW213170   4.128   5.081   9.417 -1.2447  1.1116  0.8671
35374SOL     OW13171   7.851   0.835   9.187 -0.8869  0.3829  0.4035
35374SOL    HW113172   7.925   0.810   9.244 -0.1992 -3.2959 -1.7521
35374SOL    HW213173   7.879   0.916   9.145  2.1687 -0.9979 -0.5270
35375SOL     OW13174   3.253   9.812   9.524  0.1786  0.4445  0.1305
35375SOL    HW113175   3.240   9.859   9.606  1.2200 -0.0585  0.6003
35375SOL    HW213176   3.177   9.836   9.470 -0.0442  1.4977  0.8879
35376SOL     OW13177   6.407   6.351   3.962 -0.3833  0.1250  0.1384
35376SOL    HW113178   6.315   6.341   3.986 -0.5401  0.8432 -0.1323
35376SOL    HW213179   6.431   6.438   3.993 -0.4349  0.8526 -1.7178
35377SOL     OW13180  11.799   2.810   2.390  0.4142  0.1459 -0.5060
35377SOL    HW113181  11.875   2.755   2.410  0.9032  0.0778 -2.3190
35377SOL    HW213182  11.749   2.758   2.326 -0.6000  0.6410 -0.1308
35378SOL     OW13183   2.746   4.084   2.102 -0.5203  0.0325 -0.0280
35378SOL    HW113184   2.839   4.070   2.086 -0.7931 -0.9578 -0.8511
35378SOL    HW213185   2.704   4.066   2.018 -1.4825  0.1350  0.4147
35379SOL     OW13186   7.532   0.471  11.970  0.3804  0.0561 -0.1709
35379SOL    HW113187   7.470   0.537  11.937  1.3925  0.4261 -1.4066
35379SOL    HW213188   7.492   0.439  12.051 -0.4615  1.7182  0.1128
35380SOL     OW13189   6.510   9.363   0.506  0.0184  0.2681  0.6053
35380SOL    HW113190   6.565   9.422   0.557  0.6200 -0.7527  1.1755
35380SOL    HW213191   6.430   9.355   0.557 -1.0772  2.4197 -0.6356
35381SOL     OW13192  10.981   5.456   7.948  0.4097 -0.3452  0.1868
35381SOL    HW113193  11.046   5.387   7.932 -0.2878 -1.0829  0.5259
35381SOL    HW213194  10.897   5.412   7.945  0.0180  0.1891  1.9818
35382SOL     OW13195  12.163   7.304   0.576  0.7029 -0.0553 -0.0973
35382SOL    HW113196  12.153   7.396   0.599 -0.7629 -0.2006 -0.0239
35382SOL    HW213197  12.085   7.284   0.523 -1.0199 -2.1549  2.9466
35383SOL     OW13198   9.223   3.357  11.322  0.3627  0.4576  0.0534
35383SOL    HW113199   9.156   3.425  11.329  1.8895  1.9730  0.3632
35383SOL    HW213200   9.285   3.375  11.393  1.7294 -0.1881 -0.9216
35384SOL     OW13201   9.328   1.939  10.495 -0.4386 -0.0528 -0.4073
35384SOL    HW113202   9.400   1.962  10.437  0.1805 -1.0064 -0.0400
35384SOL    HW213203   9.262   1.900  10.438 -0.6011  0.6636 -0.7187
35385SOL     OW13204  10.820   6.382   5.535  0.2044  0.0620 -0.0056
35385SOL    HW113205  10.794   6.321   5.466 -0.7877 -0.2681  0.6388
35385SOL    HW213206  10.905   6.350   5.564 -0.4953 -1.3030  0.6290
35386SOL     OW13207  10.054   6.123   4.357  0.2300 -0.8380 -0.0319
35386SOL    HW113208   9.985   6.105   4.420 -0.4788 -0.0573 -0.5775
35386SOL    HW213209  10.135   6.097   4.402 -0.3195 -0.8560  0.9646
35387SOL     OW13210   2.968   7.782   0.370 -0.5326 -0.4603  0.1636
35387SOL    HW113211   2.908   7.801   0.442  0.1734 -0.9956  0.9099
35387SOL    HW213212   2.997   7.868   0.340 -0.6640 -0.2333  0.6735
35388SOL     OW13213  11.900   1.344   9.556 -0.0471 -0.8211 -0.3692
35388SOL    HW113214  11.830   1.390   9.603 -0.0035 -1.9148  0.8242
35388SOL    HW213215  11.889   1.252   9.580  0.9950 -1.1917 -1.2180
35389SOL     OW13216   9.911  10.590  10.441  0.3172 -0.1386 -0.2712
35389SOL    HW113217   9.948  10.504  10.459  3.5267  1.2252  0.4453
35389SOL    HW213218   9.972  10.629  10.377 -0.8628  1.7080 -0.3475
35390SOL     OW13219   5.357   4.910   3.245 -0.1033  0.6379 -0.6642
35390SOL    HW113220   5.269   4.887   3.216 -0.1679  0.9204 -0.7018
35390SOL    HW213221   5.415   4.873   3.178 -0.1093 -0.5483 -0.0419
35391SOL     OW13222  10.231   2.606   5.668 -0.2320 -0.2238 -0.1606
35391SOL    HW113223  10.241   2.678   5.730  0.5140 -1.5123  1.3078
35391SOL    HW213224  10.241   2.646   5.582 -2.2267  1.7955  0.4560
35392SOL     OW13225   3.809   1.883   0.684  0.3339  0.4041  0.1464
35392SOL    HW113226   3.728   1.934   0.692 -0.9883 -1.3752 -1.0934
35392SOL    HW213227   3.824   1.848   0.772  0.6506  1.9904  0.7461
35393SOL     OW13228   4.456   5.204  10.792 -0.4217 -0.5879 -0.1986
35393SOL    HW113229   4.495   5.240  10.713 -1.4461 -0.0138 -0.4558
35393SOL    HW213230   4.423   5.280  10.840  0.0571 -0.9386  0.7172
35394SOL     OW13231   0.577   9.080   2.310 -0.1367 -0.4821  0.4263
35394SOL    HW113232   0.558   9.169   2.280  0.3605 -0.5370 -0.0789
35394SOL    HW213233   0.633   9.043   2.241  0.5616 -0.8109  1.1434
35395SOL     OW13234  11.166   4.201   8.021  0.5565  0.4463 -0.4980
35395SOL    HW113235  11.234   4.255   8.061 -0.1281 -0.1132  1.5177
35395SOL    HW213236  11.084   4.232   8.059 -0.0556 -0.6449 -0.8544
35396SOL     OW13237  11.008   2.061   6.740  0.0683  0.6837  0.1383
35396SOL    HW113238  10.981   2.104   6.821 -0.0557  1.1100 -0.1275
35396SOL    HW213239  10.988   1.968   6.754 -1.4252  0.9593  0.0120
35397SOL     OW13240   4.009   3.560   1.180 -0.0587 -0.3944  0.3255
35397SOL    HW113241   3.928   3.568   1.130 -0.3586  0.2347  0.9006
35397SOL    HW213242   4.006   3.471   1.215 -0.9205 -0.1036  1.0310
35398SOL     OW13243   8.161   6.494  11.430  0.3580 -0.0372 -0.0448
35398SOL    HW113244   8.201   6.549  11.497  2.2695 -1.3330 -0.0246
35398SOL    HW213245   8.203   6.408  11.441  1.6400 -0.0544 -3.5603
35399SOL     OW13246  11.619  12.399   8.011  0.3098 -0.1323 -0.0188
35399SOL    HW113247  11.678  12.399   7.935  2.1064 -0.3636  1.3262
35399SOL    HW213248  11.600  12.492   8.027 -0.7525 -0.1048 -1.1814
35400SOL     OW13249   3.603   7.445   0.154 -0.1082 -0.0723  0.0910
35400SOL    HW113250   3.596   7.358   0.195  0.2752 -0.5637 -0.8390
35400SOL    HW213251   3.540   7.499   0.201 -1.0923 -1.1214  0.0416
35401SOL     OW13252   5.941   0.262   2.646  0.1179  0.6479 -0.3215
35401SOL    HW113253   5.940   0.232   2.737 -0.3841  2.7724  0.4257
35401SOL    HW213254   5.954   0.182   2.595  0.2993 -0.6170  1.5941
35402SOL     OW13255   5.408   3.935   1.169  0.8100  0.3536 -0.2560
35402SOL    HW113256   5.391   3.895   1.083  1.2141 -0.2271 -0.0726
35402SOL    HW213257   5.494   3.901   1.194  1.1150  1.2784 -0.0469
35403SOL     OW13258   2.044   9.457   9.014 -0.2490 -0.9515 -0.7958
35403SOL    HW113259   2.121   9.403   8.997 -0.6124 -2.7411  2.4117
35403SOL    HW213260   1.981   9.431   8.947  1.5069 -0.1500 -2.8742
35404SOL     OW13261   3.644  10.471   5.825  0.4315 -0.0471 -0.2182
35404SOL    HW113262   3.626  10.533   5.754  1.6685  0.5294 -0.0525
35404SOL    HW213263   3.625  10.385   5.788 -1.3508  0.4085 -0.4379
35405SOL     OW13264   8.203   3.606   7.590  0.2975 -0.0881  0.1658
35405SOL    HW113265   8.223   3.608   7.684  0.2552  1.7243  0.1777
35405SOL    HW213266   8.260   3.538   7.554 -0.0408 -1.1492  1.5719
35406SOL     OW13267  11.840   2.204   8.481  0.0122  0.2228  0.6187
35406SOL    HW113268  11.778   2.136   8.506 -0.3392  0.4039  0.2562
35406SOL    HW213269  11.808   2.236   8.397  1.9817 -1.4045 -0.8715
35407SOL     OW13270   3.885   5.038   3.092 -0.4045 -0.2373  0.3013
35407SOL    HW113271   3.826   4.964   3.084  0.6953 -1.4471  2.5307
35407SOL    HW213272   3.933   5.039   3.009 -3.1132  0.5257 -1.3940
35408SOL     OW13273   7.867   6.827   0.717  0.0668 -0.0674  0.3043
35408SOL    HW113274   7.932   6.767   0.755 -1.2159 -1.4093  0.4489
35408SOL    HW213275   7.809   6.848   0.790 -0.0579  0.6007  0.0197
35409SOL     OW13276   5.208  11.054   0.642  0.0939  0.4086 -0.4813
35409SOL    HW113277   5.158  11.126   0.681 -0.9907 -0.0573 -0.9708
35409SOL    HW213278   5.264  11.022   0.713  0.0136  1.2247 -0.0407
35410SOL     OW13279   4.563  10.788   6.556  0.0194  0.2080  0.1763
35410SOL    HW113280   4.580  10.757   6.467  3.6095 -1.9295  1.3750
35410SOL    HW213281   4.610  10.871   6.562 -2.0496  1.4912 -0.4419
35411SOL     OW13282   9.241   4.150   5.736  0.2745 -0.2495 -0.1815
35411SOL    HW113283   9.225   4.056   5.744  1.9157 -0.4681  1.0555
35411SOL    HW213284   9.204   4.173   5.651  0.9122 -2.2654 -1.0748
35412SOL     OW13285   1.665   5.626   3.421 -0.6730  0.1872  0.2123
35412SOL    HW113286   1.695   5.709   3.385  0.9471 -0.0834  0.8511
35412SOL    HW213287   1.710   5.619   3.505  0.4218 -1.9953 -0.4658
35413SOL     OW13288   1.774   5.095   4.464  0.1473  0.2671  0.1464
35413SOL    HW113289   1.835   5.038   4.511  1.1409 -0.8253 -2.3223
35413SOL    HW213290   1.701   5.038   4.440 -0.0221  0.6332 -0.2235
35414SOL     OW13291  11.777   6.969  12.381 -0.1734 -0.1496 -0.1370
35414SOL    HW113292  11.773   6.949  12.475  0.7713  0.5780  0.0652
35414SOL    HW213293  11.765   6.884  12.339 -1.9730 -0.3208  0.5966
35415SOL     OW13294  10.573   7.583   1.341  0.0947  0.0543 -0.2366
35415SOL    HW113295  10.572   7.598   1.435  1.4078  0.2214 -0.2247
35415SOL    HW213296  10.613   7.662   1.305 -0.8944  0.2324 -0.9992
35416SOL     OW13297   5.263  10.176   4.233 -0.2131 -0.2032 -0.3253
35416SOL    HW113298   5.170  10.153   4.223 -0.6707  1.5575 -0.4824
35416SOL    HW213299   5.304  10.096   4.267 -1.7716 -1.0296 -0.2811
35417SOL     OW13300  11.800   5.516   0.451  0.0584  0.2327  0.0293
35417SOL    HW113301  11.855   5.440   0.432 -0.1238 -0.1730  1.1004
35417SOL    HW213302  11.844   5.588   0.406  0.5122 -0.4082 -0.5739
35418SOL     OW13303   3.149  12.017   1.992 -0.2793 -0.1663  0.1031
35418SOL    HW113304   3.179  12.055   1.909  0.4187  0.5506  0.6759
35418SOL    HW213305   3.140  11.923   1.973  0.2784 -0.0712 -0.6687
35419SOL     OW13306   1.891   6.999   8.291 -0.8145  0.5143  0.5418
35419SOL    HW113307   1.895   6.918   8.240  0.8145  0.7266  0.2869
35419SOL    HW213308   1.800   7.003   8.322 -1.0457 -1.1639  0.1832
35420SOL     OW13309  10.697   0.317   7.636 -0.4864  0.3367  0.3924
35420SOL    HW113310  10.783   0.346   7.604 -0.4787  0.4981  0.5564
35420SOL    HW213311  10.717   0.271   7.718 -0.5710  0.4912  0.4991
35421SOL     OW13312   9.625   2.101   4.757 -0.3812  0.0924  0.2832
35421SOL    HW113313   9.702   2.157   4.752 -0.1154 -0.2177  0.8411
35421SOL    HW213314   9.585   2.122   4.841 -0.7286  0.0273  0.1358
35422SOL     OW13315   0.387  10.183   1.401 -0.1587 -0.5223  0.4947
35422SOL    HW113316   0.441  10.150   1.329 -1.8777 -1.1150 -0.6130
35422SOL    HW213317   0.396  10.117   1.470 -0.2192 -1.1387 -0.0665
35423SOL     OW13318   7.372   9.115   6.909  0.4853 -0.0120 -0.0259
35423SOL    HW113319   7.346   9.053   6.977 -1.3439 -0.4207 -1.0529
35423SOL    HW213320   7.293   9.165   6.890  1.1105  0.4862 -1.4512
35424SOL     OW13321   9.988   6.793   0.174 -0.1833 -0.3601  0.2351
35424SOL    HW113322  10.079   6.791   0.203 -0.3626  1.8827  1.0986
35424SOL    HW213323   9.943   6.734   0.235  0.5718 -1.1095  0.0985
35425SOL     OW13324  11.849  12.426   2.581 -0.3678  0.1686  0.6599
35425SOL    HW113325  11.904  12.349   2.565  1.1859  1.3546 -0.0080
35425SOL    HW213326  11.766  12.405   2.538  0.2929 -0.8379 -0.1824
35426SOL     OW13327   3.721   5.103   1.035  0.0347  0.0562 -0.2740
35426SOL    HW113328   3.770   5.139   0.960  0.4309  0.0481 -0.0215
35426SOL    HW213329   3.705   5.178   1.091 -0.2079  0.0508 -0.3331
35427SOL     OW13330   9.171   0.525  10.465 -0.4087 -0.5700  0.0231
35427SOL    HW113331   9.085   0.513  10.505 -0.0676  1.3141  1.4682
35427SOL    HW213332   9.197   0.614  10.490  1.9681 -1.0992 -0.3428
35428SOL     OW13333  11.885  11.121   2.617  0.3670 -0.3847  0.4683
35428SOL    HW113334  11.816  11.136   2.682 -0.1477 -1.4689  0.1833
35428SOL    HW213335  11.847  11.150   2.534  1.2765  1.6845  0.7094
35429SOL     OW13336   6.502  11.682   0.078 -0.5086  0.4201  0.8535
35429SOL    HW113337   6.527  11.727  -0.002 -0.3932  0.2726  0.8073
35429SOL    HW213338   6.433  11.621   0.052 -1.2234  1.1235  1.0538
35430SOL     OW13339   1.458   5.659  10.575 -0.6783 -0.0790  0.1735
35430SOL    HW113340   1.524   5.590  10.567 -0.8512 -0.1705 -0.5663
35430SOL    HW213341   1.504   5.739  10.549 -0.9368 -0.1971 -0.6943
35431SOL     OW13342   2.500   7.991   4.123  0.2865  0.3425 -0.6486
35431SOL    HW113343   2.556   7.932   4.074  1.7661 -0.8083  2.1665
35431SOL    HW213344   2.557   8.028   4.191 -1.6008  1.6803  0.3047
35432SOL     OW13345  12.429  12.408   1.523 -0.4987 -0.9405  0.0650
35432SOL    HW113346  12.467  12.325   1.551 -2.6923 -1.4772  1.7850
35432SOL    HW213347  12.419  12.400   1.429  1.7692 -1.4874 -0.1904
35433SOL     OW13348   1.021   4.027  11.847 -0.0737 -0.9801  0.5141
35433SOL    HW113349   1.094   3.982  11.803  3.0171  2.2763  1.8216
35433SOL    HW213350   1.001   4.102  11.791 -1.3799 -0.9547  0.9709
35434SOL     OW13351   0.908  10.877  11.814 -0.5468  0.3011 -0.7176
35434SOL    HW113352   0.831  10.919  11.777  0.0459  0.5251 -1.7108
35434SOL    HW213353   0.969  10.870  11.741  1.9087  3.5736  0.7988
35435SOL     OW13354  11.291   0.858   5.681  0.3086 -0.0572 -0.3256
35435SOL    HW113355  11.300   0.787   5.618  0.5068  0.5001 -0.9307
35435SOL    HW213356  11.198   0.857   5.705  0.1751 -0.1006 -0.8299
35436SOL     OW13357   4.926  10.559   9.229 -0.0947  0.1884  0.2760
35436SOL    HW113358   5.000  10.501   9.212  0.6435  1.0321  0.5060
35436SOL    HW213359   4.870  10.550   9.152  0.5182 -0.0561 -0.1514
35437SOL     OW13360   6.833   2.180   2.024  0.3067 -0.1313 -0.0317
35437SOL    HW113361   6.904   2.223   1.977 -0.1631  2.1704  1.1978
35437SOL    HW213362   6.873   2.150   2.106 -0.1090  1.2565  0.7069
35438SOL     OW13363   6.910   4.552   0.138 -0.1377 -0.4114 -0.6868
35438SOL    HW113364   6.887   4.474   0.189 -0.7607  0.8135  1.0184
35438SOL    HW213365   6.832   4.607   0.142  0.3811  0.4260 -1.6191
35439SOL     OW13366  10.330   2.852   9.154  0.0296  0.0255 -0.1829
35439SOL    HW113367  10.274   2.787   9.113 -0.2299  0.1030  0.0425
35439SOL    HW213368  10.269   2.919   9.187  0.2578  0.1496 -0.0067
35440SOL     OW13369   9.891   0.058  12.117 -0.4768  0.1305  0.2780
35440SOL    HW113370   9.926  -0.031  12.108 -1.2307 -0.0349 -1.5723
35440SOL    HW213371   9.954   0.114  12.072 -1.6687  0.0337 -1.6472
35441SOL     OW13372   0.782   7.063   6.391 -0.1505 -0.5038 -0.0259
35441SOL    HW113373   0.726   7.095   6.463  0.1679 -0.2854  0.1292
35441SOL    HW213374   0.816   7.143   6.350 -0.4373 -0.6267 -0.5076
35442SOL     OW13375   4.665   6.084   3.367 -0.2549  0.1919  0.3610
35442SOL    HW113376   4.674   6.172   3.404 -1.5329  0.3009  0.4637
35442SOL    HW213377   4.734   6.032   3.409  1.3631  1.4199 -0.6438
35443SOL     OW13378   6.141  11.565  10.368  0.2322  0.2665  0.4571
35443SOL    HW113379   6.222  11.585  10.415  0.6189  0.6986 -0.3716
35443SOL    HW213380   6.167  11.562  10.276 -0.7894  0.9396  0.1328
35444SOL     OW13381   2.288   9.671  10.630 -0.5283  0.0266 -0.4661
35444SOL    HW113382   2.343   9.747  10.610 -0.0996  0.0302  0.6453
35444SOL    HW213383   2.304   9.610  10.559  1.8477 -0.4769  0.4127
35445SOL     OW13384  10.719   2.650   1.031 -0.0902 -0.4219  0.7407
35445SOL    HW113385  10.770   2.731   1.024 -1.7509  0.7955  1.9666
35445SOL    HW213386  10.783   2.581   1.015  1.1858  1.1193 -1.4837
35446SOL     OW13387   0.709   7.865   7.260  0.7107  0.3824 -0.1243
35446SOL    HW113388   0.804   7.874   7.256  0.6733  0.5188 -0.8947
35446SOL    HW213389   0.686   7.813   7.183  0.1527  0.4054  0.0167
35447SOL     OW13390   4.187   3.524   0.684 -0.1191 -0.1698  0.0347
35447SOL    HW113391   4.178   3.614   0.651  1.8263 -0.1243 -0.4764
35447SOL    HW213392   4.169   3.531   0.778  1.1664  1.0029  0.2269
35448SOL     OW13393   7.423   3.025  11.131  0.0289 -0.1513 -1.0095
35448SOL    HW113394   7.351   3.006  11.192  0.6053 -0.3062 -0.3762
35448SOL    HW213395   7.412   2.960  11.061  0.6595 -1.4240  0.0304
35449SOL     OW13396   8.824   9.989   2.943 -0.5750 -0.5698 -0.4664
35449SOL    HW113397   8.875   9.915   2.913  0.9741  0.7872 -1.3240
35449SOL    HW213398   8.760   9.951   3.004 -1.3099 -2.8918 -2.4945
35450SOL     OW13399   2.487   5.719   0.442  0.0220  0.5584  0.1585
35450SOL    HW113400   2.501   5.734   0.349  2.8690 -0.1289  0.3668
35450SOL    HW213401   2.568   5.676   0.472 -1.6219 -1.2309  2.5156
35451SOL     OW13402   9.125   7.383   4.349  0.0304 -0.2047  0.2448
35451SOL    HW113403   9.156   7.299   4.381 -1.4032 -0.9805 -0.2784
35451SOL    HW213404   9.040   7.364   4.310 -0.3718  1.5058  0.1737
35452SOL     OW13405   2.345   4.298   6.217  0.0278  0.4787  0.0492
35452SOL    HW113406   2.271   4.247   6.250 -0.2476 -0.6405 -2.1251
35452SOL    HW213407   2.310   4.386   6.205 -0.5488  0.2916  0.3407
35453SOL     OW13408   2.119   9.979  11.540 -0.1492  0.4867  0.2811
35453SOL    HW113409   2.103  10.058  11.489  1.5302  0.6412 -0.0511
35453SOL    HW213410   2.145   9.914  11.475 -2.4696 -0.6822  0.4178
35454SOL     OW13411   8.654   8.139   1.035  0.2740  0.0162  0.1195
35454SOL    HW113412   8.702   8.152   1.117 -0.0693  2.2069  0.0273
35454SOL    HW213413   8.718   8.098   0.977  1.1409  0.2660  0.8661
35455SOL     OW13414   2.343   5.639  11.733  0.0615  0.6684  0.0846
35455SOL    HW113415   2.373   5.691  11.658  0.6652 -0.4458 -0.4719
35455SOL    HW213416   2.248   5.633  11.721  0.1789  0.2776 -0.7559
35456SOL     OW13417   3.573  12.220   5.558 -0.0803  0.2307 -0.1918
35456SOL    HW113418   3.646  12.270   5.593 -0.3770  0.9116 -0.5330
35456SOL    HW213419   3.590  12.130   5.586  1.2547  0.2529 -0.8348
35457SOL     OW13420   3.788   1.376   5.557 -0.7069  0.2097 -0.0849
35457SOL    HW113421   3.829   1.406   5.476 -1.0981 -0.7875 -0.6582
35457SOL    HW213422   3.781   1.281   5.548 -2.0064  0.2188  0.5236
35458SOL     OW13423   7.488   2.740   1.704 -0.0290 -0.2598  0.1256
35458SOL    HW113424   7.411   2.686   1.718 -0.7768  1.0709  1.4600
35458SOL    HW213425   7.533   2.700   1.630 -1.4195 -1.6930  0.0122
35459SOL     OW13426   9.492   1.795   0.441  0.1280 -0.1243  0.1877
35459SOL    HW113427   9.525   1.881   0.467  1.0438 -1.1354  2.6412
35459SOL    HW213428   9.529   1.780   0.354  0.7011  1.5614  0.1117
35460SOL     OW13429   7.805   7.291   8.260 -0.0747 -0.4197 -0.2746
35460SOL    HW113430   7.738   7.359   8.256 -0.1943 -0.5912 -1.7728
35460SOL    HW213431   7.855   7.301   8.179  0.4124 -1.6046 -0.1486
35461SOL     OW13432   8.487   7.031  11.156 -0.0932  0.1375  0.0997
35461SOL    HW113433   8.483   6.982  11.239 -0.6798  0.3518  0.1983
35461SOL    HW213434   8.557   6.988  11.107  0.5262  0.2475  0.8611
35462SOL     OW13435  11.632  11.808   8.890  0.2327 -0.2455  0.4583
35462SOL    HW113436  11.632  11.871   8.962  0.2518 -0.4846  0.6677
35462SOL    HW213437  11.640  11.862   8.811  0.6690 -0.0135  0.6573
35463SOL     OW13438   0.463   6.830  10.849 -0.4877  0.4023  0.1992
35463SOL    HW113439   0.382   6.837  10.799 -0.0601  0.9070 -0.4434
35463SOL    HW213440   0.531   6.860  10.789  0.3732 -1.3750  0.2072
35464SOL     OW13441   4.656   8.842   2.074 -0.4706  0.6297  0.2267
35464SOL    HW113442   4.646   8.748   2.062 -1.1179  0.3852  2.3258
35464SOL    HW213443   4.587   8.881   2.019 -2.9713 -0.3615  2.4574
35465SOL     OW13444   8.625  12.571   3.253  0.2216  0.0960  0.2331
35465SOL    HW113445   8.688  12.631   3.212 -0.3547  0.8425  0.4218
35465SOL    HW213446   8.573  12.626   3.310 -0.2829 -0.6063  0.4658
35466SOL     OW13447   0.299  10.104   2.183 -0.0781 -0.4194  0.1661
35466SOL    HW113448   0.296  10.179   2.124  0.7907 -0.6061 -0.1304
35466SOL    HW213449   0.365  10.046   2.145  1.3373 -0.0475  1.9163
35467SOL     OW13450   5.724   1.483  11.574 -0.6677  0.0990  0.3101
35467SOL    HW113451   5.730   1.471  11.479  1.7126  0.1285  0.3936
35467SOL    HW213452   5.770   1.566  11.590  2.0654 -1.5351  1.7254
35468SOL     OW13453   9.994   1.715  11.477  0.6407 -0.0618 -0.2425
35468SOL    HW113454  10.065   1.703  11.540  0.6653 -2.5421 -0.6448
35468SOL    HW213455  10.037   1.731  11.394  0.6690  0.3293 -0.1552
35469SOL     OW13456   1.795  12.021   2.551  0.2600 -0.0427  0.1988
35469SOL    HW113457   1.878  11.983   2.522  0.5229  1.3874 -1.0987
35469SOL    HW213458   1.807  12.116   2.538 -0.4521  0.5115  3.0009
35470SOL     OW13459   0.519   8.606   5.268 -0.1217  0.4926 -0.1397
35470SOL    HW113460   0.506   8.520   5.229 -1.3437  1.0158 -0.9355
35470SOL    HW213461   0.612   8.626   5.252 -0.1691 -0.0681 -1.1778
35471SOL     OW13462  11.451  11.735   6.938  0.3507 -0.1721  0.1883
35471SOL    HW113463  11.381  11.771   6.992  0.3386 -0.0108  0.0669
35471SOL    HW213464  11.434  11.641   6.936 -0.4561 -0.0213 -0.6764
35472SOL     OW13465   2.221   1.660  11.359 -0.5078  0.0594 -0.6811
35472SOL    HW113466   2.285   1.610  11.410 -2.4202 -0.6352  1.1810
35472SOL    HW213467   2.218   1.745  11.403 -0.8380  0.0931 -0.7698
35473SOL     OW13468   6.309   8.555  10.774 -0.1184 -0.0760 -0.5865
35473SOL    HW113469   6.220   8.577  10.746  0.4964  0.6311 -2.0589
35473SOL    HW213470   6.319   8.600  10.858 -0.6156  1.1628 -1.1628
35474SOL     OW13471   9.220   0.080   9.174 -0.7563  0.1865 -0.3641
35474SOL    HW113472   9.237   0.018   9.103  1.0609  1.5437 -1.1967
35474SOL    HW213473   9.146   0.132   9.143 -0.3276  0.4088 -1.0544
35475SOL     OW13474   7.852   5.985  11.107  0.0764  0.4194 -0.1159
35475SOL    HW113475   7.888   6.073  11.114 -1.5195  1.0165  1.6193
35475SOL    HW213476   7.804   5.973  11.189  1.0960 -2.4763  0.1772
35476SOL     OW13477  10.608   3.073   2.452  0.0352 -0.5883  0.2333
35476SOL    HW113478  10.563   2.988   2.452 -0.3805 -0.4181 -1.7404
35476SOL    HW213479  10.687   3.058   2.400 -1.1710  0.7138 -2.1518
35477SOL     OW13480   7.481   8.060   3.051  0.4168  0.0440 -0.2040
35477SOL    HW113481   7.512   7.996   2.987  0.9214  0.2308 -0.1432
35477SOL    HW213482   7.412   8.108   3.005 -0.6884 -1.2046  0.0668
35478SOL     OW13483   7.600   2.410   5.611  0.4909 -0.4188 -0.1022
35478SOL    HW113484   7.593   2.478   5.679  1.9999  1.0293 -1.2868
35478SOL    HW213485   7.691   2.381   5.615  0.5453 -0.4884 -1.3135
35479SOL     OW13486   6.579   4.009   7.466  0.7924 -0.1181  0.0998
35479SOL    HW113487   6.492   3.971   7.468 -0.2515  1.8537 -2.3778
35479SOL    HW213488   6.568   4.097   7.504  2.1071 -0.4152  1.2792
35480SOL     OW13489   8.049   9.297   1.399 -0.5564 -0.0526 -0.2205
35480SOL    HW113490   8.070   9.307   1.306  0.1741  0.2536 -0.0304
35480SOL    HW213491   7.959   9.330   1.407 -0.0632  1.4911 -0.5542
35481SOL     OW13492   9.308  11.163   9.715  0.0022 -0.5129  0.3482
35481SOL    HW113493   9.267  11.157   9.801 -0.2980 -0.3764  0.2157
35481SOL    HW213494   9.279  11.247   9.680  1.8283  0.4329  0.9793
35482SOL     OW13495   2.046  11.750   0.134 -0.0969 -0.9912  0.0293
35482SOL    HW113496   2.009  11.666   0.160  1.1972 -1.4480  0.4829
35482SOL    HW213497   2.073  11.791   0.216  1.9711 -1.4561 -0.3451
35483SOL     OW13498  10.368   6.658   2.425 -0.1121 -0.3688  0.2647
35483SOL    HW113499  10.385   6.636   2.333 -0.3973 -0.7376  0.2970
35483SOL    HW213500  10.416   6.739   2.440 -1.4748  0.6372 -0.6821
35484SOL     OW13501   7.602   4.101   0.381 -0.1810  0.1768 -0.0524
35484SOL    HW113502   7.686   4.120   0.423 -0.8129  0.7273  0.9999
35484SOL    HW213503   7.622   4.032   0.318  0.8354 -0.5569  1.0390
35485SOL     OW13504  12.381  10.244  11.019 -0.6513  0.0157 -0.2847
35485SOL    HW113505  12.337  10.305  10.960  1.1812  1.3623 -0.3570
35485SOL    HW213506  12.343  10.262  11.105 -0.5615  0.8353 -0.4095
35486SOL     OW13507   1.456   7.985   1.730 -0.4214  0.3492  0.0136
35486SOL    HW113508   1.515   8.038   1.783  1.6489 -0.3426 -1.4966
35486SOL    HW213509   1.386   7.959   1.791  0.9431  0.9658  1.9401
35487SOL     OW13510  11.353  10.482   2.677  0.3526  0.5707  0.0715
35487SOL    HW113511  11.426  10.432   2.713  0.1167  1.9205  2.7322
35487SOL    HW213512  11.394  10.548   2.622  0.8560 -0.6864 -1.1069
35488SOL     OW13513  10.865  11.003   8.547 -0.2143 -0.3036 -0.5335
35488SOL    HW113514  10.893  11.094   8.546  0.2007 -0.4148  0.0393
35488SOL    HW213515  10.771  11.006   8.531 -0.1442  0.2018 -0.8406
35489SOL     OW13516  12.032   7.053   1.714  0.4164  0.0771 -0.6957
35489SOL    HW113517  12.115   7.098   1.730  0.6001  0.8568 -3.4204
35489SOL    HW213518  11.971   7.123   1.689 -0.8931 -0.5722  0.5696
35490SOL     OW13519  10.136   5.230   2.487  0.0890 -0.9421 -0.9392
35490SOL    HW113520  10.131   5.256   2.579  0.3007 -0.9288 -0.9307
35490SOL    HW213521  10.208   5.167   2.484  0.7021 -0.2374 -1.2594
35491SOL     OW13522   4.527   2.638   9.722 -0.1313 -0.1768 -0.4025
35491SOL    HW113523   4.584   2.575   9.678  0.9403  1.3963 -1.3961
35491SOL    HW213524   4.464   2.665   9.656 -1.1602 -0.8603  0.2823
35492SOL     OW13525   6.840   3.402   7.914  0.2441  0.0310  0.5520
35492SOL    HW113526   6.762   3.440   7.874  2.0761  2.0953 -1.3313
35492SOL    HW213527   6.872   3.339   7.850  1.0803  0.4975  0.5014
35493SOL     OW13528  11.080   5.254   2.116 -0.4172 -0.9716 -0.1790
35493SOL    HW113529  11.156   5.220   2.163  0.1391 -1.3737 -1.3416
35493SOL    HW213530  11.032   5.177   2.089 -0.6986 -0.7452 -0.3300
35494SOL     OW13531   6.573   3.674   0.064  0.0897 -0.2708 -0.3058
35494SOL    HW113532   6.594   3.582   0.050 -1.7468 -0.7656 -0.1210
35494SOL    HW213533   6.501   3.692   0.004  1.1878  1.4150 -1.2003
35495SOL     OW13534  12.121   8.649   4.846 -0.1731 -0.6146 -0.5645
35495SOL    HW113535  12.155   8.624   4.931  0.0342 -1.1327 -0.8020
35495SOL    HW213536  12.030   8.619   4.846 -0.1639 -0.6429 -0.5392
35496SOL     OW13537   2.642   9.719   8.788 -0.6129  0.4793  0.5834
35496SOL    HW113538   2.620   9.812   8.787  0.7175  0.8330 -1.0953
35496SOL    HW213539   2.738   9.717   8.780 -0.4434 -1.0363  2.3367
35497SOL     OW13540   5.108   5.432   4.352 -0.1297  0.1052 -0.1502
35497SOL    HW113541   5.142   5.506   4.301 -1.1891  0.5635 -0.2277
35497SOL    HW213542   5.013   5.438   4.341 -0.2720 -0.7920  0.5165
35498SOL     OW13543   1.359  10.227   4.655  0.7430  0.0980  0.2628
35498SOL    HW113544   1.423  10.202   4.589  0.9512 -0.1683  0.5649
35498SOL    HW213545   1.370  10.321   4.665  1.6443 -0.0712  0.9008
35499SOL     OW13546   0.578  12.445   1.481  0.2825  0.1924 -0.3929
35499SOL    HW113547   0.576  12.528   1.433 -1.6300  0.4455  0.0411
35499SOL    HW213548   0.591  12.379   1.413  0.5686  0.7599 -0.8999
35500SOL     OW13549   6.703  12.490  12.148  0.1562  0.7833 -0.8331
35500SOL    HW113550   6.778  12.436  12.171 -0.2378  0.2282 -0.8401
35500SOL    HW213551   6.629  12.429  12.144 -0.4009  1.4062 -0.2834
35501SOL     OW13552  11.528   4.761   1.893 -0.2428 -0.9944 -0.6602
35501SOL    HW113553  11.490   4.847   1.910 -0.4464 -1.4195  1.2268
35501SOL    HW213554  11.480   4.701   1.950  2.6291 -1.6950  1.2604
35502SOL     OW13555   2.827   6.920   1.031  0.4236 -0.4908  0.2930
35502SOL    HW113556   2.784   6.977   0.967  0.2600 -1.4859 -0.4994
35502SOL    HW213557   2.843   6.977   1.106  1.6244  1.0049 -1.0251
35503SOL     OW13558  10.759   3.284  11.477  0.4113 -0.3632  1.1102
35503SOL    HW113559  10.669   3.315  11.483  0.1390 -0.0468 -2.5643
35503SOL    HW213560  10.751   3.188  11.484 -0.3081 -0.3797  0.2329
35504SOL     OW13561   2.218   4.272  11.004 -0.3054 -0.1469 -0.2952
35504SOL    HW113562   2.128   4.284  10.975 -1.6712 -1.6758  2.8341
35504SOL    HW213563   2.239   4.181  10.984  1.2816  0.5946 -2.4937
35505SOL     OW13564   3.710   1.155   9.971 -0.2976  0.0840  0.1470
35505SOL    HW113565   3.773   1.124  10.037 -0.2182 -0.0011  0.0324
35505SOL    HW213566   3.699   1.248   9.990 -0.6009 -0.0321  0.5473
35506SOL     OW13567   6.838   1.444   0.722  0.2610 -0.1583 -0.1440
35506SOL    HW113568   6.876   1.401   0.646  1.0913  0.8314 -0.3093
35506SOL    HW213569   6.744   1.450   0.702  0.0171 -2.3022  0.1144
35507SOL     OW13570   6.915   9.672   9.365 -0.3368 -0.6133  0.3305
35507SOL    HW113571   6.933   9.625   9.447 -2.3839  0.1721  1.3219
35507SOL    HW213572   6.963   9.754   9.374  0.6308 -1.1493  0.0736
35508SOL     OW13573  10.623   3.115   6.446  0.4826  0.4203 -0.6868
35508SOL    HW113574  10.608   3.076   6.360 -0.0726 -1.6350  0.3033
35508SOL    HW213575  10.536   3.125   6.484  0.7598  0.7792 -0.1335
35509SOL     OW13576   6.976   7.535   6.666 -0.5916 -0.1215 -0.2123
35509SOL    HW113577   7.046   7.477   6.634  0.7593  1.1217  0.3561
35509SOL    HW213578   6.975   7.521   6.761  1.3373  2.3011  0.2888
35510SOL     OW13579   4.055  12.143   2.476 -0.2061 -0.6192  0.4790
35510SOL    HW113580   4.115  12.217   2.481 -1.2905  0.3374 -0.2319
35510SOL    HW213581   3.969  12.180   2.498 -1.1821 -1.1044 -2.1789
35511SOL     OW13582   2.653   7.354   7.045 -0.3752  0.2054 -0.4681
35511SOL    HW113583   2.668   7.262   7.066  2.0899  0.7812  0.6637
35511SOL    HW213584   2.588   7.352   6.975 -3.1491 -2.1930  1.9242
35512SOL     OW13585   1.248   2.904   7.948  0.0672  0.2777  0.1967
35512SOL    HW113586   1.220   2.841   8.015 -0.9273 -1.0680 -1.4090
35512SOL    HW213587   1.176   2.967   7.944 -0.0176  0.1803  0.1744
35513SOL     OW13588   7.918   2.764   4.727  0.0453  0.0111 -0.1000
35513SOL    HW113589   8.010   2.742   4.714  0.0050 -0.2089 -0.0155
35513SOL    HW213590   7.895   2.725   4.812 -0.4889 -1.1297 -0.7351
35514SOL     OW13591   3.721   8.088   5.715 -0.0921 -0.5444 -0.0338
35514SOL    HW113592   3.653   8.079   5.782  0.2741  0.9126  0.5663
35514SOL    HW213593   3.768   8.167   5.739  1.5507 -1.2833 -0.7082
35515SOL     OW13594   9.160   8.730  11.243  0.0938 -0.0577  0.7286
35515SOL    HW113595   9.082   8.709  11.294 -0.5752 -2.2988 -1.0430
35515SOL    HW213596   9.130   8.729  11.152  1.8086  1.0171  0.0957
35516SOL     OW13597  12.030  11.490   4.918  0.1620 -0.1743  0.3619
35516SOL    HW113598  12.000  11.427   4.853  1.0967 -0.6922  0.4004
35516SOL    HW213599  11.957  11.550   4.931  0.1324  0.2365 -1.5168
35517SOL     OW13600   6.653   9.751   2.243 -0.2073  0.5314 -0.2670
35517SOL    HW113601   6.583   9.698   2.282  0.5332  0.4272  0.9688
35517SOL    HW213602   6.730   9.694   2.243  0.2456  1.1284 -0.2367
35518SOL     OW13603  11.653   3.117   9.087 -0.5857 -0.0266 -0.0313
35518SOL    HW113604  11.562   3.144   9.102 -1.4134 -2.5492 -0.0776
35518SOL    HW213605  11.661   3.114   8.992 -0.6946 -0.5125 -0.0268
35519SOL     OW13606   2.896  11.122   9.925  0.3902 -0.2838 -0.4743
35519SOL    HW113607   2.866  11.196   9.979  0.8150 -0.9872  0.7839
35519SOL    HW213608   2.815  11.080   9.896  0.1438 -0.1263 -0.0405
35520SOL     OW13609   3.453   7.717   2.610 -0.5048  0.2861 -0.1364
35520SOL    HW113610   3.513   7.709   2.683 -2.8411  0.8059  1.9725
35520SOL    HW213611   3.446   7.811   2.594 -1.7280  0.3303  0.5501
35521SOL     OW13612   4.065   7.533   5.197  0.1943 -0.4322 -0.1427
35521SOL    HW113613   3.978   7.496   5.181  0.6406 -0.7545 -2.0915
35521SOL    HW213614   4.121   7.457   5.212  0.2385 -0.2434  0.7427
35522SOL     OW13615  10.977   3.092   6.902  0.6776 -0.1771  0.4186
35522SOL    HW113616  10.913   3.143   6.950  0.0729 -1.7592  1.3953
35522SOL    HW213617  11.018   3.154   6.842 -1.0447  1.0876  0.4814
35523SOL     OW13618   9.245   1.984   1.664 -0.4649  0.0662 -0.1923
35523SOL    HW113619   9.334   1.973   1.697  0.0836  1.5701 -1.0593
35523SOL    HW213620   9.191   1.930   1.721  1.1140 -1.7070 -0.2762
35524SOL     OW13621  11.153   6.605  10.021 -0.2840  0.0459  0.1148
35524SOL    HW113622  11.151   6.655   9.939 -1.2494 -0.4732 -0.1962
35524SOL    HW213623  11.129   6.516   9.996 -1.3659  0.0414  1.0603
35525SOL     OW13624   3.794   9.642   1.909 -0.1550  0.6999  0.5009
35525SOL    HW113625   3.741   9.574   1.869 -0.9715 -0.0722  2.7398
35525SOL    HW213626   3.749   9.724   1.888 -0.0218  0.4431 -0.8823
35526SOL     OW13627  10.695   6.615  11.508  0.0842 -0.0283  0.4955
35526SOL    HW113628  10.772   6.594  11.455 -0.4268 -1.0720  0.1518
35526SOL    HW213629  10.637   6.663  11.448  0.1915  0.2069  0.5773
35527SOL     OW13630   0.075   7.673   6.639  0.2107  0.3372  0.0749
35527SOL    HW113631   0.102   7.765   6.639  1.1798  0.0615  0.0573
35527SOL    HW213632   0.064   7.652   6.732 -0.4204  0.5774  0.0608
35528SOL     OW13633  12.245   5.355   5.417  0.0310  0.1336  0.8193
35528SOL    HW113634  12.217   5.263   5.423 -1.0057  0.3583 -0.1599
35528SOL    HW213635  12.335   5.351   5.386  0.6030 -0.5768  2.4263
35529SOL     OW13636   5.518   7.765   9.247  0.1261 -0.0763 -0.6892
35529SOL    HW113637   5.567   7.691   9.209  0.7678  0.3994 -0.8057
35529SOL    HW213638   5.453   7.724   9.303  1.9906 -0.7296  1.1298
35530SOL     OW13639   7.060   1.819   8.623  0.0288  0.4791 -0.0184
35530SOL    HW113640   7.042   1.783   8.536 -3.8718  1.8211  0.0339
35530SOL    HW213641   7.073   1.912   8.608  1.5544  0.3983  0.6736
35531SOL     OW13642   7.306   7.160   5.623  0.6099  0.6544 -0.4702
35531SOL    HW113643   7.350   7.199   5.547  1.3884  0.5264 -0.0983
35531SOL    HW213644   7.224   7.126   5.588  0.5879  1.3088 -1.0925
35532SOL     OW13645   8.460   4.195   4.588  0.1847  0.1096  0.7872
35532SOL    HW113646   8.538   4.167   4.540  1.0466 -1.2466  2.8800
35532SOL    HW213647   8.479   4.285   4.614  1.1898 -0.2982  1.5067
35533SOL     OW13648   3.442  10.932   1.159  0.1711  0.1205  0.3035
35533SOL    HW113649   3.449  11.003   1.095  1.0835 -0.5955 -0.4207
35533SOL    HW213650   3.522  10.881   1.147 -0.9320 -1.6252  0.0964
35534SOL     OW13651   1.202   0.614  10.448  0.2883  0.2130 -0.1603
35534SOL    HW113652   1.190   0.699  10.405  0.6192  1.2031  1.5806
35534SOL    HW213653   1.113   0.584  10.467  0.1320 -0.3453 -1.6756
35535SOL     OW13654   9.079   4.814   0.312  0.2293 -0.9115  0.8463
35535SOL    HW113655   9.161   4.843   0.351  0.8059  0.2700 -1.1190
35535SOL    HW213656   9.100   4.732   0.269  0.5163 -0.3830 -0.0398
35536SOL     OW13657  10.828   0.811  11.930  0.3406 -0.0385  0.6193
35536SOL    HW113658  10.752   0.868  11.941 -0.4808 -0.8271 -0.8093
35536SOL    HW213659  10.900   0.871  11.907  0.0056  0.6317  1.2905
35537SOL     OW13660   4.236   6.817   3.737 -0.4337 -0.5056 -0.2821
35537SOL    HW113661   4.191   6.765   3.803  2.4347 -3.7943 -0.6369
35537SOL    HW213662   4.315   6.848   3.780 -0.0168 -0.0408 -1.3284
35538SOL     OW13663   3.670   5.068  10.200 -0.3982 -0.0375  0.2838
35538SOL    HW113664   3.602   5.079  10.133  0.4590  0.7278 -0.4890
35538SOL    HW213665   3.621   5.049  10.280 -1.4839 -0.2816 -0.4084
35539SOL     OW13666  10.450   1.798   6.654  0.5959 -0.3141  0.3934
35539SOL    HW113667  10.479   1.883   6.688  0.8987 -0.1183 -0.3394
35539SOL    HW213668  10.500   1.786   6.573  0.4722 -1.1413  0.4305
35540SOL     OW13669  10.981   2.489   9.871  0.5056  0.1198 -0.3932
35540SOL    HW113670  10.972   2.509   9.964 -0.1552  1.0288 -0.6368
35540SOL    HW213671  11.018   2.401   9.869  0.3752  0.0229  0.7265
35541SOL     OW13672  11.395  12.036   5.072 -0.1614  0.0672 -0.0808
35541SOL    HW113673  11.375  11.992   5.154  0.1385  1.5749  0.8437
35541SOL    HW213674  11.349  11.985   5.005  0.1962 -1.6234  0.9146
35542SOL     OW13675  12.393   8.462  10.252  0.5746 -0.0615 -0.3214
35542SOL    HW113676  12.393   8.499  10.340  0.1565  0.3878 -0.5035
35542SOL    HW213677  12.370   8.535  10.195  0.8771 -0.3416 -0.8079
35543SOL     OW13678  11.049  10.884   3.227  0.5052  0.2064  0.4961
35543SOL    HW113679  11.081  10.865   3.138  2.1951 -0.6084  1.2280
35543SOL    HW213680  11.068  10.804   3.276  0.1801  0.8789  1.7389
35544SOL     OW13681   2.827   7.287   3.710  0.4944 -0.0691 -0.7245
35544SOL    HW113682   2.843   7.258   3.620  2.6394  0.9332 -0.7335
35544SOL    HW213683   2.817   7.382   3.703  1.0837  0.0713  0.1109
35545SOL     OW13684   4.139   2.069  10.132  0.3881 -0.2300 -0.1164
35545SOL    HW113685   4.062   2.120  10.156  0.8079  0.9601 -1.1601
35545SOL    HW213686   4.106   1.979  10.122 -0.2087 -0.3953  2.5344
35546SOL     OW13687   0.716   7.332  10.215 -0.7945 -0.6995 -0.3814
35546SOL    HW113688   0.655   7.406  10.225 -0.3519 -0.3075 -0.5316
35546SOL    HW213689   0.798   7.373  10.186 -0.8947 -1.3952 -1.6762
35547SOL     OW13690   1.303   3.557   5.308  0.2017 -0.1399 -0.0568
35547SOL    HW113691   1.222   3.508   5.317  1.0562 -1.6633 -0.3853
35547SOL    HW213692   1.327   3.547   5.216  0.0076  1.5656 -0.3206
35548SOL     OW13693   1.067   2.230  12.507  0.1659  0.2817 -0.3515
35548SOL    HW113694   0.980   2.269  12.504  0.2188  0.4791  0.4603
35548SOL    HW213695   1.101   2.238  12.418 -0.1839  1.2615 -0.4071
35549SOL     OW13696   5.902  10.048  12.496  0.3405  0.7561  0.7748
35549SOL    HW113697   5.880   9.955  12.495  0.8399  0.5968  2.4967
35549SOL    HW213698   5.881  10.078  12.407  0.0785 -0.9631  0.2150
35550SOL     OW13699   7.145  11.793   4.916 -0.4918 -0.2650  0.4196
35550SOL    HW113700   7.111  11.714   4.957 -0.7546 -0.1054  0.5146
35550SOL    HW213701   7.148  11.858   4.987  0.9147 -0.5371  0.6304
35551SOL     OW13702   8.997   2.097   8.523  0.0715  0.2858  0.0605
35551SOL    HW113703   9.087   2.065   8.535 -0.6530 -1.7698  0.5165
35551SOL    HW213704   8.976   2.141   8.606 -0.7902 -3.2462  1.9434
35552SOL     OW13705   5.347  10.486   9.042  0.1522 -0.2684 -0.2854
35552SOL    HW113706   5.311  10.489   8.953  0.7595 -0.6075 -0.5530
35552SOL    HW213707   5.418  10.549   9.041  1.2051 -1.4192 -0.5363
35553SOL     OW13708   4.699   8.354   0.077 -0.2006 -0.2658 -0.3477
35553SOL    HW113709   4.783   8.350   0.122  0.4114 -1.0628 -1.4890
35553SOL    HW213710   4.653   8.275   0.107 -1.3829  1.1368  1.7601
35554SOL     OW13711   5.715   0.223  11.636  0.3006 -0.7652 -0.2443
35554SOL    HW113712   5.792   0.251  11.585  1.8420 -1.7738  1.4306
35554SOL    HW213713   5.640   0.253  11.584  1.8084  0.8470 -1.6155
35555SOL     OW13714   5.706   4.265   4.691  0.1953  0.6508 -0.1118
35555SOL    HW113715   5.785   4.305   4.726  1.0927 -1.2196  0.1143
35555SOL    HW213716   5.704   4.177   4.729 -2.2274  0.7588  0.2111
35556SOL     OW13717   8.865   6.970   8.029  0.3747 -0.0749 -0.3743
35556SOL    HW113718   8.861   7.042   8.092  0.2700 -0.1990 -0.2374
35556SOL    HW213719   8.909   7.007   7.953  0.6332  0.0335 -0.1722
35557SOL     OW13720   1.662   2.765   2.303 -0.5394  0.0068 -0.1735
35557SOL    HW113721   1.697   2.707   2.236  2.3668 -0.3206  1.4896
35557SOL    HW213722   1.666   2.853   2.265  1.0113 -0.1829 -0.4871
35558SOL     OW13723   2.717   1.835   8.354  0.6985  0.0134 -0.9838
35558SOL    HW113724   2.741   1.743   8.350  2.6412  0.4815 -1.3732
35558SOL    HW213725   2.636   1.841   8.304 -0.1556 -1.6593  0.1286
35559SOL     OW13726   0.447   6.156  11.193 -0.0394 -0.0761 -0.0328
35559SOL    HW113727   0.453   6.109  11.276  0.3396  0.3044  0.1615
35559SOL    HW213728   0.479   6.244  11.214  0.0266  0.0291 -0.5767
35560SOL     OW13729  11.480   7.691   0.051  0.4479 -0.3082  0.2710
35560SOL    HW113730  11.501   7.603   0.023  0.1234 -0.7164  1.2578
35560SOL    HW213731  11.565   7.729   0.076  1.0692  0.7782 -3.0185
35561SOL     OW13732  10.220   2.372   4.952  0.6108  0.1775 -0.2426
35561SOL    HW113733  10.196   2.457   4.915 -0.9414 -0.1490 -0.0569
35561SOL    HW213734  10.178   2.308   4.895  0.3485 -0.4087  0.5888
35562SOL     OW13735   7.480  11.289  11.601 -0.0578 -0.0471 -0.0483
35562SOL    HW113736   7.470  11.360  11.664 -0.7993 -0.1666 -0.0197
35562SOL    HW213737   7.565  11.249  11.623  0.3203  0.7620 -0.0121
35563SOL     OW13738   9.316   2.669  12.222 -0.3807  0.1986 -0.3315
35563SOL    HW113739   9.294   2.753  12.262  0.5927  0.8233 -1.0614
35563SOL    HW213740   9.324   2.689  12.129 -0.3511 -0.7592 -0.5374
35564SOL     OW13741   6.679   2.860   8.346 -0.1751  0.5969 -0.1625
35564SOL    HW113742   6.705   2.815   8.266 -0.7011 -0.2293  0.1137
35564SOL    HW213743   6.713   2.805   8.417 -0.9710  0.5339  0.1859
35565SOL     OW13744   7.489   0.942   9.695 -0.4861  0.2462  0.4816
35565SOL    HW113745   7.530   0.972   9.613 -1.0324 -1.3483 -0.4217
35565SOL    HW213746   7.408   0.994   9.701  0.3187  1.5004  0.8716
35566SOL     OW13747  12.321  10.908   6.385 -0.7777  0.1919  0.1663
35566SOL    HW113748  12.298  10.960   6.309 -1.2521 -0.3361 -0.0597
35566SOL    HW213749  12.241  10.861   6.407 -0.1222 -1.1797 -0.2204
35567SOL     OW13750   1.387   0.996   3.090  0.6624 -0.2373 -0.7417
35567SOL    HW113751   1.344   1.056   3.152  1.9490  0.6056 -0.6307
35567SOL    HW213752   1.317   0.969   3.031 -0.2386  0.2792  0.0632
35568SOL     OW13753   9.269   1.477   3.995 -0.5945  0.1193 -0.4960
35568SOL    HW113754   9.178   1.506   3.996 -0.0987  1.7369  0.7373
35568SOL    HW213755   9.281   1.431   4.078 -0.5684 -1.1457 -1.1672
35569SOL     OW13756   0.418   9.554  11.125 -0.3266 -0.0116 -0.0311
35569SOL    HW113757   0.420   9.588  11.215  0.0383  2.7078 -0.9845
35569SOL    HW213758   0.499   9.505  11.116  0.2676  0.7871  0.7650
35570SOL     OW13759   3.316   9.270   4.673 -0.2849 -0.5226  0.0807
35570SOL    HW113760   3.225   9.261   4.643 -0.4323  0.7070  0.0932
35570SOL    HW213761   3.329   9.365   4.681 -0.1194 -0.7120  3.4474
35571SOL     OW13762   0.369   5.680   9.911  0.1874  0.0301 -0.4779
35571SOL    HW113763   0.431   5.646   9.975 -1.3159 -1.2360  0.4007
35571SOL    HW213764   0.302   5.611   9.905 -0.4151  0.7375 -2.3966
35572SOL     OW13765   0.792   4.001   5.849  0.1365 -0.1726 -0.2798
35572SOL    HW113766   0.839   4.020   5.930  0.6879  4.2947 -1.4007
35572SOL    HW213767   0.701   4.022   5.869  0.0890 -0.1721 -0.4894
35573SOL     OW13768   2.125   4.904   5.593  0.0644 -0.1198 -0.1070
35573SOL    HW113769   2.060   4.861   5.538 -1.1080  2.5739 -1.0063
35573SOL    HW213770   2.111   4.868   5.681 -2.4307  0.0887 -0.3558
35574SOL     OW13771   4.932   6.626   2.734  0.5836  0.2175  0.9184
35574SOL    HW113772   4.839   6.614   2.757  0.0411  2.5775  0.2375
35574SOL    HW213773   4.976   6.637   2.818 -0.0011  0.4861  1.2010
35575SOL     OW13774   1.971   5.945   2.123  0.4044 -0.1234  0.5730
35575SOL    HW113775   2.035   5.916   2.058  1.7062  1.3457  1.1437
35575SOL    HW213776   1.941   6.030   2.090 -1.7784 -1.0401 -0.0120
35576SOL     OW13777   7.369   4.906  10.671  0.4523  0.2394 -0.2515
35576SOL    HW113778   7.458   4.925  10.701  0.7817 -0.2109 -0.9216
35576SOL    HW213779   7.337   4.989  10.636  1.2246  0.0324 -1.5152
35577SOL     OW13780   1.147  11.700   3.021 -0.1546  0.4553 -0.0261
35577SOL    HW113781   1.103  11.616   3.031  1.5111 -0.6128 -1.0127
35577SOL    HW213782   1.173  11.701   2.928  1.9450  0.9221  0.5163
35578SOL     OW13783   5.026   2.392   8.538  0.4936 -0.4947 -0.6908
35578SOL    HW113784   5.095   2.370   8.600  0.8344  0.1224 -0.8427
35578SOL    HW213785   4.947   2.398   8.591  0.9987  1.3273 -0.0559
35579SOL     OW13786   1.347   2.160   9.205  0.0517 -0.0678  0.1148
35579SOL    HW113787   1.271   2.168   9.147  1.5256  2.8900 -1.6644
35579SOL    HW213788   1.318   2.199   9.288 -0.1759  2.0563 -0.8842
35580SOL     OW13789   9.543   1.882  11.878  0.0269 -0.4489 -0.0713
35580SOL    HW113790   9.482   1.953  11.857  1.2629  1.5388  2.4502
35580SOL    HW213791   9.488   1.804  11.881 -1.8340  0.7482 -0.8346
35581SOL     OW13792   6.613   8.944   9.096 -0.2744 -0.1827 -0.3034
35581SOL    HW113793   6.576   9.010   9.155 -0.1789  0.0244 -0.4725
35581SOL    HW213794   6.537   8.901   9.057 -0.3723 -1.4324  1.1730
35582SOL     OW13795   6.930   8.689   8.296 -0.3457 -0.0282 -0.5969
35582SOL    HW113796   6.922   8.779   8.266  1.0196  0.1845 -0.3866
35582SOL    HW213797   6.945   8.696   8.390 -1.5134 -0.5506 -0.3525
35583SOL     OW13798  12.587   2.395   2.587  0.0988 -0.1369  0.3985
35583SOL    HW113799  12.576   2.300   2.582  3.3295 -0.5965 -0.8577
35583SOL    HW213800  12.538   2.429   2.512  1.8819 -1.2844 -1.3900
35584SOL     OW13801   8.568   1.961   9.891  0.0371  0.5855  0.2190
35584SOL    HW113802   8.628   1.891   9.915 -0.5549  0.2340  0.7029
35584SOL    HW213803   8.559   2.013   9.972 -0.4137  0.5589  0.1853
35585SOL     OW13804   2.735   0.783   5.348 -0.2031 -0.1074  0.1257
35585SOL    HW113805   2.766   0.693   5.363  0.3823  0.3836  2.1575
35585SOL    HW213806   2.718   0.787   5.254 -1.2810 -2.6626  0.1255
35586SOL     OW13807   9.833   8.381   3.097  0.2556 -0.4881  0.1961
35586SOL    HW113808   9.812   8.470   3.071  1.1719 -0.1486  0.5549
35586SOL    HW213809   9.758   8.329   3.069 -1.0449  0.6332  1.4390
35587SOL     OW13810   1.897   5.968   0.908 -0.3834 -0.4165  0.3657
35587SOL    HW113811   1.860   6.036   0.964 -2.2284  1.2082 -2.5706
35587SOL    HW213812   1.821   5.926   0.868  0.8043 -0.4926 -1.9779
35588SOL     OW13813   9.676   8.897   7.555 -0.0763  0.3350 -0.1337
35588SOL    HW113814   9.768   8.894   7.529 -0.5612  1.5744 -2.3267
35588SOL    HW213815   9.651   8.989   7.541 -1.7305 -0.0610  0.0616
35589SOL     OW13816   4.604  12.540   8.148  0.7430  0.7497 -0.3420
35589SOL    HW113817   4.609  12.587   8.232 -0.2317  0.9192 -0.3619
35589SOL    HW213818   4.665  12.587   8.092  0.6920  1.2439 -0.0009
35590SOL     OW13819  10.997   5.314   0.323  0.1929 -0.2431 -0.1911
35590SOL    HW113820  10.963   5.341   0.409  0.4766 -0.5048  0.0035
35590SOL    HW213821  10.920   5.314   0.266 -0.0465 -0.3458  0.1301
35591SOL     OW13822   8.083   1.633   8.924  0.2376 -0.3142  0.1453
35591SOL    HW113823   8.141   1.655   8.851 -1.9024 -2.4718 -2.4338
35591SOL    HW213824   8.033   1.713   8.940  0.2443  0.0169 -1.3083
35592SOL     OW13825   4.226  11.417   9.203 -0.0428  0.1584  0.7703
35592SOL    HW113826   4.281  11.495   9.192 -2.1037  1.6825  0.6339
35592SOL    HW213827   4.194  11.422   9.293 -1.4453  0.3727  0.2864
35593SOL     OW13828   5.306  12.260   2.263  0.3955  0.2834  0.3912
35593SOL    HW113829   5.231  12.250   2.205  0.7568  0.1013 -0.0523
35593SOL    HW213830   5.270  12.298   2.343  0.1639  2.1412 -0.5581
35594SOL     OW13831   7.984   3.700  12.051  0.1995  0.1659 -0.3041
35594SOL    HW113832   7.911   3.706  11.988 -0.4443 -1.2317  0.2614
35594SOL    HW213833   7.946   3.727  12.134  0.3633 -0.3723 -0.0471
35595SOL     OW13834   9.688   4.467   4.899 -0.0606 -0.0084 -0.0586
35595SOL    HW113835   9.745   4.419   4.840 -1.5951 -1.4074 -0.4555
35595SOL    HW213836   9.691   4.557   4.867  0.3404 -0.4471 -1.2975
35596SOL     OW13837   4.346   2.710   1.431 -0.6507 -0.2660 -0.1448
35596SOL    HW113838   4.320   2.764   1.506 -0.7935  0.3128 -0.6003
35596SOL    HW213839   4.376   2.773   1.366  0.8701 -0.8354 -0.0530
35597SOL     OW13840  11.064   7.938   0.944  0.0110 -0.3210  0.1669
35597SOL    HW113841  11.085   7.930   0.851 -0.9982 -0.1525 -0.0844
35597SOL    HW213842  11.099   7.857   0.983  1.0779 -0.0670 -0.2234
35598SOL     OW13843   4.035  10.165  12.365 -0.2112 -0.0963 -0.7589
35598SOL    HW113844   3.981  10.104  12.315  0.3460 -2.0375  0.8887
35598SOL    HW213845   4.070  10.113  12.437  1.6927  1.7629 -0.2359
35599SOL     OW13846   2.567   4.433   3.618  0.4520 -0.1988 -0.1067
35599SOL    HW113847   2.556   4.528   3.625 -1.9307 -0.4826  0.9300
35599SOL    HW213848   2.557   4.414   3.525  0.4636  0.5035 -0.2549
35600SOL     OW13849   2.152   2.143   0.216 -0.3497  0.2057  0.3638
35600SOL    HW113850   2.123   2.232   0.233  0.9112  0.8633 -0.7115
35600SOL    HW213851   2.073   2.096   0.187 -1.4101  0.4400  2.6675
35601SOL     OW13852   9.973   1.558   2.445 -0.7745 -0.4765  0.3788
35601SOL    HW113853  10.012   1.645   2.434 -1.4712 -0.1052  0.7447
35601SOL    HW213854  10.040   1.497   2.414 -0.2204  0.1836  0.2574
35602SOL     OW13855   1.171   2.529   1.279  0.1431  0.1773  0.4148
35602SOL    HW113856   1.083   2.509   1.312  0.3384 -1.1638  0.1546
35602SOL    HW213857   1.230   2.488   1.342  0.5494 -0.7180 -0.5317
35603SOL     OW13858   7.480   4.547   0.511 -0.0494 -0.2604 -0.1098
35603SOL    HW113859   7.459   4.617   0.449  1.1077 -1.3076 -1.7635
35603SOL    HW213860   7.408   4.485   0.503 -1.2310  0.7917  1.5768
35604SOL     OW13861   7.425  11.800   8.397 -0.0808  0.4319  0.8092
35604SOL    HW113862   7.378  11.853   8.332  0.4379 -0.1697 -0.0773
35604SOL    HW213863   7.430  11.856   8.475  0.2846  1.6141 -0.0387
35605SOL     OW13864   4.538   3.851   4.401  0.0509 -0.1730  0.0180
35605SOL    HW113865   4.589   3.923   4.364  1.1689 -1.0365 -0.1524
35605SOL    HW213866   4.541   3.866   4.495 -3.2595  2.3476 -0.0815
35606SOL     OW13867   5.196   3.815  12.384 -0.7133 -0.1380 -0.0670
35606SOL    HW113868   5.180   3.837  12.292 -0.5687  1.6162  0.2788
35606SOL    HW213869   5.110   3.790  12.418 -0.6546 -1.4330 -0.8131
35607SOL     OW13870   8.313   3.304   8.198 -0.0199 -0.4781  0.0634
35607SOL    HW113871   8.346   3.359   8.269 -0.2259  0.7770 -0.8021
35607SOL    HW213872   8.376   3.232   8.193  0.5527 -0.0481  0.8429
35608SOL     OW13873   7.636   1.202   8.057  0.3007  0.2949  0.0793
35608SOL    HW113874   7.712   1.226   8.005 -0.4397  1.4155 -0.5193
35608SOL    HW213875   7.576   1.160   7.995  0.8267 -1.5371  0.7503
35609SOL     OW13876   2.671   4.766   1.936 -0.3354 -0.5977 -0.1975
35609SOL    HW113877   2.602   4.735   1.877  0.3587 -0.3679 -1.1607
35609SOL    HW213878   2.753   4.740   1.892  0.1982 -0.7815  0.8725
35610SOL     OW13879   2.120   4.818   0.627 -0.7413  0.3941 -0.1040
35610SOL    HW113880   2.046   4.758   0.631 -1.0843  0.8795  1.7206
35610SOL    HW213881   2.093   4.886   0.566 -1.9776  0.7561  0.8023
35611SOL     OW13882   4.782   1.983  11.344 -0.3596  0.6099  0.1656
35611SOL    HW113883   4.712   1.920  11.361  0.1179 -0.6276 -2.0366
35611SOL    HW213884   4.808   1.967  11.253  2.5690  1.2397  0.7662
35612SOL     OW13885   2.405   9.107   1.249  0.3811  0.0826 -0.1167
35612SOL    HW113886   2.463   9.035   1.224  1.0686  1.8169 -4.4371
35612SOL    HW213887   2.317   9.070   1.241  0.7509 -0.5887 -1.4518
35613SOL     OW13888   0.776   9.582   4.527  0.4827 -0.2802 -0.0734
35613SOL    HW113889   0.736   9.496   4.509 -0.8884  0.4183 -0.4672
35613SOL    HW213890   0.755   9.601   4.618  2.3313 -1.1271  0.5902
35614SOL     OW13891   4.706  10.169  11.119 -0.3273  0.3834 -0.0716
35614SOL    HW113892   4.762  10.092  11.127 -0.5278  0.3088  0.7412
35614SOL    HW213893   4.766  10.242  11.106 -0.1518  0.0578 -1.1525
35615SOL     OW13894  10.087  11.851   2.403  0.3132 -0.3738 -0.5524
35615SOL    HW113895  10.012  11.907   2.383  0.1766 -0.1704  0.4625
35615SOL    HW213896  10.160  11.912   2.415  0.4155 -0.4954 -0.5474
35616SOL     OW13897   2.984  11.154   0.839 -0.2646  0.3287 -0.3568
35616SOL    HW113898   3.004  11.219   0.906  1.2360 -1.2911  0.8547
35616SOL    HW213899   2.954  11.206   0.764 -0.3146  2.3084  0.9570
35617SOL     OW13900  10.934   6.337   7.842 -0.2451 -0.3856 -0.1243
35617SOL    HW113901  10.871   6.272   7.812 -1.8603  0.5462  1.1017
35617SOL    HW213902  10.948   6.394   7.766 -0.3815 -0.9564 -0.5858
35618SOL     OW13903   4.337   9.626   7.940 -0.0095  0.0322  0.7122
35618SOL    HW113904   4.314   9.658   7.853 -1.7329  2.6262  2.0069
35618SOL    HW213905   4.290   9.543   7.948 -0.5163  0.1826 -0.5179
35619SOL     OW13906   9.075   6.368   7.466  0.5103 -0.3936 -0.4654
35619SOL    HW113907   9.164   6.390   7.494  0.1443  2.3427 -1.1322
35619SOL    HW213908   9.077   6.379   7.371 -0.7178  0.5891 -0.4011
35620SOL     OW13909   7.591   1.162   9.835 -0.3955  0.6066  0.1918
35620SOL    HW113910   7.616   1.129   9.749 -0.6930  0.1887  0.2592
35620SOL    HW213911   7.567   1.083   9.884  0.8455  0.7086  1.0202
35621SOL     OW13912   6.564   1.994  12.358  0.0241 -0.2013  0.1384
35621SOL    HW113913   6.501   1.929  12.327 -0.2863 -1.1760  2.5240
35621SOL    HW213914   6.518   2.040  12.428  0.8658  1.3932 -0.3052
35622SOL     OW13915   1.833   4.981  10.720  0.4000 -0.5498 -0.3411
35622SOL    HW113916   1.773   5.053  10.700  0.5960 -0.1762  0.3660
35622SOL    HW213917   1.787   4.927  10.784  0.3373 -0.9427 -0.7146
35623SOL     OW13918  10.483   4.564  10.644  0.0976 -0.1316 -0.2959
35623SOL    HW113919  10.392   4.591  10.650 -0.0965 -0.3803 -1.7848
35623SOL    HW213920  10.513   4.559  10.735 -1.3375  0.0331  0.2038
35624SOL     OW13921   3.054   9.182   4.591 -0.2052 -0.1328  0.3772
35624SOL    HW113922   3.028   9.201   4.500  1.2093  0.1666 -0.0005
35624SOL    HW213923   2.974   9.153   4.634 -1.1462  0.8024 -0.6779
35625SOL     OW13924   2.388   4.910   7.745 -0.0838  0.2391  0.4652
35625SOL    HW113925   2.316   4.927   7.806 -0.8156 -0.2933 -0.2205
35625SOL    HW213926   2.348   4.857   7.676  1.1694 -0.8477  0.5281
35626SOL     OW13927   7.417   1.047   6.573 -0.1333 -0.5133  0.4700
35626SOL    HW113928   7.356   1.098   6.626 -0.6094 -1.2256  0.6195
35626SOL    HW213929   7.374   0.962   6.563  0.2883 -0.6246 -0.4399
35627SOL     OW13930   3.164   6.636   0.596 -0.0667 -0.3852 -0.3011
35627SOL    HW113931   3.253   6.602   0.584  1.1944  2.2068  0.9093
35627SOL    HW213932   3.111   6.559   0.615  2.0245 -1.9610 -0.5487
35628SOL     OW13933   7.639   1.934   3.582 -0.4043  0.3407  0.1663
35628SOL    HW113934   7.559   1.978   3.552  0.2965  1.5230 -0.0245
35628SOL    HW213935   7.624   1.841   3.562 -1.6682  0.5582  0.0181
35629SOL     OW13936   3.973   0.486   4.997  0.0711 -0.3280 -0.1874
35629SOL    HW113937   4.008   0.555   5.053  1.9354 -0.5672 -0.9787
35629SOL    HW213938   3.908   0.441   5.052  0.8676  0.2869  1.3112
35630SOL     OW13939   3.428  10.014   5.612  0.0935  0.9350 -0.0358
35630SOL    HW113940   3.363  10.006   5.543  0.1603  1.6691 -0.1979
35630SOL    HW213941   3.494   9.947   5.593 -0.5340  0.2831  0.0513
35631SOL     OW13942  10.545   3.228   7.143 -0.0761  0.3546  0.1218
35631SOL    HW113943  10.615   3.175   7.181  1.4869  1.3173 -1.2453
35631SOL    HW213944  10.473   3.166   7.128  0.9978 -0.9791  0.2874
35632SOL     OW13945   7.659   5.453   2.216 -0.1545 -0.1571  0.3113
35632SOL    HW113946   7.660   5.486   2.126  0.8226  0.2622  0.4674
35632SOL    HW213947   7.601   5.513   2.263 -0.0023  0.1179  0.1462
35633SOL     OW13948   7.136   3.955  12.301 -0.0683 -0.5715  0.2351
35633SOL    HW113949   7.214   3.955  12.356 -0.1746  0.0846  0.3949
35633SOL    HW213950   7.091   4.037  12.322 -0.1108 -0.2998 -0.8116
35634SOL     OW13951   3.305   3.907   8.360  0.3403  0.0755  0.1431
35634SOL    HW113952   3.301   3.935   8.451 -0.3537  1.1708 -0.2037
35634SOL    HW213953   3.392   3.868   8.351 -0.2164 -1.6713  1.6976
35635SOL     OW13954   1.655   0.887   2.686 -0.7358 -0.4377  0.3228
35635SOL    HW113955   1.636   0.927   2.771 -1.1774 -1.4087  0.7051
35635SOL    HW213956   1.598   0.810   2.683 -3.0518  1.2289 -2.2025
35636SOL     OW13957   7.913  10.630  11.637  0.6292  0.1939 -0.0829
35636SOL    HW113958   7.834  10.581  11.616  0.3928  1.1070 -1.4548
35636SOL    HW213959   7.886  10.722  11.635  1.7707  0.5296 -0.8182
35637SOL     OW13960   7.412   3.279   3.369 -0.0866 -0.1645  0.3304
35637SOL    HW113961   7.408   3.351   3.433 -0.5383  0.6131 -0.5447
35637SOL    HW213962   7.454   3.318   3.293 -0.5215 -0.7758 -0.2278
35638SOL     OW13963   0.483   9.446   7.634  0.4522  0.3662  0.2423
35638SOL    HW113964   0.460   9.353   7.632 -0.0344  0.4815  0.3542
35638SOL    HW213965   0.405   9.489   7.671  0.7119  0.8049  0.2827
35639SOL     OW13966   2.708   8.618   2.728 -0.5854  0.2629 -0.1550
35639SOL    HW113967   2.700   8.648   2.637 -0.1704  0.8475 -0.0054
35639SOL    HW213968   2.802   8.608   2.741 -0.7131 -1.0989 -0.1882
35640SOL     OW13969   9.652   9.723   6.363  0.3501 -0.2478 -0.2441
35640SOL    HW113970   9.585   9.712   6.430  0.7867 -0.0630  0.2361
35640SOL    HW213971   9.612   9.690   6.283 -0.1464 -0.5669  0.1285
35641SOL     OW13972   8.646   9.109  11.772  0.1678 -0.0535 -0.3720
35641SOL    HW113973   8.608   9.061  11.846 -2.1816  0.1165 -1.3621
35641SOL    HW213974   8.687   9.041  11.719 -0.5784 -0.5967 -0.2848
35642SOL     OW13975   5.712  11.780   6.148  0.4846 -0.2834 -0.4524
35642SOL    HW113976   5.690  11.832   6.071 -0.8381  0.5152  0.4201
35642SOL    HW213977   5.765  11.708   6.114  0.3185  0.3028 -2.0310
35643SOL     OW13978   1.563   4.379   8.291 -0.0235  0.3397 -0.1613
35643SOL    HW113979   1.496   4.312   8.306 -0.7297  0.7230 -1.4738
35643SOL    HW213980   1.645   4.337   8.318 -0.5228 -0.8569 -0.4373
35644SOL     OW13981   4.211  12.369   2.765  0.7384  0.4686  0.2820
35644SOL    HW113982   4.198  12.325   2.680  1.6904 -1.0181  0.8531
35644SOL    HW213983   4.177  12.306   2.829  1.8704  0.6819  1.1145
35645SOL     OW13984   8.195   9.089   1.192 -0.3136  0.1372 -0.1888
35645SOL    HW113985   8.169   9.178   1.170  1.4049  0.5175 -0.8339
35645SOL    HW213986   8.113   9.045   1.213 -1.5419  1.1402 -2.4632
35646SOL     OW13987   0.204   9.132   5.202 -0.0367  0.5508 -0.1688
35646SOL    HW113988   0.229   9.042   5.224 -0.5875  0.6269  0.8489
35646SOL    HW213989   0.193   9.175   5.287 -0.7127  1.3185 -0.6311
35647SOL     OW13990   8.280  10.208  11.180  0.3636  0.4819 -0.1758
35647SOL    HW113991   8.356  10.221  11.237  3.1793 -2.0686 -2.9196
35647SOL    HW213992   8.211  10.177  11.238  1.7708  1.6674  2.2872
35648SOL     OW13993   0.747   3.741   4.470  0.2378  0.3138 -0.1699
35648SOL    HW113994   0.775   3.823   4.511 -0.8082  1.0785 -0.9353
35648SOL    HW213995   0.655   3.731   4.496 -0.1138  0.2272 -1.3787
35649SOL     OW13996   3.040   1.438   5.870  0.1887 -0.1789  0.2287
35649SOL    HW113997   3.003   1.513   5.824 -0.8253 -1.0842 -0.4700
35649SOL    HW213998   3.125   1.423   5.828  0.6068  0.8261  0.6756
35650SOL     OW13999   3.169  12.053   3.047  0.0902 -0.5757 -0.2675
35650SOL    HW114000   3.130  12.126   3.095  1.5180 -0.0351  0.1152
35650SOL    HW214001   3.108  11.980   3.061 -0.1529 -0.0975  1.3259
35651SOL     OW14002   4.472   5.221   4.111 -0.3331  0.0886 -0.0196
35651SOL    HW114003   4.376   5.223   4.115 -0.3152 -0.0328  0.4378
35651SOL    HW214004   4.493   5.281   4.040 -0.7665 -0.1836 -0.3880
35652SOL     OW14005   0.904   9.459   3.098 -0.4029 -0.2132 -0.2735
35652SOL    HW114006   0.926   9.366   3.100  3.2055  0.4140 -1.9684
35652SOL    HW214007   0.888   9.478   3.005 -0.8195  0.9248  0.0169
35653SOL     OW14008   0.730   7.025   2.724 -0.0766 -0.3787 -0.3219
35653SOL    HW114009   0.654   7.075   2.693  1.0759  0.9938 -1.0541
35653SOL    HW214010   0.795   7.034   2.654  0.6671 -1.7818  0.1526
35654SOL     OW14011   1.740   4.389   7.446  0.0401  0.2656 -0.2676
35654SOL    HW114012   1.782   4.369   7.363 -2.2939  0.2335 -1.5124
35654SOL    HW214013   1.738   4.306   7.493  0.2751  0.0115 -0.7088
35655SOL     OW14014   4.504  10.696   4.147  0.0752 -0.1382 -0.1308
35655SOL    HW114015   4.468  10.631   4.086 -0.6953  1.6959 -1.7250
35655SOL    HW214016   4.433  10.711   4.210 -0.3154  0.2359 -0.6507
35656SOL     OW14017   3.680   2.697   5.734  0.0934  0.2016 -0.1669
35656SOL    HW114018   3.602   2.697   5.680  0.3114 -1.3371 -0.5376
35656SOL    HW214019   3.649   2.674   5.822  0.2298 -1.5975 -0.5528
35657SOL     OW14020   4.051  10.242  11.732  0.3187  0.1305  0.5080
35657SOL    HW114021   3.963  10.215  11.756  0.1034  0.3811  0.0171
35657SOL    HW214022   4.053  10.336  11.749  0.2531  0.2594 -0.1705
35658SOL     OW14023   0.875   1.095  10.588 -0.3084  0.1838  0.2268
35658SOL    HW114024   0.903   1.023  10.644  0.4717  0.2387 -0.0792
35658SOL    HW214025   0.784   1.111  10.612  0.0107  0.2012  1.4576
35659SOL     OW14026   8.935   5.671   3.072 -0.1367 -0.0903 -0.0555
35659SOL    HW114027   8.895   5.616   3.004  1.4195 -0.3926 -0.7529
35659SOL    HW214028   8.865   5.683   3.136 -1.6835  0.2464 -1.7126
35660SOL     OW14029   7.400   5.740   6.533 -0.6803 -0.1800 -0.4095
35660SOL    HW114030   7.322   5.775   6.575 -0.6900 -0.6375 -0.0403
35660SOL    HW214031   7.435   5.814   6.482 -0.1558  0.6691  1.1040
35661SOL     OW14032  12.059   9.697  10.273 -0.3714 -0.5016  0.1222
35661SOL    HW114033  12.081   9.638  10.202 -1.7013  0.6546 -1.3280
35661SOL    HW214034  11.977   9.663  10.308 -3.2161  2.2484 -3.1165
35662SOL     OW14035  10.763   6.283  11.441  0.5671  0.1430  0.2510
35662SOL    HW114036  10.713   6.303  11.520  1.2528 -1.3676  1.1106
35662SOL    HW214037  10.792   6.193  11.453 -1.6839 -1.1871 -3.0354
35663SOL     OW14038   7.033  12.426   5.653  0.2065  0.3581  0.3053
35663SOL    HW114039   7.029  12.350   5.595 -1.4487  0.7522 -0.1408
35663SOL    HW214040   7.073  12.393   5.734 -0.5125 -0.9870  0.1281
35664SOL     OW14041   9.825   2.372   4.036  0.3937  0.0908 -0.4259
35664SOL    HW114042   9.783   2.365   4.122  0.0972  0.6684 -0.5194
35664SOL    HW214043   9.839   2.281   4.009 -0.1491 -0.1000 -0.0793
35665SOL     OW14044   6.703   0.649   4.288  0.3247 -0.3199 -0.8955
35665SOL    HW114045   6.748   0.567   4.308  0.0808 -0.6063 -1.5053
35665SOL    HW214046   6.610   0.626   4.288  0.1067  0.3645  0.8200
35666SOL     OW14047   5.496  10.985   2.359 -0.0083  0.7162  0.1334
35666SOL    HW114048   5.478  10.946   2.273 -1.3273 -1.1574  1.1817
35666SOL    HW214049   5.577  11.035   2.346  1.7463 -2.2274 -1.4221
35667SOL     OW14050   0.794   0.206   9.322  0.2274  0.2430  0.1660
35667SOL    HW114051   0.771   0.142   9.389  0.8751  0.5464  0.6926
35667SOL    HW214052   0.848   0.271   9.368  1.0630  0.2154 -0.7450
35668SOL     OW14053  10.916   0.110   8.237  0.4854 -0.5753  0.2370
35668SOL    HW114054  10.949   0.112   8.326  1.6228  0.9917 -0.1838
35668SOL    HW214055  10.827   0.075   8.245  0.2851  0.2646  2.0808
35669SOL     OW14056   0.137  10.166   6.123  0.3911  0.1742  0.1709
35669SOL    HW114057   0.098  10.183   6.037  0.0723 -2.0181 -0.1690
35669SOL    HW214058   0.076  10.207   6.185  0.6369  1.8035 -0.5981
35670SOL     OW14059   5.984   9.195   9.228 -0.3367  0.5390  0.8094
35670SOL    HW114060   5.903   9.241   9.205 -0.2437  1.4520  2.2236
35670SOL    HW214061   6.038   9.204   9.150 -0.8114  1.7458  0.5851
35671SOL     OW14062   6.825   8.023   9.695  0.0447  0.0772 -0.3628
35671SOL    HW114063   6.917   8.050   9.686  0.7093 -1.9795 -0.3403
35671SOL    HW214064   6.776   8.088   9.645  1.5599  1.0131 -0.6909
35672SOL     OW14065   5.535   4.460   5.872  0.4565  0.2884 -0.3922
35672SOL    HW114066   5.515   4.432   5.782 -3.1807  0.6000  0.1728
35672SOL    HW214067   5.586   4.388   5.908  0.6990 -0.5379 -2.2466
35673SOL     OW14068   0.811   0.172   6.719  0.1359 -0.1114 -0.0638
35673SOL    HW114069   0.819   0.268   6.719  0.0878 -0.1071 -0.2098
35673SOL    HW214070   0.895   0.142   6.683  0.5650 -0.1624  0.9430
35674SOL     OW14071  12.050   8.454  11.070 -0.4700 -0.0764  0.0390
35674SOL    HW114072  12.057   8.493  11.157 -1.6561  1.0337 -0.3319
35674SOL    HW214073  12.140   8.451  11.038 -0.3019  2.4668  0.0765
35675SOL     OW14074   6.461  10.403  11.771 -0.1007  0.0719 -0.6415
35675SOL    HW114075   6.533  10.430  11.828  0.4473 -0.7177 -0.9443
35675SOL    HW214076   6.446  10.311  11.793 -0.7190  0.1035 -0.9048
35676SOL     OW14077   6.061   4.728  10.318  0.3842 -0.2526  0.0629
35676SOL    HW114078   6.129   4.795  10.323 -1.2404  1.5195 -0.2128
35676SOL    HW214079   5.982   4.776  10.292 -0.7660 -2.3719 -0.5805
35677SOL     OW14080  12.475   5.708   7.751  0.5016  0.5687  0.4447
35677SOL    HW114081  12.461   5.638   7.815  1.1465  1.7693  1.9761
35677SOL    HW214082  12.387   5.742   7.734  0.2976  0.0856  0.5078
35678SOL     OW14083   3.576   9.184   0.893  0.2443  0.2607 -0.0820
35678SOL    HW114084   3.493   9.140   0.873  0.9735 -1.0817 -0.2434
35678SOL    HW214085   3.599   9.153   0.981  1.0457 -0.1355 -0.4222
35679SOL     OW14086   9.463  11.008   7.958  0.5408  0.1493 -0.4591
35679SOL    HW114087   9.422  11.063   7.891  1.5271  0.3624 -0.9065
35679SOL    HW214088   9.430  11.043   8.040 -0.9109 -0.2948 -0.8131
35680SOL     OW14089   0.188   9.405  11.490  0.2030 -0.5543  0.0099
35680SOL    HW114090   0.119   9.397  11.556  0.7934 -1.4530  0.5451
35680SOL    HW214091   0.141   9.400  11.406 -0.3694 -1.5668  0.3649
35681SOL     OW14092   5.442  12.196   6.219  0.0547  0.5798  0.1363
35681SOL    HW114093   5.393  12.118   6.244  0.1082  0.5261  0.0741
35681SOL    HW214094   5.455  12.187   6.125 -0.7137  1.0998 -0.0307
35682SOL     OW14095   7.354   9.345   9.007 -0.3852  0.0444  0.5548
35682SOL    HW114096   7.286   9.294   8.964 -2.1696  0.7341  2.4047
35682SOL    HW214097   7.395   9.395   8.936 -2.9793  0.9024 -0.4694
35683SOL     OW14098   5.201   8.027  10.227  0.1361  0.0239  0.1881
35683SOL    HW114099   5.150   7.964  10.176 -0.3724 -1.0100  1.8829
35683SOL    HW214100   5.274   7.976  10.262 -0.0036  0.4845  1.1798
35684SOL     OW14101   2.151   4.580   1.195  0.2836 -0.0449 -0.5176
35684SOL    HW114102   2.142   4.561   1.289 -0.2647 -1.6686 -0.8538
35684SOL    HW214103   2.062   4.575   1.161  0.5212  0.1639 -1.1936
35685SOL     OW14104   9.366   2.910  12.527  0.2095  0.0894 -0.1186
35685SOL    HW114105   9.377   2.964  12.449  1.4673  1.0147  0.6684
35685SOL    HW214106   9.276   2.928  12.556  0.6644  1.9449  0.2463
35686SOL     OW14107   3.003   0.007   0.075  0.1815  0.5023  0.1005
35686SOL    HW114108   3.059  -0.037   0.011 -1.1769  1.6616 -2.0410
35686SOL    HW214109   2.954  -0.064   0.118  0.6080 -0.2807 -0.6842
35687SOL     OW14110   8.346   1.156   8.548 -0.2833 -0.4795  0.2303
35687SOL    HW114111   8.267   1.111   8.517  0.4333 -1.7978  0.2443
35687SOL    HW214112   8.335   1.246   8.518 -0.5010 -1.2511 -2.2515
35688SOL     OW14113  10.885   3.670   7.504  0.7474  0.1187 -0.3355
35688SOL    HW114114  10.792   3.648   7.494  0.4036  1.1070  0.5332
35688SOL    HW214115  10.915   3.615   7.576  0.1073  1.7685  1.2553
35689SOL     OW14116   4.263   0.053  10.217  0.4385 -0.1176  0.0567
35689SOL    HW114117   4.354   0.024  10.218  1.1991  2.0167 -0.7757
35689SOL    HW214118   4.267   0.144  10.247 -1.6722 -0.5296  1.7496
35690SOL     OW14119   0.467   9.824   9.632 -0.1873 -0.8203  0.1576
35690SOL    HW114120   0.410   9.901   9.646  0.3623 -0.7366  2.1877
35690SOL    HW214121   0.546   9.843   9.683 -0.0436 -2.7281  0.7145
35691SOL     OW14122   7.433   1.723   4.904  0.5245  0.3549  0.2606
35691SOL    HW114123   7.418   1.631   4.882  0.2623  0.3247  0.5759
35691SOL    HW214124   7.528   1.728   4.919  0.8232  0.4895 -1.4300
35692SOL     OW14125   1.092   5.481   6.408 -0.0359  0.4374  0.2260
35692SOL    HW114126   1.116   5.477   6.501 -0.0980  0.0257  0.2262
35692SOL    HW214127   1.175   5.469   6.361 -0.0917 -0.0176  0.2313
35693SOL     OW14128   0.680   9.312   9.481  0.0697  0.4571 -0.0376
35693SOL    HW114129   0.756   9.344   9.432 -0.1864 -0.8388 -1.3440
35693SOL    HW214130   0.624   9.389   9.492  2.0020  1.7272  1.9397
35694SOL     OW14131  12.238   1.921  11.504  0.0558 -0.0475 -0.1620
35694SOL    HW114132  12.180   1.848  11.482  0.3290  0.1979 -1.8682
35694SOL    HW214133  12.198   1.997  11.461  1.3035  0.2361 -0.8760
35695SOL     OW14134   0.218   5.127   5.682 -0.2636 -0.5760  0.1833
35695SOL    HW114135   0.145   5.111   5.742 -0.1736 -1.5098  0.0626
35695SOL    HW214136   0.245   5.217   5.699  1.0365 -1.3805  2.9547
35696SOL     OW14137   7.307   5.332   3.243  0.5537  0.6924  0.3046
35696SOL    HW114138   7.242   5.305   3.308  1.2916 -1.6177  0.1822
35696SOL    HW214139   7.257   5.341   3.162  0.3650 -1.4089  0.1288
35697SOL     OW14140  10.719   3.155   3.991 -0.1114  0.0024  0.0900
35697SOL    HW114141  10.667   3.228   4.026 -0.6859  0.6929 -2.0759
35697SOL    HW214142  10.699   3.082   4.050 -3.4508  0.2706 -0.4752
35698SOL     OW14143   8.490   2.470   0.320  0.0464  0.3895  0.3285
35698SOL    HW114144   8.404   2.501   0.349 -0.5668 -0.1194 -0.8528
35698SOL    HW214145   8.513   2.527   0.247  0.1520 -0.2385 -0.1324
35699SOL     OW14146   1.197   2.343   9.542  1.0743  0.1762  0.4093
35699SOL    HW114147   1.129   2.407   9.562  0.1839 -1.1524  1.7757
35699SOL    HW214148   1.264   2.394   9.495 -0.2835  1.7627  0.1018
35700SOL     OW14149   6.851   4.913   3.109  0.6406 -0.6052 -0.2898
35700SOL    HW114150   6.902   4.975   3.057 -0.7216  0.1743 -0.7466
35700SOL    HW214151   6.867   4.939   3.200  0.6258 -0.0172 -0.4512
35701SOL     OW14152  12.206   0.230   0.127  0.3876 -0.5711 -0.6514
35701SOL    HW114153  12.272   0.161   0.134  1.6316  0.6138 -0.2126
35701SOL    HW214154  12.256   0.308   0.102 -0.2902  1.0988  2.6812
35702SOL     OW14155   4.620   5.184   0.052  0.0206  0.1501 -0.0855
35702SOL    HW114156   4.602   5.221   0.138  0.3187  0.0014  0.0417
35702SOL    HW214157   4.661   5.100   0.070 -0.0438  0.0558 -0.3740
35703SOL     OW14158   1.766   5.607  10.183 -0.4321  0.0724 -0.0108
35703SOL    HW114159   1.725   5.550  10.248 -1.0652  0.1150 -0.3739
35703SOL    HW214160   1.836   5.554  10.145  1.4329  0.7416  2.2297
35704SOL     OW14161   5.239   7.378   0.488  0.2621  0.1950  0.5254
35704SOL    HW114162   5.209   7.330   0.565 -0.5809  0.5057  0.3956
35704SOL    HW214163   5.160   7.414   0.450  0.9138  2.0785  0.8680
35705SOL     OW14164   6.532   4.153   1.329  0.2789  0.2860 -0.1056
35705SOL    HW114165   6.619   4.122   1.351 -0.1474  0.3155  1.7909
35705SOL    HW214166   6.476   4.076   1.340 -0.2625  0.8212  1.1704
35706SOL     OW14167   9.075   2.147   1.241 -0.3701 -0.2508 -0.1779
35706SOL    HW114168   9.160   2.173   1.204 -0.7899 -1.8475 -2.4587
35706SOL    HW214169   9.096   2.118   1.330  1.0130  1.8288  0.2571
35707SOL     OW14170   1.141   7.044   3.506  0.2140  0.0467 -0.1129
35707SOL    HW114171   1.098   7.125   3.479  2.0172  0.8837 -0.5799
35707SOL    HW214172   1.099   6.976   3.453 -1.7061  0.5525  0.6777
35708SOL     OW14173   3.642   0.931   1.735  0.8112  0.3656  0.0164
35708SOL    HW114174   3.565   0.875   1.720 -0.1210  1.2013  1.4513
35708SOL    HW214175   3.633   1.001   1.670 -0.1408  0.9436  0.7570
35709SOL     OW14176  10.716   8.266   2.163  0.5315 -0.4148  0.0946
35709SOL    HW114177  10.653   8.256   2.234  0.8853 -2.2759  0.2188
35709SOL    HW214178  10.796   8.226   2.198  1.0332 -0.3529 -0.9574
35710SOL     OW14179   8.627   2.658   8.911 -0.0013 -0.5087 -0.1535
35710SOL    HW114180   8.620   2.565   8.891 -0.7160 -0.5202  0.1202
35710SOL    HW214181   8.566   2.701   8.850 -1.5324 -0.4666  1.3284
35711SOL     OW14182   4.786  12.546   0.006 -0.0683  0.7113  0.4611
35711SOL    HW114183   4.710  12.585  -0.039 -1.6137 -1.7332  0.7704
35711SOL    HW214184   4.859  12.562  -0.053 -0.9676  2.3666 -0.2812
35712SOL     OW14185  12.580   0.700   2.018  0.8469  1.0939 -0.4235
35712SOL    HW114186  12.611   0.609   2.012 -0.8771  0.4682 -0.2980
35712SOL    HW214187  12.521   0.710   1.944 -2.1331  0.7733  1.7308
35713SOL     OW14188   9.740  12.406  11.241  0.2239 -0.6434 -0.1683
35713SOL    HW114189   9.760  12.461  11.166  0.9753  0.0125  0.4829
35713SOL    HW214190   9.650  12.428  11.265  1.0426  1.6761  1.1494
35714SOL     OW14191   4.979   5.616   9.085 -0.1200  0.3457  0.9609
35714SOL    HW114192   5.066   5.602   9.048 -1.0644 -0.8338 -0.9283
35714SOL    HW214193   4.967   5.711   9.083  1.1786  0.5441  1.4678
35715SOL     OW14194   1.105   6.959   4.866 -0.0959  0.3218 -0.7884
35715SOL    HW114195   1.133   6.900   4.796  1.1866  0.0308 -0.0713
35715SOL    HW214196   1.047   7.022   4.824  0.3191 -0.0974 -2.0179
35716SOL     OW14197   1.779  12.082  10.755  0.1148  0.3930  0.2235
35716SOL    HW114198   1.698  12.129  10.774  0.6390  0.9087  1.2424
35716SOL    HW214199   1.790  12.021  10.828  0.4302  0.0377 -0.1158
35717SOL     OW14200   9.756   1.554   9.447  0.4821 -0.0983 -0.3543
35717SOL    HW114201   9.734   1.510   9.529 -0.8035 -1.7875 -1.5404
35717SOL    HW214202   9.844   1.589   9.461  0.1343  0.0024  1.8531
35718SOL     OW14203  11.386   0.384  10.642 -0.0913  0.2414 -0.0625
35718SOL    HW114204  11.412   0.293  10.656 -0.3720  0.1231 -0.2882
35718SOL    HW214205  11.300   0.377  10.600 -0.5970  0.6148  0.8773
35719SOL     OW14206  11.239   2.941   4.162 -0.4114 -0.1384 -0.4488
35719SOL    HW114207  11.282   2.858   4.143  1.1112  0.3539  0.6575
35719SOL    HW214208  11.198   2.928   4.247 -0.0705  0.2651 -0.2182
35720SOL     OW14209   0.631   6.448   0.539  0.1281  0.1315  0.0498
35720SOL    HW114210   0.686   6.409   0.607  1.2018  0.8367 -0.3892
35720SOL    HW214211   0.642   6.542   0.549 -0.7310  0.2780 -0.2766
35721SOL     OW14212   6.599   0.726   6.194 -1.0311  0.2187 -0.3215
35721SOL    HW114213   6.563   0.638   6.188 -0.1130 -0.1052 -1.3043
35721SOL    HW214214   6.562   0.761   6.275 -2.3962 -0.6041 -0.5638
35722SOL     OW14215   3.421   6.732  12.463  0.2630  0.5377  0.0545
35722SOL    HW114216   3.339   6.696  12.429  0.8757 -1.4446  0.5628
35722SOL    HW214217   3.490   6.678  12.422  1.0839 -1.2567  3.4570
35723SOL     OW14218   7.644   4.884  11.293 -0.4260  0.6372 -0.3019
35723SOL    HW114219   7.571   4.923  11.342 -0.7250  0.2193 -0.4078
35723SOL    HW214220   7.715   4.879  11.356 -1.1175 -0.8479  0.4027
35724SOL     OW14221   7.248   5.818   3.917 -0.0636  0.3740 -0.2329
35724SOL    HW114222   7.225   5.773   3.999  0.4805  0.4436 -0.0348
35724SOL    HW214223   7.295   5.897   3.946  0.2348  0.3385 -0.6178
35725SOL     OW14224  11.114   6.298   0.677  0.4076  0.2555  0.2764
35725SOL    HW114225  11.208   6.316   0.686  0.7845 -0.1764 -2.2202
35725SOL    HW214226  11.108   6.203   0.670 -0.3740  0.1842  1.4912
35726SOL     OW14227   7.864   6.583   4.502 -0.1278  0.3558  0.0064
35726SOL    HW114228   7.789   6.644   4.502 -0.7259 -0.3258 -1.4868
35726SOL    HW214229   7.830   6.504   4.544  0.0588  0.3664  0.1793
35727SOL     OW14230   2.659   7.674   1.073 -1.1933  0.2716 -0.7531
35727SOL    HW114231   2.719   7.664   1.147 -0.3541 -0.7866 -1.5484
35727SOL    HW214232   2.572   7.659   1.110 -1.1320  2.6846  0.6025
35728SOL     OW14233   5.872  11.363   7.122  0.5885  0.0964 -0.1939
35728SOL    HW114234   5.883  11.374   7.216  1.3464 -1.2191 -0.1040
35728SOL    HW214235   5.958  11.384   7.085  0.0577  1.5156 -0.7139
35729SOL     OW14236   3.465   8.693  10.486  0.4542  0.2492 -0.0879
35729SOL    HW114237   3.551   8.651  10.490 -0.0043 -0.6160  1.1337
35729SOL    HW214238   3.427   8.678  10.572 -2.3875 -2.5325 -1.6249
35730SOL     OW14239   8.630   5.312  12.008 -0.0004 -0.1787 -0.0034
35730SOL    HW114240   8.649   5.319  11.915 -0.1431 -1.5948 -0.1608
35730SOL    HW214241   8.716   5.300  12.049  0.1965  1.7213  0.2165
35731SOL     OW14242  12.436   4.884   0.447 -0.0213  0.0021 -0.4237
35731SOL    HW114243  12.517   4.897   0.497 -0.0224  0.7301 -0.6095
35731SOL    HW214244  12.432   4.789   0.434  0.4030 -0.1147  0.2479
35732SOL     OW14245  10.001   2.369   9.472 -0.0686  0.0256 -0.0101
35732SOL    HW114246  10.044   2.285   9.488 -2.3798 -1.4566 -0.9796
35732SOL    HW214247   9.927   2.370   9.532 -0.3901  1.1176 -0.3998
35733SOL     OW14248   9.008  11.306   0.033 -0.5432  0.9178  0.6587
35733SOL    HW114249   9.060  11.385   0.047 -2.6017  2.4656  0.0796
35733SOL    HW214250   8.923  11.338   0.003 -1.1065 -1.5730 -0.7233
35734SOL     OW14251  11.395  11.769   7.479  0.2676  0.0089 -0.5380
35734SOL    HW114252  11.409  11.677   7.457 -1.1447  0.0864 -1.9280
35734SOL    HW214253  11.479  11.811   7.462  0.0779 -0.4862 -3.1153
35735SOL     OW14254   4.761   7.191   1.624  0.3461 -0.7806  0.0603
35735SOL    HW114255   4.767   7.278   1.663 -1.4493 -1.2832  1.5822
35735SOL    HW214256   4.732   7.207   1.534  1.0411  0.2107 -0.0097
35736SOL     OW14257   1.222   4.206   4.461 -0.1366  0.0705 -0.1110
35736SOL    HW114258   1.255   4.126   4.421  0.7729  0.3917 -0.0106
35736SOL    HW214259   1.171   4.248   4.392  1.0008  0.3671 -0.7868
35737SOL     OW14260  11.174   1.150   7.580 -0.3365 -0.2548 -0.3126
35737SOL    HW114261  11.235   1.088   7.619 -0.5497 -0.3121 -0.0589
35737SOL    HW214262  11.198   1.154   7.488 -0.5759 -1.0201 -0.4166
35738SOL     OW14263   3.294   1.741   0.728 -0.0090  0.2172 -0.1204
35738SOL    HW114264   3.234   1.704   0.793 -1.3152  1.4074 -0.6013
35738SOL    HW214265   3.331   1.818   0.771 -1.0406  1.1326 -0.8173
35739SOL     OW14266   9.117   3.771   4.150  0.0258  0.0961  0.2990
35739SOL    HW114267   9.098   3.730   4.065  0.0347  0.1205  0.2856
35739SOL    HW214268   9.209   3.794   4.146 -0.7555  3.5773 -1.1692
35740SOL     OW14269   6.578   3.278   6.993  0.7696 -0.0167  0.4186
35740SOL    HW114270   6.627   3.253   6.914  0.5717 -1.9714  0.8604
35740SOL    HW214271   6.644   3.281   7.062  0.5767 -0.7231  0.6378
35741SOL     OW14272   3.479   5.221   9.216 -0.2739 -0.0774 -0.1483
35741SOL    HW114273   3.556   5.178   9.253  0.4285  0.2070 -1.2494
35741SOL    HW214274   3.508   5.310   9.195 -1.0115  0.1530 -0.2405
35742SOL     OW14275   9.580   6.403   9.742 -0.4832  0.0254  0.3133
35742SOL    HW114276   9.527   6.327   9.718  0.3647  0.1346 -2.1898
35742SOL    HW214277   9.664   6.366   9.771 -0.4270 -0.0140  0.0968
35743SOL     OW14278   6.476   2.511   8.807  0.1142 -0.1313 -0.2517
35743SOL    HW114279   6.563   2.547   8.822 -0.1599  0.0597  0.9547
35743SOL    HW214280   6.492   2.431   8.757  0.9840 -0.0895 -0.0646
35744SOL     OW14281   1.643   0.602  10.012 -0.1974 -0.7230 -0.3545
35744SOL    HW114282   1.702   0.670  10.045  0.4932 -0.9624 -1.0837
35744SOL    HW214283   1.700   0.536   9.975 -0.8693 -1.7005  0.3038
35745SOL     OW14284   5.639   0.171   0.949 -0.1072  0.6275  0.3100
35745SOL    HW114285   5.675   0.100   1.002  0.6146  1.7158  1.3150
35745SOL    HW214286   5.703   0.183   0.879  1.5307  2.4004  1.9591
35746SOL     OW14287   7.763   3.680  11.888  0.2292 -0.5294  0.0294
35746SOL    HW114288   7.726   3.674  11.800  0.0981  0.2770  0.0203
35746SOL    HW214289   7.757   3.592  11.923 -0.1746 -0.7519 -0.5913
35747SOL     OW14290   0.198   9.174   9.444 -0.2327  0.2322 -0.1748
35747SOL    HW114291   0.241   9.168   9.529 -1.9894  0.5908  0.7894
35747SOL    HW214292   0.158   9.261   9.443 -0.2128  0.2512 -1.3877
35748SOL     OW14293   9.898   4.915   2.946  0.0802  0.2359  0.2440
35748SOL    HW114294   9.973   4.972   2.929  1.6157 -1.6345  0.3853
35748SOL    HW214295   9.821   4.967   2.921  1.3907  2.2999  0.3291
35749SOL     OW14296   8.883   4.704   0.474 -0.2117 -0.2094  0.1091
35749SOL    HW114297   8.921   4.767   0.414  0.4902  0.3406  1.0997
35749SOL    HW214298   8.879   4.622   0.425  0.1156  0.2876 -0.7533
35750SOL     OW14299   9.338   6.798  11.239  0.3394  0.0751 -0.3287
35750SOL    HW114300   9.307   6.730  11.179 -0.4493  0.3743 -0.2833
35750SOL    HW214301   9.324   6.880  11.191  0.1464  0.2823  0.0779
35751SOL     OW14302  11.031   9.305  12.299  0.5019 -0.2475 -0.0806
35751SOL    HW114303  11.126   9.288  12.301  0.5291 -0.1570 -0.5045
35751SOL    HW214304  10.994   9.240  12.359  0.7005 -1.1564 -0.9158
35752SOL     OW14305  11.305   8.097   3.035 -0.1158 -0.1753  0.4194
35752SOL    HW114306  11.279   8.008   3.058  0.5497 -0.9290 -1.5312
35752SOL    HW214307  11.390   8.109   3.080  0.9428 -1.4370 -1.1322
35753SOL     OW14308  11.238   3.439   8.430  0.2252 -0.2376  0.1499
35753SOL    HW114309  11.154   3.482   8.440  0.4977  0.1718  0.6698
35753SOL    HW214310  11.279   3.483   8.355  0.4679  0.3559  0.6261
35754SOL     OW14311   2.715   5.172  11.184 -0.4956 -0.2065  0.6923
35754SOL    HW114312   2.683   5.188  11.273  1.6583 -3.1599  2.1597
35754SOL    HW214313   2.802   5.211  11.183  0.3248 -1.9677  0.6479
35755SOL     OW14314   2.949  10.282   6.735 -0.2792  0.6357 -0.6054
35755SOL    HW114315   2.918  10.192   6.747 -2.4158  1.2766 -0.8707
35755SOL    HW214316   3.042  10.279   6.758 -0.3222 -1.6054 -0.5201
35756SOL     OW14317  11.676  10.481   9.673 -0.0630  0.5442  0.2867
35756SOL    HW114318  11.589  10.476   9.712 -0.1512 -0.2974 -0.0046
35756SOL    HW214319  11.668  10.550   9.607 -0.2641  1.0750  0.8559
35757SOL     OW14320  10.163   0.178   3.984  0.0414 -0.1031 -0.2434
35757SOL    HW114321  10.246   0.205   4.023 -0.5365 -0.6396  1.4239
35757SOL    HW214322  10.148   0.242   3.914  0.8553  1.2269  0.7580
35758SOL     OW14323  11.962  11.569   4.296 -0.4964  0.1134  0.0202
35758SOL    HW114324  11.932  11.509   4.365 -1.1489  0.9983  0.5157
35758SOL    HW214325  11.884  11.618   4.271 -0.3573 -0.4090 -1.6060
35759SOL     OW14326   3.681   5.407  10.215 -0.2888 -0.2175 -0.3286
35759SOL    HW114327   3.720   5.409  10.128  0.5459 -0.9770  0.0222
35759SOL    HW214328   3.625   5.329  10.215  0.0262 -0.4430 -0.0481
35760SOL     OW14329   9.848   2.248   2.694  0.0773 -0.0723  0.0241
35760SOL    HW114330   9.762   2.286   2.676 -0.6749 -1.4755  0.5162
35760SOL    HW214331   9.843   2.159   2.660  0.9627 -0.5368  1.0332
35761SOL     OW14332   1.688   6.493  12.411  0.6716 -0.6019 -0.1704
35761SOL    HW114333   1.701   6.480  12.505 -0.4594 -0.3687  0.0248
35761SOL    HW214334   1.757   6.554  12.386  1.3916 -1.1700  0.3694
35762SOL     OW14335   6.621   7.797   0.655  0.3628 -0.0887  0.5538
35762SOL    HW114336   6.538   7.833   0.623  0.2954  0.8100  1.6790
35762SOL    HW214337   6.663   7.870   0.700  2.9031  0.1989 -1.9882
35763SOL     OW14338   1.870   3.442  10.102 -0.0947  0.4751  0.6801
35763SOL    HW114339   1.796   3.415  10.155  0.1878 -1.0145  0.3550
35763SOL    HW214340   1.870   3.382  10.027  0.4802  1.4843 -0.1688
35764SOL     OW14341   8.289   4.129   8.942  0.6572 -0.9036 -0.2204
35764SOL    HW114342   8.295   4.108   8.849 -1.0163 -0.2187 -0.5204
35764SOL    HW214343   8.208   4.087   8.972 -0.8588  1.8607 -0.0118
35765SOL     OW14344   2.159   9.304   2.305 -0.1409  0.5628 -0.6019
35765SOL    HW114345   2.249   9.272   2.306  0.4502  2.1085  0.1358
35765SOL    HW214346   2.167   9.398   2.288 -1.3787  1.2416  1.9900
35766SOL     OW14347   4.923   6.302   1.798  0.2268 -0.0543 -0.2452
35766SOL    HW114348   4.891   6.378   1.847  1.0184  0.1350  0.0010
35766SOL    HW214349   4.948   6.337   1.713  1.0752  0.0767  0.0429
35767SOL     OW14350  12.335   7.821   5.040  0.1593  0.3125 -0.3039
35767SOL    HW114351  12.369   7.732   5.053 -0.2792  0.1334 -0.3636
35767SOL    HW214352  12.242   7.814   5.060  0.2520  0.9144  0.3479
35768SOL     OW14353   2.887  10.893   4.248  0.3143  0.5511  0.0408
35768SOL    HW114354   2.962  10.834   4.254  0.2079  0.4217  0.1036
35768SOL    HW214355   2.921  10.977   4.280  0.3547  0.4205  0.3460
35769SOL     OW14356   7.031   7.000   1.948  0.2329  0.7628 -0.0701
35769SOL    HW114357   7.067   7.083   1.917  0.2829  0.1830 -1.6967
35769SOL    HW214358   6.954   6.986   1.893  0.4602 -0.4509 -0.1033
35770SOL     OW14359   6.961   8.062   6.361 -0.1927 -0.1045 -0.0312
35770SOL    HW114360   6.886   8.024   6.317 -0.4203  0.6771 -0.3399
35770SOL    HW214361   7.035   8.006   6.336 -0.3098  0.3304 -1.4566
35771SOL     OW14362   2.037  11.732   0.660  0.1670 -0.0354 -0.3529
35771SOL    HW114363   2.079  11.653   0.626  1.4291  1.4707 -2.5909
35771SOL    HW214364   1.955  11.739   0.611  0.3457  0.3335 -0.6065
35772SOL     OW14365   1.801  12.462   4.740  0.2963 -0.2682  0.3076
35772SOL    HW114366   1.764  12.470   4.828  0.0885  1.0177  0.1221
35772SOL    HW214367   1.896  12.462   4.753  0.3906  2.9505  0.3919
35773SOL     OW14368   6.144   2.355   0.139 -0.1011 -0.2772  0.5255
35773SOL    HW114369   6.112   2.311   0.218  1.4915  0.8826  1.8683
35773SOL    HW214370   6.200   2.426   0.171  0.5310  0.2931 -1.6551
35774SOL     OW14371   4.969   0.043   0.938 -0.1666  0.0832 -0.1208
35774SOL    HW114372   4.923   0.109   0.990  0.7657 -0.1213  1.0009
35774SOL    HW214373   5.017   0.093   0.872 -0.1167  0.4585  0.2028
35775SOL     OW14374   0.895   0.055   8.400 -0.1460 -0.3000  0.1443
35775SOL    HW114375   0.931  -0.028   8.371  1.9874  0.7967 -0.5463
35775SOL    HW214376   0.904   0.053   8.496  0.1645 -0.7272  0.1063
35776SOL     OW14377   6.017   3.527   1.318 -0.2253  0.0434 -0.1515
35776SOL    HW114378   6.065   3.458   1.272 -1.3897 -0.4279 -0.7256
35776SOL    HW214379   5.939   3.482   1.351 -0.2862  0.7840  0.7208
35777SOL     OW14380   9.714   8.989  11.419 -0.2139 -0.0263  0.1538
35777SOL    HW114381   9.735   8.986  11.326  0.5222  1.0972  0.2712
35777SOL    HW214382   9.649   8.919  11.431  0.4704 -0.9056 -0.9890
35778SOL     OW14383  12.037  10.159   3.810  0.0764  0.3208  0.2420
35778SOL    HW114384  11.970  10.210   3.765  0.5124  0.8257  0.1647
35778SOL    HW214385  12.009  10.159   3.902 -0.0799  0.4492  0.1944
35779SOL     OW14386   8.349   6.974   6.290  0.7087 -0.1269 -0.2323
35779SOL    HW114387   8.363   6.954   6.197 -0.3153  0.5668 -0.5538
35779SOL    HW214388   8.311   7.062   6.290  0.2156 -0.3216  0.8083
35780SOL     OW14389   6.383   9.441  10.363 -0.0142  0.6023 -0.2320
35780SOL    HW114390   6.421   9.366  10.408 -0.9719 -0.1629 -0.6687
35780SOL    HW214391   6.414   9.517  10.413 -0.3854 -0.1633  1.2304
35781SOL     OW14392   8.891   7.819   6.274 -0.3378 -0.3836 -0.2142
35781SOL    HW114393   8.898   7.769   6.193  0.8440 -0.9967  0.2347
35781SOL    HW214394   8.957   7.780   6.332  1.1127  2.0715 -0.0466
35782SOL     OW14395   0.515   1.028   0.991  0.3058  0.1495 -0.2687
35782SOL    HW114396   0.476   1.013   1.077 -0.0262  0.7302 -0.3145
35782SOL    HW214397   0.607   1.047   1.010  0.8941 -2.3888 -0.2411
35783SOL     OW14398   4.024   8.441   2.282  0.6725 -0.3455  0.0418
35783SOL    HW114399   4.015   8.463   2.189  2.0987 -0.6626 -0.1869
35783SOL    HW214400   4.106   8.482   2.308  0.6822 -0.9458  0.9678
35784SOL     OW14401   9.317   6.265   5.765 -0.1648  0.2860 -0.0383
35784SOL    HW114402   9.388   6.239   5.824 -1.9215 -0.6719  1.7499
35784SOL    HW214403   9.239   6.267   5.820 -1.8812 -0.5213 -2.2931
35785SOL     OW14404   1.596   4.873   6.205  0.3216  0.4428  0.1150
35785SOL    HW114405   1.598   4.778   6.221  0.0953  0.3942 -0.1483
35785SOL    HW214406   1.673   4.890   6.151  1.2352  0.6441  1.4166
35786SOL     OW14407  10.896   4.872   5.766 -0.0850 -0.1048  0.1093
35786SOL    HW114408  10.827   4.866   5.832 -2.0748 -1.4546 -1.9214
35786SOL    HW214409  10.864   4.936   5.703  0.3084 -1.0015 -1.0585
35787SOL     OW14410   7.355   4.008  11.390 -0.5546 -0.2774  0.0097
35787SOL    HW114411   7.401   4.037  11.311 -0.2573  0.0293  0.2886
35787SOL    HW214412   7.311   3.927  11.364  0.2259 -0.6313 -0.2452
35788SOL     OW14413   4.425   1.018  10.104  0.2812 -0.0809 -0.1924
35788SOL    HW114414   4.409   1.006  10.198 -0.8689 -0.1454 -0.3816
35788SOL    HW214415   4.520   1.005  10.094  0.3978 -0.2033  0.9346
35789SOL     OW14416   9.468  12.206   2.613  0.2527 -0.5150 -0.2428
35789SOL    HW114417   9.537  12.143   2.635 -0.6293 -0.5526  2.9320
35789SOL    HW214418   9.425  12.170   2.536  1.6042 -2.2539 -0.2396
35790SOL     OW14419   1.543  11.240   8.774 -0.2177 -0.4214  0.8730
35790SOL    HW114420   1.606  11.197   8.716 -1.5208 -0.1129 -0.8552
35790SOL    HW214421   1.596  11.300   8.826  1.1342 -1.4234  0.7258
35791SOL     OW14422   2.991   4.430   5.549  0.3943  0.0477 -0.4550
35791SOL    HW114423   3.019   4.413   5.639  1.4838  0.3870 -0.7102
35791SOL    HW214424   3.022   4.354   5.499  0.3141  0.1387 -0.6459
35792SOL     OW14425   7.446   9.322   5.290 -0.1567  0.7710 -0.2457
35792SOL    HW114426   7.401   9.256   5.343  1.0898 -1.8431 -2.2249
35792SOL    HW214427   7.381   9.348   5.224 -0.0198 -0.1384 -0.7607
35793SOL     OW14428   4.478   2.984  10.692  0.2449  0.4456  0.5001
35793SOL    HW114429   4.461   2.947  10.778 -2.1397 -1.9234 -0.8354
35793SOL    HW214430   4.463   2.912  10.631  0.5054  2.3513 -2.0051
35794SOL     OW14431   8.283  11.640   5.869 -0.6139 -0.4941  0.3084
35794SOL    HW114432   8.193  11.607   5.869 -1.2536  1.0036 -1.9764
35794SOL    HW214433   8.322  11.604   5.948 -2.2380 -3.7932 -0.2466
35795SOL     OW14434   5.970  12.544  11.695 -1.0925  0.2051  0.3879
35795SOL    HW114435   5.981  12.564  11.602  0.1420  1.4325  0.7671
35795SOL    HW214436   6.010  12.458  11.705  0.1436  0.7130  0.0380
35796SOL     OW14437   1.644   8.319  11.580 -0.4275 -0.3126 -0.3470
35796SOL    HW114438   1.640   8.414  11.581 -1.4345 -0.3452 -0.3412
35796SOL    HW214439   1.564   8.292  11.536  0.0494 -1.1512 -0.7310
35797SOL     OW14440   1.845  11.765   5.145  0.0265  0.2587 -0.4353
35797SOL    HW114441   1.821  11.745   5.054  1.0659  0.8407 -0.8631
35797SOL    HW214442   1.939  11.750   5.148  0.2425  1.6146  0.1503
35798SOL     OW14443   0.643   8.168  11.234  0.2416  0.2578  0.5946
35798SOL    HW114444   0.559   8.204  11.205 -0.0929 -1.2772 -0.5053
35798SOL    HW214445   0.708   8.206  11.176  0.0947  0.2619  0.4333
35799SOL     OW14446   5.957   2.831   9.626  0.5453  0.1029 -0.2225
35799SOL    HW114447   5.873   2.845   9.583  0.1559  0.7850  0.7336
35799SOL    HW214448   6.014   2.899   9.591  0.7883 -0.5070 -1.0507
35800SOL     OW14449   9.832   3.868   4.449  0.0314 -0.0520 -0.4496
35800SOL    HW114450   9.925   3.850   4.438 -0.1121 -0.3312 -1.2891
35800SOL    HW214451   9.827   3.963   4.464  0.5761 -0.2808  1.3267
35801SOL     OW14452   4.987  10.207   6.436 -0.3886 -0.0094  0.1987
35801SOL    HW114453   5.026  10.158   6.364  0.2922 -1.4108  1.4688
35801SOL    HW214454   4.915  10.152   6.466 -2.0060  1.5106 -0.6602
35802SOL     OW14455   3.135   2.014   1.891  0.0532 -0.0159 -0.3123
35802SOL    HW114456   3.192   2.090   1.902 -0.7562  0.2802  2.4119
35802SOL    HW214457   3.047   2.048   1.903 -0.4274 -1.1615 -0.4962
35803SOL     OW14458   9.322  12.216   2.950 -0.6042 -0.0511 -0.1935
35803SOL    HW114459   9.241  12.168   2.930 -0.5730  0.4064 -1.4808
35803SOL    HW214460   9.384  12.147   2.973 -0.7108 -0.6275 -1.5086
35804SOL     OW14461   2.338   4.234   2.842 -0.1762 -0.1465  0.9315
35804SOL    HW114462   2.419   4.269   2.805 -0.2785  1.9863  2.5557
35804SOL    HW214463   2.359   4.143   2.863  0.9734 -0.3707 -0.9286
35805SOL     OW14464   6.184   3.992   1.143 -0.0444 -0.4083  0.6962
35805SOL    HW114465   6.265   3.972   1.095 -0.5709 -0.2763 -0.2531
35805SOL    HW214466   6.208   3.979   1.235  1.8638  2.2523  0.6796
35806SOL     OW14467   1.344   7.045   1.519 -0.3197  0.4870  0.4299
35806SOL    HW114468   1.377   7.113   1.460  1.3857 -0.6361  0.0005
35806SOL    HW214469   1.404   7.047   1.593  0.5347 -1.2944 -0.1414
35807SOL     OW14470   8.897   6.388   2.740 -0.0702 -0.0519  0.3375
35807SOL    HW114471   8.836   6.458   2.714 -1.3345 -1.2565 -0.0536
35807SOL    HW214472   8.964   6.433   2.791 -0.3438  1.5931 -0.6614
35808SOL     OW14473   0.132   8.710  11.053 -0.4168  0.4420  0.4724
35808SOL    HW114474   0.186   8.662  11.116  0.0519  0.5164  0.1346
35808SOL    HW214475   0.172   8.797  11.049 -0.6039  0.5188  0.2703
35809SOL     OW14476   9.740   7.557  11.291 -0.2917  0.3109 -0.3865
35809SOL    HW114477   9.734   7.467  11.323  1.3595  0.0228 -0.8039
35809SOL    HW214478   9.751   7.548  11.196 -0.2277  0.9583 -0.4419
35810SOL     OW14479   4.410   1.290  11.153  0.2445  0.2375 -0.5198
35810SOL    HW114480   4.428   1.238  11.230  0.1193  2.1136  0.8454
35810SOL    HW214481   4.319   1.271  11.131 -0.2027  0.8127  0.7538
35811SOL     OW14482  11.174   7.494  10.954  0.1497  0.3072  0.2781
35811SOL    HW114483  11.228   7.455  11.022  1.8468 -0.1140 -1.2325
35811SOL    HW214484  11.159   7.584  10.983  1.4419  0.3524  0.8648
35812SOL     OW14485   1.720   5.365   9.543 -0.1854  0.1812  0.0789
35812SOL    HW114486   1.809   5.398   9.547 -0.1357  0.0547  0.0206
35812SOL    HW214487   1.669   5.438   9.507 -0.1025  0.2474  0.0965
35813SOL     OW14488  10.061   4.918  11.762 -0.0556 -0.1024 -0.2368
35813SOL    HW114489  10.143   4.881  11.794 -0.2071 -1.8873 -1.7302
35813SOL    HW214490  10.004   4.842  11.750 -2.0443  1.1022  0.9659
35814SOL     OW14491   8.762  10.632   3.430  0.1390 -0.0012 -0.8618
35814SOL    HW114492   8.830  10.570   3.403 -0.5859 -0.3029 -2.0832
35814SOL    HW214493   8.697  10.578   3.475  0.1112  0.0859 -0.7983
35815SOL     OW14494  12.564   4.111   1.605  0.2826  0.4591 -1.1310
35815SOL    HW114495  12.602   4.141   1.687 -1.2767 -1.0793  0.2177
35815SOL    HW214496  12.477   4.149   1.603 -0.8523 -1.9000 -0.5059
35816SOL     OW14497   9.674   2.976  10.959  0.1275  0.5469  0.7403
35816SOL    HW114498   9.599   3.022  10.922  0.7710  0.9441 -0.1259
35816SOL    HW214499   9.638   2.895  10.995 -0.5426  0.0994 -0.8510
35817SOL     OW14500   1.572   9.040   5.357  0.0405  0.0345  0.3615
35817SOL    HW114501   1.619   9.007   5.433 -1.3097 -1.2470  0.6939
35817SOL    HW214502   1.543   9.128   5.382  1.7867  0.6756  0.3082
35818SOL     OW14503  10.098   4.130  11.011 -0.4655 -0.2369 -0.6613
35818SOL    HW114504  10.120   4.183  11.087  2.1645 -0.1341 -1.3970
35818SOL    HW214505  10.088   4.193  10.940  2.0923 -0.5869 -1.4137
35819SOL     OW14506   4.018   8.696   1.291  0.7250  0.9402  0.4665
35819SOL    HW114507   3.989   8.610   1.262  0.1308  1.2973 -0.0342
35819SOL    HW214508   3.997   8.698   1.385 -0.3056  0.9508  0.2461
35820SOL     OW14509  10.497   8.731   6.605 -0.2598 -0.0639 -0.0051
35820SOL    HW114510  10.445   8.804   6.571  0.7158  0.4725 -0.3768
35820SOL    HW214511  10.518   8.678   6.527 -0.8923 -0.7083  0.2496
35821SOL     OW14512  10.143   1.141   2.073  0.2519  0.4942 -0.3962
35821SOL    HW114513  10.196   1.172   2.000  0.2376 -0.5001 -0.8488
35821SOL    HW214514  10.109   1.056   2.044  1.2886 -0.5519  1.2197
35822SOL     OW14515   3.940   2.602   9.690 -0.4230 -0.3017  0.3721
35822SOL    HW114516   3.984   2.532   9.642 -2.3378 -2.1152  1.0726
35822SOL    HW214517   3.945   2.678   9.633  2.1103 -0.8446 -0.2415
35823SOL     OW14518  11.076   6.762  11.153 -0.4053 -0.3049 -0.9197
35823SOL    HW114519  11.143   6.733  11.217  0.2534 -1.0061 -1.8977
35823SOL    HW214520  11.100   6.852  11.133 -1.7391  0.5906  1.2243
35824SOL     OW14521   2.692   3.415   8.959  0.1679 -0.2281 -0.8264
35824SOL    HW114522   2.667   3.486   8.899  0.1954  0.0351 -0.5329
35824SOL    HW214523   2.661   3.335   8.917  1.1787 -0.1623 -1.7352
35825SOL     OW14524  11.830   4.023  10.215 -0.4650 -0.2000 -0.2293
35825SOL    HW114525  11.822   3.986  10.127 -3.8461  2.3147 -1.1805
35825SOL    HW214526  11.890   4.097  10.205 -0.5284 -0.1605 -0.3138
35826SOL     OW14527   3.588   9.192   8.094  0.2684 -0.0699  0.4079
35826SOL    HW114528   3.629   9.108   8.115  1.3379  0.6243  1.2218
35826SOL    HW214529   3.548   9.179   8.008  1.7683 -0.9337 -0.1881
35827SOL     OW14530   0.224   2.193   3.983  0.2053 -0.4305  0.1733
35827SOL    HW114531   0.211   2.287   3.971  0.8109 -0.4159 -0.4460
35827SOL    HW214532   0.263   2.185   4.070 -1.6130 -0.2901  1.0543
35828SOL     OW14533  11.613   7.810   1.739 -0.0034 -0.1277  0.1138
35828SOL    HW114534  11.698   7.768   1.753  0.3933  0.8415  0.7470
35828SOL    HW214535  11.624   7.898   1.776 -0.9800  0.3417 -0.6830
35829SOL     OW14536   4.515  11.323   4.247  0.1132  0.0263  0.2282
35829SOL    HW114537   4.476  11.274   4.319  1.4452  0.0171  0.9827
35829SOL    HW214538   4.514  11.262   4.173  1.5900 -1.1401  1.1084
35830SOL     OW14539  12.393   7.199   8.671  0.2314  0.6986 -0.1096
35830SOL    HW114540  12.436   7.164   8.593  0.0024 -0.4050  0.2378
35830SOL    HW214541  12.325   7.257   8.637  1.3329  1.7072 -0.6792
35831SOL     OW14542   3.441   9.759   7.665  0.0733  0.0614 -0.2654
35831SOL    HW114543   3.465   9.791   7.752 -0.4144 -0.9971  0.2843
35831SOL    HW214544   3.499   9.805   7.605  0.6581  0.5469  0.6558
35832SOL     OW14545   5.772   2.113   2.890 -0.3755 -0.3537 -0.0406
35832SOL    HW114546   5.698   2.172   2.902 -0.7686 -1.2667  2.6555
35832SOL    HW214547   5.735   2.025   2.899  0.6404 -0.9534 -1.2747
35833SOL     OW14548  10.632  11.772   9.411  0.5012 -0.2339 -0.6862
35833SOL    HW114549  10.716  11.816   9.428 -0.2382  1.1946 -0.5918
35833SOL    HW214550  10.577  11.797   9.485 -0.1273 -0.8410 -0.9474
35834SOL     OW14551   1.243   3.235  11.341  0.1864  0.6324  0.1360
35834SOL    HW114552   1.327   3.213  11.382  1.2965  3.0562 -0.6584
35834SOL    HW214553   1.202   3.296  11.402 -1.1470 -0.6758  0.6042
35835SOL     OW14554   9.645  10.244   9.197  0.1106  0.0646 -0.9071
35835SOL    HW114555   9.578  10.304   9.166 -0.0147  0.2491 -0.2856
35835SOL    HW214556   9.598  10.181   9.251  0.5146  0.5385  0.0119
35836SOL     OW14557  12.504   3.316   4.328  0.3476  0.0255 -0.4528
35836SOL    HW114558  12.491   3.241   4.271 -0.1770 -0.8111  0.7390
35836SOL    HW214559  12.526   3.279   4.414 -0.0826  1.2161  0.2007
35837SOL     OW14560  10.522  12.077   6.953 -0.5007 -0.5188  0.3479
35837SOL    HW114561  10.471  12.138   7.005 -0.2462  0.7029 -0.8022
35837SOL    HW214562  10.600  12.060   7.007 -0.1679  0.8422  0.3315
35838SOL     OW14563   2.384   3.425   8.598 -0.3996 -0.6557 -0.1981
35838SOL    HW114564   2.399   3.430   8.692  1.6542 -0.8199 -0.4800
35838SOL    HW214565   2.290   3.441   8.588 -0.5082  0.2469  1.7992
35839SOL     OW14566   8.475   4.653   5.263  0.0949 -0.7109  0.3134
35839SOL    HW114567   8.417   4.724   5.238  1.3559 -0.4902 -2.3349
35839SOL    HW214568   8.562   4.693   5.264  0.6188 -1.8157  0.5844
35840SOL     OW14569   0.869   7.958   1.588 -1.1699 -0.8958 -0.1899
35840SOL    HW114570   0.910   8.031   1.634 -2.5079 -0.5323  0.4833
35840SOL    HW214571   0.908   7.880   1.627  0.3923 -0.5665 -1.0299
35841SOL     OW14572  11.883   1.181  10.444  0.2923  0.0560 -0.9582
35841SOL    HW114573  11.912   1.272  10.453  0.1825  0.0335 -0.3414
35841SOL    HW214574  11.797   1.187  10.402 -0.5205  0.3536  0.6729
35842SOL     OW14575   7.343   0.039   0.008  0.2406  0.2397 -0.0014
35842SOL    HW114576   7.276   0.086   0.057  0.5833 -0.0211  0.7176
35842SOL    HW214577   7.332  -0.052   0.035 -0.8716 -0.2502 -1.8807
35843SOL     OW14578  11.086   8.828   9.923 -0.0692 -0.4899  0.0776
35843SOL    HW114579  11.135   8.871   9.853 -1.3124  0.6340 -0.1517
35843SOL    HW214580  11.060   8.900   9.981 -0.4721 -1.2035  0.8033
35844SOL     OW14581   2.752   1.088   6.619  0.1932 -0.3541  0.0014
35844SOL    HW114582   2.814   1.021   6.644 -0.3355 -0.3894  1.2866
35844SOL    HW214583   2.790   1.129   6.542  0.7227 -1.8398 -0.5589
35845SOL     OW14584  10.215   5.955   3.444 -0.0098  0.6678 -0.5029
35845SOL    HW114585  10.263   5.904   3.379  0.5377  1.5906 -0.8344
35845SOL    HW214586  10.273   6.028   3.466 -1.0848  1.6092 -0.6508
35846SOL     OW14587   3.593   7.455   9.017 -0.0282  0.5159 -0.0127
35846SOL    HW114588   3.559   7.368   8.998 -2.3561  1.3662  0.0254
35846SOL    HW214589   3.652   7.474   8.943  2.3663 -1.9082  1.0755
35847SOL     OW14590  11.968   3.494  11.777 -0.0232 -0.3891 -0.2297
35847SOL    HW114591  11.921   3.548  11.840 -0.4705 -1.9512  0.8469
35847SOL    HW214592  12.049   3.541  11.760 -0.6057  0.8383  0.2833
35848SOL     OW14593   7.643  10.281  10.753  0.2000 -0.0024 -0.2308
35848SOL    HW114594   7.675  10.287  10.663  0.7808  0.9211  0.0346
35848SOL    HW214595   7.675  10.360  10.796  0.6125 -0.8239  1.0137
35849SOL     OW14596   9.785   8.183   0.922 -0.5484 -0.0730  0.0701
35849SOL    HW114597   9.853   8.132   0.879 -0.4912  0.3643 -0.3649
35849SOL    HW214598   9.818   8.272   0.923 -1.4235  0.2743 -0.8132
35850SOL     OW14599   3.768  11.548   0.809 -0.2038 -0.0672 -0.3458
35850SOL    HW114600   3.818  11.492   0.869  0.2072 -0.0604 -0.6744
35850SOL    HW214601   3.695  11.493   0.781  0.7911 -0.8567 -1.5225
35851SOL     OW14602   3.341   1.691  11.165 -0.5023  0.5107  0.0542
35851SOL    HW114603   3.362   1.712  11.257 -1.4162  1.3305  0.0928
35851SOL    HW214604   3.253   1.655  11.168 -0.6745  0.8737 -0.5482
35852SOL     OW14605   0.954   1.834  11.012 -0.0120 -0.4067  0.4860
35852SOL    HW114606   0.941   1.840  10.918  0.5159  0.5342  0.4538
35852SOL    HW214607   0.889   1.771  11.042  0.5118 -1.5186 -0.6409
35853SOL     OW14608   6.183   3.305  11.162  0.4359  0.3712 -0.6620
35853SOL    HW114609   6.215   3.388  11.197  0.1716  0.1424  0.1398
35853SOL    HW214610   6.225   3.297  11.076  0.6762  1.1968 -0.6267
35854SOL     OW14611   5.058  12.404   7.070  0.1133 -0.1646  0.5475
35854SOL    HW114612   5.015  12.340   7.015  1.3364 -0.1932 -0.4127
35854SOL    HW214613   5.125  12.444   7.014  0.6875  0.5539  1.6922
35855SOL     OW14614   7.422   3.400   5.493  0.7714 -0.1487 -0.4438
35855SOL    HW114615   7.375   3.360   5.420 -0.5603 -1.2415  0.9508
35855SOL    HW214616   7.431   3.492   5.469 -0.6784 -0.2405 -1.4594
35856SOL     OW14617   6.283  10.365   2.005 -0.1268  0.1249  0.2679
35856SOL    HW114618   6.374  10.385   2.026  0.3190 -0.7981 -0.6847
35856SOL    HW214619   6.273  10.272   2.024 -0.8060  0.1651  0.1357
35857SOL     OW14620   0.938   5.549  10.031 -0.0638 -0.1742  0.6020
35857SOL    HW114621   0.966   5.568   9.941 -0.0133 -0.9341  0.4510
35857SOL    HW214622   0.902   5.632  10.063  3.0998  1.1395  1.1132
35858SOL     OW14623   0.079   8.759  10.286 -0.4171  0.1384 -0.3220
35858SOL    HW114624   0.067   8.677  10.334 -0.3276 -1.0904 -2.2540
35858SOL    HW214625   0.145   8.807  10.336  0.9954 -1.8626 -0.1327
35859SOL     OW14626   7.233   8.539   8.471  0.1422  0.3313 -0.2589
35859SOL    HW114627   7.152   8.588   8.488  0.5548  0.2027  2.4060
35859SOL    HW214628   7.223   8.458   8.520  0.7049 -1.0587 -2.2944
35860SOL     OW14629   3.473  10.715   1.395 -0.0383 -0.2759 -0.7049
35860SOL    HW114630   3.546  10.771   1.419 -0.8342  1.3323 -1.8050
35860SOL    HW214631   3.513  10.635   1.360  1.1182 -0.5993  1.2387
35861SOL     OW14632   5.764   9.614   8.097 -0.4047  0.1214  0.1967
35861SOL    HW114633   5.730   9.573   8.018  0.3210 -0.6186  0.2527
35861SOL    HW214634   5.709   9.581   8.168  0.2015 -0.8264  0.2475
35862SOL     OW14635   8.583   6.130   1.935  0.5635  0.1584 -0.2857
35862SOL    HW114636   8.642   6.092   2.000  0.1587 -0.8114 -0.4794
35862SOL    HW214637   8.626   6.212   1.909  1.0768  0.2047  0.6729
35863SOL     OW14638   5.505   2.230   5.418  0.0969  0.3138 -0.6975
35863SOL    HW114639   5.430   2.181   5.452 -0.1306  0.5238 -0.8984
35863SOL    HW214640   5.472   2.273   5.340  0.9826 -1.3050 -2.0389
35864SOL     OW14641   5.768  11.669   9.281 -0.7796  0.2337 -0.1211
35864SOL    HW114642   5.792  11.700   9.193  1.3859  0.0825  0.3463
35864SOL    HW214643   5.805  11.735   9.340 -0.6936 -0.5471  0.7254
35865SOL     OW14644   0.631   7.124   7.452 -0.3927 -0.1302  0.0498
35865SOL    HW114645   0.623   7.038   7.494  1.0290 -0.4109 -0.2021
35865SOL    HW214646   0.572   7.119   7.377  0.6108 -1.3766 -0.6954
35866SOL     OW14647   2.461   3.375   0.764  0.0773  0.2285  0.2861
35866SOL    HW114648   2.422   3.340   0.683 -1.4075  2.3190  0.0289
35866SOL    HW214649   2.455   3.470   0.754  1.9931  0.5688  1.8849
35867SOL     OW14650   2.331   0.310   6.132  0.4888 -0.3470  0.0993
35867SOL    HW114651   2.409   0.365   6.137  0.9665 -0.7213 -2.1112
35867SOL    HW214652   2.352   0.244   6.065 -0.9923 -1.6805  0.8656
35868SOL     OW14653   6.943   1.582   6.466 -0.5996  0.2722  0.0003
35868SOL    HW114654   6.853   1.550   6.466 -0.3241 -0.5537  0.2566
35868SOL    HW214655   6.965   1.591   6.559  0.2539 -1.5964  0.0341
35869SOL     OW14656  10.912   5.430   0.548 -0.2825  0.1067 -0.2141
35869SOL    HW114657  10.880   5.433   0.638  0.9800  1.1458  0.2390
35869SOL    HW214658  10.850   5.484   0.499 -0.3271  0.4958  0.2673
35870SOL     OW14659   9.752   5.568   9.605 -0.1289  0.3073  0.7192
35870SOL    HW114660   9.782   5.480   9.582  2.5055  1.2689  0.1433
35870SOL    HW214661   9.747   5.614   9.521 -1.4571  0.7711  1.0225
35871SOL     OW14662  10.760   0.612   1.832 -0.2665  0.0948 -0.3494
35871SOL    HW114663  10.838   0.668   1.828 -0.2052 -0.0520 -2.6920
35871SOL    HW214664  10.691   0.669   1.866  0.4665  0.7310  0.0958
35872SOL     OW14665   0.911  10.636  10.832  0.8451 -0.0364 -0.1978
35872SOL    HW114666   0.853  10.711  10.817 -1.1858 -1.1806  1.5080
35872SOL    HW214667   0.963  10.662  10.908  1.6982  0.4422 -0.9134
35873SOL     OW14668   7.099   0.145   9.484 -0.3086  0.5483 -0.0224
35873SOL    HW114669   7.092   0.240   9.496 -0.0689  0.7519 -1.3996
35873SOL    HW214670   7.014   0.120   9.448  0.2691  0.5361 -1.4170
35874SOL     OW14671   1.203   5.668   8.580  0.0813  0.1547  0.5863
35874SOL    HW114672   1.220   5.604   8.649  0.7739 -0.5761 -0.2367
35874SOL    HW214673   1.221   5.621   8.498 -0.3539  1.1092 -0.0826
35875SOL     OW14674   8.193   6.139   8.419  0.1878  0.1392 -0.1212
35875SOL    HW114675   8.207   6.229   8.448 -1.4308  0.5794 -0.5943
35875SOL    HW214676   8.274   6.116   8.373  0.6483  1.3253  0.0502
35876SOL     OW14677   0.496  11.695   7.784  0.1522 -0.3184 -0.4665
35876SOL    HW114678   0.549  11.713   7.707 -0.4274  1.2239 -0.5531
35876SOL    HW214679   0.477  11.782   7.820 -1.3766 -0.8897  0.1789
35877SOL     OW14680   2.763   7.374   5.572 -0.3513  0.4713  0.2532
35877SOL    HW114681   2.753   7.396   5.665 -0.4473  2.0637 -0.1074
35877SOL    HW214682   2.837   7.427   5.542 -0.3068 -0.0421 -0.5817
35878SOL     OW14683   6.102   3.094  12.067 -0.2690  0.0632 -0.4225
35878SOL    HW114684   6.149   3.128  12.143 -0.2111 -0.5323 -0.1891
35878SOL    HW214685   6.124   3.155  11.997  0.4841  0.0554 -0.2081
35879SOL     OW14686   7.899   5.695   6.997  0.4513 -0.0047 -0.0130
35879SOL    HW114687   7.933   5.612   6.964  1.4134  0.0599  0.7657
35879SOL    HW214688   7.975   5.753   7.001  0.0418  0.5075  0.6634
35880SOL     OW14689  11.975   7.122   7.603 -0.4160 -0.1940 -0.2941
35880SOL    HW114690  12.024   7.040   7.598 -1.4379 -0.9761  1.5111
35880SOL    HW214691  11.884   7.095   7.600 -0.7937  0.7197  1.7481
35881SOL     OW14692   9.106   9.707  11.742 -0.2408  0.6081 -0.3692
35881SOL    HW114693   9.157   9.634  11.776  0.6975  0.7176 -1.4730
35881SOL    HW214694   9.028   9.667  11.704  0.7433  0.0306 -1.8818
35882SOL     OW14695   5.476  10.766   4.113  0.1791 -0.0753  0.3506
35882SOL    HW114696   5.525  10.730   4.039 -1.8231  2.4229 -2.4294
35882SOL    HW214697   5.386  10.736   4.100 -0.8416  2.8237 -0.1185
35883SOL     OW14698   2.984   2.432   7.254  0.4563 -0.3469 -0.0872
35883SOL    HW114699   2.927   2.369   7.209  0.2626  1.0858 -1.9547
35883SOL    HW214700   2.938   2.451   7.336 -0.6852 -0.8215 -0.5954
35884SOL     OW14701  10.585   9.567   4.706  0.2670 -0.3365  0.2118
35884SOL    HW114702  10.511   9.514   4.676 -1.8066  2.4257  0.0746
35884SOL    HW214703  10.604   9.535   4.794 -1.7275 -0.5689  0.6073
35885SOL     OW14704   0.423  12.109  10.682 -0.2976  0.5141 -0.5496
35885SOL    HW114705   0.405  12.066  10.599 -1.5217 -0.9424  0.4022
35885SOL    HW214706   0.514  12.086  10.702 -0.6113 -0.8602 -0.5556
35886SOL     OW14707   1.854   3.508   9.717  0.0021 -0.5837 -0.0581
35886SOL    HW114708   1.928   3.568   9.703 -2.1494  2.3729  0.2850
35886SOL    HW214709   1.843   3.464   9.633  0.7363  0.6449 -0.8337
35887SOL     OW14710   2.751   9.023   8.721 -0.2155 -0.1534  0.2747
35887SOL    HW114711   2.804   8.991   8.794 -0.7051 -0.9101  0.3200
35887SOL    HW214712   2.774   9.115   8.712 -0.9467  0.2550  2.1088
35888SOL     OW14713  12.578   4.024  12.361  0.2187 -0.7380  0.1489
35888SOL    HW114714  12.567   4.020  12.266 -1.4011  0.7729  0.2099
35888SOL    HW214715  12.601   3.935  12.387 -0.1670 -1.3645 -1.5659
35889SOL     OW14716   6.318  10.587   3.885 -0.3818  0.0999  0.1023
35889SOL    HW114717   6.285  10.639   3.811 -1.5679 -1.0392 -0.2074
35889SOL    HW214718   6.408  10.565   3.860 -1.1241 -1.2551 -1.6005
35890SOL     OW14719   7.442   9.639   7.392 -0.5269  0.0225  0.4332
35890SOL    HW114720   7.439   9.544   7.402 -1.1521  0.0940  1.0371
35890SOL    HW214721   7.432   9.673   7.481  0.5534  0.6547  0.3322
35891SOL     OW14722   0.082  11.830   8.442  0.0123 -0.1460 -0.1454
35891SOL    HW114723   0.081  11.901   8.378  0.8332 -0.8401 -0.9687
35891SOL    HW214724   0.138  11.862   8.513  1.5334 -0.4696 -1.1527
35892SOL     OW14725   3.304   1.751   7.740  0.0573  0.5746 -0.4977
35892SOL    HW114726   3.281   1.676   7.794 -0.6356  1.0096 -0.1698
35892SOL    HW214727   3.223   1.802   7.733  0.9098  2.2000  0.7548
35893SOL     OW14728   2.144   2.086   6.049  0.0253  0.2138 -0.4225
35893SOL    HW114729   2.125   2.086   6.143 -0.9670 -0.0472 -0.6148
35893SOL    HW214730   2.086   2.019   6.013  0.5983  0.1182 -1.1908
35894SOL     OW14731   1.152   2.256   1.054 -0.3695  0.0532  0.3359
35894SOL    HW114732   1.094   2.327   1.027 -0.5251  0.3323  1.3628
35894SOL    HW214733   1.115   2.225   1.136 -0.0143 -0.8902  0.1482
35895SOL     OW14734   3.910   0.892   6.998  0.3637 -0.2954 -0.1618
35895SOL    HW114735   3.949   0.963   6.947  1.8382  0.0993  1.4464
35895SOL    HW214736   3.910   0.817   6.938 -1.8062  1.1382 -2.1053
35896SOL     OW14737   4.112   1.604   5.949 -0.3246 -0.2300  0.7066
35896SOL    HW114738   4.138   1.656   6.025  1.7711  0.3700 -0.3458
35896SOL    HW214739   4.132   1.514   5.975  2.0029  0.1090  0.3463
35897SOL     OW14740   8.830   2.303   3.051  0.0974 -0.3138  0.3065
35897SOL    HW114741   8.740   2.280   3.074  0.2340  0.3978  1.6814
35897SOL    HW214742   8.848   2.382   3.102  1.7315 -0.8535  0.6160
35898SOL     OW14743   7.683  10.702  11.309  0.1824  0.3035 -0.0448
35898SOL    HW114744   7.733  10.783  11.297  1.4834 -0.5567 -0.6354
35898SOL    HW214745   7.623  10.722  11.381 -0.0629  2.0316 -0.6742
35899SOL     OW14746  10.154   4.164   5.743  0.5988 -0.1430  0.0348
35899SOL    HW114747  10.195   4.078   5.747 -1.1236 -1.0327 -0.7692
35899SOL    HW214748  10.107   4.173   5.826  0.8590  0.0774  0.1611
35900SOL     OW14749   8.080   9.216  12.123  0.7029 -0.2964  0.3542
35900SOL    HW114750   8.074   9.298  12.073 -0.4453 -1.3167 -1.2965
35900SOL    HW214751   8.148   9.233  12.188 -0.9182  2.6734  1.4965
35901SOL     OW14752   8.578  10.977   1.492 -0.3787  0.0214  0.1804
35901SOL    HW114753   8.551  11.038   1.561  0.1698 -0.6199  0.9752
35901SOL    HW214754   8.585  10.892   1.536  0.7470 -0.2448 -0.4717
35902SOL     OW14755  10.371   8.239  11.722  0.1576  0.2354 -0.6405
35902SOL    HW114756  10.457   8.214  11.688 -0.1533  0.7719 -1.8906
35902SOL    HW214757  10.317   8.250  11.644 -0.2811  2.7119 -0.0625
35903SOL     OW14758   2.989  10.811   0.958 -0.5909 -0.2769 -0.3503
35903SOL    HW114759   2.974  10.762   0.877 -1.9733 -0.0795 -0.2395
35903SOL    HW214760   2.955  10.754   1.027  0.3213 -0.3231  0.0837
35904SOL     OW14761   9.594   9.183  10.703 -0.0224  0.5033 -0.0304
35904SOL    HW114762   9.568   9.092  10.688  1.0814  0.4020 -1.4739
35904SOL    HW214763   9.546   9.233  10.637  0.3435  0.8028 -0.0736
35905SOL     OW14764   2.858   6.512   6.586 -0.1063 -0.0749 -0.3421
35905SOL    HW114765   2.781   6.550   6.627 -0.7184 -0.1945 -1.3509
35905SOL    HW214766   2.877   6.569   6.512  2.1680  1.2814  1.1283
35906SOL     OW14767   5.747   1.726   8.486 -0.3090  0.5905  0.5847
35906SOL    HW114768   5.705   1.700   8.404  0.9806 -1.1505  0.4177
35906SOL    HW214769   5.805   1.798   8.462 -1.1724  1.2226  0.3233
35907SOL     OW14770  10.122   0.644  11.807 -0.1936 -0.0201 -0.2052
35907SOL    HW114771  10.192   0.594  11.850 -0.8680 -0.0683  0.8817
35907SOL    HW214772  10.166   0.691  11.736  0.5276 -1.9132 -1.0974
35908SOL     OW14773   2.100   2.614   6.683  0.6399 -0.6779  0.1742
35908SOL    HW114774   2.116   2.520   6.688 -0.6994 -0.9921 -0.8945
35908SOL    HW214775   2.007   2.622   6.659  0.7569  0.9100  0.1212
35909SOL     OW14776   3.644  12.536  11.820 -0.2511  0.0922 -0.0587
35909SOL    HW114777   3.586  12.530  11.896  0.4416 -1.4160  0.3875
35909SOL    HW214778   3.641  12.628  11.795 -2.3575  0.1784  0.3221
35910SOL     OW14779   1.783  10.799   0.963 -0.5673 -1.0437 -0.1794
35910SOL    HW114780   1.760  10.891   0.949  1.6897 -0.6550 -1.9980
35910SOL    HW214781   1.837  10.799   1.042  0.1675 -0.6222 -0.6649
35911SOL     OW14782   4.425   0.650   6.664 -0.1355 -0.1037  0.2553
35911SOL    HW114783   4.337   0.669   6.698  0.2995  1.5005  0.5924
35911SOL    HW214784   4.484   0.674   6.735  0.6172 -0.1672 -0.3411
35912SOL     OW14785   5.673   4.596   8.406 -0.1695  0.0920  0.2843
35912SOL    HW114786   5.719   4.522   8.367  1.0618  0.6486  0.6251
35912SOL    HW214787   5.585   4.562   8.426  0.3620 -1.2740  0.4253
35913SOL     OW14788  10.834   9.785  10.965 -0.4657 -0.2677  0.4874
35913SOL    HW114789  10.845   9.806  10.872  0.4178  1.8047  1.0160
35913SOL    HW214790  10.879   9.701  10.975  3.3398  1.4496 -0.2108
35914SOL     OW14791   5.011   2.565   8.796  0.3985  0.0255  0.4403
35914SOL    HW114792   5.046   2.588   8.882  1.0316 -0.8663  0.4251
35914SOL    HW214793   5.079   2.514   8.754 -0.2016 -0.1847 -0.3095
35915SOL     OW14794   2.925   2.598   0.158  0.2392 -0.5712 -0.4726
35915SOL    HW114795   3.016   2.604   0.185  0.0515 -0.4789  0.1701
35915SOL    HW214796   2.887   2.532   0.217 -0.8102  1.5308  1.3596
35916SOL     OW14797  11.682   1.447   2.499 -0.1083 -0.3389 -0.2679
35916SOL    HW114798  11.636   1.390   2.561  0.6715  0.2107  0.8430
35916SOL    HW214799  11.756   1.482   2.548  0.6254  0.0015 -1.5677
35917SOL     OW14800   7.122   8.753   2.580  0.0018  0.0531 -0.2834
35917SOL    HW114801   7.038   8.769   2.539  0.1560 -0.7534 -0.9402
35917SOL    HW214802   7.150   8.668   2.546  0.1266 -0.6601  1.5132
35918SOL     OW14803   6.374  11.454  12.044 -0.3008  0.9175  0.6653
35918SOL    HW114804   6.451  11.509  12.033 -0.3102  0.7715 -0.1826
35918SOL    HW214805   6.348  11.468  12.135 -0.4571  2.4980  0.4009
35919SOL     OW14806   6.670   6.717   7.704 -0.0487  0.6303  0.2860
35919SOL    HW114807   6.721   6.669   7.638  0.3060  1.0861  0.2269
35919SOL    HW214808   6.583   6.678   7.700  0.2380 -0.0213  0.2420
35920SOL     OW14809  12.478  10.694   2.238  1.1599  0.3941  0.0369
35920SOL    HW114810  12.525  10.765   2.282 -1.0927  1.3285  1.0852
35920SOL    HW214811  12.462  10.726   2.150  1.2345  0.6721  0.1245
35921SOL     OW14812   5.184  12.210   0.178  0.0064 -0.1639  0.1511
35921SOL    HW114813   5.200  12.124   0.217  2.5038 -0.3424 -1.0704
35921SOL    HW214814   5.096  12.233   0.208  0.3356 -1.8619  2.8345
35922SOL     OW14815   3.923   9.261   7.853 -0.0301 -0.2931  0.0963
35922SOL    HW114816   3.973   9.180   7.851 -0.0653 -0.3089 -0.2404
35922SOL    HW214817   3.832   9.234   7.861 -0.4828 -0.5110 -3.8368
35923SOL     OW14818   3.188   9.204   0.259 -0.2582  1.3267  0.6246
35923SOL    HW114819   3.151   9.249   0.184 -0.0648  1.9375  0.8849
35923SOL    HW214820   3.283   9.211   0.247 -0.1675 -0.7632 -0.3644
35924SOL     OW14821   3.572   8.405   2.847  0.4594  0.1152 -0.1202
35924SOL    HW114822   3.616   8.404   2.932 -0.5352  0.1930  0.4129
35924SOL    HW214823   3.483   8.375   2.866  0.4106 -0.5040 -1.2481
35925SOL     OW14824   7.766  11.904   9.831 -0.2179 -0.2820  0.1753
35925SOL    HW114825   7.679  11.867   9.843 -1.0815  1.8099  0.9015
35925SOL    HW214826   7.750  11.989   9.788  1.3971  0.3466  0.7344
35926SOL     OW14827  10.711   4.037   4.134 -0.0529 -0.6267 -0.4833
35926SOL    HW114828  10.784   4.093   4.107 -0.2772  0.1004  0.3655
35926SOL    HW214829  10.636   4.070   4.086 -0.0324 -0.7177 -0.5800
35927SOL     OW14830   6.541  12.252  12.391  0.3198 -0.4661  0.7896
35927SOL    HW114831   6.498  12.269  12.475 -1.4616 -0.2680 -0.1285
35927SOL    HW214832   6.470  12.248  12.327  1.3498 -3.1041 -0.3578
35928SOL     OW14833   9.517   9.558  10.318  0.2134 -0.0273  0.7990
35928SOL    HW114834   9.558   9.494  10.259  1.6761  0.5204  1.1871
35928SOL    HW214835   9.464   9.613  10.261  0.2855 -0.5320  0.2362
35929SOL     OW14836  11.721   3.717   9.428 -0.3854  0.4478  0.2856
35929SOL    HW114837  11.698   3.638   9.379 -3.1346  0.2194  1.7510
35929SOL    HW214838  11.691   3.789   9.372 -0.6768  0.3169  0.2704
35930SOL     OW14839   8.135   0.684   5.000 -0.3326  0.5122  0.2513
35930SOL    HW114840   8.166   0.594   5.001  0.1200  0.6371 -1.0031
35930SOL    HW214841   8.179   0.726   5.074 -0.2600 -0.1936  0.6163
35931SOL     OW14842  11.936   3.859   3.924 -0.0435  0.8691  0.0043
35931SOL    HW114843  12.024   3.842   3.891 -0.4556  0.2738 -0.8349
35931SOL    HW214844  11.920   3.788   3.987 -0.5268  0.0122 -1.0614
35932SOL     OW14845   0.853  12.277  12.039 -0.9595  0.3869 -0.1259
35932SOL    HW114846   0.817  12.344  11.981 -1.1957  0.3034 -0.0772
35932SOL    HW214847   0.937  12.254  12.000  0.1025  2.1597  0.9271
35933SOL     OW14848  12.056   0.750   1.327 -0.5225  0.1993 -0.5725
35933SOL    HW114849  11.977   0.722   1.281 -1.8173 -2.1886  2.7492
35933SOL    HW214850  12.025   0.807   1.397  1.1065  1.6980 -0.9826
35934SOL     OW14851   5.862   4.982   5.034 -0.1134  0.4028  0.2293
35934SOL    HW114852   5.879   4.888   5.021  0.4335  0.6791 -1.3011
35934SOL    HW214853   5.948   5.018   5.057 -0.5009  0.4042  1.7344
35935SOL     OW14854   5.091   4.247   1.447 -0.4138  0.0985 -0.0744
35935SOL    HW114855   5.111   4.162   1.409  1.7230  0.2744  0.5278
35935SOL    HW214856   5.141   4.249   1.529  0.3285  2.2711 -0.5294
35936SOL     OW14857   0.401   1.096   3.929 -0.6683 -0.2433  0.0015
35936SOL    HW114858   0.482   1.141   3.904  0.3055 -0.9584  1.7338
35936SOL    HW214859   0.378   1.133   4.013 -0.4247 -2.1678  0.9782
35937SOL     OW14860  12.588  12.380   9.667  0.7450  0.2649  0.4170
35937SOL    HW114861  12.566  12.448   9.602 -0.7287  0.1250  0.7242
35937SOL    HW214862  12.508  12.371   9.719  1.3974 -0.7238  1.2764
35938SOL     OW14863   3.070   3.103   6.758  0.0461 -0.0085 -0.1893
35938SOL    HW114864   3.083   3.058   6.675  1.6650 -0.5487  0.3305
35938SOL    HW214865   3.127   3.180   6.753 -0.8336  0.6684 -0.0813
35939SOL     OW14866   8.984   5.404   3.655  0.3414  0.2355  0.2678
35939SOL    HW114867   9.068   5.362   3.632  0.2485  0.2017 -0.0143
35939SOL    HW214868   8.938   5.413   3.572 -0.6181 -1.2108  0.6068
35940SOL     OW14869   9.273  10.765   4.944 -0.1781  0.1257 -0.0814
35940SOL    HW114870   9.325  10.747   5.022 -0.9089  0.5534  0.5122
35940SOL    HW214871   9.197  10.813   4.976 -0.8988 -0.4130 -0.9503
35941SOL     OW14872   4.166  11.251   1.022  0.2970 -0.0166 -0.2476
35941SOL    HW114873   4.258  11.223   1.012  0.4193  0.9199 -2.3956
35941SOL    HW214874   4.116  11.173   0.999  0.6254  0.3075 -2.2935
35942SOL     OW14875   1.921   1.805   0.869  0.4845  0.0189 -0.2681
35942SOL    HW114876   1.868   1.779   0.944  1.7138 -3.2113 -0.3602
35942SOL    HW214877   2.001   1.841   0.908  0.2867  0.2582 -0.0763
35943SOL     OW14878   8.447   9.926   1.449 -0.5606 -0.2332 -0.2813
35943SOL    HW114879   8.355   9.899   1.446 -0.0866 -1.9621 -0.1487
35943SOL    HW214880   8.494   9.859   1.400  0.4866  1.4933 -1.7697
35944SOL     OW14881   3.712   0.261   0.620  0.0025 -0.2250  0.6631
35944SOL    HW114882   3.641   0.293   0.563 -0.5666 -0.5081  1.2081
35944SOL    HW214883   3.760   0.341   0.644  3.1859 -0.3538 -3.8998
35945SOL     OW14884  11.287  11.297   0.059  0.1623 -0.2865 -0.1122
35945SOL    HW114885  11.194  11.278   0.049 -0.1155  1.4141 -1.2427
35945SOL    HW214886  11.319  11.304  -0.031  0.8423  1.5088  0.2340
35946SOL     OW14887   0.210   6.860  10.735  0.0251  0.6163 -0.4555
35946SOL    HW114888   0.203   6.955  10.739 -1.8095  0.4910  0.6573
35946SOL    HW214889   0.123   6.829  10.758  0.7930 -1.3492  0.0012
35947SOL     OW14890   1.877  10.914   1.229 -0.1690  0.0405  0.8608
35947SOL    HW114891   1.856  10.984   1.290 -3.3177  0.9722 -1.0317
35947SOL    HW214892   1.924  10.958   1.158 -0.9808  0.0151  0.2931
35948SOL     OW14893   2.840  11.821  10.345  0.0987  1.4915 -0.3655
35948SOL    HW114894   2.887  11.896  10.308 -2.0225  2.5876 -1.0449
35948SOL    HW214895   2.781  11.793  10.275 -0.0311 -0.0388  0.3136
35949SOL     OW14896   4.566   6.015  11.137 -0.2926 -0.2247 -0.0228
35949SOL    HW114897   4.609   6.090  11.096  1.1496 -0.1850  1.4737
35949SOL    HW214898   4.526   5.968  11.064  0.6471  0.8112 -1.2562
35950SOL     OW14899   4.481   7.967  12.119 -0.2376  0.1073  0.2633
35950SOL    HW114900   4.569   7.930  12.119 -0.7000 -1.0371  0.1108
35950SOL    HW214901   4.432   7.912  12.179 -1.3788 -0.6516 -1.2809
35951SOL     OW14902   9.526   6.630   0.449  0.3271  0.3683  0.1590
35951SOL    HW114903   9.580   6.692   0.401 -0.3784  0.3739 -0.6431
35951SOL    HW214904   9.516   6.555   0.391  1.5723 -0.7400  1.3074
35952SOL     OW14905   1.592   6.428  10.731 -0.1592 -0.2264 -0.4185
35952SOL    HW114906   1.594   6.505  10.789  1.0195 -1.1035  0.7806
35952SOL    HW214907   1.683   6.419  10.701 -0.9317  0.8610 -3.3823
35953SOL     OW14908  11.251   2.112   9.790  0.2482  0.4782 -0.7033
35953SOL    HW114909  11.335   2.154   9.771  0.5965 -0.2275 -0.7598
35953SOL    HW214910  11.271   2.050   9.860  0.1359 -0.9050 -1.8640
35954SOL     OW14911   2.720  10.497   6.434  0.3590 -0.1298 -0.7962
35954SOL    HW114912   2.682  10.453   6.510 -0.2435  0.4973 -0.7186
35954SOL    HW214913   2.758  10.577   6.469 -1.1269  0.8384 -1.3303
35955SOL     OW14914   7.305   2.254  10.286  0.3400 -0.0947 -0.5258
35955SOL    HW114915   7.347   2.176  10.250 -0.5888 -1.2142  0.7312
35955SOL    HW214916   7.218   2.255  10.248 -0.1784 -0.5437  0.5840
35956SOL     OW14917  12.223  11.587   2.874  0.6358 -0.1838 -0.2220
35956SOL    HW114918  12.187  11.624   2.794  0.6187 -0.7179 -0.4715
35956SOL    HW214919  12.238  11.494   2.853  0.9744 -0.2508  0.2743
35957SOL     OW14920   5.567  10.781   8.140  0.0820 -0.0397 -0.5418
35957SOL    HW114921   5.581  10.868   8.103 -0.5857 -0.3786 -1.6453
35957SOL    HW214922   5.482  10.787   8.183  0.9899  0.4409  1.2822
35958SOL     OW14923   3.220  11.799   0.638  0.5445  0.0348 -0.1673
35958SOL    HW114924   3.219  11.835   0.549 -0.4298  0.3107 -0.0573
35958SOL    HW214925   3.312  11.780   0.655  0.6699 -0.7169 -1.5151
35959SOL     OW14926   7.562   6.587   1.784 -0.2492 -0.4324 -0.3236
35959SOL    HW114927   7.588   6.496   1.770 -0.9304 -0.7728  0.5194
35959SOL    HW214928   7.466   6.585   1.784 -0.2788  0.4620 -1.3408
35960SOL     OW14929   1.501   9.845  12.554 -0.0625 -0.6077 -0.1237
35960SOL    HW114930   1.486   9.753  12.572 -0.3010 -0.3046  1.3895
35960SOL    HW214931   1.550   9.877  12.630  0.5103  0.3986 -0.8721
35961SOL     OW14932   8.705   3.338   5.323  0.2701  0.4500 -0.1043
35961SOL    HW114933   8.688   3.384   5.241  1.1836  1.4008  0.2294
35961SOL    HW214934   8.746   3.256   5.297  1.3901  1.1421 -0.5669
35962SOL     OW14935   9.299   4.190   1.704  0.0140  0.6704 -0.2278
35962SOL    HW114936   9.300   4.215   1.612  1.2095 -0.3087 -0.5127
35962SOL    HW214937   9.207   4.174   1.724 -0.4254  2.3574 -0.8126
35963SOL     OW14938   8.623  10.655   7.740 -0.2523 -0.1200 -0.4669
35963SOL    HW114939   8.634  10.626   7.649 -2.1338 -0.4556 -0.6211
35963SOL    HW214940   8.627  10.574   7.791  2.0779  0.1796 -0.0578
35964SOL     OW14941  12.347   6.538   0.940  0.0156 -0.6792  0.2576
35964SOL    HW114942  12.335   6.456   0.891  0.0157 -1.9209  2.2369
35964SOL    HW214943  12.260   6.560   0.972  0.1614 -0.3823  0.4522
35965SOL     OW14944  11.883  12.015   9.486 -0.3028 -0.5282 -0.0732
35965SOL    HW114945  11.977  12.000   9.499 -0.2754  0.3852  0.9077
35965SOL    HW214946  11.878  12.070   9.408 -0.0534 -0.9717 -0.4036
35966SOL     OW14947   4.387   5.546   6.031  0.6295  0.1550 -0.5098
35966SOL    HW114948   4.347   5.540   6.118 -0.1288 -0.5367 -0.8876
35966SOL    HW214949   4.395   5.455   6.002  1.4551  0.3494 -0.9124
35967SOL     OW14950   2.450   0.051  10.769  0.3818 -0.2602 -0.2685
35967SOL    HW114951   2.428  -0.027  10.718 -0.4636 -0.8896  1.0139
35967SOL    HW214952   2.538   0.075  10.740  0.7606 -1.8487 -0.4993
35968SOL     OW14953  10.903   6.663   8.216  0.6409 -0.1656  0.2895
35968SOL    HW114954  10.872   6.614   8.292  0.3554  1.2582  1.1367
35968SOL    HW214955  10.968   6.606   8.175  0.4445 -1.1689  1.3227
35969SOL     OW14956   2.318   2.535   1.157  0.2164  0.0759 -0.2629
35969SOL    HW114957   2.395   2.562   1.206 -1.1016  0.5202  1.6981
35969SOL    HW214958   2.352   2.485   1.082  2.3851  0.8597  0.1526
35970SOL     OW14959   4.644   7.024   7.345  0.3135  0.3015 -0.0319
35970SOL    HW114960   4.730   6.982   7.354 -0.8824 -2.1808  0.8794
35970SOL    HW214961   4.648   7.070   7.261  1.9768 -1.2293 -0.8490
35971SOL     OW14962   1.982   4.730   5.157  0.0731  0.4081 -0.0316
35971SOL    HW114963   1.932   4.650   5.139  2.0245 -0.6516 -1.0174
35971SOL    HW214964   1.922   4.801   5.134 -1.0226 -0.7949 -1.0394
35972SOL     OW14965  11.650   8.110  11.914  0.9796 -0.1196 -0.1678
35972SOL    HW114966  11.605   8.114  11.998  2.4026  0.7562  0.5950
35972SOL    HW214967  11.587   8.067  11.855  1.3239 -4.4068  2.1756
35973SOL     OW14968   5.935   5.018   5.440 -0.1757  0.1460  0.2800
35973SOL    HW114969   5.867   4.967   5.483 -0.3151  0.6297  0.6379
35973SOL    HW214970   5.998   4.953   5.409 -0.1655 -0.2181  1.0583
35974SOL     OW14971   3.288  11.509   3.984  0.0498 -0.4376 -0.1431
35974SOL    HW114972   3.271  11.514   4.078 -2.3078 -1.1455 -0.4846
35974SOL    HW214973   3.239  11.582   3.947  0.6994 -0.3590 -0.8633
35975SOL     OW14974   5.757   7.932   1.937 -0.4140 -0.2217  0.2061
35975SOL    HW114975   5.703   7.981   1.999 -0.0048 -0.9394  1.1768
35975SOL    HW214976   5.708   7.933   1.855 -1.0292  0.6666  0.5735
35976SOL     OW14977   2.695   7.809   7.194 -0.2580 -0.0501 -0.2092
35976SOL    HW114978   2.781   7.846   7.214  0.1831 -1.0885 -0.1094
35976SOL    HW214979   2.637   7.848   7.259  0.1660  0.5621 -0.1931
35977SOL     OW14980   1.742  10.673  10.297 -0.4030 -0.2446  0.2358
35977SOL    HW114981   1.812  10.610  10.280 -2.6709 -2.5116 -1.5546
35977SOL    HW214982   1.713  10.654  10.386  0.6346  0.0758  0.6503
35978SOL     OW14983   8.743   5.295   4.312 -0.1596 -0.4512  0.0660
35978SOL    HW114984   8.694   5.370   4.278  0.2388 -0.1234  0.2106
35978SOL    HW214985   8.705   5.219   4.267  0.6257  0.0079 -1.4324
35979SOL     OW14986   0.668  10.335   0.062 -0.0194 -0.1796 -0.2405
35979SOL    HW114987   0.615  10.366  -0.011 -0.8894 -0.6514  0.1719
35979SOL    HW214988   0.647  10.242   0.070  2.2269 -0.8462 -1.1872
35980SOL     OW14989   2.109   6.799  10.070 -0.3128 -0.5703 -0.1789
35980SOL    HW114990   2.111   6.734  10.000  0.5869 -1.2123  0.4185
35980SOL    HW214991   2.139   6.751  10.147 -1.6603  0.0136  0.7396
35981SOL     OW14992   9.415   7.911   0.937 -0.2298 -0.1644 -0.8283
35981SOL    HW114993   9.346   7.975   0.918 -1.8442 -0.9573  1.7232
35981SOL    HW214994   9.370   7.826   0.936  1.6334 -1.2338 -3.0878
35982SOL     OW14995   2.222   2.086   5.628  0.0838  0.2568  0.4118
35982SOL    HW114996   2.246   2.108   5.538 -0.5881 -1.1584 -0.1381
35982SOL    HW214997   2.295   2.033   5.660 -0.1534 -0.1127  0.3427
35983SOL     OW14998   4.166   6.860   6.646  0.6800 -0.5057  0.4923
35983SOL    HW114999   4.113   6.899   6.715 -0.0925 -3.2817  1.5735
35983SOL    HW215000   4.103   6.823   6.585  1.3267 -2.1560  0.7831
35984SOL     OW15001   6.812   1.611  11.791 -0.2513 -0.0968  0.4415
35984SOL    HW115002   6.860   1.662  11.725 -0.8938  1.4758  1.1349
35984SOL    HW215003   6.881   1.570  11.844  0.3059  0.3453  0.0745
35985SOL     OW15004   3.556  11.749   2.534 -0.5760  0.2321  0.5457
35985SOL    HW115005   3.592  11.794   2.458  1.4496  2.1536  2.4755
35985SOL    HW215006   3.575  11.656   2.519  0.3477  0.6435 -0.9816
35986SOL     OW15007   7.505   9.854  10.130  0.2682  0.1717  0.6897
35986SOL    HW115008   7.520   9.946  10.154  0.7854  0.1100  0.6169
35986SOL    HW215009   7.534   9.849  10.039  0.0934 -0.0303  0.6458
35987SOL     OW15010  11.638   1.568   9.261  0.1664 -0.3682 -0.1357
35987SOL    HW115011  11.608   1.582   9.171  0.8001  1.6546 -0.0651
35987SOL    HW215012  11.595   1.636   9.312  1.4568 -0.1553  0.7223
35988SOL     OW15013   8.202   8.241  11.816 -0.1361 -0.6498  0.3245
35988SOL    HW115014   8.265   8.205  11.754 -0.3209 -0.0925 -0.1900
35988SOL    HW215015   8.253   8.299  11.871 -0.3010  0.3064 -0.5059
35989SOL     OW15016   5.804   2.739   1.708  0.5475 -0.3402  0.1320
35989SOL    HW115017   5.759   2.697   1.781  0.0475  0.3904  0.2607
35989SOL    HW215018   5.842   2.667   1.658 -0.2152 -0.9343  0.3877
35990SOL     OW15019  12.207   9.412  10.712 -0.1094  0.0758  0.1381
35990SOL    HW115020  12.170   9.500  10.717  0.1063  0.3953 -2.4550
35990SOL    HW215021  12.287   9.416  10.764  0.3108  1.6896 -0.5830
35991SOL     OW15022   9.451  11.487   7.945 -0.2941  0.3859 -0.1754
35991SOL    HW115023   9.456  11.502   8.040 -0.4392 -1.0175  0.0779
35991SOL    HW215024   9.503  11.557   7.907  0.4880  0.4744  1.0035
35992SOL     OW15025   0.105   2.996  10.379  0.5540 -0.6289  0.1754
35992SOL    HW115026   0.067   2.983  10.467  0.3929 -2.1901 -0.0995
35992SOL    HW215027   0.195   3.023  10.396  0.7736 -1.7044  0.8543
35993SOL     OW15028   3.615   2.303   6.552 -0.0562  0.0406 -0.7688
35993SOL    HW115029   3.682   2.263   6.497 -0.5430 -1.5146 -0.2690
35993SOL    HW215030   3.541   2.242   6.549  0.0217 -0.3074  1.8455
35994SOL     OW15031   3.051   2.087  10.944  0.1380 -0.5564 -0.3677
35994SOL    HW115032   3.100   2.129  10.874 -2.1110  0.2984 -1.5202
35994SOL    HW215033   3.010   2.011  10.903 -2.3554  0.7315 -0.4827
35995SOL     OW15034   8.927  11.399   4.066 -0.3246  0.0535 -0.0971
35995SOL    HW115035   8.947  11.329   4.128  1.5569  1.0743  0.5234
35995SOL    HW215036   8.859  11.362   4.010 -2.5609 -0.7420  2.8727
35996SOL     OW15037   5.161   8.538  10.994 -0.1402 -0.9313  0.2340
35996SOL    HW115038   5.207   8.513  11.074  2.5078 -0.3112 -0.9773
35996SOL    HW215039   5.121   8.623  11.015  0.2356 -0.9363  1.0186
35997SOL     OW15040   4.348   5.570  10.429 -0.4295  0.1909  0.3957
35997SOL    HW115041   4.350   5.567  10.525 -1.7315  0.1856  0.4316
35997SOL    HW215042   4.340   5.478  10.402 -0.5987  0.2330  0.3004
35998SOL     OW15043   7.504   9.889   6.327 -0.3019  0.0872 -0.6058
35998SOL    HW115044   7.494   9.841   6.409 -1.6818  3.3847  1.3384
35998SOL    HW215045   7.588   9.933   6.334 -0.5749  0.6511 -0.7971
35999SOL     OW15046   8.289   0.776   5.532 -0.3203  0.1612 -0.3595
35999SOL    HW115047   8.249   0.862   5.544  0.7408  0.3652  2.2993
35999SOL    HW215048   8.242   0.718   5.592  0.5325 -0.5551 -0.3568
36000SOL     OW15049  12.397   8.930   9.372 -0.3026  0.2758  0.4048
36000SOL    HW115050  12.408   8.913   9.465  0.2334 -1.6804  0.0397
36000SOL    HW215051  12.305   8.910   9.354 -0.8422  2.2152  0.7588
36001SOL     OW15052   7.556  11.173   3.323  0.2798 -0.4311  0.3731
36001SOL    HW115053   7.466  11.143   3.309  0.0803  0.3634 -0.0790
36001SOL    HW215054   7.575  11.150   3.414 -0.4180 -0.5049  0.5054
36002SOL     OW15055   6.996   1.364   4.943 -0.6472  0.6871 -0.1237
36002SOL    HW115056   6.989   1.280   4.897  1.6106  0.1120  0.4526
36002SOL    HW215057   6.908   1.379   4.979 -0.9081 -1.9339  0.5741
36003SOL     OW15058   9.646   2.383   0.760  0.6207 -0.0279  0.0924
36003SOL    HW115059   9.606   2.468   0.741 -1.2626 -0.7489  0.6325
36003SOL    HW215060   9.736   2.404   0.782  0.2409  1.8216  0.0759
36004SOL     OW15061   7.041   3.149  10.489 -0.1472  0.1652  0.2161
36004SOL    HW115062   7.071   3.232  10.527 -0.3100  1.2430 -1.8710
36004SOL    HW215063   6.949   3.144  10.513 -0.5123  1.3402 -0.8037
36005SOL     OW15064   9.890   5.285   1.687 -0.3696  0.2692 -0.0846
36005SOL    HW115065   9.803   5.298   1.726  0.2768 -0.8857  1.9013
36005SOL    HW215066   9.951   5.291   1.760  1.0652 -0.7202 -1.1307
36006SOL     OW15067  10.579   1.648  12.303 -0.3054  0.3145  0.4176
36006SOL    HW115068  10.560   1.741  12.296  0.2930  0.5080  1.2409
36006SOL    HW215069  10.598   1.620  12.213 -1.0284  0.8550  0.0875
36007SOL     OW15070   4.399   3.408   1.110 -0.0429 -0.5593  0.0727
36007SOL    HW115071   4.384   3.479   1.047 -2.0587 -0.3376  0.7273
36007SOL    HW215072   4.386   3.450   1.196  0.7478 -1.2945  0.5701
36008SOL     OW15073   1.936   7.611   8.243  0.0292  0.0956 -0.2504
36008SOL    HW115074   1.860   7.669   8.241 -0.5388 -0.6416 -0.3694
36008SOL    HW215075   1.912   7.539   8.184  0.5573 -0.4650  0.2189
36009SOL     OW15076   5.752   2.420   5.947 -0.0077 -0.1118  0.3072
36009SOL    HW115077   5.720   2.336   5.981  1.7131 -0.8904  0.1044
36009SOL    HW215078   5.780   2.468   6.025 -0.5972  0.1149  0.3857
36010SOL     OW15079   3.791   7.747  12.107  0.1740 -0.1500  0.0640
36010SOL    HW115080   3.756   7.673  12.057 -0.3802  0.5572 -0.6275
36010SOL    HW215081   3.716   7.805  12.120  0.6534  0.4175  0.3628
36011SOL     OW15082   3.776   3.754   9.392 -0.5301  0.0306  0.1903
36011SOL    HW115083   3.759   3.744   9.298 -0.3023 -1.5345  0.2969
36011SOL    HW215084   3.689   3.755   9.432 -0.8093  3.5632 -0.2215
36012SOL     OW15085   7.945   0.525   4.529 -0.2064  0.4546  0.1232
36012SOL    HW115086   7.889   0.593   4.568  1.7039  2.2615 -0.1213
36012SOL    HW215087   7.970   0.470   4.604 -1.7484 -0.0069  0.3344
36013SOL     OW15088   5.460   6.960   2.258  0.5874  0.6008  0.6498
36013SOL    HW115089   5.388   6.901   2.236  0.2130  1.3668 -0.2243
36013SOL    HW215090   5.532   6.902   2.283 -0.1305 -0.1895  0.9294
36014SOL     OW15091   0.578   9.705  11.730 -0.3344  0.4661 -0.4851
36014SOL    HW115092   0.612   9.618  11.751 -0.4449  0.3038 -0.9626
36014SOL    HW215093   0.483   9.695  11.736 -0.3048  1.1143  1.6093
36015SOL     OW15094   3.941   1.246   9.540  0.5088  0.4361  0.1606
36015SOL    HW115095   3.953   1.180   9.608  0.3028  1.1946  0.9514
36015SOL    HW215096   3.948   1.329   9.586 -0.1378  0.9587 -0.6558
36016SOL     OW15097   4.289   2.497   7.868 -0.1675  0.0232  0.0320
36016SOL    HW115098   4.297   2.468   7.777 -0.4708  2.7362 -0.9519
36016SOL    HW215099   4.204   2.464   7.897  0.3431 -1.6903 -0.2797
36017SOL     OW15100   8.816   2.883   1.170  0.0678 -0.2327 -0.0391
36017SOL    HW115101   8.732   2.925   1.152 -0.7198 -1.7303  0.0025
36017SOL    HW215102   8.879   2.955   1.169 -1.0953  0.8230 -0.7936
36018SOL     OW15103   1.427   9.888   4.740 -0.2529 -0.3026  0.4898
36018SOL    HW115104   1.368   9.954   4.777 -0.4745  0.0997 -0.5593
36018SOL    HW215105   1.512   9.932   4.733 -0.3498 -0.1949 -0.0130
36019SOL     OW15106   9.038  12.028   0.540 -0.0358  0.1162  0.5822
36019SOL    HW115107   8.979  11.954   0.522 -1.3040  1.2702 -0.2657
36019SOL    HW215108   9.009  12.061   0.625  1.3096 -1.0386  1.5287
36020SOL     OW15109   0.827   0.460   2.446  0.1624 -0.3723  0.4567
36020SOL    HW115110   0.849   0.553   2.440 -3.5077  0.7162  1.4181
36020SOL    HW215111   0.769   0.454   2.521  0.2888 -3.5045  0.4221
36021SOL     OW15112   9.013   7.636   9.500  0.6511  0.5387  0.1390
36021SOL    HW115113   8.961   7.696   9.553 -1.5301 -0.6186 -0.5753
36021SOL    HW215114   9.045   7.690   9.427  0.6357  1.3164  0.6903
36022SOL     OW15115   4.900  11.905   2.580  0.7552 -0.3672  0.4763
36022SOL    HW115116   4.881  11.830   2.523 -0.6810  1.3820 -1.4967
36022SOL    HW215117   4.834  11.899   2.649 -0.0971 -0.2872 -0.3210
36023SOL     OW15118  11.798   7.302  12.032 -0.7311 -0.2877  0.0474
36023SOL    HW115119  11.826   7.249  12.106  2.0715  0.2811 -0.4804
36023SOL    HW215120  11.711   7.333  12.055 -0.0529 -0.3249  3.0175
36024SOL     OW15121   9.140   8.921   0.723 -0.0217 -0.0943  0.8725
36024SOL    HW115122   9.200   8.939   0.650  0.2967 -1.0980  0.8713
36024SOL    HW215123   9.053   8.940   0.688  0.2717  1.3263  0.8558
36025SOL     OW15124  10.587   6.959   9.072 -0.5009 -0.0105  0.1212
36025SOL    HW115125  10.563   6.881   9.023 -1.4430 -0.3189  1.0299
36025SOL    HW215126  10.548   7.031   9.023 -0.5084 -0.2132 -0.1722
36026SOL     OW15127  11.905   7.278   2.932  0.4781 -0.1114 -0.1507
36026SOL    HW115128  11.996   7.306   2.943  0.1272  0.1816  2.8268
36026SOL    HW215129  11.883   7.302   2.842  2.4147  2.6158 -0.0272
36027SOL     OW15130   6.054  12.012   9.072 -0.0364  0.5364  0.5522
36027SOL    HW115131   6.033  12.010   9.165  0.3861  0.3789  0.6476
36027SOL    HW215132   6.097  11.928   9.056 -0.7647  0.2487  0.0529
36028SOL     OW15133   6.138   0.268   4.440 -0.4210  0.7235 -0.2483
36028SOL    HW115134   6.148   0.326   4.365 -1.8339 -0.1784 -1.1574
36028SOL    HW215135   6.084   0.318   4.502  1.1563  1.6668  0.4567
36029SOL     OW15136   3.896  10.164   2.644 -0.2001 -0.0587  0.0463
36029SOL    HW115137   3.848  10.186   2.723  0.1407  1.6949 -0.2040
36029SOL    HW215138   3.848  10.207   2.573  2.0111  2.3505 -0.1370
36030SOL     OW15139   2.709   6.788   4.204  0.1131 -0.0266  0.0272
36030SOL    HW115140   2.734   6.714   4.150  0.4096 -1.3136  1.8239
36030SOL    HW215141   2.658   6.845   4.146 -1.3344 -2.3121 -1.0561
36031SOL     OW15142  12.287   9.491   8.592 -0.1924 -0.2310  0.2377
36031SOL    HW115143  12.307   9.444   8.673 -0.9034  0.2123  0.6778
36031SOL    HW215144  12.273   9.582   8.620  2.5192  0.6004 -0.7441
36032SOL     OW15145  12.140   7.595   3.742  0.0764 -0.0826  0.1462
36032SOL    HW115146  12.236   7.596   3.745  0.1047 -0.9761 -0.1652
36032SOL    HW215147  12.117   7.680   3.706  0.7148  0.4735  1.0051
36033SOL     OW15148   5.099  10.858  11.208  0.1910 -0.2863  0.2920
36033SOL    HW115149   5.185  10.816  11.196  0.0537 -1.5059  2.8908
36033SOL    HW215150   5.036  10.788  11.190 -0.1844  0.0433  0.3254
36034SOL     OW15151   0.362   3.140   2.020  0.0784  0.1235 -0.0076
36034SOL    HW115152   0.428   3.091   2.070  1.1998  0.1688 -1.3953
36034SOL    HW215153   0.382   3.232   2.038 -0.3236  0.1311  0.4393
36035SOL     OW15154  12.356   4.186  12.085  0.4621 -0.9928  0.5117
36035SOL    HW115155  12.349   4.154  11.995  2.6003  1.0497 -0.4807
36035SOL    HW215156  12.445   4.164  12.111 -0.3850 -2.3525  2.5498
36036SOL     OW15157   9.709   6.886  11.834 -0.3132  1.0187  0.3003
36036SOL    HW115158   9.772   6.930  11.776 -1.8252  1.8321 -0.7861
36036SOL    HW215159   9.729   6.793  11.823  1.7934  1.2840  1.2983
36037SOL     OW15160   8.817   3.712   2.901 -0.6333 -0.4395  0.4422
36037SOL    HW115161   8.730   3.678   2.881 -1.5560  1.0354  1.7532
36037SOL    HW215162   8.806   3.807   2.903  1.1057 -0.2018  0.2447
36038SOL     OW15163   2.161   8.465   0.380 -0.0437  0.6135  0.1432
36038SOL    HW115164   2.154   8.373   0.405  0.6740  0.7721  0.9572
36038SOL    HW215165   2.209   8.463   0.297 -2.5629  0.0817 -1.4226
36039SOL     OW15166  12.161  10.605   8.850 -0.1246  0.6941  0.2061
36039SOL    HW115167  12.170  10.605   8.945  1.1457  1.8310  0.1270
36039SOL    HW215168  12.092  10.669   8.832  0.5462  1.4743  0.3303
36040SOL     OW15169   4.613   4.027   3.906  0.0529  0.0434 -0.0131
36040SOL    HW115170   4.704   4.054   3.911  0.4024 -0.8437 -1.1586
36040SOL    HW215171   4.616   3.943   3.861 -1.1579 -0.9458  1.6460
36041SOL     OW15172   7.988   6.291   8.255  0.1386  0.1482 -0.2132
36041SOL    HW115173   8.028   6.235   8.321  2.7745  1.5583 -0.4734
36041SOL    HW215174   8.056   6.304   8.189 -1.7112  0.4630 -2.1953
36042SOL     OW15175   1.301   3.403   1.537 -0.1690  0.5182 -0.1540
36042SOL    HW115176   1.261   3.322   1.505 -0.6002  0.9263 -0.6690
36042SOL    HW215177   1.391   3.400   1.504 -0.2962  0.4211 -0.5006
36043SOL     OW15178   5.106   9.363   5.806 -0.3430  0.4186 -0.5652
36043SOL    HW115179   5.145   9.384   5.721  0.1745 -1.4142 -0.8188
36043SOL    HW215180   5.086   9.270   5.801  0.4146  0.0926  1.6027
36044SOL     OW15181   7.727   0.877   3.239  0.1430 -0.4183  0.0041
36044SOL    HW115182   7.685   0.835   3.314  1.3514  0.8810  1.4874
36044SOL    HW215183   7.660   0.879   3.171 -1.2524 -0.8951  1.3276
36045SOL     OW15184   7.121   9.237   8.631  0.6349 -0.2170 -0.0765
36045SOL    HW115185   7.151   9.269   8.546 -0.7892  0.2286 -0.4333
36045SOL    HW215186   7.096   9.146   8.614  2.4730 -0.8608  0.4104
36046SOL     OW15187  10.096   5.172  10.122  1.1332  0.7082 -0.8464
36046SOL    HW115188  10.180   5.173  10.076  0.6752  0.5783 -1.6929
36046SOL    HW215189  10.049   5.098  10.085 -0.3917  2.2945 -2.2933
36047SOL     OW15190  10.338   1.611   1.623  0.3029 -0.0664 -0.0674
36047SOL    HW115191  10.337   1.566   1.538  0.2243  0.6837 -0.4661
36047SOL    HW215192  10.285   1.689   1.610  0.3794  0.1101  0.6492
36048SOL     OW15193   0.730   4.918  10.342 -0.4381 -0.3951 -0.3968
36048SOL    HW115194   0.673   4.893  10.415  0.4076  0.2137  0.4965
36048SOL    HW215195   0.691   4.876  10.265 -2.1557  0.1091  0.1643
36049SOL     OW15196  11.206   3.585  10.103 -0.5297 -0.2815  0.3976
36049SOL    HW115197  11.282   3.620  10.150  0.3043 -1.1420 -0.3062
36049SOL    HW215198  11.199   3.495  10.133 -0.6963 -0.4875 -0.2586
36050SOL     OW15199   7.006   9.836   5.444 -0.2105 -0.4330 -0.7451
36050SOL    HW115200   7.043   9.889   5.515  1.8999 -0.4957 -1.7259
36050SOL    HW215201   7.081   9.793   5.405 -1.5388 -1.8023 -1.9158
36051SOL     OW15202   2.585   3.394   7.951 -0.3557 -0.0830 -0.5636
36051SOL    HW115203   2.628   3.375   8.035 -1.8815  1.0242  0.5280
36051SOL    HW215204   2.616   3.325   7.893  0.6417 -0.9866  0.9459
36052SOL     OW15205   0.861   9.351  11.963  0.0738  0.1848 -0.3476
36052SOL    HW115206   0.929   9.397  12.012 -1.3387  2.0582 -0.0150
36052SOL    HW215207   0.795   9.328  12.029 -0.9921  1.1028 -1.0495
36053SOL     OW15208   0.267   7.331  10.108 -0.3541  0.1462 -0.2636
36053SOL    HW115209   0.177   7.335  10.142 -0.1891 -0.5681  0.2824
36053SOL    HW215210   0.255   7.318  10.013 -0.8185  0.8664 -0.3113
36054SOL     OW15211   8.438   6.060   0.435  0.4312 -0.5940 -0.3310
36054SOL    HW115212   8.379   5.991   0.465  0.2103  0.8088  2.8796
36054SOL    HW215213   8.462   6.108   0.514  3.3013  0.9476 -1.9491
36055SOL     OW15214   4.222   4.398   0.883  0.6373 -0.0280 -0.2213
36055SOL    HW115215   4.182   4.435   0.804  0.5669  2.3436  0.8458
36055SOL    HW215216   4.234   4.305   0.862 -2.6802 -0.2755 -1.6721
36056SOL     OW15217   2.770   7.790   0.555 -0.3026 -0.5408 -0.2984
36056SOL    HW115218   2.772   7.721   0.621 -0.1593 -1.4003 -1.1775
36056SOL    HW215219   2.781   7.871   0.604 -0.5422 -1.1387  0.7593
36057SOL     OW15220   9.525  12.182   6.917 -0.1739  0.2010 -0.3773
36057SOL    HW115221   9.563  12.269   6.915 -0.7130  0.4808  0.7501
36057SOL    HW215222   9.555  12.141   6.836  1.7040  0.7406 -0.0167
36058SOL     OW15223   9.321   3.789   1.076  0.6132  0.1193 -0.5956
36058SOL    HW115224   9.383   3.849   1.118 -1.5433  0.9130  1.7023
36058SOL    HW215225   9.318   3.714   1.135  1.7391 -1.4306 -2.3941
36059SOL     OW15226   0.477   2.245   1.209 -0.4452 -0.2181 -0.2797
36059SOL    HW115227   0.417   2.179   1.243  0.8417 -1.6185 -0.6172
36059SOL    HW215228   0.421   2.308   1.164 -1.8729 -0.0718  1.5886
36060SOL     OW15229  10.688  11.260  10.762 -0.0480  0.3990 -0.1307
36060SOL    HW115230  10.724  11.225  10.843 -0.6712  0.9956  0.4168
36060SOL    HW215231  10.725  11.348  10.755 -1.4295  1.0654  0.4962
36061SOL     OW15232   1.586   1.602   2.864  0.1566 -0.2499 -0.4219
36061SOL    HW115233   1.528   1.604   2.788  2.4873  0.6019 -2.3246
36061SOL    HW215234   1.638   1.522   2.852  0.5744 -0.0927  0.2604
36062SOL     OW15235   1.509  11.231   6.775 -0.7641  0.2469 -0.0117
36062SOL    HW115236   1.486  11.140   6.760  1.5377 -0.4031  0.1057
36062SOL    HW215237   1.437  11.281   6.735 -0.9439 -1.5694 -2.0839
36063SOL     OW15238   7.348   0.315   9.786  0.6706  0.4851 -0.2936
36063SOL    HW115239   7.374   0.356   9.869  0.3133  0.0654  0.0309
36063SOL    HW215240   7.252   0.322   9.786  0.7232  1.4634 -1.1850
36064SOL     OW15241  10.158   6.350   8.707  0.3370 -0.2973 -0.1408
36064SOL    HW115242  10.067   6.381   8.706  0.9255  1.5903 -1.6024
36064SOL    HW215243  10.191   6.374   8.793  0.1801  1.4566 -0.5320
36065SOL     OW15244   8.525   4.096   2.908 -0.6080 -0.1277 -0.5341
36065SOL    HW115245   8.456   4.129   2.849 -1.2643  0.3304  0.4546
36065SOL    HW215246   8.501   4.132   2.994  0.2889 -0.8457  0.0247
36066SOL     OW15247   8.551  12.492   7.196 -0.1659 -0.1991 -0.0508
36066SOL    HW115248   8.578  12.401   7.181 -0.9062 -0.1825 -1.6606
36066SOL    HW215249   8.522  12.494   7.287  0.7283 -1.3486  0.2793
36067SOL     OW15250   9.569   8.637   5.516 -0.2682 -0.2368 -0.3648
36067SOL    HW115251   9.575   8.590   5.599  0.3968  0.1280 -0.2008
36067SOL    HW215252   9.504   8.705   5.532  1.1895  1.0115  0.4561
36068SOL     OW15253   2.153   2.258   7.143  0.1323  0.1406  0.5726
36068SOL    HW115254   2.078   2.228   7.092  1.2212  0.5203 -1.3357
36068SOL    HW215255   2.180   2.181   7.194 -1.3423 -0.0771  1.0541
36069SOL     OW15256  11.175   5.800   3.175 -0.5199  0.2593  0.0702
36069SOL    HW115257  11.088   5.772   3.145 -0.3964 -0.0054 -0.0418
36069SOL    HW215258  11.165   5.810   3.270 -0.8133  0.7451 -0.0101
36070SOL     OW15259   1.713  12.421   6.812 -0.4936 -0.2704 -0.6471
36070SOL    HW115260   1.768  12.429   6.734  0.6633 -1.1450  0.0520
36070SOL    HW215261   1.697  12.328   6.822 -0.3076 -0.2057  0.3742
36071SOL     OW15262   5.655   8.375  11.770 -0.5793 -0.3895 -0.4277
36071SOL    HW115263   5.586   8.440  11.775  0.5976  0.8288  1.2209
36071SOL    HW215264   5.655   8.333  11.856  0.4711 -0.6194 -0.5185
36072SOL     OW15265   8.635   6.477   8.843 -0.2994  0.0272 -0.1290
36072SOL    HW115266   8.652   6.570   8.859  1.0340 -0.1269 -0.4712
36072SOL    HW215267   8.641   6.436   8.929 -0.6905  0.2316 -0.0050
36073SOL     OW15268   5.290   7.032  12.210 -0.6877  0.5542  0.4352
36073SOL    HW115269   5.306   7.023  12.116  0.2706 -0.1709  0.6390
36073SOL    HW215270   5.301   6.943  12.244 -1.2107  0.7771  1.2056
36074SOL     OW15271  10.432  12.377   8.232  0.1614 -0.6587  0.6770
36074SOL    HW115272  10.403  12.353   8.320 -0.3221 -0.5805  0.5402
36074SOL    HW215273  10.450  12.471   8.237  0.9524 -0.8187  0.9118
36075SOL     OW15274   7.267   9.365  12.295  0.1484 -0.6866 -0.4135
36075SOL    HW115275   7.175   9.340  12.308 -0.4343  0.2424 -2.3776
36075SOL    HW215276   7.316   9.285  12.313 -0.9506 -1.0235  1.3507
36076SOL     OW15277   5.840   6.467   5.398 -0.3618 -0.1608  0.0499
36076SOL    HW115278   5.792   6.385   5.387 -0.3208 -0.0881 -0.7801
36076SOL    HW215279   5.789   6.531   5.349 -0.3679  0.2987  0.6561
36077SOL     OW15280   4.618   9.018   7.027 -0.1144 -0.3471  0.2287
36077SOL    HW115281   4.622   8.987   6.937 -0.6464 -0.6388  0.3021
36077SOL    HW215282   4.575   9.103   7.022  0.7986  0.1210  0.0967
36078SOL     OW15283   3.119  11.685   5.806 -0.6333  0.7111  0.2453
36078SOL    HW115284   3.056  11.664   5.737 -1.0133  0.2597  0.7234
36078SOL    HW215285   3.066  11.693   5.886 -0.3031  1.9648  0.3674
36079SOL     OW15286   7.889   8.182   7.078 -0.0063 -0.5065  0.3735
36079SOL    HW115287   7.932   8.097   7.066  1.0159  0.1039 -0.5220
36079SOL    HW215288   7.946   8.229   7.139  0.3503  0.1123 -0.4086
36080SOL     OW15289   7.997   2.644   8.864  0.2997 -0.3511 -0.0352
36080SOL    HW115290   8.021   2.551   8.859  0.4790 -0.2464 -1.5582
36080SOL    HW215291   7.908   2.644   8.898 -0.3499 -1.2087 -1.6283
36081SOL     OW15292   4.011   8.389   9.234  0.4745 -0.0271  0.1813
36081SOL    HW115293   3.969   8.363   9.316 -1.2573 -1.0533 -0.9597
36081SOL    HW215294   3.940   8.420   9.179  1.6392  0.9120 -0.8576
36082SOL     OW15295  10.405   6.278   2.375  0.5294 -0.2076 -0.1595
36082SOL    HW115296  10.432   6.308   2.288  0.7994  1.4699  0.4582
36082SOL    HW215297  10.483   6.236   2.411  0.7529  0.0385 -0.3463
36083SOL     OW15298  12.449  10.204   0.943 -0.4115  0.1958 -0.2683
36083SOL    HW115299  12.449  10.266   1.016 -1.5029  0.4905 -0.5017
36083SOL    HW215300  12.485  10.123   0.980  1.2201  0.9893 -0.0060
36084SOL     OW15301   3.486   1.507   1.131  0.9922 -0.0581  0.1748
36084SOL    HW115302   3.476   1.585   1.187  1.0091  0.6273 -0.7556
36084SOL    HW215303   3.398   1.486   1.102  1.1672  0.6504 -0.9287
36085SOL     OW15304  11.971   9.331   9.400 -1.0312 -0.0469  0.0166
36085SOL    HW115305  12.009   9.418   9.383  1.4320 -0.7580  1.3475
36085SOL    HW215306  11.929   9.340   9.485 -0.4932 -0.2353  0.3034
36086SOL     OW15307   1.273   2.665   7.077  0.4079  0.2133 -0.5037
36086SOL    HW115308   1.273   2.614   7.158  2.6287  1.2799  0.2468
36086SOL    HW215309   1.299   2.753   7.104  1.9804  0.4030 -2.4418
36087SOL     OW15310   9.141   1.557   0.693  0.1496 -0.2025 -0.7764
36087SOL    HW115311   9.076   1.487   0.687 -0.8477  0.7179 -0.8302
36087SOL    HW215312   9.126   1.597   0.778  0.9035 -0.2148 -0.6260
36088SOL     OW15313  11.922   5.358   2.573 -0.6315  0.0656 -0.3995
36088SOL    HW115314  11.897   5.448   2.550  0.3343  0.9713  1.8193
36088SOL    HW215315  11.942   5.362   2.666  1.6152 -1.9674 -0.7121
36089SOL     OW15316   1.137  11.938   0.211  0.5160 -0.0734  0.0561
36089SOL    HW115317   1.125  11.851   0.249  0.4426  0.3989  1.1456
36089SOL    HW215318   1.219  11.969   0.248  0.2661  0.5364  0.1139
36090SOL     OW15319  12.036   5.170   6.268 -0.0460 -0.5787  0.2749
36090SOL    HW115320  11.968   5.225   6.230  0.7542 -0.8535 -1.6565
36090SOL    HW215321  12.111   5.182   6.211  0.8135 -2.0411  1.0471
36091SOL     OW15322   9.886  11.835   9.729 -0.0897  0.0806  0.6690
36091SOL    HW115323   9.836  11.836   9.648 -0.7104 -0.7651  1.0337
36091SOL    HW215324   9.933  11.752   9.728 -0.6340 -0.2519  1.4874
36092SOL     OW15325   7.524   6.478   7.080  0.6445  0.1154  0.2304
36092SOL    HW115326   7.569   6.407   7.033  1.3477  1.3371 -1.0132
36092SOL    HW215327   7.584   6.552   7.075 -0.1629  0.8801  1.3332
36093SOL     OW15328   0.764   1.584   5.874 -0.0718 -0.1109  0.5189
36093SOL    HW115329   0.724   1.666   5.848  0.9596 -0.1712 -1.4957
36093SOL    HW215330   0.813   1.605   5.953 -0.3419  1.0492  0.3954
36094SOL     OW15331  12.004   3.754   4.808  0.0701  0.3862 -0.1716
36094SOL    HW115332  12.043   3.666   4.807  0.1482  0.4153 -1.0994
36094SOL    HW215333  12.073   3.811   4.842 -0.3247 -0.0479  1.4118
36095SOL     OW15334   4.344   0.084   8.098  0.4894 -0.1227  0.0082
36095SOL    HW115335   4.430   0.045   8.116 -0.0195 -1.6110 -0.5869
36095SOL    HW215336   4.357   0.178   8.110  2.1139 -0.3458  0.2473
36096SOL     OW15337   7.865   7.248   5.869 -0.2934  0.3484  0.1624
36096SOL    HW115338   7.839   7.162   5.900  0.3643  0.3033  0.6149
36096SOL    HW215339   7.869   7.240   5.774 -0.4782 -0.0440  0.1870
36097SOL     OW15340   4.605   2.009  11.905  0.2676 -0.1489  0.3644
36097SOL    HW115341   4.695   2.000  11.936  0.5049  1.8248  0.3478
36097SOL    HW215342   4.614   2.030  11.812 -0.0217  2.6447  0.8759
36098SOL     OW15343   6.102   3.761   4.955  0.1033 -0.1800  0.2367
36098SOL    HW115344   6.075   3.715   5.034 -1.7941 -0.1764 -0.3519
36098SOL    HW215345   6.056   3.715   4.884  1.1084  0.3288 -0.7756
36099SOL     OW15346   2.555   3.254   8.453 -0.8113  0.5564 -0.1965
36099SOL    HW115347   2.568   3.172   8.500  1.2562  0.3015 -1.1055
36099SOL    HW215348   2.507   3.310   8.514  1.1336  0.0031  1.9415
36100SOL     OW15349  12.552  10.838   4.097  0.0355  0.8024  0.0964
36100SOL    HW115350  12.542  10.894   4.020  0.5412  0.0264 -0.5539
36100SOL    HW215351  12.646  10.820   4.103 -0.0169  0.7376  0.8104
36101SOL     OW15352   0.199   4.710   9.761 -0.0299  0.1273  0.5450
36101SOL    HW115353   0.240   4.730   9.845  1.2058 -1.0726  0.2500
36101SOL    HW215354   0.139   4.784   9.746  1.2584  1.4146  1.4764
36102SOL     OW15355   1.641   5.433   3.913  0.3403  0.8047  0.5839
36102SOL    HW115356   1.674   5.426   4.003  2.5538  0.1702 -0.2079
36102SOL    HW215357   1.708   5.390   3.860 -2.1284 -1.2032 -1.1525
36103SOL     OW15358  11.883   3.447   2.667 -0.5829  0.6668 -0.0927
36103SOL    HW115359  11.842   3.429   2.752 -0.6033  1.6807  0.1176
36103SOL    HW215360  11.876   3.542   2.656  0.1896  0.6472 -0.8360
36104SOL     OW15361   6.384   5.194   4.127 -0.2343 -0.4830 -0.1098
36104SOL    HW115362   6.473   5.162   4.136 -0.5018 -0.9910  0.8920
36104SOL    HW215363   6.386   5.283   4.162 -0.1217 -0.4961 -0.0851
36105SOL     OW15364   6.419   8.354  11.695 -0.1483  0.3535 -0.0997
36105SOL    HW115365   6.325   8.350  11.679 -0.3192 -1.9285  1.0395
36105SOL    HW215366   6.442   8.266  11.724  2.3869  0.8057 -0.5012
36106SOL     OW15367   4.193   3.961   1.488 -0.2865 -0.9006 -0.0278
36106SOL    HW115368   4.157   3.877   1.460 -1.3071 -0.7486  0.7798
36106SOL    HW215369   4.123   4.002   1.538 -0.2285  0.9450 -1.3786
36107SOL     OW15370   2.261   6.366   3.378 -0.1964  0.3767  0.0232
36107SOL    HW115371   2.189   6.347   3.318 -0.3933  1.1564  0.0046
36107SOL    HW215372   2.323   6.294   3.365 -0.5529  0.1786 -0.6114
36108SOL     OW15373   1.518   4.388   2.888  0.5598 -0.3539  0.2114
36108SOL    HW115374   1.475   4.333   2.822  0.1970  0.3517 -0.1408
36108SOL    HW215375   1.500   4.343   2.971 -1.2079  0.1359  0.1253
36109SOL     OW15376   3.954   2.451   0.164  0.6863  0.2367  0.0336
36109SOL    HW115377   3.883   2.427   0.224  1.9096 -0.4966  1.2496
36109SOL    HW215378   3.911   2.468   0.080 -1.0794  1.2405  1.0862
36110SOL     OW15379  11.195   5.709   7.557  0.2799  0.2370  0.1146
36110SOL    HW115380  11.280   5.695   7.515 -0.1936 -0.2855 -0.7146
36110SOL    HW215381  11.136   5.647   7.512 -0.1140 -0.8775  2.0500
36111SOL     OW15382   6.501   8.891  12.500  0.0331 -0.3151  0.1659
36111SOL    HW115383   6.513   8.932  12.415 -1.5964 -0.7001 -0.2775
36111SOL    HW215384   6.572   8.926  12.554  1.4012 -0.4346 -1.4630
36112SOL     OW15385   2.347   3.735   0.413 -0.1595 -0.3063  0.3614
36112SOL    HW115386   2.327   3.827   0.398 -0.4121 -0.4603 -0.3060
36112SOL    HW215387   2.307   3.690   0.338  0.7094 -0.8610  0.2218
36113SOL     OW15388   4.158   4.831   9.854  0.9684 -0.2252 -0.0830
36113SOL    HW115389   4.189   4.897   9.916  0.5818 -0.2504  0.1448
36113SOL    HW215390   4.235   4.777   9.835  1.1943  0.0562  0.0291
36114SOL     OW15391   2.447   8.804   4.537 -0.3208 -0.5540  0.0438
36114SOL    HW115392   2.357   8.778   4.516 -0.2442 -1.9770  1.3176
36114SOL    HW215393   2.497   8.722   4.535  1.0279  0.2538 -0.9174
36115SOL     OW15394  11.405   2.993   6.649 -0.1553 -0.4026 -0.0708
36115SOL    HW115395  11.419   2.917   6.705 -0.0882  0.8116  1.6423
36115SOL    HW215396  11.438   3.067   6.700  1.4385  0.6139 -2.4071
36116SOL     OW15397   9.060   8.387   1.559  0.1735 -0.3589  0.0729
36116SOL    HW115398   8.974   8.429   1.557 -0.1525 -1.0240 -1.3190
36116SOL    HW215399   9.077   8.372   1.652 -0.8302  0.5505  0.4211
36117SOL     OW15400   1.054   4.641   6.078  0.3421  0.2208  0.5578
36117SOL    HW115401   1.010   4.723   6.052 -0.6066 -0.3836  0.1982
36117SOL    HW215402   0.983   4.586   6.112  0.6944 -1.0352 -0.6410
36118SOL     OW15403  11.542  12.042   9.073 -0.2461  0.4062 -0.5564
36118SOL    HW115404  11.449  12.043   9.052 -0.1084  1.4468 -1.1739
36118SOL    HW215405  11.545  12.040   9.169 -0.9273  2.1554 -0.4686
36119SOL     OW15406   5.062   9.116  10.823 -0.2668  0.0116  0.4735
36119SOL    HW115407   5.043   9.033  10.780  0.1909  0.5908 -0.8951
36119SOL    HW215408   5.051   9.182  10.754  2.1531  0.8197  0.7700
36120SOL     OW15409  10.857  11.092   7.285  0.7189 -0.3232  0.2228
36120SOL    HW115410  10.941  11.077   7.242  0.9983 -1.0274  0.9926
36120SOL    HW215411  10.809  11.011   7.272 -0.4963  0.6212 -1.5939
36121SOL     OW15412  11.953   3.554   7.312 -0.4128  0.0593 -0.0516
36121SOL    HW115413  11.871   3.543   7.361 -0.9521 -2.2838 -1.3228
36121SOL    HW215414  11.973   3.466   7.279  0.0002  1.3822 -3.8421
36122SOL     OW15415   4.484   7.682   0.182  0.3692 -0.5705  0.2423
36122SOL    HW115416   4.556   7.621   0.196  0.6522 -0.1562  0.6092
36122SOL    HW215417   4.487   7.741   0.257 -2.5920 -2.6961  2.3133
36123SOL     OW15418   5.189   9.790   7.295 -0.5555  0.6804  0.0807
36123SOL    HW115419   5.185   9.857   7.364 -0.1195 -0.9784  1.8263
36123SOL    HW215420   5.111   9.736   7.309 -1.0692  0.9718 -1.4972
36124SOL     OW15421   5.954   2.194   0.313  0.3499 -0.6570 -0.1032
36124SOL    HW115422   5.863   2.167   0.327 -0.1252  0.8775 -0.0330
36124SOL    HW215423   5.953   2.289   0.326  1.9422 -0.5977 -0.2425
36125SOL     OW15424   9.489  11.516   2.296  0.5932  0.0928 -0.0270
36125SOL    HW115425   9.562  11.462   2.328  0.1954  0.2240  1.1469
36125SOL    HW215426   9.522  11.605   2.302  0.4164  0.1368  0.2809
36126SOL     OW15427   7.086   7.918   5.918  0.3848  0.0958  0.3548
36126SOL    HW115428   7.090   7.932   5.824 -0.0416 -1.0178  0.1579
36126SOL    HW215429   7.145   7.984   5.955  0.0613  0.9585 -0.6364
36127SOL     OW15430   4.880   4.089   5.920 -0.2772 -0.3728 -0.3581
36127SOL    HW115431   4.822   4.015   5.937  0.3200 -0.5788  0.9268
36127SOL    HW215432   4.968   4.050   5.916  0.1321  0.3201  1.0938
36128SOL     OW15433   2.118  10.507   2.552 -0.2548  0.0613  0.4305
36128SOL    HW115434   2.185  10.537   2.613  0.9000 -0.5144 -0.5249
36128SOL    HW215435   2.116  10.412   2.562 -0.5313  0.0218  0.0460
36129SOL     OW15436  10.554   9.753   0.733  0.0728 -0.2665  0.0540
36129SOL    HW115437  10.565   9.666   0.771  0.8194 -0.0384  0.3638
36129SOL    HW215438  10.479   9.790   0.780  0.2587 -0.4359  0.4914
36130SOL     OW15439   2.389   7.912   3.370 -0.0395  0.2630  0.0913
36130SOL    HW115440   2.401   7.880   3.280  2.3758 -1.6619  0.9793
36130SOL    HW215441   2.455   7.981   3.379 -0.2375  0.4117  0.4224
36131SOL     OW15442   5.189   6.536   4.007 -0.0196  0.6668 -0.2199
36131SOL    HW115443   5.240   6.455   4.007 -0.5302  0.3273 -1.0709
36131SOL    HW215444   5.119   6.520   4.070  1.1288  1.2947  1.2726
36132SOL     OW15445  12.438   0.386   0.571  0.2198 -0.6586 -0.5000
36132SOL    HW115446  12.408   0.460   0.518 -0.7212 -1.6285 -1.3612
36132SOL    HW215447  12.467   0.426   0.654 -2.2483  0.4974 -0.1038
36133SOL     OW15448   5.329   1.696   3.824 -0.4045  0.1305 -0.3040
36133SOL    HW115449   5.402   1.717   3.766 -0.0982  0.6362  0.2514
36133SOL    HW215450   5.364   1.711   3.912 -1.3232  0.8464 -0.0546
36134SOL     OW15451   2.826   1.410  10.111 -0.3890  0.5029  0.7879
36134SOL    HW115452   2.731   1.400  10.105 -0.5965  2.2807  0.5232
36134SOL    HW215453   2.857   1.329  10.152 -1.9941 -0.1620  0.7317
36135SOL     OW15454   9.122   4.958   8.816  0.1714  0.5523 -0.3520
36135SOL    HW115455   9.134   4.863   8.806  2.8000  0.9733 -2.8421
36135SOL    HW215456   9.053   4.980   8.754 -0.9691  0.2271  0.7686
36136SOL     OW15457   0.407  11.227   8.926 -0.2461  0.5087  0.3675
36136SOL    HW115458   0.336  11.165   8.910  0.1656  0.2366 -0.4576
36136SOL    HW215459   0.425  11.219   9.020 -1.6985  1.0252  0.7161
36137SOL     OW15460   8.675   4.681   4.423 -0.0863 -0.8245 -0.2623
36137SOL    HW115461   8.663   4.709   4.332  2.3948 -0.6232 -0.6082
36137SOL    HW215462   8.716   4.595   4.416  1.3459 -0.2550  0.5801
36138SOL     OW15463  12.517   0.183  10.395 -0.0340  0.0563 -0.1016
36138SOL    HW115464  12.448   0.175  10.461  0.9564 -1.5565  0.8023
36138SOL    HW215465  12.553   0.095  10.387  1.3671  0.6871 -1.1660
36139SOL     OW15466   3.331   0.205  10.294 -0.4091 -0.6223  0.5632
36139SOL    HW115467   3.317   0.112  10.276 -1.5642 -0.2289 -0.6759
36139SOL    HW215468   3.423   0.220  10.272  0.0223 -1.6255  1.5683
36140SOL     OW15469   9.888  11.145   3.282 -0.5878  0.3512 -0.0106
36140SOL    HW115470   9.940  11.187   3.351 -1.1370  0.2097  0.5022
36140SOL    HW215471   9.868  11.059   3.317 -0.4085  0.0721 -0.5898
36141SOL     OW15472   7.505   3.995  12.267  0.2150 -0.2824 -0.3066
36141SOL    HW115473   7.464   3.921  12.312  0.6730 -0.1708  0.3124
36141SOL    HW215474   7.503   4.066  12.331 -1.5046  0.7005 -1.3632
36142SOL     OW15475  11.754   0.545   9.339 -0.3693 -0.0871  0.2636
36142SOL    HW115476  11.673   0.567   9.292  0.3637  3.3770  0.3804
36142SOL    HW215477  11.809   0.503   9.273 -0.1947  2.6940 -1.4947
36143SOL     OW15478   7.066   0.059  10.940  0.0504 -0.9206  0.9475
36143SOL    HW115479   7.101  -0.019  10.898  0.9672  0.3605 -0.7615
36143SOL    HW215480   6.987   0.029  10.984  0.8090 -2.9592  1.0154
36144SOL     OW15481   3.276   5.834   6.783 -0.1876  0.1546  0.3419
36144SOL    HW115482   3.228   5.917   6.781 -0.4058  0.0298  0.2502
36144SOL    HW215483   3.208   5.768   6.799  0.0947  0.0721  1.2298
36145SOL     OW15484   0.521   4.790   6.677 -0.3307  0.1432 -0.6291
36145SOL    HW115485   0.577   4.867   6.681 -0.1887  0.0103  1.3283
36145SOL    HW215486   0.577   4.718   6.709 -0.9091 -0.4522 -0.9360
36146SOL     OW15487   6.658  11.767  10.345 -0.4521  0.2505  0.4530
36146SOL    HW115488   6.634  11.851  10.306 -2.6615 -1.5118 -2.5583
36146SOL    HW215489   6.649  11.780  10.439  0.3933  3.6170  0.1830
36147SOL     OW15490   5.291   1.782   4.648  0.3146 -0.1095  0.8211
36147SOL    HW115491   5.288   1.689   4.625 -0.1890 -0.0151  0.5049
36147SOL    HW215492   5.355   1.819   4.587 -1.4298  0.2531 -0.8901
36148SOL     OW15493   0.432  11.290  11.793 -0.0915 -0.1022 -0.5617
36148SOL    HW115494   0.408  11.376  11.827  0.4458 -0.4424  0.7029
36148SOL    HW215495   0.453  11.238  11.870  0.2218 -1.1834 -1.3522
36149SOL     OW15496   1.633   9.354   0.522  0.1646 -0.2643  0.4323
36149SOL    HW115497   1.597   9.316   0.442 -0.0844 -0.3976  0.6060
36149SOL    HW215498   1.641   9.279   0.582 -0.2658 -0.0519  0.7536
36150SOL     OW15499   4.624  11.897   1.944  0.2349 -0.2012  0.2372
36150SOL    HW115500   4.615  11.852   2.028 -0.0341  0.6553  0.6721
36150SOL    HW215501   4.708  11.867   1.910 -0.8898 -2.7673 -0.5286
36151SOL     OW15502   1.138   7.425  11.706 -0.4647  0.4251  0.3310
36151SOL    HW115503   1.111   7.439  11.615 -0.8277  3.0633  0.7692
36151SOL    HW215504   1.232   7.408  11.701 -0.4794  0.5685 -0.5310
36152SOL     OW15505   9.460   6.510   8.793  0.3271  0.1471 -0.8861
36152SOL    HW115506   9.516   6.521   8.716  0.4085  0.6029 -0.7669
36152SOL    HW215507   9.518   6.475   8.860  0.2912 -0.1089 -0.9886
36153SOL     OW15508  10.240   2.943  10.905 -0.0974  0.4212  0.2145
36153SOL    HW115509  10.172   2.956  10.840  0.4807 -1.4026 -0.8345
36153SOL    HW215510  10.313   2.999  10.877 -0.6414  1.3254  0.5715
36154SOL     OW15511   8.898  10.428   7.387 -0.3425 -0.0458 -0.5256
36154SOL    HW115512   8.957  10.413   7.313  0.1545  1.1919 -0.4037
36154SOL    HW215513   8.879  10.341   7.421  1.7251 -0.4610 -0.3307
36155SOL     OW15514   7.722   8.484   3.149 -0.1911  0.5217  0.2379
36155SOL    HW115515   7.719   8.461   3.242  0.8936 -0.3730  0.0729
36155SOL    HW215516   7.789   8.553   3.144  0.1403  0.1912  0.0592
36156SOL     OW15517  12.530  12.565   0.397  0.2187  0.1114  0.6385
36156SOL    HW115518  12.470  12.559   0.471 -2.9127  0.8813 -1.6504
36156SOL    HW215519  12.572  12.651   0.407  0.0285  0.0970  1.6398
36157SOL     OW15520   8.823   8.290   6.264 -0.3483  0.4575  0.2921
36157SOL    HW115521   8.900   8.329   6.223  0.0140  0.7343  1.2203
36157SOL    HW215522   8.752   8.351   6.244 -0.2030  0.5214 -0.0335
36158SOL     OW15523   9.108   8.304   6.606 -0.5495  0.0497  0.2022
36158SOL    HW115524   9.039   8.337   6.664  0.8927 -0.9164  2.6196
36158SOL    HW215525   9.148   8.232   6.655  2.0346  0.4261 -1.1823
36159SOL     OW15526   0.232   6.812   5.588  0.1049  0.0293 -0.1652
36159SOL    HW115527   0.319   6.786   5.620  0.7515  0.1047 -1.7652
36159SOL    HW215528   0.250   6.860   5.507 -1.5032 -1.0559 -1.2151
36160SOL     OW15529  11.702   1.733   8.244  0.2318 -0.4929  0.4424
36160SOL    HW115530  11.611   1.738   8.273 -0.6058 -1.3431 -1.7692
36160SOL    HW215531  11.715   1.642   8.219  0.5985  0.2165 -2.3021
36161SOL     OW15532   9.647   5.375   5.232  0.4264  0.2220  0.0572
36161SOL    HW115533   9.686   5.405   5.150  0.0186  1.5873  0.3458
36161SOL    HW215534   9.660   5.280   5.230 -1.3044 -0.0897 -2.5181
36162SOL     OW15535  12.492   4.614   9.908  0.3261  0.0766 -0.4816
36162SOL    HW115536  12.539   4.583   9.830  1.3148  0.2009  0.0505
36162SOL    HW215537  12.407   4.644   9.874  1.1267  1.0999 -1.6611
36163SOL     OW15538   2.062   5.246   3.796 -0.5961  0.2173  0.0538
36163SOL    HW115539   1.975   5.273   3.764  0.0196  1.5304 -0.5872
36163SOL    HW215540   2.123   5.304   3.751  0.5098  0.4212  1.7105
36164SOL     OW15541  11.432   0.385   5.443 -0.5502  0.2501 -0.6577
36164SOL    HW115542  11.458   0.298   5.474 -2.8547  0.5484  2.5183
36164SOL    HW215543  11.515   0.426   5.416  1.2370 -1.4129  1.8526
36165SOL     OW15544   6.318   0.636   7.801 -0.3346  0.0979  0.2760
36165SOL    HW115545   6.276   0.597   7.878  0.1409 -1.3984 -0.1898
36165SOL    HW215546   6.254   0.623   7.731 -1.0658  2.0727  0.5075
36166SOL     OW15547   7.630   8.833   9.024  0.0429 -0.3695 -0.1173
36166SOL    HW115548   7.670   8.748   9.005 -0.8754 -0.9179  0.3174
36166SOL    HW215549   7.613   8.831   9.118 -1.1157 -0.2126 -0.3062
36167SOL     OW15550  12.154   7.966   2.902  0.3968  0.2529  0.2135
36167SOL    HW115551  12.100   8.045   2.903 -0.0821 -0.0517 -0.6780
36167SOL    HW215552  12.107   7.904   2.958 -0.6190 -0.2727 -1.1587
36168SOL     OW15553   9.790  11.387  10.667 -0.6224  0.1153 -0.1662
36168SOL    HW115554   9.775  11.298  10.697  2.0704 -1.1596 -2.1752
36168SOL    HW215555   9.704  11.428  10.668 -1.7487 -2.1087  1.9456
36169SOL     OW15556   4.965  11.553   6.108 -0.2500  0.4932 -0.1039
36169SOL    HW115557   4.956  11.525   6.017 -0.5730 -0.6786  0.2784
36169SOL    HW215558   4.884  11.600   6.127 -0.8690 -0.6072  0.0391
36170SOL     OW15559   1.347   8.042   2.510  0.1370  0.0048  0.3165
36170SOL    HW115560   1.291   7.971   2.479  0.9595 -1.4062  1.9069
36170SOL    HW215561   1.430   8.030   2.463  0.0304  0.4073  0.0151
36171SOL     OW15562   5.304  12.387   5.504  0.1480 -0.1511 -0.0896
36171SOL    HW115563   5.213  12.389   5.535  0.3931 -0.6146  0.6780
36171SOL    HW215564   5.320  12.296   5.481  0.8235 -0.3505  1.0627
36172SOL     OW15565   4.292   0.044   2.394  0.1021 -0.5396  0.5328
36172SOL    HW115566   4.351   0.000   2.334  0.0741  0.2215 -0.0605
36172SOL    HW215567   4.348   0.106   2.442 -0.1464 -0.0270  0.1747
36173SOL     OW15568   3.083  12.309   0.452 -0.1809  0.0415  0.2168
36173SOL    HW115569   3.003  12.329   0.501  0.1719 -0.8922  1.2324
36173SOL    HW215570   3.055  12.246   0.386 -0.3580  0.0021  0.3270
36174SOL     OW15571   0.181   7.997   2.460 -0.8048  0.2545 -0.1629
36174SOL    HW115572   0.161   7.941   2.385  0.5645  0.0436 -0.4082
36174SOL    HW215573   0.169   8.086   2.428 -0.1702  0.1664 -0.6672
36175SOL     OW15574   6.790   7.818   1.124 -0.4529 -0.0058  0.5319
36175SOL    HW115575   6.754   7.863   1.200 -1.1796  0.7708 -0.2538
36175SOL    HW215576   6.737   7.738   1.116 -1.6460  0.8353 -0.2574
36176SOL     OW15577  10.214   8.252   8.796 -0.4243  0.5356 -0.2815
36176SOL    HW115578  10.299   8.295   8.798  0.1323 -0.5454  1.2582
36176SOL    HW215579  10.172   8.276   8.879 -0.6835 -0.6654 -0.0325
36177SOL     OW15580   7.547   9.385   6.948 -0.6077  0.1773 -0.1772
36177SOL    HW115581   7.625   9.437   6.969 -1.0914  0.9858 -0.3261
36177SOL    HW215582   7.552   9.309   7.005 -0.0600  0.5680  0.3042
36178SOL     OW15583  11.266   2.494  11.585 -0.2800 -0.4937  0.1272
36178SOL    HW115584  11.203   2.457  11.523 -1.4491  1.2489  0.1857
36178SOL    HW215585  11.352   2.475  11.547 -0.9368 -0.3797 -1.4898
36179SOL     OW15586   9.637   2.417   2.500  0.2031  0.3469  0.0013
36179SOL    HW115587   9.575   2.361   2.546  1.4213 -0.6600  0.4487
36179SOL    HW215588   9.654   2.372   2.417  2.4640 -0.9138  1.0447
36180SOL     OW15589   6.584   4.131   8.065 -0.2615  0.2042 -0.0661
36180SOL    HW115590   6.585   4.039   8.039 -1.3946 -0.7007  2.6334
36180SOL    HW215591   6.540   4.130   8.151 -1.5523  3.4398 -0.5701
36181SOL     OW15592   7.789   9.582   7.665 -0.3322 -0.1893 -0.2484
36181SOL    HW115593   7.800   9.554   7.756 -2.7067 -3.2577 -0.7218
36181SOL    HW215594   7.842   9.521   7.614  0.5977  1.1908 -0.9836
36182SOL     OW15595  10.336   2.078  11.986 -0.4802 -0.3093  0.1764
36182SOL    HW115596  10.397   2.068  12.058 -0.6394  0.2206  0.3929
36182SOL    HW215597  10.384   2.047  11.909  0.5781  1.3292  0.1063
36183SOL     OW15598   7.591  11.471   5.177  0.0586  0.1908  0.1186
36183SOL    HW115599   7.668  11.424   5.210 -0.5079 -0.7129  0.1627
36183SOL    HW215600   7.519  11.441   5.231 -0.1149  2.1456  1.0691
36184SOL     OW15601   7.315   1.965   9.618  0.3411  0.2407  0.1947
36184SOL    HW115602   7.240   1.908   9.599 -0.9762  1.8443  0.3565
36184SOL    HW215603   7.347   1.993   9.532  0.0545  0.4021  0.1377
36185SOL     OW15604  10.803   1.314   2.377  0.0973  0.1054 -0.0753
36185SOL    HW115605  10.799   1.409   2.376 -0.1032  0.1047 -1.3163
36185SOL    HW215606  10.716   1.286   2.407  0.1591  0.3099  0.2948
36186SOL     OW15607   3.264   1.971   0.107  0.1198 -0.4145 -0.2357
36186SOL    HW115608   3.185   1.942   0.061  1.3293 -0.5263 -2.3427
36186SOL    HW215609   3.275   2.063   0.083 -0.4337  0.2224  1.7030
36187SOL     OW15610   8.578   6.229  10.022 -0.2169  0.5182 -0.0176
36187SOL    HW115611   8.623   6.300  10.067 -1.5860  0.5657  1.3471
36187SOL    HW215612   8.489   6.262  10.008 -0.8903 -0.9260  0.6829
36188SOL     OW15613   9.350   1.607   9.546  0.0306 -0.6142  0.2435
36188SOL    HW115614   9.353   1.533   9.486  2.4008  1.0758 -1.9791
36188SOL    HW215615   9.277   1.661   9.514  1.4095  0.3847 -1.4432
36189SOL     OW15616  12.535   3.237  10.796  0.3090 -0.6179 -0.1298
36189SOL    HW115617  12.487   3.308  10.840 -2.0077 -1.6566 -0.8523
36189SOL    HW215618  12.575   3.188  10.867  0.7192  0.5354  0.4706
36190SOL     OW15619  12.187   7.837  12.381 -0.4553 -0.2269 -0.0671
36190SOL    HW115620  12.216   7.860  12.292 -1.6409 -1.2724 -0.7617
36190SOL    HW215621  12.092   7.852  12.379 -0.3620  0.6741  1.3406
36191SOL     OW15622  12.240   9.074   2.753 -0.2133  0.1865  0.1177
36191SOL    HW115623  12.177   9.146   2.751  0.1462  0.5210  0.7447
36191SOL    HW215624  12.309   9.104   2.812  0.0733 -0.5606  0.1667
36192SOL     OW15625   0.069  12.177  11.700 -0.2463 -0.0811  0.3154
36192SOL    HW115626   0.138  12.113  11.715 -2.2189 -1.8495  2.6162
36192SOL    HW215627  -0.010  12.125  11.687 -1.8024  1.8657  1.3671
36193SOL     OW15628   4.314  11.736  10.210  0.7551  0.6067 -0.3779
36193SOL    HW115629   4.330  11.831  10.210  1.3515  0.5046 -1.0550
36193SOL    HW215630   4.398  11.697  10.233  0.4929  0.2309 -0.0264
36194SOL     OW15631  12.051  12.174  10.331  0.0297  0.1013 -0.2244
36194SOL    HW115632  12.122  12.199  10.272  0.0927 -1.7309 -0.9980
36194SOL    HW215633  12.004  12.105  10.284 -2.8272  1.8007 -0.0971
36195SOL     OW15634   1.330   8.435   2.455 -0.2385 -0.3755 -0.2738
36195SOL    HW115635   1.289   8.358   2.494  0.1341  0.0086  0.9045
36195SOL    HW215636   1.404   8.401   2.405  0.6667 -0.7007  1.2433
36196SOL     OW15637  11.133   7.586   9.647  0.1152 -0.3150 -0.1098
36196SOL    HW115638  11.204   7.632   9.691  0.1512  0.4539 -0.9243
36196SOL    HW215639  11.075   7.558   9.717  1.3659 -1.2380  0.6005
36197SOL     OW15640  12.455   4.481   4.024 -0.0966 -0.2568  0.5488
36197SOL    HW115641  12.546   4.509   4.017  0.3778 -1.5032  1.2542
36197SOL    HW215642  12.460   4.385   4.027 -1.5729 -0.4479 -1.1751
36198SOL     OW15643   5.491   9.251   9.107  0.5477 -0.1784  0.6248
36198SOL    HW115644   5.441   9.331   9.093 -2.2001 -1.5396  1.8478
36198SOL    HW215645   5.579   9.281   9.130  0.1275  2.3794 -0.7476
36199SOL     OW15646  10.943   6.311   6.755 -0.0646 -0.4106 -0.1036
36199SOL    HW115647  11.036   6.336   6.755 -0.3690  0.9072  1.0556
36199SOL    HW215648  10.925   6.288   6.846 -0.7735 -1.1075 -0.4114
36200SOL     OW15649   6.788   6.744   7.309  0.0417 -0.1389 -0.0399
36200SOL    HW115650   6.877   6.716   7.285  0.1162 -1.3950  1.5043
36200SOL    HW215651   6.761   6.682   7.377 -2.1246  0.0637 -0.6237
36201SOL     OW15652  10.681   9.461   7.478  0.2364  0.4104  0.3555
36201SOL    HW115653  10.735   9.399   7.430 -0.5544 -1.1881  1.4185
36201SOL    HW215654  10.682   9.428   7.568  0.2431  2.2855  1.0796
36202SOL     OW15655   7.636  12.163   9.116  0.1666 -0.0167 -0.5767
36202SOL    HW115656   7.676  12.126   9.194  0.1394 -1.0632 -1.0366
36202SOL    HW215657   7.548  12.187   9.143 -0.8577 -2.9451 -0.8842
36203SOL     OW15658  12.361  11.586   7.094  0.3044  0.1413  0.4319
36203SOL    HW115659  12.319  11.586   7.180 -2.0291  1.1193 -0.6097
36203SOL    HW215660  12.439  11.640   7.105  0.2710 -0.0949  2.0180
36204SOL     OW15661   0.861   8.631   6.118  0.3059  0.3900  0.1237
36204SOL    HW115662   0.945   8.635   6.072  1.0040  0.4016  1.3523
36204SOL    HW215663   0.812   8.706   6.083  0.8813  0.5037 -0.4704
36205SOL     OW15664   0.821  11.334   3.966 -0.1187 -0.4564  0.2084
36205SOL    HW115665   0.907  11.296   3.986  0.2196 -0.3427 -0.9626
36205SOL    HW215666   0.771  11.324   4.047  0.6431 -1.5064  0.5704
36206SOL     OW15667   0.165   1.855  12.025 -0.5997  0.3047  0.2930
36206SOL    HW115668   0.205   1.770  12.041 -1.0623  0.1048  0.3842
36206SOL    HW215669   0.131   1.883  12.110 -0.4016  0.6095  0.2772
36207SOL     OW15670   8.348  12.503   7.856  0.1058  0.6617  0.3794
36207SOL    HW115671   8.256  12.503   7.830 -0.0063  0.1311  0.7707
36207SOL    HW215672   8.352  12.567   7.927  0.2923  1.6383 -0.4842
36208SOL     OW15673   2.110   6.363   6.710  0.3831 -0.4524 -0.8651
36208SOL    HW115674   2.105   6.441   6.655 -0.3645  0.3018  0.2269
36208SOL    HW215675   2.034   6.370   6.768  1.5431 -0.7946  0.7877
36209SOL     OW15676   2.477   1.103   2.830 -0.0376 -0.3240  0.1763
36209SOL    HW115677   2.549   1.061   2.877 -0.1201 -0.7110 -0.0368
36209SOL    HW215678   2.442   1.168   2.891  0.7631  0.1667  0.1270
36210SOL     OW15679  10.325   6.630   8.805 -0.3864 -0.0949  0.5340
36210SOL    HW115680  10.384   6.665   8.738  0.4334 -1.0809  0.7017
36210SOL    HW215681  10.244   6.679   8.794 -0.0013  0.3181 -0.6549
36211SOL     OW15682   2.021  12.517  12.581  0.3294 -0.5660 -0.8019
36211SOL    HW115683   2.008  12.596  12.633  0.7886 -1.5208  0.8546
36211SOL    HW215684   2.007  12.545  12.490 -1.3388  0.9983 -0.1358
36212SOL     OW15685   3.651   3.160   4.665 -0.7653 -0.3685  0.3605
36212SOL    HW115686   3.696   3.172   4.749 -1.0663  0.6712  0.3820
36212SOL    HW215687   3.722   3.156   4.601 -0.5612 -0.5926  0.5953
36213SOL     OW15688   4.242   3.818   0.395  0.2256 -0.5375  0.4028
36213SOL    HW115689   4.222   3.837   0.487  1.4006  2.0026  0.2358
36213SOL    HW215690   4.337   3.830   0.389  0.7079 -3.9726 -0.5137
36214SOL     OW15691   5.042   2.160   6.281  0.1617 -0.4456  0.1504
36214SOL    HW115692   5.009   2.249   6.275 -0.8457 -0.8728 -0.9451
36214SOL    HW215693   4.986   2.118   6.347 -0.4874 -0.7392 -0.5815
36215SOL     OW15694   7.076  11.658   7.618  0.2912 -0.4374  0.3029
36215SOL    HW115695   7.056  11.661   7.524 -0.9378  2.4584  0.5581
36215SOL    HW215696   7.026  11.583   7.651 -0.7992 -0.3428 -1.0380
36216SOL     OW15697   3.852   0.791   5.972  0.1532  0.0811  0.3969
36216SOL    HW115698   3.865   0.866   5.915 -1.6777 -0.6101 -1.0203
36216SOL    HW215699   3.936   0.745   5.971  0.5361  0.7751 -0.6825
36217SOL     OW15700   0.452   1.483   9.706  0.2318 -0.1957  0.5896
36217SOL    HW115701   0.432   1.416   9.771 -1.3592  1.0544  1.4790
36217SOL    HW215702   0.366   1.513   9.675  0.9160  0.9386 -0.2953
36218SOL     OW15703   1.269  10.896   4.353 -0.1016 -0.1338  0.1494
36218SOL    HW115704   1.316  10.812   4.356 -1.1479 -0.7637 -0.6606
36218SOL    HW215705   1.297  10.941   4.433  0.3539 -1.3250  0.6913
36219SOL     OW15706   4.169   3.103   1.224  0.1336 -0.0259  0.2444
36219SOL    HW115707   4.162   3.023   1.172 -0.0739  0.4640 -0.4802
36219SOL    HW215708   4.193   3.072   1.312  1.3604 -0.7907 -0.3405
36220SOL     OW15709  12.489   3.249   6.083 -0.1181 -0.4537  0.0379
36220SOL    HW115710  12.552   3.320   6.094 -0.6858  0.0244  0.2203
36220SOL    HW215711  12.412   3.291   6.044 -0.3330 -1.0285 -0.1626
36221SOL     OW15712   0.686   9.336   4.494  0.0217  0.2798 -0.3394
36221SOL    HW115713   0.620   9.270   4.469 -0.2673  0.1131  0.7840
36221SOL    HW215714   0.750   9.287   4.545 -1.0853  1.1286  1.9895
36222SOL     OW15715   6.428   2.123   1.857 -0.8450  0.8575 -1.0180
36222SOL    HW115716   6.430   2.218   1.870  0.3715  0.6461  0.7966
36222SOL    HW215717   6.517   2.101   1.829 -0.4883  0.0613  0.6094
36223SOL     OW15718   9.182  11.335   5.588 -0.8303  0.4804  0.2770
36223SOL    HW115719   9.166  11.263   5.648 -3.9126 -0.1652 -1.1026
36223SOL    HW215720   9.140  11.411   5.630 -0.6295  0.6636  0.1522
36224SOL     OW15721   6.744   8.889   5.165 -0.0087 -1.0355  0.1214
36224SOL    HW115722   6.836   8.884   5.192  0.3059  0.0073 -0.7095
36224SOL    HW215723   6.718   8.979   5.182 -0.9623 -1.3692  0.5516
36225SOL     OW15724   6.878   5.324   1.813 -0.2114  0.1306  0.5363
36225SOL    HW115725   6.835   5.335   1.898 -2.0434  0.2499 -0.3643
36225SOL    HW215726   6.918   5.410   1.796 -1.1879  0.6116  0.5806
36226SOL     OW15727  11.126   8.732   5.463  0.2274 -0.3238 -0.0188
36226SOL    HW115728  11.051   8.745   5.521  0.8669  0.1064  0.7326
36226SOL    HW215729  11.157   8.644   5.483  0.6744 -0.0355  0.5683
36227SOL     OW15730   4.586   9.329   4.812  0.4272  0.3485 -0.5666
36227SOL    HW115731   4.611   9.416   4.841  0.0895  0.5914 -0.9971
36227SOL    HW215732   4.662   9.274   4.834  1.2944  1.0463 -1.7220
36228SOL     OW15733  10.601   4.269   5.130  0.7241  0.2015  0.4813
36228SOL    HW115734  10.540   4.342   5.129 -1.8616 -1.8143 -0.8043
36228SOL    HW215735  10.556   4.201   5.180  2.5502 -0.9187  0.6795
36229SOL     OW15736   6.249   4.297  11.431  0.5547 -0.1006 -0.2981
36229SOL    HW115737   6.219   4.231  11.369  2.5065 -1.2696 -0.0837
36229SOL    HW215738   6.251   4.378  11.379  3.4209 -1.2726 -2.2997
36230SOL     OW15739  11.984   8.089   0.081 -0.0571  0.7354 -0.1227
36230SOL    HW115740  12.045   8.035   0.131  1.5041  1.4055 -1.2513
36230SOL    HW215741  12.000   8.178   0.110  1.0483  1.1718 -1.9235
36231SOL     OW15742   7.427   9.129  10.076  0.6008  0.4336  0.3766
36231SOL    HW115743   7.378   9.212  10.077 -0.9007 -0.4230  0.8218
36231SOL    HW215744   7.360   9.062  10.060  1.6557 -0.7789  0.9035
36232SOL     OW15745   4.333   2.819   4.801 -0.2261 -0.3776 -0.2559
36232SOL    HW115746   4.427   2.826   4.782 -0.0560 -0.0131  0.7041
36232SOL    HW215747   4.329   2.772   4.884 -0.8033  1.3959  0.7557
36233SOL     OW15748   2.124  11.972   9.572 -0.5804 -0.7512 -0.2375
36233SOL    HW115749   2.043  12.021   9.587 -0.5528 -0.1356 -1.8962
36233SOL    HW215750   2.106  11.919   9.494  0.4004 -1.0958 -0.2413
36234SOL     OW15751   2.237   8.971   9.480 -0.0993  0.1459 -1.1786
36234SOL    HW115752   2.151   8.984   9.440 -0.7209 -1.1377 -0.3372
36234SOL    HW215753   2.250   9.049   9.533 -0.2847  0.8116 -2.0793
36235SOL     OW15754   3.563   8.090   8.389  0.1962  0.3822  0.1382
36235SOL    HW115755   3.480   8.045   8.406 -0.0404  0.7742  0.0294
36235SOL    HW215756   3.627   8.043   8.443 -0.0832  0.0344  0.1704
36236SOL     OW15757  11.927   7.657   2.816  0.3072 -0.1358 -0.0770
36236SOL    HW115758  11.972   7.690   2.893  2.6080  0.3124 -1.5030
36236SOL    HW215759  11.992   7.662   2.746 -2.3393  1.9247 -2.6898
36237SOL     OW15760   6.388   0.166   8.628  0.3069  0.6794 -0.1700
36237SOL    HW115761   6.300   0.159   8.591  1.4588 -0.4786 -2.9390
36237SOL    HW215762   6.374   0.194   8.719 -2.9238 -0.3491 -0.2477
36238SOL     OW15763   6.543   5.507  12.304  0.0375  0.7509 -0.6763
36238SOL    HW115764   6.638   5.510  12.317  0.2192 -0.7767 -1.5366
36238SOL    HW215765   6.513   5.592  12.336  1.4922  0.6490  1.1803
36239SOL     OW15766   8.789   3.987   0.879 -0.1404 -0.2980 -0.5727
36239SOL    HW115767   8.841   3.908   0.896 -1.1148 -1.0625 -0.9872
36239SOL    HW215768   8.850   4.048   0.837 -0.0383 -2.0351 -3.2466
36240SOL     OW15769   3.248   0.446  10.186 -0.2817 -0.1674  0.4706
36240SOL    HW115770   3.280   0.358  10.207 -0.6444 -0.3229  0.3956
36240SOL    HW215771   3.152   0.437  10.188 -0.3494  0.5169  1.7263
36241SOL     OW15772   9.605   5.473   5.595 -0.0688 -0.2789  0.4430
36241SOL    HW115773   9.591   5.383   5.567  0.2965  0.1471 -1.1903
36241SOL    HW215774   9.600   5.469   5.691 -2.7020 -1.5640  0.3328
36242SOL     OW15775   9.873   3.941   3.146 -0.2057  0.3901  0.8834
36242SOL    HW115776   9.908   4.027   3.125 -1.7817  0.7939 -0.2707
36242SOL    HW215777   9.809   3.958   3.215  1.2521 -0.2410  2.4652
36243SOL     OW15778   4.012   1.650  10.612  0.5019  0.0466 -0.0682
36243SOL    HW115779   3.993   1.652  10.706 -0.0909  0.5938 -0.1883
36243SOL    HW215780   4.107   1.642  10.607  0.4738 -0.9366  0.5708
36244SOL     OW15781  10.718   0.042  12.103 -0.6689  0.1344  0.0962
36244SOL    HW115782  10.754   0.110  12.046  0.5374  0.5692  1.3330
36244SOL    HW215783  10.687  -0.025  12.042  1.1476  0.3034 -1.1153
36245SOL     OW15784   3.144   4.427   8.130 -0.2734  0.0044  0.4230
36245SOL    HW115785   3.236   4.419   8.158 -0.4409 -1.5739  0.6357
36245SOL    HW215786   3.105   4.343   8.154 -1.8419  0.7344  0.5112
36246SOL     OW15787   9.087   4.276  12.076 -0.1489  0.3349 -0.8326
36246SOL    HW115788   9.154   4.328  12.120 -0.1551  0.2431 -0.7140
36246SOL    HW215789   9.082   4.312  11.988  0.9614 -0.4598 -1.2509
36247SOL     OW15790   7.039   2.658   6.104 -0.4078 -0.0448  0.0603
36247SOL    HW115791   7.034   2.633   6.011  0.6747 -0.6724  0.1547
36247SOL    HW215792   7.039   2.574   6.151  0.0013  0.2473  0.5792
36248SOL     OW15793   9.363  10.738  10.274 -0.0906 -0.3468  0.0297
36248SOL    HW115794   9.441  10.782  10.243 -1.1814  0.4290 -1.7565
36248SOL    HW215795   9.370  10.649  10.239 -0.7663  0.2010 -1.5954
36249SOL     OW15796   4.202  10.260   9.013  0.2137 -0.1332  0.3949
36249SOL    HW115797   4.208  10.344   8.967  0.8928  0.2111  1.0889
36249SOL    HW215798   4.159  10.282   9.096 -0.3488 -0.6213  0.2341
36250SOL     OW15799   1.867  11.524   8.779 -0.5009 -0.3310  0.3543
36250SOL    HW115800   1.874  11.606   8.730 -1.1049  0.8068  2.0598
36250SOL    HW215801   1.940  11.471   8.748  0.2266  1.0623 -0.4270
36251SOL     OW15802   8.989   2.337   3.987 -0.3611 -0.2975 -0.6355
36251SOL    HW115803   9.075   2.300   4.005  0.8690  2.5515 -0.1897
36251SOL    HW215804   8.997   2.376   3.900 -1.1749  0.0822 -0.5514
36252SOL     OW15805   6.390   7.541   4.646 -0.0247  0.5768 -0.4042
36252SOL    HW115806   6.389   7.504   4.558  0.8110 -1.1011  0.2596
36252SOL    HW215807   6.459   7.607   4.644  1.2746 -0.7484 -0.5278
36253SOL     OW15808   3.049   5.464   3.718  0.1768  0.4068  0.0798
36253SOL    HW115809   3.081   5.542   3.762 -1.7631  1.6013 -0.4626
36253SOL    HW215810   3.077   5.474   3.627 -0.7600  0.9358 -0.1705
36254SOL     OW15811   0.583  12.233   7.910 -0.1504  0.0632  0.1323
36254SOL    HW115812   0.635  12.160   7.877 -0.1641  0.2292 -0.2655
36254SOL    HW215813   0.643  12.308   7.910 -0.2167  0.1159  0.2562
36255SOL     OW15814   3.219   5.301   0.667 -0.1492 -0.5040  0.0125
36255SOL    HW115815   3.181   5.368   0.610 -1.0901 -2.0096 -1.2335
36255SOL    HW215816   3.258   5.237   0.606  1.7654 -0.5400  1.1873
36256SOL     OW15817  11.597  12.517   3.386 -0.0405  0.1848 -0.2545
36256SOL    HW115818  11.566  12.574   3.457  0.5731  0.3005 -0.0696
36256SOL    HW215819  11.556  12.551   3.307 -0.1949  0.4817 -0.0476
36257SOL     OW15820   6.658   4.679   6.866  0.6806 -0.0615 -0.0410
36257SOL    HW115821   6.701   4.764   6.862 -0.8033  0.7416  0.2688
36257SOL    HW215822   6.624   4.674   6.955  0.4218 -0.8215 -0.1749
36258SOL     OW15823   2.140   2.734   0.901  0.1250  0.9456  0.8195
36258SOL    HW115824   2.046   2.723   0.911  0.1964 -0.3953  0.1871
36258SOL    HW215825   2.175   2.645   0.896  1.1311  1.3798 -1.4617
36259SOL     OW15826   1.944   7.383   9.736  0.0148  0.1678 -0.1825
36259SOL    HW115827   1.879   7.444   9.770 -2.2331 -1.5223 -1.1745
36259SOL    HW215828   1.929   7.302   9.785  0.8278 -0.4940 -0.9792
36260SOL     OW15829   2.833   8.225   6.762 -0.0891  0.0880  0.1198
36260SOL    HW115830   2.793   8.169   6.696  0.8132 -0.9370  0.4266
36260SOL    HW215831   2.927   8.218   6.747  0.0638  3.0778 -1.0940
36261SOL     OW15832   0.723   6.876   3.851 -0.1169 -0.2651 -0.1317
36261SOL    HW115833   0.807   6.841   3.881 -0.0605 -0.8168 -0.8880
36261SOL    HW215834   0.659   6.843   3.914  0.0616 -0.9944 -0.3145
36262SOL     OW15835   4.798   9.958   0.535  0.1839  0.2362 -0.0081
36262SOL    HW115836   4.813   9.922   0.622  0.1821  1.6565  0.5968
36262SOL    HW215837   4.747   9.890   0.490 -1.3527  0.2070  1.6841
36263SOL     OW15838   2.642   9.655   0.396 -0.1363  0.4650  0.3847
36263SOL    HW115839   2.642   9.688   0.486 -0.8336  1.0067  0.1915
36263SOL    HW215840   2.608   9.727   0.343  1.1413  0.4922 -0.4486
36264SOL     OW15841  10.019   9.336   1.991  0.5677  0.6623  0.5093
36264SOL    HW115842  10.009   9.241   1.977 -0.7399  0.9450 -0.7323
36264SOL    HW215843  10.107   9.355   1.959  0.3966  0.0348 -0.4048
36265SOL     OW15844   4.279   7.031   4.403 -0.1644 -0.6005  0.1376
36265SOL    HW115845   4.272   6.939   4.378 -0.3077 -0.7395  0.6887
36265SOL    HW215846   4.354   7.064   4.353 -1.1627 -0.5655 -1.4166
36266SOL     OW15847  10.730  10.470   5.671 -0.1524 -0.0391 -0.0185
36266SOL    HW115848  10.706  10.407   5.739  0.6923  0.1085  0.4333
36266SOL    HW215849  10.676  10.447   5.596 -2.1407  0.6320  1.1091
36267SOL     OW15850  10.165   8.879  11.564  0.4724 -0.2601 -0.3014
36267SOL    HW115851  10.204   8.803  11.519 -0.2652 -0.9656  0.2206
36267SOL    HW215852  10.190   8.869  11.655  0.7597  0.3841 -0.3072
36268SOL     OW15853   5.598  10.253  10.785 -0.2847  0.3031  0.0053
36268SOL    HW115854   5.678  10.254  10.732  1.9896  1.5256  3.1947
36268SOL    HW215855   5.597  10.166  10.825 -1.8483 -0.5085 -1.6149
36269SOL     OW15856   1.473   1.915  11.828  0.4324  0.1421  0.5316
36269SOL    HW115857   1.388   1.872  11.825 -0.4822  1.9084 -0.0316
36269SOL    HW215858   1.498   1.911  11.921  0.2031 -1.2000  0.5546
36270SOL     OW15859   0.832   3.049   3.054 -0.0169 -0.2749 -0.2114
36270SOL    HW115860   0.773   3.082   2.987 -1.4254 -0.5797  0.8335
36270SOL    HW215861   0.880   3.127   3.083 -1.9361  0.5763  0.8785
36271SOL     OW15862   7.422   0.213   5.147  0.2243  0.1608  0.6380
36271SOL    HW115863   7.396   0.235   5.236  3.1567  2.3555  1.0736
36271SOL    HW215864   7.405   0.293   5.097 -3.5816 -1.6920 -1.4991
36272SOL     OW15865   5.954  12.587   5.557 -0.6819  0.0873 -0.0247
36272SOL    HW115866   5.960  12.674   5.517 -0.4556  0.2905  0.4436
36272SOL    HW215867   5.933  12.529   5.484 -2.6262  0.7786 -0.0807
36273SOL     OW15868  12.111   3.639  10.563  0.2970  0.3117 -0.2604
36273SOL    HW115869  12.044   3.597  10.616 -0.1707 -1.6259 -2.2424
36273SOL    HW215870  12.189   3.584  10.575  0.6301  0.7457 -0.3925
36274SOL     OW15871   8.019   0.452   2.429 -0.1606  0.0521  0.4788
36274SOL    HW115872   8.102   0.458   2.476  0.5342  0.8570 -0.7965
36274SOL    HW215873   7.954   0.485   2.491  0.7095  0.9209  0.9522
36275SOL     OW15874   7.236   6.120   9.345 -0.7086  0.1207  0.1891
36275SOL    HW115875   7.298   6.149   9.412  0.2658  1.8248 -1.3490
36275SOL    HW215876   7.194   6.200   9.315  0.1956 -0.2702 -2.4480
36276SOL     OW15877   8.576   1.319   3.956  0.5019 -0.2132  0.4296
36276SOL    HW115878   8.640   1.249   3.960 -0.6582 -1.2966  0.6644
36276SOL    HW215879   8.549   1.333   4.047  0.6931  0.5253  0.3826
36277SOL     OW15880  11.432   4.592   5.620 -0.3269  0.3310  0.2702
36277SOL    HW115881  11.397   4.611   5.707 -1.6588 -0.7247  0.0030
36277SOL    HW215882  11.431   4.496   5.615 -0.1862  0.3786 -0.8692
36278SOL     OW15883   1.782   4.299   2.464  1.1309 -1.0455 -0.0527
36278SOL    HW115884   1.831   4.364   2.414  0.3327  0.5220  1.1238
36278SOL    HW215885   1.848   4.235   2.491  2.8186  1.3969  2.1148
36279SOL     OW15886  10.459   2.907  11.183 -0.0360  0.0177 -0.2889
36279SOL    HW115887  10.479   2.918  11.276  2.0852 -1.9989 -0.4148
36279SOL    HW215888  10.378   2.857  11.181  0.2429 -0.4819  0.4954
36280SOL     OW15889   8.293   9.926   3.601 -0.2863  0.3194  0.0508
36280SOL    HW115890   8.298  10.020   3.620  0.2082  0.9676 -2.8022
36280SOL    HW215891   8.205   9.913   3.567 -0.2982 -0.2214  0.2864
36281SOL     OW15892  11.922   3.975   7.511  0.0111  0.2674 -0.3986
36281SOL    HW115893  11.874   3.894   7.527 -0.7626  0.4604 -1.5962
36281SOL    HW215894  11.854   4.041   7.500  0.5988  0.8517 -0.5743
36282SOL     OW15895   1.903   7.249   7.616 -0.1751  0.6765  0.9066
36282SOL    HW115896   1.886   7.288   7.530  0.7784  1.1315  0.9053
36282SOL    HW215897   1.817   7.220   7.647 -0.3831 -0.4833 -0.6598
36283SOL     OW15898   3.030   9.288   4.175 -0.0701  0.3988  0.5783
36283SOL    HW115899   3.088   9.211   4.169  0.2405  0.6976 -0.5779
36283SOL    HW215900   3.089   9.361   4.195 -0.2700  0.4485  0.9893
36284SOL     OW15901   2.749   2.207   4.867  0.2288  0.1990  0.6537
36284SOL    HW115902   2.717   2.179   4.781 -0.6402  1.4417  0.5432
36284SOL    HW215903   2.693   2.281   4.890  2.8357  2.3773  0.5736
36285SOL     OW15904  11.841   4.963   8.689  0.3202  0.2117 -0.5973
36285SOL    HW115905  11.903   4.891   8.702 -1.0074 -0.8149  0.3722
36285SOL    HW215906  11.795   4.940   8.609  0.5794  0.5055 -0.8307
36286SOL     OW15907   1.800   0.172   1.341  0.2613  0.0199 -0.1433
36286SOL    HW115908   1.875   0.122   1.309  1.0402  0.0833  1.4768
36286SOL    HW215909   1.769   0.221   1.265  1.7076 -0.2075 -0.9060
36287SOL     OW15910   1.810   3.530   3.269 -0.6212  0.4629 -0.3115
36287SOL    HW115911   1.746   3.498   3.205  0.6505 -1.2030 -0.8151
36287SOL    HW215912   1.885   3.556   3.215 -0.0894  0.4190  0.4071
36288SOL     OW15913   4.992  10.043   4.864  0.4929  0.4476  0.2199
36288SOL    HW115914   5.075  10.026   4.910  1.8598  2.7177 -1.1864
36288SOL    HW215915   4.933  10.075   4.932  0.6415 -1.4296  1.2957
36289SOL     OW15916   1.481   8.414   1.641 -0.0525 -0.1654 -0.3855
36289SOL    HW115917   1.524   8.491   1.678 -1.9423  1.8703 -2.1529
36289SOL    HW215918   1.437   8.374   1.716 -0.5210  1.5346  0.3061
36290SOL     OW15919   5.323  10.784   8.357 -0.6899  0.3885  0.1389
36290SOL    HW115920   5.298  10.876   8.362 -2.8294  0.1774 -3.2960
36290SOL    HW215921   5.261  10.740   8.415  0.7504  1.0427  2.3068
36291SOL     OW15922   9.318   9.432   5.388  0.0195  0.2574  0.9381
36291SOL    HW115923   9.408   9.401   5.400 -0.2105 -0.3773  1.1013
36291SOL    HW215924   9.301   9.417   5.295  1.1747  3.4420  0.0806
36292SOL     OW15925   3.058  10.314   7.829 -0.4251 -0.3087 -0.1538
36292SOL    HW115926   3.069  10.372   7.904  0.0824  1.2741 -1.3977
36292SOL    HW215927   2.982  10.260   7.851 -1.6063  1.5749  0.6186
36293SOL     OW15928   0.860  12.412   9.181  0.0156 -0.3282  0.3767
36293SOL    HW115929   0.832  12.454   9.099  0.0946 -1.5376 -0.3054
36293SOL    HW215930   0.843  12.319   9.166  0.2598 -0.5904  1.6598
36294SOL     OW15931   6.129   7.249   1.886  0.0477  0.2647  0.2703
36294SOL    HW115932   6.051   7.294   1.920 -0.6369 -0.0398 -0.8396
36294SOL    HW215933   6.133   7.168   1.936  0.9458  1.2441  1.8700
36295SOL     OW15934   8.863   4.678  12.103  0.2132  0.2712 -0.2726
36295SOL    HW115935   8.770   4.678  12.127 -0.2643  1.7726 -1.9560
36295SOL    HW215936   8.867   4.628  12.022  1.3488 -2.1302  1.1645
36296SOL     OW15937   0.796  10.461   7.640  0.6295 -1.1120  0.2140
36296SOL    HW115938   0.726  10.458   7.575 -0.5179 -0.3369  1.3695
36296SOL    HW215939   0.839  10.545   7.625  0.0946 -0.7444  0.7176
36297SOL     OW15940  10.411   9.459   9.797  0.0278 -0.5373  0.3085
36297SOL    HW115941  10.382   9.486   9.710 -1.1684  2.7480  1.5758
36297SOL    HW215942  10.506   9.453   9.790  0.0122  0.4123 -1.0557
36298SOL     OW15943   3.170   7.525   3.505  0.1175  0.2230  0.1654
36298SOL    HW115944   3.256   7.495   3.476  1.1620  2.5229  0.6162
36298SOL    HW215945   3.119   7.533   3.424  0.5593 -0.4454 -0.1898
36299SOL     OW15946  10.523  10.674   7.705  0.2273 -0.4087 -0.0679
36299SOL    HW115947  10.435  10.707   7.689  0.2962 -0.8648 -1.5327
36299SOL    HW215948  10.546  10.707   7.791 -1.0971  0.3164  0.0267
36300SOL     OW15949   4.330   7.642   9.124  0.9120  0.4779 -0.0593
36300SOL    HW115950   4.341   7.732   9.155  0.4024 -0.2418  2.4481
36300SOL    HW215951   4.296   7.651   9.035 -1.3839  2.8290  0.9149
36301SOL     OW15952  10.123   8.607   7.707  0.1193  0.3668 -0.7702
36301SOL    HW115953  10.097   8.589   7.797  1.7982  1.8453  0.0732
36301SOL    HW215954  10.196   8.547   7.691 -0.4209 -0.1628 -1.3079
36302SOL     OW15955   4.246   2.224   3.996  0.1965  0.4827  0.4525
36302SOL    HW115956   4.226   2.318   4.001 -1.5835  0.1370  0.3843
36302SOL    HW215957   4.160   2.182   3.990  1.0147 -1.0757 -0.9348
36303SOL     OW15958   7.561   8.693   6.640 -0.4590  0.1508  0.1194
36303SOL    HW115959   7.635   8.633   6.651 -0.3451 -0.7683 -4.0752
36303SOL    HW215960   7.483   8.639   6.655 -0.3165  0.0309  0.4271
36304SOL     OW15961   7.959  10.135   1.573 -0.4325 -0.1479  0.2762
36304SOL    HW115962   7.937  10.110   1.484  0.7479  0.2329 -0.1431
36304SOL    HW215963   7.931  10.226   1.580  0.8969  0.3326 -0.2531
36305SOL     OW15964   5.922  10.413   3.559 -0.3118 -0.1151 -0.7476
36305SOL    HW115965   5.990  10.429   3.625 -1.8808 -1.2723  1.2768
36305SOL    HW215966   5.946  10.329   3.520 -1.0266 -1.0456  0.6980
36306SOL     OW15967  11.903   6.320   9.937  0.0874  0.2083  0.5108
36306SOL    HW115968  11.820   6.289   9.900  0.1361  0.9273 -0.2278
36306SOL    HW215969  11.886   6.329  10.030 -0.6137  0.1659  0.3925
36307SOL     OW15970  10.934   8.924  10.966 -0.5840  0.0079  0.0264
36307SOL    HW115971  10.932   8.999  10.908  2.8678  0.4649  0.3275
36307SOL    HW215972  10.939   8.848  10.908  0.7752  0.3416 -0.3187
36308SOL     OW15973   7.749   4.081  11.329 -0.0159  0.2343 -0.4144
36308SOL    HW115974   7.698   4.032  11.394  1.5664 -0.7880  0.0968
36308SOL    HW215975   7.705   4.062  11.246 -1.2654  0.4778  0.1590
36309SOL     OW15976   5.063   4.870   4.853 -0.2867 -0.5911  0.0778
36309SOL    HW115977   5.142   4.867   4.907  0.2304 -1.1591 -0.6829
36309SOL    HW215978   5.081   4.938   4.788 -0.6810 -0.2918  0.2812
36310SOL     OW15979  10.909   0.405  10.323 -0.4962 -0.0076  0.2281
36310SOL    HW115980  10.995   0.428  10.287 -0.4233 -1.5454 -0.6889
36310SOL    HW215981  10.851   0.404  10.247 -1.2842  0.7512  0.8027
36311SOL     OW15982  12.356   4.157   2.307  0.1160  0.0599  0.7491
36311SOL    HW115983  12.286   4.198   2.256  0.4237  0.3979  0.5934
36311SOL    HW215984  12.311   4.113   2.379 -0.3129 -0.3164  0.2619
36312SOL     OW15985   3.022   3.399   7.379 -0.1963  0.5214 -0.1636
36312SOL    HW115986   3.043   3.400   7.286 -1.6089  1.8034 -0.5065
36312SOL    HW215987   2.997   3.308   7.397 -1.3452  0.5601 -1.3967
36313SOL     OW15988   1.635  10.164  11.781 -0.4971 -0.0381  0.1166
36313SOL    HW115989   1.629  10.248  11.737 -3.4021 -0.2296 -0.0696
36313SOL    HW215990   1.699  10.114  11.730 -0.4976  1.2548 -1.2077
36314SOL     OW15991   3.836   4.641   4.549 -0.1398 -0.2439  0.2622
36314SOL    HW115992   3.832   4.725   4.503 -1.3497  0.0275  0.8376
36314SOL    HW215993   3.808   4.577   4.484  0.7059 -0.2078 -0.1543
36315SOL     OW15994   0.084   0.796  11.611 -0.5413  0.1863 -0.8994
36315SOL    HW115995   0.153   0.777  11.548  0.2713 -1.5790  0.4499
36315SOL    HW215996   0.128   0.799  11.696 -1.7562  1.5547 -0.2617
36316SOL     OW15997   0.427   6.373   0.175  0.3376 -0.1825  0.3690
36316SOL    HW115998   0.441   6.286   0.212  2.1095  0.3513  1.0447
36316SOL    HW215999   0.331   6.381   0.168  0.1163 -1.8703  1.0072
36317SOL     OW16000   2.403   7.111   3.406  0.7428 -1.0760 -0.1881
36317SOL    HW116001   2.449   7.151   3.333  0.2615  2.4762  1.2694
36317SOL    HW216002   2.312   7.107   3.378  1.0720 -3.4457 -1.1669
36318SOL     OW16003   2.951  11.567  10.370  0.0200  0.3867  0.6268
36318SOL    HW116004   2.915  11.655  10.378  0.4723  0.8476 -1.8053
36318SOL    HW216005   2.902  11.526  10.299  1.8468 -0.2039 -0.3782
36319SOL     OW16006   9.005   4.706   7.119 -0.4474 -0.3913 -0.3086
36319SOL    HW116007   9.096   4.732   7.132 -0.8421  0.9295 -0.0416
36319SOL    HW216008   8.984   4.652   7.195 -0.6780  1.5828  1.0985
36320SOL     OW16009   6.566   8.996   7.753  0.5187  0.2737 -0.6846
36320SOL    HW116010   6.651   9.002   7.709  0.7232  2.3321 -0.1138
36320SOL    HW216011   6.503   9.021   7.685  0.3501 -1.0125 -1.0370
36321SOL     OW16012   2.172   9.143   7.199 -0.3441 -0.1500 -0.5301
36321SOL    HW116013   2.139   9.213   7.143 -1.3245 -0.3353 -0.1882
36321SOL    HW216014   2.147   9.063   7.154 -0.2119 -0.2918 -0.3508
36322SOL     OW16015  11.826   3.417   5.470  0.7588 -0.3805 -0.3535
36322SOL    HW116016  11.799   3.388   5.557  0.6631  0.8480  0.0380
36322SOL    HW216017  11.816   3.339   5.415 -0.1968 -0.8906  0.5064
36323SOL     OW16018   8.189   1.329  10.212  0.1995  0.0014  0.3926
36323SOL    HW116019   8.217   1.244  10.247  2.9319  0.1495 -1.1416
36323SOL    HW216020   8.143   1.307  10.131  1.0446 -0.0618 -0.0874
36324SOL     OW16021   9.382   3.356  10.197 -0.1970 -0.1053  0.0003
36324SOL    HW116022   9.420   3.271  10.175  1.9056  0.9263 -0.5824
36324SOL    HW216023   9.372   3.400  10.113 -0.2468  0.6354  0.3866
36325SOL     OW16024   2.709   2.963   8.525  0.3006 -0.3216  0.8527
36325SOL    HW116025   2.662   2.917   8.455 -0.2270  0.7576  0.4658
36325SOL    HW216026   2.776   3.013   8.479  0.4051 -0.1522  1.1904
36326SOL     OW16027   8.659   9.521   8.817  0.1098  0.0605 -0.0744
36326SOL    HW116028   8.605   9.597   8.798 -1.9367 -0.9397  1.3720
36326SOL    HW216029   8.718   9.551   8.887  0.9619  0.9519 -1.1503
36327SOL     OW16030   0.348   4.270   9.093  0.3865  0.0810  0.5599
36327SOL    HW116031   0.272   4.326   9.072 -0.3957 -0.1714  2.4922
36327SOL    HW216032   0.421   4.311   9.046 -0.6039  1.3766  0.0647
36328SOL     OW16033   9.452   9.000   5.657 -0.1551 -0.1398  0.3961
36328SOL    HW116034   9.540   8.962   5.660 -1.2446 -2.8476  0.9907
36328SOL    HW216035   9.397   8.930   5.622 -2.6161  0.2327  3.1572
36329SOL     OW16036   5.816   7.162  11.680  0.0284 -0.1008 -0.0672
36329SOL    HW116037   5.773   7.247  11.679 -0.8237 -0.4811  1.3151
36329SOL    HW216038   5.782   7.119  11.758 -0.6537 -2.2714 -1.4529
36330SOL     OW16039   3.425   0.271   6.534  0.0282  0.1820  0.2153
36330SOL    HW116040   3.468   0.346   6.493  0.9822 -0.1019  0.6696
36330SOL    HW216041   3.369   0.234   6.465 -0.3131  1.1977 -0.0619
36331SOL     OW16042   7.136  10.488   7.189 -0.3182 -0.2986  0.0771
36331SOL    HW116043   7.089  10.521   7.113 -0.1056 -0.4462 -0.1163
36331SOL    HW216044   7.100  10.538   7.263 -1.3789 -0.9693  0.0453
36332SOL     OW16045   5.932   7.733   7.668 -0.4933 -0.4273 -0.6049
36332SOL    HW116046   5.860   7.797   7.673 -0.8580 -0.7674 -1.3312
36332SOL    HW216047   5.921   7.679   7.746 -0.3263  0.2417 -0.1082
36333SOL     OW16048   5.081   3.175   5.863  0.0975 -0.6907  0.0684
36333SOL    HW116049   5.083   3.267   5.837 -0.4616 -0.6596  0.1280
36333SOL    HW216050   5.003   3.167   5.918 -1.3186 -1.7461 -1.9574
36334SOL     OW16051   8.508  11.142  12.000 -0.0812 -0.1005  0.6903
36334SOL    HW116052   8.548  11.228  11.989  0.9300 -0.5365  0.8498
36334SOL    HW216053   8.519  11.123  12.093  1.0996 -1.0620  0.3730
36335SOL     OW16054   2.077   6.858   3.426 -0.4567  0.2172  0.1681
36335SOL    HW116055   2.122   6.819   3.351  0.3702  1.4481 -0.0085
36335SOL    HW216056   2.053   6.946   3.396 -0.1933  0.6978  1.3101
36336SOL     OW16057   4.048   0.328   1.987  0.7035  0.7104  0.2976
36336SOL    HW116058   4.093   0.406   1.956 -2.1064  1.7163 -1.6027
36336SOL    HW216059   3.974   0.361   2.038 -0.6371 -0.6682 -0.6638
36337SOL     OW16060   2.062   3.310  11.023  0.5434  0.2060 -0.3155
36337SOL    HW116061   1.994   3.285  11.085  0.3748 -1.0547 -0.9663
36337SOL    HW216062   2.046   3.402  11.004 -0.0825  0.3027  0.6458
36338SOL     OW16063   4.884   0.127   1.927  0.0818 -0.2774 -0.1162
36338SOL    HW116064   4.873   0.209   1.976 -1.4177  0.0151 -0.8915
36338SOL    HW216065   4.829   0.064   1.973 -1.4735  0.0383 -1.4285
36339SOL     OW16066   2.314   0.235   3.401  0.9928 -1.1513  0.4997
36339SOL    HW116067   2.337   0.322   3.369 -0.3186 -0.3637  1.5676
36339SOL    HW216068   2.258   0.199   3.332  0.0699 -0.3901  0.8108
36340SOL     OW16069   4.164   8.208   4.684  0.8252 -0.1838 -0.3497
36340SOL    HW116070   4.166   8.139   4.751  2.2177  0.8676  0.7646
36340SOL    HW216071   4.146   8.288   4.734  1.4494  0.5602 -1.2912
36341SOL     OW16072   2.189   4.245   0.298 -0.0565  0.4595 -0.1825
36341SOL    HW116073   2.133   4.286   0.364 -1.3910 -2.1212  0.4523
36341SOL    HW216074   2.275   4.239   0.340 -0.1656  1.3795  0.1915
36342SOL     OW16075  11.149   6.084   6.904  0.0518 -0.1323  0.0916
36342SOL    HW116076  11.078   6.140   6.936  0.3070 -0.7287  1.7962
36342SOL    HW216077  11.210   6.145   6.862 -0.1833  0.7334  0.9683
36343SOL     OW16078   2.019   5.425  10.161 -0.3844 -0.2547  0.4100
36343SOL    HW116079   2.017   5.330  10.147 -0.4093 -0.3333  0.9285
36343SOL    HW216080   2.096   5.454  10.113  0.3425 -0.7124  1.2677
36344SOL     OW16081   4.895   5.291   0.123  0.2841  0.1251  0.1924
36344SOL    HW116082   4.977   5.242   0.131  0.7341  0.7044 -0.7602
36344SOL    HW216083   4.840   5.237   0.066  1.0559  1.0392 -1.4768
36345SOL     OW16084   8.836   0.001  11.317  0.5543 -0.0405 -0.5671
36345SOL    HW116085   8.916   0.010  11.368  1.3711  0.3534 -1.8934
36345SOL    HW216086   8.802  -0.085  11.342  0.7202  0.2797  0.9013
36346SOL     OW16087  12.025   0.106  10.572 -0.0103 -0.3839 -0.3381
36346SOL    HW116088  12.033   0.030  10.630 -0.0027  0.2282  0.4751
36346SOL    HW216089  11.990   0.175  10.628  1.2461  0.5955 -0.7347
36347SOL     OW16090   8.951  12.417   8.065 -0.0490  0.3820 -0.6229
36347SOL    HW116091   8.862  12.417   8.101  0.9603 -1.7594  2.2187
36347SOL    HW216092   8.989  12.336   8.096  2.1291 -0.0928 -4.0267
36348SOL     OW16093   6.500  10.157   9.717  0.0214  0.9556 -0.2086
36348SOL    HW116094   6.573  10.220   9.721  0.2928  0.6708 -0.6639
36348SOL    HW216095   6.510  10.105   9.797  1.1512  0.0145 -0.9205
36349SOL     OW16096  11.110  10.819   2.967  0.0304 -0.1930 -0.2360
36349SOL    HW116097  11.069  10.732   2.964 -1.4359  0.4197  0.7332
36349SOL    HW216098  11.094  10.857   2.881 -1.1257 -0.1294 -0.0063
36350SOL     OW16099   0.128   1.673   6.767 -0.0844 -0.0397  0.3995
36350SOL    HW116100   0.071   1.631   6.703 -0.9961  0.8729  0.5837
36350SOL    HW216101   0.149   1.758   6.728  0.8643 -0.2155  0.4994
36351SOL     OW16102   3.535  10.021   5.884  0.1709  0.4036  0.2565
36351SOL    HW116103   3.449  10.031   5.845  0.0157 -0.7129  0.2932
36351SOL    HW216104   3.535   9.932   5.920  1.8481 -0.1551 -1.0130
36352SOL     OW16105   7.445   3.170   1.991 -0.0866  0.2134 -0.1832
36352SOL    HW116106   7.474   3.122   1.914 -1.8942  1.9327 -2.0231
36352SOL    HW216107   7.353   3.147   2.001  0.3111 -0.7504  2.1492
36353SOL     OW16108   3.796   0.395   5.223 -0.5089 -0.3658 -0.7679
36353SOL    HW116109   3.717   0.424   5.178 -0.7695  0.7657  0.3681
36353SOL    HW216110   3.798   0.300   5.210 -1.2606 -0.2218 -2.0358
36354SOL     OW16111   3.459   0.835  10.372 -0.0121 -0.0743  0.0398
36354SOL    HW116112   3.522   0.788  10.426 -1.6975 -0.8136  1.4650
36354SOL    HW216113   3.505   0.915  10.345  1.5009 -0.5703  1.0451
36355SOL     OW16114   5.782   1.648  10.084  0.8145 -0.1821  0.3410
36355SOL    HW116115   5.730   1.712  10.134 -0.0586 -1.3971  1.0570
36355SOL    HW216116   5.872   1.680  10.091  0.3737  1.0994  0.4645
36356SOL     OW16117   5.556   7.419   1.484 -0.2031  0.7277  0.2013
36356SOL    HW116118   5.486   7.373   1.529 -1.0406  1.5454 -0.2370
36356SOL    HW216119   5.634   7.365   1.499 -0.8452 -0.0068  0.9879
36357SOL     OW16120   0.805   7.398   1.980  0.2388 -0.0825 -0.3338
36357SOL    HW116121   0.748   7.470   2.006  0.1244 -0.0058 -0.7808
36357SOL    HW216122   0.752   7.319   1.991  0.0056 -0.0006 -0.8608
36358SOL     OW16123   9.620   3.483   0.334  0.2155 -0.2919  0.2580
36358SOL    HW116124   9.592   3.462   0.245 -0.0667  2.2571 -0.3426
36358SOL    HW216125   9.589   3.572   0.348  1.1964 -0.2397  2.5384
36359SOL     OW16126  10.682   6.263   3.913 -0.2093  0.1750  0.2641
36359SOL    HW116127  10.690   6.231   4.002 -2.3575 -1.3618 -0.0110
36359SOL    HW216128  10.752   6.220   3.864 -0.0258 -0.2454  0.8976
36360SOL     OW16129   0.065  10.885  12.190 -0.0721 -0.3107 -0.3259
36360SOL    HW116130   0.160  10.875  12.181 -0.3444 -2.0746 -2.1197
36360SOL    HW216131   0.048  10.978  12.177  1.3250 -0.1491 -1.1200
36361SOL     OW16132   9.490   4.780   1.014  0.0050  0.0729  0.0723
36361SOL    HW116133   9.441   4.837   1.074 -1.7812 -0.2481 -1.0048
36361SOL    HW216134   9.436   4.700   1.008  1.0651 -0.6126 -0.5831
36362SOL     OW16135   0.504   5.508   2.699 -0.3260  0.1950  0.0750
36362SOL    HW116136   0.481   5.582   2.756  0.5870  0.6560 -0.1342
36362SOL    HW216137   0.585   5.535   2.656 -0.0613 -0.8699 -0.1282
36363SOL     OW16138   6.019   6.548   2.156  0.1506 -0.1283 -0.1230
36363SOL    HW116139   6.100   6.591   2.127  0.5739 -0.6121  0.3090
36363SOL    HW216140   6.049   6.482   2.218 -0.7140  0.8253  1.3717
36364SOL     OW16141   6.051  10.415  11.831  0.0656  0.1207 -0.3702
36364SOL    HW116142   6.121  10.356  11.857 -0.7837 -0.9881 -0.5010
36364SOL    HW216143   6.030  10.464  11.910  2.0288  1.6019 -0.7207
36365SOL     OW16144   7.337  12.530  12.069 -0.0397 -0.4259 -0.6508
36365SOL    HW116145   7.321  12.522  12.163 -0.5081  0.0788 -0.6838
36365SOL    HW216146   7.294  12.611  12.043  1.2944  0.1939 -1.0430
36366SOL     OW16147  10.563   1.860  11.045 -0.4673  0.2911 -0.3726
36366SOL    HW116148  10.601   1.891  10.963  0.5803  2.6897  0.9148
36366SOL    HW216149  10.637   1.825  11.094 -0.9484 -0.3753 -0.0982
36367SOL     OW16150   6.755   7.994   5.743 -0.0963 -0.3095  0.0285
36367SOL    HW116151   6.764   8.072   5.689  0.0388 -0.8029 -0.6738
36367SOL    HW216152   6.661   7.973   5.738 -0.4764  0.8125  1.6672
36368SOL     OW16153   6.836   8.859  11.917  0.1821  0.5004 -0.2379
36368SOL    HW116154   6.769   8.796  11.946 -0.5429 -0.3225 -3.3595
36368SOL    HW216155   6.822   8.935  11.973  0.1691 -1.5021  2.7485
36369SOL     OW16156   2.653  10.983   2.878  0.0713 -0.2673 -0.2867
36369SOL    HW116157   2.673  10.944   2.963 -0.5927  1.5078  0.7225
36369SOL    HW216158   2.709  11.060   2.873  0.3697 -0.5419 -1.6564
36370SOL     OW16159   1.920   7.589   6.115 -0.4872 -0.3937 -0.6321
36370SOL    HW116160   1.947   7.499   6.099 -2.0043 -1.1021  0.5069
36370SOL    HW216161   1.826   7.590   6.094 -0.7841  0.5639  0.5827
36371SOL     OW16162   7.183  11.375   9.195  0.0338  0.2279 -0.2384
36371SOL    HW116163   7.143  11.342   9.115  0.2469 -0.4751 -0.0656
36371SOL    HW216164   7.158  11.311   9.262  3.3971 -1.6591 -0.5676
36372SOL     OW16165  12.459   1.713   0.155 -0.1588 -0.2804  0.0867
36372SOL    HW116166  12.373   1.711   0.114  0.2626 -2.0091 -0.7740
36372SOL    HW216167  12.454   1.649   0.226  0.1457  0.3019  0.6543
36373SOL     OW16168   0.122   7.687  10.533 -0.2959 -0.1094  0.0501
36373SOL    HW116169   0.185   7.659  10.467 -1.0233  0.4725 -0.9182
36373SOL    HW216170   0.039   7.695  10.486 -1.2946 -1.5867  1.4491
36374SOL     OW16171   5.894  11.354   2.598 -0.0152 -0.2260  0.2621
36374SOL    HW116172   5.981  11.376   2.566 -0.9500  1.4342 -1.3201
36374SOL    HW216173   5.883  11.406   2.677 -0.7921  2.3797 -1.4249
36375SOL     OW16174   6.418   7.023   8.936 -0.1478 -0.9362  0.2643
36375SOL    HW116175   6.401   7.063   8.851  0.7097  0.3455  0.6650
36375SOL    HW216176   6.345   6.961   8.948 -2.1633  1.2522  0.0792
36376SOL     OW16177   3.894   9.807   6.946  0.2294 -0.0114  0.2125
36376SOL    HW116178   3.844   9.886   6.930 -2.1993 -1.3937  0.5575
36376SOL    HW216179   3.855   9.768   7.024  1.4165 -1.5060  0.1227
36377SOL     OW16180   0.273  10.428   5.010 -0.7026  0.6309 -0.8987
36377SOL    HW116181   0.213  10.369   5.056 -0.1359 -0.4657 -1.4985
36377SOL    HW216182   0.235  10.515   5.020 -1.4323  0.2021  0.2461
36378SOL     OW16183   3.685   9.448  11.286  0.6829  0.3249 -1.0677
36378SOL    HW116184   3.773   9.423  11.257  0.2313 -3.2188  0.1346
36378SOL    HW216185   3.627   9.389  11.237 -0.6907 -0.0502  0.9175
36379SOL     OW16186   2.855   7.587   7.576 -0.4379 -0.3490  0.3955
36379SOL    HW116187   2.772   7.541   7.587 -0.5296 -1.4993 -3.5499
36379SOL    HW216188   2.831   7.678   7.559 -0.9550 -0.7127 -0.9053
36380SOL     OW16189  10.711   2.418   1.407 -0.0757  0.4196  0.1180
36380SOL    HW116190  10.804   2.415   1.384 -0.4644  0.5657 -1.5637
36380SOL    HW216191  10.677   2.493   1.358 -1.0687  0.4302  0.7954
36381SOL     OW16192   8.564   4.871   0.221  0.0469  0.0866  0.0282
36381SOL    HW116193   8.561   4.950   0.166 -0.1723 -0.9860 -1.5609
36381SOL    HW216194   8.551   4.904   0.310 -0.8582  1.7527 -0.6693
36382SOL     OW16195   1.492   9.523   9.790  0.9380 -0.3210  0.5498
36382SOL    HW116196   1.570   9.579   9.790  0.3840  0.5234 -0.8283
36382SOL    HW216197   1.439   9.555   9.863  0.5914  1.0576 -0.2735
36383SOL     OW16198   9.154   7.665   8.979 -0.0696 -0.7401  0.0195
36383SOL    HW116199   9.079   7.607   8.991 -0.2419 -1.3626 -3.2674
36383SOL    HW216200   9.131   7.718   8.903  1.8257  0.7930  0.4508
36384SOL     OW16201   9.300   3.002   5.644 -0.0306 -0.2167  0.2068
36384SOL    HW116202   9.231   2.937   5.635 -0.8126  0.6427 -0.1877
36384SOL    HW216203   9.270   3.060   5.714  0.6000 -0.2115  0.4801
36385SOL     OW16204   2.446  11.196   6.784 -1.0176 -0.0246  0.2818
36385SOL    HW116205   2.458  11.152   6.869 -0.2585 -0.6613 -0.1406
36385SOL    HW216206   2.535  11.209   6.751 -1.3194 -0.3706 -0.7081
36386SOL     OW16207   6.835   1.342   6.962  0.5207 -0.4165  0.2638
36386SOL    HW116208   6.871   1.431   6.971  0.7409 -0.5814  1.1470
36386SOL    HW216209   6.892   1.300   6.898  0.1415  0.2100 -0.5116
36387SOL     OW16210   3.857   5.600   4.705 -0.6804 -0.0539  0.0254
36387SOL    HW116211   3.793   5.530   4.718 -3.5354  2.2553 -0.5309
36387SOL    HW216212   3.834   5.639   4.621  2.5958 -0.1136 -1.0333
36388SOL     OW16213   2.755   8.724  11.767  0.1820 -0.3190 -0.2954
36388SOL    HW116214   2.755   8.691  11.857 -2.1667 -0.2837 -0.2178
36388SOL    HW216215   2.752   8.819  11.777 -0.1769 -0.3187 -0.4093
36389SOL     OW16216   2.934   8.358  10.283  0.6866  0.0674 -0.1606
36389SOL    HW116217   2.840   8.348  10.300  1.0250 -0.3471  1.6816
36389SOL    HW216218   2.975   8.285  10.329  1.9937  0.8799  0.0348
36390SOL     OW16219   6.018  10.209   4.936 -0.6648 -0.4419  0.2152
36390SOL    HW116220   6.090  10.197   4.875  1.3865  2.6254  1.7664
36390SOL    HW216221   5.958  10.270   4.892 -1.0371 -1.0230 -0.0919
36391SOL     OW16222   1.020   4.226   2.972  0.2767 -0.3187  0.3082
36391SOL    HW116223   0.952   4.293   2.972 -0.2673 -0.8370  1.5144
36391SOL    HW216224   1.069   4.241   3.053  0.2501 -1.2551  0.5133
36392SOL     OW16225  10.796   9.741   5.095 -0.8634  0.4946  0.6654
36392SOL    HW116226  10.770   9.650   5.108 -2.7896  0.7798 -0.6099
36392SOL    HW216227  10.841   9.741   5.010 -1.7767  0.8401  0.1601
36393SOL     OW16228  12.353   7.358   8.092 -0.6967  0.2700 -0.0633
36393SOL    HW116229  12.264   7.374   8.124 -0.8296 -0.6496  0.0473
36393SOL    HW216230  12.342   7.295   8.021 -0.2018  0.7585 -0.5873
36394SOL     OW16231   3.266   9.208  11.327  0.1292  0.2663 -0.1466
36394SOL    HW116232   3.195   9.225  11.265  0.9503 -1.7896 -1.7379
36394SOL    HW216233   3.222   9.172  11.404 -0.6040 -0.7708 -1.0303
36395SOL     OW16234   0.565   3.487   6.431 -0.0328 -0.1725  0.3530
36395SOL    HW116235   0.533   3.436   6.506  1.2363 -1.0011  0.3569
36395SOL    HW216236   0.645   3.528   6.462  0.0570  0.1523 -0.2978
36396SOL     OW16237   8.249   5.363   5.648 -0.1335 -0.3058  0.4898
36396SOL    HW116238   8.306   5.422   5.599  0.7036 -2.6244 -1.5595
36396SOL    HW216239   8.170   5.414   5.666  0.4093  1.3364 -1.4477
36397SOL     OW16240   6.257   9.800   6.511 -0.4637  0.4515  0.0742
36397SOL    HW116241   6.202   9.865   6.467  1.5833  0.4958 -2.6690
36397SOL    HW216242   6.318   9.852   6.564 -0.6370  0.5972  0.1329
36398SOL     OW16243   1.300   4.284   8.560 -0.2264 -0.1092 -0.1774
36398SOL    HW116244   1.218   4.254   8.599  0.5972 -0.0171  1.7163
36398SOL    HW216245   1.292   4.380   8.560 -0.7626 -0.1221 -1.5468
36399SOL     OW16246   9.655   3.876   8.419  0.0667 -0.0170 -0.1647
36399SOL    HW116247   9.746   3.881   8.448  1.1577  0.6262 -3.2235
36399SOL    HW216248   9.607   3.933   8.478  1.8208  0.3978  0.9245
36400SOL     OW16249   6.120  12.014   0.423  0.4003  0.0846  0.4827
36400SOL    HW116250   6.128  12.110   0.425 -0.4888  0.2044 -0.7244
36400SOL    HW216251   6.105  11.993   0.331 -2.8548 -0.9186  1.1179
36401SOL     OW16252   4.268  10.138   4.760  0.1096 -0.6368 -0.0125
36401SOL    HW116253   4.221  10.074   4.813 -1.7164  0.1858 -0.5266
36401SOL    HW216254   4.313  10.086   4.693  1.4407 -1.5837  1.5503
36402SOL     OW16255   9.209   9.928  10.694 -0.2512 -0.1015 -0.2238
36402SOL    HW116256   9.251   9.952  10.777 -0.4298 -1.4029  0.2531
36402SOL    HW216257   9.282   9.902  10.638 -0.0441  1.5410 -0.7787
36403SOL     OW16258   1.733   6.376   4.718  0.0738  0.1071  0.4674
36403SOL    HW116259   1.791   6.452   4.712  0.6552 -0.4085 -0.7653
36403SOL    HW216260   1.675   6.383   4.642 -1.1169  0.2992  1.3661
36404SOL     OW16261   2.599   1.560   4.446  0.2075  0.6526  0.5395
36404SOL    HW116262   2.546   1.494   4.490  1.9015  0.5262  2.5189
36404SOL    HW216263   2.550   1.642   4.457 -1.0149  0.0647 -0.3471
36405SOL     OW16264   8.816   3.346   6.975 -1.1225  0.7720 -0.3876
36405SOL    HW116265   8.858   3.318   7.056  0.6225  0.4887 -1.3246
36405SOL    HW216266   8.835   3.440   6.970 -1.7584  0.9142 -0.1774
36406SOL     OW16267   0.660  12.317   7.535 -0.0928 -0.1245  0.0146
36406SOL    HW116268   0.687  12.234   7.496  0.1577 -0.6947  1.3369
36406SOL    HW216269   0.734  12.376   7.520  0.4081 -0.6265  0.4706
36407SOL     OW16270   3.718  11.758   7.671 -0.5389 -0.3195 -0.0431
36407SOL    HW116271   3.773  11.776   7.596  0.1456 -0.5604  0.3940
36407SOL    HW216272   3.631  11.743   7.634 -0.3392  0.1717 -0.7245
36408SOL     OW16273   7.149   4.920  12.433  0.3869  0.2138  0.2495
36408SOL    HW116274   7.055   4.934  12.433  0.4580  1.0338 -1.7958
36408SOL    HW216275   7.186   5.006  12.410  1.6206 -0.1776  0.6710
36409SOL     OW16276   8.263   2.625   5.024 -0.1596 -0.1095 -0.0854
36409SOL    HW116277   8.256   2.611   5.119 -2.3637  0.1223 -0.1805
36409SOL    HW216278   8.241   2.540   4.986 -1.0277  0.2598 -0.4182
36410SOL     OW16279   9.022   5.618   0.218  0.4089  0.4342  0.1061
36410SOL    HW116280   8.934   5.593   0.188 -0.0097  1.0383  0.8036
36410SOL    HW216281   9.022   5.713   0.215  0.7888  0.4651  0.7955
36411SOL     OW16282   0.809   3.987   9.825 -0.7382  0.6476  0.1093
36411SOL    HW116283   0.722   3.948   9.822 -1.6730  2.6230 -0.5539
36411SOL    HW216284   0.866   3.925   9.779 -1.6776 -0.8606  0.9065
36412SOL     OW16285  12.585   8.652   7.940  0.8060  0.6214  0.4428
36412SOL    HW116286  12.609   8.639   7.848  0.0096  0.1521  0.2862
36412SOL    HW216287  12.668   8.659   7.986  1.3263 -1.9833  0.0741
36413SOL     OW16288   1.549   5.979   1.701 -0.1152  0.2868 -0.4036
36413SOL    HW116289   1.609   5.904   1.696 -0.8341 -0.3145 -0.1762
36413SOL    HW216290   1.559   6.011   1.791  0.0060  0.3135 -0.4261
36414SOL     OW16291   3.386   0.544   3.986 -0.1799 -0.3990 -0.5664
36414SOL    HW116292   3.317   0.548   4.052  0.0689  0.1341 -0.3321
36414SOL    HW216293   3.427   0.459   3.999  1.3649  0.5733  1.5194
36415SOL     OW16294  11.948   1.729   4.904  0.3372 -0.3851 -0.4246
36415SOL    HW116295  12.039   1.758   4.906  0.0655  0.4891 -0.6491
36415SOL    HW216296  11.951   1.640   4.939  0.9464  0.5517  2.1333
36416SOL     OW16297   5.116   1.354  12.266  0.7497  0.4540  0.5158
36416SOL    HW116298   5.155   1.311  12.190  2.3640 -0.2540  1.6934
36416SOL    HW216299   5.022   1.340  12.256  1.0690 -1.3432 -0.3506
36417SOL     OW16300   3.435  12.381   7.493  0.0223  0.3404 -0.5196
36417SOL    HW116301   3.525  12.372   7.462  0.5189  1.4562  0.4871
36417SOL    HW216302   3.432  12.329   7.573 -1.0991 -2.0916 -2.0433
36418SOL     OW16303  10.203   8.791  10.126 -0.3918 -0.3312  0.2112
36418SOL    HW116304  10.234   8.716  10.176 -0.4464 -0.8603 -0.5312
36418SOL    HW216305  10.279   8.849  10.121 -0.0616 -0.7791 -0.0281
36419SOL     OW16306   9.462   9.145   7.721 -0.4720  0.3115 -0.2353
36419SOL    HW116307   9.436   9.062   7.681  1.2508  0.4647 -1.8076
36419SOL    HW216308   9.381   9.195   7.727 -1.0341 -0.2207 -2.4714
36420SOL     OW16309   9.503   3.722   0.396 -0.3017  0.0710  0.4516
36420SOL    HW116310   9.554   3.774   0.459 -1.4180  0.3990  1.1110
36420SOL    HW216311   9.441   3.785   0.358 -0.4793 -0.4001 -0.0452
36421SOL     OW16312  10.717   8.876   3.439 -0.2134 -0.5534 -0.0626
36421SOL    HW116313  10.778   8.942   3.407  0.1297 -0.0277  1.5524
36421SOL    HW216314  10.683   8.913   3.521 -0.3917 -2.1433  0.6254
36422SOL     OW16315   5.904  10.789   5.431 -0.0828  0.1367 -0.0036
36422SOL    HW116316   5.922  10.835   5.513 -1.4452  0.3040  0.2367
36422SOL    HW216317   5.974  10.724   5.424 -0.0183  0.0216  1.3737
36423SOL     OW16318   0.957   9.448   9.650 -0.4754 -0.3203  0.0841
36423SOL    HW116319   0.976   9.355   9.653 -0.5413 -0.3633 -0.6360
36423SOL    HW216320   0.931   9.465   9.559 -1.4043  0.2122  0.4286
36424SOL     OW16321   4.879   1.496   6.320  0.5585 -0.4176  0.1732
36424SOL    HW116322   4.793   1.480   6.282  1.3887 -1.0811 -1.5552
36424SOL    HW216323   4.935   1.516   6.245  1.9381 -0.1092  1.2418
36425SOL     OW16324   5.287   7.053   1.159  0.8795  0.4517 -0.2821
36425SOL    HW116325   5.324   7.140   1.172 -1.1317  1.1876  0.9576
36425SOL    HW216326   5.208   7.068   1.107 -1.0135 -0.1992  2.2253
36426SOL     OW16327   4.419   8.336   1.638  0.2874  0.3718  0.3705
36426SOL    HW116328   4.486   8.367   1.698 -0.3776  1.0354  0.7835
36426SOL    HW216329   4.396   8.412   1.585 -1.1460  0.5558  1.1941
36427SOL     OW16330   3.090  10.713   3.135  0.2296 -0.0065  0.1728
36427SOL    HW116331   3.137  10.779   3.186  2.2751 -2.3547  1.5661
36427SOL    HW216332   3.113  10.731   3.044  0.4975  1.3451  0.4922
36428SOL     OW16333   4.358   5.034   5.829  0.9854  0.0491  0.0804
36428SOL    HW116334   4.449   5.064   5.823  1.4475 -1.3916 -0.8991
36428SOL    HW216335   4.361   4.965   5.896  0.7683 -0.4343 -0.3970
36429SOL     OW16336  11.803   4.568  12.317  0.8922 -0.1224  0.0414
36429SOL    HW116337  11.739   4.551  12.248  1.4884  2.8670 -1.4055
36429SOL    HW216338  11.749   4.592  12.393  0.2301  0.4331 -0.5776
36430SOL     OW16339   0.889  11.220   5.309 -0.0613  0.0808  0.0826
36430SOL    HW116340   0.968  11.273   5.308  0.9740 -1.3910  0.6353
36430SOL    HW216341   0.853  11.228   5.220  0.1877  1.4629  0.0804
36431SOL     OW16342   2.363   2.158  10.365 -0.0067 -0.0022  0.0236
36431SOL    HW116343   2.271   2.156  10.391  0.0878  0.2663  0.3878
36431SOL    HW216344   2.406   2.213  10.431  0.3979 -0.0467 -0.1960
36432SOL     OW16345   1.921  12.517   9.731 -0.3458  0.4036 -0.2242
36432SOL    HW116346   1.858  12.574   9.776  1.2890  1.2379  1.1240
36432SOL    HW216347   1.942  12.565   9.650  0.9703  1.7763  0.8666
36433SOL     OW16348   4.445   7.516   0.558  0.0763  0.2971  0.1780
36433SOL    HW116349   4.536   7.508   0.528 -0.4747 -0.6957 -1.3579
36433SOL    HW216350   4.419   7.427   0.579 -1.0103  0.3507 -0.8910
36434SOL     OW16351   5.734   8.627   3.063 -0.3418  0.0167 -0.5670
36434SOL    HW116352   5.760   8.558   3.002  1.4276 -0.6700  0.9013
36434SOL    HW216353   5.739   8.708   3.012  0.2172 -0.6350 -1.5670
36435SOL     OW16354   7.660  12.379   6.269 -0.0099 -0.6225 -0.5601
36435SOL    HW116355   7.663  12.467   6.230 -1.5341 -0.3376 -0.1295
36435SOL    HW216356   7.618  12.393   6.354 -0.1077 -1.7465 -0.4129
36436SOL     OW16357   7.912  10.416   9.878  0.1007  0.0999 -0.3988
36436SOL    HW116358   7.984  10.471   9.845  0.2984 -0.1321 -0.3585
36436SOL    HW216359   7.854  10.477   9.924  0.8679  0.1197  0.5713
36437SOL     OW16360   9.126   8.018   6.237  0.2206  0.2189 -0.0453
36437SOL    HW116361   9.034   7.994   6.227 -0.1607  1.1893  0.8796
36437SOL    HW216362   9.146   7.996   6.328  0.5380  1.1516  0.1170
36438SOL     OW16363   8.043   3.489   0.789  0.1210 -0.3953  0.0382
36438SOL    HW116364   7.965   3.500   0.844  0.0393 -1.5851  0.1870
36438SOL    HW216365   8.010   3.444   0.711  0.8341 -2.1530  0.6812
36439SOL     OW16366   3.171   5.396  10.590 -0.0027 -0.2855 -0.0046
36439SOL    HW116367   3.092   5.343  10.586  0.0180 -0.2389 -1.6579
36439SOL    HW216368   3.237   5.338  10.629 -0.3570 -0.9972 -0.4405
36440SOL     OW16369   8.353   7.445   3.882 -0.2998 -0.1596  0.3669
36440SOL    HW116370   8.334   7.364   3.834  0.0800 -0.3115  0.4695
36440SOL    HW216371   8.314   7.514   3.828  1.7429 -0.1283 -1.1765
36441SOL     OW16372   0.976   1.074   5.474  0.2129  0.0929  0.0961
36441SOL    HW116373   1.031   1.061   5.397 -0.1284 -0.7745 -0.0115
36441SOL    HW216374   0.956   0.985   5.504 -0.7468  0.4051  0.3988
36442SOL     OW16375   8.077   1.429   1.824  0.1378  0.8442  0.0609
36442SOL    HW116376   8.167   1.460   1.812 -0.1586  0.7461 -3.7902
36442SOL    HW216377   8.023   1.508   1.823  0.0098  0.7535 -0.3362
36443SOL     OW16378   0.264   9.190   3.674  0.1172  0.5324  0.4223
36443SOL    HW116379   0.310   9.272   3.658 -0.2802  0.4586 -1.2115
36443SOL    HW216380   0.292   9.164   3.762 -0.6853  3.0222  1.4976
36444SOL     OW16381   3.572   2.524  12.388  0.0532 -0.0232  0.8151
36444SOL    HW116382   3.491   2.554  12.345  0.9882 -1.6083 -2.3560
36444SOL    HW216383   3.632   2.598  12.378 -0.2898  0.2977  1.0688
36445SOL     OW16384  11.558   1.391   5.993 -0.0396  0.0562 -0.2077
36445SOL    HW116385  11.533   1.483   6.003  0.0589  0.0054  0.5082
36445SOL    HW216386  11.636   1.381   6.046  0.6004 -0.1824 -1.1632
36446SOL     OW16387   2.052   6.892   3.986 -0.1762  0.3231 -0.3487
36446SOL    HW116388   2.026   6.945   3.910 -1.2918 -0.4275 -0.5077
36446SOL    HW216389   1.981   6.829   3.996 -0.2258  0.6485  1.5666
36447SOL     OW16390   0.678   5.405  11.767  0.0089  0.4425 -0.2697
36447SOL    HW116391   0.717   5.331  11.720  0.4048  0.5905 -0.1817
36447SOL    HW216392   0.743   5.427  11.834 -0.0201  0.9991 -0.4231
36448SOL     OW16393   9.360   1.686   8.786  0.1242 -0.1258  0.1844
36448SOL    HW116394   9.324   1.630   8.717  0.1808  0.4428 -0.3141
36448SOL    HW216395   9.285   1.737   8.817 -0.1983 -1.3561  1.5217
36449SOL     OW16396   2.797   7.940   1.791 -0.2960  0.5271 -0.3936
36449SOL    HW116397   2.838   7.872   1.737 -0.2554 -0.2850  0.6252
36449SOL    HW216398   2.707   7.908   1.806  0.8613 -1.5709  3.5946
36450SOL     OW16399   0.721   4.147   8.417  0.3050 -0.2237 -0.5916
36450SOL    HW116400   0.800   4.193   8.389  0.0974  1.8609  1.8795
36450SOL    HW216401   0.740   4.120   8.507 -1.0383 -1.6477 -0.6882
36451SOL     OW16402   3.021   5.027   8.102 -0.7402  0.2167  0.2744
36451SOL    HW116403   3.074   5.086   8.048 -1.7838  1.0002  0.0687
36451SOL    HW216404   3.077   5.007   8.177  0.2007  0.2464 -0.3974
36452SOL     OW16405  10.865   2.407   5.692 -0.4066  0.4891  0.1063
36452SOL    HW116406  10.798   2.377   5.631  0.7793 -0.6454 -0.7138
36452SOL    HW216407  10.944   2.360   5.665  0.8626  2.1815  0.6843
36453SOL     OW16408  10.036   4.790   4.030  0.2345 -0.5910 -0.6944
36453SOL    HW116409  10.105   4.753   3.974  2.3280  0.7380  0.8493
36453SOL    HW216410  10.038   4.736   4.109 -0.9958 -0.9376 -0.8799
36454SOL     OW16411   7.616   1.223  10.520  0.0246 -0.2154  0.2227
36454SOL    HW116412   7.699   1.194  10.556  0.0324  0.2031  0.5587
36454SOL    HW216413   7.595   1.302  10.570 -2.0254 -1.8813  2.2546
36455SOL     OW16414   5.488   7.587   4.948 -0.5592  0.6537 -0.3364
36455SOL    HW116415   5.572   7.621   4.978 -0.1532 -0.4869 -0.1505
36455SOL    HW216416   5.490   7.494   4.970 -1.5614  0.4548 -1.0171
36456SOL     OW16417   0.956   8.688  11.418 -0.2168  0.6398 -0.3032
36456SOL    HW116418   1.049   8.707  11.430  0.1893 -0.8273 -0.8472
36456SOL    HW216419   0.938   8.710  11.327 -0.1908  0.1932 -0.4210
36457SOL     OW16420   0.241   6.018   2.898  0.4482 -0.8186 -0.0454
36457SOL    HW116421   0.166   6.077   2.888  1.5121  1.0424  1.9937
36457SOL    HW216422   0.277   6.009   2.810 -2.7964 -2.7984 -1.3313
36458SOL     OW16423  11.318   7.939   7.689 -0.0390  0.4870 -0.0143
36458SOL    HW116424  11.230   7.962   7.719  0.3740 -0.3969  2.0576
36458SOL    HW216425  11.370   8.017   7.706 -0.1029  0.4633  0.3096
36459SOL     OW16426  12.105   0.565   6.107  0.1251 -1.0741 -0.3746
36459SOL    HW116427  12.155   0.551   6.027 -0.6666 -1.1936 -0.8554
36459SOL    HW216428  12.040   0.632   6.084  0.5949 -0.3041  0.4736
36460SOL     OW16429   0.484   9.479  10.688 -0.2830  0.0010 -0.2160
36460SOL    HW116430   0.389   9.490  10.689 -0.2217  0.7368  1.9778
36460SOL    HW216431   0.502   9.420  10.761  0.8871 -1.0218 -1.2760
36461SOL     OW16432   1.280   6.884   2.129  0.2048  0.0782  0.3648
36461SOL    HW116433   1.248   6.968   2.094  1.3255  0.4185  0.1193
36461SOL    HW216434   1.274   6.894   2.224  1.8621  1.1021  0.4043
36462SOL     OW16435   3.849   4.275   5.424 -0.3446 -0.0177 -0.4842
36462SOL    HW116436   3.791   4.281   5.348  0.9818  2.4811 -1.4025
36462SOL    HW216437   3.937   4.277   5.387  0.3390 -0.2271  1.0655
36463SOL     OW16438  10.419   0.169   8.872  0.2161 -0.0357  0.9201
36463SOL    HW116439  10.444   0.242   8.814  1.1686 -0.1997  1.0979
36463SOL    HW216440  10.360   0.116   8.819  0.0383  0.5168  0.5552
36464SOL     OW16441  12.452   5.992  12.057  0.5370  0.1236  0.3209
36464SOL    HW116442  12.447   6.034  12.143  2.6349  1.7135 -0.2734
36464SOL    HW216443  12.499   6.054  12.002 -0.6111 -0.9221 -1.9829
36465SOL     OW16444   7.021   7.684   7.776  0.1718 -0.2326 -0.2878
36465SOL    HW116445   7.036   7.778   7.768  0.2075 -0.0722  1.2855
36465SOL    HW216446   6.932   7.670   7.742  0.0945  0.4032 -0.3500
36466SOL     OW16447   6.815   8.307  11.352  0.0212 -0.2716 -0.0615
36466SOL    HW116448   6.741   8.357  11.316 -0.2845 -1.4941 -1.1999
36466SOL    HW216449   6.885   8.372  11.362 -1.1074  0.8609  0.8072
36467SOL     OW16450   6.934   6.618  11.288  0.6549  0.7448  0.1292
36467SOL    HW116451   7.023   6.643  11.311  1.4174 -1.9153  0.4759
36467SOL    HW216452   6.903   6.687  11.229  2.6386  2.1297  0.6458
36468SOL     OW16453   3.448  11.772   0.110 -0.9821  0.0086 -0.6639
36468SOL    HW116454   3.391  11.848   0.124  0.0118  0.6416  0.1212
36468SOL    HW216455   3.513  11.802   0.046 -0.3404 -0.0282 -0.0410
36469SOL     OW16456   5.906   5.015  11.776  0.7163  0.0365 -0.4063
36469SOL    HW116457   5.935   5.050  11.860 -0.0792 -1.9490  0.7578
36469SOL    HW216458   5.936   4.925  11.776 -1.0539 -0.5990 -1.3402
36470SOL     OW16459   6.622   6.398   0.213 -0.4633  0.0086 -0.0633
36470SOL    HW116460   6.690   6.462   0.192  1.4926 -0.3774  4.1327
36470SOL    HW216461   6.552   6.450   0.253 -0.3775 -0.1341  0.2702
36471SOL     OW16462  11.942  10.463   0.199 -0.6665  0.2742  0.7122
36471SOL    HW116463  11.891  10.417   0.265 -2.3691 -0.7297 -1.1618
36471SOL    HW216464  11.888  10.539   0.175 -1.3696 -0.7558 -1.2425
36472SOL     OW16465  12.208   4.532   3.894 -0.2004 -0.0912 -0.3741
36472SOL    HW116466  12.276   4.519   3.961 -0.6069  0.0582  0.0712
36472SOL    HW216467  12.236   4.476   3.821  0.6101  0.2707 -0.3522
36473SOL     OW16468   6.867   1.544   3.582  0.8504  0.2667  0.0531
36473SOL    HW116469   6.818   1.565   3.662  1.3084  3.2915 -0.3542
36473SOL    HW216470   6.803   1.498   3.527 -0.4085  0.8351  0.9732
36474SOL     OW16471   1.245  12.407  11.073 -0.1331  0.1778  0.2697
36474SOL    HW116472   1.286  12.331  11.031  0.9663  0.1723  1.2970
36474SOL    HW216473   1.318  12.461  11.100 -0.8975  1.3909 -0.0160
36475SOL     OW16474   3.306   6.603   1.288  0.0145  0.1664  0.5058
36475SOL    HW116475   3.323   6.690   1.323  1.3831  0.9467 -1.8939
36475SOL    HW216476   3.302   6.615   1.193  2.6172 -2.6858 -0.1337
36476SOL     OW16477  11.007  11.079   8.001 -0.0309 -0.2503 -0.0699
36476SOL    HW116478  11.051  11.161   7.980 -0.1411 -0.3199 -0.5786
36476SOL    HW216479  11.005  11.077   8.097 -0.5397  0.6141 -0.0500
36477SOL     OW16480   9.122   1.702  11.615  0.4010 -0.2927  0.7055
36477SOL    HW116481   9.094   1.727  11.527 -1.0763 -0.0246  1.2301
36477SOL    HW216482   9.195   1.641  11.600 -0.8587 -1.5370 -0.7702
36478SOL     OW16483  10.944   0.286   7.160 -0.1523 -0.1693 -0.5486
36478SOL    HW116484  10.957   0.362   7.104 -1.2968  0.4683  0.0091
36478SOL    HW216485  10.852   0.264   7.150 -0.5983  0.4257  1.5952
36479SOL     OW16486   7.441   7.839   2.544  0.3181 -0.2105 -0.2073
36479SOL    HW116487   7.351   7.808   2.532 -0.1801  1.5679 -1.6226
36479SOL    HW216488   7.489   7.763   2.576 -1.9590 -0.8518  2.0190
36480SOL     OW16489  10.537   4.101  11.985  0.2699  0.4737 -0.2286
36480SOL    HW116490  10.511   4.009  11.982  0.1666  0.4405  1.1902
36480SOL    HW216491  10.628   4.100  12.013  0.2740  0.8033 -0.2230
36481SOL     OW16492   3.799   6.384   9.106  0.6517 -0.3351  0.2766
36481SOL    HW116493   3.745   6.463   9.106 -1.3717 -1.6183  1.8899
36481SOL    HW216494   3.876   6.407   9.158 -1.7526 -0.4168  4.2832
36482SOL     OW16495   3.562   4.132   1.703 -0.6381 -0.1966  0.0948
36482SOL    HW116496   3.614   4.186   1.644 -0.0758 -0.8623 -0.0390
36482SOL    HW216497   3.530   4.060   1.649 -0.4136 -0.6233  0.5196
36483SOL     OW16498   5.841   9.510  12.204 -0.2558  0.0894 -0.1244
36483SOL    HW116499   5.873   9.475  12.121  0.5972 -0.5663  0.4614
36483SOL    HW216500   5.813   9.599  12.183  0.4420  0.1128 -1.0072
36484SOL     OW16501  11.845   2.842  11.234 -0.0156  0.5152 -0.0078
36484SOL    HW116502  11.766   2.893  11.218  0.8309  2.0431  0.4533
36484SOL    HW216503  11.905   2.868  11.163 -0.3304 -1.6381 -1.1687
36485SOL     OW16504  10.332   7.794   8.318  0.5793  0.0932  0.1502
36485SOL    HW116505  10.421   7.772   8.343  0.6180  0.2422  0.1403
36485SOL    HW216506  10.311   7.873   8.367 -0.1646 -0.8826  1.4995
36486SOL     OW16507   5.527   6.927  11.224 -0.1166 -0.3235 -0.0370
36486SOL    HW116508   5.521   6.972  11.140  0.2871  0.2459  0.2339
36486SOL    HW216509   5.490   6.989  11.287 -0.5029 -0.7849  0.1985
36487SOL     OW16510   0.503   2.309   0.794 -0.2836 -0.5495  0.1482
36487SOL    HW116511   0.409   2.300   0.780 -0.0140 -2.9870 -0.4575
36487SOL    HW216512   0.542   2.293   0.708  0.7372 -1.0066  0.6797
36488SOL     OW16513  10.094   8.186  12.459 -0.1420 -0.2480  0.0374
36488SOL    HW116514  10.173   8.133  12.453 -0.4935 -0.8559  0.5507
36488SOL    HW216515  10.070   8.181  12.552 -1.1685 -0.6683 -0.2344
36489SOL     OW16516   2.246  10.866   4.097  0.9325  0.1138 -0.1565
36489SOL    HW116517   2.154  10.858   4.122  1.1686  1.5580  1.3563
36489SOL    HW216518   2.279  10.776   4.096 -0.4744 -0.4199 -0.7376
36490SOL     OW16519   6.683   3.445   1.050  0.1543 -0.1740  0.4910
36490SOL    HW116520   6.588   3.437   1.037  0.3275 -2.5584  0.2472
36490SOL    HW216521   6.695   3.430   1.143  0.4302 -2.6503  0.1386
36491SOL     OW16522   6.559   7.051   1.915  0.2684  0.0537 -0.2336
36491SOL    HW116523   6.516   7.033   1.999  1.0293 -0.0969  0.1333
36491SOL    HW216524   6.512   7.127   1.880 -0.2850 -0.1006  0.1570
36492SOL     OW16525   6.250   1.910   0.881 -0.1995 -0.4071  0.1148
36492SOL    HW116526   6.222   1.930   0.792 -0.5078 -0.5118  0.1880
36492SOL    HW216527   6.339   1.877   0.871 -0.3566 -0.7390 -0.1876
36493SOL     OW16528   0.299   2.441   0.024  0.3631  0.9615  0.2811
36493SOL    HW116529   0.212   2.478   0.038  0.9529  2.0339  1.3247
36493SOL    HW216530   0.297   2.408  -0.066 -1.7117 -0.7461  0.8648
36494SOL     OW16531   0.397   0.685   1.628 -0.7951 -0.4214 -0.1786
36494SOL    HW116532   0.414   0.677   1.722  0.5126  2.1299 -0.1143
36494SOL    HW216533   0.330   0.753   1.622  0.4688  0.7810 -1.1418
36495SOL     OW16534   6.977   9.678   0.252  0.2088  0.0385 -0.0231
36495SOL    HW116535   7.031   9.723   0.317  0.9754  1.7976 -1.7749
36495SOL    HW216536   7.008   9.711   0.168 -1.7530 -1.0207 -1.2381
36496SOL     OW16537  10.243   3.141   5.141 -0.3623 -0.0063  0.6125
36496SOL    HW116538  10.166   3.089   5.117 -0.2596  0.0149  0.2348
36496SOL    HW216539  10.302   3.133   5.066 -0.5819  1.1177  0.3139
36497SOL     OW16540   1.634  11.299   1.124 -0.1426 -0.1000 -0.2832
36497SOL    HW116541   1.565  11.342   1.174  0.4148 -1.0112  1.3892
36497SOL    HW216542   1.714  11.316   1.174  0.2404 -2.1803 -0.0762
36498SOL     OW16543  11.563   6.289   7.065 -0.2570  0.2955  0.7328
36498SOL    HW116544  11.573   6.293   6.970  2.1439  2.5386  0.9717
36498SOL    HW216545  11.520   6.372   7.088 -1.2749 -0.4391  1.6017
36499SOL     OW16546   3.233   4.550  12.382 -1.6415  0.0889  0.2507
36499SOL    HW116547   3.278   4.476  12.341 -0.8474 -0.0062  1.2507
36499SOL    HW216548   3.288   4.573  12.457 -2.4101  1.0459  0.5433
36500SOL     OW16549  10.735   9.260   8.287  0.2806  0.1395 -0.2328
36500SOL    HW116550  10.773   9.348   8.279 -0.4883  0.6254  1.1009
36500SOL    HW216551  10.640   9.276   8.289  0.1793 -0.4335  2.7243
36501SOL     OW16552   0.285  12.153   1.935  1.1366  0.2504  0.1211
36501SOL    HW116553   0.215  12.209   1.969  0.2864 -0.1571 -0.8983
36501SOL    HW216554   0.260  12.065   1.962  1.0231  0.0568 -0.5978
36502SOL     OW16555   0.109   4.164   6.898  0.1213 -0.2376  0.1439
36502SOL    HW116556   0.137   4.144   6.987 -0.3019 -0.2440  0.2738
36502SOL    HW216557   0.163   4.106   6.843  2.0903  1.3891  0.2104
36503SOL     OW16558  12.497   9.044   2.252 -0.4195 -0.0549 -0.4975
36503SOL    HW116559  12.418   9.038   2.200 -1.2567  0.6067  0.6434
36503SOL    HW216560  12.466   9.049   2.343  0.8324  1.3956 -0.0916
36504SOL     OW16561   4.807   3.892  11.684 -0.2522  0.5278  0.2400
36504SOL    HW116562   4.777   3.975  11.646 -1.2593  0.1297  0.1390
36504SOL    HW216563   4.781   3.898  11.776  1.3409  1.0914  0.6908
36505SOL     OW16564   6.360   3.454   1.255  0.4257 -0.0872  0.4356
36505SOL    HW116565   6.389   3.437   1.166  0.0609 -0.6766  0.4292
36505SOL    HW216566   6.327   3.370   1.287 -1.5547  0.6135  0.3510
36506SOL     OW16567   9.451   1.855  12.308  0.0264  0.0977  0.2385
36506SOL    HW116568   9.370   1.906  12.310 -0.8617 -1.2364 -0.5480
36506SOL    HW216569   9.423   1.764  12.299  1.5911 -0.5279  1.2054
36507SOL     OW16570   5.183   7.580  10.064 -0.2576  0.0510 -0.1776
36507SOL    HW116571   5.271   7.612  10.044 -0.5478 -0.0461 -1.7441
36507SOL    HW216572   5.195   7.491  10.096  0.2882  0.4301  0.6794
36508SOL     OW16573   8.009   7.123   7.101 -0.9374 -0.4777  0.1551
36508SOL    HW116574   8.014   7.052   7.166  0.0811 -1.8481 -1.3213
36508SOL    HW216575   8.026   7.203   7.151  0.3139 -1.5247  1.5033
36509SOL     OW16576   8.473   4.885   4.295  0.3825  1.2133  0.2692
36509SOL    HW116577   8.523   4.843   4.365 -1.0040  0.3310  0.7811
36509SOL    HW216578   8.416   4.815   4.262 -0.5145  2.1799 -0.2698
36510SOL     OW16579   8.701   6.107  10.990 -0.0198  0.2206 -0.4353
36510SOL    HW116580   8.701   6.116  11.085  0.0594  2.5705 -0.6053
36510SOL    HW216581   8.794   6.109  10.966  0.1206 -2.5404 -0.4787
36511SOL     OW16582   7.304   2.464   6.374  0.4725 -0.0795 -0.0768
36511SOL    HW116583   7.238   2.433   6.312 -0.5384  3.0141 -0.7172
36511SOL    HW216584   7.331   2.385   6.421 -0.9972 -2.0522 -2.2781
36512SOL     OW16585  10.126   7.551   3.651 -0.6504 -0.5502 -0.3129
36512SOL    HW116586  10.118   7.618   3.583 -1.4511 -1.5712 -1.2560
36512SOL    HW216587  10.196   7.493   3.619 -0.1244 -0.3055  0.3803
36513SOL     OW16588   7.846  10.110   1.315 -0.0941 -0.7410 -0.4616
36513SOL    HW116589   7.880  10.179   1.258  0.2756  0.5064  1.1914
36513SOL    HW216590   7.863  10.029   1.267  2.9035 -0.0048 -0.8683
36514SOL     OW16591  11.831   3.557   5.864 -0.7724  0.4500 -0.1281
36514SOL    HW116592  11.760   3.611   5.829 -0.6114  0.2987 -0.7095
36514SOL    HW216593  11.822   3.473   5.818  0.2880  0.7040 -0.8634
36515SOL     OW16594  11.989   4.947   4.487 -0.2871 -0.9389  0.7837
36515SOL    HW116595  12.056   4.893   4.529 -3.2059 -4.1932  1.7251
36515SOL    HW216596  11.945   4.991   4.560 -0.5764 -0.5615  0.3857
36516SOL     OW16597   7.806   7.702   7.281 -0.1533 -0.7094  0.1774
36516SOL    HW116598   7.783   7.699   7.374 -1.2490  2.9278  0.1966
36516SOL    HW216599   7.899   7.724   7.281  0.1718 -2.0258  0.3557
36517SOL     OW16600   0.663   0.752   1.855 -0.2735  0.2257 -0.2048
36517SOL    HW116601   0.672   0.818   1.923 -0.3363  1.1826 -1.0990
36517SOL    HW216602   0.573   0.719   1.865 -0.7744  1.3886 -0.7152
36518SOL     OW16603   9.284   4.610   6.143  0.2952 -0.2716 -0.3231
36518SOL    HW116604   9.298   4.688   6.090  1.3107 -0.3447 -0.1792
36518SOL    HW216605   9.324   4.630   6.228 -0.3596 -0.5624  0.0741
36519SOL     OW16606   4.067  10.035   2.433  0.1900 -0.2952 -0.4303
36519SOL    HW116607   3.995  10.052   2.373 -0.1821 -1.6465 -0.4065
36519SOL    HW216608   4.025  10.012   2.516  0.6943  1.1260  0.2416
36520SOL     OW16609   5.593   0.467   2.972  0.4734  0.2701 -0.1453
36520SOL    HW116610   5.687   0.482   2.982  0.2791  1.2407  0.2985
36520SOL    HW216611   5.572   0.404   3.041  0.8614 -0.2649 -0.5027
36521SOL     OW16612  12.589   3.414   0.932 -0.1080 -0.1354  0.1125
36521SOL    HW116613  12.511   3.446   0.978 -0.3059  1.2146 -1.0985
36521SOL    HW216614  12.581   3.319   0.937 -1.8605 -0.0393  0.0191
36522SOL     OW16615  11.743  12.496   4.005  0.4645  0.5476  0.7084
36522SOL    HW116616  11.696  12.413   3.992  2.1495 -0.6167  1.6554
36522SOL    HW216617  11.702  12.556   3.943 -1.1150 -0.8553  0.3010
36523SOL     OW16618   6.167   8.672  11.598 -0.3179  0.3795 -0.4198
36523SOL    HW116619   6.142   8.672  11.690  1.7257  1.2679  0.1816
36523SOL    HW216620   6.143   8.759  11.566 -2.2847 -0.3777 -1.1481
36524SOL     OW16621   3.153   9.889  10.124 -0.7332  0.2505  0.2018
36524SOL    HW116622   3.102   9.899  10.043 -0.3752 -0.6231 -0.1394
36524SOL    HW216623   3.086   9.881  10.193 -1.0536  0.0530 -0.1252
36525SOL     OW16624   2.373   8.439  11.340 -0.5015  0.0168 -0.0770
36525SOL    HW116625   2.357   8.482  11.423  0.0293 -0.4279  0.2646
36525SOL    HW216626   2.286   8.425  11.303 -0.7588 -0.0500  0.5436
36526SOL     OW16627   3.229   1.230   7.607  0.7302  0.5801 -0.0099
36526SOL    HW116628   3.240   1.192   7.694  1.6760 -0.0041 -0.3665
36526SOL    HW216629   3.309   1.280   7.592  0.7935  0.2851 -0.7260
36527SOL     OW16630   3.254   0.671  10.826  0.1730 -0.2169  0.3225
36527SOL    HW116631   3.224   0.610  10.759 -2.4443 -1.1754  2.1851
36527SOL    HW216632   3.340   0.639  10.853  0.5359 -0.7568 -1.3912
36528SOL     OW16633   5.452  10.819   7.096  0.1303  0.1866  0.6165
36528SOL    HW116634   5.406  10.831   7.178  2.1715 -0.7647  1.9783
36528SOL    HW216635   5.428  10.731   7.066 -1.4045  0.9037 -0.4035
36529SOL     OW16636   2.530   6.312  11.031 -0.4033 -0.0250 -0.2025
36529SOL    HW116637   2.586   6.238  11.055 -0.0121  0.6302  0.9732
36529SOL    HW216638   2.443   6.287  11.062 -0.7149 -0.8529 -1.6398
36530SOL     OW16639   6.018  11.999   6.156  0.6087  0.4128  0.1215
36530SOL    HW116640   6.070  12.066   6.199 -1.8975  1.2719  2.0498
36530SOL    HW216641   6.043  11.918   6.201  1.4094  0.5315 -0.0900
36531SOL     OW16642   1.918   1.459   3.288 -0.2504 -0.5290  0.8597
36531SOL    HW116643   1.953   1.372   3.305 -1.0352 -0.5594  2.5925
36531SOL    HW216644   1.923   1.469   3.193 -0.9339 -2.8051  0.5088
36532SOL     OW16645   1.145   0.445  11.224 -0.0088 -0.0952 -0.7262
36532SOL    HW116646   1.079   0.379  11.204 -0.8325  0.9190 -1.4539
36532SOL    HW216647   1.136   0.510  11.154  2.1340 -0.1925 -1.1432
36533SOL     OW16648   2.589   2.614   1.744 -0.2086  0.1283  0.0841
36533SOL    HW116649   2.648   2.673   1.790 -0.6977 -1.6005  3.1795
36533SOL    HW216650   2.645   2.571   1.679  0.9040  1.5350  0.0665
36534SOL     OW16651   5.057  10.540   6.982 -0.3230 -0.1029 -0.4836
36534SOL    HW116652   5.063  10.627   7.022 -0.6098 -0.4016  0.2322
36534SOL    HW216653   5.042  10.557   6.889 -2.5332  0.6718 -0.0555
36535SOL     OW16654  12.226   5.320   9.506  0.2312  0.1107  0.2126
36535SOL    HW116655  12.131   5.334   9.507  0.0060 -1.1906 -0.4436
36535SOL    HW216656  12.263   5.406   9.524 -1.0466  1.0948 -1.5321
36536SOL     OW16657  10.904   1.883   0.060 -0.0892  0.5141 -0.1752
36536SOL    HW116658  10.965   1.955   0.080  1.5712 -0.9285  0.1962
36536SOL    HW216659  10.837   1.890   0.128  1.8966 -0.2821  2.0222
36537SOL     OW16660   2.629  10.878   1.196  0.5242  0.7254 -0.0719
36537SOL    HW116661   2.684  10.922   1.131  1.2071  0.6858  0.4681
36537SOL    HW216662   2.678  10.885   1.278  0.7768 -1.2540 -0.0134
36538SOL     OW16663   5.681   1.472   3.787 -0.2849  0.5560  0.1648
36538SOL    HW116664   5.653   1.558   3.758  1.3281  1.2054  0.4299
36538SOL    HW216665   5.664   1.414   3.713  0.8253  1.5794 -0.9273
36539SOL     OW16666  12.579   8.997   7.852 -0.6151 -0.5583  0.1253
36539SOL    HW116667  12.613   8.929   7.910 -0.5707  0.2243  1.0508
36539SOL    HW216668  12.651   9.014   7.791 -1.4243 -2.9414 -1.6495
36540SOL     OW16669   8.890   9.657   4.358 -0.3691 -0.5309 -0.0530
36540SOL    HW116670   8.835   9.728   4.391 -0.5911  0.2424 -1.9924
36540SOL    HW216671   8.931   9.693   4.280  1.7190 -1.6129  0.4783
36541SOL     OW16672   5.593   7.434   0.149  0.0299  0.2680 -0.5758
36541SOL    HW116673   5.510   7.419   0.103 -0.1092 -0.6012 -0.0597
36541SOL    HW216674   5.627   7.346   0.165  0.4542  0.5903  0.3129
36542SOL     OW16675   1.937   2.422   5.259  0.0890  0.0249 -0.5020
36542SOL    HW116676   1.897   2.353   5.312  0.1917  0.0429 -0.3993
36542SOL    HW216677   1.870   2.446   5.195 -0.5449  0.9521  0.4698
36543SOL     OW16678  11.238   2.585   3.684 -0.0319  0.1329 -0.6652
36543SOL    HW116679  11.266   2.502   3.644  1.2403  0.7547 -1.1472
36543SOL    HW216680  11.143   2.578   3.692  0.1869 -2.0326  0.8316
36544SOL     OW16681   3.053   5.497  12.540 -0.2668  0.1318  0.4746
36544SOL    HW116682   3.036   5.523  12.450 -1.7783 -0.4433  0.5745
36544SOL    HW216683   3.147   5.480  12.543 -0.0389  1.0636 -0.7376
36545SOL     OW16684   9.745  12.161   5.673  0.7162  0.5878 -0.1822
36545SOL    HW116685   9.788  12.117   5.599 -1.3013 -1.4158 -0.2669
36545SOL    HW216686   9.739  12.094   5.741  0.5814  1.7621  1.0055
36546SOL     OW16687   9.047   2.986   5.349 -0.1172 -0.4151 -0.0338
36546SOL    HW116688   9.007   2.938   5.422 -1.9206 -1.6250 -1.6976
36546SOL    HW216689   9.080   2.918   5.290  0.1644  0.4766 -0.9465
36547SOL     OW16690   1.042   7.703  12.193  0.3300  0.0557 -0.1719
36547SOL    HW116691   0.954   7.723  12.226  0.2405 -0.9659  0.2520
36547SOL    HW216692   1.064   7.777  12.136 -0.4719  0.7174  0.3498
36548SOL     OW16693   8.875   6.377   7.820 -0.2900 -0.0522  0.4695
36548SOL    HW116694   8.810   6.307   7.826 -0.9824  0.5090 -0.2876
36548SOL    HW216695   8.835   6.442   7.763  1.6285 -0.4392 -1.4503
36549SOL     OW16696   7.480   7.336   8.548 -0.0380 -0.4331 -0.5658
36549SOL    HW116697   7.488   7.240   8.540  0.8994 -0.3770 -0.4423
36549SOL    HW216698   7.508   7.369   8.462  0.7722 -0.2295 -0.2307
36550SOL     OW16699   7.852   4.078   2.827 -0.1329 -0.2765 -0.3619
36550SOL    HW116700   7.832   3.984   2.836 -0.9412 -0.3806 -2.6853
36550SOL    HW216701   7.779   4.113   2.776  0.6956  1.4298 -0.4443
36551SOL     OW16702   8.419  12.538   1.447  0.0115 -0.1853 -0.2896
36551SOL    HW116703   8.423  12.585   1.363  2.4633 -1.7934 -1.1799
36551SOL    HW216704   8.486  12.581   1.501 -1.3555  0.6519  0.8114
36552SOL     OW16705   1.069  12.180   2.111  0.5520  0.1377 -0.1026
36552SOL    HW116706   1.157  12.153   2.137 -0.0050 -1.0559  0.6256
36552SOL    HW216707   1.083  12.226   2.027  1.7763 -0.7596 -0.4330
36553SOL     OW16708   8.752   8.283   8.691  0.2456 -0.2626  0.5318
36553SOL    HW116709   8.784   8.373   8.702  3.5601 -1.0658 -1.1811
36553SOL    HW216710   8.773   8.239   8.773  1.2445 -0.1329  0.3559
36554SOL     OW16711   5.907   0.073   8.298 -0.5765  0.5829 -0.1252
36554SOL    HW116712   5.923  -0.013   8.260  2.1504  0.4356  1.1247
36554SOL    HW216713   5.903   0.132   8.223  0.1758 -0.2805 -0.8787
36555SOL     OW16714   8.853   3.791   8.551  0.2168 -0.1592  0.3877
36555SOL    HW116715   8.813   3.708   8.524 -0.4874 -0.1530  1.3705
36555SOL    HW216716   8.795   3.825   8.619  0.2853  1.3336 -0.2471
36556SOL     OW16717   1.666   7.546   6.049 -0.3554  0.1275 -0.2472
36556SOL    HW116718   1.649   7.453   6.062 -0.2453  0.0369 -0.7345
36556SOL    HW216719   1.591   7.590   6.089 -2.2823 -0.2925 -3.1638
36557SOL     OW16720  11.826   3.942   1.180 -0.4507  0.0604 -0.0171
36557SOL    HW116721  11.832   3.868   1.241 -0.9725  0.2135  0.2267
36557SOL    HW216722  11.913   3.946   1.140  0.0456  0.2264  1.0269
36558SOL     OW16723   6.760  11.190   0.780  0.4106 -0.2609  0.6881
36558SOL    HW116724   6.833  11.204   0.720  0.8399  1.8414  1.5933
36558SOL    HW216725   6.798  11.206   0.867 -0.0099 -3.8348  1.7114
36559SOL     OW16726   0.926   1.246   5.697 -0.5004 -0.6613  0.1374
36559SOL    HW116727   0.961   1.197   5.622 -0.0258 -0.3123  0.1217
36559SOL    HW216728   0.933   1.338   5.670  0.9474 -0.4419  1.1262
36560SOL     OW16729   0.588   7.268   2.091 -0.1613 -0.0789 -0.1911
36560SOL    HW116730   0.638   7.218   2.155 -0.9927 -1.4633 -0.5774
36560SOL    HW216731   0.533   7.326   2.144 -0.3496 -0.7196  0.3272
36561SOL     OW16732   4.153   1.544   7.523 -0.0431 -0.0563  0.0330
36561SOL    HW116733   4.144   1.491   7.444  2.2064 -0.0629 -0.2789
36561SOL    HW216734   4.198   1.487   7.585  1.3098  1.0321  0.1099
36562SOL     OW16735   7.040  10.193   1.774  0.0012 -0.2915 -0.2092
36562SOL    HW116736   6.976  10.207   1.704  0.6223  1.2079 -0.5306
36562SOL    HW216737   7.124  10.217   1.734  0.3257  0.8566  1.0952
36563SOL     OW16738   0.169   3.562  10.368  0.1558 -0.5135 -0.0288
36563SOL    HW116739   0.076   3.547  10.384  0.2891  0.5551  2.2406
36563SOL    HW216740   0.205   3.581  10.455  2.5310 -1.0336 -0.8230
36564SOL     OW16741   3.199   6.246   3.833  0.3980 -0.1108 -0.0399
36564SOL    HW116742   3.274   6.307   3.832  0.4917 -0.1718  1.2967
36564SOL    HW216743   3.125   6.300   3.860 -0.4036  0.2793 -2.7437
36565SOL     OW16744   0.912   3.308   7.070 -0.0138  0.0338 -0.2026
36565SOL    HW116745   0.899   3.218   7.100  0.4312 -0.3708 -1.1870
36565SOL    HW216746   1.000   3.331   7.100 -0.4421  0.4461  0.7697
36566SOL     OW16747  10.966   8.767  12.529  0.5188 -0.3009  0.6092
36566SOL    HW116748  11.022   8.691  12.539  0.0210 -0.5266  1.9066
36566SOL    HW216749  10.892   8.751  12.589 -0.1473  0.6875  0.0946
36567SOL     OW16750   3.898   1.312   7.094 -0.2392  0.1979  0.6768
36567SOL    HW116751   3.840   1.285   7.165  0.5946  0.1031  1.3290
36567SOL    HW216752   3.977   1.344   7.137 -0.5335  2.1509 -0.1307
36568SOL     OW16753   3.890   9.559   0.438  0.3492  0.0117 -0.4750
36568SOL    HW116754   3.826   9.519   0.496  0.6802 -0.6912 -0.5694
36568SOL    HW216755   3.917   9.639   0.483 -0.0179 -0.0893 -0.0662
36569SOL     OW16756   2.241   3.903   3.632  0.8031 -0.5000 -0.1489
36569SOL    HW116757   2.149   3.906   3.655  0.8490  1.2522 -0.0701
36569SOL    HW216758   2.285   3.955   3.699  1.7161 -0.4929 -0.7203
36570SOL     OW16759   0.586   0.391   4.794  0.4077 -0.2228 -0.4172
36570SOL    HW116760   0.507   0.352   4.758  1.2792 -0.7575 -1.8773
36570SOL    HW216761   0.640   0.316   4.821  0.8879  0.0697 -0.5421
36571SOL     OW16762   5.232   5.184   5.008  0.5234 -0.4316  0.6445
36571SOL    HW116763   5.255   5.098   4.973  0.1999 -0.2094 -0.1226
36571SOL    HW216764   5.162   5.216   4.951  0.8687  0.4821  0.7058
36572SOL     OW16765   6.594  10.312  10.193  0.1329 -0.5425  0.2824
36572SOL    HW116766   6.660  10.243  10.199  1.3149  0.5296 -0.1497
36572SOL    HW216767   6.633  10.387  10.237 -1.2005 -0.1675  0.8871
36573SOL     OW16768   2.439   7.276   0.052 -0.5658 -0.1711 -0.0190
36573SOL    HW116769   2.469   7.286   0.143 -0.3214 -3.0602  0.3256
36573SOL    HW216770   2.513   7.304  -0.001 -0.3789  0.6951  0.6614
36574SOL     OW16771   7.571   0.704  11.299  0.3285 -0.2829  0.2454
36574SOL    HW116772   7.486   0.686  11.337 -0.0109 -1.4321 -0.9542
36574SOL    HW216773   7.552   0.739  11.212  1.0715  2.5514  1.1302
36575SOL     OW16774   0.831   4.295   0.987  0.1250  0.1751  0.1905
36575SOL    HW116775   0.766   4.295   0.917 -2.2070 -0.5920  2.2145
36575SOL    HW216776   0.899   4.235   0.957 -1.0836 -0.5820 -1.1552
36576SOL     OW16777   6.498   1.066   1.287 -0.1544  0.5849 -0.0349
36576SOL    HW116778   6.478   1.002   1.218  0.9323  1.2636 -1.0254
36576SOL    HW216779   6.459   1.148   1.256  0.3934  0.9074  0.1150
36577SOL     OW16780  11.103   7.426   2.077 -0.8765 -0.1265  0.0804
36577SOL    HW116781  11.083   7.402   1.986 -0.7235 -0.1867  0.0615
36577SOL    HW216782  11.104   7.521   2.077  0.3605 -0.1121 -0.2672
36578SOL     OW16783   9.679   0.001   0.275 -0.1776 -0.3631 -0.2490
36578SOL    HW116784   9.603  -0.016   0.220 -1.1590 -2.0066  1.4772
36578SOL    HW216785   9.674   0.094   0.297 -1.3634 -0.3260 -0.6423
36579SOL     OW16786   7.503   6.085   7.897 -0.1612 -0.5058  0.0324
36579SOL    HW116787   7.564   6.156   7.878  0.6851 -0.5368  2.3084
36579SOL    HW216788   7.558   6.007   7.899 -0.8247 -1.0098 -0.9188
36580SOL     OW16789  10.641   0.345   6.505 -0.4712 -0.0501  0.5604
36580SOL    HW116790  10.704   0.278   6.530  0.0477  0.1860 -0.0986
36580SOL    HW216791  10.684   0.428   6.529 -0.9003  0.0758  0.9117
36581SOL     OW16792   3.534   2.834   1.733 -0.2257  0.1561 -0.1964
36581SOL    HW116793   3.612   2.853   1.786 -1.4310 -0.5451  1.9705
36581SOL    HW216794   3.480   2.780   1.790 -2.1498  0.3150 -1.7823
36582SOL     OW16795   2.037   6.069   5.189  0.0619  0.5527 -0.5466
36582SOL    HW116796   2.086   6.133   5.241  1.1686 -0.4003 -0.3639
36582SOL    HW216797   2.101   6.037   5.124 -0.7113  0.2433 -1.1810
36583SOL     OW16798   9.378   4.435  10.209  0.1952  0.1922  0.5638
36583SOL    HW116799   9.314   4.490  10.164  1.9802  1.6410 -0.3458
36583SOL    HW216800   9.419   4.384  10.140 -0.1520 -0.9472  1.1769
36584SOL     OW16801   9.674  11.676   1.032  0.5571 -0.0580  0.0765
36584SOL    HW116802   9.652  11.660   0.941  1.6638 -1.8873  0.0926
36584SOL    HW216803   9.593  11.657   1.080  0.5876 -1.3107 -0.3376
36585SOL     OW16804   1.354  11.432   2.710 -0.3630  0.1183 -0.6831
36585SOL    HW116805   1.407  11.374   2.656 -1.6145 -0.2289 -1.5767
36585SOL    HW216806   1.344  11.511   2.657 -1.6889 -0.2664 -1.0206
36586SOL     OW16807   2.025   8.649   2.451  1.0050  0.4941  0.1349
36586SOL    HW116808   1.938   8.631   2.486  1.5818 -0.9795  0.8589
36586SOL    HW216809   2.081   8.583   2.490  2.8255  2.4993  1.1284
36587SOL     OW16810   9.533   5.436   6.777 -0.0695 -0.2591 -0.0469
36587SOL    HW116811   9.457   5.493   6.789 -0.4088 -0.8692  0.7950
36587SOL    HW216812   9.522   5.367   6.843  1.5981  0.0432  0.5838
36588SOL     OW16813   4.476   2.522   3.707 -0.2791  0.0103  0.0813
36588SOL    HW116814   4.499   2.561   3.791 -1.0979 -0.2473  0.4331
36588SOL    HW216815   4.557   2.484   3.674 -0.0677 -0.3275  0.9872
36589SOL     OW16816   0.526   6.243   8.519 -0.0685 -0.0564  0.0969
36589SOL    HW116817   0.476   6.213   8.442 -1.3937  0.9429  0.5359
36589SOL    HW216818   0.461   6.283   8.576  1.0136 -0.1294  1.4368
36590SOL     OW16819  10.308   2.981   0.047  0.7761 -0.1880  0.3381
36590SOL    HW116820  10.389   3.022   0.076  0.1492  1.0944  0.3716
36590SOL    HW216821  10.335   2.913  -0.014  1.8902 -0.0611  0.6738
36591SOL     OW16822  11.777   7.551   0.615 -0.1045 -0.3305 -0.1825
36591SOL    HW116823  11.812   7.632   0.653 -0.3685 -0.6046  0.6706
36591SOL    HW216824  11.739   7.579   0.532 -0.5285  0.4957  0.2739
36592SOL     OW16825   1.063   0.431   8.199  0.8397 -0.4927 -0.2080
36592SOL    HW116826   1.145   0.405   8.241  0.7550 -0.9394 -0.3147
36592SOL    HW216827   1.069   0.527   8.192  0.8058 -0.3934  0.9221
36593SOL     OW16828   6.514   0.187  10.053  0.6528  0.0318  0.0491
36593SOL    HW116829   6.564   0.267  10.043 -0.5008  0.7863  0.0980
36593SOL    HW216830   6.475   0.171   9.967  1.9807 -1.2638 -0.3455
36594SOL     OW16831   1.591  11.290   7.965 -0.5090 -0.0452 -0.5354
36594SOL    HW116832   1.554  11.272   7.878  1.3846 -0.4553 -1.3230
36594SOL    HW216833   1.588  11.386   7.972  0.0198  0.0554 -1.4191
36595SOL     OW16834   0.609   0.258  12.191 -0.0501  0.1194  0.4602
36595SOL    HW116835   0.669   0.184  12.183  1.5932  1.3888  0.5517
36595SOL    HW216836   0.618   0.287  12.282 -1.2343 -0.0027  0.6327
36596SOL     OW16837   0.090  11.379   7.597  0.6367  0.7437 -0.0542
36596SOL    HW116838   0.162  11.316   7.597 -0.4388 -0.6574 -2.4832
36596SOL    HW216839   0.012  11.326   7.616 -0.0079  1.8407  0.4412
36597SOL     OW16840   6.798   2.320  12.577 -0.2467  0.4959  0.4711
36597SOL    HW116841   6.708   2.348  12.594 -0.7513 -1.1907  0.7894
36597SOL    HW216842   6.792   2.226  12.563  1.6351  0.0841  1.8863
36598SOL     OW16843   8.111   6.730   2.204  0.7754  0.0325 -0.0825
36598SOL    HW116844   8.131   6.661   2.142  0.5986 -0.8931  0.8735
36598SOL    HW216845   8.151   6.702   2.287 -0.3377  0.4491  0.6290
36599SOL     OW16846   3.570   0.810   1.416 -0.0556 -0.1782 -0.0192
36599SOL    HW116847   3.620   0.887   1.389  0.9072 -0.3600  1.1607
36599SOL    HW216848   3.494   0.846   1.462 -1.3694  0.1117 -2.2306
36600SOL     OW16849   2.865  10.949   4.919  0.2413 -0.0620 -0.0465
36600SOL    HW116850   2.870  11.045   4.925  1.5479 -0.1358  0.2355
36600SOL    HW216851   2.956  10.920   4.917 -0.0722 -1.4304  1.9535
36601SOL     OW16852  10.498   3.906  10.956  0.1813  0.3080  0.2520
36601SOL    HW116853  10.564   3.938  11.017 -1.6506 -0.2571  2.7253
36601SOL    HW216854  10.422   3.963  10.971 -0.2643  0.3207 -1.7601
36602SOL     OW16855  10.873   2.264  10.928  0.4464 -0.0691  0.7407
36602SOL    HW116856  10.944   2.328  10.921 -0.0712  0.3228 -2.0993
36602SOL    HW216857  10.793   2.317  10.933  0.1569 -0.4874  0.5744
36603SOL     OW16858   4.530  11.379   7.191  0.1731  0.6010  0.4484
36603SOL    HW116859   4.556  11.457   7.143  0.0564  0.1064 -0.4423
36603SOL    HW216860   4.491  11.321   7.125 -0.3931  0.0781  1.2098
36604SOL     OW16861   0.876   3.108   2.252 -0.1361 -0.3057 -0.0110
36604SOL    HW116862   0.855   3.015   2.254  1.7871 -0.8369 -1.7223
36604SOL    HW216863   0.912   3.127   2.339  1.2028 -1.6300 -0.2457
36605SOL     OW16864   6.831  10.960  12.349 -0.3565 -0.5766  1.0045
36605SOL    HW116865   6.790  11.002  12.425 -1.0323 -1.6767  1.2714
36605SOL    HW216866   6.915  10.929  12.381 -0.3160 -0.3746  1.0954
36606SOL     OW16867  12.442   9.915   6.829  0.3889 -0.4219 -0.1491
36606SOL    HW116868  12.493   9.993   6.850 -1.4612  0.4937  1.2298
36606SOL    HW216869  12.456   9.856   6.903  0.0183 -0.4549 -0.1046
36607SOL     OW16870   6.449   5.941  11.879  0.1047 -0.4480 -0.1924
36607SOL    HW116871   6.452   5.926  11.784  1.5519  0.1518 -0.2620
36607SOL    HW216872   6.492   5.864  11.916 -0.3279 -0.6116 -0.0298
36608SOL     OW16873   7.859   0.363   9.303 -0.8664 -0.3571 -0.0597
36608SOL    HW116874   7.870   0.288   9.361  0.0743  0.2870  0.6091
36608SOL    HW216875   7.766   0.386   9.311 -0.8884 -0.6899  0.6673
36609SOL     OW16876   5.419   5.515   2.912 -0.3179  0.2931 -0.6076
36609SOL    HW116877   5.495   5.488   2.964 -0.7057 -1.2656 -0.7872
36609SOL    HW216878   5.447   5.504   2.822 -1.0739 -1.3996 -0.6804
36610SOL     OW16879   8.162   9.970   8.541  0.0032 -0.4742  0.7951
36610SOL    HW116880   8.132   9.911   8.610 -0.1639  0.7337  1.7963
36610SOL    HW216881   8.096   9.961   8.472 -0.8216 -0.3746  1.5470
36611SOL     OW16882   9.609   8.466   2.077  0.4832 -0.3234  0.2550
36611SOL    HW116883   9.617   8.468   1.982 -2.5380 -0.1044 -0.0871
36611SOL    HW216884   9.697   8.446   2.108  1.2610 -1.9220 -2.6358
36612SOL     OW16885   3.230   8.500  10.991  0.4717  0.2417  0.6569
36612SOL    HW116886   3.202   8.558  11.061 -3.1927  0.9943 -1.1958
36612SOL    HW216887   3.211   8.412  11.023 -2.1179  0.6266  0.3827
36613SOL     OW16888  10.199  10.174   6.618  0.9432  0.0172  0.7957
36613SOL    HW116889  10.187  10.125   6.699 -0.8959 -1.4502 -0.2760
36613SOL    HW216890  10.122  10.232   6.614  0.0835 -1.1422 -0.6502
36614SOL     OW16891   6.855  11.084   5.710  0.7822 -0.4196 -0.1034
36614SOL    HW116892   6.907  11.108   5.634  0.9043 -0.3085  0.0137
36614SOL    HW216893   6.802  11.162   5.729  0.9126 -0.3700  0.0576
36615SOL     OW16894   4.299  10.434   5.866 -0.2669 -0.1908  0.6348
36615SOL    HW116895   4.382  10.443   5.820 -1.8493  1.8171 -2.1005
36615SOL    HW216896   4.262  10.352   5.834 -0.3033  0.0182  0.1406
36616SOL     OW16897   5.949   5.189   8.432 -0.1025 -0.6229 -0.0697
36616SOL    HW116898   6.031   5.161   8.473  0.0528 -0.5194 -0.3048
36616SOL    HW216899   5.924   5.115   8.376 -1.2620 -1.5112  1.5530
36617SOL     OW16900   1.426   1.091   2.758  0.0499  0.3579  0.1242
36617SOL    HW116901   1.378   1.008   2.765 -0.1261  0.6010  2.5685
36617SOL    HW216902   1.488   1.089   2.831 -1.2951  3.1865  1.4847
36618SOL     OW16903  10.183   0.438  12.556 -0.2405  0.2170 -0.1194
36618SOL    HW116904  10.119   0.509  12.562 -0.1770  0.1867  1.2351
36618SOL    HW216905  10.159   0.391  12.476 -2.5911 -0.4104  0.8689
36619SOL     OW16906  10.629   8.865  10.799 -0.3960 -0.0816  0.0152
36619SOL    HW116907  10.640   8.786  10.851  0.5243 -0.1380 -0.2336
36619SOL    HW216908  10.657   8.936  10.858  0.9753 -0.1767 -0.4697
36620SOL     OW16909   7.032   4.822  12.060 -0.3085 -0.4198 -0.2926
36620SOL    HW116910   7.126   4.824  12.076 -0.4876 -1.4611  1.0848
36620SOL    HW216911   7.007   4.914  12.052  0.4224  0.0699  2.1182
36621SOL     OW16912   7.557   5.846   9.277  0.0274 -0.3936 -0.2990
36621SOL    HW116913   7.569   5.915   9.211  0.0754  0.3244  0.4547
36621SOL    HW216914   7.463   5.848   9.296  0.1332 -0.0874  0.2027
36622SOL     OW16915  12.051   8.030   8.251  0.0702 -0.3922  0.1644
36622SOL    HW116916  12.015   8.025   8.340 -0.3403 -1.5004 -0.0426
36622SOL    HW216917  12.136   7.986   8.258  0.0191 -0.5176  0.0015
36623SOL     OW16918   9.965   2.598   2.989 -0.1519  0.2042  0.7108
36623SOL    HW116919   9.973   2.526   2.926  0.2990 -0.3854  1.4289
36623SOL    HW216920  10.050   2.642   2.985 -0.3511  0.5752  0.4349
36624SOL     OW16921   1.826   2.132  10.259  0.2362  0.0559  0.1411
36624SOL    HW116922   1.918   2.159  10.251  0.4821 -0.8527 -0.1856
36624SOL    HW216923   1.777   2.214  10.260  0.9135  0.5114 -1.4554
36625SOL     OW16924   7.136   2.866  10.496 -0.3379 -0.5879  0.2099
36625SOL    HW116925   7.154   2.956  10.522 -1.9205 -0.5610  1.3550
36625SOL    HW216926   7.191   2.851  10.419 -0.3627  1.4856 -0.2601
36626SOL     OW16927   2.327   8.771   6.953 -0.5012 -0.0991 -0.2580
36626SOL    HW116928   2.359   8.853   6.915 -0.6872 -0.2854 -0.8311
36626SOL    HW216929   2.398   8.709   6.941 -1.1047 -0.5474 -1.6477
36627SOL     OW16930   1.826   6.271  10.082  0.0330  0.2266 -0.0065
36627SOL    HW116931   1.907   6.309  10.116 -0.6868  0.3616  1.6877
36627SOL    HW216932   1.820   6.304   9.993  2.1359 -0.3017 -0.4068
36628SOL     OW16933   1.183   7.703   5.104  0.5857  0.6831 -0.0005
36628SOL    HW116934   1.115   7.746   5.157  1.2086  0.0957  1.2995
36628SOL    HW216935   1.180   7.611   5.131  0.7175  0.3046 -1.2176
36629SOL     OW16936   0.132   0.835   0.897  0.1478  0.3900 -0.1598
36629SOL    HW116937   0.082   0.762   0.862 -0.1692 -1.1192  3.0824
36629SOL    HW216938   0.069   0.907   0.904 -0.4605 -0.1384 -0.1242
36630SOL     OW16939   1.527   6.409   1.800  0.1221  0.3308 -0.2324
36630SOL    HW116940   1.582   6.458   1.739  0.4212 -0.8812 -0.9566
36630SOL    HW216941   1.571   6.325   1.810 -1.3352 -0.4880 -0.4475
36631SOL     OW16942  11.391   2.173  11.301  0.1525 -0.8164  0.1294
36631SOL    HW116943  11.372   2.124  11.221 -2.8542 -2.0532  1.4444
36631SOL    HW216944  11.317   2.234  11.309  1.0910  0.2175  1.3099
36632SOL     OW16945  12.440   0.896   0.658  0.2279  0.0478  0.4715
36632SOL    HW116946  12.366   0.950   0.686 -0.4592 -1.5351  1.9316
36632SOL    HW216947  12.412   0.856   0.576 -0.1206  0.2645  0.4842
36633SOL     OW16948  10.144  12.266   1.385  0.5358 -0.6745  1.0062
36633SOL    HW116949  10.233  12.296   1.370  0.0771  1.3506  1.9377
36633SOL    HW216950  10.095  12.346   1.406 -1.9906 -1.4007 -1.5186
36634SOL     OW16951  11.554   7.613   1.455  0.4558 -0.3919 -0.0046
36634SOL    HW116952  11.638   7.657   1.438 -0.2493  1.0144 -0.0325
36634SOL    HW216953  11.575   7.520   1.457  2.2051 -0.0213  1.0430
36635SOL     OW16954   4.337   8.500   5.490 -0.2340 -0.6512 -0.0026
36635SOL    HW116955   4.266   8.527   5.548 -1.2718 -0.9803 -1.0769
36635SOL    HW216956   4.417   8.529   5.534 -0.9072 -1.6939  2.0246
36636SOL     OW16957   2.155   7.223   3.773  0.0457  0.1551  0.5230
36636SOL    HW116958   2.143   7.316   3.792  1.0049 -0.0805  2.5544
36636SOL    HW216959   2.235   7.219   3.720 -1.1267  0.6023 -1.3762
36637SOL     OW16960   6.045   4.300   8.101 -0.4301  0.0817  0.0450
36637SOL    HW116961   5.956   4.273   8.121 -0.5925 -0.2709 -1.0639
36637SOL    HW216962   6.094   4.218   8.096 -0.2287  0.2150 -0.1871
36638SOL     OW16963  11.656   6.881   7.179  0.2810  0.3503 -0.4254
36638SOL    HW116964  11.699   6.799   7.203 -0.4869 -0.2543 -1.0661
36638SOL    HW216965  11.583   6.889   7.240 -1.4297 -0.9825 -2.1673
36639SOL     OW16966   5.552   6.817   7.498  0.0323 -0.2137  0.3240
36639SOL    HW116967   5.607   6.800   7.575  2.4970 -0.3110 -1.3389
36639SOL    HW216968   5.586   6.758   7.431 -2.9310 -1.1242 -0.5533
36640SOL     OW16969   1.838   2.986  11.042  0.4506  0.3839 -0.1771
36640SOL    HW116970   1.805   3.065  11.000 -1.6935 -0.6066 -0.4955
36640SOL    HW216971   1.759   2.939  11.070  1.6916  0.0638  3.3062
36641SOL     OW16972   0.245   0.615   9.382 -0.6529 -0.4333 -0.1536
36641SOL    HW116973   0.194   0.553   9.329 -1.6551  1.3995 -1.4423
36641SOL    HW216974   0.196   0.623   9.464 -0.2609 -1.6567  0.2251
36642SOL     OW16975   4.282   7.886   2.667 -0.4287  0.4128 -0.0268
36642SOL    HW116976   4.277   7.800   2.625  0.7965  0.1766  0.2844
36642SOL    HW216977   4.364   7.924   2.635  0.0141  0.6576  1.3554
36643SOL     OW16978  11.352   5.362  10.103 -0.2848  0.3163 -0.6181
36643SOL    HW116979  11.440   5.354  10.067 -0.3841 -2.5917 -0.4596
36643SOL    HW216980  11.363   5.347  10.197 -0.7426  1.9122 -0.2873
36644SOL     OW16981   8.369   4.642   2.272  0.0721  0.0206 -0.1144
36644SOL    HW116982   8.442   4.602   2.224  0.0272 -3.0621  2.1576
36644SOL    HW216983   8.309   4.570   2.290 -1.6043  1.7152  1.5418
36645SOL     OW16984   9.735  10.229   2.022 -0.1628  0.0679 -0.0614
36645SOL    HW116985   9.658  10.215   1.968 -0.7700 -2.4264  1.2981
36645SOL    HW216986   9.782  10.145   2.020  1.5013  0.9231  0.6655
36646SOL     OW16987   8.107   7.968   0.960  0.0300 -0.6836 -0.6114
36646SOL    HW116988   8.118   8.040   0.898 -1.6783 -0.3106 -0.5205
36646SOL    HW216989   8.197   7.944   0.984  0.6602  1.9206 -0.0448
36647SOL     OW16990   3.640   3.743   8.287 -0.0983  0.5421 -0.7232
36647SOL    HW116991   3.620   3.835   8.268 -1.3960  0.3115 -0.5959
36647SOL    HW216992   3.645   3.739   8.382 -2.1963  0.1221 -0.5750
36648SOL     OW16993   6.035  10.428  11.559 -0.2340 -0.5373 -0.2503
36648SOL    HW116994   6.037  10.388  11.646  0.4912 -1.4133 -0.6521
36648SOL    HW216995   5.989  10.511  11.571 -0.1181 -0.6420  0.9649
36649SOL     OW16996  11.920   8.312   6.139  0.0040 -0.2511 -0.0664
36649SOL    HW116997  11.865   8.260   6.198 -0.1382  0.0818  0.0957
36649SOL    HW216998  11.968   8.371   6.197  1.8045 -1.6562 -0.0284
36650SOL     OW16999   6.113   0.778   3.913  0.2097  0.1015 -0.4830
36650SOL    HW117000   6.199   0.789   3.954  0.5362  0.0135 -1.1384
36650SOL    HW217001   6.091   0.865   3.881  0.2862  0.0139 -0.7713
36651SOL     OW17002   7.749   2.194   6.886  0.6983 -0.2886 -0.1054
36651SOL    HW117003   7.809   2.160   6.820  0.1060 -2.4149  0.3619
36651SOL    HW217004   7.671   2.220   6.837  1.0557  0.1668 -0.4433
36652SOL     OW17005   5.265   8.378   3.924 -0.1847 -0.2983 -0.1318
36652SOL    HW117006   5.223   8.462   3.941  0.3471 -0.1511  0.4944
36652SOL    HW217007   5.213   8.339   3.854 -0.8924  0.2180  0.0945
36653SOL     OW17008   6.259   4.857   3.810 -0.2152 -0.2934  0.5640
36653SOL    HW117009   6.301   4.943   3.812 -1.6076  0.5197 -1.5561
36653SOL    HW217010   6.255   4.830   3.902  1.1868  1.4200  1.1886
36654SOL     OW17011   4.220   1.615   9.800 -0.1510  0.5590 -0.3223
36654SOL    HW117012   4.298   1.586   9.754 -0.7692 -0.5895 -0.6735
36654SOL    HW217013   4.247   1.621   9.892  0.6700  1.3893 -0.5967
36655SOL     OW17014   2.062   0.517   7.550 -0.5092 -0.0162 -0.7747
36655SOL    HW117015   2.001   0.447   7.526 -1.2131  0.9905 -2.0854
36655SOL    HW217016   2.103   0.542   7.466  0.8947  0.0789 -0.0892
36656SOL     OW17017  10.942   0.542   5.576 -0.3900 -0.0650  0.1256
36656SOL    HW117018  10.890   0.573   5.650 -1.3411 -3.1793  0.9000
36656SOL    HW217019  10.882   0.546   5.501 -0.5952 -0.3221  0.2766
36657SOL     OW17020   5.480   9.628   3.265 -0.8618  0.4815 -0.1941
36657SOL    HW117021   5.558   9.657   3.218 -0.3468 -0.4223  0.0588
36657SOL    HW217022   5.446   9.706   3.308  0.3749  0.7469  0.3398
36658SOL     OW17023   9.706   8.385  11.620 -0.5290 -0.3842 -0.0850
36658SOL    HW117024   9.617   8.357  11.642 -0.1515 -0.6564  1.2011
36658SOL    HW217025   9.745   8.410  11.704  0.2365  0.8527 -0.7820
36659SOL     OW17026   0.587   9.655   0.217  0.6241 -0.2208  0.1985
36659SOL    HW117027   0.613   9.565   0.233 -0.8630 -0.6741  0.1590
36659SOL    HW217028   0.594   9.666   0.122 -1.2733 -1.0051 -0.0811
36660SOL     OW17029  10.972   1.283   8.380  0.0847 -0.0446 -0.3021
36660SOL    HW117030  11.051   1.332   8.354 -0.2002  0.5128 -0.1351
36660SOL    HW217031  10.999   1.191   8.376  0.5589  0.1083 -0.8687
36661SOL     OW17032   7.046  11.206   6.757  0.4353  0.1622  0.1968
36661SOL    HW117033   7.097  11.139   6.803  1.7286  1.1387  0.2782
36661SOL    HW217034   6.956  11.189   6.782  0.7233 -1.5108  0.2434
36662SOL     OW17035  11.038   7.046   6.857 -0.5478  0.2633 -0.2729
36662SOL    HW117036  10.993   7.126   6.831 -1.2091 -0.3594 -1.0627
36662SOL    HW217037  11.128   7.074   6.875 -0.5502  1.0251 -1.4079
36663SOL     OW17038   4.897  11.641   2.097 -0.0785 -0.8385  0.0204
36663SOL    HW117039   4.983  11.685   2.095 -0.2669 -0.4602  0.1668
36663SOL    HW217040   4.872  11.634   2.005  0.2818 -1.2960 -0.0471
36664SOL     OW17041   1.317   5.644   5.152 -0.4508  0.0233  0.1733
36664SOL    HW117042   1.393   5.628   5.095 -1.1002 -0.8422 -0.4736
36664SOL    HW217043   1.303   5.561   5.197  0.2668  0.7870  1.9159
36665SOL     OW17044   9.320   0.975   0.134  0.2498  0.1098  0.6043
36665SOL    HW117045   9.412   0.977   0.107  0.6062 -0.9246  1.6472
36665SOL    HW217046   9.287   0.894   0.096 -0.4559  0.8420 -0.3883
36666SOL     OW17047   7.328   7.034   7.774  1.1491 -0.1799  0.3319
36666SOL    HW117048   7.312   6.940   7.783  2.7953 -0.6708 -1.2621
36666SOL    HW217049   7.310   7.053   7.682  2.5503  0.6731  0.1942
36667SOL     OW17050   9.401   1.953   5.378 -0.3067  0.6027  0.1725
36667SOL    HW117051   9.457   2.001   5.317  0.4456 -0.6398 -0.1465
36667SOL    HW217052   9.385   1.869   5.335  0.4624 -0.4164  1.7522
36668SOL     OW17053  10.973   7.081   0.538  0.6003 -0.2796  0.2066
36668SOL    HW117054  10.929   7.113   0.617 -0.7745 -1.1624 -0.1533
36668SOL    HW217055  10.963   6.986   0.542 -0.2571 -0.3046 -1.4259
36669SOL     OW17056   4.472   1.960   6.591 -0.3476  0.8030 -0.0405
36669SOL    HW117057   4.538   1.936   6.526 -1.9072  0.8963 -1.7462
36669SOL    HW217058   4.449   1.878   6.634  2.6508  1.0920  2.4836
36670SOL     OW17059   7.771   7.646   4.297 -0.3411  0.2846 -0.0474
36670SOL    HW117060   7.755   7.627   4.389  0.4879 -1.9552 -0.3053
36670SOL    HW217061   7.717   7.584   4.249  1.3213 -0.4845 -1.0146
36671SOL     OW17062   3.089   3.676   3.462  0.8387  0.0353  0.5488
36671SOL    HW117063   3.109   3.583   3.469  1.6805  0.3016  2.2597
36671SOL    HW217064   3.019   3.690   3.525  2.2156  0.9090  1.9737
36672SOL     OW17065   9.069   6.716   2.231 -0.2831 -0.5619 -0.2550
36672SOL    HW117066   8.975   6.697   2.223 -0.3637 -0.0856 -0.4411
36672SOL    HW217067   9.098   6.732   2.141 -0.2477  0.3681 -0.0802
36673SOL     OW17068   8.052   6.257   4.662 -0.8900  0.4676  0.2981
36673SOL    HW117069   8.062   6.170   4.623 -0.8200  0.5957  0.0269
36673SOL    HW217070   8.138   6.297   4.653 -0.6282  0.1911  1.3472
36674SOL     OW17071   1.204   0.023   5.067  0.6420 -0.1832  0.1816
36674SOL    HW117072   1.226   0.031   4.974  0.2353  0.8696  0.1637
36674SOL    HW217073   1.279   0.060   5.113 -0.2200  1.6427  0.1786
36675SOL     OW17074   4.314   9.618   7.554 -0.4909  0.2604  0.3868
36675SOL    HW117075   4.315   9.714   7.561  1.8027  0.2123  1.6665
36675SOL    HW217076   4.361   9.601   7.472 -1.3122  0.2122 -0.0854
36676SOL     OW17077   7.014   0.512   6.956  0.0991 -0.7124  0.7298
36676SOL    HW117078   6.928   0.477   6.933  0.8112 -1.9165 -0.2321
36676SOL    HW217079   7.015   0.512   7.052 -1.0735 -0.3714  0.7599
36677SOL     OW17080  12.112   3.188   3.973 -0.0152 -0.1043 -0.4406
36677SOL    HW117081  12.020   3.164   3.968  0.1801 -0.6651 -1.6469
36677SOL    HW217082  12.113   3.282   3.956 -0.4897  0.2548  1.2467
36678SOL     OW17083   0.557   7.226   8.520  0.5995  0.1318 -0.2287
36678SOL    HW117084   0.548   7.296   8.585  1.7395 -0.0393  0.1323
36678SOL    HW217085   0.470   7.185   8.516  0.5028  0.1785  1.1543
36679SOL     OW17086   5.768   0.349  10.994 -0.0736  0.2668 -0.1130
36679SOL    HW117087   5.685   0.316  10.960  0.6401 -0.4968 -1.1621
36679SOL    HW217088   5.770   0.441  10.966 -1.2415  0.7773  1.2749
36680SOL     OW17089   8.672  10.626  11.397  0.2362 -0.5462 -0.5789
36680SOL    HW117090   8.699  10.598  11.484 -0.1196 -0.7792 -0.5436
36680SOL    HW217091   8.663  10.721  11.404 -1.0672 -0.6958 -0.0092
36681SOL     OW17092   6.269   2.823  12.199  0.0775 -0.5822 -0.2320
36681SOL    HW117093   6.247   2.917  12.202 -1.1024 -0.8583  1.0962
36681SOL    HW217094   6.259   2.794  12.290  0.2801 -2.0306 -0.6529
36682SOL     OW17095   3.003  11.633  11.749 -0.0848  0.4739 -0.1597
36682SOL    HW117096   3.035  11.583  11.674 -3.5448 -1.5806 -0.5069
36682SOL    HW217097   2.996  11.723  11.717  0.3769  0.0239 -1.6249
36683SOL     OW17098   7.849   0.310   9.970 -0.1143 -0.0320 -0.1311
36683SOL    HW117099   7.781   0.254  10.008 -0.4614  0.1150 -0.5236
36683SOL    HW217100   7.809   0.397   9.967  0.0380  0.0279 -0.4964
36684SOL     OW17101   6.256   8.596   9.034  0.0689  0.1859 -0.6043
36684SOL    HW117102   6.325   8.657   9.060  0.2017  0.2269 -1.0510
36684SOL    HW217103   6.258   8.528   9.101  0.1128  0.5180 -0.2592
36685SOL     OW17104   8.919   4.766   5.933 -0.7491 -0.0189 -0.4177
36685SOL    HW117105   8.857   4.732   5.869  0.0870  0.5316 -1.5598
36685SOL    HW217106   8.988   4.700   5.938  0.3771  0.9952 -1.8957
36686SOL     OW17107   8.128  10.818   8.678  0.1054 -0.0540 -0.0510
36686SOL    HW117108   8.048  10.799   8.630 -0.0897 -1.0187  0.6252
36686SOL    HW217109   8.193  10.757   8.641 -0.0320 -0.7618  0.8394
36687SOL     OW17110  11.511  10.210   1.519 -0.0665 -0.1022 -0.2926
36687SOL    HW117111  11.569  10.154   1.467  0.1575  1.6705 -2.0517
36687SOL    HW217112  11.519  10.175   1.608  0.9421 -2.1150 -1.1009
36688SOL     OW17113  11.105   5.592   2.795  0.2098 -0.0278  0.2088
36688SOL    HW117114  11.054   5.574   2.716 -0.1458  2.1094 -0.1179
36688SOL    HW217115  11.191   5.619   2.762 -0.0605  1.2464  0.4980
36689SOL     OW17116   3.979   6.813   1.791 -0.3868 -0.9322 -0.2373
36689SOL    HW117117   4.042   6.773   1.731 -0.2855 -2.4309  0.8061
36689SOL    HW217118   3.904   6.755   1.790 -0.4208 -0.9458  1.0003
36690SOL     OW17119   5.518  10.624   6.248 -0.2548  0.7290 -0.5045
36690SOL    HW117120   5.552  10.672   6.323  0.2204 -1.3704  0.7059
36690SOL    HW217121   5.576  10.649   6.176  1.1722  0.5557  0.5293
36691SOL     OW17122  11.676   3.558  11.249 -0.1915  0.2994  0.5075
36691SOL    HW117123  11.724   3.637  11.226  0.9607 -0.2831  0.8127
36691SOL    HW217124  11.697   3.542  11.341  0.3151 -0.8341  0.2202
36692SOL     OW17125  11.732   2.045  11.308 -0.4235 -0.0290 -0.7521
36692SOL    HW117126  11.651   1.996  11.319 -0.1290 -0.4399 -0.4021
36692SOL    HW217127  11.795   2.003  11.367 -0.4852  1.4959  0.5008
36693SOL     OW17128   0.092   1.847   0.114  0.3491  0.2393 -0.1086
36693SOL    HW117129   0.022   1.790   0.146  0.9057 -1.1331 -1.2204
36693SOL    HW217130   0.163   1.836   0.177  0.0777  0.5317  0.2511
36694SOL     OW17131  10.144   2.016   4.407 -0.1281 -0.3519 -0.1986
36694SOL    HW117132  10.124   2.101   4.369  0.3004  0.6654  1.7431
36694SOL    HW217133  10.087   1.955   4.359 -0.4747  0.9976 -1.5992
36695SOL     OW17134   1.477   9.089   9.453  0.4520 -0.0456  0.2117
36695SOL    HW117135   1.441   9.008   9.489 -1.3108  0.0330 -1.2124
36695SOL    HW217136   1.404   9.151   9.457  0.9304  0.6522 -1.2140
36696SOL     OW17137   9.229   0.610   7.475 -0.0038 -0.2281  0.3062
36696SOL    HW117138   9.162   0.542   7.465  1.1157 -1.2519 -0.3884
36696SOL    HW217139   9.264   0.595   7.563 -0.1234 -0.1875  0.3625
36697SOL     OW17140   0.586  11.873   3.762 -0.5357  0.4400 -0.0022
36697SOL    HW117141   0.576  11.860   3.856 -0.3373 -2.2380 -0.2891
36697SOL    HW217142   0.521  11.815   3.722  0.8781 -0.1879 -1.5357
36698SOL     OW17143   9.872   9.634   0.011  0.0863 -0.2499  0.3422
36698SOL    HW117144   9.936   9.567  -0.013  0.3887  0.8470 -2.2269
36698SOL    HW217145   9.872   9.695  -0.063 -2.5040  0.8579  1.1454
36699SOL     OW17146   0.271   4.779   3.044 -0.5566  0.4484 -0.5878
36699SOL    HW117147   0.261   4.866   3.082  0.2210  0.7896 -1.1454
36699SOL    HW217148   0.185   4.759   3.007 -0.7218  1.0056 -0.5084
36700SOL     OW17149   7.437   7.084  10.915 -0.1977 -0.1780 -0.5784
36700SOL    HW117150   7.438   7.156  10.977 -0.9636  0.4482 -1.2547
36700SOL    HW217151   7.360   7.101  10.860 -1.2385 -2.2614  0.1110
36701SOL     OW17152  11.091   4.045   3.948 -0.0283 -0.2431 -0.4069
36701SOL    HW117153  11.091   3.973   4.010  1.3136  0.6852  0.7431
36701SOL    HW217154  11.011   4.093   3.967 -0.7356 -1.1829 -0.9222
36702SOL     OW17155   4.135   7.730   1.027 -0.4640  0.7634 -0.1155
36702SOL    HW117156   4.087   7.802   0.987  0.3104 -0.0106 -2.6325
36702SOL    HW217157   4.174   7.683   0.954  1.0871 -0.8005  1.5812
36703SOL     OW17158   2.920   3.636   2.842  0.6162  0.8773 -0.4016
36703SOL    HW117159   2.849   3.609   2.784  0.7292  1.2141 -0.6995
36703SOL    HW217160   2.936   3.728   2.821 -0.0790  1.3299  0.9275
36704SOL     OW17161  11.249   1.090   5.379 -0.2507  0.3190 -0.0778
36704SOL    HW117162  11.246   0.996   5.363 -0.4513  0.1867  0.7088
36704SOL    HW217163  11.200   1.102   5.460  1.8893  0.7845  1.2133
36705SOL     OW17164   1.292   0.868   2.802 -0.5280  0.4336  0.0344
36705SOL    HW117165   1.237   0.870   2.723 -1.0217 -0.6336  0.3332
36705SOL    HW217166   1.298   0.775   2.825  0.0270  0.6879  0.9695
36706SOL     OW17167   5.880  12.542  12.099 -0.4294 -0.2869  0.4511
36706SOL    HW117168   5.874  12.617  12.039  1.1489  1.4077  2.2639
36706SOL    HW217169   5.932  12.477  12.051  0.3660  0.8106 -0.2272
36707SOL     OW17170  10.683  11.044   1.781 -0.0549  0.3812  0.1291
36707SOL    HW117171  10.672  11.043   1.876  3.1785  1.0816  0.6167
36707SOL    HW217172  10.764  11.093   1.766 -0.6824  0.6901 -3.0482
36708SOL     OW17173   4.978  11.615   3.819 -0.5193  0.4935  0.0593
36708SOL    HW117174   4.920  11.684   3.788 -0.9614  0.3631  0.5867
36708SOL    HW217175   5.045  11.607   3.750 -1.0193  0.7650 -0.4665
36709SOL     OW17176   7.877   1.062  12.023  0.5096 -0.1278 -0.5546
36709SOL    HW117177   7.949   1.096  11.970  0.7850  0.8403  0.3905
36709SOL    HW217178   7.911   1.064  12.113 -0.9248  1.0632  0.0105
36710SOL     OW17179   9.842  11.102   0.342  0.3851  0.0978  0.0369
36710SOL    HW117180   9.838  11.023   0.287 -1.0778 -0.8175  1.3569
36710SOL    HW217181   9.780  11.162   0.302 -2.6420 -1.5200  1.9410
36711SOL     OW17182   7.401  12.153   4.772 -0.5928  0.1858  0.0700
36711SOL    HW117183   7.492  12.177   4.755 -0.7709  0.3914 -0.6074
36711SOL    HW217184   7.377  12.204   4.849  0.3510 -1.0689  1.2385
36712SOL     OW17185   6.103  11.942   1.926  0.6468  0.4634  0.2573
36712SOL    HW117186   6.192  11.908   1.917  1.0494  1.0610  1.7039
36712SOL    HW217187   6.106  11.997   2.004 -0.8529  0.9835 -0.0204
36713SOL     OW17188   3.386  11.537   8.064  0.2947  0.0409  0.1292
36713SOL    HW117189   3.347  11.513   7.979  0.9686  0.9869 -0.4634
36713SOL    HW217190   3.336  11.486   8.128  0.2642 -1.2728 -0.8870
36714SOL     OW17191   1.464   4.461   6.567 -0.5294 -0.3412  0.6551
36714SOL    HW117192   1.417   4.379   6.586 -0.7683 -0.2416  0.4941
36714SOL    HW217193   1.519   4.439   6.491 -0.0355 -0.5632  1.0725
36715SOL     OW17194   8.506   5.578   2.317 -0.2653  0.2846  0.2255
36715SOL    HW117195   8.435   5.642   2.323 -0.6974 -0.3343  2.2955
36715SOL    HW217196   8.586   5.632   2.320 -0.6304  0.8165  0.6940
36716SOL     OW17197   6.728  11.786   7.926 -1.2498 -0.4006 -0.4798
36716SOL    HW117198   6.706  11.792   8.019 -0.1614  0.0973 -0.2356
36716SOL    HW217199   6.655  11.739   7.887 -0.6974 -2.6164  0.9994
36717SOL     OW17200  10.420   0.137  10.023  0.1832  0.1956  0.1559
36717SOL    HW117201  10.497   0.187   9.995 -0.7778  1.0475 -1.0370
36717SOL    HW217202  10.346   0.180   9.980 -0.9079 -0.9740  0.8028
36718SOL     OW17203   2.451   6.265  11.454  0.0627  0.6373 -0.1252
36718SOL    HW117204   2.436   6.232  11.542 -0.9923 -0.8068 -0.8099
36718SOL    HW217205   2.501   6.197  11.410  1.2619  1.6873 -0.4421
36719SOL     OW17206  11.232   5.390   9.455 -1.0656  0.0549 -0.1194
36719SOL    HW117207  11.138   5.390   9.467 -1.0003 -0.8784  0.5221
36719SOL    HW217208  11.268   5.410   9.542 -0.6764  1.3158 -0.5502
36720SOL     OW17209  11.191  10.211   4.562 -0.7646 -0.0560  0.2057
36720SOL    HW117210  11.201  10.192   4.469 -1.9111  2.7936 -0.6335
36720SOL    HW217211  11.097  10.218   4.575 -0.5765  2.9584  0.6763
36721SOL     OW17212   9.097   5.487   2.771 -0.0886 -0.2176  0.7578
36721SOL    HW117213   9.008   5.522   2.772 -0.7530 -1.7825 -0.3724
36721SOL    HW217214   9.153   5.564   2.761 -1.4691  0.5837 -1.3583
36722SOL     OW17215   3.218   3.552   3.159 -0.1680 -0.3617  0.1810
36722SOL    HW117216   3.270   3.627   3.186  0.9186 -0.4966 -1.3781
36722SOL    HW217217   3.214   3.496   3.236  1.5063 -0.0483  0.5257
36723SOL     OW17218   6.051   8.627   6.633  0.3415 -0.4613  0.6561
36723SOL    HW117219   6.144   8.616   6.612  0.1039 -0.4022 -0.5305
36723SOL    HW217220   6.041   8.588   6.720  1.4466 -0.5943  0.7428
36724SOL     OW17221  10.864   3.165   2.062  0.3945 -0.1187  0.0868
36724SOL    HW117222  10.957   3.186   2.075  0.2092 -0.3440  2.1304
36724SOL    HW217223  10.845   3.100   2.129 -1.4719  0.6514  0.3541
36725SOL     OW17224   4.038   7.782   1.865 -0.2078  0.2504  0.5389
36725SOL    HW117225   4.063   7.740   1.782 -0.7311  1.9253 -0.5057
36725SOL    HW217226   4.117   7.778   1.918 -0.1947 -1.8909  0.4427
36726SOL     OW17227   9.362   4.589   9.957  0.2703  0.5130 -0.1854
36726SOL    HW117228   9.293   4.531   9.926  1.8147 -0.3330 -2.3096
36726SOL    HW217229   9.441   4.535   9.953  1.3617  2.0332  0.1997
36727SOL     OW17230   5.832   3.719   1.538  0.3692 -0.9083 -0.6354
36727SOL    HW117231   5.814   3.694   1.629 -0.9122 -1.2772 -0.9796
36727SOL    HW217232   5.923   3.748   1.540  0.5027 -1.3226  0.6814
36728SOL     OW17233   0.798   2.003   8.796 -0.2046 -0.1446 -0.2347
36728SOL    HW117234   0.826   2.055   8.871 -0.2617  0.2696 -0.4993
36728SOL    HW217235   0.715   2.043   8.769  0.2980  0.3228 -1.1195
36729SOL     OW17236   4.451   3.662   2.735 -0.1384 -0.3056 -0.2848
36729SOL    HW117237   4.454   3.686   2.827 -1.9348 -1.5409  0.1283
36729SOL    HW217238   4.472   3.744   2.689  0.6453  0.3668  1.1804
36730SOL     OW17239   3.248  10.595  11.595 -0.2208 -0.8983  0.3043
36730SOL    HW117240   3.266  10.572  11.503  0.5457 -2.0027  0.7110
36730SOL    HW217241   3.318  10.656  11.619 -0.3617 -0.6902  0.1878
36731SOL     OW17242   0.112   3.577   8.880 -0.0705  0.0562  0.0180
36731SOL    HW117243   0.125   3.515   8.809 -0.7850  0.0481 -0.1110
36731SOL    HW217244   0.019   3.600   8.876 -0.0793  0.1985  0.8334
36732SOL     OW17245   9.263   7.602   9.282  0.0186 -0.1856  0.1843
36732SOL    HW117246   9.311   7.545   9.222 -1.2543  0.5666 -1.6680
36732SOL    HW217247   9.203   7.543   9.327  0.7726 -0.7238  0.5053
36733SOL     OW17248   3.832   4.016  10.845  0.5993  0.3443 -0.0262
36733SOL    HW117249   3.856   4.101  10.808  0.5266 -0.0628 -1.0415
36733SOL    HW217250   3.832   4.030  10.940  0.9433  1.3764 -0.1681
36734SOL     OW17251   8.351   5.855  11.689 -0.5836  0.0976  0.5810
36734SOL    HW117252   8.310   5.820  11.769 -1.1463  0.4922  0.4703
36734SOL    HW217253   8.299   5.932  11.667  0.1770  0.5612  0.3821
36735SOL     OW17254   3.900   8.175   4.198 -0.4368  0.0402  0.4822
36735SOL    HW117255   3.848   8.255   4.191 -1.1068 -0.4085  0.2555
36735SOL    HW217256   3.958   8.191   4.272 -0.3528  0.8543  0.2510
36736SOL     OW17257  12.295   4.963   7.955  0.2344 -0.2762  0.1678
36736SOL    HW117258  12.245   5.033   7.998  0.8579  1.1865 -1.3559
36736SOL    HW217259  12.229   4.903   7.921 -0.7422  2.2747 -2.9469
36737SOL     OW17260  10.625   2.910  10.007  0.9692 -0.6577 -0.1865
36737SOL    HW117261  10.531   2.927  10.015  0.4617 -2.0263 -2.3124
36737SOL    HW217262  10.667   2.994  10.022 -0.5729 -0.0752  1.0415
36738SOL     OW17263  11.610   6.960   1.672  0.5125 -0.1859  0.0622
36738SOL    HW117264  11.625   6.898   1.743  2.4399  0.4066  0.2184
36738SOL    HW217265  11.696   6.971   1.630  0.0908  1.8234 -0.3989
36739SOL     OW17266   8.197   9.881  10.312  0.1115 -0.4686 -0.2978
36739SOL    HW117267   8.143   9.888  10.391  1.2118  0.3157  0.3961
36739SOL    HW217268   8.286   9.898  10.341  0.3558  1.5397 -1.9686
36740SOL     OW17269  11.848   1.721  11.767  0.4036  0.4563  0.2241
36740SOL    HW117270  11.786   1.787  11.734 -0.5667  0.7538  2.4767
36740SOL    HW217271  11.895   1.765  11.837  0.0436 -1.1059  1.4937
36741SOL     OW17272   9.091   3.745   4.417 -0.0131  0.3507 -0.0088
36741SOL    HW117273   9.171   3.734   4.469  1.2501  1.4890 -1.6093
36741SOL    HW217274   9.122   3.755   4.327 -2.0624 -0.4997 -0.8682
36742SOL     OW17275   1.524   6.077   3.021  0.1966  0.1414 -0.4186
36742SOL    HW117276   1.480   6.161   3.031  0.4488  0.2613 -0.3230
36742SOL    HW217277   1.479   6.019   3.082 -1.6782 -0.4738 -2.2590
36743SOL     OW17278  11.627   1.765   9.513  0.1567  1.0474  0.3359
36743SOL    HW117279  11.564   1.787   9.445  0.0520  0.0741  0.1096
36743SOL    HW217280  11.584   1.697   9.565  0.6488  1.0400  0.7402
36744SOL     OW17281   2.754   9.234   5.169  0.1566  0.1801 -1.0747
36744SOL    HW117282   2.668   9.273   5.151 -0.1437 -1.6206 -4.2568
36744SOL    HW217283   2.733   9.155   5.219  0.1356  0.5474 -0.4921
36745SOL     OW17284   0.599   2.870   5.231  0.4547  0.5886 -0.3515
36745SOL    HW117285   0.658   2.929   5.279  0.4188  0.1753  0.2080
36745SOL    HW217286   0.653   2.837   5.159  0.5944  1.0070 -0.4406
36746SOL     OW17287  10.441  10.536  10.583  0.3826 -0.6504  0.1601
36746SOL    HW117288  10.512  10.555  10.521 -0.8167  2.4544 -0.4527
36746SOL    HW217289  10.481  10.550  10.669  0.9518 -0.7531 -0.0763
36747SOL     OW17290  11.597   6.293   0.366 -0.0931 -0.3322 -1.3009
36747SOL    HW117291  11.588   6.388   0.367  0.1891 -0.3120  0.1315
36747SOL    HW217292  11.630   6.270   0.453  0.5548 -1.6786 -1.8711
36748SOL     OW17293  10.308  12.386   6.960  0.5868 -0.2179 -0.1682
36748SOL    HW117294  10.232  12.444   6.966  1.6174  1.2767 -1.0239
36748SOL    HW217295  10.311  12.361   6.867 -0.3858 -2.4793  0.3236
36749SOL     OW17296   1.786   5.616   8.673 -0.0141  0.1866 -0.8311
36749SOL    HW117297   1.767   5.594   8.582 -0.4575 -0.9329 -0.4953
36749SOL    HW217298   1.795   5.531   8.717 -0.8551  0.6741  0.3710
36750SOL     OW17299   5.134   8.532   4.228 -0.0463 -0.0789 -0.2830
36750SOL    HW117300   5.134   8.628   4.226 -1.4788 -0.0263  0.8575
36750SOL    HW217301   5.063   8.509   4.287  2.2287 -1.8144  2.0270
36751SOL     OW17302   5.993  12.441   3.544  0.2977 -0.1295  0.0629
36751SOL    HW117303   6.004  12.528   3.581 -1.6021  0.8414 -1.4826
36751SOL    HW217304   6.070  12.428   3.489  1.2083  0.0013  1.2517
36752SOL     OW17305   2.340   0.435   0.998 -0.0089  0.4684 -0.2517
36752SOL    HW117306   2.255   0.414   1.037 -0.0228  1.5249  0.3349
36752SOL    HW217307   2.386   0.351   0.994 -1.0698 -0.1145 -0.5654
36753SOL     OW17308   4.121  10.347   7.121 -0.2025  0.0923  0.2089
36753SOL    HW117309   4.107  10.377   7.031 -1.0850 -2.6318 -0.6558
36753SOL    HW217310   4.192  10.282   7.114 -1.3650 -1.3493  1.1709
36754SOL     OW17311   9.955   5.212   6.178  0.1901  0.2058 -0.2537
36754SOL    HW117312   9.975   5.165   6.097  0.9090  0.3523 -0.1715
36754SOL    HW217313   9.892   5.279   6.153 -1.9085 -1.6297 -0.1257
36755SOL     OW17314   0.118   5.587  11.082 -0.2096  0.7618  0.2855
36755SOL    HW117315   0.198   5.537  11.070 -0.4730 -0.5388  3.0837
36755SOL    HW217316   0.145   5.667  11.127 -0.3428  0.8684  0.1782
36756SOL     OW17317   1.029   6.455   1.145  0.2595 -0.3057  0.5614
36756SOL    HW117318   1.090   6.513   1.097  0.2316 -2.3849 -2.2501
36756SOL    HW217319   0.945   6.501   1.142  0.6241  0.3502  0.0029
36757SOL     OW17320   9.250  10.091   5.330  0.3029 -0.4095  0.4789
36757SOL    HW117321   9.213  10.167   5.375  0.1967  0.0783 -0.4246
36757SOL    HW217322   9.264  10.027   5.400  1.7311  0.9348  1.4941
36758SOL     OW17323   1.708  10.259   9.159  0.1474 -0.2837  0.2611
36758SOL    HW117324   1.786  10.224   9.203 -0.4494 -0.9741  0.8004
36758SOL    HW217325   1.666  10.313   9.226 -1.5621 -2.5051  1.1367
36759SOL     OW17326   8.665  10.396   8.529 -0.1999 -0.5770 -0.1157
36759SOL    HW117327   8.701  10.390   8.618  1.6391 -0.6877 -0.8169
36759SOL    HW217328   8.572  10.379   8.540 -0.0204 -0.5904  1.7961
36760SOL     OW17329   6.757   6.470   9.686 -0.1438  0.0263  0.2408
36760SOL    HW117330   6.687   6.535   9.677  2.0920  2.5437 -0.2038
36760SOL    HW217331   6.804   6.473   9.603  1.3847 -0.4847  1.0380
36761SOL     OW17332   3.495   9.072   7.275 -0.0025 -0.0355  0.1753
36761SOL    HW117333   3.535   8.987   7.257 -1.5597 -0.8638  0.4108
36761SOL    HW217334   3.566   9.135   7.265  1.1904 -1.3597 -0.0150
36762SOL     OW17335   3.132   3.115   0.509  0.2418  0.0629 -0.4301
36762SOL    HW117336   3.207   3.149   0.557 -1.0041  1.1022  0.8850
36762SOL    HW217337   3.113   3.031   0.550  0.3293  0.0739 -0.3667
36763SOL     OW17338   4.621   8.900   0.650  0.4719  0.7872 -0.5587
36763SOL    HW117339   4.670   8.948   0.584  1.4969 -0.7155 -0.9448
36763SOL    HW217340   4.632   8.808   0.626 -0.5734  0.2929  0.7231
36764SOL     OW17341  11.450   4.853  10.906 -0.3011  0.0820 -0.4513
36764SOL    HW117342  11.529   4.868  10.854  0.1481  1.1636  0.4985
36764SOL    HW217343  11.463   4.906  10.985 -1.6937 -0.2293  0.0137
36765SOL     OW17344  10.624   4.123  11.708 -0.4119 -0.6535 -0.1610
36765SOL    HW117345  10.534   4.131  11.738 -0.3128  0.0369 -0.0370
36765SOL    HW217346  10.656   4.043  11.750 -1.2219 -1.3800 -0.8934
36766SOL     OW17347  12.494   0.518  12.415 -0.5964  0.1046 -0.3973
36766SOL    HW117348  12.488   0.439  12.361 -0.8672 -0.7730  0.8495
36766SOL    HW217349  12.542   0.490  12.493 -0.2141  1.3227 -0.1706
36767SOL     OW17350   1.053   9.286   2.015 -0.2770 -0.2986  0.0028
36767SOL    HW117351   1.096   9.242   1.941 -0.6217 -1.4715  0.4730
36767SOL    HW217352   1.125   9.308   2.074 -0.2630 -2.3024  0.8086
36768SOL     OW17353   0.923   3.501   4.370 -0.6041 -0.3537  0.2345
36768SOL    HW117354   0.876   3.445   4.432 -0.6676 -1.4919 -0.8165
36768SOL    HW217355   0.857   3.528   4.307 -0.0474 -1.2710 -0.7683
36769SOL     OW17356   1.102   0.700   6.666  0.3978 -0.2505 -0.1551
36769SOL    HW117357   1.077   0.741   6.749  0.3533  0.7744 -0.6636
36769SOL    HW217358   1.059   0.753   6.599 -1.2527 -2.2501 -0.7848
36770SOL     OW17359   8.096   6.063   1.327  1.0362 -0.3134  0.1408
36770SOL    HW117360   8.103   5.976   1.365  0.1506  0.0462  1.1792
36770SOL    HW217361   8.125   6.122   1.396 -0.4205  0.3410  0.2466
36771SOL     OW17362   3.292   2.546   8.275 -0.3339  0.0071 -0.5361
36771SOL    HW117363   3.221   2.606   8.253  1.3521  1.3911 -2.6789
36771SOL    HW217364   3.282   2.473   8.214  0.6230  0.7143 -1.5810
36772SOL     OW17365   3.269  12.024   0.975  0.4844 -0.0048 -0.7790
36772SOL    HW117366   3.187  12.027   1.025  0.5556  0.2408 -0.6785
36772SOL    HW217367   3.253  11.957   0.908  0.3427 -0.2414 -0.5129
36773SOL     OW17368   4.079   2.827   6.750  0.2201 -0.1011  0.1853
36773SOL    HW117369   4.131   2.754   6.718  1.2299  0.8697 -0.4669
36773SOL    HW217370   4.084   2.892   6.680  1.5456  1.6337  1.7765
36774SOL     OW17371   7.777   9.981   7.051  0.2808  0.5192  0.7741
36774SOL    HW117372   7.746  10.005   7.138  0.3715  1.4547  0.5578
36774SOL    HW217373   7.847   9.918   7.067  1.2581  1.7306  1.4502
36775SOL     OW17374   0.183  11.956   1.296 -0.0604  0.0333 -0.2615
36775SOL    HW117375   0.142  11.993   1.375  1.1412 -2.0007  1.4333
36775SOL    HW217376   0.186  12.029   1.234 -4.0241  0.8950  0.3032
36776SOL     OW17377   3.607  10.486   0.335  0.0875 -0.6240 -0.3141
36776SOL    HW117378   3.542  10.471   0.404  0.8743 -1.6239  0.2424
36776SOL    HW217379   3.634  10.398   0.308  1.2928 -0.2280 -0.4448
36777SOL     OW17380   9.605  10.086  11.477  0.1485  0.4689  0.3821
36777SOL    HW117381   9.666  10.071  11.405 -0.1907 -0.0157  0.1966
36777SOL    HW217382   9.659  10.127  11.545  0.5154  0.7431 -0.0620
36778SOL     OW17383   4.025  10.597  11.342 -0.4670 -0.4658  0.5500
36778SOL    HW117384   4.096  10.643  11.295 -0.5062  0.6724  1.5397
36778SOL    HW217385   4.006  10.521  11.288  0.4864  0.0156 -0.5199
36779SOL     OW17386   2.394   9.124   1.728 -0.1319  0.0599 -0.1441
36779SOL    HW117387   2.449   9.053   1.693 -0.8474 -0.1178 -0.9687
36779SOL    HW217388   2.418   9.201   1.676  0.3088  0.3176  0.4321
36780SOL     OW17389   1.034   3.954   8.537  0.0342  0.3759  0.2931
36780SOL    HW117390   1.058   3.880   8.593  1.2649  0.3019 -0.2949
36780SOL    HW217391   0.956   3.991   8.579 -1.4139 -2.0219 -0.1105
36781SOL     OW17392   7.376   1.055   6.979 -0.3822 -1.1876  0.3506
36781SOL    HW117393   7.427   1.000   6.920 -0.8888 -0.6075 -0.6565
36781SOL    HW217394   7.304   1.088   6.925 -0.4268 -0.0265  1.0822
36782SOL     OW17395   8.794   1.177   5.564 -0.3467 -0.5504  0.7363
36782SOL    HW117396   8.705   1.173   5.599  0.2521 -1.5475  2.2967
36782SOL    HW217397   8.814   1.087   5.538  0.4806 -0.5093  1.1778
36783SOL     OW17398   4.807  10.012  10.149 -0.2919  0.0355  0.4510
36783SOL    HW117399   4.795   9.920  10.169  2.4041 -0.4878  0.0092
36783SOL    HW217400   4.791  10.057  10.232  1.5209 -1.1773  1.5240
36784SOL     OW17401  10.129   2.131   9.510  0.3093 -0.0936  0.2384
36784SOL    HW117402  10.196   2.075   9.550  0.2467 -0.4806 -0.1883
36784SOL    HW217403  10.145   2.124   9.416  0.5211  0.8853  0.1885
36785SOL     OW17404   5.255  11.815   3.327  0.3186 -0.0115  0.1395
36785SOL    HW117405   5.227  11.907   3.332  0.7810  0.2912 -1.7602
36785SOL    HW217406   5.242  11.792   3.235  2.5730 -1.0589  0.0247
36786SOL     OW17407   5.665   0.718  10.509  0.0727  0.1597  0.0240
36786SOL    HW117408   5.677   0.800  10.463 -0.2178 -0.3299 -0.9468
36786SOL    HW217409   5.572   0.717  10.533  0.1416  0.2428  0.3037
36787SOL     OW17410   4.983  10.535   4.148 -0.9284  0.1301  0.4776
36787SOL    HW117411   4.983  10.626   4.176 -0.5320  0.6106 -0.9935
36787SOL    HW217412   4.891  10.515   4.131 -0.7637  1.4903 -2.7833
36788SOL     OW17413  11.157   3.010  11.060 -0.9982  0.1587 -0.3833
36788SOL    HW117414  11.206   3.033  11.139 -0.5066 -0.1242 -0.5940
36788SOL    HW217415  11.105   2.934  11.085 -0.1772 -0.4791 -0.5584
36789SOL     OW17416  12.023   6.915   8.113 -0.1598 -0.0003 -0.2379
36789SOL    HW117417  12.114   6.935   8.135 -0.9388  4.0572 -0.0261
36789SOL    HW217418  11.981   6.900   8.198  0.3736 -2.9989 -0.3834
36790SOL     OW17419   9.704   1.403   1.544  0.4875 -0.3624  1.1791
36790SOL    HW117420   9.696   1.308   1.540  1.8167 -0.4973  1.4399
36790SOL    HW217421   9.737   1.429   1.458 -1.0158  0.0152  0.6786
36791SOL     OW17422   1.518   0.654   2.633 -0.0994  0.0627  0.3344
36791SOL    HW117423   1.453   0.685   2.570 -0.3479  0.6564  0.8771
36791SOL    HW217424   1.486   0.568   2.660 -0.6027  0.3082  0.5233
36792SOL     OW17425   7.835   3.665  11.564 -0.2545 -0.7639 -0.2475
36792SOL    HW117426   7.878   3.615  11.634 -0.6881  0.5629  1.0065
36792SOL    HW217427   7.906   3.684  11.502  0.5277 -0.5022  0.6910
36793SOL     OW17428   0.604   0.564   9.153 -0.6654  0.5143 -0.2601
36793SOL    HW117429   0.561   0.516   9.083 -1.8946 -0.3883  1.0615
36793SOL    HW217430   0.698   0.558   9.132 -0.8013 -2.0122 -0.4563
36794SOL     OW17431   8.329   7.839   2.233 -0.2200 -0.4139 -0.6816
36794SOL    HW117432   8.359   7.927   2.212 -0.7985  0.1211  0.6441
36794SOL    HW217433   8.233   7.844   2.224 -0.5635 -0.0443  2.1999
36795SOL     OW17434  11.370   4.047   0.234 -0.1851 -0.0313 -0.2642
36795SOL    HW117435  11.287   4.085   0.260 -1.3216 -2.6077  0.2304
36795SOL    HW217436  11.363   4.033   0.140  0.1044  0.6205 -0.3899
36796SOL     OW17437   2.341   2.035   6.969 -0.3292 -0.0293  0.2462
36796SOL    HW117438   2.259   2.065   6.931 -0.6796  2.0774  2.4346
36796SOL    HW217439   2.409   2.069   6.911 -0.8981 -0.9914 -1.0575
36797SOL     OW17440   3.088  12.280   6.973  0.0363  0.0296 -0.3024
36797SOL    HW117441   3.098  12.368   7.010 -1.1701  0.2395 -0.4126
36797SOL    HW217442   3.085  12.294   6.879 -1.3090  0.0326 -0.2824
36798SOL     OW17443   6.422   7.799  12.425 -0.1222  0.1573 -0.7828
36798SOL    HW117444   6.420   7.892  12.402  2.1203  0.5269  0.2278
36798SOL    HW217445   6.468   7.797  12.509 -4.4837 -1.4403  1.9503
36799SOL     OW17446   4.989   2.960   6.953  0.1221 -0.0532  0.1492
36799SOL    HW117447   4.961   3.042   6.913 -3.3466 -1.9839 -1.8568
36799SOL    HW217448   5.030   2.910   6.881 -0.2307 -1.0825  0.6386
36800SOL     OW17449  12.357   2.875   9.435  0.4544  0.7904  0.1144
36800SOL    HW117450  12.407   2.848   9.358  0.7836 -0.2627  0.6826
36800SOL    HW217451  12.266   2.854   9.414  0.7297 -1.1005  0.6529
36801SOL     OW17452   1.854  11.270   2.986  0.0879  0.4360 -0.3381
36801SOL    HW117453   1.855  11.176   2.966 -0.5700  0.3103  0.1752
36801SOL    HW217454   1.945  11.291   3.006  0.1448 -0.2333  0.1438
36802SOL     OW17455  12.182   9.866   0.059  0.1266 -0.1991  0.5049
36802SOL    HW117456  12.234   9.888   0.136  1.0939  0.0304 -0.1896
36802SOL    HW217457  12.191   9.942   0.002 -2.7639  0.8025  1.2296
36803SOL     OW17458   5.388   5.984   0.230  0.0978 -0.7097  0.1258
36803SOL    HW117459   5.390   6.019   0.320  2.2068  0.0459 -0.1579
36803SOL    HW217460   5.410   5.891   0.240  1.0617 -0.4693  0.3617
36804SOL     OW17461   0.879   5.039   1.300 -0.6173  0.4536 -0.5685
36804SOL    HW117462   0.936   5.049   1.223 -0.1539 -1.2968 -0.4881
36804SOL    HW217463   0.930   4.985   1.360 -1.9131 -0.1700 -0.0126
36805SOL     OW17464   0.141  10.146   0.552 -0.4937  0.4555  0.4397
36805SOL    HW117465   0.163  10.057   0.527 -1.8977 -0.3165  1.7746
36805SOL    HW217466   0.158  10.198   0.473 -0.0733 -1.0473 -0.4998
36806SOL     OW17467   7.943  10.128   4.954  0.4341 -0.8118  0.1436
36806SOL    HW117468   7.965  10.061   4.890  1.2715  0.1216 -0.5899
36806SOL    HW217469   7.910  10.201   4.902 -1.6552 -1.0749  1.0112
36807SOL     OW17470  11.109   3.582   6.241 -0.1958 -0.2801  0.1927
36807SOL    HW117471  11.014   3.588   6.254  0.0850  0.6218  2.0165
36807SOL    HW217472  11.147   3.643   6.304  1.5579  0.7790 -1.7408
36808SOL     OW17473   8.510   8.207   6.513 -0.1216 -0.1662  0.2442
36808SOL    HW117474   8.430   8.165   6.545 -0.0858 -0.5949 -0.2304
36808SOL    HW217475   8.483   8.296   6.489 -0.3818 -0.2072  0.3855
36809SOL     OW17476   2.712   6.778  10.356 -0.2069  0.7749  0.0022
36809SOL    HW117477   2.753   6.860  10.384  3.0740 -1.4178  2.1677
36809SOL    HW217478   2.699   6.728  10.436 -2.8574 -0.6539 -1.1680
36810SOL     OW17479   0.635   3.873   8.850  0.1567 -0.0391  0.0256
36810SOL    HW117480   0.562   3.875   8.912 -0.3578 -2.0159 -0.4449
36810SOL    HW217481   0.684   3.795   8.874  2.5600  1.5849  0.7383
36811SOL     OW17482  12.052   5.760   6.960  0.1516 -0.3826  0.3642
36811SOL    HW117483  12.051   5.673   6.999  0.3909 -0.5678 -0.0396
36811SOL    HW217484  11.984   5.808   7.008 -1.8428 -1.5312 -1.1531
36812SOL     OW17485   1.724   7.057  10.290  0.1723  0.2055 -0.7285
36812SOL    HW117486   1.757   6.978  10.247 -1.1482 -1.2718  0.8479
36812SOL    HW217487   1.693   7.112  10.217  1.4902 -0.5086 -1.8800
36813SOL     OW17488   4.107   1.151   3.460 -0.0974 -0.5936 -0.0474
36813SOL    HW117489   4.199   1.134   3.438 -0.5152 -2.8022 -0.3911
36813SOL    HW217490   4.099   1.125   3.552  0.2802  2.7943  1.0878
36814SOL     OW17491   8.631   3.767  12.308  0.0418  0.6187 -0.7073
36814SOL    HW117492   8.698   3.811  12.255 -0.4195  0.3812 -1.5084
36814SOL    HW217493   8.549   3.782  12.260  0.0154 -2.1006 -1.6723
36815SOL     OW17494   7.488   9.161   6.174  0.1196  0.4121 -0.1350
36815SOL    HW117495   7.512   9.069   6.171 -0.4796  0.2706 -0.8245
36815SOL    HW217496   7.564   9.205   6.213  1.2066 -0.1069 -1.5961
36816SOL     OW17497   8.548   1.544   9.392 -0.4679  0.0789  0.5646
36816SOL    HW117498   8.511   1.594   9.320 -1.2906 -0.7393  0.3921
36816SOL    HW217499   8.577   1.610   9.455 -2.3296  0.7899  0.7480
36817SOL     OW17500  10.837   8.740   2.199  0.3937  0.2578  0.6109
36817SOL    HW117501  10.852   8.804   2.268 -0.1141 -0.1547  1.1061
36817SOL    HW217502  10.789   8.669   2.241  1.0237 -0.4999  0.0924
36818SOL     OW17503  11.588   0.444   1.373 -0.7425  0.2995  0.0718
36818SOL    HW117504  11.499   0.462   1.402 -1.0313 -1.1841  0.2103
36818SOL    HW217505  11.593   0.348   1.369  1.3384  0.2531  1.6854
36819SOL     OW17506   5.131   8.569   8.370  0.1685  0.0141 -0.3557
36819SOL    HW117507   5.172   8.521   8.298  0.9396  0.2370 -0.0743
36819SOL    HW217508   5.202   8.587   8.431 -0.7424 -1.6574  1.3122
36820SOL     OW17509   9.899  10.704  10.822 -0.0778  0.4387 -0.1020
36820SOL    HW117510   9.827  10.644  10.843 -0.9387  2.0752  1.9806
36820SOL    HW217511   9.866  10.755  10.748 -0.5044  0.2301 -0.0598
36821SOL     OW17512   8.312   9.261  10.758  0.0611  0.0150 -0.2596
36821SOL    HW117513   8.377   9.312  10.807 -1.3346  1.8623 -0.2369
36821SOL    HW217514   8.244   9.242  10.822  0.0290 -0.9135 -0.5611
36822SOL     OW17515   2.384   7.289  12.240 -0.5094  0.8637  0.5883
36822SOL    HW117516   2.442   7.363  12.222 -1.1297  1.0052 -1.0131
36822SOL    HW217517   2.404   7.264  12.331  2.9613  0.0932 -0.2251
36823SOL     OW17518   1.434   2.338  12.012 -0.0240  0.2994  0.0173
36823SOL    HW117519   1.387   2.330  12.096  1.6790 -0.2133  0.9716
36823SOL    HW217520   1.415   2.256  11.966 -0.8072  0.4990 -0.0390
36824SOL     OW17521   5.797   6.692   2.080 -0.0430  0.3009 -0.6185
36824SOL    HW117522   5.882   6.647   2.077  0.4278  1.1820 -2.8091
36824SOL    HW217523   5.734   6.623   2.099  0.9089 -0.8787 -1.5708
36825SOL     OW17524   2.567  12.130   2.052 -0.0799 -0.7621 -0.5693
36825SOL    HW117525   2.491  12.142   2.108  0.5638  0.4467  0.0926
36825SOL    HW217526   2.618  12.061   2.094  0.1672 -0.1821  0.1171
36826SOL     OW17527   8.987   1.884  10.805  0.1946  0.1324 -0.2369
36826SOL    HW117528   9.081   1.867  10.809  0.0294 -1.2907 -1.5637
36826SOL    HW217529   8.950   1.838  10.881  0.5560  0.7714  0.3385
36827SOL     OW17530   3.897   1.391   0.060 -0.8607  0.0466 -0.9198
36827SOL    HW117531   3.926   1.448  -0.011  1.3629  0.9546  0.6067
36827SOL    HW217532   3.867   1.311   0.016  2.1718 -0.1804 -2.8740
36828SOL     OW17533   6.023  10.429   1.997 -0.6388 -0.0161  0.3263
36828SOL    HW117534   6.116  10.417   1.982 -0.3931  0.7203  1.1802
36828SOL    HW217535   6.014  10.432   2.093 -1.2627  1.8095  0.2521
36829SOL     OW17536   6.455  10.842   1.956 -0.1522  0.1092  0.7016
36829SOL    HW117537   6.403  10.762   1.948  0.7752 -0.6082  1.5456
36829SOL    HW217538   6.456  10.879   1.868  0.7218 -1.6579 -0.0681
36830SOL     OW17539   7.869   1.465   1.069 -0.5652  0.3307  0.5857
36830SOL    HW117540   7.918   1.508   0.999 -0.3780 -1.6649 -0.5997
36830SOL    HW217541   7.937   1.435   1.130 -0.5992  0.5835  0.7504
36831SOL     OW17542   9.468   6.451   2.038 -0.2721 -0.0695  0.0460
36831SOL    HW117543   9.433   6.454   1.949 -0.1821 -1.9888 -0.1088
36831SOL    HW217544   9.394   6.423   2.091  0.3558 -1.7930  0.0838
36832SOL     OW17545   9.009   6.935   0.711 -0.6866  0.5681  0.1798
36832SOL    HW117546   9.099   6.920   0.684 -0.1150 -0.4170  2.4026
36832SOL    HW217547   8.958   6.925   0.631  0.8157 -2.2847 -0.5621
36833SOL     OW17548   1.137   8.765  11.907 -0.4225 -0.7732 -0.0304
36833SOL    HW117549   1.178   8.836  11.957  1.8373 -0.2010 -2.4702
36833SOL    HW217550   1.084   8.810  11.841  0.2857 -1.3286 -1.0060
36834SOL     OW17551   7.203   4.111   0.374  0.2789  0.4656 -0.1041
36834SOL    HW117552   7.119   4.134   0.415  0.2065 -0.4182  0.2685
36834SOL    HW217553   7.217   4.179   0.308 -0.9576  0.3756 -0.4866
36835SOL     OW17554   2.720   3.439   9.256  0.2934 -0.3273  0.0245
36835SOL    HW117555   2.703   3.414   9.165 -2.6254 -1.0049  0.6617
36835SOL    HW217556   2.663   3.514   9.272  1.9340  0.8010  0.9153
36836SOL     OW17557   9.518   4.174   4.924  0.1798  0.1518 -0.4116
36836SOL    HW117558   9.498   4.108   4.858  0.4141  0.3550 -0.6944
36836SOL    HW217559   9.613   4.165   4.939  0.2762  0.6363 -0.6976
36837SOL     OW17560   9.954   9.775   7.142  0.5809 -0.1305 -0.2520
36837SOL    HW117561   9.862   9.752   7.155  0.2895  0.8309 -0.5777
36837SOL    HW217562   9.985   9.712   7.077 -0.1566  0.2571 -0.9940
36838SOL     OW17563  10.996   9.523   9.946  0.2359 -0.3120 -0.3436
36838SOL    HW117564  10.936   9.458   9.910 -0.6161 -0.2172  0.8776
36838SOL    HW217565  11.050   9.474  10.009 -0.5288  0.1755  0.7134
36839SOL     OW17566   7.814   9.452   9.174  0.0211 -0.4060  0.0566
36839SOL    HW117567   7.794   9.477   9.084 -0.4281  0.4070  0.3683
36839SOL    HW217568   7.766   9.370   9.187  2.7094 -2.3865 -1.4589
36840SOL     OW17569  11.034   0.826   5.704  0.3623  0.3695  0.0599
36840SOL    HW117570  10.959   0.883   5.688 -0.7356 -1.1143 -0.3297
36840SOL    HW217571  11.006   0.770   5.776 -0.3185 -2.4542 -2.1993
36841SOL     OW17572   4.338   4.030   8.756 -0.0664 -0.3421  0.6487
36841SOL    HW117573   4.417   4.043   8.704 -0.1221 -1.1034  0.3596
36841SOL    HW217574   4.360   4.063   8.843  0.3321  0.1026  0.3814
36842SOL     OW17575  10.642   6.449   7.809 -0.3667  0.2147  0.0647
36842SOL    HW117576  10.619   6.375   7.865  1.4641 -1.0325 -0.7241
36842SOL    HW217577  10.719   6.488   7.852 -0.4501  0.7766 -0.2861
36843SOL     OW17578   1.603   3.827   8.758  0.3939  0.0594  0.5576
36843SOL    HW117579   1.586   3.892   8.827 -0.6197 -0.1441  0.5111
36843SOL    HW217580   1.517   3.793   8.735  0.7068  0.1671 -0.8656
36844SOL     OW17581   7.659   4.512  11.256  0.0635  0.6783  0.1219
36844SOL    HW117582   7.625   4.516  11.345 -1.4259 -1.8823 -0.2396
36844SOL    HW217583   7.602   4.570  11.206 -0.6966  0.1922  0.4106
36845SOL     OW17584  12.441   9.686   3.872  0.4545 -0.4466  0.6543
36845SOL    HW117585  12.385   9.740   3.817 -0.1746 -0.8292  0.9160
36845SOL    HW217586  12.488   9.750   3.927  0.0796 -0.1409  0.6257
36846SOL     OW17587   9.379   9.597   8.280 -0.0862  0.5493 -0.7269
36846SOL    HW117588   9.318   9.525   8.298  0.0875 -0.0261 -2.2255
36846SOL    HW217589   9.448   9.587   8.345  0.1407 -0.9246 -1.1442
36847SOL     OW17590   0.779   7.984   7.969 -0.7493 -0.0455 -0.5316
36847SOL    HW117591   0.776   7.888   7.973 -2.1989 -0.0333 -1.0077
36847SOL    HW217592   0.840   8.008   8.039 -0.9065 -1.2886  0.0635
36848SOL     OW17593   5.977  10.978   7.630  0.1248 -0.6724 -0.9748
36848SOL    HW117594   5.909  10.924   7.670  0.7348 -0.2059  0.7971
36848SOL    HW217595   6.031  10.916   7.581  0.1594 -1.5161  0.0827
36849SOL     OW17596   9.413   0.896   6.178  0.4419  0.2602  0.2685
36849SOL    HW117597   9.407   0.891   6.274 -0.2069 -0.3778  0.2005
36849SOL    HW217598   9.496   0.942   6.162  0.9648 -0.3570  1.1242
36850SOL     OW17599   5.877   2.215   7.012 -0.0449  0.1629 -0.2184
36850SOL    HW117600   5.782   2.211   7.008  0.0314 -1.4906 -1.3924
36850SOL    HW217601   5.899   2.183   7.100 -0.5623  0.2211 -0.0690
36851SOL     OW17602   7.687   3.039   4.965 -0.2390 -0.6564  0.2912
36851SOL    HW117603   7.777   3.042   4.999 -0.2484  1.3257  0.2088
36851SOL    HW217604   7.698   3.035   4.870 -0.1564  2.9979  0.0413
36852SOL     OW17605   1.832  10.250   0.837 -0.6991  0.4878  0.1039
36852SOL    HW117606   1.744  10.248   0.874 -1.1371 -0.4691 -0.9435
36852SOL    HW217607   1.855  10.157   0.824 -0.2950  0.7675 -1.3676
36853SOL     OW17608   9.325  10.892   5.313 -0.1937  0.2284 -0.0809
36853SOL    HW117609   9.383  10.925   5.382 -1.2104  1.1212  0.3780
36853SOL    HW217610   9.366  10.810   5.285  0.6953  0.2757  0.9882
36854SOL     OW17611   4.096   1.654   1.505 -0.1022  0.2341 -0.4323
36854SOL    HW117612   4.066   1.623   1.590 -2.0820  2.9704 -0.0023
36854SOL    HW217613   4.188   1.678   1.519 -0.3119  0.3297  0.8341
36855SOL     OW17614   3.891   5.671  10.752 -0.2710 -0.0594  0.1681
36855SOL    HW117615   3.901   5.612  10.677 -0.2741 -0.8608  0.7828
36855SOL    HW217616   3.980   5.696  10.775 -0.3380  1.8622 -1.3604
36856SOL     OW17617   5.191  10.368   5.640 -0.4683 -0.1587 -0.3822
36856SOL    HW117618   5.264  10.427   5.661 -0.6515  0.6173 -1.7714
36856SOL    HW217619   5.115  10.407   5.683 -0.3052 -0.2549 -0.0035
36857SOL     OW17620   8.231   0.286   3.011  0.2758 -0.3714  0.8313
36857SOL    HW117621   8.301   0.224   3.034  1.0464  0.7023  1.4258
36857SOL    HW217622   8.151   0.234   3.018  1.0790 -2.0809 -1.4177
36858SOL     OW17623   5.832   5.702   1.006 -0.1239 -0.0805  0.0619
36858SOL    HW117624   5.918   5.745   1.008  0.7628 -1.8137  0.6022
36858SOL    HW217625   5.817   5.673   1.096 -0.9912 -0.3725 -0.1623
36859SOL     OW17626   3.405   3.152   2.661  0.0455 -0.4019 -0.1989
36859SOL    HW117627   3.432   3.144   2.569  1.9225  0.9840  0.1812
36859SOL    HW217628   3.452   3.081   2.706  0.6573  0.1090 -0.0213
36860SOL     OW17629  12.178   8.778   5.159 -0.3276  0.4820  0.0596
36860SOL    HW117630  12.094   8.819   5.140 -0.4933 -0.5598 -1.6377
36860SOL    HW217631  12.183   8.780   5.255 -1.2262  2.5695  0.1244
36861SOL     OW17632   7.667  10.466   1.839 -0.6067 -0.3087  0.5171
36861SOL    HW117633   7.618  10.548   1.839  0.4066  0.3304  1.9489
36861SOL    HW217634   7.638  10.419   1.917  1.3846  0.3355  1.7292
36862SOL     OW17635  11.599   9.802  12.067  0.4333  0.4321  0.1308
36862SOL    HW117636  11.583   9.759  11.983 -2.2427 -1.8488  1.6355
36862SOL    HW217637  11.657   9.742  12.113 -1.9016 -0.8648  1.5831
36863SOL     OW17638   6.336   0.789   7.442 -0.1553 -0.0534  0.5576
36863SOL    HW117639   6.260   0.843   7.420  0.1337  0.2588  0.3090
36863SOL    HW217640   6.401   0.851   7.473  1.3455  0.2357 -2.6883
36864SOL     OW17641   7.455   6.733   5.924 -0.2877  0.5122 -0.5628
36864SOL    HW117642   7.494   6.819   5.934  0.0997  0.3237 -0.4459
36864SOL    HW217643   7.387   6.745   5.858  1.7585  0.2680 -2.8600
36865SOL     OW17644   4.964  11.584  11.333 -0.2666  0.0413 -0.3840
36865SOL    HW117645   4.997  11.665  11.294 -0.9907  0.1965 -0.6841
36865SOL    HW217646   5.043  11.540  11.366  0.3296  0.0613 -1.7177
36866SOL     OW17647   4.642   9.516   2.220 -0.2919 -0.0602  0.1054
36866SOL    HW117648   4.712   9.539   2.281  0.3733  0.0971 -0.7056
36866SOL    HW217649   4.579   9.588   2.228 -0.2648 -0.0897  0.6693
36867SOL     OW17650   9.682  11.423   1.506 -0.0859 -0.2696  0.2000
36867SOL    HW117651   9.591  11.422   1.477  0.1157 -0.8206 -0.4226
36867SOL    HW217652   9.676  11.413   1.601 -0.6765 -0.3295  0.1608
36868SOL     OW17653   2.532   6.674   3.956  0.0812 -0.0807  0.1130
36868SOL    HW117654   2.565   6.763   3.967  2.3246 -0.8861  0.3349
36868SOL    HW217655   2.478   6.678   3.877 -1.2798  1.8076  1.0710
36869SOL     OW17656  10.189   1.120   0.407  0.0429 -0.4469 -0.1217
36869SOL    HW117657  10.186   1.206   0.366 -3.0922 -0.8774 -1.1392
36869SOL    HW217658  10.215   1.061   0.337 -1.0428 -0.6680 -0.3603
36870SOL     OW17659  10.116   8.103   2.531 -1.0013  0.1477  0.0109
36870SOL    HW117660  10.123   8.021   2.580  0.6652 -0.8137 -1.7389
36870SOL    HW217661  10.198   8.149   2.548 -1.5274  1.0500  0.2140
36871SOL     OW17662   6.640  11.807   2.765  0.1314  0.5417  0.3828
36871SOL    HW117663   6.655  11.736   2.703  0.3562  1.3030 -0.4546
36871SOL    HW217664   6.548  11.831   2.752  0.0364  0.3690  0.7156
36872SOL     OW17665   8.959   8.867   2.924  0.5301 -0.9028 -0.1005
36872SOL    HW117666   8.967   8.778   2.959  1.4251 -1.6229 -1.9980
36872SOL    HW217667   9.019   8.869   2.850 -0.6559  0.7982 -1.0835
36873SOL     OW17668   3.638  10.311   9.379  0.3673 -0.0318  0.2106
36873SOL    HW117669   3.580  10.235   9.384  1.4256 -0.8001  1.3232
36873SOL    HW217670   3.677  10.305   9.292 -0.9088  0.2832 -0.4046
36874SOL     OW17671   2.556   9.470  12.396 -0.1629 -0.0443  0.5579
36874SOL    HW117672   2.510   9.388  12.377  0.7007 -0.3448 -0.3608
36874SOL    HW217673   2.645   9.456  12.363  0.5649  0.5657  2.1553
36875SOL     OW17674  10.369   2.164   2.146  0.1932  0.1350 -0.3472
36875SOL    HW117675  10.337   2.213   2.222  0.6345 -0.4614  0.2315
36875SOL    HW217676  10.297   2.105   2.123  0.1046  0.2325 -0.3184
36876SOL     OW17677   4.639   5.297   1.267 -0.2530  0.0428 -0.0006
36876SOL    HW117678   4.547   5.284   1.245 -0.2996 -0.9740  0.7077
36876SOL    HW217679   4.653   5.241   1.344  0.9634  0.1567 -0.1230
36877SOL     OW17680   1.870   3.111   1.494 -0.0460 -0.2355  0.4804
36877SOL    HW117681   1.961   3.139   1.507  0.4557 -1.8102  0.5498
36877SOL    HW217682   1.876   3.017   1.476 -1.7809 -0.7873  2.3331
36878SOL     OW17683   0.748   5.617  10.453  0.3379  0.3844 -0.7466
36878SOL    HW117684   0.678   5.560  10.487  0.2536 -1.4538 -3.5901
36878SOL    HW217685   0.828   5.568  10.469  0.5577  0.6947 -0.8948
36879SOL     OW17686  12.467  10.857  11.444  0.2609  0.2486  0.3126
36879SOL    HW117687  12.513  10.828  11.366  0.4936  0.1202  0.4955
36879SOL    HW217688  12.428  10.941  11.420  0.2947  0.1878  0.0465
36880SOL     OW17689   7.429  11.653   0.097  0.3973  0.1243  0.3000
36880SOL    HW117690   7.400  11.730   0.048  0.7135  0.5809  0.8191
36880SOL    HW217691   7.513  11.630   0.057  0.2994  0.0431  0.1399
36881SOL     OW17692   2.569   2.356   7.473 -0.1491 -0.2643 -0.2096
36881SOL    HW117693   2.595   2.305   7.550  1.0477  0.8760  0.1680
36881SOL    HW217694   2.477   2.378   7.489 -0.6214 -2.0220 -0.2538
36882SOL     OW17695   8.776   7.513   9.635  0.6378  0.3476 -0.0246
36882SOL    HW117696   8.766   7.495   9.728 -0.2009 -0.4651 -0.2477
36882SOL    HW217697   8.870   7.524   9.622  0.6805  1.3105  1.0502
36883SOL     OW17698   1.709   6.044   1.101 -0.2052 -0.2853  0.0803
36883SOL    HW117699   1.704   6.133   1.134  0.7184 -0.4316  0.6217
36883SOL    HW217700   1.622   6.007   1.119 -0.3349  0.2515  0.5686
36884SOL     OW17701   8.211   1.039   6.465  0.1859 -0.1834  0.0000
36884SOL    HW117702   8.282   0.975   6.476 -0.0847 -0.4205  0.4122
36884SOL    HW217703   8.240   1.114   6.517  0.3893 -0.0620 -0.2840
36885SOL     OW17704   9.742   4.130   2.524 -0.1569  0.6881 -0.2637
36885SOL    HW117705   9.705   4.103   2.608 -0.0842 -1.3145 -0.8249
36885SOL    HW217706   9.817   4.072   2.512 -0.2209  0.8817 -1.7396
36886SOL     OW17707   6.018   1.052  11.889 -0.1549  0.1315  0.3764
36886SOL    HW117708   5.942   1.010  11.929 -0.3005  1.7858  1.9706
36886SOL    HW217709   6.084   0.982  11.885 -1.5736 -1.2119 -0.6558
36887SOL     OW17710   1.147   0.061   1.717  0.0649 -0.5709  0.0588
36887SOL    HW117711   1.136   0.141   1.665 -0.7568  0.5522  1.8354
36887SOL    HW217712   1.057   0.030   1.730  0.2594 -0.8680  0.7089
36888SOL     OW17713   7.174   7.555   8.282  0.7197  0.3143 -1.3020
36888SOL    HW117714   7.264   7.537   8.255  0.3635 -0.7355 -1.8528
36888SOL    HW217715   7.121   7.498   8.227 -0.1365 -0.8530  0.6190
36889SOL     OW17716  12.452   2.238   3.091  0.4255 -0.2263  0.8792
36889SOL    HW117717  12.520   2.212   3.154  2.3026 -0.1740 -0.9883
36889SOL    HW217718  12.500   2.288   3.025 -1.5101 -0.0272 -0.4335
36890SOL     OW17719  10.752   9.404  11.754  0.2562 -0.2210 -0.4193
36890SOL    HW117720  10.846   9.419  11.758  0.3120 -0.2124 -1.5025
36890SOL    HW217721  10.716   9.485  11.718 -0.1530 -0.3022 -0.2085
36891SOL     OW17722   6.694   8.541   2.422  0.5315  0.2024 -0.6088
36891SOL    HW117723   6.703   8.526   2.328 -0.0074 -0.2565 -0.5914
36891SOL    HW217724   6.602   8.525   2.440  0.6501  0.2077  0.0132
36892SOL     OW17725   5.170  11.383   9.553 -0.0252  0.8764 -0.1314
36892SOL    HW117726   5.144  11.295   9.525  2.3976  0.0014  0.1592
36892SOL    HW217727   5.155  11.438   9.476 -3.2432  0.6594  0.2083
36893SOL     OW17728   7.928   8.345   7.306 -0.2210  0.4765 -0.5120
36893SOL    HW117729   8.007   8.358   7.358  1.3047  2.4029 -3.0551
36893SOL    HW217730   7.908   8.432   7.270 -0.1357 -0.9264 -4.3806
36894SOL     OW17731   5.221   1.311   0.844  0.2968 -0.2437 -0.4197
36894SOL    HW117732   5.291   1.365   0.880  0.0497  0.2870 -0.7321
36894SOL    HW217733   5.238   1.308   0.750  0.8703 -1.5286 -0.3000
36895SOL     OW17734   9.594   5.936   7.994 -0.0128  0.2940 -0.1764
36895SOL    HW117735   9.570   5.868   8.057 -1.2019  0.7819 -0.0638
36895SOL    HW217736   9.563   6.017   8.035  3.9753  1.3930  1.1039
36896SOL     OW17737   0.392   5.556   4.222  0.6356  0.0345  0.1391
36896SOL    HW117738   0.415   5.648   4.229  0.0126  0.1318  1.1144
36896SOL    HW217739   0.366   5.531   4.311 -2.4562 -0.1792 -0.6931
36897SOL     OW17740   5.894   4.267   0.519  0.0345 -0.4571 -0.5447
36897SOL    HW117741   5.814   4.309   0.550  0.6718 -0.5813  1.4298
36897SOL    HW217742   5.946   4.252   0.599  1.5272 -1.4146 -1.6318
36898SOL     OW17743   2.569   8.994   7.581  0.1058  0.0088  0.1785
36898SOL    HW117744   2.575   8.945   7.500  0.6954 -1.1585  0.8937
36898SOL    HW217745   2.480   8.976   7.614  0.0225  0.1186  0.0120
36899SOL     OW17746   5.105   0.253   5.241 -0.3564 -0.4494 -0.2262
36899SOL    HW117747   5.011   0.258   5.222 -0.2360  1.6742 -0.5048
36899SOL    HW217748   5.143   0.207   5.166 -0.9072  0.6760 -1.2133
36900SOL     OW17749   7.964   2.493   7.709 -0.1247  0.1865  0.8577
36900SOL    HW117750   7.990   2.560   7.772  1.2641  0.6567 -0.1878
36900SOL    HW217751   8.027   2.500   7.638  0.1795 -2.3387  0.7854
36901SOL     OW17752   7.148   9.916   2.938 -0.1744  0.0452 -0.2061
36901SOL    HW117753   7.195   9.956   2.865  0.8376 -2.5140 -1.0564
36901SOL    HW217754   7.124   9.829   2.907 -1.4493 -0.4144  1.8535
36902SOL     OW17755   9.061   7.566   5.535 -0.0964  0.2218  0.0618
36902SOL    HW117756   9.141   7.561   5.587  0.0574  0.8009 -0.1226
36902SOL    HW217757   9.087   7.541   5.447 -0.0905  0.5572 -0.0309
36903SOL     OW17758   8.578   0.693   0.602  0.3499  0.0668  0.5405
36903SOL    HW117759   8.487   0.713   0.621  0.2407  1.0366 -0.8385
36903SOL    HW217760   8.613   0.657   0.684 -1.3141 -0.5413  1.0139
36904SOL     OW17761  10.506   3.941   1.483 -0.0574 -0.3872 -0.4367
36904SOL    HW117762  10.564   3.934   1.560  0.7659  1.5453 -0.8194
36904SOL    HW217763  10.535   4.021   1.439 -0.5208 -1.4315 -2.7785
36905SOL     OW17764   0.199   9.405  11.028 -0.3020 -0.7100  0.0210
36905SOL    HW117765   0.184   9.322  11.074  0.0422 -1.5856 -1.3758
36905SOL    HW217766   0.278   9.441  11.068  0.4832 -1.8734 -0.4492
36906SOL     OW17767   3.602   9.972   4.875  0.5647 -0.4322 -0.3719
36906SOL    HW117768   3.655  10.014   4.807  2.6424 -1.3230  0.6197
36906SOL    HW217769   3.620  10.021   4.954  1.0803 -1.6291  0.2815
36907SOL     OW17770   6.857   1.856   3.899 -0.1343 -0.3169  0.7329
36907SOL    HW117771   6.948   1.881   3.885 -0.4103 -0.4306 -1.6180
36907SOL    HW217772   6.861   1.788   3.966  1.9100 -2.6950 -1.5788
36908SOL     OW17773   2.262  10.048   6.482 -0.4065 -0.2382 -0.0680
36908SOL    HW117774   2.240  10.085   6.567 -0.6284 -1.4852  0.4347
36908SOL    HW217775   2.357  10.061   6.474 -0.2405 -0.8342  0.7512
36909SOL     OW17776   5.716   2.589   8.475 -0.0712  0.5253 -0.2315
36909SOL    HW117777   5.782   2.650   8.508  1.1080 -0.1463 -1.2751
36909SOL    HW217778   5.655   2.577   8.549  1.3396  0.6371  0.9870
36910SOL     OW17779   3.245   2.155   0.493 -0.4970 -0.1047  0.1159
36910SOL    HW117780   3.251   2.251   0.486 -1.1942 -0.0367  0.4035
36910SOL    HW217781   3.215   2.140   0.583 -0.4697 -0.5959  0.0444
36911SOL     OW17782  11.158   5.500   6.126 -0.1118 -0.0151  0.0762
36911SOL    HW117783  11.105   5.422   6.115  1.8919 -1.3334 -0.8116
36911SOL    HW217784  11.217   5.500   6.050  1.7399  0.8484  1.4349
36912SOL     OW17785   9.036   2.526   5.338 -0.0027 -0.0545 -0.0342
36912SOL    HW117786   9.025   2.620   5.324  1.2295  0.2447  0.8256
36912SOL    HW217787   9.113   2.504   5.285 -0.2721 -0.5761 -0.2074
36913SOL     OW17788   3.512  10.776   4.384  0.2043  0.7445 -0.4717
36913SOL    HW117789   3.449  10.793   4.454  0.9207  1.4346  0.0183
36913SOL    HW217790   3.484  10.833   4.313 -0.4945  0.0799 -0.7524
36914SOL     OW17791   7.043   5.524   1.721  0.0719 -0.4092  0.2306
36914SOL    HW117792   7.094   5.598   1.753 -0.6815  0.3225 -0.2094
36914SOL    HW217793   7.026   5.546   1.629  0.5365 -1.5246 -0.1308
36915SOL     OW17794   1.083   3.511  10.485 -0.4297  0.0364 -0.3285
36915SOL    HW117795   1.172   3.527  10.517 -0.8626  2.1718 -0.0288
36915SOL    HW217796   1.029   3.510  10.564 -0.8109 -0.1153 -0.5915
36916SOL     OW17797   9.276   4.302   9.234 -0.0849 -0.0043  0.1055
36916SOL    HW117798   9.358   4.254   9.223 -0.1683 -1.3473  3.8566
36916SOL    HW217799   9.209   4.241   9.206  0.0552 -0.3261  0.4549
36917SOL     OW17800   3.520   0.671   8.708 -0.0705 -0.1329 -0.3230
36917SOL    HW117801   3.565   0.599   8.665 -1.2093 -0.1997 -1.4801
36917SOL    HW217802   3.427   0.650   8.700 -0.4094  1.1773 -0.1891
36918SOL     OW17803  12.262   3.031   4.698  0.1488 -0.3213 -0.1487
36918SOL    HW117804  12.278   2.941   4.724  1.2836 -0.0494  0.1690
36918SOL    HW217805  12.329   3.049   4.632 -0.0784  0.2782 -0.2203
36919SOL     OW17806   4.558   7.040   6.636  0.1316 -0.6070 -0.0850
36919SOL    HW117807   4.534   6.986   6.712 -1.1390  2.3318  1.7995
36919SOL    HW217808   4.520   7.126   6.656  1.7481  0.9175 -3.0342
36920SOL     OW17809   9.704   3.016   4.288 -0.3365 -0.1103 -0.1542
36920SOL    HW117810   9.694   2.983   4.378  0.7109  0.3683  0.1475
36920SOL    HW217811   9.738   3.105   4.299 -0.7239  0.1504 -1.0232
36921SOL     OW17812   6.453   1.604  11.158 -0.2350  0.5808 -0.2184
36921SOL    HW117813   6.496   1.677  11.115 -1.1145  1.8231  0.9418
36921SOL    HW217814   6.513   1.530  11.145  0.0548  1.1420 -2.5546
36922SOL     OW17815   1.133   4.788   0.356  0.1137 -0.0335 -0.0405
36922SOL    HW117816   1.052   4.837   0.342  0.6398  0.5645 -1.1095
36922SOL    HW217817   1.179   4.836   0.425 -0.5026 -0.4585  0.6708
36923SOL     OW17818   7.610   3.758   4.477  0.0262  0.3115  0.3920
36923SOL    HW117819   7.682   3.699   4.457  0.5352  1.0177  0.0943
36923SOL    HW217820   7.623   3.782   4.568 -0.1935 -0.0505  0.5197
36924SOL     OW17821  11.321   7.489   8.718 -0.4923 -0.1084 -0.1546
36924SOL    HW117822  11.320   7.580   8.686  1.2727 -0.0377 -0.0946
36924SOL    HW217823  11.297   7.437   8.642  0.9422  0.2600 -0.9048
36925SOL     OW17824   0.370   8.370   4.370  0.3071  0.0875 -0.3984
36925SOL    HW117825   0.285   8.369   4.327  0.9697 -1.0229 -1.7292
36925SOL    HW217826   0.374   8.286   4.417 -0.2445  1.1080  1.6213
36926SOL     OW17827   5.574   2.905   7.564 -0.0939 -0.0856  0.1221
36926SOL    HW117828   5.593   2.824   7.517  0.7495 -0.0474  0.3757
36926SOL    HW217829   5.479   2.915   7.559 -0.1773 -0.9706 -0.1056
36927SOL     OW17830   2.505   0.808   4.784 -0.4369  0.1302  0.1064
36927SOL    HW117831   2.461   0.746   4.841 -1.0864 -0.8006 -1.3357
36927SOL    HW217832   2.530   0.757   4.707 -0.6032  1.5601 -0.9512
36928SOL     OW17833   9.686   4.252   3.857  0.4216  0.5344  0.2167
36928SOL    HW117834   9.630   4.237   3.933  0.5513  0.4760  0.3001
36928SOL    HW217835   9.653   4.334   3.819  0.3322  0.5423  0.3128
36929SOL     OW17836  11.238  10.056   6.980 -0.3016  0.0204 -0.1995
36929SOL    HW117837  11.185  10.129   6.947  0.3849  1.0932  0.9888
36929SOL    HW217838  11.216  10.051   7.073 -0.6371 -1.5834 -0.3393
36930SOL     OW17839   8.208  12.191   2.717  0.0009 -0.4821  0.0596
36930SOL    HW117840   8.229  12.191   2.624  0.2433  0.0420  0.1087
36930SOL    HW217841   8.256  12.266   2.752 -2.6568  1.3851  0.0132
36931SOL     OW17842   1.713  10.016  10.290  0.1310  0.7031  0.1184
36931SOL    HW117843   1.724   9.956  10.217 -2.6195  0.0080  0.1541
36931SOL    HW217844   1.700  10.102  10.250  2.4941  1.0558  0.0075
36932SOL     OW17845   4.925  11.810  10.437 -0.4030  0.0959  0.0342
36932SOL    HW117846   4.949  11.848  10.352 -1.2493  1.6875  0.4693
36932SOL    HW217847   4.885  11.726  10.414  2.7603 -1.3164 -0.8631
36933SOL     OW17848   7.396  12.552  12.343  0.4573 -0.7314  0.2363
36933SOL    HW117849   7.406  12.600  12.425  0.6451  0.2200 -0.3243
36933SOL    HW217850   7.359  12.468  12.368  0.9266 -0.6190  1.3411
36934SOL     OW17851   0.526   0.056  11.820 -0.4590  0.2396  0.0541
36934SOL    HW117852   0.458   0.070  11.755 -0.3802  1.0129  0.1241
36934SOL    HW217853   0.587   0.129  11.807  1.3903 -1.4283 -1.2883
36935SOL     OW17854  10.523   6.069   4.391 -0.2438  0.3894 -0.4727
36935SOL    HW117855  10.459   6.007   4.355  0.6040 -0.6269 -0.2987
36935SOL    HW217856  10.568   6.019   4.460 -0.4240  1.6293  0.5822
36936SOL     OW17857   1.533   0.644  10.261 -0.1160  0.1615 -0.3601
36936SOL    HW117858   1.539   0.603  10.175  1.2774 -0.3680 -0.0416
36936SOL    HW217859   1.459   0.601  10.303 -1.7895  1.4891 -1.8034
36937SOL     OW17860   0.467   5.508   3.949 -0.0915  0.2173 -0.2879
36937SOL    HW117861   0.443   5.513   4.042  1.7204  0.3480  0.2002
36937SOL    HW217862   0.444   5.594   3.914 -2.5257 -0.4169 -0.4624
36938SOL     OW17863   8.420   7.930   4.145  0.0756 -0.0629 -0.0962
36938SOL    HW117864   8.465   7.898   4.067 -0.9496 -2.9624  0.3576
36938SOL    HW217865   8.486   7.931   4.213  0.8016  1.7748 -0.7588
36939SOL     OW17866   6.598   4.064   3.427 -0.5913 -0.4694  0.5141
36939SOL    HW117867   6.601   4.160   3.422 -1.7301 -0.4583 -0.3203
36939SOL    HW217868   6.655   4.035   3.355 -1.4160 -0.3920 -0.1914
36940SOL     OW17869  11.788   3.931   9.739  0.1044  0.0011  0.1982
36940SOL    HW117870  11.820   3.940   9.828 -1.0138  0.0042  0.6084
36940SOL    HW217871  11.843   3.864   9.700  0.0938 -0.5584  1.1291
36941SOL     OW17872   1.405   9.266   1.686 -0.6037  0.2899 -0.1548
36941SOL    HW117873   1.494   9.243   1.713 -0.4329  0.6916 -0.3621
36941SOL    HW217874   1.388   9.350   1.728 -1.6265 -0.6682  1.4772
36942SOL     OW17875   8.792   3.771  11.660 -0.1070 -0.2946 -0.9419
36942SOL    HW117876   8.722   3.834  11.641 -0.1376  0.0558  0.2497
36942SOL    HW217877   8.808   3.781  11.754 -0.5959 -2.5781 -0.5632
36943SOL     OW17878   1.526   1.136   8.731 -0.6272 -0.0826  0.2923
36943SOL    HW117879   1.566   1.221   8.709 -0.2875 -0.0812  0.8898
36943SOL    HW217880   1.593   1.091   8.782 -1.2215 -0.2716  0.9170
36944SOL     OW17881   5.399   9.628   5.782 -0.4675 -0.9243 -0.4502
36944SOL    HW117882   5.482   9.674   5.765 -1.1725  1.0569  1.0663
36944SOL    HW217883   5.338   9.665   5.718 -1.2949  1.1909  1.4134
36945SOL     OW17884   8.964   2.094   2.017 -0.0582  0.0293  0.7214
36945SOL    HW117885   8.999   2.006   2.004  1.0083  0.6503 -0.9080
36945SOL    HW217886   8.871   2.086   1.994 -0.6087 -1.1736  3.0489
36946SOL     OW17887   1.282   2.267   8.330  0.4878  0.2005 -0.6451
36946SOL    HW117888   1.302   2.337   8.391  0.1089  1.9090 -2.3597
36946SOL    HW217889   1.367   2.231   8.305  0.8019  1.1285 -0.9281
36947SOL     OW17890  12.072   3.350   1.591  0.4169 -0.6488  0.1082
36947SOL    HW117891  12.131   3.393   1.653  0.2939  1.5325 -1.1809
36947SOL    HW217892  12.112   3.265   1.575  0.4103 -1.3644  3.1713
36948SOL     OW17893   2.264  10.625   8.886  0.3381  0.3689 -0.0277
36948SOL    HW117894   2.312  10.579   8.818  1.4783  1.5157 -0.0336
36948SOL    HW217895   2.177  10.639   8.849 -0.5054 -2.8378  0.4636
36949SOL     OW17896   5.934   0.297   8.425  0.0867  0.5226 -0.4213
36949SOL    HW117897   5.923   0.208   8.389  0.3597  0.7418 -1.0526
36949SOL    HW217898   5.942   0.283   8.519  0.1972 -0.1346 -0.5189
36950SOL     OW17899   7.680  12.254   7.976 -0.5551 -0.0766 -0.1469
36950SOL    HW117900   7.598  12.205   7.984 -0.1806 -0.4209  2.5365
36950SOL    HW217901   7.704  12.276   8.066  0.4046  3.2878 -1.0724
36951SOL     OW17902   7.301   7.312  11.597 -0.7349 -0.1368  0.1324
36951SOL    HW117903   7.227   7.341  11.544 -0.4715  1.3360  0.5268
36951SOL    HW217904   7.345   7.393  11.624 -0.3347 -0.8825  1.8569
36952SOL     OW17905  12.205   8.404  10.617 -0.5438  0.6736  0.3148
36952SOL    HW117906  12.143   8.428  10.548 -1.1964  2.6397  1.5162
36952SOL    HW217907  12.175   8.318  10.646 -0.6607  0.1066 -1.3365
36953SOL     OW17908   0.156   2.481   5.691 -0.0035 -0.0254  0.1140
36953SOL    HW117909   0.104   2.461   5.769  0.0390 -1.6582 -0.2486
36953SOL    HW217910   0.213   2.553   5.718 -2.8258  2.2835  0.3494
36954SOL     OW17911   9.710  11.088   2.117 -0.1524 -0.2962 -0.0998
36954SOL    HW117912   9.717  11.069   2.211  0.6721  0.2629 -0.0396
36954SOL    HW217913   9.732  11.181   2.110 -0.0682 -0.3707 -0.8611
36955SOL     OW17914   7.359   7.167   9.960  0.2510  0.4274  0.3462
36955SOL    HW117915   7.353   7.204   9.872  1.7302  1.7798  0.7780
36955SOL    HW217916   7.268   7.168   9.992 -0.3100 -0.0838 -1.1221
36956SOL     OW17917   5.587   8.681   3.278 -0.3847 -0.3783  0.0944
36956SOL    HW117918   5.649   8.650   3.211 -0.2138  1.2702 -0.5528
36956SOL    HW217919   5.642   8.703   3.353 -0.1956  0.7031 -0.3396
36957SOL     OW17920   9.881   8.059   5.400  0.3100  0.4449 -0.3487
36957SOL    HW117921   9.927   7.975   5.405 -1.2777 -0.6332 -2.2149
36957SOL    HW217922   9.826   8.061   5.478 -1.3323 -1.4385 -1.3260
36958SOL     OW17923   9.264   8.851   3.476 -0.1533  0.0203 -0.1602
36958SOL    HW117924   9.224   8.886   3.397 -0.8114  0.1101  0.2053
36958SOL    HW217925   9.293   8.763   3.451  1.6694  0.8379 -1.1332
36959SOL     OW17926  12.569   4.816   3.048  0.4209  0.1030 -0.1462
36959SOL    HW117927  12.541   4.901   3.011 -0.1610  0.2576  0.6279
36959SOL    HW217928  12.500   4.755   3.021  1.5409 -0.4470 -1.8992
36960SOL     OW17929   5.019  10.068   2.504  0.3025 -0.0971  0.1877
36960SOL    HW117930   5.053  10.111   2.582  1.6786  0.2865 -0.5868
36960SOL    HW217931   4.988  10.140   2.449  0.0896 -0.2954  0.0500
36961SOL     OW17932   2.062  11.769   5.436 -0.1853 -0.6230 -0.0695
36961SOL    HW117933   1.988  11.711   5.454  0.1652 -0.3119  2.7722
36961SOL    HW217934   2.135  11.730   5.483  0.9909  0.1455 -1.1923
36962SOL     OW17935   6.929  11.727   2.226 -0.1458 -0.2112 -0.1650
36962SOL    HW117936   6.972  11.749   2.308 -1.3232  1.8428 -0.0309
36962SOL    HW217937   6.977  11.776   2.159  0.9417 -2.0315 -0.8032
36963SOL     OW17938   4.103   4.046   4.919 -0.1598  0.1513 -0.0017
36963SOL    HW117939   4.043   4.114   4.948 -1.2639  0.0586 -1.8846
36963SOL    HW217940   4.055   3.964   4.931  0.3234 -0.1038  0.2253
36964SOL     OW17941   5.137   2.204   2.695 -0.7671  0.0587 -0.0188
36964SOL    HW117942   5.140   2.253   2.612 -2.3670  0.5023  0.1512
36964SOL    HW217943   5.092   2.122   2.672  0.7169 -0.7859 -0.0186
36965SOL     OW17944   2.827  10.511   6.719  0.0070  0.3700  0.6110
36965SOL    HW117945   2.800  10.522   6.810  1.6051  0.0473  1.1511
36965SOL    HW217946   2.863  10.422   6.715  1.5590  0.9899  0.1093
36966SOL     OW17947  12.535  11.289  11.430 -0.0957 -0.1336 -0.1770
36966SOL    HW117948  12.609  11.283  11.490  1.1149 -3.0109 -1.7318
36966SOL    HW217949  12.571  11.327  11.351 -0.5462 -0.5061 -0.5678
36967SOL     OW17950  11.969   5.790   7.889 -0.2018 -0.1236 -0.1775
36967SOL    HW117951  11.892   5.824   7.843  1.1085  0.6165 -1.9595
36967SOL    HW217952  11.963   5.827   7.977 -0.9854  1.3528 -0.8142
36968SOL     OW17953   3.202  11.847   7.171 -0.0641  0.2789  0.1226
36968SOL    HW117954   3.229  11.839   7.262  0.4095  0.7368  0.0351
36968SOL    HW217955   3.143  11.923   7.170 -0.4182  0.0040  0.1200
36969SOL     OW17956   0.234   3.039   0.235 -0.3537 -0.2831  0.3195
36969SOL    HW117957   0.324   3.071   0.241 -0.6858  0.9395 -0.6310
36969SOL    HW217958   0.217   2.997   0.319  0.9602 -0.1519  0.6717
36970SOL     OW17959   5.289   8.811   4.262 -0.6662  0.9039 -0.4911
36970SOL    HW117960   5.198   8.788   4.245 -0.6309 -0.9722  1.4790
36970SOL    HW217961   5.305   8.889   4.208 -3.1383  0.7348 -1.5661
36971SOL     OW17962  12.575   4.419   9.265  0.4945 -0.2789  0.2219
36971SOL    HW117963  12.647   4.452   9.319  0.9056  0.3273 -0.6570
36971SOL    HW217964  12.503   4.404   9.326  0.8528  0.6580  0.8943
36972SOL     OW17965   1.807  11.796   3.461 -0.2367 -0.4621 -0.7927
36972SOL    HW117966   1.819  11.708   3.498 -0.8044 -0.1200  0.2386
36972SOL    HW217967   1.713  11.813   3.471 -0.0658  0.4212 -0.6464
36973SOL     OW17968   5.510  12.378   2.106 -0.5201 -0.0521  0.3096
36973SOL    HW117969   5.541  12.468   2.120 -0.0006 -0.3513  1.1160
36973SOL    HW217970   5.489  12.346   2.193  0.0262 -0.9871  0.1033
36974SOL     OW17971   9.804   2.418   8.644 -0.4332 -0.1137  0.0902
36974SOL    HW117972   9.878   2.452   8.593  0.1304  0.3426  1.1883
36974SOL    HW217973   9.812   2.323   8.636  0.9295 -0.1104  1.0790
36975SOL     OW17974   4.787   9.247   9.524  0.1071  0.5745  0.5849
36975SOL    HW117975   4.723   9.254   9.454  0.3314  1.3966  0.4539
36975SOL    HW217976   4.812   9.337   9.543  2.8581  0.2195 -0.8655
36976SOL     OW17977   8.636  11.455   7.612 -0.4383 -0.2359 -0.2518
36976SOL    HW117978   8.731  11.465   7.609 -0.3317 -1.0391  0.2562
36976SOL    HW217979   8.613  11.473   7.703 -0.5195 -2.0341  0.1211
36977SOL     OW17980   3.511   4.696   3.849 -0.0671 -0.3673 -0.1697
36977SOL    HW117981   3.425   4.685   3.890  0.3288 -0.1276  0.7400
36977SOL    HW217982   3.496   4.762   3.781 -0.5272 -0.0554  0.2257
36978SOL     OW17983  10.550   5.543   3.774 -0.4552  0.0503 -1.0277
36978SOL    HW117984  10.484   5.508   3.834 -2.9959 -0.3365 -3.8075
36978SOL    HW217985  10.592   5.465   3.738  1.5996  0.2959  0.6443
36979SOL     OW17986  10.701   5.020  12.075  0.0539 -0.0087  0.1623
36979SOL    HW117987  10.641   5.007  12.148  0.2411 -1.8681  0.0258
36979SOL    HW217988  10.766   4.951  12.085 -0.1983 -0.6240 -2.0519
36980SOL     OW17989   8.578   9.886   3.109  0.3440 -0.3083  0.2593
36980SOL    HW117990   8.532   9.935   3.042  1.8032 -0.2734 -0.7754
36980SOL    HW217991   8.544   9.919   3.192 -1.1913 -0.0615 -0.4487
36981SOL     OW17992   7.746   6.831   4.360 -0.3174  0.1814  0.0159
36981SOL    HW117993   7.729   6.745   4.322 -0.5548  0.1853  0.1093
36981SOL    HW217994   7.671   6.847   4.418 -0.5242  0.6593 -0.3714
36982SOL     OW17995   5.822   8.000  11.143 -0.0688  0.9320  0.0977
36982SOL    HW117996   5.809   7.987  11.237  0.3415  0.1234  0.0559
36982SOL    HW217997   5.818   8.094  11.130  0.0811  1.0595  0.9612
36983SOL     OW17998   1.396   6.112   6.034 -0.3446  0.9632  0.0945
36983SOL    HW117999   1.337   6.076   5.967 -2.8519  1.4463  1.9038
36983SOL    HW218000   1.405   6.204   6.010 -0.1720  0.8437 -0.3051
36984SOL     OW18001  11.210   9.410  11.571 -0.2231 -0.0865 -0.1962
36984SOL    HW118002  11.274   9.461  11.521 -0.9818 -0.1861 -1.3165
36984SOL    HW218003  11.175   9.348  11.507 -3.0568  1.4244 -0.2468
36985SOL     OW18004  10.898   2.765   7.318  0.0034  0.2583  0.3584
36985SOL    HW118005  10.917   2.690   7.375  0.3507 -0.6018 -0.8395
36985SOL    HW218006  10.815   2.742   7.276  0.6559  0.0008 -0.8429
36986SOL     OW18007   9.450  12.187   4.449  0.2279  0.1481 -0.0972
36986SOL    HW118008   9.367  12.139   4.443  0.6589 -0.4491 -1.9577
36986SOL    HW218009   9.436  12.265   4.395  0.6806  0.3164  0.0302
36987SOL     OW18010   2.080   7.376   3.097  0.3874  0.1697 -0.3896
36987SOL    HW118011   2.171   7.395   3.121  0.4816 -1.3411  0.5955
36987SOL    HW218012   2.027   7.417   3.165  0.5840 -2.6850  1.6578
36988SOL     OW18013   9.106   3.477   6.977 -0.1604 -0.1955  0.1203
36988SOL    HW118014   9.178   3.507   7.033 -0.7026 -1.7150  1.7245
36988SOL    HW218015   9.127   3.387   6.956 -1.3223 -0.5061  0.1944
36989SOL     OW18016   5.971  10.825  10.517  0.0287  0.5086  0.0533
36989SOL    HW118017   6.054  10.873  10.517  0.4345 -0.1700 -0.7017
36989SOL    HW218018   5.967  10.783  10.603  1.2590 -0.7794 -0.4977
36990SOL     OW18019   5.953   7.049   3.249  0.6167  0.6985  0.4267
36990SOL    HW118020   5.992   7.042   3.162  0.0269  2.1639  0.0246
36990SOL    HW218021   5.916   7.137   3.253 -0.9388  0.0580  1.4991
36991SOL     OW18022   3.354   9.930   2.509  0.1644  0.0946 -0.0090
36991SOL    HW118023   3.342   9.957   2.418  1.5238  1.1314  0.0858
36991SOL    HW218024   3.448   9.937   2.524 -0.2016  1.7138  1.9930
36992SOL     OW18025   6.949   1.437   1.636 -0.2686  0.5674 -0.1017
36992SOL    HW118026   6.976   1.519   1.676 -1.6684  0.6924  0.6276
36992SOL    HW218027   6.889   1.462   1.567  2.1986  0.3624 -2.5068
36993SOL     OW18028   0.854   5.791   6.772 -0.2338  0.0700 -0.6469
36993SOL    HW118029   0.824   5.700   6.776 -1.0986  0.3209 -1.1247
36993SOL    HW218030   0.859   5.819   6.863 -2.3189  0.2624 -0.5252
36994SOL     OW18031  10.093   5.873   1.671 -0.4092 -0.0569 -0.4618
36994SOL    HW118032  10.057   5.786   1.691 -0.6333  0.8109  3.6389
36994SOL    HW218033  10.186   5.857   1.656 -0.7017 -1.1385 -1.2938
36995SOL     OW18034   4.028   4.385   3.028 -0.5941  0.4677  0.3419
36995SOL    HW118035   4.121   4.378   3.051 -0.5565  0.2226  0.1219
36995SOL    HW218036   3.986   4.412   3.109 -0.5846 -1.2553  0.9713
36996SOL     OW18037   5.122   0.865   2.166 -0.0888 -0.5858 -0.3713
36996SOL    HW118038   5.144   0.785   2.116  0.2668 -0.5870 -0.2083
36996SOL    HW218039   5.202   0.888   2.211  0.3356  0.8707 -1.7815
36997SOL     OW18040  10.527   5.616  12.004 -0.3490 -0.0980  0.0680
36997SOL    HW118041  10.513   5.670  12.081  0.5735  0.7217 -0.3281
36997SOL    HW218042  10.622   5.607  11.997 -0.4221 -0.2097 -0.9359
36998SOL     OW18043   7.430   2.243   7.548  0.5780 -0.3197  0.3660
36998SOL    HW118044   7.513   2.290   7.538  0.6354 -0.6449 -0.9438
36998SOL    HW218045   7.450   2.154   7.517 -0.3960 -0.2325 -0.5631
36999SOL     OW18046   9.549   6.040   8.698 -0.3077  0.1751  0.0444
36999SOL    HW118047   9.475   6.101   8.690 -0.3568 -0.0034 -1.0130
36999SOL    HW218048   9.597   6.050   8.616 -0.1509 -0.9999 -0.0170
37000SOL     OW18049   0.035   3.534   1.516 -0.1182  0.5702 -0.1136
37000SOL    HW118050   0.048   3.478   1.592 -0.9143  0.4295 -0.0698
37000SOL    HW218051   0.026   3.622   1.552 -0.2771  0.5317 -0.0558
37001SOL     OW18052   0.422   5.132   6.763  0.1499 -0.3661  0.1311
37001SOL    HW118053   0.414   5.168   6.851 -0.1005  0.5215 -0.2451
37001SOL    HW218054   0.512   5.099   6.759  0.2706 -0.1046  0.6069
37002SOL     OW18055   5.466   6.037   5.271 -0.1241 -0.0861 -0.5767
37002SOL    HW118056   5.540   6.003   5.221 -0.6340  0.0829 -1.4770
37002SOL    HW218057   5.389   6.000   5.228 -0.5372 -1.4793  1.2786
37003SOL     OW18058   9.186   3.682   4.923 -0.0037  0.0620 -0.1550
37003SOL    HW118059   9.217   3.639   5.003 -0.7056  0.4776  0.3511
37003SOL    HW218060   9.138   3.759   4.954 -1.6996 -0.6418 -0.8883
37004SOL     OW18061   4.537   4.400  10.866 -0.1951 -0.4555 -0.1310
37004SOL    HW118062   4.477   4.391  10.792 -0.9749 -0.1756  0.4500
37004SOL    HW218063   4.481   4.424  10.939  0.8059  1.2648  0.1136
37005SOL     OW18064   7.824   9.800   1.361 -0.4850 -0.4468  0.3225
37005SOL    HW118065   7.791   9.739   1.294  0.0774 -1.2265  0.7358
37005SOL    HW218066   7.901   9.756   1.397  0.6397  1.0191 -0.1627
37006SOL     OW18067   6.231   3.197   5.938 -0.3181  0.2093 -0.2306
37006SOL    HW118068   6.272   3.135   5.878 -0.5387 -0.1517 -0.0100
37006SOL    HW218069   6.273   3.281   5.918  1.5538 -0.3804  0.9543
37007SOL     OW18070   2.963  11.101   7.341 -0.2849  0.1363 -0.0692
37007SOL    HW118071   3.021  11.124   7.268  0.5231 -1.1614  0.1378
37007SOL    HW218072   2.907  11.178   7.352  0.3651  0.8149 -1.2854
37008SOL     OW18073   1.298   4.617   0.892 -0.2605  0.0280 -0.3446
37008SOL    HW118074   1.386   4.584   0.873  0.0726  0.4659  0.4040
37008SOL    HW218075   1.313   4.703   0.933 -0.8511 -1.2053  2.7528
37009SOL     OW18076   3.770  11.887   4.026 -0.0932  0.3391  0.5694
37009SOL    HW118077   3.779  11.853   4.115  0.4865  0.0894  0.4183
37009SOL    HW218078   3.787  11.981   4.035 -0.9595  0.4849  0.8627
37010SOL     OW18079   8.447  10.407   1.684 -0.2328 -0.1470 -0.1302
37010SOL    HW118080   8.543  10.414   1.683 -0.2076 -0.2982 -1.7932
37010SOL    HW218081   8.420  10.441   1.598 -1.7074  0.2419  0.4560
37011SOL     OW18082   6.839  10.287   5.285 -0.3976 -0.0207 -0.4665
37011SOL    HW118083   6.875  10.213   5.237  0.1429 -0.3510  0.4268
37011SOL    HW218084   6.782  10.248   5.351 -1.3349  0.4403 -0.9949
37012SOL     OW18085   1.625   9.098   4.204 -0.1021  0.0282 -0.3816
37012SOL    HW118086   1.553   9.102   4.142  1.8924 -0.9490 -2.9571
37012SOL    HW218087   1.627   9.007   4.234 -0.1306  0.1321 -0.0584
37013SOL     OW18088   4.155  11.596   3.631 -0.8598 -0.5228 -0.0502
37013SOL    HW118089   4.229  11.655   3.615 -1.0706 -0.2379  0.0216
37013SOL    HW218090   4.081  11.654   3.649 -1.3428 -0.7737 -1.1484
37014SOL     OW18091   8.565   5.847   0.235 -0.0472 -0.1461 -0.6937
37014SOL    HW118092   8.532   5.935   0.256  1.0845  0.5097 -1.5642
37014SOL    HW218093   8.487   5.795   0.219 -0.7902  0.4188  0.8363
37015SOL     OW18094  10.592   5.801  11.716 -0.1140  0.0374 -0.3538
37015SOL    HW118095  10.521   5.766  11.770  0.2668  0.8397  0.7033
37015SOL    HW218096  10.551   5.871  11.666 -0.2044  0.0809 -0.2201
37016SOL     OW18097   9.992   1.895   7.442 -0.5387 -0.2955  0.3147
37016SOL    HW118098   9.953   1.819   7.485 -1.5959  0.4393  0.7087
37016SOL    HW218099   9.922   1.960   7.442  0.3439  0.6754 -0.0178
37017SOL     OW18100   6.724  12.377   6.059 -0.0526  0.5111 -0.1606
37017SOL    HW118101   6.680  12.442   6.114 -1.5915  0.4061 -1.1922
37017SOL    HW218102   6.764  12.429   5.989 -1.8004  0.3766 -1.3298
37018SOL     OW18103  11.517   9.983   8.180  0.3481 -0.3618 -0.2775
37018SOL    HW118104  11.601  10.004   8.139  0.0920 -0.0835 -0.6649
37018SOL    HW218105  11.515  10.035   8.260  0.9070 -1.0060  0.1679
37019SOL     OW18106   8.945   4.221   4.243 -0.2762 -0.2828  0.4296
37019SOL    HW118107   8.942   4.126   4.259  1.2579 -0.3664  0.3120
37019SOL    HW218108   8.951   4.229   4.148  1.8723 -0.1782  0.5302
37020SOL     OW18109  12.515   8.406   8.225 -0.3309 -0.1996 -1.0109
37020SOL    HW118110  12.608   8.425   8.226 -0.6853  1.8570  0.8196
37020SOL    HW218111  12.487   8.428   8.136  0.7513  0.1702 -1.2766
37021SOL     OW18112   1.392   9.657  10.620  0.2208  0.3460 -0.3255
37021SOL    HW118113   1.422   9.713  10.549  0.2740  0.8367  0.0817
37021SOL    HW218114   1.347   9.716  10.681 -0.7543 -0.2283 -0.4619
37022SOL     OW18115   5.710   3.899   1.988 -0.0713 -0.0388 -0.1216
37022SOL    HW118116   5.719   3.989   1.956  2.3134 -0.0596  0.3114
37022SOL    HW218117   5.704   3.909   2.083  0.2785 -0.3449 -0.0675
37023SOL     OW18118   9.244   6.519   8.663  0.0730 -0.2197 -0.6029
37023SOL    HW118119   9.323   6.519   8.717  1.1229 -0.7179 -2.0900
37023SOL    HW218120   9.251   6.599   8.611 -1.3861  0.7360  0.5618
37024SOL     OW18121  12.301   9.201   6.026  0.5073  0.3194  0.1362
37024SOL    HW118122  12.360   9.143   5.977  0.2301  0.4578 -0.3702
37024SOL    HW218123  12.293   9.279   5.971 -0.7445 -0.0064 -0.1779
37025SOL     OW18124  11.380   2.322   4.565 -0.1779  0.9715  0.0891
37025SOL    HW118125  11.287   2.325   4.541  0.2951 -0.3904 -2.2677
37025SOL    HW218126  11.381   2.297   4.657 -2.1301  0.7486  0.0947
37026SOL     OW18127   1.704   8.760   8.871 -0.0018  0.3342  0.4575
37026SOL    HW118128   1.657   8.716   8.800  1.4161 -0.9752  0.2637
37026SOL    HW218129   1.682   8.852   8.861  0.3620  0.2420 -1.8779
37027SOL     OW18130   6.508   3.332   6.039 -0.0409 -0.1324 -0.5682
37027SOL    HW118131   6.587   3.357   6.087 -0.8989  0.1583  0.7602
37027SOL    HW218132   6.537   3.268   5.975  1.5871  1.3407 -1.4026
37028SOL     OW18133   5.534   4.439   6.419 -0.6287 -0.5346  0.1318
37028SOL    HW118134   5.471   4.417   6.487 -0.9789 -2.1205 -0.6596
37028SOL    HW218135   5.488   4.422   6.337 -0.0846  0.9609 -0.5343
37029SOL     OW18136   6.301   8.635   1.156  0.4928 -0.2396  0.1562
37029SOL    HW118137   6.351   8.715   1.172 -1.8049  1.2681  0.2771
37029SOL    HW218138   6.224   8.664   1.108 -0.2543 -2.4617 -0.1138
37030SOL     OW18139   7.106   5.809  12.348 -0.0142  0.4997 -0.0259
37030SOL    HW118140   7.064   5.762  12.420  1.3658 -1.5969 -0.4879
37030SOL    HW218141   7.034   5.840  12.294 -1.0151 -0.2059  0.8575
37031SOL     OW18142   9.386   1.081   7.924  0.2663  0.2338 -0.6408
37031SOL    HW118143   9.336   1.161   7.941 -1.5886 -1.0554  0.3806
37031SOL    HW218144   9.338   1.038   7.853  0.7954 -0.3297 -0.6635
37032SOL     OW18145   1.454   6.026   1.171 -0.0051 -0.3071 -0.0565
37032SOL    HW118146   1.429   6.087   1.240  1.3496  0.2472 -0.0082
37032SOL    HW218147   1.418   5.941   1.198  1.6097 -0.3987  2.0605
37033SOL     OW18148   2.709   3.716   0.043 -0.5010 -0.2436  0.4654
37033SOL    HW118149   2.740   3.694   0.131  2.0155  0.2525 -0.2104
37033SOL    HW218150   2.693   3.811   0.047  1.8982  0.2482 -0.1514
37034SOL     OW18151   5.615  10.840   0.444  0.2076 -0.8648 -0.8140
37034SOL    HW118152   5.651  10.818   0.529 -0.7766  1.9491  0.4578
37034SOL    HW218153   5.674  10.908   0.410 -1.7043  1.1579 -0.3265
37035SOL     OW18154   8.132   6.610  12.398 -0.2746  0.4227 -0.1209
37035SOL    HW118155   8.105   6.668  12.469 -1.7139 -1.2133  0.7307
37035SOL    HW218156   8.054   6.561  12.376  0.8464 -1.0539 -0.9469
37036SOL     OW18157   1.067   8.202   5.800  0.2817  0.0417  0.3296
37036SOL    HW118158   1.006   8.270   5.771  0.5953  1.0943  1.9859
37036SOL    HW218159   1.047   8.190   5.892  2.4394  0.3089  0.8940
37037SOL     OW18160   4.636  10.875   9.507  0.5017 -0.2493 -0.1057
37037SOL    HW118161   4.666  10.844   9.422 -3.7036  0.1821 -2.0136
37037SOL    HW218162   4.549  10.836   9.517  0.7333 -0.1239  4.0009
37038SOL     OW18163  11.661   0.255   1.744  0.4443  0.4556 -0.3938
37038SOL    HW118164  11.626   0.252   1.833  1.8770 -1.0019  0.1568
37038SOL    HW218165  11.672   0.348   1.726  0.4322  0.7675  1.0826
37039SOL     OW18166   1.127   1.240   4.559 -0.7711 -0.2083 -0.0672
37039SOL    HW118167   1.189   1.187   4.511  0.0455 -0.3086  1.0699
37039SOL    HW218168   1.174   1.322   4.577 -0.4627 -0.7898  1.9486
37040SOL     OW18169  11.456  10.962   4.154  0.3775 -0.8551  0.4521
37040SOL    HW118170  11.407  10.880   4.159 -1.6818  0.2508 -0.4765
37040SOL    HW218171  11.440  11.005   4.237 -1.3563  0.0492 -0.2920
37041SOL     OW18172   8.859  12.219   7.852  1.0055 -0.6049  0.0687
37041SOL    HW118173   8.922  12.215   7.924  0.3416  0.9943  0.7648
37041SOL    HW218174   8.877  12.302   7.809 -1.8577  0.8394  1.4736
37042SOL     OW18175   5.509   5.509   2.649  0.2523 -0.5843  0.6022
37042SOL    HW118176   5.586   5.562   2.631  0.1411 -0.4244  0.5915
37042SOL    HW218177   5.508   5.444   2.579  0.4357 -0.6534  0.6638
37043SOL     OW18178   6.669   1.922   0.157 -0.3314 -0.4024 -0.7970
37043SOL    HW118179   6.682   1.964   0.243 -2.4314 -0.6469 -0.3031
37043SOL    HW218180   6.705   1.835   0.168  1.1253  0.1785 -0.7868
37044SOL     OW18181   7.137   3.508   6.519  0.9321  0.0202 -0.3048
37044SOL    HW118182   7.219   3.539   6.559  1.4049 -0.1167 -1.1284
37044SOL    HW218183   7.069   3.534   6.581  1.6020  0.0938  0.4240
37045SOL     OW18184   8.011   7.553   4.624 -0.0298  0.2327  0.0496
37045SOL    HW118185   7.925   7.542   4.664  0.3476  0.6477  1.0007
37045SOL    HW218186   8.066   7.486   4.664 -0.2447 -1.0105 -1.6334
37046SOL     OW18187   0.214   4.931   6.090  0.6394 -0.1798 -0.2151
37046SOL    HW118188   0.242   4.878   6.016 -1.4840  0.3611 -1.4723
37046SOL    HW218189   0.291   4.935   6.147  1.8936 -1.7516 -1.7063
37047SOL     OW18190   1.328   1.191   1.631 -0.4196  0.4225 -0.8166
37047SOL    HW118191   1.322   1.148   1.545 -2.5726 -2.3937  0.5657
37047SOL    HW218192   1.250   1.245   1.636 -0.8402 -0.2078 -0.3085
37048SOL     OW18193   8.047   5.391   9.197 -0.0694 -0.0561  0.1114
37048SOL    HW118194   8.091   5.465   9.238 -0.4972 -0.1218  0.7004
37048SOL    HW218195   8.115   5.351   9.142  0.6231 -0.1595  1.0081
37049SOL     OW18196   4.264  10.972   9.985 -0.1749 -0.4417 -0.3729
37049SOL    HW118197   4.246  10.975  10.079  1.9534  0.3060  0.0734
37049SOL    HW218198   4.358  10.993   9.978 -0.7881  2.1183 -2.8305
37050SOL     OW18199   7.673   4.521   8.484  0.0152 -0.7698 -0.1924
37050SOL    HW118200   7.599   4.502   8.426 -0.6262 -0.6889  0.5895
37050SOL    HW218201   7.750   4.510   8.428 -0.5043 -2.1539 -0.6910
37051SOL     OW18202   2.206   0.639   0.652 -0.1059 -0.0906 -0.3996
37051SOL    HW118203   2.165   0.708   0.705  1.6658  1.3097 -0.7376
37051SOL    HW218204   2.287   0.618   0.698  1.4850  1.1577 -2.4430
37052SOL     OW18205   0.301  12.193   6.703 -0.4048  0.1903  0.3546
37052SOL    HW118206   0.391  12.220   6.685  0.0295 -0.1579  1.8490
37052SOL    HW218207   0.309  12.117   6.761 -1.6527 -0.8555 -0.7628
37053SOL     OW18208   7.673   1.802  12.225  0.0357  0.2184  0.5690
37053SOL    HW118209   7.681   1.884  12.177 -1.6250 -0.7971 -1.6380
37053SOL    HW218210   7.682   1.734  12.158  0.2423 -1.3847  2.1431
37054SOL     OW18211   0.739   7.350   2.955  0.3384  0.7116  0.2459
37054SOL    HW118212   0.656   7.391   2.977  0.8812  1.6765  0.5158
37054SOL    HW218213   0.736   7.265   2.999 -2.1882 -1.0884 -2.9417
37055SOL     OW18214  11.822   4.477   5.053  0.5001  0.0662 -0.3475
37055SOL    HW118215  11.751   4.491   5.116  0.4657 -1.8740  0.1152
37055SOL    HW218216  11.799   4.394   5.010  1.9497 -0.0391 -0.9623
37056SOL     OW18217   8.327   7.529   2.741 -0.7504 -0.1997 -0.1121
37056SOL    HW118218   8.364   7.519   2.829 -0.0976  2.0970 -0.0626
37056SOL    HW218219   8.247   7.581   2.754 -1.9443 -1.8183 -0.6630
37057SOL     OW18220   1.281   3.813   7.642  0.5736  0.0924  0.0440
37057SOL    HW118221   1.274   3.792   7.549  1.4089 -1.5178  0.3231
37057SOL    HW218222   1.192   3.839   7.667 -0.8159 -3.7914 -0.2145
37058SOL     OW18223  12.151   4.326   6.040  0.4872 -0.0044  0.7675
37058SOL    HW118224  12.151   4.418   6.066 -1.2787  0.5264 -0.8971
37058SOL    HW218225  12.216   4.320   5.970  1.5321 -0.3392  1.7340
37059SOL     OW18226   4.371   1.541   1.186 -0.2272 -0.2380  0.2015
37059SOL    HW118227   4.314   1.605   1.143  2.1561  0.6755 -1.8838
37059SOL    HW218228   4.346   1.457   1.148  0.9023  0.3820 -2.0629
37060SOL     OW18229   6.507   0.930   7.855 -0.4096 -0.0049  0.2842
37060SOL    HW118230   6.496   0.987   7.931 -1.8250 -0.4347  0.4370
37060SOL    HW218231   6.431   0.872   7.858 -0.7120  0.2271 -1.6714
37061SOL     OW18232   8.966   9.954   8.884 -0.5712 -0.3818  0.0948
37061SOL    HW118233   8.906   9.894   8.929 -0.2860 -0.3557  0.5210
37061SOL    HW218234   8.953  10.038   8.928 -0.6279 -0.2424 -0.1867
37062SOL     OW18235  10.562  11.198   0.858  0.0216  0.1616 -0.2627
37062SOL    HW118236  10.557  11.239   0.944 -0.5650 -1.6402  0.6148
37062SOL    HW218237  10.569  11.104   0.877 -0.2146 -0.2750 -2.1791
37063SOL     OW18238  11.004   6.209  11.618  0.1254 -0.4181 -0.1245
37063SOL    HW118239  10.986   6.159  11.538 -1.5650  0.2174 -0.1815
37063SOL    HW218240  11.042   6.291  11.586  1.0470 -0.8426 -0.1500
37064SOL     OW18241  12.399   1.560   0.381  0.1112 -0.2662  0.0852
37064SOL    HW118242  12.412   1.492   0.316  2.1328 -0.6507  0.8382
37064SOL    HW218243  12.343   1.520   0.447  0.1394 -0.7069 -0.1564
37065SOL     OW18244   8.389   8.387  12.537 -0.0478 -0.5554 -0.0405
37065SOL    HW118245   8.424   8.464  12.492  0.0074 -0.5122  0.0731
37065SOL    HW218246   8.294   8.400  12.536 -0.0891 -0.9053 -0.7608
37066SOL     OW18247   0.192  12.462   4.738  0.0600  0.2083 -0.2094
37066SOL    HW118248   0.218  12.423   4.655 -1.7723 -0.0710 -0.7072
37066SOL    HW218249   0.167  12.552   4.715  1.0026  0.6281  0.3347
37067SOL     OW18250   5.273   1.359   2.109  0.0422  0.1568 -0.0730
37067SOL    HW118251   5.341   1.294   2.125  0.0681 -0.0178 -0.8290
37067SOL    HW218252   5.308   1.440   2.146 -0.2803 -0.3827  1.4910
37068SOL     OW18253   3.138   2.285   1.550  0.8544 -0.1985  0.4068
37068SOL    HW118254   3.195   2.359   1.527  0.7997  0.4462  2.1485
37068SOL    HW218255   3.140   2.228   1.474  1.1524  1.4482 -0.8747
37069SOL     OW18256   2.341   3.405   5.531 -0.1094 -0.2690 -0.3948
37069SOL    HW118257   2.290   3.325   5.518 -1.3653  0.5070 -0.4069
37069SOL    HW218258   2.424   3.375   5.567  0.2795 -1.7519 -2.3785
37070SOL     OW18259   1.857   9.975   9.549  0.4440 -0.1079  0.6192
37070SOL    HW118260   1.918   9.953   9.478  0.3240 -0.6399  0.6757
37070SOL    HW218261   1.858   9.898   9.606  0.3251  0.2030  1.0452
37071SOL     OW18262   3.789   9.132   0.227  0.2391  0.5968 -0.1918
37071SOL    HW118263   3.807   9.105   0.137 -0.5583 -0.8090  0.0476
37071SOL    HW218264   3.694   9.126   0.236  0.3331  0.4511  0.8274
37072SOL     OW18265   8.274   5.552   0.594  0.4609 -0.1968 -0.0991
37072SOL    HW118266   8.181   5.548   0.616  0.3599  1.2288 -0.1251
37072SOL    HW218267   8.312   5.476   0.637 -0.6891 -0.7016  0.0644
37073SOL     OW18268  11.249  12.131   2.402  1.5471 -0.7624  0.2617
37073SOL    HW118269  11.319  12.070   2.377  1.9000 -0.1562 -0.2767
37073SOL    HW218270  11.295  12.206   2.439  1.3862  0.6626 -2.2110
37074SOL     OW18271   2.013  11.114  12.107 -0.0549 -0.3298 -0.5164
37074SOL    HW118272   1.971  11.193  12.140  0.8558  0.3630 -0.9497
37074SOL    HW218273   1.984  11.107  12.016  2.0448  1.1522 -1.3876
37075SOL     OW18274   5.531  12.347  10.223 -0.1152  1.1067  0.5892
37075SOL    HW118275   5.535  12.258  10.189 -1.6979  1.0716  0.4131
37075SOL    HW218276   5.550  12.403  10.148  2.0860  0.9333  0.9573
37076SOL     OW18277  12.348   7.474  10.685 -0.1265 -0.1987  0.8991
37076SOL    HW118278  12.261   7.489  10.724 -1.0167 -0.2641 -0.9473
37076SOL    HW218279  12.358   7.544  10.621 -0.7530 -2.5297 -1.9717
37077SOL     OW18280   2.647   8.477   0.995  0.0087  0.2878 -0.2237
37077SOL    HW118281   2.726   8.473   1.048  0.1147 -1.3222 -0.4508
37077SOL    HW218282   2.675   8.518   0.913 -0.1427  2.7335  0.8700
37078SOL     OW18283  10.077   1.124   9.848 -0.1136 -0.0355 -0.7069
37078SOL    HW118284  10.163   1.144   9.811 -0.9101  0.4867 -2.3595
37078SOL    HW218285  10.096   1.069   9.925  1.8092  2.0683  0.4520
37079SOL     OW18286   5.124   1.079   9.064  0.6170 -0.5237 -0.2799
37079SOL    HW118287   5.097   0.998   9.106 -0.4629 -0.1051 -0.1516
37079SOL    HW218288   5.149   1.137   9.136 -0.1118 -0.2125 -0.2662
37080SOL     OW18289  10.803   8.369   9.605 -0.0725  0.2629 -1.0255
37080SOL    HW118290  10.741   8.302   9.633 -0.8031  0.1189 -2.8093
37080SOL    HW218291  10.821   8.348   9.513  0.3779  1.9829 -1.3659
37081SOL     OW18292   1.549   1.454   0.657 -0.0677 -0.2650 -0.2135
37081SOL    HW118293   1.476   1.513   0.637 -0.6597 -0.9470 -0.1368
37081SOL    HW218294   1.620   1.511   0.685 -1.3674  0.3187  2.1582
37082SOL     OW18295  12.168  10.967   8.450 -0.7635  0.2234  0.1371
37082SOL    HW118296  12.243  10.937   8.501 -0.9831  0.9064  0.8737
37082SOL    HW218297  12.196  11.049   8.410 -0.5509 -0.3654 -0.9648
37083SOL     OW18298   7.393   9.742   4.787  0.2623 -0.3061  0.1524
37083SOL    HW118299   7.398   9.689   4.867  1.8633 -2.8565 -1.4813
37083SOL    HW218300   7.405   9.679   4.716 -1.0000  1.8676 -2.1415
37084SOL     OW18301   5.528   6.275   4.235  0.9129  0.3108 -0.0325
37084SOL    HW118302   5.500   6.345   4.294  0.1076  0.8933 -1.0665
37084SOL    HW218303   5.614   6.302   4.204  0.3988  1.1341 -0.8157
37085SOL     OW18304   0.741   9.795  10.260  0.4439 -0.2242  0.5258
37085SOL    HW118305   0.672   9.825  10.320 -0.3770 -1.7875  0.4278
37085SOL    HW218306   0.778   9.875  10.224 -1.9560  0.6885 -0.1321
37086SOL     OW18307   6.990   3.691   0.742  0.5421  0.7055  0.1157
37086SOL    HW118308   6.987   3.661   0.832  0.3751 -0.2978 -0.2086
37086SOL    HW218309   6.905   3.733   0.727 -0.5815 -1.6102 -0.3816
37087SOL     OW18310   7.987  11.038   4.756  0.0978 -0.2083  0.3429
37087SOL    HW118311   7.892  11.035   4.767  0.1847 -1.5264  0.9333
37087SOL    HW218312   8.020  10.970   4.815  1.3680 -0.1238 -0.2408
37088SOL     OW18313   1.399   7.548   7.512 -0.7284 -0.2138  0.5272
37088SOL    HW118314   1.394   7.506   7.426 -2.8258 -0.2792  0.6429
37088SOL    HW218315   1.484   7.592   7.512 -1.0577  0.5797 -1.9610
37089SOL     OW18316   9.602   8.468   4.212  0.1488  0.4822 -0.2693
37089SOL    HW118317   9.589   8.476   4.307 -0.5128  1.2417 -0.4135
37089SOL    HW218318   9.570   8.551   4.176  1.2221  0.5601 -1.0854
37090SOL     OW18319   6.119  11.605   8.966  0.1213  0.5928 -0.6351
37090SOL    HW118320   6.149  11.665   8.897  1.9517  0.0141 -0.3950
37090SOL    HW218321   6.197  11.555   8.990 -0.5962  0.4083  1.4977
37091SOL     OW18322   1.994   7.517   7.870  0.0303 -0.1121  0.3847
37091SOL    HW118323   1.935   7.468   7.927  1.0801 -0.0999  1.5318
37091SOL    HW218324   2.060   7.453   7.843 -1.4631 -0.6033 -2.3946
37092SOL     OW18325   1.709   8.591   6.223  0.6384  0.0094 -0.3325
37092SOL    HW118326   1.685   8.670   6.174  1.5500 -0.2150 -1.1634
37092SOL    HW218327   1.684   8.611   6.313  1.1829  1.3982 -0.4598
37093SOL     OW18328   1.039  10.622   5.967  0.2753 -0.0878  0.0218
37093SOL    HW118329   0.966  10.623   6.029  0.2959 -0.0262  0.0448
37093SOL    HW218330   1.006  10.570   5.893 -0.2243  0.8927 -0.4731
37094SOL     OW18331   5.597   1.317   7.326 -0.2576  0.2955 -0.6843
37094SOL    HW118332   5.660   1.282   7.264 -1.4849  0.4809 -2.0800
37094SOL    HW218333   5.513   1.281   7.299 -1.1590  2.1165 -0.5000
37095SOL     OW18334   5.871   8.606   0.154  0.9683  0.7548  0.2398
37095SOL    HW118335   5.843   8.573   0.240  2.0011  0.2274  0.3932
37095SOL    HW218336   5.926   8.682   0.173  0.9196  0.8455  0.0274
37096SOL     OW18337   9.800   8.091  10.882  0.2282  0.3636 -0.1684
37096SOL    HW118338   9.879   8.126  10.840 -0.6681  3.3591  0.4513
37096SOL    HW218339   9.824   8.082  10.974  0.1583  0.2303 -0.1631
37097SOL     OW18340   8.070   6.210  12.555  0.1068  0.4844 -0.3202
37097SOL    HW118341   8.056   6.123  12.593  0.1538  0.3283 -0.6506
37097SOL    HW218342   8.097   6.192  12.465 -1.3612  0.8567 -0.8678
37098SOL     OW18343   9.047   2.190   4.741 -0.2055 -1.3813 -0.5339
37098SOL    HW118344   9.050   2.260   4.675  3.4917 -1.3650 -0.5570
37098SOL    HW218345   9.074   2.111   4.692  3.6953 -1.1801  0.9103
37099SOL     OW18346   0.421   6.901  10.043 -0.1918 -0.3930 -0.1165
37099SOL    HW118347   0.448   6.876  10.131  1.7233 -0.7186 -0.7547
37099SOL    HW218348   0.328   6.921  10.051  0.0121 -0.1435  2.0251
37100SOL     OW18349   8.077   9.222   3.198  0.5238  0.3473 -0.5522
37100SOL    HW118350   8.078   9.306   3.243  1.2407  0.3213 -0.5088
37100SOL    HW218351   8.169   9.195   3.195  0.4809  0.2600 -1.8461
37101SOL     OW18352  11.229   3.004   2.191  0.1358 -0.4057 -0.3469
37101SOL    HW118353  11.305   2.952   2.167  1.1301  0.8714 -0.0697
37101SOL    HW218354  11.209   2.978   2.281  0.6206 -0.3183 -0.2136
37102SOL     OW18355  10.957  11.915   8.183 -0.9091 -0.1377  0.0919
37102SOL    HW118356  10.966  11.996   8.233 -1.7760 -0.0839  0.1847
37102SOL    HW218357  10.897  11.861   8.236  2.2415 -2.2781  1.7943
37103SOL     OW18358  10.884   2.980   4.751 -0.2096 -0.4791  0.4161
37103SOL    HW118359  10.883   2.923   4.673 -0.8857 -0.8859  0.7105
37103SOL    HW218360  10.822   3.050   4.730 -0.2668 -0.4982  0.5249
37104SOL     OW18361   3.694   2.313   3.635  0.5424  0.1252  0.0984
37104SOL    HW118362   3.725   2.230   3.673 -1.0737 -0.3739  0.3722
37104SOL    HW218363   3.763   2.376   3.656  0.3641 -0.4501  2.6592
37105SOL     OW18364   1.608  12.394  11.808 -0.0434 -0.4764  0.4611
37105SOL    HW118365   1.677  12.348  11.856  1.2351  1.2590  0.3626
37105SOL    HW218366   1.646  12.479  11.787 -1.6804 -0.0463 -0.9591
37106SOL     OW18367  12.121   2.134   1.079  0.8918 -0.0131 -0.1091
37106SOL    HW118368  12.055   2.193   1.041  0.5427 -1.2569 -1.5291
37106SOL    HW218369  12.205   2.173   1.055  0.6678  0.0934 -0.7209
37107SOL     OW18370   6.189   1.335  10.458 -0.0103  0.3269  0.3914
37107SOL    HW118371   6.216   1.269  10.521  2.7325  1.3759  0.4379
37107SOL    HW218372   6.213   1.418  10.499  0.1896  1.1244 -1.2818
37108SOL     OW18373   8.399   4.963   3.779 -0.1086 -0.3151  0.7838
37108SOL    HW118374   8.330   5.018   3.743 -0.2820 -1.1061 -0.1252
37108SOL    HW218375   8.473   4.975   3.720  0.5280  0.4618  1.7031
37109SOL     OW18376   2.453   3.934   9.811 -0.3877 -0.4719 -0.4788
37109SOL    HW118377   2.521   3.979   9.861  0.2956  0.7958 -2.4000
37109SOL    HW218378   2.376   3.936   9.868  0.0816  1.7459  0.1897
37110SOL     OW18379  10.188   3.876  10.764 -0.2140  0.3057  0.0458
37110SOL    HW118380  10.096   3.904  10.766 -0.5084 -0.5946 -0.2562
37110SOL    HW218381  10.183   3.781  10.753  0.7590  0.2835 -0.2374
37111SOL     OW18382  10.968   9.146   2.537  0.1663 -0.0636  0.0159
37111SOL    HW118383  10.953   9.193   2.619 -0.0478 -1.2767  0.7091
37111SOL    HW218384  10.946   9.208   2.468 -0.8926  0.5744  0.9045
37112SOL     OW18385   3.616  11.112   4.884  0.3665  0.0159  0.0183
37112SOL    HW118386   3.594  11.123   4.791  2.1080 -1.4415 -0.6495
37112SOL    HW218387   3.637  11.200   4.914  0.4280  0.4363 -1.1802
37113SOL     OW18388   9.942   9.368   4.801  0.0901 -0.0323 -0.3213
37113SOL    HW118389   9.849   9.351   4.790  0.1724 -0.9536  0.2254
37113SOL    HW218390   9.947   9.459   4.832 -0.4474  0.8055 -2.5519
37114SOL     OW18391   0.445   6.909   3.398  0.0824 -0.4335 -0.1136
37114SOL    HW118392   0.380   6.924   3.466  0.2348  0.8959 -0.2487
37114SOL    HW218393   0.465   6.815   3.405  0.3635 -0.2695  1.8976
37115SOL     OW18394   0.016   3.120   8.169  0.2110  0.0798  0.3207
37115SOL    HW118395   0.034   3.200   8.120  1.1004  0.0526  0.5831
37115SOL    HW218396   0.075   3.055   8.132 -0.2748 -0.3738  0.3298
37116SOL     OW18397   3.765   1.387   3.917  0.0088  0.2272  0.5695
37116SOL    HW118398   3.794   1.300   3.890  2.4049  1.3804 -0.8935
37116SOL    HW218399   3.704   1.415   3.849  0.9951  0.5609 -0.1911
37117SOL     OW18400   3.925   7.866   0.137  0.0915 -0.3441 -0.2531
37117SOL    HW118401   3.902   7.863   0.044 -1.0415 -1.1471  0.0249
37117SOL    HW218402   4.019   7.884   0.138  0.1382 -0.3836 -1.5495
37118SOL     OW18403   3.633   1.950   4.020  0.0837 -0.0273 -0.2942
37118SOL    HW118404   3.559   1.937   3.961 -0.1001 -1.0410  0.1525
37118SOL    HW218405   3.665   1.862   4.039  0.3870  0.3082  0.8078
37119SOL     OW18406   6.115  11.136   8.919 -0.3540 -0.1251  0.1154
37119SOL    HW118407   6.210  11.149   8.909 -0.5572  0.1987 -1.6293
37119SOL    HW218408   6.076  11.197   8.857 -1.6797 -1.0308  0.0258
37120SOL     OW18409   9.029   2.648   8.972 -0.3843 -0.2130 -0.3842
37120SOL    HW118410   9.075   2.629   8.891  3.1414 -0.8508  1.5667
37120SOL    HW218411   9.098   2.669   9.035 -3.0713  3.0030  1.8367
37121SOL     OW18412   1.198   6.134  12.227 -0.2223  0.1552 -0.7229
37121SOL    HW118413   1.269   6.157  12.168 -0.0287 -1.2871 -1.0902
37121SOL    HW218414   1.233   6.147  12.315  0.0160  0.8010 -0.9135
37122SOL     OW18415   2.353   8.906   7.321  0.4382  0.2223  0.3632
37122SOL    HW118416   2.363   8.825   7.272 -0.5448  0.5326 -0.3691
37122SOL    HW218417   2.287   8.956   7.273  0.1308  0.9363  1.4788
37123SOL     OW18418  10.864   8.230  12.258  0.1229  0.2742 -0.0215
37123SOL    HW118419  10.943   8.194  12.297  0.1999  0.0782 -0.3569
37123SOL    HW218420  10.793   8.174  12.291 -0.2137  1.9266  2.2921
37124SOL     OW18421   5.721   1.969   0.967 -0.3717  0.4805 -0.0994
37124SOL    HW118422   5.759   2.055   0.946 -2.1790  1.1531 -0.7687
37124SOL    HW218423   5.755   1.949   1.054  1.2025  1.2053 -0.5134
37125SOL     OW18424   7.293   4.623   3.040 -0.0269  0.2636  0.3539
37125SOL    HW118425   7.336   4.680   2.976 -1.7476  2.0848  0.7279
37125SOL    HW218426   7.263   4.548   2.990  2.7907 -0.7133 -0.0614
37126SOL     OW18427   5.248   8.959   0.596 -0.4384  0.7014 -0.0094
37126SOL    HW118428   5.267   8.866   0.582 -1.5347  0.7586 -2.2896
37126SOL    HW218429   5.171   8.959   0.653  0.6521  0.3082  1.5491
37127SOL     OW18430   8.767   2.234   3.495 -0.5634 -0.6938  0.1937
37127SOL    HW118431   8.722   2.259   3.576 -1.8030  0.4743 -0.8047
37127SOL    HW218432   8.709   2.169   3.454 -1.7391  1.2438 -1.3823
37128SOL     OW18433  11.825   5.214   0.308  0.1757 -0.4611  0.3867
37128SOL    HW118434  11.812   5.151   0.237  1.0149  0.5069 -0.6602
37128SOL    HW218435  11.915   5.245   0.297 -0.5112  1.6596  0.2359
37129SOL     OW18436  12.507   2.317  10.706  0.0529  0.0932 -0.0105
37129SOL    HW118437  12.545   2.393  10.750  0.2337  0.1694 -0.3006
37129SOL    HW218438  12.582   2.268  10.673 -0.1039  0.8685 -1.6336
37130SOL     OW18439   0.289  11.202   2.742 -0.1530 -0.7021  0.1901
37130SOL    HW118440   0.300  11.114   2.778 -0.6908 -0.5900  0.6349
37130SOL    HW218441   0.302  11.260   2.816  1.4197 -0.3325 -0.3376
37131SOL     OW18442   2.487   6.402   7.416 -0.3430 -0.3922  0.3599
37131SOL    HW118443   2.575   6.434   7.433  0.4243 -0.7789 -2.4187
37131SOL    HW218444   2.456   6.455   7.343 -2.1401 -0.7803  0.7936
37132SOL     OW18445   8.671   5.739   8.021  0.2125 -0.1375  0.7179
37132SOL    HW118446   8.661   5.644   8.025 -0.5842 -0.0229  2.1381
37132SOL    HW218447   8.700   5.756   7.932 -1.6224 -1.5392 -0.2268
37133SOL     OW18448   5.993  10.419   6.459 -0.2850 -0.5745  0.0519
37133SOL    HW118449   5.992  10.515   6.450  0.2353 -0.5258  0.4790
37133SOL    HW218450   6.013  10.404   6.551  0.7534 -1.1064 -0.2479
37134SOL     OW18451   0.144   8.051   5.057 -0.2818 -0.0524  0.1872
37134SOL    HW118452   0.075   8.055   4.992 -0.9231 -1.0735  0.7762
37134SOL    HW218453   0.225   8.064   5.008 -0.8805  1.1641 -0.5091
37135SOL     OW18454   5.039  12.319  11.827  0.1881 -0.3402  0.1540
37135SOL    HW118455   5.034  12.273  11.744  0.6671  1.5727 -1.0126
37135SOL    HW218456   4.948  12.334  11.853 -0.0737  1.7523 -1.6860
37136SOL     OW18457   4.179   0.486   2.917 -0.6527 -0.3403  0.1263
37136SOL    HW118458   4.182   0.580   2.896 -0.8903 -0.4931 -0.6346
37136SOL    HW218459   4.270   0.462   2.931 -0.5992  0.0310  0.4397
37137SOL     OW18460   5.801   2.464   1.012  0.7671  0.1609 -0.0961
37137SOL    HW118461   5.767   2.496   1.095  0.3254  5.4806 -1.9480
37137SOL    HW218462   5.896   2.480   1.016  0.8021  0.0754 -0.4729
37138SOL     OW18463   0.904  11.337   7.007  0.2725 -0.5733  0.0288
37138SOL    HW118464   0.986  11.338   7.056  1.5472  0.9589 -1.9906
37138SOL    HW218465   0.866  11.424   7.022 -0.9892 -1.2525  0.9013
37139SOL     OW18466   7.145  12.371   9.635 -0.3816 -0.4502 -0.4074
37139SOL    HW118467   7.200  12.386   9.558  0.8807 -0.1678  0.5202
37139SOL    HW218468   7.100  12.288   9.617  0.2466 -0.6195 -1.2420
37140SOL     OW18469   8.543   2.041   5.439  0.4488  0.4481  0.4829
37140SOL    HW118470   8.589   2.013   5.360  0.5555 -0.6179  0.9134
37140SOL    HW218471   8.610   2.080   5.494  0.3082  1.5542 -0.0931
37141SOL     OW18472   0.062   0.066  11.466 -0.4745 -0.2617  0.4713
37141SOL    HW118473   0.121   0.116  11.523 -0.2772  0.5260 -0.4008
37141SOL    HW218474  -0.023   0.109  11.475 -0.3270  0.1729 -0.2099
37142SOL     OW18475   5.613   0.628  10.160  0.7179 -0.4596 -0.0217
37142SOL    HW118476   5.642   0.596  10.246  1.4495 -0.0087 -0.0906
37142SOL    HW218477   5.680   0.599  10.099  0.1233 -0.9046 -0.4784
37143SOL     OW18478   9.587  11.062   1.128 -0.1743  0.2459 -0.0302
37143SOL    HW118479   9.668  11.057   1.179 -0.2475  3.4206  0.5849
37143SOL    HW218480   9.522  11.016   1.182  0.9331 -1.4862 -0.0835
37144SOL     OW18481   1.177   6.181   9.747 -0.0502  0.1221 -0.1956
37144SOL    HW118482   1.263   6.190   9.705  0.8679 -0.7869  1.3974
37144SOL    HW218483   1.130   6.260   9.720  1.8394  1.4323  0.1031
37145SOL     OW18484   1.278  10.080   4.865  0.2394 -0.5413  0.6995
37145SOL    HW118485   1.301  10.129   4.786  0.4488 -0.2908  0.9171
37145SOL    HW218486   1.184  10.097   4.876  0.4595  0.4070  1.1848
37146SOL     OW18487   4.503   9.027   8.381  0.1704  0.6358  0.0181
37146SOL    HW118488   4.480   9.042   8.473  1.0284  0.7499  0.2210
37146SOL    HW218489   4.540   8.939   8.379 -1.0477  0.1139 -0.4583
37147SOL     OW18490  10.416   6.219   6.363  0.2857 -0.1664 -0.3919
37147SOL    HW118491  10.506   6.211   6.332 -0.2608 -1.7558 -1.7697
37147SOL    HW218492  10.371   6.265   6.292 -0.3803 -1.1977 -0.6627
37148SOL     OW18493   6.837   0.179  10.666  0.4749  0.1083  0.3040
37148SOL    HW118494   6.824   0.273  10.681  2.5578  0.4503  0.2774
37148SOL    HW218495   6.922   0.173  10.622 -0.6478 -1.6442 -1.8841
37149SOL     OW18496   7.481  10.750   2.701 -0.5970  0.4589  0.0221
37149SOL    HW118497   7.398  10.721   2.662  0.6539 -1.4055 -1.4519
37149SOL    HW218498   7.489  10.698   2.781 -0.6575  0.3349 -0.0515
37150SOL     OW18499   3.580  11.372   3.755  0.4184  0.6353  0.2910
37150SOL    HW118500   3.590  11.346   3.663  1.4888 -1.4455  0.9141
37150SOL    HW218501   3.574  11.467   3.753  0.7708  0.6659 -1.8960
37151SOL     OW18502   7.795   5.825   5.197  0.0160  0.7300 -0.1538
37151SOL    HW118503   7.801   5.761   5.127  0.2496  1.8520 -1.2060
37151SOL    HW218504   7.875   5.814   5.247 -0.0824  0.0107 -0.1516
37152SOL     OW18505   0.866   7.166   0.606  0.2178  0.5209 -0.0098
37152SOL    HW118506   0.913   7.086   0.584 -1.2015  0.0443 -1.4407
37152SOL    HW218507   0.927   7.236   0.585  0.8052 -0.1167 -0.4711
37153SOL     OW18508   3.879  10.830   9.756 -0.8297  0.2822 -0.0934
37153SOL    HW118509   3.785  10.823   9.736 -0.6933 -1.0757 -0.2878
37153SOL    HW218510   3.922  10.780   9.688  0.3067  3.4237 -1.8562
37154SOL     OW18511   0.468   9.081   3.365 -0.2293 -0.3672  0.0981
37154SOL    HW118512   0.559   9.069   3.336 -0.2994 -0.4680 -0.0816
37154SOL    HW218513   0.456   9.176   3.368  0.6561 -0.2752  2.5335
37155SOL     OW18514   8.284   4.762   4.149  0.1091 -0.1870 -0.8040
37155SOL    HW118515   8.201   4.760   4.196  0.2554 -1.7416 -0.5470
37155SOL    HW218516   8.280   4.842   4.097 -0.0441  1.6840  1.8435
37156SOL     OW18517   6.390   7.583   7.972  0.1871  0.2887 -0.2023
37156SOL    HW118518   6.300   7.553   7.971 -0.0102  0.8627 -0.1463
37156SOL    HW218519   6.429   7.538   8.047  0.1550 -0.5226 -0.6594
37157SOL     OW18520   8.023   7.254   4.690  0.0593  0.0210  0.7581
37157SOL    HW118521   8.048   7.164   4.669 -0.2982  0.4057 -1.6806
37157SOL    HW218522   8.079   7.279   4.763  1.9790 -1.3433 -0.1725
37158SOL     OW18523  11.921  12.344  10.517 -0.3674 -0.2461  0.1847
37158SOL    HW118524  11.852  12.391  10.470 -0.7534  0.5155  1.4552
37158SOL    HW218525  11.980  12.313  10.448 -0.0294  2.2245 -0.7417
37159SOL     OW18526   4.310   0.480   4.621  0.3144  0.0916  0.2053
37159SOL    HW118527   4.265   0.564   4.624  1.3149  0.6686 -0.2391
37159SOL    HW218528   4.265   0.431   4.552  0.5094  0.7477 -0.3990
37160SOL     OW18529   3.012   3.757   0.267 -0.2844 -0.2079  0.6760
37160SOL    HW118530   3.043   3.704   0.340 -0.5338 -0.4253  0.6248
37160SOL    HW218531   3.041   3.846   0.287  0.2362 -0.3835  0.7043
37161SOL     OW18532   9.354   7.302  11.298 -0.6209 -0.2003 -0.1883
37161SOL    HW118533   9.404   7.269  11.373 -3.3349 -0.8355  1.4710
37161SOL    HW218534   9.383   7.392  11.287  0.6686 -0.4603  0.8607
37162SOL     OW18535   1.282   7.314   3.105 -0.1706  0.5063 -0.4697
37162SOL    HW118536   1.235   7.230   3.114 -1.1934  0.9837 -1.1129
37162SOL    HW218537   1.324   7.308   3.019  0.3552  0.3722 -0.2054
37163SOL     OW18538  11.998   6.120   3.346 -0.1394  0.0416  0.4203
37163SOL    HW118539  11.903   6.114   3.344 -0.1239 -0.0098 -1.1825
37163SOL    HW218540  12.018   6.203   3.304  0.5216  0.2782  1.1684
37164SOL     OW18541   9.412   9.555  10.814 -0.2825  0.4303 -0.0384
37164SOL    HW118542   9.328   9.508  10.811 -0.2682  0.3701  0.4236
37164SOL    HW218543   9.466   9.512  10.749 -0.4580  0.1650 -0.0113
37165SOL     OW18544   5.575   3.672   2.338  0.6246 -0.9303 -0.2386
37165SOL    HW118545   5.658   3.625   2.344  0.5265 -0.9418  1.8792
37165SOL    HW218546   5.525   3.625   2.271  1.9981 -1.4491 -0.9237
37166SOL     OW18547   0.950   8.599   2.846  0.3009  0.4929 -0.2969
37166SOL    HW118548   0.858   8.596   2.821  0.3348  1.3498 -0.5520
37166SOL    HW218549   0.986   8.516   2.814  0.1054  1.1020 -2.2497
37167SOL     OW18550   1.622  11.381   4.108 -0.3087 -0.2708 -0.2143
37167SOL    HW118551   1.608  11.288   4.089  1.8254 -1.4586  3.2386
37167SOL    HW218552   1.561  11.400   4.179  1.0045  0.2229  0.8117
37168SOL     OW18553  12.358   6.296  10.853  0.0191 -0.6178 -0.0574
37168SOL    HW118554  12.321   6.276  10.767  2.0400  0.9198 -1.3941
37168SOL    HW218555  12.311   6.373  10.883  0.4245 -0.1559 -0.5895
37169SOL     OW18556   9.462   3.411   9.607 -0.1793 -0.0445  0.2192
37169SOL    HW118557   9.510   3.346   9.556  0.2976  0.2073  0.3375
37169SOL    HW218558   9.371   3.401   9.580  0.2267  1.0421 -1.7753
37170SOL     OW18559  12.271  12.053   8.480 -0.1416  0.5665  0.0541
37170SOL    HW118560  12.328  12.011   8.543  0.2526  0.9708 -0.0249
37170SOL    HW218561  12.232  11.981   8.430 -0.7498  0.2280  0.9972
37171SOL     OW18562  10.970   6.476   3.301  0.0465  0.2957  0.2337
37171SOL    HW118563  10.997   6.565   3.326 -0.6131  0.3775  0.6906
37171SOL    HW218564  11.033   6.419   3.344 -1.2227  0.4169  2.4007
37172SOL     OW18565   8.636   5.825  11.566  0.0396 -0.2776 -0.0382
37172SOL    HW118566   8.674   5.878  11.636 -0.0284  0.0701 -0.2596
37172SOL    HW218567   8.711   5.779  11.528 -0.0584 -1.1950  0.8715
37173SOL     OW18568   1.345   1.815   8.731 -0.7133 -0.2508 -0.2663
37173SOL    HW118569   1.421   1.827   8.788 -0.8437  0.2411 -0.1997
37173SOL    HW218570   1.335   1.898   8.686 -0.2878 -0.7925 -1.4106
37174SOL     OW18571   2.417   8.848   0.647 -0.1595  0.1899  0.4718
37174SOL    HW118572   2.406   8.941   0.669 -0.7435 -0.1401  1.6312
37174SOL    HW218573   2.351   8.803   0.699 -0.8625 -0.7523 -1.1731
37175SOL     OW18574  11.541   8.854   7.962 -0.0056 -0.2407 -0.0415
37175SOL    HW118575  11.478   8.910   7.917  0.4650 -0.9931 -1.6953
37175SOL    HW218576  11.509   8.851   8.052  0.6828  3.7771  0.5563
37176SOL     OW18577  11.374   7.142   9.940 -0.0351  0.2859  0.1589
37176SOL    HW118578  11.365   7.116   9.848  1.8366 -1.6293  0.4427
37176SOL    HW218579  11.468   7.152   9.953 -0.2372  0.1086  1.9853
37177SOL     OW18580   5.071  11.264  11.036 -0.6740 -0.1252  0.0808
37177SOL    HW118581   5.053  11.226  11.121 -1.2248  0.0627  0.0534
37177SOL    HW218582   5.083  11.189  10.977 -0.4303 -0.2523  0.2891
37178SOL     OW18583   4.795  10.467   8.988  0.3206  0.3272  0.1689
37178SOL    HW118584   4.704  10.473   9.015  0.2167  2.2399 -0.4625
37178SOL    HW218585   4.812  10.373   8.979 -2.1835 -0.0396 -1.6815
37179SOL     OW18586   7.711   7.840   9.555  0.1599 -0.0884 -0.3590
37179SOL    HW118587   7.768   7.868   9.627 -1.3640 -0.0266  0.8707
37179SOL    HW218588   7.687   7.751   9.577  0.0757 -0.2498 -1.0764
37180SOL     OW18589  11.122  10.978   4.151 -0.4620  0.5329  0.2917
37180SOL    HW118590  11.181  11.022   4.091 -1.6983  0.4484 -1.0509
37180SOL    HW218591  11.158  10.890   4.161 -0.7846  0.2016 -1.2034
37181SOL     OW18592   3.632   4.550   6.075  0.2403 -0.2064 -0.2190
37181SOL    HW118593   3.658   4.610   6.004 -0.4708 -0.4773 -0.7184
37181SOL    HW218594   3.627   4.464   6.033  1.3842 -0.6661  0.5255
37182SOL     OW18595   2.568   3.316   2.044  0.1806  0.5846  0.3927
37182SOL    HW118596   2.527   3.238   2.006 -1.0288  1.0929  0.5928
37182SOL    HW218597   2.625   3.349   1.974 -1.3552  1.0228 -0.7116
37183SOL     OW18598   3.958   0.659   6.328 -0.3960 -0.4177  0.1076
37183SOL    HW118599   4.012   0.698   6.396 -2.4357  1.5709  0.7226
37183SOL    HW218600   3.963   0.720   6.254 -1.3104 -0.4913 -0.0334
37184SOL     OW18601   1.128   7.114   6.111  0.1043  1.3973 -0.3810
37184SOL    HW118602   1.190   7.045   6.133 -0.0463  1.4029  0.0655
37184SOL    HW218603   1.156   7.145   6.025  0.7562  1.4444 -0.1520
37185SOL     OW18604   1.019  10.706   9.955 -0.4671  0.5209  0.2799
37185SOL    HW118605   0.959  10.741   9.889 -1.4974 -0.4397  0.6629
37185SOL    HW218606   1.058  10.784   9.996 -5.2581  1.7002  3.5386
37186SOL     OW18607   4.062  11.123   2.865 -0.4474 -0.2589  0.0500
37186SOL    HW118608   4.116  11.175   2.924  0.2736 -0.1826 -0.6572
37186SOL    HW218609   4.118  11.108   2.788 -0.1449 -3.1236  0.7063
37187SOL     OW18610   7.810   4.691   3.190 -0.3898  0.3765  0.0720
37187SOL    HW118611   7.799   4.768   3.246 -1.1615  0.1700  0.2200
37187SOL    HW218612   7.721   4.660   3.175 -0.0230 -1.0393  0.7533
37188SOL     OW18613   2.797   9.827  10.586 -0.3906  0.2422 -0.3040
37188SOL    HW118614   2.872   9.786  10.544  1.7249  0.9711  2.4724
37188SOL    HW218615   2.757   9.757  10.638 -0.1954  0.4073  0.0676
37189SOL     OW18616   2.905   0.610   1.615  0.3468  0.4443 -0.2798
37189SOL    HW118617   2.916   0.551   1.541 -0.1342  0.7728 -0.6223
37189SOL    HW218618   2.811   0.628   1.618  0.1156 -0.7883  1.3781
37190SOL     OW18619   5.391   8.713   9.206 -0.0707 -0.6402 -0.3218
37190SOL    HW118620   5.303   8.746   9.187  0.1476 -0.2817 -0.7198
37190SOL    HW218621   5.450   8.772   9.159  0.5494  0.6908  1.9441
37191SOL     OW18622   7.124   3.498   4.479 -0.1445 -0.2340 -0.1774
37191SOL    HW118623   7.216   3.472   4.480  0.1387  0.6364  1.9617
37191SOL    HW218624   7.076   3.418   4.501  0.0411 -0.7768 -1.6608
37192SOL     OW18625   5.044  12.060   8.623 -0.1580 -0.4526  0.1603
37192SOL    HW118626   5.088  11.984   8.584 -2.3255 -1.8185  0.1952
37192SOL    HW218627   5.017  12.029   8.710 -1.8223  0.0408 -0.1479
37193SOL     OW18628   0.796  11.857   6.359 -0.5055  0.1909  0.2986
37193SOL    HW118629   0.890  11.851   6.374 -0.3275  1.1124 -0.3741
37193SOL    HW218630   0.765  11.766   6.364  0.2111  0.0039  1.7376
37194SOL     OW18631  11.130   6.493  10.917 -0.7546 -0.0685 -0.5212
37194SOL    HW118632  11.190   6.440  10.865 -0.0804  0.0267  0.1392
37194SOL    HW218633  11.184   6.563  10.952 -1.2879  0.1143 -0.0469
37195SOL     OW18634  11.241   9.688   0.670 -0.0663 -0.2594  0.5413
37195SOL    HW118635  11.303   9.616   0.661 -1.6386 -1.6911  0.7675
37195SOL    HW218636  11.211   9.684   0.760  0.6999  1.4680  0.9143
37196SOL     OW18637   7.695   8.270   6.163 -0.0364 -0.1980  0.0687
37196SOL    HW118638   7.772   8.278   6.107  0.3881  1.3453  0.8160
37196SOL    HW218639   7.625   8.313   6.114 -0.0952 -0.3938 -0.0216
37197SOL     OW18640   9.774  11.919   5.532  0.2895  0.4047 -0.0667
37197SOL    HW118641   9.729  11.891   5.611 -0.0520 -0.3256 -0.5093
37197SOL    HW218642   9.867  11.906   5.552  0.2896  1.4313  0.6604
37198SOL     OW18643   4.097   0.844   8.934 -0.0043 -0.2272 -0.5952
37198SOL    HW118644   4.027   0.805   8.986  0.3097 -1.2304 -0.9081
37198SOL    HW218645   4.152   0.889   8.999 -1.8914  2.2017 -0.5091
37199SOL     OW18646   9.827  10.769   0.430  0.4244  0.1848 -0.2492
37199SOL    HW118647   9.895  10.831   0.457 -0.7846  1.2274  0.4594
37199SOL    HW218648   9.872  10.713   0.366  1.2302  2.6381 -2.0047
37200SOL     OW18649   1.256   6.577   4.858  0.0453 -0.2805 -0.6920
37200SOL    HW118650   1.257   6.660   4.811  1.9295 -0.4993 -1.1057
37200SOL    HW218651   1.186   6.527   4.817 -0.6188  0.8073 -0.9286
37201SOL     OW18652  10.359   7.543   1.688 -0.1596 -0.2576  0.5060
37201SOL    HW118653  10.418   7.598   1.637 -1.2221 -1.3899 -2.1182
37201SOL    HW218654  10.418   7.490   1.743  1.0330  0.9640  0.4689
37202SOL     OW18655   2.278  10.280  11.118 -0.0657  0.6016 -0.1184
37202SOL    HW118656   2.373  10.271  11.111  0.2034  3.3312 -1.6631
37202SOL    HW218657   2.252  10.321  11.035 -2.5277  0.4851  0.5099
37203SOL     OW18658   7.503   9.101   0.780  0.3697  0.1599 -0.2430
37203SOL    HW118659   7.422   9.098   0.729  0.6356  0.4278 -0.6882
37203SOL    HW218660   7.476   9.077   0.869 -0.3976  1.3452 -0.1368
37204SOL     OW18661  12.068  11.341   4.624  0.1008 -0.1196  0.0358
37204SOL    HW118662  12.010  11.310   4.694  0.3041  0.2885  0.3951
37204SOL    HW218663  12.025  11.420   4.591  0.7843  0.5818  0.7764
37205SOL     OW18664   9.175   3.997   6.629  0.2672  0.0936  0.8224
37205SOL    HW118665   9.080   3.993   6.617  0.1911  2.2199  0.2295
37205SOL    HW218666   9.210   4.006   6.540  0.9919 -0.2900  1.0651
37206SOL     OW18667  11.894   9.079  11.558 -0.1118  0.6876  0.0562
37206SOL    HW118668  11.873   9.165  11.521 -0.1848  0.6525  0.0145
37206SOL    HW218669  11.834   9.019  11.513 -0.6328  0.7311  0.6743
37207SOL     OW18670   4.051   3.325   5.500 -0.2854  0.0194 -0.8736
37207SOL    HW118671   4.075   3.277   5.579  1.4270 -0.4187 -1.6262
37207SOL    HW218672   4.003   3.262   5.447  0.5189 -0.3929 -1.1360
37208SOL     OW18673  12.195  10.161   9.930 -0.3224  0.3723 -0.3480
37208SOL    HW118674  12.189  10.095   9.999  0.1873  0.5966 -0.0854
37208SOL    HW218675  12.284  10.150   9.895 -0.3193  0.7576 -0.4613
37209SOL     OW18676  11.733  12.503   2.800  0.3606 -0.5743  0.4632
37209SOL    HW118677  11.640  12.519   2.784 -0.5961 -3.2295  2.6388
37209SOL    HW218678  11.769  12.488   2.713 -0.9010  1.6996 -0.5565
37210SOL     OW18679   5.006   3.697  12.033 -0.1056  0.1143 -0.3531
37210SOL    HW118680   5.065   3.640  11.983  1.3255 -0.4633  1.8308
37210SOL    HW218681   4.960   3.637  12.092 -2.1103  0.7061 -1.2450
37211SOL     OW18682  11.732  12.062   3.954  0.1745 -0.0645  0.0761
37211SOL    HW118683  11.819  12.037   3.984 -0.4335 -0.7824  1.2905
37211SOL    HW218684  11.700  11.986   3.907  1.2488  1.1550 -2.9012
37212SOL     OW18685   9.704   5.505   1.361 -0.0330  0.0603  0.5930
37212SOL    HW118686   9.675   5.487   1.272 -2.7898 -0.7031  1.5558
37212SOL    HW218687   9.782   5.451   1.373  0.5038  0.3360 -1.3870
37213SOL     OW18688  10.939   3.618   3.603  0.1105  0.0430 -0.0839
37213SOL    HW118689  10.907   3.528   3.592 -2.7025  0.7839  1.0428
37213SOL    HW218690  10.860   3.670   3.615  1.5828  2.8904 -1.7139
37214SOL     OW18691  11.297   4.580  11.546 -0.2733 -0.1432 -0.2499
37214SOL    HW118692  11.373   4.582  11.488  0.2180  0.1031  0.3970
37214SOL    HW218693  11.275   4.672  11.560  0.3671 -0.1532  0.9295
37215SOL     OW18694  11.704   0.313   9.460 -0.1115 -0.2693  0.3682
37215SOL    HW118695  11.621   0.309   9.507 -0.0793  0.5856  0.5220
37215SOL    HW218696  11.708   0.404   9.428 -0.9239 -1.1984 -2.7181
37216SOL     OW18697   0.853   2.042   0.932 -0.0288  0.2734 -0.7963
37216SOL    HW118698   0.893   1.967   0.975 -0.3099 -1.0627 -2.7036
37216SOL    HW218699   0.764   2.045   0.968 -0.6737 -1.5900 -2.0441
37217SOL     OW18700   2.884   0.855   4.764  0.7036  0.8142  0.6391
37217SOL    HW118701   2.857   0.813   4.682 -0.2721 -0.2568  1.4720
37217SOL    HW218702   2.894   0.947   4.741 -0.3676  0.6813 -0.5117
37218SOL     OW18703   2.436   8.147   2.053 -0.4576  0.4982 -0.2217
37218SOL    HW118704   2.422   8.059   2.088  0.8203  1.4083  2.9916
37218SOL    HW218705   2.360   8.197   2.083 -1.6163  0.4213 -2.7587
37219SOL     OW18706   2.478   2.665   5.999  0.1619  0.1010 -0.0535
37219SOL    HW118707   2.555   2.719   6.018  0.4657 -0.8357  1.5341
37219SOL    HW218708   2.505   2.576   6.019 -0.4716 -0.6364 -2.2147
37220SOL     OW18709  10.267   3.685   7.555 -0.5762  0.2666  0.2588
37220SOL    HW118710  10.237   3.598   7.583  1.8162  0.1293  2.7582
37220SOL    HW218711  10.352   3.669   7.515 -0.9946  1.2924 -1.0926
37221SOL     OW18712   7.104   5.826  10.513 -0.0818 -0.2179  0.0341
37221SOL    HW118713   7.011   5.804  10.503 -0.4845  1.3726 -0.1296
37221SOL    HW218714   7.110   5.916  10.480  1.5041 -0.2573  0.1575
37222SOL     OW18715   5.553  12.323   8.936 -0.3509 -0.2299  0.0109
37222SOL    HW118716   5.626  12.267   8.910  1.3452 -0.1136  3.8708
37222SOL    HW218717   5.476  12.266   8.929  0.3925 -1.0521 -2.0025
37223SOL     OW18718   3.168   6.087   3.343  0.1817 -0.3561  0.4251
37223SOL    HW118719   3.133   6.153   3.283  0.2177 -2.4785 -2.1099
37223SOL    HW218720   3.262   6.084   3.321 -0.0747 -2.2417 -0.6494
37224SOL     OW18721   6.760   4.801   0.572 -0.5591 -0.2015  0.6849
37224SOL    HW118722   6.708   4.839   0.501  0.6546 -1.4973 -0.9871
37224SOL    HW218723   6.696   4.779   0.640 -2.0203 -0.4568 -0.7006
37225SOL     OW18724   0.496  10.577   3.850 -0.0942  0.8192  0.3048
37225SOL    HW118725   0.427  10.519   3.884  2.5346 -2.6618  0.2960
37225SOL    HW218726   0.526  10.625   3.927 -1.5050  1.2980  0.5848
37226SOL     OW18727   0.223   2.733  11.191 -0.3282  0.8365 -0.4153
37226SOL    HW118728   0.239   2.804  11.254 -0.2573 -0.4052  1.0407
37226SOL    HW218729   0.309   2.694  11.177 -0.2131  1.5745 -1.9221
37227SOL     OW18730   4.135   8.015   5.641  0.1362  0.6921  0.0980
37227SOL    HW118731   4.064   8.076   5.660 -0.9731 -0.1805 -1.0146
37227SOL    HW218732   4.176   8.049   5.562  0.1283  0.5161  0.0159
37228SOL     OW18733   1.470   9.579   2.847 -0.0415 -0.1698 -0.5721
37228SOL    HW118734   1.551   9.625   2.868  0.4342 -1.4635  0.5826
37228SOL    HW218735   1.401   9.629   2.890  0.4656 -0.5256  0.6747
37229SOL     OW18736   8.908   3.334   1.870 -0.1350 -0.0115 -0.0307
37229SOL    HW118737   8.919   3.357   1.778  0.0454 -0.3016 -0.0840
37229SOL    HW218738   8.944   3.245   1.877 -0.4201 -0.1069  0.2585
37230SOL     OW18739   1.758   5.462   7.572  0.4833 -0.0579 -0.0399
37230SOL    HW118740   1.706   5.539   7.596 -0.4883 -0.6681 -0.1408
37230SOL    HW218741   1.741   5.399   7.642  1.3350 -0.1600  0.0781
37231SOL     OW18742  12.070   1.687   2.373 -0.5135  0.2417  0.2802
37231SOL    HW118743  12.074   1.782   2.367 -1.8122  0.3132  0.1718
37231SOL    HW218744  12.015   1.660   2.300 -0.5195 -0.5596  0.5625
37232SOL     OW18745   7.398  11.435   7.783  0.3433 -0.4362 -0.6998
37232SOL    HW118746   7.305  11.413   7.793 -0.0336  1.5735  1.0502
37232SOL    HW218747   7.443  11.374   7.841 -0.1530 -0.0412  0.1363
37233SOL     OW18748   8.317   6.760  11.963  0.4471  0.5648 -0.0078
37233SOL    HW118749   8.391   6.716  11.920  0.1696  0.4326 -0.3536
37233SOL    HW218750   8.328   6.739  12.056 -0.5904 -1.6923 -0.3062
37234SOL     OW18751   3.054   9.330  10.694  0.1331 -0.2044 -0.1210
37234SOL    HW118752   2.967   9.331  10.654  0.2865 -0.7716 -0.4906
37234SOL    HW218753   3.114   9.324  10.619  0.3956 -2.4991  0.1904
37235SOL     OW18754   2.600   8.510   6.124 -0.2501 -0.1404 -0.6229
37235SOL    HW118755   2.691   8.518   6.097  0.3751 -0.5681  1.2580
37235SOL    HW218756   2.603   8.469   6.210 -2.1449  1.0468  0.0830
37236SOL     OW18757   5.839   0.440   4.455  0.2532 -0.6382 -0.3507
37236SOL    HW118758   5.791   0.357   4.458 -0.0313 -0.5333 -1.5631
37236SOL    HW218759   5.872   0.452   4.544 -3.1243 -0.0685  0.9762
37237SOL     OW18760   0.508   1.708   6.499  0.2783 -0.2778 -0.1990
37237SOL    HW118761   0.441   1.768   6.533 -0.1332 -0.7547 -0.1679
37237SOL    HW218762   0.590   1.759   6.505  0.2609 -0.3844  1.6745
37238SOL     OW18763  10.376   5.873   4.273  0.1453 -0.6322 -0.1863
37238SOL    HW118764  10.395   5.827   4.354 -0.4780 -3.2309 -1.4250
37238SOL    HW218765  10.280   5.877   4.269  0.1400 -1.2963 -1.1694
37239SOL     OW18766   8.614   9.696  10.841 -0.3534  0.6596 -0.1370
37239SOL    HW118767   8.677   9.707  10.770 -1.8049 -1.3238 -1.8117
37239SOL    HW218768   8.552   9.768  10.830  0.2714  1.2509  0.1056
37240SOL     OW18769   8.151  11.320   3.812 -0.6468 -0.2464  0.0966
37240SOL    HW118770   8.113  11.303   3.899  0.9212 -1.2830  0.6277
37240SOL    HW218771   8.107  11.257   3.755 -0.5550 -0.6461  0.4617
37241SOL     OW18772   6.113   1.362   2.503  0.3252 -0.2031  0.2401
37241SOL    HW118773   6.118   1.332   2.412  1.3591 -0.6668  0.4410
37241SOL    HW218774   6.108   1.281   2.554 -3.1364  0.0148  0.5033
37242SOL     OW18775  11.023   8.519   9.577  0.3505 -0.1412  0.2340
37242SOL    HW118776  10.968   8.446   9.604 -0.2586  0.2342  0.0385
37242SOL    HW218777  11.022   8.579   9.651  0.7951 -0.3026  0.3690
37243SOL     OW18778   7.635   0.762   5.525  0.1504  0.4543  0.5716
37243SOL    HW118779   7.704   0.798   5.581  2.0456  1.5360 -2.2602
37243SOL    HW218780   7.561   0.822   5.536  0.7471  1.0780  1.2866
37244SOL     OW18781  11.867   5.852   4.377 -0.0809  0.0754 -0.7796
37244SOL    HW118782  11.808   5.926   4.360 -0.3000  0.2430  0.5762
37244SOL    HW218783  11.955   5.888   4.365 -0.1799  0.6322  0.0557
37245SOL     OW18784   4.858   5.901   6.969 -0.4581 -0.4928  0.1298
37245SOL    HW118785   4.806   5.973   7.004 -1.3438 -0.1533 -1.7468
37245SOL    HW218786   4.924   5.884   7.036 -1.8342  0.3161  1.7554
37246SOL     OW18787   5.084  11.928   8.886  0.4300  0.1700 -0.0694
37246SOL    HW118788   5.077  11.975   8.969 -2.1847  0.0946 -0.1708
37246SOL    HW218789   5.166  11.879   8.894  0.6222  0.7214  2.1640
37247SOL     OW18790   3.469  11.337  12.275 -0.2533 -0.2267  0.1668
37247SOL    HW118791   3.446  11.285  12.352 -0.0512  2.1907  1.9953
37247SOL    HW218792   3.394  11.395  12.262  0.2542  0.2551 -0.6609
37248SOL     OW18793   7.841   8.845   4.119 -0.4431 -0.2125  0.5804
37248SOL    HW118794   7.901   8.792   4.066  0.9618  0.7568  1.1394
37248SOL    HW218795   7.766   8.860   4.063 -0.1968 -1.5098 -0.1305
37249SOL     OW18796   2.615  10.882   6.234 -0.1496  0.6374 -0.4256
37249SOL    HW118797   2.577  10.927   6.309 -0.7458 -0.9582  0.2846
37249SOL    HW218798   2.546  10.884   6.167  0.0978  1.4025 -0.6585
37250SOL     OW18799   2.246   2.310   4.323  0.1169 -0.6849 -0.2064
37250SOL    HW118800   2.259   2.226   4.367 -1.2058  0.3627  2.3539
37250SOL    HW218801   2.331   2.354   4.330  0.5010 -1.3457 -0.5881
37251SOL     OW18802   0.658   5.738   8.869  0.2186 -0.0516  0.0674
37251SOL    HW118803   0.669   5.808   8.805 -1.2474 -0.2747 -0.4876
37251SOL    HW218804   0.726   5.752   8.934  2.4095 -0.4043 -2.0341
37252SOL     OW18805   6.660   1.105   6.941  0.1447  0.3435 -0.1248
37252SOL    HW118806   6.732   1.168   6.941 -0.2854  0.8944 -1.7216
37252SOL    HW218807   6.703   1.019   6.938  0.7260  0.5707  1.2326
37253SOL     OW18808   7.740  10.429   6.798 -0.1882 -0.0104  0.2695
37253SOL    HW118809   7.690  10.389   6.868 -2.5270  3.6493  0.9684
37253SOL    HW218810   7.830  10.398   6.812 -1.1184 -1.8995  2.8699
37254SOL     OW18811   1.623   9.958   9.399  0.2903  0.3828 -0.1675
37254SOL    HW118812   1.714   9.975   9.424  0.5157  2.5925 -2.0607
37254SOL    HW218813   1.628   9.926   9.309 -0.7858  0.6534 -0.3457
37255SOL     OW18814  10.874   9.537   7.783  0.7152  0.0108  0.0003
37255SOL    HW118815  10.833   9.599   7.722  1.4962 -0.3538 -0.9259
37255SOL    HW218816  10.837   9.452   7.759  0.9050 -0.1100  0.1353
37256SOL     OW18817   7.781   2.061  10.139 -0.0484 -0.0666 -0.0578
37256SOL    HW118818   7.800   2.050  10.232 -0.1799 -0.9144 -0.1233
37256SOL    HW218819   7.769   1.972  10.106  3.2947 -0.0976 -1.6144
37257SOL     OW18820   6.471   6.560   3.497  0.2641 -0.2558  0.1477
37257SOL    HW118821   6.529   6.512   3.556  0.8528  3.1850  2.6889
37257SOL    HW218822   6.384   6.525   3.515  0.7182 -0.7139  1.5937
37258SOL     OW18823  12.384   5.801   2.709 -0.0152  0.0025 -0.1049
37258SOL    HW118824  12.372   5.707   2.717  0.2677  0.1360  3.8297
37258SOL    HW218825  12.300   5.839   2.734  0.0860  0.8396 -0.9587
37259SOL     OW18826   2.464  11.678   5.740 -0.3927 -0.1516 -0.4467
37259SOL    HW118827   2.544  11.645   5.700  0.1730 -0.1321  0.6436
37259SOL    HW218828   2.460  11.770   5.713 -0.3291 -0.2926 -0.9402
37260SOL     OW18829   1.052  12.340   9.424  0.1835 -0.5655  0.0532
37260SOL    HW118830   0.975  12.355   9.369 -0.9606 -2.1932  1.1275
37260SOL    HW218831   1.122  12.388   9.380 -1.2383  0.2499 -1.4387
37261SOL     OW18832  12.121   8.892   1.474  0.8043  0.4528 -0.2299
37261SOL    HW118833  12.165   8.959   1.527  1.8148  0.8397 -1.4984
37261SOL    HW218834  12.031   8.891   1.506  1.0834  1.5210  0.6606
37262SOL     OW18835   2.634   2.499   4.636  0.1663  0.0857 -0.4973
37262SOL    HW118836   2.542   2.475   4.648  0.5623 -0.4531  2.2527
37262SOL    HW218837   2.637   2.542   4.551 -2.5235 -0.3515 -0.9035
37263SOL     OW18838  11.731   9.627  12.227  0.4786 -0.0327  0.2531
37263SOL    HW118839  11.696   9.579  12.301  0.3800 -1.8039 -0.8948
37263SOL    HW218840  11.812   9.582  12.205 -0.1349 -0.3743 -1.4943
37264SOL     OW18841   9.293   3.217  12.000  0.2574  0.1487  0.2347
37264SOL    HW118842   9.342   3.135  12.003 -1.5896 -0.9976  3.0489
37264SOL    HW218843   9.207   3.193  11.966  0.6184  1.6094 -1.9574
37265SOL     OW18844   3.489   2.917   0.897 -0.6952 -0.0371  0.3619
37265SOL    HW118845   3.436   2.848   0.859  0.4167 -1.1971  0.8328
37265SOL    HW218846   3.533   2.876   0.971  0.7105  0.9063  0.0989
37266SOL     OW18847  10.196   7.060  11.648  0.4386 -0.1424 -0.2579
37266SOL    HW118848  10.277   7.010  11.643 -0.2400 -1.4356  0.8990
37266SOL    HW218849  10.224   7.151  11.658  1.7141 -0.0679 -3.4163
37267SOL     OW18850   5.651   2.182   7.609 -0.3163 -0.0437 -0.0915
37267SOL    HW118851   5.700   2.119   7.662 -0.1362 -0.3777 -0.6462
37267SOL    HW218852   5.678   2.163   7.519  0.7187  1.6613 -0.1845
37268SOL     OW18853  10.658   2.224   6.315  0.3718  0.4438  0.1853
37268SOL    HW118854  10.671   2.232   6.220  1.1405 -0.4771  0.2056
37268SOL    HW218855  10.701   2.142   6.339 -1.4705 -0.3245  1.0376
37269SOL     OW18856   8.091  11.326  10.251 -0.5558 -0.1200 -0.3265
37269SOL    HW118857   8.121  11.413  10.224 -1.8794  0.4027 -0.1967
37269SOL    HW218858   8.088  11.276  10.169  0.9297 -0.3010 -0.3011
37270SOL     OW18859   3.521  10.794   0.073  0.0867  0.2457  0.7014
37270SOL    HW118860   3.550  10.775   0.162  1.5227 -0.2526  0.1579
37270SOL    HW218861   3.428  10.773   0.072  0.2613 -0.6437  1.8288
37271SOL     OW18862   8.265   4.945   5.176 -0.7010 -0.0671  0.2091
37271SOL    HW118863   8.235   4.901   5.256  0.7545 -0.0414  0.8095
37271SOL    HW218864   8.190   4.996   5.147 -1.2957 -0.1514  1.5171
37272SOL     OW18865   5.986   6.371   2.940 -0.6951 -0.2187 -0.1762
37272SOL    HW118866   5.958   6.403   3.026 -1.7777 -1.6079  0.0223
37272SOL    HW218867   6.041   6.442   2.905 -1.8046  1.2119  0.8361
37273SOL     OW18868   8.699   2.407  10.413 -0.4244 -0.1466 -0.2247
37273SOL    HW118869   8.751   2.447  10.483 -0.9141  1.5609 -0.8040
37273SOL    HW218870   8.679   2.479  10.353 -0.8264 -1.3842 -1.6403
37274SOL     OW18871  10.073   9.081   8.078  0.2372  0.8935 -0.0928
37274SOL    HW118872   9.993   9.053   8.033  0.2211  0.1511  0.3686
37274SOL    HW218873  10.112   8.999   8.110  2.3294  1.0072 -2.1494
37275SOL     OW18874   6.671   6.207   4.563  0.3942 -0.2346 -0.1356
37275SOL    HW118875   6.671   6.242   4.653  0.1648  0.6563 -0.4660
37275SOL    HW218876   6.761   6.219   4.533 -0.1172  2.0882 -0.9668
37276SOL     OW18877   1.423   6.309  10.904 -0.0305  0.5563  0.0063
37276SOL    HW118878   1.453   6.353  10.824 -1.4061  0.1305 -0.7781
37276SOL    HW218879   1.463   6.358  10.975  3.6534 -0.7648 -0.9271
37277SOL     OW18880   0.036   3.975   0.911  0.1487 -0.2376 -0.1040
37277SOL    HW118881   0.069   3.996   0.998  0.0753  0.7624 -0.3009
37277SOL    HW218882   0.014   3.882   0.915 -1.4884  0.1643  1.4693
37278SOL     OW18883  12.161   4.395   0.550  0.0532 -0.3072 -1.1518
37278SOL    HW118884  12.137   4.327   0.487  1.6365  0.9108 -3.1963
37278SOL    HW218885  12.248   4.369   0.581  0.1489  0.1691 -1.0085
37279SOL     OW18886   5.629   0.858   2.804 -0.2196 -0.0056  0.3401
37279SOL    HW118887   5.679   0.812   2.737 -1.7594 -0.2881 -0.6636
37279SOL    HW218888   5.621   0.947   2.771 -0.4428  0.0158  0.4481
37280SOL     OW18889   8.353   8.344   7.526 -0.1753  0.0493  0.5360
37280SOL    HW118890   8.287   8.409   7.502  0.3464  1.1781  2.0080
37280SOL    HW218891   8.437   8.386   7.506  0.1450 -0.9788 -0.3740
37281SOL     OW18892   2.212  12.245   1.192 -0.0608  0.0827  0.0768
37281SOL    HW118893   2.228  12.247   1.286 -0.2948  1.4323  0.1049
37281SOL    HW218894   2.270  12.313   1.156  0.0355 -0.4251 -0.7635
37282SOL     OW18895  12.225  10.631   5.022  0.4603 -0.8120 -0.1303
37282SOL    HW118896  12.154  10.667   4.970  1.5163  0.7929 -0.5602
37282SOL    HW218897  12.236  10.541   4.990  0.1992 -0.3014 -1.7623
37283SOL     OW18898   9.370   4.402   6.461 -0.1786  0.6187 -0.0472
37283SOL    HW118899   9.300   4.398   6.396  0.0636  0.8686 -0.3247
37283SOL    HW218900   9.395   4.311   6.475 -1.3288  0.4182  0.9023
37284SOL     OW18901   0.072   5.132   9.942  0.1566 -0.1300 -0.1762
37284SOL    HW118902   0.054   5.040   9.923 -1.3254  0.0381  0.2730
37284SOL    HW218903  -0.013   5.168   9.969  1.2724  0.6093  2.7478
37285SOL     OW18904   8.010   1.019   6.005  0.4711  0.0772  0.1664
37285SOL    HW118905   7.938   0.956   6.013  0.7319 -0.4531 -1.3845
37285SOL    HW218906   8.071   0.993   6.074 -0.5200  0.1396  1.0925
37286SOL     OW18907   8.219  11.121  12.514  0.2490  0.1999  0.0776
37286SOL    HW118908   8.204  11.213  12.538  1.3350  0.1594  0.9835
37286SOL    HW218909   8.220  11.121  12.418 -1.3461  0.8483  0.0245
37287SOL     OW18910   5.371   0.787   8.391 -0.3998  0.2081  0.0391
37287SOL    HW118911   5.397   0.763   8.302 -0.9963 -0.8491  0.1301
37287SOL    HW218912   5.322   0.869   8.381 -0.1576  0.2819 -0.5584
37288SOL     OW18913  11.622   9.426   0.159 -0.3198 -0.7985 -0.6082
37288SOL    HW118914  11.593   9.516   0.174 -1.8409 -1.5360  1.5798
37288SOL    HW218915  11.542   9.374   0.169  0.7594 -2.4940 -0.4194
37289SOL     OW18916   6.659   5.453   3.618 -0.8278 -0.0825  0.0904
37289SOL    HW118917   6.584   5.487   3.569 -0.5306 -0.4566 -0.6445
37289SOL    HW218918   6.736   5.487   3.572 -0.5378 -0.8195  0.0066
37290SOL     OW18919   2.911   7.005   3.735  0.2578  0.0484 -0.2542
37290SOL    HW118920   2.876   7.093   3.750 -0.7589 -0.3021 -0.4592
37290SOL    HW218921   2.943   7.008   3.645 -3.7311 -0.9439 -1.9444
37291SOL     OW18922   4.673   5.775   0.436  0.9007 -0.2388  0.5733
37291SOL    HW118923   4.658   5.753   0.344 -1.6527 -1.8036  1.2423
37291SOL    HW218924   4.611   5.845   0.455  1.2159 -0.1094  1.1661
37292SOL     OW18925   8.685   3.085   8.624  0.1137 -0.3318 -0.4666
37292SOL    HW118926   8.716   3.022   8.689 -0.1404  0.6138  0.6230
37292SOL    HW218927   8.614   3.040   8.578 -0.5419 -0.6176  0.7747
37293SOL     OW18928  11.983   2.349   4.418 -0.4200  0.1972 -0.2501
37293SOL    HW118929  11.899   2.307   4.440 -1.3429  1.3341 -1.4419
37293SOL    HW218930  11.959   2.437   4.391  1.3354  1.0437  0.7698
37294SOL     OW18931   3.679   3.579   8.800  0.5450  0.0639  0.5156
37294SOL    HW118932   3.597   3.619   8.771  0.7196  0.0543 -0.0147
37294SOL    HW218933   3.655   3.490   8.823  0.7664 -0.6726 -1.8189
37295SOL     OW18934   3.808   8.325   7.476 -0.1308  0.0884  0.2438
37295SOL    HW118935   3.756   8.396   7.513  0.4256  0.2901  0.6588
37295SOL    HW218936   3.806   8.339   7.382 -1.9765 -0.7057  0.1315
37296SOL     OW18937   7.300  10.488  11.157  0.2385  0.2676 -0.2720
37296SOL    HW118938   7.304  10.538  11.239 -1.3710 -2.5971  1.7338
37296SOL    HW218939   7.367  10.420  11.167  1.3277  0.9780 -2.2474
37297SOL     OW18940  10.280   5.680   9.880 -0.2108 -0.4264  0.1573
37297SOL    HW118941  10.355   5.735   9.905  0.9934 -1.5827 -0.7929
37297SOL    HW218942  10.242   5.652   9.963 -0.4508  1.2493  0.6673
37298SOL     OW18943   7.334   4.794  12.586  0.0221  0.2948  0.0439
37298SOL    HW118944   7.408   4.855  12.592  0.9231 -0.6683 -0.8345
37298SOL    HW218945   7.263   4.846  12.547  0.2622  1.1969  0.7696
37299SOL     OW18946   8.009   0.888   9.839 -0.1865  0.2937 -0.3193
37299SOL    HW118947   8.064   0.828   9.789 -0.6015 -0.0182 -0.4066
37299SOL    HW218948   7.920   0.863   9.817 -0.4043 -0.4709  1.2903
37300SOL     OW18949   9.971   0.896   0.242 -0.0481 -0.1794 -0.7527
37300SOL    HW118950   9.997   0.808   0.216  0.0724 -0.4189  0.1445
37300SOL    HW218951   9.988   0.950   0.165 -2.2066 -1.3065 -2.1069
37301SOL     OW18952   4.864   5.011  11.836 -0.1102 -0.4232 -0.4183
37301SOL    HW118953   4.919   4.968  11.771 -0.0011 -0.3983 -0.3419
37301SOL    HW218954   4.857   4.948  11.908  1.3265  0.2834  0.3791
37302SOL     OW18955   3.294   6.905   3.445  0.1319 -0.0008  0.4393
37302SOL    HW118956   3.275   6.841   3.377 -0.0625 -0.0175  0.5085
37302SOL    HW218957   3.285   6.856   3.527 -0.9378  0.3339  0.5373
37303SOL     OW18958   0.870   5.433   5.432  0.3385  0.1774  0.2133
37303SOL    HW118959   0.866   5.513   5.485  2.3178  0.3674  0.1165
37303SOL    HW218960   0.931   5.377   5.478 -0.0090 -0.7630 -0.4481
37304SOL     OW18961   5.139   6.395   1.595 -0.1893 -0.2783 -0.5547
37304SOL    HW118962   5.062   6.442   1.563 -0.4969 -1.0667 -1.0006
37304SOL    HW218963   5.202   6.464   1.616 -1.3577  0.4317  0.7751
37305SOL     OW18964  12.328   4.517   5.001  0.5976  0.5375 -0.1704
37305SOL    HW118965  12.265   4.586   4.984  1.3485  1.2119 -0.2789
37305SOL    HW218966  12.286   4.437   4.969  0.2464  1.1373 -1.2514
37306SOL     OW18967   8.450   7.519  11.039  0.3706 -0.1232  0.3192
37306SOL    HW118968   8.383   7.495  11.103 -2.3948 -0.8413 -2.5885
37306SOL    HW218969   8.476   7.436  10.999 -0.1846  0.5190 -1.4698
37307SOL     OW18970  11.929   7.480   5.417 -0.6908 -0.5801 -0.0325
37307SOL    HW118971  11.991   7.498   5.487  0.0094  1.8144 -1.1622
37307SOL    HW218972  11.981   7.442   5.347 -0.1551  2.2888 -1.3414
37308SOL     OW18973   9.685  12.199   2.105 -0.0427 -0.0675 -0.3751
37308SOL    HW118974   9.735  12.226   2.028  0.9345  0.5109  0.4317
37308SOL    HW218975   9.662  12.108   2.089  0.5245 -0.0791 -1.1621
37309SOL     OW18976   7.360   5.194  11.914  0.0587  0.0360  0.0881
37309SOL    HW118977   7.354   5.288  11.900  2.7183  0.0090 -2.1397
37309SOL    HW218978   7.351   5.183  12.008 -1.0317  2.4152  0.3292
37310SOL     OW18979   5.933   7.794   0.497 -0.9015  0.4153  0.0165
37310SOL    HW118980   5.993   7.861   0.530 -1.6929  2.0696 -1.7250
37310SOL    HW218981   5.879   7.771   0.572  1.2059 -0.3847  1.3692
37311SOL     OW18982  11.894  12.128   5.376  0.0543 -0.2444  0.3064
37311SOL    HW118983  11.826  12.128   5.309 -0.4525 -0.4054  0.8167
37311SOL    HW218984  11.966  12.177   5.336 -0.0676 -0.7187 -0.5285
37312SOL     OW18985   9.091  11.039   5.340  0.7753 -0.3356  0.0211
37312SOL    HW118986   9.133  11.119   5.308  1.5315 -0.2666  1.1123
37312SOL    HW218987   9.149  10.969   5.311  1.2270 -0.3083  0.8408
37313SOL     OW18988   3.438   2.340   2.603 -0.1473  0.0860  0.0819
37313SOL    HW118989   3.449   2.435   2.605  1.0359 -0.0035 -0.9269
37313SOL    HW218990   3.509   2.306   2.657 -0.0473 -0.2564 -0.2622
37314SOL     OW18991   5.127   7.175   5.776 -0.5330  0.1238 -0.5158
37314SOL    HW118992   5.102   7.217   5.858 -3.4351 -2.5603  0.1883
37314SOL    HW218993   5.044   7.158   5.731  0.7861 -0.8108 -2.8091
37315SOL     OW18994   0.635   9.624   6.099  0.0873  0.0274 -0.5870
37315SOL    HW118995   0.584   9.696   6.134 -0.6783  0.2598 -2.1227
37315SOL    HW218996   0.585   9.546   6.121  0.7598 -0.0361  0.8012
37316SOL     OW18997   8.785   5.824  11.220  0.1679  0.1252 -0.1755
37316SOL    HW118998   8.760   5.795  11.133  2.9264  0.7971 -1.3000
37316SOL    HW218999   8.749   5.912  11.227  0.4843  0.3244 -0.9276
37317SOL     OW19000  11.453   3.464   3.607 -0.3213 -0.2410 -0.7339
37317SOL    HW119001  11.473   3.549   3.568  0.5504 -0.0040  0.2073
37317SOL    HW219002  11.462   3.402   3.535 -0.8843  0.4477 -1.4117
37318SOL     OW19003  10.260  11.445   9.271  0.0359 -0.0149  0.1790
37318SOL    HW119004  10.270  11.538   9.288 -1.5559  0.2864 -0.3689
37318SOL    HW219005  10.194  11.440   9.201  0.8951 -1.5009 -0.5819
37319SOL     OW19006   0.639   6.371  11.153 -0.4127  0.1979 -0.7924
37319SOL    HW119007   0.638   6.437  11.223  0.0174 -1.6227  1.0086
37319SOL    HW219008   0.729   6.373  11.120 -0.6446  1.1387 -1.4141
37320SOL     OW19009  10.168  10.324  11.404 -0.4952 -0.1536 -0.0614
37320SOL    HW119010  10.073  10.329  11.392 -0.7253 -1.6909  0.8078
37320SOL    HW219011  10.204  10.330  11.316 -1.2433  2.3243 -0.2666
37321SOL     OW19012   7.599   1.125   9.518  0.2246  0.0429 -0.0427
37321SOL    HW119013   7.626   1.076   9.440 -1.9563 -2.7860  0.7925
37321SOL    HW219014   7.555   1.203   9.484 -0.5791 -1.0697 -1.6899
37322SOL     OW19015  12.526   6.098   1.805  0.3345 -0.2083  0.2966
37322SOL    HW119016  12.492   6.131   1.887 -1.7730 -0.2326 -0.5106
37322SOL    HW219017  12.518   6.003   1.812  1.3038 -0.2875  0.5089
37323SOL     OW19018   5.714   8.814   3.814 -0.9103 -0.1467  0.9124
37323SOL    HW119019   5.645   8.867   3.776 -0.4338 -0.8801 -1.1058
37323SOL    HW219020   5.673   8.729   3.830 -0.6591 -0.3676  0.3879
37324SOL     OW19021   2.959   0.228   2.792  0.1815 -0.9117 -0.0167
37324SOL    HW119022   2.986   0.266   2.709 -0.5587  1.8125  0.9060
37324SOL    HW219023   3.040   0.222   2.843  0.1857  0.3712  0.1513
37325SOL     OW19024   5.746  10.185   9.955  0.0948  0.7283  0.2543
37325SOL    HW119025   5.703  10.261   9.993  0.4582  0.7447  0.6454
37325SOL    HW219026   5.815  10.221   9.900  0.8874  0.6778  1.1906
37326SOL     OW19027   2.779   5.140   2.764  0.2035 -0.5202 -0.5903
37326SOL    HW119028   2.751   5.057   2.803 -0.5716  0.0664  0.1515
37326SOL    HW219029   2.781   5.123   2.670 -2.4687 -0.7090 -0.6949
37327SOL     OW19030   2.024   4.038   0.226  0.0091 -0.2874 -0.4447
37327SOL    HW119031   1.948   4.094   0.237 -0.7425 -1.4067  0.2657
37327SOL    HW219032   2.096   4.086   0.266 -0.3535  0.6926 -0.9445
37328SOL     OW19033   8.067   4.305   3.352  1.2566 -0.1653  0.4906
37328SOL    HW119034   7.977   4.309   3.385  1.4710 -0.7289  1.1529
37328SOL    HW219035   8.058   4.324   3.258  0.4050 -0.5356  0.4864
37329SOL     OW19036   6.457   6.791   0.825  0.1470  0.2718  0.2504
37329SOL    HW119037   6.384   6.846   0.852  1.3885  1.4581  1.3292
37329SOL    HW219038   6.500   6.765   0.907 -0.2781 -2.1992 -0.2190
37330SOL     OW19039   6.806   7.356  11.788 -0.4452  0.1018 -0.3827
37330SOL    HW119040   6.849   7.321  11.865 -2.7336 -1.8394  0.1527
37330SOL    HW219041   6.858   7.432  11.763  0.2507  0.9746  3.2042
37331SOL     OW19042  12.200   3.649   9.403  0.3711  0.7168  0.1952
37331SOL    HW119043  12.158   3.564   9.421  0.3650  0.6335 -0.1970
37331SOL    HW219044  12.267   3.657   9.471  2.0952 -0.7877 -1.1841
37332SOL     OW19045   6.973   2.390   1.465  0.0279  0.6292  0.1808
37332SOL    HW119046   6.904   2.375   1.400 -0.7749  2.8370  0.4240
37332SOL    HW219047   7.042   2.436   1.416  0.3405  0.4345  0.4359
37333SOL     OW19048   1.907   7.733  10.219 -0.1000  0.1448  0.1416
37333SOL    HW119049   1.948   7.716  10.304 -1.8195 -1.3497  0.7439
37333SOL    HW219050   1.820   7.766  10.241  0.0543  1.4515 -1.0791
37334SOL     OW19051  12.514  12.482  10.057  0.1439  0.0210 -0.2136
37334SOL    HW119052  12.554  12.520   9.980 -0.2303  0.1218 -0.3626
37334SOL    HW219053  12.473  12.556  10.102  0.0373 -0.0937 -0.1189
37335SOL     OW19054  11.410   5.389   7.641 -1.0241 -0.0851 -0.2752
37335SOL    HW119055  11.429   5.334   7.718 -0.5891 -0.7437 -0.8377
37335SOL    HW219056  11.322   5.363   7.614 -0.6276 -0.8986 -0.8411
37336SOL     OW19057   1.364   7.308   3.449 -0.2524 -0.9043  0.5449
37336SOL    HW119058   1.281   7.346   3.421 -0.5969 -2.3272 -0.4965
37336SOL    HW219059   1.428   7.378   3.438 -1.2058  0.0161  0.7457
37337SOL     OW19060   3.078   3.584   2.449 -0.1907 -0.3768  0.2041
37337SOL    HW119061   3.055   3.616   2.362  0.2878 -0.8519 -0.1053
37337SOL    HW219062   3.014   3.625   2.507 -1.5025 -1.2510 -0.5591
37338SOL     OW19063   3.214  10.848  10.049  0.3470  0.4540  0.2746
37338SOL    HW119064   3.193  10.902  10.125  1.2737  0.7465  0.3273
37338SOL    HW219065   3.197  10.758  10.078  0.1062  0.6089  0.6179
37339SOL     OW19066   5.918   7.377   8.296  0.5432  0.2118  0.2547
37339SOL    HW119067   5.895   7.426   8.375 -0.5640  0.3009 -0.1126
37339SOL    HW219068   5.840   7.382   8.240  1.2275 -0.0474 -0.7517
37340SOL     OW19069  11.236   8.684   0.387 -0.2527  0.1744  0.8397
37340SOL    HW119070  11.236   8.668   0.292 -2.7752  1.7708  0.4949
37340SOL    HW219071  11.164   8.632   0.420 -0.7908  1.3370  1.5297
37341SOL     OW19072  11.039  12.044   3.795  0.1602  0.1627  0.2574
37341SOL    HW119073  10.980  12.069   3.724  0.7773  2.4673  0.4763
37341SOL    HW219074  11.051  12.124   3.846 -0.0658 -1.3438  2.8655
37342SOL     OW19075   3.974  10.162  10.279  0.5729  0.3713  0.0639
37342SOL    HW119076   4.035  10.236  10.274  0.8579  0.0678 -1.5443
37342SOL    HW219077   3.995  10.109  10.202  0.5249 -1.5156  1.2812
37343SOL     OW19078   6.261   5.856  12.097 -0.4158  0.1917 -0.6593
37343SOL    HW119079   6.356   5.850  12.089 -0.5600 -2.0687 -1.5953
37343SOL    HW219080   6.246   5.880  12.189  1.0846 -1.4835  0.0970
37344SOL     OW19081   8.985   4.136   5.207  0.1131 -0.1402 -0.0577
37344SOL    HW119082   8.906   4.094   5.240  0.7766 -0.9312  0.5494
37344SOL    HW219083   8.959   4.171   5.121 -1.1188  0.3607  0.4932
37345SOL     OW19084   6.114  11.036  11.893  0.2874 -0.6150  0.1094
37345SOL    HW119085   6.150  11.050  11.981  0.3016 -0.4348  0.0749
37345SOL    HW219086   6.086  10.945  11.893 -1.0839 -0.2099  0.7988
37346SOL     OW19087   5.262  10.453   0.447 -0.0255  0.4880 -0.3279
37346SOL    HW119088   5.208  10.374   0.455 -0.8267  1.0838  0.3764
37346SOL    HW219089   5.341  10.434   0.497 -1.0988  0.8490  1.6077
37347SOL     OW19090  11.178   9.197   2.978  0.9328 -0.3297 -0.0873
37347SOL    HW119091  11.220   9.219   3.061  0.3101  1.2982 -0.1548
37347SOL    HW219092  11.180   9.279   2.928  0.3251 -0.9942 -1.2560
37348SOL     OW19093  10.117  12.327  10.883 -0.4113  0.2056 -0.3540
37348SOL    HW119094  10.181  12.363  10.822 -0.1989 -1.2054 -1.0075
37348SOL    HW219095  10.065  12.266  10.831 -1.2737  0.1605  0.5200
37349SOL     OW19096   8.159   7.068   7.809  0.0507  0.6313  0.3271
37349SOL    HW119097   8.169   6.974   7.791 -0.9696  0.2543  1.5161
37349SOL    HW219098   8.247   7.097   7.831  0.5910  0.2376 -1.2503
37350SOL     OW19099   5.681   2.834   5.985  0.1243 -0.0344  0.4462
37350SOL    HW119100   5.749   2.900   5.994 -0.8102  1.2303 -1.1651
37350SOL    HW219101   5.611   2.863   6.044 -0.6590  0.9871 -0.9245
37351SOL     OW19102   7.811   5.484   3.899 -0.2692  0.5339  0.5975
37351SOL    HW119103   7.792   5.512   3.988 -1.7467  1.0990  0.1437
37351SOL    HW219104   7.836   5.563   3.853 -0.7925  0.4798  0.2078
37352SOL     OW19105   7.243   9.355  10.000  0.2396  0.4752 -0.8543
37352SOL    HW119106   7.168   9.317  10.046 -0.2141  1.0869 -1.0771
37352SOL    HW219107   7.262   9.436  10.048  1.1986 -0.0162 -0.3769
37353SOL     OW19108   8.386  11.188   6.217  0.3180 -0.3717  0.2272
37353SOL    HW119109   8.432  11.161   6.137 -0.9977  0.0763 -0.7171
37353SOL    HW219110   8.297  11.208   6.188  0.0858  0.8100  1.6402
37354SOL     OW19111  11.949   2.358   4.088 -0.0054  0.5843  0.3855
37354SOL    HW119112  11.853   2.362   4.093  0.0444  0.4481  2.1875
37354SOL    HW219113  11.978   2.429   4.145  0.9486 -0.7845  1.6536
37355SOL     OW19114   1.668   5.831  10.561  0.6057 -0.1417  0.3508
37355SOL    HW119115   1.645   5.919  10.590  1.8297 -0.3115  2.0039
37355SOL    HW219116   1.675   5.838  10.466 -1.4938  0.9809  0.2240
37356SOL     OW19117   4.644  11.587   2.424  0.1468  0.6399 -0.2081
37356SOL    HW119118   4.651  11.520   2.356  0.8916  1.5172 -1.0321
37356SOL    HW219119   4.713  11.565   2.487  0.7848  0.9601 -0.7854
37357SOL     OW19120   9.092   8.579   2.382 -0.4775  0.1454 -0.3310
37357SOL    HW119121   9.081   8.488   2.354 -3.5286  0.4026 -0.3120
37357SOL    HW219122   9.107   8.574   2.476  2.8031 -0.4079 -0.7850
37358SOL     OW19123   0.710   2.174  10.935 -0.1376 -0.4336 -0.2605
37358SOL    HW119124   0.793   2.180  10.983 -1.5495 -0.6894  2.3490
37358SOL    HW219125   0.724   2.104  10.872  1.9294  0.2046 -0.5952
37359SOL     OW19126   8.985   0.438   5.497 -0.1536  0.4810 -0.0045
37359SOL    HW119127   8.909   0.417   5.442 -0.2213 -0.7925  0.5444
37359SOL    HW219128   9.056   0.452   5.435 -0.8962  2.0998 -0.5494
37360SOL     OW19129   0.931   2.208   8.055  0.2685 -0.5976 -0.4549
37360SOL    HW119130   0.986   2.189   7.979 -0.7957 -1.7554 -0.9615
37360SOL    HW219131   0.985   2.184   8.130  0.3127 -2.1847 -0.9643
37361SOL     OW19132   1.266  10.924   3.930  0.1605  0.0415 -0.2591
37361SOL    HW119133   1.202  10.945   3.998 -0.7381 -0.2237 -1.0063
37361SOL    HW219134   1.325  10.861   3.972  0.3433  0.8038  0.6516
37362SOL     OW19135  10.979   4.031   3.676  0.3856 -0.2943 -0.2828
37362SOL    HW119136  10.998   4.048   3.768  0.6925 -0.7233 -0.2636
37362SOL    HW219137  10.903   3.974   3.676 -1.4593  2.0219 -0.3774
37363SOL     OW19138   3.626   2.817  10.889 -0.6357  0.0636  0.5977
37363SOL    HW119139   3.574   2.736  10.892  0.3314 -0.7131 -1.6435
37363SOL    HW219140   3.714   2.788  10.866 -0.4839  1.7961 -1.2713
37364SOL     OW19141   6.940   2.708   3.013 -0.2007  0.5106 -0.2513
37364SOL    HW119142   6.897   2.790   3.038 -0.2514 -0.2290  2.4214
37364SOL    HW219143   6.868   2.649   2.991 -0.6598 -0.3320  2.9763
37365SOL     OW19144   6.773  11.311  12.450  0.4005  0.2694  0.1070
37365SOL    HW119145   6.866  11.328  12.462  0.3144  0.4664  0.4940
37365SOL    HW219146   6.762  11.219  12.472  0.7929 -0.2325 -1.5839
37366SOL     OW19147   4.757   0.554   5.879  0.0415 -0.4062  0.6348
37366SOL    HW119148   4.719   0.639   5.903  1.5834 -0.0117  1.9176
37366SOL    HW219149   4.787   0.517   5.962  1.1074 -1.3208 -0.1253
37367SOL     OW19150   2.712   6.659   4.728  0.2026  0.0347 -0.5076
37367SOL    HW119151   2.728   6.735   4.784  1.2140 -1.9367  2.1575
37367SOL    HW219152   2.637   6.615   4.768  0.3698 -0.9724 -1.2388
37368SOL     OW19153   8.248   0.643   6.311  0.2960 -0.3963  0.0078
37368SOL    HW119154   8.225   0.687   6.393  1.5101  2.9560 -1.2837
37368SOL    HW219155   8.344   0.641   6.311  0.3047 -0.8836 -1.0824
37369SOL     OW19156   7.106   7.844   8.315 -0.0543  0.2011 -0.1097
37369SOL    HW119157   7.174   7.911   8.310  0.6444 -0.2090  2.4748
37369SOL    HW219158   7.150   7.762   8.292  1.3159 -0.5610  4.2469
37370SOL     OW19159   2.113   0.847   6.420  0.1929 -0.1114 -0.1187
37370SOL    HW119160   2.102   0.786   6.347  1.0985  0.4867 -0.7841
37370SOL    HW219161   2.197   0.822   6.459 -0.7074 -1.0311  1.3417
37371SOL     OW19162  10.287   1.379   6.317 -0.1571  0.1119 -0.4655
37371SOL    HW119163  10.261   1.373   6.225  1.4490 -0.2658 -0.9234
37371SOL    HW219164  10.214   1.424   6.359 -1.6186 -1.0588 -1.6208
37372SOL     OW19165   9.740  10.680   7.034 -0.7481  0.0630  0.7224
37372SOL    HW119166   9.659  10.636   7.011 -0.6245  0.9179 -1.5860
37372SOL    HW219167   9.739  10.761   6.983  2.3448 -0.7291 -0.8503
37373SOL     OW19168   0.599   5.075  12.567 -0.0929  0.2013 -0.0343
37373SOL    HW119169   0.567   5.150  12.617 -0.0421  0.9479 -1.0904
37373SOL    HW219170   0.614   5.110  12.479  2.2097 -0.4337  0.0241
37374SOL     OW19171   8.527   5.534  11.659  0.1902  0.3038  0.7848
37374SOL    HW119172   8.586   5.469  11.621  2.1228  2.2989  0.2105
37374SOL    HW219173   8.576   5.572  11.732 -0.2287  2.2284  0.1146
37375SOL     OW19174   4.662   9.751  11.060 -0.5340  0.5093  0.2436
37375SOL    HW119175   4.708   9.667  11.058  0.9898  1.3084  0.2033
37375SOL    HW219176   4.577   9.731  11.098 -0.3311 -1.1079 -0.0800
37376SOL     OW19177   1.793   3.700  10.069  0.4798 -0.0811  0.2906
37376SOL    HW119178   1.806   3.605  10.065 -0.8659 -0.2534 -0.5502
37376SOL    HW219179   1.810   3.723  10.160  3.8234 -0.6252 -0.0462
37377SOL     OW19180   6.225   0.202  11.621 -0.3767  0.9027 -0.4439
37377SOL    HW119181   6.225   0.161  11.534 -0.4152  0.8713 -0.4286
37377SOL    HW219182   6.265   0.288  11.606  0.5242  0.5170 -0.3138
37378SOL     OW19183   6.269   5.551  10.170 -0.0327 -0.1293  0.6338
37378SOL    HW119184   6.174   5.557  10.175  0.0159  1.1002  0.4863
37378SOL    HW219185   6.288   5.538  10.077 -0.0152  0.8905  0.4887
37379SOL     OW19186  11.664   8.200  10.800 -0.2767  0.0397  0.2270
37379SOL    HW119187  11.686   8.291  10.778  0.8470  0.2522  2.0236
37379SOL    HW219188  11.636   8.204  10.891  0.3898 -1.5013  0.5231
37380SOL     OW19189   9.417   7.689   9.006  0.1185  0.2738  0.2528
37380SOL    HW119190   9.424   7.616   9.067  1.0657  0.6488  0.6111
37380SOL    HW219191   9.324   7.694   8.985 -0.2494  0.2138  1.7622
37381SOL     OW19192   7.240   4.265   9.618  0.0472 -0.0358 -0.8865
37381SOL    HW119193   7.334   4.280   9.625  0.2120 -0.6841 -1.5945
37381SOL    HW219194   7.230   4.206   9.543 -0.7610 -1.4924  0.3115
37382SOL     OW19195  12.181  12.132   0.146 -0.0822  0.6982 -0.4855
37382SOL    HW119196  12.141  12.216   0.165  0.6033  0.9253 -0.0300
37382SOL    HW219197  12.209  12.138   0.054  0.4150  1.1534 -0.3081
37383SOL     OW19198   5.351   0.749   3.689  0.4529  0.0644  0.4143
37383SOL    HW119199   5.275   0.693   3.700  0.7906 -0.4765  0.0612
37383SOL    HW219200   5.324   0.815   3.625  0.6612 -0.8521 -0.6451
37384SOL     OW19201   4.608   8.555   2.065  0.0499  0.5772  0.4123
37384SOL    HW119202   4.556   8.498   2.009  0.2645  1.3527 -0.6072
37384SOL    HW219203   4.699   8.537   2.040  0.2400 -0.0569  1.4908
37385SOL     OW19204   8.575   3.698   8.837 -0.2498  0.0059 -0.3169
37385SOL    HW119205   8.634   3.741   8.900 -0.1557 -1.2107  0.4599
37385SOL    HW219206   8.626   3.624   8.803 -0.0756  0.9887 -2.3246
37386SOL     OW19207   7.196   6.726   0.834  0.1049  0.9052  0.3429
37386SOL    HW119208   7.193   6.752   0.742  0.3812 -0.0041  0.0640
37386SOL    HW219209   7.288   6.734   0.858 -0.1245  2.1585  0.8577
37387SOL     OW19210   7.172  11.137   4.302 -0.1145 -0.5008 -0.2949
37387SOL    HW119211   7.079  11.154   4.287 -0.4606 -0.6982  1.4184
37387SOL    HW219212   7.215  11.218   4.277 -0.7033 -0.4783 -1.3165
37388SOL     OW19213   3.651   2.651   3.621  0.2304  0.0824 -0.1067
37388SOL    HW119214   3.613   2.644   3.533 -0.8943  2.2117  0.1367
37388SOL    HW219215   3.699   2.733   3.620 -0.1916  0.3736  1.4045
37389SOL     OW19216  11.668   2.607  11.888 -0.3462 -0.3657 -0.1220
37389SOL    HW119217  11.675   2.683  11.829  0.2930 -0.2291  0.1246
37389SOL    HW219218  11.590   2.626  11.941  0.1089  0.3868  0.3050
37390SOL     OW19219   1.013   3.870  10.207 -0.3488  0.8072 -0.4951
37390SOL    HW119220   1.053   3.948  10.171 -0.0428  0.9635  0.1758
37390SOL    HW219221   1.084   3.806  10.211 -0.0969  1.1379  0.8513
37391SOL     OW19222   7.946   9.492  12.094  0.1313 -0.0933 -0.1872
37391SOL    HW119223   7.960   9.578  12.055  0.1773  0.1908  0.4606
37391SOL    HW219224   7.852   9.489  12.111  0.1923 -0.0133  0.1643
37392SOL     OW19225  10.499   2.216   0.709  0.0667  0.2657 -0.1374
37392SOL    HW119226  10.574   2.157   0.698  1.1957  1.6516 -0.0936
37392SOL    HW219227  10.538   2.303   0.719 -1.5555  1.0145 -0.0653
37393SOL     OW19228   8.962   5.404   2.008 -0.0199 -0.3800 -0.0707
37393SOL    HW119229   9.015   5.476   2.043  2.3714 -0.7164 -2.6401
37393SOL    HW219230   8.995   5.326   2.053  0.6837 -0.4079 -0.6216
37394SOL     OW19231  10.920  11.819   4.881 -0.5736 -0.7407  0.2591
37394SOL    HW119232  10.957  11.730   4.887 -0.6386 -0.8468 -0.6765
37394SOL    HW219233  10.867  11.817   4.801  0.4323  0.5012 -0.4789
37395SOL     OW19234   1.404   8.178   5.377 -0.5829  0.1934 -0.4762
37395SOL    HW119235   1.409   8.155   5.284 -0.6572 -0.8723 -0.2352
37395SOL    HW219236   1.355   8.106   5.416  1.0640 -0.3562  0.6868
37396SOL     OW19237   8.937   7.485  12.043  0.3056 -0.2441  0.7782
37396SOL    HW119238   9.020   7.533  12.045  1.8232 -2.6996  1.8343
37396SOL    HW219239   8.924   7.464  11.950  1.3868 -0.5691  0.6783
37397SOL     OW19240   8.905   7.501   2.069  0.2180 -0.3858  0.4962
37397SOL    HW119241   8.816   7.527   2.093  0.0829 -0.0767 -0.2944
37397SOL    HW219242   8.962   7.552   2.128 -0.0366  1.8938 -1.0852
37398SOL     OW19243  12.388   1.300   3.311 -0.0707 -0.1316 -0.2733
37398SOL    HW119244  12.383   1.359   3.236  1.6746  0.3451 -0.0674
37398SOL    HW219245  12.313   1.324   3.366  0.2221  1.4564 -0.5187
37399SOL     OW19246   2.016   2.610   2.478  0.5902  0.2142 -0.0434
37399SOL    HW119247   2.003   2.606   2.383 -1.7066  1.3021  0.1499
37399SOL    HW219248   2.026   2.519   2.504  2.8495 -0.0279 -1.4546
37400SOL     OW19249   6.254   4.053   1.674  0.3300  0.0148 -0.3729
37400SOL    HW119250   6.300   3.989   1.728 -0.1896 -1.3502 -1.4829
37400SOL    HW219251   6.170   4.066   1.717  0.2179 -0.4841 -0.4343
37401SOL     OW19252   3.628   3.447   1.407 -0.4220  0.0579  0.6061
37401SOL    HW119253   3.618   3.377   1.342  2.2947  0.2460 -0.1030
37401SOL    HW219254   3.587   3.523   1.366 -0.5438 -0.3191  0.0174
37402SOL     OW19255   0.435   2.775   5.021 -0.2165 -0.3178  0.2203
37402SOL    HW119256   0.471   2.862   5.005 -0.2513 -0.3331  0.0462
37402SOL    HW219257   0.471   2.721   4.950  0.5842 -0.6761  0.8952
37403SOL     OW19258   7.767   1.963   8.918 -0.2420 -0.4937  0.5935
37403SOL    HW119259   7.672   1.973   8.906 -0.5385 -2.2234  1.0969
37403SOL    HW219260   7.775   1.884   8.972  1.5671 -2.9163 -2.8090
37404SOL     OW19261   4.319   9.918   8.957  0.1338  0.3036 -0.3976
37404SOL    HW119262   4.277   9.927   9.043 -0.5513  1.6360 -0.8440
37404SOL    HW219263   4.326   9.823   8.944  1.0064  0.0588  1.4698
37405SOL     OW19264   4.300   5.622  11.997  0.5607  0.5911 -0.0842
37405SOL    HW119265   4.263   5.573  12.071 -1.5019  0.1509 -1.3128
37405SOL    HW219266   4.227   5.675  11.965  1.7184  1.6170 -1.1170
37406SOL     OW19267   1.057  12.440   3.847 -0.5667 -0.3921  0.5413
37406SOL    HW119268   1.130  12.496   3.822  0.1080 -1.3635  0.3052
37406SOL    HW219269   1.008  12.426   3.766 -0.0617 -1.1082  0.3547
37407SOL     OW19270   9.435   9.889   5.589 -0.5380 -0.2939  0.0412
37407SOL    HW119271   9.492   9.821   5.555 -1.3993 -0.4999 -1.0311
37407SOL    HW219272   9.470   9.908   5.676  0.9322 -0.6659 -0.4342
37408SOL     OW19273  11.487   4.266   3.177 -0.0670 -0.5707  0.2662
37408SOL    HW119274  11.461   4.202   3.243 -0.1199 -0.1906  0.6164
37408SOL    HW219275  11.564   4.309   3.214 -0.5115  0.1308  0.3892
37409SOL     OW19276   5.478   1.901   1.044  0.0602 -0.6572 -0.1842
37409SOL    HW119277   5.564   1.904   1.003 -0.5736 -1.2676 -1.6341
37409SOL    HW219278   5.463   1.989   1.077  0.3677  0.0355 -1.8224
37410SOL     OW19279   6.495   8.669   8.077  0.2208 -0.0087  0.3224
37410SOL    HW119280   6.489   8.693   8.169 -1.2967  2.3631 -0.3211
37410SOL    HW219281   6.583   8.696   8.050  0.4194 -0.0810  0.8956
37411SOL     OW19282  11.512   3.839  10.666 -0.3437 -0.4769  0.2258
37411SOL    HW119283  11.570   3.797  10.603 -1.7374 -1.9567 -0.1189
37411SOL    HW219284  11.432   3.856  10.617 -0.4841  0.9356  0.8733
37412SOL     OW19285   0.812   3.981   4.013 -0.1975 -0.4947 -0.3234
37412SOL    HW119286   0.750   3.973   4.086 -0.9550 -1.4026 -1.0508
37412SOL    HW219287   0.879   3.915   4.031 -0.4085 -0.7493 -0.4738
37413SOL     OW19288  11.315   3.577   3.267 -0.9881 -0.0353 -0.5620
37413SOL    HW119289  11.348   3.661   3.235  1.8264 -0.2728  1.2843
37413SOL    HW219290  11.287   3.595   3.357 -0.0910 -1.0422 -0.0428
37414SOL     OW19291   5.512   3.073   6.185  0.3457 -0.4774  0.4326
37414SOL    HW119292   5.451   3.044   6.117  1.1762 -0.3271 -0.3940
37414SOL    HW219293   5.593   3.091   6.138  1.9713 -3.3727  1.8580
37415SOL     OW19294  11.936   3.648  11.151 -0.6676 -0.0540 -0.1003
37415SOL    HW119295  11.976   3.652  11.065  0.2161  0.3362  0.3181
37415SOL    HW219296  11.951   3.558  11.181 -1.4624 -0.3562 -0.5649
37416SOL     OW19297   5.472   1.578  11.589  0.3267 -0.0087  0.2752
37416SOL    HW119298   5.518   1.660  11.606 -1.2566  1.2663 -1.2148
37416SOL    HW219299   5.541   1.517  11.563  1.5529  0.7764  1.5679
37417SOL     OW19300   8.297  10.144   9.707 -0.2133  0.4951 -0.5701
37417SOL    HW119301   8.350  10.199   9.649  0.4332  1.4187  0.8445
37417SOL    HW219302   8.331  10.055   9.695  1.4806  1.0282  0.0880
37418SOL     OW19303   3.644   8.105   8.142  0.1311 -0.1176 -0.1707
37418SOL    HW119304   3.555   8.110   8.107  0.3065 -1.3848 -0.8689
37418SOL    HW219305   3.632   8.104   8.237 -0.6940 -1.2595 -0.2591
37419SOL     OW19306   1.256  11.391   6.724  0.1759 -0.0115 -0.1104
37419SOL    HW119307   1.258  11.394   6.820  0.9645  2.7053 -0.1391
37419SOL    HW219308   1.224  11.477   6.697  1.8176  0.0142 -2.2970
37420SOL     OW19309   3.683   8.197   2.611  0.3043 -0.4515  0.1129
37420SOL    HW119310   3.664   8.140   2.686  0.7560  1.0660  1.4426
37420SOL    HW219311   3.779   8.197   2.604  0.4785  1.7151  1.4961
37421SOL     OW19312   7.721   9.291  11.466  0.1198 -0.2817  0.2113
37421SOL    HW119313   7.754   9.349  11.398 -2.8119  0.9303 -0.3199
37421SOL    HW219314   7.693   9.213  11.419  0.7823 -0.6831  0.4644
37422SOL     OW19315   1.641   9.640   1.417  0.0100 -0.0590  0.0914
37422SOL    HW119316   1.615   9.730   1.436  0.6917  0.2235 -0.2820
37422SOL    HW219317   1.565   9.588   1.441  0.4324  0.3539  2.6785
37423SOL     OW19318   9.637   1.312   8.068 -0.3819 -0.8022  0.2631
37423SOL    HW119319   9.669   1.316   7.978  1.2280 -0.5543  0.8171
37423SOL    HW219320   9.580   1.388   8.077 -0.7386 -0.9579 -0.6094
37424SOL     OW19321  12.292   8.818   9.855  0.4294  0.1742  0.1278
37424SOL    HW119322  12.242   8.861   9.785  0.9874 -0.8400 -0.9315
37424SOL    HW219323  12.310   8.887   9.918  0.2684  1.2200 -0.9445
37425SOL     OW19324   0.550   4.185   0.180  0.3217  0.0338  0.1387
37425SOL    HW119325   0.644   4.189   0.196  0.6485  0.4903 -1.6652
37425SOL    HW219326   0.511   4.235   0.252  1.4932  0.4133  0.5354
37426SOL     OW19327   3.995   0.314   4.793 -0.0245 -0.4997  0.2080
37426SOL    HW119328   3.984   0.385   4.857 -0.5681 -1.4333  1.1671
37426SOL    HW219329   4.057   0.349   4.730  0.5279  0.4521  1.2467
37427SOL     OW19330  10.935  11.152   7.604  0.4750 -0.2795 -0.1433
37427SOL    HW119331  10.845  11.171   7.576  0.9090 -0.2206 -1.6115
37427SOL    HW219332  10.937  11.177   7.696 -1.2660 -1.2008  0.1827
37428SOL     OW19333   2.833   4.886  12.529  0.3164 -0.4745  0.1798
37428SOL    HW119334   2.754   4.891  12.584 -0.2856 -2.3225 -0.4146
37428SOL    HW219335   2.896   4.944  12.572 -0.6540 -0.6152  1.9211
37429SOL     OW19336  11.361  10.767   0.850 -0.4736 -0.6994 -0.1444
37429SOL    HW119337  11.416  10.730   0.781 -1.1794 -2.1622  0.0290
37429SOL    HW219338  11.350  10.695   0.913 -0.1442  0.4929  1.3195
37430SOL     OW19339   1.502   0.628   4.420  0.1641 -0.0340 -0.4595
37430SOL    HW119340   1.569   0.676   4.467  1.5347 -0.2314 -2.1164
37430SOL    HW219341   1.546   0.595   4.342 -1.2216 -2.2989 -0.3807
37431SOL     OW19342   2.262   5.981   1.713  0.4350 -0.0437 -0.2413
37431SOL    HW119343   2.184   6.013   1.666  0.1659 -1.2057 -0.6118
37431SOL    HW219344   2.304   6.061   1.745 -1.6486  0.5536  1.1921
37432SOL     OW19345   3.204   0.566  11.725 -0.7180 -0.3608  0.3635
37432SOL    HW119346   3.247   0.529  11.802 -0.9826  1.4301  1.4212
37432SOL    HW219347   3.148   0.495  11.693  0.3213 -1.5463  1.0749
37433SOL     OW19348   6.012   9.048   0.668  0.5938  1.0215  0.3789
37433SOL    HW119349   6.021   9.083   0.579 -0.1611  0.1602 -0.0463
37433SOL    HW219350   5.918   9.040   0.681  0.7217 -1.3877  0.2376
37434SOL     OW19351  11.376  10.751   0.047  0.2205 -0.5150 -0.5104
37434SOL    HW119352  11.356  10.659   0.061  1.6458 -1.0507 -1.7356
37434SOL    HW219353  11.446  10.751  -0.018  1.9105  1.3341  1.1635
37435SOL     OW19354  10.337   3.232   6.749  0.5142  0.8967  0.5654
37435SOL    HW119355  10.311   3.307   6.802  1.9059  2.6672 -1.1360
37435SOL    HW219356  10.433   3.232   6.754  0.7149  1.3396 -2.1414
37436SOL     OW19357   5.372  12.003  11.876  0.2602 -0.4377  0.3831
37436SOL    HW119358   5.459  12.041  11.863 -0.7103  1.6824 -0.3184
37436SOL    HW219359   5.372  11.923  11.822  2.3062 -1.4486  1.7649
37437SOL     OW19360   6.883   0.995   8.612  0.5203 -0.2015 -0.5558
37437SOL    HW119361   6.953   1.061   8.614 -0.2147  0.6126 -0.9460
37437SOL    HW219362   6.848   0.999   8.523  1.8702 -2.6711 -1.2669
37438SOL     OW19363   6.614   5.598   1.245  0.7201  0.1795  0.2338
37438SOL    HW119364   6.638   5.534   1.312  1.3259  0.9433  0.7731
37438SOL    HW219365   6.574   5.670   1.295  1.4874  0.9099 -0.1819
37439SOL     OW19366   4.983   3.266   2.205  0.5899 -0.3198 -0.3277
37439SOL    HW119367   5.021   3.323   2.138  0.7964 -0.4084 -0.2883
37439SOL    HW219368   4.917   3.215   2.159  0.6784 -0.3251 -0.4492
37440SOL     OW19369   8.278   7.739   0.600 -0.0813  0.4622  0.0837
37440SOL    HW119370   8.221   7.717   0.674 -0.5513  2.4953  0.4079
37440SOL    HW219371   8.333   7.810   0.634 -1.8514  3.1038 -2.0826
37441SOL     OW19372   1.790   0.520   2.629 -0.3118  0.1018  0.2281
37441SOL    HW119373   1.772   0.542   2.720 -0.7524 -0.5557  0.3016
37441SOL    HW219374   1.706   0.529   2.585  0.0850  1.3802 -0.3229
37442SOL     OW19375   6.646   3.583   0.828  0.3333 -0.1759  0.0481
37442SOL    HW119376   6.579   3.532   0.783 -1.0420  1.0755  0.5851
37442SOL    HW219377   6.702   3.518   0.870 -0.9806 -1.2544  0.1836
37443SOL     OW19378   1.798   0.492   3.970  0.1953  0.0684 -0.1745
37443SOL    HW119379   1.813   0.401   3.945 -0.7753 -0.1289 -0.0815
37443SOL    HW219380   1.837   0.543   3.899  0.4473 -0.4275 -0.3950
37444SOL     OW19381   2.029   0.410   6.063  0.0624 -0.0507  0.3635
37444SOL    HW119382   2.043   0.340   6.127  0.1565 -0.0041  0.3949
37444SOL    HW219383   2.041   0.490   6.113 -0.8271  0.0038  0.5117
37445SOL     OW19384   8.861  11.482   5.922 -0.0884 -0.0937  0.2312
37445SOL    HW119385   8.899  11.507   5.838  1.9236  0.3883  1.2044
37445SOL    HW219386   8.874  11.558   5.978 -0.5873 -0.7105  1.2171
37446SOL     OW19387   1.343  12.451   2.820  0.0767  0.2409 -0.5478
37446SOL    HW119388   1.248  12.463   2.813  0.1059 -0.1789 -1.9247
37446SOL    HW219389   1.366  12.395   2.746  0.8327 -3.2628  2.0644
37447SOL     OW19390   6.310  12.215   4.859 -0.5978 -0.8523 -0.0447
37447SOL    HW119391   6.313  12.120   4.865 -2.6053 -0.9272  0.3192
37447SOL    HW219392   6.286  12.233   4.768  2.3448 -0.5442 -0.8765
37448SOL     OW19393  12.004  12.391  11.512  0.1966 -0.4981 -0.1804
37448SOL    HW119394  12.098  12.380  11.525  0.1424 -1.7913 -0.7370
37448SOL    HW219395  11.996  12.470  11.458  0.8626  0.3429  0.9025
37449SOL     OW19396   7.839  11.773   2.584  0.1605 -0.4879 -0.9420
37449SOL    HW119397   7.870  11.683   2.574 -1.7294 -1.3838  0.4587
37449SOL    HW219398   7.777  11.785   2.512 -0.8800 -0.9806 -0.1705
37450SOL     OW19399   3.142   5.306   1.569  0.5206 -0.7032 -0.5192
37450SOL    HW119400   3.202   5.239   1.601  0.8946 -0.2980 -0.3726
37450SOL    HW219401   3.062   5.258   1.545  0.9836 -1.2731 -0.9399
37451SOL     OW19402   8.518  11.439   1.009 -0.6063 -0.2531  0.4198
37451SOL    HW119403   8.557  11.362   1.051  1.9020  1.0912  0.7409
37451SOL    HW219404   8.497  11.410   0.920 -2.1467 -1.9728  1.2676
37452SOL     OW19405   9.001   9.873  12.357 -0.1444  0.2092 -0.7670
37452SOL    HW119406   8.992   9.861  12.452  0.0669  0.1532 -0.7546
37452SOL    HW219407   9.074   9.934  12.347 -0.3838  0.4809 -0.8804
37453SOL     OW19408   0.006   7.497   9.902 -0.2439  0.3415  0.4317
37453SOL    HW119409  -0.036   7.421   9.861 -0.2696  0.1734  0.7657
37453SOL    HW219410   0.100   7.483   9.888 -0.2920  0.6658 -0.2235
37454SOL     OW19411   3.176   6.211   7.391  0.1961  0.2237  0.0535
37454SOL    HW119412   3.120   6.287   7.376  2.4594  1.9073 -0.3424
37454SOL    HW219413   3.130   6.160   7.458 -2.0294  1.2008 -0.6517
37455SOL     OW19414  12.594   1.900   5.338 -0.3438  0.1364 -0.0525
37455SOL    HW119415  12.535   1.842   5.290  0.8066 -1.2992  0.1847
37455SOL    HW219416  12.634   1.955   5.270 -1.3710  0.6029 -0.2959
37456SOL     OW19417  10.849   8.560   4.945  0.0998  0.2432  0.3356
37456SOL    HW119418  10.894   8.604   4.872  0.5679 -0.4285  0.1982
37456SOL    HW219419  10.783   8.505   4.902 -0.0521  0.3286  0.4609
37457SOL     OW19420   6.235   5.705   7.772  0.0693 -0.5768 -0.4764
37457SOL    HW119421   6.261   5.794   7.747 -0.7548 -0.1120  0.2816
37457SOL    HW219422   6.140   5.708   7.778  0.1645 -0.8379  1.9459
37458SOL     OW19423  12.134   5.751  10.952  0.0691 -0.4147 -0.0140
37458SOL    HW119424  12.092   5.752  10.865 -1.7753  0.4761  0.8234
37458SOL    HW219425  12.214   5.701  10.939  0.0523  0.0270 -2.3264
37459SOL     OW19426   0.100   2.218   4.518  0.5836  0.0919  0.1736
37459SOL    HW119427   0.032   2.281   4.541 -0.0072 -0.7872  0.8956
37459SOL    HW219428   0.174   2.272   4.489  0.4007  1.1390  1.5690
37460SOL     OW19429  10.866   3.476   6.495 -0.5167  0.2267 -0.0667
37460SOL    HW119430  10.941   3.500   6.549  0.0395  1.8004 -1.4573
37460SOL    HW219431  10.877   3.382   6.480  0.1797  0.0827  1.2173
37461SOL     OW19432   8.780   1.808   7.226 -0.3116 -0.3669 -0.5491
37461SOL    HW119433   8.818   1.862   7.294  2.4185 -2.0420 -0.5953
37461SOL    HW219434   8.807   1.850   7.144 -0.8503 -0.1060 -0.5940
37462SOL     OW19435   0.393   1.960   2.428  0.6360 -0.0529 -0.3277
37462SOL    HW119436   0.459   1.950   2.359  0.8637 -1.2529  0.0439
37462SOL    HW219437   0.309   1.954   2.382  0.7862  0.0660 -0.6199
37463SOL     OW19438   4.736  12.564   6.920 -0.1065  0.7654  0.2987
37463SOL    HW119439   4.640  12.560   6.919 -0.1484  1.1780  1.3276
37463SOL    HW219440   4.758  12.567   7.013  1.0288 -1.7615  0.1901
37464SOL     OW19441   5.015   4.879   5.206  0.6101 -0.0436  0.0041
37464SOL    HW119442   4.955   4.874   5.132  0.8758  3.0062 -0.5585
37464SOL    HW219443   5.067   4.799   5.201 -1.2385 -1.2382 -1.3836
37465SOL     OW19444   3.078   1.649   5.171 -0.5506 -1.1326  0.0028
37465SOL    HW119445   3.065   1.699   5.090  0.3932  0.8791  1.0472
37465SOL    HW219446   3.004   1.674   5.227 -0.0222 -0.8098  0.5673
37466SOL     OW19447   5.563   1.029   3.424  0.6473 -0.2057 -0.3550
37466SOL    HW119448   5.655   1.008   3.408  0.3207 -1.5621 -0.6017
37466SOL    HW219449   5.530   0.954   3.472 -0.8098 -0.6502 -1.9725
37467SOL     OW19450  10.248  11.691   9.640 -0.1662  0.5450  0.1583
37467SOL    HW119451  10.239  11.733   9.554 -1.1416  2.0905  0.9730
37467SOL    HW219452  10.275  11.762   9.699 -1.6080  0.0075  1.5371
37468SOL     OW19453  11.041   1.746   3.276  0.5507 -0.5367 -0.2261
37468SOL    HW119454  11.132   1.751   3.246  0.6112 -0.3532 -0.0117
37468SOL    HW219455  11.047   1.718   3.367  0.4456  0.4930  0.1058
37469SOL     OW19456   8.565   9.916   8.321 -0.2830 -0.2605 -0.2013
37469SOL    HW119457   8.581  10.007   8.295  1.1216 -0.8931 -1.6815
37469SOL    HW219458   8.470   9.907   8.317 -0.6823  1.7735  2.3389
37470SOL     OW19459   9.201  10.142   1.677 -0.1916 -0.3857 -0.2668
37470SOL    HW119460   9.128  10.090   1.643 -0.3771 -0.0995 -0.3132
37470SOL    HW219461   9.267  10.138   1.608  0.2449 -1.4642  0.1840
37471SOL     OW19462   6.693  11.493   9.414 -0.3596  0.0580 -0.5057
37471SOL    HW119463   6.765  11.431   9.401 -0.8047 -0.2526 -1.6764
37471SOL    HW219464   6.679  11.494   9.508  1.4135  0.4092 -0.2125
37472SOL     OW19465  11.748   4.625   5.746 -0.2837 -0.4822  0.0021
37472SOL    HW119466  11.669   4.591   5.789  0.0495 -2.2757 -0.7223
37472SOL    HW219467  11.729   4.718   5.730 -2.5066 -1.0072 -0.7380
37473SOL     OW19468   3.801  10.000  10.659  0.3160 -0.1467 -0.3421
37473SOL    HW119469   3.792   9.943  10.735 -0.6981  1.0657  0.4864
37473SOL    HW219470   3.889  10.037  10.665  0.3156 -0.2246  0.1232
37474SOL     OW19471   2.092   0.080  12.273  0.3465  0.0188 -0.1096
37474SOL    HW119472   2.172   0.084  12.325 -0.2221  0.4359  0.7452
37474SOL    HW219473   2.105   0.145  12.204  0.5830  0.3651  0.2593
37475SOL     OW19474   7.586  11.604  10.024 -0.3739 -0.1033 -0.6215
37475SOL    HW119475   7.566  11.674  10.085 -0.0419 -0.4349 -0.1275
37475SOL    HW219476   7.522  11.536  10.044 -1.4537  0.4873 -1.8706
37476SOL     OW19477   1.229   1.723   3.957  0.1846 -0.5571  0.1921
37476SOL    HW119478   1.289   1.698   4.027 -0.2756 -1.7316  0.1888
37476SOL    HW219479   1.284   1.731   3.880  0.4709 -0.7813  0.3710
37477SOL     OW19480   8.701   7.123  12.107  0.0487  0.3545 -0.4296
37477SOL    HW119481   8.614   7.087  12.090 -1.0957  2.4908  0.5113
37477SOL    HW219482   8.750   7.050  12.145 -1.5971 -0.6622 -0.1713
37478SOL     OW19483   8.337   5.800   2.285 -0.3103 -0.7449 -0.6093
37478SOL    HW119484   8.288   5.773   2.207  0.8611  0.1223 -1.7132
37478SOL    HW219485   8.272   5.838   2.343 -1.1825 -1.1644 -1.2827
37479SOL     OW19486   9.677   3.453   1.550  0.5654  0.3489 -0.0643
37479SOL    HW119487   9.719   3.468   1.466  1.9973  1.6369  0.8119
37479SOL    HW219488   9.737   3.396   1.597 -1.3550 -2.3702 -0.6928
37480SOL     OW19489   8.812  12.298   0.323 -0.7195 -0.1584  0.3626
37480SOL    HW119490   8.878  12.367   0.335  0.2252 -1.2164  1.5027
37480SOL    HW219491   8.759  12.302   0.402 -0.4390 -0.9714  0.5938
37481SOL     OW19492   2.503  10.578   0.607 -0.2240 -0.2506 -0.5697
37481SOL    HW119493   2.478  10.503   0.552  0.1908 -1.2745  0.5928
37481SOL    HW219494   2.468  10.557   0.693 -0.8226  1.3108 -0.4162
37482SOL     OW19495   9.448   6.112   8.137 -0.1947 -0.2004 -0.4136
37482SOL    HW119496   9.423   6.188   8.189 -0.7476  1.4463 -2.8985
37482SOL    HW219497   9.368   6.061   8.128 -0.6087  0.5598 -1.2280
37483SOL     OW19498   3.915   8.320  11.012  0.0158  0.1036  0.3171
37483SOL    HW119499   3.879   8.265  10.942 -0.6628 -0.0821  0.7956
37483SOL    HW219500   3.973   8.262  11.061 -0.4356 -0.1013  0.6176
37484SOL     OW19501   7.187  10.796  10.262 -0.8072 -0.1052  0.4430
37484SOL    HW119502   7.138  10.855  10.205 -0.6304  0.0589  0.4585
37484SOL    HW219503   7.121  10.745  10.308 -1.0729  1.8063  2.3143
37485SOL     OW19504   4.313   3.994   5.116 -0.0249  0.2673  0.4271
37485SOL    HW119505   4.266   3.911   5.126 -1.3163  1.0819  1.2480
37485SOL    HW219506   4.269   4.038   5.043  0.0706  0.6339  0.5884
37486SOL     OW19507   2.929   2.570   5.590  0.8983  0.5366 -0.0327
37486SOL    HW119508   2.892   2.659   5.591  0.5354  0.4423 -2.0686
37486SOL    HW219509   2.866   2.518   5.640  0.6421  1.2442  0.4003
37487SOL     OW19510   3.880   7.237  11.483  0.2502  0.2390 -0.1858
37487SOL    HW119511   3.881   7.184  11.404 -0.5200  2.4888 -1.7925
37487SOL    HW219512   3.825   7.313  11.462 -1.0312  0.3352  2.9322
37488SOL     OW19513   8.887   6.488   6.012 -0.2767  0.2579  1.0246
37488SOL    HW119514   8.817   6.460   5.953  0.2691  2.1937 -0.6580
37488SOL    HW219515   8.952   6.419   6.007 -0.8151 -0.2157  0.3490
37489SOL     OW19516  11.827   3.756   0.588  0.1660  0.2116 -0.7675
37489SOL    HW119517  11.814   3.805   0.669 -0.2054  0.9793 -1.2884
37489SOL    HW219518  11.913   3.714   0.600 -0.1135 -0.1072  0.2326
37490SOL     OW19519  10.713   1.392   3.382  0.4161  0.4872  0.0388
37490SOL    HW119520  10.783   1.327   3.388  0.6343  0.6356 -0.8226
37490SOL    HW219521  10.695   1.399   3.288 -1.5125 -0.3748  0.2937
37491SOL     OW19522   9.498   2.404   2.930  0.2928 -0.1767 -0.4125
37491SOL    HW119523   9.513   2.328   2.874  0.7554 -0.2929 -0.1276
37491SOL    HW219524   9.578   2.457   2.921  0.8758 -0.7780  1.0677
37492SOL     OW19525   0.402   5.373   5.684 -0.5304  0.7479 -0.6280
37492SOL    HW119526   0.473   5.397   5.625 -0.3623  0.0783 -0.7025
37492SOL    HW219527   0.439   5.380   5.772 -0.3709  0.3969 -0.6671
37493SOL     OW19528   6.398  11.133   4.568  0.0756 -0.4908 -0.2724
37493SOL    HW119529   6.471  11.072   4.572  0.4907  0.0155  3.5337
37493SOL    HW219530   6.366  11.139   4.658 -2.3618  2.0592 -1.1423
37494SOL     OW19531   6.284   2.529   0.289 -0.3832  0.2808 -0.0893
37494SOL    HW119532   6.243   2.615   0.286 -0.2676  0.3658  0.5300
37494SOL    HW219533   6.378   2.547   0.296 -0.3747  0.1118  0.2734
37495SOL     OW19534  11.379   0.008   2.263  0.8019  0.2076 -0.2149
37495SOL    HW119535  11.376   0.074   2.332  0.9506 -0.4950  0.4763
37495SOL    HW219536  11.292   0.012   2.222 -0.2176 -1.0797  1.6798
37496SOL     OW19537   0.479  10.028  11.861  0.4564  0.1459  0.8940
37496SOL    HW119538   0.544  10.098  11.855 -1.4366  2.0126  0.9254
37496SOL    HW219539   0.521   9.960  11.913  2.6277  0.9486  0.2879
37497SOL     OW19540   9.832   0.948   1.640  0.2832  0.1743 -0.0125
37497SOL    HW119541   9.783   0.986   1.712 -0.2455 -0.6215  0.0669
37497SOL    HW219542   9.819   0.853   1.650  0.4046  0.0421 -0.9985
37498SOL     OW19543   0.736   7.628   5.604  0.4636  0.0938 -0.3750
37498SOL    HW119544   0.652   7.584   5.619  1.4321 -1.0566  2.4331
37498SOL    HW219545   0.713   7.711   5.563 -2.1670  0.3164  1.3316
37499SOL     OW19546   0.677   3.589  10.877  0.5992  0.3874 -0.5527
37499SOL    HW119547   0.644   3.637  10.953 -0.9671  1.0336 -1.6046
37499SOL    HW219548   0.771   3.610  10.874  0.7390  0.1706  1.3038
37500SOL     OW19549   0.567   3.423   4.545  0.5718 -0.7141  0.0980
37500SOL    HW119550   0.605   3.337   4.559  2.1238 -0.1233 -0.2203
37500SOL    HW219551   0.560   3.432   4.450 -1.8077 -1.3593  0.1383
37501SOL     OW19552   0.082   8.041   5.463  0.2742  0.1580  0.2727
37501SOL    HW119553   0.137   8.118   5.452 -0.5400  0.6794 -0.3283
37501SOL    HW219554   0.090   8.019   5.556 -0.5652  1.8475  0.8063
37502SOL     OW19555   9.760   0.366   7.858 -0.9410 -0.1039  0.1811
37502SOL    HW119556   9.708   0.445   7.870  0.4543  0.8489  0.1863
37502SOL    HW219557   9.847   0.389   7.892 -0.1371 -1.1909 -1.0453
37503SOL     OW19558  11.197   8.675   1.309  0.2547  0.4949 -0.2201
37503SOL    HW119559  11.141   8.602   1.281  0.9474 -0.5475  1.0013
37503SOL    HW219560  11.135   8.744   1.332 -0.4139  0.3723 -1.5247
37504SOL     OW19561   2.358   2.120   5.134  0.4277  0.1937 -0.2487
37504SOL    HW119562   2.395   2.040   5.098 -0.8430 -0.5365  0.0083
37504SOL    HW219563   2.389   2.122   5.225  2.9912  1.6363 -1.0320
37505SOL     OW19564   7.074   8.302  11.062 -0.7259 -1.0171 -0.0692
37505SOL    HW119565   7.168   8.292  11.078 -0.4282  0.4367 -0.8075
37505SOL    HW219566   7.059   8.258  10.978 -0.3176  0.4161 -0.9227
37506SOL     OW19567   0.778   7.113   8.382  0.1131  0.3849  0.3669
37506SOL    HW119568   0.778   7.027   8.424  2.9630  1.2222  2.3651
37506SOL    HW219569   0.708   7.162   8.426  0.7058  0.1051  1.6605
37507SOL     OW19570   3.425  10.310   8.136 -0.2698  0.3313  0.1915
37507SOL    HW119571   3.454  10.273   8.053 -0.8991  0.0792  0.0798
37507SOL    HW219572   3.362  10.378   8.112  0.0650  0.7367  0.4387
37508SOL     OW19573  12.464   2.229   7.607 -0.5689 -0.1118  0.6559
37508SOL    HW119574  12.409   2.152   7.620 -0.2788 -0.5387 -0.4646
37508SOL    HW219575  12.531   2.199   7.545 -1.7924  1.6369 -1.6540
37509SOL     OW19576  10.453   9.075   8.929 -1.2098 -0.1332  0.0102
37509SOL    HW119577  10.418   8.987   8.915 -1.3444  0.0781 -1.0286
37509SOL    HW219578  10.542   9.060   8.963 -0.6215 -0.6989 -1.6832
37510SOL     OW19579   7.075   1.104   4.530 -0.5129 -0.2048  0.0149
37510SOL    HW119580   7.066   1.133   4.620 -1.2315  0.7944 -0.3611
37510SOL    HW219581   7.036   1.016   4.529  0.1855 -0.5366  0.8205
37511SOL     OW19582   3.249   6.668   0.998  0.3569 -0.0190  0.2217
37511SOL    HW119583   3.157   6.657   0.973  0.7339 -0.5171 -1.0472
37511SOL    HW219584   3.294   6.595   0.956  1.5567  1.0914 -0.5300
37512SOL     OW19585   0.639   6.545  11.779 -0.2645 -0.6359 -0.0971
37512SOL    HW119586   0.596   6.464  11.803 -0.9768  0.0072  0.8693
37512SOL    HW219587   0.713   6.552  11.840  0.0796 -0.7865 -0.4906
37513SOL     OW19588  12.554   7.651   9.590 -0.1833 -0.4492  0.4505
37513SOL    HW119589  12.579   7.741   9.611 -0.8769  0.6383 -2.7901
37513SOL    HW219590  12.637   7.607   9.571  0.0747 -0.2204  1.0179
37514SOL     OW19591   7.742   0.472   6.626 -0.3590 -0.1113 -0.5293
37514SOL    HW119592   7.743   0.377   6.631 -0.0425 -0.0773  0.1260
37514SOL    HW219593   7.663   0.492   6.576 -0.7481 -0.6928 -0.1565
37515SOL     OW19594   6.646   4.186   2.742 -0.1719  0.3561 -0.3981
37515SOL    HW119595   6.596   4.114   2.703 -0.4762  0.0623  0.5140
37515SOL    HW219596   6.707   4.213   2.673 -0.5159 -0.3274 -0.9816
37516SOL     OW19597   2.280   8.654   7.600  0.0089  0.2566 -0.3655
37516SOL    HW119598   2.303   8.630   7.510 -0.3081 -1.6900  0.0213
37516SOL    HW219599   2.328   8.591   7.654 -2.1931 -0.6597  0.6666
37517SOL     OW19600   1.175   9.365   7.708 -0.2574 -0.1443  0.1039
37517SOL    HW119601   1.148   9.447   7.750 -2.2999 -0.3095 -0.7889
37517SOL    HW219602   1.260   9.386   7.669 -0.3062  1.2625  0.6904
37518SOL     OW19603  12.394   1.411   1.927 -0.0262  0.3884 -0.6984
37518SOL    HW119604  12.410   1.443   2.015 -0.5055 -0.7803 -0.1721
37518SOL    HW219605  12.408   1.316   1.933 -0.1104  0.2868 -1.8655
37519SOL     OW19606   2.785  12.419  12.246  0.1275 -0.4850 -0.2336
37519SOL    HW119607   2.799  12.407  12.340 -0.5133 -1.7966 -0.2889
37519SOL    HW219608   2.812  12.510  12.230  1.3249 -0.5802  0.9964
37520SOL     OW19609   1.149   3.515   0.466  0.1425  0.4073  0.2700
37520SOL    HW119610   1.163   3.492   0.558 -1.0709  1.2133  0.6809
37520SOL    HW219611   1.072   3.571   0.467  0.0973  0.4076 -1.2551
37521SOL     OW19612   7.950   6.686   6.296 -0.6815  0.2096  0.0806
37521SOL    HW119613   7.955   6.629   6.219  4.3967 -1.1964  1.0570
37521SOL    HW219614   7.899   6.635   6.359  0.7173 -1.7815 -0.2762
37522SOL     OW19615   9.104   2.809   9.765  0.2873  0.0552  0.6240
37522SOL    HW119616   9.063   2.745   9.706  0.3962  0.9284 -0.4469
37522SOL    HW219617   9.031   2.866   9.791  0.6485  1.2077 -0.7487
37523SOL     OW19618   5.260   2.067   3.790  0.2300 -0.2345 -0.0181
37523SOL    HW119619   5.205   2.039   3.863  1.5923 -0.1467  1.0976
37523SOL    HW219620   5.348   2.039   3.815  0.8806  0.6690 -1.1877
37524SOL     OW19621  10.374   3.039   8.019 -0.8700 -0.3936 -0.3841
37524SOL    HW119622  10.364   3.120   7.969  1.5987 -0.1644 -0.6189
37524SOL    HW219623  10.440   2.989   7.971 -1.5911 -2.1053  0.3306
37525SOL     OW19624   1.949  10.111   8.160 -0.1069 -0.2276  0.3556
37525SOL    HW119625   1.944  10.194   8.113  1.1383  0.5849  1.5643
37525SOL    HW219626   2.042  10.098   8.176 -0.2459 -2.1174 -0.2184
37526SOL     OW19627  11.918   3.052   9.204 -0.2177  0.2617 -0.0445
37526SOL    HW119628  11.923   3.089   9.292 -1.6365 -1.1271  0.6623
37526SOL    HW219629  11.824   3.039   9.189  0.1595 -2.9730 -0.2434
37527SOL     OW19630  10.211   6.723   5.184 -0.4960 -0.8302  0.6108
37527SOL    HW119631  10.216   6.633   5.218  1.2319 -1.2778 -0.6511
37527SOL    HW219632  10.191   6.776   5.261  1.1986 -2.0177  1.9698
37528SOL     OW19633   8.919   5.269   8.696  0.2454 -0.0019  0.0864
37528SOL    HW119634   8.931   5.193   8.641  1.6048  0.4579 -0.2835
37528SOL    HW219635   8.888   5.337   8.637  0.5433  0.1591  0.1135
37529SOL     OW19636  11.784   4.452  11.830 -0.1285  0.6335 -0.3936
37529SOL    HW119637  11.856   4.509  11.853  0.1275 -0.0191  0.4761
37529SOL    HW219638  11.725   4.507  11.777  0.0612  1.7142  0.4949
37530SOL     OW19639   2.300  11.937   1.494 -0.4710 -0.2964 -0.0120
37530SOL    HW119640   2.218  11.936   1.543 -0.7491 -2.2978 -0.4368
37530SOL    HW219641   2.344  12.017   1.522 -2.2598  0.4682  0.7208
37531SOL     OW19642   6.699   9.878   0.218  0.4094  0.2934  0.6310
37531SOL    HW119643   6.695   9.968   0.187  0.2648 -0.0333 -0.3288
37531SOL    HW219644   6.775   9.840   0.175  0.6701  0.0457  1.2918
37532SOL     OW19645   7.320   3.440  11.866 -0.2573  0.2633 -0.3372
37532SOL    HW119646   7.237   3.450  11.819 -0.5717 -4.7458 -1.4661
37532SOL    HW219647   7.295   3.418  11.955 -0.1438 -0.2209 -0.4194
37533SOL     OW19648   5.421   5.480   2.359  0.0400  0.1460  0.2777
37533SOL    HW119649   5.356   5.550   2.355 -0.1996 -0.0395  0.8757
37533SOL    HW219650   5.489   5.508   2.298 -0.6331  0.2982 -0.4141
37534SOL     OW19651   6.697   9.793   0.486  0.4002 -0.3134  0.3690
37534SOL    HW119652   6.662   9.787   0.397 -0.2227  0.3914  0.5567
37534SOL    HW219653   6.643   9.859   0.528 -0.5603 -1.9505  1.8561
37535SOL     OW19654   7.019   8.019  12.190 -0.4797 -0.3072  0.2882
37535SOL    HW119655   6.938   8.042  12.235  0.5292  0.0203  2.0334
37535SOL    HW219656   7.017   7.924  12.182 -1.1297 -0.2796  0.0872
37536SOL     OW19657   9.782   7.400   8.799  0.4649  0.5142 -0.4336
37536SOL    HW119658   9.731   7.385   8.879 -0.0691 -0.0567 -0.8657
37536SOL    HW219659   9.856   7.452   8.827  0.5580 -0.1149  0.5343
37537SOL     OW19660   1.081   0.039   5.840 -0.1671 -0.2649 -1.3149
37537SOL    HW119661   1.123  -0.044   5.817  0.9277 -0.1563  0.1344
37537SOL    HW219662   0.989   0.017   5.849 -0.1974 -0.8842 -2.8970
37538SOL     OW19663  12.021  12.462   6.973 -1.0355  0.2250  0.2951
37538SOL    HW119664  12.098  12.447   6.918 -0.9044  1.7127  0.0420
37538SOL    HW219665  11.992  12.374   6.996 -0.4982 -0.4240 -1.3124
37539SOL     OW19666   5.876   3.465   8.390  0.0176 -0.3667  0.4136
37539SOL    HW119667   5.843   3.376   8.378 -0.3321 -0.0875 -0.8946
37539SOL    HW219668   5.834   3.496   8.471  0.3353 -1.4600  1.0092
37540SOL     OW19669   9.749  10.285   0.149  0.0213 -0.3543  0.2934
37540SOL    HW119670   9.764  10.192   0.138  1.5207 -0.0917 -0.0767
37540SOL    HW219671   9.836  10.325   0.143 -0.5149  1.0136  1.0121
37541SOL     OW19672   3.751  11.095   5.243  0.1547  0.3896  0.8222
37541SOL    HW119673   3.664  11.109   5.281 -0.0977  0.5481  0.1851
37541SOL    HW219674   3.779  11.182   5.214 -0.5685 -0.0425 -1.3104
37542SOL     OW19675   6.891   8.822   9.793  0.3060  0.0266  0.0634
37542SOL    HW119676   6.973   8.869   9.779 -0.2294  1.2437  0.7935
37542SOL    HW219677   6.896   8.794   9.885 -0.4375  0.8544  0.3685
37543SOL     OW19678  10.799   8.437  10.623 -0.2179 -0.0562 -0.1967
37543SOL    HW119679  10.751   8.390  10.555  2.2584  0.3071 -2.3403
37543SOL    HW219680  10.822   8.521  10.582 -0.7887  1.2811  2.0240
37544SOL     OW19681   8.967   2.126   5.651  0.0032  0.3832  0.5260
37544SOL    HW119682   9.046   2.074   5.670  0.7714  0.5074 -1.9692
37544SOL    HW219683   8.905   2.062   5.616 -0.3530  0.6015  0.7570
37545SOL     OW19684   7.339   1.289  12.161 -0.2603  0.3718  0.9349
37545SOL    HW119685   7.266   1.229  12.146 -0.1690  0.7622 -1.3391
37545SOL    HW219686   7.408   1.233  12.198 -0.8546 -0.4953  0.7828
37546SOL     OW19687  12.434   2.456  11.579  0.0598  0.3047  0.2483
37546SOL    HW119688  12.441   2.381  11.639  1.5738  1.0290  1.0222
37546SOL    HW219689  12.523   2.490  11.573 -0.2879  0.9850 -1.4989
37547SOL     OW19690   1.479  10.392   5.905 -0.7562  0.1729  0.4365
37547SOL    HW119691   1.477  10.344   5.823  0.3403 -0.2558  0.6343
37547SOL    HW219692   1.395  10.438   5.909 -0.8358  0.1679 -0.8887
37548SOL     OW19693   7.038   1.473   8.473 -0.6515  0.3472  0.4555
37548SOL    HW119694   7.066   1.445   8.560  0.8578 -1.1647 -0.4562
37548SOL    HW219695   7.119   1.500   8.430 -1.5165  2.1087 -0.1549
37549SOL     OW19696   9.927  12.376   7.004 -0.2176 -0.4527  0.3448
37549SOL    HW119697  10.012  12.386   6.962 -0.2787 -0.3291  0.2519
37549SOL    HW219698   9.904  12.284   6.990 -0.3631 -0.3486 -0.1310
37550SOL     OW19699   3.598   6.466   0.701  0.0328  0.0928  0.1367
37550SOL    HW119700   3.599   6.533   0.632 -2.5320 -0.1524 -0.2153
37550SOL    HW219701   3.686   6.428   0.699  0.0194 -0.0125 -3.1337
37551SOL     OW19702   2.941   0.303  10.650 -0.0962 -0.1531 -0.3449
37551SOL    HW119703   2.893   0.349  10.718 -1.1488 -0.6261 -0.7369
37551SOL    HW219704   3.001   0.246  10.697 -0.1047  0.2551  0.1660
37552SOL     OW19705  11.175   8.029   9.032  0.1337 -0.3979 -0.1976
37552SOL    HW119706  11.130   8.038   8.948 -0.2862 -2.4926 -0.2519
37552SOL    HW219707  11.261   7.995   9.010  0.3710 -0.0370  0.1625
37553SOL     OW19708   9.750   5.569   7.855  0.2086 -0.2350  0.4149
37553SOL    HW119709   9.714   5.540   7.939  0.0222 -0.8410  0.1302
37553SOL    HW219710   9.693   5.529   7.789 -1.4504  2.5475 -0.0098
37554SOL     OW19711  10.376  11.912  11.718 -0.3788 -0.2684 -0.1877
37554SOL    HW119712  10.319  11.987  11.735 -0.9684 -0.4562 -1.2587
37554SOL    HW219713  10.325  11.855  11.660  1.1283 -0.1392 -1.7109
37555SOL     OW19714   1.159   5.777   5.566  0.2782 -0.0592  0.5736
37555SOL    HW119715   1.081   5.831   5.557 -1.7901 -3.0869 -1.2249
37555SOL    HW219716   1.224   5.819   5.510 -1.0918  0.8271 -0.4186
37556SOL     OW19717   1.202  11.937  10.182  0.3996 -0.3245 -0.3171
37556SOL    HW119718   1.195  12.031  10.166  0.1869 -0.2193  0.3801
37556SOL    HW219719   1.230  11.930  10.273  0.7345 -0.9307 -0.4637
37557SOL     OW19720   2.473   1.301   6.894 -0.0878 -0.2440  0.4308
37557SOL    HW119721   2.430   1.237   6.837  1.8302 -2.1950  1.0613
37557SOL    HW219722   2.566   1.289   6.877  0.3712  3.5846 -0.6248
37558SOL     OW19723   3.768  12.501  12.175 -0.1967  0.0976 -0.1092
37558SOL    HW119724   3.857  12.470  12.159 -0.1515  0.6833 -1.0781
37558SOL    HW219725   3.726  12.429  12.221  0.4892 -0.5915 -0.5275
37559SOL     OW19726   9.617  11.665  11.041  0.4555 -0.0328 -0.0761
37559SOL    HW119727   9.559  11.692  11.112 -1.0978 -0.4211 -1.1415
37559SOL    HW219728   9.679  11.605  11.082 -0.0875  0.1403  1.0328
37560SOL     OW19729   3.872  10.409   7.801  0.3371 -0.5053 -0.4327
37560SOL    HW119730   3.929  10.486   7.803  0.7192 -0.6980 -2.1547
37560SOL    HW219731   3.810  10.423   7.872  0.5127  1.3075 -0.5957
37561SOL     OW19732   7.014   7.177   4.725 -0.0892  0.0989 -0.1905
37561SOL    HW119733   7.103   7.191   4.757  0.4866 -0.2389 -1.5582
37561SOL    HW219734   6.959   7.176   4.804  1.1047  0.3811  0.6620
37562SOL     OW19735  12.162   7.716   6.911  0.5470 -0.0356  0.2902
37562SOL    HW119736  12.122   7.801   6.895 -0.4487 -0.6747 -0.8108
37562SOL    HW219737  12.251   7.724   6.875 -0.1736 -0.0254 -1.6307
37563SOL     OW19738   0.445   2.820   3.959 -0.0521 -0.0299  0.0001
37563SOL    HW119739   0.502   2.744   3.950  1.0714  0.7373  0.4147
37563SOL    HW219740   0.378   2.793   4.021  0.6972 -0.4843  0.6257
37564SOL     OW19741   8.017   9.208   0.907  0.3385 -0.0498  0.3363
37564SOL    HW119742   7.939   9.262   0.914  0.1790  0.2582 -2.5867
37564SOL    HW219743   7.988   9.120   0.932 -0.7853  0.1949 -0.0766
37565SOL     OW19744  10.019  11.215   4.547 -0.7558  0.7826  0.3879
37565SOL    HW119745  10.091  11.184   4.602 -0.4451  1.0815  0.1569
37565SOL    HW219746   9.982  11.135   4.509  0.3366  0.7085 -0.5662
37566SOL     OW19747  12.261   0.680   7.208  0.0291 -0.2624  0.0819
37566SOL    HW119748  12.192   0.647   7.150 -0.2124  0.8072 -0.2663
37566SOL    HW219749  12.333   0.702   7.150 -1.1744  3.3910 -0.2780
37567SOL     OW19750  11.965  10.762   4.012 -0.5160 -0.1015  0.4161
37567SOL    HW119751  11.881  10.786   3.973 -0.9753 -1.8088  0.2840
37567SOL    HW219752  11.942  10.720   4.095  0.3839  2.1390  1.9130
37568SOL     OW19753   0.107  11.859  11.991 -0.5060  0.0777 -0.0479
37568SOL    HW119754   0.164  11.782  11.992 -0.7850 -0.1447 -0.6762
37568SOL    HW219755   0.156  11.924  11.940 -0.3348  0.2665  0.3568
37569SOL     OW19756   0.201   0.277  11.117 -0.2137 -0.4572  0.2743
37569SOL    HW119757   0.236   0.228  11.043  1.1944  1.6619 -0.5547
37569SOL    HW219758   0.246   0.362  11.114 -1.0292  0.1700  2.8255
37570SOL     OW19759   3.196   2.720   6.871  0.2075 -0.2234  0.0250
37570SOL    HW119760   3.158   2.716   6.959  0.0071 -1.2285 -0.1032
37570SOL    HW219761   3.289   2.705   6.886  0.1324 -0.6759  0.0331
37571SOL     OW19762  11.681  10.239   0.035  0.2697 -0.1001  0.0404
37571SOL    HW119763  11.706  10.331   0.037 -0.0172  0.0216  2.9172
37571SOL    HW219764  11.592  10.237   0.071  0.8946 -1.5792  1.7128
37572SOL     OW19765   8.216  10.244  10.914  1.1060  0.0232 -0.2590
37572SOL    HW119766   8.258  10.268  10.997 -1.2353  1.0241  0.7155
37572SOL    HW219767   8.149  10.310  10.901 -0.7127 -1.9105 -1.3210
37573SOL     OW19768   9.470   1.305   3.321  0.1700 -0.7057  0.1557
37573SOL    HW119769   9.388   1.267   3.352  0.5477 -3.3616 -1.7575
37573SOL    HW219770   9.529   1.230   3.310  1.4683  0.5556 -2.5272
37574SOL     OW19771   2.740   2.743   3.098  0.1801  0.4596 -0.5961
37574SOL    HW119772   2.669   2.702   3.147  0.4831 -0.3910 -0.8423
37574SOL    HW219773   2.701   2.822   3.060 -0.8355 -0.3498 -1.3050
37575SOL     OW19774   4.620   7.542   6.444 -0.2018  0.1290 -0.0521
37575SOL    HW119775   4.615   7.520   6.351 -0.2185 -3.6357  0.6962
37575SOL    HW219776   4.531   7.533   6.476 -0.5119  2.9483  0.1798
37576SOL     OW19777   7.851   8.193  11.918 -0.1175 -0.0691  0.2696
37576SOL    HW119778   7.762   8.223  11.902 -0.6209  0.3566  3.1800
37576SOL    HW219779   7.904   8.274  11.919 -0.4259  0.1712  2.1754
37577SOL     OW19780   2.593   9.057   0.466  0.8977  0.4679 -0.3028
37577SOL    HW119781   2.618   8.993   0.400 -0.9702 -3.2747  2.2881
37577SOL    HW219782   2.667   9.059   0.526  0.6270  0.1150  0.0426
37578SOL     OW19783  12.102  10.718   6.452 -0.3724 -0.4741  0.0042
37578SOL    HW119784  12.060  10.708   6.538 -3.0729 -0.9431 -1.2806
37578SOL    HW219785  12.162  10.643   6.446 -1.8075 -1.7239  0.6251
37579SOL     OW19786   0.424   1.285   8.085 -0.9399  0.2046  0.3016
37579SOL    HW119787   0.465   1.364   8.120  1.5954 -0.4468 -0.9466
37579SOL    HW219788   0.459   1.213   8.139 -0.8551 -0.3223 -0.4353
37580SOL     OW19789   3.129   0.319   0.367  0.3217  0.4369  0.1947
37580SOL    HW119790   3.157   0.246   0.421 -0.5088  0.6784  0.9820
37580SOL    HW219791   3.207   0.374   0.359  0.2612  0.8229  1.8688
37581SOL     OW19792   1.028  12.429   8.303  0.2895  0.1114 -0.0257
37581SOL    HW119793   1.117  12.463   8.305 -0.1090  1.1850 -0.1172
37581SOL    HW219794   1.023  12.380   8.221  0.9993 -0.5437  0.3135
37582SOL     OW19795   3.673   2.945   6.734  0.5029  0.3491  0.3072
37582SOL    HW119796   3.748   2.952   6.793  1.4944  0.3822 -0.9322
37582SOL    HW219797   3.597   2.950   6.792  1.3611  3.2395  1.3633
37583SOL     OW19798   5.096   0.707   8.588 -0.1914 -0.1377  0.2100
37583SOL    HW119799   5.170   0.759   8.619  0.2708  0.5834 -1.9353
37583SOL    HW219800   5.025   0.728   8.649  1.0240  0.0596  1.6044
37584SOL     OW19801   0.275   0.886   1.137  0.2485  0.1059  0.3841
37584SOL    HW119802   0.331   0.809   1.129 -0.9679 -0.9886  1.8802
37584SOL    HW219803   0.199   0.867   1.081  0.6781  0.9568 -0.5187
37585SOL     OW19804   9.475   1.884   1.817  0.0101 -0.1729 -0.0768
37585SOL    HW119805   9.461   1.886   1.912  1.1087 -2.7015  0.2420
37585SOL    HW219806   9.432   1.804   1.788  2.1645 -1.0323 -1.1785
37586SOL     OW19807   1.643   4.518   5.641  0.4379 -0.8633 -0.3788
37586SOL    HW119808   1.600   4.526   5.556  0.4378 -1.4321 -0.4360
37586SOL    HW219809   1.582   4.467   5.695  0.6527 -0.9280 -0.1933
37587SOL     OW19810   7.687   5.428   7.734 -0.2441 -0.0270  0.1723
37587SOL    HW119811   7.772   5.395   7.765 -0.2151  0.0913  0.2177
37587SOL    HW219812   7.638   5.446   7.814 -0.1081  0.4389  0.1561
37588SOL     OW19813   4.834  11.331   6.524 -0.1428  0.0046  0.3201
37588SOL    HW119814   4.812  11.424   6.525  1.8352  0.5277  0.9585
37588SOL    HW219815   4.875  11.317   6.439  0.7791  0.0738  0.7343
37589SOL     OW19816   4.810   1.561   5.664 -0.0058  0.0139 -0.0088
37589SOL    HW119817   4.868   1.622   5.617  1.7766 -1.7372 -0.2094
37589SOL    HW219818   4.778   1.502   5.597  0.4899 -0.9258  0.5638
37590SOL     OW19819  11.005   2.839  12.285  0.3159  0.2304  0.1534
37590SOL    HW119820  11.094   2.875  12.284  0.3519  0.1491  0.5979
37590SOL    HW219821  11.008   2.767  12.223  0.3960  0.6235 -0.3107
37591SOL     OW19822   1.653  12.531   5.610  0.2601 -0.3418 -0.1359
37591SOL    HW119823   1.632  12.624   5.618  0.6395 -0.0633 -1.9464
37591SOL    HW219824   1.746  12.525   5.631  0.0403 -0.4609  0.8349
37592SOL     OW19825  11.906   6.407   2.644  0.0609  0.3173 -0.1579
37592SOL    HW119826  11.879   6.392   2.553  0.2454 -1.5233  0.0428
37592SOL    HW219827  11.970   6.477   2.639 -0.6074  0.8726 -1.3327
37593SOL     OW19828   4.458  11.817   0.823 -0.2153 -0.5564 -0.2224
37593SOL    HW119829   4.363  11.818   0.811 -0.3286  0.4138  0.5944
37593SOL    HW219830   4.484  11.909   0.818  0.6291 -0.7721 -0.0320
37594SOL     OW19831   9.632   1.623  11.673 -0.5248  0.0508  0.0902
37594SOL    HW119832   9.693   1.666  11.734 -1.8773 -0.0321  1.5654
37594SOL    HW219833   9.683   1.611  11.593  1.6443 -0.6932  1.4854
37595SOL     OW19834   9.763  11.236   8.636  0.0364  0.1683  1.5248
37595SOL    HW119835   9.819  11.253   8.711 -1.2987 -0.8124  2.8247
37595SOL    HW219836   9.712  11.159   8.662 -2.2299  1.2838  0.6430
37596SOL     OW19837   7.767   5.652   1.676 -0.0928  0.1385  0.6010
37596SOL    HW119838   7.720   5.631   1.595 -1.4509  0.3099  1.3030
37596SOL    HW219839   7.762   5.747   1.682 -0.7890  0.0695  1.3171
37597SOL     OW19840   0.179   2.165  11.713  0.1287 -0.0123 -0.2514
37597SOL    HW119841   0.157   2.149  11.621 -0.6600  1.4764 -0.3604
37597SOL    HW219842   0.125   2.103  11.762  0.0694 -0.3734 -0.7625
37598SOL     OW19843   5.042   7.889   0.870  0.1106  0.3655  0.1168
37598SOL    HW119844   4.980   7.833   0.824  1.1577 -1.3643  0.7048
37598SOL    HW219845   5.052   7.965   0.814 -2.9524  1.0220  0.2885
37599SOL     OW19846   0.885   4.625   8.205  0.9261 -0.1320  0.0546
37599SOL    HW119847   0.930   4.680   8.140 -0.1680  0.0304 -0.5755
37599SOL    HW219848   0.809   4.676   8.232 -0.4267 -1.5213 -0.9433
37600SOL     OW19849   4.835   4.407   1.485  0.2839 -0.4858 -0.5012
37600SOL    HW119850   4.841   4.382   1.577 -0.0826 -0.0834 -0.3606
37600SOL    HW219851   4.922   4.392   1.450  0.3687 -0.8514 -0.1404
37601SOL     OW19852   0.691   4.259   0.523 -0.3004 -0.4473 -0.7319
37601SOL    HW119853   0.750   4.293   0.456 -2.5140  2.0291 -1.6510
37601SOL    HW219854   0.613   4.315   0.516 -1.9134 -2.1567  1.7885
37602SOL     OW19855  10.994   4.652   6.821  0.1885  0.4016 -0.6322
37602SOL    HW119856  10.916   4.644   6.766 -0.9148  4.5479  0.0034
37602SOL    HW219857  11.043   4.725   6.783  2.7359 -0.7196  0.2642
37603SOL     OW19858   5.031   6.754   3.188  0.4100  0.3910  0.1016
37603SOL    HW119859   5.027   6.687   3.257  1.5757 -1.4340 -1.5219
37603SOL    HW219860   4.945   6.796   3.192 -0.3715 -1.1814  1.2163
37604SOL     OW19861   9.516   4.621   5.068  0.4241  0.2494 -0.1744
37604SOL    HW119862   9.488   4.664   4.987  2.6174 -0.3160 -1.3158
37604SOL    HW219863   9.540   4.532   5.041 -1.3115 -0.8526  1.6218
37605SOL     OW19864   8.965   1.972   8.937  0.6456  0.2242  0.3778
37605SOL    HW119865   8.898   2.026   8.897  0.6548 -0.5998 -0.7888
37605SOL    HW219866   8.979   2.011   9.024 -1.1395  0.5628  0.5451
37606SOL     OW19867   8.353   3.520   3.806 -0.5564  0.6830 -0.1929
37606SOL    HW119868   8.313   3.566   3.732 -2.2388  0.4288  0.5107
37606SOL    HW219869   8.322   3.567   3.883  0.0131  0.0695  0.4252
37607SOL     OW19870   7.514  10.142   1.808 -0.2976  0.3221  0.2213
37607SOL    HW119871   7.509  10.191   1.890  0.9573  3.1399 -1.2328
37607SOL    HW219872   7.601  10.103   1.808 -1.2815 -2.1011  1.3598
37608SOL     OW19873   9.215   5.143  12.475  0.4169 -0.0862  0.2769
37608SOL    HW119874   9.206   5.128  12.569 -1.3205 -0.4408  0.0924
37608SOL    HW219875   9.299   5.188  12.465  0.6276 -0.0571  1.9898
37609SOL     OW19876   2.947   9.504   9.475  0.2278  0.4069  0.0867
37609SOL    HW119877   2.917   9.594   9.488 -1.0363  0.2189 -1.3185
37609SOL    HW219878   2.876   9.449   9.509  0.5547 -0.0597  0.0305
37610SOL     OW19879   2.965   9.919   6.496  0.2545 -0.1791  0.0851
37610SOL    HW119880   3.015   9.981   6.549 -0.2990 -0.0084  0.4178
37610SOL    HW219881   2.881   9.963   6.481 -0.4902 -1.1859  1.0692
37611SOL     OW19882  11.525   9.986  10.445 -0.1034 -0.2696  0.0747
37611SOL    HW119883  11.499   9.907  10.398 -0.2754 -0.6862  0.8491
37611SOL    HW219884  11.620   9.984  10.446  0.0504  1.1335 -2.5614
37612SOL     OW19885   8.386  10.338   0.367 -0.1018  0.0709  0.6410
37612SOL    HW119886   8.330  10.279   0.418 -0.0140  0.3577  1.0678
37612SOL    HW219887   8.355  10.327   0.277 -0.1369 -0.5744  0.7236
37613SOL     OW19888   8.563   1.193   7.164 -0.4895 -0.9828 -0.2877
37613SOL    HW119889   8.489   1.236   7.122  0.4752 -0.5612 -1.6126
37613SOL    HW219890   8.621   1.264   7.191  0.2738 -1.3673 -0.8776
37614SOL     OW19891   2.625   4.175  10.467 -0.1937 -0.1241  0.2772
37614SOL    HW119892   2.657   4.182  10.377 -0.8647  0.4186  0.0665
37614SOL    HW219893   2.704   4.168  10.520  0.4548  3.1311 -0.0416
37615SOL     OW19894  12.069   3.635  10.928  0.1725  0.0909  0.2340
37615SOL    HW119895  12.139   3.687  10.890 -0.4049  1.9787  1.5860
37615SOL    HW219896  12.050   3.568  10.863  0.9088  1.6302 -1.6446
37616SOL     OW19897  10.908  10.100   0.565 -0.0795  0.7408  0.1754
37616SOL    HW119898  10.848  10.064   0.631  0.3079 -0.7960 -0.2626
37616SOL    HW219899  10.915  10.031   0.500  2.0703  0.9256  0.1597
37617SOL     OW19900   4.877  11.573   1.031  0.1616  0.2471 -0.0972
37617SOL    HW119901   4.963  11.606   1.059  0.2953 -0.1198 -0.0711
37617SOL    HW219902   4.824  11.652   1.019  0.3886  0.4596  0.2584
37618SOL     OW19903   8.867   2.819   6.647 -0.3323 -0.4368  0.0541
37618SOL    HW119904   8.957   2.808   6.615  0.4879  0.4038  1.9123
37618SOL    HW219905   8.877   2.837   6.740 -2.4518 -0.2863  0.2973
37619SOL     OW19906   3.480   3.362  10.356  0.4449 -0.3120 -0.5224
37619SOL    HW119907   3.571   3.354  10.328 -0.1821 -0.6110 -2.6050
37619SOL    HW219908   3.458   3.276  10.393  0.2868 -1.0928 -2.3582
37620SOL     OW19909  12.558   9.474  11.649  0.3454 -0.5574  0.4524
37620SOL    HW119910  12.589   9.538  11.713 -0.2405  0.8596 -0.6428
37620SOL    HW219911  12.571   9.515  11.564 -1.3829 -1.2796 -0.2261
37621SOL     OW19912   6.391   7.756   3.351  0.1773  0.1231 -0.1057
37621SOL    HW119913   6.437   7.821   3.297 -0.3376  0.4633 -0.1505
37621SOL    HW219914   6.393   7.792   3.439 -0.1435  0.2239 -0.1369
37622SOL     OW19915   6.763   1.521   4.703  0.1116  0.4148  0.4215
37622SOL    HW119916   6.781   1.448   4.762 -1.4291  0.6729  1.2409
37622SOL    HW219917   6.825   1.509   4.630  1.9315 -0.0110  1.9667
37623SOL     OW19918   3.271   8.335   9.289 -0.3953  0.7844 -0.3048
37623SOL    HW119919   3.329   8.369   9.221  0.6508  2.2663  1.2562
37623SOL    HW219920   3.184   8.361   9.262 -0.3492 -0.8731 -2.3363
37624SOL     OW19921   5.600   7.658   2.299 -0.0018 -0.2320  0.4788
37624SOL    HW119922   5.591   7.752   2.286  1.3422  0.1573  2.0985
37624SOL    HW219923   5.598   7.646   2.394 -1.4725 -2.0109  0.2815
37625SOL     OW19924   3.228   0.623   5.362  0.8031  0.0404  0.1132
37625SOL    HW119925   3.231   0.672   5.445  0.2973  1.4880 -0.6880
37625SOL    HW219926   3.193   0.686   5.299 -1.4792 -1.8554 -0.6473
37626SOL     OW19927   9.640   1.040   5.042  0.0850  0.3442  0.1015
37626SOL    HW119928   9.550   1.036   5.011 -0.1358 -1.8527  0.8392
37626SOL    HW219929   9.692   1.053   4.963 -0.8754  2.5627 -0.2376
37627SOL     OW19930   7.859   2.262   6.000 -0.0838  0.3846  0.2501
37627SOL    HW119931   7.798   2.192   6.019  0.9501 -0.0406  2.2791
37627SOL    HW219932   7.823   2.339   6.045 -0.3542  0.7505 -0.5734
37628SOL     OW19933   9.821   8.972   3.522 -0.0968  0.2505  0.0746
37628SOL    HW119934   9.763   8.901   3.552 -0.0994 -0.6948 -1.9907
37628SOL    HW219935   9.836   8.953   3.430  3.2694  0.6643  0.4331
37629SOL     OW19936   3.723  10.773   6.002 -0.0789  0.0293  0.4211
37629SOL    HW119937   3.739  10.794   5.911  0.6296 -1.0521  0.2871
37629SOL    HW219938   3.674  10.690   6.000  1.5128 -0.9667  1.0428
37630SOL     OW19939   2.214   6.454   5.983 -0.5238 -0.1839 -0.1948
37630SOL    HW119940   2.210   6.366   6.019 -3.2142 -0.3902 -0.8202
37630SOL    HW219941   2.191   6.445   5.891  1.1284  0.9689 -0.7718
37631SOL     OW19942   5.538  10.540  11.528  0.0687  0.0275 -0.0800
37631SOL    HW119943   5.631  10.521  11.518 -0.3768 -1.3527 -2.4755
37631SOL    HW219944   5.535  10.627  11.567  2.3163 -0.4931  1.4239
37632SOL     OW19945   3.639  12.208   8.367  0.3330 -0.0257 -0.6733
37632SOL    HW119946   3.651  12.153   8.290 -1.3481  0.3509 -1.2339
37632SOL    HW219947   3.625  12.296   8.332 -0.8589  0.0856  0.0284
37633SOL     OW19948  12.213   3.850   3.278  0.7764 -0.0614 -0.3351
37633SOL    HW119949  12.158   3.882   3.350  1.8948 -1.8116  1.4094
37633SOL    HW219950  12.178   3.892   3.200 -4.0919 -2.1934  0.3545
37634SOL     OW19951  12.300   2.890  11.229 -0.1655  0.5334  0.2119
37634SOL    HW119952  12.316   2.964  11.170 -1.1775 -0.2929 -1.1350
37634SOL    HW219953  12.361   2.823  11.201 -1.5895 -0.3736 -0.8867
37635SOL     OW19954   2.197   9.979   9.536  0.3340 -0.4210 -0.1740
37635SOL    HW119955   2.199   9.888   9.567 -1.1641  0.3903  2.7706
37635SOL    HW219956   2.152   9.975   9.452  1.0806 -2.4724 -0.5319
37636SOL     OW19957   2.317   7.730   5.551  0.3404 -0.6839 -0.1165
37636SOL    HW119958   2.364   7.742   5.468  1.2798  0.6124  0.5716
37636SOL    HW219959   2.345   7.644   5.581  2.1786 -0.0163  0.1848
37637SOL     OW19960   1.303   5.519   8.380  0.3770 -0.3558  0.3037
37637SOL    HW119961   1.363   5.464   8.430  0.9371  1.0792  1.2976
37637SOL    HW219962   1.361   5.572   8.324 -0.0638  0.0810  0.2569
37638SOL     OW19963   4.636   0.269   4.906  0.0816 -0.9903 -0.3131
37638SOL    HW119964   4.670   0.287   4.818 -0.7918  0.8685 -0.3194
37638SOL    HW219965   4.542   0.286   4.899 -0.2757 -2.4246  0.6008
37639SOL     OW19966   5.085  10.521   2.114 -0.0673 -0.5398 -0.4918
37639SOL    HW119967   4.998  10.506   2.078 -1.5375  2.0601  1.5882
37639SOL    HW219968   5.087  10.471   2.196 -1.0472  1.9985  1.2051
37640SOL     OW19969   1.640   9.243  11.101 -0.1742  0.1659 -0.3729
37640SOL    HW119970   1.643   9.338  11.091 -2.2948  0.2972 -0.1983
37640SOL    HW219971   1.560   9.216  11.057 -1.2219 -1.1520  2.1160
37641SOL     OW19972   2.451   0.419   7.503 -0.0457  0.2267 -0.2749
37641SOL    HW119973   2.422   0.381   7.420  0.1005 -0.4363 -0.0334
37641SOL    HW219974   2.399   0.374   7.570  0.7122 -0.1586  0.0752
37642SOL     OW19975   5.679   6.321  12.457  0.1609 -0.2881  0.3092
37642SOL    HW119976   5.628   6.311  12.538 -2.2636 -3.0507 -1.3683
37642SOL    HW219977   5.716   6.234  12.441  0.0312  0.0075 -1.8959
37643SOL     OW19978   7.744  11.890   4.665  0.0610 -0.9419  0.2077
37643SOL    HW119979   7.671  11.845   4.707 -1.8423  2.2427  0.6698
37643SOL    HW219980   7.783  11.943   4.735  1.0708 -0.5176 -0.6465
37644SOL     OW19981   0.648  11.998   5.624 -0.1919  0.1486  0.1945
37644SOL    HW119982   0.630  11.958   5.709 -0.3244  0.4605  0.3144
37644SOL    HW219983   0.564  11.994   5.578 -0.3934  0.9325  0.4753
37645SOL     OW19984   4.420   9.739   0.995  0.0370 -0.7782 -0.4234
37645SOL    HW119985   4.429   9.741   1.091  0.6052 -1.1328 -0.4678
37645SOL    HW219986   4.499   9.782   0.963  0.8129 -2.3834 -0.7728
37646SOL     OW19987  12.280   7.931   0.887  0.1125  0.2367  0.2557
37646SOL    HW119988  12.213   7.867   0.863  1.0924 -0.2764 -1.2429
37646SOL    HW219989  12.298   7.978   0.805  0.4417  1.4678  1.0051
37647SOL     OW19990   1.208   3.830   1.829 -0.2975 -0.3918  0.3287
37647SOL    HW119991   1.183   3.763   1.765 -1.5815 -0.0182  0.4277
37647SOL    HW219992   1.166   3.804   1.910  1.3458 -0.8750  1.0792
37648SOL     OW19993   4.698   6.722  12.504  0.2483  0.3070  0.3546
37648SOL    HW119994   4.681   6.721  12.598 -0.0475  2.3275  0.3653
37648SOL    HW219995   4.749   6.643  12.488 -0.4583 -0.5451  2.0473
37649SOL     OW19996   9.582   9.361   5.435  0.6381 -0.2321  0.4564
37649SOL    HW119997   9.654   9.304   5.409  0.8145 -0.6213  1.7109
37649SOL    HW219998   9.621   9.448   5.439  0.2744  0.0843 -1.8489
37650SOL     OW19999   1.243   6.285   7.263 -0.0393 -0.5457 -0.1882
37650SOL    HW120000   1.163   6.337   7.270 -0.2769 -1.0329  0.9262
37650SOL    HW220001   1.299   6.318   7.333 -0.5892 -2.3983  1.2208
37651SOL     OW20002   2.902   6.980   8.474 -0.2961 -0.0446  0.0793
37651SOL    HW120003   2.873   7.042   8.541 -0.4666  0.6068 -0.5866
37651SOL    HW220004   2.925   6.901   8.523 -0.2910  0.4647  0.9174
37652SOL     OW20005   8.399   0.602   5.768  0.3923 -0.6114  0.2493
37652SOL    HW120006   8.341   0.529   5.747 -1.3802  0.8470 -0.2952
37652SOL    HW220007   8.429   0.584   5.857 -1.9368 -0.8962  1.0697
37653SOL     OW20008   8.485   6.275   6.363 -0.1927 -0.1678 -0.4939
37653SOL    HW120009   8.556   6.218   6.391  0.6342  0.0293 -2.1019
37653SOL    HW220010   8.407   6.219   6.367 -0.0848 -0.2540  1.7297
37654SOL     OW20011   5.856   9.945  10.820  0.3463  0.6294 -0.2449
37654SOL    HW120012   5.857   9.885  10.746  0.7037 -0.2102  0.4084
37654SOL    HW220013   5.764   9.961  10.838  0.2454  2.3106 -1.9867
37655SOL     OW20014   2.521   7.025   1.813  0.0534  0.1714 -0.3292
37655SOL    HW120015   2.616   7.042   1.814 -0.3373  3.0531 -1.4533
37655SOL    HW220016   2.489   7.067   1.893 -0.3764 -0.1320 -0.3430
37656SOL     OW20017   3.875   0.262   1.681  0.4460  0.4331 -0.8764
37656SOL    HW120018   3.942   0.330   1.687  1.7669 -0.9159  1.5395
37656SOL    HW220019   3.858   0.237   1.772  1.2199 -3.5328 -1.6230
37657SOL     OW20020   6.832   5.298  11.343 -0.1162 -0.0641 -0.2726
37657SOL    HW120021   6.790   5.383  11.326 -0.6121 -0.1874  0.3288
37657SOL    HW220022   6.865   5.271  11.257  2.9180  2.2207 -0.0254
37658SOL     OW20023   1.965   9.392  10.196 -0.1104  0.0795  0.1140
37658SOL    HW120024   1.916   9.475  10.200 -0.5395 -0.2071  1.3695
37658SOL    HW220025   1.919   9.342  10.129 -1.3888 -0.0529  1.0337
37659SOL     OW20026  11.600   6.202   6.559 -0.0403  0.4607  0.3033
37659SOL    HW120027  11.606   6.109   6.534 -0.4256  0.6685 -0.6138
37659SOL    HW220028  11.685   6.222   6.597 -0.3515 -0.5637  1.5882
37660SOL     OW20029   6.051   0.452   6.071  0.0580  0.3290  0.0256
37660SOL    HW120030   6.115   0.404   6.124 -0.4390 -0.4233 -0.0309
37660SOL    HW220031   6.101   0.523   6.031  1.0901 -0.7809 -0.7583
37661SOL     OW20032   9.096  12.337   7.694  0.3664  0.2716 -0.0142
37661SOL    HW120033   9.147  12.322   7.615  1.5987 -0.6447  0.9101
37661SOL    HW220034   9.161  12.345   7.764 -0.7073  0.3948  1.0109
37662SOL     OW20035  10.060  10.366  10.499 -0.3849  0.1763 -0.4253
37662SOL    HW120036  10.122  10.319  10.443  0.1498  0.6195 -0.2182
37662SOL    HW220037  10.113  10.396  10.572 -0.9247  0.2611 -0.0659
37663SOL     OW20038   7.101   8.676  10.821  0.5227 -0.3491  0.1047
37663SOL    HW120039   7.179   8.697  10.872  0.1570 -0.4420  0.7089
37663SOL    HW220040   7.030   8.673  10.885  0.0814 -0.6215 -0.3862
37664SOL     OW20041  10.259  12.038   0.559 -0.1341 -0.4539 -0.2546
37664SOL    HW120042  10.221  12.047   0.471  0.0316 -0.6127 -0.3419
37664SOL    HW220043  10.186  12.057   0.618 -0.8284 -2.3935 -0.3883
37665SOL     OW20044   5.440   2.539  12.567 -0.3361  0.1247  0.3537
37665SOL    HW120045   5.533   2.560  12.554 -0.7715  2.5389  0.6319
37665SOL    HW220046   5.430   2.535  12.662 -0.6675  0.7054  0.3456
37666SOL     OW20047   6.713   7.256   2.401 -0.2611 -0.8334  0.0352
37666SOL    HW120048   6.714   7.165   2.432  1.5530 -1.1539 -0.8580
37666SOL    HW220049   6.694   7.250   2.308 -1.4510 -0.1720  0.2118
37667SOL     OW20050  11.938   2.254  12.427  0.0305 -0.5276  0.3175
37667SOL    HW120051  12.010   2.218  12.376 -0.2773  1.0713 -1.3329
37667SOL    HW220052  11.859   2.222  12.383 -0.2719 -0.6920  0.9620
37668SOL     OW20053   1.318   4.040   2.496  0.1339 -0.2959 -0.2930
37668SOL    HW120054   1.365   4.034   2.580 -0.3430  1.2114  0.1002
37668SOL    HW220055   1.385   4.065   2.433  0.4103 -1.0274 -0.3087
37669SOL     OW20056   0.178  12.143   1.006  0.0568  0.7235 -0.0117
37669SOL    HW120057   0.202  12.052   0.990 -2.6600 -0.2242  0.7676
37669SOL    HW220058   0.146  12.175   0.921 -0.0833  0.5729 -0.0153
37670SOL     OW20059   0.532  11.762   0.825  0.6985  0.0422  0.0772
37670SOL    HW120060   0.622  11.733   0.834  0.7677  0.1002 -0.3932
37670SOL    HW220061   0.537  11.838   0.767  0.5857  1.3301  1.6578
37671SOL     OW20062   8.097   4.181   1.674  0.1246 -0.8856  0.5997
37671SOL    HW120063   8.189   4.206   1.668  0.2457 -1.0193  1.7557
37671SOL    HW220064   8.054   4.254   1.717 -0.5965 -0.2190 -1.1479
37672SOL     OW20065   3.256  10.513  11.326  0.1210  0.0672 -0.7356
37672SOL    HW120066   3.310  10.511  11.247 -0.8295  0.5048 -1.4083
37672SOL    HW220067   3.198  10.437  11.318  3.0112 -2.7131  1.7745
37673SOL     OW20068   3.659  12.485   2.074 -0.2171  0.0009  0.2577
37673SOL    HW120069   3.713  12.417   2.037 -1.5806 -0.5265 -0.8527
37673SOL    HW220070   3.621  12.446   2.153 -0.8808 -0.5117 -0.2975
37674SOL     OW20071  11.165   1.825   8.120 -0.0081  0.1019  0.0990
37674SOL    HW120072  11.259   1.808   8.111  0.6736  1.0581  3.7459
37674SOL    HW220073  11.140   1.866   8.037  2.6071 -0.7632 -1.2283
37675SOL     OW20074   8.360   5.716   8.126  0.0831 -0.5185  0.4562
37675SOL    HW120075   8.381   5.750   8.213 -1.9256  0.6560  0.5335
37675SOL    HW220076   8.424   5.757   8.068 -0.0782  0.5930  1.0448
37676SOL     OW20077   9.255   8.266   5.960  0.3920 -0.9160 -0.1073
37676SOL    HW120078   9.187   8.265   6.028 -0.3327  1.7084 -0.6821
37676SOL    HW220079   9.311   8.339   5.984  0.6977 -0.5631 -1.8035
37677SOL     OW20080   9.290   4.602   7.521  0.4876 -0.0910 -0.2430
37677SOL    HW120081   9.317   4.690   7.493 -1.5594  0.3927 -0.8447
37677SOL    HW220082   9.352   4.544   7.478  1.3684  1.0046 -0.5184
37678SOL     OW20083   7.207  11.989   7.419 -0.0923  0.3298 -0.6506
37678SOL    HW120084   7.284  11.933   7.433 -0.3835 -0.2298 -1.2623
37678SOL    HW220085   7.137  11.928   7.396 -0.5448  0.9066 -0.8008
37679SOL     OW20086   3.629   3.337   6.032  0.3444 -0.3696  0.5500
37679SOL    HW120087   3.661   3.421   5.999 -1.2042  0.1965  0.4482
37679SOL    HW220088   3.580   3.359   6.111 -0.9285 -1.0318 -0.0267
37680SOL     OW20089   4.533  11.984   5.675  0.1472 -0.1207 -0.1221
37680SOL    HW120090   4.555  12.044   5.746 -0.2873  0.2102 -0.2681
37680SOL    HW220091   4.617  11.968   5.630  0.3319  0.0584  0.1587
37681SOL     OW20092   0.046   8.040   4.025 -0.3170 -0.2074 -0.3815
37681SOL    HW120093  -0.040   8.082   4.016 -0.1789  0.5552  1.3898
37681SOL    HW220094   0.032   7.950   3.996 -2.1392 -0.5588  1.3667
37682SOL     OW20095   3.863   7.185   5.124  0.3061 -0.5246  0.2335
37682SOL    HW120096   3.842   7.262   5.176  0.3566  0.7315 -1.5092
37682SOL    HW220097   3.927   7.216   5.060  0.9943 -2.2441  0.0380
37683SOL     OW20098  10.860   4.944   8.832 -0.3319  0.4153  0.3899
37683SOL    HW120099  10.812   4.962   8.751 -1.3243  0.5144  0.9754
37683SOL    HW220100  10.853   4.850   8.844  0.5243  0.2907 -0.0623
37684SOL     OW20101   9.620   9.804   2.612 -0.8558  0.2250 -0.3766
37684SOL    HW120102   9.631   9.769   2.700  1.0870 -0.2605 -0.7828
37684SOL    HW220103   9.593   9.729   2.559  0.1730  0.0161 -0.6187
37685SOL     OW20104   9.133   8.540   5.740  0.3747 -0.2061 -0.4197
37685SOL    HW120105   9.057   8.562   5.794 -0.3728 -1.1970 -1.0352
37685SOL    HW220106   9.193   8.614   5.752  1.4279 -1.4586  3.8269
37686SOL     OW20107  11.627   2.523   0.673 -0.0062 -0.4638  0.2686
37686SOL    HW120108  11.543   2.493   0.708 -0.4231  0.3932  0.0155
37686SOL    HW220109  11.605   2.596   0.615  0.9738  0.2150  0.7204
37687SOL     OW20110   8.873   0.237  10.238  0.0501 -0.5598  0.0025
37687SOL    HW120111   8.803   0.301  10.254 -1.2707 -1.7260 -0.8248
37687SOL    HW220112   8.949   0.289  10.214 -1.1833  0.6959 -1.3693
37688SOL     OW20113   3.032   1.037   7.474  0.0424  0.2627 -0.3378
37688SOL    HW120114   3.002   0.946   7.476 -0.8531  0.5544  0.7221
37688SOL    HW220115   3.051   1.058   7.565  1.5368  0.7462 -0.7369
37689SOL     OW20116   4.348   2.445  11.562  0.2884  0.0184 -0.0924
37689SOL    HW120117   4.416   2.507  11.535  0.8240 -0.7096 -0.4463
37689SOL    HW220118   4.318   2.478  11.647  1.4208  0.0851  0.2944
37690SOL     OW20119   7.045   7.474   7.429  0.2125  0.0634  0.5444
37690SOL    HW120120   7.001   7.559   7.419 -0.0741 -0.0076  1.1747
37690SOL    HW220121   7.131   7.487   7.388 -0.3879  0.1960 -0.7431
37691SOL     OW20122   1.655   2.367   6.402 -0.5542  0.2011 -0.2999
37691SOL    HW120123   1.683   2.312   6.475  0.5622 -0.0626 -0.8970
37691SOL    HW220124   1.736   2.404   6.368 -1.1607  1.1143 -0.7868
37692SOL     OW20125   3.519   7.940   0.716 -0.2654  0.0339  0.3171
37692SOL    HW120126   3.445   8.001   0.724 -1.2556 -1.1916  0.8613
37692SOL    HW220127   3.495   7.866   0.772  0.5794 -1.1677 -0.8612
37693SOL     OW20128  10.501  11.048   5.722 -0.0746 -0.1937 -0.4977
37693SOL    HW120129  10.440  11.107   5.766  0.2643 -0.7953  0.8454
37693SOL    HW220130  10.511  10.975   5.783  0.8920 -0.7830 -1.3328
37694SOL     OW20131   0.035   9.629  10.991 -0.8600  0.5034 -0.3616
37694SOL    HW120132   0.079   9.544  10.992 -0.8626  0.4080 -2.3907
37694SOL    HW220133   0.094   9.688  11.038 -1.0163 -0.6521  1.3742
37695SOL     OW20134   8.571  11.403   2.850 -0.8326  0.0532  0.3992
37695SOL    HW120135   8.523  11.321   2.842 -0.0091 -0.2942 -1.3593
37695SOL    HW220136   8.663  11.378   2.844 -0.4816  0.9483  1.5681
37696SOL     OW20137   2.091   6.350  10.208 -0.6979  0.4969 -0.2268
37696SOL    HW120138   2.125   6.264  10.234 -1.6121 -0.0506 -0.7668
37696SOL    HW220139   2.105   6.405  10.285 -1.6720 -0.6098  0.7994
37697SOL     OW20140   0.357   5.002   9.555 -0.3682  0.8512  0.0516
37697SOL    HW120141   0.433   4.997   9.612 -0.3439 -0.6849 -0.0559
37697SOL    HW220142   0.292   5.051   9.605  0.6425  2.1188  0.1706
37698SOL     OW20143  10.897  12.090   1.656  0.2556  0.4563 -0.6458
37698SOL    HW120144  10.883  11.996   1.646 -1.8486  0.7703 -1.2256
37698SOL    HW220145  10.922  12.120   1.569  3.8064  0.1202  0.0917
37699SOL     OW20146   4.568   2.701   6.718  0.5480 -0.1633 -0.5861
37699SOL    HW120147   4.594   2.792   6.703  3.4030 -0.5530  1.2376
37699SOL    HW220148   4.641   2.649   6.685  1.9130 -1.4174  3.6703
37700SOL     OW20149   7.585   2.762   7.399 -0.2348  0.1603  0.1810
37700SOL    HW120150   7.531   2.841   7.394 -2.3126 -1.2007 -0.0699
37700SOL    HW220151   7.571   2.728   7.487  1.0570  0.2949  0.4670
37701SOL     OW20152   8.801   0.210   7.585 -0.5220  0.6550 -0.0670
37701SOL    HW120153   8.792   0.144   7.653  1.7018  0.4934  0.1589
37701SOL    HW220154   8.731   0.273   7.603 -0.0605  0.5902  2.3768
37702SOL     OW20155  10.343   2.418   9.067 -0.5630 -0.0323  0.2953
37702SOL    HW120156  10.432   2.387   9.049 -0.4898 -0.7453  1.6910
37702SOL    HW220157  10.354   2.483   9.137 -0.9256  1.7544 -1.2210
37703SOL     OW20158  10.964  12.296  10.083 -0.1326 -0.0095  0.1080
37703SOL    HW120159  10.907  12.237  10.034  3.3318 -1.5701 -2.4491
37703SOL    HW220160  10.979  12.370  10.025 -0.5888  1.1030  1.3373
37704SOL     OW20161   3.318   9.765   0.683 -0.6240 -0.2145 -0.2891
37704SOL    HW120162   3.244   9.706   0.669 -0.0036 -0.8689 -0.9160
37704SOL    HW220163   3.358   9.733   0.764 -0.2352 -0.7182 -0.6773
37705SOL     OW20164   7.190   3.304   0.878  0.2540 -0.4580  0.2646
37705SOL    HW120165   7.218   3.359   0.951 -0.1466 -0.7799  0.6674
37705SOL    HW220166   7.206   3.214   0.908 -0.2271 -0.6066  0.0909
37706SOL     OW20167   7.928   2.773   2.036  0.1071 -1.2729 -0.1482
37706SOL    HW120168   7.886   2.756   1.952  1.5111 -1.6120 -0.8158
37706SOL    HW220169   7.890   2.855   2.066 -0.5638 -1.2519 -1.0110
37707SOL     OW20170  10.308   3.392   2.911 -0.0755  0.4035 -0.3099
37707SOL    HW120171  10.312   3.444   2.992 -1.1231  0.1913 -0.1112
37707SOL    HW220172  10.305   3.457   2.841  0.5806  0.5913 -0.1714
37708SOL     OW20173   2.776  11.361   6.269  0.1504 -0.6249 -0.0098
37708SOL    HW120174   2.714  11.351   6.342  0.1226  0.1685  0.0876
37708SOL    HW220175   2.778  11.275   6.227 -0.9135 -0.7044  0.0743
37709SOL     OW20176   9.512   7.040   3.703  0.0881 -0.1869  0.1070
37709SOL    HW120177   9.443   7.029   3.769  0.1914  1.8798  0.6420
37709SOL    HW220178   9.552   6.954   3.694 -1.6290 -1.0978  0.8351
37710SOL     OW20179   4.389   5.476   0.521  0.2941  0.0299 -0.0588
37710SOL    HW120180   4.340   5.507   0.444 -0.1075 -0.2739  0.0735
37710SOL    HW220181   4.468   5.530   0.521 -0.9257  1.9166  0.8486
37711SOL     OW20182   4.771   9.232   1.142 -0.0093 -0.2146 -0.7582
37711SOL    HW120183   4.826   9.154   1.136  0.2477 -0.0125 -1.0482
37711SOL    HW220184   4.716   9.228   1.064  0.7553  0.4596 -1.3435
37712SOL     OW20185   9.374   7.091   4.102  0.4577  0.1307 -0.5442
37712SOL    HW120186   9.323   7.043   4.036 -1.1274 -0.2269  0.8691
37712SOL    HW220187   9.361   7.183   4.080 -1.7460  0.0905  0.3950
37713SOL     OW20188   0.030  12.216  12.036 -0.2940  0.6689  0.4345
37713SOL    HW120189   0.106  12.244  11.986  1.1521 -1.3544  1.3567
37713SOL    HW220190  -0.044  12.226  11.976  1.0400  0.4580 -1.3233
37714SOL     OW20191   5.550   4.035   1.522  0.9247  0.2999 -0.6447
37714SOL    HW120192   5.551   3.945   1.557 -0.5474  0.3153 -0.4849
37714SOL    HW220193   5.622   4.037   1.459  0.9373 -1.0320 -0.7122
37715SOL     OW20194   6.794   3.045   8.553 -0.0728 -0.0961 -0.6575
37715SOL    HW120195   6.735   3.003   8.490  0.5316 -2.6369  0.3566
37715SOL    HW220196   6.880   3.044   8.511 -0.1155  0.5260 -0.7762
37716SOL     OW20197   8.455   9.661   9.862 -0.2357 -0.1144 -0.1681
37716SOL    HW120198   8.454   9.734   9.923  0.3997 -2.1045  2.3834
37716SOL    HW220199   8.422   9.586   9.913 -0.6513 -1.6904 -2.5773
37717SOL     OW20200   8.594  10.730   1.935 -0.1214 -0.3042  0.3069
37717SOL    HW120201   8.595  10.824   1.916 -0.3081 -0.2926  0.3527
37717SOL    HW220202   8.686  10.706   1.947  0.0494 -0.3815 -0.9678
37718SOL     OW20203  10.911   9.420   8.646 -0.0528  0.5944 -0.0844
37718SOL    HW120204  10.994   9.400   8.688 -1.1410 -0.7593  1.5844
37718SOL    HW220205  10.906   9.516   8.646  0.6405  0.6725  1.6315
37719SOL     OW20206   5.868  10.675   6.506  0.1846  0.7639  0.1356
37719SOL    HW120207   5.817  10.597   6.529  1.5320  0.2377  1.4811
37719SOL    HW220208   5.880  10.721   6.589  0.5078  1.7381 -0.4358
37720SOL     OW20209   8.526   8.157   7.054  0.4002 -0.7181  0.0743
37720SOL    HW120210   8.579   8.082   7.027  1.7464 -0.2113  1.2340
37720SOL    HW220211   8.508   8.204   6.972  0.2213 -1.8360 -0.5540
37721SOL     OW20212   7.618   8.166   2.385  0.0000  0.0956  0.0764
37721SOL    HW120213   7.697   8.201   2.344  0.2874 -1.8058 -1.1229
37721SOL    HW220214   7.551   8.232   2.369  0.9452  0.9526 -0.4186
37722SOL     OW20215  10.411   9.129   8.444 -0.1694  0.0476 -0.2648
37722SOL    HW120216  10.406   9.219   8.411 -1.4075 -0.0103 -0.2646
37722SOL    HW220217  10.461   9.136   8.525 -1.7579  1.0352  0.6854
37723SOL     OW20218   1.918   7.357   4.411 -0.2852 -0.4182  0.0782
37723SOL    HW120219   1.830   7.393   4.404  0.1343  0.7548  0.6079
37723SOL    HW220220   1.911   7.270   4.371 -1.3649  0.1597 -1.0798
37724SOL     OW20221   2.547   4.155   0.565  0.0360  0.2145 -0.0029
37724SOL    HW120222   2.616   4.153   0.632  2.1561 -2.0608 -2.0704
37724SOL    HW220223   2.593   4.179   0.484 -1.7587 -0.5482 -1.3017
37725SOL     OW20224   5.161  10.085   6.990  0.0422  0.6628 -0.3492
37725SOL    HW120225   5.251  10.103   6.962 -0.4710  0.4348 -2.3166
37725SOL    HW220226   5.156   9.990   6.995 -0.6461  0.5360 -2.4693
37726SOL     OW20227   1.376   9.403  11.235 -0.3857  0.1293  0.4120
37726SOL    HW120228   1.304   9.344  11.212  0.1010 -1.2267  2.1781
37726SOL    HW220229   1.417   9.424  11.151  0.2305 -3.1271 -0.2436
37727SOL     OW20230   1.651  10.648   6.648 -0.4538 -0.2812  0.4019
37727SOL    HW120231   1.635  10.592   6.724  1.9121 -0.7055  0.6409
37727SOL    HW220232   1.712  10.715   6.680  0.4797 -0.3830 -1.0689
37728SOL     OW20233   6.301   3.678   7.996 -0.1900  0.2983  0.3383
37728SOL    HW120234   6.261   3.595   7.973 -1.5927  0.3149  2.3968
37728SOL    HW220235   6.324   3.668   8.089 -0.7654  2.3265  0.7383
37729SOL     OW20236   4.569   8.192   6.706 -0.0173 -0.3194  0.1812
37729SOL    HW120237   4.495   8.187   6.645  1.5421  1.7797 -2.0274
37729SOL    HW220238   4.614   8.108   6.695  0.5952  0.2555 -2.1287
37730SOL     OW20239   3.417  11.665   2.829 -0.4008 -0.1039  0.0156
37730SOL    HW120240   3.348  11.635   2.888 -0.2831  0.5717  0.5086
37730SOL    HW220241   3.437  11.754   2.858 -0.1969  0.1711 -0.9192
37731SOL     OW20242   1.784   8.786   7.281  0.8606  0.0710  0.4276
37731SOL    HW120243   1.795   8.876   7.250  0.5898  0.1376  0.5172
37731SOL    HW220244   1.860   8.739   7.247  1.1964  0.4171  0.6918
37732SOL     OW20245  10.890   7.552   8.867 -0.3995  0.3916 -0.6214
37732SOL    HW120246  10.888   7.559   8.772  0.6087  0.3595 -0.6526
37732SOL    HW220247  10.982   7.563   8.891 -0.4307 -0.9582  0.2498
37733SOL     OW20248   2.697   4.948   5.956  0.1705  0.4105 -0.0128
37733SOL    HW120249   2.602   4.951   5.964 -0.2967  0.1882 -3.7316
37733SOL    HW220250   2.718   4.855   5.946  0.4742  0.5982 -1.2998
37734SOL     OW20251   5.306   4.091   1.591 -0.5058  0.2556 -0.1929
37734SOL    HW120252   5.394   4.092   1.554  0.1940 -1.0633  1.3255
37734SOL    HW220253   5.279   3.999   1.587 -1.0237  0.3308  1.0897
37735SOL     OW20254   0.401   5.851  12.036  0.2197 -0.0288 -0.1939
37735SOL    HW120255   0.474   5.791  12.046 -0.0790 -0.3086  0.3774
37735SOL    HW220256   0.379   5.847  11.943 -0.5537 -1.7318  0.0145
37736SOL     OW20257   6.975   8.184   2.162  0.2949 -0.1239 -0.0826
37736SOL    HW120258   6.889   8.157   2.131  0.1504  0.8233 -0.5125
37736SOL    HW220259   7.035   8.118   2.125 -0.2498 -0.8884  0.3690
37737SOL     OW20260  12.456   1.749   8.500  0.3232 -0.4575 -0.2230
37737SOL    HW120261  12.410   1.821   8.544  0.3661 -0.4940 -0.1164
37737SOL    HW220262  12.432   1.757   8.408  1.2870  0.4413 -0.4188
37738SOL     OW20263  10.803   0.541   0.356  0.0202 -0.0081  0.2694
37738SOL    HW120264  10.856   0.619   0.372 -0.0191 -0.2596  1.6910
37738SOL    HW220265  10.713   0.573   0.352  0.1244  0.2139 -0.7143
37739SOL     OW20266   0.064  12.019   2.480  0.0286  0.1542 -0.3992
37739SOL    HW120267  -0.004  12.032   2.415 -1.1868 -0.1890  0.7584
37739SOL    HW220268   0.088  11.927   2.473 -0.0389  0.1381 -0.4113
37740SOL     OW20269   2.656  10.407   0.024 -0.0851  0.2555  0.5416
37740SOL    HW120270   2.647  10.377  -0.066 -1.9952  1.0758  0.4035
37740SOL    HW220271   2.644  10.502   0.019 -0.7436  0.2630  1.7004
37741SOL     OW20272  11.337   2.473   9.803 -0.0538  0.4065  0.4685
37741SOL    HW120273  11.369   2.390   9.840  0.5261  0.7187  0.6824
37741SOL    HW220274  11.349   2.462   9.708 -1.5921 -0.4138  0.3388
37742SOL     OW20275   1.451   1.881   4.791 -0.0459  0.2034  0.2709
37742SOL    HW120276   1.423   1.971   4.773  2.6683  0.9440 -0.7767
37742SOL    HW220277   1.404   1.828   4.727 -2.9577  0.5443  1.9528
37743SOL     OW20278  10.399   3.736  10.105 -0.2070 -0.3654 -0.1264
37743SOL    HW120279  10.478   3.723  10.053 -0.5895 -2.9371 -0.1728
37743SOL    HW220280  10.384   3.830  10.102  1.3452 -0.1200 -2.3206
37744SOL     OW20281   8.795   4.677   6.200  0.2582 -0.2474 -0.4688
37744SOL    HW120282   8.857   4.746   6.227 -0.1993  0.2867 -0.7610
37744SOL    HW220283   8.713   4.724   6.183  0.0024 -0.8346 -0.8947
37745SOL     OW20284   2.780   3.414   5.022  0.2974  0.0982 -0.2572
37745SOL    HW120285   2.754   3.332   5.063 -0.3036 -0.0929 -0.9911
37745SOL    HW220286   2.698   3.462   5.011  0.3258 -0.1840 -1.9142
37746SOL     OW20287  11.492   7.724   7.659  0.6043  0.0779  0.3092
37746SOL    HW120288  11.417   7.780   7.677  0.1320 -0.1267 -0.9021
37746SOL    HW220289  11.459   7.658   7.598  1.7268 -0.1060 -0.1354
37747SOL     OW20290   8.130   5.022   0.613 -0.0389  0.4434  0.1433
37747SOL    HW120291   8.147   5.065   0.530  1.9241  0.0263  0.2612
37747SOL    HW220292   8.164   4.933   0.601  0.7824  0.5313  1.5170
37748SOL     OW20293   2.162   6.783   3.690 -0.0306 -0.0728 -0.1468
37748SOL    HW120294   2.128   6.786   3.600  0.1500 -1.1287 -0.2623
37748SOL    HW220295   2.103   6.723   3.736 -0.9478  1.5031  0.8210
37749SOL     OW20296   0.351   9.160   4.952 -0.0322 -0.3214  0.5452
37749SOL    HW120297   0.336   9.112   5.033 -1.6960  2.3461  1.9587
37749SOL    HW220298   0.268   9.154   4.905  0.4594 -0.6354 -0.2952
37750SOL     OW20299   8.694   4.373   9.672 -0.2061  0.2262 -0.0556
37750SOL    HW120300   8.786   4.384   9.646 -0.6467  0.6685 -1.4813
37750SOL    HW220301   8.699   4.352   9.765  1.2172  2.7980  0.5474
37751SOL     OW20302  11.308   6.803   2.346  0.1905 -0.4898 -0.3704
37751SOL    HW120303  11.394   6.804   2.303 -0.1760  0.1740 -1.1032
37751SOL    HW220304  11.314   6.871   2.413  0.6260 -1.2518  0.3812
37752SOL     OW20305  10.610   8.589  11.329  0.2397 -0.4574  0.6067
37752SOL    HW120306  10.514   8.584  11.321  0.1219  1.1027  0.6154
37752SOL    HW220307  10.636   8.647  11.257  1.2274 -1.1853  0.3704
37753SOL     OW20308   8.105   2.420   7.242 -0.2030  0.5529 -0.5598
37753SOL    HW120309   8.191   2.390   7.272 -0.6111 -0.1417 -0.0654
37753SOL    HW220310   8.125   2.484   7.174  0.7204  1.0207  0.1195
37754SOL     OW20311   1.473   6.301   8.384 -0.1591  0.6247 -0.7007
37754SOL    HW120312   1.416   6.242   8.335  0.5426  0.2732 -1.1049
37754SOL    HW220313   1.515   6.355   8.317 -0.7175  1.5246 -0.3428
37755SOL     OW20314  10.183   5.502   2.110 -0.1271 -0.2882  0.1453
37755SOL    HW120315  10.237   5.430   2.079 -0.6296 -0.1389 -1.1320
37755SOL    HW220316  10.195   5.502   2.205  0.7394 -1.3469  0.0508
37756SOL     OW20317  10.385   4.291   7.232  0.7559  0.0319  0.4028
37756SOL    HW120318  10.453   4.271   7.168  1.7566 -0.2572  1.5351
37756SOL    HW220319  10.325   4.217   7.226  1.4775 -0.5754  0.6423
37757SOL     OW20320  10.587   6.411   5.109 -0.0555  0.1311  0.3475
37757SOL    HW120321  10.532   6.489   5.112 -1.8438 -1.0583 -0.1011
37757SOL    HW220322  10.630   6.408   5.194 -0.2452  1.4038  0.4985
37758SOL     OW20323   0.777  11.640   6.076 -0.2098 -0.2299  0.7151
37758SOL    HW120324   0.781  11.680   5.990  3.9239  2.8723  2.0198
37758SOL    HW220325   0.777  11.546   6.059 -2.2636  0.2130 -2.5262
37759SOL     OW20326   4.159  12.439   3.598  0.2954  0.2218 -0.0183
37759SOL    HW120327   4.084  12.444   3.538 -1.0515  1.0869  1.6257
37759SOL    HW220328   4.123  12.466   3.682  1.5478 -3.0803  1.7335
37760SOL     OW20329   4.731   2.715   5.778 -0.2388 -0.1457 -0.1389
37760SOL    HW120330   4.661   2.673   5.727 -3.0136  2.3469  1.3449
37760SOL    HW220331   4.781   2.765   5.714 -2.3093  1.1714 -0.8155
37761SOL     OW20332   3.968   9.542   3.835  0.3778 -0.1088  0.0842
37761SOL    HW120333   4.042   9.488   3.805  0.8729  0.7882 -0.3348
37761SOL    HW220334   4.008   9.623   3.866 -0.2628 -0.3634  1.6994
37762SOL     OW20335  10.273   7.548   1.245 -0.2768 -0.1784 -0.0052
37762SOL    HW120336  10.314   7.509   1.168 -0.8582 -0.1508 -0.3344
37762SOL    HW220337  10.187   7.576   1.214 -0.7286 -0.6662  0.8002
37763SOL     OW20338   9.052   5.883   6.601  0.3984  0.2539 -0.2941
37763SOL    HW120339   8.990   5.884   6.527  1.3459  0.5182 -1.1095
37763SOL    HW220340   9.128   5.931   6.568  1.4986 -1.0331  0.2870
37764SOL     OW20341   3.560   4.578  12.343  0.3505 -0.3137 -0.1576
37764SOL    HW120342   3.611   4.515  12.394 -1.5113 -2.7534 -1.1254
37764SOL    HW220343   3.484   4.597  12.398  0.4605  0.4535 -0.2510
37765SOL     OW20344   2.625  10.923  10.580  0.2461 -0.1495  0.5347
37765SOL    HW120345   2.650  10.884  10.496 -0.5789 -1.9690  1.0963
37765SOL    HW220346   2.708  10.954  10.617  0.9405 -1.2793 -0.0081
37766SOL     OW20347   4.354   2.521   3.289  0.0421  0.4182 -0.0152
37766SOL    HW120348   4.431   2.471   3.317  0.3426  1.0946  0.4148
37766SOL    HW220349   4.319   2.558   3.370 -1.1978 -0.4949 -0.1120
37767SOL     OW20350  11.246  12.386   1.250  0.1731 -0.1543 -0.6142
37767SOL    HW120351  11.266  12.416   1.339 -0.8476 -0.9786 -0.0835
37767SOL    HW220352  11.288  12.301   1.244 -0.4160 -0.4436 -0.6430
37768SOL     OW20353   8.584   3.643   8.052 -0.3130  0.1488  0.3360
37768SOL    HW120354   8.510   3.685   8.097  0.2591 -0.0846  1.5400
37768SOL    HW220355   8.544   3.572   8.002 -0.9387  0.1798  0.7751
37769SOL     OW20356  11.251   7.004   1.439  0.6018 -0.4730 -0.5406
37769SOL    HW120357  11.238   7.034   1.529  0.6181  1.0840 -1.0299
37769SOL    HW220358  11.334   7.042   1.412 -0.2053  0.4869 -1.7576
37770SOL     OW20359   1.047  11.612   6.647 -0.3611  0.4733  0.3501
37770SOL    HW120360   1.030  11.672   6.575 -0.8444 -0.3918 -0.2741
37770SOL    HW220361   1.016  11.527   6.616  2.0599 -0.5341  0.4465
37771SOL     OW20362  11.715   4.305   5.657  0.6670 -0.0513  0.3543
37771SOL    HW120363  11.802   4.325   5.624  0.4790  1.4585  0.6984
37771SOL    HW220364  11.667   4.272   5.580  0.8525  1.4100 -0.4166
37772SOL     OW20365   9.831   5.886   5.558 -0.4537 -0.0261 -0.4247
37772SOL    HW120366   9.781   5.910   5.480  0.8202 -1.3750 -1.7247
37772SOL    HW220367   9.919   5.922   5.542 -0.0940 -0.5752  0.2461
37773SOL     OW20368  10.322   8.017   8.475 -0.0845  0.6609  0.0326
37773SOL    HW120369  10.270   8.029   8.554 -0.0048 -0.7467  0.3236
37773SOL    HW220370  10.367   8.100   8.463 -0.0579  0.8810  1.4927
37774SOL     OW20371  12.387   3.354   1.868  0.4922 -0.4562 -0.4251
37774SOL    HW120372  12.344   3.317   1.945  1.9161  0.8599  1.0712
37774SOL    HW220373  12.352   3.443   1.861  1.0202 -0.2739 -0.7771
37775SOL     OW20374  10.456   5.948  11.993 -0.1835 -0.0247 -0.1268
37775SOL    HW120375  10.454   5.901  12.076  0.3908 -0.1659 -0.1926
37775SOL    HW220376  10.420   5.886  11.929 -1.9457  0.5664  0.2465
37776SOL     OW20377   6.554   5.291   3.226  0.3558 -0.4349  0.4858
37776SOL    HW120378   6.531   5.347   3.152  0.3198  0.8621  1.4294
37776SOL    HW220379   6.637   5.251   3.202  2.3845  2.9674  1.2103
37777SOL     OW20380  11.664  11.820   3.188 -0.0762  0.0206 -0.3382
37777SOL    HW120381  11.744  11.861   3.154 -0.8858  0.3562 -1.8829
37777SOL    HW220382  11.595  11.882   3.169 -0.9590 -0.9813 -0.4700
37778SOL     OW20383  10.065   0.352   0.296 -0.2654 -0.0020 -0.4814
37778SOL    HW120384  10.034   0.262   0.299 -0.6953  0.0864 -1.5238
37778SOL    HW220385  10.153   0.346   0.259 -0.3479  0.0052 -0.6835
37779SOL     OW20386  11.938   6.704   8.977  0.4966  0.0717  0.3846
37779SOL    HW120387  11.959   6.797   8.975 -0.5269  0.3657  1.6923
37779SOL    HW220388  11.883   6.690   8.899  0.5382  0.5924  0.2612
37780SOL     OW20389   9.492   1.340   2.576  0.0540  0.1264  0.3934
37780SOL    HW120390   9.555   1.276   2.544  2.0458  1.7966  0.7837
37780SOL    HW220391   9.422   1.339   2.510  0.6195 -1.5261 -0.2440
37781SOL     OW20392   1.467  10.406   5.430  0.2842  0.2925 -0.0744
37781SOL    HW120393   1.548  10.374   5.389  1.6395  1.8228  1.2147
37781SOL    HW220394   1.484  10.499   5.445 -1.3508  0.4336  1.1494
37782SOL     OW20395   3.271   5.062  11.589 -0.1829  0.0761  0.1585
37782SOL    HW120396   3.274   5.050  11.494 -0.2655 -0.1194  0.1816
37782SOL    HW220397   3.181   5.041  11.613 -0.6062  1.6255  0.0727
37783SOL     OW20398   2.137  11.063   6.515 -0.2257  0.5530  0.0032
37783SOL    HW120399   2.087  11.143   6.502 -0.3270  0.1219 -2.9891
37783SOL    HW220400   2.212  11.071   6.457  1.9308  0.0802  2.5120
37784SOL     OW20401   2.291   4.964   4.462 -0.2599  0.0195  0.3802
37784SOL    HW120402   2.260   5.045   4.422 -1.9844 -1.2962 -1.1397
37784SOL    HW220403   2.240   4.956   4.543  1.1564  1.2438  1.4493
37785SOL     OW20404  12.218   9.297   6.614 -0.3400 -0.0066  0.1058
37785SOL    HW120405  12.261   9.308   6.530 -0.3520 -0.5069  0.0307
37785SOL    HW220406  12.163   9.219   6.603 -1.1778  0.5577  0.2325
37786SOL     OW20407   3.471   2.453   0.644 -0.2102 -0.0677 -0.3353
37786SOL    HW120408   3.483   2.358   0.649 -2.1289 -0.3859 -0.7676
37786SOL    HW220409   3.405   2.472   0.711  1.5592  1.2899  1.1052
37787SOL     OW20410   1.460  11.785  11.664  0.4202  0.0956  0.0443
37787SOL    HW120411   1.425  11.711  11.713 -0.6187 -0.1580 -1.0284
37787SOL    HW220412   1.417  11.862  11.702  0.7797  0.0625  0.5256
37788SOL     OW20413   5.077   0.776  12.016 -0.5068  0.3397 -0.0706
37788SOL    HW120414   5.104   0.772  12.107 -1.5906 -0.2281  0.2498
37788SOL    HW220415   5.149   0.736  11.967 -0.2837 -0.1404  0.6342
37789SOL     OW20416   0.202  12.480  11.304  0.1451  0.6017  0.0808
37789SOL    HW120417   0.147  12.541  11.352  0.3318  0.6327  0.2576
37789SOL    HW220418   0.285  12.479  11.352  0.5912  1.1841 -0.6352
37790SOL     OW20419   8.023   3.782   2.260 -0.2287  0.0307 -0.0543
37790SOL    HW120420   8.072   3.703   2.282 -1.2415 -0.4094  0.7542
37790SOL    HW220421   8.046   3.801   2.169  1.9356  0.2469  0.5017
37791SOL     OW20422   6.417   5.275  10.939  0.1290 -0.4251 -0.2813
37791SOL    HW120423   6.391   5.367  10.944 -0.2782 -0.4672 -1.2932
37791SOL    HW220424   6.430   5.248  11.030 -3.3079 -0.3473  0.3744
37792SOL     OW20425   4.009   6.547   4.596 -0.5198  0.0662 -0.0132
37792SOL    HW120426   3.994   6.586   4.510  0.0819  0.6476  0.1431
37792SOL    HW220427   4.034   6.456   4.577 -1.9674 -0.2846 -0.3703
37793SOL     OW20428   7.898  10.858   4.518 -0.2071 -0.1061 -0.1178
37793SOL    HW120429   7.971  10.850   4.580  1.1300  1.5614 -1.3898
37793SOL    HW220430   7.888  10.770   4.482  0.1070 -0.7212  1.2034
37794SOL     OW20431   5.544   0.566   0.926 -0.9079 -0.6842 -0.3199
37794SOL    HW120432   5.589   0.596   0.847  0.0400 -1.0931  0.0541
37794SOL    HW220433   5.459   0.610   0.923 -0.0584  1.0425 -0.4473
37795SOL     OW20434   4.319   5.123   0.236 -0.3627 -0.4826 -0.2974
37795SOL    HW120435   4.234   5.165   0.250 -0.3706 -0.7614  0.5865
37795SOL    HW220436   4.384   5.190   0.258 -0.3500 -0.2920 -0.9030
37796SOL     OW20437  12.217   3.357   9.530  0.1297  0.0718  0.0709
37796SOL    HW120438  12.278   3.286   9.548  1.4896  1.3661  0.8198
37796SOL    HW220439  12.174   3.374   9.614 -0.0275  0.2873 -0.0518
37797SOL     OW20440   9.001   6.657  10.408  0.3742 -0.5889  0.1089
37797SOL    HW120441   8.961   6.733  10.451  0.8712 -0.9221  1.1872
37797SOL    HW220442   8.998   6.678  10.315 -0.9801  0.0371  0.2679
37798SOL     OW20443   1.721  10.915   8.413 -0.1349 -0.3511 -0.1631
37798SOL    HW120444   1.764  10.854   8.353  0.2933  0.5259 -0.7572
37798SOL    HW220445   1.628  10.894   8.405 -0.1609  0.3011 -1.7635
37799SOL     OW20446   6.221   6.514   4.688  0.2750 -0.0307  0.2161
37799SOL    HW120447   6.270   6.437   4.716  0.4627 -0.3565 -0.9332
37799SOL    HW220448   6.275   6.553   4.619 -0.6754  0.0872 -0.4743
37800SOL     OW20449   4.736   4.068   5.384  0.1301  0.2397 -0.1284
37800SOL    HW120450   4.642   4.049   5.386 -0.2075  1.4509 -1.9771
37800SOL    HW220451   4.742   4.160   5.410  0.5576  0.7597 -1.9413
37801SOL     OW20452   9.641   1.827  10.510 -0.1143  0.1008  0.6754
37801SOL    HW120453   9.665   1.753  10.454 -0.9202  1.5892 -1.8006
37801SOL    HW220454   9.557   1.802  10.549 -0.5763 -0.1564 -0.4566
37802SOL     OW20455   4.373   5.951   1.849 -0.0488 -0.1797 -0.4275
37802SOL    HW120456   4.392   6.024   1.790 -0.0851 -0.5910 -0.9591
37802SOL    HW220457   4.425   5.878   1.814  1.0157 -0.0734  0.8722
37803SOL     OW20458   5.432   4.033   2.483 -0.0468  0.0847 -0.0673
37803SOL    HW120459   5.432   3.989   2.568 -1.8162  0.7781  0.3231
37803SOL    HW220460   5.418   4.125   2.504 -2.0665  0.0700 -1.1635
37804SOL     OW20461   2.562   8.671   0.495 -0.0871  0.4981  0.2436
37804SOL    HW120462   2.528   8.746   0.545  0.2294  0.7084  0.1431
37804SOL    HW220463   2.486   8.615   0.483 -0.1192  0.3139  1.1993
37805SOL     OW20464  10.244   0.808  11.599 -0.0809  0.4723 -0.2088
37805SOL    HW120465  10.315   0.844  11.545 -0.4684  0.4198 -0.7718
37805SOL    HW220466  10.164   0.829  11.550 -0.2923 -1.7587 -0.9743
37806SOL     OW20467   9.370   0.489   9.911 -0.1661  0.4683  0.0602
37806SOL    HW120468   9.451   0.464   9.957 -0.5918  0.1216  0.6396
37806SOL    HW220469   9.377   0.446   9.826 -0.1241 -0.2711  0.4267
37807SOL     OW20470  10.161   9.240   0.391 -0.7007 -0.1147  0.1155
37807SOL    HW120471  10.087   9.229   0.331 -0.4454 -0.6232 -0.1113
37807SOL    HW220472  10.227   9.286   0.339 -0.2655 -1.0463 -0.1849
37808SOL     OW20473  10.185   9.830   6.803  0.1336  0.2519  0.2836
37808SOL    HW120474  10.157   9.775   6.729 -0.2052  0.8656 -0.0529
37808SOL    HW220475  10.274   9.801   6.822  0.5742  0.7204 -0.9796
37809SOL     OW20476  11.950   3.144   1.804  0.1172  0.5397  0.2377
37809SOL    HW120477  11.931   3.091   1.882 -1.1289 -0.5216 -0.7503
37809SOL    HW220478  11.866   3.149   1.758  0.8816  0.9962 -1.1371
37810SOL     OW20479   7.114   0.499  10.325 -0.0962 -0.0163 -0.5112
37810SOL    HW120480   7.111   0.463  10.236 -2.2533 -0.2701 -0.3892
37810SOL    HW220481   7.202   0.534  10.334  0.0819  0.2845 -2.8722
37811SOL     OW20482  10.843   7.799   2.428 -0.1559 -0.4577 -0.0572
37811SOL    HW120483  10.895   7.877   2.408 -0.3176  0.1370  1.6767
37811SOL    HW220484  10.837   7.752   2.345 -0.1481  1.4177 -1.1666
37812SOL     OW20485  10.986   0.593   4.596  0.5369  0.1336  0.6157
37812SOL    HW120486  10.899   0.554   4.589  0.0118  1.5693 -2.6311
37812SOL    HW220487  10.971   0.683   4.625  1.0203  0.2062  0.6578
37813SOL     OW20488   8.180   2.415   5.864 -0.5336  0.0004  0.5453
37813SOL    HW120489   8.211   2.491   5.815 -3.8661 -0.1041 -2.0948
37813SOL    HW220490   8.144   2.453   5.945  1.2607  0.6860  1.0782
37814SOL     OW20491  12.377   2.167  12.435 -0.6236 -0.2199 -0.0230
37814SOL    HW120492  12.398   2.073  12.438  1.5487  0.1162 -1.7441
37814SOL    HW220493  12.311   2.174  12.366 -0.0086 -0.4041 -0.6477
37815SOL     OW20494  10.102   0.692   2.779 -0.0227 -0.1682  0.3489
37815SOL    HW120495  10.178   0.689   2.837 -0.5288  1.2652  1.1431
37815SOL    HW220496  10.132   0.742   2.703  0.2886 -1.0186 -0.1022
37816SOL     OW20497   8.701   0.971  11.239 -0.7355 -0.7680  0.4243
37816SOL    HW120498   8.677   0.901  11.178 -0.7719 -1.7815  1.5712
37816SOL    HW220499   8.717   0.926  11.322  0.8244  0.3883  0.8014
37817SOL     OW20500  12.548   1.503   8.977  0.1731  0.2208  0.7624
37817SOL    HW120501  12.554   1.427   9.036  0.4522  0.3559  0.9127
37817SOL    HW220502  12.639   1.531   8.967  0.1465  0.0850  0.1129
37818SOL     OW20503   6.135   6.151   9.210 -0.0540  0.8757  0.2754
37818SOL    HW120504   6.121   6.093   9.285 -1.3716  1.9199  0.8594
37818SOL    HW220505   6.195   6.102   9.153 -3.2719 -2.4137 -0.6701
37819SOL     OW20506   8.193  10.816   9.002  0.0022 -0.1754  0.2176
37819SOL    HW120507   8.207  10.905   9.032  0.4205 -0.7028  1.6561
37819SOL    HW220508   8.121  10.783   9.056  0.2070 -0.8730  0.0800
37820SOL     OW20509   0.615   0.545   7.445  0.1270  0.1065  0.4533
37820SOL    HW120510   0.522   0.563   7.431  0.3395  0.4357 -0.6088
37820SOL    HW220511   0.648   0.623   7.490  0.1893  0.6269 -0.4789
37821SOL     OW20512   5.212  11.453   5.493 -0.0294 -0.0268 -0.0601
37821SOL    HW120513   5.207  11.497   5.578 -1.2001  1.1123 -0.6737
37821SOL    HW220514   5.215  11.525   5.429  1.1256 -0.8531 -0.9817
37822SOL     OW20515   3.759   9.891   3.346 -0.1964 -0.3707 -0.0022
37822SOL    HW120516   3.670   9.876   3.314 -1.1806  1.5990  1.5441
37822SOL    HW220517   3.779   9.981   3.319 -0.8544  1.2031  3.9942
37823SOL     OW20518   0.301   0.006   2.078  0.8903  0.3198  0.4435
37823SOL    HW120519   0.243   0.037   2.008  1.9340  1.5381  0.0742
37823SOL    HW220520   0.313  -0.087   2.060  0.3832  0.4190 -0.4473
37824SOL     OW20521   2.379   2.546   0.390  0.7514  0.3856  0.5258
37824SOL    HW120522   2.404   2.614   0.327 -2.9033 -0.2360 -1.8737
37824SOL    HW220523   2.385   2.589   0.475 -1.3640  3.8282 -0.8640
37825SOL     OW20524   1.576  12.371   8.614 -0.4086 -0.1161  0.3711
37825SOL    HW120525   1.532  12.433   8.672 -0.9614  0.5735 -0.7369
37825SOL    HW220526   1.560  12.285   8.652 -2.1919  0.1762  0.3551
37826SOL     OW20527  10.663   1.751  10.414 -0.3430  0.3037  0.9767
37826SOL    HW120528  10.724   1.765  10.341 -2.0616  1.7301 -0.2760
37826SOL    HW220529  10.675   1.827  10.470 -0.5495  0.3046  1.0214
37827SOL     OW20530   2.668   4.934   1.031  0.2836  0.2550  0.1849
37827SOL    HW120531   2.736   4.995   1.001  0.0808  0.2055 -0.3885
37827SOL    HW220532   2.586   4.981   1.017  0.1164 -0.1983 -0.3982
37828SOL     OW20533   5.933   5.240   2.449 -0.2288  0.1465 -0.3535
37828SOL    HW120534   5.953   5.146   2.447 -0.8701 -0.1140  2.3958
37828SOL    HW220535   5.840   5.245   2.423 -0.4154 -0.0771  0.2549
37829SOL     OW20536   4.150  12.014   1.981  0.0380 -0.6765 -0.1890
37829SOL    HW120537   4.194  12.044   2.060 -0.8196 -1.0728  0.4612
37829SOL    HW220538   4.098  12.089   1.952  0.9219 -0.2936 -0.8058
37830SOL     OW20539   9.076   9.236   7.567  0.4914  0.4851 -0.1686
37830SOL    HW120540   9.119   9.306   7.518  0.7165  0.3235 -0.2040
37830SOL    HW220541   9.118   9.156   7.536  0.5924  0.3770  0.2468
37831SOL     OW20542   7.461   9.590  12.256  0.2306 -0.1867 -0.0503
37831SOL    HW120543   7.477   9.649  12.330  0.0089  0.2408 -0.3434
37831SOL    HW220544   7.403   9.523  12.291  1.0450 -0.6337  0.4779
37832SOL     OW20545   2.754  10.347  11.858 -0.1467 -0.4913  0.1948
37832SOL    HW120546   2.689  10.390  11.913 -1.8807 -2.5920 -0.0697
37832SOL    HW220547   2.771  10.408  11.787 -1.3790  0.3628  0.6029
37833SOL     OW20548   7.646  12.201  10.138 -0.4544 -0.0472 -0.0542
37833SOL    HW120549   7.565  12.162  10.106 -0.5683  0.6769 -0.6728
37833SOL    HW220550   7.664  12.272  10.076  0.1999  0.3282  0.5602
37834SOL     OW20551  12.245   6.720   9.909 -0.1736  0.0872 -0.0131
37834SOL    HW120552  12.278   6.633   9.931  0.7579 -0.0360 -1.7593
37834SOL    HW220553  12.300   6.780   9.958 -0.6113 -0.2781  0.9467
37835SOL     OW20554   8.432   5.358   1.275 -0.4017 -0.0834  0.3711
37835SOL    HW120555   8.447   5.264   1.262 -1.6925 -0.3606  0.6828
37835SOL    HW220556   8.462   5.398   1.193 -1.9267 -1.0417 -0.7253
37836SOL     OW20557  11.649   1.391   6.312  0.0761  0.0190 -0.4160
37836SOL    HW120558  11.620   1.482   6.301  0.2505  0.1496  0.1611
37836SOL    HW220559  11.717   1.379   6.246  1.1615  0.8045  0.5271
37837SOL     OW20560   4.978   6.835   3.579  0.0180 -0.3988 -0.5417
37837SOL    HW120561   5.007   6.822   3.669  0.4964  0.3996 -0.5723
37837SOL    HW220562   4.936   6.921   3.579 -1.5860 -1.1329 -0.7059
37838SOL     OW20563   9.105   5.590  11.435  0.8209 -0.4679  0.4299
37838SOL    HW120564   9.174   5.656  11.439 -0.4854  0.9470  0.5131
37838SOL    HW220565   9.139   5.518  11.488  2.1174  0.3077  0.7128
37839SOL     OW20566   7.281  11.465   5.079 -0.1063  0.0040  0.3365
37839SOL    HW120567   7.235  11.398   5.028 -1.2479 -1.1886  2.7606
37839SOL    HW220568   7.363  11.479   5.032 -1.3432 -0.4937 -2.1463
37840SOL     OW20569   9.412   9.326  11.515 -0.3235 -0.3573  0.3263
37840SOL    HW120570   9.376   9.387  11.450  0.6793 -1.4827 -1.3596
37840SOL    HW220571   9.499   9.360  11.534  0.4578 -1.4851 -1.0341
37841SOL     OW20572   5.165   9.341   3.857  0.1357 -0.1402  0.1519
37841SOL    HW120573   5.256   9.328   3.830 -0.8389 -3.3804 -2.2018
37841SOL    HW220574   5.167   9.333   3.952  2.2396 -1.1663  0.0834
37842SOL     OW20575   6.044  10.674   2.826 -0.5037  0.3356 -0.3910
37842SOL    HW120576   5.971  10.724   2.863  0.1240  0.8158  0.2354
37842SOL    HW220577   6.122  10.722   2.854  0.1253 -1.0136  0.2569
37843SOL     OW20578   8.216   4.063  10.755 -0.6812 -0.2329  0.1481
37843SOL    HW120579   8.270   3.988  10.781 -0.0820  0.6714  1.5864
37843SOL    HW220580   8.253   4.137  10.801 -0.7611  1.1446 -1.8785
37844SOL     OW20581  11.132   5.583   4.952 -0.4112 -0.5243  0.3064
37844SOL    HW120582  11.131   5.543   5.040  0.8144 -1.1393  0.0532
37844SOL    HW220583  11.081   5.522   4.898 -0.0477 -0.8325  0.3083
37845SOL     OW20584   4.763   8.803   4.889  0.1517 -0.0340  0.6918
37845SOL    HW120585   4.808   8.858   4.953 -1.0679 -0.3066  1.8447
37845SOL    HW220586   4.794   8.714   4.907  1.3751  0.1108 -0.5179
37846SOL     OW20587   5.819   1.482   1.900 -0.0723  0.4656 -0.1438
37846SOL    HW120588   5.743   1.528   1.934 -1.5781 -1.9282 -0.0576
37846SOL    HW220589   5.893   1.518   1.949 -1.5242  0.8165  1.9084
37847SOL     OW20590   5.347   9.504   9.052  0.2480 -1.2436 -0.2925
37847SOL    HW120591   5.289   9.485   8.979 -0.9757  0.1400  0.2700
37847SOL    HW220592   5.365   9.598   9.045  2.0607 -1.5386 -0.1705
37848SOL     OW20593  10.667   0.385   8.859  0.0547 -0.3374  0.0762
37848SOL    HW120594  10.695   0.415   8.946  2.5247  0.8304 -1.0289
37848SOL    HW220595  10.579   0.420   8.849  0.3249  0.8674  1.5023
37849SOL     OW20596   2.215   2.813   7.208  0.2217 -0.2428  0.6767
37849SOL    HW120597   2.188   2.862   7.130  0.3676  0.8157  1.2724
37849SOL    HW220598   2.206   2.721   7.182 -0.7987  0.0805 -0.2202
37850SOL     OW20599   0.243  11.571   7.799 -0.2125  0.6266 -0.9141
37850SOL    HW120600   0.330  11.608   7.782  0.6239 -1.7972 -2.4852
37850SOL    HW220601   0.219  11.604   7.886  2.8049  0.4573  0.1012
37851SOL     OW20602   0.630   1.877   9.771  0.2052 -0.0804  0.1568
37851SOL    HW120603   0.542   1.869   9.735 -0.0790 -2.6296  1.2272
37851SOL    HW220604   0.633   1.814   9.843  3.4826 -1.5207 -1.0346
37852SOL     OW20605   0.836   4.440   9.417 -0.2157 -0.4646 -0.3664
37852SOL    HW120606   0.921   4.482   9.425 -0.4246 -0.2232  0.7440
37852SOL    HW220607   0.776   4.511   9.397 -1.1288  0.5540  4.5579
37853SOL     OW20608   8.401  11.259   0.502  0.1866  0.3784 -0.2137
37853SOL    HW120609   8.371  11.347   0.478 -1.2581 -0.2424 -0.8069
37853SOL    HW220610   8.334  11.201   0.467  1.1647 -0.9780  0.0965
37854SOL     OW20611   4.120  12.374   5.336 -0.3746 -0.2333  0.0231
37854SOL    HW120612   4.054  12.429   5.294 -0.6864 -0.3586  0.3382
37854SOL    HW220613   4.202  12.396   5.291 -0.4203  0.7673  0.3848
37855SOL     OW20614   5.532  11.852   9.588 -0.1507  0.5748 -0.0971
37855SOL    HW120615   5.587  11.930   9.592  1.0739 -0.2717  0.0866
37855SOL    HW220616   5.535  11.825   9.496 -1.6269  1.4359 -0.4424
37856SOL     OW20617   0.332   6.574   0.364  0.1910 -0.1639  0.0478
37856SOL    HW120618   0.249   6.571   0.412 -0.2124 -2.3015 -0.6465
37856SOL    HW220619   0.381   6.498   0.397  1.8774  1.0135  0.3949
37857SOL     OW20620   4.207   6.043   1.131 -0.4002 -0.5146  0.0994
37857SOL    HW120621   4.175   5.975   1.191 -0.2601 -0.1583  0.5878
37857SOL    HW220622   4.301   6.048   1.149 -0.3635 -0.3778 -0.1292
37858SOL     OW20623   8.454   9.450   7.432 -0.7285  0.5254 -0.4556
37858SOL    HW120624   8.549   9.437   7.435 -0.6969  0.8937  1.2077
37858SOL    HW220625   8.441   9.537   7.468 -1.8640 -0.6727  2.2799
37859SOL     OW20626  12.386   8.811   1.122  0.0142 -0.3035 -0.1116
37859SOL    HW120627  12.449   8.879   1.144  2.1009 -2.4697  1.0414
37859SOL    HW220628  12.432   8.753   1.061 -2.2153  0.0009 -2.2654
37860SOL     OW20629   7.176   5.734   4.181  0.0233 -0.2108 -0.0228
37860SOL    HW120630   7.167   5.784   4.262 -1.5361  0.0449 -0.3094
37860SOL    HW220631   7.121   5.657   4.195  0.1288 -0.4052 -0.6574
37861SOL     OW20632   5.426   5.322   0.140  0.1264 -0.2381  0.5150
37861SOL    HW120633   5.445   5.286   0.227  1.4821 -2.1344 -0.4873
37861SOL    HW220634   5.492   5.390   0.127  1.6694 -1.7771 -0.0297
37862SOL     OW20635   2.985   4.490   0.999  0.1873 -0.0616  0.5536
37862SOL    HW120636   3.056   4.486   1.063 -0.2894 -2.5544  1.0305
37862SOL    HW220637   3.026   4.525   0.920  1.5048  0.2856  1.3639
37863SOL     OW20638   0.948   3.770   4.070 -0.1804  0.3485 -0.1392
37863SOL    HW120639   0.958   3.780   4.165 -1.5591  1.0106 -0.0437
37863SOL    HW220640   0.981   3.682   4.052  0.7283  0.4645  0.8483
37864SOL     OW20641  10.486   6.198   7.537 -0.0810 -0.2123 -0.1612
37864SOL    HW120642  10.467   6.220   7.446 -0.7295 -1.5966 -0.3793
37864SOL    HW220643  10.415   6.239   7.587  0.6972  1.2040 -0.1759
37865SOL     OW20644   4.428  10.177   6.628 -0.7821  0.3881 -0.1752
37865SOL    HW120645   4.435  10.195   6.535 -1.6461  0.0436 -0.3206
37865SOL    HW220646   4.360  10.110   6.635 -1.7836  1.4512  0.8058
37866SOL     OW20647   5.910   8.948   3.330  0.1773 -0.1373 -0.4547
37866SOL    HW120648   5.902   8.940   3.425  0.1991 -0.2206 -0.4593
37866SOL    HW220649   5.994   8.908   3.310  0.5799  0.6786 -0.4131
37867SOL     OW20650   7.638  12.134   3.416 -0.3827  0.1999 -0.4782
37867SOL    HW120651   7.591  12.170   3.341 -1.1559  1.1645  0.4523
37867SOL    HW220652   7.634  12.202   3.483  3.4868  0.9083 -0.7418
37868SOL     OW20653   2.872  12.399   1.445  0.3101  0.2934  0.9078
37868SOL    HW120654   2.811  12.390   1.372  0.0392 -0.9991  1.2542
37868SOL    HW220655   2.957  12.414   1.404  0.4384 -1.9150  0.1995
37869SOL     OW20656   7.930   9.278   5.728 -0.1191 -0.2857 -0.3580
37869SOL    HW120657   7.852   9.231   5.698  0.4683  0.1151 -2.7452
37869SOL    HW220658   7.910   9.370   5.714 -0.2753  0.0833  1.8554
37870SOL     OW20659   9.199   4.496   9.046  0.4850 -0.1269 -0.1162
37870SOL    HW120660   9.238   4.420   9.089  1.0331 -0.9497 -1.9925
37870SOL    HW220661   9.114   4.466   9.014  0.5924  0.1223 -0.6452
37871SOL     OW20662   6.027   8.133   0.807  0.0159  0.2028  0.2941
37871SOL    HW120663   6.064   8.075   0.874 -1.3837 -2.0688 -0.7379
37871SOL    HW220664   6.040   8.085   0.725 -2.7732  0.4786 -0.4064
37872SOL     OW20665  10.886   1.815   7.025 -0.1178 -0.1325 -0.1880
37872SOL    HW120666  10.976   1.846   7.018 -0.2574  0.0569 -1.1702
37872SOL    HW220667  10.869   1.816   7.119  2.2334 -3.9995  0.4952
37873SOL     OW20668   8.299   3.632   8.567 -0.6532 -0.3398 -0.7623
37873SOL    HW120669   8.314   3.650   8.660 -0.2641 -0.2032 -0.8479
37873SOL    HW220670   8.379   3.662   8.524 -0.9886 -0.0464 -1.1881
37874SOL     OW20671   2.865   8.192   6.234 -0.0527  0.1974 -0.4708
37874SOL    HW120672   2.838   8.134   6.305  0.0252 -1.0061 -1.4037
37874SOL    HW220673   2.859   8.139   6.155  0.8902  1.1880 -1.2489
37875SOL     OW20674  12.142   5.881   0.914 -0.1423 -0.0289  0.4536
37875SOL    HW120675  12.179   5.900   0.827  1.8640 -2.8258  0.5423
37875SOL    HW220676  12.163   5.957   0.967  4.0995 -0.6254 -0.0378
37876SOL     OW20677   3.428  11.165  12.498 -0.3873 -0.1212 -0.2384
37876SOL    HW120678   3.346  11.129  12.531 -1.4904  2.8751  0.6076
37876SOL    HW220679   3.476  11.191  12.577  2.5227 -3.7352 -0.5486
37877SOL     OW20680   2.381   7.388   4.436 -0.1012  0.3237 -0.1316
37877SOL    HW120681   2.331   7.417   4.360  1.0033  0.6286 -0.7697
37877SOL    HW220682   2.471   7.379   4.404 -0.1693 -2.9570  0.2108
37878SOL     OW20683   9.777  10.994   6.653  0.0517  0.0391  0.0901
37878SOL    HW120684   9.858  11.027   6.691 -0.3644  0.5914  0.5106
37878SOL    HW220685   9.804  10.952   6.571  0.7447  0.3297  0.1653
37879SOL     OW20686   8.162  10.462  10.468 -0.0273 -0.9258 -0.0857
37879SOL    HW120687   8.179  10.382  10.419  0.2762 -1.3615  0.7192
37879SOL    HW220688   8.121  10.433  10.549  1.9693 -0.4693  1.1569
37880SOL     OW20689   6.141   8.375   5.693  0.2924  0.5676 -0.0747
37880SOL    HW120690   6.236   8.375   5.681  0.3002 -2.3226 -0.6584
37880SOL    HW220691   6.106   8.338   5.612 -1.2720  0.5795  0.5460
37881SOL     OW20692  11.036  10.858   9.109  0.1987  0.0724  0.4078
37881SOL    HW120693  11.073  10.854   9.021  1.4661 -0.8857  0.9499
37881SOL    HW220694  11.051  10.770   9.145 -1.4185  0.0774  1.1470
37882SOL     OW20695   6.705   7.809  11.140  0.1643  0.0796  0.0802
37882SOL    HW120696   6.769   7.881  11.138  0.9925 -0.6709 -1.6174
37882SOL    HW220697   6.642   7.836  11.208  1.4673  1.5158  0.7924
37883SOL     OW20698   1.471   1.900   4.134 -0.5175  0.2182  0.5527
37883SOL    HW120699   1.389   1.948   4.136  0.2318  1.7647 -1.6753
37883SOL    HW220700   1.446   1.808   4.121 -1.9759  0.9024 -2.4576
37884SOL     OW20701   0.204   2.983   8.425  0.1359 -0.9711  0.3542
37884SOL    HW120702   0.115   2.950   8.440  0.0263  0.0836  2.5698
37884SOL    HW220703   0.258   2.938   8.490  0.6488  0.4335  0.9579
37885SOL     OW20704   7.697   7.283   2.453  0.2337 -0.0320 -0.1703
37885SOL    HW120705   7.680   7.195   2.418 -1.4934  0.2552 -0.1694
37885SOL    HW220706   7.669   7.278   2.545 -0.8943  0.7623 -0.4441
37886SOL     OW20707   7.608   0.757   8.578 -0.7321 -0.2613  0.5300
37886SOL    HW120708   7.514   0.754   8.564 -0.5976  1.8167 -1.4296
37886SOL    HW220709   7.646   0.741   8.491  0.6107  1.5483  0.7344
37887SOL     OW20710   4.836   0.780   5.078 -0.1488 -0.1798 -0.2048
37887SOL    HW120711   4.891   0.704   5.061  3.6200  2.5258 -1.1955
37887SOL    HW220712   4.855   0.804   5.169  2.2956  2.0608 -1.1947
37888SOL     OW20713   9.582  12.041   6.685  0.5525 -0.0878  0.1623
37888SOL    HW120714   9.640  11.974   6.721  0.7176 -0.0258  0.0134
37888SOL    HW220715   9.520  11.993   6.631 -0.0052 -0.2354  0.9132
37889SOL     OW20716   8.099   7.737   0.826 -0.0421 -0.1546  0.8712
37889SOL    HW120717   8.012   7.699   0.815  0.1203 -0.3569  0.2506
37889SOL    HW220718   8.082   7.827   0.855 -0.4547 -0.2024  0.7853
37890SOL     OW20719   8.052   2.430  12.514 -0.5877  0.8559 -0.0418
37890SOL    HW120720   8.019   2.471  12.434 -0.0810  0.6733 -0.3472
37890SOL    HW220721   7.981   2.440  12.577 -0.2712  2.7250  0.0778
37891SOL     OW20722  12.226   4.621   7.176 -0.5373 -0.1701  0.1321
37891SOL    HW120723  12.314   4.607   7.140 -1.3194 -4.1902 -0.6929
37891SOL    HW220724  12.183   4.676   7.111  0.7506  0.1909 -0.4565
37892SOL     OW20725   9.714   1.527   5.762  0.0541 -0.3556 -1.1678
37892SOL    HW120726   9.719   1.620   5.785  1.1234 -0.4796 -0.8726
37892SOL    HW220727   9.622   1.514   5.739 -1.0522 -0.0742  2.4930
37893SOL     OW20728  12.002   5.398   3.946  0.4758  0.2514 -0.2050
37893SOL    HW120729  12.028   5.307   3.932  0.2698 -0.1180  1.5453
37893SOL    HW220730  11.982   5.403   4.040 -0.2427  1.9208 -0.4097
37894SOL     OW20731   1.656   2.842   1.361  0.0813  0.2986  0.1822
37894SOL    HW120732   1.700   2.796   1.433 -0.3602  0.3481  0.4890
37894SOL    HW220733   1.568   2.861   1.395 -0.1908  0.1635 -0.4380
37895SOL     OW20734   6.942   5.345  10.718 -0.0318 -0.2707  0.2524
37895SOL    HW120735   6.884   5.351  10.642  1.4106 -0.5798 -0.9305
37895SOL    HW220736   6.919   5.261  10.759 -0.7488 -0.1545  0.1012
37896SOL     OW20737   1.459   9.037   1.384  0.0986 -0.8432  0.6076
37896SOL    HW120738   1.476   9.129   1.362  0.8868 -1.4280 -1.3782
37896SOL    HW220739   1.364   9.029   1.379  0.0804 -0.3191  0.0391
37897SOL     OW20740   8.008  12.117  10.837 -0.4106 -0.0489  0.4965
37897SOL    HW120741   7.987  12.127  10.930 -2.3102 -0.6413  0.1782
37897SOL    HW220742   7.949  12.049  10.806 -0.4515  0.7682 -1.3522
37898SOL     OW20743   6.203   0.906   2.399 -0.4253 -0.1957  0.6241
37898SOL    HW120744   6.129   0.870   2.449 -1.4191  2.3261  1.1420
37898SOL    HW220745   6.170   0.911   2.309 -0.1705 -0.8116  0.4899
37899SOL     OW20746   0.271  12.281   5.510 -0.2021 -0.5230  0.5356
37899SOL    HW120747   0.237  12.340   5.577 -1.4422 -1.4113  0.7380
37899SOL    HW220748   0.217  12.202   5.519  0.8652 -1.3726 -0.2622
37900SOL     OW20749   5.274   5.117   0.015 -0.0071  0.0432  0.6001
37900SOL    HW120750   5.345   5.178   0.036 -0.3464  0.3755  0.7923
37900SOL    HW220751   5.225   5.108   0.097  0.5391 -1.1679  0.8225
37901SOL     OW20752  11.416   2.444   5.938  0.1799  0.0151  0.5317
37901SOL    HW120753  11.386   2.436   5.847 -1.7358 -0.6441  1.1761
37901SOL    HW220754  11.481   2.374   5.947 -1.1983 -1.3651  0.2347
37902SOL     OW20755   3.068   5.472   5.555 -0.3725  0.2400  0.4181
37902SOL    HW120756   3.128   5.455   5.628 -1.5022 -1.5959  1.0007
37902SOL    HW220757   3.062   5.567   5.550  0.8181  0.4202  1.8221
37903SOL     OW20758   6.603   0.233   2.874  0.1193 -0.1284 -0.0913
37903SOL    HW120759   6.581   0.249   2.966 -0.6897 -0.8229 -0.1545
37903SOL    HW220760   6.586   0.316   2.831 -1.2528 -0.2994  0.0826
37904SOL     OW20761   7.420  11.573   1.189 -0.1714 -0.2426 -0.0965
37904SOL    HW120762   7.449  11.614   1.108 -0.1136  1.9980  0.9865
37904SOL    HW220763   7.328  11.552   1.174 -0.1800  0.2168 -0.7232
37905SOL     OW20764   2.374   9.885  11.691  0.6032 -0.6065 -0.4998
37905SOL    HW120765   2.309   9.926  11.633  0.4974 -0.6386 -0.4052
37905SOL    HW220766   2.326   9.869  11.772  1.1689  0.9296  0.1802
37906SOL     OW20767   7.746   5.393  11.327 -0.0233  0.0242  0.2812
37906SOL    HW120768   7.732   5.308  11.370  1.1606 -0.3069  0.0588
37906SOL    HW220769   7.752   5.455  11.399  0.9591 -0.3759  0.5574
37907SOL     OW20770  12.555   8.874   6.879  0.1043 -0.3260  0.3583
37907SOL    HW120771  12.487   8.881   6.812 -0.5564  0.1755  1.0622
37907SOL    HW220772  12.636   8.864   6.829  0.0450  3.0666 -0.6690
37908SOL     OW20773   1.821   6.783   7.941 -0.2797 -0.1394  0.5382
37908SOL    HW120774   1.749   6.846   7.932  0.0401  0.0135 -1.4988
37908SOL    HW220775   1.803   6.717   7.874  0.8828 -0.7021  0.7630
37909SOL     OW20776   8.816   7.251   6.113  0.5049  0.0540  0.0697
37909SOL    HW120777   8.787   7.325   6.060  0.0799 -0.1567 -0.0051
37909SOL    HW220778   8.867   7.290   6.184 -0.2093  0.4777  0.3684
37910SOL     OW20779   7.794   9.128   4.390 -0.0668  0.3068  0.8503
37910SOL    HW120780   7.874   9.123   4.443  0.3650  0.9549  0.2760
37910SOL    HW220781   7.824   9.122   4.300 -0.9532 -2.6276  0.6499
37911SOL     OW20782   0.450   5.565   8.828  0.2991  0.4309  0.3780
37911SOL    HW120783   0.416   5.621   8.899  0.1376  3.0322 -1.6104
37911SOL    HW220784   0.538   5.598   8.812  0.9292 -1.1817  0.3603
37912SOL     OW20785  11.264   3.845   4.929 -0.2175  0.1589  0.6049
37912SOL    HW120786  11.263   3.765   4.877 -0.7766 -0.1967  1.1483
37912SOL    HW220787  11.203   3.904   4.884  0.7536  0.5678 -0.2148
37913SOL     OW20788   0.916   3.316   8.557  0.5257 -0.1277  0.0814
37913SOL    HW120789   0.874   3.401   8.574 -0.8444 -0.3798 -1.8347
37913SOL    HW220790   0.909   3.269   8.640  0.5596  1.3033  0.9337
37914SOL     OW20791   5.905   8.308  11.638  0.7649 -0.6508  0.1959
37914SOL    HW120792   5.927   8.261  11.719  0.9250  1.3843  1.4164
37914SOL    HW220793   5.816   8.339  11.652  1.2336  0.7964  0.1844
37915SOL     OW20794   3.277   8.927   3.385  0.1999 -0.3427  0.8078
37915SOL    HW120795   3.183   8.944   3.371  0.0629 -1.4627  0.3078
37915SOL    HW220796   3.279   8.858   3.452  0.7565  1.6366  2.9802
37916SOL     OW20797   6.038   9.882   0.984 -0.1041  0.2408 -0.0860
37916SOL    HW120798   5.973   9.874   1.053  0.5848 -1.2351  0.4298
37916SOL    HW220799   5.998   9.840   0.908 -0.5507  1.1883 -0.4045
37917SOL     OW20800  11.110   3.311   9.393  0.5274  0.2897 -0.2403
37917SOL    HW120801  11.169   3.370   9.439  0.3520  0.8954 -0.7798
37917SOL    HW220802  11.142   3.223   9.414  0.5872  0.5572  0.8376
37918SOL     OW20803   1.180  11.135   2.150  0.0960  0.0979 -0.0548
37918SOL    HW120804   1.182  11.135   2.245  1.0946  2.8606  0.0467
37918SOL    HW220805   1.264  11.097   2.124 -0.2295 -0.7716  0.1379
37919SOL     OW20806   0.939   6.210  12.404  0.5448 -0.1661 -0.0490
37919SOL    HW120807   0.976   6.223  12.491  0.0743  2.2021 -0.1301
37919SOL    HW220808   1.015   6.203  12.346  0.8628 -0.3151  0.3864
37920SOL     OW20809   5.211  11.971   0.820  0.4388 -0.5808 -0.9135
37920SOL    HW120810   5.272  11.909   0.779  0.2980 -0.5315 -1.2032
37920SOL    HW220811   5.174  12.019   0.746  2.6785  1.8738 -0.6118
37921SOL     OW20812   8.360   8.848   4.269 -0.2741 -0.0949 -0.2566
37921SOL    HW120813   8.388   8.925   4.219 -1.0087  0.6162  0.3997
37921SOL    HW220814   8.433   8.786   4.260  0.4901  0.8106 -0.4899
37922SOL     OW20815   1.581   4.261   4.837 -0.1152 -0.0191 -0.2611
37922SOL    HW120816   1.493   4.233   4.865  0.1273 -1.6219 -0.9913
37922SOL    HW220817   1.566   4.344   4.793 -1.3617 -0.5316 -0.8720
37923SOL     OW20818   6.279   2.196   6.233 -0.1176  0.2241 -0.6313
37923SOL    HW120819   6.192   2.167   6.205 -0.9828 -0.8970  2.7322
37923SOL    HW220820   6.330   2.116   6.238  0.5213  0.6234 -0.7159
37924SOL     OW20821   3.309   3.263   9.590  0.4479 -0.2324 -0.5799
37924SOL    HW120822   3.301   3.175   9.555  1.6825 -0.5375 -0.1449
37924SOL    HW220823   3.223   3.303   9.575  0.2924 -1.0360 -2.0191
37925SOL     OW20824   5.202   7.845   5.017  0.8072 -0.0526 -0.2753
37925SOL    HW120825   5.257   7.794   4.958  1.1546  0.3368 -0.2863
37925SOL    HW220826   5.171   7.918   4.964  1.0972  0.2838  0.0132
37926SOL     OW20827   3.121   6.042   6.696  0.3471  0.5912 -0.6287
37926SOL    HW120828   3.056   6.112   6.708 -0.3537  0.2307 -2.0356
37926SOL    HW220829   3.090   5.994   6.619  2.1367  0.2302 -1.1757
37927SOL     OW20830   1.465   8.403   3.255 -0.5121 -0.7524 -0.1878
37927SOL    HW120831   1.448   8.385   3.347 -1.2926  1.4119  0.1479
37927SOL    HW220832   1.556   8.433   3.252 -0.8942  0.4999  0.1318
37928SOL     OW20833   7.427  11.899   6.769 -0.0745 -0.5711  0.3847
37928SOL    HW120834   7.415  11.967   6.703 -1.2740 -0.0576  1.1031
37928SOL    HW220835   7.345  11.898   6.818  0.5763 -1.3340  1.5081
37929SOL     OW20836  12.535  11.121   1.334  0.4754 -0.2002 -0.2947
37929SOL    HW120837  12.501  11.200   1.376  1.5028  0.8817 -1.4193
37929SOL    HW220838  12.592  11.082   1.400 -0.3594 -0.2545  0.4203
37930SOL     OW20839  10.054  11.254   8.301  0.1801  0.1113 -0.3779
37930SOL    HW120840  10.113  11.263   8.226  0.5164  2.6836  0.1115
37930SOL    HW220841   9.984  11.318   8.284 -0.0852  0.2743  1.1681
37931SOL     OW20842   6.022   2.833   5.850  0.3599 -0.4002 -0.2057
37931SOL    HW120843   6.090   2.801   5.910  0.5732 -0.5166 -0.5092
37931SOL    HW220844   5.964   2.758   5.839 -0.1316 -0.1393  0.4839
37932SOL     OW20845  10.784  11.658  10.285 -0.1235  0.6923  0.1815
37932SOL    HW120846  10.730  11.709  10.345  1.1740 -0.1442  2.1870
37932SOL    HW220847  10.848  11.720  10.251 -0.4974  1.0597  0.1505
37933SOL     OW20848   8.812   7.907   8.956 -0.1539  0.4601  0.3208
37933SOL    HW120849   8.890   7.854   8.971  0.3472  1.3578  0.9893
37933SOL    HW220850   8.833   7.992   8.994 -1.8386  0.4280  1.4125
37934SOL     OW20851   3.972   5.943   0.805 -0.1424  0.6879 -0.1249
37934SOL    HW120852   4.031   6.013   0.833  0.0750  0.3913  0.1679
37934SOL    HW220853   4.031   5.877   0.767 -0.1836 -0.0094  0.9803
37935SOL     OW20854  10.733  12.260   0.808  0.0103 -0.6407 -0.6491
37935SOL    HW120855  10.643  12.231   0.795  0.0667 -0.5095 -1.3986
37935SOL    HW220856  10.743  12.334   0.748  0.9220 -1.2994 -1.3283
37936SOL     OW20857  11.164  12.427   0.501 -0.2114  0.4956  0.3677
37936SOL    HW120858  11.108  12.355   0.531 -0.7571  1.2364  1.1785
37936SOL    HW220859  11.186  12.404   0.411 -1.1993 -0.2012  0.2835
37937SOL     OW20860   5.835   9.345   4.671  0.9232  0.0314  0.1563
37937SOL    HW120861   5.746   9.313   4.685  1.2476 -1.4967 -0.9673
37937SOL    HW220862   5.831   9.387   4.585  0.9803  1.2802  0.7402
37938SOL     OW20863   1.072  10.172   1.354 -0.1325  0.0024 -0.9732
37938SOL    HW120864   1.126  10.093   1.350  1.0730  0.7833 -0.5730
37938SOL    HW220865   1.049  10.180   1.447 -1.3635 -0.5811 -1.2063
37939SOL     OW20866  10.356   8.302   2.623 -0.2368 -0.1787 -0.6171
37939SOL    HW120867  10.291   8.311   2.693 -1.8812 -0.8777 -1.9881
37939SOL    HW220868  10.364   8.391   2.587  0.8514  0.2512  0.6007
37940SOL     OW20869   4.082   0.995   4.727 -0.6036  0.5461 -0.4345
37940SOL    HW120870   4.116   0.964   4.811 -1.7953 -0.4768 -0.3030
37940SOL    HW220871   4.096   0.923   4.667  0.2322  1.2715 -1.1449
37941SOL     OW20872   9.505   9.582   6.180 -0.1289  0.2153 -0.3697
37941SOL    HW120873   9.436   9.544   6.234 -1.2909  1.5594 -0.8351
37941SOL    HW220874   9.459   9.642   6.121  1.4901  1.6647 -0.2496
37942SOL     OW20875   7.550   7.935   7.953 -0.6589 -0.3211 -0.6215
37942SOL    HW120876   7.489   7.991   8.000 -0.1140  0.0987 -0.4089
37942SOL    HW220877   7.588   7.878   8.020 -0.0330  0.1415 -0.5698
37943SOL     OW20878   0.405  11.923   8.591  0.3766 -0.5537  0.0204
37943SOL    HW120879   0.416  11.832   8.564  0.0354 -0.8136  0.7529
37943SOL    HW220880   0.418  11.973   8.510  1.9848 -1.1428 -0.1327
37944SOL     OW20881   0.685  12.324   1.023 -0.0327 -0.0874 -0.1498
37944SOL    HW120882   0.634  12.248   0.994 -0.7668 -0.2791  1.5112
37944SOL    HW220883   0.625  12.398   1.013  0.6272  0.2707 -1.6147
37945SOL     OW20884   9.811   7.947   8.057  0.3522 -0.3065  0.0549
37945SOL    HW120885   9.802   8.037   8.090 -0.2810  0.2400 -1.4996
37945SOL    HW220886   9.842   7.958   7.967  0.1751 -1.6546 -0.1901
37946SOL     OW20887   8.028   6.531   4.302 -0.4947 -0.0986  0.1097
37946SOL    HW120888   7.965   6.558   4.370  0.8701  2.1724  0.5722
37946SOL    HW220889   8.086   6.470   4.347 -0.2513  0.5498  0.6925
37947SOL     OW20890  11.813   1.130   9.954 -0.6395  0.0408 -0.4159
37947SOL    HW120891  11.863   1.054   9.983 -0.2279  0.2117 -0.6606
37947SOL    HW220892  11.813   1.189  10.030  1.2551  0.9002 -1.0274
37948SOL     OW20893   7.417   3.102  10.228 -0.0431  0.0605  0.1785
37948SOL    HW120894   7.405   3.140  10.315 -0.1511 -0.1219  0.2428
37948SOL    HW220895   7.329   3.094  10.193  0.0317  0.5394 -0.1216
37949SOL     OW20896   6.830  10.733   3.233  0.3828  0.3666 -0.0055
37949SOL    HW120897   6.760  10.778   3.185 -0.0811 -0.6622 -0.3174
37949SOL    HW220898   6.870  10.675   3.168 -0.0026 -0.7560  0.7244
37950SOL     OW20899   2.783   8.738   4.219 -0.1155 -0.4814  0.0745
37950SOL    HW120900   2.812   8.814   4.268  2.8717 -1.9164  0.7600
37950SOL    HW220901   2.771   8.669   4.284 -0.4459 -1.2371 -0.7518
37951SOL     OW20902   8.616   6.406   9.654 -0.5624 -0.4340  0.0947
37951SOL    HW120903   8.645   6.494   9.678 -0.0453 -0.4599 -0.4153
37951SOL    HW220904   8.673   6.347   9.703  0.7347 -0.4894 -1.3979
37952SOL     OW20905   4.181   3.245   4.843 -0.5508  0.3482 -0.7376
37952SOL    HW120906   4.257   3.188   4.828 -0.6045  0.9479 -3.9178
37952SOL    HW220907   4.117   3.188   4.886  0.8813 -0.7948 -0.0183
37953SOL     OW20908  10.637   4.291   8.275  0.2562 -0.0445  0.2541
37953SOL    HW120909  10.626   4.303   8.181  0.9670 -0.3826  0.1206
37953SOL    HW220910  10.599   4.205   8.292  0.3764 -0.1039  0.2256
37954SOL     OW20911   3.282   3.324   0.643 -0.0418  0.2037 -0.3976
37954SOL    HW120912   3.263   3.416   0.662  0.7974  0.0679  1.3348
37954SOL    HW220913   3.266   3.280   0.726 -0.7488 -1.2858 -1.2952
37955SOL     OW20914  10.402  12.495   0.180  0.4697 -0.0141 -0.0372
37955SOL    HW120915  10.337  12.445   0.230  0.5081 -0.1641 -0.1369
37955SOL    HW220916  10.482  12.489   0.232 -0.0050  1.5606  0.9426
37956SOL     OW20917   6.562   2.309   8.287 -0.2743 -0.1685  0.0772
37956SOL    HW120918   6.594   2.399   8.295  1.7727 -0.7369 -0.9294
37956SOL    HW220919   6.594   2.280   8.201 -2.2045 -1.3900 -0.2917
37957SOL     OW20920   8.104   3.221   7.543  0.0135 -0.0200  0.4314
37957SOL    HW120921   8.070   3.172   7.468  1.6727 -0.0663 -0.3367
37957SOL    HW220922   8.166   3.161   7.585  0.7731  0.8048  0.5063
37958SOL     OW20923   7.241  11.860  11.973 -0.6102 -0.0227 -0.0546
37958SOL    HW120924   7.180  11.933  11.962  1.1254  1.7732  1.2813
37958SOL    HW220925   7.322  11.891  11.933 -0.6449 -2.5898 -2.3437
37959SOL     OW20926   2.621   0.393   6.561 -0.3410 -0.3568 -0.0330
37959SOL    HW120927   2.553   0.454   6.590  1.6120  2.0055 -0.0833
37959SOL    HW220928   2.601   0.376   6.469 -0.1064  1.4415 -0.4385
37960SOL     OW20929   9.129  12.443  10.778  0.2112  0.2028  0.3036
37960SOL    HW120930   9.108  12.417  10.868  0.8861 -1.1929  0.0751
37960SOL    HW220931   9.049  12.486  10.747 -0.8126 -1.2220  0.8595
37961SOL     OW20932   6.255   5.156   7.202  0.2494  0.0560  0.1928
37961SOL    HW120933   6.314   5.190   7.269  0.8181 -0.5565  0.0226
37961SOL    HW220934   6.169   5.153   7.244  0.6411 -0.5578  0.9763
37962SOL     OW20935   3.938   2.437  10.764 -0.1667 -0.2041  0.1564
37962SOL    HW120936   4.034   2.442  10.762 -0.0132 -1.0374  2.6346
37962SOL    HW220937   3.911   2.512  10.817 -1.0008  0.4948 -1.1776
37963SOL     OW20938   1.145   2.072   8.995 -0.2936 -0.3339  0.0558
37963SOL    HW120939   1.064   2.023   8.977 -0.7064  1.0606 -2.3564
37963SOL    HW220940   1.212   2.004   9.005 -1.0933 -1.5071 -1.8553
37964SOL     OW20941   8.587  10.611   5.772 -0.4331 -0.3666  0.7946
37964SOL    HW120942   8.610  10.673   5.702  1.8622  0.7650  2.4177
37964SOL    HW220943   8.659  10.549   5.775 -0.8306 -0.8158  1.7053
37965SOL     OW20944   2.217  10.379   0.304  0.2794 -0.3516  0.1455
37965SOL    HW120945   2.274  10.362   0.229  0.1946  1.4031 -0.3623
37965SOL    HW220946   2.276  10.382   0.379  0.4852 -1.2073  0.0270
37966SOL     OW20947   4.927   5.821   2.317  0.5717 -0.7724  0.6826
37966SOL    HW120948   4.897   5.870   2.393 -0.2286  0.4145 -0.3448
37966SOL    HW220949   4.846   5.788   2.277  0.7101  0.9036 -1.1121
37967SOL     OW20950   2.911   3.277   0.600  0.2801  0.6366 -0.2896
37967SOL    HW120951   2.999   3.255   0.569  0.6150 -1.9052  2.0855
37967SOL    HW220952   2.858   3.201   0.577 -0.6558  0.9652  0.6905
37968SOL     OW20953   6.760   3.399   1.759  0.0404 -0.1355  0.3767
37968SOL    HW120954   6.684   3.417   1.815  0.8870 -0.9412  1.8442
37968SOL    HW220955   6.724   3.345   1.688 -1.5048  2.7744 -1.2484
37969SOL     OW20956   6.122   5.697   7.149  0.3688  0.1124 -0.1566
37969SOL    HW120957   6.103   5.603   7.159  0.7876 -0.0476 -0.8015
37969SOL    HW220958   6.217   5.702   7.153  0.4192  0.3572 -1.2636
37970SOL     OW20959   5.432   9.777   0.670 -0.2638 -0.0015 -0.1220
37970SOL    HW120960   5.400   9.862   0.639 -0.6023 -0.3304 -0.6909
37970SOL    HW220961   5.355   9.720   0.669  0.2516 -0.7072 -1.1646
37971SOL     OW20962   3.068   8.881  10.562 -0.1244  0.1337 -0.0092
37971SOL    HW120963   3.113   8.826  10.497  0.2059  0.4540 -0.0535
37971SOL    HW220964   3.136   8.903  10.626 -0.7883 -1.4317  1.2844
37972SOL     OW20965  11.824   5.211   5.462 -0.0402 -0.6325  0.2761
37972SOL    HW120966  11.756   5.160   5.417 -1.2476 -0.7265  2.0857
37972SOL    HW220967  11.874   5.147   5.511  0.1827 -0.3680  0.3972
37973SOL     OW20968   5.553   4.229  11.850 -0.6319  0.1702 -0.8014
37973SOL    HW120969   5.565   4.209  11.943 -0.3470 -2.2204 -1.2846
37973SOL    HW220970   5.642   4.230  11.815 -0.7382  1.0741 -1.0534
37974SOL     OW20971   6.507  11.995   3.991  0.0502  0.5081 -0.5187
37974SOL    HW120972   6.558  11.920   4.021 -2.1709 -1.2433 -0.8961
37974SOL    HW220973   6.444  12.011   4.060  0.5067  2.1225 -0.4236
37975SOL     OW20974   9.428   6.834   2.017 -0.2615  0.0020 -0.1117
37975SOL    HW120975   9.348   6.782   2.024 -1.7356  2.2543  1.2977
37975SOL    HW220976   9.398   6.925   2.028  2.5326  0.8917  0.9968
37976SOL     OW20977   6.434   0.318   7.105  0.2237  0.1266  0.6416
37976SOL    HW120978   6.405   0.298   7.193  0.7138 -3.5447  0.1028
37976SOL    HW220979   6.362   0.292   7.048  0.4743  1.0710 -0.1538
37977SOL     OW20980   9.385  12.035   1.953  0.2637 -0.1984  0.0368
37977SOL    HW120981   9.324  11.981   1.902 -1.2587  0.7551  0.7470
37977SOL    HW220982   9.374  12.123   1.917 -0.0613  0.2929  1.2815
37978SOL     OW20983   6.619   0.217   5.975  0.0767  0.5076 -0.5443
37978SOL    HW120984   6.609   0.308   5.948 -0.7352 -0.4467 -3.9307
37978SOL    HW220985   6.574   0.166   5.908 -1.5941 -2.3607  2.4304
37979SOL     OW20986   7.339   0.842  10.161 -0.2251 -0.8222  0.5469
37979SOL    HW120987   7.268   0.896  10.195 -1.8598 -2.7572  0.4155
37979SOL    HW220988   7.351   0.774  10.227 -0.8407 -2.4394 -0.9349
37980SOL     OW20989   7.847   1.247   7.887 -0.0731 -0.3724  0.1303
37980SOL    HW120990   7.882   1.158   7.892  1.0468  0.1145  1.6630
37980SOL    HW220991   7.821   1.258   7.795  2.9558 -1.1205 -0.9225
37981SOL     OW20992  10.613  10.709  11.695 -0.0895 -0.1411  0.1520
37981SOL    HW120993  10.522  10.691  11.720 -0.0302 -1.5792 -0.5714
37981SOL    HW220994  10.663  10.699  11.776 -0.5783  0.7956  0.5843
37982SOL     OW20995  12.484   2.313   7.001  0.4108 -0.3251  0.8998
37982SOL    HW120996  12.483   2.396   6.953  2.3264 -0.6166  0.2534
37982SOL    HW220997  12.544   2.329   7.074 -1.4790 -0.2896  2.5333
37983SOL     OW20998  12.158  10.538   5.288  0.3027 -0.2606 -0.5259
37983SOL    HW120999  12.221  10.543   5.216 -2.1879 -0.9262 -2.9188
37983SOL    HW221000  12.199  10.479   5.351  2.3910 -0.0618 -1.5963
37984SOL     OW21001   3.553   2.811  11.884 -0.0562  0.2616 -0.3443
37984SOL    HW121002   3.512   2.897  11.895  2.3685  1.4894 -0.4017
37984SOL    HW221003   3.517   2.778  11.802  1.5869  2.8601 -2.2603
37985SOL     OW21004   1.613   3.978   3.173  0.3048 -0.5395 -0.2578
37985SOL    HW121005   1.690   3.982   3.229 -0.2844 -2.4000  0.7838
37985SOL    HW221006   1.562   3.904   3.207 -2.1248  0.8103 -0.6746
37986SOL     OW21007   9.032   4.532   3.826 -0.2186 -0.0303  0.3537
37986SOL    HW121008   9.021   4.508   3.918 -2.0247 -0.9016 -0.0562
37986SOL    HW221009   8.978   4.470   3.778  1.3005 -0.1056 -1.3946
37987SOL     OW21010   4.746   3.608   4.717  0.2848  0.5868  0.2825
37987SOL    HW121011   4.676   3.550   4.687 -1.1171  1.6968  1.3436
37987SOL    HW221012   4.748   3.679   4.652  1.9747 -0.5218 -0.9933
37988SOL     OW21013   6.768  10.914  11.409  0.6535  0.7672 -0.6154
37988SOL    HW121014   6.743  10.924  11.501  2.0914  0.5870 -0.1775
37988SOL    HW221015   6.696  10.866  11.369  0.9434 -1.1030  0.9374
37989SOL     OW21016   7.729   8.332  12.129  0.0360  0.3196 -0.2764
37989SOL    HW121017   7.805   8.285  12.095 -0.4127  0.1729 -1.1260
37989SOL    HW221018   7.713   8.293  12.215  1.7041  1.2733  0.5156
37990SOL     OW21019  11.075   8.688   7.330  0.9270  0.6017  0.2549
37990SOL    HW121020  11.060   8.622   7.263  1.3719  0.5330  0.2207
37990SOL    HW221021  11.053   8.771   7.288  2.3360  0.6802 -0.3610
37991SOL     OW21022  10.907   0.732  11.327  0.0004 -0.2423 -0.2864
37991SOL    HW121023  10.949   0.646  11.329  1.7034  0.5538  1.4388
37991SOL    HW221024  10.947   0.780  11.399 -2.0826  1.4818 -0.1656
37992SOL     OW21025   8.750   0.301   1.653  0.3122 -0.3340  0.2045
37992SOL    HW121026   8.805   0.318   1.577 -1.1499  0.6979 -0.6693
37992SOL    HW221027   8.798   0.342   1.726  0.1130  1.7702 -0.7639
37993SOL     OW21028  11.559   2.521   1.724 -0.2658  0.3493 -0.1329
37993SOL    HW121029  11.519   2.499   1.808  0.6812  0.4211  0.3571
37993SOL    HW221030  11.490   2.507   1.660 -0.3476 -2.1125  0.3733
37994SOL     OW21031  11.557   4.480   3.635  0.1073  0.0041  0.3119
37994SOL    HW121032  11.634   4.428   3.615  0.6879  1.0979 -0.3719
37994SOL    HW221033  11.583   4.536   3.709 -0.0306  0.3594  0.0968
37995SOL     OW21034   6.867   2.558  11.282 -0.2307 -0.1456 -0.3452
37995SOL    HW121035   6.912   2.549  11.366 -0.9453  0.6957  0.1467
37995SOL    HW221036   6.898   2.483  11.230  0.9647 -0.1277  0.3069
37996SOL     OW21037   7.021   6.923   0.308  0.3512 -0.5132  0.1400
37996SOL    HW121038   6.966   6.903   0.232  0.7411 -0.4871 -0.1568
37996SOL    HW221039   7.061   7.008   0.287  0.7853 -0.7023  0.1833
37997SOL     OW21040  10.020   7.107   7.706 -0.3098  0.3380  0.0560
37997SOL    HW121041  10.056   7.021   7.684 -2.3850 -0.7936  0.8573
37997SOL    HW221042  10.025   7.156   7.623 -2.4910 -1.8464 -1.5386
37998SOL     OW21043   2.674  11.650   2.848  0.5269  0.3687 -0.4269
37998SOL    HW121044   2.768  11.669   2.849  0.6565 -0.1040  1.8415
37998SOL    HW221045   2.666  11.569   2.799  0.9025  1.8403 -3.1320
37999SOL     OW21046   3.364   2.605  12.250 -0.2744 -0.0722  0.7107
37999SOL    HW121047   3.362   2.549  12.172  2.5444 -1.9858  1.8347
37999SOL    HW221048   3.382   2.692  12.217  0.8304 -0.8402 -0.8081
38000SOL     OW21049   0.928   3.569   7.823  0.3791  0.5922  0.3488
38000SOL    HW121050   0.900   3.634   7.759 -0.1498 -0.7408 -0.8113
38000SOL    HW221051   0.857   3.566   7.888 -0.3557  0.0270 -0.4679
38001SOL     OW21052   0.478   4.875   6.191  0.2985 -0.6215  0.5260
38001SOL    HW121053   0.512   4.835   6.111 -2.3582 -1.6971 -0.1678
38001SOL    HW221054   0.476   4.804   6.255 -0.8931 -0.7060  0.4288
38002SOL     OW21055   8.817  12.207  10.828  0.0162 -0.4275 -0.8176
38002SOL    HW121056   8.847  12.259  10.902  0.7321  1.4802 -2.3602
38002SOL    HW221057   8.756  12.144  10.866  1.4769 -0.5398  1.5849
38003SOL     OW21058   4.527   0.137  12.183  0.5352  0.0909  0.0132
38003SOL    HW121059   4.615   0.175  12.180 -0.2290  1.8836 -1.1537
38003SOL    HW221060   4.478   0.183  12.114 -0.5040 -3.0071 -1.5116
38004SOL     OW21061   3.185  11.683  11.975  0.2284  0.0501 -0.2052
38004SOL    HW121062   3.201  11.599  12.019 -0.1617 -0.0729 -0.2936
38004SOL    HW221063   3.119  11.663  11.909  0.1606  0.4224 -0.2501
38005SOL     OW21064   5.415  11.947   9.853 -0.2320 -0.2960 -0.4132
38005SOL    HW121065   5.390  11.882   9.787  0.0188  0.5766 -1.3852
38005SOL    HW221066   5.379  12.029   9.822 -0.1733  0.1265  0.5833
38006SOL     OW21067  10.227   8.789   4.989 -0.0640 -0.4178 -0.1567
38006SOL    HW121068  10.156   8.824   4.936  0.3071 -0.3567 -0.6267
38006SOL    HW221069  10.266   8.865   5.031  1.1931 -0.1336 -1.7353
38007SOL     OW21070   9.428   3.807   3.738 -0.8303 -0.3547 -0.0993
38007SOL    HW121071   9.431   3.712   3.737  0.6699 -0.3489 -1.1396
38007SOL    HW221072   9.502   3.833   3.794 -0.4549  0.1679 -0.8062
38008SOL     OW21073   3.112   7.173   1.619 -0.2976  0.4387  0.0188
38008SOL    HW121074   3.140   7.261   1.596  2.4106 -0.7174 -1.5600
38008SOL    HW221075   3.104   7.127   1.535  0.0517 -1.2640  0.8614
38009SOL     OW21076  11.351   5.076   2.941  0.3093 -0.2076  0.6772
38009SOL    HW121077  11.337   5.163   2.978 -0.7871 -0.8782  1.8943
38009SOL    HW221078  11.269   5.030   2.956  0.5915 -1.2005 -0.6973
38010SOL     OW21079  10.627   9.261   1.752  0.1945 -0.6284 -0.0328
38010SOL    HW121080  10.666   9.336   1.796  0.6176 -0.2172 -1.0965
38010SOL    HW221081  10.560   9.230   1.813 -1.0094  1.4975 -0.2077
38011SOL     OW21082   2.031   0.660   8.032 -0.4102  0.4153 -0.0822
38011SOL    HW121083   2.105   0.619   8.077 -0.0737  0.0285 -0.9613
38011SOL    HW221084   1.965   0.673   8.100 -0.7881 -2.1883  0.1607
38012SOL     OW21085   1.147   6.075   8.477 -0.2960  0.0277  0.3251
38012SOL    HW121086   1.109   6.148   8.526 -1.7518 -0.6491  0.2835
38012SOL    HW221087   1.120   5.997   8.526 -2.1512 -0.7113 -1.6558
38013SOL     OW21088   6.075   0.735   4.956 -0.7054  0.0535  0.0748
38013SOL    HW121089   5.995   0.776   4.988 -1.2204 -1.1513  0.3482
38013SOL    HW221090   6.067   0.643   4.980  0.0987 -0.3699 -1.1844
38014SOL     OW21091   5.381   5.816   2.290 -0.1568  0.6154  0.5170
38014SOL    HW121092   5.401   5.804   2.382 -0.7545  0.9450  0.6954
38014SOL    HW221093   5.286   5.830   2.287  0.0305  1.9653 -0.0025
38015SOL     OW21094  11.752   7.325  10.988  0.1234  0.0751 -0.1122
38015SOL    HW121095  11.699   7.338  11.066  1.2540 -0.4449  0.7856
38015SOL    HW221096  11.705   7.259  10.937 -1.1278  1.1373 -0.3739
38016SOL     OW21097   3.655   7.202   7.521 -0.3024 -0.2852  0.9572
38016SOL    HW121098   3.686   7.161   7.441  0.5757  0.1234  1.0687
38016SOL    HW221099   3.560   7.195   7.517 -0.2584 -0.4600 -0.0168
38017SOL     OW21100   9.889   0.202  11.341  0.2312 -0.3215  0.6846
38017SOL    HW121101   9.896   0.293  11.368  1.9670  0.2543 -1.3845
38017SOL    HW221102   9.892   0.205  11.245 -2.0200 -2.4167  0.4434
38018SOL     OW21103   9.537   4.107   5.565 -0.1373 -0.5742  0.0713
38018SOL    HW121104   9.629   4.117   5.589 -0.4565 -0.1292  1.1930
38018SOL    HW221105   9.504   4.197   5.557 -0.5626 -0.7281  0.0704
38019SOL     OW21106   8.878   3.418   2.228 -0.1395  0.2807  0.3603
38019SOL    HW121107   8.854   3.326   2.213  1.3080  0.0471 -0.8052
38019SOL    HW221108   8.875   3.457   2.140  0.8876  0.9195  0.6000
38020SOL     OW21109   4.226   8.806   6.358 -0.4694  0.2123 -0.1065
38020SOL    HW121110   4.185   8.891   6.377  0.5125  0.2716  1.9939
38020SOL    HW221111   4.226   8.801   6.263 -0.6056  2.5701 -0.3031
38021SOL     OW21112   3.036   4.531   9.890 -0.2414  0.0901 -0.0457
38021SOL    HW121113   3.075   4.542   9.976 -0.0943  0.6760 -0.1813
38021SOL    HW221114   3.046   4.617   9.848  0.0278 -0.2902 -0.7830
38022SOL     OW21115   8.457   6.751   1.074 -0.5051 -0.3864 -0.5414
38022SOL    HW121116   8.428   6.839   1.053  1.3515  0.4543  0.1659
38022SOL    HW221117   8.423   6.734   1.162  1.9825  1.1052  0.8373
38023SOL     OW21118   7.359   6.049   3.946 -0.2021 -0.2188 -0.0519
38023SOL    HW121119   7.384   6.063   3.855 -1.0443 -1.2167 -0.4517
38023SOL    HW221120   7.351   6.138   3.982  1.1360  0.1659 -0.6497
38024SOL     OW21121   4.943   7.118   1.977 -0.2069  0.3485 -0.0481
38024SOL    HW121122   4.901   7.041   1.938  1.8656 -1.3660  0.8691
38024SOL    HW221123   4.874   7.160   2.028 -0.9196 -2.3167  1.3729
38025SOL     OW21124   5.428  11.557  12.359  0.1156 -0.0293 -0.3082
38025SOL    HW121125   5.415  11.646  12.393 -1.1897  0.3248 -1.6515
38025SOL    HW221126   5.470  11.570  12.274 -1.0923 -0.6067 -1.0209
38026SOL     OW21127  12.556  10.416   8.552 -0.3221  0.0764 -0.2650
38026SOL    HW121128  12.487  10.409   8.617 -0.8515 -1.0950 -0.9150
38026SOL    HW221129  12.518  10.468   8.481 -0.7877 -1.1183 -0.9105
38027SOL     OW21130   0.127   5.638   1.778 -0.4976 -0.6059  0.4179
38027SOL    HW121131   0.087   5.561   1.818 -1.7984  0.5958  1.5557
38027SOL    HW221132   0.112   5.628   1.684 -0.2650 -1.9099  0.4994
38028SOL     OW21133   5.558   3.910   5.622  0.0184  0.4235 -0.1361
38028SOL    HW121134   5.579   3.843   5.557  0.9839 -1.0969  1.6307
38028SOL    HW221135   5.513   3.978   5.573  0.8970 -0.5377 -2.4169
38029SOL     OW21136  11.113   0.845   3.828 -0.2139 -0.3591 -0.3031
38029SOL    HW121137  11.107   0.831   3.922 -1.0672 -1.0822 -0.4460
38029SOL    HW221138  11.205   0.830   3.807 -0.2166 -1.2667  0.2658
38030SOL     OW21139  10.054   4.534   1.076  0.1523  0.1464 -0.5109
38030SOL    HW121140  10.054   4.439   1.067 -3.6221 -0.0381 -0.1370
38030SOL    HW221141  10.081   4.566   0.989  1.1717 -1.2385 -0.7327
38031SOL     OW21142  10.053   3.742   2.314  0.0076 -0.3149  0.2680
38031SOL    HW121143  10.025   3.735   2.223  1.1449 -2.6759  0.0219
38031SOL    HW221144  10.148   3.731   2.311  0.2401  0.9606  1.6516
38032SOL     OW21145   6.254   1.752  11.684 -0.0736 -0.6507  0.3559
38032SOL    HW121146   6.260   1.663  11.649 -0.3511  0.3386 -2.4081
38032SOL    HW221147   6.346   1.779  11.693  0.0251 -0.4374 -1.0504
38033SOL     OW21148   7.455   9.134   9.602 -0.2705  0.1403  0.2664
38033SOL    HW121149   7.424   9.211   9.650 -0.7035 -1.4742  2.8162
38033SOL    HW221150   7.375   9.087   9.579  0.0286 -0.7413  0.9594
38034SOL     OW21151   2.547   0.854   2.509 -0.7531 -0.0485  0.2226
38034SOL    HW121152   2.520   0.827   2.597 -1.4717  0.1245  0.0624
38034SOL    HW221153   2.594   0.779   2.474 -0.9335 -0.3217  0.5568
38035SOL     OW21154   1.663   7.736  12.326 -0.6790 -0.1180 -0.1382
38035SOL    HW121155   1.682   7.709  12.236  0.1669  0.2237 -0.0638
38035SOL    HW221156   1.601   7.670  12.358  0.9452 -1.6978 -0.1266
38036SOL     OW21157   4.000   7.083  10.760  0.4586 -0.0053 -0.6337
38036SOL    HW121158   3.920   7.030  10.768  0.0975  0.3917 -1.4623
38036SOL    HW221159   4.071   7.024  10.786 -0.1649 -0.1067  0.9563
38037SOL     OW21160   1.318   6.930  12.251 -0.1590  0.0996  0.4352
38037SOL    HW121161   1.373   6.853  12.264  0.0263 -0.5669 -3.3217
38037SOL    HW221162   1.229   6.896  12.250 -0.0075 -0.4408 -2.6254
38038SOL     OW21163   0.098   9.904   7.213 -0.3871 -0.3649 -0.0235
38038SOL    HW121164   0.128   9.995   7.223  0.5221 -0.4214 -1.8649
38038SOL    HW221165   0.067   9.880   7.300  1.4615  0.9839  1.0992
38039SOL     OW21166   2.967   6.921   2.232 -0.0225  0.0192  0.1208
38039SOL    HW121167   2.901   6.989   2.234  0.9772  0.9981  1.0665
38039SOL    HW221168   3.045   6.961   2.269  0.6121 -1.6271  0.6878
38040SOL     OW21169   1.821   4.918   6.057  0.0074 -0.3285  0.3785
38040SOL    HW121170   1.825   4.842   6.000  0.9183 -0.4924  0.6456
38040SOL    HW221171   1.828   4.993   5.997  3.3229 -0.4983  0.3307
38041SOL     OW21172   0.704   6.547  12.556 -0.8614  0.1640 -0.7235
38041SOL    HW121173   0.621   6.523  12.516 -0.6282  0.1644 -1.2153
38041SOL    HW221174   0.729   6.470  12.607 -1.3455  0.3044 -0.2724
38042SOL     OW21175   4.793   0.567   2.607 -0.3386  0.1471  0.5925
38042SOL    HW121176   4.754   0.494   2.557 -1.6260  0.5400  0.9898
38042SOL    HW221177   4.840   0.524   2.679 -1.2455 -0.3001  0.9356
38043SOL     OW21178  10.539   4.136   9.220 -0.2960 -0.0502  0.0410
38043SOL    HW121179  10.555   4.147   9.314  0.1991  0.6402 -0.1199
38043SOL    HW221180  10.625   4.144   9.179 -0.7214  1.4778 -0.6295
38044SOL     OW21181   8.610   9.274   6.151 -0.7967  0.1105  0.3518
38044SOL    HW121182   8.524   9.243   6.177 -0.4322  0.9275  2.7893
38044SOL    HW221183   8.611   9.264   6.055 -3.5689  0.0867  0.2322
38045SOL     OW21184   8.269  11.757   7.470 -0.6053  0.1092 -0.3530
38045SOL    HW121185   8.218  11.801   7.402  0.3915 -0.4506 -1.5124
38045SOL    HW221186   8.355  11.743   7.430  0.2779  0.5044  1.3385
38046SOL     OW21187   7.328   5.928   8.115 -0.3203 -0.1446 -0.1764
38046SOL    HW121188   7.345   5.942   8.209  0.3108 -0.5857 -0.2169
38046SOL    HW221189   7.253   5.868   8.113 -3.2947  3.2256  0.0037
38047SOL     OW21190   0.173   6.481   1.912 -0.5921 -0.1840  0.2858
38047SOL    HW121191   0.177   6.525   1.827 -0.7057 -0.0257  0.3626
38047SOL    HW221192   0.231   6.406   1.902  0.1097  0.3420  0.3679
38048SOL     OW21193   2.531  11.755   0.004 -0.1166 -0.6570  0.1605
38048SOL    HW121194   2.618  11.727   0.033  0.0773 -0.6358 -0.3913
38048SOL    HW221195   2.534  11.851   0.008 -0.6314 -0.6780  1.6174
38049SOL     OW21196   5.797   6.124   9.971  0.2132 -0.0141 -0.2312
38049SOL    HW121197   5.787   6.035   9.937  0.3018  0.1191 -0.6052
38049SOL    HW221198   5.708   6.150   9.997 -0.0482  0.2959 -1.3887
38050SOL     OW21199  11.463   4.508   7.028  0.1419 -0.0599 -0.1483
38050SOL    HW121200  11.548   4.551   7.037 -0.2326  0.5986  0.3798
38050SOL    HW221201  11.401   4.580   7.016 -0.2886 -0.5553 -1.0048
38051SOL     OW21202   4.762   5.267  11.775  0.3772 -0.0248  0.1862
38051SOL    HW121203   4.811   5.194  11.813 -0.1299  0.1945  1.2890
38051SOL    HW221204   4.712   5.303  11.848 -0.9081  0.1863 -0.7644
38052SOL     OW21205   7.069   5.312   4.640 -0.4070 -0.3500 -0.7045
38052SOL    HW121206   7.080   5.387   4.581 -0.5853 -0.2949 -0.6666
38052SOL    HW221207   7.137   5.324   4.707  1.1694 -1.4843 -2.0064
38053SOL     OW21208   4.770   2.359   6.325 -0.6899 -0.1554  0.4046
38053SOL    HW121209   4.724   2.392   6.403  0.8043  1.0940  0.8130
38053SOL    HW221210   4.792   2.269   6.347  0.5249  0.4516  1.8676
38054SOL     OW21211   5.365   3.188   7.230 -0.6851 -0.1200  0.4272
38054SOL    HW121212   5.383   3.108   7.181 -2.3422 -0.5701  0.4941
38054SOL    HW221213   5.421   3.182   7.308  1.7551  0.4666 -1.1916
38055SOL     OW21214   0.016   1.450  12.279  0.1052 -0.4438 -0.0633
38055SOL    HW121215  -0.011   1.517  12.216  0.0178 -2.0417 -1.7978
38055SOL    HW221216  -0.047   1.459  12.351 -1.8963 -0.6698 -1.6919
38056SOL     OW21217  10.392   8.728   0.722 -0.0673 -0.3290  0.4194
38056SOL    HW121218  10.476   8.709   0.681  0.1285  3.0756 -1.0667
38056SOL    HW221219  10.405   8.811   0.767 -2.5807  0.1514  0.3911
38057SOL     OW21220   1.360  10.858   1.567 -0.0501 -0.6391 -0.4073
38057SOL    HW121221   1.402  10.801   1.631 -1.0159  0.2121  1.0244
38057SOL    HW221222   1.388  10.823   1.482  0.4151 -2.4233  0.4383
38058SOL     OW21223  11.235   2.716   1.760  0.2050  0.8250  0.0793
38058SOL    HW121224  11.216   2.634   1.714 -0.6121  2.1578 -2.1214
38058SOL    HW221225  11.309   2.694   1.818  0.1101 -1.4072 -0.5334
38059SOL     OW21226  10.345   2.091   5.633 -0.0111  0.2009  0.1873
38059SOL    HW121227  10.371   2.183   5.625  2.3816 -0.4931 -1.0219
38059SOL    HW221228  10.393   2.047   5.562 -2.3560 -1.7542 -0.3064
38060SOL     OW21229   6.255   5.185   6.390 -0.1419 -0.0367  0.6329
38060SOL    HW121230   6.252   5.106   6.444  0.7700 -0.4727  0.0789
38060SOL    HW221231   6.242   5.153   6.300 -1.5484  0.6677  0.5665
38061SOL     OW21232   5.694  11.692   2.528  0.3526 -0.4205  0.0254
38061SOL    HW121233   5.685  11.788   2.526  0.0344 -0.4423  0.2643
38061SOL    HW221234   5.771  11.677   2.582 -0.2244 -0.3232  0.9092
38062SOL     OW21235  12.250   1.429  10.384  0.1983 -0.1325  1.1110
38062SOL    HW121236  12.268   1.486  10.309 -0.0548 -1.2006  0.2181
38062SOL    HW221237  12.156   1.417  10.384  0.2593 -0.6261  1.2487
38063SOL     OW21238  11.920   3.145   9.464  0.1547 -0.0723 -0.1095
38063SOL    HW121239  11.924   3.240   9.460 -0.0274 -0.0912 -0.7832
38063SOL    HW221240  11.826   3.124   9.460  0.1207 -0.2421  1.1308
38064SOL     OW21241   6.094  10.048  11.861  0.1997 -0.6657  0.2163
38064SOL    HW121242   6.180  10.011  11.840  0.3862 -0.8028  1.1597
38064SOL    HW221243   6.114  10.125  11.914 -0.2596 -0.6140  0.3133
38065SOL     OW21244   3.479   9.622  11.544 -0.0980  0.0385  0.3136
38065SOL    HW121245   3.471   9.612  11.449 -0.4630  0.0097  0.3447
38065SOL    HW221246   3.436   9.705  11.564 -0.8416 -0.3936  0.5588
38066SOL     OW21247  11.807   4.884   1.168  0.2336 -0.5740  0.1067
38066SOL    HW121248  11.827   4.794   1.139  0.3285 -0.5541  0.1094
38066SOL    HW221249  11.857   4.894   1.249 -0.7603 -0.9476  0.7773
38067SOL     OW21250   0.399  11.616   9.041 -0.4791  0.1418 -0.7478
38067SOL    HW121251   0.397  11.553   9.113  0.2072  1.2350  0.2607
38067SOL    HW221252   0.307  11.626   9.016 -0.5943 -1.2584 -0.9446
38068SOL     OW21253   7.143   3.456   8.930  0.6305  0.0350 -0.2256
38068SOL    HW121254   7.074   3.411   8.882  1.0701  0.2167 -1.0460
38068SOL    HW221255   7.103   3.479   9.014  0.5385 -2.3526  0.4565
38069SOL     OW21256  10.833   3.423   4.272  0.2385  0.1326 -0.3677
38069SOL    HW121257  10.878   3.433   4.188  0.4924 -1.5751 -0.4734
38069SOL    HW221258  10.741   3.416   4.249  0.2780 -0.0230 -0.4818
38070SOL     OW21259   3.333   9.273   5.571 -0.1194 -0.3813  0.0557
38070SOL    HW121260   3.279   9.301   5.645 -0.2132  0.2236 -0.2370
38070SOL    HW221261   3.273   9.277   5.496  0.1320 -0.4284 -0.1455
38071SOL     OW21262  10.117  10.733   3.583  0.0054 -0.4810 -0.4401
38071SOL    HW121263  10.208  10.725   3.612  0.4268 -0.0169 -1.6003
38071SOL    HW221264  10.078  10.648   3.602  1.1807 -1.3176 -1.6560
38072SOL     OW21265   8.413   6.800   5.437  0.0312  0.2600 -0.0289
38072SOL    HW121266   8.508   6.810   5.433 -0.0011  0.2250 -1.0721
38072SOL    HW221267   8.385   6.868   5.498  0.6671  0.7022 -0.2178
38073SOL     OW21268   4.663   4.088   0.026 -0.1363 -0.2945 -0.3687
38073SOL    HW121269   4.597   4.096   0.094 -1.5166 -1.5077 -1.4851
38073SOL    HW221270   4.699   4.000   0.038 -0.2963 -0.4670 -1.1115
38074SOL     OW21271   7.124  12.276   4.305  0.4212  0.1650  0.6052
38074SOL    HW121272   7.162  12.248   4.389  2.2321 -0.2406 -0.2959
38074SOL    HW221273   7.144  12.205   4.245 -1.0230  0.3713 -0.1456
38075SOL     OW21274   9.284  12.558   9.419 -0.0310 -0.0273  0.8011
38075SOL    HW121275   9.248  12.531   9.334 -1.2192 -1.6328  1.7596
38075SOL    HW221276   9.327  12.641   9.401  1.1104 -1.0676 -1.6950
38076SOL     OW21277   8.518  12.161   4.429  0.1689 -0.2435 -0.0493
38076SOL    HW121278   8.456  12.088   4.436 -0.1328  0.1288  1.3404
38076SOL    HW221279   8.590  12.137   4.486  0.1299  0.4824  0.3085
38077SOL     OW21280   7.195  10.655   2.632 -0.0620 -0.0340 -0.4089
38077SOL    HW121281   7.108  10.693   2.624 -0.0878  0.1011  0.3788
38077SOL    HW221282   7.183  10.578   2.688  0.6132  1.1242  1.4294
38078SOL     OW21283  11.959   7.539   1.539  0.5447 -0.0683  0.2637
38078SOL    HW121284  11.914   7.567   1.460 -0.1761 -1.1611  0.2641
38078SOL    HW221285  12.036   7.492   1.508 -1.2644 -3.1556  0.0241
38079SOL     OW21286   0.948  12.272   1.044 -0.5274  0.6479  0.3307
38079SOL    HW121287   0.979  12.289   0.955 -0.5014 -0.7083  0.0503
38079SOL    HW221288   0.854  12.292   1.040 -1.0633 -1.6920 -0.7253
38080SOL     OW21289  11.881   8.960  12.218 -0.5488  0.5879 -0.0854
38080SOL    HW121290  11.912   8.968  12.127  0.6939 -0.0940  0.2486
38080SOL    HW221291  11.788   8.980  12.213 -0.0893  2.8966 -1.1462
38081SOL     OW21292   6.271   6.027  11.117 -0.0255  0.3469  0.6494
38081SOL    HW121293   6.276   5.973  11.038 -1.7686  1.2934 -0.1728
38081SOL    HW221294   6.362   6.049  11.137  0.4860 -0.3315 -0.7997
38082SOL     OW21295   8.256  10.711   2.675 -0.0857 -0.4009  0.6574
38082SOL    HW121296   8.274  10.712   2.581 -0.0441 -0.9240  0.6545
38082SOL    HW221297   8.233  10.801   2.697  2.5432  0.3718  0.6426
38083SOL     OW21298   4.109  11.939   5.136 -0.2252  0.0200 -0.0699
38083SOL    HW121299   4.142  12.013   5.186  2.6944 -0.1352 -1.5362
38083SOL    HW221300   4.125  11.863   5.192  0.3013  0.1300 -0.0675
38084SOL     OW21301   4.905  11.037   7.648  0.4843 -0.4914 -0.3786
38084SOL    HW121302   4.819  11.067   7.677  0.3950 -1.3500  0.2657
38084SOL    HW221303   4.901  11.042   7.552 -0.2613 -0.4562 -0.3513
38085SOL     OW21304  10.456   0.880   6.342  0.2479  0.6104 -0.2315
38085SOL    HW121305  10.456   0.803   6.399 -0.7584  0.9377  0.2327
38085SOL    HW221306  10.444   0.954   6.402  2.6791  1.2975 -0.4930
38086SOL     OW21307   0.466   4.303   3.178  0.2385 -0.9695 -0.0123
38086SOL    HW121308   0.466   4.223   3.126  0.4959 -0.4228 -0.8569
38086SOL    HW221309   0.414   4.366   3.127  1.8580  0.0823 -0.4379
38087SOL     OW21310   0.372   3.289   2.875  0.2546  0.4215  0.2761
38087SOL    HW121311   0.410   3.210   2.913  0.3882  0.7879  0.9257
38087SOL    HW221312   0.336   3.337   2.950 -0.2453  0.7480 -0.1674
38088SOL     OW21313  11.582  11.367   2.303  0.1994 -0.1849  0.3555
38088SOL    HW121314  11.655  11.344   2.246  1.4253 -0.2236  1.8535
38088SOL    HW221315  11.621  11.371   2.391 -1.6535 -0.4625  1.2500
38089SOL     OW21316  11.792   7.221   5.353  0.0694  0.0230 -0.0209
38089SOL    HW121317  11.699   7.215   5.375  0.6768  0.0549  2.9343
38089SOL    HW221318  11.829   7.281   5.417  2.1348  0.1480 -1.2237
38090SOL     OW21319   0.925   0.600   4.149  0.4034 -0.4487 -0.0550
38090SOL    HW121320   0.959   0.529   4.203  0.3769 -0.1428  0.3624
38090SOL    HW221321   0.976   0.595   4.068  1.3037 -0.1214  0.4884
38091SOL     OW21322   8.649   6.976   0.389 -0.0991  0.2798  0.3256
38091SOL    HW121323   8.588   7.042   0.357 -0.6104 -1.6456 -3.1708
38091SOL    HW221324   8.594   6.911   0.433 -0.1343  0.3075  0.3221
38092SOL     OW21325   0.306   8.451   3.328  0.0013 -0.2503  0.5337
38092SOL    HW121326   0.296   8.444   3.423 -0.5223  0.8377  0.5693
38092SOL    HW221327   0.222   8.484   3.298  0.2466 -0.3642 -0.2907
38093SOL     OW21328   2.646   5.833   2.714 -0.1197 -0.1311  0.1894
38093SOL    HW121329   2.585   5.832   2.788  0.6614 -0.0631  0.8464
38093SOL    HW221330   2.637   5.920   2.676 -1.1633 -0.4491 -0.3604
38094SOL     OW21331   9.787   3.735   2.983  0.6371 -0.7526 -0.2986
38094SOL    HW121332   9.736   3.666   3.027  0.0758  0.3193  0.7877
38094SOL    HW221333   9.831   3.781   3.054 -1.4297  1.9741 -0.6139
38095SOL     OW21334   1.772   4.363   9.795  0.5036  0.0590  0.0611
38095SOL    HW121335   1.709   4.405   9.737 -0.2200 -0.6129  0.3536
38095SOL    HW221336   1.822   4.436   9.831  1.9674  0.4384 -2.4782
38096SOL     OW21337   0.557   7.423   8.715 -0.5146  0.3117  0.2118
38096SOL    HW121338   0.471   7.465   8.718 -0.9128 -0.5100  0.9020
38096SOL    HW221339   0.615   7.490   8.680 -1.2761  1.1612  0.5269
38097SOL     OW21340  11.540   5.041  10.438  0.0082  0.1442  0.0473
38097SOL    HW121341  11.455   5.011  10.470 -0.0093 -1.3816 -1.2740
38097SOL    HW221342  11.585   5.074  10.515  0.1498 -3.6965  1.8348
38098SOL     OW21343   7.884   1.751   3.679  1.0436 -0.0772 -0.8041
38098SOL    HW121344   7.852   1.837   3.705  1.4042  0.2978 -1.5576
38098SOL    HW221345   7.839   1.690   3.737  1.7582  0.7052  0.6048
38099SOL     OW21346   0.627   3.856   0.794 -0.1670 -0.3228 -0.3685
38099SOL    HW121347   0.706   3.909   0.784 -0.7783  0.9091  0.9044
38099SOL    HW221348   0.556   3.919   0.799 -1.1134 -1.3522 -0.3893
38100SOL     OW21349   0.223   1.302   5.798 -0.2495 -0.2158 -0.4490
38100SOL    HW121350   0.233   1.392   5.767  1.1577 -0.2764 -0.2332
38100SOL    HW221351   0.297   1.255   5.760  1.5603 -0.3064  2.8504
38101SOL     OW21352   2.530   6.378   8.423 -0.2772  0.4818 -0.0503
38101SOL    HW121353   2.468   6.370   8.351 -1.1959 -1.2057  0.8507
38101SOL    HW221354   2.598   6.313   8.403 -1.7742 -1.7842  1.6854
38102SOL     OW21355   2.095  10.669   8.497  0.1281 -0.4688 -0.4274
38102SOL    HW121356   2.093  10.610   8.572 -0.7902 -0.2458 -0.2603
38102SOL    HW221357   2.035  10.740   8.521  0.9170  0.3446 -0.7827
38103SOL     OW21358  10.454   0.577   5.105 -0.0171  0.3173  0.3562
38103SOL    HW121359  10.539   0.584   5.061 -0.4331  0.7675 -0.3780
38103SOL    HW221360  10.430   0.484   5.096 -0.1557  0.4306 -0.4651
38104SOL     OW21361  12.443   1.129   4.826  0.1114  0.1997  0.3021
38104SOL    HW121362  12.499   1.129   4.903  0.3936 -1.0623  0.1207
38104SOL    HW221363  12.503   1.141   4.753  0.1955 -1.2632  0.0997
38105SOL     OW21364   5.150   8.422  10.019  0.1961 -0.5143  0.4008
38105SOL    HW121365   5.086   8.364  10.059 -0.5276  0.6102  0.9108
38105SOL    HW221366   5.162   8.387   9.931 -0.4803 -1.2359  0.5894
38106SOL     OW21367   5.216  11.384   5.866  0.0833 -0.2433 -0.1546
38106SOL    HW121368   5.247  11.360   5.954 -1.3944  0.5664  0.6345
38106SOL    HW221369   5.230  11.479   5.861 -0.1801 -0.2274 -0.6477
38107SOL     OW21370   1.151  10.631  10.218  0.7938 -0.0047 -0.1552
38107SOL    HW121371   1.210  10.690  10.171  2.6001 -0.5839  1.2673
38107SOL    HW221372   1.104  10.688  10.278  2.7957  0.0698  1.4771
38108SOL     OW21373   3.246   2.710   2.923  0.3690  0.2093  0.1608
38108SOL    HW121374   3.169   2.656   2.937  1.3233 -0.8024  1.8334
38108SOL    HW221375   3.235   2.746   2.835 -2.2181  0.4950  0.5328
38109SOL     OW21376   0.544   7.780   0.582  0.2679  0.2393  0.1049
38109SOL    HW121377   0.561   7.859   0.634 -0.0992  0.7177 -0.4852
38109SOL    HW221378   0.543   7.811   0.491  1.0703 -0.6130 -0.2092
38110SOL     OW21379   6.441  10.582   9.738 -0.0162  0.3554 -0.0045
38110SOL    HW121380   6.360  10.614   9.777  1.0269  1.1721  1.5674
38110SOL    HW221381   6.488  10.660   9.710  0.7374 -0.0438  0.1194
38111SOL     OW21382   1.866   9.556   3.389  0.6090 -0.1266  0.0086
38111SOL    HW121383   1.930   9.563   3.460  2.2095  0.1389 -1.3951
38111SOL    HW221384   1.838   9.646   3.373 -0.3765 -0.2671  0.7953
38112SOL     OW21385   8.051   8.834   6.476  0.6650  0.0436 -0.2094
38112SOL    HW121386   8.087   8.746   6.470  1.3307  0.3831 -1.5946
38112SOL    HW221387   8.046   8.864   6.385  1.6877  1.9107  0.2992
38113SOL     OW21388   7.459   7.739  10.940 -0.0093  0.9831 -0.2819
38113SOL    HW121389   7.506   7.812  10.899  1.7281  1.0076  1.6123
38113SOL    HW221390   7.456   7.762  11.033 -1.7064 -0.1880 -0.0124
38114SOL     OW21391  10.700  12.312   4.213 -0.0850  0.3202  0.1232
38114SOL    HW121392  10.624  12.307   4.272  1.1009  0.4398  1.7387
38114SOL    HW221393  10.662  12.328   4.127 -1.8222  2.5892  1.1896
38115SOL     OW21394   5.651   4.912   3.027  0.6431 -0.0463  0.0843
38115SOL    HW121395   5.650   4.976   3.098 -1.6536 -0.5343  0.5674
38115SOL    HW221396   5.649   4.827   3.072  2.1022 -0.4406 -0.5639
38116SOL     OW21397   7.204   1.147   8.399 -0.5816  0.4893  0.2746
38116SOL    HW121398   7.297   1.150   8.373 -0.4157 -1.1710  0.6186
38116SOL    HW221399   7.206   1.147   8.495 -0.8421 -1.0657  0.3051
38117SOL     OW21400   3.086   5.715   8.115  0.2343  0.2388  0.6148
38117SOL    HW121401   3.038   5.694   8.196  0.7960 -0.6056  0.7418
38117SOL    HW221402   3.111   5.807   8.125 -1.1823  0.6493  0.6308
38118SOL     OW21403   7.378   1.528  12.016  0.3358  0.1746 -0.2240
38118SOL    HW121404   7.357   1.448  12.064  0.6569  0.6912  0.8053
38118SOL    HW221405   7.362   1.599  12.078 -0.6955  0.9843 -1.3735
38119SOL     OW21406  11.072   5.105   6.969 -0.3608 -0.2535 -0.0320
38119SOL    HW121407  11.062   5.056   6.887 -0.6474  0.6564 -0.5548
38119SOL    HW221408  11.097   5.039   7.033  0.8861 -0.8524 -1.0659
38120SOL     OW21409   9.214   4.810  10.023 -0.4917  0.2662 -0.6596
38120SOL    HW121410   9.171   4.777  10.101  0.4027  1.1985  0.2528
38120SOL    HW221411   9.269   4.738   9.993 -1.8640 -0.5791 -1.2590
38121SOL     OW21412   0.236   1.733   6.201 -0.2926  0.5358 -0.4452
38121SOL    HW121413   0.302   1.716   6.269  1.7780  1.9565 -1.9884
38121SOL    HW221414   0.165   1.776   6.248  1.7068  2.8382  0.7239
38122SOL     OW21415   6.531   1.033  11.639  0.4944 -0.4935 -0.1414
38122SOL    HW121416   6.522   0.941  11.664  1.3095 -0.4627  0.3385
38122SOL    HW221417   6.596   1.067  11.701  1.8970 -0.1625 -1.7191
38123SOL     OW21418   4.992   4.419  12.394  0.1364 -0.0504 -0.1205
38123SOL    HW121419   5.075   4.434  12.440  0.6497  2.0178 -1.6213
38123SOL    HW221420   5.016   4.413  12.302 -1.3566  0.2786 -0.5509
38124SOL     OW21421   3.333   1.497   2.499  0.8164  0.6380 -0.5389
38124SOL    HW121422   3.339   1.584   2.540 -0.0604  0.6187 -0.3465
38124SOL    HW221423   3.242   1.472   2.512  1.0879 -0.3506 -0.5203
38125SOL     OW21424   2.299  12.445   3.771 -0.1826 -0.4325 -0.4997
38125SOL    HW121425   2.325  12.428   3.680 -1.2566 -1.4775 -0.6507
38125SOL    HW221426   2.217  12.493   3.764  0.2420  0.3721 -0.0638
38126SOL     OW21427   8.656   8.124   5.583 -0.5974 -0.0816  0.1268
38126SOL    HW121428   8.749   8.112   5.602 -0.8099  0.1224  1.4121
38126SOL    HW221429   8.643   8.219   5.590 -0.7315 -0.0050 -0.9733
38127SOL     OW21430  10.290   3.573   0.521 -0.1645 -0.2820 -0.3781
38127SOL    HW121431  10.368   3.581   0.577 -1.2814  0.1930  1.1818
38127SOL    HW221432  10.277   3.662   0.487 -0.3889 -0.2028 -0.0954
38128SOL     OW21433   6.581   0.511   4.761  0.0184  0.5000 -1.0098
38128SOL    HW121434   6.554   0.437   4.815  1.2619 -0.0803 -1.1355
38128SOL    HW221435   6.620   0.471   4.683 -1.1713  1.3117 -2.0610
38129SOL     OW21436   5.532   7.083   7.357 -0.0842  0.4629  0.0208
38129SOL    HW121437   5.529   7.000   7.406 -0.9252 -0.5017 -1.5939
38129SOL    HW221438   5.441   7.101   7.335  0.3575  0.2571 -2.1446
38130SOL     OW21439   8.683   2.742  12.364 -0.0331  0.3713  0.2918
38130SOL    HW121440   8.659   2.677  12.299 -1.1831 -0.2218  1.2628
38130SOL    HW221441   8.599   2.777  12.396  0.4882  0.6462  1.4271
38131SOL     OW21442   8.559   2.489   7.170 -0.1213  0.0754 -0.1027
38131SOL    HW121443   8.633   2.539   7.206  0.0363  0.7489 -1.3389
38131SOL    HW221444   8.590   2.398   7.171 -0.7816 -0.2302  3.1143
38132SOL     OW21445   7.230   6.639   1.803 -0.5594 -0.0751 -0.2761
38132SOL    HW121446   7.210   6.546   1.791 -0.1784  0.0820 -2.3984
38132SOL    HW221447   7.184   6.683   1.732  3.4331  0.7603 -2.6808
38133SOL     OW21448   8.010   0.226   9.018 -0.2013  0.0581  0.2896
38133SOL    HW121449   8.004   0.295   9.084 -0.8228  1.4516 -1.1773
38133SOL    HW221450   8.003   0.271   8.934 -1.5305 -1.8528 -0.7208
38134SOL     OW21451   3.701  10.805  10.669  0.0107  0.1210  0.2904
38134SOL    HW121452   3.794  10.797  10.688  0.4825 -0.8624 -2.0935
38134SOL    HW221453   3.671  10.878  10.724  2.0179  0.0422  1.5725
38135SOL     OW21454   4.489   9.110   5.045 -0.4299 -0.6572 -0.0059
38135SOL    HW121455   4.420   9.133   5.106 -0.7363 -2.3990  0.3532
38135SOL    HW221456   4.445   9.060   4.976  0.4245 -1.6969  0.1727
38136SOL     OW21457   2.469   6.078   0.806  0.2091  0.0246 -0.1164
38136SOL    HW121458   2.405   6.026   0.854 -0.4145 -0.7452 -1.7245
38136SOL    HW221459   2.468   6.163   0.849 -2.0569  0.1113 -0.2191
38137SOL     OW21460   9.983   3.142   7.216  0.5381  0.0861  0.1616
38137SOL    HW121461  10.032   3.141   7.299  1.3040  0.4523 -0.2733
38137SOL    HW221462   9.891   3.150   7.243  0.7626  0.0359  0.9823
38138SOL     OW21463   4.260   4.911  11.521 -0.6184 -0.3967 -0.4550
38138SOL    HW121464   4.311   4.853  11.577 -1.3598 -0.0493  0.5971
38138SOL    HW221465   4.170   4.877  11.527 -1.0642  0.8631  0.1835
38139SOL     OW21466   7.261  12.531   1.435 -0.4615  0.3778  0.0776
38139SOL    HW121467   7.316  12.552   1.359 -0.4939  1.5663  0.3723
38139SOL    HW221468   7.191  12.476   1.398 -0.6328  1.1607 -0.8143
38140SOL     OW21469   7.883   6.484   4.077  0.4502  0.2232  0.4087
38140SOL    HW121470   7.938   6.428   4.022 -1.8591 -1.3587 -0.4622
38140SOL    HW221471   7.936   6.502   4.155  1.8632 -1.9039  0.0120
38141SOL     OW21472  12.268   7.419   4.250  0.4078  0.3955  0.0505
38141SOL    HW121473  12.355   7.425   4.210 -0.1309  1.0150 -1.0905
38141SOL    HW221474  12.285   7.401   4.342  1.7520  0.8554 -0.0816
38142SOL     OW21475   0.109   1.250  10.665 -0.0363 -0.2268 -0.5624
38142SOL    HW121476   0.090   1.325  10.722  0.3453 -0.3396 -0.2831
38142SOL    HW221477   0.169   1.196  10.716 -0.0496 -0.5587 -0.8956
38143SOL     OW21478   0.435  11.626   6.098  0.4314 -0.5731 -0.0456
38143SOL    HW121479   0.490  11.692   6.141  2.0968 -2.3145  0.6856
38143SOL    HW221480   0.398  11.575   6.171 -1.7520  0.1837 -0.5557
38144SOL     OW21481   2.724   2.463  12.542 -0.7640  0.0096  0.5089
38144SOL    HW121482   2.701   2.493  12.629  0.3875  0.8968  0.5354
38144SOL    HW221483   2.820   2.460  12.542 -0.6267  1.8806 -1.2711
38145SOL     OW21484   8.602   5.559   8.441  0.2205 -0.3339 -0.5540
38145SOL    HW121485   8.610   5.480   8.494 -0.4435 -0.8570 -1.2081
38145SOL    HW221486   8.678   5.557   8.384  1.1899  0.4787  0.6768
38146SOL     OW21487  11.710  11.566  11.511 -0.6175  0.7380  0.2727
38146SOL    HW121488  11.679  11.548  11.600  0.3585 -0.2269  0.4389
38146SOL    HW221489  11.642  11.622  11.473 -1.9448 -0.2916  1.0255
38147SOL     OW21490   1.107   5.249   8.020 -0.2605  0.2545  0.7241
38147SOL    HW121491   1.122   5.303   8.097  0.6138  0.4247  0.4486
38147SOL    HW221492   1.037   5.294   7.972 -1.3553 -0.2682  1.7857
38148SOL     OW21493   0.123   7.701   0.432  0.2682  0.2517  0.1990
38148SOL    HW121494   0.087   7.615   0.411  0.3986  0.1183  0.5117
38148SOL    HW221495   0.153   7.693   0.523  3.6682 -0.5498 -0.8292
38149SOL     OW21496   6.594   3.430   4.470  0.1402 -0.0062 -0.0404
38149SOL    HW121497   6.585   3.403   4.562 -0.7640  0.6074  0.0653
38149SOL    HW221498   6.609   3.349   4.422  1.2540 -0.2713  0.7220
38150SOL     OW21499   7.990   1.758   2.758  0.0607  0.1010 -0.4461
38150SOL    HW121500   8.078   1.761   2.794 -0.0539 -2.1309  0.1804
38150SOL    HW221501   7.932   1.762   2.834 -0.4045  1.2791 -0.8321
38151SOL     OW21502  12.298  11.417  11.226 -0.1367 -0.2774  0.0809
38151SOL    HW121503  12.267  11.369  11.302 -0.3851 -1.9524 -1.0176
38151SOL    HW221504  12.240  11.389  11.155  1.1838 -0.1481 -1.0963
38152SOL     OW21505   6.857   7.007   4.545 -0.0395 -0.5011  0.1944
38152SOL    HW121506   6.870   6.943   4.615 -1.3152  2.6110  3.6471
38152SOL    HW221507   6.919   7.077   4.565 -1.1704  0.9795 -1.1779
38153SOL     OW21508   2.562   7.516   5.323  0.1439  0.4820 -0.9198
38153SOL    HW121509   2.533   7.512   5.414  1.1947  0.3398 -0.5862
38153SOL    HW221510   2.504   7.455   5.277  1.7171 -2.0158  0.2226
38154SOL     OW21511   5.892  10.257   8.583 -0.6545  0.0643  0.0038
38154SOL    HW121512   5.891  10.304   8.666 -0.0323 -0.6138  0.4072
38154SOL    HW221513   5.815  10.290   8.536 -0.3044  1.3856  0.3138
38155SOL     OW21514   2.538   2.885  10.672  0.2205  0.0422 -0.3537
38155SOL    HW121515   2.462   2.932  10.704  0.9813  0.9554  0.1648
38155SOL    HW221516   2.613   2.939  10.697  1.0544 -0.8712 -0.7622
38156SOL     OW21517   0.171   4.716  11.784 -0.0949 -0.2230  0.3499
38156SOL    HW121518   0.111   4.789  11.775  0.6426  0.3302 -0.1585
38156SOL    HW221519   0.254   4.755  11.811  0.2576 -0.8837  0.2607
38157SOL     OW21520  11.385  12.045   2.019  0.6065  0.4601  0.1379
38157SOL    HW121521  11.460  12.034   2.077 -0.1691 -0.3963  1.0308
38157SOL    HW221522  11.412  12.005   1.936  0.6004 -1.3419  0.9526
38158SOL     OW21523   5.079   0.782   5.797 -0.0320  0.0793  0.5057
38158SOL    HW121524   4.996   0.829   5.797  0.2138  0.6043  2.2648
38158SOL    HW221525   5.057   0.695   5.832 -0.1924 -0.5842 -1.1486
38159SOL     OW21526   7.134   2.327   6.940 -0.3305  0.5784 -0.0665
38159SOL    HW121527   7.111   2.420   6.931 -0.0841  0.4667 -2.4542
38159SOL    HW221528   7.209   2.327   7.000 -1.2684  1.7485  1.1580
38160SOL     OW21529   7.712   4.276   5.112 -0.2280 -0.6802 -0.4414
38160SOL    HW121530   7.782   4.238   5.060 -0.5987 -2.4969  0.2865
38160SOL    HW221531   7.632   4.251   5.067 -0.5231 -1.7010  0.5890
38161SOL     OW21532   3.543   5.651  11.470  0.1444 -0.1385 -0.5791
38161SOL    HW121533   3.614   5.595  11.503 -0.2896 -0.3702 -0.0262
38161SOL    HW221534   3.517   5.704  11.545 -2.8394 -2.6879  0.4090
38162SOL     OW21535  10.391  12.491   6.313 -0.2359  0.5978  0.3535
38162SOL    HW121536  10.409  12.575   6.356 -0.0492  0.7432 -0.0064
38162SOL    HW221537  10.306  12.464   6.347  0.4877  0.0513  1.8652
38163SOL     OW21538   8.279  10.929  10.232  0.0769  0.2464 -1.2679
38163SOL    HW121539   8.192  10.922  10.192 -1.4900  2.0609  1.4626
38163SOL    HW221540   8.308  11.018  10.213 -1.8269  2.1400  3.1330
38164SOL     OW21541   1.938   9.582   7.012 -0.9979 -0.3176 -0.2996
38164SOL    HW121542   1.986   9.644   7.067 -1.7989 -0.0643  0.1438
38164SOL    HW221543   1.872   9.545   7.071 -1.5191 -0.4495 -0.9561
38165SOL     OW21544   3.512   8.003   4.052 -0.2917  0.3590  0.1321
38165SOL    HW121545   3.464   7.929   4.088  0.3848 -0.1238  0.0697
38165SOL    HW221546   3.514   7.987   3.958  4.2800 -2.4250  0.3979
38166SOL     OW21547   6.494   8.203   3.372  0.0856 -0.8085 -0.2978
38166SOL    HW121548   6.552   8.250   3.313 -0.4210 -0.1983 -0.3298
38166SOL    HW221549   6.494   8.113   3.341  2.3588 -1.2413  0.7370
38167SOL     OW21550   7.130   1.645   0.555  0.1076 -0.4945 -0.0137
38167SOL    HW121551   7.142   1.615   0.465 -1.1865 -0.8742 -0.0805
38167SOL    HW221552   7.105   1.567   0.604  1.2510 -0.3821  0.7846
38168SOL     OW21553   6.634   6.560   8.595  0.2366 -0.0641  0.0047
38168SOL    HW121554   6.601   6.648   8.611 -1.9848 -0.9323  0.5111
38168SOL    HW221555   6.610   6.542   8.504  2.3128  0.4697 -0.7044
38169SOL     OW21556  11.345   3.438   7.070 -0.6243  0.0572 -0.2485
38169SOL    HW121557  11.370   3.353   7.106  2.4760  0.1200 -1.9018
38169SOL    HW221558  11.302   3.418   6.987 -0.5190  0.0927 -0.3118
38170SOL     OW21559   6.078   5.290   2.217  0.1585  0.4011  0.6256
38170SOL    HW121560   6.029   5.279   2.298 -0.7967 -0.6472 -0.0789
38170SOL    HW221561   6.043   5.224   2.158  0.7407  1.2412 -0.7008
38171SOL     OW21562   1.904   2.858  10.486 -0.1197  0.6457 -0.6687
38171SOL    HW121563   1.955   2.936  10.507  1.3302 -0.6852  1.0735
38171SOL    HW221564   1.965   2.803  10.436 -0.7976  0.1887 -1.0167
38172SOL     OW21565   1.794   5.637   2.363 -0.1267  0.6112  0.2273
38172SOL    HW121566   1.866   5.616   2.422  2.1695  1.2246 -2.1765
38172SOL    HW221567   1.788   5.561   2.304 -0.8297  0.9499 -0.1532
38173SOL     OW21568   1.212   0.450   9.808 -0.0926 -0.3479 -0.0764
38173SOL    HW121569   1.119   0.468   9.818 -0.3935  0.3257 -2.9996
38173SOL    HW221570   1.215   0.365   9.763  0.7491 -0.6760  0.5628
38174SOL     OW21571   8.284   1.472  10.684  0.4115 -0.1849  0.3461
38174SOL    HW121572   8.361   1.516  10.719  0.6450  1.3269 -1.8976
38174SOL    HW221573   8.312   1.440  10.598 -1.4642  0.4719 -0.5491
38175SOL     OW21574  12.116   3.700   4.489  0.4180  0.0822 -0.0136
38175SOL    HW121575  12.046   3.675   4.550  0.7599 -0.1010  0.3118
38175SOL    HW221576  12.187   3.639   4.508  0.8530  0.5846  0.0096
38176SOL     OW21577   6.150   3.417   3.291  0.0188 -0.2778 -0.0924
38176SOL    HW121578   6.115   3.421   3.380 -1.0369 -0.0644 -0.5056
38176SOL    HW221579   6.101   3.484   3.243  3.4118  2.6249  0.0847
38177SOL     OW21580   0.762  10.298   5.203  1.1077  0.3217  0.5389
38177SOL    HW121581   0.768  10.394   5.206 -0.1952  0.4407  0.2954
38177SOL    HW221582   0.730  10.274   5.290  0.3839  0.2227  0.2528
38178SOL     OW21583   4.420   0.435   0.733  0.3369  0.4531  0.4192
38178SOL    HW121584   4.485   0.504   0.716  1.8036 -1.1876 -1.1053
38178SOL    HW221585   4.344   0.461   0.681  0.4993  1.3933  0.6236
38179SOL     OW21586   6.699   2.233   5.421 -0.0065 -0.8207 -0.2941
38179SOL    HW121587   6.788   2.205   5.397  0.4634 -0.0155  0.4736
38179SOL    HW221588   6.643   2.160   5.393  0.9791 -1.6911 -0.0590
38180SOL     OW21589  11.232   6.640  11.353 -0.0405 -0.3161 -0.3778
38180SOL    HW121590  11.183   6.686  11.421  0.3818  0.8979 -0.8689
38180SOL    HW221591  11.266   6.562  11.396 -1.6274 -0.7144  0.2122
38181SOL     OW21592   1.371   5.943  11.907 -0.1911  0.1263 -0.4724
38181SOL    HW121593   1.283   5.978  11.891 -0.0474  0.2956 -0.9300
38181SOL    HW221594   1.415   5.951  11.822  0.8402  1.6723  0.1781
38182SOL     OW21595   5.012  10.511  10.453 -0.2272 -0.3029 -0.8325
38182SOL    HW121596   4.940  10.552  10.404 -1.0765 -0.2540  0.4268
38182SOL    HW221597   5.077  10.581  10.463 -1.5196  0.7075  1.0120
38183SOL     OW21598   5.057   2.091   9.129 -0.0784  0.3387  0.1046
38183SOL    HW121599   5.011   2.130   9.203 -1.6340 -0.2687 -0.5090
38183SOL    HW221600   5.118   2.029   9.169 -1.2418 -0.3413  0.8719
38184SOL     OW21601  10.171   0.035  10.689  0.1376  0.2673  0.0330
38184SOL    HW121602  10.235   0.094  10.649 -0.6738 -0.5042 -2.6010
38184SOL    HW221603  10.213  -0.051  10.686 -0.2018  0.0947  0.2047
38185SOL     OW21604  12.076   8.456   2.384  0.2077 -0.1823  0.8112
38185SOL    HW121605  12.078   8.362   2.397 -0.7534 -0.1081  1.5361
38185SOL    HW221606  11.999   8.472   2.329  0.6033  0.1431  0.3388
38186SOL     OW21607   8.877   6.505  12.077 -0.3998 -0.1088  0.1861
38186SOL    HW121608   8.932   6.437  12.039 -1.1766  0.2526 -1.6943
38186SOL    HW221609   8.931   6.544  12.146  1.6260  0.0485 -1.3852
38187SOL     OW21610   7.037   2.891  12.123 -0.0455 -0.7949 -0.0088
38187SOL    HW121611   7.026   2.986  12.126 -1.2612 -0.9227  0.0948
38187SOL    HW221612   7.047   2.866  12.215  0.9400 -0.7065 -0.0839
38188SOL     OW21613  10.304   5.243   2.896  0.1529 -0.0950  0.4382
38188SOL    HW121614  10.263   5.316   2.849  0.9196  0.1414  0.1199
38188SOL    HW221615  10.389   5.232   2.853  0.2011 -0.9284  0.7330
38189SOL     OW21616   4.073   1.885   2.992  0.4726  0.1102 -0.2200
38189SOL    HW121617   4.155   1.863   3.036  0.5989  1.3127  0.1857
38189SOL    HW221618   4.044   1.803   2.952  2.1742 -0.2024 -0.8718
38190SOL     OW21619   3.105   8.123   7.971 -0.5846  0.0980 -0.2544
38190SOL    HW121620   3.074   8.160   8.053  1.2971 -0.3293  0.6874
38190SOL    HW221621   3.067   8.035   7.967 -0.4329  0.0083  0.3094
38191SOL     OW21622   0.677  12.285   0.421  0.0351 -0.1864  0.3279
38191SOL    HW121623   0.740  12.338   0.372  2.0304 -1.6705  1.1764
38191SOL    HW221624   0.644  12.222   0.357 -0.1018  0.1709  0.0425
38192SOL     OW21625   9.342   8.179   2.588  0.4754 -0.3218 -0.0889
38192SOL    HW121626   9.361   8.206   2.498 -0.4972  0.4094 -0.0964
38192SOL    HW221627   9.427   8.168   2.628  0.9329 -0.8424 -1.1483
38193SOL     OW21628   3.680   4.387   9.216  0.1806 -0.1993  0.0274
38193SOL    HW121629   3.769   4.366   9.241 -0.1072 -2.0316 -0.3474
38193SOL    HW221630   3.628   4.372   9.295 -0.4123 -3.8880 -0.8374
38194SOL     OW21631   9.329   9.032   1.647  0.5257 -0.8893  0.3886
38194SOL    HW121632   9.405   8.984   1.679 -0.3770 -1.6952  1.4049
38194SOL    HW221633   9.267   8.964   1.620 -0.2064 -0.2724  0.4804
38195SOL     OW21634   6.783   9.911  10.544 -0.1877  0.3140  0.6883
38195SOL    HW121635   6.822   9.826  10.522  0.0159  0.4829  0.4037
38195SOL    HW221636   6.858   9.968  10.563 -0.3090  0.5405  0.4858
38196SOL     OW21637   7.575   6.925   2.665  0.0290 -0.1487  0.3315
38196SOL    HW121638   7.483   6.931   2.639 -0.1488 -1.1054  0.6672
38196SOL    HW221639   7.599   6.834   2.646  0.2535 -0.5515  2.2427
38197SOL     OW21640   6.447   4.436   2.801  0.1956 -0.2798  0.0560
38197SOL    HW121641   6.510   4.461   2.868 -1.7133  0.6933  1.5772
38197SOL    HW221642   6.406   4.356   2.835  1.6564 -1.9084 -1.7059
38198SOL     OW21643   9.755   7.091   0.475 -0.8997  0.7857  0.1728
38198SOL    HW121644   9.828   7.107   0.535  1.4474  0.0528 -2.2985
38198SOL    HW221645   9.709   7.176   0.470 -0.4655  1.1714  2.0089
38199SOL     OW21646  11.338   7.406   9.527 -0.6144  0.2417 -0.5450
38199SOL    HW121647  11.261   7.430   9.579  0.1780  0.3891  0.5924
38199SOL    HW221648  11.391   7.486   9.525  0.5048 -0.4437  0.5063
38200SOL     OW21649   0.227   8.090   0.530  0.2286 -0.2659 -0.1217
38200SOL    HW121650   0.257   8.014   0.481  0.6118 -0.0953 -0.1527
38200SOL    HW221651   0.254   8.072   0.620  0.9530  0.1605 -0.2510
38201SOL     OW21652   1.866   3.534   5.818  0.2968 -0.2847 -0.4656
38201SOL    HW121653   1.806   3.552   5.746  0.3736 -1.5084 -0.8501
38201SOL    HW221654   1.904   3.449   5.798  0.0723 -0.8144  1.1858
38202SOL     OW21655   0.894   2.911   7.632  0.3980  0.0445  0.2183
38202SOL    HW121656   0.929   2.859   7.704  0.0324  0.2237  0.5280
38202SOL    HW221657   0.936   2.996   7.640 -0.0768  0.2475  0.5676
38203SOL     OW21658  10.211   7.141   7.896 -0.5450 -0.4551 -0.0271
38203SOL    HW121659  10.125   7.161   7.858 -0.0101 -1.5296 -1.9470
38203SOL    HW221660  10.204   7.049   7.923 -0.9550  0.2957  2.8126
38204SOL     OW21661   6.998   7.817  11.903 -0.0199 -0.4166 -0.1719
38204SOL    HW121662   7.075   7.871  11.884  0.0396 -0.7133 -0.7814
38204SOL    HW221663   6.996   7.811  11.999  0.5131 -0.1176 -0.1401
38205SOL     OW21664   5.456   0.834   8.131 -0.3070  0.5775  0.7050
38205SOL    HW121665   5.486   0.925   8.134 -0.8266  0.7331  1.7023
38205SOL    HW221666   5.536   0.782   8.140 -0.1845  0.9736  2.2757
38206SOL     OW21667   8.966   1.047  11.298 -0.5100 -0.1052  0.2413
38206SOL    HW121668   8.994   0.995  11.373 -0.2701 -1.2657 -0.6032
38206SOL    HW221669   8.872   1.035  11.294 -0.5811  0.3219  0.6135
38207SOL     OW21670   2.454  11.037   8.695 -0.4991 -0.1032 -0.3984
38207SOL    HW121671   2.494  10.992   8.769  1.5327  0.5898 -1.0161
38207SOL    HW221672   2.418  10.967   8.641  1.4380 -0.9376 -0.6798
38208SOL     OW21673   6.725  12.451  10.746 -0.1146 -0.0267 -0.5806
38208SOL    HW121674   6.671  12.390  10.695 -1.1031  0.6082 -0.3254
38208SOL    HW221675   6.732  12.529  10.690 -1.7563  0.9324  0.4677
38209SOL     OW21676  12.332   1.658   3.499  0.1072 -0.1067  0.4348
38209SOL    HW121677  12.386   1.584   3.527  2.4589 -0.1206 -3.4460
38209SOL    HW221678  12.256   1.617   3.458  0.5376 -0.3607 -0.1266
38210SOL     OW21679   8.937   8.846  11.682 -1.2165 -0.0283 -0.5779
38210SOL    HW121680   8.844   8.848  11.707 -1.1322  1.5066 -0.2853
38210SOL    HW221681   8.968   8.935  11.698  0.4311 -0.6238 -0.2733
38211SOL     OW21682   1.091   8.686   6.781 -0.1118  0.0830  0.2779
38211SOL    HW121683   1.062   8.734   6.703  0.3329 -1.7505 -1.0808
38211SOL    HW221684   1.146   8.748   6.828  1.6849  0.5022 -2.1846
38212SOL     OW21685   2.556   1.978   5.326  0.5206  0.3436 -0.0931
38212SOL    HW121686   2.615   2.014   5.260  0.5422 -0.7389 -0.6980
38212SOL    HW221687   2.607   1.978   5.406  0.3956  1.9508  0.0131
38213SOL     OW21688   5.133   0.778  12.289  0.3303 -0.3917  0.0541
38213SOL    HW121689   5.189   0.727  12.348  0.2798 -0.1410  0.3197
38213SOL    HW221690   5.115   0.859  12.337 -1.3890 -1.0330  0.5701
38214SOL     OW21691   2.853   3.662  11.966 -0.3155 -0.1240 -0.4081
38214SOL    HW121692   2.868   3.612  11.886  0.2657  0.9881 -1.0082
38214SOL    HW221693   2.887   3.606  12.036  0.8646 -0.3282 -1.1290
38215SOL     OW21694   4.929   2.040   0.192  0.0010 -0.3823  0.2600
38215SOL    HW121695   4.969   2.118   0.230  0.4209 -1.2993  1.7686
38215SOL    HW221696   4.908   2.066   0.102  0.1499  1.4497  0.7049
38216SOL     OW21697   9.266   6.493   1.830 -0.4661 -0.1091  0.1312
38216SOL    HW121698   9.250   6.483   1.736 -0.5831 -1.4852  0.2816
38216SOL    HW221699   9.196   6.444   1.872 -0.1725  0.1403  0.9339
38217SOL     OW21700   9.599   5.127  11.219  0.7788 -0.0895  0.3716
38217SOL    HW121701   9.690   5.112  11.244  0.9631 -0.5177 -0.4996
38217SOL    HW221702   9.563   5.039  11.208  0.3808  0.0833  0.2972
38218SOL     OW21703   4.334   1.443   8.032  0.4780 -0.5388  0.1298
38218SOL    HW121704   4.368   1.369   8.081  0.1183 -0.2610  0.8048
38218SOL    HW221705   4.248   1.415   8.001 -0.3994  0.1769  1.8157
38219SOL     OW21706   2.132   9.414   0.397  0.2928  0.5391 -0.5998
38219SOL    HW121707   2.162   9.347   0.458 -2.3900 -1.1588 -0.9907
38219SOL    HW221708   2.147   9.497   0.443  1.1972 -0.4669  1.0259
38220SOL     OW21709  10.128  10.265   4.237 -0.0883  0.1624  0.4792
38220SOL    HW121710  10.186  10.322   4.186  0.3394 -0.5266  0.1806
38220SOL    HW221711  10.066  10.230   4.174  0.1546 -0.3326  0.5114
38221SOL     OW21712   6.773   7.436   4.760 -0.5002  0.8022 -0.5413
38221SOL    HW121713   6.744   7.352   4.724  0.0899  0.9294 -1.3614
38221SOL    HW221714   6.806   7.415   4.847  2.0147 -0.2960 -1.6698
38222SOL     OW21715  10.247   6.187   9.590 -0.7717 -0.3458 -0.6193
38222SOL    HW121716  10.342   6.198   9.589 -0.7410 -0.3858  0.5994
38222SOL    HW221717  10.216   6.240   9.517  0.1915 -0.4093 -1.0878
38223SOL     OW21718   9.767   4.097   5.267  0.2052  0.3173  0.3875
38223SOL    HW121719   9.839   4.035   5.254 -0.4178 -0.5151  0.8152
38223SOL    HW221720   9.744   4.126   5.179 -0.3716 -1.0963  0.0488
38224SOL     OW21721   9.000   5.546   6.434  0.5123  0.6442  0.1026
38224SOL    HW121722   9.037   5.546   6.522 -0.8034 -0.2391  0.6949
38224SOL    HW221723   9.007   5.455   6.404 -2.8593 -0.1007  1.0711
38225SOL     OW21724   2.230   6.995   2.656  0.1648 -0.1291  0.2388
38225SOL    HW121725   2.243   6.996   2.561 -0.7423  0.4711  0.1137
38225SOL    HW221726   2.316   7.019   2.691  0.4413 -0.0905 -0.4319
38226SOL     OW21727   6.638  11.502   0.225  0.7784  0.0143 -0.0958
38226SOL    HW121728   6.619  11.549   0.307 -2.5959 -1.9674  0.4206
38226SOL    HW221729   6.625  11.568   0.157 -0.4953  0.7331  0.7809
38227SOL     OW21730  10.473   7.081   5.111  0.1113 -0.4505 -0.3594
38227SOL    HW121731  10.383   7.110   5.127  0.2330  0.4997 -1.2797
38227SOL    HW221732  10.479   7.073   5.016  1.1007 -0.1099 -0.3397
38228SOL     OW21733   9.368   0.833   9.365  0.3987  0.2924  0.2405
38228SOL    HW121734   9.462   0.831   9.381  0.3934 -1.5478  0.2146
38228SOL    HW221735   9.352   0.920   9.328  2.1045  0.5443  0.0137
38229SOL     OW21736   0.043   6.392  11.478 -0.4193 -0.1195  0.4038
38229SOL    HW121737   0.017   6.417  11.389  0.5365 -2.0023 -0.4464
38229SOL    HW221738  -0.040   6.386  11.526 -1.0009  0.3680 -0.5016
38230SOL     OW21739   8.033  12.418  10.507  0.1595  0.2309 -0.3461
38230SOL    HW121740   8.064  12.329  10.521 -2.6197 -0.8114 -0.2772
38230SOL    HW221741   7.988  12.415  10.423 -0.2418  1.5004 -0.2011
38231SOL     OW21742   8.595   5.515   4.234  0.1424  0.3722  0.1636
38231SOL    HW121743   8.524   5.571   4.204 -0.2758  0.8610  1.9274
38231SOL    HW221744   8.668   5.575   4.250  1.1560 -0.1821 -2.0646
38232SOL     OW21745   6.520  10.535   0.726  0.1804  0.2140 -0.2310
38232SOL    HW121746   6.553  10.535   0.816  0.8560  1.1890 -0.4632
38232SOL    HW221747   6.432  10.570   0.732  0.5132  1.0348 -0.0382
38233SOL     OW21748  10.590   6.505   1.546 -0.4502 -0.1382  0.0442
38233SOL    HW121749  10.577   6.434   1.483 -1.7026 -1.3432  1.5761
38233SOL    HW221750  10.511   6.559   1.537 -0.3347  0.0475  0.1446
38234SOL     OW21751  12.311  11.962   6.466  0.4311 -0.5086  0.2623
38234SOL    HW121752  12.349  12.029   6.524 -0.5001  0.1764  0.0985
38234SOL    HW221753  12.261  11.905   6.524  0.0436 -0.2108  0.2266
38235SOL     OW21754   5.634   0.702   0.684  0.2884  0.1780  0.3366
38235SOL    HW121755   5.713   0.742   0.650 -0.5325  0.1532 -1.7828
38235SOL    HW221756   5.566   0.769   0.674 -0.1753 -0.1646  1.0965
38236SOL     OW21757  12.057   7.456  12.179 -0.0164 -0.4983 -0.6548
38236SOL    HW121758  12.093   7.403  12.108  0.6839 -0.0191 -0.6752
38236SOL    HW221759  12.067   7.546  12.148  0.0242 -0.2985 -0.0726
38237SOL     OW21760  10.233   6.506   3.452  0.4539 -0.0990  0.4392
38237SOL    HW121761  10.282   6.465   3.523 -1.0014 -1.7610  0.5547
38237SOL    HW221762  10.293   6.504   3.377  1.2191 -0.3271  1.0492
38238SOL     OW21763  12.212   6.787   7.726  0.2684  0.2620 -0.5141
38238SOL    HW121764  12.219   6.867   7.778 -0.6523  0.5114 -0.7545
38238SOL    HW221765  12.151   6.731   7.775  1.2633 -0.4940 -0.1094
38239SOL     OW21766   6.206   5.433   0.637 -0.0449 -0.0166  0.4192
38239SOL    HW121767   6.133   5.495   0.632 -0.9122 -1.0556 -0.3078
38239SOL    HW221768   6.206   5.390   0.552  0.6260 -0.9255  0.8654
38240SOL     OW21769   8.729  11.304   1.768  0.3186 -0.1774 -0.5962
38240SOL    HW121770   8.688  11.387   1.742 -0.4375 -0.3484 -0.0083
38240SOL    HW221771   8.708  11.296   1.861 -1.4482 -2.0459 -1.0864
38241SOL     OW21772   8.040   1.110  11.636  0.1037  0.2833  0.1295
38241SOL    HW121773   8.113   1.048  11.633 -0.7644 -0.8149  0.7248
38241SOL    HW221774   8.055   1.161  11.716  0.3696  0.2736  0.0885
38242SOL     OW21775  12.109   0.487   3.532 -0.0636 -0.0365  0.5860
38242SOL    HW121776  12.168   0.561   3.514  0.5538 -0.5813  0.3122
38242SOL    HW221777  12.044   0.491   3.461  1.0134 -0.8024 -0.4774
38243SOL     OW21778   1.446   0.757  12.051 -0.2284  0.3637 -0.0430
38243SOL    HW121779   1.448   0.783  11.959 -0.6573 -0.3976 -0.2711
38243SOL    HW221780   1.366   0.798  12.085 -1.4078 -1.3415 -0.6310
38244SOL     OW21781   9.981  10.726   3.067 -0.2490 -0.0234 -1.1908
38244SOL    HW121782   9.999  10.685   3.152  2.5630  2.8418 -0.2107
38244SOL    HW221783   9.898  10.772   3.080  0.5864  1.1264  0.3954
38245SOL     OW21784   4.577  11.661   2.781 -0.0360  0.2040 -0.2163
38245SOL    HW121785   4.516  11.734   2.767 -1.0955 -1.0852 -3.2776
38245SOL    HW221786   4.653  11.683   2.728 -0.0024 -0.5113 -0.4745
38246SOL     OW21787  11.560   0.866   6.165  0.1316 -0.3403 -0.2336
38246SOL    HW121788  11.515   0.841   6.084  0.3809 -0.0894 -0.4532
38246SOL    HW221789  11.603   0.785   6.194 -0.8699 -0.7059  0.2545
38247SOL     OW21790   5.684   1.118  10.128  0.0227  0.3296 -0.3233
38247SOL    HW121791   5.612   1.088  10.184 -0.2198 -1.1473 -1.3660
38247SOL    HW221792   5.696   1.210  10.152  0.0325 -0.2560  2.2341
38248SOL     OW21793   1.659   2.868   1.864  0.7507  0.1293  0.2355
38248SOL    HW121794   1.648   2.792   1.922  1.9071  0.4950  0.9800
38248SOL    HW221795   1.580   2.921   1.879 -0.3395 -1.1553 -0.7120
38249SOL     OW21796   1.469   5.348  10.933 -0.2301  0.0334 -0.1991
38249SOL    HW121797   1.448   5.424  10.987 -0.7464  0.4671 -0.9915
38249SOL    HW221798   1.449   5.376  10.843 -0.4422 -1.0385 -0.4975
38250SOL     OW21799  10.966   0.345  11.835 -0.3042  1.1664  0.0508
38250SOL    HW121800  10.943   0.336  11.742  0.2333 -0.9514  0.0663
38250SOL    HW221801  10.884   0.326  11.881  0.0993 -0.8480  0.0173
38251SOL     OW21802  11.818   9.945   7.513  0.0655  0.3144  0.4544
38251SOL    HW121803  11.809   9.871   7.454 -0.2904 -0.2227  1.1625
38251SOL    HW221804  11.820   9.906   7.601 -0.5375  1.1628  0.8657
38252SOL     OW21805  12.120  11.955   1.290 -0.1470 -0.3413 -0.2362
38252SOL    HW121806  12.121  11.861   1.310 -0.4095 -0.2313  0.3261
38252SOL    HW221807  12.162  11.962   1.204 -1.5749 -1.1529 -1.0504
38253SOL     OW21808  11.550  11.970   9.373  0.2741 -0.2814 -0.3132
38253SOL    HW121809  11.481  11.914   9.407 -0.6302 -1.1685 -3.3172
38253SOL    HW221810  11.631  11.932   9.407 -0.5640  0.6484  3.0908
38254SOL     OW21811   0.159   0.832  10.636  0.7323  0.3888 -0.1082
38254SOL    HW121812   0.073   0.809  10.602 -0.1437  2.7792  0.2731
38254SOL    HW221813   0.149   0.831  10.731  1.4867 -0.4834 -0.0258
38255SOL     OW21814  11.197   0.538   5.725 -0.5131  0.5465 -0.0405
38255SOL    HW121815  11.281   0.548   5.769  0.3397  3.3728 -1.9947
38255SOL    HW221816  11.135   0.582   5.782  0.2979  2.7677 -0.7514
38256SOL     OW21817   0.696   9.143   9.705 -0.3855 -0.1150  0.2859
38256SOL    HW121818   0.700   9.215   9.641  0.2020 -0.2561  0.1553
38256SOL    HW221819   0.698   9.186   9.790  0.8813  0.0037  0.2178
38257SOL     OW21820   9.285   4.854   4.416 -0.3077  0.4274 -0.2463
38257SOL    HW121821   9.294   4.786   4.350  1.3711 -0.2530  0.6290
38257SOL    HW221822   9.298   4.936   4.368 -0.1022  0.0031 -0.9243
38258SOL     OW21823   7.589   8.304   2.111  0.8305 -0.4035  0.5851
38258SOL    HW121824   7.605   8.376   2.172 -0.1961 -1.2483  1.9042
38258SOL    HW221825   7.493   8.298   2.106  0.8895 -1.9490  0.8524
38259SOL     OW21826   1.812   9.295   9.658 -0.2037  0.0662  0.2582
38259SOL    HW121827   1.788   9.203   9.644  0.3368 -0.1258  0.5637
38259SOL    HW221828   1.777   9.340   9.581 -0.3851 -0.4129  0.0533
38260SOL     OW21829   6.912   3.869   5.152 -0.0852 -0.2364  0.2453
38260SOL    HW121830   6.913   3.857   5.057 -1.0039  0.2810  0.1533
38260SOL    HW221831   6.959   3.793   5.187  0.4530 -0.3167 -0.6305
38261SOL     OW21832   0.043   1.716  11.502 -0.1757  0.2955  0.7768
38261SOL    HW121833  -0.038   1.748  11.462  0.0450  0.3434  0.3684
38261SOL    HW221834   0.088   1.795  11.532  0.1791  0.3453  0.1288
38262SOL     OW21835   8.202   8.462   6.056 -0.2348  0.8432 -1.0319
38262SOL    HW121836   8.185   8.417   6.139  2.1512  1.1069 -0.3225
38262SOL    HW221837   8.164   8.549   6.067 -0.8933  0.5140 -0.6483
38263SOL     OW21838   0.510   0.772  10.941  0.8147  0.4075 -0.1914
38263SOL    HW121839   0.583   0.800  10.887  1.8586  0.8097  1.3928
38263SOL    HW221840   0.528   0.679  10.959 -0.3012 -0.1509 -1.6844
38264SOL     OW21841   2.959   5.370   2.886  0.3052 -0.2650  0.2785
38264SOL    HW121842   3.008   5.329   2.815 -0.4548 -2.0467  0.6934
38264SOL    HW221843   2.888   5.417   2.842 -0.0448 -1.1890 -0.1736
38265SOL     OW21844  10.228  12.234  10.410 -0.1684 -0.9178 -0.0443
38265SOL    HW121845  10.136  12.209  10.422  0.0984 -2.3208 -0.7355
38265SOL    HW221846  10.255  12.188  10.331  1.5781 -1.7929  1.0072
38266SOL     OW21847   7.465   9.054   4.141 -0.1622 -0.2158 -0.4930
38266SOL    HW121848   7.503   9.141   4.159 -0.8838 -0.1312  0.6541
38266SOL    HW221849   7.387   9.050   4.196 -0.3364 -1.4602 -0.8188
38267SOL     OW21850   9.988  10.525   0.646  0.2716 -0.1074 -0.7760
38267SOL    HW121851  10.075  10.539   0.610  1.0042  0.2373  1.0187
38267SOL    HW221852   9.958  10.612   0.673  0.0083 -0.4081 -0.0525
38268SOL     OW21853  11.053   8.551   2.105  0.2824 -0.2248  0.2313
38268SOL    HW121854  10.986   8.612   2.136 -0.7658 -1.1670 -0.1053
38268SOL    HW221855  11.090   8.514   2.185  0.9856  0.8922  0.4415
38269SOL     OW21856   4.605   0.352   7.918 -0.0176  0.2538 -0.3252
38269SOL    HW121857   4.654   0.305   7.985  0.9606 -0.1451 -1.2890
38269SOL    HW221858   4.672   0.402   7.871 -0.6250  0.2296 -1.2357
38270SOL     OW21859   9.892   1.016   5.504 -0.4580  0.0148  0.6636
38270SOL    HW121860   9.809   1.055   5.479  0.1433  0.3074 -1.0006
38270SOL    HW221861   9.952   1.090   5.512  0.3031 -0.3968 -0.9359
38271SOL     OW21862   0.880   8.623   6.963  0.2993 -0.4566  0.0777
38271SOL    HW121863   0.839   8.693   6.911  0.2883  0.1102  0.8295
38271SOL    HW221864   0.971   8.621   6.933  0.5887  0.6592  0.8253
38272SOL     OW21865   0.854   5.231  12.265 -0.2302 -0.6265  0.0541
38272SOL    HW121866   0.895   5.229  12.178 -3.3936  0.2086 -1.6146
38272SOL    HW221867   0.894   5.305  12.309  1.0567 -0.7262 -0.8905
38273SOL     OW21868   5.171  12.065   3.362  0.0150  0.1324  0.3742
38273SOL    HW121869   5.246  12.119   3.384  0.1276  1.1457 -2.1052
38273SOL    HW221870   5.134  12.039   3.446  2.9666 -0.2149  1.6593
38274SOL     OW21871   0.120   1.606   4.471 -0.2922 -0.2969 -0.2108
38274SOL    HW121872   0.110   1.639   4.382  0.7636  1.7458  0.3619
38274SOL    HW221873   0.213   1.588   4.480 -0.3640 -0.3268  0.5481
38275SOL     OW21874   2.597   9.287   8.769 -1.0141  0.7586  0.0051
38275SOL    HW121875   2.586   9.279   8.864  0.7415  0.0035  0.1797
38275SOL    HW221876   2.665   9.354   8.758 -0.3795  0.0267 -0.6462
38276SOL     OW21877   0.418   0.458  11.050 -0.3075  0.5258  0.3649
38276SOL    HW121878   0.488   0.519  11.074 -0.3925 -0.2059  2.7445
38276SOL    HW221879   0.464   0.382  11.013  0.1898  0.1613  1.6581
38277SOL     OW21880  10.632   9.228  10.112 -0.3924 -0.5010  0.3835
38277SOL    HW121881  10.541   9.225  10.139 -0.1544  1.1999  1.5787
38277SOL    HW221882  10.659   9.319  10.129  1.8594 -1.2599  1.2335
38278SOL     OW21883  10.423   1.392  11.119  0.3620 -0.0271  0.1581
38278SOL    HW121884  10.502   1.344  11.146  1.6017  1.4854 -0.6266
38278SOL    HW221885  10.452   1.447  11.046 -1.5129  0.3492 -0.3653
38279SOL     OW21886   9.215   4.599   4.623 -0.6334 -0.3498  0.1863
38279SOL    HW121887   9.226   4.684   4.666 -0.1980 -0.5575  0.5013
38279SOL    HW221888   9.260   4.537   4.682  1.1425 -0.4729 -1.1986
38280SOL     OW21889   0.767   8.473   1.678 -0.8646  0.4355 -0.0558
38280SOL    HW121890   0.782   8.396   1.624 -0.0313  1.4898 -1.3899
38280SOL    HW221891   0.814   8.455   1.760  1.4122  0.4912 -1.2707
38281SOL     OW21892   5.968  11.501   0.351 -0.0232 -0.5505  0.2167
38281SOL    HW121893   5.983  11.426   0.409  1.5154  0.2895  0.9571
38281SOL    HW221894   5.967  11.577   0.408 -1.6790  0.0311 -0.5170
38282SOL     OW21895   3.955   7.930   6.810 -0.4992 -0.1057  0.1943
38282SOL    HW121896   3.884   7.869   6.830  0.4680 -1.1006  0.6720
38282SOL    HW221897   3.940   8.004   6.869 -0.0454 -1.1810  1.7285
38283SOL     OW21898   7.689  11.823   3.101  0.4587  0.1265  0.1905
38283SOL    HW121899   7.730  11.818   3.188  0.1432  0.2113  0.3445
38283SOL    HW221900   7.685  11.733   3.071  1.8133  0.2163 -0.3183
38284SOL     OW21901   4.810  11.313   0.973  0.5696  0.4997 -0.4978
38284SOL    HW121902   4.728  11.307   0.924 -0.1714 -2.5931  0.9292
38284SOL    HW221903   4.816  11.406   0.997 -2.5051  0.8407 -0.6707
38285SOL     OW21904   8.398   0.649   1.423 -0.1919 -0.0791  0.0781
38285SOL    HW121905   8.351   0.588   1.366 -0.7767  1.2970 -0.9881
38285SOL    HW221906   8.335   0.720   1.439  0.2073 -0.0880  1.8884
38286SOL     OW21907   9.183  11.433   4.207 -0.1324 -0.2704  0.0949
38286SOL    HW121908   9.204  11.460   4.297  0.4500  1.0252 -0.4048
38286SOL    HW221909   9.092  11.458   4.195 -0.0230  0.1470  0.1206
38287SOL     OW21910   6.317  10.328   3.072  0.1808  0.4545 -0.2533
38287SOL    HW121911   6.339  10.362   3.159  0.0510  1.5133 -0.6222
38287SOL    HW221912   6.373  10.379   3.012 -1.5368  1.5425 -1.0012
38288SOL     OW21913  10.094   1.501   6.477 -0.4223  0.3733  0.3820
38288SOL    HW121914  10.012   1.520   6.432 -0.3927 -0.0655  0.1392
38288SOL    HW221915  10.116   1.582   6.522 -1.4620  0.2259  1.1911
38289SOL     OW21916   1.261   0.744   0.644 -0.6394  0.5512 -0.2818
38289SOL    HW121917   1.225   0.655   0.640 -1.3885  0.7515  1.0755
38289SOL    HW221918   1.234   0.776   0.731  2.2406  0.9936  0.5462
38290SOL     OW21919  12.398   6.544   1.853  0.6569  0.2563 -0.1519
38290SOL    HW121920  12.442   6.601   1.790  0.8561  1.0991  0.7269
38290SOL    HW221921  12.450   6.551   1.933  0.8968 -1.4589 -0.1182
38291SOL     OW21922   0.015   2.423   1.635  1.1207 -0.1884 -0.2823
38291SOL    HW121923   0.096   2.402   1.682 -0.2533  0.3577  2.5177
38291SOL    HW221924  -0.036   2.342   1.638  0.9436 -0.0979 -0.7386
38292SOL     OW21925   5.426   6.688   3.134  0.2144  0.4773 -0.5574
38292SOL    HW121926   5.357   6.753   3.149 -0.8395 -1.0179  1.5881
38292SOL    HW221927   5.471   6.719   3.056 -2.2193  2.0936 -1.4547
38293SOL     OW21928  10.273   1.365   0.870  0.5783 -0.4760 -0.2663
38293SOL    HW121929  10.288   1.319   0.788  0.0960 -1.0316 -0.0455
38293SOL    HW221930  10.280   1.298   0.937  0.7242 -0.0681  0.1318
38294SOL     OW21931   7.004   9.359   0.306 -0.2609  0.2915  0.5335
38294SOL    HW121932   6.925   9.413   0.317 -0.9092 -0.2936 -0.9348
38294SOL    HW221933   7.005   9.301   0.382 -1.4674  0.0420  0.3688
38295SOL     OW21934   3.699   4.241  11.547 -0.2944  0.2804 -0.6050
38295SOL    HW121935   3.684   4.308  11.614  0.1860  0.2487 -0.4670
38295SOL    HW221936   3.657   4.277  11.468  3.4541  2.7730 -1.7422
38296SOL     OW21937   4.957  11.977   6.797  0.5250 -0.4887 -0.7946
38296SOL    HW121938   5.031  11.941   6.846 -0.7194  0.0670  1.6002
38296SOL    HW221939   4.911  11.899   6.763  1.5555 -0.8654 -1.3790
38297SOL     OW21940   3.513   9.311   3.814  0.5535  0.3933  0.2265
38297SOL    HW121941   3.491   9.390   3.766  1.8683  0.1390 -0.8617
38297SOL    HW221942   3.590   9.335   3.866  0.3722  0.1030  0.6317
38298SOL     OW21943  10.973   0.512   5.015 -0.0948  0.4064 -1.0295
38298SOL    HW121944  10.968   0.530   5.109 -2.7794  1.9899 -1.3723
38298SOL    HW221945  11.057   0.549   4.988  0.9832 -0.5516  0.7682
38299SOL     OW21946   4.652   9.936   3.991  0.3464 -0.1292  0.0499
38299SOL    HW121947   4.714   9.992   4.036 -1.1244 -0.0024  2.0315
38299SOL    HW221948   4.616   9.990   3.921 -0.1798  1.0144  1.1825
38300SOL     OW21949   6.946   0.619   6.208  0.0539  0.1745  0.3488
38300SOL    HW121950   6.982   0.706   6.225 -0.7158  0.5910 -0.0911
38300SOL    HW221951   7.016   0.558   6.233  0.4864  0.9061  0.9553
38301SOL     OW21952  10.387   9.558   5.907 -0.8615  0.0078 -0.2243
38301SOL    HW121953  10.459   9.605   5.949  0.3719  0.4565 -2.6659
38301SOL    HW221954  10.310   9.613   5.924 -0.3094  0.4300  0.9722
38302SOL     OW21955   9.826   4.406   2.681  0.2621  0.1461 -0.3203
38302SOL    HW121956   9.831   4.414   2.586 -2.1593 -1.5975 -0.6749
38302SOL    HW221957   9.789   4.489   2.711  3.1948  1.6740 -0.5309
38303SOL     OW21958   8.234   3.142   7.902 -0.4329  0.2148  0.0966
38303SOL    HW121959   8.276   3.189   7.829 -0.6523  0.9598  0.4438
38303SOL    HW221960   8.307   3.118   7.959 -0.3044  0.0003 -0.1521
38304SOL     OW21961  12.228   0.003   7.950  0.2779 -0.6932  0.1084
38304SOL    HW121962  12.174   0.076   7.919  0.4314 -0.7800 -0.3852
38304SOL    HW221963  12.313   0.043   7.971 -0.0850 -0.4934  1.2485
38305SOL     OW21964   5.224   2.948   5.254 -0.4020  0.0566 -0.2418
38305SOL    HW121965   5.220   2.854   5.239  0.3025  0.2290 -1.7803
38305SOL    HW221966   5.317   2.966   5.268 -0.7234  0.3240  1.7598
38306SOL     OW21967   0.913   5.633   6.262  0.3228 -0.3691  0.3374
38306SOL    HW121968   0.974   5.585   6.318  1.4501  2.0748  1.3414
38306SOL    HW221969   0.965   5.656   6.184 -0.1659 -0.6511 -0.0804
38307SOL     OW21970  10.871   9.070  11.200  0.1806  0.4300  0.0976
38307SOL    HW121971  10.855   9.164  11.195 -0.6953  0.4124  1.9814
38307SOL    HW221972  10.834   9.035  11.118 -0.7304  1.5539  0.0100
38308SOL     OW21973   1.126  12.021   6.225  0.8939 -0.0789 -0.6687
38308SOL    HW121974   1.195  12.059   6.171  0.0166 -0.4758 -2.1284
38308SOL    HW221975   1.062  12.092   6.236  0.8771 -0.1203 -0.5038
38309SOL     OW21976   1.539   6.769   1.413  0.2776  0.2135  0.1181
38309SOL    HW121977   1.597   6.785   1.339  0.7008 -0.7009  0.2472
38309SOL    HW221978   1.581   6.815   1.486 -2.1133  4.5838 -0.9145
38310SOL     OW21979   3.059   2.479   4.777 -0.7224 -0.3125 -0.0343
38310SOL    HW121980   2.984   2.533   4.800  0.3618  0.7951  1.0274
38310SOL    HW221981   3.098   2.523   4.701 -0.7121 -0.4558 -0.1127
38311SOL     OW21982   9.678   2.443   8.883  0.2863  0.1716 -0.2386
38311SOL    HW121983   9.714   2.370   8.933  1.3747  1.0286  0.2688
38311SOL    HW221984   9.722   2.438   8.798  0.3585  0.2265 -0.2048
38312SOL     OW21985   0.811   4.989   5.035  0.3139  0.6584  0.0936
38312SOL    HW121986   0.829   5.015   4.945 -0.2082 -0.2545 -0.2980
38312SOL    HW221987   0.737   4.928   5.028  1.4047 -0.8425  0.9308
38313SOL     OW21988   1.270  10.023   5.563  0.3575 -0.1062  0.4362
38313SOL    HW121989   1.243  10.047   5.651 -0.8409 -0.8386  0.2848
38313SOL    HW221990   1.226   9.940   5.547 -0.0859  0.4189 -1.1665
38314SOL     OW21991   0.506   3.419   3.312 -0.2349 -0.1836 -0.7274
38314SOL    HW121992   0.595   3.392   3.289 -0.1258 -0.7794  0.3165
38314SOL    HW221993   0.495   3.388   3.402 -0.8945  1.4004 -0.2367
38315SOL     OW21994   1.176   7.054  11.734 -0.5821 -0.0098  0.2882
38315SOL    HW121995   1.129   6.993  11.677 -0.7571  1.0058 -0.6877
38315SOL    HW221996   1.174   7.012  11.820 -1.3160 -1.0389 -0.2052
38316SOL     OW21997   0.507   1.106   8.286 -0.3074  0.0023 -0.7103
38316SOL    HW121998   0.593   1.083   8.320 -0.4585 -0.7373 -0.8124
38316SOL    HW221999   0.456   1.026   8.294 -1.0978  0.5324 -0.3178
38317SOL     OW22000   6.276   2.829   5.607  0.1882  0.4399  0.0174
38317SOL    HW122001   6.234   2.797   5.687  3.6128 -1.1039  1.4166
38317SOL    HW222002   6.263   2.760   5.543 -0.1268  0.3547  0.1741
38318SOL     OW22003   9.723   6.786   1.638  0.2224 -0.2834 -0.7370
38318SOL    HW122004   9.650   6.732   1.608  0.3798 -0.6390 -0.4861
38318SOL    HW222005   9.760   6.823   1.558  0.6545 -1.2421 -0.9978
38319SOL     OW22006   2.598   3.917   8.381 -0.1384  0.3191 -0.3130
38319SOL    HW122007   2.573   3.879   8.296 -0.2833  1.9649 -1.0389
38319SOL    HW222008   2.515   3.934   8.424 -0.1816  1.9030 -0.9657
38320SOL     OW22009   0.798  11.109  11.144  0.1682 -0.3166 -0.0977
38320SOL    HW122010   0.872  11.166  11.161  0.6611 -0.8909 -0.2717
38320SOL    HW222011   0.751  11.151  11.071 -0.2961  0.6057  0.7158
38321SOL     OW22012   1.445   6.420   7.394  0.1939 -0.1933 -0.2712
38321SOL    HW122013   1.530   6.422   7.352  0.8796  1.1733  1.0775
38321SOL    HW222014   1.464   6.416   7.488 -1.2189  0.2388  0.0677
38322SOL     OW22015   3.207   4.761   0.443 -0.4049 -0.1569 -0.0736
38322SOL    HW122016   3.220   4.803   0.528 -2.4147  0.0973  0.1553
38322SOL    HW222017   3.226   4.829   0.379 -1.4390  0.4634  0.2543
38323SOL     OW22018   7.405   3.145   1.162  0.1746 -0.6052  0.2081
38323SOL    HW122019   7.483   3.189   1.126  1.1770 -1.9092  0.7128
38323SOL    HW222020   7.359   3.111   1.086  0.3401 -0.2160 -0.0690
38324SOL     OW22021  10.375   1.163  10.774 -0.1985  0.2870 -0.1510
38324SOL    HW122022  10.460   1.125  10.796 -1.5846 -3.0862  0.0664
38324SOL    HW222023  10.331   1.176  10.858 -0.2173  1.2794 -0.2997
38325SOL     OW22024   7.621   5.188   3.944 -0.2488  0.1933 -0.3366
38325SOL    HW122025   7.572   5.168   3.864 -0.4097 -0.5444 -0.0587
38325SOL    HW222026   7.554   5.198   4.012 -0.1219  0.9642 -0.3171
38326SOL     OW22027  12.114   7.187   4.739 -0.0118  0.3394 -0.2015
38326SOL    HW122028  12.051   7.258   4.747 -0.8942 -0.1693 -2.0848
38326SOL    HW222029  12.105   7.156   4.649  2.4615 -0.2183 -0.3388
38327SOL     OW22030   2.326   0.966  11.151  0.3326  0.3245  0.0204
38327SOL    HW122031   2.291   1.050  11.181  0.4613  0.4048 -0.0498
38327SOL    HW222032   2.297   0.958  11.060 -0.7957 -0.3279  0.4164
38328SOL     OW22033   8.014   5.756   3.524  0.2726 -0.8266  0.2818
38328SOL    HW122034   7.919   5.742   3.522  0.0116  0.4748  1.7346
38328SOL    HW222035   8.024   5.850   3.512  1.4524 -1.0420 -0.6121
38329SOL     OW22036   3.770   0.692  12.063  0.0422  0.2371  0.0066
38329SOL    HW122037   3.845   0.743  12.030 -0.2955  0.2801 -0.7082
38329SOL    HW222038   3.694   0.738  12.029 -0.3219  0.3013  0.8916
38330SOL     OW22039   9.046   3.380  10.041  0.2436  0.0252 -0.7265
38330SOL    HW122040   9.112   3.449  10.055 -1.0666  1.4417 -1.2740
38330SOL    HW222041   8.981   3.395  10.110  0.2429 -1.0955 -0.4565
38331SOL     OW22042  11.337   7.680   6.856  0.0299 -0.1408 -0.0977
38331SOL    HW122043  11.409   7.737   6.884 -0.4702 -0.4348  1.9678
38331SOL    HW222044  11.330   7.616   6.927 -1.4440 -0.8806 -0.8854
38332SOL     OW22045  10.798  10.360   0.903  0.3687  0.2770 -0.3003
38332SOL    HW122046  10.726  10.313   0.945  1.1334  0.0228  0.7500
38332SOL    HW222047  10.795  10.447   0.942  1.2254 -0.0314  0.4844
38333SOL     OW22048   9.651   9.520   1.204 -0.7456  0.2281 -0.2126
38333SOL    HW122049   9.568   9.525   1.158 -0.0295 -0.1217 -1.5894
38333SOL    HW222050   9.717   9.532   1.136  0.3260  1.4027  0.9807
38334SOL     OW22051   2.045  10.073   3.227 -0.0767 -0.4382 -0.0088
38334SOL    HW122052   1.959  10.112   3.212  0.2106 -0.1530 -1.0050
38334SOL    HW222053   2.065  10.029   3.145  1.5092  1.0216 -0.4432
38335SOL     OW22054  10.896  11.552   9.461  0.0670  0.0885 -0.5397
38335SOL    HW122055  10.884  11.647   9.457 -0.7361 -0.0275 -0.9453
38335SOL    HW222056  10.843  11.518   9.390 -0.8105 -0.7808  0.5023
38336SOL     OW22057  11.946   9.239   6.852 -0.4755 -0.1543  1.2686
38336SOL    HW122058  11.905   9.166   6.806 -1.2510  0.8490  0.3199
38336SOL    HW222059  11.892   9.314   6.830  0.8256  0.8800  1.4899
38337SOL     OW22060   3.818   0.443  10.258  0.5271  0.1771  0.3198
38337SOL    HW122061   3.819   0.538  10.247  1.6088  0.1132 -0.2502
38337SOL    HW222062   3.876   0.427  10.333  0.5072 -0.0472  0.2888
38338SOL     OW22063   6.439   5.786   4.243 -0.3332  0.2102  0.3892
38338SOL    HW122064   6.500   5.842   4.290 -0.7095  0.8230  0.1548
38338SOL    HW222065   6.414   5.837   4.166 -0.6640 -0.2867  0.1625
38339SOL     OW22066   2.069   9.846  10.497 -0.1751 -0.1697 -0.0564
38339SOL    HW122067   1.988   9.811  10.459 -0.5263  0.8217 -0.2531
38339SOL    HW222068   2.050   9.855  10.590 -0.0886 -0.4804 -0.0076
38340SOL     OW22069   0.212   0.726   5.257  0.0100 -0.2399 -0.3894
38340SOL    HW122070   0.175   0.638   5.257  1.2064 -0.7689  0.9025
38340SOL    HW222071   0.304   0.714   5.282  0.3502  1.3215 -0.7706
38341SOL     OW22072   7.623   0.057  12.186 -0.1235 -0.3660  0.1770
38341SOL    HW122073   7.656  -0.030  12.210  0.0099  0.1771  2.1194
38341SOL    HW222074   7.531   0.055  12.213 -0.3303 -0.1602 -0.5095
38342SOL     OW22075   3.078   8.610   3.769 -0.2963  0.5595  0.1315
38342SOL    HW122076   3.135   8.557   3.825  2.2607  1.3056 -1.5871
38342SOL    HW222077   2.990   8.598   3.806  0.6963 -1.9232  1.9801
38343SOL     OW22078   4.009   7.974   7.201  0.2484  0.2992  0.1209
38343SOL    HW122079   3.945   7.949   7.268 -0.2331 -0.0689 -0.4694
38343SOL    HW222080   3.960   8.029   7.140 -0.2937 -2.2504 -1.8961
38344SOL     OW22081   8.616  10.707   9.585 -0.0907 -0.1565 -0.3077
38344SOL    HW122082   8.624  10.702   9.680  0.3333 -1.6305 -0.4004
38344SOL    HW222083   8.703  10.687   9.552  0.2932  2.3639 -1.0061
38345SOL     OW22084   6.446   1.809   2.646  0.3151 -0.6679 -0.1218
38345SOL    HW122085   6.519   1.808   2.584  0.9249  0.3843  0.5499
38345SOL    HW222086   6.392   1.734   2.620  1.9564 -1.8845 -0.2423
38346SOL     OW22087   4.213   6.826  11.199  0.2240  0.0746  0.6422
38346SOL    HW122088   4.243   6.915  11.181 -0.2674 -0.2604 -2.4163
38346SOL    HW222089   4.167   6.800  11.120  2.5277 -3.7880  0.2953
38347SOL     OW22090   6.028   5.755   3.264 -0.0430 -0.3158 -0.9257
38347SOL    HW122091   6.043   5.844   3.231  0.9474 -0.1833 -0.1688
38347SOL    HW222092   6.116   5.723   3.285 -0.3358 -1.6503 -1.6112
38348SOL     OW22093   9.616  10.172   8.924  0.2166 -0.6481 -0.2139
38348SOL    HW122094   9.675  10.218   8.865 -1.9545  0.5180 -1.5975
38348SOL    HW222095   9.636  10.207   9.011 -0.6565  2.2713 -1.0829
38349SOL     OW22096  11.956   0.744   5.931 -1.0118  0.5543 -0.4388
38349SOL    HW122097  11.876   0.797   5.924 -1.5884 -0.5054 -2.9777
38349SOL    HW222098  11.996   0.749   5.844  0.7976 -0.3115  0.3035
38350SOL     OW22099   9.943   4.228   7.261  0.1414 -0.3369 -0.0636
38350SOL    HW122100   9.861   4.273   7.281  0.5308  0.2281  0.3073
38350SOL    HW222101   9.971   4.266   7.177 -0.4647 -1.2445 -0.7004
38351SOL     OW22102   3.253   2.834   2.644  0.4693 -0.3142  0.1151
38351SOL    HW122103   3.244   2.846   2.549 -1.7092 -1.5157  0.0983
38351SOL    HW222104   3.215   2.914   2.682 -0.4766 -0.6773 -0.0405
38352SOL     OW22105   4.432   6.539   5.720 -0.2876 -0.4170 -0.0761
38352SOL    HW122106   4.418   6.631   5.743  1.8946  0.2334 -1.0441
38352SOL    HW222107   4.391   6.490   5.791 -1.3278  1.2992  0.5792
38353SOL     OW22108   5.254   7.429  11.741  0.2185  0.2362 -0.8294
38353SOL    HW122109   5.229   7.486  11.814 -0.3725  0.6933 -1.3810
38353SOL    HW222110   5.203   7.349  11.755 -0.7719  0.7531 -1.3503
38354SOL     OW22111   8.265  11.389  11.160  0.3648  0.4784 -0.1229
38354SOL    HW122112   8.253  11.332  11.236 -1.2564 -0.7644 -1.2530
38354SOL    HW222113   8.223  11.472  11.185  2.0008  0.9807  1.2065
38355SOL     OW22114   0.521   6.851  10.334 -0.1452 -0.1534 -0.0163
38355SOL    HW122115   0.539   6.945  10.336  1.9527 -0.4996 -0.2081
38355SOL    HW222116   0.434   6.842  10.374 -1.2011  2.0047 -1.6270
38356SOL     OW22117   6.554  11.184   3.008 -0.0820 -0.1377 -0.4198
38356SOL    HW122118   6.465  11.202   2.979 -0.5412 -1.6825 -0.0342
38356SOL    HW222119   6.601  11.266   2.992 -0.9440 -0.0297 -2.9769
38357SOL     OW22120   3.569  11.391   2.953 -0.0430  0.0632  0.4371
38357SOL    HW122121   3.583  11.472   2.903  0.1479 -0.5994 -0.6021
38357SOL    HW222122   3.484  11.405   2.997 -0.3650  0.5422 -0.3097
38358SOL     OW22123   5.743   4.413   0.857  0.0958 -0.0835  0.2887
38358SOL    HW122124   5.686   4.387   0.929 -0.4491  0.8565  0.2128
38358SOL    HW222125   5.704   4.373   0.780 -0.9462  1.1903  0.1194
38359SOL     OW22126  12.109  10.445   9.940  0.9636  0.3091  0.0720
38359SOL    HW122127  12.052  10.451   9.863 -0.3981  1.1821  1.1018
38359SOL    HW222128  12.124  10.351   9.950 -0.2438  0.0524 -0.2799
38360SOL     OW22129   0.650   6.288   1.345 -0.3922  0.1120 -0.1845
38360SOL    HW122130   0.743   6.278   1.366 -1.0132 -2.1836  1.8631
38360SOL    HW222131   0.620   6.355   1.406 -0.4610 -0.5552  0.5284
38361SOL     OW22132   3.272   7.590  10.733  0.4356 -0.2532  0.4957
38361SOL    HW122133   3.219   7.623  10.806  0.9873  3.1766 -0.4410
38361SOL    HW222134   3.347   7.547  10.774  0.3235  0.8904  1.9746
38362SOL     OW22135   8.139  12.216   1.642 -0.2624  0.3300  1.1579
38362SOL    HW122136   8.109  12.303   1.669  0.0733  1.4320 -1.7218
38362SOL    HW222137   8.061  12.174   1.606  0.4646  1.3072 -1.7699
38363SOL     OW22138   1.239   7.377   0.088 -0.0330  0.0719  0.0327
38363SOL    HW122139   1.315   7.431   0.111 -0.4690  0.2957  1.0388
38363SOL    HW222140   1.164   7.435   0.098 -0.3689 -0.2311 -0.6491
38364SOL     OW22141   3.186   7.843   3.015 -0.2575  0.1511  0.5091
38364SOL    HW122142   3.104   7.797   3.031 -0.7183  0.9019  0.3536
38364SOL    HW222143   3.235   7.834   3.097 -0.3844 -0.5098  0.5148
38365SOL     OW22144   9.919   2.055  11.436  0.3656 -0.2783  0.7034
38365SOL    HW122145   9.876   1.969  11.436  1.5316 -0.8751  0.9959
38365SOL    HW222146   9.947   2.067  11.527  1.8205 -0.4214  0.2911
38366SOL     OW22147   1.721   3.687   4.581  0.4857  0.3526  0.4641
38366SOL    HW122148   1.803   3.684   4.630  0.2141 -1.2191  0.8670
38366SOL    HW222149   1.748   3.678   4.489  0.7457 -0.7488  0.6359
38367SOL     OW22150   6.810   6.554   3.187 -0.5559 -0.3602  0.6562
38367SOL    HW122151   6.742   6.519   3.129 -0.9486  0.9687  0.2866
38367SOL    HW222152   6.821   6.645   3.160  1.4819 -0.5650  0.6182
38368SOL     OW22153   8.516   3.673   9.517 -0.3470 -0.0139  0.2312
38368SOL    HW122154   8.474   3.590   9.494 -1.3713  0.7879 -0.9413
38368SOL    HW222155   8.444   3.735   9.522  0.6010  1.2570 -1.1177
38369SOL     OW22156   0.723   8.327   3.057 -0.2101  0.2949 -0.0848
38369SOL    HW122157   0.808   8.330   3.100  0.4371 -5.8005 -0.1687
38369SOL    HW222158   0.667   8.382   3.112  2.9279  1.7980  1.9201
38370SOL     OW22159   6.092   4.681   2.127  0.3137  0.1261  0.2772
38370SOL    HW122160   6.143   4.626   2.187 -0.7607 -1.1033  0.1271
38370SOL    HW222161   6.089   4.630   2.045  0.3359  0.9906 -0.2695
38371SOL     OW22162   4.280  10.858  10.864  0.4223  0.3611 -0.2510
38371SOL    HW122163   4.260  10.938  10.913  1.4440  0.2070  0.4562
38371SOL    HW222164   4.348  10.885  10.801  2.3847 -0.3429  1.4365
38372SOL     OW22165  12.192  10.942   3.376 -0.1386  0.1584 -0.6811
38372SOL    HW122166  12.236  10.859   3.355  1.7365  0.8599  0.1722
38372SOL    HW222167  12.128  10.919   3.443 -1.8080 -1.0448 -2.5605
38373SOL     OW22168   0.012   8.900   3.571 -0.5520 -0.4816  0.2139
38373SOL    HW122169  -0.082   8.900   3.551 -0.7917  0.7049  1.2440
38373SOL    HW222170   0.053   8.929   3.490 -0.7879 -3.5134 -1.1518
38374SOL     OW22171   2.073   9.246   4.138 -0.4036  0.4755  0.0469
38374SOL    HW122172   2.043   9.166   4.095 -3.4600  0.0507  2.5984
38374SOL    HW222173   2.160   9.224   4.171 -0.2501 -1.0024 -1.2193
38375SOL     OW22174   1.997   3.675   0.727 -0.2021 -0.0215 -0.0999
38375SOL    HW122175   1.984   3.601   0.668  0.1098 -0.3974  0.3014
38375SOL    HW222176   2.037   3.637   0.805  0.3239  0.6271 -0.0467
38376SOL     OW22177   2.549   0.306   9.246  0.0769  0.6777  0.3263
38376SOL    HW122178   2.623   0.359   9.217  1.0026 -0.9808 -0.4352
38376SOL    HW222179   2.584   0.255   9.319 -0.2264 -0.3066 -0.2060
38377SOL     OW22180   3.416   5.774   2.167 -0.3100  0.7415 -0.0120
38377SOL    HW122181   3.478   5.777   2.094 -0.1453 -2.2816 -0.1241
38377SOL    HW222182   3.466   5.737   2.239 -1.7214 -0.9264  0.1494
38378SOL     OW22183   7.472  11.289   5.884  0.1188 -0.0557  1.1271
38378SOL    HW122184   7.461  11.371   5.931  0.4953  0.7539 -0.1493
38378SOL    HW222185   7.501  11.227   5.950  2.6585  1.5271  1.6377
38379SOL     OW22186   4.451   5.856   2.166  0.0714  0.5307  0.8666
38379SOL    HW122187   4.462   5.872   2.259  0.2094  0.5518  0.8460
38379SOL    HW222188   4.493   5.931   2.123 -0.2710  0.6834  0.7948
38380SOL     OW22189   0.180   7.403  11.869 -0.1677  0.5087  0.2601
38380SOL    HW122190   0.140   7.331  11.918  1.2892  0.8081  1.9613
38380SOL    HW222191   0.154   7.386  11.778 -0.9589 -1.4166  0.7833
38381SOL     OW22192  10.792   8.144   2.561  0.4344  0.2767 -0.1874
38381SOL    HW122193  10.820   8.092   2.636 -0.0511  1.3750  0.7912
38381SOL    HW222194  10.827   8.098   2.485  0.6660 -1.0418  0.6861
38382SOL     OW22195  10.067   9.674  11.339  0.4443 -0.0041  0.7341
38382SOL    HW122196  10.040   9.708  11.254  2.1820 -1.7807 -0.6252
38382SOL    HW222197  10.026   9.733  11.402  0.6309  2.5669 -1.3469
38383SOL     OW22198   6.795   2.949   2.763 -0.2466 -0.5589 -0.1567
38383SOL    HW122199   6.739   2.916   2.834 -0.8251  0.3147 -0.1977
38383SOL    HW222200   6.733   2.975   2.695  0.2077  0.3814 -0.2210
38384SOL     OW22201   6.414   7.100   5.508  0.0989 -0.0162  0.0485
38384SOL    HW122202   6.340   7.133   5.457  0.2026 -0.2978 -0.2904
38384SOL    HW222203   6.408   7.005   5.500  1.0006 -0.0309 -0.7307
38385SOL     OW22204   5.565   8.703   1.970 -0.5591 -0.3123 -0.3456
38385SOL    HW122205   5.579   8.751   2.052 -0.6402 -1.9884  0.7045
38385SOL    HW222206   5.608   8.756   1.903  1.4935 -0.0095  1.1276
38386SOL     OW22207   4.654  11.069   7.012 -0.1737 -0.1240  0.4634
38386SOL    HW122208   4.672  11.015   7.089  2.0742  1.1589  0.9256
38386SOL    HW222209   4.567  11.106   7.028 -0.2596 -0.8385  1.7919
38387SOL     OW22210   6.826   8.344   9.768  0.5029 -0.6348  1.0668
38387SOL    HW122211   6.754   8.377   9.714  1.4537 -0.3427 -0.0481
38387SOL    HW222212   6.866   8.423   9.805 -0.2848 -0.8359  2.4546
38388SOL     OW22213   0.389   4.718   0.763 -0.0188 -0.5383  0.1902
38388SOL    HW122214   0.387   4.752   0.674 -2.5344 -1.0884 -0.0357
38388SOL    HW222215   0.431   4.633   0.755 -0.7862 -0.8606 -0.6014
38389SOL     OW22216  12.418   5.158   6.267  0.3075  0.1096 -0.0702
38389SOL    HW122217  12.469   5.147   6.187  0.4480 -0.4905  0.0965
38389SOL    HW222218  12.423   5.252   6.286 -0.3669  0.3881 -1.1811
38390SOL     OW22219  10.837   0.815  12.448 -0.1301 -0.2638  0.0737
38390SOL    HW122220  10.805   0.763  12.374 -1.1798  0.7736 -0.2191
38390SOL    HW222221  10.932   0.817  12.436  0.0466 -2.6790  0.4853
38391SOL     OW22222   2.822   1.308   8.951 -0.1888 -0.0987 -0.0324
38391SOL    HW122223   2.896   1.318   8.890  0.4802 -2.0625  0.3750
38391SOL    HW222224   2.858   1.332   9.036 -0.4958  0.5096 -0.0717
38392SOL     OW22225   7.075  12.084   3.852 -0.4536 -0.2511 -0.0642
38392SOL    HW122226   6.992  12.132   3.847 -0.4089 -0.0759  0.6799
38392SOL    HW222227   7.113  12.112   3.936  0.4136 -0.2375 -0.4555
38393SOL     OW22228   7.410   5.478   1.459 -0.0884 -0.2032 -0.0772
38393SOL    HW122229   7.495   5.509   1.428  0.7528 -1.2828  1.0549
38393SOL    HW222230   7.426   5.388   1.487 -1.6546 -0.4886 -0.0176
38394SOL     OW22231   8.583   7.324   3.369 -0.5027 -0.3145  0.2295
38394SOL    HW122232   8.633   7.280   3.437 -0.3008 -1.2176 -0.4802
38394SOL    HW222233   8.507   7.267   3.354  0.3317 -1.0450 -1.4769
38395SOL     OW22234   0.908  10.186  11.834  0.7390 -0.2066  0.8229
38395SOL    HW122235   0.992  10.141  11.831  0.3532 -0.8896 -0.4111
38395SOL    HW222236   0.875  10.169  11.922  0.5321 -2.5209  0.3559
38396SOL     OW22237   9.541   3.384  11.294  0.1182  0.6711 -0.7815
38396SOL    HW122238   9.628   3.353  11.320 -0.6918 -0.4664  0.7708
38396SOL    HW222239   9.503   3.312  11.245 -0.6653  0.3397  0.2661
38397SOL     OW22240  12.452   5.053  12.083  0.2016 -0.7849  0.2216
38397SOL    HW122241  12.426   5.087  11.997 -0.2086  0.4732  0.8161
38397SOL    HW222242  12.377   5.000  12.111  2.1347 -5.2571 -2.1755
38398SOL     OW22243   4.989  11.096   0.211  0.9855  0.1853 -0.5386
38398SOL    HW122244   4.924  11.069   0.146 -0.6501  2.7799 -0.1211
38398SOL    HW222245   5.052  11.147   0.160  0.4503  1.0582 -0.3532
38399SOL     OW22246  10.460  12.407   3.743 -0.4680 -0.6324  0.1373
38399SOL    HW122247  10.461  12.380   3.651  0.6007  2.7653 -1.0152
38399SOL    HW222248  10.372  12.440   3.757 -0.0900  0.6956 -0.3834
38400SOL     OW22249   7.484   1.023  10.767 -0.6235 -0.4874 -0.2486
38400SOL    HW122250   7.570   1.009  10.728 -1.3527  0.2590 -2.2784
38400SOL    HW222251   7.427   0.960  10.721 -1.0472 -1.5486  1.6394
38401SOL     OW22252   7.404   2.844   7.099 -0.2546  0.1757  0.4244
38401SOL    HW122253   7.322   2.804   7.073 -0.4555 -0.8667  2.4489
38401SOL    HW222254   7.468   2.813   7.035 -0.9067 -1.3605  0.4790
38402SOL     OW22255   7.620   9.374   6.583 -0.0320  0.3926 -0.2502
38402SOL    HW122256   7.568   9.454   6.593 -0.4250  0.0079  1.0024
38402SOL    HW222257   7.703   9.394   6.626 -0.5489 -0.2317  1.0764
38403SOL     OW22258   6.621  11.006   9.023 -0.5708 -0.0246  0.4433
38403SOL    HW122259   6.708  11.035   9.049  0.3163 -1.4364 -0.7666
38403SOL    HW222260   6.637  10.927   8.971 -2.4595  0.5389 -1.1185
38404SOL     OW22261   9.937   1.435   8.586 -0.4430 -0.2780  0.3275
38404SOL    HW122262  10.018   1.395   8.555 -1.0368 -0.6802 -0.7296
38404SOL    HW222263   9.890   1.365   8.630 -0.1413  0.0051  1.1241
38405SOL     OW22264   5.951   0.171   1.820 -0.0116  0.1734  0.1838
38405SOL    HW122265   6.029   0.228   1.816 -0.7346  1.3792  1.9539
38405SOL    HW222266   5.883   0.221   1.775 -0.0570 -0.3694 -0.3530
38406SOL     OW22267   0.722   8.110   0.090  0.5513 -0.1644  0.0126
38406SOL    HW122268   0.704   8.069   0.006 -1.7487 -0.8937  0.7757
38406SOL    HW222269   0.650   8.172   0.102  1.5357  0.8615  0.8922
38407SOL     OW22270   5.521  12.128   0.943  0.6238  0.1611  0.1270
38407SOL    HW122271   5.518  12.205   0.886 -0.7411  0.7701  0.9734
38407SOL    HW222272   5.429  12.105   0.958  0.9962 -1.2211  0.4582
38408SOL     OW22273   4.011  12.203   0.065 -0.3312 -0.2004  0.1607
38408SOL    HW122274   4.080  12.176   0.005 -1.0757 -0.9333 -0.3777
38408SOL    HW222275   4.045  12.283   0.106 -0.1311  0.7969 -1.8207
38409SOL     OW22276   1.148  11.362   4.311  0.4802  0.1594  1.0604
38409SOL    HW122277   1.175  11.309   4.387  3.0379  1.5505  1.2072
38409SOL    HW222278   1.209  11.435   4.310 -0.4608  0.9927 -1.5010
38410SOL     OW22279   5.795   2.177   4.174  0.0371 -0.0818 -0.0982
38410SOL    HW122280   5.888   2.200   4.181 -0.2768  1.5598 -0.9418
38410SOL    HW222281   5.795   2.088   4.140  1.3024 -0.6880  1.3637
38411SOL     OW22282   7.554   5.949  11.354  0.0119  0.6132 -0.1506
38411SOL    HW122283   7.640   5.970  11.392  0.5174  0.3681 -1.1362
38411SOL    HW222284   7.528   6.029  11.309  0.4166  0.2096 -1.1145
38412SOL     OW22285   0.184   3.878   9.698  0.5642  0.2439 -0.4084
38412SOL    HW122286   0.183   3.813   9.768 -0.3113 -0.2032 -0.8189
38412SOL    HW222287   0.238   3.839   9.629  1.2280  0.5793 -0.0767
38413SOL     OW22288   9.386   0.625  11.653  0.1971 -0.2752  0.2050
38413SOL    HW122289   9.340   0.707  11.671  0.0962 -0.0434 -1.0265
38413SOL    HW222290   9.334   0.558  11.697 -0.9819  0.0574 -0.6295
38414SOL     OW22291  10.957   5.687   2.035  0.0097  0.2328 -0.2379
38414SOL    HW122292  11.045   5.693   1.999  0.5280  1.0241  1.0882
38414SOL    HW222293  10.926   5.778   2.040 -1.2045 -0.0805 -1.3953
38415SOL     OW22294   8.787   8.188   2.822 -0.1792  0.1264 -0.4212
38415SOL    HW122295   8.795   8.163   2.729  2.1275  3.2822 -1.2446
38415SOL    HW222296   8.878   8.196   2.852 -0.8839  0.1304  1.8509
38416SOL     OW22297   0.884  10.750  11.301  0.1152  0.5221  0.2246
38416SOL    HW122298   0.810  10.701  11.267  1.8917 -1.5347 -0.9678
38416SOL    HW222299   0.916  10.697  11.374  2.5323 -0.6425 -1.5574
38417SOL     OW22300   1.148   0.759  11.751  0.1587  0.0489 -0.4574
38417SOL    HW122301   1.098   0.678  11.762 -0.7761  0.0034 -3.8214
38417SOL    HW222302   1.136   0.782  11.659  1.9357  3.0416 -0.0784
38418SOL     OW22303   1.739   1.148   4.873  0.2303 -0.0458 -0.5707
38418SOL    HW122304   1.704   1.177   4.789 -0.3741 -0.6542 -0.5381
38418SOL    HW222305   1.662   1.128   4.926  0.6122 -0.3473 -0.1144
38419SOL     OW22306   4.297   1.569   5.756  0.6499  0.2847  0.1134
38419SOL    HW122307   4.383   1.594   5.789  0.3338  0.2246  1.0215
38419SOL    HW222308   4.239   1.577   5.832 -0.0555 -0.1513 -0.3642
38420SOL     OW22309   1.356  10.911  11.675 -1.0578 -0.9217 -0.0190
38420SOL    HW122310   1.376  10.974  11.606  0.1557 -0.3826  0.8014
38420SOL    HW222311   1.425  10.845  11.668 -0.6555 -0.6156  0.9679
38421SOL     OW22312   4.786   7.900   3.597  0.1940 -0.5254 -0.3521
38421SOL    HW122313   4.692   7.920   3.596 -0.3954 -2.2683  2.9690
38421SOL    HW222314   4.829   7.982   3.574 -2.1241  0.7164 -0.5660
38422SOL     OW22315  10.932   5.669   3.500 -0.0220 -0.0020 -0.1633
38422SOL    HW122316  10.908   5.655   3.409  0.8079 -2.1027 -0.1011
38422SOL    HW222317  11.016   5.716   3.495  1.1908 -2.0693 -0.5955
38423SOL     OW22318   4.751  11.651   9.135 -0.0688  0.2748 -0.3718
38423SOL    HW122319   4.775  11.737   9.100 -0.9472  0.0483 -1.5787
38423SOL    HW222320   4.768  11.591   9.064  1.2010 -0.6858  0.6927
38424SOL     OW22321   5.423   1.775   9.908 -0.2891  0.4935  0.4835
38424SOL    HW122322   5.355   1.821   9.957 -0.9762  0.1843 -0.1656
38424SOL    HW222323   5.388   1.766   9.820 -0.7039 -2.2517  0.8282
38425SOL     OW22324   4.284   1.575   5.307  0.5287  0.0051  0.4672
38425SOL    HW122325   4.226   1.523   5.251  0.5078 -0.7800  1.1963
38425SOL    HW222326   4.228   1.602   5.380  0.1418  2.3220 -0.5927
38426SOL     OW22327  11.610   9.305  10.909 -0.2627  0.3347 -0.1611
38426SOL    HW122328  11.682   9.289  10.969  0.4047  0.6028 -0.8633
38426SOL    HW222329  11.531   9.298  10.962  0.3132  0.5963  0.7389
38427SOL     OW22330   2.785   0.113   8.944 -0.1443  0.1205 -0.1407
38427SOL    HW122331   2.779   0.017   8.943 -0.8302  0.0802  2.3022
38427SOL    HW222332   2.866   0.131   8.991 -0.8376  0.7035  0.8750
38428SOL     OW22333  12.415   6.259   6.057 -0.4031 -0.1630  0.1179
38428SOL    HW122334  12.385   6.283   6.144  2.2175  0.9415  0.8224
38428SOL    HW222335  12.418   6.341   6.009  0.5353 -0.3780 -0.2081
38429SOL     OW22336   2.559   3.692   2.885  0.1980  0.6488 -0.8269
38429SOL    HW122337   2.576   3.628   2.955 -1.0817 -0.5023 -1.5296
38429SOL    HW222338   2.615   3.663   2.813 -2.3495 -1.4399 -2.1310
38430SOL     OW22339   6.186  11.526   6.460  0.6047  0.2698 -0.5237
38430SOL    HW122340   6.230  11.535   6.375  0.8915 -0.9363 -0.5221
38430SOL    HW222341   6.195  11.433   6.481  1.5950  0.7590  1.4038
38431SOL     OW22342   1.384   5.398  10.389 -0.4183 -0.4361  0.0284
38431SOL    HW122343   1.388   5.484  10.348 -2.7143  0.1770  0.8986
38431SOL    HW222344   1.298   5.364  10.365  0.4262 -2.5224 -0.2781
38432SOL     OW22345   4.374   8.735  11.087 -0.2941 -0.0163  0.0689
38432SOL    HW122346   4.291   8.781  11.082 -0.8380 -0.6616  2.0291
38432SOL    HW222347   4.420   8.777  11.160  0.8624 -0.0590 -0.6025
38433SOL     OW22348   0.616   9.190  10.507  0.4958 -0.5030  0.0378
38433SOL    HW122349   0.527   9.172  10.537  0.6949 -1.3980  0.1189
38433SOL    HW222350   0.610   9.186  10.411  0.0626  1.3845 -0.0536
38434SOL     OW22351   5.352   8.262   2.416  0.1551 -0.6289  0.8817
38434SOL    HW122352   5.325   8.193   2.356 -0.1394 -0.6532  1.0407
38434SOL    HW222353   5.414   8.219   2.476  1.9287 -0.1731 -0.5394
38435SOL     OW22354   6.570   2.500   6.682 -0.2797 -0.1146  0.6492
38435SOL    HW122355   6.584   2.453   6.764 -0.5034  3.1360  2.7560
38435SOL    HW222356   6.477   2.525   6.685  0.2478  2.0006  0.6206
38436SOL     OW22357   2.756  10.239   3.658 -0.4026 -0.7578 -0.9708
38436SOL    HW122358   2.806  10.318   3.678  0.0036 -0.9044 -1.4063
38436SOL    HW222359   2.698  10.265   3.587 -0.1605 -0.8942 -1.2176
38437SOL     OW22360   3.303   4.090  11.309  0.4229  0.4850 -0.0214
38437SOL    HW122361   3.346   4.174  11.324 -0.0826  0.7572 -0.1069
38437SOL    HW222362   3.220   4.096  11.356  0.2246  0.1678 -0.3272
38438SOL     OW22363   4.437   1.002   1.931  0.0507 -0.4204 -0.1010
38438SOL    HW122364   4.487   1.000   1.849  0.5492  1.1318  0.1223
38438SOL    HW222365   4.367   1.064   1.914 -0.7424 -1.2261  0.1865
38439SOL     OW22366   0.971   1.076  11.241 -0.1267  0.2927  0.4749
38439SOL    HW122367   1.001   1.150  11.293  0.0697  1.8341 -1.6923
38439SOL    HW222368   0.876   1.073  11.255 -0.4442  2.2221 -0.8306
38440SOL     OW22369   0.554   0.134   8.158  0.5447  0.0806  0.2610
38440SOL    HW122370   0.460   0.123   8.176  0.8082 -2.3772  0.4415
38440SOL    HW222371   0.587   0.181   8.234 -0.5482  1.1379  0.1168
38441SOL     OW22372   7.309   8.868   5.011  0.7285 -0.6498 -0.4952
38441SOL    HW122373   7.297   8.788   5.062  1.0329 -0.5367 -0.2375
38441SOL    HW222374   7.225   8.914   5.017  0.8401 -0.5049  0.1476
38442SOL     OW22375  11.213   5.071   1.566 -0.2341  0.0260  0.4980
38442SOL    HW122376  11.176   5.140   1.511  0.1943 -0.2781 -0.1808
38442SOL    HW222377  11.156   4.995   1.551 -0.2320 -0.0006  0.6223
38443SOL     OW22378   7.699   5.360   4.314 -0.2211 -0.4161 -0.2503
38443SOL    HW122379   7.738   5.384   4.398  0.4577 -0.3763 -0.5730
38443SOL    HW222380   7.736   5.274   4.294  1.4704  0.5687 -1.6303
38444SOL     OW22381   0.900  11.222   8.884 -0.0306 -0.1104  0.3437
38444SOL    HW122382   0.863  11.248   8.800  1.2272  0.6406  0.0014
38444SOL    HW222383   0.914  11.304   8.931  1.4703 -0.3430  0.3319
38445SOL     OW22384   1.732   7.313   3.341  0.7123 -0.2432 -0.0040
38445SOL    HW122385   1.678   7.387   3.313  2.9680  1.5636  0.1450
38445SOL    HW222386   1.698   7.239   3.291 -0.4191  1.2731 -1.6230
38446SOL     OW22387   2.784   1.816   2.986 -0.3845 -0.4362 -0.2576
38446SOL    HW122388   2.750   1.727   2.977 -0.6153 -0.3105 -0.6359
38446SOL    HW222389   2.858   1.819   2.926  1.6445 -1.3530  2.0129
38447SOL     OW22390   5.808  10.952  10.972 -0.0963 -0.3960  0.0874
38447SOL    HW122391   5.778  10.957  11.063 -0.6236  0.2418 -0.1214
38447SOL    HW222392   5.894  10.994  10.973 -0.5742  0.6168  0.0924
38448SOL     OW22393   6.769   2.937   4.581  0.2377 -0.1725 -0.1365
38448SOL    HW122394   6.766   2.992   4.659  0.9672 -1.2728  0.6994
38448SOL    HW222395   6.800   2.852   4.612 -0.5950 -0.9890 -1.4372
38449SOL     OW22396   9.723   4.384   8.498 -0.7441 -0.5099 -0.1087
38449SOL    HW122397   9.705   4.427   8.582 -0.4230 -0.9418  0.1834
38449SOL    HW222398   9.769   4.304   8.521 -0.8421 -0.7387 -0.6887
38450SOL     OW22399  11.958   0.870   1.587  0.0152  0.0307  0.2886
38450SOL    HW122400  11.969   0.841   1.678 -0.5399 -0.3271  0.2438
38450SOL    HW222401  11.889   0.936   1.591 -0.2405 -0.2197  0.0856
38451SOL     OW22402   1.202  10.145   9.587 -0.2893 -0.1672  0.5216
38451SOL    HW122403   1.243  10.070   9.544  0.8023  0.3066  0.6947
38451SOL    HW222404   1.205  10.123   9.680  1.1688  0.6073  0.6787
38452SOL     OW22405   0.660   3.192   4.631  0.8118  0.1637 -0.1865
38452SOL    HW122406   0.642   3.103   4.663  1.1758  0.1895  0.1019
38452SOL    HW222407   0.743   3.183   4.585  0.1499  0.0660 -1.3971
38453SOL     OW22408   0.467   2.194   9.903 -0.0632  0.0620  0.5758
38453SOL    HW122409   0.439   2.154   9.985  0.5068  0.5871  1.0369
38453SOL    HW222410   0.531   2.261   9.929 -1.1494  1.4434 -0.1318
38454SOL     OW22411   7.997   3.049   1.632 -0.6241  0.2942  0.8667
38454SOL    HW122412   8.071   3.039   1.692  1.9680 -0.2820 -2.1668
38454SOL    HW222413   7.992   2.965   1.586 -2.3176  0.8152  0.0105
38455SOL     OW22414  10.748   1.199  10.264  0.2966 -0.6789 -0.0621
38455SOL    HW122415  10.733   1.164  10.176 -1.2197 -0.0134 -0.0982
38455SOL    HW222416  10.661   1.221  10.296  1.0217  1.4699  0.5972
38456SOL     OW22417  11.635   5.455   4.450 -0.0027 -0.1577  0.0470
38456SOL    HW122418  11.599   5.507   4.521 -0.1679 -0.6265  0.3058
38456SOL    HW222419  11.725   5.437   4.477  0.2107  0.3985 -0.2671
38457SOL     OW22420   1.998   2.888  11.287 -0.1482  0.9389  0.0013
38457SOL    HW122421   2.037   2.802  11.272  1.2113  1.6181 -0.5097
38457SOL    HW222422   1.948   2.905  11.208 -0.0460  0.8184 -0.0903
38458SOL     OW22423   7.033   1.207   0.931 -0.7286 -0.1785  0.0639
38458SOL    HW122424   6.953   1.242   0.969 -1.3355 -3.0712  1.7692
38458SOL    HW222425   7.103   1.263   0.964 -1.5231 -0.9908  3.4920
38459SOL     OW22426   4.042   3.651   1.907 -0.6127  0.0683 -0.1561
38459SOL    HW122427   3.954   3.632   1.939 -0.1363 -1.0129  0.6014
38459SOL    HW222428   4.083   3.565   1.898  0.2300  0.5332 -0.9058
38460SOL     OW22429   2.292   5.724   4.379  0.0432  0.2227  0.0979
38460SOL    HW122430   2.199   5.745   4.371 -0.2273 -0.4320  1.1945
38460SOL    HW222431   2.298   5.677   4.462  1.2568 -0.3195 -0.2755
38461SOL     OW22432   8.252   7.437  12.450  0.6066  0.2997  0.4507
38461SOL    HW122433   8.303   7.484  12.516  0.3005  0.3971  0.6231
38461SOL    HW222434   8.194   7.504  12.413 -1.3904 -0.3133  2.2100
38462SOL     OW22435   7.502  12.238   2.872  0.2302 -0.0590  0.0119
38462SOL    HW122436   7.522  12.147   2.891 -0.2400 -0.1575  0.0349
38462SOL    HW222437   7.408  12.240   2.856  0.0180  0.6021  1.1542
38463SOL     OW22438   0.622  11.382   1.066  0.4822  0.5276 -0.1984
38463SOL    HW122439   0.599  11.291   1.080  0.0634  0.6052 -0.3704
38463SOL    HW222440   0.588  11.428   1.142 -0.7123  0.7662 -0.8507
38464SOL     OW22441   4.125   6.550   5.863 -0.0084 -0.2903  0.0535
38464SOL    HW122442   4.058   6.616   5.844  0.1367  0.2502  1.3406
38464SOL    HW222443   4.076   6.476   5.898  0.0488  0.1121  1.0117
38465SOL     OW22444  11.915   9.847   1.614  0.0873 -0.7073  0.5367
38465SOL    HW122445  11.997   9.894   1.624 -1.2888  2.1728 -0.5857
38465SOL    HW222446  11.878   9.845   1.702  0.6382 -0.6106  0.7740
38466SOL     OW22447   4.071   7.059   1.246  0.2099  0.2542 -0.3881
38466SOL    HW122448   4.124   7.126   1.290 -1.9933  2.3404 -0.7068
38466SOL    HW222449   3.982   7.093   1.250 -0.7301 -1.7529 -2.3212
38467SOL     OW22450   4.835   2.830  12.184  0.1483 -0.1136  0.3851
38467SOL    HW122451   4.756   2.841  12.131 -0.0855  1.6333  1.0550
38467SOL    HW222452   4.814   2.872  12.268  1.5945 -0.1157  0.7710
38468SOL     OW22453   2.573  10.497   4.784  0.2504  0.6303 -0.1305
38468SOL    HW122454   2.516  10.506   4.860 -1.6838 -0.8403 -1.3046
38468SOL    HW222455   2.660  10.483   4.820 -0.6787 -0.4653  1.8384
38469SOL     OW22456   7.244   4.156   4.880  0.3109 -0.1253  0.6213
38469SOL    HW122457   7.213   4.073   4.844 -0.7839  2.0146 -4.0659
38469SOL    HW222458   7.165   4.200   4.911  0.1814  0.7779 -0.8775
38470SOL     OW22459   3.675   9.681   1.559 -0.1546 -0.2722  0.3505
38470SOL    HW122460   3.668   9.736   1.638  0.7880  0.1045  0.1881
38470SOL    HW222461   3.696   9.594   1.592  0.5260 -0.0552  0.5244
38471SOL     OW22462   2.740   2.591   3.968 -0.0113 -0.0236 -0.5777
38471SOL    HW122463   2.764   2.499   3.981  1.3370  0.0993 -1.8806
38471SOL    HW222464   2.645   2.590   3.963 -0.1653 -1.0268  1.4973
38472SOL     OW22465   7.711  10.252   8.637 -0.1575 -0.0765 -0.3343
38472SOL    HW122466   7.649  10.216   8.701 -0.7825  1.5277  0.0013
38472SOL    HW222467   7.656  10.288   8.567  0.4101  0.7069 -0.3909
38473SOL     OW22468   9.320  11.802   3.057  0.2216  0.3792  0.4786
38473SOL    HW122469   9.258  11.798   3.130  0.4413 -0.3860  0.6219
38473SOL    HW222470   9.264  11.807   2.979 -0.0114  0.9467  0.6768
38474SOL     OW22471  12.437   8.125   8.522  0.1970  0.0657  0.7663
38474SOL    HW122472  12.369   8.084   8.575 -1.3481 -0.0466 -1.1826
38474SOL    HW222473  12.422   8.219   8.531 -0.6500  0.0320 -0.1416
38475SOL     OW22474  12.120   3.664   7.563  0.3526 -0.4764  0.0329
38475SOL    HW122475  12.204   3.698   7.532 -0.0621 -0.0358 -0.6395
38475SOL    HW222476  12.078   3.629   7.484  0.3717 -1.7183  0.5477
38476SOL     OW22477   0.749   3.438   1.117  0.0684  0.3739  0.5052
38476SOL    HW122478   0.780   3.527   1.103 -1.2376  0.7359 -0.2307
38476SOL    HW222479   0.673   3.448   1.174 -0.9713 -0.0983 -0.7458
38477SOL     OW22480   0.386   6.622   8.777  0.9209 -0.3094 -0.3130
38477SOL    HW122481   0.404   6.632   8.870 -1.9071  1.9925  0.1178
38477SOL    HW222482   0.456   6.672   8.733  2.2407 -1.3745  0.5073
38478SOL     OW22483   4.060   8.676  10.036  0.4538  0.1226 -0.4481
38478SOL    HW122484   4.079   8.697   9.945  2.5819  1.0461  0.1463
38478SOL    HW222485   4.009   8.750  10.068  1.6866  0.9529 -0.3169
38479SOL     OW22486   9.969   6.646   8.270  0.4932 -0.1278 -0.3151
38479SOL    HW122487   9.931   6.728   8.301 -0.2799 -0.7298  0.3603
38479SOL    HW222488  10.049   6.636   8.321 -0.5793 -0.9276  1.2752
38480SOL     OW22489   0.486  11.491  12.016  0.3550 -0.2183  0.6152
38480SOL    HW122490   0.557  11.427  12.027 -0.4502 -0.8766  2.4125
38480SOL    HW222491   0.522  11.556  11.956  2.0353 -1.1757  0.5068
38481SOL     OW22492   9.893   9.992   2.102 -0.1386 -0.0530  0.0445
38481SOL    HW122493   9.864   9.934   2.032  0.4909  0.8957 -1.0220
38481SOL    HW222494   9.982  10.018   2.078 -0.4669  1.5074  0.3849
38482SOL     OW22495   6.040  12.258   7.075  0.0331 -0.4153 -0.0886
38482SOL    HW122496   6.090  12.325   7.029  1.1162 -0.7056  0.6271
38482SOL    HW222497   6.084  12.176   7.053 -0.4030 -0.7294  0.1928
38483SOL     OW22498  11.349   2.519   5.065  0.4359 -0.6780 -0.4320
38483SOL    HW122499  11.322   2.432   5.095 -0.0918  0.0894  1.4875
38483SOL    HW222500  11.267   2.561   5.038  0.6079 -0.5689 -0.7906
38484SOL     OW22501   4.289  12.232  10.413 -0.3854  0.2318 -0.2521
38484SOL    HW122502   4.197  12.221  10.434 -0.2897 -0.5674 -0.2187
38484SOL    HW222503   4.292  12.307  10.353 -0.8481  1.4241  1.1562
38485SOL     OW22504   2.660   8.856   6.044 -0.5634 -0.5611  0.2086
38485SOL    HW122505   2.700   8.775   6.013  0.3057  0.4823 -1.5697
38485SOL    HW222506   2.580   8.827   6.088  0.5038 -2.4738  1.0308
38486SOL     OW22507   2.685   6.156   0.416 -0.1430 -0.0075  0.8628
38486SOL    HW122508   2.710   6.065   0.400  2.7344  1.1101 -2.2214
38486SOL    HW222509   2.699   6.200   0.333  0.4764  3.6325  2.6821
38487SOL     OW22510  10.333   2.834   0.705  0.3510 -0.3253  0.2590
38487SOL    HW122511  10.378   2.882   0.635 -0.7979 -0.8403 -0.8821
38487SOL    HW222512  10.351   2.742   0.686 -0.8004 -0.5173  0.0192
38488SOL     OW22513   4.905   5.897   5.508  0.2759  0.1496 -0.1900
38488SOL    HW122514   4.897   5.945   5.426  1.8609  0.2585 -0.2996
38488SOL    HW222515   4.872   5.809   5.487 -0.3518  0.4810 -0.6318
38489SOL     OW22516   7.867   2.039   2.509 -0.2658  0.4919  0.2008
38489SOL    HW122517   7.855   1.981   2.584  3.2497  0.0219  0.5900
38489SOL    HW222518   7.852   2.127   2.544 -2.3357  0.1052  0.4312
38490SOL     OW22519  10.480   9.816   9.081  0.4339 -0.6729 -0.1352
38490SOL    HW122520  10.411   9.756   9.051  0.0807  0.3243 -1.3906
38490SOL    HW222521  10.449   9.903   9.056  0.8788  0.0939  1.7573
38491SOL     OW22522   0.574   5.831   5.207 -0.2470  0.0354  0.2484
38491SOL    HW122523   0.556   5.738   5.221 -0.0430  0.0450  0.5833
38491SOL    HW222524   0.658   5.833   5.163 -0.6511  0.0291 -0.5464
38492SOL     OW22525   7.143  11.418   0.394  0.3334  0.1897 -0.0571
38492SOL    HW122526   7.078  11.476   0.356 -0.3397 -2.0853 -2.6434
38492SOL    HW222527   7.221  11.473   0.403 -0.4409  1.6743 -1.7780
38493SOL     OW22528   0.791  11.942   6.808 -0.0535 -0.3525 -0.2099
38493SOL    HW122529   0.739  11.923   6.886  1.1844  0.1884  0.7636
38493SOL    HW222530   0.794  11.859   6.761 -0.2702 -0.8544  0.6446
38494SOL     OW22531   3.848  10.009  12.055  0.3977  0.1877 -0.6015
38494SOL    HW122532   3.881   9.938  12.001  0.9162 -0.3593  0.4188
38494SOL    HW222533   3.758  10.023  12.023  0.9275  0.4084 -2.0985
38495SOL     OW22534   3.411   7.426   3.416 -0.1103  0.3963 -0.0030
38495SOL    HW122535   3.442   7.346   3.458  0.5678  0.9804  0.6312
38495SOL    HW222536   3.487   7.460   3.369 -0.5763  0.3164 -0.8488
38496SOL     OW22537   3.930   7.533   2.499 -0.4511 -0.5150 -0.3085
38496SOL    HW122538   3.884   7.509   2.579  0.7101 -0.3257  0.4376
38496SOL    HW222539   3.891   7.478   2.431 -0.7908 -1.3688  0.5584
38497SOL     OW22540   9.731   9.125   5.396 -0.4213  0.1305 -0.5547
38497SOL    HW122541   9.639   9.108   5.374 -0.4567 -2.4319  1.0968
38497SOL    HW222542   9.780   9.074   5.332 -0.3011 -0.9140  0.3302
38498SOL     OW22543  10.786   4.130   5.391 -0.0376 -0.1183  0.0483
38498SOL    HW122544  10.833   4.120   5.308 -1.7389 -3.7208 -0.6873
38498SOL    HW222545  10.798   4.222   5.415  4.5685 -0.0270 -1.6459
38499SOL     OW22546   2.368  11.948   2.596  0.0166  0.4452  0.4554
38499SOL    HW122547   2.422  12.023   2.620 -0.6790  0.7697  1.0732
38499SOL    HW222548   2.412  11.873   2.635 -0.7980  0.9011  2.3729
38500SOL     OW22549   5.838   0.418   0.968 -0.2247 -0.4611  0.3067
38500SOL    HW122550   5.884   0.500   0.987 -0.7350  0.1761 -1.0628
38500SOL    HW222551   5.779   0.405   1.043 -1.4162  1.3738 -0.2461
38501SOL     OW22552   4.232   9.304   2.932 -0.4386 -0.0323  0.2563
38501SOL    HW122553   4.203   9.373   2.873  1.1444  1.1448  0.7985
38501SOL    HW222554   4.169   9.234   2.919 -1.2297  0.9261 -1.4197
38502SOL     OW22555   7.614   2.746   6.066  0.0261  0.0528  0.3667
38502SOL    HW122556   7.547   2.776   6.128 -0.0648  0.3565  0.1250
38502SOL    HW222557   7.582   2.776   5.981  0.4438  0.1506  0.2446
38503SOL     OW22558  11.505   1.790   8.851  1.2333 -0.4989 -0.2620
38503SOL    HW122559  11.517   1.702   8.886  1.3431 -0.0708  0.8186
38503SOL    HW222560  11.503   1.846   8.928 -1.7305  0.1510 -0.7022
38504SOL     OW22561  12.406   5.278   1.375  0.1093 -0.1206  0.1153
38504SOL    HW122562  12.395   5.272   1.469  0.9169  1.6204  0.3607
38504SOL    HW222563  12.487   5.229   1.357  1.4068  1.6787  0.7369
38505SOL     OW22564   2.648   1.905   6.507  0.4508 -0.2972 -0.2792
38505SOL    HW122565   2.743   1.910   6.520  0.3722  0.0565  0.1647
38505SOL    HW222566   2.628   1.812   6.523  0.5970 -0.1998  0.5475
38506SOL     OW22567  12.149   4.021   2.732  0.1788 -0.5233  0.0305
38506SOL    HW122568  12.143   3.927   2.750  0.2166 -0.7818 -1.1760
38506SOL    HW222569  12.228   4.029   2.679 -0.4343  0.0235 -0.8148
38507SOL     OW22570   1.159   8.401   0.484 -0.2280  0.2866 -0.4395
38507SOL    HW122571   1.215   8.338   0.530 -1.6349 -0.2572  0.6254
38507SOL    HW222572   1.188   8.398   0.393  1.1164 -0.3404 -0.0098
38508SOL     OW22573   1.242   3.328   9.056  0.4777  0.1568 -0.2599
38508SOL    HW122574   1.306   3.322   8.986  0.1871 -0.2433 -0.4946
38508SOL    HW222575   1.216   3.238   9.074  1.4362  0.1224  1.2106
38509SOL     OW22576   7.135   9.183   7.314 -0.0082 -0.3767  0.3950
38509SOL    HW122577   7.155   9.272   7.284 -0.5614 -0.6817 -0.9588
38509SOL    HW222578   7.199   9.166   7.384  0.7400  0.7110  0.0022
38510SOL     OW22579   5.258   7.625   1.595 -0.3570  0.8451 -0.1810
38510SOL    HW122580   5.231   7.707   1.636  0.4066  1.9349 -1.7618
38510SOL    HW222581   5.347   7.642   1.563  0.8997 -1.4916  1.7886
38511SOL     OW22582   8.678   6.135   2.929 -0.5709 -0.1313  0.0570
38511SOL    HW122583   8.615   6.068   2.957 -1.2006  0.5803  0.3705
38511SOL    HW222584   8.665   6.208   2.989  0.1003  0.2858 -0.2870
38512SOL     OW22585  11.098   3.135   1.761  0.4284 -0.4067  0.3627
38512SOL    HW122586  11.058   3.222   1.755  1.6303  0.1822  0.6487
38512SOL    HW222587  11.063   3.087   1.686  1.0824  0.8898 -0.8082
38513SOL     OW22588   7.055   0.597   8.147 -0.7916 -0.2345  0.5940
38513SOL    HW122589   7.115   0.525   8.127 -2.0399 -1.5713  1.4283
38513SOL    HW222590   7.106   0.656   8.203  1.0398  0.8862 -2.0885
38514SOL     OW22591   1.928   4.089  12.075  0.4013  0.9844 -0.4219
38514SOL    HW122592   1.923   4.041  12.158 -1.3617 -0.5613 -1.3461
38514SOL    HW222593   1.838   4.117  12.059  0.4694  0.2314 -2.3606
38515SOL     OW22594   0.869  11.945   4.454  0.5777 -0.3009 -0.3145
38515SOL    HW122595   0.878  11.918   4.363 -0.5114  1.2291 -0.9097
38515SOL    HW222596   0.804  11.885   4.491  0.9765 -0.8831 -0.5431
38516SOL     OW22597   2.908   9.328   8.251 -0.1613 -0.5842 -0.2281
38516SOL    HW122598   2.933   9.321   8.159 -0.6736  1.6310 -0.5905
38516SOL    HW222599   2.816   9.300   8.253 -0.0837 -0.8550 -0.3265
38517SOL     OW22600   2.130   4.469   8.169  0.2892  0.3617 -0.3139
38517SOL    HW122601   2.090   4.446   8.252  1.3856 -0.7887 -0.0657
38517SOL    HW222602   2.200   4.530   8.191 -0.4898  1.3770 -0.5985
38518SOL     OW22603   1.718   4.254   0.144  0.7878 -0.0103 -0.8172
38518SOL    HW122604   1.807   4.290   0.139  0.8154 -0.0813 -0.8258
38518SOL    HW222605   1.709   4.200   0.066  0.1701  1.2962 -1.6858
38519SOL     OW22606   1.260   4.918   2.852 -0.6164  0.0575  0.3456
38519SOL    HW122607   1.218   4.914   2.938 -0.1838  0.3895  0.5753
38519SOL    HW222608   1.344   4.875   2.864 -0.1736  0.8872  0.3178
38520SOL     OW22609   7.694   5.700  10.972 -0.0075 -0.2598  0.5390
38520SOL    HW122610   7.703   5.702  11.067  0.3169  1.5164  0.5101
38520SOL    HW222611   7.751   5.771  10.941 -1.0573  0.0086 -0.8909
38521SOL     OW22612  10.551  10.050   1.851 -0.0174 -0.1697 -0.7896
38521SOL    HW122613  10.555   9.978   1.788  1.5725 -1.1960  0.3993
38521SOL    HW222614  10.480  10.025   1.910  1.2473 -1.4237  0.2900
38522SOL     OW22615   1.877   2.629  10.658 -0.0358  0.3417  0.4799
38522SOL    HW122616   1.868   2.713  10.613  0.8488 -1.0446 -2.5803
38522SOL    HW222617   1.891   2.566  10.588 -0.5777 -2.3963  2.6478
38523SOL     OW22618  12.584   7.559   4.425  0.7753  0.5970 -0.0095
38523SOL    HW122619  12.662   7.517   4.460 -1.1494 -1.4238  2.2049
38523SOL    HW222620  12.565   7.629   4.487 -1.2335 -1.3921  1.7751
38524SOL     OW22621   7.416   9.088   8.779  0.2144 -0.0994 -0.3508
38524SOL    HW122622   7.438   9.132   8.697 -0.1042  0.4095 -0.1693
38524SOL    HW222623   7.326   9.115   8.798 -0.6880 -2.3227 -1.1871
38525SOL     OW22624  10.297   5.987   0.051 -0.0065  0.2820 -0.4894
38525SOL    HW122625  10.370   6.040   0.018 -0.8184 -0.1082 -3.1057
38525SOL    HW222626  10.239   6.051   0.092  1.1114  0.7721  0.4077
38526SOL     OW22627   7.090   2.031  12.001  0.0441 -0.6876 -0.1713
38526SOL    HW122628   7.032   2.055  11.929  0.3914  3.0927  0.6434
38526SOL    HW222629   7.178   2.029  11.962  0.1848  0.9621  0.0088
38527SOL     OW22630   1.341   3.714  10.509  0.1464 -0.0285 -0.3316
38527SOL    HW122631   1.259   3.762  10.524  0.1304 -0.2746  0.4018
38527SOL    HW222632   1.394   3.732  10.586  1.4269  1.3840 -1.4924
38528SOL     OW22633   7.853   8.618   2.791  0.1737 -0.4416  0.7318
38528SOL    HW122634   7.948   8.625   2.801  0.6791 -0.0410 -2.8163
38528SOL    HW222635   7.831   8.536   2.835  2.2332 -0.7783  1.2839
38529SOL     OW22636   0.567   7.912   9.775  0.0433  0.0571 -0.3248
38529SOL    HW122637   0.502   7.958   9.723  1.6238  1.4231 -1.1796
38529SOL    HW222638   0.634   7.885   9.712  1.6887  1.1969  0.8537
38530SOL     OW22639   7.676   5.442   0.399  0.1667 -0.1886  0.4751
38530SOL    HW122640   7.677   5.511   0.465 -2.2464  0.2978  0.1258
38530SOL    HW222641   7.638   5.366   0.444  2.7380 -1.3385  0.8398
38531SOL     OW22642   8.808   3.696   3.872  0.1524  0.3320  0.1243
38531SOL    HW122643   8.771   3.782   3.893  0.0485  0.2905  0.1097
38531SOL    HW222644   8.732   3.640   3.856  0.2296  0.3255 -0.2255
38532SOL     OW22645   8.297   8.411   3.655  0.3458 -0.2325  0.0731
38532SOL    HW122646   8.244   8.449   3.585  1.6259  0.9069 -0.3216
38532SOL    HW222647   8.295   8.476   3.725  1.6089  0.0786 -0.1506
38533SOL     OW22648   9.031   6.019   7.318  0.3986  0.2224 -0.2524
38533SOL    HW122649   9.060   6.109   7.303 -0.6607  0.3985 -1.4088
38533SOL    HW222650   8.965   6.004   7.251 -0.2860 -1.0268  0.6596
38534SOL     OW22651   1.570   8.253  10.669 -0.4899 -0.2732 -0.1078
38534SOL    HW122652   1.554   8.227  10.760  0.4873  1.4434  0.6066
38534SOL    HW222653   1.485   8.287  10.639 -0.6500 -0.2132  0.4021
38535SOL     OW22654   2.948  11.314   3.433 -0.4226 -0.6461  0.4086
38535SOL    HW122655   2.951  11.286   3.525 -0.8315 -0.4943  0.4684
38535SOL    HW222656   2.992  11.399   3.432 -0.4333 -0.6397  0.4637
38536SOL     OW22657   8.430   8.440   5.908  0.4320  0.0225  0.4639
38536SOL    HW122658   8.339   8.453   5.935 -0.1188 -1.9273 -0.3264
38536SOL    HW222659   8.434   8.350   5.875  2.5165  0.2460 -0.0766
38537SOL     OW22660  11.950   0.223   3.505  0.2714 -0.1710 -0.2346
38537SOL    HW122661  11.981   0.223   3.595  2.7152  1.6045 -0.9701
38537SOL    HW222662  11.987   0.143   3.467  0.5142 -0.1576 -0.0319
38538SOL     OW22663   2.191   5.898  10.926 -0.7853 -0.3459  0.4645
38538SOL    HW122664   2.264   5.837  10.912  0.5535  1.3977 -0.6906
38538SOL    HW222665   2.113   5.844  10.923  0.0478 -1.6892 -4.0018
38539SOL     OW22666   9.335   8.328   5.211 -0.8386  0.3029  0.0106
38539SOL    HW122667   9.281   8.326   5.133  0.5406 -0.8280 -0.9598
38539SOL    HW222668   9.386   8.409   5.203 -2.1214  1.2246  0.7880
38540SOL     OW22669   9.300   7.924   2.600 -0.8915 -0.1375 -0.0151
38540SOL    HW122670   9.310   8.019   2.592  0.1352 -0.3176 -1.2444
38540SOL    HW222671   9.209   7.912   2.626 -1.2484  1.1609 -0.5626
38541SOL     OW22672   5.465   3.260  12.323 -0.5056  0.1467 -0.5823
38541SOL    HW122673   5.515   3.202  12.380 -1.7846 -0.2790  0.1690
38541SOL    HW222674   5.459   3.342  12.372 -0.0408  0.3921 -0.9353
38542SOL     OW22675   2.483   1.196   0.406 -0.1271 -0.5344  0.2507
38542SOL    HW122676   2.567   1.229   0.439 -0.6414 -0.6289  1.7526
38542SOL    HW222677   2.499   1.179   0.313  0.8522  1.6188 -0.0369
38543SOL     OW22678   4.951   7.847  10.598 -0.5427 -0.0081  0.1792
38543SOL    HW122679   4.884   7.897  10.552  2.1202  2.7106 -1.1204
38543SOL    HW222680   4.940   7.871  10.690 -0.1100  2.1582 -0.2718
38544SOL     OW22681   1.107  10.260   0.385  0.2709 -0.9575  0.0231
38544SOL    HW122682   1.137  10.253   0.294  0.2265 -0.3123 -0.0432
38544SOL    HW222683   1.017  10.227   0.383 -1.0073  2.2769 -0.8641
38545SOL     OW22684   3.668   0.655   8.982  0.2019 -0.3346  0.1456
38545SOL    HW122685   3.638   0.565   8.973  1.8806 -0.8660 -0.6367
38545SOL    HW222686   3.630   0.701   8.907 -0.8624 -0.3204  0.6859
38546SOL     OW22687   5.431   8.530  12.018  0.2179  0.2917  0.3634
38546SOL    HW122688   5.366   8.539  12.088 -0.2725 -0.0446 -0.0432
38546SOL    HW222689   5.513   8.509  12.064 -0.0304  0.4087  0.8582
38547SOL     OW22690  10.483   1.205  10.359  0.2086  0.3062  0.2543
38547SOL    HW122691  10.407   1.222  10.415  0.2886 -0.8847  0.7447
38547SOL    HW222692  10.454   1.234  10.272 -0.1357  1.5853  0.7784
38548SOL     OW22693   2.434   6.660   6.022 -0.2104  0.0138  0.7031
38548SOL    HW122694   2.377   6.584   6.011 -1.1527  0.7329  0.4511
38548SOL    HW222695   2.509   6.642   5.966 -0.7762 -0.3984  0.0573
38549SOL     OW22696  11.071   6.469  11.522 -0.2680 -0.0921 -0.4523
38549SOL    HW122697  11.008   6.496  11.589 -1.0218  0.5508 -1.3938
38549SOL    HW222698  11.020   6.466  11.441  0.9519  0.6440 -1.2794
38550SOL     OW22699   3.667   0.128   9.589 -0.3597  0.2658 -0.4388
38550SOL    HW122700   3.714   0.078   9.522  0.0764 -0.4684  0.3840
38550SOL    HW222701   3.693   0.219   9.574  2.0387 -0.1905  0.4806
38551SOL     OW22702   9.505   4.088  12.100 -0.1589 -0.0346  0.2585
38551SOL    HW122703   9.456   4.109  12.179 -0.5077 -1.0469  0.3326
38551SOL    HW222704   9.516   4.172  12.055 -0.7157  0.4200  0.9518
38552SOL     OW22705  11.426   1.486  10.153  0.0702  0.9091 -0.3753
38552SOL    HW122706  11.359   1.420  10.135  0.1995  0.3203  1.1034
38552SOL    HW222707  11.464   1.458  10.237  2.0949  1.2810 -1.1214
38553SOL     OW22708   2.677   9.470   2.537 -0.7625  0.6884 -0.3814
38553SOL    HW122709   2.590   9.502   2.564  0.1498  2.0584  1.1454
38553SOL    HW222710   2.737   9.537   2.569  0.9556 -0.7511 -0.4836
38554SOL     OW22711   2.938   5.200   5.624 -0.2179 -0.6406 -0.3485
38554SOL    HW122712   2.945   5.291   5.596 -1.7236 -0.8105 -1.4304
38554SOL    HW222713   2.902   5.205   5.712 -0.5474 -0.1703 -0.5006
38555SOL     OW22714   4.837   4.328   4.142 -0.2748  0.0419  0.6685
38555SOL    HW122715   4.873   4.337   4.230 -0.5711 -0.7226  0.8755
38555SOL    HW222716   4.745   4.353   4.151 -0.0413  1.0829  0.3308
38556SOL     OW22717   4.024   7.104  10.319 -0.2379  0.1723  0.0632
38556SOL    HW122718   4.048   7.196  10.330  1.9897 -0.6324  3.4405
38556SOL    HW222719   3.942   7.094  10.365  0.4520  0.1591  1.3223
38557SOL     OW22720   0.506   0.152   5.050 -0.5644  0.4304  0.3597
38557SOL    HW122721   0.469   0.236   5.079 -0.8185  0.0786  1.0848
38557SOL    HW222722   0.432   0.092   5.051  0.2985 -0.8183  3.9153
38558SOL     OW22723   2.640   5.074  12.055 -0.3463  0.2168  1.0902
38558SOL    HW122724   2.662   5.020  12.132 -0.8016 -0.3054  0.8630
38558SOL    HW222725   2.624   5.161  12.091 -0.3019  0.0368  1.5603
38559SOL     OW22726   4.093   7.894   4.673  0.4566  0.6986  0.0523
38559SOL    HW122727   4.098   7.829   4.742 -0.2252  0.3222 -0.2421
38559SOL    HW222728   4.157   7.866   4.607 -0.6926 -0.3844 -0.6500
38560SOL     OW22729   4.737   3.679   2.333  0.1920  0.1101  0.2081
38560SOL    HW122730   4.784   3.733   2.396  1.4148 -0.0006 -0.5609
38560SOL    HW222731   4.780   3.593   2.338  0.0998  0.0094 -0.5323
38561SOL     OW22732   0.666   4.578   0.886 -0.4344 -0.3274  0.0973
38561SOL    HW122733   0.727   4.622   0.946  0.2328 -0.3139 -0.5716
38561SOL    HW222734   0.579   4.598   0.921 -0.0565 -0.3754  1.0871
38562SOL     OW22735   9.896   1.495   5.582 -0.5138 -0.3141 -0.2032
38562SOL    HW122736   9.831   1.499   5.652 -0.7317  0.7684 -0.4414
38562SOL    HW222737   9.863   1.429   5.522  0.4018 -2.3465  1.3922
38563SOL     OW22738  11.536  12.566   0.967  0.3290 -0.1391  0.2096
38563SOL    HW122739  11.591  12.602   1.037 -1.0707  0.2941  1.1167
38563SOL    HW222740  11.475  12.636   0.946  0.6976 -0.2809 -1.4477
38564SOL     OW22741   8.816   8.530   8.742  0.2541 -0.4062  0.2257
38564SOL    HW122742   8.761   8.571   8.809  0.3260 -1.0865  0.7076
38564SOL    HW222743   8.900   8.574   8.749 -0.6367  1.7812 -1.5898
38565SOL     OW22744   0.973   0.473  10.504 -0.6899  0.1117 -0.3568
38565SOL    HW122745   0.883   0.497  10.525 -0.6993  0.0246 -0.2978
38565SOL    HW222746   0.992   0.398  10.560 -0.2162  0.8162  0.4635
38566SOL     OW22747   5.545  11.437   7.703  0.3745 -0.8181 -0.6635
38566SOL    HW122748   5.596  11.457   7.781  1.7515 -1.1632 -1.4260
38566SOL    HW222749   5.504  11.520   7.679 -0.0486 -0.7068  0.4035
38567SOL     OW22750   2.757   1.213   7.197  0.2925  0.8535  0.9127
38567SOL    HW122751   2.679   1.180   7.241 -1.1995  1.1776 -1.3257
38567SOL    HW222752   2.732   1.301   7.168  0.9568  0.4335 -1.0447
38568SOL     OW22753   7.114  10.207   6.102 -0.0575 -0.0468  0.7445
38568SOL    HW122754   7.087  10.254   6.023 -0.2886  0.9705  1.4047
38568SOL    HW222755   7.177  10.143   6.071 -1.0956 -0.5407 -0.4399
38569SOL     OW22756  10.755   4.050   3.424  0.8687 -0.1167  1.2197
38569SOL    HW122757  10.807   3.971   3.407  2.2054  0.9659  0.0278
38569SOL    HW222758  10.710   4.067   3.341 -0.3908 -0.2948  1.8450
38570SOL     OW22759   6.276  10.615   0.716 -0.0520  0.5344  0.1804
38570SOL    HW122760   6.199  10.559   0.724 -0.2437  0.6780 -0.5685
38570SOL    HW222761   6.259  10.669   0.639  1.0038  0.2370 -0.2924
38571SOL     OW22762   5.236  10.652   5.703  0.4938 -0.4869  0.0662
38571SOL    HW122763   5.156  10.654   5.650  0.4473 -1.7062  0.0657
38571SOL    HW222764   5.255  10.744   5.722 -1.5309 -0.2182  1.0082
38572SOL     OW22765   5.582  12.458   4.643  0.0568  0.0545 -0.2487
38572SOL    HW122766   5.539  12.421   4.567 -0.9080  1.1446 -0.2599
38572SOL    HW222767   5.676  12.443   4.628 -0.1854 -0.4925 -1.2276
38573SOL     OW22768   7.146   6.381  11.802 -0.4060  0.1055  0.0394
38573SOL    HW122769   7.075   6.342  11.854  1.7520 -1.8408  1.7111
38573SOL    HW222770   7.221   6.385  11.862  1.2011  1.2023 -1.9228
38574SOL     OW22771   3.772   4.003   4.050  0.0494 -0.2604  0.2608
38574SOL    HW122772   3.731   4.055   4.119  0.2400 -0.7557  0.7615
38574SOL    HW222773   3.834   3.947   4.097 -0.7738 -1.5627 -0.1401
38575SOL     OW22774   0.617   2.243   4.658 -0.1704 -0.1486  0.5785
38575SOL    HW122775   0.685   2.176   4.671 -0.8991 -1.0334 -0.0463
38575SOL    HW222776   0.631   2.273   4.568  0.2248  0.6498  0.8917
38576SOL     OW22777   7.004   4.106  11.327 -0.6842  0.5403  0.6745
38576SOL    HW122778   7.062   4.083  11.255  0.8038  0.6683  1.7889
38576SOL    HW222779   6.924   4.055  11.311 -0.4598  0.6926 -1.1205
38577SOL     OW22780   7.331  12.278   1.032  0.0410 -0.4631  0.3310
38577SOL    HW122781   7.351  12.302   0.941 -1.2738 -0.0193  0.1412
38577SOL    HW222782   7.286  12.194   1.025  0.0549 -0.4919  0.5884
38578SOL     OW22783   5.009  11.376   8.670  0.3721  0.1691 -0.2390
38578SOL    HW122784   5.025  11.318   8.595  1.7317 -0.6373  0.6307
38578SOL    HW222785   5.090  11.426   8.680 -0.1744  1.0250  0.0743
38579SOL     OW22786   9.897   4.739   7.353 -0.0589 -0.6982  0.1656
38579SOL    HW122787   9.965   4.795   7.391 -1.1030  0.8863 -0.1743
38579SOL    HW222788   9.926   4.724   7.263  0.6159 -1.4008  0.4872
38580SOL     OW22789   7.275   1.081   1.822  0.7756 -0.2284  0.1134
38580SOL    HW122790   7.309   1.132   1.749 -0.3773  0.7492  0.2239
38580SOL    HW222791   7.332   1.103   1.896  0.3581  0.8462  0.1321
38581SOL     OW22792   5.951   5.361   8.222 -0.1092  0.2288  0.3812
38581SOL    HW122793   5.966   5.305   8.299  1.4476 -1.7326 -1.2429
38581SOL    HW222794   5.859   5.349   8.202 -0.2276 -0.2691  1.1635
38582SOL     OW22795  11.264   9.404   6.757  0.3644  0.3768  0.2841
38582SOL    HW122796  11.278   9.365   6.844  0.2302  1.3366  0.7446
38582SOL    HW222797  11.340   9.377   6.706  1.4650  1.4587  1.2914
38583SOL     OW22798  12.492   7.854   7.420 -0.0817  0.0814  0.3330
38583SOL    HW122799  12.507   7.768   7.382  0.3892 -0.5928  1.9650
38583SOL    HW222800  12.400   7.873   7.399  0.1138 -0.3234 -0.9590
38584SOL     OW22801   5.764   3.411   2.183  0.5792 -0.1609  0.1448
38584SOL    HW122802   5.717   3.410   2.099 -1.6376 -1.1450  1.3150
38584SOL    HW222803   5.811   3.328   2.185 -1.2700 -1.2617  0.8033
38585SOL     OW22804  11.882   7.415   9.046  0.4242  0.0247 -0.0414
38585SOL    HW122805  11.949   7.478   9.073 -0.4617  0.9306  0.0867
38585SOL    HW222806  11.804   7.438   9.097  0.1110 -1.2699  0.1207
38586SOL     OW22807   4.022   8.411   0.210 -0.4635 -0.2341 -0.7102
38586SOL    HW122808   3.929   8.404   0.189 -0.5747 -0.9502 -0.0134
38586SOL    HW222809   4.048   8.496   0.175 -1.7740  0.7362  0.5764
38587SOL     OW22810  11.527   0.673   0.022 -0.3381 -0.2462 -0.6254
38587SOL    HW122811  11.615   0.659   0.056 -1.0495 -1.6666  0.7296
38587SOL    HW222812  11.525   0.622  -0.060 -0.0903 -0.7263 -0.3373
38588SOL     OW22813   3.569   1.134  11.919  0.1708 -0.1419 -0.0796
38588SOL    HW122814   3.656   1.139  11.959 -0.7481 -0.5968  2.1378
38588SOL    HW222815   3.576   1.064  11.855  0.9710 -1.5355  1.4564
38589SOL     OW22816   8.933   1.870  11.857  0.0482  0.2626 -0.3592
38589SOL    HW122817   8.866   1.822  11.905  1.0770 -0.3405  0.5312
38589SOL    HW222818   8.885   1.935  11.806 -1.2027 -0.2192  0.1754
38590SOL     OW22819   9.673   9.936   9.043  0.0340  0.2251  0.8118
38590SOL    HW122820   9.603   9.877   9.071 -0.3216  0.8971  1.3612
38590SOL    HW222821   9.627  10.009   9.002  0.3897  0.8390  1.4939
38591SOL     OW22822   5.783  11.112   9.780 -0.1767 -0.6558  0.3170
38591SOL    HW122823   5.762  11.073   9.865 -0.2658 -0.8015  0.2289
38591SOL    HW222824   5.861  11.164   9.796 -2.2424  2.3707  1.3953
38592SOL     OW22825   6.842   8.694  11.323  0.0767 -0.8572 -0.0972
38592SOL    HW122826   6.911   8.629  11.343 -0.3680 -0.9077  1.4490
38592SOL    HW222827   6.765   8.641  11.303 -0.5515 -0.9056  2.1068
38593SOL     OW22828   9.768   4.687  11.011  0.2615  0.3666  0.1263
38593SOL    HW122829   9.726   4.773  11.006 -0.9479 -0.1281  1.0903
38593SOL    HW222830   9.861   4.706  11.020  0.0708  1.5526 -0.2031
38594SOL     OW22831   1.030  11.892   1.383 -0.0575 -0.4239  0.4199
38594SOL    HW122832   1.047  11.879   1.477  0.7583  0.2192  0.3680
38594SOL    HW222833   1.028  11.986   1.371  1.3131 -0.4762 -0.4548
38595SOL     OW22834   0.889   0.562   9.150  0.3935 -0.2455 -0.5633
38595SOL    HW122835   0.894   0.473   9.114 -0.4612 -1.0755  1.2653
38595SOL    HW222836   0.980   0.585   9.170  0.4061 -1.9038  1.6276
38596SOL     OW22837   5.838   8.068  10.642  0.0899  0.0927  0.1199
38596SOL    HW122838   5.858   8.156  10.673  1.5619 -0.2702  0.2626
38596SOL    HW222839   5.777   8.082  10.569 -0.0418  1.1942  0.4276
38597SOL     OW22840   8.646  10.684   8.335 -0.0682  0.2230 -0.0618
38597SOL    HW122841   8.573  10.623   8.343  0.8765 -1.1542 -1.4418
38597SOL    HW222842   8.613  10.766   8.373 -1.8003 -0.7648  0.6793
38598SOL     OW22843   1.952   1.235  11.196 -0.0552  0.3232 -0.4430
38598SOL    HW122844   1.912   1.321  11.210  0.1254  0.2193  0.8316
38598SOL    HW222845   2.023   1.230  11.260  0.9088 -0.1894 -1.5131
38599SOL     OW22846  12.287   2.283   7.201 -0.0836 -0.6594 -0.0161
38599SOL    HW122847  12.331   2.279   7.117 -0.5511  0.3408 -0.3261
38599SOL    HW222848  12.315   2.204   7.247  1.4626 -0.3964 -0.4631
38600SOL     OW22849   5.731  12.081   8.598 -0.0053 -0.1840  0.5271
38600SOL    HW122850   5.764  12.154   8.651 -1.2485  1.2282 -0.5359
38600SOL    HW222851   5.759  12.103   8.509  1.7791 -2.3447  0.4873
38601SOL     OW22852   5.578   2.280   1.778 -0.3738 -0.4244 -0.0234
38601SOL    HW122853   5.541   2.343   1.840 -1.0988  0.0269 -0.8809
38601SOL    HW222854   5.673   2.291   1.786 -0.4259 -0.8041  1.4136
38602SOL     OW22855   7.138   0.521   9.838  0.0757 -0.3459 -0.2152
38602SOL    HW122856   7.067   0.584   9.837  0.3159 -0.0732 -0.2932
38602SOL    HW222857   7.217   0.574   9.845  0.3441 -0.5825 -1.2522
38603SOL     OW22858   8.391   6.927  10.650 -0.0481 -0.1602  0.3473
38603SOL    HW122859   8.314   6.985  10.651 -1.6145 -2.0930 -0.4824
38603SOL    HW222860   8.446   6.963  10.580 -1.9637 -0.7553 -1.5966
38604SOL     OW22861   1.742   8.291   7.918  0.3124 -0.8544 -0.4343
38604SOL    HW122862   1.666   8.238   7.892 -0.6959  0.8860 -1.2597
38604SOL    HW222863   1.759   8.346   7.842  2.2776 -1.0114 -0.1603
38605SOL     OW22864   4.148   8.474  10.865  0.4125  0.3062  0.1063
38605SOL    HW122865   4.121   8.509  10.780 -0.7720  3.1515  1.4990
38605SOL    HW222866   4.235   8.511  10.880  1.0473 -1.0025 -0.2672
38606SOL     OW22867  11.024   1.010  11.895 -0.2582  0.3526  0.1222
38606SOL    HW122868  11.113   0.975  11.903 -0.7787 -1.4623 -1.3623
38606SOL    HW222869  11.004   1.046  11.982  1.5894  0.0170  0.7194
38607SOL     OW22870   5.630   1.601   3.466  0.2394  0.3258  0.7927
38607SOL    HW122871   5.613   1.509   3.486  0.5249  0.0293 -0.3181
38607SOL    HW222872   5.543   1.641   3.466  0.2598  0.6550  3.9042
38608SOL     OW22873  12.214   4.400   8.492 -0.3479  0.3219 -0.3833
38608SOL    HW122874  12.151   4.397   8.564  0.2202  0.6129  0.1317
38608SOL    HW222875  12.282   4.460   8.522  0.0661  0.1830 -1.0286
38609SOL     OW22876  12.467  10.517  11.216 -0.1502 -0.0133  0.7474
38609SOL    HW122877  12.515  10.600  11.223  1.4952 -0.9979  1.6150
38609SOL    HW222878  12.510  10.470  11.145 -1.3309  0.0087 -0.0091
38610SOL     OW22879  10.745   3.450  11.022  0.1180 -0.0088 -0.2242
38610SOL    HW122880  10.668   3.434  10.967 -1.0700  0.6248  1.1827
38610SOL    HW222881  10.781   3.363  11.040 -1.8854 -0.6135  1.2771
38611SOL     OW22882   0.404   6.496   1.127 -0.0200 -0.0809 -0.0063
38611SOL    HW122883   0.397   6.538   1.213 -0.2518 -1.0893  0.4789
38611SOL    HW222884   0.487   6.527   1.092 -0.8696  1.9749 -0.3198
38612SOL     OW22885   8.531   3.736   6.937  0.1603 -0.5617 -0.2805
38612SOL    HW122886   8.612   3.699   6.971 -0.1821 -0.0571  1.1734
38612SOL    HW222887   8.475   3.746   7.014 -0.5960  0.8106 -0.9684
38613SOL     OW22888   6.618   3.531   7.856 -0.2731 -0.4370  0.0911
38613SOL    HW122889   6.532   3.560   7.824  0.6595  0.2545 -1.9698
38613SOL    HW222890   6.617   3.553   7.949 -0.9492  3.2221 -0.6128
38614SOL     OW22891  10.540   7.337   2.917  0.0713 -0.3430 -0.4871
38614SOL    HW122892  10.512   7.299   2.834  0.3408 -1.0647 -0.2538
38614SOL    HW222893  10.575   7.423   2.894  0.2892 -0.6048 -1.1361
38615SOL     OW22894   7.528   3.652   5.248 -0.1196 -0.4059  0.6904
38615SOL    HW122895   7.513   3.646   5.342  1.4785  1.1251  1.1060
38615SOL    HW222896   7.591   3.583   5.229  0.1955 -0.1800  0.9097
38616SOL     OW22897  11.918   9.813   3.709  0.6224  0.2792 -0.1367
38616SOL    HW122898  11.953   9.763   3.782 -0.8572 -0.7314 -0.0694
38616SOL    HW222899  11.994   9.835   3.655  1.2351 -3.6772 -1.1867
38617SOL     OW22900  11.401  10.486   0.373 -0.0574  0.1880  0.0785
38617SOL    HW122901  11.388  10.536   0.453  0.0954 -0.5952  0.6023
38617SOL    HW222902  11.374  10.397   0.395 -0.0244 -0.0395 -0.7429
38618SOL     OW22903   9.699   6.168  11.430 -0.3438 -0.6686  0.6898
38618SOL    HW122904   9.665   6.142  11.516 -0.4143 -2.6287  0.1260
38618SOL    HW222905   9.759   6.097  11.406 -0.1217 -0.0253 -0.7754
38619SOL     OW22906   5.712   9.720   3.050  0.2694  0.2889 -0.0727
38619SOL    HW122907   5.772   9.646   3.037  0.4417  0.1607  1.3742
38619SOL    HW222908   5.648   9.711   2.979  1.2210 -0.2933 -0.8979
38620SOL     OW22909  11.793  11.437   0.120 -0.2152  0.0155 -0.6715
38620SOL    HW122910  11.863  11.487   0.078  0.5192  0.5933  1.1353
38620SOL    HW222911  11.731  11.504   0.149 -0.1530 -0.2579  0.1145
38621SOL     OW22912  11.037   5.574   8.867  0.1532  0.5641  0.3190
38621SOL    HW122913  10.967   5.510   8.874 -0.4177  1.2567  1.1887
38621SOL    HW222914  11.115   5.524   8.842 -0.1583 -0.5303  1.4854
38622SOL     OW22915   8.429   8.946   7.089 -0.5287 -0.0502 -0.4568
38622SOL    HW122916   8.400   8.968   7.001 -0.9935 -0.7669 -0.4892
38622SOL    HW222917   8.375   8.999   7.146 -0.0534  0.6042 -0.6043
38623SOL     OW22918  10.358   2.650   8.858  0.7430 -0.1208  0.3050
38623SOL    HW122919  10.302   2.603   8.795  0.5325  2.2720 -1.4354
38623SOL    HW222920  10.304   2.723   8.887  2.3646  1.2863 -0.1022
38624SOL     OW22921   5.489   9.953   5.268 -0.5520 -0.1352  0.4244
38624SOL    HW122922   5.526  10.027   5.221  1.1248  1.3767  3.7811
38624SOL    HW222923   5.559   9.888   5.269 -1.2553 -0.9491 -0.6612
38625SOL     OW22924   3.989  10.406   4.852  0.2419  0.0103  0.1454
38625SOL    HW122925   4.002  10.403   4.947 -3.2294  1.1133  0.7912
38625SOL    HW222926   3.977  10.314   4.827  0.2272 -0.2191  0.9687
38626SOL     OW22927   3.552   6.141   3.539  0.0680  0.1177 -0.1099
38626SOL    HW122928   3.622   6.201   3.562  0.3098 -1.0491  2.4621
38626SOL    HW222929   3.474   6.196   3.533  0.8482  1.1550 -1.2761
38627SOL     OW22930   3.341   1.133   1.337 -0.5641 -0.3889  0.1174
38627SOL    HW122931   3.403   1.136   1.265 -0.7284  0.3938 -0.0010
38627SOL    HW222932   3.261   1.172   1.302 -0.9311 -0.8289  0.4523
38628SOL     OW22933  10.597   1.789   7.815  0.5603  0.4330 -0.2045
38628SOL    HW122934  10.605   1.751   7.903 -1.6739 -1.9937 -0.9380
38628SOL    HW222935  10.511   1.830   7.814  0.7320  0.8011 -1.1638
38629SOL     OW22936   3.574   8.932   7.972  0.1811 -0.4885 -0.6749
38629SOL    HW122937   3.584   8.879   7.893  0.1660  1.0612 -1.7548
38629SOL    HW222938   3.509   8.999   7.948 -1.7737 -1.4656  1.4598
38630SOL     OW22939   8.663   5.827  10.556 -0.3189  0.3676  0.1191
38630SOL    HW122940   8.756   5.818  10.537 -0.2447  0.9849  0.1493
38630SOL    HW222941   8.652   5.794  10.645 -0.4539 -1.3963 -0.5071
38631SOL     OW22942   8.301   5.512   2.909  0.0694  0.1813  0.2781
38631SOL    HW122943   8.396   5.502   2.905  0.2089  0.9673  1.3991
38631SOL    HW222944   8.268   5.438   2.858  1.3286  2.0676 -3.7683
38632SOL     OW22945   5.703   4.078  11.205 -0.3044 -0.4131 -0.5790
38632SOL    HW122946   5.742   4.165  11.206 -0.6492 -0.2598 -0.2750
38632SOL    HW222947   5.722   4.044  11.117 -2.1311  0.8663 -1.5292
38633SOL     OW22948   3.295   2.561   3.702 -0.0542  0.0047  0.0120
38633SOL    HW122949   3.275   2.655   3.709 -1.4437 -0.3150  0.6475
38633SOL    HW222950   3.379   2.552   3.746  0.7302  1.1398 -1.1850
38634SOL     OW22951   7.311   5.144  12.169 -0.3719 -0.2051 -0.2067
38634SOL    HW122952   7.372   5.136  12.242  0.0222  0.5882 -0.4351
38634SOL    HW222953   7.247   5.074  12.183 -0.5428  0.1977  1.1101
38635SOL     OW22954   7.092   8.351   9.499  0.2383 -0.4156  0.5328
38635SOL    HW122955   7.159   8.334   9.433  0.0816 -0.2638  0.3319
38635SOL    HW222956   7.075   8.266   9.540 -0.1841 -0.6554 -0.1181
38636SOL     OW22957  11.798   0.802   0.724  0.6578 -0.0898  1.0451
38636SOL    HW122958  11.875   0.768   0.769  1.3151 -0.1876 -0.1147
38636SOL    HW222959  11.737   0.728   0.720  1.5086 -0.7639 -0.2062
38637SOL     OW22960   6.221   7.103  10.139  0.4829 -0.2538 -0.3392
38637SOL    HW122961   6.183   7.160  10.073 -0.9009 -0.5400  0.1805
38637SOL    HW222962   6.287   7.052  10.092  0.8380  0.8538 -1.0725
38638SOL     OW22963   7.386   8.395   2.914  0.4874  0.2845  0.1466
38638SOL    HW122964   7.340   8.311   2.926  0.5198  0.2094 -0.2527
38638SOL    HW222965   7.321   8.461   2.937 -0.1876  0.2248 -1.4401
38639SOL     OW22966   6.670   9.210   1.733  0.2448 -0.2547 -0.2222
38639SOL    HW122967   6.586   9.163   1.727  0.1979 -0.4205  1.2838
38639SOL    HW222968   6.736   9.141   1.725  0.2253 -0.2047 -0.8108
38640SOL     OW22969  11.387   6.906   5.725 -0.3022  0.5069  0.1407
38640SOL    HW122970  11.390   6.999   5.702  0.2128  0.1186 -1.4773
38640SOL    HW222971  11.295   6.883   5.718 -0.7444  1.2910  2.4301
38641SOL     OW22972   6.097   9.877  12.232 -0.5051 -0.4795 -0.3035
38641SOL    HW122973   6.169   9.933  12.262  0.1764 -1.2093 -0.5306
38641SOL    HW222974   6.062   9.921  12.155 -1.3007  0.6572  0.6692
38642SOL     OW22975   0.053   0.469   7.437 -0.4504 -0.4096  0.3347
38642SOL    HW122976  -0.010   0.492   7.369  0.8060 -0.7011 -0.9882
38642SOL    HW222977   0.000   0.449   7.514 -1.9047  0.2163 -0.4675
38643SOL     OW22978   0.782   9.662   5.875  0.4596 -0.1831  0.6060
38643SOL    HW122979   0.734   9.639   5.955 -0.3212 -0.2140  0.1416
38643SOL    HW222980   0.823   9.746   5.895 -2.1806  1.3516  0.0812
38644SOL     OW22981  11.333  10.204  11.291  0.6830  0.2183 -0.6950
38644SOL    HW122982  11.382  10.202  11.373 -2.6806 -0.5271  1.4757
38644SOL    HW222983  11.306  10.295  11.281 -1.2748 -0.1435  0.6835
38645SOL     OW22984   6.892   3.443  10.055  0.2823 -0.0634  0.4875
38645SOL    HW122985   6.920   3.353  10.037  0.2383  0.1570 -0.7630
38645SOL    HW222986   6.853   3.438  10.142  0.2216 -1.2734  0.4188
38646SOL     OW22987  11.700   5.521  10.330 -0.5127  0.6150  0.1952
38646SOL    HW122988  11.692   5.607  10.372  0.5686  0.3928  0.9021
38646SOL    HW222989  11.733   5.541  10.242  1.1743  0.8776  0.8424
38647SOL     OW22990  11.967   2.356   6.998  0.2507 -0.0148  0.4681
38647SOL    HW122991  12.006   2.419   7.059  0.3036 -1.8711  2.5048
38647SOL    HW222992  11.938   2.284   7.054 -3.4654 -0.0871 -1.2612
38648SOL     OW22993   2.306   3.372   5.921 -0.2454  0.3837  0.7102
38648SOL    HW122994   2.321   3.304   5.856 -0.5323  1.4552 -0.5300
38648SOL    HW222995   2.275   3.325   5.999  0.5881 -0.9748  0.2569
38649SOL     OW22996   8.232   8.319   1.147 -0.9346 -0.0893 -0.3736
38649SOL    HW122997   8.254   8.240   1.096 -0.1374  0.4616 -0.9043
38649SOL    HW222998   8.287   8.388   1.109  0.2418  0.1857  1.7323
38650SOL     OW22999   3.123   0.502   9.423  0.2995 -0.1322  0.4340
38650SOL    HW123000   3.172   0.455   9.490 -1.3872 -0.3438  1.6119
38650SOL    HW223001   3.073   0.568   9.472  0.2420  0.7894 -0.8176
38651SOL     OW23002  11.157   6.051  10.492 -0.0058 -0.1834 -0.1644
38651SOL    HW123003  11.225   6.033  10.427 -0.1915 -0.7481 -0.2115
38651SOL    HW223004  11.168   6.143  10.513  0.2596 -0.0733 -0.7636
38652SOL     OW23005   0.430  10.649   3.267  0.3926  0.1983 -0.0169
38652SOL    HW123006   0.474  10.629   3.184  0.3596 -0.1147  0.0388
38652SOL    HW223007   0.435  10.567   3.317  0.4597  0.3991  0.3110
38653SOL     OW23008   0.044   3.864   0.525 -0.0062  0.4162 -0.4327
38653SOL    HW123009   0.132   3.831   0.511 -0.0779 -0.2789  0.6397
38653SOL    HW223010  -0.008   3.826   0.454 -0.0788 -1.8338  0.7134
38654SOL     OW23011   8.102   7.852   5.348 -0.1757  0.2113 -0.1063
38654SOL    HW123012   8.144   7.938   5.343  1.4062 -0.4883  0.5680
38654SOL    HW223013   8.034   7.855   5.281  1.0589  1.3479 -1.3720
38655SOL     OW23014   8.215  10.423   3.631 -0.2657 -0.1039  0.6961
38655SOL    HW123015   8.153  10.480   3.678  1.1228  1.7219  0.4149
38655SOL    HW223016   8.222  10.462   3.544 -0.2504 -1.5078  0.0356
38656SOL     OW23017   1.119  10.422   7.395  0.1274  0.0850 -0.7829
38656SOL    HW123018   1.190  10.361   7.417 -1.5998 -1.5787  0.4958
38656SOL    HW223019   1.068  10.376   7.329 -0.6081  0.6267 -0.5987
38657SOL     OW23020   9.137   5.856   0.909 -0.8345 -0.1442 -0.0353
38657SOL    HW123021   9.188   5.775   0.912  0.7419  0.8428  1.6927
38657SOL    HW223022   9.046   5.828   0.911 -0.3136 -1.8506  1.6462
38658SOL     OW23023   1.269  11.395   7.585  0.1033  0.1593 -0.2650
38658SOL    HW123024   1.222  11.457   7.640  2.1024  2.0260 -0.5033
38658SOL    HW223025   1.222  11.394   7.503 -0.4746  0.6786  0.0543
38659SOL     OW23026   4.558   9.664  10.536 -0.0434 -0.3717  0.2601
38659SOL    HW123027   4.561   9.598  10.467 -2.6157 -0.6420  0.3259
38659SOL    HW223028   4.564   9.613  10.618 -0.1191 -0.3422  0.2837
38660SOL     OW23029   9.354   9.743   2.652 -0.3350  0.1080  0.1596
38660SOL    HW123030   9.431   9.794   2.626 -1.1897  0.8224 -1.1008
38660SOL    HW223031   9.310   9.797   2.718 -1.6611  1.4833 -1.7318
38661SOL     OW23032  10.925   4.230   9.425 -0.4555 -0.3403 -0.2190
38661SOL    HW123033  10.955   4.314   9.458 -0.3768 -1.1942  2.0744
38661SOL    HW223034  10.874   4.251   9.347  2.0038  1.5315 -1.4375
38662SOL     OW23035  10.202  12.261   9.918 -0.6150  0.2450  0.3866
38662SOL    HW123036  10.147  12.324   9.964 -0.8281  0.8612 -0.6620
38662SOL    HW223037  10.281  12.310   9.897 -1.5429  0.8303 -2.1132
38663SOL     OW23038   2.321   9.528   3.618 -0.5600 -0.2121 -0.2606
38663SOL    HW123039   2.362   9.614   3.617  0.5050 -0.6276  1.6212
38663SOL    HW223040   2.334   9.493   3.530  1.2916  0.5336 -0.3179
38664SOL     OW23041   1.120   3.446   3.023  0.2948 -0.2535  0.6368
38664SOL    HW123042   1.209   3.430   2.993  0.1196  1.9702 -1.4160
38664SOL    HW223043   1.116   3.540   3.037 -1.6384 -0.3414  1.0027
38665SOL     OW23044   4.304  10.776   5.476 -0.5449  0.3800 -0.3335
38665SOL    HW123045   4.342  10.837   5.413 -0.5152  1.1790  0.4385
38665SOL    HW223046   4.216  10.759   5.443  0.0642 -0.6218 -1.5383
38666SOL     OW23047   7.638   5.539   6.459 -0.2520 -0.1253  0.6186
38666SOL    HW123048   7.632   5.463   6.401  1.1983 -0.9240  1.4753
38666SOL    HW223049   7.577   5.520   6.530  1.5033 -1.4695  1.8533
38667SOL     OW23050   8.441  11.503   9.456 -0.9699  0.4382 -0.6530
38667SOL    HW123051   8.488  11.566   9.401 -0.1094 -0.8841 -1.4802
38667SOL    HW223052   8.493  11.423   9.451 -1.9042 -0.2752  0.5768
38668SOL     OW23053   1.361   7.233  11.717 -0.1715 -0.2187  0.1081
38668SOL    HW123054   1.435   7.174  11.722 -0.5546 -0.8187 -0.9329
38668SOL    HW223055   1.285   7.176  11.710 -0.5372  0.3737 -1.1016
38669SOL     OW23056  10.463   7.423   3.842 -0.0048 -0.8591 -0.8544
38669SOL    HW123057  10.397   7.488   3.867 -0.9971 -1.6986 -1.1965
38669SOL    HW223058  10.446   7.349   3.900  0.3638 -1.2388 -1.2246
38670SOL     OW23059   2.012  12.513   3.345  0.4388 -0.2901 -0.0535
38670SOL    HW123060   1.922  12.505   3.377 -0.0859  0.9221 -1.0943
38670SOL    HW223061   2.018  12.449   3.273  0.7122 -1.0149  0.6060
38671SOL     OW23062   6.281   9.236   3.958 -0.2408 -0.4587 -0.1911
38671SOL    HW123063   6.361   9.277   3.924  0.0873 -2.5559 -2.1469
38671SOL    HW223064   6.254   9.293   4.031  3.5994 -0.2345  1.2664
38672SOL     OW23065   0.836   0.835   0.342 -0.2342 -0.4581  0.1499
38672SOL    HW123066   0.882   0.810   0.422 -1.3050 -0.9808  0.6182
38672SOL    HW223067   0.837   0.930   0.341  2.0503 -0.4329 -0.5616
38673SOL     OW23068   1.398  10.350   2.475 -0.1360  0.3069  0.4094
38673SOL    HW123069   1.423  10.258   2.474 -0.4268  0.2209  0.8304
38673SOL    HW223070   1.445  10.389   2.401  0.4431 -0.0615  0.5802
38674SOL     OW23071   2.364  11.111  11.842  0.2610 -0.1800  0.3524
38674SOL    HW123072   2.393  11.189  11.794  0.1192  0.0339  0.6101
38674SOL    HW223073   2.311  11.062  11.779  0.7122 -0.2867  0.0572
38675SOL     OW23074   2.711   4.969   3.296 -0.6696 -0.0434  0.2302
38675SOL    HW123075   2.652   4.904   3.335  0.6481 -0.0752  2.3197
38675SOL    HW223076   2.654   5.041   3.269 -1.8222 -0.7682  0.6782
38676SOL     OW23077   4.619   9.418   5.840  0.4492  0.3264  0.4563
38676SOL    HW123078   4.565   9.488   5.806 -0.3581 -1.1584 -1.5405
38676SOL    HW223079   4.707   9.456   5.847  0.3463  1.1735 -1.9817
38677SOL     OW23080   8.684   6.960   1.057  0.0818  0.5145 -0.1512
38677SOL    HW123081   8.621   7.024   1.023 -1.6027 -0.5499  0.8354
38677SOL    HW223082   8.716   7.000   1.138 -0.0163  0.6477 -0.1769
38678SOL     OW23083   4.266   9.174   4.485  0.5013  0.1122  0.0714
38678SOL    HW123084   4.276   9.086   4.449 -0.2083 -0.3401  0.9295
38678SOL    HW223085   4.207   9.162   4.560 -1.0603  1.5960 -0.8612
38679SOL     OW23086   1.885   5.053   4.970 -0.0762 -0.9724 -0.1926
38679SOL    HW123087   1.877   5.094   5.057  0.3491 -0.2672 -0.4801
38679SOL    HW223088   1.979   5.050   4.954 -0.1449 -1.3391 -0.5178
38680SOL     OW23089  11.711   8.130  12.575  0.6800  0.7360  0.4024
38680SOL    HW123090  11.664   8.202  12.617  0.2289 -0.0696  1.3318
38680SOL    HW223091  11.797   8.129  12.617  0.7318  0.8150  0.2985
38681SOL     OW23092   0.498   4.983   5.229  0.1461 -0.5110  0.3618
38681SOL    HW123093   0.462   4.968   5.316 -1.1479 -2.9360 -0.5034
38681SOL    HW223094   0.440   4.936   5.170  0.6533  1.5125 -1.9320
38682SOL     OW23095   8.113   8.563   2.795  0.2142  0.3401  0.6424
38682SOL    HW123096   8.136   8.637   2.739 -0.6217  0.7166  0.7794
38682SOL    HW223097   8.142   8.588   2.882  2.5698 -0.7254  0.2440
38683SOL     OW23098   4.747   3.951   6.591 -0.1066 -0.4078  0.4836
38683SOL    HW123099   4.720   3.881   6.531 -3.1797 -0.6579  1.9589
38683SOL    HW223100   4.822   3.913   6.638  1.7693 -0.5562 -2.3300
38684SOL     OW23101   0.897   2.729  10.552  0.1496 -0.6390  0.6999
38684SOL    HW123102   0.962   2.790  10.586 -1.4341  1.1975  0.6048
38684SOL    HW223103   0.900   2.741  10.457 -0.3922 -0.4594  0.7032
38685SOL     OW23104   1.588   8.034   1.498 -0.1285  0.2940 -0.3522
38685SOL    HW123105   1.537   8.050   1.418 -0.8572  0.8868  0.2151
38685SOL    HW223106   1.522   8.025   1.566  0.5301  0.9882  0.3883
38686SOL     OW23107   3.935   2.209   2.101 -0.2663 -0.1651 -0.0519
38686SOL    HW123108   3.861   2.269   2.100  0.5810  0.9923  2.1512
38686SOL    HW223109   3.940   2.175   2.011 -3.4249 -0.2932 -0.2649
38687SOL     OW23110   5.065   1.984  10.498 -0.0538  0.3930  0.0738
38687SOL    HW123111   5.067   1.943  10.585  0.6404 -0.0625 -0.1430
38687SOL    HW223112   5.026   1.918  10.441 -1.5680  1.1105  0.2233
38688SOL     OW23113   7.353   0.389   8.807 -0.5322  0.0482 -0.6932
38688SOL    HW123114   7.402   0.425   8.881 -0.4468 -1.4750  0.0333
38688SOL    HW223115   7.365   0.452   8.737  0.7979  0.6944  0.0867
38689SOL     OW23116  12.480   4.562   9.591 -0.0457  0.4500 -0.4927
38689SOL    HW123117  12.557   4.536   9.541  0.5569 -1.6706  1.4040
38689SOL    HW223118  12.406   4.542   9.533  0.7077  1.3890 -1.8607
38690SOL     OW23119   2.873   7.744   6.378  0.0568 -0.2082 -0.3638
38690SOL    HW123120   2.830   7.667   6.340  1.4707 -0.6366 -1.1799
38690SOL    HW223121   2.921   7.783   6.305  1.0051  0.2831  0.4946
38691SOL     OW23122   7.259   0.150   0.741 -0.0366 -0.0187  0.0350
38691SOL    HW123123   7.238   0.062   0.771  1.2120  0.4170  2.4836
38691SOL    HW223124   7.174   0.192   0.729 -0.6826 -0.5902  2.1092
38692SOL     OW23125  12.356   5.114   6.534  0.0864 -0.3114 -0.2631
38692SOL    HW123126  12.345   5.192   6.588 -0.9729 -1.3892  1.1580
38692SOL    HW223127  12.393   5.146   6.452  0.8852  1.5006  0.7641
38693SOL     OW23128   6.081   4.685  10.582 -0.1384  0.0859  0.2136
38693SOL    HW123129   6.062   4.597  10.615  1.0878  0.2657  1.5309
38693SOL    HW223130   6.053   4.684  10.491 -0.5956 -1.5151  0.3464
38694SOL     OW23131   9.081  11.408  12.282  0.2790  0.0429 -0.5931
38694SOL    HW123132   9.145  11.474  12.257 -2.0813  2.5795 -0.4731
38694SOL    HW223133   9.058  11.364  12.200 -0.0304  1.2823 -1.2014
38695SOL     OW23134  11.194   6.503   2.636 -0.1203  0.7069 -0.1085
38695SOL    HW123135  11.125   6.547   2.585 -0.4762  0.6232  0.2900
38695SOL    HW223136  11.275   6.528   2.593 -0.4424  0.2983 -0.9767
38696SOL     OW23137   6.158   0.217   0.306  0.1004 -0.5694 -0.4470
38696SOL    HW123138   6.247   0.205   0.274  0.9360  1.2003  1.0400
38696SOL    HW223139   6.114   0.134   0.286  2.1789 -1.6525 -0.8207
38697SOL     OW23140   9.826   4.317   4.721 -0.0782 -0.1750  0.2964
38697SOL    HW123141   9.875   4.280   4.795 -1.3915 -1.4569  0.5963
38697SOL    HW223142   9.873   4.287   4.643  0.6388  0.1719  0.5885
38698SOL     OW23143   3.068  12.115   5.277  0.5547  0.1969 -0.3790
38698SOL    HW123144   3.108  12.117   5.364  0.6087 -0.5165 -0.3849
38698SOL    HW223145   3.003  12.186   5.279  1.7894  1.3608 -0.3686
38699SOL     OW23146   3.825   1.912   2.890 -0.3391 -0.3891  0.5544
38699SOL    HW123147   3.847   1.864   2.810 -2.0304 -0.8086  0.3187
38699SOL    HW223148   3.907   1.955   2.915  0.1778 -0.0478 -1.5350
38700SOL     OW23149  10.094   2.765   6.618 -0.1839 -0.3499 -0.3517
38700SOL    HW123150  10.102   2.685   6.670 -1.6897 -0.1480  0.2518
38700SOL    HW223151  10.100   2.836   6.681 -0.2901 -0.0447 -0.6826
38701SOL     OW23152   1.354   8.352  10.553  0.6152  0.0751  0.4248
38701SOL    HW123153   1.293   8.317  10.489  1.4410  0.0908 -0.3964
38701SOL    HW223154   1.417   8.402  10.501  0.9361  0.6313  1.3177
38702SOL     OW23155   8.697   4.105   6.017  0.0297 -0.4747 -0.4650
38702SOL    HW123156   8.767   4.091   6.080 -0.7755  0.3154  0.6373
38702SOL    HW223157   8.617   4.108   6.070 -0.6417  0.4831 -1.4939
38703SOL     OW23158   9.243   1.218   0.220  0.0441 -0.1685 -0.1128
38703SOL    HW123159   9.180   1.234   0.150 -1.0567  1.2656  1.1437
38703SOL    HW223160   9.303   1.152   0.184 -1.0028 -0.1244 -2.0512
38704SOL     OW23161   1.195  11.344  12.347  0.9400 -0.4635  0.3689
38704SOL    HW123162   1.177  11.405  12.276  1.3157 -0.7236  0.0385
38704SOL    HW223163   1.290  11.352  12.362  0.8775 -0.4727  0.7817
38705SOL     OW23164   8.232  11.534   4.583  0.1793  0.1549  0.0522
38705SOL    HW123165   8.271  11.612   4.621  0.6373 -0.1146  0.1375
38705SOL    HW223166   8.160  11.512   4.643  0.4727  0.1223  0.3964
38706SOL     OW23167   9.711   8.276   5.855 -0.0007  0.1465 -0.2438
38706SOL    HW123168   9.694   8.205   5.917  4.1918  0.1978  1.2942
38706SOL    HW223169   9.738   8.231   5.774  2.0069 -0.1278  0.5211
38707SOL     OW23170   6.856   3.267   4.082 -0.2292  0.2701  0.3694
38707SOL    HW123171   6.875   3.208   4.009 -0.9719 -0.9466  1.1234
38707SOL    HW223172   6.770   3.239   4.113 -0.3755  1.4462  1.0613
38708SOL     OW23173   2.133   6.940  10.482 -0.0322 -0.1022  0.5003
38708SOL    HW123174   2.094   6.926  10.568 -0.6456 -0.5358  0.1571
38708SOL    HW223175   2.091   7.019  10.449 -2.7151 -1.9987 -1.0010
38709SOL     OW23176   3.763   2.310   8.113 -0.1513 -0.2466 -0.2032
38709SOL    HW123177   3.731   2.393   8.079 -1.1683 -0.9445 -1.0407
38709SOL    HW223178   3.694   2.247   8.090  0.1261 -1.1436  1.3071
38710SOL     OW23179   3.014   3.216  12.305 -0.8772  0.1343 -0.2707
38710SOL    HW123180   2.930   3.262  12.298 -0.6996  0.4986  0.0317
38710SOL    HW223181   3.054   3.250  12.385 -0.0428  0.6046 -0.8778
38711SOL     OW23182   4.940  10.483   2.631  0.5672  0.3490  0.0608
38711SOL    HW123183   4.879  10.417   2.665 -1.7431  1.7700 -1.0545
38711SOL    HW223184   4.967  10.532   2.709  1.2120 -0.9958  0.7155
38712SOL     OW23185   3.948   9.794   4.369  0.1499 -0.0640  0.2589
38712SOL    HW123186   3.984   9.802   4.458  2.4341 -0.1243 -0.6017
38712SOL    HW223187   4.019   9.756   4.318 -1.3184 -0.5668 -1.5066
38713SOL     OW23188  10.847   7.829   1.282  0.4228 -0.1744 -0.0022
38713SOL    HW123189  10.913   7.760   1.272  0.3322 -0.0830 -1.5109
38713SOL    HW223190  10.851   7.853   1.374  0.0072 -2.6519  0.7323
38714SOL     OW23191   9.353   4.366   2.522 -0.2322  0.2427 -0.0476
38714SOL    HW123192   9.411   4.340   2.451 -0.2118  0.3753 -0.0802
38714SOL    HW223193   9.282   4.413   2.479 -1.9965 -2.5260 -0.3585
38715SOL     OW23194  12.052   2.910   9.569  0.0815 -0.3192 -0.4823
38715SOL    HW123195  11.962   2.878   9.570  0.1438 -0.5909 -1.8045
38715SOL    HW223196  12.044   3.000   9.536  0.4479 -1.0311 -2.6850
38716SOL     OW23197   1.516   2.162   7.674  0.6019  0.3256  0.1981
38716SOL    HW123198   1.427   2.126   7.666  0.9527 -0.6298  0.4342
38716SOL    HW223199   1.552   2.119   7.751  1.3484  0.5386 -0.0248
38717SOL     OW23200  11.580   2.563   1.228 -0.3733  0.3563 -0.3521
38717SOL    HW123201  11.671   2.563   1.256 -0.4217  1.4645 -0.1739
38717SOL    HW223202  11.534   2.511   1.295 -0.4738  2.8552  1.6705
38718SOL     OW23203   4.134  11.440   7.660  0.3717 -0.0524  0.2331
38718SOL    HW123204   4.177  11.509   7.710  0.7500 -0.8482  1.0392
38718SOL    HW223205   4.041  11.451   7.679  0.4692 -0.0363  0.7170
38719SOL     OW23206   2.111   8.282   4.147 -0.1445  0.6664  0.3164
38719SOL    HW123207   2.063   8.364   4.149  0.0570  0.7807  1.0589
38719SOL    HW223208   2.144   8.272   4.237 -0.1459 -0.2074  0.2290
38720SOL     OW23209   5.900   6.819   2.870 -0.5082  0.4253 -0.0456
38720SOL    HW123210   5.900   6.817   2.774  0.9358  0.4264 -0.0604
38720SOL    HW223211   5.948   6.740   2.896 -1.7972 -0.1374  0.7158
38721SOL     OW23212   7.770  11.111  10.879 -0.8237 -0.2481 -0.4737
38721SOL    HW123213   7.769  11.206  10.880 -0.0944 -0.2373 -0.1846
38721SOL    HW223214   7.679  11.086  10.862 -1.0617  0.4942 -0.3132
38722SOL     OW23215   8.730   6.377   1.853  0.0765  0.4760 -0.1051
38722SOL    HW123216   8.741   6.467   1.882  1.0508 -0.2802  2.0504
38722SOL    HW223217   8.805   6.360   1.796  0.1168  0.8865 -0.1756
38723SOL     OW23218   7.278   2.085   9.874  0.0043 -0.2464 -0.0035
38723SOL    HW123219   7.342   2.070   9.944 -0.0061  0.3263  0.1347
38723SOL    HW223220   7.319   2.047   9.796  0.0581 -0.8047  0.2870
38724SOL     OW23221   6.578   0.052   2.111  0.3629 -0.1474  0.4017
38724SOL    HW123222   6.635   0.121   2.077 -2.2890  1.3055 -1.4116
38724SOL    HW223223   6.550   0.083   2.197 -1.5852  1.6721 -0.7923
38725SOL     OW23224   1.576   4.048   3.973 -0.1902 -0.0884 -0.2275
38725SOL    HW123225   1.624   4.063   4.054 -1.2894  0.2582  0.3744
38725SOL    HW223226   1.539   3.960   3.982 -0.2028 -0.1030 -0.4073
38726SOL     OW23227   1.679   3.827   4.244  0.4718 -0.7333 -0.5368
38726SOL    HW123228   1.762   3.872   4.261  0.3244 -0.4833 -0.4754
38726SOL    HW223229   1.686   3.744   4.291 -1.3058  1.3082  3.8929
38727SOL     OW23230   4.605   2.141   1.312  0.4792  0.3923  0.0534
38727SOL    HW123231   4.516   2.105   1.315  0.7882 -0.3110  0.8373
38727SOL    HW223232   4.662   2.065   1.321  1.1646  0.8685 -0.2425
38728SOL     OW23233   1.212   8.396   9.170 -0.2910  0.3679  0.1484
38728SOL    HW123234   1.118   8.412   9.164 -0.1847  0.5651 -1.8591
38728SOL    HW223235   1.250   8.483   9.185 -0.4258  0.2203  1.4851
38729SOL     OW23236  11.553   8.201  10.146  0.3691  0.1227  0.4967
38729SOL    HW123237  11.633   8.165  10.184  0.5832 -1.8155 -1.5612
38729SOL    HW223238  11.581   8.235  10.060 -1.0242 -0.8347 -0.3689
38730SOL     OW23239   1.110   5.174   4.054 -0.3838 -0.7508  0.0299
38730SOL    HW123240   1.201   5.175   4.025 -0.2505 -1.5646  0.3735
38730SOL    HW223241   1.059   5.197   3.977  0.0813 -0.8873 -0.3204
38731SOL     OW23242   5.725   3.992  11.602  0.0989 -0.7666 -0.3079
38731SOL    HW123243   5.644   4.028  11.637  1.0679 -0.2870  1.5678
38731SOL    HW223244   5.787   3.997  11.675  1.7958 -1.1959 -1.6590
38732SOL     OW23245   9.398   3.650  11.626  0.7781  0.3376 -0.1559
38732SOL    HW123246   9.397   3.556  11.642 -1.4342  0.3614  0.1023
38732SOL    HW223247   9.420   3.658  11.533 -1.1930 -0.5931 -0.7637
38733SOL     OW23248   7.403   2.434  10.738 -0.0134  0.0391  0.7451
38733SOL    HW123249   7.488   2.397  10.762 -0.6731 -0.6501  2.1550
38733SOL    HW223250   7.355   2.436  10.821 -2.0333 -1.3328 -0.3248
38734SOL     OW23251   1.419  12.383   3.435 -0.5047 -0.4935  0.1531
38734SOL    HW123252   1.359  12.311   3.456  0.9610 -0.8637  3.8091
38734SOL    HW223253   1.479  12.347   3.370 -1.3680 -1.6709 -0.0192
38735SOL     OW23254   4.297   3.503   5.496 -0.6978 -0.1300  0.2842
38735SOL    HW123255   4.259   3.417   5.514  1.4980 -0.8127  2.2226
38735SOL    HW223256   4.338   3.493   5.409 -1.3738 -0.6734  0.0175
38736SOL     OW23257  12.212   0.556  12.266 -0.7504  0.6008  0.2553
38736SOL    HW123258  12.158   0.629  12.236 -1.7144  0.6746  2.0164
38736SOL    HW223259  12.297   0.596  12.285 -0.0831  0.5282 -2.3008
38737SOL     OW23260   8.089  11.411   4.366 -0.0672 -0.0569  0.1581
38737SOL    HW123261   8.015  11.407   4.426  0.0563 -2.1161  0.2467
38737SOL    HW223262   8.149  11.473   4.406 -2.4667  3.2895 -0.8901
38738SOL     OW23263   1.264   8.085   0.504  0.8080 -0.5235 -0.4201
38738SOL    HW123264   1.250   8.071   0.411  1.0773 -2.1057 -0.2496
38738SOL    HW223265   1.311   8.007   0.534 -2.3633 -1.8089  1.7405
38739SOL     OW23266   2.655   6.293   0.130 -0.4678 -0.2101 -0.3720
38739SOL    HW123267   2.590   6.354   0.094 -1.5153 -1.1657 -0.1481
38739SOL    HW223268   2.639   6.211   0.085 -0.6053 -0.9477  0.9658
38740SOL     OW23269   9.589  12.221   8.937  0.0109 -0.4829  0.0059
38740SOL    HW123270   9.517  12.220   8.999 -1.7754  0.3014 -1.9327
38740SOL    HW223271   9.556  12.176   8.859  0.6292  2.0286 -1.8691
38741SOL     OW23272  12.246   0.616   8.041  0.2310  0.2514 -0.1295
38741SOL    HW123273  12.218   0.700   8.078 -1.0158  0.0736 -0.6333
38741SOL    HW223274  12.193   0.551   8.088  0.0497 -0.1243 -0.8421
38742SOL     OW23275   9.444   6.262   8.421 -0.1329 -0.1739 -0.1119
38742SOL    HW123276   9.523   6.313   8.440 -0.4299 -0.0090  0.6969
38742SOL    HW223277   9.410   6.236   8.506 -1.2176  0.1554 -0.4239
38743SOL     OW23278   0.303   8.228   6.102 -0.4148 -0.2577  0.2209
38743SOL    HW123279   0.343   8.150   6.140 -2.7625 -1.0266  1.2856
38743SOL    HW223280   0.248   8.264   6.172 -0.0762  1.8566 -0.5346
38744SOL     OW23281   4.837   8.032   0.193 -0.2628 -0.3716 -0.2094
38744SOL    HW123282   4.829   7.959   0.132  0.4526 -0.4099 -0.2584
38744SOL    HW223283   4.747   8.049   0.221 -0.7018  0.1665 -1.8618
38745SOL     OW23284   0.613   2.865   7.488 -0.6596  0.1078 -0.3947
38745SOL    HW123285   0.606   2.910   7.404 -0.0391  1.2691  0.1542
38745SOL    HW223286   0.696   2.896   7.525 -0.6027 -0.9024  0.3508
38746SOL     OW23287  10.492   1.002   9.818  0.2149  0.2392 -0.3374
38746SOL    HW123288  10.586   0.985   9.807 -0.0373 -0.3062 -1.8687
38746SOL    HW223289  10.482   1.095   9.799  0.3947  0.2047 -0.6203
38747SOL     OW23290   9.535  11.580   6.538  0.3132 -0.4278 -0.0882
38747SOL    HW123291   9.452  11.623   6.556 -1.5872 -3.5725 -0.5642
38747SOL    HW223292   9.550  11.523   6.613  1.6600 -0.4656 -0.3572
38748SOL     OW23293   2.176   9.679   2.935 -0.2527 -0.3992 -0.2231
38748SOL    HW123294   2.128   9.645   2.859 -2.6945  0.2813  0.9046
38748SOL    HW223295   2.136   9.635   3.010 -0.6453  1.7910  0.9317
38749SOL     OW23296   7.687   6.363   8.535  0.0716  0.1058 -0.2829
38749SOL    HW123297   7.722   6.282   8.499  1.1109  0.3903  0.0572
38749SOL    HW223298   7.753   6.430   8.513 -0.9701  0.9579 -0.9511
38750SOL     OW23299   2.744   3.419   3.562  0.2845  0.3325  0.0497
38750SOL    HW123300   2.831   3.379   3.565 -0.2565 -1.0611 -1.5293
38750SOL    HW223301   2.727   3.432   3.469 -0.4890  2.2640  0.4295
38751SOL     OW23302   8.594   9.132   4.704 -0.4362 -0.2469 -0.2255
38751SOL    HW123303   8.583   9.139   4.799  2.1742  0.3898  0.1089
38751SOL    HW223304   8.582   9.039   4.686 -0.5937 -0.4419  0.7871
38752SOL     OW23305   0.653   3.859  12.049  0.1447 -0.2111  0.4561
38752SOL    HW123306   0.672   3.776  12.004 -1.6983 -1.2065  1.3811
38752SOL    HW223307   0.676   3.841  12.141 -0.1139  0.3695  0.6373
38753SOL     OW23308   0.143  11.104  12.480  0.2606  0.1862 -0.2737
38753SOL    HW123309   0.183  11.027  12.520 -0.2544 -0.4320 -0.9386
38753SOL    HW223310   0.052  11.079  12.463  0.0378  0.9972 -0.3416
38754SOL     OW23311   9.966  11.869   1.316 -0.0197 -0.2385  0.4475
38754SOL    HW123312  10.056  11.895   1.334 -0.2173  0.6928  0.1308
38754SOL    HW223313   9.975  11.794   1.256  0.5439  1.0321 -1.1311
38755SOL     OW23314   5.106  12.286   7.390  0.2591 -0.2579 -0.3126
38755SOL    HW123315   5.121  12.379   7.374  0.0949 -0.1917 -0.0809
38755SOL    HW223316   5.155  12.268   7.470 -1.7458  0.2148  1.0981
38756SOL     OW23317   0.710   0.685  10.780 -0.8971  0.0731 -0.7195
38756SOL    HW123318   0.670   0.703  10.695 -1.5354 -0.5108 -0.5484
38756SOL    HW223319   0.704   0.590  10.790  0.5201 -0.0281 -0.6722
38757SOL     OW23320   1.308   9.844   9.473  0.0186 -0.0430  0.0644
38757SOL    HW123321   1.300   9.865   9.380  0.8082 -1.5219 -0.3743
38757SOL    HW223322   1.368   9.910   9.508 -0.2138  0.4650 -0.4923
38758SOL     OW23323  11.483  10.210   1.859 -0.1354 -0.4363 -0.5049
38758SOL    HW123324  11.538  10.263   1.917  0.1352 -1.3538  0.0894
38758SOL    HW223325  11.402  10.196   1.909  0.9591 -3.1641  0.6842
38759SOL     OW23326   3.311   8.999   1.523  0.3422  0.0702  0.3092
38759SOL    HW123327   3.391   8.993   1.575  1.3853 -0.0058 -1.2326
38759SOL    HW223328   3.332   9.065   1.456 -0.6761 -0.3819 -0.4715
38760SOL     OW23329   6.176   0.479   1.219  0.1122 -0.3290 -0.3211
38760SOL    HW123330   6.206   0.459   1.130 -0.1332 -0.9878 -0.2620
38760SOL    HW223331   6.232   0.551   1.248 -1.7229  1.9854 -2.1164
38761SOL     OW23332   2.195  11.321   2.723 -0.3465  0.3333  0.5067
38761SOL    HW123333   2.137  11.260   2.769 -0.2453 -2.1352 -2.3182
38761SOL    HW223334   2.282  11.282   2.730 -0.1501  0.5055 -0.7099
38762SOL     OW23335   7.760   1.391  10.327 -0.0333 -0.3848  0.2343
38762SOL    HW123336   7.738   1.330  10.397  0.4053 -0.3901  0.3741
38762SOL    HW223337   7.844   1.429  10.355 -1.5348  2.2750  1.5140
38763SOL     OW23338  10.546   4.937   2.783  0.3188 -0.4857  0.6694
38763SOL    HW123339  10.481   4.968   2.719 -1.7964 -2.0865  1.9339
38763SOL    HW223340  10.566   5.015   2.836 -1.0543 -0.0944  0.6469
38764SOL     OW23341  10.049   5.931   4.879 -0.1391 -0.4400  0.1279
38764SOL    HW123342  10.053   6.025   4.861 -0.1213 -0.6201 -0.8603
38764SOL    HW223343  10.070   5.923   4.972 -2.2433  0.7033  0.7485
38765SOL     OW23344   4.792  11.104   9.477  0.6209  0.2759  0.2518
38765SOL    HW123345   4.746  11.183   9.451 -0.3343 -0.4335 -0.2774
38765SOL    HW223346   4.723  11.038   9.486  1.4955 -0.7377 -0.2613
38766SOL     OW23347   2.777   4.430   3.028 -0.4772  0.4856 -0.0875
38766SOL    HW123348   2.790   4.351   3.081 -2.4949 -0.3713 -0.7476
38766SOL    HW223349   2.851   4.431   2.968 -0.6494 -1.1958 -0.3785
38767SOL     OW23350   9.191   5.794   7.499 -0.2015  0.0283 -0.6740
38767SOL    HW123351   9.161   5.716   7.547  0.3297 -0.7725 -1.6049
38767SOL    HW223352   9.170   5.867   7.557  1.8008 -0.9932  1.5518
38768SOL     OW23353   3.587   3.094   5.936 -0.7192  0.5757 -0.0412
38768SOL    HW123354   3.671   3.067   5.899 -1.1544 -0.7121 -0.1413
38768SOL    HW223355   3.588   3.189   5.931  0.7479  0.5872 -0.0019
38769SOL     OW23356   5.344   0.249   4.837  0.5039  0.4624 -0.3263
38769SOL    HW123357   5.338   0.327   4.892 -0.4133  0.0963  0.1119
38769SOL    HW223358   5.405   0.273   4.768 -0.9022  2.0962 -1.0803
38770SOL     OW23359   3.969   7.019   4.087  0.6937 -0.2417  0.7344
38770SOL    HW123360   4.053   7.021   4.133  1.2028 -0.9141 -0.1331
38770SOL    HW223361   3.977   7.085   4.019  0.5417 -0.3604  0.6009
38771SOL     OW23362   0.768   0.117   8.812  0.3628 -0.5985 -0.0309
38771SOL    HW123363   0.810   0.203   8.813 -1.2151  0.2419 -1.2475
38771SOL    HW223364   0.830   0.061   8.765  0.1480  0.6206 -1.8745
38772SOL     OW23365   2.334  12.249   8.353  0.0159  0.0152  0.4841
38772SOL    HW123366   2.368  12.248   8.443  2.4135 -0.4657 -0.3544
38772SOL    HW223367   2.255  12.196   8.357  0.2606 -0.2948  2.2418
38773SOL     OW23368   2.233  12.024   2.323 -0.2953 -0.1701  0.2749
38773SOL    HW123369   2.294  12.002   2.394  1.2440  1.7492 -0.3922
38773SOL    HW223370   2.189  12.103   2.353  2.3211  2.2958 -1.9060
38774SOL     OW23371   7.714  12.001  11.674  0.3985  0.2073  0.5249
38774SOL    HW123372   7.719  11.931  11.739  1.7848 -0.1169  0.0909
38774SOL    HW223373   7.792  11.990  11.620  0.3411  1.7270  0.0779
38775SOL     OW23374   3.249  11.638   1.648  0.4247  0.3370  0.1909
38775SOL    HW123375   3.217  11.709   1.593  0.0181  0.8347  1.0459
38775SOL    HW223376   3.173  11.583   1.663  1.5122 -2.6745 -3.8307
38776SOL     OW23377   4.261   4.658   3.563  0.0447  0.0217  0.0149
38776SOL    HW123378   4.177   4.644   3.520 -0.0452 -0.1552  0.2457
38776SOL    HW223379   4.324   4.666   3.491 -0.5105  2.6267 -0.2627
38777SOL     OW23380   8.004   2.125  11.829  0.5961  1.0051  0.1197
38777SOL    HW123381   7.940   2.197  11.829  0.5455  0.9692 -1.1033
38777SOL    HW223382   7.951   2.047  11.847  0.3841  1.0532 -0.2877
38778SOL     OW23383   0.873   0.636   8.684  0.0217  0.1130  0.4787
38778SOL    HW123384   0.864   0.650   8.590  0.5085 -0.0539  0.4049
38778SOL    HW223385   0.783   0.638   8.717 -0.3840 -2.0777 -0.3232
38779SOL     OW23386   2.297   6.165   7.291 -0.2206  0.5226  0.0086
38779SOL    HW123387   2.286   6.248   7.338 -0.2099  0.0256  0.9068
38779SOL    HW223388   2.391   6.157   7.277 -0.3815  2.0038 -2.6032
38780SOL     OW23389  10.499  10.577   2.936  0.0352 -0.9995 -0.1108
38780SOL    HW123390  10.445  10.503   2.907  0.1783 -0.7916 -0.9362
38780SOL    HW223391  10.571  10.536   2.985 -1.8683 -1.1793  2.7537
38781SOL     OW23392   0.695   5.988   8.692 -0.0757  0.1886  0.0789
38781SOL    HW123393   0.617   5.975   8.638 -0.4828  0.4933  0.5932
38781SOL    HW223394   0.708   6.082   8.693  1.2761  0.0626 -1.3685
38782SOL     OW23395   3.114   7.453   3.814 -0.8301  0.3368 -0.5065
38782SOL    HW123396   3.195   7.404   3.826  0.0223  1.4047 -1.6214
38782SOL    HW223397   3.118   7.483   3.723 -1.9187  1.4018 -0.2292
38783SOL     OW23398   1.415  11.233   1.971  0.7490  0.0190  0.4035
38783SOL    HW123399   1.426  11.168   1.902  1.6955 -0.7478  1.2426
38783SOL    HW223400   1.497  11.232   2.019  0.4985  1.2914  0.9214
38784SOL     OW23401   9.710   2.581   2.924 -0.5757 -0.4133 -0.0533
38784SOL    HW123402   9.790   2.591   2.975 -0.3548 -2.0928 -0.0338
38784SOL    HW223403   9.739   2.579   2.833 -0.6223 -0.7882 -0.0596
38785SOL     OW23404   1.928  11.255   4.385 -0.1610 -0.4588  0.1592
38785SOL    HW123405   2.023  11.257   4.401 -0.3047 -0.6459  1.0644
38785SOL    HW223406   1.916  11.310   4.308  0.6027  0.1854  0.4846
38786SOL     OW23407  11.358   9.194   8.435  0.7246 -0.5379  0.2689
38786SOL    HW123408  11.341   9.100   8.423  0.0094 -0.4899  0.8375
38786SOL    HW223409  11.452   9.203   8.424  1.0194 -1.5639  1.6204
38787SOL     OW23410   0.421   8.627   0.954  0.5234  0.2106  0.1428
38787SOL    HW123411   0.508   8.589   0.940  0.9893  1.7709 -1.5516
38787SOL    HW223412   0.436   8.699   1.016  0.5199  0.6950 -0.4101
38788SOL     OW23413   4.341   9.790   4.127  0.0876  0.0119 -0.4319
38788SOL    HW123414   4.337   9.885   4.121  0.0802 -0.0761 -2.2062
38788SOL    HW223415   4.416   9.765   4.073 -1.1140 -1.0979 -1.6736
38789SOL     OW23416   6.574   2.781  11.086 -0.0845  0.0819  0.4842
38789SOL    HW123417   6.632   2.710  11.059 -0.0722 -0.0990  0.9765
38789SOL    HW223418   6.631   2.842  11.133  0.6015  2.0567 -2.6025
38790SOL     OW23419   9.564   9.073  11.788 -0.1936 -0.0785  0.5275
38790SOL    HW123420   9.608   9.116  11.714 -1.2663 -0.1970 -0.1931
38790SOL    HW223421   9.612   9.103  11.865  0.7323  0.3140 -0.1851
38791SOL     OW23422   3.894   0.209   6.358  0.0547  0.1030  0.1906
38791SOL    HW123423   3.835   0.144   6.396 -0.6901  0.9819  0.5610
38791SOL    HW223424   3.971   0.208   6.415 -0.6856  0.7856  1.2239
38792SOL     OW23425   5.077   6.528   1.063 -0.1887 -0.3621  0.3816
38792SOL    HW123426   5.150   6.589   1.074 -1.9073  1.4588  2.9608
38792SOL    HW223427   5.107   6.448   1.108  1.5856 -1.0927 -1.9118
38793SOL     OW23428  12.194   9.255  11.649 -0.0629  0.5445  0.0099
38793SOL    HW123429  12.277   9.283  11.688  0.4805 -0.4911 -0.3756
38793SOL    HW223430  12.203   9.161  11.637 -0.9473  0.5552 -0.8928
38794SOL     OW23431  11.495   9.385   7.277  0.0228  0.2499  0.6436
38794SOL    HW123432  11.578   9.424   7.250  0.4893 -0.9048  0.3746
38794SOL    HW223433  11.514   9.340   7.359 -0.7720  1.4542  1.5356
38795SOL     OW23434   8.292  10.064   6.832  0.0939  0.3781  0.6125
38795SOL    HW123435   8.350  10.126   6.789 -0.1869  0.2796  0.0840
38795SOL    HW223436   8.221  10.117   6.869 -0.5345  0.3129 -0.4678
38796SOL     OW23437   7.076   1.077   0.676 -0.4485 -0.3027 -0.2469
38796SOL    HW123438   7.140   1.007   0.688  0.2715  0.2215 -0.9922
38796SOL    HW223439   7.069   1.118   0.763 -1.3885 -1.7023  0.3799
38797SOL     OW23440   5.241  10.283   9.994 -0.2993  0.4216  0.2110
38797SOL    HW123441   5.164  10.246   9.949  1.9108 -1.7812 -2.1170
38797SOL    HW223442   5.259  10.364   9.947 -0.8509  0.6602  0.3996
38798SOL     OW23443   6.659  11.041  12.145  0.2978  0.1662 -0.3080
38798SOL    HW123444   6.655  10.958  12.097 -0.7295  0.0321 -0.0225
38798SOL    HW223445   6.731  11.029  12.207 -1.2086 -1.3908  1.2589
38799SOL     OW23446  10.658   5.696   9.930  0.4974  0.4251  0.1888
38799SOL    HW123447  10.730   5.718   9.989  1.8301 -0.7153 -0.9305
38799SOL    HW223448  10.593   5.764   9.945  1.8991  1.6352  1.0806
38800SOL     OW23449   2.677   3.249  11.566 -0.5680 -1.3922 -1.0859
38800SOL    HW123450   2.698   3.175  11.623  0.4008 -0.5821 -0.3582
38800SOL    HW223451   2.725   3.323  11.604 -2.1504 -0.1973 -1.2983
38801SOL     OW23452   1.024   5.819  11.984  0.1203  0.4110 -0.4618
38801SOL    HW123453   0.929   5.813  11.981  0.1328  0.1832 -0.3853
38801SOL    HW223454   1.052   5.801  11.895  0.0746  0.7678 -0.5483
38802SOL     OW23455   8.908   1.563   0.128 -0.3377  0.0579  0.0634
38802SOL    HW123456   8.969   1.553   0.201  1.2176 -0.4078 -1.2336
38802SOL    HW223457   8.878   1.653   0.133  0.7791  0.4156  0.5067
38803SOL     OW23458   9.057   8.971   9.614  0.1424 -0.4406  0.3148
38803SOL    HW123459   9.062   8.876   9.625 -0.3054 -0.4253  0.6634
38803SOL    HW223460   8.995   8.984   9.543 -1.1845 -0.3551  1.4611
38804SOL     OW23461   5.424  12.560   0.904 -0.2357  0.0014 -0.0519
38804SOL    HW123462   5.503  12.611   0.923  1.7123 -2.1022 -1.9229
38804SOL    HW223463   5.365  12.623   0.863  1.3518  1.1951 -0.6346
38805SOL     OW23464   6.279  11.200   2.625  0.3907 -0.0787  0.0483
38805SOL    HW123465   6.318  11.234   2.705 -0.7168  0.8044  0.2411
38805SOL    HW223466   6.232  11.274   2.588  0.1091 -0.7253 -0.9372
38806SOL     OW23467   0.911   0.476   9.806 -0.0995 -0.7695 -0.4607
38806SOL    HW123468   0.881   0.558   9.845  1.6646 -0.3042 -0.0216
38806SOL    HW223469   0.835   0.418   9.811 -0.5937  0.0005  1.6023
38807SOL     OW23470  11.534   2.501  11.155 -0.0104  0.5109 -0.0709
38807SOL    HW123471  11.564   2.480  11.243 -1.7566 -2.2357 -0.0235
38807SOL    HW223472  11.596   2.458  11.097  1.0850  2.2423 -0.2747
38808SOL     OW23473   1.106  10.110  12.470 -0.0040  0.1003  0.2148
38808SOL    HW123474   1.021  10.102  12.426 -0.0261  0.2143  0.2360
38808SOL    HW223475   1.140  10.195  12.441 -0.9796  1.1874  2.0834
38809SOL     OW23476  10.833   7.664   3.254  0.2758  0.4932  0.0407
38809SOL    HW123477  10.909   7.682   3.197  0.1318 -0.5613 -0.5156
38809SOL    HW223478  10.758   7.674   3.196  0.1239 -0.5306  0.0344
38810SOL     OW23479   9.722  11.822   0.418  0.4756  0.3036  0.0767
38810SOL    HW123480   9.752  11.908   0.391 -1.4148  0.6220 -1.1974
38810SOL    HW223481   9.633  11.816   0.384  0.5144 -2.1079  0.2314
38811SOL     OW23482   4.463   1.803   7.248  0.5726  0.1229 -0.5463
38811SOL    HW123483   4.426   1.879   7.293 -0.3966 -1.1821  0.9565
38811SOL    HW223484   4.471   1.831   7.157 -2.1258  1.2559 -0.5452
38812SOL     OW23485   4.733   9.382   2.760 -0.0748  0.0743 -0.3133
38812SOL    HW123486   4.750   9.351   2.672 -0.0398  2.6489 -1.2920
38812SOL    HW223487   4.679   9.461   2.748 -1.8676 -0.6495  2.0687
38813SOL     OW23488   2.906  11.886   5.399  0.8513  0.6272 -0.4619
38813SOL    HW123489   2.917  11.881   5.494 -0.2938 -1.1304 -0.3786
38813SOL    HW223490   2.895  11.979   5.381 -2.3712  0.8324  1.6223
38814SOL     OW23491  11.971   6.082   6.437  0.1552  0.4424  0.2550
38814SOL    HW123492  11.973   5.989   6.416  1.2225  0.9051 -1.9889
38814SOL    HW223493  11.938   6.124   6.357 -3.0524  1.8349  2.1212
38815SOL     OW23494  10.232   3.523  10.000  0.0848 -0.2662  0.1824
38815SOL    HW123495  10.249   3.585  10.071  0.1499  1.4088 -1.2455
38815SOL    HW223496  10.137   3.517   9.996  0.0881 -1.1889  1.0679
38816SOL     OW23497  11.219   2.014   2.806  0.0789 -1.0785  0.2938
38816SOL    HW123498  11.293   1.982   2.859  1.5966 -0.1887 -1.1931
38816SOL    HW223499  11.260   2.058   2.732 -1.9490  0.9093  0.2486
38817SOL     OW23500   7.489   3.015  12.511  0.2262 -0.5630  0.0496
38817SOL    HW123501   7.409   3.052  12.475  1.2416  1.6812 -0.0955
38817SOL    HW223502   7.466   2.987  12.599 -1.3377 -2.5466 -0.8933
38818SOL     OW23503   3.837   8.165   1.598  0.0494  0.0971 -0.2840
38818SOL    HW123504   3.775   8.093   1.597 -2.2984  1.7324  3.6287
38818SOL    HW223505   3.908   8.135   1.655  0.1423  0.1052 -0.3959
38819SOL     OW23506  12.225   3.797   7.128 -0.1004 -0.5710  0.0151
38819SOL    HW123507  12.164   3.726   7.110  0.5455 -0.7019 -1.7763
38819SOL    HW223508  12.244   3.835   7.043  0.8753  0.6829  0.7551
38820SOL     OW23509  10.443   6.563   5.376 -0.1512  0.2644 -0.1931
38820SOL    HW123510  10.450   6.610   5.293 -3.0206 -0.7226 -1.1299
38820SOL    HW223511  10.389   6.620   5.431 -0.9335 -0.4491 -0.1919
38821SOL     OW23512   0.780   1.145   6.830 -0.2284  0.8140 -0.6075
38821SOL    HW123513   0.739   1.083   6.771 -2.2864  1.0706  0.4693
38821SOL    HW223514   0.874   1.133   6.816 -0.5178 -2.4757 -0.5164
38822SOL     OW23515   2.525   9.330  11.095 -0.1599  0.1553  0.4913
38822SOL    HW123516   2.532   9.347  11.189  0.8007  1.5185  0.2118
38822SOL    HW223517   2.454   9.387  11.066 -1.7300 -1.6203  0.6443
38823SOL     OW23518   2.347   2.243   0.733 -0.2261 -0.0182  0.0910
38823SOL    HW123519   2.308   2.215   0.650  0.2782  0.6933 -0.3982
38823SOL    HW223520   2.441   2.238   0.718 -0.1286  0.9623  0.3231
38824SOL     OW23521   9.467  10.539   5.315 -0.3786  0.4755  0.3206
38824SOL    HW123522   9.523  10.520   5.390 -1.1603 -0.9028  0.5915
38824SOL    HW223523   9.453  10.454   5.273 -2.6293  0.6728  0.5470
38825SOL     OW23524   7.655   8.786   2.874 -0.3205  0.1463  0.8432
38825SOL    HW123525   7.722   8.721   2.855  0.4943  0.8544  1.2215
38825SOL    HW223526   7.572   8.744   2.849  0.2510 -0.7666  0.4517
38826SOL     OW23527  10.754  10.186   1.464 -0.6934  0.2269 -0.4665
38826SOL    HW123528  10.695  10.111   1.473 -1.1319  0.6501  0.2674
38826SOL    HW223529  10.821  10.171   1.531 -0.7397  0.4530 -0.3690
38827SOL     OW23530   8.765   8.336  12.027 -0.2846  0.1034 -0.4398
38827SOL    HW123531   8.845   8.357  11.977 -0.3459 -0.4019 -0.7615
38827SOL    HW223532   8.747   8.244  12.005 -0.1010 -0.2524  0.8093
38828SOL     OW23533   2.617   4.496   0.899 -0.4324 -0.0576 -0.9313
38828SOL    HW123534   2.528   4.522   0.874 -0.6887  0.4219  0.3713
38828SOL    HW223535   2.641   4.558   0.968  0.4850 -0.8918 -0.4816
38829SOL     OW23536   7.294   7.093   7.490 -0.1436  0.2677 -0.3368
38829SOL    HW123537   7.366   7.153   7.470 -0.5460  1.1367  0.7191
38829SOL    HW223538   7.315   7.013   7.443  1.9257  0.2346  0.5619
38830SOL     OW23539   7.675   5.533   0.741  0.3861  0.0925  0.0751
38830SOL    HW123540   7.628   5.451   0.754  0.2288  0.0658 -0.6214
38830SOL    HW223541   7.613   5.601   0.766 -0.4489  0.1120 -1.8996
38831SOL     OW23542   2.508   0.226   9.653 -0.1896  0.0677  0.3103
38831SOL    HW123543   2.493   0.308   9.701  0.4730  0.1201  0.4356
38831SOL    HW223544   2.547   0.167   9.717 -0.5098 -0.2990  0.1743
38832SOL     OW23545   4.378   4.819  11.122 -0.5013 -0.7514 -0.0002
38832SOL    HW123546   4.367   4.785  11.034 -1.5484 -0.9905  0.2098
38832SOL    HW223547   4.355   4.911  11.116  1.1641 -0.3196 -0.3204
38833SOL     OW23548   6.195   8.182   9.470 -0.4508 -0.2995 -0.1905
38833SOL    HW123549   6.203   8.254   9.407  2.0316  0.3177  0.7017
38833SOL    HW223550   6.134   8.215   9.536 -0.4058  0.4412 -0.5028
38834SOL     OW23551   8.476  10.804  10.094 -0.0619  0.2917 -0.3325
38834SOL    HW123552   8.425  10.830  10.170  1.2918 -1.0182  1.1024
38834SOL    HW223553   8.439  10.719  10.068  0.1881  0.2162 -0.4480
38835SOL     OW23554   9.687   9.589   2.151  0.0344 -0.5619 -0.2438
38835SOL    HW123555   9.687   9.573   2.057  1.4865 -1.0642 -0.1844
38835SOL    HW223556   9.778   9.580   2.177 -0.3150 -0.2564  1.1936
38836SOL     OW23557   3.818   2.447   8.833 -0.0187  0.3964 -0.0939
38836SOL    HW123558   3.801   2.519   8.772 -0.1575 -0.3381 -0.9433
38836SOL    HW223559   3.894   2.476   8.883  1.2669  0.2919 -1.8681
38837SOL     OW23560   1.253   3.213   9.608  0.2634 -1.2402 -0.4208
38837SOL    HW123561   1.214   3.278   9.550  0.8064  0.5805  1.1557
38837SOL    HW223562   1.333   3.254   9.641  0.5671 -2.6538  0.7357
38838SOL     OW23563   6.987   6.696   5.615  0.3514 -0.2681 -0.0550
38838SOL    HW123564   7.079   6.680   5.593  0.8405  1.5371  0.5041
38838SOL    HW223565   6.985   6.700   5.711 -0.4264 -0.9031 -0.0381
38839SOL     OW23566   6.665   2.350  11.482  0.6642  0.1891 -0.5558
38839SOL    HW123567   6.728   2.368  11.552 -0.4223 -0.3422  0.5920
38839SOL    HW223568   6.694   2.405  11.409  0.5809  2.4722  1.0300
38840SOL     OW23569  11.966  12.254   2.821 -0.0237 -0.0610 -0.2056
38840SOL    HW123570  11.938  12.263   2.912  0.7970  2.1183 -0.1221
38840SOL    HW223571  11.892  12.212   2.777 -2.0901  2.3813  0.7060
38841SOL     OW23572   9.908   2.897   6.473  0.5017  0.2271  0.4708
38841SOL    HW123573   9.971   2.849   6.526  1.6958  0.6265 -0.5419
38841SOL    HW223574   9.873   2.832   6.412  0.4177  0.1549  0.5950
38842SOL     OW23575   6.486   2.581   4.152 -0.0618  0.3727  0.6988
38842SOL    HW123576   6.530   2.621   4.077  0.6721  0.2107  1.0336
38842SOL    HW223577   6.393   2.594   4.135  0.1296  1.5900  0.4347
38843SOL     OW23578   5.895  10.109   2.866  0.3902  0.6176 -0.1551
38843SOL    HW123579   5.962  10.163   2.908  1.6541 -0.7992 -0.2585
38843SOL    HW223580   5.938  10.074   2.788 -1.1682  1.3396 -1.3716
38844SOL     OW23581   9.790   3.568   2.132 -0.0450  0.5892 -0.0143
38844SOL    HW123582   9.788   3.489   2.186 -1.1784 -1.3330 -2.6651
38844SOL    HW223583   9.726   3.627   2.173 -0.7206 -0.6824  0.8314
38845SOL     OW23584   5.439   2.807  11.550  0.2520  0.7636  0.1126
38845SOL    HW123585   5.491   2.746  11.499 -1.6836 -2.0163  1.2497
38845SOL    HW223586   5.500   2.842  11.615  1.1850 -0.9388  0.2087
38846SOL     OW23587   7.158  10.242   3.187 -0.3044  0.6928 -0.1217
38846SOL    HW123588   7.166  10.146   3.183 -2.9238  0.4357 -1.7386
38846SOL    HW223589   7.241  10.274   3.152  0.1829 -1.0304 -0.6457
38847SOL     OW23590   3.406   4.062   7.916  0.4285 -0.4671 -0.3331
38847SOL    HW123591   3.390   4.152   7.946 -0.2270 -0.6441 -0.1340
38847SOL    HW223592   3.410   4.069   7.821 -0.9776 -0.4107 -0.4149
38848SOL     OW23593   6.890   6.343   5.358 -0.1028 -0.2594 -0.3790
38848SOL    HW123594   6.927   6.406   5.297 -1.9516  1.9256  0.6111
38848SOL    HW223595   6.925   6.370   5.444  0.8240 -2.0026 -0.1651
38849SOL     OW23596   1.120   4.023   8.296  0.1042  0.0996 -0.6610
38849SOL    HW123597   1.174   3.944   8.298 -1.7899 -1.2683  2.1379
38849SOL    HW223598   1.090   4.034   8.386 -0.2439  3.7066 -1.0737
38850SOL     OW23599   0.016   8.519  11.231 -0.3463 -0.1295 -0.4690
38850SOL    HW123600   0.014   8.573  11.152 -2.5772 -0.0156 -0.4063
38850SOL    HW223601   0.075   8.564  11.290 -1.2633  1.6732 -0.8461
38851SOL     OW23602   0.970   3.156  11.268  0.9196  0.1820  0.0974
38851SOL    HW123603   1.061   3.179  11.290  0.3669  1.5323  1.0944
38851SOL    HW223604   0.959   3.188  11.179  0.7602  2.1791  0.7876
38852SOL     OW23605   3.598   4.494   3.041 -0.0085  0.0771 -0.2577
38852SOL    HW123606   3.548   4.556   2.987  0.7369  1.3292  0.4261
38852SOL    HW223607   3.594   4.411   2.993 -0.6057  0.7734 -1.4686
38853SOL     OW23608   9.929  10.803   0.713  0.1943  0.2338  0.5570
38853SOL    HW123609   9.916  10.881   0.659  2.1473  1.0036  1.1269
38853SOL    HW223610   9.855  10.803   0.774  0.6364  2.1360  1.1335
38854SOL     OW23611  12.239   5.006   0.285 -0.3699 -0.3248  0.6414
38854SOL    HW123612  12.303   4.966   0.344 -0.4777 -0.1548  0.8773
38854SOL    HW223613  12.255   4.965   0.200  0.0228 -0.3170  0.7085
38855SOL     OW23614   7.196   5.901   3.381 -0.4683 -0.1383  0.1203
38855SOL    HW123615   7.241   5.874   3.461  1.5690 -0.4090 -1.0452
38855SOL    HW223616   7.265   5.910   3.316 -1.8794  1.5229 -1.2601
38856SOL     OW23617   7.688   5.771  12.524  0.2908 -0.1009 -0.0246
38856SOL    HW123618   7.666   5.718  12.447 -0.0542  0.7548 -0.5237
38856SOL    HW223619   7.644   5.855  12.509  4.3280  2.0128 -1.3988
38857SOL     OW23620   6.529  11.764   6.553  0.6323  0.1044 -0.3413
38857SOL    HW123621   6.505  11.792   6.465 -0.6187  0.6514  0.1498
38857SOL    HW223622   6.518  11.669   6.553  0.2147  0.1537 -0.6528
38858SOL     OW23623  10.107  11.031   1.098  0.1864 -0.2378 -0.1189
38858SOL    HW123624  10.163  10.981   1.039  0.9020 -0.2275  0.5450
38858SOL    HW223625  10.111  10.985   1.181 -2.2315 -1.2696 -0.4974
38859SOL     OW23626   5.565  10.907  10.215  0.0228  0.2673 -0.1888
38859SOL    HW123627   5.483  10.954  10.204 -0.5204 -0.9088 -1.4391
38859SOL    HW223628   5.560  10.871  10.304 -0.5445  0.6923 -0.0469
38860SOL     OW23629   6.279   6.551  10.472  0.3553  0.0848  0.1806
38860SOL    HW123630   6.351   6.489  10.480  1.0443  1.0234  1.4754
38860SOL    HW223631   6.313   6.620  10.414  0.7440  0.8389  1.2823
38861SOL     OW23632   8.226   5.265   2.763  0.0534  0.2322 -0.2033
38861SOL    HW123633   8.263   5.191   2.813 -3.0122 -0.8143  0.7067
38861SOL    HW223634   8.294   5.285   2.698  1.7798 -2.1883  0.6724
38862SOL     OW23635   9.578   9.593   2.414  0.0085 -0.3788  0.3103
38862SOL    HW123636   9.485   9.575   2.403  0.1076 -0.2091 -0.8973
38862SOL    HW223637   9.618   9.572   2.329  1.0956 -0.5669  0.8382
38863SOL     OW23638   3.683   8.491  10.478 -0.0112  0.6447 -0.2003
38863SOL    HW123639   3.641   8.412  10.513  0.7298  0.4907  0.3518
38863SOL    HW223640   3.654   8.494  10.387 -1.4643  0.7099  0.2275
38864SOL     OW23641   1.214   4.763   9.726 -0.4454 -0.3979 -0.1770
38864SOL    HW123642   1.282   4.732   9.666  0.1013 -0.1191  0.2861
38864SOL    HW223643   1.186   4.685   9.773  0.3741 -0.3370  0.4368
38865SOL     OW23644   6.655   0.483   2.274 -0.2839 -0.2115  0.1278
38865SOL    HW123645   6.704   0.490   2.356 -1.6712  1.7493  0.8887
38865SOL    HW223646   6.572   0.527   2.292 -0.4829  0.6823 -2.4506
38866SOL     OW23647   0.679   7.514   1.143  0.3841  0.1927 -0.2826
38866SOL    HW123648   0.734   7.484   1.216  0.0028  0.8739  0.3076
38866SOL    HW223649   0.642   7.596   1.175 -0.7989 -0.1428 -0.7556
38867SOL     OW23650   5.914   1.513   2.705 -0.0211 -0.1065  0.3270
38867SOL    HW123651   5.875   1.570   2.640 -1.4951 -0.3327  0.9680
38867SOL    HW223652   5.966   1.450   2.654  1.0765  1.3543 -0.4176
38868SOL     OW23653  11.945   6.531   0.231  0.8381 -0.4926  0.0851
38868SOL    HW123654  12.027   6.506   0.188  0.5153 -1.4420  0.0091
38868SOL    HW223655  11.973   6.573   0.313  1.4045 -0.3401 -0.1800
38869SOL     OW23656   6.308   6.077   5.769 -0.1757  0.1215 -0.2307
38869SOL    HW123657   6.223   6.116   5.748 -0.4374 -1.1326 -1.7102
38869SOL    HW223658   6.292   6.026   5.849 -1.2277 -1.2761 -1.2933
38870SOL     OW23659   1.591   9.775   7.083  0.0583 -0.3893  0.0527
38870SOL    HW123660   1.575   9.790   7.176 -1.0125  0.9494 -0.3087
38870SOL    HW223661   1.672   9.822   7.064  0.5028 -1.0068  0.3710
38871SOL     OW23662  12.094  11.382   6.691 -0.1456  0.3989 -0.3814
38871SOL    HW123663  12.175  11.333   6.705 -1.5496 -1.7839  0.6763
38871SOL    HW223664  12.089  11.442   6.766  0.2536  0.2079 -0.1997
38872SOL     OW23665   0.353   0.541   4.578 -0.1973  0.2704 -0.1817
38872SOL    HW123666   0.421   0.565   4.641 -0.3969  1.4839 -0.4121
38872SOL    HW223667   0.375   0.589   4.498 -0.4701 -0.5265 -0.7557
38873SOL     OW23668   1.701   7.019   8.820  1.1199 -0.4721  0.1931
38873SOL    HW123669   1.632   7.051   8.762  0.2982  0.5847  1.6629
38873SOL    HW223670   1.673   6.931   8.844  1.0336 -0.5941 -0.3415
38874SOL     OW23671   8.281   0.215   8.672 -0.2703  0.3028  0.8545
38874SOL    HW123672   8.296   0.239   8.764 -0.5220 -0.0819  0.9986
38874SOL    HW223673   8.186   0.215   8.663 -0.4190 -2.5005  1.3852
38875SOL     OW23674  10.490   0.758   0.453 -0.5735  0.1851 -0.2286
38875SOL    HW123675  10.410   0.705   0.457 -1.0260  0.9198  1.4267
38875SOL    HW223676  10.466   0.841   0.494  1.0717  0.3846  0.3994
38876SOL     OW23677   3.148   6.340  12.296  0.4258 -0.1149 -0.1305
38876SOL    HW123678   3.142   6.283  12.372  1.8586  0.5719  0.5246
38876SOL    HW223679   3.064   6.328  12.251  0.2820 -1.9367  0.5238
38877SOL     OW23680   1.403   0.785   7.452  0.3313  0.1454  0.2064
38877SOL    HW123681   1.377   0.754   7.365  0.0923 -1.0830  0.6921
38877SOL    HW223682   1.329   0.762   7.508  0.9798 -0.1619  0.9512
38878SOL     OW23683   3.771  11.864   5.968 -0.1491 -0.7713 -0.5078
38878SOL    HW123684   3.715  11.845   5.893  1.2517 -0.6553 -1.6035
38878SOL    HW223685   3.778  11.960   5.969 -0.1433 -0.7736 -0.2361
38879SOL     OW23686   9.556  10.169   7.661  0.4994  0.5622  1.0879
38879SOL    HW123687   9.472  10.131   7.686  0.4966  1.1125  1.9206
38879SOL    HW223688   9.534  10.253   7.620  0.5434 -0.0455 -0.2382
38880SOL     OW23689   7.142   2.627  11.079 -0.2951 -0.0019 -0.1561
38880SOL    HW123690   7.171   2.672  11.159  0.7241 -0.5759 -0.1785
38880SOL    HW223691   7.211   2.563  11.062 -2.2866 -2.4473  0.5459
38881SOL     OW23692   2.945  12.101   0.291 -0.4931  0.7227 -0.1675
38881SOL    HW123693   2.990  12.022   0.261  1.6441  0.9477  2.1666
38881SOL    HW223694   2.852  12.080   0.284  0.0092 -1.7671 -0.1622
38882SOL     OW23695   6.454   8.505  10.388 -0.0345  0.3460 -0.5542
38882SOL    HW123696   6.486   8.505  10.298  0.7796  0.0495 -0.2754
38882SOL    HW223697   6.440   8.413  10.409 -0.2355  0.4140 -0.3864
38883SOL     OW23698   1.472  12.582   7.070  0.8678 -0.0915 -0.4400
38883SOL    HW123699   1.459  12.514   7.004 -1.3188  1.1858 -1.4244
38883SOL    HW223700   1.393  12.578   7.124  1.3755  0.7256  0.3970
38884SOL     OW23701   2.153   9.614   2.647  0.3720  0.3468 -0.0595
38884SOL    HW123702   2.079   9.674   2.656  0.2930  0.2034  0.2605
38884SOL    HW223703   2.114   9.531   2.621  0.5399  0.5948 -1.1481
38885SOL     OW23704   2.880   9.275   9.847 -0.6272  0.1297 -0.5038
38885SOL    HW123705   2.816   9.285   9.918 -0.3361  0.1685 -0.2473
38885SOL    HW223706   2.962   9.308   9.883 -0.5503  0.4505 -0.9669
38886SOL     OW23707   8.359   4.698   4.970  0.4938 -0.6203  0.0998
38886SOL    HW123708   8.387   4.608   4.951 -0.1236 -1.4425  2.5672
38886SOL    HW223709   8.320   4.692   5.058  1.0252  2.2083  0.6188
38887SOL     OW23710   8.176   3.527   4.752  0.1135 -0.2297  0.2884
38887SOL    HW123711   8.241   3.590   4.721 -1.3861  0.4098 -1.7152
38887SOL    HW223712   8.120   3.576   4.811  0.2273 -0.2579  0.4212
38888SOL     OW23713  12.256  10.798   5.984 -0.2528  0.1262  0.0292
38888SOL    HW123714  12.192  10.816   6.053 -1.9280 -0.6887 -1.2776
38888SOL    HW223715  12.312  10.876   5.984 -0.4100  0.3122  2.0463
38889SOL     OW23716   8.707   0.724  11.822 -0.7510 -0.0150 -0.3281
38889SOL    HW123717   8.614   0.705  11.808 -1.2087  0.9204  1.2256
38889SOL    HW223718   8.711   0.761  11.910  1.3751 -1.8590  0.4611
38890SOL     OW23719   8.402   2.645   7.732 -0.3392  0.6343 -0.1397
38890SOL    HW123720   8.474   2.585   7.716 -2.0105 -1.2657 -1.0646
38890SOL    HW223721   8.436   2.731   7.708  1.1885 -0.3821 -1.8483
38891SOL     OW23722   0.207   2.026   6.338  0.4528 -0.1641  0.1592
38891SOL    HW123723   0.156   2.107   6.334 -0.2834 -0.6622 -0.8458
38891SOL    HW223724   0.273   2.037   6.269 -1.1268 -1.3727 -1.6303
38892SOL     OW23725  12.587  10.399  11.951 -0.4447 -0.4240  0.2126
38892SOL    HW123726  12.677  10.369  11.957 -0.5015 -0.7769 -0.4960
38892SOL    HW223727  12.541  10.352  12.021 -0.5000 -1.9407 -0.7919
38893SOL     OW23728  11.010  11.353   5.298 -0.0049 -0.0062 -0.1258
38893SOL    HW123729  11.003  11.328   5.205 -1.0300  0.7549 -0.2651
38893SOL    HW223730  11.087  11.305   5.329  0.7100  0.1786 -1.5162
38894SOL     OW23731   4.304   8.386   7.389 -0.3967  0.6254  0.3895
38894SOL    HW123732   4.262   8.419   7.310 -0.4316  1.7657  0.8535
38894SOL    HW223733   4.251   8.311   7.415 -2.4176  2.1842  1.1241
38895SOL     OW23734   7.094   6.924  11.698 -0.1146 -0.4443 -0.5718
38895SOL    HW123735   7.010   6.953  11.664 -0.6231 -1.8445 -0.5719
38895SOL    HW223736   7.142   6.894  11.621 -0.3087 -1.2897 -0.3759
38896SOL     OW23737  11.722   6.350   3.134  0.1855  0.2300 -0.0912
38896SOL    HW123738  11.664   6.423   3.154 -0.7640 -0.3858 -0.5284
38896SOL    HW223739  11.784   6.385   3.071 -0.6051  0.5143 -0.7269
38897SOL     OW23740   2.089   3.085   0.773 -0.4894 -0.0638  0.0416
38897SOL    HW123741   2.010   3.032   0.774 -0.7183  0.2707  1.0200
38897SOL    HW223742   2.146   3.042   0.709 -0.1273 -2.2648  1.7336
38898SOL     OW23743   7.654  10.179   0.287 -0.0876 -0.4819 -0.4556
38898SOL    HW123744   7.573  10.153   0.245  1.3317 -0.8860 -3.1815
38898SOL    HW223745   7.721  10.121   0.250  1.5562  0.1456  1.3080
38899SOL     OW23746   5.133  10.247   0.586 -0.6961  0.0683  0.3723
38899SOL    HW123747   5.101  10.224   0.499  2.3757  1.2377 -1.2065
38899SOL    HW223748   5.189  10.173   0.611  3.0543  2.0535 -1.3556
38900SOL     OW23749   2.584   4.552  12.476  0.2459  0.0932 -0.0037
38900SOL    HW123750   2.542   4.621  12.527 -0.2551  0.6209 -1.0866
38900SOL    HW223751   2.676   4.555  12.503 -0.4305 -1.4537  2.8052
38901SOL     OW23752   9.554   4.412   4.123  0.1216 -0.3780 -0.5637
38901SOL    HW123753   9.532   4.461   4.203  1.5027  2.0659 -1.5689
38901SOL    HW223754   9.619   4.348   4.151  1.2049  0.9889  0.1869
38902SOL     OW23755   7.666   0.586   7.604  0.0281  0.2326 -0.3875
38902SOL    HW123756   7.750   0.578   7.558 -0.4888 -0.9288 -1.1479
38902SOL    HW223757   7.600   0.580   7.535 -0.7114  0.4641  0.2886
38903SOL     OW23758   6.359   1.069   8.893  0.1338  0.1226  0.8766
38903SOL    HW123759   6.317   1.143   8.849 -0.1061  0.0580  0.9976
38903SOL    HW223760   6.322   0.991   8.852  0.1725  0.0657  0.9483
38904SOL     OW23761   3.131  12.000  11.771 -0.0673 -0.4287  0.1533
38904SOL    HW123762   3.178  12.058  11.831  0.1145  0.6089 -0.9499
38904SOL    HW223763   3.089  11.935  11.828  0.8547 -0.0388  1.3176
38905SOL     OW23764  12.326   5.498   4.742 -0.0888  0.1220 -1.3297
38905SOL    HW123765  12.346   5.443   4.817  0.0968  1.0396 -0.6970
38905SOL    HW223766  12.336   5.440   4.666  2.7128 -0.0981 -0.8928
38906SOL     OW23767   7.708  10.055   5.117  0.6676 -0.0939  0.1632
38906SOL    HW123768   7.699  10.071   5.210  1.8321 -3.4924  1.0092
38906SOL    HW223769   7.788  10.100   5.092 -0.0297  1.4342  0.5760
38907SOL     OW23770   0.283   1.676   0.885 -0.4033 -0.2902  0.1156
38907SOL    HW123771   0.251   1.682   0.796  1.0427  1.5785 -0.3437
38907SOL    HW223772   0.374   1.650   0.876  0.2939  1.6746  0.8684
38908SOL     OW23773  12.437  10.390   3.110 -0.0029 -0.6430  0.0854
38908SOL    HW123774  12.439  10.301   3.076  1.3443 -2.4758  4.3137
38908SOL    HW223775  12.381  10.385   3.187  0.0379  2.2487  0.4287
38909SOL     OW23776   4.522   0.066   8.389  0.6350  0.1550  0.1035
38909SOL    HW123777   4.592   0.120   8.427 -0.5090  1.2696  0.6947
38909SOL    HW223778   4.506  -0.002   8.455 -0.8535  1.6671  1.3948
38910SOL     OW23779   3.176   6.301   0.967  0.6087 -0.1307 -0.1175
38910SOL    HW123780   3.263   6.301   0.927  1.2840  1.7634  1.2091
38910SOL    HW223781   3.119   6.261   0.901  1.9317  1.3980 -2.3077
38911SOL     OW23782   2.144   9.987   2.644  0.0754 -0.2190  0.4403
38911SOL    HW123783   2.061   9.943   2.629  0.8956 -1.3126 -1.0923
38911SOL    HW223784   2.198   9.922   2.690 -0.7214  1.3898  4.0588
38912SOL     OW23785  10.499   4.852   8.806  0.8254 -0.3010 -0.2885
38912SOL    HW123786  10.561   4.813   8.744 -0.3566  0.7652 -2.2373
38912SOL    HW223787  10.495   4.790   8.879  1.9222 -1.8426 -1.4852
38913SOL     OW23788   0.472   4.738   7.677 -0.3821 -0.4667  0.0245
38913SOL    HW123789   0.565   4.718   7.663 -0.5207  0.6012 -3.0946
38913SOL    HW223790   0.469   4.775   7.766  2.1773 -0.4102  0.1726
38914SOL     OW23791   9.649   1.841   1.398 -0.1012 -0.2086 -0.2383
38914SOL    HW123792   9.679   1.769   1.343  0.0805  0.4596 -1.0336
38914SOL    HW223793   9.554   1.830   1.401 -0.1654  0.0329 -1.1072
38915SOL     OW23794  12.237   6.270  10.607 -0.3732 -0.5274 -0.0463
38915SOL    HW123795  12.260   6.239  10.519  0.9048  0.0448  0.0641
38915SOL    HW223796  12.188   6.351  10.592  0.7255  0.1273 -0.2399
38916SOL     OW23797   9.206   7.414   7.342  0.0540 -0.2008  0.5289
38916SOL    HW123798   9.247   7.347   7.288 -0.2666 -0.5196  0.6808
38916SOL    HW223799   9.120   7.428   7.303  0.9242  1.7412 -0.8791
38917SOL     OW23800   3.178   8.655   8.219  0.1241  0.4394  0.3521
38917SOL    HW123801   3.100   8.675   8.167 -0.5285 -1.9234  0.3268
38917SOL    HW223802   3.233   8.733   8.209 -2.3297  2.3580  0.6518
38918SOL     OW23803   2.613   3.528   4.325 -0.3135 -0.6731 -0.1728
38918SOL    HW123804   2.654   3.507   4.409  0.9905  1.3855 -0.2433
38918SOL    HW223805   2.548   3.595   4.346 -1.2316 -1.4200 -0.5785
38919SOL     OW23806   9.704  10.531   8.154  0.1132  0.1189 -0.2603
38919SOL    HW123807   9.749  10.577   8.225  0.8766  0.5753 -1.0156
38919SOL    HW223808   9.737  10.442   8.157 -2.2862 -0.8235  1.9998
38920SOL     OW23809   8.779   6.855  12.187 -0.5407 -0.3741  0.0737
38920SOL    HW123810   8.719   6.845  12.260  0.3403 -1.3094  0.6973
38920SOL    HW223811   8.852   6.797  12.208 -0.0636 -0.3190 -1.3341
38921SOL     OW23812  10.882   8.514  11.426  0.7240 -0.1182 -0.3590
38921SOL    HW123813  10.818   8.564  11.376  1.0823  0.4130 -0.3020
38921SOL    HW223814  10.932   8.466  11.360 -0.0738 -0.9537 -0.3652
38922SOL     OW23815   5.016   6.330  12.014  0.1832 -0.0829 -0.0183
38922SOL    HW123816   5.092   6.289  11.974 -0.2903 -1.3348  0.2911
38922SOL    HW223817   5.050   6.408  12.058  1.1716 -0.2818 -0.4212
38923SOL     OW23818  11.462   2.131   9.487  0.0294  0.1691  0.3509
38923SOL    HW123819  11.430   2.198   9.428 -1.3302 -0.2558  0.5754
38923SOL    HW223820  11.547   2.164   9.517 -0.8901  2.1298  0.9904
38924SOL     OW23821  12.187   9.980   2.924 -0.7376 -0.1486  0.1077
38924SOL    HW123822  12.165   9.888   2.917 -0.3707 -0.2792  0.6006
38924SOL    HW223823  12.189  10.012   2.834  0.8151 -1.0284 -0.2108
38925SOL     OW23824  10.337  11.461  12.121  0.0063 -0.0381  0.0667
38925SOL    HW123825  10.406  11.514  12.162  0.8732 -1.5016  0.5723
38925SOL    HW223826  10.275  11.443  12.192 -0.3995  0.4515 -0.1550
38926SOL     OW23827   9.860   3.876  11.023 -0.5606  0.0006 -0.1661
38926SOL    HW123828   9.931   3.820  11.055  0.4632  2.1347  1.5798
38926SOL    HW223829   9.853   3.945  11.089 -3.7895  0.3073 -0.6820
38927SOL     OW23830   5.398   6.369   2.035 -0.2211 -0.1547  0.5166
38927SOL    HW123831   5.323   6.401   1.985 -0.4845 -0.6152  0.6120
38927SOL    HW223832   5.365   6.294   2.084  0.6589 -1.3579 -0.6373
38928SOL     OW23833   5.978   3.998   4.638 -0.0853  0.1936 -0.2877
38928SOL    HW123834   5.979   3.989   4.543 -1.0232 -0.1970 -0.2650
38928SOL    HW223835   6.066   4.031   4.659  0.3945 -0.4341 -1.2127
38929SOL     OW23836   2.204  10.564   5.750 -0.2314  0.1492 -0.3487
38929SOL    HW123837   2.156  10.611   5.819  2.1180  1.2189  0.6918
38929SOL    HW223838   2.139  10.507   5.710 -2.3072  1.3937  1.0295
38930SOL     OW23839  11.654   7.729   7.874 -0.0944  0.4035  0.0269
38930SOL    HW123840  11.593   7.691   7.937 -1.9180  2.0068 -0.6621
38930SOL    HW223841  11.604   7.734   7.793  1.3530  0.7338 -0.8744
38931SOL     OW23842   0.010   7.990   0.023 -0.0330  0.0521  0.3156
38931SOL    HW123843  -0.010   8.072   0.067 -0.3425  0.2626 -0.2075
38931SOL    HW223844  -0.036   7.996  -0.061 -0.5714 -0.9168  0.5278
38932SOL     OW23845   1.215   7.727   0.882  0.3574  0.0153 -0.3468
38932SOL    HW123846   1.134   7.706   0.835  0.7060 -0.8294 -0.5949
38932SOL    HW223847   1.264   7.645   0.882  0.4485  0.0355  1.3428
38933SOL     OW23848   5.934  12.108  10.946  0.2963  0.1247 -0.2263
38933SOL    HW123849   5.866  12.082  10.884 -1.4177  1.4748  0.9842
38933SOL    HW223850   5.963  12.026  10.985 -1.5402 -0.4411  0.0804
38934SOL     OW23851   9.930   5.862   9.936  0.3407  0.3004 -0.0303
38934SOL    HW123852   9.984   5.921   9.883  0.1501 -0.0138 -0.5749
38934SOL    HW223853   9.882   5.810   9.873  1.1782 -1.0778  0.4253
38935SOL     OW23854   8.447   3.042   0.727  0.7748 -0.2955  0.3354
38935SOL    HW123855   8.484   3.121   0.687  0.8822 -0.5845 -0.1473
38935SOL    HW223856   8.352   3.056   0.726  0.8574  0.9645  2.6446
38936SOL     OW23857  10.529  12.113   8.424 -0.3229 -0.6013  0.5899
38936SOL    HW123858  10.537  12.090   8.516  0.4427 -0.3684  0.5876
38936SOL    HW223859  10.448  12.163   8.418  0.2239  0.3922  1.3400
38937SOL     OW23860   9.773  10.295  12.123  0.5065 -0.0926 -0.0966
38937SOL    HW123861   9.815  10.209  12.130 -0.2238 -0.6666 -1.9532
38937SOL    HW223862   9.845  10.356  12.110  0.9502 -0.7213 -0.7249
38938SOL     OW23863   0.182  10.504   4.257  0.4711 -0.2234 -0.4033
38938SOL    HW123864   0.113  10.452   4.216  0.2423 -0.7991  0.6728
38938SOL    HW223865   0.182  10.476   4.349  0.6828  1.3230  0.1021
38939SOL     OW23866  11.884   7.741   9.692  0.1109 -0.3843  0.1158
38939SOL    HW123867  11.887   7.664   9.749 -0.8526 -1.1497 -0.8301
38939SOL    HW223868  11.797   7.738   9.653  0.6314  0.3229 -1.1425
38940SOL     OW23869   8.328   6.758   1.337 -0.4754 -0.0864  0.4332
38940SOL    HW123870   8.323   6.680   1.393  1.0251 -0.0909  0.6119
38940SOL    HW223871   8.261   6.817   1.372 -0.7776 -0.8006  1.0982
38941SOL     OW23872   6.338   1.812   9.983  0.0940 -0.0279 -0.4111
38941SOL    HW123873   6.258   1.801   9.932 -0.1638 -3.1974  0.4411
38941SOL    HW223874   6.314   1.872  10.053 -1.2092 -0.0108 -0.8445
38942SOL     OW23875  10.165  12.150   1.817  0.0095  0.4909  0.2879
38942SOL    HW123876  10.192  12.070   1.862  1.3910 -0.1783 -1.5971
38942SOL    HW223877  10.118  12.120   1.739  0.8371  1.4790 -0.6222
38943SOL     OW23878  11.616   9.768  11.361  0.2158 -0.2096 -0.2295
38943SOL    HW123879  11.595   9.719  11.281 -0.3208  0.5656 -0.5800
38943SOL    HW223880  11.711   9.766  11.367  0.2320 -0.6683 -0.6361
38944SOL     OW23881   8.645   1.109   6.230 -0.2021  0.2449 -0.0063
38944SOL    HW123882   8.587   1.058   6.173 -0.0202 -1.5211  1.2909
38944SOL    HW223883   8.598   1.190   6.247  0.0992  1.2685 -3.3318
38945SOL     OW23884   9.586   7.320   7.610 -0.6676 -0.1187 -0.1376
38945SOL    HW123885   9.644   7.394   7.591 -0.5050  0.1821  1.4112
38945SOL    HW223886   9.601   7.259   7.538 -0.3599  1.0754 -1.1399
38946SOL     OW23887   0.269   8.158   3.097  0.5379 -0.0816  0.3003
38946SOL    HW123888   0.319   8.083   3.066 -0.8175 -0.1077 -1.9947
38946SOL    HW223889   0.291   8.228   3.035 -1.7581  0.0715 -0.4022
38947SOL     OW23890   2.199   7.648   4.085 -0.0500 -0.1844 -0.2157
38947SOL    HW123891   2.105   7.660   4.101 -0.1247  0.3785 -1.0166
38947SOL    HW223892   2.227   7.731   4.046  0.1556 -1.3688 -2.7691
38948SOL     OW23893   1.722  10.059   6.217 -0.2700 -0.1315  0.2734
38948SOL    HW123894   1.745   9.976   6.258  0.4716 -0.2948 -0.4555
38948SOL    HW223895   1.626  10.062   6.222 -0.2827 -0.8632  0.6091
38949SOL     OW23896  11.807   8.287   9.068  0.3052  0.4133 -0.0566
38949SOL    HW123897  11.776   8.199   9.088 -1.1682  1.3337  2.0818
38949SOL    HW223898  11.826   8.326   9.154  3.4584  1.3653 -1.0562
38950SOL     OW23899   1.741   4.366   9.351  0.3728  0.0816  0.2615
38950SOL    HW123900   1.791   4.343   9.429  0.7011 -0.8573 -0.2156
38950SOL    HW223901   1.778   4.450   9.324  1.2182 -0.2565  0.3273
38951SOL     OW23902   4.222   9.069   1.818  0.0873 -0.6824  0.2264
38951SOL    HW123903   4.168   8.998   1.852 -1.8829 -0.4876 -2.1993
38951SOL    HW223904   4.309   9.032   1.809 -0.9275 -2.9253 -1.1328
38952SOL     OW23905   8.939  12.510   6.722 -0.4952 -0.5947 -0.3010
38952SOL    HW123906   8.992  12.532   6.799 -1.0961 -1.9194  0.5167
38952SOL    HW223907   8.876  12.446   6.754 -0.7675 -1.1531 -1.9060
38953SOL     OW23908   2.782   8.779   9.483  0.2143 -0.3676 -0.2418
38953SOL    HW123909   2.812   8.868   9.502 -0.5150 -0.2599  0.4760
38953SOL    HW223910   2.799   8.730   9.564  0.1711 -0.7614 -0.4666
38954SOL     OW23911   6.317   3.270   7.768  0.1555 -0.5878 -0.5872
38954SOL    HW123912   6.342   3.283   7.676  1.9711  0.4366  0.0101
38954SOL    HW223913   6.387   3.216   7.804 -0.6845 -1.2056  0.1547
38955SOL     OW23914   4.391   5.801   0.264  0.0111  0.1950 -0.4617
38955SOL    HW123915   4.413   5.823   0.355  0.7866  0.4118 -0.6971
38955SOL    HW223916   4.372   5.885   0.223  0.2368  0.1530 -0.6525
38956SOL     OW23917  11.251   9.406   0.041 -0.4018 -0.0023 -0.4961
38956SOL    HW123918  11.263   9.485   0.095 -0.7904 -0.2887  0.0133
38956SOL    HW223919  11.307   9.341   0.082  2.2981  0.7742 -2.6346
38957SOL     OW23920   4.700   8.503   3.196  0.1999  0.2273 -0.4124
38957SOL    HW123921   4.750   8.485   3.117 -0.2012 -0.0990 -0.5980
38957SOL    HW223922   4.746   8.455   3.265  0.2177  0.0345 -0.5574
38958SOL     OW23923  11.089   0.229   3.885  0.0205  0.6761  0.3460
38958SOL    HW123924  11.034   0.165   3.841  0.2948  0.0933  0.8318
38958SOL    HW223925  11.038   0.310   3.884 -1.3910 -0.1159  1.8199
38959SOL     OW23926   3.967   9.679   7.609  0.3252 -0.4803  0.1951
38959SOL    HW123927   4.036   9.645   7.666  1.1109  0.2663 -0.2740
38959SOL    HW223928   3.895   9.617   7.619  1.2453 -1.5755  0.3184
38960SOL     OW23929   0.006   3.520   7.608 -0.5233  0.1124  0.3143
38960SOL    HW123930  -0.077   3.501   7.564  0.5136  0.0337 -1.7335
38960SOL    HW223931   0.062   3.555   7.539  1.5850 -1.0985  1.3183
38961SOL     OW23932   4.218   8.064   4.945 -0.2386 -0.3477 -0.0912
38961SOL    HW123933   4.230   8.035   5.036 -1.0531  2.0159  0.8395
38961SOL    HW223934   4.124   8.085   4.939  0.1171  1.1207 -0.9380
38962SOL     OW23935   3.299  12.512   5.499  0.6505 -0.7297  0.1821
38962SOL    HW123936   3.246  12.570   5.445  2.4105 -0.0814 -0.9437
38962SOL    HW223937   3.355  12.571   5.549 -0.6431 -1.3384  2.4955
38963SOL     OW23938   0.083   0.965   5.720  0.2960  0.1327 -0.5465
38963SOL    HW123939   0.033   1.046   5.716  0.4126  0.1692 -1.3691
38963SOL    HW223940   0.078   0.928   5.632 -0.5495 -1.2516  0.0309
38964SOL     OW23941   4.003  11.278   0.579 -0.2837 -0.6624  0.3438
38964SOL    HW123942   3.967  11.342   0.640  1.4800 -1.7459  2.7120
38964SOL    HW223943   3.950  11.199   0.594 -1.2746 -0.3487 -1.2394
38965SOL     OW23944   2.701   2.794   7.242 -0.1913 -0.4693  0.5880
38965SOL    HW123945   2.638   2.735   7.201  0.4946 -1.0271  0.3169
38965SOL    HW223946   2.666   2.808   7.330  0.3137 -2.4012  1.1447
38966SOL     OW23947   5.113   5.717  12.461  0.0154 -0.3569 -0.2649
38966SOL    HW123948   5.064   5.797  12.441 -1.2336 -1.0237  0.0375
38966SOL    HW223949   5.147   5.731  12.549 -0.2902 -0.2045 -0.1701
38967SOL     OW23950   2.056   6.865   8.021 -0.1456 -0.0230 -0.4883
38967SOL    HW123951   2.063   6.912   7.938 -0.8715 -1.0366 -1.1556
38967SOL    HW223952   1.972   6.819   8.015 -0.9547  1.0805  1.4614
38968SOL     OW23953   0.637  12.592   3.820 -0.2555  0.1414 -0.0861
38968SOL    HW123954   0.670  12.583   3.731 -0.3741  0.4065 -0.1596
38968SOL    HW223955   0.690  12.663   3.858 -1.8990  1.8545 -0.7891
38969SOL     OW23956  10.141   9.089  10.528 -0.3398 -0.1970 -0.4697
38969SOL    HW123957  10.199   9.104  10.603 -0.3890  0.7751 -0.6107
38969SOL    HW223958  10.088   9.013  10.553 -1.3823  0.9915  1.1272
38970SOL     OW23959   9.878   2.882   3.414  0.0262 -0.5800 -0.0322
38970SOL    HW123960   9.835   2.810   3.367  2.1973 -1.4313 -0.8198
38970SOL    HW223961   9.969   2.854   3.423  0.9458  2.0753 -0.3120
38971SOL     OW23962  12.489  11.561   5.171 -0.5850 -0.7640 -0.7995
38971SOL    HW123963  12.396  11.542   5.185 -0.6630  1.1316  2.0795
38971SOL    HW223964  12.530  11.546   5.257  0.8062  3.1477 -0.5653
38972SOL     OW23965   1.124   4.014   9.393 -0.4189  0.1401  0.1273
38972SOL    HW123966   1.068   3.964   9.334 -0.8794  1.1058 -0.2622
38972SOL    HW223967   1.067   4.081   9.430  0.2474  0.5164  0.4896
38973SOL     OW23968   0.470   7.995   3.632  0.0634  0.1466 -0.1016
38973SOL    HW123969   0.451   7.903   3.614  0.2071 -0.5457  2.7382
38973SOL    HW223970   0.384   8.037   3.637 -0.1025 -0.2289  0.2843
38974SOL     OW23971   0.760   0.175   4.860 -0.0811  0.4426 -0.6184
38974SOL    HW123972   0.678   0.168   4.910  0.8053  0.5668  0.9206
38974SOL    HW223973   0.817   0.109   4.899  1.4525  2.1537  0.2019
38975SOL     OW23974   1.752   0.135   6.592 -0.2879 -0.1155  0.3691
38975SOL    HW123975   1.818   0.131   6.662 -0.4038 -1.4970  0.4306
38975SOL    HW223976   1.771   0.216   6.545  2.1172 -0.9651 -0.2561
38976SOL     OW23977   3.343   9.416   2.181  1.0446 -0.0065 -0.1384
38976SOL    HW123978   3.299   9.487   2.135 -1.1464 -0.3179  1.2841
38976SOL    HW223979   3.384   9.459   2.257  1.6574  0.0371 -0.4925
38977SOL     OW23980  11.682   4.647   7.009  0.0086  0.0626  0.3487
38977SOL    HW123981  11.762   4.700   7.006  0.7845 -1.1000 -1.9332
38977SOL    HW223982  11.687   4.591   6.931 -3.2351  0.2404 -0.1416
38978SOL     OW23983   3.664  11.966  10.343  0.4599  0.9806  0.1866
38978SOL    HW123984   3.585  12.002  10.303  0.4714  1.6714  0.7487
38978SOL    HW223985   3.637  11.881  10.378  0.7410 -0.2103 -2.2528
38979SOL     OW23986   6.549  10.053   5.837 -0.3247 -0.2073 -0.3349
38979SOL    HW123987   6.556  10.085   5.927 -0.5542  5.4024 -1.9363
38979SOL    HW223988   6.456  10.060   5.816 -0.0833 -0.0132 -1.3836
38980SOL     OW23989  11.650   2.330  10.556 -0.0606  0.1996  0.3532
38980SOL    HW123990  11.603   2.251  10.586 -1.4618  1.1779  0.8588
38980SOL    HW223991  11.667   2.379  10.636  0.5308  0.5577  0.0124
38981SOL     OW23992   8.798   0.278   8.994  0.0283  0.5356 -0.4659
38981SOL    HW123993   8.887   0.290   8.959  0.3630  1.1008  0.5451
38981SOL    HW223994   8.769   0.195   8.956  1.6744 -0.5727  0.5774
38982SOL     OW23995   0.997   5.621  12.555  0.0186  0.1039 -0.4219
38982SOL    HW123996   1.018   5.530  12.576 -1.6243 -0.5973 -1.5698
38982SOL    HW223997   0.978   5.662  12.639 -0.3452 -0.9401  0.0179
38983SOL     OW23998   4.375   2.742  10.617  0.0342 -0.1657 -0.1727
38983SOL    HW123999   4.426   2.672  10.659  2.0052  1.1447 -0.2347
38983SOL    HW224000   4.341   2.702  10.538 -0.5302 -1.5932  0.7504
38984SOL     OW24001   4.710  10.454   1.540  0.5068 -0.2115  0.5163
38984SOL    HW124002   4.626  10.461   1.494  0.4404  0.2729  0.7007
38984SOL    HW224003   4.735  10.545   1.558  1.9341 -0.2426 -1.0609
38985SOL     OW24004   6.821   6.350   7.809  0.1339 -0.2037 -0.2257
38985SOL    HW124005   6.904   6.394   7.789  0.6914 -1.3853 -0.5521
38985SOL    HW224006   6.777   6.409   7.870  1.7444 -0.1322  0.9273
38986SOL     OW24007   9.174  10.998   6.514  0.4444 -0.3734  0.4588
38986SOL    HW124008   9.208  10.966   6.598  1.8541  0.3185  0.1821
38986SOL    HW224009   9.247  10.986   6.453 -0.6969 -1.2346 -0.7717
38987SOL     OW24010  11.527   0.631   4.836  0.3886 -0.4547  0.3712
38987SOL    HW124011  11.514   0.717   4.876 -0.2916 -0.8370  1.0073
38987SOL    HW224012  11.484   0.570   4.897 -0.8335 -1.0378 -1.0191
38988SOL     OW24013   7.792  10.923   3.565  0.6656 -0.9588 -0.6038
38988SOL    HW124014   7.871  10.952   3.518 -0.9130  0.1365 -2.7317
38988SOL    HW224015   7.733  10.998   3.561 -0.6421 -1.8784  0.6280
38989SOL     OW24016  10.255   3.614   8.176 -0.8346 -0.4340  0.3229
38989SOL    HW124017  10.317   3.555   8.219 -2.1903 -1.6496  0.6710
38989SOL    HW224018  10.190   3.635   8.243 -0.7564  0.9519  0.0071
38990SOL     OW24019   0.656   1.741   0.423 -0.5534 -0.1655  0.0973
38990SOL    HW124020   0.701   1.711   0.502 -0.2826  0.5874  0.2370
38990SOL    HW224021   0.579   1.685   0.417  0.8991 -2.2307 -0.7367
38991SOL     OW24022   8.932   1.188   2.139  0.2698 -0.0091  0.4481
38991SOL    HW124023   8.995   1.163   2.072 -2.2617 -0.3409 -2.0022
38991SOL    HW224024   8.887   1.107   2.162 -1.3144  0.6309 -0.2064
38992SOL     OW24025   8.535   2.074   7.323  0.7352 -0.9664  0.1084
38992SOL    HW124026   8.607   2.043   7.378  0.1183 -0.9560  0.9258
38992SOL    HW224027   8.474   2.001   7.319  0.2012 -0.5394  0.4411
38993SOL     OW24028  10.590   5.489   4.911 -0.8332 -0.1773 -0.3862
38993SOL    HW124029  10.667   5.545   4.904 -0.6337 -0.4333 -0.2505
38993SOL    HW224030  10.606   5.435   4.988 -1.6420  0.5252  0.3003
38994SOL     OW24031  10.871   4.110   6.791 -0.3596 -0.2215 -0.2903
38994SOL    HW124032  10.785   4.151   6.779  0.0364  1.0134  0.8529
38994SOL    HW224033  10.930   4.183   6.810  1.2716 -0.8948 -2.4908
38995SOL     OW24034  11.541  10.886   9.388  0.2647  0.2345  0.2970
38995SOL    HW124035  11.531  10.878   9.293 -0.3532  0.2957  0.3530
38995SOL    HW224036  11.537  10.980   9.404  2.0196  0.3448  0.2180
38996SOL     OW24037   7.344   5.964   8.688  0.1680 -0.5066  0.1125
38996SOL    HW124038   7.423   5.911   8.678  0.6522  0.1032  0.6866
38996SOL    HW224039   7.277   5.916   8.638  1.4476  0.2186 -2.4615
38997SOL     OW24040   6.643  12.430  11.001 -0.0088 -0.3811  0.0429
38997SOL    HW124041   6.553  12.403  11.019  0.3283 -0.4644  1.8514
38997SOL    HW224042   6.647  12.441  10.906 -1.4630 -2.0001 -0.2556
38998SOL     OW24043   9.025  11.108   1.014  0.3570 -0.1971 -0.3518
38998SOL    HW124044   9.063  11.121   0.927 -1.5211  2.4989 -0.8969
38998SOL    HW224045   8.932  11.128   1.003  0.1068  0.4865  2.3262
38999SOL     OW24046   0.488   3.416   4.278  0.0401  0.6073  0.4552
38999SOL    HW124047   0.484   3.328   4.242  0.3320 -0.1274  2.1574
38999SOL    HW224048   0.551   3.461   4.222 -0.3749 -0.1328 -0.6493
39000SOL     OW24049   0.477   6.103   3.431  0.0815  0.4485  0.5053
39000SOL    HW124050   0.385   6.119   3.450 -0.1536  0.9703 -0.9379
39000SOL    HW224051   0.477   6.067   3.342  1.3386  1.4967  0.0527
39001SOL     OW24052   2.593   5.472   7.604  1.0796 -0.1410 -0.2592
39001SOL    HW124053   2.544   5.407   7.655 -1.2820  1.1346 -0.7525
39001SOL    HW224054   2.632   5.530   7.669 -2.0720  1.5926  0.2654
39002SOL     OW24055   4.774   3.090   5.071  0.0707 -0.0558 -0.1465
39002SOL    HW124056   4.801   3.033   4.998  2.6335 -0.0909  0.7356
39002SOL    HW224057   4.844   3.156   5.077 -1.4307  1.5351  0.6396
39003SOL     OW24058   8.302   1.194  12.199 -0.2804  0.3766 -0.9165
39003SOL    HW124059   8.308   1.191  12.295  0.4851 -1.2960 -0.9899
39003SOL    HW224060   8.362   1.265  12.174 -0.6873  1.0034 -0.1549
39004SOL     OW24061   0.958   9.019   6.816  0.0538  0.4783  0.5766
39004SOL    HW124062   0.935   9.082   6.885 -1.5553  0.7030 -0.1202
39004SOL    HW224063   0.912   8.939   6.840  1.0934 -0.0641  0.7977
39005SOL     OW24064   1.414  11.452   9.075 -0.2303  0.2126  0.0098
39005SOL    HW124065   1.430  11.364   9.109 -3.3532 -1.1925 -1.7081
39005SOL    HW224066   1.465  11.456   8.994 -1.5670 -0.8612 -0.9381
39006SOL     OW24067   4.755   6.702   5.891  0.0323  0.3236 -0.1045
39006SOL    HW124068   4.700   6.776   5.866  0.1535  0.7186  0.7524
39006SOL    HW224069   4.717   6.672   5.974  0.1593 -0.3996 -0.3022
39007SOL     OW24070   4.830   9.721   1.428 -0.2615 -0.2516 -0.5170
39007SOL    HW124071   4.876   9.799   1.397 -1.0748  0.2625 -0.4585
39007SOL    HW224072   4.814   9.669   1.348 -2.5002  1.1465 -1.0508
39008SOL     OW24073   0.947   7.475  11.034 -0.3769 -0.4566  0.3899
39008SOL    HW124074   0.986   7.448  10.951 -1.3634 -0.4374 -0.0993
39008SOL    HW224075   1.020   7.479  11.095  0.6975  1.3692 -0.9167
39009SOL     OW24076   5.565   5.359   4.225  0.2897 -0.2616 -0.2735
39009SOL    HW124077   5.632   5.427   4.225 -1.0944  1.1755  0.1996
39009SOL    HW224078   5.554   5.335   4.317  0.5931 -0.9546 -0.4140
39010SOL     OW24079  10.250   4.530   0.494 -0.0703 -0.4964 -0.4343
39010SOL    HW124080  10.242   4.582   0.575  1.2684 -0.0252 -0.5729
39010SOL    HW224081  10.248   4.595   0.424 -4.1705 -1.0582 -1.1094
39011SOL     OW24082   8.184   5.651   5.975 -0.0767  0.7155 -0.2113
39011SOL    HW124083   8.270   5.689   5.994 -0.4444  1.0165  0.8660
39011SOL    HW224084   8.122   5.705   6.022 -0.8929  0.5740 -1.0891
39012SOL     OW24085   0.990  11.109   0.024 -0.0620 -0.0262  0.4038
39012SOL    HW124086   0.961  11.162   0.098 -0.6480 -1.0596  0.9410
39012SOL    HW224087   1.034  11.034   0.063  3.0689  1.2345 -0.3781
39013SOL     OW24088   3.368   2.469   8.966  0.0450 -0.3698 -0.5771
39013SOL    HW124089   3.328   2.397   9.015 -1.5842 -0.3737 -1.8076
39013SOL    HW224090   3.438   2.428   8.916 -1.5600 -1.4019 -2.1040
39014SOL     OW24091   3.187   4.130   4.639  0.2843  0.0728  0.1823
39014SOL    HW124092   3.122   4.073   4.598 -1.4102  1.3046  0.9716
39014SOL    HW224093   3.184   4.107   4.732 -0.7487  1.6263  0.5894
39015SOL     OW24094   5.142  11.292  12.100  0.3581  0.4049 -0.6266
39015SOL    HW124095   5.056  11.327  12.123  0.8353  2.2318 -1.4370
39015SOL    HW224096   5.131  11.258  12.011  0.6133  1.3176 -1.0262
39016SOL     OW24097   6.170  11.381   7.056  0.5188  0.9809  0.3700
39016SOL    HW124098   6.152  11.376   6.962  2.2522 -0.5255  0.0662
39016SOL    HW224099   6.218  11.463   7.067  0.6230  0.9878 -0.1177
39017SOL     OW24100   7.279   0.047   2.823  0.3038  0.4482 -0.7872
39017SOL    HW124101   7.327   0.074   2.901  0.3277 -2.3141  0.2627
39017SOL    HW224102   7.231   0.125   2.796  0.4984  1.5715  1.8368
39018SOL     OW24103   5.190   8.470   2.361 -0.1417 -0.4503 -0.0610
39018SOL    HW124104   5.144   8.415   2.297  1.3799 -2.1007  0.2008
39018SOL    HW224105   5.252   8.411   2.404  0.5734  1.1718  1.2459
39019SOL     OW24106   4.461   8.689   6.445 -0.4648 -0.2849  0.1308
39019SOL    HW124107   4.381   8.740   6.429  0.2770  0.3518 -1.7391
39019SOL    HW224108   4.475   8.640   6.364  0.9896 -0.4789  0.4756
39020SOL     OW24109   0.693   1.071  12.218  0.2865 -0.5557  0.1843
39020SOL    HW124110   0.756   1.131  12.259  0.3528  0.4318 -1.2901
39020SOL    HW224111   0.702   1.088  12.124 -1.6812 -0.9002 -0.0983
39021SOL     OW24112  11.360  11.267   4.551  0.0717 -0.2232  0.1154
39021SOL    HW124113  11.332  11.194   4.496 -0.7017  1.4319 -1.8113
39021SOL    HW224114  11.278  11.311   4.576  0.5706  0.8853 -0.1083
39022SOL     OW24115  12.093   1.691   8.222  0.7380 -0.5366 -0.1269
39022SOL    HW124116  12.093   1.604   8.182 -0.3321 -0.4899 -0.2688
39022SOL    HW224117  12.130   1.677   8.309  1.3831 -0.9706 -0.4633
39023SOL     OW24118   5.765   4.060   4.903 -0.7412  0.2712 -0.2514
39023SOL    HW124119   5.748   3.966   4.915 -0.5641  0.0344 -1.6991
39023SOL    HW224120   5.837   4.064   4.840 -0.3321  1.3769  0.2629
39024SOL     OW24121  11.962  12.475  11.013 -0.1462 -0.5931 -0.2208
39024SOL    HW124122  11.979  12.514  10.927 -2.1257  1.4521  0.2419
39024SOL    HW224123  11.996  12.385  11.005  0.7557 -0.1138 -2.7362
39025SOL     OW24124   8.778   0.991   6.427 -0.3134  0.0178  0.2933
39025SOL    HW124125   8.731   1.039   6.359  0.9606  0.7770 -0.0817
39025SOL    HW224126   8.772   0.900   6.401  0.7677  0.3584 -1.2472
39026SOL     OW24127   7.435  12.356  10.807  0.2410 -0.3584  0.4302
39026SOL    HW124128   7.518  12.323  10.841 -0.5147 -0.9119  1.8314
39026SOL    HW224129   7.450  12.450  10.794  0.8931 -0.3284  1.3131
39027SOL     OW24130  12.085   5.919   0.274  0.4121  0.7042 -0.1394
39027SOL    HW124131  12.033   5.969   0.337  1.2354  1.4374 -0.0163
39027SOL    HW224132  12.120   5.986   0.214  0.7446  0.1608 -0.5616
39028SOL     OW24133   8.115   3.440   8.033  0.2745  0.3046 -0.4894
39028SOL    HW124134   8.184   3.374   8.038 -0.2143 -0.3529 -1.9759
39028SOL    HW224135   8.149   3.504   7.970  0.2191  0.8520  0.0271
39029SOL     OW24136   0.978   7.615   4.317  0.3568 -0.1760 -0.1598
39029SOL    HW124137   0.976   7.701   4.358 -0.2031  0.2047 -0.9672
39029SOL    HW224138   0.889   7.582   4.325  0.2033 -0.0387 -1.1568
39030SOL     OW24139   0.837   4.519   6.160  0.1755 -0.2316 -0.1789
39030SOL    HW124140   0.857   4.534   6.252 -0.9379  1.2908 -0.1276
39030SOL    HW224141   0.745   4.490   6.159 -0.1763  0.8030 -0.8289
39031SOL     OW24142  11.815  11.541   9.217 -0.4320  0.4972 -0.2202
39031SOL    HW124143  11.852  11.453   9.222 -0.4291  0.5544  1.0223
39031SOL    HW224144  11.777  11.546   9.129 -0.2326 -0.6558 -0.3917
39032SOL     OW24145   1.058  11.887   5.157  0.4006  0.0492 -0.4917
39032SOL    HW124146   1.055  11.934   5.073 -0.4372 -1.8962 -1.6412
39032SOL    HW224147   0.976  11.837   5.159  0.9286 -0.8150  0.9718
39033SOL     OW24148   4.776   9.059   0.502  0.2940  0.1303 -0.4670
39033SOL    HW124149   4.827   9.046   0.422  0.7361 -0.5267 -0.0853
39033SOL    HW224150   4.778   9.153   0.517  1.2288  0.1398 -0.5830
39034SOL     OW24151  12.348  10.122   5.867  0.1499  0.4770 -0.2504
39034SOL    HW124152  12.368  10.158   5.954 -1.2022 -3.1884  1.8160
39034SOL    HW224153  12.432  10.090   5.834  0.3080 -0.4415  0.9701
39035SOL     OW24154  12.480   5.970   8.403  0.1739  0.1317 -0.2686
39035SOL    HW124155  12.466   5.932   8.490  0.9219  0.1443 -0.1361
39035SOL    HW224156  12.393   5.970   8.363 -0.2457  0.4599  0.6068
39036SOL     OW24157   4.829   4.244   6.638  0.1635  0.3990 -0.0904
39036SOL    HW124158   4.825   4.226   6.732  0.6351 -0.5298 -0.2383
39036SOL    HW224159   4.824   4.158   6.596 -0.3355  0.8214 -0.9337
39037SOL     OW24160   4.406  10.786   0.267  0.3068 -0.0560 -0.3287
39037SOL    HW124161   4.422  10.806   0.360 -2.6023  0.9115  0.0775
39037SOL    HW224162   4.423  10.692   0.259  0.2039 -0.2439  1.2977
39038SOL     OW24163  12.098  10.679   6.728 -0.3082 -0.2947  0.5437
39038SOL    HW124164  12.102  10.774   6.723  1.5407 -0.3570  0.0371
39038SOL    HW224165  12.063  10.661   6.815  0.4273  0.8442  1.0994
39039SOL     OW24166   8.860   5.764  10.793  0.1705 -0.9136  0.3206
39039SOL    HW124167   8.940   5.724  10.827 -0.0619 -0.9628  0.8115
39039SOL    HW224168   8.891   5.840  10.742  0.4914 -0.5457  1.0559
39040SOL     OW24169  10.294  10.820   6.915 -0.3214 -0.7750 -0.2927
39040SOL    HW124170  10.310  10.894   6.974  1.2111 -1.3545  0.0508
39040SOL    HW224171  10.279  10.746   6.973 -0.5221 -1.0133 -0.6456
39041SOL     OW24172   1.609  12.440   1.250  0.1568 -0.1711 -0.3459
39041SOL    HW124173   1.561  12.359   1.233 -1.1036  0.3117  0.6954
39041SOL    HW224174   1.692  12.429   1.205  0.3042 -2.3421  0.3446
39042SOL     OW24175   4.135   2.959  11.382 -0.5644  0.3880 -0.3961
39042SOL    HW124176   4.097   3.002  11.459  1.8538  0.0544  1.0958
39042SOL    HW224177   4.164   3.032  11.326 -0.6217  0.6652 -0.0701
39043SOL     OW24178   0.101   7.091  10.440  0.5942 -0.3205 -0.3807
39043SOL    HW124179   0.095   7.175  10.485  0.0146 -1.8445  2.6559
39043SOL    HW224180   0.183   7.052  10.471  0.1001 -1.5042 -0.4841
39044SOL     OW24181   1.554   9.953   2.961  0.1594 -0.2773 -0.1782
39044SOL    HW124182   1.579   9.966   2.870  1.2476  2.3538  0.3968
39044SOL    HW224183   1.538  10.042   2.994 -1.5269 -1.2428  1.8621
39045SOL     OW24184   9.156   6.119   2.300  0.3009  0.1182  0.3741
39045SOL    HW124185   9.097   6.163   2.360 -0.5299 -2.1624  1.3642
39045SOL    HW224186   9.241   6.122   2.344  0.3403  1.0581  0.2359
39046SOL     OW24187  11.726   5.977   8.456  0.2770  0.3710  0.2504
39046SOL    HW124188  11.759   6.006   8.371  0.1159  0.4573  0.2178
39046SOL    HW224189  11.707   6.058   8.503  1.3556  0.3385  0.7603
39047SOL     OW24190   2.932   3.798   2.537 -0.9328  0.3792  0.1052
39047SOL    HW124191   2.979   3.866   2.488 -0.4785  0.7832  1.0668
39047SOL    HW224192   2.852   3.841   2.567 -1.2747  0.0936 -0.3854
39048SOL     OW24193   4.619   9.181   1.948 -0.1536  0.4083  0.2782
39048SOL    HW124194   4.552   9.128   1.906  1.2644 -1.9461  0.8438
39048SOL    HW224195   4.580   9.207   2.031 -0.3764 -0.9541  0.6165
39049SOL     OW24196   9.925   4.233   3.130 -0.1588  0.0916  0.2480
39049SOL    HW124197   9.913   4.322   3.164  1.8984  0.4361  0.1855
39049SOL    HW224198  10.000   4.199   3.178 -0.1467 -1.1633 -0.6231
39050SOL     OW24199   0.037   2.132   7.417 -0.4719  0.7160 -0.3765
39050SOL    HW124200   0.073   2.059   7.367 -0.9536 -1.2274  1.9519
39050SOL    HW224201   0.105   2.153   7.481 -0.1753  2.6655 -1.2400
39051SOL     OW24202   0.232  11.034   8.884 -0.0313  0.6190 -0.3346
39051SOL    HW124203   0.143  11.050   8.852 -0.1986 -0.3503 -0.3881
39051SOL    HW224204   0.233  10.941   8.907  0.8916  0.6820 -0.0731
39052SOL     OW24205   7.271  10.080  11.223 -0.1003 -0.2019 -0.1006
39052SOL    HW124206   7.180  10.056  11.239 -0.2453 -0.2897 -0.9652
39052SOL    HW224207   7.275  10.091  11.128  0.6520  0.3673 -0.0094
39053SOL     OW24208  10.067   6.183   8.409 -0.4633  0.0099  0.7539
39053SOL    HW124209  10.162   6.176   8.404 -0.4984 -0.0678  0.1726
39053SOL    HW224210  10.044   6.248   8.342 -0.6708  1.3105  2.0332
39054SOL     OW24211   8.944   3.448   7.771 -0.1840  0.2959 -0.1294
39054SOL    HW124212   9.035   3.451   7.742 -0.2169  3.2844 -0.1959
39054SOL    HW224213   8.940   3.373   7.830  1.8219 -1.0571 -1.5981
39055SOL     OW24214   8.739   6.963   3.522 -0.3605  0.4287  0.2523
39055SOL    HW124215   8.731   7.051   3.557 -0.8927  0.3160  0.4283
39055SOL    HW224216   8.812   6.967   3.461  0.2278  0.7543  0.9763
39056SOL     OW24217  10.385   1.633   4.618 -0.0993 -0.5848  0.3368
39056SOL    HW124218  10.383   1.723   4.585 -0.3826 -0.4747  0.6605
39056SOL    HW224219  10.295   1.614   4.643  0.0061 -0.8767  0.4997
39057SOL     OW24220   7.604   6.841  11.259  0.5049 -0.0704 -0.7266
39057SOL    HW124221   7.642   6.811  11.176  2.5528  0.6925 -0.1272
39057SOL    HW224222   7.516   6.870  11.236  0.5107 -1.1870 -2.3541
39058SOL     OW24223   3.761   8.723   2.466 -0.0254 -1.1617 -0.0311
39058SOL    HW124224   3.808   8.792   2.512 -0.7550  0.0646 -1.0748
39058SOL    HW224225   3.746   8.656   2.532 -0.1765  0.0978  1.2524
39059SOL     OW24226   6.431   4.170   8.804 -0.1950 -0.7596 -0.7830
39059SOL    HW124227   6.486   4.094   8.781 -0.4869 -0.9492 -0.8588
39059SOL    HW224228   6.407   4.155   8.896  0.6227 -0.2158 -0.4640
39060SOL     OW24229   9.191  10.892   5.817 -0.3443 -0.0745 -0.1083
39060SOL    HW124230   9.267  10.918   5.869 -0.4275  0.1290 -0.0847
39060SOL    HW224231   9.143  10.832   5.873  0.8018 -1.7525 -0.8565
39061SOL     OW24232   5.642   4.906   7.829 -0.4712  0.5606  0.7310
39061SOL    HW124233   5.719   4.945   7.788  0.1345 -1.5237 -0.2757
39061SOL    HW224234   5.668   4.893   7.921  0.2624  0.2123  0.4804
39062SOL     OW24235   9.969   4.670   4.656  0.2977 -0.2596  0.0765
39062SOL    HW124236   9.996   4.588   4.614  0.3580 -0.3606  0.3108
39062SOL    HW224237  10.010   4.739   4.604 -0.7799 -0.3187 -0.9008
39063SOL     OW24238  11.906   4.688   9.837  0.8250  0.9248 -1.0424
39063SOL    HW124239  11.871   4.602   9.816  0.2433  1.1180 -0.8785
39063SOL    HW224240  11.868   4.746   9.771 -0.4889  1.4220  0.1014
39064SOL     OW24241  11.205   2.029  10.429 -0.2194  0.0857 -0.1223
39064SOL    HW124242  11.221   2.124  10.428  0.5119 -0.0271  0.5238
39064SOL    HW224243  11.132   2.018  10.491 -0.4432  0.2467 -0.3564
39065SOL     OW24244   8.626   5.178  11.311 -0.0956 -0.5503 -0.1278
39065SOL    HW124245   8.713   5.145  11.333 -0.3737 -1.6054 -0.5907
39065SOL    HW224246   8.642   5.266  11.276  0.5977  0.0846  1.6735
39066SOL     OW24247  11.173   5.342   4.422 -0.0041 -0.3117 -0.4899
39066SOL    HW124248  11.255   5.306   4.388 -0.0676 -0.0173 -0.9754
39066SOL    HW224249  11.105   5.286   4.385 -0.1130  0.3821 -1.3794
39067SOL     OW24250   3.513   4.890   2.931  0.2421 -0.0209  0.2836
39067SOL    HW124251   3.498   4.904   2.837 -1.0600 -1.7101  0.1979
39067SOL    HW224252   3.466   4.963   2.973  0.8697  0.7747 -0.3530
39068SOL     OW24253   3.606   0.339   8.298 -0.3083  0.6639 -0.2894
39068SOL    HW124254   3.578   0.428   8.318 -0.9307  0.5248 -0.4926
39068SOL    HW224255   3.583   0.327   8.205 -2.2239 -0.4093  0.2616
39069SOL     OW24256   0.492   9.381   5.868 -0.5847 -0.2135 -0.6773
39069SOL    HW124257   0.459   9.462   5.830 -0.1367  0.3781  0.1594
39069SOL    HW224258   0.490   9.396   5.962  0.8788 -0.6213 -0.5502
39070SOL     OW24259   4.676  10.268   0.157  0.4721 -0.5318 -0.1186
39070SOL    HW124260   4.730  10.294   0.082  1.9665  1.2419  1.4494
39070SOL    HW224261   4.739  10.256   0.228 -1.0465 -0.2076  1.3415
39071SOL     OW24262   1.471   8.878  12.325  0.1128  0.1272  0.8484
39071SOL    HW124263   1.425   8.958  12.353  0.3309  0.4857  0.2133
39071SOL    HW224264   1.454   8.815  12.395  0.4570  0.9212  1.6836
39072SOL     OW24265   1.909   6.635   7.224  0.1321  0.1900 -0.0619
39072SOL    HW124266   1.991   6.612   7.269  0.1031  1.0027  0.4171
39072SOL    HW224267   1.927   6.720   7.184 -0.5906  0.5225  0.3169
39073SOL     OW24268   2.337   4.806   1.148 -0.2868 -0.0011 -0.0020
39073SOL    HW124269   2.272   4.737   1.135  0.3625 -0.3476 -1.6177
39073SOL    HW224270   2.376   4.786   1.233  0.4466 -2.1432 -0.7732
39074SOL     OW24271   5.971   8.666   1.915 -0.1156 -0.3412 -0.0108
39074SOL    HW124272   5.952   8.617   1.995  0.0547 -1.3806 -0.5984
39074SOL    HW224273   5.906   8.636   1.852  1.0137 -1.0479 -0.8661
39075SOL     OW24274  11.648   7.637   6.197  1.0515 -0.4816  0.4302
39075SOL    HW124275  11.686   7.549   6.204 -1.0230 -1.7022 -1.7062
39075SOL    HW224276  11.571   7.624   6.141 -0.9224  2.2472  2.2554
39076SOL     OW24277   0.343  12.100   3.639 -0.0273  0.1298 -0.4632
39076SOL    HW124278   0.376  12.020   3.680 -0.3199 -0.0665 -0.6111
39076SOL    HW224279   0.281  12.135   3.702  0.3100  0.3960 -0.2721
39077SOL     OW24280   7.733  11.934   8.650 -0.3428 -0.2892 -0.6004
39077SOL    HW124281   7.827  11.946   8.667 -0.3960  0.0634 -0.5556
39077SOL    HW224282   7.692  11.944   8.736 -0.3535 -1.1969 -0.4848
39078SOL     OW24283  10.596  10.941   8.126 -0.0098  0.4205  0.3649
39078SOL    HW124284  10.654  10.982   8.062  2.0828  0.9543  2.4663
39078SOL    HW224285  10.525  11.004   8.138  1.3395  1.9050  0.9702
39079SOL     OW24286  10.179   3.739  12.242 -0.0929 -0.2436  0.0072
39079SOL    HW124287  10.089   3.705  12.247  0.0481 -0.4164  3.1799
39079SOL    HW224288  10.177   3.799  12.168 -2.7004 -0.5876 -0.3181
39080SOL     OW24289  11.479   2.341   9.311  0.0184  0.0213  0.0853
39080SOL    HW124290  11.475   2.384   9.225  1.5472 -1.3106 -0.6872
39080SOL    HW224291  11.572   2.326   9.326 -0.3932 -2.0370  0.8152
39081SOL     OW24292   4.938  11.858  10.048  0.5283 -0.4777  0.1803
39081SOL    HW124293   4.860  11.895  10.006  0.6900 -1.6181 -1.1899
39081SOL    HW224294   4.957  11.919  10.120 -0.6779  0.6878 -0.4351
39082SOL     OW24295   8.147   0.266   0.281 -0.4197  0.0863  0.1256
39082SOL    HW124296   8.207   0.338   0.261 -0.8121  0.2066 -0.6682
39082SOL    HW224297   8.136   0.220   0.198 -2.4574  0.8694 -0.1050
39083SOL     OW24298   0.298   9.896   2.749 -0.0255 -0.0694  0.0788
39083SOL    HW124299   0.376   9.887   2.694  0.1164  1.3153  0.0059
39083SOL    HW224300   0.333   9.926   2.834 -0.4118 -0.1992  0.2855
39084SOL     OW24301   7.892   2.794   5.151 -0.3953  0.0214  0.5324
39084SOL    HW124302   7.958   2.814   5.217 -1.5574  3.2689  0.9006
39084SOL    HW224303   7.879   2.876   5.104 -0.1881 -1.9423 -3.3355
39085SOL     OW24304   1.985   4.169   2.196 -0.0135  0.0715  0.1044
39085SOL    HW124305   1.932   4.128   2.264 -0.4384 -0.0735 -0.3094
39085SOL    HW224306   2.064   4.200   2.241 -1.0230  1.4529  0.9912
39086SOL     OW24307   4.826   3.764   3.986  0.1906  0.2721  0.0317
39086SOL    HW124308   4.775   3.799   4.060  0.3158 -1.0425  0.7721
39086SOL    HW224309   4.771   3.695   3.950  0.7490 -0.0650 -0.1854
39087SOL     OW24310  10.686  10.320   3.499  0.3424  0.1257 -0.9082
39087SOL    HW124311  10.698  10.397   3.444  0.3480 -0.7879 -2.2571
39087SOL    HW224312  10.597  10.291   3.479  0.1598  0.0630 -0.0334
39088SOL     OW24313   1.953   1.562  10.967  0.0908 -0.6889  0.2268
39088SOL    HW124314   1.967   1.594  11.056 -1.6946  0.9375 -0.0266
39088SOL    HW224315   2.034   1.515  10.946  1.0795  0.0113  2.2015
39089SOL     OW24316   1.381   1.588   2.667  0.6622 -0.0752 -0.3507
39089SOL    HW124317   1.311   1.647   2.640 -0.0450 -0.4250  0.6843
39089SOL    HW224318   1.415   1.553   2.584  0.0830  0.6276 -0.8971
39090SOL     OW24319   7.725   7.023   3.273  0.3057  0.0639  0.0841
39090SOL    HW124320   7.818   7.042   3.264  0.0367  0.9042 -1.1946
39090SOL    HW224321   7.707   7.032   3.366  1.6410 -0.8511  0.4598
39091SOL     OW24322   0.898   6.591   6.329 -0.5948  0.1117  0.1251
39091SOL    HW124323   0.826   6.649   6.304 -0.8639  0.1304  0.9384
39091SOL    HW224324   0.926   6.621   6.415  0.5059  0.2035 -0.2518
39092SOL     OW24325   3.154   9.038   3.641 -0.1505 -0.0448  0.4515
39092SOL    HW124326   3.243   9.062   3.666  0.3922 -1.4197 -0.0346
39092SOL    HW224327   3.100   9.058   3.717  0.6258  0.5447  0.8503
39093SOL     OW24328   8.241   8.182   2.472 -0.0900 -0.6140 -0.6167
39093SOL    HW124329   8.319   8.156   2.423 -0.2028 -0.3263 -0.9593
39093SOL    HW224330   8.244   8.130   2.552  1.7443  1.1266  0.5351
39094SOL     OW24331   5.505   0.135   8.226  0.0154 -0.3237  0.2175
39094SOL    HW124332   5.556   0.167   8.151  0.4302 -1.0064  0.2003
39094SOL    HW224333   5.482   0.045   8.202 -0.3789 -0.3394  0.6477
39095SOL     OW24334  10.017   8.602   9.631  0.0797 -0.4170  0.4010
39095SOL    HW124335   9.959   8.541   9.586 -0.4544 -0.5011  1.1762
39095SOL    HW224336   9.994   8.688   9.595 -2.6507 -0.0243  2.7021
39096SOL     OW24337   1.330   3.554   5.030  0.4760  0.1129 -0.6409
39096SOL    HW124338   1.413   3.568   4.984  1.2365 -1.1177  0.2937
39096SOL    HW224339   1.282   3.492   4.975  0.9245 -0.5327 -0.3010
39097SOL     OW24340  12.520  11.470   0.049 -0.4543 -0.0706  0.1919
39097SOL    HW124341  12.599  11.423   0.073  0.4256  2.3300  2.4956
39097SOL    HW224342  12.550  11.548   0.003 -1.6570 -0.1969 -0.8804
39098SOL     OW24343   4.364   2.016   1.508 -0.1311  0.1137 -0.0843
39098SOL    HW124344   4.368   2.112   1.511 -0.0832  0.0910  1.2394
39098SOL    HW224345   4.371   1.995   1.415 -0.0365  1.3889 -0.3908
39099SOL     OW24346  10.412   5.923  10.445  0.4191 -0.0943 -0.5188
39099SOL    HW124347  10.388   5.875  10.525  0.3498  1.4946  0.4640
39099SOL    HW224348  10.328   5.953  10.410  0.4088 -1.2444 -1.5053
39100SOL     OW24349   2.291   8.495   5.821 -0.0950  0.2229 -0.2124
39100SOL    HW124350   2.198   8.500   5.845 -0.7647  0.8254 -2.6096
39100SOL    HW224351   2.336   8.477   5.903 -2.5122 -2.3284  0.7067
39101SOL     OW24352  10.410  10.551   5.402  0.0370 -0.3379 -0.7507
39101SOL    HW124353  10.461  10.472   5.419 -0.7012 -0.7041 -0.1479
39101SOL    HW224354  10.331  10.520   5.359 -0.7457 -0.0765  0.4382
39102SOL     OW24355   7.194   7.314   3.387  0.6385 -0.0367 -0.6949
39102SOL    HW124356   7.143   7.348   3.461  3.1120 -0.0632  1.1600
39102SOL    HW224357   7.169   7.222   3.381  0.1273  0.0605 -0.1448
39103SOL     OW24358   2.757   9.976  11.502 -0.3640  0.4624  0.0223
39103SOL    HW124359   2.708  10.042  11.452  1.4753  2.4500  0.7128
39103SOL    HW224360   2.724   9.984  11.591  1.0946  1.7371  0.4688
39104SOL     OW24361  12.446   7.306  12.300  0.6129  0.3995 -0.1580
39104SOL    HW124362  12.409   7.217  12.301  0.0965  0.5985  2.0516
39104SOL    HW224363  12.426   7.338  12.212  0.0345 -1.3487 -0.7190
39105SOL     OW24364  11.906   3.456   3.471  0.5869  0.8390 -0.0903
39105SOL    HW124365  11.988   3.504   3.460  0.6010  0.7363 -0.4392
39105SOL    HW224366  11.846   3.519   3.511  0.5516  1.1993 -0.7069
39106SOL     OW24367   4.355  12.112  10.899 -0.2197  0.1617  0.1410
39106SOL    HW124368   4.297  12.055  10.950  0.1756 -0.3753 -0.0057
39106SOL    HW224369   4.391  12.056  10.831 -0.0129  0.6478 -0.1587
39107SOL     OW24370   7.737  11.159   1.487  0.0830 -0.1350 -0.0881
39107SOL    HW124371   7.765  11.241   1.446  5.3818 -0.9675  1.0459
39107SOL    HW224372   7.737  11.095   1.416 -2.9550  0.4784 -0.7632
39108SOL     OW24373   6.656   9.591   3.915 -0.1910 -0.1473 -0.2293
39108SOL    HW124374   6.707   9.666   3.883  0.0036 -0.1820  0.0016
39108SOL    HW224375   6.567   9.625   3.925 -0.4216 -0.3206 -1.5169
39109SOL     OW24376   7.563   3.989   8.356 -0.0477 -0.4974  0.2989
39109SOL    HW124377   7.473   3.954   8.354 -0.5884  0.8734  0.0271
39109SOL    HW224378   7.591   3.988   8.265 -1.2334  2.6083 -0.2111
39110SOL     OW24379   3.022   9.204   8.772  0.1421 -0.4249 -0.4202
39110SOL    HW124380   2.970   9.229   8.696  1.9029 -0.0156 -1.5499
39110SOL    HW224381   3.049   9.288   8.811 -1.1818 -0.6206  1.0179
39111SOL     OW24382   5.099   2.569  11.295 -0.1183  0.1810  0.6941
39111SOL    HW124383   5.097   2.657  11.259  0.8177 -0.2451 -0.4716
39111SOL    HW224384   5.083   2.581  11.389 -2.1431  1.3688  0.2531
39112SOL     OW24385   9.837  11.554   0.417  0.4278 -0.2814  0.8328
39112SOL    HW124386   9.879  11.533   0.334  1.1389 -0.2505  1.1788
39112SOL    HW224387   9.801  11.641   0.405 -3.2921 -1.8268 -0.9192
39113SOL     OW24388   2.612   1.732   5.837  0.8340  0.0140  0.1840
39113SOL    HW124389   2.653   1.814   5.863  0.8007  0.2461 -0.4680
39113SOL    HW224390   2.537   1.723   5.896  1.8303 -0.4450  1.4221
39114SOL     OW24391   4.162   2.327   7.562 -0.2646 -0.1916  0.4432
39114SOL    HW124392   4.084   2.299   7.515 -0.3829  0.5374  0.1857
39114SOL    HW224393   4.231   2.326   7.496 -0.3534  0.4798  0.3329
39115SOL     OW24394   1.351  10.948   8.533 -0.0368 -0.0451  0.1891
39115SOL    HW124395   1.394  11.031   8.515  0.3171 -0.3896 -0.6436
39115SOL    HW224396   1.359  10.899   8.451 -0.5017 -0.7821  0.5710
39116SOL     OW24397   7.114   8.246   6.690 -0.6294 -0.2701  0.0404
39116SOL    HW124398   7.058   8.302   6.637 -1.1005 -1.3694 -0.6524
39116SOL    HW224399   7.189   8.301   6.713 -1.2616  0.7425 -0.2983
39117SOL     OW24400   7.424   6.205   5.592  0.1685 -0.0498  0.2896
39117SOL    HW124401   7.400   6.284   5.544 -1.6630  0.5707  2.1026
39117SOL    HW224402   7.354   6.143   5.572  1.0569 -0.9011 -0.2947
39118SOL     OW24403   3.528   0.271   9.318  0.3131  0.4538  0.3937
39118SOL    HW124404   3.526   0.308   9.406 -1.6086 -0.9738  1.0138
39118SOL    HW224405   3.622   0.265   9.297  0.8257  0.6778  2.4015
39119SOL     OW24406   5.618   7.457   9.223  0.3045 -0.6893 -0.0988
39119SOL    HW124407   5.577   7.397   9.161  0.9666 -1.8908  0.5959
39119SOL    HW224408   5.683   7.404   9.269  1.7295  0.8125 -0.2502
39120SOL     OW24409   6.306  11.757   4.043 -0.2354  0.9959 -0.1883
39120SOL    HW124410   6.325  11.701   3.968 -1.2522 -0.5050  0.6140
39120SOL    HW224411   6.215  11.784   4.032 -0.3463  0.8958  0.4131
39121SOL     OW24412  11.845   7.820   3.967 -0.0718 -0.4608  0.4284
39121SOL    HW124413  11.890   7.833   4.051 -1.4586  0.1414  1.1028
39121SOL    HW224414  11.913   7.837   3.902  0.0527  3.5484  1.3507
39122SOL     OW24415   3.528   2.561   7.200 -0.0045 -0.3132 -0.1002
39122SOL    HW124416   3.592   2.554   7.130 -0.6258 -1.6309 -0.5745
39122SOL    HW224417   3.577   2.595   7.275  1.1378 -0.8396 -0.5952
39123SOL     OW24418  11.472   5.161   6.167 -0.1531  1.1998  0.0754
39123SOL    HW124419  11.494   5.155   6.260 -1.0421 -1.3139  0.1968
39123SOL    HW224420  11.385   5.122   6.160  0.0755  0.9156 -1.8862
39124SOL     OW24421   4.737  10.475   9.490  0.4603  0.8795 -0.6636
39124SOL    HW124422   4.756  10.526   9.411  3.0911  1.9778  0.5524
39124SOL    HW224423   4.725  10.541   9.558  3.5928  0.0262  0.8860
39125SOL     OW24424   0.572   2.457   7.203  0.3599  0.0152 -0.2901
39125SOL    HW124425   0.613   2.521   7.261  1.7618 -0.7064 -0.4174
39125SOL    HW224426   0.551   2.506   7.124  1.3567  0.3586 -0.3645
39126SOL     OW24427   2.308   1.678  11.744 -0.1888  0.3312  0.6789
39126SOL    HW124428   2.259   1.758  11.758 -1.1738 -0.0588 -0.4656
39126SOL    HW224429   2.318   1.641  11.832 -2.1402  0.3113  0.9214
39127SOL     OW24430   9.150  12.480   4.588 -0.2119 -0.0730 -0.4338
39127SOL    HW124431   9.245  12.491   4.578 -0.0817 -1.4585 -1.0672
39127SOL    HW224432   9.141  12.432   4.671 -0.3291 -0.1628 -0.4982
39128SOL     OW24433   7.190   2.676   0.957 -0.3902  0.1172 -0.3570
39128SOL    HW124434   7.255   2.658   0.889 -1.2746  3.0976 -2.1908
39128SOL    HW224435   7.223   2.631   1.035  4.1275  1.7737 -1.0097
39129SOL     OW24436   0.397  12.183   4.981  0.2468  0.0919 -0.3581
39129SOL    HW124437   0.353  12.266   4.963 -2.6135 -0.8471  1.5470
39129SOL    HW224438   0.449  12.200   5.059 -1.9055 -0.2473  1.2595
39130SOL     OW24439  11.008   1.187  12.121 -0.5603  0.4269  0.2865
39130SOL    HW124440  11.085   1.227  12.080  0.1432 -2.9158 -2.1302
39130SOL    HW224441  10.935   1.245  12.097  0.6811  1.6460 -0.7497
39131SOL     OW24442   7.247   0.826   2.789  0.1602  0.3208  0.0856
39131SOL    HW124443   7.207   0.905   2.825  0.2913  0.9746 -1.1434
39131SOL    HW224444   7.181   0.790   2.731 -0.2574 -1.0242  1.3414
39132SOL     OW24445   5.332   5.127   0.431  0.2820 -0.5971 -0.1100
39132SOL    HW124446   5.409   5.077   0.404  1.1601  0.0538  1.0581
39132SOL    HW224447   5.362   5.177   0.507 -1.9101 -2.1419  1.9252
39133SOL     OW24448  12.305   5.973   6.270  0.0679  0.1101 -0.1011
39133SOL    HW124449  12.268   6.021   6.196  0.9934 -0.3757 -0.8991
39133SOL    HW224450  12.309   6.037   6.341 -1.1344  0.4921 -0.3629
39134SOL     OW24451  10.308  12.101   3.667 -0.2916  0.3128  0.1274
39134SOL    HW124452  10.293  12.021   3.617 -1.2662 -0.2773  1.3396
39134SOL    HW224453  10.251  12.166   3.625  1.5745  0.8289 -1.7947
39135SOL     OW24454  12.344   9.015  12.550 -0.3896  0.3490  0.4437
39135SOL    HW124455  12.269   9.068  12.576 -0.5376  0.1652  0.3952
39135SOL    HW224456  12.386   8.991  12.632 -0.6399  0.0818  0.4942
39136SOL     OW24457   7.079   0.178   1.433  0.6068 -0.1022 -0.1201
39136SOL    HW124458   7.065   0.142   1.520  0.4202  1.7306  0.6633
39136SOL    HW224459   7.093   0.102   1.377 -0.7664 -1.4113  1.2224
39137SOL     OW24460   1.939   0.245   7.603 -0.5765  0.1119 -0.2518
39137SOL    HW124461   1.911   0.305   7.672  0.7338  0.4154  0.0461
39137SOL    HW224462   1.904   0.160   7.628 -2.1098  0.6655 -0.4600
39138SOL     OW24463  12.328   9.964   0.269  0.6295 -0.5457  0.1678
39138SOL    HW124464  12.382  10.025   0.219  0.7234  0.6501  1.6685
39138SOL    HW224465  12.273  10.019   0.324 -1.6105 -1.7511 -0.7318
39139SOL     OW24466  11.476  10.148   0.193  0.4536  0.6291 -0.6926
39139SOL    HW124467  11.475  10.074   0.133 -0.1100  0.3524 -0.3418
39139SOL    HW224468  11.385  10.162   0.216  0.6484  0.8421 -0.0270
39140SOL     OW24469   4.963   8.091   1.548 -0.0349 -0.0569 -0.1514
39140SOL    HW124470   4.929   8.007   1.518  2.4023 -1.0125 -0.5241
39140SOL    HW224471   5.029   8.068   1.614  0.2709  1.5911  0.1778
39141SOL     OW24472  11.471   4.236   8.964 -0.3361 -1.2919 -0.0068
39141SOL    HW124473  11.420   4.252   8.884 -0.6076 -0.0229  0.3911
39141SOL    HW224474  11.419   4.277   9.033  2.3195  2.5061  0.0802
39142SOL     OW24475   6.641  10.533   6.519 -0.0508 -0.8125 -0.2214
39142SOL    HW124476   6.572  10.536   6.584 -0.2494  0.7917 -0.4683
39142SOL    HW224477   6.607  10.584   6.445  0.9719 -0.8927 -0.7701
39143SOL     OW24478   6.739  12.057   3.103 -0.0449 -0.7362 -0.0602
39143SOL    HW124479   6.824  12.019   3.124  0.7910  0.7037 -0.6855
39143SOL    HW224480   6.752  12.151   3.112 -1.1654 -0.3940 -1.6250
39144SOL     OW24481   6.647  11.660  10.600  0.1584 -0.2976  0.5392
39144SOL    HW124482   6.634  11.624  10.688  1.1381  1.8665  1.6514
39144SOL    HW224483   6.742  11.653  10.585 -0.1996 -2.6020 -1.3269
39145SOL     OW24484   7.502   8.838  10.000 -0.0780  0.3701 -0.1437
39145SOL    HW124485   7.452   8.907  10.043  0.4270 -0.1309  1.3009
39145SOL    HW224486   7.567   8.886   9.947 -1.5755  1.0053 -1.4867
39146SOL     OW24487   0.735   3.783   4.861 -0.6036 -0.5768 -0.0431
39146SOL    HW124488   0.709   3.811   4.774  0.8811 -0.0757 -0.3458
39146SOL    HW224489   0.660   3.732   4.893 -1.5604  0.0605 -1.2040
39147SOL     OW24490  12.361   9.314   8.813  0.5294  0.4932 -0.0450
39147SOL    HW124491  12.338   9.225   8.787  0.2796  0.3561  0.6195
39147SOL    HW224492  12.453   9.308   8.840 -0.1684 -0.1466  2.4431
39148SOL     OW24493   7.118  11.314   4.900 -0.2019 -0.4885 -0.2789
39148SOL    HW124494   7.033  11.275   4.877 -0.7886 -0.2530  1.3423
39148SOL    HW224495   7.143  11.365   4.823 -1.4046 -0.7836 -0.8866
39149SOL     OW24496  11.336   3.512   9.838  0.3779 -0.5761  0.5428
39149SOL    HW124497  11.412   3.570   9.838  0.5436 -0.7385 -1.0343
39149SOL    HW224498  11.274   3.552   9.900  1.4922 -0.1213  1.3884
39150SOL     OW24499   8.158   5.577   8.866 -0.2979 -0.4187 -0.1544
39150SOL    HW124500   8.121   5.619   8.944  1.7461 -0.4122  0.8890
39150SOL    HW224501   8.250   5.604   8.866  0.4035 -2.6054 -1.0470
39151SOL     OW24502   2.620   0.029   4.434  0.4687  0.0010 -0.2108
39151SOL    HW124503   2.601   0.079   4.513  0.2935 -0.5755  0.1187
39151SOL    HW224504   2.535   0.019   4.390  0.5296  0.1304 -0.3603
39152SOL     OW24505   6.367   8.037   8.410 -0.2428  0.2168 -0.8411
39152SOL    HW124506   6.290   8.085   8.442  0.4483  1.0216 -0.3410
39152SOL    HW224507   6.337   7.947   8.403 -0.9529  0.3306  0.3292
39153SOL     OW24508   4.658   1.422  12.365  0.4173  0.0880 -0.5404
39153SOL    HW124509   4.644   1.442  12.273  1.0631 -2.6883 -1.3593
39153SOL    HW224510   4.753   1.408  12.373  0.5473  1.4893  0.8585
39154SOL     OW24511   4.380  11.293   9.629  0.8778  0.4665 -0.0696
39154SOL    HW124512   4.365  11.308   9.723 -0.1534  0.5739 -0.2411
39154SOL    HW224513   4.423  11.373   9.599  1.2129  0.4328  0.3076
39155SOL     OW24514  12.135   4.735   4.948  0.8477 -0.3749  0.7716
39155SOL    HW124515  12.059   4.706   4.898 -0.3203  2.9208  0.4082
39155SOL    HW224516  12.114   4.713   5.039 -0.9011  1.0929  0.7581
39156SOL     OW24517   1.882   4.676   8.886 -0.6804  0.4500 -0.2286
39156SOL    HW124518   1.877   4.682   8.981 -0.3458 -2.8652  0.1270
39156SOL    HW224519   1.808   4.620   8.862  0.4385 -0.4598 -1.6632
39157SOL     OW24520   8.411   2.389   3.963 -0.3322  0.2576 -0.1637
39157SOL    HW124521   8.372   2.351   4.041 -1.0722  0.2879 -0.5156
39157SOL    HW224522   8.441   2.476   3.991  0.2763 -0.0925  0.3241
39158SOL     OW24523   7.392  11.900   1.850 -0.5930 -0.5801  0.1147
39158SOL    HW124524   7.300  11.922   1.866  0.1734  2.1351  1.3339
39158SOL    HW224525   7.415  11.949   1.771  0.6699  1.7989  1.8306
39159SOL     OW24526   7.596   1.927   7.315 -0.1244 -0.3455 -0.1777
39159SOL    HW124527   7.526   1.937   7.250 -1.2124 -1.2336  0.8215
39159SOL    HW224528   7.666   1.984   7.283 -0.8112 -0.3852 -1.8696
39160SOL     OW24529  11.310   2.423   3.085  0.1732  0.8667 -0.2152
39160SOL    HW124530  11.237   2.397   3.028 -0.6436  1.0955  0.6793
39160SOL    HW224531  11.281   2.395   3.173  0.7657  1.7791  0.2810
39161SOL     OW24532   9.483   9.664   8.523 -0.3593  0.3568  0.7279
39161SOL    HW124533   9.518   9.627   8.605 -0.8502 -0.9256  0.3933
39161SOL    HW224534   9.535   9.742   8.507  1.3860 -0.6913  1.0110
39162SOL     OW24535   7.128   3.616   1.748 -0.1311  0.1124  0.7731
39162SOL    HW124536   7.073   3.646   1.676 -2.4231 -1.6318  1.6572
39162SOL    HW224537   7.130   3.690   1.810  0.8291  1.1593 -0.4496
39163SOL     OW24538   5.172   9.565   1.669 -0.0105 -0.0248  0.1296
39163SOL    HW124539   5.229   9.535   1.598 -1.2149 -0.4119 -0.7083
39163SOL    HW224540   5.232   9.598   1.736  1.1501  1.3940 -1.5189
39164SOL     OW24541   4.807   7.587   9.212  0.0592 -0.2426  0.1384
39164SOL    HW124542   4.752   7.513   9.238 -1.9689  1.0041 -0.4080
39164SOL    HW224543   4.860   7.605   9.289  0.0451 -1.7686  0.5390
39165SOL     OW24544   7.487  12.055  10.562  0.2725 -0.2562  0.3044
39165SOL    HW124545   7.475  12.052  10.657  2.6250 -1.0649  0.6340
39165SOL    HW224546   7.401  12.034  10.526 -0.3873 -1.0962  2.2688
39166SOL     OW24547   6.947   8.414   6.558  0.2507 -0.2231 -0.4919
39166SOL    HW124548   6.924   8.417   6.466 -2.3107 -0.8797  0.0451
39166SOL    HW224549   6.889   8.477   6.600  2.2937  1.0728  0.5602
39167SOL     OW24550   6.334   9.980   1.060  0.4102 -0.3890 -0.2638
39167SOL    HW124551   6.405   9.948   1.005 -0.3371 -0.2319 -1.3429
39167SOL    HW224552   6.342  10.076   1.056 -0.3189 -0.3527 -1.0178
39168SOL     OW24553   3.404   1.093   1.932 -0.5086 -0.5434 -0.5084
39168SOL    HW124554   3.372   1.182   1.923  0.2070 -0.0014  1.7759
39168SOL    HW224555   3.491   1.094   1.893  0.1321  0.1990  0.8757
39169SOL     OW24556   0.681   7.880   5.513  0.0986  0.1552  0.5079
39169SOL    HW124557   0.620   7.946   5.544  0.4760 -0.0553  1.7774
39169SOL    HW224558   0.759   7.929   5.486  0.2995  0.2605  1.2507
39170SOL     OW24559   5.671   0.668   8.162  0.2394  0.0645  0.1421
39170SOL    HW124560   5.755   0.714   8.152  0.6974 -0.8245 -0.1964
39170SOL    HW224561   5.694   0.586   8.206 -0.2894 -0.6208 -0.8140
39171SOL     OW24562  10.339   5.972   2.871  0.3936 -0.1148  0.0742
39171SOL    HW124563  10.373   6.059   2.892  2.3187 -0.6048 -0.7779
39171SOL    HW224564  10.276   5.954   2.941  0.3233  1.7334  0.5545
39172SOL     OW24565   5.191   8.981   5.048  0.3202  0.9028  0.1985
39172SOL    HW124566   5.240   9.056   5.083  0.7349  0.2164  1.1435
39172SOL    HW224567   5.256   8.910   5.043 -0.4270  0.1537  0.8519
39173SOL     OW24568   5.031   8.717  11.217 -0.7578  0.1720  0.5061
39173SOL    HW124569   5.003   8.690  11.305 -0.8332  2.5209  1.2778
39173SOL    HW224570   4.952   8.752  11.177 -0.3331  0.8172  0.2217
39174SOL     OW24571  10.764   2.956   2.952 -0.0003  0.6675  0.1942
39174SOL    HW124572  10.696   2.889   2.945  1.2638 -1.0565  2.5814
39174SOL    HW224573  10.749   3.014   2.878 -2.4315 -1.1094 -0.8456
39175SOL     OW24574   2.949   8.003  10.915  0.0491  0.1315 -0.1023
39175SOL    HW124575   2.861   7.995  10.878 -0.3669 -1.5230  1.1150
39175SOL    HW224576   2.968   8.096  10.913 -2.0006  0.5990  0.2220
39176SOL     OW24577  10.672  11.426  11.121 -0.1130 -0.3616 -0.0158
39176SOL    HW124578  10.636  11.507  11.157  0.2551 -1.0923  2.1833
39176SOL    HW224579  10.605  11.393  11.062 -0.4655  1.2766 -0.5862
39177SOL     OW24580   5.760   6.977   4.263  0.4396 -0.6250  0.2260
39177SOL    HW124581   5.853   6.953   4.268  0.9432  0.8502 -1.0637
39177SOL    HW224582   5.757   7.044   4.195 -1.5571 -0.4675  0.4195
39178SOL     OW24583  12.125   8.117   7.720 -0.7880 -0.3224  0.1970
39178SOL    HW124584  12.169   8.032   7.729  1.2892  0.7523  0.7293
39178SOL    HW224585  12.194   8.181   7.736 -2.5178  1.4817  0.7638
39179SOL     OW24586   0.570   6.510  12.146  0.4337  0.2775 -0.5948
39179SOL    HW124587   0.542   6.530  12.236  4.3946 -0.7147  1.0996
39179SOL    HW224588   0.646   6.566  12.132  1.4298 -1.3802 -2.3091
39180SOL     OW24589  11.110   3.764  10.743 -0.2397 -0.2997 -0.2373
39180SOL    HW124590  11.123   3.846  10.695  0.8098 -0.5876 -0.4722
39180SOL    HW224591  11.144   3.782  10.831  0.2692 -0.5598 -0.3746
39181SOL     OW24592  10.666   7.971  12.073  0.0155 -0.5196 -0.1741
39181SOL    HW124593  10.617   7.918  12.136 -0.4883 -0.1347 -0.2327
39181SOL    HW224594  10.598   8.005  12.014  0.0499  1.8573  1.0585
39182SOL     OW24595   3.308   7.007  11.630 -0.1015 -0.2939 -0.2571
39182SOL    HW124596   3.295   6.912  11.624 -0.2457 -0.4402  1.7224
39182SOL    HW224597   3.255   7.034  11.705 -0.0151  1.3623 -0.7469
39183SOL     OW24598   5.588   5.188  12.453 -0.2456 -0.0707 -0.3488
39183SOL    HW124599   5.546   5.147  12.528 -1.1151 -2.8415 -2.1795
39183SOL    HW224600   5.517   5.200  12.389  0.8527  0.0232 -1.5886
39184SOL     OW24601   3.402  10.896   0.803  0.0678 -0.1573 -0.0868
39184SOL    HW124602   3.338  10.941   0.858 -1.2498  0.9838 -2.3919
39184SOL    HW224603   3.349  10.841   0.745  1.4171 -1.6366  0.0161
39185SOL     OW24604   8.515   7.015   3.359 -0.6955 -0.5752  0.1910
39185SOL    HW124605   8.596   7.026   3.409 -0.3296  0.8427 -0.6713
39185SOL    HW224606   8.508   6.920   3.345  0.4341 -0.7788  0.8756
39186SOL     OW24607  11.825   7.414   7.310 -0.2168 -0.0177  0.2501
39186SOL    HW124608  11.804   7.396   7.401 -2.0051 -0.4129 -0.2081
39186SOL    HW224609  11.816   7.509   7.301 -0.3946 -0.0213  0.3990
39187SOL     OW24610  10.684   4.711  10.881  0.6500  0.0219  0.1443
39187SOL    HW124611  10.707   4.774  10.949  1.3701  1.2382 -1.1764
39187SOL    HW224612  10.595   4.735  10.854 -0.5014 -1.7618  2.0103
39188SOL     OW24613   0.310   7.215   8.257 -0.3455  0.4904  0.3362
39188SOL    HW124614   0.301   7.190   8.349 -0.2141 -0.8520  0.0162
39188SOL    HW224615   0.368   7.148   8.220 -2.6611 -0.7384 -1.3570
39189SOL     OW24616   6.088   8.689   3.495  0.2049 -0.0242 -0.6392
39189SOL    HW124617   6.153   8.741   3.543 -0.5538 -1.3420  1.9835
39189SOL    HW224618   6.043   8.638   3.562 -1.1091 -1.8620 -2.7600
39190SOL     OW24619   3.606  11.498   2.451  0.1237 -0.2720 -0.1742
39190SOL    HW124620   3.600  11.547   2.369  0.5359  0.5509  0.2818
39190SOL    HW224621   3.609  11.406   2.423 -0.8961 -0.0716 -1.0280
39191SOL     OW24622   3.481   3.203  10.098  0.2351  0.3380 -0.1358
39191SOL    HW124623   3.395   3.218  10.138  0.4699 -0.1837  0.5734
39191SOL    HW224624   3.516   3.128  10.144  0.5611 -0.2195 -1.2623
39192SOL     OW24625   6.074   4.379   6.773 -0.0411  0.3392 -0.0455
39192SOL    HW124626   6.134   4.336   6.712  2.0883  1.1811  1.3445
39192SOL    HW224627   6.073   4.471   6.746 -1.3438  0.2296 -0.4827
39193SOL     OW24628   3.704   7.025   1.526  1.0321 -0.0573 -0.0499
39193SOL    HW124629   3.707   6.993   1.616  0.9888 -1.4598 -0.5236
39193SOL    HW224630   3.611   7.038   1.508  0.9886 -0.4640 -0.1215
39194SOL     OW24631   9.963   2.989   2.952 -0.1187 -0.7287  0.6965
39194SOL    HW124632  10.017   2.957   3.024  1.7617 -0.6343 -0.6266
39194SOL    HW224633   9.878   2.946   2.965  0.3815 -1.2374  2.5538
39195SOL     OW24634  10.308  11.238   0.757  0.4501  0.3448  0.6551
39195SOL    HW124635  10.402  11.247   0.768  0.4697  1.6467 -0.3401
39195SOL    HW224636  10.270  11.287   0.830  0.5545  0.5937  0.5444
39196SOL     OW24637   4.502  12.570  11.170  0.2923  0.2729  0.3607
39196SOL    HW124638   4.461  12.560  11.084  0.7554 -2.2260  0.3531
39196SOL    HW224639   4.510  12.480  11.203 -1.1791  1.2211  3.6649
39197SOL     OW24640   4.429   6.891   2.281  0.1272 -0.1004  0.2451
39197SOL    HW124641   4.466   6.976   2.306 -0.2717  0.4758 -1.0459
39197SOL    HW224642   4.505   6.835   2.264  0.4197  0.6160 -0.8897
39198SOL     OW24643  11.297  11.160  10.415  0.6746 -0.3075 -0.2814
39198SOL    HW124644  11.253  11.226  10.469 -0.8182  0.9548 -2.8671
39198SOL    HW224645  11.245  11.080  10.427  0.4317 -0.0869  0.1611
39199SOL     OW24646   4.792   4.140   0.752  0.4285 -0.7501  0.2729
39199SOL    HW124647   4.870   4.194   0.765 -0.0015 -0.2456  0.8074
39199SOL    HW224648   4.744   4.184   0.682 -1.0417  0.9025  2.1907
39200SOL     OW24649   7.351   7.221   2.546  0.9443  0.4742 -0.2201
39200SOL    HW124650   7.306   7.163   2.606  0.1129  0.7218 -0.5898
39200SOL    HW224651   7.389   7.290   2.601 -0.4731  1.1348 -0.0269
39201SOL     OW24652   2.346   8.918  12.487  0.5743 -0.0845  0.2239
39201SOL    HW124653   2.420   8.891  12.542  0.1848  1.4243  1.5774
39201SOL    HW224654   2.268   8.890  12.535  0.2360  0.2410 -0.1210
39202SOL     OW24655  11.966   5.264   1.374 -0.3446  0.0034  0.3843
39202SOL    HW124656  12.024   5.333   1.406  0.4904 -0.1974 -0.6282
39202SOL    HW224657  11.923   5.302   1.298  0.7457 -0.8279 -0.6862
39203SOL     OW24658   3.589   9.796   3.629  0.3058 -0.3499  0.0393
39203SOL    HW124659   3.601   9.852   3.705 -0.6506 -2.4297  1.8078
39203SOL    HW224660   3.614   9.852   3.555  0.6228  1.9662  1.7647
39204SOL     OW24661   3.669   8.048   7.224  0.2673 -0.7358  0.6169
39204SOL    HW124662   3.651   7.955   7.212 -0.5810 -0.6955  1.4993
39204SOL    HW224663   3.709   8.075   7.141 -1.1713 -1.4723 -0.3576
39205SOL     OW24664   0.724   9.850   2.978 -0.2141  0.2498 -0.0270
39205SOL    HW124665   0.682   9.772   2.942  1.7067 -1.7515  1.7811
39205SOL    HW224666   0.667   9.877   3.050 -0.7606  0.4029 -0.5070
39206SOL     OW24667  10.754   3.816   8.329 -0.0282 -0.2014  0.2674
39206SOL    HW124668  10.749   3.741   8.269 -0.0993 -0.9111  1.1414
39206SOL    HW224669  10.704   3.788   8.406 -0.5616  0.9817  0.3706
39207SOL     OW24670  11.389   0.559   2.341  0.3960  0.5323 -0.0342
39207SOL    HW124671  11.392   0.550   2.436 -0.9756  2.2330  0.2429
39207SOL    HW224672  11.299   0.534   2.318  1.1874 -1.5037 -1.1458
39208SOL     OW24673   5.320   6.879   3.850 -0.0012 -0.1049  0.3585
39208SOL    HW124674   5.263   6.951   3.876 -0.8345  0.5986 -2.9576
39208SOL    HW224675   5.369   6.912   3.774  0.8022 -2.4719 -0.2679
39209SOL     OW24676   7.662   7.513   3.637 -0.3034  0.8347  0.1361
39209SOL    HW124677   7.612   7.474   3.565 -2.1016  0.8730  1.2907
39209SOL    HW224678   7.617   7.596   3.655  1.2309  1.6968  0.1210
39210SOL     OW24679   8.769  11.065   8.210  0.4016  0.1858  0.4698
39210SOL    HW124680   8.754  11.052   8.303  0.0747 -2.4606  0.1187
39210SOL    HW224681   8.696  11.019   8.167  1.5740 -0.3032 -1.1036
39211SOL     OW24682   0.296   0.111   4.495  0.0453 -0.2344  0.2945
39211SOL    HW124683   0.357   0.099   4.422  0.1497  0.3412  0.2836
39211SOL    HW224684   0.210   0.093   4.458  0.0723  0.3218 -0.0371
39212SOL     OW24685  10.521   4.099   6.079 -0.2640  0.3820  0.4243
39212SOL    HW124686  10.529   4.116   6.173 -2.0838 -0.5850  0.7980
39212SOL    HW224687  10.427   4.102   6.062 -0.1662 -1.8181 -0.8732
39213SOL     OW24688   2.158   1.370  11.652 -1.0313  0.6460  0.4273
39213SOL    HW124689   2.108   1.331  11.723 -1.3071 -2.4237 -1.2698
39213SOL    HW224690   2.229   1.417  11.695 -2.2503  0.4968  2.7207
39214SOL     OW24691   9.520   7.098   6.464 -0.2763 -0.3196 -0.2414
39214SOL    HW124692   9.436   7.138   6.443 -0.3733  1.2426  2.5910
39214SOL    HW224693   9.501   7.034   6.533  0.5735 -1.7366 -1.2682
39215SOL     OW24694  10.517  10.056   3.046  0.6804  0.1472 -0.3181
39215SOL    HW124695  10.527   9.962   3.028  0.7543  0.2151 -0.6411
39215SOL    HW224696  10.596  10.079   3.096  0.7423  0.0720 -0.3806
39216SOL     OW24697   4.061   2.017   6.350  0.0348  0.0099  0.0260
39216SOL    HW124698   4.139   2.044   6.302 -1.1613 -0.6507 -2.4228
39216SOL    HW224699   4.068   1.921   6.355 -0.8323 -0.0982 -0.6485
39217SOL     OW24700   7.264   1.638   8.779  0.2914  0.1826  0.0922
39217SOL    HW124701   7.203   1.699   8.739  0.0428 -0.2062 -0.1311
39217SOL    HW224702   7.311   1.599   8.705 -0.0224 -0.3836  0.1842
39218SOL     OW24703   7.158   6.692  11.838 -0.1947  0.2860 -0.1013
39218SOL    HW124704   7.135   6.784  11.822  1.7965  1.1309  1.3831
39218SOL    HW224705   7.107   6.643  11.774 -2.8210  2.2416  0.3026
39219SOL     OW24706   4.491  12.147   9.442 -0.2910  0.1267 -0.3303
39219SOL    HW124707   4.516  12.147   9.535 -1.5071  1.3997  0.0432
39219SOL    HW224708   4.568  12.113   9.396  0.2237 -0.8454  1.1619
39220SOL     OW24709   9.697  11.872  11.566  0.4218  0.2518  0.3811
39220SOL    HW124710   9.706  11.811  11.639  0.9500  3.0800  2.8207
39220SOL    HW224711   9.766  11.845  11.505 -0.0817 -2.2298  0.7848
39221SOL     OW24712   1.391  11.559   6.160 -0.5787  0.0103 -0.0346
39221SOL    HW124713   1.431  11.477   6.187  1.0828  1.0244  0.7136
39221SOL    HW224714   1.389  11.556   6.065 -0.9927 -1.0898  0.0018
39222SOL     OW24715   4.639   6.010   6.204 -0.3838 -0.2316  0.2886
39222SOL    HW124716   4.679   5.945   6.261 -0.1150 -1.2806 -1.0663
39222SOL    HW224717   4.691   6.089   6.218  2.2852 -1.5275 -1.4023
39223SOL     OW24718   9.299   3.046   8.539  0.4045 -0.5098 -0.4831
39223SOL    HW124719   9.335   2.981   8.600  2.2319 -0.2329 -1.2186
39223SOL    HW224720   9.299   3.002   8.454  2.0342  0.5383 -1.0599
39224SOL     OW24721   5.683   4.614  10.377  0.5803  0.6863 -0.5605
39224SOL    HW124722   5.736   4.637  10.453  0.6101  1.1683 -0.7238
39224SOL    HW224723   5.706   4.679  10.310  0.2073  0.5545 -0.8243
39225SOL     OW24724   9.237   4.422   0.713 -0.0190  0.1428 -0.3459
39225SOL    HW124725   9.186   4.476   0.774  0.7091  0.5086 -0.0430
39225SOL    HW224726   9.309   4.479   0.686  0.0808 -0.2736 -0.9758
39226SOL     OW24727   1.168   7.463   3.320  0.5185  0.0014  0.0333
39226SOL    HW124728   1.169   7.423   3.233  0.5430  0.1989 -0.0567
39226SOL    HW224729   1.185   7.556   3.305 -0.7678  0.2630  0.1367
39227SOL     OW24730   1.605   2.740   5.815 -0.0301 -0.6809  0.5958
39227SOL    HW124731   1.598   2.700   5.728 -0.8680  2.2125 -0.8057
39227SOL    HW224732   1.517   2.734   5.852 -0.9007  1.9966 -0.7670
39228SOL     OW24733   8.316   1.501   2.395  0.1738  0.2413 -0.0241
39228SOL    HW124734   8.316   1.418   2.444 -1.4524 -0.6744 -1.4577
39228SOL    HW224735   8.223   1.516   2.374  0.6071  1.6739 -1.0383
39229SOL     OW24736   2.024  11.910   8.005  0.5040  0.0936  0.2998
39229SOL    HW124737   2.021  12.005   7.995  0.1514  0.1261  0.7159
39229SOL    HW224738   2.098  11.894   8.062 -0.2613  0.2154  1.3475
39230SOL     OW24739   8.126   8.503   8.940  0.0100  0.5827 -0.0589
39230SOL    HW124740   8.081   8.441   8.882  1.2783  0.5522 -1.0627
39230SOL    HW224741   8.078   8.585   8.929  0.4427  0.6744 -1.4594
39231SOL     OW24742   7.345   9.761   5.757  0.7956 -0.4457  0.3446
39231SOL    HW124743   7.258   9.721   5.760  1.0791 -1.0488  1.1521
39231SOL    HW224744   7.379   9.749   5.846  1.7234 -0.2803  0.0190
39232SOL     OW24745   8.691   5.793   4.675 -0.7425  0.7367 -0.2601
39232SOL    HW124746   8.783   5.792   4.702 -0.6043  0.3474 -0.7352
39232SOL    HW224747   8.657   5.877   4.707 -0.0954  1.1013 -0.5213
39233SOL     OW24748   3.279   1.337   4.138 -0.9319  0.6760 -0.0387
39233SOL    HW124749   3.262   1.335   4.232 -2.1541  0.5902 -0.2428
39233SOL    HW224750   3.298   1.429   4.120  2.8665  0.2210  0.8181
39234SOL     OW24751   2.986   7.953   3.312 -0.2954  0.1601  0.2307
39234SOL    HW124752   2.962   8.004   3.389  1.1933  0.6587  0.3768
39234SOL    HW224753   2.928   7.876   3.315 -1.5567  1.0937  0.7920
39235SOL     OW24754   1.744   3.868  10.830  0.4585 -0.1533  0.5563
39235SOL    HW124755   1.801   3.820  10.770  0.1022 -0.8306  0.7466
39235SOL    HW224756   1.788   3.952  10.844 -0.3181  0.7909 -2.0700
39236SOL     OW24757   1.121   5.399  12.313 -0.3172 -0.0924 -0.8001
39236SOL    HW124758   1.144   5.490  12.295 -1.2179  0.2426 -0.3132
39236SOL    HW224759   1.080   5.401  12.400 -2.1145 -0.6573 -1.6000
39237SOL     OW24760  10.083   4.248   4.381 -0.2878  0.4451 -0.2824
39237SOL    HW124761  10.122   4.195   4.311  1.1878  2.1759 -0.8539
39237SOL    HW224762  10.025   4.309   4.335 -1.8795 -0.5284  0.3573
39238SOL     OW24763  12.382   3.910   7.541 -0.2299 -0.1181  0.3709
39238SOL    HW124764  12.303   3.941   7.585 -0.7614  0.1463 -0.7547
39238SOL    HW224765  12.398   3.974   7.472  0.5890 -0.5370  0.1616
39239SOL     OW24766   3.157   3.007   9.507 -0.2103 -0.1137 -0.0266
39239SOL    HW124767   3.172   2.912   9.500 -1.0833 -0.1943 -1.0132
39239SOL    HW224768   3.066   3.019   9.480 -0.3801  0.9202  0.9211
39240SOL     OW24769  10.635   8.006   9.348  0.4247 -0.6308  0.3672
39240SOL    HW124770  10.655   7.926   9.397  0.5875 -0.2344  0.9559
39240SOL    HW224771  10.711   8.019   9.292  0.7348 -0.4866  0.8099
39241SOL     OW24772   7.313   7.972   9.682  0.0194  0.0604  0.5685
39241SOL    HW124773   7.336   7.883   9.707 -0.3415  0.2754  1.6861
39241SOL    HW224774   7.391   8.024   9.703  1.3905 -0.3754 -2.7489
39242SOL     OW24775   0.993   2.413  11.393 -0.3858 -0.5233 -0.6674
39242SOL    HW124776   1.007   2.492  11.445 -1.5084 -0.4766 -0.4062
39242SOL    HW224777   0.935   2.358  11.447 -0.1714 -1.2264 -1.1376
39243SOL     OW24778   4.553   2.288   8.504 -0.6080  1.1099 -0.5033
39243SOL    HW124779   4.506   2.295   8.587  1.4043 -0.4508  0.8581
39243SOL    HW224780   4.503   2.225   8.453 -0.7744  0.5544  0.3318
39244SOL     OW24781  10.046   5.577   1.372 -0.5368  0.0217 -0.1269
39244SOL    HW124782  10.030   5.507   1.309  1.3953 -0.5107 -0.1100
39244SOL    HW224783  10.074   5.531   1.452  0.1162  0.7661  0.0922
39245SOL     OW24784   0.626   8.551  11.255 -0.0201 -0.4208 -0.0101
39245SOL    HW124785   0.563   8.558  11.327 -0.5439 -0.1419 -0.4823
39245SOL    HW224786   0.677   8.632  11.260 -0.0255 -0.4224  0.0743
39246SOL     OW24787   1.208   2.136   4.318  0.6684 -0.0386 -0.0730
39246SOL    HW124788   1.265   2.204   4.280 -0.1399  0.7668  0.1085
39246SOL    HW224789   1.186   2.079   4.245  0.9778  0.1701 -0.3318
39247SOL     OW24790   8.792   6.886  11.291 -0.4021  0.6362 -0.2377
39247SOL    HW124791   8.804   6.870  11.198  0.6418 -3.2134  0.3819
39247SOL    HW224792   8.881   6.898  11.325 -0.6950  1.0456  0.4130
39248SOL     OW24793   8.926   1.536  10.678  0.4099 -0.5440 -0.2652
39248SOL    HW124794   8.991   1.606  10.680  0.4747 -0.6162  0.1725
39248SOL    HW224795   8.856   1.566  10.736  0.4461 -0.8501 -0.0601
39249SOL     OW24796   9.689   8.114   6.554  0.4916 -0.2037 -0.5430
39249SOL    HW124797   9.719   8.092   6.643 -1.7714 -0.2518  0.2730
39249SOL    HW224798   9.763   8.093   6.498  0.9982 -3.0962  1.0158
39250SOL     OW24799   0.399   4.955   0.316  0.2018 -0.4448  0.5872
39250SOL    HW124800   0.379   4.970   0.223  0.9485 -1.2025  0.2872
39250SOL    HW224801   0.485   4.995   0.328  0.0989 -0.3359  0.9677
39251SOL     OW24802  10.845   5.961   4.803  0.2316 -0.0901 -0.1691
39251SOL    HW124803  10.769   5.972   4.746  0.2034  4.0148  0.2913
39251SOL    HW224804  10.914   6.012   4.760  1.0927  0.6108  1.9005
39252SOL     OW24805   0.242  11.301  12.183 -0.1392 -0.1254 -0.3944
39252SOL    HW124806   0.184  11.229  12.159  0.0700 -0.1642 -0.7919
39252SOL    HW224807   0.191  11.355  12.244  0.2799 -1.5231  1.2678
39253SOL     OW24808   6.650  11.831   3.369 -0.6676  0.0224 -0.0749
39253SOL    HW124809   6.739  11.841   3.334 -0.5654 -0.1250  0.1367
39253SOL    HW224810   6.642  11.900   3.435 -0.8501  0.2835 -0.3657
39254SOL     OW24811   2.803   0.737  11.818  0.6630 -0.9136 -0.4525
39254SOL    HW124812   2.899   0.730  11.817  0.9261  1.2555  1.5105
39254SOL    HW224813   2.782   0.769  11.906 -1.7646 -0.2265 -1.2039
39255SOL     OW24814  11.888  11.768   1.180  0.3167 -0.3873 -0.1523
39255SOL    HW124815  11.859  11.759   1.090 -0.7394  3.0921 -0.3139
39255SOL    HW224816  11.982  11.788   1.173 -0.4482  4.1260 -1.0809
39256SOL     OW24817   7.871  10.558   5.009 -0.1915 -0.4250 -0.4565
39256SOL    HW124818   7.948  10.549   5.065 -0.5936 -2.0889 -0.1168
39256SOL    HW224819   7.887  10.500   4.935 -0.9217 -0.4515 -0.6059
39257SOL     OW24820   1.073   2.191   5.098 -0.1562  0.0716  0.5077
39257SOL    HW124821   1.032   2.183   5.184 -0.8468 -1.1847  0.0956
39257SOL    HW224822   1.159   2.230   5.115 -0.7235  0.8593  1.6249
39258SOL     OW24823  12.523   6.216   0.862  0.6589  0.0191 -0.0498
39258SOL    HW124824  12.439   6.248   0.828  0.1191 -1.2452  0.0628
39258SOL    HW224825  12.582   6.291   0.852 -0.5747  1.0714  0.2736
39259SOL     OW24826   8.458   4.290  11.098 -0.3321  0.0732  0.0934
39259SOL    HW124827   8.427   4.208  11.137 -2.5647  1.2108  0.9067
39259SOL    HW224828   8.543   4.305  11.139  0.1756 -1.8286 -0.1350
39260SOL     OW24829  11.193   9.928  10.729  0.0426 -0.1800 -0.5298
39260SOL    HW124830  11.131   9.998  10.751 -0.9723 -1.4204  0.7292
39260SOL    HW224831  11.141   9.868  10.675  0.0519 -1.3180  0.6764
39261SOL     OW24832   8.416   6.609  10.085  0.2578 -0.0320 -0.3550
39261SOL    HW124833   8.443   6.518  10.081  0.2776  0.0080 -1.7089
39261SOL    HW224834   8.433   6.643   9.997 -3.1282  0.2956 -1.0270
39262SOL     OW24835  10.493   6.240  11.582  0.1579 -0.4590 -0.0015
39262SOL    HW124836  10.462   6.329  11.567  3.8756  0.9933 -0.1196
39262SOL    HW224837  10.422   6.197  11.630 -1.3463  2.8472  0.9812
39263SOL     OW24838   7.194   6.497   2.221  0.1040 -0.4349  0.0886
39263SOL    HW124839   7.272   6.500   2.165 -0.1815 -0.1970 -0.3035
39263SOL    HW224840   7.159   6.586   2.218  0.2981 -0.3163  0.9625
39264SOL     OW24841   0.591   9.688   4.326  0.8357 -0.4584  0.5211
39264SOL    HW124842   0.627   9.777   4.320  1.6025 -0.8593 -3.1553
39264SOL    HW224843   0.668   9.632   4.340  0.4168 -0.6717  2.2425
39265SOL     OW24844   3.233   9.736  12.225  0.0232  0.7039  0.1696
39265SOL    HW124845   3.162   9.688  12.268 -1.2626 -0.1123 -2.6416
39265SOL    HW224846   3.190   9.813  12.188  0.2821 -0.3073 -2.4276
39266SOL     OW24847   7.205  10.307   4.512  0.1104  0.1950  0.4674
39266SOL    HW124848   7.126  10.345   4.550  0.2505 -1.4498  2.5623
39266SOL    HW224849   7.268  10.305   4.585  0.0275 -4.1854  0.6556
39267SOL     OW24850  10.990   4.325   4.990 -0.3737 -0.3575  0.2551
39267SOL    HW124851  10.907   4.310   4.945 -0.4007 -0.0851  0.2102
39267SOL    HW224852  11.056   4.321   4.921 -0.6378  2.6790 -0.3292
39268SOL     OW24853   7.259   4.636  11.897  0.5988 -0.0064  0.2349
39268SOL    HW124854   7.213   4.581  11.959  1.5254 -1.1619 -0.0701
39268SOL    HW224855   7.306   4.700  11.951  2.0146 -1.4696  0.8116
39269SOL     OW24856   8.214   4.351   9.778  0.2022  0.3286 -0.4329
39269SOL    HW124857   8.249   4.284   9.837  0.4058 -0.2849 -1.2276
39269SOL    HW224858   8.283   4.417   9.773  0.1633  0.4066  0.0492
39270SOL     OW24859   9.460   1.485   9.158 -0.2494 -0.1672 -0.0230
39270SOL    HW124860   9.395   1.555   9.155 -0.4723 -0.3836 -0.3207
39270SOL    HW224861   9.492   1.477   9.068 -1.0643 -1.2134 -0.2456
39271SOL     OW24862   9.935  11.892   1.936 -0.4067 -0.4983  0.4401
39271SOL    HW124863   9.901  11.802   1.939 -0.3932 -0.5083  0.2945
39271SOL    HW224864  10.027  11.883   1.964  0.1398 -0.7992 -1.3507
39272SOL     OW24865   1.185   2.617   7.593 -0.0047  0.0679 -0.8009
39272SOL    HW124866   1.253   2.685   7.595 -2.0007  2.1743 -1.0836
39272SOL    HW224867   1.203   2.564   7.670  2.9081 -0.4750 -1.7324
39273SOL     OW24868   4.271   2.564   9.828  0.1267 -0.1740  0.6517
39273SOL    HW124869   4.342   2.544   9.767  0.9604 -0.0537  1.5476
39273SOL    HW224870   4.233   2.479   9.849 -1.1468 -0.0982 -1.1312
39274SOL     OW24871   8.452   4.945   4.974 -0.3536  0.1395 -0.8055
39274SOL    HW124872   8.453   4.853   4.949 -2.6247  0.6357 -3.1035
39274SOL    HW224873   8.395   4.948   5.051  1.8995 -0.6295  1.0091
39275SOL     OW24874   4.385   2.615   8.313  0.0399  0.8032 -0.7841
39275SOL    HW124875   4.381   2.654   8.400 -0.3670  0.1930 -0.5235
39275SOL    HW224876   4.327   2.539   8.318  1.5136 -0.3842 -0.9980
39276SOL     OW24877   2.075  11.341   9.078 -0.5296 -0.2931 -0.2976
39276SOL    HW124878   2.119  11.426   9.085  0.3757 -0.7751 -0.0144
39276SOL    HW224879   2.122  11.296   9.008 -1.7734 -0.1151 -1.2708
39277SOL     OW24880   5.967   5.248  11.616  0.6257 -0.2105 -0.6154
39277SOL    HW124881   5.943   5.167  11.662  1.5002 -0.1645 -0.0517
39277SOL    HW224882   5.893   5.265  11.558 -1.4519  0.6984  2.0395
39278SOL     OW24883   8.702   0.137   9.793 -0.2087 -0.1776  0.5855
39278SOL    HW124884   8.726   0.070   9.857 -0.1823 -0.0308  0.7299
39278SOL    HW224885   8.627   0.100   9.747  1.3080 -1.3953 -1.0565
39279SOL     OW24886   1.119   3.150   1.105 -0.1766 -0.5760  0.1151
39279SOL    HW124887   1.041   3.184   1.062  0.6491  1.3453  0.0033
39279SOL    HW224888   1.121   3.194   1.190  0.8037 -0.5278  0.0855
39280SOL     OW24889   7.861  11.108   0.499  1.0403 -0.0549  0.2286
39280SOL    HW124890   7.829  11.085   0.411 -0.4714 -0.2790  0.8126
39280SOL    HW224891   7.924  11.039   0.520 -0.5694 -1.5355  0.3754
39281SOL     OW24892   8.230   2.817  12.261 -0.4565  0.1477 -0.3299
39281SOL    HW124893   8.174   2.860  12.197 -0.8734 -0.6736 -0.5256
39281SOL    HW224894   8.301   2.879  12.277 -1.7578  1.5134  0.4319
39282SOL     OW24895  11.821   2.057   2.350 -0.6420 -0.0392 -0.0576
39282SOL    HW124896  11.828   2.115   2.274  1.3329  0.3785  0.3795
39282SOL    HW224897  11.825   2.115   2.425  0.3394 -0.6422  0.3795
39283SOL     OW24898   5.126   0.682  10.453  0.6768  0.4840 -0.1332
39283SOL    HW124899   5.190   0.651  10.389 -1.0826 -1.1769 -1.1788
39283SOL    HW224900   5.055   0.618  10.450 -0.0731  1.0278  2.5877
39284SOL     OW24901   1.387   7.097   3.294 -0.1437  0.5184 -0.2106
39284SOL    HW124902   1.299   7.066   3.273  0.0386  0.0379 -0.2631
39284SOL    HW224903   1.374   7.159   3.366 -0.2714 -1.6398  1.7641
39285SOL     OW24904   3.341   4.642   2.588 -0.0585  0.0396  0.0229
39285SOL    HW124905   3.279   4.715   2.592  0.5427  0.6321 -1.1476
39285SOL    HW224906   3.294   4.574   2.541 -0.7625 -0.5044  1.4502
39286SOL     OW24907   3.553   0.405   9.568 -0.4624 -0.0125 -0.1641
39286SOL    HW124908   3.537   0.498   9.584 -0.7554 -0.2363  0.9019
39286SOL    HW224909   3.632   0.385   9.618 -0.1510 -0.2514 -0.7360
39287SOL     OW24910   4.603   4.305   1.181  0.2928  0.3398 -0.5550
39287SOL    HW124911   4.635   4.311   1.091  0.3079  0.1374 -0.5616
39287SOL    HW224912   4.508   4.307   1.172  0.2441 -1.3348 -0.6948
39288SOL     OW24913   7.242   8.577   9.000  0.4704  0.2009  0.2843
39288SOL    HW124914   7.277   8.488   8.996 -1.0634 -0.4246  0.3330
39288SOL    HW224915   7.276   8.612   9.083  1.1824 -0.2823  0.2026
39289SOL     OW24916   7.630   1.123   0.799  0.8929  0.0232  0.4173
39289SOL    HW124917   7.567   1.135   0.728 -1.1031  1.1095  2.2392
39289SOL    HW224918   7.700   1.185   0.780  0.3658  0.3355 -0.5759
39290SOL     OW24919  10.608   4.483   2.022  0.9949  0.5756 -0.0887
39290SOL    HW124920  10.646   4.454   2.104  1.8165  0.9067 -0.3447
39290SOL    HW224921  10.683   4.503   1.966  0.5046 -1.1315 -1.4728
39291SOL     OW24922   3.425  10.558  11.112  0.0864 -0.2474  0.2754
39291SOL    HW124923   3.490  10.576  11.180  0.0841 -0.0303  0.2218
39291SOL    HW224924   3.456  10.608  11.036  0.3590 -0.8842 -0.0363
39292SOL     OW24925   6.320   5.806  11.667  0.1053  0.0115 -0.2951
39292SOL    HW124926   6.315   5.862  11.590  0.4785 -1.0003 -1.0890
39292SOL    HW224927   6.349   5.721  11.633 -2.2365 -1.2286  0.5584
39293SOL     OW24928   3.017   9.766   5.418 -0.0340  0.1987 -0.2350
39293SOL    HW124929   2.933   9.781   5.375 -0.2707 -0.0681  0.1225
39293SOL    HW224930   3.039   9.675   5.396  0.8612  0.6896 -1.4998
39294SOL     OW24931   5.589  11.643   1.268 -0.5327  0.3472  0.2430
39294SOL    HW124932   5.576  11.598   1.185 -1.0623 -0.2064  0.6170
39294SOL    HW224933   5.509  11.695   1.279 -0.6922  0.0144  0.6572
39295SOL     OW24934   8.001   7.545   6.770  0.2520  0.1211  0.2246
39295SOL    HW124935   7.961   7.618   6.816 -0.8074 -1.1265  1.3861
39295SOL    HW224936   7.994   7.471   6.831  0.5902 -1.1275 -1.1759
39296SOL     OW24937  10.407   4.232   3.098  0.2314  0.2910  0.4204
39296SOL    HW124938  10.403   4.250   3.005 -0.5708 -0.9940  0.1928
39296SOL    HW224939  10.320   4.200   3.121  0.3667  0.7456  1.6448
39297SOL     OW24940   8.709   8.096   3.458  0.4165 -0.1817 -0.0327
39297SOL    HW124941   8.798   8.102   3.494 -0.2663  2.0767  1.5125
39297SOL    HW224942   8.667   8.177   3.486 -2.7260 -1.9803  0.9512
39298SOL     OW24943   6.137  11.100   8.080 -0.4683  0.1035  0.6975
39298SOL    HW124944   6.042  11.094   8.090 -0.3515 -0.6868  1.4802
39298SOL    HW224945   6.150  11.112   7.986 -1.3148 -0.9770  0.4086
39299SOL     OW24946   6.248   2.275   2.663 -0.6548  0.5373  0.3292
39299SOL    HW124947   6.212   2.188   2.650 -0.9941  0.6138  0.7207
39299SOL    HW224948   6.301   2.268   2.743  0.8175  0.2453 -0.6375
39300SOL     OW24949   4.069   3.807   6.711 -0.0540 -0.1194 -0.3862
39300SOL    HW124950   4.154   3.816   6.754 -0.0279 -0.2516 -0.4071
39300SOL    HW224951   4.069   3.872   6.641  0.7986 -1.3674 -1.6176
39301SOL     OW24952   7.499   7.816   4.709  0.0931  0.0651  0.3613
39301SOL    HW124953   7.447   7.893   4.685  0.6696  0.0702 -0.9748
39301SOL    HW224954   7.440   7.742   4.697  0.5184  0.0116 -1.7832
39302SOL     OW24955   1.122   6.122   1.757  0.1234 -0.2260 -0.2934
39302SOL    HW124956   1.042   6.076   1.784 -0.6497  1.5079  0.4810
39302SOL    HW224957   1.170   6.057   1.706 -0.6793 -2.0480  1.1502
39303SOL     OW24958   0.803   9.380  10.289 -0.6161 -0.5558  0.0248
39303SOL    HW124959   0.734   9.319  10.264 -0.4820 -1.0038  0.7259
39303SOL    HW224960   0.792   9.392  10.383  1.4878 -2.2145  0.5588
39304SOL     OW24961   0.403   2.644  10.672  0.2626  0.2172 -0.0441
39304SOL    HW124962   0.478   2.695  10.641 -0.7920  2.2464  0.5716
39304SOL    HW224963   0.438   2.557  10.687  1.9316  0.4645 -2.1016
39305SOL     OW24964   7.528  10.080   3.258  0.0811  0.0668 -0.5195
39305SOL    HW124965   7.589  10.011   3.286 -1.2205 -0.9599 -0.0807
39305SOL    HW224966   7.501  10.122   3.340 -1.5921 -1.0880 -0.4186
39306SOL     OW24967   0.254   0.426   1.772  0.2705  0.2957 -0.0338
39306SOL    HW124968   0.260   0.446   1.678  1.1657 -0.6236 -0.1907
39306SOL    HW224969   0.292   0.503   1.815 -2.1505  1.7223 -0.2752
39307SOL     OW24970   1.424   9.871   0.489 -0.5962  0.4095  0.7986
39307SOL    HW124971   1.351   9.814   0.463  0.1749 -0.5775  0.7524
39307SOL    HW224972   1.435   9.931   0.416  0.5484 -1.3460 -0.5335
39308SOL     OW24973   2.766   7.196   0.400 -0.2764  0.2863  0.1811
39308SOL    HW124974   2.775   7.244   0.318 -2.5298 -0.1476 -0.4051
39308SOL    HW224975   2.744   7.263   0.465 -0.4812  0.4106 -0.0141
39309SOL     OW24976   4.204   4.708   2.051 -0.1423 -1.0569 -0.5164
39309SOL    HW124977   4.259   4.660   1.989  0.1636  1.0897 -2.0213
39309SOL    HW224978   4.267   4.748   2.112 -0.2595 -0.9282 -0.4806
39310SOL     OW24979   1.396   2.738   1.482 -0.5404 -0.5386 -0.0407
39310SOL    HW124980   1.345   2.657   1.494 -0.7079 -0.5320 -0.6698
39310SOL    HW224981   1.344   2.790   1.421 -1.1642  0.6953  1.4660
39311SOL     OW24982   4.958   8.366   5.190  0.2768 -0.0260 -0.2326
39311SOL    HW124983   4.988   8.442   5.140  1.7637  0.1931  0.9504
39311SOL    HW224984   5.007   8.292   5.153  0.5252 -0.0471  0.1389
39312SOL     OW24985   7.806   6.327   0.799  0.0970  0.0085 -0.0128
39312SOL    HW124986   7.879   6.292   0.747 -0.9939 -1.0521 -0.8887
39312SOL    HW224987   7.811   6.422   0.787  2.3633  0.1436  1.3676
39313SOL     OW24988   3.957   1.672   1.246 -0.6567  0.1822 -0.1725
39313SOL    HW124989   3.879   1.617   1.259 -0.0647 -0.6963 -0.2341
39313SOL    HW224990   4.000   1.672   1.332 -0.2716 -0.0644 -0.3617
39314SOL     OW24991  11.191   1.777   5.736  0.2329 -0.1155 -0.0797
39314SOL    HW124992  11.205   1.869   5.758 -0.1454 -0.4048  1.5578
39314SOL    HW224993  11.267   1.732   5.772  0.3646 -0.4527 -0.7790
39315SOL     OW24994   9.631   1.347   2.132  0.2727  0.4044  0.6999
39315SOL    HW124995   9.672   1.399   2.201  0.0862  1.9027 -0.2695
39315SOL    HW224996   9.704   1.313   2.081  0.3751  0.5048  0.7793
39316SOL     OW24997   3.009   9.689  10.456  0.1702  0.4659  0.1972
39316SOL    HW124998   3.105   9.690  10.454  0.1721  1.2177  0.5233
39316SOL    HW224999   2.987   9.597  10.469  0.8622  0.3687  0.7333
39317SOL     OW25000  11.608  12.325  11.577  0.3199  0.6144 -0.1423
39317SOL    HW125001  11.540  12.372  11.529 -0.1607 -1.7693 -2.0252
39317SOL    HW225002  11.685  12.331  11.522 -0.3465 -2.5132 -1.6533
39318SOL     OW25003   0.828   7.780  10.908 -0.0727  0.6084 -0.5694
39318SOL    HW125004   0.809   7.696  10.866  0.4584 -0.7392  1.6884
39318SOL    HW225005   0.824   7.844  10.837  0.1448 -1.3979 -2.5058
39319SOL     OW25006  12.454   3.569   8.550  0.2643 -0.4232  0.0927
39319SOL    HW125007  12.484   3.659   8.552 -0.6475 -0.0478 -1.5635
39319SOL    HW225008  12.359   3.575   8.552  0.1721 -1.2915 -0.9008
39320SOL     OW25009   7.098   9.651   1.402  0.4253  0.5239 -0.1965
39320SOL    HW125010   7.058   9.651   1.489  0.9849  0.5480  0.0656
39320SOL    HW225011   7.127   9.741   1.389 -1.4500  1.0439 -1.2649
39321SOL     OW25012   4.292   2.911   9.452 -0.3649  0.0388 -0.0274
39321SOL    HW125013   4.240   2.963   9.390  1.7469  0.4350 -1.5763
39321SOL    HW225014   4.310   2.971   9.524  0.2735  0.8123 -0.8088
39322SOL     OW25015   0.876   7.386   1.321 -0.6728  0.0650 -0.2083
39322SOL    HW125016   0.949   7.330   1.346  0.4945  1.6186 -0.0066
39322SOL    HW225017   0.810   7.370   1.389  0.4837  0.4889  1.0678
39323SOL     OW25018   3.341  10.224   4.425  0.0117  0.3744 -0.6259
39323SOL    HW125019   3.399  10.272   4.485  0.7819 -1.4381  0.1563
39323SOL    HW225020   3.253  10.238   4.460  0.2733  0.8530 -0.1467
39324SOL     OW25021   9.592   9.662   5.428  0.3329 -0.3299  0.9539
39324SOL    HW125022   9.646   9.640   5.352  0.2548 -0.7526  1.0179
39324SOL    HW225023   9.506   9.681   5.392  0.7463  1.2582  0.7564
39325SOL     OW25024   5.051   3.300   9.242  0.1751 -0.1014  0.2492
39325SOL    HW125025   5.087   3.386   9.264  0.6752 -0.4501  0.8180
39325SOL    HW225026   4.959   3.318   9.220  0.6033  0.7630 -0.9514
39326SOL     OW25027  11.858   4.994  11.009  0.2315 -0.2601  0.1345
39326SOL    HW125028  11.945   5.004  10.972  0.6716 -1.2541  0.8393
39326SOL    HW225029  11.812   4.937  10.948  0.3943 -0.5113  0.2447
39327SOL     OW25030   9.980   6.569   4.102  0.4403  0.3796 -0.7579
39327SOL    HW125031   9.980   6.633   4.031 -2.4168  1.8195  0.3910
39327SOL    HW225032   9.894   6.528   4.098  0.4008  0.1036  1.4980
39328SOL     OW25033   8.652   0.477  12.001 -0.2463 -0.2688 -0.7728
39328SOL    HW125034   8.699   0.526  11.933  1.1727  2.4697  1.9248
39328SOL    HW225035   8.560   0.489  11.980  0.1394  0.1847 -2.3705
39329SOL     OW25036   8.284   3.761   9.122  0.3655 -0.4821  0.1338
39329SOL    HW125037   8.340   3.750   9.199  0.0043 -3.0892  0.1076
39329SOL    HW225038   8.220   3.827   9.148  1.6186  0.3756  1.2070
39330SOL     OW25039   9.094   6.176   7.717  0.2669 -0.1217 -0.0878
39330SOL    HW125040   9.048   6.253   7.748 -0.7898 -0.9298  0.4171
39330SOL    HW225041   9.175   6.210   7.678  0.1387  1.1714  0.7198
39331SOL     OW25042   2.661   7.422   8.191  0.0148 -0.1463  0.0051
39331SOL    HW125043   2.659   7.332   8.224  0.0644 -0.5789 -1.1355
39331SOL    HW225044   2.697   7.415   8.103 -0.6846  0.8969 -0.3917
39332SOL     OW25045   6.368   6.437  12.052 -0.3844 -0.2923 -0.0605
39332SOL    HW125046   6.343   6.422  12.143  0.4732 -1.1125  0.0571
39332SOL    HW225047   6.365   6.350  12.012  2.4061 -0.5177  0.0199
39333SOL     OW25048  10.060   7.977   9.565 -0.2624  0.1302 -0.3463
39333SOL    HW125049  10.116   7.925   9.622 -1.2231  0.6728  1.1617
39333SOL    HW225050  10.035   7.918   9.495  1.4123 -0.3954 -0.5416
39334SOL     OW25051   2.225   5.693   7.381 -0.6490  0.3031  0.1576
39334SOL    HW125052   2.257   5.643   7.456 -0.9674  0.2545  0.2611
39334SOL    HW225053   2.183   5.628   7.325  0.4475  0.1718 -0.5483
39335SOL     OW25054   9.677   5.094   0.426 -0.2594  0.1248  0.5692
39335SOL    HW125055   9.674   5.002   0.453  0.3126 -0.2066 -0.4555
39335SOL    HW225056   9.648   5.142   0.503  0.0251 -0.8789  1.3282
39336SOL     OW25057   8.191   6.875   0.807  0.0557 -0.2626 -0.3375
39336SOL    HW125058   8.138   6.795   0.809  0.8989 -0.8346 -0.3078
39336SOL    HW225059   8.243   6.867   0.727  0.1021  0.2910 -0.3655
39337SOL     OW25060   9.965   9.021   2.828  0.2447 -0.0163  0.3843
39337SOL    HW125061  10.005   8.975   2.902  0.2318 -3.1287 -1.4088
39337SOL    HW225062   9.873   9.029   2.852 -0.1120 -2.5379  0.1038
39338SOL     OW25063   4.031   2.012  11.708  0.2369  0.1589 -0.6221
39338SOL    HW125064   4.042   2.023  11.614 -0.0946 -0.7241 -0.7683
39338SOL    HW225065   4.118   2.030  11.744  0.3836  0.4264 -1.1007
39339SOL     OW25066   8.581   2.442   2.587  0.0875  0.1390 -0.2983
39339SOL    HW125067   8.672   2.455   2.563  0.4019 -0.8778  0.2974
39339SOL    HW225068   8.539   2.411   2.507  0.3235  0.3459 -0.5012
39340SOL     OW25069  12.180   1.519   7.169 -0.7229 -0.3011 -0.3571
39340SOL    HW125070  12.201   1.453   7.236 -1.4252 -0.3062 -0.1231
39340SOL    HW225071  12.260   1.570   7.159 -1.1424  0.9383  1.8986
39341SOL     OW25072   9.711  11.166  10.284 -0.4309 -0.2813 -0.3416
39341SOL    HW125073   9.796  11.210  10.290  0.8231 -2.5112 -0.5719
39341SOL    HW225074   9.718  11.092  10.344 -1.1724 -2.0500 -2.2854
39342SOL     OW25075  10.477   8.796  12.517 -0.4647 -0.1978 -0.5001
39342SOL    HW125076  10.528   8.874  12.495 -0.2985  0.4142  1.7975
39342SOL    HW225077  10.411   8.790  12.448 -1.6487  3.0405  0.1552
39343SOL     OW25078   7.155   0.499   5.588  0.7491  0.3313  0.6611
39343SOL    HW125079   7.204   0.565   5.538 -0.1617  1.3090  1.0196
39343SOL    HW225080   7.206   0.486   5.668  0.3161  1.5414  1.1563
39344SOL     OW25081   2.576   7.220  10.286 -0.5453  0.0374  0.3096
39344SOL    HW125082   2.536   7.210  10.372  1.4268 -0.0007  1.2631
39344SOL    HW225083   2.558   7.137  10.241 -0.6010 -0.3950  1.1157
39345SOL     OW25084   0.674   9.438   0.958  0.4608 -0.0766  0.2436
39345SOL    HW125085   0.613   9.505   0.927 -0.0432 -0.4691  0.3715
39345SOL    HW225086   0.693   9.463   1.049  1.7575  0.9431 -0.2831
39346SOL     OW25087   5.893   0.537   7.447 -0.6094 -0.4520  0.1048
39346SOL    HW125088   5.828   0.484   7.493 -0.7996 -0.9820 -0.7471
39346SOL    HW225089   5.918   0.484   7.372  1.0865 -0.4283  0.5973
39347SOL     OW25090   1.489   1.538   7.765 -0.8353  0.0597  0.1924
39347SOL    HW125091   1.423   1.496   7.821 -0.6828  0.3857  0.6230
39347SOL    HW225092   1.569   1.537   7.818 -0.3408 -0.8514 -0.5448
39348SOL     OW25093   6.520   1.586  11.771 -0.4906  0.0353  0.1939
39348SOL    HW125094   6.614   1.573  11.783 -0.5555 -0.5153  0.1077
39348SOL    HW225095   6.511   1.680  11.758  0.2935 -0.1374 -1.9658
39349SOL     OW25096   1.001  10.617   4.935 -0.2798 -0.2417 -0.2743
39349SOL    HW125097   1.021  10.698   4.890  1.3492 -1.2905 -1.5453
39349SOL    HW225098   0.953  10.565   4.871  0.4035 -1.0242 -0.1674
39350SOL     OW25099   1.412  10.188   2.089 -0.5441 -0.4588  0.8145
39350SOL    HW125100   1.387  10.119   2.150  0.2855 -0.1490  1.5311
39350SOL    HW225101   1.367  10.166   2.008 -1.1980 -1.2079  1.3626
39351SOL     OW25102   5.373  10.032  12.462  0.0525 -0.1075 -0.1234
39351SOL    HW125103   5.353  10.116  12.420  1.6874 -0.2207 -1.2303
39351SOL    HW225104   5.290  10.005  12.501 -1.1681  0.8088 -1.9186
39352SOL     OW25105   0.510   6.834   1.253 -0.4671 -0.0727  0.3063
39352SOL    HW125106   0.584   6.783   1.287  0.5895  0.9892 -0.3576
39352SOL    HW225107   0.433   6.786   1.284  0.4739 -1.7253  0.2340
39353SOL     OW25108   3.108   8.365   5.914  0.1626 -0.0342 -0.4280
39353SOL    HW125109   3.023   8.327   5.891  0.0748 -0.7482  1.0084
39353SOL    HW225110   3.158   8.292   5.950  0.3249  0.9670  1.5092
39354SOL     OW25111  11.525   8.895   4.725  0.4310  0.5558 -0.5272
39354SOL    HW125112  11.578   8.839   4.668  0.1308  0.6859 -0.9429
39354SOL    HW225113  11.568   8.981   4.721  1.3560  0.1908  0.7368
39355SOL     OW25114  11.748   3.812   5.498  0.1394 -0.0657  0.0995
39355SOL    HW125115  11.789   3.888   5.539 -0.8235  0.7152 -0.3558
39355SOL    HW225116  11.822   3.760   5.464  0.7830  0.9452 -0.0758
39356SOL     OW25117   4.959   9.001   6.106  0.4707 -0.2752  0.3182
39356SOL    HW125118   4.980   9.001   6.199  1.3720  0.6193  0.1385
39356SOL    HW225119   4.890   8.935   6.096 -0.6958  0.6512  1.8463
39357SOL     OW25120   9.825   9.019   7.982  0.3239  0.3055  0.5572
39357SOL    HW125121   9.771   9.097   7.973 -0.8517 -0.5845 -0.5229
39357SOL    HW225122   9.766   8.946   7.961  1.7310 -0.7780  0.1821
39358SOL     OW25123   5.785   4.766   3.785 -0.0144 -0.6229 -0.2863
39358SOL    HW125124   5.700   4.731   3.758 -1.1041 -1.2226  3.4359
39358SOL    HW225125   5.764   4.847   3.831  1.4076 -0.7959  0.7108
39359SOL     OW25126   5.678   7.113  12.197 -0.1028  0.3527  1.0099
39359SOL    HW125127   5.676   7.057  12.274 -2.3699  0.8333  1.3703
39359SOL    HW225128   5.671   7.202  12.232  1.0262  0.7328  0.3237
39360SOL     OW25129   8.536   4.999   0.487  0.2566  0.0231 -0.0429
39360SOL    HW125130   8.555   4.912   0.522  1.2514  0.2903  0.0970
39360SOL    HW225131   8.609   5.053   0.515 -0.0327  0.7629 -0.6756
39361SOL     OW25132  10.413   4.770   0.611 -0.2814 -0.2169 -0.0495
39361SOL    HW125133  10.447   4.719   0.684 -0.7641 -3.2763 -1.7470
39361SOL    HW225134  10.486   4.777   0.550 -0.2961  0.9706  0.0487
39362SOL     OW25135  10.818  10.884   3.682  0.4086 -0.0042 -0.1766
39362SOL    HW125136  10.738  10.832   3.686  0.5702 -0.3676 -1.3568
39362SOL    HW225137  10.866  10.859   3.762 -0.8075  0.5304  0.7570
39363SOL     OW25138   5.720  12.153   1.131  0.2578 -0.0030 -0.4633
39363SOL    HW125139   5.672  12.146   1.048  0.2015 -0.8564 -0.3665
39363SOL    HW225140   5.675  12.221   1.180 -0.1635 -0.0162 -0.8332
39364SOL     OW25141   5.037   8.959   3.667  0.2752  0.0480  0.1092
39364SOL    HW125142   5.009   8.867   3.667 -4.0540  1.1221 -1.7439
39364SOL    HW225143   5.052   8.979   3.575 -1.3981  1.7501  0.1504
39365SOL     OW25144  12.106   2.521   9.606  0.3925  0.4371  0.0772
39365SOL    HW125145  12.088   2.609   9.637 -1.1721 -0.1400  0.9273
39365SOL    HW225146  12.188   2.529   9.557 -0.5970  2.6930 -1.3831
39366SOL     OW25147   0.138   5.526   3.692  0.3720 -0.0340 -0.6185
39366SOL    HW125148   0.206   5.480   3.741 -1.6434 -1.5577  0.8939
39366SOL    HW225149   0.119   5.469   3.617  0.4029  0.1184 -0.7422
39367SOL     OW25150   1.642   2.293   2.521 -0.1907 -0.0276  0.2097
39367SOL    HW125151   1.688   2.375   2.534 -0.4982  0.8382 -3.2592
39367SOL    HW225152   1.697   2.244   2.460 -1.5761 -0.9800 -0.3222
39368SOL     OW25153   8.151  11.964   9.365 -0.0845 -0.4207  0.1464
39368SOL    HW125154   8.122  11.912   9.439  0.7990  2.3189  2.6049
39368SOL    HW225155   8.245  11.945   9.358  0.4064  1.2567  1.5457
39369SOL     OW25156   1.447   2.208   2.369 -0.0862 -0.9213  0.0967
39369SOL    HW125157   1.498   2.228   2.448 -0.5607 -1.2660  0.4926
39369SOL    HW225158   1.509   2.223   2.297  1.4231 -3.7618  0.6614
39370SOL     OW25159   0.705  11.636   4.111 -0.4350 -0.1711 -0.3898
39370SOL    HW125160   0.742  11.590   4.036 -0.1386 -2.5147  1.0897
39370SOL    HW225161   0.780  11.671   4.158 -0.3724 -1.3414  0.4067
39371SOL     OW25162   7.236  11.672  12.156  0.1584  0.0300  0.5042
39371SOL    HW125163   7.265  11.733  12.089  0.2488  0.5617  1.0148
39371SOL    HW225164   7.152  11.708  12.186 -0.0532 -0.3965  0.4293
39372SOL     OW25165   2.164   3.270  12.480 -0.0212  0.0195 -0.1986
39372SOL    HW125166   2.217   3.211  12.534  1.7730  1.9778  0.3343
39372SOL    HW225167   2.212   3.278  12.398  0.3345  1.4602  0.1111
39373SOL     OW25168  10.451   1.622   9.206  0.6196 -0.0845 -0.4891
39373SOL    HW125169  10.378   1.670   9.247 -0.8590  0.4662 -3.5112
39373SOL    HW225170  10.422   1.531   9.203  1.1199 -0.2870  0.4212
39374SOL     OW25171  10.403   3.323   1.803 -0.2977  0.3987  0.2894
39374SOL    HW125172  10.377   3.335   1.712 -1.4541 -2.1341  0.2120
39374SOL    HW225173  10.335   3.368   1.854 -1.0993 -0.3947 -0.0645
39375SOL     OW25174   1.694  11.403   3.862  0.2565 -0.1159  0.5150
39375SOL    HW125175   1.669  11.409   3.954  0.7745  0.7081  0.6064
39375SOL    HW225176   1.628  11.454   3.815 -0.1395 -0.7251  0.3968
39376SOL     OW25177   5.838   7.964   0.275  0.1283  1.0065 -0.3002
39376SOL    HW125178   5.840   7.913   0.355  0.0704  1.8912  0.2800
39376SOL    HW225179   5.925   8.004   0.270 -0.5461  2.6476  0.4665
39377SOL     OW25180  11.348   7.697   9.505 -0.7902  0.1863  0.2020
39377SOL    HW125181  11.336   7.756   9.580 -0.6160  2.2753 -1.3221
39377SOL    HW225182  11.281   7.725   9.442 -0.2835 -0.8528 -0.8356
39378SOL     OW25183   3.474   8.804   6.956  0.1023 -0.0618 -0.1254
39378SOL    HW125184   3.432   8.784   6.872  0.6248  1.0861 -0.6777
39378SOL    HW225185   3.536   8.733   6.969  0.4280  0.0471 -0.9985
39379SOL     OW25186   4.525   9.132  12.203 -1.1145 -0.4063 -0.7509
39379SOL    HW125187   4.571   9.197  12.256  1.5618 -2.3791 -0.5092
39379SOL    HW225188   4.442   9.118  12.250 -0.3140  0.3861  0.9977
39380SOL     OW25189   0.744   1.642   5.268 -0.0269  1.2901 -0.1707
39380SOL    HW125190   0.688   1.614   5.195  0.8656  0.4115 -0.5452
39380SOL    HW225191   0.826   1.670   5.227  1.6778 -2.0869  0.5477
39381SOL     OW25192   8.730   4.137   1.785 -0.0181  0.1744 -0.5621
39381SOL    HW125193   8.644   4.112   1.751 -0.0727 -0.3052 -0.0968
39381SOL    HW225194   8.722   4.230   1.804 -1.2815 -0.3332  1.8440
39382SOL     OW25195   8.276   6.926   4.966  0.7227  0.1440  0.5237
39382SOL    HW125196   8.284   6.867   5.041  0.9337  0.2981  0.6247
39382SOL    HW225197   8.209   6.886   4.910  1.4470 -0.6196  0.1838
39383SOL     OW25198  11.065   2.208   0.679  0.2208 -0.3147  0.1202
39383SOL    HW125199  11.132   2.186   0.614  0.6368  0.0024  0.4411
39383SOL    HW225200  10.984   2.172   0.642  0.7629 -1.8521  0.3230
39384SOL     OW25201  10.108   4.317   0.383 -0.5359 -0.1822 -0.1465
39384SOL    HW125202  10.024   4.347   0.348 -1.4612 -1.5944  0.7602
39384SOL    HW225203  10.140   4.391   0.434 -0.3090  1.0373 -1.9746
39385SOL     OW25204   0.319   7.262   7.470  0.0505  0.3368 -0.6512
39385SOL    HW125205   0.308   7.339   7.525 -0.6095 -0.1383 -0.0967
39385SOL    HW225206   0.402   7.223   7.497 -0.6152 -0.3101  0.5634
39386SOL     OW25207  12.182   1.543   4.896 -0.0268  0.4573  0.2147
39386SOL    HW125208  12.256   1.589   4.857 -0.2733  1.8295  1.2841
39386SOL    HW225209  12.221   1.471   4.945  0.3780 -0.4240 -1.3176
39387SOL     OW25210   8.926   7.044   5.864 -0.5235  0.1997  0.0451
39387SOL    HW125211   8.911   6.966   5.810 -0.9279  1.0823 -1.1538
39387SOL    HW225212   8.880   7.025   5.946 -2.9810  0.2603 -1.2218
39388SOL     OW25213  12.555   0.675   8.330  0.0831 -0.8175 -0.2100
39388SOL    HW125214  12.496   0.747   8.352  0.6330 -0.0587 -1.1580
39388SOL    HW225215  12.546   0.665   8.235 -2.2520 -4.0151  0.1561
39389SOL     OW25216   6.584   5.329   9.787 -0.7498 -0.1062  0.4045
39389SOL    HW125217   6.556   5.411   9.826 -0.9818 -0.5413  1.1663
39389SOL    HW225218   6.593   5.349   9.694  0.1509  1.0340  0.7108
39390SOL     OW25219   5.701   2.306   4.427  0.4304 -0.5855  0.4120
39390SOL    HW125220   5.749   2.281   4.348 -0.4609 -0.2976 -0.2412
39390SOL    HW225221   5.769   2.324   4.492  1.1566 -2.4529  0.2340
39391SOL     OW25222   2.501   9.341   5.549 -0.4980 -0.4803  0.0620
39391SOL    HW125223   2.538   9.320   5.635 -0.1806  0.0589  0.0598
39391SOL    HW225224   2.482   9.256   5.510  0.5264 -0.7632  0.1529
39392SOL     OW25225   3.581   7.990   5.298  0.2088 -0.5179 -0.1853
39392SOL    HW125226   3.651   8.038   5.342  0.5202 -0.8000 -0.3671
39392SOL    HW225227   3.615   7.901   5.290 -0.5477 -0.8945  0.5908
39393SOL     OW25228   7.533  10.025  11.151  0.7396 -0.0662  0.0933
39393SOL    HW125229   7.573  10.107  11.121 -1.5369  0.0287 -3.1962
39393SOL    HW225230   7.439  10.045  11.158  0.4177 -1.8082  1.6261
39394SOL     OW25231   0.700   7.208  11.403  0.4157  0.1483 -0.0701
39394SOL    HW125232   0.747   7.286  11.373  1.6226  0.3255  2.0886
39394SOL    HW225233   0.769   7.151  11.439 -0.6633 -1.0816  0.1135
39395SOL     OW25234   4.913   2.501  12.506 -0.3223 -0.3708 -0.3059
39395SOL    HW125235   4.841   2.546  12.461  0.1353 -0.4393 -1.1464
39395SOL    HW225236   4.968   2.468  12.434  0.1428 -0.9694  0.3153
39396SOL     OW25237   4.130  12.176  10.089 -0.4512  0.2871  0.1497
39396SOL    HW125238   4.056  12.168  10.029  1.0555  1.7048 -2.0428
39396SOL    HW225239   4.122  12.264  10.125  0.2038  0.5063 -0.2155
39397SOL     OW25240   0.486  10.674  10.879  0.0021 -0.9231 -0.1823
39397SOL    HW125241   0.494  10.610  10.950 -1.0269 -1.5296 -0.5969
39397SOL    HW225242   0.470  10.621  10.801  0.4708 -0.2236 -0.7647
39398SOL     OW25243   8.623   4.726  12.260  0.2156  1.1706  0.3859
39398SOL    HW125244   8.616   4.738  12.355  0.1926  1.4304  0.3536
39398SOL    HW225245   8.543   4.681  12.235  1.7427 -2.2012  0.9932
39399SOL     OW25246   0.926  11.007   5.492 -0.2413  0.6219 -0.0519
39399SOL    HW125247   0.910  11.042   5.404  0.3536 -0.2066 -0.4989
39399SOL    HW225248   0.973  11.076   5.537 -0.2553  0.9257 -0.4943
39400SOL     OW25249   8.038   5.863   1.534  0.5390  0.2478 -0.0838
39400SOL    HW125250   7.944   5.860   1.552  0.5421  0.1445 -0.0823
39400SOL    HW225251   8.077   5.811   1.605  0.4946 -0.7570 -0.7720
39401SOL     OW25252   1.435   5.328   9.292  0.0875 -0.4780 -0.0401
39401SOL    HW125253   1.464   5.390   9.359 -1.8612 -0.5098  0.8850
39401SOL    HW225254   1.486   5.249   9.309 -0.0681 -0.3401  1.1498
39402SOL     OW25255  10.189   9.295   3.539 -0.0459  0.5074 -0.0834
39402SOL    HW125256  10.112   9.265   3.588  0.4556 -2.0548 -0.6775
39402SOL    HW225257  10.166   9.278   3.447  1.0673  0.0573 -0.2890
39403SOL     OW25258   0.021   5.148   9.417 -0.0069  0.1568  0.1207
39403SOL    HW125259   0.064   5.158   9.502 -1.0998 -0.1675  0.7277
39403SOL    HW225260   0.038   5.058   9.392 -0.4762 -0.0278  0.4507
39404SOL     OW25261   1.147   8.768   4.464 -0.0923 -0.7805  0.4102
39404SOL    HW125262   1.065   8.792   4.507  0.0304 -1.3898  1.0026
39404SOL    HW225263   1.174   8.847   4.417 -1.1913 -0.6820 -0.0765
39405SOL     OW25264   3.202   5.507   1.188  0.2938  0.2287 -0.2152
39405SOL    HW125265   3.209   5.599   1.213  0.5295  0.1609 -0.0369
39405SOL    HW225266   3.245   5.502   1.103  0.1529  0.3096 -0.2931
39406SOL     OW25267   7.944   6.182   3.812  0.0654  0.0220  0.6275
39406SOL    HW125268   7.971   6.193   3.903  0.5282  2.3183  0.2864
39406SOL    HW225269   7.928   6.272   3.781 -2.3309 -0.8192 -0.8949
39407SOL     OW25270   0.499   6.102   1.475 -0.1820 -0.8006  0.1258
39407SOL    HW125271   0.517   6.008   1.474 -1.2584 -1.0270 -0.6381
39407SOL    HW225272   0.554   6.138   1.405  2.2261 -0.4013  2.0968
39408SOL     OW25273  10.814   8.294   5.263  0.1373  0.5081  0.1124
39408SOL    HW125274  10.819   8.271   5.170 -2.7787  1.9640 -0.5138
39408SOL    HW225275  10.838   8.386   5.267 -1.3137  0.8918  0.5185
39409SOL     OW25276   8.326   5.187   1.649 -0.5186  0.7332  0.5723
39409SOL    HW125277   8.284   5.194   1.735 -1.3904 -0.2769  0.2429
39409SOL    HW225278   8.359   5.097   1.646 -1.8742  0.2472 -0.7560
39410SOL     OW25279   3.226   4.145   0.001  0.1787  0.1545 -0.7237
39410SOL    HW125280   3.209   4.113  -0.087  1.6532 -2.1896 -0.2729
39410SOL    HW225281   3.297   4.208  -0.010 -1.7362  2.3077 -1.4737
39411SOL     OW25282   6.899   7.543   1.214  0.6415  0.3911  0.0821
39411SOL    HW125283   6.969   7.570   1.154  0.3684 -1.2979 -1.0877
39411SOL    HW225284   6.840   7.492   1.159 -1.4436  1.6193  1.0914
39412SOL     OW25285   0.483   1.004   6.590  0.0083 -0.0453  0.0735
39412SOL    HW125286   0.451   0.951   6.517  1.2530 -0.9987  0.1708
39412SOL    HW225287   0.577   0.983   6.595  0.7144  2.6259 -0.2530
39413SOL     OW25288   1.456  10.121   7.604  0.1413 -0.1817 -0.4296
39413SOL    HW125289   1.548  10.112   7.628  0.2067  1.9598  0.3465
39413SOL    HW225290   1.409  10.080   7.675  0.4877 -0.4658 -0.3622
39414SOL     OW25291  10.968   8.699   8.764 -0.6633  0.4263 -0.1492
39414SOL    HW125292  10.899   8.636   8.786 -0.9614  1.0051  0.6191
39414SOL    HW225293  10.978   8.752   8.843  0.3057  0.6847 -0.4323
39415SOL     OW25294   4.489   8.830   5.119  0.0689 -0.0282 -0.4215
39415SOL    HW125295   4.514   8.915   5.154  0.2212 -0.7492  1.3370
39415SOL    HW225296   4.540   8.822   5.038  0.2811  1.4085 -0.4639
39416SOL     OW25297   6.058  11.903   8.374 -0.2058  0.0886 -0.0045
39416SOL    HW125298   6.020  11.815   8.379 -1.3733  0.5637 -0.2163
39416SOL    HW225299   6.143  11.894   8.417  0.6064 -1.6042 -1.7697
39417SOL     OW25300   0.260   8.432  11.982 -0.1079  0.0650 -0.0412
39417SOL    HW125301   0.277   8.364  12.048 -0.0425 -1.3200 -1.4185
39417SOL    HW225302   0.347   8.454  11.947 -0.2770 -0.5452 -0.8965
39418SOL     OW25303  12.338   5.323   3.362  0.2021  0.3480 -0.2098
39418SOL    HW125304  12.264   5.338   3.422  1.4816 -2.0144  2.1685
39418SOL    HW225305  12.296   5.305   3.278 -1.7494  2.3844  0.2337
39419SOL     OW25306   3.223   9.041  11.012 -0.1083  0.7595 -0.0988
39419SOL    HW125307   3.133   9.013  11.031  0.4637 -1.6755 -0.6443
39419SOL    HW225308   3.223   9.135  11.030 -1.9546  0.3044  2.9535
39420SOL     OW25309  11.990   2.318   9.442 -0.6954  1.1212  0.2839
39420SOL    HW125310  12.010   2.402   9.485  1.8272  0.2781  0.8937
39420SOL    HW225311  12.013   2.252   9.507 -0.1988 -0.1107 -1.1099
39421SOL     OW25312  10.725   3.645   4.870 -0.2457  0.0611 -0.6183
39421SOL    HW125313  10.706   3.643   4.776 -1.3439 -0.3222 -0.4022
39421SOL    HW225314  10.677   3.721   4.903 -0.7688 -0.4462 -0.1932
39422SOL     OW25315   5.920   9.288   7.178 -0.3312 -0.3700  0.3953
39422SOL    HW125316   5.961   9.212   7.137 -0.8984 -0.8470  0.6867
39422SOL    HW225317   5.988   9.323   7.236 -0.1925 -0.9157  0.5753
39423SOL     OW25318   1.585   2.464  12.435 -0.3081  0.1007 -0.4505
39423SOL    HW125319   1.669   2.449  12.390 -1.5663 -2.6483 -2.1235
39423SOL    HW225320   1.556   2.549  12.402  1.5351  0.8704 -0.2310
39424SOL     OW25321   2.413  10.466   5.020 -0.0889  0.5416 -0.5386
39424SOL    HW125322   2.416  10.525   5.095 -0.8454 -0.7086  0.5058
39424SOL    HW225323   2.354  10.395   5.046  3.0704 -2.3515 -0.4859
39425SOL     OW25324  12.242   1.993   4.004  0.0816  0.9341  0.0684
39425SOL    HW125325  12.181   2.021   4.072 -0.7824  1.3195 -0.8360
39425SOL    HW225326  12.314   1.952   4.052 -1.1697 -0.0931  1.1505
39426SOL     OW25327   2.977   3.139   5.927 -0.2924 -0.6543  0.5654
39426SOL    HW125328   2.997   3.231   5.908 -1.5222 -0.2865  1.0004
39426SOL    HW225329   3.052   3.091   5.891 -0.0180  0.4461 -0.4029
39427SOL     OW25330   0.427   3.911   1.187  0.1726  0.7622 -0.0426
39427SOL    HW125331   0.406   3.986   1.133 -0.7737  0.5889  0.0735
39427SOL    HW225332   0.374   3.839   1.151  1.2942  0.0585 -0.3563
39428SOL     OW25333   0.404   4.285   5.037  0.3807 -0.1981 -0.0561
39428SOL    HW125334   0.464   4.275   5.111 -0.9808  0.8187  1.2457
39428SOL    HW225335   0.406   4.200   4.992  3.7508  0.1875 -0.8938
39429SOL     OW25336  10.551  11.025   3.533  0.0944  0.7909 -0.0726
39429SOL    HW125337  10.641  11.054   3.519 -0.2535  2.6537  1.2722
39429SOL    HW225338  10.499  11.076   3.471  0.1664 -2.9496 -3.6903
39430SOL     OW25339   7.564  11.669   0.973 -0.1615 -0.0788 -0.2230
39430SOL    HW125340   7.590  11.760   0.985 -0.6071  0.0778 -0.4400
39430SOL    HW225341   7.527  11.666   0.885 -1.4245 -0.1645  0.2909
39431SOL     OW25342   6.700   0.368   0.512  0.5056 -0.2889 -0.2744
39431SOL    HW125343   6.754   0.373   0.591  0.4537  0.0041 -0.2541
39431SOL    HW225344   6.673   0.459   0.496  0.8067 -0.2940 -0.8350
39432SOL     OW25345   8.060  10.679   0.317  0.0673 -0.1824  0.4022
39432SOL    HW125346   8.036  10.603   0.371  0.5350  0.4596  1.5584
39432SOL    HW225347   7.977  10.723   0.299  0.0142  0.3203  1.7472
39433SOL     OW25348   9.708   3.265  12.540  0.2433 -0.1403  0.0393
39433SOL    HW125349   9.711   3.356  12.511 -0.8138 -0.7184 -2.0629
39433SOL    HW225350   9.639   3.264  12.607  0.7563  0.7108  0.6066
39434SOL     OW25351   4.691   5.010   3.172 -0.0401 -0.1932 -0.3082
39434SOL    HW125352   4.663   4.991   3.262  0.3184 -1.0347 -0.3672
39434SOL    HW225353   4.653   5.096   3.153 -0.2495 -0.0752  0.5925
39435SOL     OW25354  10.991  12.363   1.189  0.1803  0.0523 -0.3143
39435SOL    HW125355  11.081  12.384   1.215  0.3560 -0.2674 -0.6528
39435SOL    HW225356  10.946  12.447   1.189  0.1841  0.0778  0.9518
39436SOL     OW25357   3.967  11.288  10.271  0.1878 -0.4946  0.3366
39436SOL    HW125358   4.056  11.321  10.283  0.0472 -0.2617  0.7305
39436SOL    HW225359   3.978  11.213  10.212  0.6504 -0.5048  0.4296
39437SOL     OW25360  12.443  10.522   1.467  0.3584  0.3580 -0.5902
39437SOL    HW125361  12.348  10.514   1.460  0.4330 -0.8231 -0.3772
39437SOL    HW225362  12.464  10.485   1.552  0.9858  0.9008 -0.5019
39438SOL     OW25363   1.434   2.962   7.061 -0.2151  0.1543  0.4977
39438SOL    HW125364   1.361   3.011   7.024  0.4792  0.2191 -0.8414
39438SOL    HW225365   1.512   3.011   7.036  0.4439 -1.1592 -0.1587
39439SOL     OW25366   1.880  11.410   9.431 -0.1260 -0.2857  0.6386
39439SOL    HW125367   1.812  11.361   9.476  0.7061 -0.6512  1.5285
39439SOL    HW225368   1.892  11.489   9.484  0.8736 -0.7297  1.0971
39440SOL     OW25369  10.768   3.116   7.629  0.2337 -0.1112  0.4915
39440SOL    HW125370  10.722   3.186   7.582  0.1097 -2.0808 -2.6121
39440SOL    HW225371  10.847   3.100   7.577  1.3938 -0.8331  2.3760
39441SOL     OW25372  11.987   2.630   0.047 -0.2816  0.5705 -0.2262
39441SOL    HW125373  11.943   2.714   0.035  1.0334  1.1792 -1.0029
39441SOL    HW225374  11.918   2.565   0.034 -1.0514  1.5021 -0.9280
39442SOL     OW25375   1.372   0.773   1.326 -0.1017  0.1768  0.1433
39442SOL    HW125376   1.437   0.822   1.276  0.0341 -0.9982 -0.8843
39442SOL    HW225377   1.347   0.832   1.397  1.6892  0.8667  0.2588
39443SOL     OW25378   9.222  11.370   4.904  0.3399 -0.6504 -0.2018
39443SOL    HW125379   9.256  11.418   4.979 -0.8925  0.3352 -0.2406
39443SOL    HW225380   9.298  11.324   4.868  0.9406 -1.2472  1.7024
39444SOL     OW25381   0.276  11.406   0.704 -0.9657  0.1016 -0.5148
39444SOL    HW125382   0.272  11.379   0.796 -2.8820  2.2062  0.0975
39444SOL    HW225383   0.245  11.329   0.656 -1.2845 -0.5736  0.7189
39445SOL     OW25384  12.240   2.427   4.484 -0.1506  0.4042  0.4283
39445SOL    HW125385  12.236   2.495   4.417  2.1758 -0.4503 -0.6888
39445SOL    HW225386  12.160   2.375   4.471  0.7560 -0.4569 -2.5596
39446SOL     OW25387   1.302  11.452   3.575  0.0791 -0.3190 -0.0193
39446SOL    HW125388   1.259  11.537   3.583  1.4509  0.4861 -0.8125
39446SOL    HW225389   1.263  11.399   3.645  2.0314  2.1928  3.2730
39447SOL     OW25390   7.241   1.042   5.179  0.5261 -0.0167  0.7653
39447SOL    HW125391   7.206   0.992   5.105  0.2008  0.5178  0.5499
39447SOL    HW225392   7.264   1.127   5.142  1.9124 -0.2919  0.9416
39448SOL     OW25393   8.589   3.646   4.877 -0.2967 -0.0548  0.5265
39448SOL    HW125394   8.577   3.629   4.970  0.1072 -1.3376  0.3574
39448SOL    HW225395   8.684   3.636   4.863  0.0104  2.3766  0.3920
39449SOL     OW25396  10.540   7.080   9.804 -0.1724  0.5596 -0.4510
39449SOL    HW125397  10.543   7.105   9.712  0.8973  2.2560  0.0188
39449SOL    HW225398  10.627   7.102   9.838 -1.0987  1.6069  1.3616
39450SOL     OW25399  12.095   0.335   3.758 -0.2489 -0.1934 -0.0503
39450SOL    HW125400  12.106   0.397   3.686  0.3307 -0.4111 -0.1517
39450SOL    HW225401  12.183   0.325   3.795 -0.2468 -1.3259 -0.3438
39451SOL     OW25402   3.744   2.839   1.405 -0.4740  0.0140  0.1237
39451SOL    HW125403   3.654   2.828   1.435 -0.4414  1.5107  0.8625
39451SOL    HW225404   3.739   2.907   1.338 -0.2267 -1.7480 -1.8084
39452SOL     OW25405  12.090   0.738   9.022  0.3671 -0.1709  0.1681
39452SOL    HW125406  12.080   0.642   9.021  0.0187 -0.1509 -1.6921
39452SOL    HW225407  12.042   0.766   9.099 -0.9036 -1.3941 -0.1403
39453SOL     OW25408   0.508  12.160   0.914 -0.5163 -0.1405 -0.4873
39453SOL    HW125409   0.443  12.108   0.961 -2.4130  0.0022 -2.7664
39453SOL    HW225410   0.530  12.107   0.837 -1.1830  1.6173 -1.9484
39454SOL     OW25411   1.720  11.787   5.492  0.5420 -0.4742  0.1619
39454SOL    HW125412   1.775  11.712   5.470  1.8645  0.4007  0.3646
39454SOL    HW225413   1.631  11.753   5.489  0.9904 -1.6409 -1.4249
39455SOL     OW25414   8.456   1.326   6.864 -0.2716  0.1269  0.5520
39455SOL    HW125415   8.432   1.384   6.936 -0.9154  0.5420  0.0238
39455SOL    HW225416   8.389   1.342   6.797 -0.7827 -1.6070  0.5851
39456SOL     OW25417   5.388   7.009   3.611 -0.6940  0.4108 -0.0426
39456SOL    HW125418   5.366   7.102   3.599 -0.2988  0.4173 -0.7617
39456SOL    HW225419   5.362   6.968   3.528 -2.1221 -0.3670  0.7637
39457SOL     OW25420   0.892  10.896   0.597  0.4251  0.7612  0.3430
39457SOL    HW125421   0.946  10.971   0.621  2.0706 -0.5718  0.9840
39457SOL    HW225422   0.954  10.830   0.567 -1.0322 -0.1471 -0.8163
39458SOL     OW25423   3.416  11.543   6.197  0.3704 -0.4553  0.3321
39458SOL    HW125424   3.403  11.624   6.245  0.2055 -0.9395  1.1223
39458SOL    HW225425   3.416  11.475   6.264 -0.3181 -1.1931 -0.3891
39459SOL     OW25426   0.986   8.057   8.200 -0.2855 -0.3325  0.0757
39459SOL    HW125427   0.894   8.033   8.210  0.0645 -1.3571  1.0250
39459SOL    HW225428   0.987   8.118   8.126 -1.6813 -0.5231 -0.1243
39460SOL     OW25429  10.805  10.558   4.373 -0.3121 -0.0211  0.0529
39460SOL    HW125430  10.765  10.471   4.368  0.3885 -0.3364 -0.1838
39460SOL    HW225431  10.732  10.617   4.395 -0.5547 -0.8537  1.6235
39461SOL     OW25432  10.333  10.643   3.778  0.0894  0.6326  0.2462
39461SOL    HW125433  10.337  10.579   3.850  1.9986  1.2523  0.7535
39461SOL    HW225434  10.364  10.725   3.817 -0.7021  1.4582 -0.8184
39462SOL     OW25435   0.139  11.889   4.703 -0.5593 -0.1053 -0.1114
39462SOL    HW125436   0.108  11.814   4.754 -0.2164 -0.5588 -0.5661
39462SOL    HW225437   0.096  11.964   4.743 -2.0847 -0.6942 -0.5963
39463SOL     OW25438   7.684  11.700   7.972 -0.0510 -0.1530  0.3101
39463SOL    HW125439   7.756  11.727   8.029 -0.0107  2.8729 -0.9584
39463SOL    HW225440   7.605  11.717   8.024  0.0679 -0.3697  0.5622
39464SOL     OW25441   9.012   2.504   9.951  0.3290  0.0807  0.0663
39464SOL    HW125442   8.982   2.444  10.019  2.6467 -3.1138 -1.4664
39464SOL    HW225443   9.100   2.530   9.980  0.0954  1.2458 -0.2231
39465SOL     OW25444   0.724   6.523   2.708 -0.2082 -0.2122  0.4137
39465SOL    HW125445   0.814   6.511   2.679  0.8027  0.5734  2.9693
39465SOL    HW225446   0.704   6.614   2.686  0.4630  0.3015  1.8160
39466SOL     OW25447   9.129  11.972   8.745  0.4085 -0.2660  0.6513
39466SOL    HW125448   9.135  11.941   8.655 -0.8426 -0.0999  0.4929
39466SOL    HW225449   9.183  12.051   8.747 -0.0548  0.0821 -0.1236
39467SOL     OW25450   6.533   9.218   3.626  0.6409  0.6983 -0.3245
39467SOL    HW125451   6.453   9.204   3.574  0.3684  2.9753 -0.6046
39467SOL    HW225452   6.593   9.149   3.595 -1.0720 -0.8847 -0.3077
39468SOL     OW25453   3.511   0.209   4.472  0.4865  0.2684  0.1040
39468SOL    HW125454   3.582   0.262   4.507  1.3481 -0.2717 -0.7434
39468SOL    HW225455   3.530   0.120   4.504  1.9874 -0.4940 -2.5197
39469SOL     OW25456  10.461   9.481   5.655  0.3692 -0.2211  0.0996
39469SOL    HW125457  10.438   9.490   5.748 -1.0978  0.0155 -0.2538
39469SOL    HW225458  10.507   9.561   5.633  1.9405 -0.8608  0.9383
39470SOL     OW25459   0.559  12.171   1.345 -0.3265 -0.3266 -1.2231
39470SOL    HW125460   0.637  12.160   1.399 -0.0675  0.6024 -1.3909
39470SOL    HW225461   0.569  12.106   1.275 -0.5090 -1.3118 -0.3579
39471SOL     OW25462   6.161   7.143   3.668 -0.3068 -1.2564 -0.4284
39471SOL    HW125463   6.077   7.108   3.700 -0.9382 -0.3274 -1.0298
39471SOL    HW225464   6.167   7.230   3.707  0.1694 -1.1368 -0.7629
39472SOL     OW25465  11.720   9.848   5.783  0.0999  0.7828  0.3116
39472SOL    HW125466  11.743   9.852   5.690 -1.7903  0.2011 -0.2220
39472SOL    HW225467  11.722   9.754   5.804 -1.8920  0.6584  0.1517
39473SOL     OW25468   9.105   5.322   9.827 -0.0814  0.0087  0.3076
39473SOL    HW125469   9.144   5.238   9.850 -0.8831 -0.3238  0.4880
39473SOL    HW225470   9.148   5.347   9.745 -1.1216 -1.4672 -0.7407
39474SOL     OW25471   9.099  12.403   0.107  0.2075  0.0529  0.8423
39474SOL    HW125472   9.100  12.385   0.201  1.0504 -0.5287  0.7323
39474SOL    HW225473   9.178  12.361   0.073 -0.4738 -0.4061 -0.2499
39475SOL     OW25474  12.418  12.491   8.326  0.6518 -0.0053 -0.0232
39475SOL    HW125475  12.405  12.398   8.339  0.0110  0.1705  0.6839
39475SOL    HW225476  12.503  12.509   8.366  0.2563 -0.0935  0.8881
39476SOL     OW25477   3.777   8.114   0.844 -0.2112  0.0356 -0.4189
39476SOL    HW125478   3.844   8.108   0.776  1.3931 -4.4372  1.1962
39476SOL    HW225479   3.696   8.088   0.800  0.4354 -0.9705 -1.0346
39477SOL     OW25480   8.254   0.256   4.097  0.6804  0.2119  0.1352
39477SOL    HW125481   8.334   0.277   4.146  0.5535  0.7696  0.1169
39477SOL    HW225482   8.194   0.327   4.119 -0.2876 -0.9074  1.1991
39478SOL     OW25483   5.835   7.147   1.282 -0.4029 -0.3131  0.5304
39478SOL    HW125484   5.879   7.173   1.201  1.1216  0.1541  1.4648
39478SOL    HW225485   5.812   7.230   1.325 -2.9410 -0.5216 -0.2594
39479SOL     OW25486  10.186   0.595   3.945  0.2230 -0.1220 -0.2758
39479SOL    HW125487  10.215   0.543   3.871  2.2715 -0.4009  0.6623
39479SOL    HW225488  10.204   0.686   3.920 -1.1444 -0.0158 -0.9604
39480SOL     OW25489   7.934   8.987   1.460 -0.4635 -0.3967  0.2631
39480SOL    HW125490   7.951   8.923   1.391 -1.3817 -0.1228 -0.2384
39480SOL    HW225491   7.970   9.069   1.426  0.3009 -0.5432  0.7063
39481SOL     OW25492  10.166   0.010   2.792  0.0076 -0.2533  0.4697
39481SOL    HW125493  10.128   0.032   2.707 -0.0357  1.3161  0.8713
39481SOL    HW225494  10.192  -0.082   2.783  1.8513  0.3671 -1.9481
39482SOL     OW25495   0.523   3.934  11.068  0.7939  0.1729 -0.1609
39482SOL    HW125496   0.558   3.909  11.154 -1.1639  0.8926  0.9106
39482SOL    HW225497   0.481   3.854  11.036  1.4668 -0.0780 -0.4296
39483SOL     OW25498   3.530   0.480   2.979 -0.2094  0.1253 -0.2622
39483SOL    HW125499   3.461   0.427   3.019 -1.0041 -0.2782 -2.0649
39483SOL    HW225500   3.553   0.433   2.899  2.2045  0.2354  0.2667
39484SOL     OW25501   2.909   7.688  11.038  0.6640  0.0588 -0.1832
39484SOL    HW125502   2.855   7.636  11.097  0.7371  0.0916 -0.0881
39484SOL    HW225503   2.855   7.763  11.015  0.4859 -0.1510 -0.4672
39485SOL     OW25504   3.231  11.041   0.122 -0.1906 -0.3496  0.7945
39485SOL    HW125505   3.199  10.950   0.128 -0.3316 -0.2456  1.9717
39485SOL    HW225506   3.309  11.042   0.177 -1.1437  0.6203  2.2023
39486SOL     OW25507   9.175   1.383   4.461  0.0243  0.0319 -0.0282
39486SOL    HW125508   9.134   1.462   4.425 -1.2808 -0.9044 -0.6650
39486SOL    HW225509   9.112   1.350   4.524  0.2294 -0.8986 -0.2944
39487SOL     OW25510  11.136   2.222   1.823  0.3966  0.6116  0.4572
39487SOL    HW125511  11.082   2.243   1.900 -2.8796  0.8022 -1.7012
39487SOL    HW225512  11.099   2.140   1.791  2.4970 -0.0856 -0.2955
39488SOL     OW25513   1.986   5.412   1.863  0.4157 -0.1014 -0.6245
39488SOL    HW125514   2.019   5.429   1.951  1.4223 -1.2417 -0.7681
39488SOL    HW225515   1.901   5.371   1.877  0.2864  0.2956 -0.2046
39489SOL     OW25516   0.666  11.552   1.759 -0.1505 -0.6128  0.2365
39489SOL    HW125517   0.738  11.586   1.705  0.0941  0.0901  0.9805
39489SOL    HW225518   0.708  11.523   1.840 -0.5250 -1.5861  0.0926
39490SOL     OW25519   1.979   0.470   1.765 -0.0242 -0.4100  0.6091
39490SOL    HW125520   1.946   0.560   1.776  0.6359  0.0619 -0.9875
39490SOL    HW225521   1.956   0.447   1.676 -0.9555 -2.1958  1.2713
39491SOL     OW25522   8.112   6.917   1.137  0.3676  0.2263  0.2179
39491SOL    HW125523   8.128   6.823   1.133 -1.3691 -0.0808 -0.7442
39491SOL    HW225524   8.020   6.924   1.164 -0.8187  1.4380 -3.4672
39492SOL     OW25525   4.077   0.372  11.919 -0.0054 -0.2933 -0.2868
39492SOL    HW125526   3.983   0.365  11.935  0.0494  0.9560  0.8316
39492SOL    HW225527   4.098   0.463  11.941  1.5606 -0.7001  0.0547
39493SOL     OW25528   4.248   0.265  11.716 -0.7589  0.0534  0.3703
39493SOL    HW125529   4.167   0.279  11.765 -1.6008 -0.9722 -0.6617
39493SOL    HW225530   4.219   0.249  11.626  0.7035  1.3764 -0.3959
39494SOL     OW25531   0.360  10.159   7.048 -1.2929 -0.1288  0.2036
39494SOL    HW125532   0.380  10.082   6.995  0.1640  0.1982  0.2361
39494SOL    HW225533   0.346  10.126   7.136  0.8626 -0.2465  0.5463
39495SOL     OW25534   8.759   5.514  10.431 -0.1370  0.1609 -0.2730
39495SOL    HW125535   8.752   5.532  10.525 -0.7321 -1.0341 -0.0657
39495SOL    HW225536   8.800   5.592  10.394  1.9940 -0.1394  1.2686
39496SOL     OW25537  12.518  10.854  10.764  0.5069  0.7096 -0.2484
39496SOL    HW125538  12.585  10.907  10.722  0.5792  0.3792 -0.5546
39496SOL    HW225539  12.508  10.892  10.851  2.6417 -0.5284  0.6140
39497SOL     OW25540  10.454   9.722   9.635 -0.6625 -0.4165  0.1312
39497SOL    HW125541  10.538   9.745   9.674 -0.5492 -2.3406  1.1375
39497SOL    HW225542  10.461   9.750   9.544  1.0590 -0.5463  0.1880
39498SOL     OW25543  10.279   2.197   5.278  0.0451  0.5970 -0.4659
39498SOL    HW125544  10.341   2.256   5.236  0.8337  0.3285  0.2920
39498SOL    HW225545  10.203   2.197   5.220  0.7830  0.8680 -1.4663
39499SOL     OW25546  10.505   7.793   4.358 -0.0415 -0.2019  0.0139
39499SOL    HW125547  10.512   7.698   4.369 -0.6590 -0.0136  2.5132
39499SOL    HW225548  10.418   7.806   4.320  1.0671 -0.7226 -2.9641
39500SOL     OW25549   0.567   0.801   0.602  0.1098  0.0220 -0.0038
39500SOL    HW125550   0.511   0.844   0.666  0.2321 -0.2906  0.3149
39500SOL    HW225551   0.536   0.711   0.600 -0.0673  0.0928 -0.5838
39501SOL     OW25552   3.147   2.206   2.538  0.4465 -0.2419  0.6274
39501SOL    HW125553   3.079   2.273   2.540  0.7723  0.1618 -0.7711
39501SOL    HW225554   3.229   2.255   2.543  0.6695 -0.6081  0.5711
39502SOL     OW25555   7.194   8.063   4.072 -0.1616 -1.0198  0.3859
39502SOL    HW125556   7.261   8.072   4.140  0.4411 -0.8380 -0.2243
39502SOL    HW225557   7.197   7.970   4.048 -1.7591 -1.5496  1.9812
39503SOL     OW25558  11.743  11.648   5.586 -0.3667 -0.0870 -0.0484
39503SOL    HW125559  11.754  11.561   5.549 -2.1840 -0.9956  1.3692
39503SOL    HW225560  11.781  11.708   5.521  1.5654 -1.9481 -0.7331
39504SOL     OW25561   8.554   7.252   9.537 -0.2175 -0.4479  0.0029
39504SOL    HW125562   8.513   7.174   9.575  2.5181 -1.0182  2.0653
39504SOL    HW225563   8.648   7.235   9.541  0.3944  1.3485 -3.2633
39505SOL     OW25564   9.783   6.941   9.661  0.5231 -0.2858  0.1012
39505SOL    HW125565   9.765   7.015   9.603 -0.2029  0.0333  0.7218
39505SOL    HW225566   9.858   6.969   9.713 -0.7154  0.6812  1.4379
39506SOL     OW25567  11.465  11.991  10.513  0.1448  0.2358 -0.5587
39506SOL    HW125568  11.409  11.926  10.471  0.0346 -1.3328  1.8156
39506SOL    HW225569  11.535  11.940  10.554  0.2945  1.6353  1.0311
39507SOL     OW25570   3.487   5.816   2.489 -0.2313  0.6220 -0.3865
39507SOL    HW125571   3.487   5.853   2.577  0.7991  1.2679 -0.6391
39507SOL    HW225572   3.541   5.877   2.437  0.0223 -0.2843 -1.2227
39508SOL     OW25573   4.436   8.283  10.436  0.1218  0.4929  0.4939
39508SOL    HW125574   4.405   8.277  10.345  0.0097 -1.4183  0.6128
39508SOL    HW225575   4.446   8.376  10.452  0.1623  0.8790 -1.5020
39509SOL     OW25576   3.681   9.875   8.556 -0.2325 -0.4202  0.4477
39509SOL    HW125577   3.745   9.856   8.487 -0.6689 -1.2417  0.2468
39509SOL    HW225578   3.611   9.921   8.510 -0.8320 -1.5562  0.1830
39510SOL     OW25579   8.552  11.273   6.417  0.4107  0.3592 -0.4405
39510SOL    HW125580   8.490  11.317   6.475 -0.7075 -0.8590 -0.6602
39510SOL    HW225581   8.501  11.250   6.340  1.5741  0.8475 -1.3813
39511SOL     OW25582  11.838  12.261   0.801  0.1557 -0.3175  0.1425
39511SOL    HW125583  11.915  12.288   0.851  0.7474 -1.5485 -0.0643
39511SOL    HW225584  11.768  12.318   0.833  0.9145  0.1084  1.1021
39512SOL     OW25585   6.437  10.783   1.484 -0.0640 -0.2014 -0.3047
39512SOL    HW125586   6.495  10.786   1.560  0.0195  1.3088 -0.3879
39512SOL    HW225587   6.360  10.834   1.511  0.1505  0.7131 -1.3632
39513SOL     OW25588  10.007   9.564   0.758 -0.0036  0.0637  0.2834
39513SOL    HW125589  10.068   9.507   0.710 -0.3542 -0.0892  0.0103
39513SOL    HW225590   9.959   9.609   0.689 -1.5249 -1.2265  0.4469
39514SOL     OW25591   2.625   0.700   4.513 -0.1696 -0.2260  0.2303
39514SOL    HW125592   2.591   0.663   4.432  0.3780 -0.1617 -0.0366
39514SOL    HW225593   2.692   0.638   4.541  0.6872  0.4891 -0.1656
39515SOL     OW25594   9.255   7.663   0.919  0.6191 -0.7941  0.1670
39515SOL    HW125595   9.232   7.677   1.011 -0.3601  1.8924 -0.4083
39515SOL    HW225596   9.187   7.708   0.870  1.4775 -1.6287 -1.8952
39516SOL     OW25597   9.871   3.289   8.461  0.6293  0.6557 -1.2296
39516SOL    HW125598   9.897   3.381   8.452 -2.6091  1.6684 -1.6294
39516SOL    HW225599   9.814   3.273   8.385 -0.1412 -1.1690 -0.3124
39517SOL     OW25600   9.992   0.312   6.700 -0.1621  0.4673  0.2459
39517SOL    HW125601   9.953   0.289   6.616  1.0803 -0.4292 -0.1203
39517SOL    HW225602  10.076   0.265   6.701  0.6629  1.8718  1.2246
39518SOL     OW25603   5.226   2.359   8.728 -0.1639  0.0554 -0.2525
39518SOL    HW125604   5.212   2.304   8.805  0.8725  0.8776  0.5455
39518SOL    HW225605   5.304   2.411   8.749 -0.2522  0.7680 -1.5880
39519SOL     OW25606   6.615   6.607   2.664 -0.1831  0.9703 -0.4244
39519SOL    HW125607   6.537   6.633   2.712  0.2587  1.2224  0.1731
39519SOL    HW225608   6.688   6.642   2.716  0.2893  1.7112 -1.5450
39520SOL     OW25609   9.560   6.146   4.972 -0.0920  0.1220 -0.9075
39520SOL    HW125610   9.598   6.073   4.923 -0.8178  0.2354 -1.6551
39520SOL    HW225611   9.553   6.217   4.908 -1.2036  0.2211 -0.6878
39521SOL     OW25612  10.520  12.219   6.223 -0.2366 -0.4065  0.1498
39521SOL    HW125613  10.505  12.306   6.260 -2.5725 -1.1006  1.0363
39521SOL    HW225614  10.548  12.166   6.298  0.6699 -0.5656 -0.2825
39522SOL     OW25615  11.136   9.367  10.128  0.4571  0.4614 -0.0588
39522SOL    HW125616  11.083   9.287  10.127  0.0546  0.7237 -0.9580
39522SOL    HW225617  11.209   9.348  10.069  0.6259  0.5860  0.1088
39523SOL     OW25618   0.277  12.576  10.193  0.1863 -0.1245 -0.2952
39523SOL    HW125619   0.317  12.577  10.106  1.6687 -0.7658  0.3253
39523SOL    HW225620   0.231  12.659  10.200  1.6756  0.8007 -0.9825
39524SOL     OW25621  10.466   4.384  10.856 -0.8862 -0.5961  0.3585
39524SOL    HW125622  10.416   4.306  10.833 -1.4132 -0.5259  1.2247
39524SOL    HW225623  10.557   4.357  10.849 -1.0656 -1.3211  0.7322
39525SOL     OW25624   6.213  12.462   1.037 -0.5328 -0.2423  0.4718
39525SOL    HW125625   6.230  12.420   0.952 -0.3577  0.9960 -0.1297
39525SOL    HW225626   6.261  12.409   1.100 -1.0618 -1.4838 -0.1247
39526SOL     OW25627   8.837   3.583   3.593  0.4501  0.3509  0.4770
39526SOL    HW125628   8.855   3.541   3.678 -0.5366  1.9106  1.5024
39526SOL    HW225629   8.760   3.536   3.560  1.1673 -0.6363  0.1297
39527SOL     OW25630  12.097   7.609   4.892  0.5807  0.2064  0.1132
39527SOL    HW125631  12.035   7.589   4.962  0.7307  1.6934  0.6982
39527SOL    HW225632  12.072   7.695   4.861  1.2395  0.0494 -0.8894
39528SOL     OW25633  11.390   5.951  11.153  0.3307  0.1417  0.1441
39528SOL    HW125634  11.302   5.934  11.120 -0.1982 -1.7589  2.3298
39528SOL    HW225635  11.376   5.990  11.240  1.6037 -1.1271  0.9490
39529SOL     OW25636   6.334   1.746   4.647  0.1127 -0.2055  0.1155
39529SOL    HW125637   6.408   1.688   4.631 -0.4511 -0.7511 -0.5554
39529SOL    HW225638   6.374   1.831   4.666  0.9018 -0.3100 -0.9800
39530SOL     OW25639   2.982   5.025   2.293  0.0644  0.2432  0.2151
39530SOL    HW125640   3.015   5.042   2.206 -1.0068  1.0744 -0.0493
39530SOL    HW225641   2.897   4.981   2.279 -0.0617  0.2697  0.8298
39531SOL     OW25642   8.230   9.054   9.968 -0.2361  0.3484 -0.4856
39531SOL    HW125643   8.283   9.098  10.035 -1.4268  0.0156  0.7239
39531SOL    HW225644   8.141   9.060  10.002 -0.5969 -1.8100 -0.9454
39532SOL     OW25645   2.610   2.926   8.112  0.1980  0.1076  0.4137
39532SOL    HW125646   2.570   2.839   8.115  2.0947 -0.8194  0.0694
39532SOL    HW225647   2.539   2.986   8.135 -1.9214 -1.2546 -2.0025
39533SOL     OW25648   0.050   8.619   9.512 -0.2617 -0.3162  0.5041
39533SOL    HW125649  -0.008   8.687   9.546  0.5388  0.5066  0.2493
39533SOL    HW225650   0.065   8.561   9.587  1.0356  1.1624  1.4506
39534SOL     OW25651   6.622   4.840   4.840 -0.5470  0.2121 -0.1503
39534SOL    HW125652   6.716   4.831   4.856 -0.3059  0.9987 -1.0154
39534SOL    HW225653   6.580   4.802   4.917  0.4375 -2.0281 -0.6353
39535SOL     OW25654   5.708   8.214  10.355 -0.4410  0.3639  0.6130
39535SOL    HW125655   5.797   8.243  10.333  0.4159 -0.6250  2.5345
39535SOL    HW225656   5.715   8.119  10.361 -1.4683  0.3266  1.4870
39536SOL     OW25657   9.635   8.214   3.745 -0.1463  0.0604 -0.8594
39536SOL    HW125658   9.730   8.223   3.738  0.0760  0.2408  1.4151
39536SOL    HW225659   9.615   8.245   3.834 -1.9781 -2.5081 -0.2791
39537SOL     OW25660   2.657   2.679  12.113 -0.4512  0.2187 -0.3995
39537SOL    HW125661   2.606   2.760  12.108 -0.6665  0.0339 -1.4873
39537SOL    HW225662   2.702   2.684  12.198 -1.5814  0.7975  0.1896
39538SOL     OW25663   5.145   0.655  11.146  0.2883  0.4116  0.1988
39538SOL    HW125664   5.066   0.702  11.118  0.1684 -0.6340 -1.3720
39538SOL    HW225665   5.117   0.564  11.151  0.5969  0.3851  2.8816
39539SOL     OW25666   2.400   9.954   3.087  0.2213 -0.4306  0.0671
39539SOL    HW125667   2.482   9.912   3.061  0.7326  1.0493 -0.8290
39539SOL    HW225668   2.418  10.047   3.083 -1.0305 -0.0770  1.4963
39540SOL     OW25669   5.129  10.565   5.031 -0.2646  0.4000 -0.1082
39540SOL    HW125670   5.114  10.582   5.123 -0.2052  2.8870 -0.5064
39540SOL    HW225671   5.051  10.517   5.002 -1.1480  1.2402  0.8303
39541SOL     OW25672   8.239   6.791   2.797 -0.0919  0.6023 -0.0331
39541SOL    HW125673   8.187   6.856   2.750 -0.9186  0.7626  1.0697
39541SOL    HW225674   8.308   6.767   2.735  0.1305  2.3922 -0.5508
39542SOL     OW25675   3.628   2.169   2.715  0.6856  0.0199 -0.8143
39542SOL    HW125676   3.711   2.212   2.732  0.5954  0.4139 -1.3361
39542SOL    HW225677   3.647   2.109   2.642  0.7177 -0.5423 -0.3532
39543SOL     OW25678  12.479   7.794   5.543 -0.1984  0.4200  0.5714
39543SOL    HW125679  12.542   7.832   5.604  0.3143  0.9503 -0.2793
39543SOL    HW225680  12.494   7.839   5.460 -0.3448 -0.8278 -0.1682
39544SOL     OW25681   3.694  11.947  12.139 -0.4766 -0.2546  0.1264
39544SOL    HW125682   3.654  11.903  12.214 -0.8310  2.3173  1.5646
39544SOL    HW225683   3.780  11.974  12.169 -0.2098 -0.0883 -0.7493
39545SOL     OW25684   4.359   5.108  12.134 -0.4296 -0.4851  0.4041
39545SOL    HW125685   4.300   5.091  12.207  0.4610 -1.5912  0.8950
39545SOL    HW225686   4.444   5.075  12.163  0.2461  0.2767 -0.6217
39546SOL     OW25687   8.153  11.886  11.052  0.0796  0.0766  0.4464
39546SOL    HW125688   8.240  11.927  11.048 -0.4531  1.1696 -0.8555
39546SOL    HW225689   8.132  11.868  10.960 -1.2391  0.2062  0.7116
39547SOL     OW25690   3.200  10.626  11.859  0.0815  0.6913 -0.1167
39547SOL    HW125691   3.209  10.603  11.767  1.6927 -0.3216  0.2401
39547SOL    HW225692   3.154  10.552  11.898  1.2148  0.1317  0.2200
39548SOL     OW25693   7.611  11.314   0.059  0.4967  0.1101 -0.0166
39548SOL    HW125694   7.659  11.241   0.020  0.8350 -0.4440  1.4077
39548SOL    HW225695   7.522  11.304   0.026  0.3364 -1.4582  0.8119
39549SOL     OW25696  10.196   9.912   7.163 -0.5023 -0.5614 -0.1101
39549SOL    HW125697  10.217   9.922   7.256  1.5448 -1.2228 -0.4623
39549SOL    HW225698  10.101   9.902   7.162 -0.8760  1.7400  1.6895
39550SOL     OW25699   1.397   8.411   3.512 -0.5484 -0.4038 -0.0918
39550SOL    HW125700   1.438   8.496   3.526  0.6384 -1.2220  1.7831
39550SOL    HW225701   1.349   8.393   3.593  1.4994 -2.6883  0.7440
39551SOL     OW25702   4.872  11.883   0.872  0.5592  1.0821 -0.2367
39551SOL    HW125703   4.967  11.899   0.874  0.2490  3.1767 -0.2012
39551SOL    HW225704   4.842  11.928   0.793 -0.2098 -1.0667 -1.2452
39552SOL     OW25705  11.932   2.308   2.433  0.0045 -0.2885  0.1271
39552SOL    HW125706  11.948   2.357   2.352  0.6031 -0.2124  0.2879
39552SOL    HW225707  12.018   2.302   2.475 -0.3191 -0.2363  0.8128
39553SOL     OW25708   9.923   4.580   8.007 -0.1840 -0.5287 -0.1822
39553SOL    HW125709   9.855   4.531   8.052  0.6245 -1.1510  0.3953
39553SOL    HW225710   9.961   4.635   8.075 -0.1273 -0.1649 -0.5075
39554SOL     OW25711   7.032   7.040   7.563 -0.0486  0.0645 -1.1811
39554SOL    HW125712   7.033   6.947   7.586 -0.2670  0.3784  0.1895
39554SOL    HW225713   7.123   7.062   7.544  0.7866  0.5215  2.6940
39555SOL     OW25714   0.258   4.689   6.667 -0.4635  0.3750 -0.7150
39555SOL    HW125715   0.251   4.670   6.573  0.3336 -0.7077 -0.5763
39555SOL    HW225716   0.351   4.708   6.681 -0.5417  0.3406 -0.1186
39556SOL     OW25717  11.865   5.091   4.694 -0.0959  0.2492  0.0672
39556SOL    HW125718  11.809   5.080   4.771  0.5040 -0.1075  0.4628
39556SOL    HW225719  11.935   5.149   4.723  0.1774  0.0528 -0.1890
39557SOL     OW25720   6.788  10.771   5.730  0.1799  0.3147  0.2912
39557SOL    HW125721   6.852  10.726   5.785 -1.4722 -1.5475  0.8172
39557SOL    HW225722   6.821  10.860   5.722  1.2449  0.2673  3.0889
39558SOL     OW25723   1.887   0.023   6.944 -0.6309  0.5732  0.1014
39558SOL    HW125724   1.927   0.047   6.861  0.2178 -0.4672  0.1751
39558SOL    HW225725   1.831  -0.052   6.923 -1.8933  1.4848  0.1550
39559SOL     OW25726   2.765   9.106   5.548 -0.6328 -0.2063 -0.2562
39559SOL    HW125727   2.747   9.194   5.580  0.1129  0.2603 -1.0819
39559SOL    HW225728   2.797   9.059   5.625 -0.0704  0.5380 -0.0165
39560SOL     OW25729   9.113  11.682   0.372 -0.1609  0.0468  0.2223
39560SOL    HW125730   9.094  11.762   0.421  0.5809  0.7300 -0.5775
39560SOL    HW225731   9.203  11.660   0.396  0.6362  1.0394 -1.6577
39561SOL     OW25732   4.584   5.829   9.744  0.5998 -0.1677 -0.2933
39561SOL    HW125733   4.604   5.780   9.824  0.3937 -0.7158 -0.5736
39561SOL    HW225734   4.488   5.835   9.744  0.5364 -0.9618 -0.9536
39562SOL     OW25735   5.636   6.082   0.142  0.0767 -0.4000  0.8995
39562SOL    HW125736   5.563   6.025   0.165  0.2876 -2.1350 -2.2421
39562SOL    HW225737   5.657   6.060   0.052  2.7904  1.9300  0.8093
39563SOL     OW25738   9.859  11.900   5.033  0.1948  0.4002 -0.3747
39563SOL    HW125739   9.794  11.950   4.983 -0.5601 -0.0491  0.1274
39563SOL    HW225740   9.837  11.918   5.124  2.0894  1.8874 -0.1623
39564SOL     OW25741   3.402   1.418   2.944  0.3025  0.3188  0.4180
39564SOL    HW125742   3.495   1.399   2.927 -0.0890  0.2556 -1.8928
39564SOL    HW225743   3.396   1.513   2.937  0.0761  0.2702 -0.0175
39565SOL     OW25744   8.887   4.216   0.060 -0.1251 -0.4091 -0.4183
39565SOL    HW125745   8.905   4.273  -0.015  2.7937 -0.0353  0.4453
39565SOL    HW225746   8.886   4.275   0.135 -0.8363 -1.0561  0.0866
39566SOL     OW25747   4.938   4.210   5.685 -0.0944 -0.3139 -0.2037
39566SOL    HW125748   4.884   4.289   5.674  1.2319  0.5481 -0.8843
39566SOL    HW225749   4.907   4.170   5.766 -1.2636  0.5314 -0.2119
39567SOL     OW25750   9.382  10.932   9.153 -0.0684  1.0399  0.2144
39567SOL    HW125751   9.377  10.993   9.226 -0.8497  0.6981  0.4577
39567SOL    HW225752   9.400  10.848   9.193 -0.9064  0.7778  0.0634
39568SOL     OW25753   4.300  10.665   4.373 -0.5069  0.2345  0.2964
39568SOL    HW125754   4.320  10.701   4.459 -0.2633  1.0696 -0.1032
39568SOL    HW225755   4.223  10.714   4.343  0.4740  1.2261 -0.7112
39569SOL     OW25756   6.653   9.724   9.565 -0.0502  0.2057 -0.3801
39569SOL    HW125757   6.648   9.670   9.487  0.5990  0.2936 -0.4858
39569SOL    HW225758   6.744   9.754   9.569 -0.0986  0.2899  0.3477
39570SOL     OW25759   9.279   7.510   0.001 -0.3886 -0.4026  0.3837
39570SOL    HW125760   9.191   7.545  -0.011 -0.1909  0.4824  1.3476
39570SOL    HW225761   9.316   7.506  -0.087 -0.8189  0.7738  0.1393
39571SOL     OW25762   5.637   5.665   7.305  0.2913  0.4135  0.7298
39571SOL    HW125763   5.704   5.621   7.357 -0.1715  0.9048  1.7720
39571SOL    HW225764   5.686   5.711   7.237  0.7591 -1.8556 -0.5348
39572SOL     OW25765   8.211   7.862   1.633 -0.2327  0.3046  1.1433
39572SOL    HW125766   8.195   7.867   1.538  3.7343 -2.2566  0.1020
39572SOL    HW225767   8.152   7.927   1.670 -1.0712  2.3912 -3.1700
39573SOL     OW25768   2.324   7.007   8.451 -0.0390  0.0903 -0.2040
39573SOL    HW125769   2.378   6.964   8.517 -1.1928 -0.5112  0.3657
39573SOL    HW225770   2.339   6.956   8.371 -1.4610 -1.4923  0.4783
39574SOL     OW25771   0.444   0.820   2.338  0.4876 -0.3035  0.3096
39574SOL    HW125772   0.454   0.881   2.264 -1.4198 -0.3402 -0.0177
39574SOL    HW225773   0.424   0.736   2.297  1.1077 -0.7139  0.8320
39575SOL     OW25774   9.215   8.139   2.229 -0.8027 -0.4202  0.0509
39575SOL    HW125775   9.215   8.073   2.161 -1.7224 -0.2244 -0.1513
39575SOL    HW225776   9.264   8.212   2.192 -1.8853 -0.0456 -0.6872
39576SOL     OW25777   9.716  11.667   2.185  0.4983 -0.1899 -0.5366
39576SOL    HW125778   9.781  11.703   2.244  0.6362 -0.1018 -0.7403
39576SOL    HW225779   9.651  11.736   2.175  0.8125  0.0512 -1.0037
39577SOL     OW25780  11.334   5.175   2.163  0.2868  0.0437  0.5591
39577SOL    HW125781  11.381   5.237   2.107  0.9366 -0.2121  0.8114
39577SOL    HW225782  11.394   5.159   2.236 -0.3042 -0.0919  1.0195
39578SOL     OW25783  12.128   6.412   3.530 -0.6611 -0.2646 -0.7422
39578SOL    HW125784  12.183   6.360   3.471 -1.5315 -2.5274  0.3405
39578SOL    HW225785  12.190   6.463   3.582  0.2446 -0.6014 -1.4666
39579SOL     OW25786   1.709   5.801   5.521 -0.4743  0.1467 -0.2211
39579SOL    HW125787   1.794   5.763   5.542 -0.8293 -0.7025 -0.2739
39579SOL    HW225788   1.665   5.734   5.469 -0.1421  1.6705 -2.5981
39580SOL     OW25789   6.715   2.523  11.973 -0.5857 -0.2923  0.4737
39580SOL    HW125790   6.755   2.567  12.048  0.9631 -1.1848  0.1999
39580SOL    HW225791   6.641   2.476  12.010 -0.8329  0.5941  1.1536
39581SOL     OW25792   7.581   2.512   5.864  0.2168 -0.4717  0.4163
39581SOL    HW125793   7.582   2.474   5.951  1.3512  1.9087  1.5338
39581SOL    HW225794   7.537   2.597   5.874  3.1772  1.3351 -0.5302
39582SOL     OW25795   6.475   9.085   2.013 -0.2876 -0.1665 -0.5300
39582SOL    HW125796   6.416   9.091   2.088 -1.3642 -1.9680 -1.1667
39582SOL    HW225797   6.467   9.169   1.969  0.4612  0.9946  1.3765
39583SOL     OW25798  11.807  12.109  10.993  0.1323  0.4917  0.5103
39583SOL    HW125799  11.816  12.165  10.916 -0.8214 -1.0234 -0.7830
39583SOL    HW225800  11.787  12.169  11.065 -3.0857  1.6953 -1.2162
39584SOL     OW25801  10.864  11.764  11.991 -0.0921  0.1013  0.1590
39584SOL    HW125802  10.933  11.795  12.050  0.5565  0.2112 -0.6501
39584SOL    HW225803  10.903  11.767  11.904  0.5348 -4.2175  0.0495
39585SOL     OW25804   2.022   3.823   7.827  0.1142  0.5161 -0.2328
39585SOL    HW125805   2.043   3.835   7.734 -2.4433  1.5980 -0.7739
39585SOL    HW225806   1.992   3.909   7.856  0.0411 -0.0160  1.3822
39586SOL     OW25807  10.298   1.080   9.269 -0.0113 -0.0365 -0.4337
39586SOL    HW125808  10.267   1.004   9.219  0.9531 -0.3098 -0.6427
39586SOL    HW225809  10.350   1.042   9.340 -1.8032  0.3179  1.1446
39587SOL     OW25810   2.790   2.128   1.866  0.2521 -0.4327 -0.2341
39587SOL    HW125811   2.697   2.145   1.854  0.3576  1.5677  1.2386
39587SOL    HW225812   2.832   2.158   1.786 -0.3010 -0.8231 -0.6748
39588SOL     OW25813   0.239  10.850   0.064  0.1826  0.5198 -0.0337
39588SOL    HW125814   0.292  10.818  -0.009  0.6834  0.0564  0.5208
39588SOL    HW225815   0.161  10.794   0.064 -0.0878  0.8880 -0.5527
39589SOL     OW25816  10.608  12.225   0.456 -0.3721 -0.1069 -0.3550
39589SOL    HW125817  10.533  12.218   0.396 -0.4610  0.9179 -0.3748
39589SOL    HW225818  10.577  12.186   0.538 -1.7568  2.3078  0.3698
39590SOL     OW25819  11.083   9.576  10.291 -0.5609  0.1833 -0.2660
39590SOL    HW125820  10.988   9.574  10.303 -0.5844  0.0451 -0.4723
39590SOL    HW225821  11.103   9.494  10.245 -0.0589 -0.9672  1.8536
39591SOL     OW25822   3.255   2.461   5.000  0.0856  0.2373  0.0041
39591SOL    HW125823   3.203   2.437   4.923 -0.4257  0.2481  0.3398
39591SOL    HW225824   3.205   2.532   5.041  1.0191  1.1370 -0.3711
39592SOL     OW25825  10.367   0.288   2.143  0.1483 -0.1070 -0.3870
39592SOL    HW125826  10.442   0.344   2.168  0.7429 -0.8325 -0.5191
39592SOL    HW225827  10.314   0.344   2.086  0.2726  0.6148  0.1835
39593SOL     OW25828  12.447  10.805   4.782  0.8430  0.4607 -0.2258
39593SOL    HW125829  12.402  10.857   4.848 -2.5560 -0.5667 -1.4999
39593SOL    HW225830  12.473  10.869   4.715 -1.0259  0.9256 -0.5895
39594SOL     OW25831   4.396   7.801  11.512 -0.1835  0.2031 -0.7559
39594SOL    HW125832   4.363   7.887  11.539  1.6822  1.8266 -3.1346
39594SOL    HW225833   4.364   7.790  11.422  0.2488 -1.2544 -0.7550
39595SOL     OW25834   8.905   0.141   6.924  0.1553  0.5140 -0.0586
39595SOL    HW125835   8.903   0.064   6.981  1.7072 -0.9827 -1.8731
39595SOL    HW225836   8.979   0.193   6.956  0.2881  0.2791  0.0190
39596SOL     OW25837  10.027   9.581   6.867  0.6203  1.0634 -0.1423
39596SOL    HW125838  10.110   9.550   6.904  0.1380 -1.4757 -0.9734
39596SOL    HW225839  10.040   9.578   6.772 -0.3412  0.7984 -0.2790
39597SOL     OW25840   1.149   1.297   3.078  0.2602  0.1317 -0.3409
39597SOL    HW125841   1.179   1.301   2.987 -1.4846  4.3433 -0.9798
39597SOL    HW225842   1.068   1.247   3.074  1.5489 -2.0620 -0.5079
39598SOL     OW25843  12.593   2.655   4.328  0.0127 -0.4179  0.5292
39598SOL    HW125844  12.573   2.703   4.409  0.6765 -2.8501  2.2298
39598SOL    HW225845  12.688   2.641   4.332  0.0977 -0.3372 -0.8416
39599SOL     OW25846   3.015  11.083   8.932  0.4704  0.3654  0.3325
39599SOL    HW125847   3.110  11.082   8.931  0.5582  0.6072 -3.0988
39599SOL    HW225848   2.991  11.175   8.938  0.4606  0.3780  0.0851
39600SOL     OW25849   2.193   6.957   8.754  0.0134 -0.4327 -0.2904
39600SOL    HW125850   2.196   7.016   8.679  0.9717  1.8247  1.3791
39600SOL    HW225851   2.285   6.937   8.773 -0.2362 -1.3342 -0.0014
39601SOL     OW25852   7.401   3.744   6.868 -0.1870 -0.6008 -0.3476
39601SOL    HW125853   7.389   3.654   6.899 -1.1529  0.1421  1.6189
39601SOL    HW225854   7.465   3.782   6.929  0.3948 -0.0078 -1.3019
39602SOL     OW25855   7.770   7.971  11.252  0.4271 -0.3533 -0.0314
39602SOL    HW125856   7.762   7.894  11.309 -3.5306 -0.8192 -0.8930
39602SOL    HW225857   7.750   8.045  11.309 -1.8251 -0.6644 -0.2988
39603SOL     OW25858   5.537   5.519   3.696 -0.0883 -0.5922 -0.3116
39603SOL    HW125859   5.530   5.540   3.789  2.0904 -0.3506 -0.1462
39603SOL    HW225860   5.503   5.430   3.689  0.3559 -0.8687  0.8505
39604SOL     OW25861   6.670  12.285   0.089  0.2788 -0.2432  0.6304
39604SOL    HW125862   6.600  12.226   0.116  1.1448 -0.9687  1.3476
39604SOL    HW225863   6.656  12.364   0.142  0.4222 -0.6598  1.2947
39605SOL     OW25864   0.951   1.652   4.397 -0.1265 -0.1244  0.0185
39605SOL    HW125865   0.978   1.561   4.410 -0.9462 -0.2090  1.1828
39605SOL    HW225866   0.873   1.646   4.343  0.5231 -0.0237 -0.9649
39606SOL     OW25867  10.676   8.515   3.083  0.1604 -0.0925 -0.2994
39606SOL    HW125868  10.606   8.458   3.114  1.3933 -0.6940  1.5408
39606SOL    HW225869  10.634   8.600   3.067 -0.8322 -0.1913  1.6319
39607SOL     OW25870   0.137  11.787   4.281 -0.2020 -0.0485 -0.3064
39607SOL    HW125871   0.172  11.731   4.351  1.5882  0.3962 -0.7891
39607SOL    HW225872   0.050  11.812   4.312  0.1023 -0.7489  1.2535
39608SOL     OW25873   6.286   8.545   1.643 -0.4818  0.1230  0.2074
39608SOL    HW125874   6.278   8.521   1.736  1.8973  0.2632  0.5227
39608SOL    HW225875   6.306   8.463   1.598  0.0326  0.3103  0.0890
39609SOL     OW25876   5.006   8.389  10.493  0.0272 -0.4170 -0.2141
39609SOL    HW125877   5.082   8.333  10.481  0.7536  0.4936 -0.0227
39609SOL    HW225878   4.939   8.352  10.435  0.7058 -1.0769 -0.5917
39610SOL     OW25879   2.580   7.779   3.949 -0.1764 -0.1959  0.1618
39610SOL    HW125880   2.643   7.727   3.900  0.7467  0.3937  0.6924
39610SOL    HW225881   2.514   7.803   3.885  1.0390  0.6179 -0.8258
39611SOL     OW25882   4.062   5.934   1.650 -0.7050  0.0408  0.0513
39611SOL    HW125883   4.025   5.905   1.567 -0.6093 -1.0330  0.3694
39611SOL    HW225884   4.154   5.906   1.646 -0.0530  2.0456 -0.4371
39612SOL     OW25885  11.403   4.477   1.611  0.4473 -0.1107 -0.2120
39612SOL    HW125886  11.449   4.393   1.601  1.2886  0.5179 -1.9679
39612SOL    HW225887  11.315   4.460   1.576  0.5477 -0.3056 -0.3748
39613SOL     OW25888   0.400  12.140   6.323  0.3213 -0.0951 -0.0980
39613SOL    HW125889   0.414  12.224   6.366  2.4183 -0.5970  0.3336
39613SOL    HW225890   0.451  12.077   6.375  0.7219 -1.2019 -1.7262
39614SOL     OW25891   8.515   3.957  10.294 -0.0768  0.0342  0.1115
39614SOL    HW125892   8.497   4.019  10.364  0.6908 -0.3496  0.6558
39614SOL    HW225893   8.472   3.876  10.321 -0.8953  0.2471 -0.4967
39615SOL     OW25894   4.022   6.001   3.269  0.0903  0.0575 -0.9291
39615SOL    HW125895   3.971   6.010   3.189  0.5293  1.3824 -1.0736
39615SOL    HW225896   3.977   6.058   3.332  0.0208 -0.6143 -0.3587
39616SOL     OW25897   6.993   5.027   7.998 -0.6686  0.4652  1.0345
39616SOL    HW125898   6.910   5.070   7.981 -0.3244  1.0527  0.8198
39616SOL    HW225899   6.972   4.959   8.062 -1.7943 -1.0796 -0.8387
39617SOL     OW25900   7.270   8.781   1.795  0.1731  0.1449 -0.3690
39617SOL    HW125901   7.325   8.776   1.717 -1.7932 -2.0100 -1.7196
39617SOL    HW225902   7.289   8.701   1.843 -0.8899 -0.0552 -0.2559
39618SOL     OW25903   5.620   5.794   2.768  0.2864  0.5032  0.0248
39618SOL    HW125904   5.663   5.876   2.746  1.1054  0.4552  1.3263
39618SOL    HW225905   5.620   5.744   2.687 -0.7305  1.9668 -0.9422
39619SOL     OW25906   2.079   5.944   6.614  0.5802 -0.2464 -0.4916
39619SOL    HW125907   2.032   5.862   6.629  0.3169 -0.1868 -0.9935
39619SOL    HW225908   2.014   6.003   6.576  0.5771  0.4344  0.5292
39620SOL     OW25909  12.527   7.549   3.015 -0.0328  0.9129 -0.0352
39620SOL    HW125910  12.484   7.594   3.088 -0.4740 -0.5282  0.6370
39620SOL    HW225911  12.620   7.549   3.038 -0.2912 -0.5172  1.1215
39621SOL     OW25912  11.922   0.172   6.159  0.0105  0.2192  0.0140
39621SOL    HW125913  11.932   0.257   6.202  0.7054 -0.6556  1.6971
39621SOL    HW225914  11.939   0.108   6.229  0.1656 -1.3033 -1.3586
39622SOL     OW25915   2.217   5.223   8.838  0.5556  0.0342  0.0663
39622SOL    HW125916   2.158   5.235   8.764 -0.2038  0.8692  0.7893
39622SOL    HW225917   2.230   5.128   8.843  0.8843 -0.0092 -1.3259
39623SOL     OW25918   0.042  11.262   3.446 -0.0838 -0.3529 -0.0352
39623SOL    HW125919   0.039  11.333   3.382  2.2279  1.8706  2.0978
39623SOL    HW225920  -0.047  11.227   3.447 -0.5791  0.4909 -3.2791
39624SOL     OW25921   7.601   2.505   4.549 -0.0837  0.1267 -0.0441
39624SOL    HW125922   7.684   2.552   4.540 -0.8441  1.3338 -1.0767
39624SOL    HW225923   7.624   2.425   4.597  1.7635  0.1678 -0.7743
39625SOL     OW25924   4.122   6.956   5.023  0.1682 -0.1781  0.2270
39625SOL    HW125925   4.052   6.913   5.073  0.4594 -0.5352  0.3347
39625SOL    HW225926   4.201   6.938   5.074  0.6715 -1.6632 -1.0101
39626SOL     OW25927   3.709   5.511   3.160 -0.3868  0.3300 -0.6177
39626SOL    HW125928   3.751   5.595   3.140 -2.2544  1.1701 -1.1966
39626SOL    HW225929   3.675   5.481   3.076 -1.0657 -0.2444 -0.1449
39627SOL     OW25930   1.735   1.559   0.442 -0.8221 -0.8026  0.0989
39627SOL    HW125931   1.694   1.473   0.451 -2.0321 -0.1494  1.2773
39627SOL    HW225932   1.750   1.588   0.532  0.2602 -0.0843 -0.2937
39628SOL     OW25933   0.062  11.982   1.572 -0.0539 -0.5903 -0.4978
39628SOL    HW125934  -0.024  11.947   1.550 -0.0488 -0.4957 -0.6698
39628SOL    HW225935   0.098  11.919   1.636  0.2882 -1.3409 -1.4073
39629SOL     OW25936   8.755   3.067   6.822  0.2299 -0.3073  0.1194
39629SOL    HW125937   8.697   3.038   6.893 -1.3096  0.5836 -0.7164
39629SOL    HW225938   8.840   3.079   6.864 -0.6514  0.2659  1.8531
39630SOL     OW25939   2.942  12.085   9.952 -0.4993 -0.0310  0.1025
39630SOL    HW125940   2.983  12.009   9.993  0.7269 -1.0260 -2.6926
39630SOL    HW225941   2.859  12.096   9.998  0.1751 -1.8259  1.8876
39631SOL     OW25942  12.572  10.111   9.442 -0.3058 -0.2044  0.3768
39631SOL    HW125943  12.615  10.058   9.510 -0.7008 -1.4440 -0.3106
39631SOL    HW225944  12.635  10.112   9.370 -0.4885 -0.1125  0.2198
39632SOL     OW25945   1.530   9.657  10.237 -0.7044 -0.1675 -0.4357
39632SOL    HW125946   1.490   9.675  10.151 -2.0221 -1.5828 -0.1563
39632SOL    HW225947   1.463   9.682  10.300 -0.0205  0.1732  0.1675
39633SOL     OW25948   2.684   3.510   1.634 -0.4088  0.0964 -0.4160
39633SOL    HW125949   2.678   3.415   1.646  1.9597 -0.0523  0.2050
39633SOL    HW225950   2.696   3.522   1.540  0.0126 -0.3055 -0.4198
39634SOL     OW25951  11.516   4.574  10.507  0.4831 -0.2720  0.6757
39634SOL    HW125952  11.482   4.627  10.579 -1.1330 -0.2971 -0.0284
39634SOL    HW225953  11.532   4.488  10.545 -1.7771 -0.7230  0.7415
39635SOL     OW25954   4.457   5.998   4.857 -0.1130 -0.4690  0.8271
39635SOL    HW125955   4.418   5.953   4.782 -4.4491 -0.3232  2.6714
39635SOL    HW225956   4.537   6.037   4.823 -0.1592 -3.0567 -2.8191
39636SOL     OW25957   3.221   7.699   1.709  0.0823 -0.8057  0.4780
39636SOL    HW125958   3.248   7.770   1.768  0.6651 -0.5480 -0.0892
39636SOL    HW225959   3.159   7.740   1.649  1.8145 -0.2806 -1.0350
39637SOL     OW25960   8.767   0.962   8.465 -0.8137 -0.0408  0.2231
39637SOL    HW125961   8.687   1.006   8.435 -0.3244  0.6143 -0.1385
39637SOL    HW225962   8.838   1.019   8.436 -0.0855 -1.6166 -1.2624
39638SOL     OW25963   1.884   4.265   1.982 -0.1308 -0.1298  0.6260
39638SOL    HW125964   1.916   4.210   2.054  0.0098 -0.5622  0.2337
39638SOL    HW225965   1.910   4.354   2.006  0.6763 -0.3794  0.6901
39639SOL     OW25966   3.091   2.433   1.894  0.3521  0.1557 -0.0030
39639SOL    HW125967   3.127   2.470   1.975 -0.9031 -1.0644  1.1669
39639SOL    HW225968   3.001   2.410   1.916  0.8353 -2.9583 -0.8061
39640SOL     OW25969   2.248   2.815  12.302 -0.2256 -0.4143 -0.3764
39640SOL    HW125970   2.315   2.872  12.264 -0.8095 -0.5379 -1.6537
39640SOL    HW225971   2.246   2.838  12.395  1.4534 -0.2951 -0.3530
39641SOL     OW25972   0.193   8.813   4.086  0.0479 -0.6263  0.0718
39641SOL    HW125973   0.264   8.781   4.141 -0.1753  1.2168  1.5314
39641SOL    HW225974   0.116   8.813   4.143 -0.7753 -1.0253 -0.9950
39642SOL     OW25975   4.684   7.517  12.592 -0.0698  0.3320 -0.6965
39642SOL    HW125976   4.746   7.565  12.537 -1.7802  0.7800 -2.3369
39642SOL    HW225977   4.630   7.468  12.530 -0.9309 -0.5893  0.7201
39643SOL     OW25978   3.438   0.568   1.411 -0.0909  0.0229 -0.6171
39643SOL    HW125979   3.481   0.653   1.413 -0.0470 -0.0060 -0.3835
39643SOL    HW225980   3.378   0.569   1.486  0.7082 -0.5719  0.0485
39644SOL     OW25981  12.268   8.574   1.192 -0.0587  0.2855 -0.2051
39644SOL    HW125982  12.290   8.666   1.180  0.7865 -0.0932 -1.8487
39644SOL    HW225983  12.256   8.540   1.103  0.2858 -1.3354  0.3269
39645SOL     OW25984   5.391   4.621  12.230  0.7376  0.7159 -0.3820
39645SOL    HW125985   5.437   4.545  12.194  1.6359  1.7956 -1.6090
39645SOL    HW225986   5.305   4.619  12.188  1.0169  0.7557 -0.9702
39646SOL     OW25987  11.048   8.209   4.343  0.0933 -0.1875 -0.2640
39646SOL    HW125988  10.965   8.208   4.294 -0.6815 -0.0543  0.9825
39646SOL    HW225989  11.032   8.151   4.418  1.7107 -1.4776 -0.8676
39647SOL     OW25990   4.897   0.338   3.860 -0.5224 -0.1356 -0.0724
39647SOL    HW125991   4.828   0.397   3.830  0.8552  1.8284  0.4399
39647SOL    HW225992   4.953   0.328   3.783 -1.0261 -1.2326 -0.3089
39648SOL     OW25993  11.473   7.164   5.683  0.2898 -0.6470 -0.3509
39648SOL    HW125994  11.494   7.247   5.642 -2.4381  2.4348  3.6983
39648SOL    HW225995  11.557   7.127   5.708  1.5782  1.6428 -1.0348
39649SOL     OW25996   0.562  12.419   2.930 -0.4788  0.0545  0.2569
39649SOL    HW125997   0.503  12.346   2.951  1.1474 -0.7582  2.3938
39649SOL    HW225998   0.514  12.471   2.866 -2.3463 -2.0454 -0.1728
39650SOL     OW25999   2.197   5.434   0.886 -0.5117 -0.0608 -0.5825
39650SOL    HW126000   2.143   5.502   0.925  0.6902  1.0654 -0.8371
39650SOL    HW226001   2.281   5.476   0.867  0.6359 -1.8649  0.1874
39651SOL     OW26002  11.098   9.899   4.349 -0.0217 -0.0625  0.3151
39651SOL    HW126003  11.099   9.991   4.324  0.9868 -0.3038 -0.6178
39651SOL    HW226004  11.069   9.898   4.440 -5.0005  0.8343 -0.9272
39652SOL     OW26005   1.112   1.113   0.981 -0.2036 -0.0491 -0.7826
39652SOL    HW126006   1.161   1.117   1.064  0.8495 -1.8769 -1.2438
39652SOL    HW226007   1.069   1.198   0.974 -0.6422  0.0229  1.8226
39653SOL     OW26008   0.081   4.760   8.620  0.1453 -0.7733 -0.0908
39653SOL    HW126009   0.066   4.690   8.683  0.7593 -1.2922 -0.5111
39653SOL    HW226010   0.169   4.792   8.642  1.1235 -2.1424 -1.7780
39654SOL     OW26011  11.706   5.319   5.191 -0.3180  0.3066  0.2790
39654SOL    HW126012  11.643   5.368   5.244  2.2584  3.1617  0.9303
39654SOL    HW226013  11.706   5.363   5.106 -2.3266 -2.4930 -1.3468
39655SOL     OW26014   1.067   8.394   7.724  0.0668 -0.1377 -1.2659
39655SOL    HW126015   1.055   8.478   7.768  3.1633  0.3470 -1.0775
39655SOL    HW226016   1.119   8.415   7.646 -0.0581 -1.7443 -1.8218
39656SOL     OW26017  11.998   4.573   0.422  0.0451  0.2167 -0.3563
39656SOL    HW126018  11.906   4.547   0.425 -0.1124  0.6788 -0.9445
39656SOL    HW226019  12.045   4.499   0.459 -0.3704 -0.9487 -2.0631
39657SOL     OW26020   2.355   6.441   0.525 -0.0719 -0.2603 -0.3597
39657SOL    HW126021   2.264   6.453   0.554 -0.6500 -2.8884 -0.7376
39657SOL    HW226022   2.403   6.420   0.605  0.3428  1.5364 -0.0986
39658SOL     OW26023   2.253   4.638  10.661  0.1234 -0.0957 -0.1987
39658SOL    HW126024   2.245   4.698  10.586  0.3752 -0.0271 -0.1705
39658SOL    HW226025   2.171   4.649  10.709 -0.4893 -0.9196 -1.0367
39659SOL     OW26026  10.238   8.424   2.865 -0.1000  0.1636 -0.3055
39659SOL    HW126027  10.146   8.449   2.873 -0.8603 -1.0110 -3.7654
39659SOL    HW226028  10.285   8.508   2.863 -1.3474  0.8857 -0.6539
39660SOL     OW26029   7.812  10.270   9.338 -0.2965 -0.8457  0.6995
39660SOL    HW126030   7.853  10.287   9.423 -0.0052 -1.9197  0.7915
39660SOL    HW226031   7.886  10.254   9.279 -0.5215 -0.7286  0.3788
39661SOL     OW26032   8.661   3.494  10.001 -0.6301 -0.2091 -0.1557
39661SOL    HW126033   8.663   3.573   9.947  1.7613 -0.0829  0.0129
39661SOL    HW226034   8.591   3.441   9.962 -0.7836  1.0241 -1.6896
39662SOL     OW26035   2.150   8.419  10.034 -0.3799  0.0740  0.1686
39662SOL    HW126036   2.085   8.474   9.991 -1.6226 -1.6160 -0.2100
39662SOL    HW226037   2.099   8.354  10.083  0.9656 -1.8309 -0.8001
39663SOL     OW26038   9.622   2.908   6.818 -0.9808  0.0091 -0.4490
39663SOL    HW126039   9.610   2.813   6.826  0.5192 -0.0976  1.0473
39663SOL    HW226040   9.704   2.925   6.863 -1.2990  2.0622 -0.5793
39664SOL     OW26041   9.523  11.236   4.433 -0.2244 -0.0965  0.1892
39664SOL    HW126042   9.553  11.228   4.343  0.2316  0.4611  0.2811
39664SOL    HW226043   9.429  11.220   4.429 -0.0355 -1.1451 -0.2169
39665SOL     OW26044  12.338   8.368   2.443 -0.1252  0.2664  0.0173
39665SOL    HW126045  12.386   8.385   2.524  2.3205  0.5388 -1.3866
39665SOL    HW226046  12.251   8.404   2.459  0.6184  1.2996  2.1350
39666SOL     OW26047  10.610   2.734   2.151 -0.8386 -0.9036 -0.1928
39666SOL    HW126048  10.559   2.744   2.231 -0.7492 -0.9648 -0.1286
39666SOL    HW226049  10.573   2.799   2.091 -0.6751 -0.6200  0.0121
39667SOL     OW26050   1.899   7.106   2.954  0.7628 -0.4095  0.1265
39667SOL    HW126051   1.873   7.019   2.985  0.8421  0.0661  1.6306
39667SOL    HW226052   1.818   7.157   2.953  0.6346 -0.6035 -1.2044
39668SOL     OW26053   3.732   0.850   1.969 -0.2051  0.0993 -0.5804
39668SOL    HW126054   3.696   0.896   1.893  0.2668 -0.7929 -1.3651
39668SOL    HW226055   3.826   0.865   1.965 -0.0918 -0.5697 -0.6066
39669SOL     OW26056   0.697   8.827   6.028 -0.7025  0.6021 -0.8378
39669SOL    HW126057   0.683   8.902   6.086  1.4859  2.3744 -2.4152
39669SOL    HW226058   0.693   8.864   5.940  1.5847 -0.8519 -1.6539
39670SOL     OW26059  10.308   1.330   1.361 -0.6967  0.3525 -0.3468
39670SOL    HW126060  10.260   1.251   1.335 -1.6783  0.8575 -0.0871
39670SOL    HW226061  10.364   1.349   1.286 -0.1566 -0.7963 -0.2712
39671SOL     OW26062   1.588   8.564   8.680 -0.6741 -0.0999  0.2134
39671SOL    HW126063   1.560   8.568   8.588 -2.3667 -1.3470  0.6199
39671SOL    HW226064   1.671   8.518   8.678 -1.1351 -0.9359 -0.6370
39672SOL     OW26065  12.462   2.807   9.936 -0.2734 -0.1644 -0.0876
39672SOL    HW126066  12.503   2.731   9.979 -0.1899 -0.2108 -0.2468
39672SOL    HW226067  12.507   2.882   9.974  0.8727 -0.2635 -1.1914
39673SOL     OW26068   5.802  10.434   0.695  0.0971  0.0402 -0.2236
39673SOL    HW126069   5.851  10.352   0.694  0.0053 -0.0129 -0.3836
39673SOL    HW226070   5.710  10.407   0.688  0.0545  0.1475 -0.0859
39674SOL     OW26071   2.074   1.413   7.497  0.2976  0.3700  0.2307
39674SOL    HW126072   2.081   1.446   7.408  0.1782 -0.0099  0.0772
39674SOL    HW226073   2.046   1.322   7.487 -0.6459  0.5944  0.6793
39675SOL     OW26074  11.416   4.672   0.185  0.5900  0.3815 -0.0245
39675SOL    HW126075  11.466   4.659   0.265 -0.7627 -2.7229  0.4706
39675SOL    HW226076  11.329   4.697   0.215  0.6202  1.2424 -0.6371
39676SOL     OW26077   6.151   9.454   5.010  0.2977 -0.6748 -0.1881
39676SOL    HW126078   6.217   9.508   5.055  1.1665 -2.3814  0.6675
39676SOL    HW226079   6.089   9.518   4.974  2.4692  1.0532 -1.1799
39677SOL     OW26080  12.322   5.668   7.248 -0.6539 -0.3163 -0.0221
39677SOL    HW126081  12.282   5.588   7.281 -1.2524  0.4287  1.1396
39677SOL    HW226082  12.309   5.732   7.319  0.9326  0.4602 -0.3831
39678SOL     OW26083   1.435  12.396   3.995 -0.0269  0.1139 -0.1866
39678SOL    HW126084   1.524  12.384   3.962  1.0008  0.1304  2.3624
39678SOL    HW226085   1.411  12.310   4.031  0.0589  0.7866  1.5488
39679SOL     OW26086  11.033  11.344   5.666 -0.6611 -0.1326  0.7014
39679SOL    HW126087  11.064  11.259   5.696 -1.8471 -0.6674  0.4668
39679SOL    HW226088  10.944  11.328   5.636  0.0416  0.6070 -2.0538
39680SOL     OW26089   8.225   3.746   2.532  0.2069  0.4022 -0.4888
39680SOL    HW126090   8.297   3.683   2.526  0.1593  0.3418 -0.4118
39680SOL    HW226091   8.167   3.711   2.600  0.7537  1.1053  0.3544
39681SOL     OW26092   5.710   5.291  10.353  0.6453 -0.0249 -0.0408
39681SOL    HW126093   5.744   5.322  10.437  0.8387  1.5251 -0.6566
39681SOL    HW226094   5.783   5.304  10.292  0.5557 -1.2689 -0.4310
39682SOL     OW26095   8.812   0.766   9.228  0.0962 -0.2093 -0.0330
39682SOL    HW126096   8.869   0.752   9.304  0.9230  2.4025 -0.0748
39682SOL    HW226097   8.872   0.782   9.155 -0.5728  2.0562 -0.1914
39683SOL     OW26098  11.463   4.390   1.866  0.0460  0.2323 -0.2528
39683SOL    HW126099  11.413   4.395   1.784  1.9413  1.5726 -1.4399
39683SOL    HW226100  11.412   4.334   1.923 -2.8435  1.5942 -1.3097
39684SOL     OW26101  12.411   5.245  12.310  0.4373 -0.3915  0.0638
39684SOL    HW126102  12.486   5.207  12.355  1.0464  0.2201 -0.4099
39684SOL    HW226103  12.357   5.170  12.286  1.2838 -0.9181 -0.2633
39685SOL     OW26104  10.397  10.572   2.031 -0.0875  0.2620  0.0612
39685SOL    HW126105  10.434  10.626   2.101 -0.4187  1.7592 -0.8564
39685SOL    HW226106  10.346  10.505   2.077 -0.4727  1.3305  1.2715
39686SOL     OW26107   0.899   4.626   5.705 -0.1168  0.4678 -0.3825
39686SOL    HW126108   0.990   4.652   5.723 -0.2199  0.9297 -0.5072
39686SOL    HW226109   0.850   4.709   5.706 -0.6182  0.1723  0.1772
39687SOL     OW26110   4.731   7.622   5.345 -0.0275 -0.3481 -0.1645
39687SOL    HW126111   4.710   7.602   5.254 -0.8686 -1.8558  0.3299
39687SOL    HW226112   4.792   7.553   5.372  1.3806  0.9156  0.0173
39688SOL     OW26113   9.186   2.509   8.355  0.2981  0.2056  0.0789
39688SOL    HW126114   9.171   2.579   8.420 -1.9644 -0.4423  0.3655
39688SOL    HW226115   9.209   2.433   8.408  0.2904  0.1371 -0.0173
39689SOL     OW26116   6.038   2.981  10.554 -0.1364  0.4878 -0.0601
39689SOL    HW126117   6.063   3.069  10.580 -0.8016  1.4640 -2.4298
39689SOL    HW226118   6.078   2.968  10.468 -1.0390 -1.0454 -0.3045
39690SOL     OW26119   9.103   9.183   0.558 -0.2625 -0.8940 -0.0933
39690SOL    HW126120   9.020   9.195   0.604  1.7819 -1.6287  4.2501
39690SOL    HW226121   9.082   9.120   0.489 -3.9983  1.9201 -1.9000
39691SOL     OW26122  12.049   6.244   2.318 -0.3833  0.2479 -0.4637
39691SOL    HW126123  12.080   6.242   2.227 -2.0939 -1.0667 -1.0817
39691SOL    HW226124  11.955   6.263   2.310 -0.3937  0.9350  1.0973
39692SOL     OW26125   1.612   7.610   1.000  0.1307  0.4116  0.7335
39692SOL    HW126126   1.676   7.546   1.031  0.1068  0.1476  0.2422
39692SOL    HW226127   1.533   7.559   0.982  0.9613  0.0514 -2.4199
39693SOL     OW26128   5.771   0.521  10.356 -0.2108 -0.2997  0.2908
39693SOL    HW126129   5.833   0.468  10.406 -0.1634  0.0498  0.6064
39693SOL    HW226130   5.759   0.601  10.408 -0.0450  0.1367 -0.3227
39694SOL     OW26131   7.451   4.770   4.643  0.0036  0.2495  0.3951
39694SOL    HW126132   7.489   4.683   4.630  0.4073  0.4395  0.2963
39694SOL    HW226133   7.361   4.762   4.612  0.5281  0.3262 -1.2116
39695SOL     OW26134   0.504   7.140   2.609 -0.3024  0.1376  0.5715
39695SOL    HW126135   0.416   7.156   2.644 -0.1597 -0.7739  1.3984
39695SOL    HW226136   0.491   7.076   2.540 -0.4142  0.8632 -0.0898
39696SOL     OW26137  10.238   2.549  12.137 -0.4608 -0.0181  0.8302
39696SOL    HW126138  10.220   2.635  12.100 -2.4532 -0.4256  0.7742
39696SOL    HW226139  10.222   2.487  12.066 -0.4497 -0.5309  1.2625
39697SOL     OW26140   6.332   0.495   4.031 -0.1051  0.5171  0.1697
39697SOL    HW126141   6.292   0.578   4.004 -0.7129  0.0781 -0.2946
39697SOL    HW226142   6.333   0.442   3.952  1.9216  0.7035  0.0309
39698SOL     OW26143   8.600   4.453   9.341 -0.1943  0.1972 -0.1293
39698SOL    HW126144   8.525   4.500   9.305 -1.4258 -1.4818  0.1029
39698SOL    HW226145   8.664   4.452   9.270 -1.5242 -0.7467 -1.3831
39699SOL     OW26146   5.379  10.003   2.353 -0.0942  0.0863 -0.1531
39699SOL    HW126147   5.406   9.943   2.424  2.8345  1.5992  0.1789
39699SOL    HW226148   5.384  10.090   2.392 -0.6238  0.8002 -1.6222
39700SOL     OW26149   1.032   9.586   1.694 -0.6935  0.1657  0.6301
39700SOL    HW126150   1.004   9.524   1.627 -0.9982 -0.5932  1.4399
39700SOL    HW226151   0.958   9.589   1.755 -0.1851  0.3895  1.2378
39701SOL     OW26152  12.256   8.035   3.500 -0.0818 -0.2752  0.0667
39701SOL    HW126153  12.205   8.087   3.438  0.9695  1.7466  0.8013
39701SOL    HW226154  12.321   7.990   3.445  0.3774  0.9257 -0.4139
39702SOL     OW26155   1.143   8.764   1.036  0.0135 -0.4033 -0.3850
39702SOL    HW126156   1.053   8.732   1.033 -0.2293  0.1852  0.3181
39702SOL    HW226157   1.193   8.691   1.074 -0.4105 -0.2391  0.5149
39703SOL     OW26158   0.859  11.943   2.568  0.4479  0.3501 -0.1691
39703SOL    HW126159   0.852  11.913   2.477  0.0980  0.2741 -0.1174
39703SOL    HW226160   0.796  12.015   2.575  0.9307  0.7755 -0.1573
39704SOL     OW26161  11.161   8.095  10.612  0.0239  0.4641  1.0119
39704SOL    HW126162  11.182   8.116  10.521  0.2892  0.7772  1.1425
39704SOL    HW226163  11.146   8.180  10.653  2.0386  0.4968  1.7808
39705SOL     OW26164   5.219   0.220   5.680  0.4725 -0.6845  0.0416
39705SOL    HW126165   5.302   0.174   5.671  1.2447  0.5218  0.7437
39705SOL    HW226166   5.174   0.174   5.751  1.6729  0.2273  1.4416
39706SOL     OW26167  10.043   7.775   9.354 -0.1835  0.3399  0.3937
39706SOL    HW126168  10.119   7.762   9.298 -0.2893  3.0366 -0.5344
39706SOL    HW226169   9.993   7.694   9.346  0.9244 -0.2161 -1.6475
39707SOL     OW26170   2.346   0.727   4.360  0.2689  0.1377  0.1270
39707SOL    HW126171   2.338   0.658   4.426 -0.1798  0.7891  0.7715
39707SOL    HW226172   2.349   0.808   4.411  0.4181  0.6186 -0.6377
39708SOL     OW26173   6.019   3.529  12.136  0.4873  0.1247 -0.0108
39708SOL    HW126174   6.054   3.442  12.154  1.0443  0.8316  2.9150
39708SOL    HW226175   6.089   3.575  12.091  2.7380  0.7998  3.7372
39709SOL     OW26176   5.097   7.627   5.180  0.1522  0.1337 -0.5588
39709SOL    HW126177   5.021   7.585   5.139 -0.0845 -0.4814  0.4581
39709SOL    HW226178   5.127   7.691   5.116 -2.0000  1.2850 -0.4896
39710SOL     OW26179   6.822   7.547   9.630 -0.0689  0.2593 -0.7832
39710SOL    HW126180   6.743   7.493   9.634  0.2837 -0.2081  0.9950
39710SOL    HW226181   6.808   7.614   9.697  0.3399  1.2086 -1.6245
39711SOL     OW26182  10.991  10.040   9.831 -0.7018  0.1991  0.2902
39711SOL    HW126183  11.000   9.994   9.748  3.1294 -0.5114  0.9217
39711SOL    HW226184  10.968  10.130   9.807 -0.4457 -0.1872 -1.4857
39712SOL     OW26185   4.591   1.984  10.785 -0.3861  0.5799 -0.1622
39712SOL    HW126186   4.618   2.075  10.775  1.9649 -0.1062 -0.5728
39712SOL    HW226187   4.627   1.958  10.870 -0.9127 -0.0174 -0.1192
39713SOL     OW26188   9.240   4.956   3.163  0.1602 -0.3053 -0.2775
39713SOL    HW126189   9.327   4.961   3.201  0.0892 -1.3121  0.0524
39713SOL    HW226190   9.241   5.020   3.091 -0.1415  2.7085  2.1985
39714SOL     OW26191   3.266  10.895  10.974 -0.0461  0.5957 -0.1953
39714SOL    HW126192   3.246  10.830  10.907 -1.3552  0.1630  0.5790
39714SOL    HW226193   3.345  10.862  11.017 -0.6185 -0.4351  0.1020
39715SOL     OW26194   9.446   6.446  11.436 -0.1631 -0.4296  0.1176
39715SOL    HW126195   9.363   6.489  11.418  1.7600  2.7847 -1.9038
39715SOL    HW226196   9.467   6.398  11.356  0.0478 -1.1102  0.5644
39716SOL     OW26197  12.170   7.295   8.999  0.1626  0.2813  0.2619
39716SOL    HW126198  12.208   7.376   8.965 -1.9893  1.7245  1.0510
39716SOL    HW226199  12.126   7.255   8.923 -0.4016  0.8783  0.2692
39717SOL     OW26200   0.349   2.679   6.282  0.0482  0.0636 -0.1522
39717SOL    HW126201   0.291   2.618   6.237 -1.1049  0.5037  0.6989
39717SOL    HW226202   0.291   2.731   6.338  1.2369  0.6703  0.5554
39718SOL     OW26203   2.134  11.397   2.471 -0.1447  0.0335  0.2675
39718SOL    HW126204   2.043  11.386   2.445 -0.4398  1.2946  0.7336
39718SOL    HW226205   2.134  11.383   2.566 -0.1072  1.4062  0.4879
39719SOL     OW26206   5.532   1.650  11.183 -0.2119  0.8545 -0.5809
39719SOL    HW126207   5.438   1.632  11.183  0.0300 -0.5497 -0.3903
39719SOL    HW226208   5.572   1.568  11.154  1.1195  0.3475  2.3396
39720SOL     OW26209  10.306   6.655   1.012  0.2309  0.8614  0.5080
39720SOL    HW126210  10.244   6.585   1.034 -0.4967  1.1979 -0.4210
39720SOL    HW226211  10.277   6.730   1.064  0.5507  0.7038  0.9231
39721SOL     OW26212   6.061   5.918   7.651 -0.5417 -0.3006  0.0431
39721SOL    HW126213   5.976   5.894   7.688 -0.4292 -1.7246 -0.5452
39721SOL    HW226214   6.062   5.875   7.565  1.0580 -0.9230  0.3338
39722SOL     OW26215  10.582  12.225  11.945  0.2138  0.5508 -0.5457
39722SOL    HW126216  10.557  12.312  11.977  1.7777  1.2657 -1.1709
39722SOL    HW226217  10.527  12.165  11.995 -0.0459  1.8288  0.7810
39723SOL     OW26218  11.448   3.145   9.621  0.0195 -0.3716  0.1971
39723SOL    HW126219  11.503   3.135   9.543  0.9767 -1.4534  0.9685
39723SOL    HW226220  11.508   3.129   9.694 -1.1385 -0.6955  1.1047
39724SOL     OW26221   8.407   9.097   2.408 -0.8041 -0.1323 -0.5510
39724SOL    HW126222   8.421   9.101   2.314  1.6761  1.0187 -0.2156
39724SOL    HW226223   8.373   9.009   2.424 -2.7626  0.1691 -2.6332
39725SOL     OW26224  10.526  10.653   4.427 -0.4788 -0.2022 -0.0271
39725SOL    HW126225  10.518  10.627   4.336 -0.2239  0.0160 -0.1137
39725SOL    HW226226  10.493  10.578   4.477 -2.8522  0.5497 -0.3448
39726SOL     OW26227   9.382   7.024   5.790 -0.0178  0.1105 -0.6583
39726SOL    HW126228   9.414   7.085   5.723  1.2607 -0.2972 -0.4595
39726SOL    HW226229   9.331   6.960   5.741  0.3124  0.2186 -1.1567
39727SOL     OW26230   5.964  12.304   0.597  0.1834 -0.5738  0.2729
39727SOL    HW126231   5.869  12.301   0.589  0.0836  2.0067 -0.1426
39727SOL    HW226232   5.995  12.331   0.511  1.4634 -2.7482 -0.0320
39728SOL     OW26233   0.458   8.357   1.358 -0.3636 -0.1160 -0.9680
39728SOL    HW126234   0.469   8.400   1.273  1.8391  0.6315 -0.3709
39728SOL    HW226235   0.434   8.428   1.417 -1.8971 -0.6361 -0.9324
39729SOL     OW26236   8.082  11.575   0.872 -0.3604  0.3535  0.5100
39729SOL    HW126237   8.002  11.607   0.915 -0.4174  1.1426 -0.1586
39729SOL    HW226238   8.066  11.482   0.857 -2.2460  0.9841 -1.9178
39730SOL     OW26239  10.657   4.425   6.067 -0.1380  0.2498  0.2928
39730SOL    HW126240  10.687   4.513   6.090  0.5151  0.0687  0.1779
39730SOL    HW226241  10.737   4.380   6.038 -0.1730 -0.8177  1.7183
39731SOL     OW26242   0.479   0.655   5.264  0.1329 -0.3358 -0.0944
39731SOL    HW126243   0.552   0.616   5.216  0.5174 -1.5127  1.3756
39731SOL    HW226244   0.514   0.738   5.297  0.0370  0.2183 -1.3444
39732SOL     OW26245   5.985  12.515  10.488  0.3915 -0.0792 -0.5360
39732SOL    HW126246   6.026  12.602  10.491  0.0465  0.0625  0.6417
39732SOL    HW226247   5.892  12.533  10.477  0.5141 -0.3866 -2.5385
39733SOL     OW26248  10.976  10.326   6.160  0.1776  0.1234  0.2516
39733SOL    HW126249  10.965  10.277   6.242 -3.4686 -1.6719 -1.1109
39733SOL    HW226250  10.890  10.364   6.143  0.7164  0.1543 -2.9091
39734SOL     OW26251   2.976   1.432   9.167  0.7685 -0.0771  0.0955
39734SOL    HW126252   2.986   1.512   9.219 -0.9890 -0.3811  0.9575
39734SOL    HW226253   2.916   1.377   9.218 -0.2169 -0.8186 -1.7593
39735SOL     OW26254   4.847   8.045   6.454  0.0284 -0.0106  0.2764
39735SOL    HW126255   4.798   8.038   6.372 -0.2555  2.3403  0.1887
39735SOL    HW226256   4.832   7.961   6.498  0.1626 -1.3180 -2.0210
39736SOL     OW26257   1.378   4.257   3.999 -0.1967 -0.1093 -0.4484
39736SOL    HW126258   1.320   4.202   4.052  0.3805 -2.6001 -2.1702
39736SOL    HW226259   1.456   4.202   3.986  0.9772  1.6714 -1.2230
39737SOL     OW26260   3.124   1.444   0.171  0.0034  0.0834  0.1841
39737SOL    HW126261   3.179   1.518   0.146 -0.7152  0.5950  0.0666
39737SOL    HW226262   3.185   1.374   0.192  0.6690  0.1512 -1.3893
39738SOL     OW26263   7.956  12.480   1.062 -0.4250 -0.3015 -0.3627
39738SOL    HW126264   7.892  12.445   0.999 -0.3288 -0.3404 -0.4381
39738SOL    HW226265   7.925  12.569   1.079 -0.4049 -0.2625 -0.5282
39739SOL     OW26266   1.208   6.875   0.013  0.4542 -0.3298 -0.1708
39739SOL    HW126267   1.241   6.940   0.075 -0.4231 -1.3355  1.3918
39739SOL    HW226268   1.114   6.893   0.007  0.5752 -0.0151 -1.5236
39740SOL     OW26269  11.598   8.457   5.765 -0.0414  0.3133 -0.0603
39740SOL    HW126270  11.662   8.487   5.829  0.7501 -0.8707 -0.2564
39740SOL    HW226271  11.640   8.474   5.680  0.3029 -0.9856 -0.1788
39741SOL     OW26272   0.665   9.454   5.420 -0.3365  0.0345 -0.2293
39741SOL    HW126273   0.652   9.377   5.475  1.3339  0.1015  0.3010
39741SOL    HW226274   0.577   9.489   5.408 -0.8838 -0.6617  1.4225
39742SOL     OW26275   8.201   1.766   1.211  0.0522 -0.5052  0.3390
39742SOL    HW126276   8.166   1.770   1.122 -1.7694  4.3242  0.9448
39742SOL    HW226277   8.123   1.758   1.267  0.6774  0.9253  1.4969
39743SOL     OW26278   8.163   4.541  10.774  0.1304 -0.5918 -0.7343
39743SOL    HW126279   8.072   4.553  10.802  0.6228  0.4574  0.5397
39743SOL    HW226280   8.177   4.447  10.779 -0.4621 -0.6324  0.5072
39744SOL     OW26281  11.324   9.968   1.764 -0.4132 -0.2196  0.7853
39744SOL    HW126282  11.334   9.938   1.673 -0.8864  0.8614  0.3542
39744SOL    HW226283  11.327  10.063   1.758 -2.8242 -0.0337  1.5741
39745SOL     OW26284   1.308  11.814   2.116 -0.5159  0.3040 -0.6987
39745SOL    HW126285   1.217  11.843   2.105 -0.1990  2.3462  1.2394
39745SOL    HW226286   1.353  11.851   2.040 -0.9706  1.0176 -0.6365
39746SOL     OW26287   0.447   5.564  10.167  0.2844 -0.8380  0.3698
39746SOL    HW126288   0.368   5.511  10.153 -1.4124  1.6090  0.0810
39746SOL    HW226289   0.507   5.505  10.212 -1.5994 -2.8959  0.3792
39747SOL     OW26290   6.590  11.154   7.298  0.5788 -0.1533 -0.1364
39747SOL    HW126291   6.591  11.063   7.267  1.8409 -0.2952  0.2563
39747SOL    HW226292   6.645  11.201   7.234 -0.9512  0.5788 -0.9729
39748SOL     OW26293  12.394   1.526   5.400 -0.5409 -0.5310  0.1618
39748SOL    HW126294  12.364   1.615   5.417 -1.9762 -0.6418 -1.4250
39748SOL    HW226295  12.461   1.509   5.466 -1.0960  1.2808  1.2486
39749SOL     OW26296   6.534  10.302  11.102  0.3240  0.0487 -0.4952
39749SOL    HW126297   6.502  10.216  11.077 -0.2342 -0.0050  0.3356
39749SOL    HW226298   6.498  10.361  11.036  0.0770 -0.2607 -0.6387
39750SOL     OW26299  10.722   2.313   6.845  0.3205 -0.2866 -0.0300
39750SOL    HW126300  10.683   2.248   6.787  0.7116 -0.7342  0.1990
39750SOL    HW226301  10.688   2.397   6.814 -0.8283 -0.6579  0.1766
39751SOL     OW26302   7.112  11.761   9.729 -0.1043 -0.2737  0.3808
39751SOL    HW126303   7.149  11.774   9.642  0.8019 -0.6930  0.6907
39751SOL    HW226304   7.021  11.735   9.714  0.1917 -0.8381 -0.4532
39752SOL     OW26305   1.108   0.750   1.604 -0.0269 -0.0193 -0.0131
39752SOL    HW126306   1.182   0.702   1.642  0.2868  1.0157  0.7489
39752SOL    HW226307   1.031   0.715   1.650  0.0305 -0.7498 -0.4530
39753SOL     OW26308  11.180  11.272   7.927  0.3285 -0.0584 -0.1769
39753SOL    HW126309  11.264  11.243   7.964  0.8214  0.0297 -1.1815
39753SOL    HW226310  11.201  11.353   7.880 -0.3202 -0.0378 -0.4451
39754SOL     OW26311   9.620   8.636   2.802  0.1413 -0.1185  0.3292
39754SOL    HW126312   9.587   8.704   2.860  0.5711  1.0977 -0.8005
39754SOL    HW226313   9.706   8.668   2.773 -0.9302  0.4236 -2.6565
39755SOL     OW26314  10.953  10.936   3.923 -0.4771 -0.1762  0.3012
39755SOL    HW126315  10.999  10.998   3.867  2.6616 -3.2079 -0.8449
39755SOL    HW226316  10.974  10.963   4.012 -0.4428  1.2259 -0.1190
39756SOL     OW26317   6.192  11.702   5.690  0.3334 -0.0002 -0.1765
39756SOL    HW126318   6.196  11.632   5.625 -1.6901 -0.8527  0.5286
39756SOL    HW226319   6.202  11.783   5.639 -0.1345 -0.6938 -1.3945
39757SOL     OW26320   3.145  12.428   2.547 -0.9213  0.2384 -0.0010
39757SOL    HW126321   3.155  12.518   2.576  0.1820  0.8358 -2.0501
39757SOL    HW226322   3.223  12.411   2.494 -1.3495 -1.7515 -0.0708
39758SOL     OW26323   9.072   7.562   5.227  0.2077  0.3483 -0.1101
39758SOL    HW126324   9.166   7.541   5.226  0.1863  0.2475 -1.4386
39758SOL    HW226325   9.065   7.642   5.175 -0.5425 -0.1246 -0.7496
39759SOL     OW26326   6.951  11.720   4.303  0.6144 -0.2709 -0.3193
39759SOL    HW126327   6.855  11.712   4.305  0.6268 -1.1328 -2.0317
39759SOL    HW226328   6.983  11.632   4.322  1.0228 -0.3949 -1.4979
39760SOL     OW26329  12.211   9.786  10.907 -0.0956  0.3757 -0.3810
39760SOL    HW126330  12.155   9.736  10.848  1.6972 -0.1898 -1.6867
39760SOL    HW226331  12.255   9.849  10.850  1.2261  0.2254  0.4248
39761SOL     OW26332   2.129   7.932   0.498  0.2459 -0.2660  0.8495
39761SOL    HW126333   2.188   7.962   0.429  0.7028  1.2520  1.8364
39761SOL    HW226334   2.078   7.862   0.458  0.2649  0.7877 -1.1128
39762SOL     OW26335   5.404   0.026   4.273 -0.0394 -0.6829  0.0644
39762SOL    HW126336   5.371   0.004   4.361  0.1426  0.5840  0.4727
39762SOL    HW226337   5.412   0.121   4.274  1.4730 -0.7758 -0.7983
39763SOL     OW26338  11.696  11.040   0.235  0.2674  0.0566  0.4369
39763SOL    HW126339  11.769  11.093   0.205  0.1190 -1.9928 -4.4110
39763SOL    HW226340  11.618  11.088   0.208  0.0393 -0.5413 -0.0087
39764SOL     OW26341   8.816  10.374   6.646 -0.1153  0.1425  0.9576
39764SOL    HW126342   8.792  10.286   6.675 -0.0738  0.2880  1.4427
39764SOL    HW226343   8.734  10.411   6.613  0.0908 -0.4683 -0.2958
39765SOL     OW26344   6.195   7.538   7.306  0.1996  0.7988 -0.3624
39765SOL    HW126345   6.276   7.491   7.291 -0.4220 -1.1980  1.9709
39765SOL    HW226346   6.205   7.576   7.393 -1.5388  0.0321  0.2150
39766SOL     OW26347   6.232   1.582   6.945 -0.2000 -0.4726  0.3132
39766SOL    HW126348   6.309   1.639   6.940  0.0034 -0.8167 -0.5081
39766SOL    HW226349   6.257   1.513   7.007  0.0247 -0.3993  0.3042
39767SOL     OW26350   5.084  12.062  12.528  0.1965  0.0180  0.1402
39767SOL    HW126351   5.134  12.068  12.447  1.2731  0.1903  0.8073
39767SOL    HW226352   5.123  12.128  12.585  0.4179 -1.1011  1.3127
39768SOL     OW26353   9.119   0.870  11.904 -0.9451  0.2844  0.3243
39768SOL    HW126354   9.149   0.827  11.824  0.4325 -1.2728  1.6217
39768SOL    HW226355   9.164   0.955  11.903 -1.6977  0.7094 -0.9808
39769SOL     OW26356   0.211   9.480   3.221 -0.1255  0.4359  0.3086
39769SOL    HW126357   0.271   9.538   3.174  0.4854 -0.0665  0.4585
39769SOL    HW226358   0.133   9.533   3.235  0.3338  1.1476  0.2294
39770SOL     OW26359   9.508   7.944   3.433  0.6822  0.3595  0.7119
39770SOL    HW126360   9.453   7.867   3.417 -0.1648  0.8857  1.0088
39770SOL    HW226361   9.565   7.949   3.356 -0.5907  0.5562 -0.2522
39771SOL     OW26362   0.224   6.045  11.099 -0.3337 -0.4929  0.3834
39771SOL    HW126363   0.316   6.067  11.116  0.3793 -2.6446 -0.3694
39771SOL    HW226364   0.198   6.105  11.030  1.2491 -1.3062 -1.0015
39772SOL     OW26365   5.703   9.821   2.640 -0.5408 -0.4322 -0.4512
39772SOL    HW126366   5.760   9.792   2.711  0.2358 -0.9168 -1.2493
39772SOL    HW226367   5.760   9.874   2.584 -1.7896  2.3304  0.7021
39773SOL     OW26368   9.011  10.937   8.054  0.0877 -0.6107 -0.0962
39773SOL    HW126369   8.937  10.972   8.104 -0.1080  1.7189 -1.8154
39773SOL    HW226370   8.971  10.901   7.975  0.7450  0.9049 -1.1674
39774SOL     OW26371   1.707   1.476   4.038 -0.2815 -0.2926  0.3720
39774SOL    HW126372   1.771   1.496   3.969 -0.6736  1.8305  0.5553
39774SOL    HW226373   1.759   1.453   4.114  0.2061 -0.2842  0.0449
39775SOL     OW26374   9.321   2.736   5.392 -0.2754  0.2338  0.4196
39775SOL    HW126375   9.364   2.679   5.327 -1.1294  0.2508 -0.1938
39775SOL    HW226376   9.325   2.686   5.474  3.5019  1.4736  1.1583
39776SOL     OW26377   6.045  11.346   5.144 -0.1832  0.4174 -0.6298
39776SOL    HW126378   5.985  11.277   5.116  2.6082 -2.5584  0.1706
39776SOL    HW226379   5.989  11.410   5.188 -2.9570 -1.1362 -1.6582
39777SOL     OW26380  11.406   5.879   0.231 -0.1047 -0.1234 -0.4483
39777SOL    HW126381  11.414   5.895   0.325 -0.4113 -2.4046  0.0460
39777SOL    HW226382  11.493   5.848   0.205  0.1440  1.0539 -1.0638
39778SOL     OW26383  10.851   7.602   5.891 -0.7209  0.2192 -0.2524
39778SOL    HW126384  10.789   7.551   5.943 -0.5204 -0.2795 -0.4942
39778SOL    HW226385  10.938   7.572   5.921 -0.5995  0.6140 -0.2050
39779SOL     OW26386   5.091  11.240   1.633 -0.1873 -0.1742  0.2144
39779SOL    HW126387   5.140  11.319   1.610  2.4166 -0.7167  3.2324
39779SOL    HW226388   5.091  11.188   1.552  0.1278  1.8505 -1.1592
39780SOL     OW26389   2.713  11.471  11.485  0.3879 -0.0209 -0.0419
39780SOL    HW126390   2.672  11.552  11.516  0.9419  0.4668 -0.5539
39780SOL    HW226391   2.666  11.402  11.530  0.0861  0.5985  0.6231
39781SOL     OW26392  12.322  12.511  12.183 -0.4506 -0.4864  0.2518
39781SOL    HW126393  12.378  12.548  12.115 -2.4367 -0.5546 -1.5311
39781SOL    HW226394  12.377  12.447  12.228  1.3303  0.5388 -0.3722
39782SOL     OW26395   2.504  10.527   8.247 -0.0543 -0.0124 -0.3611
39782SOL    HW126396   2.556  10.598   8.210 -1.2537  0.5768 -0.9690
39782SOL    HW226397   2.562  10.451   8.244  1.7899  1.2141  1.6997
39783SOL     OW26398  10.470   3.826  12.067 -0.7559 -0.0591 -0.2135
39783SOL    HW126399  10.559   3.793  12.076 -0.9273 -0.8566 -1.2190
39783SOL    HW226400  10.417   3.770  12.123 -0.5871  0.7003  0.7413
39784SOL     OW26401  11.132  12.432   6.585 -0.0425 -0.0048 -0.4293
39784SOL    HW126402  11.160  12.427   6.494  0.7823 -1.5594 -0.1252
39784SOL    HW226403  11.086  12.350   6.601  1.3593 -0.5691  1.0305
39785SOL     OW26404   6.008   6.462   7.608  0.4260 -0.2476 -0.3135
39785SOL    HW126405   5.916   6.489   7.606  0.5008  0.2146  1.2963
39785SOL    HW226406   6.012   6.399   7.681  1.1165 -1.3745 -1.2867
39786SOL     OW26407   4.193   9.928   8.363  0.0029  0.6166  0.9144
39786SOL    HW126408   4.114   9.882   8.393 -0.1343 -2.0951 -2.8557
39786SOL    HW226409   4.162   9.983   8.292  1.1533  1.7935  1.3030
39787SOL     OW26410   5.844   5.525   7.432 -0.0424  0.3029 -0.4519
39787SOL    HW126411   5.926   5.562   7.400 -0.6775  0.5314 -1.8707
39787SOL    HW226412   5.866   5.488   7.518  1.4898  0.5271 -0.7299
39788SOL     OW26413   6.298  10.179   9.528  0.4365 -0.4343  0.3455
39788SOL    HW126414   6.312  10.274   9.522 -0.3568 -0.2560  1.2759
39788SOL    HW226415   6.360  10.150   9.594  0.2304 -0.4668  0.5251
39789SOL     OW26416   3.884   2.403   7.873  0.4015 -0.3391  0.2393
39789SOL    HW126417   3.845   2.379   7.957 -0.5711  3.7614  1.1708
39789SOL    HW226418   3.978   2.404   7.889  0.3171 -1.0130  0.8205
39790SOL     OW26419  12.219  12.078   5.079 -0.1667  0.1218 -0.3421
39790SOL    HW126420  12.228  11.985   5.058 -0.1027  0.1445 -0.4198
39790SOL    HW226421  12.309  12.110   5.083 -0.2045  0.3586 -1.1489
39791SOL     OW26422  10.503   9.448   9.229 -0.3517  0.3437  0.2665
39791SOL    HW126423  10.587   9.403   9.237  1.3550  2.9050 -1.4981
39791SOL    HW226424  10.458   9.402   9.159  1.4011  1.2626 -1.5929
39792SOL     OW26425   0.131   4.093   9.874  0.2544  0.3828 -0.0305
39792SOL    HW126426   0.126   4.030   9.803 -0.6788 -0.5105  0.7973
39792SOL    HW226427   0.222   4.088   9.904  0.7541  1.0282 -1.3448
39793SOL     OW26428  11.025   7.041   8.915  0.4198  0.7908  0.2372
39793SOL    HW126429  10.969   6.964   8.922  1.4229  0.0563  0.2902
39793SOL    HW226430  10.985   7.093   8.845 -0.0588  0.0512 -0.0544
39794SOL     OW26431   6.071  10.551   4.173 -0.2633  0.4328 -0.1995
39794SOL    HW126432   5.995  10.583   4.123 -0.5747 -0.8252 -0.5773
39794SOL    HW226433   6.035  10.484   4.231  0.2050  1.4287  1.2946
39795SOL     OW26434   8.832   7.531   9.906 -0.4592  0.1696 -0.0151
39795SOL    HW126435   8.879   7.493   9.980 -0.7303  1.0734  0.6533
39795SOL    HW226436   8.739   7.514   9.926 -0.6893  2.1348  0.9373
39796SOL     OW26437   7.042   7.512   5.663  0.4724 -0.3422 -0.0009
39796SOL    HW126438   6.951   7.485   5.670  0.4825 -0.5489 -0.5992
39796SOL    HW226439   7.041   7.583   5.599  0.4155  1.2397  1.6865
39797SOL     OW26440   7.942   8.099   2.497 -0.2818 -0.4733  0.5205
39797SOL    HW126441   8.027   8.132   2.526  0.1816 -1.8815  0.8724
39797SOL    HW226442   7.881   8.169   2.519  0.2828 -0.7502  3.4675
39798SOL     OW26443   1.137   6.080  11.798  0.9656  0.3623 -0.6068
39798SOL    HW126444   1.065   6.054  11.740  0.7084  2.8442 -1.4989
39798SOL    HW226445   1.093   6.104  11.880  1.0131 -0.0722 -0.4486
39799SOL     OW26446   9.396   9.778  10.166  0.3912  0.0848 -0.0863
39799SOL    HW126447   9.365   9.744  10.082  2.2471 -0.0116 -0.7812
39799SOL    HW226448   9.421   9.869  10.146  0.6381  0.1273  0.4119
39800SOL     OW26449   6.432   4.836   2.944 -0.3467 -0.4247  0.4471
39800SOL    HW126450   6.404   4.826   2.853 -0.8655 -2.3176  0.7668
39800SOL    HW226451   6.401   4.923   2.969 -1.0607 -0.2581 -0.8966
39801SOL     OW26452   8.367   3.028  11.017 -0.3115 -0.5924  0.7325
39801SOL    HW126453   8.357   3.111  11.063  0.1857  0.7657 -1.4749
39801SOL    HW226454   8.288   2.979  11.039 -0.0886 -0.0387  2.9717
39802SOL     OW26455   9.681  10.122   4.720  0.3983  0.3821 -0.0409
39802SOL    HW126456   9.702  10.207   4.759  0.8486 -0.0002  0.5729
39802SOL    HW226457   9.586  10.123   4.710  0.3998  0.9754 -0.0864
39803SOL     OW26458  10.772   7.687  10.224 -0.0129  0.4989 -0.0507
39803SOL    HW126459  10.706   7.619  10.238 -0.6476  1.3591  1.3731
39803SOL    HW226460  10.795   7.680  10.131 -1.2497 -0.5751 -0.3003
39804SOL     OW26461   7.537   9.491   2.126 -0.6570 -0.1906 -0.6471
39804SOL    HW126462   7.541   9.564   2.064 -1.0375  1.8952  1.6407
39804SOL    HW226463   7.444   9.467   2.127 -0.5978 -0.4502 -1.1054
39805SOL     OW26464   1.534   1.529   1.153  0.1931 -0.1745 -0.2489
39805SOL    HW126465   1.567   1.487   1.232  0.7400 -0.9413 -0.8614
39805SOL    HW226466   1.461   1.474   1.125 -0.8405  0.8196  0.4146
39806SOL     OW26467   5.627   7.180   5.954  0.5973  0.2099  0.0859
39806SOL    HW126468   5.716   7.178   5.920  0.6721 -0.7152  0.2948
39806SOL    HW226469   5.572   7.184   5.876  0.7673 -1.9050 -0.2145
39807SOL     OW26470   7.916   9.080   6.540 -0.3119  0.4625 -0.4479
39807SOL    HW126471   7.962   9.104   6.621 -0.8146 -0.0710  0.0068
39807SOL    HW226472   7.964   9.003   6.508  0.6194  1.3717 -1.3116
39808SOL     OW26473  11.776   5.930   6.099 -0.6657  0.0929  0.4133
39808SOL    HW126474  11.756   5.882   6.179 -0.2756 -0.5324  0.1504
39808SOL    HW226475  11.841   5.995   6.124  0.1681 -0.7306  0.4262
39809SOL     OW26476   5.122  11.230   8.992  0.0741 -0.2221  0.2522
39809SOL    HW126477   5.084  11.170   9.056 -1.2601  0.0006 -0.2989
39809SOL    HW226478   5.216  11.216   8.999 -0.1219 -1.1723  1.3025
39810SOL     OW26479   2.762   6.024   1.020  0.5454  0.6960 -0.0315
39810SOL    HW126480   2.808   6.091   0.970 -0.1333  0.8402 -0.4722
39810SOL    HW226481   2.683   6.068   1.051  0.1676  0.1363 -0.2030
39811SOL     OW26482   8.393   8.335   9.971 -0.1926 -0.8513 -0.1108
39811SOL    HW126483   8.442   8.398   9.920  0.0846 -0.5690  0.4922
39811SOL    HW226484   8.458   8.271  10.000 -0.0523 -0.1420  1.2008
39812SOL     OW26485   5.778  11.619   9.703  0.0267 -0.3392  0.3256
39812SOL    HW126486   5.691  11.639   9.667  0.6320  1.8328 -0.1135
39812SOL    HW226487   5.806  11.702   9.742  1.1668 -1.4984  2.0904
39813SOL     OW26488   4.863   2.678   8.360 -0.2764 -0.1914 -0.1438
39813SOL    HW126489   4.803   2.605   8.376 -0.4215 -0.0668 -0.1206
39813SOL    HW226490   4.882   2.712   8.447  0.5039 -0.7693 -0.0779
39814SOL     OW26491   8.926   4.385   2.007 -0.3908 -0.0744  0.3678
39814SOL    HW126492   8.855   4.394   1.943  0.8364  1.7970 -0.8375
39814SOL    HW226493   8.953   4.294   2.000 -1.7316 -0.4477 -0.1983
39815SOL     OW26494   4.497   8.470   4.012 -0.0286 -0.3362 -0.4862
39815SOL    HW126495   4.406   8.497   3.999  0.2218  0.1355 -1.2925
39815SOL    HW226496   4.546   8.552   4.019  0.3992 -0.5860 -0.5336
39816SOL     OW26497   3.782   9.830   0.240 -0.1869  0.1450 -0.1279
39816SOL    HW126498   3.816   9.894   0.178  3.9282  0.6521  2.3346
39816SOL    HW226499   3.827   9.749   0.219 -1.9060 -0.8301 -0.3012
39817SOL     OW26500   8.845   9.734   3.805  0.1319  0.2023 -0.4501
39817SOL    HW126501   8.768   9.790   3.795  0.6658  0.6861 -2.0486
39817SOL    HW226502   8.907   9.767   3.741  1.7626 -0.0611  0.9399
39818SOL     OW26503  10.629   3.751   9.955 -0.2062  0.1471 -0.0330
39818SOL    HW126504  10.629   3.701   9.874 -0.1970 -0.4067  0.3038
39818SOL    HW226505  10.690   3.823   9.939  1.2514 -1.0011  0.1172
39819SOL     OW26506   6.848   2.313   1.229 -0.3545 -0.1495 -0.2601
39819SOL    HW126507   6.942   2.301   1.236 -0.4979 -0.9316  0.5417
39819SOL    HW226508   6.833   2.333   1.137  0.4559 -1.3288 -0.6681
39820SOL     OW26509   3.120   5.978   1.681  0.8464  0.0119 -0.2082
39820SOL    HW126510   3.065   5.903   1.702  1.7279 -1.0414 -1.5323
39820SOL    HW226511   3.198   5.967   1.735  0.6745  0.3726  0.1191
39821SOL     OW26512  12.118   6.556   4.293 -0.0945  0.4747 -0.5533
39821SOL    HW126513  12.054   6.535   4.362  1.3754 -1.2113  0.3979
39821SOL    HW226514  12.091   6.641   4.260 -2.1754  0.3163  0.5689
39822SOL     OW26515   5.927   3.437   4.038 -0.3283  0.0182 -0.0782
39822SOL    HW126516   5.859   3.465   4.099  0.0038 -0.4274  0.5067
39822SOL    HW226517   5.978   3.516   4.020 -1.1524  0.4207 -0.7404
39823SOL     OW26518   8.543   6.692   6.807 -0.2673 -0.0998 -0.0375
39823SOL    HW126519   8.488   6.730   6.738 -0.0656  0.6440  0.2014
39823SOL    HW226520   8.601   6.632   6.760  1.0170  1.6499 -0.7754
39824SOL     OW26521   2.788   7.971  11.917  0.1861  0.0162  0.3080
39824SOL    HW126522   2.872   7.925  11.911  0.7770  1.1493 -0.3986
39824SOL    HW226523   2.804   8.043  11.978 -0.7108 -0.6079  1.3407
39825SOL     OW26524   7.917   7.730   8.279 -0.0816  0.1873 -0.4595
39825SOL    HW126525   7.939   7.713   8.188 -1.4429  0.9862 -0.9541
39825SOL    HW226526   7.983   7.793   8.308 -0.1349  0.5542 -1.1275
39826SOL     OW26527   2.318   6.492   1.618  0.4664  0.5294 -0.3503
39826SOL    HW126528   2.403   6.450   1.629  0.2259  0.2722  0.7110
39826SOL    HW226529   2.338   6.585   1.610  0.7973  0.6246  1.2387
39827SOL     OW26530   6.694  11.492  10.261  0.5930 -0.5954 -0.1623
39827SOL    HW126531   6.613  11.446  10.238  0.8100 -0.5587 -1.0652
39827SOL    HW226532   6.665  11.578  10.291  0.2563 -0.8515  0.2452
39828SOL     OW26533  10.881   5.265   6.899  0.0880 -0.8524 -0.0422
39828SOL    HW126534  10.946   5.198   6.921  0.8892 -0.1692 -0.2972
39828SOL    HW226535  10.928   5.328   6.845 -0.7590 -0.2819 -0.1344
39829SOL     OW26536   9.481  12.077   8.740  0.0500  0.0909  0.1613
39829SOL    HW126537   9.481  12.111   8.650 -0.7672  0.9455  0.4789
39829SOL    HW226538   9.395  12.099   8.774  0.5282  0.2075  1.3235
39830SOL     OW26539  11.456   0.552  11.469  0.1904  0.4626 -0.6796
39830SOL    HW126540  11.414   0.545  11.555  0.3783  1.5284 -0.4845
39830SOL    HW226541  11.433   0.640  11.439 -1.9666 -0.7486 -2.8520
39831SOL     OW26542   8.990  11.338   3.043  0.4110 -0.1456  0.2379
39831SOL    HW126543   8.942  11.383   3.113 -1.6349  0.9006 -1.7019
39831SOL    HW226544   8.969  11.246   3.056 -1.0189  0.1532  0.3049
39832SOL     OW26545   7.893   4.766   4.379  0.4382  0.3255  0.4309
39832SOL    HW126546   7.947   4.822   4.322  1.8380  0.1885  1.5862
39832SOL    HW226547   7.827   4.826   4.414  0.7086  0.8210  0.1120
39833SOL     OW26548   6.824   1.897   5.096 -0.0642  0.1057 -0.2940
39833SOL    HW126549   6.826   1.923   5.004 -0.7489 -0.2020 -0.4068
39833SOL    HW226550   6.914   1.872   5.116 -0.0906 -0.7387 -1.1529
39834SOL     OW26551   9.072  12.509  11.456 -0.2073 -0.1216  0.3903
39834SOL    HW126552   9.040  12.489  11.544  1.9034  0.5016  1.3641
39834SOL    HW226553   9.147  12.451  11.444  0.1146  0.4825 -0.6264
39835SOL     OW26554   9.051   8.162   4.507  0.7920  0.2452 -0.1659
39835SOL    HW126555   9.044   8.244   4.459  0.8710  0.0456 -0.5236
39835SOL    HW226556   9.144   8.140   4.504  0.6969 -0.1140 -0.5080
39836SOL     OW26557   2.578   3.924   3.634 -0.5803 -0.2790 -0.1906
39836SOL    HW126558   2.578   3.872   3.554  0.1936 -0.4694 -0.0687
39836SOL    HW226559   2.580   4.015   3.605 -0.9101 -0.3353 -0.3920
39837SOL     OW26560  10.921   0.187   6.298 -0.3199  0.0027  0.1136
39837SOL    HW126561  10.874   0.269   6.280 -3.3246 -1.6099 -0.0017
39837SOL    HW226562  10.880   0.122   6.241  0.3458 -2.0839  1.8623
39838SOL     OW26563   9.384   0.255   4.617 -0.3180  0.2029  0.1689
39838SOL    HW126564   9.421   0.173   4.650 -0.2258  0.8417  1.7430
39838SOL    HW226565   9.291   0.249   4.639 -0.2579  0.6309  0.5647
39839SOL     OW26566   0.596   9.648   3.635  0.2952  0.3955 -0.1660
39839SOL    HW126567   0.542   9.670   3.711  1.1783  1.9249  0.0419
39839SOL    HW226568   0.677   9.697   3.647  0.2633  1.0988 -2.3495
39840SOL     OW26569  10.543   5.983   3.759 -0.0047  0.5039 -0.2605
39840SOL    HW126570  10.615   6.025   3.806  0.0083  0.0505  0.1448
39840SOL    HW226571  10.586   5.915   3.706 -0.3205 -2.6263  3.0308
39841SOL     OW26572   2.507   2.906   4.427 -0.3562 -0.8840 -0.1937
39841SOL    HW126573   2.526   2.964   4.353 -1.9349 -0.0194  0.0265
39841SOL    HW226574   2.571   2.836   4.421  2.0877  1.1979 -0.1191
39842SOL     OW26575   3.418   8.736   2.748 -0.2753 -0.3456 -0.1529
39842SOL    HW126576   3.374   8.742   2.833 -2.9542 -2.6943 -1.2043
39842SOL    HW226577   3.376   8.803   2.694 -0.2508 -0.4355 -0.2837
39843SOL     OW26578   4.724  10.489   8.128 -0.0757  0.0905  0.1721
39843SOL    HW126579   4.739  10.559   8.065 -1.2591 -0.7153 -1.0512
39843SOL    HW226580   4.656  10.522   8.186 -0.0819  0.2428  0.0766
39844SOL     OW26581   2.822   7.116   1.246  0.6135  0.5744 -0.0564
39844SOL    HW126582   2.832   7.200   1.292 -2.0040 -0.2376  2.2783
39844SOL    HW226583   2.739   7.124   1.200  0.7862 -0.4472 -0.5705
39845SOL     OW26584   3.791   7.120   2.190 -0.2627  0.2008  0.1390
39845SOL    HW126585   3.797   7.097   2.097  0.7666  1.0406 -0.0222
39845SOL    HW226586   3.738   7.050   2.228  0.5482 -0.9825 -0.8029
39846SOL     OW26587  10.281  12.495   6.021 -0.2967 -0.5733  0.1797
39846SOL    HW126588  10.227  12.489   6.100  0.3600 -1.4810  0.5800
39846SOL    HW226589  10.278  12.407   5.983  0.0287 -0.3509 -0.3842
39847SOL     OW26590   0.586  11.986   2.123 -0.4789 -0.3081  0.0222
39847SOL    HW126591   0.509  11.948   2.081  0.1205  0.2978 -1.7321
39847SOL    HW226592   0.647  12.000   2.051 -0.0849  2.5597  0.8088
39848SOL     OW26593  12.232   7.035   5.127  0.3743  0.1755 -0.7386
39848SOL    HW126594  12.233   6.999   5.039 -1.1730 -0.4005 -0.5665
39848SOL    HW226595  12.148   7.006   5.163  0.3532  1.5627  0.4295
39849SOL     OW26596   1.913  12.175  11.212  0.4518 -0.1065  0.4094
39849SOL    HW126597   1.852  12.111  11.248 -0.9304  0.7719 -0.2748
39849SOL    HW226598   1.934  12.232  11.285  0.5759 -0.4866  0.6775
39850SOL     OW26599  10.264  10.276   5.167  0.4009  0.5526  0.0166
39850SOL    HW126600  10.333  10.238   5.222 -0.5319 -2.4330 -0.6467
39850SOL    HW226601  10.184  10.233   5.196 -0.4037  0.3400 -2.3297
39851SOL     OW26602   7.308   5.666   0.509 -0.2495  0.7351  0.0699
39851SOL    HW126603   7.318   5.649   0.415 -1.6870  0.8078 -0.1136
39851SOL    HW226604   7.286   5.759   0.514 -0.1891  0.7299  0.4858
39852SOL     OW26605   6.760   9.993   4.247  0.1181  0.2630  0.0666
39852SOL    HW126606   6.795  10.015   4.161  0.1319 -1.5978 -0.4516
39852SOL    HW226607   6.668   9.969   4.230  0.6291 -2.0564  0.1720
39853SOL     OW26608  11.833   9.761   6.545 -0.4116 -0.3728  0.1772
39853SOL    HW126609  11.882   9.722   6.472 -0.5065  2.5968 -1.6330
39853SOL    HW226610  11.892   9.825   6.582 -1.6100  0.6341  0.4063
39854SOL     OW26611   7.010  10.676  10.892  0.4547 -0.0152  0.2972
39854SOL    HW126612   6.962  10.608  10.846  1.6079 -0.3045 -0.5281
39854SOL    HW226613   7.088  10.690  10.840  1.2531  0.4792  1.5649
39855SOL     OW26614  10.507   3.103  11.817  0.9284 -0.5018  0.2906
39855SOL    HW126615  10.443   3.046  11.774  0.2119  1.0610 -0.8063
39855SOL    HW226616  10.591   3.063  11.796  0.4092 -1.6232  0.2659
39856SOL     OW26617   4.931   3.413   4.219 -0.0224 -0.1038 -0.2087
39856SOL    HW126618   4.872   3.444   4.150 -0.5841 -0.3483  0.1569
39856SOL    HW226619   5.008   3.381   4.172 -0.1369  0.3058 -0.6855
39857SOL     OW26620  10.053   2.547   2.399  0.3177  0.4896 -0.1663
39857SOL    HW126621  10.005   2.543   2.316  0.6547 -0.4483 -0.3242
39857SOL    HW226622  10.017   2.625   2.443 -0.1862  0.7364 -0.9848
39858SOL     OW26623   6.852   0.868   5.517  0.2017  0.1556  0.3672
39858SOL    HW126624   6.790   0.814   5.565  0.5846 -1.6922 -1.0923
39858SOL    HW226625   6.932   0.866   5.570  0.2099 -0.7398  0.3306
39859SOL     OW26626   4.027  11.631   9.598 -0.3432  0.0187 -0.2140
39859SOL    HW126627   3.971  11.603   9.671 -0.0638 -1.4074 -0.5031
39859SOL    HW226628   3.966  11.641   9.525 -0.4461  0.1405 -0.1132
39860SOL     OW26629   7.623   0.157   9.978 -0.0898 -0.0744  0.4701
39860SOL    HW126630   7.657   0.070   9.956  0.4172  0.1463  0.3720
39860SOL    HW226631   7.591   0.148  10.067 -1.2187 -0.7082  0.0232
39861SOL     OW26632   0.722   3.946  10.820  0.1782 -0.2334 -0.3358
39861SOL    HW126633   0.751   3.909  10.903  0.1746 -0.2331 -0.3346
39861SOL    HW226634   0.634   3.912  10.807  0.5931 -1.1436 -0.8912
39862SOL     OW26635   5.028  11.169   5.835 -0.0167 -0.3214  0.2983
39862SOL    HW126636   5.016  11.134   5.923 -1.1174 -0.6381  0.0366
39862SOL    HW226637   5.070  11.254   5.849  0.4183 -0.6482  1.0818
39863SOL     OW26638   5.317   4.916   4.992  0.2218  0.3367 -0.1277
39863SOL    HW126639   5.405   4.880   4.983  0.1295  0.1547 -0.3146
39863SOL    HW226640   5.310   4.939   5.085  0.2171 -0.3047  0.0346
39864SOL     OW26641   2.422   1.924   4.831 -0.4492 -0.2364  0.0156
39864SOL    HW126642   2.374   1.899   4.910  0.2274  0.7697  0.7695
39864SOL    HW226643   2.503   1.962   4.864 -0.5783  1.0979 -1.1338
39865SOL     OW26644   0.993   9.563   5.060 -0.4130 -0.3870  0.2862
39865SOL    HW126645   1.030   9.620   5.128 -1.1316 -0.1338  0.4757
39865SOL    HW226646   1.052   9.489   5.056 -0.0206 -0.1045  0.7568
39866SOL     OW26647  10.083   6.708   1.957  0.1127  0.6183 -0.1393
39866SOL    HW126648  10.007   6.684   1.905  0.0378  2.9703 -1.2405
39866SOL    HW226649  10.158   6.675   1.907  0.0613  3.0796 -2.0311
39867SOL     OW26650   1.336   2.614   5.855 -0.1754  1.0036  0.0809
39867SOL    HW126651   1.310   2.684   5.915  0.5091 -0.4955  2.2434
39867SOL    HW226652   1.309   2.533   5.898  1.5343 -0.2305 -0.9878
39868SOL     OW26653   1.565  10.236   9.806  0.0697  0.0222 -0.4716
39868SOL    HW126654   1.562  10.314   9.861 -1.2049 -1.4311  1.6602
39868SOL    HW226655   1.653  10.201   9.818  0.5828  0.9746 -1.2835
39869SOL     OW26656   5.236   4.737   3.048 -0.4691 -0.6029  0.1382
39869SOL    HW126657   5.155   4.753   3.098  1.1497  1.8217  2.2236
39869SOL    HW226658   5.287   4.678   3.103  0.4624  0.4295  0.4201
39870SOL     OW26659   3.774   2.810   3.318 -0.3181 -0.4242 -0.2904
39870SOL    HW126660   3.835   2.797   3.391  0.7161 -0.2959 -1.1108
39870SOL    HW226661   3.779   2.729   3.268 -0.8004 -0.3955 -0.3894
39871SOL     OW26662   3.140   3.436   9.860  0.0100  0.0138  0.4539
39871SOL    HW126663   3.175   3.456   9.947 -0.8042  1.0105  0.5702
39871SOL    HW226664   3.121   3.343   9.863  4.6237 -1.2017 -0.3427
39872SOL     OW26665   1.675   2.744   1.622 -0.3209  0.3870 -0.2461
39872SOL    HW126666   1.617   2.671   1.641  0.4895 -0.1524  0.1839
39872SOL    HW226667   1.661   2.806   1.694 -0.3704  0.2602 -0.1474
39873SOL     OW26668   2.530   7.663   0.195 -0.5960 -0.0292 -0.1261
39873SOL    HW126669   2.438   7.661   0.221 -0.9666 -0.7303 -1.3927
39873SOL    HW226670   2.528   7.664   0.099  0.7056  2.2886 -0.2032
39874SOL     OW26671   4.375   6.938   0.058  0.4105  0.2486 -0.1843
39874SOL    HW126672   4.374   6.957   0.152 -0.0273 -0.1613 -0.1027
39874SOL    HW226673   4.364   6.843   0.052 -0.5340  0.3707 -0.6692
39875SOL     OW26674  11.214   8.459  11.438  0.5098  0.4242 -0.1170
39875SOL    HW126675  11.218   8.551  11.411  0.1804  0.4119 -0.2183
39875SOL    HW226676  11.218   8.461  11.533  0.4638  0.5466 -0.1180
39876SOL     OW26677  11.338   9.242   3.242  0.2312 -0.1562  0.2947
39876SOL    HW126678  11.415   9.188   3.256  1.1672  0.7930 -1.0251
39876SOL    HW226679  11.355   9.323   3.291 -0.3822 -0.3333  0.8182
39877SOL     OW26680   8.832   4.514  11.193  0.0537  0.0309  0.0199
39877SOL    HW126681   8.752   4.548  11.152 -0.3955 -0.2627  0.6286
39877SOL    HW226682   8.800   4.455  11.261  0.7733  0.8078  1.0552
39878SOL     OW26683  12.266  10.803   2.422  0.3784 -0.2043 -0.0161
39878SOL    HW126684  12.176  10.827   2.442  0.9199  0.0543  2.3910
39878SOL    HW226685  12.300  10.766   2.504  2.2633 -0.9299 -1.0548
39879SOL     OW26686   3.783   5.741   9.246  0.1171 -0.2344  0.0118
39879SOL    HW126687   3.730   5.661   9.241 -0.7741  0.2797  0.9743
39879SOL    HW226688   3.846   5.732   9.174  0.1948 -1.9100  0.2509
39880SOL     OW26689   9.104  11.971   6.938 -0.2716  0.1092 -0.1857
39880SOL    HW126690   9.144  11.896   6.893  1.2003 -0.5060  1.9931
39880SOL    HW226691   9.021  11.937   6.971 -0.0196 -0.3363  0.0152
39881SOL     OW26692  11.589   1.632   7.689  0.2636 -0.4203  0.5719
39881SOL    HW126693  11.600   1.565   7.757 -1.1655 -0.5913  0.6639
39881SOL    HW226694  11.562   1.583   7.611  1.7267 -0.2041 -0.0893
39882SOL     OW26695   3.386   9.623   1.487 -0.0369 -0.4019  0.2142
39882SOL    HW126696   3.447   9.635   1.560  0.9199 -0.5024 -0.5645
39882SOL    HW226697   3.432   9.567   1.425 -0.9231 -0.4836 -0.3950
39883SOL     OW26698   9.562   0.998   0.939 -0.0629 -0.2254 -0.3744
39883SOL    HW126699   9.588   0.990   1.031  2.2747 -0.3002 -0.9751
39883SOL    HW226700   9.521   0.915   0.918 -0.3645 -0.3144  0.5185
39884SOL     OW26701  11.297   6.292  12.057 -0.3507  0.2851  0.4755
39884SOL    HW126702  11.234   6.364  12.049 -0.0191  0.6803  1.2926
39884SOL    HW226703  11.322   6.271  11.967 -1.1143  0.6033  0.1876
39885SOL     OW26704   8.760   0.209  12.035  0.0180 -0.4293 -0.1970
39885SOL    HW126705   8.728   0.299  12.035  1.2650  0.0460  0.6822
39885SOL    HW226706   8.847   0.215  12.073  0.7630 -1.7983 -1.5906
39886SOL     OW26707   9.285   0.070   2.297  0.1436 -0.4102 -0.0932
39886SOL    HW126708   9.336  -0.009   2.280  0.3885 -0.3381  0.2881
39886SOL    HW226709   9.269   0.069   2.391  1.1085  0.5445  0.1131
39887SOL     OW26710   3.504   1.823   6.038 -0.0302  0.3252 -0.0928
39887SOL    HW126711   3.436   1.860   6.093 -0.2847  1.1505 -0.9410
39887SOL    HW226712   3.510   1.882   5.963 -0.9757 -1.6959 -1.8843
39888SOL     OW26713  10.818   3.810   8.997 -0.3445  0.0417 -0.3106
39888SOL    HW126714  10.822   3.891   9.048 -1.0809  1.1739 -1.9994
39888SOL    HW226715  10.849   3.742   9.058 -1.6280  1.2500  1.8000
39889SOL     OW26716   7.508   7.433   2.223 -0.3076  0.4129  0.3680
39889SOL    HW126717   7.500   7.339   2.209  1.2638 -0.1002  2.3457
39889SOL    HW226718   7.494   7.444   2.317  0.8299  1.9771  0.3889
39890SOL     OW26719   9.373  11.130   2.023 -0.4277  0.3074  0.3377
39890SOL    HW126720   9.317  11.089   1.957 -3.1471  2.0308  1.3953
39890SOL    HW226721   9.421  11.197   1.974 -1.4070  0.6665 -0.1689
39891SOL     OW26722  11.456   4.841   7.747  0.2108 -0.4540  0.5009
39891SOL    HW126723  11.472   4.822   7.839 -0.6381 -0.5658  0.6354
39891SOL    HW226724  11.373   4.796   7.727  0.6438 -0.8675 -0.4512
39892SOL     OW26725   4.650  11.784   1.426  0.8084 -0.5472 -0.0175
39892SOL    HW126726   4.625  11.849   1.361  2.8408 -0.8260 -1.1588
39892SOL    HW226727   4.597  11.806   1.503 -0.2816  0.9598 -1.1343
39893SOL     OW26728   3.083   0.765   8.245  0.6032  0.3330  0.1655
39893SOL    HW126729   3.084   0.695   8.180  2.0499 -0.6490  1.1647
39893SOL    HW226730   2.991   0.774   8.270  0.4537 -1.8493  0.6296
39894SOL     OW26731   4.335   2.070   9.310  0.5163  0.2484  0.3373
39894SOL    HW126732   4.272   2.141   9.300  0.4419  0.5665  2.5837
39894SOL    HW226733   4.418   2.113   9.325  0.9037 -0.1800 -0.4685
39895SOL     OW26734  11.340  10.522   6.119 -0.2992 -0.2986  0.8609
39895SOL    HW126735  11.258  10.558   6.087  1.2445  1.5750 -1.3790
39895SOL    HW226736  11.393  10.509   6.041  1.5753 -1.4234  2.2190
39896SOL     OW26737   5.228   5.970   4.301 -0.0708 -0.2281  0.6839
39896SOL    HW126738   5.204   5.878   4.290  1.0151 -0.4853  0.3277
39896SOL    HW226739   5.159   6.019   4.256 -0.3750 -0.8928  0.4218
39897SOL     OW26740   3.533   1.377   1.648 -0.4168  0.4227  0.3063
39897SOL    HW126741   3.601   1.439   1.622 -0.4261  1.3724  2.4074
39897SOL    HW226742   3.462   1.431   1.683 -1.7314 -0.6339 -0.5976
39898SOL     OW26743  11.943   4.887   6.806 -0.4845 -0.1036  0.0075
39898SOL    HW126744  11.915   4.836   6.730 -1.5247  0.4587 -0.0032
39898SOL    HW226745  12.007   4.950   6.772 -1.5354  0.6736 -0.5598
39899SOL     OW26746   8.541  10.521   4.853 -0.2144  0.4288 -0.3876
39899SOL    HW126747   8.485  10.598   4.847 -0.8443  0.1112  1.0116
39899SOL    HW226748   8.614  10.539   4.794 -1.2313  1.3258 -1.4182
39900SOL     OW26749  11.924   1.847   8.422 -0.0813 -0.0327 -0.0173
39900SOL    HW126750  11.986   1.880   8.357 -0.2088  0.9482  0.3340
39900SOL    HW226751  11.855   1.805   8.371 -0.0279  0.4580 -0.5034
39901SOL     OW26752   0.502  12.451   4.636 -0.1397 -0.5076 -0.7114
39901SOL    HW126753   0.426  12.504   4.614 -0.0705 -0.1415 -0.1103
39901SOL    HW226754   0.469  12.362   4.641 -0.3397 -0.4719 -1.3400
39902SOL     OW26755  12.148   6.002   9.348  0.3663 -0.3353 -0.2532
39902SOL    HW126756  12.152   6.032   9.438  0.0022  2.8266 -1.1624
39902SOL    HW226757  12.229   5.952   9.335  0.7180 -0.2972  1.6035
39903SOL     OW26758   2.088   7.721   3.332  0.0269 -0.5546 -0.2750
39903SOL    HW126759   2.073   7.807   3.372 -0.0792 -0.1574 -1.1403
39903SOL    HW226760   2.025   7.664   3.374  0.2598 -0.2607  0.4804
39904SOL     OW26761   0.738   5.523   8.042 -0.0453 -0.2000  0.6065
39904SOL    HW126762   0.712   5.495   8.130  0.4612  1.1360  1.2142
39904SOL    HW226763   0.766   5.614   8.053  2.2273 -0.6915 -0.4907
39905SOL     OW26764   4.484   1.410   0.516 -0.1989 -0.1810  0.0886
39905SOL    HW126765   4.529   1.326   0.514 -0.5287 -0.3656  0.3491
39905SOL    HW226766   4.395   1.389   0.545  0.3636  0.5704  2.5647
39906SOL     OW26767   9.382   3.974   4.735 -0.3639 -0.3262 -0.0273
39906SOL    HW126768   9.303   3.920   4.739  0.0252 -1.1007 -1.8243
39906SOL    HW226769   9.373   4.024   4.654  1.3794 -1.1266 -0.7717
39907SOL     OW26770   8.749   4.013   9.367  0.1744 -0.3190 -0.1938
39907SOL    HW126771   8.776   4.076   9.299  0.4477  0.2473  0.4310
39907SOL    HW226772   8.688   4.062   9.422 -1.8350 -1.4378 -1.2971
39908SOL     OW26773  11.879   1.292   5.023 -0.3328 -0.3081 -0.2356
39908SOL    HW126774  11.938   1.232   5.069 -0.7713 -1.1635 -0.7655
39908SOL    HW226775  11.901   1.378   5.057  0.0196 -0.8185  0.8632
39909SOL     OW26776   8.967  11.731   9.377 -0.0440  0.8582 -0.0078
39909SOL    HW126777   8.949  11.760   9.288  0.0300  0.0838 -0.2859
39909SOL    HW226778   8.888  11.685   9.404  0.8083 -1.0618 -0.6038
39910SOL     OW26779   8.792   1.106  12.234 -0.5700 -0.2720 -0.0926
39910SOL    HW126780   8.709   1.089  12.188 -0.2642 -1.9497 -0.0961
39910SOL    HW226781   8.766   1.122  12.325 -0.9637  0.1713 -0.2795
39911SOL     OW26782  12.209  11.955   1.038  0.4026  0.3111 -0.4134
39911SOL    HW126783  12.294  11.923   1.009 -0.4618 -1.5273 -1.0971
39911SOL    HW226784  12.151  11.938   0.963 -0.0428  4.3515 -1.2248
39912SOL     OW26785   1.531   0.770   8.746  0.0575  0.2049  0.1749
39912SOL    HW126786   1.486   0.690   8.720 -0.1576  0.1749  0.6372
39912SOL    HW226787   1.475   0.841   8.713  0.3524  0.1701 -0.4139
39913SOL     OW26788   7.026   6.595  10.702 -0.0348  0.2607 -0.2082
39913SOL    HW126789   7.071   6.510  10.703 -0.3409  0.0923  0.8303
39913SOL    HW226790   7.094   6.658  10.728 -0.0529  0.1871  0.0271
39914SOL     OW26791   5.629   5.073   3.243 -0.1279 -0.6330  0.3834
39914SOL    HW126792   5.571   5.077   3.319  0.3115 -0.0334  0.6934
39914SOL    HW226793   5.717   5.068   3.280  0.0448 -1.2428 -0.0850
39915SOL     OW26794   8.122   9.844   7.152 -0.2188 -0.0827 -0.2537
39915SOL    HW126795   8.092   9.829   7.242  0.2385  0.7992  0.0597
39915SOL    HW226796   8.047   9.821   7.097 -0.7882  0.1825  0.4025
39916SOL     OW26797  11.314   1.312   5.205 -0.3617  0.6495  0.7238
39916SOL    HW126798  11.299   1.223   5.237 -1.9377  1.0411  1.1707
39916SOL    HW226799  11.339   1.361   5.283  1.1461  0.4837  0.3667
39917SOL     OW26800   9.876   0.587   1.173 -0.0145  0.3527 -0.0195
39917SOL    HW126801   9.792   0.541   1.169  0.6825 -1.0624  0.8842
39917SOL    HW226802   9.893   0.598   1.267  1.1231  0.0144 -0.1694
39918SOL     OW26803   5.216  12.172   9.464 -0.0772  0.2304  0.3173
39918SOL    HW126804   5.303  12.194   9.431 -0.2499  1.8256  0.8143
39918SOL    HW226805   5.187  12.098   9.411  1.0297  0.5528 -0.7698
39919SOL     OW26806   9.944   1.477  11.769  0.8020  0.0864 -0.6714
39919SOL    HW126807   9.914   1.421  11.697 -0.8390  0.3161 -0.1906
39919SOL    HW226808   9.928   1.426  11.848  0.6851  0.6553 -0.3275
39920SOL     OW26809   5.820  11.123   8.811  0.1611  0.3679 -0.1012
39920SOL    HW126810   5.771  11.145   8.891 -0.1806 -0.3976 -0.0886
39920SOL    HW226811   5.788  11.036   8.787  0.1835  0.6341 -1.1351
39921SOL     OW26812   2.364   7.165   0.907  0.1832 -0.2520 -0.6272
39921SOL    HW126813   2.389   7.080   0.943  1.1127 -0.4782 -1.7425
39921SOL    HW226814   2.447   7.208   0.885 -0.2712  0.9062 -0.1999
39922SOL     OW26815   0.961   0.546   0.865  0.1223  0.0260 -0.0378
39922SOL    HW126816   0.942   0.452   0.866 -0.3371  0.1024  1.3209
39922SOL    HW226817   1.017   0.559   0.789  1.0266 -1.5225  0.3218
39923SOL     OW26818   4.735   3.699  11.037  0.4390  0.1475  0.3946
39923SOL    HW126819   4.787   3.620  11.050  1.6047  0.4798 -1.7265
39923SOL    HW226820   4.793   3.770  11.065  0.5194  0.4006 -0.3766
39924SOL     OW26821   9.190   9.727   2.411 -0.5235  0.4492  0.1492
39924SOL    HW126822   9.249   9.717   2.337  0.4200  1.4118  0.7505
39924SOL    HW226823   9.235   9.685   2.484 -1.0292  0.3221  0.3940
39925SOL     OW26824   0.037   8.170   4.502  0.0182 -0.9017  0.1947
39925SOL    HW126825  -0.052   8.137   4.496  0.3278 -1.6399 -0.5652
39925SOL    HW226826   0.071   8.134   4.584 -0.1451 -1.2063  0.1263
39926SOL     OW26827   1.993   3.372   1.985  0.2426  0.8626 -0.2877
39926SOL    HW126828   2.060   3.337   1.926  1.8819  1.7504  0.9690
39926SOL    HW226829   1.964   3.295   2.036  0.0358  0.4161 -1.0569
39927SOL     OW26830   8.469   5.116   7.710 -0.6657  0.1743 -0.2580
39927SOL    HW126831   8.482   5.021   7.716 -1.1198  0.1733  0.8484
39927SOL    HW226832   8.479   5.148   7.799 -2.7069  0.8781 -0.2285
39928SOL     OW26833   1.107  10.099   8.992 -0.4384 -0.6722 -0.8287
39928SOL    HW126834   1.110  10.004   8.995  0.2951 -0.6291  0.2762
39928SOL    HW226835   1.178  10.123   8.933  1.4330 -0.7447  1.2643
39929SOL     OW26836  10.627   1.239   0.096  0.2316  0.1666  0.0651
39929SOL    HW126837  10.532   1.225   0.097 -0.0188  1.7087  0.5464
39929SOL    HW226838  10.661   1.170   0.040 -1.4388  1.0890 -2.2276
39930SOL     OW26839  11.926   4.022  10.935 -0.5722 -0.0247 -0.1667
39930SOL    HW126840  11.994   4.086  10.953 -1.6867  1.6047 -1.5007
39930SOL    HW226841  11.892   3.998  11.021 -0.6857  1.8153  0.3375
39931SOL     OW26842   4.825  12.502  11.066 -0.3097  0.0048 -0.1598
39931SOL    HW126843   4.881  12.445  11.014 -0.2430  1.5604 -1.9242
39931SOL    HW226844   4.736  12.476  11.042 -0.2942  1.3027 -1.8997
39932SOL     OW26845   7.282   9.050  11.248  0.6796 -0.0007 -0.3572
39932SOL    HW126846   7.342   9.003  11.190  1.9163  0.7571  0.2793
39932SOL    HW226847   7.198   9.049  11.201  1.5730  0.3940 -2.0658
39933SOL     OW26848   0.103   5.587  11.386  0.2946  0.9136  0.6568
39933SOL    HW126849   0.153   5.665  11.409 -0.7288  1.0010  2.8194
39933SOL    HW226850   0.028   5.620  11.337  1.6861  0.8785 -1.6515
39934SOL     OW26851   0.994   9.276   5.211 -0.0182  0.4753  0.4190
39934SOL    HW126852   1.085   9.303   5.225  0.3580 -0.7705  0.5370
39934SOL    HW226853   0.993   9.238   5.123  0.5635 -3.0996  1.7731
39935SOL     OW26854   2.386   3.604   7.875  0.1620  0.0457 -0.0903
39935SOL    HW126855   2.481   3.602   7.882  0.3225 -0.6998 -1.8664
39935SOL    HW226856   2.357   3.521   7.912  0.3101 -0.2331 -0.5901
39936SOL     OW26857   9.866   2.694   7.426  0.3003 -0.4888  0.1874
39936SOL    HW126858   9.913   2.764   7.471 -2.4578  0.5711  1.6366
39936SOL    HW226859   9.875   2.715   7.333  0.4985  1.1475  0.5502
39937SOL     OW26860   6.640   4.424  10.784  0.2407  0.4228  0.0675
39937SOL    HW126861   6.688   4.420  10.867 -0.0788 -0.4090  0.2255
39937SOL    HW226862   6.553   4.454  10.808  0.3039  0.6996 -0.0447
39938SOL     OW26863   2.356   8.245  10.295 -0.2914  0.0852  0.7659
39938SOL    HW126864   2.436   8.251  10.347 -0.0017 -1.2647  0.5198
39938SOL    HW226865   2.321   8.334  10.295  0.4005  0.3901  2.1380
39939SOL     OW26866  11.218  10.562   3.094 -0.7602  0.1915 -0.1412
39939SOL    HW126867  11.284  10.631   3.093  1.6944 -2.0121  0.4065
39939SOL    HW226868  11.187  10.557   3.003  1.8357 -0.4296 -1.0976
39940SOL     OW26869  11.403   5.239   1.317 -0.1306  0.3645 -0.4627
39940SOL    HW126870  11.370   5.323   1.348 -1.6620 -0.9197  1.6517
39940SOL    HW226871  11.498   5.249   1.319 -0.2738  1.9508  0.0084
39941SOL     OW26872   1.226   0.056   2.560 -0.6759  0.0231 -0.2153
39941SOL    HW126873   1.163   0.104   2.507 -1.3893 -1.8591 -1.1379
39941SOL    HW226874   1.235   0.109   2.639 -3.4423  0.3759 -0.0264
39942SOL     OW26875   3.077   9.570   8.060 -0.2458 -0.0768 -0.5218
39942SOL    HW126876   3.164   9.588   8.095 -0.1300 -1.1351 -0.2383
39942SOL    HW226877   3.039   9.657   8.044  1.3610  0.4148 -1.9305
39943SOL     OW26878   2.302   5.417  11.914 -0.8327 -0.1038  0.2746
39943SOL    HW126879   2.230   5.428  11.976 -2.3570 -0.9746 -1.2427
39943SOL    HW226880   2.273   5.464  11.836  1.4876  1.8560  0.4503
39944SOL     OW26881   1.758  12.548  11.121  0.9517  0.0953 -0.1336
39944SOL    HW126882   1.846  12.585  11.126  0.4653  1.5979 -1.8313
39944SOL    HW226883   1.762  12.487  11.048  1.0314 -1.2809  0.9701
39945SOL     OW26884   2.260   0.287   2.547 -0.2847 -0.4841 -0.1632
39945SOL    HW126885   2.276   0.379   2.528 -3.1524  0.1214 -0.1730
39945SOL    HW226886   2.189   0.288   2.612 -0.8979 -2.6746 -0.7084
39946SOL     OW26887   5.773  10.229   6.482 -0.4584 -0.1300 -0.0682
39946SOL    HW126888   5.807  10.151   6.525 -1.5964 -0.4057  0.3876
39946SOL    HW226889   5.850  10.279   6.456  0.2614 -0.2228  1.7945
39947SOL     OW26890   5.953   2.823   5.257  0.3645  0.6824 -0.0926
39947SOL    HW126891   5.886   2.764   5.291  1.2380  0.2609  0.9555
39947SOL    HW226892   5.948   2.900   5.314  0.3226  0.9344 -0.4347
39948SOL     OW26893   7.531   9.785   6.824  0.5665  0.1169  0.6794
39948SOL    HW126894   7.439   9.810   6.816  0.6128  0.0428 -0.1541
39948SOL    HW226895   7.580   9.866   6.807  0.7136 -0.4186 -1.9122
39949SOL     OW26896  10.530   1.666   8.940 -0.1993  0.1989 -0.2178
39949SOL    HW126897  10.572   1.750   8.958 -2.6043  1.2132  1.2895
39949SOL    HW226898  10.505   1.633   9.026 -0.6653 -1.3203 -0.9007
39950SOL     OW26899   5.892   7.502   6.483  0.7800  0.7336  0.2548
39950SOL    HW126900   5.881   7.435   6.415  0.5135  0.7391  0.2925
39950SOL    HW226901   5.946   7.459   6.550 -1.5720 -0.3836  1.5414
39951SOL     OW26902   8.533   5.871   1.159 -0.4563  0.5425 -0.3007
39951SOL    HW126903   8.560   5.785   1.126 -1.0267  1.0234 -2.1687
39951SOL    HW226904   8.560   5.932   1.090  0.3285  1.9453  1.1796
39952SOL     OW26905   8.417   8.598  12.329 -0.0219 -0.4217  0.0080
39952SOL    HW126906   8.331   8.623  12.295 -0.6046 -0.7190  1.1911
39952SOL    HW226907   8.473   8.593  12.252 -0.6980  1.1980 -0.6458
39953SOL     OW26908  11.965   6.953  10.204  1.3006 -0.0538  1.1862
39953SOL    HW126909  12.060   6.938  10.207  1.4336 -0.6331 -2.1028
39953SOL    HW226910  11.956   7.045  10.178  1.0809 -0.5172 -0.5042
39954SOL     OW26911   4.346   8.472   8.911  0.6893 -0.0284 -0.4432
39954SOL    HW126912   4.274   8.415   8.883  1.1990 -1.1596  0.4530
39954SOL    HW226913   4.310   8.522   8.984  0.4040  0.4193 -0.8845
39955SOL     OW26914  11.292   6.556   4.687 -0.3202 -0.4645 -0.3012
39955SOL    HW126915  11.338   6.631   4.650 -0.7100 -0.5479 -0.9819
39955SOL    HW226916  11.305   6.563   4.781  0.1042  0.1529 -0.4017
39956SOL     OW26917   3.530   6.250   2.411 -0.1648 -0.0235  0.3126
39956SOL    HW126918   3.622   6.244   2.439 -0.2749  0.0769  0.7023
39956SOL    HW226919   3.533   6.301   2.331  0.0651  0.4593  0.6231
39957SOL     OW26920   8.813   8.080   2.398 -0.4875 -0.0078 -0.3386
39957SOL    HW126921   8.834   8.057   2.307  1.1888  2.3096 -0.6291
39957SOL    HW226922   8.857   8.013   2.450  0.6549  0.0401 -1.1969
39958SOL     OW26923   0.630   9.902  12.282  0.3098 -0.4987 -0.4214
39958SOL    HW126924   0.674   9.831  12.329 -0.2716 -0.4731  0.1749
39958SOL    HW226925   0.651   9.887  12.190  0.5534 -1.1891 -0.2559
39959SOL     OW26926   4.365   2.712   3.099 -0.5901 -0.2921 -0.1933
39959SOL    HW126927   4.354   2.648   3.169 -1.2645 -1.4055 -1.2810
39959SOL    HW226928   4.447   2.687   3.056  0.2078  0.8332  0.6222
39960SOL     OW26929   0.175  11.207   8.043 -0.3304  0.1586 -0.1460
39960SOL    HW126930   0.124  11.284   8.016  2.9639  2.0895 -1.5729
39960SOL    HW226931   0.228  11.186   7.965  0.6405 -2.0149  1.0281
39961SOL     OW26932   8.548   3.355   7.978  0.2981  0.7056 -0.2187
39961SOL    HW126933   8.503   3.270   7.976  0.0546  0.5374  3.5787
39961SOL    HW226934   8.639   3.334   7.960  0.5015 -0.7394  1.9724
39962SOL     OW26935   4.689   9.142  11.186  0.0177 -0.0109  0.0147
39962SOL    HW126936   4.628   9.216  11.196  0.2897  0.1548  0.4463
39962SOL    HW226937   4.667   9.106  11.100  0.6694  1.2947 -0.7313
39963SOL     OW26938   6.899   9.670   1.932  0.1159  0.2360 -0.0385
39963SOL    HW126939   6.871   9.758   1.908 -0.4148  0.0688 -0.0451
39963SOL    HW226940   6.995   9.675   1.932  0.0896  1.0312  0.7972
39964SOL     OW26941   3.289  12.391  12.294  0.3214  0.3453 -0.7355
39964SOL    HW126942   3.292  12.433  12.208  2.4807 -0.8377 -1.3090
39964SOL    HW226943   3.294  12.297  12.275 -0.7844 -0.0414  0.6526
39965SOL     OW26944   6.815   0.931   0.901  1.5287  0.2484  0.2163
39965SOL    HW126945   6.817   0.970   0.989 -2.1566  0.6513  0.2838
39965SOL    HW226946   6.764   0.851   0.912  1.2112  0.1842 -1.5251
39966SOL     OW26947   8.098   6.647   1.137  0.2418  0.6783  0.3963
39966SOL    HW126948   8.111   6.601   1.054  0.1845 -0.8667  1.2178
39966SOL    HW226949   8.131   6.587   1.203 -2.5299  0.5033  1.7757
39967SOL     OW26950   2.215  11.370   8.196  0.9790  0.2310  0.0068
39967SOL    HW126951   2.248  11.281   8.191  0.8616  0.2082 -0.4715
39967SOL    HW226952   2.120  11.360   8.209  1.1917  0.2961  1.8078
39968SOL     OW26953   6.012   9.720   2.681 -0.5928  0.3134  0.1090
39968SOL    HW126954   6.007   9.722   2.777  0.1918 -1.1641  0.2143
39968SOL    HW226955   6.042   9.807   2.657  0.7905  0.2282  1.3574
39969SOL     OW26956   8.480   5.131   4.185  0.0304 -0.5815  0.2363
39969SOL    HW126957   8.416   5.114   4.116 -0.5216 -0.2362  0.6601
39969SOL    HW226958   8.481   5.051   4.238 -0.6786 -0.2765  0.7245
39970SOL     OW26959   9.382   8.566  11.250  0.7524  0.3547  0.6353
39970SOL    HW126960   9.295   8.600  11.234  1.1814  0.4976 -1.6858
39970SOL    HW226961   9.382   8.479  11.210  1.4196 -0.0293  1.4229
39971SOL     OW26962   3.395   0.305   4.251  0.1657  0.5847  0.0663
39971SOL    HW126963   3.460   0.361   4.209  0.1124  0.3538 -0.3275
39971SOL    HW226964   3.444   0.261   4.321  0.5584  0.0650 -0.5169
39972SOL     OW26965   5.797   3.667  12.114 -0.5793  0.0366  0.0142
39972SOL    HW126966   5.774   3.715  12.194  1.0084  1.0249 -0.0646
39972SOL    HW226967   5.883   3.629  12.133  0.7880  1.9664 -1.8342
39973SOL     OW26968   8.691   9.242   3.986 -0.2547  0.9826  0.6519
39973SOL    HW126969   8.597   9.233   3.972  0.2320 -0.3506 -2.5306
39973SOL    HW226970   8.725   9.153   3.974  1.6031  1.8043 -0.5563
39974SOL     OW26971   3.707   7.934   6.545  0.2619  0.1702 -0.2135
39974SOL    HW126972   3.791   7.969   6.517  0.2437  1.0121  0.7317
39974SOL    HW226973   3.642   7.988   6.500  0.2354  0.6831  0.4255
39975SOL     OW26974   2.215  10.256   9.400  0.0298 -0.1072 -0.0994
39975SOL    HW126975   2.196  10.223   9.488 -2.3823 -1.8871 -1.1707
39975SOL    HW226976   2.308  10.239   9.387  0.1851 -0.7923  1.7209
39976SOL     OW26977   6.702  11.301   5.708  0.0480 -0.0679 -0.4191
39976SOL    HW126978   6.638  11.237   5.677  1.2143 -1.3407 -0.2880
39976SOL    HW226979   6.706  11.367   5.638 -0.9847 -0.2498 -0.6678
39977SOL     OW26980   7.202   8.031   2.026  0.4704  0.5992 -0.2392
39977SOL    HW126981   7.245   7.963   1.974 -0.0384  0.7384 -0.8443
39977SOL    HW226982   7.209   8.111   1.973 -1.4270  0.4183 -0.8262
39978SOL     OW26983   4.810   3.642   3.171  0.0840 -0.1958 -0.6597
39978SOL    HW126984   4.730   3.600   3.203  0.6139 -0.1651  0.7902
39978SOL    HW226985   4.829   3.598   3.088 -1.1224 -0.5856 -0.7433
39979SOL     OW26986   1.469   4.285   7.289  0.4493  0.3448  0.1137
39979SOL    HW126987   1.558   4.315   7.275  1.1159 -0.6768  1.8033
39979SOL    HW226988   1.477   4.215   7.353 -1.3343 -1.4276 -1.4585
39980SOL     OW26989   7.501   1.791   9.442  0.0042 -0.2472 -0.3963
39980SOL    HW126990   7.506   1.730   9.368 -1.2018  1.4861 -2.0033
39980SOL    HW226991   7.492   1.877   9.401 -1.0317  0.7514  1.7780
39981SOL     OW26992   0.189   6.316  11.202 -0.2263 -0.3213 -0.2991
39981SOL    HW126993   0.173   6.356  11.116  0.6667 -0.6963 -0.6490
39981SOL    HW226994   0.227   6.231  11.182 -1.1097 -0.9054  0.4637
39982SOL     OW26995   1.432  10.018   7.867 -0.0032  0.5796  0.4205
39982SOL    HW126996   1.370  10.089   7.879 -0.9812 -0.1564 -0.1757
39982SOL    HW226997   1.489  10.022   7.944 -0.2313  1.8084  0.5350
39983SOL     OW26998   1.005  11.608   4.762 -0.3214  0.1704  0.5590
39983SOL    HW126999   0.911  11.614   4.778 -0.0366  1.5008  1.9557
39983SOL    HW227000   1.028  11.689   4.717  0.2203  0.0904  0.6741
39984SOL     OW27001   4.065   1.322   6.499  0.0850 -0.2847  0.8317
39984SOL    HW127002   3.977   1.327   6.535  0.7288 -0.3557  2.4825
39984SOL    HW227003   4.109   1.399   6.533  0.8460 -0.5660  0.5019
39985SOL     OW27004  12.328   9.289  12.144 -0.1832  0.1117  0.1241
39985SOL    HW127005  12.276   9.216  12.175  1.5139 -0.5188  1.7052
39985SOL    HW227006  12.416   9.253  12.135 -0.3476  0.3668 -5.2085
39986SOL     OW27007  10.111   7.736   3.436 -0.2453  0.0271  0.0631
39986SOL    HW127008  10.141   7.826   3.423 -1.1709  0.3689  0.2060
39986SOL    HW227009  10.018   7.738   3.411 -0.7278 -0.4858  1.7057
39987SOL     OW27010  11.330  12.393   2.480 -0.2821 -0.2795  0.1352
39987SOL    HW127011  11.344  12.487   2.493 -1.9554  0.3217 -1.9747
39987SOL    HW227012  11.267  12.368   2.548 -1.7643  0.7188 -0.8234
39988SOL     OW27013  12.577   1.398   7.366 -0.5120  0.3516  0.4099
39988SOL    HW127014  12.509   1.401   7.433 -0.6295  1.0611  0.2694
39988SOL    HW227015  12.658   1.418   7.412 -0.3972 -0.4435  0.5681
39989SOL     OW27016   4.602   1.115   1.271  0.6182  0.0069 -0.0734
39989SOL    HW127017   4.683   1.104   1.221  1.2749 -0.0274  0.9710
39989SOL    HW227018   4.595   1.035   1.322 -0.2401 -0.1152 -0.3725
39990SOL     OW27019   2.847   4.381  11.559  0.0094 -0.8705  0.0270
39990SOL    HW127020   2.777   4.317  11.567  1.7420 -2.9811 -0.8927
39990SOL    HW227021   2.899   4.370  11.639 -0.5706  0.5906  0.6458
39991SOL     OW27022  11.716   4.588   6.225  0.0735 -0.2753  0.1075
39991SOL    HW127023  11.629   4.547   6.217 -1.0453  1.8205  0.8221
39991SOL    HW227024  11.704   4.658   6.290  2.9241 -1.4633  2.1459
39992SOL     OW27025   7.782   4.023   4.887  0.3923  0.1577 -0.0542
39992SOL    HW127026   7.722   4.063   4.825 -0.3698 -3.2530 -1.7469
39992SOL    HW227027   7.867   4.064   4.869 -0.6833  2.5458 -0.0276
39993SOL     OW27028   1.309   6.435   3.881 -0.1271 -0.7082  0.5234
39993SOL    HW127029   1.317   6.378   3.957 -1.0489  1.7940  2.6516
39993SOL    HW227030   1.356   6.515   3.905 -1.2129  0.5152 -1.1537
39994SOL     OW27031  11.368   8.594   2.725 -0.1381  0.3307  0.0710
39994SOL    HW127032  11.409   8.673   2.760  1.0661  0.4731 -1.5666
39994SOL    HW227033  11.431   8.524   2.743 -0.2831  0.1050 -0.2768
39995SOL     OW27034   6.851   9.225   9.537 -0.0565  0.2930 -0.0300
39995SOL    HW127035   6.821   9.203   9.449 -0.8746  1.1176  0.0264
39995SOL    HW227036   6.770   9.232   9.589  0.2921  1.4732  0.3896
39996SOL     OW27037   6.001   1.399   0.614 -0.1160  0.2794  0.3043
39996SOL    HW127038   5.914   1.361   0.617 -0.7700  1.7894  1.2627
39996SOL    HW227039   6.053   1.345   0.674 -0.5205 -0.2478  0.1889
39997SOL     OW27040   2.134  12.124   9.155  0.3775  0.0210 -0.0396
39997SOL    HW127041   2.043  12.126   9.184  0.2670 -0.9823 -0.2587
39997SOL    HW227042   2.162  12.215   9.155 -0.7808  0.3877 -0.4562
39998SOL     OW27043  10.601   6.049   9.818  0.1327 -0.3217 -0.4315
39998SOL    HW127044  10.675   6.104   9.842 -1.9083  2.6157 -0.3519
39998SOL    HW227045  10.559   6.026   9.901 -0.1249 -0.3128 -0.5576
39999SOL     OW27046   7.735  12.590   3.011 -0.1224 -0.3163  0.0878
39999SOL    HW127047   7.673  12.614   3.080 -1.2855 -0.3145 -0.9155
39999SOL    HW227048   7.692  12.617   2.930 -0.0593 -2.8343 -0.8710
40000SOL     OW27049   0.297   4.435   2.746  0.3780  0.1618 -0.3702
40000SOL    HW127050   0.252   4.514   2.714 -1.2006 -0.3861  0.4029
40000SOL    HW227051   0.360   4.415   2.678  0.1459  1.5480 -1.0443
40001SOL     OW27052   0.496   4.896   7.881 -0.4155  0.2344 -0.8604
40001SOL    HW127053   0.527   4.844   7.956 -0.0294 -1.5303 -2.1706
40001SOL    HW227054   0.481   4.983   7.917  0.6612 -0.3068  1.0624
40002SOL     OW27055   5.968   6.108   4.812 -0.6741  0.1893  0.0271
40002SOL    HW127056   5.993   6.151   4.731 -1.2626  0.8414  0.1861
40002SOL    HW227057   6.048   6.110   4.866 -0.1875 -0.5412 -0.6427
40003SOL     OW27058   2.452   2.234   3.055 -0.0629  0.1722  0.0675
40003SOL    HW127059   2.398   2.293   3.108  1.1113 -0.3651  1.9573
40003SOL    HW227060   2.541   2.267   3.065  0.3733 -0.8352 -0.3750
40004SOL     OW27061   8.269   5.001   8.636  0.5310 -0.0934 -0.0503
40004SOL    HW127062   8.216   4.948   8.696  1.5549 -1.6950 -0.4939
40004SOL    HW227063   8.346   5.025   8.688  0.4628  0.2714 -0.1138
40005SOL     OW27064   5.575  11.225   8.262  0.1497  0.1920 -0.1516
40005SOL    HW127065   5.642  11.286   8.231  1.1100 -1.2398 -1.0320
40005SOL    HW227066   5.622  11.164   8.319 -0.3937 -0.7916 -0.7289
40006SOL     OW27067   3.072   6.311   3.521  0.2950  0.3229  0.1546
40006SOL    HW127068   3.095   6.325   3.429  1.1929  2.6724  0.6559
40006SOL    HW227069   3.070   6.399   3.559 -0.4103 -0.5533  2.3194
40007SOL     OW27070   7.892   6.462   9.072 -0.0690 -0.1815 -0.6127
40007SOL    HW127071   7.832   6.530   9.102  0.8899  1.0865 -1.4234
40007SOL    HW227072   7.849   6.424   8.995 -1.2241 -1.4693  0.6235
40008SOL     OW27073  11.209   2.996   3.495  0.1483  0.0028 -0.0141
40008SOL    HW127074  11.207   3.006   3.400 -1.3975 -0.6081 -0.0785
40008SOL    HW227075  11.148   3.062   3.528  0.1740 -0.2257  0.5062
40009SOL     OW27076   4.768   4.238   4.660 -0.0236  0.5550  0.0249
40009SOL    HW127077   4.769   4.150   4.696 -1.9911  0.5376  0.1036
40009SOL    HW227078   4.856   4.272   4.677 -0.1118 -0.3324  2.6265
40010SOL     OW27079   5.720   3.331   7.946 -0.6066  0.3053 -0.4459
40010SOL    HW127080   5.732   3.243   7.981 -0.7694  0.6159  0.4111
40010SOL    HW227081   5.746   3.324   7.854 -1.9462 -0.9572 -0.7684
40011SOL     OW27082   8.519   8.443   4.151 -0.1195  0.6625 -0.3515
40011SOL    HW127083   8.470   8.361   4.145  0.4546  0.3774 -1.2862
40011SOL    HW227084   8.599   8.427   4.101 -0.1223  1.8828 -0.7802
40012SOL     OW27085   1.837   5.269   5.419 -0.0266  0.1564  0.3090
40012SOL    HW127086   1.811   5.291   5.330 -0.5703  0.1720  0.4696
40012SOL    HW227087   1.929   5.297   5.425  0.9412 -2.3600 -1.1245
40013SOL     OW27088  12.352   8.073   3.103 -0.1800  0.2867  0.0381
40013SOL    HW127089  12.308   8.058   3.019  1.1180 -0.6803 -0.4988
40013SOL    HW227090  12.439   8.036   3.091  0.0346  0.1603  1.8209
40014SOL     OW27091   9.295   9.457   2.353 -0.0435  0.4274  0.2857
40014SOL    HW127092   9.231   9.461   2.424 -1.8072  0.4925 -1.2305
40014SOL    HW227093   9.262   9.389   2.294  1.7866 -0.1684 -0.1270
40015SOL     OW27094   2.847   4.525  12.591 -0.1309 -0.0551  0.0360
40015SOL    HW127095   2.919   4.472  12.626  0.5825 -0.0896 -1.4066
40015SOL    HW227096   2.845   4.602  12.648  0.0761 -0.7252  0.9891
40016SOL     OW27097   6.996   0.806   1.138  0.1279 -0.6480  0.2134
40016SOL    HW127098   7.052   0.862   1.084 -0.4657 -0.5575 -0.3157
40016SOL    HW227099   7.020   0.828   1.228 -0.1766  0.5427  0.0164
40017SOL     OW27100  10.090   5.000   9.182  0.5483  0.1762 -0.3301
40017SOL    HW127101  10.091   5.086   9.141 -0.7949  1.4475  2.0799
40017SOL    HW227102  10.005   4.995   9.225  0.4541 -2.5309 -0.6742
40018SOL     OW27103   0.269  10.997   4.469  0.4717 -0.2271 -0.1887
40018SOL    HW127104   0.237  11.087   4.463 -0.7357 -0.5772  0.5541
40018SOL    HW227105   0.309  10.992   4.556  0.0538 -0.5527 -0.0132
40019SOL     OW27106   9.182   0.219   4.931 -0.5137 -0.3454  0.3114
40019SOL    HW127107   9.113   0.183   4.986  0.4741 -0.1223  1.7725
40019SOL    HW227108   9.165   0.184   4.844 -1.6261 -1.4461  0.9419
40020SOL     OW27109  10.857   5.239   4.062  0.0158 -0.1967  0.6513
40020SOL    HW127110  10.782   5.268   4.114 -1.5890 -2.9253  0.0388
40020SOL    HW227111  10.833   5.263   3.972  0.9260  0.8688  0.6740
40021SOL     OW27112   9.621   0.942   7.874  0.1328  0.5089  0.2105
40021SOL    HW127113   9.649   0.910   7.960 -1.1203 -1.5154 -0.0510
40021SOL    HW227114   9.539   0.987   7.890 -0.1132  0.1108  0.1020
40022SOL     OW27115  11.754  11.783   3.434  0.1773 -0.3493 -0.3326
40022SOL    HW127116  11.779  11.699   3.473  0.4148  0.3132  1.0217
40022SOL    HW227117  11.770  11.772   3.341  2.0492 -1.1917  0.0361
40023SOL     OW27118   6.619   5.924   2.884  0.5152 -0.6273  0.0873
40023SOL    HW127119   6.697   5.955   2.930 -0.6072  1.0812  0.9775
40023SOL    HW227120   6.546   5.954   2.939 -0.8039 -0.9268 -1.4264
40024SOL     OW27121   9.073   7.399   8.652 -0.2579  0.3081  0.1274
40024SOL    HW127122   9.004   7.343   8.617 -0.1916 -0.4985  1.2249
40024SOL    HW227123   9.041   7.488   8.638 -0.3475  0.0248 -1.6814
40025SOL     OW27124   3.590   4.402   0.848  0.0085 -0.3178 -0.1527
40025SOL    HW127125   3.638   4.396   0.766 -0.6549  0.2889 -0.5880
40025SOL    HW227126   3.635   4.341   0.906  0.3457 -0.9198 -1.0290
40026SOL     OW27127   3.328   7.679   5.154  0.1929 -0.0682 -0.0228
40026SOL    HW127128   3.404   7.718   5.110 -1.0663  1.2287 -1.1251
40026SOL    HW227129   3.300   7.745   5.216 -1.1994  0.3013 -1.0103
40027SOL     OW27130   6.430   9.722   9.147 -0.1125 -0.4697 -0.1588
40027SOL    HW127131   6.387   9.637   9.160 -0.2876 -0.7669 -2.3465
40027SOL    HW227132   6.367   9.786   9.179 -2.1771 -0.9091 -2.9954
40028SOL     OW27133   1.487  10.904   3.459 -0.3215 -0.5930  0.0074
40028SOL    HW127134   1.552  10.838   3.481  0.0449 -0.2126  0.0893
40028SOL    HW227135   1.405  10.871   3.495  0.2863  0.0801  2.1280
40029SOL     OW27136   1.782  11.498   6.289  0.3313 -0.2642  0.1441
40029SOL    HW127137   1.814  11.588   6.278 -0.4932  0.4669  3.0419
40029SOL    HW227138   1.835  11.462   6.361  0.2117 -1.9222 -0.5438
40030SOL     OW27139  11.916   5.658  12.129  0.4982  0.0425 -0.0396
40030SOL    HW127140  11.829   5.673  12.167  0.7449 -0.8510  0.9131
40030SOL    HW227141  11.918   5.564  12.110  1.7821 -0.2613  1.3665
40031SOL     OW27142   6.294   3.091   9.757 -0.8403  0.2026  0.0133
40031SOL    HW127143   6.285   3.173   9.709  0.0045  0.7755  0.7908
40031SOL    HW227144   6.323   3.027   9.692 -1.0809  0.6209 -0.5120
40032SOL     OW27145  11.058   3.704   3.142 -0.1317  0.4544 -0.0238
40032SOL    HW127146  11.144   3.743   3.158  0.2965 -0.1940 -0.6709
40032SOL    HW227147  11.024   3.751   3.066  0.4244 -0.4570 -0.8611
40033SOL     OW27148  11.076  10.852   2.699 -0.1650 -1.3837  0.3336
40033SOL    HW127149  11.093  10.769   2.656  0.3314 -1.3311  0.4237
40033SOL    HW227150  10.983  10.869   2.683 -0.0626 -1.5231 -0.4367
40034SOL     OW27151   8.433   1.748   5.759  0.3415  0.0657  0.0165
40034SOL    HW127152   8.358   1.770   5.703  0.7408 -1.9004 -1.4355
40034SOL    HW227153   8.498   1.815   5.740 -1.1458  2.0887  1.6556
40035SOL     OW27154   5.934   7.579   5.496  0.0706 -0.4861 -0.1913
40035SOL    HW127155   5.977   7.641   5.437 -1.3340  1.6289  0.8488
40035SOL    HW227156   5.967   7.494   5.470  0.7908  0.5080 -2.8840
40036SOL     OW27157   0.034   3.190   3.104  0.0152  0.0792 -0.2047
40036SOL    HW127158   0.021   3.206   3.010 -0.2838  2.0928  0.1289
40036SOL    HW227159   0.123   3.220   3.121  0.9729 -2.5451 -0.2461
40037SOL     OW27160   8.525   3.405   8.419  0.1189  0.4492  0.3920
40037SOL    HW127161   8.530   3.388   8.513 -0.0114  1.2483  0.5512
40037SOL    HW227162   8.486   3.326   8.382  0.4822 -0.0055  0.9670
40038SOL     OW27163   2.610   0.825   6.501  0.2948 -0.5150  0.2046
40038SOL    HW127164   2.675   0.890   6.525  0.5724 -0.4178 -0.7505
40038SOL    HW227165   2.623   0.753   6.563  0.1953  0.1997  1.0658
40039SOL     OW27166  12.287  11.403  12.460 -0.5896  0.1170 -0.1783
40039SOL    HW127167  12.312  11.322  12.416 -2.6657 -0.8334  0.2824
40039SOL    HW227168  12.347  11.409  12.534  0.0255 -0.6386 -0.5938
40040SOL     OW27169   3.213   2.525   7.143 -0.5037 -0.0666  0.1608
40040SOL    HW127170   3.142   2.464   7.164 -1.0493  0.1673 -0.9309
40040SOL    HW227171   3.172   2.611   7.142 -0.3102  0.0305 -0.8820
40041SOL     OW27172   6.344   4.574  10.588  0.3037 -0.5590 -0.4873
40041SOL    HW127173   6.372   4.540  10.672  0.7683  1.1849  0.1188
40041SOL    HW227174   6.254   4.603  10.603  0.8984  1.2266 -0.0659
40042SOL     OW27175   8.327   3.594   3.175  0.7916 -0.3362  0.3904
40042SOL    HW127176   8.333   3.525   3.241  0.0414 -1.0674 -0.2802
40042SOL    HW227177   8.415   3.597   3.136  0.7529 -1.1354  0.2156
40043SOL     OW27178  12.493   5.198   1.840  0.1576  0.0563  0.3209
40043SOL    HW127179  12.406   5.183   1.803  0.2482  1.1764 -0.3974
40043SOL    HW227180  12.553   5.179   1.768  0.5945 -1.5806  1.0626
40044SOL     OW27181  10.509  10.301   0.509 -0.1902  0.0297  0.3550
40044SOL    HW127182  10.542  10.293   0.599 -0.3102  0.1930  0.4132
40044SOL    HW227183  10.550  10.381   0.476 -0.0492 -0.0949  0.2212
40045SOL     OW27184   7.428   4.541  10.930 -0.4544  0.6133 -0.3470
40045SOL    HW127185   7.450   4.591  11.007 -2.3256  0.1606  0.5549
40045SOL    HW227186   7.434   4.449  10.958  0.3209  0.3982 -1.1832
40046SOL     OW27187   3.484   0.678   4.502 -0.1930 -0.0631 -0.1826
40046SOL    HW127188   3.462   0.694   4.411 -1.1613  1.6703  0.3074
40046SOL    HW227189   3.400   0.684   4.549  0.4381  0.2992  0.9557
40047SOL     OW27190   2.346   8.506  11.072 -0.4472 -0.3840 -0.4847
40047SOL    HW127191   2.391   8.466  11.147 -0.9678 -1.7695 -0.8913
40047SOL    HW227192   2.298   8.579  11.110  1.1216  0.3683  0.1611
40048SOL     OW27193   9.308   7.843  10.035  0.7095 -0.0609 -0.0991
40048SOL    HW127194   9.301   7.842  10.131  1.4031 -0.8227 -0.0455
40048SOL    HW227195   9.315   7.936  10.013  2.8252  0.0610  0.8052
40049SOL     OW27196   3.709   0.990   2.237  0.0057 -0.1195  0.0679
40049SOL    HW127197   3.720   0.949   2.151 -0.4171 -0.3569  0.1264
40049SOL    HW227198   3.620   1.023   2.238 -0.2089 -0.6761  0.6467
40050SOL     OW27199   8.362   8.828  12.047  0.6026 -0.4785 -0.0690
40050SOL    HW127200   8.355   8.826  11.951  1.4213 -0.0123 -0.1468
40050SOL    HW227201   8.303   8.759  12.077  0.3434 -0.6331 -0.9117
40051SOL     OW27202   9.118   3.663  12.381  0.1070 -0.0277 -0.2234
40051SOL    HW127203   9.099   3.717  12.457  3.1922 -0.1287  0.7420
40051SOL    HW227204   9.147   3.725  12.314  2.4296 -0.2754  0.4737
40052SOL     OW27205   9.128   9.704   7.083  0.1119 -0.2847 -0.0023
40052SOL    HW127206   9.057   9.748   7.130  2.7521  2.3792  1.8646
40052SOL    HW227207   9.139   9.621   7.129 -1.0845 -0.2701  0.3444
40053SOL     OW27208  10.841  11.266   5.063 -0.1446  0.0939  0.3165
40053SOL    HW127209  10.760  11.270   5.112 -0.3251 -2.3173  0.3101
40053SOL    HW227210  10.819  11.216   4.984  0.9816  0.7888 -0.4737
40054SOL     OW27211   1.241   9.967   7.062  0.5378  0.2464 -0.1798
40054SOL    HW127212   1.288   9.913   7.125 -0.5032  0.0007  0.4010
40054SOL    HW227213   1.182  10.021   7.115  1.6812  2.1337 -0.7113
40055SOL     OW27214  10.942   5.137   3.298  0.0596 -0.0030 -0.6480
40055SOL    HW127215  10.895   5.076   3.354 -0.7244  0.5096 -0.7312
40055SOL    HW227216  10.906   5.223   3.320 -0.1956  0.2260 -1.8451
40056SOL     OW27217  11.536   2.087   1.716  0.4383 -0.0601  0.2278
40056SOL    HW127218  11.470   2.037   1.668  2.9874 -2.4490 -1.0433
40056SOL    HW227219  11.538   2.047   1.803 -0.3876  0.6467  0.5866
40057SOL     OW27220   3.794   3.377   2.662 -0.6824 -0.0305 -0.0563
40057SOL    HW127221   3.708   3.418   2.657 -0.2868  0.8547  0.2758
40057SOL    HW227222   3.778   3.292   2.703 -1.2630  0.5300  0.8923
40058SOL     OW27223   3.298   9.550   4.802  0.2140 -0.2067 -0.2986
40058SOL    HW127224   3.374   9.565   4.745  0.9638 -1.0737  0.4333
40058SOL    HW227225   3.306   9.615   4.871  0.6963 -0.7409  0.1596
40059SOL     OW27226  10.502   3.790  11.527  0.1671 -0.0057 -0.0991
40059SOL    HW127227  10.498   3.788  11.623 -1.0697  0.5181 -0.1143
40059SOL    HW227228  10.477   3.879  11.504  1.0207  0.0379 -0.9052
40060SOL     OW27229   4.913   1.713   9.456  0.2724  0.3635  0.1774
40060SOL    HW127230   4.831   1.756   9.482  0.9970  1.6806  0.3528
40060SOL    HW227231   4.933   1.654   9.529  0.0297  0.8302  0.6308
40061SOL     OW27232   0.611  10.568   4.886  0.1484 -0.0317  0.5908
40061SOL    HW127233   0.580  10.652   4.853  2.6059  0.2755 -1.1970
40061SOL    HW227234   0.600  10.574   4.981 -0.2493  2.0675  0.4608
40062SOL     OW27235   8.500  10.843   5.980 -0.3123 -0.0733  0.0132
40062SOL    HW127236   8.549  10.856   6.062  1.9193 -1.3379 -1.0249
40062SOL    HW227237   8.555  10.784   5.929 -1.8074  0.4175 -2.2898
40063SOL     OW27238   7.276  11.078   3.324 -0.0767  0.4483 -0.3243
40063SOL    HW127239   7.239  11.104   3.409  1.9204  1.7919  0.1972
40063SOL    HW227240   7.209  11.104   3.260 -0.5229  1.8112  0.6503
40064SOL     OW27241   7.325  10.005   3.992 -0.2137 -0.0206  0.4934
40064SOL    HW127242   7.412  10.012   4.031 -0.3862  1.6442  0.6512
40064SOL    HW227243   7.310   9.911   3.983  1.8376 -0.3337 -0.1024
40065SOL     OW27244   1.388   6.511   0.891 -0.8251  0.7208  0.5310
40065SOL    HW127245   1.405   6.601   0.921  1.6668  1.0307 -1.4767
40065SOL    HW227246   1.475   6.474   0.876 -1.8213 -1.6252  0.0830
40066SOL     OW27247   8.325  10.128  10.158 -0.2940  0.0926  0.3287
40066SOL    HW127248   8.368  10.093  10.236  0.6745  1.0733  0.2577
40066SOL    HW227249   8.372  10.209  10.139  0.4333 -0.7968 -2.0845
40067SOL     OW27250  10.854   4.733   6.127  0.0043 -0.0814 -0.6485
40067SOL    HW127251  10.851   4.700   6.037 -0.4066  1.3838 -1.2055
40067SOL    HW227252  10.867   4.828   6.117 -0.9381  0.2323  0.8158
40068SOL     OW27253   1.568   2.653   7.995 -0.1375  0.4569 -0.2654
40068SOL    HW127254   1.640   2.709   7.967  0.1742 -0.2189 -0.8275
40068SOL    HW227255   1.521   2.633   7.915 -0.9508  0.8720  0.0910
40069SOL     OW27256   3.793   6.057   0.643  0.7124  0.3381  0.1669
40069SOL    HW127257   3.710   6.038   0.686  1.3033  0.5718  1.4545
40069SOL    HW227258   3.858   6.008   0.693  1.3089 -0.2699 -1.1401
40070SOL     OW27259   7.771   6.464  11.843  0.3877 -0.1812 -0.6861
40070SOL    HW127260   7.735   6.550  11.862  2.2103  0.6421 -0.7470
40070SOL    HW227261   7.809   6.435  11.926 -2.1223 -1.9800 -0.0444
40071SOL     OW27262   8.553  11.612   6.352  0.5161 -0.0638 -0.0175
40071SOL    HW127263   8.623  11.565   6.398  1.6608 -1.5861 -3.0777
40071SOL    HW227264   8.472  11.577   6.391  1.3986 -2.3063 -0.0540
40072SOL     OW27265   4.032   9.556   6.427 -0.5955 -0.5533  0.0185
40072SOL    HW127266   3.995   9.468   6.434 -0.5988 -0.5783 -0.2932
40072SOL    HW227267   4.059   9.563   6.336 -0.4735 -0.2781  0.0752
40073SOL     OW27268   5.600   9.643   0.484  0.7282  0.3401 -0.7233
40073SOL    HW127269   5.574   9.574   0.545  2.5200  0.4237  0.2072
40073SOL    HW227270   5.560   9.723   0.519 -0.8680 -0.0992 -1.4767
40074SOL     OW27271   4.166   4.895   4.010 -0.0007  0.1099  0.2329
40074SOL    HW127272   4.110   4.926   3.939  2.0077 -1.4258 -2.2046
40074SOL    HW227273   4.255   4.918   3.982  0.9355 -1.4030  1.7685
40075SOL     OW27274   2.499   3.626   6.254  0.0082 -0.6535 -0.4057
40075SOL    HW127275   2.463   3.600   6.170  1.3506 -0.1298 -1.1642
40075SOL    HW227276   2.422   3.649   6.307 -0.7822  1.2831 -2.2452
40076SOL     OW27277   4.296   3.198  12.145  0.3412 -0.4275 -0.2057
40076SOL    HW127278   4.295   3.287  12.179  1.7573 -0.2884 -0.4942
40076SOL    HW227279   4.299   3.208  12.050 -0.9698 -0.8087 -0.3089
40077SOL     OW27280  10.516   9.292   8.142 -0.0523  0.0018 -0.4547
40077SOL    HW127281  10.444   9.328   8.091 -0.8119  2.6330  2.2149
40077SOL    HW227282  10.583   9.361   8.140  0.6102 -0.5823  0.6104
40078SOL     OW27283   9.080  11.761  11.783 -0.9049 -0.4779 -0.0949
40078SOL    HW127284   9.105  11.738  11.694  0.0080 -1.0111  0.2908
40078SOL    HW227285   8.984  11.758  11.783 -0.9200 -0.1348 -1.1363
40079SOL     OW27286   3.237   8.893   2.600 -0.0028  0.4282  0.4302
40079SOL    HW127287   3.262   8.979   2.567 -1.0880 -0.0109 -1.7137
40079SOL    HW227288   3.141   8.897   2.608 -0.0374 -0.4750  0.6240
40080SOL     OW27289   4.140   1.754   5.107 -0.5768 -0.1106  0.1910
40080SOL    HW127290   4.074   1.772   5.173 -0.8429  1.1751 -0.3858
40080SOL    HW227291   4.092   1.752   5.024 -0.0260 -0.0737 -0.1353
40081SOL     OW27292   0.408   6.158  11.517 -0.4308  0.4879  0.3873
40081SOL    HW127293   0.503   6.155  11.521 -0.4084  1.4410  0.9611
40081SOL    HW227294   0.387   6.251  11.511 -1.4132  0.5815  3.3974
40082SOL     OW27295   7.023   9.647  12.331  0.2411 -0.3146  0.4275
40082SOL    HW127296   6.985   9.717  12.385 -3.1000 -0.7895 -1.0180
40082SOL    HW227297   7.055   9.693  12.253  1.4523 -0.0664  1.0434
40083SOL     OW27298  10.750   1.590  11.433 -0.5912 -0.1929 -0.1058
40083SOL    HW127299  10.690   1.557  11.500 -1.7091  1.5413 -0.1983
40083SOL    HW227300  10.815   1.520  11.423 -2.2527 -1.9043  0.4068
40084SOL     OW27301  10.898   6.238   3.184  0.6366  0.0585  0.1701
40084SOL    HW127302  10.991   6.219   3.179  1.1884  2.6047 -0.9874
40084SOL    HW227303  10.890   6.306   3.251 -0.7382 -1.5554  1.7678
40085SOL     OW27304   9.865   7.382   5.926  0.2205 -0.4000  0.3610
40085SOL    HW127305   9.950   7.358   5.889  1.0137  2.5223  0.1068
40085SOL    HW227306   9.846   7.311   5.988  1.5428 -2.4728 -1.4325
40086SOL     OW27307   7.985   1.575   7.562  0.1817  0.4178  0.3079
40086SOL    HW127308   7.934   1.496   7.543  0.1639  0.7307 -1.0462
40086SOL    HW227309   8.015   1.563   7.652 -0.2942 -0.8662  0.3178
40087SOL     OW27310   0.984   5.713   9.291 -0.1962 -0.6901 -0.2108
40087SOL    HW127311   0.928   5.640   9.319 -1.2527 -0.2803 -1.1996
40087SOL    HW227312   1.003   5.761   9.372 -2.9154  0.2963 -0.0543
40088SOL     OW27313  10.350   9.832  10.878 -0.2238  0.8091 -0.2871
40088SOL    HW127314  10.301   9.913  10.888 -0.6058  0.4053  1.5055
40088SOL    HW227315  10.440   9.854  10.901 -0.3029  0.7631  0.0738
40089SOL     OW27316   8.853   6.141   9.459 -0.0752 -0.3366 -0.3331
40089SOL    HW127317   8.894   6.055   9.453 -1.6005 -1.1137 -0.1780
40089SOL    HW227318   8.912   6.200   9.412  0.8820 -1.5024 -0.6247
40090SOL     OW27319   9.999   1.923   8.502 -1.0448  0.2422 -0.0473
40090SOL    HW127320   9.977   1.865   8.575  2.1125 -0.7284  0.2805
40090SOL    HW227321   9.979   1.871   8.424  1.1986 -1.2502  0.2424
40091SOL     OW27322  10.037  10.037  10.270  0.4552 -0.2450  0.2523
40091SOL    HW127323  10.058   9.966  10.209 -0.5098  0.8570 -1.4589
40091SOL    HW227324  10.016  10.111  10.213  1.1142  1.3301  1.9754
40092SOL     OW27325  10.381   7.303   0.416  0.1296 -0.1846  0.3780
40092SOL    HW127326  10.307   7.364   0.412 -0.2479 -0.6540  0.0323
40092SOL    HW227327  10.359   7.234   0.352  1.3118  0.1661 -0.4551
40093SOL     OW27328   7.995   6.285   0.615  0.5993  0.9516 -0.5971
40093SOL    HW127329   7.927   6.291   0.548  0.4141 -1.5223 -0.7290
40093SOL    HW227330   8.076   6.269   0.566  0.3253 -1.8106 -0.3353
40094SOL     OW27331   8.950   2.341   1.919  0.2748  0.3010  0.7861
40094SOL    HW127332   8.944   2.315   1.827 -0.9360 -0.4809  1.0628
40094SOL    HW227333   8.954   2.258   1.967  1.0684  0.7071  1.4415
40095SOL     OW27334   4.955   0.425  10.689  0.2087 -0.2390 -0.0611
40095SOL    HW127335   4.917   0.426  10.777 -1.8706  0.9720 -0.8957
40095SOL    HW227336   5.041   0.464  10.700  1.0553 -2.4111  1.8009
40096SOL     OW27337  12.005   5.532   2.209  0.4874  0.1658 -0.4908
40096SOL    HW127338  12.035   5.608   2.258  1.0906  0.7284 -1.7071
40096SOL    HW227339  12.047   5.457   2.252  1.9793  0.7573 -0.8910
40097SOL     OW27340   5.708   1.524   7.737  0.1266 -0.4337  0.1535
40097SOL    HW127341   5.690   1.458   7.804  1.1453 -0.9002 -0.0158
40097SOL    HW227342   5.640   1.511   7.672 -0.7612 -0.1050  0.9916
40098SOL     OW27343   8.530   4.787   5.576 -0.3878  0.6650 -0.0922
40098SOL    HW127344   8.552   4.695   5.567  0.3849  0.6530  1.5616
40098SOL    HW227345   8.613   4.833   5.562 -0.5411  1.0325  0.1891
40099SOL     OW27346  12.472   3.747   6.104 -0.2597 -0.4240  0.1962
40099SOL    HW127347  12.482   3.841   6.119  0.0434 -0.4128 -0.0494
40099SOL    HW227348  12.384   3.727   6.134  0.5069 -0.5202  2.5261
40100SOL     OW27349   5.871   0.431  11.264 -0.6776 -0.0601  0.3890
40100SOL    HW127350   5.849   0.399  11.177  0.2497  0.9355 -0.2438
40100SOL    HW227351   5.860   0.526  11.258  2.0343  0.3483  0.4796
40101SOL     OW27352   8.578  10.646  11.885 -0.1010 -0.6742  0.4889
40101SOL    HW127353   8.491  10.684  11.869 -0.3009 -1.4556 -0.3976
40101SOL    HW227354   8.639  10.718  11.870 -0.5584 -0.3136  0.3544
40102SOL     OW27355   5.970   8.349  10.284  0.3320 -0.4401  0.2910
40102SOL    HW127356   5.972   8.387  10.196 -1.3025 -0.0853  0.3725
40102SOL    HW227357   5.985   8.255  10.270  2.8958 -0.0660 -0.0493
40103SOL     OW27358   9.124   1.837   2.767  0.1972 -0.0072  0.1249
40103SOL    HW127359   9.117   1.765   2.829 -0.3430  1.2719  1.6357
40103SOL    HW227360   9.210   1.875   2.785  0.8307 -0.7296 -1.2329
40104SOL     OW27361   2.227   1.543   9.246 -0.5332  0.0755  0.7222
40104SOL    HW127362   2.248   1.600   9.172 -1.4887  1.1455  1.2494
40104SOL    HW227363   2.132   1.554   9.258 -0.3435  0.1386  2.2932
40105SOL     OW27364   4.952   8.466   3.413 -0.0094  0.5896  0.6752
40105SOL    HW127365   4.971   8.372   3.417  0.1614  0.6129  0.4573
40105SOL    HW227366   5.018   8.501   3.352  1.3622  1.2181  2.4295
40106SOL     OW27367   7.969   9.791   3.214 -0.1335 -0.2459 -0.1750
40106SOL    HW127368   7.995   9.699   3.210  1.6435  0.2415 -0.6293
40106SOL    HW227369   7.968   9.820   3.123  1.9434  0.8326  0.0910
40107SOL     OW27370   3.492   2.285  11.954  0.3027  0.3641  0.0186
40107SOL    HW127371   3.437   2.224  11.906  0.1143  1.8245 -1.7164
40107SOL    HW227372   3.581   2.256  11.936  0.1915 -0.1843  0.3224
40108SOL     OW27373   1.771   2.096   5.036  0.2524  0.3257 -0.8142
40108SOL    HW127374   1.837   2.056   5.094  0.9435 -0.4397 -2.0875
40108SOL    HW227375   1.803   2.185   5.022 -0.7055  1.0335  1.1380
40109SOL     OW27376   0.832   5.830   0.697 -0.5253 -0.3164  0.9514
40109SOL    HW127377   0.859   5.778   0.773  0.4314 -1.6814 -0.2806
40109SOL    HW227378   0.856   5.920   0.720  0.1470 -0.7594  2.0766
40110SOL     OW27379   4.452  11.855   9.512 -0.0185  0.3008  0.0088
40110SOL    HW127380   4.400  11.848   9.431  2.0072 -2.3661 -1.2001
40110SOL    HW227381   4.397  11.815   9.579 -1.5816  2.2209 -0.0383
40111SOL     OW27382   4.635   8.330   1.027 -0.3552  1.0262  0.5518
40111SOL    HW127383   4.564   8.348   1.089 -0.4147  1.3698  0.3853
40111SOL    HW227384   4.715   8.335   1.080 -0.5252 -0.5532  0.9954
40112SOL     OW27385  10.423   9.414   9.512  0.0743 -0.3488  0.4816
40112SOL    HW127386  10.473   9.337   9.539  1.3279  0.4942  0.6750
40112SOL    HW227387  10.443   9.424   9.419 -1.1566 -1.0149  0.1323
40113SOL     OW27388   3.732  11.313  12.170  0.0839 -0.5400 -0.6168
40113SOL    HW127389   3.651  11.316  12.222  1.0317  0.8679  0.8997
40113SOL    HW227390   3.792  11.261  12.224  0.9854  0.6720 -0.4129
40114SOL     OW27391   6.904   1.282  10.105 -0.6286 -0.8701 -0.2709
40114SOL    HW127392   6.887   1.246  10.018 -2.6477  0.5903 -0.5481
40114SOL    HW227393   6.952   1.363  10.088 -1.8648 -0.0924 -0.1093
40115SOL     OW27394   7.705  12.487   1.561 -0.3458  0.1361 -0.5779
40115SOL    HW127395   7.696  12.574   1.522 -0.7035  0.5834  0.4772
40115SOL    HW227396   7.759  12.439   1.499 -2.0101  0.3860 -2.3496
40116SOL     OW27397   9.307   0.704   0.054  0.4354 -0.4114 -0.1656
40116SOL    HW127398   9.305   0.662  -0.032  0.6358 -0.5883 -0.0847
40116SOL    HW227399   9.389   0.674   0.094 -0.0888 -1.0582  0.4523
40117SOL     OW27400   3.368   8.954   4.138 -0.3331 -0.4010  0.4038
40117SOL    HW127401   3.310   8.894   4.090 -0.8319  0.1480  0.2990
40117SOL    HW227402   3.326   8.962   4.224 -0.2420 -0.2397  0.4317
40118SOL     OW27403   9.029   6.662   8.754  0.3492 -0.2331 -0.1991
40118SOL    HW127404   9.036   6.680   8.848 -1.5576  0.6844 -0.1850
40118SOL    HW227405   9.091   6.591   8.739  1.1800  0.0289  1.6145
40119SOL     OW27406   3.846   7.219   2.744 -0.3852  0.0960  0.0523
40119SOL    HW127407   3.921   7.217   2.803 -0.7598 -0.4191  0.5139
40119SOL    HW227408   3.825   7.127   2.728  0.7109  0.1460 -2.1948
40120SOL     OW27409  10.716   6.342   1.986  0.1227  0.3727 -0.1718
40120SOL    HW127410  10.787   6.398   1.957 -0.2412  0.1463 -1.5536
40120SOL    HW227411  10.748   6.304   2.069  0.5438  2.2265  0.5628
40121SOL     OW27412  11.466   9.962  10.708  0.2409 -0.1846 -0.2321
40121SOL    HW127413  11.376   9.930  10.715 -0.1914  0.5891 -1.8827
40121SOL    HW227414  11.470  10.006  10.623  1.9795  0.4512  0.1350
40122SOL     OW27415   8.701   0.452   0.541  0.1453 -0.3053 -0.7159
40122SOL    HW127416   8.661   0.536   0.521  1.0424  0.6770  1.3808
40122SOL    HW227417   8.635   0.404   0.589  0.3733  0.0696 -0.0198
40123SOL     OW27418   4.540   2.753   1.070 -0.3297 -0.2400  0.1930
40123SOL    HW127419   4.501   2.666   1.061 -1.1268  0.2419 -1.4189
40123SOL    HW227420   4.474   2.804   1.116 -0.3888 -0.1787  0.0426
40124SOL     OW27421   4.686   7.244   9.523  0.5495  0.4275  0.3319
40124SOL    HW127422   4.775   7.275   9.505  0.9660 -0.5183  0.7136
40124SOL    HW227423   4.698   7.160   9.566 -0.5702 -0.6819 -1.4191
40125SOL     OW27424   6.427   4.945   7.260  0.7042  0.2723  0.1305
40125SOL    HW127425   6.515   4.978   7.245 -0.1042  2.5531  0.0920
40125SOL    HW227426   6.371   4.997   7.203 -0.8052 -0.4038  0.9225
40126SOL     OW27427   3.702   9.607   0.006 -0.4577 -0.0266  0.2014
40126SOL    HW127428   3.714   9.623  -0.088  0.1137 -1.9156 -0.0908
40126SOL    HW227429   3.774   9.655   0.048  0.1416 -0.3052 -0.4720
40127SOL     OW27430   0.798  10.347  11.652  0.4888  0.3087 -0.3778
40127SOL    HW127431   0.834  10.293  11.722 -1.4996  0.1004  0.5616
40127SOL    HW227432   0.820  10.437  11.677  1.4557  0.1266 -0.5274
40128SOL     OW27433   1.512   7.798  11.791  0.0697  0.4779 -0.6049
40128SOL    HW127434   1.575   7.830  11.727 -1.3428  3.4134 -0.6661
40128SOL    HW227435   1.441   7.761  11.738  0.8088 -1.0946 -0.5651
40129SOL     OW27436   9.019   4.396  11.853  0.6231 -0.1519 -0.5053
40129SOL    HW127437   9.007   4.488  11.826  0.7448 -0.1737 -0.6323
40129SOL    HW227438   8.939   4.376  11.902  1.0135  0.3183  0.3413
40130SOL     OW27439   9.689   6.947   8.037  0.1308  0.2627  0.0582
40130SOL    HW127440   9.775   6.972   8.002  0.5720 -1.1333  0.0919
40130SOL    HW227441   9.706   6.925   8.129 -0.1471 -0.5205 -0.0663
40131SOL     OW27442   6.410   0.695   4.576 -0.0254  0.2793  0.1476
40131SOL    HW127443   6.437   0.652   4.495 -0.1033 -0.5680  0.5665
40131SOL    HW227444   6.449   0.643   4.646  1.8670  2.2302  0.6540
40132SOL     OW27445  12.047   3.644   6.903 -0.4514 -0.1296 -0.2498
40132SOL    HW127446  12.020   3.687   6.822  1.3262  2.0285  0.2021
40132SOL    HW227447  12.129   3.600   6.880  0.8902  1.7920  0.6751
40133SOL     OW27448   3.915   2.214  10.299 -0.0807  0.2508 -0.5145
40133SOL    HW127449   3.877   2.137  10.340 -0.7706  0.0474 -1.5066
40133SOL    HW227450   3.908   2.282  10.366 -0.0841 -0.3643  0.1280
40134SOL     OW27451   4.588   2.372   5.132  0.0204 -0.0385  0.4219
40134SOL    HW127452   4.539   2.289   5.131  0.0120 -0.0489  1.2069
40134SOL    HW227453   4.594   2.396   5.225  2.3649 -0.5356  0.4594
40135SOL     OW27454   5.306   3.908   4.308 -0.2844  0.4415  0.1759
40135SOL    HW127455   5.260   3.966   4.247 -0.6632  0.2398  0.2655
40135SOL    HW227456   5.320   3.827   4.259  0.0768  0.5439  0.1117
40136SOL     OW27457   1.783  11.793   1.342  0.5294  0.8836  0.0638
40136SOL    HW127458   1.716  11.839   1.293 -0.2596  0.6701  0.9048
40136SOL    HW227459   1.854  11.780   1.280 -0.9068 -0.4703 -1.3767
40137SOL     OW27460   9.571   6.071   9.781 -0.1815  0.4584 -0.2644
40137SOL    HW127461   9.511   5.996   9.780  0.9052 -0.4988  1.1121
40137SOL    HW227462   9.543   6.122   9.857  0.4705  0.2262  0.1383
40138SOL     OW27463   6.776   6.160  12.033  0.0168  0.3302 -0.3970
40138SOL    HW127464   6.748   6.232  12.088 -0.4510  0.8332 -1.2641
40138SOL    HW227465   6.794   6.088  12.093 -0.4094  0.8863  0.4015
40139SOL     OW27466   8.866   7.869   4.148  0.4485  0.3632 -0.0304
40139SOL    HW127467   8.958   7.861   4.122  0.3028  2.3855 -1.4306
40139SOL    HW227468   8.846   7.962   4.136 -1.4238  0.2450  1.5727
40140SOL     OW27469   0.316   7.202   5.570 -0.8592 -0.4952 -0.3235
40140SOL    HW127470   0.397   7.199   5.621 -0.2333  0.2039 -1.2251
40140SOL    HW227471   0.315   7.119   5.522 -1.3091 -1.0319  0.6025
40141SOL     OW27472   8.646   8.666   8.902  0.4820 -1.1890 -0.1040
40141SOL    HW127473   8.638   8.762   8.906  0.7836 -1.0482 -1.9093
40141SOL    HW227474   8.556   8.635   8.899  0.3871 -0.9387  0.0623
40142SOL     OW27475   4.755   4.135   6.197 -0.0656  0.7339  0.1689
40142SOL    HW127476   4.825   4.093   6.247  0.4310  0.4383 -0.7548
40142SOL    HW227477   4.789   4.222   6.175 -0.0222  0.6198 -0.2164
40143SOL     OW27478   5.217   2.608   6.950 -0.3521  0.4201  0.3160
40143SOL    HW127479   5.262   2.596   6.867 -0.6635  2.1942 -0.1342
40143SOL    HW227480   5.135   2.652   6.928 -1.0068 -0.1572  1.4430
40144SOL     OW27481  10.946  10.130   1.630  0.3748  0.4710  0.7125
40144SOL    HW127482  11.016  10.194   1.616  0.6521  0.4278  1.7497
40144SOL    HW227483  10.991  10.045   1.627 -0.1964  0.1784 -1.9896
40145SOL     OW27484   9.769   6.134   1.136  1.2575 -0.2413  0.1433
40145SOL    HW127485   9.740   6.103   1.221  0.8229  0.4697  0.2567
40145SOL    HW227486   9.853   6.177   1.153  1.2742 -0.2884  0.1775
40146SOL     OW27487  11.516   3.618   2.817 -0.1226 -0.4350 -0.5286
40146SOL    HW127488  11.462   3.692   2.843 -0.3112 -1.1444  1.2563
40146SOL    HW227489  11.463   3.571   2.753 -1.1502 -0.4869  0.3388
40147SOL     OW27490   5.978   7.856   3.761 -0.5806  0.8494 -0.5036
40147SOL    HW127491   5.918   7.911   3.710 -1.7759  1.0836  1.0720
40147SOL    HW227492   6.025   7.918   3.816 -1.8550  0.3949  1.2073
40148SOL     OW27493   9.981   3.528   4.144 -0.4702 -0.1043  0.3873
40148SOL    HW127494  10.047   3.549   4.078 -0.9279 -0.0265 -0.0519
40148SOL    HW227495   9.997   3.437   4.167  0.3925  0.1866  0.9857
40149SOL     OW27496   3.954   1.396   1.962 -0.3009 -0.1545 -0.3183
40149SOL    HW127497   4.000   1.354   2.035  0.9610 -1.5603 -1.8548
40149SOL    HW227498   3.910   1.324   1.917 -2.4955  0.9008 -0.0469
40150SOL     OW27499   5.896  11.646  12.057 -0.4148 -0.0747 -0.2210
40150SOL    HW127500   5.909  11.563  12.104 -1.7018 -0.8072 -1.1236
40150SOL    HW227501   5.929  11.712  12.118 -1.2141 -1.0714  1.3759
40151SOL     OW27502   9.722   4.500   9.136  0.4864  0.4933 -0.4128
40151SOL    HW127503   9.784   4.446   9.087 -0.7484 -1.0751 -0.3165
40151SOL    HW227504   9.642   4.498   9.084 -0.2262  0.4776  0.6515
40152SOL     OW27505   8.407   9.419   5.382  0.1651  0.0694 -0.1683
40152SOL    HW127506   8.426   9.373   5.464  0.3159  1.4488  0.6017
40152SOL    HW227507   8.493   9.430   5.341  0.5022  1.9233  0.9194
40153SOL     OW27508   8.535   7.577   8.348  0.6081  0.6498 -0.6170
40153SOL    HW127509   8.440   7.584   8.342  0.3648 -0.6691  0.8518
40153SOL    HW227510   8.561   7.649   8.405  0.6155  1.5169 -1.6868
40154SOL     OW27511   7.282   8.208   2.544  0.1254 -0.0664 -0.2141
40154SOL    HW127512   7.335   8.194   2.622  2.6894  2.5029 -1.3238
40154SOL    HW227513   7.316   8.144   2.481 -0.9303 -1.1269  0.2493
40155SOL     OW27514   0.781   6.928   7.160  0.6431  0.4543  0.3636
40155SOL    HW127515   0.748   6.872   7.230  0.0822 -1.2815 -1.2082
40155SOL    HW227516   0.866   6.959   7.191 -0.0294  0.5909  2.2113
40156SOL     OW27517  11.250   8.486   1.930 -0.8543 -0.3729  0.3198
40156SOL    HW127518  11.323   8.479   1.992 -0.7337  1.8454  0.5216
40156SOL    HW227519  11.175   8.509   1.985 -0.8873  0.9465 -0.2332
40157SOL     OW27520   6.944   8.585  10.336  0.3590 -0.6383 -0.8865
40157SOL    HW127521   6.873   8.597  10.399  1.6230  1.1584  0.2999
40157SOL    HW227522   6.969   8.493  10.345 -2.3146 -1.5625 -1.9839
40158SOL     OW27523  11.417   3.483   4.782  0.1196  0.4942  0.2730
40158SOL    HW127524  11.399   3.532   4.702  1.0436  2.3274  1.1046
40158SOL    HW227525  11.513   3.478   4.786  0.0591 -0.6339  0.6757
40159SOL     OW27526   6.021   2.400   4.295 -0.0678 -0.2835 -0.5623
40159SOL    HW127527   6.041   2.306   4.302 -0.8733 -0.4989 -1.0610
40159SOL    HW227528   6.052   2.437   4.378  0.1118 -1.0136 -0.2953
40160SOL     OW27529  11.947   4.635   2.695 -0.0094 -0.6166  0.2376
40160SOL    HW127530  11.905   4.679   2.769 -0.1269  0.6313 -0.5358
40160SOL    HW227531  11.966   4.706   2.633  0.1717 -1.6142 -0.8830
40161SOL     OW27532   8.927   6.579   7.031 -0.1441  0.2148  0.4380
40161SOL    HW127533   8.935   6.674   7.029  0.2156  0.1795 -0.0185
40161SOL    HW227534   8.996   6.550   7.091 -0.4441  0.2582  0.8065
40162SOL     OW27535   7.262   7.983   0.813 -0.4306  0.0263  0.1951
40162SOL    HW127536   7.290   8.057   0.868 -1.7281  0.1158  0.7836
40162SOL    HW227537   7.254   8.020   0.725 -1.3084  0.6770  0.5320
40163SOL     OW27538   9.380  11.792   0.544 -0.1158 -0.0077  0.1415
40163SOL    HW127539   9.421  11.800   0.630  1.2767  1.5968 -0.6237
40163SOL    HW227540   9.348  11.880   0.525 -0.5873 -0.3955 -0.9197
40164SOL     OW27541   8.142   9.353   5.378 -0.1019  0.3256  0.4281
40164SOL    HW127542   8.157   9.259   5.386  0.2700  0.4930  2.3023
40164SOL    HW227543   8.230   9.391   5.378 -0.2228  0.6370 -1.1703
40165SOL     OW27544   7.614   8.178  10.093  0.1830  0.0178  0.1398
40165SOL    HW127545   7.675   8.250  10.075 -1.9356  2.1658  0.9606
40165SOL    HW227546   7.595   8.141  10.007  1.4725  0.3153 -0.2850
40166SOL     OW27547   1.778   5.360   2.220 -0.3463 -0.2484  0.5339
40166SOL    HW127548   1.751   5.355   2.128 -0.4264  0.1714  0.5288
40166SOL    HW227549   1.733   5.287   2.263  0.0632 -0.7296  0.1487
40167SOL     OW27550   8.027   8.636   7.782  0.0026  0.2768  0.6222
40167SOL    HW127551   8.055   8.601   7.867 -1.0417  0.7430  1.1858
40167SOL    HW227552   8.107   8.642   7.731  0.5047 -0.9979  1.2148
40168SOL     OW27553   2.308   8.922   7.599 -0.4700 -0.3077 -0.5227
40168SOL    HW127554   2.302   8.940   7.505 -1.6792 -0.5802 -0.5197
40168SOL    HW227555   2.276   8.832   7.608  1.3272 -0.9372 -0.0406
40169SOL     OW27556   1.086   2.081   0.812  0.4821 -0.2056  0.1668
40169SOL    HW127557   1.011   2.095   0.870 -0.5298 -0.4155 -1.0541
40169SOL    HW227558   1.160   2.067   0.872  0.3433  3.5969  1.4963
40170SOL     OW27559   4.769  11.124   8.046  0.7014  0.0270  0.4899
40170SOL    HW127560   4.814  11.040   8.050  1.7564  0.6281  2.0135
40170SOL    HW227561   4.838  11.189   8.059 -0.0973  1.1527 -0.6139
40171SOL     OW27562  12.398   0.300   6.968 -0.7113 -0.0536 -0.3051
40171SOL    HW127563  12.419   0.211   6.941 -1.6795 -0.5160  0.3894
40171SOL    HW227564  12.452   0.356   6.913  1.4805 -1.1267  0.6530
40172SOL     OW27565  11.967   3.843   7.200  0.4849  0.2457  0.0333
40172SOL    HW127566  11.944   3.754   7.225  1.6526  0.6723  3.0444
40172SOL    HW227567  12.062   3.848   7.213  0.3760  2.0386  0.4540
40173SOL     OW27568   7.688  12.356   8.852 -0.2955 -0.0484 -0.0612
40173SOL    HW127569   7.601  12.347   8.891 -1.2125 -0.9013 -2.1824
40173SOL    HW227570   7.732  12.422   8.906 -1.7600 -0.5535  1.8542
40174SOL     OW27571   7.023   1.480  11.971  0.0720  0.0444  0.0350
40174SOL    HW127572   6.973   1.496  12.052 -0.5139  1.7061 -0.6156
40174SOL    HW227573   7.089   1.549  11.970 -0.8315  0.9458 -1.5839
40175SOL     OW27574   6.322  12.254   7.912 -0.1255  0.0654  0.3473
40175SOL    HW127575   6.286  12.328   7.960 -1.2936 -0.5460  0.4556
40175SOL    HW227576   6.313  12.180   7.973  0.7694 -0.2266  0.1420
40176SOL     OW27577   1.804   5.116   0.879  0.2121 -0.6816  0.0775
40176SOL    HW127578   1.714   5.136   0.905 -0.0144  1.3602 -1.9604
40176SOL    HW227579   1.797   5.096   0.786  1.6317 -2.5773  0.3365
40177SOL     OW27580   8.737   7.091  11.577  0.6863  0.4181  0.2297
40177SOL    HW127581   8.710   7.004  11.551 -0.5774  1.1039 -0.8461
40177SOL    HW227582   8.763   7.082  11.669  1.3810 -1.2353 -0.1036
40178SOL     OW27583   9.696   5.357   2.483 -0.0473  0.4220  0.4808
40178SOL    HW127584   9.600   5.361   2.476 -0.1744 -1.5992  0.4291
40178SOL    HW227585   9.727   5.376   2.394 -0.2608  2.9697  0.8863
40179SOL     OW27586   4.745   0.934   7.934  0.0351 -0.3002  0.0669
40179SOL    HW127587   4.803   0.861   7.956  0.9160  0.5232  0.5516
40179SOL    HW227588   4.683   0.939   8.007  0.6837  0.1336  0.6024
40180SOL     OW27589   5.815  11.797   2.315 -0.0930  0.7640  0.0986
40180SOL    HW127590   5.763  11.736   2.367  0.5063  1.8412  2.0661
40180SOL    HW227591   5.781  11.788   2.226 -0.9545 -1.3892  0.5854
40181SOL     OW27592   8.311  12.213   1.422 -0.2583  0.2008  0.0984
40181SOL    HW127593   8.238  12.208   1.484 -1.2444 -1.1526 -1.1092
40181SOL    HW227594   8.348  12.125   1.420  1.5985  0.9063  0.8429
40182SOL     OW27595   2.075   5.141   4.419 -0.6669  0.3289  0.4852
40182SOL    HW127596   2.014   5.127   4.491 -0.5844  1.0003  0.6942
40182SOL    HW227597   2.034   5.100   4.343 -0.1604 -1.5579  1.1658
40183SOL     OW27598  11.051  10.192   1.075 -0.3842 -0.3318 -0.3935
40183SOL    HW127599  11.069  10.141   1.154  0.6214 -1.5903 -1.4025
40183SOL    HW227600  10.992  10.261   1.105 -2.0797 -2.2400  0.9819
40184SOL     OW27601   0.760   6.607   9.801 -0.1402 -0.1080 -0.2437
40184SOL    HW127602   0.731   6.689   9.762  0.7165  0.2228 -0.1988
40184SOL    HW227603   0.778   6.550   9.726 -2.6869 -0.9824 -0.2710
40185SOL     OW27604   7.996   8.412  11.884  0.2440 -0.1165  0.4360
40185SOL    HW127605   8.028   8.433  11.971 -0.5275  0.1872  0.6507
40185SOL    HW227606   8.072   8.374  11.839  1.1187  1.2676  0.6915
40186SOL     OW27607   7.248  11.154   2.685  0.0123 -0.2811 -0.6595
40186SOL    HW127608   7.272  11.197   2.768 -0.7643 -2.2462  0.6569
40186SOL    HW227609   7.162  11.190   2.664 -0.1626 -0.3992 -0.1572
40187SOL     OW27610   7.881   3.406   0.566  0.4689  0.2177  0.2266
40187SOL    HW127611   7.911   3.318   0.542 -2.2620 -0.5758 -0.7510
40187SOL    HW227612   7.880   3.454   0.483 -0.1875  0.4306  0.3515
40188SOL     OW27613   9.283   0.369   1.094 -0.0423 -0.0342  0.3328
40188SOL    HW127614   9.333   0.297   1.057  0.2296 -0.2683  1.1427
40188SOL    HW227615   9.334   0.447   1.073  0.3838 -0.2177  0.6687
40189SOL     OW27616   3.674   8.014  10.930  0.2208  0.0758 -0.6923
40189SOL    HW127617   3.672   7.979  11.020 -1.9618 -1.3916 -1.2312
40189SOL    HW227618   3.657   7.938  10.875  4.3865  0.3240 -2.6962
40190SOL     OW27619   4.626   8.570  10.074  0.8349 -0.1169 -0.1156
40190SOL    HW127620   4.683   8.640  10.041  0.4336  1.1034  1.6000
40190SOL    HW227621   4.584   8.534   9.996  3.4463 -0.6656 -1.3749
40191SOL     OW27622   0.264   3.609   2.362  0.4057 -0.7404 -0.3162
40191SOL    HW127623   0.264   3.693   2.316  0.2664 -1.4347 -1.6452
40191SOL    HW227624   0.352   3.573   2.347  0.1591 -1.2483 -0.5558
40192SOL     OW27625   0.132   8.692   4.827 -0.4000  0.3629  0.1342
40192SOL    HW127626   0.208   8.649   4.787 -0.1773 -1.2496  2.1133
40192SOL    HW227627   0.056   8.651   4.786 -0.1936  0.1761 -0.0628
40193SOL     OW27628  11.944   2.722  12.191 -0.4308 -0.5214 -0.3973
40193SOL    HW127629  11.970   2.795  12.248  0.0565 -1.1225  0.1726
40193SOL    HW227630  11.898   2.764  12.118 -0.4897  0.3238  0.1048
40194SOL     OW27631   1.481   1.553  10.144 -0.2406 -0.1626  0.0773
40194SOL    HW127632   1.544   1.483  10.126  0.4609  0.4254  0.2235
40194SOL    HW227633   1.526   1.611  10.205  0.9605  2.8198 -3.3349
40195SOL     OW27634   2.520   4.021  11.160  0.1347  0.0102 -0.0185
40195SOL    HW127635   2.596   4.074  11.134 -0.2535 -0.4994 -2.5295
40195SOL    HW227636   2.542   3.932  11.132 -0.1399 -0.7726  2.1071
40196SOL     OW27637   9.425   3.626   8.625  0.5700  0.5977  0.2039
40196SOL    HW127638   9.501   3.627   8.567 -0.8815  0.5362 -1.7835
40196SOL    HW227639   9.443   3.555   8.687  2.0599  0.5154 -0.2780
40197SOL     OW27640  10.525   6.697  11.305  0.3810  0.2352 -0.0012
40197SOL    HW127641  10.594   6.758  11.279  0.0875 -0.2447 -2.1043
40197SOL    HW227642  10.451   6.720  11.248 -0.2988 -0.9650  0.3718
40198SOL     OW27643  10.701   2.417   9.306  0.0209  0.6967 -0.0059
40198SOL    HW127644  10.681   2.452   9.392 -0.8207  0.4534 -0.0953
40198SOL    HW227645  10.749   2.488   9.262  0.8713  0.6419  0.8164
40199SOL     OW27646   4.663  10.692  12.271 -0.5044  0.1122  0.3778
40199SOL    HW127647   4.691  10.609  12.310 -1.6637  0.0764  1.2077
40199SOL    HW227648   4.739  10.724  12.224  0.2151 -1.0238  0.7324
40200SOL     OW27649  11.142  12.109   7.564 -0.3457 -0.3008 -0.5459
40200SOL    HW127650  11.099  12.192   7.543  1.1095  0.3247 -1.1973
40200SOL    HW227651  11.147  12.063   7.481  1.1833  0.1238 -0.7275
40201SOL     OW27652   6.952  11.699   1.721  0.0316 -0.0796 -0.1172
40201SOL    HW127653   7.013  11.626   1.725 -0.9049 -0.8461  0.7674
40201SOL    HW227654   7.006  11.777   1.733  0.9888 -0.6431 -0.6286
40202SOL     OW27655   3.635   5.303   3.612 -0.3074  0.2109 -0.1844
40202SOL    HW127656   3.681   5.327   3.531 -0.3235  1.1090  0.0660
40202SOL    HW227657   3.545   5.287   3.585 -0.3815  0.8098 -0.3021
40203SOL     OW27658   1.264   9.545   3.141  0.8884 -0.3395  0.2869
40203SOL    HW127659   1.169   9.545   3.132  1.0030  0.1612 -1.1628
40203SOL    HW227660   1.292   9.623   3.094  2.0733 -0.8782  0.0668
40204SOL     OW27661   0.400   3.944   6.609 -1.0790  0.2325  0.5658
40204SOL    HW127662   0.390   3.870   6.550 -0.1985  0.6804 -0.1694
40204SOL    HW227663   0.435   4.014   6.554  2.0392 -0.0069  2.0416
40205SOL     OW27664  12.399   7.972  10.699  0.0134  0.0587  0.5344
40205SOL    HW127665  12.479   7.969  10.752 -0.3193 -1.3047  1.0232
40205SOL    HW227666  12.332   7.933  10.756 -0.5246 -0.7310 -0.6105
40206SOL     OW27667   7.127   2.080  11.089  0.3336  0.3462  0.2536
40206SOL    HW127668   7.198   2.127  11.047 -0.2174  1.0585  0.1010
40206SOL    HW227669   7.071   2.050  11.017 -1.3949  2.8112  0.4476
40207SOL     OW27670   3.925  12.451   2.291  0.0915  0.0772  0.1428
40207SOL    HW127671   3.876  12.422   2.213  0.4880  0.5540 -0.2868
40207SOL    HW227672   4.011  12.410   2.282 -0.0175 -0.2577  0.5835
40208SOL     OW27673   1.692   8.204   9.592 -0.0091  0.0537  0.1284
40208SOL    HW127674   1.764   8.250   9.551 -0.4970  0.4198 -0.3284
40208SOL    HW227675   1.734   8.140   9.650  0.6760  0.1526 -0.2515
40209SOL     OW27676   8.264  12.327   3.107  0.1531  0.3251 -0.0542
40209SOL    HW127677   8.308  12.244   3.123 -0.5483 -0.3095 -1.2398
40209SOL    HW227678   8.309  12.364   3.031 -1.2743 -0.3420 -1.2969
40210SOL     OW27679   0.405   7.394  10.942  0.0073 -0.1596  0.3255
40210SOL    HW127680   0.457   7.471  10.920 -0.9862  1.3271  2.7075
40210SOL    HW227681   0.436   7.368  11.029 -1.4378 -0.8094  0.6851
40211SOL     OW27682   9.525   3.246   9.391 -0.0403  0.0394  0.2888
40211SOL    HW127683   9.445   3.199   9.365  0.2578 -0.6297  0.5568
40211SOL    HW227684   9.553   3.291   9.311 -0.9452  0.6827  0.3081
40212SOL     OW27685  10.396   6.521   5.796 -0.2455 -0.0433 -0.5783
40212SOL    HW127686  10.440   6.484   5.720  0.3961 -0.9956  0.2339
40212SOL    HW227687  10.457   6.587   5.829 -0.1533 -0.2120 -0.4103
40213SOL     OW27688  12.590   5.806   3.261 -0.2127 -0.5857 -0.2915
40213SOL    HW127689  12.648   5.750   3.312  1.3577  0.7580 -0.5238
40213SOL    HW227690  12.517   5.825   3.319  0.7524 -0.4034  0.8960
40214SOL     OW27691   4.321   4.585   8.878 -0.1059  0.2624 -0.2960
40214SOL    HW127692   4.270   4.566   8.956 -0.9756  2.1512 -0.3527
40214SOL    HW227693   4.397   4.528   8.884 -1.4466 -1.5120  0.5721
40215SOL     OW27694  11.867   9.170   9.219  0.1417  0.2599 -0.1615
40215SOL    HW127695  11.905   9.232   9.282  0.5454 -0.4371  0.2872
40215SOL    HW227696  11.914   9.187   9.137  0.1204  0.6679 -0.0922
40216SOL     OW27697   5.002   8.692   3.862  0.1116 -0.1991  0.2302
40216SOL    HW127698   4.947   8.659   3.933  0.2917  2.8564  1.9674
40216SOL    HW227699   4.943   8.701   3.788 -0.8866 -0.4521  0.9722
40217SOL     OW27700  10.138  10.963  11.676  0.4163 -0.3980 -0.0063
40217SOL    HW127701  10.095  10.885  11.714  1.1741 -0.8195  0.0103
40217SOL    HW227702  10.148  11.023  11.750 -0.0450 -0.3393  0.0117
40218SOL     OW27703   3.716   7.728  11.704 -0.2200 -0.2329 -0.2427
40218SOL    HW127704   3.673   7.646  11.679 -1.6564  0.3920  0.0276
40218SOL    HW227705   3.647   7.778  11.749  1.5273 -0.2854  2.7644
40219SOL     OW27706   4.189  11.701   8.948  0.5205 -0.4529  0.5002
40219SOL    HW127707   4.120  11.675   9.009  1.4549 -0.6599  1.5111
40219SOL    HW227708   4.268  11.708   9.003  1.0129  1.1769 -0.3431
40220SOL     OW27709   1.208   2.728   6.444  0.4581  0.0080  0.0731
40220SOL    HW127710   1.145   2.723   6.373  0.9810 -3.0774 -0.3187
40220SOL    HW227711   1.251   2.813   6.433 -1.1455  0.6412 -1.7807
40221SOL     OW27712   5.905   0.944   4.300  0.9617  0.1758 -0.0127
40221SOL    HW127713   5.983   0.893   4.280  0.5362 -0.9359  0.9971
40221SOL    HW227714   5.922   0.981   4.387  1.4733  2.2365 -0.9313
40222SOL     OW27715  11.528  12.253   5.783  0.0239 -0.2833 -0.4637
40222SOL    HW127716  11.581  12.212   5.715  0.7745  1.0422 -0.7237
40222SOL    HW227717  11.467  12.185   5.811  0.8769 -1.3908 -1.2127
40223SOL     OW27718   8.979   7.573   3.330  0.3073  0.4314 -0.1111
40223SOL    HW127719   8.948   7.662   3.342  1.4200  0.6120  1.9175
40223SOL    HW227720   9.069   7.583   3.299  0.4939  0.0317  0.2862
40224SOL     OW27721   9.919  12.527  10.797 -0.6859  0.2973  0.5777
40224SOL    HW127722   9.965  12.456  10.841 -0.6186  0.8263  1.3723
40224SOL    HW227723   9.985  12.568  10.741 -0.3201  0.7031  1.2929
40225SOL     OW27724  10.239   6.947   0.913 -0.0479 -0.1166 -0.5528
40225SOL    HW127725  10.276   7.028   0.948 -0.5348 -0.5257  0.9945
40225SOL    HW227726  10.173   6.976   0.850  0.1449  0.6840 -0.3960
40226SOL     OW27727   8.943   7.792   5.154  0.4303 -0.0135 -0.5863
40226SOL    HW127728   8.958   7.812   5.246  1.6259  2.1868 -1.1714
40226SOL    HW227729   8.855   7.826   5.136  0.8673  1.1386 -0.6206
40227SOL     OW27730   6.678   2.575   2.095 -0.3950 -0.0025  0.1406
40227SOL    HW127731   6.722   2.612   2.171 -0.4501 -1.2029  0.7812
40227SOL    HW227732   6.642   2.650   2.049  1.2216  0.9111  0.2815
40228SOL     OW27733   1.196   4.247   1.940 -0.2867  0.1163  0.5637
40228SOL    HW127734   1.200   4.194   1.860 -1.5753  0.7664  0.0498
40228SOL    HW227735   1.247   4.196   2.004 -1.0712 -1.5157 -0.0405
40229SOL     OW27736  11.378   4.314   8.138 -0.1851  0.6887 -0.0224
40229SOL    HW127737  11.438   4.357   8.077  0.5952  0.6908  0.7142
40229SOL    HW227738  11.424   4.318   8.222 -1.1297  0.4783  0.5142
40230SOL     OW27739   4.039   8.656   1.543 -0.7453  0.7177 -0.2187
40230SOL    HW127740   4.035   8.596   1.617 -1.9281  2.1670  0.9598
40230SOL    HW227741   4.082   8.606   1.473 -0.5081 -1.0179  1.1130
40231SOL     OW27742   5.929  10.763   0.095  0.9010  0.1923  0.1595
40231SOL    HW127743   5.843  10.733   0.124 -0.1031  0.9232 -1.9196
40231SOL    HW227744   5.990  10.724   0.159 -0.8796 -0.8687  1.3054
40232SOL     OW27745   3.180   3.508  11.607  0.1491  0.1340 -0.1614
40232SOL    HW127746   3.251   3.571  11.606  0.3952 -0.0578  1.4628
40232SOL    HW227747   3.217   3.428  11.571  0.2862  0.4828 -0.7943
40233SOL     OW27748   6.302  11.877   0.167 -0.3447 -0.1858 -0.0744
40233SOL    HW127749   6.213  11.912   0.160 -0.5893 -0.7890 -0.0652
40233SOL    HW227750   6.315  11.829   0.085 -0.3009 -0.6985  0.2266
40234SOL     OW27751   0.341   6.906   6.122 -0.3106 -0.6849 -0.3555
40234SOL    HW127752   0.298   6.907   6.208  0.1804  3.3639  0.0658
40234SOL    HW227753   0.428   6.942   6.138 -0.4544  0.9008 -2.5789
40235SOL     OW27754  11.799   8.160   5.636  0.0530 -0.2587 -0.5086
40235SOL    HW127755  11.833   8.229   5.694 -1.5523 -0.2087  0.4349
40235SOL    HW227756  11.867   8.093   5.636  0.9665  0.6392 -0.1858
40236SOL     OW27757   1.579   0.626   4.800  0.2928 -0.5835 -0.0074
40236SOL    HW127758   1.486   0.610   4.783 -0.4898  1.2513  2.0841
40236SOL    HW227759   1.600   0.702   4.746 -0.3025  0.8760  1.7197
40237SOL     OW27760   8.867  12.360   5.594 -0.1279 -0.0264 -0.4501
40237SOL    HW127761   8.856  12.409   5.512 -1.5695 -0.5784 -0.6076
40237SOL    HW227762   8.858  12.268   5.569  2.2484 -0.4038 -0.1032
40238SOL     OW27763   0.107   2.984   2.048  0.1404  0.3251  0.4085
40238SOL    HW127764   0.168   3.057   2.042  0.0871  0.3616  0.3064
40238SOL    HW227765   0.143   2.927   2.117 -0.5088  1.1133  1.4348
40239SOL     OW27766   3.207   0.874  10.479  0.1139  0.1679  0.0485
40239SOL    HW127767   3.140   0.806  10.465 -0.5512  0.8850 -0.2982
40239SOL    HW227768   3.290   0.828  10.467 -0.2819 -0.8990  1.1597
40240SOL     OW27769   3.405   0.348   2.763  0.6964  0.1412  0.0692
40240SOL    HW127770   3.349   0.423   2.742 -0.0335 -0.6945 -1.0884
40240SOL    HW227771   3.452   0.330   2.681  1.5415 -0.1133  0.5977
40241SOL     OW27772   1.655  11.765   6.021  0.4681 -0.1911 -0.2870
40241SOL    HW127773   1.632  11.800   5.934  2.1579  0.1783 -0.6361
40241SOL    HW227774   1.605  11.685   6.029 -0.1906  0.0932 -1.3531
40242SOL     OW27775   4.337   8.138   6.366 -0.3142  0.0525 -0.2064
40242SOL    HW127776   4.298   8.071   6.423 -1.5214 -0.4408 -1.5515
40242SOL    HW227777   4.397   8.088   6.309 -0.8352  0.1742 -0.8736
40243SOL     OW27778  11.485   8.131  12.307 -0.0230  0.0949 -0.2960
40243SOL    HW127779  11.391   8.130  12.286 -0.1328  1.8328  0.0266
40243SOL    HW227780  11.496   8.059  12.369 -1.2094  0.1133 -0.0449
40244SOL     OW27781  11.383   1.957   5.209  0.0680 -0.2598 -0.1777
40244SOL    HW127782  11.426   2.040   5.191 -0.7726  0.5616  1.4003
40244SOL    HW227783  11.372   1.955   5.304  0.3753 -2.3453 -0.1311
40245SOL     OW27784   9.786   7.274  11.018  0.1529 -0.0509 -0.0782
40245SOL    HW127785   9.874   7.239  11.029 -0.1905 -0.9149  0.0210
40245SOL    HW227786   9.729   7.204  11.049 -0.5246  1.2995  1.9875
40246SOL     OW27787   5.044   9.132   9.968  0.3322  0.3176 -0.2895
40246SOL    HW127788   5.032   9.185   9.890  0.5396 -0.1004 -0.6050
40246SOL    HW227789   5.122   9.079   9.950 -0.4694 -0.8601 -0.4060
40247SOL     OW27790   9.250   9.794   7.409  0.3715  0.1796  0.1155
40247SOL    HW127791   9.200   9.734   7.465  1.1866 -1.7323 -1.0985
40247SOL    HW227792   9.204   9.878   7.416 -0.6068 -0.4704  2.1738
40248SOL     OW27793   8.657   4.338  11.343  0.2731 -0.4186  0.0192
40248SOL    HW127794   8.583   4.284  11.372  0.8649 -0.5625  1.3485
40248SOL    HW227795   8.729   4.277  11.334  1.0646  0.1326  1.9595
40249SOL     OW27796   2.610   8.479  12.186  0.7192  0.2603 -0.1581
40249SOL    HW127797   2.543   8.488  12.254  0.5334 -0.0011 -0.3060
40249SOL    HW227798   2.649   8.393  12.201  1.8002  0.8715  0.6210
40250SOL     OW27799   1.282   6.075   4.001 -0.0289 -0.8473  0.6112
40250SOL    HW127800   1.274   6.000   4.060  1.0885  0.2353  2.2483
40250SOL    HW227801   1.332   6.042   3.926  1.4537 -1.5155  1.8272
40251SOL     OW27802   5.620  11.431   0.197 -0.1958 -0.3119  0.0016
40251SOL    HW127803   5.577  11.373   0.134  0.3447 -2.1041  1.1854
40251SOL    HW227804   5.710  11.398   0.202  0.8523  2.1672 -1.0211
40252SOL     OW27805   4.852  11.819   3.647  0.6714  0.4375 -0.1249
40252SOL    HW127806   4.836  11.750   3.583  1.1192 -0.8560  1.1042
40252SOL    HW227807   4.764  11.850   3.671  0.4270 -0.2146 -0.1526
40253SOL     OW27808   1.558   2.166   3.680 -0.0634  0.7536  0.0481
40253SOL    HW127809   1.628   2.228   3.660  0.0518  0.5024 -0.3546
40253SOL    HW227810   1.485   2.220   3.709 -0.2339  1.1435 -1.0750
40254SOL     OW27811  11.097  10.350   5.418 -0.2802 -0.5255  0.3016
40254SOL    HW127812  11.047  10.342   5.499  0.1475  1.6509  0.8565
40254SOL    HW227813  11.188  10.352   5.445 -0.0402 -1.3641 -0.4053
40255SOL     OW27814   3.195   2.737   5.628 -0.2382 -0.8220  0.0583
40255SOL    HW127815   3.135   2.809   5.614 -0.5520 -0.9734  0.5992
40255SOL    HW227816   3.139   2.660   5.640 -0.0278 -0.7447  1.9457
40256SOL     OW27817   8.209   8.974   7.539  0.2045  0.5055  0.0914
40256SOL    HW127818   8.196   8.970   7.634  0.6189  0.5033  0.1517
40256SOL    HW227819   8.126   8.946   7.502  0.6109 -1.2761  0.4656
40257SOL     OW27820   7.299   8.665   4.781  0.1139 -0.5069  0.4378
40257SOL    HW127821   7.304   8.585   4.728 -0.2103 -0.1881 -0.0900
40257SOL    HW227822   7.289   8.634   4.871 -2.3133 -1.1068  0.0408
40258SOL     OW27823   2.160   4.144   3.527  0.3035  0.4474 -0.4594
40258SOL    HW127824   2.183   4.052   3.541  2.2956  0.6871 -1.6574
40258SOL    HW227825   2.141   4.149   3.433 -0.8649  1.0680 -0.2009
40259SOL     OW27826   7.929   3.827  10.367 -0.4259 -0.3656  0.0766
40259SOL    HW127827   8.001   3.862  10.419  0.0248  1.3565 -1.6030
40259SOL    HW227828   7.952   3.735  10.352 -0.3892 -0.8307  2.4748
40260SOL     OW27829   8.423   8.842   3.923 -0.0697  0.2451  0.0412
40260SOL    HW127830   8.428   8.875   3.834 -0.1319  0.2681  0.0463
40260SOL    HW227831   8.513   8.846   3.956 -0.2098  1.2169  0.3319
40261SOL     OW27832   8.959   1.837   3.311 -0.7295  0.1934 -0.0257
40261SOL    HW127833   8.912   1.915   3.283 -0.9181 -0.3067 -1.1353
40261SOL    HW227834   8.955   1.840   3.407 -1.4704  1.0863 -0.0697
40262SOL     OW27835   2.392   4.969   0.946 -0.0905 -0.2295 -0.2358
40262SOL    HW127836   2.382   4.922   1.029 -1.4504  1.1730  0.4343
40262SOL    HW227837   2.303   4.983   0.915  0.0249  3.4485  0.5539
40263SOL     OW27838   7.981   0.217   8.537 -0.3091 -0.3902  0.0664
40263SOL    HW127839   7.962   0.219   8.443 -1.8006 -0.4019  0.3467
40263SOL    HW227840   7.923   0.148   8.571  0.2699 -0.4293  0.9873
40264SOL     OW27841  10.560  12.136   8.165  0.3572  0.4268 -0.3678
40264SOL    HW127842  10.518  12.221   8.152 -0.2109  0.2507  0.2568
40264SOL    HW227843  10.555  12.121   8.260  2.2510  0.6138 -0.2038
40265SOL     OW27844   0.292  11.749   0.251  0.1832  0.3202 -0.4627
40265SOL    HW127845   0.280  11.840   0.222  1.7595  0.2448 -1.4102
40265SOL    HW227846   0.212  11.730   0.301 -1.1320  1.5478 -1.9611
40266SOL     OW27847   8.052   8.465   4.501 -0.4788 -0.2422 -0.1392
40266SOL    HW127848   8.043   8.445   4.408 -0.1461 -1.5365  0.0833
40266SOL    HW227849   8.124   8.528   4.505  1.1577 -1.9648 -0.6163
40267SOL     OW27850   9.275  11.876   8.288  0.4509  0.4716  0.5510
40267SOL    HW127851   9.300  11.925   8.367 -1.9769  1.0024  1.0579
40267SOL    HW227852   9.285  11.939   8.217  0.6529  0.6358  0.7242
40268SOL     OW27853   7.698   2.742   7.821 -0.2286 -0.3017  0.8153
40268SOL    HW127854   7.722   2.834   7.828 -0.4408 -0.0688 -0.9587
40268SOL    HW227855   7.767   2.695   7.867  1.3431  0.6159 -0.4910
40269SOL     OW27856   4.734   1.868   2.582  0.3015 -0.0880 -0.0012
40269SOL    HW127857   4.739   1.773   2.593 -0.0379  0.0833  2.0781
40269SOL    HW227858   4.667   1.882   2.515  2.1315 -1.3410 -2.2402
40270SOL     OW27859   2.552   8.457   6.684  0.1956 -0.0167  0.1007
40270SOL    HW127860   2.522   8.502   6.605  1.9882  0.6950 -0.2146
40270SOL    HW227861   2.623   8.400   6.654 -1.0045 -1.9297  0.7549
40271SOL     OW27862  11.051   4.484  11.590 -0.1419 -0.1662  0.1077
40271SOL    HW127863  11.140   4.514  11.606 -1.5482  3.5209  2.4505
40271SOL    HW227864  11.034   4.508  11.498  0.9448  0.0054 -0.0606
40272SOL     OW27865   7.450  12.005  11.490  0.1210  0.0764  0.7352
40272SOL    HW127866   7.506  12.002  11.412  0.9217  1.5240  1.2164
40272SOL    HW227867   7.510  12.017  11.562 -0.7278  0.1830  1.4392
40273SOL     OW27868   0.748   1.374  11.074  0.5238  0.3226  0.2578
40273SOL    HW127869   0.705   1.333  11.150 -4.0367  1.7840 -1.1731
40273SOL    HW227870   0.737   1.311  11.003  2.0647  0.1935  0.1177
40274SOL     OW27871   2.525  11.456  10.679  0.7832  0.0822  0.0010
40274SOL    HW127872   2.612  11.469  10.641  0.8544  1.6777  0.6669
40274SOL    HW227873   2.521  11.516  10.752 -0.9628  0.1642 -0.1181
40275SOL     OW27874   7.622   4.945  10.802 -0.4444 -0.4793 -0.3492
40275SOL    HW127875   7.715   4.927  10.786 -0.4656 -1.2133  0.2889
40275SOL    HW227876   7.613   4.946  10.897 -0.7654  1.4387 -0.3683
40276SOL     OW27877   4.208   0.180  11.450  0.4735  0.4059 -0.1710
40276SOL    HW127878   4.281   0.201  11.392  0.4321  0.9307 -0.0349
40276SOL    HW227879   4.130   0.195  11.397  0.4624 -0.5786 -0.4586
40277SOL     OW27880   8.496   7.098   0.931 -0.0925  0.1244 -0.4572
40277SOL    HW127881   8.439   7.175   0.940 -1.2535 -0.6738 -0.8010
40277SOL    HW227882   8.517   7.094   0.838 -0.3520 -0.1997 -0.5018
40278SOL     OW27883  10.928   3.664   0.874 -0.6526  0.2898 -0.6370
40278SOL    HW127884  10.971   3.596   0.821  1.4685  0.9759  0.1012
40278SOL    HW227885  10.911   3.735   0.813 -0.2928  0.1929 -0.8515
40279SOL     OW27886   5.307   6.159   2.222  0.1346  0.1794 -0.3521
40279SOL    HW127887   5.299   6.064   2.215 -0.1646  0.0928  0.9015
40279SOL    HW227888   5.307   6.176   2.316  1.4291  1.3250 -0.5319
40280SOL     OW27889  10.569   6.981   0.251 -0.4556  0.8080  0.0194
40280SOL    HW127890  10.478   7.010   0.254 -0.7015  0.0056  0.4385
40280SOL    HW227891  10.615   7.040   0.311 -1.2250 -0.5503  2.0329
40281SOL     OW27892   2.128   2.848   2.172 -0.3226  0.3849  0.0996
40281SOL    HW127893   2.084   2.853   2.258 -0.6114  0.7631 -0.0627
40281SOL    HW227894   2.057   2.857   2.109  0.1140  2.4705 -0.1638
40282SOL     OW27895  12.092   0.841   7.772  0.0861 -0.2358 -0.3654
40282SOL    HW127896  12.053   0.766   7.727 -0.6374  0.5171 -0.9957
40282SOL    HW227897  12.037   0.915   7.748  0.2223  0.3399  1.0411
40283SOL     OW27898  10.314   7.814   5.595 -0.4766  0.2304 -0.3181
40283SOL    HW127899  10.309   7.898   5.549 -0.5683  0.3466 -0.0988
40283SOL    HW227900  10.321   7.838   5.687  2.7467  0.1006 -0.3993
40284SOL     OW27901   2.019   7.324  11.604 -0.1166  0.5069  0.2203
40284SOL    HW127902   1.982   7.371  11.679 -0.1842  1.2365 -0.2575
40284SOL    HW227903   2.057   7.245  11.642 -1.5909  0.0539  0.8058
40285SOL     OW27904  11.727   1.888   7.699 -0.1742 -0.2242  0.3212
40285SOL    HW127905  11.742   1.923   7.611  0.7711 -1.1274  0.1067
40285SOL    HW227906  11.694   1.799   7.684  1.9508 -1.1704  0.8428
40286SOL     OW27907   6.461   1.063   6.260  0.1028  0.2018  0.2213
40286SOL    HW127908   6.543   1.055   6.309 -0.1453  2.2651  1.0704
40286SOL    HW227909   6.422   1.145   6.292 -1.4116  0.1897 -1.4637
40287SOL     OW27910   9.055  10.448   1.638  0.0928 -0.1247  0.0977
40287SOL    HW127911   9.090  10.384   1.575 -0.4261 -1.6479  1.3034
40287SOL    HW227912   9.119  10.448   1.710  0.9500  1.9825 -0.5802
40288SOL     OW27913   5.351   2.722   2.862 -0.0394  0.4573 -0.0203
40288SOL    HW127914   5.263   2.760   2.861  0.0599  1.0164  2.9135
40288SOL    HW227915   5.336   2.628   2.873 -0.3058  0.6286  1.2037
40289SOL     OW27916   5.745   6.737   7.691  0.6172 -0.9259  0.2685
40289SOL    HW127917   5.723   6.668   7.753 -1.7672  0.4178  1.0628
40289SOL    HW227918   5.839   6.752   7.703  0.6078 -2.0951  2.0852
40290SOL     OW27919  10.605  10.046   7.631  0.4316 -0.3152 -0.1537
40290SOL    HW127920  10.537  10.041   7.698 -0.1827 -1.1336 -0.8085
40290SOL    HW227921  10.560  10.082   7.554  1.7429  3.4272  0.5913
40291SOL     OW27922   3.028   9.953  12.137 -0.3579  0.1540  0.2251
40291SOL    HW127923   3.110   9.989  12.104 -0.3880 -1.1535 -1.4098
40291SOL    HW227924   2.965  10.024  12.128  0.9059  1.9426  3.4910
40292SOL     OW27925  10.637   5.290   9.308 -0.4991 -0.4365  0.0304
40292SOL    HW127926  10.598   5.202   9.310 -1.5329 -0.0165 -0.7204
40292SOL    HW227927  10.721   5.278   9.264  0.2589 -1.3615  1.6681
40293SOL     OW27928   1.302   7.545   9.263  0.6272  0.1956 -0.1509
40293SOL    HW127929   1.292   7.452   9.241 -0.1550  0.3207 -0.3549
40293SOL    HW227930   1.283   7.591   9.181  2.7335  0.4945 -0.5396
40294SOL     OW27931   1.716   2.294   7.329 -0.3287  0.3495 -0.2285
40294SOL    HW127932   1.630   2.251   7.336  1.1688 -2.9329  0.1370
40294SOL    HW227933   1.743   2.307   7.420 -0.4103  1.3324 -0.3425
40295SOL     OW27934   9.858   6.353   3.852 -0.1257 -0.0521 -0.1929
40295SOL    HW127935   9.894   6.265   3.844 -0.8508 -0.1830 -3.1444
40295SOL    HW227936   9.918   6.407   3.801 -0.5119  0.9201  0.3565
40296SOL     OW27937   9.847   6.510  10.977 -0.1704  0.6917 -0.3755
40296SOL    HW127938   9.842   6.603  11.000  0.0687  1.2100 -2.2244
40296SOL    HW227939   9.921   6.477  11.028  0.0071  1.6200 -0.0091
40297SOL     OW27940   6.344   3.050   0.970  0.1469 -0.1026  0.5161
40297SOL    HW127941   6.292   2.986   1.018  0.8147 -1.7113 -0.7982
40297SOL    HW227942   6.429   3.007   0.957  0.7240  1.1809 -0.1268
40298SOL     OW27943   0.214   7.609   9.437 -0.1129  0.2022  0.3845
40298SOL    HW127944   0.188   7.626   9.347 -1.6271  1.0985  0.9585
40298SOL    HW227945   0.291   7.664   9.450  1.6888 -1.8014 -1.0571
40299SOL     OW27946   4.200  10.220   8.605 -0.1691  0.0462  0.0880
40299SOL    HW127947   4.131  10.170   8.562 -0.9767  0.5246  0.8095
40299SOL    HW227948   4.262  10.239   8.535 -0.9689 -0.0344 -0.6594
40300SOL     OW27949   6.534   2.126   0.867 -0.0688  0.3803  0.3554
40300SOL    HW127950   6.553   2.112   0.960  0.4354  0.3862  0.2582
40300SOL    HW227951   6.497   2.042   0.838  0.6513  0.0570  0.3474
40301SOL     OW27952  11.961   1.454   1.925  0.2505 -0.2418 -0.4206
40301SOL    HW127953  12.016   1.376   1.935 -0.0727 -0.3010  1.1058
40301SOL    HW227954  11.940   1.456   1.831  2.1430 -0.6872 -0.9093
40302SOL     OW27955   4.393   8.839  11.349  0.1548 -0.3019 -0.2915
40302SOL    HW127956   4.363   8.915  11.398 -0.7666 -0.9994  0.2691
40302SOL    HW227957   4.331   8.770  11.372  0.8536 -1.1710 -0.9376
40303SOL     OW27958   0.625   6.364   4.038 -0.0341  0.7078 -0.0919
40303SOL    HW127959   0.646   6.427   3.968  1.2958 -0.2104 -0.5524
40303SOL    HW227960   0.666   6.283   4.010 -0.8573 -0.1093  1.0060
40304SOL     OW27961   0.355   4.350   6.360 -0.3286  0.1112  0.4933
40304SOL    HW127962   0.380   4.438   6.388  0.2599  0.3113 -0.5979
40304SOL    HW227963   0.276   4.364   6.307 -0.4593 -0.0651  0.6399
40305SOL     OW27964   0.766   1.024   2.732  0.1554  0.4827  0.2698
40305SOL    HW127965   0.850   1.031   2.777 -0.3784 -1.1552  1.6189
40305SOL    HW227966   0.704   1.068   2.790 -0.0920  0.8558 -0.2662
40306SOL     OW27967   0.654   7.701   8.317 -0.3285  0.5858  0.1796
40306SOL    HW127968   0.708   7.631   8.353  0.2702 -0.9660 -3.3687
40306SOL    HW227969   0.564   7.675   8.339  0.0407  0.8854  2.2973
40307SOL     OW27970   5.002   1.422   2.043  0.3184  0.4232 -0.4653
40307SOL    HW127971   5.081   1.369   2.054  0.1336  0.2515  0.0742
40307SOL    HW227972   5.018   1.500   2.097  0.3585  0.6545 -0.8120
40308SOL     OW27973   2.727   9.517   4.897 -0.2479  0.1067 -0.0850
40308SOL    HW127974   2.652   9.575   4.916 -1.9131 -1.6146 -1.0623
40308SOL    HW227975   2.687   9.438   4.860  1.9100 -1.8029  1.3966
40309SOL     OW27976   6.925   4.064   9.286 -0.2898 -0.3742 -0.2804
40309SOL    HW127977   6.936   3.986   9.341  3.5784  0.2936  0.1728
40309SOL    HW227978   6.879   4.126   9.343  0.9470 -0.7296  1.1880
40310SOL     OW27979   5.537   4.839  12.360 -0.0483  0.0450  0.0107
40310SOL    HW127980   5.510   4.850  12.451  1.0809 -0.5121  0.4415
40310SOL    HW227981   5.486   4.764  12.329  2.0123 -2.0707  1.3251
40311SOL     OW27982   6.225   0.479  11.973  0.2189  0.2135  0.1856
40311SOL    HW127983   6.246   0.392  12.008  1.1297  0.2680 -0.2227
40311SOL    HW227984   6.177   0.522  12.044  2.2874  0.4274  1.5084
40312SOL     OW27985   7.707   6.684  11.043  0.6107  0.2631  0.3905
40312SOL    HW127986   7.802   6.673  11.035  0.4958 -0.1168 -0.6217
40312SOL    HW227987   7.673   6.594  11.045  0.1681  0.3861 -0.8387
40313SOL     OW27988   5.284  12.035   1.635  0.1829 -0.0850 -0.0439
40313SOL    HW127989   5.205  12.087   1.652 -0.6978 -1.0730 -0.9940
40313SOL    HW227990   5.284  12.021   1.540  0.8856 -1.0655  0.0858
40314SOL     OW27991   7.699   2.936   1.340  0.3324  0.2699  0.3540
40314SOL    HW127992   7.722   3.028   1.328  1.2584  0.1400  1.0299
40314SOL    HW227993   7.757   2.888   1.280  1.2137  0.0064  1.3820
40315SOL     OW27994   7.702   9.053   7.463  0.3973  0.6073 -0.2423
40315SOL    HW127995   7.663   9.115   7.525 -0.9822 -1.0999  0.6646
40315SOL    HW227996   7.720   9.106   7.385 -0.8317  2.1189  0.4490
40316SOL     OW27997   6.320   3.524  10.623  0.2371  0.0846  0.0549
40316SOL    HW127998   6.314   3.464  10.698  1.4509  1.4740  1.3375
40316SOL    HW227999   6.402   3.571  10.636 -0.0782  1.1793 -1.5572
40317SOL     OW28000   7.989   1.155   6.554  0.0259  0.2517 -0.4788
40317SOL    HW128001   8.010   1.231   6.501 -1.1598  0.1327 -1.1564
40317SOL    HW228002   8.053   1.089   6.528  0.3223  0.6365 -0.7329
40318SOL     OW28003   8.228   0.811   5.232  0.7661 -0.5858  0.0346
40318SOL    HW128004   8.313   0.814   5.188  0.6822 -1.0792 -0.1774
40318SOL    HW228005   8.247   0.833   5.323  0.9608  0.3582 -0.2181
40319SOL     OW28006  11.347  10.505   1.273  0.2151 -0.0706 -0.2175
40319SOL    HW128007  11.287  10.446   1.317  1.5840 -3.1255 -2.0699
40319SOL    HW228008  11.421  10.514   1.333  0.0473 -0.3873  0.0386
40320SOL     OW28009  12.434   5.289   3.029 -0.3037  0.3427 -0.0765
40320SOL    HW128010  12.501   5.323   3.088 -0.9285  0.3570  0.6468
40320SOL    HW228011  12.482   5.262   2.951  0.6856 -0.7225  0.8631
40321SOL     OW28012   1.291   7.497  11.005  0.1907  0.2832 -0.1836
40321SOL    HW128013   1.300   7.583  10.965  0.3624  0.7206  0.7664
40321SOL    HW228014   1.352   7.498  11.078 -0.2694 -0.4130  0.2222
40322SOL     OW28015  10.601   6.225   4.729 -0.1749 -0.0721  0.0041
40322SOL    HW128016  10.687   6.213   4.688 -0.8938  1.8248 -2.2785
40322SOL    HW228017  10.619   6.229   4.823  2.3523  1.0565 -0.4588
40323SOL     OW28018   0.344   0.059  11.610  0.0573  0.5337 -0.3096
40323SOL    HW128019   0.346  -0.034  11.586 -0.2830  0.3850  0.1991
40323SOL    HW228020   0.374   0.105  11.532 -2.3750  0.1881 -1.5306
40324SOL     OW28021   9.794   6.757  11.099 -0.2834  0.2239 -0.1856
40324SOL    HW128022   9.870   6.752  11.157 -0.5461  0.9450  0.2323
40324SOL    HW228023   9.719   6.751  11.159 -0.5566  0.5831 -0.4890
40325SOL     OW28024   8.210   3.558  11.699  0.0085 -0.6177 -0.2305
40325SOL    HW128025   8.246   3.520  11.780 -0.4371 -1.6272 -0.4871
40325SOL    HW228026   8.118   3.531  11.699 -0.0559 -0.4133 -0.9468
40326SOL     OW28027   6.528   3.854   9.669  0.2308  0.3797 -0.0759
40326SOL    HW128028   6.544   3.836   9.576  3.7166  1.5547  0.1614
40326SOL    HW228029   6.502   3.769   9.705  1.1370 -0.6540 -1.7060
40327SOL     OW28030   6.201  12.466   6.956  0.0921 -0.1314  0.4558
40327SOL    HW128031   6.227  12.444   6.867  0.2877  0.2652  0.4165
40327SOL    HW228032   6.279  12.503   6.996 -0.3115  0.7585  0.4369
40328SOL     OW28033   9.479  10.074   3.328 -0.5179 -0.0822  0.2315
40328SOL    HW128034   9.503  10.157   3.368 -0.4608  0.9352 -1.8073
40328SOL    HW228035   9.558  10.020   3.334  0.0457  0.6981 -0.1010
40329SOL     OW28036   7.672  11.651  10.362 -0.3081 -0.2720  0.0909
40329SOL    HW128037   7.648  11.681  10.450 -1.0398 -0.2250 -0.1169
40329SOL    HW228038   7.767  11.660  10.358 -0.1835 -0.9875  1.1497
40330SOL     OW28039   5.378  12.205   4.845  0.1775 -0.3628 -0.6591
40330SOL    HW128040   5.341  12.224   4.758  0.0913 -0.2877 -0.6056
40330SOL    HW228041   5.318  12.247   4.906  1.1058  0.9678 -0.6246
40331SOL     OW28042   0.398   1.384  11.410 -0.0666 -0.4274  0.2778
40331SOL    HW128043   0.392   1.441  11.486  0.2005  1.4032 -1.0200
40331SOL    HW228044   0.307   1.377  11.378  0.1123  0.6916 -0.5330
40332SOL     OW28045   8.486   3.965  10.018 -0.0661  0.4037  0.8288
40332SOL    HW128046   8.564   3.927   9.977 -2.0720 -0.8050 -2.2038
40332SOL    HW228047   8.503   3.959  10.112  3.9005  1.2449  0.3339
40333SOL     OW28048   7.892   2.547   4.017  0.2426  0.0323  0.0642
40333SOL    HW128049   7.941   2.616   3.973  0.2569 -0.7219 -1.1273
40333SOL    HW228050   7.813   2.536   3.964 -0.5497  0.2460  1.1592
40334SOL     OW28051   7.948  10.822   5.268 -0.1564  0.3019  0.5082
40334SOL    HW128052   7.875  10.862   5.222  1.5413  2.1373 -0.7647
40334SOL    HW228053   7.949  10.864   5.354 -0.7254  0.0827  0.6226
40335SOL     OW28054   5.690   9.680   4.938 -0.0073 -0.1213  0.1919
40335SOL    HW128055   5.674   9.773   4.948  1.5799  0.1428  0.5348
40335SOL    HW228056   5.665   9.642   5.022 -1.9993 -0.2505 -0.4056
40336SOL     OW28057   8.630   8.492  11.786 -0.5480 -0.1587  0.1434
40336SOL    HW128058   8.703   8.545  11.819 -1.4526  1.8506 -0.8932
40336SOL    HW228059   8.599   8.445  11.863  0.5405  0.5293  1.0528
40337SOL     OW28060  11.573  12.313   0.879 -1.0386 -0.5027 -0.2019
40337SOL    HW128061  11.561  12.388   0.937  0.4314 -1.2793  1.1691
40337SOL    HW228062  11.540  12.343   0.794 -0.5903  1.6403  0.3296
40338SOL     OW28063   8.934   1.150   8.652 -0.6411  0.6109 -0.0097
40338SOL    HW128064   8.848   1.176   8.685 -2.1926 -1.6817 -1.8747
40338SOL    HW228065   8.958   1.075   8.706 -0.8078 -0.0219 -0.8004
40339SOL     OW28066   1.279   7.873   9.918  0.1925  0.0772 -0.2785
40339SOL    HW128067   1.187   7.851   9.933  0.4315 -2.0118 -1.5622
40339SOL    HW228068   1.327   7.828   9.988  0.2899  1.0749  0.3251
40340SOL     OW28069   2.852   3.098  10.396  0.5196  0.7807 -0.2251
40340SOL    HW128070   2.784   3.133  10.339  0.7666  3.0574  0.7659
40340SOL    HW228071   2.811   3.092  10.482  1.0617  0.5069  0.0240
40341SOL     OW28072   5.831   6.245   8.349  0.3467  0.2226 -0.3105
40341SOL    HW128073   5.856   6.153   8.342 -0.9258 -0.1869  0.2950
40341SOL    HW228074   5.797   6.267   8.262 -2.1954 -0.8027  0.3119
40342SOL     OW28075  10.298   9.808  11.136 -0.5693 -0.3460 -0.2549
40342SOL    HW128076  10.321   9.809  11.044 -1.3097 -1.4958 -0.4804
40342SOL    HW228077  10.203   9.816  11.137 -0.3968  2.7753  0.5762
40343SOL     OW28078   4.220   2.193   0.602 -0.2423 -0.2578 -0.1923
40343SOL    HW128079   4.255   2.128   0.541 -1.2041 -0.9850  0.0001
40343SOL    HW228080   4.125   2.189   0.589 -0.3470  0.8635  0.0848
40344SOL     OW28081   4.800   8.682  11.412 -0.1218  0.2162  0.1655
40344SOL    HW128082   4.754   8.765  11.400  0.8518  0.7997  0.4441
40344SOL    HW228083   4.816   8.676  11.506  0.0785 -0.1497  0.1097
40345SOL     OW28084   8.007  11.346   9.889  0.3230 -0.8414  0.1104
40345SOL    HW128085   8.070  11.418   9.891 -2.2278  1.5471  2.6467
40345SOL    HW228086   7.935  11.379   9.835 -0.0028 -2.3810 -0.4354
40346SOL     OW28087  11.970   8.984   6.717  0.4150  0.1480  0.3902
40346SOL    HW128088  11.911   8.922   6.674  0.8896 -0.4920  0.6444
40346SOL    HW228089  12.045   8.990   6.659  1.2852 -1.1065  1.3244
40347SOL     OW28090   0.243   6.440   9.676  0.1993  0.2210 -0.0920
40347SOL    HW128091   0.155   6.406   9.657  0.6350 -1.1971  0.2621
40347SOL    HW228092   0.257   6.418   9.768  1.4354 -0.8025 -0.5046
40348SOL     OW28093   4.697   3.895   1.712 -0.1364 -0.4372 -0.5729
40348SOL    HW128094   4.732   3.821   1.663 -0.2318 -0.0579 -1.2155
40348SOL    HW228095   4.602   3.887   1.703 -0.1262  0.1603 -1.2314
40349SOL     OW28096   5.036  12.111   1.310 -0.2997 -0.2278 -0.0364
40349SOL    HW128097   5.130  12.119   1.328 -0.1411  0.2353 -1.0289
40349SOL    HW228098   5.002  12.200   1.320 -0.7745 -0.5100  1.0095
40350SOL     OW28099   7.343   6.357  10.550 -0.3429 -0.2526 -0.1379
40350SOL    HW128100   7.297   6.352  10.633 -0.6542 -0.3689 -0.3163
40350SOL    HW228101   7.294   6.421  10.499 -0.8732 -1.0699 -0.6799
40351SOL     OW28102   9.653   9.444   7.291  0.6067 -0.4310 -0.1228
40351SOL    HW128103   9.623   9.389   7.219 -0.5973 -1.8362  1.3637
40351SOL    HW228104   9.677   9.527   7.250  2.2499 -1.9182 -2.4255
40352SOL     OW28105   8.701   0.852   2.957 -0.7983 -0.4593 -0.0348
40352SOL    HW128106   8.725   0.876   2.867  0.4207 -0.5767  0.2467
40352SOL    HW228107   8.686   0.936   3.001 -0.6159 -0.3726 -0.1375
40353SOL     OW28108  10.042   5.827   8.810  0.0819 -0.0319  0.7907
40353SOL    HW128109  10.093   5.902   8.778 -1.2514  0.9254  0.8354
40353SOL    HW228110   9.958   5.864   8.835 -1.2810 -1.8034 -0.8773
40354SOL     OW28111   6.443   2.609   4.924  0.0517 -0.4103 -0.2784
40354SOL    HW128112   6.388   2.636   4.851  0.8282  1.9694 -0.0679
40354SOL    HW228113   6.395   2.537   4.965 -0.7678 -1.2846 -2.6296
40355SOL     OW28114  11.405   2.340  10.151  0.1333  0.0620  0.1668
40355SOL    HW128115  11.471   2.284  10.111  1.1145 -1.2154  3.2554
40355SOL    HW228116  11.455   2.411  10.191 -0.7353  0.9750 -0.3104
40356SOL     OW28117   0.688   6.773   7.341 -0.2493  0.3965 -0.4029
40356SOL    HW128118   0.712   6.690   7.300  0.8952  0.8263 -0.6518
40356SOL    HW228119   0.691   6.755   7.435  0.9031  0.3655 -0.4260
40357SOL     OW28120   9.908   8.296   6.563  0.1056  0.0530  0.8141
40357SOL    HW128121   9.914   8.200   6.563 -1.8960 -0.1055  1.4680
40357SOL    HW228122   9.986   8.325   6.611  1.2826 -1.1590 -0.2593
40358SOL     OW28123  12.381   4.781   4.226 -1.1567 -0.2138  0.2619
40358SOL    HW128124  12.286   4.780   4.216 -1.4268 -0.0233  2.2873
40358SOL    HW228125  12.405   4.689   4.237 -1.1497 -0.2346  0.0741
40359SOL     OW28126   5.609   5.374   8.689  0.4524 -0.1864  0.0667
40359SOL    HW128127   5.550   5.302   8.711  0.4722  0.1278  1.2143
40359SOL    HW228128   5.577   5.448   8.742  1.3109  0.2423  0.0017
40360SOL     OW28129   0.885   4.086   7.825  0.0440 -0.2905  0.4167
40360SOL    HW128130   0.803   4.080   7.873  0.1039 -1.3792  0.4081
40360SOL    HW228131   0.953   4.077   7.892  0.1367 -0.7294  0.2706
40361SOL     OW28132   2.585   0.287   2.254  0.3356 -0.5222 -0.2089
40361SOL    HW128133   2.525   0.216   2.231  1.5094 -1.5037 -0.3169
40361SOL    HW228134   2.658   0.277   2.193  0.3610  1.0062 -0.4512
40362SOL     OW28135   9.504  10.325   2.526 -0.0142 -0.1883 -0.3254
40362SOL    HW128136   9.461  10.240   2.534 -0.4494  0.0998  0.4348
40362SOL    HW228137   9.577  10.321   2.587  2.0053 -1.2282 -2.6611
40363SOL     OW28138   8.586   4.999  12.197  0.1001  0.2770 -0.5615
40363SOL    HW128139   8.633   4.918  12.217 -0.7192  0.1538  1.0110
40363SOL    HW228140   8.627   5.065  12.252 -1.3140  0.2199  0.6435
40364SOL     OW28141   8.829  11.024   8.978  0.5654  0.2165 -0.2490
40364SOL    HW128142   8.763  11.090   8.993  1.8355  1.6051 -0.5547
40364SOL    HW228143   8.902  11.049   9.035  0.4475 -1.8971  0.9221
40365SOL     OW28144   0.921   0.860  12.101  0.2464 -0.4769  0.6469
40365SOL    HW128145   0.928   0.918  12.177 -0.2705 -0.0079  0.3489
40365SOL    HW228146   0.986   0.792  12.116 -1.1326 -1.4620  2.4446
40366SOL     OW28147  12.376   2.891   0.231 -0.3235  0.0576 -0.0209
40366SOL    HW128148  12.399   2.858   0.318  0.9864  0.2838 -0.2608
40366SOL    HW228149  12.399   2.984   0.234 -0.4517  0.1089 -0.5479
40367SOL     OW28150  12.060   3.721  11.519  0.3838  0.3237  0.1490
40367SOL    HW128151  12.017   3.770  11.590  1.0974  2.0120 -0.5158
40367SOL    HW228152  12.070   3.786  11.449  0.6924 -1.0163 -1.0852
40368SOL     OW28153   2.367  11.806   9.663  0.2535 -0.5570  0.3395
40368SOL    HW128154   2.414  11.861   9.725  1.0181  1.0688 -1.5586
40368SOL    HW228155   2.282  11.849   9.652  1.0891  0.7551 -1.6372
40369SOL     OW28156  12.119   2.390   4.768  1.0765 -0.0484  0.1398
40369SOL    HW128157  12.182   2.373   4.699  0.7752  1.1796 -0.4806
40369SOL    HW228158  12.167   2.374   4.850  1.4208 -1.5551 -0.3301
40370SOL     OW28159   9.581   0.043   3.600  0.1889 -0.1367 -0.2862
40370SOL    HW128160   9.596  -0.021   3.530 -0.4488 -0.2561 -0.3162
40370SOL    HW228161   9.539   0.117   3.557 -1.3730 -0.7159  0.1559
40371SOL     OW28162   0.690  10.124   3.161  0.0518 -0.0585  0.0281
40371SOL    HW128163   0.598  10.110   3.138 -0.1656  0.5485  0.4953
40371SOL    HW228164   0.724  10.179   3.090 -0.4402  1.2451  0.7613
40372SOL     OW28165  11.720   4.831   9.670 -0.0707 -0.4503 -0.0754
40372SOL    HW128166  11.750   4.870   9.588  0.9160 -0.9930  0.0187
40372SOL    HW228167  11.682   4.904   9.718  3.6443  0.9831  1.0131
40373SOL     OW28168  11.699   8.528   7.092  0.0051  0.2470 -0.7768
40373SOL    HW128169  11.752   8.532   7.013  1.9774  0.2973  0.4666
40373SOL    HW228170  11.730   8.600   7.146 -1.5132  0.4075 -0.0484
40374SOL     OW28171  10.012   7.251   1.423 -0.0573 -0.0467 -0.8843
40374SOL    HW128172   9.989   7.191   1.494 -1.1903 -0.2220 -1.3861
40374SOL    HW228173  10.091   7.295   1.454  1.4906 -2.5767 -0.9453
40375SOL     OW28174  11.371   5.522   3.426  0.1769 -0.1505 -0.4885
40375SOL    HW128175  11.397   5.449   3.483  2.9782 -0.2665 -1.7397
40375SOL    HW228176  11.372   5.598   3.484 -0.6680 -0.7586  0.3698
40376SOL     OW28177  10.599   9.840   0.447  0.4176 -0.2893 -0.6688
40376SOL    HW128178  10.560   9.927   0.446  1.8143  0.3999  0.7943
40376SOL    HW228179  10.628   9.827   0.537  0.2920 -2.2607 -0.8693
40377SOL     OW28180   1.090   2.122   4.839 -0.0791  0.3041  0.1820
40377SOL    HW128181   1.072   2.152   4.928 -0.8207 -0.6885  0.3887
40377SOL    HW228182   1.055   2.033   4.836  1.7602 -0.4510 -0.4871
40378SOL     OW28183   8.997   1.240   4.295 -0.1943 -0.0579 -0.7806
40378SOL    HW128184   9.080   1.284   4.310 -1.4230  2.3442 -0.5017
40378SOL    HW228185   8.959   1.285   4.219 -2.3524  0.7399  0.6775
40379SOL     OW28186   1.180   5.607  12.055 -0.0556  0.1084 -0.2320
40379SOL    HW128187   1.131   5.685  12.027  0.6194  0.1460 -1.3750
40379SOL    HW228188   1.255   5.642  12.103  0.8096  0.2357 -1.6354
40380SOL     OW28189   9.133   7.995   6.495 -0.2243  0.8125  0.1047
40380SOL    HW128190   9.064   8.050   6.532 -1.0411 -0.5879  0.7293
40380SOL    HW228191   9.132   7.915   6.547  1.4526  0.4809 -0.2895
40381SOL     OW28192   6.269   6.709   0.640  0.3518 -0.0718 -0.9034
40381SOL    HW128193   6.180   6.731   0.612 -0.2403 -1.5560 -0.3301
40381SOL    HW228194   6.280   6.755   0.723 -0.7972 -1.6450  0.1951
40382SOL     OW28195   9.660   3.940   6.919  0.1368 -0.0315 -0.1906
40382SOL    HW128196   9.695   3.862   6.961 -1.0305 -0.3924  0.1674
40382SOL    HW228197   9.663   3.921   6.825  0.6683 -0.1506 -0.1485
40383SOL     OW28198   1.908   1.211   6.603  0.3275  0.1992 -0.2887
40383SOL    HW128199   1.859   1.291   6.584  0.7349  0.6065  0.3139
40383SOL    HW228200   1.850   1.140   6.577 -0.6790  0.6593  0.6098
40384SOL     OW28201   8.340   7.491   1.648  0.3314  0.1845  0.0114
40384SOL    HW128202   8.415   7.549   1.658  0.9387 -0.8131  1.7519
40384SOL    HW228203   8.264   7.547   1.663  0.8756  0.6860  1.0645
40385SOL     OW28204  11.647   6.099   3.076  0.1028  0.4968  0.6349
40385SOL    HW128205  11.656   6.188   3.109  0.6254  0.5155  0.4615
40385SOL    HW228206  11.709   6.048   3.129  1.0167  0.5388 -0.3544
40386SOL     OW28207   7.307   7.772  10.571  0.3199  0.3070  0.0552
40386SOL    HW128208   7.362   7.849  10.564  1.1784 -0.2057  0.8728
40386SOL    HW228209   7.366   7.702  10.598 -0.6201 -0.3962  0.3743
40387SOL     OW28210   1.594   3.602   3.484  0.2019  0.4356  0.6684
40387SOL    HW128211   1.629   3.531   3.538  3.5504  0.8991 -0.6671
40387SOL    HW228212   1.596   3.568   3.395 -1.3622  1.0994  0.3528
40388SOL     OW28213  11.216   9.717  10.933 -0.4237  0.8358  0.2530
40388SOL    HW128214  11.229   9.635  10.885 -2.1547 -0.6793  2.1928
40388SOL    HW228215  11.205   9.783  10.864 -0.9265 -0.8867 -1.4138
40389SOL     OW28216  11.933   3.714   5.084  0.0929  0.0890  0.2390
40389SOL    HW128217  12.027   3.703   5.075 -0.1119  0.3190 -3.6443
40389SOL    HW228218  11.903   3.745   4.999 -3.4278  0.8739  1.5534
40390SOL     OW28219   7.645   1.048  11.616 -0.5933 -0.2492  0.4322
40390SOL    HW128220   7.614   1.047  11.526 -3.9441  1.2959  1.3890
40390SOL    HW228221   7.605   0.971  11.656 -1.5586  0.6293  1.2181
40391SOL     OW28222   2.628   8.238   1.764 -0.2665  0.2069 -0.5284
40391SOL    HW128223   2.628   8.199   1.676 -0.4696 -1.2748  0.0964
40391SOL    HW228224   2.720   8.253   1.783 -0.1624 -0.1735 -0.7113
40392SOL     OW28225   8.390  11.632   0.663 -0.0485 -0.3984  0.2580
40392SOL    HW128226   8.371  11.681   0.743  1.0787  0.1826  0.1827
40392SOL    HW228227   8.428  11.697   0.604  0.7956 -1.2146 -0.1073
40393SOL     OW28228   2.420   0.073   2.225 -0.5184  0.1266 -0.1363
40393SOL    HW128229   2.422  -0.022   2.233  2.8090  0.1033  0.0725
40393SOL    HW228230   2.336   0.099   2.263 -1.8968 -2.7323 -0.9611
40394SOL     OW28231  11.390   5.752   7.861  0.6235 -0.3514 -0.7604
40394SOL    HW128232  11.424   5.839   7.843  1.4960  0.1680  2.7419
40394SOL    HW228233  11.305   5.750   7.816 -0.4587  3.1630  0.7965
40395SOL     OW28234   4.707   3.609   1.753 -0.2400  0.4461  0.5064
40395SOL    HW128235   4.685   3.608   1.846  0.6106 -1.0625  0.7349
40395SOL    HW228236   4.624   3.594   1.708 -0.3501 -1.1872  1.1583
40396SOL     OW28237   4.921   9.097   8.276  0.3559  0.7301 -0.2032
40396SOL    HW128238   4.845   9.114   8.220 -0.2313 -0.6507  0.1452
40396SOL    HW228239   4.884   9.082   8.363  1.0314  0.1468 -0.0041
40397SOL     OW28240  12.572   1.728  12.448  0.0347  0.1942  0.0128
40397SOL    HW128241  12.612   1.723  12.535 -0.6106  0.0322  0.3061
40397SOL    HW228242  12.508   1.657  12.447 -1.6711  1.6599  0.2971
40398SOL     OW28243   3.137   5.776   0.679 -0.2340  0.3544 -0.2901
40398SOL    HW128244   3.135   5.802   0.771  0.1840 -1.8158  0.3855
40398SOL    HW228245   3.231   5.768   0.658 -0.3252  0.7698 -0.9122
40399SOL     OW28246   8.538   0.297   7.287 -0.3054  0.1413 -0.0957
40399SOL    HW128247   8.597   0.365   7.319  1.4224 -0.8829 -1.0062
40399SOL    HW228248   8.485   0.341   7.221 -2.2754  1.6633  2.3187
40400SOL     OW28249   7.293  12.396   7.081 -0.0098  0.2462  0.1107
40400SOL    HW128250   7.363  12.417   7.143 -0.7633  0.0040  1.0660
40400SOL    HW228251   7.279  12.302   7.091 -0.3805  0.2698 -0.1694
40401SOL     OW28252   9.328   6.943  11.627  0.3256 -0.1708 -0.3103
40401SOL    HW128253   9.347   6.979  11.713 -0.0379  0.0464 -0.3177
40401SOL    HW228254   9.242   6.980  11.604 -0.8086 -2.2192  0.3681
40402SOL     OW28255   9.859   6.538   9.008  0.2913 -0.7114  0.4312
40402SOL    HW128256   9.894   6.566   9.093  0.3248 -0.9402  0.4914
40402SOL    HW228257   9.846   6.620   8.959  0.1710 -0.5726  0.6948
40403SOL     OW28258   3.849  12.155  10.352 -0.2196 -1.2584 -0.1335
40403SOL    HW128259   3.904  12.092  10.397 -0.5003 -0.6150  1.1419
40403SOL    HW228260   3.769  12.107  10.331  0.4480 -1.9475 -1.2266
40404SOL     OW28261  11.099   2.070   0.117  0.0931 -0.2604 -0.0220
40404SOL    HW128262  11.081   2.148   0.169 -3.2276 -1.6400  1.1478
40404SOL    HW228263  11.072   2.095   0.028  3.5013  1.2977 -0.7976
40405SOL     OW28264   8.085   5.422  10.641 -0.4701  0.0206  0.3066
40405SOL    HW128265   8.020   5.483  10.606  0.2478 -0.0422 -1.2471
40405SOL    HW228266   8.130   5.471  10.709  0.5063  1.5307 -1.3231
40406SOL     OW28267   7.667   0.741   8.306  0.5753 -0.0347 -0.2125
40406SOL    HW128268   7.740   0.679   8.304 -1.1564 -2.2276  1.1242
40406SOL    HW228269   7.619   0.725   8.226 -0.0613 -0.6781  0.2911
40407SOL     OW28270   6.625  10.828   5.293 -0.0712 -0.4861 -0.3120
40407SOL    HW128271   6.672  10.817   5.211  0.6184 -1.2100  0.1603
40407SOL    HW228272   6.644  10.748   5.343  0.0498  0.1966  0.7894
40408SOL     OW28273   9.677   4.440   6.632 -0.3341 -1.0977 -0.4154
40408SOL    HW128274   9.703   4.348   6.629 -1.6033 -1.4724 -0.4425
40408SOL    HW228275   9.747   4.483   6.682  1.2180 -1.7233 -1.9669
40409SOL     OW28276  10.740   9.543  12.277  0.1357 -0.1104  0.3964
40409SOL    HW128277  10.669   9.483  12.258  0.4381 -0.2130 -0.4507
40409SOL    HW228278  10.698   9.620  12.314 -0.2836 -0.7098  1.1804
40410SOL     OW28279   4.141   0.377   9.981 -0.1709  0.0394  0.3199
40410SOL    HW128280   4.161   0.470   9.992 -1.7017  0.6729 -1.6167
40410SOL    HW228281   4.157   0.338  10.067  0.9049  2.0084  1.0604
40411SOL     OW28282   1.091   3.317   9.337  0.4537  0.6977 -0.5164
40411SOL    HW128283   1.034   3.393   9.347 -1.8797 -0.9387 -0.4061
40411SOL    HW228284   1.096   3.303   9.242  0.4625  0.7013 -0.5164
40412SOL     OW28285   5.863   3.911   0.988  0.0069 -0.1506 -0.1158
40412SOL    HW128286   5.953   3.899   1.017  0.2534 -0.7391 -1.1206
40412SOL    HW228287   5.843   4.002   1.010  1.2274  0.3310 -0.9343
40413SOL     OW28288  10.051   4.753   1.734 -0.0873 -0.0523  0.1042
40413SOL    HW128289  10.048   4.658   1.745 -0.6686 -0.0236  0.2329
40413SOL    HW228290  10.070   4.766   1.642  2.7179 -0.2936  0.5725
40414SOL     OW28291  11.246  10.123   2.880 -0.0080 -0.6766  0.2815
40414SOL    HW128292  11.279  10.035   2.861  1.9926 -0.3371  1.8426
40414SOL    HW228293  11.316  10.164   2.931 -1.2350  1.5571  0.2833
40415SOL     OW28294   2.206   9.465  10.058  0.3591  0.1054 -0.0482
40415SOL    HW128295   2.137   9.461  10.124  0.9110 -1.1626  0.4867
40415SOL    HW228296   2.282   9.423  10.099  0.8856 -0.2044 -1.2728
40416SOL     OW28297   1.201   4.212   8.095 -0.3038  0.2790 -0.2864
40416SOL    HW128298   1.146   4.167   8.158 -1.8926  1.2449 -0.9184
40416SOL    HW228299   1.183   4.305   8.109  1.1945  0.6314 -0.5086
40417SOL     OW28300   3.324   2.079  11.919 -0.1726  0.1705  0.5684
40417SOL    HW128301   3.244   2.129  11.903 -1.6502 -1.5588  2.0354
40417SOL    HW228302   3.310   2.040  12.005  1.9718 -0.7620  0.5396
40418SOL     OW28303   2.873  11.483   5.766  0.1193  0.0220 -0.2268
40418SOL    HW128304   2.796  11.427   5.773  1.8893 -2.4929  0.1965
40418SOL    HW228305   2.880  11.525   5.852  0.7388 -1.9256  0.7352
40419SOL     OW28306   8.095  12.592  11.042 -0.1457  0.1501 -0.2221
40419SOL    HW128307   8.148  12.671  11.041  0.0165  0.0706  0.9768
40419SOL    HW228308   8.158  12.520  11.044 -0.2827  0.0375  0.3533
40420SOL     OW28309  11.684   6.979  11.960 -0.0476 -0.1970  0.4605
40420SOL    HW128310  11.692   6.909  11.896 -0.8661 -1.4033  1.6333
40420SOL    HW228311  11.738   6.950  12.034  1.7055  1.6352 -0.0112
40421SOL     OW28312   3.897   2.544   2.323 -0.4157 -0.2350 -0.1630
40421SOL    HW128313   3.807   2.511   2.321 -0.1131 -1.0554 -0.4099
40421SOL    HW228314   3.891   2.625   2.374 -1.0133 -1.1198  1.2185
40422SOL     OW28315   0.858   3.711   9.938 -0.4659  0.1806 -0.1886
40422SOL    HW128316   0.781   3.743   9.984 -1.2053 -0.9156 -0.6136
40422SOL    HW228317   0.877   3.626   9.978 -0.1973 -0.0929 -0.8747
40423SOL     OW28318   2.016   1.674  11.201 -0.4042 -0.1066 -0.4068
40423SOL    HW128319   2.012   1.769  11.186  0.7481 -0.1394 -1.1137
40423SOL    HW228320   2.081   1.664  11.270 -2.2258 -0.2702  1.3585
40424SOL     OW28321  10.019   2.257   0.126 -0.1454 -0.2842  0.0470
40424SOL    HW128322  10.109   2.275   0.099 -0.1886 -1.5877 -1.0475
40424SOL    HW228323   9.974   2.341   0.118  0.7507  0.1725 -0.2972
40425SOL     OW28324   8.428  11.962   7.104  0.1073 -0.6325  0.0829
40425SOL    HW128325   8.518  11.971   7.073 -0.4391 -0.8470 -1.6676
40425SOL    HW228326   8.431  11.989   7.196  1.7032  0.6897 -0.3160
40426SOL     OW28327   2.527   3.240   4.870  0.2344 -0.6585  0.3851
40426SOL    HW128328   2.509   3.215   4.780  6.0285 -0.4792 -1.1549
40426SOL    HW228329   2.547   3.333   4.866 -1.0342 -0.2406  2.2770
40427SOL     OW28330  11.146   7.936   3.803  0.1152 -0.0909  0.0127
40427SOL    HW128331  11.220   7.925   3.863  0.0703  2.8663  0.7551
40427SOL    HW228332  11.069   7.919   3.856  0.1161  1.7048  0.6808
40428SOL     OW28333   8.727  12.473   5.790  0.3100  0.1608 -0.0305
40428SOL    HW128334   8.765  12.439   5.871  0.4355  1.7876  0.6337
40428SOL    HW228335   8.789  12.447   5.722  0.6702 -0.4581  0.5206
40429SOL     OW28336   8.818  11.603   4.668  0.2918 -0.5767  0.3183
40429SOL    HW128337   8.841  11.553   4.590  2.3171  0.5661  0.0965
40429SOL    HW228338   8.730  11.637   4.651 -0.4353 -2.6096 -0.2225
40430SOL     OW28339   2.528  10.068   1.409  0.0017 -0.0866 -0.1608
40430SOL    HW128340   2.562   9.989   1.452  1.9920  0.5969 -0.3636
40430SOL    HW228341   2.530  10.047   1.316  2.2593  0.7647 -0.3541
40431SOL     OW28342  10.186   4.037   2.569 -0.4125  0.1043 -0.0973
40431SOL    HW128343  10.188   4.129   2.541  0.5188 -0.2715 -1.3417
40431SOL    HW228344  10.182   4.042   2.665  2.7451  1.5347  0.1087
40432SOL     OW28345   8.620  11.334   4.335 -0.2452 -0.3385 -0.3346
40432SOL    HW128346   8.563  11.365   4.405 -3.0278 -1.6345 -1.8559
40432SOL    HW228347   8.699  11.302   4.379 -1.5533 -0.3676  2.0991
40433SOL     OW28348   0.129   7.042   6.031 -0.1710  0.3082  0.7879
40433SOL    HW128349   0.183   7.120   6.033  0.9243 -0.3766 -0.3155
40433SOL    HW228350   0.172   6.982   6.092  0.4810 -0.3028 -0.2281
40434SOL     OW28351   6.271   0.898   4.844 -0.0239  0.2460 -0.2725
40434SOL    HW128352   6.351   0.847   4.832  0.2115 -0.2484  2.6022
40434SOL    HW228353   6.205   0.833   4.872 -0.4456  1.1016  0.8029
40435SOL     OW28354   2.695   7.797   6.914 -0.3775  0.2058 -0.1913
40435SOL    HW128355   2.783   7.813   6.879 -0.3857 -1.1903 -0.9389
40435SOL    HW228356   2.706   7.798   7.009  0.4740 -0.0747 -0.2810
40436SOL     OW28357   6.948   6.241  12.314 -0.0591 -0.0672 -0.0534
40436SOL    HW128358   6.978   6.283  12.394 -2.2905  0.0311  0.8123
40436SOL    HW228359   6.894   6.167  12.344 -3.2360  1.5601 -1.2628
40437SOL     OW28360   9.171  11.663   9.541 -0.1094 -0.3172 -0.2413
40437SOL    HW128361   9.148  11.573   9.565 -2.0050 -0.1483 -1.2279
40437SOL    HW228362   9.105  11.688   9.477 -0.0005  2.0162  0.4824
40438SOL     OW28363   1.307   6.148  12.495 -0.0181  0.4517  0.5662
40438SOL    HW128364   1.378   6.202  12.460 -0.4307 -0.0617 -1.1611
40438SOL    HW228365   1.252   6.210  12.544  0.4135  1.2887  0.0296
40439SOL     OW28366   9.747   1.987   0.268  0.1563  0.0558  0.2656
40439SOL    HW128367   9.689   2.009   0.341 -1.3212 -1.2132 -0.4864
40439SOL    HW228368   9.736   2.059   0.206 -2.1326 -1.0442 -0.7164
40440SOL     OW28369  11.008  12.186   6.657  0.3672  0.0268 -0.4592
40440SOL    HW128370  11.090  12.156   6.618  0.8531 -0.1255  0.6397
40440SOL    HW228371  10.941  12.164   6.593  1.1867  0.1926 -1.3976
40441SOL     OW28372   7.103   7.344   1.137 -0.3037 -0.5001  0.0262
40441SOL    HW128373   7.060   7.401   1.074  0.3601 -1.5789 -1.4493
40441SOL    HW228374   7.041   7.273   1.151 -0.3289 -0.4110  0.3737
40442SOL     OW28375   1.728   4.829   8.703  0.9644 -0.2459  0.6236
40442SOL    HW128376   1.801   4.770   8.722 -0.3613 -1.4844  2.1199
40442SOL    HW228377   1.685   4.791   8.626  1.0774 -0.3052  0.5896
40443SOL     OW28378   2.864  10.648   5.838 -0.1091 -0.0296 -0.0952
40443SOL    HW128379   2.795  10.649   5.904 -0.7126 -1.2294 -0.6740
40443SOL    HW228380   2.941  10.682   5.884 -0.5093 -0.8138  1.2357
40444SOL     OW28381   3.619   2.529   4.093 -0.1374 -0.2705 -0.4631
40444SOL    HW128382   3.559   2.595   4.128 -0.2929 -0.9687  0.6465
40444SOL    HW228383   3.584   2.508   4.007 -2.5949 -1.9616  0.8503
40445SOL     OW28384  10.615  11.415  11.734  0.2870 -0.1479 -0.0580
40445SOL    HW128385  10.689  11.386  11.681 -1.2872 -3.0405 -0.9566
40445SOL    HW228386  10.653  11.442  11.817  2.4866  0.6595 -1.2562
40446SOL     OW28387   0.559   6.317   7.591  0.8672 -0.1069  0.3871
40446SOL    HW128388   0.541   6.267   7.511 -0.0426  1.1153 -0.1976
40446SOL    HW228389   0.508   6.272   7.658 -1.4907  1.0505 -0.5043
40447SOL     OW28390   0.590   0.279   2.374 -0.0092  0.1452  0.6966
40447SOL    HW128391   0.671   0.240   2.407 -0.0358 -0.3939  0.1579
40447SOL    HW228392   0.557   0.215   2.311 -1.3974 -0.1137  1.6465
40448SOL     OW28393   6.010  10.536   5.558 -0.7591  0.0545  0.4485
40448SOL    HW128394   5.994  10.445   5.534 -1.5389  0.6589 -1.5101
40448SOL    HW228395   5.990  10.540   5.652 -2.1592 -1.4924  0.2685
40449SOL     OW28396   2.379   4.921   9.031  0.5637 -0.1038  0.6486
40449SOL    HW128397   2.334   4.919   8.946  1.8745  2.6827 -0.2203
40449SOL    HW228398   2.463   4.878   9.015 -0.0008 -1.4472  1.1422
40450SOL     OW28399   3.313   8.428   6.354 -0.5423  0.6401 -0.3153
40450SOL    HW128400   3.218   8.436   6.359 -0.4575  1.0870  0.7253
40450SOL    HW228401   3.328   8.337   6.329 -1.1782 -0.4490  2.8887
40451SOL     OW28402   8.272  11.181   2.515 -0.1931  0.2934  0.0465
40451SOL    HW128403   8.206  11.163   2.581  0.2609 -2.2793 -0.0940
40451SOL    HW228404   8.328  11.103   2.515  0.8831  0.9813 -2.1137
40452SOL     OW28405  11.260   3.906  12.075  0.1506 -0.0381 -0.2300
40452SOL    HW128406  11.309   3.984  12.099  1.1277 -0.7642  0.2106
40452SOL    HW228407  11.213   3.881  12.155 -1.1120  0.7448 -0.6919
40453SOL     OW28408   5.406  10.789   1.393  0.5739 -0.5731 -0.6666
40453SOL    HW128409   5.483  10.842   1.411 -0.2533 -0.0534  1.6760
40453SOL    HW228410   5.335  10.853   1.381  0.4241 -1.0429 -2.6616
40454SOL     OW28411   6.191   1.548   8.661  0.2544 -0.1740  0.3147
40454SOL    HW128412   6.096   1.542   8.655  0.1145  0.2973  1.7894
40454SOL    HW228413   6.210   1.551   8.755  1.7440 -0.4799  0.0569
40455SOL     OW28414   6.913   4.117   1.095 -0.5908 -0.0641 -0.0919
40455SOL    HW128415   6.821   4.137   1.113 -0.5806 -1.3734  1.7063
40455SOL    HW228416   6.911   4.030   1.055 -0.2568  0.9516 -2.4795
40456SOL     OW28417   0.614   1.173   1.382 -0.0382  0.3877 -0.3728
40456SOL    HW128418   0.604   1.088   1.339 -0.1727 -0.0622  0.5291
40456SOL    HW228419   0.533   1.186   1.431  0.6939  0.1897  0.9421
40457SOL     OW28420   4.052   3.563   4.077 -0.1053  0.3084  0.2027
40457SOL    HW128421   3.997   3.591   4.151  0.0510  1.1626  0.0021
40457SOL    HW228422   4.112   3.499   4.116  0.3127  1.1227  0.9428
40458SOL     OW28423   8.353   5.041   6.309  0.1246 -0.5761  0.1957
40458SOL    HW128424   8.409   5.105   6.353 -0.8476 -0.0690  0.7096
40458SOL    HW228425   8.409   5.005   6.240  0.1308  2.2537 -1.4444
40459SOL     OW28426   9.341   9.071   5.294 -0.3338  0.4413 -0.0784
40459SOL    HW128427   9.268   9.016   5.265 -0.2838  0.7983 -0.9058
40459SOL    HW228428   9.322   9.088   5.387 -0.4400 -0.8056  0.1515
40460SOL     OW28429   8.903   6.338   3.236  0.5592  0.3792  0.1455
40460SOL    HW128430   8.885   6.361   3.327  1.2176 -1.0457  0.6647
40460SOL    HW228431   8.824   6.364   3.189 -1.3965 -2.1334  1.7111
40461SOL     OW28432   6.040   9.715   2.946  0.1947 -0.8075 -0.4600
40461SOL    HW128433   5.975   9.669   3.000 -0.3683 -0.3543 -0.7320
40461SOL    HW228434   6.122   9.669   2.962  1.0003  1.4809  3.7910
40462SOL     OW28435   4.079   4.278   5.279 -0.4261 -0.0484  0.1851
40462SOL    HW128436   4.109   4.195   5.315  3.3960  1.0848  0.1620
40462SOL    HW228437   4.132   4.290   5.200 -1.2063  2.1612 -0.0773
40463SOL     OW28438   8.266   6.687   9.446  0.5043  0.2156 -0.3326
40463SOL    HW128439   8.246   6.610   9.499  0.6491 -0.7373 -1.6236
40463SOL    HW228440   8.259   6.761   9.507 -0.6472 -0.7066  0.6908
40464SOL     OW28441  12.047  10.612  11.939  0.0411 -0.3411 -0.0322
40464SOL    HW128442  12.051  10.686  11.999  0.8415 -0.0400 -0.4331
40464SOL    HW228443  12.100  10.544  11.980  0.9089 -0.0007 -0.5524
40465SOL     OW28444   5.918   2.796   8.233 -0.0344 -0.3533 -0.1987
40465SOL    HW128445   5.886   2.788   8.143 -0.6836  3.5399 -0.4817
40465SOL    HW228446   5.990   2.858   8.228  1.5773 -1.9376  1.7292
40466SOL     OW28447  11.564   0.385   3.179  0.7556  0.1441  0.2358
40466SOL    HW128448  11.634   0.324   3.201  0.4400 -0.5752 -0.6974
40466SOL    HW228449  11.485   0.346   3.217  0.4807 -0.2687 -0.7224
40467SOL     OW28450   5.874   0.658   8.526 -0.1549 -0.1314 -0.2177
40467SOL    HW128451   5.952   0.604   8.527  1.0877  1.4957 -1.7488
40467SOL    HW228452   5.801   0.596   8.520  1.2275 -1.6625 -3.0210
40468SOL     OW28453   8.936   7.280   5.689 -0.0551 -0.3851  0.1577
40468SOL    HW128454   8.942   7.325   5.774  0.3211 -2.0569  1.0638
40468SOL    HW228455   8.915   7.189   5.711  1.6326 -1.2280 -1.4331
40469SOL     OW28456   2.712  11.582   1.545 -0.3149 -0.6028  0.5235
40469SOL    HW128457   2.669  11.663   1.571  1.1119  0.6726 -0.8379
40469SOL    HW228458   2.650  11.540   1.485 -0.4837  0.2305  0.0934
40470SOL     OW28459   2.260   3.801   3.311 -0.0634 -0.0975 -0.3451
40470SOL    HW128460   2.304   3.716   3.319 -1.0286 -0.6672 -0.8834
40470SOL    HW228461   2.292   3.851   3.386  2.8648  0.1929 -1.6341
40471SOL     OW28462   9.854  10.857   9.864 -0.5076  0.2625  0.1694
40471SOL    HW128463   9.859  10.945   9.902  2.2522  0.1295  0.2880
40471SOL    HW228464   9.836  10.800   9.939 -0.1053  0.5224  0.4721
40472SOL     OW28465   2.355   1.458   7.071 -0.6794 -0.2371 -0.0333
40472SOL    HW128466   2.430   1.504   7.111 -0.9287  0.8033 -0.7254
40472SOL    HW228467   2.395   1.385   7.023 -0.5290 -4.1790  5.1489
40473SOL     OW28468   9.868   1.372  10.989  0.0363  0.0574 -0.3995
40473SOL    HW128469   9.891   1.279  10.993  0.0599 -0.0811 -2.6744
40473SOL    HW228470   9.951   1.418  11.005  0.0370 -0.2825  0.6749
40474SOL     OW28471   4.560   9.446  10.362  0.0324  0.3336  0.1985
40474SOL    HW128472   4.608   9.377  10.408  2.0321  1.6929  0.2853
40474SOL    HW228473   4.589   9.439  10.271 -1.9618 -0.7050 -0.4242
40475SOL     OW28474   1.489   4.033   7.504 -0.1065  0.2790 -0.9714
40475SOL    HW128475   1.517   3.945   7.479 -0.5789 -0.1350 -0.0836
40475SOL    HW228476   1.411   4.020   7.559  0.7075  1.1487  0.4679
40476SOL     OW28477  10.376   2.634   7.182  0.3549 -0.0279 -0.8325
40476SOL    HW128478  10.333   2.625   7.268  1.9304  0.2174  0.0261
40476SOL    HW228479  10.318   2.691   7.132  0.8192  2.3613  1.1445
40477SOL     OW28480   8.961  11.546   5.661 -0.0261 -0.2998 -0.0703
40477SOL    HW128481   8.953  11.641   5.665  2.3373  0.0755 -2.0361
40477SOL    HW228482   8.897  11.519   5.595 -1.9932 -0.3808  1.7575
40478SOL     OW28483   9.755   3.057   2.150 -0.5349  0.5352 -0.1125
40478SOL    HW128484   9.773   3.116   2.222 -0.9234  0.3810  0.1135
40478SOL    HW228485   9.720   2.978   2.191  0.6344 -0.1358 -0.3529
40479SOL     OW28486   4.903   4.492   3.897 -0.1889  0.0774  0.2004
40479SOL    HW128487   4.847   4.440   3.956 -2.1634 -0.5828 -2.0862
40479SOL    HW228488   4.937   4.428   3.834  0.2798  1.0359 -0.5398
40480SOL     OW28489   7.169   2.073   0.029 -0.2664  0.1309  0.2878
40480SOL    HW128490   7.195   2.163   0.047 -1.8505  0.7016 -0.1134
40480SOL    HW228491   7.205   2.023   0.102 -0.2396  1.2489  1.0652
40481SOL     OW28492   5.347   0.927   6.182  0.1785  0.2100 -0.1563
40481SOL    HW128493   5.327   0.926   6.089 -1.0794  1.5108  0.0627
40481SOL    HW228494   5.264   0.907   6.225  0.7998 -0.6312  0.6948
40482SOL     OW28495   8.369   2.184  12.351 -0.3209  0.2584  0.6520
40482SOL    HW128496   8.417   2.154  12.274  0.0067 -0.1373  1.0043
40482SOL    HW228497   8.329   2.267  12.325  0.7283  0.7052  0.4206
40483SOL     OW28498   9.400   1.083   5.529  0.1495 -0.1312 -0.1911
40483SOL    HW128499   9.423   1.109   5.439 -1.0300  2.7076  0.1936
40483SOL    HW228500   9.304   1.088   5.531  0.2044  1.8699  1.6602
40484SOL     OW28501   8.491   7.356  11.316 -0.6647  0.0578  0.4745
40484SOL    HW128502   8.556   7.306  11.266 -0.3597  0.3409  0.5855
40484SOL    HW228503   8.475   7.304  11.394 -1.0246 -0.3098  0.1622
40485SOL     OW28504  12.584   2.153   9.661 -0.4306  0.4232 -0.2112
40485SOL    HW128505  12.618   2.067   9.638 -0.7059  0.3342 -0.2900
40485SOL    HW228506  12.656   2.196   9.707 -0.8272 -0.4508  1.2760
40486SOL     OW28507   3.927   9.945   5.191  0.1588 -0.3934  0.0011
40486SOL    HW128508   3.856   9.902   5.239  1.6262 -1.4624  1.3343
40486SOL    HW228509   3.978   9.872   5.155  1.0302  0.3247 -0.2450
40487SOL     OW28510   6.537   4.686   1.058  0.0891 -0.3976  0.0189
40487SOL    HW128511   6.509   4.642   1.138  1.8886 -1.1292  0.3078
40487SOL    HW228512   6.629   4.710   1.074 -0.8749  4.0697  0.0843
40488SOL     OW28513  10.281   7.509   2.447  0.0718 -0.2114  0.3850
40488SOL    HW128514  10.315   7.594   2.420 -1.5152  0.0415 -1.0221
40488SOL    HW228515  10.323   7.446   2.388  0.6877 -0.3170  0.9344
40489SOL     OW28516   9.442   4.144   6.497 -0.4589  0.0682  0.3179
40489SOL    HW128517   9.521   4.141   6.443  0.3775  3.0579  1.2245
40489SOL    HW228518   9.471   4.114   6.584 -0.9677 -1.2638  0.0553
40490SOL     OW28519   2.586   4.501   1.284 -0.6350  0.4536 -0.6516
40490SOL    HW128520   2.543   4.463   1.207  0.3860 -0.3152 -0.8687
40490SOL    HW228521   2.629   4.579   1.250  2.5387 -1.5329 -1.7136
40491SOL     OW28522   0.164   1.284  10.261 -0.0951 -0.3316 -0.2735
40491SOL    HW128523   0.216   1.276  10.341  0.2690 -0.3616 -0.5120
40491SOL    HW228524   0.200   1.360  10.215 -0.0861 -0.5069 -0.5641
40492SOL     OW28525   6.609  12.140   6.068 -0.9854  0.3826 -0.8357
40492SOL    HW128526   6.538  12.152   6.131  0.2207 -0.4049  0.7680
40492SOL    HW228527   6.651  12.226   6.062  0.0602  0.0576  0.9927
40493SOL     OW28528  10.775   6.768   0.327  0.0010 -0.3339  0.1209
40493SOL    HW128529  10.711   6.697   0.327 -1.5887  1.0368  0.2415
40493SOL    HW228530  10.723   6.848   0.322  1.7261  0.8506 -0.0255
40494SOL     OW28531   3.767   6.591   1.334  0.2708 -0.3280  0.1159
40494SOL    HW128532   3.789   6.541   1.256  1.5388 -0.7278  0.7117
40494SOL    HW228533   3.770   6.683   1.305  0.2502 -0.4906 -0.4080
40495SOL     OW28534   3.927   6.411   6.554 -0.1016 -0.3623 -0.6996
40495SOL    HW128535   3.971   6.487   6.591  0.1147 -0.0158 -1.6503
40495SOL    HW228536   3.940   6.342   6.619  1.0451 -0.0126 -0.5290
40496SOL     OW28537  10.853   1.964   9.619 -0.2766  0.0095 -1.1229
40496SOL    HW128538  10.883   2.033   9.678 -1.2108 -0.2010 -0.3727
40496SOL    HW228539  10.758   1.960   9.634 -0.2466 -1.3621 -1.2337
40497SOL     OW28540   8.596   2.382   3.689 -0.3790 -0.2104 -0.2656
40497SOL    HW128541   8.624   2.454   3.632  0.7402  0.0567  0.5791
40497SOL    HW228542   8.546   2.426   3.759  1.7115  0.0264  1.1787
40498SOL     OW28543   1.422  11.987   1.899  0.1678 -0.2091 -0.1163
40498SOL    HW128544   1.401  12.068   1.946 -0.0967 -1.1421  1.4815
40498SOL    HW228545   1.412  12.009   1.807 -0.7209  1.3462  0.3107
40499SOL     OW28546   0.582   0.459   0.877 -0.1159  0.1356  0.3525
40499SOL    HW128547   0.544   0.503   0.801 -0.9928 -0.6304  0.3420
40499SOL    HW228548   0.602   0.371   0.847 -0.5467 -0.2002  1.0271
40500SOL     OW28549  10.613  10.314   4.026  0.2679 -0.2752 -0.1850
40500SOL    HW128550  10.520  10.336   4.034 -0.1300 -0.8898 -2.4011
40500SOL    HW228551  10.655  10.396   3.999  0.1206 -0.3365 -0.6033
40501SOL     OW28552   7.717   6.323  10.191  0.3580 -0.2915 -0.4179
40501SOL    HW128553   7.731   6.411  10.227  0.9920 -0.1753 -0.9254
40501SOL    HW228554   7.712   6.337  10.096 -0.2520 -0.7196 -0.4480
40502SOL     OW28555  10.264   5.462   0.008  0.4372  0.0228  0.0280
40502SOL    HW128556  10.309   5.489   0.088  1.1339  1.4158 -0.7833
40502SOL    HW228557  10.172   5.478   0.025  0.5559  0.0712  0.6388
40503SOL     OW28558   7.027   6.035  12.589 -0.1795 -0.2496 -0.2908
40503SOL    HW128559   7.036   5.942  12.569 -0.9252 -0.5022  0.5156
40503SOL    HW228560   6.935   6.046  12.612 -0.3034  0.8581 -1.1891
40504SOL     OW28561  11.089   1.812   9.662 -0.4571 -0.2803 -0.2123
40504SOL    HW128562  11.033   1.879   9.623 -0.5025 -0.4203 -0.3876
40504SOL    HW228563  11.050   1.795   9.748 -0.9441 -0.6897 -0.5050
40505SOL     OW28564  10.257   5.884   7.320  0.2139  0.1388  0.2920
40505SOL    HW128565  10.208   5.966   7.330  1.5559  1.0033 -0.0230
40505SOL    HW228566  10.267   5.851   7.409 -2.3280 -0.9399  0.2665
40506SOL     OW28567   0.976   6.652   7.048 -0.0452 -0.7206  0.4512
40506SOL    HW128568   1.043   6.676   6.983 -1.2099 -0.9287 -0.8739
40506SOL    HW228569   0.903   6.710   7.029 -0.4737 -0.9011  1.4928
40507SOL     OW28570  10.688  10.602   9.591  0.0082  0.2588 -0.1367
40507SOL    HW128571  10.755  10.538   9.616  0.0527  0.4210  0.1731
40507SOL    HW228572  10.670  10.650   9.672  1.4299  1.9955 -0.7796
40508SOL     OW28573   2.189   6.136   1.068 -0.1602  0.3467  0.0656
40508SOL    HW128574   2.095   6.156   1.063 -0.2606 -0.4683 -2.3530
40508SOL    HW228575   2.232   6.207   1.021  0.4887  0.7931  1.2876
40509SOL     OW28576   6.564   7.371   4.949 -0.1840  0.1556  0.5731
40509SOL    HW128577   6.520   7.404   4.871 -2.4059  0.0516  1.6882
40509SOL    HW228578   6.499   7.312   4.990  1.8402 -1.8103  1.1729
40510SOL     OW28579   3.168   3.074   4.725  0.0397 -0.2060 -0.1098
40510SOL    HW128580   3.259   3.050   4.745  0.4329  0.0228 -1.5088
40510SOL    HW228581   3.117   2.998   4.752  0.5823 -0.1563  1.1176
40511SOL     OW28582   7.402   8.083  12.440 -0.2472  0.5392 -0.7039
40511SOL    HW128583   7.399   8.075  12.345  0.5709 -1.1327 -0.6121
40511SOL    HW228584   7.313   8.062  12.469 -0.0818 -0.6479 -1.0090
40512SOL     OW28585  11.512   7.208   0.484 -0.4351 -0.0370  0.2598
40512SOL    HW128586  11.572   7.244   0.550 -0.6003  0.0081  0.3858
40512SOL    HW228587  11.492   7.120   0.517  0.3278 -0.4248 -0.2777
40513SOL     OW28588   1.343   2.813   0.895 -0.0072 -0.0477  0.2033
40513SOL    HW128589   1.394   2.777   0.968  2.5180  0.3936 -1.2199
40513SOL    HW228590   1.281   2.744   0.872 -1.4740  0.0938  3.1818
40514SOL     OW28591  10.943   9.533   2.970 -0.3425  0.5508 -0.6660
40514SOL    HW128592  11.017   9.501   2.917 -0.2653 -0.4258  0.0096
40514SOL    HW228593  10.867   9.487   2.936 -0.1656 -0.7453  0.5961
40515SOL     OW28594   7.161   1.151   8.665 -0.0416 -0.0987 -0.2888
40515SOL    HW128595   7.212   1.127   8.742  0.2297  0.2347 -0.3627
40515SOL    HW228596   7.149   1.246   8.673 -0.3771 -0.1274 -0.4345
40516SOL     OW28597   4.126   2.114   8.214 -0.2561 -0.2153  0.0908
40516SOL    HW128598   4.182   2.037   8.206  0.8205  0.4721  0.6838
40516SOL    HW228599   4.120   2.130   8.308 -0.3582  0.4876 -0.0270
40517SOL     OW28600   5.706   2.541   0.030  0.2878  0.5105 -0.6536
40517SOL    HW128601   5.755   2.461   0.047 -0.5981 -0.1440 -1.0381
40517SOL    HW228602   5.769   2.601  -0.009  1.2839  0.4872  0.8732
40518SOL     OW28603   5.195  11.872   4.734 -0.4367  0.4262 -0.3871
40518SOL    HW128604   5.136  11.927   4.785 -0.1097 -0.3932  0.9155
40518SOL    HW228605   5.169  11.887   4.643  1.3228  4.8141 -0.4325
40519SOL     OW28606   7.812   9.457   4.371 -0.2239  0.1259 -0.1480
40519SOL    HW128607   7.883   9.482   4.312  0.5629  1.0424  1.1351
40519SOL    HW228608   7.833   9.368   4.397  1.0368  0.7195  0.9830
40520SOL     OW28609   5.094   2.114  12.077 -0.7005  0.7782 -0.4442
40520SOL    HW128610   5.013   2.062  12.070 -0.0801 -0.3397  0.4231
40520SOL    HW228611   5.110   2.144  11.987 -0.3547 -1.6837 -1.2769
40521SOL     OW28612   8.609   5.226   8.157  0.1581 -0.2636  0.2457
40521SOL    HW128613   8.569   5.274   8.229 -1.0576 -0.6575 -0.1342
40521SOL    HW228614   8.679   5.175   8.197  0.2556  0.4038  0.9447
40522SOL     OW28615   2.286   5.653  10.638  0.4588 -0.2812  0.8314
40522SOL    HW128616   2.361   5.685  10.689 -0.4544  0.6521  1.6409
40522SOL    HW228617   2.294   5.698  10.554  0.4797  0.2847  1.1319
40523SOL     OW28618   0.001   6.083  10.276 -0.5318  0.4747 -0.1624
40523SOL    HW128619   0.004   5.998  10.320 -2.4219  0.9758  1.0419
40523SOL    HW228620  -0.022   6.063  10.185  2.5375 -0.5070 -0.8460
40524SOL     OW28621  12.443   3.234   9.842  0.3858 -0.3310 -0.3578
40524SOL    HW128622  12.419   3.323   9.866 -0.2990 -0.1467 -1.6077
40524SOL    HW228623  12.370   3.180   9.872 -0.9377  0.0173 -2.6698
40525SOL     OW28624   3.165   2.159   7.772 -0.3303  0.0200  0.8067
40525SOL    HW128625   3.224   2.160   7.847 -0.5215 -1.1441  0.9991
40525SOL    HW228626   3.221   2.178   7.697  0.3228 -1.1276  0.9779
40526SOL     OW28627   5.304  10.301  10.750  0.0820 -0.1929  0.1634
40526SOL    HW128628   5.277  10.316  10.841 -0.1036 -1.7782  0.4009
40526SOL    HW228629   5.396  10.276  10.757  0.6380  1.5893 -0.2986
40527SOL     OW28630   5.491   2.274   1.258 -0.1035 -0.0439  0.1088
40527SOL    HW128631   5.478   2.196   1.312  0.2489 -0.5065 -0.4634
40527SOL    HW228632   5.451   2.252   1.174 -2.1073  1.2751  0.6542
40528SOL     OW28633   6.885   1.745   1.766 -0.3885 -0.4996  0.1024
40528SOL    HW128634   6.860   1.811   1.702 -1.6111 -0.4977  0.5514
40528SOL    HW228635   6.976   1.725   1.746 -0.4759  0.1669 -1.0461
40529SOL     OW28636   1.805   3.721  12.033  0.6075  0.8833  0.6031
40529SOL    HW128637   1.844   3.650  12.085  1.6160  1.3127  0.4533
40529SOL    HW228638   1.834   3.703  11.944 -0.1356  0.8142  0.3724
40530SOL     OW28639   4.350   2.364   7.373  0.5362  0.5087 -0.2576
40530SOL    HW128640   4.386   2.399   7.291  2.7791 -1.3855 -0.1802
40530SOL    HW228641   4.378   2.426   7.440  1.1498  0.6039 -0.5924
40531SOL     OW28642   2.100   7.093   7.486 -0.4931  0.0736  0.1723
40531SOL    HW128643   2.026   7.149   7.508 -0.2266 -0.1056  1.7130
40531SOL    HW228644   2.160   7.104   7.560  1.3528  0.7417 -1.3634
40532SOL     OW28645   0.815   4.877   2.207 -0.0673 -0.7257 -0.0651
40532SOL    HW128646   0.768   4.847   2.129 -0.7878 -1.9601  0.8087
40532SOL    HW228647   0.884   4.934   2.173 -1.1606 -0.2001 -1.5016
40533SOL     OW28648  10.820   3.423   5.711 -0.4318 -0.0149 -0.0450
40533SOL    HW128649  10.879   3.409   5.785 -0.7273 -0.4382  0.1152
40533SOL    HW228650  10.763   3.347   5.712 -1.0858  0.4674 -0.1046
40534SOL     OW28651   9.908   6.963  11.392 -0.1616  0.5165  0.0376
40534SOL    HW128652   9.823   6.977  11.352  0.5226  1.5820 -1.1129
40534SOL    HW228653   9.920   6.868  11.392 -1.1063  0.3937 -0.2864
40535SOL     OW28654   8.285   7.681   9.388  0.3605  0.1505  0.0042
40535SOL    HW128655   8.202   7.648   9.423  0.1223 -0.5301 -1.1540
40535SOL    HW228656   8.346   7.607   9.395  0.5173  0.2465 -0.3048
40536SOL     OW28657   1.056   0.417   5.536 -0.1178  0.2650 -1.3127
40536SOL    HW128658   1.055   0.323   5.551 -0.3980  0.5548  0.7553
40536SOL    HW228659   0.969   0.437   5.500 -0.9087  0.0088  0.3743
40537SOL     OW28660  10.806   6.325  11.827 -0.4206  0.5710  0.4274
40537SOL    HW128661  10.861   6.292  11.755 -0.4010  0.6622  0.4000
40537SOL    HW228662  10.740   6.257  11.839 -0.5840  0.6766  0.1427
40538SOL     OW28663   5.638  10.906   9.086  0.8543 -0.4354  0.2787
40538SOL    HW128664   5.667  10.933   9.173 -0.5951 -0.7380  0.8808
40538SOL    HW228665   5.581  10.977   9.056  0.5518 -0.7930 -0.0069
40539SOL     OW28666   1.851   9.539   0.115  0.1387  0.1128 -0.2731
40539SOL    HW128667   1.899   9.561   0.035  2.9770 -2.2718  0.5617
40539SOL    HW228668   1.893   9.592   0.183  0.0962 -0.4028  0.1585
40540SOL     OW28669   0.662   1.135   9.662  0.0278 -0.5490 -1.0220
40540SOL    HW128670   0.578   1.115   9.704  0.3450  0.2260  0.0053
40540SOL    HW228671   0.659   1.229   9.646  1.0643 -0.3495 -0.1389
40541SOL     OW28672   8.071  10.819  11.493 -0.2399  0.3518  0.0921
40541SOL    HW128673   8.052  10.727  11.510  0.1343  0.2339 -0.1229
40541SOL    HW228674   8.019  10.841  11.416 -0.5024  0.3859  0.2754
40542SOL     OW28675  11.176   7.802   5.716 -0.5990 -0.2972 -0.4202
40542SOL    HW128676  11.171   7.779   5.809  0.1318 -0.3369 -0.3810
40542SOL    HW228677  11.262   7.770   5.689 -0.5872  0.2026 -0.9755
40543SOL     OW28678  10.793   1.545   3.890 -0.5460  0.6528  0.0611
40543SOL    HW128679  10.716   1.566   3.943 -1.4812 -1.9744 -0.1071
40543SOL    HW228680  10.773   1.579   3.803 -2.3323 -1.3832 -0.4082
40544SOL     OW28681  12.111   1.603   0.405 -0.1131 -0.2232  0.2574
40544SOL    HW128682  12.148   1.692   0.402  0.2633 -0.2904  1.8962
40544SOL    HW228683  12.039   1.605   0.342 -1.0290  1.6969  1.2620
40545SOL     OW28684   7.804   1.799  10.052 -0.3713  0.4183  0.1892
40545SOL    HW128685   7.777   1.713  10.085 -0.0100  0.1943 -0.0918
40545SOL    HW228686   7.754   1.811   9.971  1.3114 -0.5952 -1.0673
40546SOL     OW28687   2.411   0.426   9.027 -0.4035 -0.2451  0.2608
40546SOL    HW128688   2.318   0.426   9.050 -0.0784  0.8459  1.6922
40546SOL    HW228689   2.450   0.363   9.087 -0.1430 -0.4029 -0.0718
40547SOL     OW28690   7.592  12.332   2.389 -0.0586  0.0535 -0.0353
40547SOL    HW128691   7.632  12.314   2.474 -1.5993 -1.4336  0.4434
40547SOL    HW228692   7.525  12.397   2.407 -0.1650 -0.0171 -0.1780
40548SOL     OW28693  12.144   3.635   1.194  0.3612 -0.0859 -0.2738
40548SOL    HW128694  12.129   3.726   1.219  1.4896  0.2632 -0.7971
40548SOL    HW228695  12.101   3.584   1.263 -0.0722  0.8323  0.1553
40549SOL     OW28696   9.124   9.575  10.083  0.0236 -0.5756  0.3017
40549SOL    HW128697   9.138   9.633  10.157 -0.8551 -2.6743  2.2256
40549SOL    HW228698   9.066   9.623  10.024 -0.6696  0.4967  1.8108
40550SOL     OW28699  10.194   4.558   8.131  0.1523 -0.3836  0.0658
40550SOL    HW128700  10.247   4.519   8.200 -0.5880  0.9590  1.4613
40550SOL    HW228701  10.162   4.484   8.080  2.3826 -1.2809 -0.1176
40551SOL     OW28702  12.274   5.839   2.146  0.2648  0.5301  0.1506
40551SOL    HW128703  12.242   5.793   2.224 -0.2035 -1.6853 -1.2406
40551SOL    HW228704  12.352   5.789   2.120  0.4751  1.3008 -0.7263
40552SOL     OW28705   1.927   8.531   7.497 -0.2582  0.0935 -0.6133
40552SOL    HW128706   1.865   8.502   7.431 -0.4374 -0.5248 -0.1852
40552SOL    HW228707   2.010   8.490   7.472 -0.3975 -0.3895 -0.2815
40553SOL     OW28708   0.974   2.365   8.433 -0.0239  0.1274  0.1256
40553SOL    HW128709   1.065   2.338   8.435 -0.1676 -0.2860  1.3311
40553SOL    HW228710   0.944   2.361   8.524 -1.3749 -0.1888 -0.3003
40554SOL     OW28711  10.348   8.396  10.638 -0.2430  0.1113 -0.2569
40554SOL    HW128712  10.400   8.345  10.700 -0.0060  1.1461  0.4371
40554SOL    HW228713  10.412   8.435  10.578 -0.2455  0.9361  0.2567
40555SOL     OW28714   7.061   7.427   3.850  0.2448  0.2559 -0.3413
40555SOL    HW128715   7.026   7.439   3.938  1.4016  2.7236 -0.1350
40555SOL    HW228716   7.003   7.362   3.809 -1.6110  0.6622  1.5038
40556SOL     OW28717   3.613   0.166   6.692 -0.3886  0.1111 -0.0746
40556SOL    HW128718   3.559   0.215   6.630 -0.2507 -0.9137 -1.0342
40556SOL    HW228719   3.552   0.105   6.735 -0.0093 -1.1670 -1.2830
40557SOL     OW28720   1.704   2.536   8.189  0.1497  0.1675 -0.1042
40557SOL    HW128721   1.640   2.591   8.144 -0.1842  0.0015  0.1574
40557SOL    HW228722   1.722   2.465   8.128  1.0245  0.8669 -0.6823
40558SOL     OW28723   8.115   9.577   4.364 -0.0448  0.1141  0.3251
40558SOL    HW128724   8.085   9.521   4.292  1.0069 -0.6003  0.4191
40558SOL    HW228725   8.210   9.572   4.360  0.0382  0.1837  1.6762
40559SOL     OW28726   1.102  10.537   3.805 -0.0532 -0.6899 -0.0149
40559SOL    HW128727   1.084  10.595   3.731  2.4606  0.5201  0.2082
40559SOL    HW228728   1.068  10.584   3.881 -0.3310 -0.7374 -0.1077
40560SOL     OW28729  10.032  11.963   5.666 -0.1965  0.0554  0.0720
40560SOL    HW128730  10.090  12.037   5.650  0.7470 -0.8347 -0.7204
40560SOL    HW228731  10.024  11.959   5.761  1.5305 -0.1653  0.2300
40561SOL     OW28732   5.805   2.959  11.651  0.3510 -0.2119 -0.1114
40561SOL    HW128733   5.896   2.956  11.621  1.1885 -1.5242  2.3386
40561SOL    HW228734   5.805   3.024  11.721 -0.1970 -1.4344  1.0514
40562SOL     OW28735   8.245   8.110   0.446 -0.0639 -0.4362 -0.1913
40562SOL    HW128736   8.259   8.178   0.380  1.0076  0.5841  1.0523
40562SOL    HW228737   8.321   8.052   0.438 -0.0679 -0.4646 -0.0198
40563SOL     OW28738   5.072  11.425   9.279 -0.1732 -0.9377 -0.2862
40563SOL    HW128739   5.057  11.473   9.197  0.6817  0.8471  0.5440
40563SOL    HW228740   5.156  11.381   9.266  0.4404  0.1282 -0.0563
40564SOL     OW28741  10.602   9.316   1.330 -1.0298  0.6768  0.2590
40564SOL    HW128742  10.554   9.332   1.248 -1.2021  0.0909  0.2406
40564SOL    HW228743  10.666   9.249   1.308  0.0689  1.7127  0.1926
40565SOL     OW28744   5.282   6.589  12.153  0.1124 -0.0089 -0.0535
40565SOL    HW128745   5.363   6.636  12.173  0.7325 -1.4304  0.9656
40565SOL    HW228746   5.213   6.654  12.163  1.2335  1.9962 -3.5912
40566SOL     OW28747   3.959   4.845   3.478  0.2046  0.4874 -0.4349
40566SOL    HW128748   3.987   4.813   3.392 -0.4065 -0.2325 -0.3745
40566SOL    HW228749   4.039   4.880   3.517  0.8492 -0.6936 -0.6302
40567SOL     OW28750   2.983   3.465   3.996 -0.6470 -0.2587  0.3580
40567SOL    HW128751   2.945   3.397   3.939  0.3806 -0.4329 -0.1444
40567SOL    HW228752   2.996   3.540   3.938  2.6950 -1.2230 -0.3411
40568SOL     OW28753  12.242   4.941   7.252 -0.0571 -0.1565 -0.2452
40568SOL    HW128754  12.315   4.934   7.313 -0.0434 -1.3262 -0.3710
40568SOL    HW228755  12.282   4.924   7.166 -0.4090 -0.4321 -0.3541
40569SOL     OW28756  11.465   2.655   2.437  0.0862 -0.2173 -0.3559
40569SOL    HW128757  11.509   2.590   2.383  1.8638  0.4466  0.2305
40569SOL    HW228758  11.438   2.608   2.516  0.3797 -0.4703 -0.4083
40570SOL     OW28759   5.386   2.494  10.372  0.3803  0.0052 -0.0870
40570SOL    HW128760   5.475   2.461  10.385 -0.4095 -2.3158 -0.2381
40570SOL    HW228761   5.338   2.468  10.451 -0.5092  0.0023 -0.6121
40571SOL     OW28762   9.139   0.665   4.269  0.5159  0.3319  0.5017
40571SOL    HW128763   9.125   0.592   4.209 -0.5980  1.7432 -1.0506
40571SOL    HW228764   9.213   0.713   4.232  0.6567  0.4932  0.9896
40572SOL     OW28765   3.461   3.598  11.715 -0.2343 -0.3719  0.6879
40572SOL    HW128766   3.415   3.662  11.770 -1.7458 -0.7439 -0.0802
40572SOL    HW228767   3.471   3.522  11.771 -1.4165 -0.6114  0.6071
40573SOL     OW28768   0.775   3.833   0.029  0.0839  0.7599 -0.1675
40573SOL    HW128769   0.825   3.915   0.033 -0.8496  1.2925  1.4156
40573SOL    HW228770   0.705   3.845   0.093 -0.5104 -1.0089 -0.4474
40574SOL     OW28771   3.498   3.544   3.320  0.4498  0.2065 -0.3659
40574SOL    HW128772   3.525   3.458   3.287 -2.0803 -0.1675 -1.7122
40574SOL    HW228773   3.571   3.573   3.374  2.5383 -1.5884 -2.0416
40575SOL     OW28774   9.257   6.861   4.687 -0.1943 -0.2356 -0.2048
40575SOL    HW128775   9.342   6.858   4.644 -1.1863 -0.2576 -2.3454
40575SOL    HW228776   9.246   6.953   4.712  0.1537 -0.0812 -0.6143
40576SOL     OW28777   7.980   3.800   8.275 -0.1328  0.0685  0.3960
40576SOL    HW128778   8.030   3.721   8.295  2.7531  0.7294 -3.1599
40576SOL    HW228779   8.008   3.863   8.342  1.4191 -0.5257  0.3560
40577SOL     OW28780   1.507   9.722   3.577 -0.1007 -0.1117  0.1393
40577SOL    HW128781   1.462   9.805   3.592  0.3596  0.0182  0.8596
40577SOL    HW228782   1.458   9.680   3.507 -0.5430  0.6171  0.0043
40578SOL     OW28783   5.357   1.642   3.432 -0.0617 -0.3020  0.2090
40578SOL    HW128784   5.323   1.592   3.506 -1.6629 -0.3784 -0.5438
40578SOL    HW228785   5.312   1.726   3.438 -0.3037 -0.3601 -0.7450
40579SOL     OW28786  11.988   1.919   3.068 -0.3993 -0.0953  0.0139
40579SOL    HW128787  12.005   1.855   3.000 -0.7429  0.2720 -0.4214
40579SOL    HW228788  12.023   1.879   3.148  1.2753  0.0683 -0.6039
40580SOL     OW28789   2.146   1.691   9.556  0.5396  0.1734  0.0987
40580SOL    HW128790   2.133   1.786   9.559 -0.3248  0.0690 -0.2239
40580SOL    HW228791   2.059   1.654   9.570  0.6942 -0.5680 -0.8472
40581SOL     OW28792   8.268  11.889  10.008 -0.0612 -0.0882 -0.0585
40581SOL    HW128793   8.317  11.970  10.004 -3.0401  1.8131 -2.4804
40581SOL    HW228794   8.220  11.893  10.091 -1.5782  1.6337 -0.9561
40582SOL     OW28795   9.040  10.940  10.354  0.4154  0.4652 -0.1204
40582SOL    HW128796   9.063  10.882  10.427 -0.1238  0.5875  0.1558
40582SOL    HW228797   8.972  10.893  10.306 -0.1920  0.9575  0.2410
40583SOL     OW28798   8.689   6.903   4.345 -0.4861 -0.1514 -0.0266
40583SOL    HW128799   8.605   6.882   4.304 -0.1906 -0.6430 -0.3932
40583SOL    HW228800   8.674   6.888   4.439 -1.4593  1.9706  0.2046
40584SOL     OW28801   0.500   7.943   5.195 -0.5238  0.3413  0.1943
40584SOL    HW128802   0.533   7.891   5.269  0.9720  0.3062 -0.4733
40584SOL    HW228803   0.483   7.879   5.126 -0.3162  0.5526 -0.0538
40585SOL     OW28804  11.439  10.230   3.023 -0.2270 -0.6028 -0.0811
40585SOL    HW128805  11.390  10.272   3.094  0.5675  0.7614 -0.3011
40585SOL    HW228806  11.530  10.228   3.055  0.2880  0.7660 -1.3390
40586SOL     OW28807  12.431   1.779  11.327  0.5357 -0.2597  0.3060
40586SOL    HW128808  12.350   1.807  11.369  1.9749  1.1593  2.3738
40586SOL    HW228809  12.418   1.796  11.234 -1.4739  0.0281  0.6099
40587SOL     OW28810  12.046   4.353   4.935  0.2776 -0.4803  0.2581
40587SOL    HW128811  11.959   4.390   4.921  0.6571  1.1224  1.7939
40587SOL    HW228812  12.042   4.311   5.021  0.6925 -1.4706 -0.1910
40588SOL     OW28813   5.070   3.967   1.946  0.4152 -0.0807 -0.5720
40588SOL    HW128814   5.061   3.911   2.023 -0.0998  0.8479  0.0579
40588SOL    HW228815   5.163   3.987   1.941  0.2673  0.9617  0.6185
40589SOL     OW28816  11.787   3.075   8.266 -0.1502  0.1611  0.7793
40589SOL    HW128817  11.784   3.117   8.180 -0.9637 -0.9483  0.2473
40589SOL    HW228818  11.725   3.003   8.260  1.2184 -1.1526  1.6587
40590SOL     OW28819  11.457   8.417   2.109 -0.1717  0.5347 -0.5800
40590SOL    HW128820  11.466   8.494   2.165  1.0092  0.6226 -0.8511
40590SOL    HW228821  11.451   8.343   2.170 -2.2960  0.8917 -0.2978
40591SOL     OW28822  11.902   8.866   4.393 -0.1733  0.2537 -0.0288
40591SOL    HW128823  11.866   8.924   4.460 -0.9043  0.1884 -0.3581
40591SOL    HW228824  11.980   8.828   4.434 -0.2210  0.7445  0.5292
40592SOL     OW28825   2.770   2.822   0.603  0.0200 -0.2592  0.0511
40592SOL    HW128826   2.776   2.769   0.682  1.2762 -0.0510  0.1270
40592SOL    HW228827   2.750   2.759   0.534 -2.0724 -0.3091  0.6464
40593SOL     OW28828   3.211   3.125   2.307  0.5434  0.1442 -0.0716
40593SOL    HW128829   3.272   3.142   2.236  1.1447  0.5883  0.5412
40593SOL    HW228830   3.133   3.177   2.285  0.3044 -0.5550 -0.9355
40594SOL     OW28831   3.457   2.353   7.000 -0.3439 -0.1342 -1.0129
40594SOL    HW128832   3.519   2.305   6.944  1.0449  1.3887 -0.8362
40594SOL    HW228833   3.453   2.441   6.962 -0.8296  0.3850  0.1951
40595SOL     OW28834   2.083  12.047   6.998  0.1751 -0.3441  0.4593
40595SOL    HW128835   2.004  12.033   6.945  0.0947 -1.3680  0.8321
40595SOL    HW228836   2.136  12.107   6.946 -0.0518 -1.0553 -0.6209
40596SOL     OW28837   8.220   8.567   6.793 -0.3007 -0.1377 -0.2656
40596SOL    HW128838   8.163   8.514   6.849 -0.4445  0.1476 -0.1426
40596SOL    HW228839   8.183   8.556   6.705  1.1172 -2.2495 -0.6825
40597SOL     OW28840   8.315   3.787  11.303  0.1862  0.1805  0.1216
40597SOL    HW128841   8.316   3.696  11.333 -1.8053 -0.1464 -0.7001
40597SOL    HW228842   8.245   3.828  11.353  1.2393  1.3731  0.6759
40598SOL     OW28843   9.704   4.888   1.329 -0.2989  0.4781  0.5042
40598SOL    HW128844   9.720   4.969   1.378  1.3604  0.0599  0.7080
40598SOL    HW228845   9.783   4.836   1.342 -1.3674 -1.2294  0.4379
40599SOL     OW28846   4.650  12.353   7.113  1.0504  0.1354  0.2944
40599SOL    HW128847   4.574  12.396   7.074  1.6028  0.7324 -0.1580
40599SOL    HW228848   4.658  12.392   7.200  0.6394 -0.1782  0.4734
40600SOL     OW28849   1.453  10.268   5.671  0.0195 -0.3899 -0.2988
40600SOL    HW128850   1.395  10.196   5.646  0.1134 -0.5513 -0.0608
40600SOL    HW228851   1.464  10.319   5.591 -0.0712 -0.6260 -0.4636
40601SOL     OW28852   1.344   3.303   0.991  0.1099 -0.2751 -0.1055
40601SOL    HW128853   1.308   3.280   0.906 -1.2113 -0.4304  0.4621
40601SOL    HW228854   1.299   3.245   1.053  2.5496 -1.6425  0.5229
40602SOL     OW28855   6.450   0.223  12.041  0.3487  0.2670  0.0691
40602SOL    HW128856   6.357   0.208  12.024  0.2726  1.6883 -0.9052
40602SOL    HW228857   6.494   0.186  11.964  0.6677 -0.8749  0.7645
40603SOL     OW28858   3.705   8.661   4.012 -0.6338  0.4019 -0.0355
40603SOL    HW128859   3.651   8.655   3.933 -1.6868  0.7581  0.6308
40603SOL    HW228860   3.700   8.754   4.036  1.8108  0.8490 -0.9762
40604SOL     OW28861   6.994   8.884   3.827  0.6560 -0.4387 -0.1065
40604SOL    HW128862   7.008   8.881   3.733 -1.0612 -2.5377 -0.3763
40604SOL    HW228863   6.959   8.972   3.844 -3.2266 -1.3473 -2.2082
40605SOL     OW28864   0.388   1.173   0.705 -0.2415 -0.1232  0.4552
40605SOL    HW128865   0.397   1.082   0.733  1.6139  0.5827  2.3963
40605SOL    HW228866   0.439   1.178   0.625 -0.1426 -0.7299  0.4711
40606SOL     OW28867   2.296   7.874   7.454  0.3214  0.2430  0.0836
40606SOL    HW128868   2.279   7.786   7.488  0.8539  0.0001 -0.2577
40606SOL    HW228869   2.210   7.909   7.433  0.1446 -0.4677 -0.4191
40607SOL     OW28870   8.953  11.524  11.508 -0.1452  0.6281 -0.2646
40607SOL    HW128871   8.884  11.588  11.489  0.8864  1.3122 -1.8534
40607SOL    HW228872   8.908  11.440  11.509 -1.2740  1.2193  0.3713
40608SOL     OW28873  10.218  11.751   2.865 -0.6888  0.1045 -0.5802
40608SOL    HW128874  10.172  11.682   2.913  0.6597  0.0021  0.6673
40608SOL    HW228875  10.212  11.726   2.773  0.8177 -2.4220 -0.0995
40609SOL     OW28876   8.507   3.554  11.651 -0.4291 -0.0805  0.5723
40609SOL    HW128877   8.412   3.545  11.661 -0.8400 -0.0734 -2.3826
40609SOL    HW228878   8.521   3.553  11.556  2.5269  0.1165  0.9191
40610SOL     OW28879   2.188   9.288  10.795  0.0099  0.1936 -0.2624
40610SOL    HW128880   2.114   9.235  10.766  0.6976 -0.8745 -0.1394
40610SOL    HW228881   2.155   9.378  10.796 -1.0724 -0.1818 -0.8581
40611SOL     OW28882   6.456   1.942  10.606  0.9468 -0.1259  0.0244
40611SOL    HW128883   6.385   2.002  10.583  0.7823 -0.2481  0.2042
40611SOL    HW228884   6.460   1.880  10.533  3.0138  1.7568 -1.5994
40612SOL     OW28885   5.180   0.378   3.387  0.0166  0.1473 -0.1010
40612SOL    HW128886   5.258   0.433   3.396  0.4673 -0.7240  1.9639
40612SOL    HW228887   5.214   0.288   3.392 -1.1582 -0.2492  1.8147
40613SOL     OW28888   4.914   3.672   9.366 -0.3511 -0.7651 -0.3897
40613SOL    HW128889   4.826   3.633   9.368 -0.3379 -0.7721  0.9213
40613SOL    HW228890   4.943   3.669   9.457  1.3785 -1.5752 -0.9426
40614SOL     OW28891   3.362   9.249   9.969  0.6940  0.1470 -0.3784
40614SOL    HW128892   3.304   9.261   9.893 -0.1713  1.6991  0.4826
40614SOL    HW228893   3.333   9.166  10.007  0.6265 -0.2650 -1.2907
40615SOL     OW28894   0.409   0.532   0.590  0.1642  0.1756  0.6334
40615SOL    HW128895   0.444   0.456   0.543 -0.2497  0.5850 -0.3590
40615SOL    HW228896   0.315   0.515   0.596 -0.1110  1.1307 -0.6184
40616SOL     OW28897   8.636  11.942   9.913  0.2093  0.4915  0.1733
40616SOL    HW128898   8.727  11.961   9.933  0.9019 -2.6570  0.6188
40616SOL    HW228899   8.635  11.924   9.819  0.4652 -1.0482  0.4273
40617SOL     OW28900   9.442   0.441   1.996  0.5133  0.2582  0.3253
40617SOL    HW128901   9.501   0.438   2.072  0.8742  0.1154  0.0466
40617SOL    HW228902   9.456   0.357   1.952 -0.7697 -0.2814  0.8886
40618SOL     OW28903   9.503   1.026   7.293  0.7855 -0.7036 -0.2936
40618SOL    HW128904   9.468   1.112   7.271  0.8448 -0.3845  0.8007
40618SOL    HW228905   9.434   0.985   7.346  1.4808 -0.6086  0.7190
40619SOL     OW28906   3.152   7.367  11.929  0.0807 -0.3480  0.1851
40619SOL    HW128907   3.057   7.378  11.929  0.1538  0.4639  1.0264
40619SOL    HW228908   3.185   7.445  11.885  0.4442  0.7403  2.2657
40620SOL     OW28909   7.780   9.272   4.660  0.3265 -0.5744  0.2357
40620SOL    HW128910   7.780   9.277   4.755  1.3567 -1.7003  0.3172
40620SOL    HW228911   7.871   9.256   4.636 -0.3032 -3.4472 -0.7010
40621SOL     OW28912   8.474   7.847   2.469 -0.2345 -0.0018  0.1851
40621SOL    HW128913   8.423   7.819   2.393 -1.3280 -1.8071  1.4997
40621SOL    HW228914   8.536   7.775   2.483 -0.8027 -0.2366  1.6486
40622SOL     OW28915   0.992   7.920   8.685  0.2486 -0.5723 -0.3961
40622SOL    HW128916   1.066   7.892   8.739 -1.0715 -1.5799  0.9849
40622SOL    HW228917   0.973   7.844   8.630  0.5594 -0.1282 -1.1211
40623SOL     OW28918  10.889   4.906   7.528 -0.5020 -0.3873  0.3282
40623SOL    HW128919  10.948   4.941   7.461 -2.2462 -0.1312 -1.1640
40623SOL    HW228920  10.815   4.966   7.528  0.4816  1.0981  4.3737
40624SOL     OW28921  10.078   1.181  10.394 -0.2027 -0.0301 -0.2672
40624SOL    HW128922  10.009   1.140  10.447  0.2151  0.3194  0.5539
40624SOL    HW228923  10.150   1.196  10.455 -0.7251  2.9148 -0.2522
40625SOL     OW28924   0.687  11.299  11.987 -0.1011  0.2288 -0.0243
40625SOL    HW128925   0.639  11.219  12.007  0.2763  0.0719  0.2591
40625SOL    HW228926   0.748  11.274  11.917  0.6881  0.0183  0.7205
40626SOL     OW28927   7.274  10.451   6.415  0.1200 -0.5858 -0.0689
40626SOL    HW128928   7.249  10.530   6.369  0.6741 -0.8097 -0.7843
40626SOL    HW228929   7.265  10.472   6.508 -0.8123 -0.0597 -0.2761
40627SOL     OW28930  10.947   9.171   6.454 -0.0391  0.0854  0.8218
40627SOL    HW128931  11.009   9.109   6.417  0.9386  1.8142 -0.6188
40627SOL    HW228932  10.933   9.142   6.544  0.9475 -1.7425  0.4143
40628SOL     OW28933   3.437   0.133   9.027 -0.1247  0.0143 -0.8330
40628SOL    HW128934   3.419   0.040   9.013  0.8036 -0.3677  0.3316
40628SOL    HW228935   3.379   0.158   9.099 -0.4471  0.3738 -1.2121
40629SOL     OW28936   5.277   3.714   4.512 -0.4831 -0.3424  0.1825
40629SOL    HW128937   5.291   3.800   4.473 -1.9646 -0.3069 -0.3642
40629SOL    HW228938   5.269   3.730   4.606  0.4465 -0.0521  0.2126
40630SOL     OW28939   5.220   7.401   9.059 -0.6053  0.7120 -0.3439
40630SOL    HW128940   5.250   7.454   8.985 -1.8197  1.4364 -0.3317
40630SOL    HW228941   5.171   7.329   9.019 -1.9593  1.5526 -0.2306
40631SOL     OW28942   0.951   2.090   0.264  0.0882 -1.3550  0.0370
40631SOL    HW128943   0.893   2.139   0.205  1.3613 -0.0077 -0.1219
40631SOL    HW228944   0.924   1.998   0.251 -1.3227 -0.8650 -0.7766
40632SOL     OW28945   2.618   2.364   9.410 -0.5889 -0.5528 -0.6210
40632SOL    HW128946   2.571   2.431   9.361  0.2992  1.2851  0.8848
40632SOL    HW228947   2.583   2.281   9.377 -2.7051  0.6464 -1.6400
40633SOL     OW28948   0.614   3.480   1.853  0.1517  0.6911 -0.1793
40633SOL    HW128949   0.688   3.508   1.907  0.7540 -0.1283 -0.5509
40633SOL    HW228950   0.604   3.549   1.788  1.6462  0.0804 -1.1162
40634SOL     OW28951   4.321  11.518   4.336 -0.2094  0.6456 -0.2874
40634SOL    HW128952   4.330  11.529   4.242  2.2183 -0.6718 -0.2866
40634SOL    HW228953   4.376  11.442   4.357 -1.0051  0.6461  2.1405
40635SOL     OW28954   8.772   3.370   8.229 -0.1180 -0.0663 -0.0381
40635SOL    HW128955   8.791   3.302   8.164 -1.6251 -0.6937  0.1176
40635SOL    HW228956   8.680   3.355   8.251 -0.2962  1.6467  0.4759
40636SOL     OW28957   3.797   6.026   6.837 -0.3194 -0.3126  0.2781
40636SOL    HW128958   3.725   5.969   6.809  0.0879  0.1788 -2.0101
40636SOL    HW228959   3.854   5.970   6.889 -0.6136 -1.6423 -0.7845
40637SOL     OW28960   0.904   1.890   4.201 -0.5536 -0.1651  0.0016
40637SOL    HW128961   0.944   1.820   4.253  0.7683  0.2922 -0.3699
40637SOL    HW228962   0.976   1.927   4.151 -0.9010  2.4199  1.2533
40638SOL     OW28963   8.736   3.858   2.603 -0.2731 -0.2673 -0.0703
40638SOL    HW128964   8.736   3.953   2.589  0.8096 -0.3391 -0.6556
40638SOL    HW228965   8.824   3.830   2.579 -0.5198 -1.4046  0.2779
40639SOL     OW28966   1.118  10.426   8.202  0.4081 -0.0012 -0.1484
40639SOL    HW128967   1.174  10.348   8.208 -0.3993 -0.4888  1.2787
40639SOL    HW228968   1.138  10.477   8.281 -0.2619  0.4423 -0.2589
40640SOL     OW28969  10.809   6.017   3.863  0.0656 -0.2762  0.1435
40640SOL    HW128970  10.823   6.017   3.958 -0.5559  0.0567  0.2380
40640SOL    HW228971  10.826   5.927   3.836 -0.3146 -0.5057  0.6595
40641SOL     OW28972   3.862   4.213   3.841  0.1932  0.5616  0.3062
40641SOL    HW128973   3.875   4.188   3.932 -0.0888 -1.2217 -0.1011
40641SOL    HW228974   3.916   4.152   3.791 -2.3632 -0.8858 -0.9013
40642SOL     OW28975   1.382  10.735   9.964 -0.4428  0.3141  0.2787
40642SOL    HW128976   1.312  10.801   9.961 -0.4091  0.3252 -1.0372
40642SOL    HW228977   1.448  10.773  10.023 -0.4873  1.4168 -0.3437
40643SOL     OW28978   1.416  11.204   9.491  0.0374  0.3386 -0.4305
40643SOL    HW128979   1.335  11.241   9.526 -0.5337  1.6734 -2.9478
40643SOL    HW228980   1.396  11.112   9.475 -0.9118  0.5972 -0.7821
40644SOL     OW28981  12.429   7.984   1.096 -0.1626  0.3494 -0.4452
40644SOL    HW128982  12.377   7.954   1.021  0.2346  0.0290 -0.5904
40644SOL    HW228983  12.517   7.994   1.061 -0.2813  1.7040 -0.4127
40645SOL     OW28984   6.793   8.720   2.599 -0.3364  0.5167 -0.6064
40645SOL    HW128985   6.763   8.653   2.537  0.7787  0.6291 -1.3178
40645SOL    HW228986   6.811   8.797   2.544  1.2791  0.4203 -0.2778
40646SOL     OW28987   3.475   0.216  12.399  0.1257  0.3524 -0.2557
40646SOL    HW128988   3.418   0.264  12.459 -0.2618 -0.4388  0.0242
40646SOL    HW228989   3.505   0.140  12.449 -0.7022 -0.6634 -1.2210
40647SOL     OW28990  11.782   6.195   7.206 -0.0606  0.3579  0.7707
40647SOL    HW128991  11.700   6.215   7.161  0.3465  0.3151  0.0052
40647SOL    HW228992  11.754   6.160   7.291 -0.9064 -1.9855 -0.3951
40648SOL     OW28993   3.444   9.147   7.851  0.2650 -0.3324 -0.1322
40648SOL    HW128994   3.349   9.151   7.841  0.1355  1.2382  1.2610
40648SOL    HW228995   3.477   9.125   7.763 -1.3354 -0.3732 -0.7512
40649SOL     OW28996  10.876   7.942   3.405  0.6912  0.2051 -0.8585
40649SOL    HW128997  10.872   7.872   3.341  0.1412 -0.2691 -0.3170
40649SOL    HW228998  10.834   7.906   3.483 -1.3892  1.7712 -1.1652
40650SOL     OW28999   3.863  11.840  10.197 -0.3587  0.5621 -0.2186
40650SOL    HW129000   3.811  11.843  10.117 -0.8802  1.7842  0.1498
40650SOL    HW229001   3.805  11.871  10.266 -0.2415 -1.4068  0.8542
40651SOL     OW29002  12.117   8.723   5.719  0.7686 -0.0987  0.3556
40651SOL    HW129003  12.044   8.774   5.754  0.1509 -0.3748 -0.4840
40651SOL    HW229004  12.195   8.764   5.755  0.4506  2.8884 -2.0059
40652SOL     OW29005  10.103   6.189   0.162 -0.0686 -0.1753  0.2422
40652SOL    HW129006  10.089   6.278   0.129 -0.2173  0.2013  1.3042
40652SOL    HW229007  10.017   6.159   0.188  0.3867  0.5850  2.8630
40653SOL     OW29008  10.836   2.285   1.703 -0.2064  0.4610 -0.1426
40653SOL    HW129009  10.805   2.355   1.761 -0.3736 -0.1663  0.5269
40653SOL    HW229010  10.827   2.205   1.754  0.4053 -0.0052 -0.7462
40654SOL     OW29011  10.012   4.268   6.682  0.6386 -0.3901 -0.0334
40654SOL    HW129012   9.960   4.276   6.762  1.3408 -0.8822  0.4874
40654SOL    HW229013  10.090   4.220   6.709  0.0478 -2.2355 -1.3978
40655SOL     OW29014  12.419  11.506   1.639  0.0203  0.5879  0.3232
40655SOL    HW129015  12.350  11.477   1.698 -0.5144 -2.0463 -1.4184
40655SOL    HW229016  12.500  11.478   1.682 -0.1725  1.0772  1.0188
40656SOL     OW29017  11.672   1.594   5.019 -0.0231 -0.3155  0.2300
40656SOL    HW129018  11.634   1.525   5.074  0.2029 -0.4120  0.2654
40656SOL    HW229019  11.760   1.606   5.054 -0.1362  0.1404  0.3556
40657SOL     OW29020   7.782   1.431   3.559 -0.3113  0.2620 -0.3684
40657SOL    HW129021   7.843   1.359   3.575 -0.0525  0.3417 -0.9539
40657SOL    HW229022   7.721   1.397   3.494 -1.1819  0.0318  0.5345
40658SOL     OW29023   1.854  11.958   0.917  0.1505  0.1722  0.6514
40658SOL    HW129024   1.860  12.012   0.838 -1.2576 -1.2620 -0.5173
40658SOL    HW229025   1.941  11.920   0.926 -0.5782 -2.9644 -2.8370
40659SOL     OW29026   0.030   4.398  12.330 -0.2387  0.1046 -0.0315
40659SOL    HW129027   0.120   4.419  12.352  0.0129 -1.7700  0.9997
40659SOL    HW229028   0.037   4.325  12.269 -1.0610  0.5565 -0.6863
40660SOL     OW29029   3.954   6.623   5.406 -0.4538 -0.2692 -0.3268
40660SOL    HW129030   4.018   6.641   5.475 -0.0916  1.4624 -1.0460
40660SOL    HW229031   3.933   6.531   5.416  0.8535 -0.4608  1.0333
40661SOL     OW29032   4.070   6.576   0.460 -0.3858 -0.7750 -0.4149
40661SOL    HW129033   4.131   6.501   0.464 -0.0533 -0.5801 -1.4006
40661SOL    HW229034   4.119   6.648   0.499 -0.5697 -0.9798  0.2046
40662SOL     OW29035   7.573   2.526  10.251  0.4316 -0.0539  0.4879
40662SOL    HW129036   7.524   2.491  10.177  0.5908  0.2865  0.2215
40662SOL    HW229037   7.507   2.535  10.320  0.3591 -0.7466  0.5234
40663SOL     OW29038   6.417  11.162   2.249 -0.0757  0.4141  0.8012
40663SOL    HW129039   6.384  11.137   2.335  1.1929 -1.0195  0.9061
40663SOL    HW229040   6.512  11.163   2.258  0.0511  1.3510 -0.3119
40664SOL     OW29041   8.846   9.020  12.255  0.0645  0.0724  0.1341
40664SOL    HW129042   8.920   9.046  12.201  0.3115 -0.0341  0.4174
40664SOL    HW229043   8.843   9.084  12.326  1.1461 -1.0549  1.2636
40665SOL     OW29044   3.618   7.666  12.556 -0.0089  0.2048  1.0032
40665SOL    HW129045   3.635   7.578  12.590  0.9659 -0.0219 -0.0251
40665SOL    HW229046   3.556   7.652  12.484  0.4216  0.3028  0.6060
40666SOL     OW29047   6.875   6.217   9.767  0.7425  0.3238 -0.3434
40666SOL    HW129048   6.801   6.223   9.707 -0.2203 -0.0329  0.7585
40666SOL    HW229049   6.891   6.307   9.794  0.4390  0.3630 -0.2890
40667SOL     OW29050   0.183  12.443   1.829  0.1285  0.3427  0.2172
40667SOL    HW129051   0.147  12.511   1.772  1.9775  2.5508  1.5308
40667SOL    HW229052   0.277  12.443   1.812  0.3029 -1.2668  0.9234
40668SOL     OW29053   4.669  12.367   9.915  0.1548 -0.6992 -0.3627
40668SOL    HW129054   4.581  12.387   9.947  0.5950  0.1880  0.3185
40668SOL    HW229055   4.728  12.400   9.982  1.1457  1.8063 -2.2975
40669SOL     OW29056  10.056  10.909   6.773  0.7010 -0.3008  0.0398
40669SOL    HW129057  10.151  10.899   6.776  0.7560  0.4355  1.8618
40669SOL    HW229058  10.025  10.873   6.856 -0.8203 -2.0170 -1.1755
40670SOL     OW29059   0.558  12.216   7.013 -0.4395 -0.6369  0.0183
40670SOL    HW129060   0.645  12.193   6.982 -0.3499  0.0682 -0.2791
40670SOL    HW229061   0.523  12.275   6.946 -1.6687 -1.9290 -0.5387
40671SOL     OW29062   2.994  10.597  12.243  0.6718  0.5461 -0.1169
40671SOL    HW129063   2.908  10.618  12.208  0.0221  0.2877  1.2630
40671SOL    HW229064   3.042  10.680  12.241 -0.1617  1.0524  0.6113
40672SOL     OW29065   0.476   2.912   5.591  0.0767 -0.1211  0.4515
40672SOL    HW129066   0.451   2.909   5.499 -0.2356  0.3111  0.5208
40672SOL    HW229067   0.571   2.925   5.590  0.0294  0.2015  0.1897
40673SOL     OW29068  11.928   3.710   2.653  0.1449 -0.0594 -0.3002
40673SOL    HW129069  11.975   3.741   2.731 -1.3453  1.4287  0.0582
40673SOL    HW229070  11.967   3.759   2.581 -0.5461  0.8955 -0.0501
40674SOL     OW29071   2.621  11.744   5.958  0.1731 -0.0872  0.5519
40674SOL    HW129072   2.580  11.753   5.872  0.9414  2.5052  0.3737
40674SOL    HW229073   2.710  11.775   5.946  0.9300 -1.5894  1.8903
40675SOL     OW29074  10.693   0.140  11.524 -0.2374 -0.2150  0.0442
40675SOL    HW129075  10.612   0.126  11.575 -0.1314 -0.3198  0.1847
40675SOL    HW229076  10.664   0.136  11.433 -0.5116  0.4711  0.0998
40676SOL     OW29077  12.385   6.346  11.558  0.0239 -0.5059  0.2885
40676SOL    HW129078  12.344   6.269  11.599 -2.9097  0.7563  0.0285
40676SOL    HW229079  12.342   6.353  11.473  1.9517  0.1282 -0.6744
40677SOL     OW29080   2.608  10.304   3.420  0.7753 -0.2755  0.0335
40677SOL    HW129081   2.611  10.270   3.331  0.4417 -0.4649  0.0963
40677SOL    HW229082   2.517  10.296   3.447  0.5581  1.1794 -0.1579
40678SOL     OW29083   5.347   8.432   0.719 -0.2280  0.4162  0.0109
40678SOL    HW129084   5.276   8.489   0.750  0.4962  1.1250  0.4063
40678SOL    HW229085   5.421   8.454   0.776  0.5678  0.3293 -0.9781
40679SOL     OW29086   1.725  12.453   0.172 -0.0700  0.5965 -0.7750
40679SOL    HW129087   1.814  12.460   0.204 -0.2354 -2.4159  0.7890
40679SOL    HW229088   1.676  12.520   0.220  0.8268  0.2105  0.7306
40680SOL     OW29089   7.568   9.626   9.309 -0.2056 -0.3496  0.5563
40680SOL    HW129090   7.528   9.642   9.394 -0.1485 -0.9340  0.7020
40680SOL    HW229091   7.635   9.694   9.300  0.3791 -0.7943  1.3745
40681SOL     OW29092   4.724  11.941   2.766 -0.3340 -0.2741 -0.2104
40681SOL    HW129093   4.747  12.016   2.820 -0.4355 -0.0303 -0.5047
40681SOL    HW229094   4.637  11.916   2.796 -0.0484 -0.6648  0.3131
40682SOL     OW29095  10.991  10.662   0.424  0.2695 -0.0375 -0.1159
40682SOL    HW129096  11.020  10.582   0.469  0.2565 -0.3010 -0.5777
40682SOL    HW229097  11.067  10.692   0.376  0.7167  1.0514  1.2086
40683SOL     OW29098   6.163  11.551   1.824 -0.4374  0.5626 -0.2293
40683SOL    HW129099   6.164  11.595   1.909 -0.1169 -0.8909  0.5549
40683SOL    HW229100   6.126  11.465   1.841 -1.3252  0.6005 -1.7763
40684SOL     OW29101   4.149  12.497   9.567  0.2693  0.0205  0.0738
40684SOL    HW129102   4.241  12.478   9.551  0.0691 -0.0799 -1.0671
40684SOL    HW229103   4.129  12.570   9.509 -0.5032 -0.3340 -0.1294
40685SOL     OW29104  12.362   0.815   3.254 -0.1318 -0.0151 -0.6868
40685SOL    HW129105  12.288   0.832   3.197  0.1950 -1.1256 -1.4811
40685SOL    HW229106  12.382   0.899   3.295 -0.4282  0.7874 -2.1493
40686SOL     OW29107  11.153   4.636   1.234 -1.0151  0.0315  0.0469
40686SOL    HW129108  11.114   4.616   1.320  0.3447 -1.5121  0.3566
40686SOL    HW229109  11.247   4.623   1.247 -0.8104 -0.4614 -1.7421
40687SOL     OW29110   8.351   5.632  11.092 -0.1933 -0.5805  0.6233
40687SOL    HW129111   8.341   5.697  11.162  0.7880  0.1667  0.1069
40687SOL    HW229112   8.440   5.598  11.104  0.3038  0.1565 -0.7294
40688SOL     OW29113   4.663   5.493  12.474 -0.0647 -0.2395  0.2851
40688SOL    HW129114   4.748   5.519  12.510 -0.2698 -0.3920  0.8947
40688SOL    HW229115   4.622   5.442  12.545 -0.1820 -1.1590 -0.4243
40689SOL     OW29116   3.608   9.215   5.661 -0.1367  0.6357 -1.1160
40689SOL    HW129117   3.677   9.170   5.612 -1.0024  0.3224 -2.0893
40689SOL    HW229118   3.560   9.144   5.704 -0.5498  0.7492 -1.3846
40690SOL     OW29119   1.923  10.513   0.797  0.1188 -0.3189  0.3360
40690SOL    HW129120   1.870  10.577   0.844  0.2850 -0.3479  0.5627
40690SOL    HW229121   1.885  10.429   0.819  0.8186 -0.4140  1.2358
40691SOL     OW29122   2.295   4.532   8.938 -0.2294  0.2651 -0.5662
40691SOL    HW129123   2.234   4.600   8.908 -0.7371  1.0721  2.0429
40691SOL    HW229124   2.257   4.501   9.020  2.8575  0.8207  1.2262
40692SOL     OW29125   9.751   1.250  11.297 -0.4526  0.3897 -0.3219
40692SOL    HW129126   9.840   1.270  11.267 -0.8204  2.1822 -0.3550
40692SOL    HW229127   9.696   1.310  11.246 -1.6009 -0.1674  0.2455
40693SOL     OW29128  10.127  10.563   7.861 -0.3537  0.3009 -0.4717
40693SOL    HW129129  10.177  10.609   7.793 -0.5599  0.0540 -0.7982
40693SOL    HW229130  10.041  10.605   7.861 -0.2605  0.4929 -0.1579
40694SOL     OW29131   4.661  12.380   0.711 -0.2952 -0.0493 -0.3770
40694SOL    HW129132   4.637  12.469   0.737  0.8475 -0.1503  1.1241
40694SOL    HW229133   4.694  12.340   0.791 -0.6778 -1.8015 -1.0593
40695SOL     OW29134  11.054   7.988   9.687  0.0868  0.2550 -0.2148
40695SOL    HW129135  11.053   8.076   9.725  0.0805  0.6677 -1.1587
40695SOL    HW229136  11.000   7.935   9.747 -0.4634  1.0409 -0.0086
40696SOL     OW29137   2.703   1.999   5.560  0.8560  0.3391  0.2006
40696SOL    HW129138   2.792   1.963   5.569  0.1292 -1.1190  2.1676
40696SOL    HW229139   2.680   2.027   5.649  0.1620  2.8431 -0.6944
40697SOL     OW29140  12.104  12.482   2.719  0.1355 -0.4486  0.0437
40697SOL    HW129141  12.027  12.425   2.713  0.9238 -1.6483  0.9681
40697SOL    HW229142  12.099  12.520   2.806 -1.6959  2.9369 -1.3375
40698SOL     OW29143   4.573   0.476   7.518  0.4287 -0.7265  0.1016
40698SOL    HW129144   4.601   0.387   7.497  0.6198 -0.4219 -0.9997
40698SOL    HW229145   4.625   0.500   7.595  1.1314 -1.2017 -0.2110
40699SOL     OW29146   8.516   0.998  10.291 -0.1385 -0.2690  0.5031
40699SOL    HW129147   8.606   1.007  10.260  0.8221  4.0448  3.5087
40699SOL    HW229148   8.524   0.951  10.374 -0.8709 -0.9771  0.1782
40700SOL     OW29149  11.490   1.204   5.572  0.6107  0.3313 -0.3592
40700SOL    HW129150  11.435   1.168   5.503  1.9346 -0.8164 -0.8793
40700SOL    HW229151  11.436   1.270   5.615 -1.2472 -0.9285 -0.6547
40701SOL     OW29152   7.002  11.905   3.601  0.7750 -0.2403  0.0601
40701SOL    HW129153   7.052  11.828   3.575  1.6708 -0.0466  1.1214
40701SOL    HW229154   7.037  11.928   3.688 -0.4033  0.5560  0.3500
40702SOL     OW29155   2.672   9.487   5.375  0.2702 -0.4686  0.1322
40702SOL    HW129156   2.619   9.502   5.453 -0.4026  0.1491 -0.4289
40702SOL    HW229157   2.639   9.405   5.339  0.2285 -0.4857  0.2100
40703SOL     OW29158   7.981   9.867   7.957 -1.2133 -0.7202 -0.3530
40703SOL    HW129159   7.898   9.915   7.964 -2.2408 -2.3653 -0.5423
40703SOL    HW229160   8.022   9.901   7.877 -2.2988 -0.7231 -0.9284
40704SOL     OW29161   7.334  11.245   0.026  0.3405  0.3553 -0.3418
40704SOL    HW129162   7.278  11.323   0.025 -0.0627  0.1616  2.0593
40704SOL    HW229163   7.299  11.189  -0.043 -0.8091  1.3279 -0.5705
40705SOL     OW29164   0.681   8.491   4.426 -0.1014 -0.6087 -0.7698
40705SOL    HW129165   0.637   8.408   4.409 -0.7772 -0.6363  0.8698
40705SOL    HW229166   0.736   8.506   4.349  0.1703 -2.6445 -1.0290
40706SOL     OW29167   2.775  11.452   2.091  0.5079 -0.4965 -0.0032
40706SOL    HW129168   2.807  11.531   2.135 -0.2675 -0.3568  0.3305
40706SOL    HW229169   2.743  11.397   2.162 -0.9968 -0.1626 -0.3811
40707SOL     OW29170   9.894  10.083   9.170 -0.0057  0.2990  0.0251
40707SOL    HW129171   9.824  10.039   9.122  1.3525  0.9263 -2.7597
40707SOL    HW229172   9.851  10.155   9.216 -1.3613 -0.2163 -0.3981
40708SOL     OW29173   1.082   1.679   3.433  0.1348 -0.1596  0.2239
40708SOL    HW129174   1.127   1.762   3.445  1.7995 -0.8341 -1.0467
40708SOL    HW229175   1.134   1.615   3.482 -0.7135 -0.5982  0.5843
40709SOL     OW29176   9.163  11.606   6.189  0.0200 -0.3623 -0.5439
40709SOL    HW129177   9.217  11.608   6.111 -0.5796  0.1249 -0.9548
40709SOL    HW229178   9.223  11.583   6.260  0.3187 -2.2536 -1.3535
40710SOL     OW29179  11.379   7.606   5.002 -0.5106 -0.3185 -0.5223
40710SOL    HW129180  11.379   7.549   5.079  0.3934 -0.8480 -0.9025
40710SOL    HW229181  11.320   7.563   4.940  0.0737 -0.7895 -0.7610
40711SOL     OW29182   8.651   6.883   7.232 -0.3217 -0.2362  0.2882
40711SOL    HW129183   8.705   6.912   7.306 -1.1353 -1.2088  1.2950
40711SOL    HW229184   8.576   6.942   7.233 -0.2375 -0.1224  0.0959
40712SOL     OW29185  11.014   9.355   9.296  0.3658 -0.1044  0.2605
40712SOL    HW129186  11.034   9.402   9.215 -0.7143  1.5386  0.8887
40712SOL    HW229187  11.050   9.411   9.365 -1.7650  0.3483  1.0923
40713SOL     OW29188   9.772   2.656   9.734  0.5763 -0.3519  0.2358
40713SOL    HW129189   9.694   2.611   9.765  0.7478 -1.1191 -0.4198
40713SOL    HW229190   9.777   2.634   9.641  1.1357  0.3344  0.0944
40714SOL     OW29191   4.246   4.420   7.997  0.2744 -0.1614 -0.2108
40714SOL    HW129192   4.194   4.450   7.923  1.0070  1.4098 -0.1259
40714SOL    HW229193   4.310   4.361   7.958  0.1080 -0.0233 -0.7017
40715SOL     OW29194   6.941   7.299   6.324  0.5010  0.1516 -0.4539
40715SOL    HW129195   6.925   7.270   6.234  0.5019  0.3086 -0.5049
40715SOL    HW229196   6.969   7.391   6.315 -0.4385  0.4732 -0.2223
40716SOL     OW29197  10.796   5.263   2.648 -0.0113  0.2433  0.1779
40716SOL    HW129198  10.826   5.188   2.700  0.0349  0.7426  0.8900
40716SOL    HW229199  10.873   5.320   2.642 -0.0377  0.2189 -0.3904
40717SOL     OW29200  11.286   9.928   9.896 -0.0828 -0.1162 -0.5732
40717SOL    HW129201  11.312   9.961   9.811  0.8031 -0.9255 -0.6301
40717SOL    HW229202  11.191   9.942   9.900 -0.4519 -1.7290 -2.4445
40718SOL     OW29203   1.403   0.891   4.326 -0.1299  0.1095  0.3585
40718SOL    HW129204   1.480   0.859   4.373  1.1788  0.0435 -1.7013
40718SOL    HW229205   1.370   0.814   4.280  0.2651  0.6843 -0.9470
40719SOL     OW29206   6.129   3.239   5.311  0.2656 -0.2967 -0.2720
40719SOL    HW129207   6.061   3.213   5.374 -1.0460  1.9683 -0.6652
40719SOL    HW229208   6.108   3.329   5.288  3.2803  0.4234 -0.6447
40720SOL     OW29209   8.548   6.783   6.380 -0.0831 -0.1394 -0.4487
40720SOL    HW129210   8.631   6.831   6.379 -0.6910  1.0120 -2.5728
40720SOL    HW229211   8.484   6.847   6.349 -1.3172 -1.6951 -1.2151
40721SOL     OW29212   3.402   4.952   8.037 -0.2537  0.2226  0.1154
40721SOL    HW129213   3.370   4.947   8.127  0.3440  1.3643  0.3975
40721SOL    HW229214   3.489   4.991   8.044  0.2043 -0.5663 -0.8771
40722SOL     OW29215   5.004   2.598   9.409  0.2885 -0.3080  0.2502
40722SOL    HW129216   5.089   2.618   9.449  0.6115 -0.2870 -0.4170
40722SOL    HW229217   4.997   2.662   9.338  1.0171 -2.0717 -1.5007
40723SOL     OW29218   3.663   7.312   6.332  0.0862 -0.2336  0.0402
40723SOL    HW129219   3.722   7.371   6.379 -0.1400 -0.4093  0.5465
40723SOL    HW229220   3.721   7.246   6.293  0.1487 -1.1321  1.5717
40724SOL     OW29221   4.412   6.492   5.435 -0.0909  0.0546 -0.2772
40724SOL    HW129222   4.377   6.405   5.414 -0.5311  0.1098  0.2128
40724SOL    HW229223   4.419   6.492   5.531  0.4718  0.3455 -0.3149
40725SOL     OW29224  10.117   7.125   1.227  0.0382  0.3916  0.1946
40725SOL    HW129225  10.064   7.165   1.296  0.5040 -0.6687  1.2121
40725SOL    HW229226  10.082   7.161   1.146 -1.4466  0.6371  0.9033
40726SOL     OW29227   4.696   9.614   4.831  1.5030 -0.5049 -0.2876
40726SOL    HW129228   4.661   9.614   4.743  0.8188  0.1773 -0.0235
40726SOL    HW229229   4.740   9.699   4.840  1.0136 -0.2951  0.2299
40727SOL     OW29230  11.247   1.383   5.576 -0.0576  0.0001  0.2509
40727SOL    HW129231  11.315   1.440   5.539 -0.6984  1.9535  1.8935
40727SOL    HW229232  11.192   1.359   5.502  0.5452  1.1213 -0.5797
40728SOL     OW29233   7.149   2.503   9.519 -0.1585 -0.2293 -0.1273
40728SOL    HW129234   7.211   2.468   9.583 -1.8635 -1.1688  1.1110
40728SOL    HW229235   7.078   2.540   9.572  0.0637  2.3283 -1.4620
40729SOL     OW29236   5.484   9.415   9.534 -0.2719 -0.2951  0.9336
40729SOL    HW129237   5.561   9.437   9.481 -2.2319  3.7928 -0.6017
40729SOL    HW229238   5.441   9.345   9.485  1.1402 -0.9555  0.5634
40730SOL     OW29239   0.475   6.149   7.767  0.2587 -0.0565  0.1653
40730SOL    HW129240   0.466   6.137   7.861 -1.3386  0.6262  0.1303
40730SOL    HW229241   0.394   6.114   7.730  1.8086 -2.4716 -1.2041
40731SOL     OW29242   0.078   2.025   0.638  0.1607  0.3363  0.2840
40731SOL    HW129243   0.106   1.943   0.600  0.3408  0.5048  0.0498
40731SOL    HW229244   0.069   2.085   0.564  0.2995  0.6061  0.4808
40732SOL     OW29245  11.128   8.028   2.521  0.3225 -0.1776  0.2578
40732SOL    HW129246  11.149   8.036   2.614  0.8874 -2.0591  0.3273
40732SOL    HW229247  11.162   8.109   2.482 -2.4828  2.0592  2.0458
40733SOL     OW29248   4.435  10.432   1.442 -0.2581  0.7361  0.0055
40733SOL    HW129249   4.382  10.379   1.502 -1.1838  1.9085  0.2615
40733SOL    HW229250   4.408  10.405   1.355 -0.1566  0.2443  0.1250
40734SOL     OW29251   8.325   8.444   1.398  0.6102 -0.1937 -0.8968
40734SOL    HW129252   8.292   8.400   1.320  0.5581 -0.5322 -0.6871
40734SOL    HW229253   8.247   8.468   1.448  0.6464 -0.0479 -0.9083
40735SOL     OW29254   4.985   7.769   1.472 -0.1674  0.3451  0.3258
40735SOL    HW129255   5.046   7.796   1.541 -1.7348 -0.6407  2.1841
40735SOL    HW229256   4.954   7.683   1.499 -0.1462 -0.5288 -2.1379
40736SOL     OW29257   8.123  12.038   3.287  0.3916  0.1997  0.7204
40736SOL    HW129258   8.055  12.022   3.353  0.1417 -0.2561  0.3596
40736SOL    HW229259   8.077  12.083   3.216  0.0248 -1.7051 -0.3271
40737SOL     OW29260   9.816   9.935   1.342 -0.0847 -0.1545  0.2927
40737SOL    HW129261   9.759   9.969   1.411 -0.0654 -0.4603  0.4610
40737SOL    HW229262   9.861   9.861   1.382  0.1426 -0.1553  0.0393
40738SOL     OW29263  10.194   4.169   7.549 -0.2093  0.3480 -0.1025
40738SOL    HW129264  10.145   4.251   7.559 -1.8628 -0.5710 -0.3360
40738SOL    HW229265  10.216   4.166   7.456  1.1085  1.1838  0.1586
40739SOL     OW29266   5.624   7.509   4.491  0.3518  0.1899  0.5576
40739SOL    HW129267   5.704   7.540   4.533  0.8190  1.1387 -0.9760
40739SOL    HW229268   5.570   7.587   4.481 -0.4455 -0.3058  0.8419
40740SOL     OW29269  10.834   1.317   6.593 -0.2377  0.3776 -0.0214
40740SOL    HW129270  10.918   1.362   6.607 -0.0425 -0.1402  0.5215
40740SOL    HW229271  10.802   1.299   6.682 -0.6864  0.1384 -0.2309
40741SOL     OW29272   6.135   0.132  10.807 -0.5608  0.6321 -0.4990
40741SOL    HW129273   6.090   0.142  10.891  0.8874  0.2690  0.3551
40741SOL    HW229274   6.205   0.069  10.824 -0.2735  0.5013 -2.0050
40742SOL     OW29275   2.884  12.548  10.756 -0.6215 -0.1139 -0.5118
40742SOL    HW129276   2.969  12.538  10.712 -0.3491  1.9313 -0.5501
40742SOL    HW229277   2.860  12.459  10.782  0.0129 -1.1843 -3.2526
40743SOL     OW29278   3.111  12.447  11.128 -0.0515  0.4975 -0.0469
40743SOL    HW129279   3.132  12.412  11.214 -1.3769  2.1587  1.0116
40743SOL    HW229280   3.017  12.433  11.118  0.1277  0.0762 -1.3622
40744SOL     OW29281   9.662   6.062  12.553 -0.3623  0.4966  1.0729
40744SOL    HW129282   9.679   6.034  12.643  2.6250 -0.1955  0.3891
40744SOL    HW229283   9.678   5.984  12.500 -3.2650  0.5497 -0.0640
40745SOL     OW29284   2.038  11.832   4.918 -0.1861  0.0542  0.5709
40745SOL    HW129285   2.061  11.839   5.011  0.5131 -1.5437  0.5408
40745SOL    HW229286   2.109  11.782   4.878 -1.9469 -2.0337 -0.1922
40746SOL     OW29287   2.109   9.315   1.827 -0.5331 -0.2992 -0.0140
40746SOL    HW129288   2.186   9.321   1.770 -1.2637 -0.3425 -1.0175
40746SOL    HW229289   2.055   9.247   1.789 -0.7754 -0.7361  1.0688
40747SOL     OW29290   1.114   7.590  12.453  0.5849 -0.2230 -0.1111
40747SOL    HW129291   1.085   7.637  12.376  0.5646  0.1708  0.1364
40747SOL    HW229292   1.123   7.499  12.424  0.4527 -0.0984 -0.5394
40748SOL     OW29293   2.998   0.740   7.461 -0.1333 -0.3128  0.1835
40748SOL    HW129294   3.091   0.752   7.442  0.3950 -0.5986  2.3946
40748SOL    HW229295   2.985   0.645   7.457 -0.0703 -0.3562  0.9532
40749SOL     OW29296   1.008  10.380  10.219 -0.0515 -0.5722 -0.2098
40749SOL    HW129297   0.973  10.461  10.182  2.6015  0.9224  0.3167
40749SOL    HW229298   1.090  10.364  10.172  1.0044 -1.2433  1.7270
40750SOL     OW29299   1.887   2.814   3.267  0.3644 -0.4239  0.0336
40750SOL    HW129300   1.977   2.803   3.236  0.1117 -0.2435 -0.7992
40750SOL    HW229301   1.834   2.817   3.187 -0.2363  0.8677  0.4528
40751SOL     OW29302   3.474   9.609  12.211 -0.4787  0.3450  0.3856
40751SOL    HW129303   3.534   9.659  12.156  0.3101 -0.1913  0.7514
40751SOL    HW229304   3.392   9.659  12.208  0.8099  2.8571  2.3334
40752SOL     OW29305  12.038   1.515   4.549 -0.3334 -0.5667 -0.1323
40752SOL    HW129306  12.112   1.570   4.522 -0.4098 -0.4708 -0.1481
40752SOL    HW229307  11.967   1.577   4.566 -0.4246 -0.6624 -0.1627
40753SOL     OW29308   2.352   3.206   0.549  0.4040 -0.2465 -0.3267
40753SOL    HW129309   2.299   3.281   0.524 -0.3659 -0.7883 -0.3849
40753SOL    HW229310   2.428   3.209   0.491  1.7840  1.9757  1.4227
40754SOL     OW29311  12.327   4.294   1.900 -0.0521  0.0229 -0.2166
40754SOL    HW129312  12.259   4.230   1.879  0.0671  0.5787 -2.5791
40754SOL    HW229313  12.281   4.365   1.944 -0.4200 -1.0209  1.1396
40755SOL     OW29314   2.298   8.739   2.665  1.0173 -0.5832  0.0280
40755SOL    HW129315   2.250   8.797   2.606 -0.5934 -0.6987  1.1646
40755SOL    HW229316   2.270   8.651   2.639 -1.2605 -0.5888  2.1108
40756SOL     OW29317  10.279   8.587  11.734 -0.5914  0.1857 -0.9821
40756SOL    HW129318  10.310   8.497  11.730 -1.0914 -0.0978  0.7009
40756SOL    HW229319  10.356   8.640  11.714  0.7553 -0.5288  1.7902
40757SOL     OW29320   8.890   4.181   2.727 -0.4227 -0.5019 -0.1081
40757SOL    HW129321   8.852   4.143   2.648 -0.0629  0.6158 -0.8345
40757SOL    HW229322   8.977   4.211   2.701 -0.2433 -0.2438  0.7442
40758SOL     OW29323   3.127  10.859   4.968  0.4871 -0.1277  0.0558
40758SOL    HW129324   3.205  10.903   4.934 -0.6473  2.9803  1.1251
40758SOL    HW229325   3.140  10.857   5.063 -0.9801  1.1109  0.3194
40759SOL     OW29326   5.956  12.058   1.259 -0.5771  0.0336 -0.3703
40759SOL    HW129327   5.920  11.977   1.294  0.3108 -0.4167 -0.4823
40759SOL    HW229328   5.894  12.084   1.191 -1.3313 -0.0718  0.2703
40760SOL     OW29329   7.943   6.472  11.246 -0.0227  0.0788 -0.0400
40760SOL    HW129330   8.021   6.503  11.291  1.0320 -0.8301 -1.1784
40760SOL    HW229331   7.877   6.465  11.315  0.8746  0.8870  0.9401
40761SOL     OW29332  12.590   2.413   0.922  0.4615  0.2733  0.2068
40761SOL    HW129333  12.525   2.343   0.920 -1.2348  1.7879 -0.9522
40761SOL    HW229334  12.640   2.401   0.841 -0.5766  1.0015 -0.5783
40762SOL     OW29335  11.380  11.851   5.274 -0.1952 -0.1114 -0.0784
40762SOL    HW129336  11.373  11.775   5.217  1.2438  0.4119 -1.0004
40762SOL    HW229337  11.387  11.814   5.362 -1.8921 -0.9407 -0.2468
40763SOL     OW29338  12.532   8.539   4.725  0.5532 -0.1075 -0.4950
40763SOL    HW129339  12.478   8.618   4.721  0.5438 -0.1243 -0.7295
40763SOL    HW229340  12.541   8.512   4.634  0.9786 -0.0861 -0.4627
40764SOL     OW29341  10.095   0.571   1.597  0.1632  0.5123 -0.6770
40764SOL    HW129342  10.044   0.574   1.679  0.6999  0.4289 -0.3381
40764SOL    HW229343  10.165   0.635   1.611  1.6609 -1.1741 -0.1224
40765SOL     OW29344  12.565   9.869   1.384  0.0592  0.1058  0.5203
40765SOL    HW129345  12.613   9.884   1.302  0.6145  2.1902  1.1808
40765SOL    HW229346  12.564   9.774   1.393  0.1651 -0.1901 -1.7915
40766SOL     OW29347   7.193   0.429   3.188  0.2503  0.2572  0.2876
40766SOL    HW129348   7.202   0.475   3.104 -1.1442  0.6623  0.3217
40766SOL    HW229349   7.252   0.354   3.181  1.6910  1.3952 -0.2367
40767SOL     OW29350  10.589   3.428   4.516  0.0801 -0.2825 -0.0948
40767SOL    HW129351  10.646   3.351   4.512  1.5986  0.7542  0.5744
40767SOL    HW229352  10.556   3.439   4.427  1.5048 -0.5283 -0.6719
40768SOL     OW29353   2.591   4.436   1.878 -0.1145  0.2077  0.4142
40768SOL    HW129354   2.575   4.348   1.913  1.7332 -0.1157  0.5472
40768SOL    HW229355   2.515   4.453   1.822 -1.6356 -0.5255  2.1288
40769SOL     OW29356   5.950   3.302  12.401  0.2382  0.0117  0.6338
40769SOL    HW129357   6.035   3.286  12.442  0.3856  0.6689  0.6052
40769SOL    HW229358   5.906   3.217  12.401  1.1973 -0.4988 -0.0634
40770SOL     OW29359  11.999  10.176   1.912 -0.8102 -0.0883 -0.0262
40770SOL    HW129360  12.067  10.134   1.965 -0.9144 -0.4385 -0.1677
40770SOL    HW229361  12.015  10.270   1.923 -1.1153 -0.1483  0.9927
40771SOL     OW29362   7.374   9.601   1.418  0.2515 -0.2570 -0.2927
40771SOL    HW129363   7.279   9.599   1.413  0.2119  0.0636  0.3674
40771SOL    HW229364   7.400   9.663   1.349 -0.0315 -0.0840 -0.2444
40772SOL     OW29365   6.067  11.753   5.053  0.7496  0.3526  0.2639
40772SOL    HW129366   6.004  11.810   5.095  0.7035  0.6787 -0.2498
40772SOL    HW229367   6.145  11.808   5.040  0.5819  0.4035 -0.5500
40773SOL     OW29368   8.844   7.704   2.905 -0.1555  0.0336 -0.0788
40773SOL    HW129369   8.844   7.613   2.875 -2.2041 -0.1032  0.1785
40773SOL    HW229370   8.900   7.703   2.983  0.0734 -0.9518 -0.2371
40774SOL     OW29371   3.532   9.818   9.658  0.1266 -0.1991  0.0549
40774SOL    HW129372   3.494   9.738   9.694 -4.3130  2.4136  2.1287
40774SOL    HW229373   3.605   9.838   9.716  0.4275 -1.9777  0.3595
40775SOL     OW29374   9.591   4.722   6.168  0.5273  0.2567 -0.0888
40775SOL    HW129375   9.621   4.655   6.230  0.0119  0.1193  0.0152
40775SOL    HW229376   9.592   4.804   6.218  0.0804  0.1406  0.1166
40776SOL     OW29377  10.931   6.671   1.287  0.3625  0.1713 -0.3549
40776SOL    HW129378  10.913   6.670   1.381  1.5336  1.0118 -0.1026
40776SOL    HW229379  10.993   6.599   1.273  2.5647  1.8931  0.0683
40777SOL     OW29380   8.245   9.279   7.433  0.7406  0.0394  0.2093
40777SOL    HW129381   8.319   9.337   7.418  0.5359  0.3573  0.4367
40777SOL    HW229382   8.260   9.205   7.374  0.5836  0.6991 -0.6808
40778SOL     OW29383   0.814   8.346   6.132 -0.7653 -0.1005  0.0639
40778SOL    HW129384   0.845   8.435   6.148  2.0824 -0.9019 -0.4929
40778SOL    HW229385   0.779   8.348   6.043  1.5418  0.0116 -0.9135
40779SOL     OW29386   9.194   1.244   7.084  0.5272  1.0632 -0.4202
40779SOL    HW129387   9.188   1.184   7.158  1.0051  0.1627 -1.0906
40779SOL    HW229388   9.104   1.262   7.060  0.3658  0.1076 -0.5896
40780SOL     OW29389  12.282  11.902   3.843 -0.4556  0.7604  0.0483
40780SOL    HW129390  12.358  11.913   3.901 -0.3169  0.1824 -0.0131
40780SOL    HW229391  12.226  11.977   3.863 -1.1604 -0.2149  2.0766
40781SOL     OW29392   7.927   1.056   5.237 -0.7495  0.4026  0.0768
40781SOL    HW129393   7.866   1.124   5.264  0.0949  1.3602 -0.3309
40781SOL    HW229394   8.011   1.083   5.277 -0.2957 -0.1173 -0.5093
40782SOL     OW29395   9.496   0.389  11.355 -0.3174  0.0497  0.1198
40782SOL    HW129396   9.543   0.410  11.437  0.8168 -2.2163  0.1200
40782SOL    HW229397   9.559   0.411  11.286 -0.4434 -0.1014 -0.0414
40783SOL     OW29398   8.237   8.294   5.022 -0.3359  0.4199 -0.3074
40783SOL    HW129399   8.239   8.352   5.098 -0.2117 -0.8813  0.7110
40783SOL    HW229400   8.322   8.251   5.022  0.3989  1.6797 -2.2679
40784SOL     OW29401   8.143   6.597   3.544  0.1388  0.0998 -0.0023
40784SOL    HW129402   8.056   6.591   3.582 -0.3674  1.6617 -0.8601
40784SOL    HW229403   8.201   6.609   3.619 -0.7003  1.8338  0.4080
40785SOL     OW29404   8.889   5.163  11.388 -0.5630 -0.3652 -0.5960
40785SOL    HW129405   8.908   5.092  11.449 -0.5420  0.8249  0.8382
40785SOL    HW229406   8.970   5.173  11.337  0.7063  0.7941  1.4780
40786SOL     OW29407   2.875   9.638  11.743  0.5473  0.3524  0.6796
40786SOL    HW129408   2.802   9.679  11.696  0.9074 -0.2570 -0.4540
40786SOL    HW229409   2.913   9.578  11.679  1.5514  0.0775  1.5203
40787SOL     OW29410   0.737  11.358   3.651 -0.2769  0.2423 -0.2680
40787SOL    HW129411   0.802  11.314   3.596 -1.5069 -0.6500 -1.0588
40787SOL    HW229412   0.774  11.352   3.740  1.1792  0.6721 -0.8112
40788SOL     OW29413   1.733   7.819   5.763 -0.4775  0.1377  0.2919
40788SOL    HW129414   1.738   7.816   5.859  0.0935 -1.8466  0.2340
40788SOL    HW229415   1.641   7.801   5.744 -0.3537 -0.7064  0.4512
40789SOL     OW29416   8.620   1.648   4.001  0.1428 -0.1467 -0.2868
40789SOL    HW129417   8.597   1.709   3.931 -0.1787  0.4341  0.3092
40789SOL    HW229418   8.539   1.600   4.019 -0.4040  1.2073  1.1343
40790SOL     OW29419  12.321   5.707   9.567 -0.2630  0.4280  0.3873
40790SOL    HW129420  12.398   5.650   9.561 -2.6591 -3.1774  0.6700
40790SOL    HW229421  12.271   5.687   9.488 -2.1415  0.5609  1.4823
40791SOL     OW29422   0.163   7.197   8.720  0.0299  0.5187  0.3692
40791SOL    HW129423   0.183   7.249   8.798  0.7827  1.6682 -0.5545
40791SOL    HW229424   0.076   7.161   8.738  1.3155 -1.6909  2.9802
40792SOL     OW29425   7.526   2.666  11.697  0.5168 -0.1273  0.0779
40792SOL    HW129426   7.581   2.641  11.622 -2.0700  0.8553 -2.2930
40792SOL    HW229427   7.555   2.755  11.719 -2.3115  2.0114 -3.6741
40793SOL     OW29428   9.840   1.808  12.558  0.2121 -0.0594 -0.2314
40793SOL    HW129429   9.808   1.774  12.475  1.1112  1.3854 -1.2076
40793SOL    HW229430   9.813   1.900  12.558  1.3826  0.2957  0.4658
40794SOL     OW29431   6.826   9.488   9.997  0.0548 -0.2818  0.6391
40794SOL    HW129432   6.773   9.431   9.940 -2.3292  2.6954 -0.3704
40794SOL    HW229433   6.889   9.528   9.937 -1.4686  1.7011  0.2521
40795SOL     OW29434   2.958  10.751   1.714  0.3590 -0.3059  0.0953
40795SOL    HW129435   2.907  10.807   1.772  0.2775  0.9335 -1.1088
40795SOL    HW229436   3.035  10.804   1.691  0.1874 -0.5927 -1.2379
40796SOL     OW29437   5.553   4.266   7.639 -0.2808 -0.4481 -0.4328
40796SOL    HW129438   5.567   4.194   7.700 -2.4448  0.1808  0.9160
40796SOL    HW229439   5.467   4.249   7.601 -0.0006  0.4501 -1.5505
40797SOL     OW29440   6.980   3.909   7.800  0.4275 -0.1525  0.0182
40797SOL    HW129441   7.000   3.816   7.798 -0.4308 -0.3314 -0.3652
40797SOL    HW229442   6.984   3.933   7.893  0.3410 -0.6311  0.1452
40798SOL     OW29443   1.659  10.661   4.266 -0.1197 -0.0153 -0.1928
40798SOL    HW129444   1.728  10.625   4.322  1.0110  1.4639 -0.5963
40798SOL    HW229445   1.673  10.618   4.181  0.2860  0.2502 -0.2629
40799SOL     OW29446   9.213  12.271   3.949 -0.5673  0.4087  0.4122
40799SOL    HW129447   9.307  12.268   3.968 -0.3932 -0.4937 -0.5201
40799SOL    HW229448   9.176  12.199   4.000 -0.6664  0.3570  0.2650
40800SOL     OW29449   9.483  12.310   3.181  0.6657  0.0110 -0.2717
40800SOL    HW129450   9.514  12.228   3.143 -0.3711 -0.9357  0.8048
40800SOL    HW229451   9.412  12.338   3.123  0.8720  0.0343 -0.5154
40801SOL     OW29452   4.642   1.458   5.442 -0.4622  0.1272 -0.3727
40801SOL    HW129453   4.721   1.440   5.391  0.6818 -1.3631  1.7781
40801SOL    HW229454   4.595   1.524   5.391  2.7326  1.9930 -1.2039
40802SOL     OW29455   5.640   9.158   5.669  0.1256 -0.2885 -0.2021
40802SOL    HW129456   5.558   9.145   5.622  1.1863 -1.8400 -1.7521
40802SOL    HW229457   5.645   9.085   5.730 -0.3515  0.6759  1.0248
40803SOL     OW29458   7.458  10.193   3.504 -0.0734  0.2276 -0.5677
40803SOL    HW129459   7.369  10.223   3.484  0.4121  0.4388 -2.6363
40803SOL    HW229460   7.504  10.273   3.531  0.0389  0.5310 -1.6268
40804SOL     OW29461   7.951  12.549   8.197 -0.0006  0.3007 -0.0950
40804SOL    HW129462   7.895  12.624   8.218 -0.6381  0.0814 -0.9931
40804SOL    HW229463   7.962  12.553   8.102  1.7056  0.4715  0.0626
40805SOL     OW29464  10.237   5.128   9.383  0.1862 -0.0959 -0.8229
40805SOL    HW129465  10.194   5.100   9.303 -1.0475 -0.1297 -0.1756
40805SOL    HW229466  10.217   5.221   9.391  0.1319 -0.1335 -0.4676
40806SOL     OW29467   0.078   6.471   5.778 -0.0415 -0.3751  0.4681
40806SOL    HW129468   0.108   6.495   5.690 -2.1817  1.6367  0.2094
40806SOL    HW229469   0.138   6.516   5.837  0.1684 -0.0640  0.0201
40807SOL     OW29470   3.613   0.981   8.897  0.0474  0.2185 -0.5066
40807SOL    HW129471   3.613   1.076   8.909 -0.3941  0.2402 -0.6715
40807SOL    HW229472   3.521   0.955   8.906  0.3212 -0.3671  0.9303
40808SOL     OW29473   9.430   4.906  12.179  0.1319 -0.0089  0.8853
40808SOL    HW129474   9.369   4.880  12.110  1.6137 -0.6312 -0.2567
40808SOL    HW229475   9.461   4.993  12.151  0.0761  0.1277  1.2455
40809SOL     OW29476   9.776   0.912   5.737 -0.5387 -0.1260  0.2381
40809SOL    HW129477   9.849   0.904   5.675 -0.5196 -0.9922  0.3626
40809SOL    HW229478   9.773   1.006   5.757  0.9440 -0.1466  0.7182
40810SOL     OW29479   3.177   9.611  10.740 -0.3575  0.4847  0.7742
40810SOL    HW129480   3.247   9.586  10.680 -1.7270 -0.2067 -0.6144
40810SOL    HW229481   3.121   9.534  10.744 -1.0722  1.0418  1.8166
40811SOL     OW29482   8.586   9.091   9.150  0.5347 -0.4227  0.0217
40811SOL    HW129483   8.505   9.087   9.200 -0.1173  0.6633 -0.8845
40811SOL    HW229484   8.606   9.000   9.128  0.6713 -0.8974  1.9174
40812SOL     OW29485   4.733   7.024   6.065 -0.0285 -0.0406  0.1761
40812SOL    HW129486   4.699   7.010   5.977 -0.6415 -1.8386  0.6683
40812SOL    HW229487   4.822   7.056   6.051 -0.7123  1.5117 -1.0842
40813SOL     OW29488   9.492   2.093   2.100 -0.4541  0.1497 -0.1955
40813SOL    HW129489   9.537   2.096   2.016  0.6346  0.7852  0.3835
40813SOL    HW229490   9.434   2.017   2.094 -0.1359 -0.0099 -1.3862
40814SOL     OW29491   5.892   5.438   7.716  0.1208  0.5847  0.3773
40814SOL    HW129492   5.960   5.371   7.726 -0.2476 -0.0875 -1.2503
40814SOL    HW229493   5.837   5.428   7.793  0.3292 -0.7040  0.3799
40815SOL     OW29494  11.031   9.777   0.569  0.9873  0.2971 -0.1202
40815SOL    HW129495  11.115   9.738   0.595  1.2924  0.7519 -0.4068
40815SOL    HW229496  10.995   9.811   0.651  0.9373 -0.1654  0.0540
40816SOL     OW29497  10.010  12.425   2.944  0.1494 -0.2211 -0.6898
40816SOL    HW129498  10.013  12.402   3.037  0.1236  0.2839 -0.5601
40816SOL    HW229499  10.038  12.516   2.941 -2.5626  0.7015 -0.8431
40817SOL     OW29500   7.909   6.364   3.469  0.2329 -0.4537  0.5932
40817SOL    HW129501   7.880   6.398   3.554  2.9171  0.9482  1.0678
40817SOL    HW229502   7.877   6.428   3.406  0.8370  0.1943  0.9247
40818SOL     OW29503  11.343  10.575  10.262  0.1257  0.5801 -0.6013
40818SOL    HW129504  11.431  10.540  10.273 -0.2680 -0.5398 -0.8756
40818SOL    HW229505  11.354  10.670  10.262  1.0584  0.5411  1.7222
40819SOL     OW29506  12.524   6.447   3.263 -0.6991 -0.2477 -0.4512
40819SOL    HW129507  12.582   6.378   3.230 -1.6569 -1.3793  0.1264
40819SOL    HW229508  12.574   6.488   3.334 -0.9748 -1.9583  0.7984
40820SOL     OW29509   7.894   4.727  12.221 -0.7950 -0.4758 -0.1372
40820SOL    HW129510   7.924   4.752  12.308 -1.7052 -2.1481  0.7127
40820SOL    HW229511   7.962   4.668  12.188 -1.6002 -1.8270  0.5205
40821SOL     OW29512   8.679   4.953   1.203 -0.4278  0.3234 -0.0306
40821SOL    HW129513   8.754   4.948   1.263 -1.4232  0.2605  1.2496
40821SOL    HW229514   8.668   4.863   1.172  1.0226  0.6158 -1.5510
40822SOL     OW29515   8.644   5.142   9.031  0.4856 -0.6613  0.0778
40822SOL    HW129516   8.691   5.059   9.029  0.4642 -0.7282  1.6718
40822SOL    HW229517   8.712   5.208   9.016 -0.0008 -0.9699 -5.9086
40823SOL     OW29518   6.915   3.196   0.394 -0.4335 -0.5076  0.2052
40823SOL    HW129519   6.844   3.135   0.414  0.5217 -1.4713  0.7154
40823SOL    HW229520   6.987   3.142   0.364  0.3925  0.3767  0.5338
40824SOL     OW29521   8.986   7.773   7.448  0.0281 -0.2759  0.6574
40824SOL    HW129522   8.987   7.825   7.367  0.6921  0.5153  1.1597
40824SOL    HW229523   8.894   7.750   7.460 -0.5466  1.9994  1.1646
40825SOL     OW29524   2.185  12.420  11.237 -0.1851 -0.1213  0.0205
40825SOL    HW129525   2.280  12.434  11.239  0.0956 -1.7505 -0.4107
40825SOL    HW229526   2.170  12.369  11.157 -1.5996  1.1546 -0.5748
40826SOL     OW29527   5.166  11.832   7.644  0.3951  0.2193 -0.4627
40826SOL    HW129528   5.105  11.765   7.673 -0.5009  1.2005 -0.0311
40826SOL    HW229529   5.131  11.861   7.559  1.5671 -0.8239 -1.3402
40827SOL     OW29530  12.490   5.897   0.308  0.5705  0.4053  0.3233
40827SOL    HW129531  12.555   5.963   0.330  1.0010 -0.6186  2.4055
40827SOL    HW229532  12.407   5.945   0.303  1.4275  1.7861 -2.7452
40828SOL     OW29533   7.329   2.661   8.664 -0.4342  0.6005 -0.2369
40828SOL    HW129534   7.418   2.680   8.634  0.0576  0.6176  1.1622
40828SOL    HW229535   7.305   2.738   8.716 -0.3068 -0.4369  1.4243
40829SOL     OW29536   0.213   3.484   5.071 -0.2669 -0.3732  0.6903
40829SOL    HW129537   0.291   3.436   5.098 -0.0098  0.2969  1.1427
40829SOL    HW229538   0.232   3.575   5.090 -0.8222 -0.1022 -0.0096
40830SOL     OW29539  12.502   4.184   8.533 -0.1562 -0.2204 -0.2360
40830SOL    HW129540  12.425   4.163   8.480 -0.0289  0.4215 -0.6853
40830SOL    HW229541  12.567   4.215   8.469  0.1508  0.1453  0.2485
40831SOL     OW29542  11.880   7.090  11.574 -0.2094 -0.1712 -0.2167
40831SOL    HW129543  11.951   7.061  11.631  1.1449  0.8244 -1.3136
40831SOL    HW229544  11.827   7.148  11.628  0.0663 -0.5865  0.5092
40832SOL     OW29545   2.298  11.123   8.399  0.0615  0.0639  0.0190
40832SOL    HW129546   2.302  11.033   8.431  1.2078 -0.5551 -1.7318
40832SOL    HW229547   2.372  11.167   8.441 -0.0817  0.0084  0.3306
40833SOL     OW29548   2.206   5.245   1.750 -0.1480  0.6411 -0.1463
40833SOL    HW129549   2.282   5.300   1.767  0.3788 -0.1692  0.1617
40833SOL    HW229550   2.141   5.273   1.814  0.5806  0.0214  0.9017
40834SOL     OW29551  10.473   2.463   5.819 -0.1917  0.0705 -0.1492
40834SOL    HW129552  10.444   2.443   5.730  1.7452  1.8735 -1.3118
40834SOL    HW229553  10.409   2.526   5.852 -0.7319 -0.3400 -0.4089
40835SOL     OW29554   1.903   3.025   6.554  0.1071  0.4193  0.1562
40835SOL    HW129555   1.886   3.050   6.645  0.5898 -0.2611  0.4448
40835SOL    HW229556   1.826   2.977   6.527  0.7393 -1.0407  0.8465
40836SOL     OW29557  10.819   8.649   2.763  0.0359  0.1688 -0.3150
40836SOL    HW129558  10.768   8.569   2.777 -0.0377  0.5365  1.9496
40836SOL    HW229559  10.910   8.624   2.782 -0.2603  1.0486  2.8017
40837SOL     OW29560   8.711   8.731   4.848 -0.1955  0.2518  0.1199
40837SOL    HW129561   8.632   8.708   4.896 -0.8212  0.5569 -0.7337
40837SOL    HW229562   8.735   8.652   4.800 -1.5255  0.8891 -1.6925
40838SOL     OW29563   6.950  10.055   0.797 -0.1381  0.9135  0.4674
40838SOL    HW129564   6.906   9.992   0.855 -0.9270  0.7748 -0.2636
40838SOL    HW229565   6.885  10.076   0.731  0.8541  0.8209 -0.5628
40839SOL     OW29566  11.797  11.962  10.622 -0.8657  0.0826 -0.3444
40839SOL    HW129567  11.782  11.880  10.670  0.5977 -0.1864 -0.2933
40839SOL    HW229568  11.773  11.942  10.532 -1.4199 -0.1140 -0.1546
40840SOL     OW29569   9.570  11.407   9.489  0.0670 -0.0249 -0.4903
40840SOL    HW129570   9.501  11.375   9.547  1.5222  0.8675  1.8813
40840SOL    HW229571   9.639  11.436   9.548  1.5042  1.3338 -2.7032
40841SOL     OW29572  10.431   4.659   1.618  0.3907 -0.5554 -0.3059
40841SOL    HW129573  10.355   4.690   1.569  0.4464 -1.1421 -0.7642
40841SOL    HW229574  10.507   4.690   1.568  0.4541 -0.6328 -0.2581
40842SOL     OW29575   0.285  11.861   2.606  0.3194 -0.0488 -0.3707
40842SOL    HW129576   0.240  11.828   2.529  0.4199 -0.3722 -0.2923
40842SOL    HW229577   0.326  11.784   2.645 -0.5363 -0.0654  0.5477
40843SOL     OW29578   2.799   4.531  12.084 -0.0827  0.3346  0.9267
40843SOL    HW129579   2.846   4.481  12.017 -0.6956  0.5285  0.3578
40843SOL    HW229580   2.841   4.504  12.166  1.2603  0.7551  0.4061
40844SOL     OW29581   6.623   7.590   4.352  0.2720 -0.3309 -0.2513
40844SOL    HW129582   6.691   7.606   4.417 -0.4972  1.6153  0.1573
40844SOL    HW229583   6.629   7.497   4.332  2.0690 -0.4876  0.8570
40845SOL     OW29584   7.862   1.281   8.782  0.5713  0.0452 -0.0783
40845SOL    HW129585   7.929   1.216   8.800  2.9197  2.3613  0.2658
40845SOL    HW229586   7.833   1.263   8.693  3.7229  0.5232 -1.3246
40846SOL     OW29587   0.246   7.777   7.182 -0.0286 -0.0073 -0.0180
40846SOL    HW129588   0.197   7.859   7.185 -0.1986 -0.0382 -1.4265
40846SOL    HW229589   0.189   7.717   7.135  1.9489  0.4564 -3.3939
40847SOL     OW29590   7.371   9.398   7.628  0.6981  0.2859 -0.4237
40847SOL    HW129591   7.382   9.363   7.540 -0.3593 -1.8181  0.2102
40847SOL    HW229592   7.318   9.477   7.617 -0.1135 -0.4098 -1.5967
40848SOL     OW29593   3.139   2.309  12.202  0.7213 -0.4324 -0.2962
40848SOL    HW129594   3.061   2.272  12.243  0.0069  0.5102 -0.7522
40848SOL    HW229595   3.175   2.368  12.268 -0.3394  0.9633 -0.8908
40849SOL     OW29596   4.266  10.365   7.548  0.1551  0.2322 -0.1714
40849SOL    HW129597   4.211  10.414   7.488 -0.7028  0.9334  1.1499
40849SOL    HW229598   4.221  10.282   7.561 -1.9087  1.6037  2.6032
40850SOL     OW29599   8.120   0.102   6.701 -0.3269  0.1174 -0.0366
40850SOL    HW129600   8.105   0.152   6.781  0.3838 -0.2740  0.3533
40850SOL    HW229601   8.046   0.123   6.645 -1.6627 -0.8254  1.3194
40851SOL     OW29602   2.907   9.014   8.943 -0.0990  0.2354 -0.4911
40851SOL    HW129603   2.947   8.991   9.027 -2.7224  0.8349  1.0496
40851SOL    HW229604   2.959   9.088   8.911  1.4944 -0.5755  0.1354
40852SOL     OW29605   1.163   0.700   8.212 -0.1732  0.4172  0.4913
40852SOL    HW129606   1.130   0.756   8.141  0.5789 -0.3224 -0.4533
40852SOL    HW229607   1.256   0.719   8.216 -0.5045  1.9655  2.6781
40853SOL     OW29608   9.259   2.459  12.387  0.1844  0.0942 -0.1370
40853SOL    HW129609   9.175   2.434  12.348  0.3692 -0.5716 -0.1296
40853SOL    HW229610   9.285   2.538  12.340 -1.6838  1.8543  1.6093
40854SOL     OW29611   5.565  11.312   5.636  0.1815  0.1486 -0.3378
40854SOL    HW129612   5.573  11.348   5.547  0.1239  0.2166 -0.3163
40854SOL    HW229613   5.480  11.268   5.636  1.3392 -2.2205 -1.1435
40855SOL     OW29614   7.994  10.996   5.465  0.2855  0.1441 -0.5803
40855SOL    HW129615   8.003  10.957   5.551  0.8590 -1.2335 -1.2357
40855SOL    HW229616   7.994  11.091   5.481 -2.1029 -0.0814  1.1283
40856SOL     OW29617   8.038   9.504  12.396 -0.1036  0.1087 -0.2158
40856SOL    HW129618   8.017   9.455  12.317 -0.0505 -0.7089  0.2676
40856SOL    HW229619   8.022   9.595  12.372 -0.5235 -0.1634 -1.0269
40857SOL     OW29620  10.415   8.670   8.850 -0.4113 -0.5381  0.0635
40857SOL    HW129621  10.470   8.729   8.799 -0.6707 -0.6277 -0.3235
40857SOL    HW229622  10.345   8.725   8.884  0.3024 -0.2755  1.1595
40858SOL     OW29623   5.338   1.934   0.368 -0.3011 -0.3043  0.5541
40858SOL    HW129624   5.363   2.010   0.314 -1.5133 -0.1836  0.1359
40858SOL    HW229625   5.360   1.858   0.314 -3.0098 -0.1769 -0.9073
40859SOL     OW29626   9.376  10.218   5.981 -0.1907  0.2821 -0.3809
40859SOL    HW129627   9.460  10.174   5.964 -0.7225 -2.3078  2.6321
40859SOL    HW229628   9.319  10.188   5.911  0.9882  0.9121 -1.6557
40860SOL     OW29629   3.952   2.150   8.983 -0.8327  0.2377  0.4967
40860SOL    HW129630   3.877   2.095   9.006 -1.8601  0.8652 -1.1889
40860SOL    HW229631   3.931   2.236   9.018 -0.8391  0.3770  0.1571
40861SOL     OW29632   9.854  10.145   6.094 -0.6754 -0.1745 -0.1432
40861SOL    HW129633   9.832  10.144   6.187 -0.2732 -0.2253 -0.0481
40861SOL    HW229634   9.773  10.119   6.050 -0.7936 -0.4007  0.2065
40862SOL     OW29635  11.836   0.968  10.824  0.5799 -0.2212 -0.2790
40862SOL    HW129636  11.855   0.981  10.917  0.8671 -1.3831 -0.1621
40862SOL    HW229637  11.922   0.958  10.783  0.4545  0.2503 -0.6693
40863SOL     OW29638   5.444   0.111  11.216 -0.2620  0.5029  0.2741
40863SOL    HW129639   5.448   0.018  11.238 -0.7029  0.6319  0.9571
40863SOL    HW229640   5.350   0.128  11.201 -0.0439  0.5481 -1.2285
40864SOL     OW29641  12.184   1.346   8.862 -0.1489  0.0650 -0.1683
40864SOL    HW129642  12.123   1.407   8.903  2.0183  2.0590  0.3433
40864SOL    HW229643  12.255   1.336   8.926  2.9588  2.6320 -2.8339
40865SOL     OW29644   9.481   9.511   7.498  0.1828  0.3892 -0.2389
40865SOL    HW129645   9.483   9.606   7.487  0.7436  0.3461 -0.5139
40865SOL    HW229646   9.539   9.477   7.430 -0.1180 -0.1603 -0.2296
40866SOL     OW29647   9.367   8.076  10.253 -0.0122 -0.0647 -0.3898
40866SOL    HW129648   9.368   8.130  10.333  0.6053 -0.6516  0.0138
40866SOL    HW229649   9.340   7.989  10.284  1.4950 -0.6280 -0.5786
40867SOL     OW29650  10.131   8.384   9.023 -0.1652  0.0470 -0.0927
40867SOL    HW129651  10.072   8.393   9.098 -1.8776 -0.1899 -1.3695
40867SOL    HW229652  10.120   8.464   8.973 -0.3481 -0.5360 -1.0004
40868SOL     OW29653   4.162   5.378  11.918  0.3320  0.0343  0.4010
40868SOL    HW129654   4.081   5.412  11.956  1.5485  0.9490  2.3485
40868SOL    HW229655   4.220   5.454  11.914  1.0467 -0.5519 -1.1838
40869SOL     OW29656  12.577  12.368   4.287 -0.0818 -0.1482 -0.4696
40869SOL    HW129657  12.614  12.438   4.341 -0.8755 -0.6354  0.7263
40869SOL    HW229658  12.631  12.292   4.305  0.5262  0.0261 -1.4634
40870SOL     OW29659   0.583  12.486   0.038  0.2116 -0.3241  0.3338
40870SOL    HW129660   0.535  12.476  -0.045 -1.5217 -1.3370  1.3963
40870SOL    HW229661   0.655  12.425   0.031 -0.5554 -1.2168 -0.0077
40871SOL     OW29662  11.216   0.362  11.420  0.5156 -0.0386  0.6596
40871SOL    HW129663  11.311   0.366  11.427  0.4761  1.2741  0.8361
40871SOL    HW229664  11.191   0.282  11.464  1.3857  0.7440  2.6770
40872SOL     OW29665   2.657   8.865   6.729  0.2595  0.1758 -0.4440
40872SOL    HW129666   2.583   8.920   6.703  0.2318  0.3019 -0.0979
40872SOL    HW229667   2.700   8.843   6.647 -0.9375 -0.9925 -0.8038
40873SOL     OW29668   1.171   8.867   6.306 -0.6133  0.2660 -0.2889
40873SOL    HW129669   1.087   8.853   6.264 -1.6422  2.2628  0.9937
40873SOL    HW229670   1.192   8.959   6.290  1.2886 -0.1457 -0.4681
40874SOL     OW29671   9.445   8.033   5.753 -0.2919  0.0682  0.2849
40874SOL    HW129672   9.413   8.031   5.843  0.6103  0.6570  0.6373
40874SOL    HW229673   9.384   8.090   5.707 -0.4089  0.2510  0.6643
40875SOL     OW29674   1.468   8.146  11.165  0.2225  0.2066 -0.0975
40875SOL    HW129675   1.386   8.172  11.208 -0.1100  0.1438 -0.6803
40875SOL    HW229676   1.536   8.190  11.216 -0.0911 -0.5832  1.0420
40876SOL     OW29677   5.803   4.774  12.381  0.2940 -0.2682 -0.0958
40876SOL    HW129678   5.795   4.752  12.474  0.1916 -0.8015 -0.2257
40876SOL    HW229679   5.714   4.796  12.354  0.5067  0.9738  0.1920
40877SOL     OW29680   3.933  11.066   1.846 -0.3194 -0.0858 -0.4953
40877SOL    HW129681   3.967  11.019   1.770  0.2953 -0.6157  0.0805
40877SOL    HW229682   3.977  11.151   1.844 -2.0758  0.8333 -2.0146
40878SOL     OW29683   1.270   5.440   7.123 -0.3677  0.5711  0.0726
40878SOL    HW129684   1.347   5.437   7.066 -0.5602 -0.4999 -0.1515
40878SOL    HW229685   1.225   5.521   7.099  1.0143  1.5485  0.6625
40879SOL     OW29686   8.859   5.826   8.501  0.3587  0.3554  0.0951
40879SOL    HW129687   8.847   5.826   8.406  1.0480 -1.1462 -0.0281
40879SOL    HW229688   8.925   5.893   8.517 -0.9900  1.8308 -0.2667
40880SOL     OW29689  12.113   0.425   1.269  0.0227  0.1063  0.4127
40880SOL    HW129690  12.109   0.476   1.350 -0.6894 -0.5604  0.8176
40880SOL    HW229691  12.099   0.334   1.297 -1.3272 -0.0200 -0.5525
40881SOL     OW29692   6.648  10.506  12.571 -0.0797 -0.7707  0.6859
40881SOL    HW129693   6.639  10.411  12.560 -1.0494 -0.5085 -1.1156
40881SOL    HW229694   6.559  10.539  12.570  0.2862  0.2534  0.4114
40882SOL     OW29695   2.453   3.604   5.995  0.4829 -0.1773  0.0747
40882SOL    HW129696   2.387   3.540   5.970  0.3519  0.2764 -0.7967
40882SOL    HW229697   2.537   3.562   5.973  0.4021 -0.0951 -0.3975
40883SOL     OW29698  11.729  11.928   8.228 -0.9957  0.1298 -0.4560
40883SOL    HW129699  11.644  11.885   8.232 -0.8904  0.0336  1.8174
40883SOL    HW229700  11.708  12.022   8.223 -1.2574  0.1331  0.5112
40884SOL     OW29701  10.016   6.317  10.797  0.3951 -0.0110  0.0442
40884SOL    HW129702   9.975   6.322  10.884  0.6729 -1.2049  0.2615
40884SOL    HW229703   9.943   6.320  10.736  0.1390  0.0516  0.3504
40885SOL     OW29704   2.928   3.552   6.378 -0.0277 -0.7179 -0.5023
40885SOL    HW129705   2.892   3.557   6.289  0.0464  3.4435 -0.5156
40885SOL    HW229706   2.855   3.579   6.434  1.1002  1.3307  0.1071
40886SOL     OW29707   7.888   3.279  12.339 -0.2168 -0.2912 -0.9013
40886SOL    HW129708   7.800   3.243  12.331  0.8533 -2.8014 -2.4958
40886SOL    HW229709   7.883   3.339  12.414 -2.8297 -1.6979  0.1472
40887SOL     OW29710   7.224   3.636   3.977  0.0637  0.1639  0.5514
40887SOL    HW129711   7.286   3.563   3.974 -0.0069  0.1206 -0.4272
40887SOL    HW229712   7.200   3.644   4.069  0.3605 -0.8030  0.7277
40888SOL     OW29713   9.906   7.632   6.034  0.3627 -0.4636  0.3719
40888SOL    HW129714   9.878   7.552   5.990 -0.3358 -0.1373  0.2190
40888SOL    HW229715   9.957   7.601   6.109 -0.8924 -1.0894  0.9936
40889SOL     OW29716  12.532   2.886   9.218 -0.3325 -0.5404 -0.6064
40889SOL    HW129717  12.539   2.934   9.136 -0.0697  1.0924  0.3189
40889SOL    HW229718  12.610   2.911   9.267 -0.4922 -1.4676  0.1456
40890SOL     OW29719   7.801  10.773   2.678 -0.2464 -0.0016  0.4299
40890SOL    HW129720   7.812  10.865   2.702  0.3891 -1.0006  4.8560
40890SOL    HW229721   7.707  10.756   2.691 -0.3838  0.0055 -0.4878
40891SOL     OW29722   0.832   2.420   5.629 -0.3083  0.1275  0.4028
40891SOL    HW129723   0.762   2.381   5.577 -0.2142  1.7735 -1.0440
40891SOL    HW229724   0.834   2.512   5.602  0.5447  0.7938  2.4864
40892SOL     OW29725   8.009   5.685  11.450 -0.4060 -0.3558 -0.6508
40892SOL    HW129726   7.928   5.644  11.479 -1.5529  1.3723 -1.2282
40892SOL    HW229727   8.001   5.776  11.479  1.5086 -0.2294 -0.4032
40893SOL     OW29728   3.715  10.191   2.880 -0.1835  0.0011  0.0601
40893SOL    HW129729   3.630  10.157   2.910 -0.2196 -1.6719 -1.7372
40893SOL    HW229730   3.695  10.275   2.840 -0.5972  0.7621  1.7863
40894SOL     OW29731   0.662   7.957   0.387 -0.0585  0.2961 -0.3289
40894SOL    HW129732   0.756   7.974   0.380  0.1518 -0.1072  1.0997
40894SOL    HW229733   0.624   8.043   0.409 -0.0459  0.4820 -1.0173
40895SOL     OW29734   5.460   0.381   2.079  0.1975  0.1114  0.0184
40895SOL    HW129735   5.554   0.380   2.097  0.4235 -2.4442 -0.9236
40895SOL    HW229736   5.420   0.347   2.160  0.0686  1.1736  0.4096
40896SOL     OW29737   7.276   8.368  11.929 -0.6556 -0.3827  0.2005
40896SOL    HW129738   7.321   8.448  11.954 -1.2113 -0.0655  0.1929
40896SOL    HW229739   7.234   8.337  12.009 -2.9740  0.9818 -0.4111
40897SOL     OW29740   7.321   4.146  10.890  0.0030  0.0401 -0.1216
40897SOL    HW129741   7.390   4.136  10.956  1.3447 -2.9761 -1.7799
40897SOL    HW229742   7.355   4.211  10.829 -0.3091  1.2699  0.9725
40898SOL     OW29743  10.051   4.493   1.806  0.0800  0.0077 -0.0937
40898SOL    HW129744   9.976   4.452   1.849  0.4504 -2.0777 -1.3052
40898SOL    HW229745  10.089   4.424   1.752  1.2369  1.7524 -1.6587
40899SOL     OW29746  11.371  11.993   4.697 -1.0127 -0.2653 -0.4266
40899SOL    HW129747  11.327  11.954   4.772 -0.1645 -2.7566 -1.1477
40899SOL    HW229748  11.316  12.068   4.673 -0.6854  1.4110  3.3361
40900SOL     OW29749   8.182   1.413   6.157  0.0872  0.2818  0.2147
40900SOL    HW129750   8.088   1.428   6.150 -0.1473 -0.2911  1.8493
40900SOL    HW229751   8.220   1.475   6.094 -1.4763 -1.4608 -2.6551
40901SOL     OW29752   1.738  11.799   9.918 -0.7255 -0.2046 -0.1537
40901SOL    HW129753   1.743  11.822   9.826 -1.1148  1.0068  0.1189
40901SOL    HW229754   1.646  11.808   9.941 -0.4168  0.9552  0.7079
40902SOL     OW29755   7.638   1.922   4.764 -0.2320  1.0542  0.0014
40902SOL    HW129756   7.732   1.925   4.785  0.3378  0.5573 -2.2236
40902SOL    HW229757   7.627   1.842   4.713 -2.2416  0.2047  1.6643
40903SOL     OW29758  12.307   7.129   5.848  0.1225 -0.0232  0.7531
40903SOL    HW129759  12.372   7.059   5.858  1.3792  1.0797  0.6142
40903SOL    HW229760  12.224   7.088   5.872  1.0329 -1.1820  2.1350
40904SOL     OW29761   0.994  12.357  11.674  0.2302  0.0990 -0.1029
40904SOL    HW129762   0.961  12.276  11.635  2.2647 -0.7792 -0.1601
40904SOL    HW229763   1.062  12.386  11.613  1.4887  0.2705  1.3174
40905SOL     OW29764   3.147   8.528  10.239  0.0170  0.2581 -0.1762
40905SOL    HW129765   3.069   8.490  10.280 -0.2593  1.4395  0.4068
40905SOL    HW229766   3.127   8.526  10.145  0.2379 -1.5116 -0.2363
40906SOL     OW29767  11.803   0.595  11.546 -0.2116 -0.0080 -0.5057
40906SOL    HW129768  11.851   0.513  11.558  0.0410  0.2917  0.5746
40906SOL    HW229769  11.722   0.584  11.596 -1.4042 -0.5735 -2.4465
40907SOL     OW29770   5.214   2.229   9.356  0.5493 -0.2583 -0.1157
40907SOL    HW129771   5.259   2.297   9.306  0.9867 -0.2374  0.2923
40907SOL    HW229772   5.123   2.258   9.360  1.1335  1.6079  2.1141
40908SOL     OW29773   8.434   5.074   1.225 -0.0721  0.3492  0.2939
40908SOL    HW129774   8.517   5.027   1.231 -0.5781 -0.7435 -0.8031
40908SOL    HW229775   8.371   5.016   1.267 -0.4258  0.7954  0.3875
40909SOL     OW29776   0.394   0.185  11.331  0.1246 -0.2186  0.2492
40909SOL    HW129777   0.435   0.129  11.265  2.7400  0.1052  1.4561
40909SOL    HW229778   0.331   0.238  11.283 -0.4386 -2.2696 -1.3876
40910SOL     OW29779   3.516   5.863   6.959 -0.2991 -0.2488 -0.5024
40910SOL    HW129780   3.467   5.945   6.964  0.2547  0.1867 -1.8812
40910SOL    HW229781   3.468   5.811   6.895  0.1723 -0.4352 -0.7020
40911SOL     OW29782   5.877   1.248  10.923  0.1443  0.5393 -0.2802
40911SOL    HW129783   5.925   1.166  10.932  0.8432  0.9139 -0.5033
40911SOL    HW229784   5.907   1.302  10.996  0.9411  1.1979 -1.0674
40912SOL     OW29785   2.186   8.471   2.562  0.0121  0.7068  0.3967
40912SOL    HW129786   2.262   8.457   2.506 -0.8046 -0.2332 -0.5148
40912SOL    HW229787   2.185   8.395   2.621 -2.8106 -1.9910 -2.6929
40913SOL     OW29788   0.211  12.024  10.290 -0.4347 -0.0958  0.5978
40913SOL    HW129789   0.221  11.953  10.353  0.1293 -0.2949  0.2957
40913SOL    HW229790   0.285  12.083  10.308  0.1114 -0.4834 -0.2776
40914SOL     OW29791   6.649   3.454  12.513 -0.1805  0.6328 -0.2112
40914SOL    HW129792   6.716   3.398  12.473  0.0693  1.2451 -0.6694
40914SOL    HW229793   6.588   3.472  12.441 -1.9790 -1.5630  0.6583
40915SOL     OW29794   7.895   6.871  12.583  0.6443  0.6670 -0.0729
40915SOL    HW129795   7.986   6.843  12.589  0.3080 -0.1212  3.4050
40915SOL    HW229796   7.856   6.845  12.666 -2.6224  1.5954 -1.1476
40916SOL     OW29797   9.897   8.560   0.180  0.0429  0.3721  0.3938
40916SOL    HW129798   9.888   8.498   0.252  0.5266 -0.0744  0.0864
40916SOL    HW229799   9.990   8.557   0.158 -0.0647  0.6423 -0.1227
40917SOL     OW29800  10.175  11.938   8.463 -0.2678  0.4053  0.0595
40917SOL    HW129801  10.108  11.877   8.493 -0.2820  0.7825  0.8393
40917SOL    HW229802  10.132  11.992   8.398  0.2118 -1.5251 -2.0038
40918SOL     OW29803   6.275   2.039   0.341 -0.0403  0.6020 -0.2498
40918SOL    HW129804   6.200   1.995   0.379 -0.0758  1.4632  0.7128
40918SOL    HW229805   6.341   2.041   0.410  1.3104 -1.0928 -1.4032
40919SOL     OW29806   9.424  12.404   2.412 -0.0959  0.2202  0.1423
40919SOL    HW129807   9.419  12.487   2.459 -3.6498 -0.1816  0.7245
40919SOL    HW229808   9.422  12.337   2.480 -1.1096 -0.3399 -0.4156
40920SOL     OW29809   4.815   8.273  11.788 -0.1019 -0.6751 -0.3393
40920SOL    HW129810   4.744   8.334  11.807  0.5540 -0.2281  0.7850
40920SOL    HW229811   4.828   8.225  11.870 -0.2354 -1.9487 -1.0429
40921SOL     OW29812   4.719   3.816  12.571 -0.7276  0.0690  0.1567
40921SOL    HW129813   4.658   3.823  12.498  0.2532 -0.1474 -0.7136
40921SOL    HW229814   4.674   3.761  12.636 -1.5507  0.1416 -0.3446
40922SOL     OW29815   3.543   8.116   5.946 -0.3168 -0.2638  0.6103
40922SOL    HW129816   3.449   8.108   5.962 -0.8298  1.7064 -1.0072
40922SOL    HW229817   3.584   8.082   6.025 -2.4347  1.8307  2.7397
40923SOL     OW29818   4.473  11.785   4.117  0.0511 -0.4364  0.3864
40923SOL    HW129819   4.540  11.853   4.113  0.7187 -1.0536  0.8715
40923SOL    HW229820   4.516  11.711   4.159 -0.0531 -1.8874 -1.9038
40924SOL     OW29821   1.729   2.356  10.744 -0.0700  0.6237  0.2224
40924SOL    HW129822   1.724   2.452  10.741  0.0109  0.6153 -1.2098
40924SOL    HW229823   1.667   2.331  10.812  0.7493  1.7346  1.4215
40925SOL     OW29824   1.810  11.006  10.678 -0.5404 -0.1161  0.2065
40925SOL    HW129825   1.745  10.956  10.628 -0.5493  0.4845 -0.3953
40925SOL    HW229826   1.887  11.009  10.622  0.5093 -1.9741  1.4734
40926SOL     OW29827   1.293   3.647   9.024 -0.0661 -0.0153 -0.3673
40926SOL    HW129828   1.264   3.737   9.039 -0.0354 -0.4596  3.4557
40926SOL    HW229829   1.216   3.594   9.044  0.6190 -0.8953  0.0011
40927SOL     OW29830   0.451   7.150  10.806  0.3374  0.4327  0.4203
40927SOL    HW129831   0.457   7.218  10.874  1.5954  0.4310  0.3334
40927SOL    HW229832   0.357   7.132  10.799  0.0610  1.4867  1.1133
40928SOL     OW29833  11.406   1.542   2.653 -0.2882  0.1340  0.5464
40928SOL    HW129834  11.404   1.459   2.606 -0.8264 -0.2198  1.1726
40928SOL    HW229835  11.481   1.589   2.616 -1.0613  0.1356 -1.0727
40929SOL     OW29836   6.506   2.070   6.671 -0.2979 -0.3536  0.2975
40929SOL    HW129837   6.548   2.038   6.751  1.2496 -0.7944 -0.6551
40929SOL    HW229838   6.484   1.991   6.622 -0.0673 -0.0738 -0.2742
40930SOL     OW29839   1.201   7.177   4.095  0.2013 -0.4573 -0.1431
40930SOL    HW129840   1.251   7.100   4.069  0.6200 -0.2507  0.0459
40930SOL    HW229841   1.116   7.142   4.123  0.1254 -0.7832 -0.7488
40931SOL     OW29842   2.154   2.200  11.313 -0.1680  0.1754 -0.2260
40931SOL    HW129843   2.097   2.231  11.383  0.5026 -0.5932  0.6980
40931SOL    HW229844   2.104   2.215  11.232 -1.0490  0.8753  0.4298
40932SOL     OW29845   7.912   5.521   7.360  0.0718 -0.1220  0.0855
40932SOL    HW129846   7.991   5.551   7.315 -1.0501 -0.3802 -2.2093
40932SOL    HW229847   7.844   5.583   7.334 -0.9313 -1.0797  0.3461
40933SOL     OW29848  11.899  10.572   4.209  0.8141  0.0791  0.0205
40933SOL    HW129849  11.856  10.510   4.150  0.8404  0.1247 -0.0467
40933SOL    HW229850  11.835  10.588   4.278  0.1928  1.2111 -0.8065
40934SOL     OW29851   1.978   5.449   9.515  0.2898  0.3011 -0.0481
40934SOL    HW129852   2.030   5.479   9.590  0.5994  1.2023 -0.6198
40934SOL    HW229853   2.035   5.387   9.469 -0.8362 -2.4185  1.9081
40935SOL     OW29854   9.552   3.772  10.434 -0.2697 -0.2866  0.2093
40935SOL    HW129855   9.625   3.772  10.373 -0.1677  2.1575  0.2309
40935SOL    HW229856   9.592   3.775  10.520 -0.3905 -0.3971  0.2696
40936SOL     OW29857   1.625   3.009   6.125  0.0719 -0.2291 -0.2862
40936SOL    HW129858   1.633   2.920   6.091  0.0954 -0.1591 -0.4649
40936SOL    HW229859   1.632   3.065   6.048 -1.9380 -0.1495 -0.4565
40937SOL     OW29860   6.782   6.542   7.466  0.0146  0.0604  0.5034
40937SOL    HW129861   6.759   6.465   7.413  0.2148  0.7074 -0.5571
40937SOL    HW229862   6.869   6.522   7.500  0.2758  0.0140 -0.1771
40938SOL     OW29863   3.181   4.799   1.190  0.5914  0.7426  0.3395
40938SOL    HW129864   3.214   4.772   1.105 -0.0759 -0.7462  0.5190
40938SOL    HW229865   3.240   4.759   1.253 -0.2914 -0.1718  0.6112
40939SOL     OW29866  11.677  12.355   9.066 -0.2372 -0.6021  0.0990
40939SOL    HW129867  11.649  12.306   8.988 -0.6464 -0.8889  0.4200
40939SOL    HW229868  11.597  12.398   9.096  0.2146  0.6525 -0.4425
40940SOL     OW29869   5.891   1.682  11.637 -0.1872  0.0452 -0.1289
40940SOL    HW129870   5.964   1.646  11.688  0.2348  0.1157 -0.6712
40940SOL    HW229871   5.933   1.737  11.571 -0.8355  1.7280  0.8108
40941SOL     OW29872   2.296   1.917  11.440 -0.2979  0.3035 -0.6041
40941SOL    HW129873   2.301   1.883  11.529 -0.4950 -1.7983 -1.3295
40941SOL    HW229874   2.387   1.933  11.415 -0.2191  0.5941 -0.1433
40942SOL     OW29875  11.794   7.167  10.463  0.1866  0.1416  0.2997
40942SOL    HW129876  11.718   7.141  10.411 -0.3560 -0.9926  1.5819
40942SOL    HW229877  11.770   7.144  10.553  0.7655  2.7325  1.2066
40943SOL     OW29878  10.338   8.112   0.373  0.4398 -0.0469  0.1461
40943SOL    HW129879  10.376   8.041   0.320  0.4851 -0.7214  1.0588
40943SOL    HW229880  10.357   8.191   0.322  1.7158 -0.5235 -0.1879
40944SOL     OW29881   3.387   1.606   1.454 -0.1817  0.2578 -0.2263
40944SOL    HW129882   3.361   1.529   1.504 -1.5510  1.0659  0.3648
40944SOL    HW229883   3.393   1.676   1.519  0.6490  0.7586 -0.8158
40945SOL     OW29884   1.955   7.393  10.381 -0.0415 -0.1934 -0.4988
40945SOL    HW129885   1.913   7.318  10.422  1.9167 -0.8492  0.4566
40945SOL    HW229886   1.883   7.444  10.343 -1.6618 -1.1643  1.1117
40946SOL     OW29887   5.263   8.580   5.860 -0.9446 -0.2738 -0.4231
40946SOL    HW129888   5.267   8.556   5.767  0.6970  0.3007 -0.5260
40946SOL    HW229889   5.354   8.587   5.887 -1.4013 -0.6291  1.3072
40947SOL     OW29890   8.613   4.841   0.810 -0.0384  0.0238  0.5303
40947SOL    HW129891   8.653   4.840   0.897 -2.1091 -2.3575  1.5947
40947SOL    HW229892   8.604   4.934   0.789  3.8835  0.6845  1.1078
40948SOL     OW29893   6.369   7.697   4.371 -0.3026 -0.3706  0.5187
40948SOL    HW129894   6.453   7.661   4.342 -0.1712  0.9139 -0.8418
40948SOL    HW229895   6.311   7.685   4.296 -0.4988  1.3534  0.3472
40949SOL     OW29896   4.493  11.431   0.089  0.4034  0.1844 -0.4591
40949SOL    HW129897   4.528  11.386   0.166 -0.8221  2.7685  1.7738
40949SOL    HW229898   4.568  11.480   0.054  0.5725  0.4252  0.2207
40950SOL     OW29899   6.694   0.768   9.060  0.4945  0.4899 -0.4399
40950SOL    HW129900   6.730   0.811   8.982  0.7148  0.7078 -0.2176
40950SOL    HW229901   6.763   0.709   9.089 -0.1748 -0.7760 -1.3255
40951SOL     OW29902   5.726   8.125   1.586  0.1251 -0.0445  0.3323
40951SOL    HW129903   5.738   8.167   1.671  1.7717 -1.7731  1.0230
40951SOL    HW229904   5.801   8.154   1.534 -0.4242  0.3404 -0.2529
40952SOL     OW29905  10.787   4.701  10.217  0.0314 -0.2274  0.0404
40952SOL    HW129906  10.848   4.758  10.264 -0.0479  0.2514 -0.4294
40952SOL    HW229907  10.797   4.616  10.259 -0.3329  0.2774  1.1925
40953SOL     OW29908   4.058  10.067   1.200 -0.6341 -0.4287  0.3928
40953SOL    HW129909   4.082  10.105   1.115 -0.2582  0.1509  0.7517
40953SOL    HW229910   4.014   9.985   1.178 -0.0558 -0.5540 -0.3475
40954SOL     OW29911  10.473   5.372   3.973  0.0832 -0.0630 -0.4307
40954SOL    HW129912  10.507   5.283   3.965 -2.7750 -1.7152  2.8913
40954SOL    HW229913  10.381   5.365   3.949 -0.4265  1.7967  0.7507
40955SOL     OW29914  11.692   7.505   9.281  0.7394  0.0306 -0.1577
40955SOL    HW129915  11.608   7.491   9.237  0.1099 -0.3686  1.1425
40955SOL    HW229916  11.688   7.595   9.312  0.7584 -0.0254  0.0046
40956SOL     OW29917   8.047   1.016  10.409 -0.4391  0.7382  0.1373
40956SOL    HW129918   8.133   1.054  10.426  0.1657 -1.2989  2.0171
40956SOL    HW229919   8.023   1.050  10.323  2.1337  1.5317 -0.3578
40957SOL     OW29920   8.738   2.411  10.743 -0.0751  0.2774 -0.4898
40957SOL    HW129921   8.818   2.410  10.692  0.7038 -0.1652  0.7014
40957SOL    HW229922   8.719   2.319  10.761 -2.0535  0.1987 -2.5211
40958SOL     OW29923  11.742   0.793  12.232 -0.4482 -0.4152  0.2848
40958SOL    HW129924  11.725   0.744  12.152  0.0289  0.6597 -0.4941
40958SOL    HW229925  11.739   0.727  12.302 -1.6106 -1.2408 -0.5137
40959SOL     OW29926   0.718   6.726  10.164  0.4336 -0.0968  0.8457
40959SOL    HW129927   0.634   6.764  10.191 -0.6721 -1.5494 -0.3497
40959SOL    HW229928   0.768   6.719  10.245 -0.7404  0.4547  1.6596
40960SOL     OW29929  10.098   8.890   7.845 -0.0885  0.0574  0.2791
40960SOL    HW129930  10.021   8.855   7.890  0.7678 -0.2724  1.5450
40960SOL    HW229931  10.137   8.814   7.801 -1.3591  0.5175 -1.7599
40961SOL     OW29932  10.415  10.824   7.283 -0.1363 -0.0786  0.0425
40961SOL    HW129933  10.343  10.838   7.221 -0.3850  1.4950  0.6345
40961SOL    HW229934  10.488  10.875   7.247  0.4264 -0.9472 -0.0877
40962SOL     OW29935   2.391  12.461  10.334  0.0126 -0.2797 -0.1711
40962SOL    HW129936   2.478  12.501  10.330  0.4285 -1.2408 -1.2622
40962SOL    HW229937   2.376  12.446  10.427  1.5745 -1.2568 -0.0389
40963SOL     OW29938   0.489   8.205   5.141 -0.4070  0.4784  0.1713
40963SOL    HW129939   0.481   8.113   5.167  1.3589 -0.2121 -1.4460
40963SOL    HW229940   0.533   8.247   5.214  0.1256 -0.3085  0.3173
40964SOL     OW29941   8.851   2.926   8.774 -0.1977  0.0167  0.0947
40964SOL    HW129942   8.872   2.863   8.843 -0.8334 -1.2356 -0.8177
40964SOL    HW229943   8.935   2.966   8.751  0.2041 -0.4583  0.7125
40965SOL     OW29944   3.522   2.403   5.082 -0.2234  0.2523  0.2283
40965SOL    HW129945   3.434   2.435   5.065 -0.6889 -0.9613  0.2675
40965SOL    HW229946   3.542   2.345   5.009 -0.3367 -1.2074  1.3172
40966SOL     OW29947   3.551   1.329   6.877  0.3989  0.2117 -0.2025
40966SOL    HW129948   3.548   1.334   6.782  0.3972  1.8491 -0.1407
40966SOL    HW229949   3.470   1.372   6.906  0.4272 -0.2260  0.5388
40967SOL     OW29950  11.740   0.306   8.077  0.7811 -0.6429  0.4114
40967SOL    HW129951  11.678   0.356   8.023 -2.1527 -2.4733  1.8386
40967SOL    HW229952  11.766   0.234   8.021  0.7502 -0.4661  0.1642
40968SOL     OW29953   7.931   0.501   3.299 -0.0042 -0.0545  0.0632
40968SOL    HW129954   8.014   0.502   3.252 -0.3425  0.0243 -0.5519
40968SOL    HW229955   7.954   0.483   3.390  0.8764  2.2212  0.3316
40969SOL     OW29956   3.460  11.723   0.706  0.3671 -0.2749  0.3668
40969SOL    HW129957   3.502  11.713   0.621 -1.3168 -0.9870 -0.4397
40969SOL    HW229958   3.504  11.798   0.746  3.4263 -1.8707  0.3006
40970SOL     OW29959   0.200   7.818   3.129 -0.0162 -0.0933 -0.5641
40970SOL    HW129960   0.256   7.862   3.065  0.7211 -0.9464 -0.5244
40970SOL    HW229961   0.244   7.832   3.213  0.0269 -0.5937 -0.5042
40971SOL     OW29962  12.368   8.613  10.478 -0.3979  0.1627 -0.5037
40971SOL    HW129963  12.426   8.650  10.545  0.1654 -1.2719 -0.1453
40971SOL    HW229964  12.293   8.580  10.528 -0.0362 -0.7961 -0.5716
40972SOL     OW29965  12.010   5.492  12.520  0.4995 -0.1424  0.0712
40972SOL    HW129966  11.995   5.530  12.606 -1.0268 -0.4627 -0.0297
40972SOL    HW229967  12.035   5.566  12.465 -0.9231  0.4928  0.2318
40973SOL     OW29968   1.256  11.783  12.080 -0.0505  0.7668  0.2540
40973SOL    HW129969   1.341  11.790  12.122  0.2593 -0.2889 -0.1574
40973SOL    HW229970   1.198  11.839  12.132  0.5575  0.3280  1.4363
40974SOL     OW29971  11.191   5.258   1.832  0.1762  0.1086  0.4581
40974SOL    HW129972  11.241   5.177   1.843 -2.6912 -1.6405  1.7280
40974SOL    HW229973  11.179   5.292   1.920 -0.4871  0.7155  0.1490
40975SOL     OW29974   8.147   4.644   0.030 -0.2238  0.1734 -0.7443
40975SOL    HW129975   8.202   4.566   0.038 -1.0399 -0.4893 -1.4320
40975SOL    HW229976   8.141   4.678   0.119  2.2479  0.9488 -0.8003
40976SOL     OW29977   4.470   9.645   8.542 -0.0968 -0.1472  0.0762
40976SOL    HW129978   4.431   9.651   8.455  0.9904  0.5695 -0.3916
40976SOL    HW229979   4.415   9.582   8.589  0.0597 -1.5798 -1.5539
40977SOL     OW29980   2.757   7.205   7.744 -0.5338  0.0434  0.2743
40977SOL    HW129981   2.846   7.222   7.713  0.4642 -0.5625  2.5948
40977SOL    HW229982   2.702   7.265   7.694  1.3196  1.2899 -0.3654
40978SOL     OW29983   9.133  12.556   3.974  0.3759  0.1490 -0.0020
40978SOL    HW129984   9.137  12.461   3.982 -1.8565 -0.2089 -2.0038
40978SOL    HW229985   9.219  12.581   3.941  0.2001 -1.5405 -1.8923
40979SOL     OW29986   5.508   9.221   6.105  0.3360  0.0244  0.3338
40979SOL    HW129987   5.491   9.282   6.033  3.9555  0.3920 -0.4093
40979SOL    HW229988   5.512   9.135   6.063  1.1061  0.0709  0.2953
40980SOL     OW29989   6.743   3.146  12.378 -0.2393  0.1183 -0.4119
40980SOL    HW129990   6.805   3.075  12.390 -0.1392 -0.0713 -1.9480
40980SOL    HW229991   6.716   3.141  12.286  0.3231  2.4851 -0.7811
40981SOL     OW29992   2.356   5.171   3.642 -0.0756  0.3790 -0.1070
40981SOL    HW129993   2.311   5.254   3.660 -1.3078 -0.2158 -0.3387
40981SOL    HW229994   2.292   5.120   3.592  0.1458 -1.2268  1.1609
40982SOL     OW29995  10.022   5.610   1.726 -0.0116  0.4861  0.8497
40982SOL    HW129996  10.069   5.530   1.699 -0.1466  0.7765 -0.3092
40982SOL    HW229997   9.942   5.609   1.674  0.6171  2.0624 -0.2204
40983SOL     OW29998  11.425   9.739   7.074 -0.1545  0.2441 -0.9576
40983SOL    HW129999  11.512   9.710   7.103  0.1929  0.2240 -1.9800
40983SOL    HW230000  11.381   9.765   7.154  0.2714 -1.1196 -0.2375
40984SOL     OW30001  10.766  11.458   1.912 -0.5983  0.2341  0.2822
40984SOL    HW130002  10.680  11.443   1.952  0.0810  0.8783  2.0958
40984SOL    HW230003  10.827  11.413   1.969  0.3419  0.2589 -0.6820
40985SOL     OW30004   3.634   8.289   4.909  0.8438  0.4085 -0.8379
40985SOL    HW130005   3.636   8.268   5.003  1.6473  0.2789 -0.8741
40985SOL    HW230006   3.636   8.203   4.866  2.5569  0.4860 -0.9753
40986SOL     OW30007   8.389  12.049  11.086 -0.2228 -0.7385  0.0226
40986SOL    HW130008   8.459  11.985  11.099  1.0396 -0.4935 -4.1389
40986SOL    HW230009   8.424  12.130  11.124  0.8013 -1.1432 -0.0034
40987SOL     OW30010   7.198   2.634   6.988 -0.1378  0.1566 -0.5333
40987SOL    HW130011   7.188   2.597   7.076  2.3992 -1.4956 -0.8621
40987SOL    HW230012   7.114   2.616   6.945 -0.6832 -0.8759  0.8832
40988SOL     OW30013   7.636   7.718   1.431  0.0860  0.4457 -0.6072
40988SOL    HW130014   7.698   7.790   1.422 -0.8554  1.2216 -1.0117
40988SOL    HW230015   7.691   7.641   1.448  1.1985  1.0006 -1.5466
40989SOL     OW30016   6.746  11.399   2.751 -0.0821  0.2336 -0.1197
40989SOL    HW130017   6.698  11.461   2.696  2.4723 -0.7099 -3.8325
40989SOL    HW230018   6.707  11.314   2.731 -0.3957  0.0688  1.1292
40990SOL     OW30019   7.827   2.555   2.995 -0.3545 -0.5147  0.3601
40990SOL    HW130020   7.865   2.638   3.023  0.4525 -0.8745  0.3621
40990SOL    HW230021   7.902   2.502   2.968 -0.7361 -1.6416  1.3940
40991SOL     OW30022   9.614   9.780  10.767 -0.1121 -0.0331 -0.2466
40991SOL    HW130023   9.646   9.708  10.713  2.0487 -0.6144  1.6498
40991SOL    HW230024   9.535   9.745  10.809 -0.5321 -0.3405 -1.2587
40992SOL     OW30025   0.461   0.593   6.146 -0.1822  0.1588 -0.8471
40992SOL    HW130026   0.381   0.642   6.132 -0.3841  0.0609 -0.0992
40992SOL    HW230027   0.434   0.516   6.197 -0.1208 -1.5068 -3.1609
40993SOL     OW30028   4.240  10.307   1.590 -0.6140  0.9401 -0.6540
40993SOL    HW130029   4.288  10.263   1.660 -1.1222  1.2357 -0.1031
40993SOL    HW230030   4.165  10.250   1.573 -0.5804  0.9525 -0.8410
40994SOL     OW30031   1.797   0.133   2.411  0.2957  0.3024  0.5116
40994SOL    HW130032   1.721   0.074   2.406  0.6417 -0.1113  0.0634
40994SOL    HW230033   1.827   0.125   2.501  0.3982 -0.2906  0.4316
40995SOL     OW30034   5.084   0.948   5.073 -0.3927 -0.3648 -0.5930
40995SOL    HW130035   5.148   0.884   5.042  0.0068  0.1677 -0.9034
40995SOL    HW230036   5.000   0.915   5.042 -0.0947 -0.2971 -1.5026
40996SOL     OW30037   3.349   9.921   8.817  0.6838 -0.2760  0.2542
40996SOL    HW130038   3.438   9.957   8.820  0.3801  0.4937  0.2814
40996SOL    HW230039   3.305   9.973   8.749 -0.0551  0.0825  0.9934
40997SOL     OW30040   9.657   3.515  12.386 -0.2237 -0.2640  0.2042
40997SOL    HW130041   9.655   3.603  12.348  0.2112 -0.0150  0.7366
40997SOL    HW230042   9.570   3.502  12.423  0.0164  0.3585  1.0231
40998SOL     OW30043   8.179   7.421  10.210  0.0086 -0.2239 -0.0504
40998SOL    HW130044   8.246   7.405  10.143  0.7407  2.5755 -0.1206
40998SOL    HW230045   8.098   7.431  10.161 -0.4574 -3.0053 -0.0157
40999SOL     OW30046   9.450  10.422   7.535 -0.0952 -1.6516  0.2218
40999SOL    HW130047   9.452  10.507   7.578  1.4178 -0.3429 -2.2491
40999SOL    HW230048   9.358  10.396   7.536 -1.3152  1.9347 -2.4569
41000SOL     OW30049  11.676  11.226   3.257 -0.0713  0.3718 -0.7172
41000SOL    HW130050  11.643  11.304   3.301 -0.7878 -0.0830 -0.4140
41000SOL    HW230051  11.691  11.163   3.327  3.3278  1.1307 -0.5859
41001SOL     OW30052   5.574  12.486   9.988 -0.3961  0.2616  0.9059
41001SOL    HW130053   5.517  12.560  10.007  0.6923  1.0779  1.1088
41001SOL    HW230054   5.523  12.429   9.930 -1.5808  0.7067  1.4956
41002SOL     OW30055   3.125   4.878   7.696 -1.0596 -0.7975  0.4607
41002SOL    HW130056   3.033   4.878   7.669 -0.5214 -1.5421 -1.5661
41002SOL    HW230057   3.168   4.939   7.636 -0.2231 -0.4276  1.4084
41003SOL     OW30058   6.677   2.708  12.174 -0.2000 -0.1702  0.8427
41003SOL    HW130059   6.606   2.736  12.116 -1.5476  0.6826  2.7932
41003SOL    HW230060   6.664   2.759  12.254  0.9570 -2.0160  2.2997
41004SOL     OW30061   1.706  11.258   8.381 -0.1125  0.3817 -0.3131
41004SOL    HW130062   1.732  11.201   8.454 -1.2645 -2.6546 -2.0866
41004SOL    HW230063   1.657  11.329   8.423  1.4750  0.2045  2.0423
41005SOL     OW30064  11.953   6.125   0.903 -0.1077  0.1836 -0.2964
41005SOL    HW130065  11.895   6.190   0.942 -0.7312 -0.8928  0.6309
41005SOL    HW230066  11.906   6.042   0.913  1.2699 -0.6096 -0.1964
41006SOL     OW30067  10.757   2.831   8.330 -0.0325  0.2482  0.0703
41006SOL    HW130068  10.757   2.869   8.242  1.1165 -0.3146 -0.1992
41006SOL    HW230069  10.706   2.751   8.322  0.7163 -0.2059 -0.2919
41007SOL     OW30070  11.141   0.196  12.354  0.3635 -0.3295 -0.1063
41007SOL    HW130071  11.213   0.133  12.353  1.0080  0.3109 -2.7850
41007SOL    HW230072  11.063   0.145  12.336  0.3776 -0.7986  1.1168
41008SOL     OW30073   2.040   9.707   6.455  0.4359  0.3036 -0.2876
41008SOL    HW130074   2.101   9.660   6.512 -0.7909 -0.2499  0.6222
41008SOL    HW230075   1.955   9.698   6.499 -0.4922  0.1704 -2.0194
41009SOL     OW30076   3.034   8.348   6.381 -0.1906 -0.0591 -0.8909
41009SOL    HW130077   2.957   8.394   6.415  0.5470  1.1057 -0.7252
41009SOL    HW230078   3.000   8.293   6.311 -1.4025 -0.8279  0.2723
41010SOL     OW30079   4.305   3.608   6.525  0.0083  0.5276  0.2839
41010SOL    HW130080   4.321   3.613   6.619  0.6089 -0.1570  0.2246
41010SOL    HW230081   4.310   3.515   6.504 -0.4008  0.6462 -0.3790
41011SOL     OW30082   7.909  12.156   4.095 -0.2342  0.5281  0.5302
41011SOL    HW130083   7.906  12.233   4.152  1.3169  0.4906  0.6987
41011SOL    HW230084   7.942  12.086   4.151 -0.5443  0.0174  0.0780
41012SOL     OW30085   8.354   9.245   4.670  0.5479  0.1626  0.0711
41012SOL    HW130086   8.445   9.215   4.678  0.2172 -0.7449  0.5769
41012SOL    HW230087   8.302   9.165   4.674 -0.2331  0.5592 -1.3628
41013SOL     OW30088  11.472   3.131   4.929  0.1045  0.6952  0.1318
41013SOL    HW130089  11.450   3.222   4.948 -0.6602  0.5106  0.1284
41013SOL    HW230090  11.561   3.121   4.962 -0.0349  1.2696  0.6918
41014SOL     OW30091   3.548   5.853   8.080 -0.0832 -0.3233  0.2114
41014SOL    HW130092   3.481   5.836   8.145  0.7849  0.0775  1.2327
41014SOL    HW230093   3.584   5.766   8.059  0.4483 -0.3414  1.1650
41015SOL     OW30094   2.790   3.616   5.525 -0.6207 -0.1710  0.2289
41015SOL    HW130095   2.766   3.704   5.497  0.2808 -0.8082 -3.0278
41015SOL    HW230096   2.862   3.628   5.586 -0.3489  1.3333 -0.3695
41016SOL     OW30097   2.857   9.658   0.110  0.1217  0.3492 -0.4745
41016SOL    HW130098   2.878   9.718   0.182 -0.9534 -0.2121  0.3357
41016SOL    HW230099   2.765   9.677   0.089 -0.0005 -0.4645 -0.7297
41017SOL     OW30100   0.295   7.199   6.440 -0.0645 -0.2390  0.4143
41017SOL    HW130101   0.262   7.264   6.378 -0.1298  0.7910  1.5079
41017SOL    HW230102   0.388   7.218   6.448  0.5740 -2.1380 -1.4392
41018SOL     OW30103   6.866   1.187   3.482 -0.6246 -0.1878 -0.1687
41018SOL    HW130104   6.873   1.097   3.450 -2.3140 -0.0385 -1.0417
41018SOL    HW230105   6.817   1.180   3.564 -1.3281 -0.0007 -0.5719
41019SOL     OW30106   9.985   2.789   4.357  0.3452 -0.2305  0.2799
41019SOL    HW130107  10.040   2.735   4.300  0.0697 -0.7701  0.5175
41019SOL    HW230108   9.985   2.875   4.315 -1.4443 -1.0909 -1.6415
41020SOL     OW30109   6.626  12.308   6.992 -0.1509  0.3924  1.1785
41020SOL    HW130110   6.633  12.249   6.916 -0.2071  1.6435  0.1681
41020SOL    HW230111   6.693  12.276   7.053 -1.4862 -1.9226  1.5583
41021SOL     OW30112   3.134   7.847  10.776 -0.4928  0.2472 -0.2569
41021SOL    HW130113   3.067   7.834  10.843 -0.1978  0.9855  0.1925
41021SOL    HW230114   3.129   7.940  10.754 -0.3872  0.0712 -1.0495
41022SOL     OW30115   7.969  11.284   7.526  0.3042 -0.7392 -0.0333
41022SOL    HW130116   8.047  11.286   7.582 -2.1561  0.1112  3.7782
41022SOL    HW230117   7.926  11.368   7.544 -2.1191 -1.7122 -0.9336
41023SOL     OW30118   7.961   8.716   8.855 -0.2662  0.6740  0.5400
41023SOL    HW130119   7.898   8.787   8.838  0.2446  0.9856 -0.1001
41023SOL    HW230120   8.010   8.708   8.773 -1.1360 -1.2716  0.1393
41024SOL     OW30121   7.909  12.089   1.413  0.3574  0.2124 -0.3120
41024SOL    HW130122   7.937  12.168   1.366  1.6476 -0.2416 -0.3502
41024SOL    HW230123   7.816  12.103   1.430  0.5721  1.7583 -0.2848
41025SOL     OW30124   0.709   8.830   6.792 -0.5456  0.7918 -0.3203
41025SOL    HW130125   0.710   8.736   6.777  1.3474  0.6940  0.1228
41025SOL    HW230126   0.694   8.869   6.706 -0.2396  0.0983 -0.6929
41026SOL     OW30127   9.109   6.608   1.599  0.1544 -0.4518  0.0036
41026SOL    HW130128   9.103   6.688   1.547 -0.8206 -1.1733 -1.0561
41026SOL    HW230129   9.151   6.545   1.540 -1.3909 -1.4230 -0.1151
41027SOL     OW30130   8.886   4.233   5.678 -0.4934 -0.1646 -0.3217
41027SOL    HW130131   8.956   4.247   5.614 -0.9669 -1.6553 -1.2430
41027SOL    HW230132   8.889   4.139   5.696 -1.9798 -0.1926 -0.0830
41028SOL     OW30133   2.554   7.899   0.906  0.2249 -0.0351 -0.8467
41028SOL    HW130134   2.589   7.812   0.925  0.4737  0.3520  0.5764
41028SOL    HW230135   2.486   7.912   0.973  0.6333  1.1104 -0.6364
41029SOL     OW30136  12.155   9.740   5.468  0.3575 -0.1373 -0.4488
41029SOL    HW130137  12.244   9.715   5.445  0.0221 -1.1068 -0.7469
41029SOL    HW230138  12.151   9.730   5.563  0.9692  1.3177 -0.2346
41030SOL     OW30139   2.769   0.223   2.977 -0.1011 -0.4898 -0.4176
41030SOL    HW130140   2.698   0.272   2.936  2.0774  3.0667 -0.3212
41030SOL    HW230141   2.830   0.204   2.905  0.5881 -0.2110  0.0817
41031SOL     OW30142   9.955   8.710   3.962  0.5220  0.2878 -0.0565
41031SOL    HW130143  10.034   8.717   3.908  0.2791 -1.5159 -0.7312
41031SOL    HW230144   9.988   8.683   4.048  0.7977  1.8674  0.3693
41032SOL     OW30145   2.228  12.272   5.241 -0.1146  0.5582 -0.3854
41032SOL    HW130146   2.291  12.200   5.239 -0.5817  0.0885  0.7089
41032SOL    HW230147   2.230  12.308   5.153  0.6671 -0.3280 -0.7522
41033SOL     OW30148   7.855   6.858   8.163 -0.7400 -0.4229 -0.1876
41033SOL    HW130149   7.929   6.835   8.107  1.6832  3.2470  1.1419
41033SOL    HW230150   7.820   6.774   8.191  3.3552 -2.4587 -0.3622
41034SOL     OW30151   7.303   1.161   2.733  0.1328  0.3528 -0.1166
41034SOL    HW130152   7.380   1.167   2.675 -1.3113  0.8395 -2.0846
41034SOL    HW230153   7.288   1.251   2.762 -0.4940  0.4850 -0.8416
41035SOL     OW30154   5.533   2.670   0.412  0.2368  0.2743  0.6301
41035SOL    HW130155   5.473   2.724   0.360  2.0763  1.6680 -0.1339
41035SOL    HW230156   5.558   2.725   0.486  0.6465 -0.2414  0.8799
41036SOL     OW30157  11.502   4.424   6.732 -0.2932  1.0837  0.2270
41036SOL    HW130158  11.481   4.482   6.805  1.1553  0.3569  1.2978
41036SOL    HW230159  11.505   4.337   6.772 -2.4545  0.2086 -1.3408
41037SOL     OW30160   7.140  11.995  11.324  0.4420 -0.1311  0.0687
41037SOL    HW130161   7.201  12.020  11.393  0.3223 -0.8718  0.4551
41037SOL    HW230162   7.187  11.928  11.274  0.6082  0.5446 -0.7031
41038SOL     OW30163   0.314   8.414   9.090  0.1092 -0.1602 -0.5225
41038SOL    HW130164   0.276   8.326   9.092  0.1119 -0.1546 -0.2326
41038SOL    HW230165   0.311   8.444   9.181  0.0621  0.1592 -0.6279
41039SOL     OW30166   7.567  10.465   7.493  0.1650  0.1034 -0.6666
41039SOL    HW130167   7.593  10.510   7.413  1.0892  1.2495  0.2362
41039SOL    HW230168   7.640  10.406   7.512  1.1910  1.7203  0.6838
41040SOL     OW30169   0.431   9.328  11.862 -0.3476  0.1365 -0.0368
41040SOL    HW130170   0.458   9.236  11.866 -0.2662  0.1289 -0.6638
41040SOL    HW230171   0.508   9.373  11.825 -0.0507  0.5981  1.1020
41041SOL     OW30172  12.582   2.406   2.898 -0.0417 -0.4020 -0.2299
41041SOL    HW130173  12.592   2.501   2.900 -3.7762  0.2281 -2.2603
41041SOL    HW230174  12.622   2.380   2.815 -1.9997  0.0123 -1.3714
41042SOL     OW30175   3.334   8.451   4.226 -0.5088  0.0687  0.0423
41042SOL    HW130176   3.414   8.401   4.215 -0.3120  0.5624 -0.7943
41042SOL    HW230177   3.328   8.466   4.321  1.0197  1.0633  0.0116
41043SOL     OW30178   2.536  12.554   3.215  0.9770  0.1701 -0.3445
41043SOL    HW130179   2.491  12.474   3.242  0.5989  0.6094  0.3550
41043SOL    HW230180   2.468  12.606   3.173  1.2690  0.0480 -0.9851
41044SOL     OW30181   6.306   1.943  11.293 -0.1908  0.0304  0.2092
41044SOL    HW130182   6.367   2.004  11.252 -0.1371  0.9259  1.5730
41044SOL    HW230183   6.253   1.997  11.352 -0.6701 -1.1161  0.8628
41045SOL     OW30184   3.696   9.744   8.797  0.2403 -0.3846 -0.0385
41045SOL    HW130185   3.791   9.748   8.808  0.0757  1.1329  1.1721
41045SOL    HW230186   3.680   9.783   8.711  0.6449  0.6778  0.3457
41046SOL     OW30187   6.227   5.236   8.148 -0.4554 -0.0416  0.2242
41046SOL    HW130188   6.167   5.310   8.154 -1.0478 -0.2588 -2.0006
41046SOL    HW230189   6.308   5.274   8.114 -0.4017 -0.2379  0.1329
41047SOL     OW30190   4.178   6.920   5.499  0.4070  0.0498  0.3862
41047SOL    HW130191   4.257   6.966   5.472 -0.6713  1.7834  0.0194
41047SOL    HW230192   4.109   6.954   5.441 -1.0296  0.2602  2.1175
41048SOL     OW30193   2.018  11.125   3.955 -0.3709  0.5488 -0.4321
41048SOL    HW130194   2.109  11.096   3.949 -1.0421 -1.5129 -1.8088
41048SOL    HW230195   2.019  11.194   4.020  1.5815 -2.0348  2.5913
41049SOL     OW30196   7.804   4.368  11.490 -0.2463 -0.2391  0.0781
41049SOL    HW130197   7.798   4.279  11.457 -0.7351  0.0645 -0.6957
41049SOL    HW230198   7.714   4.391  11.513  0.0964 -0.4871  1.8083
41050SOL     OW30199   1.898   4.882   1.031 -0.2209 -0.4516  0.2023
41050SOL    HW130200   1.883   4.966   0.987  0.4947 -0.1299  0.5592
41050SOL    HW230201   1.911   4.905   1.123  0.8969 -0.8549  0.1563
41051SOL     OW30202   4.600   4.815   1.193 -0.4902  0.2468  0.0441
41051SOL    HW130203   4.607   4.772   1.108 -2.6492 -1.3056  0.5514
41051SOL    HW230204   4.525   4.874   1.183 -0.4822  0.3802  0.7330
41052SOL     OW30205   6.909   2.108   7.417  0.0971  0.2154  0.0783
41052SOL    HW130206   6.964   2.069   7.486 -2.0426  1.4983  2.7106
41052SOL    HW230207   6.865   2.034   7.376  1.3851 -0.5920  0.0928
41053SOL     OW30208   9.240   3.217   5.343  0.8499  0.5546  0.8488
41053SOL    HW130209   9.167   3.155   5.353  0.3694  0.6907 -1.3061
41053SOL    HW230210   9.299   3.175   5.280  0.5787  2.1765 -0.5562
41054SOL     OW30211   0.123  11.027  10.653  0.1941 -0.0358  0.3820
41054SOL    HW130212   0.214  11.000  10.663  0.3769  0.2133 -0.4871
41054SOL    HW230213   0.127  11.122  10.645 -0.1902  0.0179  0.7838
41055SOL     OW30214   6.887   7.244   7.417  0.1906 -0.1937  0.4680
41055SOL    HW130215   6.943   7.321   7.413 -0.3752  0.2824  1.4101
41055SOL    HW230216   6.928   7.186   7.481  0.1193 -0.2712  0.4451
41056SOL     OW30217  12.391   1.557   7.901 -0.6604  0.0681 -0.4960
41056SOL    HW130218  12.435   1.589   7.980 -0.5404  0.4490 -0.7119
41056SOL    HW230219  12.329   1.626   7.879  0.2324  0.5997 -1.4843
41057SOL     OW30220  12.230   6.634   9.060  0.3840  0.7627  0.3390
41057SOL    HW130221  12.134   6.641   9.056  0.3694  0.6922  0.5254
41057SOL    HW230222  12.252   6.571   8.991  0.1658 -0.2538  1.1556
41058SOL     OW30223   5.246  11.166   4.076  0.1668 -0.1637  0.3074
41058SOL    HW130224   5.305  11.161   4.001  0.0382  1.5786  0.0604
41058SOL    HW230225   5.161  11.136   4.042  0.7460 -2.2513  0.5566
41059SOL     OW30226   8.094   8.087   9.377 -0.1150  0.3868 -0.6259
41059SOL    HW130227   8.018   8.112   9.430  1.1911  0.9510  1.0589
41059SOL    HW230228   8.078   7.996   9.354  0.5173 -0.8258  3.1446
41060SOL     OW30229  12.559   6.530   5.209  0.4186 -0.7256 -0.0308
41060SOL    HW130230  12.497   6.478   5.260  0.6251 -0.3799  0.5811
41060SOL    HW230231  12.562   6.614   5.253 -1.1518  0.4128 -1.9383
41061SOL     OW30232   1.841   0.032  12.351 -0.1025  0.1216  0.1613
41061SOL    HW130233   1.835   0.089  12.427 -0.6942  1.1498 -0.6221
41061SOL    HW230234   1.926   0.052  12.312 -1.1260  2.0487 -1.2623
41062SOL     OW30235   9.544   7.944   4.838 -0.3319  0.1902 -0.3128
41062SOL    HW130236   9.562   8.034   4.812 -1.5576  0.6486  0.3440
41062SOL    HW230237   9.511   7.950   4.927  2.1154 -1.1874  0.8113
41063SOL     OW30238   9.500  12.082   9.455  0.2823 -0.4838  0.1427
41063SOL    HW130239   9.528  12.032   9.378 -0.5567 -0.9559  0.1337
41063SOL    HW230240   9.525  12.028   9.529  2.2997  0.5641  0.3018
41064SOL     OW30241  11.342   7.349  10.489  0.4006  0.6632  0.1724
41064SOL    HW130242  11.282   7.301  10.547  2.8979 -2.0517  0.7811
41064SOL    HW230243  11.326   7.313  10.402 -0.1123  1.3029 -0.0022
41065SOL     OW30244   0.802  11.939   7.293 -0.3419 -0.0848  0.6511
41065SOL    HW130245   0.769  11.927   7.381  0.5718 -0.5296  0.9487
41065SOL    HW230246   0.823  12.032   7.287 -0.5808 -0.0182  0.8340
41066SOL     OW30247   0.695   9.714   5.301 -0.0409 -0.8366 -0.3607
41066SOL    HW130248   0.726   9.701   5.211 -1.8739 -2.0890 -0.8575
41066SOL    HW230249   0.712   9.630   5.344 -2.5864 -1.5718 -0.6475
41067SOL     OW30250   4.216  10.397   0.486 -0.1417 -0.3667  0.3878
41067SOL    HW130251   4.241  10.351   0.406  0.8333  2.4056 -1.0321
41067SOL    HW230252   4.298  10.428   0.523 -0.8440  3.0434 -0.6027
41068SOL     OW30253  10.181   1.533   5.697  0.2208  0.9659  0.0215
41068SOL    HW130254  10.087   1.531   5.676 -0.2247  2.7383  1.5949
41068SOL    HW230255  10.202   1.442   5.716 -0.9749  0.4065 -1.0735
41069SOL     OW30256   0.381   1.605   1.243  0.3316  0.3814 -0.5125
41069SOL    HW130257   0.419   1.609   1.331  2.8808  1.7401 -1.5475
41069SOL    HW230258   0.363   1.696   1.221 -4.1947 -0.1862  0.0176
41070SOL     OW30259   7.051  10.868  12.483 -0.5240 -0.2727  0.0087
41070SOL    HW130260   6.977  10.812  12.503 -0.7450  0.0377  0.0720
41070SOL    HW230261   7.128  10.812  12.493 -0.6807 -0.3215  0.9826
41071SOL     OW30262   2.874   2.489   0.443  0.3203  0.0833 -0.2430
41071SOL    HW130263   2.852   2.439   0.365 -2.1430  1.1647 -0.3501
41071SOL    HW230264   2.871   2.425   0.514 -1.0082 -0.2865 -0.6044
41072SOL     OW30265   4.919   8.869   2.208  0.0004 -0.8149 -0.0959
41072SOL    HW130266   4.914   8.939   2.273  0.0058 -0.2024 -0.7336
41072SOL    HW230267   4.839   8.878   2.157  0.9108  0.0395 -1.4587
41073SOL     OW30268   4.369  12.284   4.370  0.3279 -0.0838 -0.5108
41073SOL    HW130269   4.323  12.200   4.364  1.7418 -0.9278 -0.0991
41073SOL    HW230270   4.350  12.328   4.287 -0.5586 -0.7379 -0.6651
41074SOL     OW30271   9.748   5.913   6.110 -0.4226  0.2776 -0.1334
41074SOL    HW130272   9.653   5.907   6.100 -0.3733 -0.3371 -0.2588
41074SOL    HW230273   9.777   5.823   6.123  0.0352  0.5643  0.9162
41075SOL     OW30274   5.540   3.465   3.430  0.5587 -0.1390  0.1177
41075SOL    HW130275   5.515   3.531   3.495  0.2193 -0.7206  0.5961
41075SOL    HW230276   5.543   3.512   3.347 -1.4972  0.1027  0.1370
41076SOL     OW30277   0.684   8.211   2.236 -0.2221  0.2934 -0.3973
41076SOL    HW130278   0.675   8.229   2.329  1.2253  0.5634 -0.2864
41076SOL    HW230279   0.636   8.129   2.223  0.7724 -0.5434  0.8899
41077SOL     OW30280   0.082   7.920   8.788  0.0904 -0.1642  0.4018
41077SOL    HW130281   0.081   7.837   8.835 -0.9578 -0.1011  0.5310
41077SOL    HW230282   0.049   7.984   8.852  0.7732  0.3273  0.2680
41078SOL     OW30283   0.546   3.530   2.397 -0.3454  1.0018  0.2159
41078SOL    HW130284   0.606   3.463   2.430 -2.4471 -1.2977 -0.3721
41078SOL    HW230285   0.592   3.568   2.322  2.0412  2.2741  2.1468
41079SOL     OW30286   5.479   0.480   3.824 -0.9921 -0.0655  0.2444
41079SOL    HW130287   5.555   0.478   3.765 -1.5768 -1.2632 -0.5036
41079SOL    HW230288   5.496   0.553   3.882  0.9829 -0.5936  0.3992
41080SOL     OW30289  12.015   6.052  11.710 -0.0181 -0.1276 -0.1940
41080SOL    HW130290  11.953   6.124  11.699 -0.6147 -0.9418 -2.9453
41080SOL    HW230291  11.959   5.975  11.723  0.4969 -0.4865 -0.0961
41081SOL     OW30292   3.476   9.970   7.861 -0.2343 -0.1195 -0.0988
41081SOL    HW130293   3.507   9.974   7.770 -0.2856 -0.8805 -0.1558
41081SOL    HW230294   3.418  10.045   7.869  1.0698  0.9359 -0.1958
41082SOL     OW30295   3.217   4.237   0.923  0.0665 -0.5095  0.7397
41082SOL    HW130296   3.231   4.162   0.866 -0.5131 -0.7879  0.9653
41082SOL    HW230297   3.146   4.211   0.982  0.3342 -0.0494  1.2809
41083SOL     OW30298   5.092   0.692   3.773 -0.9374  0.6167 -0.1971
41083SOL    HW130299   5.076   0.600   3.749  0.1047  0.8377 -1.8597
41083SOL    HW230300   5.020   0.713   3.833 -0.9857 -1.3860  0.5115
41084SOL     OW30301   8.625   8.278   0.018  0.6152  0.0634 -0.1804
41084SOL    HW130302   8.540   8.318   0.000  0.7051 -0.0477 -0.8967
41084SOL    HW230303   8.679   8.305  -0.057  0.3091 -2.5228 -1.4344
41085SOL     OW30304   7.941   2.967   2.847  0.5475  0.0326 -0.2417
41085SOL    HW130305   8.014   2.916   2.813  0.3791  0.4909 -1.3157
41085SOL    HW230306   7.955   3.055   2.811 -1.3690 -0.2336 -1.7595
41086SOL     OW30307   6.085   2.243   6.494  0.4949 -0.1209 -0.6046
41086SOL    HW130308   6.176   2.254   6.522 -0.0217  0.1793  1.0190
41086SOL    HW230309   6.037   2.225   6.574 -0.9951  0.3315 -1.3640
41087SOL     OW30310   5.926   7.150   2.176  0.1304 -0.6508  0.1191
41087SOL    HW130311   5.879   7.070   2.200  0.4743 -0.7793  0.3715
41087SOL    HW230312   5.876   7.186   2.104  0.9317 -2.0294 -1.2040
41088SOL     OW30313   2.279   9.415   2.035 -0.1650 -0.0420  0.6305
41088SOL    HW130314   2.328   9.434   1.955  0.4280  0.9405  1.1998
41088SOL    HW230315   2.192   9.391   2.005 -0.3132  1.4675 -0.2841
41089SOL     OW30316   8.031   4.055   4.747 -0.4839 -0.2075 -0.6165
41089SOL    HW130317   8.123   4.038   4.728  0.1376 -0.2108  2.0838
41089SOL    HW230318   8.003   4.116   4.678  1.4551 -0.3134 -1.5609
41090SOL     OW30319   6.315  10.521  11.490  0.2730 -0.5354  0.5364
41090SOL    HW130320   6.320  10.447  11.429 -0.9767 -0.0512 -0.1922
41090SOL    HW230321   6.230  10.511  11.532 -0.6447  1.3113 -0.7247
41091SOL     OW30322   2.192   2.243  10.128 -0.3154 -0.3602  0.0195
41091SOL    HW130323   2.260   2.310  10.129 -1.4214  0.8112  1.7490
41091SOL    HW230324   2.216   2.182  10.198  0.4543 -1.6052 -1.2655
41092SOL     OW30325   8.872   3.505   0.794 -0.4362 -0.1061  0.1852
41092SOL    HW130326   8.811   3.511   0.867 -0.7488 -0.8566 -0.0013
41092SOL    HW230327   8.859   3.417   0.759  0.9886 -0.4077  0.3402
41093SOL     OW30328   7.527   1.215   5.802 -0.3675  0.1873 -0.2493
41093SOL    HW130329   7.438   1.185   5.789  0.3664 -1.1990 -2.7238
41093SOL    HW230330   7.531   1.300   5.758 -0.2005 -0.2739 -1.1382
41094SOL     OW30331   7.520  11.067  10.172  0.3665 -0.2689  0.5489
41094SOL    HW130332   7.457  10.998  10.195  1.1195 -0.7881  1.1291
41094SOL    HW230333   7.591  11.056  10.236  0.8823  0.5211  0.1239
41095SOL     OW30334   6.738   5.472   5.967  0.6649  0.0270  0.4537
41095SOL    HW130335   6.796   5.543   5.938 -0.8987  0.9780 -0.4825
41095SOL    HW230336   6.741   5.408   5.896  0.9481 -0.1530  0.6288
41096SOL     OW30337   0.963   7.559   5.471  0.2980  0.2594  0.5997
41096SOL    HW130338   0.884   7.582   5.520 -0.4749 -1.5142  0.2542
41096SOL    HW230339   1.026   7.533   5.537  0.4221  1.1230  0.8387
41097SOL     OW30340   3.647   0.058   0.802 -0.4650  0.2856  0.0050
41097SOL    HW130341   3.660   0.122   0.732 -2.0957  0.8055  0.1257
41097SOL    HW230342   3.621   0.110   0.878 -2.7124 -0.5236 -0.1386
41098SOL     OW30343   6.169   3.758   6.881 -0.1792  0.5761 -0.0251
41098SOL    HW130344   6.210   3.739   6.797  0.8650  0.6864  0.4472
41098SOL    HW230345   6.126   3.843   6.869  0.1875  0.7142 -0.3646
41099SOL     OW30346   6.834   0.504   5.991  0.1746  0.0305  0.4899
41099SOL    HW130347   6.865   0.563   6.059 -0.0201 -0.8334  1.3441
41099SOL    HW230348   6.910   0.493   5.933  0.6219  0.0541  1.0630
41100SOL     OW30349   8.676   2.637   3.168  0.0402  0.2670  0.0036
41100SOL    HW130350   8.699   2.710   3.226 -0.7957  1.0614 -0.6491
41100SOL    HW230351   8.743   2.571   3.186 -0.7704  0.0573  2.6426
41101SOL     OW30352  11.930   5.700   9.812 -0.0367  0.4111 -0.4834
41101SOL    HW130353  11.900   5.618   9.773 -0.7673  0.7576 -0.6492
41101SOL    HW230354  11.856   5.759   9.806  0.6849  1.2931 -0.9174
41102SOL     OW30355   8.965  10.998   4.396  0.5267 -0.2090  0.1746
41102SOL    HW130356   8.893  10.937   4.408 -0.0676  0.4870  0.2692
41102SOL    HW230357   9.008  11.003   4.481  0.2186 -0.0689  0.3259
41103SOL     OW30358   9.268   8.777   3.020  0.2981 -0.0616 -0.3102
41103SOL    HW130359   9.222   8.765   2.937  0.6885  1.7904 -0.8386
41103SOL    HW230360   9.359   8.795   2.995  0.8813 -1.5780  0.6311
41104SOL     OW30361   5.281   5.370   6.081 -0.4463 -0.0839 -0.3671
41104SOL    HW130362   5.188   5.371   6.058 -0.6722  1.5762  0.4750
41104SOL    HW230363   5.287   5.423   6.160  1.3658  0.7366 -0.9908
41105SOL     OW30364  10.807  11.291  11.522  0.4892 -0.0072 -0.0737
41105SOL    HW130365  10.887  11.256  11.561 -0.3734 -1.6325  0.3398
41105SOL    HW230366  10.737  11.237  11.558 -0.8592  1.6341 -0.0996
41106SOL     OW30367   8.909   2.875   9.402 -0.0290 -0.4966 -0.0105
41106SOL    HW130368   8.918   2.886   9.497 -1.1716 -0.1137  0.0720
41106SOL    HW230369   8.875   2.959   9.371 -1.2661 -1.1370 -0.4990
41107SOL     OW30370   2.790   6.280   0.872 -0.0145 -0.0235 -0.1767
41107SOL    HW130371   2.798   6.373   0.855  0.5342  0.2682  1.5069
41107SOL    HW230372   2.797   6.239   0.785  0.6788  1.4214 -0.8359
41108SOL     OW30373   4.491   9.481   4.243 -0.1451  0.1179  0.4452
41108SOL    HW130374   4.577   9.469   4.284  0.1418 -1.3680 -0.5313
41108SOL    HW230375   4.502   9.556   4.185  0.8474 -0.7811 -0.5616
41109SOL     OW30376   1.249   7.594   8.530  0.1768  0.1729 -0.2019
41109SOL    HW130377   1.217   7.545   8.454 -0.4213  1.6218 -0.9198
41109SOL    HW230378   1.239   7.686   8.505  1.4723  0.6796  1.0128
41110SOL     OW30379   1.135   9.104   3.259 -0.3169  0.3646 -0.1873
41110SOL    HW130380   1.103   9.132   3.345 -2.1087  1.4240 -1.1465
41110SOL    HW230381   1.208   9.163   3.241  1.1869 -0.9444  1.2755
41111SOL     OW30382   8.675   3.006   5.897 -0.0483 -0.2395 -0.2879
41111SOL    HW130383   8.752   3.012   5.841 -1.1114 -0.9507 -1.8912
41111SOL    HW230384   8.657   2.913   5.904 -1.5246 -0.0383 -1.0422
41112SOL     OW30385   5.336   6.299   5.307 -0.0032 -0.5632 -0.5285
41112SOL    HW130386   5.345   6.287   5.213 -0.8902 -0.6440 -0.6181
41112SOL    HW230387   5.315   6.212   5.340 -1.1171 -0.2856 -0.4598
41113SOL     OW30388  10.435   1.093   7.968 -0.2954  0.8975  0.4248
41113SOL    HW130389  10.516   1.043   7.983 -0.9881 -0.4720 -0.1750
41113SOL    HW230390  10.439   1.164   8.031  1.2437  0.7003  0.6033
41114SOL     OW30391   0.463   4.399   0.464 -0.1974  0.3836  0.2309
41114SOL    HW130392   0.375   4.401   0.426 -0.1833 -0.1764  0.1610
41114SOL    HW230393   0.450   4.411   0.558 -0.5810 -2.2329  0.5759
41115SOL     OW30394   2.028   9.555   4.346 -0.2085  0.8573  0.1895
41115SOL    HW130395   1.971   9.495   4.297 -0.3802  1.1002  0.0894
41115SOL    HW230396   2.110   9.508   4.355 -1.0179 -0.2964  2.0254
41116SOL     OW30397   9.309   6.761  10.986 -0.1368 -0.6999 -0.1580
41116SOL    HW130398   9.305   6.674  10.947  1.6740 -1.3362  0.9430
41116SOL    HW230399   9.402   6.786  10.980 -0.0974 -0.0679  2.0275
41117SOL     OW30400  10.839   8.267   4.966  0.2137 -0.2608  0.7334
41117SOL    HW130401  10.799   8.354   4.954  1.5201  0.3899  0.9680
41117SOL    HW230402  10.931   8.280   4.943  0.6454 -1.3422  1.8023
41118SOL     OW30403  11.705   9.857   4.924  0.1102 -0.6373  0.0514
41118SOL    HW130404  11.624   9.820   4.960  1.1368 -1.9237  1.1921
41118SOL    HW230405  11.765   9.782   4.919  1.5918  0.4815  0.3432
41119SOL     OW30406   6.909  11.466   2.983  0.2078 -0.2188 -0.0639
41119SOL    HW130407   6.877  11.433   2.899 -0.6110  0.8401 -0.1982
41119SOL    HW230408   6.917  11.388   3.038  1.3305 -1.0011 -1.2845
41120SOL     OW30409   5.395   8.778   3.791 -0.1376  0.3694  0.3770
41120SOL    HW130410   5.300   8.786   3.796 -0.0571  0.7331  1.6034
41120SOL    HW230411   5.422   8.850   3.733 -0.5472  0.7364  0.6337
41121SOL     OW30412   2.393   6.199  12.542 -0.4830  0.3085 -0.1725
41121SOL    HW130413   2.416   6.254  12.467  0.4004  1.5277  0.9470
41121SOL    HW230414   2.370   6.261  12.612 -1.4082 -0.7978  0.5404
41122SOL     OW30415   0.757   3.746   7.642 -0.0855  0.5716 -0.0155
41122SOL    HW130416   0.734   3.747   7.549 -1.4084 -0.8817  0.2497
41122SOL    HW230417   0.681   3.785   7.686  0.4296  1.0291  0.4867
41123SOL     OW30418   2.539   0.215   2.831  0.2850 -0.2913  0.7281
41123SOL    HW130419   2.534   0.220   2.735 -2.0506  2.3092  0.8478
41123SOL    HW230420   2.459   0.168   2.856 -0.2072  0.8729  1.4169
41124SOL     OW30421   2.187   9.460   5.637 -0.0604  0.0844 -0.0869
41124SOL    HW130422   2.211   9.533   5.694 -1.9980 -1.6222  3.2312
41124SOL    HW230423   2.094   9.444   5.657 -0.2406 -2.0217 -2.2039
41125SOL     OW30424   5.370   5.352   1.140  0.1529 -0.2315  0.4704
41125SOL    HW130425   5.421   5.310   1.071 -0.4080 -1.4577  0.7737
41125SOL    HW230426   5.432   5.366   1.211  0.5793  0.4392 -0.0141
41126SOL     OW30427   4.048   7.772   8.707 -0.4451 -0.0923 -0.0151
41126SOL    HW130428   4.000   7.852   8.727 -0.1984 -0.1087  0.7060
41126SOL    HW230429   4.010   7.740   8.625 -0.9727  0.4216  0.0213
41127SOL     OW30430   7.191   8.417  10.724  0.1528  0.4439 -0.6453
41127SOL    HW130431   7.168   8.381  10.638  0.5838 -0.6034 -0.3422
41127SOL    HW230432   7.112   8.462  10.753 -0.7072 -0.9840 -0.6836
41128SOL     OW30433   8.899   8.371  10.641  0.0990 -0.1930  0.0968
41128SOL    HW130434   8.825   8.377  10.582 -1.3604  0.0555  1.8619
41128SOL    HW230435   8.900   8.280  10.670  0.2354 -0.1077  0.3722
41129SOL     OW30436   0.179   7.590   8.742 -0.2994 -0.2857 -0.1495
41129SOL    HW130437   0.117   7.639   8.796  0.8614  0.9962  0.0660
41129SOL    HW230438   0.265   7.613   8.776  0.3865 -0.8800 -1.3860
41130SOL     OW30439   8.675   4.567   3.037 -0.0161 -0.1019  0.4541
41130SOL    HW130440   8.711   4.619   3.109 -0.3441 -1.7009  1.8196
41130SOL    HW230441   8.751   4.520   3.002 -0.3104 -1.6021  1.7409
41131SOL     OW30442   8.375   4.689   1.528 -0.2867  0.1809 -0.3988
41131SOL    HW130443   8.435   4.757   1.558 -0.4907  0.6132 -0.9454
41131SOL    HW230444   8.367   4.630   1.602 -1.3563  1.6007  0.6751
41132SOL     OW30445   6.096   0.098   1.164 -0.5028 -0.9042  0.1636
41132SOL    HW130446   6.101   0.157   1.089 -2.8697 -0.0556  0.5586
41132SOL    HW230447   6.051   0.020   1.131 -0.5049 -1.0181  0.4309
41133SOL     OW30448  10.809   2.257   4.150 -0.2007 -0.0154 -0.3948
41133SOL    HW130449  10.780   2.212   4.071 -0.0292 -0.1350 -0.3899
41133SOL    HW230450  10.736   2.315   4.173 -0.0940  0.3096 -0.8628
41134SOL     OW30451   1.200   6.168   7.840  0.1855 -0.8221  0.2956
41134SOL    HW130452   1.251   6.114   7.901 -1.0147 -1.5993  0.6400
41134SOL    HW230453   1.136   6.108   7.802  0.6972 -0.2837 -1.5354
41135SOL     OW30454   0.901   5.802   3.960  0.0673 -0.3381  0.9156
41135SOL    HW130455   0.859   5.803   3.875  0.1347 -1.5169  0.8499
41135SOL    HW230456   0.830   5.818   4.022 -0.0187  0.2927  0.6631
41136SOL     OW30457   0.179   7.131  11.708  0.1771 -0.0901 -0.4914
41136SOL    HW130458   0.124   7.108  11.634  0.1073  0.5182 -0.6374
41136SOL    HW230459   0.251   7.182  11.669 -0.9937  2.1140  0.0796
41137SOL     OW30460   4.127   2.129   3.227  0.4335 -0.2557  0.3881
41137SOL    HW130461   4.159   2.088   3.147 -0.0023  1.8190 -0.9439
41137SOL    HW230462   4.032   2.134   3.215  0.5768  2.6973 -0.4261
41138SOL     OW30463   5.501   0.290  12.287  0.1815 -0.1080  0.2513
41138SOL    HW130464   5.573   0.345  12.257 -0.9058  1.9962  1.2304
41138SOL    HW230465   5.502   0.214  12.229 -0.7804  2.8210 -4.1110
41139SOL     OW30466   6.683   2.611   0.755 -0.2125  1.0513  0.4866
41139SOL    HW130467   6.711   2.659   0.832 -2.4619 -0.6999  2.5561
41139SOL    HW230468   6.718   2.523   0.767  0.5479  1.0658 -1.2459
41140SOL     OW30469  11.699  12.404   5.914  0.0140 -0.0932 -0.0236
41140SOL    HW130470  11.760  12.461   5.866  0.6197  0.0119  0.8289
41140SOL    HW230471  11.637  12.373   5.848  1.3612 -0.6976 -1.0504
41141SOL     OW30472   0.958  12.190   3.935  0.1099 -0.4244  0.4193
41141SOL    HW130473   0.957  12.275   3.889  2.9096 -0.3440  0.3373
41141SOL    HW230474   1.020  12.203   4.007 -0.2487 -2.1097  1.0581
41142SOL     OW30475   6.143  12.034   3.515  0.5567 -0.2134 -0.4726
41142SOL    HW130476   6.097  12.002   3.593  1.5833 -1.4188 -0.3319
41142SOL    HW230477   6.213  12.089   3.549  0.2817  0.2354 -0.6157
41143SOL     OW30478   5.548   5.997  12.158 -0.4335  0.4877 -0.4670
41143SOL    HW130479   5.496   5.920  12.183  0.0231 -0.0471 -1.1138
41143SOL    HW230480   5.536   6.058  12.230  0.3657 -0.7654  0.7851
41144SOL     OW30481   7.633   7.151  11.775 -0.6307 -0.2279 -0.2737
41144SOL    HW130482   7.654   7.154  11.868  0.0047 -0.9316 -0.3824
41144SOL    HW230483   7.713   7.178  11.731 -0.7966 -0.3065 -0.6276
41145SOL     OW30484   1.978   7.126  10.692 -0.3416  0.8393  0.7518
41145SOL    HW130485   1.924   7.181  10.635 -1.1981  0.7092  1.4146
41145SOL    HW230486   1.935   7.132  10.778  1.5023  1.8777  1.6679
41146SOL     OW30487  11.286   9.742   9.278  0.5574 -0.0813  0.2394
41146SOL    HW130488  11.381   9.729   9.287  0.6061 -0.0779 -0.2307
41146SOL    HW230489  11.275   9.837   9.270  0.3311  0.1028  2.2021
41147SOL     OW30490  11.610   2.381  11.763  0.4263 -0.3960  0.0497
41147SOL    HW130491  11.640   2.451  11.822  0.6017 -0.4254 -0.0052
41147SOL    HW230492  11.591   2.426  11.681  0.2847 -0.3717  0.0951
41148SOL     OW30493   6.613   8.334   1.150 -0.3621  0.3525  0.1497
41148SOL    HW130494   6.658   8.416   1.132 -0.8623  0.2150 -2.0127
41148SOL    HW230495   6.683   8.273   1.175  0.2171  0.9837  0.0858
41149SOL     OW30496  12.317   2.028   7.267 -0.0989  0.3870 -0.3644
41149SOL    HW130497  12.363   1.950   7.238 -0.4828  0.3628 -0.9373
41149SOL    HW230498  12.228   1.998   7.285 -0.1964  0.6556 -0.3950
41150SOL     OW30499   1.244   7.706   3.844  0.0483  0.8569 -0.2147
41150SOL    HW130500   1.210   7.640   3.783 -0.9663  0.7944  0.3998
41150SOL    HW230501   1.169   7.762   3.862  0.5645  1.3797  0.3226
41151SOL     OW30502  12.005  10.257   1.021 -0.5346  0.0817  0.5453
41151SOL    HW130503  12.046  10.171   1.037  1.0018  0.8032  0.7023
41151SOL    HW230504  12.033  10.279   0.932 -0.6245  0.5687  0.6399
41152SOL     OW30505   1.104  11.610   3.355 -0.5033 -0.3576 -0.1510
41152SOL    HW130506   1.157  11.683   3.325  0.9969 -1.0378  0.7338
41152SOL    HW230507   1.104  11.618   3.451 -2.4915 -0.0692 -0.1333
41153SOL     OW30508  10.004   1.346  11.243 -0.3896  0.2688 -0.3527
41153SOL    HW130509  10.082   1.351  11.299 -0.6303  0.9965 -0.0717
41153SOL    HW230510  10.013   1.422  11.184 -0.2059 -0.4092 -1.2215
41154SOL     OW30511   0.198   6.432   2.230 -0.0034  0.2088 -0.3746
41154SOL    HW130512   0.119   6.407   2.278 -1.5415  1.0965 -2.2941
41154SOL    HW230513   0.198   6.528   2.233 -0.1003  0.2860 -1.9795
41155SOL     OW30514   4.274   5.571   4.872  0.3821 -0.2727  0.1203
41155SOL    HW130515   4.320   5.497   4.912  0.3521 -0.2346  0.2274
41155SOL    HW230516   4.240   5.537   4.790  0.2889 -0.4058  0.2123
41156SOL     OW30517   2.440   9.143   8.600 -0.6633  0.4766 -0.0287
41156SOL    HW130518   2.387   9.085   8.655 -0.3896  0.2447 -0.0080
41156SOL    HW230519   2.485   9.200   8.662 -1.5243  1.2269 -0.0833
41157SOL     OW30520   9.127   7.707   0.203 -0.0865  0.1492  0.5590
41157SOL    HW130521   9.089   7.675   0.122 -0.1719 -0.5824  0.8812
41157SOL    HW230522   9.075   7.785   0.225  0.4142  0.7941 -0.4611
41158SOL     OW30523   6.866   1.668   9.068 -0.6200  0.0656 -0.0051
41158SOL    HW130524   6.875   1.607   8.995  0.4685 -0.7930  0.8222
41158SOL    HW230525   6.926   1.635   9.135  0.5780  2.4719  0.2018
41159SOL     OW30526  11.256  12.595   5.296  0.2976 -0.0272  0.0719
41159SOL    HW130527  11.234  12.503   5.278 -0.9614  0.1810  0.4511
41159SOL    HW230528  11.277  12.632   5.210 -1.5608 -0.0792 -0.4374
41160SOL     OW30529   1.275   8.545  10.303  0.0474  0.2778  0.0196
41160SOL    HW130530   1.347   8.517  10.359 -0.1673 -0.8864 -0.2695
41160SOL    HW230531   1.209   8.579  10.363  0.3346  0.2241  0.3694
41161SOL     OW30532  11.780  11.575   8.946  0.7196  0.0825 -0.1655
41161SOL    HW130533  11.851  11.568   8.883 -0.6265 -1.5165 -1.6126
41161SOL    HW230534  11.741  11.661   8.929  0.8246 -0.0332 -1.0510
41162SOL     OW30535  10.526   2.603   1.635  0.6227  0.3367 -0.2337
41162SOL    HW130536  10.448   2.559   1.600  1.4690 -1.9554  0.5436
41162SOL    HW230537  10.597   2.574   1.577  1.6204 -1.4760  1.7330
41163SOL     OW30538   4.338   9.830   8.120 -0.5441  0.6984  0.9234
41163SOL    HW130539   4.342   9.783   8.037  0.3949  2.2356  0.0518
41163SOL    HW230540   4.323   9.762   8.185 -2.6450 -0.4069 -0.6114
41164SOL     OW30541   4.671   8.058   0.917  0.1860  0.1427  0.1573
41164SOL    HW130542   4.726   8.033   0.991 -0.1038  1.0216  0.6920
41164SOL    HW230543   4.661   8.153   0.927  1.3693  0.5206 -1.8498
41165SOL     OW30544   0.339   9.870   5.919  0.3729  0.2129  0.3969
41165SOL    HW130545   0.421   9.885   5.873 -0.6111  0.6855 -1.2882
41165SOL    HW230546   0.354   9.904   6.007  2.3117 -0.6917  0.4697
41166SOL     OW30547   7.360   9.299  11.365  0.6436 -0.5109 -0.2360
41166SOL    HW130548   7.449   9.264  11.365  1.3899  1.2193 -1.5962
41166SOL    HW230549   7.308   9.232  11.321  1.3007 -1.4568  0.3858
41167SOL     OW30550   3.119   6.359   1.262  0.4218 -0.1818 -0.1295
41167SOL    HW130551   3.193   6.419   1.267  1.2861 -1.2073 -0.3905
41167SOL    HW230552   3.105   6.345   1.168 -0.3834  0.3279 -0.0988
41168SOL     OW30553   2.631   2.304   5.982  0.3504  0.1384  0.6022
41168SOL    HW130554   2.609   2.247   5.909 -1.2020  0.9156  0.4210
41168SOL    HW230555   2.727   2.311   5.980  0.6467 -2.8487  0.9816
41169SOL     OW30556   0.956   0.015  11.779  0.3379  0.0820 -0.4228
41169SOL    HW130557   0.946  -0.072  11.740  0.9977 -0.1662 -0.0514
41169SOL    HW230558   0.959  -0.002  11.874 -0.0583  0.5627 -0.3208
41170SOL     OW30559   6.024   5.021   3.989 -0.4548 -0.0733 -0.3819
41170SOL    HW130560   6.045   4.941   4.037 -1.3062 -0.5828 -0.8427
41170SOL    HW230561   5.929   5.020   3.980 -0.6488  1.7079  0.8489
41171SOL     OW30562   1.324   3.285  10.835  0.1052 -0.3001 -0.0139
41171SOL    HW130563   1.320   3.255  10.926  1.5253 -1.2848 -0.2449
41171SOL    HW230564   1.307   3.207  10.783  1.3161 -0.1906 -0.6071
41172SOL     OW30565  11.933   4.992   5.586  0.1093 -0.0887  0.2827
41172SOL    HW130566  11.871   4.955   5.649  0.0128 -0.6778 -0.1374
41172SOL    HW230567  12.016   4.999   5.633 -0.9848  4.0830  2.0105
41173SOL     OW30568  10.841   4.677   7.171  0.2025 -0.1309  0.3703
41173SOL    HW130569  10.897   4.631   7.235  0.4612  0.0806  0.2976
41173SOL    HW230570  10.810   4.607   7.113  1.5871 -0.0662 -0.4879
41174SOL     OW30571   0.886   2.459   1.389  0.2373 -0.1675  0.1552
41174SOL    HW130572   0.887   2.550   1.418 -0.2516 -0.2379  0.3959
41174SOL    HW230573   0.799   2.446   1.352 -0.0937 -0.8502  1.1340
41175SOL     OW30574   1.533   7.462   4.944 -0.2612  0.1045  0.4582
41175SOL    HW130575   1.526   7.478   4.850 -1.3621  1.5257  0.7545
41175SOL    HW230576   1.595   7.528   4.975 -0.1200 -0.1776  0.7879
41176SOL     OW30577   2.459  12.103  11.832  0.2770 -0.0043 -0.1310
41176SOL    HW130578   2.424  12.171  11.774  0.2554 -1.3795 -1.8241
41176SOL    HW230579   2.511  12.151  11.897 -1.1115  1.7297 -0.2353
41177SOL     OW30580   2.163   7.083   6.249 -0.0762 -0.2561 -0.2873
41177SOL    HW130581   2.167   7.041   6.163 -0.7222 -1.1645  0.1127
41177SOL    HW230582   2.218   7.027   6.305  0.5005  0.4390 -0.1383
41178SOL     OW30583   0.307  10.697   2.874 -0.1509  0.0017 -0.4229
41178SOL    HW130584   0.273  10.668   2.959 -0.2369 -0.0479 -0.4738
41178SOL    HW230585   0.364  10.625   2.846  0.1802  0.1865 -0.2297
41179SOL     OW30586   7.825   7.830  11.473  0.3590 -0.0603  0.4299
41179SOL    HW130587   7.845   7.736  11.470  1.2924  0.0905  1.2993
41179SOL    HW230588   7.910   7.871  11.491 -0.3415  0.8043  1.9517
41180SOL     OW30589  11.342   2.407  10.598 -0.2993 -0.3178 -0.0496
41180SOL    HW130590  11.385   2.483  10.559  1.1147 -1.7930 -1.5121
41180SOL    HW230591  11.382   2.397  10.684  2.0695 -1.3658 -1.1895
41181SOL     OW30592   4.810   8.957   6.440 -0.1634 -0.0234  0.0621
41181SOL    HW130593   4.832   9.050   6.441 -0.1238  0.0075 -1.3580
41181SOL    HW230594   4.714   8.956   6.442 -0.1797  0.0779 -0.4338
41182SOL     OW30595   8.427   8.914  11.632 -0.2657 -0.0041  0.1206
41182SOL    HW130596   8.447   8.983  11.568  0.1148  0.1374  0.3895
41182SOL    HW230597   8.336   8.929  11.656 -0.3059  0.1564 -0.1258
41183SOL     OW30598   3.446   8.042   5.052  0.3142  0.3566 -0.1346
41183SOL    HW130599   3.476   7.961   5.011 -0.0971 -1.2374  2.4589
41183SOL    HW230600   3.474   8.034   5.144 -1.4321  2.2578  0.6454
41184SOL     OW30601   9.355   6.682  12.467  0.1346 -0.3624 -0.5301
41184SOL    HW130602   9.438   6.729  12.458  0.9684 -1.5638  0.5251
41184SOL    HW230603   9.352   6.655  12.559 -1.4688 -0.2965 -0.5268
41185SOL     OW30604   9.961  10.367   6.623 -0.2656 -0.3183 -0.1483
41185SOL    HW130605   9.890  10.366   6.559 -0.2799 -0.6757 -0.1292
41185SOL    HW230606   9.935  10.435   6.686 -0.2973 -0.0337 -0.4649
41186SOL     OW30607   9.425   9.090   8.175  0.5919 -0.1603 -1.0933
41186SOL    HW130608   9.351   9.127   8.127  0.7671  0.0721 -1.1867
41186SOL    HW230609   9.501   9.109   8.121  0.9468  1.1244 -0.1915
41187SOL     OW30610   3.669  10.779   1.128 -0.1745  0.1520 -0.1333
41187SOL    HW130611   3.632  10.705   1.175 -0.0074  0.3493  0.3137
41187SOL    HW230612   3.680  10.748   1.038 -0.9632 -0.0700 -0.1590
41188SOL     OW30613   6.915   5.255   3.169  0.3805 -0.5970 -0.4060
41188SOL    HW130614   6.883   5.345   3.167 -1.9357 -1.3309  0.2464
41188SOL    HW230615   6.885   5.221   3.253  2.9801 -1.4181  0.2640
41189SOL     OW30616   6.654   5.815  11.315 -0.2539 -0.2809 -0.1107
41189SOL    HW130617   6.666   5.771  11.399  1.3772 -1.8411 -1.0734
41189SOL    HW230618   6.647   5.908  11.336  1.2078 -0.5299  1.6876
41190SOL     OW30619   8.883   1.359   2.956  0.6613 -0.7265  0.1797
41190SOL    HW130620   8.972   1.378   2.923  0.8271  0.2456  1.1183
41190SOL    HW230621   8.855   1.442   2.995 -0.2122 -1.3549  0.9071
41191SOL     OW30622  11.836   6.279  11.592 -0.7486  0.1781 -0.1050
41191SOL    HW130623  11.864   6.364  11.627 -1.5852 -0.3169  1.9125
41191SOL    HW230624  11.741   6.278  11.604 -0.6691 -1.3202  0.6473
41192SOL     OW30625  11.938   9.982   7.109  0.0502  0.3367 -0.1223
41192SOL    HW130626  11.902  10.034   7.037 -2.4412  1.2978  1.6786
41192SOL    HW230627  11.862   9.942   7.150  1.6184 -2.0489  0.6502
41193SOL     OW30628   4.603   5.247   3.043 -0.8504  0.4253  0.0008
41193SOL    HW130629   4.570   5.223   2.957  0.7149 -1.4411 -0.1396
41193SOL    HW230630   4.601   5.343   3.044 -1.0972  0.4726 -2.0019
41194SOL     OW30631   7.094   8.050   3.540  0.1930 -0.4888  0.5555
41194SOL    HW130632   7.061   8.076   3.454 -2.0224  0.5327  1.6260
41194SOL    HW230633   7.045   8.104   3.602 -0.6862 -3.4587  2.6553
41195SOL     OW30634   1.614   2.199   1.967  0.1169  0.5409  0.4138
41195SOL    HW130635   1.701   2.176   1.932  0.0116  0.7876 -0.0222
41195SOL    HW230636   1.575   2.115   1.990  1.1690  0.5252  2.3477
41196SOL     OW30637   4.556  10.600   7.857  0.2151  0.7032 -0.1223
41196SOL    HW130638   4.616  10.648   7.914  0.0014  2.1352 -1.0616
41196SOL    HW230639   4.610  10.533   7.816  0.6544  0.5134  0.7331
41197SOL     OW30640   5.486   1.825   2.769  0.1662 -0.3120 -0.0127
41197SOL    HW130641   5.492   1.729   2.771 -0.2001 -0.3805 -1.3397
41197SOL    HW230642   5.549   1.854   2.835 -0.1576 -1.4746  0.8460
41198SOL     OW30643   8.467   3.236   3.041 -0.0670 -0.0224  0.0558
41198SOL    HW130644   8.512   3.319   3.023 -2.3972  0.9479 -1.8338
41198SOL    HW230645   8.493   3.178   2.970 -0.1374 -0.1748  0.1531
41199SOL     OW30646   2.011   7.663   1.838  0.0577 -0.5860  0.1279
41199SOL    HW130647   2.075   7.603   1.878 -0.6167 -0.3350  1.6373
41199SOL    HW230648   2.061   7.710   1.771  0.8448 -2.1096 -0.4072
41200SOL     OW30649  11.891   8.924   3.199  0.2351 -0.1595 -0.1687
41200SOL    HW130650  11.832   8.893   3.267 -0.9975 -0.4325 -1.3279
41200SOL    HW230651  11.929   8.844   3.162  0.2738 -0.0588 -0.3506
41201SOL     OW30652  10.305  10.101  10.681 -0.4196 -0.3644  0.5146
41201SOL    HW130653  10.273  10.099  10.771 -0.3643 -1.7734  0.5284
41201SOL    HW230654  10.295  10.011  10.650 -0.8165  0.1818 -1.0301
41202SOL     OW30655   0.312  10.786   5.796  0.1078 -0.0202 -0.7292
41202SOL    HW130656   0.382  10.841   5.762  1.9025 -1.9497 -0.4193
41202SOL    HW230657   0.299  10.816   5.886 -0.2101  1.0180 -1.1104
41203SOL     OW30658   3.282  12.124   4.201 -0.1863 -0.1554  0.4372
41203SOL    HW130659   3.287  12.180   4.278  0.1973  0.3642  0.0383
41203SOL    HW230660   3.238  12.177   4.135  0.7656 -0.0673 -0.1519
41204SOL     OW30661   3.527   0.725   2.106  0.3489  0.0482  0.1010
41204SOL    HW130662   3.606   0.757   2.062  0.5688 -0.8372 -0.1702
41204SOL    HW230663   3.501   0.796   2.164  1.5769  0.1888  0.4936
41205SOL     OW30664   9.714   6.392   7.416  0.2462 -0.2664  0.4377
41205SOL    HW130665   9.681   6.420   7.331  1.1718 -1.6027 -0.3982
41205SOL    HW230666   9.664   6.443   7.480 -1.0378  0.1654 -0.8729
41206SOL     OW30667   5.007   8.934   0.762 -0.4866  0.1254  0.4389
41206SOL    HW130668   4.978   8.861   0.707 -0.0041  1.2557 -1.4052
41206SOL    HW230669   4.928   8.984   0.780 -0.5297  0.2030  0.0437
41207SOL     OW30670   8.103  11.260  10.613  0.8793  0.0327  0.5728
41207SOL    HW130671   8.127  11.251  10.705 -0.2373  1.3094  1.0254
41207SOL    HW230672   8.152  11.335  10.582 -0.5100  1.0870  0.8174
41208SOL     OW30673   0.885  10.090   3.344 -0.2617  0.4896 -0.3506
41208SOL    HW130674   0.846  10.123   3.425 -1.7421  0.9840 -1.2238
41208SOL    HW230675   0.811  10.073   3.287  0.8100  1.7387 -2.2037
41209SOL     OW30676  11.144   8.990   6.333  0.1989 -0.3081  0.3164
41209SOL    HW130677  11.169   8.900   6.311  0.9692  0.1520 -0.7601
41209SOL    HW230678  11.222   9.042   6.317 -0.2881  0.5972  0.7547
41210SOL     OW30679   5.760   2.790   6.382 -0.0369 -0.2366  0.6326
41210SOL    HW130680   5.793   2.876   6.358  1.0079 -1.0209 -0.9246
41210SOL    HW230681   5.800   2.772   6.467 -0.5112  0.9121  1.1198
41211SOL     OW30682   1.600   2.739   4.591  0.8353  0.3749 -0.3429
41211SOL    HW130683   1.524   2.715   4.644  0.3533  1.0776 -0.6824
41211SOL    HW230684   1.562   2.764   4.506  1.4260  0.9005 -0.4606
41212SOL     OW30685  11.453   2.256   5.258  0.2027 -0.0950  0.3482
41212SOL    HW130686  11.489   2.332   5.303 -0.5526 -0.1150  1.0127
41212SOL    HW230687  11.523   2.226   5.200  0.3239  1.4594 -0.3681
41213SOL     OW30688   7.840   4.967   7.020  0.2352 -0.4456  0.4175
41213SOL    HW130689   7.787   4.924   7.087  1.0900 -2.2883 -0.0159
41213SOL    HW230690   7.847   4.902   6.950  3.8849 -0.7975  0.8938
41214SOL     OW30691   7.581   6.201   8.773  0.5902 -0.5344  0.6352
41214SOL    HW130692   7.574   6.222   8.680  2.2157 -0.4110  0.5185
41214SOL    HW230693   7.499   6.233   8.810  0.4100  0.4751 -0.5561
41215SOL     OW30694   7.206   9.958  12.438  0.0223 -0.4210  0.8320
41215SOL    HW130695   7.251  10.028  12.390  0.5196 -0.1730  1.6420
41215SOL    HW230696   7.161   9.908  12.370 -1.6789  1.6022  0.3410
41216SOL     OW30697   0.281   6.924   3.873  0.0141 -0.5585  0.1211
41216SOL    HW130698   0.199   6.875   3.879 -0.1091 -0.2727  0.9703
41216SOL    HW230699   0.331   6.896   3.950 -0.2662  1.0107  0.8950
41217SOL     OW30700   1.107   4.047  10.489 -0.4090  0.1494 -0.1337
41217SOL    HW130701   1.109   3.956  10.521 -0.5984  0.3167  0.3723
41217SOL    HW230702   1.086   4.099  10.567 -0.8322  0.5796 -0.5248
41218SOL     OW30703   2.893  11.639  12.095 -0.1266  0.2884  0.7133
41218SOL    HW130704   2.913  11.725  12.132 -2.6930  0.7302  1.2573
41218SOL    HW230705   2.898  11.580  12.170  3.3242 -0.4760  0.0599
41219SOL     OW30706   7.097   0.542   4.956  0.0380  0.1055  0.2513
41219SOL    HW130707   7.159   0.588   5.012 -0.2776  0.5204  0.2620
41219SOL    HW230708   7.066   0.608   4.893 -1.3789  0.2637  1.0603
41220SOL     OW30709   7.822   9.861   7.566  0.1262  0.4990 -0.1874
41220SOL    HW130710   7.800   9.774   7.600  0.5108  0.0805 -0.9692
41220SOL    HW230711   7.757   9.919   7.604 -0.4747 -0.2263 -0.0806
41221SOL     OW30712   8.401   2.719   4.310  0.1412  0.8227  0.0614
41221SOL    HW130713   8.464   2.729   4.240  0.2409  1.1449  0.1928
41221SOL    HW230714   8.443   2.661   4.373  0.1551  0.7398 -0.0241
41222SOL     OW30715   2.153  10.484   1.062  0.3105  0.3271  0.2217
41222SOL    HW130716   2.166  10.541   1.138  0.4132  0.5911  0.0074
41222SOL    HW230717   2.060  10.463   1.062  0.5545 -0.9074  1.2997
41223SOL     OW30718   2.603   8.723   3.068 -0.1115  0.1875  0.0591
41223SOL    HW130719   2.518   8.720   3.113 -0.8596  0.1484 -1.3278
41223SOL    HW230720   2.582   8.715   2.975  1.4263  0.0727 -0.3055
41224SOL     OW30721   7.617   9.694  10.635 -0.0561 -0.3728  0.0985
41224SOL    HW130722   7.644   9.663  10.721 -0.4271 -0.2716  0.2519
41224SOL    HW230723   7.523   9.677  10.631 -0.4714  1.6171  0.5773
41225SOL     OW30724  11.119   3.638   7.188 -0.9255 -0.6270  0.5272
41225SOL    HW130725  11.096   3.664   7.099  0.9527  0.3518  0.2619
41225SOL    HW230726  11.202   3.591   7.178 -1.4730 -1.8735  1.6168
41226SOL     OW30727   3.473   4.167   9.317  0.0533  0.0125  0.0054
41226SOL    HW130728   3.564   4.138   9.314  0.0742  0.0952 -0.1438
41226SOL    HW230729   3.474   4.241   9.378  0.3669  1.0247 -1.1920
41227SOL     OW30730   5.722   6.259   8.091 -0.3124  0.2406  0.0383
41227SOL    HW130731   5.781   6.255   8.015  0.7908 -0.7602  0.9163
41227SOL    HW230732   5.643   6.213   8.062  0.7303 -1.6208 -0.0074
41228SOL     OW30733   6.929   4.486   2.626 -0.2096  0.4919 -0.6626
41228SOL    HW130734   6.860   4.544   2.659 -0.3051 -0.6508  1.2813
41228SOL    HW230735   6.882   4.417   2.579 -0.2868  0.5805 -0.7141
41229SOL     OW30736  10.350   1.937   2.766 -0.3341 -0.3873 -0.2793
41229SOL    HW130737  10.366   1.861   2.711 -0.6092 -0.3980 -0.3471
41229SOL    HW230738  10.436   1.975   2.781 -0.4490  1.8814 -3.9136
41230SOL     OW30739   2.524   7.782   2.315  0.2096 -0.1210  0.0832
41230SOL    HW130740   2.489   7.801   2.402  1.2504  2.5287  0.0266
41230SOL    HW230741   2.614   7.756   2.331  0.3799  0.2998 -0.1700
41231SOL     OW30742   0.706   4.616   5.183  0.0153  0.3243 -0.0509
41231SOL    HW130743   0.669   4.646   5.100 -0.2209  1.0415  0.3108
41231SOL    HW230744   0.798   4.643   5.179  0.5452 -1.4203 -0.9312
41232SOL     OW30745   1.699  10.312   6.503 -0.1335  0.1678 -0.0190
41232SOL    HW130746   1.745  10.244   6.552 -0.3598 -0.5655 -0.8170
41232SOL    HW230747   1.606  10.297   6.522 -0.2148 -0.0455 -0.5721
41233SOL     OW30748   8.133   1.971   6.505  0.1132 -0.1487  0.1801
41233SOL    HW130749   8.120   1.935   6.417 -0.8015 -0.3179  0.3791
41233SOL    HW230750   8.171   1.899   6.555  0.6883 -0.0355 -0.0848
41234SOL     OW30751  12.090  11.359   5.913  0.0981 -0.2148  0.5163
41234SOL    HW130752  12.175  11.357   5.871 -0.2266 -0.6845 -0.1344
41234SOL    HW230753  12.087  11.279   5.966  0.5333  0.4079  1.5181
41235SOL     OW30754   7.987   8.639  12.417  0.0087 -0.1789 -0.1635
41235SOL    HW130755   8.027   8.627  12.331 -0.6603  1.9873 -0.8542
41235SOL    HW230756   7.894   8.627  12.402 -0.0257 -0.7346  0.4715
41236SOL     OW30757   6.373   3.849   8.538  0.6758 -0.0270  0.2214
41236SOL    HW130758   6.372   3.936   8.497  2.5316  0.0781  0.2899
41236SOL    HW230759   6.291   3.844   8.586  0.5146  1.7038  0.2116
41237SOL     OW30760  10.986   7.371  11.588 -0.2319 -0.2221 -0.4540
41237SOL    HW130761  11.008   7.279  11.599 -0.4205 -0.5261 -2.2928
41237SOL    HW230762  11.070   7.417  11.599  0.3149 -0.8519 -1.8502
41238SOL     OW30763   3.314   7.801   4.171  0.0540  0.5729  0.2552
41238SOL    HW130764   3.342   7.714   4.198 -1.1755  0.2685  0.6441
41238SOL    HW230765   3.246   7.824   4.235 -0.7333  1.1584 -0.7702
41239SOL     OW30766   8.414   4.653   0.858 -0.2568  0.6289 -0.5525
41239SOL    HW130767   8.489   4.711   0.845  2.0126 -1.7201  1.0427
41239SOL    HW230768   8.392   4.622   0.770 -1.5372  3.7027 -1.4562
41240SOL     OW30769  11.742   7.680   7.278  0.2674 -0.5148  0.1535
41240SOL    HW130770  11.651   7.650   7.276  0.0250  0.0328  1.5049
41240SOL    HW230771  11.747   7.734   7.357  1.6947 -0.2900 -0.0700
41241SOL     OW30772  10.617   4.891   5.912  0.3715  0.3601  0.2089
41241SOL    HW130773  10.572   4.831   5.852 -0.8029  0.8561  0.5566
41241SOL    HW230774  10.585   4.866   5.999  1.5350  0.0953  0.5777
41242SOL     OW30775   9.111   4.584   0.106  0.5921 -0.6998  0.1159
41242SOL    HW130776   9.025   4.560   0.071  0.6333  0.4995 -0.8450
41242SOL    HW230777   9.173   4.564   0.036  0.6637  1.8201 -0.6067
41243SOL     OW30778  10.025   9.196  12.250  0.7760 -0.0646  0.0035
41243SOL    HW130779   9.990   9.139  12.319  0.6467 -0.5777 -0.4765
41243SOL    HW230780  10.016   9.144  12.170  1.0480  0.4748 -0.3796
41244SOL     OW30781   7.265  10.487   1.367 -0.2505  0.3284 -0.0937
41244SOL    HW130782   7.318  10.421   1.324 -1.6806 -0.7482 -0.2618
41244SOL    HW230783   7.305  10.497   1.453 -0.1179 -0.8891  0.0019
41245SOL     OW30784   0.210  11.370  12.517  0.9505  0.3577 -0.0638
41245SOL    HW130785   0.183  11.279  12.504 -1.0085  0.8642  0.2049
41245SOL    HW230786   0.275  11.366  12.587  0.7537 -0.8180  0.0660
41246SOL     OW30787  10.269   9.123   3.293  0.4259 -0.3625 -0.9113
41246SOL    HW130788  10.328   9.090   3.225  0.7311 -2.0228  0.0738
41246SOL    HW230789  10.190   9.069   3.284  0.3399 -0.3646 -0.1922
41247SOL     OW30790   6.187   6.471   3.310 -0.6273 -0.5410 -0.5127
41247SOL    HW130791   6.188   6.380   3.341  0.9429  0.2389  2.0032
41247SOL    HW230792   6.265   6.479   3.256  1.0957  0.0409  1.9120
41248SOL     OW30793  11.086   5.947   7.668 -0.0465  0.5721  0.2390
41248SOL    HW130794  11.006   5.903   7.697 -0.7863  2.1686  0.7976
41248SOL    HW230795  11.125   5.887   7.605 -1.3465 -0.5514  0.4457
41249SOL     OW30796   1.534   3.048   5.345 -0.1549  0.2831 -0.5088
41249SOL    HW130797   1.581   3.121   5.387 -0.0236  1.2845 -2.2706
41249SOL    HW230798   1.457   3.089   5.305 -0.3475 -0.6269 -1.1020
41250SOL     OW30799   5.973   2.289   6.248  0.0917  0.4497  0.0269
41250SOL    HW130800   5.980   2.289   6.344 -0.0312 -1.3025  0.0816
41250SOL    HW230801   5.979   2.196   6.224  1.3709  0.9359 -1.7712
41251SOL     OW30802   6.643   8.500  11.245  0.3089  0.3435 -0.1359
41251SOL    HW130803   6.553   8.535  11.246 -1.0045 -2.7315  0.6975
41251SOL    HW230804   6.651   8.457  11.160  1.7378  2.0905 -0.9609
41252SOL     OW30805   9.525   5.233   3.899  0.4027  0.0355  0.5623
41252SOL    HW130806   9.515   5.312   3.952  0.4309 -0.2540  0.9989
41252SOL    HW230807   9.493   5.162   3.955 -1.7970  0.0051 -0.6221
41253SOL     OW30808   4.455   2.739  11.268 -0.3873 -0.5151 -0.1201
41253SOL    HW130809   4.400   2.665  11.241 -2.4304  0.9914 -0.2898
41253SOL    HW230810   4.499   2.767  11.188 -1.5909  0.0200 -0.6141
41254SOL     OW30811   8.584   1.676   4.328  1.1068  0.1854 -0.3652
41254SOL    HW130812   8.648   1.747   4.318  0.4079  1.3654  2.5064
41254SOL    HW230813   8.517   1.696   4.263  0.4377  2.8235  0.9964
41255SOL     OW30814   1.070   1.748   0.322 -0.1029 -0.7674  0.2687
41255SOL    HW130815   1.045   1.656   0.334  0.8929 -0.9745  0.9172
41255SOL    HW230816   0.998   1.787   0.273 -0.9899 -1.6696  0.8201
41256SOL     OW30817   1.293   1.747  10.521  0.5202 -0.2199 -0.2821
41256SOL    HW130818   1.297   1.822  10.580 -0.4172 -1.4288  1.3731
41256SOL    HW230819   1.373   1.697  10.540 -0.9689 -1.9431  1.9007
41257SOL     OW30820  11.976   5.360   8.452 -0.4851 -0.4625  0.1356
41257SOL    HW130821  11.999   5.267   8.455 -1.1006 -0.5979  2.0938
41257SOL    HW230822  12.060   5.406   8.453 -0.1970 -0.9902  0.9935
41258SOL     OW30823   2.771  11.414  10.130 -0.2302  0.2801  0.1314
41258SOL    HW130824   2.717  11.418  10.051 -2.3036 -2.0533  1.2894
41258SOL    HW230825   2.852  11.370  10.102  0.3868  2.1702 -1.2417
41259SOL     OW30826   1.605   4.800  11.896 -0.0854 -0.1037 -0.0034
41259SOL    HW130827   1.553   4.796  11.815 -0.1000 -1.4656  0.0368
41259SOL    HW230828   1.540   4.807  11.966 -0.0745  1.0446 -0.1032
41260SOL     OW30829   0.789   3.828   2.468 -0.8510  0.3701 -0.6419
41260SOL    HW130830   0.746   3.883   2.534 -0.3000 -0.4805  0.4678
41260SOL    HW230831   0.880   3.860   2.466 -0.8973  0.4776 -1.0852
41261SOL     OW30832   7.582  11.937   0.930  0.0161  0.1755 -0.1322
41261SOL    HW130833   7.520  11.944   1.003  0.9670 -0.3446  0.7519
41261SOL    HW230834   7.588  12.025   0.895  0.0917  0.5935  0.8938
41262SOL     OW30835   9.080   1.395   1.926 -0.2811 -0.2600 -0.2610
41262SOL    HW130836   9.090   1.403   1.831 -2.3920 -0.5090 -0.5635
41262SOL    HW230837   9.163   1.358   1.956  0.3891 -0.2848 -2.0185
41263SOL     OW30838   1.589  12.121   1.346 -0.2819  0.0678 -0.6075
41263SOL    HW130839   1.632  12.097   1.264  1.5600 -1.2835  0.6708
41263SOL    HW230840   1.655  12.173   1.393 -2.3009  3.2978 -1.0608
41264SOL     OW30841   9.678   6.096   1.402  0.8422  0.1142  0.2144
41264SOL    HW130842   9.724   6.037   1.462  0.7193  0.1696  0.3638
41264SOL    HW230843   9.733   6.174   1.398  0.3084  0.5462  1.1047
41265SOL     OW30844   3.154  12.575   1.573  0.0838 -0.5350  0.6633
41265SOL    HW130845   3.123  12.501   1.626  1.2085 -2.1155 -0.7731
41265SOL    HW230846   3.105  12.568   1.491 -0.1801  0.6669  0.6950
41266SOL     OW30847   4.349   8.436   8.070 -0.6242  0.3004 -0.3984
41266SOL    HW130848   4.355   8.519   8.118 -2.1670  0.0249  0.3281
41266SOL    HW230849   4.393   8.453   7.987  1.0017  1.1795  0.5804
41267SOL     OW30850  11.778   9.504   9.163 -0.1019 -0.6698  0.0272
41267SOL    HW130851  11.872   9.520   9.175  0.1367 -1.7523 -0.3239
41267SOL    HW230852  11.747   9.479   9.250 -0.1623  0.0812  0.2335
41268SOL     OW30853   5.130  12.187   5.650  0.1430 -0.0834 -0.6731
41268SOL    HW130854   5.178  12.134   5.587  0.0346  1.5646 -2.2114
41268SOL    HW230855   5.087  12.254   5.597 -0.4168  1.0212  1.1026
41269SOL     OW30856   1.082   5.161   6.576  0.2818 -0.0371 -0.3350
41269SOL    HW130857   1.156   5.202   6.619  0.4105  1.2014 -1.6847
41269SOL    HW230858   1.069   5.211   6.496 -1.1777 -1.0569 -0.7857
41270SOL     OW30859   1.673  11.426   8.935  0.2322  0.1869  0.3083
41270SOL    HW130860   1.745  11.453   8.878  0.4208 -0.5375  0.1971
41270SOL    HW230861   1.715  11.407   9.019  0.3922 -1.5354 -0.1240
41271SOL     OW30862  11.208  10.633   5.231  0.1712  0.1790  0.0893
41271SOL    HW130863  11.234  10.671   5.315 -1.3817  0.5659  0.4173
41271SOL    HW230864  11.118  10.604   5.245 -0.7463  1.8259 -1.9276
41272SOL     OW30865  10.488   5.799  12.224  0.2814  0.5415  0.2396
41272SOL    HW130866  10.462   5.776  12.313 -1.0674  0.0632 -0.2511
41272SOL    HW230867  10.572   5.845  12.234  0.4031  0.0460  1.6960
41273SOL     OW30868   5.118   5.151   1.126 -0.3988  0.0033  0.8953
41273SOL    HW130869   5.077   5.090   1.187 -0.3256  0.3696  1.3173
41273SOL    HW230870   5.191   5.188   1.176  1.6638 -2.0089 -0.4196
41274SOL     OW30871   3.161   1.587  12.409  0.2904  0.1001 -0.0191
41274SOL    HW130872   3.155   1.651  12.480  0.2828 -0.1866  0.2418
41274SOL    HW230873   3.204   1.511  12.448 -0.9770 -0.6054  0.0877
41275SOL     OW30874   7.358  12.110   2.103 -0.2741 -0.1670 -0.5285
41275SOL    HW130875   7.361  12.014   2.096 -1.1633 -0.1964 -0.5533
41275SOL    HW230876   7.358  12.140   2.012 -4.4756 -0.3207 -0.7710
41276SOL     OW30877   1.425   3.869   4.170 -0.5761 -0.0217 -0.4357
41276SOL    HW130878   1.521   3.874   4.176 -0.5801 -0.6598  0.3537
41276SOL    HW230879   1.407   3.777   4.154 -1.1037 -0.1611  0.8189
41277SOL     OW30880  12.301  11.716  11.401  0.2352  0.2319 -0.0607
41277SOL    HW130881  12.307  11.645  11.337 -1.1788  0.6239 -0.6690
41277SOL    HW230882  12.231  11.773  11.368 -0.7704  0.2871  1.9835
41278SOL     OW30883  10.940   2.840   4.532  0.1411  0.1135 -0.0541
41278SOL    HW130884  11.022   2.807   4.570  0.9758  1.9720 -0.1380
41278SOL    HW230885  10.923   2.781   4.458  0.3825 -1.4194  1.0487
41279SOL     OW30886   3.272  10.463   0.730  0.1052  0.2581 -0.0918
41279SOL    HW130887   3.200  10.487   0.789  1.6298  1.0974  1.5116
41279SOL    HW230888   3.299  10.376   0.758  0.3491  0.3514 -0.0340
41280SOL     OW30889   4.825   2.283   4.217  0.1155 -0.0787  0.5626
41280SOL    HW130890   4.755   2.343   4.243 -0.2252 -0.9073  1.6379
41280SOL    HW230891   4.782   2.198   4.208  0.7608 -0.3530 -0.0325
41281SOL     OW30892  12.272  10.684   3.330 -0.3625  0.1872 -0.2849
41281SOL    HW130893  12.365  10.678   3.351 -0.1915  1.7768 -0.4707
41281SOL    HW230894  12.270  10.690   3.235 -0.4610  2.3728 -0.1935
41282SOL     OW30895   5.220   2.415   6.382  0.3357  0.1894 -0.0497
41282SOL    HW130896   5.199   2.504   6.354 -0.3723  0.0986  0.1511
41282SOL    HW230897   5.274   2.427   6.460  0.1254  0.4447  0.0593
41283SOL     OW30898   6.086   3.073  10.844  0.3610  0.1981 -0.2251
41283SOL    HW130899   6.159   3.070  10.781  1.8203  2.4741  1.1854
41283SOL    HW230900   6.025   3.136  10.805  0.3419  0.1500 -0.2722
41284SOL     OW30901   2.098  11.874   8.592  0.0023  0.3910  0.3031
41284SOL    HW130902   2.085  11.883   8.686  0.3432  0.6684  0.3275
41284SOL    HW230903   2.050  11.795   8.568  0.2852  0.0689  0.7878
41285SOL     OW30904   0.110   6.262   1.386  0.3486 -0.2973  0.2632
41285SOL    HW130905   0.062   6.200   1.440 -0.4040  0.0360 -0.0105
41285SOL    HW230906   0.158   6.208   1.323  0.1516 -0.6170  0.3881
41286SOL     OW30907   5.156   6.370   9.660 -0.2371 -0.5034  0.4067
41286SOL    HW130908   5.113   6.298   9.707 -0.7940 -1.1358 -1.0152
41286SOL    HW230909   5.115   6.370   9.574  1.6629 -0.2485 -0.5581
41287SOL     OW30910   0.932   2.238   1.537 -0.5551  0.0708 -0.0217
41287SOL    HW130911   0.935   2.301   1.465 -1.0568 -0.4351 -0.4956
41287SOL    HW230912   0.944   2.153   1.494  0.6638 -0.1251  0.6680
41288SOL     OW30913   8.034   7.723   8.034 -0.0641  0.0263 -0.2103
41288SOL    HW130914   8.122   7.760   8.028 -0.8291  1.9786 -0.2595
41288SOL    HW230915   7.993   7.747   7.951 -0.7420 -0.6174 -0.0675
41289SOL     OW30916   4.073   8.173   2.149  0.2099 -0.6272  0.4318
41289SOL    HW130917   3.997   8.125   2.117  0.1971 -2.4671  2.9374
41289SOL    HW230918   4.036   8.253   2.188  0.0004  0.3556 -1.6594
41290SOL     OW30919   8.815  11.436   0.937  0.4080 -0.3580 -0.4370
41290SOL    HW130920   8.722  11.425   0.954  0.4926 -2.6226 -1.1136
41290SOL    HW230921   8.823  11.432   0.842  0.9640  2.4559 -0.5741
41291SOL     OW30922   4.214   1.741   2.481  0.3389  0.5543 -0.1535
41291SOL    HW130923   4.218   1.764   2.574 -0.0348  0.6020 -0.1461
41291SOL    HW230924   4.152   1.804   2.443 -3.0119 -2.0606  0.4208
41292SOL     OW30925   5.746   0.568  10.736 -0.3539 -0.7479  0.6930
41292SOL    HW130926   5.824   0.613  10.767 -0.5010 -0.5302  0.7423
41292SOL    HW230927   5.724   0.611  10.654  0.8465 -2.2101 -0.4722
41293SOL     OW30928   4.634   8.306   9.455  0.2261  0.0041 -0.5239
41293SOL    HW130929   4.543   8.321   9.427 -0.3946  0.3860  1.5256
41293SOL    HW230930   4.661   8.390   9.492  1.0776 -0.4060 -0.2024
41294SOL     OW30931  12.269   7.995   4.832 -0.3616  0.6319  0.0376
41294SOL    HW130932  12.200   7.951   4.782 -0.9822  0.0961  1.3308
41294SOL    HW230933  12.298   7.930   4.896  1.2256  0.9122 -0.3459
41295SOL     OW30934   8.513  12.295   9.048 -0.2715 -0.1990  0.4354
41295SOL    HW130935   8.481  12.312   8.959  0.6694  1.7940  0.4292
41295SOL    HW230936   8.450  12.233   9.084 -0.7956 -0.8807 -1.5416
41296SOL     OW30937   2.770   5.672   8.202  0.1114 -0.8105 -0.0873
41296SOL    HW130938   2.724   5.727   8.139  0.8605 -0.3548 -0.2472
41296SOL    HW230939   2.825   5.733   8.252  2.3883 -1.5621 -1.4871
41297SOL     OW30940  11.349   2.941  10.853  0.5727 -0.0849 -0.7281
41297SOL    HW130941  11.402   2.861  10.863  1.5030  0.4210 -1.4419
41297SOL    HW230942  11.286   2.937  10.925  2.0391 -0.3572  0.5935
41298SOL     OW30943   0.162   1.049  11.632 -0.5411  0.5097 -0.1791
41298SOL    HW130944   0.107   1.076  11.705 -1.0033 -0.0259 -0.3175
41298SOL    HW230945   0.115   0.974  11.594  1.6166 -1.7965  1.3812
41299SOL     OW30946   9.032   9.252   8.047 -0.3303  0.1306  0.2301
41299SOL    HW130947   9.091   9.325   8.030  1.1873 -0.9568  0.6466
41299SOL    HW230948   8.962   9.290   8.101 -0.8258  1.7508 -1.4415
41300SOL     OW30949  11.364   4.667   0.484  0.4060  0.1991  0.2936
41300SOL    HW130950  11.371   4.646   0.577  2.1745 -0.4533  0.0505
41300SOL    HW230951  11.410   4.751   0.475 -0.9465  0.9696  0.1905
41301SOL     OW30952   8.934  10.434   3.325  0.5633 -0.2066  0.3763
41301SOL    HW130953   8.994  10.480   3.267  1.9460 -1.7675  0.5118
41301SOL    HW230954   8.964  10.343   3.325 -1.7537 -1.0407  0.5308
41302SOL     OW30955   4.127   2.591   7.525 -0.5510 -0.0271 -0.0013
41302SOL    HW130956   4.113   2.498   7.542  0.9133 -0.4294 -0.7552
41302SOL    HW230957   4.223   2.600   7.527 -0.6751  1.4299 -0.1269
41303SOL     OW30958   5.123   2.797   4.540  0.1224 -0.2715 -0.0266
41303SOL    HW130959   5.122   2.802   4.636  1.4062  1.5362 -0.0598
41303SOL    HW230960   5.186   2.863   4.513 -0.6574 -0.3200 -2.1686
41304SOL     OW30961   9.073   9.278   7.001  0.2646  0.4223 -0.6845
41304SOL    HW130962   9.058   9.202   7.057 -0.0396  1.2154  0.3510
41304SOL    HW230963   9.131   9.247   6.932 -0.6402 -0.9870 -0.8298
41305SOL     OW30964   5.554   3.228   3.760  0.0707  0.0826  0.4786
41305SOL    HW130965   5.638   3.267   3.735 -0.2195 -0.3226 -1.3053
41305SOL    HW230966   5.565   3.203   3.851  2.8103 -2.1845 -0.3090
41306SOL     OW30967   8.108   1.851   1.568 -0.3157  0.6704 -0.3084
41306SOL    HW130968   8.174   1.834   1.635 -0.6973  2.1775  0.4976
41306SOL    HW230969   8.144   1.924   1.517 -1.4502  1.7112  0.3221
41307SOL     OW30970  11.195  11.594   5.410 -0.2822  0.3251 -0.1686
41307SOL    HW130971  11.178  11.667   5.470  0.5469  1.7322 -1.5537
41307SOL    HW230972  11.136  11.525   5.439 -0.1169  1.0494  2.0610
41308SOL     OW30973   6.121   1.884   4.252  0.0352  0.0312 -0.0085
41308SOL    HW130974   6.112   1.839   4.168 -0.7654  0.8393 -0.3833
41308SOL    HW230975   6.099   1.817   4.317 -0.3137 -0.3519 -0.5034
41309SOL     OW30976   7.464   6.346   0.177  0.0383  0.0567 -0.3095
41309SOL    HW130977   7.442   6.342   0.270  0.0818 -1.6053 -0.3507
41309SOL    HW230978   7.384   6.381   0.136 -0.9937 -1.7774  0.0542
41310SOL     OW30979  10.191   2.330   5.685  0.2364  0.2729  0.6090
41310SOL    HW130980  10.210   2.424   5.685 -0.9630  0.5788  2.1718
41310SOL    HW230981  10.184   2.306   5.593 -0.2620  1.9155  0.1864
41311SOL     OW30982   4.177   3.226   1.634 -0.1431 -0.2423  0.2392
41311SOL    HW130983   4.260   3.182   1.614 -0.7267 -1.5659  0.6062
41311SOL    HW230984   4.174   3.299   1.572  0.9287 -0.6419 -0.3235
41312SOL     OW30985  10.333   8.929   8.303 -0.0323  0.7808 -0.7110
41312SOL    HW130986  10.338   9.004   8.362  1.3451  0.2136 -0.0562
41312SOL    HW230987  10.241   8.926   8.275 -0.5700  1.4593  0.8715
41313SOL     OW30988  11.896   8.876   2.558  0.3653 -0.3159  0.5122
41313SOL    HW130989  11.828   8.812   2.536  0.6792 -0.4592 -0.0566
41313SOL    HW230990  11.862   8.922   2.635 -0.5851 -0.0722 -0.0402
41314SOL     OW30991  12.544   1.663   9.509  0.0057 -0.3618 -0.1466
41314SOL    HW130992  12.488   1.587   9.522  0.7442 -1.1046 -1.2079
41314SOL    HW230993  12.539   1.682   9.415 -0.3406  1.0518  0.1256
41315SOL     OW30994   8.004   7.604   9.414 -0.1251  0.8719 -0.3116
41315SOL    HW130995   7.982   7.513   9.396 -0.0691  1.0538 -1.3423
41315SOL    HW230996   7.955   7.625   9.494  0.5727 -0.3221  0.4645
41316SOL     OW30997   3.204  11.873   1.488  0.2476  0.1602  0.0887
41316SOL    HW130998   3.241  11.845   1.404  1.4378  2.1472 -0.1163
41316SOL    HW230999   3.196  11.968   1.480 -4.5332  0.0523  0.3290
41317SOL     OW31000  11.121   5.708  10.848  0.0421  0.3205  0.0857
41317SOL    HW131001  11.105   5.750  10.763  0.6135 -0.7418 -0.5729
41317SOL    HW231002  11.060   5.635  10.851  0.3106  0.1047  0.3948
41318SOL     OW31003   4.145   6.320   5.424 -0.4252  0.1688 -0.1154
41318SOL    HW131004   4.159   6.225   5.427 -0.4298  0.1784  0.3193
41318SOL    HW231005   4.051   6.330   5.411 -0.3865  0.1127 -0.4420
41319SOL     OW31006  10.901   3.937   7.605 -0.3173 -0.0999 -0.1742
41319SOL    HW131007  10.809   3.931   7.630 -0.4587  0.5100 -0.5289
41319SOL    HW231008  10.920   3.854   7.563 -0.1738 -1.0076  1.5876
41320SOL     OW31009  12.170   2.446   0.885 -0.3091 -0.2418  0.2500
41320SOL    HW131010  12.176   2.503   0.962 -2.0660 -1.0700  1.0681
41320SOL    HW231011  12.150   2.505   0.813 -0.1326  0.3991  0.7164
41321SOL     OW31012   6.496   2.287   7.351  0.3414 -0.2687  0.8036
41321SOL    HW131013   6.409   2.259   7.322  0.8554 -0.8394 -0.2540
41321SOL    HW231014   6.495   2.382   7.342 -0.4619 -0.1823  1.6616
41322SOL     OW31015   8.509   0.980  12.475 -0.5508 -0.9839 -0.5175
41322SOL    HW131016   8.597   0.946  12.485 -0.3424 -0.7472 -1.4516
41322SOL    HW231017   8.470   0.927  12.406 -0.2323  0.5935 -1.9635
41323SOL     OW31018   4.215  11.405   8.876 -0.1941  0.5265 -0.2026
41323SOL    HW131019   4.252  11.321   8.848 -0.8781  1.1437 -3.2615
41323SOL    HW231020   4.170  11.385   8.958  2.3548 -1.3536  0.8565
41324SOL     OW31021  12.246   9.982   7.020  0.3540  0.4162 -0.4199
41324SOL    HW131022  12.322   9.936   6.986  0.9596  1.6500 -0.7846
41324SOL    HW231023  12.251  10.069   6.982 -0.4798  0.9644  0.6580
41325SOL     OW31024   4.787   9.185   5.631 -0.2673 -0.2460  0.0263
41325SOL    HW131025   4.796   9.225   5.718  0.3909  0.0626 -0.1747
41325SOL    HW231026   4.739   9.104   5.647 -0.7698  0.1521  0.5770
41326SOL     OW31027   6.104   4.536   4.962 -0.2626 -0.0788 -0.2261
41326SOL    HW131028   6.050   4.485   5.022  0.2580  1.0545  1.2850
41326SOL    HW231029   6.194   4.512   4.985 -0.0626  0.1313 -0.7846
41327SOL     OW31030   2.101  11.494   0.522 -0.2539  0.4480  0.0367
41327SOL    HW131031   2.185  11.485   0.568  0.9590  2.6936 -1.5075
41327SOL    HW231032   2.107  11.433   0.448  1.1653  2.2477 -1.4499
41328SOL     OW31033   8.634   3.148   0.296  0.6220 -0.3480 -0.2607
41328SOL    HW131034   8.675   3.213   0.353  0.1132 -0.2365 -0.0131
41328SOL    HW231035   8.700   3.128   0.230  0.4585  1.0914 -0.8853
41329SOL     OW31036   7.631   7.976   1.796 -0.5024 -0.0148  0.3146
41329SOL    HW131037   7.675   8.000   1.878 -2.8965  0.5646  1.5332
41329SOL    HW231038   7.597   8.059   1.762 -0.0555 -0.3435 -0.9728
41330SOL     OW31039  10.722   2.462  10.321  0.3356 -0.4952  0.4102
41330SOL    HW131040  10.769   2.540  10.292  0.4798 -1.1523 -1.2770
41330SOL    HW231041  10.642   2.461  10.268 -1.0446 -0.0391  2.3880
41331SOL     OW31042   8.832  10.274   1.565 -0.0169 -0.1899  0.2487
41331SOL    HW131043   8.777  10.300   1.491  0.2573 -3.1200 -1.1316
41331SOL    HW231044   8.903  10.338   1.566 -0.5584  0.4812 -1.4210
41332SOL     OW31045  10.821  11.726   2.873  0.4538  0.2173 -0.0877
41332SOL    HW131046  10.746  11.772   2.836 -0.1006 -1.0854 -0.6761
41332SOL    HW231047  10.849  11.666   2.804  0.9552 -0.5195  0.7337
41333SOL     OW31048  11.497   1.695   1.509  0.0241 -0.5386 -0.1767
41333SOL    HW131049  11.482   1.670   1.417 -0.2519 -0.1699 -0.2372
41333SOL    HW231050  11.422   1.659   1.556  0.5975 -1.4770  0.0542
41334SOL     OW31051   6.277   5.544   2.864  0.3559  0.2882  0.7313
41334SOL    HW131052   6.188   5.580   2.856 -1.2129 -3.1094  1.0533
41334SOL    HW231053   6.313   5.549   2.775 -2.6170 -3.6477 -0.9810
41335SOL     OW31054  10.081   8.267   7.453  0.3787 -0.4388 -0.3907
41335SOL    HW131055  10.074   8.258   7.548  2.9871 -1.6180 -0.2141
41335SOL    HW231056  10.037   8.189   7.418  0.4391 -0.6155 -0.0813
41336SOL     OW31057  11.021   8.542   0.497  0.0365 -0.0231 -0.0318
41336SOL    HW131058  10.928   8.556   0.479 -0.0950 -0.6915  0.0942
41336SOL    HW231059  11.033   8.447   0.487  0.1394 -0.3431  2.5091
41337SOL     OW31060  11.750   1.673   5.570 -0.5850 -0.4942 -0.4533
41337SOL    HW131061  11.726   1.762   5.594  0.6079  0.0036 -1.0603
41337SOL    HW231062  11.766   1.630   5.654  1.5152  0.6515 -0.2156
41338SOL     OW31063  11.189   0.756   3.001 -0.6286 -0.0309  0.6733
41338SOL    HW131064  11.248   0.831   3.008 -3.0255  2.1402 -0.3627
41338SOL    HW231065  11.218   0.709   2.923 -1.1013  1.8688 -0.7177
41339SOL     OW31066   3.126   3.309   9.115 -0.0883 -0.0574  0.3614
41339SOL    HW131067   3.169   3.376   9.062  0.5756 -0.5009  0.3249
41339SOL    HW231068   3.198   3.263   9.159 -0.5278 -0.7585  0.3739
41340SOL     OW31069   0.250  12.569   1.371 -0.7245 -0.0230  0.2060
41340SOL    HW131070   0.315  12.520   1.422 -0.0479  1.0821  0.4350
41340SOL    HW231071   0.280  12.562   1.280 -0.8935 -0.4098  0.1755
41341SOL     OW31072   2.909   8.238   9.588  0.0118 -0.6758  0.2677
41341SOL    HW131073   2.943   8.327   9.595  1.2069 -0.7710 -2.7100
41341SOL    HW231074   2.985   8.185   9.564 -0.8795 -2.3175  0.9217
41342SOL     OW31075   3.286   7.740   8.087  0.1233 -0.0560 -0.3062
41342SOL    HW131076   3.192   7.757   8.086  0.1986  0.4246  0.4489
41342SOL    HW231077   3.302   7.690   8.007 -0.5033  1.2996 -1.3108
41343SOL     OW31078   7.532   0.191   0.669 -0.1032  0.3073  0.5107
41343SOL    HW131079   7.539   0.285   0.686 -1.1776  1.0114 -2.2385
41343SOL    HW231080   7.442   0.169   0.689 -1.0679  0.9099 -2.5520
41344SOL     OW31081   3.162   9.449   1.110 -0.3737  0.1963 -0.0740
41344SOL    HW131082   3.094   9.390   1.142  1.1705 -1.4328  0.3674
41344SOL    HW231083   3.115   9.513   1.056 -2.2055 -0.9888  0.0263
41345SOL     OW31084   3.812   1.175  12.072 -0.0846 -0.1567 -0.1195
41345SOL    HW131085   3.803   1.249  12.132 -1.7150 -0.4482  0.0264
41345SOL    HW231086   3.906   1.172  12.053  0.3750  0.3809  1.8313
41346SOL     OW31087  10.129   4.050   8.563 -0.0964  0.0603 -0.5990
41346SOL    HW131088  10.176   4.039   8.646  0.1332 -2.0284 -0.9681
41346SOL    HW231089  10.192   4.096   8.506 -0.9791  3.4666  0.9145
41347SOL     OW31090   8.429   3.002  12.326 -0.2107  0.3015  0.0975
41347SOL    HW131091   8.413   3.074  12.264  0.6160  0.9177  0.5722
41347SOL    HW231092   8.463   3.046  12.404  0.6696 -0.6537  0.2586
41348SOL     OW31093   0.458  12.017   8.094  0.2700  0.2079  0.0422
41348SOL    HW131094   0.467  11.988   8.003  2.2901  0.7588  0.0203
41348SOL    HW231095   0.469  12.112   8.090  1.1913  0.1545  0.9347
41349SOL     OW31096  11.051  11.979   4.493 -0.1867  0.1266  0.5043
41349SOL    HW131097  11.145  11.959   4.493 -0.4498 -1.3616 -1.5648
41349SOL    HW231098  11.037  12.030   4.413 -1.1922  0.1076  0.6551
41350SOL     OW31099   4.416   8.314   3.772 -0.0070 -0.0043  0.1525
41350SOL    HW131100   4.413   8.391   3.715  0.3739  1.4121  1.9411
41350SOL    HW231101   4.461   8.345   3.851  0.3004 -2.1243  0.8694
41351SOL     OW31102   5.518   1.859   2.311 -0.3120  0.6008 -0.2201
41351SOL    HW131103   5.508   1.765   2.323 -2.1574  0.8459  0.4341
41351SOL    HW231104   5.437   1.897   2.345  0.7431  2.4983  0.3803
41352SOL     OW31105   2.356  11.382   7.550 -0.3190  0.9147 -0.4045
41352SOL    HW131106   2.300  11.304   7.546 -0.4000  1.0024 -1.1162
41352SOL    HW231107   2.322  11.432   7.624  1.1066 -0.7581  1.4753
41353SOL     OW31108   7.361   0.598   9.594  0.0358  0.0692 -0.4507
41353SOL    HW131109   7.342   0.604   9.687  0.0755  0.9894 -0.4924
41353SOL    HW231110   7.398   0.510   9.583  1.0693  0.3493  0.5954
41354SOL     OW31111   5.193   3.403   2.822 -0.0051 -0.3176  0.0977
41354SOL    HW131112   5.130   3.375   2.889 -0.5180 -2.0068 -1.0423
41354SOL    HW231113   5.274   3.358   2.844  0.4600  0.8031  0.7791
41355SOL     OW31114   6.619   7.722   7.164 -0.3984  0.0504  0.4621
41355SOL    HW131115   6.662   7.804   7.186 -0.7648  0.4848 -0.4013
41355SOL    HW231116   6.537   7.748   7.123 -0.2893 -0.7287 -0.2928
41356SOL     OW31117  12.490   7.366   5.796 -0.1051  0.1967 -0.2054
41356SOL    HW131118  12.581   7.343   5.777  0.5402  1.8835  0.7132
41356SOL    HW231119  12.450   7.282   5.820  1.1194 -0.6271 -0.9199
41357SOL     OW31120   4.019   1.812   6.814 -0.6954 -0.0557 -0.1810
41357SOL    HW131121   4.081   1.817   6.887 -0.3607  0.7442 -0.5142
41357SOL    HW231122   4.000   1.719   6.806 -1.5701 -0.0944  1.6322
41358SOL     OW31123   5.461   1.374  11.932 -0.3392 -0.5978 -0.4821
41358SOL    HW131124   5.542   1.376  11.982 -0.2037 -0.8112 -0.6879
41358SOL    HW231125   5.487   1.339  11.846 -0.1831  1.6496 -1.4107
41359SOL     OW31126   6.649   2.028  10.110 -0.1006 -0.5621  0.0195
41359SOL    HW131127   6.660   1.939  10.144  1.4373 -1.4874 -2.6215
41359SOL    HW231128   6.567   2.059  10.149 -0.0238 -2.6212  2.0015
41360SOL     OW31129   9.927   5.469   7.424 -0.5059 -0.3595 -0.3823
41360SOL    HW131130   9.923   5.481   7.329  0.4495 -1.9911 -0.6533
41360SOL    HW231131   9.919   5.375   7.438  1.9418 -0.4475  0.9708
41361SOL     OW31132   4.823  12.389  11.336  0.1420  0.2798 -0.1192
41361SOL    HW131133   4.781  12.427  11.259  1.1585 -1.2205 -1.4754
41361SOL    HW231134   4.754  12.385  11.402 -1.0434  0.5789 -1.3188
41362SOL     OW31135  10.777   2.946  10.903  0.1702 -0.5146  0.8223
41362SOL    HW131136  10.841   3.005  10.863 -0.7379  1.0072  1.5090
41362SOL    HW231137  10.705   3.003  10.929 -2.1701 -2.2749 -1.1789
41363SOL     OW31138   4.923   4.951   0.006  1.3201 -0.2463  0.4422
41363SOL    HW131139   4.870   4.964   0.084  1.0821  0.5602  0.1578
41363SOL    HW231140   4.981   4.878   0.028  0.0766 -1.1859  0.7497
41364SOL     OW31141  10.486   4.980   9.894 -0.1243 -0.4524  0.1514
41364SOL    HW131142  10.580   4.975   9.913  0.1034  0.2000 -0.7355
41364SOL    HW231143  10.473   4.919   9.821 -0.8799 -2.4938  1.8973
41365SOL     OW31144   9.369  11.013   4.281  0.6137  0.3980  0.2802
41365SOL    HW131145   9.441  10.978   4.228  0.2095  1.3923 -0.9653
41365SOL    HW231146   9.337  11.089   4.232  1.1138  2.2474  2.5962
41366SOL     OW31147   1.191   0.713   9.612 -0.1395  0.7204 -0.2296
41366SOL    HW131148   1.229   0.625   9.603 -2.3888 -0.4888  1.2326
41366SOL    HW231149   1.208   0.738   9.703  0.7763  1.9832 -0.7218
41367SOL     OW31150   2.383   0.573   4.062 -0.0290  0.6422 -0.0118
41367SOL    HW131151   2.350   0.483   4.066  0.0662  0.6090  0.0534
41367SOL    HW231152   2.413   0.591   4.151 -0.0379  0.7350 -0.0275
41368SOL     OW31153   7.640   6.905   1.289  0.0126 -0.1295 -0.4941
41368SOL    HW131154   7.627   6.854   1.370  0.4738  1.1131  0.3978
41368SOL    HW231155   7.721   6.869   1.253 -0.2751 -0.8015 -0.4980
41369SOL     OW31156  10.469  10.061   0.360 -0.4894 -0.2918 -0.2422
41369SOL    HW131157  10.520  10.138   0.384  0.1591 -0.2255 -1.7133
41369SOL    HW231158  10.445  10.075   0.269 -0.3117 -1.8374 -0.5652
41370SOL     OW31159  11.560   5.745   6.906 -0.3031 -0.2404  0.7747
41370SOL    HW131160  11.583   5.832   6.940 -0.2612 -0.7402  2.0476
41370SOL    HW231161  11.556   5.689   6.983 -1.1878 -1.1965  0.0589
41371SOL     OW31162   2.207   1.265   9.527  0.1500 -0.6773  0.4806
41371SOL    HW131163   2.274   1.333   9.513 -0.0191 -1.0953 -3.5248
41371SOL    HW231164   2.257   1.188   9.555  0.9999 -0.2926  0.0666
41372SOL     OW31165   8.832   6.936   2.360 -0.1263  0.3658 -0.2704
41372SOL    HW131166   8.772   6.994   2.407 -1.8171 -2.2215  0.9715
41372SOL    HW231167   8.895   6.908   2.426  0.6731  0.7471 -0.8572
41373SOL     OW31168   7.897  11.403   4.689  0.0670  0.2731 -0.4457
41373SOL    HW131169   7.866  11.485   4.650  0.5557  1.5984  1.8145
41373SOL    HW231170   7.857  11.399   4.775  1.9821 -0.6053  0.4772
41374SOL     OW31171  10.479   5.611   1.052 -0.1210  0.7811  0.0821
41374SOL    HW131172  10.496   5.563   1.134 -1.9672  0.0527  0.0961
41374SOL    HW231173  10.527   5.693   1.062  0.3591  0.3630  1.5371
41375SOL     OW31174   6.602   8.507   8.611 -0.0610  0.1091 -0.5610
41375SOL    HW131175   6.682   8.490   8.662 -0.1272  0.1059 -0.4564
41375SOL    HW231176   6.593   8.602   8.611  1.6822  0.3691 -3.2504
41376SOL     OW31177   8.196   2.925   1.844 -0.2587 -0.6187  0.0330
41376SOL    HW131178   8.216   3.017   1.828 -1.3762 -0.3506  0.0911
41376SOL    HW231179   8.225   2.910   1.934  0.8814 -0.6224 -0.3121
41377SOL     OW31180   6.505   7.911   4.492  0.2381 -0.4287  0.1674
41377SOL    HW131181   6.474   7.823   4.468 -0.0657 -0.0950 -0.7122
41377SOL    HW231182   6.455   7.970   4.436  0.3168  0.3270  0.8696
41378SOL     OW31183   2.045   2.894  11.581 -0.1391 -0.2661  0.1479
41378SOL    HW131184   2.051   2.895  11.485  0.3961  1.8143  0.1512
41378SOL    HW231185   2.121   2.842  11.609  1.7314  1.9328 -0.5302
41379SOL     OW31186  10.576  12.071   3.648  0.6815 -0.3725 -0.3105
41379SOL    HW131187  10.587  11.978   3.627  0.7156 -0.3164 -0.5421
41379SOL    HW231188  10.482  12.080   3.665  0.4233 -0.1533 -1.7549
41380SOL     OW31189   1.422  10.020   5.150 -0.4400  0.6403  0.3281
41380SOL    HW131190   1.401  10.074   5.074  1.1231 -1.1931 -1.5412
41380SOL    HW231191   1.377   9.937   5.132  0.5604 -0.0658  1.0070
41381SOL     OW31192   4.380   2.683   5.065  0.2332 -0.0558 -0.0444
41381SOL    HW131193   4.438   2.732   5.122 -1.2210 -0.5754  2.0012
41381SOL    HW231194   4.391   2.592   5.091 -0.9313 -0.2383 -0.1035
41382SOL     OW31195   7.452  11.142   5.263  0.3507  0.1829  0.5050
41382SOL    HW131196   7.390  11.077   5.296 -0.9627  1.2791  0.3020
41382SOL    HW231197   7.430  11.223   5.309  2.6979  0.2873  1.5932
41383SOL     OW31198   2.867  12.581   5.337 -0.2765  0.0864  0.1285
41383SOL    HW131199   2.874  12.592   5.432  3.0991  1.1893 -0.1214
41383SOL    HW231200   2.815  12.656   5.308 -0.3767  0.3696  1.0013
41384SOL     OW31201   1.694   1.721   5.227 -0.0651  0.4664  0.0408
41384SOL    HW131202   1.672   1.774   5.151 -0.2119  1.5075  0.7893
41384SOL    HW231203   1.789   1.708   5.220  0.0261  1.0993  0.0046
41385SOL     OW31204   7.224   4.105   3.463  0.4442  0.1263 -0.6380
41385SOL    HW131205   7.242   4.166   3.391  0.0970  0.2793 -0.5992
41385SOL    HW231206   7.150   4.052   3.431  0.4364  0.0432 -0.4841
41386SOL     OW31207   9.077   6.277   9.023 -0.3803 -0.1671  0.0812
41386SOL    HW131208   9.087   6.372   9.026  1.0955 -0.3168  0.8959
41386SOL    HW231209   9.137   6.244   9.091 -1.4068 -1.6436  0.3239
41387SOL     OW31210   7.925   2.245   3.178  0.4073 -0.3715 -0.1688
41387SOL    HW131211   7.989   2.205   3.118  1.6298 -0.6991  1.3059
41387SOL    HW231212   7.976   2.306   3.230 -0.8488  0.6986 -0.1515
41388SOL     OW31213   0.805   8.237   4.620  0.1683  0.3549 -0.1180
41388SOL    HW131214   0.844   8.321   4.595 -0.6878  0.7828 -0.0673
41388SOL    HW231215   0.787   8.194   4.536 -0.0012  0.5190 -0.1692
41389SOL     OW31216   9.262   6.261   6.562  0.0947  0.0449 -0.2625
41389SOL    HW131217   9.300   6.203   6.497 -1.3756 -1.2434 -0.0283
41389SOL    HW231218   9.168   6.242   6.560 -0.0261  0.0019  2.1396
41390SOL     OW31219   5.145   4.640  12.091  0.2419 -0.1440 -0.3890
41390SOL    HW131220   5.118   4.713  12.147 -0.1662  0.0591 -0.8395
41390SOL    HW231221   5.102   4.658  12.007  0.9220 -0.3904 -0.7940
41391SOL     OW31222  12.334   1.382   4.269  0.4301  1.0113  0.0291
41391SOL    HW131223  12.300   1.316   4.330 -0.0280  0.6600 -0.5956
41391SOL    HW231224  12.428   1.384   4.287  0.3605  0.6290  0.4802
41392SOL     OW31225   9.165   3.350   2.931 -0.8652 -0.1986  0.3414
41392SOL    HW131226   9.186   3.295   3.006 -2.9969 -0.8124  0.5701
41392SOL    HW231227   9.122   3.427   2.968 -0.1265  0.4515 -0.1350
41393SOL     OW31228   8.283   2.323  11.415  0.0271 -0.2805 -0.3123
41393SOL    HW131229   8.256   2.321  11.507 -0.2620  1.4886 -0.3212
41393SOL    HW231230   8.362   2.268  11.412  0.0971 -0.2883  1.0073
41394SOL     OW31231   5.280   4.976   3.694 -0.1633  0.5418  0.0237
41394SOL    HW131232   5.278   4.952   3.786 -0.2995 -0.2497 -0.1776
41394SOL    HW231233   5.317   4.899   3.650  0.0675  0.9807 -0.5599
41395SOL     OW31234   6.124   3.665   7.326 -0.2331  0.3393 -0.0478
41395SOL    HW131235   6.181   3.736   7.357 -1.0283  0.7169  0.5986
41395SOL    HW231236   6.184   3.593   7.307  0.6276  1.2618 -0.9887
41396SOL     OW31237  10.864   9.643   8.363 -0.0586  0.5976  0.2391
41396SOL    HW131238  10.806   9.709   8.401 -0.8842 -0.3148  0.6326
41396SOL    HW231239  10.931   9.629   8.430 -0.1865  0.6746  0.3858
41397SOL     OW31240   0.884  11.000  11.371 -0.1587  0.0302 -0.0641
41397SOL    HW131241   0.874  10.906  11.358  1.9372 -0.1674 -0.5592
41397SOL    HW231242   0.853  11.038  11.288  1.2939 -0.4236 -0.8547
41398SOL     OW31243   6.171  11.441   2.541 -0.2168 -0.2037  0.6547
41398SOL    HW131244   6.234  11.479   2.603 -1.2672  2.5152  0.1845
41398SOL    HW231245   6.125  11.516   2.504 -1.3803 -1.8949 -1.5890
41399SOL     OW31246   1.786  12.341   6.510 -0.0792 -0.6149  0.4822
41399SOL    HW131247   1.827  12.271   6.459  0.0582 -0.9635  1.0695
41399SOL    HW231248   1.695  12.312   6.521 -0.5220  0.1765 -0.8529
41400SOL     OW31249   7.139   2.180   8.813 -0.5049  0.2708  0.3727
41400SOL    HW131250   7.204   2.246   8.790  1.5116 -1.7481 -0.0516
41400SOL    HW231251   7.103   2.152   8.729  0.5530 -0.9509  0.2917
41401SOL     OW31252   9.355   3.146   3.085  0.2394 -0.2964 -0.1225
41401SOL    HW131253   9.383   3.163   2.996 -2.3411 -0.1545 -0.9816
41401SOL    HW231254   9.347   3.051   3.090  2.2264 -0.4776  0.6305
41402SOL     OW31255   8.863   4.861   3.104  0.2690 -0.8487  0.5452
41402SOL    HW131256   8.900   4.890   3.187  0.3584 -1.0845  0.5900
41402SOL    HW231257   8.863   4.939   3.049 -0.9123 -0.3949  1.1580
41403SOL     OW31258   6.599   7.192   1.207  1.0133  0.3982  0.1233
41403SOL    HW131259   6.515   7.145   1.208 -0.2103  2.3896 -1.3304
41403SOL    HW231260   6.659   7.132   1.163 -0.4399  0.0711 -1.5414
41404SOL     OW31261   8.055   8.440   3.094  0.1437  0.1821  0.0217
41404SOL    HW131262   8.085   8.413   3.181  0.0572 -0.4247 -0.1302
41404SOL    HW231263   7.997   8.369   3.066  1.8676 -0.7267 -1.4377
41405SOL     OW31264   4.568   0.962   7.499  0.2454  0.2846 -0.2661
41405SOL    HW131265   4.557   0.889   7.559 -1.0898 -0.7199 -1.6736
41405SOL    HW231266   4.609   1.031   7.552 -1.3836 -0.3501  1.9299
41406SOL     OW31267   4.075   7.350  11.792 -0.1692  0.0216  0.3124
41406SOL    HW131268   4.108   7.433  11.824 -1.4420  0.1248  1.4340
41406SOL    HW231269   3.999   7.331  11.847 -1.3583 -0.6905 -1.4886
41407SOL     OW31270   3.526   1.014  10.964 -0.1140 -0.0059 -0.0337
41407SOL    HW131271   3.436   1.047  10.967 -0.1259  0.0896 -1.1194
41407SOL    HW231272   3.574   1.082  10.916  0.7208  0.3408  1.2603
41408SOL     OW31273   0.434   9.124  12.572 -0.5047 -0.5663 -0.5906
41408SOL    HW131274   0.377   9.155  12.502 -0.7069 -0.9541 -0.6025
41408SOL    HW231275   0.477   9.203  12.605  1.3948 -0.5811 -2.7249
41409SOL     OW31276  10.385  10.226   5.558  0.1647 -0.2403 -0.6004
41409SOL    HW131277  10.354  10.137   5.579  0.5851 -0.4952 -1.0307
41409SOL    HW231278  10.419  10.259   5.641  0.4741 -0.6817 -0.5451
41410SOL     OW31279   5.306  12.243   4.090  0.2583  0.0751 -0.1432
41410SOL    HW131280   5.293  12.149   4.075 -0.0146  0.0889  0.0011
41410SOL    HW231281   5.261  12.260   4.173  0.5566  0.2771 -0.0193
41411SOL     OW31282   6.546   7.913   3.222  0.2017 -0.6261  0.4202
41411SOL    HW131283   6.635   7.916   3.258  0.4312  2.5101 -0.1114
41411SOL    HW231284   6.556   7.937   3.130 -1.1625 -0.6033  0.2532
41412SOL     OW31285   6.209   1.298   6.774  0.1693 -0.1877  0.2627
41412SOL    HW131286   6.124   1.267   6.808 -0.2512  2.4524  1.9477
41412SOL    HW231287   6.262   1.313   6.853  1.3545  0.4606 -0.6261
41413SOL     OW31288   8.110   1.246   2.985 -0.1928  0.5003 -0.1369
41413SOL    HW131289   8.182   1.187   3.007 -0.4999 -0.8315 -2.3492
41413SOL    HW231290   8.147   1.334   2.995  0.7277 -0.0505  1.8266
41414SOL     OW31291   6.027   5.838   0.065 -0.1402 -0.2790  0.7018
41414SOL    HW131292   6.017   5.797   0.151 -0.3488  2.3610  2.0354
41414SOL    HW231293   5.987   5.924   0.075  1.8250  0.9834 -1.3732
41415SOL     OW31294   2.379  11.584   0.973  0.4728 -0.2988 -0.4022
41415SOL    HW131295   2.333  11.569   1.055 -0.5697 -0.2965 -0.9661
41415SOL    HW231296   2.368  11.678   0.956 -0.1745 -0.4850 -1.0349
41416SOL     OW31297   3.832   8.407   8.582  0.0791  0.0197  0.5272
41416SOL    HW131298   3.813   8.360   8.663 -0.7232 -0.1334  0.2539
41416SOL    HW231299   3.752   8.401   8.531  1.2187 -1.7251 -1.2075
41417SOL     OW31300   2.763  12.207   4.772  0.4100  0.0418  0.6791
41417SOL    HW131301   2.791  12.294   4.799  0.0554 -0.1930  1.8248
41417SOL    HW231302   2.668  12.208   4.780  0.2349  0.1124 -1.0473
41418SOL     OW31303   1.559   4.789   0.037  0.5837  0.4271 -0.0312
41418SOL    HW131304   1.504   4.837   0.099  1.7330  0.1457  1.2555
41418SOL    HW231305   1.517   4.703   0.029  0.1153  0.6610 -0.0758
41419SOL     OW31306  12.201   3.840   3.814  0.2423  0.5721 -0.0999
41419SOL    HW131307  12.245   3.791   3.884 -0.2059  1.2270  0.6551
41419SOL    HW231308  12.271   3.865   3.754  0.5422 -0.5824 -0.2608
41420SOL     OW31309   7.754   9.886   9.844  0.0089 -0.5312 -0.2010
41420SOL    HW131310   7.769   9.980   9.830 -0.7945 -0.1942  1.0615
41420SOL    HW231311   7.824   9.860   9.904 -0.7894 -0.3375  0.8284
41421SOL     OW31312   8.438   4.463  12.400  0.2506  0.0844 -0.6842
41421SOL    HW131313   8.492   4.436  12.474  2.0748  1.1540 -1.5755
41421SOL    HW231314   8.400   4.546  12.428  0.0987 -0.0233 -0.5648
41422SOL     OW31315   2.627   9.016  11.897  0.0449 -0.0784 -0.1014
41422SOL    HW131316   2.598   9.106  11.886  1.6288  0.2787 -1.8168
41422SOL    HW231317   2.546   8.965  11.900 -0.8423  1.2628 -0.3944
41423SOL     OW31318   0.216   5.690   0.619  0.1867 -0.6901  0.2429
41423SOL    HW131319   0.179   5.707   0.532  3.1803  0.9553 -0.8402
41423SOL    HW231320   0.283   5.624   0.604  1.4188  0.3318  1.0846
41424SOL     OW31321   8.157   7.525  12.161 -0.1402  0.3132  0.2347
41424SOL    HW131322   8.120   7.587  12.224 -3.7693  0.1740 -1.5312
41424SOL    HW231323   8.087   7.462  12.146  0.9987 -0.3403 -3.0381
41425SOL     OW31324   2.183   8.148   5.831 -0.5736  0.0723 -0.3462
41425SOL    HW131325   2.226   8.159   5.916  0.7266  1.4461 -1.1357
41425SOL    HW231326   2.106   8.204   5.836 -0.5287  0.1112 -0.0659
41426SOL     OW31327   3.718   3.586   3.850 -0.5126 -0.1017  0.6960
41426SOL    HW131328   3.736   3.609   3.941  0.8519 -1.2579  0.7658
41426SOL    HW231329   3.799   3.609   3.804 -1.1698  0.4119 -0.2211
41427SOL     OW31330   0.758   8.222   5.702 -0.2901 -0.2668 -0.2887
41427SOL    HW131331   0.752   8.132   5.734  1.8983 -0.3415  0.0654
41427SOL    HW231332   0.800   8.214   5.617  1.1280  0.4922  0.3189
41428SOL     OW31333  12.524   7.801   4.576 -0.1075 -0.1805 -0.0629
41428SOL    HW131334  12.494   7.888   4.601 -0.6596 -0.7293  1.3044
41428SOL    HW231335  12.619   7.806   4.582 -0.1117  0.4590 -0.4553
41429SOL     OW31336   8.547   9.728  11.951  0.0251 -0.0798  0.2360
41429SOL    HW131337   8.608   9.798  11.927 -0.2618  0.1204  0.0860
41429SOL    HW231338   8.528   9.743  12.043 -1.7106  1.3538 -0.2938
41430SOL     OW31339   2.927  10.351   5.958  0.6207 -0.0081  0.5717
41430SOL    HW131340   2.978  10.423   5.921  0.6674 -0.2273  0.2046
41430SOL    HW231341   2.879  10.390   6.031 -0.0535  0.5934 -0.1879
41431SOL     OW31342   6.072   0.965   4.642  0.2975  0.4327 -0.8809
41431SOL    HW131343   6.022   0.884   4.644 -1.8437  1.6748  0.9167
41431SOL    HW231344   6.137   0.956   4.711 -0.9540  0.7783  0.3858
41432SOL     OW31345   3.431   8.536   8.289  0.3027  0.1284 -0.0885
41432SOL    HW131346   3.404   8.445   8.303  0.2539  0.2483  0.6281
41432SOL    HW231347   3.349   8.584   8.281  0.3271  0.1902  0.0424
41433SOL     OW31348   9.974   8.339   9.792  0.2748  0.1828  0.0596
41433SOL    HW131349   9.957   8.418   9.741  1.3037  0.9467  0.8516
41433SOL    HW231350  10.044   8.294   9.744 -0.9700 -0.7983 -0.9244
41434SOL     OW31351   6.467   8.456   6.777 -0.8943  0.0390 -0.3675
41434SOL    HW131352   6.404   8.527   6.765 -1.5049 -0.6808 -1.6220
41434SOL    HW231353   6.551   8.501   6.787 -1.6105  1.0332  1.7330
41435SOL     OW31354   7.809  11.713   7.664  0.1222 -0.0850  0.0291
41435SOL    HW131355   7.722  11.680   7.688  1.0626 -1.4739  1.7403
41435SOL    HW231356   7.829  11.778   7.731  0.5137  0.0447 -0.2152
41436SOL     OW31357   7.602   5.736  11.694  0.0767 -0.6128  0.5645
41436SOL    HW131358   7.649   5.692  11.764  1.0302  0.1686  0.4372
41436SOL    HW231359   7.647   5.820  11.684  0.0952 -0.7925 -1.1216
41437SOL     OW31360  11.890   7.088  10.799 -0.0636 -0.0397 -0.2425
41437SOL    HW131361  11.943   7.139  10.859 -1.1990  0.7379  0.1324
41437SOL    HW231362  11.850   7.020  10.853  0.0665 -0.2507 -0.4067
41438SOL     OW31363   0.803  10.525   8.325  0.6326 -0.4278  0.2743
41438SOL    HW131364   0.876  10.583   8.346 -0.0122  0.4833  0.0605
41438SOL    HW231365   0.732  10.584   8.298  0.3690 -1.3635 -1.2374
41439SOL     OW31366   9.508   2.980   7.567 -0.1243  0.4467 -0.4297
41439SOL    HW131367   9.562   2.902   7.558 -0.6016 -0.8075  4.5828
41439SOL    HW231368   9.419   2.951   7.549 -0.1119  0.1919 -0.0922
41440SOL     OW31369   0.366   1.821   6.961 -0.8721  0.5001  0.5570
41440SOL    HW131370   0.375   1.749   6.899  0.3548 -0.9633  2.3346
41440SOL    HW231371   0.272   1.823   6.981 -1.1475  0.4027 -0.5998
41441SOL     OW31372   2.335   6.605  10.585  0.4499 -0.2477 -0.2615
41441SOL    HW131373   2.281   6.683  10.599  1.2983  0.0488  1.8343
41441SOL    HW231374   2.340   6.564  10.672  1.2765 -1.8033 -1.0076
41442SOL     OW31375  10.592   9.899   5.175  0.2665  0.0758 -0.3396
41442SOL    HW131376  10.660   9.853   5.127 -0.3225 -1.3189  0.1109
41442SOL    HW231377  10.524   9.915   5.109  0.2416 -0.1966 -0.3824
41443SOL     OW31378  11.600   9.159   4.657  0.2598 -0.4954  0.2703
41443SOL    HW131379  11.623   9.251   4.663  0.9285 -0.6762  0.6474
41443SOL    HW231380  11.586   9.144   4.564  0.1170 -0.0063  0.2112
41444SOL     OW31381   8.467   9.792  12.199 -0.1598  0.1334  0.1291
41444SOL    HW131382   8.518   9.743  12.264 -1.8097  0.5345  1.7897
41444SOL    HW231383   8.430   9.866  12.247 -2.4847 -0.2625 -0.9223
41445SOL     OW31384   3.497   5.890  10.754  0.0573  0.2940  0.6624
41445SOL    HW131385   3.423   5.936  10.714  1.0286  1.1036 -0.2602
41445SOL    HW231386   3.486   5.799  10.729 -1.2883  0.1688  1.5827
41446SOL     OW31387  11.855   8.760   9.495  0.1502 -0.3759  0.0727
41446SOL    HW131388  11.883   8.695   9.560 -0.3095  0.5601  1.2377
41446SOL    HW231389  11.809   8.708   9.429 -0.1189 -1.2719  0.9246
41447SOL     OW31390   3.000  11.867   6.166  0.2873  0.1963  0.1446
41447SOL    HW131391   3.024  11.776   6.149 -2.6127 -0.9713  1.6629
41447SOL    HW231392   3.079  11.906   6.203  1.0732 -2.2164  1.2107
41448SOL     OW31393   6.166   5.321   4.785  0.1068 -0.5838 -0.0172
41448SOL    HW131394   6.122   5.244   4.821  2.9104 -1.6991  1.3191
41448SOL    HW231395   6.171   5.303   4.691 -1.4290 -0.8176 -0.0851
41449SOL     OW31396   8.571   7.411   2.490  0.4660 -0.5783  0.3322
41449SOL    HW131397   8.535   7.334   2.533  0.4022 -0.2680  0.8490
41449SOL    HW231398   8.606   7.379   2.407  0.4921 -1.1711  0.5709
41450SOL     OW31399   6.681   2.080   2.277 -0.3944 -0.2257  0.1434
41450SOL    HW131400   6.717   2.154   2.229 -0.3578 -0.1441  0.2965
41450SOL    HW231401   6.645   2.118   2.357 -3.1785  0.0946 -1.1489
41451SOL     OW31402   9.747  11.067   7.406  0.6274  0.1605 -0.6637
41451SOL    HW131403   9.744  10.994   7.344 -0.4076  1.2361 -1.9333
41451SOL    HW231404   9.672  11.051   7.464  0.0651  0.4893 -1.2859
41452SOL     OW31405   1.509   7.301  12.116 -0.4817 -0.0051  0.2193
41452SOL    HW131406   1.513   7.208  12.093 -0.2030 -0.1449  0.8298
41452SOL    HW231407   1.445   7.337  12.055  0.0494 -0.4212 -0.6117
41453SOL     OW31408   0.716   7.593  12.516  0.4806 -0.4555  0.3755
41453SOL    HW131409   0.732   7.646  12.594  2.0677 -0.9502  0.4150
41453SOL    HW231410   0.652   7.528  12.544 -0.9769  0.9671  0.5140
41454SOL     OW31411  11.410   0.177   1.263 -0.1900  0.2752 -0.3954
41454SOL    HW131412  11.490   0.174   1.211  0.1646  0.4132  0.1379
41454SOL    HW231413  11.439   0.166   1.354 -0.7981  0.0531 -0.2185
41455SOL     OW31414   2.010  11.381   4.685 -0.1014  0.6973  0.6056
41455SOL    HW131415   2.090  11.336   4.656 -0.6372 -1.7173  2.5555
41455SOL    HW231416   2.017  11.382   4.780 -1.8368  1.5896  0.7528
41456SOL     OW31417   9.671   0.732   6.529  0.7480  0.0202  0.4949
41456SOL    HW131418   9.596   0.782   6.497 -0.0382 -1.5197 -0.2003
41456SOL    HW231419   9.658   0.727   6.624  0.7395  0.9493  0.5461
41457SOL     OW31420   2.308   6.754   7.961  1.0226 -0.9555 -0.5096
41457SOL    HW131421   2.300   6.659   7.958 -1.5302 -0.8098 -0.5228
41457SOL    HW231422   2.221   6.785   7.986  1.4140  1.4372 -1.7684
41458SOL     OW31423   2.129  12.334   9.806  0.2710  0.4145  0.4828
41458SOL    HW131424   2.046  12.376   9.781  0.9121  1.3453 -0.1216
41458SOL    HW231425   2.166  12.393   9.872  2.1591  1.9727 -1.8344
41459SOL     OW31426   3.295  11.505   2.397  0.4941  0.2268  0.1517
41459SOL    HW131427   3.244  11.525   2.475 -0.4074  1.3908 -0.7029
41459SOL    HW231428   3.379  11.475   2.430  0.5933  1.9488  1.5675
41460SOL     OW31429  10.257   5.590  11.190  0.4992  0.0580  0.1744
41460SOL    HW131430  10.277   5.644  11.266 -1.2748  0.0931  0.6659
41460SOL    HW231431  10.305   5.508  11.205 -0.0473 -0.0425  1.4832
41461SOL     OW31432   8.632  12.277  12.141 -0.7221 -0.1871 -0.9790
41461SOL    HW131433   8.716  12.316  12.117 -0.5085 -1.9202 -3.3784
41461SOL    HW231434   8.612  12.314  12.227  2.0782  0.9147 -0.7030
41462SOL     OW31435   5.489   1.476  10.661 -0.1728 -0.5174 -0.4561
41462SOL    HW131436   5.415   1.492  10.720  0.1171  1.2352 -0.5260
41462SOL    HW231437   5.542   1.411  10.708 -0.3684  0.2225  0.8562
41463SOL     OW31438   9.896   5.304   9.295 -0.1016  0.1440  0.0710
41463SOL    HW131439   9.892   5.310   9.390 -0.0238  3.9398 -0.0125
41463SOL    HW231440   9.926   5.390   9.266  0.6660 -1.0996 -3.3896
41464SOL     OW31441   9.526   5.760   5.541  0.2225  0.1770  0.6268
41464SOL    HW131442   9.537   5.670   5.509  1.1399  0.6363 -0.4133
41464SOL    HW231443   9.612   5.783   5.576  0.4690  1.1628 -0.5393
41465SOL     OW31444   7.076  10.764   2.150 -0.1082 -0.1029 -0.0898
41465SOL    HW131445   7.053  10.715   2.229  0.8903 -0.2162  0.1400
41465SOL    HW231446   7.032  10.849   2.161 -0.5561 -0.3736  0.2453
41466SOL     OW31447   1.758  10.093  10.556 -0.0781 -0.7262  0.0724
41466SOL    HW131448   1.745  10.053  10.470 -0.5373 -0.5582  0.0591
41466SOL    HW231449   1.801  10.176  10.538 -0.1745 -0.6909  0.0035
41467SOL     OW31450   9.313  10.711   6.923 -0.2790 -0.1899  0.2494
41467SOL    HW131451   9.403  10.742   6.910  0.1704 -1.3048  0.5817
41467SOL    HW231452   9.315  10.621   6.891 -0.6177 -1.0922  2.5972
41468SOL     OW31453   4.816  11.623   3.109  0.6179  0.0884  0.2516
41468SOL    HW131454   4.799  11.538   3.149 -1.0817  1.0492  1.7153
41468SOL    HW231455   4.836  11.603   3.017 -1.6827 -1.7805  0.0595
41469SOL     OW31456   4.776   4.578   2.567  0.1556 -0.5053  0.4612
41469SOL    HW131457   4.809   4.615   2.649  0.3318 -0.0365  0.1854
41469SOL    HW231458   4.773   4.653   2.507  0.3552 -0.9101 -0.0594
41470SOL     OW31459   7.393   4.978   3.880  0.0089 -0.5450 -0.3178
41470SOL    HW131460   7.334   4.951   3.950  0.4494 -2.7641 -0.7212
41470SOL    HW231461   7.447   4.901   3.864  1.1408  0.5145 -1.8682
41471SOL     OW31462   0.576   5.788   2.271  0.1751  0.0388 -0.6578
41471SOL    HW131463   0.646   5.752   2.216  1.5152 -0.6960  1.4145
41471SOL    HW231464   0.591   5.883   2.271 -0.1896  0.1184 -1.9444
41472SOL     OW31465   0.215   8.614   6.155  0.6328  0.0426 -0.7990
41472SOL    HW131466   0.308   8.632   6.141  0.6124 -0.0280 -1.0423
41472SOL    HW231467   0.206   8.520   6.137  0.4720  0.0985 -1.0178
41473SOL     OW31468   2.509   0.495   8.800 -0.0193 -0.2626  0.0674
41473SOL    HW131469   2.443   0.456   8.743 -0.4198  0.0076  0.3396
41473SOL    HW231470   2.478   0.477   8.889 -0.9448  1.8496  0.2218
41474SOL     OW31471   3.974   8.116   4.962 -0.0286  0.1461 -0.2738
41474SOL    HW131472   3.894   8.064   4.952  0.4922 -0.4741 -1.4693
41474SOL    HW231473   3.944   8.199   4.999 -1.0925 -0.4199  0.1868
41475SOL     OW31474   0.409   8.479   2.500  0.9796  0.5768 -0.4373
41475SOL    HW131475   0.339   8.460   2.438  0.3464  0.3273  0.3324
41475SOL    HW231476   0.478   8.416   2.478 -0.0734 -0.9686  0.4260
41476SOL     OW31477   7.892   2.161   4.038 -0.3426  0.5681 -0.5021
41476SOL    HW131478   7.798   2.178   4.043 -0.7625 -1.4070 -0.9873
41476SOL    HW231479   7.926   2.187   4.123 -1.2743  1.4492 -0.3762
41477SOL     OW31480   0.176   5.937  12.201  0.3621 -0.2638 -0.0644
41477SOL    HW131481   0.227   5.880  12.143  0.2728 -0.6979  0.2806
41477SOL    HW231482   0.189   6.025  12.165  1.0195 -0.4184 -0.2275
41478SOL     OW31483   6.207   7.644   4.165  0.4439  0.1255 -0.2184
41478SOL    HW131484   6.136   7.595   4.207  2.3926 -1.1013  1.8716
41478SOL    HW231485   6.163   7.713   4.115 -2.1568  0.4092  2.2413
41479SOL     OW31486   4.188   7.285   4.006 -0.1320  0.1803 -0.2398
41479SOL    HW131487   4.218   7.375   4.021 -0.0424  0.2990 -1.0801
41479SOL    HW231488   4.107   7.295   3.956 -0.1533 -0.1966 -0.2805
41480SOL     OW31489   0.383   4.720   4.092 -0.1716 -0.0552 -0.1539
41480SOL    HW131490   0.387   4.813   4.115 -0.0243  0.0560 -0.6259
41480SOL    HW231491   0.378   4.675   4.177 -0.8829  0.4100  0.0612
41481SOL     OW31492   3.326   1.468  10.703  0.1021  0.2460 -0.0335
41481SOL    HW131493   3.333   1.468  10.799  2.0586  0.4479 -0.1423
41481SOL    HW231494   3.299   1.378  10.681 -0.8249  0.3284  0.7163
41482SOL     OW31495  11.426  12.440   0.663  0.4692  0.2699 -0.0908
41482SOL    HW131496  11.476  12.521   0.652  0.9809 -0.1490 -1.0647
41482SOL    HW231497  11.345  12.454   0.614  0.9572 -0.1105 -1.0513
41483SOL     OW31498   0.018   0.412   1.913  0.3173 -0.4436  0.3181
41483SOL    HW131499   0.094   0.417   1.856  1.3391 -1.0302  1.5839
41483SOL    HW231500  -0.055   0.392   1.854  1.0827  0.3726 -0.9394
41484SOL     OW31501   3.571   7.521  11.654  0.3363  0.7943 -0.5366
41484SOL    HW131502   3.493   7.519  11.599 -0.8517 -0.9710  1.0498
41484SOL    HW231503   3.548   7.465  11.728  3.0706  0.3493  0.0655
41485SOL     OW31504  11.213  10.702   3.819 -0.2088 -0.3131  0.3007
41485SOL    HW131505  11.121  10.675   3.822 -0.3877  0.3097  0.4849
41485SOL    HW231506  11.211  10.790   3.782  0.0796  0.7534  2.6436
41486SOL     OW31507   1.769   3.815   3.622 -0.2328 -0.0855  0.6166
41486SOL    HW131508   1.695   3.812   3.561  0.6151  0.5203 -0.4691
41486SOL    HW231509   1.795   3.724   3.633 -1.3192 -0.3465  1.2694
41487SOL     OW31510   4.439   0.412   2.945  0.0808 -0.0802  0.2685
41487SOL    HW131511   4.493   0.402   2.866  0.9690 -1.2678  1.0053
41487SOL    HW231512   4.472   0.491   2.987  1.4035 -0.8705  0.7903
41488SOL     OW31513  11.332   6.238   7.348 -0.1604 -0.4958 -0.0849
41488SOL    HW131514  11.353   6.224   7.256 -0.8625  1.6557 -0.6339
41488SOL    HW231515  11.238   6.220   7.355 -0.2714  0.0946  0.0217
41489SOL     OW31516   9.995   3.072   4.279  0.1289  0.3173 -0.1887
41489SOL    HW131517  10.034   3.152   4.246 -1.3349  1.0854 -0.1470
41489SOL    HW231518   9.904   3.074   4.248 -0.4077 -0.5016  1.1867
41490SOL     OW31519  11.153   5.169   7.516 -0.0124  0.5045  0.5105
41490SOL    HW131520  11.070   5.218   7.514 -0.3459 -0.0780 -0.8882
41490SOL    HW231521  11.145   5.106   7.445  1.2769 -0.1812  0.9484
41491SOL     OW31522   6.056  11.722   4.374  0.6604  0.5813 -0.4569
41491SOL    HW131523   5.968  11.711   4.338  0.6515 -1.3171  0.0605
41491SOL    HW231524   6.103  11.642   4.350  0.7413 -0.7072  3.3737
41492SOL     OW31525   2.937   7.047  12.215  0.8617 -0.3212 -0.2906
41492SOL    HW131526   2.959   7.091  12.297 -0.6277 -2.1887  1.2014
41492SOL    HW231527   3.020   7.013  12.183  1.1610 -1.5955  1.7263
41493SOL     OW31528   2.027   3.667   1.529 -0.3054 -0.5734 -0.0573
41493SOL    HW131529   1.981   3.613   1.594 -0.4782 -0.5291 -0.1445
41493SOL    HW231530   2.056   3.604   1.463 -0.6985 -0.5327 -0.2720
41494SOL     OW31531   6.550   5.796  12.145 -0.5708 -0.4725  0.0500
41494SOL    HW131532   6.622   5.849  12.181 -1.0095  0.5615 -0.5384
41494SOL    HW231533   6.500   5.768  12.222  0.2909 -0.9671  0.4450
41495SOL     OW31534   9.013   0.487   8.372  0.1363  0.0484 -0.2827
41495SOL    HW131535   8.943   0.551   8.362 -0.2116 -0.4675 -1.1522
41495SOL    HW231536   9.080   0.516   8.310  0.5766  0.3605  0.3239
41496SOL     OW31537  11.846  10.125   8.996 -0.1952 -0.3693 -0.2552
41496SOL    HW131538  11.761  10.106   8.957  0.3249 -0.2376 -1.5341
41496SOL    HW231539  11.905  10.135   8.921  0.2510  3.1905  0.3772
41497SOL     OW31540   1.417   1.841   6.926  0.0546  0.1940  0.1759
41497SOL    HW131541   1.426   1.794   7.009 -1.5751 -2.4164 -0.9965
41497SOL    HW231542   1.345   1.903   6.941  2.1548  2.4375  1.7088
41498SOL     OW31543   6.491   5.082   2.588  0.1217  0.1503  0.4766
41498SOL    HW131544   6.402   5.060   2.615 -0.3078  2.0094  0.6904
41498SOL    HW231545   6.533   5.115   2.668  0.7213  0.1473  0.1716
41499SOL     OW31546  11.400   5.221   3.950  0.0887 -0.3514  0.1441
41499SOL    HW131547  11.378   5.314   3.956 -0.8035 -0.5649  0.3251
41499SOL    HW231548  11.373   5.185   4.034 -0.3204 -0.9296 -0.2334
41500SOL     OW31549   0.035   5.524   1.531  0.5951 -0.3647  0.0907
41500SOL    HW131550  -0.018   5.570   1.465  2.1997 -0.1052 -1.0852
41500SOL    HW231551  -0.027   5.468   1.577 -0.6069 -0.5968 -1.7071
41501SOL     OW31552   0.529   3.377   1.312  0.4393 -0.0386  0.0615
41501SOL    HW131553   0.559   3.336   1.393  0.2428  0.3042  0.3121
41501SOL    HW231554   0.459   3.436   1.340  1.1605  0.9636 -0.2052
41502SOL     OW31555   4.692  12.098   1.492  0.4834  0.0674  0.0304
41502SOL    HW131556   4.753  12.170   1.478  0.2929  0.4849  1.2138
41502SOL    HW231557   4.661  12.075   1.404  1.2509  0.7940 -0.4468
41503SOL     OW31558   1.748  10.843   9.925 -0.0140 -0.3346  0.2719
41503SOL    HW131559   1.801  10.816   9.850  0.0308  1.9583 -0.6177
41503SOL    HW231560   1.670  10.882   9.885 -0.4963 -0.0749  1.4505
41504SOL     OW31561   2.031   6.946   0.625  0.0050 -0.0245  0.5972
41504SOL    HW131562   1.948   6.992   0.612 -0.7605 -1.2381  1.0114
41504SOL    HW231563   2.084   6.970   0.549 -0.8751  0.4412  0.1144
41505SOL     OW31564   1.245   1.549   7.897 -0.1082 -0.4296  0.4044
41505SOL    HW131565   1.151   1.567   7.898 -0.1666 -0.4568 -1.3520
41505SOL    HW231566   1.280   1.598   7.971 -1.3520  0.5406  0.3828
41506SOL     OW31567   4.705   6.801   2.245  0.2242  0.9963  0.1210
41506SOL    HW131568   4.661   6.831   2.166  0.2283 -0.5349 -0.5005
41506SOL    HW231569   4.798   6.811   2.226  0.3579 -1.5749 -1.1071
41507SOL     OW31570   7.064   6.485  12.517 -0.2503  0.0311  0.3829
41507SOL    HW131571   6.993   6.424  12.539 -0.2717 -1.6220 -3.5402
41507SOL    HW231572   7.020   6.569  12.502 -0.7616  0.0470  1.7624
41508SOL     OW31573   7.759   4.103   1.592  0.2231 -0.2876 -0.4078
41508SOL    HW131574   7.708   4.118   1.671  0.4750 -0.7621 -0.1455
41508SOL    HW231575   7.788   4.190   1.565 -0.1994 -0.0812 -0.2080
41509SOL     OW31576   3.058   2.129   2.297 -0.2879  0.1775  0.4143
41509SOL    HW131577   3.080   2.177   2.377  0.6763 -1.3143  1.0804
41509SOL    HW231578   3.072   2.037   2.319 -1.8146 -0.4304 -0.9038
41510SOL     OW31579  10.076   3.210  10.212  0.0614  0.2844  0.3432
41510SOL    HW131580  10.017   3.214  10.287  1.3603 -0.1611  1.4316
41510SOL    HW231581  10.130   3.133  10.228  0.6484  0.4183 -0.8502
41511SOL     OW31582   4.235   8.963   8.210  0.0674 -0.5990 -0.2949
41511SOL    HW131583   4.273   8.968   8.122 -0.6232  2.8240 -0.5519
41511SOL    HW231584   4.311   8.972   8.269  0.2339  0.4819 -0.6544
41512SOL     OW31585   4.480   5.178  12.400  0.1604 -0.0044  0.1338
41512SOL    HW131586   4.510   5.186  12.491  1.8204  1.1442 -0.4707
41512SOL    HW231587   4.556   5.145  12.352 -0.6839 -0.5682 -0.8568
41513SOL     OW31588   9.380   3.722   8.288  0.4271  0.2535 -0.0180
41513SOL    HW131589   9.429   3.756   8.363  2.9312 -0.5593 -1.1767
41513SOL    HW231590   9.389   3.627   8.295  0.4108  0.1579 -1.1555
41514SOL     OW31591   4.317  11.320   0.522  0.2139 -0.7407 -0.5164
41514SOL    HW131592   4.257  11.345   0.452  1.5387  0.4710 -1.2834
41514SOL    HW231593   4.300  11.383   0.592  0.6492 -0.3283 -0.7766
41515SOL     OW31594  10.422   1.958   3.143 -0.8098  0.0126 -0.1422
41515SOL    HW131595  10.446   1.950   3.235  0.9430 -0.7650 -0.6287
41515SOL    HW231596  10.491   1.912   3.096 -1.5796  0.5379 -1.8663
41516SOL     OW31597   3.423  10.822  10.353  0.0469 -0.2249  0.0796
41516SOL    HW131598   3.486  10.752  10.368  1.0562  0.8919  1.4042
41516SOL    HW231599   3.365  10.818  10.429  1.5188  1.7243  1.4279
41517SOL     OW31600   9.487   3.196  11.125 -0.3142  0.5133 -0.2705
41517SOL    HW131601   9.535   3.179  11.043 -1.2911  0.0059 -0.7536
41517SOL    HW231602   9.395   3.196  11.099 -0.8345 -2.2185  1.2240
41518SOL     OW31603   1.065   6.933   7.177  0.5042 -0.4945  0.0340
41518SOL    HW131604   1.027   6.914   7.092  1.6903 -1.3537 -0.3316
41518SOL    HW231605   1.152   6.967   7.158  0.3825  0.3541  0.8797
41519SOL     OW31606   1.422   0.538   8.660 -0.0249 -1.1850  1.1120
41519SOL    HW131607   1.453   0.474   8.596 -0.2138 -0.1596 -0.0335
41519SOL    HW231608   1.350   0.584   8.616  1.1733  0.9489  1.2555
41520SOL     OW31609   0.123   6.670  10.140 -0.3340  0.1932  0.0597
41520SOL    HW131610   0.056   6.610  10.172 -0.2929  0.9817  1.7340
41520SOL    HW231611   0.107   6.676  10.046 -1.8900 -0.5091  0.2489
41521SOL     OW31612   5.294  11.980   0.283  0.0991 -0.0770  0.3171
41521SOL    HW131613   5.382  11.962   0.250 -0.2897  0.5559 -1.1566
41521SOL    HW231614   5.244  11.900   0.264  0.3920 -0.5495  1.4178
41522SOL     OW31615   8.428   7.239   5.485  0.5131 -0.0429 -0.7790
41522SOL    HW131616   8.491   7.202   5.548 -0.4809  1.4772  1.2080
41522SOL    HW231617   8.427   7.176   5.413  1.1806 -2.2606  1.0249
41523SOL     OW31618   5.948   0.324   5.836 -0.3835 -0.2126 -0.3770
41523SOL    HW131619   5.895   0.337   5.915  0.1450  1.0092 -0.1998
41523SOL    HW231620   6.038   0.331   5.867 -0.1731  1.5499 -1.2457
41524SOL     OW31621   3.162   0.205  10.771  0.0567 -0.6005 -0.0609
41524SOL    HW131622   3.206   0.137  10.821 -0.1280 -0.8705 -0.2624
41524SOL    HW231623   3.226   0.231  10.704  0.7356  0.5480  0.9767
41525SOL     OW31624   4.788   2.299   9.063 -0.1807 -0.5656 -0.2710
41525SOL    HW131625   4.832   2.326   9.143  0.7993 -1.0766 -0.6254
41525SOL    HW231626   4.854   2.249   9.015 -0.4784  0.3907 -1.7580
41526SOL     OW31627   2.970   8.734   8.061 -0.3012  0.3447  0.1372
41526SOL    HW131628   2.876   8.744   8.043 -0.2566  0.3493 -0.0968
41526SOL    HW231629   3.009   8.716   7.975  0.2588  2.7209 -0.1559
41527SOL     OW31630   9.875   8.213  10.500  0.6851  0.0450 -0.3405
41527SOL    HW131631   9.817   8.252  10.436  0.3427 -0.0535 -0.0888
41527SOL    HW231632   9.935   8.283  10.525  1.6683 -0.2466 -1.7313
41528SOL     OW31633   8.816   5.701   5.388 -0.7325  0.4268 -1.2284
41528SOL    HW131634   8.818   5.797   5.390  0.4074  0.4220 -1.4502
41528SOL    HW231635   8.898   5.676   5.345 -0.5170 -0.6682 -0.2306
41529SOL     OW31636   9.325   1.297   4.199 -0.3644  0.1449 -0.0914
41529SOL    HW131637   9.332   1.264   4.109  2.5193 -0.6065  0.3171
41529SOL    HW231638   9.298   1.221   4.250 -1.2598  0.3851 -0.1932
41530SOL     OW31639  11.118   2.362   9.162 -0.3240 -0.5907  0.3081
41530SOL    HW131640  11.023   2.348   9.160 -0.9170  2.6629 -0.4277
41530SOL    HW231641  11.140   2.381   9.071  0.6176  0.7676  0.8016
41531SOL     OW31642   5.112   8.090   3.076 -0.0470  0.6906  0.5943
41531SOL    HW131643   5.103   8.020   3.141  0.0830  1.3754  1.3561
41531SOL    HW231644   5.035   8.145   3.089 -1.0422 -0.2044 -1.1355
41532SOL     OW31645   1.424  11.647   2.551 -0.3325 -0.2208  0.1573
41532SOL    HW131646   1.516  11.657   2.576 -0.3099  0.1058 -0.0499
41532SOL    HW231647   1.414  11.702   2.473 -0.5557 -0.7250 -0.1794
41533SOL     OW31648   5.803   9.235   3.569 -0.1515 -0.0580  0.1501
41533SOL    HW131649   5.732   9.188   3.526  0.1689  0.2389 -0.7260
41533SOL    HW231650   5.854   9.167   3.614  0.5837 -0.6414 -1.4902
41534SOL     OW31651   3.789  10.998   4.051  0.1125 -0.0870 -0.1986
41534SOL    HW131652   3.883  10.988   4.065 -0.1088 -0.1048  1.5154
41534SOL    HW231653   3.781  11.047   3.969  1.6513  1.1890  0.3732
41535SOL     OW31654   6.852   8.730   0.364 -0.4016 -0.0379 -0.0656
41535SOL    HW131655   6.901   8.650   0.382 -2.1811 -1.4161 -1.0236
41535SOL    HW231656   6.838   8.769   0.450  0.2831 -0.8723  0.4507
41536SOL     OW31657  10.915  12.413   1.946 -0.8965 -0.7738  0.4741
41536SOL    HW131658  10.859  12.388   1.872  0.2347 -0.0201 -0.6881
41536SOL    HW231659  10.943  12.329   1.984 -1.0650 -1.2015 -0.3048
41537SOL     OW31660   3.938   8.329   9.802  0.0373 -0.0025  0.2885
41537SOL    HW131661   3.887   8.263   9.756  0.9729 -0.8811  0.4610
41537SOL    HW231662   3.874   8.377   9.854 -0.6227 -1.0744  0.5080
41538SOL     OW31663   9.144  12.342   4.857  0.2004  0.2409 -0.6306
41538SOL    HW131664   9.238  12.357   4.842  0.1609 -0.5547 -1.7876
41538SOL    HW231665   9.126  12.387   4.940  1.9073 -0.7435  0.3497
41539SOL     OW31666   2.428  11.625   6.293  0.4158 -0.1939  0.5950
41539SOL    HW131667   2.387  11.578   6.366  1.8310 -0.0890  1.4995
41539SOL    HW231668   2.362  11.689   6.266 -2.9409 -4.4661 -2.7670
41540SOL     OW31669  11.955   1.546   6.442  0.5310  0.3898  0.6323
41540SOL    HW131670  11.864   1.546   6.471  0.2932  2.1667  0.0441
41540SOL    HW231671  12.006   1.530   6.521 -0.2622  0.3359  1.1360
41541SOL     OW31672   9.439  11.258   8.574  0.1732 -0.5043 -0.1294
41541SOL    HW131673   9.382  11.185   8.599  0.2094  0.4840  3.3627
41541SOL    HW231674   9.525  11.233   8.609  0.8432  0.0825 -1.2871
41542SOL     OW31675   6.663   5.037   8.626  0.1738  0.9412  0.2432
41542SOL    HW131676   6.574   5.008   8.606  0.2154  0.9780  0.0045
41542SOL    HW231677   6.658   5.133   8.625  0.2104  0.9433  0.2571
41543SOL     OW31678   0.365  10.882  11.938 -0.5088  0.2188  0.0841
41543SOL    HW131679   0.307  10.816  11.976 -0.5134 -1.3848 -2.5119
41543SOL    HW231680   0.360  10.868  11.844  0.5710  3.0802 -0.5175
41544SOL     OW31681   1.214   7.677   5.770 -0.1563  0.2188  0.7477
41544SOL    HW131682   1.196   7.598   5.720  1.1317 -1.6211  3.0059
41544SOL    HW231683   1.201   7.651   5.861  3.4412  1.6237  1.8205
41545SOL     OW31684   8.394   9.189  10.152 -0.1372  0.0448  0.1083
41545SOL    HW131685   8.448   9.262  10.180 -1.5644  0.7574  1.1556
41545SOL    HW231686   8.400   9.126  10.224  0.7286 -0.6802 -0.5878
41546SOL     OW31687  11.721   3.802   4.836  0.3939 -0.3647 -0.2647
41546SOL    HW131688  11.694   3.874   4.779  0.2518 -0.4655 -0.3264
41546SOL    HW231689  11.813   3.787   4.813  0.2403 -0.6366 -0.7213
41547SOL     OW31690   6.926   7.961   0.956  0.1172 -0.3296  0.0400
41547SOL    HW131691   6.906   7.896   1.022  0.9681 -0.1631  0.4734
41547SOL    HW231692   6.990   8.020   0.997 -0.2117  0.4510 -0.5278
41548SOL     OW31693   6.112   5.156   4.217  0.0389 -0.1078  0.2298
41548SOL    HW131694   6.207   5.153   4.217  0.0693 -1.9022  1.9328
41548SOL    HW231695   6.086   5.128   4.129  1.1069 -1.4725  0.3235
41549SOL     OW31696  10.670   9.217   7.179  0.0623 -0.4540  0.0924
41549SOL    HW131697  10.652   9.293   7.122 -1.4496  0.8031  2.1123
41549SOL    HW231698  10.726   9.251   7.248 -2.0071 -0.6522  1.9779
41550SOL     OW31699   2.763   2.582   1.526  0.3840 -0.0902 -0.2699
41550SOL    HW131700   2.765   2.665   1.480 -2.1946  0.1989 -0.0486
41550SOL    HW231701   2.819   2.595   1.602  0.0885  1.4526 -0.2832
41551SOL     OW31702  12.380  10.218   5.614  0.2509  0.6495 -0.4860
41551SOL    HW131703  12.475  10.223   5.621  0.1967  0.7299  0.2374
41551SOL    HW231704  12.351  10.191   5.701 -0.1794 -2.4225 -1.4831
41552SOL     OW31705   1.577   9.642   5.637  0.0793  0.1722 -0.2591
41552SOL    HW131706   1.606   9.605   5.553 -1.1325 -1.2338 -0.1089
41552SOL    HW231707   1.581   9.737   5.624  2.2122  0.0267 -1.0648
41553SOL     OW31708   7.913  11.456   0.325 -0.1591  0.6500  0.3882
41553SOL    HW131709   7.899  11.470   0.418 -0.2465  0.1975  0.4481
41553SOL    HW231710   7.967  11.530   0.297 -1.0398  1.3666  0.5589
41554SOL     OW31711  11.857   0.316   1.461  0.3362  0.2251 -0.5098
41554SOL    HW131712  11.829   0.397   1.503 -0.0105 -0.2791  0.2561
41554SOL    HW231713  11.952   0.314   1.472  0.1417 -0.4723  1.3489
41555SOL     OW31714  11.860  10.561   4.823  0.5775 -0.3581  0.3884
41555SOL    HW131715  11.932  10.521   4.775  0.3920 -0.1374 -0.0804
41555SOL    HW231716  11.791  10.494   4.824  0.1184  0.0680 -0.7410
41556SOL     OW31717   8.524   4.769  11.780 -0.1455 -0.7070 -0.1888
41556SOL    HW131718   8.564   4.694  11.825  0.2185  0.2058  1.0368
41556SOL    HW231719   8.430   4.753  11.785 -0.1351 -0.4321  1.2649
41557SOL     OW31720   5.076   0.321   6.455  0.5032 -0.1592  0.3682
41557SOL    HW131721   5.083   0.348   6.364  0.6788 -1.0439  0.1072
41557SOL    HW231722   5.102   0.398   6.505  0.6517  0.2538 -0.3370
41558SOL     OW31723  12.068   6.979  12.401  0.3517 -0.4204 -0.6369
41558SOL    HW131724  12.123   6.904  12.423  0.1754 -0.1507  0.7889
41558SOL    HW231725  11.995   6.974  12.463 -1.1852 -0.6838 -2.3696
41559SOL     OW31726  12.517   4.348   0.269  0.7103  0.1417  0.4590
41559SOL    HW131727  12.502   4.441   0.250  2.8636  0.6269  0.7937
41559SOL    HW231728  12.553   4.312   0.188 -0.9672 -0.6787  0.0285
41560SOL     OW31729  11.545  11.516   1.019 -0.0932  0.0116  0.5030
41560SOL    HW131730  11.526  11.437   0.969  1.6333 -0.2267  0.1652
41560SOL    HW231731  11.580  11.577   0.954 -2.9251  1.7109  0.4331
41561SOL     OW31732   8.069   9.153   2.485  0.3365  0.3378  0.5235
41561SOL    HW131733   7.985   9.159   2.531  0.0967 -0.7002  0.2689
41561SOL    HW231734   8.135   9.151   2.554 -0.1108 -3.0052  1.0117
41562SOL     OW31735   6.587   1.378   7.447 -0.2097 -0.6282 -0.2982
41562SOL    HW131736   6.590   1.379   7.542  1.4005  0.2826 -0.3173
41562SOL    HW231737   6.679   1.383   7.420 -0.7177  1.3036 -1.8802
41563SOL     OW31738   4.475   5.503   3.317  0.0698  0.3318 -0.9198
41563SOL    HW131739   4.515   5.523   3.233  0.6588  0.9240 -0.5061
41563SOL    HW231740   4.400   5.562   3.323 -0.6673 -0.5206 -1.5316
41564SOL     OW31741   8.388   2.081   0.376  0.5359 -0.2817 -0.4513
41564SOL    HW131742   8.320   2.041   0.321 -1.7334  1.4680  0.9166
41564SOL    HW231743   8.448   2.121   0.314 -1.4778  0.9038 -1.7456
41565SOL     OW31744   5.189   5.430  12.395  0.1629 -0.0459 -0.1221
41565SOL    HW131745   5.188   5.407  12.488  0.3260  0.6989  0.0712
41565SOL    HW231746   5.146   5.515  12.391 -0.4730 -0.3948 -0.8275
41566SOL     OW31747   8.984  11.823   4.809 -0.8860 -0.1211  0.0381
41566SOL    HW131748   8.943  11.800   4.893 -0.8050 -0.9290 -0.1370
41566SOL    HW231749   8.989  11.741   4.761  0.3309  0.0790 -0.2213
41567SOL     OW31750   0.495   8.016  12.348 -0.4038  0.1797  0.1494
41567SOL    HW131751   0.441   8.023  12.427 -2.3458  1.8614 -1.2362
41567SOL    HW231752   0.500   7.922  12.331  0.7786 -0.3186  2.6558
41568SOL     OW31753   6.793   3.828   6.126  0.4650 -0.2084 -0.0087
41568SOL    HW131754   6.858   3.777   6.174  0.9509  1.2077  0.9088
41568SOL    HW231755   6.842   3.871   6.056  0.1258 -0.7052 -0.5623
41569SOL     OW31756   2.235   5.334   4.249  0.1444  0.2144  0.7751
41569SOL    HW131757   2.179   5.290   4.313 -1.6810  1.2374 -0.0325
41569SOL    HW231758   2.218   5.288   4.167 -0.0462  0.9627  0.3847
41570SOL     OW31759   2.496   1.754   9.415 -0.3722  0.1746  0.0557
41570SOL    HW131760   2.457   1.826   9.465  0.3674 -0.3369  1.4360
41570SOL    HW231761   2.429   1.686   9.414 -1.7139  1.3855 -2.6434
41571SOL     OW31762   6.114   9.816   8.113 -0.1232 -0.2128  0.0397
41571SOL    HW131763   6.037   9.834   8.059  0.4425 -1.0302 -1.0774
41571SOL    HW231764   6.080   9.805   8.201 -1.3094 -0.8037 -0.4794
41572SOL     OW31765  11.983   3.190   0.062  0.6651  0.1841 -0.1948
41572SOL    HW131766  11.987   3.234  -0.022 -0.2911  1.4042  0.3808
41572SOL    HW231767  11.936   3.109   0.044 -1.4967  1.4260 -0.4590
41573SOL     OW31768  12.558   2.510  10.273  0.5716 -0.0685 -0.4517
41573SOL    HW131769  12.619   2.517  10.200  0.3249  0.3167 -0.6223
41573SOL    HW231770  12.535   2.600  10.294  1.4344 -0.1032  0.7770
41574SOL     OW31771  10.054   3.309   4.994  0.7424  0.0284  0.5153
41574SOL    HW131772   9.968   3.266   4.998  0.6856  0.0613 -0.2053
41574SOL    HW231773  10.106   3.265   5.062  0.7732 -1.3833 -0.3776
41575SOL     OW31774   8.455   8.336   8.143  0.2780 -0.3089 -0.0282
41575SOL    HW131775   8.529   8.275   8.145  1.9431  1.5527 -1.1319
41575SOL    HW231776   8.476   8.401   8.210 -1.2196 -0.6196  0.7893
41576SOL     OW31777  10.703  10.851   7.279 -0.3109  0.4567 -0.3328
41576SOL    HW131778  10.726  10.806   7.197 -1.7844  0.0118 -0.5307
41576SOL    HW231779  10.727  10.788   7.348 -0.4029  0.2396 -0.4973
41577SOL     OW31780   0.040   3.532   9.771 -0.2607 -0.2523  0.0765
41577SOL    HW131781   0.088   3.581   9.838 -0.9575 -1.1037  1.2103
41577SOL    HW231782   0.074   3.443   9.778 -1.0796 -0.5710 -0.0117
41578SOL     OW31783   1.860   1.144   1.788 -0.5428  0.1870 -0.7712
41578SOL    HW131784   1.938   1.102   1.751  0.1387  0.6037  0.1836
41578SOL    HW231785   1.814   1.073   1.833  0.0799  0.2338 -0.0395
41579SOL     OW31786   2.583   4.890  11.183  0.2124  0.2167 -0.1174
41579SOL    HW131787   2.616   4.977  11.162  0.9868 -0.0647 -0.1163
41579SOL    HW231788   2.602   4.879  11.276  0.8401 -0.2467 -0.2891
41580SOL     OW31789   6.755   9.000   2.003 -0.0565 -0.2331  0.0834
41580SOL    HW131790   6.667   9.035   2.008  0.0932  1.2189 -3.9061
41580SOL    HW231791   6.745   8.916   1.958  0.6172  0.4542 -1.4097
41581SOL     OW31792  10.049   9.290   0.971 -0.1323  0.2646  0.0339
41581SOL    HW131793   9.968   9.241   0.978 -0.2972  0.5661  0.2719
41581SOL    HW231794  10.055   9.338   1.053  0.7499 -0.4564  0.3991
41582SOL     OW31795   6.216   3.608   0.197  0.7696 -0.2544  0.0116
41582SOL    HW131796   6.299   3.642   0.232  1.4329 -0.8518 -0.9257
41582SOL    HW231797   6.149   3.663   0.237  1.5799 -0.1091  1.2178
41583SOL     OW31798   7.368   5.667  10.605 -0.2363  0.4701 -0.1043
41583SOL    HW131799   7.293   5.726  10.610 -0.2953  0.3092  2.7742
41583SOL    HW231800   7.330   5.579  10.606 -0.0915  0.3027 -2.9054
41584SOL     OW31801  12.469   2.524   1.328 -0.3713 -0.4055 -0.0237
41584SOL    HW131802  12.508   2.611   1.324 -0.3444 -0.3696  0.9246
41584SOL    HW231803  12.539   2.465   1.300 -0.1661 -0.1883  0.0293
41585SOL     OW31804   5.663   8.433   4.325  0.2713 -0.9345  0.4097
41585SOL    HW131805   5.585   8.381   4.309  0.2390 -0.7700 -0.0002
41585SOL    HW231806   5.688   8.465   4.238  0.1146 -0.0160  0.6887
41586SOL     OW31807   4.905   3.388   6.683  0.1281 -0.4462  0.1728
41586SOL    HW131808   4.914   3.389   6.778  1.6211 -2.6494  0.1209
41586SOL    HW231809   4.822   3.342   6.667 -0.0804 -0.1515  0.3808
41587SOL     OW31810   9.164   0.502  11.759 -0.7861 -0.4598  0.2409
41587SOL    HW131811   9.094   0.563  11.737 -0.5350 -0.1124  0.3875
41587SOL    HW231812   9.134   0.458  11.838 -0.7004 -0.0739  0.4926
41588SOL     OW31813   9.292  12.498   7.377 -0.6100 -0.1771 -0.8543
41588SOL    HW131814   9.287  12.407   7.406 -0.4029 -0.2630 -1.0908
41588SOL    HW231815   9.262  12.548   7.453  2.7390 -0.2046  0.6421
41589SOL     OW31816   3.380   3.614   5.135 -0.6818 -0.3240 -0.0337
41589SOL    HW131817   3.454   3.674   5.130 -1.4175  0.8651  1.9682
41589SOL    HW231818   3.305   3.666   5.108 -1.0225 -1.0842 -0.6035
41590SOL     OW31819  10.060   2.965  10.681 -0.6337  0.5195 -0.7061
41590SOL    HW131820  10.013   3.002  10.606 -1.1957  0.8839 -0.1804
41590SOL    HW231821   9.994   2.912  10.726 -0.4286  0.6903 -0.2038
41591SOL     OW31822   2.795   0.325   6.312 -0.0037 -0.0766 -0.3293
41591SOL    HW131823   2.883   0.317   6.274  0.1873 -0.1264  0.1172
41591SOL    HW231824   2.804   0.390   6.381 -0.3970  0.1663 -0.5051
41592SOL     OW31825   5.168  12.523   8.725 -0.2554  0.2339 -0.0236
41592SOL    HW131826   5.074  12.509   8.741 -0.5859  2.5662  0.3927
41592SOL    HW231827   5.211  12.447   8.766 -1.8875 -0.4237  0.5569
41593SOL     OW31828   2.841   0.132  11.701  0.4125 -0.4044  0.2650
41593SOL    HW131829   2.807   0.059  11.753  1.4129 -0.3627  1.0209
41593SOL    HW231830   2.784   0.206  11.721  0.2877 -0.6045  0.6489
41594SOL     OW31831   7.974  11.658   6.666 -0.3561 -0.2328  0.2978
41594SOL    HW131832   7.994  11.751   6.663 -0.0504 -0.2907  0.4401
41594SOL    HW231833   8.046  11.617   6.618  1.0482 -0.6321  2.5746
41595SOL     OW31834  11.907  11.414   3.241 -0.6712 -0.3851  0.4382
41595SOL    HW131835  11.825  11.377   3.273  1.1620 -2.2177  3.5140
41595SOL    HW231836  11.970  11.342   3.249  1.2768  0.9280 -1.8823
41596SOL     OW31837   6.431   4.877  12.462 -0.3528 -0.6131  0.7539
41596SOL    HW131838   6.466   4.849  12.377 -0.8363 -2.0617  1.0091
41596SOL    HW231839   6.348   4.831  12.470 -0.4837 -0.2095  1.8640
41597SOL     OW31840   7.511   9.372   9.236 -0.3101  0.4424 -0.3830
41597SOL    HW131841   7.544   9.459   9.259  1.8560 -0.9909  2.6962
41597SOL    HW231842   7.448   9.388   9.166 -0.5385  4.5361  0.4947
41598SOL     OW31843  11.454  11.875  11.585 -0.3749  0.0742 -0.0531
41598SOL    HW131844  11.494  11.808  11.530 -1.8952 -2.3444  1.5888
41598SOL    HW231845  11.373  11.898  11.540 -0.0232  0.5511 -0.4429
41599SOL     OW31846   9.333   5.952   7.823 -0.0844 -0.1635 -0.2953
41599SOL    HW131847   9.239   5.970   7.823  0.1597  1.2009 -1.2847
41599SOL    HW231848   9.358   5.951   7.916 -0.9941 -0.1890 -0.0463
41600SOL     OW31849   9.252   0.393   8.936 -0.6608 -0.0874  0.2317
41600SOL    HW131850   9.298   0.423   9.014  0.1112 -0.3122 -0.1243
41600SOL    HW231851   9.159   0.399   8.959 -0.4433 -0.2786  1.2012
41601SOL     OW31852   7.434   3.602  11.181 -0.2261 -0.4971 -0.2548
41601SOL    HW131853   7.440   3.540  11.108  1.2365 -0.7401  0.0450
41601SOL    HW231854   7.515   3.653  11.176 -0.0210 -0.6328  1.3011
41602SOL     OW31855   2.751   8.934   3.191 -0.5819 -0.2875  0.4149
41602SOL    HW131856   2.797   8.975   3.118 -0.3860  0.1977  0.8113
41602SOL    HW231857   2.686   8.877   3.148 -0.2871 -0.2192 -0.1376
41603SOL     OW31858  11.247   3.798   4.605 -0.1874  0.0076  0.0142
41603SOL    HW131859  11.335   3.764   4.616 -0.0558  0.0007 -1.0090
41603SOL    HW231860  11.230   3.792   4.511 -1.4078 -0.3171  0.2393
41604SOL     OW31861   6.412   8.413   9.861  0.0195  0.1406  0.1211
41604SOL    HW131862   6.355   8.466   9.917  0.0382  0.9977 -0.6642
41604SOL    HW231863   6.356   8.389   9.787  0.5422  0.5881 -0.4195
41605SOL     OW31864   5.461  11.530   2.527 -0.3845 -0.1106  0.2078
41605SOL    HW131865   5.403  11.572   2.463  0.5756 -0.8239 -1.1826
41605SOL    HW231866   5.543  11.578   2.521  1.2097 -2.8467 -2.4292
41606SOL     OW31867   1.196   1.838   1.448  0.3048 -0.4434  0.3410
41606SOL    HW131868   1.250   1.799   1.517 -1.9114 -0.4899  2.1836
41606SOL    HW231869   1.204   1.932   1.462  0.3442 -0.4334  0.2516
41607SOL     OW31870   4.758   2.827   2.513  0.1835 -0.1015 -0.0583
41607SOL    HW131871   4.726   2.896   2.570 -0.6173  0.4307 -1.1268
41607SOL    HW231872   4.701   2.830   2.437  2.7238  0.8968 -2.0687
41608SOL     OW31873   2.481   9.578   5.926  0.8362  0.1602  0.0471
41608SOL    HW131874   2.425   9.540   5.994  2.7985  0.2966  1.8223
41608SOL    HW231875   2.453   9.669   5.922  0.0401 -0.0772 -0.0486
41609SOL     OW31876   3.647   7.612   2.800 -0.0901 -0.5429  0.1901
41609SOL    HW131877   3.675   7.550   2.732 -1.7806 -1.0097 -0.1209
41609SOL    HW231878   3.572   7.569   2.842 -0.1190  0.4864  1.2293
41610SOL     OW31879   7.409   1.936   1.092 -0.2010  0.2983 -0.2031
41610SOL    HW131880   7.387   1.961   1.003 -0.0799 -0.7087 -0.5317
41610SOL    HW231881   7.336   1.882   1.121  0.9683 -1.6374 -0.6902
41611SOL     OW31882   5.878   6.346   8.600 -0.3573  0.3105 -0.0202
41611SOL    HW131883   5.848   6.322   8.512  1.6723  1.0509 -1.0010
41611SOL    HW231884   5.960   6.297   8.611  0.0691  1.1966  0.9226
41612SOL     OW31885   5.383  11.570   4.319 -0.0517  0.4936 -0.5408
41612SOL    HW131886   5.421  11.602   4.401  2.7609 -1.9752 -0.6629
41612SOL    HW231887   5.452  11.585   4.254 -1.1842  0.0810 -1.8726
41613SOL     OW31888   3.556  11.721  10.421  0.0499  0.0972  0.3903
41613SOL    HW131889   3.602  11.650  10.466 -0.6032 -0.2537  0.5104
41613SOL    HW231890   3.466  11.716  10.453 -0.7515 -0.9354 -1.8004
41614SOL     OW31891   9.150   1.491  10.047 -0.4050 -1.0796 -0.2915
41614SOL    HW131892   9.145   1.411   9.995 -0.2389 -0.4233 -1.3289
41614SOL    HW231893   9.102   1.469  10.128 -1.2957 -1.8756 -1.0094
41615SOL     OW31894   1.287   4.245  11.605  0.0198 -0.0729 -0.0322
41615SOL    HW131895   1.336   4.207  11.678 -0.5590  0.2460  0.5325
41615SOL    HW231896   1.286   4.176  11.538  1.3330 -0.0397 -0.1059
41616SOL     OW31897   6.007   7.847   1.512  0.5274 -0.0667 -0.0021
41616SOL    HW131898   5.995   7.846   1.607 -0.7384  3.3643  0.0108
41616SOL    HW231899   6.102   7.858   1.500  0.6359  0.0576  0.8975
41617SOL     OW31900   2.465   9.057   2.807  0.0015 -0.1257 -0.2790
41617SOL    HW131901   2.456   9.063   2.712 -1.5555 -0.1408 -0.1529
41617SOL    HW231902   2.448   8.965   2.827 -0.2740 -0.0020  0.0660
41618SOL     OW31903   1.265   8.223   6.313  0.7173  0.2189  0.2191
41618SOL    HW131904   1.298   8.279   6.242 -0.8527 -0.0437 -0.7755
41618SOL    HW231905   1.188   8.181   6.276  0.0688 -0.2320  1.9772
41619SOL     OW31906  11.243   1.557   4.147 -0.5092 -0.0856  0.4160
41619SOL    HW131907  11.164   1.567   4.094 -0.0039  0.4756 -0.2519
41619SOL    HW231908  11.217   1.586   4.235 -1.2728 -0.7373  0.4136
41620SOL     OW31909   4.533   5.454   5.586 -0.9218  0.0332 -0.0066
41620SOL    HW131910   4.570   5.486   5.504  1.2619  2.1014  1.6485
41620SOL    HW231911   4.491   5.531   5.626 -2.2132 -0.9979  0.7156
41621SOL     OW31912  12.513   4.204   9.984 -0.5213  0.0205  0.2005
41621SOL    HW131913  12.499   4.149  10.061 -1.7923 -0.4563 -0.3392
41621SOL    HW231914  12.587   4.163   9.939  0.7285  0.7389  1.5145
41622SOL     OW31915   5.033   8.752   5.892 -0.3569 -0.7803 -0.3855
41622SOL    HW131916   5.002   8.663   5.872 -0.1317 -1.5469  2.3388
41622SOL    HW231917   5.123   8.753   5.861  0.6436 -2.6066  2.1261
41623SOL     OW31918   5.206   2.513  10.926 -0.1187 -0.1295 -0.1773
41623SOL    HW131919   5.171   2.426  10.907 -1.5468  0.0684  1.3329
41623SOL    HW231920   5.266   2.499  10.999 -0.8953  0.2271  0.5427
41624SOL     OW31921   2.043   9.428   4.675  0.0817  0.2216 -0.0161
41624SOL    HW131922   2.139   9.428   4.674  0.0860  0.6993 -0.0136
41624SOL    HW231923   2.018   9.362   4.611  0.4132  0.8332 -0.7927
41625SOL     OW31924   2.774  10.447   2.774 -0.2102 -0.3883 -0.1946
41625SOL    HW131925   2.846  10.413   2.827 -0.2866  0.8939  0.7613
41625SOL    HW231926   2.807  10.528   2.736 -2.0635  1.9920  2.8202
41626SOL     OW31927   4.510  10.076   1.515 -0.6243  0.4506  0.1312
41626SOL    HW131928   4.580  10.014   1.537 -0.2120  0.5577 -0.8213
41626SOL    HW231929   4.435  10.021   1.492 -1.7214  0.3056  3.5401
41627SOL     OW31930   7.391   3.682   1.093 -0.1155 -0.4474 -0.2288
41627SOL    HW131931   7.434   3.739   1.030 -0.5810  0.0527 -0.1015
41627SOL    HW231932   7.361   3.741   1.162  0.2701 -0.9743  0.4000
41628SOL     OW31933  12.353   5.925   5.758  0.4393  0.1250  0.5702
41628SOL    HW131934  12.390   5.837   5.771  0.3003 -0.0069  0.1024
41628SOL    HW231935  12.268   5.908   5.717  0.8187  0.5060 -0.4221
41629SOL     OW31936   4.976   9.738   7.519  1.0705  0.4615  0.4468
41629SOL    HW131937   4.993   9.831   7.535 -0.7252  0.8164  0.5141
41629SOL    HW231938   4.892   9.737   7.475  1.0896 -1.1508  0.4116
41630SOL     OW31939   0.868   0.460   6.747  0.7025 -0.4663 -0.0615
41630SOL    HW131940   0.952   0.506   6.740  1.1588 -1.0904  0.9851
41630SOL    HW231941   0.804   0.529   6.765  1.2829 -0.1568  0.8802
41631SOL     OW31942   9.644   2.475  11.469  0.3358 -0.1213  0.3916
41631SOL    HW131943   9.550   2.484  11.481  0.5895  1.7070  1.4201
41631SOL    HW231944   9.654   2.407  11.402 -1.7264  0.1494 -0.2534
41632SOL     OW31945   8.435   3.286   1.211 -0.0167  0.2684  0.3130
41632SOL    HW131946   8.512   3.267   1.264  0.1933 -0.0409 -0.0916
41632SOL    HW231947   8.404   3.370   1.243 -0.7212 -0.5496  1.8716
41633SOL     OW31948   3.254  11.597   4.937  0.1449 -0.6139 -0.7690
41633SOL    HW131949   3.335  11.637   4.907  0.4662 -0.3024  0.4504
41633SOL    HW231950   3.228  11.538   4.866  1.0269 -0.1519 -1.4891
41634SOL     OW31951  11.622   3.587  12.080 -0.2638 -0.6093  0.3429
41634SOL    HW131952  11.614   3.680  12.098  0.5272 -0.1630 -1.4344
41634SOL    HW231953  11.578   3.575  11.996  1.6246 -1.3928 -0.5779
41635SOL     OW31954  10.846   5.054   5.585 -0.5864  0.2470  0.0708
41635SOL    HW131955  10.755   5.040   5.559 -0.6089  1.4438 -0.5550
41635SOL    HW231956  10.846   5.139   5.628 -0.2587 -0.9821  2.6852
41636SOL     OW31957   4.975   1.373   8.576  0.8975 -0.2919 -0.3800
41636SOL    HW131958   5.020   1.389   8.659  0.7540  1.8829 -0.6556
41636SOL    HW231959   5.045   1.354   8.514  1.3354  1.3532 -0.4367
41637SOL     OW31960  12.303   7.239   3.014 -0.6752  0.7249 -0.5117
41637SOL    HW131961  12.384   7.287   3.030  1.1018 -1.7099 -1.6037
41637SOL    HW231962  12.280   7.200   3.099  0.2230  0.1575 -0.5161
41638SOL     OW31963  11.014   9.582   0.897  0.3265 -0.5832 -0.0958
41638SOL    HW131964  10.927   9.543   0.907 -0.4168  0.6935 -1.3171
41638SOL    HW231965  10.999   9.676   0.904  1.5169 -0.3125 -0.9325
41639SOL     OW31966   7.787   1.731   9.065  0.4081 -0.2040  0.2796
41639SOL    HW131967   7.806   1.659   9.005  0.5605  1.1552 -1.3961
41639SOL    HW231968   7.775   1.689   9.150 -0.9350 -2.3686 -0.8708
41640SOL     OW31969   0.283   5.118   4.930 -0.1248  0.3484  0.3135
41640SOL    HW131970   0.353   5.171   4.968  2.1939 -0.5956 -2.2625
41640SOL    HW231971   0.302   5.029   4.959  0.4831 -0.0775 -1.2777
41641SOL     OW31972   2.517   0.575   7.269  0.0925  0.9608 -0.0967
41641SOL    HW131973   2.461   0.568   7.192 -1.4975  0.3970  1.0757
41641SOL    HW231974   2.585   0.509   7.255 -1.2329 -0.4262 -0.1830
41642SOL     OW31975   8.548   8.723   0.236 -0.2220 -0.1317 -0.0517
41642SOL    HW131976   8.559   8.696   0.145 -0.3607  1.1319 -0.4574
41642SOL    HW231977   8.559   8.642   0.286  2.6061 -0.4007 -0.9597
41643SOL     OW31978   8.847   3.606   4.877  0.0495  0.0243  0.4493
41643SOL    HW131979   8.861   3.546   4.804  0.6700 -0.8152  1.2340
41643SOL    HW231980   8.903   3.681   4.857  0.3707 -0.2860  0.1631
41644SOL     OW31981  11.606   6.853   6.921 -0.3859  0.0979 -0.2326
41644SOL    HW131982  11.632   6.901   7.000 -0.7377 -1.0290  0.5968
41644SOL    HW231983  11.522   6.814   6.944  0.6383 -2.3004 -0.2241
41645SOL     OW31984  10.057   4.555   5.782  0.1631  0.2076  0.0874
41645SOL    HW131985  10.014   4.497   5.719  0.2587  0.3511 -0.1125
41645SOL    HW231986  10.057   4.641   5.739 -0.4489  0.4680  0.6020
41646SOL     OW31987   3.119   7.661   1.225 -0.2567  0.1781 -0.1312
41646SOL    HW131988   3.032   7.623   1.236 -0.4433  0.2652 -1.2160
41646SOL    HW231989   3.102   7.753   1.202  0.1338  0.2537 -0.1257
41647SOL     OW31990   1.010  11.618   6.233 -0.4897 -0.3994 -0.4293
41647SOL    HW131991   1.076  11.587   6.171  0.3516  0.3398  0.0741
41647SOL    HW231992   0.931  11.630   6.180  0.2676  0.4430 -1.4204
41648SOL     OW31993   4.350   0.930  10.848  0.1886  0.7518 -0.1568
41648SOL    HW131994   4.401   0.969  10.919 -2.2270  0.4993  1.8333
41648SOL    HW231995   4.318   1.005  10.797  1.2930  0.9673 -0.5595
41649SOL     OW31996   4.442  12.136  10.004 -0.0028 -0.1655 -0.1279
41649SOL    HW131997   4.456  12.099  10.091  4.0801  1.2222 -0.0047
41649SOL    HW231998   4.413  12.226  10.020  1.1334  0.2165 -0.1508
41650SOL     OW31999   2.764  10.779   9.440  0.3706  0.6102 -0.3996
41650SOL    HW132000   2.802  10.866   9.451  2.1995 -0.3560  1.6720
41650SOL    HW232001   2.669  10.794   9.441  0.5979  2.4259  1.8091
41651SOL     OW32002  11.407  12.044   9.632 -0.4043 -0.2194 -0.2327
41651SOL    HW132003  11.497  12.075   9.630 -0.5360  0.2355  0.3826
41651SOL    HW232004  11.412  11.954   9.663 -0.1017 -0.4694 -0.9862
41652SOL     OW32005   9.551   6.209  11.016  0.0590 -0.1827 -0.1106
41652SOL    HW132006   9.503   6.185  11.095  1.6652 -0.8030  0.7280
41652SOL    HW232007   9.641   6.181  11.033  0.5699  0.1906 -1.9380
41653SOL     OW32008   1.752   0.711   7.907  0.1340  0.2983 -0.0046
41653SOL    HW132009   1.729   0.675   7.992 -1.9672  1.5791  0.0196
41653SOL    HW232010   1.749   0.806   7.919  2.1434  0.5352 -0.9373
41654SOL     OW32011   8.425   0.538   3.880  0.1203  0.2233  0.7698
41654SOL    HW132012   8.448   0.549   3.972 -0.2513 -1.5813  1.1122
41654SOL    HW232013   8.505   0.505   3.839  0.0795  0.3575  0.5816
41655SOL     OW32014   2.640  12.064   8.554 -0.1209  0.5506 -0.0822
41655SOL    HW132015   2.658  12.002   8.484  0.6494 -1.2276  1.5735
41655SOL    HW232016   2.704  12.134   8.541  2.2843 -1.3592  0.6314
41656SOL     OW32017   8.894  10.275   8.023 -0.3516  0.4839 -0.3643
41656SOL    HW132018   8.959  10.314   8.082 -1.4078  1.2933  0.3065
41656SOL    HW232019   8.816  10.331   8.033 -1.6570 -1.3097  0.0027
41657SOL     OW32020   8.562   7.538  11.950 -0.1945 -0.3055 -0.5870
41657SOL    HW132021   8.580   7.479  12.023 -0.3381  1.1687  0.6863
41657SOL    HW232022   8.563   7.626  11.989  0.0746  0.5531 -2.4276
41658SOL     OW32023   3.083   6.890  11.308 -0.1289 -0.0411  0.5931
41658SOL    HW132024   3.118   6.976  11.285  0.1116 -0.2579  0.1335
41658SOL    HW232025   3.013   6.908  11.371 -1.0340  0.5964 -0.5658
41659SOL     OW32026   5.146   0.039   1.835  0.3092  0.1058  0.5136
41659SOL    HW132027   5.057   0.071   1.851 -0.1397 -0.2148 -1.1466
41659SOL    HW232028   5.199   0.081   1.902 -0.7884  1.8132  0.3708
41660SOL     OW32029   5.201  11.421   6.979  0.3363  0.2068 -0.0541
41660SOL    HW132030   5.215  11.515   6.971 -0.1709  0.1857 -1.3948
41660SOL    HW232031   5.274  11.391   7.033  1.7966  1.0565 -1.4524
41661SOL     OW32032   8.163   2.361   0.858  0.0929  0.2519  0.1087
41661SOL    HW132033   8.188   2.336   0.769  0.0149  1.4738 -0.2810
41661SOL    HW232034   8.087   2.419   0.846 -0.1074  0.1837  0.9891
41662SOL     OW32035   6.280   2.141  10.518  0.5447  0.0007  0.0168
41662SOL    HW132036   6.217   2.192  10.569 -0.9611 -0.3800 -1.3682
41662SOL    HW232037   6.269   2.173  10.428 -1.1335 -3.2481 -1.0942
41663SOL     OW32038  11.809   1.374   3.312  0.4115  0.0990 -0.4531
41663SOL    HW132039  11.764   1.292   3.336 -0.4372  0.0285 -2.1616
41663SOL    HW232040  11.782   1.436   3.379 -0.7984 -0.4359 -0.4182
41664SOL     OW32041   2.627   4.925  10.405 -0.0165 -0.1990 -0.1148
41664SOL    HW132042   2.711   4.967  10.422 -0.0085 -0.2811  0.0524
41664SOL    HW232043   2.598   4.893  10.491  0.2964 -1.1318 -0.3485
41665SOL     OW32044   3.648   4.313   1.912  0.5560  0.6207 -0.5629
41665SOL    HW132045   3.658   4.219   1.896  1.0195  0.5511  0.0850
41665SOL    HW232046   3.646   4.353   1.825 -0.0303 -0.0248 -0.8504
41666SOL     OW32047   6.985   6.257   8.701  0.1044  0.4542 -0.2314
41666SOL    HW132048   7.072   6.298   8.704  0.0587  0.5324  0.0987
41666SOL    HW232049   7.003   6.163   8.704  0.1714  0.4749  0.1456
41667SOL     OW32050   2.885  12.011   3.490 -0.3386  0.3198  0.8533
41667SOL    HW132051   2.816  12.061   3.534 -0.8568  0.1009  0.3012
41667SOL    HW232052   2.906  12.063   3.413  1.9570  1.7179  2.3132
41668SOL     OW32053   7.396  10.548  11.969  0.6168  0.5243 -0.0951
41668SOL    HW132054   7.455  10.551  12.044  2.8828 -0.2032 -1.7369
41668SOL    HW232055   7.404  10.634  11.928 -1.7382  1.4604  1.1837
41669SOL     OW32056   5.856   1.662   0.824  0.0549  0.8553  0.3928
41669SOL    HW132057   5.785   1.726   0.819 -1.7302 -0.7583  2.8686
41669SOL    HW232058   5.883   1.648   0.733 -2.2273  2.1567 -0.5496
41670SOL     OW32059  10.540  11.953  10.015 -0.6469 -0.1055 -0.5902
41670SOL    HW132060  10.523  11.939  10.108 -0.7777  1.1152 -0.4131
41670SOL    HW232061  10.525  11.868   9.975 -0.6832 -0.6271  0.4886
41671SOL     OW32062   4.303   7.895   3.268 -0.3648  0.3198 -0.2801
41671SOL    HW132063   4.226   7.923   3.316 -0.2506  0.3079 -0.0899
41671SOL    HW232064   4.328   7.971   3.215  0.1398  0.6880  0.4810
41672SOL     OW32065   8.024   2.068  11.173 -0.1125 -0.1693  0.4419
41672SOL    HW132066   8.024   2.097  11.265  1.2684 -1.2123  0.8088
41672SOL    HW232067   7.975   2.136  11.127  0.4230  1.1588  1.7291
41673SOL     OW32068   0.474   3.345  12.237 -0.3332  0.1206 -0.0045
41673SOL    HW132069   0.526   3.268  12.259 -0.8754 -0.7260 -1.5811
41673SOL    HW232070   0.519   3.417  12.281 -0.2343 -1.1507  2.1265
41674SOL     OW32071  11.957   9.782   4.729  0.6089 -0.0215 -0.3051
41674SOL    HW132072  11.920   9.721   4.793  0.6672  2.2376  1.9867
41674SOL    HW232073  12.040   9.741   4.703 -0.4073 -2.0094 -0.6548
41675SOL     OW32074   0.611  10.431   7.461 -0.1166  0.1130  0.0061
41675SOL    HW132075   0.527  10.429   7.506 -0.0282  0.4131  0.1859
41675SOL    HW232076   0.596  10.485   7.383  0.1813  1.0559  0.5944
41676SOL     OW32077  11.420   4.329   0.082  0.0923 -0.8517  0.2769
41676SOL    HW132078  11.384   4.317   0.170 -2.1931 -0.0240 -0.4725
41676SOL    HW232079  11.358   4.283   0.025  0.1672  0.6524 -1.0873
41677SOL     OW32080  12.221   3.825  10.130 -1.1541  0.4122 -0.1392
41677SOL    HW132081  12.239   3.887  10.200 -1.0065  1.1305 -0.8026
41677SOL    HW232082  12.298   3.768  10.127 -0.6567  1.0950 -0.4646
41678SOL     OW32083   0.326   6.442  11.425 -0.1095  0.2299 -0.2716
41678SOL    HW132084   0.271   6.424  11.349  0.2313 -0.2413 -0.4084
41678SOL    HW232085   0.265   6.447  11.499 -0.1969 -1.7900 -0.1763
41679SOL     OW32086   9.457   2.619  10.231 -0.3493 -0.6526 -0.3838
41679SOL    HW132087   9.532   2.561  10.247 -0.0922 -0.3677 -0.5549
41679SOL    HW232088   9.460   2.684  10.301 -0.4693 -0.6726 -0.3590
41680SOL     OW32089   6.939  10.008   3.090  0.6896  0.4831 -0.1088
41680SOL    HW132090   6.933   9.985   3.183  0.7862  1.5769  0.1915
41680SOL    HW232091   7.026   9.980   3.064  0.5709 -0.0546  0.0652
41681SOL     OW32092   6.976   1.878   2.766  0.0941  0.2664 -0.0951
41681SOL    HW132093   6.991   1.960   2.813 -1.0485 -0.7034  2.1274
41681SOL    HW232094   6.901   1.838   2.811  0.1692 -1.6665 -1.5579
41682SOL     OW32095   1.892   8.586   7.779 -0.1136 -0.2535  0.7638
41682SOL    HW132096   1.887   8.595   7.684 -0.4254 -0.3716  0.7689
41682SOL    HW232097   1.802   8.595   7.809 -0.1344 -1.0813  0.9713
41683SOL     OW32098  11.226  10.968   5.759  0.1718 -0.0368  0.2645
41683SOL    HW132099  11.200  11.048   5.806 -1.1033  2.2004 -3.7734
41683SOL    HW232100  11.299  10.995   5.704  0.9860 -2.2429  0.1717
41684SOL     OW32101   9.582   1.530   7.129  0.2848 -0.2758 -0.2354
41684SOL    HW132102   9.559   1.609   7.080  0.3986 -0.8242 -1.1948
41684SOL    HW232103   9.672   1.511   7.103 -0.8953 -2.8169 -3.0027
41685SOL     OW32104   4.408   4.040   4.126  0.0665 -0.1799  0.0044
41685SOL    HW132105   4.320   4.039   4.089  0.1532 -3.2695 -0.3529
41685SOL    HW232106   4.466   4.059   4.052 -0.1860  0.4548 -0.0365
41686SOL     OW32107  11.862   9.672   7.013 -0.5484 -0.1809  0.3415
41686SOL    HW132108  11.944   9.698   6.972 -0.6592 -0.0599  0.1906
41686SOL    HW232109  11.796   9.684   6.944 -0.5539 -1.2112  0.1405
41687SOL     OW32110   1.917   8.269   5.514 -0.2364 -0.3305 -1.0273
41687SOL    HW132111   1.941   8.356   5.546  1.8858 -1.7366  1.5997
41687SOL    HW232112   1.972   8.256   5.436  1.7838 -0.4002  0.3248
41688SOL     OW32113   0.652   0.124   7.724  0.2165  0.1602  0.0747
41688SOL    HW132114   0.615   0.202   7.766 -2.7391 -0.6706 -0.7028
41688SOL    HW232115   0.636   0.137   7.630  0.4332 -0.9959 -0.1388
41689SOL     OW32116   7.268   0.715   5.446  0.2762  0.4908  0.1536
41689SOL    HW132117   7.178   0.719   5.414  0.4761 -0.2236 -0.5223
41689SOL    HW232118   7.290   0.805   5.467 -0.5500  0.6916  0.2004
41690SOL     OW32119   8.523  11.141  12.264  0.1184  0.1973  0.0541
41690SOL    HW132120   8.578  11.120  12.340  0.2112 -0.5495 -0.2047
41690SOL    HW232121   8.434  11.127  12.294  0.1868 -0.9174 -0.1876
41691SOL     OW32122   0.119   7.227  12.420 -0.4751 -0.1305 -0.0259
41691SOL    HW132123   0.054   7.273  12.367  0.0152  1.3623  0.6039
41691SOL    HW232124   0.203   7.255  12.385 -0.0886  1.9736  2.2671
41692SOL     OW32125   7.181   9.183   8.883 -0.0466 -0.0049  0.1269
41692SOL    HW132126   7.099   9.185   8.932 -0.5873 -0.1636 -0.7493
41692SOL    HW232127   7.157   9.211   8.794  0.3979 -2.2311 -0.7532
41693SOL     OW32128  12.561   2.014  11.074 -0.5216  0.1219  0.0086
41693SOL    HW132129  12.522   2.018  10.987 -1.1009  1.5708  0.3116
41693SOL    HW232130  12.637   1.956  11.063 -0.6518  0.1833 -1.4278
41694SOL     OW32131  11.428   0.142   6.092 -0.5903  0.5205  0.2513
41694SOL    HW132132  11.492   0.116   6.026 -0.8594  0.4103  0.0350
41694SOL    HW232133  11.464   0.107   6.174 -0.5914  0.0847  0.0656
41695SOL     OW32134   4.214   6.747   0.615 -0.7651 -0.6786 -0.3790
41695SOL    HW132135   4.217   6.712   0.705 -0.4215 -1.2575 -0.6102
41695SOL    HW232136   4.302   6.782   0.601 -0.3982 -1.7748 -0.9460
41696SOL     OW32137  10.612   0.831   5.569 -0.4351 -0.4220 -0.3787
41696SOL    HW132138  10.669   0.792   5.502  0.4503 -0.4993  0.3993
41696SOL    HW232139  10.608   0.765   5.638 -0.8834 -0.1122 -0.1050
41697SOL     OW32140   9.385   7.874  11.293 -0.1992  0.0706  0.0422
41697SOL    HW132141   9.411   7.937  11.226  1.8029  0.0538  0.7334
41697SOL    HW232142   9.458   7.811  11.296 -1.5747 -1.5977  0.2354
41698SOL     OW32143  10.286  10.260  10.395 -0.5637  0.4655 -0.0137
41698SOL    HW132144  10.287  10.187  10.333 -0.2741  0.5887 -0.1554
41698SOL    HW232145  10.368  10.252  10.444 -0.9540  0.1549  0.6124
41699SOL     OW32146   2.253   4.959   1.673 -0.0372 -0.2338 -0.3162
41699SOL    HW132147   2.206   5.041   1.691 -3.3529 -1.4922 -2.1339
41699SOL    HW232148   2.294   4.974   1.588  1.4930  0.2839  0.4793
41700SOL     OW32149  10.351   7.268  10.268  0.8256  0.3800  0.4700
41700SOL    HW132150  10.375   7.243  10.179 -2.7361 -3.2355  0.1775
41700SOL    HW232151  10.315   7.356  10.260 -0.0405 -0.1042 -1.9005
41701SOL     OW32152  10.275   3.373   6.984 -0.1169  0.2844 -0.0408
41701SOL    HW132153  10.329   3.392   7.060 -0.2593 -0.2153  0.1888
41701SOL    HW232154  10.217   3.449   6.976 -1.7591 -0.6848  1.8139
41702SOL     OW32155   8.363   8.415  11.487  0.1319  0.3446  0.0298
41702SOL    HW132156   8.380   8.506  11.512  1.9806  0.1028 -0.1758
41702SOL    HW232157   8.449   8.382  11.460 -0.3504 -1.7053  0.8702
41703SOL     OW32158   8.911  11.467   6.881 -0.0209  0.1775 -0.6475
41703SOL    HW132159   8.829  11.430   6.847  0.3141 -0.7471 -0.5029
41703SOL    HW232160   8.889  11.556   6.906 -1.2196 -0.3438  0.2349
41704SOL     OW32161   3.585   3.568   2.043 -0.1690 -0.0022 -0.5918
41704SOL    HW132162   3.677   3.545   2.052 -0.2185  0.1529  0.4288
41704SOL    HW232163   3.537   3.489   2.066 -0.3001  0.3051  0.2360
41705SOL     OW32164   1.602   4.643   1.845 -0.3092  0.4660  0.4449
41705SOL    HW132165   1.623   4.586   1.771 -2.3513 -0.9550  0.8864
41705SOL    HW232166   1.684   4.691   1.862  1.5629 -2.3515  0.1010
41706SOL     OW32167   5.272   1.413   5.163 -0.3058 -0.2992  0.0455
41706SOL    HW132168   5.211   1.456   5.103 -0.6060  0.3887  0.8334
41706SOL    HW232169   5.223   1.338   5.197 -0.7036  0.2187  0.6322
41707SOL     OW32170   5.922   6.028   5.245 -0.7805  0.0599  0.1969
41707SOL    HW132171   5.868   6.092   5.199  0.2667  0.8596  0.0113
41707SOL    HW232172   5.918   5.949   5.191 -1.8458  0.0562  0.2626
41708SOL     OW32173   8.986   8.725  10.195 -0.2724 -1.4038 -0.2100
41708SOL    HW132174   9.002   8.750  10.104  1.4217 -0.3741  0.3301
41708SOL    HW232175   9.054   8.662  10.215 -0.6887 -1.6888  0.3313
41709SOL     OW32176   3.678  12.239   7.793 -0.2468 -0.7041 -0.3401
41709SOL    HW132177   3.714  12.323   7.820  0.7977 -1.1391 -0.3535
41709SOL    HW232178   3.754  12.187   7.767 -0.9477 -1.3902 -1.0731
41710SOL     OW32179   8.830   4.937   9.002 -0.3129  0.1336 -0.0888
41710SOL    HW132180   8.862   4.976   8.921 -1.0157  1.3136  0.1932
41710SOL    HW232181   8.765   4.873   8.974  0.9115 -0.9758 -0.5528
41711SOL     OW32182   0.150   1.202   8.979 -0.2957  0.2175  0.7571
41711SOL    HW132183   0.239   1.235   8.968 -0.0881 -0.1696  1.2322
41711SOL    HW232184   0.149   1.165   9.067 -0.6321 -0.6872  0.3873
41712SOL     OW32185   4.265   0.811   1.252 -0.2022  0.2957 -0.0420
41712SOL    HW132186   4.283   0.726   1.212  1.7513  0.1047  1.1148
41712SOL    HW232187   4.174   0.806   1.280 -0.0323 -1.5440  0.2732
41713SOL     OW32188   1.642   9.884   8.345 -0.2953  0.3571  0.2106
41713SOL    HW132189   1.628   9.793   8.320  1.6749 -0.1699  0.8571
41713SOL    HW232190   1.728   9.906   8.310 -1.3415  2.4965 -1.2473
41714SOL     OW32191  11.171   7.015  10.462 -0.0267 -0.1354  0.1023
41714SOL    HW132192  11.171   7.086  10.526 -0.3767 -0.8844  0.9541
41714SOL    HW232193  11.081   6.984  10.459 -0.2009  0.4143 -1.3806
41715SOL     OW32194   7.617  12.539   8.368  0.2349  0.1230  0.0728
41715SOL    HW132195   7.593  12.538   8.460 -1.9947  1.5954 -0.4034
41715SOL    HW232196   7.631  12.632   8.348 -1.1446  0.0525 -1.4364
41716SOL     OW32197   4.726   6.618  12.120 -0.1552  0.5042  0.4755
41716SOL    HW132198   4.762   6.623  12.209 -0.9684  0.5558  0.8083
41716SOL    HW232199   4.751   6.530  12.090 -0.0750  0.3974  0.8440
41717SOL     OW32200   3.431   5.340   8.949 -0.0809  0.3522  0.5166
41717SOL    HW132201   3.471   5.416   8.991 -1.3299  1.2270  0.1826
41717SOL    HW232202   3.504   5.292   8.911  0.5870  2.4900 -1.0723
41718SOL     OW32203   2.859   9.800   4.382 -0.4815  0.3945 -0.6516
41718SOL    HW132204   2.814   9.842   4.456  0.2662 -0.5730  0.3825
41718SOL    HW232205   2.859   9.707   4.403  1.7880  0.3331 -0.6990
41719SOL     OW32206   6.306   7.755   8.873  0.0520 -0.1828 -0.2243
41719SOL    HW132207   6.303   7.847   8.899 -1.2099 -0.0732 -0.6754
41719SOL    HW232208   6.214   7.729   8.866  0.3882 -1.4808 -0.1163
41720SOL     OW32209   5.486  10.290   5.813  0.0096 -0.7662  0.1801
41720SOL    HW132210   5.555  10.257   5.756  0.8833 -1.3716  1.5641
41720SOL    HW232211   5.460  10.373   5.772  0.5133 -1.2371 -1.1565
41721SOL     OW32212   9.809   6.187   9.694 -0.1451 -0.8613 -0.1329
41721SOL    HW132213   9.866   6.194   9.770 -1.5869  1.0458  0.8437
41721SOL    HW232214   9.727   6.153   9.728 -0.7591 -0.1291 -0.8502
41722SOL     OW32215   5.917  10.151  10.283 -0.6691 -0.0506  0.3475
41722SOL    HW132216   5.863  10.129  10.359  0.2508  0.1342  1.0626
41722SOL    HW232217   5.961  10.232  10.307 -0.5757  0.1609 -0.5014
41723SOL     OW32218   4.383   2.271   6.930 -0.5193 -0.2041 -0.0900
41723SOL    HW132219   4.377   2.180   6.961  1.6232 -1.0846 -1.9667
41723SOL    HW232220   4.373   2.264   6.835  1.6738  1.2283 -0.5025
41724SOL     OW32221   3.519   8.208   7.380 -0.3606  0.2567 -0.2169
41724SOL    HW132222   3.501   8.297   7.351  1.1384  0.5375 -0.3434
41724SOL    HW232223   3.584   8.175   7.319  0.0031 -0.5009  0.5534
41725SOL     OW32224   3.130   9.616   3.506 -0.1267  0.4817 -0.3100
41725SOL    HW132225   3.206   9.654   3.463 -0.4414 -0.1841 -1.4879
41725SOL    HW232226   3.162   9.534   3.545  0.1270  1.0184  0.6422
41726SOL     OW32227   6.894   2.305  11.161 -0.1974 -0.4527  0.1249
41726SOL    HW132228   6.824   2.241  11.153 -1.3886  0.7695  0.4296
41726SOL    HW232229   6.942   2.299  11.078 -0.8248 -1.0983 -0.1995
41727SOL     OW32230   0.524   7.046   1.073 -0.7313 -0.2068  0.0946
41727SOL    HW132231   0.513   6.977   1.138 -1.7251  0.3969  0.5847
41727SOL    HW232232   0.579   7.007   1.006  1.9435 -0.2924  2.1375
41728SOL     OW32233  10.265   8.086   3.918  0.8404  0.2394  0.2308
41728SOL    HW132234  10.262   8.026   3.843  0.1612  0.5962 -0.0422
41728SOL    HW232235  10.267   8.173   3.878  0.0051  0.4460  0.6181
41729SOL     OW32236  10.801   2.748   3.349 -0.5667 -0.1127  0.0382
41729SOL    HW132237  10.846   2.761   3.266 -2.0471 -1.5601 -1.0730
41729SOL    HW232238  10.776   2.836   3.377  0.7387  0.4755 -0.5871
41730SOL     OW32239  11.409   8.281  11.449 -0.1490  0.1304  0.3471
41730SOL    HW132240  11.364   8.198  11.460  0.6393 -0.3713 -0.1143
41730SOL    HW232241  11.339   8.344  11.433 -0.8434 -0.2007  1.9078
41731SOL     OW32242   8.114   8.389   2.305 -0.2926 -0.7109 -0.0134
41731SOL    HW132243   8.172   8.356   2.372  2.4881  2.0868 -0.7921
41731SOL    HW232244   8.050   8.443   2.352 -0.2996 -1.2503  0.6000
41732SOL     OW32245   3.966   3.346  11.763  0.1340  0.2207  0.5878
41732SOL    HW132246   3.968   3.412  11.833  0.0146  0.4177  0.4040
41732SOL    HW232247   3.888   3.294  11.782  0.6515 -0.3544  1.1814
41733SOL     OW32248   0.223  11.060   3.620  0.0398  0.8715 -0.6351
41733SOL    HW132249   0.187  10.974   3.644  2.8939 -0.9263 -2.2023
41733SOL    HW232250   0.202  11.069   3.527 -0.7998  2.2184 -0.3281
41734SOL     OW32251   7.537  10.852   0.056  0.1047 -0.1728 -0.7121
41734SOL    HW132252   7.570  10.890   0.138 -0.3628 -1.2358 -0.0027
41734SOL    HW232253   7.486  10.776   0.084 -0.5653 -0.2121 -1.9656
41735SOL     OW32254  12.455   6.321   4.584  0.2827 -0.0615 -0.0212
41735SOL    HW132255  12.406   6.295   4.506  1.4530 -1.4537 -0.3490
41735SOL    HW232256  12.528   6.258   4.588 -0.4430 -0.8372  2.9046
41736SOL     OW32257  11.130  12.241  11.172 -1.0912 -0.0604 -0.3338
41736SOL    HW132258  11.189  12.310  11.144 -0.5139 -0.9951 -1.5006
41736SOL    HW232259  11.048  12.287  11.192 -0.2658  1.1338  0.4780
41737SOL     OW32260   3.696   8.797  11.488 -0.3566  0.1379  0.0013
41737SOL    HW132261   3.621   8.749  11.453  1.6467 -1.8782 -1.8172
41737SOL    HW232262   3.712   8.867  11.424  0.6963 -0.8971 -0.9033
41738SOL     OW32263   3.344  10.637   6.531 -0.5209 -0.1865  0.1845
41738SOL    HW132264   3.271  10.642   6.593 -0.0632 -0.7334  0.7750
41738SOL    HW232265   3.307  10.667   6.449 -0.6654  2.4684  1.1189
41739SOL     OW32266   3.611   2.157   0.064  0.6176  0.0226  0.8891
41739SOL    HW132267   3.626   2.065   0.040  0.1451 -0.3506  1.9283
41739SOL    HW232268   3.615   2.157   0.160  0.0374  0.9863  0.9271
41740SOL     OW32269   2.317   4.848  11.126 -0.2893 -0.5344 -0.2489
41740SOL    HW132270   2.412   4.839  11.127 -0.3042 -0.7211  1.0713
41740SOL    HW232271   2.285   4.762  11.152 -0.9216 -1.1370 -2.7388
41741SOL     OW32272  10.623   5.762   3.625  0.3820 -0.3412  0.5300
41741SOL    HW132273  10.714   5.744   3.600  1.3833  1.4564  2.5438
41741SOL    HW232274  10.597   5.686   3.676  0.1525 -1.5845 -1.3345
41742SOL     OW32275   0.944   8.907   2.046 -0.2190 -0.3232 -0.7016
41742SOL    HW132276   0.976   8.842   2.108  3.0230  0.2371 -1.5763
41742SOL    HW232277   0.869   8.866   2.004  0.3973 -2.6230  0.2854
41743SOL     OW32278   5.593  12.016  11.689 -0.0020  0.3295 -0.2815
41743SOL    HW132279   5.580  12.027  11.595 -1.2612 -0.9529 -0.2968
41743SOL    HW232280   5.675  12.061  11.708  0.1725  0.7702 -1.9515
41744SOL     OW32281   7.503   0.871   2.712 -0.1905 -0.7918 -0.0659
41744SOL    HW132282   7.504   0.963   2.685  0.4268 -1.3400 -2.0285
41744SOL    HW232283   7.415   0.858   2.748 -0.8056  0.2013 -1.1287
41745SOL     OW32284   0.503   0.466   4.317 -0.1721  0.1094 -0.3858
41745SOL    HW132285   0.528   0.513   4.237  0.3948 -1.7410 -1.3717
41745SOL    HW232286   0.583   0.463   4.369 -0.3392  0.6314 -0.0864
41746SOL     OW32287   5.143  10.401   9.215 -0.2111  0.2667 -0.0316
41746SOL    HW132288   5.153  10.344   9.292  1.6221  0.6253  0.0235
41746SOL    HW232289   5.228  10.400   9.173 -0.5267  1.9449 -0.7689
41747SOL     OW32290   2.702   0.405   0.056 -0.3029 -0.5294  0.0475
41747SOL    HW132291   2.639   0.439  -0.008 -0.7239  0.0874  0.7671
41747SOL    HW232292   2.787   0.432   0.021 -0.5641  0.3301  0.0282
41748SOL     OW32293   6.188   6.106   8.121 -0.5178 -0.3385 -0.2083
41748SOL    HW132294   6.120   6.074   8.181 -1.9919  1.5036 -0.8259
41748SOL    HW232295   6.144   6.114   8.037  0.7328  0.0109 -0.8475
41749SOL     OW32296   0.779   3.505   3.924 -0.4141 -0.1301  0.3519
41749SOL    HW132297   0.808   3.555   3.847  0.3834 -1.0212  0.0554
41749SOL    HW232298   0.734   3.429   3.887 -0.6747 -0.1920  0.7869
41750SOL     OW32299   0.010   7.804   5.138 -0.0318 -0.2158 -0.1119
41750SOL    HW132300  -0.070   7.807   5.085 -1.1145  0.4390  1.4645
41750SOL    HW232301   0.065   7.873   5.101 -0.4750 -0.2112 -0.7965
41751SOL     OW32302  12.053   1.270   0.994  0.1588  0.1559 -0.0215
41751SOL    HW132303  12.107   1.311   0.926 -1.0187  0.7371 -0.6303
41751SOL    HW232304  12.021   1.343   1.047  0.6733 -0.2557  0.8971
41752SOL     OW32305   0.772   8.208   1.637  0.0339 -0.5007 -0.0076
41752SOL    HW132306   0.716   8.156   1.578 -0.4720  1.1659 -1.0610
41752SOL    HW232307   0.739   8.188   1.724 -0.7697 -1.2241 -0.4608
41753SOL     OW32308   8.222   2.650  11.894  0.1950  0.6384 -0.1067
41753SOL    HW132309   8.168   2.580  11.856 -1.1209  0.6034  1.7219
41753SOL    HW232310   8.182   2.731  11.861  0.4767  0.5798 -0.6053
41754SOL     OW32311   7.692   8.909   0.798 -0.1127  0.0011 -0.0256
41754SOL    HW132312   7.653   8.988   0.762 -1.1853 -0.9221 -0.9742
41754SOL    HW232313   7.744   8.939   0.872 -1.4214  1.4706  0.3490
41755SOL     OW32314  11.402   5.309   3.103 -0.8396 -0.6288  0.1891
41755SOL    HW132315  11.408   5.241   3.170 -0.7209 -0.4883  0.3232
41755SOL    HW232316  11.341   5.373   3.140 -2.4788 -1.5770 -0.7469
41756SOL     OW32317   5.037  10.602  11.495 -0.4806  0.0617 -0.1931
41756SOL    HW132318   5.059  10.574  11.406  0.7431  0.5928 -0.0681
41756SOL    HW232319   4.998  10.689  11.485  0.3053  0.4196 -0.1506
41757SOL     OW32320   1.609   5.878   2.006  0.4389 -0.2851 -0.2409
41757SOL    HW132321   1.621   5.970   1.985 -2.1790 -0.1904 -1.7013
41757SOL    HW232322   1.692   5.836   1.981  1.1654  1.4522 -0.8632
41758SOL     OW32323   0.517   0.358   3.830 -0.3099  0.1671 -0.0710
41758SOL    HW132324   0.604   0.384   3.803 -1.2230  1.7640 -1.6244
41758SOL    HW232325   0.486   0.300   3.760 -0.1341 -1.2747  0.9937
41759SOL     OW32326   6.622   7.594   5.092  0.0776  0.2017 -0.1469
41759SOL    HW132327   6.609   7.519   5.033  0.8466  0.9008 -1.2252
41759SOL    HW232328   6.652   7.555   5.174  0.5097 -0.6670 -0.7096
41760SOL     OW32329   7.560   2.014  10.893 -0.0324 -0.4217  0.2123
41760SOL    HW132330   7.536   1.985  10.805 -0.9531  0.5786  0.1052
41760SOL    HW232331   7.648   1.980  10.906 -0.6513 -2.3474 -0.2814
41761SOL     OW32332   9.642   0.548   3.575  0.3532 -0.5043  0.0240
41761SOL    HW132333   9.627   0.584   3.488 -1.3316 -1.3359 -0.0845
41761SOL    HW232334   9.659   0.624   3.631 -2.0632  0.4292 -0.3891
41762SOL     OW32335   0.091   2.150  12.325  0.3064  0.2328  0.0987
41762SOL    HW132336   0.175   2.192  12.344  0.0176  1.0801 -0.4425
41762SOL    HW232337   0.027   2.200  12.375 -0.0008  0.2368 -0.2891
41763SOL     OW32338   1.666   0.875  10.774 -0.0273 -0.3852  0.4661
41763SOL    HW132339   1.672   0.969  10.758 -1.8453 -0.3989 -0.5727
41763SOL    HW232340   1.600   0.867  10.843  0.4822 -0.8905  0.9047
41764SOL     OW32341  11.377   9.822   0.899  0.5779 -0.4882  0.5557
41764SOL    HW132342  11.330   9.754   0.947 -1.6933  0.3839 -0.2522
41764SOL    HW232343  11.329   9.902   0.920 -0.2360  0.0071 -2.6701
41765SOL     OW32344  10.360   4.664   4.492 -0.1266  0.0327  0.4368
41765SOL    HW132345  10.301   4.734   4.464 -0.4846 -1.1412 -2.0374
41765SOL    HW232346  10.448   4.699   4.478 -0.2786 -0.5416 -2.6319
41766SOL     OW32347   1.109   8.634   9.748 -0.0473  0.1769 -0.1869
41766SOL    HW132348   1.174   8.660   9.813 -0.2949  0.1625  0.0710
41766SOL    HW232349   1.055   8.712   9.735  0.1373  0.2451 -0.5398
41767SOL     OW32350   3.749   7.530   4.868  0.2504  0.3855 -0.6544
41767SOL    HW132351   3.806   7.595   4.827 -1.2901  0.3474 -3.0455
41767SOL    HW232352   3.669   7.578   4.890 -0.0743 -0.2544 -0.3992
41768SOL     OW32353   4.787   5.908   9.081 -0.2603 -0.6511  0.4312
41768SOL    HW132354   4.790   5.946   8.994  0.2544  0.1153  0.7737
41768SOL    HW232355   4.702   5.865   9.085  0.7382 -2.9777 -1.3578
41769SOL     OW32356   9.679   2.140  11.767 -0.2032 -0.1959 -0.3501
41769SOL    HW132357   9.597   2.092  11.758 -1.3777  1.8052 -0.9664
41769SOL    HW232358   9.672   2.182  11.853 -0.6334  1.3133 -1.0819
41770SOL     OW32359   6.873   4.887   8.521 -0.6280  0.2869  0.2132
41770SOL    HW132360   6.823   4.808   8.501 -1.0469  1.0651 -2.0408
41770SOL    HW232361   6.811   4.942   8.568 -0.5639 -0.3850  1.1260
41771SOL     OW32362   7.819   8.711   9.265 -0.0034  0.0799 -0.1870
41771SOL    HW132363   7.837   8.635   9.210  0.0653 -0.8526  1.0833
41771SOL    HW232364   7.897   8.766   9.257 -0.1147  0.1071 -1.2264
41772SOL     OW32365   3.542   5.414   8.287 -0.2888  0.2138  0.0519
41772SOL    HW132366   3.501   5.457   8.362 -0.8442  0.2786 -0.2809
41772SOL    HW232367   3.566   5.486   8.229  1.6162  0.3048  0.8534
41773SOL     OW32368   1.699   7.667   4.494 -0.2981 -0.3263  0.4586
41773SOL    HW132369   1.663   7.632   4.575  0.7647 -1.1756  0.5873
41773SOL    HW232370   1.792   7.679   4.512  0.3363 -2.2197 -1.1309
41774SOL     OW32371   7.519   8.818   3.132  0.0669 -0.2463 -0.4751
41774SOL    HW132372   7.497   8.750   3.197  0.1315 -0.4246 -0.6390
41774SOL    HW232373   7.593   8.781   3.084  1.4070  0.7352  0.7148
41775SOL     OW32374   9.889   5.379   3.709  0.0799  0.1528 -0.0820
41775SOL    HW132375   9.883   5.436   3.785 -1.4324 -0.1915  0.0874
41775SOL    HW232376   9.960   5.318   3.730  0.1200  0.4814  0.7605
41776SOL     OW32377  10.858   4.904   2.561  0.6468  0.1065  0.2665
41776SOL    HW132378  10.862   4.961   2.637 -1.7066  0.4749  0.1848
41776SOL    HW232379  10.912   4.948   2.495  2.0479  0.1863  1.4098
41777SOL     OW32380   9.624   6.559   0.141  0.3243 -0.4090 -0.4556
41777SOL    HW132381   9.670   6.476   0.128 -0.2220 -0.7744 -0.1051
41777SOL    HW232382   9.681   6.625   0.101  0.6709 -0.9750 -0.9056
41778SOL     OW32383   8.984  11.322  10.854  0.3743  1.0840 -0.1511
41778SOL    HW132384   9.030  11.239  10.849 -2.2266 -0.5027  0.3212
41778SOL    HW232385   8.924  11.322  10.779 -0.8210  1.7414  0.7553
41779SOL     OW32386   9.694  10.251   2.306 -0.5072 -0.1823  0.1320
41779SOL    HW132387   9.623  10.304   2.342 -0.7432 -0.1466 -0.3670
41779SOL    HW232388   9.685  10.261   2.211  1.6350  1.7959  0.0530
41780SOL     OW32389   7.083   8.348   8.626  0.5791  0.2106 -0.3663
41780SOL    HW132390   7.146   8.325   8.694 -0.1160 -0.2550  0.1373
41780SOL    HW232391   7.034   8.267   8.610 -0.4721  0.7751 -0.1015
41781SOL     OW32392  10.223   8.035   0.622  0.2777  0.1098  0.4386
41781SOL    HW132393  10.224   8.052   0.528 -0.1731  0.9869  0.5861
41781SOL    HW232394  10.315   8.040   0.649  0.2099  2.1920  0.4345
41782SOL     OW32395   7.100   5.009   8.613 -0.7313  0.1217  0.3855
41782SOL    HW132396   7.178   4.963   8.581 -1.2417 -2.3716  2.3577
41782SOL    HW232397   7.027   4.961   8.575 -1.3231  1.5095 -0.2589
41783SOL     OW32398   8.731   4.512   5.043 -0.3881  0.0654 -0.7660
41783SOL    HW132399   8.758   4.542   5.129 -1.0401 -1.4530  0.0000
41783SOL    HW232400   8.775   4.572   4.982 -0.0130  1.2315  0.5987
41784SOL     OW32401   3.075   2.230  11.942  0.0082 -0.3236 -0.1295
41784SOL    HW132402   3.100   2.257  12.031 -0.3208  1.0555 -0.4308
41784SOL    HW232403   2.997   2.282  11.923  1.1816  0.8759 -1.9583
41785SOL     OW32404  10.107  12.021  12.024 -0.3349 -0.0041  0.2633
41785SOL    HW132405  10.069  11.937  12.001  0.5709 -0.1935 -0.5726
41785SOL    HW232406  10.069  12.083  11.962  1.4305 -0.3687 -1.2888
41786SOL     OW32407  11.138  10.941  10.460 -0.4105  0.2316  0.6063
41786SOL    HW132408  11.047  10.934  10.488 -0.8208 -1.0120 -0.9302
41786SOL    HW232409  11.180  10.863  10.495  0.0161  0.6500  1.0478
41787SOL     OW32410   1.427   0.216  12.418  0.0326  0.0582 -0.0648
41787SOL    HW132411   1.465   0.301  12.441 -0.5867  0.5918 -0.9274
41787SOL    HW232412   1.336   0.222  12.448 -0.1046 -0.1654 -0.4268
41788SOL     OW32413   9.316  10.209   6.983 -0.5255  0.9979 -0.6862
41788SOL    HW132414   9.257  10.155   7.035  2.0295 -2.2241 -0.8377
41788SOL    HW232415   9.399  10.208   7.033  0.0625  3.6247 -1.4632
41789SOL     OW32416   3.532  10.008   6.277  0.7965 -0.1910 -0.1366
41789SOL    HW132417   3.586  10.053   6.342 -0.0645 -2.6862  2.5391
41789SOL    HW232418   3.443  10.011   6.314 -0.3798  1.0615 -2.8536
41790SOL     OW32419   2.474  10.964   4.179  0.8160  0.2417  0.2599
41790SOL    HW132420   2.388  10.928   4.160  1.3495 -0.2385 -1.3903
41790SOL    HW232421   2.457  11.044   4.229 -0.5782  0.1915 -0.1193
41791SOL     OW32422   4.116   2.689  11.282  0.0152  0.0757  1.4019
41791SOL    HW132423   4.113   2.782  11.307 -2.6048  0.4429  0.1619
41791SOL    HW232424   4.166   2.688  11.201 -0.0261  0.4390  1.3681
41792SOL     OW32425   0.847   2.428   2.814  0.2254 -0.0984  0.0256
41792SOL    HW132426   0.883   2.437   2.726  1.2900 -3.1683  0.0549
41792SOL    HW232427   0.913   2.469   2.871  1.4925 -1.5760 -0.3214
41793SOL     OW32428   0.630   6.778   2.666 -0.1439  0.2030 -0.1844
41793SOL    HW132429   0.561   6.759   2.602 -0.4962  1.6475 -0.2717
41793SOL    HW232430   0.655   6.869   2.648  2.4569 -0.5458 -0.7681
41794SOL     OW32431   0.116   8.705  11.623  0.0076 -0.3607 -0.2421
41794SOL    HW132432   0.026   8.737  11.624  0.4795  1.0679 -1.1264
41794SOL    HW232433   0.161   8.760  11.558  2.0454  0.4118  1.6862
41795SOL     OW32434   3.603   4.787  11.846 -0.1115 -0.6672  0.7093
41795SOL    HW132435   3.524   4.743  11.876 -0.8560  1.1349  1.5456
41795SOL    HW232436   3.668   4.771  11.915 -0.3722 -0.4426  1.0054
41796SOL     OW32437   3.510   1.374  12.003  0.9089 -0.2570  0.3376
41796SOL    HW132438   3.575   1.425  11.954  1.4310 -0.7895  0.4562
41796SOL    HW232439   3.518   1.285  11.968 -1.1880  0.0354 -1.0787
41797SOL     OW32440   5.326   9.031   4.091  0.0373  0.1337 -0.1338
41797SOL    HW132441   5.408   8.997   4.056 -0.4371 -0.4042 -0.7764
41797SOL    HW232442   5.260   9.004   4.026 -1.0452 -1.8115  1.6461
41798SOL     OW32443   8.128   0.726   6.548 -0.5414 -0.2318 -0.2054
41798SOL    HW132444   8.155   0.767   6.630  0.6804  0.2413 -0.8233
41798SOL    HW232445   8.036   0.750   6.539  0.4050  3.6149 -1.1938
41799SOL     OW32446   0.169   4.195   5.584  0.6297  0.2714 -0.1419
41799SOL    HW132447   0.212   4.254   5.522  1.7235  0.4724  0.7748
41799SOL    HW232448   0.163   4.246   5.665  1.0020 -0.6442  0.4816
41800SOL     OW32449   6.620   7.461  12.361 -0.3197 -0.1550 -0.1589
41800SOL    HW132450   6.680   7.505  12.420  0.5851 -0.5769 -0.7351
41800SOL    HW232451   6.566   7.406  12.418 -1.8253  2.0009  0.6331
41801SOL     OW32452   9.615   2.950  11.454  0.3993  0.5484 -0.3071
41801SOL    HW132453   9.595   2.875  11.511  1.1370 -0.3596 -1.2180
41801SOL    HW232454   9.710   2.950  11.447  0.3182  0.5401 -1.6717
41802SOL     OW32455   1.404   6.194  12.021 -0.1421 -0.2741 -0.1750
41802SOL    HW132456   1.497   6.211  12.009 -0.5161  0.3742 -2.7440
41802SOL    HW232457   1.391   6.106  11.988 -0.4891 -0.2846 -0.0212
41803SOL     OW32458   6.106   5.424   3.083  0.1396 -0.0089  0.2093
41803SOL    HW132459   6.172   5.475   3.036 -0.8568  1.1762  0.0658
41803SOL    HW232460   6.023   5.449   3.044 -0.5917 -0.0233  1.6888
41804SOL     OW32461   0.723   6.533   3.280  0.4191 -0.1595  0.1931
41804SOL    HW132462   0.746   6.441   3.265  0.6649 -0.0606 -0.0453
41804SOL    HW232463   0.799   6.582   3.248  1.3594  0.0325  2.5413
41805SOL     OW32464   9.272   2.038   6.600 -0.0491 -0.7865 -0.5920
41805SOL    HW132465   9.335   1.968   6.588  0.8332  0.0903 -1.2347
41805SOL    HW232466   9.190   1.993   6.621  1.5620 -1.9572  4.8738
41806SOL     OW32467   0.765   1.446   0.574 -0.2520 -0.0362  0.1643
41806SOL    HW132468   0.755   1.385   0.647  1.1102 -1.0034 -0.4030
41806SOL    HW232469   0.686   1.433   0.521 -0.5027 -0.5045  0.6435
41807SOL     OW32470   1.927   3.859   0.560 -0.1325  0.0877  0.0978
41807SOL    HW132471   1.949   3.788   0.621 -0.8392 -0.9945 -0.8677
41807SOL    HW232472   1.884   3.815   0.487 -0.3584  1.4997 -0.6469
41808SOL     OW32473   8.356   6.037   4.374  0.4654  0.4043 -0.8684
41808SOL    HW132474   8.315   6.035   4.460  1.4236 -0.6330 -0.4108
41808SOL    HW232475   8.316   6.113   4.330 -1.7580 -0.4210 -0.4007
41809SOL     OW32476   3.001   2.691  10.795  0.0761  0.2390  0.2834
41809SOL    HW132477   2.912   2.708  10.828 -0.4828  0.3512 -1.1897
41809SOL    HW232478   2.987   2.658  10.706  1.5099 -0.0916  0.1631
41810SOL     OW32479   6.236   4.946   4.373  0.2223  0.0818  0.4782
41810SOL    HW132480   6.168   4.978   4.431  1.1208 -1.2404  2.3700
41810SOL    HW232481   6.190   4.920   4.294 -1.6285 -1.4754  1.9714
41811SOL     OW32482   1.962   9.981   2.330  0.4987 -0.1586 -0.2874
41811SOL    HW132483   1.976   9.938   2.414  2.3459  0.2464 -0.3553
41811SOL    HW232484   2.047  10.016   2.306 -0.3518  1.1755 -1.5428
41812SOL     OW32485   2.350   2.478   8.078 -0.3331  0.2726 -0.0559
41812SOL    HW132486   2.274   2.489   8.136  0.2941 -0.6841  0.9774
41812SOL    HW232487   2.317   2.427   8.004 -0.4186 -1.3219  1.0402
41813SOL     OW32488   5.992   3.983   6.558 -0.1031  0.4787  0.5003
41813SOL    HW132489   6.070   3.934   6.532 -0.8574 -0.6279  0.2685
41813SOL    HW232490   5.982   4.050   6.490  0.2803  0.2182  0.1849
41814SOL     OW32491   6.684  12.295   7.876  0.1761  0.0585  0.1219
41814SOL    HW132492   6.657  12.378   7.916  0.7953  1.2285 -1.7716
41814SOL    HW232493   6.604  12.257   7.842  0.2838  1.7915 -2.3383
41815SOL     OW32494   9.931   5.750   7.321 -0.1629 -0.8373  0.2426
41815SOL    HW132495   9.912   5.683   7.256  0.6844 -2.0618  1.2072
41815SOL    HW232496  10.027   5.756   7.322 -0.2161  0.8257 -0.2211
41816SOL     OW32497   0.228  11.687   7.544 -0.2760  0.2791  0.1175
41816SOL    HW132498   0.272  11.622   7.489  3.6966  1.7311  1.2411
41816SOL    HW232499   0.194  11.637   7.618  1.3069 -0.7281  0.1901
41817SOL     OW32500   3.362   6.491   8.645  0.4828 -0.2689  0.5537
41817SOL    HW132501   3.314   6.497   8.562  2.3014  1.3914 -0.4414
41817SOL    HW232502   3.426   6.421   8.631  1.0286  0.2525  0.4180
41818SOL     OW32503   2.599   9.151  12.579  0.3931  0.0861  0.3304
41818SOL    HW132504   2.645   9.233  12.595  0.0404  0.1556  1.0253
41818SOL    HW232505   2.653   9.105  12.515  0.2605  1.1274 -0.5511
41819SOL     OW32506   5.117  11.412   8.272  0.5072 -0.4466 -0.4959
41819SOL    HW132507   5.068  11.425   8.190  1.7152 -2.0693 -1.5353
41819SOL    HW232508   5.063  11.454   8.338 -1.3830 -0.5451 -1.8688
41820SOL     OW32509  10.772  10.508   6.131 -1.1470 -0.0103 -0.5699
41820SOL    HW132510  10.790  10.601   6.117 -0.7771 -0.1463 -1.0254
41820SOL    HW232511  10.686  10.493   6.092 -0.3456 -0.2756 -2.3266
41821SOL     OW32512  10.115  10.031  12.114 -0.1078 -0.2927  0.2376
41821SOL    HW132513  10.029  10.060  12.084  0.3957  0.0992 -0.8932
41821SOL    HW232514  10.176  10.091  12.071  0.9559 -2.6247 -1.7650
41822SOL     OW32515  12.281   2.773   8.978  0.2279  0.3489  0.0275
41822SOL    HW132516  12.217   2.796   9.045 -0.6631  0.8087 -0.9417
41822SOL    HW232517  12.342   2.847   8.977  0.6281  0.0448  0.7474
41823SOL     OW32518   1.616  10.856  12.478  0.8354  0.0967  0.0766
41823SOL    HW132519   1.686  10.910  12.442  0.1109  0.9384 -0.1024
41823SOL    HW232520   1.661  10.792  12.533  1.9061 -0.7506 -1.7264
41824SOL     OW32521   1.724  11.273   2.604 -0.0883 -0.2891 -0.1662
41824SOL    HW132522   1.682  11.338   2.547  1.4204  0.6532 -0.2665
41824SOL    HW232523   1.716  11.311   2.692  1.4177  0.4354 -0.3059
41825SOL     OW32524   8.491   3.840   3.732  0.3781  0.0596  0.5037
41825SOL    HW132525   8.456   3.782   3.799  0.4865  0.5008  0.9479
41825SOL    HW232526   8.415   3.891   3.703 -0.2009 -1.7478 -1.4336
41826SOL     OW32527   3.283   0.597   2.723 -0.6044 -0.0730 -0.0958
41826SOL    HW132528   3.291   0.641   2.807  0.6764 -0.4856  0.0245
41826SOL    HW232529   3.314   0.661   2.659 -0.4104 -0.1795 -0.1108
41827SOL     OW32530   1.452  11.576   7.029 -0.4307  0.7725 -0.5956
41827SOL    HW132531   1.430  11.570   7.122  0.0112 -2.0381 -0.5780
41827SOL    HW232532   1.382  11.528   6.984  1.6023 -1.8726 -1.2030
41828SOL     OW32533  12.182   4.336  12.220  0.0366 -0.3770 -0.2314
41828SOL    HW132534  12.099   4.295  12.198  0.1794 -0.4651 -0.6205
41828SOL    HW232535  12.245   4.298  12.158  0.6853 -1.4748  1.0675
41829SOL     OW32536   7.336   8.093   4.886  0.6126  0.4130 -0.1896
41829SOL    HW132537   7.277   8.044   4.944  1.8339  1.1995  1.8574
41829SOL    HW232538   7.287   8.105   4.805 -0.5833 -2.1477  0.0693
41830SOL     OW32539   8.247   6.247   2.894  0.1943  0.2098  0.1207
41830SOL    HW132540   8.228   6.165   2.849  1.7429  0.8776 -1.8739
41830SOL    HW232541   8.203   6.238   2.979  0.0845 -2.5466 -0.1347
41831SOL     OW32542   1.409   4.295  12.421 -0.3381  0.1121  0.0337
41831SOL    HW132543   1.466   4.233  12.375 -1.9452 -0.9808 -0.5703
41831SOL    HW232544   1.340   4.315  12.358  0.7270  3.5229 -0.2536
41832SOL     OW32545   2.830  10.871  10.347 -0.4803  0.2852  0.2810
41832SOL    HW132546   2.905  10.927  10.365 -1.0629  1.0999  0.1945
41832SOL    HW232547   2.765  10.929  10.309 -1.2053 -0.3918  0.4726
41833SOL     OW32548  10.357   6.968   9.567 -0.0122  0.0017  0.0010
41833SOL    HW132549  10.381   6.880   9.597  0.2908  0.0094 -0.2159
41833SOL    HW232550  10.430   6.995   9.511 -0.0200  0.4668  0.2143
41834SOL     OW32551   6.122   5.245  11.334 -0.0589 -0.0312  0.0640
41834SOL    HW132552   6.211   5.273  11.355 -0.5166  1.4419  0.1483
41834SOL    HW232553   6.079   5.236  11.419  0.2734 -1.8146  0.0925
41835SOL     OW32554   6.721  11.181   2.017  0.0846  0.1973 -0.0739
41835SOL    HW132555   6.630  11.189   1.987  0.0916 -0.2104 -0.2145
41835SOL    HW232556   6.718  11.198   2.111 -0.4148 -1.4921  0.2605
41836SOL     OW32557   5.142   5.177   4.307 -0.7172 -0.3737  0.5263
41836SOL    HW132558   5.123   5.266   4.337  0.5066 -0.1714  0.7646
41836SOL    HW232559   5.214   5.148   4.363  0.1237 -0.8298 -0.7655
41837SOL     OW32560  10.814   2.250   8.859 -0.1143 -0.3034  0.3164
41837SOL    HW132561  10.867   2.252   8.939 -0.0734 -1.1844  0.3229
41837SOL    HW232562  10.878   2.259   8.789 -0.2993  2.3113  0.3833
41838SOL     OW32563   2.534   0.627  11.245  0.4858  0.3616 -0.0132
41838SOL    HW132564   2.585   0.665  11.174  0.1229  3.1772  1.0819
41838SOL    HW232565   2.449   0.606  11.206 -0.1372  3.0039 -0.2534
41839SOL     OW32566   9.994   1.119   2.494  0.0866 -0.2275 -0.3604
41839SOL    HW132567   9.978   1.030   2.463  0.2731 -0.2276 -0.4601
41839SOL    HW232568  10.084   1.138   2.467 -0.4753  0.5896 -1.7862
41840SOL     OW32569   8.312  12.081   8.533  0.5222 -0.1990  0.1804
41840SOL    HW132570   8.269  12.067   8.449 -0.6208 -1.0296  0.8878
41840SOL    HW232571   8.247  12.127   8.586  1.1508  0.1053  0.6994
41841SOL     OW32572   0.711   1.673  12.566  0.6972 -0.1247  0.3724
41841SOL    HW132573   0.659   1.632  12.497 -1.0305  0.4464  1.2763
41841SOL    HW232574   0.769   1.734  12.520 -1.9747  1.9320 -0.5265
41842SOL     OW32575   1.342   2.345   4.227 -0.4596  0.2266  0.3443
41842SOL    HW132576   1.329   2.436   4.254 -0.1338  0.6179 -0.7637
41842SOL    HW232577   1.431   2.343   4.193 -0.8992 -0.1806 -0.8465
41843SOL     OW32578   0.254   0.015   0.002 -0.4554 -0.8998  0.0212
41843SOL    HW132579   0.264  -0.068  -0.044 -0.4018 -1.4376  0.9770
41843SOL    HW232580   0.295   0.001   0.087 -1.0167 -0.0992  0.4409
41844SOL     OW32581   4.706  11.916   3.128 -0.4103  0.0744 -0.0749
41844SOL    HW132582   4.755  11.833   3.127 -1.5235 -0.6123  0.5031
41844SOL    HW232583   4.752  11.971   3.064 -0.3634 -1.4067 -1.3894
41845SOL     OW32584  11.141  12.442   2.682  0.8202  0.5745 -0.1555
41845SOL    HW132585  11.053  12.408   2.667  0.0763  1.5536  1.7148
41845SOL    HW232586  11.151  12.512   2.617 -0.3462  1.3847  0.5005
41846SOL     OW32587   3.000   9.618   6.131 -0.2455  0.7002 -0.4168
41846SOL    HW132588   2.924   9.580   6.088  0.6487 -0.0473 -1.4034
41846SOL    HW232589   3.072   9.558   6.110  0.4942  1.0425  1.0216
41847SOL     OW32590   8.330   8.356   4.735 -0.5841  0.1755 -0.3840
41847SOL    HW132591   8.280   8.403   4.668 -2.7071  0.9491  1.6104
41847SOL    HW232592   8.269   8.291   4.769  1.1585 -1.6621 -0.5966
41848SOL     OW32593   8.752   9.345  11.734 -0.0800 -0.0127  0.1836
41848SOL    HW132594   8.682   9.399  11.771 -0.0396  0.7681 -0.8460
41848SOL    HW232595   8.730   9.255  11.760 -0.2729  0.4498  1.7205
41849SOL     OW32596  11.609   1.697   4.785  0.2070  0.0945 -0.5151
41849SOL    HW132597  11.631   1.655   4.868 -0.5460 -1.4765 -1.0739
41849SOL    HW232598  11.517   1.721   4.794  0.2687  0.4048 -0.7014
41850SOL     OW32599   0.317   6.166   5.138 -0.0684 -0.0219  0.3884
41850SOL    HW132600   0.254   6.188   5.069 -0.6757  1.0105  1.2334
41850SOL    HW232601   0.351   6.251   5.167  0.6708 -0.4850  0.9090
41851SOL     OW32602   2.322   3.258   6.298  0.5443 -0.2718  0.2192
41851SOL    HW132603   2.412   3.234   6.322  0.4236 -0.1810  0.7827
41851SOL    HW232604   2.268   3.188   6.336  0.5276 -1.6204 -2.0851
41852SOL     OW32605  12.524   2.489   9.140  0.2666  0.2637 -0.1954
41852SOL    HW132606  12.577   2.473   9.062 -2.0367  0.9504 -1.9858
41852SOL    HW232607  12.513   2.584   9.143 -0.9817  0.1218  0.0630
41853SOL     OW32608   2.809   1.972   7.483 -0.1539  0.9995 -0.0115
41853SOL    HW132609   2.798   1.924   7.402 -0.7837  2.3061 -0.7344
41853SOL    HW232610   2.779   1.912   7.551  1.5788 -0.5824 -0.5752
41854SOL     OW32611   4.034   8.262   0.427 -0.0679 -0.3333 -0.2490
41854SOL    HW132612   3.942   8.234   0.421 -0.2169  0.3011 -1.0187
41854SOL    HW232613   4.045   8.323   0.354  1.3432 -1.4631 -1.0293
41855SOL     OW32614   5.848   2.919   4.009  0.3979  0.1146 -0.4327
41855SOL    HW132615   5.897   2.993   4.044  1.0268 -0.1238 -0.7809
41855SOL    HW232616   5.860   2.924   3.914  1.5480 -1.1529 -0.3918
41856SOL     OW32617   5.542   3.695   3.250  0.1165  0.2658  0.0377
41856SOL    HW132618   5.542   3.734   3.162  1.1434  0.2849  0.0300
41856SOL    HW232619   5.565   3.768   3.308 -1.7924  0.5575  0.5016
41857SOL     OW32620   8.484   5.589   7.412  0.0374 -0.2908  0.3714
41857SOL    HW132621   8.469   5.614   7.503 -0.1038  1.1345 -0.0212
41857SOL    HW232622   8.562   5.534   7.414  1.5619  1.7819  1.0882
41858SOL     OW32623   3.316  12.532   7.133 -0.6199  0.3580 -0.0858
41858SOL    HW132624   3.255  12.525   7.060  0.5416 -3.0063 -0.9289
41858SOL    HW232625   3.262  12.558   7.207 -3.4817 -3.3434 -0.5405
41859SOL     OW32626   9.772   4.251   5.784  0.7770  0.3505  0.3558
41859SOL    HW132627   9.776   4.213   5.696  0.4433  0.2743  0.3731
41859SOL    HW232628   9.707   4.321   5.777 -0.9943 -1.1599  1.1126
41860SOL     OW32629   3.401  10.609   2.211  0.1385 -0.9887  0.2026
41860SOL    HW132630   3.429  10.698   2.192  0.0997 -0.8256  0.8886
41860SOL    HW232631   3.322  10.597   2.159 -1.2919  0.2573  1.9759
41861SOL     OW32632   2.728   3.895   2.679  0.0533 -0.0496 -0.3741
41861SOL    HW132633   2.779   3.904   2.759 -0.3474  0.4875 -0.1666
41861SOL    HW232634   2.688   3.982   2.666 -3.1020 -1.1309  1.0610
41862SOL     OW32635   8.736   1.147  11.616  0.2463 -0.7120  0.5619
41862SOL    HW132636   8.706   1.187  11.698 -1.9675  1.6404 -1.2087
41862SOL    HW232637   8.666   1.087  11.592  1.3174 -2.0991  0.7729
41863SOL     OW32638  11.827   1.064   0.637  0.3163  0.1505  0.2445
41863SOL    HW132639  11.768   1.131   0.671  1.2525  1.3346 -0.3845
41863SOL    HW232640  11.792   0.981   0.672 -1.2079  0.8873  0.5449
41864SOL     OW32641   7.524   9.215  10.510  0.4990 -0.3502  0.2108
41864SOL    HW132642   7.517   9.294  10.457  0.1184 -1.7344 -1.9270
41864SOL    HW232643   7.576   9.242  10.586  0.5392  1.8876 -0.5351
41865SOL     OW32644   0.839   6.273   4.707  0.0191 -0.5075  0.1309
41865SOL    HW132645   0.864   6.236   4.622 -0.6517 -1.3964  0.3050
41865SOL    HW232646   0.808   6.198   4.758 -1.2796  0.2583  0.5341
41866SOL     OW32647   0.280   8.106  10.852  0.4245  0.3288  0.1395
41866SOL    HW132648   0.269   8.197  10.823 -0.3615  0.3510  0.4796
41866SOL    HW232649   0.285   8.056  10.771 -0.9542  0.4839 -0.0631
41867SOL     OW32650   3.036   9.798   6.813 -0.4131  1.2782  0.5680
41867SOL    HW132651   3.028   9.798   6.718  1.7835  1.8954  0.3142
41867SOL    HW232652   3.066   9.887   6.834 -0.0376  0.8950  1.7423
41868SOL     OW32653   4.277   3.290   8.174 -1.2094  0.1342 -0.3718
41868SOL    HW132654   4.201   3.342   8.198  0.4318  1.5663  2.1529
41868SOL    HW232655   4.316   3.264   8.257  0.9085 -0.7814 -1.5658
41869SOL     OW32656   2.690   1.556   2.973 -0.2007  0.2036 -0.7234
41869SOL    HW132657   2.746   1.496   3.022 -3.0831 -2.3842 -0.3108
41869SOL    HW232658   2.696   1.525   2.882 -0.2600  0.5336 -0.8431
41870SOL     OW32659   3.628   1.854   7.142 -0.1832  0.3938 -0.1460
41870SOL    HW132660   3.668   1.774   7.177  2.2651  1.1558 -1.0458
41870SOL    HW232661   3.574   1.824   7.069 -0.4633 -0.5691  0.4352
41871SOL     OW32662   7.030   2.063   2.964 -0.6676 -0.0156 -0.5763
41871SOL    HW132663   7.014   2.128   3.032  1.4253  0.3662 -0.3845
41871SOL    HW232664   7.124   2.069   2.946 -0.4092 -2.8645 -0.6875
41872SOL     OW32665  10.572   4.358  10.080  0.2860  0.2755 -0.0401
41872SOL    HW132666  10.508   4.322  10.019  0.2568  0.6074 -0.2111
41872SOL    HW232667  10.578   4.294  10.150  1.1108 -0.6286 -0.9100
41873SOL     OW32668   7.300   4.913  11.130  0.3768  0.4317  0.3325
41873SOL    HW132669   7.302   4.976  11.058  0.3269 -1.2447 -1.2036
41873SOL    HW232670   7.305   4.967  11.209  1.2152  2.2956 -0.9179
41874SOL     OW32671   3.461   4.255  12.564  0.7732  0.1408 -0.1974
41874SOL    HW132672   3.509   4.329  12.526  2.0560 -0.5413  0.0484
41874SOL    HW232673   3.525   4.211  12.620 -0.4189 -0.2586  0.8765
41875SOL     OW32674   2.966   0.015   9.980  0.2268  0.0060  0.3142
41875SOL    HW132675   2.937   0.046  10.066 -1.3677 -1.2441  0.2782
41875SOL    HW232676   3.036   0.075   9.955  0.4284  0.6604  2.2863
41876SOL     OW32677   9.823   6.927  10.551 -0.0732 -0.4030 -0.2485
41876SOL    HW132678   9.874   7.007  10.565 -1.1507  0.0890  1.0489
41876SOL    HW232679   9.818   6.885  10.637 -1.6611 -0.5378 -0.3720
41877SOL     OW32680   9.250   8.100  12.289 -0.6411  0.0663 -0.2308
41877SOL    HW132681   9.292   8.113  12.373 -0.9549  1.0448 -0.2211
41877SOL    HW232682   9.297   8.025  12.250  0.9458  0.9573 -0.1189
41878SOL     OW32683   3.909   9.162  11.085 -0.0749  0.0491 -0.1745
41878SOL    HW132684   3.820   9.126  11.085  0.4880 -1.4169  0.2400
41878SOL    HW232685   3.951   9.122  11.010  0.6216 -0.2915  0.3856
41879SOL     OW32686   8.353   0.127   0.462  0.1125 -0.0468 -0.4815
41879SOL    HW132687   8.292   0.177   0.409 -0.4840 -1.2328 -0.9585
41879SOL    HW232688   8.414   0.089   0.399 -0.7664 -1.6942 -0.4008
41880SOL     OW32689   3.427   0.971   0.252  0.0352 -0.6717  0.4924
41880SOL    HW132690   3.413   0.893   0.305  1.0675 -0.4584  1.1149
41880SOL    HW232691   3.523   0.979   0.247 -0.0579  0.5659  0.4700
41881SOL     OW32692   4.311   2.108  11.747  0.9603  0.2755 -0.8286
41881SOL    HW132693   4.399   2.072  11.734 -0.1516 -2.1736 -2.2019
41881SOL    HW232694   4.290   2.151  11.665  0.1006 -1.0174 -1.3114
41882SOL     OW32695   9.086   4.848   8.020  0.1206  0.0625  0.0035
41882SOL    HW132696   9.119   4.881   8.103 -1.0602 -0.7063  0.8060
41882SOL    HW232697   9.161   4.806   7.979  0.0485 -2.3534  2.1400
41883SOL     OW32698   7.075   5.180   7.381 -0.5567  0.7294  0.4744
41883SOL    HW132699   7.020   5.185   7.460 -1.7049 -0.4521 -0.2118
41883SOL    HW232700   7.126   5.261   7.383 -0.0184  0.4183  2.8070
41884SOL     OW32701   9.954  10.898   4.208  0.4493  0.2236  0.2517
41884SOL    HW132702   9.942  10.804   4.193  0.8361  0.0007  1.2813
41884SOL    HW232703  10.038  10.918   4.168  0.3330  0.1553 -0.0335
41885SOL     OW32704   7.150   4.032   3.037  0.6927 -0.9433  0.6848
41885SOL    HW132705   7.182   4.061   2.952 -0.5727  0.7100  0.7203
41885SOL    HW232706   7.227   4.034   3.094  1.2291 -0.4918 -0.0454
41886SOL     OW32707   4.898   4.371   5.970  0.3185  0.1496 -0.0379
41886SOL    HW132708   4.891   4.406   5.881  1.6308 -1.4908 -0.8338
41886SOL    HW232709   4.884   4.277   5.961  2.1568 -0.3009  1.1911
41887SOL     OW32710   4.730  10.611   9.756  0.2983 -0.6079  0.3271
41887SOL    HW132711   4.792  10.572   9.817  1.1610 -0.1546 -0.2338
41887SOL    HW232712   4.739  10.705   9.768 -0.3994 -0.5343  0.3442
41888SOL     OW32713   4.320  11.764   4.980  0.1752 -0.2012  0.2590
41888SOL    HW132714   4.386  11.830   4.959  2.6297 -1.7242  2.4980
41888SOL    HW232715   4.257  11.810   5.036 -1.1961  1.4314 -2.4058
41889SOL     OW32716   0.254   1.913   4.916 -0.2442 -0.4709 -0.7152
41889SOL    HW132717   0.246   1.918   4.821  2.1513  0.3913 -0.9375
41889SOL    HW232718   0.334   1.961   4.936 -1.1123  0.0464  1.8398
41890SOL     OW32719  10.714   6.158   4.161 -0.3392 -0.2634  0.1503
41890SOL    HW132720  10.663   6.139   4.240  0.6210  0.2765  0.9256
41890SOL    HW232721  10.782   6.090   4.159 -0.4376 -0.3514 -0.2808
41891SOL     OW32722   0.395   6.112   8.839 -0.3745 -0.1317  0.5201
41891SOL    HW132723   0.471   6.060   8.815  1.1564  1.8332  0.8090
41891SOL    HW232724   0.431   6.195   8.871 -2.6537  1.3413 -0.4000
41892SOL     OW32725   4.423   7.446   9.553  0.4062 -0.3216  0.3717
41892SOL    HW132726   4.403   7.465   9.645 -0.1381 -0.9733  0.3964
41892SOL    HW232727   4.501   7.498   9.534 -0.6359  1.3928  0.6122
41893SOL     OW32728   2.637   9.347   4.251 -0.0889  0.0317  0.0342
41893SOL    HW132729   2.553   9.371   4.212 -0.2110  0.2694  0.4350
41893SOL    HW232730   2.701   9.403   4.206 -0.2750  0.5688  0.4183
41894SOL     OW32731   5.924   7.891   6.834 -0.0755  1.0820 -0.4928
41894SOL    HW132732   5.829   7.889   6.840 -0.0481  0.0295 -0.2063
41894SOL    HW232733   5.954   7.894   6.925  0.1649  0.4679 -0.5456
41895SOL     OW32734   5.268   7.405   1.023 -0.1024 -0.1608  0.2517
41895SOL    HW132735   5.248   7.479   0.966  0.1841  0.7117  1.2659
41895SOL    HW232736   5.225   7.330   0.981  1.4095  0.1310 -1.9598
41896SOL     OW32737   1.834   4.493  11.994 -0.5807  0.3655 -0.4474
41896SOL    HW132738   1.897   4.425  11.968  0.8917  1.3160  0.5136
41896SOL    HW232739   1.873   4.574  11.962 -0.4534  1.1653  1.6451
41897SOL     OW32740   0.162  11.121   6.098  0.5812 -0.0484 -0.1438
41897SOL    HW132741   0.128  11.181   6.165  0.1523  0.4849 -0.8231
41897SOL    HW232742   0.083  11.080   6.061  0.8601 -0.8900  0.1806
41898SOL     OW32743  12.328   0.204   5.263  0.6287 -0.1803 -0.5112
41898SOL    HW132744  12.319   0.202   5.168  0.3844 -0.3910 -0.4849
41898SOL    HW232745  12.370   0.288   5.282  1.7396 -0.6231 -0.8935
41899SOL     OW32746  10.913  11.098   4.587  0.1690  0.4629 -0.1818
41899SOL    HW132747  10.935  11.104   4.494 -1.2978 -0.5425 -0.6159
41899SOL    HW232748  10.917  11.004   4.606  2.1894  0.7765  1.2408
41900SOL     OW32749   7.064   6.265  12.049 -0.0630  0.2825  0.1974
41900SOL    HW132750   7.000   6.213  12.097 -0.2882 -1.1492 -1.5274
41900SOL    HW232751   7.088   6.336  12.108 -1.4403 -0.5259  1.7866
41901SOL     OW32752   5.915  11.266  10.881 -0.2793  0.0398 -0.0919
41901SOL    HW132753   5.966  11.199  10.927  1.4419  0.8483 -0.7278
41901SOL    HW232754   5.869  11.314  10.950  0.6090 -0.0887  0.6032
41902SOL     OW32755   6.690  10.234  12.543 -0.1185  0.2290  0.0701
41902SOL    HW132756   6.637  10.185  12.480 -0.9063  1.4771 -0.2616
41902SOL    HW232757   6.657  10.205  12.629 -0.1196 -0.3043 -0.1036
41903SOL     OW32758   6.477   0.973   4.574 -0.5988  0.5046  0.4497
41903SOL    HW132759   6.455   0.972   4.481 -0.6993  1.2739  0.4548
41903SOL    HW232760   6.447   0.889   4.608 -0.0187 -0.0318 -0.3311
41904SOL     OW32761  11.887   9.272   4.719 -0.0748  0.0132 -0.0554
41904SOL    HW132762  11.849   9.313   4.641 -0.1724 -0.1563 -0.0954
41904SOL    HW232763  11.945   9.340   4.756  0.7769 -0.2635 -0.8501
41905SOL     OW32764   4.892   6.471   3.679 -0.4329 -0.5093  0.3214
41905SOL    HW132765   4.840   6.498   3.754  0.8414 -0.2394  1.1356
41905SOL    HW232766   4.913   6.379   3.696  0.6534 -0.1942  0.8046
41906SOL     OW32767  11.593   0.120  10.834  0.2233 -0.2960  0.6238
41906SOL    HW132768  11.576   0.027  10.816 -1.6578 -0.1158  1.2156
41906SOL    HW232769  11.506   0.160  10.833  0.9420  1.3415  1.0602
41907SOL     OW32770   5.822   7.147  10.710  0.3990  0.3655 -0.0374
41907SOL    HW132771   5.914   7.172  10.716  0.9633 -0.8712 -2.4125
41907SOL    HW232772   5.822   7.064  10.663 -1.9580  0.6236 -0.6398
41908SOL     OW32773   2.940  10.953   1.909 -0.1730  0.0911  0.6816
41908SOL    HW132774   3.003  10.973   1.839 -0.4955 -2.0059 -0.2975
41908SOL    HW232775   2.932  11.035   1.958 -0.3815  1.8767 -2.0815
41909SOL     OW32776   9.720   0.840   8.411  0.0251  0.0905  0.2203
41909SOL    HW132777   9.645   0.837   8.470  0.3219  0.7229  0.6410
41909SOL    HW232778   9.682   0.846   8.324 -0.4116 -0.2913  0.3783
41910SOL     OW32779   5.571  10.517   7.583  0.5702 -0.1349 -0.4687
41910SOL    HW132780   5.650  10.490   7.537  1.1793  1.3506 -0.3481
41910SOL    HW232781   5.598  10.523   7.675  0.5627  1.2135 -0.5428
41911SOL     OW32782   3.922  11.699   7.272  0.1306  0.4772  0.7441
41911SOL    HW132783   3.959  11.627   7.323 -0.4612 -0.0053  0.5057
41911SOL    HW232784   3.912  11.770   7.335 -2.6594 -0.7970  1.9031
41912SOL     OW32785   3.477   3.657  11.308  0.6490  0.5022  0.0701
41912SOL    HW132786   3.411   3.720  11.337  0.8741  0.4881  0.6184
41912SOL    HW232787   3.426   3.579  11.283  0.5685 -0.4025  2.7810
41913SOL     OW32788   2.101   3.029  10.935  0.1528 -0.1218 -0.4247
41913SOL    HW132789   2.096   3.097  11.003  2.0499 -0.2722 -0.0980
41913SOL    HW232790   2.025   2.973  10.952  0.7435 -0.3392  1.7801
41914SOL     OW32791   3.103   9.973   7.665 -0.2389  0.7159  0.2197
41914SOL    HW132792   3.072   9.975   7.755 -0.6630  0.3706  0.0870
41914SOL    HW232793   3.123  10.064   7.644 -0.7963  0.8939  0.4420
41915SOL     OW32794   7.331   6.339   7.887 -0.1697  0.3172 -0.7293
41915SOL    HW132795   7.350   6.303   7.800 -0.6740 -2.4614  0.2080
41915SOL    HW232796   7.272   6.412   7.870  0.8722  0.7745 -2.7855
41916SOL     OW32797   3.717   7.121   4.667 -0.1574 -0.3968 -0.8490
41916SOL    HW132798   3.791   7.181   4.683 -1.5565  1.4614 -1.0950
41916SOL    HW232799   3.692   7.092   4.755 -0.8300  1.1337 -0.4964
41917SOL     OW32800   0.068  11.973  10.066  0.4147 -0.1785  0.4946
41917SOL    HW132801   0.074  12.002  10.157 -2.0331  1.8971  0.0819
41917SOL    HW232802   0.084  12.051  10.014  3.5878 -1.6483 -1.0522
41918SOL     OW32803  10.289   0.828   0.705  0.4057 -0.1046  0.1116
41918SOL    HW132804  10.341   0.840   0.784 -1.0222 -0.8401  1.1981
41918SOL    HW232805  10.211   0.883   0.718  0.5554  0.4654 -1.1914
41919SOL     OW32806   2.201   8.824  10.476 -0.0668  0.4216  0.2470
41919SOL    HW132807   2.128   8.857  10.423  0.0042  0.0289 -0.0971
41919SOL    HW232808   2.269   8.802  10.412 -0.0469 -0.2306  0.4861
41920SOL     OW32809  11.787  10.566  12.174 -0.0256  0.4036  0.1173
41920SOL    HW132810  11.728  10.491  12.183 -0.1502  0.6264  1.3458
41920SOL    HW232811  11.862  10.544  12.229 -0.3962  1.4914  1.0916
41921SOL     OW32812   1.994   7.151   6.946 -0.0460 -0.0881 -0.1672
41921SOL    HW132813   2.051   7.098   6.890  0.3102  0.3250 -0.2008
41921SOL    HW232814   2.043   7.163   7.027 -0.2256 -0.0153 -0.0686
41922SOL     OW32815   7.026  11.088   1.066 -0.2043 -0.5863 -0.7106
41922SOL    HW132816   6.975  11.166   1.044 -1.1470 -0.5759  1.3161
41922SOL    HW232817   7.055  11.103   1.156  1.5817 -1.5829 -1.0680
41923SOL     OW32818  11.076  11.155   3.800 -0.1040  0.0243 -0.4275
41923SOL    HW132819  10.985  11.180   3.818  0.2438  1.1306 -0.0752
41923SOL    HW232820  11.125  11.194   3.873  0.3489 -3.0897  1.0979
41924SOL     OW32821   0.988   0.999   3.871 -0.0161  0.1952 -0.5569
41924SOL    HW132822   0.945   0.915   3.854  0.0951 -0.0709  0.4481
41924SOL    HW232823   0.950   1.029   3.954  1.3962  0.1741  0.1226
41925SOL     OW32824   3.805   7.843  12.466 -0.9544 -0.0322  0.0447
41925SOL    HW132825   3.839   7.759  12.434 -0.3021 -0.1739  1.0713
41925SOL    HW232826   3.716   7.824  12.495 -0.8997 -0.3056  0.0357
41926SOL     OW32827   3.079   4.080   9.966  0.1957  0.6334  0.1049
41926SOL    HW132828   3.053   4.159   9.919  0.9966  0.3343 -0.8565
41926SOL    HW232829   3.155   4.107  10.018  0.0568  0.6570  0.2988
41927SOL     OW32830  10.089   8.142   0.847  0.2944  0.5101  0.4763
41927SOL    HW132831  10.114   8.233   0.856  2.6311 -0.1743  1.7330
41927SOL    HW232832  10.155   8.104   0.789  0.3929 -0.7097  1.3287
41928SOL     OW32833   3.061   1.113   5.521  0.2043  0.5403 -0.1238
41928SOL    HW132834   2.974   1.090   5.489  0.5506 -0.8906 -0.1141
41928SOL    HW232835   3.114   1.122   5.443  0.6064 -1.0931 -0.0882
41929SOL     OW32836   5.819   9.869   2.373  0.2531  1.3356  0.1815
41929SOL    HW132837   5.762   9.941   2.345 -0.5721  0.7240  0.2477
41929SOL    HW232838   5.898   9.879   2.320 -0.2701  1.6809 -0.5498
41930SOL     OW32839   9.577   0.664   9.233 -0.0002 -0.3234 -0.0728
41930SOL    HW132840   9.611   0.701   9.315  1.8277 -0.9752 -0.5009
41930SOL    HW232841   9.643   0.685   9.167 -1.1229 -0.3955 -1.2738
41931SOL     OW32842   7.104   0.904   7.073 -0.5505 -0.5695 -0.0690
41931SOL    HW132843   7.143   0.926   7.158 -2.0487  1.3650  0.1981
41931SOL    HW232844   7.173   0.857   7.026  0.9826  0.0048  1.5036
41932SOL     OW32845   4.275   8.041  11.473 -0.0868 -0.4025  0.1370
41932SOL    HW132846   4.215   8.097  11.523  0.1177  0.5313 -0.6233
41932SOL    HW232847   4.340   8.102  11.438  0.1752 -1.1351 -0.6760
41933SOL     OW32848   8.094   4.281   1.048 -0.1370 -0.5221  0.1209
41933SOL    HW132849   8.088   4.311   1.139  0.4660 -0.8092  0.2588
41933SOL    HW232850   8.159   4.338   1.009  0.9268 -1.5519  0.3519
41934SOL     OW32851   2.456   9.191   6.633 -0.0780 -0.2340 -0.8474
41934SOL    HW132852   2.361   9.199   6.640 -0.2165  0.3922 -2.8062
41934SOL    HW232853   2.488   9.282   6.632  0.2780 -0.3438 -2.6097
41935SOL     OW32854   8.082   2.922   5.335  0.0769  0.0487 -0.7275
41935SOL    HW132855   8.002   2.973   5.345  0.4690  0.8028 -1.3455
41935SOL    HW232856   8.147   2.985   5.304  1.5253 -0.0130  1.8322
41936SOL     OW32857   1.103   6.638  11.439  0.1335 -0.6360 -0.5921
41936SOL    HW132858   1.148   6.556  11.419  1.1213 -0.3024  0.1914
41936SOL    HW232859   1.172   6.697  11.468 -0.8802 -0.3090  1.2976
41937SOL     OW32860   0.375   5.495   3.462  0.0997  0.2602  0.3229
41937SOL    HW132861   0.364   5.408   3.499 -1.5397  1.0207  1.7035
41937SOL    HW232862   0.416   5.479   3.377  0.3212 -1.8061  0.7688
41938SOL     OW32863   1.720   4.742   2.094  0.0032  0.0394 -0.3184
41938SOL    HW132864   1.692   4.698   2.174  0.3650 -1.7672 -1.1310
41938SOL    HW232865   1.641   4.749   2.040 -0.1633  0.9187  0.0133
41939SOL     OW32866   7.396  11.400  10.006 -0.1365  0.2584 -0.7655
41939SOL    HW132867   7.373  11.355  10.087 -1.1989  0.8357 -0.7295
41939SOL    HW232868   7.330  11.468   9.997 -0.2188 -0.0058 -2.2980
41940SOL     OW32869   0.829   7.838   0.862  0.7216  0.0365 -0.2119
41940SOL    HW132870   0.742   7.802   0.847  1.0961 -1.7852  1.5665
41940SOL    HW232871   0.889   7.765   0.847  1.5628 -0.0738  2.9623
41941SOL     OW32872   2.403   6.141   3.301 -0.2290 -0.4045 -0.2582
41941SOL    HW132873   2.349   6.062   3.294 -2.3196  0.8943  0.3423
41941SOL    HW232874   2.444   6.135   3.387 -0.4757 -0.7857 -0.1663
41942SOL     OW32875   2.860   3.860   5.087  0.1645 -0.4209  0.5307
41942SOL    HW132876   2.910   3.897   5.159 -0.7159 -0.3880  1.1377
41942SOL    HW232877   2.801   3.797   5.128 -2.1529  1.4013  0.2433
41943SOL     OW32878   2.905  11.058   9.547 -0.1091 -0.5591  0.4170
41943SOL    HW132879   2.913  11.123   9.617 -0.6900  1.9359 -1.7083
41943SOL    HW232880   2.995  11.038   9.522  0.0801 -0.8220  1.2781
41944SOL     OW32881   0.545  12.331   5.670 -0.3800 -0.2254  0.3540
41944SOL    HW132882   0.630  12.291   5.652  1.1909  2.7413  0.4724
41944SOL    HW232883   0.502  12.336   5.584  1.1861  1.4931 -0.3958
41945SOL     OW32884   9.474   8.170  12.511  0.2346  0.2925 -0.2182
41945SOL    HW132885   9.456   8.259  12.543  1.3403  0.1188  1.0003
41945SOL    HW232886   9.422   8.114  12.568  2.2943 -0.0289  1.4729
41946SOL     OW32887   7.597   2.225   4.647 -0.7189 -0.4278  0.0146
41946SOL    HW132888   7.646   2.175   4.582  0.3725  0.5426  0.0688
41946SOL    HW232889   7.596   2.168   4.725  1.4111 -0.0057  0.4204
41947SOL     OW32890   6.423  12.431   2.046 -0.4202  0.0761 -0.1791
41947SOL    HW132891   6.374  12.483   1.983  0.0647 -0.8926 -1.3846
41947SOL    HW232892   6.480  12.495   2.089 -2.4063  1.1693  1.0183
41948SOL     OW32893   0.364   2.610   3.678 -0.2158  0.0501 -0.3409
41948SOL    HW132894   0.364   2.701   3.649 -0.4257 -0.5715 -2.4442
41948SOL    HW232895   0.456   2.591   3.699 -0.4473  1.2868  2.1675
41949SOL     OW32896   0.903   6.287  11.050  0.2448 -0.0507  0.5013
41949SOL    HW132897   0.975   6.345  11.075 -1.0051  1.6709  0.3279
41949SOL    HW232898   0.867   6.326  10.970 -2.2082  0.4438  1.7320
41950SOL     OW32899   3.228   6.215   0.550 -0.2107 -0.1953 -0.1905
41950SOL    HW132900   3.236   6.125   0.519  0.6547 -0.2850  0.2568
41950SOL    HW232901   3.275   6.267   0.485 -1.4433  0.0473 -0.9073
41951SOL     OW32902   8.780   3.633   3.284  0.6425  0.0347  0.0729
41951SOL    HW132903   8.860   3.605   3.328  1.1403 -2.0574 -1.9826
41951SOL    HW232904   8.794   3.726   3.266  2.5216 -0.2387 -0.0446
41952SOL     OW32905   7.299   7.096   4.469 -0.2159  0.4072 -0.0382
41952SOL    HW132906   7.264   7.182   4.493 -1.0274  0.3989 -1.1338
41952SOL    HW232907   7.277   7.040   4.543  0.8888  1.2628  0.9836
41953SOL     OW32908   2.705   9.135  12.196 -0.3935  0.0059 -0.2540
41953SOL    HW132909   2.710   9.231  12.196 -0.3395  0.0120 -1.3133
41953SOL    HW232910   2.612   9.116  12.208 -0.6268  0.2261 -1.6006
41954SOL     OW32911   2.251   9.377   9.396  0.5346 -0.5322 -0.6277
41954SOL    HW132912   2.266   9.284   9.381  0.2770 -1.2232  2.5497
41954SOL    HW232913   2.189   9.379   9.470 -1.0380  2.1899 -1.8524
41955SOL     OW32914   3.801   6.914   2.015 -0.0681 -0.0225 -0.1207
41955SOL    HW132915   3.888   6.893   1.979  0.0089  1.4197 -0.8387
41955SOL    HW232916   3.745   6.920   1.938 -0.8262 -0.9039  0.3376
41956SOL     OW32917   1.471   6.262   4.812  0.1503  0.2958  0.6688
41956SOL    HW132918   1.517   6.178   4.808  1.7204  1.1496 -0.2159
41956SOL    HW232919   1.539   6.327   4.794 -1.7972  1.5268 -3.5388
41957SOL     OW32920   2.769   0.616   7.895  0.5031  0.0746  0.7536
41957SOL    HW132921   2.736   0.596   7.807  0.5309  2.0288  0.2453
41957SOL    HW232922   2.691   0.641   7.945  0.6554  0.3217  0.8709
41958SOL     OW32923   1.786   6.841   5.862 -0.0462  0.5962  0.2081
41958SOL    HW132924   1.708   6.854   5.807  2.3243  2.3912 -3.0975
41958SOL    HW232925   1.816   6.752   5.840 -1.3113 -0.3345  1.9290
41959SOL     OW32926  10.194   5.481   6.858  0.0296 -0.4950  0.1496
41959SOL    HW132927  10.150   5.486   6.943  0.6246 -1.1088  0.4992
41959SOL    HW232928  10.151   5.410   6.812 -2.2435  1.5997 -1.2354
41960SOL     OW32929   9.155   8.752  10.949 -0.2136 -0.4244  0.2433
41960SOL    HW132930   9.145   8.835  10.902  0.1891 -0.3992  0.1952
41960SOL    HW232931   9.112   8.687  10.894 -0.0384 -0.3385  0.0022
41961SOL     OW32932  10.915  12.513   8.929  0.0386  0.4843 -0.1758
41961SOL    HW132933  10.909  12.515   9.025  2.3011 -1.0303  0.0728
41961SOL    HW232934  10.827  12.488   8.901 -0.5241  0.3643  1.5385
41962SOL     OW32935   9.684   1.116   4.168  0.5191  0.4557  0.2249
41962SOL    HW132936   9.628   1.185   4.134  2.2974  1.6574 -0.4237
41962SOL    HW232937   9.752   1.105   4.101  1.3275 -0.6122  1.1749
41963SOL     OW32938   8.750   0.704   5.229 -0.5307 -0.2708 -0.4664
41963SOL    HW132939   8.777   0.693   5.138 -1.3787 -0.7349 -0.6729
41963SOL    HW232940   8.789   0.630   5.276 -0.3021 -0.1696 -0.4954
41964SOL     OW32941   0.338   4.058   8.217 -0.5032  0.1093  0.2637
41964SOL    HW132942   0.245   4.037   8.216 -0.5517  0.1046  2.1792
41964SOL    HW232943   0.358   4.078   8.125 -2.3723  0.1101 -0.1952
41965SOL     OW32944   5.040   8.319  12.174  0.0658  0.4752  0.7920
41965SOL    HW132945   4.955   8.284  12.147  1.2861 -0.2735 -2.4926
41965SOL    HW232946   5.083   8.344  12.092  2.8834  1.1909  2.3618
41966SOL     OW32947   7.923   3.491  10.627  0.0039 -0.4828  0.1998
41966SOL    HW132948   7.899   3.449  10.544  0.7463 -0.5609  0.0213
41966SOL    HW232949   7.954   3.419  10.682 -1.9722 -0.7021  1.1462
41967SOL     OW32950   0.713   2.939  10.114  0.3623 -0.2859  0.2015
41967SOL    HW132951   0.694   2.846  10.104 -0.0907 -0.2161  0.3936
41967SOL    HW232952   0.755   2.964  10.031 -1.3189 -0.2132 -0.6592
41968SOL     OW32953   9.389  10.470   9.870  0.2559  0.5166 -0.2526
41968SOL    HW132954   9.326  10.411   9.912  2.3188 -0.9278  1.0285
41968SOL    HW232955   9.405  10.432   9.784  1.4081 -0.7137  0.4833
41969SOL     OW32956  12.265   1.054   2.273 -0.0354 -0.2969  0.3716
41969SOL    HW132957  12.265   1.146   2.298  0.5708 -0.5653  1.3804
41969SOL    HW232958  12.251   1.006   2.355 -0.9695 -1.0897 -0.2233
41970SOL     OW32959   0.401   3.950  12.211  0.3329 -0.1380  0.1103
41970SOL    HW132960   0.480   4.003  12.201 -1.2889  2.1805 -1.0614
41970SOL    HW232961   0.395   3.935  12.306  0.9200  1.6532  0.4623
41971SOL     OW32962  10.769   4.452   9.607  0.5426 -0.8830 -0.3063
41971SOL    HW132963  10.783   4.421   9.697  0.4017 -0.6663 -0.2068
41971SOL    HW232964  10.854   4.489   9.582  0.4665 -0.5656 -0.1080
41972SOL     OW32965   5.297   9.578   2.355  0.1381 -0.2852 -0.1441
41972SOL    HW132966   5.389   9.567   2.331  0.0454 -0.5388 -0.3866
41972SOL    HW232967   5.275   9.666   2.323  0.1416 -0.4419 -0.5886
41973SOL     OW32968  12.496  11.614   4.142 -0.1141 -0.0612 -0.6774
41973SOL    HW132969  12.405  11.603   4.169  0.1485 -0.9697 -0.1294
41973SOL    HW232970  12.534  11.526   4.147  0.0437 -0.2551 -3.7439
41974SOL     OW32971  12.016   7.422   8.761 -0.2419 -0.3180 -0.0387
41974SOL    HW132972  11.944   7.367   8.728 -0.3207 -0.1610 -0.1320
41974SOL    HW232973  11.987   7.448   8.848 -0.6772  0.4209 -0.3980
41975SOL     OW32974   1.619   2.849  11.104 -0.2354 -0.8439 -0.3899
41975SOL    HW132975   1.556   2.851  11.175  0.7646 -1.5629  0.5454
41975SOL    HW232976   1.568   2.822  11.027 -1.5626  1.0572 -0.2358
41976SOL     OW32977  12.096   3.204   6.017 -0.3833  0.2295 -0.6359
41976SOL    HW132978  12.155   3.279   6.017  1.7043 -1.1941  2.0209
41976SOL    HW232979  12.035   3.221   6.089 -0.1261 -0.3911 -0.2558
41977SOL     OW32980   1.235  11.365  10.610  0.4445 -0.2747 -0.0237
41977SOL    HW132981   1.184  11.321  10.542 -0.8039  1.1079 -0.0208
41977SOL    HW232982   1.323  11.327  10.602 -0.7402 -3.4485  0.6299
41978SOL     OW32983   4.317   1.384   7.680  0.2788 -0.0560 -0.7079
41978SOL    HW132984   4.375   1.311   7.656 -0.3113 -0.1303 -1.9707
41978SOL    HW232985   4.353   1.417   7.762 -1.1777 -3.6471  1.5690
41979SOL     OW32986   1.358  12.138   6.055  0.2314  0.8540  0.0934
41979SOL    HW132987   1.394  12.204   6.114  2.1131 -1.5887  1.8946
41979SOL    HW232988   1.435  12.100   6.012 -0.7161 -0.5971 -0.3774
41980SOL     OW32989  12.094   7.520   7.707  0.0427  0.3903 -0.5541
41980SOL    HW132990  12.179   7.544   7.744 -0.0186  1.4211 -1.0301
41980SOL    HW232991  12.031   7.545   7.774 -0.0114  1.5395 -0.9996
41981SOL     OW32992   4.943   9.501   8.267 -0.3077  0.3172  0.0296
41981SOL    HW132993   4.933   9.555   8.345  0.2364 -0.0798  0.3814
41981SOL    HW232994   4.975   9.417   8.300 -5.0771 -1.7928  0.0152
41982SOL     OW32995  11.758  12.296   9.364 -0.2540  0.5630 -0.6575
41982SOL    HW132996  11.798  12.278   9.449  0.5947 -1.3073 -1.4177
41982SOL    HW232997  11.665  12.277   9.377  0.0225 -0.6719 -0.3906
41983SOL     OW32998   6.983  10.636   9.879  0.3066  0.2258 -0.4443
41983SOL    HW132999   6.973  10.696   9.953 -0.2492 -1.0226  0.5237
41983SOL    HW233000   7.078  10.631   9.865  0.3526  1.5131 -0.7188
41984SOL     OW33001   3.799  11.431   6.918 -0.0114  0.0573 -0.4911
41984SOL    HW133002   3.834  11.398   7.000 -1.5487  0.9539  0.5693
41984SOL    HW233003   3.729  11.371   6.895 -0.5554  0.6362 -0.3642
41985SOL     OW33004   8.447   6.424   2.864  0.2884 -0.0445  0.4164
41985SOL    HW133005   8.393   6.346   2.863 -0.8531  0.7187 -0.4447
41985SOL    HW233006   8.400   6.486   2.920 -1.2170  1.5560 -2.3670
41986SOL     OW33007   3.194   9.696   2.651 -0.8944  0.4616  0.4707
41986SOL    HW133008   3.237   9.780   2.636 -1.2971  0.5794 -0.0649
41986SOL    HW233009   3.104   9.719   2.673 -1.0096  0.1722  0.3130
41987SOL     OW33010   0.799   0.341   7.028 -1.2263 -0.3570  0.2467
41987SOL    HW133011   0.768   0.403   6.962  0.9370  0.6949  0.1452
41987SOL    HW233012   0.743   0.356   7.104 -1.7897  0.5579 -0.3322
41988SOL     OW33013   6.112   0.494  10.070 -0.1956 -0.7990 -0.7172
41988SOL    HW133014   6.125   0.573  10.017  0.7411 -0.4135  0.0387
41988SOL    HW233015   6.107   0.527  10.160 -1.4079 -1.4713 -0.5307
41989SOL     OW33016   1.861   1.304   9.874 -0.1090  0.2509 -0.0270
41989SOL    HW133017   1.891   1.384   9.916 -0.2245  0.5177 -0.4442
41989SOL    HW233018   1.934   1.243   9.881 -0.9906 -0.6493  2.9164
41990SOL     OW33019   9.929  12.583   4.895  0.0748  0.3210  0.1240
41990SOL    HW133020   9.907  12.495   4.923  1.8041 -0.1640  0.0959
41990SOL    HW233021   9.920  12.637   4.974 -0.6193  0.0668  0.2251
41991SOL     OW33022   6.641  11.580   2.555  0.3024  1.0316  0.3093
41991SOL    HW133023   6.573  11.591   2.488  0.5376  0.1928 -0.0758
41991SOL    HW233024   6.717  11.547   2.508  1.1539  2.3741  0.6677
41992SOL     OW33025   4.822  11.240   5.304  0.1095 -0.3592 -0.8997
41992SOL    HW133026   4.782  11.315   5.259  0.9821 -0.5544 -2.0447
41992SOL    HW233027   4.772  11.231   5.385 -0.5985  0.8929 -1.1736
41993SOL     OW33028   3.302  11.363   1.178  0.1977  0.5578 -0.2370
41993SOL    HW133029   3.232  11.353   1.113  0.6564  0.4075 -0.7262
41993SOL    HW233030   3.270  11.429   1.239 -0.6552 -0.0116 -0.0565
41994SOL     OW33031   3.257   8.737   3.571 -0.5773  0.1212 -0.1937
41994SOL    HW133032   3.332   8.722   3.629 -0.0775  0.3474 -0.7684
41994SOL    HW233033   3.182   8.704   3.620 -0.1756  0.3677  0.6055
41995SOL     OW33034   7.734   7.584   8.447  0.0927 -0.3055  0.3524
41995SOL    HW133035   7.781   7.641   8.386  1.2163 -1.9741 -0.4338
41995SOL    HW233036   7.677   7.531   8.392  0.2386 -1.0179  0.8625
41996SOL     OW33037   9.001   5.337   7.232 -0.5780  0.0063 -0.5228
41996SOL    HW133038   8.989   5.430   7.250 -0.8619 -0.4938  2.3217
41996SOL    HW233039   8.918   5.310   7.192 -1.9097  0.3263  1.8819
41997SOL     OW33040   0.980   3.054   5.742  0.0610  0.3536  0.2557
41997SOL    HW133041   1.059   3.035   5.691  0.2546 -1.2238  1.0897
41997SOL    HW233042   0.983   2.993   5.815 -1.9779  0.1716  0.2571
41998SOL     OW33043  12.463   0.757  10.830 -0.0103 -0.5176  0.0560
41998SOL    HW133044  12.422   0.835  10.868 -1.4101 -1.1748 -0.0378
41998SOL    HW233045  12.485   0.703  10.906 -1.7224 -1.3013  0.0430
41999SOL     OW33046   1.739   7.265   2.457  0.3464  0.4520 -0.5812
41999SOL    HW133047   1.706   7.281   2.369 -1.2921 -1.0201 -0.2787
41999SOL    HW233048   1.793   7.187   2.449  0.1234  0.2641 -0.2788
42000SOL     OW33049  12.253   3.060   3.750 -0.0757 -0.5167 -0.5875
42000SOL    HW133050  12.202   3.075   3.829  0.6435 -1.7249  0.1465
42000SOL    HW233051  12.311   3.136   3.743 -1.7452  0.7512 -1.3031
42001SOL     OW33052   8.206   8.127  10.549  0.4215 -0.4061  0.5153
42001SOL    HW133053   8.124   8.172  10.571  0.8425  1.0531 -0.7633
42001SOL    HW233054   8.252   8.187  10.491  2.4210 -1.1953  1.1924
42002SOL     OW33055   1.190   3.114   3.159 -0.8125  0.8876  0.1038
42002SOL    HW133056   1.162   3.044   3.218 -0.7471  0.7287 -0.0513
42002SOL    HW233057   1.154   3.089   3.074 -0.0002  0.5547 -0.1518
42003SOL     OW33058   1.542   7.616   6.813  0.4113 -0.0342  0.3064
42003SOL    HW133059   1.551   7.570   6.730 -1.4420  1.2758 -0.6915
42003SOL    HW233060   1.540   7.708   6.789 -2.7984  0.3096  1.4475
42004SOL     OW33061  11.533  10.549   4.466 -0.1438  0.1938  0.0908
42004SOL    HW133062  11.616  10.594   4.484 -1.0808  2.5646 -1.1753
42004SOL    HW233063  11.547  10.506   4.382 -0.2342  0.6893 -0.1773
42005SOL     OW33064   5.504   2.943   0.085 -0.2018  0.4622 -0.1628
42005SOL    HW133065   5.456   2.887   0.146 -1.2334  1.0365 -0.4207
42005SOL    HW233066   5.572   2.984   0.139 -0.4764  0.2106  0.3834
42006SOL     OW33067   0.092   0.707   6.523  0.0433 -0.6252 -0.0046
42006SOL    HW133068   0.011   0.731   6.477  0.1140  0.3366  0.3581
42006SOL    HW233069   0.094   0.764   6.599  0.3339 -1.6655  0.7902
42007SOL     OW33070   9.316   7.254   3.782  0.4709 -0.7667  0.5298
42007SOL    HW133071   9.306   7.322   3.848 -1.1110  1.9254 -2.1804
42007SOL    HW233072   9.403   7.269   3.745  0.0112  0.0566 -0.2611
42008SOL     OW33073   9.192   8.521   7.491  0.2921  0.2407  0.4748
42008SOL    HW133074   9.182   8.426   7.483 -2.7293  0.5993 -1.8224
42008SOL    HW233075   9.169   8.541   7.582 -0.8922 -1.1017  0.5040
42009SOL     OW33076  11.289   7.394   2.834  0.0256  0.1209 -0.3011
42009SOL    HW133077  11.312   7.366   2.745  2.1861 -0.4937  0.4154
42009SOL    HW233078  11.355   7.355   2.890 -0.1966  2.0338  1.4024
42010SOL     OW33079   3.618   1.234   1.859 -0.5446  0.2922 -0.2152
42010SOL    HW133080   3.596   1.277   1.776  0.3036  0.9817 -0.0985
42010SOL    HW233081   3.711   1.212   1.851 -0.5735 -0.0845  0.3690
42011SOL     OW33082   9.295   5.880   8.842  0.0036 -0.5923  0.1494
42011SOL    HW133083   9.332   5.878   8.930  1.2594 -0.0956 -0.3357
42011SOL    HW233084   9.313   5.792   8.807  1.3202 -0.1700 -0.2936
42012SOL     OW33085   5.360   8.379   4.753 -0.2018 -0.2000 -0.2798
42012SOL    HW133086   5.389   8.299   4.798 -0.2961  0.1151  0.3611
42012SOL    HW233087   5.437   8.409   4.706  0.0110 -0.3334 -0.0229
42013SOL     OW33088   6.392   6.435   2.093  0.0915  0.1631  0.2813
42013SOL    HW133089   6.423   6.448   2.004  1.7240 -0.3760  0.7353
42013SOL    HW233090   6.466   6.395   2.139 -0.5556  0.8367  1.9968
42014SOL     OW33091  11.206   8.222  10.057 -0.1110 -0.1517 -0.1740
42014SOL    HW133092  11.277   8.270  10.015 -1.4802  0.4988 -1.8333
42014SOL    HW233093  11.248   8.178  10.132  1.9295  0.5250 -0.8592
42015SOL     OW33094   5.992   4.632   0.509  0.4477  0.1102  0.1565
42015SOL    HW133095   5.908   4.590   0.493  0.7253 -0.4552  0.1585
42015SOL    HW233096   5.994   4.706   0.448  1.0496 -1.4035 -1.7278
42016SOL     OW33097   3.003   9.021  12.468  0.3990 -0.0960  0.0138
42016SOL    HW133098   3.084   9.013  12.518 -0.2632  1.7812  1.5629
42016SOL    HW233099   3.030   9.022  12.377  1.8320 -2.0631  0.3703
42017SOL     OW33100   7.482   1.255   6.410 -0.5567 -0.0414 -0.0526
42017SOL    HW133101   7.576   1.265   6.426 -0.4001  0.1441 -1.0019
42017SOL    HW233102   7.457   1.177   6.459 -0.2241  0.7412  1.4185
42018SOL     OW33103   7.883   1.147   3.303 -0.5630  0.2822  0.1287
42018SOL    HW133104   7.809   1.162   3.362 -0.5288 -1.1119  0.5807
42018SOL    HW233105   7.861   1.195   3.223 -1.7861  0.1833  0.3905
42019SOL     OW33106  12.284   9.790   3.192 -0.3677 -0.1118 -0.2051
42019SOL    HW133107  12.366   9.810   3.147 -0.2298 -0.3753 -0.0751
42019SOL    HW233108  12.306   9.718   3.251  0.0920  1.7925  2.1382
42020SOL     OW33109  12.556   7.032   6.713 -0.2431 -0.6124  0.3375
42020SOL    HW133110  12.645   7.066   6.697 -0.7691  0.8945  0.4002
42020SOL    HW233111  12.569   6.940   6.735  1.1069 -1.0234 -1.8570
42021SOL     OW33112   9.569   4.762  10.262 -0.0429 -0.2462 -0.3622
42021SOL    HW133113   9.493   4.819  10.272 -0.5190 -0.5208 -2.1294
42021SOL    HW233114   9.636   4.817  10.222 -0.1822 -0.6525 -1.1776
42022SOL     OW33115   9.705   3.965   3.338  0.3641 -0.0001 -0.7423
42022SOL    HW133116   9.674   4.053   3.356 -2.3004 -0.9796 -0.1106
42022SOL    HW233117   9.699   3.919   3.422  2.3440 -0.6542 -0.9035
42023SOL     OW33118  10.144   8.795   2.018 -0.2961  0.0061 -0.4690
42023SOL    HW133119  10.199   8.766   2.092  0.5324  0.6919 -0.7968
42023SOL    HW233120  10.056   8.765   2.040 -0.3416  1.3862  1.4902
42024SOL     OW33121  10.662   1.414   5.425  0.1253  0.3379  0.2724
42024SOL    HW133122  10.718   1.365   5.485 -0.3950  0.6824  1.0425
42024SOL    HW233123  10.598   1.458   5.481 -0.1177  0.9902 -0.4938
42025SOL     OW33124   1.261   4.478  11.867 -0.2019 -0.8113  0.3368
42025SOL    HW133125   1.338   4.470  11.812 -0.5326  1.5766 -0.6067
42025SOL    HW233126   1.234   4.388  11.885  2.9185 -1.7267  0.9555
42026SOL     OW33127   7.986   5.740   3.851 -0.3069 -0.4291  0.1243
42026SOL    HW133128   8.022   5.823   3.821 -1.4049 -0.6472 -1.9219
42026SOL    HW233129   8.062   5.683   3.860  0.2874  0.3254  0.0110
42027SOL     OW33130   4.756  12.340   5.455  0.3584  0.3266  0.2300
42027SOL    HW133131   4.711  12.354   5.538 -0.0968 -0.4444  0.1210
42027SOL    HW233132   4.752  12.246   5.441  0.8044  0.4014 -0.4647
42028SOL     OW33133   6.814   7.453  10.105  0.7298  0.1295  1.0108
42028SOL    HW133134   6.746   7.392  10.134  0.2547  0.4394  0.5646
42028SOL    HW233135   6.824   7.515  10.177 -1.7350  1.9964 -0.0852
42029SOL     OW33136   9.671  11.278   2.735 -0.1997  0.1509 -0.2971
42029SOL    HW133137   9.592  11.246   2.779 -0.8578  1.0214 -0.8046
42029SOL    HW233138   9.705  11.346   2.794 -0.3182  0.3735 -0.4840
42030SOL     OW33139   7.099   8.227   4.413  0.1054  0.1732  0.5460
42030SOL    HW133140   7.187   8.246   4.447 -0.1865  1.9336  0.4079
42030SOL    HW233141   7.077   8.303   4.360 -1.0814 -0.7462 -0.3312
42031SOL     OW33142   9.104   9.385   5.738  0.1061  0.7801  0.1092
42031SOL    HW133143   9.137   9.403   5.826 -3.1375  1.0254  1.3773
42031SOL    HW233144   9.068   9.469   5.708  1.5293  0.8163 -1.7152
42032SOL     OW33145   6.154   6.790   4.899 -0.5084 -0.2079  0.1948
42032SOL    HW133146   6.074   6.802   4.949 -0.9961  0.6779 -0.7707
42032SOL    HW233147   6.133   6.721   4.836 -0.7649  0.5632 -0.5705
42033SOL     OW33148   7.295  12.492   6.095  0.2285 -0.1672  0.0538
42033SOL    HW133149   7.299  12.456   6.184  2.0268 -0.3314 -0.0631
42033SOL    HW233150   7.386  12.504   6.069 -0.1730 -1.5169 -2.3350
42034SOL     OW33151  12.333  12.316   8.702 -0.5748 -0.7235  0.1924
42034SOL    HW133152  12.259  12.261   8.678 -0.0360 -1.1011 -0.6582
42034SOL    HW233153  12.298  12.405   8.703 -1.0341 -0.8966 -0.2292
42035SOL     OW33154   8.102   5.604   7.688  0.4144  0.1902 -0.0825
42035SOL    HW133155   8.096   5.607   7.784 -0.2400 -0.0348 -0.1074
42035SOL    HW233156   8.014   5.630   7.659  0.3169 -0.6940 -0.6001
42036SOL     OW33157  12.364  11.664  11.118 -0.0249  0.2836  0.1881
42036SOL    HW133158  12.381  11.657  11.023  1.0268 -0.2070  0.3925
42036SOL    HW233159  12.336  11.576  11.143 -2.3942  0.9165 -0.0130
42037SOL     OW33160  10.475   8.204   7.661  0.1269  0.3207  0.0879
42037SOL    HW133161  10.547   8.206   7.598  0.1081  1.4739  0.0730
42037SOL    HW233162  10.489   8.124   7.711 -1.1962 -1.9629 -2.8844
42038SOL     OW33163  10.845  11.491   7.684 -0.1788 -0.2431  0.0056
42038SOL    HW133164  10.920  11.505   7.627 -0.3474  2.5290  0.3031
42038SOL    HW233165  10.881  11.448   7.762  0.9441  0.3050 -0.1979
42039SOL     OW33166   3.684   3.795   2.695  0.3783 -0.3066 -0.2458
42039SOL    HW133167   3.648   3.873   2.737 -0.4333 -0.2517 -1.0308
42039SOL    HW233168   3.779   3.805   2.705  0.3044  0.9242 -0.5906
42040SOL     OW33169  10.330   2.003   6.901  0.0730  0.4374 -0.1456
42040SOL    HW133170  10.302   1.913   6.885  1.8229 -0.1149 -0.3046
42040SOL    HW233171  10.248   2.053   6.910 -0.9202 -1.0571 -0.6054
42041SOL     OW33172   4.698   9.419   3.051 -0.0125  0.5402  0.2985
42041SOL    HW133173   4.623   9.361   3.041 -0.6723  1.2974  0.6717
42041SOL    HW233174   4.749   9.408   2.971 -2.0705  2.1570 -1.3435
42042SOL     OW33175  11.904   9.001  11.006  0.2617  0.5298  0.3312
42042SOL    HW133176  11.961   9.000  11.084  1.9969 -3.2498 -0.7556
42042SOL    HW233177  11.829   8.948  11.031  0.2190  0.3525 -0.1610
42043SOL     OW33178   8.782   9.610   8.087  0.6117 -0.3505  0.4417
42043SOL    HW133179   8.875   9.626   8.102  1.0311 -2.1342 -0.0889
42043SOL    HW233180   8.740   9.634   8.169  1.3881  1.3947  0.3771
42044SOL     OW33181   9.134   4.494   2.429  0.0422 -0.4304 -1.0161
42044SOL    HW133182   9.152   4.491   2.336 -2.0536  1.6277 -1.6010
42044SOL    HW233183   9.079   4.418   2.446  1.0589 -1.2381 -1.2643
42045SOL     OW33184   5.734   2.142  12.499 -0.2811  0.2472 -0.0693
42045SOL    HW133185   5.689   2.060  12.477  1.0525 -0.6202  0.2864
42045SOL    HW233186   5.664   2.203  12.522 -1.2581 -1.0790  0.5803
42046SOL     OW33187  11.160   8.544   4.185  0.6082  0.0579  0.9206
42046SOL    HW133188  11.221   8.613   4.212 -1.7206  3.0679 -0.8739
42046SOL    HW233189  11.144   8.561   4.092  0.4353 -3.4621  0.1722
42047SOL     OW33190   1.376   2.231   5.789 -0.2417  0.3893  0.5803
42047SOL    HW133191   1.321   2.156   5.768 -0.1695  0.7777 -1.0889
42047SOL    HW233192   1.316   2.306   5.785  0.3962  0.8485 -1.4926
42048SOL     OW33193  11.724  12.568   8.685 -0.0093  0.4584 -0.5153
42048SOL    HW133194  11.722  12.588   8.779 -0.1347  0.5749 -0.5426
42048SOL    HW233195  11.790  12.626   8.649  0.1003  0.3525 -0.4856
42049SOL     OW33196   3.006  11.165  12.067 -0.0666  0.5342 -0.3929
42049SOL    HW133197   3.005  11.249  12.022 -1.2634  0.0051 -1.3959
42049SOL    HW233198   2.976  11.102  12.002  1.0890 -0.7345  0.2465
42050SOL     OW33199   9.224   7.972   8.972 -0.1502 -0.2420  0.6428
42050SOL    HW133200   9.165   7.934   8.907  1.4938 -0.5778 -0.7224
42050SOL    HW233201   9.212   8.066   8.963 -0.2534 -0.3000  0.1546
42051SOL     OW33202  10.874   5.889   0.971  0.2507  0.2901  0.1956
42051SOL    HW133203  10.929   5.819   1.005  0.9302  0.4946 -0.4608
42051SOL    HW233204  10.911   5.969   1.009 -0.6105  0.2934  1.0569
42052SOL     OW33205   4.513  11.054   5.657  0.1638 -0.1293  0.3737
42052SOL    HW133206   4.605  11.038   5.676  0.1857 -0.4517  0.0025
42052SOL    HW233207   4.466  11.032   5.738  0.5017  0.9360  0.8737
42053SOL     OW33208  11.427   5.398   2.038  0.2208 -0.0993 -0.3399
42053SOL    HW133209  11.425   5.433   1.949 -0.2550  0.8420  0.0359
42053SOL    HW233210  11.400   5.470   2.094 -0.5305 -0.9769  0.4775
42054SOL     OW33211   5.002   6.419   2.519  0.3586 -0.0770 -0.2790
42054SOL    HW133212   4.957   6.461   2.446 -1.3589  0.5552  1.0673
42054SOL    HW233213   5.019   6.491   2.581 -0.6055 -0.9666  1.0763
42055SOL     OW33214   1.482   4.550   3.583  0.4717  0.3071 -0.8522
42055SOL    HW133215   1.569   4.540   3.545  0.6002 -0.7636 -0.3110
42055SOL    HW233216   1.457   4.462   3.611 -0.4196  0.7412 -0.2051
42056SOL     OW33217  10.148   4.235   5.453 -0.2701  0.9010 -0.1631
42056SOL    HW133218  10.134   4.151   5.409  4.3106  0.0885 -0.5403
42056SOL    HW233219  10.145   4.214   5.546  1.8667 -0.0692 -0.2398
42057SOL     OW33220   4.722   2.934   7.418  0.5050 -0.0013  0.0775
42057SOL    HW133221   4.663   2.916   7.491  0.7771 -2.3666 -0.2293
42057SOL    HW233222   4.675   2.902   7.341  1.0815  0.5913 -0.5395
42058SOL     OW33223   5.445   7.815  10.292  0.2695 -0.0215  0.1029
42058SOL    HW133224   5.413   7.833  10.380  2.0165  2.0611  0.3935
42058SOL    HW233225   5.444   7.719  10.285  1.2768 -0.3141  2.8583
42059SOL     OW33226   0.014   5.096   4.352  0.3268  0.5041  0.5074
42059SOL    HW133227   0.107   5.085   4.369  1.0852  1.8846 -2.2935
42059SOL    HW233228  -0.025   5.012   4.379  2.5282 -0.5604  0.5743
42060SOL     OW33229  10.454   7.354  11.932  0.3084  0.6876 -0.0023
42060SOL    HW133230  10.531   7.309  11.897 -0.1588 -0.7298  0.7106
42060SOL    HW233231  10.457   7.337  12.026 -0.4883  1.2529  0.1382
42061SOL     OW33232  11.892   5.833   4.060 -0.2036 -0.1617  0.0334
42061SOL    HW133233  11.918   5.824   4.152  1.0462 -1.5145 -0.4187
42061SOL    HW233234  11.799   5.857   4.064 -0.6387 -1.8710  1.6517
42062SOL     OW33235   1.910   5.096   3.538 -0.9854 -0.1918  0.0374
42062SOL    HW133236   1.856   5.020   3.514 -1.7640  0.4382 -0.2305
42062SOL    HW233237   1.943   5.075   3.626 -1.5738 -0.6333  0.1602
42063SOL     OW33238   5.399   2.256   4.959  0.2396  0.4764  0.0559
42063SOL    HW133239   5.373   2.302   5.038  0.2572  0.1887  0.2300
42063SOL    HW233240   5.387   2.163   4.980  1.5508  0.3219  0.1975
42064SOL     OW33241  11.805   3.739   1.356  0.5730 -0.0081  0.5273
42064SOL    HW133242  11.752   3.776   1.426 -0.6661 -1.7514  0.5688
42064SOL    HW233243  11.764   3.655   1.336  0.9422  0.3438 -2.1950
42065SOL     OW33244   4.541  11.256   6.718 -0.2494  0.0797 -0.2731
42065SOL    HW133245   4.601  11.186   6.693  0.4810  0.8250 -0.6674
42065SOL    HW233246   4.525  11.303   6.636 -1.8757 -0.4666 -0.2979
42066SOL     OW33247   1.612   7.007  11.118 -0.3133  0.2312  0.9668
42066SOL    HW133248   1.591   7.059  11.196 -1.8336  0.4728  0.4341
42066SOL    HW233249   1.529   7.001  11.071  0.4308 -0.5048 -0.2917
42067SOL     OW33250   7.134  12.236   9.926  0.0535 -0.3189  1.1843
42067SOL    HW133251   7.155  12.143   9.920 -0.8124 -0.4400 -1.4217
42067SOL    HW233252   7.201  12.279   9.873 -1.0043  0.2155  0.2292
42068SOL     OW33253   4.908  11.399   8.068 -0.1045 -0.1735  0.3284
42068SOL    HW133254   4.950  11.441   7.993 -0.7301 -0.2762 -0.0896
42068SOL    HW233255   4.834  11.457   8.089  1.0722  0.8061  1.9923
42069SOL     OW33256   5.951  10.811   0.834  0.3709 -0.2761  0.9761
42069SOL    HW133257   5.998  10.895   0.833  0.7164 -0.4759 -0.5365
42069SOL    HW233258   5.978  10.770   0.916  2.4509 -0.1489  0.4043
42070SOL     OW33259   4.731   0.598   9.585 -0.0227 -0.0677 -0.3243
42070SOL    HW133260   4.732   0.559   9.672 -0.2630  0.4696 -0.0797
42070SOL    HW233261   4.677   0.676   9.594 -0.3147 -0.1801 -1.0297
42071SOL     OW33262  12.001   4.699   5.839 -0.2413  0.1871 -0.3859
42071SOL    HW133263  12.009   4.651   5.921  0.9593 -1.2092 -1.2803
42071SOL    HW233264  11.912   4.679   5.808 -0.5118  0.3050  0.3140
42072SOL     OW33265   8.410   8.655  10.068  0.7304 -0.1970  0.1442
42072SOL    HW133266   8.371   8.738  10.038  1.2323  0.2235  0.6320
42072SOL    HW233267   8.380   8.590  10.004  0.5410  0.4068 -0.3933
42073SOL     OW33268   3.314  11.034   5.663  0.0653  0.4295 -0.2501
42073SOL    HW133269   3.288  11.099   5.598 -1.3678 -0.9730 -1.1267
42073SOL    HW233270   3.235  11.020   5.716 -0.2156 -1.7787 -1.1324
42074SOL     OW33271   4.591  11.219  10.240 -0.0113  1.0359 -0.4205
42074SOL    HW133272   4.665  11.192  10.185 -0.6143  1.2452 -1.3534
42074SOL    HW233273   4.518  11.227  10.179 -0.4773  2.1779  0.2593
42075SOL     OW33274   0.782  12.132   9.654 -0.5397  0.0209 -0.3603
42075SOL    HW133275   0.718  12.064   9.631  0.7365 -1.7676  0.9938
42075SOL    HW233276   0.849  12.085   9.705  1.1187  2.0712 -0.5074
42076SOL     OW33277   1.555   9.277   5.508  0.3939  0.2682  0.7310
42076SOL    HW133278   1.522   9.296   5.596 -1.0562 -0.9243  0.4956
42076SOL    HW233279   1.601   9.356   5.482  0.2646  0.8965  2.3000
42077SOL     OW33280   8.444   6.297  11.653 -0.3560 -0.0001  0.1608
42077SOL    HW133281   8.516   6.326  11.597 -1.1361  2.7617  0.4706
42077SOL    HW233282   8.432   6.367  11.716 -1.7064 -1.5338  1.7242
42078SOL     OW33283   7.048   5.438   6.345 -0.2489  0.2963 -0.3911
42078SOL    HW133284   7.043   5.390   6.263 -0.1720  0.9765 -0.8003
42078SOL    HW233285   7.128   5.490   6.338  2.6496 -3.2957  2.1358
42079SOL     OW33286   5.451   8.864   2.602  0.4292  0.1996 -0.5358
42079SOL    HW133287   5.424   8.818   2.681  0.6375 -0.0646 -0.6159
42079SOL    HW233288   5.377   8.920   2.579 -0.4294 -1.1956 -1.2812
42080SOL     OW33289  12.254  11.546   4.263 -0.3099  0.3764 -0.4862
42080SOL    HW133290  12.164  11.574   4.282 -1.0041 -1.4463 -0.7741
42080SOL    HW233291  12.303  11.566   4.342 -0.6171  2.6730 -0.8263
42081SOL     OW33292  10.637  10.098   9.863 -0.2709  0.4427 -0.1253
42081SOL    HW133293  10.678  10.179   9.831 -0.4221 -0.3050 -2.3788
42081SOL    HW233294  10.546  10.105   9.837 -0.0199 -0.9764 -1.5152
42082SOL     OW33295   1.162   5.349   4.892 -0.1741 -0.5596 -0.2425
42082SOL    HW133296   1.168   5.261   4.928 -0.6730 -0.8128 -0.7668
42082SOL    HW233297   1.180   5.407   4.966 -1.5136 -1.0630  0.4953
42083SOL     OW33298   2.607  12.314   1.702 -0.2256  0.0236  0.4041
42083SOL    HW133299   2.552  12.388   1.675 -0.6333 -0.3412  0.2169
42083SOL    HW233300   2.693  12.352   1.717  0.9394 -0.1413 -4.3278
42084SOL     OW33301   1.575  11.023   1.367  0.2756  0.0875  0.1522
42084SOL    HW133302   1.638  10.991   1.431  1.0299  0.8196 -0.2028
42084SOL    HW233303   1.564  11.116   1.389  0.0912  0.2041 -0.4202
42085SOL     OW33304   5.295   2.311  10.164  0.3577 -0.1458 -0.4353
42085SOL    HW133305   5.312   2.389  10.217 -1.9868 -0.4081  0.7951
42085SOL    HW233306   5.271   2.243  10.227 -1.3418 -0.7915 -1.7090
42086SOL     OW33307   5.481  11.667   7.103 -0.6218  0.0677 -0.4693
42086SOL    HW133308   5.566  11.625   7.100 -0.9105 -0.6481  0.8028
42086SOL    HW233309   5.500  11.760   7.118 -0.0829 -0.2129  0.6593
42087SOL     OW33310  12.175  10.049   3.206  0.4072 -0.4277  0.7896
42087SOL    HW133311  12.213   9.961   3.211  2.2628  0.2892  0.2715
42087SOL    HW233312  12.119  10.046   3.128 -2.2383 -2.0490  2.6017
42088SOL     OW33313   7.736  11.982   9.339 -0.7167 -0.1553  0.2644
42088SOL    HW133314   7.761  11.921   9.269  0.2611 -0.3317  0.7512
42088SOL    HW233315   7.813  11.986   9.396 -1.4213  0.1525  1.2181
42089SOL     OW33316   4.732   1.474   0.052  0.0609  0.3969  0.6814
42089SOL    HW133317   4.653   1.447   0.006  0.5037  1.0341 -0.4732
42089SOL    HW233318   4.723   1.569   0.062  0.7242  0.4863  0.4485
42090SOL     OW33319   2.659  12.304   7.063 -0.2035  0.3657 -0.0495
42090SOL    HW133320   2.646  12.343   6.977  0.6978  3.1787  1.0011
42090SOL    HW233321   2.583  12.332   7.114 -0.3652 -0.6724  0.3109
42091SOL     OW33322  11.207  11.109   5.443  0.1318  0.4861  0.0546
42091SOL    HW133323  11.199  11.034   5.384 -0.2409  1.0568 -0.6415
42091SOL    HW233324  11.289  11.094   5.489 -0.3796 -0.7986  0.5854
42092SOL     OW33325   5.413   0.548  11.254  0.5245  0.0767  0.1113
42092SOL    HW133326   5.375   0.632  11.228  0.5969  0.6089  1.6819
42092SOL    HW233327   5.395   0.490  11.179  0.2784  1.4138 -0.8943
42093SOL     OW33328   0.116   9.529   5.365  0.0743 -0.1681 -0.0539
42093SOL    HW133329   0.122   9.434   5.374 -2.7388 -0.5191 -0.8770
42093SOL    HW233330   0.031   9.544   5.322  0.2316  2.7459  0.4243
42094SOL     OW33331   8.383   1.701   2.117  0.0631 -0.0295 -0.6625
42094SOL    HW133332   8.469   1.735   2.093 -0.5910  1.4220 -1.0717
42094SOL    HW233333   8.383   1.610   2.088  2.5002 -1.0086  1.9812
42095SOL     OW33334   8.238  10.443   9.115  0.2471 -0.4741  0.1083
42095SOL    HW133335   8.240  10.506   9.188 -0.3618 -1.4129  0.9723
42095SOL    HW233336   8.156  10.395   9.127  0.7898 -1.5695 -0.4009
42096SOL     OW33337   6.334   4.124  11.121  0.8222  0.6032  0.2370
42096SOL    HW133338   6.273   4.081  11.182 -0.1450 -0.8384 -1.6606
42096SOL    HW233339   6.283   4.196  11.084  0.5950  0.0347 -0.5782
42097SOL     OW33340   8.293   5.509   8.521 -0.2303  0.1322 -0.2145
42097SOL    HW133341   8.312   5.560   8.442  0.3782 -0.5521 -0.5140
42097SOL    HW233342   8.323   5.564   8.593 -0.5780  0.6591 -0.4643
42098SOL     OW33343  10.734   9.233   5.844  0.2227  0.7625 -0.4779
42098SOL    HW133344  10.762   9.217   5.934 -1.4045  0.6159  0.0366
42098SOL    HW233345  10.786   9.172   5.792  1.0750  0.7340  0.3631
42099SOL     OW33346   5.179   2.780   4.802  0.4462 -0.5173 -0.2190
42099SOL    HW133347   5.255   2.726   4.780  1.7366  0.1073  2.3495
42099SOL    HW233348   5.124   2.723   4.856 -1.0442 -0.9898 -2.1137
42100SOL     OW33349  12.151   5.024   6.680 -0.0608  0.5154 -0.0966
42100SOL    HW133350  12.232   5.013   6.629  0.0769  2.6663 -0.4717
42100SOL    HW233351  12.103   5.092   6.632 -1.8626 -0.3240  0.4329
42101SOL     OW33352   5.136   4.183   2.650  0.2991  0.0797  0.6802
42101SOL    HW133353   5.047   4.154   2.667 -0.0885 -0.0726 -1.4190
42101SOL    HW233354   5.191   4.108   2.673 -0.4471 -1.2608 -1.6530
42102SOL     OW33355   2.922   3.580   1.796 -0.0060 -0.3885  0.3348
42102SOL    HW133356   2.949   3.671   1.810  0.8483 -0.3651 -1.2528
42102SOL    HW233357   2.875   3.582   1.713 -0.0179 -1.4015  0.3076
42103SOL     OW33358   4.401   1.170   3.436 -0.4780 -0.4472  0.8384
42103SOL    HW133359   4.416   1.171   3.530  0.2064 -2.6005  0.8068
42103SOL    HW233360   4.487   1.152   3.398 -0.8800 -0.3437 -0.1660
42104SOL     OW33361   8.210  11.223   3.272 -0.3148 -0.1752  0.1440
42104SOL    HW133362   8.302  11.245   3.261 -1.0185  2.8972 -0.3062
42104SOL    HW233363   8.180  11.277   3.345 -1.6414 -1.7365  0.8439
42105SOL     OW33364   2.749   8.018   5.109 -0.9873 -0.4167  0.1486
42105SOL    HW133365   2.684   8.009   5.040 -0.4332  1.0065 -0.6021
42105SOL    HW233366   2.793   7.932   5.112 -2.7412 -1.3377  0.5659
42106SOL     OW33367   9.623   4.324   9.707 -0.6747 -0.0652  0.3423
42106SOL    HW133368   9.697   4.268   9.730 -1.7523 -1.4815  0.5253
42106SOL    HW233369   9.597   4.364   9.790 -0.4355  0.0229  0.3757
42107SOL     OW33370   7.046   6.542   4.358 -0.0711 -0.1960 -0.0579
42107SOL    HW133371   7.032   6.562   4.450 -0.5216 -0.7422 -0.0039
42107SOL    HW233372   6.977   6.591   4.312 -0.9529 -1.2996  0.0461
42108SOL     OW33373   9.062   2.744   7.153  0.0588  0.0170  0.2165
42108SOL    HW133374   9.022   2.815   7.202 -0.1475 -0.7011  1.1192
42108SOL    HW233375   9.111   2.694   7.218 -0.2504 -0.9788 -0.2777
42109SOL     OW33376   7.612   3.949  11.528  0.0279  0.4310 -0.5591
42109SOL    HW133377   7.605   3.862  11.566  1.0148 -0.3594 -2.0880
42109SOL    HW233378   7.524   3.967  11.492  0.1211 -0.4513 -1.2657
42110SOL     OW33379  11.247  11.946   9.324  0.1246  0.3704  0.1380
42110SOL    HW133380  11.239  11.945   9.228  0.6432  0.4604  0.0899
42110SOL    HW233381  11.248  11.854   9.348 -1.8964  0.3282  0.2420
42111SOL     OW33382   3.735   4.096   1.066 -0.3270 -0.1210  0.0673
42111SOL    HW133383   3.761   4.095   1.158  1.9746 -0.2271 -0.5414
42111SOL    HW233384   3.783   4.170   1.028 -0.1747 -0.9083 -1.3349
42112SOL     OW33385   6.579   8.148   2.578 -0.3907 -0.3200  0.6170
42112SOL    HW133386   6.488   8.120   2.577  0.2397 -2.6439  1.5718
42112SOL    HW233387   6.625   8.081   2.528  1.0971 -0.5712  2.2185
42113SOL     OW33388  10.720   8.328   6.532 -0.1655  0.5706 -0.0596
42113SOL    HW133389  10.744   8.419   6.546  0.3529  0.3971  0.2368
42113SOL    HW233390  10.774   8.299   6.458  2.5371 -0.5208  2.1446
42114SOL     OW33391   3.634   8.652   8.162 -0.3729  0.0305 -0.0446
42114SOL    HW133392   3.651   8.648   8.068 -0.1121  0.8478 -0.0438
42114SOL    HW233393   3.550   8.607   8.173 -0.3062 -0.2493 -0.6369
42115SOL     OW33394   8.314  10.803   7.031 -0.5957 -0.3026 -0.3986
42115SOL    HW133395   8.331  10.896   7.045 -1.4731  0.0166 -1.3694
42115SOL    HW233396   8.284  10.772   7.117  0.1162  0.2030  0.0436
42116SOL     OW33397   3.321  11.452   0.552 -0.2780  0.1223 -0.6547
42116SOL    HW133398   3.408  11.460   0.513  0.0750  0.4855  0.1763
42116SOL    HW233399   3.260  11.474   0.481  0.2771 -0.6784 -1.3907
42117SOL     OW33400   7.883   4.664  11.266 -0.0839  0.6751 -0.3733
42117SOL    HW133401   7.802   4.612  11.272  1.0409 -1.2005 -0.5881
42117SOL    HW233402   7.866   4.740  11.321 -2.0534  0.4186 -0.5407
42118SOL     OW33403  12.039  10.911   9.234  0.6560 -0.4243  0.5128
42118SOL    HW133404  11.960  10.963   9.217  1.1839  0.5647  1.0149
42118SOL    HW233405  12.007  10.821   9.242 -0.0722 -0.4927 -2.1712
42119SOL     OW33406  11.208   5.374   8.813 -0.5105  0.5217 -0.6596
42119SOL    HW133407  11.208   5.344   8.722  2.5396  1.9274 -1.2592
42119SOL    HW233408  11.258   5.307   8.860 -0.0123  0.9932 -0.5126
42120SOL     OW33409   2.890   3.335   4.334 -0.4219  0.1015 -0.3877
42120SOL    HW133410   2.843   3.387   4.269 -0.7577  0.9884  0.5387
42120SOL    HW233411   2.884   3.386   4.414  1.1935 -0.2948  0.0171
42121SOL     OW33412   0.676   3.853   4.215 -0.1551 -0.4430  0.2544
42121SOL    HW133413   0.716   3.803   4.286  1.5589 -1.1214 -1.1207
42121SOL    HW233414   0.630   3.924   4.260  2.0777  0.0224  2.0154
42122SOL     OW33415   2.225  10.017   1.622 -0.1107  0.4257  0.0029
42122SOL    HW133416   2.250  10.099   1.579  1.5439  0.8265  1.5914
42122SOL    HW233417   2.167  10.045   1.693 -0.9115  0.0177 -0.4776
42123SOL     OW33418   1.562  11.263   1.504  0.0882 -0.1365  0.0843
42123SOL    HW133419   1.473  11.300   1.505 -0.0200 -0.3882 -0.0246
42123SOL    HW233420   1.619  11.339   1.507 -0.1319  0.0113  0.6172
42124SOL     OW33421   3.948   2.235  10.003 -0.2498  0.0416 -0.4044
42124SOL    HW133422   3.912   2.318   9.969  1.9607  1.8456  1.2940
42124SOL    HW233423   3.902   2.220  10.085  0.7680  0.7922  0.3342
42125SOL     OW33424  11.982   1.371   2.227 -0.3426 -0.1637  0.5758
42125SOL    HW133425  12.004   1.342   2.139  1.2965 -0.3213  1.0108
42125SOL    HW233426  11.906   1.429   2.215 -1.7249 -2.1276 -0.6246
42126SOL     OW33427   8.340   0.367   3.417 -0.4686 -0.1503 -0.9078
42126SOL    HW133428   8.299   0.280   3.412 -1.5846  0.2358  0.5686
42126SOL    HW233429   8.339   0.388   3.511 -0.8428  1.7261 -1.2921
42127SOL     OW33430   9.958   2.772   2.517  0.1312 -0.2992  0.4768
42127SOL    HW133431  10.021   2.815   2.574 -1.8522 -0.1064  2.6906
42127SOL    HW233432   9.902   2.843   2.485 -0.5790 -0.7182  0.7403
42128SOL     OW33433   0.384   5.347   2.170 -0.8267 -0.6316  0.4646
42128SOL    HW133434   0.473   5.378   2.155 -1.1740  0.8276  1.2150
42128SOL    HW233435   0.394   5.264   2.216  0.1413 -0.9224 -0.2476
42129SOL     OW33436   3.937   9.428  10.871  0.1506  0.3587  0.0001
42129SOL    HW133437   3.862   9.458  10.923  0.4503 -0.4484  0.9375
42129SOL    HW233438   3.916   9.453  10.781 -1.2975  0.0436  0.2293
42130SOL     OW33439   1.436   7.613   0.605 -0.1381 -0.3490 -0.4494
42130SOL    HW133440   1.522   7.622   0.563 -1.2530  1.1631 -2.5742
42130SOL    HW233441   1.397   7.537   0.563 -0.4773 -0.0481 -0.6788
42131SOL     OW33442  10.330   2.304   1.123 -0.8599 -1.4234 -0.2596
42131SOL    HW133443  10.297   2.382   1.079 -0.9494 -1.3763 -0.1092
42131SOL    HW233444  10.424   2.318   1.130 -0.7773 -1.6321 -0.8412
42132SOL     OW33445  11.865   2.951  12.012  0.4231 -0.0064 -0.1482
42132SOL    HW133446  11.783   3.000  12.007 -0.6224 -1.7414 -0.7709
42132SOL    HW233447  11.887   2.931  11.921 -1.0630 -3.5749  0.1213
42133SOL     OW33448   2.280  11.287   4.679 -0.5326 -0.0406 -0.6037
42133SOL    HW133449   2.341  11.272   4.752  0.2140  0.0715 -1.1973
42133SOL    HW233450   2.240  11.202   4.662 -0.2752 -0.1898 -0.4558
42134SOL     OW33451   8.502   6.708   2.194 -0.2553 -0.0183 -0.1959
42134SOL    HW133452   8.472   6.732   2.106  0.1019  0.9294 -0.0712
42134SOL    HW233453   8.572   6.644   2.178 -1.6495 -1.5295 -0.5129
42135SOL     OW33454   6.630   6.158   8.672  0.4081 -0.0295  0.6128
42135SOL    HW133455   6.621   6.174   8.578 -0.1747 -0.5545  0.5702
42135SOL    HW233456   6.681   6.232   8.704  1.0663 -0.1120 -0.2027
42136SOL     OW33457   8.591   9.406   1.034 -0.2984  0.1335 -0.3636
42136SOL    HW133458   8.639   9.488   1.038 -1.2883  0.7001  0.5262
42136SOL    HW233459   8.591   9.373   1.124 -0.5687 -0.4408 -0.5662
42137SOL     OW33460  10.056   0.999   0.740  0.2200 -0.2050 -0.1140
42137SOL    HW133461  10.034   1.038   0.656 -0.0384  0.4766  0.2685
42137SOL    HW233462   9.973   0.967   0.774 -0.1335  1.7981  1.0375
42138SOL     OW33463   2.997  10.827  11.445 -0.0139  0.2379 -0.2536
42138SOL    HW133464   2.996  10.745  11.395  0.7720  1.1348 -1.8453
42138SOL    HW233465   3.080  10.869  11.419  0.6759  0.5466  2.2372
42139SOL     OW33466   6.993   9.771   3.965  0.0392  0.6248  0.0319
42139SOL    HW133467   6.935   9.843   3.942 -1.4428 -0.7285 -0.6325
42139SOL    HW233468   7.029   9.741   3.882 -1.2735 -0.9396 -0.0123
42140SOL     OW33469   4.183   1.701   1.058  0.7429  0.2560  0.5734
42140SOL    HW133470   4.112   1.701   1.121  2.4435 -0.3781  2.6260
42140SOL    HW233471   4.198   1.794   1.038 -2.6227  0.3636 -2.4585
42141SOL     OW33472   6.612  12.068   0.347 -0.0521  0.0232  0.0558
42141SOL    HW133473   6.576  11.983   0.370  1.1514 -0.8916 -1.2495
42141SOL    HW233474   6.565  12.093   0.267  0.2112  0.1680 -0.0543
42142SOL     OW33475   0.452   3.682   2.073 -0.7860 -0.1079  0.9107
42142SOL    HW133476   0.538   3.702   2.035 -1.0344 -1.3199 -0.3346
42142SOL    HW233477   0.395   3.752   2.041 -0.4130  0.3467  1.2256
42143SOL     OW33478   3.126   6.106   9.494  0.0003  0.2028  0.5574
42143SOL    HW133479   3.157   6.181   9.545  0.6072 -1.6047  3.0179
42143SOL    HW233480   3.203   6.078   9.444  0.2436  0.2094  0.9271
42144SOL     OW33481   2.258   3.861  11.034 -0.4025 -0.5023  0.3917
42144SOL    HW133482   2.261   3.905  10.949 -2.1645  1.4940  1.2754
42144SOL    HW233483   2.341   3.883  11.076 -1.0807  1.7987  0.6586
42145SOL     OW33484   0.730  10.597   9.052  0.4932 -0.1133 -0.0543
42145SOL    HW133485   0.773  10.611   8.967  0.1234 -0.2570 -0.2668
42145SOL    HW233486   0.647  10.554   9.030 -0.0681  0.7695  0.2973
42146SOL     OW33487   6.960   9.192   6.351 -0.3224 -0.4061 -0.4981
42146SOL    HW133488   7.023   9.173   6.420 -1.0485 -2.2730 -0.3024
42146SOL    HW233489   7.012   9.230   6.280  0.5100  1.0567  0.8278
42147SOL     OW33490   8.615   0.473   7.674 -0.1298  0.3281  0.1467
42147SOL    HW133491   8.691   0.493   7.729 -1.4449 -2.4466  3.2889
42147SOL    HW233492   8.543   0.458   7.736 -2.7491  0.6462 -2.5718
42148SOL     OW33493  11.538   3.962   9.696  0.0168 -0.0566 -0.0829
42148SOL    HW133494  11.488   3.955   9.777  0.6784 -0.0554  0.3372
42148SOL    HW233495  11.628   3.940   9.721  0.3558  0.5999 -0.6752
42149SOL     OW33496   4.107   2.102   9.640  0.1692 -0.4390 -0.3441
42149SOL    HW133497   4.075   2.050   9.714 -0.0466 -0.6848 -0.6115
42149SOL    HW233498   4.096   2.046   9.564  1.5495 -0.6636 -0.4042
42150SOL     OW33499  10.396   2.614   4.455  0.0645 -0.0294  0.7513
42150SOL    HW133500  10.349   2.695   4.436 -0.3305 -0.5972 -0.8711
42150SOL    HW233501  10.356   2.549   4.397  2.1037 -0.7935  0.1164
42151SOL     OW33502   2.164   1.760   6.603 -0.0746  0.1399 -0.2806
42151SOL    HW133503   2.162   1.720   6.516  0.0442  1.8409 -1.0952
42151SOL    HW233504   2.257   1.772   6.623 -0.1210  0.4925 -0.2731
42152SOL     OW33505   7.837  11.631   2.870  0.2438 -0.4683 -0.2525
42152SOL    HW133506   7.877  11.612   2.786 -0.4869 -1.0684 -0.4716
42152SOL    HW233507   7.743  11.621   2.856  0.0484  0.2054  0.4354
42153SOL     OW33508  10.220   3.218   8.610  1.0472 -0.0037 -0.2041
42153SOL    HW133509  10.205   3.190   8.701  0.1295  1.2374  0.0493
42153SOL    HW233510  10.176   3.151   8.558 -0.8656  0.7376  0.3845
42154SOL     OW33511   1.791   9.399   2.678 -0.1575 -0.3587 -0.1057
42154SOL    HW133512   1.785   9.479   2.730 -0.2714 -0.4615  0.0386
42154SOL    HW233513   1.757   9.330   2.735 -0.4669 -0.4400 -0.3876
42155SOL     OW33514   3.293   7.318  12.430 -0.8379 -0.0553  0.3722
42155SOL    HW133515   3.282   7.365  12.513 -2.4343 -1.8256  1.2395
42155SOL    HW233516   3.368   7.261  12.445 -1.8006 -1.2006  1.0799
42156SOL     OW33517   3.354   0.903   3.683  0.3700  0.4075 -0.5510
42156SOL    HW133518   3.442   0.910   3.720  0.2295 -0.1809 -0.0901
42156SOL    HW233519   3.307   0.978   3.718 -0.0400 -0.6620  1.2689
42157SOL     OW33520   1.178   2.635   5.604  0.1635  0.2628 -0.1022
42157SOL    HW133521   1.125   2.557   5.592 -0.2537  0.6568 -0.9419
42157SOL    HW233522   1.210   2.629   5.694 -1.0673 -0.1275  0.3310
42158SOL     OW33523   5.417  10.424   6.500 -0.1885  0.0023  0.1698
42158SOL    HW133524   5.446  10.353   6.444 -1.0712 -0.2357  0.0020
42158SOL    HW233525   5.497  10.472   6.521  0.4507 -1.1363  0.4318
42159SOL     OW33526   6.061   7.164   9.165  0.1720  0.1159  0.0494
42159SOL    HW133527   6.019   7.088   9.206  0.6663 -0.3967 -0.3820
42159SOL    HW233528   6.072   7.226   9.237 -1.0300  0.1458  0.2409
42160SOL     OW33529   6.671   9.336   9.844 -0.3366  0.0564 -0.1592
42160SOL    HW133530   6.687   9.242   9.844 -1.8371 -0.2546  1.2868
42160SOL    HW233531   6.649   9.357   9.752 -1.1775 -1.2448 -0.2787
42161SOL     OW33532  12.288  10.937   2.187  0.5648 -0.2655  0.1224
42161SOL    HW133533  12.284  10.906   2.277  0.6249 -0.8603 -0.0721
42161SOL    HW233534  12.211  10.993   2.178 -0.0247 -1.0303  0.2520
42162SOL     OW33535   9.625   3.502   6.867 -0.0692  0.6825  0.4861
42162SOL    HW133536   9.679   3.462   6.935  1.1560  1.3939 -0.0261
42162SOL    HW233537   9.538   3.466   6.881  0.6346 -0.9045  1.0338
42163SOL     OW33538   4.700  11.620   6.166 -0.6255  0.2768  0.3395
42163SOL    HW133539   4.679  11.562   6.093  4.5633 -0.4280 -0.9416
42163SOL    HW233540   4.621  11.618   6.221 -4.0337 -0.8264 -4.0142
42164SOL     OW33541   5.357   6.556  11.890  1.1043 -0.6467 -0.2072
42164SOL    HW133542   5.341   6.462  11.878 -0.7428 -0.3578 -0.3723
42164SOL    HW233543   5.344   6.570  11.984  1.4465 -0.5639 -0.1720
42165SOL     OW33544   0.503   1.385  10.159 -0.2080  0.0876  0.6352
42165SOL    HW133545   0.448   1.458  10.189 -2.5310 -1.3530  0.1917
42165SOL    HW233546   0.461   1.355  10.078  1.5256 -0.8520  0.0230
42166SOL     OW33547  12.340   0.794   1.481 -0.1015  0.5231 -0.0350
42166SOL    HW133548  12.289   0.717   1.454  0.4590  0.5794 -1.3476
42166SOL    HW233549  12.423   0.784   1.436  0.0424  1.8233 -0.0980
42167SOL     OW33550   3.604   9.056   1.593  0.5597 -0.3967 -0.5211
42167SOL    HW133551   3.669   9.001   1.549 -0.5880 -2.9745  0.8440
42167SOL    HW233552   3.630   9.055   1.685 -0.2486  0.2911 -0.2726
42168SOL     OW33553   1.010   1.770   2.979 -0.1391 -0.5510 -0.2142
42168SOL    HW133554   1.104   1.761   2.999 -0.5285 -1.4480  1.3894
42168SOL    HW233555   0.976   1.825   3.048 -0.6212  0.7896 -1.4684
42169SOL     OW33556   1.913   8.276   0.690 -0.3087  0.1258 -0.1244
42169SOL    HW133557   1.950   8.304   0.774  0.7817 -2.3716  0.3175
42169SOL    HW233558   1.831   8.233   0.714 -1.3035  1.6357 -0.6585
42170SOL     OW33559   9.301   1.280   2.030 -0.9701 -0.2556 -0.3881
42170SOL    HW133560   9.367   1.267   1.962 -1.3161  0.2360 -0.8278
42170SOL    HW233561   9.337   1.349   2.086 -0.4092 -1.0913  0.2897
42171SOL     OW33562   5.830   4.360   2.221 -0.0204  0.1490 -0.8318
42171SOL    HW133563   5.883   4.348   2.299  1.2056  2.6670 -1.2129
42171SOL    HW233564   5.794   4.272   2.203 -0.8046 -0.4208  2.7972
42172SOL     OW33565   6.582   8.606  10.689 -0.0340  0.1278  0.0605
42172SOL    HW133566   6.623   8.520  10.692  1.4493  0.5290 -3.6318
42172SOL    HW233567   6.500   8.592  10.642 -0.6018  0.4908  0.9249
42173SOL     OW33568   9.147   4.326   2.955 -0.3193  0.0818  0.5287
42173SOL    HW133569   9.143   4.284   2.869  1.2827  1.0100 -0.0431
42173SOL    HW233570   9.056   4.337   2.981 -0.8696  0.6726 -1.5110
42174SOL     OW33571   7.152   7.715  10.146  0.2370  0.2272 -0.1523
42174SOL    HW133572   7.130   7.783  10.081  2.0284 -0.3346 -1.4131
42174SOL    HW233573   7.241   7.690  10.125 -0.8333 -3.6823 -0.7759
42175SOL     OW33574  10.644   4.811   8.373  0.2686  0.3753  0.6659
42175SOL    HW133575  10.663   4.748   8.304  2.9319  0.5090  1.1927
42175SOL    HW233576  10.599   4.760   8.440  0.7818 -0.5434  0.3260
42176SOL     OW33577   4.063  12.439   8.961 -0.4351  0.1152  0.2587
42176SOL    HW133578   4.053  12.513   8.900  2.7916 -0.9282 -1.7814
42176SOL    HW233579   4.057  12.362   8.905  0.1657 -0.9994  1.6863
42177SOL     OW33580   9.485   8.556  12.344 -0.5030  0.0336  0.4941
42177SOL    HW133581   9.509   8.540  12.253  0.8606  2.9277  0.2087
42177SOL    HW233582   9.395   8.587  12.341  0.1105  1.8995 -0.1920
42178SOL     OW33583   7.944  10.024   5.776 -0.3205 -0.1724 -0.1097
42178SOL    HW133584   7.967  10.102   5.726  1.2975 -1.1805 -1.0279
42178SOL    HW233585   8.006  10.024   5.849  0.0376 -0.8374 -0.3998
42179SOL     OW33586  11.984   0.588   7.657  0.7095  0.4813  0.4062
42179SOL    HW133587  11.969   0.593   7.563  0.4180  1.3655  0.4849
42179SOL    HW233588  11.919   0.525   7.689  2.8946 -2.3739 -0.3640
42180SOL     OW33589   2.509   2.776   8.413  0.6236 -0.2578  0.3213
42180SOL    HW133590   2.512   2.755   8.319  1.2566 -0.6771  0.4229
42180SOL    HW233591   2.432   2.731   8.446  1.6803 -2.0893  0.4365
42181SOL     OW33592   8.938   9.669   2.622 -0.6189  0.3931 -0.0703
42181SOL    HW133593   8.884   9.733   2.575 -2.1263  0.5551  1.7589
42181SOL    HW233594   8.959   9.712   2.705  0.4695 -0.5579  0.1806
42182SOL     OW33595  10.979   4.672   5.577 -0.2353  0.3635  0.0066
42182SOL    HW133596  10.919   4.684   5.504 -0.4432 -0.4484  0.0391
42182SOL    HW233597  10.937   4.717   5.651 -1.3254 -1.0645  0.2937
42183SOL     OW33598   0.636  11.825   5.301  0.0822 -0.5562 -0.1758
42183SOL    HW133599   0.630  11.895   5.366 -0.3843  1.1579 -1.9776
42183SOL    HW233600   0.621  11.745   5.351 -1.7791  0.7899  1.6054
42184SOL     OW33601   8.634  11.220   2.483  0.6869 -0.0987  0.1070
42184SOL    HW133602   8.653  11.276   2.408  1.2852  0.3507  0.5856
42184SOL    HW233603   8.584  11.276   2.543  1.8325  0.1364  0.8660
42185SOL     OW33604   9.326   5.004   2.088 -0.0887  0.1775  0.1627
42185SOL    HW133605   9.343   5.091   2.124  1.4963  0.2070 -0.5978
42185SOL    HW233606   9.412   4.969   2.068 -0.7356 -1.3779 -0.0253
42186SOL     OW33607   2.847   2.382   5.368  0.1619  0.5970 -0.1190
42186SOL    HW133608   2.896   2.416   5.443  0.4967  1.2166 -0.6101
42186SOL    HW233609   2.879   2.432   5.293  0.6654 -0.7841 -0.8732
42187SOL     OW33610   3.769   1.717   6.081 -0.4328 -0.4197  0.0251
42187SOL    HW133611   3.794   1.747   6.169  1.0893 -0.9157 -0.2137
42187SOL    HW233612   3.687   1.763   6.064  0.2607  1.2749  0.8974
42188SOL     OW33613   9.676  10.345   2.763 -0.3190  0.2327  0.2906
42188SOL    HW133614   9.647  10.279   2.826 -1.0468  1.8349  1.6894
42188SOL    HW233615   9.767  10.323   2.746 -0.8366 -1.8060 -0.1968
42189SOL     OW33616  12.075  11.195   5.464 -0.0421  0.0663  0.0409
42189SOL    HW133617  12.035  11.272   5.504  2.3645  1.4637 -0.0921
42189SOL    HW233618  12.116  11.148   5.537 -0.7449 -0.6585 -0.0078
42190SOL     OW33619   9.985   7.595   8.863  0.0191 -0.0751  0.1897
42190SOL    HW133620   9.929   7.668   8.891  0.8925  1.4937 -1.8994
42190SOL    HW233621  10.046   7.634   8.801  1.9007 -2.2148  0.5778
42191SOL     OW33622   8.573  11.933   8.402  0.4194 -0.3018 -0.2245
42191SOL    HW133623   8.609  11.854   8.363  3.4554  0.5736  0.5959
42191SOL    HW233624   8.573  11.916   8.497 -1.9532 -0.4505 -0.1858
42192SOL     OW33625   1.800   8.330   3.504 -0.2288 -0.4655  0.6233
42192SOL    HW133626   1.738   8.321   3.576 -0.9829 -0.5249 -0.0124
42192SOL    HW233627   1.755   8.387   3.441  1.0884  0.9816  0.9248
42193SOL     OW33628  10.405   7.842   5.857 -0.2729 -0.4160  0.1462
42193SOL    HW133629  10.409   7.929   5.897  0.1031 -0.4721  0.2380
42193SOL    HW233630  10.470   7.791   5.905  0.4590 -0.3858 -0.7774
42194SOL     OW33631  11.037   5.815   9.030 -0.2266 -0.1211 -0.2334
42194SOL    HW133632  11.031   5.783   9.120 -5.4777  1.0848  0.1440
42194SOL    HW233633  11.050   5.735   8.978 -0.2194 -1.2437  1.3974
42195SOL     OW33634   5.754   7.834   2.707 -0.1562 -1.1471  0.3246
42195SOL    HW133635   5.750   7.851   2.802  2.6280  0.9451  0.1913
42195SOL    HW233636   5.784   7.917   2.669  0.7716 -2.5281 -2.1713
42196SOL     OW33637   0.100   0.202   6.938 -0.1036  0.6197 -0.1690
42196SOL    HW133638   0.028   0.157   6.981  0.9225  1.5657  2.7827
42196SOL    HW233639   0.064   0.233   6.855 -2.7380  0.1613  0.7340
42197SOL     OW33640   4.872   6.219   0.342 -0.1756  0.1249  0.6684
42197SOL    HW133641   4.966   6.226   0.356 -0.3765  1.5499  1.4834
42197SOL    HW233642   4.833   6.248   0.424 -1.3637 -4.2362  1.8880
42198SOL     OW33643   7.716   6.483  11.392  0.1214  0.1379 -0.2780
42198SOL    HW133644   7.654   6.553  11.415  1.3950  1.3968 -0.5388
42198SOL    HW233645   7.731   6.437  11.474 -0.3056  0.5256  0.0252
42199SOL     OW33646   6.925   9.863  10.005  0.1297 -0.0800  0.3603
42199SOL    HW133647   6.931   9.854  10.100  0.0372 -0.6760  0.3171
42199SOL    HW233648   6.948   9.776   9.971 -1.6442 -0.4199 -0.0732
42200SOL     OW33649   7.953  11.735   6.331 -0.1028 -0.5889  0.4043
42200SOL    HW133650   7.982  11.730   6.422 -0.6650  0.4752  0.6675
42200SOL    HW233651   7.871  11.784   6.335  1.2967  2.0942 -0.9230
42201SOL     OW33652  10.938   3.057   1.546  0.1261  0.0444  0.3887
42201SOL    HW133653  10.919   2.984   1.487  0.5905  1.0466 -1.0559
42201SOL    HW233654  10.856   3.106   1.551  0.2119  0.2169  0.1684
42202SOL     OW33655   5.997  11.776   7.333 -0.0831 -0.1954  0.3024
42202SOL    HW133656   5.907  11.745   7.320 -0.1322  0.4065 -0.8935
42202SOL    HW233657   6.005  11.785   7.428 -1.6331  0.7356  0.3870
42203SOL     OW33658   2.866   3.098   3.082  0.5675  0.7055  0.2732
42203SOL    HW133659   2.867   3.164   3.152  0.9619 -0.0759  1.0195
42203SOL    HW233660   2.777   3.065   3.082  0.8988 -0.2529  1.3487
42204SOL     OW33661   6.456   3.525  10.299 -0.3395  0.1311  0.5508
42204SOL    HW133662   6.501   3.477  10.368 -0.2272 -1.8941 -0.8218
42204SOL    HW233663   6.454   3.615  10.329  1.2548 -0.3776  2.3698
42205SOL     OW33664  11.653   7.449   4.951  0.0239  0.3399  0.4572
42205SOL    HW133665  11.577   7.392   4.959 -0.6113  0.7727 -1.8386
42205SOL    HW233666  11.725   7.391   4.926 -0.3133  0.3426 -0.5466
42206SOL     OW33667   2.024   1.848  10.501  0.1945 -0.3165 -0.0782
42206SOL    HW133668   1.995   1.771  10.453 -0.4396  0.0730 -0.3366
42206SOL    HW233669   1.948   1.874  10.553  0.8455 -0.6897  1.1052
42207SOL     OW33670   1.474  10.040   1.293 -0.3890  0.0092 -0.4143
42207SOL    HW133671   1.424  10.060   1.372  0.9405  0.3188  0.3643
42207SOL    HW233672   1.558  10.009   1.325 -0.3190 -1.2037 -1.6996
42208SOL     OW33673   6.843  10.372   4.219 -0.5724  0.0579  0.2271
42208SOL    HW133674   6.859  10.292   4.269 -0.8896  0.0340  0.2939
42208SOL    HW233675   6.812  10.342   4.134 -0.1387  0.1022  0.0487
42209SOL     OW33676   0.610   1.298   0.029 -0.2105  0.1504 -0.0788
42209SOL    HW133677   0.610   1.210   0.066  2.2851  0.0586 -0.1075
42209SOL    HW233678   0.605   1.285  -0.066 -1.1891  0.1280 -0.0323
42210SOL     OW33679   0.972   1.044   2.922  1.0335 -0.3751  0.0927
42210SOL    HW133680   0.955   1.107   2.992  1.9749  0.9633 -0.8232
42210SOL    HW233681   0.980   0.960   2.966 -0.3400  0.1117  1.3457
42211SOL     OW33682   0.745   5.117   3.751  0.0421 -0.4018 -0.5459
42211SOL    HW133683   0.715   5.185   3.811  0.8202 -1.5387  1.2103
42211SOL    HW233684   0.682   5.046   3.762  0.4304 -0.7819 -0.7391
42212SOL     OW33685   9.269   3.102   7.268 -0.1665 -0.8725 -0.3529
42212SOL    HW133686   9.306   3.052   7.195  0.1054  1.1710 -1.7006
42212SOL    HW233687   9.175   3.105   7.250  0.0414  0.7657 -1.4636
42213SOL     OW33688   4.630   9.490   8.256 -0.0678 -0.1380  0.0126
42213SOL    HW133689   4.627   9.572   8.306  1.0777 -0.6852  1.0008
42213SOL    HW233690   4.721   9.483   8.227  0.3715 -2.0764  1.6862
42214SOL     OW33691   9.523   5.252   0.601 -0.0071  0.3036 -0.5273
42214SOL    HW133692   9.441   5.206   0.584  0.0985  0.2307 -0.8430
42214SOL    HW233693   9.508   5.297   0.684 -0.1660 -0.1772 -0.2916
42215SOL     OW33694  11.023   5.650   7.031 -0.3398  0.0015 -0.1861
42215SOL    HW133695  10.996   5.716   6.967  1.2497  1.5881  0.6883
42215SOL    HW233696  10.964   5.662   7.105 -1.5879 -1.2231 -0.9315
42216SOL     OW33697   4.880   0.253   5.072  0.0952 -0.4143 -0.2805
42216SOL    HW133698   4.793   0.274   5.037 -0.1455  0.8421  0.9827
42216SOL    HW233699   4.938   0.316   5.031  0.0447  0.1465  0.5013
42217SOL     OW33700   4.700  10.084  10.793 -0.2503  0.6220 -0.2529
42217SOL    HW133701   4.781  10.132  10.814 -0.4517  0.2958  1.4248
42217SOL    HW233702   4.719   9.993  10.815 -0.0253 -0.0924 -2.9988
42218SOL     OW33703   7.592  12.351   6.877  0.1223 -0.3933 -0.2907
42218SOL    HW133704   7.547  12.290   6.819  1.1593 -0.9953 -0.4877
42218SOL    HW233705   7.630  12.296   6.945  0.1879  0.1506  0.1201
42219SOL     OW33706   7.036   1.200   8.184  0.0633 -0.1826  0.1640
42219SOL    HW133707   7.093   1.199   8.261  0.0188 -0.1025  0.1982
42219SOL    HW233708   7.080   1.143   8.121 -1.0849 -2.1746  1.0855
42220SOL     OW33709   9.884  11.245   5.898  0.0845  0.3228 -0.0919
42220SOL    HW133710   9.913  11.206   5.815 -0.5966 -1.3783  0.4193
42220SOL    HW233711   9.808  11.298   5.875 -0.3205 -0.4270 -0.5180
42221SOL     OW33712   9.886   5.973   8.078 -0.6247 -0.5083 -0.0814
42221SOL    HW133713   9.794   5.945   8.075  0.1587 -3.2152 -2.1393
42221SOL    HW233714   9.905   6.000   7.988  0.9686 -1.3010 -0.0018
42222SOL     OW33715   4.615   1.484  12.066 -0.2895 -0.1408  0.0768
42222SOL    HW133716   4.670   1.426  12.013  0.5944  1.0363 -0.3345
42222SOL    HW233717   4.666   1.564  12.075 -1.7770  0.8598  0.0179
42223SOL     OW33718   4.608   9.743   6.610  0.4235  0.1644  0.7248
42223SOL    HW133719   4.533   9.743   6.551  1.8941  0.1101 -1.2363
42223SOL    HW233720   4.584   9.805   6.679 -1.1496  0.6352 -0.1950
42224SOL     OW33721   8.147   8.808   6.948 -0.2178 -0.0135 -0.3347
42224SOL    HW133722   8.185   8.896   6.945 -0.6393  0.1601 -0.6642
42224SOL    HW233723   8.210   8.754   6.900  0.2136  0.0390  0.1614
42225SOL     OW33724   1.733   9.835   1.752  0.1657 -0.0818  0.3411
42225SOL    HW133725   1.706   9.926   1.753  2.2478  0.5989 -0.6798
42225SOL    HW233726   1.680   9.794   1.684  0.8440  0.9368 -0.8309
42226SOL     OW33727   3.910   1.141   0.895 -0.1941  0.6756  0.7946
42226SOL    HW133728   4.001   1.158   0.869  0.0514 -0.1370  1.0715
42226SOL    HW233729   3.918   1.079   0.968 -1.0093 -0.5399 -0.1227
42227SOL     OW33730   0.553   2.134   1.860 -0.2563 -0.6723  0.5045
42227SOL    HW133731   0.532   2.101   1.772 -2.3012  1.3035  0.1184
42227SOL    HW233732   0.477   2.109   1.913 -1.0099  1.5804  0.6234
42228SOL     OW33733   1.577  10.908  10.507 -0.3894  0.0515 -0.1167
42228SOL    HW133734   1.583  10.822  10.465 -0.9509  0.0940 -0.2963
42228SOL    HW233735   1.585  10.971  10.435  1.1004  0.1940  0.1281
42229SOL     OW33736   9.553   6.887  10.861  0.4483 -0.0305  0.1031
42229SOL    HW133737   9.487   6.920  10.800 -1.3943 -1.4069  1.2471
42229SOL    HW233738   9.592   6.812  10.815 -0.0461 -0.2987  0.1167
42230SOL     OW33739   4.140   7.911  12.425 -0.1849  0.3752  0.2589
42230SOL    HW133740   4.084   7.850  12.473 -0.5398  0.6674  0.2190
42230SOL    HW233741   4.124   7.996  12.465 -0.2731  0.5748 -0.1906
42231SOL     OW33742   3.231   0.703   2.958 -0.6210 -0.5258  0.3632
42231SOL    HW133743   3.152   0.757   2.965 -0.3376 -0.1784  0.9067
42231SOL    HW233744   3.218   0.632   3.021 -0.1231  0.0085  1.0714
42232SOL     OW33745   5.250  10.075   3.420  0.1973  0.2396  0.3897
42232SOL    HW133746   5.236  10.148   3.360 -1.3157 -0.3734 -0.0707
42232SOL    HW233747   5.230  10.111   3.507  0.9866  0.7554  0.3671
42233SOL     OW33748   8.256   1.398   9.508  0.1483 -0.4638 -0.0406
42233SOL    HW133749   8.351   1.399   9.498  0.1074 -0.2778 -0.4175
42233SOL    HW233750   8.233   1.488   9.532 -0.0643 -0.1859 -1.2339
42234SOL     OW33751   6.193   9.750   8.480  0.0930 -0.2823  0.1251
42234SOL    HW133752   6.128   9.820   8.480 -0.1516 -0.5032 -0.4141
42234SOL    HW233753   6.271   9.791   8.517  0.4392  0.7567 -1.6278
42235SOL     OW33754   1.999   0.228   9.695  0.1156 -0.9928  0.0649
42235SOL    HW133755   2.067   0.193   9.752 -1.3682  1.2190  3.5389
42235SOL    HW233756   1.917   0.206   9.740 -1.2923 -0.5676 -2.1378
42236SOL     OW33757  10.564   5.935   0.491  0.6274  0.7372 -0.4290
42236SOL    HW133758  10.635   5.953   0.429  1.4781  0.1446  0.3465
42236SOL    HW233759  10.489   5.910   0.436  1.0504  1.2563 -1.2538
42237SOL     OW33760   8.966   8.538   0.700 -0.3165 -0.0146 -0.7026
42237SOL    HW133761   8.932   8.595   0.631  0.7260  0.8787 -0.5096
42237SOL    HW233762   9.013   8.597   0.759  1.6495 -1.1745 -1.0051
42238SOL     OW33763  10.272  10.767   1.609  0.4784 -0.4506 -0.0789
42238SOL    HW133764  10.303  10.781   1.698 -0.1924 -0.3779  0.1471
42238SOL    HW233765  10.301  10.678   1.587 -0.1727 -0.8313  0.5631
42239SOL     OW33766   7.867  10.063   2.838 -0.0244  0.1660  0.2941
42239SOL    HW133767   7.834  10.024   2.757 -0.2141 -0.5490  0.7094
42239SOL    HW233768   7.833  10.153   2.837 -2.0232 -0.5379  0.6969
42240SOL     OW33769   7.240   8.311   5.029 -0.4981 -0.1828 -0.4266
42240SOL    HW133770   7.166   8.267   5.071 -0.7395 -0.2446 -0.9125
42240SOL    HW233771   7.274   8.248   4.966  0.5766 -0.5132  0.4560
42241SOL     OW33772   0.121  10.440   0.236  0.4608 -0.1205 -0.1646
42241SOL    HW133773   0.040  10.434   0.185 -0.4627 -0.3260  1.2793
42241SOL    HW233774   0.098  10.491   0.313  2.5468  2.6963 -1.2200
42242SOL     OW33775   8.142  11.422   3.451  0.4017 -0.2992  0.5744
42242SOL    HW133776   8.073  11.362   3.479 -0.3353 -0.4084 -1.3499
42242SOL    HW233777   8.117  11.506   3.490 -0.5161 -0.4631  0.3646
42243SOL     OW33778  10.045   0.829  10.275  1.0251  0.1989 -0.5449
42243SOL    HW133779   9.977   0.881  10.317  0.5729  0.3451 -1.4399
42243SOL    HW233780  10.052   0.750  10.329 -0.1535 -0.0100 -0.6764
42244SOL     OW33781   7.485   0.192   2.941  0.3064  0.3425 -0.4379
42244SOL    HW133782   7.482   0.211   3.035 -1.8370  0.3511 -0.4648
42244SOL    HW233783   7.494   0.278   2.899  1.8002  0.3004 -0.2696
42245SOL     OW33784   2.330   9.772   4.796  0.2092 -0.3736 -0.2466
42245SOL    HW133785   2.325   9.679   4.776  0.0517  0.1431 -2.9829
42245SOL    HW233786   2.256   9.789   4.855 -0.0244 -1.8664 -0.0855
42246SOL     OW33787   0.177   7.110  11.166 -0.4082  0.6335 -0.0550
42246SOL    HW133788   0.086   7.096  11.190 -0.5619 -0.9041 -1.3982
42246SOL    HW233789   0.206   7.026  11.130  1.0433  1.5627 -1.1732
42247SOL     OW33790  10.753  11.480   3.126  0.3079 -0.1426  0.3028
42247SOL    HW133791  10.746  11.527   3.043  0.5207  0.0283  0.3791
42247SOL    HW233792  10.779  11.548   3.189 -2.3919  0.3168  1.0660
42248SOL     OW33793   9.455   6.188   5.531 -0.3854  0.1027  0.1205
42248SOL    HW133794   9.407   6.214   5.609 -1.8982 -1.3323 -0.2642
42248SOL    HW233795   9.391   6.197   5.460  0.3553 -0.4870 -0.6391
42249SOL     OW33796   7.091   2.324   4.456  0.3894  0.3091  0.0673
42249SOL    HW133797   7.181   2.306   4.484  0.2443  0.4246  0.6149
42249SOL    HW233798   7.075   2.414   4.484  0.1360  0.3221 -0.1189
42250SOL     OW33799   6.933   4.223  10.081 -0.6706  0.1071  0.0852
42250SOL    HW133800   6.915   4.129  10.090  0.7882 -0.0751  1.9479
42250SOL    HW233801   6.981   4.245  10.161 -1.1862  2.5088 -0.2009
42251SOL     OW33802   1.981   6.711   5.350 -0.2797  0.2931  0.2882
42251SOL    HW133803   1.940   6.639   5.303  0.1179 -0.0885  0.5202
42251SOL    HW233804   1.911   6.748   5.404 -0.2128 -0.6638  1.0538
42252SOL     OW33805   8.069   8.044   1.765  0.1674 -0.9425 -0.0970
42252SOL    HW133806   8.004   8.104   1.727 -1.8429 -2.5063  0.6758
42252SOL    HW233807   8.074   8.069   1.857 -0.3604 -1.6391  0.1327
42253SOL     OW33808  11.976  10.513  12.413  0.0142  1.0969 -0.1602
42253SOL    HW133809  12.024  10.436  12.441 -1.6713  0.6805  1.7741
42253SOL    HW233810  12.028  10.587  12.443  0.5281  0.6972 -0.0660
42254SOL     OW33811   2.498   6.169   9.223 -0.2203 -0.2711  0.0767
42254SOL    HW133812   2.447   6.225   9.282 -0.1118 -0.6723  0.5648
42254SOL    HW233813   2.566   6.226   9.188 -0.0231 -0.1230  0.6804
42255SOL     OW33814   6.035   9.931   2.174  0.2315 -0.0815 -0.5501
42255SOL    HW133815   5.978   9.944   2.098 -2.4377  0.8571  1.4228
42255SOL    HW233816   6.050   9.837   2.178 -0.4078 -0.2445 -1.6877
42256SOL     OW33817   1.345   0.773   2.454  0.2117  0.2797 -0.0254
42256SOL    HW133818   1.392   0.832   2.396 -0.8405  0.1414 -1.0583
42256SOL    HW233819   1.274   0.827   2.490  0.1920  0.0631  0.2653
42257SOL     OW33820   0.238   8.866   7.090  0.0800 -0.4453 -0.4695
42257SOL    HW133821   0.204   8.937   7.035 -0.9343  0.5037  1.2771
42257SOL    HW233822   0.323   8.845   7.053 -1.5199 -1.6583 -3.9716
42258SOL     OW33823   1.948  12.358   9.458  0.4119  0.0457  0.5253
42258SOL    HW133824   1.924  12.445   9.490 -0.5501  0.2502 -0.6392
42258SOL    HW233825   2.029  12.371   9.409 -0.2420  0.4978 -0.4686
42259SOL     OW33826  11.791   0.648   0.047 -0.3905 -0.2469  0.0142
42259SOL    HW133827  11.836   0.726   0.080  1.8122 -0.3316 -2.3795
42259SOL    HW233828  11.800   0.584   0.117 -1.1417  1.2274  1.5349
42260SOL     OW33829   0.911   7.422   1.704  0.6499  0.3259  0.2812
42260SOL    HW133830   0.884   7.400   1.793 -0.2653  0.8800  0.1530
42260SOL    HW233831   0.927   7.517   1.706 -0.0804  0.4681 -0.3153
42261SOL     OW33832   3.803   9.181   3.390  0.1837  0.6081  0.8730
42261SOL    HW133833   3.736   9.115   3.408  0.7103  0.2395  1.5180
42261SOL    HW233834   3.858   9.141   3.323  0.0330  0.7165  0.6859
42262SOL     OW33835  12.084   2.277   6.093 -0.2057  0.1660  0.3959
42262SOL    HW133836  12.034   2.210   6.139 -1.6298  0.6714 -0.3581
42262SOL    HW233837  12.130   2.325   6.162 -1.2529  0.0637  1.1831
42263SOL     OW33838   0.630   7.173   1.607  0.1866  0.5413 -0.2759
42263SOL    HW133839   0.638   7.268   1.599 -0.8793  0.6365 -0.4112
42263SOL    HW233840   0.660   7.138   1.523  0.5868  0.7578 -0.2222
42264SOL     OW33841  10.657   1.777   2.584 -0.1469 -0.2221  0.1533
42264SOL    HW133842  10.663   1.825   2.667 -0.9250  1.6235 -0.8187
42264SOL    HW233843  10.577   1.725   2.592  0.5759 -1.2535  1.1128
42265SOL     OW33844   3.201   4.647   3.873  0.3023  0.3600  0.0594
42265SOL    HW133845   3.134   4.625   3.938 -0.2376  2.8365  0.4170
42265SOL    HW233846   3.182   4.590   3.799 -0.8115 -0.5332  0.9821
42266SOL     OW33847  10.677   5.582   5.255 -0.4423  0.1954 -0.3944
42266SOL    HW133848  10.673   5.488   5.241 -0.3684  0.1026  0.2041
42266SOL    HW233849  10.760   5.596   5.301 -0.4071  0.5628 -0.5654
42267SOL     OW33850   0.424   8.125   7.702  0.1193 -0.3103 -0.0713
42267SOL    HW133851   0.459   8.171   7.778 -1.2343 -0.0953  0.4435
42267SOL    HW233852   0.343   8.171   7.681  0.0591 -0.8694 -1.1494
42268SOL     OW33853   4.660   7.792   8.993  0.6257  0.1746  0.1955
42268SOL    HW133854   4.578   7.787   9.042  0.4335  0.8264 -0.0544
42268SOL    HW233855   4.721   7.838   9.051 -0.0737  2.4551 -0.7634
42269SOL     OW33856  11.329   3.009   8.899  0.2143 -0.2459 -0.0362
42269SOL    HW133857  11.286   3.014   8.985 -0.4045 -0.4180 -0.3319
42269SOL    HW233858  11.396   2.941   8.909 -0.4620 -0.9108  0.0518
42270SOL     OW33859  11.581   6.017   5.897  0.1990  0.0760 -0.4147
42270SOL    HW133860  11.563   6.110   5.887 -0.4251  0.0385  0.3270
42270SOL    HW233861  11.645   6.013   5.968  0.3470 -0.0571 -0.5544
42271SOL     OW33862   4.956   9.633   5.145 -0.1317  0.3654 -0.5572
42271SOL    HW133863   4.990   9.556   5.098  1.1627 -0.4502  1.5711
42271SOL    HW233864   4.867   9.609   5.168  0.0157 -0.1951 -0.5415
42272SOL     OW33865   1.980   1.813   1.517  0.0820 -0.3300 -0.7219
42272SOL    HW133866   1.915   1.745   1.500 -0.6501  0.4303 -1.0533
42272SOL    HW233867   2.059   1.782   1.473 -0.5625 -0.4568 -1.8471
42273SOL     OW33868   6.256   1.369   7.127  0.3005 -0.4808 -0.2771
42273SOL    HW133869   6.282   1.332   7.212 -1.0685 -2.0010 -0.4607
42273SOL    HW233870   6.320   1.334   7.066 -0.8091 -2.4750 -0.4010
42274SOL     OW33871  10.475   6.545   4.142  0.4163 -0.2003 -0.3232
42274SOL    HW133872  10.544   6.530   4.077  1.8023  0.6021  0.9095
42274SOL    HW233873  10.493   6.482   4.211  0.8035  0.9725  0.6739
42275SOL     OW33874  11.256   4.491   5.245  0.0209 -0.4886 -0.8072
42275SOL    HW133875  11.247   4.532   5.159  3.4058  0.8617 -0.6814
42275SOL    HW233876  11.233   4.560   5.308  0.6519 -0.4217 -0.6386
42276SOL     OW33877   2.287  12.254   9.586 -0.1991 -0.4462 -0.1211
42276SOL    HW133878   2.231  12.268   9.662 -1.0119 -2.0219 -0.3743
42276SOL    HW233879   2.273  12.162   9.563  0.1993 -0.0853 -2.0260
42277SOL     OW33880   3.963   2.710   8.353 -0.0841 -0.7084  0.4579
42277SOL    HW133881   4.024   2.731   8.423  0.5282 -1.2953  0.1097
42277SOL    HW233882   3.942   2.618   8.366 -0.7147 -0.5695  0.4361
42278SOL     OW33883   3.701   0.548   4.857  0.6210  0.0727 -0.6502
42278SOL    HW133884   3.794   0.524   4.853  1.3217  2.1947  1.0900
42278SOL    HW233885   3.681   0.582   4.770  1.6670  0.2762 -0.8258
42279SOL     OW33886   8.461   2.809   1.073  0.0767  0.0913  0.4674
42279SOL    HW133887   8.534   2.780   1.127 -1.7669 -0.2485  2.9538
42279SOL    HW233888   8.421   2.728   1.042  0.9771  0.2809 -1.3266
42280SOL     OW33889  10.221   0.959  10.655  0.0234 -0.2333 -0.3661
42280SOL    HW133890  10.300   1.009  10.677 -0.4253  0.6012 -0.5951
42280SOL    HW233891  10.253   0.872  10.634  0.7738 -0.2411  0.6745
42281SOL     OW33892   4.463   5.090   5.035  0.2329 -0.1026 -0.3737
42281SOL    HW133893   4.469   5.032   5.111 -0.5156 -0.4093 -0.5376
42281SOL    HW233894   4.553   5.112   5.014  0.4423  0.2101  0.7734
42282SOL     OW33895   4.264   0.629   3.902  0.7115 -0.0090  0.4397
42282SOL    HW133896   4.204   0.695   3.938  0.6451  0.7256 -0.9517
42282SOL    HW233897   4.210   0.551   3.892  0.7334 -0.2396  1.8845
42283SOL     OW33898   6.419   0.676   1.604 -0.0879 -0.1635 -0.2520
42283SOL    HW133899   6.465   0.751   1.566  0.1964  0.1228  0.6265
42283SOL    HW233900   6.330   0.707   1.617  0.3649  0.5682  1.4820
42284SOL     OW33901   8.293   6.437  12.239  0.1175  0.1197 -0.0601
42284SOL    HW133902   8.239   6.486  12.301 -0.3329  0.4445 -0.7014
42284SOL    HW233903   8.303   6.350  12.280  0.4806  0.5692  0.8307
42285SOL     OW33904   5.849   0.992   9.464 -0.1064  0.6303  0.4097
42285SOL    HW133905   5.857   0.978   9.369 -0.7716  0.8102  0.3198
42285SOL    HW233906   5.755   0.983   9.481 -0.2553  2.4033  0.7457
42286SOL     OW33907   5.866   1.522   1.631  0.3143 -0.1618 -0.0961
42286SOL    HW133908   5.902   1.607   1.654  2.3113 -1.0459  0.2950
42286SOL    HW233909   5.840   1.483   1.715  0.2589 -0.2939 -0.1730
42287SOL     OW33910   4.218  10.721   2.339  0.0400 -1.0135 -0.2633
42287SOL    HW133911   4.196  10.813   2.351  2.2583 -0.1528 -2.1438
42287SOL    HW233912   4.133  10.678   2.324 -1.0014  0.7477  0.3360
42288SOL     OW33913   7.890  11.455  11.209  0.6689 -0.1732 -0.3192
42288SOL    HW133914   7.815  11.503  11.176  0.3018  0.5755  1.4990
42288SOL    HW233915   7.950  11.523  11.240  0.1046 -0.7840  2.3764
42289SOL     OW33916   5.445   0.463   7.727  0.6081 -0.3352  0.0712
42289SOL    HW133917   5.452   0.553   7.759  0.1131 -0.0383 -0.6192
42289SOL    HW233918   5.535   0.431   7.725  0.9699  0.6702 -1.0957
42290SOL     OW33919   6.399   9.048   9.247  0.2547 -0.3820  0.0208
42290SOL    HW133920   6.326   8.986   9.251  0.1483 -0.2749 -0.2467
42290SOL    HW233921   6.374   9.110   9.178 -0.4613  0.9565  1.4147
42291SOL     OW33922   4.434   8.702   1.747 -0.0235 -0.3311  0.0953
42291SOL    HW133923   4.388   8.721   1.665  0.9568  0.5112 -0.2755
42291SOL    HW233924   4.524   8.685   1.720 -0.2215 -2.7599  0.7243
42292SOL     OW33925   8.581   5.632   2.699 -0.0438  0.2431 -0.3228
42292SOL    HW133926   8.581   5.703   2.635  1.2316  0.4180 -0.1611
42292SOL    HW233927   8.600   5.554   2.648 -0.5513  0.1432 -0.3671
42293SOL     OW33928   8.116   0.025   2.821  0.0053 -0.0067  0.0488
42293SOL    HW133929   8.038   0.075   2.799 -0.0409  0.0073  0.2388
42293SOL    HW233930   8.085  -0.045   2.878 -0.1103 -0.9989 -1.2113
42294SOL     OW33931   9.092   0.761   0.609  0.0958  0.5200 -0.0605
42294SOL    HW133932   9.121   0.812   0.534  1.4937 -0.0934  0.0329
42294SOL    HW233933   9.002   0.736   0.588  0.3567  0.6234 -1.3851
42295SOL     OW33934   2.786   5.970  12.471  0.3175 -0.0690  0.2448
42295SOL    HW133935   2.748   6.030  12.407 -0.8215 -0.1440  0.8191
42295SOL    HW233936   2.717   5.958  12.536  1.6171  0.4010  1.7652
42296SOL     OW33937   5.355   7.946   0.649  0.8196 -0.4757 -0.3483
42296SOL    HW133938   5.359   8.006   0.724 -0.9292  1.9301 -2.0091
42296SOL    HW233939   5.276   7.894   0.665  0.9888 -0.6477 -0.0611
42297SOL     OW33940   1.238   8.552   4.632 -0.2960 -0.0471  0.0796
42297SOL    HW133941   1.217   8.567   4.725 -2.9732 -1.6216 -0.1732
42297SOL    HW233942   1.208   8.632   4.588 -1.3935 -0.3066  0.3201
42298SOL     OW33943  12.230  11.822   1.762 -0.3108 -0.2524 -0.0596
42298SOL    HW133944  12.305  11.864   1.805 -0.9173 -0.5681  1.3725
42298SOL    HW233945  12.161  11.888   1.766 -0.5623 -0.5198  0.0297
42299SOL     OW33946   3.761   1.532  12.250  0.0388  0.0699  0.9262
42299SOL    HW133947   3.843   1.522  12.300  0.1538  2.9039  1.4581
42299SOL    HW233948   3.787   1.516  12.159  1.0164  0.1624  1.1682
42300SOL     OW33949   3.979   1.229   1.240  0.0317 -1.1400 -0.1220
42300SOL    HW133950   3.907   1.286   1.215  0.9473  0.9799  1.6620
42300SOL    HW233951   4.021   1.204   1.158 -1.0248 -0.0721 -1.0103
42301SOL     OW33952   0.611   5.198   4.809  0.3762  0.0087 -0.5848
42301SOL    HW133953   0.558   5.220   4.885 -1.0583  0.4478 -1.6650
42301SOL    HW233954   0.672   5.270   4.800  0.3519  0.1008 -0.0207
42302SOL     OW33955   6.568  12.533   0.505  0.0624 -0.0772  0.1531
42302SOL    HW133956   6.613  12.577   0.433  1.0695 -2.2063 -0.6096
42302SOL    HW233957   6.554  12.443   0.473  0.0233 -0.9204  2.3852
42303SOL     OW33958  10.766  12.016   7.103  0.5995  0.1059  0.3879
42303SOL    HW133959  10.816  11.994   7.025 -1.7743 -0.7089 -1.0029
42303SOL    HW233960  10.765  11.935   7.155 -0.7689 -0.4733 -0.4910
42304SOL     OW33961   8.060   2.703   3.856  0.1180 -0.4910 -0.6395
42304SOL    HW133962   8.117   2.626   3.847 -1.2079 -1.7671  1.1006
42304SOL    HW233963   8.120   2.774   3.879  1.0796 -1.9240  1.7314
42305SOL     OW33964  12.064   6.673   3.792  0.6081  0.1550 -0.6699
42305SOL    HW133965  11.989   6.675   3.733  1.0370  0.2074 -1.2234
42305SOL    HW233966  12.071   6.581   3.819 -0.3151  0.3373  0.2658
42306SOL     OW33967   0.349   1.344   1.155  0.7592  0.3076 -0.0064
42306SOL    HW133968   0.352   1.353   1.059 -1.3353 -0.0358 -0.1571
42306SOL    HW233969   0.363   1.432   1.188 -2.0099  1.1410 -0.8078
42307SOL     OW33970   1.112   0.316   8.522  0.3977 -0.3849 -0.4205
42307SOL    HW133971   1.129   0.315   8.427  1.2360  0.5314 -0.2989
42307SOL    HW233972   1.178   0.257   8.559  1.7001  1.1337 -0.2027
42308SOL     OW33973   1.733   3.921  11.842  0.2700  0.3305 -0.4432
42308SOL    HW133974   1.710   4.004  11.883  2.2834  0.5547  0.3659
42308SOL    HW233975   1.718   3.855  11.909  2.5171  0.5718  0.3924
42309SOL     OW33976   1.155   2.353   3.714  0.1500 -0.1637  0.2333
42309SOL    HW133977   1.087   2.415   3.741 -0.3943 -0.0254 -1.3132
42309SOL    HW233978   1.152   2.356   3.618  1.2803 -1.3285  0.1413
42310SOL     OW33979   7.919   3.781   9.248 -0.1600  0.0501 -0.3614
42310SOL    HW133980   8.005   3.819   9.262 -0.2490  0.1138  0.0422
42310SOL    HW233981   7.867   3.811   9.323 -0.1840 -1.0090  0.0628
42311SOL     OW33982   8.442   7.669  10.812 -0.2783  0.0744 -0.0012
42311SOL    HW133983   8.483   7.630  10.890  0.0031  1.4153  0.5417
42311SOL    HW233984   8.391   7.597  10.774  0.5745 -0.9459  0.7129
42312SOL     OW33985   8.196   2.167   6.935  0.1662 -0.4208  0.2772
42312SOL    HW133986   8.197   2.257   6.902 -0.1748 -0.1791  0.9033
42312SOL    HW233987   8.288   2.148   6.954  0.1750  0.0323  0.7397
42313SOL     OW33988   7.839   8.177   1.603 -0.3900  0.4458  0.5103
42313SOL    HW133989   7.826   8.174   1.508  1.7746 -0.0364  0.1948
42313SOL    HW233990   7.750   8.185   1.638 -1.3916 -1.0904 -1.4631
42314SOL     OW33991   9.400   7.703   5.055  0.3730 -0.2461 -0.4720
42314SOL    HW133992   9.345   7.704   4.978  1.9947 -0.2352 -1.6873
42314SOL    HW233993   9.479   7.656   5.028  2.4948  2.7473  0.0059
42315SOL     OW33994  12.567   8.815   4.263  0.6431  0.1257 -0.1540
42315SOL    HW133995  12.487   8.865   4.277 -0.0475 -1.2920  1.3581
42315SOL    HW233996  12.536   8.727   4.239  1.7920  0.0093 -1.3525
42316SOL     OW33997   5.513   3.575   0.864 -0.4068  0.3132  0.3557
42316SOL    HW133998   5.551   3.513   0.802  0.3935 -1.6324  2.6570
42316SOL    HW233999   5.576   3.647   0.869 -0.2589  0.2699 -0.6791
42317SOL     OW34000   9.642   1.785   7.690 -0.3066 -0.2209 -0.1967
42317SOL    HW134001   9.638   1.876   7.717  1.6216  0.1743 -1.0198
42317SOL    HW234002   9.736   1.767   7.680 -0.6618 -2.1171 -0.6242
42318SOL     OW34003   4.074   8.539   4.569 -0.5943  0.6152 -0.1315
42318SOL    HW134004   4.076   8.627   4.533 -0.7409 -0.0906 -1.9724
42318SOL    HW234005   4.008   8.493   4.517  0.8845 -1.1203 -0.5801
42319SOL     OW34006   1.469   2.122  12.428  0.3426 -0.3613 -0.2463
42319SOL    HW134007   1.422   2.046  12.393  1.3573 -0.4085 -1.5884
42319SOL    HW234008   1.543   2.085  12.476  1.4105 -0.2457 -1.7431
42320SOL     OW34009   4.400  10.113  10.512 -1.0236 -0.1145 -0.9150
42320SOL    HW134010   4.481  10.114  10.461 -0.3711 -0.8482  0.0618
42320SOL    HW234011   4.382  10.020  10.525  1.1390 -0.1613  3.6656
42321SOL     OW34012   5.117   0.403   6.133 -0.0843 -0.1212  0.0287
42321SOL    HW134013   5.152   0.480   6.179 -0.3375  0.4344 -0.6925
42321SOL    HW234014   5.022   0.418   6.132 -0.1779 -0.6841  0.3033
42322SOL     OW34015   9.137  11.185   8.257 -0.3664 -0.5541  0.3798
42322SOL    HW134016   9.230  11.173   8.241 -0.1902 -0.5204  1.3086
42322SOL    HW234017   9.104  11.097   8.274 -0.5605 -0.5983 -0.2150
42323SOL     OW34018   5.620  10.872  12.471  0.1691  0.5014  0.3532
42323SOL    HW134019   5.669  10.926  12.409 -0.5221  0.1420 -0.5396
42323SOL    HW234020   5.623  10.920  12.553  2.6535  0.1182  0.5434
42324SOL     OW34021  11.719  11.947  11.327  0.7237  0.2545  0.1856
42324SOL    HW134022  11.778  11.872  11.315  0.8618  0.3118  0.5194
42324SOL    HW234023  11.776  12.023  11.325  0.5870  0.3527 -0.1063
42325SOL     OW34024   7.724  11.249   4.324 -0.2165 -0.3740 -0.2442
42325SOL    HW134025   7.704  11.181   4.389  1.5395 -0.8740 -0.1968
42325SOL    HW234026   7.807  11.223   4.285 -0.3501  0.8610 -1.4585
42326SOL     OW34027   3.198   2.662   9.890  0.4962  0.2566 -0.0888
42326SOL    HW134028   3.177   2.730   9.953 -0.4078 -0.2464  0.1814
42326SOL    HW234029   3.133   2.674   9.820 -1.9763 -2.3372  1.5147
42327SOL     OW34030   5.571   2.619   6.279  0.2399  0.2631  0.2367
42327SOL    HW134031   5.507   2.675   6.235 -0.7236 -0.7811  0.2610
42327SOL    HW234032   5.593   2.667   6.359 -0.5427  0.6208  0.2483
42328SOL     OW34033   0.825  11.906   8.850 -0.5168 -0.0701  0.2324
42328SOL    HW134034   0.864  11.831   8.805  1.0157  0.2358  1.0128
42328SOL    HW234035   0.735  11.878   8.868 -0.7544 -0.7348 -1.7422
42329SOL     OW34036   3.141   7.507   2.536  0.8120 -0.2140 -0.0649
42329SOL    HW134037   3.100   7.521   2.451 -0.5297  1.9030  0.8574
42329SOL    HW234038   3.229   7.543   2.526 -0.3740  3.1347  0.2534
42330SOL     OW34039   1.085   3.684   2.370 -0.2294  0.2529 -0.4074
42330SOL    HW134040   1.076   3.678   2.465  0.9426  3.1640 -0.0130
42330SOL    HW234041   1.048   3.769   2.348 -0.0836 -0.1729 -2.5483
42331SOL     OW34042   6.201   0.827  11.890 -0.0753  0.5558  0.1698
42331SOL    HW134043   6.203   0.762  11.820 -1.8702  2.3797 -1.7280
42331SOL    HW234044   6.144   0.788  11.957  1.0905 -0.9226  0.3561
42332SOL     OW34045   6.549   9.674   1.100  0.0755  0.2098 -0.8230
42332SOL    HW134046   6.611   9.737   1.063  2.4558 -0.9457  0.9292
42332SOL    HW234047   6.559   9.596   1.046  0.6649 -0.1769 -0.1811
42333SOL     OW34048   2.485  10.465  11.687 -0.1361 -0.3342  0.0707
42333SOL    HW134049   2.497  10.466  11.782 -0.8440  1.1140  0.1622
42333SOL    HW234050   2.555  10.521  11.654 -1.6342  1.5540 -0.0092
42334SOL     OW34051   4.383   7.974  10.002 -0.5833 -0.5295 -0.3649
42334SOL    HW134052   4.352   7.920  10.074 -2.4225  1.6474  0.6167
42334SOL    HW234053   4.310   7.973   9.939  0.2975 -1.0112 -1.3959
42335SOL     OW34054   6.571   2.266   6.483 -0.2510 -0.1260 -0.3680
42335SOL    HW134055   6.609   2.329   6.545 -2.4362  2.9720 -1.8732
42335SOL    HW234056   6.533   2.199   6.538  0.0569  1.1654  1.5321
42336SOL     OW34057   1.483   1.145  11.158 -0.3204 -0.2850 -0.5606
42336SOL    HW134058   1.502   1.214  11.095 -0.0472  1.3376  1.1874
42336SOL    HW234059   1.435   1.189  11.228  1.3751 -1.4565  1.4522
42337SOL     OW34060   7.175   9.918   1.311  0.3817 -0.6400 -0.4585
42337SOL    HW134061   7.225   9.898   1.232  1.5444  1.3364 -0.3027
42337SOL    HW234062   7.240   9.954   1.371 -1.2592  2.7042 -0.4851
42338SOL     OW34063   0.003  11.886  11.564  0.4797 -0.2847 -0.5909
42338SOL    HW134064  -0.017  11.867  11.472 -1.2152 -1.5162 -0.0287
42338SOL    HW234065  -0.005  11.801  11.608  1.5928  0.2275  0.6563
42339SOL     OW34066  12.448   5.323  10.681  0.2231 -0.4415 -0.0713
42339SOL    HW134067  12.421   5.346  10.592  1.8308  0.0448 -0.4676
42339SOL    HW234068  12.393   5.377  10.738 -0.4827 -0.3992 -0.7888
42340SOL     OW34069   2.232  10.705   0.882 -0.2524  0.3383  0.4459
42340SOL    HW134070   2.314  10.707   0.834 -0.5091 -0.1033 -0.0305
42340SOL    HW234071   2.224  10.614   0.911 -1.9422 -0.4139 -2.0065
42341SOL     OW34072  12.324  11.536   4.775 -0.2127 -0.0156 -0.5398
42341SOL    HW134073  12.245  11.521   4.827 -1.4425  2.6392 -1.4606
42341SOL    HW234074  12.384  11.580   4.836 -0.1750 -0.3418 -0.3412
42342SOL     OW34075   4.680   6.819   2.834  0.1567 -0.2279  0.6047
42342SOL    HW134076   4.682   6.776   2.920 -0.1199 -0.0770  0.6867
42342SOL    HW234077   4.771   6.841   2.816  0.0159  1.3695  1.6780
42343SOL     OW34078   8.469   2.144  12.093  0.0532  0.1229  0.0494
42343SOL    HW134079   8.476   2.228  12.048  1.0031  0.0746  0.0833
42343SOL    HW234080   8.385   2.109  12.065  0.2660  0.4600 -1.0653
42344SOL     OW34081  11.600   5.071   5.384  0.6207 -0.3079  0.2299
42344SOL    HW134082  11.579   5.099   5.473  2.0295 -0.1391  0.5306
42344SOL    HW234083  11.579   4.978   5.383  2.1550 -0.6909  1.2705
42345SOL     OW34084   9.571   7.617   2.865  0.0460 -0.3639 -0.2099
42345SOL    HW134085   9.578   7.694   2.809  1.1417  0.4802  1.0118
42345SOL    HW234086   9.480   7.590   2.859 -0.2833  0.8510 -0.9038
42346SOL     OW34087  10.383   6.836   2.709 -0.2624 -0.6683 -0.2141
42346SOL    HW134088  10.322   6.908   2.724  1.4683  0.9275 -0.4924
42346SOL    HW234089  10.430   6.861   2.629  0.7161 -1.8726 -0.0398
42347SOL     OW34090   7.732  10.465   7.964 -0.5171  0.3121 -0.8934
42347SOL    HW134091   7.690  10.519   7.897 -0.7739 -0.4320 -1.3466
42347SOL    HW234092   7.795  10.412   7.916  0.3956  0.8674 -0.3219
42348SOL     OW34093   7.171   0.879   2.454 -1.0369  0.2870  0.0917
42348SOL    HW134094   7.097   0.903   2.399 -0.8031  0.2957 -0.2204
42348SOL    HW234095   7.157   0.786   2.473  0.0207 -0.3170 -1.8012
42349SOL     OW34096   1.918   3.081   7.810 -0.2713  0.8237  0.1766
42349SOL    HW134097   1.995   3.036   7.776  0.4342  1.7313  0.5249
42349SOL    HW234098   1.951   3.134   7.882 -1.1701  1.4691  0.1337
42350SOL     OW34099   9.318  10.481   6.560  0.1237  0.1319 -0.0249
42350SOL    HW134100   9.223  10.478   6.548 -0.0615  2.7146  0.2874
42350SOL    HW234101   9.351  10.520   6.479  1.0835 -1.7553 -0.5983
42351SOL     OW34102   4.259   8.060   5.235  0.2591 -0.3644  0.1502
42351SOL    HW134103   4.164   8.055   5.246  0.2676 -2.6233 -0.1985
42351SOL    HW234104   4.294   8.067   5.324 -0.2384  1.0906  0.2408
42352SOL     OW34105   9.610   7.797   4.638  0.0486  0.0666 -0.3034
42352SOL    HW134106   9.553   7.720   4.643  0.1208  0.0350  0.0235
42352SOL    HW234107   9.589   7.848   4.716  1.1599 -0.4211  0.3339
42353SOL     OW34108   7.695  12.436   0.369  0.3136 -0.3509 -0.0600
42353SOL    HW134109   7.723  12.498   0.302  0.4223 -0.3433 -0.0088
42353SOL    HW234110   7.610  12.404   0.339  0.2947 -0.2380 -0.1273
42354SOL     OW34111   9.391   2.078   9.292 -0.0189 -0.0614  0.1641
42354SOL    HW134112   9.296   2.093   9.285  0.0958  1.0897  0.8139
42354SOL    HW234113   9.414   2.034   9.210 -0.6146  2.3911 -1.4194
42355SOL     OW34114   4.397   2.945   6.639 -0.5446 -0.1223 -0.5047
42355SOL    HW134115   4.398   2.856   6.674  0.7063  0.3091  0.6450
42355SOL    HW234116   4.305   2.970   6.639 -0.7513 -0.8104  0.7757
42356SOL     OW34117   7.014   7.436   9.039  0.0363  0.0277  0.6096
42356SOL    HW134118   7.075   7.510   9.037  2.8992 -2.1878  0.0625
42356SOL    HW234119   6.956   7.456   9.112  3.2525  0.9855  3.1789
42357SOL     OW34120  10.089   2.761   1.425 -0.1135  0.3940 -0.0625
42357SOL    HW134121  10.173   2.775   1.382 -0.9120  1.2786 -1.4082
42357SOL    HW234122  10.046   2.847   1.422 -1.1014 -0.0673  0.5047
42358SOL     OW34123   2.236   7.974  10.255  0.1067 -0.3906 -0.6793
42358SOL    HW134124   2.233   7.932  10.340  0.9644 -2.7270 -1.7178
42358SOL    HW234125   2.254   8.066  10.274  0.5637 -0.8969  1.6216
42359SOL     OW34126   4.966   3.453   0.466 -0.2357  0.0920 -0.3470
42359SOL    HW134127   4.917   3.480   0.543  0.2590  0.2590 -0.0865
42359SOL    HW234128   4.977   3.533   0.415  0.6759  0.2764  0.1143
42360SOL     OW34129   3.754   8.349   0.149  0.1196 -0.0580 -0.6273
42360SOL    HW134130   3.686   8.406   0.113 -0.5999 -1.3949 -1.4775
42360SOL    HW234131   3.723   8.326   0.237 -0.1966 -0.1085 -0.7512
42361SOL     OW34132   7.305   3.241  11.604 -0.0884 -0.3199 -0.3313
42361SOL    HW134133   7.349   3.310  11.555  1.7079 -0.7381  0.6006
42361SOL    HW234134   7.216   3.274  11.618 -0.1170  0.5551 -2.2865
42362SOL     OW34135  11.171  12.163   9.454 -0.2739 -0.2895 -0.1572
42362SOL    HW134136  11.197  12.079   9.416  1.1913 -0.6489  1.4971
42362SOL    HW234137  11.203  12.159   9.545  0.2704  2.2468 -0.1700
42363SOL     OW34138   8.961   5.889  11.952 -0.1526 -0.0412 -0.4834
42363SOL    HW134139   9.028   5.896  11.884 -0.4299 -0.4002 -0.7937
42363SOL    HW234140   9.008   5.909  12.033  0.3535 -0.3869 -0.6868
42364SOL     OW34141   7.549   9.507   0.556  0.0480  0.3691 -0.2720
42364SOL    HW134142   7.591   9.430   0.594 -0.2546  0.4986  0.3478
42364SOL    HW234143   7.620   9.555   0.513  0.4058  0.2212  0.1460
42365SOL     OW34144   3.870   2.210   6.452  0.0394 -0.4299  0.1633
42365SOL    HW134145   3.899   2.257   6.531 -0.5337 -0.2292  0.2543
42365SOL    HW234146   3.934   2.140   6.442  0.6185  0.0607  0.3143
42366SOL     OW34147   6.093  12.090  12.366  0.3976  0.2659  0.1854
42366SOL    HW134148   6.154  12.019  12.383  0.6421  0.2329 -0.7781
42366SOL    HW234149   6.127  12.132  12.287  0.1007  1.2795  0.5845
42367SOL     OW34150  11.130   7.553   2.568 -0.1195  0.4512  0.2088
42367SOL    HW134151  11.048   7.504   2.568 -0.2131  0.5678  1.4874
42367SOL    HW234152  11.196   7.490   2.538 -0.6240  0.2739 -0.5434
42368SOL     OW34153   9.303   7.726   5.855  0.1209 -0.3554  0.1444
42368SOL    HW134154   9.298   7.811   5.898 -0.1241 -0.1880 -0.2109
42368SOL    HW234155   9.262   7.665   5.916  2.4383 -0.6716  1.5101
42369SOL     OW34156   8.536   3.027   2.880  0.5605  0.3084  0.0852
42369SOL    HW134157   8.609   2.966   2.873 -0.2207 -0.4744 -1.8382
42369SOL    HW234158   8.476   2.987   2.943  1.1667  0.3350  0.6957
42370SOL     OW34159   1.617   3.197   9.260 -0.4662 -0.2081  0.2240
42370SOL    HW134160   1.549   3.249   9.303 -0.0622  0.5882 -0.0807
42370SOL    HW234161   1.669   3.261   9.212  0.0716 -0.8964 -0.1224
42371SOL     OW34162   7.757   2.635  11.882  0.1980  0.2418 -0.3897
42371SOL    HW134163   7.673   2.589  11.879  0.9669 -1.5033  1.6576
42371SOL    HW234164   7.761   2.684  11.800 -2.2464 -0.5993 -1.1061
42372SOL     OW34165   0.447   0.657   7.754 -0.7237 -0.5648  0.8049
42372SOL    HW134166   0.533   0.663   7.797 -0.6872 -0.1677  0.6807
42372SOL    HW234167   0.415   0.747   7.753 -1.7132 -0.8799  2.0109
42373SOL     OW34168   2.046  12.240   0.018  0.3267 -0.1274  0.6196
42373SOL    HW134169   2.030  12.334   0.011  0.1100 -0.2739 -1.4302
42373SOL    HW234170   1.961  12.203   0.044  0.6183  0.2779  2.2900
42374SOL     OW34171   6.810   3.717   1.771 -0.4560 -0.9377  0.0563
42374SOL    HW134172   6.804   3.630   1.812 -1.7019  0.3690  2.8649
42374SOL    HW234173   6.720   3.750   1.774  0.4405  1.6182  1.8717
42375SOL     OW34174  12.199   8.211   1.709  0.2276  0.1369  0.5820
42375SOL    HW134175  12.113   8.249   1.730 -0.3687 -0.6969 -0.2862
42375SOL    HW234176  12.257   8.287   1.702 -0.5995  0.7738  0.4060
42376SOL     OW34177  10.509  11.737  11.867 -0.2995 -0.1675 -0.2033
42376SOL    HW134178  10.460  11.655  11.862  0.5258 -0.6548 -0.5993
42376SOL    HW234179  10.474  11.790  11.796  1.8195 -1.7154 -2.5782
42377SOL     OW34180  10.227   6.781   0.304  0.1097  0.1153 -0.1660
42377SOL    HW134181  10.298   6.753   0.246 -0.6569 -0.3719 -0.8727
42377SOL    HW234182  10.258   6.757   0.392  0.5928 -0.5750 -0.5192
42378SOL     OW34183   2.628  11.755  12.313  0.1248  1.0380 -0.3029
42378SOL    HW134184   2.547  11.710  12.337  1.7032 -0.8067  1.9627
42378SOL    HW234185   2.646  11.812  12.387  1.6049  0.3636 -0.1122
42379SOL     OW34186   9.163   1.888  12.313 -0.3590 -0.0579  0.1405
42379SOL    HW134187   9.160   1.808  12.260  0.0409  0.4675 -0.7090
42379SOL    HW234188   9.150   1.858  12.403 -0.1013 -1.0915 -0.1493
42380SOL     OW34189   5.679   9.192  12.566  0.0015 -0.1471 -0.5600
42380SOL    HW134190   5.595   9.231  12.592 -0.6813 -0.6750 -1.8414
42380SOL    HW234191   5.727   9.265  12.526  1.8691  1.1822  3.5566
42381SOL     OW34192   9.042   5.322   2.984  0.2122 -0.1785  0.4516
42381SOL    HW134193   9.058   5.390   2.919 -1.1915 -1.9101 -1.9365
42381SOL    HW234194   9.121   5.268   2.982 -0.1945 -0.7827 -0.6666
42382SOL     OW34195  12.265   1.864  10.580  0.2051  0.5800 -0.3406
42382SOL    HW134196  12.172   1.855  10.599  0.7056 -0.4686  2.0083
42382SOL    HW234197  12.281   1.958  10.580 -0.6046  0.7340  0.8354
42383SOL     OW34198   2.751   1.420   8.600 -0.6068 -0.4555  0.2089
42383SOL    HW134199   2.677   1.414   8.661 -2.9034  0.0074 -2.3258
42383SOL    HW234200   2.773   1.329   8.581 -1.4290 -0.6247  0.0108
42384SOL     OW34201  11.789  12.523   0.225 -0.3471  0.4874  0.7321
42384SOL    HW134202  11.814  12.615   0.214 -0.4473  0.6302  1.6482
42384SOL    HW234203  11.811  12.503   0.316 -0.7369 -0.2680  0.6639
42385SOL     OW34204   3.446  10.122   2.917 -0.6266  0.5180 -0.0803
42385SOL    HW134205   3.432  10.031   2.944  0.0269  0.4912  0.1647
42385SOL    HW234206   3.369  10.142   2.863  0.0655 -0.7595 -1.6458
42386SOL     OW34207   3.307   1.230   0.252 -0.1822 -0.2616 -0.2025
42386SOL    HW134208   3.218   1.194   0.254 -0.9796  1.5679 -0.3564
42386SOL    HW234209   3.364   1.154   0.261 -1.7652 -1.4414  0.3565
42387SOL     OW34210  11.808   5.824  11.496 -0.2418  0.0495  0.2237
42387SOL    HW134211  11.764   5.795  11.416 -1.8713  2.5640  0.0630
42387SOL    HW234212  11.753   5.790  11.567 -1.3069  1.3720  0.0810
42388SOL     OW34213   6.186  11.835  11.764  0.1722  0.1082  0.1646
42388SOL    HW134214   6.092  11.846  11.779  0.3561 -0.7540  2.2427
42388SOL    HW234215   6.198  11.740  11.758  1.0207  0.1659  0.8558
42389SOL     OW34216   1.636   2.977   0.137 -0.1764 -0.5733 -0.3803
42389SOL    HW134217   1.656   3.023   0.055  1.2060 -1.7586 -0.7644
42389SOL    HW234218   1.580   3.037   0.186  0.6178  1.0130 -1.3434
42390SOL     OW34219  10.780  10.700  11.949  0.0124  0.1844  0.5548
42390SOL    HW134220  10.809  10.786  11.979 -1.2107  1.2616 -1.1774
42390SOL    HW234221  10.840  10.639  11.990  1.3687  1.9173  1.2657
42391SOL     OW34222   9.678   4.787   8.641  0.1730 -0.3180  0.2936
42391SOL    HW134223   9.721   4.857   8.690  0.0005 -0.3525  0.4951
42391SOL    HW234224   9.749   4.732   8.609  0.4097  0.6356 -0.9258
42392SOL     OW34225   1.793   4.768   9.760 -0.0795  0.2267 -0.1276
42392SOL    HW134226   1.753   4.848   9.796 -1.0009  0.0611 -0.7535
42392SOL    HW234227   1.877   4.798   9.724 -0.0875  0.7776  0.3003
42393SOL     OW34228   2.073  11.697   4.414 -0.2148  0.2533 -0.1694
42393SOL    HW134229   1.980  11.685   4.433 -0.2185  1.4662  0.7560
42393SOL    HW234230   2.075  11.748   4.333 -0.4157  1.2928  0.4566
42394SOL     OW34231   6.660   4.371   2.083 -0.2478  0.2075  0.0540
42394SOL    HW134232   6.654   4.349   1.990  1.0098 -2.6727  0.5521
42394SOL    HW234233   6.725   4.442   2.086  0.3751 -0.2781 -1.1938
42395SOL     OW34234   4.998   1.610   2.768  0.1144 -0.2079 -0.7284
42395SOL    HW134235   4.928   1.546   2.752  0.5580 -0.8869 -0.0168
42395SOL    HW234236   5.078   1.558   2.769  0.3588  0.1137  1.2173
42396SOL     OW34237   5.253   1.449   2.662  0.3001  0.4811  0.1571
42396SOL    HW134238   5.238   1.443   2.567 -2.1523  1.3308  0.4302
42396SOL    HW234239   5.258   1.358   2.691 -0.9361  0.1580 -0.5586
42397SOL     OW34240   9.560   7.981   2.940 -0.9022 -0.0967 -0.2183
42397SOL    HW134241   9.651   7.999   2.966 -0.5837 -1.2290 -0.5344
42397SOL    HW234242   9.523   7.934   3.015 -1.3029  0.5551  0.0005
42398SOL     OW34243  12.261  11.629   9.600  0.5596 -0.1029 -0.1440
42398SOL    HW134244  12.285  11.550   9.648 -1.6972 -0.6054  0.2830
42398SOL    HW234245  12.171  11.647   9.627  0.7060  2.1253 -0.9062
42399SOL     OW34246   3.553   3.350   6.300 -0.3971 -0.4944 -0.6817
42399SOL    HW134247   3.617   3.315   6.362 -1.5470  0.3313  1.0551
42399SOL    HW234248   3.488   3.280   6.289 -0.6606 -0.3204 -0.2452
42400SOL     OW34249   0.589  12.222  12.136  0.5690 -0.3404  0.1696
42400SOL    HW134250   0.598  12.133  12.172  1.7687 -0.2255  0.1903
42400SOL    HW234251   0.678  12.251  12.122  0.1587  0.3597 -1.1224
42401SOL     OW34252   7.436   8.967   3.540 -0.1347 -0.0282  0.6990
42401SOL    HW134253   7.524   8.988   3.570  1.2715 -2.3252 -1.4501
42401SOL    HW234254   7.381   8.980   3.617  2.5093 -1.2383  2.9723
42402SOL     OW34255   4.783   4.704   0.860 -0.6270  0.4805 -0.0754
42402SOL    HW134256   4.823   4.722   0.945 -0.4938 -0.1440  0.0010
42402SOL    HW234257   4.693   4.678   0.880  0.0186 -1.8589  0.0930
42403SOL     OW34258  10.907   0.287  11.140 -0.4940  0.3032  0.4015
42403SOL    HW134259  10.854   0.345  11.085  1.0631  0.4590 -1.0156
42403SOL    HW234260  10.909   0.204  11.091  0.6190  0.3228  0.3996
42404SOL     OW34261   3.681   2.008   0.341  0.8191 -0.0847  0.0667
42404SOL    HW134262   3.735   1.963   0.277  2.4315 -0.3147  1.5177
42404SOL    HW234263   3.595   1.965   0.334  0.9583 -0.1313 -1.8431
42405SOL     OW34264  10.377   7.626   7.768 -0.1105  0.0028  0.1264
42405SOL    HW134265  10.357   7.630   7.674 -1.1847 -0.7784  0.2981
42405SOL    HW234266  10.317   7.689   7.808 -0.6200 -0.6492  0.4151
42406SOL     OW34267   3.606   4.706   8.253  0.5403  0.0452  0.0723
42406SOL    HW134268   3.596   4.715   8.348 -0.2767 -1.4993  0.1712
42406SOL    HW234269   3.663   4.630   8.242  2.6720  1.6710 -0.6944
42407SOL     OW34270  10.326   6.482  11.029  0.1457  0.5820  0.3962
42407SOL    HW134271  10.316   6.577  11.037  1.3094  0.8510 -0.8869
42407SOL    HW234272  10.418   6.465  11.047  0.6053  0.0828 -2.0757
42408SOL     OW34273   5.812   5.607   1.269  0.4315  0.3292  0.1428
42408SOL    HW134274   5.799   5.646   1.355  0.1712 -2.1535  1.3412
42408SOL    HW234275   5.888   5.549   1.280 -0.5814 -1.2659 -0.7945
42409SOL     OW34276   4.982   2.965   2.415  0.0101  0.0664  0.5306
42409SOL    HW134277   4.938   3.011   2.344  0.5302 -1.1830 -0.6622
42409SOL    HW234278   4.914   2.912   2.456 -0.0440 -0.1964  0.1080
42410SOL     OW34279   6.172   6.483  11.333 -0.2987 -0.2688 -0.4187
42410SOL    HW134280   6.158   6.565  11.286 -1.7583 -1.1096 -1.5553
42410SOL    HW234281   6.148   6.502  11.423 -0.7551  0.5190 -0.6989
42411SOL     OW34282  10.937   8.629  11.131 -0.0732 -0.0290 -0.1182
42411SOL    HW134283  11.009   8.690  11.149 -0.9810  0.9359  0.3675
42411SOL    HW234284  10.858   8.683  11.139 -0.9410 -1.3963  0.8760
42412SOL     OW34285   9.365   7.905  12.092 -0.1591 -0.0601  0.0313
42412SOL    HW134286   9.440   7.886  12.035  0.1389  0.1941  0.3336
42412SOL    HW234287   9.289   7.902  12.034 -0.0490 -1.4606 -0.0797
42413SOL     OW34288   7.351   7.178   8.184  0.1630  0.0608  0.0519
42413SOL    HW134289   7.400   7.253   8.218  0.9869  0.2941 -1.5610
42413SOL    HW234290   7.396   7.155   8.103 -1.2646 -0.9471 -0.4851
42414SOL     OW34291  11.604   1.748   4.498  0.1771  0.2090  0.0012
42414SOL    HW134292  11.559   1.832   4.502 -0.8425 -0.2629 -1.0584
42414SOL    HW234293  11.621   1.725   4.589 -2.0623  0.2336  0.4713
42415SOL     OW34294   2.683  12.347  11.450 -0.5333 -0.3003  0.0712
42415SOL    HW134295   2.775  12.347  11.476 -0.1507 -2.2460 -1.0611
42415SOL    HW234296   2.669  12.433  11.411  0.5702  0.3102  0.9517
42416SOL     OW34297   0.240   8.401  10.928  0.2310  0.6222  0.6474
42416SOL    HW134298   0.229   8.365  11.015 -0.4680  0.9995  0.7230
42416SOL    HW234299   0.331   8.432  10.925  0.5037 -0.1299  0.9492
42417SOL     OW34300  12.161   4.433   4.698  0.1479 -0.5790  0.1886
42417SOL    HW134301  12.253   4.420   4.722  0.1621 -0.9658 -0.0594
42417SOL    HW234302  12.111   4.395   4.770  0.1843 -0.6338  0.1849
42418SOL     OW34303   9.276  11.423  11.090  0.7418 -0.1338 -0.8666
42418SOL    HW134304   9.351  11.364  11.077  1.0452 -0.1348  0.7197
42418SOL    HW234305   9.221  11.378  11.154  1.4729  1.6779  1.1620
42419SOL     OW34306  10.120   1.813   6.245  0.3294 -0.4953  0.2769
42419SOL    HW134307  10.042   1.759   6.258  0.2821 -0.4158  0.3224
42419SOL    HW234308  10.158   1.782   6.162  0.3312 -0.6343  0.3300
42420SOL     OW34309   9.488  10.086   2.816  0.2479 -0.1721  0.1195
42420SOL    HW134310   9.462  10.171   2.852 -0.6606 -0.2799 -0.2399
42420SOL    HW234311   9.565  10.061   2.866 -0.4688  0.0852  1.4017
42421SOL     OW34312   1.434   1.775   2.295  0.9776 -0.5050 -0.3532
42421SOL    HW134313   1.447   1.704   2.358  1.3804  0.7337  1.0448
42421SOL    HW234314   1.517   1.822   2.295  0.9203 -0.3740 -1.7141
42422SOL     OW34315   9.357  11.129   6.822 -0.4938 -0.4131 -0.1601
42422SOL    HW134316   9.309  11.049   6.845  1.1870 -1.4436 -0.0326
42422SOL    HW234317   9.312  11.198   6.871 -1.7089 -1.3456  0.1080
42423SOL     OW34318   0.940   4.997  10.051 -0.2531  0.6121 -0.1718
42423SOL    HW134319   0.959   4.981   9.959  0.1222  1.2934 -0.2152
42423SOL    HW234320   0.849   4.970  10.062  0.4215 -1.8929 -0.1613
42424SOL     OW34321   2.752   1.261  11.272 -0.1024  0.3166  0.4657
42424SOL    HW134322   2.697   1.217  11.207 -0.2289 -0.1766  0.9021
42424SOL    HW234323   2.830   1.206  11.279  0.0448  0.5315  0.5097
42425SOL     OW34324   7.904   6.503  12.284 -0.0231  0.2072 -0.2050
42425SOL    HW134325   7.854   6.438  12.234 -0.5861 -0.4808  1.1818
42425SOL    HW234326   7.967   6.538  12.222 -1.9355  0.8182 -1.9288
42426SOL     OW34327   0.257   2.963   3.814 -0.6156  0.1570 -0.4699
42426SOL    HW134328   0.294   2.973   3.726 -0.8678 -0.6744 -0.6779
42426SOL    HW234329   0.330   2.932   3.867 -0.2823  1.3237 -0.2153
42427SOL     OW34330   2.434  12.273   8.898 -0.0988  0.4648 -0.2756
42427SOL    HW134331   2.522  12.238   8.880 -0.7000 -0.4879 -1.5330
42427SOL    HW234332   2.410  12.233   8.982  0.4798  0.3505 -0.1581
42428SOL     OW34333   3.640   6.537   8.442  0.0323  0.4837 -0.6696
42428SOL    HW134334   3.656   6.517   8.534 -1.7817  1.9327  0.0163
42428SOL    HW234335   3.722   6.574   8.411  1.6938 -2.7446 -0.5412
42429SOL     OW34336  11.864  12.536  11.252  0.3384 -0.3556 -0.3637
42429SOL    HW134337  11.816  12.453  11.246  1.5450 -0.9962 -2.3151
42429SOL    HW234338  11.925  12.533  11.179  2.7115  0.8167  1.4340
42430SOL     OW34339   3.859   7.173  12.031 -0.0916  0.0571  0.3233
42430SOL    HW134340   3.774   7.175  12.074 -0.2081 -1.3997  0.2203
42430SOL    HW234341   3.838   7.164  11.938  0.1798  1.2269  0.1294
42431SOL     OW34342   8.503   0.598   8.873  0.1265 -0.0839  0.0832
42431SOL    HW134343   8.558   0.543   8.929  1.0863  0.4848 -0.2747
42431SOL    HW234344   8.489   0.678   8.924  0.8550  0.3619 -0.3947
42432SOL     OW34345   7.113  11.255   8.940 -0.2209  0.3877 -0.4150
42432SOL    HW134346   7.156  11.181   8.897  0.5852  0.8277 -0.3854
42432SOL    HW234347   7.080  11.308   8.868 -2.1982 -0.7602 -0.4386
42433SOL     OW34348   9.827  10.984   7.026  0.1263 -0.2485 -0.4551
42433SOL    HW134349   9.743  11.006   6.987  0.8356  2.5126 -0.6197
42433SOL    HW234350   9.892  11.022   6.966  1.3549  0.5147  1.2852
42434SOL     OW34351   7.352  10.516   7.921  0.2741 -0.0101  0.0989
42434SOL    HW134352   7.379  10.604   7.895  1.9724 -0.1205  1.2891
42434SOL    HW234353   7.315  10.528   8.009 -0.2590 -0.3818 -0.0730
42435SOL     OW34354   0.877   8.705   9.073  0.2703 -0.1158 -0.3835
42435SOL    HW134355   0.891   8.611   9.078  0.9662  0.0190  0.6477
42435SOL    HW234356   0.946   8.742   9.129 -1.4043  0.8762  1.1196
42436SOL     OW34357   2.219  10.886   2.372  0.2978 -0.3852 -0.2575
42436SOL    HW134358   2.313  10.884   2.390  0.1498  0.2416  0.6679
42436SOL    HW234359   2.184  10.949   2.435 -0.8672 -1.2893  0.0432
42437SOL     OW34360   4.196   8.407   9.960 -0.1499 -0.0283  0.1965
42437SOL    HW134361   4.160   8.389   9.873  1.2126  0.6084 -0.5270
42437SOL    HW234362   4.161   8.493   9.982  2.4583  1.5886 -1.4416
42438SOL     OW34363   6.570  10.519   1.013  0.5548 -0.4948 -0.7290
42438SOL    HW134364   6.645  10.563   1.053  0.2042 -1.4715  1.0898
42438SOL    HW234365   6.565  10.434   1.057 -1.0358 -0.8436 -1.4954
42439SOL     OW34366   9.392  10.743  10.708 -0.1561 -0.4411 -0.0615
42439SOL    HW134367   9.390  10.829  10.750 -0.6287  0.8482 -2.5286
42439SOL    HW234368   9.300  10.723  10.690  0.0047 -1.1432 -0.1128
42440SOL     OW34369   3.780   2.910  11.935 -0.4490  0.3550 -0.2181
42440SOL    HW134370   3.694   2.868  11.928  0.4288 -1.8128  1.1524
42440SOL    HW234371   3.828   2.880  11.858  0.1096 -1.0372  0.6547
42441SOL     OW34372   5.334   7.135   6.731  0.3915  0.0538 -0.6954
42441SOL    HW134373   5.333   7.229   6.752  2.6463 -0.4737  2.6209
42441SOL    HW234374   5.244   7.107   6.745 -0.0366  1.4884 -0.3898
42442SOL     OW34375   9.531  11.845   0.777  0.8954  0.2802  0.0415
42442SOL    HW134376   9.466  11.825   0.844  1.0078  0.6588  0.2656
42442SOL    HW234377   9.569  11.928   0.805  0.1335  1.0504 -1.0911
42443SOL     OW34378  11.175  10.788   8.315  0.5983  0.0728 -0.6452
42443SOL    HW134379  11.175  10.858   8.250 -0.1527 -0.5272 -1.3040
42443SOL    HW234380  11.085  10.782   8.345  0.3813 -1.4049 -1.4878
42444SOL     OW34381   7.638  11.081  12.457 -0.0662  0.6920  0.0900
42444SOL    HW134382   7.609  11.019  12.524  0.1032 -0.5911 -0.9728
42444SOL    HW234383   7.567  11.081  12.393  0.5471  0.5271 -0.6037
42445SOL     OW34384   3.725   5.146   7.449  0.8666 -0.5656  0.5340
42445SOL    HW134385   3.801   5.160   7.505  1.7395 -2.4325 -0.0926
42445SOL    HW234386   3.669   5.087   7.499  0.0516  0.3915  0.7752
42446SOL     OW34387   7.460   4.250   4.062  0.5520 -0.1376  0.3600
42446SOL    HW134388   7.388   4.202   4.021  0.4844  0.5300 -0.3364
42446SOL    HW234389   7.418   4.325   4.104  0.5244 -1.2490  2.4046
42447SOL     OW34390  11.833   6.572  11.590  0.3317  0.5066  0.0085
42447SOL    HW134391  11.758   6.609  11.544  0.4634  1.3192  0.4283
42447SOL    HW234392  11.882   6.526  11.522 -1.4271 -1.5421  0.0357
42448SOL     OW34393   3.385   3.569   9.804 -0.0294  0.2107  0.0931
42448SOL    HW134394   3.390   3.643   9.864 -0.9749  0.8367 -0.5638
42448SOL    HW234395   3.311   3.518   9.836  0.2040 -0.0892  0.1528
42449SOL     OW34396   0.557  11.619   7.329 -0.7732  0.3001 -0.0996
42449SOL    HW134397   0.507  11.538   7.327  0.7734 -0.7660  1.0859
42449SOL    HW234398   0.513  11.677   7.267 -2.1884 -1.2813 -0.6457
42450SOL     OW34399   3.630   7.475   2.187  0.7495  0.5617 -0.5991
42450SOL    HW134400   3.541   7.508   2.196  1.0078  1.0517  0.3029
42450SOL    HW234401   3.681   7.550   2.155  0.8933  0.3543 -0.8678
42451SOL     OW34402   4.531   8.009   2.039 -0.5784  0.5242 -0.3847
42451SOL    HW134403   4.451   7.956   2.040 -0.7416  0.7300 -1.6505
42451SOL    HW234404   4.575   7.986   2.121 -0.5823 -1.6519 -0.9179
42452SOL     OW34405   7.559   6.058  11.724  0.7942 -0.3210 -0.2311
42452SOL    HW134406   7.486   6.032  11.668 -0.0302 -2.0127  1.5234
42452SOL    HW234407   7.521   6.118  11.787  1.2410 -0.0746 -0.1926
42453SOL     OW34408   1.536   1.028   1.416  0.0746  0.1386 -0.4520
42453SOL    HW134409   1.459   1.060   1.368 -0.5423  0.6108  0.7967
42453SOL    HW234410   1.611   1.060   1.366 -0.5155  2.8198  0.1923
42454SOL     OW34411   4.279   1.986   3.412  0.3167 -0.1657 -0.0383
42454SOL    HW134412   4.370   1.986   3.383  0.5754 -1.6218  0.6723
42454SOL    HW234413   4.238   2.058   3.364  2.2923  1.8513  1.1603
42455SOL     OW34414   8.614  10.411   4.024 -0.2950  0.0309  0.2334
42455SOL    HW134415   8.696  10.431   3.978  0.0666  3.7640  2.0923
42455SOL    HW234416   8.621  10.318   4.047  2.0625 -0.4939 -2.1148
42456SOL     OW34417   7.904   2.928   3.306 -0.1933  0.2471  0.4745
42456SOL    HW134418   7.841   2.992   3.340  0.1530  0.1974  1.2543
42456SOL    HW234419   7.917   2.867   3.379  1.0543  0.4932  0.4876
42457SOL     OW34420   4.232   6.214   0.103 -0.3188  0.4101 -0.2573
42457SOL    HW134421   4.171   6.237   0.174 -1.2067 -0.4500 -0.7184
42457SOL    HW234422   4.191   6.252   0.025  0.5602  1.1934 -0.3516
42458SOL     OW34423   2.647   7.394   7.582  0.0223  0.0825  0.0102
42458SOL    HW134424   2.553   7.412   7.581 -0.7916 -3.4962 -0.6837
42458SOL    HW234425   2.671   7.389   7.489  0.6293 -0.1449  0.1776
42459SOL     OW34426   5.895   9.916  10.159 -0.4679  0.1243  0.1534
42459SOL    HW134427   5.800   9.913  10.161 -0.5170  0.9576  2.4689
42459SOL    HW234428   5.918   9.983  10.224  1.6923  0.2317 -0.6320
42460SOL     OW34429   0.437   2.314   9.598  0.0580 -0.0854 -0.4629
42460SOL    HW134430   0.467   2.226   9.622  0.6431  0.0516 -0.6765
42460SOL    HW234431   0.342   2.310   9.607  0.2198  0.1061  2.5282
42461SOL     OW34432   5.663   5.190   1.465 -0.2715  0.0453 -0.1424
42461SOL    HW134433   5.694   5.272   1.505 -0.8799  0.9756 -1.4970
42461SOL    HW234434   5.615   5.146   1.535  0.2561  0.7343  0.6789
42462SOL     OW34435  11.621   6.511   1.938  0.1445  0.0145  0.0556
42462SOL    HW134436  11.556   6.451   1.974 -1.1758  2.3052  1.7746
42462SOL    HW234437  11.704   6.466   1.950 -0.5293 -0.6443  3.3411
42463SOL     OW34438   4.125   7.416  12.433  0.1941 -0.2740  0.1037
42463SOL    HW134439   4.116   7.354  12.505 -0.1382 -1.0625 -0.6001
42463SOL    HW234440   4.165   7.365  12.362 -1.1256 -0.0044 -0.8738
42464SOL     OW34441   2.135   6.197   6.094 -0.0611  0.2062 -0.2752
42464SOL    HW134442   2.096   6.265   6.149  0.8474  1.9476 -1.6511
42464SOL    HW234443   2.066   6.172   6.033 -1.6127 -2.9107  2.4685
42465SOL     OW34444   8.151   8.490   5.195 -0.4711 -0.1604 -0.3487
42465SOL    HW134445   8.111   8.570   5.229  1.4077 -0.3932  2.7919
42465SOL    HW234446   8.140   8.426   5.265  1.2092 -1.5685 -1.2870
42466SOL     OW34447   0.708   7.418  10.927  0.2633 -0.3630 -0.3546
42466SOL    HW134448   0.736   7.392  10.839  0.8880 -0.8730 -0.0093
42466SOL    HW234449   0.785   7.461  10.965 -0.3521  0.8963 -0.4563
42467SOL     OW34450  10.584   6.801   4.298  0.4826  0.3507 -0.4595
42467SOL    HW134451  10.625   6.773   4.380 -0.2451  0.1337 -0.1606
42467SOL    HW234452  10.509   6.742   4.287 -1.4585  2.4451  0.4891
42468SOL     OW34453   2.716  12.280   4.015  0.6016 -0.1859  0.5090
42468SOL    HW134454   2.757  12.327   3.943 -0.7209  1.2999  0.6577
42468SOL    HW234455   2.623  12.304   4.010  0.5364  0.4045  2.9970
42469SOL     OW34456   4.710   2.408   3.660  0.0897 -0.0860 -0.6368
42469SOL    HW134457   4.707   2.353   3.738  1.0674  0.7848  0.0464
42469SOL    HW234458   4.796   2.450   3.664 -1.0479  2.3986 -0.4574
42470SOL     OW34459   1.169  11.044   7.746  0.0116 -0.5575  0.0435
42470SOL    HW134460   1.165  11.077   7.656  0.3630 -0.3232  0.1128
42470SOL    HW234461   1.119  11.109   7.797  2.5156  1.1290  0.5417
42471SOL     OW34462   1.372   0.916  10.471 -0.1696 -0.3001  0.1295
42471SOL    HW134463   1.353   0.882  10.384 -0.0974  1.8200 -0.7722
42471SOL    HW234464   1.448   0.974  10.459 -0.5300  0.5136  1.4658
42472SOL     OW34465  10.522   3.283   1.257 -1.0280 -0.0278  0.6314
42472SOL    HW134466  10.491   3.292   1.347 -1.4372  1.6539  0.3427
42472SOL    HW234467  10.500   3.193   1.233 -2.4717  0.0391  1.6212
42473SOL     OW34468   8.366   2.557   0.983  0.3169  0.1043 -0.1599
42473SOL    HW134469   8.383   2.488   1.048  1.3988  1.1094  0.6711
42473SOL    HW234470   8.393   2.519   0.900  0.9991 -0.4502  0.3040
42474SOL     OW34471  12.297   1.006   7.043  0.6086  0.4711 -0.7261
42474SOL    HW134472  12.205   0.985   7.056  0.7873 -0.0267 -0.2160
42474SOL    HW234473  12.312   1.083   7.099  0.4697  0.6520 -0.9337
42475SOL     OW34474   2.311  10.114  12.525 -0.3037  0.4920  0.2712
42475SOL    HW134475   2.351  10.148  12.605 -0.6338  1.2917  0.1053
42475SOL    HW234476   2.384  10.097  12.466 -0.0888  0.2750  0.6019
42476SOL     OW34477   8.303   1.667   0.028  0.4835 -0.2869  0.2709
42476SOL    HW134478   8.289   1.744  -0.027  1.7712  0.0239  0.3341
42476SOL    HW234479   8.283   1.592  -0.028  2.0500  0.0118 -0.7606
42477SOL     OW34480  11.146  12.560   7.294  0.4594  0.0883 -0.4137
42477SOL    HW134481  11.070  12.572   7.351  0.9457 -0.5259  0.3804
42477SOL    HW234482  11.131  12.474   7.253  1.2541 -0.5522  0.5961
42478SOL     OW34483  12.568  11.736   7.163  0.1525 -0.3613 -0.9848
42478SOL    HW134484  12.632  11.803   7.140  1.1989 -0.4006  1.4228
42478SOL    HW234485  12.618  11.673   7.215 -1.8822 -0.0884  1.5391
42479SOL     OW34486  12.418   8.485  11.025  0.4241  0.1653  0.1406
42479SOL    HW134487  12.379   8.541  10.958  0.3034 -0.8483 -0.6685
42479SOL    HW234488  12.412   8.536  11.105  2.2181  2.1585 -0.9010
42480SOL     OW34489  11.977   0.454   8.111  0.1828 -0.9196 -0.8973
42480SOL    HW134490  11.906   0.416   8.060 -0.7350 -3.2444  1.8122
42480SOL    HW234491  11.985   0.396   8.187  3.3012  0.7126  0.1820
42481SOL     OW34492   2.235   0.771   2.993  0.3164  0.5902  0.2948
42481SOL    HW134493   2.262   0.711   2.923  1.2549  1.4731 -0.1310
42481SOL    HW234494   2.143   0.749   3.009  0.0702  0.3484 -1.2220
42482SOL     OW34495   8.623   0.029   6.933 -0.2096 -0.1499  0.8110
42482SOL    HW134496   8.699   0.086   6.948 -0.3671  0.3090 -0.0558
42482SOL    HW234497   8.605  -0.010   7.019  1.4799 -0.8851  0.8756
42483SOL     OW34498   1.641   4.576   2.328  0.1373  0.1718 -0.1526
42483SOL    HW134499   1.573   4.553   2.391 -0.6105 -0.3073 -1.1021
42483SOL    HW234500   1.686   4.493   2.310 -0.6468 -0.0273 -1.3628
42484SOL     OW34501  10.875  10.963   8.231 -0.2341 -0.5384  0.4001
42484SOL    HW134502  10.907  10.966   8.321 -0.9621  0.6332  0.6495
42484SOL    HW234503  10.781  10.946   8.239 -0.5846  1.0119 -0.0342
42485SOL     OW34504   0.109   1.546   1.289 -0.5081 -0.3422  0.4600
42485SOL    HW134505   0.196   1.585   1.298 -0.9719  0.8024  0.1662
42485SOL    HW234506   0.085   1.560   1.198 -1.5923  0.6742  0.8695
42486SOL     OW34507   8.763   3.304   4.265 -0.4981  0.2800  0.0885
42486SOL    HW134508   8.843   3.252   4.257 -0.1074  0.7300  0.9061
42486SOL    HW234509   8.789   3.379   4.319 -1.3547  0.6869 -0.0444
42487SOL     OW34510   5.108   0.882   2.711 -0.0517  0.3229 -0.0102
42487SOL    HW134511   5.133   0.834   2.632  1.0535  1.3200 -0.3031
42487SOL    HW234512   5.029   0.838   2.742 -0.5779 -0.0353 -1.7373
42488SOL     OW34513   0.474   0.340   3.376  0.3859  0.5170 -0.6194
42488SOL    HW134514   0.413   0.330   3.304  0.1788  0.4740 -0.4389
42488SOL    HW234515   0.555   0.299   3.345  0.1594  0.0919 -0.6539
42489SOL     OW34516   2.072   4.274   8.610 -0.6526 -0.3278 -0.4161
42489SOL    HW134517   2.036   4.188   8.585 -1.4621 -0.1129 -0.0239
42489SOL    HW234518   2.042   4.333   8.542 -0.6138 -0.2390 -0.3563
42490SOL     OW34519   9.110   0.191   5.544  0.1356  0.1308  0.2989
42490SOL    HW134520   9.119   0.241   5.462 -0.0123  0.0200  0.2139
42490SOL    HW234521   9.033   0.229   5.587  0.1729  0.1433  0.3541
42491SOL     OW34522  11.740   7.009   7.651 -0.6612 -0.0960 -0.1111
42491SOL    HW134523  11.664   7.024   7.595  0.1071  1.1150 -0.8876
42491SOL    HW234524  11.706   6.959   7.725 -2.3207  0.8548 -0.1829
42492SOL     OW34525   3.480   4.845   1.651  0.0628  0.0137  0.6507
42492SOL    HW134526   3.528   4.772   1.612  0.0891  0.0274  0.6576
42492SOL    HW234527   3.522   4.924   1.615 -1.9772  0.0690 -1.9088
42493SOL     OW34528   3.928   2.400   8.365  0.5120  0.3454 -0.0143
42493SOL    HW134529   3.898   2.378   8.453 -0.8389  0.5067 -0.4092
42493SOL    HW234530   3.878   2.343   8.307  1.0844  0.5283 -0.7052
42494SOL     OW34531   8.034   1.817   8.057  0.2287  0.0202  0.7846
42494SOL    HW134532   7.970   1.882   8.086  0.2754 -0.4188  1.8901
42494SOL    HW234533   8.041   1.755   8.129 -1.2944 -2.4115 -0.9978
42495SOL     OW34534   2.026  10.539  12.573 -0.3192 -0.2433 -0.4601
42495SOL    HW134535   2.080  10.573  12.502  1.8574  1.1158  1.7054
42495SOL    HW234536   2.038  10.444  12.570  1.1539 -0.0664 -0.8427
42496SOL     OW34537   1.976   3.877   5.091 -0.3194 -0.3106  0.0905
42496SOL    HW134538   1.970   3.790   5.130 -1.6938 -0.0182  0.5795
42496SOL    HW234539   1.892   3.918   5.110  0.2766  1.1053 -0.1983
42497SOL     OW34540   0.028  10.537   6.051 -0.1554  0.4312  0.0568
42497SOL    HW134541   0.049  10.566   6.140 -0.8414 -1.6855  0.9923
42497SOL    HW234542  -0.067  10.538   6.048 -0.1423  0.0981 -0.5033
42498SOL     OW34543   3.291   1.528   7.908 -0.6671 -0.1993 -0.4170
42498SOL    HW134544   3.313   1.441   7.876 -2.4371 -0.3040 -1.5058
42498SOL    HW234545   3.280   1.516   8.003  1.7121 -0.5351 -0.1346
42499SOL     OW34546   1.295   9.413  10.727 -0.1525 -0.1951  0.7995
42499SOL    HW134547   1.223   9.402  10.666  0.4435  0.1983  0.0050
42499SOL    HW234548   1.339   9.493  10.698  1.2290 -0.9925  0.5880
42500SOL     OW34549  11.907   0.905  10.081  0.6873 -0.2829  0.2120
42500SOL    HW134550  11.992   0.864  10.099  0.3087 -1.4149 -0.4506
42500SOL    HW234551  11.865   0.914  10.167  0.7862 -1.2974  0.3758
42501SOL     OW34552   4.206  10.804  11.245 -1.0785  0.1580  0.3734
42501SOL    HW134553   4.298  10.797  11.267 -0.5758 -0.1945 -1.5998
42501SOL    HW234554   4.181  10.892  11.273  0.3948  0.9898 -0.7653
42502SOL     OW34555   5.641   6.629   7.295 -0.3157  0.1079 -0.0760
42502SOL    HW134556   5.690   6.641   7.214 -0.1189 -0.4178 -0.0418
42502SOL    HW234557   5.552   6.609   7.266 -0.4373  0.7316 -0.1438
42503SOL     OW34558   0.051   4.084  11.137  0.1682 -0.1025 -0.1719
42503SOL    HW134559   0.006   4.154  11.089 -0.3954 -0.6541 -0.4641
42503SOL    HW234560   0.086   4.027  11.070 -0.5636 -0.8388  0.0530
42504SOL     OW34561   3.282   3.518   0.073  0.4649  0.2983  0.3945
42504SOL    HW134562   3.195   3.548   0.045  0.4298  0.4629  0.6743
42504SOL    HW234563   3.276   3.513   0.168  0.7752  0.3501  0.4179
42505SOL     OW34564   2.489  11.556   9.670 -0.7201  0.1676 -0.0556
42505SOL    HW134565   2.429  11.502   9.722 -0.2773  0.3418  0.6501
42505SOL    HW234566   2.441  11.638   9.656 -0.8153  0.1484  0.1500
42506SOL     OW34567   8.189   3.151   0.687 -0.3806 -0.5267  0.3293
42506SOL    HW134568   8.223   3.207   0.617  0.8606  1.0499  2.0794
42506SOL    HW234569   8.106   3.118   0.653 -0.4376  1.1967 -1.3991
42507SOL     OW34570   7.409   1.840   5.825  0.4190  0.3867  0.4790
42507SOL    HW134571   7.340   1.895   5.789 -0.2036 -0.9363 -0.4613
42507SOL    HW234572   7.490   1.873   5.786 -0.1232 -0.3276 -1.3660
42508SOL     OW34573   5.519   5.112   0.832  0.0178 -0.0849 -0.0598
42508SOL    HW134574   5.607   5.121   0.869  0.6981 -1.7980 -1.1867
42508SOL    HW234575   5.464   5.087   0.907  1.1171 -2.1557  0.1131
42509SOL     OW34576   8.877   5.614   2.543 -0.3924  0.2880  0.1257
42509SOL    HW134577   8.888   5.706   2.565 -1.2731  0.1865  1.0585
42509SOL    HW234578   8.833   5.615   2.458  0.8382  0.6987 -0.5333
42510SOL     OW34579   0.292   7.503   8.290 -0.2138  0.1657  0.5036
42510SOL    HW134580   0.317   7.424   8.242  0.1343  0.6481 -0.1159
42510SOL    HW234581   0.248   7.470   8.369  3.4064 -0.8275  2.3412
42511SOL     OW34582   7.167   9.286   6.803  0.2337  0.6219  0.1976
42511SOL    HW134583   7.079   9.259   6.827  0.3220  2.4857  3.0396
42511SOL    HW234584   7.156   9.341   6.725 -0.9790  0.1347  0.0145
42512SOL     OW34585   6.843   7.235   9.760  1.0918  0.3937 -0.2337
42512SOL    HW134586   6.920   7.271   9.804  1.8093 -1.7793  0.3978
42512SOL    HW234587   6.869   7.147   9.732 -1.3729 -0.7430  0.7090
42513SOL     OW34588   5.468   5.549   1.555 -0.0543  0.2331  0.1111
42513SOL    HW134589   5.384   5.555   1.510 -0.5149  2.3357  1.1007
42513SOL    HW234590   5.513   5.475   1.514 -2.5200 -1.1918 -0.1891
42514SOL     OW34591   6.030   0.428   0.000  0.3191  0.0234 -0.1381
42514SOL    HW134592   6.122   0.407   0.016  1.1327  1.6750 -2.1552
42514SOL    HW234593   6.011   0.500   0.060  0.7970  0.6115 -0.6753
42515SOL     OW34594   5.840   1.386   6.031 -0.4432  0.0164  0.0422
42515SOL    HW134595   5.907   1.415   5.969 -0.3082  0.2540  0.2966
42515SOL    HW234596   5.876   1.307   6.070 -1.3783 -1.2740 -1.6106
42516SOL     OW34597   8.062   7.888   5.750  0.0482 -0.0733  0.0929
42516SOL    HW134598   8.048   7.834   5.828 -1.2016  0.4825  0.2725
42516SOL    HW234599   8.149   7.862   5.718 -0.1954 -1.6430  0.6094
42517SOL     OW34600   2.963   8.917   5.333 -0.2875 -0.4033 -0.2440
42517SOL    HW134601   2.892   8.978   5.353 -0.9043 -0.5934 -1.7681
42517SOL    HW234602   2.964   8.911   5.238  0.0074 -2.5024 -0.1478
42518SOL     OW34603   3.885   1.823   8.507 -0.5161 -0.2365 -0.1418
42518SOL    HW134604   3.834   1.811   8.427 -1.2401  0.3707  0.2183
42518SOL    HW234605   3.930   1.740   8.519 -3.2911 -1.7269  0.8584
42519SOL     OW34606  11.241   2.985  10.008  0.1887 -0.3255 -0.2150
42519SOL    HW134607  11.335   2.967  10.016  0.1727 -0.3920 -0.1786
42519SOL    HW234608  11.210   2.990  10.098  0.4957  1.5264 -0.1764
42520SOL     OW34609   8.684   2.075   9.604 -0.6843  0.0283 -0.1100
42520SOL    HW134610   8.754   2.138   9.619  0.6740 -1.5419  0.4014
42520SOL    HW234611   8.707   2.000   9.658 -2.7897 -0.5355  0.0879
42521SOL     OW34612   8.576   5.542   3.623 -0.1033 -0.5098  0.4637
42521SOL    HW134613   8.553   5.501   3.539 -2.9030  1.5926  0.0427
42521SOL    HW234614   8.667   5.570   3.612 -0.3525 -0.4043 -1.8604
42522SOL     OW34615   4.485  10.429   7.251 -0.0884 -0.6543 -0.5018
42522SOL    HW134616   4.539  10.472   7.318 -1.9600 -2.0030  2.0122
42522SOL    HW234617   4.405  10.482   7.247 -0.5085 -1.2992 -0.7425
42523SOL     OW34618  11.798   9.713   3.111 -0.1031  1.1541  0.1585
42523SOL    HW134619  11.766   9.675   3.193 -0.6162  1.0720 -0.0711
42523SOL    HW234620  11.752   9.797   3.104 -0.1758  1.0923 -0.1168
42524SOL     OW34621   7.031   3.625   8.165  0.4455  0.3452 -0.3489
42524SOL    HW134622   6.965   3.661   8.106 -0.5066 -1.2089 -0.2958
42524SOL    HW234623   6.990   3.629   8.252 -0.5263 -2.5663 -0.5827
42525SOL     OW34624   8.849   0.264   8.218  0.3535 -0.6537 -0.2940
42525SOL    HW134625   8.905   0.318   8.274  0.7871 -2.1398  0.7687
42525SOL    HW234626   8.909   0.203   8.177 -0.3894 -1.9135  0.4354
42526SOL     OW34627  12.309  11.240   0.192 -0.0701 -0.0339 -0.1103
42526SOL    HW134628  12.356  11.257   0.273 -0.9477  0.1875  0.3616
42526SOL    HW234629  12.363  11.281   0.124  0.1626  0.6527  0.4811
42527SOL     OW34630   6.674  10.099   3.774 -0.0346  0.3062 -0.1549
42527SOL    HW134631   6.595  10.142   3.806  0.4296  0.7199  0.4452
42527SOL    HW234632   6.728  10.169   3.739  0.4624  0.1474  0.2743
42528SOL     OW34633  10.749   6.168   5.989 -0.0665 -0.4874  0.7061
42528SOL    HW134634  10.799   6.229   5.935  0.8140 -1.8555 -0.0656
42528SOL    HW234635  10.815   6.106   6.022 -0.9592 -1.1190  1.3359
42529SOL     OW34636   5.658   3.827   1.190 -0.2522 -0.5405  0.5040
42529SOL    HW134637   5.700   3.889   1.249 -0.5958  1.3385 -1.1339
42529SOL    HW234638   5.718   3.819   1.116 -1.3150 -0.2287 -0.4269
42530SOL     OW34639   9.071   4.403   5.046 -0.0391  0.1531 -0.1743
42530SOL    HW134640   9.134   4.474   5.050  0.4367 -0.2827  0.3842
42530SOL    HW234641   8.992   4.438   5.087  0.6700 -0.0865  1.5224
42531SOL     OW34642   9.750   8.715  10.140 -0.9941 -0.2062  0.1273
42531SOL    HW134643   9.730   8.670  10.058  0.9577  1.0813 -1.1345
42531SOL    HW234644   9.816   8.661  10.182  2.7794  2.0786 -2.2787
42532SOL     OW34645   8.746   5.952  11.789 -0.4219 -0.3766  0.2554
42532SOL    HW134646   8.671   5.947  11.849 -0.2344 -3.6878  0.3566
42532SOL    HW234647   8.823   5.941  11.845 -0.0131 -0.0108 -0.2184
42533SOL     OW34648  10.216   6.096   8.936  0.1489  0.4430 -0.0503
42533SOL    HW134649  10.186   6.086   8.845  1.0698 -0.1664 -0.2973
42533SOL    HW234650  10.138   6.079   8.988  0.2904 -2.6646 -0.6253
42534SOL     OW34651   9.402   8.573   7.177 -0.2640  0.2472  0.0151
42534SOL    HW134652   9.372   8.653   7.221  1.0545  1.4089 -1.1417
42534SOL    HW234653   9.456   8.529   7.243 -1.9641 -0.3525  1.0767
42535SOL     OW34654   6.872   8.694   0.983 -0.0322  0.1779  0.5028
42535SOL    HW134655   6.934   8.751   0.937  0.4403 -0.4797  0.3063
42535SOL    HW234656   6.854   8.623   0.920 -1.0636  0.4128  0.5210
42536SOL     OW34657   3.613  12.476   4.905  0.0037  0.4073 -0.6782
42536SOL    HW134658   3.655  12.402   4.950 -1.3674 -1.2164 -1.8953
42536SOL    HW234659   3.542  12.502   4.963 -0.8750 -0.7498 -1.1670
42537SOL     OW34660   5.797  11.379  11.376 -0.1421  0.8894 -0.0284
42537SOL    HW134661   5.828  11.455  11.326 -0.4683  0.5505 -0.7726
42537SOL    HW234662   5.876  11.341  11.415  0.4051  0.0841 -1.8165
42538SOL     OW34663  11.109   3.920   5.716 -0.0861 -0.4684  0.2945
42538SOL    HW134664  11.024   3.912   5.672  0.3300 -0.0352 -0.6346
42538SOL    HW234665  11.107   4.006   5.757 -0.5662 -0.9704  1.3476
42539SOL     OW34666   0.634   9.017  10.757  0.1623  0.6577  0.4980
42539SOL    HW134667   0.644   8.936  10.707 -0.1526  1.1202 -0.3288
42539SOL    HW234668   0.673   9.084  10.702  0.8626  1.0029  1.3947
42540SOL     OW34669   5.512   9.684   4.109  0.4345 -0.6054 -0.2483
42540SOL    HW134670   5.562   9.743   4.165 -1.4577  0.7955  0.0569
42540SOL    HW234671   5.571   9.665   4.036  2.2287 -0.9124  1.1946
42541SOL     OW34672   1.781   8.999   5.189 -0.5074 -0.5055  0.3200
42541SOL    HW134673   1.709   9.025   5.246 -2.0863 -1.2920 -1.1970
42541SOL    HW234674   1.755   8.912   5.156  0.6115 -0.3517 -1.0928
42542SOL     OW34675  12.424   6.741   5.611  0.2116 -0.0614 -0.0246
42542SOL    HW134676  12.446   6.780   5.695 -0.2669 -0.7377  0.4235
42542SOL    HW234677  12.331   6.716   5.619 -0.0761  0.6167 -1.0410
42543SOL     OW34678  10.738   2.490   2.362  0.5630 -0.3823  0.5377
42543SOL    HW134679  10.647   2.493   2.393  0.5829  0.2650  0.5369
42543SOL    HW234680  10.771   2.406   2.394  0.3449 -0.0700  1.6187
42544SOL     OW34681   5.591   4.857   1.334 -0.0393 -0.5113 -0.3155
42544SOL    HW134682   5.563   4.948   1.342 -0.6287 -0.6753 -0.4432
42544SOL    HW234683   5.544   4.824   1.257 -1.2654 -1.4400  0.7741
42545SOL     OW34684   6.284   5.889   8.761  0.1380 -0.2637  0.1890
42545SOL    HW134685   6.287   5.975   8.802  1.2650 -0.5345  0.7163
42545SOL    HW234686   6.193   5.861   8.769  0.2761 -0.2155  2.3396
42546SOL     OW34687   2.310  10.131   9.763  0.0076 -0.7771 -0.8730
42546SOL    HW134688   2.342  10.124   9.673 -1.0007 -0.0238 -1.3224
42546SOL    HW234689   2.363  10.070   9.813 -0.1889 -2.1068 -2.2061
42547SOL     OW34690   5.017   0.022   2.998  0.0381 -0.3282  0.3316
42547SOL    HW134691   5.056   0.059   3.077  1.0960  0.5427 -0.5621
42547SOL    HW234692   5.083   0.036   2.930 -0.4727 -1.8573 -0.5364
42548SOL     OW34693   3.054   3.329   5.353 -0.5717 -0.0524  0.2645
42548SOL    HW134694   3.039   3.236   5.367 -2.0042  0.4612  2.6919
42548SOL    HW234695   2.984   3.355   5.293  1.1007 -0.8551 -2.1848
42549SOL     OW34696   8.483  11.382   0.745 -0.0911  0.0453 -0.3491
42549SOL    HW134697   8.452  11.324   0.675 -2.6740  0.4724  0.3135
42549SOL    HW234698   8.451  11.469   0.720 -1.2690  0.1748  1.3868
42550SOL     OW34699   9.509  11.764   7.846 -0.1393  0.6401 -0.0913
42550SOL    HW134700   9.590  11.725   7.879  0.0240 -0.3776 -1.6006
42550SOL    HW234701   9.537  11.844   7.802  0.3072 -0.5286 -2.0301
42551SOL     OW34702   0.805   0.755   0.082  0.0852 -0.6468 -0.0739
42551SOL    HW134703   0.806   0.783   0.174 -1.4838 -1.3535  0.1884
42551SOL    HW234704   0.894   0.773   0.051  0.0751  1.6220  0.9551
42552SOL     OW34705   0.641   2.455   9.705  0.4611  0.7702 -0.1750
42552SOL    HW134706   0.557   2.419   9.676 -0.8249  2.9796  0.5671
42552SOL    HW234707   0.631   2.465   9.800  1.6177  0.9569 -0.0654
42553SOL     OW34708  11.336   6.549   9.761  0.2189  0.2579 -0.2553
42553SOL    HW134709  11.382   6.527   9.842 -0.4912 -1.2946 -0.2433
42553SOL    HW234710  11.395   6.522   9.691 -0.0769 -0.4637 -0.2376
42554SOL     OW34711   6.039  12.575   6.513  0.1726 -0.3481  0.6419
42554SOL    HW134712   6.026  12.481   6.523 -1.0296 -0.1918  0.7678
42554SOL    HW234713   5.954  12.613   6.535  0.5201  0.7375  0.1880
42555SOL     OW34714   3.333   4.251   3.069 -0.8710 -0.1400 -0.4899
42555SOL    HW134715   3.293   4.320   3.017 -2.6223  0.3928  1.4010
42555SOL    HW234716   3.313   4.275   3.160  0.1288 -2.1453  0.3283
42556SOL     OW34717  10.237   9.641   7.153 -0.1327  0.8789 -0.5400
42556SOL    HW134718  10.173   9.634   7.223  1.8834  1.4170  1.4853
42556SOL    HW234719  10.243   9.735   7.135 -0.0383  0.8161 -0.8426
42557SOL     OW34720   0.087   6.565   0.467 -0.3726 -0.0711 -0.0593
42557SOL    HW134721   0.049   6.606   0.545 -0.7531  1.2189 -0.8917
42557SOL    HW234722   0.062   6.623   0.395  0.8678 -0.6624 -1.0054
42558SOL     OW34723   6.313   9.616  11.002 -0.3560 -0.4986 -0.0035
42558SOL    HW134724   6.328   9.708  11.021 -1.8204 -0.0957 -0.6228
42558SOL    HW234725   6.395   9.585  10.963 -0.7342  1.3008 -2.4540
42559SOL     OW34726   8.715   7.317  10.578 -0.3501  0.0372 -0.3449
42559SOL    HW134727   8.711   7.244  10.516 -2.3308  0.0775 -0.3459
42559SOL    HW234728   8.790   7.297  10.634  2.0848  0.4332 -3.2122
42560SOL     OW34729   5.096   1.514   9.589 -0.3958  0.6175  1.1560
42560SOL    HW134730   5.118   1.421   9.594  1.8966  0.9309 -0.8437
42560SOL    HW234731   5.181   1.559   9.590 -1.4655  2.8360  3.3048
42561SOL     OW34732   6.318   7.062   8.381  0.2827 -0.4658 -0.1124
42561SOL    HW134733   6.275   7.073   8.296 -1.1678 -0.8553  0.5430
42561SOL    HW234734   6.346   7.150   8.405  0.8122 -0.3657 -1.0269
42562SOL     OW34735   6.777   5.855   1.406  0.4569 -0.3331 -0.1668
42562SOL    HW134736   6.684   5.840   1.388 -0.4207  2.9702  0.9091
42562SOL    HW234737   6.789   5.826   1.496 -0.1311  1.1723  0.4276
42563SOL     OW34738  11.515   7.150  10.865 -0.2473 -0.4973  0.0401
42563SOL    HW134739  11.504   7.228  10.810 -0.5189  0.3053  1.1810
42563SOL    HW234740  11.428   7.109  10.866 -0.4221 -0.1323  0.4000
42564SOL     OW34741   8.900   3.137  10.021 -0.5992 -0.0067  0.0946
42564SOL    HW134742   8.968   3.199  10.045  1.7959 -2.3405 -0.1758
42564SOL    HW234743   8.823   3.163  10.073  0.2926  2.9968  0.0785
42565SOL     OW34744   5.742   9.951   7.670 -0.4190  0.6527 -0.0585
42565SOL    HW134745   5.719   9.937   7.761  0.2599 -0.6572 -0.0631
42565SOL    HW234746   5.781  10.038   7.668 -1.2235  1.0405  0.7321
42566SOL     OW34747  11.661   4.113   3.497 -0.4021  0.2679 -0.4808
42566SOL    HW134748  11.570   4.125   3.470 -1.1545  1.3589  2.1520
42566SOL    HW234749  11.691   4.201   3.518  0.9347 -0.1996 -0.3474
42567SOL     OW34750   4.749   3.848  11.944  0.3112 -0.2904 -0.5917
42567SOL    HW134751   4.830   3.804  11.969  0.3126  0.8047  1.5965
42567SOL    HW234752   4.733   3.910  12.015 -1.9478  0.1945 -1.4458
42568SOL     OW34753   0.065   3.415  11.543 -0.3055  0.1505 -0.1176
42568SOL    HW134754   0.075   3.510  11.550 -3.6317  0.7522 -1.5008
42568SOL    HW234755  -0.030   3.401  11.543 -0.0299 -2.8746 -2.9050
42569SOL     OW34756   1.021   5.345   1.056  0.1365  0.4317  0.0697
42569SOL    HW134757   1.086   5.410   1.082  0.9412  1.0423 -3.0135
42569SOL    HW234758   0.944   5.397   1.032  0.4815  0.2291 -1.5756
42570SOL     OW34759   3.841   9.994  12.305  0.2859  0.4483  0.2736
42570SOL    HW134760   3.754  10.032  12.312 -0.1189 -0.3660 -0.3050
42570SOL    HW234761   3.856   9.983  12.211  1.1206  0.8218  0.3516
42571SOL     OW34762   9.973   6.863  10.335  0.1599 -0.7925 -0.3210
42571SOL    HW134763   9.878   6.865  10.345 -0.0746 -2.7092 -1.6457
42571SOL    HW234764   9.999   6.955  10.337 -1.2572 -0.2892  3.5879
42572SOL     OW34765   7.850   9.683   2.447 -0.6113 -0.3218  0.1284
42572SOL    HW134766   7.894   9.678   2.362  1.7600  0.6595  1.1985
42572SOL    HW234767   7.806   9.598   2.457 -1.8447 -0.0898 -2.4619
42573SOL     OW34768   8.885   7.771  10.244 -0.1972 -0.7820 -0.3482
42573SOL    HW134769   8.879   7.819  10.327 -4.0238 -1.1553 -0.2461
42573SOL    HW234770   8.884   7.839  10.177  2.0248 -0.5254 -0.2127
42574SOL     OW34771  10.004   7.636   0.166 -0.3682  0.6383 -0.3988
42574SOL    HW134772  10.042   7.631   0.078 -2.2968  1.3532 -1.3487
42574SOL    HW234773   9.932   7.699   0.157 -1.3387 -0.1197  1.4263
42575SOL     OW34774   3.713   4.150   5.928  0.2121  0.2205  0.0654
42575SOL    HW134775   3.784   4.130   5.989 -1.2757 -3.3336  0.9077
42575SOL    HW234776   3.756   4.159   5.843  1.9129  1.1149  0.9698
42576SOL     OW34777  12.548   9.563   3.207 -0.1734  0.1596 -0.5951
42576SOL    HW134778  12.595   9.647   3.208 -2.8776  1.7973 -1.5464
42576SOL    HW234779  12.549   9.534   3.298 -0.0379  1.7627 -0.0537
42577SOL     OW34780  11.429   8.351   5.562  0.6381  0.6945 -0.2233
42577SOL    HW134781  11.485   8.317   5.632 -1.1435  0.0814  0.9882
42577SOL    HW234782  11.380   8.275   5.532 -0.5807  1.4408 -0.2119
42578SOL     OW34783  11.642   5.102   9.571  0.1672  0.2631 -0.2752
42578SOL    HW134784  11.646   5.060   9.486 -1.7805 -1.3952  0.3585
42578SOL    HW234785  11.549   5.125   9.582  0.6383  1.8680  0.7621
42579SOL     OW34786   3.902   9.848  11.836 -0.0069 -0.0503 -0.2639
42579SOL    HW134787   3.990   9.822  11.811  0.5096  0.1743  1.2653
42579SOL    HW234788   3.853   9.766  11.840  0.1414 -0.1835 -1.0177
42580SOL     OW34789  10.547   4.088   3.599  0.5029  0.1565 -0.0588
42580SOL    HW134790  10.621   4.086   3.538  1.4778  2.1350  0.9782
42580SOL    HW234791  10.479   4.138   3.553  0.8480  0.7258  0.0357
42581SOL     OW34792  10.947   5.571   3.226 -0.2437  0.2491 -0.6140
42581SOL    HW134793  10.941   5.634   3.154  0.8458 -1.2590 -2.1228
42581SOL    HW234794  10.860   5.533   3.232 -0.3901  0.5006 -1.0651
42582SOL     OW34795   7.690   2.426  12.273  0.0224  0.1058 -0.4945
42582SOL    HW134796   7.748   2.483  12.324 -1.7019  1.1420  0.4488
42582SOL    HW234797   7.621   2.401  12.336 -1.1419 -0.1540 -1.8208
42583SOL     OW34798   7.911   1.314   4.355  0.1323  0.0892  0.1539
42583SOL    HW134799   7.999   1.319   4.319  0.1716  0.6347  0.3249
42583SOL    HW234800   7.858   1.367   4.295  0.0181  0.2010  0.3544
42584SOL     OW34801   2.857   8.200   7.820  0.0976 -0.0729  0.2415
42584SOL    HW134802   2.855   8.268   7.753 -1.2276  0.8619  1.1620
42584SOL    HW234803   2.899   8.241   7.895  2.4694 -1.4152 -0.2472
42585SOL     OW34804  10.424   7.145   2.418  0.1274  0.0915  0.1011
42585SOL    HW134805  10.351   7.082   2.415  1.0940 -1.0916  0.6440
42585SOL    HW234806  10.469   7.125   2.501  2.2034 -0.5361 -1.1043
42586SOL     OW34807   0.849   6.261   6.007  0.1501  0.0597 -0.3407
42586SOL    HW134808   0.892   6.177   6.022  0.0433  0.0730  0.0337
42586SOL    HW234809   0.776   6.240   5.949 -0.9736 -0.4166  1.1808
42587SOL     OW34810   9.386   4.688   3.092  0.5288  0.3454 -0.0892
42587SOL    HW134811   9.410   4.663   3.181 -1.6892  0.1931  0.5045
42587SOL    HW234812   9.346   4.775   3.101 -0.6213 -0.0911 -0.7776
42588SOL     OW34813   0.315   3.390   9.587 -0.2074  0.1311  0.0689
42588SOL    HW134814   0.256   3.458   9.554 -0.9790  0.0707  1.2318
42588SOL    HW234815   0.269   3.354   9.663 -0.9104 -3.2732 -1.7637
42589SOL     OW34816  11.801   0.370  11.863 -0.2767  0.6525  0.0821
42589SOL    HW134817  11.768   0.379  11.952  0.0448 -0.2879  0.3006
42589SOL    HW234818  11.795   0.459  11.826 -1.1718  0.8865  0.7617
42590SOL     OW34819   2.782   6.887   4.871 -0.2580 -0.3474 -0.1110
42590SOL    HW134820   2.768   6.957   4.935  2.2579  1.1128 -1.0094
42590SOL    HW234821   2.856   6.838   4.905 -1.1359 -1.7809 -0.1904
42591SOL     OW34822   0.896   4.634   7.347 -0.1126  0.5945 -0.0870
42591SOL    HW134823   0.962   4.580   7.391  0.9114  3.0155  1.5619
42591SOL    HW234824   0.902   4.608   7.255  0.0133 -2.3261  0.6358
42592SOL     OW34825  10.889   9.698   8.654 -0.1034 -0.2578 -0.4355
42592SOL    HW134826  10.955   9.702   8.724 -0.1641  0.5827 -0.4178
42592SOL    HW234827  10.834   9.775   8.669 -2.8791 -2.4005  1.2520
42593SOL     OW34828   8.976  12.189  11.821  0.8230  0.4115 -1.1456
42593SOL    HW134829   8.942  12.274  11.793  0.4834  0.1828 -1.4419
42593SOL    HW234830   9.007  12.148  11.740 -0.7899 -0.5399 -1.3298
42594SOL     OW34831   2.225   9.153   9.682  0.4696  0.4856 -0.0760
42594SOL    HW134832   2.301   9.171   9.738 -0.9356  1.0531  1.7320
42594SOL    HW234833   2.178   9.083   9.726 -2.2467  2.8922  1.1850
42595SOL     OW34834   3.617  11.465  10.511  0.2831 -0.1507 -0.3051
42595SOL    HW134835   3.709  11.484  10.496  0.3353 -0.5924 -0.5533
42595SOL    HW234836   3.586  11.427  10.428 -0.1256  0.0185 -0.2338
42596SOL     OW34837  12.202   0.901   3.039 -0.1777 -0.0035  0.4003
42596SOL    HW134838  12.147   0.956   2.984 -0.6637 -0.5450  0.3448
42596SOL    HW234839  12.246   0.841   2.978 -0.2040 -0.1611  0.5359
42597SOL     OW34840   0.761   3.268   4.231 -0.5016  0.4347 -0.3640
42597SOL    HW134841   0.731   3.357   4.212  0.1655  0.4890 -1.2023
42597SOL    HW234842   0.846   3.262   4.189  0.1896 -0.0792  1.0538
42598SOL     OW34843   8.925   3.314   7.211  0.3204 -0.0961 -0.1430
42598SOL    HW134844   8.965   3.358   7.286 -1.0932 -1.8967  1.7713
42598SOL    HW234845   8.951   3.223   7.220 -1.5929 -0.7325 -0.6242
42599SOL     OW34846   2.903   5.588   9.078  0.3603  0.1632 -0.7012
42599SOL    HW134847   2.812   5.559   9.070 -0.0805  1.7347 -1.9875
42599SOL    HW234848   2.950   5.512   9.110 -1.1999 -1.0692 -1.2320
42600SOL     OW34849   1.870   7.916   1.860 -0.2531 -0.3620  0.1358
42600SOL    HW134850   1.887   7.834   1.906 -0.2707 -0.4071  0.0607
42600SOL    HW234851   1.867   7.892   1.768 -0.9947 -0.3953  0.1662
42601SOL     OW34852  10.587   2.809  10.564  0.1961 -0.8824 -0.2296
42601SOL    HW134853  10.597   2.894  10.608  0.3648 -1.3132  0.5769
42601SOL    HW234854  10.650   2.752  10.608  0.1686 -1.4062 -0.8498
42602SOL     OW34855   3.156   0.825   5.199 -0.1807  0.3468  0.1419
42602SOL    HW134856   3.139   0.778   5.117 -0.0872  0.5575  0.0001
42602SOL    HW234857   3.205   0.903   5.172 -0.8369  0.8251  0.3105
42603SOL     OW34858   6.132   7.225   8.914 -0.1952 -0.1870  0.1126
42603SOL    HW134859   6.110   7.197   9.002  0.7197 -1.0952  0.0643
42603SOL    HW234860   6.087   7.162   8.857  0.7298 -0.7364 -0.0233
42604SOL     OW34861   6.742   9.709  11.193 -0.3842 -0.0485  1.0306
42604SOL    HW134862   6.796   9.673  11.264 -0.1322 -1.6076  0.1067
42604SOL    HW234863   6.707   9.791  11.228  3.0139  1.3693  1.4977
42605SOL     OW34864   7.818   8.840   8.650 -0.1425 -0.2335  0.4510
42605SOL    HW134865   7.807   8.798   8.565 -1.3114  3.4628 -1.4246
42605SOL    HW234866   7.738   8.819   8.699 -2.3493  2.2912 -1.7579
42606SOL     OW34867   8.390  10.481   1.189  0.3755 -0.5554  0.5695
42606SOL    HW134868   8.460  10.443   1.137  0.4000 -1.6915  1.3955
42606SOL    HW234869   8.328  10.516   1.124  0.9926 -0.8357 -0.1860
42607SOL     OW34870   4.296   6.636   4.955 -0.4241 -0.3934 -0.2927
42607SOL    HW134871   4.224   6.628   5.018 -0.7107 -1.5565 -0.7488
42607SOL    HW234872   4.258   6.684   4.881 -0.5993 -0.6151 -0.3458
42608SOL     OW34873   8.731   7.008   9.923  0.2981  0.3422 -0.0988
42608SOL    HW134874   8.716   7.085   9.977  0.9924  0.8612 -0.6452
42608SOL    HW234875   8.823   6.987   9.934  1.1306  1.9354 -2.9485
42609SOL     OW34876   2.513  10.345   2.753 -0.0375  0.1593 -0.3841
42609SOL    HW134877   2.608  10.353   2.751 -0.1389  2.5637  0.7198
42609SOL    HW234878   2.496  10.260   2.796  1.5772 -0.2975 -0.6089
42610SOL     OW34879   2.580   9.631   0.956 -0.3781  0.6452  0.1608
42610SOL    HW134880   2.584   9.541   0.989 -1.7267  0.3670 -0.3904
42610SOL    HW234881   2.620   9.684   1.026 -2.2739 -0.0325  1.8458
42611SOL     OW34882   0.588   0.295  12.478  0.4643  0.0597 -0.4100
42611SOL    HW134883   0.676   0.275  12.509  0.2566 -0.2694 -0.0228
42611SOL    HW234884   0.566   0.378  12.519  0.3226 -0.2076  0.0691
42612SOL     OW34885   0.473   1.449   6.566 -0.3905 -0.1340  0.3759
42612SOL    HW134886   0.419   1.446   6.645 -1.3529  0.6606 -0.2210
42612SOL    HW234887   0.483   1.543   6.548  0.7114 -0.2862  0.1417
42613SOL     OW34888   4.089  12.409   0.422 -0.5043 -0.2033  0.1863
42613SOL    HW134889   4.151  12.425   0.493  0.5269 -0.8598 -0.5590
42613SOL    HW234890   4.009  12.380   0.466 -0.0188 -0.1747  1.1006
42614SOL     OW34891   8.556   9.762   6.409  0.2355  0.6163 -0.0039
42614SOL    HW134892   8.546   9.743   6.502  0.4322  1.5521  0.2231
42614SOL    HW234893   8.561   9.676   6.367 -0.5557  0.1782  0.7646
42615SOL     OW34894   7.017   2.240   3.857 -0.3075  0.2290 -0.0623
42615SOL    HW134895   7.029   2.175   3.926  0.7394  1.1302  0.6459
42615SOL    HW234896   6.962   2.308   3.898  1.2067  1.2948  0.3012
42616SOL     OW34897   1.650  10.563   2.494  0.2633  0.1085 -1.0127
42616SOL    HW134898   1.592  10.605   2.558  0.5302 -0.0068 -0.6907
42616SOL    HW234899   1.625  10.471   2.496  0.5031  0.0466 -0.8223
42617SOL     OW34900   8.109  11.024   9.661 -0.4085 -0.3499 -0.6183
42617SOL    HW134901   8.132  11.037   9.569  1.1203  1.1464 -0.0739
42617SOL    HW234902   8.170  11.080   9.709 -1.4645 -0.7617  1.2929
42618SOL     OW34903   5.705  11.542  11.810  0.1930  0.1310 -0.6305
42618SOL    HW134904   5.759  11.557  11.888  1.1727  0.2737 -1.3246
42618SOL    HW234905   5.727  11.453  11.782  1.7410  0.9548 -2.1767
42619SOL     OW34906  12.270   7.214   4.032  0.2120 -0.1233  0.2269
42619SOL    HW134907  12.228   7.268   4.099 -0.1143 -1.4522  1.1371
42619SOL    HW234908  12.234   7.126   4.046  2.7684 -1.1932  0.6202
42620SOL     OW34909   4.821   5.522   2.970 -0.0886  0.7214  0.6172
42620SOL    HW134910   4.844   5.456   2.905  2.5385 -0.5491  2.6484
42620SOL    HW234911   4.806   5.602   2.920  1.7396 -0.2025 -1.5547
42621SOL     OW34912   0.143   2.673   0.810  0.1254 -0.0405  0.0323
42621SOL    HW134913   0.096   2.682   0.893  1.0257  0.8062  0.4684
42621SOL    HW234914   0.190   2.756   0.800  1.5307 -0.8544 -0.3728
42622SOL     OW34915   9.625   5.133  10.697  1.6490 -0.7169  0.5249
42622SOL    HW134916   9.566   5.136  10.772  0.1623 -0.9810 -0.5852
42622SOL    HW234917   9.682   5.208  10.708 -0.0285  0.5896  0.7685
42623SOL     OW34918   9.235   9.959   8.339  0.2578  0.2025  0.8233
42623SOL    HW134919   9.142   9.936   8.340  0.2349  0.0206 -1.4628
42623SOL    HW234920   9.248  10.007   8.257  2.2887 -0.2643  0.8009
42624SOL     OW34921   3.482   7.162   5.347 -0.1812  0.0350 -0.2951
42624SOL    HW134922   3.483   7.257   5.355  1.4731  0.2472 -2.0974
42624SOL    HW234923   3.557   7.133   5.400  0.2020 -0.1047 -0.8988
42625SOL     OW34924   5.596  10.466   1.277  0.1787 -0.2015 -0.0069
42625SOL    HW134925   5.680  10.424   1.297  0.5667  1.4053  2.0289
42625SOL    HW234926   5.621  10.545   1.229  0.1157  1.5297  2.6313
42626SOL     OW34927   7.341   3.338   0.526  0.0825 -0.4428 -0.3406
42626SOL    HW134928   7.271   3.357   0.587  0.0196 -2.2369  0.2123
42626SOL    HW234929   7.396   3.273   0.571  2.2843  1.0987 -0.6269
42627SOL     OW34930   1.184   6.506  12.211  0.1519 -0.0096 -0.0410
42627SOL    HW134931   1.229   6.536  12.290  0.7013 -0.6774 -0.0914
42627SOL    HW234932   1.097   6.546  12.217  0.8658  1.6391 -0.1567
42628SOL     OW34933   1.060   2.607  12.441  0.2531 -0.1581  0.3273
42628SOL    HW134934   0.988   2.596  12.503 -0.7654 -0.1044 -0.8197
42628SOL    HW234935   1.035   2.683  12.388  2.2512  1.3534  1.3627
42629SOL     OW34936  10.471  11.322   7.346 -0.4854  0.5482 -0.3208
42629SOL    HW134937  10.549  11.285   7.389 -0.8967  0.2606  0.1896
42629SOL    HW234938  10.481  11.298   7.254  0.2619  0.9141 -0.3468
42630SOL     OW34939   1.500   0.033   0.873  0.1334 -0.1146 -0.5599
42630SOL    HW134940   1.585   0.020   0.831  1.1684 -1.7395  1.7979
42630SOL    HW234941   1.511   0.112   0.926 -0.4908  0.7506 -1.6791
42631SOL     OW34942  10.644   5.049   2.223  0.5520 -0.0255  0.0527
42631SOL    HW134943  10.733   5.013   2.215  1.3247  2.0743 -1.9186
42631SOL    HW234944  10.588   4.981   2.184  1.5586 -0.5171 -0.5939
42632SOL     OW34945   2.995   8.856   2.157 -0.1022  0.2460  0.0851
42632SOL    HW134946   2.958   8.869   2.070 -0.3175  0.1349  0.1582
42632SOL    HW234947   3.052   8.779   2.148 -1.6350 -0.9901  0.4830
42633SOL     OW34948   9.069   8.055   9.360  0.1975  0.3770 -0.2743
42633SOL    HW134949   9.091   7.984   9.301  0.3189  1.0609 -1.0616
42633SOL    HW234950   9.151   8.103   9.372  0.1725  0.2620  0.4455
42634SOL     OW34951   7.311   4.314   3.306 -0.0464  0.3464 -0.5094
42634SOL    HW134952   7.391   4.279   3.266 -0.0405 -0.8386  0.4817
42634SOL    HW234953   7.250   4.325   3.233  0.6010  0.0535 -1.1028
42635SOL     OW34954   1.778   7.534  11.507  0.7274  0.0450 -0.0502
42635SOL    HW134955   1.754   7.450  11.546  0.8365 -0.0500 -0.1827
42635SOL    HW234956   1.809   7.587  11.580 -1.2880  0.7044  0.3678
42636SOL     OW34957  11.542   1.330  10.599 -0.4971 -0.2014 -0.1335
42636SOL    HW134958  11.509   1.343  10.687  1.8244 -2.5154  1.2271
42636SOL    HW234959  11.582   1.414  10.575  1.0833 -0.2434  2.1129
42637SOL     OW34960   7.554  11.987   2.946  0.3112 -0.2888  0.6790
42637SOL    HW134961   7.493  11.913   2.950 -1.3317  1.0465  1.4071
42637SOL    HW234962   7.614  11.972   3.020  1.8068 -2.3168 -0.8351
42638SOL     OW34963   7.057   3.345  12.381  0.0432  0.8891  0.7491
42638SOL    HW134964   7.002   3.308  12.450 -0.0107  0.5342  0.5185
42638SOL    HW234965   7.037   3.438  12.381 -0.4232  0.7883  0.7898
42639SOL     OW34966   5.429   0.531   6.317  0.6724 -0.0291  0.0245
42639SOL    HW134967   5.418   0.514   6.223  3.4627 -1.9765 -0.0846
42639SOL    HW234968   5.502   0.594   6.320 -0.7401  1.6453  0.9035
42640SOL     OW34969  12.471  11.086  10.465 -0.5104  0.3101  0.3742
42640SOL    HW134970  12.554  11.079  10.512 -1.1377 -0.1122  1.4292
42640SOL    HW234971  12.490  11.147  10.393  1.3130 -1.4249 -0.7268
42641SOL     OW34972   7.944  11.095   4.248 -0.0825  0.6032 -0.8691
42641SOL    HW134973   8.012  11.141   4.198  0.6151  0.3867 -0.1374
42641SOL    HW234974   7.940  11.009   4.207  0.4176  0.4586 -0.6260
42642SOL     OW34975   7.831   5.801   8.069 -0.8093 -0.2875  0.0970
42642SOL    HW134976   7.917   5.843   8.069 -0.8548 -0.1938  0.7156
42642SOL    HW234977   7.772   5.865   8.110 -1.1292 -0.4496 -0.0991
42643SOL     OW34978   6.219   4.442   4.019  0.0096 -0.5496 -0.3152
42643SOL    HW134979   6.165   4.477   4.089  0.8431  0.3749 -0.1152
42643SOL    HW234980   6.201   4.348   4.020  0.0878 -0.5783  1.2171
42644SOL     OW34981  10.900   5.416  10.543  0.1254 -0.3965  0.3050
42644SOL    HW134982  10.974   5.392  10.486  0.7405 -0.9731  1.3190
42644SOL    HW234983  10.833   5.350  10.523  0.2251 -0.4186  0.0367
42645SOL     OW34984   4.270   3.195   9.261 -0.0171 -0.1952  0.1629
42645SOL    HW134985   4.209   3.177   9.333  0.1648  1.2199  0.7086
42645SOL    HW234986   4.244   3.135   9.192  0.4335 -2.3490  1.7426
42646SOL     OW34987  11.947   3.564   6.370 -0.1284  0.0308  0.0471
42646SOL    HW134988  11.981   3.637   6.422 -1.3835  0.6605  0.0179
42646SOL    HW234989  11.966   3.486   6.422 -1.8394  0.6813  1.7380
42647SOL     OW34990  10.360  11.373   2.677 -0.5007 -0.1249  0.2160
42647SOL    HW134991  10.338  11.322   2.599  0.1029 -0.7975  0.4731
42647SOL    HW234992  10.304  11.338   2.746  0.6414 -1.1976  0.6453
42648SOL     OW34993   4.941   5.323   4.751 -0.2662 -0.1803  0.1342
42648SOL    HW134994   4.916   5.414   4.734  0.2072  0.1346  1.0386
42648SOL    HW234995   4.894   5.300   4.831 -0.6489 -0.8559 -0.2748
42649SOL     OW34996   7.387   6.615   2.583  0.0880  0.4486  0.5357
42649SOL    HW134997   7.442   6.546   2.545 -0.9603 -1.4548  2.3155
42649SOL    HW234998   7.361   6.669   2.508  0.1185 -1.6702 -1.0839
42650SOL     OW34999  11.696  12.337  11.854 -0.3987  0.1268  0.3896
42650SOL    HW135000  11.787  12.322  11.829 -0.3938  0.3795  0.2525
42650SOL    HW235001  11.646  12.324  11.774 -0.1749  3.0638 -0.3670
42651SOL     OW35002   1.319   6.367   5.262  0.4564 -0.1438 -0.2317
42651SOL    HW135003   1.410   6.372   5.290  0.1253  0.1124  0.8492
42651SOL    HW235004   1.269   6.403   5.336 -0.5305 -0.4517 -0.7300
42652SOL     OW35005   8.990   9.104  11.722 -0.4883  0.2993 -0.1406
42652SOL    HW135006   8.973   9.147  11.805  0.0153 -0.6923  0.4986
42652SOL    HW235007   9.082   9.121  11.704 -1.1838  2.7431 -1.8617
42653SOL     OW35008   3.988   9.041   5.131  0.5207  0.3069 -0.0792
42653SOL    HW135009   3.903   9.083   5.145  1.0473  1.0759  0.9079
42653SOL    HW235010   3.996   8.980   5.205  0.6960  0.0094 -0.3432
42654SOL     OW35011   6.972   2.160   2.261 -0.3847  0.1364 -0.2319
42654SOL    HW135012   6.910   2.185   2.329 -1.3098  1.9775 -1.6471
42654SOL    HW235013   6.999   2.243   2.221  2.0728 -0.7106 -0.4706
42655SOL     OW35014   9.409   1.650  10.847  0.2140 -0.2330  0.1837
42655SOL    HW135015   9.387   1.610  10.931  0.0874 -1.2833 -0.3329
42655SOL    HW235016   9.490   1.699  10.865 -0.2473  0.2191  1.0958
42656SOL     OW35017   8.305   8.588   0.465 -0.0180 -0.1446  0.0546
42656SOL    HW135018   8.389   8.548   0.443 -0.8049 -1.5963 -0.4367
42656SOL    HW235019   8.245   8.559   0.396 -1.1133  0.1728  0.8389
42657SOL     OW35020  10.450  10.187   3.433  0.5411 -0.5870  0.6929
42657SOL    HW135021  10.400  10.129   3.490  1.5471 -1.3625  0.7998
42657SOL    HW235022  10.394  10.199   3.356  0.0959 -1.2510  0.9066
42658SOL     OW35023   4.151   5.017  12.287  0.4724  0.8847  0.5042
42658SOL    HW135024   4.168   5.022  12.381 -0.3571 -0.3097  0.7431
42658SOL    HW235025   4.186   4.933  12.260 -1.5860  0.0233  0.2893
42659SOL     OW35026   5.237  10.252  12.325 -0.4255 -0.0439  0.1841
42659SOL    HW135027   5.306  10.309  12.358  1.5053 -3.7113  3.3634
42659SOL    HW235028   5.245  10.257  12.230  3.5644  0.6321  0.3678
42660SOL     OW35029   6.907   4.112  10.707 -0.1076 -0.2679 -0.0497
42660SOL    HW135030   6.942   4.179  10.766 -1.2734 -0.5054  0.9461
42660SOL    HW235031   6.853   4.057  10.763  0.5619 -1.8747 -0.9108
42661SOL     OW35032  12.021   4.531   6.953  0.1318  0.2772 -0.0388
42661SOL    HW135033  12.108   4.496   6.933  0.1513 -1.4848  2.6584
42661SOL    HW235034  11.973   4.524   6.870  2.6154  1.8233 -1.7698
42662SOL     OW35035  10.702   4.930  11.027 -0.0998  0.0331  0.5186
42662SOL    HW135036  10.618   4.959  10.990 -0.6292 -0.7134  1.0880
42662SOL    HW235037  10.746   5.011  11.054 -0.9602  0.3977  0.8792
42663SOL     OW35038  11.473   3.230   8.242  0.2079 -0.1781  0.4814
42663SOL    HW135039  11.550   3.174   8.235  0.6473  0.2729  1.4668
42663SOL    HW235040  11.508   3.317   8.264 -0.4477  0.5449 -1.1480
42664SOL     OW35041   9.006  10.356   8.963 -0.4342 -0.4138 -0.2759
42664SOL    HW135042   9.013  10.301   9.041  1.7272  0.1910  0.0405
42664SOL    HW235043   9.026  10.444   8.994  0.3316 -0.1444 -1.4775
42665SOL     OW35044   0.225   5.900   8.001  1.1465  0.3389 -0.3330
42665SOL    HW135045   0.310   5.945   7.998  1.2140  0.2675  0.2755
42665SOL    HW235046   0.239   5.819   7.953  1.0908  0.8614 -1.2410
42666SOL     OW35047  12.066   8.728   2.001  0.0007 -0.1542  0.4988
42666SOL    HW135048  12.161   8.740   2.004  0.1648 -0.4944 -1.7437
42666SOL    HW235049  12.053   8.663   1.932 -1.9486  1.1422 -0.4393
42667SOL     OW35050   6.896   0.345   4.912 -0.4203  0.0738 -0.0414
42667SOL    HW135051   6.937   0.292   4.843 -1.0256 -2.0097  1.1248
42667SOL    HW235052   6.952   0.422   4.920 -0.0546  0.1414 -2.4946
42668SOL     OW35053   5.252  10.875   2.975 -0.0109  0.1248  0.1282
42668SOL    HW135054   5.218  10.892   2.888 -0.5582 -0.2439  0.2711
42668SOL    HW235055   5.345  10.897   2.969 -0.3747  1.7350 -0.0948
42669SOL     OW35056   4.458   3.065   0.938 -0.5836 -0.7666  0.1471
42669SOL    HW135057   4.381   3.113   0.909  0.8464  1.4263 -0.2280
42669SOL    HW235058   4.457   2.985   0.886 -2.2844 -0.5267 -0.2434
42670SOL     OW35059   5.656  11.406   5.353  0.1907 -0.5345 -0.2650
42670SOL    HW135060   5.637  11.315   5.332  0.4279 -0.6010 -0.1888
42670SOL    HW235061   5.671  11.447   5.268 -1.0838 -0.2972 -0.4039
42671SOL     OW35062   3.869   3.140   6.444 -0.4376  0.1865 -0.0769
42671SOL    HW135063   3.776   3.153   6.463 -0.3567  0.7191 -0.0464
42671SOL    HW235064   3.871   3.116   6.351 -0.6936 -0.9264  0.1805
42672SOL     OW35065   1.028   3.839   8.824  0.5824  0.3091 -0.2427
42672SOL    HW135066   1.089   3.770   8.798  1.4059  0.8471  0.1939
42672SOL    HW235067   1.059   3.866   8.910 -0.6867  0.1524  0.2782
42673SOL     OW35068  10.604   7.111   2.635  0.4048 -0.2587 -0.2999
42673SOL    HW135069  10.695   7.129   2.657  0.4694 -0.9218 -0.0079
42673SOL    HW235070  10.576   7.046   2.699 -0.3669  0.1630 -0.1933
42674SOL     OW35071  11.499  10.924  12.153 -0.4856  0.5161  0.1733
42674SOL    HW135072  11.554  10.956  12.081 -0.8181  0.9185  0.0938
42674SOL    HW235073  11.455  10.847  12.117  0.6120 -0.2914  0.4874
42675SOL     OW35074   3.394   0.534  11.395 -0.7412  0.3425 -0.0326
42675SOL    HW135075   3.384   0.454  11.446 -2.0890  0.2157 -0.4469
42675SOL    HW235076   3.372   0.509  11.305 -1.0980  1.1509 -0.1845
42676SOL     OW35077  10.898   4.186  10.537  0.4100  0.2016 -0.2262
42676SOL    HW135078  10.982   4.201  10.493  0.1491  0.9518 -0.4762
42676SOL    HW235079  10.835   4.173  10.466  0.3264 -0.5084 -0.0370
42677SOL     OW35080   0.198   0.309  11.850 -0.1726 -0.0900  0.0792
42677SOL    HW135081   0.248   0.270  11.922 -0.6088 -0.4445  0.1986
42677SOL    HW235082   0.109   0.276  11.863 -0.0088 -1.2583 -1.3905
42678SOL     OW35083   9.994   3.956  12.049 -0.2246 -0.0035 -0.4375
42678SOL    HW135084  10.009   3.891  11.981 -0.6041 -0.6318  0.0677
42678SOL    HW235085   9.902   3.945  12.073 -0.1257  0.2801  0.0973
42679SOL     OW35086   6.709  11.310   4.357 -0.4781 -0.4545 -0.0975
42679SOL    HW135087   6.793  11.267   4.372 -1.3941 -1.5174  2.5241
42679SOL    HW235088   6.650  11.239   4.332 -1.2378 -0.2176  0.9665
42680SOL     OW35089   3.096   6.318   3.207  0.1024 -0.4873 -0.8096
42680SOL    HW135090   3.013   6.301   3.163  0.8209 -1.4985 -1.8424
42680SOL    HW235091   3.121   6.406   3.180 -1.7672  0.8377  1.4452
42681SOL     OW35092   9.521   4.341  11.944 -0.0695  0.3273  0.7114
42681SOL    HW135093   9.538   4.432  11.969  1.0397  0.2913  0.1845
42681SOL    HW235094   9.428   4.338  11.924 -0.1716  1.2839  1.0032
42682SOL     OW35095   8.242   3.420  10.305 -0.1569 -0.6455  0.7161
42682SOL    HW135096   8.247   3.381  10.392  0.0560  1.5066  1.7287
42682SOL    HW235097   8.323   3.470  10.295 -0.6164 -0.0479 -0.2924
42683SOL     OW35098   6.482   9.692   1.679  0.7060  0.6721  0.1239
42683SOL    HW135099   6.565   9.666   1.719 -0.4204 -4.1312 -0.0627
42683SOL    HW235100   6.488   9.661   1.589 -1.7276 -1.2172  0.5144
42684SOL     OW35101   7.099   5.403  12.036 -0.4525  0.0268 -0.8626
42684SOL    HW135102   7.080   5.351  12.115 -2.1407  0.4097 -0.9642
42684SOL    HW235103   7.153   5.475  12.067  0.3413 -0.7576 -0.3772
42685SOL     OW35104  12.545   8.374   7.347  0.2557 -0.0686 -0.4289
42685SOL    HW135105  12.583   8.338   7.267  0.6719 -0.2489 -0.1498
42685SOL    HW235106  12.457   8.337   7.350 -0.3543  1.1997 -1.6444
42686SOL     OW35107   9.031   4.853   3.873  0.0828 -0.1823  0.3087
42686SOL    HW135108   9.011   4.870   3.965  1.5217  1.5045  0.3592
42686SOL    HW235109   8.949   4.820   3.837 -0.7239 -0.1845  2.0154
42687SOL     OW35110  10.918   5.732   7.676  0.0002  0.6443 -0.4752
42687SOL    HW135111  10.983   5.662   7.671  0.7879  1.2982  0.3054
42687SOL    HW235112  10.841   5.696   7.631  0.6486 -0.4139 -0.7849
42688SOL     OW35113   7.132   1.741  12.400 -0.0758 -0.7951  0.3078
42688SOL    HW135114   7.213   1.781  12.433 -0.6994  1.1514 -0.4003
42688SOL    HW235115   7.062   1.782  12.451 -0.9184  0.8925 -2.0277
42689SOL     OW35116   4.696  10.980   4.265  0.4658 -0.0088  0.4206
42689SOL    HW135117   4.655  10.976   4.179  1.7437  0.1165 -0.2187
42689SOL    HW235118   4.645  10.919   4.318  0.5967 -1.2794 -0.8439
42690SOL     OW35119   8.855   4.748   7.461  0.2246  0.0752 -0.3130
42690SOL    HW135120   8.865   4.659   7.427 -2.0182  0.2954 -1.7353
42690SOL    HW235121   8.944   4.781   7.468  1.0117 -1.6785 -1.4073
42691SOL     OW35122   4.507   4.434   4.476  0.1295  0.1351  0.6355
42691SOL    HW135123   4.492   4.509   4.419 -0.1367  0.1476  0.7192
42691SOL    HW235124   4.584   4.391   4.440 -1.8324 -1.6797 -1.6594
42692SOL     OW35125   7.701   5.051   4.279  0.2135  0.1346 -0.1924
42692SOL    HW135126   7.700   5.003   4.362 -1.9411 -0.3636 -0.4317
42692SOL    HW235127   7.785   5.028   4.239  0.8663 -0.4076  1.3870
42693SOL     OW35128  11.070   3.254   6.683 -0.4562  0.7559  0.7945
42693SOL    HW135129  11.069   3.348   6.700  0.2778  0.8502  0.3518
42693SOL    HW235130  11.002   3.241   6.617 -0.6531  0.9510  0.9542
42694SOL     OW35131   3.203   8.082  12.354 -0.6231  0.5604  0.0665
42694SOL    HW135132   3.251   8.129  12.286  0.6683 -0.0213  0.5407
42694SOL    HW235133   3.271   8.047  12.411 -1.6571  0.4574  1.2770
42695SOL     OW35134   2.639   9.587   1.244 -0.0169  0.0355 -0.2598
42695SOL    HW135135   2.557   9.625   1.276  0.1151 -1.0097  1.4408
42695SOL    HW235136   2.619   9.493   1.235  0.3306  0.0929 -2.1600
42696SOL     OW35137   2.327   2.885   1.221  0.5964  0.2383 -0.0041
42696SOL    HW135138   2.320   2.942   1.145 -0.3290  1.4241  0.9320
42696SOL    HW235139   2.260   2.818   1.208  1.6994 -0.7106 -1.1162
42697SOL     OW35140   1.479   1.871   3.440  0.3561  0.4267 -0.1500
42697SOL    HW135141   1.548   1.934   3.421  1.7600 -0.2269  2.3296
42697SOL    HW235142   1.510   1.789   3.402 -0.7455  0.8019 -2.0099
42698SOL     OW35143  11.137  11.530  12.054  0.2267 -0.2583  0.4858
42698SOL    HW135144  11.215  11.586  12.058 -0.8529  1.2430  1.8141
42698SOL    HW235145  11.099  11.548  11.969 -0.0318  0.9852  0.8430
42699SOL     OW35146   2.816  11.496  12.477  0.4882  0.4225 -0.3942
42699SOL    HW135147   2.899  11.525  12.440  1.3170 -0.0755  0.9830
42699SOL    HW235148   2.772  11.577  12.504  0.6773  0.6686 -0.8224
42700SOL     OW35149   3.984   9.868   9.288  0.2143 -0.4879  0.3118
42700SOL    HW135150   4.063   9.921   9.281  1.4417 -2.3266 -0.6016
42700SOL    HW235151   3.924   9.906   9.224  1.7394 -1.2045 -1.6558
42701SOL     OW35152   7.930   7.605   0.352  0.0236  0.2462  0.3164
42701SOL    HW135153   7.912   7.550   0.276 -0.7239  0.2010  0.5156
42701SOL    HW235154   8.024   7.621   0.349  0.1306 -0.4465 -0.1446
42702SOL     OW35155  10.923   8.282   9.352 -0.3601  0.0435  1.0472
42702SOL    HW135156  10.910   8.187   9.346  0.8998 -0.1078  0.1451
42702SOL    HW235157  11.017   8.292   9.364 -0.3322  1.2087  0.0339
42703SOL     OW35158  10.490   2.801   2.410 -0.2531  0.1765  0.4938
42703SOL    HW135159  10.398   2.786   2.391 -0.1051  0.2532 -0.2964
42703SOL    HW235160  10.510   2.738   2.480 -0.4655 -1.0860 -0.5339
42704SOL     OW35161   8.697   5.278   1.034  0.2828  0.1080 -0.6565
42704SOL    HW135162   8.726   5.252   1.121  1.4579  0.4478 -0.9336
42704SOL    HW235163   8.678   5.371   1.041  0.1812  0.0928 -0.7194
42705SOL     OW35164   2.136   7.657  11.995  0.2573 -0.3509 -0.3031
42705SOL    HW135165   2.095   7.597  11.933  1.2315  0.7932 -2.1750
42705SOL    HW235166   2.230   7.646  11.981  0.4705  1.9974 -1.2134
42706SOL     OW35167   4.383  10.503  12.382  0.2645 -0.3032  0.2711
42706SOL    HW135168   4.469  10.461  12.383  0.4789  0.0800 -0.7471
42706SOL    HW235169   4.323  10.433  12.356  0.2050 -0.6542  1.2998
42707SOL     OW35170  10.702  10.526   9.134 -0.1584 -0.4724  0.0754
42707SOL    HW135171  10.728  10.576   9.212  0.5980 -0.8377  0.0707
42707SOL    HW235172  10.762  10.555   9.066 -0.3181 -0.7116 -0.1689
42708SOL     OW35173   6.158   1.003   5.256  0.1061  0.6185 -0.3547
42708SOL    HW135174   6.254   0.997   5.262  0.2624  1.5453 -1.4735
42708SOL    HW235175   6.128   0.993   5.346  1.2418  0.1290 -0.0022
42709SOL     OW35176  10.041   3.849   6.432  0.0836 -0.6992  0.0969
42709SOL    HW135177   9.971   3.841   6.367 -2.6865 -0.2185  2.8246
42709SOL    HW235178  10.084   3.932   6.411 -2.8523  1.0904  0.6732
42710SOL     OW35179   8.805  11.967  11.109 -0.0958  0.3265  0.4040
42710SOL    HW135180   8.885  11.957  11.160 -1.3516  2.0814  2.9624
42710SOL    HW235181   8.782  12.060  11.119 -1.2812  0.4035 -2.1706
42711SOL     OW35182   6.481  12.266   7.493  0.9664 -0.3335  0.3068
42711SOL    HW135183   6.477  12.347   7.545 -0.7073 -0.0144 -0.2551
42711SOL    HW235184   6.566  12.228   7.515  2.5628  2.3910 -0.6482
42712SOL     OW35185  11.754   0.724   2.224  0.0509 -0.7171 -0.4504
42712SOL    HW135186  11.660   0.736   2.222  0.1813  0.5046 -0.1189
42712SOL    HW235187  11.789   0.798   2.174  0.8139 -1.5130 -1.1295
42713SOL     OW35188   1.388   8.072  10.042  0.1010 -0.6093  0.3808
42713SOL    HW135189   1.308   8.123  10.040 -0.0161 -0.8045 -0.0920
42713SOL    HW235190   1.368   7.994   9.989  1.9707  1.3692 -3.7435
42714SOL     OW35191   9.320   8.345  11.045 -0.3495  0.1591 -0.0624
42714SOL    HW135192   9.288   8.377  10.960  1.0361 -0.2162 -0.7656
42714SOL    HW235193   9.407   8.310  11.025 -0.9871 -2.1911  1.0566
42715SOL     OW35194   5.727   7.646   1.764  0.2929 -0.2787  0.4690
42715SOL    HW135195   5.695   7.730   1.731  1.7413  0.0599 -0.1705
42715SOL    HW235196   5.653   7.586   1.753 -0.0549  0.4025 -1.1547
42716SOL     OW35197  10.641   5.181   5.985  0.1420  0.6267  0.1370
42716SOL    HW135198  10.650   5.092   5.951 -0.0003  0.7360 -0.1905
42716SOL    HW235199  10.603   5.170   6.072 -2.1743  0.4679 -0.8244
42717SOL     OW35200   3.806   1.047   1.379 -0.4859  0.5165  0.2022
42717SOL    HW135201   3.725   1.080   1.418 -0.2581  1.6991 -0.2911
42717SOL    HW235202   3.848   1.124   1.342 -0.7818 -0.5337 -2.5820
42718SOL     OW35203   8.075   5.896   0.497  0.0694  0.3098  0.2390
42718SOL    HW135204   8.169   5.886   0.514 -0.0392  0.4259  0.9199
42718SOL    HW235205   8.035   5.903   0.584 -0.5472  0.4776 -0.0516
42719SOL     OW35206   8.873   7.792  11.909  0.2195 -0.8211  0.1708
42719SOL    HW135207   8.818   7.772  11.834 -0.6665  0.4530  0.4468
42719SOL    HW235208   8.872   7.711  11.962  0.1035 -1.4121 -0.7164
42720SOL     OW35209   6.591   8.162  11.840 -0.5581 -0.1481  0.1512
42720SOL    HW135210   6.620   8.111  11.764 -1.5249  0.4678 -0.6550
42720SOL    HW235211   6.570   8.096  11.906 -0.3525 -0.7256 -0.3513
42721SOL     OW35212   0.157  10.728   9.096  0.5575  0.3615 -0.1881
42721SOL    HW135213   0.105  10.692   9.168  1.9201  0.1474  0.7349
42721SOL    HW235214   0.099  10.791   9.053 -0.5804 -0.1549  0.5538
42722SOL     OW35215  11.285  11.843  12.173 -0.3274 -0.0059 -0.2718
42722SOL    HW135216  11.190  11.835  12.186 -0.4860 -0.5534 -1.6508
42722SOL    HW235217  11.305  11.932  12.204 -1.3806  0.3045 -0.4144
42723SOL     OW35218   8.362   5.460  12.389 -0.4322  0.4749 -0.1730
42723SOL    HW135219   8.453   5.431  12.383 -0.5592  0.1603 -0.6201
42723SOL    HW235220   8.312   5.380  12.406 -0.6067  0.6740  0.2567
42724SOL     OW35221   9.627  11.149  10.789  0.2609 -0.3322 -0.4114
42724SOL    HW135222   9.620  11.076  10.728  0.9750  1.0906 -2.3296
42724SOL    HW235223   9.712  11.137  10.831  0.3467 -0.6593 -0.6741
42725SOL     OW35224   0.881   5.876   7.318  0.0258 -0.3912  0.1021
42725SOL    HW135225   0.909   5.924   7.396 -1.2745  0.7060 -0.0617
42725SOL    HW235226   0.899   5.937   7.246  1.1631 -1.3703 -0.4664
42726SOL     OW35227   6.697   7.879  12.537 -0.2980  0.1534 -0.0153
42726SOL    HW135228   6.733   7.794  12.511 -0.1399  0.2504 -0.1149
42726SOL    HW235229   6.765   7.942  12.514 -0.2740  0.2713  0.3733
42727SOL     OW35230   9.740   0.016  12.357 -0.1654 -0.4157 -0.0386
42727SOL    HW135231   9.792   0.082  12.403 -1.9567  1.3654 -0.3970
42727SOL    HW235232   9.786   0.002  12.275 -0.2708  1.2135 -0.4025
42728SOL     OW35233   0.221   2.002   3.158  0.0796  0.4119 -0.3202
42728SOL    HW135234   0.302   2.036   3.197  0.7243 -0.5423 -0.7936
42728SOL    HW235235   0.250   1.960   3.077 -0.9059  0.1043 -0.5211
42729SOL     OW35236   7.087   5.935   1.054 -0.0625 -0.2848 -0.2611
42729SOL    HW135237   7.095   5.871   1.125 -1.5466  1.0541  1.2000
42729SOL    HW235238   7.148   6.005   1.078 -2.5436  1.5021  1.3254
42730SOL     OW35239   4.441   0.195   1.472  0.1977  0.1884  0.0981
42730SOL    HW135240   4.449   0.284   1.440 -1.9602  0.2458 -0.4720
42730SOL    HW235241   4.378   0.154   1.413  1.3258 -1.8154  0.1812
42731SOL     OW35242  11.184   9.652  12.367 -0.3257  0.8105 -0.8040
42731SOL    HW135243  11.115   9.664  12.432 -0.1966  1.6506 -0.8135
42731SOL    HW235244  11.165   9.566  12.328 -0.9677  0.7308 -0.3394
42732SOL     OW35245  12.525   6.975   7.512  0.4538  0.0687  0.3681
42732SOL    HW135246  12.442   6.930   7.491  0.0417  0.6131  0.8000
42732SOL    HW235247  12.534   6.966   7.606  0.7914  0.1850  0.3463
42733SOL     OW35248   6.828   4.848   2.181 -0.1395 -0.1429 -0.3804
42733SOL    HW135249   6.845   4.933   2.141  0.8629 -0.7292 -1.2498
42733SOL    HW235250   6.869   4.854   2.268 -1.0151  0.6150 -0.0057
42734SOL     OW35251   6.001   5.842  11.321 -0.5039 -0.3288 -0.4294
42734SOL    HW135252   5.977   5.767  11.266 -1.0234  0.3857 -1.2079
42734SOL    HW235253   6.086   5.818  11.359 -1.4391 -2.0117  0.6955
42735SOL     OW35254  11.252   5.096  12.105 -0.2405  0.1203 -0.4613
42735SOL    HW135255  11.254   5.190  12.088  0.0549  0.2777  0.3956
42735SOL    HW235256  11.175   5.083  12.161  0.4842  0.0681  0.5604
42736SOL     OW35257   8.435  12.386   5.623  0.0111  0.0164  0.4587
42736SOL    HW135258   8.374  12.409   5.552  0.0829  3.2928  1.2845
42736SOL    HW235259   8.510  12.346   5.578 -1.2130 -0.7873 -0.9557
42737SOL     OW35260   2.314   3.905  12.142  0.0337  0.0286 -0.5610
42737SOL    HW135261   2.307   3.862  12.056  2.1406  0.7666 -1.1752
42737SOL    HW235262   2.401   3.879  12.173 -0.3869  0.4379  0.9963
42738SOL     OW35263   1.556   9.748  12.226  0.7905  0.1924  0.4815
42738SOL    HW135264   1.538   9.667  12.274 -1.3585  0.6498  0.5244
42738SOL    HW235265   1.626   9.791  12.276 -0.1256 -0.2167  2.1722
42739SOL     OW35266   8.466   5.337   9.006 -0.2216  0.2377  0.8002
42739SOL    HW135267   8.522   5.410   9.033 -0.1037  0.3887  0.1633
42739SOL    HW235268   8.512   5.259   9.037  1.1569  0.2493 -1.0152
42740SOL     OW35269   0.587   0.665   1.429  0.3981  0.5555  0.5848
42740SOL    HW135270   0.590   0.570   1.415  1.1827  0.6387  0.1764
42740SOL    HW235271   0.517   0.676   1.494  1.2777 -0.4483  1.7853
42741SOL     OW35272  11.173   4.286   1.844 -0.0334  0.4909  0.1564
42741SOL    HW135273  11.199   4.256   1.930  0.0913  0.7415  0.2086
42741SOL    HW235274  11.212   4.224   1.783 -0.0861  0.3387  0.2782
42742SOL     OW35275   6.041   0.212   7.323 -0.1197  0.3945  0.2030
42742SOL    HW135276   6.007   0.289   7.278 -1.2343 -0.5784 -0.6701
42742SOL    HW235277   6.023   0.139   7.264 -0.5644 -0.7631  1.6873
42743SOL     OW35278   4.137   5.376   5.532 -0.3491  0.5838  0.2333
42743SOL    HW135279   4.122   5.302   5.473 -0.1720  1.5570 -1.0818
42743SOL    HW235280   4.135   5.338   5.620  0.3044 -1.0647 -0.4320
42744SOL     OW35281   9.996   6.413   0.069  0.5183  0.0392 -0.0718
42744SOL    HW135282  10.081   6.455   0.055  1.3894 -2.0402 -1.5604
42744SOL    HW235283   9.979   6.365  -0.013 -1.0115 -1.4254  1.0274
42745SOL     OW35284   6.087   4.844   0.845  0.2848  0.8185  0.2549
42745SOL    HW135285   6.165   4.824   0.898  1.6027 -1.5301 -2.3110
42745SOL    HW235286   6.107   4.929   0.805  1.4403  0.3855 -0.1358
42746SOL     OW35287   5.254  11.727   4.120 -0.1373  0.2521  0.1853
42746SOL    HW135288   5.302  11.671   4.181 -1.3764  0.0998  1.0715
42746SOL    HW235289   5.257  11.680   4.037  0.1094 -0.4011  0.5538
42747SOL     OW35290   6.579   8.781   2.743  0.4084 -0.4016  0.1064
42747SOL    HW135291   6.617   8.855   2.791 -0.3356 -1.1448  1.9857
42747SOL    HW235292   6.653   8.725   2.722  0.6168 -0.9472  2.0856
42748SOL     OW35293   7.687   0.462   8.791  0.3434 -0.0270  0.0555
42748SOL    HW135294   7.638   0.432   8.868  0.0121 -1.0345 -0.5238
42748SOL    HW235295   7.634   0.534   8.756 -0.1177 -0.3427  0.0994
42749SOL     OW35296   1.295   2.169   2.650  1.2771 -0.7523  0.3456
42749SOL    HW135297   1.322   2.104   2.584 -0.2905 -0.7996 -0.2844
42749SOL    HW235298   1.237   2.121   2.708  3.5715 -1.0434  2.5868
42750SOL     OW35299   0.191   6.196  12.122  0.0695  0.1751 -0.2124
42750SOL    HW135300   0.267   6.235  12.080 -1.8788  1.1446 -3.1721
42750SOL    HW235301   0.154   6.267  12.175  0.3083  0.2288 -0.1199
42751SOL     OW35302   7.463  11.529   6.002 -0.2814 -0.1224 -0.2772
42751SOL    HW135303   7.421  11.540   6.087  1.0297  1.1382  0.2425
42751SOL    HW235304   7.463  11.617   5.964 -0.0900 -0.5179 -1.2122
42752SOL     OW35305   7.778  11.737   5.148  0.4248 -0.0632 -0.4428
42752SOL    HW135306   7.717  11.674   5.186  0.5371  0.7936  1.2984
42752SOL    HW235307   7.863  11.713   5.186  0.3027  1.6876  1.0954
42753SOL     OW35308  10.650   2.968   6.808 -0.8508 -0.0483 -1.0180
42753SOL    HW135309  10.646   3.059   6.777 -0.5992  0.6751  0.9116
42753SOL    HW235310  10.602   2.969   6.891  0.6799 -1.2399 -0.0572
42754SOL     OW35311  10.065   2.786   5.896 -0.4043 -0.4189  0.4297
42754SOL    HW135312  10.058   2.846   5.970  3.7201  2.0116 -0.8458
42754SOL    HW235313  10.014   2.828   5.827 -3.0113 -1.9520  1.2466
42755SOL     OW35314   3.685   9.415   1.721  0.4038 -1.2406 -0.2771
42755SOL    HW135315   3.673   9.321   1.727 -1.0365 -1.2698 -2.5526
42755SOL    HW235316   3.597   9.452   1.730  0.6095 -0.3134 -1.7122
42756SOL     OW35317   1.689   9.159  10.077 -0.0431  0.9205  0.0071
42756SOL    HW135318   1.674   9.226  10.144 -1.0043 -1.3580  2.2483
42756SOL    HW235319   1.614   9.099  10.086  2.3310 -2.2560  0.4758
42757SOL     OW35320   9.826   0.456   0.337  0.2274 -0.5799 -0.5605
42757SOL    HW135321   9.920   0.436   0.341  0.5483  0.9023  0.3577
42757SOL    HW235322   9.820   0.544   0.375 -1.7879 -1.4529  1.3575
42758SOL     OW35323   1.922   4.003   7.473  0.0524  0.2146  0.2767
42758SOL    HW135324   1.863   3.977   7.402  0.3625 -0.1733  0.1563
42758SOL    HW235325   1.863   4.027   7.545 -0.2580 -0.9570  0.4388
42759SOL     OW35326   4.176   6.286   2.889 -0.3197 -0.3134  0.1473
42759SOL    HW135327   4.103   6.282   2.828  0.1778  0.1149 -0.4915
42759SOL    HW235328   4.197   6.195   2.907 -0.0069 -0.4620 -0.8952
42760SOL     OW35329   8.854  10.850   1.476  0.2736 -0.5212 -0.1429
42760SOL    HW135330   8.803  10.907   1.535  0.8985 -1.3482  1.2499
42760SOL    HW235331   8.945  10.865   1.501  0.5408 -1.0129 -0.7977
42761SOL     OW35332   1.760   4.444  10.758  0.9295  0.4713  0.4418
42761SOL    HW135333   1.742   4.534  10.787  0.5342  0.0229  1.6177
42761SOL    HW235334   1.676   4.413  10.724  1.0607  0.5207  0.0582
42762SOL     OW35335   1.979  12.128   3.999 -0.2657 -0.3219 -0.1857
42762SOL    HW135336   1.911  12.106   3.935 -0.4821 -1.5167  0.4217
42762SOL    HW235337   1.938  12.108   4.084  1.4092 -2.8589  0.1331
42763SOL     OW35338  11.840   8.237  10.079  0.4558 -0.1039 -0.6922
42763SOL    HW135339  11.842   8.330  10.100 -0.3852  0.0597 -1.2935
42763SOL    HW235340  11.879   8.194  10.156  0.4095  0.6966 -0.2109
42764SOL     OW35341   6.605   9.977   8.362 -0.0558  0.1245 -0.1590
42764SOL    HW135342   6.590   9.937   8.448  0.2606 -0.8719 -0.5572
42764SOL    HW235343   6.686   9.938   8.330 -0.4397  0.0872 -1.1372
42765SOL     OW35344   2.484   7.937   5.283  0.2090  0.5341  0.4992
42765SOL    HW135345   2.479   8.030   5.264  0.5226  0.6050  0.7491
42765SOL    HW235346   2.458   7.894   5.202  0.6522  0.8324  0.1921
42766SOL     OW35347   8.225   5.386   1.957  0.8123 -0.0399  0.1585
42766SOL    HW135348   8.197   5.436   2.034  2.3983  1.1879  0.0028
42766SOL    HW235349   8.153   5.393   1.895 -0.3638 -0.7867  1.3934
42767SOL     OW35350  12.475   1.442   3.616  0.1717  0.2246 -0.1984
42767SOL    HW135351  12.424   1.379   3.667 -0.7101  0.7600 -0.3899
42767SOL    HW235352  12.537   1.388   3.566  1.7068 -0.2533  2.0834
42768SOL     OW35353   0.811   2.618  10.054  0.6899 -0.2682  0.0903
42768SOL    HW135354   0.847   2.542  10.009  1.5706  0.4913 -0.5124
42768SOL    HW235355   0.864   2.692  10.025 -0.5226  0.6943  0.1956
42769SOL     OW35356  10.341   0.053   7.703 -0.6316  0.3174 -0.8891
42769SOL    HW135357  10.400   0.005   7.761 -3.4373 -1.6355  0.5310
42769SOL    HW235358  10.369   0.028   7.615  0.5972 -0.5928 -0.2699
42770SOL     OW35359   9.643   2.145   0.991  0.1411  0.8031  0.1619
42770SOL    HW135360   9.689   2.162   1.073 -0.6987  0.2648  0.7666
42770SOL    HW235361   9.632   2.231   0.951 -0.7732  1.2678  1.3640
42771SOL     OW35362   8.348   8.280   1.875  0.3058 -0.5283  0.0396
42771SOL    HW135363   8.364   8.216   1.806  0.8674 -0.6364  0.2655
42771SOL    HW235364   8.269   8.248   1.919  0.0765 -0.5815 -0.4004
42772SOL     OW35365   8.496   0.289  11.704  0.3133 -0.3693  0.2856
42772SOL    HW135366   8.408   0.271  11.672  0.7465  0.1582 -1.2970
42772SOL    HW235367   8.497   0.253  11.792 -1.5632 -0.1548  0.4413
42773SOL     OW35368  12.428   7.958   2.697 -0.0983  0.3839 -0.5618
42773SOL    HW135369  12.488   7.891   2.665 -1.9015 -1.0799 -1.0503
42773SOL    HW235370  12.421   7.941   2.791  0.9307  1.1859 -0.3076
42774SOL     OW35371   3.519   4.319   6.498  0.0416  0.5064  0.1896
42774SOL    HW135372   3.499   4.410   6.475  0.6245  0.7512  0.6199
42774SOL    HW235373   3.436   4.272   6.486 -0.5983  1.3372  1.2260
42775SOL     OW35374   7.528   1.502  10.219 -0.0375 -0.3313  0.2810
42775SOL    HW135375   7.523   1.432  10.153  0.1291 -0.4128  0.3564
42775SOL    HW235376   7.605   1.481  10.272  0.6058  0.4510 -0.3156
42776SOL     OW35377  12.471   8.479   0.492  0.2619  0.2839  0.8912
42776SOL    HW135378  12.395   8.530   0.522 -0.3589 -0.0740 -0.0040
42776SOL    HW235379  12.483   8.507   0.401  0.5855 -0.3800  0.7256
42777SOL     OW35380   0.879   8.566   9.894  0.0571 -0.5166  0.0079
42777SOL    HW135381   0.857   8.656   9.921  1.7149 -0.7769  2.5092
42777SOL    HW235382   0.960   8.576   9.844 -0.9518 -0.4552 -1.7013
42778SOL     OW35383   3.675  11.100   7.738 -0.1731  0.9075  0.1394
42778SOL    HW135384   3.766  11.130   7.736 -0.7764  3.1859  1.8871
42778SOL    HW235385   3.661  11.073   7.829 -1.3378  0.9540 -0.0115
42779SOL     OW35386   4.922  11.607   5.334  0.0154 -0.0400 -0.3472
42779SOL    HW135387   4.997  11.548   5.323  0.0862 -0.2035  0.8994
42779SOL    HW235388   4.869  11.593   5.255  1.5733  0.5204 -1.5549
42780SOL     OW35389   5.663   0.595   4.839  0.3552  0.1957 -0.2440
42780SOL    HW135390   5.659   0.514   4.789 -0.0755 -0.0528  0.1861
42780SOL    HW235391   5.594   0.586   4.905  0.5067  0.7804  0.0005
42781SOL     OW35392   8.663   3.799   4.219 -0.3571  0.0379  0.3265
42781SOL    HW135393   8.608   3.804   4.297  1.2144  0.5142  1.4410
42781SOL    HW235394   8.612   3.745   4.158 -1.6283 -0.3498  1.6651
42782SOL     OW35395   2.121   4.683  10.033 -0.1643 -0.1998 -0.4495
42782SOL    HW135396   2.044   4.726  10.070  0.6282  1.1093 -0.2655
42782SOL    HW235397   2.134   4.606  10.088 -1.2025 -0.3292 -0.3570
42783SOL     OW35398  10.072   9.686  11.902  0.0270 -0.4823 -0.0436
42783SOL    HW135399  10.128   9.660  11.975 -0.9304 -0.1390  0.8464
42783SOL    HW235400  10.116   9.760  11.861  0.2458 -0.2481  0.6127
42784SOL     OW35401   2.751   2.122   3.412  0.0079 -0.0152 -0.8049
42784SOL    HW135402   2.830   2.069   3.397  1.2246  1.6752 -0.5965
42784SOL    HW235403   2.695   2.102   3.337  0.6074 -1.2480 -0.9630
42785SOL     OW35404   6.926  12.012   6.811 -0.0406  0.0064  0.0841
42785SOL    HW135405   6.841  12.043   6.842 -0.9784 -1.7423 -0.5937
42785SOL    HW235406   6.913  11.919   6.794  2.0300 -0.3188 -0.0305
42786SOL     OW35407   8.066  12.278  11.550  0.1986  0.6640  0.0768
42786SOL    HW135408   8.141  12.289  11.608  0.9227  0.9251 -0.8883
42786SOL    HW235409   7.994  12.252  11.608  1.0119  0.4801  1.0219
42787SOL     OW35410  12.144   3.499   0.357  0.4103 -0.1737 -0.4379
42787SOL    HW135411  12.237   3.494   0.380  0.5192 -1.6192 -1.0761
42787SOL    HW235412  12.139   3.573   0.296  0.4959  2.1713  2.2213
42788SOL     OW35413   6.146  10.009   1.411  0.1685 -0.4675 -0.0164
42788SOL    HW135414   6.182   9.947   1.347 -0.7131 -0.9965 -0.0142
42788SOL    HW235415   6.200  10.087   1.401  0.2156 -0.6348 -1.2186
42789SOL     OW35416   4.656   8.705   4.034  0.2462 -0.3398  0.8995
42789SOL    HW135417   4.713   8.697   4.111 -0.3223 -2.6807  1.1539
42789SOL    HW235418   4.623   8.795   4.037  1.1795 -0.0163  2.6902
42790SOL     OW35419   7.699   2.889   9.489 -0.4149  0.2804 -0.3232
42790SOL    HW135420   7.607   2.915   9.497 -0.5894 -0.4882  0.3390
42790SOL    HW235421   7.720   2.849   9.573 -0.2829 -1.9967 -1.3516
42791SOL     OW35422   1.143   6.554   8.762 -0.0776  0.1962 -0.0267
42791SOL    HW135423   1.067   6.579   8.710 -1.1028  0.4337  1.5130
42791SOL    HW235424   1.209   6.527   8.698 -0.8816  1.5473 -1.4839
42792SOL     OW35425   3.415   7.347   5.833 -0.4409 -0.2882 -0.4469
42792SOL    HW135426   3.369   7.391   5.762  0.4087  1.8415  0.2640
42792SOL    HW235427   3.360   7.362   5.910 -0.0309 -0.2772 -0.1511
42793SOL     OW35428   9.754   6.168   2.836 -0.1771 -0.1307  0.2535
42793SOL    HW135429   9.762   6.121   2.752  0.1044  0.3004  0.0376
42793SOL    HW235430   9.843   6.197   2.855 -0.5340  1.3085 -0.1896
42794SOL     OW35431   5.032   0.825   9.512 -0.0762 -0.6353  0.5166
42794SOL    HW135432   5.111   0.804   9.562 -1.6685 -1.7929  2.7512
42794SOL    HW235433   5.061   0.884   9.443  2.8381 -1.6204  0.8022
42795SOL     OW35434   6.304  10.151   5.308 -0.3785 -0.4648  0.1898
42795SOL    HW135435   6.240  10.116   5.247  0.9304  0.8430 -2.0689
42795SOL    HW235436   6.252  10.192   5.377 -1.9199 -0.9869 -0.6249
42796SOL     OW35437  11.881   1.073  12.182 -0.1905 -0.3014  0.4143
42796SOL    HW135438  11.882   1.024  12.100  0.2416  1.4570 -0.6828
42796SOL    HW235439  11.789   1.094  12.197 -0.2239 -0.2052  0.0900
42797SOL     OW35440   2.097  11.842   4.109 -0.5024 -0.8574 -0.5419
42797SOL    HW135441   2.004  11.854   4.088 -0.9874 -2.3793  0.5582
42797SOL    HW235442   2.131  11.931   4.117 -2.2125 -0.2361  0.4442
42798SOL     OW35443   4.142   9.051   9.362  0.3611  0.0356 -0.0678
42798SOL    HW135444   4.221   9.042   9.309  1.3118  1.6318  1.0015
42798SOL    HW235445   4.173   9.045   9.452 -1.1873 -2.3264  0.4099
42799SOL     OW35446   2.248  10.617   1.281  0.3239  0.1922 -0.0187
42799SOL    HW135447   2.249  10.594   1.375  0.5870 -0.4265 -0.1637
42799SOL    HW235448   2.268  10.710   1.279 -1.0949  0.5301  0.6238
42800SOL     OW35449   2.216   1.421   6.588  0.1564 -0.0129 -0.0706
42800SOL    HW135450   2.217   1.484   6.661 -2.0973 -0.6033  0.5569
42800SOL    HW235451   2.307   1.394   6.579  1.2149  3.1643 -0.2617
42801SOL     OW35452   2.919   7.323   1.437 -0.7358  0.3382  0.3549
42801SOL    HW135453   2.852   7.389   1.450 -0.6573  0.2108  1.4882
42801SOL    HW235454   3.002   7.370   1.453 -0.5357  0.4854 -0.9853
42802SOL     OW35455   9.346   5.261   5.205  0.1177  0.3418 -0.2321
42802SOL    HW135456   9.336   5.342   5.254 -0.3426  0.5822 -0.7235
42802SOL    HW235457   9.353   5.288   5.113 -0.6616 -0.2053 -0.4621
42803SOL     OW35458   5.439  10.923   3.550  0.1227  0.4395 -0.5694
42803SOL    HW135459   5.531  10.900   3.539 -0.0939 -0.1205 -1.3507
42803SOL    HW235460   5.397  10.890   3.470 -1.1339 -1.4624  0.7692
42804SOL     OW35461   8.237   8.730   1.267  0.0062 -0.2867 -0.0899
42804SOL    HW135462   8.286   8.756   1.345  1.1935 -0.1286 -0.8618
42804SOL    HW235463   8.303   8.728   1.197 -1.3008  1.2058 -1.4533
42805SOL     OW35464   7.639   6.418   3.004 -0.0188 -0.0279 -0.0227
42805SOL    HW135465   7.581   6.345   3.024 -0.2513 -0.1741 -1.1476
42805SOL    HW235466   7.719   6.377   2.972  0.7012  0.1739  1.4603
42806SOL     OW35467   8.647   7.022   2.562  0.0330  0.2103 -0.0694
42806SOL    HW135468   8.619   6.935   2.534  0.5671 -1.0436  2.8983
42806SOL    HW235469   8.576   7.080   2.533 -0.4118 -1.1876 -1.9867
42807SOL     OW35470   4.142   5.511  10.982 -0.5748 -0.1700  0.1653
42807SOL    HW135471   4.093   5.580  10.937 -1.2273 -0.5605  0.2651
42807SOL    HW235472   4.220   5.498  10.928 -0.4805  0.5920  0.1060
42808SOL     OW35473   3.837   5.194   9.882  0.2866  0.0873 -0.2050
42808SOL    HW135474   3.925   5.205   9.848  0.9542  2.7840  2.0103
42808SOL    HW235475   3.848   5.146   9.964 -0.2200  0.6758  0.2252
42809SOL     OW35476   5.557   9.188  10.467 -0.2643  0.0852 -0.0732
42809SOL    HW135477   5.532   9.113  10.521  1.8412  0.2612  1.2483
42809SOL    HW235478   5.607   9.149  10.395  0.8690  0.1970  0.6382
42810SOL     OW35479   1.477  10.740   7.368 -0.5483 -0.2556  0.2950
42810SOL    HW135480   1.533  10.800   7.417 -2.0948  2.0944 -0.6328
42810SOL    HW235481   1.427  10.694   7.436 -0.1393  0.3111  1.0008
42811SOL     OW35482   6.484  11.723  11.911 -0.0254 -0.3915 -0.1689
42811SOL    HW135483   6.424  11.790  11.879  1.3123  0.3419 -1.2234
42811SOL    HW235484   6.553  11.772  11.955  1.1742 -1.0077 -1.2953
42812SOL     OW35485   2.792   6.834  11.218 -0.1312 -0.1479  0.0205
42812SOL    HW135486   2.800   6.870  11.307  0.1359 -0.7829  0.2643
42812SOL    HW235487   2.786   6.740  11.232 -0.5989 -0.2158 -0.6155
42813SOL     OW35488   2.498   3.824  12.362  0.8116  0.2574 -0.0844
42813SOL    HW135489   2.495   3.816  12.457 -0.8343  0.9882 -0.0491
42813SOL    HW235490   2.462   3.742  12.329  0.7115  0.2974 -0.0726
42814SOL     OW35491   0.020   7.070   1.970  0.1293  0.1695 -0.3325
42814SOL    HW135492  -0.048   7.128   2.004  0.4808 -0.0270  0.7565
42814SOL    HW235493  -0.023   7.021   1.900 -0.4234  1.0879 -0.6566
42815SOL     OW35494   5.371   8.052   1.697 -0.5966  0.1263 -0.2218
42815SOL    HW135495   5.437   8.096   1.644 -2.1602  2.5778 -0.2856
42815SOL    HW235496   5.397   8.069   1.787  1.0164 -2.4220 -0.1218
42816SOL     OW35497   3.119   0.103   6.070  0.8622  0.3576 -0.1815
42816SOL    HW135498   3.195   0.122   6.016  1.6603  0.3231  0.8903
42816SOL    HW235499   3.048   0.156   6.033  1.4040  0.4047 -1.1773
42817SOL     OW35500  10.016  11.593   9.701  0.1163 -0.3517  0.5634
42817SOL    HW135501  10.101  11.633   9.683  0.8486 -2.1970 -0.3184
42817SOL    HW235502  10.033  11.530   9.771 -0.0117 -2.2286 -1.0074
42818SOL     OW35503  11.520   4.615  11.893  0.1122 -0.3788  0.0876
42818SOL    HW135504  11.455   4.663  11.944  0.2793 -0.6082  0.5147
42818SOL    HW235505  11.479   4.530  11.876  0.3775 -0.5924  0.5180
42819SOL     OW35506   2.669   7.142   8.265  0.0132  0.2675 -0.3646
42819SOL    HW135507   2.684   7.061   8.315  0.9820 -0.4219 -1.7188
42819SOL    HW235508   2.673   7.115   8.174  1.0872  1.9679 -0.8653
42820SOL     OW35509   2.924   4.374   2.390 -0.5959 -0.4105 -0.4299
42820SOL    HW135510   2.878   4.430   2.453  0.0675 -0.3597  0.0213
42820SOL    HW235511   2.897   4.406   2.304  1.0504  1.7389 -0.2359
42821SOL     OW35512   3.424   0.077   8.083 -0.5669  0.2391  0.0566
42821SOL    HW135513   3.474   0.139   8.031  0.7649 -0.7750  0.0611
42821SOL    HW235514   3.387   0.016   8.019 -1.4964  0.7567  0.0850
42822SOL     OW35515  10.587   3.687   8.880  0.1348 -0.1913 -0.6865
42822SOL    HW135516  10.523   3.703   8.950  1.0605 -0.2292  0.1897
42822SOL    HW235517  10.671   3.714   8.917  0.4962  0.9180 -2.2031
42823SOL     OW35518   6.641   9.166   6.338  0.7414 -0.0472  0.2499
42823SOL    HW135519   6.715   9.113   6.369 -0.7853 -2.6450 -0.1898
42823SOL    HW235520   6.666   9.194   6.251  1.2154 -0.9577  0.0753
42824SOL     OW35521   7.600   7.563   6.681  0.0928  0.1464  0.0599
42824SOL    HW135522   7.643   7.561   6.767  0.2165  0.5464  0.0097
42824SOL    HW235523   7.649   7.500   6.628 -0.2737 -0.4491  0.4126
42825SOL     OW35524   3.404   5.855   0.599  0.1411  0.6044 -0.5522
42825SOL    HW135525   3.456   5.840   0.521  1.9597  0.1985  0.6647
42825SOL    HW235526   3.466   5.891   0.663 -1.0690  0.1201  0.9647
42826SOL     OW35527   4.566   6.829  12.279  0.2683 -0.3832 -0.1075
42826SOL    HW135528   4.586   6.790  12.364 -0.6490  0.0619  0.3220
42826SOL    HW235529   4.578   6.758  12.216 -1.5698 -1.4482  0.6853
42827SOL     OW35530  10.520  10.139  10.426 -0.0975  0.3011  0.2295
42827SOL    HW135531  10.591  10.194  10.393 -1.0147  1.7001  0.5002
42827SOL    HW235532  10.490  10.090  10.349  0.6938  0.1994 -0.0267
42828SOL     OW35533  10.838   0.097   3.804  0.6836  0.4402 -0.1071
42828SOL    HW135534  10.770   0.040   3.768  0.5148  0.1941  0.5980
42828SOL    HW235535  10.797   0.139   3.879  1.3258  0.2590  0.3511
42829SOL     OW35536   9.681   5.853   6.427  0.9694 -0.2016  0.1349
42829SOL    HW135537   9.739   5.906   6.482  0.4720 -1.0515  1.5129
42829SOL    HW235538   9.635   5.917   6.373  1.6509  0.6423  0.5297
42830SOL     OW35539   3.422   7.218   5.086 -0.1843  0.0422  0.4164
42830SOL    HW135540   3.329   7.204   5.066 -0.0766  0.6254 -0.5372
42830SOL    HW235541   3.432   7.185   5.175 -1.2300 -0.3565  0.4026
42831SOL     OW35542  10.828  10.326  11.695 -0.2108  0.3755 -0.0875
42831SOL    HW135543  10.839  10.263  11.624  1.0917 -1.1792  1.4184
42831SOL    HW235544  10.869  10.285  11.771 -0.8948  2.2925  1.4126
42832SOL     OW35545   8.728  11.245   9.467 -0.2298  0.2684 -0.5100
42832SOL    HW135546   8.715  11.163   9.513 -1.4564  1.6263  1.6956
42832SOL    HW235547   8.657  11.249   9.403 -0.8033  0.0835  0.1097
42833SOL     OW35548   0.644   3.717   1.706 -0.3434 -0.0415  0.3480
42833SOL    HW135549   0.720   3.735   1.650  0.1924  0.8918  1.3489
42833SOL    HW235550   0.568   3.733   1.649  0.1785  1.7688  0.0940
42834SOL     OW35551  10.645  11.530   8.798 -0.1520 -0.4802 -0.0428
42834SOL    HW135552  10.625  11.493   8.884 -1.5211 -1.1830 -0.6217
42834SOL    HW235553  10.697  11.608   8.817 -0.7635 -0.3954  1.4476
42835SOL     OW35554   7.891  12.357   3.743  0.3102  0.2621 -0.3178
42835SOL    HW135555   7.883  12.441   3.788 -0.6925  0.3362 -0.6082
42835SOL    HW235556   7.977  12.324   3.769  0.2289  0.8296  0.7356
42836SOL     OW35557  10.669   1.910   6.831  0.5013  0.4824 -0.0458
42836SOL    HW135558  10.720   1.931   6.909  1.0150  1.1939 -0.5599
42836SOL    HW235559  10.682   1.816   6.817  0.5277  0.3845  0.6341
42837SOL     OW35560   4.460   9.090   8.645  0.1527 -0.1777 -0.5850
42837SOL    HW135561   4.369   9.090   8.676  0.5979 -0.0531  0.8007
42837SOL    HW235562   4.503   9.159   8.696  0.8611  0.2569 -1.7456
42838SOL     OW35563   4.452   0.531   4.199 -0.2857  0.2164  0.3417
42838SOL    HW135564   4.402   0.449   4.202 -0.3895  0.3023  2.0072
42838SOL    HW235565   4.389   0.599   4.220  0.0504  0.5822  0.1821
42839SOL     OW35566   2.032  11.952   6.200  0.0340  0.3251  0.2068
42839SOL    HW135567   2.072  12.010   6.264 -0.9185 -0.5471  1.6672
42839SOL    HW235568   1.984  12.010   6.140  0.8471  1.1448  0.3394
42840SOL     OW35569   6.960   2.343   8.485  0.0854  0.0102 -0.8390
42840SOL    HW135570   6.898   2.385   8.545  0.5760 -0.1909 -0.1783
42840SOL    HW235571   7.045   2.381   8.507  0.3889 -0.6316 -0.8797
42841SOL     OW35572   5.998   8.929   0.942 -0.0424 -0.5059  0.2932
42841SOL    HW135573   6.057   9.005   0.946 -0.2587 -0.3522  0.6108
42841SOL    HW235574   5.923   8.960   0.891  1.1324 -1.3809 -2.1023
42842SOL     OW35575   0.969  10.457   5.707 -0.4888 -0.0169  0.1990
42842SOL    HW135576   0.933  10.383   5.756  0.6348 -1.8657 -1.5949
42842SOL    HW235577   0.896  10.488   5.653 -0.6058 -0.7664 -0.0821
42843SOL     OW35578   5.215   2.261   8.962  0.0041  0.1905 -0.1687
42843SOL    HW135579   5.270   2.305   9.026  1.2169 -1.0163 -0.3251
42843SOL    HW235580   5.156   2.206   9.015  0.5651 -0.3068 -0.0409
42844SOL     OW35581   8.974   9.835   9.481 -0.0571 -0.4959 -0.2193
42844SOL    HW135582   8.910   9.766   9.462 -1.4382  0.6903 -0.0152
42844SOL    HW235583   9.012   9.810   9.565 -0.0585 -1.3503 -0.4656
42845SOL     OW35584  11.025   8.235   2.158  0.7887  0.1559  0.1063
42845SOL    HW135585  11.110   8.193   2.172 -0.4882 -2.0880  1.9604
42845SOL    HW235586  11.027   8.313   2.213  1.3364 -0.3801  0.8626
42846SOL     OW35587   0.696   8.731  12.500  0.0671  0.1195 -0.1367
42846SOL    HW135588   0.668   8.673  12.570 -1.3078  0.1071 -0.6753
42846SOL    HW235589   0.617   8.778  12.474  0.4339 -0.1853 -1.9603
42847SOL     OW35590   4.792  10.969   2.822 -0.0788 -0.1114  0.1072
42847SOL    HW135591   4.879  10.994   2.791 -0.2792  0.7587  0.2260
42847SOL    HW235592   4.741  10.955   2.742 -0.1287  0.4503  0.0410
42848SOL     OW35593  10.376   5.876   1.571 -0.6191 -0.3398 -0.2575
42848SOL    HW135594  10.471   5.864   1.574 -0.6476 -0.5131 -0.0648
42848SOL    HW235595  10.343   5.802   1.519 -0.2889  1.7730 -3.7737
42849SOL     OW35596   5.776  11.032   9.268  0.0446 -0.0629 -0.7577
42849SOL    HW135597   5.852  11.011   9.213  2.5745  3.1213  1.1721
42849SOL    HW235598   5.791  10.985   9.350  0.0731  0.7193 -0.3005
42850SOL     OW35599  12.477   1.799   6.622 -0.2411  0.4217  0.4296
42850SOL    HW135600  12.397   1.750   6.636 -0.0437 -0.4257 -1.1500
42850SOL    HW235601  12.492   1.846   6.704 -1.8013 -0.1784  1.0851
42851SOL     OW35602  11.335   3.920   5.379 -0.1245  0.2197 -0.4122
42851SOL    HW135603  11.295   4.003   5.404  0.3382  0.2108  0.4042
42851SOL    HW235604  11.274   3.882   5.316 -2.0966 -0.3802  1.6953
42852SOL     OW35605   5.591   2.327   2.860 -0.0400 -0.4339 -0.0564
42852SOL    HW135606   5.515   2.270   2.854 -0.5964  0.2420  0.3434
42852SOL    HW235607   5.579   2.391   2.789  1.1519 -1.4489 -1.2231
42853SOL     OW35608   5.341   9.071  11.948  0.2141 -0.2578 -0.0574
42853SOL    HW135609   5.281   9.110  11.885 -1.3497 -0.3070  1.3367
42853SOL    HW235610   5.361   9.141  12.009  1.0035 -0.4483 -0.0850
42854SOL     OW35611   7.132   8.937   9.781  0.2648  0.8481  0.5983
42854SOL    HW135612   7.138   9.013   9.723  1.8122 -0.3554 -0.9335
42854SOL    HW235613   7.184   8.869   9.737 -2.5549 -1.7255  0.9115
42855SOL     OW35614   9.527   0.026   4.037 -0.8482 -0.0539  0.3114
42855SOL    HW135615   9.493   0.105   4.081  0.8361  1.4093 -0.8540
42855SOL    HW235616   9.468   0.013   3.962 -2.3905 -1.2289  1.6557
42856SOL     OW35617   8.380   7.966   9.434  0.5561 -0.0019 -0.2505
42856SOL    HW135618   8.321   7.972   9.508  0.4005 -0.8125 -0.3003
42856SOL    HW235619   8.393   7.872   9.420  0.0627  0.1046 -1.6488
42857SOL     OW35620   4.064   6.295   4.557 -0.1898 -0.2539  0.1761
42857SOL    HW135621   4.013   6.215   4.570 -1.1465  0.3399  0.1332
42857SOL    HW235622   4.155   6.265   4.557 -0.5616 -1.5296 -1.1422
42858SOL     OW35623  10.378   2.569   0.696  0.0208  0.2272  0.5404
42858SOL    HW135624  10.353   2.561   0.788  1.0656  0.5223  0.8619
42858SOL    HW235625  10.472   2.554   0.695 -0.1881 -1.1980 -0.6862
42859SOL     OW35626   0.878  11.529  11.069  0.3278  0.3817  0.0556
42859SOL    HW135627   0.906  11.473  11.142  0.7383  0.2135 -0.2252
42859SOL    HW235628   0.832  11.602  11.110  1.8395  1.0716  0.5898
42860SOL     OW35629   2.659  11.370   9.867 -0.2946 -0.8555 -0.5584
42860SOL    HW135630   2.717  11.434   9.826 -0.2396 -0.3965  0.2188
42860SOL    HW235631   2.585  11.422   9.898  0.0554 -1.0559  0.6624
42861SOL     OW35632   9.874   1.591   4.898 -0.4541 -0.3214  0.3931
42861SOL    HW135633   9.820   1.611   4.822  1.1090 -0.6639 -0.8601
42861SOL    HW235634   9.812   1.558   4.963 -1.6618 -1.4923 -1.2675
42862SOL     OW35635  12.380   7.693   3.204  0.1343 -0.2120 -0.3113
42862SOL    HW135636  12.399   7.769   3.258  3.5465 -1.3339  0.3230
42862SOL    HW235637  12.320   7.640   3.257 -1.5983  1.5564 -0.4124
42863SOL     OW35638   4.387  11.204   9.188  0.3897  0.1397 -0.0098
42863SOL    HW135639   4.334  11.169   9.259 -2.0284 -0.6680 -2.0323
42863SOL    HW235640   4.338  11.280   9.156 -0.0952 -1.0937 -2.4661
42864SOL     OW35641   9.165  12.269   6.984 -0.0991 -0.1702  0.8527
42864SOL    HW135642   9.191  12.294   6.896 -0.0404  0.9596  1.1738
42864SOL    HW235643   9.123  12.184   6.974 -2.0464  0.8899 -0.5884
42865SOL     OW35644  11.808  10.231   1.704 -0.3164  0.4972  0.2946
42865SOL    HW135645  11.750  10.163   1.671 -1.2234  0.9550  0.9113
42865SOL    HW235646  11.884  10.183   1.739 -0.0071 -0.0673 -1.0720
42866SOL     OW35647   2.018   4.117   8.243  0.2141 -0.3474 -0.2138
42866SOL    HW135648   2.039   4.134   8.151  0.4637  1.4679  0.1451
42866SOL    HW235649   2.101   4.126   8.289  0.2068 -1.8705  0.1373
42867SOL     OW35650   4.457   2.272   5.652 -0.3905  0.3220 -0.2482
42867SOL    HW135651   4.494   2.230   5.730 -0.7043  1.1165  0.3501
42867SOL    HW235652   4.373   2.306   5.681  0.0581  1.7933 -0.5498
42868SOL     OW35653  10.327  10.153   1.193 -0.1686  0.2288 -0.1775
42868SOL    HW135654  10.282  10.180   1.273 -2.1440 -1.3483 -0.6816
42868SOL    HW235655  10.346  10.060   1.206 -1.7481 -0.4173 -2.0081
42869SOL     OW35656   4.939   9.256   4.625 -0.4646 -0.2227 -0.6098
42869SOL    HW135657   4.849   9.239   4.595 -0.2198 -0.0510 -1.4706
42869SOL    HW235658   4.965   9.174   4.668 -1.1223 -0.1776 -0.1110
42870SOL     OW35659   6.325   6.342   5.613 -0.0422  0.1851  0.3488
42870SOL    HW135660   6.232   6.341   5.590 -0.3446 -1.2910  1.4594
42870SOL    HW235661   6.341   6.256   5.653  2.1463 -0.1778 -1.1116
42871SOL     OW35662   5.340   1.382   9.660  0.1152 -0.3210  0.5454
42871SOL    HW135663   5.384   1.450   9.610 -1.0124  1.4840  1.8980
42871SOL    HW235664   5.383   1.383   9.745 -0.5216 -0.6641  0.8762
42872SOL     OW35665   3.011   2.193   4.884 -0.1470  0.1373  0.2564
42872SOL    HW135666   2.924   2.159   4.866  1.4539 -3.6566 -1.5048
42872SOL    HW235667   3.025   2.259   4.816 -1.5679  0.6947  0.4832
42873SOL     OW35668   6.893   7.118   1.324 -0.3729  0.1469 -0.3977
42873SOL    HW135669   6.808   7.075   1.337  0.1886 -0.9844 -0.4236
42873SOL    HW235670   6.957   7.056   1.356  0.5318  0.5133 -1.4246
42874SOL     OW35671   8.688   1.429   4.685 -0.0466 -0.4048  0.3016
42874SOL    HW135672   8.733   1.355   4.644  0.6369  0.8411 -1.3576
42874SOL    HW235673   8.747   1.503   4.671 -1.9906  1.0455 -0.7615
42875SOL     OW35674  10.424   5.146  10.754  0.2777 -0.2451  0.3389
42875SOL    HW135675  10.478   5.219  10.725  0.5366 -0.2103  0.9049
42875SOL    HW235676  10.378   5.117  10.674  0.3835  0.3495  0.0587
42876SOL     OW35677   1.260   1.737  11.828  0.7917 -0.1093 -0.3358
42876SOL    HW135678   1.172   1.774  11.836  0.7801  0.1063 -1.3049
42876SOL    HW235679   1.248   1.643  11.847  0.5271  0.0734  0.4515
42877SOL     OW35680   2.542   3.994   8.933  0.1052 -0.4080 -0.5814
42877SOL    HW135681   2.620   4.018   8.882  0.4756  3.3023  1.4245
42877SOL    HW235682   2.498   4.077   8.950 -1.2083 -1.6884  3.1564
42878SOL     OW35683   7.108   5.237   2.625 -0.2804  0.0302 -0.3514
42878SOL    HW135684   7.123   5.259   2.717 -1.3456  1.8508 -0.5574
42878SOL    HW235685   7.107   5.142   2.623 -0.1169 -0.0491  1.5100
42879SOL     OW35686   0.996   7.937   7.316  0.0835  0.0482  0.7068
42879SOL    HW135687   0.996   8.004   7.384  2.6337 -0.2995  1.1352
42879SOL    HW235688   1.088   7.914   7.304 -0.5121 -1.7206 -1.0857
42880SOL     OW35689   6.225   9.015  10.007  0.3048  0.5635 -0.0004
42880SOL    HW135690   6.218   9.040   9.915 -0.8341  1.5522  0.3243
42880SOL    HW235691   6.143   8.970  10.027  0.6709  0.0870  0.4598
42881SOL     OW35692   0.317  10.074   7.282 -0.2788 -0.1152 -0.3171
42881SOL    HW135693   0.381  10.007   7.304 -0.7497 -0.2813  0.5846
42881SOL    HW235694   0.314  10.132   7.358 -1.1351 -0.0635 -0.3727
42882SOL     OW35695   2.281   7.830   6.876 -0.2972  0.3896  0.1309
42882SOL    HW135696   2.356   7.771   6.890 -0.8760 -0.7260 -1.1721
42882SOL    HW235697   2.240   7.837   6.962  1.9312  2.0091  1.1824
42883SOL     OW35698   8.902  11.530   2.637 -0.1580 -0.1007 -0.1155
42883SOL    HW135699   8.904  11.439   2.667 -0.2310 -0.0726 -0.0242
42883SOL    HW235700   8.922  11.524   2.543 -1.3098 -0.3227 -0.3643
42884SOL     OW35701   8.049   3.811   4.895  0.1324  0.9601  0.2530
42884SOL    HW135702   7.968   3.761   4.900  0.4563  0.2970 -0.6744
42884SOL    HW235703   8.024   3.894   4.855 -0.1277  0.8447  0.1753
42885SOL     OW35704   6.266   1.986   2.740  0.3500 -0.7260  0.3115
42885SOL    HW135705   6.218   1.944   2.669  1.3285 -0.3606 -0.6052
42885SOL    HW235706   6.352   1.943   2.739  1.2854  1.0547 -0.4806
42886SOL     OW35707   0.475  12.281   9.329 -0.1243  0.2046  0.0558
42886SOL    HW135708   0.464  12.186   9.337 -1.1817  0.1397 -1.7344
42886SOL    HW235709   0.462  12.299   9.236  0.5020  2.0659  0.2910
42887SOL     OW35710   0.061   6.399  10.842  0.1831 -0.1833 -0.1830
42887SOL    HW135711  -0.024   6.355  10.844  0.9355 -1.6906  1.4982
42887SOL    HW235712   0.041   6.491  10.858 -1.0588 -0.7257  1.7523
42888SOL     OW35713   6.955   8.879   8.737  0.0552  0.3745  0.5824
42888SOL    HW135714   6.875   8.926   8.761 -0.1794  0.2686  0.0387
42888SOL    HW235715   7.017   8.900   8.806 -0.1892  1.1170  0.5918
42889SOL     OW35716   7.602   6.834   6.781  0.1302 -0.3894  0.2540
42889SOL    HW135717   7.634   6.806   6.695 -1.2042 -1.1686 -0.0234
42889SOL    HW235718   7.612   6.929   6.781 -0.2029 -0.3386 -0.9228
42890SOL     OW35719   8.585   3.167   6.092 -0.1864 -0.1571  0.5477
42890SOL    HW135720   8.623   3.113   6.023 -0.2231  0.7704 -0.2252
42890SOL    HW235721   8.565   3.106   6.162  1.7786 -0.8253  0.5739
42891SOL     OW35722   3.197   7.610  11.795 -0.0858 -0.1454 -0.0285
42891SOL    HW135723   3.192   7.609  11.700 -0.7386 -1.6904 -0.0076
42891SOL    HW235724   3.114   7.648  11.823  0.8184  2.0343 -0.0431
42892SOL     OW35725   2.971  11.475   0.126 -0.1640 -0.2664  0.5935
42892SOL    HW135726   3.031  11.411   0.089 -0.4533 -1.7553  2.5360
42892SOL    HW235727   2.920  11.507   0.051  0.5558 -1.6928 -0.5385
42893SOL     OW35728   9.406   4.152  10.061  0.0338  0.6151  0.0189
42893SOL    HW135729   9.432   4.060  10.049 -0.2415  0.4121  0.9180
42893SOL    HW235730   9.330   4.148  10.120  0.7570  1.4962  1.0391
42894SOL     OW35731   9.452  10.432   8.703 -0.3287  0.0937 -0.5460
42894SOL    HW135732   9.386  10.496   8.678  0.7489  0.7593 -1.8275
42894SOL    HW235733   9.403  10.351   8.719 -1.6899  1.1664  0.9188
42895SOL     OW35734  12.455   9.588   5.745 -0.2053  0.5217  0.0831
42895SOL    HW135735  12.500   9.644   5.807 -1.8693  1.9089  0.1262
42895SOL    HW235736  12.450   9.640   5.665 -1.2383  0.2138 -0.0697
42896SOL     OW35737   6.266   9.041   8.577 -0.2660  0.0667 -0.4983
42896SOL    HW135738   6.207   8.999   8.639 -1.1570  0.5762 -0.9756
42896SOL    HW235739   6.265   9.133   8.602  0.0793  0.1290 -0.7101
42897SOL     OW35740   2.240   4.536   6.237  0.1411  0.1853  0.0147
42897SOL    HW135741   2.257   4.626   6.266  1.3872  0.6503 -2.0089
42897SOL    HW235742   2.148   4.538   6.209  0.1286  0.8010  0.0738
42898SOL     OW35743   7.413   6.610   2.879  0.3508 -0.3564 -0.4967
42898SOL    HW135744   7.439   6.604   2.787  1.4350 -0.8039 -0.1755
42898SOL    HW235745   7.464   6.542   2.923  0.8407  0.7224  0.6518
42899SOL     OW35746   0.757   9.101   2.078 -0.0322  0.0816  0.2409
42899SOL    HW135747   0.820   9.031   2.061 -0.2731 -0.3379  1.0313
42899SOL    HW235748   0.715   9.116   1.993 -2.1889 -2.9102  0.6404
42900SOL     OW35749  11.666  10.385   9.328 -0.6265  0.1223  0.3905
42900SOL    HW135750  11.631  10.381   9.239  0.3449  0.4780 -0.0228
42900SOL    HW235751  11.616  10.318   9.377 -0.8648 -0.3839 -0.5221
42901SOL     OW35752   0.017   6.712   8.500  0.1407 -0.4589  0.3921
42901SOL    HW135753   0.049   6.683   8.585 -1.1302  0.4429  1.2298
42901SOL    HW235754  -0.072   6.743   8.518 -0.3126 -0.6615 -1.3597
42902SOL     OW35755   3.893  10.506  10.545  0.3976  0.6913  0.8530
42902SOL    HW135756   3.986  10.526  10.555  0.5636  0.6792 -0.4954
42902SOL    HW235757   3.878  10.506  10.451 -0.6564 -0.7494  0.9800
42903SOL     OW35758  11.424   6.371   2.891 -0.1747 -0.1311  0.8590
42903SOL    HW135759  11.411   6.437   2.824 -0.1590  0.1781  1.1552
42903SOL    HW235760  11.438   6.421   2.972  0.2902 -0.4885  1.0069
42904SOL     OW35761   6.802  10.469  10.943 -0.3495  0.0202  0.2642
42904SOL    HW135762   6.788  10.394  11.000  1.3431 -0.1690  0.5056
42904SOL    HW235763   6.752  10.450  10.864 -0.6684 -0.9276  0.6821
42905SOL     OW35764  11.471   9.213   5.815  0.4159  0.4894  0.0767
42905SOL    HW135765  11.462   9.294   5.765  0.3909  0.2465 -0.3223
42905SOL    HW235766  11.473   9.144   5.748 -0.9955  0.0414  0.4487
42906SOL     OW35767   1.709   0.961   4.311  0.2228 -0.7351 -0.1740
42906SOL    HW135768   1.696   0.916   4.395 -0.8267  0.2185  0.2042
42906SOL    HW235769   1.800   0.990   4.313  0.4670 -1.5006  0.2340
42907SOL     OW35770   1.331   8.941   0.972  0.2436 -0.2503  0.1154
42907SOL    HW135771   1.262   8.879   0.995  1.5584 -0.9573  2.5205
42907SOL    HW235772   1.412   8.896   0.995  1.3580  1.6377  0.1099
42908SOL     OW35773  12.106   5.658  12.325  0.1943 -0.5009  0.2801
42908SOL    HW135774  12.189   5.700  12.299  0.4968 -0.0645  1.8399
42908SOL    HW235775  12.053   5.661  12.246  1.2196  0.3502 -0.4202
42909SOL     OW35776   2.992   3.665   2.188  0.3263  0.4960 -0.4092
42909SOL    HW135777   3.059   3.668   2.120  0.7804 -0.9144 -0.0533
42909SOL    HW235778   2.949   3.750   2.184 -0.6276 -0.0195 -3.4319
42910SOL     OW35779   9.647   8.362   6.965 -0.6075 -0.5588 -0.1858
42910SOL    HW135780   9.642   8.397   7.054 -0.1704 -0.9069 -0.0235
42910SOL    HW235781   9.557   8.337   6.944 -0.9586  0.7631 -0.3504
42911SOL     OW35782   0.418   5.746  11.020 -0.2560  0.1234 -0.3422
42911SOL    HW135783   0.365   5.809  11.069  2.3275  1.9293  0.3244
42911SOL    HW235784   0.425   5.783  10.932 -0.5551 -0.4182 -0.6046
42912SOL     OW35785   5.823   2.049   3.730  0.1221 -0.7279  0.2054
42912SOL    HW135786   5.750   2.033   3.790 -1.0025  0.5753 -0.7569
42912SOL    HW235787   5.805   2.135   3.692  2.2601 -0.2948  0.0466
42913SOL     OW35788   1.701   1.470   7.170  0.0127 -0.4047 -0.1878
42913SOL    HW135789   1.692   1.518   7.088  0.4527 -1.9434 -1.1609
42913SOL    HW235790   1.789   1.433   7.168 -0.5737 -1.9097  0.1536
42914SOL     OW35791   1.631   2.779   6.479 -0.4301 -0.2873  0.3122
42914SOL    HW135792   1.650   2.738   6.395 -0.3719 -1.6754  0.9806
42914SOL    HW235793   1.587   2.861   6.456 -1.1676 -1.0344 -1.0539
42915SOL     OW35794   3.984   0.993   1.576 -0.1878  0.3403  0.5600
42915SOL    HW135795   3.918   0.983   1.508  1.4617  0.0277 -1.0487
42915SOL    HW235796   4.052   1.048   1.536  0.6514  0.4762  2.0865
42916SOL     OW35797   8.371  12.331   2.314 -0.0330  0.1039 -0.3703
42916SOL    HW135798   8.343  12.363   2.228 -0.6311 -1.9057 -0.9952
42916SOL    HW235799   8.313  12.376   2.375  0.5884  1.7846 -0.9595
42917SOL     OW35800  12.163  12.102   7.322 -0.4097 -0.8576  0.0224
42917SOL    HW135801  12.164  12.066   7.234  0.1369  1.6384 -1.0829
42917SOL    HW235802  12.201  12.034   7.377  1.3057 -1.6469 -2.0319
42918SOL     OW35803   7.892   0.275   3.943 -0.5850 -0.1877 -0.0187
42918SOL    HW135804   7.825   0.252   4.008 -1.5834  0.0906 -0.9216
42918SOL    HW235805   7.884   0.369   3.932  0.8174  0.0510  0.7615
42919SOL     OW35806   4.837   8.510   4.839 -0.2714  0.1398  0.6532
42919SOL    HW135807   4.755   8.460   4.833 -1.2041  1.7680 -1.4047
42919SOL    HW235808   4.898   8.462   4.783 -0.1148 -0.5199  1.3781
42920SOL     OW35809  11.695   4.189   7.802 -0.3737  0.4914  0.2756
42920SOL    HW135810  11.690   4.108   7.854  1.2997  0.5861  0.6505
42920SOL    HW235811  11.729   4.254   7.863 -0.0985  1.0624 -0.4724
42921SOL     OW35812   8.044   1.889   8.596  0.0378  0.2044  0.6654
42921SOL    HW135813   8.056   1.795   8.590 -1.5767 -0.0275  0.6243
42921SOL    HW235814   7.961   1.906   8.552  0.8549  1.8105 -0.3431
42922SOL     OW35815   1.932   7.325   7.353 -0.2958  0.4307 -0.1296
42922SOL    HW135816   1.972   7.413   7.349 -1.2972  0.9673  0.9673
42922SOL    HW235817   1.910   7.305   7.263  0.8509  0.8746 -0.5326
42923SOL     OW35818  12.562  11.030   1.090  0.5031 -0.0219 -0.3727
42923SOL    HW135819  12.600  10.943   1.096 -2.1663 -1.3123 -0.4116
42923SOL    HW235820  12.556  11.061   1.180  0.2109 -0.4918 -0.2282
42924SOL     OW35821   3.769   7.548   7.475 -0.1048 -0.1093 -0.1378
42924SOL    HW135822   3.825   7.472   7.458  0.5416  0.2792  0.2343
42924SOL    HW235823   3.689   7.529   7.427  0.1209 -0.9426 -0.2049
42925SOL     OW35824   9.314   1.004  10.877 -0.3192  0.2952  0.1488
42925SOL    HW135825   9.303   1.070  10.945  3.8501  0.6439  0.7737
42925SOL    HW235826   9.314   1.054  10.795  0.0975  0.6882  0.3853
42926SOL     OW35827   7.462   8.880  12.396  0.3225  0.3183 -0.2949
42926SOL    HW135828   7.463   8.858  12.302  0.7898 -0.0107 -0.2169
42926SOL    HW235829   7.546   8.848  12.429  0.3985  0.9338  0.1266
42927SOL     OW35830   2.172   8.033   9.616 -0.5023 -0.4116  0.0691
42927SOL    HW135831   2.225   7.988   9.682 -1.1070 -1.0085  0.1492
42927SOL    HW235832   2.160   7.969   9.546  0.4808  0.3425 -0.8465
42928SOL     OW35833   9.990   3.377  12.042 -0.0037 -0.0161 -0.2486
42928SOL    HW135834  10.072   3.337  12.070  0.0235 -0.8190 -1.4204
42928SOL    HW235835   9.927   3.354  12.110  0.4154 -0.6199 -0.0615
42929SOL     OW35836   4.270   9.397  10.347  0.1970 -0.3377  0.0949
42929SOL    HW135837   4.349   9.449  10.339  0.3190 -0.4696  0.4252
42929SOL    HW235838   4.201   9.451  10.309  0.3139  0.0808  0.4798
42930SOL     OW35839   7.341   1.510  12.378 -0.1948 -0.4891 -0.1713
42930SOL    HW135840   7.347   1.441  12.313 -0.1705 -1.4510  0.8336
42930SOL    HW235841   7.304   1.584  12.331  1.3296 -0.6319 -1.6717
42931SOL     OW35842   5.554   0.793   0.009  0.0973  0.8109 -0.2727
42931SOL    HW135843   5.543   0.698   0.002 -0.0347  0.7156  0.9541
42931SOL    HW235844   5.485   0.830  -0.045 -1.1875  0.2045  0.9097
42932SOL     OW35845   0.958  10.286   1.867  0.1473 -0.6021 -0.1349
42932SOL    HW135846   0.878  10.333   1.891 -0.7160 -1.7898 -0.5938
42932SOL    HW235847   0.984  10.241   1.947 -0.9462 -2.0260 -0.5444
42933SOL     OW35848   1.786   8.039   2.845 -0.1460  0.5677  0.0830
42933SOL    HW135849   1.707   8.072   2.801  0.0958  0.4502 -0.4423
42933SOL    HW235850   1.802   7.954   2.805  0.5650  0.8306 -0.1940
42934SOL     OW35851   2.554   9.784   5.242  0.7742 -0.5101  0.2568
42934SOL    HW135852   2.606   9.707   5.265  0.1460 -1.3996 -1.2050
42934SOL    HW235853   2.501   9.757   5.167 -0.7680  0.8086  0.7984
42935SOL     OW35854  11.394   5.246   4.315 -0.2335 -0.3044  0.0161
42935SOL    HW135855  11.476   5.236   4.267 -0.8964 -1.0518 -0.9944
42935SOL    HW235856  11.386   5.165   4.366 -1.7927 -1.6504 -2.2176
42936SOL     OW35857   5.378   2.092   9.531 -0.0467  0.6713 -0.3752
42936SOL    HW135858   5.319   2.151   9.485  0.1087  1.1513  0.0263
42936SOL    HW235859   5.419   2.040   9.462 -0.5757  0.6719 -0.6914
42937SOL     OW35860   0.887   5.684   5.881 -0.5034 -0.7993  0.0917
42937SOL    HW135861   0.934   5.763   5.911 -0.1910  0.0013 -2.3129
42937SOL    HW235862   0.794   5.708   5.888 -0.4123 -0.2330 -0.5157
42938SOL     OW35863   5.500  11.097   0.839 -0.4243  0.2931 -0.4122
42938SOL    HW135864   5.460  11.012   0.821  0.3140  0.1589 -1.4835
42938SOL    HW235865   5.574  11.077   0.896 -0.4571  0.2695 -0.3773
42939SOL     OW35866   0.549   4.228   3.544 -0.0920  0.0546  0.0157
42939SOL    HW135867   0.642   4.215   3.526 -0.2857  0.3356 -1.2686
42939SOL    HW235868   0.531   4.318   3.515 -0.6435  0.2097  0.7877
42940SOL     OW35869   7.573   5.933   4.068  0.2514  0.2949  0.5627
42940SOL    HW135870   7.611   5.902   3.986  1.2172  0.5079  0.9116
42940SOL    HW235871   7.503   5.992   4.041 -0.3735 -0.7050 -0.0997
42941SOL     OW35872   0.777   8.034   1.334  0.4279  0.8088  0.1666
42941SOL    HW135873   0.827   7.996   1.407  1.9335  0.0544 -1.1721
42941SOL    HW235874   0.689   8.047   1.369  0.1700 -2.6478  1.1938
42942SOL     OW35875   7.519   1.755   6.235  0.1398 -0.0280 -0.0572
42942SOL    HW135876   7.564   1.687   6.285  0.4241 -0.6698 -1.1562
42942SOL    HW235877   7.495   1.713   6.153 -0.4010  0.9771 -0.4361
42943SOL     OW35878   2.637   4.950   8.429  0.1418  0.2911  0.1244
42943SOL    HW135879   2.574   4.914   8.367 -0.1645  2.1116 -0.6776
42943SOL    HW235880   2.702   4.880   8.439 -1.4265 -1.2375  0.2042
42944SOL     OW35881   7.121   7.551   9.723 -0.3036 -0.2044 -0.8806
42944SOL    HW135882   7.109   7.510   9.809  1.0796  1.7816  0.3559
42944SOL    HW235883   7.035   7.547   9.682 -0.8125 -1.9190  0.2377
42945SOL     OW35884   3.287  10.710   0.587  0.1158 -0.0283 -0.4265
42945SOL    HW135885   3.296  10.627   0.634 -0.6120 -0.5098 -1.0989
42945SOL    HW235886   3.198  10.708   0.552  0.9258 -0.1673 -2.6584
42946SOL     OW35887   6.216   3.871   0.746  0.4566 -0.2888 -0.0137
42946SOL    HW135888   6.268   3.889   0.667  0.7324  1.2327  0.4713
42946SOL    HW235889   6.252   3.930   0.812  0.3020 -1.5971  1.3057
42947SOL     OW35890   4.788  12.172   9.379  0.3298 -0.9599 -0.4773
42947SOL    HW135891   4.839  12.092   9.361  1.6408 -0.2921  0.1310
42947SOL    HW235892   4.841  12.242   9.342  1.2956  0.0619  2.5286
42948SOL     OW35893   8.524   7.036   8.379  0.5662 -0.4438 -0.7505
42948SOL    HW135894   8.558   6.966   8.324  0.4594 -2.1719  1.2693
42948SOL    HW235895   8.579   7.035   8.457 -0.6067  0.4825  0.1397
42949SOL     OW35896   5.871   9.288   5.638 -0.0451 -0.2384 -0.2272
42949SOL    HW135897   5.920   9.209   5.662 -0.8247 -0.7691 -0.3327
42949SOL    HW235898   5.788   9.255   5.604 -0.0171  0.6035 -1.1538
42950SOL     OW35899   2.501   0.171   2.545  0.9352 -0.4056 -0.3200
42950SOL    HW135900   2.547   0.216   2.474  1.2396  0.0496  0.1669
42950SOL    HW235901   2.420   0.221   2.557  0.3753 -1.0976 -1.0503
42951SOL     OW35902   3.696   5.776   7.132  0.2860 -0.1637  0.4174
42951SOL    HW135903   3.772   5.811   7.085 -0.5569  0.2707 -0.6676
42951SOL    HW235904   3.622   5.793   7.074 -0.3018 -3.0955  0.1597
42952SOL     OW35905   7.909   9.161   9.537 -0.2119 -0.5553  0.4449
42952SOL    HW135906   7.844   9.095   9.511 -0.9051  0.6678 -1.1148
42952SOL    HW235907   7.863   9.217   9.599 -0.1130 -0.6558  0.6079
42953SOL     OW35908   4.078   9.793   3.900 -0.0995 -0.4705 -0.0710
42953SOL    HW135909   4.133   9.868   3.878  0.4502 -1.0382 -0.6829
42953SOL    HW235910   4.117   9.756   3.979  1.1618 -1.5807 -1.1632
42954SOL     OW35911   4.715   4.588   4.990  0.1382 -0.4976  0.1023
42954SOL    HW135912   4.623   4.588   5.014 -0.0345  0.7229 -0.4829
42954SOL    HW235913   4.748   4.673   5.021  1.1395 -1.0316  0.5597
42955SOL     OW35914   7.306   1.540   3.610 -0.3933 -1.0970  0.3976
42955SOL    HW135915   7.270   1.493   3.685 -1.3022 -1.1562 -0.0643
42955SOL    HW235916   7.229   1.572   3.563  0.1313  2.2106  1.5070
42956SOL     OW35917   8.958   9.293   4.804  0.0997  0.3188  0.6890
42956SOL    HW135918   8.972   9.382   4.772 -0.0646 -0.0941 -0.6017
42956SOL    HW235919   8.864   9.286   4.816  0.0711  0.1987  0.4044
42957SOL     OW35920   4.059   7.589  11.596  0.4017 -0.3407 -0.3906
42957SOL    HW135921   4.064   7.607  11.690  1.0627 -0.1187 -0.4644
42957SOL    HW235922   3.965   7.588  11.577  0.2917  1.2106 -0.0252
42958SOL     OW35923   6.791  10.830   2.468  0.1616  0.0232  0.0385
42958SOL    HW135924   6.824  10.788   2.388  0.8216  0.0355  0.2989
42958SOL    HW235925   6.701  10.798   2.476 -0.4600  1.2506 -1.5616
42959SOL     OW35926   1.033   8.139   7.505 -0.5322 -0.0749  0.0987
42959SOL    HW135927   1.017   8.122   7.598 -1.6087 -1.7910 -0.3517
42959SOL    HW235928   0.977   8.215   7.485  0.7378  1.1958  1.0990
42960SOL     OW35929   0.462  10.827   0.742 -0.1614 -0.0323  0.1614
42960SOL    HW135930   0.516  10.804   0.666 -0.5104 -2.3132  0.5114
42960SOL    HW235931   0.522  10.828   0.815  0.0106  1.2159  0.0232
42961SOL     OW35932   7.362   8.656   8.251  0.7278 -0.8238  0.3463
42961SOL    HW135933   7.313   8.586   8.294 -0.8735  0.8371  1.4330
42961SOL    HW235934   7.318   8.668   8.167 -0.2064  0.0455  0.9315
42962SOL     OW35935  11.765   9.017   2.749  0.4767 -0.7021  0.9111
42962SOL    HW135936  11.687   8.966   2.769 -2.5223  2.0470 -2.4336
42962SOL    HW235937  11.782   9.068   2.828 -3.7792  1.5231  0.6819
42963SOL     OW35938   2.177   2.565   5.324  0.1868  0.1738 -0.3061
42963SOL    HW135939   2.091   2.523   5.317  0.3059 -0.0391 -0.5099
42963SOL    HW235940   2.230   2.504   5.375  0.5701 -0.2706 -1.2111
42964SOL     OW35941   3.481  10.638   5.663  0.4610 -0.3701  0.2668
42964SOL    HW135942   3.394  10.648   5.701  0.4003 -1.1015  0.3295
42964SOL    HW235943   3.478  10.687   5.581  0.8583  2.0052  1.5784
42965SOL     OW35944   2.725   1.123   5.453  0.4750  0.3913 -0.4322
42965SOL    HW135945   2.715   1.080   5.368  0.8213 -0.4537 -0.0533
42965SOL    HW235946   2.761   1.055   5.510 -1.2325  0.4678  0.8043
42966SOL     OW35947   6.306   4.232   0.411 -0.5341  0.0867  0.2377
42966SOL    HW135948   6.339   4.225   0.321  0.5175 -0.7759  0.6661
42966SOL    HW235949   6.289   4.326   0.423  0.9893  0.4639 -0.3011
42967SOL     OW35950   0.552  10.255   2.003 -0.0707  0.1874 -0.0484
42967SOL    HW135951   0.608  10.318   1.956 -0.6590  0.1799 -0.7837
42967SOL    HW235952   0.467  10.262   1.960 -0.2250 -0.9080  0.0476
42968SOL     OW35953   0.383   9.189   7.604 -0.9232  0.7229  0.3554
42968SOL    HW135954   0.295   9.193   7.567 -1.2739 -0.1023  1.0550
42968SOL    HW235955   0.370   9.159   7.694  0.0577  0.7670  0.5249
42969SOL     OW35956   7.778   7.466   2.157 -0.0795 -0.8296 -0.1823
42969SOL    HW135957   7.826   7.421   2.225  0.9390 -1.2317 -1.1339
42969SOL    HW235958   7.686   7.452   2.178  0.1652  0.4102  1.9747
42970SOL     OW35959  11.884   8.692   8.671 -0.7045 -0.4501  0.1467
42970SOL    HW135960  11.807   8.747   8.687  0.2414  0.9987 -0.1286
42970SOL    HW235961  11.925   8.683   8.757 -0.9568 -0.9095  0.2245
42971SOL     OW35962   0.115   4.456   9.769 -0.9604  0.4797  0.1524
42971SOL    HW135963   0.170   4.399   9.714  1.0022 -0.4733  2.8961
42971SOL    HW235964   0.149   4.544   9.753  0.4612  0.0667  0.7132
42972SOL     OW35965   8.474   5.538   6.448 -0.3897 -0.1071  0.4990
42972SOL    HW135966   8.422   5.562   6.525  0.9289  0.6835  1.1839
42972SOL    HW235967   8.564   5.560   6.473  0.1751 -0.6923 -0.9440
42973SOL     OW35968   3.827   5.763   7.549  0.2919 -0.2511  0.3368
42973SOL    HW135969   3.892   5.692   7.547  0.8138  0.2274  0.0760
42973SOL    HW235970   3.864   5.831   7.493 -0.6748 -0.1691 -0.2201
42974SOL     OW35971   3.953  11.432   3.129  0.3727 -0.5034 -0.1351
42974SOL    HW135972   4.022  11.393   3.077 -0.3353 -0.2291 -1.3073
42974SOL    HW235973   3.996  11.459   3.210  1.6255 -0.3604 -0.8284
42975SOL     OW35974   6.265   0.458   5.651 -0.2716 -0.4211 -0.1164
42975SOL    HW135975   6.181   0.438   5.610 -0.2645 -0.7766  0.0393
42975SOL    HW235976   6.292   0.376   5.692  1.1993 -0.9418 -1.9926
42976SOL     OW35977   1.860   0.956   5.878 -0.2995  0.1732 -0.3129
42976SOL    HW135978   1.778   0.958   5.828 -0.2336  0.8339 -0.4040
42976SOL    HW235979   1.833   0.944   5.969 -0.4754 -0.0270 -0.3912
42977SOL     OW35980   7.935   8.246   4.199 -0.8608 -0.3342 -0.0527
42977SOL    HW135981   7.862   8.307   4.204 -2.0059 -1.5621 -1.0919
42977SOL    HW235982   8.013   8.299   4.217 -1.9058  1.2119  0.0077
42978SOL     OW35983  10.291   9.360   6.063  0.4853 -0.1767 -0.3886
42978SOL    HW135984  10.366   9.307   6.090  0.6922  0.8107  1.1067
42978SOL    HW235985  10.327   9.424   6.002  0.8317  0.1542  0.1561
42979SOL     OW35986   2.916  11.074   5.532  0.4601  0.4158  0.3347
42979SOL    HW135987   2.822  11.093   5.528  0.5780  0.9907  0.1226
42979SOL    HW235988   2.942  11.106   5.618 -0.2876 -3.4204  2.1686
42980SOL     OW35989   6.277   6.045   4.803 -0.8992  0.0263  0.3737
42980SOL    HW135990   6.244   6.018   4.717 -0.5358  0.0392  0.2294
42980SOL    HW235991   6.370   6.023   4.801 -0.1325  2.8375 -0.4287
42981SOL     OW35992  10.334   2.267   0.499 -0.2855 -0.0324 -0.0614
42981SOL    HW135993  10.240   2.265   0.519 -0.3923  1.5670 -0.2880
42981SOL    HW235994  10.376   2.239   0.580 -0.9448 -0.3427  0.1827
42982SOL     OW35995  11.889   8.468   1.350  0.3189  0.5920 -0.0020
42982SOL    HW135996  11.817   8.520   1.384 -0.1579 -1.0528  1.6511
42982SOL    HW235997  11.863   8.377   1.365  0.7699 -0.2800 -3.4221
42983SOL     OW35998   4.392   5.099   9.232  0.3345  0.0051 -0.5548
42983SOL    HW135999   4.356   5.184   9.207 -0.4007 -0.7894 -2.3814
42983SOL    HW236000   4.393   5.100   9.327  0.1794  1.9796 -0.5366
42984SOL     OW36001   4.330   6.222   4.590 -0.1794  0.4932 -0.1633
42984SOL    HW136002   4.389   6.176   4.649 -0.3392 -1.1248 -1.1984
42984SOL    HW236003   4.387   6.255   4.520 -0.4267 -0.7756 -0.9861
42985SOL     OW36004  10.228  12.544   5.699 -0.0532 -0.3686 -0.1374
42985SOL    HW136005  10.168  12.470   5.690  0.4501 -1.0516  1.6976
42985SOL    HW236006  10.175  12.620   5.678 -0.6189 -1.2026 -1.9599
42986SOL     OW36007   1.177  10.633   7.936 -0.1204  0.0181  0.0091
42986SOL    HW136008   1.244  10.677   7.883 -0.2219  1.5040  1.0473
42986SOL    HW236009   1.196  10.660   8.026 -2.9321  1.6906  0.2105
42987SOL     OW36010   0.387   1.686   4.115 -0.3067  0.3654 -0.3643
42987SOL    HW136011   0.301   1.697   4.157 -0.3224 -1.2053  0.0578
42987SOL    HW236012   0.397   1.592   4.104  0.4604  0.6180 -2.3630
42988SOL     OW36013   2.344   0.496   9.547  0.2989 -0.0817 -0.6173
42988SOL    HW136014   2.295   0.421   9.582 -2.9082  2.9662  2.1790
42988SOL    HW236015   2.291   0.526   9.472 -0.3912  1.2413  0.3479
42989SOL     OW36016   0.132   3.741   9.943 -0.5290 -0.5897 -0.4106
42989SOL    HW136017   0.191   3.693  10.001  1.3521  0.5424 -1.2882
42989SOL    HW236018   0.089   3.806  10.000  4.1876  3.2524 -0.5631
42990SOL     OW36019   7.668   0.667   0.825  0.4429  0.0198 -0.1170
42990SOL    HW136020   7.738   0.725   0.796 -0.7129  1.4198 -0.2282
42990SOL    HW236021   7.587   0.714   0.802 -0.5234 -1.2500  0.5818
42991SOL     OW36022   1.529   8.762  10.411  0.2708 -0.0679  0.5062
42991SOL    HW136023   1.486   8.842  10.442  0.7167  0.4964 -0.2808
42991SOL    HW236024   1.601   8.794  10.356 -0.1097 -1.0266 -0.5770
42992SOL     OW36025   3.272  10.331  12.190  0.2292 -0.1751 -0.0549
42992SOL    HW136026   3.292  10.329  12.283 -1.3010  1.1506  0.3391
42992SOL    HW236027   3.356  10.348  12.147  0.8654 -0.3476  1.0958
42993SOL     OW36028  12.340   0.242   4.956  0.4613 -0.2648 -0.3406
42993SOL    HW136029  12.329   0.208   4.868  0.2674  0.7003 -0.6992
42993SOL    HW236030  12.292   0.325   4.956  0.2944 -0.3507  0.7247
42994SOL     OW36031  10.291   1.326   4.841 -0.0555 -0.3595 -0.3137
42994SOL    HW136032  10.228   1.303   4.909 -0.5211 -1.8508 -1.2005
42994SOL    HW236033  10.250   1.400   4.795  1.0823  1.9138  2.0600
42995SOL     OW36034   7.359   5.531  12.495 -0.3822 -0.4677 -0.6152
42995SOL    HW136035   7.336   5.597  12.560  3.4911  1.4632 -0.9337
42995SOL    HW236036   7.380   5.453  12.547  0.2045  0.2578  0.2746
42996SOL     OW36037   3.419   7.182   6.266 -0.3946  0.0752  0.6283
42996SOL    HW136038   3.374   7.193   6.350 -1.6252  2.6970 -0.2559
42996SOL    HW236039   3.506   7.218   6.279 -0.0286 -0.9525  1.1506
42997SOL     OW36040   6.535   5.218   0.880  0.5771 -0.3638  0.5810
42997SOL    HW136041   6.581   5.135   0.880  1.8114  0.3074  0.8424
42997SOL    HW236042   6.596   5.280   0.840 -1.5147 -0.2129 -2.7884
42998SOL     OW36043   5.188   5.221  11.262 -0.1533  0.3178 -0.1707
42998SOL    HW136044   5.111   5.246  11.313  0.1394 -0.1698  0.5125
42998SOL    HW236045   5.261   5.230  11.322 -0.0045 -1.9393  0.0521
42999SOL     OW36046   6.225   9.175   0.977  0.2437  0.4938 -0.9269
42999SOL    HW136047   6.186   9.240   1.035 -1.2577 -0.5099 -0.7439
42999SOL    HW236048   6.293   9.133   1.030 -0.5556  0.1471 -0.1552
43000SOL     OW36049  11.510   9.706  10.753  0.1472  0.0040 -0.0866
43000SOL    HW136050  11.507   9.801  10.742  1.0932  0.0149 -0.3875
43000SOL    HW236051  11.591   9.680  10.709  0.1242 -0.8896  0.3789
43001SOL     OW36052   8.529  12.509  11.761 -0.0362 -0.7540 -0.2733
43001SOL    HW136053   8.590  12.543  11.826 -1.1907 -0.2859  0.5878
43001SOL    HW236054   8.569  12.427  11.732  0.9585 -0.5005  0.3201
43002SOL     OW36055   6.796   9.211   4.720  0.0210 -0.0528  0.5715
43002SOL    HW136056   6.783   9.135   4.777  1.1567  0.4725  1.5657
43002SOL    HW236057   6.859   9.181   4.654 -0.2932 -0.2716  0.3711
43003SOL     OW36058  12.579  10.446  10.622  0.1070  0.2456 -0.2783
43003SOL    HW136059  12.594  10.480  10.710 -1.2154  1.0288 -0.3267
43003SOL    HW236060  12.666  10.447  10.581  0.9512 -1.2098  1.3468
43004SOL     OW36061   3.679   7.182   1.901  1.3264 -0.5726  0.2908
43004SOL    HW136062   3.745   7.120   1.869  1.0232 -1.1849  0.8157
43004SOL    HW236063   3.606   7.173   1.840  1.4705 -0.3765  0.0885
43005SOL     OW36064   9.412   9.878   4.264  0.5495  0.0894  0.1188
43005SOL    HW136065   9.451   9.924   4.339  2.1885 -1.2363  0.1236
43005SOL    HW236066   9.487   9.841   4.217 -0.6425 -1.7235 -0.4419
43006SOL     OW36067   4.356   2.973   3.537 -0.3877 -0.0913 -0.3705
43006SOL    HW136068   4.432   3.029   3.520  1.5987 -3.1363 -2.6172
43006SOL    HW236069   4.312   2.966   3.452 -0.7702 -1.5636 -0.0792
43007SOL     OW36070   9.286   7.986   8.539  0.2360  0.4528 -0.0411
43007SOL    HW136071   9.212   8.046   8.528  0.1521  0.8190  2.0490
43007SOL    HW236072   9.357   8.025   8.487 -0.8124  0.4467 -1.5351
43008SOL     OW36073   5.408   9.424   1.201  0.4444 -0.5795 -0.0982
43008SOL    HW136074   5.390   9.501   1.147 -0.3805 -1.6146 -1.3460
43008SOL    HW236075   5.488   9.387   1.163  0.3543 -0.8254 -0.0498
43009SOL     OW36076   3.449   5.181   2.600 -0.4511 -0.1965  0.0825
43009SOL    HW136077   3.524   5.170   2.541 -0.5443  0.4766 -0.1723
43009SOL    HW236078   3.419   5.092   2.617  0.7941 -0.5166  0.6967
43010SOL     OW36079   9.032  11.205   7.598 -0.2522 -0.1847 -0.4243
43010SOL    HW136080   9.104  11.267   7.594  0.1446 -0.5943  0.1847
43010SOL    HW236081   8.960  11.255   7.637  0.3785 -0.3777  1.0421
43011SOL     OW36082   9.308  10.648   3.627  0.1453 -0.0414 -0.0220
43011SOL    HW136083   9.247  10.651   3.701  0.1469  0.8528 -0.0532
43011SOL    HW236084   9.333  10.556   3.621 -1.8892 -0.6064 -0.5662
43012SOL     OW36085   2.235   5.784   6.200 -0.0427  0.4689 -0.0261
43012SOL    HW136086   2.214   5.788   6.107  1.2058 -0.0472 -0.3504
43012SOL    HW236087   2.170   5.842   6.242 -0.4986  0.8546 -1.2209
43013SOL     OW36088   0.539   8.116   3.995 -0.6173 -0.1062  0.0165
43013SOL    HW136089   0.596   8.104   3.919  0.6978  0.4014  0.8846
43013SOL    HW236090   0.453   8.136   3.958 -0.3062 -1.1419 -1.3338
43014SOL     OW36091  11.872   8.410   8.574 -0.3979  0.1904  0.1119
43014SOL    HW136092  11.966   8.400   8.561 -0.0164  0.0449  2.6151
43014SOL    HW236093  11.860   8.503   8.593 -0.6696  0.0807  0.4690
43015SOL     OW36094   5.882   9.400   7.747 -0.1137 -0.0476 -0.4377
43015SOL    HW136095   5.940   9.346   7.800  0.8913  0.6076 -0.8288
43015SOL    HW236096   5.933   9.420   7.668 -0.0188  2.2999  0.1425
43016SOL     OW36097  10.188   5.964  11.427 -0.2139 -0.1079  0.0913
43016SOL    HW136098  10.105   5.996  11.461  0.0672 -0.7718  1.4538
43016SOL    HW236099  10.227   6.039  11.383 -1.3427  0.3167 -0.1980
43017SOL     OW36100   1.240  12.324  10.659 -0.1682  0.2471 -0.1925
43017SOL    HW136101   1.324  12.319  10.612 -0.0670  1.2774 -0.1486
43017SOL    HW236102   1.263  12.366  10.743 -0.5183 -0.6359  0.3520
43018SOL     OW36103  11.552  11.546   4.876  0.2326 -0.5123 -0.2251
43018SOL    HW136104  11.617  11.573   4.942 -1.0673  0.3163  0.7710
43018SOL    HW236105  11.467  11.563   4.917 -0.6519 -2.2110 -1.2264
43019SOL     OW36106   2.821  11.696   9.170  0.5133  0.1033  0.1987
43019SOL    HW136107   2.766  11.651   9.106  0.5179 -1.9050  1.5246
43019SOL    HW236108   2.851  11.627   9.229  3.8557  1.2455  0.0003
43020SOL     OW36109   5.083   7.498   8.810 -0.1387 -0.3198  0.2423
43020SOL    HW136110   5.025   7.530   8.878  0.9273  0.0815  0.9884
43020SOL    HW236111   5.100   7.406   8.834 -0.8512 -0.5898 -0.2586
43021SOL     OW36112  12.476   1.550  11.849 -0.0419 -0.0391 -0.2134
43021SOL    HW136113  12.504   1.491  11.780 -0.6741  0.6304 -1.0738
43021SOL    HW236114  12.425   1.617  11.803  0.0663  0.7744  0.8200
43022SOL     OW36115   6.558   4.136   9.479  0.1219  0.1103  0.3836
43022SOL    HW136116   6.653   4.145   9.483  0.0764  0.6690  0.2213
43022SOL    HW236117   6.541   4.106   9.389 -0.0336  2.4356 -0.4238
43023SOL     OW36118  10.020   9.079   9.623 -0.1737  0.0140  0.1296
43023SOL    HW136119   9.961   9.090   9.549  0.7030  0.1729 -0.5684
43023SOL    HW236120   9.967   9.038   9.691 -0.9875 -0.1594 -0.5959
43024SOL     OW36121   2.940   7.380   0.806  0.5892 -0.3410  0.2824
43024SOL    HW136122   2.900   7.303   0.766  0.2218 -0.3969  0.7456
43024SOL    HW236123   2.912   7.453   0.750 -1.1979 -0.2164  1.2526
43025SOL     OW36124   6.300   2.005   2.398 -0.1996  0.2044 -0.4604
43025SOL    HW136125   6.317   2.024   2.306 -1.6193  2.0441 -0.4089
43025SOL    HW236126   6.246   1.926   2.396  0.8355 -0.5054 -1.1061
43026SOL     OW36127   8.195   0.822   1.481 -0.0384  0.0596  0.0984
43026SOL    HW136128   8.196   0.876   1.402 -0.5250 -0.3606 -0.1973
43026SOL    HW236129   8.189   0.885   1.553  0.8141  0.4618 -0.1725
43027SOL     OW36130   3.133  10.637   4.422  0.6476 -0.0591 -0.0426
43027SOL    HW136131   3.088  10.552   4.425 -1.9508  1.2222 -0.2268
43027SOL    HW236132   3.123  10.666   4.332  1.9200  0.2954 -0.0912
43028SOL     OW36133  12.327   4.583   9.030  0.1955  0.6705  0.4826
43028SOL    HW136134  12.233   4.576   9.047  0.4036 -0.5982  1.2220
43028SOL    HW236135  12.333   4.627   8.945 -1.0241  1.9836  1.0227
43029SOL     OW36136   6.262   1.203   4.630  0.4661 -0.1872  1.3726
43029SOL    HW136137   6.199   1.137   4.601  0.1267  0.7463 -0.1151
43029SOL    HW236138   6.347   1.162   4.615  0.2922  0.1059 -0.6508
43030SOL     OW36139  12.419  11.215   7.890 -0.5548 -0.1580  0.1844
43030SOL    HW136140  12.325  11.197   7.888 -0.6766  0.4036  0.5738
43030SOL    HW236141  12.425  11.305   7.922  0.1543 -0.5910  1.3230
43031SOL     OW36142   1.475   9.110  11.768  0.8002 -0.3011 -0.1602
43031SOL    HW136143   1.513   9.114  11.856  2.7369 -0.4458 -0.9587
43031SOL    HW236144   1.482   9.018  11.743 -2.3319 -0.8450  0.5651
43032SOL     OW36145  10.340   8.877   1.218 -0.1458 -0.4117 -0.2060
43032SOL    HW136146  10.331   8.968   1.187 -1.1320 -0.2184  0.6014
43032SOL    HW236147  10.283   8.827   1.160  0.2517 -0.4906 -0.5309
43033SOL     OW36148   8.227   0.698   0.326  0.8704  0.7783 -0.2258
43033SOL    HW136149   8.206   0.673   0.416  1.4475  2.2478  0.3552
43033SOL    HW236150   8.315   0.735   0.332  1.9318 -1.2698 -1.8304
43034SOL     OW36151   2.392   4.399  11.240  0.0530 -0.0677  0.3356
43034SOL    HW136152   2.370   4.379  11.331  1.7539 -1.7299  0.4290
43034SOL    HW236153   2.328   4.350  11.189 -0.1271 -0.1396  0.6246
43035SOL     OW36154   1.027   4.096   6.813  0.3939  0.4127 -0.2215
43035SOL    HW136155   1.098   4.152   6.843 -0.8590  1.4510  0.8872
43035SOL    HW236156   0.990   4.059   6.892 -0.1422 -0.3350 -0.8068
43036SOL     OW36157  11.076   5.650  10.154  0.0682  0.2199 -0.2345
43036SOL    HW136158  11.051   5.669  10.244  1.2464  1.7521 -0.1721
43036SOL    HW236159  11.023   5.575  10.128 -0.7406  0.1575  1.5198
43037SOL     OW36160   0.504   8.050   5.658 -0.2235 -0.0572 -0.3723
43037SOL    HW136161   0.513   8.064   5.752 -0.4635  0.0740 -0.3683
43037SOL    HW236162   0.460   8.129   5.626  1.0317  0.5035 -0.7951
43038SOL     OW36163   9.328  10.839   7.233  0.4162  0.0875  0.0818
43038SOL    HW136164   9.340  10.746   7.252 -0.5687  0.4180  2.6425
43038SOL    HW236165   9.417  10.875   7.234  0.5810 -0.2225  2.8204
43039SOL     OW36166  12.032  10.536  11.077 -0.0921  0.2454  0.2706
43039SOL    HW136167  12.030  10.493  11.163 -1.3490  2.0164  1.1909
43039SOL    HW236168  11.944  10.572  11.067 -0.3029 -0.7702 -2.2492
43040SOL     OW36169   7.873  12.021   6.297 -0.1569 -0.0496  0.5102
43040SOL    HW136170   7.783  12.048   6.277 -0.4977 -0.7379  1.0326
43040SOL    HW236171   7.893  12.065   6.380 -0.4467 -0.7766  0.9847
43041SOL     OW36172  10.894  11.868   3.075  0.5433  0.1408  0.1184
43041SOL    HW136173  10.925  11.948   3.031  0.5734  0.6214  0.9874
43041SOL    HW236174  10.875  11.807   3.004  2.0581  0.3614 -0.5046
43042SOL     OW36175  10.136   0.390   1.974  0.0011 -0.8373 -0.2738
43042SOL    HW136176  10.100   0.332   1.908 -2.2033 -0.4528  0.5061
43042SOL    HW236177  10.084   0.372   2.053 -0.5764  1.9100  0.0770
43043SOL     OW36178   5.118   7.211   2.239 -0.2520  0.3029 -0.0256
43043SOL    HW136179   5.136   7.173   2.153  0.1371 -0.1541  0.2490
43043SOL    HW236180   5.102   7.304   2.222  0.1927  0.2874 -0.5481
43044SOL     OW36181   7.939   2.056   0.912 -0.2722  0.0708  0.2006
43044SOL    HW136182   7.922   2.057   1.007  0.3201  0.1907  0.3077
43044SOL    HW236183   7.888   1.981   0.880  0.6818 -0.8951  0.8521
43045SOL     OW36184   9.692   2.769   1.899 -0.1240  0.8924  0.5565
43045SOL    HW136185   9.730   2.705   1.839 -2.4468  0.1274 -0.2208
43045SOL    HW236186   9.765   2.827   1.923  2.0187 -1.8584  1.1247
43046SOL     OW36187  12.068   2.404   1.211 -0.0290  0.5910  0.1626
43046SOL    HW136188  11.992   2.358   1.176 -0.9841  0.9728  1.6884
43046SOL    HW236189  12.079   2.479   1.152 -0.2894  0.0629 -0.5765
43047SOL     OW36190   9.671   1.918  11.532 -0.1583  0.2983  0.0037
43047SOL    HW136191   9.603   1.985  11.538  0.9883  1.4149  1.2165
43047SOL    HW236192   9.640   1.848  11.589 -0.8993  0.2047 -0.4940
43048SOL     OW36193   4.558   0.654   0.698 -0.0122  0.1681 -0.3316
43048SOL    HW136194   4.649   0.683   0.686  0.3622 -0.3540  1.0133
43048SOL    HW236195   4.512   0.686   0.620  0.6051  3.2531  0.4168
43049SOL     OW36196   8.094  10.458  11.732  0.1287  0.7016  0.7897
43049SOL    HW136197   8.118  10.399  11.661  0.1472  0.3432  1.0897
43049SOL    HW236198   8.032  10.519  11.693 -0.3144  0.1395  0.6145
43050SOL     OW36199   3.607   0.829  10.664  0.0235  0.1164  0.1615
43050SOL    HW136200   3.597   0.917  10.627  0.1396  0.4926  1.0083
43050SOL    HW236201   3.529   0.817  10.719 -0.0864 -0.3894 -0.0972
43051SOL     OW36202   3.762   3.045   3.591  0.0335  0.2444 -0.1142
43051SOL    HW136203   3.831   2.978   3.593  2.0888  2.1990 -1.1202
43051SOL    HW236204   3.721   3.035   3.505 -0.2070 -0.2037  0.0487
43052SOL     OW36205  10.333   1.891   4.579  0.3734  0.0915  0.2725
43052SOL    HW136206  10.281   1.938   4.513  0.0278  0.4620  0.8015
43052SOL    HW236207  10.286   1.904   4.661  1.2880  0.4304  0.7619
43053SOL     OW36208   1.004   5.293   3.273  0.3488  0.2299 -0.2594
43053SOL    HW136209   0.951   5.371   3.255 -0.1164 -0.0001  0.0814
43053SOL    HW236210   0.951   5.242   3.335  2.5818  1.8180  3.2523
43054SOL     OW36211   2.588   8.167  11.781  0.2458 -0.0169  0.1260
43054SOL    HW136212   2.669   8.204  11.744 -0.3581  0.2684 -0.9493
43054SOL    HW236213   2.619   8.094  11.835  1.2714  0.5163  0.3016
43055SOL     OW36214   8.882   2.779   8.334  0.0214  0.0033  0.3945
43055SOL    HW136215   8.920   2.828   8.262  1.6374 -0.2347  1.0409
43055SOL    HW236216   8.858   2.694   8.296 -0.2565  0.3106 -0.1169
43056SOL     OW36217   2.059   8.966   1.951 -0.2796 -0.5193  0.0714
43056SOL    HW136218   2.009   9.045   1.972  0.0227 -0.6113  1.2203
43056SOL    HW236219   2.093   8.982   1.863  2.4979  2.1167  1.4374
43057SOL     OW36220   6.311   4.528   8.426 -0.0115  0.3005  0.3181
43057SOL    HW136221   6.372   4.593   8.391  0.6453 -1.5272 -2.1965
43057SOL    HW236222   6.225   4.558   8.395  0.4761 -0.8779 -2.5381
43058SOL     OW36223   8.662   6.445  11.010  0.3342 -0.7768 -0.2204
43058SOL    HW136224   8.658   6.534  11.046  0.3230 -0.4124 -1.0911
43058SOL    HW236225   8.633   6.389  11.082  0.8929 -0.1320  0.5280
43059SOL     OW36226  10.197   7.125  10.473  0.0798 -0.2474  0.1190
43059SOL    HW136227  10.246   7.186  10.418  0.6300 -0.4091  0.4256
43059SOL    HW236228  10.111   7.119  10.431  0.0572  0.6487  0.0252
43060SOL     OW36229   1.615   9.730   3.872  0.2953  0.4438  0.7737
43060SOL    HW136230   1.618   9.747   3.777  1.4298  1.4634  0.9624
43060SOL    HW236231   1.673   9.655   3.884  0.6665  0.7198  0.7281
43061SOL     OW36232   5.388   8.414   4.200  0.0480  0.0759  0.6867
43061SOL    HW136233   5.375   8.331   4.154  0.0915 -0.1773  1.1229
43061SOL    HW236234   5.306   8.462   4.188  0.0088 -0.0465  0.4649
43062SOL     OW36235   0.176   1.541   9.641  1.0187  0.5395  0.2265
43062SOL    HW136236   0.095   1.590   9.650  0.2779 -0.9333  2.0076
43062SOL    HW236237   0.201   1.553   9.549 -2.3870 -0.7451 -0.9975
43063SOL     OW36238   1.599   8.657   3.842  0.3465  1.0489 -0.0277
43063SOL    HW136239   1.667   8.720   3.867  2.2580 -0.8909  0.0148
43063SOL    HW236240   1.518   8.694   3.877  1.9131  1.6836  3.3891
43064SOL     OW36241   6.167   0.736   1.696 -0.2450  0.5619 -0.1909
43064SOL    HW136242   6.073   0.752   1.705 -0.5218 -0.1804 -1.5013
43064SOL    HW236243   6.199   0.736   1.786 -1.8228 -0.9058  0.4493
43065SOL     OW36244   5.762   7.885   1.425 -0.2702 -0.1024 -0.3865
43065SOL    HW136245   5.848   7.896   1.465 -0.5858  2.2706 -0.2029
43065SOL    HW236246   5.730   7.802   1.459  2.0426 -1.2025 -0.6961
43066SOL     OW36247   3.703  12.357   9.727 -0.0661  0.2885  0.3080
43066SOL    HW136248   3.636  12.417   9.693 -0.0362 -0.9839 -2.2203
43066SOL    HW236249   3.653  12.285   9.765 -0.1189  0.0248 -0.2649
43067SOL     OW36250  12.127  11.934   6.954 -0.0760  0.6721 -0.4177
43067SOL    HW136251  12.175  11.914   7.034  0.2468  2.3159 -0.1523
43067SOL    HW236252  12.180  11.896   6.884 -0.0339 -0.2306  0.0857
43068SOL     OW36253   5.440  11.450   6.186 -0.4049 -0.3004 -0.8532
43068SOL    HW136254   5.353  11.447   6.224  0.5147 -0.7384  1.3460
43068SOL    HW236255   5.444  11.373   6.129 -0.8160 -1.4270  0.5811
43069SOL     OW36256   6.747   0.906   1.192  0.0262  0.4155  0.2129
43069SOL    HW136257   6.721   0.856   1.269  0.0087 -1.0468 -0.7062
43069SOL    HW236258   6.828   0.864   1.163 -1.0630 -0.4404 -1.7658
43070SOL     OW36259  10.395   6.691   9.190  0.3010  0.1601 -0.1501
43070SOL    HW136260  10.413   6.604   9.225 -1.6506  0.3163  1.4629
43070SOL    HW236261  10.435   6.691   9.103  0.3593 -2.3384 -0.1954
43071SOL     OW36262  11.084   8.471   8.075 -1.0224  0.0332 -0.0186
43071SOL    HW136263  11.017   8.431   8.129 -0.3530 -1.4474 -0.2511
43071SOL    HW236264  11.117   8.400   8.020  0.8314  0.6705  0.2024
43072SOL     OW36265   3.025   2.852  12.221  0.0764  0.1314 -0.0621
43072SOL    HW136266   2.991   2.821  12.305 -1.9133  2.1294 -0.0480
43072SOL    HW236267   3.042   2.772  12.171  0.6145 -1.0792  1.9470
43073SOL     OW36268   0.335   7.450   4.264 -0.4677  0.2047 -0.4329
43073SOL    HW136269   0.417   7.403   4.277 -1.2651 -1.2295 -0.2722
43073SOL    HW236270   0.351   7.538   4.295  0.6638 -0.3809  0.7018
43074SOL     OW36271   6.049  11.079   2.721 -0.1320  0.3257  0.3156
43074SOL    HW136272   6.138  11.100   2.693  0.1913 -1.3117  0.0329
43074SOL    HW236273   6.016  11.017   2.656 -0.5056 -1.1168  1.7937
43075SOL     OW36274   5.086   0.561  12.495 -0.6214 -0.2569 -0.3608
43075SOL    HW136275   5.107   0.559  12.588 -0.6425  1.2248 -0.3037
43075SOL    HW236276   5.155   0.510  12.453 -0.3362 -0.5131  0.4052
43076SOL     OW36277   1.579   9.140   6.799  1.0713  0.4943  0.0733
43076SOL    HW136278   1.584   9.044   6.801 -1.7298  0.2563 -0.4125
43076SOL    HW236279   1.648   9.169   6.859  1.9693 -1.7970  0.2614
43077SOL     OW36280   2.224  12.210   6.845 -0.3513  0.1747 -0.2023
43077SOL    HW136281   2.306  12.251   6.873 -0.9373  1.5756 -0.4544
43077SOL    HW236282   2.195  12.263   6.771 -1.1903 -0.6760 -0.5026
43078SOL     OW36283   7.749  12.343   8.235  0.3674  0.3666  0.5883
43078SOL    HW136284   7.704  12.275   8.286 -0.3020  0.7309  0.4922
43078SOL    HW236285   7.721  12.425   8.275  0.1804  0.6377 -0.0861
43079SOL     OW36286   6.388   2.231   5.178  0.1575 -0.6207 -0.6392
43079SOL    HW136287   6.352   2.189   5.256 -0.7977  1.2715 -0.0011
43079SOL    HW236288   6.362   2.322   5.186  3.8792  0.6330 -0.8865
43080SOL     OW36289   8.886   5.717  11.468  0.3939  0.6842  0.0719
43080SOL    HW136290   8.847   5.752  11.388 -2.3691 -3.1893 -0.5220
43080SOL    HW236291   8.954   5.657  11.438 -0.5231 -0.6470  0.5745
43081SOL     OW36292   9.321   1.364   9.369 -0.8107 -0.3700  0.2339
43081SOL    HW136293   9.299   1.303   9.300  0.5688 -0.0494 -0.5185
43081SOL    HW236294   9.395   1.414   9.335 -0.2752 -0.0139  1.8307
43082SOL     OW36295  10.425   1.951   1.776  0.3008  0.1323  0.2375
43082SOL    HW136296  10.455   2.042   1.778 -0.4973  0.4024  0.4645
43082SOL    HW236297  10.330   1.958   1.770  0.1341 -0.6740  1.5867
43083SOL     OW36298   8.942   0.817   4.618  0.0026  0.7604 -0.1445
43083SOL    HW136299   8.900   0.846   4.699 -0.2187 -0.2963  0.1363
43083SOL    HW236300   9.031   0.854   4.622 -0.7851  2.8341 -0.6422
43084SOL     OW36301  10.622   3.015  12.246  0.5111 -0.4119 -0.2357
43084SOL    HW136302  10.569   3.074  12.300  1.4002  0.2993 -0.1238
43084SOL    HW236303  10.565   2.940  12.230 -0.7645  0.6135 -0.6510
43085SOL     OW36304  11.953   0.747   4.243  0.7651 -0.7761  0.2593
43085SOL    HW136305  11.907   0.775   4.322  2.3511  1.5393  0.4377
43085SOL    HW236306  11.898   0.777   4.171 -0.2595 -2.1472  0.4253
43086SOL     OW36307   7.767   9.585   4.625  0.0792  0.4636 -0.7046
43086SOL    HW136308   7.732   9.634   4.551  2.1297  0.6760 -1.6052
43086SOL    HW236309   7.774   9.495   4.593  1.7571  0.7084 -1.1091
43087SOL     OW36310   0.779   0.576   5.415  0.1732 -0.5072  0.1686
43087SOL    HW136311   0.766   0.485   5.390  0.6115 -0.1631 -1.4545
43087SOL    HW236312   0.706   0.596   5.473 -0.1891 -1.7555  0.1751
43088SOL     OW36313  11.876   4.543  11.471  0.0905  0.3524  0.3622
43088SOL    HW136314  11.905   4.565  11.382  1.4653 -0.0381  0.6876
43088SOL    HW236315  11.956   4.546  11.524 -0.1751 -2.1514  1.0575
43089SOL     OW36316   5.633  11.596   8.371  0.4473 -0.5672 -0.3415
43089SOL    HW136317   5.697  11.526   8.386  0.2362 -0.0643  3.8512
43089SOL    HW236318   5.548  11.552   8.377  0.3123 -0.4206 -1.0194
43090SOL     OW36319   8.609  10.733   5.525 -0.0359  0.1102  0.3350
43090SOL    HW136320   8.561  10.706   5.447  0.3020  2.0514 -0.6200
43090SOL    HW236321   8.699  10.705   5.509 -0.0534  0.1255  0.2081
43091SOL     OW36322   8.236   9.784   2.164 -0.1040  0.5602  0.2785
43091SOL    HW136323   8.306   9.828   2.115 -1.0678  1.9891  0.1504
43091SOL    HW236324   8.184   9.741   2.096 -0.0121  0.4453  0.2790
43092SOL     OW36325   3.160  10.820  12.216 -0.1483  0.0248 -0.6118
43092SOL    HW136326   3.142  10.869  12.297 -1.3661 -0.3646 -0.6238
43092SOL    HW236327   3.246  10.851  12.188  0.5139 -0.1515  1.0729
43093SOL     OW36328   2.245  10.515   1.548  0.1639  0.1694  0.0757
43093SOL    HW136329   2.152  10.508   1.569  0.1533  0.3362  0.0869
43093SOL    HW236330   2.273  10.425   1.530  0.2189 -0.0151  0.9989
43094SOL     OW36331   0.989   4.232  11.640 -0.2661 -0.8488 -0.0078
43094SOL    HW136332   0.933   4.231  11.562 -1.8658  1.8793  1.0032
43094SOL    HW236333   1.062   4.290  11.617 -2.1588  2.2650  1.2861
43095SOL     OW36334  11.555   3.029  10.175 -0.5518  0.2435  0.2792
43095SOL    HW136335  11.647   3.012  10.194 -0.1788  0.4167 -1.2144
43095SOL    HW236336  11.511   2.944  10.189  0.0224 -0.1056 -0.0028
43096SOL     OW36337   6.065   8.825  10.376  0.3216  0.0653 -0.2811
43096SOL    HW136338   6.052   8.750  10.434  0.2325  0.4310  0.1803
43096SOL    HW236339   6.160   8.832  10.368  0.4828  1.5055  1.8567
43097SOL     OW36340   2.806   5.829   1.998  0.0620 -0.1224 -0.5389
43097SOL    HW136341   2.729   5.885   1.986 -0.4038 -0.6434  0.0170
43097SOL    HW236342   2.856   5.872   2.067 -0.8781 -1.0010  0.7112
43098SOL     OW36343   7.999   2.801   8.477 -0.5346  0.3180  0.0300
43098SOL    HW136344   8.087   2.802   8.513 -0.5967  1.1894  0.1926
43098SOL    HW236345   7.981   2.709   8.457 -0.0803 -0.0363  1.1863
43099SOL     OW36346   2.743   2.618   2.457  0.2205  0.0454 -0.0693
43099SOL    HW136347   2.832   2.651   2.470 -0.3239  1.2567  0.7838
43099SOL    HW236348   2.722   2.573   2.540 -0.2902  0.5920  0.1061
43100SOL     OW36349   1.655  10.273   2.691  0.0518 -0.0354 -0.1751
43100SOL    HW136350   1.618  10.185   2.684  1.1116 -0.3753 -1.9787
43100SOL    HW236351   1.744  10.264   2.657  0.1386  1.7604 -0.4945
43101SOL     OW36352   9.887   7.553  12.086  0.7185  0.0717  1.1145
43101SOL    HW136353   9.795   7.580  12.088  0.7121  0.0099  2.1310
43101SOL    HW236354   9.906   7.529  12.176  1.7931  0.2610  0.9428
43102SOL     OW36355   5.952   3.359   1.940 -0.2290 -1.0256  0.3926
43102SOL    HW136356   5.890   3.410   1.992 -1.2990 -1.8940  0.0285
43102SOL    HW236357   5.932   3.383   1.849  2.6809  1.6842  0.3140
43103SOL     OW36358  10.170   6.523  10.292 -0.7022  0.1125  0.1442
43103SOL    HW136359  10.129   6.559  10.371 -1.9474 -1.3734  0.2332
43103SOL    HW236360  10.260   6.504  10.318 -0.8375  0.4913  0.9246
43104SOL     OW36361   6.529   4.170  12.102 -0.5394  0.5046  0.4769
43104SOL    HW136362   6.607   4.132  12.143 -0.7039 -0.2659  0.0879
43104SOL    HW236363   6.552   4.176  12.009 -1.1311 -0.2167  0.2766
43105SOL     OW36364   7.034   3.365   1.746 -0.2730 -0.2048 -0.2642
43105SOL    HW136365   6.944   3.353   1.776  0.4345 -1.7592  1.3937
43105SOL    HW236366   7.047   3.460   1.747 -1.5388 -0.0205  0.5997
43106SOL     OW36367   0.741   9.650   5.030 -1.0521 -0.0851  0.0958
43106SOL    HW136368   0.682   9.587   4.989 -0.1809 -0.8737  0.0372
43106SOL    HW236369   0.828   9.613   5.020 -0.5048  1.1571  0.0204
43107SOL     OW36370   2.843   8.708  10.406 -0.4746 -0.5994  0.1293
43107SOL    HW136371   2.830   8.733  10.314 -0.1846  0.8850  0.4534
43107SOL    HW236372   2.919   8.760  10.433 -1.1545 -0.2625  1.4720
43108SOL     OW36373   8.795   3.516   8.762 -0.7378 -0.2439  0.0341
43108SOL    HW136374   8.836   3.484   8.843 -0.9244 -0.5573  0.0049
43108SOL    HW236375   8.847   3.476   8.692 -0.4989  0.1269 -0.0035
43109SOL     OW36376   3.674   9.946   2.108 -0.0114  0.4930  0.3432
43109SOL    HW136377   3.587   9.912   2.086  0.4458 -0.5732  0.1024
43109SOL    HW236378   3.709   9.978   2.025  0.1474  0.1484  0.2743
43110SOL     OW36379  11.550   7.109  10.347 -0.0980 -0.0919 -0.1597
43110SOL    HW136380  11.506   7.057  10.280 -0.3325  2.0181 -1.7180
43110SOL    HW236381  11.514   7.075  10.430 -3.5023  0.4037 -1.2591
43111SOL     OW36382   3.271   5.557   9.152  0.1094  0.4787 -0.1634
43111SOL    HW136383   3.258   5.576   9.245 -0.3257  0.0424 -0.1349
43111SOL    HW236384   3.365   5.542   9.144 -0.0383 -0.8854  0.4737
43112SOL     OW36385   2.291   1.593   9.778  0.1942 -0.9289 -0.1856
43112SOL    HW136386   2.257   1.627   9.695 -2.5957 -1.0781  0.8013
43112SOL    HW236387   2.333   1.668   9.820 -1.1575 -0.0367 -0.3858
43113SOL     OW36388   2.556   4.387   2.717 -0.4563  0.4227 -0.3742
43113SOL    HW136389   2.573   4.442   2.793  1.7693 -0.9295  0.2060
43113SOL    HW236390   2.634   4.397   2.662 -1.7313  0.8799 -2.2196
43114SOL     OW36391  10.821   9.001   2.139 -0.0287 -0.0459  0.4271
43114SOL    HW136392  10.820   8.906   2.129  0.8734  0.0880 -1.2295
43114SOL    HW236393  10.829   9.035   2.050 -1.0599  1.6204  0.9151
43115SOL     OW36394   8.339   0.843  11.401  0.3321  0.4764 -0.3426
43115SOL    HW136395   8.354   0.827  11.308  0.2724  1.6064 -0.5567
43115SOL    HW236396   8.244   0.852  11.409  0.2189 -0.7781  0.0414
43116SOL     OW36397   9.197   1.696   1.140 -0.1799 -0.0218 -0.5707
43116SOL    HW136398   9.225   1.665   1.227 -0.3277 -2.4614 -1.2960
43116SOL    HW236399   9.270   1.673   1.083 -0.8082 -0.0580 -1.3691
43117SOL     OW36400   6.787   9.529   0.325 -0.2105  0.2461  0.2757
43117SOL    HW136401   6.702   9.572   0.333 -0.3268 -0.1173  1.0633
43117SOL    HW236402   6.848   9.599   0.303 -0.8560  0.3740 -1.2305
43118SOL     OW36403   1.700  10.811   2.669  0.1131  0.0808 -0.2576
43118SOL    HW136404   1.788  10.772   2.669 -0.8967 -2.3166 -0.1677
43118SOL    HW236405   1.668  10.797   2.759 -0.4153  0.8641 -0.3140
43119SOL     OW36406  12.569   7.624  10.320  0.1248 -0.0934  0.0445
43119SOL    HW136407  12.566   7.572  10.239 -0.2262  0.2401 -0.1622
43119SOL    HW236408  12.478   7.643  10.340  0.2729  1.1391 -0.3453
43120SOL     OW36409   4.609  11.265   9.359 -0.2822  0.1318 -0.0075
43120SOL    HW136410   4.532  11.257   9.303 -0.1786  0.6845 -0.2350
43120SOL    HW236411   4.590  11.340   9.416  0.2355  0.5065 -0.3154
43121SOL     OW36412   2.843  11.990   3.181  0.3654 -0.2489 -0.6563
43121SOL    HW136413   2.792  12.025   3.107 -0.3449  0.4265  0.1231
43121SOL    HW236414   2.911  12.056   3.196  0.0640 -0.0284 -0.2533
43122SOL     OW36415   3.200   1.815   3.938  0.2519 -0.4365 -0.1485
43122SOL    HW136416   3.160   1.741   3.894  2.7825 -2.9089  1.3665
43122SOL    HW236417   3.134   1.845   4.001 -1.4733 -0.1365 -1.9999
43123SOL     OW36418   5.736   1.620   5.721  0.0071 -0.0379  0.1256
43123SOL    HW136419   5.800   1.667   5.668  2.2362 -2.1746  0.7225
43123SOL    HW236420   5.735   1.667   5.804 -0.1700  0.7412 -0.3039
43124SOL     OW36421  10.024   6.095   3.281 -0.1884  0.1458  0.7642
43124SOL    HW136422  10.026   6.027   3.214 -0.8741  1.0881 -0.2685
43124SOL    HW236423  10.062   6.055   3.359 -0.0593 -1.2177  0.0197
43125SOL     OW36424   0.236   3.083   7.612 -0.3279  0.0601  0.3081
43125SOL    HW136425   0.210   3.106   7.523  1.3109 -1.3563 -0.5870
43125SOL    HW236426   0.322   3.123   7.623  0.3908 -1.4683  0.4758
43126SOL     OW36427   2.497   0.691   9.670  0.7476  0.2608  0.2692
43126SOL    HW136428   2.463   0.620   9.616 -0.1349  1.7838 -1.2821
43126SOL    HW236429   2.421   0.748   9.685  1.7031  1.5852  0.2548
43127SOL     OW36430   0.353   8.715   5.455  0.1090 -0.0585  0.2130
43127SOL    HW136431   0.421   8.698   5.390 -0.2654 -0.1758 -0.1601
43127SOL    HW236432   0.374   8.657   5.528  0.1305 -0.4581 -0.1051
43128SOL     OW36433   1.952  11.666   2.775 -0.0468 -0.4637 -0.1264
43128SOL    HW136434   1.968  11.743   2.828  0.0362  0.2696 -1.1935
43128SOL    HW236435   2.002  11.596   2.818 -1.1259 -0.2561  1.5652
43129SOL     OW36436  10.616   9.483   6.247 -0.1614  0.6100  0.9689
43129SOL    HW136437  10.581   9.394   6.249  1.1612  0.0527  0.5691
43129SOL    HW236438  10.679   9.485   6.318 -0.5748  1.4205  1.3241
43130SOL     OW36439  10.103  12.064   0.327  0.1412  0.1504  0.2700
43130SOL    HW136440  10.095  12.018   0.243 -0.8984 -0.0093  0.4532
43130SOL    HW236441  10.014  12.068   0.361  0.4701  0.7816  1.0727
43131SOL     OW36442   9.366   2.488   9.082  0.3032  0.4582 -0.7093
43131SOL    HW136443   9.432   2.518   9.144  0.2715  1.2702 -1.0555
43131SOL    HW236444   9.378   2.544   9.005 -1.4790  1.3521 -0.3904
43132SOL     OW36445   4.899   3.075   4.525  0.5406 -0.3026 -0.0794
43132SOL    HW136446   4.889   2.983   4.501 -0.1778 -0.2869  0.1379
43132SOL    HW236447   4.991   3.094   4.508  0.1548 -0.3506 -2.6291
43133SOL     OW36448   2.330   7.177  11.894 -0.2922 -0.2854  0.2171
43133SOL    HW136449   2.378   7.095  11.906 -0.6277 -0.4667  0.3569
43133SOL    HW236450   2.332   7.219  11.979 -1.2224 -0.7663  0.4908
43134SOL     OW36451   4.993  11.713   3.311  0.5805 -0.4886 -0.2979
43134SOL    HW136452   4.965  11.701   3.220  0.4068  0.6410 -0.4107
43134SOL    HW236453   5.084  11.742   3.305  1.0386 -1.8035 -0.0316
43135SOL     OW36454   1.860   5.901   3.490 -0.3116 -0.2799 -0.4247
43135SOL    HW136455   1.950   5.898   3.458 -0.0499  0.7974  0.1387
43135SOL    HW236456   1.825   5.982   3.454 -1.3267 -1.0709 -1.2691
43136SOL     OW36457   4.537   6.156  10.462 -0.3145  0.0033 -0.5232
43136SOL    HW136458   4.606   6.100  10.427 -0.4041  0.5618 -1.6548
43136SOL    HW236459   4.488   6.184  10.384 -3.1477 -2.0681  0.3558
43137SOL     OW36460   5.356   0.441   5.033  0.2192  0.7119  0.1508
43137SOL    HW136461   5.375   0.532   5.053  0.8334  0.7921 -0.7512
43137SOL    HW236462   5.344   0.399   5.118  1.7018  1.2574  0.6410
43138SOL     OW36463   0.850  11.699   7.811  0.0625 -0.3448 -1.0406
43138SOL    HW136464   0.871  11.615   7.850 -1.2981  0.2706  1.2024
43138SOL    HW236465   0.784  11.679   7.745  0.5690 -1.1423 -1.3109
43139SOL     OW36466   2.137   6.806   1.651 -0.0030 -0.1603 -0.4528
43139SOL    HW136467   2.108   6.889   1.615  0.8886 -0.4924 -2.0180
43139SOL    HW236468   2.231   6.814   1.660 -0.2013  0.0056  2.1877
43140SOL     OW36469  10.818  10.029   5.654 -0.5496  0.3402  0.1723
43140SOL    HW136470  10.760  10.041   5.580  0.1559  1.5000 -0.2326
43140SOL    HW236471  10.820   9.935   5.670 -0.6460  0.0701 -1.3347
43141SOL     OW36472   3.587   1.069  10.539 -0.4530  0.4385  0.1663
43141SOL    HW136473   3.578   1.078  10.444 -0.1020  0.9437  0.1773
43141SOL    HW236474   3.592   1.159  10.572 -3.0336  0.3761  0.9271
43142SOL     OW36475  12.576   9.524   8.693 -0.4133 -0.0133 -0.1598
43142SOL    HW136476  12.502   9.492   8.642 -2.6218  1.3032  1.9927
43142SOL    HW236477  12.611   9.445   8.734 -1.5427 -0.5248 -0.1262
43143SOL     OW36478   9.018   0.460   5.768  0.3179  0.1368 -0.5993
43143SOL    HW136479   8.934   0.479   5.809  0.7051 -0.8419  0.7313
43143SOL    HW236480   8.998   0.451   5.675 -1.5974 -2.8072 -0.0388
43144SOL     OW36481   5.715   5.908   0.866 -0.1086 -0.2845  0.1629
43144SOL    HW136482   5.661   5.963   0.923  1.4885 -0.3838  1.8497
43144SOL    HW236483   5.761   5.850   0.925  1.3862 -0.6262 -1.2726
43145SOL     OW36484   5.328   4.686   7.898 -0.0625 -0.3328 -0.0633
43145SOL    HW136485   5.247   4.737   7.903 -0.8490 -1.5111 -0.5396
43145SOL    HW236486   5.351   4.668   7.990 -2.1710 -2.7716  0.0907
43146SOL     OW36487   0.566   9.590   2.936  0.0923  0.1885 -0.3896
43146SOL    HW136488   0.489   9.538   2.910  1.6947 -1.6531 -1.8086
43146SOL    HW236489   0.567   9.585   3.032 -0.5717 -1.2914 -0.4279
43147SOL     OW36490  10.867   8.454   7.635 -0.2081 -0.2812 -0.3436
43147SOL    HW136491  10.859   8.454   7.730 -0.6553  0.5047 -0.3780
43147SOL    HW236492  10.910   8.537   7.614  0.1405 -0.5766 -0.8091
43148SOL     OW36493   5.429   9.812   1.390 -0.0897  0.2019  0.2479
43148SOL    HW136494   5.395   9.894   1.425  1.9672  0.5489  1.6341
43148SOL    HW236495   5.477   9.773   1.463  2.1741 -0.3507 -1.4115
43149SOL     OW36496  10.336   5.828   3.202 -0.4879 -0.2625 -0.8651
43149SOL    HW136497  10.337   5.922   3.185 -0.5800 -0.5290 -2.4416
43149SOL    HW236498  10.414   5.794   3.158 -0.4826 -0.9429 -0.3554
43150SOL     OW36499   8.832   1.476   5.128 -0.1896 -0.3639  0.1310
43150SOL    HW136500   8.760   1.415   5.114 -0.4868 -0.0038  0.0506
43150SOL    HW236501   8.865   1.456   5.215 -0.8006 -0.1191  0.4265
43151SOL     OW36502   7.551   8.800   4.059 -0.3151 -0.1713  0.1440
43151SOL    HW136503   7.528   8.784   3.967 -0.4971 -0.4251  0.2319
43151SOL    HW236504   7.503   8.879   4.083 -0.2766 -0.1113  0.0239
43152SOL     OW36505   1.198  10.109   0.606 -0.3498 -0.1236 -0.0752
43152SOL    HW136506   1.163  10.021   0.593 -0.2413 -0.2244  0.2926
43152SOL    HW236507   1.155  10.162   0.540  1.6752 -1.0023 -2.2356
43153SOL     OW36508   8.371   5.243   0.090 -0.4285 -0.1912  0.1115
43153SOL    HW136509   8.304   5.234   0.023 -0.3571  2.5310 -0.4372
43153SOL    HW236510   8.332   5.299   0.157  0.4155 -0.7296  1.1022
43154SOL     OW36511   1.751   5.306   5.158 -0.1529  0.5763 -0.2006
43154SOL    HW136512   1.661   5.289   5.132  0.3496 -2.0641 -0.4543
43154SOL    HW236513   1.796   5.328   5.077 -0.0551 -0.6414 -0.4858
43155SOL     OW36514   1.099   6.738   6.805  0.6664 -0.3149  0.3543
43155SOL    HW136515   1.081   6.832   6.798  1.6242 -0.2575 -2.0473
43155SOL    HW236516   1.192   6.733   6.827  0.6846 -0.7122  0.1946
43156SOL     OW36517  11.418   7.885   1.342  0.2689  0.4074 -0.2422
43156SOL    HW136518  11.444   7.837   1.264 -0.6480 -0.3474 -0.1144
43156SOL    HW236519  11.383   7.818   1.401  1.8151  0.8230  1.2163
43157SOL     OW36520   1.469   0.676   0.036  0.0018 -0.3440 -0.5599
43157SOL    HW136521   1.482   0.720   0.120 -1.9288  0.2644 -0.5308
43157SOL    HW236522   1.509   0.735  -0.028  1.4256 -0.7832 -0.1039
43158SOL     OW36523   9.599   5.024   0.810  0.2289 -0.0757  0.1773
43158SOL    HW136524   9.638   4.979   0.735  0.1049  0.4338 -0.1933
43158SOL    HW236525   9.657   5.097   0.827  0.5810 -0.5269  0.9610
43159SOL     OW36526  11.578   1.881  12.121 -0.3093  0.0970  0.0242
43159SOL    HW136527  11.577   1.893  12.216 -0.7399 -1.8057  0.3102
43159SOL    HW236528  11.500   1.927  12.090 -0.4298  0.3186  0.6454
43160SOL     OW36529   2.075   3.012   7.384  0.8303  0.4376 -0.0244
43160SOL    HW136530   2.128   3.092   7.382  2.2625 -0.4850 -0.9124
43160SOL    HW236531   2.137   2.942   7.365 -0.5863 -0.7824 -0.3470
43161SOL     OW36532   5.401   8.172   4.942 -0.2546  0.2221 -0.1141
43161SOL    HW136533   5.474   8.203   4.996 -0.8972  0.5648  0.5777
43161SOL    HW236534   5.330   8.158   5.005 -0.3776 -1.4365 -0.5684
43162SOL     OW36535   2.434   2.134   2.613 -0.3086 -0.2124 -0.5237
43162SOL    HW136536   2.449   2.185   2.534  0.0825 -1.7536 -1.4904
43162SOL    HW236537   2.409   2.198   2.679 -0.6310  1.1189 -1.8899
43163SOL     OW36538  12.107   0.134   0.897  0.4956  0.2747 -0.1325
43163SOL    HW136539  12.166   0.191   0.945  1.3800 -1.2826  0.7091
43163SOL    HW236540  12.148   0.122   0.812  0.4467  0.6563 -0.2113
43164SOL     OW36541   3.610   2.091   0.771 -0.0587 -0.2948  0.0146
43164SOL    HW136542   3.662   2.157   0.816 -1.1705  0.8442 -0.2963
43164SOL    HW236543   3.599   2.125   0.682 -1.5208 -0.3589  0.1438
43165SOL     OW36544   3.469   8.378   5.822  0.2379 -0.4476 -0.1131
43165SOL    HW136545   3.442   8.440   5.889 -0.8052 -1.5896  0.5779
43165SOL    HW236546   3.501   8.302   5.872 -0.8537 -1.4416 -0.8533
43166SOL     OW36547  11.401   9.743   6.219 -0.2702  0.7431  0.0971
43166SOL    HW136548  11.381   9.734   6.312  1.1870  2.8135  0.6818
43166SOL    HW236549  11.489   9.781   6.217 -0.5936  1.5228 -2.0989
43167SOL     OW36550   6.523   7.698   1.204 -0.4170  0.1959  0.3882
43167SOL    HW136551   6.475   7.634   1.256 -0.6603  0.6127  0.6763
43167SOL    HW236552   6.496   7.679   1.113 -0.1567 -0.3855  0.4290
43168SOL     OW36553   5.366   9.742  10.127  0.4373  0.2071 -0.3669
43168SOL    HW136554   5.327   9.827  10.106 -1.6998 -0.8017 -0.7337
43168SOL    HW236555   5.393   9.750  10.219 -0.2726  1.1043 -0.2203
43169SOL     OW36556   3.523  11.986   2.288  0.1813 -0.3083  0.4155
43169SOL    HW136557   3.437  11.961   2.256 -0.5509  1.4060  0.9344
43169SOL    HW236558   3.508  12.019   2.376  1.3025  0.3773  0.3777
43170SOL     OW36559  11.877  11.309   0.361  0.0707  0.0864 -0.2049
43170SOL    HW136560  11.838  11.357   0.288 -1.7007 -0.9175  0.0413
43170SOL    HW236561  11.870  11.369   0.436  3.2434  1.7271 -1.0484
43171SOL     OW36562   9.213   1.455   1.667 -0.6715  0.0475 -0.1064
43171SOL    HW136563   9.306   1.467   1.647 -0.3115 -0.1421  1.3322
43171SOL    HW236564   9.171   1.445   1.582  0.3579  1.9169 -0.8915
43172SOL     OW36565   6.276   7.900   4.839 -0.1674 -0.0066  0.4670
43172SOL    HW136566   6.273   7.863   4.750  0.1207 -1.1315  0.9055
43172SOL    HW236567   6.353   7.956   4.839  0.1098 -0.3835  0.1435
43173SOL     OW36568   1.124  11.078   9.506  0.1465 -0.0107  0.0534
43173SOL    HW136569   1.033  11.052   9.519  0.3723 -1.5706 -1.1830
43173SOL    HW236570   1.119  11.167   9.472 -0.9735 -0.3064 -0.6046
43174SOL     OW36571   2.642   5.842   0.840  0.3780 -0.4942 -0.4794
43174SOL    HW136572   2.688   5.876   0.916  0.6284 -1.0077 -0.3938
43174SOL    HW236573   2.582   5.912   0.814  1.3375  0.2655 -0.7010
43175SOL     OW36574   6.227  11.933   9.419  0.0952 -0.4521  0.0280
43175SOL    HW136575   6.258  11.844   9.402 -0.4289 -0.2073 -2.5135
43175SOL    HW236576   6.131  11.925   9.417  0.0509  0.2753 -0.8474
43176SOL     OW36577   0.774  11.725   5.789  0.2912 -0.3886  0.2888
43176SOL    HW136578   0.783  11.631   5.771  0.5372 -0.0618 -1.5321
43176SOL    HW236579   0.834  11.767   5.726  1.3126  0.9394  2.0616
43177SOL     OW36580  12.584   7.677  11.905  0.1265  0.1215  0.3116
43177SOL    HW136581  12.621   7.763  11.883  1.2962 -0.7200 -1.1471
43177SOL    HW236582  12.646   7.614  11.869 -2.4626 -1.3654 -1.9309
43178SOL     OW36583   5.795  10.994   1.399  0.6565  0.1836  0.0205
43178SOL    HW136584   5.734  10.947   1.455  1.6862 -1.7146 -0.3518
43178SOL    HW236585   5.764  11.084   1.399 -0.7069 -0.2395  1.7527
43179SOL     OW36586   3.086   1.762  10.049 -0.1522 -0.3629 -0.6862
43179SOL    HW136587   3.156   1.702  10.022  0.3864 -0.1381  0.1810
43179SOL    HW236588   3.036   1.713  10.113 -0.3317 -0.2442 -0.7356
43180SOL     OW36589   9.222   8.564   4.116 -0.8712  0.3500 -0.3530
43180SOL    HW136590   9.148   8.618   4.088 -0.6728 -0.5285 -2.8590
43180SOL    HW236591   9.260   8.532   4.034 -1.2532 -3.9351  0.8911
43181SOL     OW36592   1.925   2.618   2.184  0.0294  0.0709  0.5004
43181SOL    HW136593   1.980   2.551   2.143  1.3709  2.2584 -1.5259
43181SOL    HW236594   1.882   2.662   2.111 -1.5313  0.8341  1.8351
43182SOL     OW36595   8.994   0.400   4.074 -0.1415  0.1741 -0.0974
43182SOL    HW136596   9.078   0.358   4.057 -0.2187  0.4077 -1.1081
43182SOL    HW236597   9.005   0.490   4.042 -0.3819  0.5710  0.8930
43183SOL     OW36598   9.820  11.789  10.910 -0.0482 -0.0573  0.1523
43183SOL    HW136599   9.836  11.845  10.986  2.0214 -2.3577  1.5351
43183SOL    HW236600   9.748  11.732  10.937 -0.5763  0.3538 -0.3619
43184SOL     OW36601   3.903   7.868   9.854 -0.2004  0.2629 -0.1331
43184SOL    HW136602   3.893   7.940   9.918 -0.5139 -0.2362  0.3935
43184SOL    HW236603   3.815   7.857   9.817 -0.6941 -1.2709  1.3640
43185SOL     OW36604  10.726   6.701   9.702  0.5310 -0.1923 -0.2394
43185SOL    HW136605  10.706   6.682   9.610 -0.5981 -0.9317  0.1349
43185SOL    HW236606  10.641   6.700   9.745  1.0580  0.1195  0.8251
43186SOL     OW36607   1.349  10.910  10.691  0.1620 -0.0180  0.6120
43186SOL    HW136608   1.421  10.916  10.629  1.5878 -2.6862  1.8501
43186SOL    HW236609   1.379  10.958  10.768 -0.7837  1.5767  0.0451
43187SOL     OW36610   9.943   5.691   2.336 -0.4103 -0.0728  0.0037
43187SOL    HW136611  10.004   5.650   2.275  1.3644  1.2001  0.8380
43187SOL    HW236612   9.915   5.771   2.292  0.1358  0.3709  0.4518
43188SOL     OW36613   9.017   0.737   3.734 -0.6314  0.4009 -0.2873
43188SOL    HW136614   9.111   0.735   3.715 -1.1033 -0.1078 -2.8750
43188SOL    HW236615   8.991   0.828   3.719 -0.7964  0.2367 -1.0427
43189SOL     OW36616   3.975   1.668   6.471 -0.1336  0.5237  0.3581
43189SOL    HW136617   3.920   1.737   6.434  1.5510  0.5706 -2.3259
43189SOL    HW236618   3.985   1.605   6.399  2.0669 -0.2073  1.2328
43190SOL     OW36619  10.370   8.233  11.084 -0.2032  0.3090  0.2446
43190SOL    HW136620  10.405   8.203  11.168 -0.0425  0.5410  0.2599
43190SOL    HW236621  10.389   8.326  11.082  1.7425 -0.0567 -0.9770
43191SOL     OW36622   5.151   3.478  11.929  0.1454 -0.3646  0.0369
43191SOL    HW136623   5.148   3.386  11.955 -0.5869 -0.3186  0.1453
43191SOL    HW236624   5.231   3.511  11.968 -0.3557 -0.5765  1.3090
43192SOL     OW36625   8.806   3.875   5.124  0.1840  0.6571  0.1688
43192SOL    HW136626   8.711   3.884   5.131  0.1033 -0.1033  0.1845
43192SOL    HW236627   8.831   3.822   5.200  0.6346  0.9401  0.2221
43193SOL     OW36628   8.315  11.067   0.904 -0.5313 -0.1092  0.2968
43193SOL    HW136629   8.391  11.125   0.895 -1.5834  1.8264  2.7538
43193SOL    HW236630   8.326  11.027   0.991 -1.7156 -0.7565  0.1631
43194SOL     OW36631   1.988   3.211   8.663 -0.1242 -0.1681 -0.4755
43194SOL    HW136632   1.993   3.300   8.699 -1.2828 -0.0460 -0.5657
43194SOL    HW236633   2.057   3.163   8.709 -0.0130  0.5767  0.1675
43195SOL     OW36634   8.788   2.536   2.837  0.0361 -0.6079  0.2351
43195SOL    HW136635   8.800   2.450   2.797  0.8356 -0.6405  0.5146
43195SOL    HW236636   8.877   2.564   2.859 -0.2306  0.2239  0.2814
43196SOL     OW36637   8.672  10.536   2.646  0.2982 -0.5063 -0.1435
43196SOL    HW136638   8.742  10.534   2.711  1.2238  2.3344 -0.8905
43196SOL    HW236639   8.592  10.527   2.697  1.1003 -3.6917  0.7494
43197SOL     OW36640   3.543   7.904  12.091 -0.4847  0.4270  0.1780
43197SOL    HW136641   3.553   7.999  12.098  1.8184  0.2742 -0.2248
43197SOL    HW236642   3.528   7.889  11.998  1.2444  0.2973 -0.1112
43198SOL     OW36643   8.702  11.965   7.108 -0.5533 -0.1492  0.1843
43198SOL    HW136644   8.740  11.906   7.043  0.9712  1.0773 -0.0957
43198SOL    HW236645   8.748  11.942   7.190 -0.3778  0.2253  0.1958
43199SOL     OW36646   7.333   2.299  11.801 -0.1877 -0.1624  0.4439
43199SOL    HW136647   7.349   2.205  11.806 -1.3303 -0.3706  0.5668
43199SOL    HW236648   7.343   2.330  11.891 -1.2808 -0.4404  0.6735
43200SOL     OW36649   6.682   0.668  10.826 -0.1132 -0.6646  0.1369
43200SOL    HW136650   6.631   0.730  10.774  0.5031  0.4634  0.8511
43200SOL    HW236651   6.616   0.614  10.871 -0.6560 -0.1825 -0.0731
43201SOL     OW36652   7.879   6.742   9.936 -0.7932  0.6646 -0.6116
43201SOL    HW136653   7.897   6.836   9.931 -2.3929  0.9670 -1.7969
43201SOL    HW236654   7.919   6.714  10.018 -1.1970  2.6016  0.3111
43202SOL     OW36655   8.618   1.912   4.942  0.1218  0.2821  0.2096
43202SOL    HW136656   8.534   1.867   4.931 -1.0904  2.2026  0.9834
43202SOL    HW236657   8.682   1.854   4.902 -1.7708 -0.5675 -1.7771
43203SOL     OW36658   9.063   3.130   8.706  0.4194  0.5688  0.3536
43203SOL    HW136659   9.149   3.098   8.680  0.0675  0.0913 -0.2600
43203SOL    HW236660   9.018   3.148   8.623 -1.0596 -1.8382  0.5203
43204SOL     OW36661   0.262   5.331  10.206 -0.0150 -0.5838  0.4459
43204SOL    HW136662   0.298   5.243  10.191 -1.6920 -1.4585  1.1962
43204SOL    HW236663   0.208   5.321  10.285  0.2686  1.2936  0.9113
43205SOL     OW36664  11.579   4.228   5.441 -0.3542  0.6835 -0.0317
43205SOL    HW136665  11.612   4.139   5.432  0.9924  1.2599 -1.3569
43205SOL    HW236666  11.514   4.236   5.371  0.5229  1.1299 -0.8221
43206SOL     OW36667   6.708  12.186  12.002  0.2639  0.1320 -0.1044
43206SOL    HW136668   6.651  12.233  12.062  0.6748  0.0955  0.3252
43206SOL    HW236669   6.683  12.094  12.012  1.4082 -0.0767  1.2438
43207SOL     OW36670  10.125   9.049   8.930  0.5159 -0.1748  0.0579
43207SOL    HW136671  10.171   9.096   8.860  0.6606  3.5151  2.3889
43207SOL    HW236672  10.035   9.083   8.926  0.7425  0.7918  2.1043
43208SOL     OW36673   3.443   9.088   5.129 -0.2182 -0.2262 -0.2556
43208SOL    HW136674   3.425   9.118   5.040  0.2275 -0.1029 -0.3060
43208SOL    HW236675   3.365   9.114   5.178 -0.8251 -1.0267 -0.7743
43209SOL     OW36676   7.564   7.650   0.110  0.4684  0.1794  0.0230
43209SOL    HW136677   7.555   7.738   0.073  0.2889  0.1323 -0.0449
43209SOL    HW236678   7.594   7.664   0.200  0.2677  0.3148  0.0675
43210SOL     OW36679   9.485   9.768  12.316  0.8415 -0.1076 -0.1749
43210SOL    HW136680   9.464   9.778  12.223 -0.7441 -0.0253  0.1725
43210SOL    HW236681   9.580   9.751  12.317  0.9003 -0.0390 -1.7899
43211SOL     OW36682   2.095   2.787   8.676  0.3791  0.2894 -0.7623
43211SOL    HW136683   2.016   2.840   8.664 -0.3969 -0.4326  0.8410
43211SOL    HW236684   2.167   2.848   8.663 -0.4344  1.0872 -1.7167
43212SOL     OW36685   1.559   1.005   5.985 -0.4681 -0.0749 -0.7989
43212SOL    HW136686   1.567   0.983   5.893 -0.7863 -1.6045 -0.4883
43212SOL    HW236687   1.622   0.948   6.029 -1.7364 -0.8268  0.1046
43213SOL     OW36688   4.041   5.455   8.000 -0.2228  0.0908  0.9658
43213SOL    HW136689   4.009   5.545   8.008 -1.2888  0.0425 -1.6597
43213SOL    HW236690   3.979   5.413   7.942  0.6118 -2.2060  1.6304
43214SOL     OW36691   2.960   2.236   0.940  0.3195  0.2727 -0.2253
43214SOL    HW136692   2.938   2.250   1.032  1.1158  0.0492  0.0103
43214SOL    HW236693   3.025   2.304   0.921  0.8053 -0.2175 -0.3624
43215SOL     OW36694   7.921   2.082   2.201 -0.1490 -0.5688  0.3308
43215SOL    HW136695   7.915   1.991   2.173 -0.8497 -0.1831 -0.8571
43215SOL    HW236696   7.868   2.087   2.280 -1.7388 -0.8060 -0.6860
43216SOL     OW36697   2.240   6.115   6.779 -0.0711  0.0742  0.6993
43216SOL    HW136698   2.220   6.043   6.720 -2.2731  2.0854 -1.2302
43216SOL    HW236699   2.191   6.189   6.744  0.6901  2.1095  3.5524
43217SOL     OW36700   8.168   7.915  10.296  0.7675  0.5161  0.3786
43217SOL    HW136701   8.226   7.843  10.320 -0.5636 -0.5053  0.6377
43217SOL    HW236702   8.127   7.941  10.378  2.5185  2.8242  0.6320
43218SOL     OW36703   5.612   4.869  11.618  0.2821  0.0509  0.1841
43218SOL    HW136704   5.651   4.842  11.701  1.8485 -0.6928 -0.7338
43218SOL    HW236705   5.687   4.899  11.566 -0.1648 -2.2671 -1.9873
43219SOL     OW36706   3.450   6.044  11.339 -0.4130 -0.2489  0.5911
43219SOL    HW136707   3.370   5.993  11.341  0.0886 -1.1576 -0.9416
43219SOL    HW236708   3.508   6.000  11.401 -0.8288 -0.0437  1.1310
43220SOL     OW36709   2.696   9.517   8.024 -0.5837 -0.6340 -0.1843
43220SOL    HW136710   2.672   9.456   8.094  1.6496 -2.3414 -0.7932
43220SOL    HW236711   2.662   9.477   7.944 -1.4952  0.3700 -0.3266
43221SOL     OW36712  10.478   7.860   4.770 -0.1299 -0.5639  0.1437
43221SOL    HW136713  10.433   7.844   4.852  0.2528 -0.1234  0.4431
43221SOL    HW236714  10.424   7.925   4.725 -0.1328 -0.5148  0.2186
43222SOL     OW36715  12.384  12.196   6.289 -0.0450  1.2368  0.0967
43222SOL    HW136716  12.356  12.186   6.380 -0.4989  2.5091  0.1189
43222SOL    HW236717  12.446  12.124   6.274 -2.8954 -1.4616  0.1865
43223SOL     OW36718   1.173   2.633   4.172  0.5476  0.0020  0.3861
43223SOL    HW136719   1.254   2.629   4.222  0.8938 -2.0148 -0.2398
43223SOL    HW236720   1.188   2.701   4.107  1.6830 -0.2477  0.3749
43224SOL     OW36721   1.286   7.165   5.658  0.4504  0.3049 -0.6482
43224SOL    HW136722   1.380   7.154   5.644  0.5546  0.1954  0.0859
43224SOL    HW236723   1.245   7.114   5.587  0.9492 -1.3570  0.2067
43225SOL     OW36724   0.203   1.014   6.585 -0.0785  0.0735 -0.1512
43225SOL    HW136725   0.295   1.041   6.591  0.4090 -1.3507 -0.8876
43225SOL    HW236726   0.176   1.002   6.676  1.0718 -1.3956  0.0344
43226SOL     OW36727  11.785   1.972   5.393  0.4714 -0.1679 -0.2690
43226SOL    HW136728  11.785   1.882   5.360  1.8145  0.2137 -1.3962
43226SOL    HW236729  11.755   1.963   5.484  2.3585 -2.0291  0.2708
43227SOL     OW36730   4.249  11.391   3.767 -0.1965  0.2669 -0.3729
43227SOL    HW136731   4.172  11.363   3.817  0.1576  0.7772  0.4794
43227SOL    HW236732   4.216  11.457   3.706 -0.4695  0.3358 -0.1502
43228SOL     OW36733  12.540  11.682   9.589 -0.2743  0.1366  0.5630
43228SOL    HW136734  12.466  11.686   9.650 -0.1666 -0.4299  0.7379
43228SOL    HW236735  12.557  11.773   9.566 -1.4775  0.2328 -0.0323
43229SOL     OW36736   1.787  10.577  12.310  0.0454  0.3306 -0.4441
43229SOL    HW136737   1.753  10.579  12.400 -0.0107  1.1880 -0.4670
43229SOL    HW236738   1.709  10.569  12.255  0.1309 -0.9401 -0.4055
43230SOL     OW36739   9.790   4.383   2.413  0.2113 -0.0713 -0.5901
43230SOL    HW136740   9.705   4.424   2.399 -0.3853 -0.8631  0.5822
43230SOL    HW236741   9.771   4.292   2.433  1.3859 -0.4305 -0.9965
43231SOL     OW36742   9.148   7.726  12.254  0.3694 -0.5648  0.0910
43231SOL    HW136743   9.232   7.771  12.243  0.8914 -0.6930  2.7483
43231SOL    HW236744   9.145   7.663  12.182  2.2161 -0.0302 -0.5151
43232SOL     OW36745  11.842   8.402   3.062  0.2212  0.0699  0.0095
43232SOL    HW136746  11.765   8.405   3.006  0.3031 -0.7569 -0.1696
43232SOL    HW236747  11.867   8.493   3.075  0.5721  0.2847 -1.8283
43233SOL     OW36748  10.850   7.034   5.040  0.0986 -0.2339 -0.7097
43233SOL    HW136749  10.849   7.057   4.947  1.3169  1.7200 -0.2871
43233SOL    HW236750  10.902   7.103   5.082 -1.5051 -0.3268  1.6191
43234SOL     OW36751   4.898   1.052   0.357 -0.0435 -0.3247 -0.2706
43234SOL    HW136752   4.897   1.013   0.444  2.0033  1.5372  0.6617
43234SOL    HW236753   4.888   0.977   0.298 -1.3983 -1.6346  1.5043
43235SOL     OW36754   2.259   0.104   9.541  0.2032 -0.4251 -0.2154
43235SOL    HW136755   2.216   0.106   9.627  0.7266 -0.5067  0.0586
43235SOL    HW236756   2.349   0.132   9.560  0.2049 -0.0058 -0.8137
43236SOL     OW36757   9.947   9.120   9.942  0.3763  0.3145  0.2592
43236SOL    HW136758   9.967   9.029   9.963  0.1775  0.1676 -0.1632
43236SOL    HW236759   9.940   9.164  10.026 -3.1628 -0.8155  0.7049
43237SOL     OW36760   6.728   3.995  11.422  0.2139  0.4320 -0.1582
43237SOL    HW136761   6.664   4.043  11.369  0.1438  0.7135  0.1682
43237SOL    HW236762   6.678   3.967  11.499  0.4935  0.7123  0.1314
43238SOL     OW36763   4.019  11.965   3.033  0.0973  0.1014  0.5449
43238SOL    HW136764   4.105  11.957   3.074  0.1625 -2.4060  0.0691
43238SOL    HW236765   4.036  12.005   2.948  1.2103 -2.3930 -0.5119
43239SOL     OW36766   3.524   9.454   1.333 -0.0076 -0.7313  0.0941
43239SOL    HW136767   3.559   9.459   1.244 -1.6553 -0.4427 -0.5677
43239SOL    HW236768   3.591   9.407   1.382  0.5600 -1.6602 -1.4976
43240SOL     OW36769   5.513   3.928   2.231  0.1338 -0.3541 -0.1970
43240SOL    HW136770   5.525   3.836   2.255  0.0799 -0.3739 -0.2467
43240SOL    HW236771   5.474   3.969   2.309 -1.3556 -0.7109 -0.7160
43241SOL     OW36772   9.159   3.782   9.000  0.4337 -0.4831 -0.5332
43241SOL    HW136773   9.226   3.778   8.932  1.9876  1.2908  0.8081
43241SOL    HW236774   9.168   3.699   9.047  1.0670 -0.6425 -0.9248
43242SOL     OW36775   8.884  10.577  12.213 -0.1458  0.1403  0.3856
43242SOL    HW136776   8.916  10.665  12.233 -0.5309  0.1142  1.1547
43242SOL    HW236777   8.788  10.585  12.214 -0.1878  0.0095 -0.9429
43243SOL     OW36778   4.608   0.302   0.884  0.3060 -0.3676  0.5865
43243SOL    HW136779   4.548   0.358   0.836 -0.4295 -0.9510  0.8115
43243SOL    HW236780   4.588   0.319   0.976  0.1956 -0.8685  0.6580
43244SOL     OW36781   8.460  12.380   0.333  0.2697  0.5544  0.1148
43244SOL    HW136782   8.524  12.365   0.403  1.1701  0.0806 -0.7973
43244SOL    HW236783   8.476  12.471   0.306  1.7976 -0.0843 -1.3002
43245SOL     OW36784   9.352   4.540  11.344  0.2920  0.4197  0.7574
43245SOL    HW136785   9.369   4.461  11.294 -3.2647 -0.7732  1.1610
43245SOL    HW236786   9.353   4.511  11.435 -0.0163  1.0650  0.9735
43246SOL     OW36787   9.097   7.928  12.009 -0.5279  0.4240  0.8126
43246SOL    HW136788   9.068   8.012  12.043 -0.8998  0.4912  0.3294
43246SOL    HW236789   9.019   7.889  11.971  0.1213  0.8669 -1.0531
43247SOL     OW36790   2.709   4.667   1.105 -0.4640 -0.3855 -0.0301
43247SOL    HW136791   2.800   4.654   1.128  0.3308  2.3544 -1.1926
43247SOL    HW236792   2.694   4.761   1.118 -2.7638 -0.5409 -1.0227
43248SOL     OW36793  10.301  10.004   1.591  0.5555  0.4037  0.5250
43248SOL    HW136794  10.228  10.008   1.653 -0.4829  0.0043 -0.6421
43248SOL    HW236795  10.282   9.927   1.538  0.0250  2.1627 -1.9939
43249SOL     OW36796   9.899   5.373  10.121 -0.0386  0.0969  0.4410
43249SOL    HW136797   9.959   5.301  10.141  0.0128  0.6330  2.4723
43249SOL    HW236798   9.952   5.452  10.130 -0.7351  0.5116  1.0745
43250SOL     OW36799   9.567   5.833  10.680  0.5507  0.8194 -0.1369
43250SOL    HW136800   9.549   5.894  10.608 -0.2255  0.4366 -0.2778
43250SOL    HW236801   9.625   5.767  10.642  0.8427  1.0902 -0.1679
43251SOL     OW36802   5.845  10.503  10.999  0.4574 -0.4365  0.8086
43251SOL    HW136803   5.843  10.408  10.995  0.2592 -0.4154  0.3298
43251SOL    HW236804   5.799  10.525  11.080  1.5810 -0.7877  1.5521
43252SOL     OW36805   6.843   1.347   2.470  0.2250 -0.6334 -0.7387
43252SOL    HW136806   6.820   1.343   2.377 -1.5876  1.1394 -0.4500
43252SOL    HW236807   6.897   1.270   2.485  1.0889 -0.6436 -3.3819
43253SOL     OW36808  10.715   6.903   6.628 -0.0964 -0.1188  0.2070
43253SOL    HW136809  10.639   6.848   6.649  0.9071 -1.7569 -0.3010
43253SOL    HW236810  10.765   6.906   6.709  0.7721 -1.5130 -0.2516
43254SOL     OW36811   7.842   2.692   7.041 -0.1507 -0.1317  0.2030
43254SOL    HW136812   7.918   2.725   6.993  0.3378 -0.3171  0.8283
43254SOL    HW236813   7.847   2.597   7.031 -1.6647 -0.0605 -1.7619
43255SOL     OW36814   7.157   2.008   5.731  0.1975  0.1767 -0.1701
43255SOL    HW136815   7.071   1.981   5.697  0.8831 -1.4189 -0.7418
43255SOL    HW236816   7.215   2.006   5.655  0.9759  0.2087  0.4034
43256SOL     OW36817   4.948   0.774   3.421  0.6039 -0.7666  0.2699
43256SOL    HW136818   4.976   0.694   3.376  2.5548 -0.1836  0.3299
43256SOL    HW236819   5.010   0.841   3.390 -2.2009  1.2733 -1.4086
43257SOL     OW36820  11.838   2.120   9.885  0.2447  0.6561 -0.0595
43257SOL    HW136821  11.869   2.071   9.809  0.2729  0.7028 -0.0783
43257SOL    HW236822  11.886   2.202   9.882 -1.6206  1.7541 -1.4606
43258SOL     OW36823   9.351   8.152   9.274 -0.2180  0.5622 -0.3106
43258SOL    HW136824   9.359   8.080   9.212 -1.4561  1.3301 -1.4314
43258SOL    HW236825   9.385   8.228   9.226  1.3215  0.7089  0.9475
43259SOL     OW36826   5.122  11.020   8.789  0.2057  0.6897 -0.0015
43259SOL    HW136827   5.115  11.078   8.864  1.6912  0.8704  0.0360
43259SOL    HW236828   5.101  10.933   8.823  0.6873  0.8006  0.6007
43260SOL     OW36829  11.566   9.441  11.669  0.1309 -0.2211  0.2193
43260SOL    HW136830  11.556   9.401  11.582 -1.4731 -1.1296  0.7761
43260SOL    HW236831  11.494   9.405  11.720  0.3530  1.2110  1.6120
43261SOL     OW36832   9.467   0.935  11.733  0.8937 -0.5974  0.4909
43261SOL    HW136833   9.388   0.916  11.683  0.3843  0.0427  1.0249
43261SOL    HW236834   9.465   0.873  11.806  0.5112 -0.1221  0.8900
43262SOL     OW36835   6.057   4.899   1.656 -0.1035 -0.4440 -0.4640
43262SOL    HW136836   5.970   4.875   1.689 -0.9501  3.0142  0.2289
43262SOL    HW236837   6.091   4.961   1.720  1.9794 -0.0838 -1.8150
43263SOL     OW36838   2.048   3.464   8.115  0.2294  0.2864 -0.2786
43263SOL    HW136839   2.113   3.475   8.185 -0.0593 -1.7067  0.3554
43263SOL    HW236840   2.009   3.551   8.106 -0.6872  0.3820  3.0381
43264SOL     OW36841   2.147   4.988   0.847 -0.2554  0.0333  0.0799
43264SOL    HW136842   2.091   5.063   0.831 -0.3573 -0.1085 -0.2342
43264SOL    HW236843   2.133   4.931   0.771  1.3483  0.6310 -0.7181
43265SOL     OW36844   3.147   4.138  12.327 -0.1279  0.2682  0.0730
43265SOL    HW136845   3.167   4.125  12.234 -0.5812  1.6278 -0.2347
43265SOL    HW236846   3.085   4.069  12.348  0.2459 -0.2653 -0.5379
43266SOL     OW36847   4.498   7.584   1.936  0.5232  0.5335 -0.0822
43266SOL    HW136848   4.477   7.520   2.004 -0.3764  0.2934 -0.5678
43266SOL    HW236849   4.593   7.593   1.939  0.9780 -2.4708 -1.4316
43267SOL     OW36850   9.776   3.159  10.108  0.0205  0.0566 -0.0145
43267SOL    HW136851   9.789   3.185  10.017  0.1658 -0.0165 -0.0143
43267SOL    HW236852   9.824   3.224  10.159  0.6412 -0.3876 -0.0268
43268SOL     OW36853   9.306   7.969  12.595  0.1934  0.0184  0.0516
43268SOL    HW136854   9.212   7.989  12.594  0.6878  2.6794 -0.3501
43268SOL    HW236855   9.329   7.964  12.688 -0.4466 -1.5205  0.1654
43269SOL     OW36856  11.145   9.655   9.729 -0.1082  0.2102  0.2791
43269SOL    HW136857  11.079   9.618   9.787  0.7674  0.5961  1.5575
43269SOL    HW236858  11.223   9.602   9.743  0.2872  0.6810 -0.0893
43270SOL     OW36859   0.167   5.687   7.764  0.1442 -0.0613  0.1487
43270SOL    HW136860   0.074   5.705   7.773  0.1037 -0.4406  0.5657
43270SOL    HW236861   0.175   5.593   7.782  0.3662 -0.4485 -1.7258
43271SOL     OW36862   8.563   5.375   8.638  0.1544 -0.5727 -1.0745
43271SOL    HW136863   8.491   5.339   8.690 -0.5512  0.7495 -1.1100
43271SOL    HW236864   8.598   5.447   8.690  2.1614 -1.7990 -0.5857
43272SOL     OW36865   7.693   0.066   4.708  0.2853 -0.5946  0.0685
43272SOL    HW136866   7.632   0.006   4.751  0.8488  0.1036  1.9377
43272SOL    HW236867   7.774   0.060   4.760  1.4741 -0.6825 -1.6980
43273SOL     OW36868  11.992   4.325   9.020 -0.3314  0.1312 -0.5499
43273SOL    HW136869  11.954   4.252   8.971 -3.6963 -0.1505  2.0934
43273SOL    HW236870  11.933   4.399   9.004 -0.0466  0.7230  0.9258
43274SOL     OW36871   7.358   9.740   6.032  0.1802  0.3657 -0.1899
43274SOL    HW136872   7.302   9.777   6.100 -0.7167  0.3320 -0.8916
43274SOL    HW236873   7.446   9.744   6.069 -0.4499 -1.0769  1.5873
43275SOL     OW36874   1.986   5.148  10.076 -0.2511 -0.3213  0.1345
43275SOL    HW136875   2.020   5.139   9.987 -0.7023  0.9895 -0.1910
43275SOL    HW236876   1.892   5.132  10.068 -0.0808 -1.6793  0.6430
43276SOL     OW36877  12.209   3.283   3.467  0.1879 -0.1424 -0.3678
43276SOL    HW136878  12.285   3.261   3.414 -0.4775 -0.0982 -1.3689
43276SOL    HW236879  12.240   3.352   3.526  0.3631  1.5710 -2.3350
43277SOL     OW36880   4.307  11.939   3.068  0.3809  0.2385 -0.6991
43277SOL    HW136881   4.341  11.917   2.981 -1.3538  1.1616 -1.6522
43277SOL    HW236882   4.372  12.000   3.105  1.7580 -1.1006 -0.7941
43278SOL     OW36883   6.384   9.961   7.613  0.0025 -0.1650 -0.0272
43278SOL    HW136884   6.474   9.995   7.619  0.3754 -1.2224  0.6605
43278SOL    HW236885   6.335  10.031   7.570  1.1291  0.4819 -0.3089
43279SOL     OW36886   0.321   6.842   4.865 -0.2908  0.3762 -0.1019
43279SOL    HW136887   0.380   6.826   4.939  0.0296  2.1659  0.0749
43279SOL    HW236888   0.235   6.814   4.896 -0.0510  0.5455  0.7429
43280SOL     OW36889   2.398   8.363   7.714  0.2689  0.2522 -0.1650
43280SOL    HW136890   2.340   8.413   7.770 -0.7383 -0.5169 -0.4943
43280SOL    HW236891   2.483   8.408   7.721 -0.0376  0.6713  1.2842
43281SOL     OW36892   1.649   5.881   9.487 -0.0994 -0.0797  0.0519
43281SOL    HW136893   1.690   5.938   9.552 -0.8690 -1.1197  1.5168
43281SOL    HW236894   1.556   5.902   9.491 -0.2195 -0.4989 -0.3766
43282SOL     OW36895   1.038  10.876   8.445  0.1559  0.1745 -0.1654
43282SOL    HW136896   1.050  10.971   8.445 -2.7000  0.6348 -0.1525
43282SOL    HW236897   1.017  10.855   8.536  0.2724 -0.3735 -0.2655
43283SOL     OW36898   0.938   4.602   8.958  0.2885  0.4142  0.5187
43283SOL    HW136899   0.925   4.560   8.873 -0.7623 -0.0189  0.8771
43283SOL    HW236900   1.032   4.596   8.974  0.1774 -2.0666  0.6519
43284SOL     OW36901   1.156   9.741   3.741  0.0133 -0.2993 -0.4180
43284SOL    HW136902   1.099   9.795   3.688  0.6609 -0.1148 -0.9383
43284SOL    HW236903   1.245   9.768   3.717  0.3955  1.7473  2.6658
43285SOL     OW36904   1.942   9.271   7.719 -0.5522  0.8621 -0.1500
43285SOL    HW136905   1.960   9.311   7.634 -0.7934  0.0861 -0.5798
43285SOL    HW236906   1.909   9.184   7.697  2.4842 -0.6448  0.7707
43286SOL     OW36907   4.801   3.566  11.348 -0.1450  0.0670  0.2005
43286SOL    HW136908   4.859   3.559  11.272  0.5660  2.6255  0.3822
43286SOL    HW236909   4.718   3.531  11.318  0.6607 -0.8246 -1.1031
43287SOL     OW36910  12.202   8.830  12.380 -0.2342  0.4359 -0.4078
43287SOL    HW136911  12.229   8.739  12.370 -0.9088  0.0782  0.8667
43287SOL    HW236912  12.249   8.861  12.458 -1.7055  0.4835  0.5032
43288SOL     OW36913   1.811   8.311   9.973  0.4421 -0.5350 -0.0858
43288SOL    HW136914   1.872   8.292   9.902 -0.3508 -0.3776 -0.8192
43288SOL    HW236915   1.858   8.285  10.052  2.1536  1.1671 -0.4516
43289SOL     OW36916   7.848   2.043   6.319 -0.5621 -0.1297 -0.2245
43289SOL    HW136917   7.935   2.080   6.305 -0.6568  0.5864  0.9782
43289SOL    HW236918   7.805   2.103   6.380 -1.1994 -1.4929  0.7233
43290SOL     OW36919   5.418   0.025   6.536  0.0313 -0.2418  0.4869
43290SOL    HW136920   5.430   0.102   6.482 -0.4018 -0.8580 -0.5201
43290SOL    HW236921   5.491  -0.033   6.513 -0.4878 -0.7577  0.0883
43291SOL     OW36922   3.961   2.410   3.045 -0.1431  0.0586 -0.1276
43291SOL    HW136923   3.979   2.499   3.014 -0.7269  0.1793 -0.1248
43291SOL    HW236924   4.041   2.385   3.091  0.1883  0.4202 -0.4870
43292SOL     OW36925   6.088   2.392   1.766 -0.0114 -0.4108 -0.0093
43292SOL    HW136926   6.090   2.322   1.701 -1.5651 -0.7263  0.2579
43292SOL    HW236927   6.145   2.460   1.729 -2.0479  0.0857 -2.5370
43293SOL     OW36928   1.962   0.974  10.846  0.0130 -0.8594  0.2028
43293SOL    HW136929   1.893   0.984  10.781 -0.3304 -0.1305  0.6618
43293SOL    HW236930   1.982   1.064  10.873 -0.4184 -1.1876  1.6850
43294SOL     OW36931   2.555   3.609   7.198  0.2801  0.0773 -0.2702
43294SOL    HW136932   2.634   3.615   7.253  0.3145 -1.3861 -0.1117
43294SOL    HW236933   2.530   3.517   7.204 -1.8496  0.6498  0.2210
43295SOL     OW36934   7.392   0.382   0.191  0.0261 -0.2685  0.6834
43295SOL    HW136935   7.372   0.312   0.254  1.4235 -0.7651  0.6005
43295SOL    HW236936   7.451   0.341   0.128  1.1696  1.0780  0.8413
43296SOL     OW36937   5.076   5.656   9.518 -0.3230 -0.2443  0.3148
43296SOL    HW136938   5.005   5.701   9.472  1.1788  1.2903 -0.5855
43296SOL    HW236939   5.060   5.675   9.611 -1.1738 -0.0499  0.1335
43297SOL     OW36940   5.024   4.991   1.317  0.0733 -0.7292  0.3736
43297SOL    HW136941   4.999   5.026   1.403 -1.3469 -0.7386 -0.0085
43297SOL    HW236942   4.963   4.919   1.302 -0.2851 -0.1686 -1.0132
43298SOL     OW36943   0.308   6.651   6.662 -0.2074  0.2269  0.0356
43298SOL    HW136944   0.354   6.568   6.649 -0.5474  0.1603 -0.8099
43298SOL    HW236945   0.364   6.700   6.722 -0.1142 -0.7000  0.7352
43299SOL     OW36946   0.312   3.977   6.846  0.0759 -0.1547  0.3070
43299SOL    HW136947   0.364   3.955   6.768 -0.2767 -0.1855  0.0763
43299SOL    HW236948   0.334   3.909   6.910 -1.8015 -1.8886 -0.7583
43300SOL     OW36949  10.627   8.963  10.286  0.1845 -0.2235  0.3478
43300SOL    HW136950  10.722   8.960  10.296  0.2028  0.3072  0.3777
43300SOL    HW236951  10.601   8.872  10.270  0.7197 -0.3316  0.0933
43301SOL     OW36952   7.050   5.071   8.298 -0.0995 -0.2727 -0.0331
43301SOL    HW136953   7.024   4.988   8.258  0.0574  0.4722 -1.7313
43301SOL    HW236954   6.970   5.106   8.336 -0.0965 -1.3530  1.0381
43302SOL     OW36955  10.539   0.643   3.894  0.5115 -0.2533  0.3540
43302SOL    HW136956  10.524   0.628   3.801 -1.0487 -0.4456  0.6032
43302SOL    HW236957  10.600   0.716   3.897  0.8836 -0.4982 -0.8222
43303SOL     OW36958   0.644   2.501   6.156 -0.2600  0.3981 -0.3166
43303SOL    HW136959   0.616   2.542   6.075 -0.2210  2.0504  0.4700
43303SOL    HW236960   0.727   2.543   6.177 -0.5937  0.4837  0.9147
43304SOL     OW36961   1.894  11.079  11.871  0.2340 -0.1207 -0.3591
43304SOL    HW136962   1.817  11.131  11.893  0.0882 -0.8410  0.9794
43304SOL    HW236963   1.911  11.097  11.779 -2.5033 -1.1766 -1.1648
43305SOL     OW36964  10.951   7.694   0.472  0.0956 -0.2346 -0.2052
43305SOL    HW136965  10.936   7.623   0.535  0.8686 -0.8864 -0.7285
43305SOL    HW236966  11.016   7.658   0.411 -1.7653 -0.1955 -2.3170
43306SOL     OW36967   4.366   4.144   1.588  0.3850 -0.4195 -0.1284
43306SOL    HW136968   4.314   4.079   1.542 -0.3069  1.3981 -2.0766
43306SOL    HW236969   4.331   4.146   1.677  0.0677 -2.2641 -0.1869
43307SOL     OW36970   1.606   7.538   6.554 -1.0410  0.0157  0.4168
43307SOL    HW136971   1.613   7.606   6.488  0.1078  1.5449  2.0328
43307SOL    HW236972   1.684   7.483   6.541 -1.3536 -0.2988 -0.1385
43308SOL     OW36973   8.123   1.396  10.954 -0.2863 -0.1435  0.3788
43308SOL    HW136974   8.063   1.469  10.971 -0.1790 -0.3626  1.8514
43308SOL    HW236975   8.208   1.428  10.984  0.3227  0.0977 -1.5278
43309SOL     OW36976   2.496   4.547   9.826 -0.7297  0.2830 -0.4434
43309SOL    HW136977   2.403   4.569   9.812 -0.9087  0.4976  0.9712
43309SOL    HW236978   2.518   4.491   9.751 -2.1321 -0.1566 -0.5640
43310SOL     OW36979   8.789   7.506   4.681  0.0947 -0.4577  0.4178
43310SOL    HW136980   8.826   7.421   4.703  1.2612  0.0603  0.5394
43310SOL    HW236981   8.781   7.551   4.766 -0.3423 -0.3773  0.3371
43311SOL     OW36982  10.193   4.319   2.439  0.5645 -0.1822  0.0028
43311SOL    HW136983  10.118   4.319   2.379  0.1000  2.2396  0.4849
43311SOL    HW236984  10.268   4.299   2.384 -0.1626 -0.5575 -0.8779
43312SOL     OW36985   3.317   8.745   3.023 -1.1220  0.3124  0.2282
43312SOL    HW136986   3.268   8.668   3.051 -2.5131  1.1633  0.2102
43312SOL    HW236987   3.251   8.813   3.010 -0.1118  1.0793 -1.2813
43313SOL     OW36988   2.355  11.128   4.353  0.4369 -0.5579 -0.1883
43313SOL    HW136989   2.341  11.183   4.430  0.1360  1.0194 -1.3249
43313SOL    HW236990   2.284  11.064   4.356 -1.8587  1.7994 -1.1054
43314SOL     OW36991   4.502   7.446   3.289 -0.1904 -0.1141 -0.1184
43314SOL    HW136992   4.420   7.466   3.334 -1.6030 -0.7354 -2.2456
43314SOL    HW236993   4.513   7.517   3.226  0.4497 -0.4860 -0.4429
43315SOL     OW36994   0.541   2.996   2.206  0.1070 -0.1258  0.2251
43315SOL    HW136995   0.607   2.936   2.169  0.6669 -1.8604  3.6180
43315SOL    HW236996   0.560   2.997   2.300 -2.0151  2.8671  0.7600
43316SOL     OW36997   7.591   7.993   9.377  0.0170 -0.4226 -0.3391
43316SOL    HW136998   7.608   7.907   9.415  0.4583 -0.9031 -1.5737
43316SOL    HW236999   7.637   8.054   9.435  1.2575 -1.1977 -0.4578
43317SOL     OW37000   7.698  12.207  10.685 -0.1852  0.0555 -0.2474
43317SOL    HW137001   7.714  12.297  10.658  0.4008 -0.2321 -0.8852
43317SOL    HW237002   7.632  12.175  10.624  0.7711 -0.4389 -1.0417
43318SOL     OW37003   4.325   4.807  12.229  0.0086 -0.1895 -0.2050
43318SOL    HW137004   4.358   4.777  12.145  1.1314  2.0166 -0.6179
43318SOL    HW237005   4.366   4.749  12.293  0.0899 -1.1228 -1.0778
43319SOL     OW37006   5.062  12.402  12.117 -0.3901 -0.1579 -0.1895
43319SOL    HW137007   4.996  12.436  12.056 -0.0426  2.0433  0.5900
43319SOL    HW237008   5.112  12.339  12.065 -0.9826  0.6265 -1.7739
43320SOL     OW37009   3.722  12.443   4.566 -0.1887  0.1132  0.1064
43320SOL    HW137010   3.677  12.359   4.557 -0.2579  0.3891 -4.8422
43320SOL    HW237011   3.654  12.504   4.594 -1.2028 -0.7301 -0.4443
43321SOL     OW37012   4.569   6.138  10.721  0.5141  0.0494  0.1557
43321SOL    HW137013   4.603   6.049  10.723 -1.6551 -0.8432  1.8722
43321SOL    HW237014   4.558   6.158  10.628  3.0211 -0.5715 -0.3633
43322SOL     OW37015   1.980   8.571   4.451 -0.4980  0.8778 -0.2223
43322SOL    HW137016   1.901   8.584   4.399 -0.4723  1.1067 -0.2070
43322SOL    HW237017   1.953   8.594   4.540 -1.1154 -1.5056  0.2623
43323SOL     OW37018  10.914  11.717   3.574 -0.2634 -0.3123 -0.2854
43323SOL    HW137019  10.826  11.745   3.602 -0.9012  2.8928 -4.4141
43323SOL    HW237020  10.905  11.623   3.558 -2.1596 -0.5654  1.6829
43324SOL     OW37021   7.722  12.240   0.066 -0.4560 -0.0874 -0.2117
43324SOL    HW137022   7.782  12.172   0.096 -0.0106  0.1498 -0.5579
43324SOL    HW237023   7.635  12.199   0.069 -0.1216 -0.8680 -1.0097
43325SOL     OW37024   7.768  11.241  11.697 -0.1721 -0.0223 -0.1074
43325SOL    HW137025   7.804  11.324  11.666  2.0725 -0.6009  0.7349
43325SOL    HW237026   7.816  11.174  11.648 -3.1180 -0.9388 -2.0331
43326SOL     OW37027   1.082   5.434   0.421 -0.3286  0.2846 -0.1139
43326SOL    HW137028   1.074   5.528   0.405  2.7744  0.6932  0.1435
43326SOL    HW237029   1.122   5.428   0.508  1.2547 -1.1688 -0.8799
43327SOL     OW37030   8.366   5.023   3.475  0.1932  0.2859 -0.4898
43327SOL    HW137031   8.309   5.036   3.551 -0.3717  0.6502 -0.9591
43327SOL    HW237032   8.419   5.102   3.471  1.0420 -0.2390  0.1955
43328SOL     OW37033  11.276  11.543  10.501 -0.4035 -0.3495 -0.5488
43328SOL    HW137034  11.257  11.456  10.536 -1.0074  0.3206  0.8753
43328SOL    HW237035  11.360  11.567  10.540  0.4482 -0.8214 -2.0199
43329SOL     OW37036  11.927   2.784   5.832  0.0515 -0.2632 -0.0556
43329SOL    HW137037  11.857   2.721   5.848 -0.2148 -0.1812 -0.8857
43329SOL    HW237038  11.979   2.782   5.912  0.0479 -1.5399 -0.0639
43330SOL     OW37039   3.709  11.215   1.487 -0.5708 -0.1447  0.5322
43330SOL    HW137040   3.708  11.172   1.572  2.6140  0.3416  0.9570
43330SOL    HW237041   3.733  11.306   1.506  1.1885 -0.2497 -0.8807
43331SOL     OW37042   4.168   7.739   4.089  0.6371 -0.5486  0.6601
43331SOL    HW137043   4.190   7.688   4.166  0.9146 -0.5171  0.6009
43331SOL    HW237044   4.080   7.709   4.065  0.7247 -0.8665  0.7315
43332SOL     OW37045   6.110   6.008   9.433 -0.4054  0.1756  0.5052
43332SOL    HW137046   6.192   6.046   9.466 -0.4393  0.0407  0.7401
43332SOL    HW237047   6.052   6.005   9.508 -0.9588  1.1533  0.1389
43333SOL     OW37048   5.715   3.080   0.827  0.0079 -0.0940 -0.2775
43333SOL    HW137049   5.681   3.079   0.737 -0.3406 -0.0435 -0.1468
43333SOL    HW237050   5.806   3.050   0.818 -0.4460 -1.5062 -0.4836
43334SOL     OW37051   0.328   2.297   5.176  0.1601 -0.0164 -0.3136
43334SOL    HW137052   0.358   2.306   5.267  0.0557  3.8795 -0.4841
43334SOL    HW237053   0.243   2.341   5.175  0.2135  0.1150 -2.3397
43335SOL     OW37054   7.688   0.550   9.651 -0.0174 -0.2201  0.1039
43335SOL    HW137055   7.618   0.495   9.613  2.2604 -2.5099 -1.0731
43335SOL    HW237056   7.689   0.629   9.596 -0.5221 -0.9600 -1.0129
43336SOL     OW37057   9.995   7.370   2.756 -0.9973  0.0944 -0.2229
43336SOL    HW137058   9.978   7.311   2.829 -1.0472 -0.6453 -0.8191
43336SOL    HW237059  10.054   7.321   2.699  0.5575  1.3650  0.2195
43337SOL     OW37060   0.397   3.728  12.022  0.3779 -0.8136  0.0333
43337SOL    HW137061   0.406   3.745  11.929 -0.2961  0.5151  0.1885
43337SOL    HW237062   0.414   3.812  12.064  2.4951 -1.7648  1.2555
43338SOL     OW37063   6.374   1.906   5.842 -0.6498  0.2641  0.5833
43338SOL    HW137064   6.354   2.000   5.848 -0.4173  0.4268 -0.8457
43338SOL    HW237065   6.469   1.903   5.832 -0.6833 -0.1217  0.3690
43339SOL     OW37066  11.234  12.027   9.024  0.4074 -0.3753 -0.5382
43339SOL    HW137067  11.231  12.014   8.930  0.9659 -2.1634 -0.3463
43339SOL    HW237068  11.142  12.042   9.049 -0.1224 -2.3609 -1.0866
43340SOL     OW37069   8.800   3.168   2.162  0.3582 -0.0259  0.6144
43340SOL    HW137070   8.799   3.188   2.069 -0.5027 -0.4733  0.5207
43340SOL    HW237071   8.820   3.074   2.167  0.0834 -0.0732  0.8642
43341SOL     OW37072   0.743  12.081   3.223  0.0315 -0.1137 -0.1365
43341SOL    HW137073   0.658  12.041   3.242  0.3338 -0.5729  0.2779
43341SOL    HW237074   0.733  12.173   3.248 -0.3110 -0.1879  0.0027
43342SOL     OW37075   0.669   8.014   7.590  0.2518 -0.2405  0.0313
43342SOL    HW137076   0.587   8.044   7.631  0.7210 -0.7714  1.4277
43342SOL    HW237077   0.670   7.919   7.606  1.7799 -0.0505  1.2734
43343SOL     OW37078   9.623   4.770   2.561 -0.5389 -0.0154 -0.2393
43343SOL    HW137079   9.571   4.699   2.599 -1.6136  1.0902  0.4305
43343SOL    HW237080   9.571   4.800   2.486 -2.3252  2.8362  1.9501
43344SOL     OW37081   1.342  12.166  11.667  0.1214  0.1137 -0.2359
43344SOL    HW137082   1.430  12.202  11.652  1.1746 -2.1594  0.1584
43344SOL    HW237083   1.353  12.105  11.740 -1.9868  0.3794  0.3593
43345SOL     OW37084   5.905   7.052  11.462 -0.5950  0.1176  0.3872
43345SOL    HW137085   5.876   7.071  11.551 -0.9913 -2.0416  0.7825
43345SOL    HW237086   5.990   7.010  11.472 -1.6700 -2.3526  0.0292
43346SOL     OW37087   2.624   7.004   3.492  0.0617  0.4597 -0.1564
43346SOL    HW137088   2.651   6.925   3.445  0.6406 -1.0898  2.5618
43346SOL    HW237089   2.531   7.013   3.471 -0.4738 -2.0301  0.7485
43347SOL     OW37090   4.280   9.165   4.088  0.0791 -0.3453  0.1850
43347SOL    HW137091   4.356   9.111   4.111 -0.0805 -0.2874  0.8739
43347SOL    HW237092   4.213   9.102   4.064  0.2288 -0.4108 -0.0689
43348SOL     OW37093   8.520   1.048   5.944  0.1978  0.2495 -0.4960
43348SOL    HW137094   8.444   1.059   6.002 -0.1718 -0.8138 -0.7769
43348SOL    HW237095   8.484   1.048   5.856  0.7153  1.3716 -0.7343
43349SOL     OW37096   9.591   5.598   0.588 -0.4675  0.0839 -0.2319
43349SOL    HW137097   9.685   5.584   0.574 -0.1834  0.4748  1.0882
43349SOL    HW237098   9.569   5.538   0.660 -1.3040 -0.2160 -0.7262
43350SOL     OW37099   1.376   1.229  12.119  0.4111  0.0324  0.0890
43350SOL    HW137100   1.383   1.260  12.210 -0.9809  1.8849 -0.3736
43350SOL    HW237101   1.439   1.283  12.071  1.2377 -1.0349 -0.0613
43351SOL     OW37102   7.247   0.945   1.116  0.1146  0.3240  0.3151
43351SOL    HW137103   7.284   1.031   1.135 -0.9225  0.7913  0.2818
43351SOL    HW237104   7.215   0.914   1.200 -0.5710  0.4902  0.1169
43352SOL     OW37105   5.532   6.515   4.378  0.4162 -0.8990  0.1134
43352SOL    HW137106   5.604   6.575   4.400  0.9345 -1.8724  1.1454
43352SOL    HW237107   5.497   6.550   4.296  3.4055 -1.5481 -1.6060
43353SOL     OW37108   6.281   5.568  10.949  0.0918  0.4723 -0.0787
43353SOL    HW137109   6.197   5.522  10.952  0.4364 -0.2257 -0.6924
43353SOL    HW237110   6.321   5.539  10.866  3.0806 -3.0572  2.2835
43354SOL     OW37111   9.294  11.451  10.177  0.1952 -0.3591 -0.8019
43354SOL    HW137112   9.375  11.501  10.190  0.1848 -0.4166 -0.5145
43354SOL    HW237113   9.248  11.458  10.261 -0.8911  1.0926 -1.4751
43355SOL     OW37114   1.075  12.320   8.644  0.3583 -0.4355  0.5436
43355SOL    HW137115   1.149  12.268   8.613  1.1600  0.2737  1.2116
43355SOL    HW237116   1.002  12.259   8.645  0.7356 -0.9366 -0.9181
43356SOL     OW37117   3.577   4.232   2.951 -0.3298  0.1334  0.3729
43356SOL    HW137118   3.549   4.209   2.862  1.0529  0.7416 -0.2434
43356SOL    HW237119   3.497   4.225   3.004 -1.3113  0.3558 -1.0297
43357SOL     OW37120   2.517   4.899  12.412  0.0163  0.2086 -0.0770
43357SOL    HW137121   2.598   4.901  12.361 -0.1599 -2.6276 -0.6099
43357SOL    HW237122   2.536   4.955  12.488  2.0560  0.5056 -0.7302
43358SOL     OW37123   9.034   2.418  12.252  0.1095  0.3500 -0.8348
43358SOL    HW137124   9.111   2.379  12.211  1.2043 -0.2442  1.6523
43358SOL    HW237125   9.008   2.487  12.191  3.7396  1.8702 -0.9164
43359SOL     OW37126   5.933   9.516   6.070 -0.2238  0.2933 -0.3886
43359SOL    HW137127   6.014   9.547   6.030  0.1079 -1.7277 -1.4156
43359SOL    HW237128   5.949   9.424   6.089 -2.2056 -0.1057 -0.4088
43360SOL     OW37129  10.315   5.971   6.200 -0.2005  0.2093 -0.2376
43360SOL    HW137130  10.393   5.985   6.146 -0.1340  1.1878  0.0975
43360SOL    HW237131  10.343   5.989   6.289 -0.4697 -0.7946  0.0632
43361SOL     OW37132  12.128  11.731   3.990  0.8728 -0.1397  0.0251
43361SOL    HW137133  12.177  11.781   3.925  1.2787 -0.4732  0.0744
43361SOL    HW237134  12.056  11.691   3.941  1.5794 -0.9662 -0.3679
43362SOL     OW37135   8.321   1.032   9.631 -0.4171 -0.0441  0.0938
43362SOL    HW137136   8.345   0.953   9.583 -1.6043  0.5131 -1.5097
43362SOL    HW237137   8.376   1.030   9.709  1.3257 -1.1909 -1.0888
43363SOL     OW37138  10.349   5.595   9.173  0.1301  0.0640 -0.0778
43363SOL    HW137139  10.296   5.623   9.098  1.6489  1.1139 -0.8223
43363SOL    HW237140  10.404   5.525   9.139 -0.8377 -1.1461  0.7368
43364SOL     OW37141   0.943   9.736   3.145  0.0274  0.3065  0.1833
43364SOL    HW137142   0.866   9.765   3.096 -0.1185  2.0583  1.3610
43364SOL    HW237143   0.926   9.644   3.165 -2.1280  0.8371  1.0385
43365SOL     OW37144  11.087  10.572   4.325  0.1236  0.1153  0.3751
43365SOL    HW137145  11.103  10.518   4.248  0.9773  0.7077  0.1246
43365SOL    HW237146  10.992  10.571   4.335  0.0317 -0.3137 -0.4307
43366SOL     OW37147   0.862   7.698   2.554  0.2534  0.5606 -0.0002
43366SOL    HW137148   0.799   7.770   2.559 -0.6560 -0.2354  0.5664
43366SOL    HW237149   0.884   7.680   2.645 -1.1212 -1.1816  0.0437
43367SOL     OW37150   5.121   6.417   4.725  0.1024 -0.1177  0.1359
43367SOL    HW137151   5.090   6.402   4.635  0.8860  1.1218 -0.3855
43367SOL    HW237152   5.167   6.502   4.720 -0.9804  0.6372  2.0006
43368SOL     OW37153   3.509   1.420   0.304 -0.1616  0.0118 -0.1584
43368SOL    HW137154   3.437   1.360   0.286 -0.0543  0.0379 -0.7115
43368SOL    HW237155   3.469   1.494   0.348 -0.0985 -1.0323  1.7413
43369SOL     OW37156   7.240   3.794  11.288  0.5940 -0.5509  0.7972
43369SOL    HW137157   7.296   3.718  11.272 -0.2321 -0.9113 -0.5316
43369SOL    HW237158   7.188   3.803  11.209  0.6012  1.3682  0.9497
43370SOL     OW37159   0.267   7.287   4.786  0.0390  0.0587 -0.5865
43370SOL    HW137160   0.201   7.264   4.852  0.1674 -0.8404 -0.7624
43370SOL    HW237161   0.308   7.204   4.764  1.7143  0.6989  0.0112
43371SOL     OW37162   7.433   2.206   3.122  0.0426  0.7470 -0.0590
43371SOL    HW137163   7.509   2.155   3.092 -0.4395 -0.5719  0.8721
43371SOL    HW237164   7.459   2.297   3.109  0.8766  0.2865 -1.9407
43372SOL     OW37165   8.903   5.472   9.632  0.0564  0.3161 -0.0131
43372SOL    HW137166   8.972   5.420   9.590  0.1485  1.4278 -1.2909
43372SOL    HW237167   8.949   5.517   9.704  0.1374 -0.7630  0.6217
43373SOL     OW37168  11.262   6.307  10.494  0.0467  0.5804 -0.2598
43373SOL    HW137169  11.309   6.339  10.571  0.3345 -0.1472 -0.1241
43373SOL    HW237170  11.321   6.327  10.421  0.8207 -0.7614 -0.0418
43374SOL     OW37171   6.862   5.193   6.943 -0.2231 -0.3659  0.5000
43374SOL    HW137172   6.928   5.252   6.981  0.2938  0.4743 -1.5212
43374SOL    HW237173   6.913   5.134   6.887 -1.0395 -0.6746  0.0725
43375SOL     OW37174  11.361   4.965   9.364 -0.0601  0.4504  0.2851
43375SOL    HW137175  11.355   4.876   9.399 -3.5331  0.1508 -0.6809
43375SOL    HW237176  11.364   5.021   9.441 -3.3050 -0.3818  1.1777
43376SOL     OW37177   3.939   8.662   8.591 -0.2786  0.2174  0.1910
43376SOL    HW137178   3.882   8.587   8.607  0.6439 -0.8211 -1.1540
43376SOL    HW237179   3.913   8.693   8.504  0.3481  0.5066  0.1000
43377SOL     OW37180   2.452   3.040   2.381  0.1096  0.0130 -0.0630
43377SOL    HW137181   2.431   2.977   2.450  1.2998 -0.3032  0.0396
43377SOL    HW237182   2.503   2.989   2.317 -0.0863  0.5476 -0.6528
43378SOL     OW37183   3.049   3.051   0.252 -0.1920  0.3367  0.4117
43378SOL    HW137184   3.123   2.997   0.225 -0.8074 -0.6667  0.6902
43378SOL    HW237185   3.065   3.069   0.345 -0.5081 -0.2357  0.5791
43379SOL     OW37186   8.222   2.568   2.317  0.1650  0.0142 -0.0324
43379SOL    HW137187   8.212   2.646   2.371  1.4341 -0.0189  0.2851
43379SOL    HW237188   8.215   2.600   2.227 -0.1025  0.3617  0.1080
43380SOL     OW37189  10.198   7.830  10.491  0.0562 -0.6845 -0.3029
43380SOL    HW137190  10.143   7.906  10.512  1.1913  0.8017 -2.3707
43380SOL    HW237191  10.158   7.758  10.539 -1.1572  1.1659  1.6591
43381SOL     OW37192   8.539  10.744   6.512  0.3437 -0.0453  0.2620
43381SOL    HW137193   8.602  10.808   6.480  0.3708 -0.5057 -0.6350
43381SOL    HW237194   8.457  10.794   6.521  0.7276  0.4662  1.0876
43382SOL     OW37195   7.021   5.305  12.304 -0.7294  0.1368 -0.5478
43382SOL    HW137196   7.054   5.255  12.379  1.5826 -0.0330 -1.5755
43382SOL    HW237197   7.068   5.388  12.308  2.5299 -1.2705 -3.7872
43383SOL     OW37198   8.889   7.414   5.044  0.0957 -0.0879  0.1186
43383SOL    HW137199   8.938   7.373   5.115 -2.3833 -0.4697  1.7574
43383SOL    HW237200   8.885   7.507   5.068 -0.2597 -0.1192  0.1907
43384SOL     OW37201   2.696   2.005   0.476  0.3642 -0.2013 -0.3409
43384SOL    HW137202   2.757   1.994   0.403  0.0058  1.2982 -0.9093
43384SOL    HW237203   2.752   2.015   0.553  0.9673  2.2546 -1.0023
43385SOL     OW37204   9.049   7.039  11.271  0.9291  0.1156  0.0941
43385SOL    HW137205   9.116   7.018  11.205  0.0168 -1.7297 -0.2994
43385SOL    HW237206   8.997   7.108  11.231  0.9734 -0.3185 -0.7433
43386SOL     OW37207  10.462   3.834   0.090  0.4058 -0.6018 -0.1581
43386SOL    HW137208  10.544   3.882   0.104 -0.7508  2.4314 -2.5917
43386SOL    HW237209  10.445   3.843  -0.004 -3.6648  0.6564  0.5244
43387SOL     OW37210   3.644   7.856   9.102  0.2452 -0.1462  0.3480
43387SOL    HW137211   3.588   7.790   9.142 -1.4553  0.4829 -0.9021
43387SOL    HW237212   3.664   7.916   9.173 -1.1558 -0.0737  0.7078
43388SOL     OW37213   0.835   6.649  10.715 -0.4506 -0.0361  0.3052
43388SOL    HW137214   0.813   6.584  10.782  3.5645 -1.6810  0.2619
43388SOL    HW237215   0.886   6.716  10.762 -0.0506  0.3028 -0.5936
43389SOL     OW37216   1.687  11.605   1.002  0.6550  0.2553 -0.3176
43389SOL    HW137217   1.601  11.587   1.039  0.8910  0.2643  0.2398
43389SOL    HW237218   1.671  11.670   0.934  0.1977  0.1194 -0.3435
43390SOL     OW37219   6.618  11.899   1.829  0.5772 -0.4367 -0.0795
43390SOL    HW137220   6.695  11.939   1.869 -0.6354  0.9649  0.9495
43390SOL    HW237221   6.571  11.971   1.788 -1.9730 -0.5432  2.3218
43391SOL     OW37222   3.645   3.859   0.141 -0.1304  0.5088 -0.3865
43391SOL    HW137223   3.562   3.886   0.182  0.0055  0.9657 -0.4159
43391SOL    HW237224   3.665   3.775   0.183  0.2481  1.1931  0.8451
43392SOL     OW37225   0.793   6.144   4.041  0.2521 -0.3291  0.2730
43392SOL    HW137226   0.778   6.133   4.135  0.7691 -1.2138  0.2632
43392SOL    HW237227   0.888   6.154   4.033  0.4256 -2.0719 -0.2967
43393SOL     OW37228   2.730  10.893  11.459 -0.5661  0.8614  0.0749
43393SOL    HW137229   2.819  10.857  11.455 -0.8152 -0.0913  2.1242
43393SOL    HW237230   2.689  10.862  11.378  0.9664  1.3999 -0.9562
43394SOL     OW37231   4.801  12.500   5.204  0.2189 -0.2364  0.6383
43394SOL    HW137232   4.732  12.497   5.139  0.8896  0.5488 -0.1325
43394SOL    HW237233   4.768  12.447   5.277 -2.6869  2.7690  1.7399
43395SOL     OW37234   8.329  12.042   7.651 -0.6112  1.3120  0.0067
43395SOL    HW137235   8.371  12.086   7.724 -0.3683  0.7827  0.1826
43395SOL    HW237236   8.262  11.986   7.691  0.2956  0.1391 -0.0854
43396SOL     OW37237   2.371  11.346   4.184  0.1108  0.2006 -0.4203
43396SOL    HW137238   2.295  11.403   4.197 -1.8131 -2.2223 -0.3121
43396SOL    HW237239   2.366  11.283   4.256  1.6908 -0.5895 -0.9692
43397SOL     OW37240   5.130   3.072   3.294 -0.1105 -0.0311 -0.6881
43397SOL    HW137241   5.097   2.985   3.316  1.2314 -0.2558  0.5978
43397SOL    HW237242   5.192   3.058   3.223  2.4376 -0.6323  1.5165
43398SOL     OW37243  11.540   2.805   8.929  0.1809  0.2444 -0.4268
43398SOL    HW137244  11.514   2.719   8.898  0.1659 -0.1550  0.6580
43398SOL    HW237245  11.616   2.829   8.875 -0.4787  0.0529 -1.4775
43399SOL     OW37246   7.353   7.928   4.478 -0.1557  0.3532 -0.4331
43399SOL    HW137247   7.386   7.858   4.422 -0.0425 -0.0277  0.1087
43399SOL    HW237248   7.428   7.987   4.488 -0.2998  0.6512 -1.0283
43400SOL     OW37249   8.013   2.587  10.943  0.1903  0.1642  0.1699
43400SOL    HW137250   8.033   2.598  11.036 -0.9566  0.7593  0.3605
43400SOL    HW237251   7.980   2.497  10.936  0.0056  0.2126  0.3926
43401SOL     OW37252   1.967   3.468   4.126 -0.3527 -0.2262 -0.6865
43401SOL    HW137253   1.878   3.497   4.103  0.5193  1.3245 -2.3404
43401SOL    HW237254   1.955   3.379   4.160 -2.6450  0.3336  0.1441
43402SOL     OW37255   7.460   8.708   7.608  0.2079 -0.1784 -0.0162
43402SOL    HW137256   7.549   8.726   7.576  0.3579 -1.5718 -0.4381
43402SOL    HW237257   7.414   8.671   7.533 -0.8966  0.9379  0.0749
43403SOL     OW37258   6.996   4.835   5.561  0.4371  0.4461 -0.1819
43403SOL    HW137259   6.966   4.745   5.565  0.0940  0.5676  0.0824
43403SOL    HW237260   7.068   4.835   5.497  0.4303 -0.0070 -0.1868
43404SOL     OW37261  10.428   8.821   7.381  0.3425  0.0882  0.1181
43404SOL    HW137262  10.338   8.831   7.414  0.2132 -0.3463 -0.0939
43404SOL    HW237263  10.480   8.802   7.459  0.4365  1.3841  0.3924
43405SOL     OW37264   7.964   8.430   4.997 -0.4694  0.4282  0.3638
43405SOL    HW137265   7.996   8.368   4.931 -0.4368 -0.0877  0.8560
43405SOL    HW237266   8.037   8.439   5.059  0.1288  2.1832 -0.5223
43406SOL     OW37267   5.913   5.705  10.886  0.2025 -0.4328  0.2641
43406SOL    HW137268   5.974   5.746  10.824 -1.9787  0.0136 -1.7190
43406SOL    HW237269   5.856   5.651  10.831 -0.6982 -1.4764  2.1394
43407SOL     OW37270   4.533   7.082   4.302  0.1397  0.0297  0.1165
43407SOL    HW137271   4.607   7.127   4.261  1.1282  0.7814  2.5375
43407SOL    HW237272   4.526   7.121   4.388 -1.9884 -1.2786  0.6082
43408SOL     OW37273   2.946   0.275   0.138  0.0482  0.7046  0.3261
43408SOL    HW137274   2.950   0.181   0.120 -0.0131  0.7924 -0.1506
43408SOL    HW237275   3.005   0.287   0.213  0.5755  0.3823 -0.0237
43409SOL     OW37276  10.022   7.304   3.920 -0.6479 -0.1921  0.0519
43409SOL    HW137277   9.943   7.266   3.882 -0.2644 -1.5933  0.5844
43409SOL    HW237278  10.094   7.252   3.884 -0.1507 -0.3999  1.2667
43410SOL     OW37279  12.180   8.540   3.424 -0.4567  0.0536 -0.0684
43410SOL    HW137280  12.181   8.608   3.357  1.9189 -0.5173 -0.6937
43410SOL    HW237281  12.202   8.587   3.505 -0.4806  0.2907 -0.1963
43411SOL     OW37282  10.732   7.621   0.303  0.3796 -0.3202 -0.0385
43411SOL    HW137283  10.686   7.561   0.362  1.0257 -0.7630  0.0273
43411SOL    HW237284  10.804   7.656   0.356  0.6841 -0.3627 -0.4224
43412SOL     OW37285  12.350   5.190   9.292 -0.1851 -0.1784 -0.2672
43412SOL    HW137286  12.292   5.223   9.360 -0.8704 -0.8661 -0.4974
43412SOL    HW237287  12.436   5.184   9.334 -0.5107 -0.1952  0.4070
43413SOL     OW37288   5.751  11.064   8.376  0.0462 -0.2762 -0.6729
43413SOL    HW137289   5.821  11.052   8.441 -0.1507 -0.2054 -0.4481
43413SOL    HW237290   5.684  11.000   8.401  0.1855 -0.5969 -1.1049
43414SOL     OW37291   4.981  10.238   3.273 -0.4270  0.3197 -0.2203
43414SOL    HW137292   5.032  10.264   3.196 -2.0525  1.3666 -1.0213
43414SOL    HW237293   4.985  10.313   3.332 -1.4441  0.6397 -0.5357
43415SOL     OW37294   2.209   7.740   0.964 -0.2128 -0.3280  0.1446
43415SOL    HW137295   2.171   7.817   1.005 -0.6250 -0.2376 -0.4014
43415SOL    HW237296   2.233   7.769   0.876  3.0188  0.2213  1.0677
43416SOL     OW37297   9.562   2.709   4.755 -0.2187  0.2080  0.1329
43416SOL    HW137298   9.471   2.723   4.780 -0.0885  0.5169  0.4448
43416SOL    HW237299   9.612   2.734   4.832  0.1571  0.5713 -0.2233
43417SOL     OW37300   3.903   3.732   5.695  0.4214  0.1106  1.1496
43417SOL    HW137301   3.977   3.699   5.746 -0.5028 -1.4108  1.5688
43417SOL    HW237302   3.924   3.709   5.604  0.3686 -0.5319  1.2961
43418SOL     OW37303  11.781  12.417   0.484 -0.0077  0.2834 -0.0415
43418SOL    HW137304  11.863  12.434   0.531 -0.5936  1.4302  0.6062
43418SOL    HW237305  11.717  12.400   0.554 -0.9335  2.1642 -0.3767
43419SOL     OW37306   4.020  11.753  12.411 -0.3392 -0.1250  0.1823
43419SOL    HW137307   3.986  11.842  12.419 -0.2752 -0.0553 -0.2947
43419SOL    HW237308   4.029  11.723  12.501 -2.8807 -0.6210  0.3569
43420SOL     OW37309   0.503   6.754   5.133  0.0761  0.2000 -0.2310
43420SOL    HW137310   0.510   6.659   5.140 -2.2507 -0.2671 -2.4800
43420SOL    HW237311   0.593   6.786   5.143  1.0388 -2.2838 -0.2417
43421SOL     OW37312   1.012   8.344   3.688  0.0020 -0.4489 -0.5517
43421SOL    HW137313   1.089   8.398   3.707  0.6838 -1.1375 -1.3038
43421SOL    HW237314   1.039   8.255   3.711 -1.7509 -0.3395  2.6032
43422SOL     OW37315   7.282   3.655   8.004 -0.1976  1.2079  0.1632
43422SOL    HW137316   7.289   3.561   7.987  1.6524  1.1520  1.0139
43422SOL    HW237317   7.213   3.662   8.070  2.0583 -0.0072  2.8657
43423SOL     OW37318   7.243   5.106   5.045 -0.3027 -0.1548  0.1310
43423SOL    HW137319   7.297   5.044   4.996  0.6112  1.7244 -1.3847
43423SOL    HW237320   7.289   5.190   5.035 -2.4472  1.1243  0.5189
43424SOL     OW37321  11.310   4.619  12.518 -0.5109  0.2954  0.0921
43424SOL    HW137322  11.258   4.539  12.519 -0.6148  0.3491 -0.4832
43424SOL    HW237323  11.355   4.620  12.603 -2.3628  0.8534  1.1214
43425SOL     OW37324   6.562   7.252  12.538 -0.6525 -0.0098 -0.0544
43425SOL    HW137325   6.514   7.196  12.600  1.1428 -0.9127  0.5709
43425SOL    HW237326   6.632   7.290  12.590  0.2184  0.1096 -1.2793
43426SOL     OW37327   6.511   3.092   2.753  0.1840  0.7753  0.0129
43426SOL    HW137328   6.510   3.093   2.657 -0.6049  0.5798  0.0174
43426SOL    HW237329   6.439   3.035   2.778  1.2980 -0.3801  0.7209
43427SOL     OW37330   2.220   0.367   4.352 -0.3012  0.2015 -0.3215
43427SOL    HW137331   2.173   0.300   4.402 -0.5947  1.0414  0.5754
43427SOL    HW237332   2.154   0.404   4.294 -0.4018  0.4017 -0.0837
43428SOL     OW37333   1.267   7.523   2.674  0.1678  0.2328  0.0639
43428SOL    HW137334   1.296   7.613   2.657  0.1751  0.2001 -0.1079
43428SOL    HW237335   1.227   7.526   2.761  3.1582 -0.2797  1.5796
43429SOL     OW37336   4.509   1.209   9.891  0.0949 -0.1931 -0.2305
43429SOL    HW137337   4.529   1.208   9.798  1.4283  0.0800  0.0345
43429SOL    HW237338   4.495   1.117   9.914  1.5857 -0.4756 -0.3477
43430SOL     OW37339   4.121   1.745   3.397  0.6171 -0.1503 -0.6183
43430SOL    HW137340   4.155   1.833   3.409 -0.8710  0.2573  0.8192
43430SOL    HW237341   4.156   1.717   3.312  1.9729  1.3924 -0.5980
43431SOL     OW37342   4.102  12.377   1.358 -0.6916  0.1373 -0.2905
43431SOL    HW137343   4.103  12.312   1.287 -0.5585  0.1804 -0.3286
43431SOL    HW237344   4.191  12.411   1.360 -1.0388  1.1207 -1.0143
43432SOL     OW37345   9.612   2.692   7.127  0.2024 -0.3781 -0.0613
43432SOL    HW137346   9.602   2.622   7.062 -1.3953 -1.4545  1.2723
43432SOL    HW237347   9.532   2.744   7.118  0.5384  0.1905  0.2071
43433SOL     OW37348   0.721   7.563   0.686  0.2962 -0.2743  0.0106
43433SOL    HW137349   0.731   7.500   0.616  0.4049 -0.4947  0.2243
43433SOL    HW237350   0.672   7.636   0.647 -1.5494 -1.3238  0.2545
43434SOL     OW37351   5.458   2.199   4.505  0.2159  0.0557 -0.2583
43434SOL    HW137352   5.545   2.239   4.500 -0.1416  0.8427 -0.4019
43434SOL    HW237353   5.424   2.226   4.590  0.0360 -0.0768 -0.2888
43435SOL     OW37354   3.793   8.260   7.866  0.3693 -0.0304 -0.2254
43435SOL    HW137355   3.707   8.302   7.865  0.9739  1.2572  0.5314
43435SOL    HW237356   3.773   8.167   7.880 -0.8486  0.4779  1.8429
43436SOL     OW37357   8.383  11.598  12.455 -0.2585 -0.1147  0.3228
43436SOL    HW137358   8.420  11.606  12.367  1.3074 -1.6952  0.7769
43436SOL    HW237359   8.459  11.602  12.513 -1.0672 -0.9663  1.4727
43437SOL     OW37360  10.206   7.935  11.164  0.1924 -0.3177  0.1553
43437SOL    HW137361  10.185   8.025  11.189 -0.8746 -0.1440 -1.2483
43437SOL    HW237362  10.230   7.892  11.246 -3.8255  0.0061  1.7129
43438SOL     OW37363   2.371   4.513   1.749  0.1054  0.0092  0.3780
43438SOL    HW137364   2.303   4.569   1.710  1.0682  1.2964  0.4883
43438SOL    HW237365   2.355   4.519   1.843  1.0224  1.2288  0.4808
43439SOL     OW37366   9.855   8.936   5.224  0.2250 -0.6094 -0.0285
43439SOL    HW137367   9.912   9.005   5.189 -2.2250  1.5238 -0.0760
43439SOL    HW237368   9.813   8.899   5.147 -0.9059  0.1430  0.2112
43440SOL     OW37369   2.923   1.436   9.863  0.2456 -0.1954  0.1677
43440SOL    HW137370   2.862   1.369   9.831  0.0095  0.7325 -1.4607
43440SOL    HW237371   2.914   1.433   9.958 -0.3845 -1.8764  0.0901
43441SOL     OW37372  12.322   2.685   1.978  0.0203 -0.2797 -0.6296
43441SOL    HW137373  12.404   2.635   1.979  0.7145  0.8421 -0.3212
43441SOL    HW237374  12.301   2.699   2.070  2.4367  4.0870 -0.5164
43442SOL     OW37375  10.611  12.095  11.646  0.2000 -0.5675 -0.5245
43442SOL    HW137376  10.656  12.083  11.730  0.7451 -1.5779 -0.9392
43442SOL    HW237377  10.521  12.067  11.663 -0.0002  0.3916  0.0251
43443SOL     OW37378   8.832  11.135   1.592  0.4699 -0.0594  0.1656
43443SOL    HW137379   8.796  11.200   1.653 -1.2355 -1.7272  1.0318
43443SOL    HW237380   8.788  11.154   1.509 -0.2578 -0.2818  0.4920
43444SOL     OW37381  10.681  10.046  12.251  0.3823  0.4505 -0.6022
43444SOL    HW137382  10.742   9.976  12.273 -0.0366 -0.3292 -1.8172
43444SOL    HW237383  10.619  10.006  12.190  0.2658  1.9310 -1.5172
43445SOL     OW37384   4.547   3.883   8.138 -0.0570 -0.6769  1.0519
43445SOL    HW137385   4.617   3.821   8.120 -0.6698 -0.8315 -1.0590
43445SOL    HW237386   4.470   3.828   8.155 -0.5887 -0.5584 -0.7678
43446SOL     OW37387  11.309   8.449   9.612  0.0116 -0.0656  0.0941
43446SOL    HW137388  11.221   8.488   9.611  1.0797  2.6487 -2.2132
43446SOL    HW237389  11.314   8.398   9.531  0.0580 -1.6740  1.0624
43447SOL     OW37390  11.670   3.685  10.410  0.4031 -0.3009 -0.0877
43447SOL    HW137391  11.649   3.639  10.329 -2.7739  1.0295 -0.1463
43447SOL    HW237392  11.688   3.615  10.474 -0.7884 -1.5104 -1.0205
43448SOL     OW37393   8.469   4.300   6.949 -0.5558  0.3006  0.7142
43448SOL    HW137394   8.499   4.244   6.877  2.2511  1.6782  0.6778
43448SOL    HW237395   8.463   4.387   6.910  0.1703  0.9125  1.9332
43449SOL     OW37396  11.904   1.733   8.923 -0.6133 -0.0433  0.2411
43449SOL    HW137397  11.846   1.767   8.992  0.4688  5.0734 -0.9364
43449SOL    HW237398  11.987   1.716   8.967 -0.4518  1.4532  0.5618
43450SOL     OW37399  12.184   5.071  12.282 -0.0834  0.2562  0.3393
43450SOL    HW137400  12.154   5.112  12.201  0.6515  1.5994  0.7222
43450SOL    HW237401  12.128   4.993  12.291 -0.8399  0.6177 -0.9239
43451SOL     OW37402   7.124   7.021   3.375  0.3355  0.0778  0.2427
43451SOL    HW137403   7.198   6.998   3.318  0.4702  0.8982  0.0750
43451SOL    HW237404   7.141   6.972   3.456  1.2779  0.5611  0.3511
43452SOL     OW37405   7.067   2.088   7.654  0.1704 -0.0007 -0.0924
43452SOL    HW137406   7.119   2.166   7.672  0.4515  0.4204 -2.4055
43452SOL    HW237407   7.010   2.079   7.730  1.0175  1.7061  0.7984
43453SOL     OW37408  10.737   8.086   1.894  0.3156  0.4410 -0.2717
43453SOL    HW137409  10.766   8.134   1.816  2.2335 -0.2036 -0.0233
43453SOL    HW237410  10.745   7.994   1.868  3.9288  0.0582  1.4843
43454SOL     OW37411   3.244   2.067   5.015 -0.0355 -0.3906  0.1939
43454SOL    HW137412   3.171   2.112   4.972  0.9073  0.5898 -0.4523
43454SOL    HW237413   3.315   2.072   4.952  0.4854 -1.6921  0.6467
43455SOL     OW37414   0.635  11.749   8.962 -0.1884 -0.3115 -0.5445
43455SOL    HW137415   0.612  11.695   8.886  2.3636 -2.0429 -0.2344
43455SOL    HW237416   0.563  11.737   9.024 -0.8794 -1.3127 -1.5047
43456SOL     OW37417   5.517   3.795   4.715 -0.0739  0.7180  0.3736
43456SOL    HW137418   5.573   3.811   4.639 -0.7590  0.5481 -0.1810
43456SOL    HW237419   5.497   3.701   4.710  0.9465  0.4034  1.5258
43457SOL     OW37420   4.701   5.953   6.507  0.3847 -0.0840 -0.1147
43457SOL    HW137421   4.628   5.897   6.482 -0.1543  1.1492 -1.4495
43457SOL    HW237422   4.765   5.893   6.546 -2.0966 -0.9605  3.0110
43458SOL     OW37423   4.077   7.656  11.869  0.3751  0.1705 -0.5144
43458SOL    HW137424   4.143   7.725  11.868 -0.3564  0.9029  0.3362
43458SOL    HW237425   4.064   7.636  11.962  0.1636 -0.7135 -0.7216
43459SOL     OW37426   2.790   4.203   4.345  0.5462 -0.1073  0.2938
43459SOL    HW137427   2.793   4.161   4.431  2.9871 -0.8561 -0.0688
43459SOL    HW237428   2.782   4.130   4.283 -2.4906  0.4873 -0.1704
43460SOL     OW37429   9.092   3.678   5.629 -0.3075 -0.3292  0.3579
43460SOL    HW137430   9.052   3.592   5.623  0.1991 -0.5775  0.5093
43460SOL    HW237431   9.098   3.709   5.539  1.1035 -1.1909  0.1346
43461SOL     OW37432  12.407  10.224   0.672 -0.0172  0.1901 -0.8460
43461SOL    HW137433  12.391  10.214   0.766  1.9924  0.1563 -0.4664
43461SOL    HW237434  12.500  10.207   0.662 -0.2890 -0.2905 -2.9381
43462SOL     OW37435   6.155   7.627   2.686  0.0398  0.2087 -0.3545
43462SOL    HW137436   6.130   7.620   2.778  0.7101 -0.4074 -0.2085
43462SOL    HW237437   6.080   7.591   2.638 -0.5116  0.9816 -0.0805
43463SOL     OW37438  11.576  10.072   4.433  0.1483  0.2217  0.3360
43463SOL    HW137439  11.545  10.012   4.365 -1.5668  0.1375  1.1493
43463SOL    HW237440  11.600  10.016   4.506  1.6438  0.3431 -0.0121
43464SOL     OW37441   7.452   2.755   5.841 -0.0729 -0.0305  0.2443
43464SOL    HW137442   7.467   2.789   5.753 -1.7836 -1.8075 -0.8151
43464SOL    HW237443   7.360   2.774   5.859  0.0052 -0.5269  1.2699
43465SOL     OW37444  10.153   1.391   2.366  0.3458 -0.1252  0.2115
43465SOL    HW137445  10.145   1.302   2.400  0.6773 -0.6274 -0.9820
43465SOL    HW237446  10.188   1.380   2.278  0.0225  1.1735 -0.0968
43466SOL     OW37447   4.527   2.404   1.781  0.3743  0.0703 -0.2596
43466SOL    HW137448   4.568   2.328   1.822 -1.4697 -0.4819  0.6939
43466SOL    HW237449   4.506   2.462   1.854 -1.6452 -0.2682 -0.4968
43467SOL     OW37450  11.517   7.392   3.338 -0.1105  0.3693 -0.2638
43467SOL    HW137451  11.465   7.315   3.361 -1.8249  1.6258  0.2209
43467SOL    HW237452  11.604   7.356   3.320 -1.2924 -1.9233 -1.9703
43468SOL     OW37453   0.304   0.964   7.391 -0.6094 -0.3566  0.2310
43468SOL    HW137454   0.399   0.976   7.397 -0.6714 -0.2584  1.2064
43468SOL    HW237455   0.291   0.870   7.404 -0.7044 -0.2298  1.1269
43469SOL     OW37456   6.160   9.464   2.655  0.2473  0.5324  0.3132
43469SOL    HW137457   6.126   9.553   2.669  1.3567  0.9268  0.6095
43469SOL    HW237458   6.223   9.474   2.583 -0.5192 -0.2534 -0.4874
43470SOL     OW37459  11.696   6.838   0.343 -0.3520  0.3155 -0.2704
43470SOL    HW137460  11.677   6.872   0.430  1.7316 -1.3453  0.9426
43470SOL    HW237461  11.612   6.808   0.310 -1.2876  1.5491  0.9028
43471SOL     OW37462   1.162   0.993  11.061  0.4790 -0.2128 -0.4224
43471SOL    HW137463   1.196   1.069  11.014  0.6782 -0.3631 -0.5229
43471SOL    HW237464   1.102   1.030  11.126 -0.5240 -0.0649 -1.4133
43472SOL     OW37465   8.425   7.084  12.099 -0.3031  0.2050  0.0455
43472SOL    HW137466   8.351   7.046  12.146 -0.2048 -0.4492 -0.3205
43472SOL    HW237467   8.399   7.175  12.084 -1.4949 -0.2895 -1.0168
43473SOL     OW37468  11.549   9.024   1.300 -0.5797  0.3901  0.1441
43473SOL    HW137469  11.601   9.101   1.322  0.0413 -0.5431  2.1134
43473SOL    HW237470  11.487   9.015   1.372 -1.1870 -0.5145 -0.4614
43474SOL     OW37471  12.182  11.545   6.897 -0.5341 -0.1708  0.5177
43474SOL    HW137472  12.187  11.600   6.819  1.3548 -2.3193 -1.0178
43474SOL    HW237473  12.243  11.584   6.959 -2.1237  1.6104  1.0716
43475SOL     OW37474  12.038   0.841   0.554  0.3195 -0.0348  0.0789
43475SOL    HW137475  11.958   0.894   0.558 -0.6752 -1.2526 -1.9178
43475SOL    HW237476  12.025   0.774   0.622 -0.5139 -0.3728 -0.3907
43476SOL     OW37477   0.481   4.716  10.150  0.3532  0.5670  0.0621
43476SOL    HW137478   0.423   4.708  10.075  0.9756  0.1892 -0.3822
43476SOL    HW237479   0.478   4.630  10.192  0.7542  0.4800 -0.0840
43477SOL     OW37480   7.394  10.663   6.938 -0.6849  0.3927  0.4069
43477SOL    HW137481   7.344  10.584   6.962 -0.5008  0.1815  0.1083
43477SOL    HW237482   7.341  10.736   6.969 -1.5393  0.1954 -0.5603
43478SOL     OW37483   7.436  12.078  10.021  0.1807  0.1160 -0.0233
43478SOL    HW137484   7.348  12.085  10.058  0.3566 -0.1131  0.4475
43478SOL    HW237485   7.422  12.075   9.926 -0.4254 -1.4221  0.0813
43479SOL     OW37486   7.104   8.241   5.303  0.7892  0.3091  0.2215
43479SOL    HW137487   7.057   8.321   5.277  0.2835 -0.1773 -0.3824
43479SOL    HW237488   7.119   8.252   5.397 -1.6512 -0.0455  0.7230
43480SOL     OW37489   1.856   1.729   3.291 -0.3350 -0.1116  0.0104
43480SOL    HW137490   1.763   1.706   3.278 -0.6437 -0.7663  2.7256
43480SOL    HW237491   1.899   1.645   3.309  0.4299  0.3865  0.5434
43481SOL     OW37492   9.638   3.523   2.766 -0.1392  0.2306 -0.0641
43481SOL    HW137493   9.562   3.531   2.824  0.3069 -0.4379  0.6228
43481SOL    HW237494   9.685   3.605   2.778  0.1461 -0.0568  0.8062
43482SOL     OW37495   7.936   6.229  10.322  0.4558 -0.1508  0.3712
43482SOL    HW137496   7.888   6.234  10.239 -0.1884 -2.0038  0.5888
43482SOL    HW237497   7.912   6.309  10.368  0.2228  0.5514 -0.9185
43483SOL     OW37498   2.411   1.036   1.788 -0.3463 -0.3919 -0.8488
43483SOL    HW137499   2.435   0.947   1.813  2.1378  0.4404  0.0232
43483SOL    HW237500   2.342   1.060   1.850  1.3895 -0.5438  1.2727
43484SOL     OW37501   7.303   0.913   4.268  0.3533  0.6507 -0.0103
43484SOL    HW137502   7.325   0.925   4.361  4.7184  0.8976 -0.8825
43484SOL    HW237503   7.248   0.989   4.247 -0.3733  0.8329  2.2204
43485SOL     OW37504  10.185   1.809   3.216  0.2166  0.2824 -0.1136
43485SOL    HW137505  10.184   1.719   3.184 -0.0699 -0.0461  0.8023
43485SOL    HW237506  10.274   1.840   3.199  0.6105 -0.5058  0.4650
43486SOL     OW37507  12.509   5.155   0.670  0.2993 -0.0106 -0.3319
43486SOL    HW137508  12.422   5.178   0.703  0.9678 -0.0901  1.6136
43486SOL    HW237509  12.512   5.192   0.582 -0.2360  3.6188  1.0266
43487SOL     OW37510   8.851   8.062   5.016 -0.0591 -0.0118 -0.2146
43487SOL    HW137511   8.783   7.995   5.019  0.4146 -0.4737  0.5018
43487SOL    HW237512   8.886   8.065   5.105  0.7725  0.3004 -0.5400
43488SOL     OW37513   2.982   2.524  10.219 -0.1584  0.6418  0.1929
43488SOL    HW137514   2.957   2.550  10.307 -0.4087  2.9258 -0.4749
43488SOL    HW237515   3.077   2.538  10.215 -0.1208  0.3793  0.1485
43489SOL     OW37516   5.961   9.458  10.001  0.2055  0.7023 -0.1019
43489SOL    HW137517   5.990   9.426   9.916  2.1463  0.8112  0.4793
43489SOL    HW237518   5.943   9.380  10.052 -3.4772  0.5664 -1.2953
43490SOL     OW37519  10.268   7.794   4.926 -0.1534 -0.7200  0.3960
43490SOL    HW137520  10.238   7.884   4.912  2.2471 -0.0188 -0.9301
43490SOL    HW237521  10.243   7.748   4.846  1.1491 -0.4328 -0.2024
43491SOL     OW37522   6.940   8.538   3.548 -0.4344  0.5750 -0.2683
43491SOL    HW137523   6.907   8.468   3.492 -0.7313 -1.5975  2.4459
43491SOL    HW237524   6.862   8.570   3.594  0.0417  1.1539  0.1456
43492SOL     OW37525  12.576   4.812   4.680  0.9886 -0.7496  0.3946
43492SOL    HW137526  12.664   4.844   4.658  0.2294  1.3749  0.2316
43492SOL    HW237527  12.567   4.830   4.773  0.0937  0.7679  0.0456
43493SOL     OW37528  11.976   5.576   6.012 -0.3835  0.2529 -0.7231
43493SOL    HW137529  11.953   5.667   5.997  0.0782  0.3551 -0.8215
43493SOL    HW237530  12.001   5.543   5.926  3.0662  1.0576 -0.2064
43494SOL     OW37531   0.712  12.114   3.707 -0.1390  0.5217 -0.0984
43494SOL    HW137532   0.643  12.157   3.657  1.0050  0.4783 -1.7788
43494SOL    HW237533   0.675  12.029   3.731 -0.6304  0.4492 -1.0796
43495SOL     OW37534  12.297  11.732   9.348 -0.3794 -0.3964  0.3661
43495SOL    HW137535  12.299  11.694   9.436 -0.7270 -0.6896  0.2451
43495SOL    HW237536  12.387  11.761   9.334 -0.6552  1.1498  1.4675
43496SOL     OW37537   8.359  10.347   2.998 -0.2877 -0.3438 -0.2272
43496SOL    HW137538   8.269  10.328   3.023 -0.2950 -0.3722 -0.2731
43496SOL    HW237539   8.354  10.369   2.905  0.0186 -2.3922 -0.7730
43497SOL     OW37540   5.512  12.400   7.499 -0.6475  0.3483  0.2928
43497SOL    HW137541   5.538  12.473   7.443 -1.2692  2.6566  2.7540
43497SOL    HW237542   5.582  12.336   7.490  0.2040  1.4658 -1.5910
43498SOL     OW37543   2.116   6.739   0.779  0.0437 -0.3087 -0.3736
43498SOL    HW137544   2.078   6.802   0.719  0.7771 -0.1984 -0.7295
43498SOL    HW237545   2.067   6.751   0.861  0.4961  1.0654 -0.2829
43499SOL     OW37546  10.507   0.487   0.618 -0.0944 -0.0872  0.1982
43499SOL    HW137547  10.421   0.445   0.620 -1.6780  2.8954  1.7731
43499SOL    HW237548  10.510   0.531   0.533  0.0699 -0.5195 -0.0232
43500SOL     OW37549   1.001  10.745   3.659  0.7322 -0.0776  0.0038
43500SOL    HW137550   0.931  10.711   3.603 -0.1605 -1.5305  1.8999
43500SOL    HW237551   0.955  10.781   3.735  2.0001 -0.5397  1.0185
43501SOL     OW37552   9.384   0.427   9.166 -0.5260  0.0456 -0.3530
43501SOL    HW137553   9.420   0.513   9.186 -2.2433  0.7805 -0.2218
43501SOL    HW237554   9.456   0.366   9.180  0.3728  1.3245  0.7943
43502SOL     OW37555   4.014   4.340   2.617 -0.3710  0.0585 -0.7722
43502SOL    HW137556   3.936   4.348   2.561 -0.5600 -2.9684 -1.1120
43502SOL    HW237557   4.068   4.273   2.574  1.5673  0.7700  0.4300
43503SOL     OW37558   1.089   9.380   8.626 -0.1190 -0.2041 -0.0908
43503SOL    HW137559   1.058   9.353   8.712  0.4840 -1.8452 -0.3467
43503SOL    HW237560   1.183   9.362   8.627  0.2475  1.5134 -0.4793
43504SOL     OW37561  10.823   5.461   0.803  0.2623 -0.2271  0.3682
43504SOL    HW137562  10.802   5.554   0.795  1.2921  0.0241  0.4983
43504SOL    HW237563  10.742   5.421   0.837  0.0690  0.7449  1.1023
43505SOL     OW37564   7.734   9.105   3.740  0.1527  0.1809  0.2985
43505SOL    HW137565   7.695   9.154   3.667 -0.6100  1.4294  1.4834
43505SOL    HW237566   7.814   9.153   3.760  0.0096  0.2507  0.7092
43506SOL     OW37567   8.262  12.512  10.645  0.5637  0.6942  0.5154
43506SOL    HW137568   8.184  12.475  10.604  1.5552 -1.0127  0.0653
43506SOL    HW237569   8.294  12.577  10.582  1.0340 -0.5894 -0.6288
43507SOL     OW37570  10.674   0.032  10.372 -0.8235  0.6971 -0.1476
43507SOL    HW137571  10.607  -0.013  10.319 -1.7637  1.7457  0.0924
43507SOL    HW237572  10.688  -0.025  10.447 -0.8972  0.1018 -0.5796
43508SOL     OW37573  11.301   6.135   6.041 -1.5072  0.6643 -0.3364
43508SOL    HW137574  11.365   6.205   6.031  2.9957 -2.9768 -0.8102
43508SOL    HW237575  11.285   6.104   5.952  0.3380 -1.6217  0.0151
43509SOL     OW37576   5.096   4.115   5.488 -0.7665 -0.2435  0.4486
43509SOL    HW137577   5.040   4.167   5.546 -0.6572 -1.3979  1.6559
43509SOL    HW237578   5.034   4.062   5.437 -0.8370 -0.8650  1.1478
43510SOL     OW37579   2.915   5.109   0.868 -0.0785 -0.5310 -0.5794
43510SOL    HW137580   2.868   5.156   0.937 -1.0204 -3.5856  1.0338
43510SOL    HW237581   2.988   5.067   0.913  1.4489  0.2538 -2.1902
43511SOL     OW37582   6.372   7.865   3.615 -0.3428  0.4067 -0.0800
43511SOL    HW137583   6.311   7.938   3.599 -1.0648 -0.0861  0.3363
43511SOL    HW237584   6.453   7.907   3.643 -0.7035  1.0637  0.0101
43512SOL     OW37585   5.032  11.100   4.438 -0.2819 -0.0503  0.0239
43512SOL    HW137586   5.098  11.040   4.403 -1.1033 -0.9372 -0.0529
43512SOL    HW237587   5.082  11.164   4.489  0.6094 -0.9431  0.3046
43513SOL     OW37588   1.006   7.322   9.353 -0.2148  0.0219 -0.2318
43513SOL    HW137589   0.965   7.408   9.353  0.8534  0.6471 -3.1092
43513SOL    HW237590   0.949   7.269   9.297 -0.1920 -0.7739  0.4880
43514SOL     OW37591   4.404  10.067   8.735 -0.2871  0.4406 -0.0845
43514SOL    HW137592   4.337  10.124   8.699  0.1947  0.6501 -0.6677
43514SOL    HW237593   4.360  10.018   8.805 -0.6885  1.5558  0.4632
43515SOL     OW37594   0.523  11.288   2.259 -0.9938 -0.5618 -0.1573
43515SOL    HW137595   0.590  11.285   2.327 -0.2054 -0.6321 -0.9222
43515SOL    HW237596   0.440  11.287   2.307 -0.4528  0.1250  0.8284
43516SOL     OW37597   2.876   6.494   1.406  0.6460  0.6082  0.5777
43516SOL    HW137598   2.868   6.399   1.393  1.4464  0.5714  0.2931
43516SOL    HW237599   2.953   6.504   1.462  0.9611  1.1162  0.0669
43517SOL     OW37600   1.218  12.035   2.897  0.2583 -0.2531 -0.0554
43517SOL    HW137601   1.188  11.951   2.860 -0.6434 -0.1693  0.4464
43517SOL    HW237602   1.166  12.045   2.977  0.3369  0.8015 -0.1306
43518SOL     OW37603   7.632   6.472   3.385  0.3405 -0.7703  0.1146
43518SOL    HW137604   7.617   6.537   3.454  0.8730 -1.6478  1.0930
43518SOL    HW237605   7.678   6.520   3.316  2.1475 -0.4028  1.4842
43519SOL     OW37606   5.819   0.647   2.234  0.0934 -0.5682 -0.0225
43519SOL    HW137607   5.850   0.560   2.256 -0.4413 -1.3394 -2.1170
43519SOL    HW237608   5.890   0.686   2.183  0.4123  0.3427  1.0540
43520SOL     OW37609  10.929   1.450   6.126 -0.2088 -0.1388 -0.6759
43520SOL    HW137610  10.944   1.534   6.082  2.2750  0.6883  1.5058
43520SOL    HW237611  11.016   1.410   6.131 -0.5807 -0.7647  2.3032
43521SOL     OW37612   9.069   3.912   0.428 -0.2180  0.8389 -0.2679
43521SOL    HW137613   9.145   3.959   0.394 -0.0954  2.3189  1.8478
43521SOL    HW237614   8.994   3.951   0.382  0.0800  1.4597 -0.2326
43522SOL     OW37615  10.538   5.903  10.055  0.0837 -1.4809  0.2515
43522SOL    HW137616  10.488   5.849  10.116  0.6551 -1.6582  0.5706
43522SOL    HW237617  10.519   5.993  10.081 -0.3201 -1.5397  0.1663
43523SOL     OW37618   9.682  10.502   1.991  0.3206 -0.0864 -0.1877
43523SOL    HW137619   9.771  10.518   1.959  0.0141 -0.7795 -1.4580
43523SOL    HW237620   9.686  10.413   2.026  0.4808  0.4238  1.1476
43524SOL     OW37621   9.253   3.145   9.064 -0.1937 -0.0265  0.0510
43524SOL    HW137622   9.262   3.108   9.152  0.5151  0.5425  0.2260
43524SOL    HW237623   9.244   3.239   9.079 -1.5295 -0.0614 -0.4144
43525SOL     OW37624   9.210   2.078   0.815  0.0067  0.1284  0.2649
43525SOL    HW137625   9.132   2.092   0.763  0.3910 -0.3512 -0.4572
43525SOL    HW237626   9.210   2.149   0.879 -1.8821 -0.7663  1.3423
43526SOL     OW37627  12.386  11.158   3.415  0.0948  0.6360  0.5385
43526SOL    HW137628  12.324  11.169   3.487  0.9816 -1.2151  1.6498
43526SOL    HW237629  12.345  11.093   3.359  0.0710  1.0137  0.1098
43527SOL     OW37630  12.444   7.029  11.134  0.4791  0.8249  0.2550
43527SOL    HW137631  12.369   6.993  11.086  0.3088  0.8832  0.4745
43527SOL    HW237632  12.413   7.114  11.165  0.0951  0.1876  1.6943
43528SOL     OW37633  12.074   0.358   8.396  0.3581  0.0519  0.5144
43528SOL    HW137634  12.134   0.284   8.392  1.8082  1.2284 -1.0512
43528SOL    HW237635  12.131   0.435   8.400 -1.0215  1.1888 -0.5455
43529SOL     OW37636   4.374   0.115   6.500 -0.1426 -0.3219  0.1210
43529SOL    HW137637   4.388   0.209   6.503 -0.8715 -0.0839 -2.0565
43529SOL    HW237638   4.411   0.088   6.416  0.4491 -2.0771  0.8826
43530SOL     OW37639   5.728   6.813   8.787 -0.2537  0.6008 -0.2541
43530SOL    HW137640   5.757   6.866   8.713  1.5944 -0.1682 -0.1210
43530SOL    HW237641   5.721   6.724   8.751  1.4949  0.0604  0.6445
43531SOL     OW37642   5.004  12.063   1.631  0.7155 -0.0067  0.1584
43531SOL    HW137643   4.967  11.981   1.597 -0.7213  0.2646  0.9915
43531SOL    HW237644   4.962  12.131   1.579  2.7872  0.2148 -1.3445
43532SOL     OW37645  10.201   5.048   6.794 -0.0588 -0.3801  0.4373
43532SOL    HW137646  10.271   5.097   6.837  1.4424 -1.8773 -0.2100
43532SOL    HW237647  10.243   4.968   6.762 -1.8210 -0.8072 -0.9806
43533SOL     OW37648   4.882  12.284   1.516 -0.0780 -0.0879 -0.3830
43533SOL    HW137649   4.951  12.349   1.531 -1.6020  1.6797 -0.6912
43533SOL    HW237650   4.813  12.307   1.579 -2.5460  1.5092 -3.3681
43534SOL     OW37651   7.598   9.005   9.793  0.0701 -0.8684  0.3910
43534SOL    HW137652   7.563   9.055   9.719 -1.8368 -2.7039 -0.0570
43534SOL    HW237653   7.643   9.070   9.847 -2.5025  1.3904  0.0185
43535SOL     OW37654   4.374   2.990   7.661 -0.6609  0.4518 -0.1799
43535SOL    HW137655   4.288   2.972   7.698 -1.0193  1.6207 -0.4145
43535SOL    HW237656   4.361   3.065   7.603  0.7954  1.7379  1.0462
43536SOL     OW37657   0.064  12.523   3.349 -0.5369 -0.1375  0.4315
43536SOL    HW137658   0.069  12.471   3.269 -1.6128 -0.4266  0.5328
43536SOL    HW237659  -0.011  12.486   3.396 -1.1649  1.3142  0.6257
43537SOL     OW37660   7.151   3.058   2.040 -0.1794 -0.1483 -0.5217
43537SOL    HW137661   7.126   2.983   2.094  0.6030 -0.1963 -0.2185
43537SOL    HW237662   7.118   3.036   1.953  1.2593 -1.5041 -0.7670
43538SOL     OW37663   2.229   1.742   3.643  0.0614 -0.0638  0.4565
43538SOL    HW137664   2.220   1.656   3.600  0.9040 -0.5386  1.1945
43538SOL    HW237665   2.306   1.781   3.600 -0.6694  0.5871 -0.2895
43539SOL     OW37666   1.415   0.456   2.978 -0.1343 -0.4563  0.2562
43539SOL    HW137667   1.446   0.370   3.005 -0.9707 -1.2230 -1.0946
43539SOL    HW237668   1.371   0.491   3.055 -1.2338 -1.9617  0.3612
43540SOL     OW37669  11.807   7.414   6.318 -0.0569  0.2890 -0.0571
43540SOL    HW137670  11.875   7.480   6.334  0.9731 -0.6614 -0.3769
43540SOL    HW237671  11.833   7.339   6.371  0.1640 -0.7480 -1.5641
43541SOL     OW37672  11.749   4.808   3.703  0.0901  0.5766 -0.4976
43541SOL    HW137673  11.703   4.781   3.624 -0.8307 -0.3023  0.3143
43541SOL    HW237674  11.744   4.732   3.761  2.3559  0.5193 -0.2565
43542SOL     OW37675   7.774   0.869  11.344 -0.2155 -0.2069  0.8159
43542SOL    HW137676   7.703   0.806  11.354 -0.6500  0.4940  2.3343
43542SOL    HW237677   7.730   0.954  11.337  0.4693  0.2602  1.9951
43543SOL     OW37678   7.791   7.133   7.601 -0.5405  0.3285 -0.1183
43543SOL    HW137679   7.771   7.056   7.654 -0.7782  1.2060  1.1260
43543SOL    HW237680   7.871   7.110   7.554 -0.9066 -0.8615 -0.1895
43544SOL     OW37681   9.330  10.858   8.476 -0.3228  0.2986 -0.5320
43544SOL    HW137682   9.414  10.813   8.479 -0.9198 -0.8076  0.3561
43544SOL    HW237683   9.305  10.856   8.383  0.6308  0.6709 -0.8060
43545SOL     OW37684  10.497   1.536   6.641  0.7874  0.4388  0.5151
43545SOL    HW137685  10.466   1.627   6.646 -0.1301  0.2070 -0.4215
43545SOL    HW237686  10.490   1.503   6.730 -0.6703  0.7404  0.5420
43546SOL     OW37687   4.610   6.238   4.752 -0.0324 -0.2700 -1.2550
43546SOL    HW137688   4.618   6.332   4.737 -2.2413 -0.0511 -1.4116
43546SOL    HW237689   4.665   6.198   4.684  2.1287  0.8591 -0.2832
43547SOL     OW37690   4.449   2.791   4.199  0.1465 -0.1378  0.0958
43547SOL    HW137691   4.445   2.867   4.256  2.5318  0.3566 -0.2935
43547SOL    HW237692   4.423   2.823   4.113  0.3745  0.0492  0.0972
43548SOL     OW37693   8.098   5.221   1.465  0.1759 -0.1432  0.1821
43548SOL    HW137694   8.150   5.198   1.542 -0.4590  0.3410  0.7762
43548SOL    HW237695   8.129   5.308   1.441  0.3250 -0.2662 -0.0692
43549SOL     OW37696   1.069   9.391  10.561  0.1978 -0.4721 -0.2999
43549SOL    HW137697   0.981   9.354  10.554  0.3315 -0.7435 -0.5629
43549SOL    HW237698   1.055   9.482  10.587 -0.1382 -0.6652  0.2017
43550SOL     OW37699  12.045   0.713  10.355  0.2926 -0.0610 -0.3569
43550SOL    HW137700  11.986   0.788  10.344  1.1433  0.9002  1.2138
43550SOL    HW237701  11.993   0.648  10.401  0.8001  1.3910  2.4909
43551SOL     OW37702   3.109   4.675  10.174  0.0356  0.2018 -0.3816
43551SOL    HW137703   3.139   4.736  10.107  0.4667  0.5546  0.1265
43551SOL    HW237704   3.076   4.731  10.244  0.3389 -0.1537  0.0477
43552SOL     OW37705  12.150   2.188   9.279 -0.2787  0.3091  0.1662
43552SOL    HW137706  12.083   2.233   9.330 -0.7192 -1.0420  0.8454
43552SOL    HW237707  12.118   2.189   9.189 -0.5941  0.7695  0.2854
43553SOL     OW37708   2.123   8.071  11.342 -0.2133  0.8476 -0.2424
43553SOL    HW137709   2.170   8.115  11.272  0.8463 -0.7412 -0.5753
43553SOL    HW237710   2.159   8.108  11.423  1.5870 -0.2532 -0.4969
43554SOL     OW37711  10.320   7.842   1.847 -0.1819  0.4234  0.9492
43554SOL    HW137712  10.342   7.759   1.889  0.1943  0.8730  1.6479
43554SOL    HW237713  10.393   7.857   1.786 -0.7264 -0.2245  0.1028
43555SOL     OW37714   6.102   1.521   4.022  0.0322  0.2006  0.0186
43555SOL    HW137715   6.008   1.515   4.043 -0.3387  1.5061 -1.1405
43555SOL    HW237716   6.141   1.555   4.103 -0.7326  1.0995  0.0320
43556SOL     OW37717   6.447   3.750   3.785 -0.0854  0.4124 -0.0798
43556SOL    HW137718   6.466   3.675   3.842 -2.6900  0.8252  1.4899
43556SOL    HW237719   6.428   3.710   3.700 -0.8506 -0.6985  0.5796
43557SOL     OW37720  11.715  11.909   7.289  0.3884 -0.2348 -0.1469
43557SOL    HW137721  11.677  11.828   7.255  1.4823 -0.8530  0.0518
43557SOL    HW237722  11.780  11.880   7.353 -0.1482  0.8524  0.9321
43558SOL     OW37723   2.321   7.033   0.145  0.3411 -0.6489 -0.7369
43558SOL    HW137724   2.321   7.128   0.149 -1.1741 -0.6510  0.0206
43558SOL    HW237725   2.243   7.012   0.093  0.7804 -1.4720 -1.0795
43559SOL     OW37726   6.668  10.443  11.964 -0.0882  0.7476 -0.8465
43559SOL    HW137727   6.639  10.397  12.043 -2.4444  0.3612 -1.8704
43559SOL    HW237728   6.739  10.388  11.930 -0.3418 -0.1017 -0.0519
43560SOL     OW37729   0.867   1.721   9.599  0.9742  0.6519  0.2453
43560SOL    HW137730   0.885   1.706   9.506 -0.9387  0.5394 -0.1667
43560SOL    HW237731   0.784   1.769   9.599 -1.4642 -3.1204  1.9335
43561SOL     OW37732   3.676  12.527   2.402  0.0511  0.0844 -0.1100
43561SOL    HW137733   3.764  12.501   2.375  1.2328  0.8573  2.6658
43561SOL    HW237734   3.641  12.450   2.448 -0.3870  0.0874 -0.4281
43562SOL     OW37735   5.592   0.651  12.080  0.1548  0.1467  0.3926
43562SOL    HW137736   5.664   0.680  12.024 -0.4072 -0.7915 -0.8900
43562SOL    HW237737   5.620   0.565  12.112 -0.2377 -0.0704  0.1630
43563SOL     OW37738   0.549   5.758   4.380  0.0124  0.5141  0.1160
43563SOL    HW137739   0.534   5.762   4.474 -3.0569 -1.2914 -0.1205
43563SOL    HW237740   0.477   5.809   4.342  0.7904  0.6438 -1.2502
43564SOL     OW37741  12.116   3.442   6.568 -0.2788 -0.4289 -0.1061
43564SOL    HW137742  12.044   3.472   6.623  0.4639 -0.0275  0.6862
43564SOL    HW237743  12.163   3.379   6.623  1.2631  0.9815  0.2609
43565SOL     OW37744   0.448   4.554  12.583  0.0207  0.1280  0.0478
43565SOL    HW137745   0.515   4.615  12.552  1.0618 -0.5653  0.8818
43565SOL    HW237746   0.460   4.550  12.678  0.2942 -1.7081 -0.0232
43566SOL     OW37747   6.048  11.306   6.813  0.3973  0.0995  0.5797
43566SOL    HW137748   5.954  11.320   6.806  0.0089 -2.7176 -1.4244
43566SOL    HW237749   6.083  11.340   6.730  0.7604 -1.1660  0.1973
43567SOL     OW37750  10.827   5.357   3.413  0.1536  0.4733  0.1482
43567SOL    HW137751  10.753   5.306   3.446  1.0309  0.1432  1.6883
43567SOL    HW237752  10.797   5.448   3.419 -1.5318  0.2401 -2.8966
43568SOL     OW37753   5.361   8.535   8.978 -0.1419  0.2264  0.0714
43568SOL    HW137754   5.269   8.562   8.981 -0.1209  0.4143 -0.9256
43568SOL    HW237755   5.400   8.576   9.055 -0.6837  0.9209 -0.0128
43569SOL     OW37756   1.483  11.774   2.316  0.0220 -0.2905  0.6701
43569SOL    HW137757   1.514  11.864   2.322  1.9442 -0.9486  1.4080
43569SOL    HW237758   1.412  11.777   2.252  0.6163  1.6002  0.0338
43570SOL     OW37759   8.339   6.948   5.683  0.4601  0.0388  0.2186
43570SOL    HW137760   8.387   7.029   5.703 -0.2810  0.2895  1.0483
43570SOL    HW237761   8.255   6.977   5.648  0.7982 -0.4004 -1.0221
43571SOL     OW37762   1.100  11.159   5.977  0.1138  0.7163 -0.2654
43571SOL    HW137763   1.124  11.199   6.061  1.4556 -0.9004  0.1767
43571SOL    HW237764   1.119  11.066   5.988 -0.3628  0.3516 -2.1318
43572SOL     OW37765   4.276  12.378  11.024 -0.7594 -0.0725 -0.4177
43572SOL    HW137766   4.279  12.360  11.118 -2.5101  1.5701  0.0180
43572SOL    HW237767   4.339  12.317  10.986 -0.4711 -1.2211  1.7379
43573SOL     OW37768   0.656   1.676   6.810 -0.0663  0.0489 -0.1582
43573SOL    HW137769   0.647   1.649   6.719 -2.4401  2.1567 -0.6942
43573SOL    HW237770   0.580   1.636   6.854  0.3791  0.0354  0.6118
43574SOL     OW37771  10.082   0.860   8.099  0.5662  0.2902  0.0064
43574SOL    HW137772  10.033   0.792   8.052 -0.1641  0.5180  0.4154
43574SOL    HW237773  10.018   0.930   8.112  1.4547  1.3272 -0.9326
43575SOL     OW37774   2.082   2.257   8.185  0.7088  0.5756 -0.3969
43575SOL    HW137775   1.997   2.213   8.184  0.8608  0.1921  0.9984
43575SOL    HW237776   2.104   2.271   8.093 -1.5708  2.0774 -0.7848
43576SOL     OW37777   2.709  12.571  11.915  0.4987 -0.0836  0.3617
43576SOL    HW137778   2.615  12.585  11.908  0.9239  2.6722 -1.1363
43576SOL    HW237779   2.718  12.481  11.945 -2.5888 -0.6921 -0.2675
43577SOL     OW37780   0.098   8.402  10.138  0.0666  1.0850 -0.5531
43577SOL    HW137781   0.022   8.344  10.132  0.3836  0.7985 -2.3008
43577SOL    HW237782   0.094   8.437  10.227 -1.9534  0.8604 -0.5040
43578SOL     OW37783  11.591   6.673   6.633 -0.3324 -0.4274  0.0700
43578SOL    HW137784  11.505   6.660   6.674 -0.6967  1.5699  0.0176
43578SOL    HW237785  11.630   6.745   6.681  1.2217 -1.1218 -0.1092
43579SOL     OW37786  11.104  10.530   2.855 -0.2829  0.3383 -0.1447
43579SOL    HW137787  11.183  10.541   2.802 -0.3387 -0.6649 -0.4467
43579SOL    HW237788  11.082  10.437   2.848 -0.1288  0.1067  1.8947
43580SOL     OW37789   8.925   4.956   0.121  0.2632 -0.0448 -0.0918
43580SOL    HW137790   8.858   5.007   0.167  1.0740  0.6549  0.3177
43580SOL    HW237791   8.978   4.917   0.190 -0.4911 -1.6961 -0.3835
43581SOL     OW37792   7.789   8.903  11.795 -0.5116 -0.2643  0.4971
43581SOL    HW137793   7.873   8.870  11.825 -0.0215 -0.5253 -1.0576
43581SOL    HW237794   7.810   8.989  11.757 -0.9226 -0.3672  0.0261
43582SOL     OW37795   2.383  11.967   9.872 -0.4281 -0.2922 -0.1831
43582SOL    HW137796   2.408  12.045   9.921 -0.0918 -0.2603 -0.4042
43582SOL    HW237797   2.337  11.913   9.937  0.4709 -0.4815  0.3196
43583SOL     OW37798   1.612   1.450   5.120  0.7041 -0.2325 -0.4098
43583SOL    HW137799   1.616   1.527   5.177 -1.0096 -0.3078 -0.1169
43583SOL    HW237800   1.631   1.483   5.033  0.4493  0.4446 -0.2147
43584SOL     OW37801   1.025   3.509   9.050  0.7881  0.0218 -0.2545
43584SOL    HW137802   1.089   3.438   9.063  0.7005  0.2355  1.5947
43584SOL    HW237803   0.943   3.473   9.083  0.5244  0.6287 -0.2509
43585SOL     OW37804   9.741   1.880   6.218 -0.5023 -0.0386  0.2063
43585SOL    HW137805   9.785   1.810   6.266 -0.8194 -0.6062 -0.3228
43585SOL    HW237806   9.717   1.841   6.134 -0.3433  0.8187 -0.2499
43586SOL     OW37807   4.018   2.602   4.778  0.5983 -0.1640  0.1810
43586SOL    HW137808   3.977   2.672   4.726 -0.1488 -1.7002 -1.4126
43586SOL    HW237809   3.953   2.532   4.778  1.8474 -1.3516  0.6080
43587SOL     OW37810   1.689   3.074  11.620  0.1111 -0.9895  0.3349
43587SOL    HW137811   1.769   3.088  11.569 -1.1879 -1.6432 -2.0626
43587SOL    HW237812   1.706   2.992  11.667  1.3482 -0.3796  1.0194
43588SOL     OW37813   2.686   3.735  11.460 -0.4865 -0.2184  0.3542
43588SOL    HW137814   2.629   3.759  11.533  0.5954 -1.1895  1.5449
43588SOL    HW237815   2.667   3.643  11.444  1.1620 -0.7362  1.1856
43589SOL     OW37816   4.292   2.317   0.839  0.3160  0.1493  0.2543
43589SOL    HW137817   4.269   2.277   0.755 -1.3238 -1.6968  1.5190
43589SOL    HW237818   4.388   2.323   0.837  0.3427 -0.2134 -1.5494
43590SOL     OW37819   7.093   1.323   9.050  0.6977  0.0467  0.1945
43590SOL    HW137820   7.112   1.239   9.092 -0.6146  0.5346  1.8921
43590SOL    HW237821   7.011   1.308   9.003  1.8851 -0.3454 -1.8460
43591SOL     OW37822   0.978   9.355   0.177  0.6373  0.3950 -0.4830
43591SOL    HW137823   0.989   9.420   0.108  1.1528 -0.4041 -1.1771
43591SOL    HW237824   0.989   9.271   0.132 -1.2490 -0.2311  0.1525
43592SOL     OW37825   2.677   9.051   3.551  0.4180  0.0849 -0.3678
43592SOL    HW137826   2.734   9.128   3.552 -1.6555  1.7003 -0.4201
43592SOL    HW237827   2.593   9.083   3.518 -1.1686 -1.7137  1.5949
43593SOL     OW37828  10.459   4.990   4.155 -0.6981  0.0600 -0.2752
43593SOL    HW137829  10.548   4.963   4.176 -0.6249  1.1575  0.8897
43593SOL    HW237830  10.459   5.085   4.164 -2.2273  0.0051  0.7322
43594SOL     OW37831  11.952  11.133   3.047 -0.1082  0.0145  0.5166
43594SOL    HW137832  11.864  11.151   3.081 -1.1926 -3.4034 -0.0758
43594SOL    HW237833  11.943  11.048   3.004  3.8963 -1.4032  2.0464
43595SOL     OW37834   2.206  10.068   8.217 -0.1273  0.1709 -0.7570
43595SOL    HW137835   2.296  10.055   8.188 -0.2107 -0.3397 -0.7884
43595SOL    HW237836   2.194  10.006   8.289 -0.6712 -0.2610 -1.2122
43596SOL     OW37837   8.703   0.361  11.087  0.3013 -0.4971  0.5850
43596SOL    HW137838   8.768   0.401  11.145 -0.9012  1.8265  0.4868
43596SOL    HW237839   8.620   0.375  11.132 -0.3817 -1.0051 -0.4877
43597SOL     OW37840   9.097   7.102   3.597  0.5571 -0.0974  0.1245
43597SOL    HW137841   9.126   7.144   3.678 -1.3400 -1.4528  1.6059
43597SOL    HW237842   9.074   7.175   3.540  0.3330  0.9074  1.4429
43598SOL     OW37843   2.555   5.340  11.585  0.3930  0.5733  0.2961
43598SOL    HW137844   2.538   5.280  11.657 -0.7834  2.1803  1.4321
43598SOL    HW237845   2.570   5.425  11.628  0.9827  1.3148 -1.2942
43599SOL     OW37846   6.286   8.695   9.858  0.1310  0.2088  0.1093
43599SOL    HW137847   6.331   8.626   9.810 -0.0915  0.3920 -0.3740
43599SOL    HW237848   6.199   8.699   9.818  0.3736  1.2512 -0.3580
43600SOL     OW37849  11.844  12.081   9.105  0.2133 -0.5408 -0.4924
43600SOL    HW137850  11.911  12.014   9.089 -1.2624 -1.7780 -1.7841
43600SOL    HW237851  11.762  12.032   9.111 -0.7684  1.0657 -0.2689
43601SOL     OW37852   6.291  12.567  12.165  0.6008 -0.0172  0.2990
43601SOL    HW137853   6.231  12.561  12.090 -0.0314 -0.1535  0.8097
43601SOL    HW237854   6.280  12.656  12.197  0.6243 -0.0614  0.4308
43602SOL     OW37855   4.290  12.567   7.540  0.2594 -0.0892 -0.1125
43602SOL    HW137856   4.352  12.583   7.611  1.1900 -0.6491 -0.7622
43602SOL    HW237857   4.227  12.639   7.546  1.8185  1.3596 -0.3084
43603SOL     OW37858  10.849   7.614   8.607 -0.3768 -0.5949  0.1398
43603SOL    HW137859  10.804   7.665   8.539 -0.1987  1.2243  1.3046
43603SOL    HW237860  10.936   7.597   8.570 -1.4946 -3.0134 -1.5992
43604SOL     OW37861   7.495  10.887   8.723 -0.1415 -0.0767  0.5491
43604SOL    HW137862   7.427  10.952   8.703 -1.2728 -1.1459  0.7884
43604SOL    HW237863   7.457  10.804   8.696  1.5344 -0.5905 -0.3334
43605SOL     OW37864  11.357   7.849   1.711  0.3889 -0.0097 -0.3464
43605SOL    HW137865  11.439   7.803   1.693  1.0878  1.1103 -0.0958
43605SOL    HW237866  11.382   7.926   1.761 -0.8409  0.2845 -0.1321
43606SOL     OW37867   4.872   1.530   1.552 -0.3155 -0.2618 -0.3045
43606SOL    HW137868   4.910   1.452   1.513  1.4746  0.4187  0.0005
43606SOL    HW237869   4.893   1.523   1.645  0.2156  0.7675 -0.3381
43607SOL     OW37870   4.129   7.574  10.576  0.7918  0.2561 -0.0936
43607SOL    HW137871   4.087   7.539  10.498 -0.0458 -0.2365  0.5638
43607SOL    HW237872   4.181   7.648  10.544 -1.2872  1.4768 -0.8142
43608SOL     OW37873   7.067   0.269  10.487 -0.1003 -0.1042  0.1537
43608SOL    HW137874   7.089   0.307  10.572 -1.2095  1.0843 -0.0641
43608SOL    HW237875   7.070   0.342  10.426 -2.3670 -0.2963 -0.2683
43609SOL     OW37876  11.095  10.556   6.299  0.8411  0.1208 -0.5010
43609SOL    HW137877  11.032  10.621   6.267 -0.5225 -0.9416 -0.0972
43609SOL    HW237878  11.087  10.483   6.237  0.3176 -0.7617  0.5841
43610SOL     OW37879   7.300   2.342   1.986 -0.7960 -0.0926  0.5273
43610SOL    HW137880   7.381   2.313   2.028 -0.5651  0.2427  0.3201
43610SOL    HW237881   7.271   2.417   2.037 -0.0111  0.9054 -0.4387
43611SOL     OW37882   6.232   7.784   5.333 -0.1887 -0.0790 -0.1829
43611SOL    HW137883   6.154   7.823   5.373 -0.7127 -1.8940  0.6758
43611SOL    HW237884   6.285   7.756   5.407  1.7770  1.9508 -0.7386
43612SOL     OW37885   2.415   5.693   9.426  0.1166 -0.1066  0.2572
43612SOL    HW137886   2.424   5.609   9.382  0.2442  0.0222  0.0346
43612SOL    HW237887   2.503   5.713   9.459 -0.1239 -0.5266  1.1719
43613SOL     OW37888   6.367   4.869  10.079 -0.0449  0.4309  0.2252
43613SOL    HW137889   6.301   4.865  10.009  0.2205 -1.1925  0.0354
43613SOL    HW237890   6.421   4.791  10.066 -0.3111 -0.2087  2.5610
43614SOL     OW37891   2.856   0.149  10.176  0.2389  0.0532  0.3279
43614SOL    HW137892   2.788   0.185  10.120  0.3446 -1.1292 -0.6142
43614SOL    HW237893   2.838   0.184  10.263  0.3197  2.2932 -0.4907
43615SOL     OW37894   6.802   4.111   1.380  0.1552 -0.1693  0.2888
43615SOL    HW137895   6.796   4.083   1.471  1.0034  2.4875  1.2691
43615SOL    HW237896   6.886   4.077   1.350  0.9455  0.8580  1.2758
43616SOL     OW37897   9.890   9.861   5.330 -0.0670  0.1937  0.5750
43616SOL    HW137898   9.848   9.841   5.413  0.0224 -0.5822  0.4373
43616SOL    HW237899   9.822   9.907   5.280 -0.0800  0.7747  1.1089
43617SOL     OW37900   6.571   7.618   9.935  0.0296  0.2177 -0.0559
43617SOL    HW137901   6.563   7.522   9.930  1.5928 -0.0805  1.8984
43617SOL    HW237902   6.603   7.644   9.848 -0.3710 -1.0352 -0.6024
43618SOL     OW37903  12.370   9.961   6.252  0.0587 -0.2276  0.0872
43618SOL    HW137904  12.423   9.941   6.329 -0.0661  1.1167  0.5502
43618SOL    HW237905  12.332   9.877   6.226 -0.6025 -0.5747  2.0263
43619SOL     OW37906   1.387  10.719   9.660  0.3602 -0.5081 -0.2406
43619SOL    HW137907   1.384  10.718   9.755 -1.1176  1.1122 -0.2432
43619SOL    HW237908   1.312  10.667   9.633  0.9292 -1.1935 -0.5585
43620SOL     OW37909  12.593  10.486   2.915  0.3880  0.4757  0.1996
43620SOL    HW137910  12.672  10.533   2.943  1.2396 -0.3816 -0.6779
43620SOL    HW237911  12.554  10.454   2.996  0.3805  1.7475  0.7268
43621SOL     OW37912   1.920   9.265   9.224  0.2589 -0.0206  0.8374
43621SOL    HW137913   1.948   9.353   9.200 -0.7083 -0.3687 -1.8496
43621SOL    HW237914   1.831   9.277   9.259 -0.4714 -0.0233 -0.9217
43622SOL     OW37915   9.121  10.939  11.533  0.5505  0.1063 -0.1046
43622SOL    HW137916   9.194  10.878  11.526  0.5154  0.0443  0.0888
43622SOL    HW237917   9.163  11.024  11.548  0.5794  0.0630  0.0589
43623SOL     OW37918   0.396   0.817   4.594 -0.2899 -0.3112  0.2185
43623SOL    HW137919   0.452   0.861   4.659  0.5777  0.7739 -1.2208
43623SOL    HW237920   0.307   0.828   4.628  0.1143  0.5507  1.0393
43624SOL     OW37921   7.374   3.782   8.956 -0.0599  0.1254  0.5834
43624SOL    HW137922   7.323   3.746   8.884  1.6246 -0.6330 -0.3106
43624SOL    HW237923   7.381   3.711   9.019 -1.9848  0.9610  1.7939
43625SOL     OW37924  10.632   8.783   7.590  0.0982  0.4922 -0.4957
43625SOL    HW137925  10.629   8.875   7.615  1.0765  0.3283  0.2872
43625SOL    HW237926  10.725   8.767   7.571 -0.4453  0.4394 -3.6964
43626SOL     OW37927   2.225  11.950   0.623  0.1074  0.3046 -0.6844
43626SOL    HW137928   2.179  11.866   0.619  0.6950 -0.0284 -0.4392
43626SOL    HW237929   2.163  12.012   0.584 -0.8222 -0.0223  0.2106
43627SOL     OW37930  11.603  10.126  12.369 -0.1557 -0.2293  0.2004
43627SOL    HW137931  11.632  10.158  12.455 -0.3444 -0.8523  0.5002
43627SOL    HW237932  11.666  10.058  12.346 -0.6465 -0.7150  0.2765
43628SOL     OW37933   5.298   5.659   5.619  0.0347  0.0304  0.0534
43628SOL    HW137934   5.306   5.597   5.692 -2.2427  1.3756  1.5816
43628SOL    HW237935   5.261   5.607   5.548  0.1750 -0.8344  0.5926
43629SOL     OW37936  11.101   6.408   0.383 -0.0883 -0.3404 -0.1636
43629SOL    HW137937  11.120   6.479   0.443 -1.1535  0.7352 -1.0455
43629SOL    HW237938  11.164   6.339   0.406  2.0926  1.4740 -0.3262
43630SOL     OW37939   7.030   8.872   5.319 -0.1152 -0.5260 -0.4177
43630SOL    HW137940   7.115   8.860   5.361 -0.2280 -1.6593 -0.4634
43630SOL    HW237941   6.970   8.891   5.391  0.3948  1.7673 -0.5258
43631SOL     OW37942   9.984   4.317   2.248 -0.4115  0.4758 -0.1365
43631SOL    HW137943   9.910   4.342   2.304 -1.4874 -0.1061 -1.2671
43631SOL    HW237944  10.013   4.400   2.209 -0.1036  0.7826  0.7119
43632SOL     OW37945   1.709   3.472  12.546 -0.1234  0.1434 -0.0277
43632SOL    HW137946   1.766   3.418  12.492  0.9986  0.9057  0.3481
43632SOL    HW237947   1.676   3.539  12.487 -0.8381 -0.4370 -0.2995
43633SOL     OW37948   3.155   2.265   9.486  0.1304 -0.0318  0.0431
43633SOL    HW137949   3.124   2.253   9.397  1.7539  0.1864 -0.5773
43633SOL    HW237950   3.078   2.248   9.541 -1.2613  1.1793 -1.4246
43634SOL     OW37951   7.934   8.569   3.424 -0.0580 -0.3171  0.0862
43634SOL    HW137952   7.965   8.482   3.398  0.3275 -0.1903  0.1125
43634SOL    HW237953   7.892   8.554   3.509 -0.2350 -0.5224 -0.0349
43635SOL     OW37954   8.440   5.654  12.550  0.3807  0.2653  0.0642
43635SOL    HW137955   8.361   5.708  12.544  0.8171  0.9670  0.4385
43635SOL    HW237956   8.425   5.582  12.490 -0.2444  0.7870 -0.4188
43636SOL     OW37957   3.757   5.823  11.811 -0.3255 -0.5658 -0.1220
43636SOL    HW137958   3.771   5.862  11.897 -1.0133 -1.4438  0.4056
43636SOL    HW237959   3.677   5.864  11.779 -2.9359 -3.6651  1.8117
43637SOL     OW37960   2.302   7.452   2.214 -0.1461  0.0762  0.0591
43637SOL    HW137961   2.265   7.429   2.299 -0.0712  1.9645  0.6642
43637SOL    HW237962   2.396   7.463   2.231 -0.1921  0.8751 -0.1383
43638SOL     OW37963  12.027   5.226   7.850 -0.6659 -0.0901  0.1606
43638SOL    HW137964  11.997   5.302   7.800 -1.6732  0.0396  0.9166
43638SOL    HW237965  11.957   5.210   7.914  0.3742 -0.5199  1.2344
43639SOL     OW37966   0.976  11.610   7.424  0.3526 -0.3069 -0.8655
43639SOL    HW137967   1.033  11.606   7.500 -0.5277 -1.2142 -0.2326
43639SOL    HW237968   0.939  11.698   7.425  0.0589 -0.4332 -0.0108
43640SOL     OW37969  10.816   6.617   5.664 -0.3541  0.1332 -0.0868
43640SOL    HW137970  10.880   6.667   5.613  0.0567  0.9807  1.2018
43640SOL    HW237971  10.807   6.534   5.617  1.6656  0.0077 -0.3459
43641SOL     OW37972   3.838   6.779  11.352 -0.2443 -0.5914  0.1411
43641SOL    HW137973   3.842   6.729  11.270  1.7476 -1.6374  0.8207
43641SOL    HW237974   3.776   6.731  11.406 -0.7464 -0.5077 -0.3471
43642SOL     OW37975   9.694  10.425  10.430  0.2201  0.5049 -0.3872
43642SOL    HW137976   9.617  10.471  10.465 -0.5645  0.0442 -1.4551
43642SOL    HW237977   9.762  10.492  10.426 -0.3110  1.0842 -0.0286
43643SOL     OW37978   8.105   8.327   3.331  0.0414 -0.1697 -0.0975
43643SOL    HW137979   8.180   8.268   3.319 -0.4720 -0.3689 -3.1385
43643SOL    HW237980   8.034   8.270   3.359  0.5279 -0.3007  0.8990
43644SOL     OW37981  12.464   8.604   3.947 -0.2831 -0.0802  0.0836
43644SOL    HW137982  12.483   8.569   3.860  1.3674 -0.5246  0.5728
43644SOL    HW237983  12.493   8.535   4.007 -1.5569  0.1522  0.9903
43645SOL     OW37984   7.422   1.651   4.072  0.0725 -0.0236 -0.0222
43645SOL    HW137985   7.487   1.581   4.073  0.2181  0.0297 -2.1279
43645SOL    HW237986   7.441   1.701   3.992 -0.0958  2.3808  1.3320
43646SOL     OW37987   4.540   9.128   0.074  0.5290 -0.2805  0.0483
43646SOL    HW137988   4.570   9.214   0.102  3.3565 -1.4663  1.0421
43646SOL    HW237989   4.496   9.143  -0.009  2.7434  1.9085 -0.8384
43647SOL     OW37990  11.340   1.550   2.033  0.1673 -0.2058  0.1421
43647SOL    HW137991  11.308   1.569   1.945  1.8359  1.1434 -0.2147
43647SOL    HW237992  11.299   1.467   2.055 -3.5787  1.3182 -0.2359
43648SOL     OW37993   3.071   2.522   2.372  0.5651  0.1549  0.1583
43648SOL    HW137994   3.021   2.449   2.410 -0.5530  1.0987  0.5475
43648SOL    HW237995   3.043   2.599   2.421  0.5064  1.1174 -1.3166
43649SOL     OW37996  12.321   2.253   3.817  0.2402  0.1153 -0.0552
43649SOL    HW137997  12.259   2.233   3.887  0.2507 -1.8350 -0.5508
43649SOL    HW237998  12.330   2.171   3.768  1.2339  1.0672 -1.5609
43650SOL     OW37999   4.668   2.863   6.022 -0.3427  0.2806  0.0243
43650SOL    HW138000   4.634   2.909   5.945 -0.1488 -1.4853 -1.1531
43650SOL    HW238001   4.629   2.776   6.018  1.0650 -0.4293  0.9451
43651SOL     OW38002   3.421   0.261  11.013  0.6245  0.2452 -0.5019
43651SOL    HW138003   3.494   0.231  11.067 -0.3543  0.8310  1.2171
43651SOL    HW238004   3.362   0.186  11.009  0.4850  0.3475 -0.3743
43652SOL     OW38005   1.582   8.831   4.157 -0.3883  0.0198  0.1473
43652SOL    HW138006   1.529   8.761   4.195 -1.1645  0.2346 -0.5151
43652SOL    HW238007   1.531   8.862   4.082 -0.8047  2.3407  1.3118
43653SOL     OW38008   9.071  11.159   0.754  0.7819 -0.4213 -0.3490
43653SOL    HW138009   9.162  11.163   0.723  0.9035  1.2043  0.1115
43653SOL    HW238010   9.034  11.083   0.710  2.3328 -1.0616 -0.6299
43654SOL     OW38011   3.990   1.823  10.956 -0.2757 -0.0356 -0.4271
43654SOL    HW138012   4.069   1.863  10.920 -0.4482  1.2418  0.5336
43654SOL    HW238013   3.934   1.897  10.981 -1.2878 -0.8954 -0.0313
43655SOL     OW38014   8.048   9.915  10.540 -0.4834 -0.1879  0.0427
43655SOL    HW138015   7.952   9.917  10.545 -0.5861 -1.7601 -0.6350
43655SOL    HW238016   8.077   9.968  10.614 -1.8633  0.6607  0.0225
43656SOL     OW38017  10.192   3.720   8.757  0.2404 -0.0539  0.1349
43656SOL    HW138018  10.280   3.700   8.788 -0.4530 -3.3256  0.2898
43656SOL    HW238019  10.152   3.635   8.738 -2.7755  1.3050 -0.3149
43657SOL     OW38020   6.173  12.319   0.374  0.4521  0.0894 -0.4304
43657SOL    HW138021   6.265  12.312   0.399  0.4677  0.3563 -0.4098
43657SOL    HW238022   6.175  12.352   0.284  0.3709  0.6907 -0.2210
43658SOL     OW38023  11.420   3.608   4.544  0.1746  0.1329  0.2092
43658SOL    HW138024  11.403   3.579   4.454  1.8536 -0.6127  0.1031
43658SOL    HW238025  11.510   3.582   4.561  0.5126  1.9466  1.4643
43659SOL     OW38026   9.837   6.817   6.345  0.4094 -0.6306  0.1407
43659SOL    HW138027   9.868   6.851   6.261  0.4801  1.0252  0.8020
43659SOL    HW238028   9.750   6.782   6.325 -0.5001  1.6814 -0.2674
43660SOL     OW38029   5.295  10.839   5.392 -0.2739 -0.5164  0.2057
43660SOL    HW138030   5.263  10.857   5.481 -0.5656  0.5811 -0.1074
43660SOL    HW238031   5.225  10.789   5.351 -0.3169 -0.6650  0.4583
43661SOL     OW38032  10.290   5.391   1.241 -0.3195  0.0383 -0.1031
43661SOL    HW138033  10.197   5.390   1.217 -0.1196 -1.4074 -0.9249
43661SOL    HW238034  10.335   5.354   1.166  0.7014 -1.2889  1.1010
43662SOL     OW38035   3.018   0.803   8.644 -0.4525  0.7770  0.1488
43662SOL    HW138036   2.955   0.738   8.612  0.7813  0.0193 -0.8620
43662SOL    HW238037   2.971   0.851   8.712 -2.1533  0.3401 -0.6557
43663SOL     OW38038  11.232  10.709  10.563 -0.4150 -0.1840  0.0147
43663SOL    HW138039  11.209  10.633  10.510 -1.1401 -0.1730  0.3119
43663SOL    HW238040  11.283  10.673  10.635  2.7293  0.0237 -1.8742
43664SOL     OW38041   3.070   9.278  10.962  0.4944  0.2276  0.3809
43664SOL    HW138042   2.984   9.310  10.990 -0.6461 -1.1250 -1.3282
43664SOL    HW238043   3.064   9.272  10.867  1.6195 -2.1665  0.3859
43665SOL     OW38044   1.803   7.256   3.611  0.4775  0.2028  0.0069
43665SOL    HW138045   1.793   7.337   3.661 -0.3264  0.6291 -0.8253
43665SOL    HW238046   1.775   7.278   3.523  0.0391 -1.0398 -0.1818
43666SOL     OW38047   1.374   9.788  11.326  0.0301  0.1294  0.2213
43666SOL    HW138048   1.355   9.773  11.233  0.0627  0.9918  0.0757
43666SOL    HW238049   1.314   9.729  11.372 -1.9360  1.6444 -0.2732
43667SOL     OW38050  10.460   6.153  10.098  0.4002 -0.2588 -0.8794
43667SOL    HW138051  10.405   6.210  10.045  0.2925 -0.2307 -0.7350
43667SOL    HW238052  10.470   6.198  10.181 -1.1349 -1.2571 -0.1237
43668SOL     OW38053   4.041   4.284   4.085 -0.3176  0.2445 -0.3115
43668SOL    HW138054   3.970   4.305   4.145 -1.7791 -0.1734 -1.8241
43668SOL    HW238055   4.092   4.365   4.078 -2.0609  1.3363 -1.0468
43669SOL     OW38056   9.663   3.943   3.861 -0.4167 -0.3035  0.6232
43669SOL    HW138057   9.689   4.031   3.832 -1.4961 -0.2312 -0.1833
43669SOL    HW238058   9.626   3.957   3.949 -1.9005  0.3123 -0.0544
43670SOL     OW38059   1.341   8.412   2.131 -0.0759  0.7822  0.1587
43670SOL    HW138060   1.259   8.408   2.180 -1.6052  2.2010 -2.1116
43670SOL    HW238061   1.327   8.482   2.067  1.0975 -1.9989 -3.4543
43671SOL     OW38062  12.247  10.882   5.501 -0.0647 -0.2543  0.0266
43671SOL    HW138063  12.201  10.935   5.566  0.5844  0.7147 -0.2784
43671SOL    HW238064  12.177  10.847   5.446 -0.5790 -0.6661  0.9318
43672SOL     OW38065   3.165   2.419   3.926 -0.5616 -0.2699  0.2298
43672SOL    HW138066   3.234   2.353   3.932 -3.1728 -3.1397  1.1438
43672SOL    HW238067   3.186   2.469   3.847  0.7343 -3.2426 -1.4549
43673SOL     OW38068   0.747  11.094  10.326 -0.4049  0.0537 -0.4918
43673SOL    HW138069   0.669  11.040  10.337 -0.1821 -0.2335 -0.2930
43673SOL    HW238070   0.769  11.085  10.233  0.0655 -0.8204 -0.3134
43674SOL     OW38071   1.412   3.664   7.840  0.0510  0.3844  0.6170
43674SOL    HW138072   1.358   3.730   7.796  0.3558  0.3544  0.1938
43674SOL    HW238073   1.375   3.580   7.812  1.5342  0.2945 -1.3197
43675SOL     OW38074   8.798   7.430   8.369 -0.4539 -0.5789 -0.3137
43675SOL    HW138075   8.867   7.444   8.304 -0.1334 -1.6616 -0.2303
43675SOL    HW238076   8.731   7.496   8.348  1.7074  2.3350  1.2633
43676SOL     OW38077   5.403  12.458  11.313 -0.0857 -0.4498 -0.2054
43676SOL    HW138078   5.403  12.466  11.409 -0.1225  1.9647 -0.3280
43676SOL    HW238079   5.469  12.392  11.294  0.1636 -0.7257  1.4685
43677SOL     OW38080   7.999   9.652   1.509 -0.4028 -0.4320  0.0519
43677SOL    HW138081   7.948   9.579   1.475 -0.3232 -0.4882  0.0541
43677SOL    HW238082   8.059   9.613   1.572 -0.1854 -0.3990 -0.1330
43678SOL     OW38083  11.693   7.259  11.713  0.0280 -0.0102 -0.2184
43678SOL    HW138084  11.601   7.285  11.703 -0.9337 -1.9510  2.4387
43678SOL    HW238085  11.701   7.234  11.805  3.2081 -0.1005 -0.4079
43679SOL     OW38086  12.502   5.957   6.645 -0.0056 -0.2484 -0.0345
43679SOL    HW138087  12.540   5.869   6.658 -0.7434 -0.4145  1.1623
43679SOL    HW238088  12.408   5.942   6.647 -0.1972  0.7899  2.2475
43680SOL     OW38089   9.761   8.108  12.537  0.1654  0.4499 -0.4091
43680SOL    HW138090   9.702   8.067  12.600  0.7825 -0.4980 -0.4271
43680SOL    HW238091   9.792   8.188  12.582 -0.6670  0.6530 -0.1788
43681SOL     OW38092   8.569  11.617   0.280 -0.5147  0.2739  0.5172
43681SOL    HW138093   8.655  11.582   0.303 -0.7608 -0.6920  0.0122
43681SOL    HW238094   8.549  11.679   0.351  1.4562  2.0506 -0.3573
43682SOL     OW38095   7.049  10.100   8.644  0.2076 -0.0956  0.0345
43682SOL    HW138096   7.145  10.100   8.644  0.2115 -0.5350 -0.7807
43682SOL    HW238097   7.025  10.007   8.650 -0.1681 -0.0136 -0.1746
43683SOL     OW38098   1.024  11.848   7.628  0.5487 -0.4173 -0.0602
43683SOL    HW138099   1.015  11.891   7.713  0.6750  0.9323 -0.7020
43683SOL    HW238100   1.057  11.916   7.569  1.5644 -1.6161 -0.9415
43684SOL     OW38101   2.683   2.159   6.655 -0.0814 -0.3453  0.0572
43684SOL    HW138102   2.752   2.143   6.719 -1.5767 -0.6631  1.6537
43684SOL    HW238103   2.681   2.079   6.601  0.4094 -0.5675  0.3674
43685SOL     OW38104   5.094  11.394   0.342 -0.5762  0.4540 -0.2803
43685SOL    HW138105   5.073  11.482   0.374 -2.3173  0.2007 -0.6581
43685SOL    HW238106   5.144  11.408   0.262 -1.4852  1.1129 -0.7405
43686SOL     OW38107   5.277   1.939   0.830 -0.5007 -0.0031  0.1592
43686SOL    HW138108   5.244   1.877   0.895 -0.8536  0.2544  0.2229
43686SOL    HW238109   5.357   1.975   0.869 -1.2650  0.9273  0.9091
43687SOL     OW38110  11.992  10.281   6.726  0.5269 -0.2038  0.8142
43687SOL    HW138111  12.064  10.344   6.732 -0.4214  0.8904  1.2608
43687SOL    HW238112  11.936  10.315   6.657 -0.3633 -0.1539  1.5386
43688SOL     OW38113   1.819   4.563   6.379 -0.1444  0.4016  0.3206
43688SOL    HW138114   1.746   4.519   6.336  0.5826 -0.9810  0.4295
43688SOL    HW238115   1.793   4.568   6.471 -1.1228  2.1506 -0.0057
43689SOL     OW38116   3.930   5.097   4.418 -0.6074  0.3031 -0.0508
43689SOL    HW138117   3.981   5.071   4.341 -2.9707 -0.5694 -1.4327
43689SOL    HW238118   3.975   5.174   4.452  2.2145 -1.0163 -0.4860
43690SOL     OW38119   8.536   0.868  10.557 -0.5771 -0.1605 -0.4300
43690SOL    HW138120   8.563   0.852  10.648 -0.7621  1.1184 -0.1396
43690SOL    HW238121   8.472   0.799  10.540 -0.1235 -0.7641  0.2166
43691SOL     OW38122   6.317   1.129   2.504 -0.6385 -0.1352 -0.2421
43691SOL    HW138123   6.290   1.041   2.479 -0.2845  0.3058 -2.3560
43691SOL    HW238124   6.304   1.182   2.426  0.8354  1.3208  0.4308
43692SOL     OW38125   8.590  10.891   7.179  0.2670 -0.0478 -0.0768
43692SOL    HW138126   8.517  10.945   7.148  2.1792  1.3284 -2.5172
43692SOL    HW238127   8.640  10.950   7.235 -0.2527 -0.8791  1.2983
43693SOL     OW38128  12.300   1.283  11.143  0.1048 -0.0845 -0.5509
43693SOL    HW138129  12.314   1.233  11.063  1.6045 -0.3165 -0.1753
43693SOL    HW238130  12.295   1.217  11.212  0.9017  0.2088 -0.2028
43694SOL     OW38131   3.449   7.461   2.905 -0.2050 -0.5037  0.2083
43694SOL    HW138132   3.376   7.510   2.942 -0.0530  1.0506 -1.4236
43694SOL    HW238133   3.408   7.399   2.845 -0.2242  1.2301 -1.6884
43695SOL     OW38134   5.111  10.530  12.079  0.6008  0.3025 -0.1734
43695SOL    HW138135   5.161  10.455  12.048  0.2968  0.2662 -0.5847
43695SOL    HW238136   5.172  10.579  12.134  0.4890 -0.8363  1.0287
43696SOL     OW38137  11.423   6.805   0.236  0.4038 -0.4860 -0.2669
43696SOL    HW138138  11.329   6.799   0.216 -0.4357  3.5112  1.5331
43696SOL    HW238139  11.454   6.878   0.183  1.6873  0.2947  1.4896
43697SOL     OW38140  12.369   9.664  11.112  0.3043 -0.1034  0.3703
43697SOL    HW138141  12.324   9.719  11.047  0.6472  0.8074  0.8814
43697SOL    HW238142  12.447   9.633  11.067 -0.5215 -1.2391 -0.3413
43698SOL     OW38143   3.753   2.842   8.238  0.0226  0.0093 -0.4156
43698SOL    HW138144   3.836   2.800   8.258 -0.0421 -0.3576 -0.9199
43698SOL    HW238145   3.688   2.772   8.241 -0.1200  0.1121 -1.0251
43699SOL     OW38146   8.040   2.201   7.477 -0.2313  0.3379 -0.3084
43699SOL    HW138147   8.022   2.265   7.409 -0.3275 -0.0931 -0.6945
43699SOL    HW238148   8.051   2.118   7.430  2.2897  0.4563 -0.0702
43700SOL     OW38149  10.678   2.705  12.556  0.3103 -0.5603  0.1626
43700SOL    HW138150  10.714   2.788  12.586  1.8920 -0.5486 -1.6042
43700SOL    HW238151  10.601   2.691  12.611  0.5772  1.5580  1.1659
43701SOL     OW38152   0.942   9.447   8.054  0.2474  0.2799 -0.1666
43701SOL    HW138153   0.910   9.419   7.969  0.4317 -0.2515 -0.0647
43701SOL    HW238154   0.870   9.426   8.114  0.0573  0.7917 -0.2086
43702SOL     OW38155   0.454   1.547  11.644  0.2861  0.4530  0.0535
43702SOL    HW138156   0.421   1.485  11.709  0.3795  0.4426  0.0911
43702SOL    HW238157   0.421   1.632  11.672 -0.6848  0.2959 -0.5476
43703SOL     OW38158   7.996   0.896   0.611 -0.2024 -0.3536 -1.1351
43703SOL    HW138159   8.051   0.822   0.638 -0.0988  0.2064  0.2500
43703SOL    HW238160   7.945   0.918   0.689 -1.2262  0.1752 -1.9337
43704SOL     OW38161   7.624   2.929   3.239  0.8765 -0.4315  0.1262
43704SOL    HW138162   7.596   2.978   3.161 -0.2964 -1.9122 -0.4475
43704SOL    HW238163   7.620   2.993   3.310 -0.9341  0.2400 -0.5214
43705SOL     OW38164   5.704   6.111   4.813 -0.2601  0.0524  0.2481
43705SOL    HW138165   5.792   6.091   4.845 -0.4834 -0.5945  0.4773
43705SOL    HW238166   5.705   6.084   4.722 -0.1837  0.1631  0.2159
43706SOL     OW38167   1.360   0.135   2.243 -0.1562 -0.3803  0.2123
43706SOL    HW138168   1.363   0.231   2.250 -0.7870 -0.4353  1.7192
43706SOL    HW238169   1.443   0.106   2.280 -0.3601 -0.4367  0.6322
43707SOL     OW38170   9.592   9.165   7.964 -0.5611 -0.4345 -0.1559
43707SOL    HW138171   9.518   9.144   7.907 -2.4446  0.3025  1.8548
43707SOL    HW238172   9.576   9.255   7.992  1.5364  0.0026 -0.2338
43708SOL     OW38173  12.392   4.733   8.188 -0.4493  0.9097  0.2206
43708SOL    HW138174  12.444   4.745   8.108 -1.3042  1.9385 -0.1974
43708SOL    HW238175  12.451   4.759   8.258  0.0558  0.7360 -0.1315
43709SOL     OW38176  10.422   7.142  11.380  0.0447  0.1042 -0.4204
43709SOL    HW138177  10.437   7.237  11.380  0.5998  0.0199 -0.4971
43709SOL    HW238178  10.465   7.111  11.300 -0.6022 -0.1456 -0.6770
43710SOL     OW38179   4.051   6.798  10.968  0.4820  0.5371 -0.3325
43710SOL    HW138180   4.076   6.715  11.009  0.7987  2.3424  3.5644
43710SOL    HW238181   3.960   6.786  10.943  1.0482 -1.5329 -1.6959
43711SOL     OW38182   5.821  10.699   5.029 -0.2411  0.0000  0.4279
43711SOL    HW138183   5.888  10.630   5.033  0.2895  0.5307  0.8060
43711SOL    HW238184   5.860  10.773   5.074 -1.2196  0.2127  0.9455
43712SOL     OW38185   5.686   9.639  11.254  0.2509 -0.6436  0.2008
43712SOL    HW138186   5.593   9.619  11.237  0.0299  0.8120 -0.4608
43712SOL    HW238187   5.688   9.665  11.346  0.4359 -2.9020  0.8915
43713SOL     OW38188  11.740   4.211  11.737 -0.1782  0.5248  0.1747
43713SOL    HW138189  11.647   4.192  11.720 -0.0436  1.2503 -1.6121
43713SOL    HW238190  11.739   4.294  11.785 -0.5795 -1.6481  4.3138
43714SOL     OW38191   5.874   0.875   5.037 -0.2495  0.2813  0.2433
43714SOL    HW138192   5.890   0.969   5.038  1.6432  0.0228  1.7496
43714SOL    HW238193   5.822   0.859   5.116 -0.3926  0.0571  0.1018
43715SOL     OW38194  11.724   2.138  10.372 -0.0921  0.1348 -0.0394
43715SOL    HW138195  11.777   2.194  10.316  0.5587 -0.2387  0.1952
43715SOL    HW238196  11.672   2.199  10.425  0.3521  0.5125 -0.0340
43716SOL     OW38197   3.478   1.948   7.756 -0.1324  0.2183 -0.2738
43716SOL    HW138198   3.477   1.992   7.671  1.5335 -0.3284 -0.6230
43716SOL    HW238199   3.448   1.859   7.738 -1.6775  0.6394  0.0925
43717SOL     OW38200   2.972   8.095   3.096  0.0390  0.0014  0.4788
43717SOL    HW138201   2.975   8.031   3.025  2.7760  0.0274  0.4837
43717SOL    HW238202   2.980   8.043   3.176  0.2397  0.1930  0.5849
43718SOL     OW38203   8.629  10.245   0.445  0.5064 -0.1349  0.1433
43718SOL    HW138204   8.602  10.202   0.526  0.1096  0.7997  0.5199
43718SOL    HW238205   8.546  10.263   0.399  0.7683 -1.5749 -0.9775
43719SOL     OW38206   3.153   6.960   6.910 -0.3626  0.1253  0.5506
43719SOL    HW138207   3.172   6.987   6.820 -2.1029 -0.6151 -0.0917
43719SOL    HW238208   3.113   7.038   6.949 -1.4288 -0.1433  0.0380
43720SOL     OW38209  11.243   2.453   4.097  0.0500  0.0197 -0.9674
43720SOL    HW138210  11.149   2.466   4.109  0.2964 -0.3762  2.0429
43720SOL    HW238211  11.253   2.359   4.079 -0.0576 -0.2472  0.2787
43721SOL     OW38212  10.374   3.667   5.661  0.3840  0.5664 -0.1062
43721SOL    HW138213  10.364   3.697   5.570 -1.5129  1.0068  0.2045
43721SOL    HW238214  10.366   3.571   5.654 -2.1411  0.7111 -0.2155
43722SOL     OW38215   3.551   3.394   0.362 -0.0115 -0.5882 -0.2241
43722SOL    HW138216   3.547   3.360   0.452 -1.2925 -1.1755 -0.4797
43722SOL    HW238217   3.590   3.322   0.311 -1.9258 -1.4106 -0.6123
43723SOL     OW38218   4.700  11.787   8.681  0.1312 -0.2113  0.3493
43723SOL    HW138219   4.763  11.750   8.744  0.8577  0.8192  0.2411
43723SOL    HW238220   4.702  11.726   8.607 -0.0234 -0.9162  0.9087
43724SOL     OW38221   7.451   0.373   3.711  0.1627 -0.7214 -0.2640
43724SOL    HW138222   7.365   0.412   3.694 -0.1358 -1.1373  0.2707
43724SOL    HW238223   7.493   0.372   3.625 -0.0589  0.2097 -0.3946
43725SOL     OW38224   8.122   8.479  10.332 -0.2751  0.7942  0.2026
43725SOL    HW138225   8.026   8.471  10.328 -0.1434 -0.4776 -1.4011
43725SOL    HW238226   8.151   8.396  10.369  0.2167  1.1648  0.6559
43726SOL     OW38227   8.322  11.057  11.445 -0.3483 -0.5133  0.4918
43726SOL    HW138228   8.252  10.993  11.438 -1.4985  0.8081 -0.7693
43726SOL    HW238229   8.322  11.082  11.538 -0.3877 -1.7531  0.8411
43727SOL     OW38230   8.995   0.833   3.395  0.0709  0.5651  0.6342
43727SOL    HW138231   8.944   0.754   3.380  0.9349 -0.1745  1.4491
43727SOL    HW238232   8.988   0.883   3.313 -0.8216 -0.1553  0.2624
43728SOL     OW38233   1.855   9.376   1.046  0.1243  0.7893 -0.0934
43728SOL    HW138234   1.867   9.282   1.036  0.4785  0.6283  1.6334
43728SOL    HW238235   1.779   9.396   0.991  0.5284 -0.3501 -1.1094
43729SOL     OW38236   9.294   4.539   9.384  0.1579  0.3960  0.3084
43729SOL    HW138237   9.283   4.526   9.479 -2.4330  0.9736  0.1589
43729SOL    HW238238   9.284   4.452   9.346 -0.5391  0.3973  0.4695
43730SOL     OW38239  10.192   5.328   9.838  0.1378  0.1911 -0.1064
43730SOL    HW138240  10.180   5.241   9.802 -0.8352  0.1149  0.3618
43730SOL    HW238241  10.104   5.366   9.840  0.1887  0.3007  1.8853
43731SOL     OW38242  12.537   2.594   8.877  0.0059 -0.0873 -0.6898
43731SOL    HW138243  12.610   2.627   8.825 -0.2944  2.2932  0.2756
43731SOL    HW238244  12.459   2.626   8.831 -0.4788 -1.8250 -1.1994
43732SOL     OW38245   0.920   3.260  12.310  0.0069 -0.0044 -0.1486
43732SOL    HW138246   1.012   3.253  12.282 -0.0940 -2.3546 -0.0856
43732SOL    HW238247   0.878   3.184  12.271 -1.3621 -0.3512  1.8667
43733SOL     OW38248   4.541   9.766   2.258 -0.1261  0.2666  0.0363
43733SOL    HW138249   4.610   9.819   2.219  0.0444 -0.1214 -0.2026
43733SOL    HW238250   4.462   9.790   2.210 -0.6215  2.2916  1.7194
43734SOL     OW38251   6.614   1.965   6.921 -0.3366  0.2236  0.4961
43734SOL    HW138252   6.615   2.010   7.006  0.9955 -0.6469  0.9596
43734SOL    HW238253   6.706   1.952   6.899 -0.6725 -1.4289 -0.0782
43735SOL     OW38254   2.149   4.820   3.480 -0.6266 -0.0497  0.1156
43735SOL    HW138255   2.141   4.726   3.460 -0.4425 -0.1379  0.4538
43735SOL    HW238256   2.183   4.823   3.569  0.4053  0.3444 -0.2829
43736SOL     OW38257  10.769   5.682   9.097 -0.0364  0.2575  0.0752
43736SOL    HW138258  10.678   5.713   9.100 -0.2677 -0.3515 -0.3360
43736SOL    HW238259  10.801   5.710   9.012 -0.3736 -0.9222 -0.4680
43737SOL     OW38260   8.063   4.649   2.569  0.3198 -0.0242  0.0328
43737SOL    HW138261   8.123   4.676   2.638  1.5132 -2.4193  0.0341
43737SOL    HW238262   8.116   4.646   2.489 -0.0545 -1.0335 -0.2030
43738SOL     OW38263   6.858   5.658   4.882 -0.5122 -0.6304  0.7016
43738SOL    HW138264   6.935   5.603   4.895 -0.6751 -0.6039  1.8948
43738SOL    HW238265   6.891   5.737   4.839  0.0301 -0.8569  0.7040
43739SOL     OW38266   8.867   9.814  11.928  0.3891  0.1281  0.4870
43739SOL    HW138267   8.920   9.738  11.954 -0.0999 -0.0464  0.9945
43739SOL    HW238268   8.878   9.877  11.999  0.6072  0.4454  0.1767
43740SOL     OW38269   7.139   1.390   0.698 -0.2906 -0.4252 -0.3013
43740SOL    HW138270   7.062   1.425   0.742  0.6883  0.5954  0.6895
43740SOL    HW238271   7.111   1.305   0.663 -0.7924 -2.0242  3.5336
43741SOL     OW38272   5.016   9.229   5.480  0.0108  0.6281 -0.7054
43741SOL    HW138273   4.945   9.228   5.544  0.0793  1.2493 -0.6174
43741SOL    HW238274   5.048   9.139   5.479  1.6347  1.0633  1.9682
43742SOL     OW38275   8.605   7.595   1.309  0.4114 -0.1718 -0.2368
43742SOL    HW138276   8.589   7.535   1.382 -0.8454 -0.8821 -1.0671
43742SOL    HW238277   8.612   7.681   1.352 -1.3790 -0.4207  0.6661
43743SOL     OW38278  12.360  11.787   8.123  0.4144 -0.1547 -0.0367
43743SOL    HW138279  12.368  11.716   8.059 -0.6415 -0.5236  0.2298
43743SOL    HW238280  12.342  11.865   8.071  1.0298 -0.1679 -0.2862
43744SOL     OW38281   2.495   0.021  11.618  0.0165 -0.2475  0.0748
43744SOL    HW138282   2.411   0.019  11.572  0.2883 -0.7088 -0.4172
43744SOL    HW238283   2.506  -0.069  11.650 -0.0249 -0.0023  0.7801
43745SOL     OW38284   1.615  10.416  11.941 -0.1932 -0.3156  0.4532
43745SOL    HW138285   1.642  10.434  11.851  0.7218 -1.0366  0.5704
43745SOL    HW238286   1.599  10.502  11.979 -0.5685 -0.0041 -0.3907
43746SOL     OW38287   6.489  12.087   0.114  0.4208  0.0495  0.3691
43746SOL    HW138288   6.473  12.114   0.024  0.1319  0.5010  0.5510
43746SOL    HW238289   6.426  12.016   0.128 -0.4686  0.8556  0.6196
43747SOL     OW38290  12.379   3.164   5.661  0.1218 -0.1648 -0.3938
43747SOL    HW138291  12.343   3.253   5.667  0.2875 -0.1821  4.0071
43747SOL    HW238292  12.464   3.175   5.619  0.6688  2.0433  1.1165
43748SOL     OW38293  10.418  12.236   9.274 -0.1039 -0.2009  0.2630
43748SOL    HW138294  10.356  12.201   9.210 -0.2224 -0.3959  0.4826
43748SOL    HW238295  10.465  12.305   9.227 -1.1535  0.6203  0.3557
43749SOL     OW38296   4.444  12.175   2.611 -0.1257 -0.1260 -0.7302
43749SOL    HW138297   4.509  12.208   2.673 -2.2051  1.4187  0.7823
43749SOL    HW238298   4.410  12.095   2.652 -0.2383 -0.1002 -0.7727
43750SOL     OW38299   6.098  11.007   1.046  0.4478  0.3306 -0.3743
43750SOL    HW138300   6.170  11.005   1.110  0.4656  0.0619 -0.3993
43750SOL    HW238301   6.094  11.098   1.017 -0.1704  0.6561  0.6962
43751SOL     OW38302  11.840   4.674   1.523 -0.9517 -0.4146 -0.1254
43751SOL    HW138303  11.794   4.636   1.448 -1.1083  0.1243 -0.3059
43751SOL    HW238304  11.875   4.757   1.490  1.2705 -1.3890 -0.3858
43752SOL     OW38305   2.900   8.051   2.735 -0.4806  0.2318 -0.3791
43752SOL    HW138306   2.893   8.144   2.757 -1.7803  0.0541  0.0550
43752SOL    HW238307   2.993   8.031   2.743  0.2989  2.1291 -3.1451
43753SOL     OW38308  12.179   7.538   8.577 -0.1678 -0.1537  0.5305
43753SOL    HW138309  12.167   7.632   8.589  0.7640  0.0390  0.0685
43753SOL    HW238310  12.105   7.498   8.624 -0.7701  0.8113  0.4335
43754SOL     OW38311  10.000   0.076   4.171 -0.2786  0.1062  0.3773
43754SOL    HW138312  10.014   0.118   4.256 -0.0561  2.1699 -0.6320
43754SOL    HW238313  10.081   0.092   4.122 -0.7501 -0.2433 -0.5448
43755SOL     OW38314   9.935   9.061  11.563 -0.5795  0.9994  0.1602
43755SOL    HW138315   9.991   8.984  11.550  0.9848  1.7543  1.9183
43755SOL    HW238316   9.852   9.036  11.524 -0.0818 -1.5471  0.4898
43756SOL     OW38317   3.953   8.130   5.909 -0.2751 -0.4161  0.9511
43756SOL    HW138318   4.023   8.065   5.917  0.0217 -0.1646  0.4706
43756SOL    HW238319   3.976   8.179   5.830 -1.2997 -0.7055  0.4674
43757SOL     OW38320  12.509  11.989  12.124  0.5583  0.3061  0.5663
43757SOL    HW138321  12.532  12.081  12.111  0.0128  0.8371  2.9040
43757SOL    HW238322  12.568  11.941  12.066  2.0228  2.0441  0.5309
43758SOL     OW38323  10.376   6.457   6.130 -0.3485  0.3812  0.0409
43758SOL    HW138324  10.384   6.488   6.040 -1.8695  4.1695  1.0315
43758SOL    HW238325  10.310   6.387   6.126 -2.2042  2.1131 -1.5570
43759SOL     OW38326   8.465   5.223   7.200  0.3284 -0.3843 -0.1375
43759SOL    HW138327   8.446   5.143   7.150  1.3738 -1.5053  1.1738
43759SOL    HW238328   8.419   5.210   7.283  1.6341 -0.2722  0.6193
43760SOL     OW38329  10.301   0.076  12.575  0.5113 -0.4332 -0.4199
43760SOL    HW138330  10.207   0.061  12.578  0.5334 -0.8871 -1.4991
43760SOL    HW238331  10.339   0.002  12.623  0.2899  0.2610  0.8548
43761SOL     OW38332  11.307   3.873   9.062  0.0635  0.3883  0.2603
43761SOL    HW138333  11.400   3.869   9.040  0.4242  1.9925  1.3205
43761SOL    HW238334  11.267   3.925   8.993 -0.1081 -0.4790 -0.3096
43762SOL     OW38335  10.940   1.889  10.282 -0.1664  0.6216  0.0931
43762SOL    HW138336  11.001   1.815  10.279 -0.3726  0.4893 -1.0921
43762SOL    HW238337  10.985   1.960  10.237 -0.8242  0.5641 -0.6727
43763SOL     OW38338  11.652   8.437   7.455 -0.6623 -0.0049  0.0293
43763SOL    HW138339  11.628   8.528   7.470  1.7037  0.5628  0.8325
43763SOL    HW238340  11.624   8.391   7.534 -0.1177  0.4190  0.4762
43764SOL     OW38341   3.552   2.934  10.214 -0.4257  0.0567 -0.0596
43764SOL    HW138342   3.568   2.863  10.276 -0.7566  1.0034  1.1318
43764SOL    HW238343   3.605   3.007  10.246  0.2972  0.2319 -1.5397
43765SOL     OW38344  10.021   9.031   2.255 -0.4011 -0.8645  0.1199
43765SOL    HW138345  10.038   8.944   2.290  0.4896 -0.4374  0.7865
43765SOL    HW238346   9.963   9.071   2.320 -1.6582 -1.3082 -0.7048
43766SOL     OW38347  12.407   3.039   5.180  0.4099  0.0461 -0.4694
43766SOL    HW138348  12.366   3.061   5.096 -1.9388 -2.2147 -0.0624
43766SOL    HW238349  12.342   3.063   5.246  1.6394  0.5110  0.6244
43767SOL     OW38350   8.885   6.234   6.349 -0.3067 -0.2896 -0.0170
43767SOL    HW138351   8.885   6.188   6.433  3.0222  0.0874  0.3300
43767SOL    HW238352   8.864   6.324   6.370  1.0404 -0.0813  0.5775
43768SOL     OW38353   5.457  12.097   3.146  0.0444 -0.0228 -0.1512
43768SOL    HW138354   5.456  12.122   3.238 -0.9139 -0.6879  0.0326
43768SOL    HW238355   5.487  12.006   3.145 -3.7299 -1.4388 -0.0546
43769SOL     OW38356  12.516   9.494   4.086  0.0198  0.0350  0.0916
43769SOL    HW138357  12.568   9.465   4.011 -0.2163  0.3827 -0.2109
43769SOL    HW238358  12.465   9.568   4.053 -0.0202  0.2506  0.6206
43770SOL     OW38359   5.930   6.463  12.450 -0.0451 -0.3101  0.2117
43770SOL    HW138360   5.837   6.478  12.430  0.1374  0.4974 -0.0895
43770SOL    HW238361   5.935   6.371  12.473 -0.9119 -0.3856  0.1456
43771SOL     OW38362   1.691  11.183  12.549 -0.1172  0.1603 -0.0526
43771SOL    HW138363   1.621  11.125  12.520  1.3899 -1.2024 -1.1280
43771SOL    HW238364   1.744  11.198  12.471  0.2061  2.0650  0.4682
43772SOL     OW38365   5.221   4.617   2.176 -0.5424  0.4499 -0.6133
43772SOL    HW138366   5.300   4.564   2.189 -1.6931 -1.4448 -1.0427
43772SOL    HW238367   5.197   4.646   2.264  0.0464  0.1985 -0.3632
43773SOL     OW38368   0.571   5.538  12.236  0.2589 -0.3920  0.1843
43773SOL    HW138369   0.527   5.464  12.277 -0.9229 -1.0013 -2.0209
43773SOL    HW238370   0.530   5.615  12.275  0.9588 -0.8500  1.9347
43774SOL     OW38371   1.734   8.894   1.776 -0.0138  0.0389 -0.1386
43774SOL    HW138372   1.800   8.829   1.803 -2.2356 -1.3175  2.5679
43774SOL    HW238373   1.736   8.892   1.681  0.6986 -3.3775 -0.1925
43775SOL     OW38374   0.748  11.850   1.646 -0.1111  0.3907  0.3594
43775SOL    HW138375   0.756  11.945   1.649  0.6263  0.3558 -0.3471
43775SOL    HW238376   0.654  11.835   1.633 -0.0484  1.0668 -1.0261
43776SOL     OW38377  10.359  12.198   7.177 -0.4826  0.4527  0.1570
43776SOL    HW138378  10.337  12.256   7.104  0.6630  1.0959  0.2971
43776SOL    HW238379  10.327  12.242   7.255 -0.8141  0.2468  0.1388
43777SOL     OW38380  10.763   3.532   8.752  0.3617  0.0461  0.1304
43777SOL    HW138381  10.770   3.446   8.795 -0.0403  0.0393  0.1842
43777SOL    HW238382  10.680   3.568   8.783  0.0264  0.0119 -0.6890
43778SOL     OW38383   7.286   6.534   7.221  0.1057  0.1335 -0.5561
43778SOL    HW138384   7.369   6.526   7.173 -0.0121  1.9070 -1.1046
43778SOL    HW238385   7.311   6.524   7.313  0.7214 -0.6613 -0.7974
43779SOL     OW38386   4.030   9.713   7.904 -0.2286  0.4664 -0.3509
43779SOL    HW138387   4.041   9.682   7.993 -0.0238 -1.2623 -0.9437
43779SOL    HW238388   4.093   9.784   7.895 -0.6813  1.0748  1.0394
43780SOL     OW38389   2.423   4.962   1.450 -0.1684 -0.4149  0.5138
43780SOL    HW138390   2.504   4.989   1.408 -1.1772  2.0049 -0.0351
43780SOL    HW238391   2.424   4.866   1.445  2.3360 -0.4209  0.0010
43781SOL     OW38392  11.912   1.797   1.542  0.0534  0.0160 -0.1600
43781SOL    HW138393  11.873   1.725   1.592 -0.0472  0.1492 -0.0470
43781SOL    HW238394  11.841   1.828   1.486  0.1964 -0.2025 -0.4624
43782SOL     OW38395   2.532   1.681   7.176 -0.4916 -0.4106  0.4851
43782SOL    HW138396   2.558   1.773   7.187 -0.5056 -0.2760 -0.4490
43782SOL    HW238397   2.569   1.657   7.091 -3.1587 -0.2895 -0.8208
43783SOL     OW38398   7.663   4.383   0.635 -1.0618 -0.4295 -0.4688
43783SOL    HW138399   7.630   4.337   0.712  0.6181  0.4101  0.8240
43783SOL    HW238400   7.592   4.441   0.609 -1.5326 -0.4776  0.6557
43784SOL     OW38401   1.267   5.132   5.340 -0.1915 -0.0386  0.4249
43784SOL    HW138402   1.254   5.039   5.323  0.4256 -0.1565  0.5562
43784SOL    HW238403   1.328   5.135   5.414  1.1862  0.4434 -0.6753
43785SOL     OW38404   1.916   8.896  12.204 -1.0533  0.0407  0.1781
43785SOL    HW138405   1.975   8.878  12.131 -0.3553  1.1252  0.4573
43785SOL    HW238406   1.923   8.820  12.260  0.7813  0.5240  0.6559
43786SOL     OW38407   9.413  10.577  11.085  0.2126 -0.3474 -0.1133
43786SOL    HW138408   9.391  10.548  11.174  0.3185 -1.3362 -0.4004
43786SOL    HW238409   9.356  10.652  11.070 -1.0833 -1.2466  0.1414
43787SOL     OW38410   8.582   2.670   2.174  0.2794 -0.6649  0.0134
43787SOL    HW138411   8.541   2.619   2.244 -0.3307  1.0606  0.9699
43787SOL    HW238412   8.675   2.645   2.177 -0.1330 -2.3416 -0.1468
43788SOL     OW38413   6.772   7.404   5.661  0.7904  0.3993 -0.0117
43788SOL    HW138414   6.744   7.422   5.751  0.8163  1.4235 -0.1880
43788SOL    HW238415   6.695   7.426   5.608  1.2255  1.1877 -0.3380
43789SOL     OW38416   3.774   7.906   4.267  0.0525 -0.2735 -0.2034
43789SOL    HW138417   3.825   7.855   4.331 -1.2766 -0.5052  0.6995
43789SOL    HW238418   3.683   7.891   4.291 -0.4172  1.5688 -0.6767
43790SOL     OW38419   5.709   9.916   3.768  0.1221 -0.3897 -0.2385
43790SOL    HW138420   5.743  10.005   3.758  2.5033 -1.1130  0.5633
43790SOL    HW238421   5.689   9.888   3.678  1.5378  0.1957 -0.7658
43791SOL     OW38422  10.956   5.676   5.341 -0.4227  0.1448  0.6925
43791SOL    HW138423  11.011   5.610   5.299  0.7937  0.8414  1.1325
43791SOL    HW238424  10.987   5.679   5.432 -0.5851  1.1667  0.7284
43792SOL     OW38425  12.356  12.450   4.159 -0.4647  0.6943  0.3299
43792SOL    HW138426  12.410  12.399   4.218 -0.9110  1.1002  1.1149
43792SOL    HW238427  12.401  12.446   4.074  0.2271  0.1706  0.7167
43793SOL     OW38428  11.655   3.486  10.195  0.0340  0.0314  0.1542
43793SOL    HW138429  11.588   3.422  10.173 -1.2755  1.5628 -0.5314
43793SOL    HW238430  11.724   3.472  10.131 -1.7135  1.4256 -2.1646
43794SOL     OW38431  11.846   8.227   3.268 -0.2139  0.6574  0.0609
43794SOL    HW138432  11.852   8.281   3.346  0.0688  0.8285 -0.0752
43794SOL    HW238433  11.868   8.286   3.196 -1.0736  0.6552 -0.2144
43795SOL     OW38434   1.196   8.148   6.576 -0.5239  0.1450 -0.2926
43795SOL    HW138435   1.279   8.184   6.607  0.4419 -0.5760 -1.8784
43795SOL    HW238436   1.189   8.179   6.486 -2.0582  0.2870 -0.1467
43796SOL     OW38437   1.799   9.619   4.485 -0.0363 -0.3249  0.4860
43796SOL    HW138438   1.876   9.591   4.436 -1.4792  0.4173 -2.4826
43796SOL    HW238439   1.825   9.615   4.577  4.0502  1.4292 -0.3801
43797SOL     OW38440   0.186   9.451   9.355  0.7012 -0.2595 -0.0005
43797SOL    HW138441   0.195   9.529   9.410  0.8812 -0.0958 -0.2604
43797SOL    HW238442   0.259   9.457   9.293 -0.7093  0.6813 -1.6536
43798SOL     OW38443   7.817   5.078   3.056  0.0872  0.1335  0.3847
43798SOL    HW138444   7.820   5.161   3.104 -0.1012 -0.7705  2.0328
43798SOL    HW238445   7.908   5.048   3.054  0.4901  1.3341 -2.0405
43799SOL     OW38446   7.746   8.099   2.034 -0.3851 -0.1688  1.2019
43799SOL    HW138447   7.677   8.147   2.079 -0.0960 -0.5038  2.0305
43799SOL    HW238448   7.826   8.123   2.082 -0.1277 -0.8372  1.1166
43800SOL     OW38449   9.220   8.387   3.287 -0.1117  0.1142 -0.3635
43800SOL    HW138450   9.231   8.316   3.350 -1.5708  1.0834  1.0521
43800SOL    HW238451   9.127   8.388   3.267 -0.1504  1.7195 -0.2479
43801SOL     OW38452   0.576   4.011   0.443 -0.0567  0.3773 -0.3757
43801SOL    HW138453   0.622   4.094   0.456  0.2432 -0.1274  2.2781
43801SOL    HW238454   0.493   4.022   0.489  0.2738 -0.9947  0.6016
43802SOL     OW38455  10.222   4.398   2.042 -0.1250 -0.1438 -0.3389
43802SOL    HW138456  10.193   4.488   2.032  0.5601  0.0307 -0.8386
43802SOL    HW238457  10.261   4.376   1.958 -0.7123 -1.0712 -0.3871
43803SOL     OW38458   4.503   9.347   3.470  0.3269  0.1278  0.7598
43803SOL    HW138459   4.579   9.355   3.528 -0.3575 -0.9579  1.8522
43803SOL    HW238460   4.435   9.309   3.524 -1.2169  1.6112 -0.0458
43804SOL     OW38461   7.802   3.552   2.086 -0.4214  0.0581  0.0729
43804SOL    HW138462   7.761   3.465   2.085 -3.1328  1.2048  1.5092
43804SOL    HW238463   7.818   3.572   1.993 -2.1497 -0.9187 -0.4718
43805SOL     OW38464   7.484   8.555   9.878  0.2604  0.2058 -0.7697
43805SOL    HW138465   7.562   8.610   9.863  0.7042 -0.3167 -0.4303
43805SOL    HW238466   7.424   8.611   9.927  1.6892 -0.3266  1.7868
43806SOL     OW38467   1.545   5.558   9.148  0.1409  0.1148  0.1252
43806SOL    HW138468   1.498   5.530   9.227  0.5463 -0.3059  0.2242
43806SOL    HW238469   1.637   5.554   9.173  0.2934 -0.4944 -0.5228
43807SOL     OW38470  10.227   6.501  10.780 -0.3015 -0.0460  0.2125
43807SOL    HW138471  10.142   6.459  10.768 -1.7284  2.7092 -0.2943
43807SOL    HW238472  10.242   6.501  10.874 -0.6171 -1.0060  0.2642
43808SOL     OW38473   4.826   7.767   2.171  0.2770  0.1980  0.2061
43808SOL    HW138474   4.750   7.800   2.219  0.9371 -1.8147  2.8643
43808SOL    HW238475   4.788   7.709   2.104 -0.5849  1.6008 -0.5831
43809SOL     OW38476   0.535   3.566   5.974 -0.3283 -0.2460  0.0673
43809SOL    HW138477   0.599   3.629   5.940 -1.2653  1.2127  0.8846
43809SOL    HW238478   0.527   3.501   5.904  1.2692  0.0857 -0.4742
43810SOL     OW38479   4.626   5.519   0.797 -0.5627 -0.0142 -0.2246
43810SOL    HW138480   4.610   5.521   0.892 -0.8590  1.6174 -0.2704
43810SOL    HW238481   4.596   5.432   0.769  1.8361 -1.5233  1.5172
43811SOL     OW38482   0.811   3.452   0.083  0.4336 -0.2685  0.1007
43811SOL    HW138483   0.726   3.484   0.110  1.3522  0.9521  1.6570
43811SOL    HW238484   0.874   3.494   0.142  2.3672  0.7945 -2.4781
43812SOL     OW38485  12.034   9.026   8.091 -1.0384 -0.0252 -0.1009
43812SOL    HW138486  12.125   9.047   8.111 -1.0695 -0.4441  0.5069
43812SOL    HW238487  12.011   8.956   8.152 -2.0014  0.6035  0.2919
43813SOL     OW38488   3.124   9.793   3.064  0.8779 -0.7365 -0.1483
43813SOL    HW138489   3.091   9.809   3.153  1.0220  0.8635 -0.3616
43813SOL    HW238490   3.068   9.723   3.031  0.6834 -1.2146  1.1166
43814SOL     OW38491   6.552   1.320  10.180 -0.5837 -0.1086 -0.0596
43814SOL    HW138492   6.614   1.370  10.232  0.4114 -0.2758 -1.0628
43814SOL    HW238493   6.550   1.233  10.220 -1.7670  0.4679  1.2370
43815SOL     OW38494   5.212  10.709  10.334 -0.0938 -0.1849 -0.3041
43815SOL    HW138495   5.215  10.623  10.292 -2.6428 -0.5229  0.0151
43815SOL    HW238496   5.224  10.771  10.262 -0.2468 -0.7947 -0.8614
43816SOL     OW38497   1.655   9.416   2.346  0.3218 -0.3311  0.4901
43816SOL    HW138498   1.683   9.421   2.255  0.5391  1.9545  0.6372
43816SOL    HW238499   1.719   9.467   2.395 -0.3670 -0.6439  1.7783
43817SOL     OW38500  12.119  11.091   5.199  0.1347 -0.6100 -0.2973
43817SOL    HW138501  12.151  11.002   5.215  0.7242 -0.0683  1.8442
43817SOL    HW238502  12.106  11.128   5.286  0.9202  1.7673 -1.1018
43818SOL     OW38503  12.340  11.126  10.062  0.1112 -0.0615 -0.1112
43818SOL    HW138504  12.306  11.203  10.017  0.6047  0.9382  1.1658
43818SOL    HW238505  12.275  11.107  10.129  1.0551  0.6320  1.0322
43819SOL     OW38506   1.532   7.447   3.212  0.2190  0.2137 -0.0810
43819SOL    HW138507   1.550   7.506   3.139 -0.8470 -0.2645 -0.7569
43819SOL    HW238508   1.441   7.421   3.199 -0.0463  0.2745  1.5375
43820SOL     OW38509   0.078   9.310  10.745 -0.6846  0.1094  0.3002
43820SOL    HW138510   0.143   9.241  10.729 -0.5568  0.4034 -0.4920
43820SOL    HW238511   0.124   9.392  10.726 -1.2227  0.3344 -0.0493
43821SOL     OW38512   2.191   6.418   2.427  0.2432  0.1103  0.0617
43821SOL    HW138513   2.143   6.495   2.457  1.8186  1.2333 -0.2176
43821SOL    HW238514   2.265   6.411   2.487  0.7614 -0.4923 -0.6335
43822SOL     OW38515   7.032   8.236   2.694  0.3197  0.0666  0.1890
43822SOL    HW138516   7.002   8.326   2.683  1.9004  0.5374 -0.4482
43822SOL    HW238517   7.111   8.230   2.640 -0.0237 -1.8434 -0.1695
43823SOL     OW38518   2.975   1.478   4.558 -0.3335 -0.3977 -0.0512
43823SOL    HW138519   2.939   1.437   4.637  0.2443 -2.0271 -0.5832
43823SOL    HW238520   2.969   1.572   4.574 -1.2163 -0.6881  1.4760
43824SOL     OW38521   5.924   9.198   8.351  0.6065 -0.8534  0.4324
43824SOL    HW138522   5.960   9.162   8.433 -0.1331 -1.1427  0.6415
43824SOL    HW238523   5.944   9.132   8.285  1.2079 -0.6189  0.3769
43825SOL     OW38524   2.944   5.136   0.045  0.6834 -0.0005 -0.2765
43825SOL    HW138525   2.938   5.062   0.106 -0.4770  0.4652  0.1955
43825SOL    HW238526   2.955   5.213   0.101  0.9716  0.2900 -0.7281
43826SOL     OW38527   4.730   1.201   9.073  0.3650  0.5133  0.4212
43826SOL    HW138528   4.760   1.274   9.126 -0.0654  0.9180  0.1252
43826SOL    HW238529   4.691   1.139   9.135  0.9517  0.4182  0.6972
43827SOL     OW38530   2.491  11.964   0.573 -0.1195 -0.0501 -0.6716
43827SOL    HW138531   2.398  11.953   0.591  0.1133  0.3175  0.8949
43827SOL    HW238532   2.501  11.938   0.481 -1.6996 -0.4037 -0.7697
43828SOL     OW38533   6.359   6.835   6.336 -0.4095  0.1047  0.4439
43828SOL    HW138534   6.305   6.914   6.330 -2.5805 -1.3978 -0.7924
43828SOL    HW238535   6.439   6.858   6.287 -1.6769  1.0454 -1.3154
43829SOL     OW38536   4.766   9.097   5.328  0.6208  0.1940  0.1705
43829SOL    HW138537   4.780   9.091   5.423 -0.5824  0.2640  0.3730
43829SOL    HW238538   4.746   9.190   5.313 -0.7189 -0.0815  0.1019
43830SOL     OW38539   9.869  10.912   7.693 -0.3859 -0.0422 -0.8085
43830SOL    HW138540   9.879  10.925   7.787 -2.3387 -0.2210 -0.5162
43830SOL    HW238541   9.948  10.947   7.654  0.3838  0.1806  0.8935
43831SOL     OW38542   9.828  10.961   1.209 -0.0464  0.1524 -0.2159
43831SOL    HW138543   9.827  10.879   1.159 -0.5718  0.3281 -0.4960
43831SOL    HW238544   9.837  10.932   1.300 -1.9396 -0.3130 -0.1462
43832SOL     OW38545   5.571   4.021   7.311  0.4358 -0.7134 -0.0879
43832SOL    HW138546   5.586   3.972   7.230  1.2928 -0.1527 -0.2829
43832SOL    HW238547   5.634   4.093   7.307 -0.8328  0.4435  0.1697
43833SOL     OW38548   1.532   9.712   8.813 -0.0193  0.8178 -0.4783
43833SOL    HW138549   1.523   9.618   8.794 -0.5378 -0.0511  3.2459
43833SOL    HW238550   1.624   9.731   8.796  0.1963 -0.4971 -0.8938
43834SOL     OW38551   4.221   5.975  12.027  0.3241 -0.1954  0.3072
43834SOL    HW138552   4.164   5.917  12.078 -0.5379 -0.2717 -0.7064
43834SOL    HW238553   4.236   5.928  11.945  1.2951  0.1349  0.2813
43835SOL     OW38554  11.421   8.033   8.670  0.6486  0.0610 -0.5549
43835SOL    HW138555  11.479   8.021   8.595  0.5165 -0.9157 -0.5126
43835SOL    HW238556  11.403   8.127   8.672  0.9189  0.1410 -1.5406
43836SOL     OW38557  10.256   9.772  12.519  0.1106 -0.0493  0.4268
43836SOL    HW138558  10.307   9.850  12.537 -0.7246  0.5645  0.1902
43836SOL    HW238559  10.233   9.779  12.427  1.2550 -1.3170  0.0215
43837SOL     OW38560   5.251   4.096   4.095 -0.3886  0.4207 -0.7141
43837SOL    HW138561   5.291   4.114   4.010  0.1102  2.3951 -0.0984
43837SOL    HW238562   5.157   4.087   4.076 -0.0495 -1.3982 -1.7541
43838SOL     OW38563   6.074  10.529   8.948 -0.1643 -0.1437  0.0403
43838SOL    HW138564   6.032  10.615   8.945  0.9360  0.4057 -0.2379
43838SOL    HW238565   6.056  10.497   9.036  0.2637  0.8342  0.5017
43839SOL     OW38566   0.304   7.519   4.926 -0.1006  0.6960  0.2653
43839SOL    HW138567   0.311   7.453   4.858 -0.2787 -0.2230  1.1109
43839SOL    HW238568   0.214   7.551   4.921  0.5297  2.3539 -1.4488
43840SOL     OW38569   9.315   6.002   6.361 -0.3765  0.2689 -0.1512
43840SOL    HW138570   9.313   5.907   6.370  0.0516 -0.0095 -2.3623
43840SOL    HW238571   9.384   6.030   6.421 -1.1149 -0.6878  1.2032
43841SOL     OW38572  10.296  10.777  11.905  0.2334  0.9760  0.9088
43841SOL    HW138573  10.366  10.718  11.932  1.8748  1.7914 -1.2813
43841SOL    HW238574  10.338  10.863  11.899 -1.4735  1.8952  1.4463
43842SOL     OW38575   5.405   5.913  11.502  0.1709 -0.4270  0.1618
43842SOL    HW138576   5.376   5.823  11.518 -1.5325  0.3401  1.7714
43842SOL    HW238577   5.363   5.965  11.571  0.8662  1.6610 -0.8851
43843SOL     OW38578   8.171   5.543  10.877  0.4762  0.7926 -0.2576
43843SOL    HW138579   8.229   5.555  10.952  0.6780 -0.5320 -0.1741
43843SOL    HW238580   8.104   5.611  10.887  1.2418  1.4688  0.3900
43844SOL     OW38581   9.168   5.188   6.092  0.0741 -0.3732 -0.1393
43844SOL    HW138582   9.089   5.147   6.057  0.5606 -1.4425 -0.0132
43844SOL    HW238583   9.190   5.136   6.169  3.1610 -2.7514 -2.3655
43845SOL     OW38584   5.336  11.688   7.333 -0.3836  0.0556 -0.1691
43845SOL    HW138585   5.243  11.687   7.312 -0.5131  3.7476 -0.4646
43845SOL    HW238586   5.379  11.685   7.247 -0.3618  1.0574 -0.2001
43846SOL     OW38587  12.204   1.727   0.068  0.1268  0.0538  0.4244
43846SOL    HW138588  12.121   1.768   0.092  0.2443  0.3108  0.3975
43846SOL    HW238589  12.179   1.650   0.018 -0.1429 -0.7697  1.7625
43847SOL     OW38590  10.218   9.398   5.373  0.5488  0.3704 -0.8279
43847SOL    HW138591  10.191   9.490   5.383 -1.8815 -0.0514 -2.6329
43847SOL    HW238592  10.168   9.352   5.441 -0.1333  0.1075 -1.4940
43848SOL     OW38593  10.594   0.680   5.798  0.0063  0.0652  0.1931
43848SOL    HW138594  10.649   0.739   5.850 -0.8317  0.0838  1.0938
43848SOL    HW238595  10.528   0.649   5.860 -0.8367 -0.1706 -0.7994
43849SOL     OW38596   9.601   7.451   0.978 -0.4349  0.2433 -0.1025
43849SOL    HW138597   9.682   7.490   1.012  0.1488 -0.9246 -0.1192
43849SOL    HW238598   9.554   7.422   1.056 -0.6245  0.4929 -0.1219
43850SOL     OW38599   0.548   8.560   4.671  0.0295  0.0361 -0.4091
43850SOL    HW138600   0.605   8.526   4.602  0.1136 -2.7437  0.9067
43850SOL    HW238601   0.589   8.532   4.752 -1.6062  0.6750  0.6901
43851SOL     OW38602   3.579  10.972   7.267 -0.0992 -0.2020  0.0332
43851SOL    HW138603   3.501  10.934   7.227 -1.2206  2.1553 -0.2489
43851SOL    HW238604   3.553  10.990   7.358 -0.3957  1.7448 -0.3875
43852SOL     OW38605   4.745  12.069   5.382  0.4943 -0.0797 -0.5533
43852SOL    HW138606   4.731  12.005   5.452 -0.1557  1.3598  0.6998
43852SOL    HW238607   4.699  12.033   5.307 -2.9616  0.4453  1.0812
43853SOL     OW38608   9.862  12.160   1.897  0.1074  0.0794 -0.4147
43853SOL    HW138609   9.866  12.066   1.910  2.0391  0.1070 -0.4694
43853SOL    HW238610   9.954  12.186   1.885 -0.4527  1.8600 -1.1089
43854SOL     OW38611   0.050   9.612   7.581  0.0464  0.8496 -0.2354
43854SOL    HW138612   0.032   9.705   7.568  0.5153  0.7111 -2.2386
43854SOL    HW238613   0.096   9.585   7.502 -0.1569 -1.1201  0.2532
43855SOL     OW38614  12.051   1.409   0.109 -0.2472  0.0232  0.2940
43855SOL    HW138615  12.036   1.353   0.033 -2.2174  1.1432 -0.1942
43855SOL    HW238616  12.027   1.354   0.184  0.1289 -0.5394  0.0108
43856SOL     OW38617   8.485   3.569   0.652  0.2301  0.6294 -0.0626
43856SOL    HW138618   8.498   3.482   0.689  0.7769  1.1174  0.9594
43856SOL    HW238619   8.571   3.611   0.658 -0.4281  1.8943  1.2570
43857SOL     OW38620  11.074   3.397   8.164  0.6664 -0.6553  0.7691
43857SOL    HW138621  11.105   3.428   8.078 -1.1898 -2.2549 -0.5631
43857SOL    HW238622  11.049   3.477   8.210  1.4894  0.2209 -0.2477
43858SOL     OW38623   5.297   5.319   9.665 -0.3312  0.1897  0.2593
43858SOL    HW138624   5.248   5.291   9.588  0.3042 -0.7752  0.1916
43858SOL    HW238625   5.389   5.304   9.642 -0.0842  0.7012  0.8883
43859SOL     OW38626   1.110   1.913  12.576 -0.6848 -0.2818 -0.2452
43859SOL    HW138627   1.167   1.881  12.646  0.3961 -0.3620 -1.1250
43859SOL    HW238628   1.103   2.007  12.592 -2.0334 -0.5742  1.0594
43860SOL     OW38629   2.117   4.220   3.026 -0.1259 -0.1077  0.0979
43860SOL    HW138630   2.052   4.267   2.974 -0.5639 -1.7349 -0.8852
43860SOL    HW238631   2.197   4.224   2.974  0.7765  2.2637  1.4986
43861SOL     OW38632  11.230   6.786  10.217 -0.0342 -0.3201  0.8114
43861SOL    HW138633  11.209   6.717  10.154 -2.6293  1.3771 -0.3275
43861SOL    HW238634  11.191   6.757  10.299  0.7571 -1.1503  0.9101
43862SOL     OW38635   1.437   1.536  11.524  0.5458 -0.0023  0.9973
43862SOL    HW138636   1.390   1.468  11.572  1.0028 -0.2255  1.1337
43862SOL    HW238637   1.529   1.525  11.549  0.6047  0.7822  1.1687
43863SOL     OW38638  12.413   6.747   9.221 -0.1808  0.1083 -0.7351
43863SOL    HW138639  12.445   6.825   9.175  0.0519  1.3341  1.4034
43863SOL    HW238640  12.340   6.717   9.166  0.8862  0.6910 -2.5904
43864SOL     OW38641   8.613  10.465   0.208  0.1382 -0.2022 -0.2486
43864SOL    HW138642   8.698  10.441   0.171  0.0295  0.6308 -1.1048
43864SOL    HW238643   8.632  10.539   0.266 -0.2044  1.2897 -1.9409
43865SOL     OW38644  10.023   2.124   5.917 -0.1947 -0.3275 -0.0869
43865SOL    HW138645  10.076   2.202   5.935 -0.7463  0.1617 -0.5423
43865SOL    HW238646  10.087   2.054   5.903  0.3638  0.4378 -1.5159
43866SOL     OW38647   8.329   3.317   9.253  0.3753 -0.4896  0.1436
43866SOL    HW138648   8.309   3.238   9.202 -0.6613 -0.7104  0.8669
43866SOL    HW238649   8.354   3.382   9.187 -0.5594 -0.8860 -0.6325
43867SOL     OW38650   6.924   3.610   4.112  0.2686  0.3361  0.3114
43867SOL    HW138651   6.883   3.597   4.197 -0.1867 -0.5173 -0.0260
43867SOL    HW238652   6.965   3.525   4.092  1.3763  0.8811  0.2059
43868SOL     OW38653   9.403   8.306  11.423 -0.3430 -0.5444 -0.0601
43868SOL    HW138654   9.325   8.361  11.414 -0.0765 -0.4132 -2.0601
43868SOL    HW238655   9.421   8.305  11.517 -2.4898 -0.2326  0.3993
43869SOL     OW38656   2.047   0.933   2.444  0.3919  0.8657  0.1917
43869SOL    HW138657   2.125   0.893   2.404  1.1243  1.8928  0.5438
43869SOL    HW238658   2.052   0.906   2.536 -0.8378 -0.8063 -0.1938
43870SOL     OW38659   6.121  12.265   8.995  0.2097 -0.2337  0.2184
43870SOL    HW138660   6.099  12.316   9.073  0.5509  0.2936 -0.0205
43870SOL    HW238661   6.126  12.175   9.025  1.8215  0.1293  1.1292
43871SOL     OW38662   9.124   4.114  12.355  0.1524 -0.5399 -0.4734
43871SOL    HW138663   9.215   4.143  12.350 -0.3717  1.0991 -1.4343
43871SOL    HW238664   9.114   4.083  12.445  0.9322  1.9698  0.5731
43872SOL     OW38665  12.359   6.387   7.910  0.7248 -0.1980 -0.0579
43872SOL    HW138666  12.294   6.454   7.933  0.8029 -0.1014 -0.1189
43872SOL    HW238667  12.341   6.315   7.971 -0.3507 -0.7342 -0.9825
43873SOL     OW38668   8.645   0.391   6.618 -0.8643  0.2777 -0.3214
43873SOL    HW138669   8.725   0.342   6.638  0.1535  1.1362 -2.0589
43873SOL    HW238670   8.575   0.339   6.657  0.6500  0.5302  3.1147
43874SOL     OW38671   7.097  11.847  10.923  0.0663 -0.1327 -0.0327
43874SOL    HW138672   7.045  11.884  10.852  0.8878  1.1638 -0.0139
43874SOL    HW238673   7.041  11.783  10.964 -1.2597  0.7317 -0.4373
43875SOL     OW38674   3.260   4.454  10.163  0.0997  0.1480 -0.0648
43875SOL    HW138675   3.203   4.381  10.186  0.6082 -0.4853 -0.7764
43875SOL    HW238676   3.200   4.528  10.152 -0.5454 -0.3959 -0.3370
43876SOL     OW38677  10.918   1.375  11.442 -0.2127 -0.2566 -0.3088
43876SOL    HW138678  10.878   1.306  11.495  1.0755  0.2908  1.4648
43876SOL    HW238679  10.980   1.329  11.386 -0.6686 -0.7164 -0.4421
43877SOL     OW38680   1.638   8.235   6.001 -0.3523  0.4968 -0.4597
43877SOL    HW138681   1.634   8.262   5.909  0.2855 -0.7653 -0.8710
43877SOL    HW238682   1.561   8.180   6.013 -0.0320  0.0495 -0.4455
43878SOL     OW38683   3.784  12.510  10.718 -0.1088  0.0385  0.5610
43878SOL    HW138684   3.715  12.517  10.784 -0.6551  2.9796 -0.1792
43878SOL    HW238685   3.834  12.591  10.727  1.9910 -1.0789 -0.3411
43879SOL     OW38686   5.945   9.084  10.898 -0.1732  0.2153  0.2056
43879SOL    HW138687   5.909   9.172  10.900 -0.7408 -0.0223  1.2290
43879SOL    HW238688   6.003   9.079  10.974  0.3694 -0.0845 -0.2197
43880SOL     OW38689   8.763   0.278   5.027 -0.1938 -0.0713  0.0932
43880SOL    HW138690   8.686   0.264   5.082 -0.1811  1.0578  0.4259
43880SOL    HW238691   8.732   0.264   4.938 -0.3693 -1.2818  0.3268
43881SOL     OW38692   8.075  10.542   5.213 -0.2079 -0.1877 -0.1253
43881SOL    HW138693   8.163  10.526   5.179 -0.1164 -0.8706  0.3898
43881SOL    HW238694   8.067  10.637   5.220  1.0230 -0.1577  1.1756
43882SOL     OW38695   1.164  11.637  11.814 -0.0584  0.3212  0.3406
43882SOL    HW138696   1.080  11.646  11.770  0.6368 -0.7848 -1.2952
43882SOL    HW238697   1.163  11.705  11.882 -1.0350  2.3961 -1.6085
43883SOL     OW38698   4.789   1.110   8.476 -0.2008 -0.0435  0.6943
43883SOL    HW138699   4.771   1.017   8.489  0.2506 -0.1111  0.8302
43883SOL    HW238700   4.744   1.153   8.548  0.4583 -0.2431  1.2339
43884SOL     OW38701   3.697   3.595   6.842 -0.2883  0.0841 -0.0044
43884SOL    HW138702   3.602   3.603   6.843 -0.5569 -1.8233 -2.0515
43884SOL    HW238703   3.717   3.555   6.757  2.2534 -0.5949  0.8193
43885SOL     OW38704   0.846  11.589   1.145  0.3281 -0.3056 -0.2449
43885SOL    HW138705   0.763  11.546   1.163  0.1651 -0.1694 -0.6507
43885SOL    HW238706   0.875  11.551   1.061 -1.1910  2.3193 -2.1039
43886SOL     OW38707   7.381   1.703   5.470 -0.0961  0.3708 -0.5935
43886SOL    HW138708   7.474   1.724   5.472  0.6871 -2.7312  0.6120
43886SOL    HW238709   7.369   1.650   5.392 -0.9893  1.1326 -1.0008
43887SOL     OW38710   5.360   0.282   3.992 -0.4321  0.0112  0.0714
43887SOL    HW138711   5.315   0.292   4.076  1.1229 -1.0933  1.1131
43887SOL    HW238712   5.384   0.371   3.967  0.1339  0.2689  1.4423
43888SOL     OW38713  10.955   4.376   5.420  0.0114  0.2507 -0.0055
43888SOL    HW138714  10.976   4.292   5.461 -0.5575  0.4556  0.7340
43888SOL    HW238715  11.036   4.403   5.377  0.2846 -0.5324  0.0051
43889SOL     OW38716   4.402  10.739   3.498  0.5699  0.7060 -0.5603
43889SOL    HW138717   4.339  10.802   3.461  0.2088  1.1397  0.7321
43889SOL    HW238718   4.438  10.784   3.574  0.6714 -0.4779  0.1091
43890SOL     OW38719  10.618   2.921   8.756  0.0798 -0.7093  0.4131
43890SOL    HW138720  10.648   2.977   8.685 -0.1829  0.0785  0.9083
43890SOL    HW238721  10.523   2.922   8.751  0.0715 -1.1214  0.4220
43891SOL     OW38722   6.858   8.101   2.841  0.6075  0.1553  0.3128
43891SOL    HW138723   6.854   8.180   2.893 -0.3488  0.6386 -0.4499
43891SOL    HW238724   6.917   8.122   2.768  0.6916  0.0216  0.3418
43892SOL     OW38725  12.231   2.459  11.848 -0.2759  0.9844 -0.2993
43892SOL    HW138726  12.288   2.469  11.771  0.9231 -0.1459  0.4129
43892SOL    HW238727  12.161   2.401  11.819  0.3050  0.3682 -0.4768
43893SOL     OW38728   4.631   7.765   0.591 -0.4033  0.0267 -0.6911
43893SOL    HW138729   4.581   7.726   0.662  0.6574  1.9919  1.2576
43893SOL    HW238730   4.708   7.709   0.580 -0.2121  0.1015  0.2346
43894SOL     OW38731   7.850   5.433   5.526 -0.5692 -0.4869 -0.3198
43894SOL    HW138732   7.777   5.393   5.573 -1.0713 -1.2431 -1.6904
43894SOL    HW238733   7.924   5.426   5.587 -1.2992 -1.0095  0.5376
43895SOL     OW38734   1.953   3.531   0.961 -0.1628  0.3608  0.3619
43895SOL    HW138735   1.878   3.531   1.020 -1.2252  0.8268 -0.9428
43895SOL    HW238736   2.001   3.451   0.983 -1.3395 -0.2295  0.8664
43896SOL     OW38737   8.913   1.835   0.721 -0.2827 -0.6417 -0.3605
43896SOL    HW138738   8.981   1.848   0.787 -1.4720  0.3598  0.7389
43896SOL    HW238739   8.877   1.748   0.739 -0.0497 -0.7065 -0.2134
43897SOL     OW38740   5.059   8.698   5.311  0.0264 -0.1711 -0.0562
43897SOL    HW138741   5.009   8.673   5.233  0.9678 -0.9350 -0.4254
43897SOL    HW238742   5.008   8.771   5.349 -2.2572 -1.9402  0.4988
43898SOL     OW38743  11.181  10.623   7.899 -0.1868 -0.3668 -0.0672
43898SOL    HW138744  11.150  10.553   7.843  0.9205 -0.4996 -0.5350
43898SOL    HW238745  11.178  10.701   7.844  0.4132 -0.4015 -0.1497
43899SOL     OW38746   9.430   1.757   3.187 -0.0149  0.4124 -0.1707
43899SOL    HW138747   9.406   1.682   3.132  1.3604  0.5589 -1.0050
43899SOL    HW238748   9.444   1.828   3.125 -1.1415  1.3509  0.6021
43900SOL     OW38749   4.849   7.975   9.107 -0.0858 -0.5151  0.0144
43900SOL    HW138750   4.853   8.069   9.090 -0.6620 -0.0616  2.0480
43900SOL    HW238751   4.938   7.952   9.133 -0.2518 -0.1671  0.9705
43901SOL     OW38752   1.476   3.208  11.490  0.4891  0.0187  0.8068
43901SOL    HW138753   1.499   3.301  11.492  0.8335 -0.0555  0.4148
43901SOL    HW238754   1.558   3.163  11.507  0.2861 -0.2146  1.1835
43902SOL     OW38755  10.771   0.188   4.053  0.0298 -0.0440 -0.4045
43902SOL    HW138756  10.682   0.155   4.070  0.1016 -0.2336 -0.3889
43902SOL    HW238757  10.759   0.280   4.031 -0.0931  0.1468  0.4235
43903SOL     OW38758   8.914  12.503   1.852  0.4418  0.7526  0.0380
43903SOL    HW138759   8.978  12.439   1.823  0.1265 -0.0059  0.9438
43903SOL    HW238760   8.960  12.555   1.917  0.5612  1.1413 -0.3585
43904SOL     OW38761   2.237  11.919   8.182  0.1580  0.3483  0.1432
43904SOL    HW138762   2.180  11.974   8.235 -1.7987 -2.2671  0.9346
43904SOL    HW238763   2.291  11.872   8.246  1.3630  0.8432 -0.4833
43905SOL     OW38764   7.614   6.185  10.510 -0.2681  0.1401 -0.4290
43905SOL    HW138765   7.684   6.244  10.536 -0.7391 -0.0850  1.5874
43905SOL    HW238766   7.534   6.232  10.535 -0.6285 -1.6904  2.2913
43906SOL     OW38767   5.108   5.436   2.123  0.6542 -0.3273 -0.1743
43906SOL    HW138768   5.129   5.439   2.216 -1.3261  2.3902  0.3211
43906SOL    HW238769   5.094   5.528   2.099  3.6924 -0.5845 -3.8735
43907SOL     OW38770   6.081   4.119  12.368  0.2328 -1.0532 -0.0463
43907SOL    HW138771   6.159   4.119  12.312 -1.8060  0.6172 -3.1857
43907SOL    HW238772   6.066   4.211  12.388 -1.3524 -1.2595 -0.1728
43908SOL     OW38773   4.809   1.141  10.179  0.4911  0.3065 -0.7908
43908SOL    HW138774   4.751   1.175  10.112 -0.5933 -0.2485 -0.1637
43908SOL    HW238775   4.829   1.052  10.150 -0.7092 -0.2598  0.0370
43909SOL     OW38776   9.850   4.148   8.579 -0.0760  0.3128  0.2401
43909SOL    HW138777   9.784   4.103   8.632  0.6936  0.8555  1.7290
43909SOL    HW238778   9.928   4.094   8.587  0.2122  0.7107  0.1391
43910SOL     OW38779   6.460   7.501   2.786 -0.1518 -0.1730  0.6255
43910SOL    HW138780   6.447   7.591   2.816  1.1102  0.3613 -0.3805
43910SOL    HW238781   6.372   7.471   2.764 -0.5668  0.8801  0.7663
43911SOL     OW38782   4.748   6.235   2.370  0.1476 -0.2642  0.1319
43911SOL    HW138783   4.712   6.173   2.433 -0.8783  1.8463  1.7353
43911SOL    HW238784   4.822   6.275   2.415 -1.7199  2.6074  0.8611
43912SOL     OW38785  11.009  12.308  10.354 -0.1192 -0.2859 -0.3719
43912SOL    HW138786  10.992  12.296  10.260 -0.1297  0.3689 -0.4523
43912SOL    HW238787  10.924  12.330  10.392  0.3955  2.8233 -0.7501
43913SOL     OW38788  11.989   8.576   7.178  0.4891  0.4663 -0.6145
43913SOL    HW138789  11.963   8.571   7.270  0.6908  0.2164 -0.5714
43913SOL    HW238790  12.072   8.623   7.179  0.2211  0.9468 -0.7201
43914SOL     OW38791   9.984   5.765   4.184 -0.4752  0.0690 -0.2384
43914SOL    HW138792   9.996   5.750   4.278 -1.1851  1.6182  0.1327
43914SOL    HW238793   9.898   5.727   4.164  0.3560 -1.7184 -0.6560
43915SOL     OW38794   3.019   9.684  12.008  0.4626 -0.3156  0.2815
43915SOL    HW138795   2.985   9.706  11.920 -1.4290 -0.0848  1.0175
43915SOL    HW238796   3.041   9.769  12.046 -0.9160 -0.1883  0.8456
43916SOL     OW38797   1.858   4.198   9.580 -0.0135 -0.1268  0.1852
43916SOL    HW138798   1.770   4.162   9.572 -0.5080  1.0053  0.3259
43916SOL    HW238799   1.856   4.248   9.662  0.4772  0.6438 -0.2602
43917SOL     OW38800   6.349  11.502   2.739  0.3813 -0.2230  0.3350
43917SOL    HW138801   6.432  11.551   2.732  0.6047 -0.6896 -0.4461
43917SOL    HW238802   6.307  11.538   2.816  1.5895 -0.3734  1.1002
43918SOL     OW38803   3.332   3.979   5.638 -0.1621 -0.1794 -0.5063
43918SOL    HW138804   3.357   3.956   5.728  0.3776 -2.0192 -1.0734
43918SOL    HW238805   3.239   4.002   5.644  0.0839  0.5840  0.6475
43919SOL     OW38806   5.280   4.944   9.174  0.4947  0.2807 -1.3353
43919SOL    HW138807   5.282   4.899   9.090  0.7474 -1.7350 -0.3146
43919SOL    HW238808   5.312   4.879   9.237  1.0568  1.9665  0.2234
43920SOL     OW38809   7.717   2.152   7.183 -0.2869 -0.1518  0.4530
43920SOL    HW138810   7.691   2.149   7.092 -0.6362 -0.2378  0.5555
43920SOL    HW238811   7.757   2.238   7.195  2.3456 -1.1250 -0.4825
43921SOL     OW38812   3.222   5.905  11.723 -0.0413  0.1677  0.0445
43921SOL    HW138813   3.204   5.953  11.643 -0.2604 -0.7433 -0.4621
43921SOL    HW238814   3.253   5.972  11.785  0.7742  0.7815 -0.9926
43922SOL     OW38815   5.132   5.903   7.608 -0.3118  0.5161 -0.0413
43922SOL    HW138816   5.045   5.882   7.642 -0.6176 -0.4781 -1.3405
43922SOL    HW238817   5.153   5.988   7.646 -0.2827 -0.8016  3.1587
43923SOL     OW38818   2.488   7.351  11.732  0.1676  0.6799  0.3249
43923SOL    HW138819   2.449   7.290  11.795 -0.2138 -0.1610 -0.6853
43923SOL    HW238820   2.493   7.301  11.651 -0.1054  1.9804 -0.5298
43924SOL     OW38821   1.768   5.306   6.268  0.4825  0.2863 -0.3472
43924SOL    HW138822   1.741   5.386   6.224 -2.5945  0.5384  1.7311
43924SOL    HW238823   1.743   5.236   6.207 -1.0350  0.7405 -0.2764
43925SOL     OW38824   7.670   0.240   8.433  0.2325  0.1151  0.2131
43925SOL    HW138825   7.749   0.248   8.380 -0.2568  0.9030 -0.4121
43925SOL    HW238826   7.702   0.241   8.523  0.9519  0.1495 -0.0365
43926SOL     OW38827  12.577   4.691   7.985  0.1201 -1.1922 -0.2157
43926SOL    HW138828  12.664   4.674   8.022 -0.1689 -0.8602  0.6274
43926SOL    HW238829  12.594   4.739   7.904  0.7426 -1.5741 -0.3164
43927SOL     OW38830   7.655   1.701  11.230 -0.0629 -0.1882 -0.5076
43927SOL    HW138831   7.584   1.669  11.173  0.9216  1.1716 -2.6641
43927SOL    HW238832   7.729   1.714  11.170  1.0476  1.3361  1.0967
43928SOL     OW38833   2.475   2.612   3.149  0.3451 -0.1708 -0.8296
43928SOL    HW138834   2.468   2.560   3.229  0.5912  3.0721  1.5388
43928SOL    HW238835   2.409   2.681   3.159 -0.3625 -0.2416 -4.0089
43929SOL     OW38836  12.129   9.653  11.636 -0.3028 -0.2279  0.2041
43929SOL    HW138837  12.169   9.612  11.713  0.5526 -1.4372 -0.8372
43929SOL    HW238838  12.195   9.712  11.603  0.2419 -1.4126 -0.8893
43930SOL     OW38839   7.829   1.035   3.853  0.1347  0.1520  0.1285
43930SOL    HW138840   7.770   1.093   3.804  0.1537 -0.4275 -0.6005
43930SOL    HW238841   7.875   1.093   3.914  2.0541  1.3801 -2.3303
43931SOL     OW38842   0.826  11.035   1.141  0.0584 -0.2212 -0.1350
43931SOL    HW138843   0.841  11.012   1.233  1.5667 -0.3456 -0.3859
43931SOL    HW238844   0.735  11.065   1.138 -0.1196 -0.5590  1.3256
43932SOL     OW38845  11.860   9.328  11.468 -0.5448  0.5427  0.0721
43932SOL    HW138846  11.945   9.322  11.425 -1.0561  0.9986 -1.0454
43932SOL    HW238847  11.870   9.396  11.534  0.1758  0.0257  0.5014
43933SOL     OW38848   2.805   7.765   1.586 -0.0190  0.2857  0.4077
43933SOL    HW138849   2.815   7.690   1.644  0.1957  0.7554  0.9771
43933SOL    HW238850   2.752   7.731   1.513  1.2246 -0.8071 -0.0504
43934SOL     OW38851   0.710   9.649  10.726 -0.1050  0.1856 -0.7068
43934SOL    HW138852   0.614   9.642  10.729 -0.2873  2.4295 -0.0537
43934SOL    HW238853   0.739   9.621  10.812 -0.1552 -0.4776 -0.8985
43935SOL     OW38854   1.339  12.036   0.542  0.7539  0.8925 -0.0372
43935SOL    HW138855   1.357  11.944   0.520  1.3684  1.3392 -1.5121
43935SOL    HW238856   1.335  12.037   0.637  0.6141 -0.6921  0.0024
43936SOL     OW38857   1.052  11.854   5.931 -0.2421 -0.0652  0.8250
43936SOL    HW138858   1.082  11.763   5.939 -1.3275 -0.4313  0.8703
43936SOL    HW238859   1.013  11.874   6.017 -1.7517 -0.2201  0.2059
43937SOL     OW38860  11.915   7.263   3.376 -1.2511  0.7116 -0.1626
43937SOL    HW138861  11.872   7.190   3.420 -2.2151  1.0411 -0.5229
43937SOL    HW238862  11.977   7.298   3.440 -1.3233  0.0474  0.2729
43938SOL     OW38863   4.021   1.249   4.779  0.8806  0.2773  0.1289
43938SOL    HW138864   4.031   1.154   4.776  0.0790  0.1945 -0.3200
43938SOL    HW238865   4.043   1.278   4.690 -0.4634  0.3246 -0.2105
43939SOL     OW38866   4.909   7.016  11.742 -0.5256  0.1484 -0.4076
43939SOL    HW138867   4.866   7.057  11.817  0.7657  0.3421  0.2548
43939SOL    HW238868   4.890   6.923  11.751  0.6040  0.0043  0.8712
43940SOL     OW38869   1.915   6.133   5.595  0.1625 -0.3326  0.4391
43940SOL    HW138870   1.918   6.053   5.542 -1.5366 -0.8682  1.0918
43940SOL    HW238871   1.874   6.198   5.539  1.1291 -0.0326  0.0668
43941SOL     OW38872   3.881   3.906   0.609  0.2484  0.5879  0.1563
43941SOL    HW138873   3.787   3.913   0.621  0.5248  2.3902  1.7558
43941SOL    HW238874   3.907   3.835   0.668 -0.2183 -0.8869 -1.3320
43942SOL     OW38875   8.225   2.049   8.480 -0.0793  0.1765  0.3561
43942SOL    HW138876   8.144   2.002   8.499  1.5345 -1.9597  2.5223
43942SOL    HW238877   8.255   2.081   8.565  2.5786 -1.3026  0.0982
43943SOL     OW38878   3.381   0.975  11.408  0.1672  0.5983 -0.9186
43943SOL    HW138879   3.324   0.901  11.386  0.2155  0.3055 -0.0782
43943SOL    HW238880   3.354   1.003  11.495  1.2154  0.5247 -0.5490
43944SOL     OW38881   4.913  10.062  11.472  0.2842  0.0203  0.6028
43944SOL    HW138882   5.004  10.036  11.454  0.2756  1.0020 -1.0693
43944SOL    HW238883   4.919  10.155  11.494 -0.2697 -0.0496  1.0716
43945SOL     OW38884   3.204   8.235  11.044  0.2524 -0.4288 -0.0284
43945SOL    HW138885   3.117   8.237  11.003  0.3305  0.0531 -0.1747
43945SOL    HW238886   3.261   8.195  10.979 -0.0372 -1.6230  0.4246
43946SOL     OW38887   4.002   0.064   0.671 -0.2272  0.1163  0.3299
43946SOL    HW138888   4.062   0.115   0.727 -0.1967  0.4337  0.0113
43946SOL    HW238889   4.050   0.053   0.589 -0.4636  0.0667  0.1984
43947SOL     OW38890   5.332  12.498   8.217 -0.2683 -0.0417 -0.1426
43947SOL    HW138891   5.390  12.443   8.165  1.1918  0.9574  0.3843
43947SOL    HW238892   5.268  12.531   8.154 -1.2566 -2.3576 -0.4529
43948SOL     OW38893  10.084   5.169   4.444  0.7611 -0.1566 -1.2455
43948SOL    HW138894  10.046   5.249   4.480  1.0985 -0.3823 -0.3636
43948SOL    HW238895  10.171   5.195   4.416  1.4852 -0.5413  0.5089
43949SOL     OW38896   8.960   3.945   2.130 -0.1062  0.0225 -0.4907
43949SOL    HW138897   9.002   3.930   2.215 -0.1740  0.3279 -0.4021
43949SOL    HW238898   8.916   4.030   2.139 -1.5771 -0.7355 -0.2632
43950SOL     OW38899   6.909   4.191   3.763  0.0350  0.7462  0.0017
43950SOL    HW138900   6.959   4.123   3.718  0.6010  1.1662 -0.0138
43950SOL    HW238901   6.898   4.158   3.852 -2.6037 -0.9039 -0.8246
43951SOL     OW38902  10.110   4.246   9.706  0.0055 -0.1885  0.1952
43951SOL    HW138903  10.094   4.302   9.782 -2.7966 -0.0072 -0.4287
43951SOL    HW238904  10.173   4.296   9.653 -0.1393  0.9638  1.0708
43952SOL     OW38905   8.943   4.778   9.805 -0.1346  0.2366 -0.2993
43952SOL    HW138906   8.886   4.789   9.882  0.6700  0.3277  0.2919
43952SOL    HW238907   9.004   4.708   9.830  2.5007  2.6941  0.6063
43953SOL     OW38908   6.222   5.726   1.427 -0.7810  0.2239  0.6489
43953SOL    HW138909   6.144   5.755   1.380 -0.3087  0.8699  0.2325
43953SOL    HW238910   6.237   5.637   1.396 -2.0288 -0.3582  1.6454
43954SOL     OW38911   1.590   7.975   6.259  0.1671  0.6147  0.1805
43954SOL    HW138912   1.648   7.977   6.183  0.1005  1.9659  0.1489
43954SOL    HW238913   1.503   7.991   6.224 -0.1959 -0.9319  0.2895
43955SOL     OW38914   8.421   7.323  10.116 -0.2222  0.4730 -1.1523
43955SOL    HW138915   8.494   7.382  10.099 -0.5285  0.7168 -1.6374
43955SOL    HW238916   8.405   7.280  10.032  0.9831 -1.4409 -0.4710
43956SOL     OW38917   5.217   6.681   0.269  0.4402  0.4367 -0.6113
43956SOL    HW138918   5.188   6.772   0.256 -0.7534 -0.2413 -3.5494
43956SOL    HW238919   5.154   6.629   0.218 -0.0429 -2.2773  2.4502
43957SOL     OW38920   2.436   9.601   5.527 -0.8638  0.1398 -0.0953
43957SOL    HW138921   2.395   9.580   5.443  1.4360 -1.3314 -0.9504
43957SOL    HW238922   2.439   9.518   5.574  0.8891  0.2394  0.0183
43958SOL     OW38923   4.013   2.748  12.496 -0.3422 -0.0154 -0.4669
43958SOL    HW138924   3.982   2.839  12.488  0.5905  0.4775  0.9872
43958SOL    HW238925   3.985   2.706  12.415  0.5896  1.9893 -1.9149
43959SOL     OW38926   6.699   7.469  10.765  0.1135 -0.2013 -0.1266
43959SOL    HW138927   6.679   7.465  10.859  2.0063  1.5846  0.4378
43959SOL    HW238928   6.614   7.462  10.722 -0.7202 -2.2088  1.6397
43960SOL     OW38929  11.256   9.685   3.068 -0.6148 -0.4764 -0.1047
43960SOL    HW138930  11.186   9.736   3.108  0.8235  1.0517  0.6020
43960SOL    HW238931  11.300   9.747   3.008  1.0943 -0.8718  0.6727
43961SOL     OW38932  11.414   9.532   3.890  0.1892 -0.6706 -0.9236
43961SOL    HW138933  11.342   9.494   3.940  1.2130 -1.2723  0.1375
43961SOL    HW238934  11.402   9.626   3.898 -1.0868 -0.7445 -1.6871
43962SOL     OW38935   1.520   1.691  12.323  0.4175 -0.0608 -0.1048
43962SOL    HW138936   1.541   1.764  12.381  0.2920  0.2382 -0.4325
43962SOL    HW238937   1.441   1.720  12.276  0.7014 -0.1654 -0.6544
43963SOL     OW38938  10.031   0.909   7.195 -0.1377  0.2367 -0.4846
43963SOL    HW138939   9.954   0.945   7.239  0.3786 -0.9368  1.5013
43963SOL    HW238940  10.103   0.963   7.225  0.0187  0.4611 -1.2379
43964SOL     OW38941   3.494   8.083   2.434  0.3294  0.3909  0.2535
43964SOL    HW138942   3.557   8.114   2.500  2.2814 -0.9207 -0.8735
43964SOL    HW238943   3.533   8.109   2.350 -0.6959 -0.3891 -0.4922
43965SOL     OW38944   6.078   4.751  11.479  0.3314 -0.0633  0.5610
43965SOL    HW138945   6.147   4.799  11.525 -0.2871  0.9119  0.4968
43965SOL    HW238946   6.107   4.748  11.388  0.7886 -0.5884  0.7192
43966SOL     OW38947  10.125   6.162   9.314 -0.2835  0.5052 -0.0139
43966SOL    HW138948  10.177   6.083   9.330 -0.1281  0.8179  1.0905
43966SOL    HW238949  10.071   6.140   9.238 -0.5549 -0.8231  0.5371
43967SOL     OW38950  12.138   4.298   9.684 -0.2958 -0.1683  0.3592
43967SOL    HW138951  12.120   4.269   9.773  0.3833 -0.0621  0.5342
43967SOL    HW238952  12.234   4.300   9.678 -0.2573  2.3632  0.4840
43968SOL     OW38953   6.070   5.071   0.084  0.2483 -0.4447 -0.4053
43968SOL    HW138954   6.021   5.117   0.016 -1.4811 -0.6276  0.6462
43968SOL    HW238955   6.147   5.124   0.099 -0.1046  0.3936 -1.4485
43969SOL     OW38956   0.087   2.419  11.886 -0.8213 -0.2003  0.0737
43969SOL    HW138957   0.138   2.455  11.813  0.5372  1.5076  1.7511
43969SOL    HW238958   0.114   2.327  11.891  0.9173  0.2642 -0.0951
43970SOL     OW38959   7.298   4.097   3.713  0.0582  0.2092  0.0264
43970SOL    HW138960   7.273   4.099   3.621  3.0424  0.6372 -0.8885
43970SOL    HW238961   7.298   4.005   3.737  0.4657 -0.0109 -0.7949
43971SOL     OW38962   2.109   8.283   4.950 -0.0214 -0.1755 -0.2622
43971SOL    HW138963   2.081   8.319   5.034 -1.6260  1.6432 -1.4748
43971SOL    HW238964   2.111   8.359   4.892  0.0663 -1.5342 -2.1085
43972SOL     OW38965   8.762   4.426   4.668 -0.6637 -0.7241 -0.2191
43972SOL    HW138966   8.789   4.461   4.753  1.1861  1.3389 -1.5426
43972SOL    HW238967   8.801   4.338   4.666 -0.1393 -0.5350  0.7721
43973SOL     OW38968   1.792  10.821  11.824 -0.1873 -0.5465 -0.7835
43973SOL    HW138969   1.819  10.908  11.855 -0.5718 -0.6564 -0.1165
43973SOL    HW238970   1.847  10.760  11.873  0.9612 -0.6510 -2.1692
43974SOL     OW38971   4.509   3.233   5.356 -0.0996 -0.0046  0.4600
43974SOL    HW138972   4.532   3.317   5.318 -0.8883  1.2062  2.4943
43974SOL    HW238973   4.511   3.172   5.283 -0.6834  2.0040 -1.3325
43975SOL     OW38974   6.814   2.891   4.100  0.0998  0.1922  0.3185
43975SOL    HW138975   6.815   2.948   4.177 -1.9326  2.7962 -1.3842
43975SOL    HW238976   6.846   2.947   4.029 -1.1760 -1.0496 -1.3013
43976SOL     OW38977  10.579   5.562   4.143  0.4545  0.3022 -0.3468
43976SOL    HW138978  10.572   5.644   4.094 -0.6424  0.8633  0.6998
43976SOL    HW238979  10.550   5.495   4.081  1.5380  0.6473 -1.2780
43977SOL     OW38980   1.346   7.395   7.278 -0.0585 -0.1229 -0.0556
43977SOL    HW138981   1.396   7.413   7.199  1.2891 -1.1503  0.5265
43977SOL    HW238982   1.370   7.305   7.303 -0.3294  0.2215  1.5978
43978SOL     OW38983   2.953  10.925   0.661 -0.0833  0.1778  0.0210
43978SOL    HW138984   2.965  10.979   0.739 -1.0336  0.2276  0.1420
43978SOL    HW238985   2.859  10.909   0.657  0.3162 -2.9055  0.9258
43979SOL     OW38986   6.257   1.950   1.246  0.0366  0.0669 -0.5690
43979SOL    HW138987   6.200   1.976   1.174 -0.1758  0.1874 -0.3583
43979SOL    HW238988   6.202   1.957   1.324 -0.0906 -1.2068 -0.5207
43980SOL     OW38989   4.842   1.077   1.164  0.4924 -0.0081  0.2784
43980SOL    HW138990   4.911   1.127   1.122 -0.6466  0.9692 -0.5119
43980SOL    HW238991   4.826   1.002   1.106  0.1665  0.3556 -0.1120
43981SOL     OW38992   7.025   6.911   0.598  0.1349  0.5596 -0.0374
43981SOL    HW138993   6.996   6.917   0.507 -0.0988  1.8788  0.1061
43981SOL    HW238994   7.104   6.857   0.595  0.2319  0.7443 -1.0552
43982SOL     OW38995  10.738   6.410   6.393 -0.1017  0.1389  0.0877
43982SOL    HW138996  10.796   6.482   6.418 -0.3596  0.0230  1.0274
43982SOL    HW238997  10.717   6.365   6.475  0.6610 -1.4788 -0.5703
43983SOL     OW38998  10.082   2.887   9.589  0.1483  0.2924 -0.5906
43983SOL    HW138999  10.092   2.801   9.629  1.0988  0.7674  0.2381
43983SOL    HW239000  10.142   2.885   9.514  2.0831  1.0407  0.8520
43984SOL     OW39001   6.303   7.087   3.988 -0.1292  0.3227 -0.0608
43984SOL    HW139002   6.303   7.155   3.921  0.3812 -0.9061 -1.3493
43984SOL    HW239003   6.394   7.082   4.017 -0.5871  1.8522  1.8398
43985SOL     OW39004   7.297   2.232   6.536  0.0187 -0.0979  0.0039
43985SOL    HW139005   7.204   2.227   6.515  0.0947  0.4740 -0.4808
43985SOL    HW239006   7.304   2.189   6.622 -0.7451  0.1841  0.2216
43986SOL     OW39007  10.875  11.729   1.847 -0.9252  0.1717  0.1770
43986SOL    HW139008  10.842  11.641   1.829 -0.6331  0.5633 -2.9179
43986SOL    HW239009  10.841  11.783   1.775  0.8115  2.0646  0.6570
43987SOL     OW39010  10.173   9.660   5.369  0.6423  0.6396 -0.0210
43987SOL    HW139011  10.154   9.679   5.461  0.6281 -0.1076  0.1378
43987SOL    HW239012  10.220   9.738   5.338 -0.1081  1.2635  0.3749
43988SOL     OW39013   6.115  11.743   1.147 -0.2483  0.6648  0.0977
43988SOL    HW139014   6.060  11.780   1.078  0.2716  0.2264 -0.5755
43988SOL    HW239015   6.196  11.793   1.143  0.4687 -0.5074 -0.8352
43989SOL     OW39016   5.489   1.191   1.073  0.1712  0.2867 -0.6540
43989SOL    HW139017   5.457   1.281   1.060  1.5912  0.7758 -0.9379
43989SOL    HW239018   5.467   1.146   0.992 -0.0041  0.5536 -0.7576
43990SOL     OW39019   2.324   8.324   2.219 -0.3864  0.4326  0.0324
43990SOL    HW139020   2.331   8.374   2.138  1.3567  0.4479  0.1504
43990SOL    HW239021   2.351   8.385   2.288 -0.6429  0.0653  0.4665
43991SOL     OW39022  10.416   3.793   0.386  0.0683  0.7352  0.1027
43991SOL    HW139023  10.386   3.800   0.296 -0.4336 -1.0979  0.0862
43991SOL    HW239024  10.375   3.867   0.431 -1.2301  0.5876 -0.7840
43992SOL     OW39025   8.689   2.234   9.845  0.5837 -0.3146  0.9685
43992SOL    HW139026   8.670   2.327   9.833  0.2636 -0.3374  1.2758
43992SOL    HW239027   8.627   2.190   9.787  0.2607 -0.3597  1.3439
43993SOL     OW39028  12.083   8.091   5.381 -0.3270 -0.3489 -0.0568
43993SOL    HW139029  12.020   8.051   5.441 -0.9817 -0.3002 -0.6980
43993SOL    HW239030  12.154   8.027   5.373 -0.3560 -0.4589  0.5722
43994SOL     OW39031   2.664  10.828   6.751 -0.2398  0.0281  0.2390
43994SOL    HW139032   2.718  10.756   6.719 -0.8900 -0.1963 -0.3805
43994SOL    HW239033   2.711  10.907   6.722  0.0068 -0.1552  0.1274
43995SOL     OW39034   0.842   9.553   9.858 -0.0851  0.3369  0.3975
43995SOL    HW139035   0.747   9.558   9.843 -0.0058  0.1175 -0.1930
43995SOL    HW239036   0.875   9.500   9.785  0.5589  0.8356  0.3217
43996SOL     OW39037  10.231   3.936   1.446 -0.6601  0.1225  0.2105
43996SOL    HW139038  10.325   3.930   1.465 -0.5065 -2.1336 -0.8747
43996SOL    HW239039  10.195   3.987   1.518  1.4054  1.0975  0.6183
43997SOL     OW39040   8.767   3.368   0.407  0.1058 -0.0413 -0.3085
43997SOL    HW139041   8.859   3.372   0.433  0.8750 -3.2589 -1.9700
43997SOL    HW239042   8.762   3.422   0.328  0.3819  0.7191  0.1858
43998SOL     OW39043  11.148  10.339  12.353 -0.0967  0.1847  0.4676
43998SOL    HW139044  11.209  10.292  12.297  0.0490  2.3407 -1.3229
43998SOL    HW239045  11.064  10.332  12.307 -0.1877  1.1147  0.4733
43999SOL     OW39046   6.058   9.559   8.681 -0.1944  0.5805 -0.1218
43999SOL    HW139047   6.075   9.621   8.610 -0.8056  0.2153 -0.5900
43999SOL    HW239048   5.964   9.546   8.681 -0.2822  1.0584  1.1780
44000SOL     OW39049   0.832   5.346   0.177 -0.0814 -0.5060 -0.2604
44000SOL    HW139050   0.885   5.364   0.254  0.6512 -0.5879 -0.7338
44000SOL    HW239051   0.819   5.251   0.179 -2.2600 -0.2521  1.1492
44001SOL     OW39052   0.267   7.735   5.911 -0.0256  0.0255 -0.0197
44001SOL    HW139053   0.299   7.764   5.825  0.3579 -0.3628 -0.0106
44001SOL    HW239054   0.178   7.703   5.894  0.0466 -0.0417 -0.2705
44002SOL     OW39055   3.745   0.010   6.472 -0.1539  0.0628  0.1477
44002SOL    HW139056   3.679  -0.044   6.429 -1.9424  2.6187 -0.5612
44002SOL    HW239057   3.703   0.040   6.553  0.8042  0.3195  0.5606
44003SOL     OW39058  10.971   1.171   9.750 -0.5925 -0.9747 -0.3070
44003SOL    HW139059  10.998   1.259   9.722 -0.4254 -1.0817 -0.4833
44003SOL    HW239060  11.053   1.124   9.766 -0.6049 -0.0294  3.2872
44004SOL     OW39061   2.370   3.396   8.877  0.3204  0.0069 -0.7275
44004SOL    HW139062   2.307   3.334   8.839  0.5424  0.0043 -1.0965
44004SOL    HW239063   2.390   3.359   8.963  1.8170 -1.4325 -1.6263
44005SOL     OW39064   9.970   7.167   1.004  0.4628 -0.0971  0.2785
44005SOL    HW139065   9.994   7.114   0.928 -0.9550  0.0108 -0.2788
44005SOL    HW239066   9.943   7.251   0.967  1.0000  0.4074  1.0119
44006SOL     OW39067   5.326   9.935   0.342  0.1051 -0.2865 -0.5600
44006SOL    HW139068   5.291   9.966   0.426  3.4940  0.3282  0.8173
44006SOL    HW239069   5.271   9.975   0.276 -1.3542  1.0316  1.3450
44007SOL     OW39070   6.344   6.500   0.243 -0.8899  0.6074  0.7240
44007SOL    HW139071   6.348   6.552   0.163 -0.1126 -0.5631 -0.0358
44007SOL    HW239072   6.257   6.518   0.279 -1.3447  0.9797 -0.5073
44008SOL     OW39073   2.114  10.124   7.821 -0.4123  0.0340 -0.2179
44008SOL    HW139074   2.110  10.055   7.887  0.7364 -1.5670 -1.7364
44008SOL    HW239075   2.135  10.203   7.871  1.2469 -1.2649  1.2912
44009SOL     OW39076   4.232   0.088   4.477  0.3867  0.3698 -0.1437
44009SOL    HW139077   4.314   0.114   4.435  0.6097 -0.3086 -0.1338
44009SOL    HW239078   4.252   0.005   4.520 -0.7056 -0.6282 -1.4572
44010SOL     OW39079  10.222  11.596   0.101 -0.3287 -0.4738  0.2919
44010SOL    HW139080  10.267  11.651   0.166 -2.4982  2.1569 -0.2367
44010SOL    HW239081  10.238  11.641   0.017 -1.6038 -1.0183 -0.2694
44011SOL     OW39082   8.577   0.559   0.234  0.3050  0.0017  0.1081
44011SOL    HW139083   8.664   0.569   0.271 -0.0430 -0.0292  0.9550
44011SOL    HW239084   8.591   0.512   0.152  1.1114  0.2963  0.0662
44012SOL     OW39085  10.582   9.894  10.956 -0.0950  0.0871  0.8287
44012SOL    HW139086  10.601   9.969  10.899 -0.8655 -0.4563 -0.1807
44012SOL    HW239087  10.666   9.849  10.965  0.1659  0.5266  0.6171
44013SOL     OW39088   3.355  10.581   0.192  0.5588  0.2745  0.2520
44013SOL    HW139089   3.286  10.530   0.234  0.8178  0.4630  0.9242
44013SOL    HW239090   3.433  10.526   0.198  0.4532  0.0203 -0.5929
44014SOL     OW39091   9.116   0.739  11.232  0.1597 -0.2741  0.3941
44014SOL    HW139092   9.209   0.732  11.255  0.4168  1.1595 -0.1054
44014SOL    HW239093   9.114   0.729  11.137 -0.2271 -0.5541  0.4315
44015SOL     OW39094   8.856  11.349   9.232 -0.2286  0.0542  0.3582
44015SOL    HW139095   8.784  11.322   9.175 -0.3394  0.5299  0.2715
44015SOL    HW239096   8.828  11.323   9.320 -0.5700  0.3713  0.3432
44016SOL     OW39097   5.646   1.591   8.277 -0.2093 -0.2359  0.7406
44016SOL    HW139098   5.708   1.521   8.296 -1.1882 -1.0768  0.9609
44016SOL    HW239099   5.663   1.615   8.186  0.5357 -0.3340  0.8472
44017SOL     OW39100   5.691  10.428  10.488 -0.0392  0.1259 -0.1811
44017SOL    HW139101   5.597  10.409  10.497  0.3136 -0.7773  2.3470
44017SOL    HW239102   5.701  10.518  10.519 -0.0325  0.1557 -0.2680
44018SOL     OW39103   7.770  11.472  10.665  0.1537 -0.3989 -0.1863
44018SOL    HW139104   7.704  11.420  10.711 -1.0326  0.2897 -1.0568
44018SOL    HW239105   7.796  11.418  10.591  0.6084 -0.6836  0.1734
44019SOL     OW39106   7.910   0.114   6.507  0.4920  0.4170 -0.0994
44019SOL    HW139107   7.843   0.181   6.493  0.1446  0.3957  1.2881
44019SOL    HW239108   7.963   0.115   6.427 -1.5758 -0.0641 -1.5454
44020SOL     OW39109  11.410   1.744   7.986  0.4056 -0.0010  0.4961
44020SOL    HW139110  11.339   1.748   7.921 -0.6682 -0.2830  1.6254
44020SOL    HW239111  11.489   1.764   7.935 -0.4858  0.4805 -0.7696
44021SOL     OW39112   9.294   0.268   1.814 -0.0856  0.0899 -0.0776
44021SOL    HW139113   9.289   0.329   1.740 -0.0115  1.0338  0.6786
44021SOL    HW239114   9.226   0.299   1.874  0.3041 -0.2615  0.5460
44022SOL     OW39115   1.053   8.689   1.739  0.0091  0.0557  0.1543
44022SOL    HW139116   0.983   8.714   1.800  0.8643  1.0336  0.7897
44022SOL    HW239117   1.022   8.718   1.654 -1.1009 -1.0986  0.1481
44023SOL     OW39118   7.970   6.527   6.064  0.1826 -0.2225 -0.1273
44023SOL    HW139119   8.030   6.492   5.999  0.0455 -1.1334  0.2294
44023SOL    HW239120   7.901   6.570   6.012 -1.0779 -2.7742 -0.7123
44024SOL     OW39121   4.848   2.706   5.273 -0.2559  0.2196 -0.0884
44024SOL    HW139122   4.819   2.621   5.306 -1.6869  0.2717 -1.1397
44024SOL    HW239123   4.770   2.761   5.278  0.8318  1.7265  1.3060
44025SOL     OW39124   2.619   7.378   7.324 -0.2755 -0.1863 -0.0880
44025SOL    HW139125   2.571   7.457   7.297  0.3269  0.1950 -0.0535
44025SOL    HW239126   2.646   7.337   7.242  1.0681  0.6729 -0.1070
44026SOL     OW39127   2.593   6.050   2.284  0.4612  0.1213  0.5221
44026SOL    HW139128   2.680   6.014   2.300  0.9367  0.6790 -0.6517
44026SOL    HW239129   2.575   6.031   2.192 -0.4380  0.4802  0.6075
44027SOL     OW39130   0.371   5.314  10.497  0.1253  0.5434 -0.3047
44027SOL    HW139131   0.398   5.224  10.515  2.9780  1.1869 -0.8159
44027SOL    HW239132   0.392   5.362  10.577  0.3732  1.0743 -0.6810
44028SOL     OW39133  11.481   7.045   3.711  0.6195 -0.2926  0.2540
44028SOL    HW139134  11.491   6.987   3.635  1.3364  0.6778 -0.4307
44028SOL    HW239135  11.398   7.090   3.695  1.8370  1.5996 -1.2215
44029SOL     OW39136   2.159   1.781   0.570  0.5560  1.1080  0.1887
44029SOL    HW139137   2.241   1.820   0.539  0.4819  0.8899 -0.2870
44029SOL    HW239138   2.099   1.855   0.578  0.9050  1.3256  0.9105
44030SOL     OW39139   6.819  10.425   1.340 -0.1201 -0.2584 -0.1508
44030SOL    HW139140   6.887  10.434   1.272 -1.3277 -1.1274 -1.5413
44030SOL    HW239141   6.789  10.514   1.355 -1.5454 -0.1991 -2.6697
44031SOL     OW39142   6.388   0.560   3.747  0.1683 -0.0706  0.0410
44031SOL    HW139143   6.392   0.650   3.779  2.7695 -0.1620  0.1750
44031SOL    HW239144   6.295   0.546   3.726 -0.8054  1.6189  2.7848
44032SOL     OW39145   1.050   5.966   3.080  0.0449  0.2008  0.3782
44032SOL    HW139146   1.127   5.925   3.118  0.6493  0.4648 -0.5390
44032SOL    HW239147   1.075   6.058   3.069 -0.5351  0.3667  0.4220
44033SOL     OW39148   5.490   9.212   3.560 -0.0872 -0.8813  0.0830
44033SOL    HW139149   5.474   9.248   3.473 -0.3354 -1.8538 -0.2890
44033SOL    HW239150   5.485   9.288   3.619  1.9259  0.1022 -0.9275
44034SOL     OW39151   2.342   3.846   4.722 -0.8457  0.0373  0.0960
44034SOL    HW139152   2.290   3.767   4.707 -0.5138 -0.2169  0.2546
44034SOL    HW239153   2.432   3.818   4.706 -0.7459  0.4366 -0.0378
44035SOL     OW39154   7.634   6.492   1.455  0.6729  0.2027  0.1014
44035SOL    HW139155   7.580   6.494   1.376 -0.2912  0.0842  0.7500
44035SOL    HW239156   7.711   6.441   1.430 -0.7780 -2.0429 -0.0423
44036SOL     OW39157   9.265   0.743   3.502 -0.1173  0.2090 -0.3702
44036SOL    HW139158   9.181   0.727   3.460 -1.0785 -0.9137  1.8093
44036SOL    HW239159   9.297   0.824   3.462 -3.4490  2.1354  0.4954
44037SOL     OW39160   6.612   3.705   4.073  0.0332 -0.2513 -0.4017
44037SOL    HW139161   6.600   3.799   4.086  2.1456  0.0225 -0.0488
44037SOL    HW239162   6.669   3.677   4.145 -0.0138 -1.6594 -0.8737
44038SOL     OW39163  10.709   0.399   8.241 -0.4236  0.0524  0.2602
44038SOL    HW139164  10.703   0.494   8.240  0.0099  0.0854  0.6934
44038SOL    HW239165  10.768   0.379   8.314 -1.2600 -0.5931  0.7758
44039SOL     OW39166  11.690   8.817   5.891 -0.2206  0.3236 -0.3562
44039SOL    HW139167  11.671   8.790   5.801  0.9098 -0.1491 -0.4705
44039SOL    HW239168  11.782   8.842   5.890 -0.7808  2.5887  0.1605
44040SOL     OW39169  11.157   9.992   8.636 -0.3058 -0.0541 -0.4249
44040SOL    HW139170  11.078  10.046   8.641  0.6340  1.4169 -1.0456
44040SOL    HW239171  11.224  10.044   8.681  0.3062 -1.3325  0.1856
44041SOL     OW39172   6.630   1.798  11.339  0.2627 -0.1780  0.5764
44041SOL    HW139173   6.538   1.808  11.314 -0.8685 -3.1051  3.0047
44041SOL    HW239174   6.639   1.706  11.361  3.0978  0.5244  3.0007
44042SOL     OW39175  10.346   6.662   4.830 -0.4230  0.1175  0.4376
44042SOL    HW139176  10.336   6.567   4.823  1.3982 -0.1016  0.3350
44042SOL    HW239177  10.440   6.675   4.846 -0.5655  1.9290  0.0071
44043SOL     OW39178   8.620   1.956   1.289 -0.2082  0.0466  0.4314
44043SOL    HW139179   8.623   1.977   1.382  0.2850 -0.4469  0.5337
44043SOL    HW239180   8.706   1.984   1.256 -0.2004 -0.2102  0.2265
44044SOL     OW39181   3.651  10.521   7.056 -0.2903  0.2717 -0.2229
44044SOL    HW139182   3.608  10.601   7.087 -1.0650 -0.4305  0.5569
44044SOL    HW239183   3.589  10.483   6.994 -0.4829 -0.3767  0.3639
44045SOL     OW39184   9.287   0.632   9.525  0.3035  0.1506  0.5117
44045SOL    HW139185   9.329   0.710   9.489  0.8432  0.5268  1.8778
44045SOL    HW239186   9.269   0.577   9.449  0.4052  1.3695 -0.4207
44046SOL     OW39187  11.127   8.980  12.593 -0.2973  0.4508 -0.2335
44046SOL    HW139188  11.061   8.913  12.578 -0.7389  0.6136  0.8799
44046SOL    HW239189  11.077   9.062  12.600  0.2586  0.9470 -1.8426
44047SOL     OW39190   7.126   3.061   3.488 -0.4358 -0.1148 -0.6445
44047SOL    HW139191   7.221   3.064   3.490 -0.4286  2.3369  1.9038
44047SOL    HW239192   7.101   3.124   3.420 -0.1388  1.8664  0.9852
44048SOL     OW39193   8.925  10.483  11.113  0.3887 -0.0686 -0.8636
44048SOL    HW139194   8.901  10.392  11.130  0.5875  0.2292  1.2427
44048SOL    HW239195   8.855  10.534  11.154 -0.6273  0.7774 -3.4558
44049SOL     OW39196   5.815  11.559  10.554  0.1162  0.0963  0.2223
44049SOL    HW139197   5.763  11.640  10.557 -0.8755 -0.5417  1.1721
44049SOL    HW239198   5.803  11.527  10.464 -0.1726  0.5739  0.0837
44050SOL     OW39199   3.877   2.929   8.774 -0.0350 -0.0455 -0.3027
44050SOL    HW139200   3.799   2.919   8.829  0.0020 -0.0314 -0.2469
44050SOL    HW239201   3.950   2.916   8.835  0.0076  0.0801 -0.3279
44051SOL     OW39202   5.282   3.810  11.427  0.1949  0.3249  0.5462
44051SOL    HW139203   5.289   3.824  11.332 -0.2455  0.0831  0.4762
44051SOL    HW239204   5.190   3.827  11.447 -0.2043 -1.7030  0.5751
44052SOL     OW39205  10.024   7.199   1.857 -0.3148 -0.6074 -0.4251
44052SOL    HW139206  10.050   7.133   1.921  1.3323 -0.6627 -1.1029
44052SOL    HW239207   9.930   7.186   1.845 -0.0388 -2.8500 -0.5368
44053SOL     OW39208   1.010   6.354   3.584  0.3820  0.2056  0.2871
44053SOL    HW139209   1.017   6.388   3.494  0.8240  0.6550  0.4846
44053SOL    HW239210   0.931   6.395   3.619  0.9848  1.1658  0.5675
44054SOL     OW39211   9.188   4.229  11.337  0.3688  0.2283  0.2604
44054SOL    HW139212   9.211   4.169  11.408  1.1396  0.2296  0.0230
44054SOL    HW239213   9.263   4.226  11.277  0.8587  2.0992  0.6958
44055SOL     OW39214   1.869  12.172   5.997  0.0168 -0.3978 -0.1920
44055SOL    HW139215   1.799  12.237   5.999 -0.2334 -0.6822  0.8072
44055SOL    HW239216   1.881  12.153   5.904  1.2916  2.3163 -0.6784
44056SOL     OW39217   9.354   6.966   3.126 -0.4238 -0.6244  0.1244
44056SOL    HW139218   9.336   6.966   3.032 -2.0946  0.8844  0.3917
44056SOL    HW239219   9.303   6.893   3.160 -1.1631 -0.1689  0.0377
44057SOL     OW39220   0.629   5.771   1.668  0.3021  0.4528 -0.0084
44057SOL    HW139221   0.624   5.837   1.738  1.7348  1.2981 -0.6574
44057SOL    HW239222   0.570   5.805   1.600  1.7886  1.6410 -0.7591
44058SOL     OW39223   6.689   3.143   3.728  0.0426 -0.2349 -0.5145
44058SOL    HW139224   6.719   3.204   3.661  0.2198 -1.2633 -1.4093
44058SOL    HW239225   6.664   3.198   3.802 -0.9231  0.9891 -1.7078
44059SOL     OW39226   9.085  11.334   7.059  0.7715 -0.5760  0.1688
44059SOL    HW139227   9.061  11.244   7.083 -0.0145 -0.2773  0.5367
44059SOL    HW239228   9.016  11.363   7.000 -0.1822  0.5103  1.7287
44060SOL     OW39229   3.111   9.047   5.713  0.1298 -0.2042 -1.0024
44060SOL    HW139230   3.154   9.021   5.632 -2.0397 -1.0045 -1.9988
44060SOL    HW239231   3.036   8.988   5.720 -0.7997  1.0675  0.6082
44061SOL     OW39232   5.783   0.894  10.984 -0.4780  0.5086 -0.2896
44061SOL    HW139233   5.872   0.902  10.950 -0.1349  0.2636  0.5162
44061SOL    HW239234   5.780   0.808  11.024 -1.0412  0.5644 -0.2039
44062SOL     OW39235   4.142   2.901   2.101  0.1066 -0.5892  0.4238
44062SOL    HW139236   4.091   2.832   2.058 -1.6125  1.6355 -1.3956
44062SOL    HW239237   4.151   2.872   2.191 -2.8818 -1.9965  0.4042
44063SOL     OW39238   2.205   4.547   3.362  0.0993 -0.2848 -0.3742
44063SOL    HW139239   2.173   4.461   3.334  0.0233  0.1549 -1.6887
44063SOL    HW239240   2.253   4.581   3.287  1.0209  0.3983  0.4891
44064SOL     OW39241   2.678   2.680   4.432  0.2058  0.3708 -0.2564
44064SOL    HW139242   2.743   2.620   4.397 -0.5353  0.4439 -1.8718
44064SOL    HW239243   2.721   2.766   4.432  0.4224  0.2618 -0.4357
44065SOL     OW39244   0.343   6.330   9.940 -0.4688 -0.3412 -0.0466
44065SOL    HW139245   0.400   6.342  10.016 -0.4326 -1.8692  0.1836
44065SOL    HW239246   0.368   6.246   9.903  0.2305  0.8119 -2.4057
44066SOL     OW39247   5.781   1.109   3.012 -0.2468 -0.1947 -0.0717
44066SOL    HW139248   5.778   1.193   2.968 -1.6111 -0.7644 -1.1407
44066SOL    HW239249   5.850   1.060   2.966  0.3301  0.2130  0.3474
44067SOL     OW39250   3.288   6.308   2.163 -0.2622  0.2761  0.3544
44067SOL    HW139251   3.294   6.351   2.078 -1.1720 -0.9775 -0.3659
44067SOL    HW239252   3.328   6.222   2.150 -0.5570  0.0082  1.1525
44068SOL     OW39253   8.227   3.103  10.456  0.0304  0.1081  0.2767
44068SOL    HW139254   8.232   3.195  10.483 -1.3590  0.0839  0.6804
44068SOL    HW239255   8.300   3.061  10.502  0.5533  0.9663  0.2564
44069SOL     OW39256   0.451   2.713  10.151 -0.2896  0.0976  0.4575
44069SOL    HW139257   0.375   2.752  10.193  0.2523  0.6455  0.9473
44069SOL    HW239258   0.441   2.733  10.058 -2.4603 -2.6995 -0.0436
44070SOL     OW39259   1.212   1.302   9.872 -0.4551  0.2722  0.2971
44070SOL    HW139260   1.124   1.272   9.849  0.2547 -0.8374 -1.1288
44070SOL    HW239261   1.229   1.376   9.814 -0.7343  1.0192  1.1425
44071SOL     OW39262   0.617   6.545   1.500  0.4401 -0.1513 -0.0269
44071SOL    HW139263   0.666   6.608   1.448  2.4965  0.8564  2.8545
44071SOL    HW239264   0.567   6.599   1.562 -0.6998 -1.2992  0.0968
44072SOL     OW39265   7.471   9.783   1.259 -0.4523  0.3217 -0.1174
44072SOL    HW139266   7.439   9.712   1.202 -0.5331  0.2835 -0.0243
44072SOL    HW239267   7.547   9.818   1.213 -1.0861  0.9308 -0.7275
44073SOL     OW39268   2.706  11.100   9.346 -0.1246  0.3877  0.0396
44073SOL    HW139269   2.762  11.115   9.422  1.2776 -0.1156 -0.8552
44073SOL    HW239270   2.765  11.064   9.279 -1.0757  1.7617 -1.6359
44074SOL     OW39271  11.272   0.864   2.661 -0.0404 -0.0722 -0.5273
44074SOL    HW139272  11.269   0.959   2.668 -0.8514  0.1587 -3.1076
44074SOL    HW239273  11.183   0.838   2.640  0.3746 -1.3085 -0.8791
44075SOL     OW39274   2.940   3.411   1.381  0.3079  0.0646  0.2181
44075SOL    HW139275   3.014   3.371   1.428  1.7374  0.1158 -1.8507
44075SOL    HW239276   2.941   3.370   1.295 -0.6298  1.7320 -0.6504
44076SOL     OW39277   9.259   5.552   7.833 -0.3176  0.0872  0.0277
44076SOL    HW139278   9.210   5.547   7.751  1.1533  0.0622 -0.8898
44076SOL    HW239279   9.272   5.460   7.858  1.0656 -0.0001 -0.8898
44077SOL     OW39280   6.436   1.263   6.958  0.2203  0.0109 -0.2954
44077SOL    HW139281   6.488   1.339   6.983 -0.7496  1.1182 -1.4980
44077SOL    HW239282   6.501   1.196   6.934  1.0777  0.5802  0.3732
44078SOL     OW39283  10.611   7.736  11.164 -0.3898 -0.2724 -0.2851
44078SOL    HW139284  10.646   7.698  11.244 -2.1332 -2.3750 -0.4076
44078SOL    HW239285  10.542   7.674  11.137  0.2881  0.2225 -3.5189
44079SOL     OW39286  12.332   2.468   3.536 -0.0044  0.2367  0.4286
44079SOL    HW139287  12.321   2.375   3.516 -4.2259  0.6867 -0.3830
44079SOL    HW239288  12.286   2.480   3.619 -2.2977  1.9479 -0.9462
44080SOL     OW39289   3.414   2.597   2.697  0.1730 -0.6502  0.5830
44080SOL    HW139290   3.377   2.678   2.660 -0.4073 -1.2761 -0.2719
44080SOL    HW239291   3.337   2.548   2.727  0.5341 -0.8191  1.2387
44081SOL     OW39292  11.955  10.016   0.598 -0.7123 -0.7710 -0.2960
44081SOL    HW139293  12.016   9.970   0.656 -0.8909 -1.6228 -0.7681
44081SOL    HW239294  11.933  10.096   0.646 -1.2212 -1.6757  1.0387
44082SOL     OW39295  12.322   3.680   9.694  0.1657  0.4335 -0.1281
44082SOL    HW139296  12.353   3.616   9.758  0.0908  0.2859 -0.2404
44082SOL    HW239297  12.399   3.734   9.675  0.8740 -1.0567 -1.7826
44083SOL     OW39298   6.067   5.113   0.721  0.4837  0.7049  0.1860
44083SOL    HW139299   6.153   5.102   0.762  0.3311  0.5383  0.4673
44083SOL    HW239300   6.086   5.123   0.628  0.8050  0.6367  0.2417
44084SOL     OW39301   4.814   0.283   2.149  0.2107 -0.4261 -0.2030
44084SOL    HW139302   4.860   0.266   2.231  1.1930 -0.5826 -0.7796
44084SOL    HW239303   4.721   0.279   2.173  0.4244  1.8675  1.4168
44085SOL     OW39304  11.973   5.243   9.298 -0.2533  0.2382  0.2828
44085SOL    HW139305  12.010   5.181   9.360  1.3023 -0.1227 -0.9364
44085SOL    HW239306  12.024   5.230   9.218 -1.0015  1.9351 -0.5193
44086SOL     OW39307   6.189  11.260   1.786  0.0638  0.8076 -0.0011
44086SOL    HW139308   6.166  11.174   1.822 -0.4478  1.1947  0.6162
44086SOL    HW239309   6.155  11.258   1.696  0.2238  0.2965 -0.0496
44087SOL     OW39310   7.004  12.160   6.387 -0.1139  0.4762 -0.0837
44087SOL    HW139311   6.909  12.162   6.392 -0.0610  1.9846  1.5594
44087SOL    HW239312   7.024  12.132   6.298 -2.0640 -1.4566  0.0225
44088SOL     OW39313   2.314   1.793   3.917 -0.4171 -0.6579 -0.0288
44088SOL    HW139314   2.238   1.850   3.928  0.8053  1.2195 -0.7765
44088SOL    HW239315   2.354   1.821   3.835  1.4575 -1.0813  0.6686
44089SOL     OW39316   8.797   2.647   4.076 -0.2208  0.2098 -0.1984
44089SOL    HW139317   8.786   2.600   3.994  0.4192  0.1732 -0.2714
44089SOL    HW239318   8.890   2.638   4.096 -0.5913 -0.8668  1.1855
44090SOL     OW39319   5.446   9.837   2.543  0.0678 -0.8157 -0.2237
44090SOL    HW139320   5.389   9.780   2.596 -0.3712  0.7390  1.0513
44090SOL    HW239321   5.532   9.830   2.585  0.4565 -1.8473 -1.1304
44091SOL     OW39322   0.704   1.108  11.954 -0.3781  0.3693  0.0154
44091SOL    HW139323   0.736   1.050  11.885 -0.1028  1.4905 -0.8278
44091SOL    HW239324   0.644   1.169  11.910 -0.7572  0.6569  0.8932
44092SOL     OW39325   2.284   0.814   2.659  0.0777  0.0084  0.1453
44092SOL    HW139326   2.347   0.789   2.726  1.5868  1.2788 -0.7459
44092SOL    HW239327   2.281   0.739   2.600  0.8704 -0.0179  0.1285
44093SOL     OW39328   8.740   2.776  10.770  0.2896  0.5781 -0.1158
44093SOL    HW139329   8.718   2.747  10.859  2.9500 -0.6456  0.2656
44093SOL    HW239330   8.816   2.834  10.782  1.8836 -1.0464 -1.6094
44094SOL     OW39331   4.192  11.693   7.800 -0.0884 -0.2999  0.6819
44094SOL    HW139332   4.126  11.732   7.858 -1.4266  0.8629 -1.4768
44094SOL    HW239333   4.276  11.718   7.839 -0.8982 -0.2598  2.5219
44095SOL     OW39334  10.247   2.381   8.815  0.1699 -0.0074 -0.0288
44095SOL    HW139335  10.171   2.400   8.870 -0.0556  1.3447 -0.7761
44095SOL    HW239336  10.318   2.369   8.877 -0.3525  0.1566  0.6202
44096SOL     OW39337   5.106   1.562   4.056 -0.0970 -0.4803 -0.1919
44096SOL    HW139338   5.088   1.544   4.148 -1.0865 -1.1011 -0.4930
44096SOL    HW239339   5.023   1.593   4.020  0.2264 -0.4164 -0.9178
44097SOL     OW39340   0.505  11.603   6.516 -0.3565 -0.3532 -0.1236
44097SOL    HW139341   0.517  11.541   6.445  2.9771  1.8041 -1.6589
44097SOL    HW239342   0.461  11.553   6.585  0.7733 -3.9161 -1.8153
44098SOL     OW39343   2.464   1.555   1.747 -0.1171  0.0735 -0.3200
44098SOL    HW139344   2.462   1.469   1.703  0.1840 -0.3352  0.4507
44098SOL    HW239345   2.412   1.542   1.827 -0.3197  0.6997 -0.3440
44099SOL     OW39346   3.244   2.228   7.178  0.3956  0.2963  0.2895
44099SOL    HW139347   3.249   2.164   7.249 -2.4535 -0.5908 -0.1754
44099SOL    HW239348   3.151   2.234   7.157  0.9901  1.4018 -2.5963
44100SOL     OW39349   0.938   6.814   7.515  0.1404 -0.9155  0.1837
44100SOL    HW139350   0.895   6.899   7.503 -0.9126 -1.5501 -0.6817
44100SOL    HW239351   1.029   6.829   7.489 -0.3567 -0.3925 -1.3489
44101SOL     OW39352   6.230   7.174   5.749 -0.5296  0.1578 -0.1678
44101SOL    HW139353   6.319   7.159   5.781  0.0542 -0.4987 -1.9655
44101SOL    HW239354   6.242   7.206   5.659 -2.0851  1.1825 -0.0437
44102SOL     OW39355   0.652  10.634  12.116 -0.2824 -0.0037 -0.1068
44102SOL    HW139356   0.745  10.609  12.122  0.0045  0.8762 -0.6422
44102SOL    HW239357   0.654  10.724  12.084 -1.3093  0.3485  0.7775
44103SOL     OW39358   6.923   2.924   1.115  0.0577  0.7904 -0.1083
44103SOL    HW139359   6.925   2.856   1.181 -1.3066 -0.1958 -1.0289
44103SOL    HW239360   6.928   3.006   1.165 -0.1673  0.0655  1.1501
44104SOL     OW39361   3.248   5.602   7.909 -0.2060  0.0496 -0.2212
44104SOL    HW139362   3.222   5.523   7.956  0.7006 -0.7289 -1.0026
44104SOL    HW239363   3.210   5.673   7.960 -0.0273 -0.8201  1.1814
44105SOL     OW39364  10.326   8.430   7.701 -0.2548 -0.3818  1.1947
44105SOL    HW139365  10.402   8.481   7.728  0.2639 -0.5227  0.0462
44105SOL    HW239366  10.363   8.357   7.651 -1.1878  0.4388 -0.8086
44106SOL     OW39367   2.437   9.232   2.249 -0.2930  0.0042 -0.1104
44106SOL    HW139368   2.496   9.219   2.324  0.1940 -1.7668 -0.7549
44106SOL    HW239369   2.467   9.169   2.184 -1.3071  0.8610 -1.4516
44107SOL     OW39370   8.473   0.575   6.483  0.4755  0.0828  0.7687
44107SOL    HW139371   8.537   0.526   6.534  2.1038 -2.7599 -3.4286
44107SOL    HW239372   8.392   0.524   6.491 -0.3393  1.6127  3.1077
44108SOL     OW39373   7.920   0.900   3.497 -0.2439 -0.2520 -0.1925
44108SOL    HW139374   7.828   0.885   3.519 -0.7085  1.8665 -0.4167
44108SOL    HW239375   7.961   0.923   3.580 -0.0280 -0.6566 -0.1842
44109SOL     OW39376  10.097   6.164   6.414 -0.0624 -0.1571 -0.3146
44109SOL    HW139377  10.013   6.131   6.383  0.2561 -1.3870  0.0795
44109SOL    HW239378  10.149   6.085   6.430  0.8510  0.5571  0.3043
44110SOL     OW39379   5.576   4.790   1.059  0.0940 -0.4635 -0.2592
44110SOL    HW139380   5.569   4.853   0.988  1.9683 -1.6662 -1.5956
44110SOL    HW239381   5.667   4.796   1.089  0.0837 -1.9092  0.1552
44111SOL     OW39382  12.521   3.426  12.280  0.6944 -0.4582  0.2318
44111SOL    HW139383  12.504   3.372  12.357  0.5834  0.9408  1.2421
44111SOL    HW239384  12.608   3.400  12.250  0.1133 -2.0815 -0.1079
44112SOL     OW39385   0.079   7.516   5.343  0.6767  0.6546  0.1205
44112SOL    HW139386   0.043   7.593   5.298  0.7486  0.9344  0.5350
44112SOL    HW239387   0.014   7.496   5.411  1.3561  1.2484  0.9654
44113SOL     OW39388  10.141   3.269   4.181 -0.3886  0.2370  0.3693
44113SOL    HW139389  10.173   3.314   4.258  0.1827 -1.8187  1.4037
44113SOL    HW239390  10.207   3.202   4.163 -0.0906  1.1503 -2.4188
44114SOL     OW39391   5.865  11.751   1.875  0.3570 -0.0269  0.4006
44114SOL    HW139392   5.901  11.836   1.901  0.6656 -0.4378  1.3855
44114SOL    HW239393   5.940  11.691   1.882  0.5287 -0.1246 -1.7713
44115SOL     OW39394   9.385   0.564   8.689 -0.5265  0.0319 -0.5976
44115SOL    HW139395   9.366   0.511   8.767 -0.2808  1.6301  0.6068
44115SOL    HW239396   9.311   0.624   8.683 -0.6483 -0.2197 -1.7540
44116SOL     OW39397   1.066   0.834   0.050  0.0401  0.0042  0.1036
44116SOL    HW139398   1.129   0.823  -0.021  0.3313 -0.4278  0.4185
44116SOL    HW239399   1.120   0.847   0.128 -0.2691  0.0946  0.3052
44117SOL     OW39400   4.718   4.424   2.238 -0.7841 -0.1218  0.8871
44117SOL    HW139401   4.778   4.386   2.302 -0.4227  0.3421  0.8306
44117SOL    HW239402   4.631   4.398   2.267 -0.7547  1.3983  2.4755
44118SOL     OW39403  10.048   2.466   2.736  0.2510 -0.0866 -0.2290
44118SOL    HW139404  10.023   2.374   2.739  0.3047 -0.1105 -0.5598
44118SOL    HW239405   9.980   2.508   2.684  0.8979 -0.1529 -1.1449
44119SOL     OW39406   7.682   9.113   6.925 -0.4119 -0.8165  0.3491
44119SOL    HW139407   7.603   9.158   6.894  0.8957  0.2644 -1.6748
44119SOL    HW239408   7.702   9.050   6.855  1.5636  0.2981 -0.1448
44120SOL     OW39409   5.586   6.137   2.513 -0.0769 -0.7534  0.2933
44120SOL    HW139410   5.583   6.084   2.434  1.5146  0.3082 -0.5158
44120SOL    HW239411   5.536   6.215   2.492 -0.8255 -1.0657  0.8435
44121SOL     OW39412   7.366   3.305   3.751  0.2977 -0.7340  0.7635
44121SOL    HW139413   7.449   3.352   3.745  0.5696 -1.1029  1.5049
44121SOL    HW239414   7.388   3.216   3.723  0.0551 -0.7278  0.5522
44122SOL     OW39415   7.595   9.402  12.534 -0.0892  0.1823  0.1936
44122SOL    HW139416   7.526   9.358  12.583  0.3401 -0.5181  0.1789
44122SOL    HW239417   7.622   9.338  12.468  1.0346  0.1898  0.6271
44123SOL     OW39418   2.530   1.165   5.032 -0.2488 -0.8910  0.2571
44123SOL    HW139419   2.495   1.153   4.943  0.3931  0.3488 -0.1757
44123SOL    HW239420   2.608   1.219   5.020 -0.2451 -0.5767  1.5959
44124SOL     OW39421   0.222  10.214   3.885  0.3690  0.2720 -0.3228
44124SOL    HW139422   0.132  10.237   3.863  0.2031 -0.9999 -1.0798
44124SOL    HW239423   0.255  10.288   3.935 -1.9854 -0.3859  2.4483
44125SOL     OW39424   7.559   2.384   6.109 -0.4957 -0.2524 -0.4488
44125SOL    HW139425   7.560   2.307   6.167 -2.5221 -0.1125 -0.1542
44125SOL    HW239426   7.507   2.449   6.157  0.7787  1.1613 -0.9075
44126SOL     OW39427   0.056   7.669  11.190  0.3211  0.3743  0.7264
44126SOL    HW139428   0.013   7.646  11.108  1.2808 -1.7188  0.7434
44126SOL    HW239429   0.115   7.596  11.208  3.8057  2.8868  0.7938
44127SOL     OW39430   1.094  10.880   5.858 -0.3310 -0.2692 -0.3324
44127SOL    HW139431   1.079  10.804   5.913  2.8030 -1.5106 -0.9506
44127SOL    HW239432   1.029  10.872   5.787 -2.0115 -0.6228  1.1842
44128SOL     OW39433   0.876   2.468  10.530  0.5804 -0.5016  0.3968
44128SOL    HW139434   0.912   2.554  10.550  1.9771 -0.2288 -2.7822
44128SOL    HW239435   0.807   2.484  10.466 -0.5578 -1.6440  1.2609
44129SOL     OW39436   3.256   7.837   5.358  0.6718 -0.3819  0.7644
44129SOL    HW139437   3.172   7.883   5.365  0.6985 -0.3837  1.1315
44129SOL    HW239438   3.307   7.868   5.433  0.7906 -0.8013  0.8598
44130SOL     OW39439   9.686   3.600   5.157  0.2533  0.1436 -0.3395
44130SOL    HW139440   9.650   3.684   5.187  0.3078 -0.3484  1.2158
44130SOL    HW239441   9.777   3.619   5.137  0.3346  0.4197  0.2617
44131SOL     OW39442   9.561   5.194   4.467 -0.1777  0.1578  0.4049
44131SOL    HW139443   9.570   5.283   4.501  0.7691 -0.2439  1.2333
44131SOL    HW239444   9.469   5.189   4.440 -0.1924  1.4571  0.1041
44132SOL     OW39445   5.578  10.990   4.649  0.0986 -0.2591 -0.4102
44132SOL    HW139446   5.617  11.066   4.694  0.4185  0.6354 -2.1097
44132SOL    HW239447   5.627  10.983   4.567 -1.1476 -1.1760 -1.1046
44133SOL     OW39448   2.425   2.075   6.062 -0.3667  0.1523  0.2014
44133SOL    HW139449   2.333   2.053   6.046 -0.1198 -0.3977 -0.5216
44133SOL    HW239450   2.460   2.000   6.111 -0.1449  0.0708 -0.0788
44134SOL     OW39451   8.851   9.644   5.253 -0.4968  0.3289 -0.1319
44134SOL    HW139452   8.808   9.562   5.227 -0.4277  0.5268 -0.8998
44134SOL    HW239453   8.892   9.676   5.172 -0.9799  1.3911  0.0294
44135SOL     OW39454   9.586   3.404   2.534 -0.3045  0.1906 -0.8504
44135SOL    HW139455   9.622   3.431   2.618  0.8511 -2.4206 -0.3776
44135SOL    HW239456   9.496   3.434   2.535  0.5214  2.8794 -0.0348
44136SOL     OW39457   7.731   2.876   8.545 -0.2478  0.1395 -0.1547
44136SOL    HW139458   7.820   2.844   8.529  0.8552  2.5658  0.5221
44136SOL    HW239459   7.721   2.949   8.485 -1.3965  0.5403  0.4936
44137SOL     OW39460   2.647   4.764   2.456  0.6534  0.5327 -0.1323
44137SOL    HW139461   2.655   4.813   2.373  0.1684  0.8992  0.0355
44137SOL    HW239462   2.595   4.687   2.433  1.0757  0.2922 -0.3072
44138SOL     OW39463   2.157  11.983   3.800  0.1640  0.0946  0.6650
44138SOL    HW139464   2.118  12.007   3.884  0.7918  1.1451  0.6874
44138SOL    HW239465   2.083  11.964   3.743 -0.2613 -2.9784  2.0573
44139SOL     OW39466   4.850   2.368  11.911 -0.3609 -0.7754  0.3586
44139SOL    HW139467   4.888   2.295  11.862 -1.1353 -0.5625 -0.6095
44139SOL    HW239468   4.770   2.390  11.862 -0.3779  0.4154  0.8915
44140SOL     OW39469  11.828  10.321   6.506 -0.3486 -0.0215 -0.3226
44140SOL    HW139470  11.840  10.253   6.440  1.5544 -0.3628  0.3200
44140SOL    HW239471  11.755  10.289   6.560  0.4962 -1.5836 -0.0396
44141SOL     OW39472   8.621   8.479   2.297 -0.0395  0.2514  0.0635
44141SOL    HW139473   8.612   8.407   2.359 -1.3383 -0.6786 -1.1445
44141SOL    HW239474   8.692   8.533   2.333 -1.9928  0.8525  3.4048
44142SOL     OW39475   6.779   4.435  11.001 -0.3293 -0.0156 -0.2499
44142SOL    HW139476   6.816   4.486  11.073 -0.7502  1.6540 -1.1493
44142SOL    HW239477   6.855   4.393  10.960  0.1036  0.3024  0.2125
44143SOL     OW39478   2.061   7.644   5.490 -0.8539  0.4419  0.2729
44143SOL    HW139479   2.053   7.582   5.563 -0.6803  0.3360  0.2035
44143SOL    HW239480   2.133   7.701   5.515 -2.2131  1.8352  1.2248
44144SOL     OW39481   8.298  12.168   9.184 -0.0485  0.2743  0.5144
44144SOL    HW139482   8.231  12.219   9.229 -1.4591 -0.5891 -0.4969
44144SOL    HW239483   8.329  12.105   9.249 -1.7713 -0.6971  0.4617
44145SOL     OW39484   1.334   2.726  11.850 -0.0491 -0.1711  0.2159
44145SOL    HW139485   1.425   2.752  11.853  0.2513 -1.1388 -0.0193
44145SOL    HW239486   1.296   2.777  11.778  0.9105 -1.5246 -1.3230
44146SOL     OW39487   0.181   1.854   7.810  0.3894  0.3649  0.6805
44146SOL    HW139488   0.219   1.827   7.893  1.7361  0.9713  0.3024
44146SOL    HW239489   0.251   1.841   7.746 -0.6774 -0.2799 -0.4102
44147SOL     OW39490  11.144   0.056   6.733  0.2100  0.2199 -0.0208
44147SOL    HW139491  11.177   0.119   6.670 -0.8093 -0.5710 -1.4011
44147SOL    HW239492  11.138  -0.026   6.684 -0.2176 -0.5228  1.2251
44148SOL     OW39493   3.534   8.321  10.619 -0.4918  0.4170 -0.1222
44148SOL    HW139494   3.503   8.232  10.598 -1.3263  0.2037  1.8151
44148SOL    HW239495   3.557   8.317  10.712 -2.7997  2.8041  0.6742
44149SOL     OW39496   5.563   0.931   8.803 -0.0741  0.1899  0.2564
44149SOL    HW139497   5.596   0.841   8.796 -0.5958 -0.1047  1.2507
44149SOL    HW239498   5.522   0.934   8.890  1.4565  1.9051  0.9847
44150SOL     OW39499   6.968   2.092   7.134 -0.5650  0.0657 -0.1422
44150SOL    HW139500   6.963   2.119   7.226  0.2608  0.9697 -0.3365
44150SOL    HW239501   7.033   2.022   7.133  1.2390  1.6538 -0.3214
44151SOL     OW39502   9.233   2.324  12.097  0.0434 -0.3999 -0.1746
44151SOL    HW139503   9.234   2.228  12.102  2.2814 -0.4332 -0.6243
44151SOL    HW239504   9.304   2.352  12.154 -0.5738  1.0115 -0.0632
44152SOL     OW39505   0.146   1.171   8.686 -0.2418  0.0289 -0.1628
44152SOL    HW139506   0.214   1.104   8.682  2.4113  2.5585 -0.5056
44152SOL    HW239507   0.119   1.173   8.777  1.0494 -0.2230  0.2468
44153SOL     OW39508   1.116   3.331   4.429 -0.4564  0.1561 -0.2932
44153SOL    HW139509   1.059   3.407   4.417 -1.0348 -0.2876 -0.3826
44153SOL    HW239510   1.201   3.360   4.396 -0.7206  0.7021 -0.5127
44154SOL     OW39511   9.655   1.076   9.519 -0.2850 -0.5162 -0.0515
44154SOL    HW139512   9.591   1.125   9.570 -0.6476  0.2074 -1.1618
44154SOL    HW239513   9.738   1.120   9.538 -0.5286  0.2264 -0.6304
44155SOL     OW39514   9.494   3.704   3.467  0.7744 -0.1735 -0.1795
44155SOL    HW139515   9.586   3.731   3.474  0.1735  2.5117 -1.3754
44155SOL    HW239516   9.445   3.778   3.501 -1.0089 -0.4170 -2.0411
44156SOL     OW39517   2.522  10.438   9.021 -0.1887 -0.7599 -1.1891
44156SOL    HW139518   2.602  10.400   8.985  0.3488  0.2217 -1.0353
44156SOL    HW239519   2.470  10.462   8.944 -0.4313 -1.5595 -1.2874
44157SOL     OW39520   3.412   3.133   6.174 -0.8492 -0.0475 -0.3446
44157SOL    HW139521   3.409   3.038   6.162  1.7271 -0.3301  0.4909
44157SOL    HW239522   3.486   3.162   6.121 -0.5431  1.2365  0.7057
44158SOL     OW39523   4.723   2.465   5.385 -0.4376 -0.2022 -0.8347
44158SOL    HW139524   4.787   2.444   5.452  1.7736  1.7543 -2.1883
44158SOL    HW239525   4.656   2.516   5.431 -1.8070 -3.2251  0.8302
44159SOL     OW39526   0.653   4.206   9.300  0.0632  0.5854 -0.3380
44159SOL    HW139527   0.740   4.240   9.321  0.2467  0.6446 -1.1618
44159SOL    HW239528   0.601   4.222   9.379  0.4705  1.6542 -0.2738
44160SOL     OW39529   3.767   3.152   7.546  0.2676 -0.1174  0.5309
44160SOL    HW139530   3.707   3.179   7.477 -0.4292 -0.2490  1.0804
44160SOL    HW239531   3.752   3.214   7.617  0.3446 -0.5189  0.9042
44161SOL     OW39532   5.034   2.185  10.707 -0.7818 -0.7170  0.2404
44161SOL    HW139533   5.051   2.227  10.623 -0.5422 -2.3535 -0.5745
44161SOL    HW239534   4.979   2.110  10.686 -0.3451 -1.4178  1.4838
44162SOL     OW39535   5.273   3.819   3.376  0.3762  0.4235 -0.6328
44162SOL    HW139536   5.280   3.730   3.411  1.6271  1.0476  0.7939
44162SOL    HW239537   5.180   3.840   3.386  0.3097 -0.2346  0.2961
44163SOL     OW39538   3.215   0.139   9.243 -0.2316  0.0052 -0.3034
44163SOL    HW139539   3.222   0.044   9.253  1.9178  0.1413 -0.0914
44163SOL    HW239540   3.237   0.173   9.330  2.3487  0.7387 -1.1486
44164SOL     OW39541   9.271   7.358   4.032 -0.3202 -0.2635  0.5227
44164SOL    HW139542   9.185   7.336   3.998 -0.0019 -1.8068  0.6357
44164SOL    HW239543   9.260   7.445   4.071 -1.1720  0.6769 -1.6765
44165SOL     OW39544   6.049   7.513   7.044  0.5323  0.4420 -0.6537
44165SOL    HW139545   6.019   7.423   7.034  3.8759 -0.9709  0.6580
44165SOL    HW239546   6.091   7.515   7.131 -0.0843  3.4977 -0.3116
44166SOL     OW39547   8.860   1.205   4.890  0.1806  0.2389  0.1070
44166SOL    HW139548   8.895   1.181   4.975  0.2213  0.2372  0.0895
44166SOL    HW239549   8.784   1.260   4.910  1.1793  1.6497  0.1441
44167SOL     OW39550   2.448   5.283   9.468  0.4569  0.1506 -0.8049
44167SOL    HW139551   2.435   5.315   9.557 -0.2091  0.6534 -1.0745
44167SOL    HW239552   2.420   5.191   9.471  0.3732  0.1846 -0.5095
44168SOL     OW39553   1.162   0.546   5.750  0.2351 -0.5788 -0.8679
44168SOL    HW139554   1.171   0.642   5.751 -1.5720 -0.3923 -0.7277
44168SOL    HW239555   1.143   0.525   5.658 -0.3844 -0.7048 -0.7085
44169SOL     OW39556   7.140   2.483   3.394  0.1057 -0.5264 -0.6361
44169SOL    HW139557   7.053   2.505   3.361 -0.8520  0.0408  2.0317
44169SOL    HW239558   7.125   2.416   3.460  1.7620 -0.6854 -0.3673
44170SOL     OW39559  12.325  11.772  12.031 -0.7305 -0.1113  0.3431
44170SOL    HW139560  12.378  11.842  12.070  0.6508 -0.8324 -0.1358
44170SOL    HW239561  12.254  11.817  11.986 -0.3187  0.9341  0.7110
44171SOL     OW39562   7.782   6.712   5.317  0.2852 -0.4045 -0.5402
44171SOL    HW139563   7.777   6.617   5.310 -1.4950 -0.5442  1.4879
44171SOL    HW239564   7.713   6.744   5.259  1.2282 -0.2833 -1.6283
44172SOL     OW39565   7.815   8.558   3.879  0.0252 -0.3256 -0.6143
44172SOL    HW139566   7.738   8.526   3.927  0.2882  1.3493  1.0637
44172SOL    HW239567   7.883   8.493   3.896 -0.4473 -0.7604 -0.3624
44173SOL     OW39568   0.252   9.086  11.682 -0.0786  0.4698  0.6904
44173SOL    HW139569   0.246   9.181  11.687 -0.1162  0.4610  0.8034
44173SOL    HW239570   0.165   9.055  11.707 -0.5920  0.4664 -0.9610
44174SOL     OW39571   6.771   3.260   8.153  0.2340 -0.3630 -0.2048
44174SOL    HW139572   6.837   3.258   8.222 -0.2020 -0.9488  0.1966
44174SOL    HW239573   6.822   3.276   8.073  0.6453  1.2862  0.3361
44175SOL     OW39574   6.331  11.437   8.887  0.3363 -0.0005  0.2058
44175SOL    HW139575   6.381  11.514   8.860  0.3754 -0.1676 -0.2122
44175SOL    HW239576   6.391  11.364   8.873 -0.2481 -0.2826 -0.9883
44176SOL     OW39577   7.066   0.452   8.423  0.5701 -0.2276 -0.1044
44176SOL    HW139578   6.999   0.470   8.489  1.5475  1.8208  0.4320
44176SOL    HW239579   7.023   0.471   8.340 -0.5125 -2.3106 -0.0800
44177SOL     OW39580   9.924   4.002   4.020 -0.0416  0.5107  0.2459
44177SOL    HW139581   9.886   4.054   4.091 -0.2429  0.2758  0.3117
44177SOL    HW239582   9.942   4.065   3.951 -1.5850  0.4640 -0.2277
44178SOL     OW39583   5.717  11.683   0.129  0.1865  0.5404  0.4191
44178SOL    HW139584   5.677  11.604   0.165  1.1324 -0.9138 -1.5484
44178SOL    HW239585   5.656  11.713   0.062  0.4026  0.7640  0.3213
44179SOL     OW39586   5.932   3.966  12.534 -0.2575  0.1147 -0.4713
44179SOL    HW139587   5.947   4.017  12.613 -0.4879 -0.1621 -0.2443
44179SOL    HW239588   5.982   4.011  12.466 -0.3632  0.5676 -0.2501
44180SOL     OW39589   6.609   4.238   3.822  0.0405 -0.9583 -0.2907
44180SOL    HW139590   6.603   4.150   3.785  1.9648  0.0830 -3.4476
44180SOL    HW239591   6.700   4.263   3.808  0.2023  0.6922  2.8102
44181SOL     OW39592   4.902   0.710   8.028 -0.6509 -0.1689 -0.1826
44181SOL    HW139593   4.978   0.749   8.072 -0.6976  0.1393 -0.3741
44181SOL    HW239594   4.886   0.629   8.076 -1.4786  0.7694  1.1733
44182SOL     OW39595   5.078   0.639   7.273  0.0792 -0.5054 -0.5175
44182SOL    HW139596   5.002   0.581   7.269 -0.9595  0.5338  1.9015
44182SOL    HW239597   5.116   0.622   7.359  1.6242  0.1945 -1.0313
44183SOL     OW39598  10.362   0.469  11.217  0.2626 -0.0695  0.1607
44183SOL    HW139599  10.330   0.501  11.301 -1.4976 -0.8064 -0.1769
44183SOL    HW239600  10.296   0.496  11.154  0.5866 -1.1478 -0.6905
44184SOL     OW39601   3.812   7.681   9.511 -0.5895  0.2840  0.5419
44184SOL    HW139602   3.738   7.742   9.505 -1.9647 -1.4094 -1.2553
44184SOL    HW239603   3.785   7.618   9.577  0.5433  1.2086  1.9280
44185SOL     OW39604   5.235   1.550   1.083 -0.1138 -0.0320  0.0989
44185SOL    HW139605   5.221   1.493   1.159  1.6754 -0.1648  0.3669
44185SOL    HW239606   5.219   1.493   1.008  1.4249 -0.8639  0.3684
44186SOL     OW39607   3.453   7.082   5.676 -0.3637  0.4107 -0.0485
44186SOL    HW139608   3.359   7.077   5.662 -0.1999  1.2325 -1.7447
44186SOL    HW239609   3.463   7.114   5.765 -1.6891  0.4202  0.1178
44187SOL     OW39610   0.666  10.869  12.011  0.7229  0.5453 -0.1752
44187SOL    HW139611   0.597  10.932  11.991 -2.2028 -1.4305  2.7609
44187SOL    HW239612   0.740  10.923  12.039 -1.2515  2.7686  1.0862
44188SOL     OW39613   4.223   6.661   3.989  0.1604 -0.3089  0.2380
44188SOL    HW139614   4.167   6.584   3.974  1.4424 -1.3215  0.4603
44188SOL    HW239615   4.220   6.673   4.084 -1.9691  1.4623  0.0172
44189SOL     OW39616  12.267  10.246   7.948  0.1050  0.2868 -0.5578
44189SOL    HW139617  12.336  10.180   7.939  0.9183  1.3085 -2.4536
44189SOL    HW239618  12.288  10.292   8.030 -1.3708 -2.6883  1.6698
44190SOL     OW39619   0.284   8.990   4.617  0.1209  0.1070  0.3311
44190SOL    HW139620   0.233   8.928   4.565 -1.8537  0.3858  1.8300
44190SOL    HW239621   0.350   8.935   4.660 -1.1717 -0.9034  1.1097
44191SOL     OW39622   9.058   2.641   4.024 -0.3759  0.1820  0.0727
44191SOL    HW139623   9.138   2.671   4.068  0.2074 -0.4852 -0.5118
44191SOL    HW239624   9.076   2.549   4.002 -0.8819  0.3317 -1.0209
44192SOL     OW39625   7.834   3.612   4.864  0.2898 -0.2639  0.0992
44192SOL    HW139626   7.856   3.524   4.835  1.3754 -0.1495  0.5423
44192SOL    HW239627   7.755   3.601   4.918 -0.7093 -0.6968 -1.4057
44193SOL     OW39628   1.453   5.734  10.839 -0.1479 -0.6343  0.5530
44193SOL    HW139629   1.437   5.707  10.749  1.9438 -0.0770 -0.0240
44193SOL    HW239630   1.438   5.828  10.839  0.8668 -0.4664  0.5284
44194SOL     OW39631   1.962  11.328   3.784  0.1842 -0.2990  0.2861
44194SOL    HW139632   1.868  11.344   3.786  0.2407  0.0412  0.3421
44194SOL    HW239633   1.975  11.256   3.846 -0.1073 -0.7303 -0.1522
44195SOL     OW39634   5.045   0.311   0.200  0.1474 -0.0278 -0.3612
44195SOL    HW139635   5.033   0.225   0.241 -0.2710  0.5789  0.8238
44195SOL    HW239636   5.117   0.297   0.138 -0.1205 -1.3068 -0.4180
44196SOL     OW39637   3.287   0.674   6.051  0.1871  0.2446  0.2796
44196SOL    HW139638   3.236   0.753   6.038  0.3471  0.4253  0.7367
44196SOL    HW239639   3.225   0.611   6.088  0.5753  0.8883  2.1734
44197SOL     OW39640  10.119  10.363   3.067 -0.2176 -0.6293 -0.3538
44197SOL    HW139641  10.169  10.443   3.081 -0.5999 -0.4724  0.1266
44197SOL    HW239642  10.152  10.329   2.984  1.7220 -1.2929  0.6186
44198SOL     OW39643   0.546   7.298  11.147 -0.0251 -0.6087 -0.3225
44198SOL    HW139644   0.625   7.295  11.093 -0.3663 -1.5043 -0.7816
44198SOL    HW239645   0.568   7.359  11.218  1.1167 -0.9412 -0.3723
44199SOL     OW39646   1.790   6.776   6.882 -0.6851 -0.1907 -0.0952
44199SOL    HW139647   1.766   6.808   6.969 -0.7704  0.4450 -0.3506
44199SOL    HW239648   1.803   6.855   6.829 -1.7989 -0.5622 -0.9804
44200SOL     OW39649   7.524  10.682   1.895 -0.2077 -0.1065  0.4201
44200SOL    HW139650   7.431  10.659   1.885 -0.2676  0.5222 -0.6236
44200SOL    HW239651   7.525  10.743   1.968 -0.7499  0.5380 -0.0912
44201SOL     OW39652   6.432   9.214   5.279 -0.0446  0.2106  0.5694
44201SOL    HW139653   6.406   9.122   5.285 -0.1809  0.2463  0.5300
44201SOL    HW239654   6.382   9.249   5.206  0.5263  0.1419  0.1382
44202SOL     OW39655   3.272   7.145   3.565  0.4725 -0.1363  0.1058
44202SOL    HW139656   3.181   7.172   3.549  0.3354 -1.0559 -0.7761
44202SOL    HW239657   3.283   7.067   3.511  1.1530 -1.2548  1.7714
44203SOL     OW39658   4.333   9.836  10.562  0.2482  0.0644 -0.6010
44203SOL    HW139659   4.398   9.766  10.563  0.1103 -0.0547 -0.0560
44203SOL    HW239660   4.287   9.825  10.478  0.1580 -0.5620 -0.4753
44204SOL     OW39661   9.267   9.180   4.137  0.0457  0.6292 -0.3125
44204SOL    HW139662   9.223   9.195   4.221 -0.2496  1.1485 -0.5518
44204SOL    HW239663   9.203   9.134   4.084  1.0014 -1.7996  0.4677
44205SOL     OW39664  12.253  10.533   2.247  0.2769 -0.6325  0.2767
44205SOL    HW139665  12.182  10.592   2.224 -0.2256 -1.6105 -0.7953
44205SOL    HW239666  12.330  10.588   2.251 -0.3124  0.2275  0.1280
44206SOL     OW39667  10.440  10.005  11.930 -0.0379 -0.0573 -0.3743
44206SOL    HW139668  10.533   9.996  11.950  0.4079  0.7454 -1.9376
44206SOL    HW239669  10.407  10.069  11.993  0.5105 -0.1878  0.0482
44207SOL     OW39670  12.060  12.443   0.952  0.3141 -0.3651  0.4298
44207SOL    HW139671  12.135  12.434   0.893 -1.7165 -0.7628 -2.2614
44207SOL    HW239672  12.028  12.532   0.938 -0.2618 -0.4946  0.8719
44208SOL     OW39673  12.358   7.172   6.879 -0.4310  0.3811  0.2939
44208SOL    HW139674  12.394   7.107   6.939  0.4737 -0.0729 -0.6984
44208SOL    HW239675  12.327   7.243   6.935  2.3822  0.9932  1.2528
44209SOL     OW39676   0.669  11.212  10.719 -0.0282 -0.0270  0.0006
44209SOL    HW139677   0.744  11.205  10.660  0.1860 -2.4986  0.4491
44209SOL    HW239678   0.702  11.259  10.795  0.3920  0.9577 -0.7760
44210SOL     OW39679  12.132   6.799   4.163  0.4550 -0.1451  0.6856
44210SOL    HW139680  12.164   6.830   4.079  2.2553  0.2288  1.4604
44210SOL    HW239681  12.057   6.856   4.183 -0.5013 -0.7587 -0.9864
44211SOL     OW39682  10.240   4.914  10.313  0.2422 -0.3220 -0.4710
44211SOL    HW139683  10.330   4.886  10.292  0.1015 -0.3988 -0.9877
44211SOL    HW239684  10.185   4.863  10.254 -0.0916  0.2876 -0.6948
44212SOL     OW39685   8.034   2.471  11.812 -0.0911 -0.9245 -0.1629
44212SOL    HW139686   7.951   2.428  11.834 -1.1188  0.5212 -1.0647
44212SOL    HW239687   8.034   2.477  11.716  0.7049 -0.2441 -0.1368
44213SOL     OW39688  11.930   2.985  12.278 -0.6809  0.0145 -0.3360
44213SOL    HW139689  12.025   2.993  12.277 -0.6994  0.1980 -0.7586
44213SOL    HW239690  11.904   2.989  12.186 -1.2515  1.8792 -0.1481
44214SOL     OW39691   6.881   2.973   3.126 -0.3231 -0.4459  0.2069
44214SOL    HW139692   6.912   3.052   3.081  1.0740 -0.5670  0.9121
44214SOL    HW239693   6.789   2.966   3.099 -0.0725  0.5631 -1.0703
44215SOL     OW39694  10.730  10.371  10.043  0.1025  0.1145 -0.1254
44215SOL    HW139695  10.786  10.302  10.007 -1.5492 -0.8519 -1.0393
44215SOL    HW239696  10.645  10.355  10.001 -0.6846  1.8782  0.7241
44216SOL     OW39697   7.894  10.187   1.967 -0.1900 -0.5205  0.6398
44216SOL    HW139698   7.897  10.280   1.990  1.0793 -0.3882  0.0525
44216SOL    HW239699   7.956  10.178   1.895 -0.1619 -1.8589  0.7968
44217SOL     OW39700  10.673   9.327   2.941 -0.4792 -0.2437  0.5457
44217SOL    HW139701  10.667   9.250   2.998 -2.7071 -0.1130  0.5580
44217SOL    HW239702  10.652   9.401   2.997 -0.3220  0.1648  0.0761
44218SOL     OW39703   4.187   5.924   3.964  0.3872 -0.1887  0.1914
44218SOL    HW139704   4.236   5.844   3.948  2.0751  0.3508  2.1172
44218SOL    HW239705   4.200   5.941   4.058 -2.1716  0.8992  0.4301
44219SOL     OW39706   0.969   1.524   5.582  0.5037  0.5346  0.2688
44219SOL    HW139707   0.876   1.535   5.560  0.7516  1.0866 -0.5347
44219SOL    HW239708   1.002   1.614   5.591  0.8253  0.3409  1.1987
44220SOL     OW39709   9.005  10.171   0.369  0.4020 -0.3717  0.4110
44220SOL    HW139710   9.087  10.211   0.398  0.7792 -0.4819 -0.4565
44220SOL    HW239711   9.032  10.088   0.328  0.1738  0.7012 -2.1028
44221SOL     OW39712   2.027   5.746   8.615  0.4781  0.3014  0.9085
44221SOL    HW139713   2.036   5.740   8.520 -0.4570  2.0690  0.6605
44221SOL    HW239714   1.945   5.701   8.634  1.2118 -1.0289  1.0528
44222SOL     OW39715   2.299   9.227   4.866 -0.4372  0.4962  0.4094
44222SOL    HW139716   2.330   9.166   4.933  1.5103  3.1712  2.1124
44222SOL    HW239717   2.292   9.173   4.787  0.8556 -1.9929  1.8444
44223SOL     OW39718   8.681   3.757   1.430  0.1223 -0.3113 -0.0150
44223SOL    HW139719   8.770   3.774   1.463  0.1029  0.8670 -0.5370
44223SOL    HW239720   8.690   3.675   1.382  0.7159 -0.6983  0.7169
44224SOL     OW39721   1.904   2.361   4.969 -0.0112 -0.7166  0.6225
44224SOL    HW139722   1.976   2.315   5.011  1.3377  0.9693  0.2830
44224SOL    HW239723   1.943   2.442   4.936 -1.6658 -0.5745 -1.2050
44225SOL     OW39724   8.029   7.908   0.265 -0.5134 -0.1926  0.0007
44225SOL    HW139725   8.086   7.927   0.339  0.5768 -0.1330 -0.8187
44225SOL    HW239726   8.053   7.820   0.238 -0.4287  0.0266 -0.6760
44226SOL     OW39727   2.982  10.651   0.262 -0.0916 -0.2244  0.3350
44226SOL    HW139728   3.027  10.567   0.265  2.3126  0.9484 -0.2811
44226SOL    HW239729   2.998  10.690   0.348 -1.5573 -0.4973  0.7752
44227SOL     OW39730   3.086  10.239   0.515 -0.5823 -0.0846  0.6415
44227SOL    HW139731   2.992  10.239   0.496 -0.4386 -0.7081 -0.1063
44227SOL    HW239732   3.091  10.252   0.610 -1.4471 -0.7456  0.7883
44228SOL     OW39733   3.685   5.922   2.672 -0.5346 -0.2456  0.3554
44228SOL    HW139734   3.739   5.970   2.609 -0.1982 -0.8600  0.1603
44228SOL    HW239735   3.604   5.972   2.677 -0.9014 -0.6226 -1.2020
44229SOL     OW39736   6.782   5.735   1.788  0.4696  0.7262  0.0522
44229SOL    HW139737   6.702   5.734   1.839 -0.2794 -1.5856 -1.0143
44229SOL    HW239738   6.847   5.691   1.843 -0.0022 -0.6310 -0.4322
44230SOL     OW39739  10.327   9.543  11.571 -0.0518  0.0437 -0.1773
44230SOL    HW139740  10.232   9.533  11.576  0.0214 -0.1011  1.0121
44230SOL    HW239741  10.360   9.454  11.575  0.1770  0.1561  0.5932
44231SOL     OW39742   3.297   7.454   4.537 -0.8103 -0.4253  0.3862
44231SOL    HW139743   3.374   7.403   4.560  0.0815  0.7679  0.1140
44231SOL    HW239744   3.294   7.523   4.603 -0.8083  0.3866 -0.4451
44232SOL     OW39745   9.827   4.676   5.589  0.3520  0.2444  0.2051
44232SOL    HW139746   9.743   4.687   5.633 -1.7622 -0.8969 -3.2225
44232SOL    HW239747   9.842   4.582   5.589  1.5510  0.4203  0.5540
44233SOL     OW39748   6.245   1.289  12.115  0.0194  0.4317  0.3776
44233SOL    HW139749   6.231   1.317  12.205 -1.4052  1.4792 -0.1247
44233SOL    HW239750   6.304   1.214  12.121 -0.5464  0.0982  2.2111
44234SOL     OW39751   8.609  10.813   0.132 -0.4914  0.1945 -0.2852
44234SOL    HW139752   8.584  10.768   0.051 -0.5541  1.2232 -0.8659
44234SOL    HW239753   8.634  10.901   0.103  2.2226 -0.2382  0.4626
44235SOL     OW39754   2.853   0.505  10.812 -0.3960 -0.4413 -0.2962
44235SOL    HW139755   2.843   0.536  10.902  1.0075 -0.7311 -0.0246
44235SOL    HW239756   2.833   0.582  10.758  0.9122  0.3617  0.3191
44236SOL     OW39757   5.146   8.481  12.399  0.1877  0.2939  0.1927
44236SOL    HW139758   5.077   8.484  12.465 -0.2226  0.4515 -0.2392
44236SOL    HW239759   5.100   8.469  12.317  0.5620  1.9528 -0.2966
44237SOL     OW39760  10.828  11.659   0.408  0.8024 -0.5001  0.3849
44237SOL    HW139761  10.840  11.591   0.342  0.9605 -0.2319  0.1307
44237SOL    HW239762  10.781  11.616   0.479 -0.9574 -0.3694 -0.6283
44238SOL     OW39763  11.973  10.659   9.295 -0.0184 -0.5227 -0.5816
44238SOL    HW139764  12.056  10.617   9.272  0.0098 -0.4327 -0.6453
44238SOL    HW239765  11.906  10.596   9.269  0.0770 -1.1694  0.6832
44239SOL     OW39766   6.446   1.289   3.986 -0.1541  0.3218 -0.2182
44239SOL    HW139767   6.427   1.319   3.897 -0.8555 -0.5467 -0.3713
44239SOL    HW239768   6.445   1.369   4.038  0.5903  0.8858 -1.0335
44240SOL     OW39769  10.898  12.213   1.404 -0.1530  0.6241  1.1690
44240SOL    HW139770  10.839  12.282   1.375  1.8365  2.2999  0.8724
44240SOL    HW239771  10.968  12.212   1.339 -0.6093 -2.4424  0.5777
44241SOL     OW39772   2.835  12.447   1.715  0.2620 -0.0129  0.2738
44241SOL    HW139773   2.875  12.530   1.743  1.9242 -0.8400  0.4745
44241SOL    HW239774   2.852  12.443   1.621  0.0466 -0.0402  0.2377
44242SOL     OW39775   1.097   3.223   7.379 -0.3967  1.0158  0.1184
44242SOL    HW139776   1.128   3.134   7.397 -1.1860  0.6499 -0.3073
44242SOL    HW239777   1.050   3.248   7.458 -0.3330  0.9850  0.1670
44243SOL     OW39778   7.998   5.950  11.587 -0.3586 -0.4707 -0.1540
44243SOL    HW139779   7.972   5.943  11.679 -1.6712  0.7028 -0.4005
44243SOL    HW239780   8.075   6.008  11.589 -1.5571  1.2014  0.0844
44244SOL     OW39781   8.057  11.852   7.032  0.1057 -0.0309  0.3405
44244SOL    HW139782   8.038  11.876   6.941  1.6203  2.0323  0.5016
44244SOL    HW239783   8.142  11.810   7.028  1.0017  1.6124  0.9293
44245SOL     OW39784   9.934   3.718   8.098 -0.2447 -0.5375 -0.8883
44245SOL    HW139785   9.984   3.762   8.030  1.5816 -0.6353  0.3124
44245SOL    HW239786   9.863   3.778   8.119  0.2274  0.2907 -1.6259
44246SOL     OW39787   8.288  12.095  12.346 -0.4765 -0.1574  0.1737
44246SOL    HW139788   8.301  12.068  12.438  1.0113 -1.5605 -0.4000
44246SOL    HW239789   8.208  12.050  12.320 -0.3719 -0.5577  0.5188
44247SOL     OW39790   9.352   5.376   7.451 -0.0716 -0.3303  0.3014
44247SOL    HW139791   9.426   5.317   7.463  0.3715  0.1609  0.0033
44247SOL    HW239792   9.383   5.461   7.480  0.2509  0.3876 -1.9302
44248SOL     OW39793   5.225   8.938   0.239  0.5712 -0.7116 -0.0360
44248SOL    HW139794   5.211   9.011   0.300  0.1725 -3.4731  3.5054
44248SOL    HW239795   5.220   8.978   0.152  1.3044  3.5648  1.6583
44249SOL     OW39796   2.630   2.928   2.922 -0.2217  0.3599 -0.5481
44249SOL    HW139797   2.538   2.950   2.938 -0.1702  0.6252 -0.6055
44249SOL    HW239798   2.650   2.968   2.838  0.2253  1.1830 -0.0703
44250SOL     OW39799  11.331   2.734   5.709 -0.8631  0.0875  0.3867
44250SOL    HW139800  11.294   2.745   5.796 -0.0703 -0.0986  0.7448
44250SOL    HW239801  11.308   2.816   5.663 -1.6004  0.0310  0.6395
44251SOL     OW39802   1.323   8.307   1.846 -0.2429  0.2528  0.2577
44251SOL    HW139803   1.327   8.328   1.940 -0.1025 -2.2118  0.8697
44251SOL    HW239804   1.249   8.246   1.839  0.6913 -0.7912 -0.9385
44252SOL     OW39805   2.845   0.684   9.999 -0.3578  0.0981 -0.0788
44252SOL    HW139806   2.889   0.613   9.952 -0.7049  0.2282 -0.6093
44252SOL    HW239807   2.791   0.727   9.933  2.1913  2.8568 -0.5849
44253SOL     OW39808   5.463   2.656   1.591 -0.0295  0.1345  0.0462
44253SOL    HW139809   5.520   2.601   1.537 -0.7959 -0.7333  0.0869
44253SOL    HW239810   5.399   2.595   1.628 -0.4949  0.9607  0.6438
44254SOL     OW39811   7.138   9.602   5.692 -0.4844  0.4940  0.3742
44254SOL    HW139812   7.193   9.614   5.614  0.5237  1.3251  1.1781
44254SOL    HW239813   7.071   9.540   5.665 -1.5926  2.5123 -1.8864
44255SOL     OW39814   2.349   7.137   6.767 -0.1895 -0.4915 -0.0255
44255SOL    HW139815   2.264   7.150   6.724 -0.4055  0.6979  0.7194
44255SOL    HW239816   2.392   7.070   6.714 -1.0385 -0.1320 -1.2266
44256SOL     OW39817   3.278   0.884  12.258  0.0924  0.1412 -0.0213
44256SOL    HW139818   3.301   0.901  12.350  0.1781  0.4144 -0.0927
44256SOL    HW239819   3.301   0.965  12.213  2.8962 -0.9737 -0.8191
44257SOL     OW39820   5.046   7.966  11.890 -0.2101 -0.6242  0.3610
44257SOL    HW139821   5.102   8.032  11.850  1.7213 -2.4535 -0.1498
44257SOL    HW239822   5.021   8.003  11.975  1.7474  0.3264  0.5816
44258SOL     OW39823  12.225   1.069   8.419 -0.4000 -0.4854  0.2153
44258SOL    HW139824  12.131   1.080   8.404 -0.7963 -1.6689  1.5768
44258SOL    HW239825  12.243   1.119   8.498 -0.1666 -1.3033  0.6923
44259SOL     OW39826   4.178   4.950   3.656  0.2929 -0.0803  0.0631
44259SOL    HW139827   4.248   4.907   3.705  1.1201  1.2141  0.0767
44259SOL    HW239828   4.224   5.012   3.599 -0.8383  0.8715  0.1436
44260SOL     OW39829   7.437   3.799   1.753  0.4221 -0.3600  0.3007
44260SOL    HW139830   7.510   3.846   1.792  0.7666 -0.9122  0.3436
44260SOL    HW239831   7.406   3.741   1.824  0.9232 -1.2251 -0.1661
44261SOL     OW39832   0.676   6.942   9.974  0.3387 -0.0585 -0.1782
44261SOL    HW139833   0.584   6.918   9.972  0.1650  0.5936 -2.1934
44261SOL    HW239834   0.687   6.988  10.057 -1.5863  1.3886 -0.6589
44262SOL     OW39835   3.001   4.671  11.574  0.1324 -0.2557 -0.3595
44262SOL    HW139836   2.983   4.617  11.497  1.1505 -0.1601 -0.6819
44262SOL    HW239837   3.003   4.609  11.647  1.4264 -0.7059 -0.7429
44263SOL     OW39838  10.761  12.166   9.921  0.4858  0.1257  0.1471
44263SOL    HW139839  10.806  12.130   9.845 -1.0242 -0.6682 -0.3997
44263SOL    HW239840  10.676  12.122   9.923  1.1262 -1.2656  3.3332
44264SOL     OW39841   3.178  12.165   1.524  0.1031  0.2300 -0.0291
44264SOL    HW139842   3.231  12.184   1.601  0.4453 -0.3440 -0.1204
44264SOL    HW239843   3.090  12.153   1.558  0.5106 -1.6032  0.5025
44265SOL     OW39844   9.337   7.533   2.081  0.6566 -0.0214  0.4546
44265SOL    HW139845   9.408   7.579   2.036 -1.9121  4.2975  0.2857
44265SOL    HW239846   9.354   7.546   2.174  0.6658  0.0244  0.4463
44266SOL     OW39847   0.218   3.745   0.204 -0.2114 -0.1170 -1.0387
44266SOL    HW139848   0.235   3.760   0.111 -0.8753  2.9815 -0.7557
44266SOL    HW239849   0.130   3.706   0.206 -0.4887  0.4581 -1.6883
44267SOL     OW39850   9.447   7.218   1.908 -0.1577  0.0374 -0.4959
44267SOL    HW139851   9.392   7.295   1.893 -0.1988  0.1520  0.2050
44267SOL    HW239852   9.384   7.147   1.922 -0.2045  0.5215  2.1968
44268SOL     OW39853   1.492   3.671  11.637 -0.0658  0.3860 -0.2532
44268SOL    HW139854   1.514   3.674  11.730 -1.7691 -0.2820  0.2228
44268SOL    HW239855   1.528   3.752  11.601 -1.7985  2.1271  1.6136
44269SOL     OW39856   4.683  11.794   2.185 -0.2461  0.0857 -0.1580
44269SOL    HW139857   4.642  11.715   2.221  1.8601 -1.5103 -1.0768
44269SOL    HW239858   4.771  11.767   2.160  0.2275  2.4996 -1.4477
44270SOL     OW39859   4.674  11.163   7.746  0.1078  0.3059  0.4485
44270SOL    HW139860   4.671  11.164   7.842 -0.2393  0.2297  0.4402
44270SOL    HW239861   4.594  11.117   7.721 -0.5842  1.6804  0.0776
44271SOL     OW39862   5.601   0.372   8.561  0.3313 -0.0581  0.0898
44271SOL    HW139863   5.543   0.301   8.587  0.2069  0.8019  2.3169
44271SOL    HW239864   5.668   0.376   8.630  1.1509  1.0857 -0.7184
44272SOL     OW39865   8.400   4.641   0.384 -0.1101 -0.5287  0.1883
44272SOL    HW139866   8.445   4.584   0.321  1.6572  2.8915 -1.9409
44272SOL    HW239867   8.471   4.684   0.432 -1.2742  1.0636  0.5498
44273SOL     OW39868   8.401   0.696   3.396  0.4826 -0.0781 -0.4930
44273SOL    HW139869   8.382   0.711   3.303  0.5454 -1.9689 -0.8679
44273SOL    HW239870   8.398   0.600   3.405 -0.0504  0.0829  1.5705
44274SOL     OW39871   8.198   8.862   3.153  0.2167 -0.4926  0.2864
44274SOL    HW139872   8.228   8.951   3.168 -0.1166 -0.1835 -0.8288
44274SOL    HW239873   8.120   8.854   3.208  1.3398 -0.7644  1.9107
44275SOL     OW39874   6.098  10.483   6.906 -0.4817 -0.3709  0.0073
44275SOL    HW139875   6.045  10.479   6.985  0.4324 -2.1943  0.5889
44275SOL    HW239876   6.175  10.534   6.932 -1.1314  0.8510 -0.3631
44276SOL     OW39877   4.641   7.981   2.923  0.0107  0.1431 -0.3571
44276SOL    HW139878   4.625   7.887   2.927  0.3943 -0.0447 -2.2752
44276SOL    HW239879   4.580   8.013   2.857  0.2927  1.1575 -0.1518
44277SOL     OW39880   7.152   9.913   7.073 -0.1234 -0.0826  0.6910
44277SOL    HW139881   7.193   9.857   7.008  1.1221  1.0086  0.4967
44277SOL    HW239882   7.086   9.962   7.023 -2.5133 -2.5455  1.1906
44278SOL     OW39883   1.217   4.039   6.372  0.3453  0.0981  0.7201
44278SOL    HW139884   1.308   4.058   6.391  0.1830 -0.2290  1.8628
44278SOL    HW239885   1.214   4.027   6.277  1.7782 -1.4766  0.8454
44279SOL     OW39886   4.350  10.530  11.510  0.9039  0.1494 -0.0549
44279SOL    HW139887   4.369  10.489  11.594 -1.5407  0.8388  0.9461
44279SOL    HW239888   4.260  10.502  11.490  0.5853  1.8608 -1.2400
44280SOL     OW39889   4.285   9.009  10.457 -0.4688  0.8201  0.6230
44280SOL    HW139890   4.260   8.921  10.427 -1.0585  0.8963  0.8848
44280SOL    HW239891   4.369   9.026  10.413 -0.8796  0.5766 -0.2837
44281SOL     OW39892   5.170   8.431   1.205 -0.0888  0.1207  0.7816
44281SOL    HW139893   5.248   8.462   1.159 -0.2321  0.3367  0.6803
44281SOL    HW239894   5.134   8.362   1.149 -0.0023  0.0615  0.7995
44282SOL     OW39895  11.920   8.536   7.426 -0.2314  0.6902  0.2627
44282SOL    HW139896  11.829   8.509   7.431 -0.3789  0.9288 -0.7357
44282SOL    HW239897  11.971   8.457   7.442 -0.6284  0.3754 -0.0257
44283SOL     OW39898  11.769   6.988   9.396  0.2469 -0.0505  0.4138
44283SOL    HW139899  11.773   6.992   9.492 -3.4664  1.0848  0.6637
44283SOL    HW239900  11.768   7.079   9.368  0.5697 -0.3755 -0.6938
44284SOL     OW39901   9.920  10.328  12.494  0.3820  0.5522  0.3093
44284SOL    HW139902   9.982  10.312  12.422 -0.5977 -0.8739 -0.2759
44284SOL    HW239903   9.937  10.257  12.556 -0.0278  0.7084  0.5994
44285SOL     OW39904   5.325  11.403   9.155  0.2971 -0.4320  0.3817
44285SOL    HW139905   5.380  11.344   9.105  1.2943 -0.3597  1.3471
44285SOL    HW239906   5.362  11.490   9.140 -1.4112  0.0652 -1.3668
44286SOL     OW39907  10.752   5.187  10.754  0.0018 -0.2300 -0.2953
44286SOL    HW139908  10.822   5.151  10.809 -1.0661 -0.8599  0.7086
44286SOL    HW239909  10.739   5.121  10.686  0.3396 -0.1427 -0.4448
44287SOL     OW39910   8.900   5.292  10.284 -0.3465  0.0291 -0.1056
44287SOL    HW139911   8.969   5.261  10.342 -0.3066  0.2229 -0.0517
44287SOL    HW239912   8.872   5.375  10.321 -1.2613 -0.4887  0.4206
44288SOL     OW39913   7.055   4.234   4.043  0.2613 -0.2121  0.1087
44288SOL    HW139914   7.064   4.292   3.968 -0.2507  1.8848  1.5935
44288SOL    HW239915   7.115   4.161   4.025  0.1278  0.2154 -2.2937
44289SOL     OW39916  12.105  11.855   7.887  0.4303  0.7339  0.0119
44289SOL    HW139917  12.069  11.909   7.957  0.7707  2.6162 -1.1984
44289SOL    HW239918  12.038  11.856   7.818  0.1878 -0.9170  0.1639
44290SOL     OW39919   9.727   3.461  11.930 -0.3974 -0.3812 -0.3929
44290SOL    HW139920   9.820   3.441  11.939 -0.3110 -0.1797 -0.8069
44290SOL    HW239921   9.718   3.548  11.970 -0.1352  0.2251 -1.5843
44291SOL     OW39922   9.830   9.733   2.401 -0.1232  0.3350  0.2928
44291SOL    HW139923   9.749   9.716   2.449  1.0252  1.2448  2.7443
44291SOL    HW239924   9.815   9.816   2.357 -0.8495  0.0337 -0.0245
44292SOL     OW39925   6.240   9.072   2.152  0.0076  0.1596 -0.0739
44292SOL    HW139926   6.203   9.023   2.225  0.4254 -0.2842 -0.1559
44292SOL    HW239927   6.165   9.093   2.097 -0.2064 -0.1658  0.0899
44293SOL     OW39928   9.592   6.472   9.036 -0.3368 -0.4702  0.1538
44293SOL    HW139929   9.686   6.490   9.037 -0.1269 -1.4525 -0.3408
44293SOL    HW239930   9.584   6.384   9.073 -1.1347 -0.1174  0.8471
44294SOL     OW39931   9.084   0.508   9.320  0.3158 -0.2950 -0.0947
44294SOL    HW139932   9.025   0.439   9.291  2.0133 -1.9769  0.2144
44294SOL    HW239933   9.096   0.491   9.414 -0.5946  1.5275  0.3906
44295SOL     OW39934   3.719  12.350   7.388  0.5053 -0.2222  0.3530
44295SOL    HW139935   3.761  12.433   7.408 -2.7257  1.4222  1.0360
44295SOL    HW239936   3.679  12.363   7.302 -0.4035 -0.8728  0.6586
44296SOL     OW39937   2.293   2.345   7.502 -0.0074  0.4110 -0.5850
44296SOL    HW139938   2.215   2.302   7.468 -0.6743  0.3679  0.9277
44296SOL    HW239939   2.269   2.438   7.508 -0.3216  0.2464  0.8694
44297SOL     OW39940   4.159   1.742  12.446 -0.3836  0.4155 -0.1889
44297SOL    HW139941   4.235   1.759  12.502 -0.6139  2.6909 -0.4464
44297SOL    HW239942   4.188   1.768  12.358 -0.1776 -2.6431 -1.1244
44298SOL     OW39943  10.812   7.166   0.726  0.3286 -0.0172 -0.0763
44298SOL    HW139944  10.722   7.132   0.728  0.6428 -0.8924  1.9936
44298SOL    HW239945  10.806   7.250   0.772  0.5117  0.0539 -0.1833
44299SOL     OW39946   1.945   2.860   1.462 -0.1382  0.2181 -0.3604
44299SOL    HW139947   1.938   2.816   1.547 -2.2324  0.1442 -0.5174
44299SOL    HW239948   2.009   2.809   1.414 -1.2827 -1.7244  0.0679
44300SOL     OW39949   4.801  12.312   2.309  0.6068 -0.0270  0.0986
44300SOL    HW139950   4.812  12.362   2.390 -2.5033  0.3508  0.4147
44300SOL    HW239951   4.783  12.222   2.339  0.7268 -0.1588 -0.2196
44301SOL     OW39952   9.720   6.261   4.193  0.8247 -0.2411  0.4850
44301SOL    HW139953   9.807   6.298   4.176  0.5876  0.5236  0.8701
44301SOL    HW239954   9.699   6.212   4.114  1.1341  0.5080 -0.0794
44302SOL     OW39955   3.329   7.661   5.944 -0.4678 -0.6699  0.0356
44302SOL    HW139956   3.271   7.738   5.948  0.5078  0.1753 -1.2440
44302SOL    HW239957   3.280   7.598   5.891 -0.3592 -0.0638 -0.8117
44303SOL     OW39958   4.359   1.181   8.163  0.2069 -0.1409  0.0506
44303SOL    HW139959   4.350   1.120   8.090  1.3802 -0.1950 -0.0760
44303SOL    HW239960   4.328   1.133   8.239 -0.2755 -0.3660 -0.2836
44304SOL     OW39961   8.141   3.599   5.186 -0.0724 -0.5191  0.0870
44304SOL    HW139962   8.160   3.648   5.106  1.2818 -0.5282  0.3863
44304SOL    HW239963   8.222   3.603   5.237 -0.9571 -0.3931  1.5363
44305SOL     OW39964   6.183   8.683   7.130 -0.0056 -0.4775 -0.1110
44305SOL    HW139965   6.237   8.724   7.062 -1.0054  0.4539 -0.3709
44305SOL    HW239966   6.214   8.721   7.212 -0.6543  0.5080 -0.3142
44306SOL     OW39967   9.793   4.731   9.426 -0.5508  0.3425 -0.3542
44306SOL    HW139968   9.871   4.780   9.400 -0.7668  0.0501 -1.6423
44306SOL    HW239969   9.821   4.679   9.502 -0.3197  2.4211  1.0671
44307SOL     OW39970  10.270   3.153   5.622 -0.1055 -0.1607 -0.1534
44307SOL    HW139971  10.185   3.111   5.604  0.2409 -0.7513 -0.4572
44307SOL    HW239972  10.314   3.092   5.681  0.8337 -0.7764 -1.4404
44308SOL     OW39973   0.063   3.026   0.033  0.1348 -0.6226  0.4304
44308SOL    HW139974   0.136   3.050   0.091  0.3271 -0.7682  0.2498
44308SOL    HW239975  -0.015   3.036   0.088  0.2028  0.4178  0.3655
44309SOL     OW39976   4.522   1.732   4.717  0.0432  0.4110  0.2568
44309SOL    HW139977   4.541   1.696   4.631 -0.1719  3.0173 -0.9867
44309SOL    HW239978   4.431   1.707   4.734 -0.1479  0.4715 -0.6269
44310SOL     OW39979   1.627  10.473   3.804  0.3751 -0.1799 -0.2873
44310SOL    HW139980   1.695  10.514   3.751  0.6443 -1.0105 -0.5977
44310SOL    HW239981   1.600  10.396   3.754  1.3479 -1.5677  1.2163
44311SOL     OW39982   8.728   4.815   3.509 -0.3180  0.1264 -0.0984
44311SOL    HW139983   8.760   4.878   3.574 -0.0550 -1.3681  1.2841
44311SOL    HW239984   8.635   4.805   3.529 -0.0657 -0.9639  0.6487
44312SOL     OW39985   3.058   1.759  12.221 -0.3442  0.2026  0.5549
44312SOL    HW139986   3.100   1.685  12.265  0.9432  0.6820  0.2056
44312SOL    HW239987   2.974   1.725  12.190  1.2376 -1.9537 -1.8377
44313SOL     OW39988  11.983   8.375   9.533 -0.1984  0.2758  0.5002
44313SOL    HW139989  12.040   8.312   9.577  0.9229  0.9607  0.0643
44313SOL    HW239990  11.970   8.445   9.597  2.3810  1.8410 -0.5579
44314SOL     OW39991   1.751   6.297   8.421 -0.0374  0.1356 -0.0936
44314SOL    HW139992   1.658   6.277   8.407 -0.3707  0.3396  1.5845
44314SOL    HW239993   1.757   6.392   8.406 -0.3922  0.3583  1.0843
44315SOL     OW39994  11.159   7.617   3.358  0.5927 -0.2324 -0.0196
44315SOL    HW139995  11.140   7.697   3.407  2.0485  0.1035  0.0382
44315SOL    HW239996  11.073   7.580   3.338 -0.0831  0.9513  0.6009
44316SOL     OW39997   0.190   1.993   8.221 -0.1204  0.6719 -0.1726
44316SOL    HW139998   0.162   1.996   8.313  1.1608 -0.2744  0.2886
44316SOL    HW239999   0.236   2.076   8.207  1.6946 -0.1145  0.7796
44317SOL     OW40000   0.208   3.184   6.774  0.4259 -0.1415  0.1891
44317SOL    HW140001   0.279   3.232   6.817  0.9344 -1.6811  1.1523
44317SOL    HW240002   0.226   3.194   6.680  0.6094  1.3582  0.3566
44318SOL     OW40003   5.855  12.311   0.854  0.2833 -0.3003 -0.1089
44318SOL    HW140004   5.765  12.345   0.845  1.3494  3.3125  0.9865
44318SOL    HW240005   5.897  12.334   0.771  0.5569 -0.6146 -0.0558
44319SOL     OW40006  12.123   2.174   4.210  0.3806  0.6498 -0.0261
44319SOL    HW140007  12.099   2.191   4.301 -1.7407  0.5595 -0.5228
44319SOL    HW240008  12.063   2.227   4.159 -0.1127 -1.1321 -1.4101
44320SOL     OW40009   7.858   6.246   2.939 -0.4994 -0.3152  0.0903
44320SOL    HW140010   7.939   6.250   2.989 -0.9707 -0.4658  0.8787
44320SOL    HW240011   7.826   6.157   2.952 -2.2757  0.5413  2.2048
44321SOL     OW40012   5.468   4.287   2.516 -0.0147  0.2378  0.2660
44321SOL    HW140013   5.552   4.314   2.552  0.8405  1.0305 -2.0914
44321SOL    HW240014   5.410   4.361   2.533  0.8088  1.2921 -1.2416
44322SOL     OW40015  12.162   5.411   3.550  0.1699  0.1406  0.1307
44322SOL    HW140016  12.192   5.453   3.630  1.9604 -1.2679  0.2785
44322SOL    HW240017  12.078   5.372   3.572  0.3381  0.3299  1.1362
44323SOL     OW40018   7.210   3.873   4.953 -0.0357  0.0034 -0.4929
44323SOL    HW140019   7.214   3.811   5.026  0.4328  0.7547  0.1416
44323SOL    HW240020   7.252   3.827   4.880  0.1090 -0.5081 -0.0952
44324SOL     OW40021   1.837   9.948   5.349  0.2452 -0.0033 -0.9192
44324SOL    HW140022   1.807   9.864   5.382 -0.1765  1.4511  2.9472
44324SOL    HW240023   1.757   9.998   5.333  0.4853  0.5265 -0.5170
44325SOL     OW40024   7.849   3.626   4.195  0.4107  0.6341 -0.3126
44325SOL    HW140025   7.861   3.721   4.201  1.3877  0.4425  1.9231
44325SOL    HW240026   7.935   3.592   4.172  0.2136  0.2460 -0.4843
44326SOL     OW40027  11.183  11.947   1.697  0.4493 -0.0986  0.3086
44326SOL    HW140028  11.272  11.912   1.698  1.1377  1.4388 -1.3758
44326SOL    HW240029  11.149  11.926   1.609 -0.4880  0.1690  0.5894
44327SOL     OW40030   0.876   0.296   2.732  0.0326  1.0533  0.1330
44327SOL    HW140031   0.846   0.386   2.719  0.5243  1.3871  1.1713
44327SOL    HW240032   0.963   0.306   2.771 -0.1512  0.1331  0.7980
44328SOL     OW40033   9.298   4.027  11.017 -0.2292 -0.6183  0.3765
44328SOL    HW140034   9.329   4.107  11.060 -2.8070  1.2306 -0.9364
44328SOL    HW240035   9.263   3.974  11.089  0.3711 -0.0172  1.1294
44329SOL     OW40036   8.997   4.414   8.867 -0.6686 -0.3447  0.1135
44329SOL    HW140037   8.907   4.428   8.897 -1.1300 -0.7020 -1.0578
44329SOL    HW240038   8.989   4.399   8.773  0.3018 -3.3781  0.4261
44330SOL     OW40039   9.383   0.933   8.711  0.1297 -0.4168 -0.0115
44330SOL    HW140040   9.346   1.016   8.681 -1.7604 -0.9347  0.7413
44330SOL    HW240041   9.424   0.894   8.633 -1.4365 -0.0595 -1.0438
44331SOL     OW40042  11.965   6.893   6.815 -0.3369  0.4191  0.3972
44331SOL    HW140043  11.876   6.919   6.790 -1.5410 -2.1563  1.6610
44331SOL    HW240044  11.965   6.798   6.809  1.8571  0.2437  1.9622
44332SOL     OW40045  12.547   4.021   2.782 -0.0357 -0.5188  0.8054
44332SOL    HW140046  12.599   3.973   2.718  0.1411 -1.3133  1.5159
44332SOL    HW240047  12.572   3.983   2.866  0.6330  1.3263  1.4729
44333SOL     OW40048   3.858  11.878   6.720 -0.6385 -0.5827  0.4789
44333SOL    HW140049   3.771  11.851   6.691  0.3658 -1.4936 -1.9717
44333SOL    HW240050   3.897  11.800   6.758 -0.1521 -0.7777 -0.3947
44334SOL     OW40051   4.359   8.851   1.189  0.3745 -0.0193 -0.3060
44334SOL    HW140052   4.405   8.814   1.113  1.1427  1.5552 -0.6576
44334SOL    HW240053   4.388   8.942   1.192  0.7146 -0.1592  2.1812
44335SOL     OW40054   6.012   8.660  11.834  0.1097 -0.4732  0.1192
44335SOL    HW140055   5.943   8.637  11.896 -0.3226 -1.4423 -0.6847
44335SOL    HW240056   6.013   8.756  11.834 -2.1236 -0.3772 -0.7630
44336SOL     OW40057   3.868   3.591   1.557 -0.4218 -0.0822  0.1449
44336SOL    HW140058   3.788   3.557   1.518  0.3470 -1.6172 -0.1867
44336SOL    HW240059   3.926   3.514   1.564  0.8277  0.8789  0.8450
44337SOL     OW40060   8.641   9.075  10.903  0.0741  0.3475 -0.5615
44337SOL    HW140061   8.727   9.050  10.939  1.1850  1.4151 -2.3212
44337SOL    HW240062   8.582   9.073  10.978  1.8395  0.5156  0.9047
44338SOL     OW40063   0.554   8.291   0.207  0.3399  0.0627  0.3961
44338SOL    HW140064   0.561   8.386   0.218 -0.6080  0.0760  1.0033
44338SOL    HW240065   0.595   8.254   0.285 -1.1631  0.0428  1.2321
44339SOL     OW40066   0.432   6.889   6.803 -0.4922  0.2571 -0.7404
44339SOL    HW140067   0.506   6.917   6.857  0.9539 -2.1904 -1.2553
44339SOL    HW240068   0.358   6.886   6.862  0.5089 -0.0786  0.5390
44340SOL     OW40069   0.981   7.787   8.366  0.5609  0.0532  0.0257
44340SOL    HW140070   0.922   7.861   8.348  1.8051  1.3027  0.8791
44340SOL    HW240071   0.952   7.719   8.306 -0.6808  1.2097 -0.7589
44341SOL     OW40072   5.237   4.552   1.431 -0.1433  0.1960  0.0157
44341SOL    HW140073   5.256   4.642   1.458 -2.9625  0.7998  0.2737
44341SOL    HW240074   5.289   4.498   1.491 -0.0726  1.6312  1.3252
44342SOL     OW40075   7.499  10.056  10.788 -0.3435  0.3975 -0.1364
44342SOL    HW140076   7.549  10.137  10.777  0.5840  0.3841  2.9280
44342SOL    HW240077   7.504  10.012  10.703  2.1803  1.8989 -0.8579
44343SOL     OW40078   4.518   1.313   2.671 -0.3512  0.2671 -0.5313
44343SOL    HW140079   4.453   1.257   2.714 -1.5981  0.2798 -2.2643
44343SOL    HW240080   4.496   1.401   2.700  0.2184  0.0917  0.4820
44344SOL     OW40081   0.363   6.447   5.190  0.4285 -0.0375  0.4773
44344SOL    HW140082   0.326   6.440   5.278 -2.1410  1.5197 -0.3539
44344SOL    HW240083   0.308   6.513   5.147  1.7730 -0.5473 -2.2071
44345SOL     OW40084   7.968   1.703   1.388 -0.2219 -1.0699  0.0831
44345SOL    HW140085   7.986   1.610   1.405  0.1724 -1.1496 -0.7208
44345SOL    HW240086   8.015   1.750   1.457 -0.7824 -1.4841  0.7536
44346SOL     OW40087   8.569   3.277   0.650  0.1266 -0.0384 -0.0662
44346SOL    HW140088   8.640   3.306   0.593 -0.2473  2.4200  0.5976
44346SOL    HW240089   8.611   3.267   0.736 -0.1111  0.3307  0.0923
44347SOL     OW40090   3.170   6.613  12.363  0.0641 -0.3475  0.0753
44347SOL    HW140091   3.119   6.611  12.443  0.7949 -0.2564  0.5551
44347SOL    HW240092   3.187   6.522  12.341  0.4730 -0.3601  0.4296
44348SOL     OW40093  11.795   5.723  12.575  0.1813  0.2094  0.1002
44348SOL    HW140094  11.750   5.641  12.558 -0.4153 -0.3982  3.7123
44348SOL    HW240095  11.880   5.697  12.611  0.3539  1.1746  0.4401
44349SOL     OW40096   2.037   2.506   0.708  0.2617 -0.9880 -0.1427
44349SOL    HW140097   1.953   2.475   0.673  0.4926 -1.9754  0.1410
44349SOL    HW240098   2.065   2.574   0.647 -1.9483  1.2298  1.0833
44350SOL     OW40099   9.516   6.061   0.413  0.5702 -0.0434 -0.2764
44350SOL    HW140100   9.440   6.010   0.387  0.1609  0.8824 -0.9464
44350SOL    HW240101   9.499   6.149   0.379  1.4103  0.4627  0.5588
44351SOL     OW40102   1.172   0.781   4.893  0.1554  0.2513 -0.1108
44351SOL    HW140103   1.081   0.761   4.870  0.6351 -2.0798 -0.2956
44351SOL    HW240104   1.219   0.781   4.810  0.5646 -0.1306  0.1106
44352SOL     OW40105   0.200   9.057   6.896 -0.3306  0.0923 -0.6634
44352SOL    HW140106   0.229   9.135   6.850 -0.0757  1.4656  1.6736
44352SOL    HW240107   0.187   8.992   6.827  2.2392  1.2781 -2.4247
44353SOL     OW40108   5.023  11.314   6.738 -0.2861 -0.1031  0.2163
44353SOL    HW140109   5.082  11.354   6.673  0.0651  1.2554  1.3200
44353SOL    HW240110   4.940  11.303   6.691  0.1797  0.1124 -0.6917
44354SOL     OW40111   0.801  11.346   8.655  0.2750 -0.1014  0.0145
44354SOL    HW140112   0.811  11.438   8.679  0.4364 -0.3916  1.0814
44354SOL    HW240113   0.707  11.335   8.641  0.0004 -0.1853  1.6889
44355SOL     OW40114   2.498  11.659   7.717  0.5547  0.3548  0.4002
44355SOL    HW140115   2.552  11.690   7.789  0.4702  0.8165  0.2716
44355SOL    HW240116   2.528  11.711   7.641  2.2721 -1.7342 -0.4496
44356SOL     OW40117   5.389   2.666  10.149  0.3265 -0.3503 -0.4260
44356SOL    HW140118   5.452   2.606  10.110 -0.7474 -1.1058 -1.0498
44356SOL    HW240119   5.394   2.649  10.243  1.2710 -0.1703 -0.4359
44357SOL     OW40120  12.057   2.461   5.082 -0.0515 -0.4992 -0.5375
44357SOL    HW140121  12.064   2.369   5.108 -0.5933 -0.6125 -0.7799
44357SOL    HW240122  12.123   2.506   5.135 -1.3927 -0.6489  1.3580
44358SOL     OW40123  10.374   8.723   4.564 -0.0280  0.3779 -0.3780
44358SOL    HW140124  10.435   8.702   4.635 -0.2528  0.5662 -0.1255
44358SOL    HW240125  10.366   8.642   4.514  0.0292  0.2062 -0.1114
44359SOL     OW40126   0.959  12.175  11.429  0.3894  0.1792 -0.2295
44359SOL    HW140127   1.052  12.152  11.432  0.5499  0.8338  0.0493
44359SOL    HW240128   0.958  12.271  11.430 -0.2943  0.1750 -0.0363
44360SOL     OW40129   4.125   8.755   4.893  0.3914 -0.1175 -0.4336
44360SOL    HW140130   4.187   8.825   4.873 -0.5539  0.8510 -0.0892
44360SOL    HW240131   4.051   8.770   4.834 -0.7778  0.5284  1.1255
44361SOL     OW40132   2.304   0.558   8.594 -0.3018 -0.3514 -0.1146
44361SOL    HW140133   2.360   0.492   8.551 -2.5672 -1.6117 -1.3381
44361SOL    HW240134   2.311   0.635   8.537  1.6735  0.2506  0.8420
44362SOL     OW40135   6.892  11.048   4.529 -0.0065  0.2744 -0.2442
44362SOL    HW140136   6.987  11.040   4.538 -0.0691  0.3390  0.6246
44362SOL    HW240137   6.872  11.013   4.442  0.6867 -0.8095  0.0131
44363SOL     OW40138  11.486   4.495   6.140 -0.4296 -0.4429  0.0133
44363SOL    HW140139  11.392   4.510   6.136 -0.4370 -0.7289 -1.4500
44363SOL    HW240140  11.495   4.399   6.140 -0.1426 -0.4243  0.6694
44364SOL     OW40141   2.592   2.754  11.509  0.4292 -0.3476 -0.0828
44364SOL    HW140142   2.535   2.729  11.581 -0.6581 -1.6408 -1.3163
44364SOL    HW240143   2.532   2.788  11.442  0.9737 -2.1577 -1.5849
44365SOL     OW40144   6.661  11.374   8.911  0.4397  0.1450 -0.1203
44365SOL    HW140145   6.633  11.394   9.000  0.4893  0.0362 -0.0801
44365SOL    HW240146   6.725  11.304   8.921 -0.0838 -0.3747 -0.2885
44366SOL     OW40147  12.196   8.088  11.621 -0.2499  0.3051 -0.1987
44366SOL    HW140148  12.238   8.020  11.568 -0.2094  0.4878 -0.4018
44366SOL    HW240149  12.106   8.090  11.589 -0.2509  0.3492 -0.1918
44367SOL     OW40150  11.070  12.333   2.290  0.1111  0.2704  0.0845
44367SOL    HW140151  11.145  12.357   2.343 -0.1297 -1.7374  1.4170
44367SOL    HW240152  11.081  12.239   2.273 -3.6842 -1.0130  3.2299
44368SOL     OW40153   4.369   5.500   8.306 -0.5886  0.6998  0.0252
44368SOL    HW140154   4.339   5.495   8.397 -1.2778  0.1838 -0.2164
44368SOL    HW240155   4.330   5.582   8.273 -2.4026 -0.3061 -0.4893
44369SOL     OW40156   7.069   0.711   3.571 -0.2219 -0.8569  0.2038
44369SOL    HW140157   7.033   0.635   3.617 -0.7946 -0.6597  0.0790
44369SOL    HW240158   6.994   0.767   3.554  0.3584  0.3165  1.3617
44370SOL     OW40159   8.767   9.545   4.018 -1.0862  0.1785 -0.1710
44370SOL    HW140160   8.674   9.566   4.007 -1.5902 -1.0464  1.4658
44370SOL    HW240161   8.808   9.629   4.038 -2.1993  0.4534  1.1137
44371SOL     OW40162  11.374   5.828   5.328  1.0227  0.0711 -0.3274
44371SOL    HW140163  11.409   5.741   5.307  0.9045  0.6782 -3.5862
44371SOL    HW240164  11.432   5.889   5.283 -0.9906  1.4185 -1.2621
44372SOL     OW40165   7.815   7.985   8.168  0.3871  0.0809  0.2888
44372SOL    HW140166   7.785   7.901   8.202  1.5041 -0.1438  0.7717
44372SOL    HW240167   7.887   8.010   8.226 -0.0182  1.4435  0.2445
44373SOL     OW40168   1.983   1.849   5.976  0.2316 -0.2933  0.0394
44373SOL    HW140169   1.915   1.827   6.040 -0.9610  0.2179 -0.9904
44373SOL    HW240170   2.046   1.778   5.982  0.1808 -0.2316  1.7988
44374SOL     OW40171   4.942   2.480   5.554  0.5350  0.3853  0.0135
44374SOL    HW140172   4.970   2.571   5.545  0.6814  0.2727 -0.7369
44374SOL    HW240173   4.915   2.472   5.646 -2.1452  1.9357 -0.5450
44375SOL     OW40174   0.797   2.109   5.156 -0.7015 -0.1585  0.0453
44375SOL    HW140175   0.816   2.015   5.163 -2.7546 -0.8395 -1.9524
44375SOL    HW240176   0.701   2.114   5.157 -0.7152  1.6416 -2.0297
44376SOL     OW40177  12.233   6.322  12.175  0.3023 -0.4386 -0.0402
44376SOL    HW140178  12.226   6.350  12.084 -0.8802 -0.1957  0.1021
44376SOL    HW240179  12.148   6.281  12.194  0.8945 -1.3865  0.6622
44377SOL     OW40180  11.032   8.498   1.202  0.4720 -0.3554 -0.0200
44377SOL    HW140181  10.942   8.468   1.220 -0.9303  2.7997 -1.1292
44377SOL    HW240182  11.055   8.455   1.119 -1.4955  1.4394 -1.6042
44378SOL     OW40183  11.005  11.249  11.842 -0.2890  0.0278 -0.5426
44378SOL    HW140184  10.936  11.285  11.898 -0.8017 -0.0167 -1.1329
44378SOL    HW240185  11.027  11.165  11.882  2.2897  1.7215  1.9875
44379SOL     OW40186   8.239   9.359  10.514  0.6688 -0.1101  0.2408
44379SOL    HW140187   8.265   9.315  10.595  0.8721  0.6130  0.5687
44379SOL    HW240188   8.242   9.452  10.535  1.4048  0.1152 -0.7951
44380SOL     OW40189   8.947   7.411  11.785 -0.3302  0.8755 -0.0168
44380SOL    HW140190   8.867   7.394  11.735 -0.7003  2.3145  0.0563
44380SOL    HW240191   9.008   7.343  11.756 -1.4168  0.0372 -0.4119
44381SOL     OW40192   4.841   2.113   6.456 -0.0975  0.6972 -0.5671
44381SOL    HW140193   4.824   2.020   6.435  2.4726 -0.0665  0.3596
44381SOL    HW240194   4.851   2.115   6.551 -0.4539  2.0187 -0.5417
44382SOL     OW40195   9.740   3.313   8.705  0.2246 -0.0391 -0.7530
44382SOL    HW140196   9.797   3.287   8.778  0.9018 -0.5313 -1.4333
44382SOL    HW240197   9.779   3.270   8.628  0.7218  2.0785 -1.7616
44383SOL     OW40198   3.134   1.496   9.654 -0.4197  0.3065  0.4640
44383SOL    HW140199   3.073   1.443   9.705  1.5827 -1.0100  1.5974
44383SOL    HW240200   3.113   1.586   9.679 -0.8630 -0.2067  2.0746
44384SOL     OW40201   5.549  10.482   9.447  0.2782 -0.1100 -0.5226
44384SOL    HW140202   5.585  10.433   9.521  0.1741 -0.6471 -0.8207
44384SOL    HW240203   5.454  10.484   9.465  0.3561  0.5606 -0.1734
44385SOL     OW40204   0.102   7.381  10.962 -0.2560 -0.1924  0.3184
44385SOL    HW140205   0.193   7.409  10.948  0.7578 -3.0345  0.4998
44385SOL    HW240206   0.101   7.350  11.053 -1.1529 -1.0715  0.0186
44386SOL     OW40207   7.375  11.033   7.248  0.2432 -0.4067  0.2755
44386SOL    HW140208   7.444  11.038   7.315  0.1639  2.4120  0.2567
44386SOL    HW240209   7.295  11.018   7.298  0.6680 -2.5608  0.3922
44387SOL     OW40210  11.387  12.427   0.200  0.0587 -0.0755  0.2959
44387SOL    HW140211  11.423  12.501   0.249  0.1221 -0.8908  1.5413
44387SOL    HW240212  11.452  12.410   0.132 -0.7976  2.1126 -1.1880
44388SOL     OW40213   8.020   3.700   9.595  0.6872 -0.3185 -0.4121
44388SOL    HW140214   7.957   3.765   9.563 -0.4657 -1.1830  0.0177
44388SOL    HW240215   7.975   3.616   9.583  1.5087 -0.9032  0.4908
44389SOL     OW40216  10.755   9.871   2.918 -0.6072  0.2167 -0.3419
44389SOL    HW140217  10.717   9.783   2.926 -1.3996  0.5285 -0.5253
44389SOL    HW240218  10.774   9.898   3.008 -0.1594 -0.2261 -0.3023
44390SOL     OW40219   0.311  12.222   1.424  0.5527 -0.1159 -0.2662
44390SOL    HW140220   0.394  12.195   1.387  0.5245 -0.1045 -0.3367
44390SOL    HW240221   0.316  12.195   1.516 -0.1675 -1.9433 -0.7355
44391SOL     OW40222   2.657   1.075   1.981  0.0181 -0.6368 -0.0539
44391SOL    HW140223   2.676   1.052   2.071  0.1619 -1.0245 -0.1804
44391SOL    HW240224   2.608   1.157   1.986  0.5304 -0.3492  0.3468
44392SOL     OW40225  12.055   8.895   7.804  0.4532  0.0618 -0.3548
44392SOL    HW140226  12.002   8.958   7.755  1.4564 -0.1462 -1.7696
44392SOL    HW240227  12.103   8.948   7.868 -1.7075  0.2043  1.2508
44393SOL     OW40228   4.837   1.380   2.693  0.1096 -0.2451  0.2143
44393SOL    HW140229   4.742   1.387   2.689 -0.2287 -2.9516  1.4591
44393SOL    HW240230   4.863   1.362   2.602 -0.7387 -0.9776  0.1029
44394SOL     OW40231   0.931   6.992   2.514  0.7767 -0.1088  0.0715
44394SOL    HW140232   0.933   6.906   2.473  0.3193  0.4889 -1.2536
44394SOL    HW240233   1.000   6.989   2.580 -0.4105 -2.0927  1.3123
44395SOL     OW40234   3.976   8.942  10.647  0.8487 -0.2545  0.1861
44395SOL    HW140235   4.036   9.015  10.636  0.4708 -0.1725 -1.5148
44395SOL    HW240236   3.975   8.898  10.562  0.4475 -1.7664  0.9368
44396SOL     OW40237   4.233   7.009  10.949 -0.3947 -0.2623 -0.1169
44396SOL    HW140238   4.160   6.946  10.950  1.1377 -2.1572  1.2043
44396SOL    HW240239   4.289   6.980  10.877  0.4113 -0.5567  0.6101
44397SOL     OW40240   4.422   1.022   2.616  0.2076  0.4497  0.1317
44397SOL    HW140241   4.491   1.083   2.591  1.1819 -0.5047  0.4176
44397SOL    HW240242   4.368   1.012   2.537  1.3673 -0.0596 -0.6184
44398SOL     OW40243   0.368   2.338   5.449  0.1009 -0.7961 -0.3104
44398SOL    HW140244   0.322   2.319   5.531  1.8695  0.0348  0.9262
44398SOL    HW240245   0.349   2.431   5.431 -1.9637 -1.4588 -2.0250
44399SOL     OW40246  11.827   6.341   5.408 -0.0749  0.4618  0.5889
44399SOL    HW140247  11.780   6.302   5.481  2.1383 -1.5135  1.0652
44399SOL    HW240248  11.792   6.298   5.330  1.1479 -1.3315  0.9775
44400SOL     OW40249   5.830   8.981   4.570  0.0061 -0.6012  0.1859
44400SOL    HW140250   5.756   8.921   4.562 -0.3628 -0.0172 -1.2495
44400SOL    HW240251   5.903   8.935   4.529  0.2923 -0.9362  1.0603
44401SOL     OW40252  11.037   4.036   9.616 -0.0026 -0.2417 -0.0562
44401SOL    HW140253  11.094   4.112   9.629  0.1114 -0.1148 -1.1942
44401SOL    HW240254  10.968   4.068   9.558 -0.1939 -0.8819 -0.1883
44402SOL     OW40255  10.959   9.188   4.035  0.1141 -0.3547 -0.0715
44402SOL    HW140256  10.992   9.135   3.962  1.6767  2.4351 -1.5798
44402SOL    HW240257  10.896   9.247   3.994  1.1096  1.3487  0.7219
44403SOL     OW40258   8.931   8.035   3.626 -0.1995 -0.0053  0.7227
44403SOL    HW140259   8.900   7.946   3.611  0.1802 -0.0308  0.0632
44403SOL    HW240260   9.008   8.025   3.682  0.4528 -0.1764 -0.1874
44404SOL     OW40261   5.351   5.556   9.755  0.3050 -0.4758  0.2953
44404SOL    HW140262   5.339   5.464   9.731  0.4650 -0.2948 -0.5180
44404SOL    HW240263   5.263   5.588   9.775  0.1653 -0.6335 -0.0715
44405SOL     OW40264  10.285   9.494   8.514 -0.4003 -0.3422 -0.0935
44405SOL    HW140265  10.250   9.571   8.558  0.8049  1.0796 -1.5096
44405SOL    HW240266  10.356   9.464   8.569  0.0277  0.4242 -0.2146
44406SOL     OW40267   3.491   5.292   7.802 -0.2233  0.2266  0.0416
44406SOL    HW140268   3.514   5.244   7.881  1.5522  0.6525 -0.1830
44406SOL    HW240269   3.573   5.332   7.773 -1.6151  3.7197  0.4226
44407SOL     OW40270   4.086   0.983   2.587 -0.2727  0.3786  0.0256
44407SOL    HW140271   4.141   0.979   2.509 -1.0278  0.2359 -0.5112
44407SOL    HW240272   4.095   0.897   2.628 -1.1728 -0.1382 -0.8234
44408SOL     OW40273   3.804   7.689   6.854 -0.2455  0.0963 -0.2641
44408SOL    HW140274   3.854   7.619   6.814 -0.1767  0.1377 -0.2495
44408SOL    HW240275   3.713   7.669   6.832 -0.2172  0.0595 -0.3486
44409SOL     OW40276  11.487   2.289   4.306  0.4719 -0.0105 -0.3396
44409SOL    HW140277  11.431   2.292   4.384  0.7763  1.0210 -0.1505
44409SOL    HW240278  11.436   2.239   4.242 -0.6236  0.8017 -0.1354
44410SOL     OW40279  11.691  11.664  11.773  0.0864  0.1945 -0.2974
44410SOL    HW140280  11.674  11.758  11.766  0.9471  0.3347 -0.5326
44410SOL    HW240281  11.611  11.629  11.812  0.3645  1.2551  1.3240
44411SOL     OW40282   6.845   8.759   0.081 -0.2153 -0.3627  0.0553
44411SOL    HW140283   6.799   8.843   0.073 -0.7668 -0.5896  0.7178
44411SOL    HW240284   6.849   8.743   0.175 -2.5428 -2.3668 -0.0900
44412SOL     OW40285   8.760   8.216   8.434 -0.0093  0.8325 -0.7244
44412SOL    HW140286   8.770   8.226   8.529  0.5577  1.0319 -0.8016
44412SOL    HW240287   8.772   8.304   8.399 -2.0446  1.1187 -0.8527
44413SOL     OW40288   5.546   1.420   7.982 -0.3157 -0.5412  0.2239
44413SOL    HW140289   5.505   1.389   7.901 -0.5856 -1.1093  0.5702
44413SOL    HW240290   5.506   1.366   8.050  0.0245 -0.1694  0.7159
44414SOL     OW40291  10.713   7.502   8.075 -0.2263  0.5958 -0.4008
44414SOL    HW140292  10.675   7.559   8.009 -0.7015 -0.1062 -0.7524
44414SOL    HW240293  10.644   7.438   8.095 -0.0276  0.6859  0.6456
44415SOL     OW40294   2.295   5.880   1.017  0.5002  0.0900  0.2020
44415SOL    HW140295   2.268   5.969   1.039  0.1230  0.0316 -0.0181
44415SOL    HW240296   2.329   5.844   1.098 -0.4346  0.0326  0.5681
44416SOL     OW40297   8.278   3.095   5.243 -0.1500 -0.1625 -0.2962
44416SOL    HW140298   8.285   3.177   5.292 -1.2583 -0.2687  0.0628
44416SOL    HW240299   8.355   3.045   5.270  0.3755  0.6363 -0.2905
44417SOL     OW40300   7.757  12.201   5.763 -0.3848 -0.1683 -0.0915
44417SOL    HW140301   7.822  12.271   5.772 -0.8349  0.2810 -0.2928
44417SOL    HW240302   7.732  12.180   5.853 -1.7798  1.3924 -0.0697
44418SOL     OW40303   5.158   8.841   1.509 -0.2148  0.0921 -0.3990
44418SOL    HW140304   5.135   8.784   1.436 -1.0542  0.4756 -0.4492
44418SOL    HW240305   5.172   8.927   1.470 -1.1382  0.4060 -0.0661
44419SOL     OW40306   1.059   2.819   7.306  0.0197 -0.3310 -0.1113
44419SOL    HW140307   1.147   2.858   7.302  0.4189 -1.1281  0.6243
44419SOL    HW240308   1.057   2.774   7.390 -0.5611 -1.5696 -0.7644
44420SOL     OW40309   9.264  12.272  12.512 -0.3051  0.4510  0.1844
44420SOL    HW140310   9.349  12.232  12.533  0.2141  1.8921  0.9342
44420SOL    HW240311   9.272  12.300  12.421  1.5522  4.0871  1.2900
44421SOL     OW40312   7.279  10.077  11.504 -0.6506  1.1515 -0.3790
44421SOL    HW140313   7.364  10.033  11.510 -0.9438  0.6028 -0.1571
44421SOL    HW240314   7.255  10.071  11.411 -2.0364 -1.8011  0.0670
44422SOL     OW40315   8.487   7.899  12.268 -0.2492 -0.0212  0.3188
44422SOL    HW140316   8.471   7.885  12.362 -0.5445  0.2282  0.3075
44422SOL    HW240317   8.400   7.906  12.230 -0.1245  1.3366  0.2468
44423SOL     OW40318   8.619   9.347  10.220 -0.3853  0.0398 -0.4921
44423SOL    HW140319   8.616   9.351  10.315  0.5665 -0.7665 -0.4105
44423SOL    HW240320   8.649   9.433  10.192  0.4401 -0.0803  0.0081
44424SOL     OW40321   8.867  10.359   0.211 -0.1247  0.9461 -0.4272
44424SOL    HW140322   8.924  10.427   0.248  0.1364 -0.4107  1.8528
44424SOL    HW240323   8.895  10.279   0.255  0.0061 -0.8284 -3.5027
44425SOL     OW40324   2.114  12.582   1.556  0.2186 -0.0719 -0.3727
44425SOL    HW140325   2.074  12.529   1.487  0.2961 -0.7754  0.1064
44425SOL    HW240326   2.202  12.601   1.523 -0.2508  0.8800 -1.1178
44426SOL     OW40327  12.201   5.169   5.119 -0.1116 -0.8023  0.0690
44426SOL    HW140328  12.138   5.122   5.065 -0.1130 -0.4632 -0.2256
44426SOL    HW240329  12.165   5.257   5.128 -0.2913 -0.9480  0.9173
44427SOL     OW40330   3.385   3.917  11.634 -0.4258  0.0417  0.0938
44427SOL    HW140331   3.356   3.839  11.588  0.9678 -1.2639  1.3165
44427SOL    HW240332   3.476   3.928  11.608 -0.4622  0.9827  0.3246
44428SOL     OW40333   7.028   0.848  12.514  0.2834  0.3867  0.1162
44428SOL    HW140334   7.068   0.883  12.594  2.0021 -0.2807 -0.3956
44428SOL    HW240335   6.966   0.915  12.487 -1.0634  0.2143  2.4982
44429SOL     OW40336   0.713   6.508  11.405  0.2425  0.3444 -0.6390
44429SOL    HW140337   0.675   6.596  11.404 -0.5988 -0.0110 -0.5045
44429SOL    HW240338   0.749   6.498  11.493  0.1698  0.4748 -0.5949
44430SOL     OW40339  10.317   9.496   1.685  0.6004  0.1936 -0.3956
44430SOL    HW140340  10.353   9.483   1.773 -1.4346 -0.6246  0.3770
44430SOL    HW240341  10.392   9.487   1.626  1.7380 -0.8031  1.1509
44431SOL     OW40342   6.539   9.383   6.479  0.3481  0.5369 -0.7084
44431SOL    HW140343   6.626   9.416   6.501  0.5070 -0.4410  0.1827
44431SOL    HW240344   6.556   9.304   6.428  0.0664 -1.0710  1.5328
44432SOL     OW40345   3.794  11.283   2.329  0.1802 -0.1633 -0.3501
44432SOL    HW140346   3.850  11.347   2.284 -0.6016  0.3919 -0.5435
44432SOL    HW240347   3.730  11.256   2.264 -0.7494  0.3908  0.3029
44433SOL     OW40348  10.660   8.115  12.404 -0.1938  0.0166  0.0266
44433SOL    HW140349  10.644   8.021  12.402 -1.1012  0.0764  2.0482
44433SOL    HW240350  10.707   8.130  12.486  4.0564  0.8300 -2.2865
44434SOL     OW40351   6.410  12.164   3.535  0.2428  0.2105  0.3370
44434SOL    HW140352   6.389  12.254   3.559 -1.6224 -0.8169  3.1005
44434SOL    HW240353   6.480  12.139   3.595  1.4541  0.0688 -1.0890
44435SOL     OW40354  12.256   8.737   0.510 -0.1340 -0.3324 -0.0123
44435SOL    HW140355  12.293   8.708   0.594 -1.3952  1.7981  1.3776
44435SOL    HW240356  12.216   8.822   0.529 -1.8565 -0.4825 -2.4195
44436SOL     OW40357   5.812   7.516  11.014  0.4661  0.2724  1.0990
44436SOL    HW140358   5.830   7.480  10.927  0.0743  0.1167  1.0788
44436SOL    HW240359   5.851   7.603  11.012  0.8455  0.1017  0.9189
44437SOL     OW40360   4.195   1.980   1.073 -0.4463 -0.4584  0.0004
44437SOL    HW140361   4.197   2.074   1.091  2.5708 -0.4904  0.3818
44437SOL    HW240362   4.163   1.973   0.983 -1.3105  0.8520  0.1730
44438SOL     OW40363   7.718   3.200   1.227  0.2667 -0.4876  0.8451
44438SOL    HW140364   7.791   3.242   1.272  1.8989  1.4451 -3.1456
44438SOL    HW240365   7.668   3.273   1.189 -0.5265 -1.9280 -1.0674
44439SOL     OW40366   9.164   9.588   1.531 -0.4583  0.1571  0.2348
44439SOL    HW140367   9.195   9.568   1.442 -1.5269 -2.3798  0.3437
44439SOL    HW240368   9.069   9.590   1.523 -0.5415  0.5917  1.2168
44440SOL     OW40369   0.482   4.000   5.036  0.3722  0.0774  0.4769
44440SOL    HW140370   0.467   3.907   5.052  0.0501 -0.0819 -0.6605
44440SOL    HW240371   0.482   4.040   5.123 -2.8563 -0.4734  0.8247
44441SOL     OW40372   8.995   4.605  12.334 -0.4410  0.4584  0.1209
44441SOL    HW140373   8.946   4.632  12.256 -1.2541  0.2392  0.5395
44441SOL    HW240374   8.952   4.524  12.362  1.5283 -0.9398 -0.7178
44442SOL     OW40375   6.985   4.935  11.355 -0.5977  0.0876 -0.1407
44442SOL    HW140376   6.954   4.983  11.431 -0.6315  0.9455 -0.6803
44442SOL    HW240377   7.075   4.967  11.341  0.2613 -1.7503  0.9042
44443SOL     OW40378   4.568   5.199   2.088 -0.0016 -0.0098  0.5117
44443SOL    HW140379   4.532   5.113   2.069 -0.4662  0.1271  0.7398
44443SOL    HW240380   4.602   5.231   2.005  1.9611 -1.2110  0.7871
44444SOL     OW40381   1.829  11.208  10.411 -0.1027  0.4566 -0.3698
44444SOL    HW140382   1.878  11.240  10.335  1.6240  0.0961  0.5489
44444SOL    HW240383   1.892  11.155  10.460 -1.8437 -1.3320  0.0736
44445SOL     OW40384   3.970  11.032   3.323 -0.1104 -0.3096 -0.0241
44445SOL    HW140385   4.039  11.014   3.260  1.2785  1.6244  0.8739
44445SOL    HW240386   4.007  11.097   3.383 -2.0075 -0.7021  1.7057
44446SOL     OW40387  12.583   6.393   8.114 -0.6909  0.7169  0.4756
44446SOL    HW140388  12.599   6.302   8.139 -0.2869  0.2829 -1.2547
44446SOL    HW240389  12.547   6.388   8.026 -1.3469  2.2120  0.6357
44447SOL     OW40390  10.180   4.951   0.794  0.0750  0.1585  0.2588
44447SOL    HW140391  10.248   5.017   0.809  0.4737 -0.2430  0.2401
44447SOL    HW240392  10.106   4.979   0.848  0.3985  0.3829  0.5866
44448SOL     OW40393  12.117   3.590   0.034 -0.1587 -0.1220 -0.0771
44448SOL    HW140394  12.147   3.671   0.076  0.2652 -0.6638  0.6947
44448SOL    HW240395  12.174   3.580  -0.042  0.5147 -0.2535  0.4340
44449SOL     OW40396   6.804   3.739   5.455 -0.1939 -0.1166 -0.6492
44449SOL    HW140397   6.894   3.719   5.480 -0.6675 -0.4938  0.8767
44449SOL    HW240398   6.779   3.668   5.395  0.5262 -0.0059 -1.0776
44450SOL     OW40399   3.229   8.199   5.663 -0.3955  0.6415  0.1090
44450SOL    HW140400   3.290   8.253   5.612 -0.5333  1.9142  1.2408
44450SOL    HW240401   3.143   8.223   5.630 -0.4186  0.5406  0.0944
44451SOL     OW40402   4.385   0.955   1.608 -0.2344  0.1368 -0.0620
44451SOL    HW140403   4.385   0.887   1.541 -0.0311 -1.4119  1.4336
44451SOL    HW240404   4.292   0.974   1.622 -0.3977 -1.0674  0.6504
44452SOL     OW40405   0.673   4.251   5.711  0.2092  0.1886 -0.0333
44452SOL    HW140406   0.639   4.214   5.792  0.5377  0.3560  0.1817
44452SOL    HW240407   0.768   4.242   5.718  0.2309  0.0630 -0.4662
44453SOL     OW40408   2.227  10.389   2.244  0.3492  0.2041 -0.0925
44453SOL    HW140409   2.263  10.370   2.331  1.2649 -0.4052 -0.5845
44453SOL    HW240410   2.225  10.485   2.239  0.2272  0.2431  0.6215
44454SOL     OW40411   5.473   0.885  11.048  0.3390 -0.0467  0.0508
44454SOL    HW140412   5.566   0.902  11.037  0.2912 -0.1354 -0.5284
44454SOL    HW240413   5.454   0.910  11.138  0.3713  2.5178 -0.5738
44455SOL     OW40414   1.064   1.609   6.149  0.6550 -0.6987  0.2285
44455SOL    HW140415   1.139   1.640   6.199  0.9620 -1.4285  0.2323
44455SOL    HW240416   0.996   1.595   6.215  0.7164 -0.6300  0.3056
44456SOL     OW40417  11.855  12.425   7.472  0.0833  0.1156 -0.2021
44456SOL    HW140418  11.884  12.340   7.437  0.1604  0.5492 -1.2264
44456SOL    HW240419  11.810  12.467   7.399  1.2532  1.5431 -0.1580
44457SOL     OW40420   8.751   2.136   9.129 -0.1011 -0.6342 -0.2286
44457SOL    HW140421   8.811   2.118   9.202  0.4551  1.6202 -0.0590
44457SOL    HW240422   8.710   2.219   9.152 -0.1451 -0.0156 -2.3278
44458SOL     OW40423   8.686  11.942  12.519 -0.3061  0.1969 -0.2199
44458SOL    HW140424   8.703  11.896  12.437 -2.1147 -1.4945  0.2855
44458SOL    HW240425   8.730  12.026  12.508  1.8550 -1.0229 -1.8030
44459SOL     OW40426  10.382   6.978  11.937 -0.6029 -0.3725  0.1469
44459SOL    HW140427  10.458   6.970  11.995 -0.6501  0.8471  0.4049
44459SOL    HW240428  10.420   6.981  11.849 -0.4811 -1.5080  0.1513
44460SOL     OW40429   3.654  10.506   6.744  0.0209  0.2124  0.3866
44460SOL    HW140430   3.721  10.562   6.704 -1.2961  3.3911  2.1876
44460SOL    HW240431   3.578  10.563   6.752 -0.9861 -1.3617  3.7648
44461SOL     OW40432   8.956   4.527   7.322  0.0653  0.1745  0.6017
44461SOL    HW140433   8.963   4.475   7.242  0.4654  1.5609 -0.2898
44461SOL    HW240434   9.028   4.496   7.377 -0.7742 -1.4529  0.8637
44462SOL     OW40435  11.401   0.778  10.841  0.5359  0.5619  0.0385
44462SOL    HW140436  11.418   0.750  10.751 -1.6097 -0.6225 -0.0528
44462SOL    HW240437  11.308   0.801  10.842  0.5826  0.7891  1.9013
44463SOL     OW40438   3.214   6.279   1.714  0.0206 -0.2901  0.4044
44463SOL    HW140439   3.181   6.190   1.723  1.4110 -1.0552 -1.5610
44463SOL    HW240440   3.135   6.334   1.718 -1.0483 -1.7214 -0.0654
44464SOL     OW40441   1.789  10.735   5.286  0.3057  0.2137  0.2771
44464SOL    HW140442   1.852  10.680   5.334  0.7919  1.2902  0.9119
44464SOL    HW240443   1.720  10.674   5.259  1.6745 -1.0413 -0.5715
44465SOL     OW40444   7.258   0.435   6.848  0.1425  0.4432  0.4072
44465SOL    HW140445   7.305   0.393   6.920 -2.0425 -0.6428  1.2814
44465SOL    HW240446   7.172   0.455   6.884 -0.2234  2.0636 -1.2301
44466SOL     OW40447  10.226   2.454  10.266  0.4201 -0.2079 -0.2944
44466SOL    HW140448  10.278   2.440  10.345  1.2810  0.9589 -0.6175
44466SOL    HW240449  10.162   2.520  10.291  0.6533  0.1172 -0.5384
44467SOL     OW40450  10.522   6.186   9.560  0.4170 -0.5383  0.4342
44467SOL    HW140451  10.566   6.158   9.640  0.9133 -2.5066 -0.4686
44467SOL    HW240452  10.563   6.134   9.491  0.3001  1.4256 -1.1749
44468SOL     OW40453   0.375   3.827   7.919 -0.0436  0.6088 -0.0818
44468SOL    HW140454   0.300   3.776   7.950  0.1082  0.5325  0.1662
44468SOL    HW240455   0.443   3.812   7.985  0.9303 -1.0783 -1.3847
44469SOL     OW40456   7.935   0.510   2.173  1.0746 -0.3820 -0.7007
44469SOL    HW140457   7.955   0.491   2.265  0.1551  1.9326  0.0592
44469SOL    HW240458   8.020   0.520   2.131  1.5103 -1.6767 -0.1976
44470SOL     OW40459  10.228   5.628   6.608 -0.5029  0.4263  0.6794
44470SOL    HW140460  10.176   5.589   6.678 -0.0500 -0.7242  0.3970
44470SOL    HW240461  10.291   5.560   6.583 -1.0227  0.5750 -1.2308
44471SOL     OW40462   5.374   5.720   7.719  0.4384 -0.0487 -0.1651
44471SOL    HW140463   5.337   5.803   7.689 -0.2897 -1.5060 -3.7915
44471SOL    HW240464   5.468   5.728   7.703  0.6350  0.6388  1.1753
44472SOL     OW40465   2.086   9.734   0.754 -0.0153  0.0601 -0.2134
44472SOL    HW140466   2.166   9.748   0.804 -0.0638 -0.7099  0.0909
44472SOL    HW240467   2.061   9.644   0.773 -0.0842 -0.2312 -1.5634
44473SOL     OW40468  11.906   3.855   8.824  0.2284  0.0981 -0.3398
44473SOL    HW140469  11.878   3.789   8.760 -0.1857  1.9719 -2.2162
44473SOL    HW240470  11.857   3.833   8.903  0.7962 -2.3497 -0.5896
44474SOL     OW40471   2.799   1.927   2.389 -0.2889  0.4936  0.1998
44474SOL    HW140472   2.784   1.962   2.301  1.7960  1.6829  0.2472
44474SOL    HW240473   2.712   1.909   2.423 -1.2328  1.5640 -1.4916
44475SOL     OW40474   5.649   5.788   7.642  0.0617  0.3864  0.0282
44475SOL    HW140475   5.690   5.701   7.644  0.4010  0.4488 -2.0434
44475SOL    HW240476   5.712   5.846   7.684 -0.1567 -0.3314  1.4063
44476SOL     OW40477   5.980   7.894   4.509  0.0759  0.6605  0.5392
44476SOL    HW140478   6.054   7.876   4.566 -0.2440  1.7289  1.3085
44476SOL    HW240479   5.904   7.855   4.553  0.1720 -0.5348 -0.3025
44477SOL     OW40480   0.714  11.568   5.466  0.2452  0.0520  0.4091
44477SOL    HW140481   0.695  11.526   5.550  0.3310  0.7459  0.7776
44477SOL    HW240482   0.798  11.612   5.479 -0.4952  1.4902  0.4626
44478SOL     OW40483   2.886  11.172   2.057  0.5693 -0.3228  0.4705
44478SOL    HW140484   2.835  11.251   2.036 -0.5369 -1.0350  0.3672
44478SOL    HW240485   2.976  11.195   2.034  0.6421  1.6341  2.4078
44479SOL     OW40486   9.630   3.758   9.831  0.0210  0.1762  0.3788
44479SOL    HW140487   9.556   3.733   9.775  0.4923 -0.5113  0.0468
44479SOL    HW240488   9.708   3.741   9.777  0.6099 -2.4235  1.8946
44480SOL     OW40489   4.581   5.798   1.760  0.3968 -0.1728 -0.0339
44480SOL    HW140490   4.637   5.860   1.807  1.5936 -0.2181 -1.3166
44480SOL    HW240491   4.603   5.811   1.668  0.3367 -2.1715 -0.3786
44481SOL     OW40492  11.251   0.261   7.783  0.3654  0.1568 -0.8614
44481SOL    HW140493  11.183   0.282   7.847  0.7457 -0.2143 -0.3249
44481SOL    HW240494  11.207   0.210   7.716  0.2035 -0.5118 -0.2621
44482SOL     OW40495   0.808   7.094   9.807 -0.0188  0.3655  0.1320
44482SOL    HW140496   0.846   7.161   9.863 -0.5967  0.8050  0.0076
44482SOL    HW240497   0.742   7.052   9.861  1.8175 -1.6258  0.9678
44483SOL     OW40498   6.161   4.288   8.476 -1.2162 -0.2429 -0.1424
44483SOL    HW140499   6.157   4.207   8.426  0.1531  0.5185 -1.5750
44483SOL    HW240500   6.229   4.340   8.432 -1.2338  1.2014  1.4394
44484SOL     OW40501   1.701   1.516   4.497 -0.2435 -0.1163  0.1213
44484SOL    HW140502   1.650   1.492   4.574  0.2733  0.7784  0.7607
44484SOL    HW240503   1.678   1.607   4.479  1.9479  0.7258  1.1612
44485SOL     OW40504   8.973   6.852   2.596  0.0101 -0.4781 -0.0262
44485SOL    HW140505   9.053   6.904   2.603  0.3810 -0.8269 -1.4890
44485SOL    HW240506   8.979   6.790   2.669  2.4576 -2.3269 -1.6535
44486SOL     OW40507   1.159  10.750   2.135 -0.3449 -0.4064  0.3890
44486SOL    HW140508   1.204  10.739   2.219  0.1841 -0.0860  0.1479
44486SOL    HW240509   1.228  10.777   2.074 -1.0178  0.9494  0.2106
44487SOL     OW40510   3.595   9.447   5.436  0.8053 -0.3659  0.4309
44487SOL    HW140511   3.518   9.498   5.458  1.1921  0.7625 -0.7316
44487SOL    HW240512   3.571   9.356   5.457 -1.0489 -0.1217 -0.4468
44488SOL     OW40513  10.396   5.608   2.801  0.3897  0.0061  0.5424
44488SOL    HW140514  10.370   5.525   2.760  1.0108  0.8107 -1.5894
44488SOL    HW240515  10.479   5.588   2.844  0.4527 -0.5200  0.1866
44489SOL     OW40516   0.037   8.503   9.742 -0.7681 -0.2365  0.3823
44489SOL    HW140517   0.088   8.556   9.803 -2.2834  0.3900  1.1624
44489SOL    HW240518  -0.044   8.484   9.789 -1.3058 -1.1034 -0.8489
44490SOL     OW40519   7.367   2.410  12.081  0.2282 -0.2136 -0.0499
44490SOL    HW140520   7.386   2.501  12.103  0.5074  0.9441 -4.1920
44490SOL    HW240521   7.275   2.398  12.104  0.1003  1.2281  0.2752
44491SOL     OW40522   9.530   3.130   4.106 -0.7977 -0.1046  0.5944
44491SOL    HW140523   9.472   3.058   4.084 -0.5941  0.1376 -0.8636
44491SOL    HW240524   9.591   3.094   4.170 -1.9443 -0.6299  1.4092
44492SOL     OW40525   5.430   9.974   1.680  0.0612 -0.4118 -0.1174
44492SOL    HW140526   5.417  10.067   1.665 -3.2932 -0.3550  1.9796
44492SOL    HW240527   5.489   9.970   1.756  1.9820 -0.1561 -1.5315
44493SOL     OW40528   5.246   7.884  12.384 -0.5494  0.0416  0.5538
44493SOL    HW140529   5.155   7.869  12.358 -1.6646  3.2443  1.9602
44493SOL    HW240530   5.260   7.977  12.368  2.4603 -0.3167  0.5873
44494SOL     OW40531   2.150   5.851   5.944 -0.4538  0.4818 -0.3073
44494SOL    HW140532   2.154   5.756   5.935 -1.0083  0.4735 -0.5364
44494SOL    HW240533   2.056   5.871   5.942 -0.3085  1.1884 -2.1248
44495SOL     OW40534  10.238   4.931   9.605  0.3166  0.4078  0.0873
44495SOL    HW140535  10.330   4.913   9.622  0.4700  1.2136  0.1306
44495SOL    HW240536  10.235   5.023   9.578 -0.4154  0.2685 -0.3595
44496SOL     OW40537   7.959   9.480  11.042  0.3575 -0.6358 -0.2199
44496SOL    HW140538   8.010   9.400  11.056  0.6805 -0.3675  0.1888
44496SOL    HW240539   8.016   9.535  10.989  0.4349 -0.3931  0.1122
44497SOL     OW40540   0.530   0.781   3.567 -0.1315  0.3805 -0.0659
44497SOL    HW140541   0.450   0.739   3.597  0.8693 -0.8194  1.0159
44497SOL    HW240542   0.589   0.709   3.545  0.8910  1.2238 -0.2138
44498SOL     OW40543   5.264   2.820   9.312  0.7285 -0.1545 -0.0220
44498SOL    HW140544   5.265   2.741   9.366  0.7839 -1.6338 -2.0542
44498SOL    HW240545   5.335   2.806   9.249  0.2535  1.1862 -0.8877
44499SOL     OW40546   6.618  12.034   7.194 -0.1290  0.4421  0.4580
44499SOL    HW140547   6.701  12.080   7.178 -0.3452 -0.0365 -2.7138
44499SOL    HW240548   6.551  12.101   7.184 -0.3039  0.0282 -1.8308
44500SOL     OW40549   4.466   2.238   9.881 -0.7646 -0.2266  0.3894
44500SOL    HW140550   4.398   2.305   9.876 -0.1084  0.4308  0.0245
44500SOL    HW240551   4.421   2.160   9.912 -1.2281  0.8375  2.5522
44501SOL     OW40552   6.599   7.437   2.089 -0.0970  0.0260 -0.3806
44501SOL    HW140553   6.670   7.408   2.032 -0.7321 -1.9672 -0.2433
44501SOL    HW240554   6.644   7.480   2.162  0.9422 -0.6930 -0.5675
44502SOL     OW40555   5.380   1.294   8.291 -0.4790 -0.1569  0.1260
44502SOL    HW140556   5.391   1.249   8.207  0.7580  1.8245 -0.8274
44502SOL    HW240557   5.439   1.248   8.350 -0.1950 -0.5894 -0.4829
44503SOL     OW40558  11.972   6.084   1.632 -0.3912 -0.0471  0.1357
44503SOL    HW140559  12.062   6.067   1.659  0.3866  0.8361 -1.7139
44503SOL    HW240560  11.962   6.179   1.641 -0.5586  0.0882 -1.2421
44504SOL     OW40561  10.156   0.304   0.942 -0.4351 -0.0933 -0.1934
44504SOL    HW140562  10.135   0.318   1.034  1.2201  0.4925  0.1189
44504SOL    HW240563  10.122   0.216   0.923  1.1904 -1.2055  1.6234
44505SOL     OW40564  10.484   8.249   8.388  0.0123 -0.0040  0.3151
44505SOL    HW140565  10.457   8.317   8.450 -0.9720  0.2327 -0.3460
44505SOL    HW240566  10.498   8.296   8.306  1.5398 -0.2779  0.3851
44506SOL     OW40567  11.270   3.674  12.375 -0.1930  0.5171  0.3586
44506SOL    HW140568  11.316   3.711  12.450  0.3451  0.4341  0.0791
44506SOL    HW240569  11.214   3.606  12.412  1.1312 -0.5291  0.5573
44507SOL     OW40570   3.911   9.121   1.464  0.3408 -0.2457 -0.3070
44507SOL    HW140571   4.000   9.113   1.430  0.6464 -0.3673  0.4862
44507SOL    HW240572   3.905   9.052   1.530  0.6042  1.4690  1.6183
44508SOL     OW40573   8.473   3.375   6.298  0.3433  0.3417 -0.2342
44508SOL    HW140574   8.448   3.336   6.215 -1.0941  0.9876 -0.1438
44508SOL    HW240575   8.436   3.316   6.364 -0.0218  0.7332 -0.0832
44509SOL     OW40576  10.000   1.784  11.008  0.4389 -0.5259 -0.0810
44509SOL    HW140577  10.048   1.863  10.980 -0.0389  0.0570  0.7157
44509SOL    HW240578   9.933   1.772  10.941  1.4996 -1.1856 -1.0561
44510SOL     OW40579  10.076   6.118   1.600 -0.9190 -0.5428  0.7864
44510SOL    HW140580  10.086   6.028   1.631 -1.2731  0.2577  3.5332
44510SOL    HW240581  10.165   6.152   1.593 -0.7683 -1.1994 -0.6468
44511SOL     OW40582   7.472   8.570   8.599  0.0447  0.3597 -0.3929
44511SOL    HW140583   7.462   8.661   8.629 -1.2710  0.3192 -0.6354
44511SOL    HW240584   7.394   8.555   8.545 -0.1893 -1.1798  0.3324
44512SOL     OW40585   7.658   4.769   2.048 -0.3019  0.5598 -0.0339
44512SOL    HW140586   7.623   4.705   2.111  0.6826 -0.7828 -0.7970
44512SOL    HW240587   7.613   4.748   1.966  0.4787  0.4248 -0.4342
44513SOL     OW40588   8.715   5.216   5.916  0.3878 -0.1305 -0.5137
44513SOL    HW140589   8.659   5.154   5.870 -0.8645  0.6736 -0.1330
44513SOL    HW240590   8.790   5.230   5.857  1.3599 -2.8792 -0.0915
44514SOL     OW40591   6.847   1.518  10.957 -0.1588 -0.3123 -0.5124
44514SOL    HW140592   6.817   1.535  10.868  0.9567 -1.0047 -1.0397
44514SOL    HW240593   6.801   1.584  11.010 -1.5613 -0.4871 -1.4394
44515SOL     OW40594   9.759   5.667   1.613  0.1423  0.6161 -0.1054
44515SOL    HW140595   9.684   5.617   1.646  0.1761  1.1302  0.7756
44515SOL    HW240596   9.760   5.649   1.519 -0.7471  0.1581 -0.0371
44516SOL     OW40597  11.826   5.445   1.906  0.0172 -0.0390  0.3590
44516SOL    HW140598  11.916   5.466   1.929 -0.2692  0.2412  1.2716
44516SOL    HW240599  11.795   5.521   1.857  0.2365 -0.0820  0.1531
44517SOL     OW40600  11.303   9.553   8.120  0.4877 -0.4329  0.1648
44517SOL    HW140601  11.256   9.599   8.051  0.5092  0.8567  0.9791
44517SOL    HW240602  11.242   9.551   8.194  1.0806 -0.2816  0.6664
44518SOL     OW40603   0.402   1.973  10.091  0.1738 -0.1780  0.2023
44518SOL    HW140604   0.441   2.021  10.164 -0.0128  0.4949 -0.1343
44518SOL    HW240605   0.308   1.985  10.103  0.1285  2.9964 -2.0970
44519SOL     OW40606   0.698  12.569   4.469  0.1217  0.0022  0.8726
44519SOL    HW140607   0.642  12.616   4.408  1.5107 -0.5274 -0.8890
44519SOL    HW240608   0.639  12.542   4.539 -1.3133  1.5985  0.3548
44520SOL     OW40609   4.006   2.096   3.940  0.2261  0.1619  0.1273
44520SOL    HW140610   4.008   2.025   3.876 -0.6958  0.6649 -0.4689
44520SOL    HW240611   3.935   2.153   3.911  1.2752  1.6089  0.3087
44521SOL     OW40612   8.821   7.805  11.131 -0.0242  0.1038  0.6709
44521SOL    HW140613   8.745   7.755  11.160 -0.7007  0.4117 -0.5155
44521SOL    HW240614   8.865   7.747  11.068  1.7408 -0.7880  2.5948
44522SOL     OW40615  12.273   6.037   5.144 -0.5396 -0.0129 -0.2645
44522SOL    HW140616  12.253   5.997   5.229  1.9285 -1.2709 -0.1846
44522SOL    HW240617  12.364   6.065   5.152 -0.1730 -0.3713 -2.5603
44523SOL     OW40618  11.438   5.428   1.070  0.2887  0.6702 -0.2900
44523SOL    HW140619  11.446   5.371   0.994 -1.5501 -0.1679  0.0930
44523SOL    HW240620  11.446   5.369   1.145  0.0158  1.1629  0.1372
44524SOL     OW40621   8.343   7.771   8.940  0.0173  0.1586 -0.1853
44524SOL    HW140622   8.374   7.780   9.030 -1.2261  0.6273  0.2153
44524SOL    HW240623   8.412   7.810   8.887  0.8696 -0.3185  0.5389
44525SOL     OW40624   9.421   8.415   0.414  1.0102 -0.9161 -0.0092
44525SOL    HW140625   9.356   8.414   0.485  1.1092 -0.6018  0.0846
44525SOL    HW240626   9.494   8.465   0.449  2.2745 -3.1673  0.7350
44526SOL     OW40627   7.626  10.667   7.226  0.5214 -0.1651  0.1796
44526SOL    HW140628   7.622  10.709   7.312 -0.7435 -0.2897  0.2021
44526SOL    HW240629   7.716  10.682   7.197  0.4984  1.3661  0.7697
44527SOL     OW40630  11.141   3.200  11.670  0.1175 -0.3304 -0.6269
44527SOL    HW140631  11.184   3.115  11.665  1.2823  0.2532 -1.1840
44527SOL    HW240632  11.066   3.187  11.727 -0.0086 -1.8398 -1.1147
44528SOL     OW40633   9.541   2.486   3.788 -0.3598 -0.0569  0.0945
44528SOL    HW140634   9.526   2.517   3.699  2.5066  2.8505  0.4425
44528SOL    HW240635   9.618   2.430   3.782 -0.4744 -0.2952  0.7044
44529SOL     OW40636   8.604   4.169  12.407  0.5499 -0.0368  0.1884
44529SOL    HW140637   8.650   4.212  12.478 -0.5947  0.7466  0.4904
44529SOL    HW240638   8.670   4.155  12.339  1.2718  0.8099  0.7077
44530SOL     OW40639   7.156   7.314   6.572 -0.6015 -0.0452  0.3258
44530SOL    HW140640   7.236   7.319   6.624  0.1612 -0.8117 -0.7238
44530SOL    HW240641   7.175   7.364   6.493 -2.2008  2.1993  1.2727
44531SOL     OW40642  10.750   9.426   1.918  0.1032  0.1461  0.0510
44531SOL    HW140643  10.704   9.510   1.908  1.3359  1.0499  1.5892
44531SOL    HW240644  10.843   9.449   1.915  0.5290 -1.5165 -2.0123
44532SOL     OW40645   6.699   2.365   4.164  0.1723  0.3088  0.1544
44532SOL    HW140646   6.661   2.439   4.211  0.6326  0.2029  0.7157
44532SOL    HW240647   6.625   2.321   4.124 -0.2585  0.3295  0.9012
44533SOL     OW40648   1.645   2.916  10.457 -0.2290  0.8653  0.0178
44533SOL    HW140649   1.734   2.881  10.467  0.0534  1.4509 -0.4016
44533SOL    HW240650   1.637   2.934  10.363 -0.8905  0.5668  0.0130
44534SOL     OW40651   6.465   6.074   3.066  0.0304  0.6681 -0.1057
44534SOL    HW140652   6.491   6.100   3.154 -0.5638 -0.0357  0.2896
44534SOL    HW240653   6.370   6.084   3.065 -0.1293 -0.6392 -0.2038
44535SOL     OW40654  12.496   3.122   1.581  0.1483  0.2549 -0.4562
44535SOL    HW140655  12.579   3.100   1.538  0.3924  0.2415  0.0113
44535SOL    HW240656  12.514   3.205   1.626 -0.0559  0.1868 -0.2522
44536SOL     OW40657   6.168   6.348   4.090 -0.2655  0.2405  0.2501
44536SOL    HW140658   6.108   6.412   4.128 -1.4021 -1.1919  0.9660
44536SOL    HW240659   6.119   6.310   4.017  0.3701  0.1122 -0.1179
44537SOL     OW40660   5.444   0.990  10.351 -0.5924  0.0900 -0.1859
44537SOL    HW140661   5.526   0.981  10.401 -0.6665 -1.8692 -0.3195
44537SOL    HW240662   5.383   1.032  10.412  0.0136 -0.0429  0.5318
44538SOL     OW40663   4.190  12.171   3.526 -0.7109 -0.1476  0.3579
44538SOL    HW140664   4.273  12.189   3.483  1.0631 -0.1060  3.5117
44538SOL    HW240665   4.157  12.257   3.552 -0.7361 -0.2898  0.8116
44539SOL     OW40666   6.506  11.624   5.545  0.1127  0.0632 -0.0551
44539SOL    HW140667   6.481  11.540   5.509  0.5704  0.2733 -0.8862
44539SOL    HW240668   6.541  11.603   5.632  2.0122 -0.8588 -0.9875
44540SOL     OW40669   0.760   4.361  10.387 -0.2750 -0.0285  0.5791
44540SOL    HW140670   0.771   4.307  10.465  1.5684  0.5660  0.7761
44540SOL    HW240671   0.769   4.451  10.419 -0.1881  0.2522 -0.2134
44541SOL     OW40672   3.766   0.536   3.364  0.2017  0.1559  0.1347
44541SOL    HW140673   3.673   0.556   3.376  0.4379  0.9339  0.7363
44541SOL    HW240674   3.797   0.510   3.450  0.9417  1.6681  0.3650
44542SOL     OW40675   4.198   6.773   6.216 -0.0628  0.3225 -0.3191
44542SOL    HW140676   4.198   6.827   6.137 -0.3676  0.0909 -0.4813
44542SOL    HW240677   4.241   6.827   6.283 -0.1488  0.6678 -0.5427
44543SOL     OW40678   1.943   6.263   8.998  0.0225  0.2898  0.2369
44543SOL    HW140679   1.948   6.267   9.094 -0.3074  1.5054  0.2201
44543SOL    HW240680   1.979   6.347   8.968  2.0030 -0.8563 -0.8161
44544SOL     OW40681   2.070  12.072  11.027  0.1195  0.3272  0.1288
44544SOL    HW140682   2.012  12.088  11.102 -0.4501 -0.2715 -0.1725
44544SOL    HW240683   2.136  12.141  11.034  0.6831 -0.3239  1.7604
44545SOL     OW40684   3.766   9.536  11.581  0.4387 -0.1949  0.5545
44545SOL    HW140685   3.672   9.533  11.566  0.3324 -0.1781  1.2161
44545SOL    HW240686   3.803   9.482  11.511 -0.1281 -1.0432  0.8930
44546SOL     OW40687   9.647   4.608  12.016  0.5181  0.0141  0.3021
44546SOL    HW140688   9.613   4.668  12.082 -0.8304  0.7476 -0.9760
44546SOL    HW240689   9.620   4.647  11.933  1.1021 -1.4934 -0.6366
44547SOL     OW40690   9.822   6.107   6.828  0.0952 -1.0847  0.0826
44547SOL    HW140691   9.792   6.064   6.909  0.5894  0.5838  1.2027
44547SOL    HW240692   9.856   6.191   6.857 -0.9692  0.1649 -2.0311
44548SOL     OW40693   9.954   6.971   7.932 -0.2271  0.2801  0.4615
44548SOL    HW140694   9.971   6.877   7.933  1.7186  0.6045  0.5748
44548SOL    HW240695   9.973   6.999   7.843 -1.0762  0.5306  0.3503
44549SOL     OW40696   7.308  12.075   5.854  0.2391 -0.3219  0.1698
44549SOL    HW140697   7.252  12.152   5.867 -0.4609 -0.7483 -0.3240
44549SOL    HW240698   7.386  12.095   5.906 -0.1168  0.5304  0.4065
44550SOL     OW40699  11.204  11.780   9.815  0.7239  0.1794 -0.7694
44550SOL    HW140700  11.293  11.772   9.780  0.5984  1.6533 -1.5239
44550SOL    HW240701  11.214  11.772   9.910  1.7563  0.8993 -0.8009
44551SOL     OW40702   9.067   1.030  10.575 -0.1969 -0.2281  0.1925
44551SOL    HW140703   9.056   1.071  10.661  1.6783 -1.3406  1.0432
44551SOL    HW240704   9.004   1.075  10.518  1.1817  3.3211  1.1849
44552SOL     OW40705   8.629  10.451   0.699  0.1426 -1.0844 -0.2899
44552SOL    HW140706   8.682  10.464   0.778 -1.1062 -2.0976  0.7766
44552SOL    HW240707   8.686  10.477   0.627  0.4501  2.4409  1.0664
44553SOL     OW40708   4.026  10.965   6.038  0.6012 -0.3329 -0.3236
44553SOL    HW140709   4.109  11.005   6.013  0.0380  0.4950 -0.9079
44553SOL    HW240710   3.969  10.978   5.963 -1.1394  2.1934  1.2680
44554SOL     OW40711   9.222   7.968   6.980 -0.1247  0.1252 -0.0009
44554SOL    HW140712   9.189   7.910   6.912 -1.3190 -0.0246  0.6684
44554SOL    HW240713   9.160   7.957   7.052 -0.0091  1.7566  0.3755
44555SOL     OW40714  10.693   3.714   8.563 -0.0444 -0.5106  0.6130
44555SOL    HW140715  10.708   3.634   8.612  1.3431 -0.4974  0.2555
44555SOL    HW240716  10.746   3.780   8.608 -1.7995  0.4416  1.4022
44556SOL     OW40717  12.584   0.029   1.957 -0.2793 -0.6178 -0.4980
44556SOL    HW140718  12.543  -0.038   1.903 -0.9757  0.0230 -0.7856
44556SOL    HW240719  12.665   0.051   1.911  0.6180 -2.1422  0.2548
44557SOL     OW40720  11.697   8.517   0.787 -0.5092  0.2209 -0.5581
44557SOL    HW140721  11.685   8.526   0.882 -0.6782  0.5450 -0.6079
44557SOL    HW240722  11.616   8.553   0.750 -0.3997  0.1905 -0.8276
44558SOL     OW40723  12.017   9.274   1.565  0.5993 -0.2362 -0.0889
44558SOL    HW140724  12.095   9.301   1.516  0.2688 -0.7867 -0.9564
44558SOL    HW240725  11.954   9.345   1.549  0.6373 -0.2063 -0.1072
44559SOL     OW40726   0.957   2.276  10.713  0.4537 -0.1258 -0.0746
44559SOL    HW140727   0.952   2.322  10.797  1.6004  0.8538 -0.5045
44559SOL    HW240728   0.917   2.336  10.651  0.4231 -0.4487 -0.3691
44560SOL     OW40729   4.991   2.787   3.600 -0.0959  0.3474  0.3264
44560SOL    HW140730   4.978   2.880   3.616  2.5841  0.5623  2.0875
44560SOL    HW240731   5.016   2.781   3.508  0.2608  1.4841  0.3344
44561SOL     OW40732   7.429   2.604   5.445  0.3351  0.8685 -0.2451
44561SOL    HW140733   7.396   2.553   5.518  0.1256  2.3333  0.7294
44561SOL    HW240734   7.354   2.614   5.386 -0.0746  1.4121  0.3587
44562SOL     OW40735  12.539   7.195   0.786 -0.1466 -0.3837  0.0892
44562SOL    HW140736  12.467   7.211   0.725  0.1704  1.4639  0.1409
44562SOL    HW240737  12.538   7.101   0.800 -1.1022 -0.6737 -1.6834
44563SOL     OW40738   7.840   8.304   3.579  0.2244  0.1919 -0.4950
44563SOL    HW140739   7.882   8.227   3.541 -1.5068 -1.5506  0.8700
44563SOL    HW240740   7.848   8.291   3.674 -1.6241  0.7567 -0.2177
44564SOL     OW40741   4.079  12.536   7.765 -0.2510  0.1140 -0.0075
44564SOL    HW140742   4.122  12.453   7.747 -1.0593 -0.2599 -0.2629
44564SOL    HW240743   4.138  12.602   7.728  1.2943 -0.1811  1.7819
44565SOL     OW40744   9.991   1.006  12.346 -0.2726  0.5693  0.0719
44565SOL    HW140745  10.057   1.029  12.281  0.2950 -1.5993 -0.2016
44565SOL    HW240746   9.909   1.041  12.310  0.2211  0.4260 -1.2448
44566SOL     OW40747   1.240   1.474   6.355  0.0133 -0.3098  0.3718
44566SOL    HW140748   1.321   1.428   6.334 -0.3552 -0.2615 -1.2853
44566SOL    HW240749   1.183   1.406   6.392  0.5821 -0.4636  1.0002
44567SOL     OW40750   0.816   3.218  12.578  0.0786 -0.5439  0.1406
44567SOL    HW140751   0.865   3.213  12.495 -0.1916 -0.4743 -0.0251
44567SOL    HW240752   0.816   3.311  12.600  1.0309 -0.6784  0.7572
44568SOL     OW40753  11.594   6.060   2.283 -0.8780  0.4019 -0.3828
44568SOL    HW140754  11.528   6.014   2.232  1.7873 -3.0469 -1.1066
44568SOL    HW240755  11.580   6.032   2.373 -0.1034 -0.7947 -0.6210
44569SOL     OW40756   2.252  11.699   8.841 -0.0118  0.1891 -0.4227
44569SOL    HW140757   2.321  11.764   8.827  1.5555 -0.4308  3.1788
44569SOL    HW240758   2.268  11.631   8.776  0.5223  1.6926 -1.9247
44570SOL     OW40759   1.895   1.671  10.348 -0.4971 -0.9695 -0.0275
44570SOL    HW140760   1.856   1.590  10.380 -0.9159 -0.7468  0.0249
44570SOL    HW240761   1.890   1.664  10.253  0.0018 -1.2623 -0.0392
44571SOL     OW40762   2.934   0.027   8.499  0.3566  0.5502 -0.1367
44571SOL    HW140763   2.873  -0.016   8.440  0.4865 -0.2157  0.2836
44571SOL    HW240764   3.006  -0.035   8.510  0.1950  0.5432  1.0533
44572SOL     OW40765   5.923   1.510   8.586 -0.2165  0.3235 -0.5863
44572SOL    HW140766   5.870   1.431   8.582 -0.1192  0.2241  0.0023
44572SOL    HW240767   5.864   1.580   8.558 -0.4688  0.1261 -0.5489
44573SOL     OW40768   4.770  10.065   2.677  0.6411  0.1332 -0.6036
44573SOL    HW140769   4.713  10.141   2.661  1.4762  0.9687  0.2559
44573SOL    HW240770   4.853  10.088   2.636  1.8538  1.0161  2.0955
44574SOL     OW40771  11.925   6.012  12.052  0.4498  0.2617 -0.0460
44574SOL    HW140772  11.986   5.954  12.008 -2.1404 -0.8042 -2.5415
44574SOL    HW240773  11.891   5.960  12.125 -1.5596 -1.3827 -2.0320
44575SOL     OW40774   4.662   2.589   4.216 -0.7275  0.1809  0.3367
44575SOL    HW140775   4.657   2.529   4.291  1.0422 -1.6639 -0.9027
44575SOL    HW240776   4.626   2.671   4.249  0.0330 -0.5154  3.2178
44576SOL     OW40777   5.235   0.254   0.423 -0.5965  0.4005  0.2503
44576SOL    HW140778   5.182   0.331   0.404 -1.3836 -0.4663 -1.2794
44576SOL    HW240779   5.179   0.180   0.397  0.7734 -0.6068  0.0779
44577SOL     OW40780  12.437   4.589   3.573 -0.9199  0.6778 -0.3567
44577SOL    HW140781  12.356   4.538   3.578 -0.1780 -0.8481 -2.4805
44577SOL    HW240782  12.417   4.660   3.512 -0.3953 -0.3379 -1.7537
44578SOL     OW40783   1.186   1.577   8.987 -0.3527  0.2898 -0.1760
44578SOL    HW140784   1.240   1.501   8.965  0.8801  0.2746  2.4867
44578SOL    HW240785   1.107   1.539   9.026 -1.5419  0.3625 -2.3620
44579SOL     OW40786   1.831   5.963   1.469 -0.3217 -0.2229  0.4152
44579SOL    HW140787   1.886   5.992   1.397 -3.0684  0.0911 -1.7012
44579SOL    HW240788   1.877   5.993   1.548  2.1441  0.5383 -1.2145
44580SOL     OW40789   5.332  10.349  11.433  0.6634 -0.2472  0.3211
44580SOL    HW140790   5.357  10.438  11.457 -2.0941  0.3782  1.2036
44580SOL    HW240791   5.319  10.304  11.517 -2.3290 -0.0832  0.0409
44581SOL     OW40792   3.430   1.620   0.482 -0.1137 -0.1261 -0.1532
44581SOL    HW140793   3.498   1.566   0.522  1.5302  0.6669 -1.7000
44581SOL    HW240794   3.397   1.674   0.554  2.6436  1.1860  0.2818
44582SOL     OW40795   8.183   2.492   4.645  0.4469 -0.3462  0.2498
44582SOL    HW140796   8.163   2.426   4.711  1.9474  0.5513  1.6493
44582SOL    HW240797   8.172   2.576   4.689 -0.0950  0.3479 -1.1198
44583SOL     OW40798   8.521   3.393   5.518 -0.1915 -0.2286 -0.4240
44583SOL    HW140799   8.472   3.454   5.464 -1.2342  0.2171  0.9615
44583SOL    HW240800   8.560   3.331   5.456 -2.3393 -0.4924 -1.6168
44584SOL     OW40801  10.900   2.667   7.000 -0.1204  0.3911  0.0630
44584SOL    HW140802  10.884   2.737   6.938  1.0007 -0.4633 -1.2369
44584SOL    HW240803  10.993   2.648   6.993 -0.2489 -0.7302  0.9161
44585SOL     OW40804   4.041   4.473   7.842 -0.6353 -0.1556  0.8575
44585SOL    HW140805   4.010   4.399   7.791 -1.6066 -0.2905  1.6116
44585SOL    HW240806   4.038   4.547   7.782 -1.1928 -0.4277  0.5414
44586SOL     OW40807   0.796   4.143  11.168 -0.1805  0.2217 -0.2740
44586SOL    HW140808   0.779   4.055  11.201  1.7990  0.7235  2.4473
44586SOL    HW240809   0.885   4.138  11.131 -0.4997  0.8417 -1.1671
44587SOL     OW40810  12.266   9.444  10.433  0.3585 -0.1700 -0.0358
44587SOL    HW140811  12.218   9.404  10.506 -1.9286  0.8315 -0.8877
44587SOL    HW240812  12.358   9.434  10.457 -0.1378 -3.5562  1.0065
44588SOL     OW40813  11.030  10.197   5.203  0.5189  0.4498 -0.2606
44588SOL    HW140814  10.937  10.207   5.182  0.1932  0.2969  1.0521
44588SOL    HW240815  11.047  10.263   5.270  1.1580 -0.0731  0.1008
44589SOL     OW40816   3.146  11.152   2.029  0.1851 -0.4343 -0.2898
44589SOL    HW140817   3.198  11.072   2.020  2.7669  1.1382 -0.5314
44589SOL    HW240818   3.193  11.203   2.095 -0.7832  1.3111 -0.8949
44590SOL     OW40819   6.186  10.192  10.636 -0.4802  0.0059  0.2354
44590SOL    HW140820   6.252  10.123  10.647 -0.6116 -0.0043  1.0050
44590SOL    HW240821   6.198  10.222  10.546  0.6596  0.0901  0.3959
44591SOL     OW40822   5.778   3.654   5.011  0.1530 -0.5731  0.1160
44591SOL    HW140823   5.733   3.584   5.059 -0.2682 -0.5411 -0.2235
44591SOL    HW240824   5.709   3.718   4.993 -0.0466 -1.3051 -1.8904
44592SOL     OW40825   4.959   2.635   1.988  0.1057 -0.3981  0.1043
44592SOL    HW140826   4.899   2.578   1.941  1.1005 -2.0955  0.8311
44592SOL    HW240827   4.977   2.706   1.926 -2.2701 -0.0361 -0.2896
44593SOL     OW40828   0.609   5.663  11.984  0.0300  0.2501  0.2097
44593SOL    HW140829   0.618   5.596  12.052  1.1520 -0.5773 -0.7141
44593SOL    HW240830   0.585   5.614  11.906 -0.3036  1.0799 -0.2185
44594SOL     OW40831   0.684   1.742   4.777  0.0069 -0.2539 -0.4284
44594SOL    HW140832   0.605   1.724   4.829  0.0503 -1.2362 -0.6710
44594SOL    HW240833   0.652   1.792   4.702 -0.3601 -0.4560 -0.4123
44595SOL     OW40834  10.663   8.264   7.239 -0.4283  0.2331 -0.3116
44595SOL    HW140835  10.572   8.291   7.243 -0.4807 -0.0566  1.2728
44595SOL    HW240836  10.712   8.344   7.223 -0.8985  0.5505 -0.1574
44596SOL     OW40837  10.892   0.380   6.847  0.1632  0.1352  0.4712
44596SOL    HW140838  10.842   0.301   6.867  2.2507 -0.6250  3.1688
44596SOL    HW240839  10.936   0.360   6.764 -0.3577 -1.0002  0.4474
44597SOL     OW40840   3.295   2.451   4.215 -0.4661 -0.5293 -0.3115
44597SOL    HW140841   3.318   2.540   4.187 -2.7485 -0.2347 -1.4806
44597SOL    HW240842   3.371   2.422   4.265 -0.6218  3.0439  2.4209
44598SOL     OW40843   0.669   2.067  11.674  0.2542 -0.2921  0.0080
44598SOL    HW140844   0.583   2.104  11.651 -0.4998 -1.4165  0.9186
44598SOL    HW240845   0.687   2.003  11.605  0.6369  0.3382 -0.4869
44599SOL     OW40846   6.997   4.348  11.474 -0.3071 -0.8138  0.4772
44599SOL    HW140847   7.047   4.339  11.555 -0.6712 -2.5885  0.5252
44599SOL    HW240848   7.014   4.268  11.426 -0.1609  0.1759 -1.2027
44600SOL     OW40849   6.315   0.918   2.801 -0.5361 -0.0692 -0.1130
44600SOL    HW140850   6.262   0.980   2.751 -0.2214  0.1839 -0.1345
44600SOL    HW240851   6.299   0.834   2.758 -1.0623 -0.0259 -0.0036
44601SOL     OW40852   7.572   5.570  12.339 -0.4462 -0.3674 -0.9721
44601SOL    HW140853   7.486   5.564  12.381 -0.0711 -1.3029 -0.3049
44601SOL    HW240854   7.559   5.533  12.252 -1.7300  3.4392 -2.6125
44602SOL     OW40855   7.270  10.708   0.473 -0.4025  0.2224 -0.1688
44602SOL    HW140856   7.226  10.755   0.543  1.5092  0.0394  1.2492
44602SOL    HW240857   7.326  10.774   0.431  1.5049 -0.4552  1.1589
44603SOL     OW40858   0.090   0.784   7.626  0.2922  0.2620  0.6186
44603SOL    HW140859   0.137   0.822   7.700 -0.2246  0.5392  0.8102
44603SOL    HW240860   0.092   0.690   7.641  1.2919  0.2290  0.3186
44604SOL     OW40861  11.829   3.267   1.460  0.4177 -0.0124 -0.0202
44604SOL    HW140862  11.846   3.200   1.393  0.8835  0.0139  0.0681
44604SOL    HW240863  11.914   3.280   1.503 -0.0332 -0.5454  1.0613
44605SOL     OW40864   6.470   9.296   8.843 -0.5130  0.1422 -0.4303
44605SOL    HW140865   6.539   9.268   8.783 -1.4039 -1.4677 -0.7640
44605SOL    HW240866   6.470   9.391   8.838  2.9461  0.3833  1.0024
44606SOL     OW40867  11.538   1.210   8.407  0.6648 -0.1641  0.4252
44606SOL    HW140868  11.633   1.216   8.403  0.5952  1.0554  0.1986
44606SOL    HW240869  11.510   1.293   8.446 -0.3054 -0.5394  0.5655
44607SOL     OW40870   3.125   5.983   2.823  0.3393 -0.0920  0.2209
44607SOL    HW140871   3.056   6.049   2.827  1.8670  1.5696  0.3335
44607SOL    HW240872   3.082   5.906   2.786 -1.4475  1.0357 -0.1666
44608SOL     OW40873   3.251   3.761  11.807  0.2222 -0.4627 -0.1944
44608SOL    HW140874   3.210   3.786  11.890 -1.0909 -1.2361 -0.5953
44608SOL    HW240875   3.288   3.842  11.774 -3.1308  0.9045 -1.0092
44609SOL     OW40876   6.259   8.709  10.149  0.1651 -0.2671  0.2552
44609SOL    HW140877   6.245   8.616  10.167  0.2694 -0.7967 -2.0762
44609SOL    HW240878   6.277   8.713  10.055 -0.3824  2.1817  0.1849
44610SOL     OW40879   0.001   2.177   2.222 -0.4929 -0.7015  0.4310
44610SOL    HW140880  -0.085   2.190   2.262  0.1087 -0.3197  1.6413
44610SOL    HW240881   0.062   2.225   2.279  0.7194 -2.1345  0.4092
44611SOL     OW40882   7.959   3.501  11.755 -0.1037 -0.7607 -0.5218
44611SOL    HW140883   7.945   3.423  11.701 -2.2315 -0.7956 -0.0198
44611SOL    HW240884   7.887   3.499  11.819 -0.2563  1.6169 -0.5249
44612SOL     OW40885   5.737   4.780   1.571  0.0649  0.3959  0.0391
44612SOL    HW140886   5.667   4.717   1.556 -1.9317  2.2285  1.1457
44612SOL    HW240887   5.750   4.823   1.486  0.0992 -0.1635 -0.2445
44613SOL     OW40888  11.807   9.320   8.412  0.0615  0.4449 -0.6247
44613SOL    HW140889  11.790   9.256   8.344  0.7220 -0.5223  0.0890
44613SOL    HW240890  11.882   9.371   8.381 -0.5370  0.9626 -1.2434
44614SOL     OW40891   1.348   9.357   2.765  0.3715 -0.9594  0.0479
44614SOL    HW140892   1.319   9.342   2.855 -0.5670 -1.6398 -0.3477
44614SOL    HW240893   1.392   9.442   2.768 -2.1197  0.4107  0.6155
44615SOL     OW40894   7.233  10.895   8.025 -0.3597  0.0896  0.2163
44615SOL    HW140895   7.177  10.872   8.099  2.4471  0.0085  2.4949
44615SOL    HW240896   7.243  10.813   7.977 -1.0913 -0.2098  0.5627
44616SOL     OW40897  10.881   8.786   9.260  0.2087  0.2983  0.5041
44616SOL    HW140898  10.953   8.730   9.287 -0.8908 -1.4457 -0.0481
44616SOL    HW240899  10.896   8.868   9.306  2.8333  0.2021 -0.0129
44617SOL     OW40900   2.243   9.081  10.156  0.1127 -0.0914  0.7873
44617SOL    HW140901   2.323   9.039  10.188 -1.2711 -1.3862  2.7789
44617SOL    HW240902   2.220   9.144  10.224 -0.5106  0.3611  0.1722
44618SOL     OW40903   3.017   4.947  11.578 -0.0285 -0.6020  0.1117
44618SOL    HW140904   3.015   4.852  11.588  1.1332 -0.7023 -0.4961
44618SOL    HW240905   2.988   4.962  11.488  0.1655 -0.4034  0.0810
44619SOL     OW40906  12.343   9.435   3.825  0.0599 -0.5133 -0.8594
44619SOL    HW140907  12.384   9.521   3.820  0.3708 -0.6938 -1.4672
44619SOL    HW240908  12.324   9.423   3.918  0.3170  0.0679 -0.7275
44620SOL     OW40909   7.096   0.441   0.510  0.3713  0.2361 -0.3577
44620SOL    HW140910   7.142   0.369   0.467 -1.7250 -1.1105 -0.4783
44620SOL    HW240911   7.065   0.496   0.439  0.0099 -0.0079 -0.3911
44621SOL     OW40912   0.480   0.101   0.520  0.3417  0.3914 -1.0083
44621SOL    HW140913   0.476   0.153   0.601  0.3648 -0.8545 -0.1878
44621SOL    HW240914   0.479   0.010   0.549  3.4026 -0.1504 -2.2460
44622SOL     OW40915   5.170  11.294   7.497 -0.7301 -0.0679 -0.0038
44622SOL    HW140916   5.144  11.344   7.575 -0.6021 -0.7511  0.4864
44622SOL    HW240917   5.087  11.260   7.462 -0.7038 -0.5053  0.3529
44623SOL     OW40918   3.785   2.643   1.761 -0.1674 -0.3482 -0.0172
44623SOL    HW140919   3.721   2.706   1.728 -0.7524 -1.1477 -0.4479
44623SOL    HW240920   3.815   2.680   1.844 -1.5549 -0.1819  0.4369
44624SOL     OW40921  10.231   8.761  12.023  0.5498 -0.0074 -0.4152
44624SOL    HW140922  10.292   8.815  11.972  0.3415 -0.1693 -0.8422
44624SOL    HW240923  10.217   8.683  11.969 -1.3346  0.7677 -1.0983
44625SOL     OW40924  11.702   9.012   9.412  0.7462 -0.2442 -0.3435
44625SOL    HW140925  11.744   9.055   9.337  0.6671 -2.3337 -1.6831
44625SOL    HW240926  11.767   8.949   9.443  0.8009  0.6292  1.4526
44626SOL     OW40927   3.798   7.665   2.107  0.1402 -0.1143  0.2841
44626SOL    HW140928   3.853   7.632   2.036 -0.9325 -0.8937 -0.2053
44626SOL    HW240929   3.731   7.718   2.063  1.2219  1.9441  0.9741
44627SOL     OW40930  12.220   5.061   5.666 -0.5944  1.2359 -0.4053
44627SOL    HW140931  12.219   5.098   5.578 -1.5218 -0.2063 -1.0414
44627SOL    HW240932  12.218   4.966   5.652 -0.4473  0.9769  1.1704
44628SOL     OW40933  10.474   3.699  11.269 -0.2754 -0.6098  0.4286
44628SOL    HW140934  10.441   3.743  11.347  1.2568  0.8081  0.3209
44628SOL    HW240935  10.396   3.663  11.227 -1.4395  0.8920  1.2180
44629SOL     OW40936   6.425   5.925   1.095 -0.0501  0.1194 -0.1462
44629SOL    HW140937   6.460   6.013   1.106 -0.0055 -0.0758  1.3868
44629SOL    HW240938   6.427   5.886   1.182 -0.4172 -1.2785 -0.7224
44630SOL     OW40939   1.311  10.094   8.802  0.1350  0.2054  0.2509
44630SOL    HW140940   1.357  10.133   8.727 -1.4939 -0.8778 -1.4181
44630SOL    HW240941   1.378  10.041   8.846  0.8845 -0.0197 -1.0981
44631SOL     OW40942  10.841  11.025   4.913 -0.8295  0.5433 -0.2024
44631SOL    HW140943  10.926  10.987   4.891  0.0990  2.3428  0.1233
44631SOL    HW240944  10.794  11.031   4.829  0.5880  2.3573 -0.9378
44632SOL     OW40945   4.090   0.171   5.154 -0.0871  0.0014  0.0189
44632SOL    HW140946   4.131   0.257   5.145 -1.5406  0.5838 -1.4862
44632SOL    HW240947   4.081   0.139   5.064 -0.0336 -1.5283  0.5207
44633SOL     OW40948   9.333   6.067  11.643 -0.4189 -0.0777 -0.3820
44633SOL    HW140949   9.328   6.163  11.642  0.5250 -0.0221 -0.3621
44633SOL    HW240950   9.423   6.048  11.669 -1.3569 -0.9956  2.5577
44634SOL     OW40951  10.925   5.704   2.993 -0.5361 -0.0970 -0.3281
44634SOL    HW140952  10.979   5.682   2.917  2.2191 -0.4639  1.5558
44634SOL    HW240953  10.941   5.798   3.007  1.4191 -0.5956  1.3961
44635SOL     OW40954   2.663   6.222   5.858 -0.3628 -0.8759  0.1593
44635SOL    HW140955   2.647   6.315   5.873 -0.3862 -0.8389 -0.1028
44635SOL    HW240956   2.590   6.194   5.803  1.1823 -0.3890 -2.2760
44636SOL     OW40957  11.510   6.470  10.074  0.0474  0.0212  0.2949
44636SOL    HW140958  11.533   6.378  10.062  1.1206  0.0450  1.8016
44636SOL    HW240959  11.420   6.477  10.041 -0.1575 -1.6371  0.4069
44637SOL     OW40960   0.280   7.706   8.038  0.5258  0.0608  0.3047
44637SOL    HW140961   0.245   7.670   8.120 -0.2833  0.9343  0.3543
44637SOL    HW240962   0.245   7.649   7.970 -0.6108  0.6341  0.3940
44638SOL     OW40963   6.094   6.369  11.743  0.3453 -0.0715 -0.3682
44638SOL    HW140964   6.095   6.408  11.830  0.0703 -0.6267 -0.1065
44638SOL    HW240965   6.077   6.442  11.684  1.3457  0.4432 -0.0407
44639SOL     OW40966   0.966   7.884   3.783 -0.4877  0.2148  0.0312
44639SOL    HW140967   0.943   7.792   3.796 -0.2497  0.0271 -0.8163
44639SOL    HW240968   0.891   7.933   3.816 -0.6331 -0.2867  0.4476
44640SOL     OW40969   7.798   6.491   8.789 -0.0719 -0.0752  0.3580
44640SOL    HW140970   7.716   6.476   8.741 -0.0396  0.3464  0.1741
44640SOL    HW240971   7.858   6.424   8.755 -0.0813  0.1558 -0.1164
44641SOL     OW40972   8.987   5.614   9.004  0.9011  0.3788  0.0256
44641SOL    HW140973   9.046   5.564   8.948  2.1186 -0.5818  2.0368
44641SOL    HW240974   8.990   5.703   8.969  1.4405 -0.2161 -1.5229
44642SOL     OW40975   2.524   1.251   3.574 -0.4349 -0.2999 -0.0154
44642SOL    HW140976   2.474   1.234   3.654 -1.2509  0.4234 -0.3548
44642SOL    HW240977   2.550   1.343   3.582  2.3037 -1.0813  0.9357
44643SOL     OW40978   0.041  12.185   5.234 -0.4523  0.2497 -0.1338
44643SOL    HW140979   0.070  12.263   5.186 -2.0981  1.1604  0.2816
44643SOL    HW240980   0.027  12.216   5.323 -1.7444 -0.3332 -0.1080
44644SOL     OW40981   6.770   5.866   8.531  0.1156 -0.7744 -0.4021
44644SOL    HW140982   6.857   5.885   8.565 -0.4424  0.6690  0.2873
44644SOL    HW240983   6.770   5.904   8.443 -0.8781  2.3652  0.8413
44645SOL     OW40984   7.296   1.365   5.424  0.6908 -0.2707 -0.1071
44645SOL    HW140985   7.226   1.383   5.362  0.2212  0.9184  0.7427
44645SOL    HW240986   7.258   1.301   5.485  1.7316 -2.8607 -2.0037
44646SOL     OW40987   1.671   3.099  11.984  0.0516 -0.4382 -0.3097
44646SOL    HW140988   1.748   3.054  11.947  0.4157 -0.1972  0.1511
44646SOL    HW240989   1.604   3.090  11.916  1.1139  1.1961 -1.6736
44647SOL     OW40990   6.936   0.674  10.424 -0.0187 -0.3930  0.5879
44647SOL    HW140991   6.855   0.680  10.373 -0.1057  3.3906  0.9128
44647SOL    HW240992   6.998   0.631  10.366 -1.2609  0.0469 -1.1320
44648SOL     OW40993   2.843   4.865   8.801  0.6619  0.1979  0.0667
44648SOL    HW140994   2.898   4.823   8.866  1.7181  2.6157  0.8609
44648SOL    HW240995   2.875   4.955   8.797 -1.1453  0.8449 -1.8375
44649SOL     OW40996   2.276  12.431   3.169  0.2770  0.6112  0.6470
44649SOL    HW140997   2.257  12.489   3.095 -0.5201  0.8768  1.0485
44649SOL    HW240998   2.202  12.371   3.172  0.1201  0.8336  1.4517
44650SOL     OW40999   5.718   4.546  12.177  0.0664 -0.5796  0.3903
44650SOL    HW141000   5.684   4.600  12.106  0.6932 -2.1954 -1.2431
44650SOL    HW241001   5.727   4.605  12.252 -0.1088  1.3170 -1.0323
44651SOL     OW41002   1.472  12.018   3.846  0.0964 -0.3148 -0.0546
44651SOL    HW141003   1.437  11.970   3.921 -0.0767  2.3995  1.7180
44651SOL    HW241004   1.411  12.091   3.833  1.7426  0.9856 -0.9147
44652SOL     OW41005  11.866   8.531  12.334 -0.5857  0.4120  0.4751
44652SOL    HW141006  11.925   8.522  12.259  0.3326 -0.7754  1.2910
44652SOL    HW241007  11.786   8.568  12.298 -0.2488 -0.3448 -1.1341
44653SOL     OW41008  11.174   4.327  10.442  0.3402 -0.2993  0.0547
44653SOL    HW141009  11.254   4.277  10.455  0.5707  0.4312  1.5556
44653SOL    HW241010  11.204   4.415  10.423 -0.0884  0.1373  1.3149
44654SOL     OW41011  10.512   3.592   2.059 -0.1417  0.0897  0.5934
44654SOL    HW141012  10.427   3.636   2.050 -0.9842 -1.3983  0.9877
44654SOL    HW241013  10.492   3.499   2.053  1.8272 -0.2968 -2.3460
44655SOL     OW41014   3.216   5.170   2.081  0.1567  0.0431  0.5231
44655SOL    HW141015   3.222   5.214   2.166 -1.2456 -0.8495  1.1090
44655SOL    HW241016   3.140   5.210   2.039 -0.4662 -1.0185  0.6050
44656SOL     OW41017  11.766   0.891  11.742  0.3368  0.2981 -0.0373
44656SOL    HW141018  11.704   0.818  11.738 -0.1884  0.7318  0.1288
44656SOL    HW241019  11.763   0.930  11.654  0.0468  0.5859  0.0987
44657SOL     OW41020   8.265   0.469  10.358 -0.3804 -0.3851  0.5583
44657SOL    HW141021   8.328   0.524  10.311 -1.3255 -0.1171 -0.4424
44657SOL    HW241022   8.307   0.450  10.442  1.0690 -0.3009 -0.1234
44658SOL     OW41023   3.659   9.232   6.257 -0.0831  0.5274  0.5546
44658SOL    HW141024   3.567   9.222   6.231 -0.0705  1.9545 -0.0973
44658SOL    HW241025   3.706   9.244   6.175  0.6914 -0.0664  0.8974
44659SOL     OW41026   8.897   5.145   5.672 -0.0223 -0.4459  0.3561
44659SOL    HW141027   8.977   5.183   5.636 -0.0786 -0.7850 -0.1313
44659SOL    HW241028   8.830   5.159   5.605 -0.5987  0.6164  1.1160
44660SOL     OW41029   7.952   8.092   3.457 -0.3442 -0.0948 -0.1597
44660SOL    HW141030   7.970   8.041   3.378  1.1367 -0.2846  0.2734
44660SOL    HW241031   7.944   8.027   3.527 -0.5015  0.1459  0.0488
44661SOL     OW41032   4.841   0.018   1.302 -0.5942  0.7579 -0.5061
44661SOL    HW141033   4.893   0.094   1.276 -0.1643  1.6148  2.5085
44661SOL    HW241034   4.898  -0.057   1.285  1.3118  1.5982  1.6868
44662SOL     OW41035   5.414   6.203   7.800 -0.3237 -0.9266  0.2097
44662SOL    HW141036   5.414   6.291   7.837  0.9627 -0.2444 -1.3016
44662SOL    HW241037   5.322   6.187   7.777 -0.4148  0.4693 -0.4831
44663SOL     OW41038  11.753   2.875   8.716  0.0512 -0.3594 -0.9344
44663SOL    HW141039  11.721   2.928   8.643 -0.4297 -1.2862 -1.4165
44663SOL    HW241040  11.846   2.861   8.697  0.4979  1.3065 -0.1678
44664SOL     OW41041  12.239   0.975   1.765  0.2616 -0.3743 -0.2522
44664SOL    HW141042  12.227   0.959   1.859  0.5099 -0.4070 -0.2267
44664SOL    HW241043  12.184   0.908   1.723 -1.2087  0.7009 -0.1302
44665SOL     OW41044   2.607  11.763   6.681  0.4072  0.4484 -0.2541
44665SOL    HW141045   2.512  11.757   6.695  0.4705  2.6416  1.6200
44665SOL    HW241046   2.638  11.818   6.752  3.1568 -0.3219 -0.7590
44666SOL     OW41047   8.696   3.939   5.786  0.1872  0.4361 -0.2771
44666SOL    HW141048   8.789   3.929   5.767  0.3911 -1.9558  1.5806
44666SOL    HW241049   8.694   3.987   5.869 -0.3126  1.2631 -0.7474
44667SOL     OW41050  10.685   9.834   3.990  0.0214 -0.3213 -0.4072
44667SOL    HW141051  10.720   9.818   4.078 -0.7050  0.1613 -0.0124
44667SOL    HW241052  10.625   9.908   4.002 -0.7569 -0.8202 -1.1353
44668SOL     OW41053   1.236  10.156   0.135 -0.6421  0.0669 -0.5364
44668SOL    HW141054   1.274  10.233   0.093 -3.1216  0.8460 -1.4933
44668SOL    HW241055   1.190  10.110   0.065 -0.4014 -1.5625  0.3075
44669SOL     OW41056   6.980   2.663   8.869  0.0937 -0.2787 -0.5149
44669SOL    HW141057   7.031   2.585   8.891  0.1297 -0.0760  0.1267
44669SOL    HW241058   7.046   2.730   8.848  0.0610 -0.4878 -1.3480
44670SOL     OW41059   4.827   0.460   0.172 -0.0707  0.4347 -0.4334
44670SOL    HW141060   4.896   0.393   0.177  0.1805  0.4940 -2.3800
44670SOL    HW241061   4.789   0.461   0.260  1.8848 -0.1587  0.4900
44671SOL     OW41062   9.632   4.898   6.976 -0.3170  0.1313 -0.1439
44671SOL    HW141063   9.560   4.949   7.014 -0.9622  0.7126 -2.0187
44671SOL    HW241064   9.610   4.807   6.995 -0.7939  0.3832  0.5491
44672SOL     OW41065  12.146  11.753   3.315 -0.0092  0.3918  0.1602
44672SOL    HW141066  12.080  11.699   3.360  0.8128 -0.9182 -0.1704
44672SOL    HW241067  12.140  11.839   3.359 -1.1504 -0.0283  0.8785
44673SOL     OW41068  11.124  10.055   1.309 -0.0537 -0.7253  0.2913
44673SOL    HW141069  11.083   9.994   1.370 -2.3333 -0.2054 -0.6425
44673SOL    HW241070  11.151  10.129   1.364  0.4960 -1.4633  1.0469
44674SOL     OW41071   2.140   1.602   6.043  0.1507 -0.1064 -0.1533
44674SOL    HW141072   2.128   1.553   5.961  1.1202 -0.8092  0.0982
44674SOL    HW241073   2.137   1.535   6.111  1.4028  0.1763  0.2094
44675SOL     OW41074   7.212  10.524   8.783 -0.3364 -0.3019  0.4109
44675SOL    HW141075   7.252  10.583   8.719 -0.0249  1.0807  1.8278
44675SOL    HW241076   7.165  10.459   8.730 -0.5038  1.0800 -1.2026
44676SOL     OW41077   8.851   1.103   7.350 -0.2655  0.3911 -0.1977
44676SOL    HW141078   8.788   1.037   7.323  0.7010 -0.8023  0.3303
44676SOL    HW241079   8.864   1.158   7.273 -1.1243 -0.0057 -0.6326
44677SOL     OW41080   8.128   3.189   6.616  0.4824  0.5013  0.0498
44677SOL    HW141081   8.091   3.150   6.695  0.1278  0.1426 -0.2863
44677SOL    HW241082   8.084   3.143   6.544  0.6984  0.9183 -0.3538
44678SOL     OW41083   8.208   1.440  12.509 -1.1429  0.0452 -0.0897
44678SOL    HW141084   8.275   1.372  12.521 -1.7936 -0.2473  2.6232
44678SOL    HW241085   8.151   1.406  12.441 -0.4491 -1.3304 -0.0177
44679SOL     OW41086   7.559   6.385   5.413  0.6003  0.0104 -0.4698
44679SOL    HW141087   7.609   6.420   5.488  0.6539 -1.9774  0.4894
44679SOL    HW241088   7.626   6.364   5.348  0.8590 -0.9880  0.1055
44680SOL     OW41089   0.084   8.445   4.215 -0.3271  0.1300 -0.6402
44680SOL    HW141090   0.126   8.467   4.132 -0.0787  0.0380 -0.5426
44680SOL    HW241091   0.096   8.350   4.224 -0.2362  0.1588 -0.4380
44681SOL     OW41092   2.700  11.553   4.343  0.7006  0.2338 -0.2593
44681SOL    HW141093   2.786  11.568   4.383  0.8321  1.2971 -0.8804
44681SOL    HW241094   2.642  11.535   4.416  1.1855  0.8770  0.2948
44682SOL     OW41095   8.020  10.660   2.445 -0.3913 -0.1642  0.1175
44682SOL    HW141096   8.019  10.639   2.538  0.9312  0.0815  0.2042
44682SOL    HW241097   7.963  10.594   2.405 -1.5111  0.1259  1.1569
44683SOL     OW41098   9.543   0.847   7.636  0.4823 -0.1529 -0.4489
44683SOL    HW141099   9.488   0.871   7.711 -0.2344 -0.0824 -0.9834
44683SOL    HW241100   9.625   0.816   7.675 -0.5606 -1.9533  0.4454
44684SOL     OW41101   7.366   8.281   9.081 -0.0266  0.3061  0.5926
44684SOL    HW141102   7.459   8.263   9.071  0.1549  0.1130  2.3415
44684SOL    HW241103   7.352   8.284   9.175 -1.8518  0.0493  0.3705
44685SOL     OW41104   9.074   2.627   1.584 -0.0700  0.3896 -0.3888
44685SOL    HW141105   9.002   2.565   1.577 -0.0975  0.3316  0.3187
44685SOL    HW241106   9.091   2.633   1.678 -0.0025  1.3804 -0.4543
44686SOL     OW41107   7.353   5.362   5.637  0.2592  0.6066  0.1729
44686SOL    HW141108   7.394   5.304   5.701 -0.8315  0.1787  0.5106
44686SOL    HW241109   7.266   5.326   5.624  1.0911 -0.5227 -3.1640
44687SOL     OW41110   2.750   1.285   6.835  0.9786 -0.2399 -0.2891
44687SOL    HW141111   2.730   1.231   6.758  0.9182  0.5255 -0.8151
44687SOL    HW241112   2.844   1.300   6.829  0.8521  0.4740 -0.6596
44688SOL     OW41113   0.609   6.180   6.422 -0.1183  0.1564  0.7076
44688SOL    HW141114   0.646   6.252   6.371 -0.2396 -0.8547 -0.8937
44688SOL    HW241115   0.672   6.165   6.492  0.1790  1.4434  0.7332
44689SOL     OW41116   9.097   1.764  10.394  0.0328  0.4395 -0.5356
44689SOL    HW141117   9.093   1.706  10.318 -0.6931  0.1417 -0.2891
44689SOL    HW241118   9.005   1.787  10.411 -0.0045 -0.7219  1.1381
44690SOL     OW41119  10.703  11.068  11.830 -0.2777 -0.6403  0.0070
44690SOL    HW141120  10.717  11.137  11.895  0.3121 -0.4530 -0.3084
44690SOL    HW241121  10.638  11.010  11.869  0.5991 -0.9304  1.0709
44691SOL     OW41122   5.167  10.938  11.562  0.4319  0.1949 -0.4901
44691SOL    HW141123   5.197  11.016  11.515  1.3761 -0.2506 -0.6610
44691SOL    HW241124   5.247  10.887  11.578  0.2123  0.4951  1.9426
44692SOL     OW41125   7.326   9.922   0.353 -0.0861 -0.5540 -0.6290
44692SOL    HW141126   7.259   9.965   0.408  0.2345 -0.3969 -0.3531
44692SOL    HW241127   7.352   9.990   0.291  0.3923 -0.3514 -0.2182
44693SOL     OW41128   1.369   2.866  10.470 -0.0131  0.3321  0.2203
44693SOL    HW141129   1.464   2.866  10.479 -0.1286 -0.8459  2.3086
44693SOL    HW241130   1.343   2.957  10.485  0.7689  0.6668 -0.3993
44694SOL     OW41131  11.228   9.032   4.707 -0.3747 -0.5107  0.6341
44694SOL    HW141132  11.260   9.080   4.631 -1.7836  0.3935  0.5711
44694SOL    HW241133  11.189   8.953   4.671 -2.1554  0.5004  0.2465
44695SOL     OW41134   7.279   7.547   3.225 -0.1037 -0.1766 -0.4048
44695SOL    HW141135   7.196   7.592   3.209 -0.0478 -0.2788 -1.0024
44695SOL    HW241136   7.272   7.514   3.315 -0.5819  0.0758 -0.3457
44696SOL     OW41137   3.321  11.295   9.470 -0.1720  0.3759  0.0252
44696SOL    HW141138   3.367  11.253   9.543  1.4798  1.4004 -0.3768
44696SOL    HW241139   3.292  11.379   9.506  0.9004  1.0088 -0.5439
44697SOL     OW41140  10.132  12.593   6.537  0.1399 -0.1995  0.6893
44697SOL    HW141141  10.100  12.659   6.475  0.5498 -0.9356 -0.3287
44697SOL    HW241142  10.079  12.607   6.616 -0.1577  0.9812  0.3047
44698SOL     OW41143   6.497   7.267   8.431  0.3785 -0.7267  0.3040
44698SOL    HW141144   6.439   7.314   8.490  0.6199 -2.4753  2.0235
44698SOL    HW241145   6.571   7.327   8.416 -0.0125  0.0008  1.2257
44699SOL     OW41146   5.586   7.350   4.813  0.0240  0.1731 -0.2379
44699SOL    HW141147   5.602   7.427   4.759  0.1133 -0.9539 -1.9090
44699SOL    HW241148   5.669   7.337   4.860 -0.3816  1.7404  1.0151
44700SOL     OW41149   0.404   7.006  12.236 -0.2142  0.5831 -0.3148
44700SOL    HW141150   0.458   7.063  12.292 -0.5246 -0.5880  1.2675
44700SOL    HW241151   0.326   7.059  12.217 -1.1291  0.3373  2.2443
44701SOL     OW41152   3.421   3.206  12.071  0.7032 -0.1078 -0.6515
44701SOL    HW141153   3.378   3.286  12.102  1.4017  0.1989 -0.4387
44701SOL    HW241154   3.362   3.135  12.098  0.7808  0.2299  0.4812
44702SOL     OW41155   8.923   0.036   4.238 -0.2977  0.6061 -0.1865
44702SOL    HW141156   8.986   0.008   4.172  0.1013  0.4680  0.2415
44702SOL    HW241157   8.840  -0.001   4.209 -0.5380  2.2208 -1.6678
44703SOL     OW41158   8.575   0.171   3.719 -0.0005  0.1535 -0.1271
44703SOL    HW141159   8.555   0.222   3.797 -0.4438  0.9822 -0.7583
44703SOL    HW241160   8.515   0.096   3.722  0.6922 -0.3808  0.8360
44704SOL     OW41161  10.420   2.121  10.991 -0.1246 -0.0526  0.5871
44704SOL    HW141162  10.428   2.030  11.017 -1.0804 -0.6598 -1.1012
44704SOL    HW241163  10.503   2.140  10.947 -0.9537 -0.9991 -1.5019
44705SOL     OW41164  10.786   9.675   3.208  0.3491 -0.4348  0.4070
44705SOL    HW141165  10.748   9.703   3.291  0.2003  3.9729 -0.9152
44705SOL    HW241166  10.717   9.624   3.166 -1.1459  0.7615  1.3343
44706SOL     OW41167   4.374   4.248   5.383  0.2343  0.3604 -0.7358
44706SOL    HW141168   4.307   4.185   5.407 -0.3291  1.4087  0.5876
44706SOL    HW241169   4.447   4.195   5.350 -0.0144 -1.0246  0.7966
44707SOL     OW41170   4.566  12.299  11.153 -0.6316 -0.0619 -0.1439
44707SOL    HW141171   4.528  12.306  11.240  0.2090  0.1522  0.2106
44707SOL    HW241172   4.633  12.231  11.161  0.6086  1.1064 -0.1926
44708SOL     OW41173   4.049  12.521   6.989  0.4601 -0.3058 -0.0604
44708SOL    HW141174   4.049  12.539   6.895 -1.1953  0.6847  0.0848
44708SOL    HW241175   4.118  12.576   7.025  2.4898 -2.1649 -0.8860
44709SOL     OW41176   7.933   9.240   6.945  0.0761  0.5681  0.1825
44709SOL    HW141177   7.974   9.220   7.030  0.0064  1.3862  0.4158
44709SOL    HW241178   7.855   9.186   6.942  0.5747 -0.1686  0.2272
44710SOL     OW41179  10.887   4.224   3.995  0.1592  0.0175 -0.1501
44710SOL    HW141180  10.855   4.254   3.910 -0.9893  2.0000  0.9075
44710SOL    HW241181  10.887   4.302   4.050  1.5136 -1.0749  1.5110
44711SOL     OW41182   8.071   3.402   9.621 -0.1525 -0.2290  0.0406
44711SOL    HW141183   8.084   3.344   9.697 -0.7493  0.1184  0.4134
44711SOL    HW241184   7.977   3.418   9.619  0.1188  1.6270  0.6071
44712SOL     OW41185   9.695  11.944   8.901  0.3073  0.1115  0.4127
44712SOL    HW141186   9.612  11.951   8.855 -0.8760  0.4063  2.4881
44712SOL    HW241187   9.727  11.856   8.881 -0.1817  0.2063 -0.8756
44713SOL     OW41188   2.023   2.564   1.575  0.0544 -0.2985 -0.0200
44713SOL    HW141189   2.109   2.562   1.535  0.2032  0.3727  0.2510
44713SOL    HW241190   2.036   2.610   1.658 -1.0443  2.3062 -1.1984
44714SOL     OW41191   3.469   1.214   3.714  0.3430  0.2309  0.5313
44714SOL    HW141192   3.464   1.191   3.807 -0.8583  1.9023  0.9298
44714SOL    HW241193   3.378   1.221   3.686  0.6777 -0.8361 -0.9653
44715SOL     OW41194   0.346   4.463   1.733 -0.3888  0.0935  0.2730
44715SOL    HW141195   0.339   4.369   1.750 -0.2940  0.1454  0.5850
44715SOL    HW241196   0.268   4.501   1.774 -0.6660  0.1000 -0.2402
44716SOL     OW41197   9.489   3.881   1.790  0.3749  0.4991 -0.3197
44716SOL    HW141198   9.453   3.799   1.758 -2.8247  1.7250 -0.1764
44716SOL    HW241199   9.479   3.943   1.718  0.2180  1.4039  0.4456
44717SOL     OW41200   5.756  10.860  11.942 -0.2144  0.3092  0.1043
44717SOL    HW141201   5.833  10.818  11.906  1.2535  0.6404  2.6599
44717SOL    HW241202   5.789  10.936  11.989 -1.8622 -0.4302  2.6580
44718SOL     OW41203   4.224  11.747   1.581 -0.5449 -0.2923 -0.3475
44718SOL    HW141204   4.179  11.706   1.507 -1.5484 -0.6291  0.4323
44718SOL    HW241205   4.176  11.828   1.597  0.6695  0.6034 -1.0839
44719SOL     OW41206   0.958   4.187   1.398  0.1783  0.4922 -0.2733
44719SOL    HW141207   0.992   4.111   1.446  2.3363  2.0814  0.9325
44719SOL    HW241208   1.030   4.214   1.341 -0.0224  2.3731  0.2882
44720SOL     OW41209   5.878   3.645   7.059  0.0397 -0.5711 -0.8620
44720SOL    HW141210   5.939   3.664   6.987 -0.8423 -0.3596 -1.5692
44720SOL    HW241211   5.812   3.588   7.019 -1.7675  1.4155 -0.8629
44721SOL     OW41212   8.001   7.379  11.319  0.5729 -0.1039  0.2304
44721SOL    HW141213   7.998   7.330  11.237 -1.9688 -0.7468  0.6132
44721SOL    HW241214   8.040   7.318  11.382 -0.2608 -0.7435  0.1450
44722SOL     OW41215  11.757   9.817   0.534 -0.1024  0.4127 -0.1646
44722SOL    HW141216  11.692   9.865   0.482  1.3901  2.1052 -0.5510
44722SOL    HW241217  11.828   9.880   0.546  1.7671 -1.5870 -0.3245
44723SOL     OW41218   5.003   1.075   7.380 -0.2670 -0.1080  0.0901
44723SOL    HW141219   4.973   1.016   7.311  0.2217 -0.8603  0.5074
44723SOL    HW241220   4.936   1.142   7.385 -1.0341 -0.8376 -0.1404
44724SOL     OW41221   0.929   3.373   7.555  0.1420 -0.1429  0.5217
44724SOL    HW141222   0.967   3.460   7.543 -0.4728 -0.1407 -1.7766
44724SOL    HW241223   0.836   3.383   7.534 -0.8994 -0.5601  4.1957
44725SOL     OW41224   0.323   5.524   9.248  0.3893  0.4486  0.1498
44725SOL    HW141225   0.309   5.432   9.272 -2.1784  1.0014  1.0409
44725SOL    HW241226   0.297   5.573   9.326 -1.1144  2.0297 -1.2768
44726SOL     OW41227   9.042  10.961   8.394 -0.5061 -0.3980  0.4695
44726SOL    HW141228   9.072  10.874   8.418  0.7043 -0.5429 -1.4058
44726SOL    HW241229   8.946  10.954   8.393 -0.4218 -1.8720 -0.2003
44727SOL     OW41230   0.456  11.245  10.979  0.0040  0.4616  0.1481
44727SOL    HW141231   0.454  11.152  10.956  1.0792  0.7308 -1.1667
44727SOL    HW241232   0.417  11.249  11.066  2.3748 -1.5646  1.4184
44728SOL     OW41233   8.119  11.052   3.094 -0.7822  0.4483 -0.2033
44728SOL    HW141234   8.187  11.107   3.132  1.3321 -0.5832 -2.2339
44728SOL    HW241235   8.039  11.076   3.141  1.2238  0.3964  3.6286
44729SOL     OW41236   5.978   8.389   9.988  0.2848  0.8074 -0.1014
44729SOL    HW141237   5.900   8.444   9.980 -1.7684 -2.0122 -1.0064
44729SOL    HW241238   5.952   8.304   9.953  3.1770 -0.8862  1.4082
44730SOL     OW41239   0.315  10.752   7.151  0.4065 -0.5552 -0.2735
44730SOL    HW141240   0.277  10.665   7.139 -1.5133  0.0155  1.1896
44730SOL    HW241241   0.254  10.811   7.107  0.4318  0.2517  0.7441
44731SOL     OW41242   2.386   4.927   1.956 -0.3842  0.0204  0.0973
44731SOL    HW141243   2.322   4.962   1.895 -2.3706 -0.9310  1.5410
44731SOL    HW241244   2.459   4.899   1.901 -1.4228  0.6600 -1.6537
44732SOL     OW41245   9.448   9.298   1.361 -0.0788 -0.1736 -0.2362
44732SOL    HW141246   9.541   9.303   1.338 -0.1354 -0.8321 -0.6628
44732SOL    HW241247   9.402   9.323   1.281 -0.2713 -0.6178 -0.2667
44733SOL     OW41248   2.581   4.115   1.854  0.7906 -0.4001 -0.1178
44733SOL    HW141249   2.501   4.138   1.902 -0.1132  0.1669 -1.7823
44733SOL    HW241250   2.570   4.023   1.833  0.0188 -0.0799 -1.2458
44734SOL     OW41251   1.440   4.572   3.207 -0.0832  0.3592 -0.0932
44734SOL    HW141252   1.433   4.627   3.129 -2.1229 -1.9043 -1.6649
44734SOL    HW241253   1.349   4.558   3.234  0.3691 -1.8553  0.4818
44735SOL     OW41254   7.780   1.271   2.051  0.5006 -0.3334  0.1749
44735SOL    HW141255   7.875   1.277   2.060  0.7911 -2.3414 -0.9612
44735SOL    HW241256   7.758   1.184   2.085 -0.3556 -1.5200 -3.0376
44736SOL     OW41257   3.377  11.354   5.712  0.2215 -0.2657 -0.2785
44736SOL    HW141258   3.288  11.330   5.736 -0.2818 -1.2168 -2.8380
44736SOL    HW241259   3.391  11.439   5.754 -1.8566 -0.1126  0.1949
44737SOL     OW41260   9.854   7.748   3.410  0.4839 -0.1555 -0.3458
44737SOL    HW141261   9.793   7.714   3.476  0.8151 -2.1335 -0.9725
44737SOL    HW241262   9.801   7.758   3.331  0.3031  1.2483 -0.0653
44738SOL     OW41263  11.830   9.095   1.069 -0.3413  0.3431 -0.5798
44738SOL    HW141264  11.791   9.052   1.145  0.5374 -0.7097 -0.7013
44738SOL    HW241265  11.924   9.094   1.086 -0.2972  4.5199  0.6151
44739SOL     OW41266   8.840  10.926   4.916  0.3981 -0.5526  0.5429
44739SOL    HW141267   8.933  10.946   4.907  0.4231 -0.3917  1.1437
44739SOL    HW241268   8.800  11.008   4.943  0.4623 -1.1918  2.7239
44740SOL     OW41269   4.399   9.775  11.229  0.1830  0.1101 -0.2672
44740SOL    HW141270   4.305   9.775  11.212 -0.1196  0.2254  1.2043
44740SOL    HW241271   4.407   9.819  11.314  1.6092  0.4683 -0.5647
44741SOL     OW41272   8.958  11.792   4.458  0.3353 -0.4512  0.3895
44741SOL    HW141273   8.917  11.742   4.528 -2.3027  1.2004  0.1459
44741SOL    HW241274   8.977  11.728   4.390 -1.6791 -1.3641  0.6303
44742SOL     OW41275   5.485   5.997  11.842 -0.1376  0.3175 -0.1117
44742SOL    HW141276   5.403   6.027  11.802  0.2757  1.7046  0.0251
44742SOL    HW241277   5.508   6.066  11.905 -0.4146 -1.4528  2.0781
44743SOL     OW41278   1.934   1.194   3.427 -0.2009  0.3796  0.2426
44743SOL    HW141279   1.958   1.114   3.380  1.7592  1.4107 -0.6274
44743SOL    HW241280   1.911   1.164   3.515 -4.9853 -1.7603 -1.3882
44744SOL     OW41281   8.787   1.899   8.590 -0.4641 -0.3682 -0.2352
44744SOL    HW141282   8.830   1.964   8.534 -0.0223 -0.7740 -0.3758
44744SOL    HW241283   8.700   1.935   8.606 -0.3660  0.0642 -0.6410
44745SOL     OW41284   3.470  10.066   9.182 -0.4557  0.1478 -0.3576
44745SOL    HW141285   3.425   9.995   9.137 -2.4285  3.0159 -3.4037
44745SOL    HW241286   3.409  10.139   9.178  1.8232  2.3641  1.6651
44746SOL     OW41287   0.000   0.244   2.886 -0.1907 -0.2937  0.2531
44746SOL    HW141288  -0.025   0.227   2.977  1.1648 -2.4677  0.2872
44746SOL    HW241289   0.033   0.160   2.854  1.5003  0.9606 -1.5384
44747SOL     OW41290   7.676   3.434   5.239 -0.2262  0.2068 -0.2059
44747SOL    HW141291   7.770   3.417   5.235 -0.1382  0.7421 -0.5335
44747SOL    HW241292   7.643   3.371   5.303  0.5475  0.8754  0.8898
44748SOL     OW41293  10.955   9.957   6.345 -0.2194 -0.4041  0.2464
44748SOL    HW141294  10.898   9.893   6.303 -0.4517  0.2371 -0.4480
44748SOL    HW241295  10.895  10.020   6.385 -0.0185  0.5529 -0.9212
44749SOL     OW41296  11.778   6.320   2.386  0.2615 -0.2989  0.6400
44749SOL    HW141297  11.699   6.270   2.367  0.3094 -0.1543  0.0424
44749SOL    HW241298  11.766   6.404   2.340  1.8247 -1.1976 -1.6473
44750SOL     OW41299  10.375   5.278  10.988 -0.4885  0.1561  0.3762
44750SOL    HW141300  10.283   5.273  11.014 -0.8219 -1.2326 -0.9376
44750SOL    HW241301  10.379   5.232  10.904  1.6535 -1.0571  1.0699
44751SOL     OW41302   0.031   9.859   9.753 -0.0424 -0.2707  0.1796
44751SOL    HW141303   0.027   9.763   9.756  2.2091 -0.4031  1.1007
44751SOL    HW241304   0.001   9.887   9.839 -2.5831  0.0459 -0.7123
44752SOL     OW41305   6.451   4.755   7.865  0.2565 -0.4777  0.4163
44752SOL    HW141306   6.495   4.826   7.911 -0.2639  0.3547 -0.3370
44752SOL    HW241307   6.362   4.756   7.898 -0.0344 -0.0782 -0.3572
44753SOL     OW41308   6.842   8.213   1.235 -0.1275 -0.1586 -0.9086
44753SOL    HW141309   6.930   8.196   1.201 -0.1059  1.3645 -1.6747
44753SOL    HW241310   6.843   8.176   1.324  0.7153 -1.6891 -1.5079
44754SOL     OW41311   5.356  10.365   3.262  0.2849 -0.4490 -0.2953
44754SOL    HW141312   5.361  10.319   3.179  2.0505  1.2071 -1.1804
44754SOL    HW241313   5.341  10.457   3.239 -1.0155 -0.1903  1.3162
44755SOL     OW41314  11.261   2.535   7.397 -0.2027 -0.3266  0.5233
44755SOL    HW141315  11.330   2.471   7.415 -0.7288 -0.8737  0.6374
44755SOL    HW241316  11.181   2.484   7.398 -0.5789  0.2402  0.0389
44756SOL     OW41317   1.749   0.874   0.651  0.2747 -0.0342 -0.1573
44756SOL    HW141318   1.821   0.884   0.589  0.9769 -0.2891  0.5981
44756SOL    HW241319   1.783   0.910   0.733  0.3073 -2.0136  0.7503
44757SOL     OW41320   3.486   3.944  10.915 -0.7168 -0.1971 -0.0111
44757SOL    HW141321   3.412   3.910  10.966  0.7091  0.2715  2.5753
44757SOL    HW241322   3.481   4.039  10.927  0.4136 -0.1811  0.4114
44758SOL     OW41323   7.392   6.917  11.117 -0.1846  0.4573  0.3050
44758SOL    HW141324   7.331   6.859  11.071  0.6072  0.0625 -0.2572
44758SOL    HW241325   7.429   6.972  11.049 -0.4534  1.2040  0.7498
44759SOL     OW41326   7.198   2.068  11.382  0.1199  0.2520  0.2078
44759SOL    HW141327   7.185   2.163  11.390  0.1450  0.3373 -0.6515
44759SOL    HW241328   7.210   2.054  11.288 -0.3184 -0.6586  0.2821
44760SOL     OW41329   6.390  12.362   5.137  0.2016  0.5675  0.0688
44760SOL    HW141330   6.379  12.311   5.217  0.1210  1.2678  0.5101
44760SOL    HW241331   6.339  12.314   5.071 -1.6213  1.1726  0.9621
44761SOL     OW41332   9.140   3.476   4.353  0.2215 -0.1507  0.0861
44761SOL    HW141333   9.228   3.440   4.341  0.8994 -0.6769  4.6477
44761SOL    HW241334   9.153   3.552   4.409 -2.2304 -1.1764  2.2405
44762SOL     OW41335   1.437   3.325   4.536  0.1602 -0.0802  0.0993
44762SOL    HW141336   1.524   3.363   4.523 -0.1783  0.6250 -0.1480
44762SOL    HW241337   1.454   3.240   4.577  1.0241 -0.4513 -0.9881
44763SOL     OW41338  12.265   2.969   1.132 -0.7273 -0.7013  0.0141
44763SOL    HW141339  12.332   2.905   1.107  0.8950  0.7484  0.4166
44763SOL    HW241340  12.314   3.050   1.145 -2.3909  0.1015  1.6794
44764SOL     OW41341  11.113   2.353   2.918 -0.2354  0.7767  0.1505
44764SOL    HW141342  11.035   2.297   2.920  0.8009 -0.7886 -0.8139
44764SOL    HW241343  11.102   2.405   2.839  0.5612 -0.8681 -1.1183
44765SOL     OW41344   4.579   5.531   3.065  0.8104 -0.1338 -0.3704
44765SOL    HW141345   4.527   5.599   3.023 -0.6260 -0.1697  1.2468
44765SOL    HW241346   4.670   5.556   3.047  0.2925  0.9512 -1.6923
44766SOL     OW41347   3.483   4.345   5.971 -0.0523  0.4525  0.3893
44766SOL    HW141348   3.537   4.269   5.948  1.1150  1.6462 -1.0596
44766SOL    HW241349   3.439   4.368   5.889 -1.0319  0.8570  1.0206
44767SOL     OW41350   4.930   6.187   7.629  0.3714  0.2183 -0.8593
44767SOL    HW141351   4.914   6.097   7.658 -0.3675 -0.0469 -2.0137
44767SOL    HW241352   5.024   6.200   7.643  0.1549 -0.0376  1.1331
44768SOL     OW41353   9.658   6.181  10.324  0.3741 -0.4356  0.3785
44768SOL    HW141354   9.600   6.256  10.313 -0.2224 -1.0138 -0.6275
44768SOL    HW241355   9.745   6.219  10.336 -0.0309  0.4189  0.7253
44769SOL     OW41356   9.325   0.059   2.583 -1.1023  0.4233  0.4439
44769SOL    HW141357   9.308   0.130   2.645  1.6843 -0.2317  2.1685
44769SOL    HW241358   9.343  -0.017   2.639  3.6146  0.2620 -0.8229
44770SOL     OW41359  10.184   0.022   0.438 -0.4695  0.0136 -0.0378
44770SOL    HW141360  10.179  -0.062   0.483 -0.4490  0.5590  1.0172
44770SOL    HW241361  10.125   0.013   0.363 -0.8052 -0.7887  0.3120
44771SOL     OW41362   5.476   8.264   8.201 -0.2900  0.2932 -0.0232
44771SOL    HW141363   5.516   8.177   8.205 -3.5132 -1.3408  0.5517
44771SOL    HW241364   5.519   8.314   8.269  1.0378 -1.1532  0.2405
44772SOL     OW41365   8.299  11.458  11.743  0.4242  0.1509 -0.0118
44772SOL    HW141366   8.392  11.448  11.764  0.3215 -1.5971 -0.1671
44772SOL    HW241367   8.281  11.551  11.753  1.7337  0.2401  1.9469
44773SOL     OW41368   8.124   2.133  10.827 -0.2460 -0.8630 -0.2630
44773SOL    HW141369   8.060   2.177  10.883  0.5678 -1.8710  1.5517
44773SOL    HW241370   8.143   2.197  10.758 -0.4856  0.8933  1.2220
44774SOL     OW41371   0.466   6.568   7.236 -0.5039  0.2630  0.0076
44774SOL    HW141372   0.546   6.592   7.189 -0.4050  1.4656  0.7439
44774SOL    HW241373   0.452   6.639   7.298  0.2780 -1.9634  2.9850
44775SOL     OW41374   1.017   9.050  10.187  0.1987 -0.3774  0.0515
44775SOL    HW141375   1.019   9.045  10.091 -0.7560  0.0437  0.0026
44775SOL    HW241376   1.107   9.075  10.211  0.3153  0.0163 -0.7609
44776SOL     OW41377   1.075   2.400   9.089 -0.8858  0.5260  0.5040
44776SOL    HW141378   1.103   2.485   9.055  0.3308 -0.3548 -0.8222
44776SOL    HW241379   1.022   2.421   9.166  0.4082  2.4257  0.9377
44777SOL     OW41380   6.986   1.407   5.551  0.2948  0.3043 -0.0926
44777SOL    HW141381   6.952   1.487   5.509  1.8348  0.2337 -1.6170
44777SOL    HW241382   6.945   1.335   5.502 -0.5304  0.1407  0.8071
44778SOL     OW41383  12.343   6.329   4.839  0.1686  0.0535  0.1860
44778SOL    HW141384  12.377   6.305   4.753 -0.1295 -1.0455  0.3614
44778SOL    HW241385  12.419   6.361   4.887  0.6121 -0.6921 -0.0154
44779SOL     OW41386   8.622   7.131   8.083  0.2135  0.3752  0.6374
44779SOL    HW141387   8.576   7.214   8.095 -0.1604 -0.0259  2.1269
44779SOL    HW241388   8.670   7.118   8.165  2.0018  0.1591 -0.3833
44780SOL     OW41389   8.678   3.250   0.895  0.6558 -0.0915 -0.2976
44780SOL    HW141390   8.690   3.325   0.954 -0.7102  0.3233 -0.5202
44780SOL    HW241391   8.649   3.179   0.953 -0.5697  0.2826 -0.4392
44781SOL     OW41392   3.690  12.279   9.244 -0.7677 -0.9883  0.0603
44781SOL    HW141393   3.755  12.304   9.309  0.4861  0.1716 -1.5685
44781SOL    HW241394   3.730  12.301   9.159 -2.4570 -2.1348 -1.1091
44782SOL     OW41395  12.430   1.835   4.157 -0.8041 -0.2230  0.2455
44782SOL    HW141396  12.467   1.843   4.069  0.2893  1.7535  0.8135
44782SOL    HW241397  12.417   1.741   4.170 -0.8685 -0.5619 -1.9562
44783SOL     OW41398   0.584   5.193  12.326 -0.1730 -0.3976  0.0054
44783SOL    HW141399   0.566   5.132  12.255  1.1804 -0.2297 -0.5189
44783SOL    HW241400   0.676   5.218  12.314 -0.4352  1.0577  0.7227
44784SOL     OW41401   6.391   9.176   1.509 -0.2566  0.1768 -0.3656
44784SOL    HW141402   6.333   9.123   1.564  0.1506 -0.0615 -0.1542
44784SOL    HW241403   6.336   9.248   1.479 -1.0340 -0.7809 -1.3037
44785SOL     OW41404   4.578   3.208   1.127  0.2751 -0.3425 -0.3124
44785SOL    HW141405   4.529   3.290   1.118 -0.8151 -0.7894  1.1036
44785SOL    HW241406   4.566   3.164   1.043 -0.3770  0.3059 -0.5710
44786SOL     OW41407   8.966   1.060   0.565  0.0450  0.2668  0.8673
44786SOL    HW141408   8.925   1.033   0.483  1.2314 -1.1862  0.7153
44786SOL    HW241409   9.045   1.106   0.538 -1.6877  3.7913  1.1297
44787SOL     OW41410   0.392   7.165   4.442  0.2317  0.2622 -0.2198
44787SOL    HW141411   0.302   7.149   4.415  0.2737 -0.5904  0.1023
44787SOL    HW241412   0.399   7.122   4.527  1.0496 -0.0151 -0.4186
44788SOL     OW41413   0.580   9.990   4.989 -0.1012  0.3046 -0.2501
44788SOL    HW141414   0.556   9.900   5.009 -0.8571  0.3052 -1.0811
44788SOL    HW241415   0.523  10.043   5.046 -0.9311  0.2757 -1.0339
44789SOL     OW41416  11.933   4.799   2.008 -0.5450  0.5615 -0.0367
44789SOL    HW141417  11.905   4.809   1.917 -2.1962  0.3284  0.4183
44789SOL    HW241418  11.918   4.885   2.047 -1.9716  0.0682  0.5481
44790SOL     OW41419   6.549   6.892   2.368  0.3144  0.1988  0.2248
44790SOL    HW141420   6.620   6.911   2.430 -0.6712 -1.3350  1.9099
44790SOL    HW241421   6.571   6.806   2.332 -0.1580  0.1787 -0.0164
44791SOL     OW41422  10.395   1.386  12.348 -0.0947 -0.7880  0.0614
44791SOL    HW141423  10.405   1.323  12.277 -0.8253  0.0137 -0.7880
44791SOL    HW241424  10.325   1.444  12.319  2.1599  1.9628 -0.3637
44792SOL     OW41425   3.756  11.053   6.177  0.9732  0.2726 -0.0327
44792SOL    HW141426   3.702  11.130   6.160 -0.8563 -0.5566  1.6381
44792SOL    HW241427   3.734  10.992   6.106  1.8327  0.9391 -0.9062
44793SOL     OW41428  10.068   8.369   9.352  0.2119  0.4134 -0.3714
44793SOL    HW141429   9.982   8.345   9.318 -0.0390  2.3319 -1.1559
44793SOL    HW241430  10.076   8.317   9.432 -1.2079 -0.5893 -0.8279
44794SOL     OW41431   2.790   8.765  10.152  0.4590  0.3091 -0.4264
44794SOL    HW141432   2.722   8.832  10.152  1.2589  1.1584  0.3121
44794SOL    HW241433   2.743   8.683  10.166 -0.4769  0.7850 -0.6912
44795SOL     OW41434   2.521   7.592   1.783  0.4311  0.4082 -0.2060
44795SOL    HW141435   2.515   7.684   1.807  0.6414  0.5052 -0.5202
44795SOL    HW241436   2.534   7.546   1.867 -1.7330  0.4487  0.1977
44796SOL     OW41437  12.587  10.952   6.315  0.0692  0.3003 -0.2632
44796SOL    HW141438  12.601  11.043   6.339  1.3816 -0.5693  2.7205
44796SOL    HW241439  12.496  10.934   6.341  0.2271  0.4127  0.3665
44797SOL     OW41440   8.141   6.075   0.298 -0.1612  0.0982  0.3012
44797SOL    HW141441   8.104   6.006   0.353 -0.7505  1.5193  1.7662
44797SOL    HW241442   8.069   6.137   0.287  0.8951  1.4151  0.6385
44798SOL     OW41443   3.058   4.806   9.885  0.4725  0.0725  0.4381
44798SOL    HW141444   2.978   4.832   9.931 -0.0140  1.1554 -0.9714
44798SOL    HW241445   3.128   4.837   9.942 -0.0620 -1.2632  1.9006
44799SOL     OW41446  10.470   9.985  11.310 -0.1478  0.6249  0.5899
44799SOL    HW141447  10.417   9.937  11.246  0.8643 -1.3500  1.1322
44799SOL    HW241448  10.487  10.069  11.269 -3.5310  1.3410  0.3259
44800SOL     OW41449   4.974   2.340   9.296  0.3460  0.8062  0.2870
44800SOL    HW141450   4.982   2.432   9.322  0.8213  0.5617  1.0393
44800SOL    HW241451   4.912   2.303   9.358  0.4646  0.5273  0.2404
44801SOL     OW41452   1.530  10.379   6.176 -0.2596  0.4020  0.0544
44801SOL    HW141453   1.617  10.419   6.182  0.7111 -1.6696  0.7987
44801SOL    HW241454   1.511  10.380   6.082  0.6263  0.7948 -0.1386
44802SOL     OW41455   8.834  12.090   8.353  0.1511  0.0453 -0.5514
44802SOL    HW141456   8.769  12.076   8.284  0.3010 -0.3688 -0.6078
44802SOL    HW241457   8.820  12.019   8.415 -1.1568  1.3834  0.7733
44803SOL     OW41458  12.229   8.934   8.478 -0.2175  0.2838  0.3422
44803SOL    HW141459  12.151   8.990   8.484  0.8675  1.8917  0.1902
44803SOL    HW241460  12.194   8.845   8.467 -2.1363  1.2818 -3.7751
44804SOL     OW41461   5.003   1.276   9.674  0.4397  0.5398 -0.1264
44804SOL    HW141462   4.930   1.233   9.719  0.6270  0.6033  0.2402
44804SOL    HW241463   5.076   1.216   9.684  0.4656  0.5215 -0.4102
44805SOL     OW41464   1.066  11.757   3.867 -0.1901 -0.4468  0.3636
44805SOL    HW141465   0.991  11.745   3.809 -0.5847 -1.0093  0.9665
44805SOL    HW241466   1.028  11.759   3.955  0.2767  1.5552  0.5616
44806SOL     OW41467   5.467   4.484   2.260 -0.3889  0.3844  0.0876
44806SOL    HW141468   5.487   4.406   2.311 -3.3953  0.2270  1.2366
44806SOL    HW241469   5.491   4.557   2.318 -0.1185  0.2704  0.1201
44807SOL     OW41470   7.326   9.356   3.694  0.0845 -0.3983 -0.1367
44807SOL    HW141471   7.348   9.370   3.602  0.4653 -1.9631 -0.3050
44807SOL    HW241472   7.405   9.319   3.732 -0.3101 -0.4339  0.6679
44808SOL     OW41473   2.488   8.747   8.564 -0.8106  0.4900  0.2308
44808SOL    HW141474   2.522   8.662   8.591 -0.1809  0.6644 -0.0034
44808SOL    HW241475   2.399   8.728   8.534 -0.9089  0.0243  0.8001
44809SOL     OW41476   7.810  11.455   6.698 -0.1459 -0.5659  0.0188
44809SOL    HW141477   7.824  11.393   6.628  0.3127 -0.4108 -0.0282
44809SOL    HW241478   7.870  11.527   6.679 -2.9965  1.5501 -1.8607
44810SOL     OW41479   1.118   7.077   3.072 -0.0505  0.3884 -0.2554
44810SOL    HW141480   1.072   7.137   3.013  0.3919  0.1677 -0.8263
44810SOL    HW241481   1.048   7.034   3.122 -0.3575  1.9058  0.7058
44811SOL     OW41482   9.848   1.670   6.342  0.5602 -0.0570 -0.1059
44811SOL    HW141483   9.784   1.629   6.401  0.6181 -0.6351 -0.4380
44811SOL    HW241484   9.841   1.620   6.261  1.3275 -0.0235 -0.1963
44812SOL     OW41485   0.048   8.997   2.987 -0.4144 -0.0398 -0.4942
44812SOL    HW141486   0.066   9.053   3.062 -1.7163 -0.4096  0.1310
44812SOL    HW241487   0.116   8.930   2.990 -0.5597 -0.1564  0.4787
44813SOL     OW41488   1.859  11.828   3.970  0.5023 -0.6086 -0.4820
44813SOL    HW141489   1.816  11.785   4.044 -0.0597 -0.8363 -0.9377
44813SOL    HW241490   1.893  11.757   3.917  0.5348 -0.4601 -0.6617
44814SOL     OW41491   6.225  10.413   2.406  0.0898  0.0235  0.2638
44814SOL    HW141492   6.156  10.444   2.347  0.7626  0.9596 -0.0445
44814SOL    HW241493   6.303  10.409   2.351 -0.1841 -3.5356 -0.1019
44815SOL     OW41494   5.630  11.335   2.686  0.3886  0.8693 -0.1300
44815SOL    HW141495   5.705  11.288   2.648 -0.1333 -0.1672  0.0672
44815SOL    HW241496   5.601  11.394   2.617  0.1964 -0.1336 -0.9439
44816SOL     OW41497   7.324  10.274   8.453  0.4359 -0.2432  0.2660
44816SOL    HW141498   7.300  10.191   8.411 -1.1195  0.3193 -0.0253
44816SOL    HW241499   7.280  10.271   8.538 -1.8405  1.3213 -0.7534
44817SOL     OW41500  10.951   5.907   0.188  0.2761 -0.4397  0.2160
44817SOL    HW141501  11.018   5.975   0.197  0.8375 -0.8136 -0.8547
44817SOL    HW241502  10.905   5.929   0.107 -0.1569 -0.8100  0.3549
44818SOL     OW41503   2.211   0.828   7.057 -0.6487  0.4056  0.2268
44818SOL    HW141504   2.133   0.883   7.048 -1.0465 -0.2216 -0.2543
44818SOL    HW241505   2.180   0.739   7.040  0.3614  0.2659 -1.0477
44819SOL     OW41506   0.192   6.790   6.983 -0.0265  0.2685 -0.2316
44819SOL    HW141507   0.197   6.819   7.074 -1.9054 -0.7443  0.2603
44819SOL    HW241508   0.237   6.706   6.982  2.2312  1.4171 -0.8544
44820SOL     OW41509   1.612   2.646   2.035  0.2368 -0.4762 -0.0497
44820SOL    HW141510   1.530   2.656   2.084  0.0214  2.0587 -0.7625
44820SOL    HW241511   1.616   2.553   2.013 -2.2956 -0.7392  0.2823
44821SOL     OW41512   7.437  12.545   2.448 -0.3323  0.3792  0.0896
44821SOL    HW141513   7.475  12.595   2.376  1.6998 -1.5884 -0.3019
44821SOL    HW241514   7.476  12.584   2.527  0.3022  0.2191 -0.1348
44822SOL     OW41515   6.905   6.813   3.821  0.1136 -0.0956  0.4725
44822SOL    HW141516   6.928   6.720   3.824  0.5110 -0.0449 -0.6890
44822SOL    HW241517   6.978   6.855   3.776 -1.1076  0.4262 -1.1507
44823SOL     OW41518   5.410  12.104  10.117  0.2150  0.5066 -0.4076
44823SOL    HW141519   5.460  12.036  10.071  1.2428  1.8112 -1.3114
44823SOL    HW241520   5.379  12.162  10.048 -3.0558 -0.4862  0.0750
44824SOL     OW41521   8.787   5.506   1.591 -0.3090 -0.5998  0.1702
44824SOL    HW141522   8.773   5.572   1.523  0.9333  0.7917  1.2113
44824SOL    HW241523   8.699   5.484   1.622 -0.7250  0.8585  0.0767
44825SOL     OW41524   1.219   5.119   3.135 -0.1969  0.4268 -0.9062
44825SOL    HW141525   1.221   5.030   3.170  0.7745  0.6752 -0.3144
44825SOL    HW241526   1.294   5.123   3.075  1.1511  1.5182  0.7783
44826SOL     OW41527   5.076   4.584   5.332 -0.1671 -0.1525  0.1779
44826SOL    HW141528   5.131   4.628   5.268  0.4861 -0.6126  0.4163
44826SOL    HW241529   5.104   4.492   5.328  0.4343 -0.0522  1.6757
44827SOL     OW41530   5.419  10.028  10.623  0.5202  0.5369 -0.1895
44827SOL    HW141531   5.364  10.041  10.700  2.4424  1.2330  1.1373
44827SOL    HW241532   5.478   9.957  10.648  0.4972  0.0517 -1.4446
44828SOL     OW41533   1.256   7.662   1.513 -0.3185 -0.1000  0.3889
44828SOL    HW141534   1.346   7.691   1.508  0.3307 -1.8171  1.1435
44828SOL    HW241535   1.240   7.618   1.429 -0.6869  0.7681 -0.0065
44829SOL     OW41536   0.960   1.627   3.902 -0.0765 -0.0740 -0.1401
44829SOL    HW141537   0.982   1.567   3.831 -1.0057  1.3814 -1.7149
44829SOL    HW241538   1.045   1.656   3.935  0.3793 -1.4784  0.0127
44830SOL     OW41539   6.979   7.712   8.046  0.0661 -0.5286  0.1675
44830SOL    HW141540   6.997   7.695   7.953 -1.2461 -1.5073  0.0600
44830SOL    HW241541   7.064   7.736   8.083  0.9114 -1.5954 -0.9767
44831SOL     OW41542   2.817  12.373   3.747 -0.1986 -0.5539  0.1572
44831SOL    HW141543   2.909  12.363   3.722  0.3925 -1.5683  2.4872
44831SOL    HW241544   2.780  12.285   3.736 -0.2874 -0.6756  1.3303
44832SOL     OW41545   9.215   6.052   0.127 -0.0597 -0.2793  0.0961
44832SOL    HW141546   9.225   5.976   0.069 -1.7582  0.0287 -0.6793
44832SOL    HW241547   9.201   6.126   0.068  0.2840  0.4235  0.8731
44833SOL     OW41548   5.119   5.291  11.771 -0.1773 -0.1035 -0.1623
44833SOL    HW141549   5.211   5.280  11.747  0.5961  1.6790  1.6484
44833SOL    HW241550   5.105   5.224  11.839  0.3805  0.8126  0.8936
44834SOL     OW41551   2.684  11.686   9.538  0.6435 -0.5990 -0.1815
44834SOL    HW141552   2.645  11.717   9.456 -0.9649  0.6735  1.0117
44834SOL    HW241553   2.610  11.651   9.588  1.7691 -2.4080  0.3141
44835SOL     OW41554  11.059   8.374  10.571 -0.1644  0.1074  0.1738
44835SOL    HW141555  11.090   8.387  10.481 -1.2663 -0.9176 -0.3829
44835SOL    HW241556  10.986   8.436  10.580 -0.0567  0.2066  0.3615
44836SOL     OW41557   0.362   2.486   6.563  0.5363 -0.6027  0.1799
44836SOL    HW141558   0.273   2.464   6.533  0.5200  1.9303 -1.9620
44836SOL    HW241559   0.420   2.443   6.500  0.9218 -2.3092  1.6144
44837SOL     OW41560  10.156   0.128  10.945 -0.5995  0.2646  0.1988
44837SOL    HW141561  10.112   0.089  10.869 -0.1553 -1.6705  0.8854
44837SOL    HW241562  10.183   0.215  10.914 -1.6207  0.0504 -1.4174
44838SOL     OW41563   6.656  10.353   0.581  0.0699  0.8382 -0.3401
44838SOL    HW141564   6.741  10.397   0.587 -0.5052  2.3434 -2.1573
44838SOL    HW241565   6.596  10.410   0.628 -0.3420  1.0288 -1.0856
44839SOL     OW41566  10.505   1.868   0.255  0.1077 -0.2809  0.3115
44839SOL    HW141567  10.547   1.952   0.242 -1.2144  0.6765  1.8116
44839SOL    HW241568  10.426   1.888   0.306 -0.1853 -2.4346  0.8193
44840SOL     OW41569   6.177   0.029   0.714  0.0511  0.1797  0.2237
44840SOL    HW141570   6.257   0.071   0.682  1.0891 -0.7734  1.4709
44840SOL    HW241571   6.111   0.051   0.648  1.7053 -0.3833 -1.7314
44841SOL     OW41572   7.663   3.981   1.138 -0.1377  0.0957  0.3964
44841SOL    HW141573   7.747   4.018   1.110  0.2677 -1.4870 -0.6287
44841SOL    HW241574   7.662   3.994   1.233  1.3685 -0.0237  0.4610
44842SOL     OW41575   5.962   0.061   2.452 -0.1643  0.1291  0.1034
44842SOL    HW141576   5.867   0.067   2.439 -0.2909  0.1903  0.9849
44842SOL    HW241577   5.979  -0.033   2.455  0.2068  0.0262 -2.6408
44843SOL     OW41578   0.801   0.927   5.247 -0.2974  0.3251  0.1479
44843SOL    HW141579   0.886   0.970   5.242 -0.1114  0.1454  1.3321
44843SOL    HW241580   0.822   0.834   5.257 -0.6334  0.2573  0.2322
44844SOL     OW41581   3.404   8.583   1.193 -0.2426  0.3491 -0.4033
44844SOL    HW141582   3.408   8.507   1.250 -1.4899  0.5168 -0.0582
44844SOL    HW241583   3.492   8.621   1.198  0.8741 -1.8544 -1.7494
44845SOL     OW41584   8.138   5.847   2.461  0.1108 -0.2669 -0.0863
44845SOL    HW141585   8.156   5.821   2.551 -0.7422 -1.6757 -0.2936
44845SOL    HW241586   8.070   5.787   2.432  0.2352  0.2879 -1.6151
44846SOL     OW41587  11.747   5.932   7.811  0.2724 -0.0099  0.0360
44846SOL    HW141588  11.678   5.895   7.867  0.0014  1.2784  0.5902
44846SOL    HW241589  11.709   5.932   7.723 -0.5401  0.8898  0.3732
44847SOL     OW41590   8.806  11.933  11.938  0.0292  0.2733  0.3053
44847SOL    HW141591   8.881  11.983  11.907 -0.0462  1.1123  1.4005
44847SOL    HW241592   8.738  12.000  11.953 -0.4595 -0.3026  0.6900
44848SOL     OW41593  10.407   8.972  10.084  0.1960  0.0660  0.2775
44848SOL    HW141594  10.350   9.049  10.082  1.9707  1.4509 -0.6458
44848SOL    HW241595  10.477   8.995  10.145  1.0616 -0.5730 -0.4399
44849SOL     OW41596   8.626   0.437  10.043 -0.6888  0.7510 -0.3618
44849SOL    HW141597   8.590   0.386   9.970 -1.2036  0.1431  0.3026
44849SOL    HW241598   8.717   0.451  10.019  0.0033 -2.0315  0.1879
44850SOL     OW41599   2.755   5.380  12.531  0.3122 -0.5293  0.1041
44850SOL    HW141600   2.820   5.442  12.500  1.3508 -1.8550 -0.4807
44850SOL    HW241601   2.710   5.425  12.603 -0.3213  1.6100 -1.5290
44851SOL     OW41602   1.640  12.193   9.657  0.0690 -0.7257 -0.1892
44851SOL    HW141603   1.650  12.287   9.670 -2.7692 -0.4306  0.5363
44851SOL    HW241604   1.574  12.185   9.588  0.4828 -2.1796 -0.4374
44852SOL     OW41605   0.963   4.914   5.986 -0.0490 -0.0289  0.3532
44852SOL    HW141606   0.904   4.913   5.912 -0.8928 -0.7354  1.0144
44852SOL    HW241607   0.949   5.000   6.027  1.0841  0.7422 -0.7874
44853SOL     OW41608  11.439   2.703   7.551  0.5496 -0.1073  0.4021
44853SOL    HW141609  11.462   2.775   7.492  1.0011 -0.0783  0.6115
44853SOL    HW241610  11.363   2.663   7.510  1.6756 -0.9571 -0.9641
44854SOL     OW41611   2.436   6.340   9.853  0.0368 -0.2365  0.0013
44854SOL    HW141612   2.371   6.370   9.789 -1.7185 -2.2893  0.7304
44854SOL    HW241613   2.498   6.289   9.801  0.5867  0.9389 -0.5478
44855SOL     OW41614   2.014   2.880   9.447  0.7219  0.0004  0.6205
44855SOL    HW141615   2.067   2.801   9.454  0.4973 -0.1539  0.6021
44855SOL    HW241616   2.051   2.928   9.374  0.0561 -0.7107 -0.2034
44856SOL     OW41617   4.293   8.968   4.808  0.1587 -0.1315 -0.0090
44856SOL    HW141618   4.230   9.031   4.775  2.0255  2.6307  1.3126
44856SOL    HW241619   4.317   8.915   4.732 -3.5930 -1.3087 -0.5430
44857SOL     OW41620   7.356   6.961   8.758 -0.2185  0.7699  0.0530
44857SOL    HW141621   7.386   6.919   8.838 -1.1585  0.0435  0.0389
44857SOL    HW241622   7.262   6.971   8.770 -0.6486 -0.7553 -1.5636
44858SOL     OW41623   0.272   2.234   5.929  0.6342  0.0891 -0.5574
44858SOL    HW141624   0.182   2.200   5.929  0.3624  0.6703  1.6567
44858SOL    HW241625   0.265   2.321   5.967  1.9107  0.9931 -2.2303
44859SOL     OW41626   7.407   4.798  11.506 -0.4864  0.0729 -0.4727
44859SOL    HW141627   7.454   4.881  11.513  2.5049 -1.4961 -0.7445
44859SOL    HW241628   7.329   4.811  11.562  0.4629  2.6302  0.4236
44860SOL     OW41629   8.107  10.258   6.928 -0.2253  0.0180  0.6458
44860SOL    HW141630   8.092  10.330   6.866  0.6312 -0.5112 -0.1976
44860SOL    HW241631   8.042  10.273   6.997 -0.6080  1.1331  0.0806
44861SOL     OW41632   3.809  11.674   1.221  0.3268 -0.5177 -0.0064
44861SOL    HW141633   3.725  11.675   1.175 -0.8566 -1.1528  2.0087
44861SOL    HW241634   3.872  11.649   1.154 -1.3490 -1.7855 -1.2033
44862SOL     OW41635   9.909   1.815   7.716 -0.2634  0.5425 -0.5185
44862SOL    HW141636   9.926   1.909   7.721 -1.8530  0.7848  2.0764
44862SOL    HW241637   9.953   1.779   7.793 -0.4990 -0.7246 -0.9469
44863SOL     OW41638   8.386   3.934   6.181  0.5443 -0.1861  0.4100
44863SOL    HW141639   8.392   4.019   6.223 -3.1599 -0.1589  1.3018
44863SOL    HW241640   8.319   3.887   6.231  1.4325 -3.1250 -0.8937
44864SOL     OW41641   6.886   7.492   2.685  0.1906  0.0040 -0.4931
44864SOL    HW141642   6.914   7.420   2.742  0.6150  0.3525 -0.2545
44864SOL    HW241643   6.835   7.449   2.616  0.1216 -0.4823 -0.1476
44865SOL     OW41644   4.321   5.886  11.803  0.4842 -0.3868  0.4148
44865SOL    HW141645   4.365   5.942  11.738  0.5458  0.7896  1.4273
44865SOL    HW241646   4.349   5.797  11.781  4.1926  0.2970  1.5158
44866SOL     OW41647   5.162   0.447  10.267 -0.5733  0.0181  0.4754
44866SOL    HW141648   5.237   0.406  10.223  0.3749  1.2257  0.9246
44866SOL    HW241649   5.087   0.392  10.243  0.4193 -1.1075 -0.1329
44867SOL     OW41650  11.473   6.696  11.151 -0.2085  0.1161 -0.4777
44867SOL    HW141651  11.521   6.622  11.112  0.7546  0.3726  0.2123
44867SOL    HW241652  11.397   6.655  11.193 -0.8958 -0.2446 -1.9594
44868SOL     OW41653   7.530  11.791  12.100 -0.3906  0.2942  0.2526
44868SOL    HW141654   7.587  11.848  12.152  0.0368 -0.3640  0.5231
44868SOL    HW241655   7.443  11.806  12.135 -0.3510  1.0995  0.0296
44869SOL     OW41656   1.523   6.225   0.657 -0.4872  0.0765  0.2900
44869SOL    HW141657   1.587   6.265   0.598 -1.5216  0.2877 -0.7317
44869SOL    HW241658   1.483   6.156   0.604  0.2133 -1.3455  1.5409
44870SOL     OW41659   1.110  11.570   7.184 -0.1594  0.3043  0.4695
44870SOL    HW141660   1.067  11.643   7.138 -3.0200 -1.7966 -0.4422
44870SOL    HW241661   1.077  11.575   7.274  0.2776  0.5872  0.6160
44871SOL     OW41662   4.892   2.203   4.916 -0.6352  0.6050 -0.2881
44871SOL    HW141663   4.964   2.259   4.888 -0.4724  0.4135 -0.2557
44871SOL    HW241664   4.837   2.193   4.838 -0.3801  0.3730 -0.4391
44872SOL     OW41665  12.235   9.407   5.800  0.4620 -0.0837 -0.5696
44872SOL    HW141666  12.143   9.432   5.789  0.8534  0.2824 -4.7711
44872SOL    HW241667  12.282   9.490   5.808  0.6304 -0.1324 -1.0253
44873SOL     OW41668   1.772  11.064   3.742 -0.3188 -0.3979 -0.9030
44873SOL    HW141669   1.726  11.090   3.822  0.7830  0.1920 -0.4453
44873SOL    HW241670   1.719  11.101   3.672 -0.1557  0.9575 -0.3507
44874SOL     OW41671   6.297   3.063   0.575  0.2288 -0.1453  0.4028
44874SOL    HW141672   6.260   2.975   0.578  0.2494 -0.1912 -0.5125
44874SOL    HW241673   6.288   3.090   0.484 -0.4231  1.0763  0.8023
44875SOL     OW41674   5.711   7.750   4.301  0.6440  0.3982 -0.4739
44875SOL    HW141675   5.668   7.750   4.215  0.8511  0.6978 -0.5817
44875SOL    HW241676   5.781   7.815   4.292 -0.7513  2.1679  0.6296
44876SOL     OW41677   4.043   0.794   1.754  0.0278  0.1793 -0.3732
44876SOL    HW141678   4.030   0.848   1.676  0.8173 -0.5617 -1.0396
44876SOL    HW241679   3.971   0.731   1.751  0.8766 -0.8088 -1.3733
44877SOL     OW41680   6.808   8.314   3.417  0.1364  0.0260  0.6614
44877SOL    HW141681   6.743   8.245   3.428 -0.7870 -0.0711 -3.7157
44877SOL    HW241682   6.881   8.271   3.373  1.7139  0.9206  2.2563
44878SOL     OW41683   7.603   1.153  11.070 -0.9409 -0.2099 -0.0683
44878SOL    HW141684   7.683   1.195  11.037 -0.1101 -0.6254  1.3395
44878SOL    HW241685   7.605   1.167  11.165 -1.7367 -1.5659  0.1839
44879SOL     OW41686  10.821  10.363   0.469 -0.1288 -0.2721 -0.1987
44879SOL    HW141687  10.801  10.440   0.523 -1.8496 -1.5263  1.0674
44879SOL    HW241688  10.847  10.296   0.532  0.6715 -0.9523 -1.2229
44880SOL     OW41689  10.995   2.973   5.107  0.8161  0.1394 -0.1428
44880SOL    HW141690  11.050   2.976   5.185 -1.3479 -1.2257  1.5641
44880SOL    HW241691  10.923   3.034   5.125 -0.6518 -1.4761 -0.2003
44881SOL     OW41692   5.385   3.345   0.441  0.0289  0.3913  0.2325
44881SOL    HW141693   5.479   3.361   0.450  0.0677  0.4730 -0.2736
44881SOL    HW241694   5.351   3.427   0.403  0.2819 -0.7561 -2.7444
44882SOL     OW41695   1.197   7.754   9.460 -0.8462  0.0419  0.1793
44882SOL    HW141696   1.211   7.682   9.398 -1.4392 -1.2961  1.5481
44882SOL    HW241697   1.126   7.805   9.420 -1.7107 -1.1972  0.0683
44883SOL     OW41698   9.935   0.536   7.087 -0.2958  0.1316  0.1398
44883SOL    HW141699   9.874   0.583   7.145  0.1698  0.9422 -0.0093
44883SOL    HW241700  10.021   0.572   7.109  0.0693 -0.6201 -0.0269
44884SOL     OW41701  12.244   8.447   4.114 -0.1322  0.4893 -0.0351
44884SOL    HW141702  12.217   8.379   4.177 -2.9427  0.3075 -1.3204
44884SOL    HW241703  12.244   8.403   4.029  1.7861  1.2130 -0.4784
44885SOL     OW41704   8.456   1.533   8.397 -0.5461 -0.2293  0.2924
44885SOL    HW141705   8.514   1.553   8.323  0.9485 -2.3134  0.8069
44885SOL    HW241706   8.371   1.519   8.357 -0.0630  0.0021 -0.8717
44886SOL     OW41707  11.495   6.022   0.731 -0.1066 -0.3018 -0.0132
44886SOL    HW141708  11.400   6.026   0.739 -0.0440  0.2454  0.5679
44886SOL    HW241709  11.521   5.949   0.788 -0.1481 -0.1403  0.2184
44887SOL     OW41710   4.923  10.085   7.142 -0.0009 -0.1201 -0.0003
44887SOL    HW141711   4.897  10.170   7.107 -0.0775 -0.3638 -0.5374
44887SOL    HW241712   5.004  10.064   7.097  1.6539  1.0046  2.2252
44888SOL     OW41713   7.380   9.928   1.919 -0.1536  0.2292  0.1148
44888SOL    HW141714   7.438   9.994   1.880 -1.0164  1.1123  0.2640
44888SOL    HW241715   7.311   9.980   1.962 -0.6681 -0.7738  0.5322
44889SOL     OW41716   1.725   4.164   7.607  0.2757 -0.4597 -0.7011
44889SOL    HW141717   1.649   4.117   7.573 -1.5954  1.4091  0.6405
44889SOL    HW241718   1.714   4.162   7.702  0.7349  1.5747 -0.5501
44890SOL     OW41719   1.408   2.239   7.038 -0.5250 -0.4325 -0.4249
44890SOL    HW141720   1.444   2.199   6.959 -0.3840  0.4831 -0.8402
44890SOL    HW241721   1.420   2.333   7.025  0.0260 -0.2901  0.9415
44891SOL     OW41722   9.139   4.537   2.126 -0.0405  0.2514 -0.2284
44891SOL    HW141723   9.062   4.491   2.093 -0.6649  0.7674  0.4527
44891SOL    HW241724   9.202   4.534   2.054 -0.6451 -0.2996 -0.7478
44892SOL     OW41725   2.269   1.748   1.681  0.4289 -0.1009 -0.1115
44892SOL    HW141726   2.236   1.705   1.603  0.7968 -1.7367  0.5765
44892SOL    HW241727   2.347   1.697   1.705  0.6898  0.7547  0.9443
44893SOL     OW41728   2.201   4.881   7.929 -0.3974 -0.2464  0.0193
44893SOL    HW141729   2.244   4.924   8.003 -1.7027  1.9985 -0.4065
44893SOL    HW241730   2.108   4.881   7.952 -0.6419 -1.0542 -0.8988
44894SOL     OW41731   1.285   1.808   7.720 -0.7720  0.9211  0.3085
44894SOL    HW141732   1.363   1.753   7.711 -1.2994  0.3637 -1.1467
44894SOL    HW241733   1.245   1.778   7.802  0.4099  1.0717  0.9656
44895SOL     OW41734   2.428   3.960   2.891 -0.1318 -0.1543  0.6468
44895SOL    HW141735   2.496   3.893   2.900  0.5094  0.2147 -1.0910
44895SOL    HW241736   2.358   3.918   2.841  0.1006  0.3354 -0.1011
44896SOL     OW41737  11.914  10.434   2.298 -0.3234 -0.1995  0.2202
44896SOL    HW141738  11.896  10.375   2.224 -1.4562 -0.4827  0.7025
44896SOL    HW241739  11.935  10.518   2.257  0.1180 -0.6166 -0.4427
44897SOL     OW41740   7.925   5.626   0.804 -0.3067  0.6582 -0.2440
44897SOL    HW141741   7.953   5.610   0.894 -0.2649  2.6114  0.1400
44897SOL    HW241742   7.839   5.585   0.798 -0.4166  0.7037  0.7787
44898SOL     OW41743   1.927   6.295   1.067  0.1294 -0.1255  0.6737
44898SOL    HW141744   1.968   6.320   1.150  0.7505 -1.2555  0.7277
44898SOL    HW241745   1.854   6.238   1.094 -0.0238 -0.0287  0.4633
44899SOL     OW41746  10.970  10.315  11.008 -0.1654 -0.9308  0.4805
44899SOL    HW141747  10.946  10.346  11.095  1.4050  2.2192 -0.0621
44899SOL    HW241748  10.912  10.362  10.948  0.0703 -1.5689 -0.2703
44900SOL     OW41749   1.530   2.767   7.242 -0.1749  0.0263  0.0502
44900SOL    HW141750   1.614   2.812   7.244 -0.1211 -0.1084  0.9719
44900SOL    HW241751   1.479   2.814   7.176  0.2418  0.7860  0.2639
44901SOL     OW41752  12.246   4.097  12.557 -0.2731 -0.0024 -0.6028
44901SOL    HW141753  12.259   4.043  12.478  0.8662  0.0756 -0.4805
44901SOL    HW241754  12.297   4.176  12.540 -0.8600  0.4575 -0.2120
44902SOL     OW41755   5.433   2.143  12.570 -0.0794  0.2222 -0.1689
44902SOL    HW141756   5.419   2.049  12.563  0.0795  0.0545  1.4744
44902SOL    HW241757   5.348   2.181  12.548 -0.2221 -0.3084 -0.5569
44903SOL     OW41758   1.386   4.109  12.049  0.0424 -0.2142  0.7482
44903SOL    HW141759   1.298   4.138  12.075 -0.2385 -0.4187  0.0502
44903SOL    HW241760   1.374   4.072  11.962  0.5578 -1.6303  1.2607
44904SOL     OW41761   4.501   3.304  11.969 -0.0903 -0.4741 -0.5879
44904SOL    HW141762   4.516   3.398  11.975 -0.6103 -0.4305  0.1865
44904SOL    HW241763   4.565   3.265  12.028  0.8246 -0.6950 -1.6880
44905SOL     OW41764   5.246   0.510   4.251  0.1242  0.0551  0.1183
44905SOL    HW141765   5.213   0.600   4.248  0.2327  0.1606  1.5315
44905SOL    HW241766   5.335   0.519   4.287  0.2446 -0.6025 -0.0073
44906SOL     OW41767   6.616   1.248   1.736 -0.4887 -0.5276  0.0847
44906SOL    HW141768   6.585   1.312   1.801  0.0938 -0.3292  0.1743
44906SOL    HW241769   6.579   1.278   1.653  0.2466  0.2699  0.0275
44907SOL     OW41770   5.294   7.239   2.459 -0.6287  0.3622  0.6471
44907SOL    HW141771   5.363   7.263   2.398 -0.0583  0.0479  1.1565
44907SOL    HW241772   5.214   7.241   2.407 -0.1822  0.3113 -0.0513
44908SOL     OW41773   9.506   5.092   4.746  0.1083 -0.3795 -0.3159
44908SOL    HW141774   9.455   5.011   4.736 -0.5496 -0.0114 -0.0060
44908SOL    HW241775   9.545   5.106   4.659 -0.6278 -0.4643 -0.6683
44909SOL     OW41776   0.431   8.918   2.472 -0.3619  0.1600 -0.2167
44909SOL    HW141777   0.487   8.975   2.420 -0.6973 -0.3141 -1.1023
44909SOL    HW241778   0.400   8.974   2.543  1.6670  0.3002  0.6480
44910SOL     OW41779   0.026   6.144   8.195  0.2928  0.1433  0.2350
44910SOL    HW141780  -0.006   6.142   8.285 -0.2027 -1.5862  0.0560
44910SOL    HW241781   0.008   6.056   8.160  0.8131  0.6456 -1.4355
44911SOL     OW41782   8.960   5.911   0.182  0.3050  0.0106  0.1456
44911SOL    HW141783   8.958   5.876   0.094 -1.6426 -0.0702  0.1872
44911SOL    HW241784   9.029   5.978   0.180 -0.1436  0.4526 -1.6031
44912SOL     OW41785   6.253  10.399   7.938 -0.3742 -0.4842  0.0592
44912SOL    HW141786   6.273  10.322   7.885 -1.5064 -0.4039 -0.5231
44912SOL    HW241787   6.281  10.473   7.883 -1.7935 -0.3896 -0.5682
44913SOL     OW41788   2.290   7.729   6.402  0.1817 -0.1424 -0.0566
44913SOL    HW141789   2.311   7.694   6.489  0.7264 -1.4294 -0.6921
44913SOL    HW241790   2.209   7.685   6.377  1.5374 -2.0182 -1.4035
44914SOL     OW41791  10.963   7.556   1.168  0.1857 -0.5350 -0.3440
44914SOL    HW141792  10.983   7.492   1.100 -0.1028 -1.8087  0.7207
44914SOL    HW241793  10.900   7.512   1.225  0.8732  0.2511  1.0927
44915SOL     OW41794   8.069   0.312  11.168 -0.0214 -0.5065 -0.3318
44915SOL    HW141795   8.004   0.248  11.139 -0.0883 -1.0230  0.8933
44915SOL    HW241796   8.153   0.271  11.149 -0.0432 -1.5291  1.4771
44916SOL     OW41797  10.929   1.023   0.184  0.2519  0.5867 -0.2923
44916SOL    HW141798  10.964   1.046   0.098 -0.9596  0.2642 -0.9073
44916SOL    HW241799  10.946   1.099   0.238 -0.2722  1.4054 -1.2353
44917SOL     OW41800   0.874   4.033   6.112  0.1075  0.3264  0.0277
44917SOL    HW141801   0.815   4.054   6.185  0.9234 -1.9227  1.4612
44917SOL    HW241802   0.931   4.109   6.104 -0.3724  0.8630  1.3886
44918SOL     OW41803   7.871  11.422   8.447 -0.0407  0.2354  0.5202
44918SOL    HW141804   7.948  11.425   8.503  0.4288 -0.2042 -0.0832
44918SOL    HW241805   7.872  11.333   8.409 -1.3950 -0.1279  1.2626
44919SOL     OW41806   6.581   2.145  10.789  0.4087  0.0224  0.3122
44919SOL    HW141807   6.515   2.087  10.752 -0.8016  1.2557  0.4256
44919SOL    HW241808   6.627   2.092  10.854 -0.0666 -1.0373 -0.2008
44920SOL     OW41809  12.053  10.664   1.718 -0.2387 -0.2724  0.4416
44920SOL    HW141810  12.116  10.650   1.647 -0.4449 -1.7362  0.5198
44920SOL    HW241811  11.975  10.617   1.691 -1.8769  2.5816 -0.2742
44921SOL     OW41812   0.173  12.542   7.239 -0.5567 -0.1953  0.0375
44921SOL    HW141813   0.257  12.511   7.203 -0.7921 -1.2838  0.3664
44921SOL    HW241814   0.145  12.470   7.296 -1.2428  0.5802  0.6832
44922SOL     OW41815   4.830   7.644   9.655  0.2135 -0.0255  0.6971
44922SOL    HW141816   4.869   7.613   9.736  0.2260  1.1761  1.1754
44922SOL    HW241817   4.789   7.728   9.678  1.8479  1.3025 -0.9018
44923SOL     OW41818   5.012   0.804  10.673 -0.0337 -0.4043 -0.2738
44923SOL    HW141819   5.046   0.798  10.762 -1.2354 -1.0694  0.1613
44923SOL    HW241820   5.074   0.753  10.620  1.0282  0.5069  0.0525
44924SOL     OW41821  10.109   9.876   3.518  0.2029  0.2900  0.1681
44924SOL    HW141822  10.083   9.961   3.554 -1.4349  0.6342 -1.6237
44924SOL    HW241823  10.027   9.828   3.508  0.8008 -0.5156 -1.1705
44925SOL     OW41824   4.264   2.105   1.830 -0.1365  0.5464  0.3103
44925SOL    HW141825   4.306   2.139   1.751  0.4993  1.9476  1.2095
44925SOL    HW241826   4.325   2.039   1.863  0.0490  0.6371  0.1507
44926SOL     OW41827  11.847   5.919  10.878  0.1728 -0.4503 -0.1608
44926SOL    HW141828  11.805   5.893  10.796  0.1797 -0.5749 -0.1245
44926SOL    HW241829  11.826   6.012  10.887  1.1969 -0.1207 -0.9225
44927SOL     OW41830   0.945  10.635  10.552 -0.5075  0.1027 -0.3370
44927SOL    HW141831   0.993  10.704  10.505 -0.3842 -0.4492 -1.0354
44927SOL    HW241832   0.994  10.622  10.633 -0.4813  0.7706 -0.2384
44928SOL     OW41833   6.749   3.210   6.623  0.0818  0.2579  0.0118
44928SOL    HW141834   6.687   3.138   6.631 -1.1584  1.3468  0.4172
44928SOL    HW241835   6.835   3.167   6.616 -0.5895 -1.2318  0.6320
44929SOL     OW41836   6.091   0.448   9.645 -0.0464 -0.1321  0.0104
44929SOL    HW141837   6.172   0.409   9.611  0.8252 -0.8627  2.7000
44929SOL    HW241838   6.021   0.395   9.607  0.9698 -2.1841  0.8228
44930SOL     OW41839   4.854   5.675   1.870  0.4671  0.1830  0.1822
44930SOL    HW141840   4.936   5.692   1.917  1.9215  1.0972 -2.5248
44930SOL    HW241841   4.810   5.761   1.868  1.0457  0.4622 -1.2132
44931SOL     OW41842  11.941   5.110  11.696  0.2711  0.0345  0.2721
44931SOL    HW141843  12.036   5.101  11.702  0.2087 -2.3154 -0.9997
44931SOL    HW241844  11.908   5.020  11.695 -2.0035  0.7873  0.9031
44932SOL     OW41845   1.727   0.680   8.905  0.1587 -0.3427 -0.2811
44932SOL    HW141846   1.702   0.591   8.928  0.3350 -0.9336 -2.2624
44932SOL    HW241847   1.659   0.710   8.845  0.9864  0.2168 -0.9672
44933SOL     OW41848  10.331  10.961   6.330  0.5535  0.2398 -0.4331
44933SOL    HW141849  10.350  11.045   6.289 -1.9485  2.4726  2.5048
44933SOL    HW241850  10.360  10.972   6.421 -0.9382 -1.6185  0.3221
44934SOL     OW41851  10.010   4.018   6.201 -0.6395  0.0969  0.1581
44934SOL    HW141852   9.974   4.095   6.157  2.0736  0.2965 -1.9535
44934SOL    HW241853  10.055   3.969   6.132 -1.6693 -3.1145  1.5487
44935SOL     OW41854  12.131   0.691  10.649 -0.1661  0.8179  0.3404
44935SOL    HW141855  12.057   0.630  10.652  0.8059 -0.4031  0.2027
44935SOL    HW241856  12.091   0.777  10.643 -1.5739  0.1616 -0.0300
44936SOL     OW41857   4.890   3.514  12.180  0.7231  0.6248  0.0921
44936SOL    HW141858   4.920   3.424  12.195  0.2005  0.1679 -1.4105
44936SOL    HW241859   4.847   3.538  12.262  0.8714 -0.4936  0.5227
44937SOL     OW41860   1.503   1.318  10.501 -0.0462  0.2143 -0.0850
44937SOL    HW141861   1.415   1.318  10.463 -0.2182  0.6841  0.3170
44937SOL    HW241862   1.489   1.317  10.595  0.3856 -0.7414 -0.0134
44938SOL     OW41863   9.059   2.531  10.871 -0.2500  0.0163  0.0956
44938SOL    HW141864   9.006   2.537  10.792 -1.2673 -2.3831  0.5204
44938SOL    HW241865   9.145   2.500  10.840  0.3348  1.9286 -0.3465
44939SOL     OW41866   9.253   5.944   3.644 -0.4479 -0.1709 -0.1818
44939SOL    HW141867   9.206   5.862   3.629  1.3932 -1.2933 -0.2364
44939SOL    HW241868   9.320   5.946   3.576  0.1743  0.8868  0.4279
44940SOL     OW41869   9.912   7.555   9.227 -0.0262 -0.3236  0.3244
44940SOL    HW141870   9.870   7.469   9.236  0.4359 -0.4403  1.5825
44940SOL    HW241871   9.889   7.584   9.139 -2.7414 -0.3689  0.9432
44941SOL     OW41872  11.225   6.340   6.195 -0.3388 -0.3914  0.2984
44941SOL    HW141873  11.228   6.304   6.283  0.9885 -0.0977  0.4008
44941SOL    HW241874  11.213   6.264   6.138 -1.0580 -0.5957  0.7138
44942SOL     OW41875  10.646   2.962   4.439 -0.2459  0.0591 -0.0251
44942SOL    HW141876  10.607   2.902   4.503  0.7730 -1.9787 -1.1892
44942SOL    HW241877  10.738   2.935   4.434 -0.2122  0.4066 -2.0458
44943SOL     OW41878   5.248   0.098   9.710 -0.0403  0.3641  0.4731
44943SOL    HW141879   5.180   0.040   9.676 -0.6626  0.7622  1.0206
44943SOL    HW241880   5.296   0.126   9.632 -0.7605  0.4000  0.0362
44944SOL     OW41881   7.718   0.534  10.607  0.1008 -0.1177  0.0963
44944SOL    HW141882   7.772   0.494  10.675 -1.6352 -0.1806  1.5199
44944SOL    HW241883   7.723   0.628  10.625 -0.0213 -0.1009  0.0449
44945SOL     OW41884  12.334  12.407   1.861 -0.3029  0.5303 -0.2949
44945SOL    HW141885  12.254  12.403   1.912 -0.0897  0.6076  0.0489
44945SOL    HW241886  12.314  12.467   1.789 -1.3141 -1.2133 -1.5734
44946SOL     OW41887   7.135   0.824   6.244  0.0677  0.2228  0.1901
44946SOL    HW141888   7.091   0.909   6.251 -0.2586  0.3682 -2.5004
44946SOL    HW241889   7.186   0.831   6.163  1.2883 -1.6140  0.7548
44947SOL     OW41890   3.096   1.688   6.438  0.4392 -0.1212  0.0826
44947SOL    HW141891   3.118   1.615   6.495  0.1560  0.9734  1.6519
44947SOL    HW241892   3.176   1.740   6.433 -0.3520  1.3965  2.0277
44948SOL     OW41893   7.795   2.761   1.730  0.0264 -0.1231 -0.0501
44948SOL    HW141894   7.782   2.856   1.736  0.3908 -0.1188  1.0768
44948SOL    HW241895   7.717   2.729   1.686 -0.4888  0.6222  0.2906
44949SOL     OW41896   5.756   6.701  11.689 -0.2115 -0.7160 -0.3699
44949SOL    HW141897   5.792   6.645  11.758  0.3682 -0.1518 -0.2033
44949SOL    HW241898   5.829   6.717  11.630 -0.2768  0.1483 -0.2287
44950SOL     OW41899   3.360   0.481   0.260  0.3318 -0.2178  0.2168
44950SOL    HW141900   3.390   0.563   0.222  1.3504 -0.3201  0.7806
44950SOL    HW241901   3.431   0.453   0.317  0.7099 -2.3339 -1.1901
44951SOL     OW41902   7.301  11.725   4.705 -0.5865  0.0813 -0.2398
44951SOL    HW141903   7.227  11.741   4.764 -0.6085  0.0808 -0.2669
44951SOL    HW241904   7.302  11.801   4.646  2.4431  2.7190  2.7943
44952SOL     OW41905   9.141   0.022   3.605  0.2850  0.4442  1.0333
44952SOL    HW141906   9.150   0.002   3.512  1.0383  1.0430  0.9699
44952SOL    HW241907   9.143  -0.063   3.649 -0.4570  0.1280  0.4827
44953SOL     OW41908  12.334  12.421   2.578 -0.3824 -0.3639 -0.2045
44953SOL    HW141909  12.344  12.514   2.559 -0.2510 -0.3956 -0.2925
44953SOL    HW241910  12.242  12.411   2.602 -0.2545 -0.1097  0.3917
44954SOL     OW41911   6.869   6.650   8.341  0.3914 -0.6855 -0.0771
44954SOL    HW141912   6.950   6.641   8.291  0.2108 -0.6612 -0.3761
44954SOL    HW241913   6.869   6.741   8.371  2.5240 -1.6597  3.4694
44955SOL     OW41914   9.147   8.816   1.596  0.2676  0.1332 -0.1678
44955SOL    HW141915   9.193   8.755   1.538 -0.3739  0.1047 -0.6529
44955SOL    HW241916   9.066   8.771   1.618  1.8389 -1.3246  3.4090
44956SOL     OW41917  10.228   1.675   6.037  0.1400 -0.1544  0.1451
44956SOL    HW141918  10.279   1.722   5.971  1.9753 -1.0667  0.8344
44956SOL    HW241919  10.221   1.586   6.004  0.1279 -0.3521  0.6706
44957SOL     OW41920  11.299   4.630   7.454  0.4645 -0.1689  0.4239
44957SOL    HW141921  11.340   4.703   7.408 -2.1113  2.0495  1.3677
44957SOL    HW241922  11.284   4.663   7.543 -0.0846 -2.1429  1.1103
44958SOL     OW41923   9.831   3.695  11.742 -0.3058  0.1508  0.3312
44958SOL    HW141924   9.801   3.605  11.734 -0.4834 -0.0588  2.5558
44958SOL    HW241925   9.912   3.689  11.793 -0.6340  1.2454  1.0267
44959SOL     OW41926   5.932   1.722   1.276 -0.0890  0.2775  0.5147
44959SOL    HW141927   5.931   1.641   1.328 -5.5092 -1.6051 -1.7720
44959SOL    HW241928   5.996   1.706   1.207 -1.0211 -2.2643  0.1199
44960SOL     OW41929   9.670  11.895   7.174 -0.2107 -0.7717  0.1631
44960SOL    HW141930   9.761  11.906   7.148  0.0743  0.8327  1.6476
44960SOL    HW241931   9.672  11.828   7.243 -0.3994 -1.8972 -0.8911
44961SOL     OW41932   3.861   3.193   0.838  0.7457 -0.2038 -0.0700
44961SOL    HW141933   3.768   3.198   0.859  0.6143 -2.1752 -0.0113
44961SOL    HW241934   3.891   3.111   0.878  2.3725  0.0898 -0.5942
44962SOL     OW41935   2.573   1.572   3.340  0.1972  0.3878  0.3237
44962SOL    HW141936   2.493   1.530   3.309 -0.9617  0.4704  2.9200
44962SOL    HW241937   2.551   1.665   3.342  1.5525  0.8172 -2.0749
44963SOL     OW41938  10.234   6.174   6.818  0.0869 -0.0982  0.2391
44963SOL    HW141939  10.319   6.170   6.773 -0.8689 -2.4132 -1.5821
44963SOL    HW241940  10.180   6.230   6.762  0.1567  0.7444  0.9928
44964SOL     OW41941   8.663  10.006   6.614 -0.4143  0.1133  0.0714
44964SOL    HW141942   8.680   9.931   6.671  0.0189 -1.2319 -1.7205
44964SOL    HW241943   8.570  10.026   6.628 -0.9494 -1.7564 -0.4887
44965SOL     OW41944   6.689   9.474   7.421 -0.6185  0.0278 -0.0588
44965SOL    HW141945   6.697   9.389   7.378 -0.5667  0.6213 -1.2612
44965SOL    HW241946   6.733   9.535   7.362  1.2950  0.5889  1.7941
44966SOL     OW41947   4.269   9.340   1.806 -0.3472 -0.3276 -0.1654
44966SOL    HW141948   4.260   9.249   1.779 -0.5697 -0.7381  1.2224
44966SOL    HW241949   4.245   9.390   1.728 -3.1987 -1.4204 -0.1026
44967SOL     OW41950   0.139   7.878   8.392 -0.6348 -0.6731 -0.2132
44967SOL    HW141951   0.088   7.958   8.403 -0.0798 -0.5887  2.3271
44967SOL    HW241952   0.088   7.811   8.438  0.4230 -1.0554  0.4473
44968SOL     OW41953   6.815   2.466   6.554  0.4409 -0.0471  0.1494
44968SOL    HW141954   6.885   2.483   6.617  1.1480 -0.1499 -0.6027
44968SOL    HW241955   6.735   2.491   6.601  1.0530  1.0606  0.6617
44969SOL     OW41956   3.565  12.367   2.647  0.2136 -0.4415  0.2508
44969SOL    HW141957   3.625  12.294   2.629  1.7829  0.9921 -0.5777
44969SOL    HW241958   3.611  12.419   2.714  1.7555  2.6234 -2.8823
44970SOL     OW41959   8.587   9.608   0.467  0.0288 -0.7396  0.3501
44970SOL    HW141960   8.560   9.516   0.469 -2.6899 -0.0347  1.4878
44970SOL    HW241961   8.567   9.641   0.555  0.1865  1.1060 -0.2609
44971SOL     OW41962   5.500   8.997  10.705 -0.9514 -0.5252 -0.3013
44971SOL    HW141963   5.579   8.964  10.748  0.8500  0.6455 -2.5096
44971SOL    HW241964   5.431   8.983  10.770  1.1786 -0.7963  2.1046
44972SOL     OW41965   9.877  12.267   2.741  0.2293  0.5857 -0.0714
44972SOL    HW141966   9.829  12.213   2.804  2.7639 -1.0774  0.5918
44972SOL    HW241967   9.928  12.327   2.795  1.1184  0.3189 -0.5974
44973SOL     OW41968   4.352   1.622   8.612 -0.4236 -0.1178 -0.4726
44973SOL    HW141969   4.402   1.544   8.634 -0.4867  0.4292  1.7937
44973SOL    HW241970   4.261   1.592   8.609 -0.6172  0.0669  1.8326
44974SOL     OW41971  11.350   0.451   1.759 -0.3434 -0.4217 -0.1756
44974SOL    HW141972  11.317   0.532   1.719 -0.3905 -1.5564 -2.5579
44974SOL    HW241973  11.443   0.466   1.772 -0.2050 -0.2562 -1.3304
44975SOL     OW41974  10.804   3.313   6.982  0.2735 -0.1057 -0.2179
44975SOL    HW141975  10.797   3.407   6.964 -1.3157 -0.3829 -1.3046
44975SOL    HW241976  10.780   3.305   7.074  0.4743  0.5653 -0.1020
44976SOL     OW41977   7.670   1.657   0.167 -0.0152  1.2401  0.2260
44976SOL    HW141978   7.664   1.646   0.072 -1.6915 -1.1516  0.5271
44976SOL    HW241979   7.653   1.750   0.181 -0.1557  1.5638 -1.7744
44977SOL     OW41980   9.788   0.697  10.038 -0.3787 -0.4058 -0.2199
44977SOL    HW141981   9.817   0.643  10.112 -1.7350 -0.7235  0.1107
44977SOL    HW241982   9.862   0.754  10.020  0.7559 -1.7290  0.0356
44978SOL     OW41983  11.090   4.896   1.126  0.5550  0.3073  0.2298
44978SOL    HW141984  11.110   4.806   1.150 -2.3184 -0.3711  0.4299
44978SOL    HW241985  11.088   4.944   1.209 -0.8050 -0.1403  0.4841
44979SOL     OW41986  10.786   4.420  11.381 -0.0830  0.2502  0.4784
44979SOL    HW141987  10.752   4.347  11.330  0.0902  0.8335 -0.4900
44979SOL    HW241988  10.881   4.414  11.371 -0.1168  1.5007 -0.9038
44980SOL     OW41989   5.018   6.579   3.444  0.0359 -0.5253 -0.2469
44980SOL    HW141990   4.987   6.507   3.498  1.7234 -0.2439  1.1893
44980SOL    HW241991   4.987   6.658   3.487 -0.4078 -0.3395 -0.8924
44981SOL     OW41992   9.588  10.744   2.331 -0.1589  0.2585 -0.1781
44981SOL    HW141993   9.534  10.665   2.329 -1.1486  0.9120 -0.1361
44981SOL    HW241994   9.669  10.719   2.288 -1.2014 -0.2503 -1.9286
44982SOL     OW41995   1.920  11.720   1.906  0.0854  0.2655 -0.1392
44982SOL    HW141996   1.828  11.711   1.933  0.2473 -2.0084 -0.1608
44982SOL    HW241997   1.916  11.764   1.821 -1.0932 -1.0137 -0.7795
44983SOL     OW41998   3.740   5.044   2.522  0.1849 -0.0757 -0.6250
44983SOL    HW141999   3.825   5.019   2.559 -0.3549 -0.6434  0.2830
44983SOL    HW242000   3.730   4.988   2.445  0.0909 -0.9263 -0.0132
44984SOL     OW42001   4.660   6.697   3.086 -0.3263  0.0949 -0.5090
44984SOL    HW142002   4.718   6.757   3.133 -0.1716 -0.0451 -0.5229
44984SOL    HW242003   4.574   6.710   3.127 -0.7790  1.8590 -1.8695
44985SOL     OW42004   5.685   9.981  11.750  0.1715 -0.0359  0.1442
44985SOL    HW142005   5.723  10.063  11.782 -0.5236 -0.0327  0.9982
44985SOL    HW242006   5.759   9.920  11.746  1.2097  1.2368 -2.8265
44986SOL     OW42007   4.161   7.753   5.369 -0.2201  0.9116 -0.2816
44986SOL    HW142008   4.122   7.840   5.369 -1.3215  0.4512 -1.4877
44986SOL    HW242009   4.170   7.731   5.276 -0.6071 -0.5300 -0.0001
44987SOL     OW42010  12.050   0.235   8.901  0.0716  1.0049  0.4123
44987SOL    HW142011  12.023   0.306   8.959  2.1300  1.9100  0.3524
44987SOL    HW242012  12.145   0.228   8.914 -0.1004 -2.1062  0.8006
44988SOL     OW42013  11.364   7.729  11.359 -0.4141  0.7244 -0.4932
44988SOL    HW142014  11.371   7.761  11.269 -0.5294  1.7927 -0.1303
44988SOL    HW242015  11.406   7.796  11.412 -0.0993 -0.0315  0.2354
44989SOL     OW42016   7.628   2.322   3.939  1.0012 -0.1780 -0.7398
44989SOL    HW142017   7.615   2.415   3.921 -0.9313 -0.4380 -0.8955
44989SOL    HW242018   7.591   2.309   4.026 -3.3599 -1.5828 -2.4983
44990SOL     OW42019  10.084   7.174   0.399  0.3256  0.1097 -0.4674
44990SOL    HW142020  10.048   7.190   0.487 -0.7959 -1.0699 -0.6625
44990SOL    HW242021  10.027   7.224   0.341 -0.1170 -0.5951 -0.6578
44991SOL     OW42022   9.587   3.846   5.258  0.4663 -0.0912  0.0482
44991SOL    HW142023   9.625   3.933   5.250 -0.6946  0.5793  1.4295
44991SOL    HW242024   9.505   3.851   5.210 -0.4441  0.1323  1.5804
44992SOL     OW42025  12.146   1.670   1.445  0.6568  0.1948 -0.0165
44992SOL    HW142026  12.067   1.715   1.477  0.4320 -0.0901 -0.1674
44992SOL    HW242027  12.140   1.677   1.350 -0.4802 -1.9596 -0.1775
44993SOL     OW42028  11.094   6.636   1.705 -0.2715  0.0488  0.0140
44993SOL    HW142029  11.138   6.658   1.787 -0.3506  1.6576 -0.3476
44993SOL    HW242030  11.006   6.607   1.733 -0.7479  1.8226  0.4568
44994SOL     OW42031  11.712   1.464   8.121 -0.2244  0.2202  0.2080
44994SOL    HW142032  11.661   1.405   8.066 -1.1223 -0.0593  1.3164
44994SOL    HW242033  11.803   1.434   8.110 -0.5669 -0.8057  0.0636
44995SOL     OW42034  12.334   1.998   7.679 -0.3733  0.4308 -0.1689
44995SOL    HW142035  12.306   1.918   7.635 -0.2072  0.6953 -0.7719
44995SOL    HW242036  12.382   1.968   7.755 -1.8398 -0.0385  0.6140
44996SOL     OW42037  10.726   1.505   5.922 -0.0138 -0.0517 -0.0815
44996SOL    HW142038  10.793   1.460   5.973 -0.0230 -1.2066 -1.0518
44996SOL    HW242039  10.648   1.450   5.931  0.0278 -0.3568 -1.4541
44997SOL     OW42040   6.180   0.570  12.293  0.5974 -0.1835 -0.4832
44997SOL    HW142041   6.131   0.493  12.320 -1.6776  1.4489  0.3247
44997SOL    HW242042   6.264   0.563  12.339  0.0682 -1.6913  0.3050
44998SOL     OW42043   7.416   8.714   3.808 -0.3912  0.5029 -0.3333
44998SOL    HW142044   7.481   8.716   3.738 -0.7774 -0.0250 -0.7120
44998SOL    HW242045   7.344   8.766   3.774 -0.9479 -0.4807 -0.7123
44999SOL     OW42046   1.226   6.416   1.357 -0.5648 -0.5076 -0.4848
44999SOL    HW142047   1.157   6.461   1.307 -0.4682 -0.5257 -0.6344
44999SOL    HW242048   1.237   6.469   1.436 -0.4549 -0.2703 -0.6570
45000SOL     OW42049   7.172   0.170  12.318 -0.3545  0.0372 -0.6429
45000SOL    HW142050   7.214   0.087  12.340 -0.6033  0.6055  2.3929
45000SOL    HW242051   7.078   0.151  12.322 -0.4106  0.3931 -0.1741
45001SOL     OW42052   3.980   3.784   4.859  0.1540  0.1188 -0.6587
45001SOL    HW142053   4.051   3.721   4.866  0.8635  1.0086  0.4365
45001SOL    HW242054   3.927   3.769   4.937  0.1128  0.6421 -0.5876
45002SOL     OW42055   9.220  11.073   1.821  0.5977 -0.0812  0.4275
45002SOL    HW142056   9.187  11.141   1.764  0.3231  0.0999  0.7957
45002SOL    HW242057   9.243  11.001   1.762  0.9851  0.3621  0.0313
45003SOL     OW42058   8.159   5.948  11.224  0.4825  0.0219  0.0438
45003SOL    HW142059   8.167   6.042  11.207  0.2136  0.0492  0.0649
45003SOL    HW242060   8.243   5.924  11.263  0.0013  0.5590  1.4807
45004SOL     OW42061   6.059   9.606   6.605 -0.2480  0.0458 -0.6827
45004SOL    HW142062   6.117   9.675   6.572  0.6047 -0.8440 -1.0919
45004SOL    HW242063   6.105   9.570   6.680 -0.3528 -0.5458 -0.8993
45005SOL     OW42064   9.022  10.934   3.694 -0.2025 -0.1493 -0.1658
45005SOL    HW142065   9.114  10.936   3.717 -0.1751 -0.9822 -0.1708
45005SOL    HW242066   8.976  10.954   3.776 -0.0435 -0.8367  0.0933
45006SOL     OW42067   7.695  10.966   3.201  0.0244 -0.4666 -0.4523
45006SOL    HW142068   7.630  11.030   3.229 -0.3517 -0.6637 -0.8615
45006SOL    HW242069   7.779  11.010   3.214 -0.2614  0.4414 -1.5361
45007SOL     OW42070   2.423   4.260   0.884 -0.8779  0.0414 -0.0044
45007SOL    HW142071   2.429   4.300   0.970 -0.7970 -0.2201  0.1126
45007SOL    HW242072   2.499   4.293   0.837 -2.0500  1.8951 -0.7093
45008SOL     OW42073   7.960   5.446   1.856 -0.1967  0.3698 -0.1655
45008SOL    HW142074   7.909   5.381   1.904 -0.1228 -0.4610 -1.1617
45008SOL    HW242075   7.916   5.453   1.771  1.1074 -0.0986 -0.9098
45009SOL     OW42076   6.996   7.392   4.494 -0.2164  0.4697 -0.1381
45009SOL    HW142077   7.012   7.317   4.551  0.0740 -0.8633 -1.9261
45009SOL    HW242078   6.995   7.467   4.554 -0.3866 -0.9174  1.6724
45010SOL     OW42079   4.634   0.910  10.276  0.3947 -0.2277 -0.0573
45010SOL    HW142080   4.709   0.875  10.324  1.1427  0.1125 -0.9485
45010SOL    HW242081   4.576   0.835  10.262  1.0611 -0.7056 -0.2636
45011SOL     OW42082   6.669   1.562   1.065 -0.1770  0.5928  0.3395
45011SOL    HW142083   6.637   1.518   0.986  2.0892 -0.4891 -0.0588
45011SOL    HW242084   6.593   1.610   1.098 -1.3479  0.6647 -2.1946
45012SOL     OW42085   2.194   9.962  10.015 -0.3223  0.0809  0.2263
45012SOL    HW142086   2.252  10.038  10.016 -1.7643  1.2206  1.2006
45012SOL    HW242087   2.135   9.979   9.941 -1.8423  0.9161  1.5561
45013SOL     OW42088   1.773   6.869   3.506  0.1783 -0.3092  0.3953
45013SOL    HW142089   1.859   6.843   3.474  0.0893 -0.3323  0.1710
45013SOL    HW242090   1.785   6.880   3.601  1.1628  2.6232  0.0102
45014SOL     OW42091   6.776  10.267   3.127  0.1651 -0.6104 -0.5556
45014SOL    HW142092   6.840  10.197   3.115 -0.3903 -1.0943 -0.7562
45014SOL    HW242093   6.760  10.301   3.039  0.5604 -0.1154 -0.4373
45015SOL     OW42094   7.695   7.147   4.472  0.1553  0.1599  0.2591
45015SOL    HW142095   7.696   7.063   4.518 -0.7402 -0.0918 -0.1678
45015SOL    HW242096   7.666   7.210   4.538 -0.1569 -0.0372  0.3112
45016SOL     OW42097   5.045   9.317  10.186 -0.0274  0.3249  0.4662
45016SOL    HW142098   5.027   9.265  10.108  0.0204  0.9126  0.0599
45016SOL    HW242099   5.037   9.255  10.259 -2.8111  0.3396  0.2604
45017SOL     OW42100  12.555   4.206  10.423 -0.0967  0.1503  0.9598
45017SOL    HW142101  12.643   4.215  10.459  0.1923 -0.6629  0.4826
45017SOL    HW242102  12.499   4.193  10.500  0.2310  0.3974  1.2448
45018SOL     OW42103  10.806   1.781   7.607  0.0944 -0.3077 -0.0606
45018SOL    HW142104  10.876   1.758   7.669 -0.4152  1.4848  1.2881
45018SOL    HW242105  10.728   1.789   7.662 -0.6213  0.1857 -1.1264
45019SOL     OW42106   3.518   3.838   2.003 -0.3745 -0.1631  0.1344
45019SOL    HW142107   3.556   3.772   2.062  1.2363  0.0383 -0.6039
45019SOL    HW242108   3.552   3.921   2.035 -1.5541  0.2148  0.4323
45020SOL     OW42109   2.825   5.092  10.480  0.1499 -0.7919  0.1415
45020SOL    HW142110   2.801   5.184  10.492 -0.7774 -0.5174 -2.9335
45020SOL    HW242111   2.822   5.055  10.568 -1.7402  1.5925  1.2122
45021SOL     OW42112   6.558   4.603   4.229  0.1711  0.0324  0.5477
45021SOL    HW142113   6.593   4.548   4.158  3.2568  2.2624  0.1399
45021SOL    HW242114   6.581   4.556   4.309 -1.8275 -1.6607  0.2282
45022SOL     OW42115  10.323   0.767   6.816  0.0642 -0.5449 -0.1975
45022SOL    HW142116  10.391   0.821   6.777 -0.4322 -0.7493 -1.3826
45022SOL    HW242117  10.351   0.755   6.907 -0.0225  2.0125  0.2199
45023SOL     OW42118  10.336   2.627   6.318  0.6730 -1.0094  0.1080
45023SOL    HW142119  10.395   2.551   6.318 -0.0916 -1.6709  1.7623
45023SOL    HW242120  10.257   2.595   6.361 -0.4311  0.2042 -0.9533
45024SOL     OW42121   9.862   0.187   5.114 -0.1986 -0.6692 -0.4364
45024SOL    HW142122   9.768   0.174   5.108 -0.2594 -0.7947  0.5457
45024SOL    HW242123   9.872   0.277   5.146  0.0781 -0.0574 -2.1455
45025SOL     OW42124  12.039   8.395   1.101 -0.0360  0.1215 -0.1057
45025SOL    HW142125  11.954   8.355   1.122 -0.4774  0.1541 -1.6949
45025SOL    HW242126  12.100   8.321   1.099  0.1128  0.1767  1.6449
45026SOL     OW42127   1.156   0.833  10.304 -0.2155 -0.0878  0.1636
45026SOL    HW142128   1.120   0.916  10.334  2.6426  1.2854  0.0972
45026SOL    HW242129   1.137   0.830  10.210 -0.2982  0.4975  0.1638
45027SOL     OW42130  10.304  11.297   5.011  0.3622  0.6486 -0.2329
45027SOL    HW142131  10.334  11.210   4.985 -1.8062 -0.1941 -0.0359
45027SOL    HW242132  10.359  11.357   4.959  0.7557 -0.8558 -1.6257
45028SOL     OW42133   5.511   8.590   1.265  0.4387  0.0672 -0.6561
45028SOL    HW142134   5.461   8.669   1.244 -0.0032 -0.0140  0.0440
45028SOL    HW242135   5.494   8.576   1.359  2.3349  0.4249 -0.2230
45029SOL     OW42136   4.582   9.693   4.049  0.1645  0.3026 -0.0446
45029SOL    HW142137   4.630   9.622   4.007 -0.0057  0.8985 -1.3348
45029SOL    HW242138   4.615   9.772   4.005 -1.5906  0.7674 -0.6180
45030SOL     OW42139   7.233  10.409   4.257 -0.3543 -0.4297 -0.2166
45030SOL    HW142140   7.197  10.331   4.216  2.7563 -1.5458 -1.0317
45030SOL    HW242141   7.235  10.388   4.351  0.8462 -1.5694 -0.4659
45031SOL     OW42142   8.449   8.834   7.958 -0.4080  0.4491 -0.7728
45031SOL    HW142143   8.429   8.811   7.867  0.7173 -1.6614 -0.5566
45031SOL    HW242144   8.545   8.843   7.959  0.0004 -2.5921  0.7168
45032SOL     OW42145   5.802  10.720  10.796 -0.0155 -0.3250  0.0713
45032SOL    HW142146   5.840  10.649  10.848  2.2526 -0.0322 -1.0696
45032SOL    HW242147   5.822  10.799  10.845  3.3199  0.0982 -1.6533
45033SOL     OW42148   6.779  11.671  12.522  0.5391 -0.0998 -0.0238
45033SOL    HW142149   6.805  11.583  12.548  1.6814 -0.1652 -1.3020
45033SOL    HW242150   6.856  11.708  12.480 -0.6114  0.6949 -1.5223
45034SOL     OW42151   0.337   3.452  11.044 -0.3654  0.3133 -0.0605
45034SOL    HW142152   0.365   3.482  11.130 -0.6146  0.7073 -0.1145
45034SOL    HW242153   0.413   3.406  11.008  0.2310  1.3814 -0.2145
45035SOL     OW42154   2.820   2.005  11.624  0.4259 -0.3434  0.0759
45035SOL    HW142155   2.783   2.091  11.605  0.3189 -0.8241 -2.2627
45035SOL    HW242156   2.890   1.994  11.559  1.6239 -1.3141  1.4687
45036SOL     OW42157   5.195   6.555   9.342  0.7601 -0.0500  0.0804
45036SOL    HW142158   5.106   6.536   9.369  0.2486  0.7215 -0.9916
45036SOL    HW242159   5.238   6.469   9.341 -0.1041 -0.4967  0.1077
45037SOL     OW42160   0.049   6.332   3.825 -0.0924 -0.0700  0.1947
45037SOL    HW142161   0.040   6.294   3.738  0.8596 -0.1275  0.1130
45037SOL    HW242162  -0.031   6.306   3.871 -0.5132 -0.2022 -0.5920
45038SOL     OW42163   8.602   2.363   9.208  0.3875 -0.2800  0.3992
45038SOL    HW142164   8.644   2.442   9.242  1.1483 -0.0665 -0.9828
45038SOL    HW242165   8.575   2.315   9.286  1.3741  0.5612  1.2885
45039SOL     OW42166   0.538  11.362   1.567 -0.2062 -1.1505  0.1336
45039SOL    HW142167   0.581  11.415   1.634 -0.4978  2.8349 -2.4645
45039SOL    HW242168   0.605  11.347   1.501 -0.5249 -2.9046  0.1738
45040SOL     OW42169  12.266   1.405   6.223 -0.2607  0.0095 -0.0627
45040SOL    HW142170  12.339   1.435   6.277 -0.3744  0.8823 -0.3757
45040SOL    HW242171  12.220   1.343   6.278  0.6578 -0.4763  0.1821
45041SOL     OW42172  11.158   7.475   8.143  0.3319  0.4593  0.5571
45041SOL    HW142173  11.112   7.446   8.065  0.6850  0.0245  0.5057
45041SOL    HW242174  11.249   7.484   8.116  0.6356 -0.6124  1.1314
45042SOL     OW42175   6.672   4.917   0.338  0.0954  0.2629 -0.2556
45042SOL    HW142176   6.609   4.949   0.274 -0.1968  0.2101  0.0038
45042SOL    HW242177   6.738   4.871   0.286 -0.3831 -0.1788 -0.4863
45043SOL     OW42178   2.660   3.817   1.537  0.6100  0.4677  0.0724
45043SOL    HW142179   2.565   3.814   1.529  0.6666 -1.1299 -0.2849
45043SOL    HW242180   2.676   3.863   1.619 -0.3790  3.1750 -1.1345
45044SOL     OW42181   3.726   0.045   0.445 -0.1107  0.9008  0.5963
45044SOL    HW142182   3.670   0.095   0.386  0.6081  2.4904  1.1989
45044SOL    HW242183   3.755   0.109   0.510 -1.9510 -0.9830  3.5560
45045SOL     OW42184   0.700   9.974   7.215 -0.2735  0.4251 -0.5870
45045SOL    HW142185   0.780   9.938   7.177  0.0499  2.9088 -2.5246
45045SOL    HW242186   0.730  10.044   7.273 -0.9968  0.5683 -0.3683
45046SOL     OW42187   1.819   0.967   9.153 -0.3762 -0.1560  0.0661
45046SOL    HW142188   1.875   0.890   9.148  0.5378  0.5399 -0.8163
45046SOL    HW242189   1.810   0.997   9.063  0.3017  1.4625  0.4903
45047SOL     OW42190   9.998   0.193   9.764  0.3512  0.1716 -0.7247
45047SOL    HW142191  10.092   0.197   9.750  0.6141 -0.6854  0.6012
45047SOL    HW242192   9.964   0.147   9.687  0.7106  2.3559 -2.2638
45048SOL     OW42193   8.176   8.232   5.904 -0.0420 -0.5798 -0.3863
45048SOL    HW142194   8.262   8.196   5.925 -0.2755 -1.3883 -0.7741
45048SOL    HW242195   8.171   8.313   5.954  0.3665 -1.2480  0.7779
45049SOL     OW42196   2.129   1.850   4.284 -0.2967 -0.4998  0.1299
45049SOL    HW142197   2.169   1.775   4.328  1.8585 -0.5823 -1.7744
45049SOL    HW242198   2.195   1.919   4.291 -1.0653  0.3267 -0.5991
45050SOL     OW42199  12.322   8.338   5.957 -0.1858  0.3826 -0.3961
45050SOL    HW142200  12.312   8.256   5.909 -0.0780  0.0304  0.1670
45050SOL    HW242201  12.417   8.351   5.962 -0.0141 -1.1426  2.2310
45051SOL     OW42202   7.434   7.397  11.962 -0.2151 -0.6059  0.2061
45051SOL    HW142203   7.475   7.310  11.964  0.8488 -0.1523 -0.4424
45051SOL    HW242204   7.342   7.380  11.943 -0.6474 -1.7411  2.9026
45052SOL     OW42205   5.094  10.157   5.524 -0.1250 -0.0950 -0.2755
45052SOL    HW142206   5.001  10.162   5.547 -0.4225 -0.2273 -1.4051
45052SOL    HW242207   5.132  10.236   5.562 -0.5566 -0.3822  0.7901
45053SOL     OW42208   6.547   7.028   3.800  0.3629  0.0075 -0.4182
45053SOL    HW142209   6.601   6.969   3.854 -1.5619  0.0934  1.7232
45053SOL    HW242210   6.496   6.969   3.745 -1.7632 -0.4809  1.9141
45054SOL     OW42211   5.600   8.905   0.851 -0.0243 -0.5671 -0.2451
45054SOL    HW142212   5.560   8.819   0.835  0.0997 -0.8780  1.0528
45054SOL    HW242213   5.558   8.962   0.786  0.4040 -1.7327 -1.6182
45055SOL     OW42214   8.892  12.528  10.634  0.5210 -0.7702  0.1912
45055SOL    HW142215   8.892  12.593  10.563  0.0237 -0.9068  0.0617
45055SOL    HW242216   8.814  12.548  10.685  0.8211 -0.7372  0.6532
45056SOL     OW42217   5.879   8.325  10.718  0.2901  0.3365 -0.2672
45056SOL    HW142218   5.793   8.358  10.693 -0.4757 -0.8706  0.6865
45056SOL    HW242219   5.908   8.386  10.786 -1.4818 -1.2513  2.0866
45057SOL     OW42220   9.575   0.684  12.468 -0.2368  0.0462 -0.4397
45057SOL    HW142221   9.665   0.711  12.447 -0.1687 -0.1751 -0.4406
45057SOL    HW242222   9.576   0.667  12.562 -0.1561 -0.3914 -0.5136
45058SOL     OW42223   8.344   5.990   1.624 -0.1791  0.5221  0.4412
45058SOL    HW142224   8.256   5.953   1.627 -0.4989  1.2350  0.2186
45058SOL    HW242225   8.374   5.973   1.535  0.0814 -0.0870  0.6383
45059SOL     OW42226   3.820   1.154   2.407 -0.1340  0.2030  0.1933
45059SOL    HW142227   3.806   1.127   2.498  1.0922  0.1996  0.4057
45059SOL    HW242228   3.791   1.080   2.355  0.0329 -0.1744  0.6319
45060SOL     OW42229   3.182   6.869   0.769  0.1552  0.1559 -0.4853
45060SOL    HW142230   3.192   6.809   0.843  1.0544 -0.7481 -1.3083
45060SOL    HW242231   3.167   6.812   0.693  1.9825  0.8695 -1.4563
45061SOL     OW42232   4.588   8.852  12.089  0.4485 -0.2995  0.5002
45061SOL    HW142233   4.499   8.818  12.097  0.4491 -0.1415  1.2272
45061SOL    HW242234   4.582   8.942  12.121  0.3645  0.5508 -1.7357
45062SOL     OW42235   2.012   8.406  11.506 -0.3405  0.2823  0.8474
45062SOL    HW142236   1.968   8.356  11.575  0.0108  0.6181  1.3184
45062SOL    HW242237   2.103   8.412  11.535 -0.1245  0.1712  0.2081
45063SOL     OW42238   1.646   6.421   2.067 -0.1654  0.3181  0.2211
45063SOL    HW142239   1.697   6.497   2.039  1.4373 -0.0326  1.9810
45063SOL    HW242240   1.563   6.459   2.098  0.0009  1.1663 -0.3297
45064SOL     OW42241   8.427   6.615   3.809  0.1036  0.0411  0.2629
45064SOL    HW142242   8.488   6.665   3.862 -2.0067  2.1602  0.8410
45064SOL    HW242243   8.398   6.676   3.741 -2.8540 -0.1585  1.2138
45065SOL     OW42244   1.770   4.120   8.878  0.4220 -0.6799 -0.0871
45065SOL    HW142245   1.802   4.030   8.867 -1.5807 -1.3739 -0.7571
45065SOL    HW242246   1.732   4.121   8.965  1.1612 -0.2214  0.2374
45066SOL     OW42247   6.456   2.853   6.881  0.2381  0.4143  0.5735
45066SOL    HW142248   6.392   2.873   6.812 -0.6715  0.7229  1.4767
45066SOL    HW242249   6.536   2.897   6.853  0.3005 -0.5859 -0.9497
45067SOL     OW42250   5.072   0.045   0.324 -0.1689  0.0207  0.0635
45067SOL    HW142251   5.115  -0.010   0.389 -0.2226 -2.0516 -1.5675
45067SOL    HW242252   4.983   0.013   0.319 -0.3274  0.5414 -0.6342
45068SOL     OW42253   4.903   2.211   2.427  0.9452  0.1596 -0.1008
45068SOL    HW142254   4.977   2.271   2.421  1.6625 -0.7168 -0.1758
45068SOL    HW242255   4.933   2.140   2.483 -0.2434  0.3502  0.8250
45069SOL     OW42256  10.294   7.017   2.031  0.7221 -0.5054 -0.0168
45069SOL    HW142257  10.288   6.998   1.937 -0.4218 -1.0448  0.1517
45069SOL    HW242258  10.204   7.012   2.062  1.0417  0.1028  1.0355
45070SOL     OW42259   5.484   2.710   4.807 -0.3626  0.5523 -0.1603
45070SOL    HW142260   5.549   2.685   4.742 -0.3043  0.0422  0.0888
45070SOL    HW242261   5.529   2.772   4.864 -0.4296  1.0507 -0.6306
45071SOL     OW42262   1.084   7.205   1.343  0.2499 -0.6515  0.1534
45071SOL    HW142263   1.035   7.153   1.279  1.4594 -0.5862 -0.8607
45071SOL    HW242264   1.125   7.140   1.401  0.4886 -0.7745 -0.1528
45072SOL     OW42265   5.268  10.599   6.134 -0.5403 -0.5505 -0.2825
45072SOL    HW142266   5.294  10.549   6.056 -1.3109 -0.4843 -0.5979
45072SOL    HW242267   5.350  10.620   6.178  0.0259  0.5238 -1.7669
45073SOL     OW42268   7.397  12.115   5.073 -0.1661  0.2928  0.2296
45073SOL    HW142269   7.445  12.178   5.126 -0.6696  0.3962  0.5787
45073SOL    HW242270   7.459  12.044   5.058 -0.6933 -0.9447  3.0894
45074SOL     OW42271  11.886   3.835   9.990  0.1290 -0.1457  0.1448
45074SOL    HW142272  11.945   3.761  10.007  0.6243  0.4153  0.9252
45074SOL    HW242273  11.798   3.799   9.999  0.3416 -0.2358  2.5431
45075SOL     OW42274   7.000   4.587   5.968 -0.4384  0.2674 -0.0104
45075SOL    HW142275   7.006   4.654   6.036  0.5935  0.4240 -0.2549
45075SOL    HW242276   7.056   4.618   5.897 -0.4676 -0.5335 -0.3985
45076SOL     OW42277   6.339   4.348   0.955 -0.0781 -0.1173  0.7708
45076SOL    HW142278   6.421   4.397   0.943  0.1751 -0.6517  0.2502
45076SOL    HW242279   6.281   4.382   0.887 -0.8064  1.2906  2.0435
45077SOL     OW42280   6.854   8.061   7.569 -0.1068  0.4504 -0.2384
45077SOL    HW142281   6.917   8.133   7.577  0.3429  0.1977 -1.2358
45077SOL    HW242282   6.895   7.988   7.616  0.4850  0.2187 -1.0777
45078SOL     OW42283   7.288  10.823   3.272 -0.5397  0.3052  0.7450
45078SOL    HW142284   7.323  10.813   3.183 -1.9001 -0.4786  0.2698
45078SOL    HW242285   7.298  10.916   3.291  1.3608  0.2056  0.4766
45079SOL     OW42286   8.998   3.223   9.576 -0.0988  0.0940  0.0024
45079SOL    HW142287   8.962   3.277   9.646  0.2517 -0.6661  0.7805
45079SOL    HW242288   8.935   3.152   9.565 -0.0749  0.1261 -0.3471
45080SOL     OW42289   1.576   3.369   3.634 -0.2831  0.3711 -0.2017
45080SOL    HW142290   1.624   3.293   3.602  1.5560  1.5802 -0.4549
45080SOL    HW242291   1.550   3.344   3.723  0.3788 -0.5208 -0.2388
45081SOL     OW42292   7.951   2.440   8.099 -0.0009  0.4545 -0.4263
45081SOL    HW142293   7.940   2.347   8.116 -0.3191  0.4888 -0.4465
45081SOL    HW242294   8.030   2.445   8.045  1.4299  0.4026  1.5794
45082SOL     OW42295   9.110  10.848   4.152 -0.0271  0.2755 -0.2066
45082SOL    HW142296   9.081  10.859   4.243  0.7331 -1.5090  0.3149
45082SOL    HW242297   9.043  10.793   4.112  0.9102 -1.1235  0.0662
45083SOL     OW42298   7.719   2.167   8.077 -0.3238 -0.7407 -0.1379
45083SOL    HW142299   7.779   2.095   8.097  1.8019  1.3367  1.4627
45083SOL    HW242300   7.738   2.188   7.985  0.9538 -0.5919  0.1294
45084SOL     OW42301   0.237   1.243   3.692 -0.3949 -0.5016 -0.2162
45084SOL    HW142302   0.263   1.214   3.779 -1.3919 -1.0075 -0.0792
45084SOL    HW242303   0.268   1.174   3.633  0.2317 -0.1848 -0.2680
45085SOL     OW42304   2.763   8.809   3.968  0.1705  0.6869 -0.5916
45085SOL    HW142305   2.691   8.870   3.950 -1.1690 -0.4464  0.6598
45085SOL    HW242306   2.756   8.792   4.062  1.7125  0.0822 -0.5692
45086SOL     OW42307   6.643   6.334   0.688 -0.3684 -0.6013 -0.4153
45086SOL    HW142308   6.604   6.416   0.658  0.2863 -1.0602 -2.7275
45086SOL    HW242309   6.603   6.266   0.632  1.2827 -1.4578 -0.6350
45087SOL     OW42310  12.264   2.384   3.213  0.1557 -0.0704 -0.9682
45087SOL    HW142311  12.319   2.330   3.157 -1.9902 -1.8849 -1.4534
45087SOL    HW242312  12.243   2.328   3.288 -1.3058  0.4163 -0.9861
45088SOL     OW42313   2.846   0.895   5.573 -0.5334  0.2902 -0.2489
45088SOL    HW142314   2.825   0.852   5.656 -1.3585  0.9410 -0.1054
45088SOL    HW242315   2.805   0.839   5.506 -0.8960  0.4017 -0.1236
45089SOL     OW42316   1.785  11.514   4.638 -0.5797  0.2887 -0.1883
45089SOL    HW142317   1.763  11.529   4.730 -1.0706 -0.2790 -0.2056
45089SOL    HW242318   1.862  11.457   4.639 -2.4136 -2.3863 -0.0731
45090SOL     OW42319   2.018   2.576  11.413 -0.2736 -0.0522 -0.3256
45090SOL    HW142320   1.925   2.575  11.437 -0.9554  0.6548 -2.7502
45090SOL    HW242321   2.027   2.505  11.349  0.8298  0.0161 -0.2635
45091SOL     OW42322   1.514   4.913   9.621  0.7520  0.0978 -0.2734
45091SOL    HW142323   1.594   4.889   9.574  1.2871  2.5752 -0.7429
45091SOL    HW242324   1.449   4.928   9.553  0.0930 -1.0570  0.0698
45092SOL     OW42325   0.272   8.613  10.571 -0.8063  0.0248 -0.3652
45092SOL    HW142326   0.217   8.642  10.644  0.2856  0.1162  0.4448
45092SOL    HW242327   0.287   8.693  10.520 -1.2587  0.0412 -0.4726
45093SOL     OW42328   8.604   5.917   8.573  0.3655 -0.0395  0.1180
45093SOL    HW142329   8.683   5.863   8.568 -0.5636 -1.5478  1.0272
45093SOL    HW242330   8.627   5.987   8.635  0.1655 -2.0645  2.6358
45094SOL     OW42331   5.767   0.730   2.996 -0.3179 -0.0991  0.1549
45094SOL    HW142332   5.835   0.727   2.929 -0.0314  1.0077  0.3742
45094SOL    HW242333   5.693   0.773   2.953  0.2976  1.7918  0.8675
45095SOL     OW42334   0.484   6.476  12.423  0.0071 -0.3023 -0.1315
45095SOL    HW142335   0.422   6.527  12.475  0.6904  0.0912  0.3136
45095SOL    HW242336   0.435   6.398  12.397 -0.8917  0.3227 -0.3846
45096SOL     OW42337   9.541  11.615   5.391  0.6176  0.1336 -0.3158
45096SOL    HW142338   9.486  11.690   5.417  1.6161  0.5137  0.7660
45096SOL    HW242339   9.492  11.538   5.422  2.0083  0.5693  3.4654
45097SOL     OW42340   8.752  10.780   4.433  0.6603  0.0882 -0.2429
45097SOL    HW142341   8.753  10.826   4.517  0.1755  1.6455 -1.0510
45097SOL    HW242342   8.708  10.697   4.452 -1.8431  1.4832  0.5650
45098SOL     OW42343   4.699   5.193   8.675  0.1370 -0.5589  0.1103
45098SOL    HW142344   4.743   5.109   8.670  0.4331 -0.3987  0.0037
45098SOL    HW242345   4.608   5.172   8.696  0.2871 -0.8845  0.4275
45099SOL     OW42346   0.756   9.039   2.522  0.6522  0.0864  0.0608
45099SOL    HW142347   0.843   9.037   2.482 -0.0042  1.0936 -1.5176
45099SOL    HW242348   0.696   9.045   2.448 -0.6687  1.4703  1.1826
45100SOL     OW42349   7.687   3.974  10.049  1.3321 -0.5375  0.0360
45100SOL    HW142350   7.743   3.993   9.974  2.3462 -1.0198  0.6500
45100SOL    HW242351   7.748   3.948  10.118  0.2935 -1.9207  0.4635
45101SOL     OW42352   5.130  11.014  10.945  0.3374  0.3906 -0.5481
45101SOL    HW142353   5.113  10.981  11.033  2.5734  0.6488  0.0504
45101SOL    HW242354   5.112  10.940  10.888  0.9935 -0.5020  0.3611
45102SOL     OW42355   6.065  11.060  11.019 -0.4581  0.0263  0.4612
45102SOL    HW142356   6.092  11.139  11.067 -0.3651 -0.5957  1.4632
45102SOL    HW242357   6.107  10.988  11.066  0.6900 -0.5304 -1.3529
45103SOL     OW42358   3.000   2.960   8.419  0.0977 -0.5433  0.1357
45103SOL    HW142359   3.049   3.042   8.432  0.6687 -0.6846 -1.0254
45103SOL    HW242360   2.960   2.970   8.333  0.5744 -1.6863 -0.2260
45104SOL     OW42361   6.728   2.226   3.158  0.1024  0.1568 -0.1210
45104SOL    HW142362   6.658   2.265   3.105 -0.9452 -0.5676  0.6707
45104SOL    HW242363   6.801   2.287   3.151 -0.8471  1.2905 -0.4366
45105SOL     OW42364   8.000   5.515  10.139 -0.2048  0.0476 -0.2072
45105SOL    HW142365   8.038   5.551  10.219  0.0020 -0.7875  0.0778
45105SOL    HW242366   7.978   5.424  10.161 -0.0190 -0.2371 -1.1404
45106SOL     OW42367   5.973   4.049   8.328 -0.0400 -0.2012  0.2972
45106SOL    HW142368   6.051   4.047   8.273 -1.3468  0.8662 -1.7284
45106SOL    HW242369   5.932   3.963   8.316  1.2916 -1.1651  2.1992
45107SOL     OW42370   9.048   7.503   3.738 -0.6339  0.4714  0.5983
45107SOL    HW142371   8.965   7.547   3.758 -0.8198  0.5869 -0.3699
45107SOL    HW242372   9.084   7.478   3.823 -0.8788  1.8554  1.1182
45108SOL     OW42373  11.776   8.225   1.233 -0.2602 -0.1084 -0.4082
45108SOL    HW142374  11.692   8.197   1.198 -2.1436  1.9926  2.0513
45108SOL    HW242375  11.796   8.163   1.303 -0.6852  0.3819  0.1585
45109SOL     OW42376   1.466   3.905   4.644  0.0332  0.0997 -0.0309
45109SOL    HW142377   1.393   3.871   4.695 -0.3574 -1.0316 -1.2756
45109SOL    HW242378   1.544   3.872   4.687 -0.2777 -0.5827  0.0139
45110SOL     OW42379   5.950   0.271  11.497 -0.4810 -0.1065 -0.1338
45110SOL    HW142380   5.939   0.181  11.467  4.5679 -1.2899  0.6543
45110SOL    HW242381   5.979   0.319  11.418  0.3842 -0.1162  0.1661
45111SOL     OW42382   0.095   7.705   0.842  0.0650  0.5119  0.5926
45111SOL    HW142383   0.123   7.634   0.900 -1.2864 -1.0703 -0.6151
45111SOL    HW242384   0.166   7.715   0.779 -0.0259 -0.2536  0.3601
45112SOL     OW42385   0.318   8.173   3.412  0.3777 -0.2176  0.5797
45112SOL    HW142386   0.322   8.221   3.329  1.2351 -3.0709 -1.1823
45112SOL    HW242387   0.341   8.237   3.478  2.6734  1.5489 -1.7072
45113SOL     OW42388   7.610   1.649   7.715  0.5625 -0.2196  0.0266
45113SOL    HW142389   7.560   1.689   7.787 -0.6437 -0.0533 -0.8736
45113SOL    HW242390   7.692   1.697   7.714 -0.0456  0.8761  0.2811
45114SOL     OW42391  10.060  11.919   4.842  0.1422  0.4522  0.2397
45114SOL    HW142392   9.984  11.936   4.898 -1.5243 -0.5906 -1.5775
45114SOL    HW242393  10.128  11.892   4.903 -1.2381  0.3880  1.8620
45115SOL     OW42394  12.157   3.458   3.866  0.0137  0.2493 -0.4868
45115SOL    HW142395  12.083   3.517   3.852 -1.0521 -0.7369  0.7312
45115SOL    HW242396  12.211   3.504   3.931 -1.2292 -0.4109  1.0769
45116SOL     OW42397   8.380  10.412   7.394  0.2214  0.2924  0.5846
45116SOL    HW142398   8.384  10.506   7.379  0.8699  0.0822 -0.6250
45116SOL    HW242399   8.313  10.380   7.333  1.2341 -0.2576 -0.2629
45117SOL     OW42400  11.465   2.950   7.412 -0.6487  0.3848  0.1154
45117SOL    HW142401  11.411   3.002   7.472 -0.6786 -0.8910  1.2080
45117SOL    HW242402  11.503   3.016   7.353 -2.0214  1.4862  0.3910
45118SOL     OW42403   8.763   4.570  10.061 -0.0067 -0.1928 -0.0625
45118SOL    HW142404   8.700   4.505  10.092 -2.7991  1.6436 -1.5145
45118SOL    HW242405   8.817   4.522   9.998 -2.2164 -1.1495 -1.3615
45119SOL     OW42406  11.597  11.621   0.722  0.4835 -0.1390 -0.1633
45119SOL    HW142407  11.644  11.677   0.659 -0.8654  0.7355 -0.4255
45119SOL    HW242408  11.506  11.626   0.695  0.3522 -2.9645 -0.5528
45120SOL     OW42409  12.122   7.687  11.404  0.0837  0.1341 -0.4752
45120SOL    HW142410  12.073   7.698  11.322  1.4152 -1.3183 -1.5172
45120SOL    HW242411  12.162   7.773  11.420 -2.4307  1.2691  0.2325
45121SOL     OW42412   4.183  11.076   9.736  0.7168  0.5284 -0.4128
45121SOL    HW142413   4.219  11.160   9.764 -1.5328  0.8653  1.9174
45121SOL    HW242414   4.233  11.011   9.784  1.3543  0.6425 -0.9163
45122SOL     OW42415   3.340   0.143   5.905  0.0030  0.3882 -0.1522
45122SOL    HW142416   3.364   0.094   5.827 -2.6138  0.8089 -1.3480
45122SOL    HW242417   3.338   0.235   5.877 -0.6295  0.5832  0.4923
45123SOL     OW42418   9.008   6.346   5.249  0.3939 -0.5104  0.1725
45123SOL    HW142419   8.927   6.358   5.201  0.5731  0.5804  0.1170
45123SOL    HW242420   8.984   6.291   5.324 -0.8184  1.3413  1.2053
45124SOL     OW42421  10.922  11.527   4.494  0.7426 -0.2057 -0.2608
45124SOL    HW142422  10.834  11.565   4.490  1.2438  1.0385 -0.0442
45124SOL    HW242423  10.949  11.519   4.403  0.8431  0.5254 -0.3060
45125SOL     OW42424   4.082   1.680  11.341  0.1321  0.4181 -0.3287
45125SOL    HW142425   4.082   1.719  11.254 -0.6239 -1.6615 -1.3247
45125SOL    HW242426   4.043   1.593  11.329 -0.9624  0.4419  2.2601
45126SOL     OW42427   2.566   5.532   8.522 -0.2087  0.3818  0.6885
45126SOL    HW142428   2.650   5.574   8.545  1.1539 -2.1575  0.7226
45126SOL    HW242429   2.503   5.573   8.581  1.4638  0.7060  2.3744
45127SOL     OW42430   8.008   3.046   7.339 -0.3085  0.0163  0.2825
45127SOL    HW142431   8.016   2.953   7.358 -1.0306 -0.1105 -0.0194
45127SOL    HW242432   7.927   3.054   7.289  0.0174  0.7385 -0.1457
45128SOL     OW42433   6.422   4.439   6.442 -0.2750  0.1335  0.0004
45128SOL    HW142434   6.405   4.533   6.437  2.5377  0.6629 -1.6691
45128SOL    HW242435   6.414   4.409   6.351 -2.1138 -1.5124  0.6366
45129SOL     OW42436   5.110   6.126   1.519 -0.7665  0.3757  0.4822
45129SOL    HW142437   5.182   6.119   1.457 -1.4531  0.8870 -0.4024
45129SOL    HW242438   5.113   6.217   1.549 -1.2617  0.5007  0.1635
45130SOL     OW42439  11.965   5.555   7.121  0.2544 -0.2568  0.5337
45130SOL    HW142440  11.883   5.507   7.104 -0.3283  0.7389  0.4435
45130SOL    HW242441  12.031   5.486   7.128 -0.5247 -1.0706  0.2592
45131SOL     OW42442   8.219  10.415   4.835  0.0304 -0.1730 -0.2693
45131SOL    HW142443   8.275  10.352   4.789  0.8860  0.4523 -0.1210
45131SOL    HW242444   8.216  10.491   4.777 -0.2249  0.0044 -0.0244
45132SOL     OW42445   8.148   0.152  11.903 -0.2134 -0.3258  0.4523
45132SOL    HW142446   8.208   0.147  11.829 -0.0762 -1.9235  0.6557
45132SOL    HW242447   8.129   0.246  11.912  0.0174 -0.0772 -1.3922
45133SOL     OW42448   1.281  12.511   8.250  0.5859  0.6375 -0.5701
45133SOL    HW142449   1.346  12.441   8.245 -0.6513 -0.5864 -0.0843
45133SOL    HW242450   1.333  12.591   8.252  2.1379 -0.3379  0.8020
45134SOL     OW42451   8.375   5.437   7.844 -0.0926  0.0343  0.5889
45134SOL    HW142452   8.368   5.472   7.755 -2.6089  0.1699  0.7622
45134SOL    HW242453   8.298   5.472   7.889  1.2671  0.1952  2.9203
45135SOL     OW42454  12.040   3.871   1.456  0.2320 -0.1321 -0.4708
45135SOL    HW142455  12.085   3.788   1.464 -0.2000 -0.2164  1.7161
45135SOL    HW242456  11.952   3.854   1.489  0.2438  1.2703  0.3476
45136SOL     OW42457  11.934   2.641   9.939  0.0291  0.0869 -0.5189
45136SOL    HW142458  12.015   2.661   9.892 -0.5435  0.9007 -1.1687
45136SOL    HW242459  11.917   2.549   9.919  0.1146  0.2597 -1.4341
45137SOL     OW42460   2.407   6.822  10.967  0.1689 -0.0592  0.1437
45137SOL    HW142461   2.334   6.875  11.000  0.4586 -0.1394  0.9538
45137SOL    HW242462   2.404   6.742  11.020  0.9918  0.0498  0.3670
45138SOL     OW42463   4.797   9.174   4.957  0.0738  0.0253  0.4045
45138SOL    HW142464   4.709   9.142   4.974 -0.1640 -0.4170 -1.5187
45138SOL    HW242465   4.851   9.095   4.953  0.2401  0.1644 -0.1842
45139SOL     OW42466   2.051   4.101   0.561 -0.4132 -0.1028 -0.5197
45139SOL    HW142467   1.995   4.024   0.564 -2.5012  1.2406 -1.9249
45139SOL    HW242468   2.131   4.071   0.518 -0.8422 -1.6452 -0.3027
45140SOL     OW42469   3.066  10.186  11.581 -0.1925  0.1801 -0.1284
45140SOL    HW142470   3.035  10.099  11.556 -5.0912  2.1716 -2.2148
45140SOL    HW242471   3.050  10.191  11.675  0.4577 -1.1683  0.0893
45141SOL     OW42472   1.804   6.450   0.080  0.1880  0.3406  0.6694
45141SOL    HW142473   1.749   6.380   0.115  0.2014  0.9068  1.8808
45141SOL    HW242474   1.815   6.511   0.153  0.3599  1.5029 -0.2832
45142SOL     OW42475   4.190   8.636   8.702 -0.5944 -0.1802 -0.3143
45142SOL    HW142476   4.208   8.545   8.727 -0.0028 -0.2656 -1.0092
45142SOL    HW242477   4.103   8.633   8.663 -0.5821 -0.4534 -0.3241
45143SOL     OW42478   8.114  10.400   7.852 -0.1858  0.0359 -0.7202
45143SOL    HW142479   8.120  10.433   7.763  0.3060 -0.5824 -0.9186
45143SOL    HW242480   8.022  10.373   7.861 -0.9475  2.5980 -0.1263
45144SOL     OW42481   2.776   2.519   8.095 -0.4659 -0.2129  0.1611
45144SOL    HW142482   2.847   2.472   8.052  0.2919  0.8650  0.2032
45144SOL    HW242483   2.798   2.516   8.189 -1.3099 -1.2212  0.3511
45145SOL     OW42484   0.978   0.354  10.257 -0.1336  0.5219 -0.3564
45145SOL    HW142485   0.977   0.394  10.344 -1.4841  1.2114 -0.6490
45145SOL    HW242486   1.067   0.367  10.226 -0.2334  2.4572 -0.0113
45146SOL     OW42487  10.466   3.802   3.657 -0.5471 -0.7933  0.3709
45146SOL    HW142488  10.489   3.888   3.621  0.2814 -0.5039  1.5347
45146SOL    HW242489  10.371   3.795   3.643 -0.2957 -0.6254 -1.6420
45147SOL     OW42490   5.012  10.452   7.332 -0.3956  0.4802  0.3116
45147SOL    HW142491   5.006  10.521   7.399  1.6014 -0.0176  1.0667
45147SOL    HW242492   5.082  10.482   7.274  0.4951 -0.8996  0.6459
45148SOL     OW42493  11.491   4.291   9.794 -0.0609 -0.2880  0.4276
45148SOL    HW142494  11.464   4.343   9.870 -0.8879  1.1900 -0.8120
45148SOL    HW242495  11.517   4.207   9.831 -0.3581  0.4026  2.3508
45149SOL     OW42496   8.595   7.346   1.159 -0.1523 -0.5713 -0.7546
45149SOL    HW142497   8.545   7.307   1.087 -0.7019  1.6682 -1.6751
45149SOL    HW242498   8.552   7.429   1.176  1.4988  0.0904  0.4532
45150SOL     OW42499  10.932  10.690  10.353  0.5260 -0.4389 -0.2035
45150SOL    HW142500  10.948  10.598  10.373  1.7310 -0.1388  0.3083
45150SOL    HW242501  11.018  10.731  10.357 -0.1336  0.9267  0.6675
45151SOL     OW42502   4.363  10.196   7.185  0.3245  0.4765  0.8317
45151SOL    HW142503   4.437  10.136   7.173 -0.5037 -0.7249  1.3934
45151SOL    HW242504   4.402  10.279   7.210  1.4625 -0.4030  2.0991
45152SOL     OW42505   2.029   6.563   3.506  0.0142  0.6834  0.1593
45152SOL    HW142506   1.971   6.555   3.430  0.6217  1.0601 -0.3535
45152SOL    HW242507   1.970   6.564   3.581 -0.5327 -0.9792 -0.2132
45153SOL     OW42508   3.795  10.667  12.081  0.0008  0.2522  0.4886
45153SOL    HW142509   3.805  10.668  12.176  0.6801 -0.7766  0.4336
45153SOL    HW242510   3.877  10.631  12.048  0.5861  2.4013 -0.6161
45154SOL     OW42511   8.127  11.848   7.710  0.4884 -0.0286  0.2856
45154SOL    HW142512   8.144  11.793   7.786 -1.5177 -1.4898 -0.2258
45154SOL    HW242513   8.184  11.813   7.642  1.0691  0.1903  0.6592
45155SOL     OW42514   2.201   1.685   2.189  0.1380 -0.4544 -0.3592
45155SOL    HW142515   2.128   1.623   2.196 -1.5523  1.5455  0.7701
45155SOL    HW242516   2.254   1.668   2.268  0.3151 -1.1773 -0.6234
45156SOL     OW42517   3.117   2.595   5.250  0.4514  0.0660 -0.0644
45156SOL    HW142518   3.181   2.552   5.306  1.6832  2.1265  0.2130
45156SOL    HW242519   3.075   2.524   5.202  2.0445 -1.4436  0.6793
45157SOL     OW42520   6.767  10.082  11.885  0.6067 -0.3576  0.4028
45157SOL    HW142521   6.673  10.075  11.869 -0.1016  0.3732  3.4618
45157SOL    HW242522   6.803   9.997  11.862 -0.8904 -0.8259 -0.2906
45158SOL     OW42523   7.605  12.227   2.149  0.1169  0.2497 -0.0902
45158SOL    HW142524   7.616  12.277   2.230 -1.0071  3.1212 -1.5958
45158SOL    HW242525   7.528  12.172   2.166 -0.1626  0.8777  0.7642
45159SOL     OW42526  11.136   5.882   5.172 -0.2647  0.4036  0.0914
45159SOL    HW142527  11.172   5.861   5.086 -0.8698  1.8605 -0.5510
45159SOL    HW242528  11.205   5.857   5.234  0.6889  0.5235 -0.9024
45160SOL     OW42529  12.080   2.220  11.340 -0.4578  0.6265 -0.4125
45160SOL    HW142530  12.035   2.301  11.315 -2.3445  0.3629  1.7664
45160SOL    HW242531  12.123   2.242  11.424  0.9121 -0.0375 -0.9098
45161SOL     OW42532  11.348   8.616   5.892  0.1498  0.5965  0.0404
45161SOL    HW142533  11.423   8.573   5.850  1.1597  0.7480  1.6187
45161SOL    HW242534  11.343   8.702   5.851  0.5581  0.4183 -0.3900
45162SOL     OW42535   6.731   8.182   4.221 -0.0247 -0.7086  0.5812
45162SOL    HW142536   6.686   8.176   4.137  1.6114  0.6208 -0.4462
45162SOL    HW242537   6.821   8.154   4.202 -0.1081 -2.3960  2.3703
45163SOL     OW42538  11.511   6.462  10.388 -0.1960  0.0656 -0.5851
45163SOL    HW142539  11.598   6.481  10.422 -0.7280  1.0531  0.2852
45163SOL    HW242540  11.500   6.524  10.315  0.4410 -1.1729 -1.7789
45164SOL     OW42541   2.708   6.687   5.749 -0.1667 -0.1524  0.1789
45164SOL    HW142542   2.785   6.732   5.783  0.2392 -0.4026 -0.3767
45164SOL    HW242543   2.644   6.757   5.734  0.3115  0.1971 -0.2931
45165SOL     OW42544   7.506   7.197   8.918  0.1838  0.6402 -1.3535
45165SOL    HW142545   7.569   7.206   8.989 -1.0290  0.6597 -0.2218
45165SOL    HW242546   7.491   7.103   8.910 -1.3039  0.7117 -0.0183
45166SOL     OW42547  11.187   9.378   8.751 -0.2929 -0.2538 -0.1571
45166SOL    HW142548  11.223   9.445   8.693  0.1606  1.1241  1.6187
45166SOL    HW242549  11.261   9.320   8.770  0.1713  0.6260  0.8181
45167SOL     OW42550  12.529   6.406   4.107  0.1093  0.2255 -0.1398
45167SOL    HW142551  12.587   6.468   4.151  0.9893 -0.2021 -0.6712
45167SOL    HW242552  12.588   6.346   4.061 -0.7443 -0.4662 -0.3661
45168SOL     OW42553   5.303  10.093   9.171 -0.2013  0.3194 -0.7938
45168SOL    HW142554   5.273  10.104   9.261  0.0671  0.4036 -0.7142
45168SOL    HW242555   5.288  10.001   9.152 -0.1563  0.2763 -0.6249
45169SOL     OW42556   6.022   9.969   8.451  0.5356  0.8269  0.1949
45169SOL    HW142557   5.968   9.933   8.382  0.8587 -0.8509  0.7813
45169SOL    HW242558   5.960  10.009   8.512  0.2086  1.7012 -0.6743
45170SOL     OW42559   2.045  12.486   4.888  0.6829  0.0422 -0.0991
45170SOL    HW142560   2.126  12.525   4.854  0.2504 -0.5133 -1.8158
45170SOL    HW242561   2.073  12.402   4.924  0.9461  0.0846 -0.2027
45171SOL     OW42562  11.784   3.125  10.934  0.2148 -0.1188  0.3077
45171SOL    HW142563  11.783   3.177  10.854  1.9240  1.0113  0.9625
45171SOL    HW242564  11.718   3.165  10.990  1.7020  1.5999  0.9094
45172SOL     OW42565   6.473  12.148   1.467  0.1187 -0.2071  0.0672
45172SOL    HW142566   6.506  12.144   1.557 -0.5428  1.3561  0.4031
45172SOL    HW242567   6.428  12.064   1.455 -1.0310  0.1238  1.7071
45173SOL     OW42568   2.795  11.729   0.086 -0.1718 -0.3290 -0.5579
45173SOL    HW142569   2.883  11.732   0.122 -0.8973 -0.1387  1.2971
45173SOL    HW242570   2.773  11.820   0.067 -0.2618 -0.2798 -0.2310
45174SOL     OW42571   4.116   2.031   4.613  0.2993  0.1989  0.0192
45174SOL    HW142572   4.188   1.996   4.665  0.6133 -0.5519 -0.8785
45174SOL    HW242573   4.135   2.124   4.602  1.0412  0.0408 -0.0529
45175SOL     OW42574  11.166   0.288   5.470 -0.1553  0.3576 -0.1204
45175SOL    HW142575  11.254   0.312   5.441  0.0572  0.5461  0.6622
45175SOL    HW242576  11.145   0.209   5.421  0.8263 -0.2248  0.3869
45176SOL     OW42577  11.592   3.942  10.323  0.0801 -0.0792  0.1986
45176SOL    HW142578  11.669   3.957  10.268 -1.0025  0.5302 -1.2069
45176SOL    HW242579  11.603   3.852  10.354  1.3149 -0.0263 -0.0214
45177SOL     OW42580   8.854   2.742   3.735 -0.6023 -0.1417 -0.7766
45177SOL    HW142581   8.903   2.824   3.734 -1.6749  0.5006 -0.9119
45177SOL    HW242582   8.922   2.674   3.729  0.5222  0.6182  1.8142
45178SOL     OW42583   7.719  12.400   7.711 -0.0644 -0.2606 -0.4687
45178SOL    HW142584   7.641  12.345   7.713 -2.5168  2.9389  0.1508
45178SOL    HW242585   7.771  12.372   7.786 -1.2801 -1.6103 -0.1027
45179SOL     OW42586   9.759   9.821  11.485 -0.4275 -0.1189  0.0774
45179SOL    HW142587   9.693   9.865  11.538 -0.1087 -0.2486  0.5942
45179SOL    HW242588   9.811   9.771  11.548  0.5062  0.4151 -0.2438
45180SOL     OW42589   7.898   3.224  11.703 -0.4430  0.2363 -0.2220
45180SOL    HW142590   7.885   3.227  11.608 -1.5773 -0.4382 -0.0995
45180SOL    HW242591   7.982   3.179  11.714 -0.1980  0.5003 -0.8943
45181SOL     OW42592   0.315   9.255   6.727 -0.5459  0.1000 -0.2314
45181SOL    HW142593   0.314   9.198   6.650 -1.9692 -1.8535  1.1465
45181SOL    HW242594   0.403   9.246   6.763  0.8969  2.7018 -2.6723
45182SOL     OW42595   8.656   8.395  10.485 -0.5331  0.3914  0.4803
45182SOL    HW142596   8.584   8.378  10.546 -1.0308 -2.9017 -0.8242
45182SOL    HW242597   8.613   8.416  10.402  0.1261  2.3928  0.5853
45183SOL     OW42598  10.843  10.037  11.098  0.1768  0.2155 -0.4831
45183SOL    HW142599  10.852   9.942  11.093 -1.6690 -0.0008 -0.1302
45183SOL    HW242600  10.923  10.065  11.143  0.2563 -1.2792  0.4010
45184SOL     OW42601   7.227   0.097  10.222  0.2006  0.3130  0.0874
45184SOL    HW142602   7.136   0.119  10.200 -1.9356 -2.8405  4.1981
45184SOL    HW242603   7.260   0.053  10.144 -3.7688 -2.9097 -0.1609
45185SOL     OW42604   7.638   0.336   4.508 -0.2172 -0.5030  0.0214
45185SOL    HW142605   7.733   0.330   4.524 -0.1581 -0.8006 -0.4002
45185SOL    HW242606   7.625   0.287   4.426 -0.8784 -1.3469  0.6156
45186SOL     OW42607   1.845   2.866   8.597  0.1266  0.1674  0.2196
45186SOL    HW142608   1.821   2.792   8.653  1.7990 -0.4797  0.1356
45186SOL    HW242609   1.774   2.929   8.609 -1.6983 -1.7003 -0.2311
45187SOL     OW42610   7.150   9.518  12.084 -0.5641 -0.0628  0.0892
45187SOL    HW142611   7.200   9.466  12.147 -1.6390  0.0446  1.0567
45187SOL    HW242612   7.186   9.607  12.093  0.3836 -0.3622 -0.6292
45188SOL     OW42613   7.522   6.613  10.747  0.4066  0.1145  0.2267
45188SOL    HW142614   7.549   6.704  10.752 -1.3642  0.8812 -2.2174
45188SOL    HW242615   7.562   6.580  10.666 -0.0986 -0.8519  0.3504
45189SOL     OW42616   3.685   4.150   0.058  0.0412 -0.9038 -0.2765
45189SOL    HW142617   3.690   4.055   0.058 -0.3904 -0.9358 -0.9114
45189SOL    HW242618   3.765   4.179   0.014  0.2691 -0.9640  0.0972
45190SOL     OW42619   5.196   8.377   3.172 -0.0710  0.1855  0.3169
45190SOL    HW142620   5.219   8.434   3.245  0.3536 -0.6332  0.8468
45190SOL    HW242621   5.250   8.298   3.185 -1.3145 -0.7282  0.1521
45191SOL     OW42622   4.146  10.923   6.324 -0.6264 -0.2265 -0.9130
45191SOL    HW142623   4.211  10.941   6.393 -0.5903  0.2083 -1.0587
45191SOL    HW242624   4.195  10.875   6.257 -0.6438 -0.5883 -0.6696
45192SOL     OW42625  11.228   5.591   8.054 -0.4398  1.2460  0.1053
45192SOL    HW142626  11.246   5.663   7.993 -1.0150  0.8605 -0.5358
45192SOL    HW242627  11.151   5.548   8.017 -1.1131  1.3134  1.3894
45193SOL     OW42628   0.330   4.073   0.984 -0.3673  0.0360 -0.5551
45193SOL    HW142629   0.253   4.072   0.926 -0.0695 -0.2066 -0.9527
45193SOL    HW242630   0.353   4.166   0.990 -1.1440  0.1893  0.1821
45194SOL     OW42631   2.574   9.304   4.790 -0.0834 -0.0051 -0.2236
45194SOL    HW142632   2.506   9.261   4.842  0.0630  1.2441  1.0711
45194SOL    HW242633   2.600   9.239   4.725  0.2216 -1.8855  1.7053
45195SOL     OW42634   2.110   1.511  12.594  0.0524 -0.3471 -0.2515
45195SOL    HW142635   2.030   1.526  12.544  1.1608  2.4278 -1.3591
45195SOL    HW242636   2.098   1.560  12.675 -0.1916 -1.7282  0.5879
45196SOL     OW42637  12.569   0.275   6.707 -0.0105 -0.2197 -0.3883
45196SOL    HW142638  12.488   0.249   6.664 -0.0211  2.2014 -1.9772
45196SOL    HW242639  12.617   0.326   6.642  3.2839 -2.2664  0.1734
45197SOL     OW42640   8.223   1.587  10.174  0.0950 -0.0947 -0.1994
45197SOL    HW142641   8.286   1.594  10.103 -2.3518  0.9107 -2.4372
45197SOL    HW242642   8.216   1.493  10.191  1.6005 -0.2644 -0.4127
45198SOL     OW42643   8.241   3.408   1.999  0.2363  0.1367 -0.3765
45198SOL    HW142644   8.231   3.471   1.927 -0.9407 -0.5755 -0.8672
45198SOL    HW242645   8.333   3.382   1.995 -0.0269 -0.6390 -2.2796
45199SOL     OW42646  10.012   2.005   2.656  0.2909 -0.2806 -0.1211
45199SOL    HW142647  10.034   1.959   2.737 -1.6614 -0.0525  0.6200
45199SOL    HW242648  10.074   2.077   2.652  1.5235 -1.2807  0.2466
45200SOL     OW42649   6.370   3.951  12.304  0.8148 -0.2227 -0.5894
45200SOL    HW142650   6.288   3.910  12.331  1.4754 -0.8054  0.6274
45200SOL    HW242651   6.345   4.013  12.236 -0.5677 -0.7247 -0.5608
45201SOL     OW42652  10.477   2.174   4.845 -0.0244  0.1821 -0.3588
45201SOL    HW142653  10.417   2.111   4.805 -0.3641 -1.0186  1.8883
45201SOL    HW242654  10.507   2.131   4.925  1.4099  2.0462  0.1816
45202SOL     OW42655  11.703   3.888  11.835 -0.3371 -0.1990  0.0590
45202SOL    HW142656  11.728   3.939  11.911  1.9739  2.6173 -2.3677
45202SOL    HW242657  11.611   3.911  11.819 -0.2264  0.7766  0.8035
45203SOL     OW42658   5.493   6.989   0.581  0.0320 -0.4471  0.0438
45203SOL    HW142659   5.447   6.982   0.498 -3.5556 -0.1694  1.8184
45203SOL    HW242660   5.524   7.079   0.584  3.0891 -1.2638 -2.1949
45204SOL     OW42661  10.467   1.492   2.432  0.2332 -0.5794 -0.2981
45204SOL    HW142662  10.385   1.541   2.442  1.2867  1.3969 -0.9560
45204SOL    HW242663  10.475   1.478   2.338  1.2609  0.3821 -0.3707
45205SOL     OW42664   0.542   4.759   2.601  0.2395 -0.0489 -0.0484
45205SOL    HW142665   0.598   4.737   2.526  0.6477  0.3602  0.1343
45205SOL    HW242666   0.585   4.717   2.676 -0.0810 -0.3229 -0.0158
45206SOL     OW42667   5.380   4.809   3.945  0.0237 -0.0064  0.0376
45206SOL    HW142668   5.443   4.801   4.016  0.2503  0.5464 -0.1003
45206SOL    HW242669   5.335   4.892   3.961 -0.4085 -0.2159 -0.0744
45207SOL     OW42670  11.246   5.064   7.765 -0.0051  0.4427  0.1642
45207SOL    HW142671  11.209   5.085   7.679 -0.6330  0.2207  0.3727
45207SOL    HW242672  11.189   4.995   7.800  1.1437 -0.5800  0.1161
45208SOL     OW42673   2.287   9.789  11.077 -0.6594  0.0354  0.3779
45208SOL    HW142674   2.317   9.719  11.019 -1.2116  0.4515 -0.4334
45208SOL    HW242675   2.343   9.782  11.154  0.8027  0.1121 -0.6358
45209SOL     OW42676   1.988   3.628   5.235 -0.5386 -0.4477  0.3466
45209SOL    HW142677   1.935   3.584   5.302 -0.4913 -0.4960  0.3528
45209SOL    HW242678   2.000   3.561   5.167 -1.5221 -0.0623 -0.2284
45210SOL     OW42679  11.992   8.464   2.132  0.0765  0.0906 -0.2491
45210SOL    HW142680  11.995   8.533   2.067  0.9195  1.8867  1.5784
45210SOL    HW242681  12.075   8.417   2.121 -0.4652 -0.6219 -1.4466
45211SOL     OW42682   7.253  12.203  11.514  0.1770  0.0844  0.0919
45211SOL    HW142683   7.227  12.166  11.598  0.7461 -2.7674 -0.8801
45211SOL    HW242684   7.333  12.157  11.491 -1.1538 -0.9642 -3.0320
45212SOL     OW42685   8.618   1.853   3.605 -0.3823 -0.1916 -0.1473
45212SOL    HW142686   8.565   1.781   3.573 -0.5996 -0.5681  1.0100
45212SOL    HW242687   8.610   1.921   3.538 -2.5658 -0.1242  0.1215
45213SOL     OW42688   7.301  12.184   8.061  0.1970  0.5635  0.1067
45213SOL    HW142689   7.343  12.268   8.081 -2.2167  2.0109 -0.4184
45213SOL    HW242690   7.229  12.208   8.002  1.1233 -2.2643 -2.4367
45214SOL     OW42691   7.494   9.738   3.497 -0.9321  0.0116 -0.3470
45214SOL    HW142692   7.525   9.728   3.407 -1.0834 -1.4147 -0.2510
45214SOL    HW242693   7.437   9.664   3.512 -3.0345  1.6238  0.0944
45215SOL     OW42694   5.533   8.400   1.765  0.4249 -0.2715  0.0764
45215SOL    HW142695   5.507   8.362   1.681 -2.2162  0.2691  0.5532
45215SOL    HW242696   5.458   8.454   1.791  1.9861  1.1859  1.8385
45216SOL     OW42697  12.023   9.206  12.009 -0.3066 -0.1441  0.2205
45216SOL    HW142698  11.952   9.152  11.974  0.6494 -0.7731 -0.8441
45216SOL    HW242699  12.096   9.145  12.019  0.3036  0.6335  0.5858
45217SOL     OW42700  12.472   2.259   9.429 -0.2777 -0.2809  0.0469
45217SOL    HW142701  12.432   2.177   9.400 -3.1027  0.5302  1.3252
45217SOL    HW242702  12.505   2.240   9.516 -0.4862 -0.1861  0.1458
45218SOL     OW42703   3.937   8.231   2.451 -0.6250 -0.3904  0.1044
45218SOL    HW142704   3.993   8.296   2.409 -1.1320  0.7178  1.0822
45218SOL    HW242705   3.992   8.153   2.458  1.1326  0.8878  1.7266
45219SOL     OW42706   9.895   3.231   9.216  0.3086 -0.4836  0.1529
45219SOL    HW142707   9.953   3.210   9.289  0.1742  0.6012  0.5899
45219SOL    HW242708   9.829   3.289   9.254  0.9490  1.1066 -1.0839
45220SOL     OW42709  12.488   4.265  10.888 -0.6555 -0.0344 -0.6302
45220SOL    HW142710  12.578   4.291  10.867 -1.5392  2.2681 -1.8142
45220SOL    HW242711  12.441   4.273  10.805 -2.0462 -0.9433  0.0396
45221SOL     OW42712  11.812   3.339  12.112 -0.0207 -0.0386 -0.0003
45221SOL    HW142713  11.784   3.402  12.046  2.4169 -0.8217 -1.9457
45221SOL    HW242714  11.732   3.313  12.157 -1.6759  1.1696 -2.0974
45222SOL     OW42715   9.058   7.340   6.004 -0.2708 -0.3935 -0.1450
45222SOL    HW142716   9.027   7.366   6.091  0.4787 -1.3874  0.4419
45222SOL    HW242717   9.094   7.252   6.017  0.6349 -0.2080 -1.2813
45223SOL     OW42718   6.766   8.885   3.334  0.4009  0.0973  0.1613
45223SOL    HW142719   6.746   8.828   3.260  2.0424  1.3712 -1.3304
45223SOL    HW242720   6.862   8.894   3.333  0.3091  1.6288  1.3026
45224SOL     OW42721   6.656   3.733   3.342  0.2788  0.1460 -0.3157
45224SOL    HW142722   6.680   3.704   3.430  1.9582 -1.1480 -1.1238
45224SOL    HW242723   6.695   3.820   3.333  1.2177 -0.2506 -0.1952
45225SOL     OW42724  10.719  11.398   0.531 -0.5030 -0.4626 -0.2906
45225SOL    HW142725  10.756  11.316   0.564  1.5703  0.0932 -1.0906
45225SOL    HW242726  10.692  11.379   0.442  1.3489  0.0156 -1.0136
45226SOL     OW42727   0.173   6.838   4.604  0.2539 -0.9856 -0.1977
45226SOL    HW142728   0.245   6.857   4.664  0.9243 -1.4305 -0.8404
45226SOL    HW242729   0.097   6.878   4.644  1.2437  1.4174 -0.5563
45227SOL     OW42730   3.527   9.326   0.434  0.6453 -0.2180 -0.2015
45227SOL    HW142731   3.606   9.310   0.486  2.2231  1.9718 -1.7637
45227SOL    HW242732   3.520   9.249   0.378  2.1571 -0.0955 -0.6018
45228SOL     OW42733   9.086  11.203   9.510  0.2775 -0.2238 -0.0491
45228SOL    HW142734   9.075  11.163   9.424 -1.3946  0.4861 -0.2154
45228SOL    HW242735   9.010  11.174   9.560 -0.7803  2.2686 -0.0400
45229SOL     OW42736   4.136   1.018   3.697 -0.0312  0.0343  0.0290
45229SOL    HW142737   4.109   1.019   3.789 -2.0124  1.9617 -0.4794
45229SOL    HW242738   4.068   0.968   3.652 -1.2183  2.2555 -0.8306
45230SOL     OW42739   4.251   4.397   6.155  0.0218  0.2318 -0.2719
45230SOL    HW142740   4.198   4.319   6.169 -0.7037  0.8513  0.4850
45230SOL    HW242741   4.309   4.401   6.231 -0.6936  1.0221  0.2414
45231SOL     OW42742  10.693   8.526   2.262 -0.2287  0.5610  0.0313
45231SOL    HW142743  10.691   8.489   2.351 -0.6683 -0.3466 -0.3432
45231SOL    HW242744  10.703   8.450   2.205  0.8061  1.2028 -0.6673
45232SOL     OW42745   3.071   5.977   0.515 -0.6164  0.2664 -0.0135
45232SOL    HW142746   3.122   5.946   0.441 -0.7033  0.7887 -0.3014
45232SOL    HW242747   3.081   5.910   0.582 -0.4592 -0.1631 -0.4659
45233SOL     OW42748   4.924  11.607   2.862  0.4398 -0.0455  0.5040
45233SOL    HW142749   5.008  11.561   2.856 -0.6729 -2.1382  0.0344
45233SOL    HW242750   4.871  11.568   2.793 -0.6444  1.8892  0.1926
45234SOL     OW42751   4.465   5.334   5.889  0.2234 -0.0057 -0.5875
45234SOL    HW142752   4.418   5.325   5.807 -0.0439  0.5904 -0.5054
45234SOL    HW242753   4.553   5.363   5.863  0.0852  0.3586 -0.6563
45235SOL     OW42754  10.526   4.440  12.177  0.1749 -0.3562 -0.5033
45235SOL    HW142755  10.472   4.367  12.148  0.7057 -0.0904 -2.3592
45235SOL    HW242756  10.600   4.441  12.115  0.2171  1.6889 -0.5095
45236SOL     OW42757  12.551   1.576   4.106 -0.3440 -0.5742  0.4678
45236SOL    HW142758  12.482   1.564   4.041  1.4922 -0.2212 -1.6852
45236SOL    HW242759  12.581   1.487   4.126  0.8690 -0.6067 -1.2998
45237SOL     OW42760   4.175   6.587  11.365  0.0294  0.3054 -0.5245
45237SOL    HW142761   4.213   6.522  11.306  2.4104  0.5886  0.5699
45237SOL    HW242762   4.164   6.665  11.311 -0.4515 -0.2326 -1.2276
45238SOL     OW42763   9.634   9.658   8.776 -0.7762 -0.2798  0.7371
45238SOL    HW142764   9.675   9.649   8.862 -0.8846  0.3105  0.8531
45238SOL    HW242765   9.706   9.679   8.716 -0.3731 -2.5673  0.3028
45239SOL     OW42766   5.294  12.219   7.610  0.1968  0.3652  0.2858
45239SOL    HW142767   5.336  12.133   7.602  0.0743  0.2274  1.0412
45239SOL    HW242768   5.357  12.280   7.572  0.3213 -0.0459 -0.1819
45240SOL     OW42769  12.068  10.860   4.632 -0.7745  0.1783  0.6171
45240SOL    HW142770  12.056  10.847   4.538 -0.1014 -1.3672  0.7186
45240SOL    HW242771  12.125  10.937   4.638  0.0626 -0.3442 -0.2901
45241SOL     OW42772   3.386   2.068   8.357  0.1234 -0.4420 -0.3496
45241SOL    HW142773   3.385   2.065   8.453  0.3235  0.0877 -0.3271
45241SOL    HW242774   3.302   2.031   8.331 -1.2761  2.1820  0.1347
45242SOL     OW42775   3.044   7.250   7.667 -0.1681  0.3495  0.1565
45242SOL    HW142776   3.116   7.211   7.617 -0.5736 -0.4887  0.2128
45242SOL    HW242777   3.048   7.207   7.752 -0.2198  0.9163  0.4522
45243SOL     OW42778  12.553   1.208   5.776  0.5356  0.0495 -0.2602
45243SOL    HW142779  12.638   1.253   5.778  0.9118 -0.6520 -0.0081
45243SOL    HW242780  12.494   1.267   5.822  1.0834  0.1671  0.3160
45244SOL     OW42781   7.221   9.100   8.195  0.5203  0.1791 -0.1617
45244SOL    HW142782   7.245   9.030   8.257  0.8420 -0.1496 -0.6514
45244SOL    HW242783   7.299   9.156   8.192  0.6296  0.0121 -0.5150
45245SOL     OW42784   2.993   5.027   1.840  0.5388 -0.0234 -0.4521
45245SOL    HW142785   2.908   5.045   1.799  0.1283 -1.0714 -0.0758
45245SOL    HW242786   3.011   5.106   1.892 -0.8046 -0.2849  0.4557
45246SOL     OW42787   9.373  12.015   6.219  0.4923 -0.4043  0.5470
45246SOL    HW142788   9.287  11.973   6.215 -0.2520  0.9210  1.7647
45246SOL    HW242789   9.412  11.982   6.300 -0.1613  1.2602  1.5985
45247SOL     OW42790   1.039   7.064   3.811  0.2147  0.0824  0.0438
45247SOL    HW142791   1.094   6.987   3.796  0.2008  0.1750 -0.4852
45247SOL    HW242792   0.978   7.036   3.880  0.7765 -0.0864  0.4789
45248SOL     OW42793   2.042   1.222   0.066  0.0819  0.4370  0.2234
45248SOL    HW142794   2.060   1.128   0.073  1.4584  0.3303 -2.9061
45248SOL    HW242795   2.125   1.264   0.087 -0.6088  1.0302  1.9140
45249SOL     OW42796   7.051   2.155   6.462  0.6684  0.3183 -0.1511
45249SOL    HW142797   6.961   2.134   6.490  1.1330 -1.0408  0.4163
45249SOL    HW242798   7.058   2.118   6.374  0.4704  1.0053 -0.4569
45250SOL     OW42799   7.986   3.399   3.719  0.1282 -0.0507 -0.3704
45250SOL    HW142800   8.003   3.322   3.665  0.0417 -0.6304  0.4225
45250SOL    HW242801   7.904   3.434   3.685 -0.0554 -0.5505 -0.4522
45251SOL     OW42802  11.460   3.182   2.021  0.3974  0.1430 -0.5034
45251SOL    HW142803  11.450   3.245   1.950  0.8304  0.7426 -0.0374
45251SOL    HW242804  11.487   3.101   1.977  1.0941  0.6216 -0.9878
45252SOL     OW42805   9.226   3.293   0.808 -0.1048  0.0420 -0.1003
45252SOL    HW142806   9.247   3.386   0.803 -1.5885  0.4400  0.3793
45252SOL    HW242807   9.254   3.267   0.896  1.4883 -0.3135 -0.6793
45253SOL     OW42808   5.012   0.143   9.029 -0.9598 -0.0324 -0.3158
45253SOL    HW142809   5.063   0.215   8.992 -0.4203  0.1718  0.7601
45253SOL    HW242810   5.034   0.144   9.123 -1.4332 -1.1904 -0.1682
45254SOL     OW42811   5.203   0.526   6.597 -0.0583 -0.4509  0.0827
45254SOL    HW142812   5.197   0.504   6.690  1.5969  1.5868  0.7679
45254SOL    HW242813   5.249   0.610   6.596 -1.2229  0.2443 -2.5303
45255SOL     OW42814   4.430  10.749   8.451  0.0679  0.7845  0.2764
45255SOL    HW142815   4.362  10.816   8.459 -1.3057 -0.7548  2.8879
45255SOL    HW242816   4.405  10.698   8.374 -0.4317  1.6104 -0.1164
45256SOL     OW42817   4.078  12.579   8.738  0.1745  0.2577  0.0336
45256SOL    HW142818   3.996  12.607   8.697  0.7264  1.0939 -0.5302
45256SOL    HW242819   4.146  12.627   8.690  0.8742  1.0519  1.7450
45257SOL     OW42820  11.682   4.281   7.159  0.5926 -0.1774 -0.3982
45257SOL    HW142821  11.765   4.327   7.146  0.3008 -0.0095 -1.9708
45257SOL    HW242822  11.626   4.343   7.205  0.6511  0.5471 -1.2755
45258SOL     OW42823  11.246  12.229   1.693 -0.5200  0.6136  0.2487
45258SOL    HW142824  11.199  12.267   1.768  0.9806 -0.9281  2.0615
45258SOL    HW242825  11.215  12.138   1.689  2.8236 -0.7713  2.1430
45259SOL     OW42826   5.701   6.216   3.657 -0.0462 -0.0386 -0.3111
45259SOL    HW142827   5.749   6.268   3.593  0.4528  1.3035  1.0696
45259SOL    HW242828   5.609   6.241   3.644  0.1926  1.3520  0.3942
45260SOL     OW42829  10.319   5.975   2.359  0.4278  0.2364 -0.1379
45260SOL    HW142830  10.395   6.032   2.348  0.4399  0.2660  0.0956
45260SOL    HW242831  10.331   5.936   2.446  0.1500  0.2841 -0.0775
45261SOL     OW42832   0.082   5.625   2.263 -0.1814 -0.2567 -0.1800
45261SOL    HW142833   0.177   5.634   2.249 -0.4778 -0.3915 -2.6012
45261SOL    HW242834   0.069   5.656   2.353  1.8620  1.9395 -0.5139
45262SOL     OW42835   5.636   3.130   4.023  0.1980  0.3524  0.3145
45262SOL    HW142836   5.690   3.051   4.020  0.3469  0.4158  1.0002
45262SOL    HW242837   5.594   3.127   4.109 -1.5442 -0.1106 -0.5219
45263SOL     OW42838   0.620   0.127   5.320  0.2946 -0.8328 -0.3496
45263SOL    HW142839   0.583   0.123   5.232  0.1451 -1.0436 -0.2765
45263SOL    HW242840   0.651   0.038   5.337  1.6058 -0.4776 -0.7412
45264SOL     OW42841  11.196  10.304   3.183 -0.7741 -0.1697  0.3787
45264SOL    HW142842  11.211  10.387   3.138 -1.3821 -0.5617 -0.5734
45264SOL    HW242843  11.262  10.302   3.252  0.0873  0.5194 -0.3964
45265SOL     OW42844   3.315   5.582   1.872  0.3962  0.1380  0.1685
45265SOL    HW142845   3.371   5.647   1.830 -0.3455  0.4323 -0.3886
45265SOL    HW242846   3.364   5.500   1.866  0.7151  0.3637 -0.4289
45266SOL     OW42847   0.612  10.131   6.476 -0.3185  0.3523 -0.1068
45266SOL    HW142848   0.636  10.123   6.568  1.1442 -1.6346 -0.5994
45266SOL    HW242849   0.516  10.133   6.477 -0.3204  1.8447  1.5070
45267SOL     OW42850   3.264   3.817   2.783 -0.1497  0.0328 -0.6127
45267SOL    HW142851   3.280   3.728   2.815 -2.1225 -0.0395  0.2984
45267SOL    HW242852   3.299   3.873   2.853  0.0394 -0.0340 -0.6513
45268SOL     OW42853   8.250  11.335   3.019  0.3357  0.3118  0.5462
45268SOL    HW142854   8.248  11.409   2.959  1.9961  0.4044  0.5323
45268SOL    HW242855   8.206  11.366   3.098  1.6968  1.6226  0.8274
45269SOL     OW42856   1.597   1.332  11.008  0.3255  0.2606  0.3839
45269SOL    HW142857   1.649   1.279  10.948 -0.4715  0.9384 -0.9638
45269SOL    HW242858   1.661   1.367  11.071  1.5813  1.2596 -1.3463
45270SOL     OW42859   5.897   7.001   8.032  0.2685  0.0829 -0.6383
45270SOL    HW142860   5.936   6.959   8.109  0.0671 -0.6023 -0.9073
45270SOL    HW242861   5.803   6.993   8.046  0.1299  2.7523  0.5753
45271SOL     OW42862   5.946  11.410   4.484  0.2157 -0.4626  0.4269
45271SOL    HW142863   5.960  11.316   4.495  0.3003 -0.7558 -1.6614
45271SOL    HW242864   5.973  11.428   4.394 -1.7659  1.1471  0.0573
45272SOL     OW42865   0.828   2.191   3.109 -0.6477  0.1666  0.1254
45272SOL    HW142866   0.811   2.144   3.190 -0.5245  1.5808  1.0188
45272SOL    HW242867   0.809   2.128   3.040 -0.4362 -1.1818  1.2473
45273SOL     OW42868   9.454   6.732   5.260  0.4054  0.5462  0.1246
45273SOL    HW142869   9.451   6.704   5.168 -0.7037 -0.9741  0.5831
45273SOL    HW242870   9.436   6.826   5.257 -2.1495  0.1088 -1.0820
45274SOL     OW42871   5.317   6.911  11.885 -0.2861 -0.2214  0.1720
45274SOL    HW142872   5.408   6.881  11.877 -0.5420 -1.7437  2.1116
45274SOL    HW242873   5.321   7.005  11.871  1.4946 -0.3453 -0.3676
45275SOL     OW42874   0.667   7.025   6.940 -0.6214  0.3299 -0.1460
45275SOL    HW142875   0.711   7.095   6.893 -0.3131 -0.7593 -1.5477
45275SOL    HW242876   0.709   7.023   7.026  1.6366 -0.2271 -1.1991
45276SOL     OW42877   0.428   4.359  11.335 -0.1392 -0.1960  0.1340
45276SOL    HW142878   0.378   4.290  11.290  1.3568 -3.3142  2.8075
45276SOL    HW242879   0.407   4.347  11.428  2.7715  0.7210  1.0275
45277SOL     OW42880   7.566   6.982   5.976  0.0275 -0.2367  0.2087
45277SOL    HW142881   7.535   7.056   5.924  1.3924  0.3575  0.2089
45277SOL    HW242882   7.660   6.994   5.981 -0.1719  1.6556  5.6164
45278SOL     OW42883   6.757   3.391   3.044  0.1971 -0.3955 -0.0523
45278SOL    HW142884   6.793   3.478   3.062 -1.4466 -0.1738  2.7904
45278SOL    HW242885   6.827   3.330   3.068  0.4320  0.1151  0.5831
45279SOL     OW42886   5.052  10.209   2.051  0.5314  1.0039 -0.2121
45279SOL    HW142887   4.974  10.164   2.019  1.1387  0.4978 -1.0204
45279SOL    HW242888   5.109  10.217   1.974  2.3838 -0.9528  0.8307
45280SOL     OW42889  12.119   3.431  12.208  0.5865 -0.2025 -0.0341
45280SOL    HW142890  12.037   3.435  12.158 -0.4150  1.0039  1.5870
45280SOL    HW242891  12.184   3.397  12.146 -1.4365 -2.7409 -0.9315
45281SOL     OW42892   4.226   9.050   0.758  0.1236 -0.4634 -0.6871
45281SOL    HW142893   4.196   9.067   0.847  1.4701 -1.8507  0.0970
45281SOL    HW242894   4.321   9.062   0.763  0.3588 -1.7047 -1.6197
45282SOL     OW42895   0.971   2.400   7.085 -0.2787 -0.4290 -0.2881
45282SOL    HW142896   1.043   2.393   7.023  0.0032 -0.8790  0.0787
45282SOL    HW242897   0.892   2.386   7.032 -0.0219 -1.1656 -0.4945
45283SOL     OW42898   5.378   7.955   4.715  0.1332 -0.1112  0.1135
45283SOL    HW142899   5.368   8.007   4.635  0.4018 -1.6290 -0.9507
45283SOL    HW242900   5.329   8.003   4.781  0.4295  1.5191 -0.7955
45284SOL     OW42901  12.028   6.023   2.491  0.2713 -0.1022  0.3325
45284SOL    HW142902  11.985   6.086   2.548 -1.5871 -1.3373  0.4002
45284SOL    HW242903  12.063   6.075   2.419 -3.6273  0.8425 -1.1154
45285SOL     OW42904  10.537  11.999   6.426  0.4930  0.0225 -0.0544
45285SOL    HW142905  10.595  11.927   6.404  0.8465  0.7966 -1.8539
45285SOL    HW242906  10.510  11.981   6.516  1.5674 -1.6517 -0.0117
45286SOL     OW42907   4.733   0.183   6.565  0.0767  0.0346 -0.0619
45286SOL    HW142908   4.708   0.243   6.634 -0.3098 -0.7254  0.4728
45286SOL    HW242909   4.768   0.106   6.611  1.2178  0.1130 -0.7338
45287SOL     OW42910   5.075   8.962   2.921  0.1643  0.2841  0.2717
45287SOL    HW142911   5.169   8.947   2.914  0.0888 -0.4363  0.6977
45287SOL    HW242912   5.066   9.057   2.919  1.2096  0.5632  3.2332
45288SOL     OW42913  11.650   8.437   8.887 -0.0053  0.3020 -0.8552
45288SOL    HW142914  11.612   8.368   8.941 -0.6467  1.6446  0.4769
45288SOL    HW242915  11.733   8.400   8.857 -0.1137 -0.8846  0.1922
45289SOL     OW42916   1.975   6.049  12.221  0.2596 -0.1290  0.3638
45289SOL    HW142917   1.922   6.107  12.167  1.0758 -0.9633 -1.3997
45289SOL    HW242918   1.926   6.040  12.303 -1.3867  0.5669 -0.5174
45290SOL     OW42919   0.429   1.386   7.370  0.1767 -0.1448  0.3447
45290SOL    HW142920   0.405   1.468   7.328 -3.2252 -1.3516 -0.3653
45290SOL    HW242921   0.457   1.412   7.458 -1.5493  1.7542  0.4026
45291SOL     OW42922   4.855   7.580   4.189 -0.3030  0.0005 -0.3361
45291SOL    HW142923   4.808   7.651   4.232  1.0231  1.0141 -0.5243
45291SOL    HW242924   4.829   7.587   4.097  0.1129  0.4903 -0.4205
45292SOL     OW42925   1.948   6.592   1.663 -0.1996 -0.3136 -0.5478
45292SOL    HW142926   2.017   6.656   1.645  0.5012 -0.2338  2.0108
45292SOL    HW242927   1.907   6.577   1.578  2.1200  0.5986 -1.9358
45293SOL     OW42928  12.109   2.210  11.621  0.3246 -0.2614 -0.2257
45293SOL    HW142929  12.188   2.216  11.674  0.8111  0.3386 -0.9985
45293SOL    HW242930  12.051   2.152  11.670  0.7721  0.2556  0.9393
45294SOL     OW42931  11.244  12.561  11.777  0.4728 -0.1614  0.3700
45294SOL    HW142932  11.191  12.590  11.850 -1.3536 -2.8979  0.2644
45294SOL    HW242933  11.260  12.468  11.793  1.5684 -0.4328 -1.8016
45295SOL     OW42934   7.470   7.187   6.487  0.1923 -0.5924  0.0261
45295SOL    HW142935   7.536   7.118   6.497  0.1504 -0.4605  1.5347
45295SOL    HW242936   7.466   7.228   6.574 -1.9963 -0.7023  0.0284
45296SOL     OW42937   1.165   8.560   9.422  1.2287  0.1059 -0.4909
45296SOL    HW142938   1.250   8.540   9.461  0.9561 -1.4287 -0.5883
45296SOL    HW242939   1.111   8.592   9.495  1.1445 -1.3805  0.1409
45297SOL     OW42940   9.479   0.913   9.726 -0.1374  0.4974  0.2676
45297SOL    HW142941   9.400   0.951   9.689 -0.4802 -2.0920 -2.0763
45297SOL    HW242942   9.448   0.857   9.797 -0.8036 -1.8752 -1.7378
45298SOL     OW42943   3.707   7.740   7.149 -0.3627  0.8361  0.0480
45298SOL    HW142944   3.634   7.680   7.135 -0.4481  0.7980  0.6087
45298SOL    HW242945   3.732   7.769   7.062 -1.0333  0.8261 -0.1528
45299SOL     OW42946   3.375  11.253   3.942 -0.6201 -0.1103 -0.2144
45299SOL    HW142947   3.349  11.344   3.957  1.5992  0.4509  0.7377
45299SOL    HW242948   3.442  11.259   3.874 -0.3288 -1.0068 -0.0195
45300SOL     OW42949   3.467   5.750  11.706  0.7018  0.5866 -0.1143
45300SOL    HW142950   3.463   5.681  11.772  0.6959  0.5499 -0.1527
45300SOL    HW242951   3.397   5.810  11.729  1.1670  0.9626  0.3490
45301SOL     OW42952   8.129   9.362   1.140 -0.6647  0.6252 -0.0384
45301SOL    HW142953   8.173   9.446   1.127  0.6305 -0.1828 -1.2353
45301SOL    HW242954   8.116   9.328   1.052 -0.7949 -0.6033  0.4313
45302SOL     OW42955   5.684  10.985   6.710  0.3191  0.6069  0.2948
45302SOL    HW142956   5.726  10.969   6.795  1.9337 -2.5137 -0.9025
45302SOL    HW242957   5.758  11.000   6.651 -0.4768 -1.0277 -1.1774
45303SOL     OW42958   9.844  11.954   7.575 -0.1777  0.0538 -0.0974
45303SOL    HW142959   9.916  11.975   7.515 -1.2755  1.3451 -1.0134
45303SOL    HW242960   9.833  12.033   7.627  0.4382 -0.8838  1.5421
45304SOL     OW42961  12.352   0.504   4.009 -0.3322  0.8042  0.5020
45304SOL    HW142962  12.386   0.591   4.029 -0.1033  0.8836 -0.2264
45304SOL    HW242963  12.382   0.450   4.083  1.9050  0.7439 -0.3791
45305SOL     OW42964  10.290   6.304  10.570  0.2945 -0.2490 -0.3208
45305SOL    HW142965  10.379   6.340  10.565  0.1388  0.3935  1.0705
45305SOL    HW242966  10.247   6.355  10.638 -1.0298 -0.8277 -0.6855
45306SOL     OW42967   2.869   0.345   1.493 -0.3678 -0.1621  0.1999
45306SOL    HW142968   2.949   0.335   1.546  0.0456  1.0150 -0.1729
45306SOL    HW242969   2.900   0.339   1.403 -0.2433  2.7959 -0.0460
45307SOL     OW42970   2.369   8.131   3.064  0.2727  0.4113 -0.3900
45307SOL    HW142971   2.274   8.126   3.060  0.2065  1.7905 -0.9643
45307SOL    HW242972   2.396   8.048   3.105 -1.2053  0.3398  0.4948
45308SOL     OW42973   6.408  11.952   2.876  0.1134  0.1952 -0.2859
45308SOL    HW142974   6.316  11.936   2.895 -0.0755  0.1047 -1.2297
45308SOL    HW242975   6.454  11.924   2.955 -0.7400  1.2363  0.6050
45309SOL     OW42976   8.248   6.998   1.469 -0.0109 -0.2600 -0.3369
45309SOL    HW142977   8.205   6.927   1.517 -0.1649 -0.3004 -0.5335
45309SOL    HW242978   8.176   7.051   1.434  0.0633 -0.9668 -1.6360
45310SOL     OW42979   8.556  10.148   6.916  0.5902  0.0385 -0.4021
45310SOL    HW142980   8.473  10.166   6.959  0.8318 -1.1042  0.6004
45310SOL    HW242981   8.548  10.190   6.830 -0.9967 -0.0080 -0.3107
45311SOL     OW42982   6.290   7.859   0.111 -0.2104 -0.0729  0.0509
45311SOL    HW142983   6.289   7.826   0.021 -0.8332 -2.4038  0.8437
45311SOL    HW242984   6.353   7.931   0.109 -1.8764  1.5129 -2.7321
45312SOL     OW42985   9.922   4.895   8.110  0.1076  0.0258  0.3651
45312SOL    HW142986  10.007   4.851   8.097  0.0969  0.3371 -0.8598
45312SOL    HW242987   9.933   4.980   8.068 -1.7633 -1.0601 -2.6034
45313SOL     OW42988  10.576   9.761  12.355 -0.3880 -0.4485  0.2262
45313SOL    HW142989  10.604   9.786  12.267 -2.2118  1.9147  0.2153
45313SOL    HW242990  10.481   9.749  12.347 -0.7655  0.8965  2.0438
45314SOL     OW42991   3.165   6.450  11.445 -0.4417 -0.4400  0.2476
45314SOL    HW142992   3.228   6.512  11.409  0.2808 -0.3130  1.6690
45314SOL    HW242993   3.206   6.417  11.525 -2.0110 -0.6419  1.0141
45315SOL     OW42994  10.964   2.897   6.354 -0.0052 -0.6196  0.2087
45315SOL    HW142995  11.042   2.884   6.408  0.0087  0.4341  0.4587
45315SOL    HW242996  10.959   2.818   6.300  0.6494 -1.1604  0.9180
45316SOL     OW42997  11.821   6.155   5.646 -0.3285  0.6019  0.4877
45316SOL    HW142998  11.835   6.182   5.737 -0.2431  0.0094  0.6605
45316SOL    HW242999  11.908   6.135   5.613 -0.3887  0.5318  0.3692
45317SOL     OW43000   1.321  10.990   4.631  0.2537 -0.1631 -0.7795
45317SOL    HW143001   1.402  10.999   4.681 -0.1464  1.0931 -0.3327
45317SOL    HW243002   1.269  10.927   4.680  0.2895  0.2782 -0.1737
45318SOL     OW43003  11.684   8.970   8.482  0.0844 -0.2152  0.1006
45318SOL    HW143004  11.710   9.027   8.410  0.4008 -1.3235 -0.6935
45318SOL    HW243005  11.693   9.024   8.560  0.8458  0.6667 -0.5749
45319SOL     OW43006   4.601   7.911   6.652  0.4313  0.2608  0.3165
45319SOL    HW143007   4.555   7.891   6.571 -0.1308  1.7083  0.2515
45319SOL    HW243008   4.559   7.856   6.718 -0.2067  0.2829 -0.0643
45320SOL     OW43009   6.884   5.917  11.673  0.4861 -0.0084 -0.3082
45320SOL    HW143010   6.795   5.892  11.650 -0.4377  1.7942  0.9960
45320SOL    HW243011   6.924   5.837  11.707 -1.9214 -0.1539  2.6278
45321SOL     OW43012   7.981   4.568   6.210  0.1951 -0.4211  0.1079
45321SOL    HW143013   8.009   4.612   6.130  0.9013  0.8657  1.0280
45321SOL    HW243014   7.996   4.475   6.192  0.4502 -0.1493 -1.2016
45322SOL     OW43015   0.108  10.762   1.998 -0.1501 -0.2399 -0.7257
45322SOL    HW143016   0.143  10.826   1.935 -1.4155  1.1759 -0.0425
45322SOL    HW243017   0.016  10.787   2.009  0.1864  0.0320  2.2312
45323SOL     OW43018   1.810   6.184   3.327 -0.8002 -0.2267  0.0161
45323SOL    HW143019   1.856   6.225   3.400  2.1479 -0.3594 -1.6030
45323SOL    HW243020   1.722   6.221   3.330  0.5732  3.4254  0.8278
45324SOL     OW43021   8.275   8.299   9.374 -0.3372  0.4892 -0.1295
45324SOL    HW143022   8.210   8.231   9.355 -1.2885  1.3904 -0.1439
45324SOL    HW243023   8.280   8.302   9.470  0.2978 -0.1403 -0.1335
45325SOL     OW43024  11.389   3.527   2.584 -0.1758 -0.4175 -0.2305
45325SOL    HW143025  11.318   3.468   2.611 -0.6115  0.1787 -0.0726
45325SOL    HW243026  11.456   3.468   2.549 -1.4755 -0.8900 -2.1032
45326SOL     OW43027   0.475   1.545   5.529 -0.3376  0.3687  0.1687
45326SOL    HW143028   0.555   1.495   5.539  0.7845  1.4317 -2.4594
45326SOL    HW243029   0.501   1.636   5.545 -0.9560  0.7472 -0.8716
45327SOL     OW43030   1.789   2.754   6.004  0.3134 -0.4746 -0.0145
45327SOL    HW143031   1.824   2.841   5.985  1.4378 -1.4316 -3.0518
45327SOL    HW243032   1.734   2.733   5.928 -1.4809 -1.6998  1.5300
45328SOL     OW43033  11.738  11.130   5.435  0.0901 -0.2579 -0.0724
45328SOL    HW143034  11.653  11.115   5.477 -0.4509  2.2540 -0.1339
45328SOL    HW243035  11.788  11.181   5.498  1.7177 -1.9003  0.0623
45329SOL     OW43036   8.825   3.399  10.216 -0.1812  0.0096  0.1762
45329SOL    HW143037   8.802   3.344  10.291  1.8712 -0.5274  0.4439
45329SOL    HW243038   8.742   3.409  10.168 -0.8044 -2.5108  0.6157
45330SOL     OW43039  12.295   6.417  10.008 -0.0914  0.4216 -0.3270
45330SOL    HW143040  12.243   6.430  10.088 -0.7715  0.4282 -0.7666
45330SOL    HW243041  12.386   6.433  10.036 -0.1659 -0.8628  0.7412
45331SOL     OW43042   4.738  12.058   2.237  0.2391 -0.0754 -0.2786
45331SOL    HW143043   4.800  12.097   2.176  1.5231 -0.0664  0.9768
45331SOL    HW243044   4.749  11.964   2.225  0.2036 -0.0739 -0.3277
45332SOL     OW43045   7.399   4.472   5.021 -0.7773  0.0650 -0.3154
45332SOL    HW143046   7.357   4.540   4.968 -2.4581 -0.0063  0.8752
45332SOL    HW243047   7.386   4.500   5.111  0.3160 -0.8245  0.1473
45333SOL     OW43048  12.535   9.900   5.039  0.7301 -0.1325  0.1604
45333SOL    HW143049  12.440   9.913   5.039  0.6665 -0.2733  2.1641
45333SOL    HW243050  12.571   9.981   5.005 -0.0681  0.4973  0.7857
45334SOL     OW43051   6.256   2.007  12.163 -0.5225 -0.2676 -0.2067
45334SOL    HW143052   6.290   1.919  12.150 -2.9761 -1.2961 -0.3042
45334SOL    HW243053   6.204   2.001  12.243 -0.0598  1.3348  0.2472
45335SOL     OW43054   0.853   4.762   4.181  0.4798 -0.7821  0.2990
45335SOL    HW143055   0.765   4.746   4.214  1.4214 -0.9158  3.0490
45335SOL    HW243056   0.856   4.857   4.168  0.2876 -0.5818  1.5321
45336SOL     OW43057   4.133   2.154   2.448  0.5384  0.1106  0.4603
45336SOL    HW143058   4.209   2.135   2.503  1.1607  1.0228 -0.0748
45336SOL    HW243059   4.137   2.248   2.433  0.6276 -0.1635 -1.4839
45337SOL     OW43060   2.557   8.122   3.400  0.0518  0.6745 -0.5203
45337SOL    HW143061   2.599   8.184   3.459  0.8438 -0.8387  0.5872
45337SOL    HW243062   2.614   8.119   3.323  2.5002 -1.7521  1.1720
45338SOL     OW43063  10.523   7.415   5.114 -0.2048 -0.2399  0.9166
45338SOL    HW143064  10.497   7.507   5.117  0.5639  0.1855 -2.2553
45338SOL    HW243065  10.470   7.377   5.045  1.7995 -1.3315 -0.1085
45339SOL     OW43066   1.012   9.966   1.829 -0.2861  0.0336 -0.7446
45339SOL    HW143067   0.985   9.995   1.916  0.9246 -2.6712  0.6479
45339SOL    HW243068   0.930   9.966   1.778 -1.0491  1.5000  0.3850
45340SOL     OW43069  11.732   9.397   4.536 -0.3049 -0.3384  0.1119
45340SOL    HW143070  11.754   9.356   4.452  0.0506  0.1663 -0.0432
45340SOL    HW243071  11.724   9.490   4.516 -0.6311 -0.2689  0.5587
45341SOL     OW43072   3.849   2.124   9.276  0.3288  0.0605  0.2309
45341SOL    HW143073   3.777   2.123   9.338  0.7135  1.9965  0.7530
45341SOL    HW243074   3.808   2.103   9.192 -0.8897  1.2969  0.4867
45342SOL     OW43075   6.716  10.830   5.025 -0.1524  0.3374  0.3642
45342SOL    HW143076   6.811  10.841   5.016 -0.1960 -0.4763 -1.6104
45342SOL    HW243077   6.678  10.903   4.975 -0.6099  1.1245  1.8071
45343SOL     OW43078   4.439  10.388  11.747  0.7661 -0.1874 -0.0679
45343SOL    HW143079   4.515  10.447  11.744  0.0991  0.7080  0.2269
45343SOL    HW243080   4.382  10.427  11.813 -1.6934  1.3551 -2.8585
45344SOL     OW43081   6.642   5.050  11.097 -0.5788 -0.3332 -0.4844
45344SOL    HW143082   6.721   4.996  11.089 -2.0437 -2.4472 -1.7522
45344SOL    HW243083   6.619   5.045  11.190  1.0957  0.9023  0.0497
45345SOL     OW43084   5.551   7.635  11.450  0.4809  0.0317 -0.1008
45345SOL    HW143085   5.636   7.624  11.407  0.0979  1.1556 -1.2046
45345SOL    HW243086   5.504   7.698  11.395 -0.9820 -0.3771  0.6275
45346SOL     OW43087   9.150   6.726   1.973  0.0935 -0.2886 -0.1939
45346SOL    HW143088   9.182   6.662   1.909 -1.3072 -1.0355 -0.2096
45346SOL    HW243089   9.124   6.802   1.920  0.0623 -0.4288 -0.3822
45347SOL     OW43090  10.267  11.850   4.454  0.1740  0.2400 -0.0561
45347SOL    HW143091  10.253  11.934   4.410  0.4396 -0.2662 -1.1572
45347SOL    HW243092  10.286  11.873   4.545 -0.4403  1.3264 -0.1878
45348SOL     OW43093   2.288   8.851   4.837  0.0454 -0.4565  0.4527
45348SOL    HW143094   2.266   8.921   4.775 -1.1739 -1.1466  0.0947
45348SOL    HW243095   2.379   8.829   4.816  0.0204  0.1166 -0.3010
45349SOL     OW43096   9.603   9.845   9.478  0.1994 -0.0823  0.2015
45349SOL    HW143097   9.592   9.761   9.434 -0.1832  0.8643 -1.5973
45349SOL    HW243098   9.519   9.861   9.520  0.3439 -0.6816  0.7325
45350SOL     OW43099   9.235   9.894   2.816  0.7957 -0.2327 -0.2397
45350SOL    HW143100   9.180   9.920   2.743  1.2214  1.2633 -0.0503
45350SOL    HW243101   9.253   9.975   2.864 -0.4302 -1.3143  2.2210
45351SOL     OW43102   2.664   3.656   7.824  0.4415 -0.2329 -0.1053
45351SOL    HW143103   2.700   3.592   7.762 -0.0730 -0.6308 -0.0032
45351SOL    HW243104   2.720   3.648   7.901 -1.0993 -2.3847  0.8745
45352SOL     OW43105   8.031  11.901   9.736  0.5621  0.4728  0.3390
45352SOL    HW143106   7.942  11.888   9.770 -0.0305 -0.7443 -1.5140
45352SOL    HW243107   8.079  11.940   9.808 -1.3546  0.6984  1.5612
45353SOL     OW43108   1.763   0.847   2.431  0.1007 -0.0867 -0.5106
45353SOL    HW143109   1.715   0.850   2.514  1.0013 -0.1437  0.0268
45353SOL    HW243110   1.851   0.875   2.453  0.4136 -0.3128 -1.4156
45354SOL     OW43111  10.553  10.939   8.985 -0.2908 -0.1409 -0.0832
45354SOL    HW143112  10.610  10.947   9.061 -0.8367  0.9896  0.2314
45354SOL    HW243113  10.532  11.029   8.961  0.1739 -0.4676 -1.8169
45355SOL     OW43114   2.882   2.714   6.605  0.2926 -0.0315 -0.3857
45355SOL    HW143115   2.802   2.689   6.651  0.5606 -0.6062 -0.2267
45355SOL    HW243116   2.856   2.790   6.552 -0.2716 -0.0046 -0.0835
45356SOL     OW43117   5.799   6.821  10.144  0.1702  0.9174  0.6423
45356SOL    HW143118   5.740   6.884  10.185  1.2044  2.0849  0.4225
45356SOL    HW243119   5.825   6.863  10.062  1.8023  0.7541  1.0421
45357SOL     OW43120   3.217   4.913   2.130  0.6124 -0.2837  0.2579
45357SOL    HW143121   3.213   5.008   2.120  2.4068 -0.1536  0.4530
45357SOL    HW243122   3.306   4.896   2.160 -0.0343 -1.9351  1.3623
45358SOL     OW43123   7.462   6.783   0.882 -0.1445  0.5350  0.5259
45358SOL    HW143124   7.464   6.865   0.931 -0.4519  0.7092  0.2523
45358SOL    HW243125   7.522   6.725   0.929 -0.4452  0.6938  1.1058
45359SOL     OW43126   1.062   6.625   5.691 -0.3419 -0.1106 -0.2253
45359SOL    HW143127   0.996   6.581   5.745 -0.3872  0.9356  0.6327
45359SOL    HW243128   1.033   6.612   5.601 -0.9361 -0.8832  0.0691
45360SOL     OW43129  10.714  11.536  11.991  0.6626 -0.0475 -0.1052
45360SOL    HW143130  10.758  11.621  11.986  1.0856 -0.3040 -1.0077
45360SOL    HW243131  10.672  11.535  12.077  0.4529  1.1648 -0.1819
45361SOL     OW43132   7.799   1.516  10.078 -0.1803  0.0791 -0.1849
45361SOL    HW143133   7.779   1.454  10.148  0.5633 -0.9773 -0.8748
45361SOL    HW243134   7.819   1.461  10.003 -0.1379  1.1819 -0.9993
45362SOL     OW43135   2.087  11.899  12.282 -0.1526 -0.3263  0.3190
45362SOL    HW143136   2.047  11.986  12.284  0.2843 -0.1258  0.6842
45362SOL    HW243137   2.034  11.849  12.221 -0.3791  0.2172  0.0645
45363SOL     OW43138   4.424  10.886   5.231  0.4776 -0.3396 -0.5111
45363SOL    HW143139   4.333  10.903   5.254  0.9728 -0.8879  2.1619
45363SOL    HW243140   4.419  10.818   5.163 -1.0825  0.1740 -0.9518
45364SOL     OW43141   4.667  12.567   1.086 -0.2281 -0.5494  0.0070
45364SOL    HW143142   4.648  12.503   1.154  2.4367 -1.2735  0.1843
45364SOL    HW243143   4.718  12.635   1.130 -0.7676  0.3555 -0.7340
45365SOL     OW43144   0.523   6.838   4.030 -0.4205  0.2901 -0.0019
45365SOL    HW143145   0.565   6.828   4.115 -0.7199  0.8685  0.2234
45365SOL    HW243146   0.459   6.766   4.026  0.1283 -0.2052 -0.0781
45366SOL     OW43147   3.936   6.666   3.218 -0.3008  0.1117 -0.7433
45366SOL    HW143148   3.967   6.745   3.262  0.4464  0.4139 -1.7708
45366SOL    HW243149   3.844   6.683   3.200 -0.2598  0.5628 -0.5437
45367SOL     OW43150   7.332   7.870   9.964 -0.3822 -0.4041 -0.1558
45367SOL    HW143151   7.413   7.919   9.979  0.1952 -1.2221 -0.5682
45367SOL    HW243152   7.262   7.933   9.984  0.3320  0.8772 -1.5029
45368SOL     OW43153   1.487   7.460   5.788  0.0865 -0.0277  0.3546
45368SOL    HW143154   1.575   7.497   5.776  0.8904 -1.7532  0.6106
45368SOL    HW243155   1.429   7.522   5.744  1.0133  2.8721  2.8424
45369SOL     OW43156  11.346   4.713   5.858  0.1952  0.1703  0.0438
45369SOL    HW143157  11.417   4.726   5.921  0.8168 -1.0672 -0.3690
45369SOL    HW243158  11.320   4.802   5.833 -0.5083  0.7292  2.4856
45370SOL     OW43159   0.256   0.061   7.963  0.4635  0.1644  0.3336
45370SOL    HW143160   0.313   0.027   7.893 -1.0941  0.4071 -1.1248
45370SOL    HW243161   0.245  -0.013   8.023  1.6528 -0.1209  0.2374
45371SOL     OW43162   7.517   4.550   0.088 -0.7881  0.1381 -0.2466
45371SOL    HW143163   7.585   4.552   0.020 -1.5622  0.9909 -1.0234
45371SOL    HW243164   7.436   4.535   0.040 -1.2275 -0.3408  0.6204
45372SOL     OW43165   1.500   5.442   8.593 -0.0580 -0.3105 -0.1862
45372SOL    HW143166   1.585   5.431   8.551  0.3103 -1.5036  0.7882
45372SOL    HW243167   1.496   5.370   8.657 -1.2637  0.4747  0.6579
45373SOL     OW43168   3.879   9.809  10.377 -0.7465  0.4348 -0.2597
45373SOL    HW143169   3.953   9.834  10.431  1.8408 -2.2658 -2.2576
45373SOL    HW243170   3.824   9.755  10.434 -0.1597  0.8409  0.7031
45374SOL     OW43171   7.309   3.411   8.143  0.3550  0.6289  0.2319
45374SOL    HW143172   7.311   3.377   8.233  1.8342  1.5760  0.5817
45374SOL    HW243173   7.378   3.477   8.140  1.6355 -0.6749 -2.1143
45375SOL     OW43174   7.099   3.271   8.053  0.2479 -0.1006  0.4388
45375SOL    HW143175   7.034   3.339   8.036 -0.0717 -0.4951  0.0629
45375SOL    HW243176   7.180   3.318   8.068  0.1036  0.3526 -0.1703
45376SOL     OW43177   0.558   0.070  11.126 -0.2563 -0.1326  0.5886
45376SOL    HW143178   0.473   0.033  11.102 -0.7419  1.2002  0.1550
45376SOL    HW243179   0.621  -0.000  11.110 -1.1991 -0.9346  0.3360
45377SOL     OW43180   0.063   9.249   5.417  0.0268  0.4803 -0.2405
45377SOL    HW143181   0.001   9.181   5.390  0.2148 -0.7639  2.1623
45377SOL    HW243182   0.044   9.262   5.510  1.2231  2.4329 -0.2240
45378SOL     OW43183   3.824   8.692  12.590  0.2190  0.1051  0.3203
45378SOL    HW143184   3.891   8.663  12.652  1.5120  1.2877 -0.4526
45378SOL    HW243185   3.743   8.651  12.620  0.8244  0.5024  2.6901
45379SOL     OW43186   1.433   8.236   0.692  0.5863  0.1978  0.2866
45379SOL    HW143187   1.390   8.186   0.622  1.0793 -1.6831  1.2668
45379SOL    HW243188   1.369   8.305   0.714 -1.7086 -2.0459  1.1946
45380SOL     OW43189   6.245   7.898  10.118 -0.2176  0.8360  0.3555
45380SOL    HW143190   6.235   7.903  10.023  0.6995  0.1415  0.2129
45380SOL    HW243191   6.317   7.838  10.132 -1.7920 -0.8896  1.5763
45381SOL     OW43192   2.755  10.310   8.861  0.4975 -0.1694  0.3142
45381SOL    HW143193   2.829  10.360   8.897  0.4073  0.2677 -0.1102
45381SOL    HW243194   2.766  10.222   8.899  1.1443 -0.0657  0.3857
45382SOL     OW43195   7.806   8.470   6.879  0.4570  0.0196  0.2182
45382SOL    HW143196   7.822   8.469   6.785  0.2516  1.5732  0.1351
45382SOL    HW243197   7.729   8.414   6.891  0.1998  0.1817 -0.6005
45383SOL     OW43198   4.248   4.741   1.524  0.2556 -0.6785 -0.0100
45383SOL    HW143199   4.185   4.673   1.500 -0.8791 -0.0019  0.9439
45383SOL    HW243200   4.331   4.695   1.531 -0.8313 -2.4670  2.7425
45384SOL     OW43201  11.375   5.778  12.258 -0.1697  0.0096  0.5675
45384SOL    HW143202  11.331   5.835  12.195  0.6390 -0.9734 -0.9618
45384SOL    HW243203  11.365   5.823  12.342 -0.3397  1.9320 -0.4179
45385SOL     OW43204   5.440   9.666   7.880 -0.0663  0.4315 -0.7104
45385SOL    HW143205   5.406   9.646   7.967  0.0535 -0.6057 -0.8824
45385SOL    HW243206   5.402   9.598   7.824  1.3594 -0.0581 -1.1136
45386SOL     OW43207   3.938   9.732   3.553 -0.0308  0.7279  0.5938
45386SOL    HW143208   3.977   9.645   3.562 -2.8698 -0.7429 -0.1388
45386SOL    HW243209   3.882   9.741   3.630  1.1061  2.5151  1.3059
45387SOL     OW43210   5.180  12.590   4.099 -0.3778 -0.5482  0.1492
45387SOL    HW143211   5.257  12.575   4.154  1.0946  1.8344 -1.0848
45387SOL    HW243212   5.195  12.675   4.059 -2.8126 -0.8284 -1.6240
45388SOL     OW43213   7.503   2.812  11.345 -0.3138  0.0825 -0.5509
45388SOL    HW143214   7.413   2.782  11.337  0.5361 -2.8851  0.0195
45388SOL    HW243215   7.507   2.855  11.430 -1.2645  0.6159 -0.7650
45389SOL     OW43216   5.601   6.473   3.295  0.6062 -0.1635  0.5498
45389SOL    HW143217   5.575   6.416   3.367 -0.6269  0.7218  0.8400
45389SOL    HW243218   5.530   6.537   3.288 -0.2337 -1.2199 -2.5944
45390SOL     OW43219   0.830   3.897   3.072  0.2623  0.1076 -0.0628
45390SOL    HW143220   0.887   3.895   2.996 -0.1022  0.1807 -0.3445
45390SOL    HW243221   0.756   3.953   3.046  0.5181  0.7935  0.6219
45391SOL     OW43222   7.271  10.533   0.720 -0.1913  0.1125  0.3524
45391SOL    HW143223   7.217  10.455   0.709 -1.1630  0.6554  1.0368
45391SOL    HW243224   7.208  10.605   0.724  0.6208  0.8268  0.6350
45392SOL     OW43225   6.236   3.825  10.152  0.6698 -0.7781 -0.0369
45392SOL    HW143226   6.171   3.881  10.193  1.5739  0.8233 -0.7023
45392SOL    HW243227   6.315   3.837  10.205  0.8409 -1.5577 -0.0962
45393SOL     OW43228  10.953   7.030   5.349 -0.0283  0.5475  0.2349
45393SOL    HW143229  10.866   7.068   5.336  0.3173  1.4797  0.5434
45393SOL    HW243230  11.011   7.106   5.351  1.0951 -0.1376 -2.1739
45394SOL     OW43231   6.316   0.791   9.865  0.2989 -0.3807 -0.2638
45394SOL    HW143232   6.299   0.851   9.793  0.6342 -0.1222 -0.1306
45394SOL    HW243233   6.263   0.714   9.846  0.9916 -0.6396 -1.1925
45395SOL     OW43234   5.618   8.787   4.496 -0.4176  0.0377  0.2003
45395SOL    HW143235   5.557   8.861   4.491  0.0247  0.4232  0.3869
45395SOL    HW243236   5.622   8.754   4.407 -0.7035  0.1665  0.1362
45396SOL     OW43237   5.367   6.296  11.543 -0.1019  0.3721 -0.1419
45396SOL    HW143238   5.354   6.206  11.511  3.1166 -1.1182  2.1547
45396SOL    HW243239   5.341   6.292  11.635  1.6479  1.2831  0.4367
45397SOL     OW43240   1.267   1.400  10.123  0.1778 -0.0272 -0.1023
45397SOL    HW143241   1.261   1.371  10.032  1.5109  1.1535 -0.6169
45397SOL    HW243242   1.349   1.449  10.126  0.5384 -0.6887  1.9384
45398SOL     OW43243   3.838  10.771   6.977  0.1511 -0.3833  0.7931
45398SOL    HW143244   3.898  10.742   7.045 -0.8763 -0.3305  1.7486
45398SOL    HW243245   3.763  10.712   6.984 -1.5330  1.7395  2.0949
45399SOL     OW43246   5.068  11.086   4.830  0.3627  0.7208  0.1737
45399SOL    HW143247   5.054  10.993   4.845  1.9088  0.3119 -0.7197
45399SOL    HW243248   5.146  11.107   4.882  0.3549  1.3835 -0.0735
45400SOL     OW43249   2.601   7.499   9.924 -0.2827  0.4970 -0.4602
45400SOL    HW143250   2.623   7.584   9.962  3.0131 -0.6578  0.6047
45400SOL    HW243251   2.555   7.453   9.993  1.5796  0.0473  0.5448
45401SOL     OW43252   8.326   1.139   3.165 -0.4280  0.2895 -0.2743
45401SOL    HW143253   8.371   1.205   3.113 -0.3545  0.2290 -0.2868
45401SOL    HW243254   8.359   1.151   3.254 -0.5449  0.3851 -0.2431
45402SOL     OW43255   4.857   8.800   8.771 -0.7494  0.6775  0.2898
45402SOL    HW143256   4.816   8.840   8.847 -1.1264  0.5839  0.1342
45402SOL    HW243257   4.836   8.707   8.778  0.0628  0.5072  0.6122
45403SOL     OW43258  12.240   8.489   2.920 -0.0455 -0.1816  0.2670
45403SOL    HW143259  12.247   8.584   2.934 -0.5047  0.2066 -1.8262
45403SOL    HW243260  12.313   8.453   2.970  1.0124  1.4263 -0.0071
45404SOL     OW43261   6.241   1.283   8.761 -0.2839  0.7263 -0.1980
45404SOL    HW143262   6.278   1.222   8.698  0.6493  1.0669 -0.0034
45404SOL    HW243263   6.227   1.363   8.711  0.3202  0.9506 -0.0212
45405SOL     OW43264   8.106   2.799   2.521 -0.0556 -0.3839  0.3884
45405SOL    HW143265   8.107   2.845   2.605 -0.5931  1.1117 -0.3855
45405SOL    HW243266   8.040   2.730   2.533 -1.0890  0.6327  0.8097
45406SOL     OW43267   3.391  11.962   5.305 -0.5459  0.6591  0.5093
45406SOL    HW143268   3.335  12.036   5.330 -1.5359 -0.1137  0.6407
45406SOL    HW243269   3.478  12.000   5.295 -1.2429  2.0819 -0.5522
45407SOL     OW43270  10.767   8.586   6.810  0.3378  0.1116  0.2677
45407SOL    HW143271  10.719   8.666   6.831 -0.1985  0.1487 -1.0615
45407SOL    HW243272  10.826   8.574   6.885 -1.4637  0.2500  1.8124
45408SOL     OW43273   0.347   9.537  11.691 -0.8326  0.6597 -0.1867
45408SOL    HW143274   0.295   9.495  11.623  0.8381 -0.4283 -0.8618
45408SOL    HW243275   0.404   9.467  11.724 -0.9864  1.3860  1.7058
45409SOL     OW43276   1.417   3.611   2.719 -0.7385 -0.1742  0.4903
45409SOL    HW143277   1.377   3.690   2.756 -0.8975 -0.1020  0.1767
45409SOL    HW243278   1.383   3.608   2.629 -0.2820 -0.2857  0.3188
45410SOL     OW43279   6.752   1.204   1.305  0.0086  0.2389 -0.1733
45410SOL    HW143280   6.833   1.158   1.324  0.0679  0.6773  0.6517
45410SOL    HW243281   6.686   1.135   1.296  0.6585 -0.2119 -1.9934
45411SOL     OW43282   2.668   8.813   7.012  0.1279  0.6010  0.1870
45411SOL    HW143283   2.696   8.900   6.983 -0.6913  0.8406  0.1110
45411SOL    HW243284   2.602   8.786   6.949 -1.1837  0.8436  1.4146
45412SOL     OW43285   7.210   1.459   1.951  0.4606 -0.1875 -0.5951
45412SOL    HW143286   7.173   1.544   1.974 -0.7377 -1.0784  1.0441
45412SOL    HW243287   7.200   1.452   1.856 -0.7792  0.8861 -0.5638
45413SOL     OW43288   2.346   2.022   4.402 -0.1097  0.3797  0.0458
45413SOL    HW143289   2.319   2.037   4.492 -1.8290 -1.0631 -0.1622
45413SOL    HW243290   2.424   1.967   4.409 -1.2328 -1.1981  0.6932
45414SOL     OW43291   8.753   2.796   1.911  0.2450 -0.1891  0.0499
45414SOL    HW143292   8.740   2.856   1.985 -0.8736 -0.8784  0.4423
45414SOL    HW243293   8.821   2.735   1.941  0.8894  0.4592 -0.0840
45415SOL     OW43294  12.372  12.207   9.234 -0.3445 -0.0650  0.2959
45415SOL    HW143295  12.317  12.129   9.246 -0.0670 -0.4520 -0.7947
45415SOL    HW243296  12.415  12.192   9.150  0.7763  0.6344  0.7289
45416SOL     OW43297   1.617   7.436   0.326  0.4625  0.1121  0.5492
45416SOL    HW143298   1.582   7.500   0.265  0.8555  1.3907  1.6230
45416SOL    HW243299   1.709   7.427   0.301  0.2450 -0.6204 -0.0567
45417SOL     OW43300   6.353   1.719  12.585  0.4422 -0.0935 -0.0940
45417SOL    HW143301   6.362   1.670  12.668 -0.7757 -0.5863 -0.2424
45417SOL    HW243302   6.370   1.810  12.610  1.0459 -0.3588  0.5149
45418SOL     OW43303  11.074   3.799   7.813 -0.5352 -0.2880 -0.6634
45418SOL    HW143304  10.997   3.758   7.851  0.1534 -1.7325 -0.7475
45418SOL    HW243305  11.042   3.880   7.774 -1.4853  0.6541  1.8802
45419SOL     OW43306   1.065   7.626   6.701 -0.3113 -0.6026 -0.2822
45419SOL    HW143307   1.019   7.663   6.626  1.3077  2.1695 -0.0417
45419SOL    HW243308   1.088   7.702   6.755  1.6988 -2.1642  1.2223
45420SOL     OW43309   8.070   9.271   5.061  0.7741  0.4944  0.5611
45420SOL    HW143310   8.014   9.257   4.984 -1.0232  1.4452  1.6254
45420SOL    HW243311   8.132   9.338   5.033 -0.3236  1.3641  0.1249
45421SOL     OW43312  11.200   7.382   8.509 -0.5343  0.1233  0.0414
45421SOL    HW143313  11.184   7.296   8.547  1.0503 -0.2341 -0.0181
45421SOL    HW243314  11.213   7.366   8.416 -1.2065  0.5688 -0.1386
45422SOL     OW43315   9.890   2.072   1.958  0.0804 -0.6403  0.6032
45422SOL    HW143316   9.816   2.016   1.934 -1.3865  1.0773  0.8957
45422SOL    HW243317   9.856   2.162   1.948  2.4331  0.2228 -0.1691
45423SOL     OW43318   4.358   1.101   5.390  0.4384 -0.0708 -0.0783
45423SOL    HW143319   4.433   1.151   5.420 -0.0380  0.3838  0.3713
45423SOL    HW243320   4.330   1.051   5.467 -0.5517  0.8103  0.1606
45424SOL     OW43321   1.909  12.263   8.609 -0.0583  0.2494  0.1636
45424SOL    HW143322   1.993  12.232   8.644 -0.2448 -2.1213 -1.3060
45424SOL    HW243323   1.846  12.246   8.679  0.6149  2.0938  1.2993
45425SOL     OW43324  11.804   1.886   0.692  0.1078 -0.7009 -0.4079
45425SOL    HW143325  11.839   1.832   0.621 -0.1958 -2.5027  0.7541
45425SOL    HW243326  11.791   1.972   0.652 -1.0399 -1.9030 -2.8258
45426SOL     OW43327   0.902  10.385   1.335  0.2690  0.2563  0.8885
45426SOL    HW143328   0.969  10.449   1.312 -1.5862  1.5323 -1.4659
45426SOL    HW243329   0.943  10.300   1.318  0.9709  1.0285 -1.6829
45427SOL     OW43330  10.012   3.455   1.158  0.0002  0.1870 -0.0773
45427SOL    HW143331   9.982   3.465   1.067 -0.4026 -0.7088 -0.0488
45427SOL    HW243332  10.106   3.472   1.154  0.0654 -0.3093 -0.7454
45428SOL     OW43333   0.077   2.399   1.187  0.2866  0.5859 -0.0936
45428SOL    HW143334   0.050   2.402   1.095  0.2209 -0.9988 -0.1692
45428SOL    HW243335   0.067   2.307   1.211 -1.6560  1.2878  2.1250
45429SOL     OW43336   6.620   8.688   5.284  0.1969  0.0882  0.0953
45429SOL    HW143337   6.585   8.730   5.362  0.2821  0.6748 -0.1742
45429SOL    HW243338   6.676   8.756   5.244 -1.6453  0.6322 -1.7156
45430SOL     OW43339   4.941   3.737   3.393  0.5345 -0.3963  0.3103
45430SOL    HW143340   4.903   3.722   3.306 -1.8526  0.3092  1.1362
45430SOL    HW243341   4.929   3.653   3.439 -1.6502  0.2613  1.0729
45431SOL     OW43342   5.401   0.462   1.638  0.0251 -0.0704  0.4200
45431SOL    HW143343   5.356   0.379   1.624  0.1354 -0.8955  3.9739
45431SOL    HW243344   5.456   0.473   1.561 -2.4741 -1.5326 -1.7221
45432SOL     OW43345   6.252   0.995   6.087  0.0133  0.3756 -1.1206
45432SOL    HW143346   6.235   0.912   6.131  0.4420  0.8179 -0.0689
45432SOL    HW243347   6.335   1.025   6.124 -0.1082  1.2431 -1.5214
45433SOL     OW43348  11.808   3.314   7.788  0.4063  0.1322 -0.5496
45433SOL    HW143349  11.859   3.293   7.710  2.2014  0.1019  0.5689
45433SOL    HW243350  11.835   3.402   7.812 -0.6848  0.4339 -0.3695
45434SOL     OW43351   3.491   2.074   1.554  0.0198 -0.3687 -0.4891
45434SOL    HW143352   3.509   2.112   1.468 -2.0128 -0.5153 -1.0310
45434SOL    HW243353   3.484   2.150   1.612  0.6234 -0.2184 -0.6100
45435SOL     OW43354  12.013   9.671   3.922 -0.3815  0.1185  0.1196
45435SOL    HW143355  11.963   9.703   3.997 -1.4621  0.9271 -0.9001
45435SOL    HW243356  12.015   9.576   3.932 -1.7227  0.1159  0.4479
45436SOL     OW43357   1.409   2.429   6.827 -0.5984 -0.3600 -0.7385
45436SOL    HW143358   1.450   2.506   6.789 -0.8098 -0.0108 -0.2756
45436SOL    HW243359   1.392   2.371   6.753 -0.4441  0.0409 -1.0895
45437SOL     OW43360   3.122   7.674   7.467  0.1557 -0.4285 -0.2687
45437SOL    HW143361   3.137   7.659   7.374 -1.9774 -0.9319 -0.5766
45437SOL    HW243362   3.032   7.646   7.482  0.3856 -0.1779  1.9190
45438SOL     OW43363   0.178   3.502   3.486 -0.2592 -0.5882 -0.9961
45438SOL    HW143364   0.231   3.552   3.424 -1.7620  0.4434 -1.5060
45438SOL    HW243365   0.188   3.549   3.569 -1.8195  0.7520 -1.5153
45439SOL     OW43366   5.989   5.395   3.364  0.0466  0.2996  0.0636
45439SOL    HW143367   5.925   5.358   3.304 -0.0350  0.6769 -0.0858
45439SOL    HW243368   6.034   5.462   3.313 -0.5913  1.2036  0.6680
45440SOL     OW43369   1.048   5.951  11.212  0.2796  0.7622 -0.4074
45440SOL    HW143370   1.100   5.938  11.133  1.4613 -0.4191  0.5066
45440SOL    HW243371   1.094   6.020  11.260  1.8018 -1.0693  0.9472
45441SOL     OW43372   5.825   8.358   5.623 -1.2349  0.2904 -0.1761
45441SOL    HW143373   5.853   8.384   5.711  0.0016  0.3243 -0.5637
45441SOL    HW243374   5.771   8.431   5.593 -0.0226  1.2219 -0.1952
45442SOL     OW43375   7.517   7.791   4.318 -0.2716  0.4720 -0.3717
45442SOL    HW143376   7.526   7.770   4.225  1.2597 -1.6984  0.1559
45442SOL    HW243377   7.607   7.809   4.347 -0.4816 -0.4212  0.9545
45443SOL     OW43378   8.710   4.674   9.533  0.2479 -0.3519 -0.0137
45443SOL    HW143379   8.655   4.627   9.596  0.4539 -1.2513 -0.4840
45443SOL    HW243380   8.672   4.651   9.448 -0.7228  1.7244 -0.2091
45444SOL     OW43381   0.621  11.489   7.897  0.2260 -0.3734  0.4282
45444SOL    HW143382   0.561  11.479   7.971 -1.0170  0.8568 -0.3683
45444SOL    HW243383   0.595  11.572   7.857 -0.2598 -1.7693 -2.3725
45445SOL     OW43384   2.797  12.485   7.917 -0.1352 -0.1540 -0.3283
45445SOL    HW143385   2.781  12.398   7.954  0.0300  0.1911  0.5914
45445SOL    HW243386   2.733  12.493   7.846  0.2491 -1.2481 -0.8130
45446SOL     OW43387   5.397   1.317   2.953 -0.0954 -0.2664 -0.2096
45446SOL    HW143388   5.436   1.330   3.039 -0.5628  0.2820 -0.0702
45446SOL    HW243389   5.322   1.260   2.969 -0.7311  0.5750 -0.0910
45447SOL     OW43390  12.513   1.027   1.634 -0.0046  0.1753 -0.3391
45447SOL    HW143391  12.421   1.005   1.649  0.1919 -0.0016  0.6531
45447SOL    HW243392  12.517   1.050   1.541 -1.0824  0.3596 -0.3524
45448SOL     OW43393  10.703  12.252   3.317  0.4344  0.5180  0.0670
45448SOL    HW143394  10.657  12.334   3.335  1.5174  1.2659 -0.4757
45448SOL    HW243395  10.796  12.275   3.316  0.6926 -0.4098 -1.5625
45449SOL     OW43396   0.641   1.747   0.691 -0.5362  0.3931 -0.1750
45449SOL    HW143397   0.601   1.668   0.728 -0.8971 -1.2012 -3.5816
45449SOL    HW243398   0.572   1.813   0.696 -0.8123  0.0473  1.1479
45450SOL     OW43399   0.657   4.429   7.026  0.3344 -0.1847  0.1365
45450SOL    HW143400   0.577   4.420   7.078 -0.2650  0.0223 -0.7221
45450SOL    HW243401   0.662   4.349   6.975 -0.8322  0.8999 -1.8213
45451SOL     OW43402   3.614  12.233  11.616  0.0745  0.1128 -0.4687
45451SOL    HW143403   3.673  12.245  11.690 -1.1762 -0.2350  0.6302
45451SOL    HW243404   3.671  12.209  11.543  1.2910 -0.0577  0.5052
45452SOL     OW43405   6.160   0.778   6.934 -0.2061 -0.1546 -0.2195
45452SOL    HW143406   6.143   0.832   6.856 -2.1144 -0.2606  0.0781
45452SOL    HW243407   6.250   0.800   6.959  0.4416 -0.0671 -2.4099
45453SOL     OW43408   6.654   2.961  10.333 -0.1903  0.3440 -0.0390
45453SOL    HW143409   6.738   2.934  10.295  0.1459  1.6870 -0.2903
45453SOL    HW243410   6.631   2.890  10.393  1.6920  0.4700  0.9063
45454SOL     OW43411   2.860  10.752   3.599 -1.1230 -0.4005  0.2220
45454SOL    HW143412   2.955  10.756   3.615 -1.0150 -0.0798 -0.4667
45454SOL    HW243413   2.826  10.833   3.636 -0.4379  2.0136 -3.8007
45455SOL     OW43414   0.195   2.317  10.958 -0.0444  0.3838  0.1175
45455SOL    HW143415   0.171   2.400  10.916  1.0257  0.1239 -1.0562
45455SOL    HW243416   0.285   2.330  10.987  0.7955 -0.9795 -1.7530
45456SOL     OW43417   1.018   2.796   9.995 -0.0072  0.0822 -0.2311
45456SOL    HW143418   0.963   2.858   9.947 -0.5077 -0.8466 -0.9070
45456SOL    HW243419   1.083   2.767   9.932  0.7961  0.6047  0.3500
45457SOL     OW43420   2.239   0.483   5.872 -0.1135  0.5022  0.2698
45457SOL    HW143421   2.190   0.448   5.946  0.4719  0.8503  0.8318
45457SOL    HW243422   2.202   0.571   5.858  1.3059  1.3743  1.6577
45458SOL     OW43423  11.822   7.702   3.577  0.2171 -0.2555 -0.0457
45458SOL    HW143424  11.748   7.724   3.520 -0.2936  0.7375  0.9666
45458SOL    HW243425  11.870   7.785   3.586  2.0951 -1.0880 -1.5300
45459SOL     OW43426   3.635   5.153   3.091 -0.3940  0.2093  0.2823
45459SOL    HW143427   3.591   5.198   3.019  0.3729  0.8338  0.1906
45459SOL    HW243428   3.722   5.133   3.057 -0.3204 -0.2648  0.7439
45460SOL     OW43429   9.146  10.715   0.455 -0.1314 -0.3019 -0.0750
45460SOL    HW143430   9.115  10.762   0.378 -1.3292  0.6644  0.9693
45460SOL    HW243431   9.229  10.756   0.477 -0.4390  0.3277 -0.0683
45461SOL     OW43432   6.325   9.734  12.352 -0.7859 -0.3968  0.4950
45461SOL    HW143433   6.256   9.799  12.363 -0.5024  0.0216 -0.1212
45461SOL    HW243434   6.285   9.651  12.380 -1.6290 -0.2087 -0.0962
45462SOL     OW43435  11.770   2.785   7.040 -0.4052 -0.4121 -0.1579
45462SOL    HW143436  11.703   2.847   7.068  0.4970  1.6737 -2.3147
45462SOL    HW243437  11.722   2.702   7.028 -2.0023  0.2831  1.0429
45463SOL     OW43438   3.096  11.830   7.553  0.0595  0.1459 -0.0166
45463SOL    HW143439   3.051  11.895   7.500 -1.4751  1.2971  2.5280
45463SOL    HW243440   3.057  11.747   7.528 -2.1180  0.8989  0.6796
45464SOL     OW43441   2.294   5.970  11.163  0.7964 -0.5911 -0.1333
45464SOL    HW143442   2.234   5.957  11.089 -0.4304 -0.5328  0.8147
45464SOL    HW243443   2.363   5.906  11.149  0.6731 -0.4722 -1.4164
45465SOL     OW43444   9.341   1.412   4.851  0.1791 -0.1466 -0.6994
45465SOL    HW143445   9.260   1.463   4.862  0.0716 -0.1290 -1.4757
45465SOL    HW243446   9.352   1.406   4.756  0.2601 -1.4598 -0.6216
45466SOL     OW43447   9.709   8.640   9.418 -0.3695  0.0396  0.5207
45466SOL    HW143448   9.654   8.705   9.375 -1.7869 -1.3250  0.1956
45466SOL    HW243449   9.681   8.556   9.381  1.1048 -0.8104  1.2446
45467SOL     OW43450  10.985  11.516  11.166 -0.0133 -0.3824  0.1832
45467SOL    HW143451  10.908  11.503  11.220 -0.8256 -0.8360 -1.0506
45467SOL    HW243452  10.974  11.604  11.130  0.3273 -0.2375  0.4252
45468SOL     OW43453  11.982  11.274   3.539 -0.0548  0.0587 -0.4158
45468SOL    HW143454  11.906  11.329   3.518  0.0971  0.4192 -0.0460
45468SOL    HW243455  11.991  11.217   3.463 -1.8617 -1.3414  0.3508
45469SOL     OW43456   3.954   9.273   6.476 -0.1408  0.1159  1.1181
45469SOL    HW143457   3.859   9.267   6.487 -0.1036 -0.4683  1.1552
45469SOL    HW243458   3.979   9.187   6.443  0.0698  1.0213 -1.2562
45470SOL     OW43459  11.845   2.215   5.797  0.2080 -0.0989  0.2045
45470SOL    HW143460  11.928   2.185   5.762  0.2776 -1.1136  1.1677
45470SOL    HW243461  11.813   2.141   5.850 -0.3833  0.9641  1.3804
45471SOL     OW43462   7.894   6.418   7.998  0.7135 -0.7349  0.2006
45471SOL    HW143463   7.947   6.473   7.940  1.5063 -0.6045  1.0291
45471SOL    HW243464   7.956   6.380   8.059  0.0610 -1.9130  0.1708
45472SOL     OW43465   7.117   8.537   1.723  0.8017 -0.3168  0.4368
45472SOL    HW143466   7.171   8.589   1.782 -1.1963  1.1012  1.1097
45472SOL    HW243467   7.179   8.501   1.659  2.5302  1.1040  1.2325
45473SOL     OW43468  11.120   4.947   5.947  0.1792  0.4552 -0.3846
45473SOL    HW143469  11.208   4.939   5.912  0.3557  0.8773 -0.0452
45473SOL    HW243470  11.065   4.898   5.886  0.7567 -0.4912 -0.1544
45474SOL     OW43471   7.714  10.722   0.796  0.3703  0.3539  0.4277
45474SOL    HW143472   7.690  10.810   0.826  0.6568  0.9252 -0.9337
45474SOL    HW243473   7.632  10.672   0.802  0.5937  0.1522  2.9389
45475SOL     OW43474   4.161   1.316  11.547  0.0260 -0.1486 -0.0750
45475SOL    HW143475   4.251   1.300  11.575  0.5169 -0.6351 -1.8127
45475SOL    HW243476   4.151   1.411  11.553  2.0275  0.4599 -3.4778
45476SOL     OW43477   0.788   7.901  10.445 -0.2011 -0.2057  0.1362
45476SOL    HW143478   0.826   7.989  10.439 -0.6531 -0.0380 -0.3468
45476SOL    HW243479   0.844   7.855  10.508  0.2425  0.3208  0.1376
45477SOL     OW43480   5.948   5.716   2.129  0.0857 -0.7761  0.2491
45477SOL    HW143481   5.998   5.788   2.090 -1.4853 -0.5179 -1.3755
45477SOL    HW243482   5.859   5.750   2.137 -0.4115 -2.1096  0.6680
45478SOL     OW43483   2.398   2.886  11.376  0.0245 -0.6750 -0.5279
45478SOL    HW143484   2.318   2.838  11.397 -0.1710 -0.4265 -0.6968
45478SOL    HW243485   2.373   2.979  11.382  0.6290 -0.5683  0.7100
45479SOL     OW43486   5.888   2.902  12.057 -0.1648 -0.2255  0.1042
45479SOL    HW143487   5.964   2.955  12.080  1.2091 -1.5840 -1.0867
45479SOL    HW243488   5.855   2.940  11.976  0.5490 -0.8892 -0.5097
45480SOL     OW43489   5.101   3.223   4.087  0.0761  0.7650 -0.4722
45480SOL    HW143490   5.051   3.143   4.076 -0.9274  1.2824  0.1369
45480SOL    HW243491   5.167   3.202   4.153  1.3021 -0.1937 -1.9570
45481SOL     OW43492   0.310   5.321   2.635 -0.1479 -0.0718 -0.1103
45481SOL    HW143493   0.365   5.399   2.630 -2.2377  1.5335  0.1119
45481SOL    HW243494   0.311   5.285   2.546  0.8135  0.2252 -0.2259
45482SOL     OW43495   8.142  12.542   8.382 -0.1520 -0.8471 -0.2107
45482SOL    HW143496   8.076  12.546   8.313 -0.5184 -1.8489  0.0543
45482SOL    HW243497   8.202  12.614   8.364 -0.8492 -0.4468 -0.9454
45483SOL     OW43498   5.627   6.295   0.328 -0.3122  0.0162  0.8130
45483SOL    HW143499   5.668   6.219   0.286  0.7553  0.3442  1.2206
45483SOL    HW243500   5.696   6.331   0.384 -0.8169  1.2517  0.6668
45484SOL     OW43501   2.061   6.991   6.685 -0.4652  0.0397 -0.3022
45484SOL    HW143502   2.094   6.906   6.658 -1.3767 -0.4163 -0.0179
45484SOL    HW243503   1.974   6.973   6.722 -0.5722  1.0557 -0.0199
45485SOL     OW43504  11.867   1.076   7.277 -0.1867  0.6022 -0.3548
45485SOL    HW143505  11.923   1.017   7.327 -1.7073  0.9563  1.9112
45485SOL    HW243506  11.786   1.027   7.262  0.1927  0.5381 -2.4815
45486SOL     OW43507   8.108   3.926  10.542  0.7022 -0.3615  0.3642
45486SOL    HW143508   8.131   3.995  10.604  0.2510  0.8537 -0.7596
45486SOL    HW243509   8.178   3.861  10.552  0.9503  0.0762  1.7078
45487SOL     OW43510   1.262   7.252   0.893  0.4363  0.4516 -0.4318
45487SOL    HW143511   1.191   7.187   0.885 -0.4881  1.5087 -1.0610
45487SOL    HW243512   1.264   7.272   0.987  1.9371 -1.7508  0.0784
45488SOL     OW43513   5.947   5.688   7.793 -0.0962  0.6188 -0.1952
45488SOL    HW143514   5.929   5.624   7.724 -1.5842  0.3441  0.4112
45488SOL    HW243515   5.965   5.635   7.871 -1.0914  0.9094  0.2512
45489SOL     OW43516  11.769  12.431  10.294  0.3905 -0.3190  0.2124
45489SOL    HW143517  11.765  12.410  10.201 -1.4174  0.6107  0.0288
45489SOL    HW243518  11.777  12.527  10.296 -1.7734 -0.0904  0.9503
45490SOL     OW43519  11.709   0.987   6.607 -0.3000  0.4644  0.1218
45490SOL    HW143520  11.660   0.911   6.575 -0.6791  0.2716  1.1282
45490SOL    HW243521  11.694   0.987   6.702 -0.6699  2.0498  0.0936
45491SOL     OW43522   5.450   7.285   8.651 -0.4975  0.3947 -0.3946
45491SOL    HW143523   5.461   7.324   8.738 -0.9270  0.0075 -0.1574
45491SOL    HW243524   5.362   7.312   8.624 -0.7943 -0.3815 -0.2324
45492SOL     OW43525   9.875   1.541  10.772  0.4330 -0.5952 -0.0574
45492SOL    HW143526   9.814   1.613  10.787 -0.4308 -1.3196 -0.0098
45492SOL    HW243527   9.866   1.486  10.850 -0.2326 -1.6717 -0.8738
45493SOL     OW43528   6.110   7.872   5.712 -0.3520  0.3354  0.1869
45493SOL    HW143529   6.028   7.823   5.722 -0.4730  0.4364 -0.2738
45493SOL    HW243530   6.174   7.824   5.764 -0.8404  0.5784  1.0316
45494SOL     OW43531   2.054   3.524   8.491  0.2498 -0.3976 -0.3479
45494SOL    HW143532   1.996   3.451   8.469  0.6702 -1.0835  0.7193
45494SOL    HW243533   2.047   3.531   8.586  1.2438  0.0815 -0.3063
45495SOL     OW43534   4.633   0.696   6.827  0.0061 -0.3736 -0.3162
45495SOL    HW143535   4.697   0.746   6.776 -0.3871 -0.0315 -0.4817
45495SOL    HW243536   4.682   0.660   6.900 -0.1656  2.3416  1.2635
45496SOL     OW43537  11.620   5.595   7.828  0.2429  0.1397  0.1198
45496SOL    HW143538  11.588   5.672   7.875 -0.2072 -0.5212  0.9331
45496SOL    HW243539  11.541   5.550   7.799  0.5020 -0.0248 -0.3370
45497SOL     OW43540   9.620   5.672   8.144 -0.0529 -0.7622 -0.1132
45497SOL    HW143541   9.632   5.631   8.230  0.8295 -2.6484 -1.0680
45497SOL    HW243542   9.553   5.617   8.101 -2.0125  1.3624  0.0594
45498SOL     OW43543   0.815   5.518   1.164  0.5011  0.5065  0.0735
45498SOL    HW143544   0.774   5.604   1.176  1.6825  0.9314  1.1808
45498SOL    HW243545   0.889   5.517   1.224  0.7706 -1.1350 -0.2330
45499SOL     OW43546   0.177   8.825   1.693 -0.5427  0.2482 -0.6742
45499SOL    HW143547   0.144   8.809   1.782  1.1047 -1.6013 -0.3473
45499SOL    HW243548   0.228   8.906   1.701  1.8804 -1.3004  0.7961
45500SOL     OW43549   2.117   8.020   6.825 -0.1045 -0.1910  0.1454
45500SOL    HW143550   2.176   7.945   6.817 -0.2794 -0.3161  0.0370
45500SOL    HW243551   2.125   8.065   6.740  0.0077 -0.0807  0.2141
45501SOL     OW43552   9.272   0.409   0.185  0.1239 -0.4425 -0.1267
45501SOL    HW143553   9.225   0.492   0.180  1.8724  0.6249 -0.0498
45501SOL    HW243554   9.210   0.348   0.224 -1.6402  0.4728 -1.3869
45502SOL     OW43555   2.214   7.664   1.376 -0.3404 -0.3641 -1.1145
45502SOL    HW143556   2.282   7.679   1.443  1.0945 -0.1739 -2.5438
45502SOL    HW243557   2.135   7.647   1.426  0.2397  1.6573  0.6570
45503SOL     OW43558   3.531   0.026  12.062  0.1217  0.3971  0.0646
45503SOL    HW143559   3.503   0.117  12.068  0.7994  0.5925  0.4370
45503SOL    HW243560   3.595   0.016  12.132 -1.8345 -1.0925  1.7476
45504SOL     OW43561   3.288  11.758  10.415 -0.0380  0.0877 -0.3766
45504SOL    HW143562   3.240  11.832  10.377 -0.1369 -0.1156 -0.6539
45504SOL    HW243563   3.273  11.766  10.509  0.0405  0.4805 -0.3947
45505SOL     OW43564   0.818  12.236   5.626  0.6906 -0.0165  0.1946
45505SOL    HW143565   0.865  12.247   5.544 -0.8720  0.6190 -0.6469
45505SOL    HW243566   0.776  12.151   5.618 -0.6465  0.6648 -0.3169
45506SOL     OW43567   2.308  12.196   1.676  0.3786 -0.2436 -0.0763
45506SOL    HW143568   2.346  12.140   1.743  0.0349 -2.5338 -1.6922
45506SOL    HW243569   2.252  12.257   1.724  0.7181 -1.3303  1.7591
45507SOL     OW43570   2.168  11.900  11.633  0.3420  0.7510  0.3737
45507SOL    HW143571   2.115  11.976  11.657  0.0696  1.0969 -1.1609
45507SOL    HW243572   2.213  11.875  11.713 -0.0521  2.1559  1.0668
45508SOL     OW43573  10.328  10.750   4.654 -0.3033  1.0041 -0.2464
45508SOL    HW143574  10.413  10.756   4.611  0.2808  0.1889  0.7344
45508SOL    HW243575  10.349  10.734   4.746 -1.5004 -0.3905 -0.1799
45509SOL     OW43576   0.280   2.681   1.400 -0.3026 -0.0903  0.2296
45509SOL    HW143577   0.292   2.615   1.468 -1.3634 -1.0475 -0.4688
45509SOL    HW243578   0.369   2.710   1.379  0.1078 -0.5197  1.2966
45510SOL     OW43579   3.478   1.217   3.992 -0.0394 -0.6115 -0.0573
45510SOL    HW143580   3.548   1.263   4.039 -1.2867  0.5442  0.7499
45510SOL    HW243581   3.398   1.240   4.040 -1.0409 -1.5131 -1.2296
45511SOL     OW43582   2.879  12.342   2.201  0.7673  0.1755 -0.2022
45511SOL    HW143583   2.882  12.376   2.290 -0.8089 -0.2122  0.0381
45511SOL    HW243584   2.915  12.254   2.208  1.7433  0.5616 -0.1918
45512SOL     OW43585   4.339   8.086   1.055  0.7487 -0.1070  0.4661
45512SOL    HW143586   4.427   8.111   1.027  1.0555 -1.2153  0.3937
45512SOL    HW243587   4.299   8.168   1.083  1.6068  0.5021 -0.0289
45513SOL     OW43588  11.733   4.173   9.559  0.7515  0.3091 -0.1658
45513SOL    HW143589  11.696   4.113   9.624 -0.3725  0.6465 -0.4707
45513SOL    HW243590  11.827   4.154   9.560  0.3146 -2.3093 -1.1016
45514SOL     OW43591  11.155   8.900  10.375  0.0626 -0.2265  0.0522
45514SOL    HW143592  11.199   8.980  10.344 -3.0132  1.5766 -0.0717
45514SOL    HW243593  11.161   8.840  10.301 -0.5155  1.1997 -1.2134
45515SOL     OW43594   9.618  10.374   1.465 -0.6939 -0.6813 -0.3022
45515SOL    HW143595   9.647  10.463   1.483 -3.4815  0.2759 -0.1665
45515SOL    HW243596   9.652  10.355   1.377  0.5753  0.1632 -0.0305
45516SOL     OW43597   0.929   5.862  10.977  0.2345  0.1048  0.7046
45516SOL    HW143598   0.886   5.905  11.051 -2.4636  1.0921 -1.2494
45516SOL    HW243599   0.870   5.878  10.903 -0.5820 -6.0604 -0.5198
45517SOL     OW43600   6.684   5.545   1.586 -0.3573  0.0546  0.2759
45517SOL    HW143601   6.730   5.606   1.644  0.6927  0.6035 -1.1008
45517SOL    HW243602   6.751   5.485   1.555 -0.4681  0.9749 -1.8971
45518SOL     OW43603   5.059   9.708   8.092 -0.1595  0.1540 -0.3295
45518SOL    HW143604   5.031   9.628   8.138 -0.6330 -0.0922 -1.0300
45518SOL    HW243605   5.147   9.725   8.125  0.7586 -1.7901 -1.6168
45519SOL     OW43606  11.755   7.960  11.561 -0.0530  0.0898  0.5111
45519SOL    HW143607  11.824   7.944  11.625  1.2840  2.0528 -0.3362
45519SOL    HW243608  11.801   7.972  11.478 -1.7192 -2.1243 -0.8309
45520SOL     OW43609   0.541   2.309   2.161  0.1987  0.4426 -0.0821
45520SOL    HW143610   0.511   2.297   2.251  2.3827  0.4338  0.7082
45520SOL    HW243611   0.569   2.221   2.134 -2.2319  0.0228 -1.5433
45521SOL     OW43612   8.194   8.683   8.325 -0.6625 -0.3795  0.5588
45521SOL    HW143613   8.130   8.742   8.364  0.9893 -0.2641  3.4088
45521SOL    HW243614   8.268   8.740   8.301  1.1430 -1.1467  3.7718
45522SOL     OW43615  10.512   3.061   3.645  0.0161  0.1509  0.1185
45522SOL    HW143616  10.434   3.078   3.591  1.4002  0.3407 -1.9512
45522SOL    HW243617  10.543   3.148   3.670 -0.1835  0.0957  0.5583
45523SOL     OW43618   3.344  11.459   9.843 -0.5134 -0.1178  0.3453
45523SOL    HW143619   3.435  11.437   9.865 -0.1348  0.8376 -0.1953
45523SOL    HW243620   3.297  11.376   9.847  0.6139 -0.8216 -0.4219
45524SOL     OW43621   5.186  11.312  10.530 -0.4066 -0.4666 -0.3110
45524SOL    HW143622   5.129  11.313  10.452  0.4262 -2.4319 -1.0245
45524SOL    HW243623   5.271  11.342  10.498 -0.6241  0.9206  0.3857
45525SOL     OW43624   7.973   4.162   2.128  0.7403 -0.5949  0.0752
45525SOL    HW143625   7.991   4.188   2.218 -2.3679 -0.9165  0.8966
45525SOL    HW243626   7.972   4.244   2.079  3.3196 -0.4932  0.0719
45526SOL     OW43627   2.793  12.483   4.191  0.2194 -0.1103 -0.3011
45526SOL    HW143628   2.754  12.488   4.278  2.0384  1.5140  0.4739
45526SOL    HW243629   2.750  12.407   4.150 -1.3860 -0.3112  1.6154
45527SOL     OW43630   9.488   5.451   4.058 -0.2921 -0.6639  0.3838
45527SOL    HW143631   9.469   5.419   4.146 -2.1177 -2.0096 -0.4351
45527SOL    HW243632   9.409   5.499   4.033  0.1547 -0.4153 -0.5827
45528SOL     OW43633   5.348   3.072   3.145 -0.0843  0.3482  0.7833
45528SOL    HW143634   5.334   3.153   3.096  0.3288 -0.2407 -0.3417
45528SOL    HW243635   5.436   3.044   3.120 -0.2931 -0.5460  1.0133
45529SOL     OW43636   1.305   0.496   4.518 -0.2722  0.3544  0.1216
45529SOL    HW143637   1.235   0.560   4.529  0.2227  0.8312  0.5756
45529SOL    HW243638   1.379   0.546   4.484  0.0413 -0.0200  0.2409
45530SOL     OW43639   0.027   5.031   2.445 -0.0165 -0.3697 -0.2962
45530SOL    HW143640  -0.022   5.015   2.525  0.4023  0.4944  0.1492
45530SOL    HW243641   0.010   4.954   2.390  0.3382 -1.3483  0.9266
45531SOL     OW43642   0.132  10.945   7.022 -0.0315  0.5085  0.3841
45531SOL    HW143643   0.153  10.932   6.930  1.9638  0.5644  0.7864
45531SOL    HW243644   0.080  11.026   7.024 -2.4338 -0.8800 -0.9006
45532SOL     OW43645   9.292   0.293   9.415 -0.6084 -0.5676 -0.1082
45532SOL    HW143646   9.374   0.325   9.377 -0.3072  0.1385  1.0848
45532SOL    HW243647   9.228   0.300   9.344 -0.4111  2.1443 -0.1395
45533SOL     OW43648   4.456   3.216   6.573  0.0935  0.5857 -0.0980
45533SOL    HW143649   4.465   3.121   6.584  1.1999  0.8092  1.2306
45533SOL    HW243650   4.382   3.226   6.514 -0.3550 -1.0921  0.1128
45534SOL     OW43651   8.731   5.155   5.471 -0.0225 -0.3499  0.3243
45534SOL    HW143652   8.717   5.152   5.376 -0.5353 -1.2208  0.4169
45534SOL    HW243653   8.669   5.219   5.503  1.4254  1.3545 -0.1246
45535SOL     OW43654   3.215   0.950   8.526  0.0770  0.3340  0.2780
45535SOL    HW143655   3.292   0.903   8.557  0.7654  0.6290 -0.9128
45535SOL    HW243656   3.142   0.889   8.539  1.0804 -1.6241 -2.2737
45536SOL     OW43657   1.343   1.561   9.242 -0.3320 -0.0312  0.3798
45536SOL    HW143658   1.311   1.611   9.167  0.6347 -3.3476 -2.4829
45536SOL    HW243659   1.267   1.511   9.272 -0.6204  1.0035  1.4622
45537SOL     OW43660   4.778   5.994   8.809  0.0953  0.7808  0.3436
45537SOL    HW143661   4.689   6.011   8.778 -0.2809  0.2348  1.0957
45537SOL    HW243662   4.832   6.060   8.765 -0.6018  0.8055 -0.5038
45538SOL     OW43663   4.879   3.480  11.119  0.1622  0.3545 -0.6819
45538SOL    HW143664   4.962   3.464  11.075 -0.2352  0.5265 -1.5153
45538SOL    HW243665   4.825   3.404  11.098  0.8652 -0.9779  1.8553
45539SOL     OW43666   7.767   1.283   7.629 -0.0213 -0.6068 -1.0490
45539SOL    HW143667   7.681   1.312   7.600  0.6037 -0.0106 -2.4169
45539SOL    HW243668   7.815   1.265   7.548  1.2346 -0.6226 -0.3343
45540SOL     OW43669   7.498   9.974   3.656  0.1500  0.0208 -0.0829
45540SOL    HW143670   7.514   9.902   3.595 -2.0047 -0.1791 -0.4757
45540SOL    HW243671   7.495  10.052   3.601 -1.4594 -0.1199 -0.2459
45541SOL     OW43672   7.064   6.748   9.690 -0.4219 -0.0478 -0.1767
45541SOL    HW143673   7.017   6.798   9.624 -0.1290 -0.8530 -1.0102
45541SOL    HW243674   7.000   6.732   9.759 -1.3646 -1.0360 -1.2422
45542SOL     OW43675   8.246   3.578   2.244  0.0810 -0.9617 -0.2552
45542SOL    HW143676   8.318   3.516   2.236 -0.3856 -1.4630 -0.6356
45542SOL    HW243677   8.277   3.658   2.202  1.1910 -0.4752  1.4050
45543SOL     OW43678   3.650   9.251   6.525 -0.1359 -0.5520  0.4961
45543SOL    HW143679   3.560   9.219   6.533 -1.1697  0.9366 -3.0882
45543SOL    HW243680   3.671   9.240   6.432  2.0689  2.3588  0.5250
45544SOL     OW43681   0.554   0.091   2.160  0.3221  0.2517  0.4635
45544SOL    HW143682   0.462   0.065   2.152  0.3234  0.3106  0.2481
45544SOL    HW243683   0.604   0.015   2.132  0.3145  0.7532 -0.9835
45545SOL     OW43684  11.388   2.709  11.258 -0.5932  0.0398 -0.1187
45545SOL    HW143685  11.301   2.679  11.285 -0.7942  0.5921 -0.1427
45545SOL    HW243686  11.434   2.629  11.233 -1.3630 -0.1858 -0.8764
45546SOL     OW43687   4.285  10.419   8.186  0.5163 -0.3665  0.5613
45546SOL    HW143688   4.323  10.357   8.124  2.6627  0.2247  1.2002
45546SOL    HW243689   4.211  10.371   8.224  0.7191 -1.6777 -0.5929
45547SOL     OW43690   0.405   4.346   2.187 -0.7010 -0.5415  0.0611
45547SOL    HW143691   0.325   4.398   2.184 -2.2987 -2.7616  0.6404
45547SOL    HW243692   0.459   4.380   2.116 -3.1154 -0.3570 -1.8381
45548SOL     OW43693   9.616   9.072   0.184 -0.1149  0.3208  0.2809
45548SOL    HW143694   9.632   9.094   0.276 -0.5970 -0.6269  0.6076
45548SOL    HW243695   9.562   8.993   0.188 -2.0376  1.5225 -0.8035
45549SOL     OW43696   5.317   4.028   4.717 -0.0611  1.0787  0.0106
45549SOL    HW143697   5.385   4.009   4.781 -0.3402  1.3393  0.3869
45549SOL    HW243698   5.364   4.037   4.634  0.0783 -1.4773 -0.2672
45550SOL     OW43699   2.918   6.231   9.604 -0.0845 -0.6463 -0.0145
45550SOL    HW143700   2.868   6.234   9.522  0.2036 -2.3305 -0.2712
45550SOL    HW243701   2.990   6.171   9.586  0.3888 -0.4910  1.2662
45551SOL     OW43702   3.008   5.621  10.746 -0.4982  0.4515 -0.0699
45551SOL    HW143703   3.032   5.529  10.730 -0.0196  0.5347  0.1601
45551SOL    HW243704   2.914   5.619  10.761 -0.4126 -0.0675  0.4073
45552SOL     OW43705   1.682   6.487   0.878  1.3220 -0.5945 -0.2794
45552SOL    HW143706   1.703   6.542   0.803  1.1550 -0.2691 -0.0883
45552SOL    HW243707   1.680   6.547   0.952  0.4047 -0.7349 -0.1823
45553SOL     OW43708   9.792   4.786   0.008 -0.0536  0.3575  0.6950
45553SOL    HW143709   9.803   4.752  -0.081 -2.1012 -0.9112  0.8576
45553SOL    HW243710   9.698   4.805   0.014 -0.0384 -0.0281  2.7305
45554SOL     OW43711   2.406   7.405   3.705 -0.2018  0.0923 -0.2569
45554SOL    HW143712   2.347   7.438   3.773  0.1948  1.6892 -0.6658
45554SOL    HW243713   2.492   7.436   3.731  0.4944 -2.0347  0.2124
45555SOL     OW43714   4.473   7.920  11.060 -0.0867 -0.0649  0.0610
45555SOL    HW143715   4.492   8.007  11.096 -1.4846  1.4703 -2.6234
45555SOL    HW243716   4.557   7.890  11.025  0.2134  0.5977  0.1974
45556SOL     OW43717   8.296   0.622   9.165 -0.5657  0.3838  0.0955
45556SOL    HW143718   8.326   0.561   9.232 -1.2945  1.2013  1.1949
45556SOL    HW243719   8.259   0.566   9.097  0.3833 -0.4725  0.2562
45557SOL     OW43720   9.235   4.941  11.887 -0.2536 -0.3633  0.2899
45557SOL    HW143721   9.190   5.024  11.902  1.3298  0.1147  3.0377
45557SOL    HW243722   9.169   4.874  11.905 -0.4957  0.3291  2.2597
45558SOL     OW43723  11.493   6.299   5.957 -0.9971  0.5442  0.7132
45558SOL    HW143724  11.479   6.369   5.894  2.6913  0.4204 -0.4550
45558SOL    HW243725  11.525   6.343   6.036 -3.4055  0.4889  1.8058
45559SOL     OW43726   2.807   4.052   2.422 -0.6992  0.5460 -0.1387
45559SOL    HW143727   2.794   4.126   2.364  0.5431  0.1209 -1.0121
45559SOL    HW243728   2.738   4.060   2.488 -0.7583  2.2983 -0.3691
45560SOL     OW43729  10.318   3.322   3.912 -0.4471 -0.2935  0.4180
45560SOL    HW143730  10.239   3.268   3.913 -1.1492  0.6549 -0.9304
45560SOL    HW243731  10.322   3.357   3.823  0.2088  1.5189  1.1116
45561SOL     OW43732   6.536   9.589  12.164 -0.2910  0.3696  0.8063
45561SOL    HW143733   6.485   9.577  12.084 -0.4112 -2.7338  1.2233
45561SOL    HW243734   6.476   9.631  12.226 -2.5766 -3.2018  1.3000
45562SOL     OW43735   3.262  11.776   2.285 -0.1109  0.6993 -0.0362
45562SOL    HW143736   3.295  11.757   2.197 -4.5276  0.0921 -1.8395
45562SOL    HW243737   3.279  11.696   2.334  0.2376  0.0921 -1.0994
45563SOL     OW43738  12.577  10.303   8.885 -0.0014 -0.2290  0.3713
45563SOL    HW143739  12.651  10.301   8.825 -0.2951 -1.9960  0.0232
45563SOL    HW243740  12.509  10.352   8.837 -0.0784 -1.2284 -0.5766
45564SOL     OW43741   8.887   2.323   8.710 -0.0851 -0.1216  0.5208
45564SOL    HW143742   8.842   2.256   8.761  0.3630 -0.2067  0.8093
45564SOL    HW243743   8.980   2.301   8.718 -0.0259 -0.3147 -0.5855
45565SOL     OW43744   6.562  10.659   8.088  0.1863 -0.1045  0.1702
45565SOL    HW143745   6.521  10.745   8.094 -1.2305 -0.4830 -2.3648
45565SOL    HW243746   6.573  10.645   7.994  3.3329 -1.4145  0.6057
45566SOL     OW43747   3.590   8.551   0.026 -0.1337  0.3229 -0.0004
45566SOL    HW143748   3.588   8.504  -0.057  0.0838  0.1019  0.1149
45566SOL    HW243749   3.498   8.562   0.050 -0.2134  0.9458 -0.5726
45567SOL     OW43750   9.952  12.294   8.495 -0.2298 -0.0100  0.1452
45567SOL    HW143751   9.911  12.218   8.535 -1.3809 -0.6678 -2.1236
45567SOL    HW243752   9.957  12.359   8.565 -0.4458 -1.6967  1.7821
45568SOL     OW43753   3.521  11.752  10.154 -0.0206 -0.1431  0.4299
45568SOL    HW143754   3.459  11.824  10.164  1.3181  0.8758  1.8471
45568SOL    HW243755   3.536  11.720  10.243 -0.0538 -1.7457 -0.1070
45569SOL     OW43756  11.553  11.682   7.867  0.0883  0.2382  0.3262
45569SOL    HW143757  11.542  11.642   7.954  0.3310 -0.1346  0.1880
45569SOL    HW243758  11.478  11.740   7.858  0.2525  0.5561  0.9394
45570SOL     OW43759   7.995   4.564   0.461  0.0799  0.3842  0.1741
45570SOL    HW143760   8.042   4.483   0.484 -0.5042 -0.0289 -0.0478
45570SOL    HW243761   7.905   4.547   0.487 -0.1039  0.8636 -0.1374
45571SOL     OW43762   5.865   5.441   5.019 -0.0662 -0.1025 -0.6422
45571SOL    HW143763   5.921   5.465   4.945  0.2910 -0.0755 -0.3714
45571SOL    HW243764   5.927   5.415   5.088 -0.3789  0.1250 -0.2667
45572SOL     OW43765   5.517   8.312   9.037  0.2033 -0.6586 -0.2015
45572SOL    HW143766   5.500   8.312   9.131  0.0412  2.1729 -0.1174
45572SOL    HW243767   5.462   8.384   9.004  0.5349 -1.3573 -2.4020
45573SOL     OW43768  11.215   5.572  11.713 -0.7023 -0.0013 -0.3384
45573SOL    HW143769  11.275   5.606  11.646 -1.3320  1.3456 -0.2611
45573SOL    HW243770  11.199   5.482  11.687  1.8782 -0.6338  0.0176
45574SOL     OW43771   0.528   3.221   0.924  0.1055 -0.1275  0.2480
45574SOL    HW143772   0.566   3.308   0.942  0.0554 -0.1431  0.4355
45574SOL    HW243773   0.444   3.240   0.883 -0.5184 -0.0616  1.5121
45575SOL     OW43774  12.320   9.151   6.880 -0.3963  0.5688 -0.2299
45575SOL    HW143775  12.257   9.199   6.825 -1.7454 -0.0040  0.7503
45575SOL    HW243776  12.280   9.065   6.891  2.2260 -1.0757 -2.4080
45576SOL     OW43777   6.108   1.612   2.278 -0.4471 -0.2219  0.0902
45576SOL    HW143778   6.073   1.527   2.252  0.7426 -0.6020 -0.3228
45576SOL    HW243779   6.201   1.596   2.295  0.4815  1.4761 -2.6717
45577SOL     OW43780   9.175   0.295   5.987  0.2350 -0.3479 -1.0591
45577SOL    HW143781   9.170   0.321   6.079  0.6491  0.5912 -1.2824
45577SOL    HW243782   9.144   0.372   5.939 -0.0224 -0.8431 -1.7003
45578SOL     OW43783  11.260   2.077   5.753  0.2884  0.5722 -0.1345
45578SOL    HW143784  11.345   2.090   5.711  0.1946  0.8892 -0.2298
45578SOL    HW243785  11.281   2.036   5.837  0.4711 -0.1449 -0.5238
45579SOL     OW43786  10.036  10.086   5.188 -0.3250 -0.1187  0.7395
45579SOL    HW143787  10.060  10.042   5.107  3.0762  2.5604  0.0400
45579SOL    HW243788  10.032  10.016   5.254  1.0893 -1.8865 -0.9391
45580SOL     OW43789  12.423   2.745  10.257 -0.0503 -1.5415  0.4152
45580SOL    HW143790  12.355   2.748  10.325 -0.4311  0.6583  0.0213
45580SOL    HW243791  12.461   2.833  10.258  0.3755 -1.6473 -1.7548
45581SOL     OW43792  10.923   4.172   3.121 -0.4320  0.1638  0.0510
45581SOL    HW143793  10.842   4.198   3.076 -0.7659 -0.0419  0.5257
45581SOL    HW243794  10.927   4.077   3.112 -0.7099  0.0756  0.7959
45582SOL     OW43795   1.505   8.134   7.332 -0.0374 -0.1263 -0.6804
45582SOL    HW143796   1.480   8.208   7.276 -0.2212  1.1904  1.0631
45582SOL    HW243797   1.424   8.109   7.377  0.7011  0.9211  1.3186
45583SOL     OW43798  11.873  11.980   0.155  0.1368  0.4473  0.3273
45583SOL    HW143799  11.931  11.992   0.080  2.1934 -0.1479  1.7385
45583SOL    HW243800  11.871  12.066   0.197 -0.2560  0.5354  0.1372
45584SOL     OW43801   0.256   4.003  10.845 -0.2978  0.6008 -0.1853
45584SOL    HW143802   0.279   4.095  10.857 -0.8856  0.8495 -0.8971
45584SOL    HW243803   0.339   3.961  10.821 -0.5614  1.5896 -3.2555
45585SOL     OW43804   5.796   5.021   1.778  0.0863 -0.2809 -0.6805
45585SOL    HW143805   5.789   4.929   1.802  1.1032 -0.2998 -0.4096
45585SOL    HW243806   5.729   5.034   1.712  0.4136 -1.4001 -1.2601
45586SOL     OW43807   6.695  10.428   7.753  0.0536 -0.0702  0.6099
45586SOL    HW143808   6.731  10.364   7.691 -0.3974 -0.7243  1.0183
45586SOL    HW243809   6.666  10.376   7.828 -1.0113  0.5236  0.6321
45587SOL     OW43810   0.080   6.401   7.172  0.0706  0.3355  0.0710
45587SOL    HW143811   0.122   6.475   7.215 -1.5786  2.1769 -1.2906
45587SOL    HW243812   0.018   6.441   7.110 -1.3205 -2.1916 -0.3173
45588SOL     OW43813   2.789   6.265   7.649  0.5378  0.0463  0.3467
45588SOL    HW143814   2.845   6.279   7.725  1.7248  1.1317 -0.6775
45588SOL    HW243815   2.786   6.351   7.606 -0.4002 -0.4619 -0.6356
45589SOL     OW43816   5.787  10.328   4.885  0.4609 -0.3963 -0.1397
45589SOL    HW143817   5.752  10.407   4.928 -1.8823 -2.4252  2.0207
45589SOL    HW243818   5.728  10.312   4.812  0.7821 -0.2922 -0.4232
45590SOL     OW43819   6.736   7.572  11.021 -0.1764 -0.2917  0.1253
45590SOL    HW143820   6.708   7.652  11.066  0.3992 -0.0254  0.0217
45590SOL    HW243821   6.792   7.604  10.950  0.5713 -0.8219  0.4683
45591SOL     OW43822  10.721   5.153  11.764 -0.2088  0.2393  0.1521
45591SOL    HW143823  10.710   5.232  11.817 -0.4280  0.7287 -0.6045
45591SOL    HW243824  10.678   5.084  11.815  0.4680  0.4840  1.0824
45592SOL     OW43825   4.747   1.169   7.056  0.2424  0.2546  0.0130
45592SOL    HW143826   4.721   1.098   6.997  0.0199 -0.8765  1.4424
45592SOL    HW243827   4.831   1.198   7.022 -0.3913  0.3989 -1.5276
45593SOL     OW43828  11.740   3.830   7.675  0.0052 -0.4160 -0.5517
45593SOL    HW143829  11.784   3.880   7.744  0.8830 -0.7199 -0.8712
45593SOL    HW243830  11.759   3.739   7.696 -3.3113 -0.8604  1.2104
45594SOL     OW43831   3.793   3.548   5.969  0.4218  0.2649 -0.1804
45594SOL    HW143832   3.763   3.616   5.908 -0.6352  0.9890  1.1061
45594SOL    HW243833   3.834   3.597   6.041  0.2839 -0.4912  0.4181
45595SOL     OW43834  11.127   2.571  11.176  0.0733 -0.2294  0.1469
45595SOL    HW143835  11.070   2.647  11.168 -0.9911 -0.9712  0.4844
45595SOL    HW243836  11.144   2.543  11.086  0.2598  0.2507  0.0328
45596SOL     OW43837   9.734   3.229   7.715  0.1368 -0.2424  0.3115
45596SOL    HW143838   9.643   3.255   7.729  0.4043  0.3204  1.0423
45596SOL    HW243839   9.743   3.227   7.619 -1.1333 -2.1141  0.1677
45597SOL     OW43840  11.164  10.224   3.778  0.4330 -0.7288 -0.4956
45597SOL    HW143841  11.248  10.268   3.760  0.2466  1.2481  2.6995
45597SOL    HW243842  11.100  10.274   3.728  0.7547 -0.0706 -0.2596
45598SOL     OW43843   5.588   0.621   4.127  0.0895  0.0257  0.2330
45598SOL    HW143844   5.561   0.683   4.060 -0.9087  0.0136  0.6149
45598SOL    HW243845   5.683   0.614   4.116  0.0637  0.7600 -0.5399
45599SOL     OW43846   6.559   5.574   0.455 -0.2422  0.0889 -0.8825
45599SOL    HW143847   6.605   5.592   0.537  0.7482  0.1651 -1.4322
45599SOL    HW243848   6.544   5.480   0.455 -1.5986  0.2779  0.0540
45600SOL     OW43849   7.669  11.676   2.395 -0.1899  0.0738  1.1170
45600SOL    HW143850   7.636  11.605   2.339  1.3258  1.4585 -1.7449
45600SOL    HW243851   7.591  11.713   2.436 -1.5756 -0.2305 -1.1094
45601SOL     OW43852   1.621   5.719   2.881  0.1348  0.4463 -0.3524
45601SOL    HW143853   1.709   5.727   2.843  1.4818  1.8973  2.6977
45601SOL    HW243854   1.563   5.756   2.815  1.9701  0.5430 -1.9959
45602SOL     OW43855   6.866  10.580  12.217  0.1127  0.0903  0.1738
45602SOL    HW143856   6.904  10.663  12.245  0.1667 -0.0904  0.6404
45602SOL    HW243857   6.907  10.562  12.132 -0.1074  0.6777 -0.0611
45603SOL     OW43858   9.190  11.410   9.641  0.6595  0.3695  0.1155
45603SOL    HW143859   9.142  11.342   9.594 -0.6099  0.4031  1.2781
45603SOL    HW243860   9.123  11.452   9.696  1.3306  2.7346 -0.7385
45604SOL     OW43861  11.497   3.731   6.078  0.2480 -0.2362  0.3925
45604SOL    HW143862  11.426   3.734   6.143 -0.6619 -0.1192 -0.5859
45604SOL    HW243863  11.575   3.760   6.126 -0.5118  0.3527  1.2955
45605SOL     OW43864   4.995   9.837   4.020  0.3412 -0.4079 -0.4638
45605SOL    HW143865   5.089   9.818   4.022  0.5556  0.6224 -0.1345
45605SOL    HW243866   4.987   9.914   3.963 -0.2469 -0.2016 -0.1138
45606SOL     OW43867  10.251   6.768  10.704 -0.3196  0.0145  0.6659
45606SOL    HW143868  10.325   6.826  10.722  0.2019 -0.1966 -0.7228
45606SOL    HW243869  10.279   6.682  10.734 -1.1178  0.4186  2.7890
45607SOL     OW43870  10.006   5.839   1.358 -0.1606 -0.3425 -0.1623
45607SOL    HW143871  10.023   5.746   1.375 -2.5509 -0.7416  0.4001
45607SOL    HW243872   9.970   5.872   1.441 -1.6683  0.4442 -1.0943
45608SOL     OW43873   3.506  11.010   7.528 -0.1097 -0.3012 -0.0712
45608SOL    HW143874   3.592  11.011   7.571 -0.6061  0.3295  0.9555
45608SOL    HW243875   3.444  10.992   7.599 -0.7923 -1.2464 -0.8861
45609SOL     OW43876   8.910   4.097   6.214  0.0337  0.1537 -0.1722
45609SOL    HW143877   8.885   4.037   6.284  0.1124  1.2335  0.8068
45609SOL    HW243878   8.966   4.044   6.156  0.0115 -0.7428  0.6006
45610SOL     OW43879  10.822   7.153  10.486  0.1378  0.0099 -0.2059
45610SOL    HW143880  10.762   7.200  10.428  0.1278 -0.1888 -0.3550
45610SOL    HW243881  10.854   7.080  10.434  2.4824  1.5173 -1.0444
45611SOL     OW43882   5.572   5.441   4.496 -0.0600  0.3008  0.2899
45611SOL    HW143883   5.572   5.370   4.559 -2.4578 -0.1506 -0.1436
45611SOL    HW243884   5.665   5.455   4.475  0.5347 -1.8800  1.2525
45612SOL     OW43885   9.074   7.497   0.477 -0.1203 -0.1332  0.1631
45612SOL    HW143886   9.063   7.465   0.567 -1.7002  0.3032  0.1487
45612SOL    HW243887   8.987   7.489   0.438 -1.2192  5.6547  0.6408
45613SOL     OW43888   3.748   1.877   5.744  0.3368  0.1764 -0.1949
45613SOL    HW143889   3.838   1.877   5.776 -0.1739  0.9306  1.3904
45613SOL    HW243890   3.712   1.793   5.773  0.4669 -0.0414 -0.6572
45614SOL     OW43891   5.051   5.399   9.788  0.7672  0.2006 -0.7125
45614SOL    HW143892   5.140   5.408   9.754  1.0561 -0.8292 -0.2862
45614SOL    HW243893   5.059   5.333   9.857  0.1959  2.0940  1.2840
45615SOL     OW43894   8.187   3.189   2.258 -0.5929 -0.1125  0.0852
45615SOL    HW143895   8.162   3.246   2.185 -0.9455  1.6912  1.5288
45615SOL    HW243896   8.270   3.149   2.231 -0.7555  0.4572 -1.3195
45616SOL     OW43897   1.162   0.322   5.882 -0.4046 -0.3558 -0.0115
45616SOL    HW143898   1.163   0.406   5.836 -1.8684 -0.3448 -0.0836
45616SOL    HW243899   1.121   0.262   5.820  0.0774 -0.9936  0.2718
45617SOL     OW43900   2.332   0.264  10.044 -0.4573 -0.1035 -0.0927
45617SOL    HW143901   2.366   0.244  10.132 -0.2511 -3.0775 -0.7461
45617SOL    HW243902   2.364   0.353  10.026 -0.2053  0.4651  2.6580
45618SOL     OW43903   0.290   1.182   6.045 -0.5101 -0.5888  0.2115
45618SOL    HW143904   0.304   1.216   5.957 -1.0352  0.1127  0.3814
45618SOL    HW243905   0.260   1.092   6.032  3.2423 -1.9201 -0.1646
45619SOL     OW43906  11.080   6.336   2.223  0.7667 -0.1625  0.0442
45619SOL    HW143907  11.141   6.264   2.239  1.0891 -0.2619 -1.5230
45619SOL    HW243908  11.119   6.411   2.269  2.6318  0.0307 -1.7184
45620SOL     OW43909   5.782   0.652  11.465  0.0372 -0.0216  0.2763
45620SOL    HW143910   5.840   0.710  11.515 -0.4023  0.2302  0.5093
45620SOL    HW243911   5.753   0.587  11.529  0.2050 -0.2534  0.1166
45621SOL     OW43912   2.690  10.749   8.532  0.3566 -0.8854  0.3668
45621SOL    HW143913   2.775  10.705   8.528  0.1089 -1.3282 -0.1678
45621SOL    HW243914   2.627  10.679   8.551  0.2659 -0.3547  2.1575
45622SOL     OW43915   0.915   0.777   8.991 -0.3341 -0.0921  0.0436
45622SOL    HW143916   1.003   0.790   9.026 -1.5084  1.2087  2.8835
45622SOL    HW243917   0.882   0.700   9.037 -0.8609 -0.2626 -0.6114
45623SOL     OW43918   2.125   3.127   5.555  0.4555  0.1922 -0.1576
45623SOL    HW143919   2.172   3.141   5.473  1.9868  4.0513  1.1455
45623SOL    HW243920   2.157   3.043   5.586  2.9810  0.4828 -1.6255
45624SOL     OW43921   4.752   6.443   2.946 -0.2265 -0.2509  0.3399
45624SOL    HW143922   4.669   6.458   2.992 -1.5984 -2.0084 -1.3844
45624SOL    HW243923   4.735   6.473   2.857  1.5102  0.6610  0.2765
45625SOL     OW43924   9.386   4.425   7.710 -0.6783  0.0611  0.2277
45625SOL    HW143925   9.349   4.504   7.672 -1.8174 -0.1083  0.9344
45625SOL    HW243926   9.456   4.456   7.767 -2.6328  0.8045  2.3491
45626SOL     OW43927   7.956   8.442   9.646 -0.0472  0.1145  0.2905
45626SOL    HW143928   8.047   8.421   9.626 -0.0205  0.2026  0.3207
45626SOL    HW243929   7.952   8.537   9.640 -0.2944  0.0725 -0.4062
45627SOL     OW43930  12.180   1.671   1.194  0.4858 -0.3587  0.3682
45627SOL    HW143931  12.166   1.729   1.119 -2.4263 -1.3559  0.0242
45627SOL    HW243932  12.257   1.619   1.170  0.6865  0.5552 -1.1044
45628SOL     OW43933   6.501   7.191   5.858 -0.1201  0.0603  0.2900
45628SOL    HW143934   6.528   7.250   5.787 -2.3096 -0.9813 -1.5389
45628SOL    HW243935   6.539   7.106   5.833 -1.1135 -0.3706  0.2302
45629SOL     OW43936   6.608   4.439   5.580 -0.5939 -0.2562 -0.4735
45629SOL    HW143937   6.686   4.391   5.552  0.7569  0.9453  1.0460
45629SOL    HW243938   6.603   4.423   5.674  0.4663  3.1833  0.3109
45630SOL     OW43939   4.932   9.855   6.390 -0.4137 -0.2619 -0.2250
45630SOL    HW143940   4.901   9.928   6.444 -0.3035  0.7384 -1.4674
45630SOL    HW243941   4.857   9.830   6.337  0.2751  0.7592 -1.7281
45631SOL     OW43942   6.797   2.184  12.259 -0.3393 -0.3376  0.5266
45631SOL    HW143943   6.703   2.169  12.251 -0.8417  2.4264  0.1871
45631SOL    HW243944   6.820   2.235  12.181  1.8306 -2.2336 -0.2134
45632SOL     OW43945  10.478   3.802  11.804  0.0266 -0.2772 -0.4435
45632SOL    HW143946  10.572   3.816  11.792  0.6527 -3.3646 -0.0892
45632SOL    HW243947  10.465   3.802  11.898 -0.2392 -0.3322 -0.4773
45633SOL     OW43948  10.278   1.385   5.324  0.4598 -0.1519 -0.1120
45633SOL    HW143949  10.282   1.480   5.311  1.1353  0.1057  1.6690
45633SOL    HW243950  10.363   1.353   5.294  1.2981  0.1995  1.7450
45634SOL     OW43951   7.334   2.327   4.982 -0.5571  0.1164  0.0770
45634SOL    HW143952   7.340   2.383   4.904 -1.3949 -0.8939 -0.7480
45634SOL    HW243953   7.254   2.276   4.969  0.2775 -1.4242  0.6806
45635SOL     OW43954   9.938   6.483  11.946  0.3547 -0.2782 -0.1379
45635SOL    HW143955   9.848   6.498  11.974  0.6392 -0.2623  0.8281
45635SOL    HW243956   9.952   6.546  11.875 -0.5313 -0.6061 -0.6142
45636SOL     OW43957   6.281   5.466   1.325 -0.0474  0.4599  0.2087
45636SOL    HW143958   6.241   5.408   1.390  2.9126 -1.5329  0.4019
45636SOL    HW243959   6.347   5.413   1.282  1.3321  3.1006 -1.1748
45637SOL     OW43960   0.386  11.479   8.072 -0.1795 -0.0230  0.1806
45637SOL    HW143961   0.360  11.422   7.999  0.0090  0.1944 -0.0605
45637SOL    HW243962   0.329  11.556   8.064  0.8394  0.6756 -0.6418
45638SOL     OW43963   9.486  10.033   2.526 -0.0544  0.1520 -0.7113
45638SOL    HW143964   9.548   9.961   2.512  0.8919  1.0208 -1.1185
45638SOL    HW243965   9.478  10.041   2.621  1.1470  0.5875 -0.6338
45639SOL     OW43966   5.481   4.535  11.865  0.7165 -0.3366  0.6069
45639SOL    HW143967   5.475   4.478  11.788  0.3478 -0.2344  0.5575
45639SOL    HW243968   5.458   4.479  11.939 -1.2082  0.1145  0.3926
45640SOL     OW43969   6.971   0.790   2.740 -0.3161 -0.0638  0.6355
45640SOL    HW143970   6.932   0.851   2.802  0.5187  1.3577 -0.1923
45640SOL    HW243971   6.930   0.811   2.656  0.7465  0.0866  0.1426
45641SOL     OW43972   8.291   1.746   9.525  0.3886 -0.1599 -0.1655
45641SOL    HW143973   8.273   1.833   9.489  2.0962  0.7776  1.0551
45641SOL    HW243974   8.257   1.750   9.614  0.0831 -0.9024 -0.2486
45642SOL     OW43975   9.136   6.037   3.173 -0.1572  0.5789  0.4137
45642SOL    HW143976   9.071   6.037   3.102  1.3435 -0.8659 -1.0346
45642SOL    HW243977   9.128   5.950   3.212 -0.1894  0.9757  1.3189
45643SOL     OW43978   4.308   3.399   5.882  0.6021  0.2294 -0.7665
45643SOL    HW143979   4.334   3.487   5.908 -0.5095  0.5819 -0.7815
45643SOL    HW243980   4.242   3.373   5.946  1.1765 -0.7489 -0.5474
45644SOL     OW43981   2.748   9.832   1.182 -0.3725  0.0552  0.9275
45644SOL    HW143982   2.750   9.767   1.252 -0.6625 -1.7917 -0.6963
45644SOL    HW243983   2.830   9.820   1.135 -1.2051 -0.4172 -0.4710
45645SOL     OW43984   7.449  11.995   9.652  0.7332 -0.4756 -0.0567
45645SOL    HW143985   7.437  11.916   9.706 -0.1464  0.4213  1.1211
45645SOL    HW243986   7.474  11.961   9.566  0.3850 -2.0440  0.4145
45646SOL     OW43987   2.827   3.978   3.377  0.4041 -0.1905  0.0903
45646SOL    HW143988   2.840   3.921   3.453  1.3838  0.2198  0.2411
45646SOL    HW243989   2.823   3.918   3.302 -0.3094 -0.5768  0.4286
45647SOL     OW43990   9.699   4.130   6.596  0.2139 -0.0653  0.5985
45647SOL    HW143991   9.754   4.161   6.524  1.0827 -1.0029  0.8347
45647SOL    HW243992   9.718   4.036   6.603 -1.3099 -0.3919  0.7976
45648SOL     OW43993   3.727   0.891   9.399  0.0042 -0.4291 -0.0590
45648SOL    HW143994   3.736   0.913   9.306 -1.8480 -2.6228 -0.8276
45648SOL    HW243995   3.784   0.815   9.411 -1.4942 -1.5819 -0.0045
45649SOL     OW43996   0.010   3.224   2.856 -0.2024 -0.7345  0.6070
45649SOL    HW143997  -0.056   3.258   2.797 -0.2462 -0.1478  0.9874
45649SOL    HW243998   0.093   3.250   2.816 -0.2545  1.5389  1.8702
45650SOL     OW43999   8.974  10.384   5.236  0.6776 -0.0280 -0.1150
45650SOL    HW144000   8.910  10.395   5.306  1.8470  0.5088  0.8921
45650SOL    HW244001   9.046  10.442   5.259  0.6511  1.0257 -2.3307
45651SOL     OW44002   4.222   1.691  10.058 -0.2309 -0.4000  0.0262
45651SOL    HW144003   4.150   1.749  10.081  0.6311  0.0213  1.8242
45651SOL    HW244004   4.195   1.605  10.089 -0.0885 -0.2898  0.4681
45652SOL     OW44005   9.843   1.469   7.522  0.2210  0.2497  0.5227
45652SOL    HW144006   9.873   1.559   7.513  0.7498 -0.0668 -1.3375
45652SOL    HW244007   9.917   1.423   7.563  0.1961  0.5287  0.8840
45653SOL     OW44008   9.554   4.261   9.210  0.3832 -0.1998  0.5300
45653SOL    HW144009   9.584   4.352   9.212 -0.0667 -0.0531  0.7850
45653SOL    HW244010   9.633   4.210   9.195  0.5340  0.2845 -0.3810
45654SOL     OW44011   3.840   9.214   9.845 -0.0518 -0.0481  0.0072
45654SOL    HW144012   3.877   9.139   9.798  2.5403  1.3626 -0.3835
45654SOL    HW244013   3.810   9.273   9.777 -1.0488 -0.2233  0.2848
45655SOL     OW44014   7.893   0.088   5.443  0.7934  0.1084  0.1632
45655SOL    HW144015   7.844   0.103   5.524  1.7105 -0.0444  0.7695
45655SOL    HW244016   7.836   0.120   5.374 -0.1176  0.0124  0.8474
45656SOL     OW44017   9.008  10.747   6.406 -0.0051 -0.3161  0.2716
45656SOL    HW144018   9.086  10.739   6.350  0.2158 -0.8590  0.6533
45656SOL    HW244019   9.037  10.717   6.492 -0.1953  1.0110  0.8314
45657SOL     OW44020   2.669   4.539   3.286  0.3279 -0.4273 -0.2095
45657SOL    HW144021   2.719   4.491   3.221 -0.3082 -0.4319 -0.7076
45657SOL    HW244022   2.592   4.485   3.303  1.2753 -1.2419  1.8029
45658SOL     OW44023   7.569   2.491   7.292 -0.4076  0.3836  0.0973
45658SOL    HW144024   7.572   2.581   7.325  0.8568  0.4008 -0.0048
45658SOL    HW244025   7.651   2.481   7.243  0.0158 -1.1794  1.0595
45659SOL     OW44026   6.518  11.184   6.759 -0.2856  0.5565  0.1479
45659SOL    HW144027   6.473  11.252   6.808  0.8767  1.2628  0.2750
45659SOL    HW244028   6.497  11.103   6.804  1.2268  1.2401  2.2277
45660SOL     OW44029  11.653   7.573  11.513 -0.0740 -0.1491  0.2341
45660SOL    HW144030  11.727   7.581  11.572 -0.1700  0.6803  0.2569
45660SOL    HW244031  11.629   7.480  11.516  0.7043 -0.3453  0.5317
45661SOL     OW44032  11.562   2.152  10.931 -0.0003 -0.1720  0.8917
45661SOL    HW144033  11.469   2.170  10.917 -0.0388 -1.6286 -1.1853
45661SOL    HW244034  11.606   2.234  10.908 -0.5653 -0.5891 -2.0467
45662SOL     OW44035   0.135   2.167  10.637  0.4669 -0.0685 -0.6245
45662SOL    HW144036   0.212   2.210  10.674  0.4794  0.1719 -0.9257
45662SOL    HW244037   0.144   2.075  10.662 -0.3804  0.3514  1.4057
45663SOL     OW44038   9.797  12.126   8.641 -0.0286 -0.7341 -0.5775
45663SOL    HW144039   9.760  12.095   8.724  0.2755 -1.3037 -0.6561
45663SOL    HW244040   9.738  12.196   8.613  0.1409 -0.1861  0.3751
45664SOL     OW44041   6.892   8.170  10.768 -0.0039 -0.2931  0.5105
45664SOL    HW144042   6.982   8.146  10.748  0.2644  1.2054 -0.2066
45664SOL    HW244043   6.853   8.090  10.804  0.7725 -1.8261 -1.8741
45665SOL     OW44044  12.225   2.945   6.999  0.3086 -0.7544  0.8596
45665SOL    HW144045  12.140   2.930   6.958  0.1803 -0.2375  0.9331
45665SOL    HW244046  12.288   2.937   6.927  0.0195  0.9327  0.3762
45666SOL     OW44047  11.153   0.347   0.462  0.3471 -0.7459 -0.4940
45666SOL    HW144048  11.129   0.384   0.547  0.3040  2.0838 -1.6538
45666SOL    HW244049  11.093   0.273   0.450 -1.0748  0.1000  0.9995
45667SOL     OW44050   0.774   9.638   9.533 -0.3219  0.4139  0.3350
45667SOL    HW144051   0.804   9.716   9.579  1.9057 -0.9077  1.2965
45667SOL    HW244052   0.704   9.602   9.588  0.6297  0.1875  1.4125
45668SOL     OW44053   6.870   8.324  10.497  0.3401 -0.1681 -0.4923
45668SOL    HW144054   6.928   8.249  10.511 -0.7322 -0.7821  0.7840
45668SOL    HW244055   6.841   8.349  10.585  0.6826  1.7806 -0.8734
45669SOL     OW44056  10.580  11.803   4.284  0.1588 -0.0135 -0.1906
45669SOL    HW144057  10.659  11.849   4.314 -0.0727  0.1017  0.2627
45669SOL    HW244058  10.523  11.873   4.253 -0.1146 -0.0142  0.3098
45670SOL     OW44059   9.344   6.468   3.119  0.3069  0.1712 -0.6607
45670SOL    HW144060   9.405   6.420   3.064  1.5671 -0.3256  1.0735
45670SOL    HW244061   9.392   6.547   3.144  0.0782  0.0233  0.3077
45671SOL     OW44062   8.661   1.971   3.144 -0.5008 -0.1232 -0.2286
45671SOL    HW144063   8.750   2.003   3.133 -1.0341  1.5860  0.0015
45671SOL    HW244064   8.607   2.032   3.094 -1.6710 -0.1355  0.9393
45672SOL     OW44065   2.262   8.912   2.100  0.3931  0.4996  0.0361
45672SOL    HW144066   2.177   8.937   2.064  0.6970  0.6470 -0.5918
45672SOL    HW244067   2.326   8.964   2.050  0.8672  0.2363  0.3573
45673SOL     OW44068   3.770   7.418   5.204  0.2767  0.4059  0.1128
45673SOL    HW144069   3.756   7.468   5.123 -1.5960 -2.0916 -1.2520
45673SOL    HW244070   3.689   7.427   5.252  0.9482  0.8831  1.1866
45674SOL     OW44071   9.319   2.079   3.529 -0.6013  0.1702  0.3574
45674SOL    HW144072   9.296   2.042   3.443 -2.7835  0.3421  0.7965
45674SOL    HW244073   9.367   2.159   3.509 -0.2745 -0.2633 -0.6743
45675SOL     OW44074   0.019  10.323  11.361 -0.5246 -0.4427  0.3714
45675SOL    HW144075  -0.031  10.400  11.333  0.2483 -0.2893 -0.6532
45675SOL    HW244076  -0.024  10.294  11.441 -1.9377 -0.0192 -0.2108
45676SOL     OW44077   6.260   0.826  12.415  0.2094 -0.6514  0.2904
45676SOL    HW144078   6.196   0.758  12.395  0.2342 -0.3732 -0.8032
45676SOL    HW244079   6.208   0.907  12.420 -0.0705 -0.9060  3.1602
45677SOL     OW44080   1.307   7.142   6.989  0.3457  0.9434  0.2782
45677SOL    HW144081   1.401   7.154   7.004  0.1217  1.6782  1.1277
45677SOL    HW244082   1.300   7.122   6.896  1.6176 -1.9621  0.6847
45678SOL     OW44083  11.405   1.128   6.369  0.5655 -0.1848  0.0985
45678SOL    HW144084  11.391   1.113   6.276 -0.2406  0.6821  0.0674
45678SOL    HW244085  11.485   1.079   6.390  1.6288  0.8539 -1.3772
45679SOL     OW44086   3.084   3.756   6.890 -0.0953 -0.2308  0.0688
45679SOL    HW144087   3.173   3.720   6.896 -0.1351 -0.3301  0.0623
45679SOL    HW244088   3.058   3.741   6.799  0.1245  0.3757 -0.1011
45680SOL     OW44089  11.529   4.973  11.917  0.1173  0.2743  0.5327
45680SOL    HW144090  11.484   5.018  11.988 -0.2710 -1.0476  1.1485
45680SOL    HW244091  11.589   4.913  11.961 -0.5185 -0.9472 -0.2403
45681SOL     OW44092   6.227  11.637   7.153  0.8234 -0.0601 -0.0581
45681SOL    HW144093   6.298  11.692   7.185 -0.5126  2.2771 -0.8838
45681SOL    HW244094   6.155  11.652   7.214  0.5146 -1.1603 -0.1225
45682SOL     OW44095   9.477  10.554  10.496 -0.0955  0.2915 -0.5068
45682SOL    HW144096   9.426  10.580  10.419 -0.1172  0.5418 -0.4087
45682SOL    HW244097   9.466  10.626  10.557  2.1147  1.3732 -1.2668
45683SOL     OW44098   9.025   3.930  10.429 -0.4414  0.0491 -0.0754
45683SOL    HW144099   9.100   3.883  10.464 -0.9093 -2.0131 -1.6297
45683SOL    HW244100   8.956   3.863  10.422 -1.3940  1.1309 -1.6859
45684SOL     OW44101   5.112   7.500   3.996 -0.0340 -0.3861 -0.2250
45684SOL    HW144102   5.050   7.570   3.975 -0.7706 -1.2554 -1.0425
45684SOL    HW244103   5.159   7.532   4.072 -0.1565  1.1215 -0.7484
45685SOL     OW44104   3.727  11.397   1.789 -0.0967 -0.1980 -0.2019
45685SOL    HW144105   3.635  11.408   1.815  0.4086  2.6658  0.7376
45685SOL    HW244106   3.765  11.342   1.857 -0.5303  0.8564  0.9208
45686SOL     OW44107  10.888   3.154   8.138 -0.5989 -0.0421 -0.3048
45686SOL    HW144108  10.932   3.239   8.134 -0.1321 -0.1959  1.0435
45686SOL    HW244109  10.832   3.160   8.215 -1.0949 -0.7169 -0.6070
45687SOL     OW44110   4.106   3.085   3.919 -0.0129 -0.2000 -0.5608
45687SOL    HW144111   4.135   3.114   4.005  1.3811 -0.8468 -0.7912
45687SOL    HW244112   4.016   3.054   3.934  0.3015 -0.5623  0.7168
45688SOL     OW44113   9.253   4.597   5.108  0.6928 -0.5473  0.5009
45688SOL    HW144114   9.293   4.528   5.160  3.5170  1.3076  1.0028
45688SOL    HW244115   9.322   4.628   5.050 -1.0631  0.5192 -1.1632
45689SOL     OW44116   6.905   8.362   6.942  0.1478  0.0636  0.3440
45689SOL    HW144117   6.999   8.369   6.959  0.8453 -1.2606 -2.5253
45689SOL    HW244118   6.881   8.448   6.907  0.7965 -0.2343 -0.8923
45690SOL     OW44119  12.281   4.005   0.934  0.2868  0.0363  0.1265
45690SOL    HW144120  12.314   4.036   0.850 -0.7466 -2.0963 -1.1657
45690SOL    HW244121  12.198   3.962   0.913 -0.0736 -0.4543  2.2594
45691SOL     OW44122   8.940   6.817  11.583 -0.1140 -0.4109 -0.2469
45691SOL    HW144123   9.022   6.782  11.547  0.0516  0.0848 -0.3618
45691SOL    HW244124   8.958   6.833  11.675 -0.4813 -1.5077  0.0280
45692SOL     OW44125   2.221   8.284  10.568  0.1902 -0.1974  0.4934
45692SOL    HW144126   2.287   8.354  10.567  0.1899 -0.1883 -1.0518
45692SOL    HW244127   2.261   8.213  10.517 -0.0017 -1.1578  1.6459
45693SOL     OW44128   9.878   2.865   0.753  0.2440  0.1228 -0.1544
45693SOL    HW144129   9.963   2.863   0.798  0.0081 -1.3370  0.2820
45693SOL    HW244130   9.815   2.879   0.824 -0.1017 -1.8420 -0.0003
45694SOL     OW44131   0.464   1.459  10.966  0.3365 -0.4233 -0.4001
45694SOL    HW144132   0.404   1.396  11.006  0.6889 -1.0369 -0.8249
45694SOL    HW244133   0.544   1.409  10.950  0.3244 -0.1041 -1.5416
45695SOL     OW44134   3.162   8.555   9.603  0.4533 -0.3986  0.3912
45695SOL    HW144135   3.173   8.487   9.669 -0.0181  0.3010  1.2236
45695SOL    HW244136   3.067   8.567   9.596  0.5213  1.7778  2.0255
45696SOL     OW44137  11.375   7.406   6.596  0.1972 -0.6981 -0.1792
45696SOL    HW144138  11.430   7.452   6.532  0.5441  0.8900  1.1694
45696SOL    HW244139  11.427   7.406   6.676 -1.8685  1.3293  1.3009
45697SOL     OW44140   9.631   0.513  11.558 -0.2767 -0.2983  0.0447
45697SOL    HW144141   9.546   0.548  11.583 -0.7091  1.3301 -3.2213
45697SOL    HW244142   9.692   0.584  11.575 -0.2260 -0.0260 -1.1678
45698SOL     OW44143   0.035   9.007   2.696  0.1367  0.1336  0.1803
45698SOL    HW144144   0.040   9.029   2.789 -0.1604 -1.8194  0.7119
45698SOL    HW244145   0.123   9.026   2.662  0.6848 -0.4818  1.2102
45699SOL     OW44146   4.419   2.557   4.467  0.2808  0.5741  0.5195
45699SOL    HW144147   4.415   2.608   4.386  1.8398 -0.7230 -0.4138
45699SOL    HW244148   4.415   2.466   4.439  4.5694 -0.1278  1.4474
45700SOL     OW44149  10.682   9.804   9.779  0.6083 -0.3715  0.4040
45700SOL    HW144150  10.708   9.894   9.797  1.3612 -0.2099 -1.2924
45700SOL    HW244151  10.725   9.752   9.847  1.2820  0.4070  0.5889
45701SOL     OW44152   1.850  11.990  10.104  0.1149 -0.7249  0.2292
45701SOL    HW144153   1.784  11.931  10.065 -1.4245  0.7487  0.4880
45701SOL    HW244154   1.877  12.047  10.032 -0.3984 -0.0292  0.5803
45702SOL     OW44155  12.091   2.298   5.299 -0.0783 -0.5188 -0.0686
45702SOL    HW144156  12.103   2.210   5.336  0.0006 -0.2955  0.4471
45702SOL    HW244157  11.996   2.312   5.302 -0.0234 -0.2662  0.6125
45703SOL     OW44158   7.782   0.441   2.606  0.2098 -0.0023 -0.2266
45703SOL    HW144159   7.808   0.409   2.692  1.7575  0.0659 -0.6426
45703SOL    HW244160   7.708   0.500   2.623  0.2139 -0.3379  0.9967
45704SOL     OW44161  12.385   6.423   8.401  0.1039  0.0065  0.0575
45704SOL    HW144162  12.299   6.432   8.360  0.5093 -0.1871 -0.8462
45704SOL    HW244163  12.442   6.392   8.331  0.8191 -0.2865  0.7587
45705SOL     OW44164   2.577   6.031   0.061 -0.6462 -0.2943  0.1702
45705SOL    HW144165   2.549   5.952   0.106  0.2198 -0.5335  0.2961
45705SOL    HW244166   2.495   6.075   0.037 -1.1238 -0.9372  0.5988
45706SOL     OW44167   2.759   2.040   9.938 -0.4214 -0.3298 -0.1635
45706SOL    HW144168   2.796   2.127   9.930 -0.2502 -0.5609 -2.4814
45706SOL    HW244169   2.833   1.981   9.927 -0.5032 -0.8247  1.5729
45707SOL     OW44170   6.192   7.658   3.183  0.6344 -0.2604  0.4538
45707SOL    HW144171   6.258   7.661   3.252  0.5215 -0.5003  0.5758
45707SOL    HW244172   6.187   7.747   3.150  0.7905 -0.1739  0.6632
45708SOL     OW44173  11.002   1.440   7.245  0.5639 -0.3751 -0.0682
45708SOL    HW144174  11.008   1.347   7.264  0.3809 -0.2397  0.6972
45708SOL    HW244175  10.998   1.482   7.331  1.8966  0.4291 -0.3683
45709SOL     OW44176   0.504   7.834  10.467 -0.1511 -0.4708 -0.5029
45709SOL    HW144177   0.450   7.826  10.389  0.0380  0.1898 -0.7032
45709SOL    HW244178   0.592   7.854  10.434 -0.0781 -0.1450 -0.1243
45710SOL     OW44179   6.601   5.569   7.717 -0.4970  0.2033 -0.1514
45710SOL    HW144180   6.565   5.482   7.701  0.2025 -0.2120  0.5100
45710SOL    HW244181   6.695   5.560   7.701 -0.3324  0.6822  0.5156
45711SOL     OW44182   8.601   1.171   7.637  0.1305 -0.4643 -0.2826
45711SOL    HW144183   8.602   1.263   7.610  1.3942 -0.2029  0.5770
45711SOL    HW244184   8.616   1.174   7.731 -0.0240 -1.5533 -0.2175
45712SOL     OW44185   2.299   1.306   8.094  0.4555  0.4342  0.0671
45712SOL    HW144186   2.290   1.253   8.173 -1.1742  0.0154 -0.3458
45712SOL    HW244187   2.339   1.247   8.030  1.6636  0.7366  0.5147
45713SOL     OW44188   8.378  12.470   7.407 -0.6720 -0.2733 -0.3657
45713SOL    HW144189   8.362  12.496   7.498 -2.2874  0.6285 -0.8687
45713SOL    HW244190   8.291  12.448   7.373 -0.1798  0.0150 -1.8788
45714SOL     OW44191  10.620   8.535   5.871  0.5985  0.2538  0.1320
45714SOL    HW144192  10.568   8.498   5.801  1.1081  0.1467 -0.1997
45714SOL    HW244193  10.695   8.476   5.879  1.0850  0.8418  0.0406
45715SOL     OW44194   2.405   9.698   1.389  0.3173 -0.4803 -0.2290
45715SOL    HW144195   2.335   9.644   1.424 -1.5393  2.4733  0.9518
45715SOL    HW244196   2.463   9.714   1.464 -0.1213  0.5527 -0.0914
45716SOL     OW44197  11.305  11.320   1.476  0.0659 -0.2455 -0.3951
45716SOL    HW144198  11.256  11.241   1.500  0.6086 -0.1718  1.0717
45716SOL    HW244199  11.332  11.305   1.386 -0.3997 -1.4538 -0.3546
45717SOL     OW44200   4.199   1.935  11.169 -0.2367  0.0757 -0.6334
45717SOL    HW144201   4.277   1.910  11.218 -0.6894  1.4110  0.8385
45717SOL    HW244202   4.229   1.944  11.079  1.0362 -0.5625 -0.2908
45718SOL     OW44203   7.161   7.375  11.915  0.5266 -0.5717  0.4742
45718SOL    HW144204   7.145   7.390  11.822  2.1232 -0.4618  0.1901
45718SOL    HW244205   7.082   7.330  11.947  0.2901 -1.3099 -1.0900
45719SOL     OW44206  10.612   4.162   7.122 -0.4284  0.4318 -0.4259
45719SOL    HW144207  10.672   4.094   7.153 -0.2380  1.0100  0.4819
45719SOL    HW244208  10.543   4.113   7.077 -1.4943 -0.5886  2.1281
45720SOL     OW44209   8.124   8.149   2.002 -0.7673 -0.2169  0.1279
45720SOL    HW144210   8.075   8.232   2.003 -1.0651 -0.3938  0.9013
45720SOL    HW244211   8.091   8.101   2.078  0.1937 -0.5853  0.3270
45721SOL     OW44212   6.264  11.906   2.373  0.1743 -0.0000 -0.2333
45721SOL    HW144213   6.201  11.929   2.442  1.5618 -0.0399  1.1094
45721SOL    HW244214   6.233  11.951   2.295 -0.9803  0.7500  0.6376
45722SOL     OW44215   5.952   8.862   0.135  0.3935 -0.1020  0.2880
45722SOL    HW144216   6.044   8.878   0.111 -0.2545  1.1909 -1.5924
45722SOL    HW244217   5.929   8.936   0.191  0.0455  0.5365 -0.6686
45723SOL     OW44218   1.550   4.840   3.096  0.0933 -0.3337  0.0951
45723SOL    HW144219   1.492   4.872   3.165  1.2670 -0.1796  1.0554
45723SOL    HW244220   1.627   4.808   3.143  0.0615 -2.1597 -1.0127
45724SOL     OW44221   7.873   0.671   8.642 -0.5999  0.4277  0.2574
45724SOL    HW144222   7.874   0.678   8.737 -2.1392  0.0801  0.3214
45724SOL    HW244223   7.789   0.708   8.616 -1.3906 -1.9067 -0.7332
45725SOL     OW44224  12.443   5.838   3.022  0.3290  0.0809 -0.0192
45725SOL    HW144225  12.488   5.818   3.104  0.6125  0.6220 -0.0372
45725SOL    HW244226  12.442   5.755   2.975  0.1171 -0.2469  0.5517
45726SOL     OW44227   7.342   1.998   3.846 -0.1789 -0.5895 -0.2028
45726SOL    HW144228   7.388   2.076   3.814 -0.9251  0.1893  0.5785
45726SOL    HW244229   7.287   2.030   3.918 -0.9114 -1.7416 -0.2258
45727SOL     OW44230   6.397   4.524  10.862 -0.0758  0.1254 -0.6316
45727SOL    HW144231   6.344   4.455  10.904  1.5748 -0.2362  0.9825
45727SOL    HW244232   6.415   4.586  10.933  0.9555  0.6501 -1.3388
45728SOL     OW44233   4.143   9.915   9.820 -0.2988  0.8195 -0.6171
45728SOL    HW144234   4.068   9.871   9.781 -0.8953  0.8084  0.5114
45728SOL    HW244235   4.167   9.861   9.895 -0.6571  2.0543  0.4345
45729SOL     OW44236  12.193   1.969   4.487  0.4495  0.1885 -0.0920
45729SOL    HW144237  12.252   2.008   4.423 -0.6541 -0.2268 -1.4169
45729SOL    HW244238  12.123   1.930   4.435 -0.7610  0.2673  1.3893
45730SOL     OW44239  12.516  11.864  11.294 -0.3565  0.3724  0.0844
45730SOL    HW144240  12.509  11.777  11.256  0.3842  0.4315 -0.1906
45730SOL    HW244241  12.425  11.889  11.312 -0.5582 -0.5262  0.3481
45731SOL     OW44242   5.556  11.247   0.427 -0.1834 -0.4435  0.0134
45731SOL    HW144243   5.472  11.204   0.413  0.1582 -0.9684 -0.4942
45731SOL    HW244244   5.621  11.182   0.398  0.3578  0.2327 -0.3232
45732SOL     OW44245   0.826   6.974   7.907  0.5158 -0.3318  0.3717
45732SOL    HW144246   0.877   7.045   7.866 -0.9416 -0.9489 -2.7850
45732SOL    HW244247   0.847   6.897   7.855 -0.9747 -1.3452  1.2276
45733SOL     OW44248   9.605   8.010   0.641 -0.1026  0.6905  0.1199
45733SOL    HW144249   9.610   7.960   0.559 -2.0885  1.5187 -0.5682
45733SOL    HW244250   9.664   7.964   0.700 -0.5174 -1.4372 -1.0031
45734SOL     OW44251   7.952   9.829   8.674 -0.0783 -0.0048 -0.0185
45734SOL    HW144252   7.902   9.878   8.608  1.1245  2.2703  0.6543
45734SOL    HW244253   7.917   9.860   8.758 -1.9622 -3.2604  0.5504
45735SOL     OW44254   1.898   8.630   4.729  0.5162 -0.2398 -0.1650
45735SOL    HW144255   1.844   8.566   4.775 -0.3650 -0.3897 -1.3572
45735SOL    HW244256   1.947   8.673   4.798  0.7029 -1.7926  0.7324
45736SOL     OW44257  11.123   2.018   0.907 -0.0169 -0.6899 -0.0279
45736SOL    HW144258  11.196   2.055   0.955 -0.2855 -0.0113 -0.1358
45736SOL    HW244259  11.091   2.089   0.852 -1.0230 -0.8442  0.3261
45737SOL     OW44260   8.033   1.337   3.821  0.0558 -0.2511 -0.3001
45737SOL    HW144261   8.043   1.324   3.727 -0.0784 -0.5184 -0.2782
45737SOL    HW244262   8.064   1.426   3.837 -1.0974  0.2483 -0.7747
45738SOL     OW44263  12.042   7.413   8.058 -0.5345  0.6467 -0.3711
45738SOL    HW144264  12.002   7.326   8.062 -1.4225  1.1002  1.5237
45738SOL    HW244265  11.987   7.463   7.998  0.3289 -0.2049 -1.9663
45739SOL     OW44266   9.536   8.196  10.943  0.2508 -0.6885 -0.1522
45739SOL    HW144267   9.569   8.257  11.009  0.0983  0.8807 -1.4813
45739SOL    HW244268   9.613   8.148  10.914  0.4889 -0.6516  0.4128
45740SOL     OW44269  10.449   0.993  11.329 -0.0537  0.1483  0.4763
45740SOL    HW144270  10.544   0.981  11.323 -0.3523 -2.4676 -0.4259
45740SOL    HW244271  10.412   0.914  11.289 -2.6257  0.1239  2.5650
45741SOL     OW44272   1.030   0.381  12.426  0.1208  0.3795  0.4099
45741SOL    HW144273   1.083   0.460  12.411  0.2385  0.7301  2.4079
45741SOL    HW244274   1.093   0.315  12.454 -0.2420  0.2048  0.8217
45742SOL     OW44275   7.534   4.379  10.658 -0.3236  0.1852  0.1991
45742SOL    HW144276   7.525   4.295  10.612 -0.6866  0.3966 -0.1298
45742SOL    HW244277   7.592   4.360  10.731 -0.9059 -0.5066  0.5048
45743SOL     OW44278   5.131   2.574   1.039 -0.0973 -0.1329 -0.1383
45743SOL    HW144279   5.216   2.562   0.996 -0.2074  0.7544 -0.6334
45743SOL    HW244280   5.096   2.655   1.001 -0.3257  0.5342  1.4141
45744SOL     OW44281   9.711  10.495   5.078  0.2675 -0.4904 -0.2222
45744SOL    HW144282   9.685  10.424   5.136 -0.1370  0.2401  0.5260
45744SOL    HW244283   9.699  10.461   4.990 -1.0735 -0.9383  0.1131
45745SOL     OW44284   1.243   5.645  10.156 -0.2874  0.2439  0.1436
45745SOL    HW144285   1.328   5.689  10.161 -0.2208  0.3945 -1.8045
45745SOL    HW244286   1.183   5.711  10.122 -0.4928 -0.7197 -1.4462
45746SOL     OW44287   9.420   8.490  10.683 -0.6189  0.0062  0.0821
45746SOL    HW144288   9.362   8.536  10.621 -1.5403 -1.2921 -0.0613
45746SOL    HW244289   9.367   8.417  10.715  0.8917 -1.1497  0.0592
45747SOL     OW44290   6.454   7.962   6.565  0.6119  0.4736  1.1786
45747SOL    HW144291   6.436   7.971   6.472  0.4936  2.5777  1.3485
45747SOL    HW244292   6.530   7.904   6.569  1.0940  0.9484 -0.2864
45748SOL     OW44293   8.539   5.355   5.073 -0.1219 -0.2039 -0.1963
45748SOL    HW144294   8.596   5.328   5.145 -1.9739 -1.3403  0.9436
45748SOL    HW244295   8.542   5.451   5.073 -0.3216 -0.1764  1.6167
45749SOL     OW44296   4.363  11.382   2.297  0.0273  0.1113 -0.0320
45749SOL    HW144297   4.316  11.418   2.373 -1.2478  0.5925 -1.0177
45749SOL    HW244298   4.350  11.447   2.228 -0.1536 -1.0476 -1.1184
45750SOL     OW44299   6.549   9.689   8.044  0.6044  0.2765  0.7495
45750SOL    HW144300   6.483   9.759   8.042  1.8469  1.5081  1.4428
45750SOL    HW244301   6.633   9.734   8.035  1.5419 -0.9499  2.6638
45751SOL     OW44302   2.622   0.749   5.950 -0.0105 -0.1836  0.6138
45751SOL    HW144303   2.561   0.767   6.022 -1.9400 -0.2607 -0.9111
45751SOL    HW244304   2.578   0.683   5.897  2.3397 -1.7544  0.4772
45752SOL     OW44305   7.606   2.139   2.806 -0.4184 -0.1760  0.1725
45752SOL    HW144306   7.638   2.059   2.764  0.6294  0.7447 -0.8293
45752SOL    HW244307   7.602   2.117   2.899 -0.7423 -1.5790 -0.1495
45753SOL     OW44308  12.213   7.959   7.446 -0.3355  0.2661  0.2141
45753SOL    HW144309  12.151   8.025   7.415 -1.0580 -0.4228  0.1575
45753SOL    HW244310  12.166   7.876   7.438  0.5911 -0.2787  0.1826
45754SOL     OW44311   8.719   4.672   6.951 -0.5751 -0.1914  0.5795
45754SOL    HW144312   8.797   4.651   6.899 -0.8641 -2.0607  0.8542
45754SOL    HW244313   8.755   4.708   7.032  0.0140 -1.1500  0.7554
45755SOL     OW44314   5.135   8.753   8.767 -0.3476 -0.8264  0.2503
45755SOL    HW144315   5.124   8.724   8.858  0.8541  0.5054  0.8685
45755SOL    HW244316   5.055   8.801   8.747  0.2062  0.6252  1.3485
45756SOL     OW44317   4.619   0.878   8.178 -0.2342 -0.4720  0.1934
45756SOL    HW144318   4.680   0.835   8.237 -0.6462 -0.6588  0.4837
45756SOL    HW244319   4.608   0.966   8.213 -0.0610 -0.4104  0.0907
45757SOL     OW44320   2.560   7.083  10.933  0.3806  0.0396  0.3716
45757SOL    HW144321   2.512   7.004  10.956  0.8142 -0.3833 -0.1674
45757SOL    HW244322   2.498   7.155  10.951  0.1148 -0.3875  1.2066
45758SOL     OW44323   3.960   4.689   2.907 -0.5686 -0.0075  0.0219
45758SOL    HW144324   4.030   4.742   2.945 -0.8816  0.4348 -0.0100
45758SOL    HW244325   3.879   4.730   2.939 -0.8166 -0.5155  0.0640
45759SOL     OW44326   6.828   3.389  10.307  0.4071  0.0107  0.2018
45759SOL    HW144327   6.896   3.331  10.341  1.2366  0.2071 -1.0446
45759SOL    HW244328   6.757   3.330  10.280  0.9710 -0.3920 -0.4476
45760SOL     OW44329   9.236   0.792  12.185  0.4702  0.1055  0.0200
45760SOL    HW144330   9.215   0.716  12.239  2.4112 -0.9791 -0.6724
45760SOL    HW244331   9.161   0.851  12.197 -0.6222 -1.4628  1.3575
45761SOL     OW44332   7.595   9.963   0.519  0.4894  0.5313 -0.0162
45761SOL    HW144333   7.599  10.053   0.487  0.9976 -0.1733 -2.0591
45761SOL    HW244334   7.517   9.926   0.478  1.3717 -0.5117 -0.8174
45762SOL     OW44335   1.240   1.548  11.007  0.6031  0.4128 -0.1213
45762SOL    HW144336   1.209   1.460  10.986  0.4861  0.8440 -2.0026
45762SOL    HW244337   1.199   1.569  11.091 -0.7497 -0.6843 -0.4686
45763SOL     OW44338   1.295   3.576   4.176 -0.7017  0.6499 -0.3049
45763SOL    HW144339   1.325   3.486   4.184 -0.0436  0.8173 -0.8472
45763SOL    HW244340   1.252   3.579   4.091 -0.7994  0.8319 -0.2493
45764SOL     OW44341   5.391  11.513   9.654 -0.2109 -0.4367 -0.1611
45764SOL    HW144342   5.323  11.447   9.638 -1.3797  0.2751  1.5325
45764SOL    HW244343   5.458  11.495   9.588 -1.1359 -2.4193 -0.6516
45765SOL     OW44344   8.735   9.468   7.457 -0.3595  0.5165 -0.0575
45765SOL    HW144345   8.769   9.532   7.520 -0.9195 -0.2333  1.0521
45765SOL    HW244346   8.805   9.457   7.393  0.1200  1.5085  0.2731
45766SOL     OW44347   1.702   6.321   0.464 -0.7399  0.2246  0.4183
45766SOL    HW144348   1.782   6.269   0.453 -0.0683  0.7261  2.4528
45766SOL    HW244349   1.662   6.322   0.377  0.7682 -1.1614 -0.3525
45767SOL     OW44350   6.032   3.033  12.417 -0.4131  0.0618 -0.2207
45767SOL    HW144351   6.083   3.030  12.336  1.3374 -0.5378  0.8189
45767SOL    HW244352   6.088   3.080  12.478 -2.3161  1.7900  0.2868
45768SOL     OW44353   5.986  12.337   6.613  0.3879  0.0964 -0.1665
45768SOL    HW144354   5.960  12.248   6.589  0.5472  0.1603 -0.5783
45768SOL    HW244355   6.072  12.326   6.654 -0.0396 -0.0519  0.7183
45769SOL     OW44356   4.449  10.092   4.312  0.2380 -0.0704 -0.5264
45769SOL    HW144357   4.381  10.096   4.245 -0.9331 -0.1278  0.6195
45769SOL    HW244358   4.509  10.163   4.290 -0.1524 -0.0609 -1.5956
45770SOL     OW44359   8.086  10.294   0.263 -0.0337  0.0216  0.1122
45770SOL    HW144360   8.043  10.308   0.179  2.7252  0.6658 -1.3086
45770SOL    HW244361   8.022  10.326   0.328 -2.3572 -0.7637 -1.6334
45771SOL     OW44362   0.652  11.334   2.028  0.2110 -0.0307  0.4566
45771SOL    HW144363   0.741  11.322   2.062  0.1996  0.6542  0.7538
45771SOL    HW244364   0.595  11.311   2.101  0.1389 -0.4527  0.2714
45772SOL     OW44365   1.662   6.233  12.022 -0.0524  0.5349 -0.4759
45772SOL    HW144366   1.695   6.170  11.959 -2.7253 -1.0482 -0.4691
45772SOL    HW244367   1.670   6.189  12.107 -0.7654  0.7087 -0.3090
45773SOL     OW44368  11.109   5.371   0.845  0.3497  0.4099  0.5490
45773SOL    HW144369  11.016   5.385   0.863  0.7027  2.1391  1.1800
45773SOL    HW244370  11.134   5.300   0.904 -0.5156  0.0826  0.5397
45774SOL     OW44371  11.133   3.171   4.432 -0.1100  0.3817 -0.5397
45774SOL    HW144372  11.164   3.216   4.512 -0.9046  0.6185 -0.3611
45774SOL    HW244373  11.210   3.168   4.376 -0.2947  3.1037 -1.0741
45775SOL     OW44374   5.407   8.475  10.470  0.2087  0.3287 -0.2196
45775SOL    HW144375   5.354   8.514  10.540  0.1444 -1.3250  0.6956
45775SOL    HW244376   5.356   8.490  10.390 -0.6770  0.5099  0.3675
45776SOL     OW44377   4.526   3.540   6.240 -0.2997  0.1608 -0.0099
45776SOL    HW144378   4.462   3.491   6.292 -0.1451  0.4055  0.4231
45776SOL    HW244379   4.473   3.586   6.175 -0.5771  0.4194  0.3922
45777SOL     OW44380   6.539   3.044  10.972  0.9807 -0.7028 -0.7018
45777SOL    HW144381   6.496   2.970  11.015  0.7694 -0.8638 -1.1844
45777SOL    HW244382   6.482   3.065  10.897  1.9360 -1.1564 -1.5724
45778SOL     OW44383   0.088  12.448   9.042  0.5714  0.2195  0.1057
45778SOL    HW144384   0.073  12.441   9.136  0.4636 -1.0306  0.0175
45778SOL    HW244385   0.077  12.541   9.022  1.2171  0.6000  1.4221
45779SOL     OW44386   0.587   3.337  11.055  0.3181 -0.1806  0.7298
45779SOL    HW144387   0.584   3.256  11.005 -0.9892 -1.2211  2.3760
45779SOL    HW244388   0.615   3.310  11.143  1.4865  1.4166  0.8896
45780SOL     OW44389   3.703   2.020   9.801  0.6264  0.2001  0.0993
45780SOL    HW144390   3.685   2.114   9.800  0.3664  0.1481 -0.3640
45780SOL    HW244391   3.679   1.992   9.889  3.2877  1.0488  1.1827
45781SOL     OW44392   3.835   4.266   7.781 -0.2396  0.3334 -0.0858
45781SOL    HW144393   3.817   4.203   7.711 -0.5974  0.8572 -0.4709
45781SOL    HW244394   3.762   4.328   7.777  0.3473  1.0410 -0.0213
45782SOL     OW44395   7.558   3.205  11.276  0.4500  0.5457  0.0271
45782SOL    HW144396   7.490   3.258  11.317  1.8844  0.7140  2.3925
45782SOL    HW244397   7.510   3.137  11.228 -1.4154  0.2537  2.1173
45783SOL     OW44398   5.352   0.658   8.715  0.4098  0.4786  0.0328
45783SOL    HW144399   5.402   0.702   8.647  1.6514 -0.9673 -0.0332
45783SOL    HW244400   5.418   0.613   8.768 -0.7581 -0.8860  0.3899
45784SOL     OW44401   7.824   7.351   6.255  0.0998  0.1352 -0.3512
45784SOL    HW144402   7.859   7.419   6.313 -0.6422  1.1637 -1.0695
45784SOL    HW244403   7.899   7.322   6.203  0.1500  1.5121 -1.1014
45785SOL     OW44404   5.365   6.810   9.158 -0.1600  0.1376  0.4931
45785SOL    HW144405   5.432   6.761   9.205  1.1508  1.6354  0.2572
45785SOL    HW244406   5.327   6.868   9.224  1.7083  2.2717 -0.2147
45786SOL     OW44407   2.332   1.866   5.417 -0.1268 -0.3023  0.0832
45786SOL    HW144408   2.412   1.897   5.374 -1.3007  0.9299 -1.3177
45786SOL    HW244409   2.351   1.873   5.510  1.8615 -1.3312 -0.2036
45787SOL     OW44410   2.460  10.093   5.841 -0.4519 -0.2313  0.4166
45787SOL    HW144411   2.552  10.101   5.814 -0.0299  0.0983  1.8621
45787SOL    HW244412   2.427  10.183   5.841 -1.0224 -0.4190 -0.8393
45788SOL     OW44413   8.979   6.702  10.158 -0.7428 -0.2602  0.3938
45788SOL    HW144414   8.975   6.766  10.087  1.5226 -1.3228 -0.7894
45788SOL    HW244415   8.917   6.633  10.132 -1.4906  0.3420  0.5437
45789SOL     OW44416  12.452   2.435   6.206  0.0497  0.0138 -0.1771
45789SOL    HW144417  12.537   2.477   6.194  0.3890 -0.8642 -0.9282
45789SOL    HW244418  12.471   2.341   6.208 -0.7889 -0.1500  0.6827
45790SOL     OW44419   0.276  11.837  11.596  0.3975  0.2398  0.1271
45790SOL    HW144420   0.185  11.851  11.572  0.3629  0.4332  0.3777
45790SOL    HW244421   0.295  11.903  11.662  0.7223  0.2080  0.0681
45791SOL     OW44422   5.654   4.922   2.266 -0.2561 -0.1587  0.7702
45791SOL    HW144423   5.728   4.883   2.218 -1.8524 -1.1034 -1.0757
45791SOL    HW244424   5.625   4.852   2.325  0.0395  0.0663  1.1888
45792SOL     OW44425   9.098   3.805   3.272  0.3304  0.3808 -0.0539
45792SOL    HW144426   9.085   3.783   3.364  2.3004 -0.9207 -0.0262
45792SOL    HW244427   9.013   3.840   3.244 -1.0229 -1.2331  1.6810
45793SOL     OW44428   3.878   3.286   6.125 -0.0501  0.2898 -0.2272
45793SOL    HW144429   3.785   3.273   6.105 -0.5653 -1.4814  2.6979
45793SOL    HW244430   3.919   3.203   6.103  0.3053  0.1251  0.9911
45794SOL     OW44431   3.937   2.020   1.274  0.0236 -0.3006 -0.0925
45794SOL    HW144432   4.011   2.070   1.309  0.4503 -2.6970  2.8077
45794SOL    HW244433   3.977   1.941   1.237 -1.0390 -1.8626  1.9739
45795SOL     OW44434  10.798   4.666   9.063  0.7645 -0.0092  0.0310
45795SOL    HW144435  10.708   4.651   9.034  0.9203 -0.2511 -0.3340
45795SOL    HW244436  10.790   4.679   9.158  0.4638 -1.1195  0.1735
45796SOL     OW44437  10.594   5.952   2.008  0.2332 -0.0064  0.0198
45796SOL    HW144438  10.645   5.897   2.068 -0.6622  1.3922  2.1779
45796SOL    HW244439  10.504   5.921   2.019  0.0049  0.5303 -0.3111
45797SOL     OW44440   9.419   2.498   5.657 -0.7351 -0.3914 -0.1865
45797SOL    HW144441   9.434   2.549   5.738 -0.3286  0.9045 -1.0387
45797SOL    HW244442   9.471   2.419   5.669  1.0721  0.7471 -0.0318
45798SOL     OW44443  11.534  10.118   5.673 -0.1555 -0.3958  0.5999
45798SOL    HW144444  11.594  10.048   5.697  1.2041  0.7433  0.6286
45798SOL    HW244445  11.517  10.164   5.755 -0.0064  0.0879  0.3651
45799SOL     OW44446   9.427   3.891   5.684 -0.0304  0.2201 -0.0808
45799SOL    HW144447   9.480   3.958   5.641 -0.1512  0.8792  0.7805
45799SOL    HW244448   9.434   3.814   5.627 -0.0959  1.0324 -1.2141
45800SOL     OW44449  10.083   3.830   0.361  0.2685 -0.3905 -0.1075
45800SOL    HW144450  10.023   3.854   0.432 -0.2893  1.4567 -1.1266
45800SOL    HW244451  10.026   3.806   0.288  0.5871  2.6986 -1.5314
45801SOL     OW44452   7.744   2.469   4.230 -0.3934  0.0981  0.4340
45801SOL    HW144453   7.748   2.541   4.293  0.5681 -0.0229  0.5288
45801SOL    HW244454   7.814   2.489   4.168 -0.8742 -0.1565 -0.1930
45802SOL     OW44455   6.781  10.912   4.009 -0.1100  0.1618  0.1600
45802SOL    HW144456   6.698  10.951   3.982 -1.3018 -2.3471 -0.0974
45802SOL    HW244457   6.814  10.870   3.929  0.4224 -0.5303  0.7375
45803SOL     OW44458   5.459   0.912   0.562  0.5994 -0.1135 -0.5399
45803SOL    HW144459   5.363   0.918   0.562  0.6044 -0.0584 -1.1586
45803SOL    HW244460   5.483   0.899   0.471  1.1845 -0.1531 -0.3840
45804SOL     OW44461   5.844   5.423  10.587  0.2667  0.5410  0.3190
45804SOL    HW144462   5.915   5.482  10.561  0.6841  0.4913  1.2895
45804SOL    HW244463   5.889   5.343  10.614 -0.1792  0.3816  0.6071
45805SOL     OW44464   7.824   7.538   5.984 -0.3708  0.1881  0.5471
45805SOL    HW144465   7.743   7.546   5.934 -0.1558  1.4419  0.3680
45805SOL    HW244466   7.807   7.467   6.045 -0.9969 -0.6964 -0.6180
45806SOL     OW44467   8.390   7.533   5.441  0.2154 -0.7763  1.0303
45806SOL    HW144468   8.394   7.438   5.456  0.2372 -0.5763  2.3855
45806SOL    HW244469   8.298   7.556   5.458  0.5787 -0.3002  2.4886
45807SOL     OW44470   3.235   0.233   0.909 -0.2219 -0.5160  0.6962
45807SOL    HW144471   3.185   0.290   0.967  0.6666  1.6675 -0.5342
45807SOL    HW244472   3.287   0.178   0.967  0.4483  1.4094  2.0439
45808SOL     OW44473   2.632   8.296   4.431  0.3450 -0.9845  0.5853
45808SOL    HW144474   2.553   8.315   4.381 -0.4655 -0.2400  2.0816
45808SOL    HW244475   2.683   8.237   4.375  0.2578  1.0752 -1.7845
45809SOL     OW44476  12.473   8.325   4.920 -0.3115 -0.7058  0.2386
45809SOL    HW144477  12.491   8.402   4.865 -1.0949 -1.0399 -0.5002
45809SOL    HW244478  12.408   8.356   4.984 -0.2801 -0.6289  0.2325
45810SOL     OW44479   6.563   0.604   0.513  0.1236 -0.3277 -0.2258
45810SOL    HW144480   6.491   0.614   0.450  0.2799  0.0249 -0.3514
45810SOL    HW244481   6.523   0.558   0.587  0.0601 -1.1826 -0.7784
45811SOL     OW44482   0.080   5.144   4.739  0.1480  0.3777 -0.0973
45811SOL    HW144483   0.141   5.156   4.811 -0.6658  0.4957  0.5904
45811SOL    HW244484   0.122   5.079   4.682  0.8826  0.4266  0.3793
45812SOL     OW44485   8.755   6.099   6.719 -0.0278  0.2945 -0.3803
45812SOL    HW144486   8.696   6.130   6.789  0.4239 -0.4692  0.3523
45812SOL    HW244487   8.785   6.014   6.749  0.1942 -0.0418 -1.5157
45813SOL     OW44488   2.116   2.572   2.964 -0.7712  0.7095 -0.1058
45813SOL    HW144489   2.037   2.537   2.921 -0.7576 -1.2009  1.2778
45813SOL    HW244490   2.097   2.567   3.057  0.8954  0.4175  0.2564
45814SOL     OW44491   2.911  10.137   5.404 -0.8623  0.0709 -0.1279
45814SOL    HW144492   2.948  10.224   5.418  0.0902 -0.2009 -0.8702
45814SOL    HW244493   2.945  10.110   5.319  0.2838 -1.7423  0.8651
45815SOL     OW44494   9.431  11.196  11.038  0.4513  0.0132  0.2110
45815SOL    HW144495   9.452  11.138  10.965  1.8701  1.4774 -0.5812
45815SOL    HW244496   9.514  11.209  11.083 -0.2367 -0.1351  1.5888
45816SOL     OW44497  10.493   0.479   7.710 -0.0104 -0.6395  0.4526
45816SOL    HW144498  10.410   0.434   7.699 -0.4030  0.0931  0.3743
45816SOL    HW244499  10.558   0.419   7.672 -0.6861 -0.5761 -0.8807
45817SOL     OW44500   5.874   9.341   3.856  0.3823 -0.3253  0.1295
45817SOL    HW144501   5.868   9.311   3.765  0.7929 -0.3692  0.1159
45817SOL    HW244502   5.817   9.282   3.904  0.8532 -0.8679  0.0346
45818SOL     OW44503   7.301   7.962   9.283 -0.2506  0.1797  0.8034
45818SOL    HW144504   7.314   7.952   9.189 -1.7348 -3.2606  0.8022
45818SOL    HW244505   7.366   7.903   9.322 -1.7067 -0.8817  1.7118
45819SOL     OW44506   1.031   1.815   6.603  0.0654  0.3518  0.4143
45819SOL    HW144507   1.123   1.790   6.590 -0.0817  0.0499 -0.0905
45819SOL    HW244508   1.011   1.872   6.529 -0.4448 -0.4064 -0.0438
45820SOL     OW44509   6.963   5.097  12.120  0.4285 -0.3919 -0.1362
45820SOL    HW144510   6.933   5.147  12.044 -0.1921 -0.0420  0.3226
45820SOL    HW244511   6.996   5.163  12.181  1.4404 -0.7150 -0.3158
45821SOL     OW44512   2.619  11.493  11.836  0.2305  0.5147  0.3169
45821SOL    HW144513   2.631  11.508  11.930  1.3971  1.6009  0.0332
45821SOL    HW244514   2.638  11.578  11.796 -0.0420  0.0148 -0.9162
45822SOL     OW44515   2.307   5.620   8.719 -0.4126  0.1645 -0.0998
45822SOL    HW144516   2.214   5.636   8.733 -0.2898 -1.0296  2.7151
45822SOL    HW244517   2.349   5.704   8.733 -0.9774  0.4876 -0.3213
45823SOL     OW44518  11.705   6.548   0.109  0.7720  0.2993 -0.6128
45823SOL    HW144519  11.649   6.547   0.186  0.5115 -1.4169 -0.7897
45823SOL    HW244520  11.794   6.547   0.144  0.7215 -3.3560 -0.1813
45824SOL     OW44521   1.790   7.154   4.006  0.2711  0.0066 -0.0308
45824SOL    HW144522   1.824   7.118   3.924 -1.7738 -1.6215 -0.2442
45824SOL    HW244523   1.695   7.141   4.001 -0.0520  1.0688  2.0429
45825SOL     OW44524  12.368   5.563   3.950 -0.1981  0.1423 -0.3986
45825SOL    HW144525  12.304   5.577   3.880 -1.2328  1.2296  0.6985
45825SOL    HW244526  12.373   5.468   3.960 -1.7717  0.0350 -0.4057
45826SOL     OW44527   0.194   1.740   0.642 -0.1548 -0.2903 -0.1818
45826SOL    HW144528   0.112   1.727   0.594  0.3443  2.0126 -1.8221
45826SOL    HW244529   0.257   1.685   0.596 -0.7466 -2.2156  1.2000
45827SOL     OW44530   3.360   1.989   9.021  0.0688 -0.2917 -0.0288
45827SOL    HW144531   3.310   2.070   9.024  3.1892  1.8012 -0.7858
45827SOL    HW244532   3.376   1.968   9.113 -0.5323  0.0480  0.1626
45828SOL     OW44533   3.971   5.778   9.024  0.4938  0.1778 -0.0842
45828SOL    HW144534   3.929   5.838   8.961  1.0664 -0.2816 -0.9232
45828SOL    HW244535   3.981   5.696   8.976 -0.6028 -0.7335  1.1706
45829SOL     OW44536   6.161   2.701   4.456  0.7566 -0.1734  0.4967
45829SOL    HW144537   6.092   2.767   4.442 -1.4841 -2.6639 -1.1943
45829SOL    HW244538   6.231   2.726   4.396  1.2028  2.0907  1.8341
45830SOL     OW44539   4.272  10.751   3.007 -0.1158  0.3410 -0.0117
45830SOL    HW144540   4.195  10.699   2.982  0.5573 -2.5608  3.1909
45830SOL    HW244541   4.287  10.809   2.932 -3.6204 -1.0122 -2.0032
45831SOL     OW44542   3.314   9.671   9.848 -0.1234 -0.3449 -0.4651
45831SOL    HW144543   3.274   9.753   9.817 -1.9471  0.0104  2.4218
45831SOL    HW244544   3.240   9.617   9.874  1.1456 -1.5523  0.7982
45832SOL     OW44545   4.672   3.931   5.052 -0.3996 -0.0791  0.4985
45832SOL    HW144546   4.671   3.959   5.144  1.1063  0.4012  0.4037
45832SOL    HW244547   4.614   3.855   5.050  1.4105 -1.6306  2.3899
45833SOL     OW44548   5.022  11.361   7.775  0.6378  0.1510 -0.3463
45833SOL    HW144549   5.004  11.443   7.729 -1.6338 -0.4014 -0.5112
45833SOL    HW244550   4.965  11.296   7.734  1.7911 -1.3665  0.3312
45834SOL     OW44551   0.458  11.820   5.078  0.2284 -0.4372 -0.0760
45834SOL    HW144552   0.505  11.848   5.156 -2.3095 -1.2180  1.8660
45834SOL    HW244553   0.501  11.739   5.051  0.1427 -1.0401  1.5272
45835SOL     OW44554  11.569   2.268   0.050  0.2493  0.2715 -0.1198
45835SOL    HW144555  11.550   2.249   0.142 -0.2286  0.0378 -0.2622
45835SOL    HW244556  11.547   2.187   0.003  1.3783  0.0749 -0.3333
45836SOL     OW44557   8.636   5.739   6.267  0.4626  0.6484 -0.0793
45836SOL    HW144558   8.553   5.758   6.311  0.7980  2.2093 -0.0396
45836SOL    HW244559   8.697   5.719   6.338 -0.2335 -2.3022 -0.1938
45837SOL     OW44560  11.820   9.283   5.030  0.1628 -0.7611 -0.1066
45837SOL    HW144561  11.822   9.374   5.061 -1.2442 -1.0212  0.8152
45837SOL    HW244562  11.728   9.257   5.036  0.6209 -2.4496  0.2524
45838SOL     OW44563  12.275   7.104  12.257 -0.3708  0.1999 -0.8905
45838SOL    HW144564  12.191   7.079  12.295  0.0175  0.6600  0.3149
45838SOL    HW244565  12.301   7.028  12.205 -0.7355 -0.6293  0.0925
45839SOL     OW44566   0.792  12.558  11.117 -0.3352 -0.0499  0.1941
45839SOL    HW144567   0.807  12.532  11.208 -2.1230 -1.9167  0.0444
45839SOL    HW244568   0.877  12.548  11.075  0.4040  0.3258  1.5223
45840SOL     OW44569   8.648  11.955   2.779  0.6978 -0.4608  0.0203
45840SOL    HW144570   8.574  12.007   2.812  2.2963  0.5174  2.3629
45840SOL    HW244571   8.621  11.864   2.793 -0.9468 -0.2218 -1.3380
45841SOL     OW44572   2.901   8.637   1.168  0.0367 -0.5702  0.3512
45841SOL    HW144573   2.952   8.618   1.246 -1.0504 -1.2369  0.9209
45841SOL    HW244574   2.929   8.725   1.142 -0.1326 -0.0067  1.9511
45842SOL     OW44575  10.026   6.662   3.394 -0.1568 -0.4774 -0.4849
45842SOL    HW144576  10.054   6.687   3.306  0.5554  1.1640  0.1777
45842SOL    HW244577  10.092   6.597   3.421 -0.0823 -0.6066 -0.9557
45843SOL     OW44578   4.651   3.215  12.176  0.2539  0.2615 -0.0778
45843SOL    HW144579   4.587   3.164  12.226 -0.3096 -0.0589 -1.1076
45843SOL    HW244580   4.666   3.294  12.229  1.2427 -0.9984  1.5998
45844SOL     OW44581   7.060  10.566   3.462  0.1537 -0.0384  0.0220
45844SOL    HW144582   7.076  10.656   3.493  1.1135  0.2036 -1.1016
45844SOL    HW244583   6.984  10.537   3.513 -0.8601  1.7951 -0.3323
45845SOL     OW44584   2.674  10.328   1.946  0.2142  0.9434 -0.6998
45845SOL    HW144585   2.698  10.236   1.961  1.2644  1.0883 -1.3983
45845SOL    HW244586   2.713  10.375   2.020 -0.8388  0.7643 -0.0168
45846SOL     OW44587  12.189  12.001  11.530 -0.6274 -0.1328 -0.3459
45846SOL    HW144588  12.100  11.980  11.559 -0.3481 -0.6351  0.1706
45846SOL    HW244589  12.186  11.991  11.435 -0.6272 -2.1711 -0.1723
45847SOL     OW44590   8.577   2.902   0.174 -0.0924  0.3897  0.6729
45847SOL    HW144591   8.605   2.963   0.243  1.9027 -0.2299  0.4934
45847SOL    HW244592   8.561   2.958   0.098 -0.3505  0.8925  1.0884
45848SOL     OW44593   8.450  11.862  10.752 -0.0688 -0.1271 -0.8106
45848SOL    HW144594   8.380  11.926  10.768 -1.5281 -2.2525  2.1250
45848SOL    HW244595   8.531  11.909  10.771 -1.0615  1.0016  0.8363
45849SOL     OW44596   4.129   4.067  11.426 -0.5199  0.4863 -0.6302
45849SOL    HW144597   4.052   4.099  11.378 -1.5282  0.6560  1.0235
45849SOL    HW244598   4.100   3.984  11.464 -0.4791  1.3562  1.3988
45850SOL     OW44599   1.755   5.709  10.871 -0.4599 -0.1683 -0.4096
45850SOL    HW144600   1.700   5.759  10.931  2.2673  2.2284  0.3145
45850SOL    HW244601   1.697   5.687  10.798 -3.0789 -0.4609  1.6204
45851SOL     OW44602   2.975   8.292  10.867  0.2375  0.5971 -0.5423
45851SOL    HW144603   3.033   8.365  10.844 -0.3893  1.5322  0.7493
45851SOL    HW244604   2.896   8.334  10.901  0.3507 -0.6838  1.4356
45852SOL     OW44605   1.981   0.226   0.698  0.4537  0.1110  0.5428
45852SOL    HW144606   2.071   0.193   0.704  0.3930 -0.2886 -0.4905
45852SOL    HW244607   1.962   0.226   0.604 -2.0599 -3.7361  0.8568
45853SOL     OW44608   2.047   2.372   2.224 -0.2097 -0.3481  0.1037
45853SOL    HW144609   2.025   2.286   2.190  0.4596 -0.5342  0.1359
45853SOL    HW244610   2.137   2.389   2.195 -0.5836  0.6562 -0.5279
45854SOL     OW44611  12.440   9.286   4.326  0.2015 -0.7591 -0.0627
45854SOL    HW144612  12.379   9.303   4.398 -0.3322  0.1352 -0.7100
45854SOL    HW244613  12.438   9.365   4.273  1.7710 -0.8088 -0.2323
45855SOL     OW44614   6.897   0.727   9.800 -0.3678  0.6596 -0.0243
45855SOL    HW144615   6.814   0.683   9.782  0.2735 -0.3302 -0.6490
45855SOL    HW244616   6.917   0.775   9.720 -0.0609  0.4335 -0.0858
45856SOL     OW44617   3.748   8.768   2.211 -0.3481 -0.4716 -0.0043
45856SOL    HW144618   3.826   8.741   2.162  1.6759  3.1969  0.8163
45856SOL    HW244619   3.770   8.750   2.303 -0.0580  1.1829  0.2954
45857SOL     OW44620  10.775   6.233  10.854 -0.0484 -0.2711  0.3822
45857SOL    HW144621  10.817   6.268  10.775 -0.6433  1.0620  0.6356
45857SOL    HW244622  10.694   6.192  10.823 -1.0162  1.5141  0.4082
45858SOL     OW44623   9.214   1.847   6.255 -0.1484  0.0321 -0.2181
45858SOL    HW144624   9.302   1.886   6.262 -0.1785  0.2805 -1.1922
45858SOL    HW244625   9.162   1.896   6.318 -0.3591  2.1026 -1.8956
45859SOL     OW44626   0.537   0.879  11.805 -0.1373  0.5847 -0.7288
45859SOL    HW144627   0.458   0.825  11.819  0.7921 -0.7622 -0.4560
45859SOL    HW244628   0.532   0.904  11.712 -0.1085 -0.8285 -1.1439
45860SOL     OW44629   8.938   5.233   3.864  0.0071 -0.0187  0.3713
45860SOL    HW144630   8.898   5.260   3.947 -6.1977 -1.9394 -1.4263
45860SOL    HW244631   8.939   5.313   3.811 -1.9590  0.1218  0.4641
45861SOL     OW44632  11.366   9.545   3.292  0.0768 -0.2228 -0.1787
45861SOL    HW144633  11.334   9.567   3.204 -1.2956 -0.1150  0.3248
45861SOL    HW244634  11.290   9.557   3.349  1.2770  1.0468  1.2597
45862SOL     OW44635   3.365   3.034  10.984 -0.5178  0.0192 -0.0313
45862SOL    HW144636   3.312   2.965  10.944  0.0268 -0.2404 -0.3173
45862SOL    HW244637   3.302   3.089  11.031 -1.1637  0.3005 -1.1956
45863SOL     OW44638  10.491   2.730   0.180  0.4279 -0.6389 -0.4549
45863SOL    HW144639  10.469   2.804   0.235 -2.4659  0.0597 -2.3351
45863SOL    HW244640  10.461   2.653   0.229  2.1629 -0.5235  0.8813
45864SOL     OW44641   0.793  10.268   8.349 -0.0102  0.4746 -0.4965
45864SOL    HW144642   0.881  10.237   8.372 -0.5866 -0.9805 -0.1770
45864SOL    HW244643   0.805  10.362   8.333  1.0892  0.9283  2.3867
45865SOL     OW44644   9.031   9.591   9.700  0.0075  0.3166 -0.3753
45865SOL    HW144645   8.964   9.525   9.685  1.5629 -1.5700  0.5139
45865SOL    HW244646   8.986   9.661   9.747 -0.9605 -1.8180  2.1215
45866SOL     OW44647  11.066   7.234  11.055  0.1060  0.3183 -0.3602
45866SOL    HW144648  11.047   7.308  10.998 -0.3643  0.0691 -0.5321
45866SOL    HW244649  11.053   7.267  11.144 -0.1631  0.4244 -0.4391
45867SOL     OW44650   9.667  10.381   9.897  0.0005  0.0816 -0.2706
45867SOL    HW144651   9.592  10.385   9.955 -0.6513 -1.6841 -0.9152
45867SOL    HW244652   9.630  10.361   9.811  1.0592  1.1867 -1.0125
45868SOL     OW44653   8.771   3.638   7.028  0.6549 -0.1347  0.3129
45868SOL    HW144654   8.771   3.623   7.123  0.5241 -0.2415  0.2968
45868SOL    HW244655   8.826   3.714   7.016 -0.6130  0.8708  0.6415
45869SOL     OW44656   8.132   0.876  10.651 -0.1173  0.4066  0.7660
45869SOL    HW144657   8.186   0.831  10.587 -2.4620 -0.5315 -0.6705
45869SOL    HW244658   8.051   0.826  10.653 -1.4394  2.4711  1.8766
45870SOL     OW44659   6.473   7.822   9.583  0.7228  0.2021  0.1720
45870SOL    HW144660   6.456   7.912   9.556  1.0145 -0.0004 -0.7080
45870SOL    HW244661   6.445   7.769   9.509 -2.1075 -0.6580  1.7435
45871SOL     OW44662  11.495   8.607   8.752 -0.4804  0.6027 -0.0155
45871SOL    HW144663  11.550   8.544   8.799  0.9648  0.8699 -1.2842
45871SOL    HW244664  11.410   8.601   8.796  0.3076 -0.4282  1.4707
45872SOL     OW44665  10.021   6.153  10.111  1.4393 -0.5363  0.0861
45872SOL    HW144666   9.951   6.104  10.153  1.3284  0.1252  0.6967
45872SOL    HW244667  10.044   6.101  10.034 -0.3949 -0.2786 -0.7002
45873SOL     OW44668   0.586   4.104   4.324 -0.4163  0.5511  0.0941
45873SOL    HW144669   0.645   4.179   4.316 -1.7650  2.0378  2.8353
45873SOL    HW244670   0.501   4.142   4.346 -1.2572 -1.7493  1.2018
45874SOL     OW44671  10.091   3.584   9.574 -0.3021  0.0169  0.0058
45874SOL    HW144672  10.173   3.573   9.622 -0.3474  0.3684  0.1648
45874SOL    HW244673  10.107   3.540   9.490  0.4645  1.1043 -0.4322
45875SOL     OW44674  11.488   6.494   9.305  0.0377  0.3267 -0.9123
45875SOL    HW144675  11.459   6.579   9.338 -1.5103  0.6256 -2.9194
45875SOL    HW244676  11.583   6.497   9.313 -0.1032  1.3462  1.0818
45876SOL     OW44677   7.788  10.329   1.118  0.5773 -0.3226  0.3827
45876SOL    HW144678   7.736  10.296   1.045  0.6793  0.5456 -0.0866
45876SOL    HW244679   7.845  10.396   1.080 -0.1977  0.9983  1.4429
45877SOL     OW44680   4.128   5.102   3.220  0.4796  0.1314  0.1038
45877SOL    HW144681   4.095   5.178   3.268  0.7309  1.1709 -1.3379
45877SOL    HW244682   4.048   5.055   3.194  0.1404  1.5016 -1.5248
45878SOL     OW44683  10.889  11.525   5.972 -0.4709  0.8529  0.6969
45878SOL    HW144684  10.854  11.576   5.898  1.2051  0.6447 -0.2815
45878SOL    HW244685  10.981  11.511   5.950 -0.3559 -0.7144  2.0047
45879SOL     OW44686   2.993   9.555   0.907  0.0468 -0.2725  0.2337
45879SOL    HW144687   3.035   9.562   0.821 -0.3595  1.0490  0.1142
45879SOL    HW244688   2.914   9.504   0.892 -1.0081  1.5140 -0.6004
45880SOL     OW44689   6.410  11.529   8.235  0.0995 -0.0272  0.4192
45880SOL    HW144690   6.495  11.528   8.191  0.9351 -1.6641  1.9266
45880SOL    HW244691   6.351  11.571   8.172  2.5534  4.1401  0.4866
45881SOL     OW44692   9.442  12.574  10.890  0.1300  0.5286  0.4577
45881SOL    HW144693   9.395  12.507  10.939  0.3541 -0.8334 -1.0795
45881SOL    HW244694   9.534  12.545  10.892 -0.0899 -0.8078 -2.4154
45882SOL     OW44695  10.068  10.565   1.556 -0.1061 -0.2113 -0.1045
45882SOL    HW144696   9.982  10.604   1.573  0.2704  0.7054 -0.2289
45882SOL    HW244697  10.096  10.531   1.640 -0.6449 -0.6386 -0.0907
45883SOL     OW44698   0.321   8.063  12.593 -0.1605 -0.0661 -0.3624
45883SOL    HW144699   0.288   7.975  12.606  0.1760 -0.5602 -2.3984
45883SOL    HW244700   0.266   8.119  12.648 -0.2929 -1.5343  1.0494
45884SOL     OW44701   8.631   7.148   2.069 -0.5092  0.1803  0.1644
45884SOL    HW144702   8.704   7.094   2.038  1.6536  2.3212  1.2302
45884SOL    HW244703   8.601   7.193   1.990  0.5521  0.6423  0.0078
45885SOL     OW44704   0.871   3.454   1.674  0.6147 -0.1809  0.6616
45885SOL    HW144705   0.866   3.379   1.615 -1.8708  1.2339 -1.1213
45885SOL    HW244706   0.790   3.448   1.726  0.8539  0.7547  1.1622
45886SOL     OW44707  11.374   0.436   0.124  0.0920 -0.2637  0.0370
45886SOL    HW144708  11.399   0.525   0.100  0.9357  0.6150  3.5918
45886SOL    HW244709  11.280   0.442   0.143  0.0541 -0.2273 -0.1644
45887SOL     OW44710   3.110   4.167   8.285 -0.4109 -0.2085 -0.0746
45887SOL    HW144711   3.126   4.205   8.372  0.9753  0.5113 -0.6129
45887SOL    HW244712   3.143   4.078   8.292 -0.4471 -0.2053  0.1690
45888SOL     OW44713   0.499   6.295   1.982  0.3040  0.2528  0.5965
45888SOL    HW144714   0.464   6.278   1.894  0.8018  2.0388  0.0119
45888SOL    HW244715   0.594   6.286   1.972  0.2893 -1.1037  1.3618
45889SOL     OW44716  11.360   1.007   8.532 -0.0415 -0.1949  0.0079
45889SOL    HW144717  11.400   0.929   8.494 -1.8550 -1.0558 -0.2592
45889SOL    HW244718  11.414   1.079   8.502  1.7848 -1.3489  0.3849
45890SOL     OW44719   4.402   1.377   1.965 -0.4662  0.8521  0.3840
45890SOL    HW144720   4.451   1.379   1.883  0.4720  0.7455  0.9276
45890SOL    HW244721   4.320   1.334   1.943 -0.2890  0.9626 -0.5315
45891SOL     OW44722   6.346  12.525  10.814 -0.5596  0.2423  0.2613
45891SOL    HW144723   6.360  12.519  10.719 -1.9320 -0.4735  0.0898
45891SOL    HW244724   6.396  12.603  10.840  1.1571 -0.4540 -0.7661
45892SOL     OW44725   9.334   8.581   3.598 -0.0352  0.2401 -0.2999
45892SOL    HW144726   9.361   8.593   3.689 -0.5971 -0.8784  0.0391
45892SOL    HW244727   9.371   8.496   3.574 -0.0453  0.4467 -1.0632
45893SOL     OW44728  11.497   4.823   4.444  0.1521 -0.0775  0.0313
45893SOL    HW144729  11.584   4.849   4.414 -0.0644  1.0451  0.3081
45893SOL    HW244730  11.511   4.743   4.493  1.2138  0.7214  1.0755
45894SOL     OW44731  11.303   3.524   3.864  0.5597  0.3664 -0.6903
45894SOL    HW144732  11.332   3.533   3.773 -1.0024  0.5357 -1.2030
45894SOL    HW244733  11.241   3.451   3.863  0.7072  0.2071  0.2930
45895SOL     OW44734   1.732   4.424   0.626 -0.3809  0.1239  0.6964
45895SOL    HW144735   1.729   4.398   0.533  0.7557  0.1101  0.6476
45895SOL    HW244736   1.685   4.354   0.672  0.6761 -0.8648  0.3200
45896SOL     OW44737   4.129   4.556   2.722 -0.8255  0.4569 -0.2373
45896SOL    HW144738   4.083   4.480   2.685 -0.5905  0.2229 -0.0521
45896SOL    HW244739   4.071   4.588   2.791  0.1769 -1.0668  1.3901
45897SOL     OW44740  10.068   4.748   8.406 -0.0913 -0.4004  0.3145
45897SOL    HW144741  10.064   4.808   8.479  0.8235 -1.5615  1.3575
45897SOL    HW244742  10.158   4.752   8.375  0.0101 -1.2894  0.4632
45898SOL     OW44743   5.938   7.898   8.607 -0.5202 -0.0204  0.2899
45898SOL    HW144744   5.925   7.959   8.534  1.5871 -1.3140 -1.2978
45898SOL    HW244745   5.978   7.951   8.676  1.3879  0.4754 -1.0988
45899SOL     OW44746   2.125   6.448   7.303  0.4246 -0.0728 -0.1969
45899SOL    HW144747   2.080   6.388   7.243  2.6702 -0.6637 -1.4091
45899SOL    HW244748   2.211   6.463   7.262  1.6610  0.3443  2.3325
45900SOL     OW44749   3.085  10.062   2.918 -0.0101  0.7264  0.1174
45900SOL    HW144750   3.149  10.022   2.977 -0.7171 -0.8988 -0.1413
45900SOL    HW244751   3.134  10.078   2.837  0.6586  1.8388  0.7222
45901SOL     OW44752   6.513   3.894  11.641 -0.3604 -0.2629 -0.1609
45901SOL    HW144753   6.451   3.822  11.654 -0.0841 -0.2100  1.6010
45901SOL    HW244754   6.458   3.971  11.624 -0.7404 -0.4254  0.3310
45902SOL     OW44755   0.448   3.050   7.207  0.6122  0.2346 -0.6269
45902SOL    HW144756   0.516   2.983   7.207  0.1186 -0.3046  0.3794
45902SOL    HW244757   0.495   3.133   7.215  1.1634 -0.1290  0.0515
45903SOL     OW44758   1.546  12.378   4.471 -0.3225  0.6148  0.7958
45903SOL    HW144759   1.531  12.471   4.453 -1.3534  0.2650 -0.3158
45903SOL    HW244760   1.491  12.333   4.407  0.8878 -0.7646  0.6933
45904SOL     OW44761   2.967   9.233   5.370 -0.2667  0.4483 -0.1942
45904SOL    HW144762   2.919   9.188   5.439  0.0040 -1.1991 -1.0437
45904SOL    HW244763   2.901   9.246   5.301  0.4189 -1.9114 -1.4070
45905SOL     OW44764   7.458   1.135  12.501 -0.0259  0.5839  0.5006
45905SOL    HW144765   7.511   1.143  12.422 -1.0959  0.9007 -0.2035
45905SOL    HW244766   7.463   1.042  12.524 -2.5771 -0.3509 -2.0581
45906SOL     OW44767   2.289   8.701   3.605 -0.1875  0.0172 -0.0323
45906SOL    HW144768   2.358   8.635   3.603 -0.1202  0.1012 -2.0031
45906SOL    HW244769   2.335   8.784   3.615 -0.1140 -0.0360  0.0698
45907SOL     OW44770   1.900   0.061  10.320 -0.0299  0.1799 -0.4212
45907SOL    HW144771   1.962   0.037  10.389  0.1646  1.1655 -0.2367
45907SOL    HW244772   1.948   0.124  10.266 -0.3803 -0.1469 -1.1239
45908SOL     OW44773   9.496  11.781   1.263  0.9497 -0.1640  0.0986
45908SOL    HW144774   9.573  11.822   1.223  1.4048 -0.0886  1.0341
45908SOL    HW244775   9.509  11.792   1.357 -0.2390 -0.0926  0.2701
45909SOL     OW44776   6.575   6.758   3.342 -0.0650 -0.1698 -0.4755
45909SOL    HW144777   6.543   6.693   3.404  0.6776 -0.5957 -0.5257
45909SOL    HW244778   6.662   6.781   3.374 -0.1611  0.5160 -0.6786
45910SOL     OW44779   4.667   5.664   3.451  0.3740 -0.3552 -0.3666
45910SOL    HW144780   4.614   5.604   3.397  0.4358  1.2888 -2.3921
45910SOL    HW244781   4.694   5.733   3.390  2.5777  0.3180  1.2410
45911SOL     OW44782   8.332   4.039   7.862 -0.2255 -0.2501  0.9618
45911SOL    HW144783   8.417   4.014   7.897 -0.3836 -0.9566  0.8506
45911SOL    HW244784   8.268   4.008   7.927 -0.3760  0.7729  1.3212
45912SOL     OW44785   3.220   4.752   2.903 -0.1873  0.2984  0.0230
45912SOL    HW144786   3.275   4.810   2.955 -0.2964  1.0050 -0.6386
45912SOL    HW244787   3.169   4.810   2.846 -0.8314 -0.4021 -0.1384
45913SOL     OW44788  12.281   7.088  10.847  0.5684  0.1900 -0.1389
45913SOL    HW144789  12.212   7.114  10.908  0.4396 -0.7489  0.1220
45913SOL    HW244790  12.258   7.132  10.765  0.2661  0.7559  0.2447
45914SOL     OW44791   6.187   7.050   5.286 -0.1167  0.2389  0.0206
45914SOL    HW144792   6.092   7.062   5.275 -0.2365 -1.0408 -0.4839
45914SOL    HW244793   6.226   7.116   5.228 -0.6752  1.0829  0.5780
45915SOL     OW44794   1.709   8.837   7.561 -0.5584 -0.3587  0.1717
45915SOL    HW144795   1.732   8.790   7.481 -1.1912 -0.1079 -0.1713
45915SOL    HW244796   1.786   8.890   7.581 -0.4032 -0.4023 -0.2931
45916SOL     OW44797   7.791   6.922  11.998 -0.1358  0.0045 -0.4141
45916SOL    HW144798   7.871   6.937  12.048 -1.4474  0.0601  1.8070
45916SOL    HW244799   7.733   6.994  12.023 -1.9139 -1.6167  0.4160
45917SOL     OW44800   8.441  10.882  10.441  0.3715  0.6911  0.7266
45917SOL    HW144801   8.397  10.919  10.518 -0.8237  0.9713 -0.0595
45917SOL    HW244802   8.373  10.881  10.373  0.8164 -1.4681  0.2415
45918SOL     OW44803   2.755   0.659   8.708  0.0826 -0.3797 -1.1766
45918SOL    HW144804   2.742   0.610   8.627 -1.1749  1.2290 -2.0147
45918SOL    HW244805   2.712   0.606   8.775 -0.2539 -0.9810 -1.8502
45919SOL     OW44806   3.652  10.691   5.230  0.2991 -0.1481 -0.2563
45919SOL    HW144807   3.607  10.725   5.153 -1.2186  3.3067  1.8887
45919SOL    HW244808   3.584  10.647   5.281  0.9063 -0.9292 -0.1020
45920SOL     OW44809   0.218  10.575   2.166 -0.5537  0.3349 -0.1188
45920SOL    HW144810   0.147  10.520   2.200  0.3640 -1.4419 -0.9323
45920SOL    HW244811   0.174  10.636   2.107 -1.4801 -0.3789 -0.1975
45921SOL     OW44812   8.663   1.372  10.442 -0.0891  0.7519 -0.7175
45921SOL    HW144813   8.595   1.363  10.509  1.3642 -0.7708  0.6319
45921SOL    HW244814   8.614   1.379  10.360 -1.8776 -0.2757  0.2001
45922SOL     OW44815   3.216   1.158   7.089 -0.4242 -0.1530  0.0763
45922SOL    HW144816   3.121   1.171   7.092 -0.5873 -1.1749 -0.0248
45922SOL    HW244817   3.250   1.239   7.051 -1.1253  0.7279  1.2598
45923SOL     OW44818  11.169   6.598   5.342 -0.0365 -0.2000  0.7347
45923SOL    HW144819  11.162   6.678   5.291 -2.7185 -1.3604 -0.8987
45923SOL    HW244820  11.207   6.626   5.425  1.0202  2.3730 -0.5192
45924SOL     OW44821   0.731  11.318   2.566 -0.5137 -0.0665 -0.6803
45924SOL    HW144822   0.750  11.394   2.621 -1.6278  0.0942 -0.5023
45924SOL    HW244823   0.814  11.299   2.522  0.5172 -0.4186  1.3049
45925SOL     OW44824   1.126  11.605   7.694 -0.1385  0.2685  0.6502
45925SOL    HW144825   1.083  11.688   7.677  0.5640  1.2369  3.2497
45925SOL    HW244826   1.083  11.570   7.772  0.4855 -1.1682  0.3927
45926SOL     OW44827   3.246  12.521   8.829 -0.5270  0.2204 -0.1895
45926SOL    HW144828   3.214  12.533   8.740  0.5106 -1.9928 -0.9511
45926SOL    HW244829   3.337  12.494   8.818 -0.0240  1.0341  1.6246
45927SOL     OW44830   4.129   8.612  10.612 -0.2624 -0.0058 -0.1292
45927SOL    HW144831   4.081   8.573  10.538 -1.3807 -1.2618  1.1924
45927SOL    HW244832   4.064   8.667  10.656  0.4332  0.8368 -0.1292
45928SOL     OW44833   4.778   6.924   1.442 -0.5240  0.7072 -0.7654
45928SOL    HW144834   4.857   6.966   1.407  3.1057 -3.7307  1.0744
45928SOL    HW244835   4.738   6.883   1.365  2.4923 -1.8198 -1.1870
45929SOL     OW44836   4.942   5.848   0.487  0.2011 -0.2698  0.0925
45929SOL    HW144837   4.847   5.850   0.474  0.1666  0.8561  0.3756
45929SOL    HW244838   4.954   5.868   0.580  0.7481  1.9433 -0.3798
45930SOL     OW44839   8.982   8.431  10.023  0.5624  0.0096 -0.4249
45930SOL    HW144840   9.018   8.490  10.089  1.3278 -1.3249  0.4024
45930SOL    HW244841   8.993   8.477   9.940  0.2436  1.4171  0.2849
45931SOL     OW44842   1.715   9.978  10.798 -0.1579  0.3491  0.4649
45931SOL    HW144843   1.751  10.059  10.835  1.2982 -0.2724  0.4726
45931SOL    HW244844   1.716   9.993  10.703 -0.4432  0.5565  0.4933
45932SOL     OW44845   8.626  12.036   7.927  0.4833 -0.3301 -0.1855
45932SOL    HW144846   8.671  12.118   7.906 -0.3112 -0.0334 -0.7437
45932SOL    HW244847   8.538  12.063   7.952  0.7589 -0.8526  1.5019
45933SOL     OW44848   6.904   8.866   7.437 -0.2957 -0.1890 -0.4099
45933SOL    HW144849   6.933   8.906   7.355 -0.2071 -2.3847 -1.5106
45933SOL    HW244850   6.985   8.836   7.479 -0.4092  0.1684  0.0724
45934SOL     OW44851   2.819   1.920  10.251  0.5986  0.7318  0.0505
45934SOL    HW144852   2.914   1.904  10.246  0.4736 -0.1248  0.2535
45934SOL    HW244853   2.788   1.858  10.318 -0.7675 -2.2145 -3.0474
45935SOL     OW44854   2.860   3.544   8.408  0.5099  0.6995 -0.9695
45935SOL    HW144855   2.925   3.518   8.343  0.7372  2.1737 -1.3625
45935SOL    HW244856   2.784   3.573   8.357 -1.0105 -2.1230 -0.5264
45936SOL     OW44857   3.502   4.652   5.360 -0.1879  0.1224  0.0148
45936SOL    HW144858   3.555   4.573   5.346  0.7348  1.0128 -1.8934
45936SOL    HW244859   3.424   4.620   5.406 -0.1131 -2.0091 -1.1918
45937SOL     OW44860  11.339   2.819   5.998  0.4907 -0.4298  0.4891
45937SOL    HW144861  11.316   2.874   6.073 -1.3459 -0.6107  0.1137
45937SOL    HW244862  11.315   2.731   6.024 -0.9089 -0.3955 -0.5533
45938SOL     OW44863   9.490  11.881   0.290 -0.1482  0.3517  0.7963
45938SOL    HW144864   9.472  11.829   0.212 -0.2325  1.9800 -0.3330
45938SOL    HW244865   9.403  11.905   0.322 -0.1022  0.8026  0.5895
45939SOL     OW44866  11.004   3.328  11.339  0.2215 -0.3074  0.0524
45939SOL    HW144867  11.035   3.325  11.429 -1.0522  3.1088  0.7398
45939SOL    HW244868  10.910   3.343  11.346  0.0754 -0.0783 -1.8657
45940SOL     OW44869   4.775   8.753   4.586  0.2663 -0.3881  0.0241
45940SOL    HW144870   4.714   8.680   4.600 -1.8234  1.2087 -0.1042
45940SOL    HW244871   4.821   8.762   4.670 -0.6886 -0.8117  0.6175
45941SOL     OW44872   1.006   1.909   3.207  0.4368  0.1515 -0.1773
45941SOL    HW144873   1.086   1.903   3.260  0.0930 -0.2212  0.3125
45941SOL    HW244874   0.936   1.916   3.272  0.1635  1.8354 -0.6107
45942SOL     OW44875   7.616   0.204   4.284  0.2332 -0.7397  0.1905
45942SOL    HW144876   7.554   0.151   4.233  0.6240 -1.0931  0.0810
45942SOL    HW244877   7.629   0.283   4.232  0.6507 -1.1114 -0.2762
45943SOL     OW44878   8.237  12.528   6.148  0.2435 -0.2409  0.0725
45943SOL    HW144879   8.319  12.572   6.126  0.3445 -1.8089 -3.2050
45943SOL    HW244880   8.263  12.447   6.191  0.5287 -1.0463 -1.5432
45944SOL     OW44881   7.151  12.318   5.875 -0.2875 -0.5286 -0.2568
45944SOL    HW144882   7.059  12.296   5.891  0.2028 -1.0164  2.2415
45944SOL    HW244883   7.174  12.378   5.946  1.1515  0.1737 -1.2781
45945SOL     OW44884  10.478  11.099   4.424  0.3376 -0.0495  0.1228
45945SOL    HW144885  10.501  11.187   4.455 -0.5029 -0.7651  3.1853
45945SOL    HW244886  10.558  11.065   4.385  0.4811  2.2663 -1.8466
45946SOL     OW44887   2.377   1.195  11.833  0.0743  0.1233 -0.4324
45946SOL    HW144888   2.463   1.229  11.859  0.0991  0.7696 -1.3324
45946SOL    HW244889   2.397   1.120  11.777  0.2825  2.9875 -4.6249
45947SOL     OW44890   2.147   2.401   0.353  0.0238 -0.5734 -0.0963
45947SOL    HW144891   2.233   2.438   0.372  0.7453 -1.9911 -0.5116
45947SOL    HW244892   2.094   2.477   0.325  1.4259  0.1687 -0.8537
45948SOL     OW44893   0.275   2.615   7.746 -0.0859  0.3325 -0.0839
45948SOL    HW144894   0.296   2.644   7.834  1.3577  1.7527 -0.8402
45948SOL    HW244895   0.294   2.690   7.690 -0.3226 -0.7318 -1.6855
45949SOL     OW44896   0.615  12.123  11.746  0.2694  0.0655  0.3791
45949SOL    HW144897   0.674  12.065  11.794 -0.8324 -0.6419  0.9356
45949SOL    HW244898   0.662  12.144  11.665  1.8134  0.6153  1.3836
45950SOL     OW44899  10.873   0.021  11.037 -0.1958  0.5922  0.2167
45950SOL    HW144900  10.793   0.035  10.987  0.3815  4.1945  0.0438
45950SOL    HW244901  10.939  -0.001  10.971 -0.4574  0.4301  0.0083
45951SOL     OW44902   4.815   7.901   5.382 -0.6638  0.0715  0.7340
45951SOL    HW144903   4.797   7.920   5.290 -0.9643  0.0794  0.7937
45951SOL    HW244904   4.775   7.815   5.397 -1.3515  0.4453  1.0785
45952SOL     OW44905  10.280  10.063   5.962 -0.4458 -0.5589 -0.0152
45952SOL    HW144906  10.228  10.097   5.890 -3.0945 -0.6330  1.7537
45952SOL    HW244907  10.306   9.976   5.933  0.2268  0.1198 -1.6138
45953SOL     OW44908   3.421   3.710  10.094 -0.8619 -0.4608  0.0436
45953SOL    HW144909   3.375   3.745  10.170  0.2283  1.5554 -0.1638
45953SOL    HW244910   3.367   3.734  10.019 -0.0629  0.9504 -0.1076
45954SOL     OW44911   2.351  11.216   2.126  0.0230  0.1428  0.2735
45954SOL    HW144912   2.366  11.292   2.182  0.1724  1.1216 -1.0617
45954SOL    HW244913   2.256  11.203   2.128  0.0610 -0.1166  1.0747
45955SOL     OW44914   6.992   6.110   9.522 -0.1525 -0.2690  0.5512
45955SOL    HW144915   7.045   6.095   9.444  0.8660  2.3247  0.6430
45955SOL    HW244916   6.941   6.189   9.502 -0.9571 -0.3851  1.9752
45956SOL     OW44917   4.605  12.002   1.250 -0.1714 -0.2634  0.0736
45956SOL    HW144918   4.681  11.993   1.193 -0.7329 -3.8415 -0.3307
45956SOL    HW244919   4.533  12.025   1.190  0.0319  0.3577  0.0548
45957SOL     OW44920   8.263   3.522   1.043  0.0180  0.2584 -0.4181
45957SOL    HW144921   8.229   3.591   0.986 -2.5361 -1.4117 -1.0378
45957SOL    HW244922   8.220   3.537   1.127 -1.6921 -1.3601 -0.9590
45958SOL     OW44923   3.569   7.786   0.217  0.4877  0.3866 -0.3350
45958SOL    HW144924   3.554   7.700   0.256 -2.0180  1.2620  0.8836
45958SOL    HW244925   3.599   7.767   0.128  0.2816 -1.7498 -0.0065
45959SOL     OW44926   3.451   1.170   3.059 -0.0373 -0.0036  0.1391
45959SOL    HW144927   3.417   1.235   2.997 -0.5359 -0.6471 -0.2710
45959SOL    HW244928   3.546   1.182   3.056 -0.2095  2.3009  1.8416
45960SOL     OW44929  12.291  10.310   3.969  0.4442 -0.0015  0.0852
45960SOL    HW144930  12.225  10.276   4.029 -1.9168  1.4097 -1.5359
45960SOL    HW244931  12.314  10.395   4.007  1.6167 -0.6187  0.8068
45961SOL     OW44932   8.422   9.510   7.156 -0.0911  0.5684 -0.1133
45961SOL    HW144933   8.332   9.531   7.131 -0.3850  0.3562  0.7307
45961SOL    HW244934   8.415   9.478   7.246  0.5828 -1.2031 -0.6463
45962SOL     OW44935   6.115   5.352  10.882 -0.0453  0.5447  0.3255
45962SOL    HW144936   6.093   5.312  10.798  1.0344  1.2100 -0.2922
45962SOL    HW244937   6.117   5.279  10.944  0.3508 -0.1245 -0.4642
45963SOL     OW44938   2.559   1.635   0.340  0.3683  0.2808 -0.2334
45963SOL    HW144939   2.571   1.720   0.297  0.3328  2.0005  2.7998
45963SOL    HW244940   2.636   1.626   0.396  0.0147 -1.3744  0.0343
45964SOL     OW44941   5.935   5.992   3.039  0.1368  0.3522 -0.3439
45964SOL    HW144942   5.976   5.979   2.954 -0.5712 -0.8703 -0.5229
45964SOL    HW244943   5.843   6.011   3.019 -0.0794 -0.1519  0.1519
45965SOL     OW44944   0.197  12.208  11.355  0.3756 -0.2469 -0.0094
45965SOL    HW144945   0.208  12.201  11.450 -0.0130  0.5148  0.1000
45965SOL    HW244946   0.221  12.298  11.334 -3.3123  0.8743 -0.0543
45966SOL     OW44947  11.147  12.396  12.109 -0.0190  0.4118 -0.1501
45966SOL    HW144948  11.238  12.425  12.105 -0.3757  1.4671 -1.1477
45966SOL    HW244949  11.109  12.427  12.027 -1.2326 -0.2031  0.1643
45967SOL     OW44950   4.158   0.915  11.764  0.2081 -0.1115 -0.2104
45967SOL    HW144951   4.224   0.934  11.830 -2.1584  0.8364  2.0482
45967SOL    HW244952   4.118   0.999  11.744 -1.2473 -0.8258 -0.4499
45968SOL     OW44953   4.046   1.153  11.718 -0.6520 -0.6112 -0.2556
45968SOL    HW144954   3.967   1.203  11.735 -0.7865 -0.8679 -0.1146
45968SOL    HW244955   4.096   1.206  11.655 -1.3882 -0.8968 -1.0964
45969SOL     OW44956  10.063  11.838  11.668  0.5512  0.0540  0.4397
45969SOL    HW144957  10.138  11.848  11.610  0.5779  1.1564  0.6559
45969SOL    HW244958   9.987  11.855  11.612  0.5159 -0.0478  0.4559
45970SOL     OW44959  10.071  12.378   7.337  0.4715 -0.3665 -0.1940
45970SOL    HW144960  10.137  12.330   7.388  1.0063  1.0044  0.4405
45970SOL    HW244961   9.991  12.326   7.348  0.1933  0.5813  3.2771
45971SOL     OW44962   7.901   6.502   8.421  0.0412 -0.1461 -0.8120
45971SOL    HW144963   7.887   6.431   8.358  0.2720  0.3018 -1.3827
45971SOL    HW244964   7.976   6.550   8.386  0.0226  0.2489 -0.3169
45972SOL     OW44965   1.626   0.502   0.351 -0.0622  1.1044 -0.3952
45972SOL    HW144966   1.699   0.565   0.352  0.9577  0.0410 -2.0513
45972SOL    HW244967   1.663   0.424   0.391 -0.0363  0.3387 -1.8533
45973SOL     OW44968  10.103  12.120   5.218  0.1476 -0.1009  0.1408
45973SOL    HW144969  10.168  12.051   5.234 -1.2202 -1.6948 -0.8519
45973SOL    HW244970  10.092  12.162   5.303  2.0487 -0.1384  0.4554
45974SOL     OW44971   7.072   4.627   5.067 -0.2755 -0.1290 -0.3075
45974SOL    HW144972   7.136   4.606   4.999  1.2701  0.5820  0.8461
45974SOL    HW244973   7.050   4.543   5.106  0.1093 -0.3773 -0.6138
45975SOL     OW44974   9.073  10.805   8.672  0.2802  0.5126  0.3397
45975SOL    HW144975   9.038  10.827   8.759 -0.7269 -0.0697  0.0904
45975SOL    HW244976   9.012  10.741   8.637  1.1876  0.0533 -0.4403
45976SOL     OW44977   8.675   4.491   0.740 -0.4931 -0.5936  0.0142
45976SOL    HW144978   8.673   4.574   0.693 -1.2882 -0.1805  0.7366
45976SOL    HW244979   8.763   4.457   0.726  0.0835  0.7277  0.3097
45977SOL     OW44980  11.700   8.588   6.407 -0.8451 -0.6618 -0.0845
45977SOL    HW144981  11.639   8.515   6.397 -0.4401 -0.9924 -0.1704
45977SOL    HW244982  11.763   8.558   6.474 -0.1487 -0.7546 -0.7653
45978SOL     OW44983   8.378   6.586   2.618  0.3032  0.3053  0.0007
45978SOL    HW144984   8.464   6.623   2.636 -0.2675  1.2178  0.9639
45978SOL    HW244985   8.354   6.539   2.698 -0.4714  0.8440  0.1035
45979SOL     OW44986   0.790   8.922  10.218 -0.1262 -0.3711 -0.0217
45979SOL    HW144987   0.722   8.988  10.230  0.2122 -0.4603  3.2772
45979SOL    HW244988   0.872   8.969  10.234  0.1829 -1.3491  1.4063
45980SOL     OW44989   3.858   8.069   4.667  0.4457 -0.3402  0.1285
45980SOL    HW144990   3.888   8.140   4.724 -0.1359  1.9226 -2.2287
45980SOL    HW244991   3.938   8.019   4.648  1.4259  1.3260 -0.3381
45981SOL     OW44992   4.668   1.716  12.389  0.2544 -0.1885 -0.0051
45981SOL    HW144993   4.637   1.628  12.409 -0.1467  0.3042  1.7057
45981SOL    HW244994   4.758   1.717  12.422  0.8921 -0.4924 -1.6681
45982SOL     OW44995   7.477   1.928   6.461 -0.2558 -0.5737 -0.0730
45982SOL    HW144996   7.484   1.860   6.395 -1.5319 -0.0368 -0.8151
45982SOL    HW244997   7.384   1.926   6.487  0.1155 -0.4408  1.3397
45983SOL     OW44998   6.050  10.110   7.950  0.5797 -0.0539  0.3556
45983SOL    HW144999   5.986  10.174   7.980  0.2394  0.5763 -1.5763
45983SOL    HW245000   6.006  10.025   7.958  0.5459  0.0616  1.6488
45984SOL     OW45001   6.034  11.118   4.866 -0.8555  0.2812 -0.2688
45984SOL    HW145002   5.939  11.109   4.873 -1.0311  0.7590 -1.7234
45984SOL    HW245003   6.047  11.204   4.825  0.3057  1.2211  1.8800
45985SOL     OW45004   7.841   0.297   7.931  0.0375 -0.4716  0.4258
45985SOL    HW145005   7.764   0.352   7.913 -0.7282 -1.8669 -0.7044
45985SOL    HW245006   7.840   0.286   8.026 -0.7959  0.0328  0.4909
45986SOL     OW45007   5.401   0.690  11.721  0.0135 -0.1875  0.2030
45986SOL    HW145008   5.390   0.644  11.804 -0.3191 -0.9269 -0.2297
45986SOL    HW245009   5.344   0.642  11.660 -0.1975  0.6945 -0.3160
45987SOL     OW45010   9.789   5.326  10.771  0.2204  0.4190  0.1175
45987SOL    HW145011   9.780   5.313  10.866 -2.3647  1.1293  0.0619
45987SOL    HW245012   9.777   5.420  10.759 -1.1153  0.1370 -1.0079
45988SOL     OW45013   1.421   0.965   7.037 -0.0235  0.7205 -0.1741
45988SOL    HW145014   1.450   1.022   6.966  1.3073  0.3023  0.0008
45988SOL    HW245015   1.327   0.983   7.046 -0.3058  0.5321 -2.2608
45989SOL     OW45016   9.680  10.341   1.188  0.1240  0.0000  0.0050
45989SOL    HW145017   9.684  10.247   1.173  0.9545  0.2660 -1.6505
45989SOL    HW245018   9.628  10.375   1.116  1.2285  0.9712 -0.3707
45990SOL     OW45019   2.539   0.964   0.625  0.6399 -0.9484 -0.5510
45990SOL    HW145020   2.591   1.033   0.584 -0.3523  0.7968  1.0107
45990SOL    HW245021   2.562   0.885   0.576  4.8110 -0.3290  0.0905
45991SOL     OW45022   2.443   0.010   8.093 -0.4083 -0.0402 -0.0511
45991SOL    HW145023   2.538   0.010   8.100 -0.3544  0.6399 -0.6975
45991SOL    HW245024   2.417   0.100   8.110 -1.1787 -0.6642  2.7295
45992SOL     OW45025  12.259   1.445   0.831  0.4334 -0.2517 -0.2787
45992SOL    HW145026  12.200   1.406   0.766 -2.3148 -0.9586  2.3835
45992SOL    HW245027  12.245   1.540   0.823  0.2122 -0.3251 -0.7785
45993SOL     OW45028   1.286   9.560   5.660 -0.7304 -0.2471  0.5441
45993SOL    HW145029   1.241   9.587   5.740  1.7045 -0.6188  2.1476
45993SOL    HW245030   1.370   9.606   5.663 -0.4274 -0.5404 -1.6448
45994SOL     OW45031   9.717   2.181  11.274 -0.6732  0.1046  0.1560
45994SOL    HW145032   9.792   2.158  11.329 -0.7960 -1.7118 -0.3856
45994SOL    HW245033   9.744   2.261  11.228  0.7416 -0.2602  0.3197
45995SOL     OW45034   2.830   3.530   6.126  0.1140 -0.0844  0.1767
45995SOL    HW145035   2.870   3.455   6.081  1.4407  0.3021  0.6608
45995SOL    HW245036   2.870   3.607   6.085  0.8376  0.2873  1.5221
45996SOL     OW45037  12.280   8.639  10.853  0.0733  0.1501 -0.8425
45996SOL    HW145038  12.226   8.581  10.799  1.5769 -1.4356 -0.7537
45996SOL    HW245039  12.263   8.726  10.819 -2.2113 -0.3208 -1.0650
45997SOL     OW45040   0.574  10.945   7.646  0.1097  0.3811  0.3783
45997SOL    HW145041   0.648  10.911   7.696  0.8114  0.7203 -0.3987
45997SOL    HW245042   0.615  10.999   7.578 -0.7870 -0.5136 -0.8954
45998SOL     OW45043   6.729   5.641   2.224 -0.1671  0.2118 -0.5800
45998SOL    HW145044   6.670   5.679   2.159  0.4285 -0.9707 -1.8678
45998SOL    HW245045   6.816   5.669   2.197 -0.0186  1.0695  0.6942
45999SOL     OW45046   8.972   8.868   7.722  0.1300 -0.2181 -0.0389
45999SOL    HW145047   9.013   8.925   7.656  1.6565  0.0340  1.0741
45999SOL    HW245048   8.909   8.925   7.766 -0.5232 -0.2443 -0.9085
46000SOL     OW45049   9.870  11.336   0.840 -0.1759  0.3372  0.1695
46000SOL    HW145050   9.860  11.250   0.879  1.0247  0.5968  1.1048
46000SOL    HW245051   9.939  11.325   0.775  1.8284  1.0774  2.0426
46001SOL     OW45052   2.150   4.621  12.021 -0.1369  0.7660  0.5455
46001SOL    HW145053   2.074   4.677  12.035 -0.8129  0.9773 -3.0603
46001SOL    HW245054   2.115   4.532  12.025  0.0406  0.7415  1.7865
46002SOL     OW45055   1.254   2.843   6.001 -0.1698  0.0414 -0.0665
46002SOL    HW145056   1.232   2.881   6.086  3.3296 -0.8155  1.3988
46002SOL    HW245057   1.311   2.908   5.960  0.7020 -0.8647 -0.3301
46003SOL     OW45058  10.791   0.554   2.906 -0.0040  0.1193 -0.5316
46003SOL    HW145059  10.841   0.556   2.987 -0.0443  0.8372 -0.5229
46003SOL    HW245060  10.752   0.466   2.904 -0.5181  0.3097  0.5285
46004SOL     OW45061  11.593   4.593   4.575 -0.0357  0.1331  0.4102
46004SOL    HW145062  11.557   4.521   4.523  0.3429 -0.5794  1.1148
46004SOL    HW245063  11.684   4.568   4.590 -0.5102 -0.4742  2.7014
46005SOL     OW45064   2.004  11.055   5.546 -0.0448 -0.9156 -0.3648
46005SOL    HW145065   2.077  10.994   5.558  0.3888 -0.3441 -0.0313
46005SOL    HW245066   1.936  11.003   5.503  0.3126 -1.6330 -0.0794
46006SOL     OW45067   3.714   9.825   6.199  0.4125  0.0172  0.4004
46006SOL    HW145068   3.651   9.882   6.242  1.2066  0.4236  1.0633
46006SOL    HW245069   3.793   9.878   6.192  0.8735 -0.6837  0.1580
46007SOL     OW45070   8.202   8.629   4.939 -0.0807  0.3312 -0.1883
46007SOL    HW145071   8.185   8.564   5.007 -0.7477  1.1310  0.4371
46007SOL    HW245072   8.293   8.653   4.951 -0.3229  0.8233  0.7671
46008SOL     OW45073   1.210   5.480   8.801 -0.2333  0.3039  0.1812
46008SOL    HW145074   1.305   5.478   8.809 -0.2298 -0.9403 -0.0126
46008SOL    HW245075   1.181   5.400   8.845 -0.8784 -1.6287 -3.3914
46009SOL     OW45076   5.775   3.309   7.660 -0.2687 -0.1519 -0.5295
46009SOL    HW145077   5.784   3.242   7.593 -0.3332  0.5391 -1.2459
46009SOL    HW245078   5.864   3.331   7.685 -0.2568 -0.8613  0.0848
46010SOL     OW45079   0.143  10.374   8.004 -0.3964  0.0098  0.1860
46010SOL    HW145080   0.121  10.309   8.070  0.0556 -0.4960 -0.1558
46010SOL    HW245081   0.162  10.453   8.055 -0.2692 -0.3101  0.6500
46011SOL     OW45082   6.495   2.086  11.092  0.5869 -0.3479  0.0024
46011SOL    HW145083   6.538   2.168  11.067  0.5231 -0.6770 -1.2675
46011SOL    HW245084   6.502   2.084  11.187  2.2809  0.2170 -0.0724
46012SOL     OW45085   4.304   2.569   4.229  0.5512 -0.4950 -0.0491
46012SOL    HW145086   4.260   2.548   4.147  0.4737 -0.4233 -0.0258
46012SOL    HW245087   4.347   2.653   4.213  0.0578 -0.1960  0.1659
46013SOL     OW45088   8.338   9.970   5.153 -0.3334 -0.2897  0.8117
46013SOL    HW145089   8.308  10.051   5.193 -2.1925 -0.6658  0.2586
46013SOL    HW245090   8.424   9.992   5.116  0.0106  0.9058  2.2322
46014SOL     OW45091   8.268   5.646   3.476 -0.0483  0.2572  0.0401
46014SOL    HW145092   8.184   5.691   3.475 -0.6503 -0.6281  2.5795
46014SOL    HW245093   8.333   5.715   3.481 -0.6295  0.9264 -1.1521
46015SOL     OW45094   2.242   5.884   7.956 -0.6012 -0.3475 -0.1909
46015SOL    HW145095   2.170   5.927   8.003 -0.2370  0.0657 -0.0034
46015SOL    HW245096   2.275   5.819   8.017 -0.3026  0.0066  0.0336
46016SOL     OW45097   7.430   7.723   9.373 -0.1270  0.4179  0.0849
46016SOL    HW145098   7.384   7.661   9.430 -1.3874  0.3579 -0.9519
46016SOL    HW245099   7.475   7.667   9.310 -1.6530  0.5031 -1.1489
46017SOL     OW45100   1.644   1.329  10.099 -0.1460  0.3729  0.2405
46017SOL    HW145101   1.642   1.250  10.045 -0.3185 -0.5777  1.6026
46017SOL    HW245102   1.737   1.350  10.107 -0.0854  0.1710  0.0807
46018SOL     OW45103   8.176   5.381   0.926  0.2172 -0.3203  0.5488
46018SOL    HW145104   8.125   5.389   0.845  1.5299 -0.2702 -0.3269
46018SOL    HW245105   8.187   5.287   0.939  0.1020 -0.3262  0.6007
46019SOL     OW45106   6.757  11.248   6.044  0.5324 -0.1831  0.0970
46019SOL    HW145107   6.730  11.321   6.099 -1.0887 -0.6032 -0.0971
46019SOL    HW245108   6.853  11.246   6.052  0.5041  1.1562  1.0925
46020SOL     OW45109  10.297   3.210   6.277  0.0947 -0.0264 -0.0462
46020SOL    HW145110  10.224   3.181   6.331  0.2604 -1.4400 -0.5247
46020SOL    HW245111  10.346   3.130   6.259  0.2949  0.4719 -1.9044
46021SOL     OW45112  10.166   9.309   9.522 -0.5047 -0.0775 -0.1834
46021SOL    HW145113  10.231   9.378   9.534 -1.2683  0.8088 -0.9646
46021SOL    HW245114  10.139   9.317   9.430 -2.7987  0.5724  0.4724
46022SOL     OW45115   7.678   5.747   1.214  0.0045  0.1314 -0.8215
46022SOL    HW145116   7.667   5.747   1.119  0.0572 -0.6115 -0.8317
46022SOL    HW245117   7.638   5.830   1.243 -1.3202 -0.2997 -1.3526
46023SOL     OW45118   2.674  12.250   7.477 -0.3974  0.2669 -0.6017
46023SOL    HW145119   2.666  12.316   7.546 -2.3965  0.8033 -1.2856
46023SOL    HW245120   2.755  12.272   7.432  0.2939  0.6559  0.7745
46024SOL     OW45121   3.890  10.446   9.459  0.3579  0.0161  0.1867
46024SOL    HW145122   3.812  10.390   9.462 -0.3971  1.0262  0.1878
46024SOL    HW245123   3.855  10.534   9.440  1.4006  0.6647  1.1504
46025SOL     OW45124  11.895  12.380   8.400 -0.1116  0.3071  0.5348
46025SOL    HW145125  11.984  12.353   8.425 -0.4435 -1.1498  0.2492
46025SOL    HW245126  11.904  12.472   8.375  1.0684  0.5565  1.7279
46026SOL     OW45127  11.715   4.240   6.149 -0.7080  0.4474  0.2669
46026SOL    HW145128  11.699   4.292   6.071 -1.7953  0.1800  0.3060
46026SOL    HW245129  11.806   4.211   6.139 -0.7059  0.7374 -0.7058
46027SOL     OW45130   3.905   7.853   5.640 -0.3412  0.0881  0.3707
46027SOL    HW145131   3.990   7.892   5.620 -0.8252  1.4077  0.7913
46027SOL    HW245132   3.855   7.923   5.682 -2.1608 -0.1934 -1.1856
46028SOL     OW45133   9.806   9.431   6.511 -0.5101  0.3001  0.0173
46028SOL    HW145134   9.901   9.421   6.502 -0.2993  2.5511 -0.9366
46028SOL    HW245135   9.770   9.388   6.434 -0.0377  1.7679 -1.0672
46029SOL     OW45136  11.108   7.681   2.119 -0.5413 -0.1311 -0.4767
46029SOL    HW145137  11.083   7.766   2.082  0.0727 -0.5686 -1.9720
46029SOL    HW245138  11.151   7.703   2.201 -0.3085  1.0153 -0.8822
46030SOL     OW45139   4.178   1.157   0.940  0.1227  0.1557  1.1999
46030SOL    HW145140   4.211   1.247   0.938 -0.9746  0.5875 -0.7199
46030SOL    HW245141   4.242   1.109   0.992  2.5820  1.3942 -0.4477
46031SOL     OW45142   9.135   9.981  11.123  0.4652 -0.1837 -0.3239
46031SOL    HW145143   9.122   9.903  11.177  0.5652  0.7931  1.1598
46031SOL    HW245144   9.136  10.054  11.185  2.1006  0.8482 -1.4690
46032SOL     OW45145   8.429   3.922   6.533 -0.1621 -0.4335 -0.5787
46032SOL    HW145146   8.386   3.857   6.589  1.1366 -0.8442 -0.0167
46032SOL    HW245147   8.380   4.003   6.548  0.4442 -0.3861  1.6094
46033SOL     OW45148   9.758  11.063  12.308 -0.4920 -0.0262  0.4029
46033SOL    HW145149   9.673  11.028  12.336 -0.1560 -0.9930  0.2462
46033SOL    HW245150   9.822  11.010  12.355  0.0370  1.3182  1.2596
46034SOL     OW45151   3.684   1.290   9.294  0.1928 -0.3066  0.2181
46034SOL    HW145152   3.731   1.294   9.211  1.3029  0.3734  0.8586
46034SOL    HW245153   3.746   1.248   9.355  0.0888  0.8088  1.1340
46035SOL     OW45154  10.817   6.699   7.880  0.5962  0.4305 -0.8611
46035SOL    HW145155  10.842   6.787   7.851  0.2539  0.8536  0.0955
46035SOL    HW245156  10.901   6.655   7.897  0.7532  0.9699 -0.1997
46036SOL     OW45157  10.237   4.736   5.959  0.0744  0.5107 -0.0610
46036SOL    HW145158  10.192   4.653   5.944  0.0411  0.5771 -0.3392
46036SOL    HW245159  10.328   4.711   5.977  0.4073  0.4761 -1.6340
46037SOL     OW45160   2.450   9.443   4.084 -0.2115 -0.5477 -0.3246
46037SOL    HW145161   2.415   9.518   4.036  0.3564 -1.3006 -1.9956
46037SOL    HW245162   2.485   9.385   4.016 -0.1219 -2.0708  0.9518
46038SOL     OW45163  10.045   0.803   8.913 -0.2358  0.9957  0.3644
46038SOL    HW145164   9.986   0.831   8.843 -1.0275 -0.4734  0.4192
46038SOL    HW245165  10.096   0.732   8.876  1.9569  2.5759  0.1480
46039SOL     OW45166   1.212  11.929   3.538 -0.0724 -0.1885  0.1193
46039SOL    HW145167   1.293  11.952   3.492  0.1877 -0.3555  0.4935
46039SOL    HW245168   1.175  12.013   3.565 -0.0302 -0.1114 -0.0617
46040SOL     OW45169   9.101   7.824  10.565 -0.3043 -0.5350 -0.1851
46040SOL    HW145170   9.063   7.740  10.590  2.7679 -2.1791 -0.5650
46040SOL    HW245171   9.111   7.871  10.647 -1.5014 -0.7784  0.1152
46041SOL     OW45172   0.773   4.946   3.148  0.0680 -0.1227 -0.2218
46041SOL    HW145173   0.695   4.897   3.173  0.7514 -1.4471 -0.5993
46041SOL    HW245174   0.739   5.029   3.114 -1.1788 -0.7293 -0.5239
46042SOL     OW45175   0.709  10.443   1.885  0.2188  0.2044 -0.2373
46042SOL    HW145176   0.698  10.447   1.790  0.7972 -0.4261 -0.3443
46042SOL    HW245177   0.741  10.530   1.909  2.1210 -0.2456 -0.9361
46043SOL     OW45178   4.944   1.790  10.094  0.0842 -0.0657 -0.1091
46043SOL    HW145179   4.874   1.753  10.041  0.2138 -1.4924  0.6410
46043SOL    HW245180   4.899   1.836  10.165 -0.1441 -1.6538  0.8229
46044SOL     OW45181   9.576  10.394   9.632 -0.2669 -0.1065  0.1445
46044SOL    HW145182   9.482  10.377   9.633 -0.4066  0.6115  1.0374
46044SOL    HW245183   9.591  10.445   9.553 -1.0466  1.8019  1.1602
46045SOL     OW45184   2.447   8.218   5.171  0.3711  0.3009 -0.1282
46045SOL    HW145185   2.418   8.305   5.198 -0.3395  0.3352 -0.9389
46045SOL    HW245186   2.367   8.174   5.141  1.0608  0.2262 -1.9861
46046SOL     OW45187   3.111   9.463   8.787 -0.4671 -0.1845 -0.0229
46046SOL    HW145188   3.161   9.481   8.866 -0.1255 -0.9470 -0.0574
46046SOL    HW245189   3.134   9.534   8.727  0.7092 -0.6075 -0.0967
46047SOL     OW45190   4.404  10.772   2.526  0.5176 -0.2418  0.0804
46047SOL    HW145191   4.336  10.776   2.593 -0.1996  1.4286 -0.6969
46047SOL    HW245192   4.363  10.723   2.454  0.0693  0.8363 -0.4208
46048SOL     OW45193   8.904   1.733  11.030 -0.0424 -0.2935 -0.4541
46048SOL    HW145194   8.819   1.743  11.073  0.4184  0.6321  0.2836
46048SOL    HW245195   8.899   1.648  10.987 -1.0581 -0.6060  0.2320
46049SOL     OW45196  12.447   3.179   7.954 -0.2716  0.4998 -0.0295
46049SOL    HW145197  12.491   3.136   8.027 -2.3265  1.3368  1.8056
46049SOL    HW245198  12.518   3.216   7.901  1.3555 -1.7989  0.4120
46050SOL     OW45199   9.938   4.064  11.231 -0.5162 -0.0197  0.0807
46050SOL    HW145200   9.880   4.138  11.251  0.4515  0.7932 -0.0339
46050SOL    HW245201   9.974   4.085  11.145 -0.7033 -0.9392 -0.2242
46051SOL     OW45202   0.628   4.755   3.464 -0.0048 -0.1295  0.7215
46051SOL    HW145203   0.624   4.689   3.533 -0.3231 -0.4173  0.4363
46051SOL    HW245204   0.712   4.799   3.477  1.1051 -1.8518 -0.2253
46052SOL     OW45205  10.861   8.385   1.930  0.5014 -0.2346 -0.0792
46052SOL    HW145206  10.946   8.343   1.922  0.2221 -0.6983 -0.6886
46052SOL    HW245207  10.810   8.327   1.986 -0.1277 -1.1341 -1.5278
46053SOL     OW45208   1.545  10.040   8.105 -0.0038 -0.4609 -0.2024
46053SOL    HW145209   1.558  10.014   8.196  0.6970 -1.5008 -0.5785
46053SOL    HW245210   1.565  10.134   8.104 -1.4802 -0.0989  0.9707
46054SOL     OW45211   4.863   2.337   7.685 -0.0534 -0.2265  0.8911
46054SOL    HW145212   4.906   2.263   7.641  1.1490 -1.0598  3.2377
46054SOL    HW245213   4.910   2.414   7.654  0.1750 -0.6827  0.0799
46055SOL     OW45214   6.711   9.982   9.250  0.1225 -0.0838  0.1989
46055SOL    HW145215   6.656   9.937   9.186 -0.4095 -0.3136  0.8074
46055SOL    HW245216   6.663   9.974   9.332 -0.0980  1.7676  0.3014
46056SOL     OW45217   5.583   1.471   5.094  0.1212  0.5354  0.1371
46056SOL    HW145218   5.501   1.423   5.103  1.0663 -0.8554  1.9616
46056SOL    HW245219   5.561   1.545   5.037 -2.2075 -0.1783 -0.0011
46057SOL     OW45220   2.221   6.329   7.700  0.0489 -0.0604 -0.5841
46057SOL    HW145221   2.180   6.412   7.675 -0.1909  0.0096  0.0265
46057SOL    HW245222   2.156   6.285   7.754 -0.2226 -1.1113 -1.7378
46058SOL     OW45223   9.986   4.869   5.504 -0.5762  0.3815 -0.3754
46058SOL    HW145224  10.068   4.875   5.554  0.0876  0.4170 -1.4408
46058SOL    HW245225   9.945   4.788   5.534 -1.1507  1.3153  1.6016
46059SOL     OW45226   5.732   1.148   0.690  0.5597 -0.0651  0.1776
46059SOL    HW145227   5.735   1.242   0.674  1.6364 -0.0646  0.3455
46059SOL    HW245228   5.640   1.131   0.713  0.5155  1.0708  0.9159
46060SOL     OW45229   1.552   2.615   8.539 -0.7708 -0.0222 -0.6117
46060SOL    HW145230   1.516   2.653   8.459 -1.0605  0.5475 -0.2130
46060SOL    HW245231   1.534   2.679   8.607  0.0994 -0.1852 -0.2121
46061SOL     OW45232  11.743   7.306   2.137  0.0381 -0.6034  0.0856
46061SOL    HW145233  11.771   7.293   2.228  0.4549  0.0729  0.0611
46061SOL    HW245234  11.678   7.377   2.143  2.1862  1.5339 -0.4523
46062SOL     OW45235   3.339   4.015   6.925  0.1318 -0.3167 -0.0424
46062SOL    HW145236   3.431   3.997   6.941 -0.2608 -2.2633  0.2828
46062SOL    HW245237   3.332   4.022   6.829  0.8491  1.4364  0.0104
46063SOL     OW45238   5.938   5.752   9.813 -0.1106 -0.6628 -0.0646
46063SOL    HW145239   5.911   5.824   9.756 -1.6309  0.8069  2.3514
46063SOL    HW245240   5.999   5.792   9.875 -1.5515 -1.2077  1.7947
46064SOL     OW45241   9.838   1.502   7.055 -0.8892 -0.1817 -0.1172
46064SOL    HW145242   9.878   1.430   7.104  0.3605  0.8580  0.4385
46064SOL    HW245243   9.882   1.580   7.087  1.2425  0.4765 -4.0286
46065SOL     OW45244   4.628  11.403   3.407  0.1273 -0.4395  0.2087
46065SOL    HW145245   4.536  11.420   3.386  0.2239  1.3155  1.0860
46065SOL    HW245246   4.661  11.485   3.443  2.9940  0.1517 -3.2076
46066SOL     OW45247   2.653   2.426  10.004  0.6201  0.3073  0.5354
46066SOL    HW145248   2.706   2.505  10.017 -0.9634  1.3159  1.1783
46066SOL    HW245249   2.562   2.458  10.004 -0.0674 -1.5472  1.0029
46067SOL     OW45250  12.069   3.265   5.748 -0.1583 -0.3019 -1.0426
46067SOL    HW145251  12.094   3.228   5.833 -3.5391 -0.4774 -0.0077
46067SOL    HW245252  12.140   3.326   5.727  2.3219 -2.4668  0.3361
46068SOL     OW45253   5.743   1.344   6.339 -0.0107  0.0278 -0.0694
46068SOL    HW145254   5.719   1.257   6.309 -0.1182  0.0308  0.0067
46068SOL    HW245255   5.746   1.397   6.259  0.1954 -0.0784 -0.1309
46069SOL     OW45256   4.008   0.885   6.530  0.4093  0.3570 -0.1381
46069SOL    HW145257   4.090   0.902   6.577  1.0163 -1.3642 -0.4959
46069SOL    HW245258   4.025   0.910   6.440  0.2287  0.8722 -0.0302
46070SOL     OW45259   7.618   7.473   7.241 -0.3413 -0.0816 -0.4228
46070SOL    HW145260   7.654   7.561   7.251 -3.7073  1.4105  0.2229
46070SOL    HW245261   7.675   7.417   7.292  0.0296  2.3489  2.0607
46071SOL     OW45262  11.579   2.998   7.067 -0.0085 -0.1365  0.3740
46071SOL    HW145263  11.574   3.036   6.979  1.2854 -0.9793 -0.0911
46071SOL    HW245264  11.651   3.045   7.109 -0.0773 -0.3148  0.6980
46072SOL     OW45265   6.573   8.072   6.007 -0.0421 -0.0643 -0.2615
46072SOL    HW145266   6.659   8.037   5.985  0.2768  0.1559  0.6032
46072SOL    HW245267   6.540   8.013   6.075 -0.2860  0.2523 -0.1048
46073SOL     OW45268   8.764   6.069   9.917  0.4500 -0.0886  0.1631
46073SOL    HW145269   8.809   6.121   9.850  1.3377  1.0240  1.5645
46073SOL    HW245270   8.694   6.126   9.949 -0.6821 -1.0293 -0.5323
46074SOL     OW45271   5.364   8.622   1.509  0.7333 -0.3334  0.2890
46074SOL    HW145272   5.306   8.697   1.526  0.1028 -0.4820 -1.0334
46074SOL    HW245273   5.451   8.652   1.535  0.3093  0.4495  0.8531
46075SOL     OW45274   8.673   1.769  10.093 -0.5461 -0.7056  0.0824
46075SOL    HW145275   8.655   1.753  10.185  0.0869 -2.3778 -0.0514
46075SOL    HW245276   8.763   1.802  10.091 -0.0686 -1.9704 -0.0210
46076SOL     OW45277   8.996   8.938   5.300  0.2243  0.1728 -0.3967
46076SOL    HW145278   9.004   8.948   5.395 -2.2365 -1.1391  0.0252
46076SOL    HW245279   8.943   9.013   5.273 -0.3819 -0.2698 -0.4648
46077SOL     OW45280  10.439  11.574  11.606 -0.2175 -0.2993 -0.1682
46077SOL    HW145281  10.526  11.563  11.645 -0.4094 -0.3866  0.2365
46077SOL    HW245282  10.416  11.487  11.573  1.2026  0.3566 -3.1572
46078SOL     OW45283   3.358   1.026   6.119  0.6496  0.4063 -0.0134
46078SOL    HW145284   3.292   1.022   6.051 -2.1942 -2.4942  2.5943
46078SOL    HW245285   3.352   1.115   6.154 -0.8253  0.6291 -0.7821
46079SOL     OW45286   1.514   7.755   0.393 -0.3429  0.4989 -0.4245
46079SOL    HW145287   1.552   7.836   0.359 -0.3218  1.0834  0.9380
46079SOL    HW245288   1.419   7.772   0.394 -0.5764 -0.4019 -2.3901
46080SOL     OW45289   9.853   7.633   8.356  0.0663 -0.5287 -0.5946
46080SOL    HW145290   9.805   7.552   8.375 -0.4626  0.1688  1.3274
46080SOL    HW245291   9.857   7.678   8.441  1.5219  0.8341 -1.3452
46081SOL     OW45292   6.965  12.135   2.131 -0.4202  0.3935 -0.4404
46081SOL    HW145293   6.991  12.157   2.221  0.4296  1.8365 -0.9995
46081SOL    HW245294   6.998  12.046   2.118 -1.0047 -0.0251  0.8368
46082SOL     OW45295  11.109   0.526   1.231  0.2790 -0.1702 -0.2954
46082SOL    HW145296  11.134   0.490   1.146  0.5539  0.0172 -0.2910
46082SOL    HW245297  11.013   0.521   1.232  0.2952 -0.5036 -0.4709
46083SOL     OW45298   3.809   0.344   9.649 -0.2636 -0.0104 -0.1155
46083SOL    HW145299   3.882   0.407   9.645 -0.7197  0.4635 -1.9374
46083SOL    HW245300   3.816   0.305   9.736  1.4907  0.8341  0.1731
46084SOL     OW45301   8.430   0.616   2.250  0.2468  0.0017 -0.2663
46084SOL    HW145302   8.367   0.613   2.178  1.3079 -1.9807 -1.1831
46084SOL    HW245303   8.408   0.541   2.304  2.1656 -1.1311 -0.9651
46085SOL     OW45304   0.327   3.493   0.958  0.1043 -0.0811 -0.1342
46085SOL    HW145305   0.305   3.423   0.897 -0.0960 -0.4406  0.3460
46085SOL    HW245306   0.397   3.542   0.914 -0.2823 -0.1201 -0.8037
46086SOL     OW45307  10.583  11.883   1.877 -0.5667  0.2834  0.6605
46086SOL    HW145308  10.596  11.978   1.884  0.8261  0.0922  0.9959
46086SOL    HW245309  10.639  11.847   1.945 -1.0649 -0.7965  0.5118
46087SOL     OW45310   8.426   1.307   3.717  0.0033 -0.3173 -0.3459
46087SOL    HW145311   8.381   1.231   3.754  1.3978 -2.0160 -1.9786
46087SOL    HW245312   8.488   1.334   3.785  0.8227 -1.8585 -0.4457
46088SOL     OW45313  10.658   7.140   0.034  0.0023  0.5317  0.0662
46088SOL    HW145314  10.672   7.058   0.081  0.9193  0.3260 -0.5277
46088SOL    HW245315  10.701   7.207   0.088 -0.0149  0.4837  0.1375
46089SOL     OW45316   9.986   3.859   1.332 -0.2468 -0.4311  0.4649
46089SOL    HW145317  10.078   3.879   1.349 -0.0945 -0.8705  0.1709
46089SOL    HW245318   9.965   3.787   1.391 -0.5765  0.0590  0.9629
46090SOL     OW45319   2.325   6.855   1.219 -0.4476 -0.2359  0.3040
46090SOL    HW145320   2.261   6.785   1.233 -0.4463  0.0496  1.8361
46090SOL    HW245321   2.401   6.828   1.270 -0.1115  0.4550  0.1791
46091SOL     OW45322  10.940   5.184   6.341 -0.3384 -0.3884  0.6249
46091SOL    HW145323  10.896   5.102   6.366  1.4332 -1.6656 -0.2201
46091SOL    HW245324  11.019   5.186   6.396 -0.3107  0.7078  0.5579
46092SOL     OW45325   5.280   8.669  11.453 -0.0575 -0.3494 -0.2011
46092SOL    HW145326   5.255   8.697  11.541  0.9490  1.1543 -0.3528
46092SOL    HW245327   5.363   8.713  11.436 -0.8553  0.4900 -2.3861
46093SOL     OW45328   1.742   3.378   4.523  0.3878 -0.7868 -0.7495
46093SOL    HW145329   1.827   3.354   4.486  0.5919 -1.6186  0.2151
46093SOL    HW245330   1.747   3.472   4.536  0.9833 -0.7592 -1.1452
46094SOL     OW45331   0.368   4.268   4.396 -0.4622 -0.0149  0.3281
46094SOL    HW145332   0.288   4.270   4.344  0.0103  0.8340 -0.3875
46094SOL    HW245333   0.341   4.300   4.482 -1.2357 -1.3882  0.6378
46095SOL     OW45334   3.281   3.180   8.024  0.5973 -0.0914  0.6734
46095SOL    HW145335   3.302   3.138   7.941 -1.1811 -0.8825  0.5797
46095SOL    HW245336   3.339   3.136   8.088 -0.0793 -1.5792  0.3116
46096SOL     OW45337   4.857   6.219   5.982 -0.1304 -0.2185 -0.0498
46096SOL    HW145338   4.807   6.264   6.049 -0.4084  0.2046 -0.5325
46096SOL    HW245339   4.792   6.194   5.916  0.2691  0.2264 -0.6222
46097SOL     OW45340   5.242   2.979   1.338  0.2212 -0.2250 -0.6346
46097SOL    HW145341   5.217   2.926   1.414  3.5319 -1.0567  0.0715
46097SOL    HW245342   5.302   2.922   1.289 -0.1656  1.0790 -2.7316
46098SOL     OW45343   8.518  10.541   6.270 -0.4596 -0.5991  0.5020
46098SOL    HW145344   8.564  10.623   6.257  0.5858 -1.3318 -0.5425
46098SOL    HW245345   8.584  10.473   6.258 -1.7520 -1.6854 -0.9037
46099SOL     OW45346   0.823  12.397   3.315  0.3483  0.1428  0.7150
46099SOL    HW145347   0.781  12.453   3.250 -0.1673 -1.5193 -0.4710
46099SOL    HW245348   0.906  12.372   3.275  0.6770  0.2484  1.3247
46100SOL     OW45349   0.997   6.079   6.144  0.4186 -0.2575 -0.1989
46100SOL    HW145350   0.974   6.000   6.096  2.3111 -0.2052 -1.2737
46100SOL    HW245351   1.062   6.050   6.208  1.8709  0.5577 -1.2617
46101SOL     OW45352   1.715   0.573   5.039 -0.0068 -0.2414  0.0013
46101SOL    HW145353   1.742   0.656   5.078  3.5601 -1.0329 -0.4565
46101SOL    HW245354   1.670   0.598   4.958  1.7548  1.2971 -0.5638
46102SOL     OW45355   4.867   7.015   2.779  0.5444 -0.4809 -0.2000
46102SOL    HW145356   4.961   7.028   2.777  0.5369 -0.3116  0.4615
46102SOL    HW245357   4.841   7.014   2.686  1.3015 -1.3889 -0.4164
46103SOL     OW45358   2.375   3.908   1.413  0.1780  0.4491  0.2124
46103SOL    HW145359   2.341   3.860   1.489  0.4813  0.1989  0.1898
46103SOL    HW245360   2.315   3.982   1.403  1.1651  1.5023  1.7767
46104SOL     OW45361   6.397  11.253  10.734 -0.1273  0.3709  0.4259
46104SOL    HW145362   6.474  11.201  10.753 -0.9649 -0.5431  1.4627
46104SOL    HW245363   6.365  11.282  10.819 -1.2752  0.1987  0.0752
46105SOL     OW45364   9.739   8.012   8.781 -0.2211 -0.0228 -0.4098
46105SOL    HW145365   9.751   8.098   8.742  0.9830 -0.9029 -2.1451
46105SOL    HW245366   9.657   7.980   8.744 -0.6560  0.3586  0.2153
46106SOL     OW45367   6.929   3.599   9.407  0.1642 -0.2409  0.6058
46106SOL    HW145368   6.906   3.685   9.442 -0.1841  0.4694 -1.2264
46106SOL    HW245369   6.961   3.550   9.482 -0.0024  1.3597  1.7754
46107SOL     OW45370  11.646   1.089  11.900 -0.0261 -0.2159 -0.1697
46107SOL    HW145371  11.695   1.027  11.846  0.0650  0.4688 -0.8827
46107SOL    HW245372  11.612   1.035  11.972 -1.2572 -1.4512 -1.5915
46108SOL     OW45373   8.427   5.269   3.742 -0.6740 -0.0410  0.4390
46108SOL    HW145374   8.477   5.251   3.661 -0.6078 -0.1026  0.4935
46108SOL    HW245375   8.350   5.316   3.712 -0.2535  0.6565  0.4173
46109SOL     OW45376   7.987   6.635  10.489  0.0852 -0.4255 -0.2145
46109SOL    HW145377   7.988   6.635  10.584  0.4334  1.7631 -0.1840
46109SOL    HW245378   8.044   6.562  10.464  0.4840 -0.6281  1.2392
46110SOL     OW45379  10.977  12.419  11.867 -0.0684 -0.1244  0.0596
46110SOL    HW145380  11.024  12.370  11.799 -1.4379  0.2035 -1.1777
46110SOL    HW245381  10.907  12.464  11.820 -1.6886 -0.6738  1.8126
46111SOL     OW45382   6.976   8.126   8.526 -0.0220  0.1519 -0.7640
46111SOL    HW145383   6.906   8.070   8.492 -0.5583 -0.6659  1.5641
46111SOL    HW245384   7.041   8.066   8.561  0.9590  0.9602 -1.1388
46112SOL     OW45385  11.831  11.608  10.955 -0.6007  0.0738 -0.5912
46112SOL    HW145386  11.874  11.638  11.035 -0.4280 -0.2935 -0.5413
46112SOL    HW245387  11.817  11.688  10.904  2.8180  0.0005 -1.9438
46113SOL     OW45388   0.449   4.627   1.041 -0.3327 -0.2066 -0.2695
46113SOL    HW145389   0.437   4.722   1.048  0.5279 -0.2098  2.8396
46113SOL    HW245390   0.440   4.595   1.131  0.5726 -2.9365 -1.0525
46114SOL     OW45391   9.328  10.010   2.281 -0.1165 -0.1580  0.1436
46114SOL    HW145392   9.379  10.009   2.362 -0.7291  0.2187  0.5465
46114SOL    HW245393   9.237  10.006   2.311 -0.3691  0.4948 -0.5094
46115SOL     OW45394   6.037   2.442   2.556  0.3934  0.5390 -0.2180
46115SOL    HW145395   6.072   2.497   2.487  0.6096  0.0710 -0.4818
46115SOL    HW245396   6.105   2.376   2.573 -0.3948 -0.4728 -0.8486
46116SOL     OW45397   6.725   2.992   1.937 -0.1582 -0.2798  0.1971
46116SOL    HW145398   6.787   3.002   1.864  0.0718 -1.4781  0.2094
46116SOL    HW245399   6.640   2.985   1.894 -0.0011 -1.2117  0.0027
46117SOL     OW45400   1.865   8.868   0.376  0.0331 -0.1533 -0.0215
46117SOL    HW145401   1.927   8.846   0.445  0.4124 -0.4976 -0.4658
46117SOL    HW245402   1.848   8.962   0.388  0.0066 -0.2364  0.6049
46118SOL     OW45403   5.838  11.160   5.127 -0.0604  0.2413  0.0460
46118SOL    HW145404   5.802  11.123   5.046  0.9084 -0.5508 -0.0465
46118SOL    HW245405   5.774  11.136   5.194  0.3440 -1.3296 -0.0815
46119SOL     OW45406   9.091   3.563   4.710  0.3108 -0.1090 -0.2493
46119SOL    HW145407   9.164   3.611   4.671  1.5337 -1.6206  0.0860
46119SOL    HW245408   9.090   3.590   4.802  0.0542  0.3650 -0.3896
46120SOL     OW45409   1.457   6.862   7.509  0.1534  0.2731  0.0327
46120SOL    HW145410   1.372   6.907   7.507 -0.3301 -0.5873 -3.2563
46120SOL    HW245411   1.439   6.780   7.555 -1.0252 -0.2402 -1.2773
46121SOL     OW45412   4.288   5.075   1.988 -0.1591  0.2160  0.2161
46121SOL    HW145413   4.364   5.099   1.935 -0.4582  1.8116  0.4482
46121SOL    HW245414   4.223   5.044   1.925 -0.1156  1.0271 -0.2358
46122SOL     OW45415   4.271   7.571   4.262  0.9739 -0.0425 -0.2558
46122SOL    HW145416   4.347   7.608   4.307  0.3383  0.9214  0.0675
46122SOL    HW245417   4.300   7.559   4.172  1.5267  0.2624 -0.1235
46123SOL     OW45418   9.188   8.531  10.199 -0.2088  0.1771  0.0649
46123SOL    HW145419   9.173   8.461  10.263 -0.4187  0.0395 -0.1306
46123SOL    HW245420   9.283   8.533  10.187 -0.3137 -1.4778 -1.4575
46124SOL     OW45421   3.954  10.707   1.643  0.5059 -0.2889 -0.1161
46124SOL    HW145422   4.007  10.771   1.597 -0.5298  0.1493 -0.7449
46124SOL    HW245423   3.980  10.623   1.605  0.6483 -0.0642 -0.5242
46125SOL     OW45424   7.122   5.385  11.743  0.0067  0.0857  0.3257
46125SOL    HW145425   7.036   5.362  11.707  0.3531  0.8832 -1.0742
46125SOL    HW245426   7.115   5.365  11.837 -0.6790 -2.8631 -0.2376
46126SOL     OW45427   1.131   5.058   6.955 -0.2064 -0.2649 -0.5742
46126SOL    HW145428   1.085   5.024   7.032 -0.3011  0.0465 -0.4904
46126SOL    HW245429   1.223   5.034   6.970 -0.1816  0.0290 -0.2275
46127SOL     OW45430   9.722   2.467  12.386 -0.1375  0.1648 -0.1482
46127SOL    HW145431   9.652   2.495  12.445 -0.1300 -1.1136  0.4975
46127SOL    HW245432   9.782   2.541  12.383 -0.1189  0.2348  1.4962
46128SOL     OW45433  10.436   0.714   0.138  0.1788 -0.4714  0.0212
46128SOL    HW145434  10.500   0.721   0.209 -0.0963  0.1794  0.2096
46128SOL    HW245435  10.471   0.645   0.082  0.6450 -0.6654  0.5349
46129SOL     OW45436   2.592   2.155   4.617  0.1743 -0.0289  0.0993
46129SOL    HW145437   2.618   2.211   4.543  0.1693  0.3123  0.3519
46129SOL    HW245438   2.498   2.168   4.624  0.4724  1.7141  1.5803
46130SOL     OW45439  12.540  12.285   2.723 -0.3880  0.3822 -0.0064
46130SOL    HW145440  12.483  12.310   2.651 -1.4690  0.1620  0.7544
46130SOL    HW245441  12.496  12.317   2.802  0.6966  0.4873  0.5847
46131SOL     OW45442   5.750   6.542   1.044 -0.2633  0.0832 -0.2714
46131SOL    HW145443   5.720   6.631   1.026 -0.0786  0.0355 -0.8469
46131SOL    HW245444   5.810   6.523   0.972 -0.8009 -0.7425 -0.5094
46132SOL     OW45445   6.235   6.612   2.551 -0.0271 -0.4602 -0.1639
46132SOL    HW145446   6.276   6.540   2.599  2.4470  0.8190 -0.1704
46132SOL    HW245447   6.301   6.682   2.553 -1.8551  1.3938 -1.1514
46133SOL     OW45448   2.825   3.043   7.151  0.1340  0.2536  0.4339
46133SOL    HW145449   2.772   2.968   7.176 -1.5025  1.2784  0.1487
46133SOL    HW245450   2.806   3.057   7.058  2.0971 -0.2786 -0.1069
46134SOL     OW45451  11.512   0.769   2.614 -0.7660  0.1866 -0.3771
46134SOL    HW145452  11.525   0.697   2.676  0.5250  1.1210  0.4937
46134SOL    HW245453  11.427   0.807   2.638 -0.9492 -0.3748 -0.1364
46135SOL     OW45454  10.103   8.950   7.037  0.0894 -0.2326  0.0803
46135SOL    HW145455  10.053   8.974   6.959  2.2029  0.1114 -1.2455
46135SOL    HW245456  10.106   8.854   7.036  0.5830 -0.2162 -0.6004
46136SOL     OW45457  11.170   9.995   5.072 -0.1286 -0.3616 -0.0356
46136SOL    HW145458  11.126  10.066   5.120 -0.8520 -0.7692 -0.0769
46136SOL    HW245459  11.254  10.033   5.045 -1.2465  1.1173 -1.6707
46137SOL     OW45460  12.575  10.764   0.826  0.3651  0.5646  0.0414
46137SOL    HW145461  12.610  10.683   0.862  0.5200  0.7693  0.3573
46137SOL    HW245462  12.652  10.814   0.799  0.2678  0.5834 -0.2049
46138SOL     OW45463   0.659   7.356   2.499 -0.2156  0.1902  0.2058
46138SOL    HW145464   0.745   7.334   2.464 -0.8202 -0.5345 -0.8538
46138SOL    HW245465   0.625   7.274   2.534 -1.0305  0.1805 -0.5914
46139SOL     OW45466   4.988   5.726   3.837  0.2725  0.4956  0.3730
46139SOL    HW145467   4.978   5.631   3.836  2.2003  0.2635  0.0537
46139SOL    HW245468   4.997   5.749   3.929  0.3454  0.3123  0.4106
46140SOL     OW45469   3.617   3.046   7.805  0.3976  0.2589 -0.3338
46140SOL    HW145470   3.560   3.006   7.739 -1.7913  2.2885  0.2030
46140SOL    HW245471   3.641   3.131   7.768  0.7678  0.5977  0.6514
46141SOL     OW45472   0.432   0.541   6.516  0.0640 -0.3857  0.1098
46141SOL    HW145473   0.404   0.566   6.428 -0.6135  1.1076  0.7144
46141SOL    HW245474   0.380   0.597   6.574  2.0039  0.1631  1.3841
46142SOL     OW45475  10.237   5.445   8.451 -1.0600 -0.7586 -0.1135
46142SOL    HW145476  10.217   5.534   8.423  0.3038  0.1530  1.6236
46142SOL    HW245477  10.274   5.402   8.374  1.6770  1.3291 -0.0628
46143SOL     OW45478   8.431   5.021  11.480 -0.6560  0.5117  0.2487
46143SOL    HW145479   8.466   5.067  11.404 -0.6061  0.7250  0.4003
46143SOL    HW245480   8.347   5.064  11.497 -0.9979 -0.0049 -0.1193
46144SOL     OW45481   6.753   6.420   4.773 -0.1714 -0.4341 -0.1622
46144SOL    HW145482   6.783   6.472   4.848 -2.1401 -1.1967  1.2457
46144SOL    HW245483   6.814   6.442   4.703  1.7678  0.3045  1.6483
46145SOL     OW45484  10.313   5.411   4.251 -0.3883  0.0968  0.4077
46145SOL    HW145485  10.318   5.411   4.346  2.3727 -0.5773  0.3478
46145SOL    HW245486  10.333   5.501   4.225 -3.9886  1.0513  0.4170
46146SOL     OW45487   9.900   4.739   3.186 -0.6035  0.0753  0.6620
46146SOL    HW145488   9.944   4.801   3.128 -0.5139 -1.2228 -0.7366
46146SOL    HW245489   9.963   4.724   3.257 -0.1381  0.6691  0.3854
46147SOL     OW45490   8.847   1.958   6.007 -0.3713 -0.1575  0.6664
46147SOL    HW145491   8.923   1.908   5.978  0.4136  1.9940 -1.2447
46147SOL    HW245492   8.789   1.893   6.048  0.5679 -2.5945 -1.6422
46148SOL     OW45493   1.058  11.878   7.203  0.5524 -0.5175 -0.3638
46148SOL    HW145494   0.967  11.903   7.217  1.7590  3.4831  1.7516
46148SOL    HW245495   1.073  11.894   7.109 -0.0658  2.4974 -0.0332
46149SOL     OW45496   4.438   8.675   9.780 -0.0150  0.1704  0.2930
46149SOL    HW145497   4.349   8.694   9.748  0.0591  2.4185  1.2366
46149SOL    HW245498   4.496   8.709   9.712  0.1023  2.7518  1.5393
46150SOL     OW45499   6.417   4.342   4.753 -0.1209  0.4864  0.1723
46150SOL    HW145500   6.446   4.409   4.815 -1.2696  0.9034  0.2649
46150SOL    HW245501   6.427   4.383   4.667 -0.9424  0.8240  0.2362
46151SOL     OW45502  11.326   3.665   1.303  0.0499 -0.2614 -0.7541
46151SOL    HW145503  11.301   3.587   1.353  2.8240 -0.3120  0.7404
46151SOL    HW245504  11.350   3.633   1.217 -0.3289 -0.8406 -0.6485
46152SOL     OW45505   6.342   3.851   3.101 -0.3317 -0.4411 -0.2221
46152SOL    HW145506   6.413   3.899   3.059  0.1490 -1.7285 -0.9158
46152SOL    HW245507   6.349   3.873   3.193 -1.3608  2.3985 -0.6976
46153SOL     OW45508   0.710   4.967   8.108  0.8735 -0.5751  0.0418
46153SOL    HW145509   0.617   4.989   8.099  0.9366  0.6276  1.7719
46153SOL    HW245510   0.717   4.877   8.076 -0.2058  0.4164 -3.4449
46154SOL     OW45511   7.274   7.236   4.821  0.6042  0.0751 -0.0247
46154SOL    HW145512   7.304   7.194   4.902  2.1131  0.8632 -0.1410
46154SOL    HW245513   7.271   7.329   4.842  1.4859  0.3382 -1.0166
46155SOL     OW45514   4.284   4.197  11.811 -0.1664  0.2580  0.2365
46155SOL    HW145515   4.287   4.267  11.876  0.1635  1.3318 -0.8879
46155SOL    HW245516   4.275   4.243  11.727  1.7129 -0.9507 -0.7004
46156SOL     OW45517   3.381  11.947   2.952  0.2552 -0.1298 -0.2710
46156SOL    HW145518   3.300  11.989   2.980  0.4122  0.7059 -1.0051
46156SOL    HW245519   3.417  12.007   2.886 -0.0482 -1.8939 -2.1494
46157SOL     OW45520   8.347  10.670  11.364  0.5698  0.1783  0.4441
46157SOL    HW145521   8.347  10.702  11.274  0.4515 -0.2531  0.2870
46157SOL    HW245522   8.319  10.578  11.357 -0.0499  0.3200  0.9840
46158SOL     OW45523   7.673  12.154   6.069  0.0242  0.0680 -0.0840
46158SOL    HW145524   7.599  12.095   6.085  1.1560 -0.8662  2.1198
46158SOL    HW245525   7.666  12.221   6.137  0.4549  0.7605 -0.7016
46159SOL     OW45526   7.085  11.185   9.373  0.3693 -0.4247  0.1013
46159SOL    HW145527   7.071  11.091   9.366 -0.0951 -0.4053  0.7177
46159SOL    HW245528   6.998  11.221   9.389  0.4849  0.1564 -0.5148
46160SOL     OW45529   2.508   0.728  11.960 -0.1903 -0.5206 -0.1252
46160SOL    HW145530   2.450   0.670  11.911 -1.5724  1.5110 -1.0503
46160SOL    HW245531   2.523   0.802  11.901  1.9565 -0.1639  0.7859
46161SOL     OW45532   3.733  11.948   1.921  0.3127  0.6176 -0.0959
46161SOL    HW145533   3.797  12.013   1.891  0.4744  0.2649 -0.5195
46161SOL    HW245534   3.648  11.985   1.897  0.4917 -0.5462 -2.8499
46162SOL     OW45535   5.530  10.362   0.542 -0.1571  0.1588  0.7113
46162SOL    HW145536   5.598  10.400   0.486  0.2705  0.3177  1.3404
46162SOL    HW245537   5.525  10.270   0.513  0.8376 -0.0470  1.1440
46163SOL     OW45538   9.359  10.920   0.426 -0.2707 -0.3813 -0.0499
46163SOL    HW145539   9.341  10.970   0.347 -0.8575  0.5709  0.6672
46163SOL    HW245540   9.439  10.958   0.461 -1.1384  0.6099  0.9141
46164SOL     OW45541   6.303  10.139   8.040 -0.0191 -0.1982 -0.1950
46164SOL    HW145542   6.217  10.101   8.020 -1.3405  1.1702  2.4365
46164SOL    HW245543   6.285  10.230   8.064  2.0535 -0.0540  1.1387
46165SOL     OW45544   6.471   9.950   4.175  0.1440 -0.2657 -0.0183
46165SOL    HW145545   6.458   9.903   4.258 -0.0787  1.5597  1.0526
46165SOL    HW245546   6.417  10.028   4.184 -0.7768 -0.5498 -2.3971
46166SOL     OW45547   1.181   4.652   1.210 -0.1557 -0.6467  0.1121
46166SOL    HW145548   1.108   4.622   1.265  0.1264 -1.2180  0.1820
46166SOL    HW245549   1.240   4.577   1.206  0.3743 -0.2238 -0.0423
46167SOL     OW45550  10.382  10.920   3.797 -0.2421  0.4970 -0.8228
46167SOL    HW145551  10.300  10.963   3.771 -0.6357 -0.2281 -0.8047
46167SOL    HW245552  10.449  10.962   3.743 -0.7985  0.2824 -1.7015
46168SOL     OW45553   7.905   6.052   3.448 -0.7449  0.3950 -0.1863
46168SOL    HW145554   7.919   6.146   3.437 -0.0159  0.5022  1.3909
46168SOL    HW245555   7.830   6.046   3.508 -0.3368  0.0064  0.3015
46169SOL     OW45556   8.975   9.195   9.695 -0.0770 -0.3301 -0.0021
46169SOL    HW145557   9.012   9.108   9.681  1.2166 -0.1651  2.0344
46169SOL    HW245558   9.002   9.244   9.617 -0.9150 -1.7180 -1.2352
46170SOL     OW45559   2.011   3.238   6.047  0.3306 -0.0363 -0.3889
46170SOL    HW145560   1.995   3.252   5.954  0.2145  0.9011 -0.2465
46170SOL    HW245561   2.000   3.325   6.086  0.3828 -0.4141  0.4979
46171SOL     OW45562   3.585  11.745   0.467 -0.3704 -0.2440 -0.1870
46171SOL    HW145563   3.643  11.810   0.427  0.4593 -0.5413  0.5130
46171SOL    HW245564   3.531  11.713   0.394 -0.6435  1.0516 -0.5846
46172SOL     OW45565   1.352   8.633   3.169 -0.7193 -0.1311  0.2600
46172SOL    HW145566   1.381   8.553   3.212 -0.8866 -0.4968 -0.2937
46172SOL    HW245567   1.356   8.700   3.237 -1.0895 -0.7189  0.8730
46173SOL     OW45568  12.583   2.184   5.931 -0.1354  0.7415 -0.0844
46173SOL    HW145569  12.492   2.163   5.950  0.0668  0.0632  0.1674
46173SOL    HW245570  12.605   2.130   5.855 -0.0278  1.1223 -0.3272
46174SOL     OW45571   0.633   9.680   2.178 -0.1922 -0.0348 -0.3955
46174SOL    HW145572   0.540   9.665   2.161 -0.0456 -0.7002 -0.6273
46174SOL    HW245573   0.664   9.600   2.220 -0.0239  0.7147  0.9520
46175SOL     OW45574   2.601   9.296  11.880  0.0352 -0.7501  0.1265
46175SOL    HW145575   2.686   9.333  11.906 -0.1200 -1.0059  1.0109
46175SOL    HW245576   2.569   9.355  11.812  0.0626  0.4146  1.0936
46176SOL     OW45577   1.336   6.191   3.406  0.3584 -0.1164 -0.4119
46176SOL    HW145578   1.309   6.232   3.487  1.3665 -1.2467  0.5363
46176SOL    HW245579   1.298   6.103   3.410  1.8153 -0.7619 -0.3514
46177SOL     OW45580  11.625   4.714   0.006  0.3606  0.0132  0.1892
46177SOL    HW145581  11.541   4.736   0.048 -1.5887 -3.0049 -1.7125
46177SOL    HW245582  11.623   4.763  -0.077  0.2788 -0.3441 -0.0217
46178SOL     OW45583   9.493   5.473  10.935  0.2136  0.1507 -0.0959
46178SOL    HW145584   9.460   5.515  10.856  2.0887  0.1550 -0.9275
46178SOL    HW245585   9.555   5.535  10.972  0.8921 -0.6946  0.2308
46179SOL     OW45586   6.935  10.703   0.250  0.0546 -0.2238 -0.0803
46179SOL    HW145587   6.926  10.796   0.227 -0.7833 -0.9611 -3.2338
46179SOL    HW245588   6.845  10.671   0.251  0.2554 -0.8874  1.9689
46180SOL     OW45589   9.235  12.283  11.349  0.0589 -0.1342  0.0624
46180SOL    HW145590   9.294  12.208  11.349  0.9666  0.5532 -0.5153
46180SOL    HW245591   9.173  12.264  11.278 -0.0807 -0.5960  0.3019
46181SOL     OW45592   6.597   9.914   9.767  0.0228 -0.1572  0.1215
46181SOL    HW145593   6.682   9.948   9.796  1.2427 -1.6268 -1.5128
46181SOL    HW245594   6.619   9.840   9.710 -2.4222 -2.7227  2.1970
46182SOL     OW45595   9.336   5.644   8.650 -0.1071  0.1120 -0.2240
46182SOL    HW145596   9.295   5.695   8.580 -1.4915 -1.0492 -0.2964
46182SOL    HW245597   9.272   5.577   8.671  1.3119 -1.0646  0.4725
46183SOL     OW45598   1.897   0.963   5.081 -0.5179  0.4425 -0.9619
46183SOL    HW145599   1.844   0.953   5.161  0.9134  0.4435  0.0219
46183SOL    HW245600   1.849   1.027   5.029 -2.4137 -0.8542 -0.9282
46184SOL     OW45601   2.921   0.324   7.376  0.0552  0.0673 -0.0711
46184SOL    HW145602   2.995   0.362   7.424  0.5621 -2.9229  1.7945
46184SOL    HW245603   2.910   0.237   7.415 -2.3609 -0.8688 -2.5520
46185SOL     OW45604   3.149   7.701  11.517 -0.1910  0.5484 -0.5480
46185SOL    HW145605   3.164   7.787  11.479  0.6230  0.3215 -0.7618
46185SOL    HW245606   3.056   7.701  11.542  0.4026  2.5514  2.1367
46186SOL     OW45607   6.395  10.759   4.709 -0.7106  0.2332  0.0204
46186SOL    HW145608   6.483  10.794   4.699 -0.6433 -0.4322 -2.8301
46186SOL    HW245609   6.370  10.779   4.799  1.6134  2.0910  0.3376
46187SOL     OW45610   0.371   6.307   3.725  0.0886 -0.7325  0.0405
46187SOL    HW145611   0.452   6.280   3.768  2.5798  2.9905 -1.7033
46187SOL    HW245612   0.329   6.367   3.787  0.3941 -0.1868 -0.2723
46188SOL     OW45613   4.750   5.931   1.928  0.0404  0.0991  0.0584
46188SOL    HW145614   4.711   5.957   2.012  0.4945 -1.1536  0.6893
46188SOL    HW245615   4.833   5.979   1.924  0.0451  0.1193  0.3682
46189SOL     OW45616   3.655   0.884   4.920 -0.0836 -0.0425 -0.6142
46189SOL    HW145617   3.682   0.810   4.865  1.5846 -0.3677  0.5342
46189SOL    HW245618   3.683   0.962   4.872  0.5444 -0.2833 -0.6500
46190SOL     OW45619   4.374  12.558   3.727 -0.6222  0.6524 -0.6322
46190SOL    HW145620   4.390  12.650   3.706 -3.3354  1.5623  0.8426
46190SOL    HW245621   4.308  12.530   3.664 -0.4062 -0.0653 -0.5471
46191SOL     OW45622   9.480   1.569   7.408 -0.3333 -0.1123  0.6010
46191SOL    HW145623   9.554   1.515   7.382 -0.8068 -0.5255  0.0842
46191SOL    HW245624   9.512   1.659   7.402  0.3938 -0.3170  1.2603
46192SOL     OW45625   0.557   9.365   0.052  0.9310 -0.1770  0.4875
46192SOL    HW145626   0.582   9.396  -0.035 -0.1951 -0.7249 -0.0617
46192SOL    HW245627   0.479   9.415   0.074  1.8892  0.8320  1.7476
46193SOL     OW45628   6.665   1.086   7.672  0.1406  0.1271  0.1619
46193SOL    HW145629   6.614   1.048   7.744 -0.9898 -1.1685 -1.2665
46193SOL    HW245630   6.629   1.173   7.661 -1.6928 -0.6948 -0.6886
46194SOL     OW45631   6.496  10.019  12.114  0.5645 -0.0232  0.2377
46194SOL    HW145632   6.517   9.948  12.053 -0.3689 -1.7831  1.8513
46194SOL    HW245633   6.514   9.983  12.200  1.1166  2.1321  1.0952
46195SOL     OW45634   0.801   3.220  11.512  0.2641  0.3940 -0.1087
46195SOL    HW145635   0.869   3.238  11.447 -0.3313  1.6122 -0.4111
46195SOL    HW245636   0.849   3.207  11.594  0.8674  1.1323 -0.3379
46196SOL     OW45637   3.659   2.569   8.092 -0.0188 -0.0258 -0.2122
46196SOL    HW145638   3.602   2.595   8.165 -0.1769 -1.6682  0.2744
46196SOL    HW245639   3.636   2.630   8.021 -1.1671  0.4278  0.5206
46197SOL     OW45640   0.122   6.929   4.126  0.2189 -0.1991  0.5640
46197SOL    HW145641   0.173   6.886   4.194 -0.1075 -0.3340  0.7208
46197SOL    HW245642   0.167   7.013   4.112  0.4604 -0.2998  0.7279
46198SOL     OW45643  11.229  11.038   9.441  0.1864 -0.1687  0.3568
46198SOL    HW145644  11.301  11.101   9.451  1.0573 -1.1182  0.1547
46198SOL    HW245645  11.193  11.029   9.529  2.2366 -1.9098  1.1100
46199SOL     OW45646   3.872   2.634   1.075  0.1700  0.1937 -0.3599
46199SOL    HW145647   3.926   2.713   1.082  0.5681 -0.1315  0.2585
46199SOL    HW245648   3.783   2.667   1.063  0.5319  0.7386 -1.8237
46200SOL     OW45649  10.217   7.764   9.668  0.1462 -0.2117  0.5203
46200SOL    HW145650  10.310   7.765   9.692  0.7129  0.7996 -1.5002
46200SOL    HW245651  10.212   7.702   9.596 -0.7318 -0.1372  0.5076
46201SOL     OW45652   8.053  11.981   8.723  0.6038 -0.4059  0.5095
46201SOL    HW145653   8.087  12.030   8.798  3.2593  2.0723 -2.0706
46201SOL    HW245654   8.058  11.889   8.751 -0.4067  0.4597  3.9852
46202SOL     OW45655  11.088   5.881   7.261 -0.0499  0.2898 -0.2767
46202SOL    HW145656  11.017   5.867   7.198 -0.4442  0.4155  0.1300
46202SOL    HW245657  11.074   5.813   7.328  0.0016  0.5371 -0.0145
46203SOL     OW45658   3.050   7.045   5.657  0.4611  0.2464  0.0734
46203SOL    HW145659   3.109   7.039   5.732 -0.4369  0.2201  0.7870
46203SOL    HW245660   3.106   7.028   5.581  0.8561 -2.6656  0.9131
46204SOL     OW45661   7.935   4.767  12.497 -0.6384 -0.2617  0.4736
46204SOL    HW145662   7.980   4.684  12.516 -0.5095  0.1441  2.1200
46204SOL    HW245663   7.906   4.798  12.583 -0.5523  1.4678 -0.0904
46205SOL     OW45664   9.828   1.167   6.146  0.1641  0.7197  0.1431
46205SOL    HW145665   9.844   1.122   6.230  0.5834  2.6088  1.1224
46205SOL    HW245666   9.770   1.107   6.098 -0.8482 -0.0168  2.1508
46206SOL     OW45667   4.553   6.936   3.662 -0.2072  0.2758  0.1505
46206SOL    HW145668   4.562   6.842   3.643 -0.0187  0.1394  0.8608
46206SOL    HW245669   4.553   6.940   3.758  1.0978  1.1240  0.1314
46207SOL     OW45670  10.116  12.564   2.066 -0.4911  0.5507 -0.3530
46207SOL    HW145671  10.154  12.485   2.104 -1.0823  0.1094 -0.6678
46207SOL    HW245672  10.104  12.623   2.141  1.6178  1.0588 -0.3675
46208SOL     OW45673  10.278  10.719   5.601  0.1419 -0.0623 -0.2619
46208SOL    HW145674  10.348  10.713   5.536 -1.1603  1.6058 -1.9580
46208SOL    HW245675  10.307  10.665   5.674  2.5232 -0.5450 -1.4818
46209SOL     OW45676   3.127   3.648   8.757 -0.2862  0.4069 -0.2022
46209SOL    HW145677   3.154   3.614   8.842 -0.9096  0.9536  0.2241
46209SOL    HW245678   3.127   3.571   8.699  0.0425  0.0179  0.3094
46210SOL     OW45679   6.455   0.499  11.805 -0.5981  0.3871 -0.3458
46210SOL    HW145680   6.383   0.470  11.861  1.9101 -1.3157  2.2686
46210SOL    HW245681   6.528   0.511  11.865  1.5765  1.1917 -2.9694
46211SOL     OW45682   3.777   9.042  10.799 -0.1356  0.3101  0.3165
46211SOL    HW145683   3.716   8.979  10.761 -1.2602  2.1101 -1.0185
46211SOL    HW245684   3.862   9.018  10.762 -0.7558  0.2948 -1.1639
46212SOL     OW45685  12.347   9.469   4.950  0.2314  0.3705  0.2986
46212SOL    HW145686  12.376   9.378   4.955  1.3800  0.7068  0.0494
46212SOL    HW245687  12.428   9.519   4.937 -0.6396  1.1296 -3.3087
46213SOL     OW45688   4.456  10.036  11.130  0.0718  0.4123 -0.5425
46213SOL    HW145689   4.549  10.056  11.145 -0.1648  0.5409  0.9202
46213SOL    HW245690   4.451   9.940  11.131  0.1321  0.4116 -0.1959
46214SOL     OW45691   5.056  11.843   5.294 -0.0382  0.2613  0.2005
46214SOL    HW145692   5.090  11.852   5.383 -1.3730  0.8819  0.6848
46214SOL    HW245693   4.991  11.773   5.301  0.8801 -0.7079 -0.6326
46215SOL     OW45694   6.585  10.559   4.895  0.6540 -0.6500  0.2155
46215SOL    HW145695   6.611  10.495   4.961  0.2651  0.6379  1.6561
46215SOL    HW245696   6.583  10.642   4.941  2.2664  0.6365 -1.8914
46216SOL     OW45697   8.481   8.102   2.159  0.0866  0.3327  0.4459
46216SOL    HW145698   8.491   8.176   2.219  1.3940  0.2724  0.3395
46216SOL    HW245699   8.427   8.135   2.087  0.1281  0.9910  0.7178
46217SOL     OW45700   4.951   0.236   1.651 -0.3129 -0.4871 -0.3382
46217SOL    HW145701   4.875   0.179   1.657 -1.3771  0.8762 -0.3635
46217SOL    HW245702   4.935   0.305   1.715  1.3112 -0.6151  0.2370
46218SOL     OW45703  11.624   2.290  12.131  0.0373 -0.1291 -0.2898
46218SOL    HW145704  11.626   2.315  12.038 -1.4403 -1.1937 -0.6287
46218SOL    HW245705  11.532   2.298  12.156 -0.0596 -2.4814  0.3281
46219SOL     OW45706  11.395  11.539   2.523  0.2185 -0.0494 -0.0354
46219SOL    HW145707  11.389  11.458   2.473  1.0662  0.6298 -1.2965
46219SOL    HW245708  11.315  11.587   2.501 -0.0376 -0.3165  0.3064
46220SOL     OW45709   9.362   3.739  10.224  0.5592  0.4567 -0.3613
46220SOL    HW145710   9.299   3.671  10.250  0.4809  0.9462  0.8063
46220SOL    HW245711   9.413   3.755  10.303  1.3901  0.8872 -0.9761
46221SOL     OW45712   7.257   8.789  10.535 -0.2967  0.0511 -0.1886
46221SOL    HW145713   7.263   8.694  10.530 -4.4571 -0.4552  0.8092
46221SOL    HW245714   7.264   8.809  10.629  1.7812  0.9631 -0.4786
46222SOL     OW45715   8.834   6.218   7.524 -0.3977  0.0366  0.0735
46222SOL    HW145716   8.835   6.235   7.619  1.0581 -3.7167  0.9140
46222SOL    HW245717   8.904   6.273   7.489 -0.9347  1.4675  1.1390
46223SOL     OW45718   0.739   1.311   4.077 -0.2741  0.0516 -0.1759
46223SOL    HW145719   0.701   1.283   3.994 -2.6322 -0.7128  1.0633
46223SOL    HW245720   0.767   1.230   4.120 -4.7700 -0.5056  2.3067
46224SOL     OW45721  10.103   0.364   0.651  0.0366  0.2031 -0.0213
46224SOL    HW145722  10.129   0.340   0.740  0.3090  0.4182 -0.0420
46224SOL    HW245723  10.018   0.407   0.662  0.0440  0.1792  0.1312
46225SOL     OW45724   0.625   4.707   0.492 -0.0665 -0.0796  0.0877
46225SOL    HW145725   0.646   4.798   0.514 -0.4136 -0.2036  0.9606
46225SOL    HW245726   0.529   4.704   0.494 -0.0411 -0.8111  1.5802
46226SOL     OW45727   9.679   5.999   8.473  0.8273 -0.0778 -0.3611
46226SOL    HW145728   9.612   5.979   8.408 -0.9534  0.3799  1.2227
46226SOL    HW245729   9.721   5.915   8.491 -0.6503 -0.7682 -0.0208
46227SOL     OW45730   0.576   0.956   7.505  0.1739  0.0231 -0.6427
46227SOL    HW145731   0.623   1.038   7.520 -0.1081  0.1959 -0.7054
46227SOL    HW245732   0.594   0.904   7.583  1.0264 -0.1804 -0.9601
46228SOL     OW45733   1.929   9.171   8.032 -0.0961  0.1505 -0.2107
46228SOL    HW145734   1.971   9.091   8.000 -0.1921  0.5796 -1.4397
46228SOL    HW245735   1.918   9.225   7.955 -1.8040  0.5747  0.2933
46229SOL     OW45736   2.792   4.179   9.668 -0.5487  0.1102 -0.1498
46229SOL    HW145737   2.776   4.104   9.725  1.9320 -0.0529  0.4460
46229SOL    HW245738   2.868   4.223   9.706  3.4000 -1.7916 -4.8202
46230SOL     OW45739   2.028   8.841   9.659 -0.2406 -0.0287  0.1639
46230SOL    HW145740   2.092   8.849   9.730 -0.2812 -0.4151  0.2478
46230SOL    HW245741   2.054   8.907   9.596 -1.3339  1.6452  1.3945
46231SOL     OW45742   8.639   9.613   7.851  0.2105  0.5229  0.0576
46231SOL    HW145743   8.545   9.616   7.870  0.5291 -2.6076  3.3026
46231SOL    HW245744   8.681   9.625   7.936  2.6561 -0.0925 -0.9774
46232SOL     OW45745  10.221   7.427   1.491  0.6308 -0.1803  0.1000
46232SOL    HW145746  10.261   7.458   1.409  3.9083 -1.9424  0.8576
46232SOL    HW245747  10.257   7.485   1.558  1.3970 -1.3611  0.7316
46233SOL     OW45748  12.390   1.565   3.181  0.4743  0.1406 -0.3775
46233SOL    HW145749  12.457   1.631   3.170  0.8206 -0.1763 -0.1847
46233SOL    HW245750  12.364   1.571   3.273  0.9222 -0.3833 -0.2135
46234SOL     OW45751   4.532  10.504   6.125 -0.1049 -0.2531 -0.3438
46234SOL    HW145752   4.505  10.478   6.037  2.0054 -0.2273 -1.0670
46234SOL    HW245753   4.596  10.437   6.151 -1.9255 -1.2695  1.9503
46235SOL     OW45754   3.128   8.128   9.396  0.4400  0.1480 -0.5332
46235SOL    HW145755   3.057   8.111   9.335 -1.5414  0.9068  1.4423
46235SOL    HW245756   3.195   8.171   9.343 -1.1583  0.7026 -2.2066
46236SOL     OW45757   2.156   8.284   1.557  0.2458  0.0873 -0.1172
46236SOL    HW145758   2.225   8.342   1.587  0.1735 -0.2275  0.6768
46236SOL    HW245759   2.160   8.209   1.616 -0.8732  0.1343  0.0336
46237SOL     OW45760   1.448   2.563   5.547  0.0800  0.4523 -0.2209
46237SOL    HW145761   1.387   2.510   5.597  2.0504 -2.3620 -0.5837
46237SOL    HW245762   1.397   2.593   5.471 -2.4439  3.3714  2.3376
46238SOL     OW45763  10.248  12.307   2.820  0.1877 -0.0301  0.3544
46238SOL    HW145764  10.279  12.290   2.909 -0.6008  1.8795  1.0650
46238SOL    HW245765  10.172  12.249   2.810  0.2106 -0.1798  0.9768
46239SOL     OW45766   9.471   3.672   5.455 -0.2613  0.3826 -0.1960
46239SOL    HW145767   9.544   3.724   5.421  1.8100  0.5177  3.8297
46239SOL    HW245768   9.501   3.582   5.452 -1.2331  0.0682 -1.2554
46240SOL     OW45769  10.795   1.147   4.800 -0.4554  0.2742 -0.6829
46240SOL    HW145770  10.717   1.184   4.841 -0.1830 -0.1659  0.2653
46240SOL    HW245771  10.768   1.061   4.769 -0.3451  0.1134 -0.3362
46241SOL     OW45772   2.735   0.730   4.971 -0.2746  0.0616 -0.3272
46241SOL    HW145773   2.764   0.780   4.895  0.0260 -0.2933 -0.4488
46241SOL    HW245774   2.675   0.788   5.016 -0.9371  0.0557 -1.1700
46242SOL     OW45775   5.170   8.084   0.058  0.5084  0.1032 -0.1731
46242SOL    HW145776   5.264   8.090   0.074  0.7810 -0.7916 -1.3153
46242SOL    HW245777   5.145   7.997   0.088  0.5168 -0.5482 -1.8975
46243SOL     OW45778  11.327   5.362  11.930 -0.6340 -0.1853 -0.1122
46243SOL    HW145779  11.409   5.357  11.881 -0.6343  0.1303 -0.1466
46243SOL    HW245780  11.272   5.294  11.892 -0.2264 -0.6969  0.2121
46244SOL     OW45781   0.536   4.073  10.358 -0.1729  0.7928  0.9729
46244SOL    HW145782   0.614   4.023  10.379  1.0411  2.7370  1.3340
46244SOL    HW245783   0.496   4.093  10.443 -1.3190 -0.4823  0.7797
46245SOL     OW45784   4.300   8.990   7.936 -0.2832 -0.2266 -0.0841
46245SOL    HW145785   4.347   9.073   7.930 -0.8331  0.2391  1.3946
46245SOL    HW245786   4.358   8.926   7.895  0.3181  0.8138 -0.9149
46246SOL     OW45787   4.336   8.963  12.332 -0.0362 -0.4829  0.2147
46246SOL    HW145788   4.277   8.933  12.262 -1.9447  2.2908  0.4867
46246SOL    HW245789   4.286   8.949  12.412  1.5600 -2.2500  0.9838
46247SOL     OW45790  10.741   9.084  11.741  0.4454  0.2753  0.6534
46247SOL    HW145791  10.763   9.118  11.654  1.6921 -0.9244  0.4745
46247SOL    HW245792  10.765   9.154  11.801  0.8398  0.6030  0.1256
46248SOL     OW45793  10.588   1.039   7.251  0.1055 -0.5151 -0.3812
46248SOL    HW145794  10.543   1.111   7.207 -1.1039 -0.5230  0.7707
46248SOL    HW245795  10.519   0.975   7.267  0.9806 -1.5232 -0.5347
46249SOL     OW45796   2.281  12.499   4.547 -0.1214  0.4014  0.2046
46249SOL    HW145797   2.299  12.556   4.472  0.5171  0.1101  0.1316
46249SOL    HW245798   2.227  12.429   4.511 -2.2773  1.7559  0.6068
46250SOL     OW45799   2.326   9.598   6.973  0.9071 -0.3976  0.2245
46250SOL    HW145800   2.267   9.673   6.983  2.1487  0.6333  0.0901
46250SOL    HW245801   2.393   9.611   7.041  0.3844 -2.1592  1.1229
46251SOL     OW45802   8.876   7.385   1.201 -0.3197 -0.2198 -0.1910
46251SOL    HW145803   8.784   7.365   1.184 -0.9357  2.3543 -0.3270
46251SOL    HW245804   8.894   7.345   1.286 -1.8770  0.0480  0.3021
46252SOL     OW45805  10.652   5.305   4.500 -0.4449  0.3344  0.8349
46252SOL    HW145806  10.585   5.238   4.509  1.1402 -1.7427 -1.3846
46252SOL    HW245807  10.733   5.263   4.530  1.1770 -0.0767 -3.4050
46253SOL     OW45808   5.028   4.104   4.561  0.0673 -0.1869 -0.0086
46253SOL    HW145809   5.019   4.174   4.626 -0.2915 -0.8523  0.6678
46253SOL    HW245810   5.096   4.047   4.597 -0.4581 -0.8066  0.0220
46254SOL     OW45811   7.225   5.066   5.526 -0.5815  0.2441 -0.2724
46254SOL    HW145812   7.293   5.014   5.569  0.2875  0.4154 -1.3642
46254SOL    HW245813   7.216   5.026   5.439 -0.9550  1.0119 -0.5971
46255SOL     OW45814   3.313   1.201   0.813  0.2134  0.4706  0.1139
46255SOL    HW145815   3.249   1.150   0.763 -0.5771  0.4216  1.1459
46255SOL    HW245816   3.392   1.201   0.758  0.0661 -1.4067 -0.1671
46256SOL     OW45817  12.348   8.709   2.063 -0.0096  0.3857 -0.1899
46256SOL    HW145818  12.372   8.621   2.037 -0.0744  0.4673 -0.5243
46256SOL    HW245819  12.428   8.761   2.051  0.4266  0.1146  1.2777
46257SOL     OW45820  11.788   0.114   8.926 -0.2944 -0.3670  0.4336
46257SOL    HW145821  11.877   0.151   8.924 -0.2408 -0.4249  1.2387
46257SOL    HW245822  11.795   0.039   8.984 -0.4798 -1.4817 -0.9473
46258SOL     OW45823   5.398   5.037   2.176  0.5302  0.0767 -0.0632
46258SOL    HW145824   5.481   4.988   2.171  2.0727  2.2442  1.8086
46258SOL    HW245825   5.347   4.992   2.243 -0.3583 -1.9115 -1.9801
46259SOL     OW45826   8.440   0.839   2.670  0.3639  0.1436 -0.2710
46259SOL    HW145827   8.376   0.846   2.598  1.2490 -0.4695 -1.1425
46259SOL    HW245828   8.509   0.782   2.635  0.1825 -1.2920  1.5381
46260SOL     OW45829   2.795   3.757  12.373 -0.1753 -0.4808 -0.6154
46260SOL    HW145830   2.720   3.807  12.405  1.7219  0.4281  2.9671
46260SOL    HW245831   2.765   3.667  12.370 -1.5977 -0.0591  0.1379
46261SOL     OW45832   1.342   0.439   9.359  0.7277 -0.3298  0.2848
46261SOL    HW145833   1.387   0.468   9.438  1.0167 -1.4050  0.5337
46261SOL    HW245834   1.261   0.399   9.391  0.5902 -0.2851 -0.0041
46262SOL     OW45835   1.879  10.957  11.375  0.4921 -0.0611  0.2336
46262SOL    HW145836   1.868  10.972  11.282  0.3641 -0.0360  0.2530
46262SOL    HW245837   1.822  10.882  11.395 -0.3403  0.6289  0.5053
46263SOL     OW45838   4.304   8.443  11.489  0.0479 -0.3668  0.6824
46263SOL    HW145839   4.351   8.433  11.572 -1.5033  1.0863  1.7941
46263SOL    HW245840   4.248   8.520  11.502  0.3011  0.3562 -1.9860
46264SOL     OW45841   8.954   6.756   5.762 -0.1631 -0.2033 -0.6251
46264SOL    HW145842   8.888   6.687   5.767 -0.8632  0.2195 -2.8870
46264SOL    HW245843   8.998   6.742   5.679  2.4116 -0.2336  0.6544
46265SOL     OW45844   3.525   8.438   5.548  0.3331  0.7873 -0.2812
46265SOL    HW145845   3.527   8.447   5.643 -1.1366  0.6760 -0.2279
46265SOL    HW245846   3.487   8.352   5.532  2.1914  0.0356 -0.9791
46266SOL     OW45847   2.218  11.040  10.738  0.6011 -0.2020 -0.0966
46266SOL    HW145848   2.255  11.111  10.790  1.8497 -0.6520 -0.3481
46266SOL    HW245849   2.292  10.984  10.717 -0.0992 -0.7424 -1.2397
46267SOL     OW45850   9.550  11.620   2.901 -0.4877  0.0608 -0.2720
46267SOL    HW145851   9.631  11.569   2.894 -0.2355  0.4399 -0.1228
46267SOL    HW245852   9.504  11.603   2.819  0.2381  0.7033 -0.8191
46268SOL     OW45853   0.052   0.792   3.407  0.2742 -0.1882  0.3730
46268SOL    HW145854   0.022   0.722   3.349 -1.3658 -1.6196  2.7692
46268SOL    HW245855  -0.010   0.791   3.480  0.7179  3.2435  0.9441
46269SOL     OW45856  11.508   9.359   1.213 -0.6021 -0.1569  0.0693
46269SOL    HW145857  11.478   9.429   1.271 -3.1476  0.1900 -1.5007
46269SOL    HW245858  11.440   9.352   1.146  0.5340 -2.8294 -0.9644
46270SOL     OW45859   2.998  10.374   9.449  0.0122  0.5046 -0.2183
46270SOL    HW145860   3.064  10.440   9.472 -1.8631  1.5748  2.6203
46270SOL    HW245861   2.920  10.425   9.425 -0.7911 -0.6879 -0.2226
46271SOL     OW45862   4.706   9.488  10.125 -0.5776  0.6760 -0.1251
46271SOL    HW145863   4.789   9.485  10.172 -0.5898  0.1286 -0.1305
46271SOL    HW245864   4.703   9.406  10.075 -0.3935  1.4015 -1.3840
46272SOL     OW45865   1.997   9.990   9.048 -0.1534  0.6483  0.0157
46272SOL    HW145866   2.011  10.068   9.102  0.5896  0.7492 -0.3047
46272SOL    HW245867   2.083   9.947   9.045 -0.2732  0.4460 -0.7603
46273SOL     OW45868   4.704   2.872   4.352  0.2525  0.3921 -0.1083
46273SOL    HW145869   4.720   2.952   4.303 -0.2506  1.5176  1.5009
46273SOL    HW245870   4.629   2.892   4.408 -0.2149 -1.3788 -0.0490
46274SOL     OW45871   9.922   2.499   0.152  0.5038 -0.2530 -0.0450
46274SOL    HW145872   9.964   2.556   0.088  1.7191 -1.4894 -0.3871
46274SOL    HW245873   9.835   2.538   0.166  0.1125 -0.0657 -2.5957
46275SOL     OW45874   4.806   7.327   3.212  0.1241  0.8897  0.1355
46275SOL    HW145875   4.797   7.274   3.133 -1.1461 -0.2689  0.9864
46275SOL    HW245876   4.793   7.417   3.183 -2.1941  0.3475 -0.7533
46276SOL     OW45877   3.859   2.659   6.779  0.3204 -0.3741 -0.4139
46276SOL    HW145878   3.932   2.718   6.763  0.7254 -0.3931  1.2792
46276SOL    HW245879   3.808   2.662   6.698  0.9380  1.4087 -0.7674
46277SOL     OW45880   5.065   4.250   6.323 -0.0063  0.6964  0.0943
46277SOL    HW145881   5.136   4.254   6.259 -1.1382  1.3816 -1.1679
46277SOL    HW245882   5.054   4.157   6.342  0.1892  0.4611 -0.9083
46278SOL     OW45883   1.378   7.501   0.859 -0.3726  0.2850 -0.1620
46278SOL    HW145884   1.340   7.413   0.847 -0.1724  0.2604 -0.6527
46278SOL    HW245885   1.396   7.531   0.770 -2.3839  1.6940 -0.1694
46279SOL     OW45886  12.576  11.075   5.629  0.0185  0.5926 -0.0066
46279SOL    HW145887  12.534  11.137   5.569 -0.2282 -0.0809 -0.5468
46279SOL    HW245888  12.519  11.074   5.706 -0.4371  0.4015 -0.3431
46280SOL     OW45889   9.000   4.810   2.737 -0.5175  0.2796  0.1333
46280SOL    HW145890   8.997   4.714   2.735 -0.1890  0.2777 -0.8469
46280SOL    HW245891   8.919   4.836   2.781  0.2373 -0.4788  2.1284
46281SOL     OW45892   6.742   4.654   8.388  0.0962  0.4517 -0.0996
46281SOL    HW145893   6.794   4.582   8.353 -0.3777 -1.4532  2.7149
46281SOL    HW245894   6.653   4.639   8.355 -0.0191 -0.3806  0.5406
46282SOL     OW45895   9.083  10.752   9.437 -0.4114 -0.0901  0.3242
46282SOL    HW145896   9.030  10.827   9.408 -0.3831  0.6884  2.1278
46282SOL    HW245897   9.139  10.788   9.506 -0.1936 -1.7133  1.0426
46283SOL     OW45898  12.254   6.489   8.852 -0.3788 -0.3932  0.5865
46283SOL    HW145899  12.330   6.453   8.808 -0.6208  0.8292 -0.9143
46283SOL    HW245900  12.195   6.517   8.781 -2.7438 -2.2625  1.6546
46284SOL     OW45901   8.865   0.486   1.826 -0.3034  0.3407 -0.0502
46284SOL    HW145902   8.922   0.545   1.877  1.1339  0.6367 -1.8784
46284SOL    HW245903   8.787   0.539   1.807 -0.9212  0.1834  1.8667
46285SOL     OW45904   7.861   1.872   4.177 -0.6846  0.1777 -0.0312
46285SOL    HW145905   7.879   1.840   4.265  0.6293  0.2107 -0.2669
46285SOL    HW245906   7.891   1.963   4.177  0.3177 -0.1341 -0.8007
46286SOL     OW45907   1.657  11.026   7.866  0.7847  0.3405 -0.0022
46286SOL    HW145908   1.593  11.051   7.799  1.1323 -0.3269 -0.5995
46286SOL    HW245909   1.678  11.108   7.911  1.6820  1.1180 -1.7196
46287SOL     OW45910   2.511   0.574  12.188 -0.4396  0.2801 -0.2807
46287SOL    HW145911   2.543   0.636  12.122  1.3205 -0.7733 -0.4533
46287SOL    HW245912   2.528   0.488  12.151 -0.9619 -0.3318  0.8500
46288SOL     OW45913   9.386   2.994   1.836 -0.4717 -0.0848  0.2889
46288SOL    HW145914   9.443   2.918   1.846  1.1782  1.1102  0.3365
46288SOL    HW245915   9.305   2.970   1.882  0.3653 -1.4331  1.1189
46289SOL     OW45916  11.210   8.396  10.341  0.2001  0.1258 -0.1012
46289SOL    HW145917  11.289   8.449  10.354  0.4115 -0.0546 -0.6313
46289SOL    HW245918  11.241   8.318  10.295 -0.1797 -0.2655  0.2982
46290SOL     OW45919   8.621  11.383   3.324  0.1596  0.1217  0.3007
46290SOL    HW145920   8.668  11.302   3.344  0.2834  0.1575  0.1573
46290SOL    HW245921   8.549  11.385   3.386 -0.0811 -0.3093  0.0441
46291SOL     OW45922  11.030   4.853  11.064  0.3404 -0.1140 -0.4521
46291SOL    HW145923  10.955   4.795  11.080 -0.5544  1.2451  0.4984
46291SOL    HW245924  11.077   4.856  11.147 -0.7758  2.0476  0.1864
46292SOL     OW45925  10.743  12.336   3.642 -0.0969 -0.1867 -0.5906
46292SOL    HW145926  10.737  12.241   3.631 -0.3814 -0.2090 -0.2642
46292SOL    HW245927  10.685  12.355   3.716  1.2239  0.0413  0.4070
46293SOL     OW45928  12.049   5.241   2.357 -0.2094 -0.0005  0.7669
46293SOL    HW145929  12.013   5.291   2.430 -2.3362  2.1453 -1.5333
46293SOL    HW245930  11.986   5.172   2.341  0.0566 -0.2362  0.7171
46294SOL     OW45931   8.949   5.537   0.708  0.0794  0.1144  0.1279
46294SOL    HW145932   8.992   5.536   0.794 -2.3003  0.6441  1.4082
46294SOL    HW245933   8.947   5.445   0.682  0.0372 -0.1704  1.0753
46295SOL     OW45934   8.363  12.026   9.671 -0.2188  0.2440 -0.4250
46295SOL    HW145935   8.393  12.024   9.762 -0.6473 -1.0062 -0.2904
46295SOL    HW245936   8.337  11.936   9.653 -0.0291  0.4537 -1.8329
46296SOL     OW45937   8.135   9.364   9.867  0.2974  0.0539  0.0804
46296SOL    HW145938   8.073   9.432   9.894 -0.9896 -0.2837 -1.8583
46296SOL    HW245939   8.104   9.285   9.910  1.1482  0.4173  1.4423
46297SOL     OW45940   9.540   8.625   8.189  0.6254 -0.1688  0.4078
46297SOL    HW145941   9.480   8.620   8.114  2.1142 -2.3873 -0.7670
46297SOL    HW245942   9.562   8.534   8.208  2.4097  0.4914  1.7965
46298SOL     OW45943   6.701  11.631   4.339 -0.3260  0.0632  0.7208
46298SOL    HW145944   6.631  11.639   4.404 -0.1858  0.1458  0.8604
46298SOL    HW245945   6.725  11.538   4.341  0.1664  0.1950  1.2970
46299SOL     OW45946   4.166   2.165   7.798 -0.3429  0.4742  0.1008
46299SOL    HW145947   4.074   2.155   7.823 -0.3923 -0.5093 -0.4247
46299SOL    HW245948   4.164   2.197   7.708 -0.2298 -2.3171 -0.9813
46300SOL     OW45949   7.461   2.548  10.490 -0.1668 -0.4115  0.1477
46300SOL    HW145950   7.418   2.572  10.572  0.3348 -0.6604  0.4916
46300SOL    HW245951   7.468   2.453  10.494 -1.0263 -0.5163 -0.6359
46301SOL     OW45952   4.148   6.335   0.325  0.2291  0.2868 -0.0773
46301SOL    HW145953   4.183   6.297   0.405 -0.9288 -1.1385 -0.1924
46301SOL    HW245954   4.067   6.379   0.353  0.3943  0.7294 -0.2936
46302SOL     OW45955   9.562  11.694   4.879  0.0700  0.4136  0.5145
46302SOL    HW145956   9.656  11.679   4.888 -0.1410 -0.3262  1.6121
46302SOL    HW245957   9.523  11.656   4.957 -1.0482  1.7846  0.6765
46303SOL     OW45958  12.505  11.871   4.421 -0.2626 -0.2772  0.3463
46303SOL    HW145959  12.462  11.786   4.433  0.6852 -0.7545  0.4661
46303SOL    HW245960  12.485  11.919   4.501  0.4159 -0.9445  0.9329
46304SOL     OW45961  11.050   4.050   2.826  0.3909  0.1617  0.2418
46304SOL    HW145962  11.123   3.992   2.848  0.7310  0.2444 -0.6510
46304SOL    HW245963  11.067   4.077   2.736  0.5450  2.1062  0.8119
46305SOL     OW45964   3.506   8.239   4.206 -0.7448 -0.1933  0.1887
46305SOL    HW145965   3.486   8.193   4.288 -1.4935  0.8432  0.6093
46305SOL    HW245966   3.531   8.169   4.145  1.2944 -0.8798  1.6958
46306SOL     OW45967   5.781   0.470   2.559  0.1809  0.7346 -0.4848
46306SOL    HW145968   5.807   0.557   2.588  0.4021  0.0643  1.5233
46306SOL    HW245969   5.824   0.410   2.620 -0.1406 -0.7884 -1.6619
46307SOL     OW45970   4.623   2.446   7.664  0.2381 -0.4907  0.1856
46307SOL    HW145971   4.570   2.374   7.699 -0.4625 -0.9932 -1.7569
46307SOL    HW245972   4.711   2.430   7.698 -0.2618 -1.2745  1.1634
46308SOL     OW45973   9.512   5.608   2.172 -0.0729 -0.2151 -0.1720
46308SOL    HW145974   9.493   5.689   2.125  0.7438 -0.0224 -0.1746
46308SOL    HW245975   9.484   5.626   2.262 -1.6667 -0.5968 -0.5596
46309SOL     OW45976   7.547   0.192   3.938 -0.1065 -0.2104  0.3862
46309SOL    HW145977   7.503   0.268   3.899 -0.5578  0.1433  1.5355
46309SOL    HW245978   7.500   0.177   4.020  0.8310 -0.9032  0.8134
46310SOL     OW45979   9.380   6.405   5.167 -0.0222 -0.4925  0.0736
46310SOL    HW145980   9.331   6.323   5.160 -1.0812  0.2108 -1.1981
46310SOL    HW245981   9.331   6.456   5.232  1.3959 -1.3295  1.8881
46311SOL     OW45982   3.887   0.492   7.807  0.4872  0.2028  0.1749
46311SOL    HW145983   3.972   0.473   7.767  0.3910 -0.8399  0.4414
46311SOL    HW245984   3.886   0.441   7.888 -1.2757 -1.6174 -0.9028
46312SOL     OW45985   4.775  10.018  11.742  0.1885  0.3013  0.9893
46312SOL    HW145986   4.688  10.058  11.747 -0.4139 -0.9482  0.7921
46312SOL    HW245987   4.802  10.029  11.651 -1.1726 -2.0872  0.2111
46313SOL     OW45988  11.437  10.080  10.185  0.5373  0.0700  0.3948
46313SOL    HW145989  11.492  10.118  10.116 -0.5300 -0.0120 -0.5258
46313SOL    HW245990  11.482  10.103  10.266  3.2544 -2.0654 -0.3514
46314SOL     OW45991   5.094  10.180   2.742 -0.0525  0.0624  0.4110
46314SOL    HW145992   5.082  10.109   2.805 -0.5351  1.0750  1.5062
46314SOL    HW245993   5.024  10.242   2.762  1.7551  2.0143  1.1242
46315SOL     OW45994   9.767   6.350   2.561 -0.4237  0.6138  0.0684
46315SOL    HW145995   9.826   6.278   2.585  0.1067  0.7073 -0.9213
46315SOL    HW245996   9.724   6.319   2.481  1.7786  2.4443 -1.9416
46316SOL     OW45997   4.191   2.773  11.963  0.2562 -0.2266 -0.0022
46316SOL    HW145998   4.127   2.818  12.019  0.9353 -0.0946  0.6879
46316SOL    HW245999   4.276   2.808  11.992  0.8879 -2.5506  1.1504
46317SOL     OW46000   5.976  11.439  11.833 -0.2266 -0.0361 -0.5498
46317SOL    HW146001   6.048  11.500  11.848 -0.1179 -0.3309  0.1498
46317SOL    HW246002   5.953  11.406  11.920 -1.9432  0.8781 -0.6091
46318SOL     OW46003   8.974   1.313  12.357 -0.2789  0.1664 -0.6886
46318SOL    HW146004   8.911   1.290  12.426  0.4916 -3.2957 -0.9550
46318SOL    HW246005   8.939   1.271  12.278  2.4784 -2.3111 -0.7342
46319SOL     OW46006   5.840   8.172   3.847 -0.1811 -0.1318  0.1301
46319SOL    HW146007   5.787   8.097   3.819 -1.8211  1.1786 -0.4667
46319SOL    HW246008   5.855   8.156   3.941  0.9593 -2.0041 -0.3105
46320SOL     OW46009   1.898   1.617  12.465  0.0661  0.1286  0.1386
46320SOL    HW146010   1.860   1.694  12.506 -0.4019 -0.3447  0.6102
46320SOL    HW246011   1.823   1.560  12.446  0.3628 -0.0396 -0.5803
46321SOL     OW46012   2.277   4.248   6.907  0.1296 -0.0941 -0.2504
46321SOL    HW146013   2.217   4.186   6.867 -1.1187  0.5498  0.5516
46321SOL    HW246014   2.364   4.219   6.880 -0.4862 -1.5508 -0.7401
46322SOL     OW46015   2.823   9.619   5.171  0.4121  0.1715  0.1732
46322SOL    HW146016   2.806   9.573   5.088  3.2999  1.3131 -1.2004
46322SOL    HW246017   2.800   9.556   5.239 -1.8420 -0.9023 -1.4671
46323SOL     OW46018  10.463   9.050   4.539 -0.0190 -0.2677  0.3589
46323SOL    HW146019  10.454   9.123   4.478  2.4497  0.4210  0.7408
46323SOL    HW246020  10.409   8.980   4.500  2.7307 -0.4885 -3.6692
46324SOL     OW46021   9.483   5.906   1.668 -0.5788 -0.1102  0.4425
46324SOL    HW146022   9.527   5.914   1.583  1.9398  0.3516  1.6880
46324SOL    HW246023   9.477   5.812   1.684 -1.0695 -0.1993 -0.2174
46325SOL     OW46024   4.098  12.549   8.082  0.6886 -0.1803  0.4296
46325SOL    HW146025   4.169  12.612   8.073 -1.1955  1.9753 -0.2269
46325SOL    HW246026   4.107  12.491   8.007  1.3340  0.5109 -0.0334
46326SOL     OW46027  12.066   9.114   1.214 -0.3258 -0.5429 -0.3899
46326SOL    HW146028  12.121   9.193   1.213 -0.3539 -0.4889  0.5965
46326SOL    HW246029  12.016   9.122   1.295  0.5866 -2.1801  0.3841
46327SOL     OW46030   3.174   2.473  10.558  0.2589 -0.5541  0.2987
46327SOL    HW146031   3.161   2.394  10.505  0.9210  1.2137 -2.7954
46327SOL    HW246032   3.092   2.521  10.550  0.1768 -0.5007  1.3880
46328SOL     OW46033  11.406   8.767   5.215 -0.3856  0.3985  0.0959
46328SOL    HW146034  11.418   8.766   5.310  0.1387 -0.1287  0.0300
46328SOL    HW246035  11.418   8.859   5.191  2.0477  0.1829  0.2542
46329SOL     OW46036   1.290   1.019  11.966  0.3155  0.7323  0.0844
46329SOL    HW146037   1.317   1.079  12.036 -1.2439  1.9659 -0.3136
46329SOL    HW246038   1.239   1.074  11.906  0.6716 -0.5520 -1.4437
46330SOL     OW46039   9.160   4.927   1.316 -0.2215  0.1949 -0.3090
46330SOL    HW146040   9.181   4.964   1.230 -0.5831  1.4325  0.1173
46330SOL    HW246041   9.070   4.954   1.333 -1.3861 -2.8965 -0.9791
46331SOL     OW46042   3.497   1.337   7.618  0.5552 -0.3160 -0.0666
46331SOL    HW146043   3.562   1.341   7.689  0.3239 -0.1132  0.1328
46331SOL    HW246044   3.516   1.254   7.573 -0.5926 -1.4642  1.4660
46332SOL     OW46045   2.008   5.745   3.150  0.2405 -0.2103 -0.3063
46332SOL    HW146046   1.928   5.765   3.199  0.6729 -3.7938  2.2745
46332SOL    HW246047   1.994   5.656   3.118  1.9583  0.3056 -2.7175
46333SOL     OW46048   5.545   8.395   8.446  0.4308  0.1203  0.2885
46333SOL    HW146049   5.639   8.402   8.462  0.5734 -0.5153 -0.2151
46333SOL    HW246050   5.510   8.481   8.467  1.0868  0.2734  0.7587
46334SOL     OW46051  10.211   4.530   7.223 -0.0997  0.4749 -0.3336
46334SOL    HW146052  10.264   4.608   7.236  1.0901 -0.0070 -2.0082
46334SOL    HW246053  10.268   4.457   7.248 -0.0372 -0.0425 -1.9140
46335SOL     OW46054  12.404   7.284   2.601  0.6349 -0.0420 -0.3037
46335SOL    HW146055  12.335   7.233   2.558 -1.4848  1.0208  1.6438
46335SOL    HW246056  12.372   7.374   2.599  0.4781  0.1028  3.1933
46336SOL     OW46057   2.341   9.608  12.098 -0.3659 -0.0337  0.2993
46336SOL    HW146058   2.326   9.590  12.191 -3.1044 -2.1068 -0.3970
46336SOL    HW246059   2.364   9.523  12.060 -1.3690  0.3357 -1.2275
46337SOL     OW46060   8.124   5.693   9.606  1.2487  0.2077  0.0242
46337SOL    HW146061   8.068   5.642   9.665 -0.6499 -0.6481 -2.3473
46337SOL    HW246062   8.092   5.783   9.614  0.5161 -0.0248 -0.2048
46338SOL     OW46063   4.368   8.877   6.758  0.0169  1.0141 -0.4039
46338SOL    HW146064   4.359   8.905   6.667 -0.9787 -0.9087 -0.9545
46338SOL    HW246065   4.453   8.912   6.785  0.8787  0.6805 -2.4392
46339SOL     OW46066  11.909   0.292   3.952  0.2870 -0.7567  0.1562
46339SOL    HW146067  11.835   0.313   3.895 -0.2333  1.4514  1.4740
46339SOL    HW246068  11.985   0.294   3.895 -0.3931 -0.3714 -0.7656
46340SOL     OW46069   3.238   8.162   4.600 -1.0441 -0.0670  0.0659
46340SOL    HW146070   3.268   8.178   4.690  1.3723 -1.0526 -0.4748
46340SOL    HW246071   3.233   8.249   4.561  0.8246  0.2156  0.3502
46341SOL     OW46072   0.630   2.739   9.689 -0.2650 -0.6925  0.0808
46341SOL    HW146073   0.625   2.648   9.659  0.7367 -1.1329  1.1643
46341SOL    HW246074   0.721   2.764   9.673 -0.5238  0.1190 -0.1714
46342SOL     OW46075  11.753  11.533   2.857  0.4062  0.8186 -0.1186
46342SOL    HW146076  11.789  11.445   2.847 -1.5907 -0.1687  0.8848
46342SOL    HW246077  11.829  11.588   2.878  1.7940 -0.4930 -1.4183
46343SOL     OW46078   9.951  10.198   7.099 -0.4041 -0.1470  0.1777
46343SOL    HW146079   9.992  10.170   7.018  0.7982  1.7180  0.0721
46343SOL    HW246080   9.958  10.123   7.158  1.0694 -0.6509 -0.6153
46344SOL     OW46081   9.688   0.228   2.321  0.1515  0.5787 -0.2429
46344SOL    HW146082   9.715   0.167   2.390 -0.7050 -0.1608 -0.5435
46344SOL    HW246083   9.593   0.236   2.332  0.0809  0.8481 -1.0151
46345SOL     OW46084   9.074  10.065   2.088  0.1035  0.5701 -0.1355
46345SOL    HW146085   9.065  10.057   2.183 -0.2869 -1.2709 -0.2824
46345SOL    HW246086   8.985  10.068   2.055  0.0815 -2.0096 -0.5837
46346SOL     OW46087   4.734  11.744   7.542  0.5777 -0.6068 -0.1751
46346SOL    HW146088   4.765  11.823   7.497  0.7570  0.2718  1.4116
46346SOL    HW246089   4.685  11.696   7.476 -0.2167  1.2346 -0.9768
46347SOL     OW46090  11.489   6.949   4.315 -0.2554 -0.3223 -0.5069
46347SOL    HW146091  11.543   6.880   4.277 -0.6474 -1.1777  0.4534
46347SOL    HW246092  11.442   6.986   4.240  0.7068 -0.4061 -1.1760
46348SOL     OW46093   0.063   0.207   3.254 -0.2536 -0.3891  0.3474
46348SOL    HW146094  -0.023   0.230   3.217  0.3824  0.9144 -0.3727
46348SOL    HW246095   0.053   0.116   3.281 -0.7988 -1.5170 -3.1105
46349SOL     OW46096   2.350   8.449   4.926 -0.3454 -0.4865 -0.0739
46349SOL    HW146097   2.313   8.365   4.952 -0.8152 -0.2031  0.1986
46349SOL    HW246098   2.280   8.491   4.875 -1.2667  0.9424  2.1876
46350SOL     OW46099   7.075   6.149   3.371 -0.0065 -0.0352 -1.1688
46350SOL    HW146100   7.100   6.058   3.353 -1.4942 -0.4055 -1.5195
46350SOL    HW246101   7.158   6.197   3.374  1.0179 -1.7588  1.2563
46351SOL     OW46102   3.477   4.876   2.665 -0.4628  0.4932  1.0273
46351SOL    HW146103   3.432   4.798   2.632 -2.4537  2.1528 -0.3872
46351SOL    HW246104   3.558   4.881   2.614 -0.8043 -0.0973  0.4168
46352SOL     OW46105  12.176  11.077   2.543  0.6111  0.0790 -0.1274
46352SOL    HW146106  12.219  11.006   2.589  1.8372  1.6937  1.3316
46352SOL    HW246107  12.087  11.078   2.579  0.8936 -0.0819  0.5975
46353SOL     OW46108   6.082   9.503   3.937 -0.3645 -0.0018  0.3678
46353SOL    HW146109   6.063   9.448   3.861  0.5655 -1.3414  1.0664
46353SOL    HW246110   5.996   9.524   3.973 -0.9548  2.1489 -1.9963
46354SOL     OW46111   4.530   4.307   4.766  0.0350  0.1018  0.2360
46354SOL    HW146112   4.613   4.282   4.727  0.8285  0.4210  1.6635
46354SOL    HW246113   4.491   4.367   4.702 -0.2005 -1.7910 -1.5068
46355SOL     OW46114   1.634  11.145   3.533 -0.0309 -0.5975  0.2714
46355SOL    HW146115   1.675  11.185   3.457 -1.6717 -0.2929 -0.4826
46355SOL    HW246116   1.596  11.063   3.500  2.2313 -2.2975  1.5307
46356SOL     OW46117   0.543   2.374  10.840 -0.2855  0.5189 -0.1670
46356SOL    HW146118   0.503   2.404  10.922 -0.3057  0.1080 -0.0245
46356SOL    HW246119   0.581   2.288  10.862 -2.1127 -0.5940 -1.1020
46357SOL     OW46120  10.647   0.147   0.273 -0.5335 -0.3709  0.1298
46357SOL    HW146121  10.619   0.064   0.311 -0.9699 -0.3252 -0.0820
46357SOL    HW246122  10.569   0.203   0.277 -0.1252  0.1777  0.6730
46358SOL     OW46123   0.267  12.166  10.901 -0.2781 -0.3050  0.5534
46358SOL    HW146124   0.292  12.253  10.931 -2.6645  0.9506 -0.7455
46358SOL    HW246125   0.321  12.151  10.823 -1.2770  1.0000 -0.4438
46359SOL     OW46126   6.259   3.873   9.174  0.1239 -0.3680  0.0547
46359SOL    HW146127   6.317   3.823   9.232  0.8037  0.5424  0.1810
46359SOL    HW246128   6.175   3.829   9.181  0.8196 -1.8212 -0.2430
46360SOL     OW46129  11.694   7.560   2.825  0.1473  0.0379  0.1922
46360SOL    HW146130  11.692   7.552   2.921  1.6120 -1.8029  0.1148
46360SOL    HW246131  11.777   7.603   2.807  0.4737 -0.7836 -0.3037
46361SOL     OW46132   7.842   2.574   3.515  0.0122  0.7957 -0.0126
46361SOL    HW146133   7.825   2.481   3.530  1.8916  0.0890 -1.8316
46361SOL    HW246134   7.763   2.606   3.470 -0.4357 -0.0287  0.1741
46362SOL     OW46135   7.099   2.315  11.348 -0.0067 -0.3377  0.7152
46362SOL    HW146136   7.056   2.278  11.271 -0.2722 -0.4134  0.8961
46362SOL    HW246137   7.043   2.389  11.374 -2.2779 -2.7010  3.2376
46363SOL     OW46138   6.769   3.020   2.492  0.5056 -0.0230 -0.2563
46363SOL    HW146139   6.766   3.010   2.397 -2.6154 -2.7408 -0.0546
46363SOL    HW246140   6.733   3.108   2.507 -0.7919 -0.2776 -1.5874
46364SOL     OW46141   5.125  11.871   8.423 -0.0537  0.0405 -0.2340
46364SOL    HW146142   5.126  11.892   8.330 -2.7987  1.0268 -0.1510
46364SOL    HW246143   5.103  11.778   8.427  0.6266 -0.1384 -0.5550
46365SOL     OW46144  12.126   3.783   2.815  0.2927 -0.0189  0.4650
46365SOL    HW146145  12.130   3.830   2.899  1.5048  0.8134 -0.0382
46365SOL    HW246146  12.186   3.709   2.826 -0.5002 -0.6466  0.7398
46366SOL     OW46147   9.426   8.656   1.923  0.5245 -0.1054 -0.9836
46366SOL    HW146148   9.491   8.586   1.928  0.0084 -0.5321 -0.0463
46366SOL    HW246149   9.441   8.709   2.001 -0.5668 -0.5089 -0.4710
46367SOL     OW46150   6.857   6.698  11.660  0.1069 -0.7466 -0.0554
46367SOL    HW146151   6.783   6.733  11.711 -0.2449 -1.1050 -0.3149
46367SOL    HW246152   6.894   6.775  11.617  1.8242 -0.0218  2.4756
46368SOL     OW46153   8.346   6.779   0.280  0.1436  0.0239 -0.2998
46368SOL    HW146154   8.360   6.685   0.264 -0.5353 -0.2680  0.7749
46368SOL    HW246155   8.434   6.813   0.295  0.3620 -0.5071 -0.3310
46369SOL     OW46156   9.643   7.195   8.624 -0.0688 -0.0398 -0.1038
46369SOL    HW146157   9.656   7.257   8.696  1.2009 -0.7601  0.3273
46369SOL    HW246158   9.724   7.143   8.623 -1.4561 -2.3458  0.1747
46370SOL     OW46159   9.356   4.067   6.041  0.3303  0.4324 -0.4957
46370SOL    HW146160   9.410   4.056   5.962  1.0962  0.4801  0.0108
46370SOL    HW246161   9.419   4.089   6.110 -0.1749 -0.7519  0.3826
46371SOL     OW46162   4.852   0.914   0.584 -0.6355 -0.4427 -0.4348
46371SOL    HW146163   4.838   0.924   0.678 -5.1829  1.0592 -1.0648
46371SOL    HW246164   4.845   0.819   0.569  0.2276 -0.7087  0.6724
46372SOL     OW46165   7.002   1.314   0.212  0.0840  0.0712 -0.0360
46372SOL    HW146166   6.956   1.232   0.192  1.9172 -1.3387  1.2210
46372SOL    HW246167   7.039   1.341   0.128  2.6074 -2.4891  0.1169
46373SOL     OW46168   7.696   9.296   0.314 -0.1573 -0.3767 -0.3395
46373SOL    HW146169   7.665   9.386   0.302 -0.3865 -0.5241 -0.8627
46373SOL    HW246170   7.764   9.286   0.247  0.1805 -0.4482  0.0129
46374SOL     OW46171  11.507  10.192   9.430 -0.5559 -0.2071 -0.8244
46374SOL    HW146172  11.415  10.175   9.409 -0.3122  0.4934 -2.6305
46374SOL    HW246173  11.554  10.115   9.398 -0.2757  0.4615 -2.0610
46375SOL     OW46174   6.416   5.619   2.615 -0.0550 -0.1148  0.3284
46375SOL    HW146175   6.495   5.672   2.609  1.6077 -2.4592  0.1509
46375SOL    HW246176   6.403   5.584   2.527 -1.0035 -0.1983  0.4814
46376SOL     OW46177   4.358   7.774  11.261 -0.4439 -0.0279  0.0046
46376SOL    HW146178   4.439   7.793  11.214  0.0033  0.2005  0.8295
46376SOL    HW246179   4.289   7.817  11.211  0.3958  2.9526  1.1868
46377SOL     OW46180   0.393  10.232   6.199  0.3392 -0.1328  0.1490
46377SOL    HW146181   0.311  10.190   6.173  2.5023 -3.6258 -1.7669
46377SOL    HW246182   0.406  10.301   6.135  0.3936 -1.7331 -1.6593
46378SOL     OW46183  11.455   8.030   8.936 -0.0064  0.3407  0.0311
46378SOL    HW146184  11.548   8.028   8.957  0.6084 -2.5354 -2.2522
46378SOL    HW246185  11.451   8.009   8.843 -2.9500 -0.5869  0.2590
46379SOL     OW46186   0.533  10.475   4.550 -0.2253  0.4732 -0.2909
46379SOL    HW146187   0.503  10.460   4.640 -1.5856  1.6205 -0.5092
46379SOL    HW246188   0.505  10.397   4.502 -0.6132  0.4057  0.0390
46380SOL     OW46189   8.668   3.271   7.696 -0.5647  0.0869  0.3728
46380SOL    HW146190   8.756   3.302   7.718 -1.1194  0.7401  1.7127
46380SOL    HW246191   8.677   3.175   7.693  0.5042  0.1978 -0.9632
46381SOL     OW46192  11.632   3.774   9.985  0.3527 -0.2608 -0.2499
46381SOL    HW146193  11.580   3.855   9.987  2.6501  1.3215  1.9388
46381SOL    HW246194  11.584   3.717   9.925 -3.1574  1.4911  0.5697
46382SOL     OW46195   4.536   4.821   0.287 -0.4931  0.4693  0.6778
46382SOL    HW146196   4.480   4.775   0.224  0.3992  1.0756 -0.6146
46382SOL    HW246197   4.569   4.752   0.345 -1.1813 -0.1357  0.3742
46383SOL     OW46198   8.594   4.466   1.197  0.6305 -0.0103  0.1253
46383SOL    HW146199   8.641   4.429   1.272  0.4655 -2.0875 -0.7041
46383SOL    HW246200   8.632   4.420   1.121 -0.9601  0.1323 -0.7941
46384SOL     OW46201   7.842  11.161   1.732  0.1839 -0.5316  0.1447
46384SOL    HW146202   7.787  11.107   1.789  0.3610  0.5864  1.4091
46384SOL    HW246203   7.811  11.141   1.644 -2.4354  0.2078  0.8088
46385SOL     OW46204  10.153   5.150   1.679  0.5737  0.6327  0.0215
46385SOL    HW146205  10.245   5.157   1.705  1.2203 -0.1660 -1.8901
46385SOL    HW246206  10.105   5.155   1.761  2.4008 -0.3522  1.2160
46386SOL     OW46207   4.514   0.466   1.116 -0.0197  0.6342 -0.2504
46386SOL    HW146208   4.505   0.549   1.070  2.7997  0.4797 -1.2830
46386SOL    HW246209   4.602   0.468   1.152 -0.0080 -1.7452  0.0331
46387SOL     OW46210   6.559   3.335   6.470 -0.1989 -0.4078  0.1259
46387SOL    HW146211   6.633   3.284   6.504 -0.1585 -0.4761 -0.0612
46387SOL    HW246212   6.508   3.271   6.421  0.1794 -0.1459 -0.6302
46388SOL     OW46213   1.266   8.180   2.740 -0.1530 -0.3039  0.2347
46388SOL    HW146214   1.315   8.129   2.676  1.0142  2.0735 -0.9095
46388SOL    HW246215   1.305   8.156   2.825  0.4640 -1.1544 -0.2777
46389SOL     OW46216   4.433   2.235   8.094 -0.6144 -0.2502  0.8375
46389SOL    HW146217   4.508   2.178   8.079  0.7063  0.8239  2.9221
46389SOL    HW246218   4.469   2.324   8.091 -2.2093  0.4213 -0.1118
46390SOL     OW46219  10.700   3.835  10.449  0.1169 -0.1638 -0.1604
46390SOL    HW146220  10.763   3.797  10.389  0.8379  0.9044 -0.0996
46390SOL    HW246221  10.748   3.844  10.532  0.6175  2.5648 -0.6439
46391SOL     OW46222   1.293   5.229   9.958  0.2597 -0.0180  0.3657
46391SOL    HW146223   1.345   5.269   9.888 -2.0815 -0.1177 -1.5518
46391SOL    HW246224   1.299   5.135   9.941  0.2549 -0.0903  0.7608
46392SOL     OW46225   0.393  10.470   8.600 -0.5711  0.1190 -0.0938
46392SOL    HW146226   0.373  10.489   8.508  0.6837 -0.6817 -0.5577
46392SOL    HW246227   0.484  10.499   8.610  0.0639 -1.8973  0.2531
46393SOL     OW46228   0.806   1.465   1.808  0.5365  0.0440 -0.3984
46393SOL    HW146229   0.718   1.496   1.827  1.3157  1.4133  1.2254
46393SOL    HW246230   0.823   1.398   1.874 -0.0118 -1.8059 -2.0255
46394SOL     OW46231   8.802   5.925  10.170  0.6076 -0.1298 -0.8724
46394SOL    HW146232   8.875   5.971  10.212  1.4930 -1.1610 -1.2320
46394SOL    HW246233   8.778   5.981  10.096  0.6524  0.4910 -0.4270
46395SOL     OW46234   0.345  11.578   3.127  0.5904  0.7138  0.1592
46395SOL    HW146235   0.430  11.613   3.152  0.4799 -0.4491  2.4331
46395SOL    HW246236   0.282  11.641   3.164  0.4502  0.8752 -0.3542
46396SOL     OW46237   8.524   7.858  10.512 -0.0633  0.3871  0.3505
46396SOL    HW146238   8.550   7.773  10.476 -0.6630  0.3698 -0.0519
46396SOL    HW246239   8.450   7.838  10.569  0.4169  0.5149  1.0281
46397SOL     OW46240  12.398   9.603   2.266 -0.0869 -0.3295  0.5670
46397SOL    HW146241  12.377   9.663   2.338 -1.2249 -2.1119  1.8087
46397SOL    HW246242  12.405   9.659   2.190  0.3605  1.5502  1.9187
46398SOL     OW46243   9.952   6.937   5.779  0.1225 -0.8733  0.1987
46398SOL    HW146244   9.866   6.912   5.814 -0.0199 -0.3259  0.2567
46398SOL    HW246245  10.015   6.887   5.830 -0.0139  0.6336  1.9625
46399SOL     OW46246   1.651   7.478   1.461 -0.1783 -0.1265 -0.2618
46399SOL    HW146247   1.662   7.508   1.371 -1.7656  0.4506 -0.3083
46399SOL    HW246248   1.641   7.559   1.512  1.1235 -0.4299  0.5117
46400SOL     OW46249   4.856   8.840   5.653  0.1558  0.3764 -0.2952
46400SOL    HW146250   4.810   8.890   5.721 -0.5297 -0.5738 -0.0372
46400SOL    HW246251   4.913   8.781   5.701  0.2649  0.2533 -0.5722
46401SOL     OW46252   1.143   1.423   0.220  0.3597 -0.1894  0.3214
46401SOL    HW146253   1.072   1.446   0.280  1.1943  1.7933  0.6313
46401SOL    HW246254   1.205   1.374   0.275  0.0688 -0.3881  0.4812
46402SOL     OW46255   5.377   3.826  11.916 -0.1564  0.0354 -0.0854
46402SOL    HW146256   5.390   3.742  11.960 -0.4263 -0.0908 -0.2399
46402SOL    HW246257   5.464   3.865  11.911  0.0061 -0.3391 -0.2118
46403SOL     OW46258   0.864   9.823   1.372  0.1003  0.6173  0.4090
46403SOL    HW146259   0.945   9.874   1.370  0.8482 -0.4750 -2.4663
46403SOL    HW246260   0.815   9.853   1.295 -2.4071  1.4153  2.2087
46404SOL     OW46261   2.577   3.836   5.563  0.4775 -0.0911  0.4041
46404SOL    HW146262   2.618   3.832   5.649 -1.7055 -4.5815  1.5501
46404SOL    HW246263   2.508   3.770   5.566  0.4815 -0.7995 -4.9165
46405SOL     OW46264   9.749  10.004   3.436  0.0750  0.7056 -0.5313
46405SOL    HW146265   9.829  10.056   3.447 -0.4454  1.4545 -0.1477
46405SOL    HW246266   9.699  10.021   3.516 -1.1462  1.4820 -1.4286
46406SOL     OW46267   5.125   8.043   4.824  0.0787  0.6983 -0.3420
46406SOL    HW146268   5.060   8.039   4.753  2.0341 -1.6296 -2.1879
46406SOL    HW246269   5.127   8.136   4.848 -0.4907  1.7031 -3.5795
46407SOL     OW46270  10.206  10.016   6.312 -0.3737  0.4855 -0.2087
46407SOL    HW146271  10.281   9.962   6.336  0.0186  0.8594 -0.5742
46407SOL    HW246272  10.213  10.094   6.368 -0.5266  0.4927 -0.1979
46408SOL     OW46273   7.522   2.802   4.801  0.1436 -0.0438  0.2501
46408SOL    HW146274   7.505   2.811   4.707  2.8829 -0.9540 -0.4271
46408SOL    HW246275   7.595   2.862   4.818  1.4925 -1.8482  1.1569
46409SOL     OW46276   5.160   9.880  11.592  0.4422 -0.4651  0.1487
46409SOL    HW146277   5.189   9.889  11.501 -1.6041  2.1606 -0.3682
46409SOL    HW246278   5.220   9.936  11.641  0.5193 -0.5463  0.1470
46410SOL     OW46279   5.697   1.279   5.256  0.2314 -0.0245 -0.6743
46410SOL    HW146280   5.783   1.319   5.261 -0.6990  1.9595  3.8555
46410SOL    HW246281   5.651   1.329   5.188  2.0093  0.0909 -1.8520
46411SOL     OW46282   9.970   6.566   9.262 -0.2385 -0.0702 -0.0245
46411SOL    HW146283   9.980   6.612   9.346 -1.3930 -0.5478  0.4011
46411SOL    HW246284  10.040   6.501   9.262  0.6166  0.8290 -0.0586
46412SOL     OW46285   1.290   6.608  12.473 -0.0032 -0.0048 -0.2405
46412SOL    HW146286   1.267   6.700  12.488  1.3673  0.5148 -1.0764
46412SOL    HW246287   1.210   6.559  12.492 -1.4154  1.5511 -1.8193
46413SOL     OW46288   4.098  10.014   6.924  0.0191 -0.3652  0.2587
46413SOL    HW146289   4.008  10.011   6.892  0.4957  0.4939 -1.3212
46413SOL    HW246290   4.119   9.924   6.948 -0.8053 -0.8510 -0.7656
46414SOL     OW46291   9.192   8.034   3.754  0.4699  0.1890  0.3866
46414SOL    HW146292   9.253   7.961   3.762 -0.5094 -0.5523  1.6481
46414SOL    HW246293   9.165   8.053   3.844  1.2650  2.6510  0.1769
46415SOL     OW46294   2.645   5.920  12.135 -0.2502 -0.1463  0.2728
46415SOL    HW146295   2.640   6.005  12.179  1.5075  1.1731 -1.8620
46415SOL    HW246296   2.699   5.866  12.193  1.0163  1.1579  0.3653
46416SOL     OW46297   7.144  12.450   4.078 -0.3634 -0.3595 -0.7486
46416SOL    HW146298   7.121  12.402   4.157 -0.4390  1.4654  0.3925
46416SOL    HW246299   7.226  12.411   4.049 -0.5863 -1.3783 -0.0620
46417SOL     OW46300   7.713   0.320   6.316  0.3493 -0.6513  0.0147
46417SOL    HW146301   7.643   0.363   6.365  0.3621  0.4323 -0.8709
46417SOL    HW246302   7.692   0.227   6.321  0.4803 -0.6347  2.2551
46418SOL     OW46303   9.842  11.126  12.046 -0.2584  0.0395  0.2000
46418SOL    HW146304   9.805  11.120  12.134 -0.1608  2.7869  0.5109
46418SOL    HW246305   9.890  11.209  12.045 -0.7680  0.4284 -2.6234
46419SOL     OW46306   3.530   8.183  12.511 -0.0427 -0.1898 -0.4540
46419SOL    HW146307   3.616   8.172  12.471 -0.3414  3.0997 -2.3633
46419SOL    HW246308   3.489   8.097  12.505  1.9568 -1.1021 -2.3799
46420SOL     OW46309   0.284   2.871   2.234 -0.3065 -0.1564 -0.0433
46420SOL    HW146310   0.301   2.783   2.267 -3.4391 -0.9307 -0.1124
46420SOL    HW246311   0.370   2.907   2.215  1.1199 -4.0662 -2.2835
46421SOL     OW46312   5.232   1.973  11.481 -0.1716  0.5329  0.1822
46421SOL    HW146313   5.295   2.044  11.490  0.1460  0.4402 -1.1188
46421SOL    HW246314   5.155   2.013  11.442  0.2066  0.0935 -1.0750
46422SOL     OW46315  12.325   0.987   5.873 -0.9231 -0.2083  0.2381
46422SOL    HW146316  12.342   1.080   5.885 -0.1683 -0.3158  0.0167
46422SOL    HW246317  12.351   0.969   5.782  0.1409 -0.8984  0.6694
46423SOL     OW46318   0.052  12.115   6.342 -0.3558 -0.5046 -0.1945
46423SOL    HW146319   0.110  12.082   6.274 -0.2296 -0.7687  0.0377
46423SOL    HW246320   0.075  12.064   6.420 -2.8722 -2.7662 -0.7771
46424SOL     OW46321   2.112   6.307   1.707 -0.0282  0.9058  0.1719
46424SOL    HW146322   2.066   6.306   1.624  1.6956 -2.8896 -0.9962
46424SOL    HW246323   2.176   6.378   1.699 -0.5982  1.2868 -1.2772
46425SOL     OW46324   8.043   5.554   5.771  0.1654 -0.4099 -0.1964
46425SOL    HW146325   8.090   5.577   5.851 -0.7611  1.2817 -0.0952
46425SOL    HW246326   7.959   5.520   5.801  1.0918 -3.0873 -0.3877
46426SOL     OW46327   9.264   1.303   0.755  0.2358  0.6196 -0.7243
46426SOL    HW146328   9.245   1.388   0.716  0.3095  2.1795  2.3457
46426SOL    HW246329   9.179   1.261   0.765 -0.1512  1.6251  0.3849
46427SOL     OW46330   8.658   6.009   0.929  0.2327 -0.1599  0.5538
46427SOL    HW146331   8.657   6.104   0.944 -0.0405 -0.2040  0.8153
46427SOL    HW246332   8.617   5.998   0.843  2.0781  0.1214 -0.4119
46428SOL     OW46333   2.350   2.553  10.854  0.7150  0.5703 -0.2001
46428SOL    HW146334   2.262   2.584  10.874 -0.3412 -1.7737 -0.8767
46428SOL    HW246335   2.407   2.600  10.914 -1.2869  0.3771  1.9588
46429SOL     OW46336   3.567   9.543   9.863  0.0735  0.2366 -0.1797
46429SOL    HW146337   3.572   9.468   9.923 -1.4601 -0.5441 -0.9380
46429SOL    HW246338   3.479   9.579   9.878 -0.6732 -0.4661 -2.4360
46430SOL     OW46339   0.792   0.214   3.925 -0.0164 -0.4801  0.0137
46430SOL    HW146340   0.876   0.241   3.961 -0.5291  2.1778 -0.5780
46430SOL    HW246341   0.768   0.282   3.863 -3.7642  0.3121  1.9873
46431SOL     OW46342   4.759   2.748   4.885  0.0221 -0.3883 -0.6835
46431SOL    HW146343   4.743   2.729   4.977  0.4559 -0.0967 -0.5443
46431SOL    HW246344   4.841   2.798   4.884 -0.4867  0.4709 -1.1348
46432SOL     OW46345   0.878  10.616   6.283  0.2476 -0.0360  0.3198
46432SOL    HW146346   0.786  10.634   6.304  0.3201  0.1574  0.4733
46432SOL    HW246347   0.924  10.697   6.305  0.2391  0.3932 -1.1582
46433SOL     OW46348   4.686  12.324   1.206 -0.0630  0.0391  0.2373
46433SOL    HW146349   4.659  12.234   1.227 -1.7701  0.2151 -1.0389
46433SOL    HW246350   4.662  12.374   1.284 -1.1551 -0.2544  0.1057
46434SOL     OW46351   6.866  12.312   9.807 -0.3768  0.1116  0.5346
46434SOL    HW146352   6.962  12.312   9.803 -0.3950 -0.6038 -0.3374
46434SOL    HW246353   6.845  12.277   9.894  0.1352  2.6812  1.7674
46435SOL     OW46354  12.071   6.996   0.749 -0.2313  0.0191  0.7342
46435SOL    HW146355  11.985   6.997   0.707 -0.0487  0.5127  0.3671
46435SOL    HW246356  12.053   7.014   0.841 -0.7834 -2.3848  1.1696
46436SOL     OW46357   2.998   3.339   3.548  0.4357 -0.0206 -0.3138
46436SOL    HW146358   2.995   3.350   3.643 -2.6528 -2.0883 -0.0229
46436SOL    HW246359   3.091   3.345   3.526  1.2523  0.5506  2.8018
46437SOL     OW46360   0.137  10.858   8.041  0.1968  0.3778 -0.0288
46437SOL    HW146361   0.229  10.881   8.054  0.2001  1.8701 -2.1748
46437SOL    HW246362   0.136  10.811   7.958 -0.8992 -0.4371  0.4155
46438SOL     OW46363  11.164   6.713   0.527  0.4075 -0.3016 -0.0656
46438SOL    HW146364  11.227   6.702   0.598  0.9795  1.9541 -0.1625
46438SOL    HW246365  11.086   6.749   0.569  0.4529  0.2664 -0.4643
46439SOL     OW46366   1.975   5.650   7.045 -0.1866 -0.0466  0.6389
46439SOL    HW146367   1.964   5.664   7.139 -1.5103 -1.6257  0.7523
46439SOL    HW246368   1.949   5.734   7.005  2.2355  1.3046  1.7089
46440SOL     OW46369  11.538   9.974   1.051  0.3577  0.3875 -0.0249
46440SOL    HW146370  11.629   9.958   1.078  0.9807  0.8412 -1.6919
46440SOL    HW246371  11.508   9.889   1.019  0.2545  0.2792  0.3566
46441SOL     OW46372   7.226   0.218  11.682  0.3999  0.1415  0.0854
46441SOL    HW146373   7.220   0.281  11.754  1.5304  1.4213 -0.8845
46441SOL    HW246374   7.314   0.232  11.646 -0.1537 -0.4143 -1.5757
46442SOL     OW46375  10.716   5.181  12.581  0.3838 -0.1103  0.4096
46442SOL    HW146376  10.672   5.170  12.665 -0.0572 -2.6034 -0.0470
46442SOL    HW246377  10.680   5.262  12.545 -1.0608 -0.1394  1.6723
46443SOL     OW46378   0.023   7.906   6.911 -0.4525 -0.5543 -0.3645
46443SOL    HW146379   0.102   7.916   6.857  1.2947 -1.5846  1.8283
46443SOL    HW246380   0.055   7.866   6.992 -3.4260 -1.9301  0.2354
46444SOL     OW46381  11.782   2.836   4.241  0.5739  0.0440  0.5578
46444SOL    HW146382  11.738   2.779   4.178  1.0997  0.1340  0.1022
46444SOL    HW246383  11.710   2.876   4.291  0.1821 -0.6394  0.5594
46445SOL     OW46384  12.216  10.184   0.489  0.5830 -0.0201  0.3488
46445SOL    HW146385  12.293  10.205   0.542 -0.5762 -0.1386  2.1896
46445SOL    HW246386  12.143  10.186   0.552 -0.9254  0.1708 -1.3420
46446SOL     OW46387  12.367   3.483  11.163  0.0727 -0.4674  0.8103
46446SOL    HW146388  12.407   3.558  11.207 -1.8928  1.1390  0.0409
46446SOL    HW246389  12.298   3.455  11.223 -1.0362  0.1949 -0.1052
46447SOL     OW46390   7.947   8.007   0.638  0.3143 -0.0811  0.2498
46447SOL    HW146391   7.875   7.963   0.683 -0.4714  2.7249  2.0178
46447SOL    HW246392   7.931   7.990   0.545 -1.8362 -0.6950  0.6749
46448SOL     OW46393   6.767  10.326  11.491 -0.2836  0.1043  0.5721
46448SOL    HW146394   6.854  10.292  11.470 -0.1706  0.7327 -0.0046
46448SOL    HW246395   6.784  10.410  11.533 -0.6098  0.1318  0.6471
46449SOL     OW46396   9.396   1.087   5.256  0.2809  0.3947 -0.2103
46449SOL    HW146397   9.422   1.040   5.176  0.7292  1.2719 -0.5965
46449SOL    HW246398   9.407   1.179   5.234 -2.5740  0.8231 -0.1750
46450SOL     OW46399   1.998   8.102   7.037 -0.4363 -0.0476 -0.1091
46450SOL    HW146400   1.990   8.198   7.035  3.3824  0.4431  1.3242
46450SOL    HW246401   2.053   8.081   6.962  1.3727 -0.7049  1.3409
46451SOL     OW46402   8.983   4.837   1.692  0.3445 -0.3273  0.3893
46451SOL    HW146403   9.027   4.761   1.731  2.7870  0.2912 -0.9836
46451SOL    HW246404   9.024   4.913   1.735 -0.6785  0.2722  0.3398
46452SOL     OW46405   1.248   8.347   9.801  0.3233  0.4515  0.0531
46452SOL    HW146406   1.234   8.385   9.887  2.4566  0.2296  0.5513
46452SOL    HW246407   1.270   8.421   9.745 -1.5156  0.6594 -0.4649
46453SOL     OW46408  10.405  12.337   1.333  0.0985 -0.2452  0.2217
46453SOL    HW146409  10.494  12.344   1.367 -0.1973 -0.1214  0.9965
46453SOL    HW246410  10.397  12.409   1.271  0.8563 -0.8588 -0.6098
46454SOL     OW46411   9.628   0.932   0.037 -0.0459 -0.2954  0.2158
46454SOL    HW146412   9.631   0.888   0.122  0.0842 -0.4235  0.1449
46454SOL    HW246413   9.629   1.025   0.058 -2.2448 -0.2708  0.4640
46455SOL     OW46414  10.434   3.396   4.229  0.1818  0.4567  0.0099
46455SOL    HW146415  10.496   3.325   4.243  0.7884  0.5402 -1.8954
46455SOL    HW246416  10.357   3.371   4.280  0.9209 -0.8211  0.5528
46456SOL     OW46417   3.606   0.272   1.042 -0.0314  0.1049 -0.6315
46456SOL    HW146418   3.696   0.263   1.074 -0.1088 -0.0029 -0.4430
46456SOL    HW246419   3.598   0.365   1.021  0.6763 -0.1773 -2.2976
46457SOL     OW46420  12.177   9.058   1.664  0.3878 -0.0275 -0.3528
46457SOL    HW146421  12.250   9.106   1.702 -0.0946 -0.0037  0.5690
46457SOL    HW246422  12.112   9.126   1.645 -0.0803 -0.2483  0.4481
46458SOL     OW46423   8.866   5.973   7.061 -0.5175 -0.8446  0.5993
46458SOL    HW146424   8.787   5.961   7.114 -1.7112 -0.6325 -1.0206
46458SOL    HW246425   8.836   5.959   6.971  0.5564  2.4068 -0.4042
46459SOL     OW46426   4.365   0.867   9.062  0.4386 -0.1241  0.2325
46459SOL    HW146427   4.321   0.785   9.040  0.0535 -0.3627  1.8010
46459SOL    HW246428   4.384   0.907   8.977 -1.0550 -0.9355 -0.5191
46460SOL     OW46429   3.901   2.794   3.588  0.3644  0.0808  0.1349
46460SOL    HW146430   3.991   2.824   3.576 -0.1473  1.8577  0.3926
46460SOL    HW246431   3.903   2.743   3.669  1.3431 -0.9285 -0.4964
46461SOL     OW46432  10.162   4.332   7.984 -0.1871  0.6341 -0.6812
46461SOL    HW146433  10.089   4.279   7.952 -1.0559  3.0678 -3.1176
46461SOL    HW246434  10.221   4.341   7.909  2.7576 -1.2337  1.2041
46462SOL     OW46435   9.971   0.317   6.187  0.1443 -0.0263 -0.1466
46462SOL    HW146436   9.947   0.228   6.214 -0.1331 -0.3771 -1.4873
46462SOL    HW246437  10.036   0.304   6.118  1.7116  0.8683  1.1127
46463SOL     OW46438   0.555   3.563  12.376 -0.1240  0.0255  0.3137
46463SOL    HW146439   0.574   3.656  12.367  1.3074 -0.2818 -0.0220
46463SOL    HW246440   0.478   3.560  12.433  0.4534  1.3695  1.2095
46464SOL     OW46441   4.184   0.213   7.003 -0.8794 -0.6380  0.0193
46464SOL    HW146442   4.142   0.296   6.984 -2.1933 -1.4165 -0.6436
46464SOL    HW246443   4.236   0.193   6.925  3.1480  1.6310  1.8482
46465SOL     OW46444   3.704  11.864   9.975 -0.5169 -0.3177 -0.1175
46465SOL    HW146445   3.685  11.957   9.964 -2.5423 -0.2423  2.8537
46465SOL    HW246446   3.624  11.828  10.014  0.5669 -3.1276 -0.2611
46466SOL     OW46447   9.329   6.569   2.383  0.2517  0.9282 -0.4571
46466SOL    HW146448   9.422   6.565   2.359  0.7536 -1.0293  1.5094
46466SOL    HW246449   9.283   6.527   2.311  0.9666  1.1117 -1.0317
46467SOL     OW46450   6.773  11.471   6.302 -0.2060  0.2661 -0.6122
46467SOL    HW146451   6.864  11.493   6.279  0.2270 -2.0588 -1.3456
46467SOL    HW246452   6.779  11.386   6.345 -1.9550  0.6112  0.4263
46468SOL     OW46453   0.255   4.140   7.126  0.1045 -0.5014  0.0322
46468SOL    HW146454   0.326   4.075   7.128 -0.0943 -0.7304 -0.3342
46468SOL    HW246455   0.301   4.224   7.125  0.4147 -0.6603 -1.6583
46469SOL     OW46456   5.565   7.824   5.383  0.5991  0.4222 -0.2442
46469SOL    HW146457   5.614   7.751   5.343 -1.7276 -1.4122  0.0275
46469SOL    HW246458   5.479   7.820   5.341 -0.7177  0.7953  2.2320
46470SOL     OW46459   8.065   9.023   5.175 -0.0994 -0.0667 -0.0873
46470SOL    HW146460   8.069   9.114   5.146  0.3536  0.1111  0.5118
46470SOL    HW246461   8.040   8.974   5.096 -0.3651  0.5720 -0.4078
46471SOL     OW46462   4.168  11.883   7.568  0.4479 -0.1657 -0.3880
46471SOL    HW146463   4.249  11.927   7.594  1.4095 -0.6715 -2.3499
46471SOL    HW246464   4.161  11.808   7.628  1.2111  0.1137  0.0660
46472SOL     OW46465   1.486   5.782  10.105  0.0486 -0.1135  0.0871
46472SOL    HW146466   1.571   5.742  10.123 -0.3130 -1.3711 -0.8978
46472SOL    HW246467   1.505   5.875  10.094  1.1316 -0.2218  0.9277
46473SOL     OW46468  11.451   0.817   5.922  0.4722 -0.3999  0.2553
46473SOL    HW146469  11.409   0.840   5.839 -1.4432 -1.7384  0.7891
46473SOL    HW246470  11.443   0.721   5.927  2.4022 -0.5625  1.0506
46474SOL     OW46471   4.962   9.928   7.988 -0.1197 -0.2203  0.3377
46474SOL    HW146472   5.012   9.870   8.046  1.8907  1.7689  0.7609
46474SOL    HW246473   4.946  10.006   8.040 -0.4648  0.6446 -1.0116
46475SOL     OW46474   9.128  10.320   7.841 -0.6625 -0.7631  0.1220
46475SOL    HW146475   9.120  10.327   7.936 -0.6525 -1.1008  0.1491
46475SOL    HW246476   9.061  10.380   7.807 -0.9075 -0.9051  0.3451
46476SOL     OW46477   4.661  10.312   6.981  0.0969 -0.0887 -0.3676
46476SOL    HW146478   4.744  10.306   7.030 -0.4010 -2.3328  0.3358
46476SOL    HW246479   4.619  10.390   7.015  0.3959 -0.8187  1.8925
46477SOL     OW46480  10.594  11.519  10.520 -0.1818 -0.4204 -0.2160
46477SOL    HW146481  10.527  11.467  10.475 -1.2533  0.4925  0.2947
46477SOL    HW246482  10.584  11.607  10.484  1.5244 -0.4904 -0.9647
46478SOL     OW46483   8.650   4.422   4.196  0.3396  0.4109 -0.0382
46478SOL    HW146484   8.647   4.342   4.143 -3.0700  0.0146  0.5543
46478SOL    HW246485   8.705   4.400   4.271 -0.5690 -1.4293  0.1260
46479SOL     OW46486   2.805   8.537   1.759 -0.2051  0.2641  0.1013
46479SOL    HW146487   2.849   8.452   1.764  2.7004  1.7442  3.1422
46479SOL    HW246488   2.734   8.531   1.824 -0.8830 -0.2298 -0.6658
46480SOL     OW46489   2.687   2.341  10.487  0.6103 -0.1226 -0.3863
46480SOL    HW146490   2.725   2.254  10.498  0.7822 -0.2015 -1.4688
46480SOL    HW246491   2.762   2.401  10.494  0.8455 -0.2219 -1.6702
46481SOL     OW46492   7.247   1.199   5.774  0.0441  0.0460  0.1128
46481SOL    HW146493   7.191   1.134   5.817 -1.2766  1.1831  0.1781
46481SOL    HW246494   7.210   1.283   5.799  0.6786  0.7949 -1.3338
46482SOL     OW46495  10.806   1.380  12.036 -0.1469 -0.3184  0.1648
46482SOL    HW146496  10.833   1.471  12.044  0.6119 -0.0471 -3.5946
46482SOL    HW246497  10.713   1.383  12.016 -0.3066 -0.4509  0.8619
46483SOL     OW46498   8.715   6.660   0.568 -0.0031  0.0840 -0.4964
46483SOL    HW146499   8.810   6.672   0.576  0.0874  0.3225 -1.7337
46483SOL    HW246500   8.704   6.616   0.484 -1.0406  0.5983 -0.6356
46484SOL     OW46501   2.876  10.438   3.984 -0.4999 -0.1883 -0.5010
46484SOL    HW146502   2.935  10.506   4.016 -2.7946  1.0306  1.5428
46484SOL    HW246503   2.870  10.454   3.890  2.4382 -0.4925 -0.8151
46485SOL     OW46504   6.271   1.592   7.621  0.1519  0.1295  0.1887
46485SOL    HW146505   6.176   1.601   7.624 -0.1859 -2.6626  0.3212
46485SOL    HW246506   6.295   1.554   7.705  1.2068 -0.5656 -0.3984
46486SOL     OW46507   9.636   1.962   3.273  0.0802  0.5369  0.1784
46486SOL    HW146508   9.619   1.918   3.356  0.9194  0.4611  0.3171
46486SOL    HW246509   9.721   1.929   3.245 -0.4207  0.1450 -0.9851
46487SOL     OW46510  10.957   1.772   6.745 -0.9952  0.2820  0.0613
46487SOL    HW146511  10.872   1.727   6.740 -1.3665  0.7871  1.2693
46487SOL    HW246512  10.973   1.780   6.839  0.4446  0.1312 -0.1554
46488SOL     OW46513   3.061  11.372   1.063 -0.6230 -0.3111  0.4243
46488SOL    HW146514   2.995  11.417   1.010 -0.7629 -0.4178  0.5071
46488SOL    HW246515   3.017  11.294   1.096  0.1906 -1.5479 -1.2865
46489SOL     OW46516   8.783  10.629  10.666 -0.5932  0.5732  0.2711
46489SOL    HW146517   8.718  10.681  10.712  0.7536  0.9906  1.8178
46489SOL    HW246518   8.865  10.675  10.680  0.1370 -0.2299 -1.1374
46490SOL     OW46519   5.676   3.734   0.483 -0.2206 -0.0014 -0.9366
46490SOL    HW146520   5.687   3.777   0.568  0.8898 -1.3632 -0.3493
46490SOL    HW246521   5.706   3.799   0.420  1.7520  0.0224 -0.0530
46491SOL     OW46522   3.645   6.737   9.513 -0.1422 -0.3457 -0.5332
46491SOL    HW146523   3.657   6.819   9.560 -0.7255  0.1131 -1.1561
46491SOL    HW246524   3.668   6.669   9.576  1.1925  0.3167 -0.2800
46492SOL     OW46525   5.542   0.234   5.672  0.1301  0.0070  0.2923
46492SOL    HW146526   5.635   0.220   5.689  0.4914 -1.4145 -2.4189
46492SOL    HW246527   5.506   0.145   5.662 -1.5031  0.5437  1.0519
46493SOL     OW46528   1.878   0.094   4.252  0.6970 -0.2160 -0.6127
46493SOL    HW146529   1.820   0.084   4.178  0.4285 -0.0263 -0.4280
46493SOL    HW246530   1.829   0.146   4.315  1.4608  0.8819 -0.8938
46494SOL     OW46531   4.433   9.818  11.601  0.3034  0.2840 -0.1559
46494SOL    HW146532   4.353   9.832  11.551 -0.2438 -0.0581  0.6096
46494SOL    HW246533   4.486   9.895  11.582 -0.6410  1.0327  0.1581
46495SOL     OW46534   8.682   5.403   0.699 -1.1473  0.7494 -0.6293
46495SOL    HW146535   8.588   5.393   0.718 -0.6013 -1.1212  1.4230
46495SOL    HW246536   8.706   5.487   0.740 -1.9277  1.3393 -1.3375
46496SOL     OW46537   9.656   4.060   0.742  0.3030 -0.2736 -0.0522
46496SOL    HW146538   9.737   4.112   0.739 -0.7093  1.5211  1.5197
46496SOL    HW246539   9.589   4.122   0.769 -1.0989 -2.3271  1.4680
46497SOL     OW46540   2.451   3.329   0.010  0.0662  0.2658 -0.8228
46497SOL    HW146541   2.538   3.341   0.049 -0.1875  0.8739 -0.4320
46497SOL    HW246542   2.390   3.347   0.082 -0.3782 -1.0788 -0.8475
46498SOL     OW46543   9.355   3.588   6.294 -0.7350  0.1753  0.0831
46498SOL    HW146544   9.332   3.602   6.386  0.1415  1.3360  0.1424
46498SOL    HW246545   9.391   3.672   6.265  2.5351 -1.2049 -0.2657
46499SOL     OW46546  10.587   6.395  10.552  0.6655  0.2453 -0.3338
46499SOL    HW146547  10.676   6.372  10.579  1.7707  0.9228 -3.1124
46499SOL    HW246548  10.571   6.480  10.593  0.8260 -0.3519  1.0427
46500SOL     OW46549   6.678  11.684   1.652 -0.5383  0.2068  0.4122
46500SOL    HW146550   6.772  11.683   1.671 -0.1523  0.8455 -1.2644
46500SOL    HW246551   6.646  11.764   1.694 -0.1147  0.5561  0.0813
46501SOL     OW46552   8.007  10.289   0.720 -0.0362  0.1059  0.4172
46501SOL    HW146553   8.097  10.262   0.701  0.6905  0.3383  3.0829
46501SOL    HW246554   7.973  10.219   0.775  0.0063  1.9030  2.8884
46502SOL     OW46555   2.908   7.369   4.044  0.2500 -0.1656 -0.3740
46502SOL    HW146556   2.949   7.398   3.962  1.0464 -1.4169 -0.4492
46502SOL    HW246557   2.981   7.362   4.106 -0.2361  0.0408  0.2318
46503SOL     OW46558   5.067   9.156  12.068 -0.3564  0.3373  0.0174
46503SOL    HW146559   5.088   9.246  12.041 -1.1645  0.3079 -0.7463
46503SOL    HW246560   5.052   9.109  11.986 -0.7460 -0.2964  0.4429
46504SOL     OW46561   7.151   1.678   4.029  0.3213 -0.3953 -0.8779
46504SOL    HW146562   7.163   1.746   3.963  0.1540  0.6337  0.1248
46504SOL    HW246563   7.236   1.672   4.073 -0.0171  0.0516 -0.1487
46505SOL     OW46564   3.788  10.753  10.276 -0.3222  0.3311  0.7427
46505SOL    HW146565   3.713  10.727  10.223  1.5449 -1.7563 -1.0913
46505SOL    HW246566   3.852  10.787  10.213  0.5312  1.5370  2.1702
46506SOL     OW46567   2.215   5.148  11.615  0.3029  0.0748  0.2318
46506SOL    HW146568   2.166   5.077  11.655  0.6105 -0.5942 -0.5473
46506SOL    HW246569   2.302   5.145  11.656  0.2130  0.2057  0.4301
46507SOL     OW46570   5.864   8.727   6.443  0.4999 -0.4598 -0.1076
46507SOL    HW146571   5.900   8.810   6.409  2.2063 -0.9401  0.4238
46507SOL    HW246572   5.940   8.681   6.478 -0.6825 -1.5168  1.1683
46508SOL     OW46573   5.480   7.771   4.451 -0.6635 -0.4599 -0.6289
46508SOL    HW146574   5.559   7.767   4.396  1.7188 -2.0858  2.5488
46508SOL    HW246575   5.486   7.855   4.496  1.3941 -1.9116  2.1607
46509SOL     OW46576   0.090  12.296   1.246 -0.0535 -0.3120  0.6956
46509SOL    HW146577   0.126  12.237   1.180 -0.4542 -0.5101  0.6518
46509SOL    HW246578   0.157  12.301   1.314  1.8612  2.4769 -1.1883
46510SOL     OW46579   7.489   3.326   0.029  0.2756  0.2306 -0.0316
46510SOL    HW146580   7.546   3.249   0.034  1.3755  0.9569 -0.8464
46510SOL    HW246581   7.530   3.390   0.088 -0.4553  0.2985  0.4064
46511SOL     OW46582   2.646   6.792  11.487  0.4598  0.4294  0.1630
46511SOL    HW146583   2.660   6.829  11.574  1.2246 -1.9682  1.1451
46511SOL    HW246584   2.670   6.700  11.496 -0.5542 -0.1607 -2.3148
46512SOL     OW46585   9.813   0.766   4.780  0.1559 -0.8501 -0.4077
46512SOL    HW146586   9.801   0.745   4.873  0.0012 -0.6125 -0.3730
46512SOL    HW246587   9.854   0.853   4.780 -0.6332 -0.4680 -0.5741
46513SOL     OW46588  11.052   4.919   1.412  0.0898 -0.3981  0.7379
46513SOL    HW146589  11.057   4.825   1.430  0.2057 -0.9745 -1.9110
46513SOL    HW246590  10.963   4.931   1.379  0.0580  0.4413  1.1256
46514SOL     OW46591  11.242   7.472  11.677 -0.2728  0.1283 -0.2950
46514SOL    HW146592  11.328   7.470  11.720 -0.5263  1.4095  0.3067
46514SOL    HW246593  11.198   7.548  11.714 -1.6095 -0.3946 -0.7365
46515SOL     OW46594   0.580   2.189   3.661 -0.3145  0.2095 -0.3264
46515SOL    HW146595   0.657   2.136   3.680 -0.3819 -0.1041 -0.9113
46515SOL    HW246596   0.507   2.126   3.662 -0.4431  0.3484 -0.6589
46516SOL     OW46597   3.389   3.705   3.799 -0.0451 -0.3810 -0.4960
46516SOL    HW146598   3.325   3.646   3.760 -0.1554  1.0511 -2.6741
46516SOL    HW246599   3.365   3.708   3.892 -3.1698  0.0985 -1.1961
46517SOL     OW46600   6.601   9.358   9.563  0.7654  0.4420  0.3021
46517SOL    HW146601   6.614   9.422   9.493  0.7576  0.3638  0.2293
46517SOL    HW246602   6.553   9.286   9.522 -1.9489  1.6988  1.1147
46518SOL     OW46603   6.222   2.707   6.026 -0.4882  0.1078 -0.1964
46518SOL    HW146604   6.260   2.767   6.089  1.1765  0.9628 -1.9177
46518SOL    HW246605   6.295   2.654   5.995 -1.3010 -0.4925 -1.1889
46519SOL     OW46606   3.462   3.517   9.050  0.3621  0.2830  0.1446
46519SOL    HW146607   3.530   3.584   9.046  1.4061 -0.7587  0.2468
46519SOL    HW246608   3.485   3.464   9.126  1.7399 -2.4784 -2.0492
46520SOL     OW46609   3.671   9.882   1.348 -0.1012 -0.2089 -0.3885
46520SOL    HW146610   3.666   9.811   1.413  1.0787  0.3225  0.3320
46520SOL    HW246611   3.602   9.862   1.285 -0.0211 -1.8068 -0.0194
46521SOL     OW46612   3.203   4.914  10.081 -0.0481  0.5472  0.2087
46521SOL    HW146613   3.258   4.981  10.040  1.1829 -0.2802  0.4444
46521SOL    HW246614   3.197   4.941  10.172 -0.9100  1.1778 -0.0164
46522SOL     OW46615   2.440   5.348  10.731  0.3308 -0.1609  0.5889
46522SOL    HW146616   2.474   5.261  10.749  0.9692  0.1825  1.1172
46522SOL    HW246617   2.347   5.335  10.711  0.2041 -0.8506  1.6008
46523SOL     OW46618   9.204  10.144   8.553 -0.0488 -0.1641 -0.4244
46523SOL    HW146619   9.282  10.179   8.597 -0.7761  0.2622  0.5778
46523SOL    HW246620   9.239  10.090   8.482  1.1393  0.9401 -0.7190
46524SOL     OW46621   2.185  10.794  11.930 -0.6526 -0.3380 -0.7060
46524SOL    HW146622   2.112  10.732  11.935 -1.3184  0.4123 -0.8671
46524SOL    HW246623   2.151  10.867  11.878  0.2742 -0.0500 -0.9344
46525SOL     OW46624   0.387   1.709  10.885  0.0199 -0.1723 -0.1054
46525SOL    HW146625   0.464   1.762  10.908  0.1278 -0.2671 -0.2518
46525SOL    HW246626   0.406   1.623  10.922  0.2816 -0.3817 -0.7184
46526SOL     OW46627   7.450   8.865   4.757  0.0079 -0.6317  0.5603
46526SOL    HW146628   7.373   8.811   4.771 -0.4499 -0.5809 -1.5135
46526SOL    HW246629   7.523   8.804   4.756 -0.3093 -1.0065 -0.0185
46527SOL     OW46630   8.234   4.157   3.206 -0.3217 -0.1649  0.6585
46527SOL    HW146631   8.195   4.199   3.283 -2.2419 -0.1616 -0.2623
46527SOL    HW246632   8.162   4.110   3.164  0.6076 -0.0053 -1.2549
46528SOL     OW46633   0.016   6.879   3.249  0.3340  0.3338  0.4014
46528SOL    HW146634  -0.021   6.821   3.183 -1.7246  1.1212  0.7958
46528SOL    HW246635   0.106   6.849   3.260 -0.1331 -1.6128 -0.6996
46529SOL     OW46636   7.090   7.392  12.523  0.6448 -0.2285 -0.6531
46529SOL    HW146637   7.035   7.330  12.571  1.4614  0.3008  1.0839
46529SOL    HW246638   7.036   7.471  12.516 -0.0313 -0.7801 -1.9917
46530SOL     OW46639   0.676   3.263  11.925  0.2937 -0.1598 -0.0368
46530SOL    HW146640   0.746   3.219  11.972  1.5752  0.8668 -0.9386
46530SOL    HW246641   0.695   3.356  11.932 -1.2976  0.1910  0.1743
46531SOL     OW46642   9.576  10.743   6.823  0.0504 -0.3653  0.4110
46531SOL    HW146643   9.578  10.834   6.793  0.9153 -0.5386 -0.1142
46531SOL    HW246644   9.606  10.693   6.747  1.1807 -0.9335  1.2005
46532SOL     OW46645   6.482   4.471   7.941  0.4690  0.2781 -0.0872
46532SOL    HW146646   6.403   4.448   7.891  0.5545 -0.3825  0.0716
46532SOL    HW246647   6.491   4.566   7.930 -1.3434  0.6756  1.3201
46533SOL     OW46648   0.275  10.927   1.802  0.0438  0.4277  0.0871
46533SOL    HW146649   0.343  10.888   1.747  1.8987  0.7686  2.0006
46533SOL    HW246650   0.264  11.016   1.768  1.0830  0.5961  0.1397
46534SOL     OW46651   3.538  11.373   6.363 -0.6003 -0.2087  0.4371
46534SOL    HW146652   3.553  11.324   6.282 -1.0912 -2.7829  1.7808
46534SOL    HW246653   3.621  11.418   6.380 -0.7875  1.2176 -1.9197
46535SOL     OW46654   7.714   4.383   2.468  0.0654  0.6047 -0.4826
46535SOL    HW146655   7.791   4.358   2.520  0.0995  1.5880 -0.0328
46535SOL    HW246656   7.687   4.468   2.505 -2.0111 -0.2985  0.2409
46536SOL     OW46657   8.389  11.916  12.579  0.1947  0.1665 -0.0342
46536SOL    HW146658   8.383  11.821  12.580  0.2356  0.0802 -2.7966
46536SOL    HW246659   8.482  11.935  12.564 -0.2829  0.4780 -3.2109
46537SOL     OW46660   4.995   9.490  11.626  0.6166  0.5050 -0.6824
46537SOL    HW146661   5.037   9.476  11.542  0.7944  1.0438 -0.6829
46537SOL    HW246662   4.935   9.563  11.612 -1.0765 -0.8739 -0.9462
46538SOL     OW46663   5.500  10.971  11.828 -1.2108 -0.2462 -0.1620
46538SOL    HW146664   5.432  10.931  11.882 -1.7849  0.7108 -0.1559
46538SOL    HW246665   5.531  11.046  11.879 -0.6895 -0.2306 -0.4967
46539SOL     OW46666   9.725   0.766   3.904 -0.1549  0.0587  0.6258
46539SOL    HW146667   9.752   0.848   3.945  0.2687  0.6666 -0.8074
46539SOL    HW246668   9.640   0.746   3.943  0.9776 -0.3285  3.0608
46540SOL     OW46669   3.650   7.783   4.651  0.0677 -0.3353 -0.2960
46540SOL    HW146670   3.649   7.879   4.643  0.7244 -0.3617 -0.7563
46540SOL    HW246671   3.618   7.766   4.739  0.5722  0.3395  0.0221
46541SOL     OW46672   5.886   7.417  10.754  0.1625  0.0378  0.9566
46541SOL    HW146673   5.981   7.430  10.758  0.0759  1.8557 -0.9474
46541SOL    HW246674   5.869   7.397  10.662 -1.1905 -1.8205  1.5467
46542SOL     OW46675   0.253  10.182  11.239 -0.3595  0.3280 -0.3752
46542SOL    HW146676   0.174  10.233  11.256  0.2526  1.0447  0.4253
46542SOL    HW246677   0.301  10.184  11.322 -0.6066 -2.1026 -0.0995
46543SOL     OW46678   5.413   5.277   0.650  0.4083  0.3271 -0.3641
46543SOL    HW146679   5.333   5.311   0.690  0.4043  0.4157 -0.4454
46543SOL    HW246680   5.452   5.221   0.717  0.3014  0.3199 -0.3081
46544SOL     OW46681  11.667   5.974  11.199  0.3533 -0.3295  0.0126
46544SOL    HW146682  11.688   5.880  11.197 -0.9314 -0.6242 -0.0242
46544SOL    HW246683  11.575   5.978  11.226  1.0363  1.0329  2.4951
46545SOL     OW46684   1.431   8.860  10.941 -0.6807  0.0462 -0.2160
46545SOL    HW146685   1.411   8.922  10.870 -0.9975  0.0942 -0.0859
46545SOL    HW246686   1.524   8.840  10.929 -0.6664  0.2597 -0.4853
46546SOL     OW46687   8.084   2.570   6.089  0.2382 -0.0279  0.4229
46546SOL    HW146688   7.992   2.575   6.062 -0.4387 -1.2789  2.2629
46546SOL    HW246689   8.094   2.643   6.151 -0.3035 -1.3789  2.1850
46547SOL     OW46690   8.641   9.586   3.118  0.0049  0.1442  0.3111
46547SOL    HW146691   8.647   9.571   3.024 -0.4571  0.0644  0.2923
46547SOL    HW246692   8.614   9.677   3.127 -1.6182 -0.3058  0.3166
46548SOL     OW46693   4.626   7.580  11.354 -0.0434 -0.4588  0.4255
46548SOL    HW146694   4.630   7.647  11.422  0.5396 -0.6924  0.6235
46548SOL    HW246695   4.703   7.594  11.301 -0.6365 -0.1107 -0.3557
46549SOL     OW46696  12.082   2.811   2.754 -0.4645  0.0695  0.2551
46549SOL    HW146697  12.084   2.891   2.807  1.3316 -0.9038  1.7817
46549SOL    HW246698  12.071   2.741   2.818 -1.3276 -0.9850 -0.9978
46550SOL     OW46699   2.814   9.228  11.210 -0.0205  0.0311 -0.4405
46550SOL    HW146700   2.784   9.249  11.122 -1.0609  1.4821  0.2030
46550SOL    HW246701   2.740   9.182  11.249 -0.7376  1.8714  0.5253
46551SOL     OW46702   0.295   7.593   6.849  0.2899 -0.0423 -0.1677
46551SOL    HW146703   0.247   7.602   6.932 -0.8510  0.4344 -0.8505
46551SOL    HW246704   0.363   7.660   6.854  0.8344 -0.6456  0.7723
46552SOL     OW46705   8.265   4.698   5.525 -0.1551 -0.1728  0.4278
46552SOL    HW146706   8.281   4.605   5.507 -0.5919 -0.3172  0.7741
46552SOL    HW246707   8.353   4.735   5.534  0.0197 -0.6160  0.6052
46553SOL     OW46708   3.186   1.379   5.037 -0.0138 -0.5805  0.3673
46553SOL    HW146709   3.150   1.445   5.095 -2.5620 -0.7002 -0.9359
46553SOL    HW246710   3.281   1.389   5.045 -0.3031  1.5451  2.0374
46554SOL     OW46711  11.484  11.217   9.002 -0.1396  0.0181  0.1526
46554SOL    HW146712  11.406  11.187   8.956 -0.5482  0.7717  0.3584
46554SOL    HW246713  11.512  11.296   8.955 -0.0171  0.2583  0.6244
46555SOL     OW46714   7.754   0.579   9.914 -0.2304  0.5904 -0.3736
46555SOL    HW146715   7.712   0.552   9.832 -0.3086  1.5106 -0.6510
46555SOL    HW246716   7.753   0.674   9.910  0.6876  0.6320  0.2308
46556SOL     OW46717  11.696   6.637  12.439  0.5787  0.2807  0.3554
46556SOL    HW146718  11.602   6.647  12.452  0.5009 -0.9454  0.9163
46556SOL    HW246719  11.727   6.595  12.519  1.9448  2.3932  0.9970
46557SOL     OW46720   7.577   0.323   2.045 -0.3769  0.1692  0.5111
46557SOL    HW146721   7.485   0.343   2.058 -0.4535 -0.4298  0.9462
46557SOL    HW246722   7.616   0.405   2.015 -1.4339 -0.0507 -1.7314
46558SOL     OW46723   8.760   7.957   8.549  0.1166  0.3167 -0.7205
46558SOL    HW146724   8.680   7.913   8.579  0.3400  0.7330  0.5262
46558SOL    HW246725   8.728   8.028   8.493 -0.3361 -0.0475 -0.9364
46559SOL     OW46726   1.170   6.858   8.018 -0.5472  0.6943  0.0085
46559SOL    HW146727   1.117   6.791   7.977 -1.0234  1.1296 -0.0945
46559SOL    HW246728   1.214   6.902   7.945 -1.2951  1.3839 -0.0363
46560SOL     OW46729   4.928   6.465   7.773  0.3957  0.1666  0.2257
46560SOL    HW146730   4.928   6.560   7.760  0.2720  0.1957  0.4308
46560SOL    HW246731   4.925   6.428   7.685  0.5296  0.3541  0.1427
46561SOL     OW46732   2.326   7.675   3.520  0.6401  0.0418 -0.2634
46561SOL    HW146733   2.368   7.705   3.601 -0.9208 -0.2549  0.6879
46561SOL    HW246734   2.310   7.754   3.469  1.1855  0.2789 -0.0702
46562SOL     OW46735   7.119   4.316   2.264 -0.3242  0.1384  0.6331
46562SOL    HW146736   7.209   4.298   2.237 -0.1981  0.7791  0.6081
46562SOL    HW246737   7.076   4.351   2.186 -0.5539 -0.0221  0.6857
46563SOL     OW46738   7.844   9.803  12.507  0.0364 -0.1678  0.1943
46563SOL    HW146739   7.816   9.858  12.434  1.0333  0.1848  0.0658
46563SOL    HW246740   7.885   9.864  12.569  1.5996 -0.7922 -0.1758
46564SOL     OW46741   9.549   6.937   9.811  0.5528  0.1500 -0.2067
46564SOL    HW146742   9.634   6.909   9.777  0.6695  0.6778 -0.3559
46564SOL    HW246743   9.522   7.008   9.753 -0.5234 -0.7629 -0.8483
46565SOL     OW46744   6.200   5.140   6.843  0.1137  0.5812 -0.0916
46565SOL    HW146745   6.228   5.131   6.752  1.8994  2.0215  0.2501
46565SOL    HW246746   6.222   5.055   6.883  1.7590  0.7951 -0.4463
46566SOL     OW46747   3.884   7.309   3.125  0.3365  0.3979 -0.0153
46566SOL    HW146748   3.800   7.329   3.083  0.1835 -1.1445 -0.4878
46566SOL    HW246749   3.932   7.258   3.060  1.8114  1.5515  0.1030
46567SOL     OW46750   7.687   7.772  10.106  0.6816 -0.5052  0.4080
46567SOL    HW146751   7.645   7.687  10.093 -1.0858  0.0329  2.1017
46567SOL    HW246752   7.752   7.756  10.174 -2.0728  0.0511  3.4202
46568SOL     OW46753   6.303   7.091  11.528 -0.2352 -0.2862  0.0009
46568SOL    HW146754   6.258   7.008  11.515 -0.2355 -0.3436  0.3424
46568SOL    HW246755   6.303   7.103  11.623 -0.7093  0.3604 -0.0685
46569SOL     OW46756   1.479   0.789   0.316  0.0706  0.3027  0.9803
46569SOL    HW146757   1.541   0.717   0.331 -0.2851  0.0465  1.2356
46569SOL    HW246758   1.471   0.832   0.401 -1.0674 -0.4469  1.2777
46570SOL     OW46759  12.458   4.670   5.511  0.3613 -0.2537  0.4746
46570SOL    HW146760  12.458   4.759   5.474  0.2521 -0.9495 -1.2668
46570SOL    HW246761  12.370   4.637   5.495  1.2962 -1.8324 -1.9053
46571SOL     OW46762   2.058   8.600  10.616 -0.5349 -0.0182 -0.1263
46571SOL    HW146763   2.146   8.629  10.637 -1.2587  0.1526  3.1155
46571SOL    HW246764   2.058   8.590  10.521  2.6221  1.0098 -0.3296
46572SOL     OW46765  10.116   5.252  12.420 -0.6462 -0.1029  0.4612
46572SOL    HW146766  10.089   5.163  12.441  1.4703 -0.7185  0.7979
46572SOL    HW246767  10.097   5.302  12.499 -1.4745 -0.3189  0.4097
46573SOL     OW46768   9.707   1.757  10.857  0.5902 -0.5630  0.2679
46573SOL    HW146769   9.661   1.777  10.939 -1.0546 -1.6166 -0.3403
46573SOL    HW246770   9.741   1.841  10.828 -0.5021  0.1772  1.0365
46574SOL     OW46771   7.309   0.761   0.394 -0.0490 -0.2029 -0.4485
46574SOL    HW146772   7.324   0.701   0.467 -1.5799 -0.7088 -0.4964
46574SOL    HW246773   7.268   0.837   0.434 -1.2249 -0.6297 -0.7795
46575SOL     OW46774   9.691   9.777   9.722  0.5476  0.2175  0.0909
46575SOL    HW146775   9.762   9.718   9.748 -0.8369 -1.9311 -0.7559
46575SOL    HW246776   9.703   9.789   9.628 -0.2371 -0.1994 -0.0650
46576SOL     OW46777   4.185   2.493   8.702  1.1789 -0.4697  0.2770
46576SOL    HW146778   4.148   2.405   8.695  0.9309 -0.2963 -0.8237
46576SOL    HW246779   4.143   2.530   8.780  2.7280 -1.9648  1.9138
46577SOL     OW46780   0.132   8.297   0.908 -0.4940  0.3951 -0.4122
46577SOL    HW146781   0.150   8.300   0.814  0.1325 -0.4847 -0.3322
46577SOL    HW246782   0.140   8.205   0.931 -0.3341  0.6428  0.5655
46578SOL     OW46783   7.282   8.764   6.264 -0.2743 -0.1828 -0.0545
46578SOL    HW146784   7.373   8.744   6.282 -0.0373 -0.0977 -1.1037
46578SOL    HW246785   7.232   8.707   6.323  0.4358 -0.8681 -0.1138
46579SOL     OW46786   5.067   6.215   2.692 -0.1601 -0.0358 -0.4924
46579SOL    HW146787   5.021   6.274   2.632  0.0340  2.0136  1.2501
46579SOL    HW246788   4.997   6.165   2.734 -0.3804 -0.5846 -1.4818
46580SOL     OW46789   2.962   2.083  11.207  0.3109  0.6795  0.0982
46580SOL    HW146790   3.013   2.029  11.267  0.1674  1.3012  0.7958
46580SOL    HW246791   3.009   2.078  11.124  0.5687 -0.1105  0.2851
46581SOL     OW46792   7.710   1.721   4.529 -0.2051  0.4546  0.1431
46581SOL    HW146793   7.802   1.737   4.511  0.1317  0.1191  1.5034
46581SOL    HW246794   7.686   1.648   4.471  1.0628 -1.1451  1.5450
46582SOL     OW46795   5.509   4.849   4.190  0.1705  0.2804 -0.0063
46582SOL    HW146796   5.525   4.922   4.251  0.1724  0.5295 -0.3034
46582SOL    HW246797   5.594   4.806   4.181  0.4576  0.9891 -0.7917
46583SOL     OW46798   0.117   6.855   7.357 -0.1113  0.0432  0.4561
46583SOL    HW146799   0.144   6.919   7.292 -2.3756  0.4555 -0.1721
46583SOL    HW246800   0.048   6.899   7.407 -1.3719 -1.6607  0.3413
46584SOL     OW46801   4.090   4.786  11.155  0.4106 -0.6638 -0.6541
46584SOL    HW146802   4.056   4.875  11.145 -0.6443 -1.0264 -0.4629
46584SOL    HW246803   4.185   4.796  11.157  0.3328  0.9134  3.2647
46585SOL     OW46804   0.580  10.110   1.211 -0.8129  0.4755  0.5252
46585SOL    HW146805   0.615  10.196   1.232 -1.1324  0.5101  0.9111
46585SOL    HW246806   0.653  10.050   1.228 -0.8554  0.5766  1.0604
46586SOL     OW46807   6.050   2.233  10.149 -0.3819 -0.3261  0.0654
46586SOL    HW146808   6.114   2.272  10.209  1.1122  2.2890 -2.8917
46586SOL    HW246809   5.978   2.296  10.146 -0.3315 -0.2954 -0.9655
46587SOL     OW46810   8.843   3.758   8.120  0.9341  0.3120 -0.6219
46587SOL    HW146811   8.778   3.692   8.098  2.4553 -0.7153 -2.3707
46587SOL    HW246812   8.814   3.795   8.203 -2.5738  0.8514 -1.9510
46588SOL     OW46813   1.383   2.175   0.936 -0.1127  0.2672 -0.9083
46588SOL    HW146814   1.450   2.202   0.999 -0.6396 -3.6294  1.7394
46588SOL    HW246815   1.302   2.215   0.969 -0.1482 -0.6311  0.1584
46589SOL     OW46816  11.248   6.031  12.221 -0.3829 -0.1901  0.2237
46589SOL    HW146817  11.307   6.092  12.174 -1.7291 -0.4929 -2.0057
46589SOL    HW246818  11.164   6.040  12.175 -1.7992 -0.5921  2.6146
46590SOL     OW46819   8.943   5.290   6.394  0.3944  0.1973 -0.2429
46590SOL    HW146820   8.887   5.288   6.472  1.1818 -0.1617  0.3342
46590SOL    HW246821   8.886   5.265   6.322 -0.1358 -0.3447  0.3564
46591SOL     OW46822   3.094   6.572  12.116 -0.1888  0.5609 -0.1786
46591SOL    HW146823   3.018   6.521  12.144 -1.0620  1.1192 -1.4556
46591SOL    HW246824   3.139   6.593  12.197 -0.8697 -0.5819  0.5328
46592SOL     OW46825   8.161   8.618   9.763  0.1987  0.4320 -0.0251
46592SOL    HW146826   8.197   8.707   9.756  0.8120  0.3081  1.2468
46592SOL    HW246827   8.174   8.595   9.855  0.5003 -1.1709 -0.4543
46593SOL     OW46828   4.481   7.042   2.887  0.1210  0.0875  0.3695
46593SOL    HW146829   4.406   7.005   2.933  1.5342 -1.4906  1.5302
46593SOL    HW246830   4.542   6.969   2.877  1.0478  1.0423 -1.5965
46594SOL     OW46831   1.420   8.101  11.834  0.1350  0.2170  0.7803
46594SOL    HW146832   1.438   8.028  11.775  1.2007 -0.8994  2.4075
46594SOL    HW246833   1.507   8.135  11.857 -0.2548  0.5663  1.7815
46595SOL     OW46834   3.064   3.961   5.481  0.4515  0.8871 -0.0972
46595SOL    HW146835   2.971   3.985   5.475  0.5950  1.2919 -0.7787
46595SOL    HW246836   3.068   3.872   5.446  0.2036  0.5495  0.6997
46596SOL     OW46837   3.327  11.761   6.823  0.7059 -0.1415 -0.4255
46596SOL    HW146838   3.273  11.822   6.874  1.2467 -0.5299  0.6599
46596SOL    HW246839   3.283  11.753   6.739 -0.0203  0.8176 -0.1518
46597SOL     OW46840   9.272  10.352  10.974  0.2850 -0.3547 -0.2215
46597SOL    HW146841   9.219  10.411  10.921 -1.6553 -1.9668 -0.1957
46597SOL    HW246842   9.289  10.401  11.054 -2.1436 -0.1099  0.2214
46598SOL     OW46843   1.945   3.074   6.861  0.3003 -0.6148 -0.0045
46598SOL    HW146844   1.900   3.074   6.946 -1.4347 -2.4502 -0.8644
46598SOL    HW246845   2.029   3.115   6.880  0.2080 -1.4537  2.7396
46599SOL     OW46846   5.191   2.560   2.667 -0.3058  0.2952 -0.0472
46599SOL    HW146847   5.185   2.473   2.628 -0.7547  0.2649  0.0927
46599SOL    HW246848   5.257   2.605   2.614 -0.1706 -0.0845 -0.2028
46600SOL     OW46849   7.346   2.100   5.220 -0.1342  0.0711 -0.4225
46600SOL    HW146850   7.268   2.099   5.165 -0.3305  1.1260 -0.1981
46600SOL    HW246851   7.419   2.107   5.158 -0.3473  1.1148 -0.5849
46601SOL     OW46852   6.697   5.636   8.148  0.3275 -0.3103 -0.2001
46601SOL    HW146853   6.699   5.731   8.146 -0.5956 -0.2739 -1.9445
46601SOL    HW246854   6.604   5.614   8.157  0.4769 -1.0364 -0.3300
46602SOL     OW46855   7.163   9.456   0.098  0.1185 -0.5439  0.1906
46602SOL    HW146856   7.146   9.431   0.189  1.2278  3.2242  1.6248
46602SOL    HW246857   7.077   9.477   0.063 -0.2924 -1.7634  0.4135
46603SOL     OW46858   9.406   1.652  11.365 -0.5862  0.4300 -0.1363
46603SOL    HW146859   9.367   1.610  11.442  1.6085 -0.3533  0.6212
46603SOL    HW246860   9.501   1.644  11.379 -0.0848  3.1796 -1.3365
46604SOL     OW46861   3.126   3.094   5.101  0.2179  0.5207  0.3551
46604SOL    HW146862   3.160   3.182   5.083  1.7656 -0.1423 -0.1161
46604SOL    HW246863   3.193   3.053   5.155 -0.1038 -0.6336 -0.0943
46605SOL     OW46864   3.955   9.389   4.666  0.2400 -0.1456 -0.0501
46605SOL    HW146865   3.936   9.442   4.588 -1.8951 -0.6377  0.0692
46605SOL    HW246866   3.871   9.347   4.687  0.7860 -0.1287  2.4485
46606SOL     OW46867   1.040   0.288  11.866  0.2736 -0.2310 -0.3552
46606SOL    HW146868   0.958   0.240  11.857  0.8165 -1.2474 -0.0479
46606SOL    HW246869   1.016   0.380  11.853 -0.8706 -0.5334 -0.4636
46607SOL     OW46870  12.482   2.771   4.873  0.0561  0.1920  0.2689
46607SOL    HW146871  12.395   2.731   4.871 -0.2681  0.8863  0.3952
46607SOL    HW246872  12.535   2.714   4.816 -0.3829 -0.4406  0.4727
46608SOL     OW46873  10.961   6.635  10.680 -0.0236 -0.1703  0.0150
46608SOL    HW146874  10.877   6.591  10.675 -0.5420  0.4221  2.2960
46608SOL    HW246875  11.005   6.596  10.756  1.1323  0.5273 -0.2615
46609SOL     OW46876   4.052   9.502   6.154 -0.8724 -1.0563  0.3521
46609SOL    HW146877   4.064   9.560   6.079 -3.3715 -0.9850 -0.0582
46609SOL    HW246878   4.126   9.441   6.149  0.7831  0.8953 -0.2811
46610SOL     OW46879   4.119   5.332   3.620 -0.4222 -0.0706 -0.2037
46610SOL    HW146880   4.160   5.276   3.686 -0.2489 -0.8760 -0.9811
46610SOL    HW246881   4.035   5.358   3.659 -0.0275  0.0222  0.6046
46611SOL     OW46882   0.932   0.816   6.459  0.1865 -0.1508  0.3797
46611SOL    HW146883   0.952   0.739   6.406  1.3595 -0.3354  1.0764
46611SOL    HW246884   0.943   0.890   6.398 -2.6869 -0.5625 -0.7990
46612SOL     OW46885   0.756   7.816   6.890  0.0637  0.4212 -0.1274
46612SOL    HW146886   0.749   7.748   6.956  0.5342 -0.3255 -0.8310
46612SOL    HW246887   0.747   7.770   6.806  0.5159  1.1997 -0.6216
46613SOL     OW46888   3.619   6.505  12.054 -0.3225 -0.0017 -0.1719
46613SOL    HW146889   3.654   6.591  12.078 -0.6621  0.1965 -0.3690
46613SOL    HW246890   3.526   6.511  12.075 -0.2950 -0.4151  0.0617
46614SOL     OW46891  10.525   3.412   4.992 -0.0930 -0.0639  0.6069
46614SOL    HW146892  10.497   3.450   4.909 -0.5575 -1.4810  0.0878
46614SOL    HW246893  10.545   3.320   4.971  0.8946 -0.1578  1.8270
46615SOL     OW46894   0.836   8.665   7.610  0.2761  0.4031 -0.1251
46615SOL    HW146895   0.908   8.684   7.549 -0.0409  0.8035 -0.3777
46615SOL    HW246896   0.818   8.572   7.597  2.4972 -0.3947  1.8139
46616SOL     OW46897  12.227  11.732   5.835  0.3061 -0.6485  0.0079
46616SOL    HW146898  12.152  11.743   5.894 -0.3653 -1.3462 -0.6902
46616SOL    HW246899  12.283  11.807   5.854 -1.0753  0.4807 -0.1947
46617SOL     OW46900   7.473   5.695   7.440  0.3848  0.1719 -0.0981
46617SOL    HW146901   7.435   5.670   7.524 -1.3051  0.7072 -0.6570
46617SOL    HW246902   7.539   5.761   7.463 -0.7314  1.0450  0.7807
46618SOL     OW46903  11.398  12.457   1.955  0.1955  0.1037 -0.3636
46618SOL    HW146904  11.340  12.382   1.954  0.7795 -0.3694  0.4332
46618SOL    HW246905  11.352  12.523   2.007  0.7152 -0.5710  0.9956
46619SOL     OW46906  12.236  11.235   3.646  0.2728  0.4880  0.5079
46619SOL    HW146907  12.232  11.259   3.739 -0.3821 -1.1938  0.9505
46619SOL    HW246908  12.144  11.227   3.620  0.4457 -0.9670  0.2671
46620SOL     OW46909  11.382   7.011   6.751  1.0499 -0.1694  0.2436
46620SOL    HW146910  11.371   6.917   6.764  0.7070 -0.2328 -0.4964
46620SOL    HW246911  11.350   7.050   6.833 -0.1981 -0.6209 -0.0000
46621SOL     OW46912  12.017   2.584   8.419  0.3796  0.6581 -0.4908
46621SOL    HW146913  12.064   2.520   8.366  0.7537  2.1110 -1.9717
46621SOL    HW246914  11.932   2.592   8.376  0.4499  1.3933 -0.4910
46622SOL     OW46915   2.500  10.744   5.857  0.1601 -0.0861  0.1668
46622SOL    HW146916   2.462  10.663   5.822 -0.0543  0.4102 -0.7737
46622SOL    HW246917   2.508  10.801   5.781  0.7219  0.6211  0.7510
46623SOL     OW46918   9.281  12.055   8.089  0.1180 -0.2182 -0.3448
46623SOL    HW146919   9.360  12.104   8.067 -1.3629  1.6415 -1.8804
46623SOL    HW246920   9.270  11.993   8.016 -0.5744  0.4979 -0.8579
46624SOL     OW46921   8.180   1.931   3.197  0.7365  0.0751 -0.0623
46624SOL    HW146922   8.268   1.898   3.179  1.2404  1.5461 -0.3915
46624SOL    HW246923   8.177   2.017   3.156 -0.1211  0.9966  1.7803
46625SOL     OW46924   7.749   5.358   3.102 -0.4162  0.1720 -0.5803
46625SOL    HW146925   7.838   5.358   3.067 -0.7655 -0.9302 -1.5081
46625SOL    HW246926   7.698   5.404   3.036 -0.4100  1.5655  0.3523
46626SOL     OW46927   4.710  10.212   1.148 -0.8513  0.1323  0.1958
46626SOL    HW146928   4.764  10.230   1.225 -0.5914  0.8346 -0.1472
46626SOL    HW246929   4.663  10.131   1.171 -0.5955  0.1956  0.9896
46627SOL     OW46930   2.672   9.649   3.271 -0.5967  0.8651 -0.5788
46627SOL    HW146931   2.610   9.582   3.242  0.6312 -0.0309 -1.2309
46627SOL    HW246932   2.737   9.601   3.322 -0.8760  1.9222  0.8356
46628SOL     OW46933  12.117  10.096   7.799 -0.4927 -0.7391  0.1283
46628SOL    HW146934  12.156  10.168   7.847 -0.3598  0.1767 -1.2842
46628SOL    HW246935  12.045  10.066   7.854  0.9145 -1.1423  1.8528
46629SOL     OW46936   2.593  11.082  12.534  0.2374  0.7712  0.6612
46629SOL    HW146937   2.588  11.053  12.625  0.9459  0.3389  0.5677
46629SOL    HW246938   2.535  11.158  12.530 -2.3189 -1.0508  0.7454
46630SOL     OW46939   9.201  10.370   6.289 -0.2552 -0.2145  0.0732
46630SOL    HW146940   9.278  10.425   6.300  0.6258 -1.3472 -0.2277
46630SOL    HW246941   9.146  10.390   6.365 -0.4278  1.7703 -0.5333
46631SOL     OW46942  12.183   7.184   8.460  0.0555 -0.0221  0.2482
46631SOL    HW146943  12.182   7.124   8.386 -3.5416 -1.1972  1.0630
46631SOL    HW246944  12.183   7.271   8.421 -1.2765 -0.6116 -1.1512
46632SOL     OW46945   4.282   1.615   4.808  0.6399  0.1472 -1.3895
46632SOL    HW146946   4.211   1.564   4.848  0.9443  1.3352  0.8348
46632SOL    HW246947   4.237   1.677   4.751  0.0293 -0.2788 -1.3862
46633SOL     OW46948   6.129  12.450  11.966  0.0053  0.0669  0.6165
46633SOL    HW146949   6.145  12.366  11.923  0.1803  0.2354  0.3397
46633SOL    HW246950   6.142  12.514  11.896  1.5703  0.4374  1.2074
46634SOL     OW46951   2.058   0.439   3.468 -0.0275 -0.1944 -0.3427
46634SOL    HW146952   2.114   0.478   3.400 -0.7587 -3.5211 -3.1306
46634SOL    HW246953   1.974   0.484   3.458  1.0272  2.4694  1.5921
46635SOL     OW46954  10.730   3.138   1.774  0.2649  0.2123 -0.7769
46635SOL    HW146955  10.747   3.225   1.738  0.6717  0.4008 -0.1485
46635SOL    HW246956  10.781   3.135   1.855 -1.1885  0.0608  0.1616
46636SOL     OW46957  11.007  10.078   7.938 -0.3337 -0.3610  0.4768
46636SOL    HW146958  11.067  10.023   7.988  1.5321  0.1232 -1.0515
46636SOL    HW246959  11.057  10.100   7.858 -1.7237  1.9011  0.1361
46637SOL     OW46960   7.507   3.218   9.953 -0.0998 -0.1135 -0.0359
46637SOL    HW146961   7.473   3.294  10.002 -0.6739 -0.7570  0.5854
46637SOL    HW246962   7.434   3.157   9.950  0.6001 -0.9729  0.1505
46638SOL     OW46963   2.194   2.544   9.796 -0.2501 -0.2634  0.4088
46638SOL    HW146964   2.216   2.594   9.716 -2.7969 -0.8453 -0.7611
46638SOL    HW246965   2.248   2.584   9.864  1.4549  0.7915 -1.4305
46639SOL     OW46966  11.411   6.185   1.451 -0.6863  0.1573 -0.3730
46639SOL    HW146967  11.488   6.132   1.468 -2.6883 -2.4188  1.5714
46639SOL    HW246968  11.385   6.161   1.362 -0.8453 -1.2368  0.0240
46640SOL     OW46969  10.227   2.512  10.803  0.0217  0.3783 -0.2138
46640SOL    HW146970  10.297   2.578  10.806  1.2376 -0.8502 -0.4887
46640SOL    HW246971  10.179   2.532  10.722  0.4387  0.8672 -0.3461
46641SOL     OW46972   8.412   5.391  11.408 -0.1953  0.2690  0.0152
46641SOL    HW146973   8.419   5.314  11.463 -2.5769 -0.0055  0.0518
46641SOL    HW246974   8.415   5.357  11.318 -1.2646  0.0875  0.0317
46642SOL     OW46975   6.398   3.427  11.417 -0.4109 -0.7273 -0.2437
46642SOL    HW146976   6.379   3.471  11.500 -2.0231 -0.8847 -0.5058
46642SOL    HW246977   6.358   3.483  11.351  1.9423  0.0872 -1.1028
46643SOL     OW46978  10.264  10.827   8.405 -0.2773  0.8203 -0.1320
46643SOL    HW146979  10.215  10.790   8.479 -0.2156 -1.2434 -1.0370
46643SOL    HW246980  10.281  10.917   8.431 -1.1745  0.4853  1.9040
46644SOL     OW46981   9.016   0.250   7.847 -0.0897 -0.2212 -0.5241
46644SOL    HW146982   8.964   0.325   7.820  0.8703  1.1398  1.1720
46644SOL    HW246983   8.961   0.174   7.828 -0.8235  0.8355 -2.8792
46645SOL     OW46984   0.551  11.566   7.009  0.3832  0.2762 -0.2242
46645SOL    HW146985   0.559  11.639   6.947  1.0768  0.1276 -0.3120
46645SOL    HW246986   0.525  11.492   6.955 -4.5710  1.2591  0.3325
46646SOL     OW46987  10.012   2.463   1.756  0.3560 -0.3627  0.1695
46646SOL    HW146988  10.047   2.507   1.833  0.6113  0.1805 -0.2491
46646SOL    HW246989   9.943   2.522   1.724  1.0283 -0.0101 -0.6761
46647SOL     OW46990   0.262   3.126   9.498  0.5087 -0.0276  0.2732
46647SOL    HW146991   0.284   3.211   9.536  2.0329 -0.4709  0.4353
46647SOL    HW246992   0.166   3.125   9.496  0.4588  1.5222  0.6329
46648SOL     OW46993   7.171   0.190   4.369  0.4626 -0.5290 -0.6519
46648SOL    HW146994   7.138   0.111   4.411  3.1700 -1.1515  0.5539
46648SOL    HW246995   7.210   0.241   4.440 -0.6120  1.6247 -1.4955
46649SOL     OW46996   3.596   3.939   0.905 -0.3981 -0.1425  0.1211
46649SOL    HW146997   3.605   3.943   0.810 -1.2211  0.4289  0.0596
46649SOL    HW246998   3.673   3.985   0.938 -0.4646  0.2659 -0.2815
46650SOL     OW46999  11.515   9.120   8.166 -0.0825  0.9446  0.5629
46650SOL    HW147000  11.469   9.036   8.157 -0.8381  1.3385  0.6441
46650SOL    HW247001  11.445   9.185   8.170  0.5121  1.7388 -1.0044
46651SOL     OW47002   8.686   9.926   7.759 -0.5289 -0.3144  0.4543
46651SOL    HW147003   8.769   9.971   7.746 -0.1026 -0.8798  1.1054
46651SOL    HW247004   8.670   9.931   7.853 -0.8636 -0.8308  0.4331
46652SOL     OW47005   6.570   5.227   7.016 -0.0745 -0.1079 -0.2889
46652SOL    HW147006   6.664   5.219   7.000 -0.1164 -0.1332 -0.5217
46652SOL    HW247007   6.560   5.207   7.109 -0.0993 -2.0919 -0.6791
46653SOL     OW47008   1.878   1.348   5.265 -0.5875  0.0720 -0.0905
46653SOL    HW147009   1.854   1.378   5.177 -1.5290 -1.5799 -0.4595
46653SOL    HW247010   1.970   1.322   5.257 -0.6921 -0.1542 -0.6252
46654SOL     OW47011  11.458   5.239   8.821  0.2140 -0.0477  0.4992
46654SOL    HW147012  11.526   5.197   8.767 -0.0531 -1.4478  1.1927
46654SOL    HW247013  11.426   5.312   8.768  0.4186 -0.9837 -0.9717
46655SOL     OW47014   8.285   4.020   4.686  0.1859  1.1418 -0.3390
46655SOL    HW147015   8.343   4.073   4.631 -0.2266  0.5023 -1.4049
46655SOL    HW247016   8.333   3.938   4.698  0.9942  1.8376  1.6225
46656SOL     OW47017   3.769   7.341   4.061  0.0863 -0.0800  0.7257
46656SOL    HW147018   3.767   7.344   4.157  0.4058 -1.9444  0.8217
46656SOL    HW247019   3.765   7.248   4.040  4.6734 -0.1052 -0.9576
46657SOL     OW47020   7.420   3.854  10.421 -1.0239  0.0763  0.3326
46657SOL    HW147021   7.499   3.866  10.474  0.4757  1.1380 -1.9890
46657SOL    HW247022   7.385   3.770  10.449  0.5713 -0.1420  1.8693
46658SOL     OW47023  10.068  11.365   6.065  0.3584 -0.5295 -0.2900
46658SOL    HW147024  10.012  11.320   6.002  0.0712 -0.0719 -0.3669
46658SOL    HW247025  10.021  11.357   6.148  1.3492 -2.2420  0.1369
46659SOL     OW47026   0.930   1.969   7.851 -0.2079  0.3066 -0.7351
46659SOL    HW147027   0.878   2.029   7.798  3.1141  1.1061 -3.4689
46659SOL    HW247028   0.921   1.884   7.808 -0.2412  0.1780 -0.4760
46660SOL     OW47029   9.801   0.812   3.387 -0.0672  0.9050  0.5356
46660SOL    HW147030   9.789   0.817   3.481  0.5196 -0.6612  0.7139
46660SOL    HW247031   9.724   0.766   3.354  0.6701 -0.3500  0.5129
46661SOL     OW47032   7.866   2.436   6.930  0.2378  0.5758 -0.1401
46661SOL    HW147033   7.849   2.359   6.984  1.0595  0.3106 -0.2374
46661SOL    HW247034   7.956   2.423   6.899 -0.2519  0.6393 -1.6809
46662SOL     OW47035   0.539   2.855   0.827  0.0315 -0.5959  0.9697
46662SOL    HW147036   0.554   2.764   0.802 -0.6931 -0.0328 -1.7500
46662SOL    HW247037   0.446   2.870   0.813  0.4404  1.0253 -0.4004
46663SOL     OW47038   0.274   7.826   1.237  0.1928  0.2067  0.1635
46663SOL    HW147039   0.264   7.847   1.144  1.3783 -0.2725 -0.0870
46663SOL    HW247040   0.368   7.814   1.249  0.0522  0.2526  1.4300
46664SOL     OW47041   6.518   5.367   8.595  0.0561  0.5303  0.3966
46664SOL    HW147042   6.612   5.366   8.612  0.0099  3.0168  1.1606
46664SOL    HW247043   6.505   5.440   8.536 -1.3785  0.0147  0.0340
46665SOL     OW47044  10.484   0.289  10.373 -0.1560  0.1445 -0.9502
46665SOL    HW147045  10.527   0.220  10.321 -0.6874  0.5264 -1.9244
46665SOL    HW247046  10.517   0.371  10.336 -0.6430  0.4238 -0.7764
46666SOL     OW47047   7.486   6.376   9.102  0.0978  0.1030  0.1610
46666SOL    HW147048   7.468   6.330   9.019  1.4878 -1.1783  0.5131
46666SOL    HW247049   7.491   6.306   9.167 -0.5227  1.0535  1.2725
46667SOL     OW47050   2.861   6.552   5.041 -0.2284 -0.5849 -0.7482
46667SOL    HW147051   2.915   6.624   5.009 -0.5333  0.1592  0.3438
46667SOL    HW247052   2.924   6.487   5.072  0.1937  1.0822  2.3177
46668SOL     OW47053  10.464   5.619   8.487 -0.0799 -0.3220  0.4264
46668SOL    HW147054  10.418   5.538   8.466  1.5419 -1.6995  1.8682
46668SOL    HW247055  10.538   5.621   8.425  0.6433 -0.6871  1.2507
46669SOL     OW47056  10.478   2.219   1.748 -0.3274 -0.1303 -0.0661
46669SOL    HW147057  10.552   2.270   1.781 -0.6859 -0.3333  1.1175
46669SOL    HW247058  10.402   2.259   1.790 -0.5611 -2.0402  1.4551
46670SOL     OW47059   0.017   3.915  10.729  0.7852 -0.0812 -0.3099
46670SOL    HW147060   0.007   3.833  10.778 -1.5382  0.0941 -0.3587
46670SOL    HW247061   0.080   3.966  10.780  0.3975 -0.9305  1.0977
46671SOL     OW47062   1.304   2.455   2.588  0.1914 -0.0158 -0.6561
46671SOL    HW147063   1.351   2.482   2.509 -1.4741 -0.2361 -1.7835
46671SOL    HW247064   1.305   2.360   2.585  0.6968 -0.0305 -0.0439
46672SOL     OW47065   3.210   2.589   0.134  0.7939  0.1241 -0.8336
46672SOL    HW147066   3.302   2.580   0.110  0.5577 -1.6305 -1.2270
46672SOL    HW247067   3.197   2.525   0.204  0.2652  1.6165  0.4983
46673SOL     OW47068  11.441  11.281   3.538  0.2732  0.0372  0.2880
46673SOL    HW147069  11.393  11.323   3.609  1.4625  2.2749 -0.1069
46673SOL    HW247070  11.526  11.327   3.536  1.5333 -2.1645 -0.5037
46674SOL     OW47071  10.486  10.472   6.083  0.1904  0.3744  0.2809
46674SOL    HW147072  10.430  10.401   6.114  1.8464  0.1309  2.9795
46674SOL    HW247073  10.441  10.552   6.112  1.1326  0.1803  2.4461
46675SOL     OW47074   2.373   2.876  11.927  0.2885 -0.6159  0.2327
46675SOL    HW147075   2.322   2.955  11.907 -2.4936 -1.7760  2.1965
46675SOL    HW247076   2.417   2.896  12.010 -3.1278 -2.0547  2.6343
46676SOL     OW47077   3.631   6.660  10.973 -0.5505  0.3002 -0.5672
46676SOL    HW147078   3.684   6.716  10.918 -0.0090  0.9909  0.6131
46676SOL    HW247079   3.581   6.606  10.912  0.1379  0.9216 -1.7096
46677SOL     OW47080  11.369   7.414   3.581  0.4043 -0.4400 -0.8153
46677SOL    HW147081  11.427   7.446   3.511  0.7806 -2.3715 -1.4404
46677SOL    HW247082  11.284   7.403   3.538  0.4827 -1.0532 -0.8147
46678SOL     OW47083   2.850   0.988   8.868  0.3644 -0.5636  0.0030
46678SOL    HW147084   2.818   0.969   8.779 -0.5844  0.2339  0.1606
46678SOL    HW247085   2.871   1.081   8.867  0.3908 -0.5594  0.6056
46679SOL     OW47086   2.259   5.419   3.694  0.5459 -0.0314 -0.0036
46679SOL    HW147087   2.253   5.448   3.603 -0.8378  0.8688  0.3517
46679SOL    HW247088   2.250   5.499   3.745  1.2051 -0.5420  0.9405
46680SOL     OW47089   4.527   7.300   0.299 -0.3049  0.3174 -0.2991
46680SOL    HW147090   4.602   7.358   0.314  0.4066 -0.9377  1.1967
46680SOL    HW247091   4.491   7.284   0.386 -0.8549 -0.9984 -0.7435
46681SOL     OW47092   6.479  11.300   6.067 -0.2762 -0.0987 -0.0512
46681SOL    HW147093   6.546  11.235   6.047  1.2468  1.1858  0.6552
46681SOL    HW247094   6.422  11.300   5.990  0.8654 -0.8184 -0.9303
46682SOL     OW47095   2.145  10.191  10.821 -0.0003 -0.4579 -0.0216
46682SOL    HW147096   2.147  10.097  10.838 -0.0161 -0.3758  0.4585
46682SOL    HW247097   2.052  10.212  10.814 -0.0256 -0.3696  0.5280
46683SOL     OW47098  12.161   9.726   5.725  0.1455  0.6535  0.1594
46683SOL    HW147099  12.105   9.665   5.774  0.9982 -0.7017 -0.5186
46683SOL    HW247100  12.206   9.776   5.793 -2.7601  2.7221  0.7793
46684SOL     OW47101  10.897   3.910   3.034  0.3773 -0.1720 -0.0133
46684SOL    HW147102  10.956   3.941   2.965  0.4560 -3.4482 -1.5974
46684SOL    HW247103  10.810   3.938   3.005  0.5399 -0.5165 -0.8955
46685SOL     OW47104   4.454   8.466   5.843  0.2833 -0.0480 -0.6107
46685SOL    HW147105   4.509   8.400   5.800  0.0794 -0.3018 -0.4869
46685SOL    HW247106   4.375   8.418   5.867 -0.2028  0.4210 -1.2278
46686SOL     OW47107   1.908   6.523   1.337 -0.4062 -0.6427  0.1987
46686SOL    HW147108   1.831   6.530   1.281 -2.0131 -1.1761  2.2049
46686SOL    HW247109   1.929   6.430   1.338 -0.0329 -0.5640  0.0673
46687SOL     OW47110   0.998   3.274   6.255  0.0567  0.1977  0.4135
46687SOL    HW147111   0.918   3.292   6.305  0.2249 -0.6324  1.0141
46687SOL    HW247112   0.966   3.235   6.173 -0.1696  0.0893  0.5506
46688SOL     OW47113   5.637   1.660   4.229 -0.2309  0.2983  0.1666
46688SOL    HW147114   5.686   1.585   4.196 -0.5687  0.2696 -0.2821
46688SOL    HW247115   5.670   1.673   4.318 -0.7435 -0.9001  0.5613
46689SOL     OW47116   4.335  11.678   5.505  0.0379 -0.2703  0.4257
46689SOL    HW147117   4.322  11.745   5.572  0.8007 -0.0590  0.3743
46689SOL    HW247118   4.302  11.597   5.545 -0.9181  0.1304  0.4746
46690SOL     OW47119   4.786   5.646  10.663 -0.1082  0.4842  0.1301
46690SOL    HW147120   4.731   5.595  10.603  2.9838 -2.2672 -0.6140
46690SOL    HW247121   4.750   5.627  10.750 -0.6817 -0.7799 -0.3556
46691SOL     OW47122  10.569   2.459   3.963  0.5476  0.3010  0.4676
46691SOL    HW147123  10.484   2.417   3.951  0.6293 -0.7168  2.7883
46691SOL    HW247124  10.571   2.479   4.057  1.7352  2.8969 -0.0545
46692SOL     OW47125   0.867  12.103   8.427  0.1557 -0.2005 -0.0405
46692SOL    HW147126   0.837  12.035   8.367  0.7517 -0.7743  0.2964
46692SOL    HW247127   0.837  12.185   8.388 -1.3007 -0.6984 -0.0355
46693SOL     OW47128  10.517   2.545   7.514  0.0704 -0.5390 -0.5135
46693SOL    HW147129  10.433   2.525   7.472  1.1739 -1.0184 -2.5992
46693SOL    HW247130  10.583   2.508   7.456  1.7329 -2.3784  2.2840
46694SOL     OW47131   2.908   0.108   1.786 -0.1764 -0.1198 -0.7035
46694SOL    HW147132   2.815   0.126   1.801 -0.3164 -1.6904  0.7581
46694SOL    HW247133   2.947   0.114   1.873  1.2578  1.1918 -1.3978
46695SOL     OW47134  10.405   4.773   3.611  0.3016  0.0012  0.4285
46695SOL    HW147135  10.361   4.846   3.656 -0.4137 -0.3379  0.2861
46695SOL    HW247136  10.398   4.796   3.518  0.9928  0.2600  0.4370
46696SOL     OW47137  11.555  11.247   3.016  0.5136  0.2033 -0.0484
46696SOL    HW147138  11.547  11.342   3.017  1.2910  0.2712  1.0675
46696SOL    HW247139  11.556  11.222   3.109 -1.4781 -1.0663 -0.2950
46697SOL     OW47140  11.084   2.938   1.970  0.0604 -0.2085  0.1648
46697SOL    HW147141  11.107   3.005   1.905  1.6924 -0.2924  0.6366
46697SOL    HW247142  11.118   2.971   2.053 -2.7460  0.3058  1.2271
46698SOL     OW47143   6.304   8.178  10.146 -0.1131  0.1967 -0.1637
46698SOL    HW147144   6.393   8.199  10.173  0.4229 -1.2674 -0.6748
46698SOL    HW247145   6.296   8.084  10.164 -1.5335  0.3008 -0.1804
46699SOL     OW47146   1.265  11.087   9.757  0.3442 -0.1412 -0.1358
46699SOL    HW147147   1.192  11.090   9.696  0.7640  0.2829 -0.6334
46699SOL    HW247148   1.298  11.177   9.759  1.5387 -0.5461 -0.7716
46700SOL     OW47149  11.444   7.965   6.346  0.0658 -0.0705  0.3084
46700SOL    HW147150  11.470   7.989   6.435  0.0016  0.8297  0.0870
46700SOL    HW247151  11.377   7.897   6.359  1.3142 -1.2349  0.9031
46701SOL     OW47152   2.825  12.092   6.486  0.0102  0.0249  0.1579
46701SOL    HW147153   2.862  12.156   6.426 -3.0557  2.5953  0.7522
46701SOL    HW247154   2.766  12.039   6.432 -0.4085  0.3052  0.3331
46702SOL     OW47155   2.572   0.656   6.711 -0.3075  0.7243  0.0023
46702SOL    HW147156   2.528   0.722   6.765  0.0045  0.0542  1.1137
46702SOL    HW247157   2.642   0.623   6.767 -1.6069 -1.8881  0.2338
46703SOL     OW47158  11.130   7.183  12.439 -0.0058 -0.2982  0.3069
46703SOL    HW147159  11.119   7.102  12.390 -1.1239  0.3185 -0.5144
46703SOL    HW247160  11.128   7.156  12.531 -0.6184 -1.1843  0.0499
46704SOL     OW47161   4.212   0.364   9.208  0.4540  0.5090  0.0782
46704SOL    HW147162   4.235   0.451   9.174 -0.0219  0.6563  0.1281
46704SOL    HW247163   4.170   0.320   9.133  0.0499  0.5790  0.2599
46705SOL     OW47164   5.322   3.486   2.067 -0.2191  0.0431 -0.2740
46705SOL    HW147165   5.232   3.511   2.046 -0.0553  1.8433  0.8440
46705SOL    HW247166   5.315   3.440   2.151 -0.2905 -1.8744 -1.2886
46706SOL     OW47167  11.300   4.264   0.926  0.0645 -0.1716  0.5861
46706SOL    HW147168  11.352   4.338   0.959 -1.2626  1.0718 -0.0587
46706SOL    HW247169  11.244   4.240   1.000  1.4621 -1.5136  1.2813
46707SOL     OW47170  10.521  11.432  12.522 -0.4595  0.3153  0.6364
46707SOL    HW147171  10.465  11.399  12.592  0.5706  1.4229  2.0294
46707SOL    HW247172  10.603  11.456  12.566  1.6609 -2.4064 -1.4767
46708SOL     OW47173   0.983   1.108   0.057  0.8515  0.7828 -0.1077
46708SOL    HW147174   0.894   1.128   0.086  1.3632  2.5716  0.3703
46708SOL    HW247175   0.985   1.012   0.050  0.4139  0.1485  4.9581
46709SOL     OW47176   8.068   7.932   7.567 -0.8883 -0.1375  0.0248
46709SOL    HW147177   8.006   7.986   7.616  0.3051  2.1152 -0.8182
46709SOL    HW247178   8.067   7.969   7.478 -0.8376 -2.2604 -0.9200
46710SOL     OW47179   0.452   8.771   2.057 -0.5841  0.0158 -0.9567
46710SOL    HW147180   0.474   8.840   1.994 -0.5020 -0.2681 -1.2436
46710SOL    HW247181   0.535   8.727   2.075 -0.3987  0.8078  0.2254
46711SOL     OW47182   4.176   0.653   0.048 -0.3343  0.1867  0.9426
46711SOL    HW147183   4.250   0.709   0.023 -0.6862  0.3047  0.1202
46711SOL    HW247184   4.099   0.702   0.018 -0.6751 -0.5000  0.6883
46712SOL     OW47185   4.387   3.524   4.876  0.0631  0.0488  0.3514
46712SOL    HW147186   4.303   3.520   4.921 -0.4579 -0.5408 -0.6214
46712SOL    HW247187   4.375   3.590   4.808  0.4218  0.0375  0.2711
46713SOL     OW47188   6.115  12.536  11.109  0.1688 -0.2854  0.0864
46713SOL    HW147189   6.112  12.478  11.033 -0.5830 -1.0089  0.6554
46713SOL    HW247190   6.050  12.603  11.091  1.3404  0.6595 -0.7703
46714SOL     OW47191  10.269   1.773   9.376 -0.3889  0.1070  0.3077
46714SOL    HW147192  10.317   1.839   9.426 -0.4518  1.6590 -1.5696
46714SOL    HW247193  10.194   1.751   9.430 -0.1437  1.2839  1.1533
46715SOL     OW47194   5.614  10.046  10.980  0.5912 -0.5636  0.0118
46715SOL    HW147195   5.609   9.980  11.049  0.0926 -1.4073 -0.8146
46715SOL    HW247196   5.687  10.103  11.007  0.2341 -0.7029  1.3628
46716SOL     OW47197   1.553   1.613   5.453 -0.0305  0.1114 -0.4039
46716SOL    HW147198   1.606   1.570   5.520  0.3041 -2.2702 -2.0592
46716SOL    HW247199   1.618   1.654   5.395 -0.3096  1.9666  0.5128
46717SOL     OW47200   4.178  11.187   1.325 -0.2040  0.1069  0.1099
46717SOL    HW147201   4.096  11.234   1.313  1.6320  3.6142  0.1223
46717SOL    HW247202   4.244  11.240   1.280  2.3445 -1.6652  1.4569
46718SOL     OW47203   4.189  10.330   9.968 -0.4862 -0.0681  0.2300
46718SOL    HW147204   4.130  10.256   9.949  0.4467 -0.9969  0.8547
46718SOL    HW247205   4.227  10.352   9.883  0.1255 -1.1076  0.2172
46719SOL     OW47206   7.125   7.983   5.644 -0.3855 -0.4425 -0.0023
46719SOL    HW147207   7.205   7.965   5.594 -0.3866  2.4802 -1.2562
46719SOL    HW247208   7.072   8.038   5.586 -2.3238 -0.4557  1.6430
46720SOL     OW47209  11.549   6.995   0.702 -0.5963 -0.3958 -0.2067
46720SOL    HW147210  11.550   7.075   0.754 -1.3418  0.5951 -1.6538
46720SOL    HW247211  11.567   6.925   0.765 -2.8540  0.5668  1.6469
46721SOL     OW47212  11.200   3.627   5.973 -0.4377 -0.3647  0.6709
46721SOL    HW147213  11.192   3.624   6.069 -1.1360 -1.5860  0.5960
46721SOL    HW247214  11.111   3.611   5.942 -0.1550 -0.2809 -0.1815
46722SOL     OW47215   7.835  10.542  12.272  0.3924 -0.1774 -1.8017
46722SOL    HW147216   7.915  10.570  12.316 -0.2475  0.3580 -0.9368
46722SOL    HW247217   7.787  10.624  12.256 -0.9914 -0.6419 -0.2721
46723SOL     OW47218   0.292   3.207   3.394  0.0182 -0.5385 -0.5592
46723SOL    HW147219   0.231   3.274   3.421  0.7328 -0.3707  0.7096
46723SOL    HW247220   0.306   3.223   3.300 -2.4677 -1.0937 -1.0918
46724SOL     OW47221   1.737   3.823   9.037 -0.0170 -0.7373 -0.3421
46724SOL    HW147222   1.814   3.792   9.086 -1.5713 -4.4098  0.1412
46724SOL    HW247223   1.679   3.860   9.104 -0.2631 -1.6236 -0.0477
46725SOL     OW47224   3.900   8.997   3.229 -0.4010 -0.5460 -0.2358
46725SOL    HW147225   3.930   8.979   3.140  1.5975 -1.4175  0.5605
46725SOL    HW247226   3.913   8.915   3.276  2.0654  0.8014  1.7105
46726SOL     OW47227   7.256   6.054  11.593  1.0094 -0.8912  0.1734
46726SOL    HW147228   7.195   6.074  11.664 -1.8748 -0.0440 -2.3375
46726SOL    HW247229   7.272   5.960  11.602  0.3184 -0.9000  1.6176
46727SOL     OW47230   9.125   7.742   1.598  0.1868  0.0314  0.3213
46727SOL    HW147231   9.193   7.735   1.665  3.4917  1.2177 -2.5955
46727SOL    HW247232   9.043   7.742   1.647  2.1430 -2.3359  4.0569
46728SOL     OW47233   6.025   5.530   3.637  0.1449 -0.0786  0.0101
46728SOL    HW147234   5.993   5.477   3.565  1.4485 -0.4373 -0.3287
46728SOL    HW247235   5.959   5.599   3.647 -1.6225 -1.7571  0.5167
46729SOL     OW47236   4.883   2.505   5.869 -0.5229 -0.4272  0.3334
46729SOL    HW147237   4.834   2.587   5.861 -0.4635 -0.3194  1.0461
46729SOL    HW247238   4.835   2.455   5.935  0.6517 -0.0767  1.4924
46730SOL     OW47239   9.640   8.431   4.606 -0.0068  0.1672 -0.1974
46730SOL    HW147240   9.675   8.507   4.653  0.6444  0.9758 -1.8808
46730SOL    HW247241   9.548   8.453   4.590 -0.2059 -0.0706  0.5889
46731SOL     OW47242   5.764   3.096   7.244  0.0387 -0.2540  0.6459
46731SOL    HW147243   5.730   3.012   7.213  0.8491 -0.3832  0.0926
46731SOL    HW247244   5.736   3.159   7.178  3.1057 -0.7596 -1.3249
46732SOL     OW47245   8.245   0.009   5.767  0.2053  0.2050 -0.5430
46732SOL    HW147246   8.269  -0.003   5.675 -1.1652  2.2254 -1.2191
46732SOL    HW247247   8.155   0.042   5.765 -0.2716 -0.7427  1.6060
46733SOL     OW47248   7.753   0.973   7.871 -0.2839 -0.4469 -0.4215
46733SOL    HW147249   7.723   0.882   7.869 -0.8452 -0.3244  0.9553
46733SOL    HW247250   7.673   1.025   7.857 -0.0500 -0.1617 -0.7043
46734SOL     OW47251   7.075   1.277  11.310 -0.2170 -0.4623 -0.0876
46734SOL    HW147252   7.127   1.256  11.233 -0.4763 -0.2822 -0.3097
46734SOL    HW247253   7.076   1.197  11.362  0.3546 -0.4373 -0.0479
46735SOL     OW47254  10.536   5.779  11.003  0.5755  0.3046  0.3051
46735SOL    HW147255  10.617   5.777  10.952  1.8317  0.6163  2.2137
46735SOL    HW247256  10.544   5.706  11.064 -2.0934 -1.7414 -1.5607
46736SOL     OW47257   3.161  10.905   9.252  0.0200 -0.4813  0.0282
46736SOL    HW147258   3.090  10.961   9.220  1.8809  1.2341 -1.3039
46736SOL    HW247259   3.229  10.965   9.281  1.5655 -2.0457 -0.1559
46737SOL     OW47260  12.095   9.137   5.816 -0.0337  0.3187 -0.6255
46737SOL    HW147261  12.121   9.220   5.857  1.1414 -0.4425  0.2211
46737SOL    HW247262  12.176   9.103   5.778 -0.2941 -0.9128 -0.1033
46738SOL     OW47263   0.255   8.645  11.843 -0.0496  0.2104  0.6600
46738SOL    HW147264   0.240   8.561  11.887 -0.1171  1.0146  2.2328
46738SOL    HW247265   0.185   8.651  11.778  1.1808 -1.8942 -1.0077
46739SOL     OW47266   8.850   7.604   4.181  0.1931 -0.0325 -0.1840
46739SOL    HW147267   8.781   7.599   4.247  0.3890 -0.6554 -0.0207
46739SOL    HW247268   8.856   7.697   4.159 -0.3232  0.0919  0.1970
46740SOL     OW47269  11.715   5.196   9.811 -0.1125 -0.2107  0.1123
46740SOL    HW147270  11.683   5.160   9.729 -1.0802 -1.3608  0.9588
46740SOL    HW247271  11.779   5.132   9.842 -0.1743 -0.0732  0.5270
46741SOL     OW47272   1.392   6.673   3.083 -0.0769 -0.0253  0.4473
46741SOL    HW147273   1.335   6.739   3.042 -0.2214 -0.0629  0.5865
46741SOL    HW247274   1.343   6.591   3.074 -0.8342  0.2068  2.0858
46742SOL     OW47275  10.214   5.234   5.701 -0.3249 -0.1602 -0.4590
46742SOL    HW147276  10.168   5.318   5.693 -0.5591 -0.2756 -0.3309
46742SOL    HW247277  10.268   5.229   5.622  0.7815  0.7627  0.2038
46743SOL     OW47278   5.271   0.836   4.910 -0.2888  0.2517 -0.2474
46743SOL    HW147279   5.332   0.872   4.845 -1.5486  0.7098 -1.2308
46743SOL    HW247280   5.268   0.742   4.890  1.7239 -0.2090  1.2431
46744SOL     OW47281   7.554   4.604   2.829  0.4389  0.2007  0.0017
46744SOL    HW147282   7.538   4.691   2.865 -2.0546 -0.2456  0.1326
46744SOL    HW247283   7.552   4.616   2.735  0.6717  0.3733  0.0184
46745SOL     OW47284   7.530   1.119   2.592  0.8166 -0.6047  0.6658
46745SOL    HW147285   7.528   1.090   2.501  2.0551 -2.3713  1.1434
46745SOL    HW247286   7.612   1.169   2.600  1.8102 -2.2501  1.2549
46746SOL     OW47287  10.272   9.876   1.888  0.5725 -0.0675 -0.2471
46746SOL    HW147288  10.315   9.813   1.946  0.8686 -1.0072 -1.4547
46746SOL    HW247289  10.241   9.824   1.814 -0.2405  1.0262 -0.7120
46747SOL     OW47290  10.696  10.127  10.880 -0.1528  1.4189  0.4828
46747SOL    HW147291  10.685  10.216  10.915 -2.0426  0.3403  2.9073
46747SOL    HW247292  10.762  10.088  10.936  0.2510  1.0923 -0.2116
46748SOL     OW47293   0.981   4.841   6.812 -0.2453 -0.1644 -0.7677
46748SOL    HW147294   1.019   4.917   6.855 -1.4670  0.3760 -0.5912
46748SOL    HW247295   1.001   4.853   6.719  1.1145 -0.5745 -0.5531
46749SOL     OW47296   1.562   8.679   7.169  0.8472  0.3606 -0.1264
46749SOL    HW147297   1.524   8.757   7.129 -0.7845  0.1978  1.0442
46749SOL    HW247298   1.647   8.708   7.202  0.5720  1.4514 -0.3434
46750SOL     OW47299   3.270  11.126   3.147  0.4653 -0.3261  0.0112
46750SOL    HW147300   3.238  11.188   3.083  0.9512 -0.2669 -0.1726
46750SOL    HW247301   3.247  11.165   3.232  2.0609  0.8336 -0.0458
46751SOL     OW47302  10.226  11.370  11.113  0.0114  0.3665  0.2203
46751SOL    HW147303  10.306  11.406  11.072  0.9867  0.2314  1.9155
46751SOL    HW247304  10.254  11.287  11.150 -0.6955  0.6970  1.5559
46752SOL     OW47305   9.516   4.440   6.069 -0.3597 -0.6419  0.6170
46752SOL    HW147306   9.539   4.428   5.977  0.2211  0.3892  0.6205
46752SOL    HW247307   9.453   4.511   6.070 -0.4372 -0.7102  1.0109
46753SOL     OW47308  11.474   7.316   3.062 -0.5443  0.2662  0.3538
46753SOL    HW147309  11.403   7.365   3.104 -1.2910 -1.6923  1.5034
46753SOL    HW247310  11.550   7.331   3.119 -0.2046  1.6651 -0.4110
46754SOL     OW47311   4.150   8.929  12.569 -0.2745 -0.4759  0.2566
46754SOL    HW147312   4.204   8.992  12.616 -0.8475  1.1386 -1.1102
46754SOL    HW247313   4.061   8.965  12.574 -0.7267 -1.4977 -0.0530
46755SOL     OW47314   1.434  11.972   6.383 -0.1112  0.2921  0.2776
46755SOL    HW147315   1.458  12.001   6.472  0.8297 -1.2220  0.5509
46755SOL    HW247316   1.389  12.047   6.345 -0.0307  1.1773  1.8428
46756SOL     OW47317   6.473  11.662   8.802  0.4663 -0.0794  0.1299
46756SOL    HW147318   6.526  11.637   8.726 -0.4469  0.1568 -0.5995
46756SOL    HW247319   6.482  11.758   8.807  0.9416 -0.1456  0.6437
46757SOL     OW47320   4.702   1.487   1.170  0.1408  0.2683  0.2432
46757SOL    HW147321   4.677   1.395   1.162  1.3358 -0.1174  0.8227
46757SOL    HW247322   4.624   1.528   1.209  0.2787 -0.8814  1.8529
46758SOL     OW47323   7.271   2.130   6.812 -0.4436  0.1877  0.4834
46758SOL    HW147324   7.211   2.185   6.863 -1.5488  0.0499 -0.6030
46758SOL    HW247325   7.236   2.041   6.822 -0.1268  0.0355  0.2609
46759SOL     OW47326  12.507   6.084   2.671  0.3788  0.1094 -0.2246
46759SOL    HW147327  12.473   5.995   2.675  0.2812  0.1839  0.7810
46759SOL    HW247328  12.535   6.103   2.760  1.2283  0.7664 -0.6137
46760SOL     OW47329   7.009   2.416   2.783  0.3953  0.4722  0.0763
46760SOL    HW147330   7.018   2.455   2.696  0.7513 -0.5778 -0.3700
46760SOL    HW247331   7.050   2.330   2.775  0.3809  0.3428  1.2708
46761SOL     OW47332   2.186   6.254   3.967  0.2914  0.0882  0.6155
46761SOL    HW147333   2.214   6.344   3.952  0.3698  0.0162  0.3342
46761SOL    HW247334   2.257   6.200   3.933 -0.8012 -0.1320 -1.5100
46762SOL     OW47335   4.284   7.704   8.866 -0.2167 -0.0057 -0.5126
46762SOL    HW147336   4.227   7.719   8.790  1.0041 -0.9454 -1.6667
46762SOL    HW247337   4.373   7.716   8.832  0.3669 -0.7696  0.6815
46763SOL     OW47338   0.008   4.938  11.763  0.2737 -0.1708 -0.6203
46763SOL    HW147339  -0.088   4.931  11.760  0.2797 -0.1222 -0.9998
46763SOL    HW247340   0.024   5.032  11.772  0.3105  0.0140 -2.3250
46764SOL     OW47341   6.732   8.451   1.799  0.1653 -0.1673  0.0603
46764SOL    HW147342   6.774   8.372   1.833  0.5658 -0.1373 -0.3480
46764SOL    HW247343   6.641   8.427   1.786  0.0774 -0.2794  0.8252
46765SOL     OW47344  10.976   1.706   7.799  0.1316 -0.1650 -0.4695
46765SOL    HW147345  10.943   1.617   7.817 -0.9394  0.1155 -0.9406
46765SOL    HW247346  11.058   1.693   7.753 -0.5926 -0.9462 -1.5983
46766SOL     OW47347   3.423  10.480   2.426 -0.2685 -0.6462 -0.7177
46766SOL    HW147348   3.502  10.428   2.415 -0.3751 -0.5950 -1.8205
46766SOL    HW247349   3.414  10.527   2.343 -0.5242  0.6460  0.0093
46767SOL     OW47350   6.279  10.583   8.754  0.4951 -0.4129  0.3721
46767SOL    HW147351   6.233  10.544   8.829  1.7512 -1.8070  0.4727
46767SOL    HW247352   6.220  10.569   8.680  0.1145 -0.8790  0.7518
46768SOL     OW47353   2.777  10.171  10.163  0.1478  0.0900 -0.0847
46768SOL    HW147354   2.749  10.154  10.253  0.5665  1.0698  0.2493
46768SOL    HW247355   2.813  10.259  10.166 -0.1614  0.2704 -1.3032
46769SOL     OW47356  11.577   6.207  10.350 -0.5680 -0.0554 -0.4212
46769SOL    HW147357  11.602   6.185  10.440  1.2167 -1.5820 -1.2380
46769SOL    HW247358  11.554   6.300  10.354 -1.2372 -0.2433  1.7272
46770SOL     OW47359   1.607   0.052   1.477  0.3242  0.0647  0.0921
46770SOL    HW147360   1.662   0.087   1.407  0.1746  1.0763  0.4734
46770SOL    HW247361   1.577  -0.033   1.443  0.3656  0.4741 -1.0144
46771SOL     OW47362   4.862  11.781   5.747 -0.0847 -0.4780  0.3036
46771SOL    HW147363   4.779  11.762   5.792 -0.1050 -0.2295  0.3718
46771SOL    HW247364   4.872  11.876   5.754 -0.9042 -0.2084 -1.6236
46772SOL     OW47365   1.594  11.224   3.035  0.0239 -1.2124  0.0164
46772SOL    HW147366   1.571  11.245   3.125 -1.1537  0.5712 -0.6372
46772SOL    HW247367   1.688  11.237   3.030 -0.0951  0.0283  0.6830
46773SOL     OW47368  11.985  11.488  10.778  0.0923  0.3787  0.3755
46773SOL    HW147369  11.933  11.527  10.848 -0.5326  0.2783 -0.0159
46773SOL    HW247370  11.955  11.532  10.699 -1.0251 -1.2034 -0.1520
46774SOL     OW47371   0.392   1.468  12.541 -0.3007 -0.6334  0.0646
46774SOL    HW147372   0.380   1.436  12.451  0.9901  1.1135 -0.7873
46774SOL    HW247373   0.475   1.429  12.569  0.0433 -0.0189 -0.0733
46775SOL     OW47374   6.380   9.735  10.285  0.4157  0.6535  0.0758
46775SOL    HW147375   6.406   9.736  10.377  0.9039  0.8785 -0.0602
46775SOL    HW247376   6.451   9.781  10.240  0.5857 -0.1811 -0.5191
46776SOL     OW47377   6.517   1.661   9.840  0.0607 -0.2764 -0.0493
46776SOL    HW147378   6.577   1.610   9.895  1.3240  1.4973  0.3319
46776SOL    HW247379   6.462   1.708   9.902 -0.3325 -0.3143 -0.3661
46777SOL     OW47380   3.048   9.330   5.704  0.2025 -0.4761 -0.6207
46777SOL    HW147381   2.977   9.338   5.768  1.3810 -0.3668  0.7166
46777SOL    HW247382   3.055   9.237   5.686 -1.6312 -0.3506 -2.4012
46778SOL     OW47383   2.319  10.827   4.848 -0.3907  0.0435  0.1147
46778SOL    HW147384   2.409  10.847   4.872 -0.4947 -1.6734  2.3083
46778SOL    HW247385   2.319  10.820   4.753  1.8622 -0.2396  0.1029
46779SOL     OW47386   3.781   8.138  11.871 -0.0027 -0.3927  0.0743
46779SOL    HW147387   3.820   8.051  11.877  3.8289  1.0809 -0.5714
46779SOL    HW247388   3.732   8.149  11.952  1.5278 -2.2584  1.3330
46780SOL     OW47389   4.713   8.503   8.186  0.7138  0.4048 -0.0673
46780SOL    HW147390   4.666   8.584   8.206 -0.5265 -0.0689 -0.9373
46780SOL    HW247391   4.707   8.451   8.266  0.0378  0.4893 -0.0581
46781SOL     OW47392   6.108  10.959   9.856 -0.3816 -0.2540  0.4072
46781SOL    HW147393   6.155  10.987   9.935 -0.4382  0.7326  0.1101
46781SOL    HW247394   6.162  10.991   9.784 -0.0681 -1.5914  0.0241
46782SOL     OW47395   3.616   9.718   0.456 -0.5403  0.0674  0.0642
46782SOL    HW147396   3.657   9.718   0.369 -0.0691  1.5469  0.2490
46782SOL    HW247397   3.529   9.681   0.442 -0.3664  0.0210 -0.9851
46783SOL     OW47398   3.037   2.050   1.432  0.2150  0.2834  0.0257
46783SOL    HW147399   3.082   2.000   1.500  0.2722 -1.4013 -1.1893
46783SOL    HW247400   2.955   2.078   1.473 -0.3165 -1.7399  0.4672
46784SOL     OW47401   8.880   4.937   1.442 -0.1276 -0.0281  0.0411
46784SOL    HW147402   8.858   5.025   1.474 -0.7586  0.0808 -0.6406
46784SOL    HW247403   8.865   4.879   1.516 -0.8202  0.3090  0.1744
46785SOL     OW47404   0.160   7.350   9.394  0.3351 -0.4611 -0.4549
46785SOL    HW147405   0.211   7.277   9.428  0.9966  0.3078  0.2264
46785SOL    HW247406   0.213   7.428   9.410  0.3244  0.0490 -2.5292
46786SOL     OW47407   0.913   8.023   5.498  0.3839 -0.5186  0.1263
46786SOL    HW147408   0.990   8.009   5.553  0.9710  1.1325 -0.2047
46786SOL    HW247409   0.946   8.074   5.424 -0.8350 -0.7207 -0.5800
46787SOL     OW47410   8.416  11.463   3.500 -0.3314  0.0926 -0.1705
46787SOL    HW147411   8.407  11.446   3.594 -1.3058 -0.3142 -0.3224
46787SOL    HW247412   8.327  11.452   3.465 -0.1630  1.1617 -0.9951
46788SOL     OW47413   2.202   2.858   4.094 -0.1718  0.2019  0.5345
46788SOL    HW147414   2.173   2.792   4.157  1.5551 -0.3535  0.7792
46788SOL    HW247415   2.275   2.818   4.048 -1.4106  0.5556 -1.9379
46789SOL     OW47416  12.468   9.643   0.268 -0.0021  0.0345 -0.1675
46789SOL    HW147417  12.376   9.649   0.243  0.4999  0.8050 -2.0440
46789SOL    HW247418  12.513   9.702   0.207  1.7712 -0.5779  0.4822
46790SOL     OW47419   4.587   6.974   0.817  0.4174  0.0372 -0.1708
46790SOL    HW147420   4.506   7.020   0.839  0.9317  0.7663  0.2202
46790SOL    HW247421   4.654   7.015   0.871  1.9364  2.4583 -3.5045
46791SOL     OW47422   7.380   6.746   4.090  0.2569 -0.4651 -0.1954
46791SOL    HW147423   7.337   6.662   4.076 -2.4793  0.9732 -1.1036
46791SOL    HW247424   7.352   6.773   4.177  0.4971 -0.1431 -0.2148
46792SOL     OW47425   8.111   5.280  11.082  0.3649 -0.3829 -0.1908
46792SOL    HW147426   8.193   5.250  11.121 -0.5708 -1.3866  1.1046
46792SOL    HW247427   8.087   5.357  11.133 -0.4371 -1.2126  0.7448
46793SOL     OW47428   6.193   1.678  11.293  0.5299  0.0460  0.2510
46793SOL    HW147429   6.242   1.597  11.278  0.8635  0.4718 -1.0162
46793SOL    HW247430   6.252   1.748  11.267 -1.0039  0.5477 -2.1661
46794SOL     OW47431   0.703   8.053   3.780 -0.2302 -0.7531 -1.3028
46794SOL    HW147432   0.707   8.129   3.723  2.3899 -1.3656 -2.0985
46794SOL    HW247433   0.633   7.998   3.744 -1.6987  0.9103 -1.1123
46795SOL     OW47434  10.318   7.057   4.618 -0.3903  0.1017  0.0176
46795SOL    HW147435  10.368   7.094   4.545 -1.0201  1.4602  0.2534
46795SOL    HW247436  10.292   6.971   4.588  0.2619  0.2270 -0.9456
46796SOL     OW47437   9.088   9.827  11.331 -0.4029  0.2766  0.0978
46796SOL    HW147438   9.050   9.910  11.358  0.9947  0.9286  0.1531
46796SOL    HW247439   9.135   9.796  11.408 -1.6192 -1.0172  0.3519
46797SOL     OW47440   3.186   1.761   4.403  0.0376 -0.1382  0.6608
46797SOL    HW147441   3.238   1.681   4.418 -1.6876 -1.0833  1.9731
46797SOL    HW247442   3.213   1.820   4.474  0.5708  0.0639  0.2962
46798SOL     OW47443   9.470   7.206   2.180 -0.0916 -0.1945  0.0011
46798SOL    HW147444   9.475   7.216   2.085 -0.6922 -1.4990 -0.1879
46798SOL    HW247445   9.532   7.136   2.200  1.0043  0.9579  0.7473
46799SOL     OW47446  10.775   0.503   5.914 -0.1679  0.1226  0.4381
46799SOL    HW147447  10.705   0.536   5.858  0.0169  0.9955  0.7204
46799SOL    HW247448  10.769   0.407   5.905 -0.0707  0.2510 -1.1368
46800SOL     OW47449  12.090   1.298   1.411 -0.3521  1.0918 -0.2752
46800SOL    HW147450  12.143   1.226   1.445  0.0215  0.6431 -1.7203
46800SOL    HW247451  12.147   1.375   1.418  0.5087  0.6278 -1.7419
46801SOL     OW47452  12.568   3.479   0.258  0.1329  0.6855 -0.1317
46801SOL    HW147453  12.535   3.509   0.343 -1.5289 -0.9607 -0.1148
46801SOL    HW247454  12.655   3.444   0.277  0.2925  1.4638  0.6440
46802SOL     OW47455   8.722   4.471   2.648  0.0823 -0.0903  0.1365
46802SOL    HW147456   8.816   4.456   2.661 -0.1510 -2.4181 -0.4327
46802SOL    HW247457   8.684   4.456   2.735 -0.0301 -2.1757 -0.2159
46803SOL     OW47458   3.612   2.002   8.170  0.2342  0.5121  0.1595
46803SOL    HW147459   3.662   2.081   8.192 -0.2731  2.5618 -4.6414
46803SOL    HW247460   3.529   2.013   8.216  1.7223  0.3751  3.0839
46804SOL     OW47461  11.440   8.154   9.703 -0.1588 -0.0450 -0.0566
46804SOL    HW147462  11.392   8.215   9.759 -0.4911 -0.0541 -0.3294
46804SOL    HW247463  11.497   8.210   9.649  1.1196 -0.1080  1.1666
46805SOL     OW47464   9.220   4.314   4.310 -0.0920 -0.0736  0.3143
46805SOL    HW147465   9.131   4.284   4.292 -1.4431  2.6793  1.7173
46805SOL    HW247466   9.230   4.393   4.257  1.3134 -0.0405  0.6008
46806SOL     OW47467   0.185   0.856   0.128 -0.2115 -0.3292 -0.0185
46806SOL    HW147468   0.233   0.827   0.050 -1.2878  0.2543 -0.9231
46806SOL    HW247469   0.130   0.781   0.152 -0.6246 -0.1604 -0.4313
46807SOL     OW47470   2.652   2.563   6.408 -0.2507 -0.4137  0.5567
46807SOL    HW147471   2.675   2.628   6.342 -0.2521 -0.1408  0.8218
46807SOL    HW247472   2.733   2.515   6.425  0.4025  1.1857  2.2053
46808SOL     OW47473   8.169   8.645   8.032  0.3085  0.7116 -0.1832
46808SOL    HW147474   8.175   8.655   8.127 -1.1764 -0.9506  0.1306
46808SOL    HW247475   8.236   8.581   8.010  1.1636  1.6499 -0.3977
46809SOL     OW47476   0.238   2.055   5.598 -0.6204  0.4082 -0.4492
46809SOL    HW147477   0.224   1.963   5.619  0.3785  0.0586 -1.2049
46809SOL    HW247478   0.201   2.103   5.672  0.5954 -0.6596  0.9117
46810SOL     OW47479   1.202   7.718   3.117 -0.2106 -0.6331  0.1043
46810SOL    HW147480   1.174   7.794   3.169 -0.6933 -0.1151 -0.8782
46810SOL    HW247481   1.275   7.750   3.065 -0.8649 -0.6168 -0.8384
46811SOL     OW47482   6.139   3.741   4.324  0.2246 -0.1066  0.2078
46811SOL    HW147483   6.216   3.688   4.345  1.0609  0.4840 -1.2224
46811SOL    HW247484   6.170   3.831   4.330 -0.5739  0.1593  0.3674
46812SOL     OW47485   7.710  12.444   5.059 -0.3351 -0.1385 -0.2686
46812SOL    HW147486   7.788  12.399   5.090 -0.4494 -0.0792  0.1079
46812SOL    HW247487   7.638  12.407   5.111 -0.1776  1.9531  1.6058
46813SOL     OW47488   7.098   6.178   0.576  0.6461  0.2943 -0.0994
46813SOL    HW147489   7.069   6.267   0.556  0.6843  0.0275 -1.4803
46813SOL    HW247490   7.073   6.164   0.667 -1.0866  1.0509 -0.4208
46814SOL     OW47491   2.855   8.201   5.842  0.0884  0.0051 -0.5474
46814SOL    HW147492   2.795   8.171   5.774 -0.0997 -0.9903  0.0281
46814SOL    HW247493   2.842   8.138   5.914 -1.1841  2.0908  1.2006
46815SOL     OW47494   3.490   6.952   0.628 -0.2373 -0.2839  0.1650
46815SOL    HW147495   3.408   6.993   0.654 -1.0036 -1.2197 -0.7166
46815SOL    HW247496   3.492   6.961   0.532  1.5063  1.2201  0.2857
46816SOL     OW47497   0.326   9.357   9.105  0.0841  0.6935 -0.2698
46816SOL    HW147498   0.261   9.286   9.110  0.6054  0.1193 -1.1744
46816SOL    HW247499   0.317   9.390   9.016  0.3998  1.2302 -0.1017
46817SOL     OW47500   8.254   2.937   4.992 -0.1455  0.2077  0.2529
46817SOL    HW147501   8.241   2.981   5.076 -0.2817 -1.0624  0.9246
46817SOL    HW247502   8.173   2.888   4.979 -0.8691  1.7311 -1.5053
46818SOL     OW47503   7.895   3.462   1.501 -0.3276 -0.2753  0.6776
46818SOL    HW147504   7.932   3.375   1.485 -1.4964 -0.4790 -1.2221
46818SOL    HW247505   7.963   3.523   1.472  0.6884 -0.4872  2.4596
46819SOL     OW47506   0.336   2.461  11.453  0.2054  0.0692 -0.3074
46819SOL    HW147507   0.331   2.392  11.520  1.2914 -0.7841 -1.0767
46819SOL    HW247508   0.285   2.427  11.380  0.0163  0.4797 -0.3687
46820SOL     OW47509   3.674   2.168   9.489  0.2874 -0.1786  0.1079
46820SOL    HW147510   3.672   2.261   9.510  0.7798 -0.4508  1.4815
46820SOL    HW247511   3.582   2.142   9.486  0.1572  0.2821  0.0686
46821SOL     OW47512   3.309   3.242   0.968 -0.0480 -0.0355  0.1715
46821SOL    HW147513   3.231   3.287   1.000  0.5360  1.2348 -0.1198
46821SOL    HW247514   3.375   3.256   1.036 -0.0840 -1.2207  0.4816
46822SOL     OW47515   8.801   3.631   6.595 -0.5744 -0.1556  0.1600
46822SOL    HW147516   8.869   3.643   6.661 -2.3050  0.8278  1.8625
46822SOL    HW247517   8.774   3.539   6.604  0.9384 -0.7467 -0.9998
46823SOL     OW47518   0.491  10.462  12.512 -0.4118 -0.9279  0.4530
46823SOL    HW147519   0.440  10.498  12.584 -0.2561 -2.4998  1.3897
46823SOL    HW247520   0.432  10.400  12.469 -0.6200  0.2494 -1.0176
46824SOL     OW47521  10.835  11.939   8.609 -0.3240 -0.0324  0.1838
46824SOL    HW147522  10.894  11.955   8.684 -0.4891  1.0658  0.1052
46824SOL    HW247523  10.750  11.968   8.640 -0.3199  0.8021 -0.5522
46825SOL     OW47524   8.077   0.548  10.707 -0.0553  0.4704 -0.0372
46825SOL    HW147525   8.154   0.497  10.683 -0.9313 -0.6717 -0.5051
46825SOL    HW247526   8.007   0.484  10.715 -1.1382  1.5645 -0.3651
46826SOL     OW47527   4.112   9.329  12.512 -0.3078 -0.1320  0.6787
46826SOL    HW147528   4.094   9.291  12.427 -1.5179  1.5867  0.1051
46826SOL    HW247529   4.150   9.258  12.563  3.6650 -0.4329 -2.2423
46827SOL     OW47530   6.358   1.324   5.647 -0.0815  0.4724 -0.0890
46827SOL    HW147531   6.344   1.418   5.655  0.6654  0.4929  1.1948
46827SOL    HW247532   6.453   1.314   5.639  0.0466 -0.2656  1.8117
46828SOL     OW47533  11.858  10.669  11.494  0.2805 -0.8320 -0.3713
46828SOL    HW147534  11.870  10.685  11.587 -1.8768  2.4316 -0.4845
46828SOL    HW247535  11.799  10.594  11.489 -0.3553 -0.4433  0.9607
46829SOL     OW47536   1.619   7.090   3.745  0.1722  0.0280 -0.2490
46829SOL    HW147537   1.530   7.106   3.713 -0.1137 -1.3795 -0.2278
46829SOL    HW247538   1.676   7.118   3.674 -0.3099  0.4242 -0.4827
46830SOL     OW47539   2.532   7.095   6.300 -0.0540  0.3715  0.3954
46830SOL    HW147540   2.514   7.057   6.214  1.1029 -1.3930  0.8688
46830SOL    HW247541   2.606   7.155   6.285  0.9302 -0.8187  0.3093
46831SOL     OW47542   3.106   2.247   0.224 -0.0944  0.3471 -0.1659
46831SOL    HW147543   3.116   2.199   0.306  1.6464 -2.1515 -1.6688
46831SOL    HW247544   3.196   2.260   0.194 -0.6526  2.3239 -1.1144
46832SOL     OW47545   0.462   2.605   0.162 -0.3123  0.1589 -0.1694
46832SOL    HW147546   0.425   2.644   0.242  0.1504 -0.0440  0.1477
46832SOL    HW247547   0.404   2.531   0.144 -0.0393 -0.1868  0.3529
46833SOL     OW47548   4.430   8.360  11.716 -0.1517  0.5384  0.3264
46833SOL    HW147549   4.377   8.339  11.794 -0.5745  1.4348  0.2991
46833SOL    HW247550   4.517   8.380  11.751 -0.5600  1.7934  0.6886
46834SOL     OW47551   6.587   1.826   2.204 -0.2847  0.3702  0.1501
46834SOL    HW147552   6.599   1.917   2.230 -1.9021  0.6056  0.1639
46834SOL    HW247553   6.635   1.819   2.121  2.5070  0.3514  1.6497
46835SOL     OW47554   8.357   2.090   9.781  0.5031 -0.1085 -0.5319
46835SOL    HW147555   8.331   2.045   9.700  0.1853  2.0381 -1.7043
46835SOL    HW247556   8.435   2.043   9.810 -0.6651 -2.3688 -0.7692
46836SOL     OW47557   2.818  11.510  10.648 -0.4086  0.4080 -0.4196
46836SOL    HW147558   2.883  11.580  10.651  0.4233 -0.3702  0.5877
46836SOL    HW247559   2.796  11.494  10.740 -0.2456 -0.9212 -0.5803
46837SOL     OW47560   5.373   9.280   7.817 -0.3749  0.1868 -0.1078
46837SOL    HW147561   5.370   9.257   7.910  1.3683  0.0522 -0.0667
46837SOL    HW247562   5.344   9.202   7.771  1.2713 -0.6621  0.2305
46838SOL     OW47563   7.660   3.895  12.022  0.3118  0.1116  0.1694
46838SOL    HW147564   7.588   3.849  12.066  0.4015 -0.8527 -0.6605
46838SOL    HW247565   7.695   3.831  11.960  3.0316 -0.1193  1.7371
46839SOL     OW47566   2.870  11.004  10.646 -0.2253  0.0202  0.3639
46839SOL    HW147567   2.958  11.038  10.664 -0.8757  2.3559 -0.5405
46839SOL    HW247568   2.840  11.053  10.570 -1.8467 -1.6562 -0.1580
46840SOL     OW47569   0.192   8.934   5.497 -0.0755 -0.3193 -0.0357
46840SOL    HW147570   0.247   8.857   5.485 -1.2529 -1.5452  1.9804
46840SOL    HW247571   0.109   8.912   5.456  0.3539  0.9227 -1.6934
46841SOL     OW47572   2.226  11.369   3.401  0.2808  0.0659  0.5140
46841SOL    HW147573   2.291  11.300   3.393  1.9292  1.5742  0.3121
46841SOL    HW247574   2.252  11.417   3.479  0.0872  1.3578 -0.1930
46842SOL     OW47575  12.452   1.311   9.926 -0.2694 -0.1148 -0.3732
46842SOL    HW147576  12.455   1.284  10.018 -1.3780  0.9378  0.0043
46842SOL    HW247577  12.405   1.240   9.882  1.5751 -1.3591 -0.4563
46843SOL     OW47578   8.184  12.080   6.241  0.3487 -0.0418 -0.1095
46843SOL    HW147579   8.241  12.080   6.164 -0.7793 -0.5200 -0.9679
46843SOL    HW247580   8.099  12.109   6.208  0.2501  1.4249  1.2887
46844SOL     OW47581   8.946  10.393  10.863  0.5627  0.3607  0.0558
46844SOL    HW147582   9.012  10.449  10.821 -0.1810  1.6956  0.6062
46844SOL    HW247583   8.928  10.435  10.947 -3.0159  1.7591 -1.1843
46845SOL     OW47584   6.041   0.704  12.073  0.0622  0.2956 -0.9253
46845SOL    HW147585   5.955   0.745  12.075  0.3199  0.9239 -1.7751
46845SOL    HW247586   6.055   0.672  12.162 -0.2768  1.8086 -0.2963
46846SOL     OW47587   4.641  12.544  11.514  0.1603 -0.1617  0.1126
46846SOL    HW147588   4.555  12.571  11.546  0.4383  0.8183  0.0659
46846SOL    HW247589   4.700  12.616  11.539  1.0053 -0.9028  0.3178
46847SOL     OW47590  10.143   4.011  11.481  0.1322 -0.3581 -0.1656
46847SOL    HW147591  10.101   4.022  11.396 -0.9231 -0.0064  0.3711
46847SOL    HW247592  10.126   3.919  11.504  0.7644 -0.5617 -0.5074
46848SOL     OW47593   3.049   9.512   8.385  0.4432 -0.3167 -0.5669
46848SOL    HW147594   2.987   9.462   8.331 -1.0386  1.1687 -0.3452
46848SOL    HW247595   2.995   9.579   8.425  2.3416  1.4725 -0.8656
46849SOL     OW47596   0.083   0.669   4.517 -0.1771 -0.2111  0.0813
46849SOL    HW147597   0.082   0.750   4.567 -0.4555 -1.1135  1.6190
46849SOL    HW247598   0.162   0.623   4.547 -1.2158 -1.5000  0.9950
46850SOL     OW47599   0.595   0.488  12.055  0.0071  0.3661  0.0935
46850SOL    HW147600   0.608   0.403  12.099  1.7066  1.4422  1.8171
46850SOL    HW247601   0.568   0.547  12.125 -0.6181  1.3922 -0.9800
46851SOL     OW47602   0.690   6.911  11.832 -0.2951  0.1814  0.1048
46851SOL    HW147603   0.769   6.866  11.863  1.0502  1.6856 -0.9976
46851SOL    HW247604   0.628   6.901  11.904  0.1072 -2.8466  0.1886
46852SOL     OW47605  10.267   9.894   7.666  0.0877 -0.0284 -0.2429
46852SOL    HW147606  10.255   9.828   7.599 -0.3768  0.4046 -0.5925
46852SOL    HW247607  10.301   9.846   7.742 -0.5047 -0.7127 -0.3984
46853SOL     OW47608   4.384  11.167   7.067  0.4284  0.0698 -1.0061
46853SOL    HW147609   4.366  11.207   6.982 -2.7830 -0.6133 -0.7507
46853SOL    HW247610   4.317  11.100   7.076 -0.5663  1.3632  2.8571
46854SOL     OW47611  10.672  12.090   2.431  0.1381 -0.5542  0.2068
46854SOL    HW147612  10.617  12.158   2.470 -0.7210 -1.3378  0.4096
46854SOL    HW247613  10.697  12.035   2.505  1.1800 -0.2228  0.1064
46855SOL     OW47614   2.023  11.046   3.630 -0.4857 -0.3123  0.3247
46855SOL    HW147615   1.944  11.065   3.680 -1.9065 -3.8188 -0.2618
46855SOL    HW247616   2.084  11.009   3.693  0.0653  0.7921  0.4630
46856SOL     OW47617   6.215   9.180   8.105 -0.4714  0.2929  0.1246
46856SOL    HW147618   6.249   9.229   8.179 -0.6971  0.1658  0.3151
46856SOL    HW247619   6.289   9.127   8.075 -0.7084 -0.5867  1.0427
46857SOL     OW47620   9.116   4.243   7.660  0.4597  0.2102  0.0861
46857SOL    HW147621   9.187   4.212   7.716 -0.6683  0.1748  1.5383
46857SOL    HW247622   9.055   4.170   7.656 -0.0169  0.6266 -0.2660
46858SOL     OW47623  10.645   4.084   4.694 -0.3006 -0.2485 -0.8409
46858SOL    HW147624  10.710   4.027   4.652 -1.1882 -0.6902 -1.6629
46858SOL    HW247625  10.573   4.088   4.631 -1.8446 -1.1912  0.7630
46859SOL     OW47626   3.960   6.308   2.007  0.6943 -0.0164 -0.2575
46859SOL    HW147627   4.019   6.284   1.935 -1.6960 -2.5238 -1.5945
46859SOL    HW247628   3.944   6.226   2.054 -1.6613  0.5085  0.0044
46860SOL     OW47629   7.859   1.930  10.602 -0.7538 -0.1002 -0.3970
46860SOL    HW147630   7.868   2.003  10.540  1.1358 -0.4035 -0.5354
46860SOL    HW247631   7.782   1.883  10.573 -0.7341  0.6019 -1.6412
46861SOL     OW47632   6.288   8.692   5.789  0.2558 -0.2700  0.3301
46861SOL    HW147633   6.367   8.738   5.759  0.4714 -0.9866 -0.2355
46861SOL    HW247634   6.287   8.610   5.739  0.4853 -1.4167  2.1146
46862SOL     OW47635   7.327  10.878   9.734 -0.6261 -0.6171  0.3998
46862SOL    HW147636   7.307  10.877   9.641  0.4269 -1.4963  0.1690
46862SOL    HW247637   7.422  10.889   9.738 -0.8618  1.6594  1.4204
46863SOL     OW47638  10.828   3.379   3.461  0.4892 -0.2659  0.0706
46863SOL    HW147639  10.903   3.399   3.406  0.5305  0.3318  0.3364
46863SOL    HW247640  10.752   3.399   3.407  0.5214 -0.6983 -0.1357
46864SOL     OW47641   4.566  10.271   7.504 -0.0016  0.3438  0.0621
46864SOL    HW147642   4.493  10.320   7.542  0.9743  0.6660  1.6003
46864SOL    HW247643   4.589  10.321   7.425 -0.8758  0.7094  0.0156
46865SOL     OW47644   4.303   1.846   9.662  0.1024  0.1490  0.1365
46865SOL    HW147645   4.276   1.765   9.705  0.5599 -0.2491 -0.3269
46865SOL    HW247646   4.315   1.822   9.570  1.8537  0.3519  0.2901
46866SOL     OW47647  12.238  12.554   1.628  0.1921 -0.3613  0.0547
46866SOL    HW147648  12.171  12.519   1.569 -0.8768 -0.9938  1.5841
46866SOL    HW247649  12.319  12.511   1.600  0.0397  0.4922 -1.8894
46867SOL     OW47650   3.175   2.905   7.484 -0.0260 -0.6370  0.9322
46867SOL    HW147651   3.123   2.839   7.438  1.0954 -0.6250 -0.4059
46867SOL    HW247652   3.241   2.855   7.531 -0.0813 -0.5425  1.1108
46868SOL     OW47653   1.886   8.008  11.447  0.4867 -0.5960 -0.7473
46868SOL    HW147654   1.887   7.914  11.428 -1.2216 -1.1729  1.6077
46868SOL    HW247655   1.976   8.036  11.432  1.6477 -3.1393  0.7688
46869SOL     OW47656   8.150   1.034   1.309 -0.0165 -0.4482 -0.8623
46869SOL    HW147657   8.176   0.998   1.225 -1.3951 -2.7886 -0.3616
46869SOL    HW247658   8.219   1.098   1.330  1.1427 -0.8981 -3.0382
46870SOL     OW47659   9.437   4.961   8.979 -0.3799 -0.0865  0.5037
46870SOL    HW147660   9.441   4.868   9.000 -0.9725  0.0012  1.0418
46870SOL    HW247661   9.360   4.969   8.922 -0.6650  0.1539  0.9176
46871SOL     OW47662   7.838   1.955  10.871  0.4408  0.2757 -0.6147
46871SOL    HW147663   7.876   2.039  10.897  2.6604 -0.7923 -0.0775
46871SOL    HW247664   7.853   1.950  10.776  1.5587 -0.0300 -0.4449
46872SOL     OW47665   5.043  11.970  12.125  0.0336 -0.1813 -0.3764
46872SOL    HW147666   4.959  12.010  12.101  0.0007  0.7242  1.0856
46872SOL    HW247667   5.108  12.033  12.095  0.0778  0.0983  0.2963
46873SOL     OW47668   2.030   4.859   9.639 -0.0736  0.1675  0.3546
46873SOL    HW147669   2.078   4.787   9.598 -1.0807  0.7686 -2.0649
46873SOL    HW247670   2.079   4.938   9.615  0.8429  0.3877  2.7134
46874SOL     OW47671   5.987   8.506   3.252  0.1575 -0.5337 -0.5108
46874SOL    HW147672   6.006   8.546   3.167 -1.0407  0.5500 -0.2932
46874SOL    HW247673   6.033   8.560   3.315 -0.4863 -0.1899 -0.3220
46875SOL     OW47674   0.635   1.684  12.266 -0.1712 -0.3878 -0.2679
46875SOL    HW147675   0.556   1.713  12.313  0.2470 -1.1740  0.9607
46875SOL    HW247676   0.670   1.764  12.227 -0.1921  0.4423  1.3036
46876SOL     OW47677   1.492   6.192   5.604 -0.6036 -0.2489  0.4717
46876SOL    HW147678   1.517   6.117   5.549  2.2412  1.7048 -1.1536
46876SOL    HW247679   1.541   6.180   5.685  0.9663  0.4804 -0.3324
46877SOL     OW47680  11.783   8.931   7.631  0.0181  0.5054  0.2628
46877SOL    HW147681  11.779   8.836   7.640 -1.8518  0.5911  0.8245
46877SOL    HW247682  11.712   8.952   7.571  0.0094  1.5959  0.6300
46878SOL     OW47683   8.856  10.711   5.273  0.1561  0.6928  0.6277
46878SOL    HW147684   8.818  10.712   5.185  0.1066 -0.4675  0.6209
46878SOL    HW247685   8.812  10.639   5.317 -0.7659  2.0725  2.0632
46879SOL     OW47686   8.508   8.317   3.327 -0.0044 -0.3012 -0.1598
46879SOL    HW147687   8.440   8.250   3.328  2.8277 -3.4214 -1.3510
46879SOL    HW247688   8.517   8.341   3.235 -0.2344  0.9926  0.1319
46880SOL     OW47689   6.634  10.902   9.392  0.2301  0.3165  0.2149
46880SOL    HW147690   6.632  10.993   9.422 -1.9350 -0.6075  3.3324
46880SOL    HW247691   6.560  10.896   9.331  0.5246  0.6924 -0.1829
46881SOL     OW47692   9.995   3.480   7.175  0.5239  0.3457  0.2742
46881SOL    HW147693   9.992   3.421   7.250  1.5505 -0.8235 -0.5564
46881SOL    HW247694  10.076   3.530   7.187 -0.1406  1.3348  0.7677
46882SOL     OW47695   4.404   5.944   1.340 -0.4792 -0.8442 -0.7731
46882SOL    HW147696   4.318   5.907   1.363 -0.6403 -0.0757 -0.0776
46882SOL    HW247697   4.467   5.885   1.381 -0.7542  0.1209  1.1323
46883SOL     OW47698  10.893   2.709   2.306 -0.2887  0.4144 -0.0125
46883SOL    HW147699  10.989   2.707   2.314 -0.3337 -0.3398  0.4697
46883SOL    HW247700  10.866   2.619   2.324 -1.1678  0.8323  0.8550
46884SOL     OW47701   0.659   2.362  11.551  0.2897  0.0144  0.8472
46884SOL    HW147702   0.699   2.275  11.548 -1.6306 -0.9112  0.7346
46884SOL    HW247703   0.569   2.346  11.578 -0.5041  1.8291 -0.5557
46885SOL     OW47704   6.289   1.605   2.540 -0.0234  0.5213 -0.6179
46885SOL    HW147705   6.228   1.678   2.533  1.0893  1.6476  0.8141
46885SOL    HW247706   6.233   1.527   2.534 -1.6729  1.4929  1.0414
46886SOL     OW47707   2.930   7.785   6.096 -0.2659  0.5276 -0.0994
46886SOL    HW147708   3.001   7.761   6.155 -1.1906  0.8081  1.1512
46886SOL    HW247709   2.880   7.704   6.084 -0.6624  0.7102  0.3165
46887SOL     OW47710  10.273  10.745   7.714  0.4031  0.3530  0.3814
46887SOL    HW147711  10.281  10.706   7.627  3.6913  1.7347 -0.0848
46887SOL    HW247712  10.230  10.828   7.699  0.0860  0.1619  0.2288
46888SOL     OW47713   1.999   6.844   6.425 -0.2821  0.6919  0.4921
46888SOL    HW147714   2.070   6.828   6.364  0.1211  2.2111  0.5207
46888SOL    HW247715   2.020   6.791   6.502 -1.6965 -2.6494 -1.2318
46889SOL     OW47716  10.722   8.151   3.607  0.1739 -0.4057  0.4660
46889SOL    HW147717  10.719   8.102   3.525 -0.5182 -1.1133  0.8999
46889SOL    HW247718  10.815   8.160   3.627  0.4495  1.1897 -1.2060
46890SOL     OW47719  12.212   0.563   7.763  0.1668  0.3845 -0.0424
46890SOL    HW147720  12.227   0.630   7.830  1.7904  1.4206 -1.3699
46890SOL    HW247721  12.135   0.593   7.716 -0.0604  0.4694  0.3768
46891SOL     OW47722   0.031  10.549   6.850 -0.0817  0.5668  0.1345
46891SOL    HW147723   0.090  10.621   6.872  0.0919  0.5141 -0.1413
46891SOL    HW247724  -0.013  10.527   6.932  0.2011  0.6850  0.3193
46892SOL     OW47725   6.162   1.835   7.986  0.1381  0.8322  0.3232
46892SOL    HW147726   6.142   1.782   8.063 -0.2943 -0.4546 -0.6408
46892SOL    HW247727   6.200   1.916   8.021  1.5400 -0.4170  1.8343
46893SOL     OW47728   4.983  11.584  12.350 -0.4065 -0.7008  0.2047
46893SOL    HW147729   5.057  11.637  12.322  0.0097 -0.3927  1.8084
46893SOL    HW247730   4.907  11.627  12.310 -0.0829  1.1650  1.4579
46894SOL     OW47731   1.860  11.060   3.307 -0.2074 -0.0585 -0.5592
46894SOL    HW147732   1.942  11.062   3.356 -0.5833  0.0017  0.0765
46894SOL    HW247733   1.838  11.153   3.296 -1.4751 -0.0549  1.4849
46895SOL     OW47734   5.978   5.398   1.265  0.5674 -0.6202 -0.2156
46895SOL    HW147735   6.007   5.370   1.352  0.0523  1.1526  0.5713
46895SOL    HW247736   5.926   5.326   1.232  0.1140 -1.0124  1.2952
46896SOL     OW47737   9.137   0.836   7.980  0.3421  0.3956  0.5868
46896SOL    HW147738   9.070   0.779   8.016  0.9359  0.2797  1.5394
46896SOL    HW247739   9.089   0.899   7.926 -0.4644 -0.0556  0.7714
46897SOL     OW47740   7.029   6.851   7.114 -0.0946  0.1236 -0.1603
46897SOL    HW147741   7.111   6.900   7.121  0.3396 -0.6480  0.3307
46897SOL    HW247742   7.031   6.791   7.189 -1.3124  0.3880  0.0946
46898SOL     OW47743   1.547   6.801   4.818  0.2702 -0.3880 -0.0545
46898SOL    HW147744   1.640   6.810   4.839 -0.0065  0.0844  1.0725
46898SOL    HW247745   1.523   6.716   4.853  0.1556 -0.2625  0.1776
46899SOL     OW47746   7.751   9.404   2.489  0.1303 -0.0790 -0.2686
46899SOL    HW147747   7.676   9.364   2.443 -0.0115 -0.7476  0.5204
46899SOL    HW247748   7.792   9.331   2.536  0.1015  0.6238  0.8929
46900SOL     OW47749   9.029  10.179   3.327 -0.2380  0.0855 -0.0766
46900SOL    HW147750   8.983  10.103   3.364 -0.5986  0.0754 -0.5459
46900SOL    HW247751   9.107  10.142   3.286  0.6894  0.1861  1.4737
46901SOL     OW47752   7.167   7.307   9.299  0.2306 -0.2017  0.1877
46901SOL    HW147753   7.208   7.389   9.275  1.3842 -0.5169  1.0348
46901SOL    HW247754   7.082   7.332   9.336  0.8098  0.6428  0.9586
46902SOL     OW47755   9.158   2.979  12.265  0.3057 -0.0789  0.6032
46902SOL    HW147756   9.159   3.073  12.251  1.6578 -0.0195  0.9512
46902SOL    HW247757   9.096   2.945  12.201  1.4086  0.8331 -0.9921
46903SOL     OW47758   2.113   7.296   5.522  0.0263 -0.1637  0.0087
46903SOL    HW147759   2.096   7.319   5.431 -1.2819 -0.0340  0.2644
46903SOL    HW247760   2.206   7.272   5.524  0.5679  1.6933 -0.9579
46904SOL     OW47761   4.429   0.712  10.228 -0.0439 -0.6571 -0.3241
46904SOL    HW147762   4.339   0.718  10.197 -0.5276 -2.0075  0.7275
46904SOL    HW247763   4.456   0.622  10.207  0.9062 -0.3959 -0.2635
46905SOL     OW47764   9.936   3.419  10.143  0.0319  0.4825 -0.8786
46905SOL    HW147765   9.999   3.348  10.156 -0.4460  0.1850 -0.1516
46905SOL    HW247766   9.925   3.423  10.048 -0.5695 -0.9911 -0.9051
46906SOL     OW47767  11.585   6.703  10.193  0.5355  0.2467  0.2999
46906SOL    HW147768  11.534   6.781  10.172 -0.3665  0.0703  1.7239
46906SOL    HW247769  11.554   6.637  10.130 -0.2445  0.4398  0.4702
46907SOL     OW47770   9.560   7.063   9.357 -0.2903 -0.1639 -0.0411
46907SOL    HW147771   9.616   6.987   9.345  0.2671  0.4187 -1.2530
46907SOL    HW247772   9.598   7.131   9.302 -0.6694  1.0669  1.1602
46908SOL     OW47773   1.771   6.532   8.969  0.0055  0.1862 -0.7276
46908SOL    HW147774   1.865   6.516   8.973  0.2529  0.7078 -2.9496
46908SOL    HW247775   1.747   6.512   8.879 -2.0650 -0.1094 -0.1670
46909SOL     OW47776   9.965   7.592  10.006  0.5209 -0.3227 -0.0812
46909SOL    HW147777   9.887   7.647  10.001  1.3825  0.8299 -1.3134
46909SOL    HW247778   9.969   7.565  10.098 -1.3843 -0.5380 -0.0095
46910SOL     OW47779   7.416   3.399  11.412 -0.3350  0.0885  0.3799
46910SOL    HW147780   7.386   3.472  11.357 -0.4677  0.1415  0.5215
46910SOL    HW247781   7.511   3.404  11.407 -0.3530 -0.4066 -0.4968
46911SOL     OW47782   4.853   3.109  10.990 -0.1016  0.1340 -0.1187
46911SOL    HW147783   4.944   3.092  11.012 -0.0288 -0.0658 -0.5730
46911SOL    HW247784   4.804   3.076  11.066  0.1347 -0.7980 -0.3544
46912SOL     OW47785  10.501   0.985   3.128 -0.3606  0.3000 -0.2748
46912SOL    HW147786  10.441   0.911   3.115  0.7344 -0.2031 -3.5045
46912SOL    HW247787  10.582   0.945   3.159 -0.4966  0.4603  0.2860
46913SOL     OW47788   6.855   0.892  12.106 -0.4726  0.1891 -0.5828
46913SOL    HW147789   6.849   0.987  12.095 -0.2463  0.2321 -0.3341
46913SOL    HW247790   6.819   0.875  12.193  1.1216  0.2410  0.1143
46914SOL     OW47791   1.619   7.866   0.855 -0.3994 -0.0238  0.2203
46914SOL    HW147792   1.629   7.774   0.880  2.4070  0.3842  0.9273
46914SOL    HW247793   1.570   7.905   0.927 -0.2784 -0.6510  0.6524
46915SOL     OW47794   5.295   0.141   0.758 -0.1423  0.0867 -0.4248
46915SOL    HW147795   5.335   0.123   0.673 -2.5003 -2.0933 -1.2184
46915SOL    HW247796   5.210   0.178   0.737 -0.4525  0.2413  1.0164
46916SOL     OW47797   9.614   0.624   2.285  0.4443 -1.2167 -0.2666
46916SOL    HW147798   9.653   0.612   2.372  0.4145 -0.4134 -0.1405
46916SOL    HW247799   9.657   0.557   2.231  2.0039 -0.3833 -0.1197
46917SOL     OW47800   8.451   5.854   3.509  0.2087 -0.2158 -0.1407
46917SOL    HW147801   8.498   5.888   3.433  0.2351 -1.1961 -0.5800
46917SOL    HW247802   8.490   5.899   3.583  0.1269  0.8230 -0.7090
46918SOL     OW47803  10.884   3.195   0.680  0.4161 -0.6740  0.4872
46918SOL    HW147804  10.830   3.272   0.664 -0.3994 -1.1172  1.0392
46918SOL    HW247805  10.834   3.122   0.644  0.3751 -1.1607  1.4926
46919SOL     OW47806   7.757   7.256   7.326 -0.4483  0.4088  0.2044
46919SOL    HW147807   7.702   7.199   7.273 -2.1724  2.0897  0.0545
46919SOL    HW247808   7.744   7.226   7.416  0.9102 -1.1706 -0.0730
46920SOL     OW47809   8.147  10.960  10.958  0.5235 -0.4078  0.1398
46920SOL    HW147810   8.125  10.999  11.043  1.3968 -0.9148  0.6091
46920SOL    HW247811   8.176  11.034  10.905 -0.2318 -0.0556  0.2019
46921SOL     OW47812   9.847   5.892   9.123  0.1324  0.2242  0.2157
46921SOL    HW147813   9.830   5.895   9.029 -1.1495 -0.0721  0.4269
46921SOL    HW247814   9.918   5.828   9.131 -1.8060 -2.1680 -0.3280
46922SOL     OW47815   7.701   3.699   5.615 -0.0728 -0.1780 -0.0800
46922SOL    HW147816   7.647   3.670   5.689 -1.6922  2.3627 -0.1142
46922SOL    HW247817   7.787   3.714   5.653 -0.8500  1.0228  1.3489
46923SOL     OW47818   4.012   6.690  10.646 -0.4971  0.4901  0.2575
46923SOL    HW147819   4.059   6.768  10.620 -1.6962  1.0410 -0.3611
46923SOL    HW247820   3.945   6.721  10.707 -0.8258 -0.0860  0.2044
46924SOL     OW47821   4.062  11.332   8.415 -0.0927  0.3324 -0.2575
46924SOL    HW147822   4.141  11.293   8.377  0.9148  1.1271  0.9401
46924SOL    HW247823   3.994  11.316   8.350  1.2450  0.4053 -1.7395
46925SOL     OW47824   5.585   7.847   0.236  0.3152 -0.3980 -0.3093
46925SOL    HW147825   5.529   7.876   0.308  0.5686 -3.6763  1.3676
46925SOL    HW247826   5.664   7.900   0.244 -0.1469  0.1107  1.0848
46926SOL     OW47827   0.453   2.384  11.103  0.4653  0.4048 -0.2131
46926SOL    HW147828   0.506   2.306  11.122 -0.4783 -0.3976 -0.7525
46926SOL    HW247829   0.433   2.420  11.189  2.0346  0.8491 -0.0071
46927SOL     OW47830  11.257   4.566  10.388  0.2263  0.1555  0.3253
46927SOL    HW147831  11.234   4.637  10.328  0.9183 -0.4337 -0.6595
46927SOL    HW247832  11.353   4.567  10.390  0.2435 -0.8035  0.2378
46928SOL     OW47833   9.502   0.444  12.186 -0.2826  1.3381  0.1879
46928SOL    HW147834   9.492   0.454  12.091  1.3923  2.2390  0.0655
46928SOL    HW247835   9.492   0.351  12.201  0.3935  1.0345 -1.0394
46929SOL     OW47836  11.037  10.269   0.753  0.2923 -1.0004 -0.3542
46929SOL    HW147837  10.988  10.254   0.834  1.0999 -2.4040 -0.0842
46929SOL    HW247838  10.993  10.214   0.688  0.6299 -1.1546 -0.4554
46930SOL     OW47839  11.189   0.930  12.307 -0.0511 -0.6329  0.1359
46930SOL    HW147840  11.128   0.907  12.237 -0.9291 -0.0228  0.6902
46930SOL    HW247841  11.242   0.852  12.318  0.8691 -0.3892 -1.9696
46931SOL     OW47842   3.186   4.774   3.241 -0.8451  0.0184  0.2469
46931SOL    HW147843   3.243   4.819   3.179 -0.5411  0.2111  0.6692
46931SOL    HW247844   3.104   4.823   3.237 -0.3190  1.0056  1.1657
46932SOL     OW47845  10.455  12.521   9.132 -0.1380  0.5177 -0.5386
46932SOL    HW147846  10.439  12.591   9.069 -1.3894 -0.3266 -1.1793
46932SOL    HW247847  10.397  12.541   9.206 -1.8214 -0.7366 -1.4553
46933SOL     OW47848   0.529   4.355   6.685  0.6429 -0.3274  0.0593
46933SOL    HW147849   0.617   4.338   6.718  0.8332  0.6830  0.1182
46933SOL    HW247850   0.474   4.356   6.763  0.2917 -2.4306 -0.1021
46934SOL     OW47851   8.044  10.190   3.751 -0.0881  0.2616 -0.0888
46934SOL    HW147852   7.953  10.215   3.739 -0.0691  0.3942  0.0346
46934SOL    HW247853   8.094  10.261   3.710 -0.0537 -0.4012 -1.2285
46935SOL     OW47854   0.208   9.206   1.728  0.2295 -0.3172  0.3756
46935SOL    HW147855   0.271   9.273   1.705  2.4340 -0.7887  4.1759
46935SOL    HW247856   0.247   9.124   1.697 -0.9004 -0.2550 -1.3760
46936SOL     OW47857   2.002   7.158   6.491  0.3199  0.0318  0.3879
46936SOL    HW147858   2.047   7.091   6.440 -0.1785 -1.8238  2.2449
46936SOL    HW247859   2.003   7.125   6.581 -2.9991  0.7966  0.8540
46937SOL     OW47860   9.611   2.742   7.540 -0.5326  0.2524  0.1816
46937SOL    HW147861   9.529   2.718   7.497 -0.1812 -0.5329 -0.0540
46937SOL    HW247862   9.676   2.681   7.505  0.2850  1.2603 -0.0976
46938SOL     OW47863   2.821   3.636   0.883  0.2421  0.1310 -0.3631
46938SOL    HW147864   2.757   3.600   0.945 -1.2216 -0.5437 -2.1724
46938SOL    HW247865   2.865   3.559   0.847  1.3808  0.5405  0.1325
46939SOL     OW47866  10.824  12.216  11.542  0.1062 -0.1921  0.3890
46939SOL    HW147867  10.872  12.164  11.607  0.5453 -1.5999 -0.9869
46939SOL    HW247868  10.733  12.187  11.550  0.4612 -1.8386 -0.8823
46940SOL     OW47869   3.108  10.332   2.126 -0.6661  0.1021  0.1831
46940SOL    HW147870   3.080  10.261   2.184  0.6671 -0.3494  0.3139
46940SOL    HW247871   3.126  10.288   2.043 -0.6796  0.4250  0.0113
46941SOL     OW47872   9.931   1.009   1.043 -0.0908 -0.6988  0.6776
46941SOL    HW147873   9.847   0.984   1.081 -0.6688  2.0648  1.5195
46941SOL    HW247874   9.909   1.052   0.960  0.4808 -0.1481  0.7956
46942SOL     OW47875   2.587   6.588   3.599 -0.2135  0.0590 -0.3003
46942SOL    HW147876   2.516   6.611   3.659 -0.9912  0.3954 -1.3116
46942SOL    HW247877   2.639   6.668   3.591  1.1001 -0.5682  1.4832
46943SOL     OW47878   1.367   4.435   1.228 -0.2953  0.0560 -0.4926
46943SOL    HW147879   1.344   4.343   1.222  0.3726 -0.0429 -1.9256
46943SOL    HW247880   1.406   4.456   1.143 -2.2699  2.1830 -0.9894
46944SOL     OW47881  11.879   7.372   7.584  0.2258 -0.2880 -0.7493
46944SOL    HW147882  11.966   7.402   7.611  0.4459 -0.5929 -1.1166
46944SOL    HW247883  11.881   7.278   7.599 -0.5822 -0.0973  0.7369
46945SOL     OW47884   8.508  12.207   8.332 -0.1619 -0.2967  0.3243
46945SOL    HW147885   8.435  12.255   8.372  0.3840  0.0341  0.9340
46945SOL    HW247886   8.538  12.147   8.400  3.2037  2.8289  1.9447
46946SOL     OW47887   5.751   0.742   6.861  0.3399 -0.1970 -0.7307
46946SOL    HW147888   5.745   0.690   6.781 -2.0646 -0.7074 -0.2912
46946SOL    HW247889   5.774   0.678   6.929  1.2784  0.0414 -0.8118
46947SOL     OW47890   5.747   1.320   4.900 -0.1771  0.2632 -0.6399
46947SOL    HW147891   5.808   1.285   4.835  0.2712 -0.8486  0.3441
46947SOL    HW247892   5.789   1.303   4.984 -2.0592 -1.0348  0.1173
46948SOL     OW47893  12.064   0.849   2.299  0.1040  0.3950  0.1019
46948SOL    HW147894  12.072   0.865   2.394 -0.0579 -2.9642  0.7930
46948SOL    HW247895  12.105   0.764   2.285 -2.5113 -0.6235 -2.3171
46949SOL     OW47896   1.563   7.088   0.236 -0.4999  0.3600 -0.4738
46949SOL    HW147897   1.631   7.122   0.178 -0.6033 -1.0253 -1.4842
46949SOL    HW247898   1.611   7.036   0.301 -0.4458  1.2178  0.1829
46950SOL     OW47899   0.141   1.283   0.587  0.1746  0.2264  0.0494
46950SOL    HW147900   0.209   1.232   0.630  0.1590 -1.9696 -2.3532
46950SOL    HW247901   0.059   1.243   0.616  0.1315 -0.5970 -1.1657
46951SOL     OW47902   3.322  11.480   8.739 -0.7490  0.5750 -0.2145
46951SOL    HW147903   3.321  11.492   8.644 -0.5801  1.5926 -0.1055
46951SOL    HW247904   3.414  11.490   8.763 -0.0373 -3.7867 -0.3545
46952SOL     OW47905   3.920   7.499   4.551  0.1256 -0.3899  0.0956
46952SOL    HW147906   3.826   7.506   4.534  0.1574  0.3221  0.1881
46952SOL    HW247907   3.928   7.420   4.605 -0.4137 -0.4650  0.0740
46953SOL     OW47908   1.532   4.096   1.701 -0.4992 -0.2767 -0.5773
46953SOL    HW147909   1.567   4.153   1.769 -1.4088  2.4530 -2.2092
46953SOL    HW247910   1.522   4.010   1.743  0.4289  0.8794  2.2037
46954SOL     OW47911  12.214   1.228   4.471 -0.4766 -0.3975  0.1804
46954SOL    HW147912  12.124   1.253   4.449 -0.1051 -1.0080 -2.3358
46954SOL    HW247913  12.220   1.136   4.446  0.9359 -0.2877  0.0376
46955SOL     OW47914   2.600   9.395   6.495  0.1088  0.6346  0.0548
46955SOL    HW147915   2.566   9.414   6.408  1.2801 -0.6468 -0.7170
46955SOL    HW247916   2.662   9.324   6.482 -0.5364 -0.3797  2.1102
46956SOL     OW47917   2.948  10.764   3.886  0.0523 -0.4773  0.1019
46956SOL    HW147918   2.863  10.778   3.844  0.5628 -1.1182 -1.2105
46956SOL    HW247919   3.002  10.726   3.817  1.0356 -1.2643  1.2763
46957SOL     OW47920  11.260   9.129  10.222 -0.5481  0.1596 -0.1636
46957SOL    HW147921  11.236   9.205  10.275  0.0401  0.7594 -0.7285
46957SOL    HW247922  11.356   9.128  10.225 -0.5512 -0.5800 -0.1439
46958SOL     OW47923   6.526   8.786  11.601 -0.2382 -0.3192 -0.3782
46958SOL    HW147924   6.472   8.724  11.552 -0.5091 -0.6139  0.2870
46958SOL    HW247925   6.608   8.790  11.551 -1.4024  1.3566 -2.3206
46959SOL     OW47926   6.987   2.524  11.518  0.1037  0.6057 -0.0038
46959SOL    HW147927   7.016   2.452  11.574  0.5546  2.4648  2.3054
46959SOL    HW247928   6.953   2.590  11.579 -0.7781  2.1614 -2.0505
46960SOL     OW47929   7.769   0.567  11.500  0.7061  0.1393 -0.2099
46960SOL    HW147930   7.702   0.585  11.433  1.7327 -0.3860 -1.4190
46960SOL    HW247931   7.790   0.653  11.536  0.1974  0.4483 -0.6288
46961SOL     OW47932   9.005   1.162  12.025  0.6003 -0.2356  0.0236
46961SOL    HW147933   9.049   1.084  12.060  1.5480  0.5462  0.6386
46961SOL    HW247934   8.921   1.165  12.071  0.4113 -1.0705 -0.2509
46962SOL     OW47935   1.413   1.364   8.962  0.3944  0.5807  0.0831
46962SOL    HW147936   1.409   1.269   8.974 -2.1095  0.2953 -2.1023
46962SOL    HW247937   1.471   1.395   9.033  0.5835 -2.4374  1.3936
46963SOL     OW47938   6.312   8.366  11.352 -0.6011  0.1510  0.0869
46963SOL    HW147939   6.231   8.331  11.390 -0.1760 -1.5402 -0.4436
46963SOL    HW247940   6.381   8.311  11.390  0.4629  2.2201  1.3448
46964SOL     OW47941   9.265   6.685   4.057  0.6397  0.5909  1.1443
46964SOL    HW147942   9.284   6.640   3.975 -0.3922  3.4049 -0.7884
46964SOL    HW247943   9.306   6.631   4.125  0.6612 -2.3886 -1.0788
46965SOL     OW47944   0.747   3.374   0.798  0.2195  0.4369 -0.5380
46965SOL    HW147945   0.826   3.321   0.792  0.1156  0.4290 -2.5070
46965SOL    HW247946   0.774   3.453   0.845  0.9081 -0.3875  0.4932
46966SOL     OW47947   4.641   5.182   2.349  0.1574  0.2258  0.1397
46966SOL    HW147948   4.735   5.163   2.343 -0.2736 -2.1801 -0.1043
46966SOL    HW247949   4.611   5.181   2.258  0.1518  2.9031  0.0402
46967SOL     OW47950   7.423  11.666   9.658  0.2737 -0.2973 -0.1840
46967SOL    HW147951   7.391  11.634   9.574  0.8679  0.2799 -0.6375
46967SOL    HW247952   7.412  11.592   9.717 -0.4238 -0.6188 -0.6942
46968SOL     OW47953   5.453   2.937  11.079  0.1793 -0.0526  0.1771
46968SOL    HW147954   5.493   2.851  11.071  0.0136 -0.2739  1.5129
46968SOL    HW247955   5.424   2.942  11.170 -0.6653  1.0453 -0.1296
46969SOL     OW47956  10.121   0.635   6.678 -0.1190  0.1572 -0.3124
46969SOL    HW147957  10.174   0.654   6.755  0.4047 -1.5878 -0.2049
46969SOL    HW247958  10.043   0.592   6.713 -0.8528  1.1984 -0.6136
46970SOL     OW47959   2.592   1.068  12.476  0.4109  0.3575  0.1705
46970SOL    HW147960   2.589   0.979  12.439  1.4980 -0.2092  1.3742
46970SOL    HW247961   2.539   1.121  12.416  0.0081 -1.0361 -0.7464
46971SOL     OW47962   6.941   2.295   5.668 -0.3045 -0.0120  0.0999
46971SOL    HW147963   6.940   2.289   5.572 -0.6631  1.1748  0.0187
46971SOL    HW247964   7.034   2.300   5.691 -0.2338  0.1992 -0.2227
46972SOL     OW47965  11.681   2.368   5.637  0.0605 -0.2200 -0.5001
46972SOL    HW147966  11.751   2.342   5.697 -0.0330 -0.5241 -0.5217
46972SOL    HW247967  11.702   2.325   5.555 -0.2619 -0.4747 -0.4501
46973SOL     OW47968  11.258   9.605   1.040 -0.3282  0.0102 -0.0631
46973SOL    HW147969  11.169   9.589   1.008 -0.9318  0.8086  1.1042
46973SOL    HW247970  11.299   9.519   1.043 -1.8522 -0.7322  1.5220
46974SOL     OW47971   3.714   8.315   1.347  0.7234  0.2112  0.7541
46974SOL    HW147972   3.747   8.386   1.403  0.5215  0.5404  0.4638
46974SOL    HW247973   3.791   8.263   1.327  0.6284 -0.5294  2.2027
46975SOL     OW47974   9.832  10.541   6.278  0.2984 -0.1049 -0.1432
46975SOL    HW147975   9.876  10.480   6.219 -0.3593  0.6175 -1.4385
46975SOL    HW247976   9.828  10.623   6.229 -0.2808  0.5239  0.9112
46976SOL     OW47977  12.495  10.716   2.826  0.0750 -0.4594  0.2469
46976SOL    HW147978  12.546  10.643   2.861  0.0777  0.7195  3.0089
46976SOL    HW247979  12.559  10.773   2.783 -0.0287 -2.3120 -2.6281
46977SOL     OW47980  11.878   9.669   1.991 -0.0605  0.4519 -0.2959
46977SOL    HW147981  11.936   9.651   1.917 -0.0345  1.2106 -0.4733
46977SOL    HW247982  11.937   9.672   2.067 -0.0989 -0.4024 -0.2282
46978SOL     OW47983   4.857   9.895   6.774 -0.5010  0.2553  0.0217
46978SOL    HW147984   4.951   9.902   6.791 -0.4408 -0.1627 -0.1356
46978SOL    HW247985   4.840   9.961   6.706 -0.5097  1.0356  0.7662
46979SOL     OW47986   0.706  10.191  10.109  0.2479 -0.3346 -0.2160
46979SOL    HW147987   0.749  10.107  10.093  1.1846 -0.0511  0.6812
46979SOL    HW247988   0.728  10.211  10.200  1.7412  1.8129 -0.9698
46980SOL     OW47989  11.163   0.148   6.049 -0.1538  0.1845 -0.3172
46980SOL    HW147990  11.250   0.133   6.086 -0.2948  0.0427 -0.0378
46980SOL    HW247991  11.128   0.060   6.036 -0.8832  0.2450  1.0782
46981SOL     OW47992   9.635  12.187  12.184 -0.2319 -0.1123  0.0697
46981SOL    HW147993   9.599  12.270  12.214 -0.0863  0.2044 -0.6190
46981SOL    HW247994   9.578  12.121  12.223 -0.1220  0.2878  0.9331
46982SOL     OW47995   0.364  10.873   6.556 -0.3110  0.1403 -0.6223
46982SOL    HW147996   0.455  10.870   6.525 -0.0896  0.5622 -0.0299
46982SOL    HW247997   0.312  10.854   6.478  0.3041 -0.6546 -0.8482
46983SOL     OW47998  12.093   5.256   0.186  0.3012 -0.0973  0.7478
46983SOL    HW147999  12.101   5.245   0.091  2.9288  0.0013  0.8995
46983SOL    HW248000  12.114   5.170   0.222  0.5958  0.1851  1.2624
46984SOL     OW48001  10.131  10.585   5.290 -0.5858 -0.3131  0.4321
46984SOL    HW148002  10.054  10.586   5.347 -0.8676  0.8983  0.0579
46984SOL    HW248003  10.145  10.677   5.267 -0.4968 -0.7681 -1.4779
46985SOL     OW48004   0.052   1.530   6.478  0.3591  0.2969 -0.0927
46985SOL    HW148005   0.118   1.469   6.512  0.4902  1.1969  1.3809
46985SOL    HW248006  -0.030   1.482   6.483  0.5824 -0.0525  0.2690
46986SOL     OW48007   0.329   6.706   2.829 -0.5096 -0.1426  0.2149
46986SOL    HW148008   0.309   6.620   2.865 -1.2601  1.0219  2.7733
46986SOL    HW248009   0.350   6.689   2.737 -2.0951 -2.8488  0.2561
46987SOL     OW48010   4.793  11.414   1.843  0.1986  0.4196  0.2275
46987SOL    HW148011   4.765  11.336   1.891  1.2660 -1.9026 -2.5665
46987SOL    HW248012   4.711  11.452   1.810 -0.2601 -0.9731 -0.3426
46988SOL     OW48013   5.719  11.815  10.551 -0.5711 -0.1442 -0.8253
46988SOL    HW148014   5.813  11.832  10.540  0.0441 -0.7145  2.4721
46988SOL    HW248015   5.682  11.829  10.464  2.4688  0.6374 -2.1367
46989SOL     OW48016  12.044   4.280   2.741  0.3672 -0.0014 -0.0808
46989SOL    HW148017  12.071   4.189   2.742  0.3119 -0.0196 -0.1738
46989SOL    HW248018  11.950   4.277   2.725  0.5924  0.1139 -1.6143
46990SOL     OW48019   9.363   1.728   5.830 -0.0825 -0.4890  0.5400
46990SOL    HW148020   9.341   1.679   5.909  0.2197  0.7464  1.4281
46990SOL    HW248021   9.305   1.804   5.832 -0.9885 -1.0770 -1.1378
46991SOL     OW48022   9.111   6.370   2.971  0.0836  0.0212 -0.1170
46991SOL    HW148023   9.184   6.362   2.910  0.7155  1.4797  0.4015
46991SOL    HW248024   9.152   6.389   3.056 -0.8353 -0.6982  0.5111
46992SOL     OW48025   5.720   9.694  10.422  0.1679 -0.8757 -0.1984
46992SOL    HW148026   5.799   9.711  10.473 -0.1244  1.2412 -0.3728
46992SOL    HW248027   5.750   9.694  10.331 -0.1362  1.0585 -0.3466
46993SOL     OW48028   8.258  11.507   1.150 -0.3225  0.0443  0.5407
46993SOL    HW148029   8.220  11.542   1.070 -1.9069 -2.9866 -0.2004
46993SOL    HW248030   8.352  11.501   1.131 -0.3850  1.2701 -0.2716
46994SOL     OW48031   2.339   4.481   5.313  0.2120  0.4081 -0.1239
46994SOL    HW148032   2.379   4.463   5.398 -1.9937  1.6309  1.2722
46994SOL    HW248033   2.358   4.573   5.296  0.2680  0.2838 -0.7509
46995SOL     OW48034   0.126   4.698   0.851  0.1058 -0.4679 -0.2231
46995SOL    HW148035   0.106   4.721   0.942  0.1925  0.3522 -0.3992
46995SOL    HW248036   0.221   4.687   0.849  0.2760  0.8178 -0.4693
46996SOL     OW48037   9.217   2.784   7.884 -0.0850  0.2220  0.1016
46996SOL    HW148038   9.179   2.793   7.796 -1.6248 -2.5854  0.3753
46996SOL    HW248039   9.150   2.820   7.942 -1.1983 -2.1501  0.3832
46997SOL     OW48040   4.332   0.788  11.492  0.8327  0.4669 -0.0239
46997SOL    HW148041   4.300   0.871  11.529 -0.0083  1.2236 -2.2667
46997SOL    HW248042   4.420   0.809  11.459  1.0497  0.1623  0.3557
46998SOL     OW48043   5.059   9.458   6.708 -0.5200  0.0718  0.2019
46998SOL    HW148044   5.049   9.395   6.637  0.1800  1.7136 -1.4476
46998SOL    HW248045   5.003   9.531   6.682  0.1895  0.9438  1.0556
46999SOL     OW48046   7.179   6.765   2.831 -0.5674  0.2633  0.3803
46999SOL    HW148047   7.126   6.787   2.908  0.0497 -0.9610  1.1922
46999SOL    HW248048   7.248   6.709   2.865 -0.8038 -1.0822 -1.2108
47000SOL     OW48049  10.655   2.464   0.722  0.1225  0.5724 -0.0762
47000SOL    HW148050  10.660   2.514   0.640  0.9215 -0.5235 -0.7216
47000SOL    HW248051  10.745   2.460   0.753 -0.0719  0.3501  0.4751
47001SOL     OW48052   3.070   3.557   4.560 -0.0645  0.2890  0.8316
47001SOL    HW148053   3.115   3.620   4.504 -0.7073  0.3293  0.3507
47001SOL    HW248054   3.124   3.552   4.639  1.5041 -0.6716 -0.2687
47002SOL     OW48055   0.562   4.478   6.190 -0.1422  0.2774  0.6145
47002SOL    HW148056   0.588   4.476   6.282 -0.3477 -0.3021  0.6681
47002SOL    HW248057   0.473   4.442   6.190 -0.5143  1.1787  0.3021
47003SOL     OW48058  11.760   9.233  11.147  0.3216  0.8150 -0.5078
47003SOL    HW148059  11.801   9.313  11.179 -0.6777  0.6973  1.1587
47003SOL    HW248060  11.830   9.167  11.151  0.9776  1.4439 -1.3103
47004SOL     OW48061  12.191   8.472   5.578  0.2833 -0.4634  0.3819
47004SOL    HW148062  12.170   8.481   5.485  1.0039 -1.4581  0.1060
47004SOL    HW248063  12.151   8.549   5.619 -1.5940 -0.9229 -0.4766
47005SOL     OW48064  11.647   8.024   1.398 -0.0482 -0.0517  0.5621
47005SOL    HW148065  11.601   8.104   1.427 -0.0898  0.9803 -2.0938
47005SOL    HW248066  11.577   7.960   1.384 -0.2017  0.0269  0.9556
47006SOL     OW48067   8.298  11.588   6.131  0.7593  0.0991  0.6863
47006SOL    HW148068   8.288  11.495   6.115  1.2746  0.4571 -2.1236
47006SOL    HW248069   8.392  11.601   6.139  0.7139  0.4324  0.7147
47007SOL     OW48070  10.440   0.304   9.312 -0.3562  0.4242 -0.4845
47007SOL    HW148071  10.527   0.265   9.306 -0.4815  0.2976 -2.0731
47007SOL    HW248072  10.450   0.390   9.271 -0.8798  0.5599 -0.3233
47008SOL     OW48073   9.669   3.698  12.084 -0.3361 -0.2511 -0.3985
47008SOL    HW148074   9.598   3.676  12.145 -2.0903  0.5293 -2.0478
47008SOL    HW248075   9.678   3.793  12.092  1.0889 -0.4279  0.3361
47009SOL     OW48076   2.152   2.328   4.048 -0.4667 -0.0948 -0.8939
47009SOL    HW148077   2.096   2.402   4.072  0.8927  0.9797 -0.9096
47009SOL    HW248078   2.189   2.299   4.132  1.3221  1.2080 -1.1797
47010SOL     OW48079  10.532   4.061   8.203 -0.1959 -0.2852 -0.4267
47010SOL    HW148080  10.497   4.055   8.292  1.2666  0.1340  0.1959
47010SOL    HW248081  10.507   3.978   8.163 -1.1830 -0.3395  0.2352
47011SOL     OW48082   3.964   7.121   7.051 -0.1536 -0.0740 -0.4199
47011SOL    HW148083   3.892   7.106   7.113 -0.7223  1.4095 -0.6869
47011SOL    HW248084   3.982   7.035   7.014 -0.8785 -0.7068  0.6396
47012SOL     OW48085   2.169  11.461  10.326  0.1764  0.1647  0.3735
47012SOL    HW148086   2.193  11.437  10.416  0.0540  0.8055  0.5895
47012SOL    HW248087   2.147  11.554  10.332 -2.6760 -0.4229  0.2755
47013SOL     OW48088   1.033   4.781  11.457  0.5476 -0.0383  0.1705
47013SOL    HW148089   0.970   4.731  11.509  0.7290 -1.6102 -1.0082
47013SOL    HW248090   1.097   4.813  11.520  1.0097 -2.2660  0.9314
47014SOL     OW48091   4.172  10.326  10.923  0.2278  0.4974  0.4661
47014SOL    HW148092   4.210  10.244  10.891  0.7261 -0.0036  2.2498
47014SOL    HW248093   4.245  10.373  10.963 -0.1767  1.5738  0.0015
47015SOL     OW48094  11.678   5.938   6.617  0.0722 -0.2362 -0.1946
47015SOL    HW148095  11.695   5.854   6.661 -2.2605 -0.4890  0.3467
47015SOL    HW248096  11.672   6.001   6.689  1.2783  0.3287 -0.5658
47016SOL     OW48097   9.779   8.183   6.165 -0.4359 -0.4751 -0.4947
47016SOL    HW148098   9.861   8.175   6.213 -0.7274  0.8137  0.2816
47016SOL    HW248099   9.786   8.121   6.093  2.3016  1.3588 -1.9985
47017SOL     OW48100   1.822   6.608   6.296 -0.4250  0.0153 -0.0007
47017SOL    HW148101   1.857   6.695   6.312 -0.2200 -0.0107 -0.2916
47017SOL    HW248102   1.799   6.575   6.383 -2.2260  1.0659 -0.0349
47018SOL     OW48103  11.997   7.493  10.993 -0.2081 -0.3167 -0.5007
47018SOL    HW148104  11.929   7.431  10.965 -1.9845  0.8319  1.0111
47018SOL    HW248105  12.019   7.542  10.914  1.0189 -2.6092 -1.6674
47019SOL     OW48106   4.199  10.490   8.632 -0.4837 -0.1542 -0.2647
47019SOL    HW148107   4.191  10.514   8.539  0.6976 -0.3353 -0.4346
47019SOL    HW248108   4.202  10.394   8.631  0.5815 -0.1294 -0.1467
47020SOL     OW48109   7.564   7.529   9.967  0.1079 -0.4560  0.3714
47020SOL    HW148110   7.478   7.512  10.005 -0.3552  1.5784  0.3197
47020SOL    HW248111   7.546   7.551   9.876  0.6403  0.3166  0.4475
47021SOL     OW48112   1.481  10.426   9.385  0.1466  0.1039 -0.0054
47021SOL    HW148113   1.406  10.479   9.413  0.7835  1.1047 -0.1459
47021SOL    HW248114   1.516  10.472   9.308 -0.2242 -1.3850 -1.1040
47022SOL     OW48115   3.154   6.516   6.840  0.5303  0.0326 -0.5968
47022SOL    HW148116   3.075   6.570   6.845 -0.6409 -1.6430  3.1604
47022SOL    HW248117   3.221   6.567   6.885 -0.6468 -1.3999  3.2025
47023SOL     OW48118  11.084   7.383   1.749 -0.0786  0.4526 -0.1611
47023SOL    HW148119  11.150   7.452   1.756  0.0673  0.1533  2.1028
47023SOL    HW248120  11.127   7.314   1.698  1.3789  0.2915  1.2205
47024SOL     OW48121   4.404   2.924   9.138  0.1068  0.2997  0.0762
47024SOL    HW148122   4.322   2.953   9.097  0.0039  0.7913  0.6092
47024SOL    HW248123   4.393   2.830   9.151  0.5235 -0.0703 -1.8839
47025SOL     OW48124   2.484   8.673  10.408  0.1027  0.3017  0.5816
47025SOL    HW148125   2.477   8.673  10.504  3.1747 -0.6388  0.9240
47025SOL    HW248126   2.539   8.750  10.389  2.8428 -1.6337  0.0603
47026SOL     OW48127   1.971   2.024   5.205  0.1126 -0.9972  0.3372
47026SOL    HW148128   1.953   2.031   5.299 -1.6248 -1.4704  0.0714
47026SOL    HW248129   2.037   1.956   5.198 -0.3427 -1.5475  1.1793
47027SOL     OW48130  11.346   7.603   4.667 -0.1154  0.5336  0.3127
47027SOL    HW148131  11.280   7.652   4.714  0.4763 -0.3942  2.2036
47027SOL    HW248132  11.297   7.541   4.613 -0.7819  0.8531  0.5492
47028SOL     OW48133   4.419   2.111   3.640 -0.9061  0.0930 -0.0155
47028SOL    HW148134   4.501   2.066   3.662 -0.7218 -0.2817 -1.3799
47028SOL    HW248135   4.393   2.074   3.556 -2.0019  0.8802 -0.0474
47029SOL     OW48136   5.300  11.502  10.087  0.5226  0.1401  0.3100
47029SOL    HW148137   5.240  11.576  10.095 -1.7191 -1.3723 -1.2905
47029SOL    HW248138   5.371  11.534  10.032  0.3443  1.4851  0.8243
47030SOL     OW48139   0.582  10.337  11.413  0.2827  0.8527  0.1639
47030SOL    HW148140   0.597  10.281  11.338 -0.8964  0.0141  0.5269
47030SOL    HW248141   0.667  10.343  11.456  0.1296 -2.3001  1.2006
47031SOL     OW48142   5.700   8.293  11.282 -0.2004  0.5015  0.2662
47031SOL    HW148143   5.635   8.331  11.342 -0.7258 -1.6401  1.1576
47031SOL    HW248144   5.671   8.321  11.195 -2.1341 -0.0549  0.6755
47032SOL     OW48145   4.597   6.105   2.953 -0.7431  0.5767  0.4950
47032SOL    HW148146   4.552   6.081   3.034  0.0754  0.8074  1.0407
47032SOL    HW248147   4.601   6.201   2.956  1.7588  0.5242  1.6285
47033SOL     OW48148   9.441   9.806   9.881 -0.0133  0.3781  0.4337
47033SOL    HW148149   9.394   9.798   9.798  0.5568  2.8157 -0.1829
47033SOL    HW248150   9.534   9.803   9.857  0.1975  2.7423  0.7037
47034SOL     OW48151   7.370  10.647   4.978 -0.5665  0.4268  0.6807
47034SOL    HW148152   7.388  10.621   4.888 -0.1119  1.3379  0.5038
47034SOL    HW248153   7.400  10.573   5.031  2.1383  1.1364  0.2944
47035SOL     OW48154   2.208   1.938  11.174 -0.0519  0.0240  0.1786
47035SOL    HW148155   2.246   1.934  11.261 -0.3096 -1.5799  0.2526
47035SOL    HW248156   2.122   1.979  11.187  1.1707  2.8651  0.1293
47036SOL     OW48157   2.670  10.321   8.262  0.3627 -0.2809  0.0184
47036SOL    HW148158   2.621  10.248   8.224 -0.3081  1.3996 -2.5971
47036SOL    HW248159   2.762  10.300   8.244  0.2489 -0.9641  0.2130
47037SOL     OW48160   4.168  10.289   2.393 -0.3587 -0.4746  0.1560
47037SOL    HW148161   4.157  10.202   2.431  2.1735 -0.7641  0.3715
47037SOL    HW248162   4.164  10.276   2.299  2.3556 -1.2878  0.0863
47038SOL     OW48163   1.770   8.276   1.279 -0.4192 -0.0074  0.1912
47038SOL    HW148164   1.748   8.273   1.185 -0.9390 -1.5686  0.3294
47038SOL    HW248165   1.706   8.337   1.316  0.2307  1.1693 -0.5637
47039SOL     OW48166   3.961  11.077  10.110 -0.5659 -0.4596 -0.0907
47039SOL    HW148167   3.960  11.106  10.019  0.3488  1.3262  0.4350
47039SOL    HW248168   3.972  10.982  10.104  1.6338 -0.1687 -1.8153
47040SOL     OW48169  11.327   8.906   1.414 -0.4679  0.5068 -0.5016
47040SOL    HW148170  11.347   8.863   1.498  0.9552  1.3618 -0.3621
47040SOL    HW248171  11.331   8.836   1.349  0.0366  0.1105 -0.0483
47041SOL     OW48172   0.687  12.487  11.936 -0.0227 -0.0910 -0.4070
47041SOL    HW148173   0.682  12.518  12.027 -0.6589 -0.6958 -0.2260
47041SOL    HW248174   0.620  12.537  11.890 -0.0649 -0.1572 -0.4195
47042SOL     OW48175   4.208   8.837   1.964 -0.5659 -0.5919 -0.3411
47042SOL    HW148176   4.293   8.794   1.971 -0.6666 -0.5041  2.4506
47042SOL    HW248177   4.144   8.768   1.976 -0.8378 -0.3401 -0.3186
47043SOL     OW48178   0.246   9.999   9.314 -0.0809  0.5536 -0.0065
47043SOL    HW148179   0.156  10.009   9.283  0.0971  2.9981  0.0364
47043SOL    HW248180   0.293   9.959   9.240 -0.7734  1.3052 -0.8760
47044SOL     OW48181   4.516  11.050   0.076  0.6854  0.0062 -0.8505
47044SOL    HW148182   4.543  11.141   0.086 -0.5587  0.3210 -0.1421
47044SOL    HW248183   4.571  11.001   0.137  2.1404  0.0850 -2.0311
47045SOL     OW48184   1.576   5.224   1.536 -0.7636 -0.2332  0.3554
47045SOL    HW148185   1.603   5.158   1.473 -1.1697  0.1151 -0.1910
47045SOL    HW248186   1.569   5.177   1.619  1.1567 -0.4207  0.4707
47046SOL     OW48187   6.330  10.483   4.759 -0.0243 -0.4332 -0.2761
47046SOL    HW148188   6.341  10.578   4.757 -1.0380 -0.3008 -0.1503
47046SOL    HW248189   6.381  10.455   4.835 -1.8396  0.3535  1.3367
47047SOL     OW48190   5.396   9.520   1.506 -0.3089 -0.1444 -0.2361
47047SOL    HW148191   5.348   9.438   1.505 -0.6896  0.0708 -1.0302
47047SOL    HW248192   5.379   9.559   1.420  0.0059  0.6813  0.0576
47048SOL     OW48193   9.363   3.826   4.183 -0.3106 -0.4787  0.5337
47048SOL    HW148194   9.429   3.863   4.124 -0.5322 -1.1490 -0.1482
47048SOL    HW248195   9.407   3.823   4.269 -0.0655  0.7121  0.4636
47049SOL     OW48196   3.185   0.364   8.587  0.2070 -0.3436 -0.2776
47049SOL    HW148197   3.228   0.334   8.667  1.1165  0.7450 -0.3299
47049SOL    HW248198   3.097   0.325   8.590 -0.0698  0.3531  1.6591
47050SOL     OW48199   9.819   2.830  10.761 -0.3953  0.3800 -0.3315
47050SOL    HW148200   9.767   2.852  10.683 -3.6013  0.5354  1.6760
47050SOL    HW248201   9.780   2.882  10.831  3.7155  1.8727  1.1215
47051SOL     OW48202   3.461   1.108   9.907 -0.5122  0.1663 -0.0529
47051SOL    HW148203   3.410   1.169   9.962  1.8003  1.0028  1.2994
47051SOL    HW248204   3.552   1.129   9.927  0.3866 -1.7131 -1.8888
47052SOL     OW48205   8.705  12.363  11.432 -0.2486 -0.2804  0.6094
47052SOL    HW148206   8.705  12.421  11.509  0.3180  0.2745  0.2025
47052SOL    HW248207   8.629  12.306  11.445 -1.7689  1.5461  0.2858
47053SOL     OW48208   9.692   8.187  10.135 -0.1242  0.1137  0.0462
47053SOL    HW148209   9.598   8.173  10.145 -0.6936  3.4119  0.6638
47053SOL    HW248210   9.715   8.243  10.209  2.3590 -0.5846 -0.1129
47054SOL     OW48211   3.059  10.787   6.016  0.1652 -0.1707 -0.7826
47054SOL    HW148212   3.142  10.804   6.061 -0.1373  2.0415 -0.9852
47054SOL    HW248213   2.994  10.782   6.085  0.1094  0.4897 -0.7874
47055SOL     OW48214   2.053   2.635  11.954  0.5043 -0.1015  0.8075
47055SOL    HW148215   2.000   2.556  11.942  0.3506  0.2341 -1.0054
47055SOL    HW248216   2.136   2.604  11.988 -0.0501 -0.8804  1.4790
47056SOL     OW48217   2.302  11.838   0.884  0.1624 -0.7481  0.6007
47056SOL    HW148218   2.319  11.914   0.940 -1.3318 -0.3137  0.5140
47056SOL    HW248219   2.318  11.870   0.795 -1.9223 -0.0311  0.4307
47057SOL     OW48220   6.533   3.950   2.645 -0.0376 -0.4412 -0.1428
47057SOL    HW148221   6.612   3.917   2.601  0.3959  0.1332  0.1867
47057SOL    HW248222   6.461   3.900   2.606  0.2009  0.7481 -2.3061
47058SOL     OW48223   3.020   8.410   8.382  0.5467 -0.7762  0.1443
47058SOL    HW148224   2.937   8.450   8.357  0.4312 -1.6520 -0.9341
47058SOL    HW248225   3.086   8.464   8.339  0.5353 -0.1816  0.8615
47059SOL     OW48226   8.862   7.073  10.317  0.7544  0.0959  0.5685
47059SOL    HW148227   8.929   7.048  10.253  0.1733  1.7115 -0.7520
47059SOL    HW248228   8.852   6.996  10.373  1.4894 -1.2957 -1.1171
47060SOL     OW48229  11.501   3.466   5.414 -0.4354 -0.1961  0.4834
47060SOL    HW148230  11.440   3.538   5.425 -1.2857 -0.5061 -1.6394
47060SOL    HW248231  11.576   3.505   5.368  0.2264 -0.1886  1.5216
47061SOL     OW48232   6.991  11.937  10.393  0.5218 -0.3668  0.2553
47061SOL    HW148233   6.952  11.858  10.356  1.8573 -1.1643  0.4741
47061SOL    HW248234   6.954  12.009  10.342 -2.1812 -0.9152  1.2536
47062SOL     OW48235   7.901   1.856   4.824 -0.0569  0.1476  0.3895
47062SOL    HW148236   7.916   1.950   4.813  1.9468 -0.4277 -3.0993
47062SOL    HW248237   7.984   1.815   4.802 -1.4214 -2.5270 -0.2138
47063SOL     OW48238   8.693  11.311   6.103 -0.1662 -0.1302  0.3732
47063SOL    HW148239   8.695  11.283   6.195 -0.3286  0.9172  0.7151
47063SOL    HW248240   8.784  11.336   6.085 -0.5544  2.0165  1.0504
47064SOL     OW48241   4.639   0.235   7.429 -0.6721  0.2289 -0.3856
47064SOL    HW148242   4.582   0.178   7.377 -0.6558  0.3307 -0.5158
47064SOL    HW248243   4.727   0.219   7.394 -0.7141  0.6000 -0.6651
47065SOL     OW48244   7.961   6.908   7.305  0.0424 -0.0329 -0.4354
47065SOL    HW148245   8.013   6.828   7.298  1.0636  0.6916 -1.7576
47065SOL    HW248246   7.986   6.946   7.389  0.2755 -0.6103 -0.2385
47066SOL     OW48247   2.848   7.727  10.497  0.3224 -0.5028 -0.1928
47066SOL    HW148248   2.850   7.666  10.571  0.9850 -1.4740 -0.9808
47066SOL    HW248249   2.927   7.780  10.506  1.3128 -1.7460 -1.0754
47067SOL     OW48250   3.855  12.309   2.008  0.2839  0.2327  0.2598
47067SOL    HW148251   3.893  12.273   1.928  4.2425  3.3480  0.4528
47067SOL    HW248252   3.891  12.254   2.078  2.5429  1.5927  0.2479
47068SOL     OW48253   2.405   5.864  11.545 -0.3204 -0.2998 -0.7573
47068SOL    HW148254   2.345   5.820  11.484  0.9190 -0.1413 -2.1530
47068SOL    HW248255   2.366   5.950  11.559  0.1193  0.2396 -2.5807
47069SOL     OW48256   3.113  11.707   6.491  0.8249 -0.3447  0.0845
47069SOL    HW148257   3.059  11.648   6.438  1.7584 -3.8469  2.6561
47069SOL    HW248258   3.052  11.773   6.523 -0.7347 -0.9662 -1.4229
47070SOL     OW48259   4.767   6.786   3.304  0.0619 -0.2839  0.3338
47070SOL    HW148260   4.714   6.712   3.336 -0.9064  0.3847  0.2949
47070SOL    HW248261   4.819   6.811   3.380 -1.0376  0.2385  0.9367
47071SOL     OW48262   6.853  11.091   3.361  0.3464  0.5750  0.2092
47071SOL    HW148263   6.905  11.110   3.283  0.7660 -0.4967  0.2225
47071SOL    HW248264   6.848  11.175   3.407  1.9390  0.7381  0.1408
47072SOL     OW48265   5.812  12.190   2.560 -0.1441 -0.2500  0.0933
47072SOL    HW148266   5.877  12.185   2.490  1.1735 -2.2671  1.3380
47072SOL    HW248267   5.740  12.133   2.531 -1.2417  1.6283 -1.0803
47073SOL     OW48268   2.186   8.687   9.860  0.2416 -0.1651  0.0232
47073SOL    HW148269   2.101   8.680   9.904  0.5206 -1.6727  0.3815
47073SOL    HW248270   2.244   8.723   9.927 -0.1028  0.8716 -0.2224
47074SOL     OW48271   1.840   0.025   7.754 -0.0691  0.1965 -0.1441
47074SOL    HW148272   1.745   0.010   7.754 -0.2273  1.1140 -0.1534
47074SOL    HW248273   1.863   0.031   7.846 -0.1430  0.6236 -0.1482
47075SOL     OW48274   5.714   7.387   3.903  0.3756  0.7557  0.7076
47075SOL    HW148275   5.695   7.324   3.834  0.7437  1.5349 -0.1316
47075SOL    HW248276   5.759   7.335   3.971 -2.5613 -0.6301  1.7430
47076SOL     OW48277   4.423   9.727   3.070  0.2663 -0.0431 -0.2414
47076SOL    HW148278   4.518   9.723   3.082  0.2268  1.4931  0.8674
47076SOL    HW248279   4.389   9.653   3.121  0.6964  1.2977  2.0941
47077SOL     OW48280  10.411   7.533  11.118 -0.3915 -0.4643  0.2924
47077SOL    HW148281  10.479   7.470  11.143 -0.8589  0.4155  4.4070
47077SOL    HW248282  10.329   7.487  11.137 -0.7859  0.5716  1.1407
47078SOL     OW48283   3.823   5.294   2.632 -1.0574 -0.0228 -0.5416
47078SOL    HW148284   3.794   5.217   2.583 -1.5909  1.3419 -2.4733
47078SOL    HW248285   3.900   5.325   2.585  0.0345 -0.1590  1.0666
47079SOL     OW48286   8.832   9.987   4.001  0.2065 -0.3564  0.0974
47079SOL    HW148287   8.870   9.930   4.067  0.1711 -0.8408 -0.2991
47079SOL    HW248288   8.900  10.054   3.986  0.3023 -0.3702  0.4585
47080SOL     OW48289   8.301   6.312   0.768 -0.2855 -0.5907 -0.0004
47080SOL    HW148290   8.311   6.384   0.832 -1.6801 -0.6825  0.3522
47080SOL    HW248291   8.221   6.334   0.720  0.3745 -0.8901 -1.2627
47081SOL     OW48292   5.178   3.242  12.044  0.2956  0.1698  0.4156
47081SOL    HW148293   5.139   3.155  12.052  0.2282  0.1141 -0.4861
47081SOL    HW248294   5.192   3.270  12.135  0.9869 -1.0768  0.7181
47082SOL     OW48295  11.396   2.965   8.594 -0.4957  0.1376 -0.3309
47082SOL    HW148296  11.364   2.976   8.684 -0.6740 -0.8326 -0.2560
47082SOL    HW248297  11.321   2.928   8.547 -0.0320 -0.5328 -0.5690
47083SOL     OW48298  11.679   3.062   2.912  0.1355  0.2216  0.1690
47083SOL    HW148299  11.757   3.099   2.954 -0.4838  2.6024 -0.5871
47083SOL    HW248300  11.698   3.068   2.818 -0.8575  0.7123 -0.0183
47084SOL     OW48301   8.307   6.094   9.482 -0.1979  0.0193 -0.3704
47084SOL    HW148302   8.390   6.077   9.439  0.2366 -0.9788  0.7943
47084SOL    HW248303   8.274   6.175   9.442  1.8455  1.0429 -0.0992
47085SOL     OW48304   0.772   1.661   7.046  0.1107 -0.3797  0.2745
47085SOL    HW148305   0.803   1.751   7.050  0.1880 -0.4471  1.6775
47085SOL    HW248306   0.753   1.646   6.953  0.8466  0.8152 -0.0859
47086SOL     OW48307   5.670  12.248   8.177  0.1542 -0.7500  0.1990
47086SOL    HW148308   5.681  12.342   8.161 -0.5652 -0.8745 -1.2044
47086SOL    HW248309   5.756  12.219   8.209  0.1414  0.5250  1.4509
47087SOL     OW48310   0.031   6.440  12.156  0.3148  0.3462  0.1165
47087SOL    HW148311   0.077   6.456  12.074  1.2888  1.9787  0.9361
47087SOL    HW248312  -0.047   6.495  12.151  1.3551  1.9958  1.0347
47088SOL     OW48313   9.356  12.250   3.496 -0.1618 -0.1291 -0.0987
47088SOL    HW148314   9.403  12.332   3.483  2.1875 -1.4468 -0.5477
47088SOL    HW248315   9.272  12.264   3.453 -0.0007  2.1578  0.2082
47089SOL     OW48316   1.610   5.080   1.305  0.0030 -0.3681 -0.2396
47089SOL    HW148317   1.559   5.001   1.323  0.7596 -0.4222  1.9971
47089SOL    HW248318   1.698   5.049   1.287  0.1611 -0.0857  0.0288
47090SOL     OW48319   1.513   8.733   5.537 -0.3749  0.4570  0.1753
47090SOL    HW148320   1.586   8.769   5.588 -0.5617 -1.2095  1.7099
47090SOL    HW248321   1.477   8.664   5.592 -0.0676 -2.0636 -2.5271
47091SOL     OW48322   4.589   7.763   3.266 -0.2839 -0.4605 -0.4965
47091SOL    HW148323   4.506   7.796   3.302 -0.3053  1.1617 -1.8809
47091SOL    HW248324   4.639   7.735   3.343 -2.3410 -2.1147  0.3297
47092SOL     OW48325   1.899   0.733   6.741 -0.2846 -0.3900  0.6219
47092SOL    HW148326   1.928   0.759   6.828 -1.5851 -1.0860  1.2920
47092SOL    HW248327   1.804   0.727   6.748 -0.3515 -1.1814 -0.6442
47093SOL     OW48328   7.326   7.819   7.174 -0.0236  0.2918  0.6942
47093SOL    HW148329   7.343   7.806   7.081 -0.5129 -0.1665  0.6664
47093SOL    HW248330   7.352   7.910   7.190  2.6587 -0.3950  0.7134
47094SOL     OW48331   6.097  11.787   7.802  0.2354 -0.3281  0.1387
47094SOL    HW148332   6.175  11.837   7.779  1.1827 -2.5521 -1.9204
47094SOL    HW248333   6.029  11.816   7.741  0.0992  0.0325  0.4579
47095SOL     OW48334  10.668   8.505   8.409 -0.0090 -0.3555 -0.3168
47095SOL    HW148335  10.669   8.580   8.468  1.0204 -0.5932 -0.0064
47095SOL    HW248336  10.757   8.503   8.372 -0.1407 -1.1937 -0.6079
47096SOL     OW48337   4.994   3.295   3.687  0.3325  0.1624  0.3071
47096SOL    HW148338   4.921   3.285   3.749 -0.4994  0.3713 -0.6071
47096SOL    HW248339   5.072   3.289   3.741 -0.3085 -1.6015  1.1475
47097SOL     OW48340  12.012  11.141  11.999 -0.0181  0.1997  0.1488
47097SOL    HW148341  12.025  11.194  11.920 -0.4962 -1.5015 -1.1268
47097SOL    HW248342  12.038  11.199  12.070 -0.5695  2.1656 -1.1517
47098SOL     OW48343   5.811  10.905   3.632  0.4719 -0.0302 -0.5797
47098SOL    HW148344   5.792  10.831   3.574 -0.9337 -0.4345  0.3495
47098SOL    HW248345   5.790  10.983   3.580  1.8175 -0.2626 -1.5143
47099SOL     OW48346   4.238   7.236   4.670  0.0395  0.1649 -0.0976
47099SOL    HW148347   4.193   7.268   4.592 -1.5707  0.3770  0.8724
47099SOL    HW248348   4.203   7.148   4.683  1.4654 -0.4792 -0.4758
47100SOL     OW48349   6.734   1.977   8.755  0.1067  0.8345 -0.0205
47100SOL    HW148350   6.810   1.942   8.800  1.4074  1.2542 -1.7953
47100SOL    HW248351   6.666   1.910   8.765  1.0366 -0.0156  0.6961
47101SOL     OW48352   0.025   3.362   1.751 -0.2496  0.2999  0.1319
47101SOL    HW148353   0.085   3.417   1.801  0.1305  0.7459 -0.8100
47101SOL    HW248354  -0.056   3.365   1.801  0.8918 -1.5660  2.3045
47102SOL     OW48355   5.986   1.695   9.157  0.1288 -0.3234  0.0457
47102SOL    HW148356   5.922   1.624   9.165  0.2594 -0.6109 -1.2815
47102SOL    HW248357   5.989   1.734   9.244 -1.1145 -0.9397  0.3880
47103SOL     OW48358   4.764   7.722   3.064 -0.4135 -0.4199  0.0105
47103SOL    HW148359   4.687   7.751   3.112 -0.2595 -1.0778  0.6759
47103SOL    HW248360   4.734   7.711   2.974 -1.1225 -0.7662  0.2871
47104SOL     OW48361  11.187   5.914   2.594  0.5654  0.5572  0.4702
47104SOL    HW148362  11.218   6.002   2.572  0.6126  1.3221  3.2385
47104SOL    HW248363  11.095   5.914   2.570  1.1125  0.4005 -1.9524
47105SOL     OW48364   9.944   4.688   9.059 -0.1064  0.4744  0.1902
47105SOL    HW148365   9.872   4.635   9.092  0.8308  0.5648  2.5487
47105SOL    HW248366   9.990   4.630   8.998 -1.1988 -0.1401 -0.0696
47106SOL     OW48367   3.706   7.546   8.818 -0.4314 -0.2352  0.5906
47106SOL    HW148368   3.679   7.566   8.728  0.9955 -1.0233 -0.0510
47106SOL    HW248369   3.735   7.630   8.854  1.5011 -0.3147 -0.6307
47107SOL     OW48370   6.774  11.880   6.532 -0.2266 -0.6557  0.3293
47107SOL    HW148371   6.840  11.811   6.533 -1.4629 -1.9171 -0.6018
47107SOL    HW248372   6.691  11.834   6.545 -0.8906  1.0083  2.6287
47108SOL     OW48373   4.328   5.869   9.835 -0.1812 -0.0283  0.1110
47108SOL    HW148374   4.396   5.889   9.900 -0.8771 -0.0725  0.8637
47108SOL    HW248375   4.246   5.898   9.875 -0.6050  0.1269 -0.8375
47109SOL     OW48376   9.878   0.314  10.001  0.5789  0.2870 -0.3186
47109SOL    HW148377   9.836   0.387   9.956  0.7421 -0.5405 -1.8849
47109SOL    HW248378   9.918   0.262   9.931  2.7440  0.0915  0.9472
47110SOL     OW48379  11.213   9.456   2.917 -0.9149  0.2205 -0.1451
47110SOL    HW148380  11.200   9.536   2.968  0.0174 -1.5047  2.9877
47110SOL    HW248381  11.307   9.451   2.903 -1.0016 -0.2069 -0.6106
47111SOL     OW48382   7.082   2.908   9.772  0.0852 -0.7666 -0.3350
47111SOL    HW148383   7.054   2.872   9.856  0.1970  1.9123  0.9675
47111SOL    HW248384   7.002   2.946   9.735  0.6135  1.1166  0.2976
47112SOL     OW48385   6.827   9.791   6.883 -0.3588  0.0564  0.2323
47112SOL    HW148386   6.767   9.761   6.951  1.2329 -0.0776  1.6313
47112SOL    HW248387   6.861   9.710   6.844 -0.5527  0.1222 -0.0743
47113SOL     OW48388   5.482   0.182   5.947 -0.5884 -0.5332 -0.1410
47113SOL    HW148389   5.474   0.092   5.917 -2.2881 -0.1468 -0.9624
47113SOL    HW248390   5.465   0.235   5.869 -1.7202  0.4991  0.7778
47114SOL     OW48391   3.244  10.517  10.057 -0.2515 -0.3235  0.5773
47114SOL    HW148392   3.232  10.422  10.065 -0.3595 -0.4857 -1.1635
47114SOL    HW248393   3.322  10.536  10.109 -0.6989 -1.2275  1.6199
47115SOL     OW48394   1.352   9.017   3.563  0.3433  0.3686 -0.2088
47115SOL    HW148395   1.416   9.048   3.627 -0.8047  0.1203  1.1128
47115SOL    HW248396   1.296   9.093   3.547  0.0740  0.1727 -0.2002
47116SOL     OW48397   9.225   6.400   2.677  0.6753 -0.3026  0.0939
47116SOL    HW148398   9.213   6.495   2.669  0.6559 -0.2520  0.7084
47116SOL    HW248399   9.320   6.389   2.685  0.7354 -0.3913 -0.6040
47117SOL     OW48400   1.072   4.147  11.078  0.1927 -0.1990 -0.5037
47117SOL    HW148401   1.058   4.074  11.019 -0.9280 -1.6899  1.4795
47117SOL    HW248402   1.167   4.159  11.078  0.3342 -1.1381 -1.4579
47118SOL     OW48403   5.433   9.430   5.960  0.0307  0.5281  0.0447
47118SOL    HW148404   5.397   9.496   5.901 -1.6616 -0.3683  0.0015
47118SOL    HW248405   5.494   9.478   6.016  1.4851  1.4735 -2.1858
47119SOL     OW48406   4.383   7.177   3.247  0.2401  0.1577 -0.3727
47119SOL    HW148407   4.413   7.264   3.273  0.4498 -0.4366  1.4724
47119SOL    HW248408   4.462   7.124   3.244 -0.1826 -0.6824  1.5557
47120SOL     OW48409   3.116  11.005   1.714 -0.0449 -0.0951  0.0419
47120SOL    HW148410   3.077  11.075   1.662  1.3760  0.7684  0.0767
47120SOL    HW248411   3.181  10.966   1.656  0.8686  0.2333  0.8131
47121SOL     OW48412   6.060   9.013   6.861 -0.0975 -0.0566  0.1836
47121SOL    HW148413   6.070   8.975   6.774  0.2482 -0.1733  0.2742
47121SOL    HW248414   6.108   9.096   6.857 -0.3899  0.1148  0.1543
47122SOL     OW48415   6.898   0.745   2.440 -0.2228 -0.2466  0.3144
47122SOL    HW148416   6.921   0.774   2.352 -0.9973 -0.4938  0.0211
47122SOL    HW248417   6.953   0.667   2.455  0.1964  0.0279  0.2123
47123SOL     OW48418   9.254   1.201   1.738 -0.1922  0.6379 -0.4622
47123SOL    HW148419   9.347   1.191   1.717 -0.1586  0.8926 -0.4353
47123SOL    HW248420   9.231   1.287   1.705 -0.0124  1.2622  0.9687
47124SOL     OW48421  11.542   0.810   9.809  0.3514  0.0524 -0.3936
47124SOL    HW148422  11.562   0.881   9.749  2.3976 -0.8450 -0.8718
47124SOL    HW248423  11.626   0.767   9.823 -0.9101 -2.6684 -0.6256
47125SOL     OW48424   0.153   5.302   0.047  0.0688 -0.0106 -0.2004
47125SOL    HW148425   0.230   5.344   0.086 -0.2435  1.2638 -0.8888
47125SOL    HW248426   0.116   5.249   0.117  0.3058  1.1170  0.8227
47126SOL     OW48427   9.240   6.410   2.178  0.6131 -0.4588  0.2735
47126SOL    HW148428   9.223   6.343   2.245 -0.8958  0.4525  0.8407
47126SOL    HW248429   9.158   6.417   2.130  0.5531  1.3479  0.5763
47127SOL     OW48430   1.642   8.652   1.260 -0.2148  0.0292 -0.2785
47127SOL    HW148431   1.622   8.573   1.310  0.5600 -0.7574 -1.1652
47127SOL    HW248432   1.718   8.691   1.303 -1.3148  0.9769  0.8734
47128SOL     OW48433   6.806   2.466   8.703 -0.3863 -0.2968  0.2306
47128SOL    HW148434   6.842   2.401   8.764  2.4022  0.2448 -0.6785
47128SOL    HW248435   6.781   2.540   8.759 -0.2902 -0.7933  0.9433
47129SOL     OW48436  11.785   8.943  10.589 -0.1198 -0.0793 -0.4491
47129SOL    HW148437  11.812   8.918  10.501 -0.9373 -2.3726 -0.1066
47129SOL    HW248438  11.867   8.959  10.636  0.5380 -2.5285 -0.6348
47130SOL     OW48439   4.782   2.221   8.151  0.1509 -0.5176  0.4183
47130SOL    HW148440   4.804   2.313   8.162 -2.7777  0.3208  0.1350
47130SOL    HW248441   4.822   2.196   8.067 -0.1158  0.9090 -0.1590
47131SOL     OW48442   7.115   3.728   3.389  0.2120  0.9599  0.1585
47131SOL    HW148443   7.129   3.656   3.450  0.5670  0.6551 -0.2705
47131SOL    HW248444   7.203   3.748   3.356 -0.0759  0.5552 -0.8814
47132SOL     OW48445   7.471   7.562  10.684 -0.5370  0.0740 -0.2480
47132SOL    HW148446   7.487   7.582  10.776 -1.4701 -1.6318  0.3293
47132SOL    HW248447   7.547   7.511  10.656 -1.0456 -0.9111  0.1106
47133SOL     OW48448   1.689   8.113   3.105 -0.0462  0.2570  0.3947
47133SOL    HW148449   1.731   8.065   3.034  1.2569 -0.3263  1.5150
47133SOL    HW248450   1.612   8.061   3.128  0.6052 -0.6082  0.6833
47134SOL     OW48451   6.378  10.761   6.130 -0.1600 -0.3372 -0.1344
47134SOL    HW148452   6.419  10.700   6.191  2.0545  2.5009  1.4492
47134SOL    HW248453   6.328  10.821   6.185 -1.4195 -0.0109 -1.5407
47135SOL     OW48454  10.796   5.445   8.865 -0.2620 -0.0799 -0.3300
47135SOL    HW148455  10.746   5.364   8.870  0.0182 -0.2607 -0.4341
47135SOL    HW248456  10.798   5.466   8.772  1.1441 -0.8908 -0.5097
47136SOL     OW48457   3.038   6.936   3.266 -0.3080  0.2910  0.2832
47136SOL    HW148458   3.112   6.940   3.205 -0.9591  0.4864 -0.5123
47136SOL    HW248459   3.009   6.845   3.261  1.0354 -0.2962  2.0396
47137SOL     OW48460   1.833   0.388   9.940 -0.0503  0.6067 -0.7140
47137SOL    HW148461   1.890   0.448   9.892 -1.7183  1.1291 -2.1490
47137SOL    HW248462   1.850   0.407  10.032 -0.7910  3.5910 -1.1197
47138SOL     OW48463   6.698   8.012   0.785  0.1988 -0.3259  0.2013
47138SOL    HW148464   6.643   8.055   0.850  0.6058  1.6685 -0.7116
47138SOL    HW248465   6.781   7.996   0.829  0.6669  1.5330  0.0525
47139SOL     OW48466   0.920   1.615   6.369  0.2074  0.2494  0.0606
47139SOL    HW148467   0.977   1.613   6.446  0.4784 -0.0805 -0.1436
47139SOL    HW248468   0.833   1.597   6.403  0.5741 -1.6143  0.0837
47140SOL     OW48469   3.939  11.381   3.895 -0.0458 -0.3050 -0.1859
47140SOL    HW148470   3.887  11.461   3.906 -0.7739 -0.4425 -2.1793
47140SOL    HW248471   3.877  11.316   3.862  1.1728 -0.7288 -1.7532
47141SOL     OW48472   6.133   4.873   3.355  0.5267  0.3612 -0.1824
47141SOL    HW148473   6.120   4.783   3.384  0.8028  0.6636  0.9300
47141SOL    HW248474   6.115   4.871   3.261  2.5748 -1.2842 -0.6121
47142SOL     OW48475  11.920   6.338   8.722  0.2840  0.2147  1.0070
47142SOL    HW148476  11.865   6.405   8.682 -0.3731 -0.4595  0.7511
47142SOL    HW248477  11.937   6.370   8.811 -0.2680  0.5751  0.9857
47143SOL     OW48478   3.135   1.271   3.177 -0.2021  0.1964  0.5113
47143SOL    HW148479   3.123   1.196   3.235 -0.4044 -0.7635 -0.7504
47143SOL    HW248480   3.220   1.256   3.135  1.3508  2.3247  2.5841
47144SOL     OW48481  12.325   2.445   2.760 -0.5548 -0.2113 -0.2445
47144SOL    HW148482  12.324   2.515   2.825  0.6634  1.8371 -2.2860
47144SOL    HW248483  12.413   2.407   2.768 -0.3835  0.0812 -0.7080
47145SOL     OW48484   8.284  12.436   1.934  0.2362  0.5293  0.1482
47145SOL    HW148485   8.206  12.480   1.967 -0.8422  0.1363 -1.7160
47145SOL    HW248486   8.280  12.349   1.972  1.2727  1.3117  2.2071
47146SOL     OW48487   9.589   8.248   9.143  0.3712 -0.7380 -0.0829
47146SOL    HW148488   9.606   8.280   9.055  2.3382 -1.7823 -0.1337
47146SOL    HW248489   9.553   8.160   9.130 -0.1409 -0.5653  0.1422
47147SOL     OW48490   4.387   2.942   0.195 -0.2229  0.0462 -0.0407
47147SOL    HW148491   4.300   2.983   0.199  1.1447  3.1657  0.3428
47147SOL    HW248492   4.408   2.920   0.286 -0.9217 -1.6341 -0.2370
47148SOL     OW48493   3.524   4.545   1.314 -0.0201 -0.0496 -0.4597
47148SOL    HW148494   3.485   4.498   1.240 -1.2401  1.5635 -0.8858
47148SOL    HW248495   3.467   4.525   1.388 -0.5084  0.6735 -0.6290
47149SOL     OW48496   3.845   2.081   5.189  0.0529 -0.4136 -0.2546
47149SOL    HW148497   3.917   2.140   5.210  1.2827 -1.6449 -0.8675
47149SOL    HW248498   3.809   2.056   5.274  0.5664 -0.0541  0.0730
47150SOL     OW48499   1.671   4.976   6.689  0.2796 -0.4203  0.0894
47150SOL    HW148500   1.720   4.966   6.608 -1.0367 -1.5233 -0.6243
47150SOL    HW248501   1.579   4.984   6.661 -0.1088  0.1255  1.4227
47151SOL     OW48502   2.443   8.316   0.916  0.5181 -0.5146  0.0379
47151SOL    HW148503   2.355   8.337   0.947  0.9573 -0.4177  1.2578
47151SOL    HW248504   2.501   8.371   0.969  1.3281 -0.7567 -0.5846
47152SOL     OW48505   7.473  11.705   6.588  0.3466 -0.2853 -0.1221
47152SOL    HW148506   7.499  11.632   6.644 -0.6455 -0.7301 -0.2185
47152SOL    HW248507   7.453  11.776   6.648 -0.8359 -0.8010  0.1158
47153SOL     OW48508   5.054   6.650   4.387  0.2020  0.3021 -0.0044
47153SOL    HW148509   5.138   6.629   4.429  0.5887  1.4489 -0.1632
47153SOL    HW248510   5.032   6.572   4.336  1.1110 -0.0605  0.1395
47154SOL     OW48511   1.528   7.229   1.384  0.1049 -0.2726 -0.3349
47154SOL    HW148512   1.560   7.317   1.404  2.3102 -0.6979 -1.6381
47154SOL    HW248513   1.607   7.174   1.385 -1.2834 -2.3799  1.0020
47155SOL     OW48514  11.261   2.423   8.315  0.0875  0.5975  0.0483
47155SOL    HW148515  11.237   2.402   8.225  0.0282  1.7881 -0.2257
47155SOL    HW248516  11.178   2.435   8.360  0.1107 -0.3077  0.3496
47156SOL     OW48517   1.788   2.806   8.319  0.1528 -0.5640  0.1559
47156SOL    HW148518   1.831   2.816   8.404 -0.8652  0.3338  0.5875
47156SOL    HW248519   1.824   2.725   8.284 -0.2772 -1.6015  1.9739
47157SOL     OW48520  11.142   0.438  12.474 -0.0746  0.1402 -0.6704
47157SOL    HW148521  11.081   0.480  12.413 -2.2618 -0.5296  0.9359
47157SOL    HW248522  11.156   0.350  12.437  1.8347  1.0205 -2.2419
47158SOL     OW48523   7.921  11.132   6.652 -0.0969 -0.5432  0.4817
47158SOL    HW148524   7.934  11.045   6.614 -1.2326  0.2389 -1.8806
47158SOL    HW248525   7.845  11.122   6.710  0.6046 -1.3679  1.3135
47159SOL     OW48526   8.878   2.755   5.479 -0.0293 -0.4594  0.3704
47159SOL    HW148527   8.850   2.670   5.513 -0.8423  0.0914  1.1169
47159SOL    HW248528   8.802   2.787   5.431 -0.3119  0.5352  1.4353
47160SOL     OW48529   4.890   0.901   5.317  0.1082 -0.0856 -0.1109
47160SOL    HW148530   4.810   0.878   5.365  0.0487 -1.8608 -0.9753
47160SOL    HW248531   4.944   0.946   5.382 -0.2364 -1.8506  1.4977
47161SOL     OW48532   2.092   1.027   5.262  0.0519 -0.4586  0.6313
47161SOL    HW148533   2.037   1.050   5.336 -2.1163 -2.6352 -0.1483
47161SOL    HW248534   2.034   1.031   5.186  1.5758 -0.6260 -0.6092
47162SOL     OW48535   3.144  11.814  11.305 -0.4961  0.6305 -0.6954
47162SOL    HW148536   3.102  11.813  11.391 -0.8278 -0.4732 -0.8492
47162SOL    HW248537   3.101  11.743  11.257  1.2419 -0.2594 -1.0057
47163SOL     OW48538   4.152   2.539   1.883  0.7816 -0.4581  0.2857
47163SOL    HW148539   4.092   2.493   1.825 -1.8682 -0.3436  2.7619
47163SOL    HW248540   4.231   2.485   1.884 -0.3069 -2.1540 -0.8713
47164SOL     OW48541   4.204   9.421   6.859  0.0654  0.4202  0.3582
47164SOL    HW148542   4.168   9.345   6.906 -0.0229  0.7697  0.8697
47164SOL    HW248543   4.129   9.477   6.845  0.4806  1.4827  2.0558
47165SOL     OW48544   4.277  11.269   1.890 -0.5684 -0.6161  0.4840
47165SOL    HW148545   4.320  11.332   1.833 -1.1608 -0.5646  0.0922
47165SOL    HW248546   4.294  11.184   1.850 -0.2627 -0.6558  0.6959
47166SOL     OW48547   3.996   0.577   7.498 -0.1752  0.2239 -0.4539
47166SOL    HW148548   4.027   0.667   7.502 -0.5022  0.3240 -0.0743
47166SOL    HW248549   4.075   0.524   7.509  0.0303  0.4601 -0.7742
47167SOL     OW48550   8.242   1.157   5.126  0.7429  0.1547  0.2797
47167SOL    HW148551   8.271   1.099   5.197 -0.0113  0.4546  0.8478
47167SOL    HW248552   8.182   1.218   5.168  0.5820  0.5817 -0.5534
47168SOL     OW48553  11.137   2.687  12.506 -0.1697  0.6725  0.3497
47168SOL    HW148554  11.129   2.777  12.476  2.3954  0.5590 -0.9872
47168SOL    HW248555  11.203   2.691  12.575 -1.3576  0.0185  1.5675
47169SOL     OW48556   4.790  10.854   6.026  0.0480  0.1863 -0.1413
47169SOL    HW148557   4.719  10.913   6.052  0.6225 -0.2958  2.8383
47169SOL    HW248558   4.783  10.780   6.086  2.7343 -0.1228 -0.1189
47170SOL     OW48559  11.471   5.579   4.630  0.5146  0.2392  0.0967
47170SOL    HW148560  11.387   5.533   4.620 -0.3285  1.9532 -1.4024
47170SOL    HW248561  11.498   5.560   4.719 -1.1946 -0.8090  0.4553
47171SOL     OW48562  12.270  11.438  12.139 -0.3175 -0.3890  0.9070
47171SOL    HW148563  12.225  11.462  12.059  0.3252 -2.8661 -0.2796
47171SOL    HW248564  12.201  11.407  12.198 -0.5813 -0.3631  0.6117
47172SOL     OW48565   9.394   6.114   2.681 -0.7668  0.0162  0.1906
47172SOL    HW148566   9.397   6.021   2.661 -1.4339 -0.3023  1.4377
47172SOL    HW248567   9.302   6.131   2.703 -0.7708  1.0998 -0.5865
47173SOL     OW48568   8.498   4.098   3.200  0.3946  0.7468  0.3827
47173SOL    HW148569   8.443   4.022   3.183 -0.0020  0.3001  3.1805
47173SOL    HW248570   8.438   4.163   3.237  0.8318  2.2694 -1.4308
47174SOL     OW48571  12.494   8.745   8.852  0.0821 -0.8551 -0.0188
47174SOL    HW148572  12.519   8.707   8.768  1.0415 -1.5667  0.5774
47174SOL    HW248573  12.531   8.686   8.918  1.4629  0.9977  0.9369
47175SOL     OW48574   4.245   5.476   3.105  0.7578 -0.0412 -0.2814
47175SOL    HW148575   4.224   5.422   3.182 -1.2511  1.0451  0.0044
47175SOL    HW248576   4.270   5.560   3.142  2.1699 -0.2274 -0.7776
47176SOL     OW48577   5.219   3.743  11.164 -1.0305 -0.5103 -0.3742
47176SOL    HW148578   5.127   3.762  11.150 -0.6775  0.1947 -1.9909
47176SOL    HW248579   5.265   3.821  11.133  0.1148 -0.8048  0.4927
47177SOL     OW48580   3.377   7.102   1.036 -0.6497 -0.4252 -0.0391
47177SOL    HW148581   3.450   7.161   1.017 -0.9887 -0.1043 -0.3765
47177SOL    HW248582   3.415   7.032   1.088 -0.1991 -0.0072  0.1969
47178SOL     OW48583   1.535  10.644  12.137 -0.3692 -1.0507  0.6217
47178SOL    HW148584   1.484  10.658  12.057  2.1647 -1.8134 -1.2579
47178SOL    HW248585   1.583  10.726  12.149 -2.4023 -0.0601  2.7969
47179SOL     OW48586  11.828   7.573  10.351  0.3379 -0.0511  0.4190
47179SOL    HW148587  11.860   7.557  10.440  1.3645 -0.6993 -0.0574
47179SOL    HW248588  11.749   7.520  10.344  1.2892 -1.5137  0.3360
47180SOL     OW48589   0.352  11.045   9.499 -0.4110 -0.3205 -0.5329
47180SOL    HW148590   0.275  11.102   9.508  0.4915  0.9633 -0.5424
47180SOL    HW248591   0.322  10.959   9.529 -1.1108  0.7541  2.1778
47181SOL     OW48592  11.541   2.617   4.281  0.3395 -0.0520  0.0160
47181SOL    HW148593  11.529   2.524   4.302  0.3324 -0.2657 -0.8992
47181SOL    HW248594  11.511   2.663   4.359 -0.4664 -0.7876  0.1595
47182SOL     OW48595   7.586   1.520   8.336 -0.0594 -1.3157  0.2528
47182SOL    HW148596   7.538   1.526   8.253  1.1836 -1.1111 -0.4692
47182SOL    HW248597   7.671   1.559   8.317  0.7849 -2.6240  1.2197
47183SOL     OW48598  11.465   5.758   1.319 -0.5203  0.0669 -0.5221
47183SOL    HW148599  11.538   5.706   1.285 -0.5203  0.3887 -1.0251
47183SOL    HW248600  11.476   5.844   1.278 -0.3106  0.5837  0.5651
47184SOL     OW48601   1.397   6.951  10.099 -0.4587  0.4564  0.1126
47184SOL    HW148602   1.449   7.026  10.070 -1.1924  0.2950 -1.7485
47184SOL    HW248603   1.403   6.953  10.195  0.9572  1.8506  0.0274
47185SOL     OW48604   0.413   1.247   7.804 -0.0758 -0.3160  0.1616
47185SOL    HW148605   0.500   1.286   7.798  0.5913 -1.6546  0.5125
47185SOL    HW248606   0.386   1.262   7.894 -0.1946  0.0818  0.0588
47186SOL     OW48607   8.522   1.784   7.833  0.2895 -0.4582  0.1242
47186SOL    HW148608   8.450   1.752   7.887 -1.5640 -1.4668 -2.7053
47186SOL    HW248609   8.519   1.879   7.843 -1.2133 -0.5103  0.3644
47187SOL     OW48610   8.378   6.717   5.852 -0.7696 -0.0564 -0.2222
47187SOL    HW148611   8.373   6.798   5.801 -1.2596  0.5886  0.8195
47187SOL    HW248612   8.445   6.664   5.807  0.2281  1.2941 -0.3891
47188SOL     OW48613   8.134  10.555  12.301  0.4714 -0.0055 -0.5666
47188SOL    HW148614   8.124  10.566  12.395  1.1322 -0.0072 -0.4886
47188SOL    HW248615   8.125  10.643  12.265  0.3095  0.0085 -0.4891
47189SOL     OW48616  10.861  10.961  12.079  0.3634  0.2457 -0.3568
47189SOL    HW148617  10.946  10.947  12.121  0.3692  2.1518  0.3657
47189SOL    HW248618  10.797  10.944  12.148  0.3841  3.7863  0.7319
47190SOL     OW48619  12.350  11.084   9.474  0.1581 -0.2807 -0.5571
47190SOL    HW148620  12.374  11.148   9.406  1.8393 -1.7693 -1.4607
47190SOL    HW248621  12.375  11.126   9.556  0.5242  0.5372 -1.0670
47191SOL     OW48622   8.583  12.300   3.291 -0.0653  0.7604  0.0696
47191SOL    HW148623   8.599  12.246   3.213 -0.3804 -0.3308  0.7316
47191SOL    HW248624   8.605  12.389   3.264 -0.2341  0.4117 -1.2880
47192SOL     OW48625   8.686   8.734   6.399  0.0492 -0.3813 -0.0750
47192SOL    HW148626   8.687   8.739   6.304 -2.4299 -2.2239 -0.2755
47192SOL    HW248627   8.645   8.816   6.427 -1.4509 -0.8758 -0.7625
47193SOL     OW48628  11.238  12.449   1.534 -0.5729 -0.0909 -0.0816
47193SOL    HW148629  11.242  12.362   1.573 -0.3737  0.2882  0.7611
47193SOL    HW248630  11.292  12.503   1.591 -0.1656  0.4503 -0.9740
47194SOL     OW48631   3.085   9.738   1.809  0.3134  0.8672 -0.0541
47194SOL    HW148632   3.016   9.799   1.836 -1.6613 -1.8636  1.5669
47194SOL    HW248633   3.038   9.666   1.767  2.3396 -0.4791 -0.1528
47195SOL     OW48634  10.753   3.004  11.505  0.3175  0.0837 -0.0429
47195SOL    HW148635  10.828   2.953  11.474  0.6807  0.7999 -0.3645
47195SOL    HW248636  10.677   2.959  11.468  0.5914 -0.5111  0.0943
47196SOL     OW48637   6.938   7.259  12.013  0.1343  0.3794 -0.1164
47196SOL    HW148638   6.865   7.289  12.068  1.1069  3.0991 -0.1661
47196SOL    HW248639   6.968   7.178  12.055 -0.7629  1.0296  1.8957
47197SOL     OW48640   3.964   8.560   4.991 -0.4955 -0.2993 -0.0465
47197SOL    HW148641   3.991   8.646   4.960 -0.5674 -0.4854 -0.6360
47197SOL    HW248642   3.917   8.577   5.073 -1.2533  0.3009 -0.5965
47198SOL     OW48643   4.562   3.053  10.276 -0.1125 -0.0928 -0.1258
47198SOL    HW148644   4.650   3.088  10.266 -0.0353 -0.3509 -0.3537
47198SOL    HW248645   4.538   3.024  10.188  0.8067 -2.9852  0.4798
47199SOL     OW48646   5.040  12.102  10.683  0.5056 -0.2502 -0.0345
47199SOL    HW148647   5.037  12.021  10.734  1.0783 -1.3999 -1.7400
47199SOL    HW248648   4.965  12.097  10.625 -0.2527  1.1330  0.7658
47200SOL     OW48649   4.545   4.725  11.987 -0.0805  0.8578 -0.4067
47200SOL    HW148650   4.638   4.700  11.981 -0.1018  0.8212 -0.6074
47200SOL    HW248651   4.515   4.724  11.896 -0.6519 -0.5499 -0.2277
47201SOL     OW48652   0.647   1.623   4.324  0.1528  0.0258  0.2141
47201SOL    HW148653   0.627   1.715   4.307 -0.3096 -0.1018  0.0417
47201SOL    HW248654   0.714   1.600   4.259  2.0176  0.8609  1.7529
47202SOL     OW48655   1.121  11.170   1.766 -0.3847  0.0766 -0.4046
47202SOL    HW148656   1.215  11.149   1.774  0.3338  2.0699 -2.5374
47202SOL    HW248657   1.098  11.210   1.849  0.4773 -1.0360  0.3966
47203SOL     OW48658   9.227  12.251   5.817  0.2797 -0.1640 -0.2904
47203SOL    HW148659   9.276  12.272   5.897 -1.7968 -2.6993  1.8467
47203SOL    HW248660   9.144  12.298   5.828 -0.0409 -0.5799 -0.9092
47204SOL     OW48661   6.648  11.577   3.066 -0.0832  0.2749  0.0838
47204SOL    HW148662   6.632  11.638   2.994 -0.4984 -0.6053 -0.5896
47204SOL    HW248663   6.738  11.547   3.054  0.5779  1.6971  1.1665
47205SOL     OW48664   7.069   7.079   9.752 -0.2118 -0.2498 -0.4174
47205SOL    HW148665   7.085   7.047   9.663 -1.8157 -1.5066 -0.2945
47205SOL    HW248666   7.150   7.124   9.776 -0.2793  1.5460 -3.0848
47206SOL     OW48667   6.166   7.439  10.455 -0.0211  0.3485  0.2664
47206SOL    HW148668   6.077   7.417  10.480 -0.3406  0.5618 -0.6414
47206SOL    HW248669   6.221   7.399  10.522 -0.6910 -1.3882 -0.1906
47207SOL     OW48670  12.415   9.206   0.330 -0.1430 -0.5254 -0.0030
47207SOL    HW148671  12.495   9.243   0.368  1.3275 -0.9681 -2.4249
47207SOL    HW248672  12.439   9.115   0.308 -2.0165 -1.3409  1.0926
47208SOL     OW48673   5.479   1.524   5.652 -0.2003  0.4751  0.3113
47208SOL    HW148674   5.566   1.550   5.684  0.1377 -0.4670  0.1828
47208SOL    HW248675   5.478   1.551   5.560 -0.1229  0.6714  0.3668
47209SOL     OW48676   0.828   3.147   1.855  0.0434  0.4072 -0.1527
47209SOL    HW148677   0.908   3.178   1.897 -0.4016  0.0823  0.9637
47209SOL    HW248678   0.759   3.163   1.919 -0.4534 -1.2779 -0.2181
47210SOL     OW48679   2.994   1.186   2.104 -0.1489  0.0947  0.4701
47210SOL    HW148680   3.023   1.215   2.191  1.4850 -0.9868  0.3374
47210SOL    HW248681   2.918   1.130   2.122 -0.1680  0.3211  1.1466
47211SOL     OW48682   0.203   9.211   4.015  0.4046 -0.1583  0.6885
47211SOL    HW148683   0.195   9.167   4.100 -0.1950  0.9692  1.2523
47211SOL    HW248684   0.138   9.168   3.959  1.2117 -1.2982  0.6166
47212SOL     OW48685   9.845   2.441   4.398 -0.6178 -0.1043  1.1690
47212SOL    HW148686   9.785   2.407   4.464 -1.3989  1.4082  1.2689
47212SOL    HW248687   9.790   2.495   4.341  0.1826 -0.7694 -0.2829
47213SOL     OW48688   1.622   6.777   8.883 -0.4801  0.1093  0.1835
47213SOL    HW148689   1.657   6.694   8.917 -0.4210  0.2185  0.3960
47213SOL    HW248690   1.541   6.753   8.839  0.2398 -0.2556 -0.9825
47214SOL     OW48691   2.828   8.640   5.166  0.3381 -0.0591  0.2935
47214SOL    HW148692   2.770   8.715   5.155 -0.8288 -1.0333 -0.7172
47214SOL    HW248693   2.863   8.624   5.078  1.5893  0.0669  0.7517
47215SOL     OW48694  12.045   4.019   2.074  0.3011  0.4097  0.4727
47215SOL    HW148695  11.998   3.974   2.144 -2.1633  3.1053  0.6860
47215SOL    HW248696  12.114   4.068   2.119  0.5644 -0.1218  0.6572
47216SOL     OW48697  10.032   8.033   3.386 -0.0898  0.4180 -0.3039
47216SOL    HW148698  10.051   8.127   3.382  0.5098  0.3096 -0.0606
47216SOL    HW248699  10.016   8.017   3.479  1.5519 -0.0548 -0.0835
47217SOL     OW48700   9.282   0.420   5.683 -0.3693 -0.0213  0.0073
47217SOL    HW148701   9.188   0.419   5.703 -0.1261 -2.9708  1.5514
47217SOL    HW248702   9.303   0.330   5.660  2.2383  0.3865  0.4303
47218SOL     OW48703   5.554  11.828   0.453 -0.2679 -0.2939 -0.1883
47218SOL    HW148704   5.544  11.740   0.417 -0.2528  0.0029 -0.9430
47218SOL    HW248705   5.571  11.883   0.377 -0.9885  0.4775  0.1922
47219SOL     OW48706   2.758   1.335  10.439  0.3798  0.3993  0.1369
47219SOL    HW148707   2.762   1.284  10.358  3.7191  2.0551 -0.9139
47219SOL    HW248708   2.706   1.412  10.416 -0.6053 -0.2076  0.2890
47220SOL     OW48709   8.319   3.313   0.480 -0.1424 -0.0747 -0.0686
47220SOL    HW148710   8.407   3.310   0.518  0.8155 -1.3503 -2.2322
47220SOL    HW248711   8.285   3.399   0.505  1.6980  0.4237  0.8512
47221SOL     OW48712   3.026  10.643   4.851 -0.2808  0.1405  0.5115
47221SOL    HW148713   3.000  10.683   4.768 -2.2680 -1.0058  0.5119
47221SOL    HW248714   3.073  10.712   4.898 -0.2160  1.1998 -1.0437
47222SOL     OW48715   8.653   1.501  10.060 -0.3373 -0.4316  0.1989
47222SOL    HW148716   8.701   1.477   9.980 -1.2491 -3.1586  0.3667
47222SOL    HW248717   8.664   1.596  10.066  1.3950 -0.3777 -2.0889
47223SOL     OW48718  12.403   7.823   6.788  0.3766 -0.6938 -0.3841
47223SOL    HW148719  12.477   7.870   6.827 -0.6511 -0.2033  1.0544
47223SOL    HW248720  12.409   7.842   6.694  0.9016  1.0318 -0.0295
47224SOL     OW48721   8.828   0.449   7.876 -0.2331 -0.5139 -0.1485
47224SOL    HW148722   8.791   0.522   7.927  0.6612 -0.9113  1.1137
47224SOL    HW248723   8.760   0.383   7.877 -1.3910  0.5570 -2.0023
47225SOL     OW48724   8.551   2.834   8.123  0.0981  0.3999 -0.0711
47225SOL    HW148725   8.559   2.837   8.218  1.7126  2.7538 -0.1988
47225SOL    HW248726   8.610   2.763   8.096 -0.5856 -0.4703  0.6513
47226SOL     OW48727   9.673   1.064  10.167 -0.7869 -0.3762 -0.1473
47226SOL    HW148728   9.639   1.032  10.084  0.4341  1.5890 -1.4838
47226SOL    HW248729   9.658   0.992  10.228 -2.2477 -1.6617 -1.9002
47227SOL     OW48730  10.334   2.087   1.387 -0.8829  0.3226 -0.1118
47227SOL    HW148731  10.427   2.103   1.372 -1.2638  2.9854 -0.1021
47227SOL    HW248732  10.324   1.993   1.375  1.2106  0.3376 -3.5237
47228SOL     OW48733   1.905   2.499   1.932 -0.1958 -0.5886 -0.2598
47228SOL    HW148734   1.955   2.439   1.876  0.8963  0.0772 -0.0241
47228SOL    HW248735   1.814   2.486   1.905  0.1093 -1.6696 -0.8534
47229SOL     OW48736   3.342   9.567   2.404 -0.6029 -0.5895 -0.3589
47229SOL    HW148737   3.418   9.621   2.422 -1.2199  0.8311 -1.7739
47229SOL    HW248738   3.283   9.583   2.478  0.2545 -1.3904  0.5356
47230SOL     OW48739   5.297   6.700   6.792  0.0198  0.1045 -0.1204
47230SOL    HW148740   5.381   6.745   6.785 -0.4005  1.0254  0.5557
47230SOL    HW248741   5.238   6.766   6.829 -1.6064  0.2427 -2.7769
47231SOL     OW48742   6.753   0.231   1.523 -0.2857 -0.3071  0.6887
47231SOL    HW148743   6.785   0.277   1.600  1.2102  2.0823 -1.2139
47231SOL    HW248744   6.759   0.139   1.546 -0.9534  0.2890  3.7684
47232SOL     OW48745   1.747   3.123   3.773 -0.3979  0.4167  0.0394
47232SOL    HW148746   1.768   3.030   3.777  2.4542  0.9989  0.3575
47232SOL    HW248747   1.680   3.136   3.840 -1.5392 -1.5180 -0.6476
47233SOL     OW48748  11.917  11.708   6.831 -0.0911 -0.2239 -0.4493
47233SOL    HW148749  12.006  11.741   6.822  0.0164 -0.7471 -1.4761
47233SOL    HW248750  11.871  11.775   6.881  0.3288  1.0921 -1.7674
47234SOL     OW48751   7.130   7.455   6.118  0.4478  0.3620  0.5348
47234SOL    HW148752   7.071   7.507   6.172  0.5577 -0.4363  1.4607
47234SOL    HW248753   7.125   7.495   6.031  1.8695  3.0678  1.5468
47235SOL     OW48754  11.488   2.487   5.423 -0.0394  0.2051 -0.1243
47235SOL    HW148755  11.433   2.558   5.389 -2.2619 -0.9498  0.8602
47235SOL    HW248756  11.478   2.492   5.518  3.2115  1.1445  0.2974
47236SOL     OW48757   9.231   0.634   8.235  0.4627 -0.0430  0.0500
47236SOL    HW148758   9.242   0.634   8.140 -1.2694 -0.6877 -0.1663
47236SOL    HW248759   9.161   0.697   8.251  0.7789  0.0976  0.9194
47237SOL     OW48760  11.198  11.150   0.707  0.6053 -0.2643  0.0846
47237SOL    HW148761  11.137  11.086   0.670  1.9776 -1.7333  0.2906
47237SOL    HW248762  11.226  11.202   0.631 -1.0175  0.5872  0.0177
47238SOL     OW48763   8.428  10.531   2.768 -0.5304 -0.9036 -0.1964
47238SOL    HW148764   8.487  10.558   2.839 -0.0273 -0.8537 -0.6263
47238SOL    HW248765   8.376  10.608   2.749  1.3006  0.0133 -1.8192
47239SOL     OW48766   8.766  12.328   4.343  0.1862  0.3227  0.6723
47239SOL    HW148767   8.860  12.330   4.322  0.5883 -1.1357  2.0676
47239SOL    HW248768   8.748  12.237   4.363 -1.3246  0.7381  1.3631
47240SOL     OW48769   2.278   0.064   0.713  0.4903 -0.7469  0.4092
47240SOL    HW148770   2.287   0.139   0.654 -0.9214 -0.1205  0.9595
47240SOL    HW248771   2.338  -0.002   0.677 -0.7583 -0.6265 -2.0818
47241SOL     OW48772   4.779  10.366   7.686  0.7361 -0.1540 -0.4190
47241SOL    HW148773   4.720  10.353   7.611 -0.2349 -0.9794  0.4454
47241SOL    HW248774   4.859  10.319   7.663  0.5995 -0.0606 -1.1014
47242SOL     OW48775   1.153  11.445   9.148  0.2703 -0.6119 -0.3935
47242SOL    HW148776   1.242  11.459   9.115  0.4785 -0.4537  0.2198
47242SOL    HW248777   1.148  11.499   9.227 -0.5150 -0.2775 -0.6572
47243SOL     OW48778  10.341   2.773   5.204 -0.1276  0.7268  0.1458
47243SOL    HW148779  10.320   2.802   5.293 -0.3529 -1.1736  0.7526
47243SOL    HW248780  10.426   2.730   5.212 -0.3084  0.2380 -0.5006
47244SOL     OW48781   7.594  12.226   5.536 -0.0519  0.3372 -0.1270
47244SOL    HW148782   7.668  12.232   5.597  1.2093  1.2204 -1.6574
47244SOL    HW248783   7.520  12.263   5.585  0.3277 -1.0699  1.6392
47245SOL     OW48784   2.150   5.474  12.138 -0.1146  0.0700 -0.0678
47245SOL    HW148785   2.119   5.558  12.173 -0.7332  0.7163 -2.0265
47245SOL    HW248786   2.238   5.464  12.175 -0.4884  0.9859  1.1404
47246SOL     OW48787   1.448  11.858   8.793 -0.6114  0.0358  0.2789
47246SOL    HW148788   1.376  11.921   8.792  1.0160  2.0096 -1.1152
47246SOL    HW248789   1.459  11.833   8.701  1.6660  1.3317  0.1051
47247SOL     OW48790   6.896  10.190   0.399 -0.1109  0.3131 -0.2854
47247SOL    HW148791   6.833  10.256   0.371  0.3704  1.4497  1.1820
47247SOL    HW248792   6.973  10.205   0.345  0.0074  1.0084  0.0593
47248SOL     OW48793  11.172   4.856   9.184  0.1599 -0.2135 -0.0624
47248SOL    HW148794  11.242   4.913   9.151  1.0203 -1.1906  0.0337
47248SOL    HW248795  11.131   4.907   9.253  0.5058  0.5443 -0.4051
47249SOL     OW48796   0.394   7.453   0.749 -0.0441  0.6697 -0.0737
47249SOL    HW148797   0.363   7.378   0.800 -1.7922  0.6229 -1.1192
47249SOL    HW248798   0.482   7.428   0.721  0.4288  0.1351  1.7601
47250SOL     OW48799   4.740  11.424  11.802 -0.2484  0.2528 -0.1734
47250SOL    HW148800   4.792  11.474  11.864 -0.3785  1.2302 -0.8243
47250SOL    HW248801   4.757  11.332  11.824  1.6205  0.5459 -0.2727
47251SOL     OW48802   2.238   5.491   8.297 -0.3076 -0.2807  0.4191
47251SOL    HW148803   2.309   5.538   8.254 -0.3971 -1.2128 -0.8139
47251SOL    HW248804   2.168   5.555   8.306  0.1331  0.2304  0.2133
47252SOL     OW48805   2.108   9.489  11.097 -0.2295  0.0501 -0.1689
47252SOL    HW148806   2.178   9.485  11.162 -0.7359  0.9872  0.4768
47252SOL    HW248807   2.151   9.518  11.017  0.2826 -0.3650 -0.0500
47253SOL     OW48808  11.327   0.424   9.986 -0.1135  0.2197  0.0530
47253SOL    HW148809  11.421   0.406   9.990 -0.1386  0.1310  0.2818
47253SOL    HW248810  11.321   0.510   9.945  0.0267 -0.1325 -0.7347
47254SOL     OW48811   4.483  12.514   2.256 -0.0677  0.0782  0.9890
47254SOL    HW148812   4.521  12.448   2.199  2.7877  0.5675  2.1626
47254SOL    HW248813   4.522  12.498   2.342 -1.6905  1.3842  2.0493
47255SOL     OW48814   6.257   2.490   1.367  0.1518 -0.2362  0.3418
47255SOL    HW148815   6.335   2.442   1.338 -0.7068 -1.0390 -0.6900
47255SOL    HW248816   6.214   2.518   1.287 -0.8058 -0.0811  0.8919
47256SOL     OW48817   1.289   7.167   8.444  0.5507  0.0045  0.2516
47256SOL    HW148818   1.259   7.227   8.512  0.1488 -1.5347  1.5057
47256SOL    HW248819   1.318   7.224   8.372 -1.5258  1.6719  0.6096
47257SOL     OW48820  10.850   2.894   1.051  0.2069  0.2437  0.0268
47257SOL    HW148821  10.927   2.950   1.064  0.5581 -0.4546  1.1022
47257SOL    HW248822  10.776   2.954   1.055  0.6835  0.9955 -1.4721
47258SOL     OW48823  11.868   0.916   2.734  0.3842 -0.1575 -0.0037
47258SOL    HW148824  11.810   0.979   2.691  1.7398 -0.7532 -2.9585
47258SOL    HW248825  11.811   0.843   2.757 -0.6557  0.8180  0.6649
47259SOL     OW48826   2.237   1.457  10.366 -0.0483  0.3571  0.4080
47259SOL    HW148827   2.141   1.448  10.366 -0.0419  0.1829 -0.3921
47259SOL    HW248828   2.260   1.470  10.458 -0.8076  0.0238  0.6564
47260SOL     OW48829   6.849  12.384   6.625 -0.0652  0.2771  0.2981
47260SOL    HW148830   6.818  12.311   6.572  1.1190 -0.4776  0.6010
47260SOL    HW248831   6.904  12.435   6.565  2.1444 -1.1567  0.9893
47261SOL     OW48832   2.516   9.301   7.839  0.1087 -0.5214  0.3188
47261SOL    HW148833   2.517   9.276   7.747  0.1960  1.9190 -0.4095
47261SOL    HW248834   2.478   9.389   7.840  2.0870  0.4089  2.3525
47262SOL     OW48835   6.808   2.812  11.512  0.3325 -1.0019 -0.2655
47262SOL    HW148836   6.868   2.886  11.507 -1.6982  0.8728  1.1467
47262SOL    HW248837   6.831   2.769  11.594 -0.1448 -0.3374  0.2314
47263SOL     OW48838   8.027  10.633   3.656  0.3622 -0.1880 -0.3637
47263SOL    HW148839   8.025  10.646   3.561 -0.1100  2.7787 -0.0535
47263SOL    HW248840   7.938  10.653   3.685  0.8424  0.3346  0.8052
47264SOL     OW48841   1.061   6.966   0.598 -0.2635 -0.3326 -0.2021
47264SOL    HW148842   1.156   6.961   0.607 -0.2972 -0.2195  0.2513
47264SOL    HW248843   1.046   6.968   0.504  0.2201  0.2625 -0.2734
47265SOL     OW48844   6.914   5.952   2.129  1.0264  0.1022 -0.2646
47265SOL    HW148845   6.915   5.883   2.063 -0.5150 -1.4266  1.2229
47265SOL    HW248846   6.837   6.004   2.109  1.5285  0.7158 -0.6675
47266SOL     OW48847  10.209  12.490   4.838 -0.3292  0.1749 -0.3531
47266SOL    HW148848  10.137  12.540   4.875 -0.2457 -0.2517  0.4161
47266SOL    HW248849  10.288  12.527   4.879 -0.3212 -1.0795  0.8791
47267SOL     OW48850  11.136   5.302  10.449  0.2194 -0.4729 -0.2173
47267SOL    HW148851  11.212   5.348  10.416  0.9406 -0.8321  0.9012
47267SOL    HW248852  11.169   5.249  10.522 -1.2823  0.2335  1.0375
47268SOL     OW48853   2.978   8.446  12.531 -0.0818  0.1913 -0.0265
47268SOL    HW148854   3.043   8.409  12.471 -0.2592 -0.6050  0.2646
47268SOL    HW248855   2.909   8.380  12.536 -1.2771  1.3155 -0.8689
47269SOL     OW48856   2.147   4.866   3.757  0.4908 -1.1483 -0.7075
47269SOL    HW148857   2.108   4.779   3.765  0.3462 -0.9999  0.3447
47269SOL    HW248858   2.077   4.926   3.783  1.8528 -0.9638  2.9990
47270SOL     OW48859   1.049   4.916  11.003 -0.6167  0.4473 -0.3193
47270SOL    HW148860   0.974   4.958  10.959 -0.2330  1.8641  0.3223
47270SOL    HW248861   1.022   4.908  11.094 -0.4260 -0.1327 -0.3072
47271SOL     OW48862   7.663   7.502   1.705  0.1171 -0.7403 -0.2111
47271SOL    HW148863   7.691   7.593   1.711  0.2784 -0.4194 -3.7356
47271SOL    HW248864   7.708   7.458   1.777  1.8043  1.5517  0.2389
47272SOL     OW48865   4.907   3.669   1.589  0.2501 -0.0593  0.0332
47272SOL    HW148866   4.940   3.583   1.564  0.3056  0.1523 -0.6187
47272SOL    HW248867   4.827   3.649   1.639 -0.2329 -0.4624 -0.8738
47273SOL     OW48868   8.713   7.502   6.025 -0.1254  0.2804 -0.0102
47273SOL    HW148869   8.655   7.520   5.951  0.8144 -0.9846 -1.1281
47273SOL    HW248870   8.776   7.574   6.024  1.5780 -1.0736 -2.3017
47274SOL     OW48871   9.655   9.982   1.799 -0.0716 -0.2232 -0.6596
47274SOL    HW148872   9.560   9.989   1.790 -0.2570 -1.0750  0.3794
47274SOL    HW248873   9.690  10.036   1.729 -1.3253 -1.2741 -2.1637
47275SOL     OW48874   3.675   9.107   1.153 -0.2265 -0.3171 -0.3013
47275SOL    HW148875   3.586   9.103   1.187  0.3029 -0.8882  1.1045
47275SOL    HW248876   3.728   9.130   1.229  1.0068 -1.4880 -0.7713
47276SOL     OW48877   1.393   7.018   6.728  0.6612 -0.0062 -0.1488
47276SOL    HW148878   1.305   7.024   6.690 -0.1360  1.7242  1.7612
47276SOL    HW248879   1.395   6.933   6.770  0.4869 -0.6912 -1.4716
47277SOL     OW48880  10.524   4.714   9.303 -0.2267 -0.4785 -0.0903
47277SOL    HW148881  10.462   4.668   9.360 -1.1777  1.5996  0.6419
47277SOL    HW248882  10.605   4.718   9.355 -0.5363 -0.1867  0.3755
47278SOL     OW48883  11.613   2.995   2.327 -0.3883 -0.3191  0.4209
47278SOL    HW148884  11.570   3.046   2.395  1.4331  2.4762 -0.3517
47278SOL    HW248885  11.696   2.968   2.366  1.0121  1.9384 -0.7507
47279SOL     OW48886  11.049   9.125   7.855  0.0848  0.0060 -0.0101
47279SOL    HW148887  11.110   9.199   7.859 -0.2806  0.3008  0.2778
47279SOL    HW248888  11.026   9.118   7.762 -0.5389  0.8108  0.0751
47280SOL     OW48889   2.212   7.220   4.732  0.5389  0.3289 -0.3206
47280SOL    HW148890   2.178   7.166   4.660  0.2431  0.0492  0.0267
47280SOL    HW248891   2.195   7.168   4.811  1.7179  0.2120 -0.1308
47281SOL     OW48892   9.029   9.017  11.351  0.7292  0.2343  0.0857
47281SOL    HW148893   9.104   9.017  11.410 -0.9819  0.7873  2.3995
47281SOL    HW248894   8.976   8.942  11.379 -0.5409  1.0028 -0.1915
47282SOL     OW48895   3.024  10.016   4.592 -0.0993 -0.0728  0.5181
47282SOL    HW148896   2.941   9.967   4.585 -0.0033 -0.4119  1.6042
47282SOL    HW248897   3.091   9.948   4.600  0.3425  0.1930 -0.7208
47283SOL     OW48898   8.957   8.567   8.137 -0.2170 -0.6808  0.6622
47283SOL    HW148899   8.921   8.655   8.127  0.0164 -0.4837  1.4093
47283SOL    HW248900   8.942   8.524   8.053  2.5494  1.1367 -0.9184
47284SOL     OW48901   5.931   8.100   9.172  0.0535  0.1156  0.0397
47284SOL    HW148902   5.995   8.166   9.147 -0.0052  0.0881 -0.1940
47284SOL    HW248903   5.853   8.150   9.198 -0.5572  0.1344 -1.6868
47285SOL     OW48904   9.006   6.442  10.980 -0.3331  0.4386  0.3741
47285SOL    HW148905   9.079   6.400  11.024 -1.5964  0.5497  2.7735
47285SOL    HW248906   8.946   6.370  10.959  0.4576  0.3280 -1.7051
47286SOL     OW48907   4.270   6.912  12.395  0.1359 -0.1455 -0.4848
47286SOL    HW148908   4.310   6.968  12.328  0.2866 -0.2113 -0.4498
47286SOL    HW248909   4.318   6.933  12.475  0.4573 -0.6080 -0.5498
47287SOL     OW48910   4.450   7.207   0.566  0.0927 -0.0780  0.4118
47287SOL    HW148911   4.372   7.183   0.516 -0.3934  0.1614  1.0431
47287SOL    HW248912   4.420   7.209   0.657  0.4900  1.3842  0.5337
47288SOL     OW48913   7.149   7.433  10.932 -0.1951 -0.1256 -0.2448
47288SOL    HW148914   7.105   7.517  10.920 -4.3840 -2.0640 -0.2066
47288SOL    HW248915   7.160   7.399  10.843  0.4214 -0.0401 -0.2024
47289SOL     OW48916   6.486  10.908   1.263 -0.1610 -0.0375  0.6759
47289SOL    HW148917   6.566  10.952   1.289 -0.2072 -0.1384  1.0002
47289SOL    HW248918   6.465  10.852   1.337 -1.3701  1.1283  1.2585
47290SOL     OW48919   4.570   7.705  10.658 -0.2161  0.4410 -1.1403
47290SOL    HW148920   4.534   7.655  10.585  0.5771  1.2415 -2.1121
47290SOL    HW248921   4.578   7.794  10.624 -1.0852  1.1288  0.3785
47291SOL     OW48922   9.709   4.695   4.438 -0.0610  0.1503  0.0042
47291SOL    HW148923   9.735   4.735   4.355  1.4406  1.1025  0.8915
47291SOL    HW248924   9.745   4.606   4.434 -0.2285  0.1005 -0.4648
47292SOL     OW48925  11.731   1.193   3.638 -0.0271 -0.3233 -0.0278
47292SOL    HW148926  11.686   1.272   3.667 -0.2985 -1.0117  1.4904
47292SOL    HW248927  11.698   1.178   3.549 -1.0841  0.4289  0.2176
47293SOL     OW48928   7.132   1.722   7.308  0.0251 -0.6844 -0.1389
47293SOL    HW148929   7.146   1.779   7.384 -1.1271  0.0548 -0.4727
47293SOL    HW248930   7.118   1.635   7.346  1.4284 -0.7112  0.3877
47294SOL     OW48931  10.664   1.679   1.087  0.2780 -0.1782 -0.1287
47294SOL    HW148932  10.632   1.740   1.021  0.6657 -0.7837 -0.9039
47294SOL    HW248933  10.711   1.612   1.036  0.5932 -0.6511  0.7658
47295SOL     OW48934   4.960   0.309  11.387 -0.1770  0.4743 -0.3236
47295SOL    HW148935   5.028   0.242  11.388 -0.2334  0.3350 -2.2926
47295SOL    HW248936   4.883   0.267  11.426 -0.0635 -0.4719 -1.0838
47296SOL     OW48937   3.327   7.957   8.410 -0.0809 -0.9578  0.4809
47296SOL    HW148938   3.258   7.993   8.353  1.8867 -0.1357 -1.5738
47296SOL    HW248939   3.319   7.863   8.401 -1.1030 -0.8744  0.4701
47297SOL     OW48940   7.178  10.244   9.941 -0.2781  0.1564 -0.2362
47297SOL    HW148941   7.156  10.313  10.004 -1.7019  0.6764 -1.2343
47297SOL    HW248942   7.148  10.279   9.857  0.7323 -0.8986 -1.0646
47298SOL     OW48943   7.692   6.120   5.587  0.4643  0.3925 -0.0551
47298SOL    HW148944   7.613   6.171   5.570  1.5606  2.0477 -0.5698
47298SOL    HW248945   7.693   6.053   5.518 -1.1030 -0.4834  0.7362
47299SOL     OW48946   3.873   1.199   6.185 -0.3846  0.2286 -0.1770
47299SOL    HW148947   3.784   1.179   6.157  0.1112 -1.3664 -0.7419
47299SOL    HW248948   3.874   1.180   6.278 -0.9103  1.3641  0.0802
47300SOL     OW48949   3.105   8.158   6.717 -0.4102  0.2966  0.2732
47300SOL    HW148950   3.192   8.128   6.742 -0.2703  0.7932  0.3985
47300SOL    HW248951   3.078   8.100   6.646  0.5651  0.9427 -0.6543
47301SOL     OW48952   9.416   2.918   7.108  0.2791 -0.5319  0.0270
47301SOL    HW148953   9.367   2.843   7.073 -0.5745  0.3143 -0.6448
47301SOL    HW248954   9.464   2.953   7.033 -0.6489  0.5855 -0.0855
47302SOL     OW48955   9.633   4.926   1.909 -0.1228 -0.1657 -0.1704
47302SOL    HW148956   9.693   4.921   1.834  1.9152 -0.4193  1.3860
47302SOL    HW248957   9.654   5.010   1.950 -1.2201 -0.0292  0.1505
47303SOL     OW48958  10.322   8.847   8.618 -0.0583  0.0795 -0.1974
47303SOL    HW148959  10.293   8.929   8.659  0.3990  1.2184 -2.0314
47303SOL    HW248960  10.241   8.806   8.587 -0.1813  0.6039 -0.5929
47304SOL     OW48961  10.620   9.695   1.940  0.0590  0.2138  0.1066
47304SOL    HW148962  10.533   9.684   1.979  0.2332 -0.4823  0.3281
47304SOL    HW248963  10.672   9.737   2.009 -0.5376  2.2650 -0.6405
47305SOL     OW48964   7.653   6.058   4.842  0.1431  0.2745  0.8476
47305SOL    HW148965   7.642   6.087   4.751  0.3394  0.8998  1.0147
47305SOL    HW248966   7.685   6.136   4.888 -0.6909  0.1931  1.6083
47306SOL     OW48967   6.685  10.678  11.836 -0.0183 -0.3433 -0.1781
47306SOL    HW148968   6.770  10.692  11.878 -0.0604 -0.1698 -0.1511
47306SOL    HW248969   6.646  10.606  11.885  0.1639 -0.5035 -0.2668
47307SOL     OW48970   4.011   9.792   1.505 -0.9290 -0.0731 -0.1324
47307SOL    HW148971   4.035   9.750   1.588  1.2964  0.6434 -0.3256
47307SOL    HW248972   3.947   9.859   1.530  0.6614  1.0114  1.2702
47308SOL     OW48973   8.121   0.574   5.724  0.2295 -0.1876  0.1767
47308SOL    HW148974   8.152   0.630   5.796  0.7101 -0.5650  0.2614
47308SOL    HW248975   8.091   0.494   5.768  0.4144 -0.3717 -0.0353
47309SOL     OW48976   9.861   5.809   1.091 -0.3712 -0.0811  0.3500
47309SOL    HW148977   9.779   5.860   1.093  0.6126  1.7904 -1.9371
47309SOL    HW248978   9.907   5.835   1.171 -1.3472 -0.0172  0.9138
47310SOL     OW48979   3.346   3.297   5.298  0.0162  0.2417  0.0343
47310SOL    HW148980   3.391   3.378   5.321 -0.5409  0.4882  0.2889
47310SOL    HW248981   3.253   3.321   5.300 -0.0945  0.0196 -1.4902
47311SOL     OW48982   8.453   8.980   5.562 -0.2233 -0.1447  0.0869
47311SOL    HW148983   8.370   8.954   5.521 -0.9138  0.4713  1.0483
47311SOL    HW248984   8.434   8.981   5.656  1.2943 -1.4136  0.4430
47312SOL     OW48985   6.929   7.378   6.929  0.1296  0.4488  0.3007
47312SOL    HW148986   6.913   7.469   6.956  0.2517  0.0133  1.9555
47312SOL    HW248987   6.932   7.329   7.011  0.2294 -1.0385 -0.5544
47313SOL     OW48988   5.095  10.766   1.291 -0.5967 -0.9359 -0.5920
47313SOL    HW148989   5.022  10.736   1.237  0.8513 -1.8632 -2.1267
47313SOL    HW248990   5.136  10.686   1.322 -0.8685 -0.4145  1.2124
47314SOL     OW48991  11.721   3.173  11.743  0.0169 -0.4371 -0.4194
47314SOL    HW148992  11.692   3.147  11.831  0.5301  2.8398  0.8838
47314SOL    HW248993  11.678   3.112  11.684 -1.6756 -1.7547  2.0057
47315SOL     OW48994  10.582   7.663   8.396  0.2221  0.0154  0.3080
47315SOL    HW148995  10.575   7.570   8.413  0.0987  0.0234  0.3009
47315SOL    HW248996  10.676   7.682   8.405  0.0403  0.2270  2.0476
47316SOL     OW48997   1.778   6.107   8.639  0.2574 -0.1291 -0.1669
47316SOL    HW148998   1.725   6.032   8.612  0.7211  0.0579 -1.7124
47316SOL    HW248999   1.754   6.176   8.578  1.1021  0.4505  0.1405
47317SOL     OW49000   5.875   1.827   3.594  0.2032 -0.2061  0.1320
47317SOL    HW149001   5.816   1.839   3.521  0.5621 -1.0121 -0.3007
47317SOL    HW249002   5.848   1.893   3.658 -1.0213 -0.4334 -0.1342
47318SOL     OW49003   0.734   9.205   3.754 -0.1591 -0.5464 -0.5935
47318SOL    HW149004   0.711   9.252   3.674  2.3018 -0.0646 -1.0979
47318SOL    HW249005   0.748   9.115   3.726 -1.0883 -0.7731 -0.3470
47319SOL     OW49006   9.620   2.315   5.905 -0.5856  0.3935  0.1607
47319SOL    HW149007   9.684   2.286   5.970  0.1243  1.4861 -0.0239
47319SOL    HW249008   9.671   2.367   5.843 -1.3092 -0.3349 -1.0931
47320SOL     OW49009  10.585  11.432   7.630 -0.6153 -0.1245 -0.2979
47320SOL    HW149010  10.582  11.461   7.539 -1.4112  0.6664 -0.0364
47320SOL    HW249011  10.666  11.471   7.664 -1.8087  2.1551  0.1278
47321SOL     OW49012   6.161   6.117   2.455  0.1351 -0.2026 -0.0630
47321SOL    HW149013   6.128   6.030   2.478  3.0220 -0.7538  2.7899
47321SOL    HW249014   6.132   6.174   2.526  0.7618  0.4710 -0.3318
47322SOL     OW49015  11.434   4.144  10.422  0.1851 -0.1622  0.0570
47322SOL    HW149016  11.490   4.076  10.385 -0.5218 -1.0073  0.5099
47322SOL    HW249017  11.492   4.195  10.479  0.8714  0.0465 -0.8237
47323SOL     OW49018   1.442   5.285   5.833 -0.1751  0.3719  0.2583
47323SOL    HW149019   1.448   5.220   5.903 -0.0070  0.8849  0.7321
47323SOL    HW249020   1.353   5.318   5.839  0.2283  1.3483  1.0926
47324SOL     OW49021   7.219  10.970  10.014  0.3883  0.6283  0.1018
47324SOL    HW149022   7.188  11.038   9.954  1.0910  0.7368 -0.1424
47324SOL    HW249023   7.289  10.925   9.966  0.1039 -0.1070  0.3604
47325SOL     OW49024   2.946  11.137  11.438 -0.3678  0.1797 -0.0115
47325SOL    HW149025   2.940  11.078  11.363  1.4288 -1.6483  1.1995
47325SOL    HW249026   2.869  11.117  11.491 -1.0234  0.6596 -0.7482
47326SOL     OW49027   1.024  11.820   2.039  0.6372  0.0617 -0.6574
47326SOL    HW149028   0.974  11.901   2.039 -0.7463 -0.7567  0.3430
47326SOL    HW249029   1.003  11.778   2.122  2.0416 -0.8971 -0.7542
47327SOL     OW49030   9.346   1.465   0.261 -0.2015  0.0137 -0.5263
47327SOL    HW149031   9.289   1.388   0.262 -2.2972  1.4951  0.6943
47327SOL    HW249032   9.329   1.506   0.176 -0.9216  0.4130 -0.1945
47328SOL     OW49033   1.943  11.858   5.803  0.5039  0.0911  0.2788
47328SOL    HW149034   2.029  11.854   5.762  0.2019  0.1969 -0.3806
47328SOL    HW249035   1.903  11.937   5.765 -0.1789 -0.3907 -0.0097
47329SOL     OW49036   3.088   1.620  11.179 -0.1859 -0.0577  0.0316
47329SOL    HW149037   3.101   1.559  11.251  0.7309 -0.7190 -0.6727
47329SOL    HW249038   2.999   1.603  11.148 -0.9538  0.8871  1.5745
47330SOL     OW49039   3.274   2.500  10.189 -0.1046 -0.6071 -0.5271
47330SOL    HW149040   3.332   2.558  10.139  1.5263 -1.1969  0.5783
47330SOL    HW249041   3.328   2.471  10.263 -2.3018 -0.0256  1.4294
47331SOL     OW49042   2.211   7.440   3.487 -0.1927 -0.9391 -0.2421
47331SOL    HW149043   2.229   7.533   3.504 -0.9569 -0.7374 -0.4536
47331SOL    HW249044   2.274   7.393   3.541 -0.9722 -0.3088  1.3029
47332SOL     OW49045   4.023   6.100   7.192  0.7617 -0.2236  0.4479
47332SOL    HW149046   4.019   6.150   7.273  1.3525  1.9336 -0.7843
47332SOL    HW249047   3.938   6.113   7.151  0.8376 -0.4209  0.2265
47333SOL     OW49048   9.492  12.001  10.837 -0.1909 -0.0955 -0.2293
47333SOL    HW149049   9.504  11.933  10.903  1.5840  0.6964  0.3599
47333SOL    HW249050   9.581  12.036  10.823 -0.7741  0.8595 -1.8411
47334SOL     OW49051   7.197   8.082  11.868 -0.1958 -0.1434 -0.3647
47334SOL    HW149052   7.193   8.156  11.927  1.2717 -0.4122  0.1129
47334SOL    HW249053   7.158   8.114  11.786 -0.0820  0.9635  0.0034
47335SOL     OW49054   2.715   3.764   5.778  0.5484  0.4022  0.0307
47335SOL    HW149055   2.683   3.675   5.791 -0.1442  0.8433  1.4702
47335SOL    HW249056   2.802   3.765   5.819 -0.7942  1.2340  3.0977
47336SOL     OW49057   6.667   4.299  11.513 -0.1240 -0.1722 -0.4057
47336SOL    HW149058   6.640   4.237  11.446  0.1306 -1.9018  1.0033
47336SOL    HW249059   6.763   4.304  11.504 -0.3239  2.0913 -2.1694
47337SOL     OW49060   0.616  11.601   3.521  0.1418 -0.2332  0.0709
47337SOL    HW149061   0.625  11.514   3.559  0.6231  0.0852  0.7172
47337SOL    HW249062   0.536  11.636   3.562  0.4970 -0.0020  0.5756
47338SOL     OW49063   8.076   7.018   2.725  0.2768  0.3001  0.1008
47338SOL    HW149064   7.985   6.993   2.744 -0.3163  1.9889 -0.3052
47338SOL    HW249065   8.090   7.098   2.774  1.7827 -0.2631  0.6380
47339SOL     OW49066   9.507   6.746   2.997  0.5832  0.2387  0.3527
47339SOL    HW149067   9.497   6.787   3.083  1.9229 -1.3211  1.3180
47339SOL    HW249068   9.599   6.757   2.975  0.7320 -1.1826  0.1297
47340SOL     OW49069   9.298   9.419   6.611  0.1048  0.0711 -0.1452
47340SOL    HW149070   9.229   9.436   6.675 -0.7239 -1.4491 -0.5833
47340SOL    HW249071   9.350   9.348   6.649 -1.1771 -1.7832 -1.6274
47341SOL     OW49072   0.368   1.595   0.483  0.1784 -0.1908 -0.3968
47341SOL    HW149073   0.286   1.557   0.451 -0.7413 -0.3755  2.0173
47341SOL    HW249074   0.434   1.528   0.466 -0.6521 -1.1162 -0.0615
47342SOL     OW49075  10.894   7.387   8.251 -0.0477  0.4021 -0.4332
47342SOL    HW149076  10.968   7.447   8.252  0.1330  0.2029 -1.2150
47342SOL    HW249077  10.825   7.435   8.205 -0.5197  0.7085  0.5677
47343SOL     OW49078  10.668   5.583   0.034 -0.0333 -0.2933  0.5491
47343SOL    HW149079  10.614   5.529   0.093 -1.1122 -0.7997 -0.8629
47343SOL    HW249080  10.618   5.663   0.022 -0.1261 -0.4651 -0.2097
47344SOL     OW49081   8.169   0.183   5.398 -0.5390  0.6366  0.1775
47344SOL    HW149082   8.077   0.174   5.424  0.0125 -0.0873  2.0616
47344SOL    HW249083   8.190   0.275   5.418 -0.6575  0.5981  0.4898
47345SOL     OW49084   1.992   2.961   9.704 -0.0339 -0.1459 -0.7141
47345SOL    HW149085   1.903   2.940   9.735  0.0927 -2.1000 -1.5191
47345SOL    HW249086   1.994   2.929   9.614  0.9330  1.5787 -1.3356
47346SOL     OW49087  10.479   8.686   8.238 -0.4463  0.3063  0.2595
47346SOL    HW149088  10.444   8.758   8.291 -0.7060 -0.7818  1.6372
47346SOL    HW249089  10.572   8.686   8.257 -0.6404 -0.5307  1.3504
47347SOL     OW49090   3.861   3.050   0.279 -0.0533 -0.6563 -0.3559
47347SOL    HW149091   3.805   3.050   0.357  1.0831 -0.2876  0.4812
47347SOL    HW249092   3.872   2.958   0.257 -0.5313 -0.7521 -0.2091
47348SOL     OW49093  12.588   3.198   0.537  0.1174 -0.6822  0.1650
47348SOL    HW149094  12.614   3.284   0.503  0.1775 -1.5856 -2.2670
47348SOL    HW249095  12.635   3.190   0.620  0.1564  1.5913  0.4308
47349SOL     OW49096   9.466   7.874  10.652 -0.4722  0.3251 -0.0586
47349SOL    HW149097   9.517   7.954  10.635  2.4588 -1.4082 -0.0981
47349SOL    HW249098   9.478   7.821  10.573 -0.0010 -1.2753  1.0520
47350SOL     OW49099   3.945  11.105  12.078  0.5851  0.4057 -0.5220
47350SOL    HW149100   3.931  11.142  12.166  1.7720  1.4868 -0.7545
47350SOL    HW249101   3.973  11.015  12.094 -0.8430  0.0442  0.1233
47351SOL     OW49102   7.773   4.376   1.536 -0.3373  0.0533  0.4382
47351SOL    HW149103   7.752   4.441   1.469 -0.3463  0.5426  0.9108
47351SOL    HW249104   7.857   4.405   1.572  1.2660 -1.8978 -1.4494
47352SOL     OW49105   2.545   1.904   2.542  0.2062  0.7464 -0.0793
47352SOL    HW149106   2.516   1.847   2.613  1.7880  0.2905  0.2430
47352SOL    HW249107   2.534   1.993   2.576  0.5905  0.5396  0.5948
47353SOL     OW49108  11.818   4.274   0.560  0.0529 -0.5780  0.5212
47353SOL    HW149109  11.863   4.228   0.631  0.8311 -1.5542 -0.5537
47353SOL    HW249110  11.863   4.245   0.481 -0.3162  1.0406 -0.3231
47354SOL     OW49111   6.403   4.149   6.034 -0.2490 -0.2493 -0.3979
47354SOL    HW149112   6.456   4.180   5.962  1.2979  0.3460  0.9338
47354SOL    HW249113   6.464   4.104   6.092 -1.2717  0.0231  0.9543
47355SOL     OW49114   1.615   9.950   6.525 -0.0396  0.2791 -0.1682
47355SOL    HW149115   1.575   9.887   6.584 -0.4683  0.7147  0.0049
47355SOL    HW249116   1.585   9.923   6.438 -0.6204  0.5410 -0.0498
47356SOL     OW49117   2.008   9.970   7.321 -0.4792  0.0147  0.0580
47356SOL    HW149118   2.017  10.031   7.394  0.0489  1.0652 -0.8455
47356SOL    HW249119   1.957  10.018   7.256 -1.3179 -1.0654 -0.1002
47357SOL     OW49120   5.068   0.066   9.983  0.7860 -0.6676 -0.1410
47357SOL    HW149121   5.000   0.114   9.936  0.0839 -1.2274  0.2902
47357SOL    HW249122   5.069  -0.021   9.943  2.6103 -0.0895 -1.4699
47358SOL     OW49123   6.825   6.866  10.139  0.2020  0.5105 -0.1332
47358SOL    HW149124   6.811   6.889  10.230 -2.4363  1.3635 -0.6761
47358SOL    HW249125   6.912   6.901  10.119  1.2358 -0.4915  2.2260
47359SOL     OW49126   8.835   2.088  11.688 -0.2561  0.0978 -0.2955
47359SOL    HW149127   8.903   2.113  11.625 -0.1442 -1.5263 -0.8840
47359SOL    HW249128   8.842   2.153  11.758  1.9087  0.0200 -0.3541
47360SOL     OW49129  10.945  11.205   0.467  0.5645 -0.5923  0.0986
47360SOL    HW149130  10.937  11.123   0.418 -1.0314 -0.2460 -0.2951
47360SOL    HW249131  10.927  11.181   0.558 -1.4796 -0.4857 -0.2265
47361SOL     OW49132   8.927   8.900   4.945  0.0805 -0.3152 -1.0034
47361SOL    HW149133   8.872   8.978   4.949  1.9201  1.1256 -2.1677
47361SOL    HW249134   8.878   8.839   4.890 -1.1967  0.1452 -0.4208
47362SOL     OW49135   2.201  12.324   0.792 -0.0477  0.0703 -0.5214
47362SOL    HW149136   2.161  12.302   0.708 -0.9418  0.9716 -0.3580
47362SOL    HW249137   2.294  12.307   0.779 -0.2168 -0.1472 -1.5782
47363SOL     OW49138   7.104   0.475   4.355 -0.5169 -0.5541 -0.4243
47363SOL    HW149139   7.164   0.549   4.352 -1.4584  0.2283 -0.2461
47363SOL    HW249140   7.118   0.430   4.271 -0.5052  0.2917 -0.8930
47364SOL     OW49141   1.692   7.719   8.304  0.0090 -0.1890  0.1886
47364SOL    HW149142   1.651   7.645   8.349  0.3894 -0.3882  0.2070
47364SOL    HW249143   1.620   7.760   8.256  0.0030 -1.2358 -0.7386
47365SOL     OW49144   0.678   5.313   7.531  0.0906  0.1241 -0.1014
47365SOL    HW149145   0.736   5.247   7.569  0.3021 -0.2890 -1.1140
47365SOL    HW249146   0.592   5.269   7.528  0.5220 -0.6796 -2.1230
47366SOL     OW49147   5.549   6.625   3.616 -0.1257  0.0479 -0.6670
47366SOL    HW149148   5.623   6.665   3.569 -0.1880  0.2178 -0.6220
47366SOL    HW249149   5.485   6.605   3.549 -0.2396  0.3459 -0.6476
47367SOL     OW49150   1.565   0.797   1.107 -0.1197 -0.5196  0.6538
47367SOL    HW149151   1.616   0.757   1.036  0.1187  1.1218 -0.1549
47367SOL    HW249152   1.623   0.795   1.183  0.1724 -0.9663  0.4242
47368SOL     OW49153   9.443   1.011   3.962 -0.4899  0.1646  0.2829
47368SOL    HW149154   9.504   1.084   3.970  1.0540 -1.1914  1.4105
47368SOL    HW249155   9.450   0.984   3.870  0.0762  0.4596  0.2335
47369SOL     OW49156   9.787   2.296   9.647 -0.0541 -0.1447 -0.0292
47369SOL    HW149157   9.774   2.256   9.733  0.8096  0.1318  0.2372
47369SOL    HW249158   9.706   2.277   9.600 -0.6394 -0.0983  0.9207
47370SOL     OW49159  12.116   0.422   2.586  0.0427  0.0852  0.6416
47370SOL    HW149160  12.176   0.363   2.632 -0.3249 -0.3086  0.6223
47370SOL    HW249161  12.133   0.406   2.493 -0.2111 -0.1455  0.6362
47371SOL     OW49162   4.122   7.793   9.693 -0.1604  0.2207 -0.0862
47371SOL    HW149163   4.084   7.820   9.610 -1.2559 -0.8271  0.0571
47371SOL    HW249164   4.057   7.819   9.758 -0.3080 -0.9369  0.2357
47372SOL     OW49165  10.638   6.081  10.410  0.2479 -0.1093 -0.1548
47372SOL    HW149166  10.707   6.021  10.382 -0.1791 -1.9935  2.4890
47372SOL    HW249167  10.560   6.027  10.416 -0.0385  0.5020  2.8128
47373SOL     OW49168   1.894   6.313   6.186 -0.3923 -0.2847 -0.2402
47373SOL    HW149169   1.853   6.368   6.119  0.3367  0.5243 -0.0445
47373SOL    HW249170   1.907   6.372   6.260 -0.8019 -1.0677  0.4664
47374SOL     OW49171   3.829   1.919   0.117 -0.6005  0.6039  0.2857
47374SOL    HW149172   3.793   1.834   0.094 -0.3475  0.7761 -0.8306
47374SOL    HW249173   3.882   1.944   0.041 -1.0224  1.9481  0.3984
47375SOL     OW49174   8.305  12.335   4.995 -0.4462  0.2849  0.3570
47375SOL    HW149175   8.286  12.427   4.978 -0.9825 -0.2006 -2.1632
47375SOL    HW249176   8.247  12.288   4.934  0.7328 -1.6627  0.6666
47376SOL     OW49177   5.633   5.451   0.616  0.2929  0.4324 -0.1412
47376SOL    HW149178   5.559   5.392   0.628  0.5684 -0.0890 -0.9022
47376SOL    HW249179   5.661   5.473   0.705  1.2103 -1.9155  0.2297
47377SOL     OW49180   9.457   7.598   0.396  0.2023 -0.4672 -0.0403
47377SOL    HW149181   9.481   7.690   0.403  1.3896 -0.8186  1.0022
47377SOL    HW249182   9.518   7.562   0.332 -0.2180 -0.5380 -0.4006
47378SOL     OW49183   8.745   8.696   0.541  0.4957  0.1988  0.1497
47378SOL    HW149184   8.683   8.627   0.521  1.4358 -0.8202  0.6701
47378SOL    HW249185   8.741   8.754   0.465 -0.3818 -0.3511 -0.2406
47379SOL     OW49186   7.015   1.075   6.189  0.0846  0.3604  0.5462
47379SOL    HW149187   6.923   1.091   6.170  0.6188  0.9581 -1.9928
47379SOL    HW249188   7.046   1.158   6.226 -0.5720 -0.1628  2.3355
47380SOL     OW49189   1.877   7.157   9.878  0.5022  0.0038 -0.2157
47380SOL    HW149190   1.888   7.110   9.961 -1.9113  1.1278  0.8398
47380SOL    HW249191   1.797   7.120   9.840  1.6703 -0.6359 -2.2194
47381SOL     OW49192   3.520   6.343  10.962  0.6408 -0.7575  0.0523
47381SOL    HW149193   3.461   6.269  10.946 -2.3876  1.7281 -1.4689
47381SOL    HW249194   3.474   6.395  11.027  2.8824 -0.3263  1.3544
47382SOL     OW49195   9.819  11.632   5.692  0.6262 -0.6883  0.3361
47382SOL    HW149196   9.746  11.646   5.753  0.4823 -2.4449  0.6132
47382SOL    HW249197   9.892  11.679   5.732  0.4751 -1.5865  1.7798
47383SOL     OW49198   0.049   4.056   1.174  0.2308  0.0309  0.2754
47383SOL    HW149199  -0.040   4.092   1.180  0.4938  0.5302  1.9434
47383SOL    HW249200   0.104   4.133   1.157  0.5406  0.0764  1.3887
47384SOL     OW49201   0.924  12.398   9.704 -0.0915  0.4790 -0.0621
47384SOL    HW149202   0.900  12.312   9.668 -0.6639  0.2961  0.7331
47384SOL    HW249203   0.863  12.459   9.663 -0.0359  0.4346 -0.2129
47385SOL     OW49204   7.809   5.321   1.422  0.2058 -0.0905  0.2971
47385SOL    HW149205   7.889   5.339   1.473  0.4684 -1.8285  0.5760
47385SOL    HW249206   7.835   5.334   1.331  0.6065  0.0810  0.4341
47386SOL     OW49207   9.523   8.010   4.047 -0.2485  0.0980 -0.2249
47386SOL    HW149208   9.539   7.968   3.963  3.1154  0.0415  0.3413
47386SOL    HW249209   9.525   7.939   4.111  1.2864  0.5698  0.2864
47387SOL     OW49210   1.786   0.677   9.674 -0.0749 -0.3154 -0.3685
47387SOL    HW149211   1.700   0.695   9.711  0.1770  0.3036 -0.0720
47387SOL    HW249212   1.829   0.762   9.670  1.0613 -0.7897  0.8531
47388SOL     OW49213  11.316   5.526   9.181 -0.4280 -0.4005  0.0333
47388SOL    HW149214  11.279   5.443   9.214  1.3455 -0.8940  0.9016
47388SOL    HW249215  11.387   5.499   9.124  0.6265  0.5052  0.8844
47389SOL     OW49216   9.746   4.442   8.197  0.1819  0.3375 -0.1810
47389SOL    HW149217   9.745   4.435   8.292  0.1936 -0.1214 -0.2127
47389SOL    HW249218   9.809   4.376   8.168 -0.4233 -0.0831 -0.5537
47390SOL     OW49219   0.261  11.435   3.592  0.4373  0.1834 -0.0142
47390SOL    HW149220   0.212  11.516   3.580  0.9948  0.3993 -0.8576
47390SOL    HW249221   0.199  11.366   3.569 -0.3284  0.2992  1.5756
47391SOL     OW49222   8.778   2.198   0.508 -0.0662 -0.3977 -0.2823
47391SOL    HW149223   8.863   2.176   0.548  0.8512 -1.6544 -2.7154
47391SOL    HW249224   8.723   2.121   0.526  0.1473 -0.6899 -0.8459
47392SOL     OW49225  11.520   0.930  12.094 -0.3697  0.3270  0.3288
47392SOL    HW149226  11.479   0.846  12.074  1.1945 -0.0114 -1.9312
47392SOL    HW249227  11.594   0.908  12.151 -0.1540  0.1828  0.0002
47393SOL     OW49228   8.576   8.448   4.834 -0.4560 -0.1178 -0.0364
47393SOL    HW149229   8.490   8.407   4.820 -1.9400  1.7996  2.5277
47393SOL    HW249230   8.623   8.386   4.890 -1.5369  0.2375  1.3366
47394SOL     OW49231   6.558   8.910   4.458  0.2693 -0.0237  0.6478
47394SOL    HW149232   6.630   8.937   4.401 -0.1977  0.7805  0.4208
47394SOL    HW249233   6.501   8.987   4.461 -0.2532 -0.4364  1.3369
47395SOL     OW49234   6.412  12.161   3.275 -0.5599  0.2012  0.0059
47395SOL    HW149235   6.420  12.066   3.262 -1.1472  0.0948  0.3859
47395SOL    HW249236   6.414  12.172   3.370 -0.0515  0.6172 -0.0486
47396SOL     OW49237  10.195  11.802   0.780  0.2117  0.0315 -0.1294
47396SOL    HW149238  10.205  11.764   0.692 -1.1317  0.0333 -0.3136
47396SOL    HW249239  10.112  11.766   0.811  1.6677 -1.7123  2.0443
47397SOL     OW49240  12.093  11.579   7.889  0.2148 -0.0720  0.3970
47397SOL    HW149241  12.105  11.674   7.890 -1.1522  0.1426 -0.7397
47397SOL    HW249242  12.039  11.562   7.812  0.2769 -1.7592  0.6882
47398SOL     OW49243  11.173   8.009   2.785  0.1402 -0.0300 -0.5578
47398SOL    HW149244  11.185   7.914   2.785  0.8578  0.0278  0.8256
47398SOL    HW249245  11.219   8.039   2.864  0.5700  1.5462 -1.3597
47399SOL     OW49246   6.515   8.291   5.331 -0.9814 -0.5154 -0.1434
47399SOL    HW149247   6.487   8.214   5.379 -1.1362 -0.7353 -0.5839
47399SOL    HW249248   6.450   8.303   5.262 -0.7829 -0.1865 -0.2818
47400SOL     OW49249   0.363  11.851   6.566 -0.4211 -0.4354 -0.4733
47400SOL    HW149250   0.426  11.915   6.534  1.0058 -1.3567  0.3768
47400SOL    HW249251   0.409  11.767   6.561 -1.9589 -1.3041 -0.8195
47401SOL     OW49252   7.806   8.271   8.464 -0.4157 -0.2472 -0.3826
47401SOL    HW149253   7.839   8.214   8.395 -2.3772 -0.8397 -0.8998
47401SOL    HW249254   7.820   8.221   8.544 -1.7170 -1.3062 -0.7891
47402SOL     OW49255   6.013   1.841  11.408 -0.0899 -0.1700 -0.7425
47402SOL    HW149256   5.926   1.810  11.383 -1.2835  1.2854  1.2493
47402SOL    HW249257   6.074   1.785  11.361 -2.1065 -1.1778 -2.2713
47403SOL     OW49258   5.679   9.549   2.590 -0.0961  0.7409 -0.2889
47403SOL    HW149259   5.671   9.644   2.593 -0.2020  0.7276 -0.1033
47403SOL    HW249260   5.754   9.533   2.532  0.6080  0.9749  0.5311
47404SOL     OW49261   8.851  10.877   7.021  0.1658 -0.1656 -0.0722
47404SOL    HW149262   8.790  10.864   7.094  0.3556 -0.1287  0.0944
47404SOL    HW249263   8.801  10.853   6.943  0.3669 -1.4577  0.1754
47405SOL     OW49264   4.226   8.062   8.152 -0.1442  0.2600 -0.9178
47405SOL    HW149265   4.306   8.104   8.182 -0.1061  0.6730 -1.5744
47405SOL    HW249266   4.156   8.124   8.176 -0.1476  0.4248 -1.3266
47406SOL     OW49267  11.671   6.276   4.663  0.2099 -0.0099  0.1854
47406SOL    HW149268  11.600   6.268   4.599 -0.4509  2.9051  0.4435
47406SOL    HW249269  11.750   6.283   4.610 -0.2521  1.6526 -0.3206
47407SOL     OW49270   6.024   0.965   2.943  0.0274 -0.2673 -0.7308
47407SOL    HW149271   6.051   0.945   2.854 -0.1897 -1.5482 -0.5303
47407SOL    HW249272   6.093   0.929   2.998  0.7402  1.5240 -0.3891
47408SOL     OW49273   9.311   1.473  11.537 -0.1405  0.1661 -0.1120
47408SOL    HW149274   9.322   1.385  11.502 -0.0820 -0.2261  0.8632
47408SOL    HW249275   9.283   1.460  11.628  2.9288  1.0792  1.1273
47409SOL     OW49276   0.144   6.924   8.352 -0.1481  0.5576  0.4474
47409SOL    HW149277   0.138   6.834   8.384 -1.8444  0.4428 -0.1222
47409SOL    HW249278   0.178   6.916   8.263  1.0959  0.6159  0.8945
47410SOL     OW49279   0.423   6.102   4.611  0.1290 -0.0340  0.3219
47410SOL    HW149280   0.512   6.137   4.605  0.0889  0.1591  0.8032
47410SOL    HW249281   0.376   6.165   4.666 -0.3355 -0.0774 -0.0178
47411SOL     OW49282  12.244  10.231  11.674 -0.3118 -0.4108  0.5024
47411SOL    HW149283  12.241  10.315  11.720  0.8176 -1.1079  1.9410
47411SOL    HW249284  12.249  10.255  11.582 -0.4158  1.1018  0.8608
47412SOL     OW49285   1.876  11.557   5.539 -0.3620  0.0899  0.3408
47412SOL    HW149286   1.921  11.473   5.534  0.7122  0.6439  0.6047
47412SOL    HW249287   1.855  11.568   5.631 -2.2361 -0.7577  0.0685
47413SOL     OW49288   1.389   7.223   9.819 -0.5858 -0.2485  0.1719
47413SOL    HW149289   1.331   7.147   9.807 -1.2928  0.3416 -0.2661
47413SOL    HW249290   1.344   7.277   9.884 -0.9045  0.5572 -0.6934
47414SOL     OW49291   9.049   5.956  10.317  0.3712 -0.1909 -0.5490
47414SOL    HW149292   9.122   5.898  10.295  0.1005 -0.9605  0.5226
47414SOL    HW249293   9.078   6.002  10.395 -0.6191 -1.1712  0.4301
47415SOL     OW49294   3.108   4.427  10.690 -0.2961  0.4171  0.7023
47415SOL    HW149295   3.154   4.359  10.641  1.9905  0.5586  2.4462
47415SOL    HW249296   3.061   4.477  10.624 -0.9974 -2.0378 -0.7725
47416SOL     OW49297   9.585   6.724  11.321  0.1931 -0.1551  0.4667
47416SOL    HW149298   9.585   6.633  11.351  0.9166 -0.5957 -0.7900
47416SOL    HW249299   9.493   6.747  11.313 -0.0129 -0.3457  2.0065
47417SOL     OW49300   4.361   9.398  12.257 -0.1873  0.4308  0.6156
47417SOL    HW149301   4.302   9.358  12.193 -1.0219 -0.1508  1.7296
47417SOL    HW249302   4.325   9.485  12.272  0.3586  0.8025 -0.1351
47418SOL     OW49303   2.345   3.266   2.735  0.6615 -0.4845  0.1021
47418SOL    HW149304   2.277   3.244   2.799 -1.2803  0.0029 -1.6600
47418SOL    HW249305   2.298   3.315   2.667  3.1339  1.4002 -0.3863
47419SOL     OW49306  11.649   0.498   5.812  0.1547 -0.3227 -0.1269
47419SOL    HW149307  11.684   0.499   5.723  1.5368 -1.5258  0.3569
47419SOL    HW249308  11.713   0.447   5.862 -0.6638  0.1996  1.5286
47420SOL     OW49309   9.116   3.879   8.381  0.0593  0.0718 -0.1889
47420SOL    HW149310   9.209   3.883   8.358 -0.0628  1.3497 -0.5412
47420SOL    HW249311   9.074   3.939   8.320 -0.8231  0.4898  0.8116
47421SOL     OW49312  11.853   5.901   8.144 -0.0098  0.2170  0.6481
47421SOL    HW149313  11.759   5.916   8.140 -0.2124 -0.7904  1.3102
47421SOL    HW249314  11.864   5.832   8.210  1.2676  0.9934  1.2906
47422SOL     OW49315  11.408   9.203   8.798  0.0275 -0.4116  0.1935
47422SOL    HW149316  11.421   9.182   8.891  0.6333 -2.1384 -0.2520
47422SOL    HW249317  11.497   9.213   8.764 -0.0418 -2.4817 -0.7465
47423SOL     OW49318  11.245   1.004   0.712  0.2374 -0.3494  0.3732
47423SOL    HW149319  11.198   1.017   0.794 -1.8216 -0.5359 -0.6990
47423SOL    HW249320  11.186   1.038   0.645  1.9029 -0.1045 -1.0373
47424SOL     OW49321   8.641   4.429   7.124  0.1834  0.0712  0.3927
47424SOL    HW149322   8.600   4.370   7.060 -2.1867  2.6422 -0.6102
47424SOL    HW249323   8.668   4.505   7.073 -1.1888  1.9312  2.2659
47425SOL     OW49324   7.389  11.368   8.102 -0.0227 -0.1925  0.1985
47425SOL    HW149325   7.354  11.360   8.190 -2.5314  0.2281 -0.6820
47425SOL    HW249326   7.372  11.284   8.060  2.0711 -0.7513  0.3597
47426SOL     OW49327   2.565   3.891   8.103  0.1618  0.0785  0.2313
47426SOL    HW149328   2.616   3.816   8.073  0.7301 -0.6216  2.7004
47426SOL    HW249329   2.474   3.867   8.085  0.3980 -0.8215  0.1776
47427SOL     OW49330   5.407   7.113   2.986 -0.5088 -0.1043 -0.1649
47427SOL    HW149331   5.495   7.124   3.021 -0.4270  2.9388 -1.0557
47427SOL    HW249332   5.422   7.080   2.897 -0.2617  0.3093 -0.2806
47428SOL     OW49333   7.358  10.380  10.801  0.0369 -0.6534  0.2772
47428SOL    HW149334   7.407  10.449  10.847  1.0547  0.3531 -2.1158
47428SOL    HW249335   7.419  10.348  10.735 -1.8083 -0.9056 -1.3890
47429SOL     OW49336   2.858  10.022   8.897  0.0450 -0.3431 -0.1334
47429SOL    HW149337   2.948  10.010   8.868 -0.0100 -1.1063 -0.0025
47429SOL    HW249338   2.805   9.986   8.825 -0.1858  0.8006 -0.5581
47430SOL     OW49339   6.610  12.290   4.945 -0.3483 -0.3073 -0.1349
47430SOL    HW149340   6.537  12.272   5.004 -0.2863 -0.2229 -0.0337
47430SOL    HW249341   6.609  12.216   4.884 -0.6136 -0.2299 -0.2267
47431SOL     OW49342  11.585   6.061   2.564  0.3457 -0.1384 -0.1200
47431SOL    HW149343  11.586   6.113   2.645  2.0739  0.3984 -0.4397
47431SOL    HW249344  11.611   5.973   2.592  1.2013  0.1091 -0.1048
47432SOL     OW49345  10.381   4.190  10.205 -0.2761 -0.3356 -0.0857
47432SOL    HW149346  10.373   4.139  10.286 -0.0712  0.3989  0.4071
47432SOL    HW249347  10.368   4.126  10.135  1.3034 -1.3272  0.4886
47433SOL     OW49348   0.686   4.772   1.994  0.1850 -0.2669  0.8039
47433SOL    HW149349   0.741   4.727   1.930  0.9532  1.0487  0.5087
47433SOL    HW249350   0.599   4.772   1.955  0.2649 -1.0936  0.6123
47434SOL     OW49351   9.347   2.345   3.195 -0.2142  0.5423  0.2412
47434SOL    HW149352   9.422   2.290   3.173 -1.5019 -1.9890  1.7846
47434SOL    HW249353   9.307   2.365   3.110 -1.0819 -3.0564 -0.3569
47435SOL     OW49354   6.505   5.372   0.175 -0.5648  0.3105 -0.6072
47435SOL    HW149355   6.565   5.353   0.247 -0.5605  2.3282 -0.0112
47435SOL    HW249356   6.549   5.441   0.125 -2.6361  2.4652  0.3315
47436SOL     OW49357   8.284   7.103   3.912 -0.1997 -0.1364 -0.5081
47436SOL    HW149358   8.373   7.085   3.880 -0.0102 -0.6254  0.2612
47436SOL    HW249359   8.240   7.018   3.909 -0.3200 -0.0943  0.0954
47437SOL     OW49360   9.981   6.958   0.801  0.1366 -0.1374 -0.2145
47437SOL    HW149361  10.020   6.885   0.754  1.3232  0.1028  0.3360
47437SOL    HW249362   9.890   6.933   0.815  0.1027 -0.7745 -1.4683
47438SOL     OW49363   4.160   6.183  10.352 -0.0705  0.1115  0.2275
47438SOL    HW149364   4.096   6.225  10.294  0.1149  0.9001  0.5779
47438SOL    HW249365   4.245   6.202  10.313  0.0426  0.4589  0.6364
47439SOL     OW49366   0.101   6.577   5.525 -0.0061  0.1230 -0.3675
47439SOL    HW149367   0.009   6.600   5.514 -0.4763 -0.2287  2.2897
47439SOL    HW249368   0.146   6.662   5.530 -0.1732  0.2943 -1.3886
47440SOL     OW49369   0.582  12.237   6.625 -0.0412 -0.1599  0.3339
47440SOL    HW149370   0.535  12.303   6.573  0.1468  0.0983  0.4860
47440SOL    HW249371   0.621  12.287   6.697  0.4042 -0.3798  0.2497
47441SOL     OW49372   1.718  10.385   5.384  0.5530 -0.0328  0.1888
47441SOL    HW149373   1.738  10.471   5.420 -0.1986 -0.0305  0.6314
47441SOL    HW249374   1.772  10.324   5.435 -0.6335 -0.0500  1.4961
47442SOL     OW49375   2.586   9.296   7.181  0.2964  0.0740 -0.3223
47442SOL    HW149376   2.667   9.247   7.198  0.3791  0.2202 -0.2875
47442SOL    HW249377   2.602   9.382   7.220 -0.3587 -0.2952  0.8008
47443SOL     OW49378   9.508   9.568   4.670 -0.1201  0.2342 -0.4092
47443SOL    HW149379   9.503   9.521   4.752 -0.0454  0.4830 -0.2611
47443SOL    HW249380   9.537   9.503   4.606  0.9045  0.3012 -0.0246
47444SOL     OW49381   4.549   2.733   8.576  0.1620  0.6097  0.4558
47444SOL    HW149382   4.492   2.737   8.653  0.4768  0.2427  0.7110
47444SOL    HW249383   4.629   2.779   8.603  0.0602  0.9597  0.1624
47445SOL     OW49384   6.748   6.935   2.560  0.1247 -0.2701  0.3758
47445SOL    HW149385   6.790   6.983   2.631 -2.0268  2.0763  0.1951
47445SOL    HW249386   6.800   6.854   2.552  1.6831  0.3121  3.1730
47446SOL     OW49387   1.439   0.476   0.838  0.1906 -0.2433  0.2966
47446SOL    HW149388   1.367   0.463   0.899 -0.2749 -1.5942 -0.4934
47446SOL    HW249389   1.397   0.491   0.753  0.7883  2.8128  0.4119
47447SOL     OW49390   9.982   9.941   8.720  0.3534  0.3079  0.4948
47447SOL    HW149391  10.029  10.000   8.779 -0.1008  1.0276  0.1403
47447SOL    HW249392   9.962   9.994   8.643  1.4511 -0.7705 -0.5954
47448SOL     OW49393   1.514   3.741  11.022 -0.0987 -0.5834  0.6389
47448SOL    HW149394   1.597   3.768  10.983 -0.3650 -1.2220 -0.4043
47448SOL    HW249395   1.467   3.824  11.036  1.1855 -0.0930  2.4418
47449SOL     OW49396   4.697   0.215   3.125 -0.3686 -0.0118 -0.5001
47449SOL    HW149397   4.662   0.171   3.203  1.1689 -0.5175 -0.0685
47449SOL    HW249398   4.721   0.303   3.156  2.7378 -1.0552  0.3418
47450SOL     OW49399   3.147   2.831   3.493  0.1780  0.9143  0.5358
47450SOL    HW149400   3.170   2.924   3.499  0.2202  0.8703  1.0728
47450SOL    HW249401   3.086   2.826   3.419 -0.8362  1.5682  1.3107
47451SOL     OW49402  12.498   3.873   9.653 -0.5169  0.1980 -0.2378
47451SOL    HW149403  12.590   3.878   9.681 -0.9978  0.0464  1.5133
47451SOL    HW249404  12.496   3.919   9.570  1.1886  0.0173 -0.4223
47452SOL     OW49405   1.393   4.283   9.845 -0.2535  0.1437 -0.0083
47452SOL    HW149406   1.333   4.224   9.800 -0.5856  0.5712 -0.1283
47452SOL    HW249407   1.462   4.226   9.880  0.1070 -0.1642 -1.2012
47453SOL     OW49408   6.535   0.025   1.827 -0.5303  0.0291  0.2084
47453SOL    HW149409   6.534  -0.047   1.765 -0.7393 -0.2092  0.4874
47453SOL    HW249410   6.606   0.003   1.887 -0.5111  0.1203  0.2193
47454SOL     OW49411   3.739   0.477   0.196  0.0410 -0.3483 -0.0201
47454SOL    HW149412   3.753   0.571   0.207  1.4970 -0.6209  0.6743
47454SOL    HW249413   3.713   0.468   0.104  2.2375  0.5106 -0.7878
47455SOL     OW49414   1.432   9.819   6.072  0.3897  0.5977  0.2140
47455SOL    HW149415   1.453   9.902   6.030  1.1794 -0.3874 -1.4432
47455SOL    HW249416   1.491   9.755   6.030 -0.9132 -0.9831  0.6875
47456SOL     OW49417   1.649  12.590   4.039 -0.1640  0.5348  0.9962
47456SOL    HW149418   1.581  12.624   4.096  0.6820  2.1779  1.0743
47456SOL    HW249419   1.633  12.631   3.954  0.9759  1.3136  1.1351
47457SOL     OW49420   7.092   2.377   6.208  0.0579 -0.2404  0.2502
47457SOL    HW149421   7.138   2.319   6.149  0.4782  1.1784 -0.8863
47457SOL    HW249422   7.013   2.329   6.232  1.4145 -2.1501  1.1457
47458SOL     OW49423  12.442  10.660  12.474  0.5715  0.1733  0.1782
47458SOL    HW149424  12.517  10.704  12.514 -0.1101  0.5490  1.1088
47458SOL    HW249425  12.458  10.567  12.489  0.5578  0.2823  0.9488
47459SOL     OW49426  12.043   0.545   5.439  0.2231 -0.7365  0.6312
47459SOL    HW149427  12.026   0.559   5.346  1.6621  0.7415  0.5371
47459SOL    HW249428  12.035   0.451   5.451 -0.5293 -0.8854 -0.8741
47460SOL     OW49429   7.648   4.815   5.872 -0.3259  0.5362 -0.2009
47460SOL    HW149430   7.731   4.857   5.850 -0.2441 -0.1041 -1.1267
47460SOL    HW249431   7.645   4.818   5.968  1.2815 -0.4114 -0.0902
47461SOL     OW49432  11.814   7.642   1.333  0.1857  0.2972  0.3410
47461SOL    HW149433  11.788   7.567   1.281  0.8406 -0.2351  0.7705
47461SOL    HW249434  11.813   7.716   1.272  0.3098 -0.2021 -0.2644
47462SOL     OW49435   7.008   8.429   5.939  0.1462  0.6178 -0.1046
47462SOL    HW149436   6.939   8.368   5.964  0.6022  0.5830  1.1442
47462SOL    HW249437   7.044   8.460   6.022  0.2766  2.1931 -0.7144
47463SOL     OW49438  10.391  10.717   4.947 -0.0994  0.2181  0.2332
47463SOL    HW149439  10.465  10.663   4.977  0.1897  1.0351  1.0322
47463SOL    HW249440  10.314  10.670   4.979  0.1403  0.1587  0.7460
47464SOL     OW49441   2.916   1.985  11.985 -0.3408 -0.3052 -0.2570
47464SOL    HW149442   2.847   2.002  12.049 -0.3396  0.4934 -0.4669
47464SOL    HW249443   2.988   2.042  12.011  0.1737 -0.9883 -0.1578
47465SOL     OW49444   1.875   8.190   3.981  0.3747  0.3866 -0.0575
47465SOL    HW149445   1.798   8.247   3.986 -0.6159 -0.7887 -1.1712
47465SOL    HW249446   1.902   8.193   3.890 -0.2237 -1.5298 -0.3458
47466SOL     OW49447  10.970   0.495   9.709  0.2926 -0.3717  0.0007
47466SOL    HW149448  11.001   0.477   9.797 -0.1232  0.2989  0.2930
47466SOL    HW249449  11.048   0.490   9.654  0.6346 -0.3224  0.4779
47467SOL     OW49450   1.357   8.676   1.990 -0.5870  0.2113 -0.4317
47467SOL    HW149451   1.292   8.744   1.975 -2.0006 -1.2237 -1.1222
47467SOL    HW249452   1.428   8.720   2.037 -1.0956  2.3133 -1.5017
47468SOL     OW49453   9.590   4.544   6.391 -0.3000 -0.0297  0.3942
47468SOL    HW149454   9.631   4.502   6.467  0.1715  0.2837  0.3155
47468SOL    HW249455   9.497   4.524   6.400  0.1202 -3.2096 -0.9266
47469SOL     OW49456  11.410   3.586   9.412  0.3583 -0.2311 -0.1585
47469SOL    HW149457  11.469   3.652   9.448 -1.0471  1.1284 -0.2515
47469SOL    HW249458  11.375   3.541   9.488  1.7522 -1.3171 -0.1130
47470SOL     OW49459   1.389   5.911   6.810 -0.1142 -0.4404 -0.4861
47470SOL    HW149460   1.344   5.988   6.845 -0.4211 -0.9555  0.2662
47470SOL    HW249461   1.424   5.940   6.726  0.1891  0.6685  0.0077
47471SOL     OW49462   5.702   9.347   1.745  0.0864 -0.6025 -0.1519
47471SOL    HW149463   5.671   9.428   1.706  2.2649 -0.1334 -1.0436
47471SOL    HW249464   5.719   9.369   1.837 -0.8490 -0.5118  0.0095
47472SOL     OW49465   0.144  11.861   6.951 -0.6152 -0.5858  0.0643
47472SOL    HW149466   0.230  11.880   6.915 -1.1028  0.1921 -0.7416
47472SOL    HW249467   0.104  11.947   6.964 -0.9071 -0.8895  1.3874
47473SOL     OW49468   8.550  11.615   4.607 -0.3202 -0.4601  0.3487
47473SOL    HW149469   8.541  11.683   4.540  2.6964 -0.5834 -0.2911
47473SOL    HW249470   8.517  11.535   4.564 -0.6238 -0.0942 -0.1142
47474SOL     OW49471   0.813  11.378   6.048  0.2482  0.1649  0.4847
47474SOL    HW149472   0.850  11.328   5.975  1.7840  0.4938  0.9893
47474SOL    HW249473   0.849  11.336   6.127 -0.1332  0.7613  0.9891
47475SOL     OW49474   8.626   5.127   0.047 -0.1901 -0.5584 -0.1423
47475SOL    HW149475   8.660   5.124   0.136 -0.1039  1.3590 -0.0595
47475SOL    HW249476   8.545   5.177   0.054 -0.3140 -0.6089 -1.0988
47476SOL     OW49477   7.560   3.279   2.536  0.0664 -0.2945 -0.2134
47476SOL    HW149478   7.612   3.216   2.487 -0.9197 -0.8614 -0.5685
47476SOL    HW249479   7.509   3.226   2.597  1.1756  0.3884  1.3924
47477SOL     OW49480   9.740   8.446   6.375 -0.1482  0.3841  0.0646
47477SOL    HW149481   9.656   8.427   6.335  0.8679  0.1632 -2.0986
47477SOL    HW249482   9.802   8.388   6.330  1.3640  1.4423  0.6994
47478SOL     OW49483   9.768   4.089  10.302 -0.2559  0.6768  0.1186
47478SOL    HW149484   9.761   4.140  10.222  0.0335 -0.4327 -0.6439
47478SOL    HW249485   9.700   4.124  10.360  0.0074  1.9677 -0.3201
47479SOL     OW49486  10.056   8.399   8.639  1.1444 -0.2173 -0.1646
47479SOL    HW149487  10.074   8.491   8.658 -0.4301  0.0753  0.0528
47479SOL    HW249488  10.133   8.352   8.670  0.9755  0.7972  1.9407
47480SOL     OW49489   6.352  11.805   1.915 -0.0382  0.0303  0.2483
47480SOL    HW149490   6.339  11.757   1.997  1.3702 -0.4804  0.2032
47480SOL    HW249491   6.447  11.814   1.908 -0.1951  1.0575 -0.7745
47481SOL     OW49492   5.976   5.855   4.513 -0.0515 -0.1540 -0.3077
47481SOL    HW149493   6.064   5.857   4.552 -0.2289  1.0413  0.0775
47481SOL    HW249494   5.991   5.839   4.420  0.6545  0.8507 -0.3889
47482SOL     OW49495   0.662   6.277   0.328  0.5023  0.5092  0.2347
47482SOL    HW149496   0.573   6.242   0.335  0.2930  0.5911 -1.5595
47482SOL    HW249497   0.658   6.361   0.372 -0.1079  0.1817  0.8356
47483SOL     OW49498   8.475  10.014   8.580 -0.1189 -0.0986 -0.3618
47483SOL    HW149499   8.506   9.964   8.505  0.8843 -0.9757  0.5996
47483SOL    HW249500   8.389   9.978   8.600  0.7496 -1.7941  0.5636
47484SOL     OW49501   9.917   0.619   3.195  0.7266  0.1318 -0.2890
47484SOL    HW149502   9.836   0.568   3.193  1.3244 -0.8248 -1.9668
47484SOL    HW249503   9.895   0.697   3.245 -0.5199 -1.2604  1.4492
47485SOL     OW49504   8.257  10.086   4.438  0.2553  0.0002  0.0037
47485SOL    HW149505   8.216  10.006   4.403 -1.4297  1.0899 -0.6834
47485SOL    HW249506   8.343  10.058   4.469  0.2643 -1.8138 -1.4772
47486SOL     OW49507   0.690  12.007   2.361  0.4215  0.0749  0.2531
47486SOL    HW149508   0.604  12.011   2.403 -0.0100 -2.1353 -0.2444
47486SOL    HW249509   0.671  11.984   2.270  1.5116 -0.2828  0.0945
47487SOL     OW49510   8.242  11.173  11.973 -0.0873  0.0228 -0.0663
47487SOL    HW149511   8.335  11.151  11.968 -0.2054 -1.2465  1.9571
47487SOL    HW249512   8.197  11.096  11.937 -0.3608  0.0345  0.2429
47488SOL     OW49513  11.400   9.466   0.659 -0.0800  0.3482 -0.3740
47488SOL    HW149514  11.484   9.488   0.699 -0.8122 -1.3779  2.3241
47488SOL    HW249515  11.410   9.376   0.629 -1.4201 -0.5167  1.5729
47489SOL     OW49516   3.680   2.679   0.265 -0.0563 -0.2260 -0.0674
47489SOL    HW149517   3.603   2.694   0.209 -0.9153  0.9259  1.3497
47489SOL    HW249518   3.751   2.725   0.221 -0.2918 -0.8184 -1.1007
47490SOL     OW49519   7.827   4.128   3.577 -0.0503  0.1640  0.5081
47490SOL    HW149520   7.852   4.075   3.501  0.5017  0.0084  0.7944
47490SOL    HW249521   7.752   4.082   3.615 -1.6824  1.3344 -1.1195
47491SOL     OW49522   9.123  12.074   4.442 -0.2800 -0.7712 -0.2501
47491SOL    HW149523   9.035  12.044   4.465 -0.5116 -0.2583 -0.4442
47491SOL    HW249524   9.112  12.167   4.423  0.9255  0.2944  3.3792
47492SOL     OW49525   7.380   1.745  12.204 -0.7119 -0.0951  0.1833
47492SOL    HW149526   7.316   1.783  12.265  0.1359  0.0742  0.9886
47492SOL    HW249527   7.440   1.817  12.184  0.5086 -0.7978  1.1847
47493SOL     OW49528   2.073   0.699   7.754 -0.3850  0.6856 -0.4769
47493SOL    HW149529   2.064   0.624   7.695  0.0326 -0.3250  0.6966
47493SOL    HW249530   2.051   0.664   7.841 -1.5891  2.2802 -0.1030
47494SOL     OW49531  12.452  11.944   4.030  0.0584 -0.5032  0.0557
47494SOL    HW149532  12.406  11.982   4.104 -0.3156  0.3139 -0.5720
47494SOL    HW249533  12.512  11.881   4.068 -0.3474 -0.3162  1.0234
47495SOL     OW49534   2.574   7.840   6.417  0.0371  0.0370  0.5530
47495SOL    HW149535   2.484   7.823   6.444  0.3328 -0.9142  0.9769
47495SOL    HW249536   2.569   7.845   6.322 -0.6705  1.3339  0.6325
47496SOL     OW49537   3.982   7.325   1.753 -0.0271  0.0850  0.2702
47496SOL    HW149538   3.999   7.234   1.727  0.5196 -0.3277  1.9092
47496SOL    HW249539   3.997   7.376   1.674  1.3436 -1.0932 -0.2809
47497SOL     OW49540  12.594   0.928   3.115  0.2674  0.6097 -0.5390
47497SOL    HW149541  12.588   0.906   3.208 -0.2390  2.7197 -0.0294
47497SOL    HW249542  12.505   0.954   3.091  0.8905  2.4191 -0.9731
47498SOL     OW49543   3.571   1.266   8.907 -0.2402 -0.0778 -0.1946
47498SOL    HW149544   3.631   1.240   8.838 -0.2383 -0.7746  0.0605
47498SOL    HW249545   3.484   1.247   8.872 -0.4662  2.5102 -1.2444
47499SOL     OW49546   9.518   2.855   2.775 -0.4971  0.1611 -0.5369
47499SOL    HW149547   9.572   2.814   2.708 -1.1767  1.4195 -1.9067
47499SOL    HW249548   9.453   2.787   2.798  0.2346 -0.5514 -0.5390
47500SOL     OW49549   2.864  10.414   1.608 -0.0283 -0.1550  0.0562
47500SOL    HW149550   2.901  10.328   1.586 -2.5301 -0.9570 -1.4887
47500SOL    HW249551   2.883  10.425   1.701  1.6468 -1.6893 -0.0510
47501SOL     OW49552  10.273   2.093   0.823  0.3736  0.4293  0.2927
47501SOL    HW149553  10.347   2.152   0.807  0.2498  0.2523 -1.0568
47501SOL    HW249554  10.265   2.042   0.742 -0.5234 -0.3347  0.8412
47502SOL     OW49555  10.273   3.465  12.037  0.0533  0.1305 -0.2926
47502SOL    HW149556  10.253   3.430  12.123 -1.4350  0.2084 -0.5841
47502SOL    HW249557  10.367   3.485  12.040  0.9420 -3.4340  0.0174
47503SOL     OW49558   8.660   6.121   8.716 -0.6583  0.5777  0.5257
47503SOL    HW149559   8.715   6.158   8.786  0.0246 -0.9187  0.8301
47503SOL    HW249560   8.583   6.177   8.714 -0.9722  0.3446  2.9069
47504SOL     OW49561   9.708  11.610   7.941 -0.3597  0.6958 -0.2734
47504SOL    HW149562   9.708  11.534   8.000 -2.8377  0.9363  0.1702
47504SOL    HW249563   9.799  11.637   7.936  0.0837  0.0645  2.6717
47505SOL     OW49564   0.698   0.574   1.114 -0.6135 -0.4733  0.0837
47505SOL    HW149565   0.647   0.533   1.044 -2.2017 -1.6429  1.8523
47505SOL    HW249566   0.680   0.521   1.191  3.6318 -1.2083  0.7990
47506SOL     OW49567  11.078  11.060   7.103  0.1276  0.5391  0.2899
47506SOL    HW149568  11.034  11.114   7.038  1.6960 -0.0054 -1.2783
47506SOL    HW249569  11.145  11.013   7.055  1.8201  0.6058  2.4129
47507SOL     OW49570   9.306   8.933   0.519  0.0338 -0.0301  0.0227
47507SOL    HW149571   9.299   8.898   0.430  2.2881 -0.2791 -0.1249
47507SOL    HW249572   9.380   8.994   0.515 -1.3871  1.8605  1.1831
47508SOL     OW49573   5.914  12.067  11.744 -0.1648 -0.1725 -0.2319
47508SOL    HW149574   5.905  12.115  11.826  0.5243  1.6466 -1.1714
47508SOL    HW249575   5.883  11.978  11.764  1.2486 -0.1569  2.3351
47509SOL     OW49576   5.685   7.592   5.317 -0.0247  0.2013 -0.5409
47509SOL    HW149577   5.769   7.588   5.361  0.6141  0.7212 -1.6454
47509SOL    HW249578   5.689   7.524   5.249 -0.0108  0.9870 -1.3553
47510SOL     OW49579   4.984   8.301   8.359 -0.2120  0.2126 -0.4293
47510SOL    HW149580   5.068   8.281   8.317 -0.1483 -0.4828  0.0141
47510SOL    HW249581   5.008   8.349   8.438 -0.2216 -0.1193 -0.2244
47511SOL     OW49582   8.385   8.780   6.056 -0.5168 -0.7290  0.4628
47511SOL    HW149583   8.373   8.858   6.110  1.0089  0.4474 -0.7783
47511SOL    HW249584   8.445   8.725   6.107  1.0470  0.4442 -0.0147
47512SOL     OW49585  12.179   0.057   2.180  0.8756 -0.2406  0.0165
47512SOL    HW149586  12.177  -0.037   2.197 -0.5241 -0.2729 -0.2182
47512SOL    HW249587  12.251   0.068   2.118 -0.3659 -1.4858 -1.7322
47513SOL     OW49588   4.070   1.802   5.744 -0.1672  0.4176 -0.2513
47513SOL    HW149589   4.161   1.832   5.751 -0.1752  0.2324  0.7295
47513SOL    HW249590   4.061   1.736   5.812 -1.1707  0.7649 -0.0249
47514SOL     OW49591   0.663   3.111   6.688  0.8872 -0.3350 -0.7346
47514SOL    HW149592   0.700   3.030   6.725 -2.3535 -1.8450 -0.3684
47514SOL    HW249593   0.620   3.154   6.762 -0.4972 -0.2168 -1.5567
47515SOL     OW49594   3.441  10.984   5.060  0.2688 -0.0096 -0.1925
47515SOL    HW149595   3.476  11.061   5.104  2.2470 -1.0672  0.2383
47515SOL    HW249596   3.443  11.007   4.967  0.3151  0.6430 -0.0359
47516SOL     OW49597   9.587   4.046   7.630  0.2859 -0.8047 -0.5993
47516SOL    HW149598   9.622   3.993   7.701 -0.2525 -0.2216  0.1155
47516SOL    HW249599   9.644   4.027   7.556  0.5495 -1.8068 -0.1551
47517SOL     OW49600   4.300   9.990  10.177 -0.0384 -0.0791 -0.3875
47517SOL    HW149601   4.369  10.056  10.165  0.2135 -0.3254 -0.2874
47517SOL    HW249602   4.333   9.913  10.131 -0.1032 -0.2973 -0.0653
47518SOL     OW49603   0.826   3.849   5.356 -0.3316  0.9187 -0.1967
47518SOL    HW149604   0.845   3.762   5.389  0.4572  1.0541 -0.2715
47518SOL    HW249605   0.819   3.904   5.434 -1.2859  0.7106 -0.1256
47519SOL     OW49606   6.518   6.753   4.750 -0.0398 -0.3776  0.1761
47519SOL    HW149607   6.512   6.801   4.833 -0.9219  0.5933 -0.4287
47519SOL    HW249608   6.598   6.701   4.758 -0.1456 -0.3468  1.6545
47520SOL     OW49609   2.039   4.298   8.892  0.0194 -0.2602 -0.1072
47520SOL    HW149610   1.953   4.339   8.902 -0.1019 -0.3531 -0.7227
47520SOL    HW249611   2.064   4.318   8.802  0.3683 -0.7628 -0.1231
47521SOL     OW49612   8.422   1.802   3.841  0.3429  0.1218  0.4961
47521SOL    HW149613   8.461   1.885   3.812  0.5634 -0.2087 -0.1781
47521SOL    HW249614   8.327   1.818   3.838  0.3963  0.5325  0.9392
47522SOL     OW49615  12.076   1.345   3.162 -0.3377 -0.1709  0.0220
47522SOL    HW149616  12.092   1.259   3.201 -0.2397 -1.2765 -2.2532
47522SOL    HW249617  11.980   1.352   3.158 -0.3507  0.1452  0.8427
47523SOL     OW49618   4.146   6.576   5.571  0.0725  0.0834  0.2681
47523SOL    HW149619   4.151   6.534   5.657  3.0537  1.4420  0.8666
47523SOL    HW249620   4.190   6.515   5.512  0.8121  0.5147  0.3577
47524SOL     OW49621   8.805   3.605   0.164 -0.1513 -0.7457  0.0704
47524SOL    HW149622   8.714   3.586   0.141 -0.4708 -0.7120  1.2353
47524SOL    HW249623   8.799   3.670   0.234  0.6327 -2.7835  2.1858
47525SOL     OW49624   0.221   3.875   2.220  0.4127 -0.2000 -0.0976
47525SOL    HW149625   0.128   3.898   2.221  1.1435  3.3579  1.2561
47525SOL    HW249626   0.254   3.913   2.138  1.3349  2.4837  1.3812
47526SOL     OW49627   5.363   0.002   0.236  0.1230  0.2353 -0.3987
47526SOL    HW149628   5.357  -0.076   0.181  1.9076 -0.8913  0.9157
47526SOL    HW249629   5.281   0.004   0.285 -0.0448 -0.6833 -0.6252
47527SOL     OW49630   8.769   4.068  11.910 -0.2337 -0.2180 -0.1633
47527SOL    HW149631   8.686   4.043  11.952  0.1071 -0.8825  0.1211
47527SOL    HW249632   8.742   4.125  11.838 -0.9290 -0.2802  0.0325
47528SOL     OW49633   6.435   2.634   0.986 -0.1291  0.3171 -0.2473
47528SOL    HW149634   6.358   2.690   1.000 -0.5288 -0.3375  0.2460
47528SOL    HW249635   6.417   2.588   0.905  0.1574  0.8274 -0.6049
47529SOL     OW49636   3.353   9.367   6.460 -0.4975 -0.3321 -0.1308
47529SOL    HW149637   3.325   9.422   6.533 -0.4051 -0.4657  0.0055
47529SOL    HW249638   3.339   9.277   6.491 -1.0465 -0.3844 -0.5080
47530SOL     OW49639  11.971   8.083   7.289  0.1988 -0.7380  0.1506
47530SOL    HW149640  12.003   8.028   7.218  2.0557 -0.4046  0.6577
47530SOL    HW249641  11.912   8.146   7.247  1.2535 -0.5550 -1.1114
47531SOL     OW49642   7.891   9.636   2.066 -0.0712 -0.0862  0.1517
47531SOL    HW149643   7.979   9.606   2.045  0.1984  0.8033 -0.0241
47531SOL    HW249644   7.891   9.729   2.043 -1.1778 -0.1628 -0.2474
47532SOL     OW49645   7.198  10.003   2.411 -0.2681 -0.2100  0.0949
47532SOL    HW149646   7.166  10.092   2.424 -1.1855 -0.2919 -1.3191
47532SOL    HW249647   7.293  10.013   2.403 -0.3932  0.7212 -0.4477
47533SOL     OW49648   0.567   4.168   5.970 -0.0064 -0.2316 -0.1610
47533SOL    HW149649   0.473   4.163   5.987  0.0205  3.4123  2.2055
47533SOL    HW249650   0.607   4.172   6.057  2.0412  0.9854 -1.0787
47534SOL     OW49651   2.903   5.218   1.516 -0.3690 -0.2344 -0.0329
47534SOL    HW149652   2.839   5.194   1.450  0.6932 -1.0534 -0.7894
47534SOL    HW249653   2.894   5.151   1.584 -1.8860  0.9531  0.9830
47535SOL     OW49654   6.881  10.277   1.570  0.1087 -0.8141 -0.0118
47535SOL    HW149655   6.862  10.315   1.485  0.5254  1.5230  0.8592
47535SOL    HW249656   6.800  10.232   1.595 -0.9060  0.6269 -0.5720
47536SOL     OW49657   4.545   8.946   6.465  0.5289  0.3120 -0.2706
47536SOL    HW149658   4.535   8.852   6.450  0.6437  0.6016 -2.4439
47536SOL    HW249659   4.456   8.977   6.482  0.5094 -0.1788  0.6179
47537SOL     OW49660   2.499   3.200   4.602  0.4712  0.3331 -0.3467
47537SOL    HW149661   2.426   3.139   4.609 -0.5766  1.7431  2.2212
47537SOL    HW249662   2.573   3.146   4.574 -0.9346 -1.6281 -0.4557
47538SOL     OW49663   4.666   9.953  11.413 -0.0587  0.4762  0.7781
47538SOL    HW149664   4.759   9.974  11.403  0.1742 -1.5672 -3.8903
47538SOL    HW249665   4.620  10.029  11.378  0.3001 -0.7612 -2.8506
47539SOL     OW49666  10.058  10.788   9.123  0.4766  1.2017 -0.5386
47539SOL    HW149667   9.964  10.793   9.106  0.3217  0.7073  0.1689
47539SOL    HW249668  10.070  10.839   9.203  0.7451  0.8779 -0.3740
47540SOL     OW49669   3.808   3.710   6.188 -0.1170  0.5512 -0.4228
47540SOL    HW149670   3.720   3.677   6.207 -0.4254  0.3984 -2.0181
47540SOL    HW249671   3.828   3.768   6.262  0.0511 -2.3160  1.9996
47541SOL     OW49672   9.231  11.768   1.407 -0.7824 -0.0252  0.0000
47541SOL    HW149673   9.226  11.726   1.321 -0.7728 -1.5836  0.7203
47541SOL    HW249674   9.269  11.700   1.463 -1.2196  0.8113  1.3266
47542SOL     OW49675  12.293  11.028   8.862 -0.7332  0.3639  0.1291
47542SOL    HW149676  12.244  11.096   8.815 -4.4852 -2.0434  0.0894
47542SOL    HW249677  12.266  11.038   8.953 -0.0681 -0.0890  0.3768
47543SOL     OW49678   6.068   1.284   0.310  0.0058 -0.3884  0.3198
47543SOL    HW149679   5.999   1.244   0.363 -1.4809  0.1760 -1.1062
47543SOL    HW249680   6.100   1.213   0.254  0.6946 -0.6748  1.0509
47544SOL     OW49681   0.381   8.330  12.214  0.2995 -0.4703 -0.1423
47544SOL    HW149682   0.447   8.370  12.158 -0.4803  2.9956  1.1323
47544SOL    HW249683   0.428   8.307  12.294  0.5876 -1.3118 -0.5459
47545SOL     OW49684   4.093  11.055   8.752  0.4601  0.0511 -0.0090
47545SOL    HW149685   4.169  11.069   8.809  0.8714 -0.5709 -0.3901
47545SOL    HW249686   4.130  11.036   8.666 -0.1251 -0.4545 -0.1578
47546SOL     OW49687   6.383   1.310   2.714 -0.0795  0.1018  0.2415
47546SOL    HW149688   6.313   1.273   2.768  0.4371 -0.8706  0.2859
47546SOL    HW249689   6.356   1.293   2.624 -0.3718  0.6335  0.2275
47547SOL     OW49690   7.364   4.259   2.143  0.4556  0.0249 -0.3682
47547SOL    HW149691   7.391   4.341   2.101  0.4432  0.0007 -0.4223
47547SOL    HW249692   7.441   4.231   2.192  0.8414 -0.5397 -1.2740
47548SOL     OW49693   0.988   1.210   7.906  0.4882 -0.4411  0.1960
47548SOL    HW149694   1.036   1.158   7.841  1.1841 -0.4363  0.6965
47548SOL    HW249695   0.922   1.258   7.855  0.7323 -0.7784 -0.4435
47549SOL     OW49696   0.628   1.852   9.024 -0.0221 -0.4875 -0.0534
47549SOL    HW149697   0.680   1.891   8.953  0.9199  0.2871  1.0253
47549SOL    HW249698   0.599   1.927   9.076  0.6328 -1.1201  1.2616
47550SOL     OW49699   4.201   9.147   8.727 -0.4061 -0.0440 -0.5781
47550SOL    HW149700   4.134   9.203   8.766 -0.7837  1.1744 -2.8488
47550SOL    HW249701   4.163   9.118   8.644  0.9607 -1.3162 -0.8047
47551SOL     OW49702   6.086  11.645   9.345  0.2303  0.1832 -0.2664
47551SOL    HW149703   6.037  11.564   9.329  1.2295 -0.3374 -0.7647
47551SOL    HW249704   6.019  11.710   9.365 -0.5913 -0.7698  0.1469
47552SOL     OW49705   0.388   6.648   2.556 -0.0716 -0.0073  0.7899
47552SOL    HW149706   0.395   6.682   2.467  1.3682 -1.5553  0.2445
47552SOL    HW249707   0.338   6.567   2.547 -3.3075  1.6685  2.0384
47553SOL     OW49708   9.097  10.802   0.154  0.7284  0.2459  0.0959
47553SOL    HW149709   9.016  10.759   0.178  1.2524 -0.4159  0.7066
47553SOL    HW249710   9.078  10.895   0.161  0.6711  0.1013  2.5028
47554SOL     OW49711   2.398   1.674   8.450  0.6209  0.5139 -0.0571
47554SOL    HW149712   2.394   1.757   8.497  2.7597  0.1956  0.8064
47554SOL    HW249713   2.438   1.696   8.366  0.9490  0.4048  0.0688
47555SOL     OW49714   1.845   1.404   0.152  0.4561 -0.2215 -0.4419
47555SOL    HW149715   1.921   1.349   0.136 -0.1934 -2.2250  2.5702
47555SOL    HW249716   1.860   1.442   0.239 -0.9407  1.2568 -0.7849
47556SOL     OW49717  11.179   0.065   8.910 -0.5850  0.0051 -0.2803
47556SOL    HW149718  11.250   0.000   8.911 -0.6540 -0.0672  0.4938
47556SOL    HW249719  11.099   0.013   8.919 -0.6448  0.1856  0.2688
47557SOL     OW49720  11.825   6.813   2.158 -0.5564  0.8230  0.1520
47557SOL    HW149721  11.871   6.818   2.242  0.2361 -1.8294 -0.0276
47557SOL    HW249722  11.877   6.868   2.099 -0.8590  2.3407  1.2463
47558SOL     OW49723   3.506   9.256   3.076 -0.1573 -0.4893  0.2386
47558SOL    HW149724   3.472   9.344   3.092 -2.1911 -1.1025 -0.3958
47558SOL    HW249725   3.438   9.198   3.108  0.0659 -1.8104 -1.5066
47559SOL     OW49726   1.084  12.260   4.176  0.2996 -0.1038  0.2780
47559SOL    HW149727   0.992  12.273   4.195  0.3069  0.0435  0.2132
47559SOL    HW249728   1.130  12.323   4.232  0.2753  0.9697 -0.8675
47560SOL     OW49729  11.837   9.933  11.506  0.0168  0.3949  0.1035
47560SOL    HW149730  11.817  10.023  11.481  0.1910  0.5254  0.4371
47560SOL    HW249731  11.909   9.907  11.448  0.0618  0.5171  0.1062
47561SOL     OW49732   6.463  11.202   1.903 -0.1726  0.0603  0.1745
47561SOL    HW149733   6.383  11.254   1.896  0.4830  0.9422 -1.1616
47561SOL    HW249734   6.456  11.137   1.833 -0.0414 -0.3277  0.5181
47562SOL     OW49735   4.826   1.270   7.341  0.2485 -0.9005 -0.1800
47562SOL    HW149736   4.747   1.298   7.386  0.9177 -0.9783  1.0690
47562SOL    HW249737   4.807   1.283   7.248 -0.5911  0.7055  0.1958
47563SOL     OW49738   9.113   0.806   6.945  0.4661 -0.7319  0.0755
47563SOL    HW149739   9.021   0.791   6.923  0.3595 -0.9541  0.6441
47563SOL    HW249740   9.142   0.873   6.883  0.4071 -1.8820 -1.2242
47564SOL     OW49741   8.807   2.301   5.260  0.2259 -0.6887  0.4305
47564SOL    HW149742   8.768   2.214   5.247  0.2415 -0.4628 -1.2670
47564SOL    HW249743   8.754   2.360   5.207  0.8272  0.1861  0.7735
47565SOL     OW49744  12.207   7.254   7.550 -0.1273  0.0359 -0.3472
47565SOL    HW149745  12.193   7.336   7.503  0.5822  0.9602  0.9767
47565SOL    HW249746  12.133   7.199   7.525  0.0340  0.5868 -2.2461
47566SOL     OW49747  10.634   9.625  11.602 -0.4685 -0.0776  0.1959
47566SOL    HW149748  10.562   9.672  11.561 -0.4766 -0.2974 -0.0502
47566SOL    HW249749  10.659   9.679  11.677 -0.2805  0.4684 -0.2526
47567SOL     OW49750   6.306   4.032   4.257 -0.0429 -0.2600 -0.2950
47567SOL    HW149751   6.226   4.071   4.224 -1.6591 -0.6881  2.7317
47567SOL    HW249752   6.373   4.100   4.245 -1.9039  2.0306  1.2900
47568SOL     OW49753   8.191  10.322  12.551 -0.0967 -0.1579 -0.3237
47568SOL    HW149754   8.209  10.294  12.461  0.9902 -0.1774 -0.1150
47568SOL    HW249755   8.264  10.380  12.573 -0.3102 -0.2134  0.5764
47569SOL     OW49756  12.442   0.219  10.764 -0.0780  0.2086 -0.0165
47569SOL    HW149757  12.401   0.247  10.682  0.0442  2.2570  0.5747
47569SOL    HW249758  12.421   0.126  10.771  0.7291 -0.2741 -2.8458
47570SOL     OW49759   4.737  11.145   0.675  0.3062 -0.1296  0.1591
47570SOL    HW149760   4.812  11.202   0.659 -0.7260  0.9029 -1.1579
47570SOL    HW249761   4.707  11.120   0.588 -0.4859 -1.0700  0.6857
47571SOL     OW49762   8.437   1.951   0.781 -0.2513 -0.4057  0.3910
47571SOL    HW149763   8.465   1.911   0.863  0.5316  0.3300  0.4950
47571SOL    HW249764   8.344   1.970   0.794  0.0406  0.4070  1.4167
47572SOL     OW49765   3.122  10.633   5.539  0.8442  0.4909  0.5684
47572SOL    HW149766   3.032  10.665   5.534  0.5212 -0.3981  0.5125
47572SOL    HW249767   3.154  10.666   5.623  1.0321  2.1801 -0.1212
47573SOL     OW49768  11.430   7.852  10.155 -0.6356  0.0386  0.0338
47573SOL    HW149769  11.413   7.811  10.070  1.5746  0.3929 -0.6501
47573SOL    HW249770  11.443   7.778  10.215 -1.6568 -0.2174 -0.0507
47574SOL     OW49771   4.120   1.299   5.505 -0.0317 -0.3349  0.1707
47574SOL    HW149772   4.106   1.393   5.515 -1.5386 -0.6578  1.3179
47574SOL    HW249773   4.200   1.293   5.452 -1.2177  1.6023 -2.0450
47575SOL     OW49774   4.233   3.153   5.246 -0.6966  0.3893 -0.6172
47575SOL    HW149775   4.328   3.149   5.239 -0.5335 -0.7170  1.5278
47575SOL    HW249776   4.202   3.077   5.197 -0.2733 -0.8467  0.9655
47576SOL     OW49777   3.367   3.098  10.714  0.2997  0.1649  0.2542
47576SOL    HW149778   3.376   3.125  10.805 -0.9858 -1.3953  0.9144
47576SOL    HW249779   3.355   3.003  10.719 -1.7682  0.2680 -1.3537
47577SOL     OW49780   7.073   8.993   1.883 -0.5393 -0.3509 -0.3395
47577SOL    HW149781   7.007   8.994   1.814 -1.1094 -1.7330  0.1468
47577SOL    HW249782   7.140   8.934   1.851 -1.1049 -1.4958  0.5263
47578SOL     OW49783   7.453   9.555   5.037  0.1780 -0.0995  0.0567
47578SOL    HW149784   7.454   9.585   5.128  0.2188  0.3728 -0.0952
47578SOL    HW249785   7.542   9.572   5.005 -0.1846  0.9810 -0.4564
47579SOL     OW49786   6.933  12.169   3.336  0.8251 -0.4491 -0.0089
47579SOL    HW149787   6.921  12.262   3.353  2.3868 -0.1585 -0.2980
47579SOL    HW249788   6.876  12.125   3.398  0.7545  0.6878  0.7538
47580SOL     OW49789   9.341   6.104   6.112  0.4237  0.2936  0.3598
47580SOL    HW149790   9.268   6.156   6.079  0.5565 -0.3973 -1.0939
47580SOL    HW249791   9.309   6.066   6.194 -1.2498 -0.8588 -0.7800
47581SOL     OW49792   9.263  10.043   3.140  0.0076 -0.2641 -0.2277
47581SOL    HW149793   9.345  10.065   3.184  0.1180  1.3333 -1.1479
47581SOL    HW249794   9.261   9.947   3.139  0.5697 -0.3686  2.1348
47582SOL     OW49795   6.696   9.307   6.075  0.4679  0.3087 -0.3078
47582SOL    HW149796   6.753   9.384   6.079 -0.2112  0.8084 -0.0648
47582SOL    HW249797   6.755   9.235   6.053  1.1032  0.9065 -0.6115
47583SOL     OW49798   5.760   3.272   6.302 -0.4616  0.1643  0.5289
47583SOL    HW149799   5.764   3.182   6.334 -0.5314 -0.0196  0.0352
47583SOL    HW249800   5.760   3.263   6.207  0.1338  0.7138  0.4711
47584SOL     OW49801  11.984   2.714   4.990 -0.0059  0.2073 -0.1300
47584SOL    HW149802  12.031   2.773   5.048  0.7191  0.2675 -0.7601
47584SOL    HW249803  12.042   2.639   4.978 -0.2621  0.0686 -0.5534
47585SOL     OW49804   7.794   5.961   4.231 -0.0845  0.2714 -0.0572
47585SOL    HW149805   7.727   5.956   4.162  0.6173 -2.9676 -0.7091
47585SOL    HW249806   7.754   5.918   4.306 -0.2831  2.4223  1.1430
47586SOL     OW49807   7.187   4.641   6.565  0.5658  0.3835 -0.1551
47586SOL    HW149808   7.194   4.587   6.644 -0.5422  0.0679 -0.2588
47586SOL    HW249809   7.278   4.658   6.540  0.9315 -0.2709  0.6682
47587SOL     OW49810   8.231   1.752   6.622  0.5320  0.2312  0.0597
47587SOL    HW149811   8.179   1.703   6.687 -2.6716  1.8236 -1.0720
47587SOL    HW249812   8.318   1.713   6.626 -0.1484 -1.3303  3.5801
47588SOL     OW49813   2.301  12.310   6.066  0.3800  0.3242 -0.4894
47588SOL    HW149814   2.219  12.272   6.033 -0.0445 -0.7211  1.5905
47588SOL    HW249815   2.275  12.396   6.099  0.2821  0.3056 -0.5180
47589SOL     OW49816   0.265   7.871  10.673 -0.1829  0.2273 -0.3147
47589SOL    HW149817   0.350   7.864  10.630  0.3393 -0.2090  0.7345
47589SOL    HW249818   0.210   7.806  10.630  0.6922 -1.0880  0.4486
47590SOL     OW49819   4.125   2.310   8.043  0.0128 -0.0512 -0.3696
47590SOL    HW149820   4.105   2.244   8.109 -1.8890  0.3911 -0.4577
47590SOL    HW249821   4.189   2.267   7.985  1.0513 -0.7440  1.2203
47591SOL     OW49822   7.743   7.901   0.793  0.2203  0.2172 -0.1022
47591SOL    HW149823   7.659   7.896   0.839 -0.0817  2.2557 -0.3541
47591SOL    HW249824   7.776   7.811   0.796 -1.3105 -0.3721  1.2059
47592SOL     OW49825   5.895   2.903   8.838 -0.3477 -0.3153  0.3145
47592SOL    HW149826   5.807   2.878   8.812 -0.2721  0.8565 -1.2780
47592SOL    HW249827   5.926   2.832   8.893 -2.5884 -0.3488  1.6250
47593SOL     OW49828   0.799   1.636  10.439  0.7819  0.0974 -0.8331
47593SOL    HW149829   0.879   1.679  10.410  0.8136 -0.5925 -1.8384
47593SOL    HW249830   0.746   1.628  10.359 -0.0170 -0.0337 -0.3054
47594SOL     OW49831   9.186   7.542  12.078 -0.1935  0.1149  0.3468
47594SOL    HW149832   9.256   7.481  12.101 -0.0052  0.2267  0.0687
47594SOL    HW249833   9.214   7.582  11.995 -1.2142 -0.8574 -0.5095
47595SOL     OW49834   9.481   4.196   1.372 -0.3018  0.2228  0.4337
47595SOL    HW149835   9.470   4.120   1.314 -2.2391 -0.5484  1.7135
47595SOL    HW249836   9.448   4.270   1.322 -1.8088 -0.4096  0.4406
47596SOL     OW49837   7.010   9.206  10.084  0.1569  0.1455 -0.0363
47596SOL    HW149838   6.939   9.145  10.062  0.4683  0.1695 -1.1530
47596SOL    HW249839   7.039   9.178  10.170 -0.9378 -0.1232  0.2645
47597SOL     OW49840   2.726   8.230   3.133  0.5469  0.1697 -0.0900
47597SOL    HW149841   2.677   8.187   3.063  0.3961 -2.2164  1.3610
47597SOL    HW249842   2.812   8.188   3.132  1.6553  2.2853 -0.7527
47598SOL     OW49843  10.843  10.300   8.012 -0.8303 -0.7111 -0.2745
47598SOL    HW149844  10.791  10.354   7.952 -0.1101  0.7964  0.4043
47598SOL    HW249845  10.911  10.261   7.956 -0.1448  0.7094 -0.4706
47599SOL     OW49846   1.946  10.918   5.147  0.0942 -0.4476 -0.3650
47599SOL    HW149847   2.008  10.859   5.104 -0.3037 -1.8182  0.8459
47599SOL    HW249848   1.870  10.864   5.165 -0.8586  0.8222 -0.4547
47600SOL     OW49849  12.179   6.908   8.621  0.7332 -0.0044 -0.3509
47600SOL    HW149850  12.244   6.961   8.574  1.4127  0.6650  1.2662
47600SOL    HW249851  12.108   6.969   8.640  0.6435 -0.1703 -0.1537
47601SOL     OW49852  11.028   5.973   2.953  0.0708  0.2581  0.2951
47601SOL    HW149853  11.106   6.025   2.969  1.4045 -0.6151 -2.6489
47601SOL    HW249854  10.990   6.009   2.873 -1.0873 -0.9372  0.2596
47602SOL     OW49855   3.722  11.820  12.574  0.0186  0.2337 -0.0707
47602SOL    HW149856   3.750  11.904  12.609 -2.0200  0.7941  0.3404
47602SOL    HW249857   3.757  11.818  12.485 -0.3162  1.7655 -0.2674
47603SOL     OW49858   8.409   9.551   1.326 -0.1454 -0.5452  0.0531
47603SOL    HW149859   8.443   9.472   1.283  0.8862  0.0669 -0.3006
47603SOL    HW249860   8.480   9.615   1.317 -1.2173  0.6388 -0.2674
47604SOL     OW49861   4.240   0.735   6.837 -0.1090 -0.6836 -0.6213
47604SOL    HW149862   4.223   0.804   6.774 -1.6238 -1.0563 -0.6575
47604SOL    HW249863   4.301   0.774   6.900 -0.1870  0.3557 -1.1754
47605SOL     OW49864   6.055   7.914  10.409  0.3637 -0.6409  0.3544
47605SOL    HW149865   6.033   7.978  10.476 -1.8109 -0.6545 -0.2449
47605SOL    HW249866   6.066   7.966  10.329 -0.9112 -0.9190 -0.0303
47606SOL     OW49867  12.566   1.757   0.475  0.4648  0.4033 -0.1543
47606SOL    HW149868  12.513   1.691   0.431  1.1657 -0.3503  0.1018
47606SOL    HW249869  12.503   1.819   0.511 -0.3325 -1.1166  1.2030
47607SOL     OW49870   3.605   0.167  10.544  0.0419  0.5115 -0.4635
47607SOL    HW149871   3.631   0.162  10.636  1.4709  1.2259 -0.7931
47607SOL    HW249872   3.632   0.083  10.507  0.1615  0.5237 -0.4034
47608SOL     OW49873  10.098   1.232   8.216  0.5131  0.1591 -0.2085
47608SOL    HW149874  10.040   1.166   8.178  0.2034  0.0746  0.3883
47608SOL    HW249875  10.088   1.309   8.160  1.4213 -0.5176 -1.3342
47609SOL     OW49876   7.823   9.963   0.232  0.2776  0.4861 -0.0188
47609SOL    HW149877   7.855   9.894   0.290  1.7651 -0.6038 -1.9984
47609SOL    HW249878   7.901   9.997   0.189 -0.7518  1.1256 -1.4891
47610SOL     OW49879   9.595   7.627   7.321  0.1642  0.2746  0.0450
47610SOL    HW149880   9.628   7.680   7.248 -2.5525  0.5713 -1.0693
47610SOL    HW249881   9.552   7.553   7.279 -1.4831  0.4596  1.3313
47611SOL     OW49882   7.614   5.131   0.180 -0.0570 -0.0373  0.4787
47611SOL    HW149883   7.710   5.129   0.184 -0.0212 -0.0753 -0.1822
47611SOL    HW249884   7.586   5.138   0.271  0.6376  2.4826  0.5764
47612SOL     OW49885   8.000   3.194  10.638 -0.1162 -0.6769  0.5730
47612SOL    HW149886   8.076   3.148  10.601 -0.5148 -0.2330 -0.8871
47612SOL    HW249887   7.925   3.153  10.595 -0.5466  0.4706  0.1933
47613SOL     OW49888   0.888   1.102   9.436  0.4250  0.1879 -0.2178
47613SOL    HW149889   0.866   1.096   9.343  1.1974 -1.1218 -0.3514
47613SOL    HW249890   0.828   1.042   9.479 -1.4542  2.4510  0.4767
47614SOL     OW49891  10.072   3.440   0.182  0.9861  0.3059  0.6804
47614SOL    HW149892  10.030   3.355   0.200  0.3635  0.6768  1.0304
47614SOL    HW249893  10.154   3.437   0.232  1.4595 -0.4851 -0.1224
47615SOL     OW49894   9.196   8.542   2.641  0.2457  0.0793 -0.0125
47615SOL    HW149895   9.167   8.464   2.688 -0.2966 -1.1241 -2.1720
47615SOL    HW249896   9.260   8.509   2.577  1.6579  1.7616  0.4546
47616SOL     OW49897   7.294   3.418   6.819 -0.3324 -0.4197  0.5930
47616SOL    HW149898   7.199   3.425   6.810 -0.1330  2.1352 -0.0228
47616SOL    HW249899   7.310   3.434   6.912 -0.4475 -0.1050  0.5590
47617SOL     OW49900  10.570   8.194   2.714 -0.3083  0.3411 -0.6354
47617SOL    HW149901  10.501   8.212   2.651  0.3334  1.9503 -0.9202
47617SOL    HW249902  10.648   8.178   2.661  0.4694  2.6713 -0.3199
47618SOL     OW49903   8.008   6.252   9.797  0.1700  0.5514 -0.8319
47618SOL    HW149904   8.059   6.175   9.825 -0.9785  0.0196 -0.1042
47618SOL    HW249905   7.956   6.275   9.874 -0.7098  1.0493 -1.5552
47619SOL     OW49906   0.664   8.150   7.355  0.5027 -0.3524 -0.3521
47619SOL    HW149907   0.627   8.072   7.315  0.8467 -0.5472 -0.2890
47619SOL    HW249908   0.698   8.121   7.439  0.0790 -0.0105 -0.0547
47620SOL     OW49909   1.085   7.850   0.618 -0.0147 -0.0896  0.3373
47620SOL    HW149910   1.076   7.929   0.671 -0.7868 -0.3033  0.5282
47620SOL    HW249911   1.180   7.834   0.616  0.1735  0.9549  0.1154
47621SOL     OW49912   0.579   6.712   9.274 -0.2302  0.2114  0.0836
47621SOL    HW149913   0.596   6.779   9.341 -1.6146  1.5609 -0.8378
47621SOL    HW249914   0.570   6.631   9.323  3.7157  0.1654  1.0893
47622SOL     OW49915  12.306   3.795   2.222  0.4731  0.0739 -0.5970
47622SOL    HW149916  12.216   3.775   2.195 -0.2978  3.5386 -0.9627
47622SOL    HW249917  12.307   3.774   2.316 -0.2452 -1.3465 -0.8773
47623SOL     OW49918  11.718   2.123   6.303  0.1188 -1.0114 -0.0967
47623SOL    HW149919  11.685   2.072   6.229 -1.0462  0.1714 -0.4404
47623SOL    HW249920  11.806   2.090   6.318 -0.9675 -3.9931  0.5230
47624SOL     OW49921  11.241  11.636   4.489  0.7068 -0.7436 -0.5033
47624SOL    HW149922  11.264  11.721   4.449 -0.5413  0.4106  1.1022
47624SOL    HW249923  11.155  11.651   4.528  0.1818 -2.9651 -0.6762
47625SOL     OW49924   9.157   3.764   2.310 -0.0287  0.2482  0.1741
47625SOL    HW149925   9.235   3.793   2.262 -0.3045 -1.1435 -1.1693
47625SOL    HW249926   9.167   3.670   2.318 -2.0924 -0.1414 -1.0683
47626SOL     OW49927   5.877   8.122   6.503 -0.3482 -0.6319  0.0275
47626SOL    HW149928   5.928   8.058   6.553 -1.9350 -1.0346  1.2282
47626SOL    HW249929   5.865   8.195   6.562 -1.3402 -0.6435 -0.1438
47627SOL     OW49930  11.020   9.779   4.905 -0.4311  0.1382  0.1321
47627SOL    HW149931  11.073   9.822   4.972 -1.0172  0.9079  0.1189
47627SOL    HW249932  11.064   9.695   4.889 -0.3694 -0.1253  1.5754
47628SOL     OW49933   3.274   2.861   2.364  0.1947  0.5095 -0.0721
47628SOL    HW149934   3.251   2.952   2.344 -1.8704 -0.1618 -1.0231
47628SOL    HW249935   3.263   2.814   2.281 -0.1485 -0.8553  0.7086
47629SOL     OW49936   4.360   9.712  12.510 -0.3467 -0.4032  0.6908
47629SOL    HW149937   4.386   9.769  12.437 -0.2659  1.2522  1.9732
47629SOL    HW249938   4.277   9.674  12.482 -2.1454  2.9064  1.0747
47630SOL     OW49939   6.348  11.480   1.002 -0.5438  0.1719 -0.0612
47630SOL    HW149940   6.345  11.569   1.037  0.5732 -0.6253  2.2614
47630SOL    HW249941   6.262  11.467   0.962 -0.4408  2.5451 -1.2779
47631SOL     OW49942   8.580   4.295   5.024 -0.3728  0.2075 -0.2897
47631SOL    HW149943   8.629   4.378   5.030  0.7446 -0.4649  0.2792
47631SOL    HW249944   8.499   4.318   4.979  0.3630  1.4154 -1.0558
47632SOL     OW49945   7.360   2.623   3.260  0.1926  0.4527  0.6297
47632SOL    HW149946   7.278   2.672   3.254  1.5928  2.8990  0.2304
47632SOL    HW249947   7.355   2.559   3.189 -0.1117  2.6816 -1.4969
47633SOL     OW49948   3.855   7.306  10.595 -0.2643  0.0239  0.1589
47633SOL    HW149949   3.837   7.217  10.563  0.0007  0.2023 -0.5009
47633SOL    HW249950   3.898   7.350  10.522 -0.0978  0.6027  0.5930
47634SOL     OW49951   6.546   1.152  10.632  0.3559  0.0761 -0.0489
47634SOL    HW149952   6.513   1.177  10.719  0.8213 -0.8543  0.4118
47634SOL    HW249953   6.626   1.202  10.621  1.3667 -1.2598  0.9343
47635SOL     OW49954   8.761   8.177   9.546 -0.0435 -0.1075 -0.2258
47635SOL    HW149955   8.706   8.239   9.595  0.7526  0.0685  0.4775
47635SOL    HW249956   8.833   8.158   9.606  1.6190  1.0524 -1.7485
47636SOL     OW49957   1.040   5.539   1.664  0.3423  0.5832  0.0820
47636SOL    HW149958   1.032   5.631   1.692 -1.0681 -0.2859  2.9098
47636SOL    HW249959   0.955   5.519   1.625 -0.4672 -0.2600  2.1590
47637SOL     OW49960   6.044   3.419   7.736  0.0090 -0.4053 -0.1190
47637SOL    HW149961   6.068   3.451   7.823 -0.7633 -1.1275  0.3789
47637SOL    HW249962   6.125   3.424   7.685  0.6737 -0.7240  0.8781
47638SOL     OW49963  12.503   1.770   0.759 -0.1628  0.1286 -0.0575
47638SOL    HW149964  12.541   1.684   0.742 -0.3062  0.1101 -0.2855
47638SOL    HW249965  12.409   1.755   0.760 -0.1468 -0.0644  1.7943
47639SOL     OW49966   8.845   8.221   0.657  0.2629  0.2969 -0.2445
47639SOL    HW149967   8.889   8.306   0.656  2.1353 -0.6067  0.0870
47639SOL    HW249968   8.864   8.185   0.743  0.3508 -0.8500 -0.7234
47640SOL     OW49969   0.591   7.652   3.782 -0.0289  0.0393 -0.5069
47640SOL    HW149970   0.571   7.560   3.769 -0.4810  0.2586 -1.4948
47640SOL    HW249971   0.687   7.656   3.784 -0.0123 -0.5555  0.5037
47641SOL     OW49972   7.457   6.269   7.283  0.2663  0.5058  0.3242
47641SOL    HW149973   7.498   6.347   7.244 -0.0060  0.0698 -0.8619
47641SOL    HW249974   7.525   6.202   7.279  0.7450  0.8594  2.0104
47642SOL     OW49975   1.832   2.309   7.056 -0.0726 -0.2537  0.6170
47642SOL    HW149976   1.770   2.381   7.061  1.5786  1.2576  0.4584
47642SOL    HW249977   1.831   2.270   7.144 -2.4907 -1.4414  0.1382
47643SOL     OW49978   9.836  10.022  10.773 -0.2564  0.0897 -0.3413
47643SOL    HW149979   9.757  10.012  10.721 -0.4431 -2.6003  0.3555
47643SOL    HW249980   9.887   9.943  10.757  1.2800  0.7413  0.9334
47644SOL     OW49981   8.630   2.823   6.352  0.5194  0.1112 -0.1197
47644SOL    HW149982   8.587   2.908   6.350  0.5960  0.1353 -0.8811
47644SOL    HW249983   8.693   2.826   6.280  2.7939  0.5968  1.7605
47645SOL     OW49984  11.394   8.797   8.610 -0.0776 -1.3779 -0.0520
47645SOL    HW149985  11.437   8.732   8.664  0.0075 -1.0472  0.2832
47645SOL    HW249986  11.465   8.838   8.560 -0.0240 -0.9439  0.3809
47646SOL     OW49987   2.133   8.461   7.945 -0.2890  0.3303  0.0533
47646SOL    HW149988   2.069   8.486   7.878 -0.1326  1.0976  0.1765
47646SOL    HW249989   2.199   8.530   7.941 -0.5277  0.6553  1.3282
47647SOL     OW49990   1.716   7.473   9.868 -0.0376 -0.1858  0.1864
47647SOL    HW149991   1.663   7.428   9.802 -0.0223 -0.8053  0.5918
47647SOL    HW249992   1.663   7.548   9.894 -1.9284 -2.1760  2.4777
47648SOL     OW49993   5.693   6.541   2.904 -0.9113 -0.2483  0.6982
47648SOL    HW149994   5.659   6.500   2.824  1.1298 -0.3259 -0.1938
47648SOL    HW249995   5.668   6.633   2.897 -0.1805 -0.1169 -0.3827
47649SOL     OW49996   4.138   6.992   4.735  0.2294 -0.0978 -0.4322
47649SOL    HW149997   4.089   6.912   4.720  2.4124 -1.4283 -0.9863
47649SOL    HW249998   4.165   6.987   4.827 -0.3646  0.4513 -0.2237
47650SOL     OW49999   6.253  10.736   7.044 -0.6724  0.8094  0.0925
47650SOL    HW150000   6.168  10.778   7.058 -0.6540  0.5897  0.9545
47650SOL    HW250001   6.281  10.711   7.132  0.5672  1.4274 -0.1094
47651SOL     OW50002   0.364  10.167  11.486  0.0241 -0.1311 -0.0579
47651SOL    HW150003   0.321  10.161  11.571  2.0827 -0.4407  1.0403
47651SOL    HW250004   0.421  10.244  11.493 -0.4220  0.3812 -1.5160
47652SOL     OW50005  11.887   7.180  12.260 -0.8465  0.0865  0.0422
47652SOL    HW150006  11.976   7.208  12.280 -0.5230  0.5342 -1.8431
47652SOL    HW250007  11.876   7.098  12.308  0.9489 -0.4947 -0.4654
47653SOL     OW50008   1.129   3.118   6.626 -0.0432  0.3794  0.1737
47653SOL    HW150009   1.202   3.172   6.596 -0.7431  2.5912  2.1664
47653SOL    HW250010   1.169   3.052   6.682  0.5867  0.3102 -0.3469
47654SOL     OW50011   0.262  10.604  12.285  0.4124 -0.0692 -0.5217
47654SOL    HW150012   0.295  10.691  12.262  1.8150  0.1550  1.9288
47654SOL    HW250013   0.301  10.546  12.220  1.9949  0.7830 -0.3983
47655SOL     OW50014  11.232   3.966   1.880  0.1531  0.4853  0.1095
47655SOL    HW150015  11.245   3.877   1.912  1.6281  0.4138 -0.6225
47655SOL    HW250016  11.283   4.021   1.940 -1.8226  1.0458  1.3868
47656SOL     OW50017   3.409   7.111   2.612  0.9376  0.3974  0.5398
47656SOL    HW150018   3.371   7.063   2.539 -0.0341  2.7913 -0.6622
47656SOL    HW250019   3.415   7.047   2.683  1.8550 -2.0157 -1.5719
47657SOL     OW50020  10.215  10.799   0.809 -0.4863 -0.1013  0.1850
47657SOL    HW150021  10.128  10.789   0.770 -0.1954 -0.3294 -0.4189
47657SOL    HW250022  10.206  10.763   0.898 -0.5143 -1.9568 -0.5312
47658SOL     OW50023   3.885  10.342   8.468 -0.6379  0.1327  0.1245
47658SOL    HW150024   3.884  10.366   8.560  1.1867 -1.8918  0.7807
47658SOL    HW250025   3.912  10.250   8.468 -1.8977 -0.3296 -2.3797
47659SOL     OW50026   3.610   0.136   8.616 -0.5573  0.6671  0.1721
47659SOL    HW150027   3.517   0.139   8.593 -0.4097  2.7104 -0.2939
47659SOL    HW250028   3.613   0.077   8.691 -2.0982 -0.1431 -0.3423
47660SOL     OW50029  11.269   8.208   6.264 -0.4715  0.2144  0.5385
47660SOL    HW150030  11.338   8.143   6.275  0.5124  1.3169  1.1391
47660SOL    HW250031  11.207   8.190   6.335 -0.1717 -0.0141  0.7409
47661SOL     OW50032   8.266   2.434   9.213  0.1691  0.0213  0.0216
47661SOL    HW150033   8.187   2.411   9.261  0.1137 -0.2128 -0.1796
47661SOL    HW250034   8.338   2.400   9.267  0.0899 -0.6025 -0.2534
47662SOL     OW50035   3.147   4.380   8.473  0.3129  0.1766  0.1939
47662SOL    HW150036   3.224   4.391   8.528  0.3959  0.7102 -0.0298
47662SOL    HW250037   3.077   4.357   8.534  0.6932 -0.5610  0.3723
47663SOL     OW50038   8.096   7.769   7.313 -0.0454 -0.8354 -0.3355
47663SOL    HW150039   8.128   7.725   7.234  0.1630 -0.2426 -0.5899
47663SOL    HW250040   8.162   7.750   7.379 -1.0684 -2.7703  0.1888
47664SOL     OW50041   5.314  11.052   8.384  0.3564 -0.7049  0.1382
47664SOL    HW150042   5.308  11.082   8.474 -0.5323 -0.7889  0.1154
47664SOL    HW250043   5.352  11.126   8.336 -1.5678  0.3308  0.1267
47665SOL     OW50044  11.861   7.442   3.660 -0.3561 -0.3391 -0.3024
47665SOL    HW150045  11.867   7.538   3.654 -0.7393 -0.3739 -1.4439
47665SOL    HW250046  11.771   7.422   3.637 -0.5888 -0.9231  1.0197
47666SOL     OW50047   8.846   3.889   4.444  0.0502  0.2648  0.6180
47666SOL    HW150048   8.834   3.923   4.355 -0.1839 -0.4899  0.3502
47666SOL    HW250049   8.927   3.838   4.439 -0.5266 -0.6692  0.5532
47667SOL     OW50050   1.236   8.076   0.216 -0.3849  0.1732 -0.5509
47667SOL    HW150051   1.319   8.121   0.198 -0.9097  0.6836 -1.7707
47667SOL    HW250052   1.171   8.127   0.168 -1.0977 -1.5248 -1.4300
47668SOL     OW50053   8.574   2.441  12.502  0.1226  0.2820 -0.0930
47668SOL    HW150054   8.629   2.400  12.569  0.6806  3.9029  1.9349
47668SOL    HW250055   8.511   2.493  12.552 -2.2183 -0.1024 -2.4293
47669SOL     OW50056   5.868  10.329   1.258  0.2897  0.6002 -0.1622
47669SOL    HW150057   5.926  10.353   1.185  0.6614  0.9897  0.2520
47669SOL    HW250058   5.888  10.236   1.274  1.3036  0.8958  0.4091
47670SOL     OW50059  10.407   0.178   5.242 -0.3067  0.7940 -0.2172
47670SOL    HW150060  10.330   0.222   5.204 -0.1755  2.0690  0.9263
47670SOL    HW250061  10.391   0.179   5.336  1.4514  1.8058  0.1196
47671SOL     OW50062   5.423  12.281  12.190  0.6193 -0.4341  0.5189
47671SOL    HW150063   5.505  12.267  12.238  0.3744 -0.2006  1.0190
47671SOL    HW250064   5.416  12.376  12.184  1.2293 -0.4577 -1.0137
47672SOL     OW50065  10.162   7.479   3.049 -0.1811 -0.3425  0.0354
47672SOL    HW150066  10.127   7.392   3.027  1.2806 -1.3707  1.5582
47672SOL    HW250067  10.146   7.488   3.143  0.6581  0.5819  0.0992
47673SOL     OW50068   4.318   9.545   3.263 -0.2647 -0.1060  0.2843
47673SOL    HW150069   4.380   9.491   3.312  0.6304  0.7547  0.1305
47673SOL    HW250070   4.249   9.484   3.236 -0.1354 -0.8415  1.5193
47674SOL     OW50071   2.385   3.238   0.984  0.0775 -0.1355 -0.1776
47674SOL    HW150072   2.462   3.226   1.039  0.8229 -0.4987 -1.2638
47674SOL    HW250073   2.419   3.279   0.904 -0.7289 -1.0081 -0.9913
47675SOL     OW50074   3.272   8.169   3.956  0.0737  0.6679  0.2841
47675SOL    HW150075   3.222   8.117   4.019 -0.6650  2.1982  0.9864
47675SOL    HW250076   3.351   8.117   3.940 -0.8876 -0.9292  0.5292
47676SOL     OW50077   3.054  11.338   9.053 -0.7176 -0.5588 -0.5723
47676SOL    HW150078   3.109  11.262   9.072 -1.2060 -1.2957 -1.9414
47676SOL    HW250079   3.087  11.406   9.111  0.5400 -1.4583 -0.1730
47677SOL     OW50080  10.914   5.237   5.267 -0.1887  0.2354 -0.3502
47677SOL    HW150081  10.927   5.148   5.235 -0.8271  0.2113 -0.5513
47677SOL    HW250082  10.978   5.246   5.338 -1.1177 -0.8972  0.6674
47678SOL     OW50083   8.876  10.968   9.349  0.6372 -0.0094 -0.5419
47678SOL    HW150084   8.803  10.935   9.295  0.0622 -1.4038  0.9953
47678SOL    HW250085   8.837  10.982   9.435  1.6982  1.5173 -0.2830
47679SOL     OW50086   1.889  12.336  10.150  0.6286  1.0224  0.1603
47679SOL    HW150087   1.914  12.394  10.222  0.7393  0.6065  0.4604
47679SOL    HW250088   1.972  12.307  10.111  0.5630  2.2875 -0.9933
47680SOL     OW50089   2.616  10.207   6.093  0.3540 -0.1263  0.8019
47680SOL    HW150090   2.670  10.270   6.140  0.2472  0.3783  0.2511
47680SOL    HW250091   2.601  10.246   6.007  0.8110 -1.1817  0.2181
47681SOL     OW50092  10.122   9.976   8.167  0.0313 -0.1770  0.4180
47681SOL    HW150093  10.065  10.012   8.098  2.1007  0.9193 -0.8398
47681SOL    HW250094  10.210   9.997   8.137  1.0534 -0.5361  2.9960
47682SOL     OW50095   2.085   6.827   4.284 -0.1615 -0.1384  0.1516
47682SOL    HW150096   2.056   6.841   4.194 -2.0271  2.5864  1.0262
47682SOL    HW250097   2.172   6.866   4.288 -0.3250  0.2833 -0.3242
47683SOL     OW50098   1.332   2.041   9.586 -0.4578  0.6460 -0.2118
47683SOL    HW150099   1.306   2.083   9.668 -2.6165  0.1263 -0.5632
47683SOL    HW250100   1.320   2.108   9.519 -0.6939  0.4752 -0.3452
47684SOL     OW50101  11.362  11.709   8.951  0.3145 -0.6254 -0.4026
47684SOL    HW150102  11.441  11.762   8.963  0.5292 -1.1194  0.4886
47684SOL    HW250103  11.352  11.701   8.856  0.5121  0.6508 -0.5497
47685SOL     OW50104   7.092  11.936   7.175 -0.2403 -0.1851  0.0221
47685SOL    HW150105   7.004  11.945   7.137 -0.1661 -0.9065 -0.3453
47685SOL    HW250106   7.111  11.843   7.167  0.7964  0.0541 -0.4231
47686SOL     OW50107   9.952  10.205   1.391  0.2947  0.1041  0.0303
47686SOL    HW150108   9.884  10.220   1.456  0.2292 -0.1504  0.0201
47686SOL    HW250109   9.919  10.133   1.337  0.6164 -0.0963  0.0933
47687SOL     OW50110   8.077  12.235   8.608  0.4725  0.4212  0.4171
47687SOL    HW150111   8.004  12.288   8.577  1.2548  0.7367 -1.0214
47687SOL    HW250112   8.041  12.147   8.619 -0.6865  1.0722  2.1952
47688SOL     OW50113   9.144   9.352   3.623  0.2159  0.1052  0.2824
47688SOL    HW150114   9.051   9.367   3.603  0.1409  0.8705  1.1748
47688SOL    HW250115   9.175   9.299   3.549  0.0250  3.0787 -2.1457
47689SOL     OW50116   0.838  11.425   8.165 -0.1875 -1.0270 -0.2007
47689SOL    HW150117   0.748  11.427   8.196 -0.5804 -2.7761 -1.1083
47689SOL    HW250118   0.884  11.487   8.222 -2.0321  0.2930 -0.0539
47690SOL     OW50119  12.094   5.251   6.546 -0.2253  0.3828  0.6368
47690SOL    HW150120  12.159   5.308   6.586 -0.6429  2.1021 -1.0113
47690SOL    HW250121  12.123   5.239   6.456 -0.4736 -1.5761  0.7609
47691SOL     OW50122   1.223   0.074  11.946 -0.3629 -0.5684 -0.0898
47691SOL    HW150123   1.286   0.084  12.017  1.9668  0.7535 -2.1840
47691SOL    HW250124   1.160   0.145  11.959 -0.6623 -1.0598  1.2633
47692SOL     OW50125   2.489   9.576   8.383 -0.1655  0.3634  0.1578
47692SOL    HW150126   2.486   9.605   8.292 -1.2288  0.6569  0.2796
47692SOL    HW250127   2.493   9.480   8.378  1.2976  0.4099 -0.2037
47693SOL     OW50128   5.583   6.951   9.971 -0.6339  0.3069  0.1184
47693SOL    HW150129   5.619   7.014   9.909 -0.9247  1.3072  0.9518
47693SOL    HW250130   5.573   6.870   9.920  1.9659  0.2196 -0.3655
47694SOL     OW50131   0.152   7.205   5.011  0.3285  0.1359  0.1377
47694SOL    HW150132   0.095   7.152   5.066  0.9756  0.5313  1.2244
47694SOL    HW250133   0.228   7.225   5.067  0.3922  1.6728 -0.4461
47695SOL     OW50134  11.324   9.048   9.276 -0.1624 -0.7308  0.7290
47695SOL    HW150135  11.389   9.017   9.213  0.5219  2.1692 -0.1561
47695SOL    HW250136  11.268   9.107   9.226  1.1946  2.7510  2.9681
47696SOL     OW50137  12.329   2.413   2.127  0.2000 -0.4445 -0.4920
47696SOL    HW150138  12.257   2.466   2.161  0.2520  0.0807 -1.2025
47696SOL    HW250139  12.347   2.350   2.197 -1.2638 -0.8914 -0.5033
47697SOL     OW50140   1.009   0.825   9.441 -0.1731 -0.1168  0.5296
47697SOL    HW150141   1.075   0.777   9.491  1.1654 -0.6972 -1.6412
47697SOL    HW250142   1.037   0.916   9.446  0.4579 -0.2802  0.1806
47698SOL     OW50143  10.456   5.462   6.521 -0.0194 -0.1519  0.4727
47698SOL    HW150144  10.513   5.417   6.459 -0.6238  0.5878 -0.6565
47698SOL    HW250145  10.501   5.456   6.605  0.8557 -1.1063 -0.0492
47699SOL     OW50146  10.112   6.996   4.148 -0.0753  0.4113  0.3450
47699SOL    HW150147  10.191   6.976   4.097  0.1029  0.7256  0.4920
47699SOL    HW250148  10.044   7.008   4.082 -0.1166 -0.3617  0.2411
47700SOL     OW50149   1.429   4.994  10.438 -0.0377  0.6119 -0.0981
47700SOL    HW150150   1.334   4.995  10.429 -0.0038  0.2838 -0.5142
47700SOL    HW250151   1.459   4.932  10.372  0.4625  0.6670  0.0718
47701SOL     OW50152   6.084   0.435   7.935  0.2350 -0.0171 -0.3280
47701SOL    HW150153   6.154   0.391   7.888  0.2628 -0.0633 -0.2448
47701SOL    HW250154   6.075   0.520   7.892 -0.9179 -0.7160 -1.5380
47702SOL     OW50155  12.206   0.136  11.943 -0.4310  0.0177  0.1097
47702SOL    HW150156  12.195   0.145  12.038 -0.5341 -0.2066  0.1189
47702SOL    HW250157  12.298   0.157  11.928 -0.6117  0.8666  0.1578
47703SOL     OW50158   9.181   9.933   5.578 -0.5811  0.2953  0.1254
47703SOL    HW150159   9.173   9.867   5.510 -0.3820  1.5091 -1.1215
47703SOL    HW250160   9.270   9.923   5.611 -0.3394  0.3281 -0.4955
47704SOL     OW50161   4.196   4.142  12.208 -0.6412 -0.3917  0.0977
47704SOL    HW150162   4.289   4.155  12.190 -0.6201  0.0757  0.5121
47704SOL    HW250163   4.162   4.103  12.128 -0.2448  0.1866 -0.3706
47705SOL     OW50164   8.594   5.377   5.605  0.1577 -0.4327  0.1219
47705SOL    HW150165   8.652   5.439   5.651  0.5643 -1.5759  1.2150
47705SOL    HW250166   8.539   5.432   5.550  0.0395  0.9752  1.5682
47706SOL     OW50167   2.801   8.520  10.611 -0.5525 -0.1257 -0.5374
47706SOL    HW150168   2.822   8.568  10.530 -1.0332 -0.3481 -0.7953
47706SOL    HW250169   2.885   8.512  10.656 -0.1834 -0.4719 -1.2698
47707SOL     OW50170  12.126   3.600   3.443  0.6248 -0.2711 -0.5612
47707SOL    HW150171  12.163   3.580   3.356  1.3316  0.2485 -0.3892
47707SOL    HW250172  12.128   3.696   3.448 -1.0521 -0.2119 -0.6645
47708SOL     OW50173   2.715   2.504  10.754 -0.0337 -0.1784  0.4391
47708SOL    HW150174   2.795   2.483  10.706  0.2118 -1.5567  1.4210
47708SOL    HW250175   2.648   2.511  10.685  0.5982 -0.6290 -0.2433
47709SOL     OW50176  10.906   7.867   3.902  1.0380  0.2779  0.1435
47709SOL    HW150177  10.918   7.776   3.931  1.3710  0.9285  2.2160
47709SOL    HW250178  10.847   7.905   3.966  0.9336  1.5459 -0.6820
47710SOL     OW50179   4.935  11.442   4.232 -0.2350 -0.5096  0.3259
47710SOL    HW150180   5.028  11.434   4.251  0.1746 -0.2102 -1.4020
47710SOL    HW250181   4.892  11.424   4.315  1.4124  1.0475  1.5985
47711SOL     OW50182   9.505   5.941   5.352  0.0493  0.2226  0.4882
47711SOL    HW150183   9.476   6.023   5.392 -0.3934 -0.9330  2.6756
47711SOL    HW250184   9.506   5.878   5.424  1.1304 -1.5227 -0.9748
47712SOL     OW50185   5.320   7.267   1.605  0.5448 -0.1370  0.2778
47712SOL    HW150186   5.331   7.173   1.594  1.7298 -0.1076  0.9506
47712SOL    HW250187   5.343   7.283   1.697  0.6725  0.8430  0.0894
47713SOL     OW50188  12.071  12.223  11.168 -0.3493 -0.4801 -0.1580
47713SOL    HW150189  12.154  12.269  11.179 -0.2985 -0.8557  1.2093
47713SOL    HW250190  12.070  12.197  11.076  1.4634 -1.2415  0.0028
47714SOL     OW50191   6.220  10.140   8.508  0.2073 -0.2485  0.0938
47714SOL    HW150192   6.142  10.097   8.473  0.1859 -0.0984 -0.0416
47714SOL    HW250193   6.277  10.152   8.432  0.3089 -0.2452  0.1717
47715SOL     OW50194   6.024   3.236  10.602 -0.7342  0.3131 -0.2240
47715SOL    HW150195   6.089   3.270  10.541 -0.8079  1.3221  0.2527
47715SOL    HW250196   5.950   3.296  10.595 -0.7795  0.3945  0.7884
47716SOL     OW50197   6.873   3.024   9.303 -0.0684  0.2225  0.2842
47716SOL    HW150198   6.956   3.003   9.261 -0.2541  1.2204 -0.6286
47716SOL    HW250199   6.806   3.005   9.237 -0.5927 -0.7375  1.0685
47717SOL     OW50200   8.191  11.946   0.996  0.0674  0.3368 -0.3469
47717SOL    HW150201   8.125  11.930   1.064  0.7709  0.0864  0.2878
47717SOL    HW250202   8.211  12.039   1.003  2.5200 -0.2456  2.0511
47718SOL     OW50203  12.170   5.592   4.457 -0.0416  0.3660 -0.1977
47718SOL    HW150204  12.227   5.615   4.384  0.1530  0.9086  0.1286
47718SOL    HW250205  12.155   5.498   4.446  0.6952  0.2707 -0.4332
47719SOL     OW50206   4.512   2.201  12.466  0.4384 -0.5004  0.1101
47719SOL    HW150207   4.447   2.236  12.404  1.4231  2.2922  0.5114
47719SOL    HW250208   4.513   2.265  12.537  2.5394 -1.2650  0.8218
47720SOL     OW50209   9.869   5.364   6.409 -0.3159  0.0441  0.0058
47720SOL    HW150210   9.923   5.285   6.406  0.5842  0.6431  0.0955
47720SOL    HW250211   9.898   5.417   6.335  2.2897  2.2651  2.3310
47721SOL     OW50212  10.329  10.081   8.656 -0.0058  0.4339 -0.0511
47721SOL    HW150213  10.295  10.159   8.700 -0.0089 -0.0046  0.7274
47721SOL    HW250214  10.306  10.095   8.564  0.0121  1.3612  0.0702
47722SOL     OW50215   9.109   5.456  12.262  0.3535 -0.5645  0.2376
47722SOL    HW150216   9.058   5.425  12.187 -0.8896 -0.8637  1.1692
47722SOL    HW250217   9.062   5.421  12.338  0.2864  1.6218  1.2511
47723SOL     OW50218   1.034   2.333   8.687  0.4466 -0.1453 -0.3276
47723SOL    HW150219   0.966   2.320   8.753  1.2707  0.4344  0.6475
47723SOL    HW250220   1.081   2.249   8.685  1.0475  0.1621  0.5521
47724SOL     OW50221   2.612  11.424   9.436 -0.0433  0.3370  0.5415
47724SOL    HW150222   2.575  11.446   9.522 -0.0873  0.7168  0.4251
47724SOL    HW250223   2.687  11.483   9.426  0.1289  0.1004  0.4403
47725SOL     OW50224   6.665   0.161   0.360 -0.0567 -0.4647  0.3746
47725SOL    HW150225   6.734   0.163   0.295 -0.3588 -0.1686  0.0572
47725SOL    HW250226   6.680   0.239   0.414 -0.9509  0.3815 -0.5558
47726SOL     OW50227  11.894   5.960   2.188  0.1411  0.3527 -0.6281
47726SOL    HW150228  11.924   5.966   2.279 -0.7026  0.0548 -0.3206
47726SOL    HW250229  11.801   5.979   2.192 -0.0988 -0.5751 -1.2963
47727SOL     OW50230   0.494   3.691   3.068  0.0556 -0.4633  0.7957
47727SOL    HW150231   0.467   3.659   2.982  1.9869  2.1713 -0.9629
47727SOL    HW250232   0.486   3.786   3.062  1.7356 -0.0993  2.9510
47728SOL     OW50233   0.792   4.408  11.791  0.1119  0.0742 -0.5687
47728SOL    HW150234   0.779   4.455  11.709  0.4211  1.4743  0.1539
47728SOL    HW250235   0.878   4.367  11.782  0.3397  0.5958 -0.7668
47729SOL     OW50236   9.172   7.299   2.180 -0.0420 -0.3749 -0.9470
47729SOL    HW150237   9.199   7.369   2.120 -0.1757  0.2609 -0.2890
47729SOL    HW250238   9.233   7.307   2.254 -2.3977  1.6369  0.9746
47730SOL     OW50239   9.214   1.668   5.271  0.8241  0.6115  0.8069
47730SOL    HW150240   9.165   1.750   5.280  0.5287  0.5527 -0.1881
47730SOL    HW250241   9.276   1.684   5.201 -1.3844 -0.9832 -1.6994
47731SOL     OW50242   2.647   5.063   3.648 -0.0407  0.3711 -0.2476
47731SOL    HW150243   2.715   5.084   3.584  0.6753 -1.3718 -0.1199
47731SOL    HW250244   2.572   5.036   3.595  0.1289  0.1344 -0.3693
47732SOL     OW50245   1.530  11.229  12.076  0.1115 -0.3467 -0.9717
47732SOL    HW150246   1.437  11.247  12.088  0.0081 -0.8202 -1.0230
47732SOL    HW250247   1.540  11.212  11.983  0.1961 -0.5736 -0.9232
47733SOL     OW50248   8.174   4.344   6.722  0.0251  0.0217 -0.3927
47733SOL    HW150249   8.232   4.344   6.645  0.2177  1.0896 -0.2625
47733SOL    HW250250   8.230   4.316   6.794  0.2419  0.4974 -0.3716
47734SOL     OW50251   1.257   0.545   1.702  0.5609  0.3100  0.1468
47734SOL    HW150252   1.341   0.545   1.656  0.3745  1.9384 -0.2715
47734SOL    HW250253   1.278   0.523   1.792  1.4563  0.8164  0.0691
47735SOL     OW50254   5.400   2.033   8.884  0.6460 -0.4784  0.5958
47735SOL    HW150255   5.341   2.095   8.927  1.7965  0.2087  1.2408
47735SOL    HW250256   5.342   1.972   8.839 -0.6522 -1.0183  2.8198
47736SOL     OW50257  10.020   0.497   7.962 -0.2757 -1.1169  0.0977
47736SOL    HW150258  10.001   0.443   8.039  0.9217 -1.0796  0.4300
47736SOL    HW250259  10.104   0.465   7.930  1.0309  1.2082  0.9399
47737SOL     OW50260  11.197   2.342   6.561  0.4846  0.1184  0.1028
47737SOL    HW150261  11.211   2.377   6.473  1.8379 -1.1451 -0.2298
47737SOL    HW250262  11.115   2.382   6.590  1.0641  2.1520 -0.8983
47738SOL     OW50263   9.278  10.750   2.394  0.7169 -0.1237  1.0557
47738SOL    HW150264   9.317  10.672   2.354  1.3070  0.5857  0.1916
47738SOL    HW250265   9.318  10.823   2.347 -0.8455  0.6744  0.8891
47739SOL     OW50266   7.976   8.213   0.418  0.2549  0.3915 -0.1895
47739SOL    HW150267   8.066   8.184   0.436  0.7146  0.9158 -1.5515
47739SOL    HW250268   7.945   8.245   0.503  0.9668 -0.7772  0.5470
47740SOL     OW50269   2.473   0.458   2.976  0.5324  1.0897  0.0157
47740SOL    HW150270   2.483   0.394   2.906 -1.1367  1.6160 -0.7489
47740SOL    HW250271   2.380   0.455   2.999  1.0669  0.7316  2.4425
47741SOL     OW50272   5.569  10.143   3.488  0.7104 -0.1044 -0.0612
47741SOL    HW150273   5.621  10.122   3.565  1.5776  0.7708 -0.3877
47741SOL    HW250274   5.631  10.137   3.415  0.0354 -0.3614 -0.6257
47742SOL     OW50275   5.849  11.114  11.294 -0.4050 -0.1662 -0.1764
47742SOL    HW150276   5.924  11.161  11.259 -1.5752  1.3402 -0.7743
47742SOL    HW250277   5.793  11.182  11.332 -0.1298 -1.5227  2.9269
47743SOL     OW50278   9.107   9.543   4.112  0.2206 -0.0937 -0.3295
47743SOL    HW150279   9.186   9.502   4.149 -1.3989 -3.7280 -0.4912
47743SOL    HW250280   9.041   9.533   4.180 -0.6153  1.2028 -0.9142
47744SOL     OW50281   9.997   3.669   2.749  0.2466 -0.2823  0.6391
47744SOL    HW150282  10.016   3.704   2.837  1.7645  1.5778 -0.3547
47744SOL    HW250283   9.926   3.725   2.717 -0.2120 -0.8714  0.6202
47745SOL     OW50284   6.205   1.377   3.436  0.2428  0.3090  0.1584
47745SOL    HW150285   6.132   1.436   3.454 -0.9038 -1.3164  1.0540
47745SOL    HW250286   6.247   1.414   3.358 -0.0857  2.5730  0.9900
47746SOL     OW50287   0.400   2.113   6.141 -0.2813 -0.5496  0.1111
47746SOL    HW150288   0.342   2.148   6.074 -2.7292 -1.1252  1.7874
47746SOL    HW250289   0.462   2.184   6.159 -2.1332  1.1545  0.0837
47747SOL     OW50290   9.859   8.139   1.726 -0.2936 -0.4782  0.2185
47747SOL    HW150291   9.855   8.232   1.704 -2.2000 -0.4926  0.3797
47747SOL    HW250292   9.922   8.135   1.798  2.2566  0.2080 -1.8314
47748SOL     OW50293   9.603   8.313  11.168  0.0883 -0.3648 -0.2208
47748SOL    HW150294   9.540   8.334  11.237 -0.7708 -0.0171 -1.0889
47748SOL    HW250295   9.641   8.230  11.195 -2.3280 -1.7308 -0.7247
47749SOL     OW50296  11.936   7.280   2.360 -0.6074  0.1929  0.2012
47749SOL    HW150297  11.989   7.222   2.415  2.7242  1.5750 -1.3341
47749SOL    HW250298  11.968   7.367   2.380 -0.9122  0.9273 -2.2284
47750SOL     OW50299   1.353  12.151  11.061  1.1063  0.6192  0.0237
47750SOL    HW150300   1.410  12.166  11.137  0.2873  0.7066  0.6394
47750SOL    HW250301   1.311  12.067  11.078 -0.1293  1.2835  0.3659
47751SOL     OW50302  12.348   9.652   3.564  0.9220 -0.5431 -0.3360
47751SOL    HW150303  12.359   9.622   3.654  1.3327  0.5254 -0.0200
47751SOL    HW250304  12.415   9.605   3.515  0.7744 -1.0415 -0.0630
47752SOL     OW50305   3.360   9.262   2.702  0.3665  0.5389  0.3043
47752SOL    HW150306   3.322   9.349   2.716  0.5570  1.0411 -1.8977
47752SOL    HW250307   3.304   9.222   2.636  0.3062 -1.0276  1.2753
47753SOL     OW50308   1.182   1.035  12.256 -0.0473 -0.0831 -0.3995
47753SOL    HW150309   1.108   1.094  12.271 -1.7652 -1.2070 -3.4541
47753SOL    HW250310   1.217   1.061  12.171 -0.5902 -3.0574 -1.6564
47754SOL     OW50311   8.568   3.740  11.199  0.3552 -0.3139  0.3126
47754SOL    HW150312   8.487   3.762  11.245  0.2271  0.1158 -0.1129
47754SOL    HW250313   8.545   3.665  11.144  0.1939 -0.0773  0.0528
47755SOL     OW50314   5.707   6.520   4.832  0.6024  0.5476 -0.4138
47755SOL    HW150315   5.802   6.536   4.827  0.9189 -0.0879  2.0727
47755SOL    HW250316   5.687   6.473   4.751  2.6912 -0.5515 -0.3755
47756SOL     OW50317   3.915   6.126   3.042 -0.3853 -0.0382 -0.1367
47756SOL    HW150318   3.989   6.112   2.983  0.8054 -1.0564  1.4926
47756SOL    HW250319   3.838   6.126   2.985  0.7669  0.0213 -1.7755
47757SOL     OW50320   7.589   6.541   5.658 -0.5527  0.1878 -0.1014
47757SOL    HW150321   7.575   6.565   5.750 -2.4263 -0.0416 -0.2818
47757SOL    HW250322   7.510   6.570   5.613 -0.4957 -1.3732 -1.3018
47758SOL     OW50323   7.486   6.107   1.037 -0.0801  0.3064  0.3550
47758SOL    HW150324   7.567   6.093   0.989 -1.2135  0.2730 -1.7062
47758SOL    HW250325   7.480   6.033   1.097  0.5931 -0.6245 -0.6831
47759SOL     OW50326   9.695   0.109   2.732  0.1456  0.2713  0.8752
47759SOL    HW150327   9.642   0.030   2.718  1.4131 -0.5319  0.4252
47759SOL    HW250328   9.754   0.112   2.657  0.1796  1.6244  0.9287
47760SOL     OW50329   4.399   8.737   6.093 -0.3242  0.0391 -0.5562
47760SOL    HW150330   4.456   8.686   6.036 -0.6276 -0.0881 -0.7532
47760SOL    HW250331   4.311   8.702   6.075 -0.3535 -0.4172  0.4264
47761SOL     OW50332  12.594   1.128   1.324 -0.1041  0.4946 -0.3315
47761SOL    HW150333  12.629   1.147   1.237 -0.9293 -1.0642 -1.0569
47761SOL    HW250334  12.511   1.175   1.328  0.6772  1.8787  0.2786
47762SOL     OW50335   1.417   4.226   9.039 -0.0536  0.6782 -0.4010
47762SOL    HW150336   1.348   4.255   9.099 -1.4474 -0.5383 -1.3232
47762SOL    HW250337   1.491   4.284   9.057 -0.5275  0.6208  2.1981
47763SOL     OW50338   0.451  11.370   6.822 -0.2768 -0.3593 -0.3769
47763SOL    HW150339   0.428  11.278   6.809 -0.1531 -0.7423  1.7157
47763SOL    HW250340   0.369  11.417   6.813 -1.0355 -1.1134  1.8176
47764SOL     OW50341   1.086   5.793  11.726 -0.4201 -0.0624 -0.0275
47764SOL    HW150342   1.089   5.863  11.661  0.1274  0.5375  0.6248
47764SOL    HW250343   1.135   5.721  11.687  0.3581  0.4825 -0.0688
47765SOL     OW50344   1.980   9.065   4.897  0.5499  1.0592  0.3098
47765SOL    HW150345   1.933   8.991   4.860  0.2442  0.4685  1.8168
47765SOL    HW250346   2.068   9.031   4.915  0.1888  0.8094  1.7028
47766SOL     OW50347   4.597   7.640  10.313  0.1624 -0.1896 -0.3820
47766SOL    HW150348   4.519   7.690  10.289  0.3506 -0.6034 -1.9747
47766SOL    HW250349   4.670   7.701  10.303  0.0988  0.1233  0.8596
47767SOL     OW50350  10.670  10.252   0.268 -0.6430  0.6257  0.4516
47767SOL    HW150351  10.729  10.267   0.194 -1.4196  0.8839 -0.1393
47767SOL    HW250352  10.724  10.265   0.346  0.1436  0.5383 -0.0702
47768SOL     OW50353   1.286   4.558   4.350  0.8609 -0.8936  0.0781
47768SOL    HW150354   1.258   4.642   4.313  2.2168 -0.8453 -0.9466
47768SOL    HW250355   1.243   4.552   4.435  2.5204  1.9452  1.2531
47769SOL     OW50356  12.306   6.956   0.141 -0.3387 -0.3868  0.1650
47769SOL    HW150357  12.305   6.965   0.236  1.1821  0.3307  0.1415
47769SOL    HW250358  12.296   7.045   0.107 -0.8548 -0.6317 -0.3602
47770SOL     OW50359   8.149   3.937   0.240  0.1834  0.4969  0.0038
47770SOL    HW150360   8.187   3.856   0.206  1.0774  1.0146 -0.2603
47770SOL    HW250361   8.056   3.932   0.217  0.6297  0.5489 -2.0389
47771SOL     OW50362   6.278  11.256  12.284 -0.5102  0.1027  0.3061
47771SOL    HW150363   6.194  11.302  12.290 -0.2513  0.4936  1.0450
47771SOL    HW250364   6.343  11.325  12.276 -0.3216 -0.2310 -1.3770
47772SOL     OW50365  10.017   6.084   2.882 -0.1190 -0.1813  0.3552
47772SOL    HW150366  10.042   6.170   2.917  1.6450  0.0406 -1.2502
47772SOL    HW250367  10.000   6.031   2.959  0.5135  1.1305  1.4519
47773SOL     OW50368   7.816  11.124   8.353 -0.0058  0.5128 -0.4304
47773SOL    HW150369   7.728  11.161   8.354 -0.1593  0.1479 -0.0809
47773SOL    HW250370   7.803  11.033   8.379  0.5553  0.6316  0.2866
47774SOL     OW50371   3.847   1.598   5.711  0.5771  0.0199  0.1598
47774SOL    HW150372   3.821   1.521   5.660 -0.9094  0.4350  0.2331
47774SOL    HW250373   3.866   1.564   5.798  0.1824 -0.3111  0.1194
47775SOL     OW50374   1.715  10.850  12.170 -0.0468 -0.0074  0.0120
47775SOL    HW150375   1.765  10.832  12.250 -1.6092 -2.6979  0.5276
47775SOL    HW250376   1.782  10.863  12.102  1.3052  1.4785  1.5313
47776SOL     OW50377  11.190   4.963   2.087 -0.5471 -0.1260 -0.3704
47776SOL    HW150378  11.251   5.035   2.097 -1.7458  0.9647 -0.6334
47776SOL    HW250379  11.245   4.885   2.079  0.9174  1.0555 -3.0619
47777SOL     OW50380   4.175   3.924  12.356  0.0474  0.0644 -0.0365
47777SOL    HW150381   4.158   4.001  12.302  0.5765 -0.1975 -0.5797
47777SOL    HW250382   4.089   3.902  12.393  0.2531  2.3440  2.0847
47778SOL     OW50383   5.799   9.153  11.915  0.3959  0.2203  0.1317
47778SOL    HW150384   5.772   9.133  12.005  1.2407 -0.4001  0.2650
47778SOL    HW250385   5.728   9.119  11.861  0.0787  0.2147  0.5438
47779SOL     OW50386   5.769   1.029   7.936 -0.0160 -0.3186 -0.1368
47779SOL    HW150387   5.677   1.006   7.941  0.2925 -1.5022  0.3729
47779SOL    HW250388   5.782   1.059   7.846 -1.1551  1.0852  0.1366
47780SOL     OW50389  11.635   8.013   6.112  0.5443  0.3637 -0.1775
47780SOL    HW150390  11.561   7.989   6.169 -0.6840 -2.1099 -2.5724
47780SOL    HW250391  11.709   8.022   6.171 -0.9462 -0.6120  1.9768
47781SOL     OW50392   2.163   3.817  10.304  0.1818 -0.3787 -0.4395
47781SOL    HW150393   2.208   3.839  10.385 -0.7949  0.1642 -0.0425
47781SOL    HW250394   2.158   3.721  10.305  0.6288 -0.4035 -0.1213
47782SOL     OW50395   7.371  12.479   7.468 -0.3459 -0.2311  0.3826
47782SOL    HW150396   7.425  12.447   7.396  0.5008 -0.0854  0.9437
47782SOL    HW250397   7.298  12.417   7.473 -0.8861  0.2369 -1.1431
47783SOL     OW50398   6.981  10.886   5.008 -0.0195 -0.2280  0.0386
47783SOL    HW150399   7.012  10.796   5.000  1.6528  0.3293 -0.2115
47783SOL    HW250400   7.059  10.936   5.034 -0.7827  1.2293 -0.3493
47784SOL     OW50401  10.706   4.298   2.904  0.2071  0.4605 -0.1038
47784SOL    HW150402  10.689   4.340   2.820  0.7457  0.2956 -0.3010
47784SOL    HW250403  10.648   4.343   2.966  0.6601  1.3862 -0.3374
47785SOL     OW50404   8.340   7.365  12.017 -0.5922  0.1186 -0.5487
47785SOL    HW150405   8.295   7.422  12.080  0.2424  0.3110 -0.1077
47785SOL    HW250406   8.423   7.409  12.001  0.5875 -1.5361  0.7165
47786SOL     OW50407   6.806   2.450   3.930 -0.7794  1.0247  0.2870
47786SOL    HW150408   6.774   2.418   4.014 -0.5726 -1.2279 -0.4284
47786SOL    HW250409   6.852   2.531   3.951  2.5124 -1.2683  2.9537
47787SOL     OW50410   3.241   3.329   5.028  0.6234 -0.3438  0.5031
47787SOL    HW150411   3.262   3.304   4.937 -1.0196 -0.5679  0.1603
47787SOL    HW250412   3.326   3.328   5.072  1.3404 -1.1846 -0.8018
47788SOL     OW50413   3.540   8.494   7.340  0.2137 -0.1783  0.1369
47788SOL    HW150414   3.590   8.526   7.415 -0.0301 -0.3269  0.3635
47788SOL    HW250415   3.579   8.539   7.265 -0.7935  1.4792  0.5526
47789SOL     OW50416   9.385   5.023   9.310  0.3331  0.0570 -1.0372
47789SOL    HW150417   9.338   4.940   9.316  1.0684 -0.2896  0.3813
47789SOL    HW250418   9.427   5.021   9.224 -0.3030 -0.6854 -1.3386
47790SOL     OW50419   9.001   9.037   0.337  0.9404 -0.5799 -0.2731
47790SOL    HW150420   8.922   8.984   0.349  0.6242 -0.1239 -0.3140
47790SOL    HW250421   8.988   9.082   0.254  0.1821  1.2545  0.7578
47791SOL     OW50422   2.898   9.626   1.630 -0.2735 -0.2060  0.1709
47791SOL    HW150423   2.811   9.661   1.650  0.2265  0.3894  1.3144
47791SOL    HW250424   2.884   9.531   1.624 -0.9950 -0.1174  0.3566
47792SOL     OW50425   0.281  12.566   6.726  0.4912 -0.3726  0.7721
47792SOL    HW150426   0.191  12.546   6.752  0.8115 -0.4309  1.9319
47792SOL    HW250427   0.275  12.588   6.634 -0.5200 -1.6530  0.4928
47793SOL     OW50428   9.525   4.773   4.611 -0.3061  0.3110  0.3143
47793SOL    HW150429   9.441   4.781   4.565 -1.1477 -0.0400  1.7298
47793SOL    HW250430   9.584   4.734   4.547 -1.6508 -0.9117 -0.2369
47794SOL     OW50431  12.489   1.912   9.010 -0.1977 -0.7215  0.3118
47794SOL    HW150432  12.576   1.923   9.050 -0.6439  2.2410  0.7324
47794SOL    HW250433  12.429   1.946   9.076 -1.6797 -2.3239 -0.1563
47795SOL     OW50434   1.216   5.083   1.503  0.6862  0.5609 -0.2825
47795SOL    HW150435   1.159   5.066   1.579  0.0902  0.7305 -0.6817
47795SOL    HW250436   1.275   5.008   1.500  0.2977  0.2397 -0.0270
47796SOL     OW50437   2.852   8.873  10.765 -0.0566 -0.1114 -0.1231
47796SOL    HW150438   2.853   8.787  10.807 -1.3924 -0.0589  0.0648
47796SOL    HW250439   2.936   8.878  10.719  0.1368 -1.4243  0.0423
47797SOL     OW50440  12.198   9.318   0.896 -0.9201  0.2650  0.2753
47797SOL    HW150441  12.171   9.392   0.841  0.6720 -0.4612 -1.6076
47797SOL    HW250442  12.285   9.294   0.863  0.6765  0.4383  3.8444
47798SOL     OW50443   9.947   6.017   9.521 -0.1107  0.5396  0.5361
47798SOL    HW150444  10.023   6.073   9.504 -1.2392  2.3846  1.2751
47798SOL    HW250445   9.933   6.024   9.615 -0.0908 -1.3062  0.7052
47799SOL     OW50446  10.359   2.731  10.429  0.2611  0.1061  0.4074
47799SOL    HW150447  10.384   2.713  10.338 -1.0118 -3.0188  0.5744
47799SOL    HW250448  10.438   2.769  10.468  0.7390  1.8917 -2.0168
47800SOL     OW50449  11.714   1.210  11.084 -0.3407 -0.1999 -0.1716
47800SOL    HW150450  11.713   1.114  11.073 -1.3905 -0.0687 -1.7124
47800SOL    HW250451  11.793   1.239  11.038 -1.7615 -0.1311 -2.8172
47801SOL     OW50452  12.347   6.159   6.978  0.3012  0.1784  0.3150
47801SOL    HW150453  12.410   6.209   6.927 -0.4418 -0.0820 -0.9071
47801SOL    HW250454  12.385   6.071   6.984  0.7728  0.4181  0.9319
47802SOL     OW50455  10.797  10.743   4.073  0.0807  0.5235  0.0412
47802SOL    HW150456  10.847  10.767   3.995 -1.1843 -2.5304 -1.8867
47802SOL    HW250457  10.708  10.770   4.054 -0.2660 -0.3509  0.3868
47803SOL     OW50458   9.476   0.716   7.058 -0.2908  1.0499  0.4381
47803SOL    HW150459   9.460   0.783   6.992 -2.1389  0.6454  0.4142
47803SOL    HW250460   9.520   0.762   7.129 -0.1017  1.9284 -0.2315
47804SOL     OW50461  10.786   4.383   4.689 -0.3269 -0.0420  0.0008
47804SOL    HW150462  10.761   4.336   4.768 -0.5428  2.1704  1.3369
47804SOL    HW250463  10.704   4.398   4.642 -0.5549  0.8010  0.6476
47805SOL     OW50464   0.565   0.165   9.173  0.0376 -0.0661  0.2300
47805SOL    HW150465   0.636   0.181   9.235 -0.5671 -1.4408  1.3166
47805SOL    HW250466   0.554   0.070   9.173 -2.0552  0.1375  0.3970
47806SOL     OW50467   5.440  12.007  10.800 -0.6959  0.1508  0.0082
47806SOL    HW150468   5.524  11.964  10.782 -1.0881 -0.7174  0.2167
47806SOL    HW250469   5.389  11.942  10.847 -1.5364  0.6309 -0.2147
47807SOL     OW50470   3.340   6.199   6.666 -0.4468  0.0613  0.0001
47807SOL    HW150471   3.253   6.163   6.681 -0.4054  0.2478  0.7491
47807SOL    HW250472   3.345   6.275   6.724 -1.0286  2.1636 -2.5242
47808SOL     OW50473   0.311   5.001   0.039  1.0744  0.2548 -0.4408
47808SOL    HW150474   0.263   5.058  -0.021 -1.9542  0.2714  1.7326
47808SOL    HW250475   0.329   4.922  -0.012 -1.0255  0.4152 -1.5563
47809SOL     OW50476   1.843   6.081   6.484  0.1089  0.2291 -0.3196
47809SOL    HW150477   1.799   6.126   6.556 -2.2119  0.8759 -2.0449
47809SOL    HW250478   1.773   6.039   6.435  1.5802 -0.0867 -2.2768
47810SOL     OW50479   4.163  10.222   2.125  0.0956 -0.5597 -0.2634
47810SOL    HW150480   4.251  10.183   2.120 -0.0971 -1.0312 -0.0709
47810SOL    HW250481   4.158  10.279   2.049  0.7880 -0.0703  0.0422
47811SOL     OW50482   5.692   4.490   4.419  0.2646  0.5315  0.5053
47811SOL    HW150483   5.620   4.440   4.380  0.2690  0.6065  0.4002
47811SOL    HW250484   5.771   4.451   4.383  0.3771 -0.7441  1.9987
47812SOL     OW50485   7.927  10.224   7.332 -0.1098  0.1844  0.4464
47812SOL    HW150486   7.860  10.156   7.337 -0.5127  0.4983 -0.5935
47812SOL    HW250487   8.010  10.176   7.326 -0.0817 -0.2187  2.9969
47813SOL     OW50488   6.176  10.239  10.992  0.0906  0.7842  0.2172
47813SOL    HW150489   6.160  10.333  10.981 -0.5156  0.9570  2.2477
47813SOL    HW250490   6.204  10.209  10.905  0.8144  2.9264 -0.3410
47814SOL     OW50491   1.037   5.943   1.328 -0.7028  0.1092 -0.5887
47814SOL    HW150492   0.952   5.922   1.368 -0.7693 -0.5970 -1.0903
47814SOL    HW250493   1.099   5.885   1.373 -1.0733 -2.2668 -2.8643
47815SOL     OW50494  10.118  10.875   1.366  0.6569  0.0775  0.0502
47815SOL    HW150495  10.160  10.811   1.425  1.6249  1.6118  1.0918
47815SOL    HW250496  10.025  10.853   1.370  0.5554  0.6434  2.8894
47816SOL     OW50497   7.587   9.496   6.073 -0.3345 -0.0603 -0.2423
47816SOL    HW150498   7.674   9.456   6.081 -0.3485 -0.2082 -0.8148
47816SOL    HW250499   7.603   9.590   6.086  0.0457  0.0203 -1.1831
47817SOL     OW50500   0.386  10.831   9.903 -0.7438  0.3374 -0.1460
47817SOL    HW150501   0.428  10.906   9.863 -0.8885 -0.2443 -1.4604
47817SOL    HW250502   0.450  10.760   9.895 -1.6820 -0.3893 -1.5715
47818SOL     OW50503   1.953   9.515  12.416 -0.4757  0.2296  0.1290
47818SOL    HW150504   2.009   9.576  12.367  2.5119 -0.9266  1.7941
47818SOL    HW250505   2.013   9.446  12.445 -2.9165 -1.3862  1.7406
47819SOL     OW50506   5.033  10.783   0.782  0.3229 -0.9599 -0.0621
47819SOL    HW150507   5.053  10.745   0.696 -0.1470 -1.5933  0.0983
47819SOL    HW250508   5.109  10.836   0.803  1.2331 -2.2129 -0.0757
47820SOL     OW50509   5.149   5.789  11.759  0.0807 -0.1537  0.9937
47820SOL    HW150510   5.067   5.740  11.755  0.0449 -0.1067  1.1749
47820SOL    HW250511   5.201   5.743  11.824  0.2326 -0.2340  0.8167
47821SOL     OW50512   7.817   5.270   2.008  0.0015 -0.4828  0.2717
47821SOL    HW150513   7.800   5.214   2.084 -0.3428 -1.6524 -0.6315
47821SOL    HW250514   7.737   5.265   1.956  0.6135 -0.5702 -0.6965
47822SOL     OW50515   4.757  11.444   2.233  0.0422 -0.4165 -0.1503
47822SOL    HW150516   4.719  11.383   2.170 -1.3986 -1.2579  1.4565
47822SOL    HW250517   4.820  11.495   2.182 -0.8451 -1.2582 -2.1886
47823SOL     OW50518   2.476   3.676   1.709  0.3263 -0.1374  0.1786
47823SOL    HW150519   2.425   3.611   1.660  0.3127 -0.9878  1.3078
47823SOL    HW250520   2.564   3.639   1.714 -0.0105 -0.7689  2.0462
47824SOL     OW50521  10.474  11.734   7.269 -0.0046 -0.2629  0.3844
47824SOL    HW150522  10.417  11.747   7.193  0.3785 -0.4744  0.0563
47824SOL    HW250523  10.419  11.686   7.332 -0.2882 -0.1880  0.1964
47825SOL     OW50524   1.130  12.338   3.428 -0.3959  0.1554 -0.6756
47825SOL    HW150525   1.166  12.420   3.459 -1.1414  1.2562 -2.5356
47825SOL    HW250526   1.121  12.284   3.506  2.9047  0.6708  0.2389
47826SOL     OW50527   7.932   6.320   5.049 -0.5033  0.5450  0.0538
47826SOL    HW150528   7.844   6.340   5.016 -0.3499 -0.3284 -0.9480
47826SOL    HW250529   7.988   6.388   5.011 -0.7635  1.2545  0.8996
47827SOL     OW50530   5.935   7.236   2.453  0.1408 -0.1690 -0.3049
47827SOL    HW150531   5.907   7.249   2.362 -0.4272  1.1180  0.0262
47827SOL    HW250532   5.890   7.156   2.481  0.3898 -0.6195 -1.1746
47828SOL     OW50533   3.865   7.870  10.457 -0.3814  0.2396 -0.0956
47828SOL    HW150534   3.910   7.824  10.386 -3.8724 -2.3272 -0.9881
47828SOL    HW250535   3.918   7.853  10.534  0.1070 -2.9019 -0.9715
47829SOL     OW50536  12.060   5.596   1.961 -0.2523 -0.3366  0.0161
47829SOL    HW150537  12.041   5.558   2.047 -0.0200 -0.8377 -0.1508
47829SOL    HW250538  12.051   5.690   1.974 -0.4537 -0.4238  0.5318
47830SOL     OW50539   2.839   8.338   0.634  0.4534  0.0383  0.2971
47830SOL    HW150540   2.820   8.358   0.725 -2.3200 -2.2289  0.3648
47830SOL    HW250541   2.799   8.409   0.584  0.0696  0.1631  0.7789
47831SOL     OW50542  11.838   9.107   2.246 -0.3875  0.6206 -0.0719
47831SOL    HW150543  11.760   9.162   2.243 -1.9372 -1.3515  1.1779
47831SOL    HW250544  11.862   9.105   2.338 -0.8718 -1.3468  0.0675
47832SOL     OW50545   5.375   0.656   0.386  0.3925 -0.4954  0.3289
47832SOL    HW150546   5.378   0.655   0.482  0.8026  0.2916  0.3313
47832SOL    HW250547   5.426   0.733   0.361  1.7156 -1.6147 -0.5919
47833SOL     OW50548   1.696   0.410   0.826  0.1394  0.6327  0.2793
47833SOL    HW150549   1.605   0.438   0.836  0.0070  0.1492  0.4934
47833SOL    HW250550   1.709   0.405   0.731 -0.3711 -0.2408  0.2430
47834SOL     OW50551   1.973   7.639   1.132 -0.3521 -0.8130  0.6467
47834SOL    HW150552   1.921   7.698   1.078 -0.9946  0.1262  2.2272
47834SOL    HW250553   2.064   7.662   1.113 -0.5714 -0.4062  0.0863
47835SOL     OW50554   0.655   7.345   8.957  0.4387 -0.0586 -0.0490
47835SOL    HW150555   0.634   7.333   8.864  0.0542 -2.0351  0.2517
47835SOL    HW250556   0.639   7.438   8.974 -1.0109  0.0128 -1.5818
47836SOL     OW50557   4.513  12.426   3.182  0.5481  0.6998 -0.2029
47836SOL    HW150558   4.517  12.341   3.226 -1.3517  0.2024 -0.8702
47836SOL    HW250559   4.569  12.416   3.105 -1.4860 -0.8729 -1.6062
47837SOL     OW50560   5.381  10.937  11.380  0.1701  0.6839  0.6622
47837SOL    HW150561   5.374  10.863  11.440  0.4510  0.4436  0.3995
47837SOL    HW250562   5.357  10.901  11.295  0.1000  0.9462  0.5682
47838SOL     OW50563  12.091   1.051   2.840 -0.3146 -0.0245  0.1306
47838SOL    HW150564  12.159   1.068   2.775 -0.2068  0.3876  0.3514
47838SOL    HW250565  12.037   0.982   2.801 -0.3356  0.3237 -0.4574
47839SOL     OW50566   1.114  10.884   1.451 -0.1123 -0.0115  0.1177
47839SOL    HW150567   1.199  10.876   1.495  0.6144  4.2889 -0.0386
47839SOL    HW250568   1.133  10.868   1.359  0.4014  0.1696  0.1885
47840SOL     OW50569   5.261  11.334   7.931 -0.4834  0.2192  0.3508
47840SOL    HW150570   5.184  11.306   7.882 -0.9055  0.1018  1.0640
47840SOL    HW250571   5.269  11.427   7.912  0.5063 -0.1826 -1.4681
47841SOL     OW50572   2.088   7.161  10.295 -0.0586  0.2367  0.5150
47841SOL    HW150573   2.037   7.230  10.336 -0.9868  0.9130 -1.6035
47841SOL    HW250574   2.147   7.208  10.235  0.0311 -0.7300 -0.1780
47842SOL     OW50575   5.404   3.566  11.996 -0.1205 -0.2363  0.5636
47842SOL    HW150576   5.396   3.581  12.091  1.9099 -0.9431  0.9077
47842SOL    HW250577   5.421   3.472  11.988 -0.1261 -0.1578 -0.4923
47843SOL     OW50578   0.001  10.931   3.402  0.0887 -0.7558 -0.0635
47843SOL    HW150579  -0.008  10.895   3.491 -0.6645 -1.1753 -0.2943
47843SOL    HW250580  -0.055  11.008   3.402 -0.2324 -0.9883 -0.2910
47844SOL     OW50581   3.070   4.508   0.463  0.3295 -0.3064  0.3940
47844SOL    HW150582   3.095   4.600   0.453 -0.8234  0.0202  0.2518
47844SOL    HW250583   3.148   4.459   0.442  0.1097  0.5494 -2.9769
47845SOL     OW50584   4.325   9.592   9.299 -0.3855 -0.0796  0.4380
47845SOL    HW150585   4.289   9.634   9.221  2.3491  1.6816 -0.0053
47845SOL    HW250586   4.379   9.521   9.265  0.7805  0.6644  0.6820
47846SOL     OW50587  10.465   1.928   3.412  0.7003 -0.3392 -0.4014
47846SOL    HW150588  10.412   1.931   3.492  1.5565  1.1802  0.1575
47846SOL    HW250589  10.475   1.835   3.392  0.2860 -0.7302  1.1252
47847SOL     OW50590  11.820   5.908  10.422 -0.5493  0.8110 -0.6371
47847SOL    HW150591  11.892   5.849  10.397 -0.7597  0.7252 -1.0534
47847SOL    HW250592  11.864   5.986  10.457 -0.1567  1.6834 -2.8912
47848SOL     OW50593  12.580  11.490   0.950 -0.1259  0.3403 -0.1071
47848SOL    HW150594  12.597  11.498   1.044 -0.1427  4.5018 -0.2787
47848SOL    HW250595  12.628  11.411   0.924  1.4854  0.1217  3.0430
47849SOL     OW50596  10.218   7.206   5.085 -0.2327  0.1149 -0.1663
47849SOL    HW150597  10.124   7.197   5.102 -0.4538  0.5995 -1.1032
47849SOL    HW250598  10.224   7.228   4.992  0.7985  0.3893 -0.0449
47850SOL     OW50599   4.488   0.779   3.419  0.0619  0.1176  0.4446
47850SOL    HW150600   4.569   0.781   3.471 -0.5302  1.3057  1.3803
47850SOL    HW250601   4.421   0.751   3.480 -0.9040  2.8486  0.7914
47851SOL     OW50602   2.661   0.208   1.114  1.1303  0.5245  0.1550
47851SOL    HW150603   2.632   0.280   1.170  2.1799 -0.0931  1.5612
47851SOL    HW250604   2.599   0.207   1.041 -0.8391  0.8001  1.7503
47852SOL     OW50605   5.730   3.209   6.042 -0.2431  0.1629 -0.2459
47852SOL    HW150606   5.820   3.186   6.018  0.9003  0.3180  3.3383
47852SOL    HW250607   5.682   3.204   5.960  2.5496 -2.2019 -1.9553
47853SOL     OW50608   0.778   5.161   7.879  0.0824  0.4179 -0.1915
47853SOL    HW150609   0.773   5.070   7.907  0.2172  0.8550  1.3004
47853SOL    HW250610   0.690   5.197   7.895  0.4736  0.9732  0.7660
47854SOL     OW50611  11.320   0.975   9.395  0.2840  0.3987 -0.2561
47854SOL    HW150612  11.251   0.926   9.439  1.3432  0.7455  1.8869
47854SOL    HW250613  11.344   1.044   9.456  1.6336  1.1110 -1.5167
47855SOL     OW50614   9.117   5.185  11.214 -0.6268  0.5940 -0.3716
47855SOL    HW150615   9.152   5.162  11.127 -0.8107 -1.2635  0.0011
47855SOL    HW250616   9.191   5.223  11.261  0.3649 -1.3107 -0.3125
47856SOL     OW50617   2.130  10.274   7.383  0.0062  0.5704 -0.4118
47856SOL    HW150618   2.057  10.325   7.348 -1.1508 -1.2522 -0.7740
47856SOL    HW250619   2.094  10.230   7.460  0.5169 -0.8232 -0.9336
47857SOL     OW50620   5.807  11.387   8.987 -0.0365 -0.6535 -0.4211
47857SOL    HW150621   5.794  11.482   8.996 -0.2079 -0.6261 -0.9069
47857SOL    HW250622   5.777  11.351   9.071 -0.6825 -0.3397 -0.5089
47858SOL     OW50623  10.747   4.221   4.889  0.6288  0.1672  0.1042
47858SOL    HW150624  10.701   4.164   4.827  0.2731 -0.0620  0.5691
47858SOL    HW250625  10.684   4.234   4.960  1.0775  0.3150  0.4788
47859SOL     OW50626   2.330   4.364   8.696 -0.1911  0.7032  0.1293
47859SOL    HW150627   2.241   4.334   8.679 -0.5060  1.3460  0.5739
47859SOL    HW250628   2.327   4.397   8.786  0.4170  1.0126  0.0412
47860SOL     OW50629  11.712   2.775  10.507  0.3476  0.0818  0.8964
47860SOL    HW150630  11.778   2.708  10.522  0.0648 -0.4070  0.0189
47860SOL    HW250631  11.628   2.730  10.518  0.1268 -0.1152 -1.1217
47861SOL     OW50632   7.607   3.842  10.633 -0.3902 -0.3078  0.1151
47861SOL    HW150633   7.663   3.909  10.671 -0.6820 -0.7696  1.4242
47861SOL    HW250634   7.634   3.761  10.676 -1.9960 -0.5465  0.7481
47862SOL     OW50635   8.743   3.764   1.104  0.2733 -0.1656 -0.2925
47862SOL    HW150636   8.827   3.753   1.149  0.1788  1.8516  0.4731
47862SOL    HW250637   8.759   3.834   1.041 -0.2100 -1.4602 -1.9414
47863SOL     OW50638   5.578   2.652   3.738 -0.0393 -0.5215 -0.1730
47863SOL    HW150639   5.647   2.678   3.799 -0.1527  0.3110 -0.3883
47863SOL    HW250640   5.551   2.565   3.768  1.2909 -0.9824 -0.2571
47864SOL     OW50641   0.682   0.655   6.746  0.4796  0.4251  0.3489
47864SOL    HW150642   0.663   0.684   6.835  0.8761  1.5174  0.1038
47864SOL    HW250643   0.598   0.627   6.711  0.0886  1.2006  0.6470
47865SOL     OW50644   8.814   3.332   6.062  0.4274 -0.0770 -0.1777
47865SOL    HW150645   8.730   3.295   6.089  0.4447 -0.5250 -0.7010
47865SOL    HW250646   8.818   3.418   6.103 -0.5728  0.2087 -0.6651
47866SOL     OW50647   7.487  11.307   1.321 -1.2942  0.2770  0.1183
47866SOL    HW150648   7.581  11.324   1.312 -0.8766 -0.2042  2.8599
47866SOL    HW250649   7.445  11.389   1.294 -0.1792  0.2562 -1.8413
47867SOL     OW50650   8.600   4.212   9.465 -0.1092  0.2709  0.5309
47867SOL    HW150651   8.565   4.276   9.403  0.2917  0.1891  0.2169
47867SOL    HW250652   8.629   4.265   9.540 -0.4775  0.3809  0.6001
47868SOL     OW50653   4.307   7.088   2.063 -0.3889 -0.2037 -0.4865
47868SOL    HW150654   4.318   7.058   2.153  2.4721 -0.9020 -0.9541
47868SOL    HW250655   4.221   7.057   2.037 -0.8530 -0.8576  1.6748
47869SOL     OW50656   9.028  11.773   2.443  0.3447  0.1173 -0.7871
47869SOL    HW150657   9.004  11.865   2.434  1.1419  0.4930  0.6979
47869SOL    HW250658   9.048  11.762   2.536  1.6169 -1.2247 -1.1782
47870SOL     OW50659   3.761   0.088   8.323 -0.4939 -0.4982  0.0483
47870SOL    HW150660   3.741   0.056   8.411  1.7670  0.1152  0.8541
47870SOL    HW250661   3.710   0.169   8.315 -0.6302 -0.4982  0.8198
47871SOL     OW50662  11.597   4.745   2.314 -0.4186 -0.1551  0.3622
47871SOL    HW150663  11.504   4.761   2.325 -0.2610  0.0382  1.5284
47871SOL    HW250664  11.639   4.793   2.386  0.6578  0.5848 -0.7041
47872SOL     OW50665  12.445   2.570   8.011 -0.3480  0.1600 -0.0956
47872SOL    HW150666  12.445   2.518   7.930  0.9934  0.2072 -0.1512
47872SOL    HW250667  12.537   2.572   8.037 -0.5605  1.4795  0.5834
47873SOL     OW50668   1.209   4.041   3.783 -0.4205  0.0153  0.2992
47873SOL    HW150669   1.204   4.025   3.877 -0.9336  1.3489  0.5222
47873SOL    HW250670   1.289   4.092   3.771 -1.0414  0.9873  0.2017
47874SOL     OW50671   7.378   3.716   4.734  0.0658  0.3382 -0.6132
47874SOL    HW150672   7.417   3.646   4.786 -1.8147  0.7793  1.5626
47874SOL    HW250673   7.452   3.759   4.691  1.8107  0.0704  1.9128
47875SOL     OW50674   1.997   1.995  11.455 -0.2058 -0.3699 -0.0858
47875SOL    HW150675   1.992   1.966  11.546 -0.9658  2.6177  0.9572
47875SOL    HW250676   2.080   2.044  11.451 -0.7978  0.6208 -0.5951
47876SOL     OW50677   3.660   7.671   6.576  0.3144  0.1031  0.2279
47876SOL    HW150678   3.663   7.766   6.569  0.8851 -0.0190 -2.5774
47876SOL    HW250679   3.720   7.640   6.508 -0.9555 -2.2521  0.0407
47877SOL     OW50680   1.251   8.692  11.269  0.3104  0.2228 -0.2492
47877SOL    HW150681   1.275   8.612  11.315  0.4000  0.1701 -0.3889
47877SOL    HW250682   1.257   8.761  11.335 -0.2837  0.0359  0.0090
47878SOL     OW50683  10.194   2.799   7.760  0.3156  0.0923 -0.2048
47878SOL    HW150684  10.288   2.811   7.745  0.2573 -0.4413 -1.0366
47878SOL    HW250685  10.185   2.802   7.856  1.2984 -0.6449 -0.0717
47879SOL     OW50686   7.943  11.480  11.746  0.2723 -0.3354  0.1523
47879SOL    HW150687   7.924  11.562  11.790 -3.2267 -1.0529  0.2509
47879SOL    HW250688   8.015  11.441  11.797 -2.0589 -0.0931  3.9773
47880SOL     OW50689   1.815  10.901   6.485 -0.9172 -0.4590  0.5411
47880SOL    HW150690   1.763  10.971   6.525 -0.6946 -1.2025  2.1754
47880SOL    HW250691   1.794  10.907   6.391 -2.0176  0.8563  0.8414
47881SOL     OW50692   8.590  11.193  10.325 -0.1953  0.3374 -0.1641
47881SOL    HW150693   8.504  11.196  10.366  0.3589  1.4231  0.9844
47881SOL    HW250694   8.611  11.284  10.305  1.2383  0.2540  0.7891
47882SOL     OW50695   9.659   0.773   5.200  0.1780 -1.0161 -0.5741
47882SOL    HW150696   9.729   0.775   5.265  1.5172 -2.0731 -1.9297
47882SOL    HW250697   9.653   0.864   5.169  0.6725 -0.8356 -0.1578
47883SOL     OW50698   0.610   7.942   3.206  1.0680 -0.0304  0.2461
47883SOL    HW150699   0.616   7.993   3.288 -0.8939  1.4595 -0.4382
47883SOL    HW250700   0.655   7.997   3.141  0.9060 -0.2587 -0.0573
47884SOL     OW50701  11.227   6.996  11.114  0.1077  0.1648  0.2001
47884SOL    HW150702  11.167   7.070  11.110 -0.8900 -0.4787  2.0597
47884SOL    HW250703  11.308   7.033  11.150 -0.2864  0.4337  0.8248
47885SOL     OW50704   1.713   0.804   3.612  0.5245 -0.6835 -0.0002
47885SOL    HW150705   1.772   0.877   3.597  0.7725 -0.7619  0.5669
47885SOL    HW250706   1.670   0.790   3.528  1.9748 -1.2184 -0.6727
47886SOL     OW50707   6.560   5.008   6.822  0.3217 -0.4913  0.0832
47886SOL    HW150708   6.480   4.962   6.847  0.7031 -0.5231  1.3226
47886SOL    HW250709   6.571   5.076   6.888 -1.7989  3.5076 -3.2574
47887SOL     OW50710   9.979  12.153  11.829  0.1809  0.1927 -0.5678
47887SOL    HW150711   9.933  12.219  11.776  0.9172  1.4084  0.2389
47887SOL    HW250712   9.912  12.088  11.849 -0.8405  1.1986 -0.5870
47888SOL     OW50713   3.931  11.634   8.362 -0.1475  0.2166 -0.0618
47888SOL    HW150714   3.951  11.727   8.352 -2.4039  1.0471  2.0528
47888SOL    HW250715   3.875  11.614   8.287 -0.4246  0.8262 -0.0219
47889SOL     OW50716   6.217   7.108   0.498 -0.3479 -0.3609  0.5343
47889SOL    HW150717   6.266   7.118   0.580 -2.0494 -0.1344  1.5646
47889SOL    HW250718   6.232   7.190   0.452  2.9909 -1.5503 -0.8188
47890SOL     OW50719   3.192  11.938  12.041 -0.0752  0.6215  0.4019
47890SOL    HW150720   3.190  11.845  12.018 -0.9238  0.5569  0.7183
47890SOL    HW250721   3.106  11.956  12.077 -0.1819  1.7200 -0.3623
47891SOL     OW50722   4.938   2.379   0.482 -0.4688 -0.1073 -0.0783
47891SOL    HW150723   4.888   2.460   0.490 -1.7338 -0.7721 -0.9220
47891SOL    HW250724   4.966   2.359   0.572  1.6664  2.3051 -0.1082
47892SOL     OW50725   4.347  10.718   7.998  0.3141 -0.2298  0.0996
47892SOL    HW150726   4.265  10.680   8.028 -0.8089  0.6210 -1.7387
47892SOL    HW250727   4.387  10.649   7.945 -0.2267  0.0546 -0.6928
47893SOL     OW50728   7.668   5.189   4.753 -0.3042 -0.2163  0.2396
47893SOL    HW150729   7.749   5.164   4.709  1.2464  1.8531  1.6889
47893SOL    HW250730   7.689   5.183   4.847 -1.6586  0.7859  0.6367
47894SOL     OW50731   2.370   6.225   5.781 -0.4409  0.0181  0.2070
47894SOL    HW150732   2.354   6.167   5.856 -0.1366  0.9678  1.0268
47894SOL    HW250733   2.282   6.251   5.752 -0.5558  1.4769  1.7171
47895SOL     OW50734  10.733  10.513   1.348 -0.0672 -0.1304  0.6061
47895SOL    HW150735  10.776  10.557   1.421  0.9710  0.7485 -0.5051
47895SOL    HW250736  10.639  10.527   1.364  0.2013  1.8389  0.7058
47896SOL     OW50737  11.545   2.882   7.720  0.7287  0.3757  0.0851
47896SOL    HW150738  11.625   2.900   7.670  1.4940 -1.9639  0.3513
47896SOL    HW250739  11.513   2.799   7.685 -0.6910  0.4404  1.1294
47897SOL     OW50740   7.170   2.755   5.547 -0.1517 -0.6891  0.1312
47897SOL    HW150741   7.168   2.817   5.474  1.6414 -0.1522  0.4847
47897SOL    HW250742   7.151   2.670   5.507 -1.0554 -0.1504 -0.6303
47898SOL     OW50743  10.414   6.298   0.752 -0.4837  0.0210  0.3505
47898SOL    HW150744  10.378   6.268   0.835 -1.2739  0.6463  0.2511
47898SOL    HW250745  10.364   6.249   0.686 -0.4455  0.1494  0.2262
47899SOL     OW50746   4.233   0.180   7.270  0.5724 -0.4856 -0.0660
47899SOL    HW150747   4.207   0.184   7.178  0.6947  0.8107 -0.0631
47899SOL    HW250748   4.154   0.203   7.319  0.5411 -1.0412  0.1551
47900SOL     OW50749  11.423   4.979   1.185  0.4235 -0.8143  0.1613
47900SOL    HW150750  11.394   4.925   1.258  1.9025  0.8083  2.0659
47900SOL    HW250751  11.420   5.069   1.218  3.4358 -0.1940 -0.8783
47901SOL     OW50752   4.352  12.298  11.683 -0.7599 -0.0705  0.3391
47901SOL    HW150753   4.339  12.332  11.771  0.5497  0.1359  0.4826
47901SOL    HW250754   4.354  12.375  11.627  0.8657  0.0254  0.4831
47902SOL     OW50755   6.636   7.232   5.370  0.0619 -0.1543  0.0696
47902SOL    HW150756   6.572   7.240   5.300  1.0282 -0.3418 -0.8600
47902SOL    HW250757   6.589   7.187   5.441 -0.8978 -0.0368 -0.4788
47903SOL     OW50758   4.431   6.397   0.182  0.1157  0.0464  0.4622
47903SOL    HW150759   4.361   6.341   0.149  0.3848 -0.4476  0.7141
47903SOL    HW250760   4.426   6.388   0.277 -0.4325  1.1881  0.5571
47904SOL     OW50761  10.923   2.016   4.315 -0.2864  0.0141  0.1452
47904SOL    HW150762  10.868   2.089   4.284  0.4919  0.3052 -0.5932
47904SOL    HW250763  10.905   1.945   4.254 -1.6435 -0.6987  1.3339
47905SOL     OW50764  10.570   6.197  11.928 -0.6747 -0.7390 -0.1140
47905SOL    HW150765  10.498   6.257  11.946 -1.0114 -0.7818 -1.2507
47905SOL    HW250766  10.534   6.110  11.942 -0.8989 -0.7666 -0.8223
47906SOL     OW50767   8.606   3.457   3.845  0.7231 -0.0471 -0.3683
47906SOL    HW150768   8.535   3.473   3.782  0.0521 -2.8629 -0.4607
47906SOL    HW250769   8.582   3.509   3.922 -1.3075 -0.6736 -0.5227
47907SOL     OW50770  10.876   5.572  10.777  0.4843  0.1685  0.0947
47907SOL    HW150771  10.895   5.512  10.705  2.1848  2.5460 -1.5891
47907SOL    HW250772  10.797   5.618  10.750  0.1529 -0.1098  0.5742
47908SOL     OW50773   6.598   3.535   8.115 -0.0441 -0.0214 -0.4908
47908SOL    HW150774   6.664   3.466   8.101 -0.3942 -0.5744  0.4591
47908SOL    HW250775   6.531   3.493   8.169  0.3490  1.4284  1.2119
47909SOL     OW50776   4.358   1.161   0.637  0.4220  0.1128 -0.5461
47909SOL    HW150777   4.380   1.121   0.721  2.4109  0.9039 -0.6437
47909SOL    HW250778   4.435   1.144   0.582 -0.6460  0.0156 -2.0823
47910SOL     OW50779   2.639  10.930  12.102  0.0283  0.2557 -0.1613
47910SOL    HW150780   2.575  10.887  12.046 -2.4848  1.9947  1.1442
47910SOL    HW250781   2.658  11.013  12.057 -0.5178  0.7944  0.5661
47911SOL     OW50782   2.516   0.782   2.113  0.0638 -0.3520 -0.2106
47911SOL    HW150783   2.517   0.862   2.060  0.0932  0.5843  1.1679
47911SOL    HW250784   2.480   0.716   2.054 -0.0935  0.7021 -1.3452
47912SOL     OW50785   2.443   0.535   2.235 -0.2302  0.3048 -0.2507
47912SOL    HW150786   2.477   0.451   2.267 -0.6995 -0.5988 -1.9841
47912SOL    HW250787   2.521   0.591   2.228 -0.1900  0.9297  3.2159
47913SOL     OW50788   1.211  10.566   5.093 -0.0698 -0.6371 -0.0199
47913SOL    HW150789   1.140  10.603   5.040  1.0561 -0.8771 -1.7708
47913SOL    HW250790   1.253  10.502   5.035  1.6722 -0.3856  0.9040
47914SOL     OW50791   5.564   6.728   9.537  0.7534 -0.2463 -0.3710
47914SOL    HW150792   5.562   6.683   9.452 -0.8833 -0.5832 -0.1721
47914SOL    HW250793   5.647   6.700   9.576 -0.1358 -3.1353 -0.2904
47915SOL     OW50794   4.438   7.612   3.026  0.2050 -0.1341  0.2045
47915SOL    HW150795   4.434   7.681   2.960  0.4266 -0.8956 -0.6245
47915SOL    HW250796   4.377   7.641   3.094  0.2005  0.8109 -0.1868
47916SOL     OW50797   0.989   1.802   5.130  0.2937 -0.3956 -0.1887
47916SOL    HW150798   1.008   1.830   5.220 -0.9028  0.7954 -0.2828
47916SOL    HW250799   1.053   1.848   5.077 -0.9838  1.4455 -0.2302
47917SOL     OW50800   5.266   7.553   3.008  0.1932  0.1906  0.0990
47917SOL    HW150801   5.352   7.583   3.039  0.3340 -0.5460  0.4408
47917SOL    HW250802   5.205   7.617   3.043  0.6509  1.0200 -0.5874
47918SOL     OW50803   4.129   0.376   3.902  0.0796 -0.7327  0.0770
47918SOL    HW150804   4.131   0.313   3.830 -0.5605 -1.4401  0.6559
47918SOL    HW250805   4.081   0.331   3.972 -0.3684  0.3903  0.5164
47919SOL     OW50806   2.415   4.746   5.284  0.1156 -0.3494 -0.5047
47919SOL    HW150807   2.451   4.737   5.196  0.2577  1.0840 -0.6250
47919SOL    HW250808   2.491   4.740   5.342 -0.3507 -5.8047  0.0103
47920SOL     OW50809  10.965   3.475   4.032  0.2126  0.1528 -0.1175
47920SOL    HW150810  10.896   3.539   4.013 -1.6794 -1.2726  1.5652
47920SOL    HW250811  11.003   3.454   3.947 -1.9761  0.3955 -1.2100
47921SOL     OW50812   3.532   9.936  10.352  0.1861  0.1961  0.4309
47921SOL    HW150813   3.465   9.935  10.421  1.0681  0.5685  1.3094
47921SOL    HW250814   3.593  10.005  10.379  1.9781 -1.4125  0.6678
47922SOL     OW50815   2.898  10.961  12.285 -0.2509 -0.3650 -0.0355
47922SOL    HW150816   2.865  10.931  12.370 -1.6847  1.0607 -0.0441
47922SOL    HW250817   2.848  10.911  12.221  0.1899 -0.7860 -0.0594
47923SOL     OW50818   7.288   1.791   2.899  0.3482 -0.1302  0.3133
47923SOL    HW150819   7.231   1.727   2.858  0.1910 -0.4495  1.0054
47923SOL    HW250820   7.246   1.810   2.983  1.3456 -0.5175  0.9243
47924SOL     OW50821  12.250   7.990   8.656 -0.6379  0.8776  0.1856
47924SOL    HW150822  12.191   8.012   8.728 -0.6073  0.6807  0.2702
47924SOL    HW250823  12.208   7.917   8.611 -0.5070  0.8015  0.1868
47925SOL     OW50824   2.863   5.273   3.618  0.2605  0.1747  0.6716
47925SOL    HW150825   2.949   5.314   3.627 -0.2456  0.9742  2.1250
47925SOL    HW250826   2.849   5.268   3.523  1.8048  0.2254  0.4177
47926SOL     OW50827   2.422   3.014   7.293  0.2030  0.0416  0.0721
47926SOL    HW150828   2.499   3.001   7.348  0.5412  1.5799 -0.0074
47926SOL    HW250829   2.373   2.931   7.300  2.3619 -1.3813 -0.7216
47927SOL     OW50830   8.127   8.797   2.636  0.0135  0.6323  0.5600
47927SOL    HW150831   8.125   8.879   2.685  2.1043  1.2529 -0.3053
47927SOL    HW250832   8.042   8.793   2.592 -0.9444  1.2500  2.2594
47928SOL     OW50833  10.588  12.511   0.399 -0.2811  0.3039  0.2878
47928SOL    HW150834  10.508  12.523   0.450 -0.0283 -0.1786  0.8125
47928SOL    HW250835  10.628  12.431   0.435  0.7175  0.8431  0.4156
47929SOL     OW50836   7.900   7.739   0.021 -0.2385  0.0586 -0.1959
47929SOL    HW150837   7.904   7.646   0.041 -0.5678  0.0399 -0.2092
47929SOL    HW250838   7.844   7.776   0.090 -2.2357 -0.1667 -1.6203
47930SOL     OW50839   6.883   9.087   1.397 -0.9380 -0.2353  0.1040
47930SOL    HW150840   6.878   9.160   1.336  1.8336 -0.0636 -0.0410
47930SOL    HW250841   6.866   9.009   1.344 -2.0536  0.1497 -0.1215
47931SOL     OW50842   0.707   5.901  10.809  0.3436  0.0204 -0.0437
47931SOL    HW150843   0.695   5.996  10.812 -0.1255 -0.0528  0.4080
47931SOL    HW250844   0.618   5.865  10.812  0.5624 -0.4615  0.8644
47932SOL     OW50845  11.318   9.240   4.882 -0.5892 -0.4823 -0.0151
47932SOL    HW150846  11.232   9.248   4.924 -0.0886 -0.9995  1.1388
47932SOL    HW250847  11.305   9.176   4.812 -1.2395 -0.2408 -0.1185
47933SOL     OW50848   5.400   2.501   0.946 -0.5600 -0.4492 -0.8082
47933SOL    HW150849   5.410   2.417   0.902  1.0669 -0.9685  0.4356
47933SOL    HW250850   5.474   2.554   0.916 -0.5934 -0.0856 -0.2832
47934SOL     OW50851   8.814   7.220   9.053 -0.1694 -0.9180  0.8746
47934SOL    HW150852   8.739   7.266   9.016 -0.0952 -0.9503  0.6836
47934SOL    HW250853   8.782   7.183   9.135 -1.0007 -2.8624 -0.2673
47935SOL     OW50854   9.302   7.355   8.013 -0.0599  0.2652 -0.7552
47935SOL    HW150855   9.299   7.294   8.087 -1.1786  0.7256 -0.4066
47935SOL    HW250856   9.288   7.300   7.936 -2.9830  0.2428 -0.3168
47936SOL     OW50857   9.194   5.296  11.585  0.5639  0.3022 -0.0738
47936SOL    HW150858   9.240   5.291  11.501  0.7413  0.3447  0.0211
47936SOL    HW250859   9.258   5.266  11.649  0.1331 -0.6215 -0.0601
47937SOL     OW50860   2.134   4.788   5.870  0.5170  0.3784 -0.9794
47937SOL    HW150861   2.043   4.758   5.878  0.6717  0.2434  0.5786
47937SOL    HW250862   2.186   4.711   5.889  0.9472  0.7640 -0.5730
47938SOL     OW50863   1.007   6.090   3.651 -0.0426 -0.2535  0.7178
47938SOL    HW150864   0.914   6.069   3.640 -0.3542 -0.1913  2.8102
47938SOL    HW250865   1.016   6.178   3.614 -0.1921 -1.2262 -1.8605
47939SOL     OW50866  11.140   1.310   4.240  0.6969 -0.3854  0.0807
47939SOL    HW150867  11.130   1.231   4.187 -0.4696 -0.0238 -0.2932
47939SOL    HW250868  11.218   1.354   4.205 -0.7256  0.4866 -2.2799
47940SOL     OW50869   5.387   8.072   4.460 -0.1499  0.0270  0.1699
47940SOL    HW150870   5.360   8.163   4.474  1.7213  0.9222 -1.5761
47940SOL    HW250871   5.340   8.045   4.380  1.9939  0.7593 -1.4313
47941SOL     OW50872   3.840   1.215  10.813 -0.1506  0.0054  0.2101
47941SOL    HW150873   3.853   1.126  10.781 -1.6749 -0.3629  0.5540
47941SOL    HW250874   3.795   1.260  10.741  1.3852  0.7905 -0.3235
47942SOL     OW50875   6.645   4.278   4.920  0.0845 -0.7633  0.2646
47942SOL    HW150876   6.572   4.244   4.867 -0.6971 -0.2276  0.9706
47942SOL    HW250877   6.723   4.242   4.879 -0.4428  0.1954 -1.6723
47943SOL     OW50878  10.321   7.290   0.102  0.4112 -0.0773  0.7119
47943SOL    HW150879  10.306   7.202   0.135 -1.1807  0.3010  1.0977
47943SOL    HW250880  10.264   7.297   0.025  1.3782  0.2512  0.0077
47944SOL     OW50881   7.732   2.964   4.708  0.0198 -0.1745  0.1500
47944SOL    HW150882   7.805   2.903   4.718 -0.8012 -1.5139 -1.3615
47944SOL    HW250883   7.756   3.019   4.633  0.9039  1.6620  1.7116
47945SOL     OW50884  11.204   3.126  11.326  0.1048 -0.9365 -0.2943
47945SOL    HW150885  11.278   3.163  11.374 -0.8697 -0.9674  1.3445
47945SOL    HW250886  11.140   3.197  11.322  0.2698 -0.8549 -1.8373
47946SOL     OW50887   7.545   1.615   0.408  0.9143 -0.1611  0.1509
47946SOL    HW150888   7.517   1.524   0.422  0.9262 -0.0960  0.6348
47946SOL    HW250889   7.572   1.618   0.317  0.7957 -0.6144  0.0955
47947SOL     OW50890   0.604   0.218   5.597  0.1039  0.2671  0.7521
47947SOL    HW150891   0.525   0.167   5.614 -1.0839  1.9357  0.5258
47947SOL    HW250892   0.628   0.195   5.507  0.0845 -0.4961  0.9352
47948SOL     OW50893   0.067   8.982   3.303 -0.0514 -0.8284  0.7331
47948SOL    HW150894   0.112   9.067   3.301  0.1672 -0.8786  2.2730
47948SOL    HW250895   0.136   8.918   3.285  0.1359 -0.7911  1.3197
47949SOL     OW50896   2.316   3.256  10.855  0.0918 -0.4760  0.1388
47949SOL    HW150897   2.348   3.194  10.921  0.4949  1.2868  1.6654
47949SOL    HW250898   2.221   3.248  10.859  0.1249 -0.5907  0.7191
47950SOL     OW50899   3.779   5.199   4.100 -0.9314  0.0027 -0.6160
47950SOL    HW150900   3.684   5.215   4.104 -0.9815 -0.3250 -0.3988
47950SOL    HW250901   3.786   5.108   4.070 -0.7322 -0.5321  0.9462
47951SOL     OW50902   1.926  11.330   8.224 -0.4121 -0.2353  0.2855
47951SOL    HW150903   1.832  11.314   8.237 -0.3650 -1.5662 -0.7519
47951SOL    HW250904   1.933  11.357   8.133 -0.0754  2.8723  1.1074
47952SOL     OW50905   8.856   6.125   6.109 -0.1939  0.4977 -0.2822
47952SOL    HW150906   8.946   6.149   6.085  2.0194 -2.4921  3.7624
47952SOL    HW250907   8.836   6.182   6.183  0.5082 -2.0084  1.9755
47953SOL     OW50908  10.507   4.042   7.829 -0.2422  0.2671 -0.3233
47953SOL    HW150909  10.427   3.998   7.859  1.2374 -1.2609  1.6456
47953SOL    HW250910  10.554   3.975   7.780  1.0013  0.3084  0.7662
47954SOL     OW50911  11.402   1.753   6.130 -0.2196  0.1641 -0.0431
47954SOL    HW150912  11.316   1.713   6.124  0.7611 -2.2178  0.3973
47954SOL    HW250913  11.402   1.800   6.214 -0.6296 -1.0656  0.6634
47955SOL     OW50914   7.577   4.767   0.796 -0.2539  0.3717  0.4447
47955SOL    HW150915   7.650   4.706   0.793 -0.4912  0.0627  0.9152
47955SOL    HW250916   7.499   4.713   0.784 -0.4321  0.6427  0.3704
47956SOL     OW50917   9.887   8.744  12.338 -0.1081  1.0155 -0.3587
47956SOL    HW150918   9.919   8.653  12.340 -2.3893  0.1562  0.7999
47956SOL    HW250919   9.873   8.762  12.245  0.2712  0.1374 -0.5965
47957SOL     OW50920   1.201  11.209   4.517  0.1371 -0.4964 -0.3491
47957SOL    HW150921   1.233  11.123   4.545 -0.2496 -0.3036  0.7570
47957SOL    HW250922   1.220  11.266   4.592 -2.3330 -0.2691  0.2013
47958SOL     OW50923  11.438   7.361   5.301 -0.1714 -0.1961 -0.0689
47958SOL    HW150924  11.351   7.400   5.305  0.0543  0.4342 -0.8732
47958SOL    HW250925  11.425   7.269   5.324 -1.5132 -0.7641 -2.6820
47959SOL     OW50926   7.699   9.170   9.198 -0.1844 -0.7297  0.4956
47959SOL    HW150927   7.727   9.176   9.107 -0.4731 -1.0370  0.3875
47959SOL    HW250928   7.622   9.227   9.203  0.4811  0.1719  0.8100
47960SOL     OW50929   0.303   8.905   7.341  0.4511 -0.3678 -0.6713
47960SOL    HW150930   0.267   8.877   7.256 -1.0877 -0.2519 -0.0855
47960SOL    HW250931   0.374   8.964   7.318  0.9397 -1.3858 -1.8903
47961SOL     OW50932   3.870   8.439   9.036 -0.3771  0.3612 -0.4804
47961SOL    HW150933   3.896   8.411   8.948  0.3920 -0.0938 -0.1228
47961SOL    HW250934   3.783   8.402   9.049 -0.3070  0.0458 -0.8876
47962SOL     OW50935   1.189   2.655  10.591  0.4299  0.3743  0.6033
47962SOL    HW150936   1.219   2.740  10.558 -0.3630  0.8740  1.1170
47962SOL    HW250937   1.158   2.674  10.679  0.4293 -0.5004  0.7970
47963SOL     OW50938   5.176   6.229   0.192 -0.3076 -0.2650 -0.4908
47963SOL    HW150939   5.269   6.203   0.193 -0.0534  0.6225  0.4049
47963SOL    HW250940   5.138   6.183   0.267  0.0335  1.4628  0.8022
47964SOL     OW50941   7.593  12.473   6.522 -0.5765 -0.3887  0.1402
47964SOL    HW150942   7.549  12.557   6.510 -0.8044 -0.5383 -0.0691
47964SOL    HW250943   7.685  12.497   6.539 -0.3806 -0.1419 -1.1585
47965SOL     OW50944   5.671   7.189   3.664  0.5225  0.6370 -0.0424
47965SOL    HW150945   5.653   7.281   3.643  1.3486  0.5528 -1.1997
47965SOL    HW250946   5.659   7.143   3.581  1.1014 -0.1518  0.3001
47966SOL     OW50947   1.600   7.742   1.836 -0.1703 -1.1085  0.3367
47966SOL    HW150948   1.544   7.792   1.777  1.7018  0.3992 -0.2684
47966SOL    HW250949   1.622   7.663   1.786 -3.2091 -2.7335  1.3306
47967SOL     OW50950   9.451   1.220   9.651  0.1396  0.1536  0.3281
47967SOL    HW150951   9.422   1.301   9.610 -0.0119  0.5545  1.2167
47967SOL    HW250952   9.393   1.153   9.613 -1.2756  0.7915  1.2772
47968SOL     OW50953   5.370   1.752   1.620 -0.1781 -0.1866  0.2923
47968SOL    HW150954   5.379   1.708   1.704 -0.2859  0.3410  0.5848
47968SOL    HW250955   5.374   1.845   1.641 -1.6547 -0.0025 -0.1032
47969SOL     OW50956  10.504   0.791  11.534  0.0923 -0.1536  0.7425
47969SOL    HW150957  10.593   0.763  11.554  0.3735  0.0452 -0.1908
47969SOL    HW250958  10.512   0.884  11.513  0.1524 -0.7155 -2.1286
47970SOL     OW50959   5.187  11.069   2.113 -0.2746 -0.2133 -0.1584
47970SOL    HW150960   5.154  11.073   2.024  1.7229 -0.2833 -0.9602
47970SOL    HW250961   5.218  10.979   2.124  1.4404  0.3414 -0.1824
47971SOL     OW50962  11.467   8.494   0.377 -0.2554 -0.3987  0.0961
47971SOL    HW150963  11.429   8.548   0.308 -0.0479  0.5903  0.7361
47971SOL    HW250964  11.521   8.430   0.331  0.0918  0.4106 -0.6547
47972SOL     OW50965   6.050  11.446   4.232  0.3417  0.2818 -0.4949
47972SOL    HW150966   6.050  11.397   4.150 -0.1971 -0.6923  0.0661
47972SOL    HW250967   6.139  11.436   4.266  0.2249 -0.3752 -0.3603
47973SOL     OW50968   1.500  10.779   1.336 -0.6564  0.3203  0.0334
47973SOL    HW150969   1.522  10.872   1.344  0.3902  0.2878 -1.8429
47973SOL    HW250970   1.576  10.733   1.371 -2.1850  0.0635  3.3560
47974SOL     OW50971   1.262   1.986   5.745  0.6410  0.0711  0.4389
47974SOL    HW150972   1.169   1.993   5.767  1.0043  1.9695  1.5945
47974SOL    HW250973   1.264   1.977   5.650 -0.6876  2.4981  0.1190
47975SOL     OW50974   4.954   6.569   2.261  0.2024  0.6086 -0.3374
47975SOL    HW150975   5.028   6.519   2.227  0.1020  1.3106 -1.6393
47975SOL    HW250976   4.972   6.659   2.236 -0.5668  0.9463  0.2840
47976SOL     OW50977   8.386  11.444   3.779 -0.4763  0.0888  0.2265
47976SOL    HW150978   8.382  11.508   3.851  1.8904  0.1353  0.3959
47976SOL    HW250979   8.309  11.390   3.792 -0.0528 -0.0362  2.9962
47977SOL     OW50980   5.176   8.195   3.702 -0.4904 -0.4425 -1.2098
47977SOL    HW150981   5.204   8.114   3.745 -0.7594  0.5146  0.9072
47977SOL    HW250982   5.102   8.170   3.647 -1.6734 -1.4004  0.7259
47978SOL     OW50983  11.011   7.700  11.411  0.4249 -1.0275  0.0090
47978SOL    HW150984  11.103   7.700  11.385  0.3622  1.6874 -0.5772
47978SOL    HW250985  11.003   7.774  11.472 -1.8378  0.8290 -2.2749
47979SOL     OW50986   8.982   4.026   9.802 -0.1992 -0.5562 -0.0699
47979SOL    HW150987   9.048   3.972   9.846  0.0752 -0.7009 -0.6471
47979SOL    HW250988   9.031   4.103   9.771 -0.3401 -0.5660 -0.3216
47980SOL     OW50989  12.509   2.159   1.627 -0.0327  0.0440  0.2028
47980SOL    HW150990  12.548   2.110   1.554 -0.8050 -0.4325  0.0961
47980SOL    HW250991  12.532   2.108   1.705  1.0606  0.7223  0.3368
47981SOL     OW50992   5.587  10.353   6.060 -0.8732  0.2094  0.4420
47981SOL    HW150993   5.545  10.333   5.976  0.0557  0.3859 -0.0718
47981SOL    HW250994   5.577  10.448   6.070  1.4164  0.6435 -0.8234
47982SOL     OW50995   1.603   5.296   6.518 -0.2070  0.7518  0.2263
47982SOL    HW150996   1.623   5.383   6.553  0.5062  0.3191  0.9403
47982SOL    HW250997   1.675   5.279   6.457 -0.5360  0.8068 -0.1749
47983SOL     OW50998   5.602   8.565  12.583  0.0659 -0.3960 -0.6740
47983SOL    HW150999   5.658   8.612  12.645 -2.1167 -2.0409  2.8588
47983SOL    HW251000   5.662   8.503  12.540  1.2108 -1.8650  2.6898
47984SOL     OW51001   9.118   5.725   7.993 -0.1534 -0.4648  0.1915
47984SOL    HW151002   9.072   5.781   7.930 -1.5578 -0.2962  1.3149
47984SOL    HW251003   9.184   5.680   7.941 -0.7987  0.2003 -1.2644
47985SOL     OW51004   7.840   9.645   8.446  0.5511  0.0552 -0.0936
47985SOL    HW151005   7.767   9.658   8.385  0.0526  1.6859  0.8021
47985SOL    HW251006   7.894   9.723   8.437  1.9834 -0.9213 -0.4065
47986SOL     OW51007   4.649  10.911   4.773 -0.0237 -0.0065  0.3061
47986SOL    HW151008   4.742  10.908   4.751 -0.5281  1.5718 -2.6195
47986SOL    HW251009   4.613  10.832   4.732 -0.1370 -0.0207  0.4339
47987SOL     OW51010  11.758   2.157   1.518 -0.4771 -0.0063 -0.1829
47987SOL    HW151011  11.696   2.113   1.576  1.1197  0.0192  1.6213
47987SOL    HW251012  11.792   2.088   1.461 -1.9780 -0.0503 -1.0890
47988SOL     OW51013   1.824   3.086  10.058  0.6804  0.0316 -0.3037
47988SOL    HW151014   1.905   3.062  10.103 -0.2226  0.8205  1.9162
47988SOL    HW251015   1.852   3.120   9.973  2.7326  0.6571  0.5589
47989SOL     OW51016   1.478   9.651   2.579 -0.0921 -0.2930  0.0563
47989SOL    HW151017   1.479   9.636   2.673 -0.4181  1.7271  0.4382
47989SOL    HW251018   1.434   9.736   2.569 -1.9720 -1.3885 -2.0695
47990SOL     OW51019   4.476   9.348  12.498 -0.4295  0.0611 -0.0414
47990SOL    HW151020   4.426   9.388  12.568  0.3128  1.7156 -0.3874
47990SOL    HW251021   4.428   9.370  12.418 -0.2964 -0.1910 -0.1926
47991SOL     OW51022   2.065   4.335   3.287 -0.2913 -0.1893  0.2115
47991SOL    HW151023   2.092   4.279   3.214 -0.7692 -1.4205  0.9282
47991SOL    HW251024   1.974   4.309   3.303 -0.5223  0.8182  0.5692
47992SOL     OW51025   6.273   5.527   4.913 -0.1283  0.1692 -0.2966
47992SOL    HW151026   6.354   5.535   4.863  0.2400  0.8380  0.3810
47992SOL    HW251027   6.224   5.458   4.869  0.9383 -0.4530 -0.5531
47993SOL     OW51028  10.146   6.036   1.246  0.3825 -0.2732  0.5421
47993SOL    HW151029  10.100   5.972   1.300 -0.1249  1.2604  2.0195
47993SOL    HW251030  10.233   5.998   1.232  0.1727 -1.1759  1.5765
47994SOL     OW51031   6.667   8.781   1.404  0.3764  0.1031  0.0922
47994SOL    HW151032   6.648   8.687   1.403 -0.8438  0.3250  0.5375
47994SOL    HW251033   6.722   8.795   1.327  0.8555 -1.0235  0.2068
47995SOL     OW51034   1.763   8.873   4.781 -0.3407 -0.0048  0.1505
47995SOL    HW151035   1.785   8.788   4.743 -1.2846 -0.6721  1.0272
47995SOL    HW251036   1.744   8.853   4.873 -1.9439  0.9219  0.0467
47996SOL     OW51037  12.408   6.608  12.158 -0.1580 -0.5063  0.3095
47996SOL    HW151038  12.381   6.633  12.070 -1.6566 -1.1806  0.5504
47996SOL    HW251039  12.333   6.561  12.194 -0.3445  1.3809  2.6468
47997SOL     OW51040   9.676   7.391  10.587  0.0430 -0.2840  0.5842
47997SOL    HW151041   9.619   7.431  10.521 -0.3981  0.2210  1.2533
47997SOL    HW251042   9.722   7.465  10.626 -2.7035 -0.0015  3.6780
47998SOL     OW51043   4.368  12.367   7.309  0.2754  0.5427  0.1007
47998SOL    HW151044   4.274  12.349   7.305  0.1073  1.3580  0.0880
47998SOL    HW251045   4.409  12.289   7.272 -0.3384 -0.2876  1.1141
47999SOL     OW51046  11.882   1.344   7.586 -0.7426 -0.3049 -0.1013
47999SOL    HW151047  11.926   1.267   7.621  4.5458  1.9420 -0.9628
47999SOL    HW251048  11.871   1.325   7.493  0.4466 -0.0945 -0.2900
48000SOL     OW51049   3.909   3.958   0.341  0.2405 -0.3256 -0.1667
48000SOL    HW151050   3.971   3.898   0.301  1.6719  0.9232  0.1045
48000SOL    HW251051   3.923   3.948   0.435  0.5096  0.4178 -0.1170
48001SOL     OW51052   4.428   3.122   4.845  0.4859  0.1908  0.2095
48001SOL    HW151053   4.489   3.195   4.857  1.1022 -0.6109  2.4185
48001SOL    HW251054   4.482   3.051   4.811  0.6944 -0.3423  1.6122
48002SOL     OW51055   0.999   0.689   2.695  0.0805 -0.1360 -0.3728
48002SOL    HW151056   0.906   0.666   2.692  0.1504 -0.5930  0.5927
48002SOL    HW251057   1.020   0.693   2.788  1.0250 -0.0030 -0.5779
48003SOL     OW51058   3.960   5.120   2.090  0.1102 -0.0598 -0.3823
48003SOL    HW151059   3.980   5.043   2.143  0.8083  0.1615 -0.3059
48003SOL    HW251060   3.983   5.194   2.146  1.7724  0.1762 -1.3078
48004SOL     OW51061  11.703   2.833  11.725 -0.1478  0.1446  0.1988
48004SOL    HW151062  11.709   2.774  11.650 -0.6142 -0.5235  0.6806
48004SOL    HW251063  11.792   2.865  11.737 -0.7147  3.9435 -3.5128
48005SOL     OW51064   6.125   9.260   6.902  0.2460 -0.0907  0.6009
48005SOL    HW151065   6.195   9.296   6.956  0.0348  0.4054  0.5562
48005SOL    HW251066   6.051   9.320   6.916  0.2099  0.1007 -0.2932
48006SOL     OW51067  11.698  10.370   4.983  0.1716  0.4762  0.3241
48006SOL    HW151068  11.749  10.291   5.000  0.1923 -0.5446 -3.4486
48006SOL    HW251069  11.612  10.337   4.957 -0.3906  1.8065  0.4227
48007SOL     OW51070   1.106   6.655  10.407 -0.1105  0.2611 -0.1853
48007SOL    HW151071   1.179   6.609  10.365  0.0544 -1.1429  1.5333
48007SOL    HW251072   1.039   6.588  10.418  0.1437  0.3561  2.3997
48008SOL     OW51073   9.844   4.647  10.745 -0.5227 -0.1252 -0.6948
48008SOL    HW151074   9.849   4.634  10.840 -3.3117  0.6621 -0.3511
48008SOL    HW251075   9.907   4.716  10.727  1.9504 -2.0436  0.1190
48009SOL     OW51076   5.342   4.990   5.984 -0.0789  0.1607 -0.1813
48009SOL    HW151077   5.327   4.969   5.892  0.5141  0.0493 -0.2545
48009SOL    HW251078   5.265   4.954   6.029 -1.0385  1.3998 -0.7749
48010SOL     OW51079  10.019  12.289   6.734 -0.0411 -0.8447  0.7318
48010SOL    HW151080   9.963  12.227   6.781 -1.0489  0.0076  0.6815
48010SOL    HW251081  10.037  12.246   6.650 -0.1069 -1.3907  0.9940
48011SOL     OW51082   6.202   7.656   9.301  0.2284 -0.2732 -0.0182
48011SOL    HW151083   6.177   7.725   9.363  0.1708 -0.7600  0.5080
48011SOL    HW251084   6.179   7.692   9.216 -0.5946  0.0240  0.3137
48012SOL     OW51085   4.457   0.431  12.000 -0.2164  0.7474  0.2474
48012SOL    HW151086   4.489   0.437  12.090  1.1557 -0.7347 -0.0925
48012SOL    HW251087   4.397   0.356  12.001 -0.5482  1.0068  0.0162
48013SOL     OW51088   8.921   2.735   5.949 -0.7039 -0.4402 -0.0535
48013SOL    HW151089   8.980   2.666   5.917 -1.0654 -0.8354  0.1283
48013SOL    HW251090   8.834   2.694   5.949 -1.0166  0.1983 -0.5071
48014SOL     OW51091   9.217  10.721   0.818  0.5939  0.5830  0.2622
48014SOL    HW151092   9.234  10.805   0.777  0.2016  0.5528  0.0369
48014SOL    HW251093   9.128  10.698   0.792  0.6705  0.1321  0.3764
48015SOL     OW51094  11.123   6.115  10.162  0.1691  0.2854 -0.4399
48015SOL    HW151095  11.134   6.100  10.068  1.7149  0.2520 -0.2880
48015SOL    HW251096  11.198   6.070  10.201 -1.5129 -1.4101  0.9859
48016SOL     OW51097   6.852   5.042   5.399 -0.3341  0.1506  0.2770
48016SOL    HW151098   6.902   4.976   5.448  0.1445 -1.0127 -1.6332
48016SOL    HW251099   6.816   4.993   5.325 -0.1106  2.0098 -1.1217
48017SOL     OW51100   2.143  10.941   1.066  0.4272  0.2314 -0.0477
48017SOL    HW151101   2.202  10.913   1.136  1.6410  0.9554 -0.7444
48017SOL    HW251102   2.134  10.864   1.010  0.8044  0.1470  0.0051
48018SOL     OW51103  11.824   5.098  12.318 -0.1289 -0.7522  0.1228
48018SOL    HW151104  11.893   5.033  12.332  1.2236  0.7481  0.7626
48018SOL    HW251105  11.835   5.161  12.389 -0.3722  1.0153 -1.3291
48019SOL     OW51106   2.241  12.214  10.711  0.3759 -0.0725  0.1704
48019SOL    HW151107   2.279  12.128  10.693  0.5403 -0.3988  1.9075
48019SOL    HW251108   2.147  12.201  10.700  0.4634 -0.2789 -0.3357
48020SOL     OW51109   9.706   5.734   9.393  0.3019 -0.5246 -0.3981
48020SOL    HW151110   9.618   5.751   9.426 -0.3027 -0.9367 -1.7218
48020SOL    HW251111   9.757   5.810   9.422 -0.1486 -0.8784  1.4619
48021SOL     OW51112   8.477   0.049   6.241 -0.5043  0.1611 -0.2143
48021SOL    HW151113   8.519   0.011   6.164 -0.3814 -0.9240  0.3673
48021SOL    HW251114   8.491  -0.016   6.310 -0.0259  1.4000  0.9027
48022SOL     OW51115   7.708   4.973   2.650  0.6194  0.4795  0.0615
48022SOL    HW151116   7.777   4.915   2.683  1.2910  0.9588 -0.4749
48022SOL    HW251117   7.703   5.044   2.713  0.6288  0.4575  0.0869
48023SOL     OW51118   7.045   4.303   2.007 -0.1858  0.1401  0.4232
48023SOL    HW151119   6.999   4.219   2.009 -2.9138  1.3754 -2.0008
48023SOL    HW251120   7.134   4.281   1.980 -0.6716 -1.9978  0.3633
48024SOL     OW51121   6.894  11.207   4.747  0.3302  0.2770 -0.7759
48024SOL    HW151122   6.802  11.198   4.773  0.6160  2.4818  1.3895
48024SOL    HW251123   6.901  11.155   4.667 -1.9269 -2.8803  0.8187
48025SOL     OW51124   8.236   2.510   3.792 -0.0586 -0.1310 -0.4504
48025SOL    HW151125   8.183   2.455   3.734 -1.3245  0.5432  0.0319
48025SOL    HW251126   8.285   2.448   3.846  0.3349 -0.7668 -1.5061
48026SOL     OW51127   2.711  12.074   5.900  0.2855 -0.0727 -0.0197
48026SOL    HW151128   2.720  12.102   5.809  0.4320 -0.0272  0.0087
48026SOL    HW251129   2.716  12.156   5.950  0.7524 -0.1526  0.0662
48027SOL     OW51130   4.897   2.612   2.579  0.2188  0.2674 -0.2511
48027SOL    HW151131   4.842   2.688   2.565  0.5874  0.0836 -3.2395
48027SOL    HW251132   4.974   2.646   2.626  0.4607  1.7964 -1.6927
48028SOL     OW51133   4.046   0.271   4.154 -0.6589  0.2299  0.1456
48028SOL    HW151134   4.045   0.176   4.158 -2.0084  0.2016 -0.2627
48028SOL    HW251135   3.955   0.297   4.174 -1.4338  1.1987 -3.7174
48029SOL     OW51136   4.126   3.088   3.258  0.0297  0.2496  0.3159
48029SOL    HW151137   4.035   3.118   3.251  0.3516  1.0179 -0.8401
48029SOL    HW251138   4.119   2.998   3.289 -1.1027  0.4531  0.7077
48030SOL     OW51139   6.493   9.064   7.428 -0.0102 -0.1889  0.1029
48030SOL    HW151140   6.572   9.115   7.409 -0.6745  1.7590  2.1808
48030SOL    HW251141   6.515   8.975   7.400  3.1557  0.1509  1.1052
48031SOL     OW51142   7.927   5.561  12.279  0.2013  0.0338 -0.2544
48031SOL    HW151143   7.881   5.481  12.304 -2.3930  1.2209 -0.8317
48031SOL    HW251144   7.983   5.580  12.354 -1.5168 -0.6666  1.2937
48032SOL     OW51145  10.233  10.228   1.435 -0.4155 -0.2956 -0.3396
48032SOL    HW151146  10.216  10.178   1.515  0.0496  1.9448  1.2570
48032SOL    HW251147  10.149  10.230   1.389 -0.8862 -0.9829  0.4724
48033SOL     OW51148   3.596   4.942  10.468  0.1335 -0.5203  0.7097
48033SOL    HW151149   3.650   4.876  10.425  0.1615 -0.0025 -0.0575
48033SOL    HW251150   3.654   4.980  10.535  0.4349 -0.5756  0.4791
48034SOL     OW51151   7.017   2.794   6.630  0.6242 -0.2990  0.1043
48034SOL    HW151152   6.953   2.791   6.559  0.7168 -0.9059  0.0409
48034SOL    HW251153   7.074   2.719   6.614  1.4469  0.3213  0.0744
48035SOL     OW51154   6.609   0.471   0.985  0.3112 -0.4771  0.2817
48035SOL    HW151155   6.643   0.426   1.063 -0.2176 -1.6515 -0.1480
48035SOL    HW251156   6.595   0.402   0.921 -1.1064  0.2192 -0.2023
48036SOL     OW51157   5.604   5.370   2.125 -0.1099 -0.3336  0.1063
48036SOL    HW151158   5.550   5.371   2.046 -0.3063 -1.4833  0.1996
48036SOL    HW251159   5.633   5.460   2.136  0.8925 -0.3479 -1.9406
48037SOL     OW51160   4.291   6.015  12.520  0.1129  0.0412 -0.3399
48037SOL    HW151161   4.300   6.096  12.569 -1.5208  0.9609 -1.4504
48037SOL    HW251162   4.225   5.965  12.567 -0.8125  0.5406 -1.0734
48038SOL     OW51163   8.913   1.359   6.276  0.2900 -0.3256 -0.3781
48038SOL    HW151164   8.957   1.443   6.260 -0.9895  0.8442  1.7966
48038SOL    HW251165   8.843   1.355   6.210  0.8851 -0.1229 -1.0357
48039SOL     OW51166   0.323   3.747   4.783 -0.2233  0.3832 -0.3810
48039SOL    HW151167   0.392   3.804   4.750 -1.2928  1.1262 -1.4458
48039SOL    HW251168   0.366   3.691   4.848  0.8730  2.3953  0.7109
48040SOL     OW51169   0.489   8.440   3.118  0.2265 -0.4452 -0.1555
48040SOL    HW151170   0.412   8.452   3.062  0.9150  3.4893 -0.5562
48040SOL    HW251171   0.452   8.422   3.204 -1.1131 -0.3149 -0.6661
48041SOL     OW51172   7.970   0.990  11.136 -0.1828  0.8259 -0.1856
48041SOL    HW151173   7.953   0.900  11.164 -2.4063  1.8016  1.9222
48041SOL    HW251174   7.975   1.041  11.217  2.5600  2.4633 -1.2185
48042SOL     OW51175  10.662   0.150  11.260 -0.1450  0.8371  0.0263
48042SOL    HW151176  10.677   0.085  11.192  0.7923 -0.6861  1.6172
48042SOL    HW251177  10.723   0.221  11.241  0.1249  0.4157 -0.6788
48043SOL     OW51178   4.706   9.332  11.542  0.9498  0.3813  0.7454
48043SOL    HW151179   4.773   9.273  11.508 -1.2292 -1.9536  0.1507
48043SOL    HW251180   4.686   9.298  11.629 -1.3229 -0.8192 -0.1431
48044SOL     OW51181   0.947   4.767   4.465 -0.0017 -0.0438  0.1097
48044SOL    HW151182   0.971   4.827   4.393 -1.4516 -0.0807 -0.4290
48044SOL    HW251183   0.928   4.825   4.539  0.9994  0.0207  0.3280
48045SOL     OW51184   4.960   2.310   6.919  0.1926 -0.5126  0.3119
48045SOL    HW151185   4.914   2.247   6.975  2.2039 -0.8418  1.7317
48045SOL    HW251186   4.970   2.265   6.836 -1.7831 -0.5023  0.0089
48046SOL     OW51187   4.165   7.977   8.485  0.0570  0.2055 -0.5256
48046SOL    HW151188   4.097   7.919   8.452 -0.6473 -0.2928  1.6727
48046SOL    HW251189   4.119   8.058   8.508  0.6313  0.7569 -1.2344
48047SOL     OW51190  12.503   7.057   8.457  0.6784 -0.3652 -0.0476
48047SOL    HW151191  12.565   7.006   8.404  0.2023 -0.0451 -0.9420
48047SOL    HW251192  12.508   7.146   8.421 -2.5701 -0.9337 -2.3791
48048SOL     OW51193  12.267  11.433   3.422 -0.1192  0.2627  0.1062
48048SOL    HW151194  12.290  11.367   3.487  0.2569  0.7089  0.4355
48048SOL    HW251195  12.330  11.504   3.437  0.5457  0.0033 -1.3284
48049SOL     OW51196   9.912  11.871   9.985 -0.4557  0.2951 -0.8455
48049SOL    HW151197   9.878  11.790  10.022  0.4298  0.1298 -0.3776
48049SOL    HW251198   9.899  11.862   9.891 -0.3994 -0.3712 -0.7928
48050SOL     OW51199   3.833   2.967  11.284 -0.0283 -0.2628 -0.1069
48050SOL    HW151200   3.869   2.879  11.295  0.6375  0.2395  2.1000
48050SOL    HW251201   3.764   2.973  11.350  1.9272  1.8352  1.9345
48051SOL     OW51202   5.797   3.377   2.560  0.1410 -0.0464 -0.3509
48051SOL    HW151203   5.861   3.307   2.573 -0.8793 -1.0687 -0.7249
48051SOL    HW251204   5.722   3.334   2.519  0.5101  1.7168 -3.2029
48052SOL     OW51205   9.913   5.976   5.244 -0.8290 -0.0296 -0.0412
48052SOL    HW151206   9.997   5.975   5.198  0.3439 -1.5968  1.9178
48052SOL    HW251207   9.894   6.069   5.258  0.3567  0.3666 -0.8785
48053SOL     OW51208  10.066  10.708   7.404  0.0417 -0.0210  0.0142
48053SOL    HW151209   9.991  10.705   7.464  0.3144  1.0747  0.4317
48053SOL    HW251210  10.029  10.742   7.323 -0.0513 -0.1510  0.0014
48054SOL     OW51211   3.959   5.638   3.365 -0.3404 -0.4663 -0.3622
48054SOL    HW151212   4.040   5.687   3.350 -1.0340  0.7908 -0.1217
48054SOL    HW251213   3.894   5.681   3.308 -0.7760 -1.6464 -0.7797
48055SOL     OW51214   5.345   7.761  10.528  0.0077  0.4916 -0.0464
48055SOL    HW151215   5.376   7.795  10.612  0.1636 -1.1654  0.6001
48055SOL    HW251216   5.354   7.666  10.535 -0.0268  0.3014 -1.9251
48056SOL     OW51217   8.353   6.265   4.582  0.2884 -0.4500  0.1784
48056SOL    HW151218   8.291   6.296   4.516  0.4181  1.1202  0.7495
48056SOL    HW251219   8.434   6.312   4.563  0.5370 -0.5291  0.9950
48057SOL     OW51220   6.912   0.424  10.854 -0.0946 -0.5652 -0.2063
48057SOL    HW151221   6.990   0.390  10.812 -0.4381  0.0793 -1.4116
48057SOL    HW251222   6.932   0.422  10.948  2.1248  1.3655 -0.5375
48058SOL     OW51223   6.015  11.973   3.771  0.4783  0.6761  0.3381
48058SOL    HW151224   6.101  12.011   3.789  2.2236 -1.7713 -1.9655
48058SOL    HW251225   6.002  11.909   3.841  0.4218  1.1752  0.7887
48059SOL     OW51226   4.371  10.446   1.927  0.8845  0.3318 -0.2217
48059SOL    HW151227   4.277  10.429   1.935  0.9710  0.0022  0.1492
48059SOL    HW251228   4.408  10.362   1.901  1.3192 -0.1177  1.6435
48060SOL     OW51229   2.191   8.447   9.711  0.1159 -0.1018  0.6065
48060SOL    HW151230   2.103   8.458   9.677  0.6742  0.1746 -0.7871
48060SOL    HW251231   2.208   8.526   9.762  0.4073  0.9401 -1.0677
48061SOL     OW51232  11.506   8.981   0.849  0.6453  0.1054  0.0553
48061SOL    HW151233  11.589   9.028   0.862 -0.2560  1.9594 -0.4634
48061SOL    HW251234  11.477   9.008   0.762 -1.3149  0.8780  0.8882
48062SOL     OW51235   4.794   7.080   3.579  0.3443  0.1895  0.0407
48062SOL    HW151236   4.738   7.005   3.600 -0.8074  1.4097  1.5983
48062SOL    HW251237   4.741   7.156   3.600  2.3359  1.4385  0.8225
48063SOL     OW51238  12.499   6.706   7.936  0.1105 -0.3444  0.1956
48063SOL    HW151239  12.451   6.651   7.998  0.8466 -0.7879  0.3812
48063SOL    HW251240  12.572   6.742   7.986 -0.0138  0.3168 -0.0863
48064SOL     OW51241   5.106   9.467   8.520  0.1755  0.0481  0.7229
48064SOL    HW151242   5.025   9.519   8.521 -0.1067 -0.3808  1.1920
48064SOL    HW251243   5.130   9.460   8.613  1.2839  0.9703  0.5283
48065SOL     OW51244  12.343   3.827  12.465  0.2562 -0.4962 -0.2544
48065SOL    HW151245  12.439   3.829  12.457  0.2227 -1.8776 -1.4342
48065SOL    HW251246  12.320   3.736  12.446 -1.3437 -0.0155 -0.7359
48066SOL     OW51247   7.255   3.196  12.490 -0.4075 -0.3003 -0.3131
48066SOL    HW151248   7.212   3.247  12.422  2.6396  0.1136 -2.1374
48066SOL    HW251249   7.315   3.258  12.532  1.2409 -1.6245 -0.5881
48067SOL     OW51250  11.751   1.326   9.044  0.2981  0.8513  0.2023
48067SOL    HW151251  11.742   1.407   8.994  1.0073 -0.2668 -1.8567
48067SOL    HW251252  11.794   1.352   9.125  2.7590  2.2402 -1.4441
48068SOL     OW51253   0.582   3.455   0.581  0.1621 -0.2610 -0.2975
48068SOL    HW151254   0.635   3.406   0.643 -0.2945 -0.5742 -0.1521
48068SOL    HW251255   0.539   3.522   0.633  2.9240  2.1785 -0.8840
48069SOL     OW51256  12.552   8.033  12.335  0.2933  0.1406 -1.3150
48069SOL    HW151257  12.484   8.094  12.306 -1.4489  0.8983  3.5017
48069SOL    HW251258  12.625   8.089  12.361  0.2104 -0.1243 -0.4921
48070SOL     OW51259  10.766   0.156   8.750 -0.6573  0.2359  0.2650
48070SOL    HW151260  10.726   0.237   8.779  0.1711  1.2082 -1.1634
48070SOL    HW251261  10.758   0.096   8.824  0.1602  2.1190  1.9558
48071SOL     OW51262   5.852   2.810  12.472 -0.3107  0.1887 -0.3409
48071SOL    HW151263   5.902   2.733  12.442 -0.0667 -0.4484  1.5677
48071SOL    HW251264   5.914   2.882  12.466  2.0707 -1.0086  4.5529
48072SOL     OW51265   8.942   2.041  11.296 -0.0525 -0.0592  0.2541
48072SOL    HW151266   8.994   2.058  11.218 -0.8091  0.4425 -0.1537
48072SOL    HW251267   8.992   2.081  11.367  0.1329  0.3931 -0.1254
48073SOL     OW51268  12.188   9.871   7.624 -0.3044  0.1310  0.4621
48073SOL    HW151269  12.144   9.837   7.702  0.1875 -0.4654  0.4879
48073SOL    HW251270  12.234   9.949   7.654  1.3737 -1.0855  1.2048
48074SOL     OW51271   3.153  10.051  10.598  0.3420 -0.3054  0.3466
48074SOL    HW151272   3.223  10.110  10.626  0.7167 -0.1637 -0.8456
48074SOL    HW251273   3.149  10.061  10.503 -1.7943  0.2507  0.4287
48075SOL     OW51274   6.400   2.229   0.607 -0.2944  0.1783 -0.3355
48075SOL    HW151275   6.469   2.291   0.584 -0.0845 -0.3084 -1.0390
48075SOL    HW251276   6.319   2.271   0.578 -0.0677 -0.2688 -1.6925
48076SOL     OW51277   3.786  10.618   2.987 -0.3058  0.0265 -0.1300
48076SOL    HW151278   3.717  10.679   3.015 -0.0901  0.8571 -1.2903
48076SOL    HW251279   3.820  10.657   2.906  1.0844 -0.7158  0.0681
48077SOL     OW51280   8.248   3.769   9.463 -0.0065  0.0351 -0.2902
48077SOL    HW151281   8.215   3.848   9.421  1.2978  0.9049  0.2490
48077SOL    HW251282   8.170   3.729   9.503 -0.6115  1.3205 -0.1354
48078SOL     OW51283   7.680   5.759   8.363  0.2753  0.0269 -0.1012
48078SOL    HW151284   7.769   5.750   8.398  0.4461 -0.8438 -0.7395
48078SOL    HW251285   7.685   5.835   8.306  1.4220 -1.7326 -2.5070
48079SOL     OW51286  12.155   8.314  10.211 -0.2534 -0.9211 -0.5224
48079SOL    HW151287  12.097   8.352  10.277  0.0894 -0.1181 -0.6737
48079SOL    HW251288  12.236   8.364  10.219  0.2867 -1.7708 -0.5848
48080SOL     OW51289   9.834   4.382   9.359  0.3616  0.6216 -0.3667
48080SOL    HW151290   9.834   4.414   9.269  0.3104  0.6612 -0.3530
48080SOL    HW251291   9.749   4.408   9.393  0.4791  0.8246 -0.2284
48081SOL     OW51292   1.431   9.394   4.880 -0.0125 -0.2099 -0.1380
48081SOL    HW151293   1.477   9.467   4.837  0.2484  0.6862  1.5694
48081SOL    HW251294   1.501   9.333   4.904 -0.1358 -0.6005 -0.7327
48082SOL     OW51295  11.428   5.866  12.520 -0.2185  0.1207  0.2427
48082SOL    HW151296  11.375   5.794  12.552  2.4379 -1.2594  1.9470
48082SOL    HW251297  11.411   5.938  12.581 -1.8022  0.5162 -0.6210
48083SOL     OW51298   2.073   6.730   1.941  0.0020 -0.1728  0.8193
48083SOL    HW151299   2.123   6.651   1.964  0.7049  0.1206  0.3292
48083SOL    HW251300   2.085   6.739   1.847 -1.5523 -0.4706  0.5735
48084SOL     OW51301   5.776   1.285   8.577  0.4982 -0.2447  0.2275
48084SOL    HW151302   5.734   1.275   8.662 -1.1131 -0.5289 -0.5579
48084SOL    HW251303   5.810   1.198   8.557  1.9259  0.0850  1.0585
48085SOL     OW51304   3.117   1.196   2.392  0.3298  0.3202 -0.4503
48085SOL    HW151305   3.061   1.133   2.436 -1.2157  1.4033 -0.7955
48085SOL    HW251306   3.197   1.147   2.372  0.5611 -0.5700  2.3244
48086SOL     OW51307  10.254   2.410   3.584 -0.0524  0.1127  0.2228
48086SOL    HW151308  10.338   2.424   3.540  0.8007 -1.2157  1.3499
48086SOL    HW251309  10.236   2.493   3.629 -0.4011  1.1126 -1.6504
48087SOL     OW51310   5.525   3.025   4.294  0.1722  0.0205  0.6036
48087SOL    HW151311   5.563   2.957   4.351  0.1516 -0.6620 -0.1789
48087SOL    HW251312   5.431   3.021   4.312  0.0736 -0.7454 -0.0520
48088SOL     OW51313   7.959  11.512   2.600  0.6020  0.0167  0.5606
48088SOL    HW151314   8.037  11.553   2.564 -0.7576  1.4082 -0.9828
48088SOL    HW251315   7.929  11.453   2.531 -0.1452  0.1274  0.7764
48089SOL     OW51316   9.487   2.710   8.505  0.7777 -0.3203  0.0883
48089SOL    HW151317   9.483   2.615   8.510 -2.5597 -0.3790 -1.1060
48089SOL    HW251318   9.472   2.730   8.412  1.4427  1.3904  0.3005
48090SOL     OW51319   1.625   7.035   9.801  0.5923  0.0573 -0.2066
48090SOL    HW151320   1.631   6.941   9.814 -2.2927 -0.1663 -0.0221
48090SOL    HW251321   1.546   7.048   9.748 -0.2611  2.4862  1.4816
48091SOL     OW51322   4.647  11.435  10.551  0.1748  0.0749 -0.1850
48091SOL    HW151323   4.616  11.515  10.509 -1.0896 -1.2405 -1.9395
48091SOL    HW251324   4.635  11.450  10.644 -1.5232  1.3386 -0.5610
48092SOL     OW51325   8.363   7.255  10.841 -0.7466 -0.3761  0.3228
48092SOL    HW151326   8.334   7.168  10.813 -0.1310 -0.1519 -1.1224
48092SOL    HW251327   8.415   7.288  10.767 -0.4437  0.9668  1.0943
48093SOL     OW51328  10.326   9.724   4.599 -0.3294 -0.1142  0.1264
48093SOL    HW151329  10.345   9.806   4.643 -0.9108 -0.0913  0.3489
48093SOL    HW251330  10.332   9.744   4.506  1.7054 -0.3546  0.1782
48094SOL     OW51331   9.393   8.710   4.754  0.4494  0.3128  0.7116
48094SOL    HW151332   9.335   8.634   4.750  0.3038  0.4766 -2.2699
48094SOL    HW251333   9.342   8.782   4.718  0.6241  1.9164  3.3854
48095SOL     OW51334   7.954   8.866   7.408  0.1166  0.5271  0.0006
48095SOL    HW151335   7.890   8.929   7.373 -2.3707 -1.3434  0.8677
48095SOL    HW251336   8.008   8.843   7.332  0.3783  2.7848 -0.5822
48096SOL     OW51337   9.886  11.772   3.321  0.4521 -0.1717  1.0860
48096SOL    HW151338   9.848  11.687   3.343  0.4948 -0.4097  0.3020
48096SOL    HW251339   9.979  11.755   3.313  0.3020 -0.4192 -0.5809
48097SOL     OW51340  10.367   1.516   4.069  0.3656  0.2794 -0.0634
48097SOL    HW151341  10.335   1.558   4.149 -0.7892  0.9065 -0.8312
48097SOL    HW251342  10.315   1.437   4.060 -0.1609  0.6866 -0.6793
48098SOL     OW51343   2.581   0.000   4.976 -0.8490  0.8236  0.1791
48098SOL    HW151344   2.607   0.015   5.067 -0.5972 -1.0154  0.4446
48098SOL    HW251345   2.514  -0.068   4.981 -0.3883  0.2555 -1.0628
48099SOL     OW51346   8.755   4.926   6.094 -0.4157 -0.6549 -0.6311
48099SOL    HW151347   8.805   4.971   6.162 -2.8003  2.6509 -0.8577
48099SOL    HW251348   8.821   4.877   6.045  1.6940 -1.3809  2.6083
48100SOL     OW51349  10.323   0.322   4.486  0.6567 -0.3689 -0.3792
48100SOL    HW151350  10.285   0.304   4.572  1.3582  0.6543  0.1616
48100SOL    HW251351  10.251   0.360   4.435  0.1177 -1.3984 -0.4143
48101SOL     OW51352   1.200  11.148   7.093 -0.3705 -0.1056  0.2633
48101SOL    HW151353   1.158  11.064   7.109  0.6875 -0.7015  0.0111
48101SOL    HW251354   1.294  11.129   7.096 -0.0167  1.5265  2.7432
48102SOL     OW51355   1.833   1.569   3.797  0.4814 -0.2408 -0.0526
48102SOL    HW151356   1.882   1.649   3.780 -1.1531  0.9009  0.3657
48102SOL    HW251357   1.810   1.536   3.711 -0.1135  0.5809 -0.2184
48103SOL     OW51358   6.110   8.993   9.683  0.1890 -0.6113  0.0189
48103SOL    HW151359   6.109   8.963   9.592 -1.1879 -0.7504  0.0579
48103SOL    HW251360   6.053   9.070   9.683 -1.4250 -1.7217  1.0882
48104SOL     OW51361   2.900   0.818   9.079 -0.1759 -0.7013  0.6417
48104SOL    HW151362   2.875   0.727   9.061  1.1403 -1.3791  1.9709
48104SOL    HW251363   2.871   0.867   9.002 -2.5634 -1.9100  0.6714
48105SOL     OW51364   8.265   2.059   3.644 -0.3723 -0.2478  0.2370
48105SOL    HW151365   8.184   2.019   3.676  0.0815 -1.1045  0.3566
48105SOL    HW251366   8.324   2.055   3.720  0.0715 -0.4747 -0.1167
48106SOL     OW51367   4.417   4.800   3.727 -0.1063  0.3667 -0.1925
48106SOL    HW151368   4.358   4.737   3.684 -0.4049 -0.0775  0.8260
48106SOL    HW251369   4.495   4.749   3.749  0.2507  0.7112 -0.6429
48107SOL     OW51370   5.392   4.117   4.477  0.4091 -0.0603  0.2645
48107SOL    HW151371   5.381   4.037   4.427  0.6661  0.3724 -0.4965
48107SOL    HW251372   5.309   4.164   4.468 -0.2242 -0.8023  1.7742
48108SOL     OW51373   6.037  10.188   6.044 -0.3981  0.2855 -0.2505
48108SOL    HW151374   5.982  10.216   6.116 -1.0661  1.5438 -1.2231
48108SOL    HW251375   6.125  10.219   6.067 -0.5903  0.6043  0.0604
48109SOL     OW51376   5.782   5.127   3.568 -0.0953 -0.6306 -0.0385
48109SOL    HW151377   5.699   5.094   3.603  0.0149 -0.4350  0.4141
48109SOL    HW251378   5.766   5.220   3.554  0.1995 -0.4940  0.5157
48110SOL     OW51379   8.386  10.347   8.632 -0.4721 -0.2423 -0.4013
48110SOL    HW151380   8.320  10.325   8.566 -1.0216 -0.2772  0.1545
48110SOL    HW251381   8.410  10.263   8.671  1.1150 -0.4438 -1.7149
48111SOL     OW51382  12.349   3.471  10.614  0.6918  0.9140  0.7118
48111SOL    HW151383  12.427   3.515  10.580  1.8595 -0.9364  0.8766
48111SOL    HW251384  12.353   3.486  10.709  0.0511  2.0036  0.5835
48112SOL     OW51385  11.540   9.092   5.571  0.1469 -0.2757  0.0710
48112SOL    HW151386  11.455   9.125   5.542 -0.3506 -0.9142  0.7711
48112SOL    HW251387  11.560   9.021   5.510 -0.6939 -1.3257  0.9687
48113SOL     OW51388   2.874  12.144  10.250 -0.3895  0.0103  0.1971
48113SOL    HW151389   2.873  12.219  10.190 -3.5295 -0.0374  0.0368
48113SOL    HW251390   2.789  12.147  10.294  0.1848 -2.3301  1.6474
48114SOL     OW51391   6.480   1.849   8.131  0.0562  0.0741  0.4435
48114SOL    HW151392   6.450   1.803   8.209 -1.7201 -0.6899 -0.6334
48114SOL    HW251393   6.437   1.934   8.135  1.8522  1.0029  1.4612
48115SOL     OW51394  10.889   0.343  11.588  0.2758 -0.2332  0.0150
48115SOL    HW151395  10.891   0.416  11.525  1.8943 -0.3511 -0.0939
48115SOL    HW251396  10.804   0.301  11.572 -0.4014  1.2169 -0.3826
48116SOL     OW51397   6.039   6.117   4.269  0.1862 -0.4787  0.1178
48116SOL    HW151398   5.972   6.096   4.205 -0.0984  0.8025 -0.0276
48116SOL    HW251399   6.078   6.198   4.237 -2.1312  2.0544  3.1349
48117SOL     OW51400  11.064   5.619   9.292 -0.0760 -0.5624 -0.5048
48117SOL    HW151401  11.078   5.586   9.381  0.6002  1.9689  0.4251
48117SOL    HW251402  11.152   5.632   9.257 -0.2449  1.4777 -0.2733
48118SOL     OW51403   5.266   4.674  11.763  0.2538 -0.2350  0.4867
48118SOL    HW151404   5.226   4.588  11.777 -2.0119  1.0342  2.6676
48118SOL    HW251405   5.356   4.664  11.796  0.6902 -2.1842 -1.0496
48119SOL     OW51406   7.192   9.690   4.213 -0.4663 -0.0737 -0.1347
48119SOL    HW151407   7.261   9.712   4.150 -0.6961 -0.2115 -0.4417
48119SOL    HW251408   7.238   9.676   4.296  0.0377 -1.4501 -0.6059
48120SOL     OW51409   0.529   2.084   5.175 -0.5802  0.0935  0.0606
48120SOL    HW151410   0.488   1.998   5.163 -1.6400  0.1416  2.7609
48120SOL    HW251411   0.459   2.147   5.160 -0.2426  0.4171 -0.1735
48121SOL     OW51412  11.773  10.769   7.186  0.6143  0.0822  0.0205
48121SOL    HW151413  11.832  10.713   7.236 -1.1039  0.8995  3.2877
48121SOL    HW251414  11.697  10.714   7.168  0.6394  0.1997 -0.4416
48122SOL     OW51415   5.633   9.728   8.618 -0.5457 -0.9000  0.1623
48122SOL    HW151416   5.561   9.693   8.565 -0.0541  1.6324 -2.4284
48122SOL    HW251417   5.694   9.655   8.628 -2.0058 -2.2335 -0.2832
48123SOL     OW51418  12.382  12.490   6.370  0.2799  0.1947  0.0362
48123SOL    HW151419  12.370  12.462   6.460 -1.4560  1.0542  0.1011
48123SOL    HW251420  12.407  12.411   6.323  1.9201 -0.1345  1.3545
48124SOL     OW51421   2.704   4.201   1.600  0.2727 -0.5409  0.1219
48124SOL    HW151422   2.660   4.194   1.685 -0.8354 -1.0282 -0.4640
48124SOL    HW251423   2.770   4.131   1.601  1.6264  0.7026  1.3217
48125SOL     OW51424   7.865   7.690  10.344  0.0991 -0.0849  0.1826
48125SOL    HW151425   7.915   7.729  10.416  0.2495  2.0769 -1.0101
48125SOL    HW251426   7.777   7.679  10.379  0.2759  0.5180  0.8365
48126SOL     OW51427  10.795   8.465   3.786 -0.4589  0.3881 -0.2764
48126SOL    HW151428  10.702   8.444   3.779  0.0171 -1.8967 -0.7047
48126SOL    HW251429  10.827   8.462   3.696  0.3043 -0.5313 -0.0025
48127SOL     OW51430   9.254   6.299   3.696 -0.4332  0.4209  0.1298
48127SOL    HW151431   9.347   6.279   3.696  0.1163  2.6525 -0.9886
48127SOL    HW251432   9.212   6.220   3.660  0.8253 -1.1239  1.9049
48128SOL     OW51433  11.797   6.613  10.709 -0.1562  0.5643  0.1018
48128SOL    HW151434  11.744   6.680  10.667 -0.4070  0.6095  0.4861
48128SOL    HW251435  11.867   6.662  10.753  0.5033  0.4686 -0.8301
48129SOL     OW51436  11.825   8.662   6.171 -0.1728 -0.0667  0.1534
48129SOL    HW151437  11.896   8.691   6.229 -0.0581 -1.7551  0.9117
48129SOL    HW251438  11.748   8.659   6.227 -0.3471 -0.4624 -0.1072
48130SOL     OW51439  10.048   6.513   3.719 -0.3431 -0.1791 -0.3922
48130SOL    HW151440   9.993   6.544   3.647 -1.7148  0.0539  0.6977
48130SOL    HW251441  10.135   6.547   3.699 -1.1815  1.9580 -0.7412
48131SOL     OW51442  11.912   3.958  11.209  0.5443 -0.1403 -0.0399
48131SOL    HW151443  11.832   3.926  11.249  0.3106 -1.6903 -1.5987
48131SOL    HW251444  11.961   3.879  11.186  0.9612  0.6339 -2.1101
48132SOL     OW51445  11.254   2.280   0.486 -0.3005  0.0221 -0.3405
48132SOL    HW151446  11.183   2.262   0.424 -0.0936 -0.8055 -0.3548
48132SOL    HW251447  11.314   2.337   0.437 -1.0090  0.8366 -0.2803
48133SOL     OW51448   2.514   9.472   0.253 -0.0122 -0.5145  0.1559
48133SOL    HW151449   2.532   9.381   0.279 -1.2246 -0.4738  1.2248
48133SOL    HW251450   2.545   9.524   0.327 -0.2959 -0.1261  0.0032
48134SOL     OW51451   1.317   9.150   2.244  0.4504 -0.2399 -0.3181
48134SOL    HW151452   1.282   9.173   2.331 -1.0455  2.3882 -1.4919
48134SOL    HW251453   1.385   9.214   2.227  0.5230 -0.5331 -1.1968
48135SOL     OW51454  10.133   6.703   6.781 -0.0252 -0.0670 -0.4081
48135SOL    HW151455  10.218   6.676   6.814 -0.0613  1.3608  1.0338
48135SOL    HW251456  10.119   6.651   6.703  2.3215 -0.0985 -0.8791
48136SOL     OW51457  10.487   6.676   5.141 -0.6176 -0.3835 -0.3732
48136SOL    HW151458  10.405   6.712   5.107  0.8680  0.8752 -2.8842
48136SOL    HW251459  10.555   6.734   5.107  1.4624 -2.2400  0.3509
48137SOL     OW51460  11.785  10.812  10.851 -0.0400 -0.1043  0.0891
48137SOL    HW151461  11.854  10.800  10.786  1.0888  0.2695  1.1646
48137SOL    HW251462  11.770  10.907  10.853  0.1057 -0.0847  0.5199
48138SOL     OW51463   0.619  10.050   8.325 -0.1051 -0.9410 -0.3380
48138SOL    HW151464   0.607  10.009   8.240  3.4519 -2.9334 -0.0603
48138SOL    HW251465   0.680  10.122   8.309 -0.4258 -0.5053  0.3530
48139SOL     OW51466   2.532   8.212   7.307  0.3090  0.1502 -0.2551
48139SOL    HW151467   2.548   8.233   7.215 -2.0747  0.1170 -0.7454
48139SOL    HW251468   2.579   8.280   7.356  3.1976 -0.8990 -1.3459
48140SOL     OW51469  12.537   6.080   5.173 -0.4195  0.2252 -0.2468
48140SOL    HW151470  12.556   6.029   5.094 -0.0571 -0.5316  0.3130
48140SOL    HW251471  12.589   6.160   5.163  1.6294 -0.9592  0.3642
48141SOL     OW51472   5.145   1.008   1.494 -0.2282  0.1780  0.1873
48141SOL    HW151473   5.220   0.950   1.506 -0.3778  0.1558  1.0311
48141SOL    HW251474   5.098   1.005   1.577 -0.9870  0.4511 -0.2242
48142SOL     OW51475   5.074   6.761  12.200 -0.1377  0.2538  0.1293
48142SOL    HW151476   5.015   6.826  12.238  0.5178  0.0816  1.5046
48142SOL    HW251477   5.051   6.759  12.107 -1.1069  1.4334  0.3191
48143SOL     OW51478   1.477   4.886   8.040 -0.5504 -0.7745 -0.5339
48143SOL    HW151479   1.400   4.933   8.006 -0.0860 -0.1543 -0.7460
48143SOL    HW251480   1.538   4.883   7.966  0.4896  0.6180  0.2062
48144SOL     OW51481   3.775   0.911   3.241 -0.0183 -0.3381 -0.3897
48144SOL    HW151482   3.820   0.994   3.224 -1.2776  0.6756  0.9457
48144SOL    HW251483   3.721   0.929   3.318  0.5829 -2.7767  0.6744
48145SOL     OW51484   3.779   2.445  12.173  0.2512 -0.1923  0.1507
48145SOL    HW151485   3.717   2.426  12.243  0.3793 -1.7326 -0.1035
48145SOL    HW251486   3.727   2.487  12.105 -0.2028 -0.1413  0.5291
48146SOL     OW51487   7.621   8.204   4.972 -0.0198  0.0900 -0.1723
48146SOL    HW151488   7.613   8.109   4.966  0.7162  0.0962 -1.7668
48146SOL    HW251489   7.533   8.236   4.951  0.0816 -0.2202 -1.1233
48147SOL     OW51490   1.522  10.692   5.435 -0.0330  0.3635  0.0218
48147SOL    HW151491   1.613  10.722   5.435 -0.5706  2.1974 -1.8783
48147SOL    HW251492   1.489  10.714   5.348 -2.6801  1.0029  1.0923
48148SOL     OW51493   6.157   2.456   9.406  0.3185 -0.0719  0.1403
48148SOL    HW151494   6.158   2.395   9.332  0.3526 -1.4478  1.2422
48148SOL    HW251495   6.249   2.474   9.423  0.3485 -0.5175  0.4554
48149SOL     OW51496   6.862   2.971  10.851  0.7143 -0.1885  0.6890
48149SOL    HW151497   6.857   2.875  10.856 -0.4063 -0.3335 -1.6959
48149SOL    HW251498   6.799   2.995  10.782  2.3685  2.0839 -0.1615
48150SOL     OW51499   3.261   1.894   5.749  0.0610  0.0884  0.6340
48150SOL    HW151500   3.353   1.916   5.760 -0.2939  2.3573 -0.3590
48150SOL    HW251501   3.246   1.898   5.655 -1.4294  1.7062  0.8832
48151SOL     OW51502   7.301   1.183   4.406  0.0987 -0.0989  0.0201
48151SOL    HW151503   7.303   1.278   4.397  0.6951 -0.0313  0.6979
48151SOL    HW251504   7.219   1.164   4.451 -0.3657  0.0235 -0.7640
48152SOL     OW51505   1.735   4.150   9.164  0.1304  0.2073 -0.0532
48152SOL    HW151506   1.729   4.230   9.216 -1.0527 -0.6186  1.1266
48152SOL    HW251507   1.827   4.146   9.137  0.2450  1.8632 -0.0133
48153SOL     OW51508   4.796   1.530   9.689 -0.0931  0.7458  1.2074
48153SOL    HW151509   4.867   1.493   9.636 -0.5488  0.8929  0.4732
48153SOL    HW251510   4.815   1.502   9.778 -1.1050 -2.3666  0.5405
48154SOL     OW51511   5.539   9.625   3.670  0.2986  0.1402 -0.2752
48154SOL    HW151512   5.575   9.557   3.613 -1.5511 -0.5968 -0.6375
48154SOL    HW251513   5.562   9.708   3.626  0.7011 -0.3345 -0.9826
48155SOL     OW51514  11.678   1.614   4.272  0.1814 -0.5055  0.0518
48155SOL    HW151515  11.708   1.535   4.317  1.7122 -0.3649 -0.6465
48155SOL    HW251516  11.668   1.679   4.341  0.1980 -0.9465  0.4745
48156SOL     OW51517   5.731  12.027   9.564 -0.4159  0.4142 -0.3136
48156SOL    HW151518   5.791  11.981   9.624  0.9926  2.5502  0.0298
48156SOL    HW251519   5.778  12.031   9.481 -0.7247  0.8363 -0.4700
48157SOL     OW51520   1.795   9.697   6.565  0.0517 -0.0479  0.1090
48157SOL    HW151521   1.752   9.733   6.643  1.2114  1.1401  0.2415
48157SOL    HW251522   1.773   9.604   6.567 -3.4184  0.6061 -0.4661
48158SOL     OW51523   9.199   1.550   1.392  0.1485  0.0371  0.0781
48158SOL    HW151524   9.119   1.500   1.408  1.3580 -2.3086 -0.8426
48158SOL    HW251525   9.253   1.493   1.337  2.1775  1.8400  0.0718
48159SOL     OW51526   9.863   1.312   7.267  0.5753 -0.1148 -0.0929
48159SOL    HW151527   9.820   1.352   7.343 -0.6673 -0.2806 -0.6796
48159SOL    HW251528   9.855   1.218   7.281 -0.8030 -0.1649 -1.0119
48160SOL     OW51529   6.861   6.997  11.587 -0.0984  0.3278  0.2131
48160SOL    HW151530   6.812   7.005  11.669 -1.0635 -0.4238 -0.2835
48160SOL    HW251531   6.812   7.050  11.525 -1.2246 -1.6647 -0.6890
48161SOL     OW51532   2.773   3.261   1.527  0.5657  0.1899  0.0448
48161SOL    HW151533   2.836   3.320   1.487  0.5392 -0.1557 -0.5119
48161SOL    HW251534   2.826   3.189   1.561  0.7028  0.9423  1.5317
48162SOL     OW51535   1.788   7.660  10.902  0.3386 -0.5440  0.1722
48162SOL    HW151536   1.755   7.735  10.951 -0.1632  0.3835 -1.5162
48162SOL    HW251537   1.740   7.585  10.937 -0.3959  0.1619  0.7034
48163SOL     OW51538   0.446   5.807   4.703  0.3249  0.7223  0.2225
48163SOL    HW151539   0.368   5.757   4.681  0.1141  1.1294  0.0211
48163SOL    HW251540   0.435   5.890   4.657  0.9029  0.7651  0.1514
48164SOL     OW51541  12.458  12.558   9.512 -0.0481 -0.1704  0.1975
48164SOL    HW151542  12.365  12.540   9.499  0.2482 -0.7671 -1.2505
48164SOL    HW251543  12.472  12.644   9.472 -0.1517  0.3519  1.2587
48165SOL     OW51544   8.313  10.615   8.572 -0.0924  0.2743 -0.1984
48165SOL    HW151545   8.318  10.530   8.616  0.1815  1.2101  1.6764
48165SOL    HW251546   8.372  10.606   8.497  0.1586 -1.0912  0.1287
48166SOL     OW51547   5.699  10.704   9.882  0.2686  0.6428 -0.0617
48166SOL    HW151548   5.672  10.612   9.881 -0.5061  0.8337  1.5195
48166SOL    HW251549   5.632  10.749   9.831 -0.9053  0.6941  1.4494
48167SOL     OW51550   0.246   4.804  10.033  0.1514 -0.0425 -0.4552
48167SOL    HW151551   0.151   4.819  10.035  0.1028 -0.3785 -0.0132
48167SOL    HW251552   0.284   4.888  10.059 -0.0597 -0.1678  0.2957
48168SOL     OW51553   9.336   0.063  11.151 -0.1783  0.1027 -0.1326
48168SOL    HW151554   9.361   0.068  11.059  1.7786  0.9602  0.3817
48168SOL    HW251555   9.243   0.086  11.152 -0.0677  0.7714 -1.8195
48169SOL     OW51556   0.006   7.472   0.421  0.3299  0.3078 -0.4164
48169SOL    HW151557  -0.058   7.417   0.467 -1.3903  1.4615 -1.3188
48169SOL    HW251558   0.051   7.411   0.362 -0.4164 -0.4054 -0.2723
48170SOL     OW51559   0.528   9.967   2.038  0.3954 -0.0930 -0.5156
48170SOL    HW151560   0.588   9.957   2.112 -1.4373  1.8722  1.3785
48170SOL    HW251561   0.556  10.049   1.997 -0.0633  0.0488 -0.5440
48171SOL     OW51562   9.779   3.071   6.153 -0.5699  0.5712 -0.0490
48171SOL    HW151563   9.696   3.052   6.198  0.8180  1.3597  3.1182
48171SOL    HW251564   9.812   3.149   6.196  2.5822 -0.6184 -0.0754
48172SOL     OW51565  10.334   7.393   7.925  0.2515  0.3224 -0.0847
48172SOL    HW151566  10.334   7.463   7.860  0.3091  0.4859  0.0912
48172SOL    HW251567  10.272   7.329   7.891 -1.5059  1.4750  0.8498
48173SOL     OW51568   6.964   2.803   0.647  0.4882  0.4363  0.6684
48173SOL    HW151569   6.920   2.767   0.724 -0.0418  0.4249  0.3606
48173SOL    HW251570   6.964   2.897   0.661 -1.0361  0.5635 -0.0654
48174SOL     OW51571   6.747   5.170   3.908  0.1621 -0.2136  0.2102
48174SOL    HW151572   6.784   5.249   3.948  0.4940 -0.1025 -0.3063
48174SOL    HW251573   6.713   5.120   3.982 -2.9808  1.8485  0.3438
48175SOL     OW51574  12.161   8.995   6.538  0.4489  0.4203 -0.7568
48175SOL    HW151575  12.231   8.988   6.474 -0.0550 -2.3040 -1.1101
48175SOL    HW251576  12.096   9.052   6.496  1.3042  0.9042 -1.4704
48176SOL     OW51577  11.767   2.913   5.329  0.1715 -0.0262 -0.1960
48176SOL    HW151578  11.695   2.856   5.356  0.0160  0.0120 -0.5196
48176SOL    HW251579  11.796   2.877   5.245  2.4103 -1.7548  1.1989
48177SOL     OW51580  12.042   2.036   2.702 -0.1454  0.3608  0.2971
48177SOL    HW151581  12.121   2.074   2.740 -1.1752  2.8809  0.1037
48177SOL    HW251582  11.972   2.063   2.761 -1.1850  0.4582 -0.9558
48178SOL     OW51583   3.113   2.249   4.215  0.3476  0.2517  0.5022
48178SOL    HW151584   3.165   2.328   4.202  2.1476 -1.2280 -2.6282
48178SOL    HW251585   3.087   2.223   4.126 -0.3915 -2.5195  1.4230
48179SOL     OW51586   7.339  12.324   8.685  0.1417  0.1722  0.1278
48179SOL    HW151587   7.349  12.284   8.599 -0.1682  1.9951 -0.8072
48179SOL    HW251588   7.257  12.373   8.680 -0.2731 -0.2818  1.7241
48180SOL     OW51589   5.945   0.657   1.365 -0.2598  0.1084  0.8595
48180SOL    HW151590   5.906   0.613   1.441  1.2324 -2.1410  0.4174
48180SOL    HW251591   6.028   0.611   1.351 -0.2405  0.8159 -1.8011
48181SOL     OW51592   3.215   1.927   1.626 -0.5584  0.6244 -0.2489
48181SOL    HW151593   3.308   1.903   1.625 -0.1397  2.1726  0.0329
48181SOL    HW251594   3.195   1.941   1.718 -1.8875 -2.4913  0.0916
48182SOL     OW51595  10.866   8.338   0.421  0.1211  0.2059  0.3627
48182SOL    HW151596  10.879   8.266   0.359  0.4204  0.3425  0.2641
48182SOL    HW251597  10.840   8.295   0.502  0.3503 -0.0182  0.3189
48183SOL     OW51598   7.819   1.089   9.962  0.6085 -0.1412 -0.0821
48183SOL    HW151599   7.851   1.075   9.873 -1.0937 -0.2999 -0.6895
48183SOL    HW251600   7.740   1.142   9.951  0.1520 -0.5102  1.3137
48184SOL     OW51601   0.210   6.554   3.760  0.2946  0.1108  0.1095
48184SOL    HW151602   0.132   6.499   3.771 -1.5765  2.4102 -0.7328
48184SOL    HW251603   0.210   6.576   3.667  2.4158 -0.3908 -0.0591
48185SOL     OW51604   2.062   1.917   4.861  0.4816  0.2102 -0.5321
48185SOL    HW151605   2.042   1.865   4.783  0.4700  2.4591 -2.0982
48185SOL    HW251606   2.015   1.999   4.849 -1.3005 -0.1163  2.9221
48186SOL     OW51607   5.208   5.731   6.929  0.4275  0.5363  0.8383
48186SOL    HW151608   5.177   5.690   7.010 -1.7594 -2.2080 -1.2077
48186SOL    HW251609   5.274   5.670   6.895 -0.9678 -0.0351 -0.9677
48187SOL     OW51610   8.137   5.522   2.204 -0.1545 -0.2630  0.2747
48187SOL    HW151611   8.076   5.449   2.189  0.3836 -0.6677  0.0286
48187SOL    HW251612   8.157   5.518   2.297 -1.7916  0.9040  0.7265
48188SOL     OW51613   8.109   1.255  11.846  0.1364 -0.3506 -0.1658
48188SOL    HW151614   8.193   1.212  11.862  0.2163 -0.0967  0.0999
48188SOL    HW251615   8.104   1.323  11.913  1.0152  1.5293 -1.9251
48189SOL     OW51616  10.439   9.459   7.748  0.1020  0.2148  0.2618
48189SOL    HW151617  10.431   9.539   7.800  0.0548 -0.3893  1.2028
48189SOL    HW251618  10.372   9.469   7.680 -0.9012  0.3565  1.2273
48190SOL     OW51619  11.459  10.621   3.826  0.0561  0.2856 -0.0163
48190SOL    HW151620  11.459  10.613   3.730 -0.7179 -0.2306  0.0264
48190SOL    HW251621  11.372  10.653   3.848 -0.4686 -1.5033  0.6639
48191SOL     OW51622   8.030   0.469   6.586 -0.2123 -0.1489 -0.5348
48191SOL    HW151623   7.940   0.463   6.617 -0.0409 -1.0496 -0.1780
48191SOL    HW251624   8.062   0.552   6.621  0.4916 -1.7872  3.2187
48192SOL     OW51625   4.664   4.735   3.500  0.3438  0.2194 -0.2053
48192SOL    HW151626   4.623   4.734   3.587  1.0148 -0.1102  0.1147
48192SOL    HW251627   4.601   4.691   3.443  0.5524 -0.9112  0.4180
48193SOL     OW51628   1.057   6.554   3.861  0.1973  0.2624 -0.0069
48193SOL    HW151629   1.014   6.486   3.912  0.7887 -0.6264 -0.6569
48193SOL    HW251630   1.142   6.517   3.839 -0.4829  0.0676 -2.6687
48194SOL     OW51631  11.384   7.159   9.424  0.4327 -0.1363 -0.2111
48194SOL    HW151632  11.472   7.136   9.397 -0.2786 -0.7862 -2.1026
48194SOL    HW251633  11.391   7.251   9.450  1.4455  0.1699 -1.4580
48195SOL     OW51634   4.840  10.484   2.000  0.1294  1.0092 -0.7172
48195SOL    HW151635   4.766  10.541   1.981 -0.4815  1.0889  1.5574
48195SOL    HW251636   4.800  10.403   2.030  0.9660  0.8282 -0.0569
48196SOL     OW51637   3.118   8.386   7.847  0.3362 -0.7966  0.0039
48196SOL    HW151638   3.085   8.386   7.757  0.5623 -0.1769 -0.0829
48196SOL    HW251639   3.139   8.294   7.864 -0.4524 -1.0479 -0.2962
48197SOL     OW51640   2.588   8.996   3.820 -0.1424 -0.3526 -0.3379
48197SOL    HW151641   2.616   9.036   3.738 -0.3520 -0.4019 -0.4353
48197SOL    HW251642   2.605   9.063   3.886  0.7361 -0.5930 -0.3079
48198SOL     OW51643   2.579  10.665  12.593  0.3037 -0.6031 -0.0921
48198SOL    HW151644   2.502  10.702  12.635  0.4348 -0.5567  0.1100
48198SOL    HW251645   2.578  10.701  12.504  0.7298  0.3352  0.2686
48199SOL     OW51646   6.596  11.167   9.305  0.1627  0.4709 -0.1636
48199SOL    HW151647   6.503  11.184   9.291 -0.6447 -2.2604  1.1156
48199SOL    HW251648   6.632  11.152   9.218 -1.2280 -0.9676 -0.5407
48200SOL     OW51649   3.498   1.793   8.546 -0.0262  0.0177 -0.3114
48200SOL    HW151650   3.505   1.884   8.574 -1.2567 -0.5265  2.0536
48200SOL    HW251651   3.419   1.789   8.493 -0.1667  0.2535 -0.1178
48201SOL     OW51652   6.871  12.178   4.412  0.0741  0.2395 -0.1251
48201SOL    HW151653   6.946  12.229   4.382  0.7921  0.1508  1.4236
48201SOL    HW251654   6.798  12.240   4.408  0.5755  0.8556  0.0264
48202SOL     OW51655   7.170   6.448   3.883  0.0363 -0.1503  0.3248
48202SOL    HW151656   7.241   6.481   3.938  0.0618  1.6519 -0.6959
48202SOL    HW251657   7.107   6.411   3.945  0.3509  1.2442  1.5476
48203SOL     OW51658   1.935   3.296   2.508 -0.1230  0.4272 -0.5123
48203SOL    HW151659   1.864   3.244   2.545 -0.6880  1.0252 -0.7321
48203SOL    HW251660   1.903   3.323   2.422  0.8997 -0.3745 -1.1661
48204SOL     OW51661   5.863   4.162  10.557 -0.5549 -0.3962 -0.5746
48204SOL    HW151662   5.906   4.077  10.572 -1.3187 -0.3160  2.8957
48204SOL    HW251663   5.936   4.224  10.550  0.0356 -0.8862  0.7088
48205SOL     OW51664   0.691  11.970   0.644  0.1446  0.0660  0.2944
48205SOL    HW151665   0.778  11.951   0.678  0.0143 -1.0549  0.0291
48205SOL    HW251666   0.704  11.982   0.550  0.0846  0.4080  0.3281
48206SOL     OW51667   2.273   0.808   5.266 -0.0538 -0.7987 -0.0555
48206SOL    HW151668   2.206   0.866   5.302  1.3245  0.1509  1.1066
48206SOL    HW251669   2.228   0.759   5.198 -1.8670 -0.0599  0.5468
48207SOL     OW51670   6.568   1.330   8.518  0.7501 -0.0929  0.0742
48207SOL    HW151671   6.615   1.410   8.494 -2.3889  2.0003  0.2057
48207SOL    HW251672   6.581   1.321   8.612 -0.0274  1.1921  0.3344
48208SOL     OW51673   0.089   3.442   2.224  0.2698  0.6812  0.3638
48208SOL    HW151674   0.022   3.505   2.199  0.5568  0.4424 -1.0913
48208SOL    HW251675   0.161   3.496   2.258  1.8370  1.5847 -3.7450
48209SOL     OW51676   5.034   7.113   6.083  0.1496 -0.6427 -0.3582
48209SOL    HW151677   5.036   7.206   6.064 -0.8226 -0.4049  0.6403
48209SOL    HW251678   5.069   7.106   6.172 -2.7910 -0.8453  0.8656
48210SOL     OW51679   9.660   2.460   3.422 -0.5459  0.4267 -0.1807
48210SOL    HW151680   9.724   2.389   3.428 -1.0778 -0.1414 -0.9349
48210SOL    HW251681   9.702   2.526   3.367 -0.1631  0.5767  0.2842
48211SOL     OW51682   6.419   7.771  10.708 -0.3630 -0.1650 -0.6336
48211SOL    HW151683   6.402   7.761  10.615 -1.3796  0.5083 -0.5295
48211SOL    HW251684   6.484   7.841  10.713  2.1185 -2.3054 -0.9901
48212SOL     OW51685   0.790  10.780   4.724  0.6698 -0.2576 -0.0092
48212SOL    HW151686   0.825  10.848   4.781 -0.2560  0.7424 -0.5762
48212SOL    HW251687   0.696  10.778   4.745  0.6212 -1.0939 -0.2730
48213SOL     OW51688   5.396  12.548   1.645  0.8404  0.1645 -0.2233
48213SOL    HW151689   5.417  12.459   1.673 -0.7437 -0.2015 -0.1457
48213SOL    HW251690   5.353  12.537   1.560 -1.3738  0.6314  0.7710
48214SOL     OW51691   5.524   3.742   4.158 -0.5011  0.2609 -0.3004
48214SOL    HW151692   5.555   3.794   4.084  1.8472  1.1778  1.2359
48214SOL    HW251693   5.463   3.679   4.119  1.4614 -0.0120 -3.1913
48215SOL     OW51694   8.895   7.111   0.876 -0.2703  0.0272  0.1373
48215SOL    HW151695   8.837   7.069   0.940 -1.2166 -0.0925 -0.7676
48215SOL    HW251696   8.920   7.040   0.817  0.3536  0.2002  0.1929
48216SOL     OW51697   5.959   7.608   9.580  0.0116 -0.0440  0.0090
48216SOL    HW151698   6.045   7.650   9.586 -0.1019  0.2555 -0.4098
48216SOL    HW251699   5.963   7.536   9.643  0.7697 -0.3747 -0.3932
48217SOL     OW51700   3.831   1.681   9.466 -0.2607 -0.3967  0.3981
48217SOL    HW151701   3.845   1.770   9.496  1.0058 -0.3504 -0.2464
48217SOL    HW251702   3.736   1.669   9.468 -0.3860  0.6252  1.4036
48218SOL     OW51703   9.101   3.657   2.768  0.4412  0.4381  0.3365
48218SOL    HW151704   9.037   3.725   2.788  0.1838  0.9615 -1.9688
48218SOL    HW251705   9.184   3.704   2.762  0.0511  0.9473 -2.7295
48219SOL     OW51706   9.540  11.091   8.984  0.0694 -0.1533  0.1855
48219SOL    HW151707   9.493  11.043   9.051 -1.3034  0.0472 -0.5943
48219SOL    HW251708   9.511  11.182   8.994  1.2778  0.2250  0.4977
48220SOL     OW51709   2.813   7.553   2.060  0.1052 -0.0317  0.5477
48220SOL    HW151710   2.823   7.648   2.066  0.8817 -0.0060 -0.8591
48220SOL    HW251711   2.887   7.518   2.109  0.0930  0.0817  0.6493
48221SOL     OW51712  11.520   2.971   7.982 -0.6429  0.1160 -0.2795
48221SOL    HW151713  11.428   2.967   8.008 -0.3473 -1.5786  0.6571
48221SOL    HW251714  11.522   2.931   7.895 -0.4999 -2.1071  0.6995
48222SOL     OW51715   5.781  12.098   6.872 -1.1883  0.1153  0.0351
48222SOL    HW151716   5.689  12.083   6.889 -1.1500 -1.6288 -1.1010
48222SOL    HW251717   5.787  12.105   6.776 -0.3270  1.6355  0.1710
48223SOL     OW51718  12.348   2.894   1.776  0.1710  0.4982  1.0106
48223SOL    HW151719  12.347   2.809   1.819 -1.7560  0.1291  0.3682
48223SOL    HW251720  12.383   2.954   1.841 -2.0213 -0.1515  2.9053
48224SOL     OW51721   9.062  10.826  12.179 -0.1216  0.2798  0.2026
48224SOL    HW151722   8.989  10.847  12.237 -0.5709  3.8401 -1.3690
48224SOL    HW251723   9.134  10.881  12.210  0.3659  0.4153 -1.1123
48225SOL     OW51724   1.970   2.561   0.213  0.2000 -0.2778  0.3866
48225SOL    HW151725   1.950   2.559   0.119 -1.1303  0.7808  0.6200
48225SOL    HW251726   2.015   2.645   0.225 -1.7281  0.7267  1.0406
48226SOL     OW51727  10.934   8.000   6.235 -0.7043 -0.3805  0.4279
48226SOL    HW151728  11.023   7.967   6.220 -0.4613  0.0430  0.8950
48226SOL    HW251729  10.934   8.086   6.192 -0.8891 -0.3829  0.4252
48227SOL     OW51730   3.901   2.623  10.092 -0.0615  0.3655  0.1777
48227SOL    HW151731   3.866   2.580  10.013 -1.6486 -0.3425  1.2155
48227SOL    HW251732   3.995   2.625  10.078  0.0843 -3.0065 -0.2092
48228SOL     OW51733  11.037   1.850   1.100  0.0231 -0.3904  0.0485
48228SOL    HW151734  11.105   1.879   1.160 -1.3741 -0.2187  1.6271
48228SOL    HW251735  11.042   1.910   1.025 -0.7543  2.0048  1.8068
48229SOL     OW51736   8.239   2.061   4.744 -0.0977 -0.1642  0.5249
48229SOL    HW151737   8.201   2.090   4.661  0.8908  0.3066  0.2203
48229SOL    HW251738   8.257   1.968   4.731 -1.2307 -0.4306  0.7225
48230SOL     OW51739   5.390   5.917   4.625 -0.2174  0.0404  0.0642
48230SOL    HW151740   5.428   5.854   4.563  1.7225 -0.6787  1.8537
48230SOL    HW251741   5.410   6.002   4.587  0.2367 -0.3828 -0.6849
48231SOL     OW51742   3.856   6.056   1.201  0.0666 -0.2060 -0.5813
48231SOL    HW151743   3.809   6.039   1.282  0.0975 -1.1196 -0.7449
48231SOL    HW251744   3.942   6.086   1.229 -0.6818  1.8537 -0.2708
48232SOL     OW51745   8.262   3.320   5.377 -0.3566 -0.6344  0.7797
48232SOL    HW151746   8.305   3.403   5.356 -1.9600 -0.4510 -2.2296
48232SOL    HW251747   8.176   3.346   5.410 -1.2337 -1.0364 -1.0828
48233SOL     OW51748   6.762   7.185   2.139 -0.7234 -0.0532  0.7257
48233SOL    HW151749   6.790   7.230   2.060 -0.3428  0.8430  1.3457
48233SOL    HW251750   6.696   7.122   2.110  0.3476 -0.6423 -0.4588
48234SOL     OW51751   7.517   0.111   2.663 -0.1528 -0.2088  0.7111
48234SOL    HW151752   7.475   0.115   2.749  0.6085 -1.8752  1.2002
48234SOL    HW251753   7.578   0.037   2.669 -0.2663 -0.5309 -1.3595
48235SOL     OW51754   9.362   7.770   9.503 -0.0829  0.2175  0.2083
48235SOL    HW151755   9.353   7.779   9.408  0.3388 -0.5234  0.0886
48235SOL    HW251756   9.333   7.681   9.521 -2.1714  1.0213  1.0670
48236SOL     OW51757   6.250   2.575  11.393  0.3075 -0.8035  0.2377
48236SOL    HW151758   6.321   2.543  11.448  1.1495 -1.9019 -1.3811
48236SOL    HW251759   6.289   2.645  11.341  0.7601 -2.4608 -1.8018
48237SOL     OW51760   9.954  12.461   8.281  0.2652  0.1484  0.0144
48237SOL    HW151761   9.876  12.415   8.251 -0.7555  1.9861 -0.2656
48237SOL    HW251762   9.967  12.430   8.371 -0.6737 -0.3180 -0.0009
48238SOL     OW51763   9.544   7.411  11.961 -0.4741 -0.5780  0.5211
48238SOL    HW151764   9.555   7.412  11.866 -0.1987 -0.9206  0.5457
48238SOL    HW251765   9.620   7.364  11.993  1.0485  2.1043  1.1477
48239SOL     OW51766   8.377   6.484   8.047  0.1079 -0.3976 -0.0402
48239SOL    HW151767   8.414   6.566   8.014 -0.7162  0.7655  1.7678
48239SOL    HW251768   8.431   6.462   8.123 -0.3070 -0.9788  0.0925
48240SOL     OW51769   0.297   4.160   2.928 -0.4878  0.1357  0.2781
48240SOL    HW151770   0.265   4.242   2.890  1.5372 -0.0713 -2.1357
48240SOL    HW251771   0.275   4.093   2.863 -1.7366 -1.2452  2.0224
48241SOL     OW51772  11.328   9.838   8.952 -0.1945 -0.2701  0.1072
48241SOL    HW151773  11.259   9.836   9.018 -1.2103 -1.9255 -0.9369
48241SOL    HW251774  11.385   9.764   8.974  0.2009 -0.0441 -0.1327
48242SOL     OW51775   1.517   2.439  11.731 -0.9174 -0.2698  0.4058
48242SOL    HW151776   1.508   2.450  11.826 -2.4580 -0.3501  0.2868
48242SOL    HW251777   1.569   2.360  11.721  0.1771  0.3214  1.1782
48243SOL     OW51778   8.567   1.661   7.321 -0.1786 -0.5209 -0.5117
48243SOL    HW151779   8.655   1.694   7.304  0.4738 -2.2742 -0.6897
48243SOL    HW251780   8.510   1.718   7.269  0.6424  1.6067  0.7678
48244SOL     OW51781   8.309  12.241   6.681 -0.1665 -0.8705 -0.6993
48244SOL    HW151782   8.303  12.202   6.768 -0.6838 -0.3724 -0.5038
48244SOL    HW251783   8.391  12.208   6.645  0.1922 -0.8510  0.0865
48245SOL     OW51784   1.275   3.827   0.054 -0.2572  0.0284 -0.4542
48245SOL    HW151785   1.367   3.851   0.071  0.1657 -1.5768 -0.3495
48245SOL    HW251786   1.227   3.909   0.067  1.0668  0.7373  0.2403
48246SOL     OW51787   9.962   7.867   1.377 -0.0505  0.1945  0.1859
48246SOL    HW151788  10.028   7.852   1.445  1.0031  1.3048 -0.5592
48246SOL    HW251789   9.917   7.783   1.369  2.1019 -0.9939 -0.1564
48247SOL     OW51790   7.980   1.870   5.709 -0.3210 -0.1151  0.0804
48247SOL    HW151791   8.074   1.875   5.694 -0.1674 -1.7344  0.2606
48247SOL    HW251792   7.952   1.790   5.663 -1.0944 -1.1793  2.2301
48248SOL     OW51793   6.555   6.197  12.410 -0.2708 -0.6694  0.7520
48248SOL    HW151794   6.597   6.253  12.346 -1.3462 -0.9544 -0.2347
48248SOL    HW251795   6.508   6.257  12.468  0.6812 -0.4145  1.2799
48249SOL     OW51796   5.540   9.797   6.228  0.5519  0.6662 -0.1426
48249SOL    HW151797   5.497   9.861   6.285 -0.6712  0.1243 -0.4200
48249SOL    HW251798   5.543   9.840   6.142  0.0804  0.4941 -0.2436
48250SOL     OW51799   1.277   8.963   6.674  0.3732 -0.6360 -0.3536
48250SOL    HW151800   1.291   9.047   6.630  0.9164  0.0989  1.1459
48250SOL    HW251801   1.183   8.949   6.672 -0.0776  1.4554  1.8092
48251SOL     OW51802  10.951   5.032   4.954 -0.2655 -0.4327 -0.2819
48251SOL    HW151803  10.871   5.084   4.947 -0.3757 -0.4117  0.8246
48251SOL    HW251804  10.927   4.958   5.009 -0.0089 -1.4808 -1.5361
48252SOL     OW51805   7.211   1.910   8.076  0.1037  0.2365 -0.0349
48252SOL    HW151806   7.233   1.983   8.017 -2.7346  0.4837 -0.9260
48252SOL    HW251807   7.210   1.833   8.019  1.1774 -0.2147  0.5268
48253SOL     OW51808   6.350   0.123   1.222  0.0591 -0.3698  0.2260
48253SOL    HW151809   6.256   0.127   1.238  0.0295  0.7041 -0.0970
48253SOL    HW251810   6.390   0.121   1.309 -0.2437  0.0999  0.3804
48254SOL     OW51811  12.457   0.202   1.315 -0.2288  0.1255 -0.3648
48254SOL    HW151812  12.377   0.253   1.327 -1.6434 -2.1070  0.1619
48254SOL    HW251813  12.454   0.174   1.223 -1.1788 -1.6777  0.1768
48255SOL     OW51814   0.389   4.506   3.660 -0.3598 -0.4456  0.0732
48255SOL    HW151815   0.452   4.478   3.593 -0.4512 -1.8690  0.5579
48255SOL    HW251816   0.308   4.523   3.611  0.7164  2.9788 -0.8106
48256SOL     OW51817   8.893   7.240   0.205  0.4191  0.1451 -0.1575
48256SOL    HW151818   8.975   7.190   0.202  0.1816 -0.2101 -0.9765
48256SOL    HW251819   8.870   7.255   0.113  0.1526  1.2292  0.0694
48257SOL     OW51820   3.906   1.452   6.833 -0.3148  0.2756  0.2464
48257SOL    HW151821   3.954   1.369   6.833  0.8620  0.9187  1.7056
48257SOL    HW251822   3.878   1.464   6.924 -2.7653  0.2420 -0.4223
48258SOL     OW51823   5.178  11.435   6.264  0.1281 -0.5379  0.5093
48258SOL    HW151824   5.160  11.342   6.250  0.3317 -0.5782  0.5107
48258SOL    HW251825   5.102  11.480   6.226 -0.2785 -0.7276  1.0802
48259SOL     OW51826   1.538  12.339   0.491 -0.7349  0.1314  0.1850
48259SOL    HW151827   1.480  12.396   0.440 -1.7390 -2.2369 -1.5186
48259SOL    HW251828   1.478  12.283   0.541  0.2174  0.4913  1.7881
48260SOL     OW51829   8.681   0.227   7.865  0.1234 -0.0303 -0.6608
48260SOL    HW151830   8.635   0.160   7.815 -1.7069  0.3610  0.4053
48260SOL    HW251831   8.669   0.202   7.957  0.9647  0.7878 -0.3034
48261SOL     OW51832   6.192   7.309   5.509 -0.1426 -0.1956 -0.2417
48261SOL    HW151833   6.213   7.366   5.435  0.9111 -0.7770 -0.4056
48261SOL    HW251834   6.127   7.248   5.474  0.1288 -0.2786 -0.6069
48262SOL     OW51835   5.342   4.855   2.378 -0.5518  0.8060 -0.0481
48262SOL    HW151836   5.359   4.918   2.448 -0.8488  0.3712  0.4267
48262SOL    HW251837   5.409   4.787   2.391 -1.7281 -0.2267  0.9931
48263SOL     OW51838   5.905   2.578   4.892 -0.2986  0.3187  0.0919
48263SOL    HW151839   5.971   2.640   4.863  0.9033 -1.5113 -1.3718
48263SOL    HW251840   5.939   2.542   4.974 -0.0886  0.2590 -0.0220
48264SOL     OW51841  11.440   4.412   4.420 -0.5269 -0.8383 -0.3178
48264SOL    HW151842  11.421   4.340   4.479 -2.1091  1.3683  2.0810
48264SOL    HW251843  11.353   4.446   4.396  0.1476  1.4675  0.2821
48265SOL     OW51844   8.483   0.819   4.000 -0.4171  0.0227 -0.1086
48265SOL    HW151845   8.549   0.791   3.936  0.4308 -1.4206  1.2965
48265SOL    HW251846   8.451   0.737   4.038 -0.0772  0.8301  2.0739
48266SOL     OW51847   8.559   5.267   3.004  0.1208  0.6404 -0.0291
48266SOL    HW151848   8.628   5.277   2.938  0.5298  1.0815  0.4575
48266SOL    HW251849   8.575   5.338   3.066  2.4297 -2.1699  2.9437
48267SOL     OW51850   9.810   6.228   8.927  0.0125  0.8607 -0.0613
48267SOL    HW151851   9.744   6.160   8.913  0.9694 -0.1101  0.0476
48267SOL    HW251852   9.820   6.270   8.841  1.6027 -1.1835 -0.9662
48268SOL     OW51853   0.752  12.564   8.074 -0.8479  0.3651  0.2517
48268SOL    HW151854   0.820  12.631   8.076 -1.2230  0.7358  0.8664
48268SOL    HW251855   0.670  12.613   8.085 -1.2088 -0.0928 -0.3146
48269SOL     OW51856  12.119   4.781   8.223 -0.6723 -0.3639 -0.2244
48269SOL    HW151857  12.067   4.750   8.149  0.2383 -0.6388 -0.7683
48269SOL    HW251858  12.210   4.763   8.197 -0.3032  0.1867  0.6576
48270SOL     OW51859  11.909   7.112   6.416 -0.1719 -0.2758 -0.0788
48270SOL    HW151860  11.967   7.135   6.343 -0.1387 -0.6975 -0.1869
48270SOL    HW251861  11.824   7.098   6.374 -0.0337 -1.0384 -0.1082
48271SOL     OW51862   6.037   5.216   6.026  0.2613 -0.0809  0.3530
48271SOL    HW151863   5.964   5.167   6.064  0.4920 -0.9289 -0.2649
48271SOL    HW251864   6.115   5.170   6.058  0.4915  0.0808  0.0238
48272SOL     OW51865   8.360  11.159   9.605  0.2038  0.1965  0.0130
48272SOL    HW151866   8.417  11.143   9.681 -0.6622 -0.2201  0.5916
48272SOL    HW251867   8.391  11.097   9.539  1.7749  1.4106 -0.4410
48273SOL     OW51868  10.259   2.538   2.580 -0.1417 -0.3206 -0.2369
48273SOL    HW151869  10.207   2.503   2.652  1.4679  0.2949  1.3179
48273SOL    HW251870  10.199   2.541   2.506 -1.8222 -1.1615  1.0125
48274SOL     OW51871   2.631   7.470   0.474  0.2567  0.2814  0.0710
48274SOL    HW151872   2.620   7.528   0.549  1.0396 -0.7523  1.0293
48274SOL    HW251873   2.684   7.519   0.412  0.6028  0.7108  0.7049
48275SOL     OW51874   2.152   4.461   0.814  0.4412  0.4731 -0.1960
48275SOL    HW151875   2.228   4.519   0.814 -0.2898  1.4646  0.9217
48275SOL    HW251876   2.083   4.511   0.858 -0.9323 -0.3223 -1.3332
48276SOL     OW51877  11.860   6.319   8.230 -0.2492 -0.1486  0.2589
48276SOL    HW151878  11.885   6.260   8.159 -1.1278  2.8317 -2.8360
48276SOL    HW251879  11.944   6.351   8.264  0.2968 -3.7309  2.8138
48277SOL     OW51880   9.377   5.501  12.357 -0.2254 -0.2125 -0.2415
48277SOL    HW151881   9.386   5.407  12.371 -3.7175 -0.4204  1.8911
48277SOL    HW251882   9.296   5.510  12.307 -0.1227  1.6828 -0.1356
48278SOL     OW51883   4.462  12.586   7.737  0.1904 -0.6178 -0.0339
48278SOL    HW151884   4.506  12.598   7.821 -0.3661  0.3837  0.1253
48278SOL    HW251885   4.509  12.514   7.696  1.8093  0.2365  0.2468
48279SOL     OW51886   1.759   2.490   0.902 -0.4378  0.0049  0.4866
48279SOL    HW151887   1.697   2.554   0.868  0.9818  0.2057 -1.9919
48279SOL    HW251888   1.794   2.447   0.824  3.6903  1.0484  1.5235
48280SOL     OW51889   4.140   9.278   4.284  0.2078 -0.0143 -0.2418
48280SOL    HW151890   4.187   9.235   4.213  1.8044 -0.3461  0.9485
48280SOL    HW251891   4.179   9.241   4.364 -1.2281  0.6492  0.8021
48281SOL     OW51892   3.448  11.175   9.717 -0.0741 -0.5741  0.5979
48281SOL    HW151893   3.491  11.220   9.790 -0.8156 -1.8395  1.8958
48281SOL    HW251894   3.433  11.086   9.751 -2.6369 -0.5112 -0.1877
48282SOL     OW51895   8.666   1.916   5.715 -0.3514  0.5622 -0.2964
48282SOL    HW151896   8.719   1.919   5.795  1.1006 -1.1286 -1.1081
48282SOL    HW251897   8.590   1.971   5.734  0.5404  1.1775  1.7931
48283SOL     OW51898  10.712   3.320  10.233 -0.0533  0.1495 -0.2469
48283SOL    HW151899  10.617   3.327  10.230 -0.0595 -0.0731 -0.9280
48283SOL    HW251900  10.743   3.409  10.219 -0.1542  0.5756  1.9465
48284SOL     OW51901   7.460   5.194   6.401 -0.7719 -0.7459  0.4711
48284SOL    HW151902   7.443   5.162   6.312  0.2183 -0.5367  0.1952
48284SOL    HW251903   7.394   5.150   6.455 -0.9132 -1.4580 -0.2540
48285SOL     OW51904   1.441   7.790   5.724  0.2951  0.2267  0.4186
48285SOL    HW151905   1.413   7.881   5.729  1.0312  0.4306  1.0958
48285SOL    HW251906   1.362   7.739   5.739 -0.0896  0.7540  0.2021
48286SOL     OW51907   9.376  11.947   6.496 -0.2368 -0.7670  0.6036
48286SOL    HW151908   9.334  11.862   6.490 -3.3588  0.7360 -4.0032
48286SOL    HW251909   9.311  12.002   6.540 -0.6227  0.2724 -1.1725
48287SOL     OW51910   4.605   9.989   6.306 -0.0548 -0.3572 -0.2632
48287SOL    HW151911   4.511  10.005   6.308  0.2399  2.2304 -2.3354
48287SOL    HW251912   4.621   9.947   6.222  0.7483  0.2123 -0.4076
48288SOL     OW51913  10.475   7.850   6.667 -0.1453 -0.2432 -0.2961
48288SOL    HW151914  10.527   7.930   6.659  0.7033 -0.7456  0.0079
48288SOL    HW251915  10.386   7.876   6.643  0.0534  0.8584  0.0982
48289SOL     OW51916  12.137  11.653   1.380 -0.5783 -0.1326  0.6006
48289SOL    HW151917  12.146  11.560   1.402 -0.6584 -0.5259 -0.9113
48289SOL    HW251918  12.151  11.657   1.285  1.5115  1.6979  0.9079
48290SOL     OW51919   6.268  11.944   5.551  0.4088 -0.2118 -0.3421
48290SOL    HW151920   6.357  11.978   5.561  0.4568 -0.3370 -0.3496
48290SOL    HW251921   6.235  11.986   5.472  0.2074  0.3902  0.0494
48291SOL     OW51922   6.947   6.305   2.194  0.3255 -0.7423  0.2174
48291SOL    HW151923   6.967   6.280   2.104  0.5632 -0.3951  0.1730
48291SOL    HW251924   7.003   6.380   2.211 -0.6366 -0.0097  0.2317
48292SOL     OW51925   6.980  10.719  11.559  0.6430  0.1975 -0.1704
48292SOL    HW151926   6.896  10.678  11.538  0.8103 -1.0999  1.5233
48292SOL    HW251927   6.988  10.790  11.495 -1.1537 -0.4155 -1.1566
48293SOL     OW51928   2.068   5.417   6.931  0.7396 -0.0245 -0.2394
48293SOL    HW151929   2.094   5.428   6.840  1.9067  0.2801  0.1086
48293SOL    HW251930   2.057   5.506   6.964 -0.9452 -0.1375 -0.3974
48294SOL     OW51931  10.093   4.366  12.208  0.0716 -0.5198 -0.1001
48294SOL    HW151932  10.033   4.428  12.167  0.6715 -0.1946 -0.5136
48294SOL    HW251933  10.126   4.313  12.136  1.0482 -0.0237 -0.0453
48295SOL     OW51934   5.719   3.875   7.986 -0.1992 -0.3402  0.2744
48295SOL    HW151935   5.779   3.848   8.055 -0.5793  2.8392  2.0189
48295SOL    HW251936   5.632   3.859   8.022 -0.4047  0.0750 -0.0275
48296SOL     OW51937   8.681   4.769   2.578 -0.0601  1.0538  0.0982
48296SOL    HW151938   8.605   4.781   2.521 -0.7013 -0.9096  0.4483
48296SOL    HW251939   8.672   4.679   2.610  0.7045  1.8174  2.6806
48297SOL     OW51940   1.928   3.429   5.041 -0.7130  0.4559 -0.1579
48297SOL    HW151941   1.922   3.452   4.949 -0.5948  1.6275  0.1099
48297SOL    HW251942   2.016   3.393   5.052 -0.9040 -0.1600 -0.5876
48298SOL     OW51943   1.736  12.032   3.819 -0.2939 -0.1305 -0.9056
48298SOL    HW151944   1.758  11.953   3.868 -1.0463  0.6850  0.8330
48298SOL    HW251945   1.641  12.032   3.815 -0.2670  0.1648 -1.8266
48299SOL     OW51946   6.020  10.123   1.055 -0.1381 -0.1199 -0.7055
48299SOL    HW151947   5.966  10.105   1.132  1.0214 -0.4368  0.0728
48299SOL    HW251948   6.050  10.037   1.026 -1.3218 -0.0960 -2.1247
48300SOL     OW51949   3.981   9.735   4.965 -0.5938 -0.3000  0.5566
48300SOL    HW151950   3.893   9.697   4.955  0.0763 -1.7512 -0.0956
48300SOL    HW251951   4.041   9.663   4.944  0.7560  0.8185  0.4432
48301SOL     OW51952   4.412   3.410   0.520  0.1651 -0.6785  0.5877
48301SOL    HW151953   4.377   3.451   0.441  0.9501 -0.7298  0.1961
48301SOL    HW251954   4.367   3.453   0.592  0.3419  0.2631  0.1514
48302SOL     OW51955  10.919   4.066  10.164  0.2210  0.3338 -0.2392
48302SOL    HW151956  10.866   3.988  10.181  0.0514  0.2651 -1.0441
48302SOL    HW251957  10.875   4.136  10.213 -0.0508  0.0722 -0.1061
48303SOL     OW51958   3.606  11.393   4.905  0.5297  0.2897 -0.3007
48303SOL    HW151959   3.639  11.445   4.831  1.6591 -0.7046 -0.5335
48303SOL    HW251960   3.534  11.445   4.941  0.3594  1.0865 -1.7157
48304SOL     OW51961  11.536  12.112   1.378 -0.3428 -0.3508  0.3034
48304SOL    HW151962  11.467  12.120   1.312  0.8036 -0.0526 -0.8919
48304SOL    HW251963  11.607  12.066   1.334  1.5078  2.1674  0.4532
48305SOL     OW51964  11.710   6.676   8.255 -0.3606  0.9092  0.4183
48305SOL    HW151965  11.625   6.657   8.296 -0.0766  1.6136  1.3737
48305SOL    HW251966  11.730   6.598   8.203 -1.2469  0.4404  0.7610
48306SOL     OW51967  12.445   0.577  11.063 -0.1316  0.0946 -0.5939
48306SOL    HW151968  12.475   0.625  11.140 -0.6240 -2.0708  1.0473
48306SOL    HW251969  12.490   0.492  11.069  0.3489  0.0904 -3.1008
48307SOL     OW51970   2.826   2.482   4.367  0.9318  0.7415 -0.1242
48307SOL    HW151971   2.849   2.472   4.274  1.2798  2.8370 -0.2999
48307SOL    HW251972   2.873   2.411   4.411 -1.6496 -2.3390 -1.8151
48308SOL     OW51973   6.267   7.327   1.564  0.7247  0.0463  0.3125
48308SOL    HW151974   6.187   7.347   1.516  0.4475 -0.0832  0.7106
48308SOL    HW251975   6.278   7.401   1.624  0.7419 -0.0724  0.4586
48309SOL     OW51976   9.910   6.905   4.500 -0.1393 -0.6178  0.1896
48309SOL    HW151977   9.960   6.834   4.541  0.8842  0.1998  0.3821
48309SOL    HW251978   9.860   6.944   4.572 -2.1528 -2.2736 -0.2195
48310SOL     OW51979   3.321   0.304   0.071 -0.1637 -0.2264 -0.0065
48310SOL    HW151980   3.332   0.361   0.147 -0.5764 -0.4068  0.1922
48310SOL    HW251981   3.327   0.215   0.107 -1.2181 -0.3298 -0.0372
48311SOL     OW51982   2.276   1.970  11.820 -0.1653  0.2614  0.1726
48311SOL    HW151983   2.270   2.031  11.893  0.0551  0.0511  0.3690
48311SOL    HW251984   2.366   1.979  11.788  0.2886 -0.9067  1.0434
48312SOL     OW51985   5.067   1.206   6.953  0.1518  0.1849  0.1724
48312SOL    HW151986   5.119   1.186   6.875  0.1261  0.4281  0.0931
48312SOL    HW251987   5.131   1.211   7.024  0.2515  0.5946  0.0561
48313SOL     OW51988  11.744   0.652   5.024  0.0394  0.1132  0.1977
48313SOL    HW151989  11.787   0.738   5.026 -1.6889  1.0173  1.0895
48313SOL    HW251990  11.706   0.647   4.936  0.5385  0.0250 -0.0212
48314SOL     OW51991  10.745   7.999   5.234 -0.4126  0.1980  0.2133
48314SOL    HW151992  10.836   8.026   5.238 -0.8153  1.5231  1.4423
48314SOL    HW251993  10.695   8.079   5.256 -1.9147 -0.2288 -1.4089
48315SOL     OW51994   2.249   0.238   1.923 -0.9053 -0.2746 -0.1273
48315SOL    HW151995   2.155   0.218   1.922 -0.8148 -0.7752  0.6593
48315SOL    HW251996   2.254   0.324   1.966 -1.1072  0.4340 -1.4653
48316SOL     OW51997   1.150   7.503   2.930 -0.3936  0.0760  0.1516
48316SOL    HW151998   1.166   7.565   3.001  2.1426 -0.1484 -0.1481
48316SOL    HW251999   1.106   7.429   2.972 -0.0841  0.4844  1.2299
48317SOL     OW52000   0.813   1.060   4.144 -0.3184 -0.2002 -0.8668
48317SOL    HW152001   0.853   1.031   4.226  0.3243  1.6019 -0.4827
48317SOL    HW252002   0.765   0.984   4.112  0.7586 -1.4480  0.3426
48318SOL     OW52003  12.372   7.565   5.083  0.5207  0.2338  0.4636
48318SOL    HW152004  12.447   7.506   5.080  1.4293  1.3917 -0.0345
48318SOL    HW252005  12.297   7.507   5.097  1.3063 -1.1185 -0.6662
48319SOL     OW52006   0.776   2.775   6.121  0.1995  0.3060  0.2558
48319SOL    HW152007   0.748   2.812   6.204 -0.0020 -0.3449  0.4855
48319SOL    HW252008   0.712   2.806   6.057  1.1729  2.0049  0.0613
48320SOL     OW52009   7.288  10.202   1.628  0.2675 -0.1742  0.0147
48320SOL    HW152010   7.374  10.184   1.666  0.7818  1.1938 -0.4313
48320SOL    HW252011   7.273  10.130   1.567  1.7536  0.2581 -0.9291
48321SOL     OW52012   2.385   4.079  10.271 -0.0721  0.0996  0.2297
48321SOL    HW152013   2.421   4.118  10.192  2.1787  0.7101  1.4669
48321SOL    HW252014   2.352   4.152  10.322 -0.7516 -0.2026  0.2360
48322SOL     OW52015   3.144   3.169  11.341  0.6506 -0.2258 -0.3239
48322SOL    HW152016   3.079   3.116  11.388  0.3885 -0.5903 -1.0643
48322SOL    HW252017   3.191   3.217  11.409  0.3201 -0.7744  0.3021
48323SOL     OW52018   4.087   6.118   9.293 -0.6386 -0.0309  0.4456
48323SOL    HW152019   4.123   6.199   9.330 -1.2650  0.2162  0.5382
48323SOL    HW252020   4.127   6.111   9.206 -1.5969  1.1090 -0.1148
48324SOL     OW52021  10.532  10.870   9.320  0.1685 -0.4037 -0.1951
48324SOL    HW152022  10.551  10.819   9.399 -1.3531 -1.9717 -0.7773
48324SOL    HW252023  10.608  10.856   9.263  1.1991  0.6018  0.8564
48325SOL     OW52024   2.213   3.695   5.371  0.7292  0.0591  0.3291
48325SOL    HW152025   2.239   3.766   5.312  0.1886  1.1718  1.3830
48325SOL    HW252026   2.141   3.651   5.326 -0.7152  1.8534  0.7739
48326SOL     OW52027   4.185   8.868   3.341  1.0370 -0.1797  0.1319
48326SOL    HW152028   4.126   8.894   3.270 -1.0279 -1.9770  1.0987
48326SOL    HW252029   4.270   8.859   3.298  0.3580  1.0306 -1.6235
48327SOL     OW52030   7.886   3.596   7.798  0.2657 -0.2073 -0.4261
48327SOL    HW152031   7.843   3.568   7.878  0.5152 -2.3484 -0.9715
48327SOL    HW252032   7.921   3.516   7.760  0.0280  0.7074 -2.7730
48328SOL     OW52033   1.325   0.321   5.021 -0.0943  0.1138 -0.3905
48328SOL    HW152034   1.288   0.348   5.105 -1.2304 -1.9549 -0.1647
48328SOL    HW252035   1.266   0.359   4.956 -2.2384 -2.3511 -0.0567
48329SOL     OW52036   2.825   8.937   2.357  0.4414  0.7962  0.3628
48329SOL    HW152037   2.877   8.915   2.435  0.9090 -3.0422 -0.8187
48329SOL    HW252038   2.877   8.904   2.284 -1.3862  1.4690 -1.3123
48330SOL     OW52039  10.565   0.815   7.777 -0.1289  0.0456 -0.2880
48330SOL    HW152040  10.542   0.863   7.857 -0.8450  0.1457 -0.5447
48330SOL    HW252041  10.660   0.827   7.769 -0.1469  0.5897  0.1900
48331SOL     OW52042   1.247  11.495   0.579  0.0152  0.7832  0.2132
48331SOL    HW152043   1.193  11.432   0.531  2.5504 -0.5017 -1.1932
48331SOL    HW252044   1.245  11.464   0.670 -0.7709  0.1626 -0.0044
48332SOL     OW52045   9.114   5.456   4.500  0.5298  0.3974 -0.0453
48332SOL    HW152046   9.182   5.486   4.561 -1.7164  1.6286  2.0091
48332SOL    HW252047   9.081   5.375   4.538 -1.2526  1.4501  0.7406
48333SOL     OW52048   5.670   8.542  10.377  0.1146 -0.1667  0.0035
48333SOL    HW152049   5.598   8.601  10.401  0.2698  0.8268 -1.7749
48333SOL    HW252050   5.628   8.456  10.368 -0.4848  0.0304  0.8016
48334SOL     OW52051   3.744   0.128   5.169  0.4362 -0.1128 -0.1762
48334SOL    HW152052   3.722   0.144   5.077 -0.7713  1.2011  0.2985
48334SOL    HW252053   3.670   0.077   5.203 -0.0080  0.9200  0.4669
48335SOL     OW52054   8.569   6.871   4.631  0.1252 -0.2921  0.1642
48335SOL    HW152055   8.598   6.962   4.625  0.3533 -0.3993 -0.3925
48335SOL    HW252056   8.568   6.853   4.724 -0.2357  0.3854  0.3015
48336SOL     OW52057  10.245   0.710   6.192  0.0602 -0.8927 -0.4138
48336SOL    HW152058  10.223   0.660   6.270  2.3274 -0.6868  0.4136
48336SOL    HW252059  10.283   0.791   6.224  0.1343 -0.3670 -1.7414
48337SOL     OW52060  12.289   4.852   0.740 -0.1765 -0.4233  0.6302
48337SOL    HW152061  12.333   4.917   0.684 -0.2670  0.8177  1.9292
48337SOL    HW252062  12.201   4.844   0.703 -0.0280 -0.1222  0.2009
48338SOL     OW52063  11.295   0.412   3.722  0.2218  0.5928 -0.0594
48338SOL    HW152064  11.210   0.456   3.718 -0.6769 -1.0227  0.0253
48338SOL    HW252065  11.309   0.394   3.815  0.9263  1.3307 -0.0188
48339SOL     OW52066   4.370   2.292   0.317 -0.2979  0.3975 -0.1336
48339SOL    HW152067   4.444   2.321   0.265 -0.9474  3.4497  0.4615
48339SOL    HW252068   4.340   2.370   0.363 -3.5275 -0.8106  0.1162
48340SOL     OW52069  12.018   0.122   4.448 -0.1778  0.4669  0.7513
48340SOL    HW152070  12.101   0.133   4.402 -0.6983  0.0175 -0.3232
48340SOL    HW252071  11.961   0.079   4.385 -1.2648  0.8648  1.4326
48341SOL     OW52072   6.095   3.375   2.394 -0.2301 -0.0341  0.4938
48341SOL    HW152073   6.181   3.332   2.390 -0.0250  0.3810  0.4596
48341SOL    HW252074   6.093   3.431   2.317 -1.9558 -2.6761 -1.5803
48342SOL     OW52075   4.019   3.123   9.359 -0.1185 -0.0672 -0.2192
48342SOL    HW152076   3.970   3.192   9.314  0.8690  0.2456 -0.8504
48342SOL    HW252077   3.953   3.058   9.381 -1.0349  0.9376  0.1410
48343SOL     OW52078   1.635   8.837   9.875 -0.4071 -0.2476  0.0457
48343SOL    HW152079   1.589   8.802   9.951  0.0366 -1.9572 -0.4254
48343SOL    HW252080   1.673   8.760   9.833  0.6554  0.8316 -1.0438
48344SOL     OW52081   7.049  10.712   7.751  0.0528 -0.8966  0.6885
48344SOL    HW152082   6.965  10.751   7.724  0.9294 -0.2101 -1.1946
48344SOL    HW252083   7.113  10.782   7.738  1.4054 -2.3496 -1.0205
48345SOL     OW52084   5.450   3.999  12.231  0.0714  0.0446 -0.4136
48345SOL    HW152085   5.394   3.923  12.244 -2.4971  2.0487  1.1068
48345SOL    HW252086   5.428   4.058  12.303  2.6814  1.8393 -0.9576
48346SOL     OW52087   3.277   4.156   6.367 -0.2180  0.4134  0.3818
48346SOL    HW152088   3.295   4.222   6.299  0.7960 -0.1429  0.0924
48346SOL    HW252089   3.320   4.077   6.335 -3.0840 -1.0103 -0.2722
48347SOL     OW52090   6.600   3.592  11.806 -0.6569 -0.0549  0.3408
48347SOL    HW152091   6.631   3.676  11.841  0.3248 -0.5919  0.8256
48347SOL    HW252092   6.515   3.611  11.768 -0.1921  1.2779 -0.0672
48348SOL     OW52093   1.128  11.352   2.009 -0.3242  0.2741  0.5937
48348SOL    HW152094   1.151  11.268   2.050  0.4024  0.1444 -0.0426
48348SOL    HW252095   1.176  11.417   2.059 -0.3838  0.2396  0.6948
48349SOL     OW52096   4.579   4.725   5.365 -0.3027 -0.0882 -0.4069
48349SOL    HW152097   4.572   4.639   5.323  1.0287 -0.2921 -0.2678
48349SOL    HW252098   4.544   4.712   5.453 -0.1597 -0.4702 -0.4057
48350SOL     OW52099   7.524   0.250   4.783  0.2829 -0.3346  0.3851
48350SOL    HW152100   7.612   0.216   4.768  0.8071  1.3097 -0.6060
48350SOL    HW252101   7.488   0.261   4.695 -1.7016 -2.7887  0.8040
48351SOL     OW52102   0.357   1.593   7.205  0.6692 -0.8378 -0.0274
48351SOL    HW152103   0.408   1.674   7.216  1.4649 -0.7054 -3.5941
48351SOL    HW252104   0.285   1.618   7.147  0.6325 -2.5642 -0.7726
48352SOL     OW52105   1.230   8.893   1.769 -0.2529  0.5172 -0.2750
48352SOL    HW152106   1.316   8.874   1.730  1.1618  1.8751  1.9491
48352SOL    HW252107   1.181   8.811   1.758  0.6459  0.2268 -3.1140
48353SOL     OW52108   4.052   5.950  11.323 -0.1182  0.2580  0.3301
48353SOL    HW152109   4.083   6.029  11.367 -1.2123  1.0007 -0.1992
48353SOL    HW252110   4.072   5.964  11.231  1.3295 -0.8961  0.4353
48354SOL     OW52111   6.594  11.928   9.711  0.2601 -0.3127  0.1356
48354SOL    HW152112   6.609  11.999   9.773  1.5139 -0.8073  0.4384
48354SOL    HW252113   6.584  11.972   9.626 -0.8229  0.3267  0.5754
48355SOL     OW52114   3.785   4.298   2.431 -0.1868 -0.0416  0.3640
48355SOL    HW152115   3.732   4.325   2.356 -0.5782  1.1098  1.0135
48355SOL    HW252116   3.747   4.215   2.459  1.3540 -1.6535 -2.0033
48356SOL     OW52117   1.375  11.704   1.782 -0.2388  0.3796 -0.4305
48356SOL    HW152118   1.383  11.728   1.690  1.6019  0.3116 -0.3307
48356SOL    HW252119   1.457  11.659   1.802  0.1298  1.8166  1.6408
48357SOL     OW52120   0.536   3.667   6.856 -0.1446  0.1201  0.3194
48357SOL    HW152121   0.501   3.712   6.933  1.3377  1.2013  0.3965
48357SOL    HW252122   0.604   3.725   6.822 -0.5777 -0.4508 -1.6763
48358SOL     OW52123  11.051   1.363   9.289  0.3610 -0.1113 -0.1418
48358SOL    HW152124  11.054   1.445   9.340  1.1371  0.6664 -1.3895
48358SOL    HW252125  11.100   1.383   9.210 -2.7182 -0.5217 -2.3311
48359SOL     OW52126  12.135   6.787   5.683  0.1000  0.0038  0.1111
48359SOL    HW152127  12.071   6.725   5.646  0.7717 -1.1481  0.8213
48359SOL    HW252128  12.168   6.743   5.762  0.7392  1.1971  0.5294
48360SOL     OW52129  10.896   7.542   2.279  0.0422  0.1695  0.4099
48360SOL    HW152130  10.843   7.556   2.201 -0.2169 -1.8390  0.1779
48360SOL    HW252131  10.974   7.597   2.266 -1.6514  2.7656  0.5147
48361SOL     OW52132   9.995   3.903   5.391  0.1193 -0.4447 -0.0092
48361SOL    HW152133  10.082   3.885   5.427 -0.8183 -0.2617  2.5195
48361SOL    HW252134   9.948   3.820   5.396  0.4890 -0.9102 -2.6720
48362SOL     OW52135   8.645  12.437   6.405  0.1618  0.2149 -0.5501
48362SOL    HW152136   8.710  12.380   6.447  0.5342  1.0630  0.0597
48362SOL    HW252137   8.659  12.424   6.311 -0.7492 -1.7983 -0.4653
48363SOL     OW52138   9.196   3.452  10.830  0.0109  0.5589  0.0877
48363SOL    HW152139   9.181   3.533  10.782  1.4715  0.1044 -1.2498
48363SOL    HW252140   9.291   3.438  10.825 -0.2016 -1.2486  0.2134
48364SOL     OW52141   9.365   9.665  12.546  0.1888 -0.0663  0.2541
48364SOL    HW152142   9.359   9.735  12.611 -1.6899 -1.3289  1.5459
48364SOL    HW252143   9.405   9.706  12.469 -1.0420  2.4624  0.8768
48365SOL     OW52144  11.208   9.607   6.926  0.4416 -0.0239 -0.2004
48365SOL    HW152145  11.279   9.639   6.981 -0.6988 -0.8463  1.8566
48365SOL    HW252146  11.248   9.539   6.871  1.4435  0.2612  0.1608
48366SOL     OW52147   9.054   3.346   1.067  0.2394  0.1419 -0.5310
48366SOL    HW152148   9.063   3.381   0.978  1.6204  1.0308 -0.0716
48366SOL    HW252149   9.037   3.423   1.122 -0.6267 -0.4017 -0.0117
48367SOL     OW52150   9.924   8.934   6.537  0.4188  0.1176 -0.0735
48367SOL    HW152151   9.981   8.877   6.484 -0.6309 -0.5468 -0.5265
48367SOL    HW252152   9.908   9.010   6.482 -0.2622 -0.3432 -0.5276
48368SOL     OW52153  10.097   1.637   0.360 -0.0927 -0.2306  0.3394
48368SOL    HW152154  10.093   1.541   0.356 -0.2118 -0.2406  0.6957
48368SOL    HW252155  10.007   1.665   0.349 -0.0490 -0.1555  0.1685
48369SOL     OW52156   3.050   9.283   7.189 -0.1288 -0.1697  0.2783
48369SOL    HW152157   2.970   9.258   7.236 -0.5958 -0.3092 -0.5725
48369SOL    HW252158   3.098   9.201   7.178 -0.9033 -0.4518 -1.1095
48370SOL     OW52159  11.700  10.760   2.968  0.1663  0.1109  0.0774
48370SOL    HW152160  11.607  10.768   2.949 -0.4838  1.3995  3.1524
48370SOL    HW252161  11.715  10.822   3.040  2.7505 -2.1969  1.7274
48371SOL     OW52162   9.469   0.088   1.697 -0.2924  0.0218  0.4194
48371SOL    HW152163   9.511   0.055   1.776  3.1034  2.6280 -0.0176
48371SOL    HW252164   9.407   0.154   1.728 -3.0633 -2.6956  1.0103
48372SOL     OW52165   9.199   9.149   7.794 -0.1203 -0.3238 -0.8860
48372SOL    HW152166   9.138   9.197   7.739 -2.3006 -0.3309  1.3754
48372SOL    HW252167   9.150   9.072   7.823  0.8230 -0.2240  1.1810
48373SOL     OW52168   2.624   9.324   8.241 -0.2506  0.0386 -0.6094
48373SOL    HW152169   2.530   9.337   8.255 -0.6404 -2.0440 -0.9552
48373SOL    HW252170   2.629   9.264   8.167  1.3646  0.0261 -0.5158
48374SOL     OW52171   0.421   8.468   9.801  0.0402 -0.2521  0.6674
48374SOL    HW152172   0.480   8.470   9.876  0.9419  2.0524 -0.0258
48374SOL    HW252173   0.346   8.521   9.828 -0.5302 -1.0012  0.5944
48375SOL     OW52174  11.908   9.867  12.015  0.1924 -0.8701 -0.1586
48375SOL    HW152175  11.851   9.889  12.089  0.8424 -0.9472  0.3824
48375SOL    HW252176  11.982   9.928  12.024  0.4421 -1.1124 -0.5431
48376SOL     OW52177  10.636   6.055   1.739  0.5013  0.3253  0.1321
48376SOL    HW152178  10.602   6.145   1.740 -0.0753  0.1250 -0.7269
48376SOL    HW252179  10.643   6.031   1.832  1.7390  1.6432  0.4320
48377SOL     OW52180   0.739   9.866  10.553 -0.0217 -0.0124  0.4164
48377SOL    HW152181   0.828   9.901  10.553 -0.1611  0.3588  1.0789
48377SOL    HW252182   0.746   9.786  10.605 -0.3230  0.7029  1.5931
48378SOL     OW52183   3.102   7.282  10.773  0.0215 -0.3877 -0.3584
48378SOL    HW152184   3.065   7.370  10.780  0.5055 -0.2256  0.2077
48378SOL    HW252185   3.184   7.286  10.823 -0.3006 -1.3444  0.2697
48379SOL     OW52186   0.792   1.056   9.933  0.4278  0.1153 -0.0306
48379SOL    HW152187   0.852   0.987   9.905 -0.4980 -0.5538 -0.4490
48379SOL    HW252188   0.746   1.082   9.853 -0.5163 -0.0777  0.4268
48380SOL     OW52189  11.825   1.133   4.589  0.1125 -0.2908 -0.2144
48380SOL    HW152190  11.792   1.179   4.666 -1.4763  0.8981 -1.5290
48380SOL    HW252191  11.917   1.117   4.608 -0.0200  0.7515  1.5536
48381SOL     OW52192   2.712   6.457   2.356  0.5102  0.4785 -0.1809
48381SOL    HW152193   2.620   6.434   2.350  0.3260  1.2828 -0.6072
48381SOL    HW252194   2.728   6.471   2.449 -0.1174  1.5387 -0.2119
48382SOL     OW52195   2.656   8.412  11.397 -0.4232 -0.1621  0.8559
48382SOL    HW152196   2.657   8.503  11.426  0.4702  0.1484 -0.0994
48382SOL    HW252197   2.567   8.397  11.365 -0.7878  0.1402  1.6947
48383SOL     OW52198   0.483   6.687   5.956 -0.2574 -0.0849 -0.1321
48383SOL    HW152199   0.539   6.765   5.964  1.4108 -1.3887  1.6943
48383SOL    HW252200   0.394   6.722   5.961  0.4433  1.6845  1.1420
48384SOL     OW52201   0.058   5.755   8.322  0.4094  0.5058  0.1535
48384SOL    HW152202   0.016   5.670   8.309  1.5222 -0.3486  1.7690
48384SOL    HW252203  -0.014   5.815   8.343 -0.3788 -0.0371 -0.9185
48385SOL     OW52204   9.901   3.403   2.797  0.1833 -0.2826 -0.2737
48385SOL    HW152205   9.830   3.437   2.742 -0.2961 -1.1545 -0.2144
48385SOL    HW252206   9.967   3.473   2.798 -0.9578  0.8291  0.2123
48386SOL     OW52207   9.841   8.651   2.668  0.0368 -0.1052 -0.6918
48386SOL    HW152208   9.910   8.702   2.628  1.0894 -2.0959 -1.5282
48386SOL    HW252209   9.798   8.606   2.595 -0.5881 -0.7284  0.0371
48387SOL     OW52210   8.406   3.127   2.613  0.6388  0.4377 -0.0113
48387SOL    HW152211   8.451   3.208   2.590  0.2812  0.6523  0.0198
48387SOL    HW252212   8.453   3.095   2.690 -0.4955  1.7509  1.2949
48388SOL     OW52213   3.171   7.895   2.709  0.2918 -0.3116 -0.2921
48388SOL    HW152214   3.176   7.867   2.800  1.0489  1.8736  0.4104
48388SOL    HW252215   3.173   7.814   2.659  2.5253 -1.5319  1.5395
48389SOL     OW52216   7.764  11.064   1.212  0.4259  0.2950  0.3549
48389SOL    HW152217   7.670  11.074   1.198  0.0285  0.5028  2.7922
48389SOL    HW252218   7.791  11.001   1.145 -1.6799 -0.6312  0.2857
48390SOL     OW52219   4.615   0.709   8.665 -0.2528 -0.0496 -0.1179
48390SOL    HW152220   4.706   0.689   8.644 -0.1033  0.9357 -0.4627
48390SOL    HW252221   4.615   0.723   8.760 -0.1202 -0.3933 -0.0646
48391SOL     OW52222  12.486   9.682   6.241  0.0835  0.2951  0.0784
48391SOL    HW152223  12.559   9.626   6.266  1.5835  2.4682  0.9443
48391SOL    HW252224  12.498   9.698   6.147  1.2349  1.2492  0.3621
48392SOL     OW52225  12.401   6.221  11.126  0.4632 -0.3660  0.1737
48392SOL    HW152226  12.347   6.268  11.190 -0.2218 -1.8029  0.6932
48392SOL    HW252227  12.383   6.265  11.043  0.3317  0.6727  0.7288
48393SOL     OW52228  11.546  10.808  12.435 -0.1747  0.3722  0.1817
48393SOL    HW152229  11.610  10.853  12.490 -2.0339  0.4505  2.4820
48393SOL    HW252230  11.549  10.854  12.352  4.5972 -1.3449 -0.9131
48394SOL     OW52231   1.349   9.777   7.823  0.3669 -0.2974 -0.2596
48394SOL    HW152232   1.374   9.863   7.857  0.4240 -0.2758 -0.3562
48394SOL    HW252233   1.407   9.716   7.868 -0.7700 -0.4609  1.0488
48395SOL     OW52234   4.761   4.588   4.370  0.0500 -0.5154 -0.1313
48395SOL    HW152235   4.813   4.519   4.411 -0.3211 -0.5435  0.3108
48395SOL    HW252236   4.749   4.559   4.279 -0.5281 -1.2959  0.1766
48396SOL     OW52237   8.390   7.640   8.644 -0.1419 -0.2007 -0.0953
48396SOL    HW152238   8.341   7.558   8.641 -2.4805  0.9877  1.7354
48396SOL    HW252239   8.476   7.614   8.678  0.0192 -2.1502 -1.7799
48397SOL     OW52240   5.410   6.384   5.044 -0.3321  0.2321  0.0281
48397SOL    HW152241   5.445   6.324   4.979 -1.9911 -0.7068 -0.0627
48397SOL    HW252242   5.329   6.417   5.005 -0.0399  1.6648  0.5584
48398SOL     OW52243   8.068   6.556   2.938  0.3975  0.1709  0.2539
48398SOL    HW152244   7.980   6.556   2.900  0.6783 -0.1185 -0.4138
48398SOL    HW252245   8.116   6.622   2.888  0.7666 -0.1988  0.1153
48399SOL     OW52246  10.848   0.199   6.555 -0.0702  0.6353  0.4596
48399SOL    HW152247  10.899   0.190   6.475 -2.6380  1.9015 -1.4688
48399SOL    HW252248  10.872   0.122   6.608  0.7749 -0.9682 -2.0911
48400SOL     OW52249   7.945   2.695  10.702 -0.3084  0.2367  0.7154
48400SOL    HW152250   7.995   2.664  10.777 -0.5303  0.7494  1.0836
48400SOL    HW252251   7.999   2.673  10.626  0.2851  0.4155  1.0771
48401SOL     OW52252   3.500  10.641   8.494 -0.1433 -0.0365 -0.2330
48401SOL    HW152253   3.493  10.567   8.553 -0.4909 -1.2153 -1.6938
48401SOL    HW252254   3.563  10.614   8.427  0.3781  1.3205 -0.3309
48402SOL     OW52255   9.325   5.771   6.975  0.1556  0.4908 -0.2819
48402SOL    HW152256   9.346   5.737   7.063 -1.2577 -3.1533 -1.1710
48402SOL    HW252257   9.250   5.828   6.989  1.8314  2.5128  1.1612
48403SOL     OW52258   2.879   3.110   7.710 -0.2947  0.4533 -0.6866
48403SOL    HW152259   2.809   3.138   7.768  1.9469  0.7798  2.1194
48403SOL    HW252260   2.921   3.038   7.758  2.7000  1.8294 -1.0286
48404SOL     OW52261  10.009   7.729  11.501 -0.0702 -0.0097  0.0974
48404SOL    HW152262   9.929   7.691  11.536 -0.0951 -0.9251 -0.9127
48404SOL    HW252263  10.068   7.654  11.487  0.7249  0.5756  0.2103
48405SOL     OW52264   1.489  11.886   9.611  0.2190 -0.4730  0.4988
48405SOL    HW152265   1.476  11.879   9.705 -0.1557  1.6014  0.6472
48405SOL    HW252266   1.404  11.916   9.577  0.5959 -0.3393 -0.3657
48406SOL     OW52267   5.801   1.228   7.170  0.3145 -0.5450  0.3601
48406SOL    HW152268   5.868   1.294   7.157  0.5869 -0.2306  2.8531
48406SOL    HW252269   5.777   1.200   7.082 -0.5635  3.5901 -0.9258
48407SOL     OW52270  10.094  10.920   4.764  0.3060  0.2168 -0.1596
48407SOL    HW152271  10.081  11.009   4.797  0.4979  0.1272  0.1632
48407SOL    HW252272  10.040  10.866   4.822  1.2270 -0.0302  0.4904
48408SOL     OW52273   9.502   6.683   4.806  0.1223  0.2866  0.1908
48408SOL    HW152274   9.533   6.669   4.716  0.4980  0.1193  0.3460
48408SOL    HW252275   9.526   6.774   4.825 -1.2654  0.8010 -0.3947
48409SOL     OW52276   1.187   5.412   5.813  0.6688  0.2798 -0.0762
48409SOL    HW152277   1.124   5.386   5.745  1.0529 -1.6183  0.2286
48409SOL    HW252278   1.144   5.389   5.895  2.0089 -1.8612  0.1128
48410SOL     OW52279   6.373   9.786   4.878  0.1490 -0.3357 -0.0212
48410SOL    HW152280   6.280   9.776   4.899  0.1325  1.8159  1.2233
48410SOL    HW252281   6.403   9.697   4.860 -1.6390 -1.3994  1.7969
48411SOL     OW52282   7.350   6.768  11.531 -0.4075  0.4682 -0.6563
48411SOL    HW152283   7.416   6.709  11.566  0.4741  1.0209 -1.3320
48411SOL    HW252284   7.390   6.855  11.538 -1.9996  1.1325  1.1045
48412SOL     OW52285   4.387   1.975  12.081 -0.2047  0.0848  0.1751
48412SOL    HW152286   4.471   1.991  12.038 -0.0850  0.0780  0.4032
48412SOL    HW252287   4.330   2.044  12.049 -1.5899 -2.5535 -3.7905
48413SOL     OW52288   2.335   3.995   2.453  0.1170  0.4585  0.6898
48413SOL    HW152289   2.413   3.939   2.449 -1.8367 -2.4237  0.0863
48413SOL    HW252290   2.328   4.032   2.366  0.3178  0.0190  0.4823
48414SOL     OW52291   7.369   6.723   7.679 -0.2254 -0.0353  0.0306
48414SOL    HW152292   7.323   6.655   7.631 -0.3793 -0.2663  0.4992
48414SOL    HW252293   7.337   6.715   7.769  0.9819 -0.4521  0.4568
48415SOL     OW52294  11.688   7.152   1.117 -0.1655  0.1840  0.3574
48415SOL    HW152295  11.617   7.151   1.053  0.0180  0.2384  0.1541
48415SOL    HW252296  11.714   7.060   1.125 -1.3894 -0.0887  1.6931
48416SOL     OW52297   7.821   0.957   0.403 -0.1151 -0.0857 -0.4666
48416SOL    HW152298   7.857   0.921   0.484 -1.5553  0.1159  0.3004
48416SOL    HW252299   7.876   1.033   0.384 -1.1394  1.2809  1.6463
48417SOL     OW52300   1.669   8.926  11.920 -0.1175  0.2511 -0.2918
48417SOL    HW152301   1.670   8.947  11.827 -0.2255  1.7258  0.0080
48417SOL    HW252302   1.759   8.900  11.940 -0.1518 -0.3033 -0.8508
48418SOL     OW52303   1.236   5.943   3.439  0.0403  0.2215 -0.2018
48418SOL    HW152304   1.172   5.986   3.496 -0.3952 -0.4212 -0.2095
48418SOL    HW252305   1.233   5.851   3.464  1.5227  0.2865  0.3545
48419SOL     OW52306   7.690   4.261   9.777 -0.1424  0.1909  0.9081
48419SOL    HW152307   7.697   4.305   9.862  0.9832  0.7750  0.5278
48419SOL    HW252308   7.771   4.284   9.731 -0.2568 -0.9861  0.0813
48420SOL     OW52309   5.529   8.794  11.372  0.1381 -0.3237  0.2207
48420SOL    HW152310   5.560   8.759  11.455 -1.2837  0.5090  1.1398
48420SOL    HW252311   5.548   8.887  11.376  0.2080 -0.3023 -0.4618
48421SOL     OW52312  10.330   1.360   2.134  0.1944 -0.5728 -0.0243
48421SOL    HW152313  10.410   1.308   2.123  0.7849  0.5801 -1.5523
48421SOL    HW252314  10.287   1.356   2.049 -1.4394 -1.2302  0.7983
48422SOL     OW52315   0.580   7.903   2.173  0.6900 -0.3330  0.0136
48422SOL    HW152316   0.651   7.841   2.156  0.0610 -1.0745  0.0368
48422SOL    HW252317   0.516   7.853   2.222  0.0442  0.2631 -0.2049
48423SOL     OW52318   1.155   2.892   5.471 -0.4318 -0.1495  0.2763
48423SOL    HW152319   1.088   2.882   5.403 -0.4354 -0.8306  0.3748
48423SOL    HW252320   1.147   2.813   5.525 -0.8377  0.6597  1.4361
48424SOL     OW52321   3.515   5.534   9.730  0.1191 -0.5645  0.1673
48424SOL    HW152322   3.582   5.491   9.783 -0.7693 -1.5813  0.5020
48424SOL    HW252323   3.541   5.518   9.640 -0.2611 -1.9352  0.2861
48425SOL     OW52324  10.939   3.475   2.334  0.1425 -0.3492 -0.0469
48425SOL    HW152325  10.855   3.453   2.294 -0.9497  0.0020  1.9709
48425SOL    HW252326  10.974   3.392   2.364 -0.5296 -0.2396  1.0601
48426SOL     OW52327   3.816   4.137   2.768  0.3241  0.0032 -0.1543
48426SOL    HW152328   3.770   4.207   2.813  1.5956  1.2276 -0.6919
48426SOL    HW252329   3.898   4.176   2.739  0.3577 -1.2413 -1.9370
48427SOL     OW52330   9.161   6.547  11.682  0.0600  0.2715  0.5675
48427SOL    HW152331   9.204   6.598  11.750  1.3262 -2.4065  1.9031
48427SOL    HW252332   9.192   6.586  11.600  2.6209  0.3848  1.5098
48428SOL     OW52333  10.836   3.855   9.780 -0.0473 -0.1930 -0.5964
48428SOL    HW152334  10.912   3.838   9.835  0.0561 -0.0176 -0.6852
48428SOL    HW252335  10.872   3.869   9.692 -0.2287 -0.6955 -0.7537
48429SOL     OW52336   4.295   2.101   8.958  1.2860  0.0938  0.1583
48429SOL    HW152337   4.370   2.157   8.979 -0.3691  2.3044  0.5990
48429SOL    HW252338   4.253   2.083   9.042  0.1219  0.7438 -0.2577
48430SOL     OW52339   2.821   3.373   6.697 -0.2899 -0.3753 -0.6420
48430SOL    HW152340   2.793   3.403   6.610 -1.0603  1.9047  0.3053
48430SOL    HW252341   2.755   3.308   6.723  0.3315 -1.5943 -1.9940
48431SOL     OW52342   2.726  11.079   8.343  0.5457 -0.0424 -0.3241
48431SOL    HW152343   2.681  11.115   8.266  0.1841 -0.2322 -0.2020
48431SOL    HW252344   2.803  11.035   8.308  0.7638  0.4832 -0.5155
48432SOL     OW52345  12.515   4.318  11.283 -0.0018 -0.5637  0.1880
48432SOL    HW152346  12.576   4.245  11.280  0.7777  0.0992 -0.8966
48432SOL    HW252347  12.428   4.278  11.289  0.4784 -1.5286  0.9828
48433SOL     OW52348   1.537   4.227  10.378  0.7683 -0.3369  0.1540
48433SOL    HW152349   1.530   4.323  10.381  1.8880 -0.2222 -0.2327
48433SOL    HW252350   1.469   4.200  10.317  1.4585  0.3611 -0.9682
48434SOL     OW52351  12.021   0.280   4.679  0.2559  0.2553 -0.2747
48434SOL    HW152352  12.009   0.210   4.615  0.2036 -0.8508  0.9008
48434SOL    HW252353  11.962   0.256   4.751  0.0694  1.6340  0.0554
48435SOL     OW52354  10.790  12.592   1.148 -0.5131  0.0296 -0.0605
48435SOL    HW152355  10.840  12.605   1.068 -1.4181 -0.1195 -0.6689
48435SOL    HW252356  10.753  12.679   1.167  0.1358  0.1922  0.5101
48436SOL     OW52357   0.630   4.046   7.002  0.2669 -0.0506  0.2216
48436SOL    HW152358   0.639   4.107   6.929  0.9196  0.4713  0.7280
48436SOL    HW252359   0.720   4.028   7.030  0.0573 -0.7840  0.4617
48437SOL     OW52360   7.981   5.946   1.111  0.1177  0.0926 -0.4155
48437SOL    HW152361   8.021   5.982   1.190  1.9980 -0.6938 -0.9425
48437SOL    HW252362   8.006   6.008   1.042 -1.6238  0.8457 -0.4194
48438SOL     OW52363   6.691   8.222   9.496  0.1292  0.1982  0.5451
48438SOL    HW152364   6.740   8.204   9.416 -2.0940  0.0199 -0.8665
48438SOL    HW252365   6.707   8.315   9.514 -0.0044  0.4558 -0.6072
48439SOL     OW52366   0.105  10.350   3.625  0.6376  0.1477 -0.5074
48439SOL    HW152367   0.075  10.350   3.716 -0.6589  0.1487 -0.9121
48439SOL    HW252368   0.027  10.370   3.574  1.3789  0.3097 -1.6220
48440SOL     OW52369  10.876   0.448   2.014  0.3641  0.2992  0.7843
48440SOL    HW152370  10.916   0.521   2.060 -1.0972  0.9970  0.9852
48440SOL    HW252371  10.832   0.487   1.939 -0.4234 -0.3622  0.8821
48441SOL     OW52372   5.351   7.447  11.263  0.0365  0.6773  0.3057
48441SOL    HW152373   5.322   7.380  11.325 -2.3880 -0.0577 -1.4811
48441SOL    HW252374   5.446   7.435  11.258 -0.1825 -1.8994  0.8653
48442SOL     OW52375   3.943  10.127   3.777  0.3584  0.6684 -0.6807
48442SOL    HW152376   3.881  10.193   3.806  0.0680 -0.5997  1.9700
48442SOL    HW252377   3.898  10.078   3.709 -1.6706 -0.2504  1.2087
48443SOL     OW52378  10.051   0.885   2.072  0.4054 -0.3511 -0.3966
48443SOL    HW152379  10.100   0.812   2.108  2.3904  1.0879 -0.0301
48443SOL    HW252380   9.983   0.844   2.018  1.0653 -2.4405  0.2715
48444SOL     OW52381  12.245   1.802   5.343  0.2231  0.1285 -0.4080
48444SOL    HW152382  12.163   1.777   5.300  0.1589  0.4397 -0.4700
48444SOL    HW252383  12.309   1.805   5.272  0.3370 -0.3267 -0.3260
48445SOL     OW52384  12.586  11.057   8.758  0.0876 -0.1570 -0.1514
48445SOL    HW152385  12.539  11.131   8.720 -0.6742 -1.7933 -2.6645
48445SOL    HW252386  12.525  11.020   8.822 -0.6555 -0.1898 -0.8601
48446SOL     OW52387  10.191  11.124   3.756  0.3254  0.0835 -0.1401
48446SOL    HW152388  10.165  11.207   3.716 -2.6370 -1.4376 -1.7921
48446SOL    HW252389  10.177  11.136   3.849 -1.5882  1.0258 -0.5011
48447SOL     OW52390  10.609  11.227   6.518  0.5262  0.0502 -0.0605
48447SOL    HW152391  10.538  11.191   6.570 -0.0011  0.3015 -0.5903
48447SOL    HW252392  10.601  11.184   6.433  1.1923 -0.1377 -0.0324
48448SOL     OW52393   7.671  10.645   7.720 -0.0138 -0.6377  0.3630
48448SOL    HW152394   7.675  10.567   7.665  0.6684 -0.3908  0.0574
48448SOL    HW252395   7.717  10.712   7.671  1.7684 -0.7532  1.7822
48449SOL     OW52396   6.344   4.697   4.063 -0.0511 -0.2417 -0.6424
48449SOL    HW152397   6.305   4.611   4.049 -1.2808  0.3126 -0.7485
48449SOL    HW252398   6.424   4.679   4.113  0.2832 -1.5272 -1.5862
48450SOL     OW52399   2.662   6.654  12.482  0.2664 -0.3196  0.5011
48450SOL    HW152400   2.604   6.711  12.532  1.1246 -0.4052  1.6386
48450SOL    HW252401   2.733   6.711  12.452  0.0482 -0.3822 -0.1400
48451SOL     OW52402   5.554   9.015   1.114 -0.1633 -0.2543 -0.1576
48451SOL    HW152403   5.565   8.972   1.030 -2.3342  0.4892 -0.8834
48451SOL    HW252404   5.622   9.083   1.116  0.8728 -1.2508 -0.6159
48452SOL     OW52405   5.135   5.390   8.777 -0.2983 -0.4261 -0.4509
48452SOL    HW152406   5.204   5.413   8.839 -0.5210  2.2795 -1.0924
48452SOL    HW252407   5.080   5.329   8.825  1.3886 -1.0526  0.7881
48453SOL     OW52408   1.682   2.214  11.699  0.5398  0.1160 -0.2145
48453SOL    HW152409   1.715   2.165  11.775  0.1566  1.9946  1.2186
48453SOL    HW252410   1.627   2.151  11.652 -0.5689 -0.6294  1.9834
48454SOL     OW52411   4.315   2.178   6.683 -0.1229  0.2368  0.1839
48454SOL    HW152412   4.232   2.134   6.665 -0.3136  0.8933 -0.5575
48454SOL    HW252413   4.382   2.112   6.665 -0.4864 -0.4851  1.3497
48455SOL     OW52414   4.271  11.319   9.898  0.3802  0.1634 -0.4960
48455SOL    HW152415   4.268  11.414   9.905  0.1709  0.2077 -1.1195
48455SOL    HW252416   4.275  11.288   9.988 -2.0909  0.6758 -0.1560
48456SOL     OW52417   1.723  11.937   7.099  0.0120 -0.1739 -0.3071
48456SOL    HW152418   1.806  11.897   7.071 -0.1412 -0.7272  0.0061
48456SOL    HW252419   1.686  11.873   7.160  1.0838  1.6194  2.4364
48457SOL     OW52420  12.304   9.189  10.286  0.3775 -0.1221  0.0428
48457SOL    HW152421  12.378   9.184  10.226  0.8663  0.5146  0.5718
48457SOL    HW252422  12.316   9.115  10.345 -0.0628 -0.7040 -0.5763
48458SOL     OW52423  12.256   1.694   7.548 -0.3876 -0.1258 -0.3734
48458SOL    HW152424  12.301   1.687   7.632 -1.4754 -2.4219  0.0909
48458SOL    HW252425  12.312   1.646   7.487  0.3609  1.4697 -1.0039
48459SOL     OW52426   0.566   0.730   7.003 -0.6124  0.2645  0.0645
48459SOL    HW152427   0.523   0.699   7.083 -2.0722 -2.9702 -1.7582
48459SOL    HW252428   0.510   0.800   6.971  0.1412  1.8004  1.9328
48460SOL     OW52429   1.890   0.663   4.498  0.0736 -0.1887 -0.2060
48460SOL    HW152430   1.823   0.726   4.525 -0.2023 -0.4186 -0.3525
48460SOL    HW252431   1.887   0.663   4.403  1.6758  1.3002 -0.3136
48461SOL     OW52432   4.312   0.589   7.084  0.3747  0.3062  0.4265
48461SOL    HW152433   4.246   0.617   7.148 -0.4668  0.9842 -0.6998
48461SOL    HW252434   4.280   0.622   7.000  0.9980 -1.3113 -0.5011
48462SOL     OW52435   4.691   3.548  12.373 -0.3387 -0.3184  0.0404
48462SOL    HW152436   4.654   3.516  12.455 -0.6671 -0.2531 -0.0832
48462SOL    HW252437   4.668   3.640  12.370 -0.1631 -0.2764 -0.0336
48463SOL     OW52438  10.422  11.740   8.945  0.1076 -0.1830  0.1576
48463SOL    HW152439  10.339  11.740   8.899  0.3715  0.4785 -0.3295
48463SOL    HW252440  10.410  11.800   9.019 -0.4563 -1.5747  1.2487
48464SOL     OW52441   3.755   1.500   2.427  0.1193  0.3308 -0.1409
48464SOL    HW152442   3.734   1.539   2.512  1.2353  0.7809 -0.0578
48464SOL    HW252443   3.851   1.496   2.425  0.1204  0.5395 -1.4704
48465SOL     OW52444  10.905   6.414   9.290  0.2679 -0.2458  0.3689
48465SOL    HW152445  10.992   6.448   9.267 -0.0993  1.3521  1.1735
48465SOL    HW252446  10.846   6.454   9.225  0.0933 -1.1873 -0.0696
48466SOL     OW52447   9.781   3.562   9.674  0.8882 -0.1497  0.2100
48466SOL    HW152448   9.729   3.483   9.685  1.5046 -0.3268  2.2623
48466SOL    HW252449   9.866   3.531   9.642  0.3771 -0.0589 -1.2639
48467SOL     OW52450   6.570  10.427   1.645 -0.4141 -0.0535 -0.2070
48467SOL    HW152451   6.590  10.520   1.636  0.3343 -0.2380 -0.5065
48467SOL    HW252452   6.615  10.400   1.725 -0.2952 -0.2518 -0.3414
48468SOL     OW52453   4.319  11.000   7.995  0.1704  0.3081 -0.1096
48468SOL    HW152454   4.390  11.032   8.049  1.7519 -0.2810 -1.7510
48468SOL    HW252455   4.317  10.906   8.011  0.8306  0.0851 -1.2156
48469SOL     OW52456  11.037   8.840   5.200 -0.2788  0.2638 -0.4130
48469SOL    HW152457  11.095   8.819   5.126  0.5689  2.3768 -0.4442
48469SOL    HW252458  11.087   8.815   5.277 -0.3427 -0.1578 -0.5087
48470SOL     OW52459   2.663   0.819  12.378  0.1196  0.1161 -0.0018
48470SOL    HW152460   2.748   0.848  12.343 -0.2274  0.9807 -0.1626
48470SOL    HW252461   2.611   0.798  12.300 -0.7115  2.2052 -0.0852
48471SOL     OW52462   3.695   6.384   2.196 -0.2474 -0.4528 -0.3655
48471SOL    HW152463   3.782   6.360   2.227 -0.8372 -1.5193  0.5126
48471SOL    HW252464   3.712   6.448   2.126  1.2629 -1.3035 -0.8266
48472SOL     OW52465   0.386   3.278  10.023 -0.2994  0.2409  0.1873
48472SOL    HW152466   0.375   3.183  10.025  2.2978 -0.1239  1.7771
48472SOL    HW252467   0.472   3.291   9.982 -0.4087  1.8656  0.4209
48473SOL     OW52468   3.677   0.225   2.970  0.2736 -0.1231  0.2430
48473SOL    HW152469   3.614   0.167   3.011 -0.4109  0.0566 -0.5336
48473SOL    HW252470   3.757   0.214   3.021  0.1779 -1.7935  0.0652
48474SOL     OW52471  12.193   4.447  11.412 -0.1141  0.2029  0.0521
48474SOL    HW152472  12.226   4.516  11.354 -2.0045  0.0804 -1.2769
48474SOL    HW252473  12.202   4.483  11.500  1.5588  0.9645 -0.3889
48475SOL     OW52474  10.792   4.249   9.176  0.1408  0.2525  0.3932
48475SOL    HW152475  10.822   4.159   9.186 -0.1865  0.0107 -0.6735
48475SOL    HW252476  10.865   4.294   9.134 -0.0914  0.2394 -0.0204
48476SOL     OW52477   1.346   5.414   4.212 -0.0626 -0.1370  0.9458
48476SOL    HW152478   1.390   5.475   4.153 -0.9163 -1.6298 -1.3447
48476SOL    HW252479   1.283   5.469   4.260  1.4326  1.2987  1.3554
48477SOL     OW52480   4.600   9.193   7.552 -0.0568  0.5092  0.5594
48477SOL    HW152481   4.642   9.277   7.530 -0.1126  0.8523  1.7033
48477SOL    HW252482   4.507   9.213   7.551 -0.1344  0.1514 -0.3411
48478SOL     OW52483   2.895   3.064   9.402  0.5418 -0.1543  0.2283
48478SOL    HW152484   2.881   3.058   9.307  0.6996  0.4515  0.1662
48478SOL    HW252485   2.852   3.146   9.427  1.6358  0.3516  0.4715
48479SOL     OW52486   0.030   5.382   4.608 -0.7334 -0.5062  0.1965
48479SOL    HW152487   0.093   5.371   4.537 -0.2020 -1.6637  0.8256
48479SOL    HW252488   0.043   5.306   4.664 -3.2506 -1.1951 -0.0617
48480SOL     OW52489  10.657   1.616   0.282 -0.1404  0.0709  0.6046
48480SOL    HW152490  10.730   1.656   0.328 -0.3300  2.3034 -0.8758
48480SOL    HW252491  10.603   1.690   0.253 -2.0606 -1.4189  0.1394
48481SOL     OW52492   5.766   4.676   3.194 -0.4608  0.4729  0.2829
48481SOL    HW152493   5.723   4.595   3.221 -1.5993  0.6682 -0.8745
48481SOL    HW252494   5.848   4.648   3.154 -1.4869 -0.2471 -1.3981
48482SOL     OW52495   7.290   9.126   2.166  0.5300 -0.2724  0.0688
48482SOL    HW152496   7.299   9.221   2.156  0.6770 -0.0531  2.0095
48482SOL    HW252497   7.260   9.096   2.080  0.3169  1.5420 -0.5337
48483SOL     OW52498   1.996  10.004  11.824  0.1645  0.9178  0.3312
48483SOL    HW152499   2.055   9.941  11.866  1.8512  0.7633 -2.0180
48483SOL    HW252500   2.037  10.021  11.739 -0.9599  4.1909  0.3268
48484SOL     OW52501   1.601   1.085   7.192 -0.6056  0.2843 -0.4192
48484SOL    HW152502   1.532   1.038   7.145 -0.9869 -0.6654  1.0338
48484SOL    HW252503   1.567   1.174   7.203 -1.9146 -0.3496  0.8709
48485SOL     OW52504  10.376  11.714   9.269 -0.0581  0.0689  0.0316
48485SOL    HW152505  10.306  11.776   9.294  0.2283  0.3903  0.0365
48485SOL    HW252506  10.457  11.759   9.294  0.1172 -0.7376  0.9928
48486SOL     OW52507  12.165   2.598   5.714 -0.1282  0.1597  0.1653
48486SOL    HW152508  12.140   2.577   5.804  0.6152 -1.2796  0.0640
48486SOL    HW252509  12.142   2.519   5.664 -0.0531  0.7480 -0.8135
48487SOL     OW52510   6.793   9.023   9.357  0.0764 -0.3862  0.1321
48487SOL    HW152511   6.798   8.956   9.426 -0.7817 -1.9014 -1.2067
48487SOL    HW252512   6.836   8.982   9.282  2.2442  1.7574  0.0787
48488SOL     OW52513   1.224  11.681   9.958  0.3721 -0.4770  0.5359
48488SOL    HW152514   1.198  11.599   9.917  0.3307  0.1012 -0.6350
48488SOL    HW252515   1.154  11.700  10.020 -0.2037 -0.7393 -0.0211
48489SOL     OW52516   3.819   2.631   9.094  0.7425 -0.4733  0.1937
48489SOL    HW152517   3.779   2.630   9.007  1.0505  0.0134  0.0373
48489SOL    HW252518   3.747   2.652   9.154  1.2751  4.4710 -0.4617
48490SOL     OW52519   7.561  11.577   3.019  0.2175 -0.1961  0.1606
48490SOL    HW152520   7.620  11.507   3.047  0.5591  0.1721  0.3595
48490SOL    HW252521   7.554  11.565   2.924  0.3306 -0.4570  0.1843
48491SOL     OW52522  11.077  12.239   3.437 -0.3351 -0.3971  0.8269
48491SOL    HW152523  11.083  12.290   3.518  0.9149 -0.7797  0.9909
48491SOL    HW252524  11.025  12.163   3.460  0.2763 -0.6598  1.3585
48492SOL     OW52525   9.827  11.461   4.544 -0.4151 -0.2783  0.0778
48492SOL    HW152526   9.752  11.408   4.517 -1.3990  0.6904  0.7937
48492SOL    HW252527   9.901  11.401   4.544 -1.0378 -1.0911 -1.3807
48493SOL     OW52528   8.980   6.652   0.581 -0.4000 -0.0570  0.7840
48493SOL    HW152529   9.048   6.666   0.647 -1.1870  0.7986  1.4386
48493SOL    HW252530   9.026   6.612   0.507  0.9403  1.0458  0.9790
48494SOL     OW52531   5.715   3.583   5.603 -0.0750 -0.1711 -0.2307
48494SOL    HW152532   5.687   3.596   5.694  0.3169 -0.6171 -0.0397
48494SOL    HW252533   5.719   3.488   5.593 -2.7464 -0.2378 -1.5433
48495SOL     OW52534   9.433   5.396   4.317  0.0570 -0.4658  0.4429
48495SOL    HW152535   9.354   5.389   4.372 -0.4982 -3.1491 -0.5490
48495SOL    HW252536   9.504   5.411   4.380 -1.0626  0.9581  1.4511
48496SOL     OW52537   0.828   8.028   5.125  0.0648 -0.0713 -0.1852
48496SOL    HW152538   0.799   8.088   5.056  0.9477  0.2735 -0.2683
48496SOL    HW252539   0.754   7.968   5.138 -0.7071  0.8343 -0.3249
48497SOL     OW52540   9.074   7.842   0.773  0.5370  0.1135 -0.2435
48497SOL    HW152541   9.056   7.900   0.699  0.0942  1.9507  1.2366
48497SOL    HW252542   9.033   7.759   0.748 -0.7091  1.0530 -1.5077
48498SOL     OW52543  12.166   9.982  11.074 -0.6184 -0.7417 -0.8638
48498SOL    HW152544  12.254   9.994  11.110 -1.6341  0.1475  1.5498
48498SOL    HW252545  12.168   9.896  11.034  1.1056 -1.1354 -0.0517
48499SOL     OW52546   0.745   1.497   6.534  0.2709  0.5044 -0.4193
48499SOL    HW152547   0.810   1.444   6.582  0.2187 -3.4129 -4.0613
48499SOL    HW252548   0.661   1.457   6.557  0.0543  0.0072 -1.9921
48500SOL     OW52549  11.584   1.879  10.922 -0.9703 -0.2749  0.3459
48500SOL    HW152550  11.669   1.852  10.954 -1.0931 -2.4395 -0.9544
48500SOL    HW252551  11.584   1.974  10.931  0.3305 -0.4561  3.2505
48501SOL     OW52552  11.765   3.185   5.333 -0.3694  0.4207 -0.4226
48501SOL    HW152553  11.804   3.098   5.337  0.1000  0.5627 -1.4564
48501SOL    HW252554  11.671   3.170   5.329 -0.2520 -0.1114 -1.7577
48502SOL     OW52555   6.093  10.448  10.034  0.3601  0.4216 -0.0458
48502SOL    HW152556   6.167  10.406  10.078 -0.0305  1.2670  1.4947
48502SOL    HW252557   6.026  10.457  10.102  0.3277  3.2376 -0.3331
48503SOL     OW52558   2.924  11.503   2.827 -0.4074 -0.7632  0.3204
48503SOL    HW152559   2.885  11.425   2.787 -0.3331  0.4404 -2.2808
48503SOL    HW252560   2.897  11.499   2.918 -1.4337 -3.1834 -0.0156
48504SOL     OW52561   1.636  11.228   4.841  0.6916  0.2634  0.0655
48504SOL    HW152562   1.716  11.233   4.893  0.1380 -1.7999  1.2150
48504SOL    HW252563   1.664  11.199   4.755  1.1547 -0.9356  0.6022
48505SOL     OW52564   9.001   0.918  12.190 -0.4922  0.3728 -0.1208
48505SOL    HW152565   8.915   0.950  12.163 -0.2121  1.5226  0.3085
48505SOL    HW252566   8.987   0.826  12.212 -1.4682  0.3739 -0.6972
48506SOL     OW52567  10.987   3.432   1.191 -0.1146  0.2956  0.0333
48506SOL    HW152568  11.049   3.495   1.153 -0.3713  0.3614 -0.2834
48506SOL    HW252569  10.908   3.484   1.207  0.1586  0.4037  1.1781
48507SOL     OW52570   9.030   3.336   4.587 -0.5811 -0.3396  0.2558
48507SOL    HW152571   9.064   3.347   4.498 -0.6491 -0.8036  0.1725
48507SOL    HW252572   9.044   3.421   4.629 -1.0713  0.0543 -0.3759
48508SOL     OW52573   8.024   0.060  10.040 -0.1603 -0.0990  0.0133
48508SOL    HW152574   8.088   0.099  10.100 -1.3279  1.5966  0.2095
48508SOL    HW252575   8.012   0.125   9.971 -1.8102 -0.3030  0.0805
48509SOL     OW52576   1.636   4.856   4.635  0.3999 -0.2589 -0.2330
48509SOL    HW152577   1.558   4.833   4.686 -1.3847  2.6376 -1.4128
48509SOL    HW252578   1.640   4.789   4.567 -0.7626 -0.7485  0.1523
48510SOL     OW52579   0.105   2.106   0.045  0.2158 -0.0123 -0.2000
48510SOL    HW152580   0.129   2.017   0.070 -0.9395 -0.3239 -0.1421
48510SOL    HW252581   0.178   2.137  -0.009  1.2181 -0.5255  0.8220
48511SOL     OW52582  11.661  10.161   3.335  0.1399 -0.2692 -0.2268
48511SOL    HW152583  11.703  10.170   3.249  1.3380 -0.0960  0.3531
48511SOL    HW252584  11.724  10.110   3.387 -0.8161 -0.8448  0.3902
48512SOL     OW52585   3.186   0.366  12.233  0.0301  0.2067 -0.1899
48512SOL    HW152586   3.274   0.376  12.198  0.1153 -0.3929 -0.1693
48512SOL    HW252587   3.199   0.320  12.316 -0.3465 -0.5184 -0.5193
48513SOL     OW52588   7.913  12.482   0.023 -0.1717 -0.3707 -0.3234
48513SOL    HW152589   7.844  12.532  -0.021  0.2192 -0.7813 -1.4587
48513SOL    HW252590   7.867  12.412   0.069 -0.5575 -0.3366 -0.6456
48514SOL     OW52591   1.690   1.942   1.651  0.5667  0.2436  0.1787
48514SOL    HW152592   1.680   1.858   1.606  1.6677 -0.3082  0.9124
48514SOL    HW252593   1.736   1.998   1.588 -1.6619  0.8978 -0.9682
48515SOL     OW52594   4.198   7.620   2.565  0.0896 -0.2482 -0.1581
48515SOL    HW152595   4.115   7.582   2.535 -0.6745  1.1394  0.1379
48515SOL    HW252596   4.206   7.589   2.655 -0.3386 -0.0199 -0.0390
48516SOL     OW52597   4.605   5.328   9.449 -0.1755 -0.3624  0.5431
48516SOL    HW152598   4.686   5.363   9.486  0.0666 -0.5863  0.2325
48516SOL    HW252599   4.559   5.404   9.414  1.4022 -0.5272 -2.2081
48517SOL     OW52600   6.186   6.111   3.030 -0.3938 -0.1460  0.1896
48517SOL    HW152601   6.105   6.089   3.075 -0.2588 -1.2562 -0.0772
48517SOL    HW252602   6.161   6.178   2.966 -0.5506  1.5843  1.9914
48518SOL     OW52603   5.829   0.898   7.668  0.0907 -0.1884 -0.0583
48518SOL    HW152604   5.880   0.879   7.590 -0.0344 -0.2931 -0.1159
48518SOL    HW252605   5.887   0.873   7.741  1.6251  3.1983  0.0554
48519SOL     OW52606   6.323   3.286   5.571 -0.1251  0.3706 -0.4171
48519SOL    HW152607   6.239   3.300   5.527  1.2592  1.0923 -3.0651
48519SOL    HW252608   6.374   3.365   5.550  1.0659  0.2051  1.5850
48520SOL     OW52609   5.165   9.883   1.959 -0.0145 -0.4318 -0.2211
48520SOL    HW152610   5.169   9.966   1.911 -1.7350 -1.4727 -2.3288
48520SOL    HW252611   5.231   9.827   1.917 -0.4759 -0.8689 -0.3706
48521SOL     OW52612   4.751   5.789   3.198  0.0026 -0.4172  0.0425
48521SOL    HW152613   4.742   5.768   3.105 -0.2826  0.0466 -0.0391
48521SOL    HW252614   4.828   5.846   3.203  0.0755 -0.5207  0.1034
48522SOL     OW52615   0.248   8.185   5.271 -0.3148 -0.2735  0.0293
48522SOL    HW152616   0.236   8.121   5.202  0.4886 -0.8513  0.4112
48522SOL    HW252617   0.341   8.208   5.267 -0.3464 -0.0101  0.6476
48523SOL     OW52618   2.007   5.104   1.552  0.1980  0.3110  0.3886
48523SOL    HW152619   1.944   5.079   1.619  0.3280 -2.4207 -0.4086
48523SOL    HW252620   2.048   5.183   1.587  0.2143 -0.9396  3.5168
48524SOL     OW52621   1.373   9.796   0.866 -0.8864  0.0866  0.3187
48524SOL    HW152622   1.443   9.758   0.813 -0.1667 -1.4415  2.2019
48524SOL    HW252623   1.400   9.886   0.883  0.0373 -0.1345  0.0447
48525SOL     OW52624   9.281   7.749   3.337  0.0257 -0.3158 -0.1766
48525SOL    HW152625   9.244   7.739   3.425 -0.7880 -0.9649 -0.5716
48525SOL    HW252626   9.323   7.664   3.319  0.1038 -0.2211 -0.4480
48526SOL     OW52627  10.160  11.783  10.142 -0.1196  0.4513  0.7248
48526SOL    HW152628  10.067  11.773  10.159 -0.0217  0.5210  1.2938
48526SOL    HW252629  10.172  11.877  10.129 -0.1084  0.4572  0.7728
48527SOL     OW52630   2.943   2.803   5.354  0.0174 -0.2062 -0.7649
48527SOL    HW152631   2.865   2.755   5.326 -0.0325  0.0666 -1.1053
48527SOL    HW252632   3.016   2.746   5.330 -0.0711 -0.4202 -0.5327
48528SOL     OW52633   1.920   0.772   3.988 -0.3706 -0.0789  0.4648
48528SOL    HW152634   1.980   0.830   4.035 -1.2416  0.0130  1.5068
48528SOL    HW252635   1.935   0.791   3.896  0.7402  0.3959  0.7292
48529SOL     OW52636   7.271   6.787   3.543 -0.2159 -0.1018  0.1413
48529SOL    HW152637   7.286   6.826   3.629 -1.3366 -1.2342  0.8971
48529SOL    HW252638   7.206   6.718   3.559  0.3562 -1.0720 -1.4211
48530SOL     OW52639   6.329   0.351   9.882  0.3587  0.1667  0.2601
48530SOL    HW152640   6.325   0.332   9.789 -0.3758 -1.1271  0.5378
48530SOL    HW252641   6.245   0.393   9.902  0.2201 -0.1991  0.4641
48531SOL     OW52642  10.758  10.396   4.671  0.0940  0.3407  0.2437
48531SOL    HW152643  10.787  10.475   4.625  0.1041  0.1671 -0.0518
48531SOL    HW252644  10.662  10.402   4.670  0.0524 -0.1923 -0.7566
48532SOL     OW52645   8.637  10.389   1.068  0.2265  0.1631 -0.3496
48532SOL    HW152646   8.722  10.375   1.025  0.5708 -2.8852  1.1052
48532SOL    HW252647   8.595  10.303   1.068 -0.3059  0.1749  4.0891
48533SOL     OW52648  10.503  10.960   1.109 -0.2726  0.3421 -0.0846
48533SOL    HW152649  10.491  10.873   1.148  0.7410 -0.0475 -0.5949
48533SOL    HW252650  10.567  10.946   1.039 -1.5666  1.1512 -1.4786
48534SOL     OW52651   9.752   9.203  10.349  0.4790  0.7284 -0.2543
48534SOL    HW152652   9.790   9.148  10.418  2.1392  2.7050  0.5451
48534SOL    HW252653   9.824   9.214  10.287  0.1359  1.8220 -0.4674
48535SOL     OW52654   5.791   8.987   2.063 -0.0312 -0.2959  0.3839
48535SOL    HW152655   5.844   8.917   2.101  0.8559 -0.9070 -1.8316
48535SOL    HW252656   5.702   8.971   2.094  0.6707 -0.6048  2.3183
48536SOL     OW52657  10.333  11.357   3.061 -0.3204  0.5240 -0.0232
48536SOL    HW152658  10.310  11.282   3.117  1.8419 -0.2800 -0.1112
48536SOL    HW252659  10.299  11.334   2.975  0.0781 -0.2407  0.0169
48537SOL     OW52660   6.504  11.489   4.856  0.6340  0.1635  0.3532
48537SOL    HW152661   6.543  11.439   4.785 -0.6061  0.7833 -0.8069
48537SOL    HW252662   6.414  11.457   4.862  0.5233  0.5947  1.2016
48538SOL     OW52663   3.668   1.308   8.378 -0.3997 -0.1107  0.0810
48538SOL    HW152664   3.747   1.325   8.326 -0.1104 -1.2808  0.1160
48538SOL    HW252665   3.662   1.383   8.437 -0.8929  1.4214 -1.7985
48539SOL     OW52666  10.171   2.680  10.604 -0.6091 -0.8517 -0.7677
48539SOL    HW152667  10.227   2.706  10.531  0.5605  0.7188  0.6172
48539SOL    HW252668  10.139   2.763  10.640 -1.9643 -1.6428 -0.0924
48540SOL     OW52669   8.729   8.025   6.174 -0.3537  0.5837  0.3415
48540SOL    HW152670   8.767   8.108   6.201 -1.0476  0.5981  1.3576
48540SOL    HW252671   8.785   7.959   6.216  0.1055  0.5334 -0.3375
48541SOL     OW52672  12.367   6.811  10.404 -0.3025  0.2172 -0.3116
48541SOL    HW152673  12.337   6.771  10.486 -0.8578 -1.2490 -1.1940
48541SOL    HW252674  12.437   6.754  10.374  1.8820  2.2857  0.5000
48542SOL     OW52675   8.345  11.887   1.459 -0.0016 -0.5595 -0.1897
48542SOL    HW152676   8.431  11.873   1.419  0.9961 -0.8480  1.8609
48542SOL    HW252677   8.299  11.804   1.446 -0.2303 -0.2104 -1.8089
48543SOL     OW52678   5.684  10.615   5.554 -0.2202 -0.7210  0.4011
48543SOL    HW152679   5.673  10.543   5.492  1.8448 -1.8281  1.2431
48543SOL    HW252680   5.761  10.662   5.523 -0.4352 -0.0152  0.9289
48544SOL     OW52681  11.105   5.316  11.015 -0.3752  0.2612 -0.2514
48544SOL    HW152682  11.197   5.342  11.019 -0.4478  0.6095 -0.7332
48544SOL    HW252683  11.058   5.388  11.056 -0.4126 -0.0542  0.2697
48545SOL     OW52684   1.086   4.619   2.863 -0.0235  0.1980  0.0621
48545SOL    HW152685   1.171   4.632   2.822  0.5340  0.4997  1.2611
48545SOL    HW252686   1.076   4.695   2.921  0.3781 -1.3868  2.3633
48546SOL     OW52687   3.401  12.355   2.431  0.5133  0.1686 -0.1278
48546SOL    HW152688   3.460  12.361   2.506 -0.2797 -1.1578  0.6402
48546SOL    HW252689   3.409  12.264   2.401  0.2400  0.4772 -1.1754
48547SOL     OW52690   3.226  11.103   2.362 -0.7691 -0.1748  0.1733
48547SOL    HW152691   3.201  11.031   2.419 -0.5949 -0.0213  0.4463
48547SOL    HW252692   3.162  11.172   2.381 -1.0805 -0.3385 -0.2588
48548SOL     OW52693   9.996   9.125  10.262  0.4065  0.4649 -0.4957
48548SOL    HW152694  10.050   9.128  10.340 -1.3921  1.0754  0.8005
48548SOL    HW252695  10.056   9.143  10.190  2.2751 -0.9624  0.6284
48549SOL     OW52696   0.444   7.564   7.176 -0.1669 -0.2555 -0.2817
48549SOL    HW152697   0.421   7.650   7.211 -2.8088 -0.7290 -0.6044
48549SOL    HW252698   0.513   7.581   7.112  1.2290  1.2372  1.5279
48550SOL     OW52699   6.551   3.669  10.605 -0.1194  0.3413 -0.5136
48550SOL    HW152700   6.629   3.661  10.550 -0.8134 -0.7167 -1.3767
48550SOL    HW252701   6.544   3.763  10.623  1.5257  0.4211 -0.1348
48551SOL     OW52702   3.152  11.520   1.960  0.0669  0.1877  0.3843
48551SOL    HW152703   3.164  11.449   1.897  1.6284 -0.4159  1.2996
48551SOL    HW252704   3.121  11.475   2.039  0.4657  0.6063  0.7806
48552SOL     OW52705   3.946  10.688   7.221  0.8977 -0.1647  0.0124
48552SOL    HW152706   3.878  10.696   7.288 -0.4579  0.5414 -1.3716
48552SOL    HW252707   3.999  10.614   7.249  1.5245  1.1897  2.8148
48553SOL     OW52708   5.480   1.500   8.472 -0.6867 -0.0527 -0.3435
48553SOL    HW152709   5.452   1.489   8.380 -2.1344  1.2844 -0.1201
48553SOL    HW252710   5.537   1.577   8.470 -1.6465  0.6892  0.0117
48554SOL     OW52711   3.922  11.893   7.487  0.0027 -0.0194  0.2854
48554SOL    HW152712   4.012  11.894   7.520  0.4509 -1.0597 -0.8109
48554SOL    HW252713   3.889  11.982   7.503  1.3448  0.4802  0.4012
48555SOL     OW52714   5.810   9.116   8.754 -0.2434  0.5086 -0.2753
48555SOL    HW152715   5.796   9.083   8.843  2.0190 -1.0447 -0.4037
48555SOL    HW252716   5.728   9.097   8.708 -0.3201 -1.7451  0.6419
48556SOL     OW52717   3.638   0.315   7.285 -1.0146  0.1469  0.0242
48556SOL    HW152718   3.658   0.392   7.232 -0.2237 -0.5502 -0.7125
48556SOL    HW252719   3.610   0.249   7.223  1.0264 -1.0531  0.2989
48557SOL     OW52720   5.792   5.598   9.985  0.3282 -0.6527  0.1484
48557SOL    HW152721   5.833   5.657   9.921 -1.9634  0.5081 -0.3775
48557SOL    HW252722   5.866   5.558  10.031  2.0890  2.8469  0.7556
48558SOL     OW52723   8.068  10.570   8.448  0.3207  0.0151  0.3858
48558SOL    HW152724   8.147  10.598   8.495 -0.2387  0.0281  1.3612
48558SOL    HW252725   8.077  10.606   8.360  0.5531  1.5701  1.0217
48559SOL     OW52726  11.256  11.242  12.092 -0.2395 -0.4828  0.2744
48559SOL    HW152727  11.315  11.217  12.021  1.1688  1.2889  0.7441
48559SOL    HW252728  11.230  11.332  12.071 -4.1083 -1.6310 -0.7214
48560SOL     OW52729   6.969   4.853   1.473 -0.8648 -0.2915 -0.0593
48560SOL    HW152730   6.979   4.927   1.413  0.8475 -0.3217  0.1352
48560SOL    HW252731   6.918   4.888   1.546  0.9596  1.1147  0.6222
48561SOL     OW52732   1.523  10.649   2.055 -0.3008  0.3963 -0.1993
48561SOL    HW152733   1.528  10.565   2.100 -0.1283  0.5147  0.0082
48561SOL    HW252734   1.573  10.709   2.112 -1.5208  0.9309  0.3456
48562SOL     OW52735   4.339   4.374   1.137 -0.1609 -0.4281  0.2176
48562SOL    HW152736   4.321   4.397   1.046  1.9016  0.7094  0.0318
48562SOL    HW252737   4.256   4.340   1.170 -0.9977 -0.7459 -2.0326
48563SOL     OW52738   0.894   4.510   4.329  0.4715  0.0499  0.4874
48563SOL    HW152739   0.850   4.533   4.247  1.6705  1.2007  0.1274
48563SOL    HW252740   0.918   4.594   4.368 -0.1428 -0.4749  2.0817
48564SOL     OW52741   3.613   3.077  12.513  0.0500 -0.0199  0.2096
48564SOL    HW152742   3.598   3.171  12.528  2.9004  0.9202 -1.7873
48564SOL    HW252743   3.606   3.067  12.418 -0.1528 -1.8457  0.3813
48565SOL     OW52744   8.994   6.958   9.833  0.8354  0.7397 -0.4113
48565SOL    HW152745   9.034   6.941   9.918  0.6889 -0.5293 -0.5763
48565SOL    HW252746   9.020   6.884   9.779  0.6846  1.3787 -1.3967
48566SOL     OW52747   0.229  10.774   7.804 -0.0358 -0.3782 -0.2488
48566SOL    HW152748   0.225  10.866   7.779  0.8622  0.3433  2.0655
48566SOL    HW252749   0.317  10.746   7.778  0.0614 -0.2959 -0.0057
48567SOL     OW52750  12.337   1.584   1.719  0.5408  0.6860 -0.3732
48567SOL    HW152751  12.303   1.545   1.639 -0.0980  0.2350  0.1080
48567SOL    HW252752  12.345   1.511   1.780  0.4174  1.1173  0.1693
48568SOL     OW52753  11.180  10.835   8.605 -0.2836 -0.5253  0.2529
48568SOL    HW152754  11.125  10.795   8.538 -0.7445 -0.3218  0.5079
48568SOL    HW252755  11.256  10.868   8.556 -1.5490  1.4548 -0.5225
48569SOL     OW52756   2.252   7.005  11.523  0.4010 -0.1695  0.7447
48569SOL    HW152757   2.174   6.967  11.482  0.8656  0.2861 -0.5866
48569SOL    HW252758   2.216   7.059  11.594 -0.3069 -2.3778  2.1721
48570SOL     OW52759   2.534   2.510  10.352  0.0845  0.5442  0.0598
48570SOL    HW152760   2.548   2.583  10.413 -1.2255  1.1230 -0.2987
48570SOL    HW252761   2.586   2.438  10.388  1.5051  1.6681  0.3640
48571SOL     OW52762   5.913   1.460   5.555 -0.0019  0.3808 -0.0922
48571SOL    HW152763   5.842   1.482   5.616  0.5264 -0.0431  0.6881
48571SOL    HW252764   5.957   1.385   5.595  0.4745  0.2131 -0.9071
48572SOL     OW52765   0.212   2.741  10.311  0.0317 -0.3560 -0.5021
48572SOL    HW152766   0.188   2.687  10.387  1.1580 -1.0219 -0.5917
48572SOL    HW252767   0.144   2.808  10.307 -1.7511 -2.0759 -0.7088
48573SOL     OW52768   7.596   6.420  11.126 -0.5361  0.2927 -0.0320
48573SOL    HW152769   7.645   6.454  11.201  1.3674  1.1466 -1.6017
48573SOL    HW252770   7.560   6.336  11.157  0.8214  0.2607  1.5821
48574SOL     OW52771   7.928  10.458   1.997  0.0612  0.2595 -0.0249
48574SOL    HW152772   8.010  10.507   1.998  0.1907  0.0527 -0.3259
48574SOL    HW252773   7.868  10.514   1.947  0.1982  0.1268 -0.3376
48575SOL     OW52774   4.507   6.157   6.794  0.2053  0.3807  0.0254
48575SOL    HW152775   4.585   6.211   6.810 -1.0412  2.2524  0.1572
48575SOL    HW252776   4.466   6.149   6.880 -1.4154  2.2083 -0.5079
48576SOL     OW52777   9.526   5.153   1.693  0.0998 -0.1167  0.0952
48576SOL    HW152778   9.518   5.076   1.749  0.9252 -0.4665 -0.2592
48576SOL    HW252779   9.537   5.118   1.605  0.0604  0.4095 -0.1227
48577SOL     OW52780   9.241   4.940   4.677 -0.0611  0.3207  0.2606
48577SOL    HW152781   9.269   4.933   4.586 -3.8358 -3.0573 -0.9279
48577SOL    HW252782   9.195   5.023   4.682  0.4923  0.7136 -0.7873
48578SOL     OW52783   7.778   3.278   2.270  0.0685  0.6685  0.0933
48578SOL    HW152784   7.850   3.341   2.279 -2.0521  3.3297 -0.3319
48578SOL    HW252785   7.755   3.281   2.177 -0.2209 -0.6542  0.0985
48579SOL     OW52786   4.942   5.624   8.133  0.1998 -0.2364  1.0576
48579SOL    HW152787   4.968   5.605   8.223  0.3264 -2.7409  0.5672
48579SOL    HW252788   5.023   5.614   8.082 -0.1519 -0.2384  0.4898
48580SOL     OW52789  10.696   2.162   7.384 -0.2250  0.5900  0.1264
48580SOL    HW152790  10.694   2.130   7.474  1.3823  1.0579  0.3601
48580SOL    HW252791  10.784   2.139   7.353 -0.2574  1.7016 -0.8414
48581SOL     OW52792   2.463   7.662   6.980 -0.2011 -0.4143 -0.4463
48581SOL    HW152793   2.538   7.698   6.933 -0.5071 -0.3655 -0.8997
48581SOL    HW252794   2.457   7.571   6.950 -0.5362 -0.3175 -0.6766
48582SOL     OW52795  10.397   8.070  12.003 -0.4355  0.2076  0.3039
48582SOL    HW152796  10.373   8.110  11.919 -1.2878  0.0580  0.4698
48582SOL    HW252797  10.314   8.051  12.045 -0.0116  0.5459  1.3170
48583SOL     OW52798  10.838   6.313  10.550  0.2000  0.2463 -0.1581
48583SOL    HW152799  10.814   6.238  10.497  0.8715 -0.0954  0.0119
48583SOL    HW252800  10.918   6.347  10.510 -0.6223  1.4814 -0.8245
48584SOL     OW52801   1.527   3.747   9.998 -0.5354 -0.1194 -0.0838
48584SOL    HW152802   1.507   3.749  10.092  0.4594 -1.6502  0.2101
48584SOL    HW252803   1.622   3.755   9.994 -0.5803  0.0443 -0.9819
48585SOL     OW52804   8.932  11.221  10.372 -0.4122 -0.4670  0.3008
48585SOL    HW152805   8.887  11.250  10.293 -1.6816 -2.3749  0.2443
48585SOL    HW252806   8.947  11.127  10.357  3.5273 -0.0171  0.3818
48586SOL     OW52807   8.964   0.785  11.449  0.0555 -0.3665  0.0964
48586SOL    HW152808   8.875   0.758  11.424 -1.3644  4.7955 -1.7356
48586SOL    HW252809   9.013   0.786  11.367  0.2276  1.4759  0.1768
48587SOL     OW52810   1.110  10.955   4.145 -0.1008  0.1985  0.5846
48587SOL    HW152811   1.020  10.922   4.153  0.2880 -1.8472 -1.9004
48587SOL    HW252812   1.154  10.924   4.224 -0.9151 -1.3337  0.4745
48588SOL     OW52813  12.482   0.332   9.706 -0.0240 -0.2196  0.2437
48588SOL    HW152814  12.496   0.268   9.776  0.0896 -0.5183 -0.0462
48588SOL    HW252815  12.569   0.342   9.666 -0.0850 -0.0395  0.1543
48589SOL     OW52816   8.530   0.074   5.678  0.6098  0.1822  0.3952
48589SOL    HW152817   8.538  -0.020   5.662 -1.7080  0.3333 -2.5483
48589SOL    HW252818   8.475   0.080   5.757 -0.0379 -0.9593  0.0515
48590SOL     OW52819   7.923   1.905   6.001 -0.0254  0.1238 -0.2960
48590SOL    HW152820   7.833   1.921   6.029  0.0469 -0.7491  0.4928
48590SOL    HW252821   7.918   1.894   5.906 -0.3313  2.8923 -0.6898
48591SOL     OW52822   8.154   7.720   2.832 -0.0242  0.1149 -0.2930
48591SOL    HW152823   8.073   7.676   2.857  0.1000 -0.4385 -0.8477
48591SOL    HW252824   8.158   7.797   2.889 -0.7477 -0.0545 -0.0039
48592SOL     OW52825   0.941   9.244   3.455  0.1681  0.3399 -0.2360
48592SOL    HW152826   0.904   9.160   3.428 -1.1552  0.4396  1.1277
48592SOL    HW252827   0.934   9.300   3.378  0.7616 -0.6754 -1.0582
48593SOL     OW52828   0.724   3.468  10.399  0.5426 -0.0875 -0.5692
48593SOL    HW152829   0.784   3.542  10.401  1.2754 -0.6016 -1.7698
48593SOL    HW252830   0.779   3.394  10.373 -0.1871 -1.0371  0.5161
48594SOL     OW52831   3.055   5.287   1.232  0.0634 -0.4780  0.1170
48594SOL    HW152832   3.094   5.369   1.203 -0.9124  0.6268  1.7966
48594SOL    HW252833   3.129   5.236   1.266  0.5239  0.1115  0.0113
48595SOL     OW52834   3.164   4.038   6.601  0.0670 -0.2498 -0.3513
48595SOL    HW152835   3.196   4.060   6.514 -0.1696 -2.9985 -1.2188
48595SOL    HW252836   3.225   3.972   6.634  0.0213  0.5565  1.5115
48596SOL     OW52837   5.037   8.675  10.158  0.1598  0.1062 -0.1145
48596SOL    HW152838   5.112   8.721  10.197 -1.0357 -0.5995  3.3628
48596SOL    HW252839   5.065   8.583  10.155  0.7881  0.3050 -2.5809
48597SOL     OW52840   9.992   7.140  10.260 -0.2372 -0.4670  0.8139
48597SOL    HW152841   9.938   7.219  10.272  1.7118  0.9994  0.4353
48597SOL    HW252842   9.969   7.108  10.173 -0.9867 -0.2742  0.9350
48598SOL     OW52843   0.208   3.050   6.282 -0.2380 -0.2651  0.3383
48598SOL    HW152844   0.123   3.079   6.248 -0.2910  0.1475  0.8272
48598SOL    HW252845   0.187   2.974   6.336 -0.0002 -1.9412 -1.7515
48599SOL     OW52846   7.843  11.734   3.839  0.1631 -0.1516  0.5512
48599SOL    HW152847   7.858  11.737   3.744 -1.7361  0.3269  0.2332
48599SOL    HW252848   7.772  11.672   3.850 -1.0050  1.2777  1.4333
48600SOL     OW52849   6.629  11.409   8.061 -0.5021 -0.2627 -0.1824
48600SOL    HW152850   6.720  11.416   8.089 -0.7397  0.8044  0.3897
48600SOL    HW252851   6.622  11.468   7.986 -0.7359 -0.2688 -0.1679
48601SOL     OW52852   2.817   9.152  10.133  0.1668  0.2080  0.1072
48601SOL    HW152853   2.742   9.093  10.124  0.8289 -0.5009 -1.1080
48601SOL    HW252854   2.856   9.128  10.217  0.2605 -0.9150 -0.2336
48602SOL     OW52855   0.687   8.261  10.968 -0.6184  0.2889  0.1921
48602SOL    HW152856   0.743   8.336  10.990  0.2104 -0.2536 -0.0422
48602SOL    HW252857   0.675   8.266  10.873 -0.7999  0.2835  0.2136
48603SOL     OW52858   2.206   7.047  10.855  0.0044 -0.2550  0.5637
48603SOL    HW152859   2.245   7.118  10.907  0.4167 -0.2886  0.3064
48603SOL    HW252860   2.172   7.091  10.778  2.0767 -0.5617 -0.6044
48604SOL     OW52861   4.010   7.860  11.437  0.0203 -0.6764 -0.5397
48604SOL    HW152862   4.054   7.779  11.462  1.5583  0.5096  0.7713
48604SOL    HW252863   4.078   7.927  11.441 -1.8082  1.2340  1.4499
48605SOL     OW52864   6.068   7.165  10.600 -0.2589  0.3294  0.6050
48605SOL    HW152865   6.139   7.180  10.538  0.5629 -1.2128  1.1324
48605SOL    HW252866   6.059   7.070  10.605 -3.4939  0.4553 -0.6674
48606SOL     OW52867   1.247   3.837   5.735 -0.4586  0.0201  0.8554
48606SOL    HW152868   1.214   3.913   5.687  1.1551  0.6983  0.7466
48606SOL    HW252869   1.326   3.811   5.688  1.5315  1.0579  3.3373
48607SOL     OW52870   5.341  11.247   1.090 -0.2727 -0.5174 -0.0615
48607SOL    HW152871   5.280  11.308   1.048 -0.8047 -1.3781 -0.5516
48607SOL    HW252872   5.420  11.251   1.036  0.7133  1.7155  1.4002
48608SOL     OW52873   0.939  10.698   7.774  0.1640  0.1958  0.2886
48608SOL    HW152874   0.924  10.769   7.837  2.5726  0.3928  0.7482
48608SOL    HW252875   1.012  10.648   7.812 -0.9958 -2.1382 -0.3798
48609SOL     OW52876   2.514   1.345  11.608 -0.0787 -0.4250  0.4229
48609SOL    HW152877   2.476   1.257  11.606  1.2757 -1.0591 -1.7193
48609SOL    HW252878   2.587   1.338  11.670 -0.0203 -0.8097  0.3150
48610SOL     OW52879   1.129   5.458   3.963  0.0317 -0.4583 -0.1835
48610SOL    HW152880   1.182   5.424   4.035 -1.2471 -0.5192  0.7627
48610SOL    HW252881   1.094   5.541   3.997 -1.4289 -0.9956 -0.3268
48611SOL     OW52882   7.352   7.594   4.683 -0.2069 -0.0525  0.2449
48611SOL    HW152883   7.385   7.545   4.607 -0.9386  0.7074 -0.5952
48611SOL    HW252884   7.257   7.591   4.674 -0.2800  0.8201  0.6295
48612SOL     OW52885   2.227   2.295   5.873 -0.5504 -0.3061 -0.4802
48612SOL    HW152886   2.183   2.266   5.793 -1.2832 -0.3787 -0.0560
48612SOL    HW252887   2.205   2.229   5.938  0.6346 -0.6280 -0.3890
48613SOL     OW52888   1.828   8.596   3.110 -0.5172  0.4270 -0.2165
48613SOL    HW152889   1.751   8.568   3.061  0.7103  1.0743 -2.6470
48613SOL    HW252890   1.854   8.678   3.069  2.6936 -0.8242 -0.9807
48614SOL     OW52891  11.983  11.368   5.149  0.2150 -0.0085  0.6557
48614SOL    HW152892  12.021  11.282   5.134  1.2983  0.7418 -1.1894
48614SOL    HW252893  12.023  11.424   5.083 -0.5846  1.8900  1.7064
48615SOL     OW52894   8.256  10.307  12.273 -0.0801  0.3059  0.2737
48615SOL    HW152895   8.233  10.399  12.261  0.8787  0.4167 -0.9340
48615SOL    HW252896   8.343  10.298  12.233 -0.6170 -1.3543 -0.6273
48616SOL     OW52897   0.532   5.716   7.836  0.0767  0.4879 -0.1170
48616SOL    HW152898   0.473   5.688   7.907 -0.0440 -0.8402 -0.7072
48616SOL    HW252899   0.608   5.752   7.882  1.2472 -2.8321  0.8873
48617SOL     OW52900   1.408   5.550   3.941 -0.0674  0.4368 -0.3194
48617SOL    HW152901   1.498   5.526   3.921  0.0226 -0.8544  1.4655
48617SOL    HW252902   1.391   5.626   3.885  2.4422  1.3654  0.0535
48618SOL     OW52903   4.413   2.330   8.731 -0.3369 -0.6172  0.6737
48618SOL    HW152904   4.336   2.387   8.725  1.2564  1.6151 -0.0366
48618SOL    HW252905   4.474   2.378   8.786  1.5691 -0.9989 -0.9863
48619SOL     OW52906   8.532   9.563   5.833  0.0652  0.5795  0.0274
48619SOL    HW152907   8.523   9.622   5.909  0.7088  0.5894  0.0985
48619SOL    HW252908   8.626   9.557   5.819 -0.0270  0.0424 -0.3596
48620SOL     OW52909  11.528   2.791  12.482 -0.4247  0.7448  0.0431
48620SOL    HW152910  11.582   2.720  12.516  2.1386  2.8173  0.6967
48620SOL    HW252911  11.481   2.825  12.558 -0.4259  0.7370  0.0455
48621SOL     OW52912   2.232   8.574   0.646  0.1208  0.2750 -0.7949
48621SOL    HW152913   2.204   8.553   0.557 -0.5398 -2.9603  0.0567
48621SOL    HW252914   2.316   8.530   0.656 -0.2723 -0.2292  0.4793
48622SOL     OW52915   8.578   0.047  11.497 -0.6079 -0.0717  0.2648
48622SOL    HW152916   8.565   0.014  11.585  0.7301 -1.3218  0.0410
48622SOL    HW252917   8.624   0.130  11.509  1.9276 -1.4158  0.7904
48623SOL     OW52918  10.032  10.322   1.992  0.1040  0.0460 -0.4845
48623SOL    HW152919   9.939  10.296   1.988  0.0425 -0.4781  2.2442
48623SOL    HW252920  10.079  10.239   2.004  0.8106  0.4334 -0.5448
48624SOL     OW52921   6.841  12.014   7.824  0.0323  0.0947  0.0065
48624SOL    HW152922   6.934  12.018   7.802 -0.3245  0.5664 -1.5308
48624SOL    HW252923   6.835  11.945   7.890  1.8326  1.9092  2.2635
48625SOL     OW52924   5.235   9.835   3.069 -0.4142 -0.1026 -0.2384
48625SOL    HW152925   5.188   9.860   3.149  0.2062  0.4446 -0.0354
48625SOL    HW252926   5.316   9.886   3.072  0.9057 -2.1346  0.1589
48626SOL     OW52927   2.660   8.146   0.853  0.9189 -0.0318 -0.6061
48626SOL    HW152928   2.613   8.067   0.881  1.4544  0.6302  2.5593
48626SOL    HW252929   2.599   8.217   0.870  1.5094  0.4774 -0.5953
48627SOL     OW52930   6.438   3.839  10.312  0.0590  0.4418 -0.2785
48627SOL    HW152931   6.527   3.831  10.346 -0.2957  0.1923  0.6052
48627SOL    HW252932   6.403   3.918  10.352 -1.1155 -1.0135  1.7604
48628SOL     OW52933   3.574   3.875   5.254 -0.6729  0.5583 -0.6976
48628SOL    HW152934   3.552   3.935   5.325 -1.0704 -0.8330  0.3787
48628SOL    HW252935   3.556   3.926   5.174 -1.7555  1.5936  0.1714
48629SOL     OW52936   0.567  12.009   6.486 -0.2867  0.2253  0.0167
48629SOL    HW152937   0.591  12.084   6.541 -0.0141 -0.4657  0.8612
48629SOL    HW252938   0.650  11.969   6.461 -0.4618 -0.4709  0.5336
48630SOL     OW52939   9.054   1.857   1.864 -0.5546 -0.2426 -0.3130
48630SOL    HW152940   8.968   1.840   1.901 -0.3853  1.3899  0.9571
48630SOL    HW252941   9.105   1.778   1.885 -0.9642 -0.0786  1.5144
48631SOL     OW52942   2.763   5.247   0.355 -0.5075 -0.0253 -0.2050
48631SOL    HW152943   2.811   5.293   0.423 -3.2442  0.8718  1.2534
48631SOL    HW252944   2.754   5.310   0.284  1.2733 -0.5498 -0.9427
48632SOL     OW52945   6.486   7.079   3.394 -0.0072 -0.2498  0.1257
48632SOL    HW152946   6.512   6.987   3.387 -0.1392 -0.2605 -0.3073
48632SOL    HW252947   6.394   7.075   3.420  0.4278 -0.2121  1.7204
48633SOL     OW52948   0.779  12.376   3.562  0.0395 -0.2204  0.2742
48633SOL    HW152949   0.802  12.379   3.469  0.3103 -0.3121  0.3379
48633SOL    HW252950   0.688  12.346   3.563 -0.2929  0.7361 -0.0074
48634SOL     OW52951   6.227   6.818   3.974 -0.8014 -0.1132  0.1776
48634SOL    HW152952   6.251   6.910   3.982  1.3612 -0.7569  1.6976
48634SOL    HW252953   6.273   6.788   3.895  0.0213 -0.3206  0.7263
48635SOL     OW52954   3.792   6.228   2.446  0.2670 -0.3752  0.2056
48635SOL    HW152955   3.842   6.304   2.415  0.2645 -0.7483 -0.7708
48635SOL    HW252956   3.851   6.184   2.507  1.4587 -1.1774 -1.4317
48636SOL     OW52957  10.930   7.389   2.502  0.3401  0.2590 -0.1522
48636SOL    HW152958  10.894   7.303   2.477 -0.8281  0.5013  0.6121
48636SOL    HW252959  10.910   7.445   2.428  1.3136 -0.1666 -0.7556
48637SOL     OW52960   2.138  11.055   2.566 -0.2703  0.7039 -0.0565
48637SOL    HW152961   2.043  11.049   2.560 -0.1143 -0.5839 -1.7128
48637SOL    HW252962   2.156  11.054   2.661 -1.7570 -2.1920  0.3086
48638SOL     OW52963   5.448  10.073   2.782  0.0339  0.3320  0.5659
48638SOL    HW152964   5.502  10.022   2.722 -1.9034 -0.2101 -0.8182
48638SOL    HW252965   5.457  10.164   2.753  0.5541  0.3030  0.6412
48639SOL     OW52966   8.581   0.821   0.962 -0.2344  0.4109  0.3638
48639SOL    HW152967   8.504   0.849   0.911 -0.2564  1.3578  0.8930
48639SOL    HW252968   8.544   0.775   1.037 -0.2000 -1.0667 -0.4681
48640SOL     OW52969   7.864   0.104   2.740  0.3126  0.3673  0.1956
48640SOL    HW152970   7.838   0.096   2.649  2.5754 -1.1044 -0.4041
48640SOL    HW252971   7.835   0.022   2.781  3.9088 -1.5076 -0.5835
48641SOL     OW52972   2.353   0.260  12.224 -0.1533  0.3768  0.5832
48641SOL    HW152973   2.294   0.322  12.179 -0.0745  0.6286  0.8277
48641SOL    HW252974   2.439   0.302  12.219 -0.3567  1.0093  2.0822
48642SOL     OW52975   7.174  10.053   4.405  0.4559 -0.0606  0.1122
48642SOL    HW152976   7.200  10.123   4.464  0.1507  0.6761 -0.6162
48642SOL    HW252977   7.168   9.975   4.461  0.3545  0.5811  1.0064
48643SOL     OW52978   0.622   3.196   6.337  0.1228  0.2527 -0.3508
48643SOL    HW152979   0.689   3.193   6.405 -1.0257 -0.7058  0.7912
48643SOL    HW252980   0.601   3.288   6.327  1.6534  0.5824 -0.8088
48644SOL     OW52981   4.417  10.177   1.774  0.0200  0.5636  0.1687
48644SOL    HW152982   4.440  10.099   1.824  2.5712  0.4785 -0.9767
48644SOL    HW252983   4.472  10.173   1.696 -2.4264  1.6563 -1.7819
48645SOL     OW52984  12.362   2.862   3.018  0.1502 -0.2615 -0.0013
48645SOL    HW152985  12.324   2.943   2.986  1.7189  0.2472 -0.6773
48645SOL    HW252986  12.393   2.883   3.106 -1.4998 -0.8123  0.7409
48646SOL     OW52987   3.663   0.191  10.807 -0.0332  0.2749  0.4831
48646SOL    HW152988   3.596   0.157  10.867 -0.4936  0.3746  0.0385
48646SOL    HW252989   3.725   0.236  10.863 -0.1914 -0.0641  0.9336
48647SOL     OW52990   9.888  11.473   8.158 -0.2735 -0.1015  0.2066
48647SOL    HW152991   9.916  11.534   8.226 -1.7533  1.1203 -0.2255
48647SOL    HW252992   9.804  11.438   8.190 -0.1155 -0.8634 -0.1883
48648SOL     OW52993  11.981   4.176  10.513  0.3589 -0.2728  0.4664
48648SOL    HW152994  12.040   4.150  10.442  0.4983  2.0311 -0.3479
48648SOL    HW252995  12.024   4.250  10.555  0.1705 -1.4488  2.9026
48649SOL     OW52996   9.378   5.543   3.751 -0.2255 -0.3236  0.4559
48649SOL    HW152997   9.349   5.453   3.759  0.9055 -0.7495 -0.0171
48649SOL    HW252998   9.385   5.558   3.656  1.2603 -0.3202  0.5395
48650SOL     OW52999   0.116   7.064   0.039  0.2572  0.8335  0.2576
48650SOL    HW153000   0.118   6.979  -0.004 -0.5983  0.3349  1.1529
48650SOL    HW253001   0.118   7.128  -0.032 -0.2986  0.0420 -0.4797
48651SOL     OW53002  10.547   7.361   5.818  0.1222  0.2831 -0.4444
48651SOL    HW153003  10.621   7.342   5.760 -0.5660  0.8926 -1.5521
48651SOL    HW253004  10.510   7.442   5.784 -1.2662 -0.1865 -0.1070
48652SOL     OW53005  10.989   2.132   1.215  0.0866 -0.3597  0.0009
48652SOL    HW153006  11.039   2.080   1.278 -0.3977 -0.1152  0.6051
48652SOL    HW253007  11.054   2.191   1.175  0.1650  0.5087  1.3477
48653SOL     OW53008   2.744   5.099   1.740  0.4496 -0.1010 -0.5127
48653SOL    HW153009   2.673   5.044   1.707  0.8715 -1.0106  0.0614
48653SOL    HW253010   2.701   5.158   1.802  0.3756 -1.6180  0.9496
48654SOL     OW53011  10.104   1.764   9.720  0.2193 -0.0170 -0.2274
48654SOL    HW153012  10.080   1.736   9.631 -3.3299  0.8540  0.3161
48654SOL    HW253013  10.083   1.857   9.722  1.9056  0.3773  1.0806
48655SOL     OW53014   6.535   3.972   6.210  0.5545  0.1486 -0.6290
48655SOL    HW153015   6.588   4.028   6.267 -0.3419  0.4388 -0.0602
48655SOL    HW253016   6.598   3.914   6.169  1.1694 -0.6647  1.3273
48656SOL     OW53017   6.345   6.038  12.314  0.1802  0.2988  0.0074
48656SOL    HW153018   6.312   5.984  12.386  0.6337  1.8943  1.5027
48656SOL    HW253019   6.432   6.067  12.344  1.3967 -0.7912 -2.1907
48657SOL     OW53020  11.858   0.144   4.844  0.1900 -0.3849 -0.2668
48657SOL    HW153021  11.921   0.078   4.873  0.5096 -0.5585 -1.3222
48657SOL    HW253022  11.777   0.095   4.831 -0.5731  0.0466  2.3154
48658SOL     OW53023   0.403   1.583   4.464 -0.0059  0.1051  0.2240
48658SOL    HW153024   0.437   1.644   4.529 -0.1858 -0.5575  0.9492
48658SOL    HW253025   0.481   1.555   4.415  0.0211  1.2333 -0.4029
48659SOL     OW53026   3.410   2.900   7.984  0.1988  0.3618 -0.0528
48659SOL    HW153027   3.461   2.827   7.951 -2.8691 -2.4104  0.8158
48659SOL    HW253028   3.354   2.926   7.911 -1.2699 -0.6927  0.6505
48660SOL     OW53029  11.437   3.978  12.536  0.3104  0.0119  0.1650
48660SOL    HW153030  11.440   3.884  12.553 -0.3810 -0.4565 -2.0981
48660SOL    HW253031  11.529   4.005  12.533  0.5064 -0.3110  1.9689
48661SOL     OW53032   0.514  11.341   8.702  0.3682  0.1021  1.1565
48661SOL    HW153033   0.459  11.335   8.625  2.2482 -1.1868 -0.1585
48661SOL    HW253034   0.456  11.318   8.775 -1.0819 -0.0960 -0.0134
48662SOL     OW53035   2.674   2.182   7.674 -0.1123  0.2395 -0.0539
48662SOL    HW153036   2.764   2.191   7.705 -0.4845  0.1529  1.0764
48662SOL    HW253037   2.666   2.090   7.649 -0.5423 -0.3527  2.0594
48663SOL     OW53038   2.449   3.560  12.276  0.4023 -0.0579 -0.1366
48663SOL    HW153039   2.529   3.508  12.281 -0.7220 -2.0045 -1.1392
48663SOL    HW253040   2.392   3.510  12.217 -1.1864  1.7719 -0.2446
48664SOL     OW53041   7.828   2.034   1.177  0.2310  0.4655  1.0464
48664SOL    HW153042   7.789   2.112   1.218 -1.4111  0.2341  0.0321
48664SOL    HW253043   7.789   1.960   1.224  0.8243  0.2382  1.1841
48665SOL     OW53044   2.057   5.165  10.852  0.3586  0.2525  0.5322
48665SOL    HW153045   1.973   5.159  10.899 -0.1932 -1.2822 -0.5732
48665SOL    HW253046   2.099   5.081  10.867  1.5813  0.8857  0.7870
48666SOL     OW53047  10.221   8.521   0.791  0.0364  0.2551  0.3398
48666SOL    HW153048  10.280   8.595   0.775  0.3520  0.6756  2.9684
48666SOL    HW253049  10.256   8.479   0.870 -1.0603 -1.7560 -0.1865
48667SOL     OW53050  10.423   0.655   5.381 -0.0417  0.0954  0.4368
48667SOL    HW153051  10.421   0.609   5.297 -0.3349 -0.5962  0.8214
48667SOL    HW253052  10.497   0.715   5.372 -0.0105 -0.0322 -0.2847
48668SOL     OW53053   4.669   8.776   2.588  0.1645  0.1290  1.0283
48668SOL    HW153054   4.756   8.767   2.550 -1.2661 -3.6071 -1.9890
48668SOL    HW253055   4.615   8.810   2.517 -1.2882  0.0603  2.0562
48669SOL     OW53056   0.950   3.294  11.760 -0.7513  0.3759 -0.6897
48669SOL    HW153057   1.038   3.276  11.726 -1.0268  0.7216 -1.6420
48669SOL    HW253058   0.959   3.289  11.855  0.0860 -0.5283 -0.8002
48670SOL     OW53059  12.027   7.861   4.799 -0.1472  0.0037 -0.0024
48670SOL    HW153060  11.947   7.901   4.831  0.8116  0.3512  2.1244
48670SOL    HW253061  12.000   7.811   4.723 -2.0943  1.3617 -0.2723
48671SOL     OW53062   1.804   4.726   3.835  0.0448  0.0218  0.2611
48671SOL    HW153063   1.856   4.671   3.776 -0.4067  0.9687 -1.0490
48671SOL    HW253064   1.747   4.664   3.880  1.4586 -0.9001  0.8940
48672SOL     OW53065   8.782   9.480   2.466 -0.5250  0.2831 -0.2354
48672SOL    HW153066   8.797   9.465   2.372 -1.2191  2.7166 -0.8249
48672SOL    HW253067   8.832   9.560   2.485  0.5168 -0.7843  1.7912
48673SOL     OW53068  10.816   5.828  11.283  0.2492  0.3433 -0.1840
48673SOL    HW153069  10.864   5.804  11.204 -1.1627  0.2572 -1.0571
48673SOL    HW253070  10.765   5.750  11.304 -2.0200  1.4359 -1.2533
48674SOL     OW53071  11.539   0.160   9.257 -0.4457  0.3644  0.2520
48674SOL    HW153072  11.527   0.196   9.170  3.5014 -1.1935 -1.1527
48674SOL    HW253073  11.620   0.201   9.289  0.3869 -1.9973  1.4257
48675SOL     OW53074  10.992   3.437   5.920 -0.2735 -0.2215 -0.0068
48675SOL    HW153075  10.911   3.482   5.941  0.8290  2.0017 -0.1786
48675SOL    HW253076  11.016   3.391   6.000 -1.3428 -0.3467  0.2516
48676SOL     OW53077   7.426  10.738  10.155  0.0989 -0.1015  0.2967
48676SOL    HW153078   7.482  10.746  10.232 -0.5602 -0.0244  0.7838
48676SOL    HW253079   7.341  10.772  10.184 -1.1877 -3.2525  0.6397
48677SOL     OW53080   6.931  11.651   7.371 -0.4374  0.6143  0.8424
48677SOL    HW153081   6.916  11.558   7.385 -1.8251  0.7498  0.3813
48677SOL    HW253082   6.944  11.660   7.276 -0.8338  0.9627  0.8201
48678SOL     OW53083   1.248  11.293   8.348 -0.1591 -0.1546 -0.5439
48678SOL    HW153084   1.297  11.258   8.273 -0.2116  1.0353 -1.1539
48678SOL    HW253085   1.304  11.277   8.423 -0.0723 -1.3071 -0.8332
48679SOL     OW53086   1.038   7.602   8.136  0.0444 -0.4563  0.3733
48679SOL    HW153087   1.023   7.521   8.088 -0.7250 -0.6694  0.9561
48679SOL    HW253088   0.969   7.661   8.106 -0.4120 -0.5740  1.1598
48680SOL     OW53089  10.748   8.546   7.187  0.2059  0.2358  0.2348
48680SOL    HW153090  10.758   8.633   7.149 -0.5823  0.8390  1.3413
48680SOL    HW253091  10.838   8.513   7.198  0.5215  1.0523  0.1270
48681SOL     OW53092  10.540  11.722   5.250  0.7047  0.6317  0.2469
48681SOL    HW153093  10.584  11.639   5.231  1.6401  1.2503 -0.3526
48681SOL    HW253094  10.545  11.772   5.168  1.0582  1.6778  0.8828
48682SOL     OW53095  10.374   4.865   4.804  0.1262 -0.0580 -0.2448
48682SOL    HW153096  10.291   4.880   4.850 -0.2545  0.0259 -0.9527
48682SOL    HW253097  10.348   4.837   4.716  0.8528  0.2094 -0.5477
48683SOL     OW53098   8.458   0.245   1.589  0.3012  1.0029 -0.2979
48683SOL    HW153099   8.510   0.319   1.620 -1.5389  2.2939 -0.1633
48683SOL    HW253100   8.406   0.217   1.665  1.7623 -1.2156 -0.0189
48684SOL     OW53101   2.991  10.972   8.702 -0.0211  0.2520 -0.0740
48684SOL    HW153102   2.992  11.004   8.792 -1.1353 -0.8201  0.3446
48684SOL    HW253103   3.073  10.924   8.693  0.1648  0.4934  0.3054
48685SOL     OW53104   4.717   6.238   1.298 -0.1290  0.1286 -0.0763
48685SOL    HW153105   4.807   6.209   1.284 -0.1027  0.2203 -0.0983
48685SOL    HW253106   4.720   6.333   1.287 -0.3914  0.0445 -0.9210
48686SOL     OW53107   6.925   9.428   8.671 -0.2944  0.1854  0.0482
48686SOL    HW153108   6.945   9.465   8.757 -0.9724 -4.1690  2.3318
48686SOL    HW253109   7.002   9.376   8.649 -1.1144 -0.6980 -0.8022
48687SOL     OW53110   9.784   2.414   6.463  0.1588  0.1217 -0.0374
48687SOL    HW153111   9.816   2.409   6.373  0.6644 -1.6920  0.2084
48687SOL    HW253112   9.705   2.468   6.457 -0.5389 -0.9786 -1.8128
48688SOL     OW53113   4.255   8.594   3.930 -0.5494  0.5352  0.0771
48688SOL    HW153114   4.246   8.522   3.868 -1.2395  1.5810 -1.0857
48688SOL    HW253115   4.265   8.672   3.875  0.3221  1.3207  1.2955
48689SOL     OW53116   9.546  11.268  11.833 -0.0694 -0.1283  0.3034
48689SOL    HW153117   9.494  11.337  11.791  0.5698 -0.7751 -1.6316
48689SOL    HW253118   9.622  11.314  11.869  0.1296  0.2693 -0.5879
48690SOL     OW53119   9.119  11.466   0.695  0.6249 -0.6446 -0.1088
48690SOL    HW153120   9.191  11.403   0.693  0.4273 -0.8592 -0.8759
48690SOL    HW253121   9.072  11.451   0.613 -0.0691 -0.2436  0.2064
48691SOL     OW53122   9.287   4.886   4.996  0.0689  0.0476  0.2825
48691SOL    HW153123   9.201   4.846   5.011 -0.1202  0.0993 -0.6305
48691SOL    HW253124   9.300   4.943   5.072 -0.3057 -0.6243  0.8688
48692SOL     OW53125   2.459  12.066  11.027  0.2772  0.3004  0.0533
48692SOL    HW153126   2.498  12.033  10.946 -2.6836  1.1286 -1.8368
48692SOL    HW253127   2.475  11.996  11.091  1.4639 -1.0213 -1.5872
48693SOL     OW53128   7.502  11.558   7.026 -0.1654 -0.0331 -0.7184
48693SOL    HW153129   7.505  11.471   7.066 -1.6805  0.0978 -0.2629
48693SOL    HW253130   7.485  11.617   7.099  0.6049  0.6365 -1.0659
48694SOL     OW53131   2.819   1.593  12.533 -0.4935 -0.0799  0.0518
48694SOL    HW153132   2.728   1.616  12.515 -0.1112  1.3573 -0.1342
48694SOL    HW253133   2.813   1.523  12.599 -1.7138  0.3486  0.4235
48695SOL     OW53134   3.220   5.989   3.764 -0.2840 -0.0041 -0.2390
48695SOL    HW153135   3.309   5.960   3.746 -0.0997  0.1235  0.4456
48695SOL    HW253136   3.230   6.081   3.788 -0.6613  0.1492 -0.6507
48696SOL     OW53137   7.836   9.394   9.710 -0.3564 -0.3341  0.4179
48696SOL    HW153138   7.825   9.440   9.627 -0.8902  0.2156  0.7856
48696SOL    HW253139   7.907   9.441   9.754 -1.0370  0.2856  0.8809
48697SOL     OW53140   2.685   0.685  10.444  0.9141  0.3880  0.2159
48697SOL    HW153141   2.707   0.701  10.536  0.4918 -0.9481  0.5611
48697SOL    HW253142   2.766   0.653  10.405  0.7257 -0.4095  0.4680
48698SOL     OW53143   3.937   6.363   0.877  0.0528 -0.5074 -0.0066
48698SOL    HW153144   3.985   6.281   0.866 -1.5138 -1.2053 -2.5125
48698SOL    HW253145   3.915   6.390   0.788 -0.7102  1.9103  0.8333
48699SOL     OW53146  12.550   2.739  10.568 -0.0794  0.1330  0.2008
48699SOL    HW153147  12.467   2.707  10.533  0.4669 -0.1141 -0.8976
48699SOL    HW253148  12.536   2.833  10.581 -1.0579 -0.1687  1.6205
48700SOL     OW53149   5.714   4.464  11.268  0.2103  0.0198  0.2434
48700SOL    HW153150   5.773   4.474  11.342 -0.1173  1.2114  0.3562
48700SOL    HW253151   5.726   4.543  11.216 -1.9191  0.7789  0.7603
48701SOL     OW53152   5.775   0.851   3.578  0.2514  0.3498 -0.2690
48701SOL    HW153153   5.814   0.909   3.512  0.9763 -0.3782 -0.5130
48701SOL    HW253154   5.803   0.763   3.551  0.8750  0.0614  1.2156
48702SOL     OW53155   0.228   2.533   4.416 -0.2484 -0.0435  0.4376
48702SOL    HW153156   0.282   2.465   4.456  0.2250  1.1316  1.8775
48702SOL    HW253157   0.266   2.615   4.447 -0.9705  0.8915 -1.0415
48703SOL     OW53158   6.903   6.321   8.373 -0.3095 -0.0310  0.0719
48703SOL    HW153159   6.975   6.346   8.314 -0.3125  0.0058  0.0831
48703SOL    HW253160   6.944   6.319   8.460 -0.1949 -0.5638  0.0047
48704SOL     OW53161  11.737   8.894   6.947  0.2774 -0.2056  0.2137
48704SOL    HW153162  11.726   8.975   6.897 -3.0309  0.6665  2.0452
48704SOL    HW253163  11.800   8.916   7.015 -0.2378  0.7251  0.4127
48705SOL     OW53164   4.521   7.903   5.714  0.5034 -0.4117 -0.1037
48705SOL    HW153165   4.500   7.984   5.668 -1.5662 -0.5141  0.5644
48705SOL    HW253166   4.465   7.837   5.673 -0.2900 -0.7968  1.5237
48706SOL     OW53167   2.563   9.801   6.211 -0.2391 -0.2455  0.8991
48706SOL    HW153168   2.523   9.725   6.169 -2.3142  1.4879 -0.4609
48706SOL    HW253169   2.574   9.775   6.303 -1.2043 -2.0408  0.5534
48707SOL     OW53170   6.277   6.373  12.307  0.5297  0.0920 -0.4733
48707SOL    HW153171   6.189   6.379  12.344  0.7215 -1.3466  0.3181
48707SOL    HW253172   6.335   6.395  12.380  0.8353  0.9247 -0.9635
48708SOL     OW53173   0.196   1.379   7.983  0.1302  0.0692  0.0429
48708SOL    HW153174   0.268   1.355   8.042  0.7416  0.7245 -0.4259
48708SOL    HW253175   0.179   1.299   7.933  0.9037  0.0461 -0.2101
48709SOL     OW53176   2.763   7.653  12.139 -0.2128  0.1373 -0.5038
48709SOL    HW153177   2.718   7.733  12.167 -0.2870 -0.2125  0.4357
48709SOL    HW253178   2.815   7.627  12.215 -1.8393 -1.8562  0.0188
48710SOL     OW53179  11.054  11.260   9.572 -0.1880  0.5328  0.1386
48710SOL    HW153180  11.059  11.206   9.651 -2.4695  0.3490  0.2249
48710SOL    HW253181  10.981  11.224   9.522  2.0052 -0.2325 -2.8124
48711SOL     OW53182   1.317   1.948   7.298  0.0296  0.0013 -0.1423
48711SOL    HW153183   1.366   1.866   7.302 -2.5952 -1.6306  1.9414
48711SOL    HW253184   1.253   1.934   7.228  0.4355  0.8466 -0.6993
48712SOL     OW53185   2.502  11.712   1.229 -0.7823 -0.7428  0.0371
48712SOL    HW153186   2.500  11.639   1.290 -0.1389 -0.8950 -0.1166
48712SOL    HW253187   2.411  11.739   1.221 -1.0696 -1.7121 -0.1285
48713SOL     OW53188   2.754   7.150   3.949 -0.6237  0.8828 -0.4248
48713SOL    HW153189   2.786   7.177   4.035  1.1466  1.9101 -1.3590
48713SOL    HW253190   2.775   7.223   3.891  0.0679 -0.6017 -2.1295
48714SOL     OW53191   7.606   5.605  10.734  0.1141 -0.2498 -0.6476
48714SOL    HW153192   7.608   5.657  10.814 -1.2157 -0.9703 -0.1111
48714SOL    HW253193   7.523   5.628  10.692  0.6863 -0.0472 -1.7210
48715SOL     OW53194   5.143   0.980   8.358  0.3350 -0.0687 -0.5274
48715SOL    HW153195   5.097   1.027   8.289  0.1425 -0.0531 -0.3926
48715SOL    HW253196   5.100   1.009   8.439 -1.5283 -2.3492 -0.5732
48716SOL     OW53197  10.240   1.743   6.809 -0.2087  0.7223  0.1633
48716SOL    HW153198  10.312   1.756   6.747 -1.2248  0.6574 -1.0747
48716SOL    HW253199  10.200   1.660   6.783 -2.0382  1.7591 -0.5813
48717SOL     OW53200   8.124   6.164   5.163 -0.4998 -0.1531  0.0848
48717SOL    HW153201   8.055   6.220   5.129 -0.8150 -1.3227 -1.2894
48717SOL    HW253202   8.205   6.202   5.130 -0.7882 -1.1237 -1.8399
48718SOL     OW53203   6.244   4.491   2.479 -0.4525 -0.2473  0.1484
48718SOL    HW153204   6.204   4.408   2.453 -0.1968 -0.2908 -0.1202
48718SOL    HW253205   6.176   4.538   2.526 -0.3376 -0.9652  1.0407
48719SOL     OW53206   7.258   2.051   1.911  0.3387 -1.3223 -0.5830
48719SOL    HW153207   7.243   2.145   1.915  2.3331 -0.9919  0.7552
48719SOL    HW253208   7.196   2.019   1.845 -1.9054  0.5783  0.4501
48720SOL     OW53209   8.534   8.283   6.215  0.3397  0.2896 -0.0201
48720SOL    HW153210   8.478   8.209   6.189  0.5335  0.0243  0.3148
48720SOL    HW253211   8.532   8.281   6.311  1.7375 -0.3439  0.0166
48721SOL     OW53212   5.671   8.568  10.774  0.0698 -0.0373 -0.2891
48721SOL    HW153213   5.724   8.627  10.720 -1.2639  1.6159  0.1179
48721SOL    HW253214   5.594   8.619  10.797 -0.8858 -1.7710  0.5966
48722SOL     OW53215  10.871  12.547   9.707  0.2065 -0.3546  0.1001
48722SOL    HW153216  10.866  12.643   9.709 -1.1742 -0.3842 -0.5705
48722SOL    HW253217  10.898  12.522   9.795 -1.8935  0.5576  1.0764
48723SOL     OW53218  10.786  12.439   6.607  0.3149 -0.8515 -0.0439
48723SOL    HW153219  10.751  12.365   6.656  0.3514 -0.8132  0.0402
48723SOL    HW253220  10.828  12.400   6.531 -0.2591 -0.8728 -0.3562
48724SOL     OW53221  11.118   6.169   8.365  0.0556 -0.5358 -0.6702
48724SOL    HW153222  11.178   6.100   8.394  1.1748  0.9222  0.7360
48724SOL    HW253223  11.174   6.246   8.358 -1.4889  0.6674 -0.2347
48725SOL     OW53224   7.760   4.470  12.154 -0.0387  0.4855  0.0503
48725SOL    HW153225   7.668   4.456  12.172 -0.3606  2.7602  0.5439
48725SOL    HW253226   7.772   4.565  12.162  2.2383  0.3163 -0.4821
48726SOL     OW53227  10.152   8.671   7.032  0.0549  0.6572 -0.1159
48726SOL    HW153228  10.216   8.628   6.974  1.5292  1.4647  0.8438
48726SOL    HW253229  10.153   8.617   7.111 -1.1773  0.1549 -0.4184
48727SOL     OW53230   3.069   7.801   1.500  0.4269  0.4833 -0.1247
48727SOL    HW153231   2.976   7.789   1.517  0.5704 -1.6242 -0.4587
48727SOL    HW253232   3.090   7.732   1.436  2.7493 -1.0054  2.0520
48728SOL     OW53233   9.554   4.568   1.659  0.1668 -0.2058 -0.5153
48728SOL    HW153234   9.588   4.538   1.574 -1.6010 -0.8129 -1.0559
48728SOL    HW253235   9.484   4.506   1.679 -0.9953  1.3050  0.2490
48729SOL     OW53236   7.412  11.478   9.005  0.6609  0.3118  0.3767
48729SOL    HW153237   7.409  11.565   9.046  1.2063  0.4856  0.0538
48729SOL    HW253238   7.323  11.464   8.972 -0.1522 -0.3512  2.6630
48730SOL     OW53239  11.284   8.537   7.452 -0.1217  0.5041  0.9284
48730SOL    HW153240  11.211   8.593   7.424 -0.3757 -0.8631 -1.3673
48730SOL    HW253241  11.361   8.592   7.442 -0.3096  0.3860 -1.7684
48731SOL     OW53242   8.658   4.647   6.611  0.1232 -0.0623  0.3531
48731SOL    HW153243   8.743   4.609   6.632  0.9512  0.7360 -1.3642
48731SOL    HW253244   8.626   4.595   6.537 -1.2908 -0.8572  1.4606
48732SOL     OW53245   7.952   7.785   5.989 -0.4032  0.2699 -0.3185
48732SOL    HW153246   7.943   7.832   6.072 -1.1762  0.8792 -0.7234
48732SOL    HW253247   7.909   7.701   6.005  1.7342 -0.7167  0.6749
48733SOL     OW53248  12.349   9.012  10.500  0.0328  1.0552 -0.2294
48733SOL    HW153249  12.332   8.920  10.522 -1.5124  1.2118 -0.6135
48733SOL    HW253250  12.383   9.049  10.581 -1.0545  0.5295  0.5046
48734SOL     OW53251   9.900  11.949   4.380  0.1830 -0.5506  0.3616
48734SOL    HW153252   9.848  11.871   4.399 -2.6320  0.8256 -1.1598
48734SOL    HW253253   9.916  11.945   4.286  0.7175  0.3189  0.4106
48735SOL     OW53254   1.243   6.544   7.557 -0.0314  0.3328  0.1316
48735SOL    HW153255   1.290   6.566   7.476  1.3627 -1.6819  0.3143
48735SOL    HW253256   1.256   6.450   7.567 -0.3687  0.4890  2.5864
48736SOL     OW53257   4.296   0.909   2.375  0.1031 -0.3512  0.2484
48736SOL    HW153258   4.339   0.962   2.309  0.4424 -0.9524 -0.0237
48736SOL    HW253259   4.321   0.819   2.354 -0.1691 -0.5919  0.9111
48737SOL     OW53260   4.612   1.299   5.085  0.4937 -0.2529  0.3658
48737SOL    HW153261   4.556   1.375   5.067  2.2303  1.1774  0.6635
48737SOL    HW253262   4.581   1.232   5.024  0.2788  1.4208 -1.4760
48738SOL     OW53263   2.700   0.724  10.712  0.7426 -0.2373  0.5377
48738SOL    HW153264   2.755   0.801  10.726 -0.6169  0.6763  1.0826
48738SOL    HW253265   2.612   0.760  10.697  0.2931 -1.6469 -0.3685
48739SOL     OW53266   6.247   6.698   4.223 -0.1381  0.2019 -0.2280
48739SOL    HW153267   6.206   6.734   4.144 -0.9130  0.0142  0.0788
48739SOL    HW253268   6.183   6.713   4.292  1.0151  1.4152  0.6247
48740SOL     OW53269   7.753   4.105   4.414 -0.1820  0.5810 -0.2822
48740SOL    HW153270   7.697   4.097   4.337 -1.0819  0.3874  0.3842
48740SOL    HW253271   7.821   4.039   4.401 -0.2469  0.6413 -0.9686
48741SOL     OW53272  12.294   0.400   8.741  0.1394 -0.2620  0.1482
48741SOL    HW153273  12.357   0.451   8.689 -0.2912  1.2257  1.0278
48741SOL    HW253274  12.327   0.311   8.738  2.8885  0.6262  1.4371
48742SOL     OW53275   8.604   6.846   6.002 -0.3919 -0.4586 -0.0185
48742SOL    HW153276   8.697   6.840   6.025 -0.2126  1.8152  0.1241
48742SOL    HW253277   8.569   6.759   6.021  0.7374 -0.1805  4.5293
48743SOL     OW53278   2.226  10.917   7.385  0.2139 -0.1833  0.0203
48743SOL    HW153279   2.143  10.943   7.345  0.6757  2.4743  0.5942
48743SOL    HW253280   2.214  10.825   7.409 -0.7158 -1.4001 -4.3940
48744SOL     OW53281   9.492   5.920   6.807  0.2347 -0.3954 -0.5303
48744SOL    HW153282   9.565   5.945   6.864 -0.2676  1.0099 -0.4631
48744SOL    HW253283   9.439   5.861   6.861 -0.3944  1.1520  0.5969
48745SOL     OW53284   1.689   7.477   1.752 -0.4470  0.2037 -0.2041
48745SOL    HW153285   1.755   7.438   1.696  0.3021 -0.9984  1.4383
48745SOL    HW253286   1.612   7.421   1.741 -0.4157  0.1777 -0.2942
48746SOL     OW53287  10.491   3.786   1.784  0.4901 -1.0210 -0.1157
48746SOL    HW153288  10.566   3.841   1.759 -0.5099 -0.3305 -1.7466
48746SOL    HW253289  10.449   3.835   1.854 -0.1182  0.1329 -1.2346
48747SOL     OW53290   9.455   7.588   4.597 -0.0894 -0.5528 -0.1868
48747SOL    HW153291   9.400   7.599   4.519  1.0821 -1.6577 -1.2148
48747SOL    HW253292   9.483   7.497   4.594  1.9242  0.0193  0.2111
48748SOL     OW53293  10.754   7.526  11.670  0.2099  0.2653  0.1468
48748SOL    HW153294  10.831   7.476  11.645  1.2079  2.0551 -0.5153
48748SOL    HW253295  10.787   7.596  11.725 -1.0003  0.8053  0.2301
48749SOL     OW53296   0.979   8.978   3.971  0.0987  0.1620 -0.0105
48749SOL    HW153297   0.917   9.046   3.947 -0.0208 -0.5168 -1.7846
48749SOL    HW253298   1.045   8.980   3.901  1.3733  0.0140  1.1495
48750SOL     OW53299  10.607   8.874  11.641 -0.2996 -0.5786 -0.4548
48750SOL    HW153300  10.583   8.883  11.549  0.0960 -2.7554 -0.8151
48750SOL    HW253301  10.643   8.960  11.665 -2.2639  0.6866 -1.7086
48751SOL     OW53302  12.259   3.794   0.153  0.5326 -0.6985 -0.2704
48751SOL    HW153303  12.291   3.818   0.067  0.5564 -0.7103 -0.2647
48751SOL    HW253304  12.282   3.868   0.209  1.2328 -1.0428 -0.1002
48752SOL     OW53305   0.147   5.189   9.654 -0.3863  0.0844  0.2458
48752SOL    HW153306   0.181   5.278   9.650 -0.9142  0.3790  1.7721
48752SOL    HW253307   0.118   5.178   9.745  1.3247 -2.2359  0.6094
48753SOL     OW53308   4.238   9.392   8.030 -0.3207 -0.7198 -0.0079
48753SOL    HW153309   4.205   9.400   8.120 -1.1484 -3.2826 -0.0017
48753SOL    HW253310   4.160   9.400   7.976  0.1458  0.5773 -0.5246
48754SOL     OW53311   6.742   9.189   7.347  0.2897 -0.3580 -0.1467
48754SOL    HW153312   6.807   9.148   7.289  0.5264 -0.5212  0.2287
48754SOL    HW253313   6.764   9.157   7.434 -0.1419 -0.2097  0.0194
48755SOL     OW53314  10.866   5.420   9.142  0.2513  0.1048  0.4868
48755SOL    HW153315  10.906   5.499   9.179  0.4371 -0.4890  1.5968
48755SOL    HW253316  10.851   5.442   9.050 -2.2840  2.4805  1.3188
48756SOL     OW53317   1.144   7.645  11.530 -0.1610  0.1202 -0.3393
48756SOL    HW153318   1.055   7.611  11.533 -0.4508  0.8857  0.4712
48756SOL    HW253319   1.154   7.693  11.612  0.9543  0.1659 -0.4801
48757SOL     OW53320  11.440  10.192   2.370 -0.1495 -0.6155  0.0445
48757SOL    HW153321  11.391  10.208   2.450 -1.5854 -1.9297 -0.5218
48757SOL    HW253322  11.530  10.175   2.399  0.0921  2.0874  1.0883
48758SOL     OW53323  10.597   2.144   9.270 -0.3177  0.0564  0.1420
48758SOL    HW153324  10.574   2.147   9.177  1.0296 -0.1131 -0.2158
48758SOL    HW253325  10.607   2.235   9.295  1.0262  0.0573 -0.3408
48759SOL     OW53326   1.344   4.786   7.054  0.1944  0.3770  0.8805
48759SOL    HW153327   1.359   4.725   6.982  0.6587  1.6103 -0.1107
48759SOL    HW253328   1.272   4.747   7.104 -1.2754  0.2696 -1.1732
48760SOL     OW53329   7.575   9.211   2.766 -0.2006 -0.4482  0.0861
48760SOL    HW153330   7.648   9.151   2.783  0.1584 -0.7770 -2.2056
48760SOL    HW253331   7.614   9.298   2.774  0.2664 -0.6095 -0.3435
48761SOL     OW53332   5.630   3.494   5.185  0.9707 -1.0036 -0.5365
48761SOL    HW153333   5.608   3.572   5.237 -0.0322 -0.2822 -1.9707
48761SOL    HW253334   5.550   3.441   5.186  0.7240 -0.7039 -1.7498
48762SOL     OW53335  11.403  11.040   0.880 -0.2087 -0.2673  1.2482
48762SOL    HW153336  11.390  10.945   0.885  0.6674 -0.6569 -1.9751
48762SOL    HW253337  11.321  11.074   0.844  0.7169 -0.3567 -1.1277
48763SOL     OW53338   7.621   0.931   3.574 -0.0327  0.2345 -0.5901
48763SOL    HW153339   7.582   0.975   3.650 -0.0514  0.0268 -0.4785
48763SOL    HW253340   7.560   0.861   3.553 -0.0104  0.2707 -0.7780
48764SOL     OW53341  11.196   3.287   8.786  0.4472 -0.5342  0.3801
48764SOL    HW153342  11.229   3.290   8.875  0.8324  0.6950  0.2189
48764SOL    HW253343  11.135   3.361   8.781 -1.5895 -2.1383  0.3725
48765SOL     OW53344   1.459  12.235   9.438  0.3942  0.5101 -0.2110
48765SOL    HW153345   1.388  12.211   9.497 -0.9822  0.9449 -1.6185
48765SOL    HW253346   1.426  12.214   9.351  1.3006  2.3341 -1.0611
48766SOL     OW53347   2.544   4.489  10.181 -0.3752  0.4225  0.2466
48766SOL    HW153348   2.488   4.564  10.201 -1.1616 -0.1164  0.1377
48766SOL    HW253349   2.575   4.459  10.266  1.1294  1.7326  0.2019
48767SOL     OW53350   5.639  10.528   8.317 -0.0337 -0.2407 -0.0838
48767SOL    HW153351   5.703  10.544   8.387  0.6220 -3.6170  0.2526
48767SOL    HW253352   5.556  10.517   8.364  0.1841 -1.2827  0.0843
48768SOL     OW53353  12.565   6.041   2.165 -0.1712  0.5785 -0.4695
48768SOL    HW153354  12.642   5.983   2.167 -0.1655  0.5870  0.8704
48768SOL    HW253355  12.601   6.128   2.184 -0.3326  0.8270 -1.2893
48769SOL     OW53356   5.703   9.006   2.717 -0.3178  0.5540 -0.2837
48769SOL    HW153357   5.725   9.048   2.634 -0.6368  0.2088 -0.5483
48769SOL    HW253358   5.607   9.009   2.720 -0.3613 -0.3963 -0.4393
48770SOL     OW53359  10.422   2.968   5.005  0.4846  0.0243 -0.3136
48770SOL    HW153360  10.366   2.919   4.946 -0.4146  0.5200  0.1205
48770SOL    HW253361  10.402   2.932   5.092  1.6879 -0.6010 -0.2644
48771SOL     OW53362   8.735   5.673   0.369 -0.0365 -0.3059  0.1947
48771SOL    HW153363   8.697   5.758   0.347 -2.8852 -1.5449 -0.1932
48771SOL    HW253364   8.733   5.671   0.464 -2.0810 -0.7080  0.1974
48772SOL     OW53365   8.393   1.708  12.181  0.6152  0.7112  0.0787
48772SOL    HW153366   8.435   1.674  12.261  2.1077  0.9892 -0.5548
48772SOL    HW253367   8.380   1.632  12.126  1.8024  0.8144 -0.3758
48773SOL     OW53368  10.770  11.520   7.246  0.0778 -0.5992  0.0653
48773SOL    HW153369  10.841  11.457   7.231  1.8443  1.2997  0.0672
48773SOL    HW253370  10.744  11.548   7.158  1.6189  1.0755  0.0867
48774SOL     OW53371   6.926  11.659   6.619 -0.1690 -0.3879  0.1681
48774SOL    HW153372   6.841  11.615   6.624 -0.8988  0.8246 -0.8089
48774SOL    HW253373   6.980  11.617   6.686 -2.1390  0.0924  2.1610
48775SOL     OW53374   9.760   1.190   5.785  0.1964  0.1747 -0.4617
48775SOL    HW153375   9.717   1.234   5.712  1.8599  0.1447 -1.4992
48775SOL    HW253376   9.696   1.195   5.857 -1.1363  0.9401 -1.6472
48776SOL     OW53377   8.132   8.501  10.012 -0.0970  0.0424 -0.0765
48776SOL    HW153378   8.169   8.450  10.085  0.6121 -0.5919 -0.8587
48776SOL    HW253379   8.103   8.435   9.949  0.6223  0.5846 -1.0067
48777SOL     OW53380   7.099  12.166   0.005  0.2591 -0.2740 -0.0509
48777SOL    HW153381   7.140  12.130  -0.074  2.1639 -0.0389  0.7600
48777SOL    HW253382   7.009  12.134   0.003  1.1149 -2.8440 -0.7607
48778SOL     OW53383   1.696   9.041   9.668  0.5217  0.5488 -0.4345
48778SOL    HW153384   1.613   9.053   9.623 -0.1445  2.0169  1.0837
48778SOL    HW253385   1.683   8.965   9.725  0.5015  0.2814 -0.7953
48779SOL     OW53386   7.279   7.014   2.662  0.4302  0.2705 -0.5920
48779SOL    HW153387   7.229   7.005   2.580 -1.0328 -0.3221  0.3288
48779SOL    HW253388   7.254   6.938   2.713 -0.2687  1.6438  1.2211
48780SOL     OW53389   5.875   4.941   9.032  0.3143  0.1562  0.0869
48780SOL    HW153390   5.896   4.886   8.957 -0.0528 -0.7049  0.5960
48780SOL    HW253391   5.903   4.890   9.108 -2.3235 -0.5039  0.7199
48781SOL     OW53392   7.015   8.068   7.144  0.3404  0.4796  0.1212
48781SOL    HW153393   7.061   8.074   7.060  1.0794 -1.0273  0.3961
48781SOL    HW253394   7.023   7.977   7.170  0.5033  1.0043  2.0668
48782SOL     OW53395   9.092   3.546   9.221 -0.0746  0.3531 -0.6401
48782SOL    HW153396   9.054   3.610   9.281  2.0176  1.0079  0.0565
48782SOL    HW253397   9.017   3.499   9.186 -1.5272  1.7580  0.4521
48783SOL     OW53398   7.997  11.222   8.817  0.8109 -0.0834  0.3613
48783SOL    HW153399   7.948  11.143   8.794 -2.9107  2.4719 -1.3430
48783SOL    HW253400   7.973  11.239   8.908  0.4895 -0.1588  0.2923
48784SOL     OW53401  11.671   6.209  12.335 -0.4187  0.0260 -0.3532
48784SOL    HW153402  11.674   6.123  12.379 -0.7224  0.3139  0.2441
48784SOL    HW253403  11.658   6.271  12.406  0.4337  0.6377 -0.7125
48785SOL     OW53404   9.080   8.935  10.736 -0.2363  0.3385  0.2973
48785SOL    HW153405   9.054   8.925  10.644  0.4347  2.5018 -0.1756
48785SOL    HW253406   9.019   9.000  10.771 -0.3106 -0.2688  1.3500
48786SOL     OW53407   6.500   1.502   4.620 -0.0123  0.5293 -0.0884
48786SOL    HW153408   6.557   1.477   4.692  0.5981  1.4560 -0.2277
48786SOL    HW253409   6.560   1.525   4.549 -0.5924  0.2493 -0.6866
48787SOL     OW53410   9.079   6.416  10.499 -0.4102  0.0853 -0.0175
48787SOL    HW153411   9.061   6.494  10.448  1.8794  0.1644 -0.8353
48787SOL    HW253412   9.157   6.378  10.459  0.4633 -0.8268  2.3293
48788SOL     OW53413   3.330  12.434   9.859 -0.7397  0.1461  0.1921
48788SOL    HW153414   3.372  12.447   9.774 -0.7165  0.4863  0.2542
48788SOL    HW253415   3.236  12.440   9.841 -0.8012 -1.4041 -0.0826
48789SOL     OW53416  11.016   2.936  11.420 -0.5211  0.2826 -0.1713
48789SOL    HW153417  11.026   2.872  11.490  2.3739 -1.3658 -1.8973
48789SOL    HW253418  11.100   2.982  11.417 -0.0023 -0.6204 -3.2873
48790SOL     OW53419   1.359   5.774   3.792  0.5980 -0.2799 -0.1233
48790SOL    HW153420   1.267   5.799   3.787  0.3315 -1.3153 -0.6694
48790SOL    HW253421   1.405   5.855   3.813 -0.5048  0.1145  0.9101
48791SOL     OW53422   9.637   5.673   3.532 -0.2638  0.1826 -0.2624
48791SOL    HW153423   9.625   5.607   3.464  1.4364 -0.3203 -0.1295
48791SOL    HW253424   9.587   5.749   3.502 -1.3149 -0.7674 -0.9832
48792SOL     OW53425   3.746   3.582   7.706 -0.3008  0.0920  0.1641
48792SOL    HW153426   3.694   3.600   7.628  0.7454 -0.2867 -0.6530
48792SOL    HW253427   3.793   3.663   7.723  0.3677 -0.1789 -0.3275
48793SOL     OW53428   0.833   9.575  12.197 -0.0450 -0.2019 -0.1515
48793SOL    HW153429   0.914   9.602  12.155 -0.7752  1.9049 -0.3623
48793SOL    HW253430   0.821   9.639  12.268 -0.9138 -1.1879  0.6169
48794SOL     OW53431   9.171   6.456  12.042 -0.5956 -0.0930 -0.7017
48794SOL    HW153432   9.214   6.377  12.009 -0.1568  0.0809 -0.5609
48794SOL    HW253433   9.177   6.448  12.137 -0.0023  0.3971 -0.6915
48795SOL     OW53434   8.663   7.360   7.592 -0.0706  0.3471 -0.6030
48795SOL    HW153435   8.753   7.352   7.561  1.0179 -0.5809  2.4752
48795SOL    HW253436   8.660   7.445   7.635 -0.9808  0.7521 -1.4097
48796SOL     OW53437   5.499  11.449   6.593 -0.9266  0.0040 -0.1477
48796SOL    HW153438   5.565  11.476   6.529 -0.9980  0.7387  0.0820
48796SOL    HW253439   5.433  11.518   6.591 -1.1771 -0.2113  0.3675
48797SOL     OW53440  12.071   3.672   0.894  0.0962  0.5871 -0.3116
48797SOL    HW153441  12.080   3.671   0.990 -0.5721  0.1271 -0.2510
48797SOL    HW253442  12.049   3.763   0.873  0.3447  0.7124 -0.0419
48798SOL     OW53443   0.999   1.507   4.764 -0.0499 -0.6339 -0.3827
48798SOL    HW153444   0.920   1.502   4.712  0.2670 -1.4293 -0.8042
48798SOL    HW253445   0.968   1.523   4.853 -0.6204  0.1332 -0.7076
48799SOL     OW53446   0.697   7.825   4.884 -0.1361 -0.8459  0.1959
48799SOL    HW153447   0.759   7.794   4.950 -1.6004 -1.4726  1.3148
48799SOL    HW253448   0.735   7.907   4.853  0.2142 -0.1180  2.3845
48800SOL     OW53449  10.030   6.232  11.419 -0.2646 -0.3198  0.6284
48800SOL    HW153450  10.066   6.321  11.413  0.9640 -0.8323 -0.0296
48800SOL    HW253451  10.007   6.222  11.512 -1.7703  1.1646  0.4526
48801SOL     OW53452   8.196  12.122   7.397  0.0752  0.1671 -0.1976
48801SOL    HW153453   8.255  12.048   7.383 -0.1536 -0.2697  1.0178
48801SOL    HW253454   8.219  12.155   7.484  0.0997  1.4646 -0.6726
48802SOL     OW53455   6.117  11.654   1.396  0.4478  0.2272 -0.1913
48802SOL    HW153456   6.116  11.658   1.300  2.0451 -1.1444 -0.3250
48802SOL    HW253457   6.126  11.745   1.424 -0.6295  0.6981 -1.3134
48803SOL     OW53458   4.932  10.715  12.131  0.3445  0.1912  0.0528
48803SOL    HW153459   4.991  10.767  12.185  0.1558 -0.3811  0.8219
48803SOL    HW253460   4.984  10.638  12.106 -0.0866 -0.3452  0.7821
48804SOL     OW53461  11.209   0.141   8.650 -0.7875 -0.7670 -0.1017
48804SOL    HW153462  11.125   0.132   8.606 -1.5549  0.3125  1.0748
48804SOL    HW253463  11.189   0.127   8.743  0.4947 -1.3530  0.1122
48805SOL     OW53464  11.864   2.106   6.749 -0.3538 -0.6951 -0.2160
48805SOL    HW153465  11.920   2.179   6.721  0.0236 -0.5977  0.7545
48805SOL    HW253466  11.881   2.037   6.684 -3.1077  1.0729 -3.0761
48806SOL     OW53467  10.032   6.944   6.554 -0.1847  0.7065 -0.4861
48806SOL    HW153468   9.986   7.019   6.517 -2.0945  0.7618  1.7789
48806SOL    HW253469  10.007   6.943   6.646  0.8425 -1.9396 -0.1329
48807SOL     OW53470   8.553  10.399   5.976 -0.3791 -0.1918  0.2169
48807SOL    HW153471   8.617  10.418   6.045 -1.5925 -0.4210  1.4613
48807SOL    HW253472   8.562  10.471   5.914 -0.4262  0.9681  1.5115
48808SOL     OW53473   7.881   0.555   8.089  0.0017  0.2464 -0.4208
48808SOL    HW153474   7.925   0.474   8.115  1.5542  1.0596 -0.4318
48808SOL    HW253475   7.905   0.618   8.158  1.9536  1.7095 -2.3134
48809SOL     OW53476   7.032   1.771   4.444 -0.2331  0.1488  0.1384
48809SOL    HW153477   6.947   1.779   4.400 -0.4348 -1.7863  0.0647
48809SOL    HW253478   7.095   1.800   4.379 -0.7730  0.6802 -0.1587
48810SOL     OW53479  11.659   1.534   8.891 -0.4028 -0.7946  0.0240
48810SOL    HW153480  11.585   1.488   8.852  0.4770 -0.3571 -2.3197
48810SOL    HW253481  11.714   1.559   8.817  1.6546 -0.3068  1.6069
48811SOL     OW53482   8.447   6.376   6.013 -0.0028  0.1043 -0.4116
48811SOL    HW153483   8.443   6.307   6.079  0.0406  1.2766  0.8619
48811SOL    HW253484   8.482   6.452   6.059  2.7803  0.2350 -2.4567
48812SOL     OW53485   8.870   2.784   7.855  0.3361  0.7324 -0.6471
48812SOL    HW153486   8.937   2.744   7.799 -0.4334  0.5572 -1.4708
48812SOL    HW253487   8.919   2.823   7.927  1.0769 -3.3627  1.3770
48813SOL     OW53488   1.780   2.844   3.763 -0.3023  0.2318 -0.3627
48813SOL    HW153489   1.824   2.852   3.847 -0.2403  3.6748 -0.5711
48813SOL    HW253490   1.827   2.774   3.718  2.3481  1.0304  0.9488
48814SOL     OW53491   1.712   6.694   4.294 -0.2625 -0.2467 -0.0917
48814SOL    HW153492   1.732   6.787   4.301  0.2425 -0.4803  2.1604
48814SOL    HW253493   1.618   6.688   4.309 -0.2903 -0.1238 -0.2110
48815SOL     OW53494  12.015  11.601   8.800  0.7644  0.0315 -0.1638
48815SOL    HW153495  12.039  11.691   8.819  2.6667 -0.5895  0.5794
48815SOL    HW253496  12.097  11.558   8.774 -0.5841 -0.7479 -3.8505
48816SOL     OW53497   7.273   2.347   5.319 -0.1662  0.7588  0.7164
48816SOL    HW153498   7.305   2.259   5.296 -0.9352  0.8068 -0.5873
48816SOL    HW253499   7.218   2.333   5.396 -1.9160 -0.2514 -0.6368
48817SOL     OW53500   3.911   5.661   2.665 -0.2747 -0.3279 -0.1633
48817SOL    HW153501   3.983   5.724   2.670  0.4554 -0.9699 -1.8219
48817SOL    HW253502   3.934   5.593   2.729 -0.2764  0.2944  0.5138
48818SOL     OW53503   2.365  12.519   7.847 -0.2664  0.0633  0.2566
48818SOL    HW153504   2.446  12.528   7.798 -0.4613  0.5844  0.0231
48818SOL    HW253505   2.388  12.548   7.936 -0.0469 -0.3727  0.3434
48819SOL     OW53506   6.281   8.159   8.954  0.2945 -0.6378  0.1973
48819SOL    HW153507   6.279   8.253   8.939  0.0569 -1.0418 -3.0123
48819SOL    HW253508   6.363   8.129   8.915 -0.1424 -1.8956  0.1881
48820SOL     OW53509   0.826   0.010   5.908 -0.7935 -0.4641 -0.2460
48820SOL    HW153510   0.781  -0.073   5.892  0.2692 -1.2949  0.8771
48820SOL    HW253511   0.795   0.038   5.994  0.2389 -0.6572  0.2004
48821SOL     OW53512   7.342   1.635   5.202 -0.0170  0.6315 -0.0042
48821SOL    HW153513   7.319   1.596   5.118  1.2855  0.1007 -0.1457
48821SOL    HW253514   7.378   1.721   5.180 -0.0099  0.6389  0.0346
48822SOL     OW53515   9.337   9.880   0.185  0.2666 -0.4329  0.1703
48822SOL    HW153516   9.401   9.856   0.252  0.2178 -1.2979 -0.0807
48822SOL    HW253517   9.363   9.968   0.157  0.9905 -0.5363  0.4943
48823SOL     OW53518   7.814   0.911   7.597 -0.3632 -0.1955  0.1380
48823SOL    HW153519   7.903   0.885   7.618 -0.5153 -2.7176 -1.8272
48823SOL    HW253520   7.781   0.953   7.677  2.3083  0.2025  1.1216
48824SOL     OW53521   0.903  11.193  10.534  0.0042  0.2372 -0.0739
48824SOL    HW153522   0.857  11.150  10.462  0.8852 -1.1743  0.1771
48824SOL    HW253523   0.991  11.210  10.499  0.3055 -0.0717  0.5183
48825SOL     OW53524   5.356   0.462   0.764  0.3561 -0.4237  0.6293
48825SOL    HW153525   5.328   0.553   0.758  0.3644 -0.3916  1.0549
48825SOL    HW253526   5.423   0.462   0.833  1.8129 -0.3968 -0.7093
48826SOL     OW53527   0.351   5.542   1.506 -0.0197 -0.5613  0.1843
48826SOL    HW153528   0.272   5.488   1.509 -0.4734  0.0914  0.1910
48826SOL    HW253529   0.353   5.587   1.590  0.5545 -0.8344  0.3247
48827SOL     OW53530   7.664   7.668   7.002 -0.0055  0.3869  0.1070
48827SOL    HW153531   7.679   7.676   7.096  1.1122 -2.1155  0.1923
48827SOL    HW253532   7.740   7.709   6.961 -0.2567  1.0344  0.2732
48828SOL     OW53533  10.009   9.793   7.429  0.0514 -0.5706 -0.3001
48828SOL    HW153534   9.987   9.733   7.499  0.3443 -0.7369 -0.3508
48828SOL    HW253535   9.981   9.748   7.349  1.6442 -1.2968 -0.4669
48829SOL     OW53536   0.601   1.093   2.389  0.3277 -0.5138 -0.0580
48829SOL    HW153537   0.618   1.177   2.346 -0.0801 -0.6657 -0.5226
48829SOL    HW253538   0.681   1.042   2.375  0.3576 -0.4078 -0.2741
48830SOL     OW53539   4.569   6.677   6.446  0.1411  0.0745 -0.0183
48830SOL    HW153540   4.482   6.679   6.487 -0.0033 -1.2339 -0.2022
48830SOL    HW253541   4.625   6.727   6.505 -0.8493  1.4988 -0.2194
48831SOL     OW53542   8.884  11.632   2.158 -0.0285  0.4996  0.5232
48831SOL    HW153543   8.934  11.708   2.127 -0.7519  0.7106 -0.1630
48831SOL    HW253544   8.792  11.658   2.149 -0.3061 -0.7005 -0.4049
48832SOL     OW53545  11.719   7.148   6.989  0.0011 -0.2246 -0.0735
48832SOL    HW153546  11.804   7.190   7.002 -1.2105  2.1816  0.7871
48832SOL    HW253547  11.663   7.188   7.056 -2.1578 -0.6497 -1.5370
48833SOL     OW53548   8.891  10.922   3.467 -0.2733  0.3595 -0.2258
48833SOL    HW153549   8.944  10.912   3.546  0.6251  1.4434 -0.6647
48833SOL    HW253550   8.836  10.844   3.465 -1.0763  0.7818  2.0276
48834SOL     OW53551   1.674   6.817   8.575 -0.1148  0.2152  0.3248
48834SOL    HW153552   1.625   6.738   8.598  2.9579 -1.6341  1.1806
48834SOL    HW253553   1.755   6.810   8.624  1.1802  2.8917 -1.1921
48835SOL     OW53554  11.263   0.332   9.292 -0.2889  0.2482  0.5021
48835SOL    HW153555  11.356   0.313   9.306 -0.5222 -1.5930 -0.1245
48835SOL    HW253556  11.237   0.383   9.368  1.2262  0.7568  0.7079
48836SOL     OW53557   2.093   8.618   3.438 -0.0885 -0.2002  0.7723
48836SOL    HW153558   2.154   8.580   3.374  1.6895  3.6498 -0.1640
48836SOL    HW253559   2.147   8.634   3.515 -1.0404 -0.4994  1.5202
48837SOL     OW53560   0.833  11.485   0.503  0.2300 -0.3349 -0.4485
48837SOL    HW153561   0.743  11.456   0.517  0.5314 -0.7213  0.7593
48837SOL    HW253562   0.852  11.461   0.412 -0.5310 -1.2196 -0.3796
48838SOL     OW53563   2.823   7.127   2.216 -0.2158 -0.3075  0.0256
48838SOL    HW153564   2.735   7.164   2.202 -0.6059 -1.5758 -1.0861
48838SOL    HW253565   2.862   7.183   2.284 -2.1576 -0.1833  1.1097
48839SOL     OW53566   6.922   2.738   0.908  0.3053  0.0132 -0.2727
48839SOL    HW153567   6.937   2.809   0.970 -0.6456 -1.7765  2.1370
48839SOL    HW253568   7.007   2.692   0.903  0.5935  0.6007 -0.9258
48840SOL     OW53569  10.970   9.325   6.789  0.3125 -0.2590 -0.1815
48840SOL    HW153570  10.971   9.351   6.881 -0.1181  2.5584 -0.8792
48840SOL    HW253571  11.056   9.349   6.756  0.7496 -1.9867 -0.3876
48841SOL     OW53572  11.318  10.206  12.190 -0.1202 -0.2435  0.0967
48841SOL    HW153573  11.270  10.199  12.108  1.1171  1.7924 -0.8757
48841SOL    HW253574  11.399  10.158  12.174  0.9116  1.6409 -0.5668
48842SOL     OW53575   8.968   9.632   5.508  0.5313  0.1354  0.1341
48842SOL    HW153576   8.921   9.681   5.440 -0.2882  0.7824  1.1319
48842SOL    HW253577   9.057   9.667   5.507  0.0823  1.3282  0.5077
48843SOL     OW53578   2.879   6.437   0.136  0.4820 -0.4962  0.1364
48843SOL    HW153579   2.930   6.370   0.180  1.1571 -0.6863 -0.9037
48843SOL    HW253580   2.800   6.391   0.105  1.2542 -0.9984 -1.1615
48844SOL     OW53581   0.242   8.485   0.302 -0.0693 -0.0875  0.2828
48844SOL    HW153582   0.152   8.515   0.296  0.0717  0.7351  1.8181
48844SOL    HW253583   0.289   8.535   0.235 -0.4183  0.8787  0.7419
48845SOL     OW53584   7.867   3.091   5.350 -0.2311  0.8868  0.4679
48845SOL    HW153585   7.786   3.052   5.383 -0.3468  1.4205  0.8201
48845SOL    HW253586   7.859   3.184   5.369 -0.3786  1.2513 -1.2769
48846SOL     OW53587   7.073   6.115   6.815 -0.2094  0.5059  0.3335
48846SOL    HW153588   7.163   6.123   6.783 -0.2903 -0.3110 -0.1206
48846SOL    HW253589   7.081   6.069   6.898 -0.2917 -0.7062 -0.3039
48847SOL     OW53590  10.298   8.415  12.236  0.5295  0.1741  0.4578
48847SOL    HW153591  10.216   8.365  12.232  1.7815 -2.0639  0.9655
48847SOL    HW253592  10.330   8.414  12.146  0.3784  0.3586  0.4027
48848SOL     OW53593   1.914   9.117   2.262 -0.3161  0.4101 -0.0317
48848SOL    HW153594   1.938   9.054   2.331 -0.0276  0.4820 -0.0640
48848SOL    HW253595   1.991   9.174   2.255 -0.3581  0.4245 -0.3873
48849SOL     OW53596  10.818   2.255   3.163  0.1873  0.4230  0.2821
48849SOL    HW153597  10.758   2.235   3.235 -0.0506  0.2073  0.0272
48849SOL    HW253598  10.837   2.169   3.124 -0.6128  0.6577 -0.6478
48850SOL     OW53599   9.874  10.463   3.042  0.6376  0.2965  0.1578
48850SOL    HW153600   9.908  10.552   3.047  0.4296  0.3732  0.1970
48850SOL    HW253601   9.948  10.408   3.067  0.9600  0.4189 -0.5135
48851SOL     OW53602   4.678   7.679   2.813  0.1748  0.4299 -0.0133
48851SOL    HW153603   4.590   7.642   2.802 -1.0559  2.0112  3.2575
48851SOL    HW253604   4.714   7.681   2.724 -3.0969 -0.2741 -1.5155
48852SOL     OW53605   7.198   2.616   8.026  0.4542 -0.3760 -0.4180
48852SOL    HW153606   7.146   2.669   7.965  0.2980 -0.1643 -0.1038
48852SOL    HW253607   7.152   2.532   8.029 -0.0596 -0.0874  0.0961
48853SOL     OW53608   1.486  11.644   9.249  0.2991 -0.0584 -0.0785
48853SOL    HW153609   1.469  11.565   9.198 -0.8860  0.0072  0.1921
48853SOL    HW253610   1.401  11.689   9.253  0.9230  1.1781 -0.1484
48854SOL     OW53611  10.814  10.916   2.679  0.4953  0.2750  0.2652
48854SOL    HW153612  10.742  10.951   2.732 -0.0191 -0.9473  0.4008
48854SOL    HW253613  10.771  10.857   2.617  1.2153  0.8251 -0.7940
48855SOL     OW53614   2.603   8.258   5.561 -0.1671 -0.5171 -0.1952
48855SOL    HW153615   2.628   8.345   5.592  0.4941 -0.9224  0.4466
48855SOL    HW253616   2.515   8.244   5.595 -0.2009 -0.1815 -0.1423
48856SOL     OW53617  11.981  11.837  11.617  0.4893  0.2647 -0.8956
48856SOL    HW153618  11.987  11.747  11.586 -0.3088  0.2622 -1.0645
48856SOL    HW253619  11.933  11.831  11.700  0.8100  0.4918 -0.6905
48857SOL     OW53620  12.155  11.374  10.998 -0.3739  0.0180  0.5181
48857SOL    HW153621  12.110  11.290  10.989  0.1833 -0.2023 -0.2581
48857SOL    HW253622  12.108  11.433  10.939  1.0491 -0.5184 -1.2505
48858SOL     OW53623   1.882  10.336   8.735  0.1948  0.9325 -0.0493
48858SOL    HW153624   1.791  10.348   8.762  0.2965  0.5406  0.4906
48858SOL    HW253625   1.878  10.323   8.640 -0.3113  0.8885 -0.0226
48859SOL     OW53626   0.184   9.744   3.268 -0.1511 -0.2687  0.0069
48859SOL    HW153627   0.152   9.834   3.277 -0.1173 -0.3957  1.7153
48859SOL    HW253628   0.268   9.744   3.314 -0.5517 -1.3572  0.7697
48860SOL     OW53629   0.749   6.776   6.911  0.2284  0.4099  0.2858
48860SOL    HW153630   0.751   6.782   6.816 -1.9257 -0.4571  0.1309
48860SOL    HW253631   0.732   6.866   6.940  0.0146  0.5277 -0.1947
48861SOL     OW53632  11.130   4.065  11.853  0.6569 -0.5802  0.5148
48861SOL    HW153633  11.158   4.149  11.890 -0.9611 -0.5224  1.6990
48861SOL    HW253634  11.155   4.000  11.919 -0.3644 -0.7189  0.7867
48862SOL     OW53635   5.961   0.161   9.576  0.1793 -0.1583 -0.1262
48862SOL    HW153636   5.966   0.194   9.487  1.1865  1.0769  0.3492
48862SOL    HW253637   5.875   0.188   9.607  0.5961  1.1848 -0.0862
48863SOL     OW53638   8.636   7.854   4.373 -0.3996  0.6613 -0.2772
48863SOL    HW153639   8.636   7.878   4.466 -0.5055  1.5695 -0.5043
48863SOL    HW253640   8.723   7.879   4.342 -0.1040 -0.3017 -0.2700
48864SOL     OW53641   1.337   1.730   6.459  0.9664  0.2469  0.6911
48864SOL    HW153642   1.314   1.761   6.372  3.4617  1.0439  0.2467
48864SOL    HW253643   1.331   1.635   6.454  2.2639  0.2160 -0.7353
48865SOL     OW53644   6.094  12.485   4.969 -0.1609  0.0505  0.6168
48865SOL    HW153645   6.117  12.422   4.901  1.4611  0.7520  0.4685
48865SOL    HW253646   6.018  12.531   4.935  0.4319  0.1689 -0.6062
48866SOL     OW53647   1.494  12.129   2.896 -0.1386 -0.2009 -0.0657
48866SOL    HW153648   1.405  12.165   2.889  0.6599  2.2820  1.1809
48866SOL    HW253649   1.495  12.084   2.980 -0.0084  0.5510  0.3482
48867SOL     OW53650  10.375   9.991   8.080  0.3100  0.3870 -0.0612
48867SOL    HW153651  10.373  10.064   8.017  0.8119  0.2194 -0.2839
48867SOL    HW253652  10.464   9.956   8.072 -0.1982 -0.8184 -0.6165
48868SOL     OW53653   7.912  11.130   3.250 -0.2350  0.0075  0.1267
48868SOL    HW153654   7.939  11.145   3.340  1.8974 -0.5077 -0.3845
48868SOL    HW253655   7.925  11.214   3.206  0.0632 -0.1127 -0.0151
48869SOL     OW53656   7.099   1.008   2.081 -0.2641  0.0538 -0.3484
48869SOL    HW153657   7.189   1.035   2.062 -0.0894  0.4802  0.9750
48869SOL    HW253658   7.056   1.088   2.111 -1.1849 -0.0871 -1.2431
48870SOL     OW53659  11.964   7.855   2.136 -0.0786 -0.0851  0.3403
48870SOL    HW153660  11.992   7.766   2.159 -2.2202 -0.8258  0.2545
48870SOL    HW253661  11.987   7.908   2.212  1.9413 -0.4944  0.0911
48871SOL     OW53662   4.229   8.911   7.014 -0.1404  0.0862  0.2024
48871SOL    HW153663   4.235   8.903   6.919  0.5876  0.3189  0.2206
48871SOL    HW253664   4.215   9.005   7.029 -0.8832 -0.0351  0.3056
48872SOL     OW53665   5.016   6.197   3.699 -0.4374 -0.5498 -0.2463
48872SOL    HW153666   5.051   6.108   3.696  1.2477  0.0621  0.1138
48872SOL    HW253667   5.055   6.241   3.624  0.4069  0.4223  0.7198
48873SOL     OW53668   2.196   3.986  11.551  0.3598 -0.3464 -0.1107
48873SOL    HW153669   2.239   4.011  11.469  0.4810 -1.3160 -0.3541
48873SOL    HW253670   2.268   3.977  11.614  0.0764  3.3077  0.9716
48874SOL     OW53671   5.865   5.803   3.663 -0.9256  0.4635  0.4195
48874SOL    HW153672   5.775   5.783   3.638 -0.6165  0.8700 -1.1632
48874SOL    HW253673   5.908   5.825   3.580  0.7458 -0.1731  1.0761
48875SOL     OW53674   1.626   2.725  12.262 -0.0737 -0.0110 -0.1307
48875SOL    HW153675   1.595   2.760  12.179 -1.1905 -0.6788 -0.0140
48875SOL    HW253676   1.592   2.785  12.328 -0.8208 -0.5323 -0.0301
48876SOL     OW53677   7.721   0.004   0.886 -0.4816  0.3424 -0.6547
48876SOL    HW153678   7.725   0.097   0.864  0.5938  0.1160 -1.5250
48876SOL    HW253679   7.717  -0.041   0.802 -0.1667 -0.4349 -0.2695
48877SOL     OW53680  10.248   9.212  10.135  0.5431  0.0517 -0.3267
48877SOL    HW153681  10.255   9.304  10.109 -0.0243  0.2730  0.2542
48877SOL    HW253682  10.272   9.212  10.228  0.1500 -0.3116 -0.2195
48878SOL     OW53683   3.778   1.809  11.418  0.2414 -0.8196  0.3299
48878SOL    HW153684   3.840   1.844  11.354  0.3235  1.2612  1.4552
48878SOL    HW253685   3.697   1.857  11.402 -0.0796 -1.1093  1.0309
48879SOL     OW53686   2.304   0.567  11.089 -0.8086  0.1920  0.0538
48879SOL    HW153687   2.299   0.544  10.997 -0.3245 -2.1330  0.5508
48879SOL    HW253688   2.213   0.589  11.113 -1.0946 -0.0985 -0.7421
48880SOL     OW53689   5.493   9.438   0.613 -1.1360 -0.4017 -0.1233
48880SOL    HW153690   5.411   9.421   0.568 -1.6513 -0.6388  0.8904
48880SOL    HW253691   5.478   9.412   0.703 -0.1457  0.1376  0.2214
48881SOL     OW53692   1.520   2.186   9.766  0.4261  0.0992  0.5550
48881SOL    HW153693   1.485   2.098   9.775 -1.0559  0.4328 -1.2137
48881SOL    HW253694   1.588   2.178   9.698  1.2836  0.1068  1.3856
48882SOL     OW53695   4.808   5.405   5.161  0.5189 -0.2617  0.3230
48882SOL    HW153696   4.804   5.481   5.103  1.3369 -0.3094  0.2014
48882SOL    HW253697   4.803   5.329   5.102 -1.9638 -0.3616  0.5294
48883SOL     OW53698   3.306   6.231   8.109  0.1804 -0.1327 -0.0535
48883SOL    HW153699   3.231   6.284   8.135  1.2185  0.8560  1.0261
48883SOL    HW253700   3.359   6.291   8.055  1.7273  0.2384  1.7733
48884SOL     OW53701  11.745   9.493   6.049  0.0184 -0.2918 -0.0275
48884SOL    HW153702  11.794   9.414   6.026 -0.3123 -0.5739  0.2216
48884SOL    HW253703  11.668   9.460   6.095  0.9846  0.2716  2.1000
48885SOL     OW53704   7.609  10.049   5.965 -0.1340  0.1674 -0.1058
48885SOL    HW153705   7.632  10.130   5.919 -1.9704 -0.6043 -2.5740
48885SOL    HW253706   7.514  10.044   5.960 -0.2319 -1.1003  1.9199
48886SOL     OW53707   0.335  11.316   7.835  0.3718  0.1675  0.2867
48886SOL    HW153708   0.311  11.406   7.813 -0.9958 -0.1843  0.2311
48886SOL    HW253709   0.284  11.263   7.774  0.0827 -0.6773  1.2405
48887SOL     OW53710   6.616  11.122  10.779  0.8184  0.2553 -0.8063
48887SOL    HW153711   6.642  11.176  10.854  0.4344  0.2613 -0.6722
48887SOL    HW253712   6.688  11.060  10.768 -0.5324 -2.0471  1.7758
48888SOL     OW53713   0.971  12.498   1.422 -0.0347 -0.1566  0.9283
48888SOL    HW153714   0.991  12.418   1.372 -0.9435 -0.4373  1.0076
48888SOL    HW253715   0.930  12.467   1.502 -1.5691  0.4386  0.3935
48889SOL     OW53716  10.920   4.802   4.063  0.2246 -0.0024  0.0308
48889SOL    HW153717  10.953   4.783   3.975  0.6864 -1.0230  0.3976
48889SOL    HW253718  10.977   4.872   4.095  0.5905 -0.1982 -0.1792
48890SOL     OW53719   7.354   8.856  10.825  0.1567 -0.1950  0.0483
48890SOL    HW153720   7.420   8.924  10.809  0.6142 -0.8798 -1.1704
48890SOL    HW253721   7.282   8.902  10.868  0.5780  1.0035 -0.4768
48891SOL     OW53722   2.889   2.999  10.032  0.2900  0.5406  0.1598
48891SOL    HW153723   2.921   2.951  10.108 -1.0569 -1.9462 -0.6966
48891SOL    HW253724   2.825   3.061  10.067  0.1806 -0.1067  1.1318
48892SOL     OW53725   0.865   7.244   4.909 -0.0790  0.3547 -0.3324
48892SOL    HW153726   0.823   7.324   4.878 -2.1095 -0.2895  0.5457
48892SOL    HW253727   0.840   7.238   5.002 -1.1957 -1.9785 -0.7077
48893SOL     OW53728  10.937   6.040  11.421 -0.0210  0.6948 -0.1080
48893SOL    HW153729  10.894   5.977  11.363  1.2268  0.5846 -0.9645
48893SOL    HW253730  10.989   5.986  11.480 -1.9616  0.7493  1.7902
48894SOL     OW53731   3.719   8.124  10.323  0.1788  1.0745 -0.3086
48894SOL    HW153732   3.810   8.145  10.300  0.2785  1.8807  0.7484
48894SOL    HW253733   3.725   8.042  10.371  0.0521 -0.2000 -2.3439
48895SOL     OW53734   0.401   7.731   3.577  0.3319 -0.1734  0.5564
48895SOL    HW153735   0.463   7.695   3.641  1.5469 -2.2477 -1.6117
48895SOL    HW253736   0.371   7.655   3.528 -0.2173  1.3361 -1.5989
48896SOL     OW53737   0.601   1.270   6.004 -0.2006  0.3967 -0.4029
48896SOL    HW153738   0.575   1.347   6.053 -0.0820  0.5424 -0.5674
48896SOL    HW253739   0.617   1.302   5.915 -2.0571 -0.1296 -0.9846
48897SOL     OW53740   4.330  12.319   6.097 -0.0750 -0.3921  0.5594
48897SOL    HW153741   4.292  12.337   6.011  0.3111 -2.9386 -0.2297
48897SOL    HW253742   4.402  12.381   6.105 -0.0462 -0.1927 -1.0302
48898SOL     OW53743   6.047   1.494   5.911  0.0990  1.1137 -0.2148
48898SOL    HW153744   6.090   1.543   5.841  1.8267  0.6758  0.5026
48898SOL    HW253745   6.072   1.539   5.992  0.8507 -0.2725  0.3659
48899SOL     OW53746   5.957   2.737   8.488 -0.5072 -0.6251 -0.4471
48899SOL    HW153747   5.943   2.763   8.397 -1.5493 -0.9212 -0.3768
48899SOL    HW253748   6.002   2.812   8.528  0.2359 -0.6201 -1.2707
48900SOL     OW53749   8.140   9.240  11.003  0.3911  0.5317  0.1974
48900SOL    HW153750   8.101   9.153  11.014 -1.2189  0.9765 -1.5196
48900SOL    HW253751   8.203   9.247  11.075 -0.5558 -1.4302  1.3035
48901SOL     OW53752   3.512  11.001   0.367 -0.2671 -0.0425  0.1579
48901SOL    HW153753   3.549  10.915   0.352 -2.6432 -1.2536  0.7212
48901SOL    HW253754   3.503  11.007   0.462 -0.5726  0.6046  0.0963
48902SOL     OW53755  10.551  10.219   2.623  0.4384 -0.5393  0.0651
48902SOL    HW153756  10.539  10.308   2.657  0.3566  0.1169 -1.5558
48902SOL    HW253757  10.468  10.198   2.581 -0.6370 -2.6339  2.9420
48903SOL     OW53758   5.748   4.095   3.274 -0.5453 -0.2681  0.6695
48903SOL    HW153759   5.812   4.095   3.345 -1.6024  1.3861  1.6956
48903SOL    HW253760   5.664   4.083   3.318 -1.1478 -0.1165 -0.4064
48904SOL     OW53761   3.406  12.588   6.834 -0.4951 -0.2092 -0.0773
48904SOL    HW153762   3.318  12.569   6.867 -0.2242  1.4028  1.7798
48904SOL    HW253763   3.431  12.510   6.785 -2.7199 -0.9306 -0.1728
48905SOL     OW53764   9.667   0.763   2.816  0.6810 -0.3855 -0.5384
48905SOL    HW153765   9.683   0.856   2.795 -1.7124 -0.0305 -1.0081
48905SOL    HW253766   9.738   0.740   2.876  0.6715  2.1049  0.5588
48906SOL     OW53767   6.038   3.051   4.770 -0.1183  0.0275  0.7301
48906SOL    HW153768   5.950   3.028   4.741  0.5532 -1.9425  0.0683
48906SOL    HW253769   6.028   3.071   4.863 -1.3200  0.3104  0.5614
48907SOL     OW53770   9.472   0.318   3.554  0.0963 -0.3140 -0.5633
48907SOL    HW153771   9.544   0.365   3.596 -0.9289 -1.3721  2.6529
48907SOL    HW253772   9.421   0.385   3.510  1.3045  0.8832 -0.1959
48908SOL     OW53773  10.557   2.366  11.885 -0.1734 -0.2553  0.5445
48908SOL    HW153774  10.531   2.385  11.975  0.2067 -0.3960  0.6832
48908SOL    HW253775  10.624   2.298  11.892 -0.8861 -1.0272  0.0937
48909SOL     OW53776   1.657   7.385   4.283 -0.1159 -0.1592 -0.3451
48909SOL    HW153777   1.597   7.460   4.282  0.3770  0.2409 -1.0740
48909SOL    HW253778   1.718   7.402   4.211  1.0939 -0.3588  0.5879
48910SOL     OW53779   5.253  12.098   1.044  0.2435  0.2735  0.7270
48910SOL    HW153780   5.180  12.139   1.089 -0.9837 -3.0059  1.9808
48910SOL    HW253781   5.214  12.058   0.966  1.0126 -0.0368  0.4914
48911SOL     OW53782   8.913   5.603   6.182  0.1030  0.0912  0.3137
48911SOL    HW153783   8.864   5.680   6.155  1.5075  0.5960 -0.9662
48911SOL    HW253784   8.946   5.624   6.269 -0.7579  0.3109  0.5926
48912SOL     OW53785   8.965  10.635   0.670 -0.1392  0.1383  0.2366
48912SOL    HW153786   9.023  10.659   0.598 -0.4545  1.0738  0.2911
48912SOL    HW253787   8.914  10.562   0.635 -0.5151  0.7903 -0.6051
48913SOL     OW53788  10.001  11.271   0.051 -0.0515  0.4123  0.1860
48913SOL    HW153789   9.924  11.243   0.002 -1.1902 -3.1547  3.4865
48913SOL    HW253790   9.981  11.360   0.080 -0.4689  1.6034 -3.2492
48914SOL     OW53791   9.437   7.172   3.461  0.5304 -0.4304  0.3574
48914SOL    HW153792   9.425   7.152   3.554  2.5937  1.2566  1.0879
48914SOL    HW253793   9.357   7.218   3.435 -0.0262 -0.8262  1.3326
48915SOL     OW53794   0.462   0.825   5.931 -0.4476 -0.9194  0.5797
48915SOL    HW153795   0.545   0.811   5.978 -0.2446 -0.2932  0.4185
48915SOL    HW253796   0.486   0.820   5.839 -0.7605 -1.6629  0.5315
48916SOL     OW53797   3.528   4.184   2.689  0.5541 -0.4203 -0.5069
48916SOL    HW153798   3.619   4.176   2.659  0.6995  1.1119 -0.5643
48916SOL    HW253799   3.492   4.256   2.638  0.3697  1.3321  1.9176
48917SOL     OW53800  11.310   3.307   6.786  0.1546 -0.7784 -0.3937
48917SOL    HW153801  11.225   3.276   6.755  0.2638 -1.0583 -0.4171
48917SOL    HW253802  11.331   3.381   6.729 -0.7711  0.2626  0.5863
48918SOL     OW53803   9.431   1.788   2.914 -0.3430 -0.5217 -0.3418
48918SOL    HW153804   9.444   1.695   2.897 -0.0401 -0.7926  1.2061
48918SOL    HW253805   9.500   1.831   2.864 -0.1691 -1.1644 -0.6673
48919SOL     OW53806  10.205   6.414   9.226 -0.2494  0.0772  0.2689
48919SOL    HW153807  10.180   6.333   9.270 -0.0271 -0.5992 -0.7891
48919SOL    HW253808  10.257   6.462   9.291 -0.7672 -0.4156  1.0636
48920SOL     OW53809  11.226  11.619   3.428 -0.4245 -0.2969  0.3225
48920SOL    HW153810  11.166  11.569   3.483 -1.5925 -0.9723 -1.4568
48920SOL    HW253811  11.308  11.570   3.430 -0.0783  0.2936  2.2782
48921SOL     OW53812   5.628   7.367  11.203 -0.0220  0.1959  0.1531
48921SOL    HW153813   5.699   7.373  11.268 -0.5181  0.4563  0.6785
48921SOL    HW253814   5.672   7.339  11.123  1.0626  2.5773 -0.1501
48922SOL     OW53815  10.363   8.278   1.928  0.2545  0.1168  0.4342
48922SOL    HW153816  10.383   8.331   2.004  0.9891 -0.9490  1.0149
48922SOL    HW253817  10.386   8.189   1.954 -0.4347 -0.4198 -0.6858
48923SOL     OW53818   0.482  11.364   7.273  0.1511  0.4017  0.1407
48923SOL    HW153819   0.577  11.349   7.275 -0.0858 -1.2453  0.9252
48923SOL    HW253820   0.451  11.309   7.201 -0.2754  0.4936  0.2534
48924SOL     OW53821   7.404  10.880   9.044 -0.5312 -0.0098  0.3594
48924SOL    HW153822   7.421  10.936   9.120  0.1882  0.1186  0.1131
48924SOL    HW253823   7.469  10.810   9.051 -1.1323 -0.5679  0.4192
48925SOL     OW53824   3.423   9.497   1.808  0.0404  0.7578 -0.3541
48925SOL    HW153825   3.421   9.446   1.889  1.0024  0.5690 -0.4438
48925SOL    HW253826   3.351   9.560   1.819 -0.1010  0.4748  0.4672
48926SOL     OW53827   3.436   0.001   0.579 -0.1669 -0.4266  0.5688
48926SOL    HW153828   3.456  -0.078   0.629  0.0749 -0.2158  0.8150
48926SOL    HW253829   3.521   0.045   0.571  0.1349 -1.2747 -1.4941
48927SOL     OW53830   8.298   0.085   9.912 -0.0787  0.0251 -0.0136
48927SOL    HW153831   8.351   0.051   9.985  0.8909 -0.0820 -0.7543
48927SOL    HW253832   8.316   0.179   9.912 -2.4401  0.5954  1.7727
48928SOL     OW53833   6.981   3.112   0.747 -0.8504  0.4339  0.8267
48928SOL    HW153834   7.062   3.128   0.795 -0.8266  1.0351  0.5871
48928SOL    HW253835   6.917   3.170   0.788 -1.3265 -0.4708  1.4182
48929SOL     OW53836   4.935   7.897  11.214  0.0997 -0.2982 -0.4250
48929SOL    HW153837   5.022   7.933  11.231 -1.6390  3.1087  2.8024
48929SOL    HW253838   4.877   7.974  11.214 -3.3534 -2.6458  1.2646
48930SOL     OW53839  12.076   6.045   5.618 -0.0272  0.3868 -0.1380
48930SOL    HW153840  12.119   6.025   5.535 -1.5606 -0.5316 -0.7523
48930SOL    HW253841  12.079   5.962   5.667 -1.0869  0.3022 -0.2033
48931SOL     OW53842   1.289   8.956   4.332 -0.5666  0.2190 -0.1498
48931SOL    HW153843   1.369   8.912   4.361 -0.8441 -0.3603 -0.2633
48931SOL    HW253844   1.321   9.034   4.285 -0.1050  1.9784  2.8011
48932SOL     OW53845   7.498   2.883   9.118 -0.3701 -0.1970 -0.4651
48932SOL    HW153846   7.475   2.893   9.210 -1.5314  0.7205 -0.8252
48932SOL    HW253847   7.489   2.971   9.081 -1.3100 -0.7792 -1.7336
48933SOL     OW53848   7.140   6.456   8.299 -0.5345 -0.2935  0.6233
48933SOL    HW153849   7.164   6.515   8.227  1.5564 -2.0647 -0.2376
48933SOL    HW253850   7.195   6.484   8.372 -0.4692 -0.3748  0.6053
48934SOL     OW53851   2.310   6.584   7.572 -0.2204  0.0879 -0.4111
48934SOL    HW153852   2.325   6.537   7.490  1.5974  0.0005 -0.0696
48934SOL    HW253853   2.226   6.628   7.560  0.6266  1.1958 -2.8487
48935SOL     OW53854   5.304   1.874   7.871  0.0084  0.3055  0.4639
48935SOL    HW153855   5.216   1.837   7.864  0.2825 -0.3306  0.2823
48935SOL    HW253856   5.360   1.799   7.892  1.1452 -0.1632 -3.4096
48936SOL     OW53857  11.271  10.758   2.097  0.7918  0.2322 -0.0561
48936SOL    HW153858  11.236  10.671   2.076  0.0096  0.4424  0.3074
48936SOL    HW253859  11.366  10.746   2.099  0.7986 -0.2265 -1.6902
48937SOL     OW53860   6.372   5.766   3.063 -0.0339 -0.0308  0.1889
48937SOL    HW153861   6.401   5.825   2.993 -0.3036 -0.3271 -0.1816
48937SOL    HW253862   6.340   5.688   3.016  0.4291 -0.5182  0.6727
48938SOL     OW53863   4.836   7.009   4.636 -0.0175 -0.1164 -0.5834
48938SOL    HW153864   4.929   6.989   4.645  0.1612 -0.1274 -2.2776
48938SOL    HW253865   4.827   7.098   4.670  0.4541 -0.3933  0.3017
48939SOL     OW53866   7.435   7.162  10.260 -0.3475  0.2044  0.1465
48939SOL    HW153867   7.415   7.105  10.186  0.3107 -0.1208  0.2166
48939SOL    HW253868   7.374   7.136  10.328 -0.1447 -0.3179  0.1290
48940SOL     OW53869  10.841   3.855   6.761  0.3319 -0.2362  0.5171
48940SOL    HW153870  10.824   3.857   6.666  2.8269 -1.6275 -0.0299
48940SOL    HW253871  10.868   3.944   6.782 -0.8387  0.2491  0.0821
48941SOL     OW53872   1.720   4.323   4.354 -0.5119  0.5420  0.4820
48941SOL    HW153873   1.750   4.381   4.425 -1.1396  1.2545  0.1801
48941SOL    HW253874   1.625   4.316   4.368 -0.4015 -0.6588  0.6834
48942SOL     OW53875   9.536  10.734   7.876 -0.2370  0.0087  1.1654
48942SOL    HW153876   9.490  10.818   7.884 -0.1459  0.1198  0.5565
48942SOL    HW253877   9.624  10.753   7.909 -0.7663 -0.3445  2.8558
48943SOL     OW53878   6.838   4.868   3.945  0.1708  0.0607 -0.5752
48943SOL    HW153879   6.924   4.860   3.904  0.9844  3.3612  0.1977
48943SOL    HW253880   6.854   4.918   4.025 -2.3762  0.1814 -0.0555
48944SOL     OW53881   6.974   7.908  10.286  0.5322  0.1704  0.2595
48944SOL    HW153882   7.020   7.976  10.236 -1.4703 -0.0889 -2.1101
48944SOL    HW253883   7.017   7.827  10.261  0.8121  0.2353  0.5247
48945SOL     OW53884  10.434   1.304   3.755 -0.0194 -0.1901  0.0511
48945SOL    HW153885  10.346   1.336   3.735  0.6022  1.6300  0.0952
48945SOL    HW253886  10.422   1.210   3.768 -2.0966  0.1190  0.8446
48946SOL     OW53887   7.975  11.099  12.190  0.2175  0.0839 -0.3916
48946SOL    HW153888   7.917  11.119  12.116  1.6233  0.4053 -1.4554
48946SOL    HW253889   7.956  11.167  12.254 -1.3956 -0.5058 -0.2147
48947SOL     OW53890  10.638   7.449   4.081 -0.5753 -0.2642 -0.4217
48947SOL    HW153891  10.617   7.432   3.989  1.0668  0.3634 -0.9593
48947SOL    HW253892  10.726   7.487   4.078 -0.1948 -0.9241  1.4822
48948SOL     OW53893   7.828   7.642   0.767  0.0334 -0.2461  1.2023
48948SOL    HW153894   7.815   7.577   0.698 -0.0863  0.1450  0.8493
48948SOL    HW253895   7.823   7.593   0.849 -1.5803 -0.4489  1.0059
48949SOL     OW53896   2.160   9.663   3.350 -0.3170 -0.1488  0.5402
48949SOL    HW153897   2.136   9.639   3.440  4.0495 -0.5679  1.8090
48949SOL    HW253898   2.196   9.751   3.358 -0.3395  0.0089 -0.9224
48950SOL     OW53899  10.574   9.520   0.081  0.2396 -0.3865 -0.0579
48950SOL    HW153900  10.559   9.598   0.135  2.1303  0.4490 -0.6765
48950SOL    HW253901  10.521   9.535   0.003 -0.8219 -0.5996  0.5991
48951SOL     OW53902  12.584   8.681   1.013  0.0762 -0.1748  0.2601
48951SOL    HW153903  12.648   8.723   0.955  0.3911 -0.9842  0.0095
48951SOL    HW253904  12.624   8.598   1.037 -1.3967 -1.2678 -0.8999
48952SOL     OW53905   1.483  12.568  11.126 -0.1406  0.1076 -0.0321
48952SOL    HW153906   1.576  12.577  11.147 -0.8553  3.7528  2.5755
48952SOL    HW253907   1.463  12.643  11.070 -0.8320 -3.0320 -4.5300
48953SOL     OW53908   1.782   3.304   9.007 -0.1041 -0.0165  0.2894
48953SOL    HW153909   1.700   3.269   8.972 -0.0887  0.9465 -0.7620
48953SOL    HW253910   1.850   3.250   8.968 -0.1298  0.5974 -0.6397
48954SOL     OW53911  10.847   5.646   5.795 -0.1659  0.4685  0.3120
48954SOL    HW153912  10.773   5.690   5.754 -0.7165  0.5373  1.3515
48954SOL    HW253913  10.810   5.569   5.837  0.1483  1.0848  1.7760
48955SOL     OW53914  12.397   8.602   5.283  0.6580  0.0572  0.0225
48955SOL    HW153915  12.403   8.616   5.188 -0.0093 -1.0480 -0.2023
48955SOL    HW253916  12.439   8.517   5.297  0.4595  0.0657  0.6839
48956SOL     OW53917   4.181  10.558   4.743  0.4350  0.6201  0.0984
48956SOL    HW153918   4.123  10.602   4.681 -1.2914 -2.1537 -0.4139
48956SOL    HW253919   4.124  10.503   4.796  2.1640  1.0205  2.5636
48957SOL     OW53920   8.766  10.070  10.372  0.5029  0.5808 -0.0431
48957SOL    HW153921   8.727  10.121  10.301 -2.3881 -0.5349  0.6200
48957SOL    HW253922   8.860  10.073  10.354 -0.0579  0.2128 -4.0351
48958SOL     OW53923   5.940   1.911   8.407 -0.3037 -0.1280  0.3304
48958SOL    HW153924   5.922   1.984   8.466 -0.2397  0.0819  0.0942
48958SOL    HW253925   6.035   1.898   8.412 -0.5121 -1.2703  1.6185
48959SOL     OW53926   0.815  12.301  10.894  0.3827  0.9664 -0.4750
48959SOL    HW153927   0.792  12.329  10.806 -1.7512 -0.6697 -0.5190
48959SOL    HW253928   0.911  12.293  10.892  0.4295  1.4514 -2.4626
48960SOL     OW53929  10.085   9.070   8.407  0.1039 -0.4394  0.3813
48960SOL    HW153930  10.091   9.074   8.311  2.8536 -2.9703  0.2954
48960SOL    HW253931   9.997   9.038   8.425 -0.0917 -0.9890 -1.3945
48961SOL     OW53932   7.230   1.990   8.995  0.3981 -0.0220  0.1829
48961SOL    HW153933   7.307   1.939   8.969  1.6072  1.5874  0.4362
48961SOL    HW253934   7.215   2.049   8.922 -0.5709 -0.2829  0.1668
48962SOL     OW53935   9.817   4.371   1.889  0.1545  0.4445 -0.2269
48962SOL    HW153936   9.760   4.295   1.903  2.6827 -1.2070  2.1302
48962SOL    HW253937   9.758   4.446   1.896 -2.2156 -1.2157 -1.1729
48963SOL     OW53938   0.753  10.592  12.524 -0.1779 -0.8715  0.1755
48963SOL    HW153939   0.746  10.530  12.596  1.3916 -2.1090 -0.6886
48963SOL    HW253940   0.783  10.540  12.449  0.6778  0.8153 -0.7174
48964SOL     OW53941   0.412   2.832   3.517 -0.0677  0.1936  0.5785
48964SOL    HW153942   0.447   2.915   3.483 -0.7026  0.1332 -0.2510
48964SOL    HW253943   0.440   2.767   3.452  0.9573 -0.3554  1.5376
48965SOL     OW53944   3.352   7.303  11.377 -0.2919  0.1445 -0.6354
48965SOL    HW153945   3.326   7.391  11.406 -1.0584 -0.6844  1.3202
48965SOL    HW253946   3.448   7.307  11.375 -0.1558  0.3098  2.0901
48966SOL     OW53947  11.747  11.481   6.581  0.1267 -0.0311  0.6247
48966SOL    HW153948  11.799  11.407   6.550  0.3664 -0.1370  1.2515
48966SOL    HW253949  11.810  11.538   6.624  0.0113  0.7750 -0.2620
48967SOL     OW53950   8.826   1.692   4.141 -0.6011 -0.7135  1.0349
48967SOL    HW153951   8.827   1.788   4.133  0.7508 -0.8547 -2.2436
48967SOL    HW253952   8.739   1.666   4.110 -0.0082 -0.6018 -0.8321
48968SOL     OW53953   6.639   5.741  11.892  0.2881 -0.0619  0.5035
48968SOL    HW153954   6.629   5.758  11.986 -0.3377  2.8021  0.0370
48968SOL    HW253955   6.733   5.734  11.878  0.6071  2.3513  1.0225
48969SOL     OW53956   8.682  10.856   0.715  0.2748 -0.0274 -0.1361
48969SOL    HW153957   8.730  10.778   0.687  1.4726  1.0181 -1.1064
48969SOL    HW253958   8.612  10.822   0.772  0.2267 -1.8749 -1.2110
48970SOL     OW53959  10.379   1.144   0.696  0.9581  0.0688 -0.0107
48970SOL    HW153960  10.352   1.151   0.605 -2.2137 -1.6406  0.6236
48970SOL    HW253961  10.439   1.070   0.699 -1.1821 -1.8155 -0.4577
48971SOL     OW53962   2.804   1.667  12.091 -0.0753 -0.1026  0.0675
48971SOL    HW153963   2.727   1.723  12.080 -0.3887 -0.4734  0.3229
48971SOL    HW253964   2.811   1.620  12.007 -0.1680 -0.1137  0.0653
48972SOL     OW53965   2.860   0.709   3.644  0.5903  0.4139 -0.6213
48972SOL    HW153966   2.854   0.673   3.555 -2.1530 -0.5411 -0.1485
48972SOL    HW253967   2.783   0.767   3.651 -0.7419 -1.5024  1.8868
48973SOL     OW53968   8.758   8.963   3.952 -0.3025 -0.1532  0.2794
48973SOL    HW153969   8.818   8.930   4.019 -0.2567  1.1745  0.9288
48973SOL    HW253970   8.776   8.910   3.874 -0.8263 -2.1749  1.4797
48974SOL     OW53971  10.596  10.983   0.512  0.1089 -0.0031  0.3682
48974SOL    HW153972  10.570  10.981   0.420  1.3345  1.0679 -0.0320
48974SOL    HW253973  10.514  10.990   0.560 -0.5934 -1.2272 -0.5884
48975SOL     OW53974   2.648   5.448   0.712 -0.1456 -0.5533 -0.3682
48975SOL    HW153975   2.720   5.389   0.690 -0.1662 -0.4431 -0.7347
48975SOL    HW253976   2.569   5.394   0.705 -0.1961 -0.4025 -1.0369
48976SOL     OW53977   2.674   7.379   1.917 -0.5467 -0.2270  0.5706
48976SOL    HW153978   2.719   7.295   1.911  1.9381  1.0024  0.8454
48976SOL    HW253979   2.717   7.424   1.989 -0.5428  1.9903 -0.7277
48977SOL     OW53980  12.393   7.224   1.101  0.0042  0.1952 -0.8255
48977SOL    HW153981  12.348   7.241   1.018 -1.4045  0.5132 -0.0326
48977SOL    HW253982  12.420   7.132   1.095 -2.8360 -0.7879 -0.4704
48978SOL     OW53983   5.836   9.763   4.482 -0.0152 -0.3984 -0.3801
48978SOL    HW153984   5.748   9.725   4.486  0.0865 -0.8118 -1.6642
48978SOL    HW253985   5.892   9.691   4.453  0.5264  0.1793 -0.8072
48979SOL     OW53986   7.019  10.079   5.183 -0.0624  0.2737 -0.5147
48979SOL    HW153987   7.099  10.107   5.140  2.0832 -2.4769  1.3261
48979SOL    HW253988   7.010   9.986   5.161 -1.3349 -0.1048  1.2937
48980SOL     OW53989   2.976   8.830   3.571 -0.8369  0.1889 -0.3121
48980SOL    HW153990   3.044   8.881   3.615 -0.0713  0.9075 -2.2230
48980SOL    HW253991   2.981   8.744   3.611  0.7132  0.4403  0.0837
48981SOL     OW53992   2.275   6.340   1.387  0.4250 -0.4465 -0.7868
48981SOL    HW153993   2.328   6.384   1.321 -2.2481  1.5417 -1.7850
48981SOL    HW253994   2.303   6.380   1.470  1.5305 -0.5790 -1.0803
48982SOL     OW53995   1.265   1.040   6.606 -0.0697  0.4276  0.1818
48982SOL    HW153996   1.222   1.054   6.522  0.3862 -0.5323 -0.2335
48982SOL    HW253997   1.281   0.945   6.609  1.6239  0.6935  0.4937
48983SOL     OW53998   7.394   1.301   3.459 -0.1370  0.4956 -0.1264
48983SOL    HW153999   7.357   1.374   3.509  1.2784  1.9161 -1.0686
48983SOL    HW254000   7.405   1.335   3.371  0.8618 -0.7639 -0.5236
48984SOL     OW54001  11.662   8.716   4.550 -0.3328 -0.2282  0.4433
48984SOL    HW154002  11.701   8.714   4.463 -0.5695 -1.3947  0.3470
48984SOL    HW254003  11.580   8.667   4.541 -0.1720 -0.6961  1.4054
48985SOL     OW54004   3.964   9.584   5.315 -0.0339  0.0988  0.0071
48985SOL    HW154005   3.998   9.507   5.361  0.1728  0.3317  0.2466
48985SOL    HW254006   3.936   9.643   5.384  0.0412  0.3452 -0.1707
48986SOL     OW54007   5.698   6.913   5.503 -0.1025  0.3956  0.0447
48986SOL    HW154008   5.721   6.973   5.574 -1.3609 -0.5145  1.2683
48986SOL    HW254009   5.722   6.960   5.423 -1.8765  2.9596  0.8812
48987SOL     OW54010   5.279   5.668   4.202  0.2582 -0.2054 -0.6623
48987SOL    HW154011   5.215   5.722   4.155 -0.8592  0.0220  1.0328
48987SOL    HW254012   5.320   5.615   4.133 -0.6230  0.7719 -2.0041
48988SOL     OW54013  10.594   5.513   6.149 -0.0823  0.1973  0.2021
48988SOL    HW154014  10.500   5.533   6.147 -0.2154  0.2009  2.6561
48988SOL    HW254015  10.599   5.426   6.189  0.9379 -0.2798 -0.9092
48989SOL     OW54016   4.076   3.423   2.707  0.3741 -0.2266 -0.4885
48989SOL    HW154017   4.039   3.488   2.767 -1.2824 -1.2144 -0.3703
48989SOL    HW254018   4.000   3.375   2.675  1.6441 -4.4710  2.1440
48990SOL     OW54019   8.007   9.313  10.316 -0.6146 -0.3356 -0.5041
48990SOL    HW154020   8.063   9.297  10.392 -1.0440 -0.0129 -0.1094
48990SOL    HW254021   7.985   9.226  10.283 -2.4501 -0.6305  1.2549
48991SOL     OW54022   7.201  10.994   6.807  0.5563  0.9135  0.1587
48991SOL    HW154023   7.284  11.040   6.798  0.3450  1.1817 -0.4697
48991SOL    HW254024   7.187  10.952   6.721  0.7663 -0.3569  0.7201
48992SOL     OW54025   2.445   4.171   4.217  0.4573 -0.4080  0.7921
48992SOL    HW154026   2.474   4.262   4.210  0.2062 -0.3686  0.1834
48992SOL    HW254027   2.363   4.168   4.167  0.5929 -1.0246  0.6014
48993SOL     OW54028   1.483   0.252  11.759 -0.1831  0.3794 -0.0749
48993SOL    HW154029   1.454   0.190  11.826  0.1062  1.4893  1.1307
48993SOL    HW254030   1.434   0.332  11.778  0.0717  0.7843 -1.0651
48994SOL     OW54031   2.668   7.872   0.336 -0.1650 -0.4029  0.0312
48994SOL    HW154032   2.701   7.843   0.421 -0.0159 -0.7810 -0.1528
48994SOL    HW254033   2.628   7.794   0.299 -3.5845  0.5551  1.3111
48995SOL     OW54034  12.453   1.252   7.857 -0.5864  0.1159 -0.1215
48995SOL    HW154035  12.541   1.245   7.822 -0.9814 -5.0552 -0.7683
48995SOL    HW254036  12.396   1.241   7.781 -1.6352 -1.0431  0.7855
48996SOL     OW54037   3.171   9.988   5.513  0.7117  0.3479 -0.1470
48996SOL    HW154038   3.130   9.913   5.469 -0.5089  0.7293  0.2930
48996SOL    HW254039   3.113  10.006   5.587  1.8365  0.7601  0.6530
48997SOL     OW54040   1.808   4.325   8.063 -0.0094  0.6069  0.1785
48997SOL    HW154041   1.899   4.351   8.054 -0.5580  2.3926 -0.6991
48997SOL    HW254042   1.788   4.339   8.156  0.5163  0.5015  0.3076
48998SOL     OW54043   1.492   4.444   5.118 -0.1125 -0.9814  0.3693
48998SOL    HW154044   1.409   4.401   5.099  0.1869 -1.1048 -0.7068
48998SOL    HW254045   1.544   4.377   5.161 -0.1107 -1.3054 -0.1301
48999SOL     OW54046   6.596   1.743   8.716  0.4862  0.4087  0.9064
48999SOL    HW154047   6.545   1.699   8.784 -0.3887 -0.1516 -0.0903
48999SOL    HW254048   6.666   1.682   8.695 -0.4432 -0.3303 -0.1299
49000SOL     OW54049  11.396   1.859   2.958 -0.4165 -0.5161 -0.3583
49000SOL    HW154050  11.389   1.769   2.927  1.3686 -1.3535  1.4819
49000SOL    HW254051  11.465   1.898   2.904 -0.8287 -0.3782 -0.8000
49001SOL     OW54052  11.636   5.989   5.529 -0.1230 -0.2758  0.0873
49001SOL    HW154053  11.684   6.046   5.589 -0.0834  0.4984 -0.6595
49001SOL    HW254054  11.551   5.975   5.571 -0.0781  0.2174  0.3426
49002SOL     OW54055   0.774   8.651   5.200 -0.2726 -0.0732 -0.6655
49002SOL    HW154056   0.775   8.642   5.105  0.3819 -0.9797 -0.5837
49002SOL    HW254057   0.852   8.703   5.220 -1.3225  1.6101 -0.7335
49003SOL     OW54058   1.609   6.486   8.145 -0.1287  0.0549  0.4879
49003SOL    HW154059   1.568   6.553   8.090 -1.1014 -0.6398  0.3381
49003SOL    HW254060   1.640   6.535   8.222  0.6793  0.9303 -0.3661
49004SOL     OW54061   2.904   6.164   2.481  0.0102 -0.5285 -0.2695
49004SOL    HW154062   2.940   6.245   2.445  2.4463 -0.9544  1.0136
49004SOL    HW254063   2.846   6.193   2.552 -0.1729  0.1346 -0.6868
49005SOL     OW54064   4.179   3.778   5.561  0.0030  0.6004 -0.0152
49005SOL    HW154065   4.274   3.791   5.563  0.0394  0.4091 -0.4212
49005SOL    HW254066   4.168   3.683   5.563 -0.1568  0.6005 -0.6134
49006SOL     OW54067   8.500   7.804   7.099 -0.0046 -0.0867 -0.3272
49006SOL    HW154068   8.428   7.867   7.107 -0.2853 -0.5572  1.1502
49006SOL    HW254069   8.483   7.759   7.016 -1.9758 -0.8374  0.4290
49007SOL     OW54070   6.667   6.920   4.365 -0.0142 -0.2211 -0.9903
49007SOL    HW154071   6.698   6.849   4.307 -0.6913 -1.0948 -0.3096
49007SOL    HW254072   6.735   6.926   4.432  0.0338 -0.2339 -1.0367
49008SOL     OW54073   8.851   3.612   7.401 -0.0299  0.0448  0.4802
49008SOL    HW154074   8.856   3.627   7.496 -1.1800 -1.7871  0.8722
49008SOL    HW254075   8.939   3.584   7.377 -0.0159 -0.5835  1.2284
49009SOL     OW54076   7.135  11.664   2.742  1.1108 -0.6918 -0.0550
49009SOL    HW154077   7.073  11.672   2.670  0.3125  0.7633  0.7470
49009SOL    HW254078   7.207  11.722   2.718 -0.8550  2.9307  1.9107
49010SOL     OW54079   9.972   9.694   1.338 -0.2700 -0.0671  0.2894
49010SOL    HW154080   9.888   9.660   1.367 -0.6292  1.2585  0.8868
49010SOL    HW254081   9.955   9.730   1.251 -0.7088  1.5194  0.9985
49011SOL     OW54082  10.332   7.428   7.198  0.5999  0.1579 -0.3053
49011SOL    HW154083  10.398   7.473   7.251  0.2589  0.3843 -0.0736
49011SOL    HW254084  10.281   7.376   7.260 -0.1183  0.8119 -0.3354
49012SOL     OW54085   1.830   6.549   6.580  0.0023  0.3531 -0.0290
49012SOL    HW154086   1.766   6.618   6.597 -1.1021 -0.7032  0.1926
49012SOL    HW254087   1.914   6.590   6.598 -0.7005  1.3127  1.2251
49013SOL     OW54088   0.875  11.230  11.817  0.1771  0.7264  0.5660
49013SOL    HW154089   0.905  11.200  11.731 -1.3707  0.5094  0.0764
49013SOL    HW254090   0.949  11.211  11.875 -0.4107 -3.7310  0.2547
49014SOL     OW54091   0.221   1.890   9.537 -0.4784  0.1307  0.0750
49014SOL    HW154092   0.145   1.853   9.582 -0.2262 -1.4244 -0.6985
49014SOL    HW254093   0.281   1.913   9.608  0.9006 -4.4139  0.7126
49015SOL     OW54094  12.170  12.520   7.359 -0.4485  0.0595 -0.0713
49015SOL    HW154095  12.099  12.572   7.321 -1.8992  0.4352  2.8859
49015SOL    HW254096  12.232  12.585   7.393 -0.4657 -0.2130  0.4894
49016SOL     OW54097   7.508   6.249   1.508 -0.9831  0.0263 -0.5138
49016SOL    HW154098   7.520   6.342   1.488 -0.1167  0.0872  0.2427
49016SOL    HW254099   7.421   6.228   1.474 -0.8469  0.9042 -1.4400
49017SOL     OW54100  12.168   3.666   5.531 -0.4997  0.8444  0.5128
49017SOL    HW154101  12.079   3.681   5.500 -0.1097  3.2596  0.3837
49017SOL    HW254102  12.224   3.682   5.455  0.0910 -1.1681  0.4452
49018SOL     OW54103   4.187   1.382   3.985  0.0105  0.1700 -0.1795
49018SOL    HW154104   4.195   1.442   3.911  0.7804 -0.0627 -0.2970
49018SOL    HW254105   4.274   1.345   3.995 -0.1869 -0.1099  0.5892
49019SOL     OW54106  10.840   9.972   1.903 -0.6860 -0.0515  0.4846
49019SOL    HW154107  10.802  10.051   1.865 -2.2196  0.4613  2.8193
49019SOL    HW254108  10.845   9.991   1.997  2.0301 -1.5363  0.7375
49020SOL     OW54109  11.500   4.664   7.956  0.6950  0.0496 -0.0486
49020SOL    HW154110  11.496   4.640   8.049 -0.8610 -0.6287 -0.2546
49020SOL    HW254111  11.439   4.603   7.913 -0.5541  1.9708 -1.1581
49021SOL     OW54112  11.744   4.292   3.729  0.0874  0.3294  0.1279
49021SOL    HW154113  11.755   4.212   3.780  1.8324  0.0156 -0.6709
49021SOL    HW254114  11.786   4.360   3.781 -0.2240  0.4678  0.1986
49022SOL     OW54115   2.407   5.662   1.444  0.2946 -0.3281  0.2224
49022SOL    HW154116   2.373   5.638   1.357 -0.0179  0.7216  0.0409
49022SOL    HW254117   2.411   5.758   1.442 -1.2994 -0.1957  1.9639
49023SOL     OW54118  11.594   3.413   0.898  0.1423 -0.2818  0.1547
49023SOL    HW154119  11.633   3.400   0.984  1.7017 -1.8704 -0.7178
49023SOL    HW254120  11.640   3.489   0.862 -0.3822  0.2707  0.6262
49024SOL     OW54121   3.133   4.672   8.702 -0.0094 -0.4991 -0.1148
49024SOL    HW154122   3.225   4.684   8.721 -0.3328  0.3144  0.9837
49024SOL    HW254123   3.108   4.593   8.751 -0.0775 -0.2637  0.2330
49025SOL     OW54124   3.299   1.878   6.410  0.1054 -0.8728  0.2257
49025SOL    HW154125   3.265   1.925   6.486 -0.8042 -0.8428 -0.1908
49025SOL    HW254126   3.315   1.946   6.344 -0.6975 -1.0747 -0.1872
49026SOL     OW54127   4.726   2.593  12.335  0.4880 -0.0676  0.2852
49026SOL    HW154128   4.752   2.526  12.272  1.4692 -0.2326  0.8359
49026SOL    HW254129   4.757   2.675  12.297  0.0633 -0.0278  0.0216
49027SOL     OW54130   3.174   5.074  11.956  0.0861  0.0324 -0.4640
49027SOL    HW154131   3.182   5.054  12.050  0.3271  0.2383 -0.4403
49027SOL    HW254132   3.092   5.032  11.930 -0.5459  0.8825  0.0805
49028SOL     OW54133   4.677   9.747   3.104 -0.7276 -0.2265  0.4366
49028SOL    HW154134   4.754   9.804   3.116 -0.8335 -0.1885  0.9405
49028SOL    HW254135   4.713   9.668   3.063 -0.9310  1.1709 -2.7533
49029SOL     OW54136  10.846   1.455   7.818  0.0046  0.7743  0.0366
49029SOL    HW154137  10.900   1.422   7.890  0.3242 -0.8107 -0.8786
49029SOL    HW254138  10.877   1.406   7.741 -1.3451  1.3297 -0.8922
49030SOL     OW54139   9.878  10.288  10.709 -0.1620  0.4328 -0.0881
49030SOL    HW154140   9.870  10.195  10.731 -0.9734  0.1515 -1.4986
49030SOL    HW254141   9.955  10.294  10.653  0.7494  0.8614  1.1475
49031SOL     OW54142   9.975  11.388   8.533 -0.1185  0.0646  0.4576
49031SOL    HW154143  10.003  11.347   8.451 -1.3887 -0.4173  0.2441
49031SOL    HW254144   9.906  11.330   8.566 -0.1243  0.6455  1.5050
49032SOL     OW54145  11.514   5.519  11.309  0.1651 -0.1469 -0.2466
49032SOL    HW154146  11.464   5.504  11.228  1.0253 -1.4708 -0.5669
49032SOL    HW254147  11.582   5.451  11.308  0.7112  0.3441  1.1829
49033SOL     OW54148   6.867   3.533  12.068 -0.0400  0.6597 -0.8091
49033SOL    HW154149   6.779   3.570  12.073  0.0710  1.0741 -1.6573
49033SOL    HW254150   6.926   3.607  12.077  0.2175  0.4217 -0.5127
49034SOL     OW54151   6.121   5.822  10.376 -0.4265  0.0140 -0.0059
49034SOL    HW154152   6.071   5.768  10.314  1.0507 -0.5038 -0.7890
49034SOL    HW254153   6.131   5.906  10.331 -1.3018  0.4250  0.5232
49035SOL     OW54154   6.541   2.805   4.511  0.7169 -0.4083  1.3607
49035SOL    HW154155   6.594   2.877   4.546 -0.7206  1.1518  0.4961
49035SOL    HW254156   6.475   2.848   4.456  1.0864 -2.5331 -0.9372
49036SOL     OW54157   0.608   6.073  12.565  0.6675  0.3081 -0.4684
49036SOL    HW154158   0.534   6.111  12.517  0.3219 -1.1372 -1.1286
49036SOL    HW254159   0.659   6.149  12.593  0.3536  1.2635 -2.2824
49037SOL     OW54160   5.979   3.853   2.679  1.2978 -0.1311 -0.4639
49037SOL    HW154161   6.021   3.849   2.766 -0.8659 -1.6275  0.5845
49037SOL    HW254162   5.998   3.768   2.640 -2.2041 -1.6792  0.8476
49038SOL     OW54163  11.251  10.260   1.415 -0.5322 -0.1975 -0.4101
49038SOL    HW154164  11.341  10.228   1.419  0.3385  1.8250 -2.2330
49038SOL    HW254165  11.239  10.308   1.497  0.0992 -0.3229 -0.2390
49039SOL     OW54166   1.125   0.651  12.065 -0.2020  0.2213 -0.3083
49039SOL    HW154167   1.146   0.704  11.988  0.4399  1.4205  0.6545
49039SOL    HW254168   1.168   0.567  12.050  1.0341  0.9006 -0.6652
49040SOL     OW54169   5.290  12.015   3.751 -0.0226 -0.2065  0.2104
49040SOL    HW154170   5.295  11.979   3.840  1.9981  1.3030  0.7919
49040SOL    HW254171   5.366  12.073   3.745 -0.2569 -0.0640 -2.4368
49041SOL     OW54172   1.114   9.270   4.145  0.0910  0.1503  0.5571
49041SOL    HW154173   1.121   9.363   4.169  0.5393 -0.4078  2.9068
49041SOL    HW254174   1.020   9.254   4.137  0.0567  1.0458 -1.0222
49042SOL     OW54175   6.158   4.300   1.943 -0.0743 -0.0538  0.5146
49042SOL    HW154176   6.193   4.389   1.937 -0.9190  0.1860 -3.4255
49042SOL    HW254177   6.066   4.309   1.918 -0.3413 -1.9588  0.7025
49043SOL     OW54178   8.342   7.325   0.995  0.3641 -0.0662 -0.1668
49043SOL    HW154179   8.292   7.406   0.995  0.4957  0.0224 -1.1243
49043SOL    HW254180   8.316   7.281   1.076 -0.8511  0.2245 -0.3809
49044SOL     OW54181   3.862   7.344   0.137 -0.2495 -0.1775  0.0494
49044SOL    HW154182   3.916   7.384   0.070  0.7013  0.2192  1.0285
49044SOL    HW254183   3.785   7.401   0.143  0.5442  0.8678  0.6033
49045SOL     OW54184   0.517  12.595   9.865  0.3835 -0.0739  0.0863
49045SOL    HW154185   0.588  12.532   9.876  1.2240  0.7998 -0.1961
49045SOL    HW254186   0.438  12.541   9.857  0.3456 -1.0270  4.4494
49046SOL     OW54187   0.835   9.498   2.441  0.0040 -0.4620 -0.8114
49046SOL    HW154188   0.835   9.478   2.347 -2.5102 -0.5785 -0.8656
49046SOL    HW254189   0.851   9.414   2.484 -3.2085 -1.3945 -1.1550
49047SOL     OW54190   7.041  11.966   9.155 -0.0285  0.0457  0.2330
49047SOL    HW154191   6.968  12.026   9.170  0.6040  0.7467  0.6002
49047SOL    HW254192   7.019  11.922   9.073 -1.0794 -0.1014  0.5772
49048SOL     OW54193   0.153   1.959   9.048 -0.0177 -0.5033  0.1394
49048SOL    HW154194   0.178   2.045   9.081  0.4437 -1.0821  1.3694
49048SOL    HW254195   0.213   1.898   9.092 -0.5394 -1.4794 -0.4622
49049SOL     OW54196   2.137  10.730   8.231  0.3725  0.0822 -0.3294
49049SOL    HW154197   2.116  10.713   8.323 -0.3587 -0.3858 -0.5795
49049SOL    HW254198   2.175  10.648   8.199  0.7609  0.2914 -0.4153
49050SOL     OW54199   1.369   6.763   6.865 -0.6221  0.2000  0.3024
49050SOL    HW154200   1.367   6.732   6.775  1.4251  0.7423  0.0178
49050SOL    HW254201   1.390   6.686   6.917 -0.5813  0.1153  0.1595
49051SOL     OW54202   9.100   6.962  10.130  0.2573 -0.0677  0.2654
49051SOL    HW154203   9.162   6.889  10.126  0.6808  0.3267 -0.5608
49051SOL    HW254204   9.155   7.040  10.132 -0.2029  0.2574  0.6016
49052SOL     OW54205   3.489  11.880   3.544  0.0667  0.3245 -0.4624
49052SOL    HW154206   3.575  11.875   3.501  0.0168 -2.7462 -0.4054
49052SOL    HW254207   3.428  11.901   3.472  0.2637 -2.6760 -1.6477
49053SOL     OW54208  12.252   5.640   1.787 -0.0705 -0.4870 -0.5209
49053SOL    HW154209  12.184   5.612   1.847  2.5715 -2.2760  1.8550
49053SOL    HW254210  12.260   5.735   1.802 -0.3120 -0.6996  1.0599
49054SOL     OW54211   9.047   7.942   7.630  0.5023  0.0692  0.1354
49054SOL    HW154212   9.139   7.934   7.604  0.2088 -1.4439 -0.5515
49054SOL    HW254213   9.002   7.877   7.576 -0.8108  0.0229  1.2506
49055SOL     OW54214   9.004   1.306   0.055  0.0515  0.1620 -0.2147
49055SOL    HW154215   8.976   1.395   0.078 -2.1566 -0.5142  0.0198
49055SOL    HW254216   8.948   1.249   0.108  1.3473 -1.3841 -0.4344
49056SOL     OW54217  10.691   0.388   3.881 -0.4789  0.3411 -0.1204
49056SOL    HW154218  10.615   0.441   3.904 -1.7876 -0.8592 -1.4849
49056SOL    HW254219  10.681   0.372   3.787 -0.3759 -2.5976  0.2966
49057SOL     OW54220   3.143   2.777   1.635  0.1540  0.0919  0.2001
49057SOL    HW154221   3.119   2.860   1.675 -0.6915 -0.3908  0.7043
49057SOL    HW254222   3.143   2.795   1.541  0.2529  0.7306  0.3186
49058SOL     OW54223   1.279   1.477  11.952 -0.1307  0.6123  0.2777
49058SOL    HW154224   1.370   1.490  11.979 -0.1649  1.8879 -0.1428
49058SOL    HW254225   1.281   1.401  11.893  0.6378  0.5682  0.3554
49059SOL     OW54226   7.763   9.118   1.234 -0.2570  0.1997  0.3871
49059SOL    HW154227   7.778   9.157   1.148 -1.0263  1.0477  0.6230
49059SOL    HW254228   7.757   9.024   1.216 -0.9396  0.4070 -0.5763
49060SOL     OW54229   2.936   8.759   0.294 -0.5831  0.1651 -0.1247
49060SOL    HW154230   3.016   8.802   0.323  0.9399 -2.2256 -0.5521
49060SOL    HW254231   2.922   8.793   0.205  0.8657 -0.5192 -0.6490
49061SOL     OW54232   9.200  11.621   2.306  1.1561  0.1571  0.1376
49061SOL    HW154233   9.119  11.665   2.331  1.7169  1.5821 -0.4334
49061SOL    HW254234   9.268  11.686   2.322  2.0536 -0.5934 -0.5178
49062SOL     OW54235   6.303  12.176  11.398 -0.3611  0.5259  0.2218
49062SOL    HW154236   6.374  12.147  11.455  0.7255  0.3111 -1.1806
49062SOL    HW254237   6.223  12.152  11.445  0.4952 -0.5732  1.1763
49063SOL     OW54238   5.451   8.099   0.846  0.1451 -0.0716 -0.2241
49063SOL    HW154239   5.544   8.080   0.829 -0.0239 -1.5123  0.3102
49063SOL    HW254240   5.450   8.131   0.936  0.2243  0.8601 -0.5479
49064SOL     OW54241   4.733   1.126   6.342 -0.2426 -0.0294 -0.2293
49064SOL    HW154242   4.775   1.040   6.335  0.0807  0.2021 -1.4304
49064SOL    HW254243   4.662   1.123   6.278 -0.1759  0.6228 -0.3415
49065SOL     OW54244   5.338   8.578   1.893  0.4513  0.1187 -0.1158
49065SOL    HW154245   5.417   8.622   1.926 -0.4599  0.2341  2.0475
49065SOL    HW254246   5.269   8.603   1.954 -1.3361  0.0916 -1.9928
49066SOL     OW54247   5.317  10.533   7.464 -0.4541 -0.5041  0.2148
49066SOL    HW154248   5.291  10.441   7.462  1.1888 -1.0001 -1.3305
49066SOL    HW254249   5.391  10.535   7.526 -1.4065  0.0952  1.3796
49067SOL     OW54250  10.156   2.786   7.079  0.3092  0.1535 -0.4320
49067SOL    HW154251  10.077   2.839   7.083  0.7858  1.0846 -2.1394
49067SOL    HW254252  10.148   2.737   6.997  1.6420  0.5840 -0.8624
49068SOL     OW54253   8.072   5.500  12.006  0.0967 -0.7066 -0.3759
49068SOL    HW154254   8.075   5.529  12.098 -0.0668 -2.9453  0.3936
49068SOL    HW254255   7.986   5.528  11.976  1.1306  2.5005 -0.8162
49069SOL     OW54256   4.478  11.909   7.534  0.5048  0.3055  0.0523
49069SOL    HW154257   4.498  11.992   7.577  1.0649 -0.3700  1.1239
49069SOL    HW254258   4.498  11.842   7.599 -3.3404 -0.5812  0.6024
49070SOL     OW54259   9.820   7.399   3.433  0.2652 -0.0172  0.2968
49070SOL    HW154260   9.910   7.375   3.454  0.7717  1.6019  0.1013
49070SOL    HW254261   9.797   7.467   3.497  0.0982  1.4115 -1.2078
49071SOL     OW54262   2.942  10.335  12.263  0.6555 -0.1587  0.5035
49071SOL    HW154263   3.028  10.302  12.292  0.0152 -1.3684  1.1188
49071SOL    HW254264   2.957  10.428  12.245  2.0831 -0.3320  0.6471
49072SOL     OW54265   2.408   5.237  11.354  0.1807 -0.1238  0.9634
49072SOL    HW154266   2.355   5.159  11.341  1.4891 -0.9831  0.5951
49072SOL    HW254267   2.437   5.231  11.445  2.4515 -1.5464  0.2458
49073SOL     OW54268   5.045   5.810   3.246  0.3697  0.2915 -0.0209
49073SOL    HW154269   5.068   5.717   3.240  0.8974  0.4011  0.1642
49073SOL    HW254270   5.055   5.831   3.339  1.1283  0.7374 -0.1857
49074SOL     OW54271  11.888   9.280  10.075 -0.0853 -0.3340 -0.2977
49074SOL    HW154272  11.973   9.264  10.033 -0.3537  0.2648 -1.0981
49074SOL    HW254273  11.909   9.288  10.168  0.4492 -2.2221 -0.2194
49075SOL     OW54274   4.468   0.058   7.323  0.1930  0.2425  0.5719
49075SOL    HW154275   4.460  -0.009   7.390 -1.1793  0.9350  1.1415
49075SOL    HW254276   4.379   0.091   7.310  0.5326  0.6577 -1.0486
49076SOL     OW54277   8.554   9.340   1.567  0.0876  0.3497  0.1868
49076SOL    HW154278   8.466   9.303   1.581 -0.0872  0.7213  0.0865
49076SOL    HW254279   8.606   9.307   1.640  0.3111 -1.2478 -0.6334
49077SOL     OW54280   2.985   1.545  11.561  0.3719  0.6065 -0.7067
49077SOL    HW154281   2.997   1.569  11.652 -2.0053  0.7754 -0.3806
49077SOL    HW254282   2.910   1.597  11.531  0.5156 -0.1156 -2.4823
49078SOL     OW54283   9.061  11.446   2.084 -0.4311  0.4260  0.4252
49078SOL    HW154284   9.041  11.425   1.992  0.8270  0.5157  0.1131
49078SOL    HW254285   9.003  11.519   2.104 -1.4908 -0.2752  0.0505
49079SOL     OW54286   5.608   1.847   1.524 -0.0268  0.2275  0.0105
49079SOL    HW154287   5.594   1.911   1.594  0.1342 -0.5088  0.7190
49079SOL    HW254288   5.528   1.795   1.523 -0.1357  0.3975 -0.5353
49080SOL     OW54289   8.990  12.119   2.080  0.2755 -0.1094  0.0070
49080SOL    HW154290   8.919  12.156   2.131 -1.8484 -2.3144 -1.1703
49080SOL    HW254291   8.973  12.150   1.991 -0.5272 -2.3502 -0.6684
49081SOL     OW54292  10.873   7.880   5.707  0.1869  0.0219 -0.3356
49081SOL    HW154293  10.921   7.943   5.761 -0.6439 -0.0824  0.5420
49081SOL    HW254294  10.889   7.795   5.749 -0.5557 -0.0439 -0.1746
49082SOL     OW54295   0.647   2.908   4.712  0.3577  0.3992 -0.3833
49082SOL    HW154296   0.641   2.812   4.712  0.7163  0.3777 -0.6147
49082SOL    HW254297   0.598   2.934   4.791 -0.9993  0.1064 -1.0930
49083SOL     OW54298  12.317  11.144  12.364  0.2747 -0.1192 -0.4947
49083SOL    HW154299  12.227  11.112  12.368 -0.0523  0.3388 -2.6968
49083SOL    HW254300  12.369  11.079  12.411 -1.1361 -0.5969  0.4628
49084SOL     OW54301  11.519   8.919  11.983 -0.1325 -0.8571 -0.6911
49084SOL    HW154302  11.598   8.971  11.968 -0.7204 -0.1756 -1.5091
49084SOL    HW254303  11.541   8.833  11.946  0.4295 -0.8595 -0.3743
49085SOL     OW54304   8.486   4.938   1.555  0.0339  0.0495  0.1504
49085SOL    HW154305   8.505   5.018   1.504 -0.0051 -0.3389 -0.4878
49085SOL    HW254306   8.546   4.942   1.629  1.1499 -0.1046 -0.7152
49086SOL     OW54307   9.174   5.117   3.896 -0.0111 -0.4464 -0.0018
49086SOL    HW154308   9.085   5.153   3.896 -0.5519 -1.7264  0.2538
49086SOL    HW254309   9.169   5.042   3.836  0.6219 -1.1650  0.8203
49087SOL     OW54310   4.259   7.558   7.758  0.0504 -0.1516 -0.1684
49087SOL    HW154311   4.351   7.532   7.763  0.3714  0.8988 -0.4403
49087SOL    HW254312   4.243   7.606   7.839  0.3013  1.3651 -0.9897
49088SOL     OW54313   8.421   6.568   4.227  0.6564  0.0130  0.1395
49088SOL    HW154314   8.479   6.501   4.189  1.7414  1.6206 -1.2104
49088SOL    HW254315   8.454   6.580   4.316  1.6805  0.0872 -0.2343
49089SOL     OW54316   4.426   6.528   3.636  0.0812  0.3105 -0.1734
49089SOL    HW154317   4.343   6.574   3.623  0.3794  1.0421  0.3895
49089SOL    HW254318   4.410   6.469   3.710  0.1824  0.7930  0.2434
49090SOL     OW54319   0.643   4.712   4.343 -0.3419  0.2973 -0.2169
49090SOL    HW154320   0.632   4.799   4.381  0.3972 -0.4411  1.8475
49090SOL    HW254321   0.628   4.652   4.417 -1.4229 -1.3687 -1.7022
49091SOL     OW54322   3.876   3.033   1.629 -0.2435  0.3791 -0.4875
49091SOL    HW154323   3.815   2.959   1.626 -0.2928  0.4150 -0.3364
49091SOL    HW254324   3.821   3.111   1.620 -0.2408  0.4216 -0.1247
49092SOL     OW54325  10.501   8.222   2.313 -0.1647  0.0834 -0.0527
49092SOL    HW154326  10.502   8.148   2.253  1.2530 -0.2026  0.2960
49092SOL    HW254327  10.434   8.200   2.378  0.2537 -0.9057  0.0533
49093SOL     OW54328   1.398  10.832   8.915 -0.0567 -0.7829 -0.1650
49093SOL    HW154329   1.327  10.771   8.934 -0.0658 -0.7148  0.0185
49093SOL    HW254330   1.353  10.914   8.893 -0.1535 -1.3855 -2.5681
49094SOL     OW54331   6.885   6.254  10.545  0.0485 -0.4284  0.2456
49094SOL    HW154332   6.932   6.172  10.532 -0.0789 -0.2353 -1.6065
49094SOL    HW254333   6.892   6.300  10.462 -0.8162  0.9662  0.9060
49095SOL     OW54334   1.858  11.055   2.545  0.1487 -0.4783  0.3581
49095SOL    HW154335   1.797  10.981   2.542 -0.5583  0.0467  1.3118
49095SOL    HW254336   1.802  11.132   2.548  0.8775  0.1589 -1.2911
49096SOL     OW54337   5.914  10.131   9.653  0.1694  0.5681 -0.1597
49096SOL    HW154338   5.882  10.052   9.696 -0.8194  0.6726 -0.6774
49096SOL    HW254339   5.953  10.183   9.723 -0.7284  0.3924  0.4842
49097SOL     OW54340  10.446   6.165  11.104  0.1348  0.9054  0.3477
49097SOL    HW154341  10.441   6.241  11.163 -1.4406  0.2482  1.1236
49097SOL    HW254342  10.463   6.091  11.162 -1.7278  0.2029  0.0588
49098SOL     OW54343  10.386   6.481   0.410 -0.5074  0.1068 -0.1647
49098SOL    HW154344  10.357   6.534   0.485  0.4265  1.5050 -0.7318
49098SOL    HW254345  10.480   6.502   0.402 -0.3856 -0.7562 -1.1297
49099SOL     OW54346   1.728  10.840   3.248 -0.3557  0.0981 -0.0072
49099SOL    HW154347   1.717  10.789   3.328  0.7484 -0.2196 -0.0409
49099SOL    HW254348   1.762  10.924   3.279 -0.4560  0.1754 -0.1044
49100SOL     OW54349   7.840   6.321  12.068  0.1202  0.5712 -0.2885
49100SOL    HW154350   7.838   6.226  12.056  0.6672  0.5887 -0.5374
49100SOL    HW254351   7.926   6.347  12.036 -0.3112  1.2447 -0.9088
49101SOL     OW54352   9.788   1.294   5.432 -0.1289  0.2693  0.6202
49101SOL    HW154353   9.702   1.287   5.473  0.6280 -1.4330  2.0609
49101SOL    HW254354   9.799   1.211   5.385  0.9926  0.1592  1.0478
49102SOL     OW54355   1.305   4.183   4.770  0.1522 -0.7655 -0.3311
49102SOL    HW154356   1.248   4.114   4.805  0.2875 -0.2318  1.0288
49102SOL    HW254357   1.311   4.164   4.677 -1.1769 -1.6058 -0.2805
49103SOL     OW54358   3.844   3.296   9.190  0.6356  0.1231  0.5745
49103SOL    HW154359   3.839   3.250   9.106  1.0280  1.3718 -0.1691
49103SOL    HW254360   3.753   3.313   9.214  0.5323  0.1938  0.1412
49104SOL     OW54361  11.274   1.664  11.137  0.5172 -0.0232 -0.3895
49104SOL    HW154362  11.188   1.695  11.110 -0.6857 -1.9477  0.9616
49104SOL    HW254363  11.301   1.604  11.067 -0.2483 -1.0535  0.1713
49105SOL     OW54364   6.311  11.518  11.203 -0.2396 -0.6204  0.5402
49105SOL    HW154365   6.280  11.546  11.289  0.8527  0.5036  0.5861
49105SOL    HW254366   6.336  11.599  11.159 -0.2918 -1.2301 -0.6511
49106SOL     OW54367   4.956   1.612   9.198  0.0298 -0.8344 -0.2375
49106SOL    HW154368   4.971   1.694   9.151 -1.5239 -0.9101 -0.9416
49106SOL    HW254369   4.921   1.639   9.284 -1.7273 -0.7174 -0.9371
49107SOL     OW54370   5.271   1.530   9.224 -0.4139 -0.1667  0.0954
49107SOL    HW154371   5.271   1.608   9.279 -1.4138  1.9066 -2.5763
49107SOL    HW254372   5.184   1.531   9.183  0.0996 -1.8330 -1.1330
49108SOL     OW54373  10.606   2.199  10.784  0.5575 -0.0052  0.4751
49108SOL    HW154374  10.672   2.269  10.779  1.0718 -0.5004  0.2489
49108SOL    HW254375  10.571   2.192  10.696  0.5406 -0.0605  0.4859
49109SOL     OW54376   2.181   3.600   3.694 -0.1228 -1.0473  0.0724
49109SOL    HW154377   2.228   3.680   3.669  0.4870 -1.5631 -0.4392
49109SOL    HW254378   2.106   3.596   3.635  0.1036 -1.1015 -0.2096
49110SOL     OW54379   9.243  12.225   8.822 -0.0514  0.6310  0.0504
49110SOL    HW154380   9.203  12.232   8.909 -1.4085 -1.4311 -0.3235
49110SOL    HW254381   9.256  12.316   8.794 -2.7370  1.4273  1.0427
49111SOL     OW54382   7.146  12.059   5.623  0.1489  0.3595 -0.0740
49111SOL    HW154383   7.201  12.061   5.702  0.9328 -0.1366 -0.5901
49111SOL    HW254384   7.056  12.057   5.656  0.4773 -2.2642  0.8832
49112SOL     OW54385   7.577   7.633   8.677 -0.0078  0.0408 -0.4703
49112SOL    HW154386   7.492   7.627   8.634 -0.1527 -0.2857 -0.1428
49112SOL    HW254387   7.641   7.616   8.607 -0.0992  2.1656 -1.1569
49113SOL     OW54388   0.975  11.848  10.063 -0.3182 -0.0976 -0.3013
49113SOL    HW154389   0.928  11.802  10.132  0.5611 -1.5417 -0.6278
49113SOL    HW254390   1.059  11.871  10.102 -0.6379  1.0074 -0.2352
49114SOL     OW54391   8.072   1.642   6.803 -0.1540 -0.0988  0.7879
49114SOL    HW154392   8.028   1.720   6.769  0.5650  0.5368  1.2870
49114SOL    HW254393   8.003   1.577   6.811 -0.9567  0.8030  1.3178
49115SOL     OW54394   8.349   6.479   1.457 -0.3199 -0.8272  0.4471
49115SOL    HW154395   8.288   6.492   1.530 -1.1065 -1.2183 -0.1169
49115SOL    HW254396   8.406   6.408   1.487 -0.2098 -0.5380  0.9383
49116SOL     OW54397   3.879  10.861   5.597  0.4765  0.1274  0.2651
49116SOL    HW154398   3.873  10.855   5.502 -1.2873 -1.1787  0.3982
49116SOL    HW254399   3.971  10.881   5.614  0.8150  0.4665 -1.7023
49117SOL     OW54400   1.378   9.938   3.666 -0.1667 -0.4649 -0.1813
49117SOL    HW154401   1.305   9.994   3.639  1.3047  1.0132 -1.2828
49117SOL    HW254402   1.398   9.967   3.755 -2.5385 -2.7188  1.2551
49118SOL     OW54403   7.174   9.876   8.776 -0.2152 -0.0724  0.4039
49118SOL    HW154404   7.195   9.902   8.865  0.5680 -0.1031  0.2289
49118SOL    HW254405   7.154   9.782   8.782 -0.7380  0.0461  0.6364
49119SOL     OW54406   2.171   1.908   2.069  0.0406 -0.4983  0.0034
49119SOL    HW154407   2.224   1.922   1.991  1.8077 -0.4222  1.1466
49119SOL    HW254408   2.208   1.828   2.108 -0.3624 -0.1624  1.1027
49120SOL     OW54409   4.395  11.675   8.002 -0.2330  0.2414 -0.5082
49120SOL    HW154410   4.411  11.712   8.089 -1.9273  2.2116 -0.9592
49120SOL    HW254411   4.349  11.593   8.019  1.8296 -0.8032  0.4665
49121SOL     OW54412   2.819   9.726   2.585  0.0352  0.1896 -0.1854
49121SOL    HW154413   2.733   9.767   2.584 -0.3737 -0.6422  0.1151
49121SOL    HW254414   2.870   9.777   2.648  0.2061  1.5254 -1.3477
49122SOL     OW54415  11.358   0.465   2.597 -0.1462 -0.7076  0.1467
49122SOL    HW154416  11.452   0.467   2.617 -0.1952 -1.7032  0.5203
49122SOL    HW254417  11.343   0.381   2.554 -0.3411  0.7357 -2.8404
49123SOL     OW54418   7.560   3.521   0.872 -0.1321 -0.7525 -0.2289
49123SOL    HW154419   7.465   3.513   0.870 -0.1840 -0.6465  0.9774
49123SOL    HW254420   7.591   3.455   0.811 -0.9461 -1.6726  0.3329
49124SOL     OW54421   3.155   7.949  11.361 -0.0085  0.1478 -0.5137
49124SOL    HW154422   3.098   7.990  11.426  0.7206 -0.1793  0.3646
49124SOL    HW254423   3.105   7.951  11.280 -1.4176 -0.4958  0.3097
49125SOL     OW54424   7.924   0.485   0.442 -0.2359 -0.1269 -0.3510
49125SOL    HW154425   7.975   0.405   0.428 -2.2380 -1.1111 -3.0403
49125SOL    HW254426   7.946   0.540   0.366 -1.5042  0.3443 -0.3912
49126SOL     OW54427   2.241   4.300   5.889  0.5259  0.4846  0.3833
49126SOL    HW154428   2.273   4.246   5.817 -1.7897 -0.3375 -0.1262
49126SOL    HW254429   2.191   4.239   5.944  0.7395  1.4608  1.7070
49127SOL     OW54430   9.932   7.877   5.799  0.6764  0.2553 -0.3891
49127SOL    HW154431   9.958   7.841   5.884 -0.0023  0.4003 -0.1065
49127SOL    HW254432  10.007   7.928   5.770  1.5392 -1.1302 -0.6553
49128SOL     OW54433   3.212  11.140  11.343  0.3644  0.5386  0.2858
49128SOL    HW154434   3.139  11.128  11.403 -0.2469 -0.1988 -0.5630
49128SOL    HW254435   3.179  11.108  11.259  0.4938  3.3374 -0.9449
49129SOL     OW54436   2.049  11.216   8.461 -0.2505  0.5728  0.2812
49129SOL    HW154437   2.138  11.191   8.437 -0.7187 -1.2191  0.3217
49129SOL    HW254438   1.999  11.206   8.380 -0.5335  1.0228  0.3975
49130SOL     OW54439  11.915   4.966   6.410  0.9265  0.3507 -0.3329
49130SOL    HW154440  11.995   5.015   6.396  1.5079 -0.7681 -1.0569
49130SOL    HW254441  11.863   4.981   6.331  0.1931  1.4565  0.3356
49131SOL     OW54442   7.167   0.452   4.095  0.1632 -0.2014 -0.3518
49131SOL    HW154443   7.183   0.443   4.001 -0.5368  2.5812 -0.8442
49131SOL    HW254444   7.229   0.519   4.123 -1.1193  0.5958  0.6710
49132SOL     OW54445   6.035  11.985   6.792  0.3500 -0.1762 -0.1703
49132SOL    HW154446   5.993  11.953   6.712 -0.4873  1.8391 -0.5987
49132SOL    HW254447   5.962  12.003   6.852  0.9497 -1.3517  0.9653
49133SOL     OW54448   7.571   4.188   1.775  0.1804  0.6172  0.3011
49133SOL    HW154449   7.626   4.239   1.834 -0.2375  1.5764 -0.1044
49133SOL    HW254450   7.482   4.208   1.802  0.0078  0.0927  0.1320
49134SOL     OW54451   4.702   8.227   2.252 -0.0278 -0.3472  0.0323
49134SOL    HW154452   4.751   8.287   2.309  0.1397 -0.3969 -0.0598
49134SOL    HW254453   4.617   8.218   2.295 -0.0194 -0.1223  0.1003
49135SOL     OW54454  11.076  11.948  10.054 -0.2339 -0.5554  0.3222
49135SOL    HW154455  11.120  11.873  10.092 -0.4051 -0.6045  0.4243
49135SOL    HW254456  11.026  11.912   9.980 -0.7395 -0.6319  0.6925
49136SOL     OW54457   1.159   3.820  11.182 -0.0483  0.1369  0.1615
49136SOL    HW154458   1.226   3.888  11.190 -0.1656  0.1686  1.0104
49136SOL    HW254459   1.185   3.754  11.247 -1.9366  1.0980  1.9737
49137SOL     OW54460   1.247   0.815  12.438  0.0930  0.0753 -0.1797
49137SOL    HW154461   1.335   0.824  12.473 -0.2006  1.6361  0.2043
49137SOL    HW254462   1.239   0.884  12.373 -1.5104  1.3262  1.2595
49138SOL     OW54463   1.500   1.327   1.877 -0.1923 -0.3979  0.6839
49138SOL    HW154464   1.429   1.388   1.855 -1.6937 -1.6202  1.8853
49138SOL    HW254465   1.525   1.288   1.793  0.3202  1.3350  0.0000
49139SOL     OW54466  11.115   9.090   1.732 -0.7671 -0.0160 -0.5364
49139SOL    HW154467  11.112   9.144   1.653 -0.1653  1.5761  0.4755
49139SOL    HW254468  11.054   9.019   1.715 -0.3459  0.0450 -2.5950
49140SOL     OW54469   7.026   7.072   1.086  0.5694  0.8014 -0.2953
49140SOL    HW154470   6.992   6.995   1.039  1.3338 -0.1601  0.6526
49140SOL    HW254471   6.970   7.080   1.162  2.1871 -0.6462  1.1472
49141SOL     OW54472   2.800  11.135   8.598 -0.4592 -0.0018 -0.5523
49141SOL    HW154473   2.765  11.081   8.527  0.5556 -0.2421 -0.8930
49141SOL    HW254474   2.861  11.077   8.645 -1.2703  0.0867  0.6613
49142SOL     OW54475   9.761   8.356  10.319  0.6873 -0.5576  0.0226
49142SOL    HW154476   9.811   8.397  10.248 -0.3310 -1.1822 -1.1128
49142SOL    HW254477   9.727   8.429  10.370 -0.0987 -0.0075 -1.2511
49143SOL     OW54478  10.519   5.266   1.138  0.4816  0.0472  0.6363
49143SOL    HW154479  10.545   5.354   1.165  0.4706 -0.0674  1.0212
49143SOL    HW254480  10.513   5.217   1.219  0.2899 -0.2582  0.4378
49144SOL     OW54481   9.553   2.792   9.290 -0.4199 -0.0899 -0.3400
49144SOL    HW154482   9.584   2.736   9.219  0.3838 -0.5450  0.3512
49144SOL    HW254483   9.533   2.732   9.362 -0.2488  0.4367  0.1602
49145SOL     OW54484   5.717   3.685   1.818 -0.2029 -0.2192 -0.1596
49145SOL    HW154485   5.693   3.772   1.851  0.6178  0.1656 -0.5472
49145SOL    HW254486   5.651   3.627   1.854  0.5370  0.2008  2.0301
49146SOL     OW54487   4.889  10.758   1.079  0.2389 -0.5935 -0.0916
49146SOL    HW154488   4.819  10.702   1.045 -1.7625  1.5696  0.1764
49146SOL    HW254489   4.926  10.801   1.002 -0.7933  0.4583 -0.0304
49147SOL     OW54490   8.693   5.595   0.077 -0.1417 -0.4900  0.0671
49147SOL    HW154491   8.697   5.621   0.169  0.4824  0.0679 -0.1114
49147SOL    HW254492   8.607   5.625   0.048  0.2705  0.7271  0.0626
49148SOL     OW54493   6.349   2.945   8.295 -0.2856  0.6608  0.0782
49148SOL    HW154494   6.435   2.986   8.293  0.2208 -0.3679  0.2393
49148SOL    HW254495   6.290   3.012   8.260  0.8289  0.8007 -1.6534
49149SOL     OW54496   0.697   7.442   1.523  0.2765  0.0757 -0.3509
49149SOL    HW154497   0.643   7.522   1.522  1.0864  0.6207 -1.2191
49149SOL    HW254498   0.747   7.449   1.604 -0.1367  0.1234 -0.0965
49150SOL     OW54499   6.953   9.169   8.323  0.2140 -0.3605  0.2865
49150SOL    HW154500   6.979   9.085   8.362 -1.2569 -1.0133 -0.0548
49150SOL    HW254501   7.027   9.192   8.266  0.6205 -1.4578  0.3356
49151SOL     OW54502   8.160  10.980   2.794 -0.3101  0.2526 -0.2220
49151SOL    HW154503   8.138  11.072   2.777  1.1562  0.9984  1.6350
49151SOL    HW254504   8.131  10.965   2.884 -0.1607 -0.9917 -0.3735
49152SOL     OW54505   1.890  10.599   2.660 -0.5553 -0.0124 -0.1915
49152SOL    HW154506   1.815  10.578   2.604 -0.8294 -0.4651  0.3393
49152SOL    HW254507   1.967  10.580   2.605 -0.8213  0.9797 -0.9308
49153SOL     OW54508  10.915   1.153   1.575 -0.0893 -0.1165  0.1730
49153SOL    HW154509  10.986   1.095   1.549  0.8636  1.5195 -0.9920
49153SOL    HW254510  10.951   1.241   1.567 -1.1801  0.6805  2.7946
49154SOL     OW54511   5.592   1.268   5.508 -0.3719  0.0888  0.0766
49154SOL    HW154512   5.515   1.324   5.507  0.1536  0.8217 -0.1943
49154SOL    HW254513   5.622   1.267   5.417 -1.6230 -2.4142 -0.3815
49155SOL     OW54514   0.635   6.817  11.321  0.4838  0.2332  0.0420
49155SOL    HW154515   0.576   6.822  11.397 -0.0214 -1.2414 -0.2315
49155SOL    HW254516   0.589   6.761  11.258  1.7669 -0.1936 -0.5459
49156SOL     OW54517  10.145   9.471   1.413  0.0018 -0.1900  0.2779
49156SOL    HW154518  10.090   9.530   1.362  0.8069 -0.3967 -0.8572
49156SOL    HW254519  10.184   9.527   1.480  2.1370  1.0250 -1.8345
49157SOL     OW54520   6.097   9.072  11.765 -0.3199  0.4445 -0.1160
49157SOL    HW154521   6.149   9.150  11.788  0.0067  0.4352 -0.8064
49157SOL    HW254522   6.025   9.106  11.711 -0.2610  0.2857 -0.2952
49158SOL     OW54523  11.194   2.856   9.773  0.3666 -0.4413  0.0845
49158SOL    HW154524  11.178   2.929   9.833 -0.5901  1.6880 -2.5721
49158SOL    HW254525  11.108   2.834   9.738  0.8588 -1.8040 -0.3316
49159SOL     OW54526  12.435   2.155   8.329  0.3861  0.0279  0.0239
49159SOL    HW154527  12.392   2.198   8.403 -0.2688 -0.4355 -0.0787
49159SOL    HW254528  12.476   2.077   8.367  1.5041  0.6715  0.1955
49160SOL     OW54529   3.726  10.412   3.575  0.2981 -0.6080  0.1570
49160SOL    HW154530   3.672  10.442   3.648  0.8787 -0.1329  0.4044
49160SOL    HW254531   3.804  10.467   3.580  0.4914 -0.8088 -0.6180
49161SOL     OW54532   1.222  10.208   3.368 -0.8330  0.7861  0.2277
49161SOL    HW154533   1.268  10.290   3.349 -1.4386  1.0727 -0.0238
49161SOL    HW254534   1.152  10.204   3.302 -0.8046  0.0636  0.2294
49162SOL     OW54535   4.802   8.960   9.644  0.3749 -0.2831 -0.0064
49162SOL    HW154536   4.779   9.049   9.615  0.2071 -0.1692  0.4607
49162SOL    HW254537   4.867   8.973   9.712  0.1646 -0.5052  0.2415
49163SOL     OW54538  12.170   7.956   0.215 -0.0324  0.2598  0.1356
49163SOL    HW154539  12.127   7.888   0.267  0.9611 -0.1798  0.4021
49163SOL    HW254540  12.262   7.951   0.240 -0.0473  2.2334  0.7530
49164SOL     OW54541   4.985   3.335   6.962  0.0154  0.4782  0.2140
49164SOL    HW154542   5.061   3.285   6.933  0.2672  2.6369 -3.3876
49164SOL    HW254543   5.017   3.425   6.968 -1.2550  0.8445  3.1639
49165SOL     OW54544   9.131  10.244  10.597 -0.0402  0.0120  0.0990
49165SOL    HW154545   9.226  10.241  10.603  0.1456  1.4683 -1.2905
49165SOL    HW254546   9.105  10.315  10.655 -0.3910 -0.8950  1.0937
49166SOL     OW54547  11.015   5.745  11.980  0.4616  0.3254 -0.2236
49166SOL    HW154548  10.983   5.798  11.908  0.2427 -2.6102 -2.4507
49166SOL    HW254549  10.946   5.681  11.997  1.9639 -1.2940  0.1211
49167SOL     OW54550   6.881   9.177   1.090 -0.3059  0.3600 -0.6295
49167SOL    HW154551   6.797   9.199   1.050 -0.5921  1.2912  0.4106
49167SOL    HW254552   6.931   9.134   1.020 -0.5324  2.4746 -2.1888
49168SOL     OW54553  12.320  10.644   3.047  0.3897 -0.1307 -0.3154
49168SOL    HW154554  12.379  10.576   3.080  0.4755  0.7939  1.5973
49168SOL    HW254555  12.356  10.669   2.963  1.9231 -0.5691  0.1801
49169SOL     OW54556  10.658   3.643   5.754 -0.0154 -0.0873 -0.3263
49169SOL    HW154557  10.728   3.580   5.738  1.1718  1.8556 -4.0220
49169SOL    HW254558  10.577   3.592   5.750  1.0128 -1.8680  0.6509
49170SOL     OW54559   3.957   2.640   2.695 -0.3561 -0.0053  0.2988
49170SOL    HW154560   3.958   2.635   2.791  0.6886  0.2179  0.3135
49170SOL    HW254561   3.968   2.550   2.666  0.2539  0.0281  0.4066
49171SOL     OW54562   8.663  11.485  10.319  0.1966  0.2774  0.3706
49171SOL    HW154563   8.693  11.466  10.408 -0.5888 -1.0557  0.3806
49171SOL    HW254564   8.738  11.527  10.277  0.2944  1.6956  1.8843
49172SOL     OW54565   8.630   8.144   8.201 -0.3855 -0.4210 -0.1515
49172SOL    HW154566   8.676   8.148   8.285 -1.3960  0.6817  0.3781
49172SOL    HW254567   8.682   8.084   8.148  1.3748  0.3699  0.5962
49173SOL     OW54568   6.595   9.323   4.561  0.3001 -0.2555  0.4770
49173SOL    HW154569   6.650   9.281   4.628 -0.9137 -0.9892  1.0706
49173SOL    HW254570   6.512   9.340   4.607  0.1602  1.1916 -0.2707
49174SOL     OW54571   0.038   3.418   3.934 -0.2396 -0.2738  0.1400
49174SOL    HW154572   0.074   3.467   3.861  1.7506 -0.1215  1.1530
49174SOL    HW254573   0.008   3.485   3.996  1.5481 -0.2603  1.0713
49175SOL     OW54574  11.194   2.484   8.048 -0.4028  0.1513  0.3287
49175SOL    HW154575  11.210   2.527   7.965 -1.8593 -1.3913 -0.8119
49175SOL    HW254576  11.120   2.531   8.087  0.4165  1.0098  0.8906
49176SOL     OW54577   3.646   7.283   2.993 -0.2856 -0.2901 -0.3251
49176SOL    HW154578   3.586   7.337   2.942  0.4456 -0.5054 -1.4451
49176SOL    HW254579   3.703   7.241   2.928  2.8635  1.9326  0.7076
49177SOL     OW54580   9.133   2.588   1.338  0.2843 -0.0340 -0.3325
49177SOL    HW154581   9.103   2.609   1.427 -1.3956 -0.6013 -0.7350
49177SOL    HW254582   9.178   2.504   1.348 -0.3420 -0.3477 -0.0821
49178SOL     OW54583   3.916   8.520  12.345  0.3890 -0.7134  0.3525
49178SOL    HW154584   3.907   8.450  12.410  0.6470 -1.2684 -0.2002
49178SOL    HW254585   3.973   8.584  12.387 -1.7422  0.3276  1.8019
49179SOL     OW54586   9.546   8.178   5.086 -0.1009 -0.3891 -0.0490
49179SOL    HW154587   9.536   8.263   5.042  0.4517  0.6471  1.7417
49179SOL    HW254588   9.640   8.172   5.104 -0.3869 -0.5256  1.4545
49180SOL     OW54589   3.481   8.796   3.226 -0.3300  0.1357  0.3897
49180SOL    HW154590   3.432   8.754   3.156  1.2472 -0.0617 -0.6458
49180SOL    HW254591   3.414   8.825   3.288 -1.6267 -1.5190 -0.1628
49181SOL     OW54592   6.701   5.711  11.569  0.4925 -0.1305  0.1419
49181SOL    HW154593   6.752   5.632  11.552 -0.9860 -1.2111  0.4564
49181SOL    HW254594   6.619   5.679  11.607 -0.3104  1.5309 -0.0654
49182SOL     OW54595  10.908  12.179   1.000  0.1849 -0.4955  0.4805
49182SOL    HW154596  10.956  12.248   1.046 -1.1311  0.1356  0.9790
49182SOL    HW254597  10.836  12.226   0.956  1.3078 -1.0770 -2.1921
49183SOL     OW54598   6.062   7.363  11.641  0.4797  0.2854 -0.2634
49183SOL    HW154599   6.008   7.303  11.589 -2.2872  1.2401  1.3110
49183SOL    HW254600   6.114   7.306  11.697 -1.8401 -0.7574  0.9737
49184SOL     OW54601   1.508   3.389   3.979  0.8921 -1.2825  0.1357
49184SOL    HW154602   1.417   3.406   3.955  1.2974 -0.7573 -1.1291
49184SOL    HW254603   1.506   3.375   4.074  0.1351  3.3544  1.0480
49185SOL     OW54604   1.455   4.905  12.330 -0.2999 -0.2593 -0.1956
49185SOL    HW154605   1.477   4.997  12.316 -1.1913  0.0474  0.3245
49185SOL    HW254606   1.512   4.877  12.402 -1.8613  0.6558  1.4673
49186SOL     OW54607   9.366   7.340   5.894 -0.8738  0.0605  0.6032
49186SOL    HW154608   9.280   7.305   5.869  0.1098 -0.0369 -3.4351
49186SOL    HW254609   9.423   7.317   5.821  1.6209  3.6444  1.1540
49187SOL     OW54610   8.856   0.737   7.242 -0.3338  0.6340 -0.2623
49187SOL    HW154611   8.869   0.742   7.147  1.3094  2.9830 -0.0014
49187SOL    HW254612   8.796   0.808   7.262 -1.9184 -0.8159  0.3425
49188SOL     OW54613   8.148   2.810  10.526 -0.9937  0.6462 -0.1665
49188SOL    HW154614   8.131   2.898  10.491  0.1465  1.1889  0.5696
49188SOL    HW254615   8.225   2.821  10.582 -0.4745 -0.9499 -0.5090
49189SOL     OW54616  11.343   2.137   4.106  0.2259  0.5268  0.4253
49189SOL    HW154617  11.324   2.049   4.138  0.9861  0.3615  0.4326
49189SOL    HW254618  11.347   2.126   4.011 -2.4047  1.0859  0.1639
49190SOL     OW54619  12.273   1.759   9.373  0.8280  0.3168 -0.7260
49190SOL    HW154620  12.353   1.711   9.351  0.4846 -2.2743  2.7156
49190SOL    HW254621  12.231   1.704   9.439 -2.3390  3.0222 -0.2768
49191SOL     OW54622   0.610   7.425   4.479 -0.0788 -0.8094  0.0962
49191SOL    HW154623   0.546   7.355   4.464 -2.0449  0.4138  2.1647
49191SOL    HW254624   0.654   7.435   4.395 -2.6060 -1.7218 -1.4641
49192SOL     OW54625  10.014   7.186   6.299  0.5545  0.2359 -0.2275
49192SOL    HW154626   9.931   7.231   6.284  1.1195  0.5817 -3.0220
49192SOL    HW254627   9.999   7.098   6.264  0.3880 -0.8625  2.4045
49193SOL     OW54628   8.079   9.471   7.124  0.3254 -0.2640  0.2669
49193SOL    HW154629   8.082   9.504   7.035 -0.7560 -0.6108  0.0874
49193SOL    HW254630   8.067   9.548   7.179 -0.9891 -0.2186 -0.0561
49194SOL     OW54631  10.844   6.594   1.540  0.4656  0.2553 -0.3375
49194SOL    HW154632  10.912   6.526   1.545 -0.2177 -0.3809  1.8428
49194SOL    HW254633  10.763   6.545   1.526  0.1794  0.7751 -0.5024
49195SOL     OW54634   7.663  11.521   9.119  0.3121 -0.0132 -0.3075
49195SOL    HW154635   7.603  11.480   9.057 -2.8821  2.4766  0.8314
49195SOL    HW254636   7.702  11.593   9.070 -1.3470  1.2517  0.1235
49196SOL     OW54637   9.310   7.491   3.205  0.2903  0.0725 -0.0095
49196SOL    HW154638   9.289   7.399   3.225  0.0124  0.2227  0.3888
49196SOL    HW254639   9.404   7.489   3.186  0.6159 -0.0613  1.4641
49197SOL     OW54640   6.529   8.480   3.086  0.3905  0.3105 -0.1971
49197SOL    HW154641   6.475   8.450   3.012 -0.9475  0.1363  0.8104
49197SOL    HW254642   6.572   8.400   3.117  3.2351  0.7918 -2.4665
49198SOL     OW54643   1.557   1.909   9.526  0.3792  0.0236  0.4379
49198SOL    HW154644   1.535   1.904   9.433 -2.1720 -1.4213  1.0364
49198SOL    HW254645   1.487   1.959   9.566  0.8782 -0.2545  1.7398
49199SOL     OW54646   5.524   8.334   2.773  0.1120 -0.2457  0.2266
49199SOL    HW154647   5.458   8.266   2.786 -1.7340  0.8285 -2.5784
49199SOL    HW254648   5.476   8.416   2.782  1.2024  0.5906 -1.1479
49200SOL     OW54649   3.048   1.055   3.346 -0.0888  0.1217 -0.9198
49200SOL    HW154650   2.974   1.053   3.406  0.2924 -0.0080 -0.4499
49200SOL    HW254651   3.114   1.000   3.388  0.2181  0.1138 -1.4092
49201SOL     OW54652  12.115   5.326   7.077 -0.3057 -0.3013  0.1333
49201SOL    HW154653  12.187   5.334   7.014  0.5006  2.4438  1.2744
49201SOL    HW254654  12.154   5.283   7.153  0.4655  1.9194  1.0752
49202SOL     OW54655   2.419   6.180   9.613  0.1993  0.3789  0.7197
49202SOL    HW154656   2.445   6.250   9.553 -1.0245  0.9412  0.8171
49202SOL    HW254657   2.475   6.106   9.589  2.1740  1.6198  1.2043
49203SOL     OW54658  10.050  12.088   1.587  0.7092 -0.0142  0.4812
49203SOL    HW154659  10.113  12.033   1.541  0.3938  0.7766 -0.9699
49203SOL    HW254660  10.025  12.155   1.522 -2.0108 -0.6089  0.8015
49204SOL     OW54661   5.675   0.246   0.354  0.5830 -0.9526  0.0064
49204SOL    HW154662   5.768   0.260   0.372  0.7175 -2.4756  0.6546
49204SOL    HW254663   5.633   0.250   0.440  0.1876 -1.2235 -0.1678
49205SOL     OW54664  11.552   6.249   4.405  0.2157 -0.5284 -0.6382
49205SOL    HW154665  11.464   6.228   4.375  0.2392 -1.7631  0.0903
49205SOL    HW254666  11.609   6.188   4.358  0.3565 -1.7557  1.0288
49206SOL     OW54667   2.986   1.126  11.366 -0.0423 -0.9652 -0.6206
49206SOL    HW154668   2.982   1.057  11.299 -0.9044 -2.2028  0.6373
49206SOL    HW254669   2.973   1.079  11.449  0.4485  0.5875  0.3736
49207SOL     OW54670   1.103   0.498   0.639 -0.0209 -0.2393  0.1431
49207SOL    HW154671   1.036   0.460   0.582 -0.5270 -0.7593  1.0468
49207SOL    HW254672   1.185   0.458   0.610 -0.3625 -1.0108  0.1993
49208SOL     OW54673   7.095   3.840   1.883 -0.2558 -0.1106  0.3479
49208SOL    HW154674   7.009   3.828   1.922 -0.8710  0.4544 -0.7764
49208SOL    HW254675   7.134   3.912   1.933 -0.3530 -0.5037  0.9893
49209SOL     OW54676   1.099   6.881   5.136  0.3344  0.1755 -0.0739
49209SOL    HW154677   1.103   6.919   5.048  0.9152  0.6961  0.1750
49209SOL    HW254678   1.144   6.797   5.127  2.1529  1.0812  0.1516
49210SOL     OW54679   6.075   3.650   4.059  0.2236  0.2347  0.2380
49210SOL    HW154680   6.115   3.705   3.993 -1.4430  0.7692 -0.3656
49210SOL    HW254681   6.116   3.677   4.141  0.9142  0.9213 -0.3231
49211SOL     OW54682   8.468   8.063   2.633 -0.4035  0.3689  0.3808
49211SOL    HW154683   8.477   7.994   2.567  2.0638  0.9620 -0.0124
49211SOL    HW254684   8.459   8.016   2.716  0.2813 -0.4446  0.0122
49212SOL     OW54685   7.317   0.634  10.663  0.5737 -0.0764  0.1230
49212SOL    HW154686   7.351   0.622  10.752  0.9998 -0.0817 -0.0383
49212SOL    HW254687   7.356   0.563  10.613 -1.2359 -1.2786  0.3449
49213SOL     OW54688   7.961   4.415   3.834 -0.6197 -0.4825  0.0422
49213SOL    HW154689   7.945   4.501   3.872 -0.6082 -0.4510 -0.0228
49213SOL    HW254690   7.903   4.411   3.758 -1.5699 -1.0427  0.7856
49214SOL     OW54691  11.389   4.860  12.165  0.2372  0.6189 -0.3279
49214SOL    HW154692  11.431   4.908  12.236 -1.4259 -0.7885  1.7192
49214SOL    HW254693  11.320   4.918  12.133 -0.2174  0.5467  0.5034
49215SOL     OW54694   6.849   4.851  11.700 -0.1887 -0.2298 -0.4815
49215SOL    HW154695   6.890   4.771  11.670 -0.0558 -0.1141 -0.6098
49215SOL    HW254696   6.910   4.920  11.676 -1.1850  0.1244 -2.1723
49216SOL     OW54697   4.040   1.937   9.284 -0.6577  0.1715 -0.3056
49216SOL    HW154698   3.995   1.872   9.231  0.0379  0.8804 -1.8541
49216SOL    HW254699   3.972   1.997   9.313 -1.1106 -0.4872  0.0130
49217SOL     OW54700   1.207   7.364   5.307  0.0211 -0.2702  0.8425
49217SOL    HW154701   1.223   7.269   5.312 -0.1273 -0.2954  0.8484
49217SOL    HW254702   1.246   7.391   5.224 -0.3113 -0.4103  0.6378
49218SOL     OW54703   0.892   1.241   3.692  0.4282  0.0844 -0.4100
49218SOL    HW154704   0.962   1.179   3.709  0.4636  0.6438  1.8002
49218SOL    HW254705   0.935   1.327   3.695 -0.3542  0.4699  1.5222
49219SOL     OW54706   2.625   7.785   5.445  0.0046  0.1206  0.1137
49219SOL    HW154707   2.622   7.716   5.378 -0.5600  0.3314 -0.0823
49219SOL    HW254708   2.572   7.856   5.409 -1.9883 -0.5021  1.5989
49220SOL     OW54709   7.069  10.829   8.233 -0.1936 -0.1794  0.7826
49220SOL    HW154710   6.979  10.797   8.228 -0.2011  0.0164 -0.7088
49220SOL    HW254711   7.115  10.765   8.288 -0.7049 -1.5729 -0.3564
49221SOL     OW54712   9.163  12.204   5.207  0.2352 -0.1154  0.4898
49221SOL    HW154713   9.244  12.222   5.158 -0.3043  1.1606  0.0166
49221SOL    HW254714   9.110  12.282   5.194 -1.0328 -0.8859  0.9053
49222SOL     OW54715   3.827   7.825   7.381  0.2747 -0.2091 -0.1360
49222SOL    HW154716   3.840   7.748   7.437 -1.6486 -0.8915 -0.5855
49222SOL    HW254717   3.776   7.794   7.307  1.1251  1.1098 -1.3346
49223SOL     OW54718   9.836   1.842   4.002 -0.3356  0.2102 -0.2681
49223SOL    HW154719   9.890   1.775   4.044  0.1426  0.8866  0.2115
49223SOL    HW254720   9.851   1.830   3.909 -0.2823 -0.3712 -0.1875
49224SOL     OW54721   1.832  10.542  11.241 -0.3126  0.1641  0.4084
49224SOL    HW154722   1.923  10.554  11.267 -0.1327  1.1609 -0.5502
49224SOL    HW254723   1.836  10.535  11.145 -1.3079  1.2058  0.2714
49225SOL     OW54724   4.777   7.855  10.261  0.5135  0.1512 -0.5933
49225SOL    HW154725   4.738   7.873  10.175 -0.4745 -2.0761 -0.6791
49225SOL    HW254726   4.862   7.817  10.241 -0.6516 -2.6190 -0.7999
49226SOL     OW54727   7.656  12.571  11.923  0.4511 -0.0840  0.4174
49226SOL    HW154728   7.645  12.601  12.013 -0.7274 -0.5789  0.4519
49226SOL    HW254729   7.660  12.652  11.872 -0.0898  0.1897  0.7896
49227SOL     OW54730   2.894   1.825   2.671 -0.1733 -0.4311 -0.0530
49227SOL    HW154731   2.916   1.831   2.578  1.4546 -0.6328  0.2874
49227SOL    HW254732   2.840   1.902   2.688  0.4414  0.2200 -0.9246
49228SOL     OW54733   1.910   8.655   1.450  0.3168 -0.4069  0.5657
49228SOL    HW154734   1.968   8.639   1.376 -1.5187 -0.4196 -0.9477
49228SOL    HW254735   1.932   8.587   1.513  1.2065 -1.0471 -0.4106
49229SOL     OW54736   2.492   6.887   4.526  0.2933 -0.5164 -0.5424
49229SOL    HW154737   2.430   6.830   4.571  0.7568 -0.4803  0.1609
49229SOL    HW254738   2.465   6.976   4.550  1.0248 -0.5178  0.3424
49230SOL     OW54739   7.916   0.781   2.221  0.6179 -0.2475 -0.2060
49230SOL    HW154740   8.009   0.794   2.239  0.9511 -1.7331 -0.7138
49230SOL    HW254741   7.912   0.697   2.174 -0.9053  0.1122 -0.7875
49231SOL     OW54742   6.114  10.669   9.511 -0.1838  0.3473  0.1896
49231SOL    HW154743   6.119  10.720   9.430 -3.2571 -0.9537 -0.9724
49231SOL    HW254744   6.087  10.732   9.578 -0.3173  0.9307 -0.4009
49232SOL     OW54745   5.498  10.820   9.745 -0.5344  0.2108 -0.5643
49232SOL    HW154746   5.492  10.910   9.713 -0.9374  0.7701  1.0179
49232SOL    HW254747   5.417  10.778   9.716  0.3832 -0.1763 -2.7643
49233SOL     OW54748   7.679   8.207  11.430  0.5631 -0.1133  0.0783
49233SOL    HW154749   7.660   8.161  11.512  2.1090 -1.5212 -0.3025
49233SOL    HW254750   7.705   8.295  11.458  0.1056 -0.2673  1.0279
49234SOL     OW54751   3.996  10.199  10.648 -0.6948 -0.4405 -0.0209
49234SOL    HW154752   3.925  10.259  10.625 -0.8864 -1.4535 -2.4618
49234SOL    HW254753   4.076  10.243  10.618 -0.6992 -0.8164 -0.6036
49235SOL     OW54754   7.017   8.707   5.099  0.1899 -0.2501 -0.2771
49235SOL    HW154755   7.033   8.721   5.005 -2.9835  0.0973 -0.8754
49235SOL    HW254756   7.030   8.793   5.138  1.3663 -0.3581 -0.4084
49236SOL     OW54757  10.700   1.596  10.170  0.0536 -0.0103  0.6601
49236SOL    HW154758  10.613   1.582  10.208 -0.6538 -0.4609 -1.0181
49236SOL    HW254759  10.696   1.683  10.131 -0.3801 -0.7956 -1.1637
49237SOL     OW54760   4.989   5.015   2.035 -0.3577 -0.1938 -0.3286
49237SOL    HW154761   4.934   4.948   2.074  0.3539 -0.8151 -0.3704
49237SOL    HW254762   5.078   4.991   2.061 -0.0557  0.4980 -0.6913
49238SOL     OW54763   6.794   0.318   9.765 -0.3662 -0.1122 -0.1106
49238SOL    HW154764   6.709   0.359   9.777  0.3556  1.0258  1.3735
49238SOL    HW254765   6.815   0.280   9.850  1.1849  0.7873 -0.0542
49239SOL     OW54766   5.304  10.562  10.605 -0.4098 -0.0077 -0.1302
49239SOL    HW154767   5.250  10.510  10.665 -1.1045 -0.3738 -1.0540
49239SOL    HW254768   5.336  10.499  10.541  0.6453  0.3175  0.0616
49240SOL     OW54769   2.830  10.433   4.884 -0.1964 -0.4170  0.9598
49240SOL    HW154770   2.892  10.504   4.867  0.0269 -0.4704  1.5196
49240SOL    HW254771   2.837  10.417   4.979  0.8708 -2.1846  0.6380
49241SOL     OW54772   1.646   4.754   0.990 -0.0672  0.2014 -0.0929
49241SOL    HW154773   1.732   4.796   0.998  0.8116 -0.9313 -2.5838
49241SOL    HW254774   1.609   4.759   1.078  1.8084  2.2404  0.6811
49242SOL     OW54775   1.944   4.938   4.649  0.3244  0.3028  0.1911
49242SOL    HW154776   1.893   4.874   4.698  1.1115 -1.4157 -1.1465
49242SOL    HW254777   1.961   4.897   4.565  0.9483  2.2508 -0.6990
49243SOL     OW54778   7.015   6.194   5.116  0.3229  0.0855  0.3912
49243SOL    HW154779   7.110   6.193   5.127  0.3651  1.7830  0.3838
49243SOL    HW254780   7.002   6.180   5.023  0.4884 -1.5397  0.5891
49244SOL     OW54781   2.588   6.267   8.809  0.1451 -0.3126  0.1056
49244SOL    HW154782   2.623   6.213   8.738 -1.7933  1.2877 -2.2539
49244SOL    HW254783   2.538   6.207   8.864  1.5706 -1.5705  0.0882
49245SOL     OW54784   9.326   0.859   1.890 -0.0634 -0.4071 -0.4383
49245SOL    HW154785   9.283   0.848   1.805 -3.6022  1.2965  0.9111
49245SOL    HW254786   9.277   0.930   1.932 -0.0632 -2.7166  3.9732
49246SOL     OW54787   9.921  11.325   2.335  0.3150 -0.1265 -0.1336
49246SOL    HW154788   9.850  11.316   2.270  1.2768 -1.0371 -1.0974
49246SOL    HW254789   9.980  11.390   2.296  0.7709 -0.4952 -0.0593
49247SOL     OW54790   3.489  11.573   1.787 -0.4728  0.4058  0.4368
49247SOL    HW154791   3.473  11.655   1.740 -1.0888  0.5504  0.8934
49247SOL    HW254792   3.420  11.514   1.757  0.6605 -0.3529 -0.7991
49248SOL     OW54793   5.739  12.486   8.067 -0.4737  0.3136 -0.1190
49248SOL    HW154794   5.787  12.531   7.998  0.6819  0.1552  0.5556
49248SOL    HW254795   5.648  12.514   8.055  0.1866  2.9889  0.3628
49249SOL     OW54796   1.776   0.179   3.488 -0.0923  0.0940  0.3042
49249SOL    HW154797   1.736   0.234   3.556  0.4622  0.4310  0.3661
49249SOL    HW254798   1.858   0.149   3.527 -0.6072 -1.1711  0.4419
49250SOL     OW54799   3.904   4.267   4.975 -0.3457  0.0015 -0.0270
49250SOL    HW154800   3.821   4.220   4.974  0.4511 -1.5067  1.2973
49250SOL    HW254801   3.932   4.268   4.883 -1.0684 -0.8540 -0.2701
49251SOL     OW54802   8.086  11.398  11.965 -0.3371  0.0449 -0.0012
49251SOL    HW154803   8.139  11.463  12.012 -0.0396  0.3020 -0.6942
49251SOL    HW254804   8.142  11.322  11.958 -0.3801  0.0082  0.0477
49252SOL     OW54805   2.782   3.776   4.363 -0.0032 -0.3528 -0.0104
49252SOL    HW154806   2.850   3.708   4.365  0.3081 -0.0978  3.1426
49252SOL    HW254807   2.719   3.747   4.429 -1.0291  1.3053 -0.2311
49253SOL     OW54808   8.010   0.814   7.015  0.4200 -0.5844 -0.1971
49253SOL    HW154809   7.918   0.814   6.986  0.5581  0.3255 -0.6681
49253SOL    HW254810   8.010   0.758   7.092 -0.4099 -1.1278 -0.5714
49254SOL     OW54811  10.041  12.589  12.578 -0.3091  0.8741  0.5351
49254SOL    HW154812  10.004  12.503  12.556 -1.7578  1.3356  1.0028
49254SOL    HW254813   9.965  12.648  12.576  0.8867  2.4974 -1.4633
49255SOL     OW54814   8.523   9.044   0.476  0.3659  0.0134  0.1004
49255SOL    HW154815   8.531   9.031   0.570 -0.3401 -1.8118 -0.0439
49255SOL    HW254816   8.430   9.061   0.462  0.4066 -0.0764 -0.2970
49256SOL     OW54817   4.832   2.248   7.192  0.2340  0.1288  0.7913
49256SOL    HW154818   4.872   2.160   7.195  0.1014  0.0700  0.8362
49256SOL    HW254819   4.790   2.258   7.278  1.5127  0.8298  1.3690
49257SOL     OW54820   2.103  11.498   6.235 -0.0803  0.2565 -0.0681
49257SOL    HW154821   2.108  11.421   6.291 -0.9333  1.6657  2.0641
49257SOL    HW254822   2.012  11.502   6.206  0.4037 -0.6124 -1.9090
49258SOL     OW54823   9.851   4.167   9.765  0.8009  0.3243 -0.7544
49258SOL    HW154824   9.930   4.218   9.746  0.1449  1.2897 -0.9944
49258SOL    HW254825   9.871   4.078   9.737  1.7166  0.6068 -1.0156
49259SOL     OW54826   1.594   6.843   2.207  0.1263 -0.1026 -0.2226
49259SOL    HW154827   1.536   6.797   2.268  2.2850 -3.5199 -0.4930
49259SOL    HW254828   1.560   6.821   2.120  0.9768 -0.9958 -0.3478
49260SOL     OW54829   3.430   8.867   2.332 -0.4317 -0.3506  0.5012
49260SOL    HW154830   3.490   8.798   2.300 -2.0604 -0.8635 -1.7210
49260SOL    HW254831   3.344   8.825   2.334 -1.3438  1.3828 -0.1336
49261SOL     OW54832   4.041   0.410   1.061  0.1990  0.5169  0.1768
49261SOL    HW154833   4.045   0.390   0.968  0.1692  1.6196 -0.0826
49261SOL    HW254834   4.126   0.385   1.095  1.1681  2.3942 -0.6699
49262SOL     OW54835   4.764   9.877   7.150  0.0639  0.1467  0.0594
49262SOL    HW154836   4.787   9.876   7.057 -1.5618  0.2683 -0.3591
49262SOL    HW254837   4.800   9.959   7.183 -0.9594  0.9925 -0.8882
49263SOL     OW54838   4.093   1.202  10.030 -0.4503  0.2547 -0.0779
49263SOL    HW154839   4.049   1.195  10.115 -0.1956  0.7937  0.1026
49263SOL    HW254840   4.122   1.113  10.011  0.1893  0.2680  0.7845
49264SOL     OW54841   0.592   0.279   1.982  0.3829 -0.4259  0.1386
49264SOL    HW154842   0.630   0.358   2.023 -2.0261  0.7624  0.2389
49264SOL    HW254843   0.577   0.220   2.056  2.2015 -1.0492  0.0648
49265SOL     OW54844   1.142   5.255   8.922 -0.3844  0.2696  0.0695
49265SOL    HW154845   1.165   5.206   9.001  2.4176  0.4216 -0.5392
49265SOL    HW254846   1.100   5.190   8.866 -0.3938 -0.4165  0.8435
49266SOL     OW54847   8.216   1.664   0.745  0.3562  0.1236 -0.5076
49266SOL    HW154848   8.292   1.618   0.781  0.0840 -0.0776 -0.1795
49266SOL    HW254849   8.241   1.687   0.655  1.1715  0.9377 -0.0817
49267SOL     OW54850   7.913  11.320   0.842  0.0789  0.1838 -0.2829
49267SOL    HW154851   7.950  11.237   0.873 -0.0636  1.0963  2.6610
49267SOL    HW254852   7.836  11.334   0.897  1.2044  3.1690  0.7516
49268SOL     OW54853  11.419   7.642   4.067  0.0802 -0.3395  0.0702
49268SOL    HW154854  11.370   7.627   3.987  0.9447  1.8178 -0.9304
49268SOL    HW254855  11.356   7.679   4.129 -0.4347 -1.3908  0.1921
49269SOL     OW54856   4.186   8.895   5.501 -0.0599  0.4664  0.0668
49269SOL    HW154857   4.167   8.813   5.547 -0.3482  0.0500 -0.7604
49269SOL    HW254858   4.273   8.920   5.530  0.8311 -1.1495 -1.0750
49270SOL     OW54859   5.946   0.143   8.677  0.4044 -0.4224 -0.3914
49270SOL    HW154860   5.895   0.063   8.686  0.6106 -0.5668 -0.5033
49270SOL    HW254861   5.897   0.208   8.728  0.3568 -0.6735 -0.1118
49271SOL     OW54862   7.133   1.385   4.150  0.2619 -0.1580  0.6131
49271SOL    HW154863   7.134   1.443   4.227 -0.8574  1.1042 -0.2818
49271SOL    HW254864   7.125   1.445   4.076 -5.3352 -1.3948 -0.2407
49272SOL     OW54865   6.377   1.767  12.080 -0.2739  0.1518  0.6602
49272SOL    HW154866   6.470   1.789  12.080 -0.4799  1.1247 -0.1956
49272SOL    HW254867   6.371   1.693  12.019 -0.2767  1.3097 -0.8266
49273SOL     OW54868   5.810   2.953   4.657  0.0863 -0.5556 -0.5112
49273SOL    HW154869   5.791   3.001   4.576 -0.9657 -0.2089 -0.0826
49273SOL    HW254870   5.774   2.866   4.643 -1.2852 -0.1100  0.0372
49274SOL     OW54871  12.286  12.579   8.713 -0.5142  0.0912 -0.2755
49274SOL    HW154872  12.245  12.627   8.785 -2.1905  0.4940 -1.4287
49274SOL    HW254873  12.310  12.647   8.650  0.6906 -0.2802 -0.2308
49275SOL     OW54874  10.420   9.144   2.363  0.7724  0.4970  0.6004
49275SOL    HW154875  10.513   9.122   2.368  1.1561  1.9074  0.0963
49275SOL    HW254876  10.395   9.163   2.454  0.0843 -3.0540  1.3045
49276SOL     OW54877   4.905   0.746   3.955 -0.0708  0.3083 -0.2661
49276SOL    HW154878   4.821   0.727   3.996  0.1470  1.6116  0.8562
49276SOL    HW254879   4.967   0.688   4.000 -0.3106 -0.4772 -0.9249
49277SOL     OW54880   9.689   9.005   3.185 -0.0574  0.1646  0.1317
49277SOL    HW154881   9.741   8.925   3.196 -1.3449 -0.8058 -0.5960
49277SOL    HW254882   9.753   9.076   3.193  1.1719 -0.9388  0.4889
49278SOL     OW54883  10.802   9.959   8.693  0.4583 -0.0610 -0.6661
49278SOL    HW154884  10.812  10.010   8.612 -1.2153  0.0305 -0.8472
49278SOL    HW254885  10.804  10.025   8.763  1.0908 -0.0576 -0.6792
49279SOL     OW54886   7.045   7.963   9.250  0.3414  0.4021  0.0679
49279SOL    HW154887   7.013   7.875   9.268  1.2658 -0.0955 -0.6301
49279SOL    HW254888   7.137   7.961   9.276  0.5945  0.8910 -0.7534
49280SOL     OW54889   6.726   2.298   0.787  0.9928  0.0244  0.0967
49280SOL    HW154890   6.779   2.263   0.716  0.8263  0.7237 -0.3851
49280SOL    HW254891   6.659   2.231   0.803  1.6287 -0.5740  0.2808
49281SOL     OW54892  12.434   9.061   5.378  0.4911 -0.1653 -0.2117
49281SOL    HW154893  12.462   8.972   5.354  0.1476  0.1156 -1.7962
49281SOL    HW254894  12.344   9.067   5.346  0.6244  0.8665 -0.4190
49282SOL     OW54895   7.325   2.428   5.630 -0.1218 -0.3947 -0.0834
49282SOL    HW154896   7.282   2.377   5.699 -0.8786 -0.1152 -0.3306
49282SOL    HW254897   7.412   2.391   5.623 -0.8020 -1.9745 -0.5707
49283SOL     OW54898  12.297   6.529   3.706 -0.5378  0.5828  0.6465
49283SOL    HW154899  12.285   6.601   3.769 -1.7660  0.4400  0.6016
49283SOL    HW254900  12.333   6.458   3.758  3.8884  2.1155  0.1338
49284SOL     OW54901   7.628   7.589  11.937  0.2666 -0.2640 -0.7106
49284SOL    HW154902   7.697   7.564  11.876  0.2377 -0.3225 -0.7196
49284SOL    HW254903   7.553   7.533  11.912  0.2227 -0.2154 -0.6884
49285SOL     OW54904   7.224   8.289  11.353  0.3867  0.4104 -0.2267
49285SOL    HW154905   7.292   8.295  11.286 -0.6050  1.5405 -1.1740
49285SOL    HW254906   7.271   8.270  11.434  1.7356  0.3714 -1.0014
49286SOL     OW54907  12.395   3.291  11.454  0.2654 -0.1888 -0.0925
49286SOL    HW154908  12.306   3.321  11.436 -0.0691 -0.4939  1.0146
49286SOL    HW254909  12.390   3.246  11.538  0.7118 -3.4885 -1.6731
49287SOL     OW54910   3.426   1.947   0.985  0.0285 -0.0336 -0.1776
49287SOL    HW154911   3.348   1.999   0.968  0.9011  0.5201 -2.9202
49287SOL    HW254912   3.493   1.983   0.927  1.7159 -1.8758  0.4957
49288SOL     OW54913  11.673  12.499   1.941 -0.5122  0.1566 -0.1836
49288SOL    HW154914  11.668  12.591   1.968 -0.8547  0.9592 -2.6868
49288SOL    HW254915  11.583  12.476   1.918 -0.3506 -0.6545 -0.0091
49289SOL     OW54916  12.373   2.864   1.450 -0.9419  0.2253  0.4585
49289SOL    HW154917  12.314   2.792   1.429 -0.5298  0.2230 -0.7595
49289SOL    HW254918  12.460   2.825   1.449 -0.8091  0.5122  0.8810
49290SOL     OW54919   3.134  11.215   7.671 -0.1446 -0.2439  0.3102
49290SOL    HW154920   3.040  11.204   7.656 -0.1348 -0.6919  0.5599
49290SOL    HW254921   3.174  11.201   7.585 -0.2931 -0.1926  0.2328
49291SOL     OW54922   5.010   4.979   8.513 -0.3250 -0.1992  0.0482
49291SOL    HW154923   5.034   5.072   8.518  2.2863 -0.8290  0.2849
49291SOL    HW254924   4.958   4.964   8.592 -0.4271  0.9443  0.2217
49292SOL     OW54925   1.327   3.676   9.817 -0.3000  0.1067  0.0022
49292SOL    HW154926   1.397   3.701   9.876  0.5586 -0.4070 -0.7772
49292SOL    HW254927   1.265   3.749   9.822  0.5159  0.7983  0.3442
49293SOL     OW54928   0.723   7.701   6.624 -0.5707  0.1306 -0.2956
49293SOL    HW154929   0.780   7.726   6.551  0.2681  0.3293  0.4164
49293SOL    HW254930   0.733   7.606   6.631 -0.5581  0.1269 -0.3597
49294SOL     OW54931   1.013   3.282   4.118  0.2297  0.4486  0.0633
49294SOL    HW154932   1.092   3.302   4.168  0.3255  0.1632  0.0275
49294SOL    HW254933   1.035   3.305   4.028  0.4206 -0.0356 -0.0156
49295SOL     OW54934   8.299   7.540   6.873  0.0500  0.2475 -0.3250
49295SOL    HW154935   8.217   7.559   6.827 -0.6104 -1.5522  0.0057
49295SOL    HW254936   8.329   7.457   6.835  0.0788 -0.7020  1.6635
49296SOL     OW54937   2.117  10.842  10.316  0.5684 -0.5539 -0.6659
49296SOL    HW154938   2.058  10.848  10.240  1.5966 -0.3938 -1.4687
49296SOL    HW254939   2.078  10.774  10.371 -0.7413  0.0113 -0.8374
49297SOL     OW54940   0.396   7.155  10.281  0.0725 -0.4707 -0.1327
49297SOL    HW154941   0.470   7.119  10.232 -0.2425 -0.1218 -0.8782
49297SOL    HW254942   0.339   7.194  10.214 -0.2713  0.1881  0.5273
49298SOL     OW54943  11.168   9.472   2.157 -0.2834 -0.6702 -0.0275
49298SOL    HW154944  11.143   9.560   2.128  1.3499  0.1387  0.9172
49298SOL    HW254945  11.122   9.414   2.096 -0.9289  0.8377 -1.0577
49299SOL     OW54946   6.366   8.365   5.080 -0.0284  0.0110 -0.4024
49299SOL    HW154947   6.380   8.458   5.096 -0.0755  0.0581 -0.6412
49299SOL    HW254948   6.377   8.354   4.986 -2.0627  0.1393 -0.7001
49300SOL     OW54949   0.917  12.202   1.781 -0.2156  0.4857 -0.4176
49300SOL    HW154950   0.980  12.272   1.802 -1.3643  1.1613  0.9835
49300SOL    HW254951   0.972  12.128   1.756  1.3051  0.3948  2.6942
49301SOL     OW54952   3.795   1.019  11.303  0.0431 -0.3424  0.3568
49301SOL    HW154953   3.804   1.078  11.227 -0.8135  0.4762  0.8773
49301SOL    HW254954   3.885   1.010  11.336  0.2462  0.3180  0.0105
49302SOL     OW54955   5.864  10.432   8.796  0.3223 -0.6916  0.3467
49302SOL    HW154956   5.952  10.455   8.826 -1.0461  3.2471  1.9958
49302SOL    HW254957   5.816  10.409   8.875 -1.1906  1.6033  0.1989
49303SOL     OW54958   3.482   2.608   0.044  0.4090 -0.1664  0.1106
49303SOL    HW154959   3.484   2.703   0.052 -3.0823  0.0510 -0.0490
49303SOL    HW254960   3.517   2.591  -0.044 -1.9899  1.3479 -1.2374
49304SOL     OW54961  11.570   0.567  11.163  0.0427 -0.3721 -0.2448
49304SOL    HW154962  11.532   0.491  11.206 -0.0536 -0.0829  0.1833
49304SOL    HW254963  11.568   0.545  11.070 -1.1734 -0.3576 -0.2319
49305SOL     OW54964   9.411  12.445   2.722 -0.3779 -0.2262 -0.0882
49305SOL    HW154965   9.416  12.351   2.705 -0.8388 -0.6117  1.6790
49305SOL    HW254966   9.475  12.460   2.792 -1.1067  0.5421  0.4280
49306SOL     OW54967   5.388   6.813   1.612 -0.7470 -0.1565  0.3249
49306SOL    HW154968   5.386   6.901   1.573  1.0800  0.6579  1.9041
49306SOL    HW254969   5.415   6.756   1.540  1.0842  1.0823 -0.0461
49307SOL     OW54970   1.025   1.629   9.371 -0.2068  0.3487 -0.2652
49307SOL    HW154971   1.036   1.563   9.439 -0.0342 -0.6085 -1.1888
49307SOL    HW254972   1.100   1.688   9.383 -2.1292  2.4547  2.7174
49308SOL     OW54973   7.344   7.764   5.049 -0.1470  0.1012  0.3632
49308SOL    HW154974   7.251   7.772   5.027  0.0779 -0.2204 -0.7798
49308SOL    HW254975   7.374   7.687   5.000  0.6242 -0.0611  1.0636
49309SOL     OW54976   5.578  12.281   1.348  0.0306 -0.4677 -0.2421
49309SOL    HW154977   5.548  12.308   1.435 -0.5278 -2.9824  0.4141
49309SOL    HW254978   5.671  12.304   1.346 -0.2677  0.8746  0.4539
49310SOL     OW54979   9.273   2.667   4.176 -0.1002  0.2302  0.3582
49310SOL    HW154980   9.334   2.661   4.102  0.0293 -0.5873  0.5246
49310SOL    HW254981   9.326   2.704   4.247  0.0609  0.0178  0.3496
49311SOL     OW54982   2.967   4.928   5.627  0.2056 -0.3396 -0.0380
49311SOL    HW154983   2.881   4.909   5.664 -1.3699  1.7304 -2.3368
49311SOL    HW254984   2.966   5.022   5.611  2.0365 -0.5802 -2.0805
49312SOL     OW54985   9.795   2.522   7.885 -0.5876  0.0700 -0.3104
49312SOL    HW154986   9.702   2.497   7.890 -0.2811 -0.8694  1.8378
49312SOL    HW254987   9.798   2.609   7.925 -0.6153  0.3751 -0.9612
49313SOL     OW54988  10.601   2.735  11.006 -0.3179 -0.3291 -0.5073
49313SOL    HW154989  10.657   2.809  10.984  0.5180 -0.6088  0.6105
49313SOL    HW254990  10.551   2.765  11.082 -1.3928 -0.2419 -1.2224
49314SOL     OW54991   1.319   3.336   2.348 -0.2206  0.1605  0.1925
49314SOL    HW154992   1.330   3.412   2.405 -1.9147 -0.9533  2.1655
49314SOL    HW254993   1.233   3.347   2.308  0.2524  0.1001 -0.8808
49315SOL     OW54994   4.236  11.134   4.940  0.6710 -0.0162 -0.0214
49315SOL    HW154995   4.219  11.184   4.861  0.3205  0.0437  0.0918
49315SOL    HW254996   4.150  11.111   4.973  0.8115 -1.4443 -0.5475
49316SOL     OW54997   9.453   1.591  10.326  0.3009 -0.3716  0.0804
49316SOL    HW154998   9.431   1.672  10.278  0.6313 -0.5739 -0.4241
49316SOL    HW254999   9.475   1.528  10.257  1.3278 -0.5065  0.5198
49317SOL     OW55000   0.096  11.313   0.312 -0.1044  0.1753 -0.1509
49317SOL    HW155001   0.121  11.241   0.254  0.1850 -0.7694  1.1103
49317SOL    HW255002   0.018  11.282   0.358  1.3314 -0.3310  2.0979
49318SOL     OW55003  10.936   1.019   6.772  0.1316  0.1460 -0.1577
49318SOL    HW155004  10.918   1.067   6.852  0.0759  1.1553 -0.7605
49318SOL    HW255005  10.975   1.084   6.713 -0.4670 -0.3933 -1.1878
49319SOL     OW55006   7.473   8.258  10.734  0.0505 -0.3392  0.2262
49319SOL    HW155007   7.435   8.271  10.820  0.6858  1.1161  0.3244
49319SOL    HW255008   7.398   8.251  10.675 -0.3822 -0.3427  0.7716
49320SOL     OW55009   6.238  11.530  11.805 -0.1640 -0.1280  0.0057
49320SOL    HW155010   6.303  11.524  11.875 -0.2109 -0.2905  0.0360
49320SOL    HW255011   6.257  11.454  11.748 -0.2891 -0.1421 -0.0175
49321SOL     OW55012   4.477   5.494   0.091  0.4051  0.1963  0.1010
49321SOL    HW155013   4.488   5.437   0.167  1.4818  0.2586 -0.0017
49321SOL    HW255014   4.515   5.577   0.117  1.0931  0.1150 -0.6251
49322SOL     OW55015   6.043   6.720  11.243  0.4847 -0.5954  0.3651
49322SOL    HW155016   5.980   6.722  11.172  1.0604  3.1688 -0.2434
49322SOL    HW255017   5.991   6.701  11.321 -0.8543 -0.6913 -0.5191
49323SOL     OW55018   1.012   8.443   5.659 -0.2117 -0.4069  0.0119
49323SOL    HW155019   1.053   8.429   5.573 -0.1749 -1.4677  0.1823
49323SOL    HW255020   0.954   8.518   5.646  1.0495  0.5200 -0.4863
49324SOL     OW55021   1.465  11.920   1.500 -0.2625 -0.2451  0.6503
49324SOL    HW155022   1.512  11.843   1.531 -3.1105 -2.3154  0.1712
49324SOL    HW255023   1.533  11.976   1.462  1.9902 -2.1901  1.5788
49325SOL     OW55024   5.702   0.213   9.660 -0.0716  0.3664 -0.3365
49325SOL    HW155025   5.622   0.261   9.638  0.4958  1.9197  0.8318
49325SOL    HW255026   5.686   0.179   9.748  0.2551 -0.0094 -0.4205
49326SOL     OW55027   5.151   9.198  12.341 -0.4685 -0.1317  0.0665
49326SOL    HW155028   5.229   9.237  12.302  0.3903 -3.0946 -1.5264
49326SOL    HW255029   5.093   9.183  12.266 -1.0179 -1.2164  0.6903
49327SOL     OW55030   5.896   9.863   7.970 -0.4535 -0.2425  0.2451
49327SOL    HW155031   5.919   9.785   7.920 -1.7815 -1.2054  1.0549
49327SOL    HW255032   5.802   9.856   7.983 -0.1336 -0.3155  3.2509
49328SOL     OW55033   9.539   8.336   6.236 -0.3880  0.1538  0.0282
49328SOL    HW155034   9.594   8.269   6.197 -1.7059 -0.2754 -1.1676
49328SOL    HW255035   9.469   8.288   6.280 -0.3964  0.7140  0.6583
49329SOL     OW55036   6.875   2.524   4.970  0.2729 -0.0309  0.4358
49329SOL    HW155037   6.811   2.518   5.041 -0.3058  0.5891 -0.0142
49329SOL    HW255038   6.853   2.451   4.912 -1.6652  1.5681 -0.9873
49330SOL     OW55039   7.940   9.177   8.837 -0.3391  0.2830 -0.4956
49330SOL    HW155040   7.934   9.149   8.928 -2.0378 -0.7201 -0.8613
49330SOL    HW255041   8.031   9.160   8.812  0.2162  0.8237  1.0638
49331SOL     OW55042  12.192   5.587   9.026  0.7770 -0.1262  0.0404
49331SOL    HW155043  12.221   5.546   8.944 -2.5648 -0.0181 -1.3682
49331SOL    HW255044  12.133   5.657   8.997 -0.3426  0.0526  2.5269
49332SOL     OW55045   6.759   9.004   4.916 -0.0987  0.3521  0.3605
49332SOL    HW155046   6.762   8.911   4.891 -0.4339  0.3913  0.1693
49332SOL    HW255047   6.699   9.005   4.991  0.0500  0.3894  0.4787
49333SOL     OW55048  11.372   9.007   6.636 -0.2463 -0.1373  0.2632
49333SOL    HW155049  11.280   8.988   6.656 -0.4296  0.0454 -0.3957
49333SOL    HW255050  11.414   8.921   6.632 -0.7792 -0.3652 -1.2631
49334SOL     OW55051  11.013   1.205  10.355  0.0524  0.3167 -0.3531
49334SOL    HW155052  11.007   1.200  10.451  1.9289 -1.5335 -0.2777
49334SOL    HW255053  10.922   1.202  10.326 -0.6246  1.8426  1.3669
49335SOL     OW55054   4.901   8.680   1.647  0.3252  0.7847  0.7772
49335SOL    HW155055   4.908   8.728   1.564 -1.0969  1.1159  0.8129
49335SOL    HW255056   4.983   8.697   1.692  0.9830  0.8725 -0.4299
49336SOL     OW55057   9.348   0.634   6.066 -0.0115 -0.1283  0.1421
49336SOL    HW155058   9.408   0.605   5.997 -0.9718  1.0034 -1.2361
49336SOL    HW255059   9.373   0.725   6.084 -1.5997  0.5626 -0.8709
49337SOL     OW55060   4.787   0.943   0.871  0.2492  0.2557  0.4487
49337SOL    HW155061   4.857   0.879   0.869 -0.7027 -0.8557  1.2282
49337SOL    HW255062   4.831   1.028   0.864  2.0919 -0.1446  4.3731
49338SOL     OW55063   6.163   3.373   9.947  0.1659 -0.2194 -0.2072
49338SOL    HW155064   6.110   3.453   9.941  0.1728 -0.0988  1.0759
49338SOL    HW255065   6.235   3.388   9.886  0.0828  0.6907 -0.1092
49339SOL     OW55066   0.180  11.808   0.571  0.4073 -0.5585 -0.1705
49339SOL    HW155067   0.260  11.774   0.611 -0.3630 -0.5267  1.4658
49339SOL    HW255068   0.127  11.730   0.554 -0.5504 -0.3878  1.7934
49340SOL     OW55069   2.211   3.173   3.025 -0.2142 -0.2132 -0.7978
49340SOL    HW155070   2.258   3.165   3.109 -1.2432 -1.3548 -0.3053
49340SOL    HW255071   2.119   3.166   3.048 -0.7217  2.4183 -1.7072
49341SOL     OW55072   2.746  11.582   3.120 -0.1440  0.0244  0.5196
49341SOL    HW155073   2.792  11.658   3.154  0.0497 -0.2194  0.8088
49341SOL    HW255074   2.654  11.597   3.142  0.0318 -0.3221  1.5235
49342SOL     OW55075   4.111  10.348   9.596  0.3778  0.7788  0.0028
49342SOL    HW155076   4.085  10.433   9.558  0.7181  1.8946  2.1219
49342SOL    HW255077   4.035  10.321   9.647  0.8124  0.5664  0.5429
49343SOL     OW55078   5.442   1.467   0.895  0.1505 -0.1637 -0.0368
49343SOL    HW155079   5.446   1.517   0.813 -2.7159 -0.6686 -0.5625
49343SOL    HW255080   5.459   1.532   0.963  0.9902  0.5853 -0.9170
49344SOL     OW55081   4.783   2.809   1.191  0.3942  0.0849 -0.0922
49344SOL    HW155082   4.702   2.788   1.144  1.3622 -0.6961 -1.4352
49344SOL    HW255083   4.761   2.889   1.240 -1.7126 -1.0325  0.9522
49345SOL     OW55084  12.238   4.948   1.316  0.3537  0.1692 -0.5913
49345SOL    HW155085  12.288   4.867   1.308 -0.6484 -0.4708 -0.6119
49345SOL    HW255086  12.281   5.009   1.255  1.4099 -0.1807 -0.2153
49346SOL     OW55087   5.989   8.557   0.695 -0.3670 -0.1418 -0.1740
49346SOL    HW155088   6.015   8.528   0.607  1.1420  0.1663  0.1487
49346SOL    HW255089   5.932   8.488   0.727  2.7793 -2.7169  0.4117
49347SOL     OW55090  10.032  10.271   9.003  0.0593  0.1490 -0.0691
49347SOL    HW155091  10.011  10.364   9.011  1.4028  0.5173 -0.5718
49347SOL    HW255092   9.996  10.246   8.917 -0.0700  0.2744 -0.0507
49348SOL     OW55093   6.416   3.205   7.502 -0.1973  0.4871 -0.2120
49348SOL    HW155094   6.498   3.159   7.484  0.5652  1.2350  1.2257
49348SOL    HW255095   6.348   3.140   7.483  0.6483  0.0904 -2.1495
49349SOL     OW55096   6.062  12.456   2.078  0.4043  0.5565 -0.4754
49349SOL    HW155097   6.135  12.465   2.015  1.7203 -0.8206  0.7879
49349SOL    HW255098   5.988  12.427   2.025  1.2249  0.3486 -1.5374
49350SOL     OW55099  10.256   2.166   2.650  0.6390  0.5285 -0.1950
49350SOL    HW155100  10.302   2.091   2.686 -1.5691 -0.8827 -0.1251
49350SOL    HW255101  10.234   2.220   2.726  0.5701  0.2678 -0.0311
49351SOL     OW55102   9.025   7.204   3.953  0.0826  0.2294  1.0217
49351SOL    HW155103   9.017   7.193   4.047 -0.9650 -1.5531  0.7711
49351SOL    HW255104   8.974   7.132   3.916  0.6396  0.7650 -0.9099
49352SOL     OW55105   7.704   1.793   1.404 -0.3344 -0.6699 -0.2944
49352SOL    HW155106   7.685   1.728   1.472 -2.5645 -0.9276 -1.0515
49352SOL    HW255107   7.793   1.774   1.376  0.3362 -1.1012  1.9203
49353SOL     OW55108   3.009  10.217  11.842  0.2944 -0.0005  0.9712
49353SOL    HW155109   2.935  10.275  11.859  2.3614  3.6847 -1.1652
49353SOL    HW255110   3.068  10.230  11.917  0.8618  1.0196  0.3853
49354SOL     OW55111   8.128  11.966   2.835  0.0881  0.3662  0.5238
49354SOL    HW155112   8.175  12.018   2.769  2.6614  1.3161  2.9277
49354SOL    HW255113   8.043  12.010   2.842  0.2624  1.0711 -1.1225
49355SOL     OW55114   9.718  12.051   4.864  0.2300  0.4228  0.0580
49355SOL    HW155115   9.692  12.130   4.818 -2.5448  0.8534  2.1097
49355SOL    HW255116   9.701  11.980   4.802  0.3219  1.2364 -0.9117
49356SOL     OW55117  11.202   4.464   6.169  0.1521  0.4289  0.5341
49356SOL    HW155118  11.158   4.396   6.220  1.7581 -1.0176  0.0432
49356SOL    HW255119  11.195   4.542   6.223 -1.2180 -0.2356  1.3748
49357SOL     OW55120   4.749   4.992   0.229  0.0510 -0.5527  0.4297
49357SOL    HW155121   4.768   5.034   0.313  0.3333  0.5659 -0.1797
49357SOL    HW255122   4.675   4.934   0.248 -1.8075  1.8206  0.8469
49358SOL     OW55123   5.322  10.325   2.732  0.0210  0.1304  0.5620
49358SOL    HW155124   5.343  10.295   2.643 -0.1438  0.9292  0.2515
49358SOL    HW255125   5.231  10.299   2.746 -0.1664  0.6117  0.2401
49359SOL     OW55126  11.325   1.152  10.640  0.3939  0.1360 -0.1280
49359SOL    HW155127  11.411   1.156  10.681  0.5448  0.4477 -0.4708
49359SOL    HW255128  11.323   1.067  10.597 -0.7708 -1.4220  2.6950
49360SOL     OW55129   3.591   9.838   8.064  0.2178 -0.5210 -0.4084
49360SOL    HW155130   3.602   9.888   7.983  0.1268  1.0508  0.5116
49360SOL    HW255131   3.679   9.829   8.099  0.6504 -3.4854 -1.9024
49361SOL     OW55132   7.381   1.395   0.467 -0.3564 -0.5526 -0.5948
49361SOL    HW155133   7.404   1.316   0.419 -1.8164 -2.0290  0.9979
49361SOL    HW255134   7.291   1.413   0.443 -0.8670 -0.8829  0.9516
49362SOL     OW55135   9.400   4.227  11.152 -0.3316 -0.0988 -0.1410
49362SOL    HW155136   9.465   4.292  11.122 -0.5464  0.1229 -0.1287
49362SOL    HW255137   9.453   4.159  11.194 -0.1152  0.1674  0.0265
49363SOL     OW55138  11.385   5.794   2.435  0.1745 -0.3594 -0.0860
49363SOL    HW155139  11.464   5.774   2.485  0.8433  1.4145 -0.3384
49363SOL    HW255140  11.331   5.847   2.494  0.3165  0.5118 -0.7026
49364SOL     OW55141   5.755   3.769  10.770 -0.4306 -0.0121  0.0431
49364SOL    HW155142   5.711   3.691  10.735  1.4088 -1.6183  1.1026
49364SOL    HW255143   5.815   3.796  10.700 -1.2137  0.6204 -0.4041
49365SOL     OW55144   9.499   6.888   4.566  1.0542 -0.3361 -0.5504
49365SOL    HW155145   9.563   6.941   4.613 -2.2539  1.4333  2.4171
49365SOL    HW255146   9.492   6.931   4.480  3.0429 -0.0333 -0.6183
49366SOL     OW55147   1.603   7.611   3.016  0.7732 -0.4051  0.5970
49366SOL    HW155148   1.582   7.599   2.923  1.7507 -1.5910  0.5112
49366SOL    HW255149   1.692   7.646   3.017  0.6224 -0.0212  1.0897
49367SOL     OW55150   1.945   0.511   0.660  0.3863  0.3876  0.3382
49367SOL    HW155151   2.036   0.536   0.645  0.4536 -0.0215  0.0444
49367SOL    HW255152   1.949   0.443   0.728  0.5083 -1.1647 -1.1398
49368SOL     OW55153   7.928  11.472   0.580 -0.0966 -0.0323  0.3311
49368SOL    HW155154   7.915  11.551   0.632  1.7057  0.4026  0.1899
49368SOL    HW255155   7.915  11.400   0.642 -1.9117  0.3256  0.4257
49369SOL     OW55156   4.784   1.871   7.778  0.4240 -0.1195 -0.3693
49369SOL    HW155157   4.697   1.891   7.745 -0.0890 -0.7065  0.5765
49369SOL    HW255158   4.823   1.815   7.710  0.0630  0.1341 -0.7899
49370SOL     OW55159   0.677  10.602   4.341  0.2201  0.0990 -0.1628
49370SOL    HW155160   0.726  10.684   4.352 -0.4764  0.5053 -0.0457
49370SOL    HW255161   0.623  10.596   4.420 -0.6882  0.1905 -0.7619
49371SOL     OW55162   4.265   7.229   0.227 -0.6658  0.1764  0.0567
49371SOL    HW155163   4.269   7.196   0.317 -1.3657  0.3351  0.1557
49371SOL    HW255164   4.348   7.275   0.214 -0.1816 -0.6195  0.3123
49372SOL     OW55165   9.045  12.163   2.986 -0.0158  0.2199 -0.2880
49372SOL    HW155166   8.980  12.095   2.964  1.5267 -0.9924 -1.3315
49372SOL    HW255167   9.003  12.245   2.962 -0.8553 -0.6018 -1.7668
49373SOL     OW55168   2.532   1.803  11.998  0.0064  0.0769  0.3027
49373SOL    HW155169   2.460   1.741  12.002  1.2168 -1.4471 -0.2615
49373SOL    HW255170   2.511   1.859  11.923  0.2560 -1.5399 -1.0499
49374SOL     OW55171   0.450   2.127   4.854 -0.0424 -0.5529  0.8322
49374SOL    HW155172   0.454   2.155   4.763 -0.8300 -0.4790  0.8090
49374SOL    HW255173   0.540   2.107   4.878 -0.0799 -2.8899 -0.6758
49375SOL     OW55174   8.680   2.415   4.787  0.4752 -0.3171 -0.1926
49375SOL    HW155175   8.650   2.333   4.826  0.4244  0.3831  1.3088
49375SOL    HW255176   8.610   2.477   4.806 -0.7415 -0.4467 -3.6045
49376SOL     OW55177   6.134   0.766   0.608  0.1795  0.0300 -0.3926
49376SOL    HW155178   6.044   0.753   0.577 -0.2532  1.2475  0.3056
49376SOL    HW255179   6.151   0.691   0.665 -0.4138 -0.1748 -0.4788
49377SOL     OW55180  10.904   4.162   8.809 -0.4332  0.2029  0.1903
49377SOL    HW155181  10.947   4.166   8.894  1.9100  0.1234 -0.9195
49377SOL    HW255182  10.849   4.240   8.806  0.4733  0.9005  1.2462
49378SOL     OW55183   8.676   5.160   3.965 -0.2741 -0.3026  0.3431
49378SOL    HW155184   8.720   5.243   3.980 -0.3379  0.0220 -1.1466
49378SOL    HW255185   8.598   5.164   4.020  0.8669 -0.3638  2.0372
49379SOL     OW55186   9.228   8.614  12.275  0.8161 -0.0727  0.1998
49379SOL    HW155187   9.213   8.652  12.188  2.7840  1.1255  0.3208
49379SOL    HW255188   9.186   8.528  12.271 -1.8887  1.1825 -0.8421
49380SOL     OW55189   6.952   7.513   0.534  0.3866  0.3323 -0.3736
49380SOL    HW155190   6.876   7.528   0.478  0.3716 -1.5353 -0.9369
49380SOL    HW255191   7.027   7.514   0.473  0.4733 -0.7019 -0.3172
49381SOL     OW55192  12.385   3.542   1.095  0.4288 -0.2329  0.2516
49381SOL    HW155193  12.293   3.560   1.113  0.0133 -1.0861 -0.9274
49381SOL    HW255194  12.414   3.487   1.168  0.5556  1.5418  1.6250
49382SOL     OW55195   6.382  12.166   7.125 -0.1958  0.2086 -0.3419
49382SOL    HW155196   6.313  12.126   7.178  0.4245  2.0722  2.0484
49382SOL    HW255197   6.346  12.168   7.036 -2.3853 -0.6775  0.4612
49383SOL     OW55198   1.923   5.280   8.318 -0.4748 -0.5341  0.3046
49383SOL    HW155199   2.005   5.307   8.359  0.0124 -0.1181 -0.8934
49383SOL    HW255200   1.920   5.330   8.235 -1.0889 -1.8414 -0.4907
49384SOL     OW55201  12.491   8.837  12.390 -0.5271 -0.5854 -0.2374
49384SOL    HW155202  12.466   8.845  12.298 -0.0634 -1.6373 -0.4647
49384SOL    HW255203  12.424   8.888  12.437 -0.4427  0.4393 -1.1832
49385SOL     OW55204   9.778  11.862   2.712 -0.3610  0.1811  0.2455
49385SOL    HW155205   9.720  11.824   2.779 -0.7659  0.9944  0.3687
49385SOL    HW255206   9.843  11.794   2.696  0.3496  0.3310  2.2127
49386SOL     OW55207   0.751   7.959   8.271  0.3140  0.5949 -0.5409
49386SOL    HW155208   0.669   7.998   8.242 -0.5465 -0.4534  0.4381
49386SOL    HW255209   0.731   7.867   8.287  1.9488  0.0400 -1.3574
49387SOL     OW55210   0.009   4.820   7.750 -0.1051 -0.0138 -0.1478
49387SOL    HW155211   0.043   4.909   7.761  0.1887 -0.0444 -0.7634
49387SOL    HW255212   0.077   4.775   7.699  0.4094 -1.0017  1.3358
49388SOL     OW55213   1.959   6.295   0.717  0.0702  0.2912 -0.2881
49388SOL    HW155214   1.987   6.213   0.676  2.1859 -0.6959  2.7537
49388SOL    HW255215   1.885   6.270   0.772  1.4637  0.0581  1.5730
49389SOL     OW55216   7.257   8.811   0.898 -0.2682  0.4332  0.0920
49389SOL    HW155217   7.239   8.904   0.912 -0.6291  0.3703  0.0571
49389SOL    HW255218   7.275   8.777   0.985  0.6988  0.7036  0.0080
49390SOL     OW55219   2.119   5.952   8.212 -0.8377 -0.0615 -0.2252
49390SOL    HW155220   2.184   5.971   8.279  0.9213  0.3870 -1.9817
49390SOL    HW255221   2.095   5.860   8.228  2.9575 -1.4834 -1.6405
49391SOL     OW55222  10.764   7.437  12.445  0.3692  0.0429 -0.1923
49391SOL    HW155223  10.673   7.409  12.432  0.5710 -0.9591  0.5193
49391SOL    HW255224  10.784   7.414  12.535  0.2065  3.5199  0.8780
49392SOL     OW55225   9.645  10.429   6.937 -0.1474  0.2886  0.4079
49392SOL    HW155226   9.713  10.473   6.887  0.4218 -1.9223 -0.8923
49392SOL    HW255227   9.564  10.452   6.892  0.1605 -0.1153 -0.3697
49393SOL     OW55228  11.329  11.888   3.445 -0.0008 -0.3830  0.7484
49393SOL    HW155229  11.263  11.869   3.512 -1.8736  0.5026 -0.7518
49393SOL    HW255230  11.322  11.815   3.383 -0.7584  0.5299 -0.2672
49394SOL     OW55231   1.793   9.007   1.220  0.2732 -0.0174 -0.1177
49394SOL    HW155232   1.810   9.013   1.126  0.9977 -2.4893 -0.2208
49394SOL    HW255233   1.713   9.057   1.233 -0.0493  0.0854 -2.1304
49395SOL     OW55234   8.652   0.390  10.558  0.2731 -0.3460 -0.0552
49395SOL    HW155235   8.560   0.416  10.560  0.1653 -0.7320  0.0477
49395SOL    HW255236   8.680   0.409  10.468 -0.2193 -1.2637 -0.4188
49396SOL     OW55237   1.588   1.457   8.263 -0.2906  0.0845 -0.1490
49396SOL    HW155238   1.557   1.520   8.198  0.4094 -0.6023 -1.1866
49396SOL    HW255239   1.680   1.481   8.279  0.2028 -1.0578 -1.0887
49397SOL     OW55240   9.324   2.697   9.868  0.2158  0.1327  0.4038
49397SOL    HW155241   9.384   2.767   9.892 -1.3222  1.3472  0.9316
49397SOL    HW255242   9.254   2.742   9.819 -0.2807 -1.2109 -0.1793
49398SOL     OW55243  10.546   2.404   9.922  0.4547  0.8113 -0.3233
49398SOL    HW155244  10.543   2.493   9.887 -0.5725  0.8887 -0.0775
49398SOL    HW255245  10.530   2.416  10.016  3.2172  0.6226  0.2829
49399SOL     OW55246   6.208  12.037   9.893 -0.7038  0.1654  0.4279
49399SOL    HW155247   6.261  11.964   9.859 -0.7464  0.2976  0.0716
49399SOL    HW255248   6.269  12.089   9.944 -0.7278 -0.2536  0.8975
49400SOL     OW55249   9.395  12.329  10.994  0.2213  0.0661  0.3135
49400SOL    HW155250   9.332  12.289  10.935 -0.8297  1.5673  0.3824
49400SOL    HW255251   9.357  12.318  11.081  0.7902 -0.3506  0.5184
49401SOL     OW55252   8.386   2.007  10.341  0.5622  0.2818  0.4450
49401SOL    HW155253   8.308   1.964  10.376 -0.2210  0.0201 -1.5443
49401SOL    HW255254   8.396   2.085  10.397 -1.5257  0.6948  0.3342
49402SOL     OW55255   0.071   0.635  10.340 -0.6821  0.0864  0.1951
49402SOL    HW155256   0.016   0.684  10.402  0.1838 -0.6064  1.5583
49402SOL    HW255257   0.113   0.568  10.394 -0.2181 -0.8103 -1.2473
49403SOL     OW55258   4.621   0.384   6.756 -0.8459 -0.6526 -0.2854
49403SOL    HW155259   4.637   0.333   6.836 -0.6813  2.3463  1.7753
49403SOL    HW255260   4.698   0.441   6.748 -2.5757  1.8749 -0.2080
49404SOL     OW55261   5.523   3.012   6.926 -0.2860  0.4350  0.1753
49404SOL    HW155262   5.458   2.946   6.948 -1.4494  0.7512 -2.0927
49404SOL    HW255263   5.590   2.965   6.877 -0.7968  0.8002 -0.8922
49405SOL     OW55264   7.441  10.846  11.132 -0.5888 -0.3443  0.0369
49405SOL    HW155265   7.426  10.813  11.220 -2.1135  0.3729  0.0717
49405SOL    HW255266   7.439  10.941  11.141 -0.0169 -0.2528 -0.6603
49406SOL     OW55267  11.677   0.397   8.823 -0.5410 -0.2615  0.1597
49406SOL    HW155268  11.715   0.330   8.879  1.2424  1.1684  0.7728
49406SOL    HW255269  11.697   0.479   8.868 -1.6218  0.7636 -1.1439
49407SOL     OW55270   0.612   6.134   3.147  0.0962  0.0319  0.0312
49407SOL    HW155271   0.657   6.071   3.091 -0.7336  0.3362 -1.0213
49407SOL    HW255272   0.659   6.216   3.133 -0.4494  0.2359 -0.6823
49408SOL     OW55273   3.949   4.403   2.182  0.4221  0.4007  0.0819
49408SOL    HW155274   3.860   4.380   2.210  0.6431  0.5517  0.9411
49408SOL    HW255275   3.937   4.444   2.096 -0.1111 -1.5539 -0.8333
49409SOL     OW55276  12.541  11.657   6.841  0.0868  0.2589 -0.1738
49409SOL    HW155277  12.478  11.719   6.803  1.9405  2.5942  0.2934
49409SOL    HW255278  12.577  11.704   6.917  0.5386 -2.0302  1.1208
49410SOL     OW55279  11.459   4.627  12.284 -0.4898  0.0636 -0.2719
49410SOL    HW155280  11.440   4.714  12.247 -1.4864 -0.1132 -0.2079
49410SOL    HW255281  11.424   4.631  12.373 -1.5475 -0.7512 -0.6340
49411SOL     OW55282  11.887   2.656   5.545  0.1388  0.6144  0.0348
49411SOL    HW155283  11.895   2.622   5.456 -0.2534 -1.1468  0.6226
49411SOL    HW255284  11.793   2.656   5.562  0.2548  0.0394  0.7501
49412SOL     OW55285  11.014   9.511   2.481  0.4598 -0.1471 -0.7731
49412SOL    HW155286  10.949   9.459   2.434  0.7362 -0.1980 -1.1026
49412SOL    HW255287  11.051   9.569   2.414  0.2485  0.3727 -0.4343
49413SOL     OW55288  12.280   6.821   1.367 -0.1827 -0.0715 -0.2890
49413SOL    HW155289  12.277   6.836   1.462 -0.8577  0.4264 -0.3825
49413SOL    HW255290  12.373   6.828   1.345 -0.0918  0.4805  0.2343
49414SOL     OW55291   2.867   6.757   2.503 -0.3230  0.5757 -0.1335
49414SOL    HW155292   2.958   6.752   2.473 -0.1888  1.9829 -0.0243
49414SOL    HW255293   2.816   6.724   2.429  0.2800 -0.4395 -0.1144
49415SOL     OW55294   3.407   9.680   5.268  0.1890 -0.2107  0.7909
49415SOL    HW155295   3.427   9.591   5.239  2.6395  0.6906 -0.5830
49415SOL    HW255296   3.388   9.671   5.361 -0.9140 -2.3076  0.4244
49416SOL     OW55297   1.377   2.847   6.751 -0.0116  0.4472 -0.6520
49416SOL    HW155298   1.407   2.819   6.837  2.7157  0.6873 -1.4056
49416SOL    HW255299   1.295   2.799   6.736 -0.7928  0.7597  2.2060
49417SOL     OW55300  12.031   1.325   0.688 -0.0719 -0.5013  0.3375
49417SOL    HW155301  11.961   1.385   0.713  0.3518  0.5622 -0.9200
49417SOL    HW255302  11.987   1.254   0.642 -0.3689 -0.0034 -0.1540
49418SOL     OW55303   4.142   0.454   7.744 -0.0464 -0.1250 -0.0902
49418SOL    HW155304   4.213   0.392   7.759 -0.4240 -1.0694 -1.9719
49418SOL    HW255305   4.183   0.529   7.701  0.4932  1.2450  2.5889
49419SOL     OW55306  10.877  11.906   9.497 -0.4588 -0.4224 -0.0590
49419SOL    HW155307  10.923  11.940   9.573 -0.2969 -1.7638  0.4725
49419SOL    HW255308  10.860  11.983   9.442  1.4559  0.2511  0.2236
49420SOL     OW55309   3.704   8.232   3.384 -0.1459 -0.3097  0.0783
49420SOL    HW155310   3.703   8.139   3.409 -1.4699 -0.3887 -0.2313
49420SOL    HW255311   3.775   8.238   3.320 -0.7929 -1.3600 -0.7796
49421SOL     OW55312   8.155   1.841   3.858 -0.5047 -1.1961  0.3451
49421SOL    HW155313   8.092   1.913   3.850 -0.5887 -1.2382  0.6096
49421SOL    HW255314   8.182   1.843   3.950  0.6308 -0.5594  0.0109
49422SOL     OW55315   8.516  11.298  11.071  0.3217  0.5280 -0.1364
49422SOL    HW155316   8.584  11.359  11.099  0.9550 -0.0169 -0.4571
49422SOL    HW255317   8.434  11.335  11.106  0.9124  0.5938  1.2082
49423SOL     OW55318   4.001   1.835  10.125 -0.0771 -0.0663 -0.1883
49423SOL    HW155319   3.973   1.778  10.053  4.9740 -1.5743 -1.4115
49423SOL    HW255320   3.981   1.785  10.204 -0.9222 -0.8963 -0.8986
49424SOL     OW55321   1.796   8.617   6.510  0.1383  0.0153  0.7376
49424SOL    HW155322   1.756   8.535   6.541 -0.7607  0.1267 -0.0720
49424SOL    HW255323   1.737   8.685   6.542  0.1694  0.2512  0.2925
49425SOL     OW55324  12.501   4.030   0.684 -0.1302  0.0189 -0.2714
49425SOL    HW155325  12.546   3.974   0.621 -2.5278 -1.8230 -0.4860
49425SOL    HW255326  12.524   3.994   0.769 -1.8172 -1.5598 -0.4151
49426SOL     OW55327   0.579   1.636   9.897 -0.0594  0.3463 -0.0031
49426SOL    HW155328   0.539   1.582   9.828 -0.7110 -0.3576  0.9029
49426SOL    HW255329   0.672   1.633   9.878  0.1309 -2.4643  0.9268
49427SOL     OW55330   9.888   2.746   9.071  0.0218  0.2856 -0.6811
49427SOL    HW155331   9.907   2.817   9.009 -0.8226  0.2304 -1.0070
49427SOL    HW255332   9.824   2.784   9.131  0.3313  0.1176 -0.2380
49428SOL     OW55333   6.601  10.173   5.468  0.1910 -0.1141  0.3018
49428SOL    HW155334   6.567  10.084   5.465  0.5658 -0.2431 -0.1441
49428SOL    HW255335   6.548  10.222   5.405  0.2426 -0.1072  0.2640
49429SOL     OW55336   0.200   7.200  12.023  0.0491 -0.2754 -0.1657
49429SOL    HW155337   0.146   7.125  12.046  0.3966 -0.1647  1.1126
49429SOL    HW255338   0.275   7.162  11.976  0.5581 -0.8232  1.0473
49430SOL     OW55339   7.282   7.122   2.298  0.1297 -0.3939 -0.1145
49430SOL    HW155340   7.308   7.179   2.369 -2.5807  1.6604 -0.5853
49430SOL    HW255341   7.230   7.053   2.340  3.5612 -2.8599  0.4776
49431SOL     OW55342   4.146   7.356   2.324  0.3645 -0.3222  0.0883
49431SOL    HW155343   4.055   7.374   2.302  0.6720  2.4117  0.7272
49431SOL    HW255344   4.142   7.285   2.389 -1.4126  0.6951  1.1499
49432SOL     OW55345  12.323   7.405   4.512 -0.3519  0.2807  0.3335
49432SOL    HW155346  12.326   7.430   4.604  0.3483 -0.8375  0.6331
49432SOL    HW255347  12.366   7.320   4.509  1.0387  0.9890 -1.2641
49433SOL     OW55348   2.304   9.803   2.035 -0.2254 -0.4365 -0.0471
49433SOL    HW155349   2.294   9.803   2.130  1.0944  0.9730  0.1453
49433SOL    HW255350   2.242   9.738   2.004  0.9151 -2.6550  1.9442
49434SOL     OW55351  10.725   0.746   5.327 -0.4089 -0.1649  0.1707
49434SOL    HW155352  10.764   0.797   5.256 -2.1084  2.4079  0.9086
49434SOL    HW255353  10.762   0.659   5.317  3.9215  1.4557 -0.3379
49435SOL     OW55354   9.021   2.462   0.329  0.0385  0.2493 -0.0483
49435SOL    HW155355   8.925   2.471   0.328  0.2171  2.8748  0.2357
49435SOL    HW255356   9.038   2.388   0.271 -2.1805 -0.6189  0.2947
49436SOL     OW55357  12.149   7.918  10.832 -0.0186 -0.8013 -0.1606
49436SOL    HW155358  12.129   7.922  10.926 -2.1202  0.5703 -0.5885
49436SOL    HW255359  12.075   7.870  10.795  1.5301 -2.6569 -0.9947
49437SOL     OW55360   1.207   0.152  10.532  0.1593  0.3138  0.2525
49437SOL    HW155361   1.165   0.113  10.456  0.7024  1.7387 -0.8004
49437SOL    HW255362   1.151   0.226  10.556  0.7899  0.7745  0.3194
49438SOL     OW55363   2.844  11.199   2.891 -0.0642  0.0275 -0.0310
49438SOL    HW155364   2.837  11.255   2.968 -1.8899 -1.3391  0.8613
49438SOL    HW255365   2.935  11.209   2.863 -0.2052  3.1314  0.2557
49439SOL     OW55366   0.193  11.731   2.909 -0.1200 -0.1250  0.3863
49439SOL    HW155367   0.170  11.722   2.817 -0.0937  0.6304  0.3031
49439SOL    HW255368   0.288  11.744   2.909 -0.0887 -0.3381  0.5390
49440SOL     OW55369   7.307  12.357   3.273 -0.4361  0.3895  0.1952
49440SOL    HW155370   7.317  12.312   3.357  0.2303  3.8859  2.1806
49440SOL    HW255371   7.215  12.384   3.271 -0.8417 -0.9934 -0.9901
49441SOL     OW55372   3.447  10.947   6.231  0.1851  0.1398  0.2442
49441SOL    HW155373   3.511  10.893   6.277  0.2650  0.4999  0.5562
49441SOL    HW255374   3.494  11.027   6.208  0.0377  0.1254 -0.1224
49442SOL     OW55375  10.019   4.642   2.563  0.0602 -0.0875 -0.6324
49442SOL    HW155376   9.925   4.632   2.550 -0.0827  1.4105 -0.9789
49442SOL    HW255377  10.058   4.627   2.477  0.2149 -1.2195 -0.3867
49443SOL     OW55378   9.469   3.636  11.362 -0.1775  0.3199 -0.2676
49443SOL    HW155379   9.420   3.666  11.285  0.2705 -0.0032 -0.6859
49443SOL    HW255380   9.478   3.541  11.349 -0.0584  0.2702  0.1629
49444SOL     OW55381   6.288   1.127   3.712  0.2923  0.3594  1.0591
49444SOL    HW155382   6.250   1.104   3.797  0.4407  1.0084  1.3122
49444SOL    HW255383   6.263   1.219   3.699  0.8947  0.4866  0.7495
49445SOL     OW55384  11.080   4.913   4.433  0.6225 -0.2617 -0.1108
49445SOL    HW155385  11.128   4.946   4.509  0.7857  0.2871 -0.4479
49445SOL    HW255386  11.070   4.819   4.450 -1.8376  0.2945  1.9309
49446SOL     OW55387   1.391   9.440   2.411  0.0576 -0.0822  0.7937
49446SOL    HW155388   1.481   9.418   2.388  0.6523 -0.4352  3.2198
49446SOL    HW255389   1.399   9.504   2.481 -1.6272  1.4665 -0.3563
49447SOL     OW55390   1.097   4.198   2.703 -0.2098  0.5919  0.4236
49447SOL    HW155391   1.008   4.220   2.675 -0.6422  0.5383  1.6934
49447SOL    HW255392   1.096   4.210   2.798  0.5443 -1.4221  0.7396
49448SOL     OW55393  11.269   8.055  11.506  0.1393 -0.0082  0.2289
49448SOL    HW155394  11.326   7.980  11.486  0.7103  0.4488  0.1151
49448SOL    HW255395  11.193   8.044  11.449  1.4357  0.9259 -1.7728
49449SOL     OW55396  12.443  11.782  10.299  0.3308  0.0788 -0.4285
49449SOL    HW155397  12.491  11.726  10.238 -0.6775 -0.3029 -0.8899
49449SOL    HW255398  12.472  11.754  10.385  0.5124 -0.5416 -0.6869
49450SOL     OW55399  11.184  10.017  12.460  0.1778  0.3069  0.5873
49450SOL    HW155400  11.250   9.960  12.498  2.1342  1.9414 -0.2052
49450SOL    HW255401  11.183   9.993  12.367  1.1834  1.6783  0.2046
49451SOL     OW55402   6.387   8.250   6.361  0.5803 -0.4391  0.2116
49451SOL    HW155403   6.416   8.276   6.273  1.0757  1.2845  0.8424
49451SOL    HW255404   6.319   8.185   6.345  0.8289 -0.3414 -1.4462
49452SOL     OW55405   6.633   9.238   9.290  0.1366  0.0199  0.4748
49452SOL    HW155406   6.693   9.169   9.319  1.5995  1.6903  1.6837
49452SOL    HW255407   6.546   9.206   9.315  0.8811 -0.9023  2.0981
49453SOL     OW55408   0.143   8.524   5.817 -0.5742 -0.0909 -0.3338
49453SOL    HW155409   0.142   8.460   5.745 -0.5617 -0.0058 -0.4100
49453SOL    HW255410   0.215   8.495   5.873  0.6949  0.9406 -1.3579
49454SOL     OW55411  11.204   1.814   2.504 -0.0554 -0.7440  0.1210
49454SOL    HW155412  11.216   1.758   2.427  1.3567 -0.9926  0.4999
49454SOL    HW255413  11.176   1.753   2.573 -1.5402 -0.4886 -0.2165
49455SOL     OW55414  10.984   6.741   5.471  0.0672 -0.0367  0.0266
49455SOL    HW155415  11.024   6.683   5.406 -1.2174 -1.4780  0.4609
49455SOL    HW255416  10.905   6.773   5.429 -1.3782 -1.8621  1.1738
49456SOL     OW55417   8.476  10.835   4.606 -0.0982 -0.8388 -0.3376
49456SOL    HW155418   8.434  10.781   4.539 -0.8531  0.0196 -0.5781
49456SOL    HW255419   8.473  10.924   4.571 -0.9395 -0.2939  1.0389
49457SOL     OW55420   6.170   5.427  10.429 -0.2594 -0.6310  0.3003
49457SOL    HW155421   6.111   5.427  10.353 -0.9882 -2.2420  0.8200
49457SOL    HW255422   6.129   5.367  10.491  1.7739 -1.5893  0.7938
49458SOL     OW55423   2.385   7.881   2.104 -0.9515  0.9955  0.9781
49458SOL    HW155424   2.433   7.835   2.173  0.3799  0.1712 -0.4302
49458SOL    HW255425   2.294   7.859   2.120 -0.5713 -0.0950  1.8205
49459SOL     OW55426   8.580  11.965   1.645  0.4290  0.3484  0.1416
49459SOL    HW155427   8.540  12.052   1.637  0.1008  0.1495 -0.4481
49459SOL    HW255428   8.508  11.904   1.629  0.2729 -0.0786  2.2772
49460SOL     OW55429   1.745   8.420   9.181  0.2590 -0.4597 -0.1022
49460SOL    HW155430   1.707   8.392   9.264  1.0008  2.5191  1.3454
49460SOL    HW255431   1.670   8.446   9.128 -0.0827 -0.3204  0.4409
49461SOL     OW55432   8.800   0.043   1.602 -0.7184  0.3542  0.0257
49461SOL    HW155433   8.806  -0.011   1.680  0.2844 -0.7497 -0.7850
49461SOL    HW255434   8.771   0.129   1.634 -0.9322 -0.2480  1.5067
49462SOL     OW55435  11.153  11.598  11.607  0.0885 -0.3222 -0.1294
49462SOL    HW155436  11.205  11.523  11.578 -0.1681 -0.0050 -1.4510
49462SOL    HW255437  11.143  11.652  11.529  1.7360  1.9980  1.1325
49463SOL     OW55438   5.551   4.675   2.435  0.1552  0.1130  0.1710
49463SOL    HW155439   5.558   4.675   2.531  1.5268  2.1169  0.1361
49463SOL    HW255440   5.642   4.678   2.405 -0.2709 -0.1887 -1.1902
49464SOL     OW55441   8.617   7.016   6.887  0.7616 -0.2421  0.0980
49464SOL    HW155442   8.618   7.096   6.941 -0.5510 -0.1450  0.0222
49464SOL    HW255443   8.679   6.957   6.930 -0.5719 -0.3293  2.0206
49465SOL     OW55444   5.622   0.103   9.261 -0.3406  0.0688  0.0497
49465SOL    HW155445   5.716   0.123   9.264 -0.8044  2.5891  1.6446
49465SOL    HW255446   5.584   0.174   9.209 -1.5459  0.1403  0.9811
49466SOL     OW55447   3.330   8.173   6.249 -0.3154  0.5471 -0.7126
49466SOL    HW155448   3.380   8.094   6.272 -1.0018  0.7225  1.6489
49466SOL    HW255449   3.298   8.156   6.160  1.0050 -1.0715 -0.9273
49467SOL     OW55450   5.552  10.859   6.428  0.3376 -0.3425 -0.0393
49467SOL    HW155451   5.624  10.914   6.398  0.8674 -1.1997 -0.3734
49467SOL    HW255452   5.545  10.877   6.521  0.5692  0.2166 -0.1264
49468SOL     OW55453  12.424  11.704   3.183 -0.4763  0.2637  0.3851
49468SOL    HW155454  12.386  11.685   3.270 -0.8357 -0.3941  0.0980
49468SOL    HW255455  12.487  11.773   3.199  0.7149 -1.0140  1.4797
49469SOL     OW55456  10.809   3.621   6.019  0.4934  0.3676  0.1591
49469SOL    HW155457  10.785   3.707   6.054  0.6239 -1.0411  4.3068
49469SOL    HW255458  10.735   3.565   6.041  1.3204 -1.0070 -0.4248
49470SOL     OW55459   6.572   8.308   0.889  0.2078  0.1125 -0.1371
49470SOL    HW155460   6.591   8.303   0.982  0.0857  0.1323 -0.1118
49470SOL    HW255461   6.477   8.302   0.883  0.2982 -1.6068 -0.3689
49471SOL     OW55462   5.150  11.199  11.861  0.2397  0.0291 -0.2633
49471SOL    HW155463   5.166  11.253  11.783 -0.6231 -1.1964 -1.3436
49471SOL    HW255464   5.222  11.136  11.861  0.4080  0.2188  0.1186
49472SOL     OW55465   3.632   7.235   1.036 -0.0302 -0.0085 -0.1835
49472SOL    HW155466   3.670   7.294   0.971  1.3355 -1.1457 -0.4778
49472SOL    HW255467   3.670   7.150   1.016  0.7165 -0.3437  2.2747
49473SOL     OW55468   1.449   1.155   3.762  0.4972 -0.3677 -0.3813
49473SOL    HW155469   1.366   1.107   3.770  0.8933 -0.9216  0.5833
49473SOL    HW255470   1.495   1.138   3.845  1.0531  0.9245 -0.3895
49474SOL     OW55471   2.665   4.267   8.905  0.7250  0.1696  0.3019
49474SOL    HW155472   2.722   4.215   8.962  0.0076  0.2427  1.1106
49474SOL    HW255473   2.707   4.352   8.900  1.4500 -0.2123 -0.3199
49475SOL     OW55474   4.137   4.349  10.736  0.2022 -0.1979 -0.0550
49475SOL    HW155475   4.140   4.380  10.827  1.5217  1.0415 -0.4914
49475SOL    HW255476   4.215   4.386  10.695 -1.1343  0.5222 -2.0956
49476SOL     OW55477   5.896   0.108   9.203 -0.0580 -0.1296 -0.4697
49476SOL    HW155478   5.854   0.056   9.134  2.2632 -1.1561 -1.1962
49476SOL    HW255479   5.895   0.198   9.170  0.9459 -0.5996 -1.8411
49477SOL     OW55480   0.791   3.339   3.236 -0.2181  0.2244 -0.0324
49477SOL    HW155481   0.775   3.283   3.312 -0.1928 -1.1965 -1.0228
49477SOL    HW255482   0.878   3.376   3.252 -1.3989  2.3822  2.0173
49478SOL     OW55483   9.243   1.104   4.773 -0.2242 -0.2846  0.3456
49478SOL    HW155484   9.171   1.153   4.734 -0.0847 -1.5550 -1.6597
49478SOL    HW255485   9.321   1.153   4.748 -0.2541 -0.1215  0.5741
49479SOL     OW55486   9.221   8.567   1.470 -0.1148 -0.6281 -0.7753
49479SOL    HW155487   9.150   8.504   1.482  0.1209 -0.9200 -0.8922
49479SOL    HW255488   9.298   8.523   1.505  0.3796 -1.0644 -2.3400
49480SOL     OW55489   9.634  10.548  11.355 -0.5801 -0.0328 -0.2583
49480SOL    HW155490   9.667  10.469  11.312  0.7027 -0.6869  1.8054
49480SOL    HW255491   9.550  10.523  11.392 -0.9196  0.0577 -0.9557
49481SOL     OW55492   3.076   7.799  12.140  0.3575  0.0177  0.0695
49481SOL    HW155493   3.099   7.882  12.099  0.0786  0.0442 -0.0414
49481SOL    HW255494   3.026   7.752  12.072  0.4637 -0.2148  0.1502
49482SOL     OW55495   1.714  10.414   3.375 -0.3672  0.0092  0.2911
49482SOL    HW155496   1.775  10.451   3.312  0.4002  1.4929  1.8210
49482SOL    HW255497   1.768  10.362   3.434 -0.7223  0.3709  0.9565
49483SOL     OW55498   5.661   3.097   0.259 -0.4195 -0.8098  0.0045
49483SOL    HW155499   5.701   3.178   0.229 -0.8660 -0.9093 -0.8984
49483SOL    HW255500   5.733   3.047   0.297  0.0340 -0.3668 -0.2601
49484SOL     OW55501   1.446   9.806  11.818  0.3722 -0.4514 -0.3504
49484SOL    HW155502   1.424   9.725  11.772  0.3836  0.1611 -1.4809
49484SOL    HW255503   1.542   9.808  11.818  0.3709 -0.2242 -0.7366
49485SOL     OW55504   2.703   0.525   3.100  0.2222 -0.4342  0.6767
49485SOL    HW155505   2.779   0.508   3.044 -0.4398 -1.5613  0.0964
49485SOL    HW255506   2.627   0.513   3.043 -0.4338 -0.4260  1.5288
49486SOL     OW55507   5.116   6.762   0.552  0.6818  0.2570 -0.8493
49486SOL    HW155508   5.183   6.816   0.594  1.6288 -0.6882 -1.1082
49486SOL    HW255509   5.165   6.694   0.506 -0.4868 -1.7307  0.6622
49487SOL     OW55510   1.313   8.190   8.824  0.1259  0.4363  0.2927
49487SOL    HW155511   1.270   8.107   8.804  1.7024 -0.0323 -1.4554
49487SOL    HW255512   1.243   8.255   8.821 -0.9950 -0.7085  0.8554
49488SOL     OW55513   8.642  12.094   3.099  0.0946  0.4670  0.6299
49488SOL    HW155514   8.601  12.013   3.130  0.3262 -0.2241 -0.7847
49488SOL    HW255515   8.727  12.066   3.064  0.4863  1.4391  0.7676
49489SOL     OW55516  10.359   1.784  11.754  0.4499  0.2055 -0.0747
49489SOL    HW155517  10.297   1.852  11.728 -0.9507 -0.6517  0.8509
49489SOL    HW255518  10.305   1.705  11.764  1.6579 -0.5278  0.9439
49490SOL     OW55519   6.503   7.856  11.354 -0.4298  0.0557  0.2654
49490SOL    HW155520   6.480   7.945  11.381  0.2970 -0.0015  1.1048
49490SOL    HW255521   6.520   7.810  11.435 -0.7192 -0.8405 -0.1714
49491SOL     OW55522  11.575  11.870   3.653 -0.0153  0.5636  0.0254
49491SOL    HW155523  11.513  11.935   3.619  0.2487  0.6826 -0.2350
49491SOL    HW255524  11.631  11.849   3.579 -0.6309 -0.6124 -0.1401
49492SOL     OW55525   8.933   3.527   3.054 -0.0479 -0.2123  0.3398
49492SOL    HW155526   8.920   3.589   2.983  1.4369  0.1168  0.3293
49492SOL    HW255527   8.910   3.575   3.133  2.0337  0.7353  0.4352
49493SOL     OW55528  11.089   9.948   7.457 -0.3734  0.2867  0.3195
49493SOL    HW155529  10.999   9.919   7.442 -0.4060  0.9828 -0.9551
49493SOL    HW255530  11.103   9.934   7.550 -1.7766  0.0855  0.5282
49494SOL     OW55531   7.484  12.391   9.980 -0.1845 -0.5023  0.2441
49494SOL    HW155532   7.425  12.356  10.046 -0.2132 -1.7609 -0.4125
49494SOL    HW255533   7.465  12.340   9.901  1.1039 -0.2662 -0.2496
49495SOL     OW55534   6.673   0.757   5.694  0.4076  0.4003 -0.1523
49495SOL    HW155535   6.684   0.770   5.788 -2.5193 -2.0161  0.6859
49495SOL    HW255536   6.694   0.664   5.680 -0.8126  0.2977 -1.5630
49496SOL     OW55537   3.084   9.487   5.465  0.3663 -0.7803  0.0681
49496SOL    HW155538   3.049   9.450   5.546  1.1648  0.8932  1.2281
49496SOL    HW255539   3.054   9.427   5.397 -2.4790 -0.8968  1.2868
49497SOL     OW55540   9.093   0.884   6.262  0.0022  0.2661 -0.1623
49497SOL    HW155541   9.059   0.968   6.291 -0.3237 -0.0117  0.2707
49497SOL    HW255542   9.153   0.906   6.190 -1.0219  0.7749 -0.8874
49498SOL     OW55543   4.176   9.486   1.245 -0.9076 -0.0589  0.1626
49498SOL    HW155544   4.244   9.423   1.221 -0.1780  0.8630 -0.2292
49498SOL    HW255545   4.115   9.435   1.300 -0.8836 -1.3590 -0.9488
49499SOL     OW55546   8.657   6.731   5.128 -0.2858  0.6996 -0.1197
49499SOL    HW155547   8.655   6.751   5.034 -1.5018  0.5666 -0.1416
49499SOL    HW255548   8.630   6.812   5.170 -0.8935  0.4232  0.0377
49500SOL     OW55549   7.079   5.012   4.421  0.2647  0.2845  0.3687
49500SOL    HW155550   7.129   5.093   4.418 -0.4830  0.7164 -1.2928
49500SOL    HW255551   7.033   5.016   4.505  0.5859  1.3631  0.5135
49501SOL     OW55552   6.861   4.799   4.953  0.1960  0.0186  0.1979
49501SOL    HW155553   6.949   4.812   4.988  0.7883  0.4009 -1.3835
49501SOL    HW255554   6.834   4.714   4.990  0.8130  0.3502  1.4752
49502SOL     OW55555   9.842   3.958   1.976  0.0965 -0.6153  0.3652
49502SOL    HW155556   9.833   4.014   2.053 -0.0755 -0.6418  0.3643
49502SOL    HW255557   9.925   3.984   1.936  0.2397 -0.6764  0.6214
49503SOL     OW55558   3.880   4.898   8.968 -0.2429  0.0980  0.4164
49503SOL    HW155559   3.884   4.981   9.016 -2.2409 -0.5060  1.7518
49503SOL    HW255560   3.871   4.924   8.877  1.2176  1.2937  0.5628
49504SOL     OW55561   1.850   6.599   5.704 -0.9511  0.4805  0.4358
49504SOL    HW155562   1.868   6.550   5.624  0.7430  1.1672  0.3640
49504SOL    HW255563   1.924   6.659   5.713 -0.2420 -0.6434  3.3300
49505SOL     OW55564   7.826   3.865  12.253 -0.5167 -0.3616 -0.5628
49505SOL    HW155565   7.753   3.906  12.207 -0.9031  0.2418  0.5394
49505SOL    HW255566   7.785   3.801  12.312 -0.2060  0.1890  0.2813
49506SOL     OW55567  11.473   5.698  11.038  0.4068  0.6317 -0.0504
49506SOL    HW155568  11.447   5.786  11.067  0.4948 -0.3110  3.2888
49506SOL    HW255569  11.562   5.687  11.072  0.9257 -0.3196 -1.5997
49507SOL     OW55570   7.494   0.613   7.410 -0.5144  0.5878 -0.1205
49507SOL    HW155571   7.440   0.688   7.385 -0.3768  0.6183 -0.3260
49507SOL    HW255572   7.548   0.595   7.333  0.3656  1.0764  0.3690
49508SOL     OW55573  11.891   0.823   1.845  0.8815 -0.1305 -0.6835
49508SOL    HW155574  11.896   0.858   1.934  0.9772  0.4569 -0.9125
49508SOL    HW255575  11.801   0.789   1.838  1.0054 -0.5708 -0.2295
49509SOL     OW55576   6.529   2.909  12.372 -0.2882  0.6168  1.2058
49509SOL    HW155577   6.461   2.951  12.320  1.8428  0.8090 -1.7103
49509SOL    HW255578   6.556   2.976  12.435 -1.2838  1.2920  0.9366
49510SOL     OW55579   8.367  11.768  10.507  0.1178 -0.7921  0.3021
49510SOL    HW155580   8.384  11.790  10.598 -0.9537  0.4092  0.2452
49510SOL    HW255581   8.324  11.846  10.471 -0.3036 -1.5841 -0.9863
49511SOL     OW55582   0.849   9.760   7.570  0.4571  0.1300 -0.1581
49511SOL    HW155583   0.939   9.781   7.596  1.1626 -1.2447 -1.2973
49511SOL    HW255584   0.795   9.823   7.617  1.7054 -1.0567  3.2592
49512SOL     OW55585   1.073  11.231   4.063 -0.7361 -0.0219  0.1593
49512SOL    HW155586   1.067  11.135   4.064 -0.3088 -0.0651 -0.4881
49512SOL    HW255587   1.074  11.256   4.155  0.5615 -0.7472  0.3702
49513SOL     OW55588   9.372   7.541   6.442  0.4659  0.8410 -0.2885
49513SOL    HW155589   9.329   7.622   6.468  0.8529  1.2312 -0.8388
49513SOL    HW255590   9.403   7.557   6.353  1.6050  0.5207  0.0319
49514SOL     OW55591   9.676  10.164   7.006  0.3464  0.2571  0.1547
49514SOL    HW155592   9.673  10.247   6.958  0.5331  0.0356 -0.2367
49514SOL    HW255593   9.766  10.156   7.035  0.7544 -0.6388 -1.2716
49515SOL     OW55594   8.860   1.515   8.588 -0.0600  0.5277  0.0967
49515SOL    HW155595   8.852   1.578   8.660  0.1033 -0.3214  0.8736
49515SOL    HW255596   8.779   1.464   8.592 -0.1292  0.5913 -0.4398
49516SOL     OW55597   0.650   9.389   3.538  0.7320 -0.1074  0.1427
49516SOL    HW155598   0.555   9.397   3.541  0.7966  0.4789  2.2354
49516SOL    HW255599   0.682   9.479   3.542  1.3345 -0.3446  1.8810
49517SOL     OW55600  11.286   2.101   6.825  0.0567  0.0414 -0.4471
49517SOL    HW155601  11.195   2.095   6.855  0.6010 -0.6184  1.1724
49517SOL    HW255602  11.308   2.012   6.797  0.4692  0.0085 -0.0255
49518SOL     OW55603   5.916   9.197   0.432  0.5918 -0.4060  0.0149
49518SOL    HW155604   5.937   9.271   0.376  0.4975  1.4400  2.2876
49518SOL    HW255605   5.832   9.219   0.472  0.7365 -1.5524  1.0292
49519SOL     OW55606   9.881   2.713   7.156 -0.2704 -0.0239  0.2772
49519SOL    HW155607   9.909   2.622   7.166 -2.2858 -0.5597  1.6848
49519SOL    HW255608   9.787   2.707   7.134 -0.0766  1.7023 -1.3387
49520SOL     OW55609  12.381   7.302   3.301  0.2335 -0.0638  0.0982
49520SOL    HW155610  12.334   7.383   3.280  2.0495  1.1189  0.3666
49520SOL    HW255611  12.312   7.239   3.321 -1.2278  1.6346  0.7031
49521SOL     OW55612   6.746   8.294   7.886 -0.2012 -0.2773  0.0616
49521SOL    HW155613   6.739   8.309   7.981 -1.8283  0.2642 -0.1324
49521SOL    HW255614   6.827   8.242   7.877 -0.2449 -0.7185  1.7831
49522SOL     OW55615   8.355   5.345  10.531  0.1242 -0.4113  0.0371
49522SOL    HW155616   8.395   5.430  10.511  1.3913 -1.0414 -0.2195
49522SOL    HW255617   8.371   5.293  10.452 -1.5792 -0.5874 -0.2308
49523SOL     OW55618   4.638   2.006   2.115  0.4090  0.1020  0.3556
49523SOL    HW155619   4.660   1.913   2.121 -1.1286 -0.2096  1.7951
49523SOL    HW255620   4.561   2.016   2.172  0.2235  2.1500 -0.2020
49524SOL     OW55621   1.078   6.264   3.025 -0.2905 -0.1977 -0.4421
49524SOL    HW155622   1.118   6.351   3.018  0.0795 -0.4144 -1.1730
49524SOL    HW255623   1.030   6.254   2.943 -1.9076  0.0724  0.4352
49525SOL     OW55624   4.284   7.731  12.251 -0.1941  0.5236  0.7092
49525SOL    HW155625   4.227   7.683  12.191 -0.5534  3.2526 -1.3326
49525SOL    HW255626   4.224   7.778  12.309  0.1272 -0.1603  1.6260
49526SOL     OW55627   9.858   9.989   0.360  0.2903  0.2835  0.1284
49526SOL    HW155628   9.880   9.908   0.314 -1.1516  0.0380 -0.1611
49526SOL    HW255629   9.914  10.055   0.319  0.1491 -0.2266 -0.9302
49527SOL     OW55630   6.817   8.338  11.808 -0.0828  0.0057 -0.2699
49527SOL    HW155631   6.742   8.375  11.762 -0.5651 -0.4013  0.1850
49527SOL    HW255632   6.791   8.249  11.829 -0.0271  0.3077  1.1345
49528SOL     OW55633   0.644   7.076  10.233  0.6124  0.0684 -0.0340
49528SOL    HW155634   0.672   7.167  10.223 -0.0818  0.0507 -3.1501
49528SOL    HW255635   0.716   7.035  10.282  1.1214  2.1527  1.1154
49529SOL     OW55636   8.215   4.908   1.390 -0.0725 -0.2666  0.2192
49529SOL    HW155637   8.176   4.926   1.475  0.7518  1.2518  0.3053
49529SOL    HW255638   8.279   4.839   1.407 -0.8243 -0.8952  0.5605
49530SOL     OW55639   5.823   0.937   0.039  0.0014 -0.0781 -0.2547
49530SOL    HW155640   5.745   0.882   0.029 -0.1376  0.2418 -1.0111
49530SOL    HW255641   5.870   0.926  -0.044 -0.0790  1.0198 -0.4624
49531SOL     OW55642   3.902   7.865  11.832 -0.1760 -0.0728  0.0633
49531SOL    HW155643   3.845   7.806  11.783 -0.7578  1.2313 -0.8884
49531SOL    HW255644   3.959   7.807  11.882  0.9097 -1.5015 -2.6425
49532SOL     OW55645  11.746   5.163  10.671  0.3097  0.0444 -0.2080
49532SOL    HW155646  11.766   5.221  10.744 -1.0760 -0.8987  0.9819
49532SOL    HW255647  11.797   5.198  10.597  1.8767  0.9356  1.2245
49533SOL     OW55648   3.747   8.131   3.917  0.0343 -0.5248 -0.1569
49533SOL    HW155649   3.653   8.148   3.907 -0.4474 -3.5566 -2.2916
49533SOL    HW255650   3.789   8.199   3.866 -0.9583  0.8420  0.7771
49534SOL     OW55651   7.139   5.150   0.524 -0.4392  0.2735 -0.3976
49534SOL    HW155652   7.114   5.165   0.615  0.0344 -1.3110  0.0160
49534SOL    HW255653   7.080   5.206   0.474 -3.1378 -1.3908  0.6955
49535SOL     OW55654   4.352  11.967   3.655 -0.0602 -0.3229 -0.4187
49535SOL    HW155655   4.320  11.968   3.745 -0.4383 -0.0595 -0.5519
49535SOL    HW255656   4.314  12.046   3.615 -1.2077 -1.2792 -1.2631
49536SOL     OW55657   7.798   2.040   1.499 -0.6937  0.1955 -0.2961
49536SOL    HW155658   7.846   2.026   1.581 -0.1841 -0.2093 -0.6535
49536SOL    HW255659   7.756   1.956   1.481 -1.2400  0.4411 -0.1747
49537SOL     OW55660   4.093   6.649   4.326  0.1288 -0.3219  0.3214
49537SOL    HW155661   4.153   6.575   4.313  1.0247  0.1761  1.4176
49537SOL    HW255662   4.147   6.726   4.307 -0.4134  0.1007  0.4930
49538SOL     OW55663   8.841   8.292   7.539  0.5524  0.7221  0.2385
49538SOL    HW155664   8.763   8.342   7.563  1.5980  1.8303  1.4679
49538SOL    HW255665   8.875   8.336   7.461 -0.1928  0.0476 -0.4874
49539SOL     OW55666  11.206   7.147   5.775 -0.0897  0.1594  0.0676
49539SOL    HW155667  11.295   7.171   5.751  0.7502 -1.7317  1.1059
49539SOL    HW255668  11.155   7.161   5.695  0.7583  2.7779 -0.1154
49540SOL     OW55669   9.881   6.732   5.238 -0.3853  0.1412 -0.0282
49540SOL    HW155670   9.789   6.713   5.258  0.3285 -1.5696  2.0900
49540SOL    HW255671   9.928   6.656   5.271  1.7866  0.7967 -1.4428
49541SOL     OW55672  10.827   9.015  12.166  0.5519  0.6265  0.0977
49541SOL    HW155673  10.795   9.022  12.257 -0.1401  2.8976 -0.2549
49541SOL    HW255674  10.897   8.950  12.171  1.0387  1.2111  2.4145
49542SOL     OW55675  11.040  10.055   4.838  0.6438  0.4912 -0.8826
49542SOL    HW155676  11.009   9.966   4.823  1.5907  0.2387 -1.4186
49542SOL    HW255677  11.077  10.053   4.927 -0.0589  0.5758 -0.5769
49543SOL     OW55678   0.362   2.158   1.592  0.4841 -0.3401 -0.5036
49543SOL    HW155679   0.435   2.117   1.546 -0.1085 -2.3018  0.2016
49543SOL    HW255680   0.294   2.166   1.525  0.5257 -0.7625 -0.6041
49544SOL     OW55681   8.709   3.139   2.524  0.1976 -0.3918 -0.0796
49544SOL    HW155682   8.651   3.077   2.480 -1.4447  1.2206 -0.3274
49544SOL    HW255683   8.670   3.225   2.507  3.6573  1.0508 -1.8251
49545SOL     OW55684   8.422   2.862   4.711  0.6619  0.7881 -0.1529
49545SOL    HW155685   8.428   2.874   4.617 -0.5590  2.0603 -0.0958
49545SOL    HW255686   8.411   2.950   4.746  1.7697  0.4062  1.2453
49546SOL     OW55687   3.675   5.145   4.543  0.1093 -0.3694 -0.4136
49546SOL    HW155688   3.637   5.058   4.556  1.0680 -0.5485  1.4794
49546SOL    HW255689   3.739   5.133   4.472 -0.5106 -0.9461 -0.8899
49547SOL     OW55690   2.177   9.758   5.578  0.2932  0.3357  0.0564
49547SOL    HW155691   2.213   9.669   5.578 -0.1847  0.1400 -0.2000
49547SOL    HW255692   2.207   9.796   5.495 -0.8969 -0.1696 -0.6384
49548SOL     OW55693   7.843   3.900   9.468  0.6747  0.9018 -0.3850
49548SOL    HW155694   7.754   3.921   9.495  0.4919  1.3633 -1.3347
49548SOL    HW255695   7.886   3.985   9.460  1.2732  0.6761  0.2587
49549SOL     OW55696  10.560   3.982  12.394  0.2848  0.7739 -0.2771
49549SOL    HW155697  10.482   3.930  12.414 -0.1521  0.4203 -2.6277
49549SOL    HW255698  10.535   4.034  12.318  2.2278  0.9114 -0.8757
49550SOL     OW55699   4.908   7.223   9.859  0.3901 -0.3294 -0.4695
49550SOL    HW155700   4.926   7.309   9.821  1.1828  0.5001  1.6418
49550SOL    HW255701   4.818   7.228   9.891  0.0466 -0.7051 -1.3401
49551SOL     OW55702  11.028   7.356  11.267 -0.5321 -0.6045 -0.7148
49551SOL    HW155703  10.987   7.415  11.330 -0.1360  0.1683 -1.1579
49551SOL    HW255704  11.121   7.358  11.289  0.3363  2.8765 -3.6796
49552SOL     OW55705   4.356  10.406   4.355  0.1754 -0.1434 -0.2442
49552SOL    HW155706   4.336  10.499   4.347 -0.5701 -0.3290 -0.7296
49552SOL    HW255707   4.313  10.379   4.436 -1.6409 -0.5384 -1.2799
49553SOL     OW55708   3.288   4.213   1.565 -0.1984  0.3558  0.2520
49553SOL    HW155709   3.300   4.187   1.657  0.5266  1.5606  0.5208
49553SOL    HW255710   3.357   4.167   1.518  0.0989  0.5739  0.4746
49554SOL     OW55711  10.214   0.106   2.301  0.0904  0.2901  0.4680
49554SOL    HW155712  10.246   0.185   2.259  0.1538  0.1378  0.2272
49554SOL    HW255713  10.293   0.055   2.321 -0.0002 -0.2018 -0.3556
49555SOL     OW55714   3.451   7.993   3.205  0.2771 -0.4360  0.0641
49555SOL    HW155715   3.390   7.979   3.277 -0.1179 -2.1676 -0.5473
49555SOL    HW255716   3.466   8.087   3.204 -1.0141 -0.1759  1.3389
49556SOL     OW55717   1.830   4.220   3.408 -0.0033 -0.2671 -0.6058
49556SOL    HW155718   1.814   4.126   3.411 -2.5517  0.0473 -1.9295
49556SOL    HW255719   1.743   4.260   3.412  1.0112  2.0649  0.0651
49557SOL     OW55720   0.218   3.633  11.279  0.2580  0.0420 -0.2418
49557SOL    HW155721   0.229   3.669  11.367 -1.0959 -0.8625  0.3303
49557SOL    HW255722   0.267   3.551  11.280  0.0196 -0.1025 -0.2361
49558SOL     OW55723   9.102   3.101  10.213 -0.0073 -0.6814 -0.1631
49558SOL    HW155724   9.049   3.020  10.213 -0.4420 -0.4325  1.1513
49558SOL    HW255725   9.137   3.107  10.125 -0.9689 -1.6672 -0.6414
49559SOL     OW55726  12.074   6.768   5.200 -0.0608  0.3318  0.6705
49559SOL    HW155727  12.060   6.840   5.262 -0.7970  1.5358 -0.8338
49559SOL    HW255728  11.992   6.763   5.150  0.0297 -1.4805  0.6184
49560SOL     OW55729  12.173  12.214   6.910 -0.6219  0.0515 -0.2717
49560SOL    HW155730  12.266  12.196   6.924 -0.3698 -0.4381 -2.3155
49560SOL    HW255731  12.128  12.141   6.955 -0.0720  0.4630  0.9972
49561SOL     OW55732   6.909   3.388   3.314 -0.5460 -0.0296 -0.1644
49561SOL    HW155733   6.900   3.477   3.279  0.6694  0.3689  0.4776
49561SOL    HW255734   6.967   3.344   3.252  1.6256  0.6825  1.2743
49562SOL     OW55735   1.091   2.323   5.697  0.0298  0.0399 -0.0420
49562SOL    HW155736   1.072   2.252   5.759 -1.4368  1.9108  1.7893
49562SOL    HW255737   1.006   2.360   5.676  0.8623  2.3537  0.4371
49563SOL     OW55738   2.373   8.029  11.997 -0.0580 -0.2140  1.1754
49563SOL    HW155739   2.285   8.002  11.973  0.7348 -2.3584  0.4191
49563SOL    HW255740   2.377   8.122  11.975 -1.1164 -0.7910 -1.9842
49564SOL     OW55741   6.088   8.785   0.487  0.1337 -0.5088  0.2757
49564SOL    HW155742   6.077   8.756   0.577 -3.5291 -1.5557 -0.3558
49564SOL    HW255743   6.027   8.858   0.478  1.4784  0.5152 -1.0437
49565SOL     OW55744  11.204   1.293   6.142 -0.2518 -0.1304  0.6163
49565SOL    HW155745  11.284   1.309   6.091 -0.7903 -0.9597 -0.5290
49565SOL    HW255746  11.163   1.219   6.099 -1.8848  0.5619  0.9239
49566SOL     OW55747  10.780   1.846   4.156  0.6767  0.5905  0.3418
49566SOL    HW155748  10.741   1.761   4.138  1.5760 -0.1635  1.7760
49566SOL    HW255749  10.739   1.905   4.093 -0.4821 -0.7568 -0.2183
49567SOL     OW55750  10.647  12.058   7.903  0.2837 -0.2997 -0.1317
49567SOL    HW155751  10.617  12.085   7.990 -0.8615 -0.8801 -0.3224
49567SOL    HW255752  10.741  12.072   7.904  0.2329  0.0362  1.0808
49568SOL     OW55753  12.540  12.047   0.424  0.2417 -0.1724 -0.5034
49568SOL    HW155754  12.631  12.071   0.437 -0.2443  0.9246  1.3169
49568SOL    HW255755  12.493  12.131   0.424 -0.7146 -0.6770 -1.9908
49569SOL     OW55756  11.929   0.845   6.774 -0.0966 -0.1424  0.8218
49569SOL    HW155757  11.952   0.901   6.700  0.7400  1.8383  2.4882
49569SOL    HW255758  11.834   0.850   6.779 -0.0426  1.2051  0.9405
49570SOL     OW55759   9.231   1.921   8.852 -0.1699 -0.1965 -0.5158
49570SOL    HW155760   9.279   1.989   8.899 -0.0406 -0.2220 -0.6123
49570SOL    HW255761   9.139   1.942   8.868 -0.1441 -1.0158  0.9644
49571SOL     OW55762  11.073   1.811   4.534 -0.2685 -0.1665 -0.0331
49571SOL    HW155763  11.018   1.779   4.462 -3.6217  2.6346  1.0356
49571SOL    HW255764  11.091   1.902   4.511  1.3755 -0.1415  1.2078
49572SOL     OW55765  10.389   5.254   4.982  0.2151 -0.3223 -0.1598
49572SOL    HW155766  10.369   5.187   5.047  0.8285 -0.7898 -0.4527
49572SOL    HW255767  10.344   5.332   5.014 -2.3587 -1.3643 -0.8963
49573SOL     OW55768   2.109  12.083   8.421  0.0590 -0.3430  0.4246
49573SOL    HW155769   2.026  12.129   8.405  0.7885  0.8932  0.0911
49573SOL    HW255770   2.082  11.999   8.458 -1.3024  0.4934  1.4354
49574SOL     OW55771   2.738  11.881   8.976 -0.1102  0.0080 -0.3130
49574SOL    HW155772   2.755  11.872   9.070 -0.1140 -0.4190 -0.3548
49574SOL    HW255773   2.819  11.854   8.934 -0.1843 -0.0156 -0.4407
49575SOL     OW55774   6.319  11.466   1.587 -0.5447 -0.1152 -0.4612
49575SOL    HW155775   6.260  11.515   1.529 -0.8874 -1.8324 -1.6469
49575SOL    HW255776   6.268  11.449   1.665 -0.7167  0.6385 -0.4028
49576SOL     OW55777   2.442   2.210   6.793 -0.2342 -0.7197 -0.0605
49576SOL    HW155778   2.528   2.219   6.751  0.2543  1.9657  1.3077
49576SOL    HW255779   2.380   2.207   6.721  0.6839  2.3803 -1.1508
49577SOL     OW55780   1.398  12.194   9.173  0.0590 -0.3753 -0.2961
49577SOL    HW155781   1.472  12.227   9.122  0.3415  0.2030  0.4710
49577SOL    HW255782   1.327  12.187   9.110  0.6215 -0.4320 -0.9352
49578SOL     OW55783   3.967   2.912   7.156  0.0224  0.1203  0.6092
49578SOL    HW155784   3.940   2.842   7.215 -1.4987  2.3364  2.7985
49578SOL    HW255785   4.048   2.946   7.195 -0.5111  1.0304  0.9638
49579SOL     OW55786   6.648  10.761  12.232  0.5185 -0.0459  0.0854
49579SOL    HW155787   6.719  10.704  12.203  0.4245  0.2511 -0.7417
49579SOL    HW255788   6.687  10.817  12.299  0.9810 -0.0744 -0.1634
49580SOL     OW55789   0.017   2.384   5.471  0.4040  0.7739 -0.9105
49580SOL    HW155790  -0.067   2.348   5.499  0.7372 -1.6872 -2.7316
49580SOL    HW255791   0.060   2.410   5.553 -1.0175 -0.4842  0.2937
49581SOL     OW55792   0.226   6.911   2.426  0.0426  0.3217 -0.2286
49581SOL    HW155793   0.310   6.955   2.415 -0.0667  0.2301 -1.5486
49581SOL    HW255794   0.164   6.966   2.377 -0.3508 -0.5197 -0.6844
49582SOL     OW55795   3.535   2.872   2.494 -0.3836 -0.3471  0.4009
49582SOL    HW155796   3.449   2.868   2.451 -0.4077  1.4770  0.1949
49582SOL    HW255797   3.592   2.818   2.439 -0.8564  0.3945 -0.8784
49583SOL     OW55798  11.302   0.267   8.191 -0.6215  0.1734  0.3267
49583SOL    HW155799  11.267   0.192   8.142 -2.0325  1.4616 -0.7268
49583SOL    HW255800  11.357   0.227   8.258 -1.3422 -1.8197 -0.1773
49584SOL     OW55801   8.186   7.904   1.352 -0.3966  0.6230 -0.5738
49584SOL    HW155802   8.182   7.999   1.347 -1.3405  0.5546 -2.1392
49584SOL    HW255803   8.259   7.880   1.294 -1.1060  0.3614 -1.3828
49585SOL     OW55804   2.214   1.862   0.998 -0.5157  0.0469  0.2835
49585SOL    HW155805   2.235   1.953   0.979 -1.6274  0.7921  2.3496
49585SOL    HW255806   2.234   1.815   0.917 -0.0579  2.1322 -0.8633
49586SOL     OW55807   0.688   3.069   0.663  0.5107 -0.5901  0.3802
49586SOL    HW155808   0.625   3.076   0.735  1.2440 -0.2133  1.0052
49586SOL    HW255809   0.774   3.079   0.705  0.9662 -0.5489 -0.5237
49587SOL     OW55810  10.208   3.675  11.748 -0.3379 -0.1076 -0.3070
49587SOL    HW155811  10.206   3.653  11.655  1.3282 -0.8349 -0.1921
49587SOL    HW255812  10.293   3.716  11.762 -0.8112  0.5469  0.7931
49588SOL     OW55813  11.760   4.250   4.877 -0.7437  0.2652  0.4302
49588SOL    HW155814  11.824   4.209   4.818 -0.5240  0.9712  0.1639
49588SOL    HW255815  11.675   4.224   4.842 -0.6087  0.2502  0.1073
49589SOL     OW55816  11.994   0.408  10.207  0.2490 -0.1627 -0.1577
49589SOL    HW155817  12.035   0.445  10.128 -1.9577 -0.7668 -1.6645
49589SOL    HW255818  12.008   0.314  10.198  0.0137 -0.2305  0.2044
49590SOL     OW55819   6.855   6.286   3.283 -0.4900 -0.3314 -0.5918
49590SOL    HW155820   6.884   6.377   3.275 -1.1340  0.0618  0.9551
49590SOL    HW255821   6.930   6.239   3.319 -0.6012 -0.1028 -0.0569
49591SOL     OW55822   9.614   6.832  12.405  0.1683 -0.3206 -0.2946
49591SOL    HW155823   9.665   6.804  12.482  1.1179  0.2853 -0.6931
49591SOL    HW255824   9.637   6.924  12.393  0.9879 -0.7105 -2.0302
49592SOL     OW55825   5.834  12.268   7.910 -0.9563 -0.1434  0.7735
49592SOL    HW155826   5.843  12.363   7.918  2.8913 -0.3541  0.8520
49592SOL    HW255827   5.777  12.243   7.983  0.5112  1.8768  2.7549
49593SOL     OW55828  11.664   8.922   5.385 -0.0663  0.3626 -0.1548
49593SOL    HW155829  11.728   8.855   5.362  0.6462  1.2791 -0.9700
49593SOL    HW255830  11.698   9.002   5.345 -0.7834  1.2575  0.9536
49594SOL     OW55831   7.308   3.963   5.389 -0.3578 -0.0639  0.1781
49594SOL    HW155832   7.251   3.894   5.422 -0.8151  0.7570  1.1293
49594SOL    HW255833   7.278   3.979   5.299 -0.7086 -0.5909  0.2007
49595SOL     OW55834   9.755   6.904  10.069  0.1315 -0.1940  0.0277
49595SOL    HW155835   9.819   6.939  10.007 -0.5869  0.3918 -0.3973
49595SOL    HW255836   9.694   6.976  10.085 -0.4747 -0.7615  0.3657
49596SOL     OW55837   3.941   0.150  10.683 -0.5402  0.1141 -0.1798
49596SOL    HW155838   3.911   0.234  10.648 -1.6767 -0.3150 -0.2851
49596SOL    HW255839   4.001   0.116  10.617 -0.5296  0.5704 -0.4097
49597SOL     OW55840  12.512   9.386  11.313  0.2591 -0.2448 -0.0243
49597SOL    HW155841  12.497   9.472  11.351 -1.0253 -0.9270  1.0718
49597SOL    HW255842  12.466   9.389  11.229 -0.2004 -0.0218  0.2327
49598SOL     OW55843   9.238  11.522   2.977 -0.0394  0.0817  0.0603
49598SOL    HW155844   9.236  11.471   2.897  0.7523 -0.4033  0.3386
49598SOL    HW255845   9.146  11.534   3.001 -0.2266 -1.4903  0.1761
49599SOL     OW55846   9.589   8.070   1.091 -0.3453  0.0861 -0.4242
49599SOL    HW155847   9.634   8.128   1.030 -0.5130 -0.3828 -0.9930
49599SOL    HW255848   9.539   8.010   1.036  1.2916 -1.8246  0.0687
49600SOL     OW55849   3.443   4.124   0.427 -0.0012 -0.1773 -0.1159
49600SOL    HW155850   3.521   4.157   0.382 -2.0079  0.8072 -3.1925
49600SOL    HW255851   3.419   4.045   0.378 -1.0848 -0.3172  0.6087
49601SOL     OW55852  11.308   7.262   4.000 -0.2359 -0.1166 -0.1945
49601SOL    HW155853  11.220   7.297   3.988 -0.2365 -0.1646 -0.3337
49601SOL    HW255854  11.361   7.338   4.026 -0.3310 -0.1011 -0.0436
49602SOL     OW55855   7.329   0.959  11.027  0.3241  0.5488 -0.8424
49602SOL    HW155856   7.420   0.955  10.997  0.0340  3.0077 -2.3298
49602SOL    HW255857   7.331   0.925  11.116  2.4475 -0.6357 -1.2828
49603SOL     OW55858   9.073   0.141   0.083 -0.1070 -0.2806 -0.1604
49603SOL    HW155859   9.068   0.047   0.066  2.6873 -0.3723 -1.1018
49603SOL    HW255860   9.096   0.148   0.176 -1.9791 -0.3922  0.3510
49604SOL     OW55861   2.747   6.922   7.719  0.6083  0.5607 -0.5509
49604SOL    HW155862   2.766   7.015   7.722  0.4614  0.5943 -0.6639
49604SOL    HW255863   2.676   6.910   7.783 -0.4457  0.7843 -1.6332
49605SOL     OW55864   2.548   9.632   1.967  0.5144  0.0855 -0.0485
49605SOL    HW155865   2.562   9.581   2.047  0.4129 -0.0628 -0.1250
49605SOL    HW255866   2.481   9.696   1.991  0.6095  0.1533  0.0347
49606SOL     OW55867   5.376   2.897   2.243  0.5262  0.0339 -0.5150
49606SOL    HW155868   5.334   2.819   2.278  1.8226 -0.7297 -0.5710
49606SOL    HW255869   5.314   2.932   2.179  0.2745 -1.4401 -1.1172
49607SOL     OW55870   8.549   4.003   2.009 -0.2197  0.0357 -0.1355
49607SOL    HW155871   8.492   4.027   1.936  1.8587  1.1145 -1.5382
49607SOL    HW255872   8.589   3.921   1.982 -0.3285 -0.1798  0.3508
49608SOL     OW55873   8.311   1.942   6.009 -0.5240 -0.6076  0.1992
49608SOL    HW155874   8.342   1.910   5.925 -2.1754  0.3956 -0.8574
49608SOL    HW255875   8.298   2.036   5.996  0.8673 -0.0769  2.1431
49609SOL     OW55876   4.418   8.594  10.460 -0.5121 -0.2739 -0.4945
49609SOL    HW155877   4.356   8.629  10.396  0.0875  2.1079  0.1519
49609SOL    HW255878   4.368   8.589  10.541 -0.7181 -1.4479 -0.6699
49610SOL     OW55879   4.005   9.741   5.955  0.1632  0.3662 -0.5782
49610SOL    HW155880   3.963   9.777   5.876 -0.0398  1.1240 -0.1338
49610SOL    HW255881   3.998   9.811   6.020  1.5680  0.2679 -0.2944
49611SOL     OW55882   5.027  11.032   5.568 -0.0249  0.4481  0.5905
49611SOL    HW155883   5.079  11.074   5.499  0.8356 -2.1892 -0.4922
49611SOL    HW255884   5.074  11.052   5.649  1.7619 -0.4382 -0.1680
49612SOL     OW55885   2.390  12.409   1.029 -0.1926 -0.3563  0.1014
49612SOL    HW155886   2.461  12.368   0.980  0.4694  0.9071 -0.0389
49612SOL    HW255887   2.357  12.478   0.972 -1.0716 -0.4643  0.4539
49613SOL     OW55888   3.081   7.768   3.577 -0.3037 -0.0604  0.0293
49613SOL    HW155889   3.017   7.759   3.507  0.3004 -1.0210 -0.4212
49613SOL    HW255890   3.123   7.682   3.582  0.0329  0.1553  1.2085
49614SOL     OW55891   8.249   1.131   7.288  0.2289 -0.2118  0.1957
49614SOL    HW155892   8.254   1.109   7.195  1.6562 -0.4724  0.3122
49614SOL    HW255893   8.327   1.091   7.327 -0.1143  0.2626  1.4315
49615SOL     OW55894   9.773  10.407   5.796  0.3161  0.6901  0.2065
49615SOL    HW155895   9.720  10.355   5.856 -1.6509  1.4337 -0.7953
49615SOL    HW255896   9.863  10.385   5.819 -0.4000 -1.2567  1.4490
49616SOL     OW55897  11.781   6.670   9.714 -0.0834 -0.0963  0.3279
49616SOL    HW155898  11.824   6.673   9.629 -1.2511 -0.3080 -0.2972
49616SOL    HW255899  11.844   6.707   9.775  1.5884 -1.7909 -0.2826
49617SOL     OW55900   5.947   8.471   1.053  0.5786 -0.6484 -0.8032
49617SOL    HW155901   5.862   8.512   1.069  0.8920 -0.8681  2.0937
49617SOL    HW255902   6.006   8.544   1.032 -0.0078 -0.2986 -1.2405
49618SOL     OW55903   0.828   9.272  10.779 -0.1196 -0.4165  0.2001
49618SOL    HW155904   0.748   9.269  10.832 -0.2114 -1.0890  0.0400
49618SOL    HW255905   0.896   9.299  10.840 -0.5591  0.7336  0.2120
49619SOL     OW55906  12.580   5.459   8.245 -0.0388  0.0062  0.0523
49619SOL    HW155907  12.596   5.458   8.151 -2.2307 -0.4872 -0.3544
49619SOL    HW255908  12.508   5.398   8.258  1.2858 -1.2086  2.2881
49620SOL     OW55909   8.628   9.914   3.823 -0.5521  0.2177  0.2396
49620SOL    HW155910   8.693   9.940   3.888 -1.5674 -1.6290  2.1319
49620SOL    HW255911   8.558   9.979   3.833  0.4254  1.5346 -1.0005
49621SOL     OW55912  12.584   5.080   6.051  0.3324  0.3994 -0.2606
49621SOL    HW155913  12.554   5.027   5.977  1.1439  0.4532 -0.6350
49621SOL    HW255914  12.661   5.033   6.084 -1.6373 -1.2944  2.4320
49622SOL     OW55915   5.157   9.526   7.510 -0.2980  0.0143 -0.0038
49622SOL    HW155916   5.101   9.599   7.487 -1.8751 -1.4441 -1.0091
49622SOL    HW255917   5.187   9.545   7.599 -1.7539  1.2256  0.2608
49623SOL     OW55918   1.515   5.380   5.378 -0.2088  0.4895  0.4546
49623SOL    HW155919   1.592   5.433   5.397 -0.1268  0.6243 -0.2416
49623SOL    HW255920   1.456   5.395   5.453  0.3780  0.4881  0.9226
49624SOL     OW55921  10.449   8.134  11.319  0.1864  0.4689 -0.1897
49624SOL    HW155922  10.436   8.204  11.383  0.3681  1.1352 -0.8622
49624SOL    HW255923  10.486   8.061  11.369  0.1266  0.9049  0.4943
49625SOL     OW55924  10.626  11.279  12.276 -0.2901  0.1752  0.2704
49625SOL    HW155925  10.559  11.225  12.234 -1.0449  2.0870 -1.1292
49625SOL    HW255926  10.583  11.313  12.354 -0.6520  0.6578 -0.1323
49626SOL     OW55927   8.818   1.339   7.194  0.5282 -0.5389  0.6430
49626SOL    HW155928   8.876   1.342   7.118  0.1309 -0.4597  0.3343
49626SOL    HW255929   8.833   1.423   7.239 -0.4766  0.1830 -0.3058
49627SOL     OW55930   0.151   6.213   4.907 -0.4831  0.3679  0.0967
49627SOL    HW155931   0.079   6.275   4.923  0.3039  1.5782 -0.7941
49627SOL    HW255932   0.212   6.262   4.851  0.2823 -1.1613 -0.4665
49628SOL     OW55933  12.044   4.653   9.051  0.1401  0.1247  0.2592
49628SOL    HW155934  11.964   4.601   9.053 -0.2099  0.6590  0.5763
49628SOL    HW255935  12.021   4.730   8.999 -0.0981  1.1225  1.7840
49629SOL     OW55936   5.522  10.350   0.208 -0.1204 -0.3327 -0.0001
49629SOL    HW155937   5.535  10.280   0.272  2.0424  0.3452  0.3949
49629SOL    HW255938   5.553  10.313   0.126  0.9653  0.0916  0.1967
49630SOL     OW55939   6.019   4.841   4.565  0.5877 -0.1589 -0.6585
49630SOL    HW155940   5.930   4.818   4.591  1.0382  0.4704  1.7420
49630SOL    HW255941   6.069   4.760   4.575  0.5532 -0.1729 -0.6010
49631SOL     OW55942   1.564  10.560   7.175  0.0128 -0.0036  0.3700
49631SOL    HW155943   1.556  10.467   7.195 -1.5858 -0.0436 -0.3622
49631SOL    HW255944   1.522  10.605   7.248  0.5784  0.1518  0.6084
49632SOL     OW55945   7.892  11.396  10.430  0.1843 -0.1885  0.0571
49632SOL    HW155946   7.976  11.362  10.400  0.4675 -1.2584  1.8724
49632SOL    HW255947   7.906  11.490  10.440  2.0353 -0.6264  2.6992
49633SOL     OW55948   1.089  10.393  12.186  0.2272  0.2301 -0.5688
49633SOL    HW155949   1.052  10.444  12.114  1.6857 -0.3529 -1.7774
49633SOL    HW255950   1.177  10.429  12.200 -0.5388  1.3736  2.0180
49634SOL     OW55951   9.675   7.032  11.300  0.0255  0.5514  0.5672
49634SOL    HW155952   9.656   7.039  11.207  1.4673 -3.0747 -0.1393
49634SOL    HW255953   9.611   6.969  11.333  0.2756  0.9013  1.7636
49635SOL     OW55954   2.949   7.630  12.350  0.0741  0.6546  0.0769
49635SOL    HW155955   3.044   7.637  12.340 -0.1492  1.7026 -1.7435
49635SOL    HW255956   2.932   7.535  12.351  1.1087  0.4555  0.1677
49636SOL     OW55957   6.782  10.933   1.292  0.1254 -0.3112 -0.1431
49636SOL    HW155958   6.774  11.028   1.279  0.4753 -0.1356  0.8289
49636SOL    HW255959   6.875  10.918   1.307  0.5028 -1.1849 -2.8107
49637SOL     OW55960  11.876   8.808   4.016  0.0944 -0.2118 -0.1634
49637SOL    HW155961  11.919   8.742   4.070  0.8140  0.3703 -0.0133
49637SOL    HW255962  11.942   8.834   3.953 -0.5219 -0.3870 -0.8991
49638SOL     OW55963   6.217   0.424   1.505 -0.4266  0.0781  0.4888
49638SOL    HW155964   6.175   0.402   1.422 -1.9269  1.1010  0.9412
49638SOL    HW255965   6.278   0.495   1.484 -1.1236  0.6343  0.3287
49639SOL     OW55966   2.835   2.437   7.499 -0.4252  0.7808  0.2643
49639SOL    HW155967   2.753   2.405   7.463 -1.0919  0.3921  2.0334
49639SOL    HW255968   2.860   2.372   7.564  2.0871  0.1068 -1.2384
49640SOL     OW55969   0.991   4.781  10.310 -0.5984  0.0184 -0.2016
49640SOL    HW155970   0.989   4.711  10.244 -2.0368  0.3695 -0.5815
49640SOL    HW255971   0.914   4.834  10.290 -0.6681  0.5468  1.3239
49641SOL     OW55972   7.865   8.468  10.308 -0.0967 -0.2224 -0.0942
49641SOL    HW155973   7.777   8.436  10.326 -0.5470  0.5498 -0.8370
49641SOL    HW255974   7.852   8.554  10.267  0.9595 -0.5213 -1.1224
49642SOL     OW55975   0.130   0.379   1.114  0.3714  0.4040  0.5178
49642SOL    HW155976   0.086   0.445   1.167 -0.3046  0.9399 -0.6742
49642SOL    HW255977   0.143   0.421   1.029 -0.0200 -0.9654 -0.2531
49643SOL     OW55978   4.119   2.269   7.235 -0.5059 -0.3434 -0.4581
49643SOL    HW155979   4.191   2.295   7.293 -0.1040  0.0873 -1.1385
49643SOL    HW255980   4.070   2.350   7.221 -1.1513 -0.6427  0.0313
49644SOL     OW55981   0.941   6.973  12.479 -0.5099  0.0123  0.0559
49644SOL    HW155982   0.972   6.907  12.416 -0.4506 -1.4546  1.5338
49644SOL    HW255983   0.848   6.955  12.488 -0.4173 -0.1401  0.7624
49645SOL     OW55984   2.216   9.849   9.164 -0.6873 -0.1470 -0.2158
49645SOL    HW155985   2.229   9.756   9.179  0.0233 -0.0123  0.0358
49645SOL    HW255986   2.304   9.884   9.148 -0.9825  0.4200 -0.6494
49646SOL     OW55987   0.411   5.998   5.954 -0.4424  0.2684 -0.0027
49646SOL    HW155988   0.389   5.913   5.990 -0.7571  0.0731 -0.6509
49646SOL    HW255989   0.332   6.051   5.965  0.0125  0.7457  1.1559
49647SOL     OW55990   2.982   1.037   5.836  0.1095  0.0206 -0.4775
49647SOL    HW155991   2.897   1.060   5.874  0.4523 -0.4417  0.6149
49647SOL    HW255992   2.975   1.062   5.744 -1.2502 -0.1070 -0.4318
49648SOL     OW55993   9.003  12.475   0.390 -0.3750 -0.6447 -0.0514
49648SOL    HW155994   8.982  12.569   0.391  1.0995 -0.2343 -1.8734
49648SOL    HW255995   9.049  12.460   0.472 -0.4367  0.2761  0.1604
49649SOL     OW55996   0.434   4.830  10.450 -0.2985  0.9338 -0.2441
49649SOL    HW155997   0.348   4.790  10.442 -0.1511  0.7389 -0.8519
49649SOL    HW255998   0.479   4.777  10.516 -0.9490  1.5766  0.7370
49650SOL     OW55999  10.136   0.387  10.321 -0.0919 -0.0753  0.0844
49650SOL    HW156000  10.220   0.342  10.326 -0.0372  0.1050  0.9320
49650SOL    HW256001  10.153   0.465  10.268 -0.0763 -0.7772 -0.9809
49651SOL     OW56002   8.496   0.563   6.033 -0.3520  0.3417 -0.0038
49651SOL    HW156003   8.587   0.560   6.060 -0.2385  0.1030 -0.4026
49651SOL    HW256004   8.457   0.483   6.069 -0.4826  0.5963  0.4300
49652SOL     OW56005   0.481   7.378   3.153  0.0132  0.3115  1.0654
49652SOL    HW156006   0.478   7.285   3.174  1.4609  0.3765  1.7251
49652SOL    HW256007   0.531   7.417   3.225  2.4917  1.0370 -0.8664
49653SOL     OW56008   6.518   9.196   3.163  0.6563 -0.3867  0.4401
49653SOL    HW156009   6.441   9.170   3.213  0.9687 -0.4073  0.9203
49653SOL    HW256010   6.518   9.137   3.087  0.5925 -0.8687  0.8066
49654SOL     OW56011   2.122   6.513   0.619  0.0013 -0.1983 -0.3215
49654SOL    HW156012   2.065   6.451   0.665 -1.1742  0.9060 -0.2490
49654SOL    HW256013   2.118   6.593   0.671  0.2630  0.4386 -1.2448
49655SOL     OW56014  10.850   3.238   7.872 -0.0339  0.2980  0.2876
49655SOL    HW156015  10.831   3.163   7.816  0.6018  0.7067 -0.4916
49655SOL    HW256016  10.834   3.206   7.961  0.9689 -1.0065  0.0303
49656SOL     OW56017   4.933   5.040   0.462  0.4102 -0.2091 -0.1941
49656SOL    HW156018   4.880   5.099   0.515 -0.9752 -1.3294 -0.2778
49656SOL    HW256019   4.973   4.980   0.524  0.6810 -0.0692 -0.2304
49657SOL     OW56020   8.892   2.831  12.141 -0.2633  0.0277  0.3979
49657SOL    HW156021   8.878   2.743  12.106 -1.9400  1.1810 -2.1366
49657SOL    HW256022   8.835   2.836  12.217  0.2809 -1.2180  0.9215
49658SOL     OW56023   9.024   2.130   2.940 -0.0304 -0.0917 -0.9378
49658SOL    HW156024   8.967   2.190   2.989  0.7705 -0.9416  1.1580
49658SOL    HW256025   9.036   2.173   2.855  0.8240  2.9804  0.5670
49659SOL     OW56026  12.179   8.499   6.459 -0.6396 -0.1767 -0.3672
49659SOL    HW156027  12.248   8.561   6.435 -1.4741  0.5267 -0.9939
49659SOL    HW256028  12.148   8.464   6.375 -1.8129  0.3638 -0.1715
49660SOL     OW56029  10.978   7.404   0.330 -0.0778  0.1367  0.4107
49660SOL    HW156030  11.023   7.347   0.392 -0.2587 -1.8332 -1.1553
49660SOL    HW256031  11.043   7.470   0.306  1.6177 -1.7986 -0.7144
49661SOL     OW56032   1.358   4.636   2.829  0.2985 -0.2321 -0.5947
49661SOL    HW156033   1.416   4.671   2.762  3.1037  0.8420  2.1734
49661SOL    HW256034   1.387   4.546   2.842  1.1610  0.1781  0.5031
49662SOL     OW56035   2.600   6.688  11.783 -0.5532 -0.1939 -0.1445
49662SOL    HW156036   2.532   6.735  11.830 -1.6458  0.5746 -2.3269
49662SOL    HW256037   2.679   6.701  11.836 -1.5946  0.9544  1.2132
49663SOL     OW56038   0.367   9.689   0.463 -0.3886 -0.2175  0.0479
49663SOL    HW156039   0.369   9.593   0.453 -1.8847 -0.1397 -1.3234
49663SOL    HW256040   0.441   9.720   0.412 -0.3223 -0.5908 -0.0872
49664SOL     OW56041   1.537   3.335   7.267 -0.0558  0.1354 -0.8015
49664SOL    HW156042   1.479   3.412   7.264  0.5287  0.5554 -1.8357
49664SOL    HW256043   1.544   3.307   7.176 -1.4637 -2.1079 -0.3077
49665SOL     OW56044   9.122   5.618  10.952 -0.3003  0.5995 -0.2089
49665SOL    HW156045   9.158   5.534  10.921  0.7701  0.7766  0.5049
49665SOL    HW256046   9.145   5.680  10.883  1.5767  0.8783  0.5929
49666SOL     OW56047   6.690  11.269  10.041 -0.1664  0.0153 -0.1870
49666SOL    HW156048   6.732  11.354  10.048  0.8592 -0.5552  0.9727
49666SOL    HW256049   6.750  11.216   9.989 -1.2577  0.2434 -1.7458
49667SOL     OW56050   4.834   7.557   1.144  0.0729 -0.4550 -0.7267
49667SOL    HW156051   4.843   7.528   1.054 -1.3083 -1.7522 -0.4981
49667SOL    HW256052   4.739   7.558   1.159  0.2636  0.1285  0.5952
49668SOL     OW56053   6.903   9.136   6.014  0.6505  0.1005  0.2884
49668SOL    HW156054   6.891   9.158   5.921  1.1591  0.8132  0.3785
49668SOL    HW256055   6.952   9.054   6.014  0.8294  0.2076 -0.0757
49669SOL     OW56056  10.174  10.286   8.737  0.5842 -0.5346  0.4365
49669SOL    HW156057  10.210  10.336   8.810  0.9042  1.4604 -1.0070
49669SOL    HW256058  10.144  10.352   8.675  0.5808 -2.1501 -1.3876
49670SOL     OW56059   0.376   3.962   3.088 -0.2767  0.1178  0.4025
49670SOL    HW156060   0.310   3.913   3.137 -0.0264 -0.7879 -0.1603
49670SOL    HW256061   0.324   4.018   3.030 -0.5758 -1.2293 -0.6747
49671SOL     OW56062   5.284   6.787   4.151 -0.1931 -0.2663  0.4594
49671SOL    HW156063   5.228   6.742   4.087 -0.6976  0.3316  0.4768
49671SOL    HW256064   5.372   6.757   4.130  0.1124  2.3128 -2.5948
49672SOL     OW56065   3.908   7.986   3.016  0.3184 -0.1878  0.2483
49672SOL    HW156066   3.964   7.976   2.939  2.6717 -0.9450  1.9609
49672SOL    HW256067   3.876   7.897   3.034 -1.2626  0.1788 -0.4962
49673SOL     OW56068   9.504   5.019   9.931 -0.0814 -0.0107 -0.2417
49673SOL    HW156069   9.578   5.053   9.982 -0.7411 -0.5147  1.1087
49673SOL    HW256070   9.543   4.955   9.872  0.5402 -0.5828  0.7539
49674SOL     OW56071   0.222   6.152   4.117  0.0936 -1.1886  0.0637
49674SOL    HW156072   0.172   6.070   4.124 -2.2254  0.1361  0.2199
49674SOL    HW256073   0.214   6.191   4.204  0.5434 -0.4644 -0.2223
49675SOL     OW56074   2.244   8.921   3.944 -0.0013 -0.2602  0.0955
49675SOL    HW156075   2.211   8.846   3.993  0.7911 -1.3866 -1.0593
49675SOL    HW256076   2.282   8.884   3.865  1.0469  1.2940 -0.1738
49676SOL     OW56077   2.435   2.965   6.998  1.2121 -0.2942  0.1371
49676SOL    HW156078   2.433   2.962   7.093  0.0941 -0.4084  0.1324
49676SOL    HW256079   2.400   2.880   6.971 -2.6016  1.2066 -0.2976
49677SOL     OW56080   7.969   9.557   4.939 -0.1830  0.4081  0.1098
49677SOL    HW156081   8.011   9.520   5.017 -1.0534  2.5891  1.6971
49677SOL    HW256082   8.024   9.631   4.914 -0.6373  0.5405 -0.5449
49678SOL     OW56083  12.240   2.584   0.076  0.0389  0.0981 -0.2081
49678SOL    HW156084  12.150   2.608   0.055  0.1165  0.7697  0.1760
49678SOL    HW256085  12.275   2.547  -0.005 -0.1185  1.2620 -0.8429
49679SOL     OW56086   5.481   7.438   5.455  0.1211  0.5227 -0.1105
49679SOL    HW156087   5.524   7.506   5.403 -0.0406  1.7866  1.3235
49679SOL    HW256088   5.529   7.438   5.538 -0.4637 -0.4967  0.2407
49680SOL     OW56089   2.129   8.146   2.200 -0.0093 -0.4148 -0.1076
49680SOL    HW156090   2.217   8.183   2.210  1.3601 -2.9669 -1.5034
49680SOL    HW256091   2.113   8.147   2.105 -0.7782 -1.4298 -0.0075
49681SOL     OW56092   8.892   9.201  12.439  0.6267 -0.0345 -0.0934
49681SOL    HW156093   8.935   9.155  12.510  0.0107  0.6265  0.7338
49681SOL    HW256094   8.876   9.289  12.473 -0.5733  0.0005 -0.6746
49682SOL     OW56095   4.863   1.232  11.528  0.2238 -0.0829  0.8136
49682SOL    HW156096   4.816   1.308  11.494 -1.9976 -1.0997  1.4694
49682SOL    HW256097   4.956   1.253  11.513 -0.4227  1.4934 -1.6129
49683SOL     OW56098   1.294   5.093   1.192  0.2443  0.0371 -0.6053
49683SOL    HW156099   1.301   5.040   1.272 -1.1274  0.7237 -0.0006
49683SOL    HW256100   1.335   5.176   1.214  0.1535  0.1135 -0.7262
49684SOL     OW56101   2.099  11.381   8.680  0.4889 -0.2256 -0.1093
49684SOL    HW156102   2.089  11.324   8.604  0.0226 -0.2147 -0.0574
49684SOL    HW256103   2.121  11.321   8.752 -0.6165 -0.4248  0.0808
49685SOL     OW56104   5.960   3.105   5.921  0.0892  0.2657  0.1302
49685SOL    HW156105   5.975   3.013   5.902 -1.8291  0.1474 -1.1132
49685SOL    HW256106   6.046   3.140   5.944  0.8739 -1.7758  0.4681
49686SOL     OW56107   7.292  12.127   0.546 -0.1017  0.3508  0.1930
49686SOL    HW156108   7.203  12.145   0.515 -0.1667  0.2644  0.3279
49686SOL    HW256109   7.301  12.182   0.624 -0.3859 -0.3718  0.7473
49687SOL     OW56110  12.416   7.729   6.211 -0.0383  0.9642  0.2097
49687SOL    HW156111  12.363   7.664   6.165  0.2618  0.0202  1.1370
49687SOL    HW256112  12.494   7.739   6.156  0.9756 -1.2074  1.1243
49688SOL     OW56113   2.718  11.765  11.843  0.3498 -0.2746 -0.1842
49688SOL    HW156114   2.697  11.799  11.930  2.0923  1.6276 -0.4354
49688SOL    HW256115   2.802  11.721  11.854  1.0949  0.8745 -1.0651
49689SOL     OW56116   1.541   6.685   0.130  0.1049 -0.3489  0.6048
49689SOL    HW156117   1.479   6.613   0.143 -0.8404  0.6186  1.6382
49689SOL    HW256118   1.613   6.665   0.189  0.3948 -1.0353  0.0323
49690SOL     OW56119   0.521   9.436   4.713  0.4397 -0.8344  0.4019
49690SOL    HW156120   0.575   9.387   4.651 -0.8152 -1.0786 -0.5300
49690SOL    HW256121   0.528   9.388   4.795  0.3583 -1.7720 -0.1293
49691SOL     OW56122   5.703   7.949   6.381  0.5269  0.2660 -0.2588
49691SOL    HW156123   5.726   7.953   6.288 -0.8508  3.4936 -0.6048
49691SOL    HW256124   5.764   8.010   6.423 -0.1267  0.3380  0.6119
49692SOL     OW56125   2.953  11.502   1.661  0.3060 -0.1086 -0.4731
49692SOL    HW156126   2.872  11.531   1.619  0.3665 -0.0594 -0.5554
49692SOL    HW256127   2.937  11.517   1.755 -0.3185 -1.4116 -0.3525
49693SOL     OW56128   4.123   6.231   3.800  0.1726 -0.0191  0.9581
49693SOL    HW156129   4.206   6.268   3.773 -0.7433  1.5965  0.2159
49693SOL    HW256130   4.145   6.172   3.873  2.1347 -0.9623 -0.3261
49694SOL     OW56131  12.233   1.059   1.482 -0.8066 -0.2610 -0.1782
49694SOL    HW156132  12.226   1.069   1.577  3.5939  1.9932  0.1290
49694SOL    HW256133  12.233   0.964   1.469  0.3226 -0.7024  2.3361
49695SOL     OW56134  11.399   1.714   0.603 -0.1013  0.0180 -0.5826
49695SOL    HW156135  11.319   1.734   0.651  0.3170 -2.0123  1.0994
49695SOL    HW256136  11.464   1.776   0.637 -0.6377  0.9096 -1.1265
49696SOL     OW56137   9.583   6.094   4.473  0.5537  0.0640 -0.5588
49696SOL    HW156138   9.627   6.012   4.493  1.7264  0.9938  0.8830
49696SOL    HW256139   9.566   6.090   4.379  1.1197 -1.5573 -0.6239
49697SOL     OW56140   8.591   6.721   7.492  0.3561 -0.3507 -0.5617
49697SOL    HW156141   8.582   6.705   7.398 -1.0107 -2.4251 -0.1404
49697SOL    HW256142   8.593   6.816   7.500  2.3230 -0.1081 -2.8177
49698SOL     OW56143   0.829   4.430   4.839 -0.0436  0.3045 -0.2404
49698SOL    HW156144   0.886   4.363   4.803  0.8274  1.6225 -1.3727
49698SOL    HW256145   0.751   4.382   4.867  0.0950 -1.0425 -2.0135
49699SOL     OW56146   5.292   2.069   5.110  0.6920 -0.2782 -0.0392
49699SOL    HW156147   5.206   2.028   5.121 -0.0906  1.0814 -0.9136
49699SOL    HW256148   5.337   2.050   5.193 -1.8121  2.1455  2.0855
49700SOL     OW56149  10.724   4.044   2.320 -0.3647 -0.4558  0.5600
49700SOL    HW156150  10.810   4.085   2.328 -0.5220 -0.2414  1.1780
49700SOL    HW256151  10.740   3.951   2.338 -0.1016 -0.5824 -0.3000
49701SOL     OW56152   8.223   2.995   6.092  0.1322 -0.2208  0.0344
49701SOL    HW156153   8.210   3.085   6.062 -0.4056 -1.0642 -2.4585
49701SOL    HW256154   8.137   2.967   6.123 -0.0826 -0.3516 -0.6554
49702SOL     OW56155   3.083   2.027   7.012 -0.0685 -0.5878  0.1538
49702SOL    HW156156   3.153   1.969   7.042 -0.4125 -0.9770  0.2220
49702SOL    HW256157   3.126   2.110   6.993  0.4666 -0.9264 -0.1320
49703SOL     OW56158   9.146   6.924  10.559 -0.8696  0.2191 -0.2914
49703SOL    HW156159   9.051   6.921  10.547 -0.7785 -1.6281 -0.8102
49703SOL    HW256160   9.178   6.968  10.480 -1.3097  1.1616  0.0460
49704SOL     OW56161   1.248   8.540   1.179 -0.1321 -0.2628  0.0325
49704SOL    HW156162   1.161   8.560   1.214 -0.7730 -0.3464 -1.4063
49704SOL    HW256163   1.309   8.582   1.239 -1.2241  0.9866  0.3087
49705SOL     OW56164   7.263  10.858   7.640  0.7502 -0.5195 -0.5745
49705SOL    HW156165   7.334  10.912   7.606  0.8410 -0.4247 -0.2326
49705SOL    HW256166   7.307  10.786   7.685  0.6301 -0.9186 -1.0864
49706SOL     OW56167   6.832   5.153   3.409 -0.1220  0.2443  0.7030
49706SOL    HW156168   6.849   5.059   3.415 -0.5845 -0.0415 -1.5763
49706SOL    HW256169   6.767   5.170   3.477 -0.3433 -1.1734  0.8724
49707SOL     OW56170  10.158  10.776   0.005  0.0060 -0.0651  0.2159
49707SOL    HW156171  10.212  10.795   0.081 -1.0360 -2.2711  1.6117
49707SOL    HW256172  10.196  10.697  -0.033 -0.8822 -0.3529 -0.1064
49708SOL     OW56173  11.082   4.333   9.856 -0.1373 -0.4380 -0.6961
49708SOL    HW156174  10.988   4.323   9.869 -0.1404  1.4666  1.4778
49708SOL    HW256175  11.102   4.420   9.891  2.4950 -0.9519 -0.6736
49709SOL     OW56176   3.236   4.612   1.459  0.1005 -0.0907  0.0427
49709SOL    HW156177   3.195   4.688   1.502  2.2593  0.6931  0.8851
49709SOL    HW256178   3.255   4.552   1.531 -1.0147 -1.2009 -0.5497
49710SOL     OW56179   3.984   6.621   6.740  0.3978 -0.2501 -0.5158
49710SOL    HW156180   4.020   6.669   6.814 -0.0905  0.6766 -0.8698
49710SOL    HW256181   3.966   6.688   6.674 -2.9286 -0.4721 -0.0082
49711SOL     OW56182   9.785   0.686   1.705  0.0921  0.3849  0.0505
49711SOL    HW156183   9.691   0.667   1.709 -0.0818  0.9277 -1.0763
49711SOL    HW256184   9.819   0.653   1.788 -1.0114 -0.2561  0.2783
49712SOL     OW56185   4.709   0.946   4.873 -0.1877  0.0850 -0.7682
49712SOL    HW156186   4.785   0.905   4.914 -0.1844 -0.3759 -1.2110
49712SOL    HW256187   4.678   1.010   4.936  0.9961  0.7866 -0.8807
49713SOL     OW56188   6.493  10.806   8.439  0.4347  0.1083  0.4207
49713SOL    HW156189   6.455  10.867   8.502  0.0376  0.5463 -0.2418
49713SOL    HW256190   6.535  10.861   8.374 -0.8030 -0.2685 -0.7444
49714SOL     OW56191  10.078   4.599   3.350  0.1161  0.7529  0.4241
49714SOL    HW156192  10.086   4.611   3.444 -0.1266  0.2646  0.5109
49714SOL    HW256193  10.146   4.535   3.328  0.8862  1.6589  0.0909
49715SOL     OW56194   2.790   2.662   0.828  0.2310 -0.4576 -0.0089
49715SOL    HW156195   2.716   2.701   0.875  0.1616 -1.1699  0.4973
49715SOL    HW256196   2.751   2.590   0.779 -0.4948  2.6514 -4.5690
49716SOL     OW56197   2.011   8.910   6.209  0.1267 -0.2592  0.3532
49716SOL    HW156198   1.991   8.817   6.207  0.3368 -0.3023 -1.1358
49716SOL    HW256199   1.927   8.953   6.227 -0.1630 -0.6930  0.0452
49717SOL     OW56200   6.794   0.929  10.426 -0.4046 -0.1486  0.1805
49717SOL    HW156201   6.803   0.967  10.514  1.6193 -0.6429  0.2413
49717SOL    HW256202   6.865   0.865  10.421 -1.7250 -1.5906 -1.1105
49718SOL     OW56203   8.340   6.550   8.788 -0.0331 -0.6192  0.0349
49718SOL    HW156204   8.302   6.634   8.762 -1.1572 -1.1124 -0.0113
49718SOL    HW256205   8.378   6.515   8.707  0.8776  0.0596  0.1645
49719SOL     OW56206  12.455   7.563   0.753 -0.0197  0.0807  0.2698
49719SOL    HW156207  12.458   7.488   0.694  0.0373  0.3294 -0.0392
49719SOL    HW256208  12.544   7.572   0.786  0.3497  1.0142 -0.9369
49720SOL     OW56209   8.288   2.671  12.512  0.4940  0.1066  0.0008
49720SOL    HW156210   8.291   2.587  12.467  0.8905  0.5330 -0.7909
49720SOL    HW256211   8.281   2.736  12.442  0.5089  0.7500  0.5813
49721SOL     OW56212  10.250  11.066   9.739  0.0938 -0.4092 -0.2739
49721SOL    HW156213  10.263  11.080   9.645  0.0766  0.3497 -0.1731
49721SOL    HW256214  10.185  11.132   9.764  1.0686  0.2760  0.5236
49722SOL     OW56215  10.853   3.014  12.393 -0.0040 -0.6891  0.4749
49722SOL    HW156216  10.779   3.028  12.334 -0.4152 -1.4617  0.7827
49722SOL    HW256217  10.904   2.945  12.351  1.2675  0.7320 -0.3817
49723SOL     OW56218   6.136   2.807   7.243 -0.1218 -0.0249 -0.4824
49723SOL    HW156219   6.070   2.739   7.228 -1.8323  1.6255 -0.9247
49723SOL    HW256220   6.123   2.870   7.172  1.0373  1.0241  0.1798
49724SOL     OW56221  10.400   6.556   2.136  0.2395  0.0941  0.1382
49724SOL    HW156222  10.411   6.601   2.053 -0.3575 -2.6165 -1.5609
49724SOL    HW256223  10.324   6.498   2.123  0.1744 -0.5071  2.5397
49725SOL     OW56224  11.762   4.299   8.255 -0.0617 -0.0734 -0.0670
49725SOL    HW156225  11.851   4.291   8.289 -0.2015  0.6135  0.4925
49725SOL    HW256226  11.744   4.215   8.214  0.3852 -0.6819  0.9404
49726SOL     OW56227  10.278   1.697   7.905  0.0157 -0.3831 -0.2889
49726SOL    HW156228  10.368   1.685   7.937  0.6284 -2.8152 -2.5597
49726SOL    HW256229  10.281   1.777   7.853  0.4347  0.4087  0.9115
49727SOL     OW56230   1.772   0.011   0.799 -0.2573 -0.2690 -0.2207
49727SOL    HW156231   1.777  -0.059   0.734  1.7196  0.2909 -0.7398
49727SOL    HW256232   1.820   0.084   0.760 -2.0467  1.3346  0.4025
49728SOL     OW56233   2.613   6.229   1.119  0.4333 -0.4391 -0.0118
49728SOL    HW156234   2.536   6.283   1.134  1.7769  1.2294  1.2346
49728SOL    HW256235   2.669   6.281   1.061  1.7464 -0.4285  1.2056
49729SOL     OW56236   3.070   0.438   2.646 -0.3214 -0.5243  0.2775
49729SOL    HW156237   3.123   0.512   2.675 -0.2693 -0.8573  1.0504
49729SOL    HW256238   3.111   0.411   2.564 -0.1192  0.0693  0.1726
49730SOL     OW56239   0.261   5.651   0.142 -0.4569 -0.2038  0.3300
49730SOL    HW156240   0.264   5.730   0.197  1.5096 -1.3201  1.9702
49730SOL    HW256241   0.228   5.583   0.201 -1.5760 -0.7654 -0.9006
49731SOL     OW56242  10.615   7.717   3.081  0.7747 -0.3446  0.1257
49731SOL    HW156243  10.533   7.762   3.101  0.7783 -0.6402  0.8239
49731SOL    HW256244  10.617   7.713   2.985  0.3684  0.3749  0.0773
49732SOL     OW56245   1.722   5.320   1.944  0.3898 -0.0233  0.7935
49732SOL    HW156246   1.651   5.361   1.894  1.2735  0.2880 -0.2382
49732SOL    HW256247   1.716   5.227   1.922  1.0717  0.1713 -0.3254
49733SOL     OW56248   7.300  11.144   7.918 -0.0945 -0.5423  0.2139
49733SOL    HW156249   7.278  11.106   7.833  2.3620 -0.0904 -0.6805
49733SOL    HW256250   7.273  11.077   7.981 -0.5775 -1.5310 -0.9967
49734SOL     OW56251   5.303   3.293   4.292  0.1724  0.0479 -0.5634
49734SOL    HW156252   5.314   3.361   4.358 -0.2600 -1.5216  1.2087
49734SOL    HW256253   5.392   3.260   4.276  0.1792 -0.1786 -0.0716
49735SOL     OW56254   4.239   6.332   9.411  0.2881 -0.0800  0.4388
49735SOL    HW156255   4.210   6.310   9.499  0.3807 -0.9585  0.2578
49735SOL    HW256256   4.320   6.381   9.424  0.6648 -0.7863  0.8272
49736SOL     OW56257   7.388  12.149  11.874 -0.3548  0.3202 -0.6948
49736SOL    HW156258   7.417  12.235  11.843 -1.9242  0.6384 -1.3618
49736SOL    HW256259   7.319  12.123  11.813 -0.6144 -0.9476  0.1056
49737SOL     OW56260   5.620   2.426   1.518  0.3490  0.2351 -0.2547
49737SOL    HW156261   5.617   2.347   1.464 -1.0970  0.3558 -0.3891
49737SOL    HW256262   5.636   2.395   1.607 -1.4057 -0.3641 -0.0993
49738SOL     OW56263  11.168   9.645  11.989 -0.1709  0.0281  0.0827
49738SOL    HW156264  11.211   9.730  11.985  1.2023 -0.6860 -1.9833
49738SOL    HW256265  11.236   9.585  12.020 -0.5326 -0.6300 -0.3651
49739SOL     OW56266   9.374   9.936   0.515  0.4663  0.1017  0.1217
49739SOL    HW156267   9.389   9.847   0.484 -0.8652  0.1597 -0.7481
49739SOL    HW256268   9.454   9.983   0.491  1.2481 -0.8684  0.7281
49740SOL     OW56269   6.172   3.479   8.423 -0.5872  0.7490  0.2032
49740SOL    HW156270   6.086   3.438   8.411  0.3137 -1.0149 -0.5938
49740SOL    HW256271   6.229   3.432   8.363  0.6376  2.9838 -0.5244
49741SOL     OW56272  12.291  12.341   3.790 -0.0964 -0.6004  0.2027
49741SOL    HW156273  12.337  12.350   3.706  1.6613  0.2210  1.1945
49741SOL    HW256274  12.273  12.431   3.817  0.1176 -0.8172  1.0933
49742SOL     OW56275   4.826  10.429   5.802  0.1018 -0.2348 -0.4637
49742SOL    HW156276   4.847  10.483   5.878 -0.1927  0.2270 -0.7064
49742SOL    HW256277   4.884  10.354   5.810  0.5259  0.1206 -0.1274
49743SOL     OW56278   0.619   0.797  10.564  0.3023  0.2018 -0.2412
49743SOL    HW156279   0.546   0.800  10.503  0.6720 -0.9788 -0.7630
49743SOL    HW256280   0.609   0.876  10.617 -2.2284 -0.7012  0.7357
49744SOL     OW56281  11.476   5.055   8.196 -0.0834 -0.5932 -0.3110
49744SOL    HW156282  11.470   5.063   8.100 -1.3379 -1.2412 -0.2996
49744SOL    HW256283  11.545   4.990   8.209  0.2339 -0.3591 -0.7609
49745SOL     OW56284   3.143  10.273   6.178 -0.5449  0.0537  0.9991
49745SOL    HW156285   3.067  10.226   6.213 -0.3946 -0.6262  0.4258
49745SOL    HW256286   3.148  10.246   6.086  0.3520  0.1335  1.0134
49746SOL     OW56287  12.339  11.467   5.843 -0.2995  0.0913 -0.7021
49746SOL    HW156288  12.425  11.425   5.839  0.3432  1.3858 -1.7615
49746SOL    HW256289  12.359  11.559   5.862 -1.3831  0.5622 -1.7187
49747SOL     OW56290   6.852   9.520   4.185  0.6665 -0.0049 -0.1881
49747SOL    HW156291   6.854   9.476   4.270 -0.2923  0.6366  0.1932
49747SOL    HW256292   6.758   9.526   4.164  0.8689  0.3154 -1.0410
49748SOL     OW56293   2.356  10.723  11.305 -0.4197  0.5396 -0.4076
49748SOL    HW156294   2.356  10.817  11.288 -2.0491  0.0418 -4.1531
49748SOL    HW256295   2.283  10.711  11.367 -0.5078  1.6771 -0.2536
49749SOL     OW56296  10.396   8.573   1.887  0.3000  0.0359  0.2291
49749SOL    HW156297  10.330   8.606   1.826  1.2238 -0.3682 -1.0460
49749SOL    HW256298  10.412   8.483   1.859 -0.8202 -0.9376  2.4808
49750SOL     OW56299   2.608   8.089   2.916 -0.0135 -0.3521 -0.3771
49750SOL    HW156300   2.524   8.066   2.876  0.0286  0.3734 -0.8917
49750SOL    HW256301   2.639   8.164   2.866  1.2343 -0.9794 -0.5739
49751SOL     OW56302   9.062  11.075   0.145  0.0256 -0.1444 -0.3904
49751SOL    HW156303   9.030  11.088   0.235 -0.5492 -0.4330 -0.5500
49751SOL    HW256304   9.051  11.160   0.103  2.1550  0.5813  0.3644
49752SOL     OW56305  12.032   5.378   5.047  0.1070  0.3763 -0.6587
49752SOL    HW156306  11.941   5.380   5.019 -0.4182  0.0085  0.9133
49752SOL    HW256307  12.048   5.466   5.083 -0.2534 -0.1532  0.8542
49753SOL     OW56308  11.397   6.818   3.963 -0.5574  0.0415 -0.0910
49753SOL    HW156309  11.474   6.794   4.014  0.2225 -0.5562 -1.5006
49753SOL    HW256310  11.412   6.909   3.938 -0.5633  0.0802  0.0421
49754SOL     OW56311   7.142   6.287   4.363  0.6873  0.2970 -0.3832
49754SOL    HW156312   7.108   6.376   4.358 -0.9780 -0.2722 -0.1674
49754SOL    HW256313   7.122   6.249   4.277 -2.2160 -0.9873  0.7241
49755SOL     OW56314  12.092  10.884   0.930  0.5346 -0.0799 -0.8401
49755SOL    HW156315  12.105  10.977   0.910  1.1345  0.2580  0.9465
49755SOL    HW256316  12.178  10.844   0.915  0.9347  0.1396  0.7840
49756SOL     OW56317  10.160  11.652   4.710 -0.1466 -0.3205 -0.2129
49756SOL    HW156318  10.093  11.710   4.747  1.2211  0.8672  0.5047
49756SOL    HW256319  10.149  11.569   4.755 -0.1510  0.3437  1.0526
49757SOL     OW56320   5.174   2.435   9.733  0.3346  0.0330  0.1185
49757SOL    HW156321   5.150   2.440   9.640  0.4184  0.1670  0.1039
49757SOL    HW256322   5.268   2.417   9.732  0.4544  0.6370  0.1780
49758SOL     OW56323   6.167   9.765   0.305  0.3986 -0.2982 -0.2169
49758SOL    HW156324   6.166   9.676   0.339 -2.2863  0.1786  1.2464
49758SOL    HW256325   6.215   9.816   0.371 -1.5147 -0.0485  1.0786
49759SOL     OW56326   0.920   6.060  10.650  0.1029  0.5608 -0.5090
49759SOL    HW156327   0.982   6.125  10.684 -0.4507  1.1427 -0.6045
49759SOL    HW256328   0.836   6.104  10.650 -0.1938  0.0148 -1.0798
49760SOL     OW56329   2.000   2.733  12.296  0.5299  0.5808 -0.3774
49760SOL    HW156330   2.090   2.766  12.300  0.0736  1.6704  1.9959
49760SOL    HW256331   1.960   2.781  12.223  1.4648  1.0894 -0.5685
49761SOL     OW56332   6.532   9.929   6.638  0.9804 -0.0251 -0.4057
49761SOL    HW156333   6.480   9.999   6.598 -0.4556  0.5214  2.1880
49761SOL    HW256334   6.621   9.963   6.641  0.9773  0.2514 -2.2399
49762SOL     OW56335   1.139   9.490   0.896  0.4296 -0.1778 -0.1659
49762SOL    HW156336   1.171   9.524   0.980  0.6351  0.9654 -0.6848
49762SOL    HW256337   1.171   9.400   0.893 -0.3767 -0.5585  1.3961
49763SOL     OW56338   0.894   7.178   0.125  0.4002  0.2792  0.0523
49763SOL    HW156339   0.879   7.100   0.071 -1.0697  0.4533  0.1716
49763SOL    HW256340   0.874   7.251   0.067 -1.0641  0.4727  0.7624
49764SOL     OW56341   8.886   2.101   3.258  0.1534 -0.0074  0.0343
49764SOL    HW156342   8.898   2.162   3.331 -4.5655  2.2884 -0.7694
49764SOL    HW256343   8.952   2.129   3.194  0.5315  1.8524  1.1264
49765SOL     OW56344   2.088   3.301   3.934 -0.1720 -0.3755  0.1220
49765SOL    HW156345   2.133   3.241   3.994  0.7443 -0.8207 -0.9922
49765SOL    HW256346   2.066   3.376   3.989  0.9739 -0.6079  0.9415
49766SOL     OW56347   6.999  11.820   5.971 -0.0086  0.3672  0.3679
49766SOL    HW156348   7.009  11.786   5.881 -1.8360  0.6941  0.0102
49766SOL    HW256349   6.978  11.742   6.023 -0.5299  0.3965  0.2102
49767SOL     OW56350   2.799   6.926  11.948  0.3605 -0.1346 -0.5585
49767SOL    HW156351   2.853   6.972  12.013  0.4064  1.7882 -1.8810
49767SOL    HW256352   2.813   6.833  11.966  2.2449  0.3366  0.6296
49768SOL     OW56353  11.835   0.776   9.830  0.3944  0.3919 -0.2476
49768SOL    HW156354  11.912   0.769   9.775  0.6215  1.4581 -0.0928
49768SOL    HW256355  11.869   0.803   9.916 -0.1984  1.7845 -0.4186
49769SOL     OW56356   9.659   2.821  12.483  0.8774 -0.1552  0.2402
49769SOL    HW156357   9.635   2.905  12.522 -0.6224  0.2130 -1.3375
49769SOL    HW256358   9.589   2.762  12.508  0.9761 -0.4519 -0.1703
49770SOL     OW56359   4.022   2.457  11.390 -0.3296 -0.4529  0.2012
49770SOL    HW156360   4.058   2.532  11.343  0.9259 -1.3538 -0.3340
49770SOL    HW256361   4.016   2.486  11.481 -2.3825  1.1655 -0.4002
49771SOL     OW56362   5.533   1.911   9.317  0.2112  0.5048 -0.3965
49771SOL    HW156363   5.583   1.951   9.246  1.8715  0.0814  0.4910
49771SOL    HW256364   5.578   1.828   9.335  1.1207  1.5085  2.4923
49772SOL     OW56365   4.243   9.789   0.735  0.2937  0.2156 -0.0889
49772SOL    HW156366   4.253   9.786   0.830  0.7388  2.5619  0.0002
49772SOL    HW256367   4.325   9.753   0.701  0.3480 -0.1533  0.4285
49773SOL     OW56368   3.417   4.193   1.948  0.9920 -0.2609 -0.3894
49773SOL    HW156369   3.457   4.275   1.979  1.4753 -0.6669  0.0720
49773SOL    HW256370   3.470   4.166   1.874  0.1282  0.4523 -1.2886
49774SOL     OW56371   2.771   1.289   4.309  0.5055  0.2094  0.2833
49774SOL    HW156372   2.806   1.241   4.383 -2.3024 -0.6461  1.1982
49774SOL    HW256373   2.746   1.222   4.246  0.8784  0.7983 -0.5105
49775SOL     OW56374  11.749   2.392   6.301  0.2138  0.2361 -0.4318
49775SOL    HW156375  11.764   2.393   6.396  0.1376  3.7761 -0.3440
49775SOL    HW256376  11.731   2.300   6.282 -1.9294 -0.3792  3.3495
49776SOL     OW56377   3.785   1.707  10.467  0.4314 -0.1750 -0.3929
49776SOL    HW156378   3.864   1.688  10.517 -0.7744 -1.9901  0.9556
49776SOL    HW256379   3.764   1.798  10.488  0.4792 -0.6112  1.6926
49777SOL     OW56380  10.221   6.662   9.928  0.0852  0.0820 -0.3406
49777SOL    HW156381  10.282   6.727   9.893 -1.9035  1.6377 -1.1654
49777SOL    HW256382  10.184   6.704  10.006 -0.6663 -0.3448 -0.4528
49778SOL     OW56383   4.258   8.614   5.127 -0.0212  0.7491  0.1328
49778SOL    HW156384   4.215   8.663   5.057  0.2060 -0.9544 -1.2812
49778SOL    HW256385   4.315   8.678   5.170  1.3937  1.4714 -2.5780
49779SOL     OW56386   7.816   2.265   1.338 -0.4498 -0.9675  0.6724
49779SOL    HW156387   7.832   2.193   1.398  0.4291 -0.8229  0.6184
49779SOL    HW256388   7.896   2.273   1.287  0.3234  1.3528  2.0599
49780SOL     OW56389   9.715   5.921   3.673  0.4522 -0.5094 -0.3478
49780SOL    HW156390   9.681   5.839   3.637  1.3824  0.0853 -2.7177
49780SOL    HW256391   9.794   5.939   3.623  0.4587  1.6826  0.3530
49781SOL     OW56392   8.837  10.617   1.922  0.5487  0.2256  0.5788
49781SOL    HW156393   8.874  10.530   1.937 -0.9657 -0.6556 -0.5745
49781SOL    HW256394   8.902  10.662   1.869  0.2520 -1.1186 -0.9969
49782SOL     OW56395   5.057   9.638   2.647  0.4785 -0.2335 -0.0402
49782SOL    HW156396   5.003   9.678   2.715  1.9059  2.5341 -0.3941
49782SOL    HW256397   5.030   9.682   2.567  1.5621 -0.5622 -0.5982
49783SOL     OW56398   5.817  11.823   0.327 -0.0060 -0.1546  0.5966
49783SOL    HW156399   5.788  11.768   0.255 -1.1899 -0.3512  1.1984
49783SOL    HW256400   5.900  11.783   0.356  1.5353  1.0501 -1.8390
49784SOL     OW56401   2.809  10.196   7.553  0.0270 -0.1922 -0.7483
49784SOL    HW156402   2.890  10.233   7.587  0.5648  0.5780 -2.7368
49784SOL    HW256403   2.827  10.179   7.461 -0.8327 -3.6045 -0.4292
49785SOL     OW56404   0.518   8.652   0.352 -0.2641  0.6400 -0.1137
49785SOL    HW156405   0.442   8.627   0.405 -1.1757  3.5835  0.1810
49785SOL    HW256406   0.547   8.735   0.390  2.4466  0.1505 -0.9404
49786SOL     OW56407   7.932   2.133   4.801 -0.1892 -0.0021  0.1066
49786SOL    HW156408   7.936   2.228   4.803  0.4719  0.0385 -1.6638
49786SOL    HW256409   7.933   2.110   4.708 -0.2034 -1.7404  0.4916
49787SOL     OW56410  11.584   7.459  12.478 -0.1758  0.6295 -0.0213
49787SOL    HW156411  11.631   7.469  12.395 -1.3688 -0.3919 -0.8696
49787SOL    HW256412  11.512   7.399  12.457 -1.0462  1.0806  1.5451
49788SOL     OW56413   7.592  11.508   8.459 -0.2872 -0.3029 -0.0905
49788SOL    HW156414   7.586  11.586   8.514 -0.9631 -0.2796 -0.1828
49788SOL    HW256415   7.685  11.498   8.439 -0.2089  0.5318 -0.1498
49789SOL     OW56416  11.622  11.920  12.098 -0.1115 -0.0532 -0.0461
49789SOL    HW156417  11.582  11.949  12.015 -0.4927  0.3084  0.2602
49789SOL    HW256418  11.651  12.001  12.140 -1.0351 -0.1207  0.7465
49790SOL     OW56419   7.925   0.114   0.385  0.1985 -0.3251  0.6536
49790SOL    HW156420   8.009   0.158   0.379  0.0529 -0.2181 -1.2806
49790SOL    HW256421   7.944   0.023   0.360  0.2128 -1.0346  3.0292
49791SOL     OW56422   4.438   1.654   6.350  0.0465  0.1837 -0.0204
49791SOL    HW156423   4.498   1.727   6.360  0.3126 -0.2950  2.6187
49791SOL    HW256424   4.492   1.582   6.319  0.1496  0.5978 -0.8255
49792SOL     OW56425   7.415   0.742  12.338  0.4656 -0.0036  0.2042
49792SOL    HW156426   7.332   0.789  12.326  0.5179  0.4736  1.5541
49792SOL    HW256427   7.394   0.651  12.316  0.2554  0.5271 -2.0161
49793SOL     OW56428  11.893   6.416   1.875 -0.2697  0.3717  0.1281
49793SOL    HW156429  11.939   6.389   1.795 -0.1488 -4.7359  1.6185
49793SOL    HW256430  11.963   6.438   1.936 -0.2355  1.0354 -0.1390
49794SOL     OW56431   9.592   6.307   1.628 -0.6591  0.0656 -0.1377
49794SOL    HW156432   9.543   6.284   1.706  0.2917  0.3771  0.5675
49794SOL    HW256433   9.671   6.254   1.632 -0.4385  0.3368 -0.7105
49795SOL     OW56434   5.102   5.099   4.672 -0.2777  0.4198  0.3277
49795SOL    HW156435   5.163   5.143   4.613  0.9098  1.3963  2.1757
49795SOL    HW256436   5.037   5.165   4.693 -1.4452 -0.3155 -0.8477
49796SOL     OW56437   5.380   1.302  12.359  1.0406  0.4473  0.0496
49796SOL    HW156438   5.366   1.304  12.454 -0.9163 -1.0223 -0.1304
49796SOL    HW256439   5.292   1.307  12.322  1.2992 -3.2558 -1.5250
49797SOL     OW56440   9.943   5.566  11.081  0.0971 -0.3572 -0.3952
49797SOL    HW156441   9.947   5.602  10.992  0.0097 -1.4206 -0.8378
49797SOL    HW256442  10.035   5.551  11.104  0.2659  1.7374  0.4753
49798SOL     OW56443   5.082   3.208   1.658  0.7958  0.0917  0.0753
49798SOL    HW156444   5.108   3.226   1.567  0.2634  0.2470 -0.0466
49798SOL    HW256445   5.156   3.159   1.694  0.5636 -0.8855 -0.7514
49799SOL     OW56446   4.569   3.260  10.510 -0.2823 -0.4723  0.2782
49799SOL    HW156447   4.560   3.171  10.477 -0.1851 -0.6307  0.6664
49799SOL    HW256448   4.598   3.311  10.435 -0.8101 -0.6737 -0.0718
49800SOL     OW56449  11.295  10.754   4.173  0.1101  0.1064 -0.4558
49800SOL    HW156450  11.270  10.670   4.136  0.7367 -0.1845 -0.2403
49800SOL    HW256451  11.278  10.745   4.267  0.9794 -0.0888 -0.3103
49801SOL     OW56452   1.539   5.251   3.613 -0.2062  0.6523 -0.0057
49801SOL    HW156453   1.501   5.335   3.637  2.4093  2.3040 -1.2042
49801SOL    HW256454   1.523   5.243   3.519 -1.4365 -0.8158  0.2822
49802SOL     OW56455  10.579   8.189  10.366 -0.1122 -0.5609  0.2631
49802SOL    HW156456  10.554   8.130  10.294 -0.8809 -1.1491  0.9779
49802SOL    HW256457  10.576   8.133  10.444  1.9082 -0.2447  0.6248
49803SOL     OW56458   0.224   8.931   5.954  0.2500 -0.0801 -0.3347
49803SOL    HW156459   0.165   8.856   5.960 -2.2827  1.8091  0.7777
49803SOL    HW256460   0.194   8.978   5.876  1.8412 -0.2357 -1.0607
49804SOL     OW56461   4.368  12.040  11.517  0.4489  0.2614 -0.3868
49804SOL    HW156462   4.404  12.118  11.560  1.0516 -0.1802 -0.0660
49804SOL    HW256463   4.276  12.039  11.541  0.5403  0.6242 -0.0146
49805SOL     OW56464   4.080   5.817   4.628  0.5661 -0.0419  0.4041
49805SOL    HW156465   4.026   5.886   4.666  1.5694 -0.0429  1.9345
49805SOL    HW256466   4.089   5.752   4.697  1.6016 -0.5600 -0.1821
49806SOL     OW56467   4.779   0.555   7.733 -0.6832 -0.0508 -0.3393
49806SOL    HW156468   4.825   0.579   7.653 -2.0129 -1.8223 -1.7178
49806SOL    HW256469   4.846   0.511   7.787  0.0516  0.5189 -0.7683
49807SOL     OW56470  10.709  11.737   2.537 -0.1012 -0.7670  0.4110
49807SOL    HW156471  10.782  11.770   2.485  0.5815 -1.1173  1.1381
49807SOL    HW256472  10.707  11.643   2.521 -1.3297 -0.5800 -0.7535
49808SOL     OW56473   9.697   7.404   8.394 -0.3105 -0.2118  0.2874
49808SOL    HW156474   9.605   7.426   8.409 -0.1262 -0.1043  1.3523
49808SOL    HW256475   9.717   7.339   8.462  0.0797 -1.1414 -0.6891
49809SOL     OW56476   2.074   2.148   6.328 -0.0755  0.6700 -0.7432
49809SOL    HW156477   2.106   2.229   6.368 -1.0593  0.8142 -0.2215
49809SOL    HW256478   2.060   2.088   6.401  1.5163 -0.3084 -1.2050
49810SOL     OW56479   9.915   2.788   8.547  0.2034 -0.7227  0.2168
49810SOL    HW156480   9.865   2.750   8.475 -0.4230  1.6847 -0.7343
49810SOL    HW256481   9.849   2.810   8.613  0.5659 -1.3660  0.8076
49811SOL     OW56482   0.324   5.839   9.709  0.4621  0.0392 -0.2700
49811SOL    HW156483   0.307   5.804   9.796  0.3101 -1.1324 -0.7602
49811SOL    HW256484   0.402   5.894   9.720  1.1047 -0.9850  0.3864
49812SOL     OW56485  11.444   9.668   2.725  0.0224 -0.1974 -0.2134
49812SOL    HW156486  11.464   9.578   2.753  0.1889  0.5090  2.1309
49812SOL    HW256487  11.352   9.663   2.697  0.3245 -1.2877 -1.0903
49813SOL     OW56488   6.574   0.317   1.195  0.2143  0.5589 -0.2710
49813SOL    HW156489   6.590   0.360   1.280 -0.3712  0.8768 -0.3164
49813SOL    HW256490   6.479   0.306   1.191  0.4263 -2.3301  0.4979
49814SOL     OW56491   3.232   5.009  12.211 -0.2820  0.2322  0.0209
49814SOL    HW156492   3.224   5.056  12.294 -0.1969 -0.5031  0.4600
49814SOL    HW256493   3.248   4.918  12.237  0.1828  0.0676 -0.8049
49815SOL     OW56494   8.420   0.261   7.526  0.3394 -0.1223 -0.4183
49815SOL    HW156495   8.332   0.275   7.491  0.7969 -1.1002 -2.1038
49815SOL    HW256496   8.478   0.281   7.452  1.4654 -0.4776  0.3467
49816SOL     OW56497   2.688  11.416   5.261  0.2317 -0.2662 -0.1113
49816SOL    HW156498   2.610  11.408   5.205 -0.2223  0.9239  0.3144
49816SOL    HW256499   2.711  11.509   5.256  0.8364 -0.3576  0.8306
49817SOL     OW56500   7.085   3.536   7.083  0.5937  0.2244 -0.2143
49817SOL    HW156501   6.995   3.544   7.115  0.2786  0.4676 -1.1308
49817SOL    HW256502   7.079   3.552   6.989  1.7044  0.9680 -0.1804
49818SOL     OW56503   4.327   1.916   5.229  0.4635  0.1879  0.3421
49818SOL    HW156504   4.306   1.893   5.320  1.2396 -2.2510 -0.0093
49818SOL    HW256505   4.258   1.874   5.177  2.1357 -1.8901 -0.3651
49819SOL     OW56506   3.658   6.157   2.061  0.1285  0.1021  0.6247
49819SOL    HW156507   3.659   6.242   2.105  0.5500 -0.4232  1.6411
49819SOL    HW256508   3.750   6.136   2.047  0.0157 -0.0408  0.0536
49820SOL     OW56509   9.486   3.535   0.619 -0.7296  0.5068 -0.1571
49820SOL    HW156510   9.514   3.515   0.529  0.3154  0.2229  0.2122
49820SOL    HW256511   9.417   3.600   0.608  1.1538  2.4924 -1.1034
49821SOL     OW56512   0.941   0.206  10.637  0.4512 -0.3055  1.0820
49821SOL    HW156513   0.956   0.153  10.559  1.0010 -1.0900  1.6968
49821SOL    HW256514   0.873   0.158  10.686  1.3016 -0.7310  1.8792
49822SOL     OW56515   4.196   4.544   1.744  0.4065  0.0054  0.6227
49822SOL    HW156516   4.240   4.463   1.769  0.2509 -1.0670 -2.1533
49822SOL    HW256517   4.265   4.595   1.700 -0.0972  0.1685 -0.0001
49823SOL     OW56518   3.710   7.479   9.653  0.3225 -0.7022 -0.5063
49823SOL    HW156519   3.684   7.489   9.745  1.0785 -0.5334 -0.3045
49823SOL    HW256520   3.797   7.440   9.658  0.8430  0.3717 -1.1352
49824SOL     OW56521   9.937   9.236   3.632  0.1667 -0.0133 -0.0130
49824SOL    HW156522   9.874   9.290   3.678 -0.2833  0.7401 -1.4531
49824SOL    HW256523   9.886   9.164   3.595  0.4421 -0.3590  0.2738
49825SOL     OW56524  10.372   1.640  11.324 -0.0095 -0.8286  0.2862
49825SOL    HW156525  10.287   1.679  11.302  0.8982  0.7301 -0.5903
49825SOL    HW256526  10.392   1.583  11.250  0.5444  0.2391 -0.4038
49826SOL     OW56527   4.256   0.552   8.710  0.1910 -0.1544 -1.0865
49826SOL    HW156528   4.182   0.599   8.671  0.4058  0.8470 -0.3162
49826SOL    HW256529   4.219   0.469   8.739 -1.0019  0.9165  0.6318
49827SOL     OW56530   7.204   6.518  10.352  0.3386  0.0629 -0.5574
49827SOL    HW156531   7.263   6.588  10.326  0.5597 -0.3730 -1.2540
49827SOL    HW256532   7.122   6.563  10.373  0.9170  0.6757  0.4899
49828SOL     OW56533  12.077   7.485  10.703  0.1153  0.4263 -0.2804
49828SOL    HW156534  11.988   7.509  10.674 -0.3799 -0.3303  0.5508
49828SOL    HW256535  12.087   7.394  10.676  1.3419  1.0124 -1.9452
49829SOL     OW56536   1.734  11.002   6.877  0.5333  0.9056 -0.4153
49829SOL    HW156537   1.736  11.069   6.808 -0.3159  1.2241 -0.1359
49829SOL    HW256538   1.644  10.969   6.876  1.4081 -1.7833 -2.0065
49830SOL     OW56539   0.167  11.968   8.213 -0.0443 -0.5570 -0.2150
49830SOL    HW156540   0.259  11.983   8.233 -0.2787  0.1726  0.4047
49830SOL    HW256541   0.167  11.917   8.132  0.8783  1.7351 -1.7471
49831SOL     OW56542   8.413   6.304   7.814 -0.3528  0.0878  0.1466
49831SOL    HW156543   8.417   6.365   7.887 -0.3350  2.2706 -1.5757
49831SOL    HW256544   8.476   6.339   7.750 -2.2530 -0.1778 -2.0051
49832SOL     OW56545   1.956   0.059   8.750 -0.3897  0.2557  0.2625
49832SOL    HW156546   2.025   0.006   8.788 -1.0954 -0.3945  0.6662
49832SOL    HW256547   1.910   0.000   8.689 -0.7552  0.5943  0.2017
49833SOL     OW56548   6.300   7.352   8.631 -0.4334  0.0694  0.0911
49833SOL    HW156549   6.340   7.372   8.716 -0.1523  0.4816 -0.1319
49833SOL    HW256550   6.237   7.423   8.617  0.1726  0.5117 -0.4542
49834SOL     OW56551   0.749   2.164   0.068 -0.0738  1.0087 -0.6752
49834SOL    HW156552   0.758   2.212  -0.015  0.3734  0.8632 -0.7135
49834SOL    HW256553   0.711   2.080   0.043 -1.6011  1.6167 -0.5169
49835SOL     OW56554   8.343  11.379   5.343 -0.0446  0.3041  0.0231
49835SOL    HW156555   8.361  11.470   5.367  1.0321  0.1845 -0.2891
49835SOL    HW256556   8.284  11.385   5.268  0.3020  0.7519 -0.2166
49836SOL     OW56557  10.278   0.262   9.072  0.5956 -0.1187  0.1640
49836SOL    HW156558  10.328   0.209   9.010 -0.7149 -2.3409  0.9180
49836SOL    HW256559  10.322   0.248   9.156 -0.2524 -0.7009  0.5169
49837SOL     OW56560   4.529   6.106   1.154  0.0629 -0.4544  0.1382
49837SOL    HW156561   4.488   6.040   1.209 -0.6590  0.7856  1.1207
49837SOL    HW256562   4.590   6.152   1.212 -0.6300  0.7952 -0.0896
49838SOL     OW56563  11.949   3.507  10.733  0.0747 -0.0191  0.4957
49838SOL    HW156564  11.923   3.419  10.707  1.0191 -0.7160  1.7882
49838SOL    HW256565  11.883   3.533  10.797 -0.7281  0.6109 -0.5584
49839SOL     OW56566  10.245   4.062   6.431  0.1427 -0.6963  0.3706
49839SOL    HW156567  10.336   4.035   6.418 -0.0005 -1.6137  1.2108
49839SOL    HW256568  10.248   4.158   6.420  1.0400 -0.7934 -0.4564
49840SOL     OW56569   1.195  10.661  10.742  0.3324 -0.3051  0.5241
49840SOL    HW156570   1.133  10.720  10.784  0.0169 -0.8007  0.7570
49840SOL    HW256571   1.272  10.716  10.724 -0.2723  0.3810 -0.0274
49841SOL     OW56572  11.631  10.370   5.903  0.3286  0.1775  0.3687
49841SOL    HW156573  11.696  10.315   5.860  0.1461 -0.4906  0.9300
49841SOL    HW256574  11.680  10.419   5.968  0.0204 -1.8087  2.2159
49842SOL     OW56575   1.372   7.942   4.237 -0.1051  0.2364  0.0192
49842SOL    HW156576   1.351   7.958   4.329  0.3331  1.9136 -0.1235
49842SOL    HW256577   1.440   8.007   4.217  0.0613 -0.3394 -1.3892
49843SOL     OW56578   7.898  12.178   0.413 -0.1587 -0.3168 -0.3138
49843SOL    HW156579   7.807  12.207   0.402  0.2584  1.1188 -0.1012
49843SOL    HW256580   7.899  12.136   0.499 -0.8474 -1.3166 -0.7703
49844SOL     OW56581   0.709   4.808  10.042  0.6109 -0.5371 -0.7077
49844SOL    HW156582   0.629   4.766  10.074  1.2309  0.1364  1.9380
49844SOL    HW256583   0.683   4.848   9.959 -1.5454 -1.1258 -0.3782
49845SOL     OW56584   3.995   1.169   7.687  0.0689 -0.0730  0.2047
49845SOL    HW156585   3.940   1.245   7.672 -0.1074 -0.2160  0.1259
49845SOL    HW256586   4.016   1.137   7.599 -0.4451 -0.5365  0.2445
49846SOL     OW56587  10.223   7.712   8.725  0.7373  0.4874 -0.3917
49846SOL    HW156588  10.213   7.805   8.745 -1.1067  0.1646  0.3964
49846SOL    HW256589  10.196   7.703   8.634  2.9333  0.9965 -1.1422
49847SOL     OW56590   8.905   3.350   1.584 -0.4480 -0.0079 -0.1081
49847SOL    HW156591   8.971   3.289   1.553  1.2403  0.7004  1.8609
49847SOL    HW256592   8.857   3.375   1.505  1.4370 -0.7730 -1.5887
49848SOL     OW56593  10.762   9.144  11.454 -0.1679 -0.7100  0.3397
49848SOL    HW156594  10.777   9.077  11.387 -1.8911 -1.2656  0.4607
49848SOL    HW256595  10.774   9.227  11.408 -2.1940 -1.0614 -0.9342
49849SOL     OW56596   3.904   7.310   0.405  0.5209  0.2448 -0.1718
49849SOL    HW156597   3.894   7.316   0.310 -1.8931  1.1265  0.0518
49849SOL    HW256598   3.827   7.261   0.435  2.1884 -1.7010  1.2264
49850SOL     OW56599   1.698  10.236   8.433  0.3988 -0.2602  0.3490
49850SOL    HW156600   1.762  10.170   8.460  0.0621  0.8337  4.4410
49850SOL    HW256601   1.749  10.300   8.383  1.6372 -1.3209  0.1988
49851SOL     OW56602   6.623   1.293   5.701 -0.4948 -0.3168 -0.4167
49851SOL    HW156603   6.645   1.219   5.646 -0.2503  0.8754 -1.9960
49851SOL    HW256604   6.698   1.352   5.694 -0.6325  0.0615  0.8867
49852SOL     OW56605   8.671  10.767   6.797  0.8237 -0.0761 -0.3296
49852SOL    HW156606   8.692  10.777   6.704 -2.2912 -1.6933 -1.3546
49852SOL    HW256607   8.736  10.705   6.830  0.4763 -1.4639 -2.1203
49853SOL     OW56608   0.875   9.652   5.547 -0.2658 -0.7790 -0.2767
49853SOL    HW156609   0.850   9.610   5.629  2.6387 -2.2987 -0.0143
49853SOL    HW256610   0.900   9.579   5.490 -0.2170  0.3584 -1.7608
49854SOL     OW56611  12.284   6.872   1.627 -0.1460 -0.1744 -0.0343
49854SOL    HW156612  12.267   6.912   1.713  1.5950  2.6201 -0.8505
49854SOL    HW256613  12.361   6.817   1.641  0.5284  0.7810  0.1054
49855SOL     OW56614   7.560  11.122   9.895  0.2017 -0.0282  0.2325
49855SOL    HW156615   7.606  11.083   9.970 -0.5982  0.6002  1.0783
49855SOL    HW256616   7.515  11.198   9.932  0.3731  0.7258 -1.0428
49856SOL     OW56617   8.145   0.748   0.976  0.0506  0.2924 -0.0573
49856SOL    HW156618   8.161   0.837   1.006 -0.9745  0.9947 -1.4733
49856SOL    HW256619   8.188   0.743   0.891  0.2663 -0.6333  0.0975
49857SOL     OW56620   7.453   6.245   8.440  0.4277 -1.1358 -0.0447
49857SOL    HW156621   7.517   6.309   8.473 -0.0175  0.1639 -1.5820
49857SOL    HW256622   7.388   6.239   8.509  0.3495  0.2968  0.0405
49858SOL     OW56623  10.094   9.446  12.136 -0.0538 -0.0121 -0.3391
49858SOL    HW156624  10.083   9.375  12.199  0.5982 -2.0301 -2.3712
49858SOL    HW256625  10.020   9.436  12.075  0.4837  0.5427 -1.1039
49859SOL     OW56626   7.711  11.668   1.261  0.7562  0.1044 -0.0761
49859SOL    HW156627   7.630  11.697   1.219  2.4112  0.3304 -3.3867
49859SOL    HW256628   7.734  11.739   1.321 -0.2984  1.0999 -0.8061
49860SOL     OW56629  11.612   7.313   3.631  0.2278 -0.1649 -1.0054
49860SOL    HW156630  11.521   7.335   3.613 -0.8996 -2.9980  0.6037
49860SOL    HW256631  11.608   7.232   3.682  3.6593 -0.3123 -0.7123
49861SOL     OW56632   4.944   8.086  12.345 -0.0336  0.0625  0.5364
49861SOL    HW156633   4.898   8.154  12.394 -0.0197 -0.2933  1.0627
49861SOL    HW256634   5.035   8.114  12.344  0.0840 -0.2438  1.3067
49862SOL     OW56635   1.205   9.250   3.519 -0.1379 -0.0946 -0.2932
49862SOL    HW156636   1.111   9.272   3.521 -0.3977 -1.2010  1.5307
49862SOL    HW256637   1.241   9.294   3.596  0.9801  0.7578 -1.2719
49863SOL     OW56638   2.126   2.114   3.151 -0.3556  0.0123 -0.7962
49863SOL    HW156639   2.157   2.099   3.062  0.2305  0.8575 -0.7378
49863SOL    HW256640   2.113   2.026   3.186  2.1405 -0.4134 -0.7716
49864SOL     OW56641   5.446  10.107   8.907  0.4606  0.8670  0.4485
49864SOL    HW156642   5.395  10.109   8.988  1.5573  0.0767  1.1753
49864SOL    HW256643   5.519  10.048   8.925  0.5657  0.4322 -1.2180
49865SOL     OW56644  11.474   2.579   2.907  0.2768 -0.0563  0.4489
49865SOL    HW156645  11.510   2.666   2.923 -1.0809  0.4078  1.1438
49865SOL    HW256646  11.414   2.565   2.980 -1.1810 -0.6465 -0.8158
49866SOL     OW56647  10.384   6.759  11.602  0.0809 -0.3562 -0.4022
49866SOL    HW156648  10.440   6.836  11.601  1.0012 -1.0031 -1.5886
49866SOL    HW256649  10.391   6.725  11.692  3.1517 -1.4640 -0.9421
49867SOL     OW56650   5.229   7.576   9.697 -0.3810 -0.1804 -0.4550
49867SOL    HW156651   5.323   7.560   9.697 -0.2182  0.7247 -0.9593
49867SOL    HW256652   5.220   7.666   9.730 -1.1112 -0.4631  0.1476
49868SOL     OW56653   0.470   7.612   0.200  0.2850  0.4377  0.4326
49868SOL    HW156654   0.538   7.673   0.226  0.6775  0.0818  0.2462
49868SOL    HW256655   0.389   7.664   0.202  0.5481  0.8395  0.7199
49869SOL     OW56656   1.784   0.087   1.665  0.0368 -0.2386 -0.0322
49869SOL    HW156657   1.827   0.002   1.655  0.3783 -0.0454 -0.2536
49869SOL    HW256658   1.723   0.093   1.591  0.1533 -0.2149 -0.1283
49870SOL     OW56659   3.392  10.151   1.943 -0.0020  0.0770 -0.3368
49870SOL    HW156660   3.323  10.203   1.902 -1.3588 -0.5969  1.0002
49870SOL    HW256661   3.440  10.114   1.869 -2.8305 -1.7272 -1.4668
49871SOL     OW56662   3.869   8.233   3.173 -0.5515 -0.3823 -0.4359
49871SOL    HW156663   3.896   8.151   3.132  0.3762 -0.5556  0.4949
49871SOL    HW256664   3.950   8.278   3.192 -1.0179  0.2701  0.0480
49872SOL     OW56665   7.238   5.826   7.755  0.2678  0.3582  0.0323
49872SOL    HW156666   7.279   5.741   7.735  1.4701  0.3737  2.1326
49872SOL    HW256667   7.155   5.824   7.707  1.3062 -1.0075 -1.8464
49873SOL     OW56668   9.931   1.790   8.278  0.6635  0.3913 -0.2088
49873SOL    HW156669   9.841   1.758   8.284  1.4757 -1.9702  0.2560
49873SOL    HW256670   9.964   1.754   8.196  1.8678 -0.7180  0.7296
49874SOL     OW56671   0.354  11.495  10.774 -0.1752  0.3893 -0.8717
49874SOL    HW156672   0.272  11.508  10.822  0.9974  1.0547  1.0945
49874SOL    HW256673   0.368  11.400  10.776 -0.5817  0.3306 -0.6561
49875SOL     OW56674  12.392   0.778   3.951 -0.0541 -0.0923  0.1033
49875SOL    HW156675  12.353   0.813   3.871  0.7243  0.4736 -0.0354
49875SOL    HW256676  12.331   0.802   4.021 -0.8720 -0.8190 -0.3415
49876SOL     OW56677   3.100   4.326   9.393 -0.2127  0.0543  0.4031
49876SOL    HW156678   3.163   4.354   9.460 -0.3150 -0.6853  0.8234
49876SOL    HW256679   3.080   4.406   9.344  0.7237  0.3886  0.5368
49877SOL     OW56680   0.830  11.645   3.216 -0.0654 -0.1020 -0.1490
49877SOL    HW156681   0.845  11.551   3.225 -1.5923 -0.3831 -0.2866
49877SOL    HW256682   0.876  11.684   3.291 -0.6854 -1.1041  0.7793
49878SOL     OW56683  11.710   6.866   8.603 -0.3406  0.3530  0.9382
49878SOL    HW156684  11.707   6.952   8.560 -2.1664  0.2489  0.7757
49878SOL    HW256685  11.655   6.876   8.680  0.0008 -0.4804  1.3030
49879SOL     OW56686   1.524   8.689  12.119 -0.0336 -0.2389  0.1767
49879SOL    HW156687   1.504   8.757  12.184 -0.7156 -1.5778  1.4281
49879SOL    HW256688   1.620   8.688  12.116  0.1310 -1.4336  2.6810
49880SOL     OW56689   7.273   7.046  11.909  0.8837  0.2480 -0.2647
49880SOL    HW156690   7.240   7.034  11.820 -0.5959  2.2202 -0.0615
49880SOL    HW256691   7.214   6.995  11.964  0.1865  1.0833 -0.2126
49881SOL     OW56692  10.024   2.633  10.313 -0.1901 -0.0446 -0.3019
49881SOL    HW156693   9.988   2.711  10.272 -0.1206  0.3229  0.3240
49881SOL    HW256694   9.966   2.616  10.388  0.4126  0.0443  0.1957
49882SOL     OW56695   7.453   4.707   6.557  0.2168  0.0261 -0.2367
49882SOL    HW156696   7.478   4.643   6.624  0.6428  0.9899  0.5362
49882SOL    HW256697   7.536   4.745   6.528 -0.1521  2.1098  1.2126
49883SOL     OW56698   7.099   5.655   2.319  0.1665  0.6131 -0.1736
49883SOL    HW156699   7.151   5.715   2.372 -1.3057  1.5266  0.3164
49883SOL    HW256700   7.130   5.668   2.230  0.5837  1.3318  0.0672
49884SOL     OW56701   5.245  12.227   6.812 -0.1182  0.2380  0.0583
49884SOL    HW156702   5.256  12.245   6.719  0.9426  0.7276  0.2755
49884SOL    HW256703   5.153  12.250   6.830 -0.6754 -0.9435 -1.0961
49885SOL     OW56704   1.530   6.381   3.670 -0.2461 -0.2325  0.0358
49885SOL    HW156705   1.436   6.363   3.676 -0.3742  0.8208  1.9241
49885SOL    HW256706   1.539   6.469   3.706  1.4794 -0.3355 -0.1072
49886SOL     OW56707  10.891   6.960  10.312 -0.4444  0.4484 -0.3324
49886SOL    HW156708  10.809   6.910  10.311  0.0564 -0.4441  0.9477
49886SOL    HW256709  10.956   6.900  10.275  0.4979 -0.5736  2.6771
49887SOL     OW56710  12.389   5.114   0.016 -0.4444 -0.3539 -0.1998
49887SOL    HW156711  12.337   5.183  -0.024  0.5027  0.1426 -0.6081
49887SOL    HW256712  12.334   5.036   0.011 -0.3744 -0.2995 -2.4241
49888SOL     OW56713   0.908   6.321   1.360  0.1613  0.1421  0.1867
49888SOL    HW156714   0.953   6.355   1.283  0.6576  1.6854  1.1181
49888SOL    HW256715   0.976   6.313   1.426 -0.2939 -0.9929  0.5416
49889SOL     OW56716   0.321   9.236   6.248 -0.1869  0.3515  0.1594
49889SOL    HW156717   0.325   9.248   6.343 -0.0948  0.2253  0.1730
49889SOL    HW256718   0.304   9.142   6.237  0.8437  0.1593  0.0459
49890SOL     OW56719   1.252   0.552   2.359  0.6523 -0.0024 -0.0297
49890SOL    HW156720   1.288   0.634   2.394 -1.0356  0.0643  1.7308
49890SOL    HW256721   1.213   0.509   2.435  0.1342 -1.7071 -1.2061
49891SOL     OW56722   6.501   5.606   4.739 -1.2116 -0.2792  0.5993
49891SOL    HW156723   6.498   5.671   4.668 -1.8767 -0.9650 -0.0237
49891SOL    HW256724   6.498   5.522   4.694  2.7420 -0.9183  1.1886
49892SOL     OW56725   5.782   4.439   1.695  0.4209 -0.6856  0.7670
49892SOL    HW156726   5.722   4.451   1.622  0.6050 -0.2112  0.6892
49892SOL    HW256727   5.869   4.451   1.657  0.4935  0.1898  1.1787
49893SOL     OW56728   2.199   4.724   2.871  0.2363 -0.0327 -0.1741
49893SOL    HW156729   2.232   4.813   2.884 -1.0419  0.6395 -1.2944
49893SOL    HW256730   2.220   4.704   2.780 -0.3993 -0.4727 -0.2275
49894SOL     OW56731  11.907  11.506   7.295 -1.3921 -0.1178  0.5278
49894SOL    HW156732  11.945  11.464   7.217  0.2230 -0.3292  1.3805
49894SOL    HW256733  11.896  11.598   7.269 -2.9031 -0.5917 -0.6358
49895SOL     OW56734   8.404   3.749  10.446 -0.1638  0.2077 -0.1098
49895SOL    HW156735   8.328   3.691  10.457  0.1295 -0.5658 -1.8496
49895SOL    HW256736   8.472   3.710  10.501  0.5020 -2.0669 -2.3379
49896SOL     OW56737  10.968   7.972   6.929  0.0859  0.4456 -0.0378
49896SOL    HW156738  10.890   7.946   6.881 -0.2570  0.9625  0.2370
49896SOL    HW256739  10.964   7.921   7.011  0.4876 -0.1685 -0.3881
49897SOL     OW56740   9.253   1.546   6.062  0.2232 -0.0207 -0.0119
49897SOL    HW156741   9.230   1.455   6.084  0.7771 -0.7906 -2.3855
49897SOL    HW256742   9.191   1.599   6.114 -2.1386 -1.8222 -0.7988
49898SOL     OW56743   0.350   8.006   0.793 -0.7290 -0.5635 -0.5026
49898SOL    HW156744   0.328   8.017   0.886  2.2439 -1.9210  0.4952
49898SOL    HW256745   0.317   7.918   0.771  0.3329 -1.0733 -0.1046
49899SOL     OW56746   0.648  10.013   6.166 -0.2220  0.4333 -0.6816
49899SOL    HW156747   0.617   9.933   6.208 -0.9409  0.5993 -0.8809
49899SOL    HW256748   0.600  10.083   6.209  0.3317  0.7578 -0.5780
49900SOL     OW56749   4.286   8.002   8.878 -0.8657  0.1111 -0.5257
49900SOL    HW156750   4.194   8.027   8.874 -1.0608 -0.5081 -0.0249
49900SOL    HW256751   4.286   7.907   8.869 -0.3534  0.0077  0.5023
49901SOL     OW56752   9.991   2.471   8.947  0.1073  0.4123 -0.5011
49901SOL    HW156753   9.950   2.390   8.916 -0.2223  0.6485 -0.6915
49901SOL    HW256754   9.919   2.534   8.950  0.3585  0.6922 -0.3285
49902SOL     OW56755   6.977   3.149  11.263  0.1117  0.4667  0.2116
49902SOL    HW156756   6.914   3.133  11.193 -0.8120  0.1763  1.0811
49902SOL    HW256757   7.015   3.234  11.242  1.0431 -0.3096 -1.4945
49903SOL     OW56758   2.289   3.128  11.922  0.3730 -0.0896 -0.1156
49903SOL    HW156759   2.342   3.199  11.884 -0.3151  1.4253  1.6164
49903SOL    HW256760   2.253   3.166  12.002 -1.1750 -1.9709  0.1308
49904SOL     OW56761   1.853   6.518   3.283 -0.2999  0.4113 -0.1990
49904SOL    HW156762   1.884   6.478   3.201  0.6824  0.3981  0.1587
49904SOL    HW256763   1.758   6.523   3.273 -0.3062 -0.6940 -0.8427
49905SOL     OW56764   9.660   2.499   4.604  0.4070  0.6899  0.2724
49905SOL    HW156765   9.617   2.577   4.639 -0.2599  0.1667  0.6540
49905SOL    HW256766   9.607   2.475   4.528 -0.2732 -0.2200  1.0092
49906SOL     OW56767   7.520   5.477   3.880  0.6384 -0.2370 -0.1504
49906SOL    HW156768   7.607   5.454   3.911  0.0056 -0.7365  1.3731
49906SOL    HW256769   7.493   5.401   3.828  0.1269 -1.3040  1.5635
49907SOL     OW56770   3.866   8.307  12.517  0.0125  0.0058 -0.0168
49907SOL    HW156771   3.816   8.309  12.599  0.4429  1.9775  0.2352
49907SOL    HW256772   3.945   8.258  12.539 -0.0037  0.2762  0.6673
49908SOL     OW56773  12.218  12.164   1.433  0.5171  0.2819  0.2163
49908SOL    HW156774  12.267  12.225   1.378 -0.4683  0.8097 -0.0896
49908SOL    HW256775  12.213  12.083   1.381  0.2068  0.5474 -0.1668
49909SOL     OW56776   7.358   2.340   9.786 -0.2512  0.0937 -0.1500
49909SOL    HW156777   7.434   2.303   9.742  0.3664  0.3068  0.7151
49909SOL    HW256778   7.326   2.270   9.843  1.8646  1.2544  2.6945
49910SOL     OW56779   3.395   2.301   6.359 -0.4470  0.4009 -0.3889
49910SOL    HW156780   3.384   2.370   6.423 -0.7163  2.1450 -2.2225
49910SOL    HW256781   3.468   2.248   6.393  0.5216  2.2401  0.5432
49911SOL     OW56782   6.729   9.452   4.848  0.2742 -0.5262 -0.0438
49911SOL    HW156783   6.767   9.370   4.818  1.6234 -0.0024  0.1913
49911SOL    HW256784   6.704   9.435   4.939  1.6673 -0.3431  0.3989
49912SOL     OW56785   8.459   4.438   3.730 -0.0913 -0.0263  0.1520
49912SOL    HW156786   8.521   4.379   3.775 -0.2478  0.6918  1.3481
49912SOL    HW256787   8.462   4.410   3.639  0.5134 -1.3039  0.5347
49913SOL     OW56788   1.836   2.206   8.461 -0.3592  0.3285 -0.0277
49913SOL    HW156789   1.748   2.167   8.456 -0.8135  1.1791  0.9862
49913SOL    HW256790   1.821   2.300   8.463  0.5177  0.4677  1.0509
49914SOL     OW56791   4.581   0.476   9.157  0.4120  0.4867  0.1802
49914SOL    HW156792   4.671   0.446   9.168  0.3500  0.1945 -0.1144
49914SOL    HW256793   4.561   0.461   9.065 -0.4713 -0.9501  0.5775
49915SOL     OW56794   1.780  11.652  10.203  0.4072 -0.1288  0.4464
49915SOL    HW156795   1.819  11.606  10.129 -1.4606  0.1609 -0.7945
49915SOL    HW256796   1.701  11.693  10.167  0.3998  1.5516  2.1911
49916SOL     OW56797   1.731  11.109   9.055 -0.0011 -0.0011  0.0017
49916SOL    HW156798   1.651  11.140   9.097 -0.3411 -0.0593 -0.5912
49916SOL    HW256799   1.783  11.071   9.126  0.1396  1.3265  0.6400
49917SOL     OW56800  11.063   6.909  10.736  0.3956 -0.3572 -0.2848
49917SOL    HW156801  11.000   6.966  10.780  0.7347  0.4566 -0.8376
49917SOL    HW256802  11.012   6.831  10.714  0.2104 -0.8133  1.5366
49918SOL     OW56803   7.681   9.738   4.839 -0.5601 -0.0809 -0.6887
49918SOL    HW156804   7.682   9.671   4.771 -1.0333 -0.9385  0.1198
49918SOL    HW256805   7.596   9.782   4.829 -2.5238 -2.8926  1.7900
49919SOL     OW56806   7.934  12.433  10.241 -0.1044  0.0546  0.0922
49919SOL    HW156807   7.989  12.369  10.196 -1.2811  0.5966 -2.2675
49919SOL    HW256808   7.936  12.510  10.185 -0.4847  1.3388  1.7510
49920SOL     OW56809   0.214   2.922   1.156  0.4750  0.2882 -0.3031
49920SOL    HW156810   0.305   2.947   1.142  0.4113  0.1567 -0.9894
49920SOL    HW256811   0.180   2.905   1.068 -0.6120  1.6895 -0.1882
49921SOL     OW56812   9.550   5.104   7.516  0.7191 -0.4273  0.7641
49921SOL    HW156813   9.625   5.091   7.574  0.1902 -1.8593  1.1671
49921SOL    HW256814   9.578   5.068   7.432  1.6095  1.9495 -0.0681
49922SOL     OW56815  12.216  11.545   1.801  0.0477 -0.0308  0.0077
49922SOL    HW156816  12.223  11.531   1.895  0.2864 -1.4151 -0.1988
49922SOL    HW256817  12.236  11.638   1.789  1.5208 -0.1663  1.1723
49923SOL     OW56818   5.267  11.154   2.357 -0.1032 -0.8429  0.3380
49923SOL    HW156819   5.241  11.129   2.269  0.5688  1.6596 -0.6697
49923SOL    HW256820   5.335  11.092   2.381 -1.7066 -2.8190 -0.0153
49924SOL     OW56821   7.416  10.854   1.596  0.0551 -0.0518  0.3502
49924SOL    HW156822   7.397  10.760   1.593 -0.2413  0.0432 -1.3673
49924SOL    HW256823   7.493  10.861   1.653  0.6329 -1.4369 -0.2140
49925SOL     OW56824   4.122   0.330  11.164 -0.3089  0.4006 -0.4558
49925SOL    HW156825   4.151   0.285  11.085 -1.2098  0.1815 -0.6736
49925SOL    HW256826   4.198   0.382  11.191 -0.1062  0.7835 -1.6799
49926SOL     OW56827   6.333   8.406   3.421  0.1463 -0.4287 -0.4095
49926SOL    HW156828   6.252   8.361   3.443 -0.3740  1.2575  1.4469
49926SOL    HW256829   6.396   8.336   3.404 -1.5082 -1.7731 -1.3214
49927SOL     OW56830   6.363   4.504   5.132  0.2319 -0.1505 -0.1816
49927SOL    HW156831   6.449   4.507   5.175  0.0906  0.1406  0.0813
49927SOL    HW256832   6.345   4.411   5.123  0.1262 -0.2213  0.6736
49928SOL     OW56833   3.142   1.160   6.659  0.0221  0.6288  0.2644
49928SOL    HW156834   3.230   1.187   6.684  0.6157  0.1099 -1.1695
49928SOL    HW256835   3.146   1.064   6.657 -1.3296  0.4361  2.7321
49929SOL     OW56836   8.700   6.428   4.754  0.1135  0.2004  0.2591
49929SOL    HW156837   8.759   6.503   4.743  1.0732 -0.7355 -1.2671
49929SOL    HW256838   8.671   6.434   4.845 -1.2747  3.4483 -0.2625
49930SOL     OW56839   4.093   8.642  12.503 -0.0669  0.0689 -0.3501
49930SOL    HW156840   4.180   8.681  12.499  0.1112 -0.1325  1.0786
49930SOL    HW256841   4.049   8.690  12.574 -1.2092  0.3365 -1.2176
49931SOL     OW56842   4.262   6.817   4.220  0.4464 -0.8821  0.3289
49931SOL    HW156843   4.248   6.882   4.150  0.7765 -1.6344 -0.4585
49931SOL    HW256844   4.354   6.793   4.211  1.1211  0.6371  2.4883
49932SOL     OW56845  10.887   7.309   1.925  0.2395  0.0588  0.3479
49932SOL    HW156846  10.951   7.342   1.862 -2.1005 -0.3933 -2.5094
49932SOL    HW256847  10.898   7.214   1.921 -0.6725 -0.0335 -0.3275
49933SOL     OW56848   3.589   8.936   3.964 -0.3310  0.7357 -0.0966
49933SOL    HW156849   3.510   8.931   4.018  0.7425  0.1325  1.4952
49933SOL    HW256850   3.647   8.996   4.012  0.4934  0.5176 -0.7985
49934SOL     OW56851   0.442   6.794   0.480 -0.2626  0.5013 -0.3817
49934SOL    HW156852   0.397   6.739   0.417  0.6789  0.9760 -1.5136
49934SOL    HW256853   0.527   6.753   0.492 -0.0484  0.9780 -0.2216
49935SOL     OW56854  12.279   0.064  12.429 -0.0021  0.0977 -0.2692
49935SOL    HW156855  12.284  -0.003  12.362  2.7180  1.3256 -1.4757
49935SOL    HW256856  12.341   0.036  12.496  0.4841  0.9030 -0.3572
49936SOL     OW56857   7.045   9.769  10.968 -0.1205  0.6600 -0.5263
49936SOL    HW156858   7.121   9.740  10.917 -1.0493  2.2064 -2.9823
49936SOL    HW256859   7.082   9.798  11.051  1.6960 -0.4777 -0.8596
49937SOL     OW56860   0.517  11.037   5.732  0.2109  0.2971  0.1869
49937SOL    HW156861   0.428  11.065   5.709 -0.4814 -1.2045  0.8563
49937SOL    HW256862   0.570  11.062   5.657 -0.7110  1.5502 -0.0791
49938SOL     OW56863   0.990   6.290   0.351 -0.5479  0.6623  0.8068
49938SOL    HW156864   1.036   6.284   0.267 -0.7855 -1.0233  0.7579
49938SOL    HW256865   0.940   6.371   0.345  0.0280  0.9564 -0.3797
49939SOL     OW56866   4.316   3.126   8.776 -0.1499  0.0673 -0.1873
49939SOL    HW156867   4.259   3.093   8.846 -1.1728  3.6867  0.8985
49939SOL    HW256868   4.405   3.110   8.807 -0.5912 -0.3922  0.8830
49940SOL     OW56869   2.240   2.692  11.494 -0.4053  0.7955  1.0262
49940SOL    HW156870   2.167   2.645  11.454 -0.0750  1.1696 -0.0680
49940SOL    HW256871   2.219   2.695  11.587 -1.1125 -0.2804  0.9174
49941SOL     OW56872   3.328   8.495   4.495 -0.3219 -0.5937 -0.4883
49941SOL    HW156873   3.383   8.432   4.541  1.3081  0.6276 -0.6450
49941SOL    HW256874   3.380   8.576   4.496 -2.2634  0.7116 -0.3960
49942SOL     OW56875   3.583   2.613   5.328 -0.0574  0.8681  0.2687
49942SOL    HW156876   3.542   2.634   5.412  0.0021 -0.8679  0.7763
49942SOL    HW256877   3.598   2.518   5.332  1.6745  1.0436 -0.9352
49943SOL     OW56878   3.818   7.403  12.443  0.3101  0.2962  0.1308
49943SOL    HW156879   3.881   7.473  12.426  0.2812  0.0683 -1.0085
49943SOL    HW256880   3.853   7.328  12.395  0.0674 -0.3282  0.9049
49944SOL     OW56881   1.565  10.789   2.335  0.0464 -0.0310  0.2646
49944SOL    HW156882   1.491  10.765   2.390  0.0519  0.1942  0.3697
49944SOL    HW256883   1.628  10.718   2.348 -0.5590 -0.7617 -0.6162
49945SOL     OW56884   7.208   2.249   5.817  0.2357  0.1064  0.1322
49945SOL    HW156885   7.174   2.168   5.781 -2.8983  1.5517 -0.4965
49945SOL    HW256886   7.236   2.226   5.906  1.0637 -1.9416 -0.6067
49946SOL     OW56887   3.266   5.108   1.703 -0.5286  0.0062  0.5301
49946SOL    HW156888   3.229   5.105   1.791  0.6453  1.1716  1.1048
49946SOL    HW256889   3.359   5.088   1.715 -0.4476 -0.3493 -0.5294
49947SOL     OW56890  10.763   9.811   6.259 -0.0730 -0.3052 -0.4970
49947SOL    HW156891  10.694   9.871   6.286  0.3495 -1.3621  3.5721
49947SOL    HW256892  10.735   9.781   6.172 -2.6615  2.1921 -0.6946
49948SOL     OW56893   8.481  12.223   6.918 -0.5808  0.2329  0.1013
49948SOL    HW156894   8.513  12.159   6.853 -1.2699 -2.6375  2.3943
49948SOL    HW256895   8.542  12.215   6.991 -1.4370  1.2588  0.9566
49949SOL     OW56896   4.223   1.771  12.176 -0.4126  0.2323 -0.1212
49949SOL    HW156897   4.280   1.845  12.155  1.6826 -0.3630  2.7276
49949SOL    HW256898   4.245   1.704  12.112  0.5724  0.7613 -0.3540
49950SOL     OW56899   6.570   1.506   0.699 -0.5009 -0.3921 -0.2585
49950SOL    HW156900   6.532   1.565   0.634  0.7950  1.9351  0.9541
49950SOL    HW256901   6.509   1.509   0.773  0.3028  0.6849  0.3877
49951SOL     OW56902   4.847   4.593   2.937 -0.0040  0.5314 -0.5876
49951SOL    HW156903   4.817   4.596   3.028  1.1296  0.1846 -0.1910
49951SOL    HW256904   4.817   4.676   2.899 -0.8620  0.4925 -0.0299
49952SOL     OW56905   6.325   9.664   7.492  0.2448 -0.1318  0.5216
49952SOL    HW156906   6.343   9.756   7.511  1.3362 -0.5930  1.8536
49952SOL    HW256907   6.400   9.617   7.527 -1.0512 -1.6908  1.3509
49953SOL     OW56908   3.240   5.179   8.040  0.5483  0.7197  0.3368
49953SOL    HW156909   3.295   5.101   8.038  1.1362  1.1269 -0.2789
49953SOL    HW256910   3.253   5.219   7.954  0.7549  1.8161  0.8589
49954SOL     OW56911   8.810   0.394   7.084  0.0631  0.5517  0.0080
49954SOL    HW156912   8.861   0.394   7.165  0.0478 -0.2123  0.0198
49954SOL    HW256913   8.796   0.302   7.064 -1.0905  0.7416 -0.1321
49955SOL     OW56914   6.695   4.547   6.195 -0.0016 -0.1349 -0.7388
49955SOL    HW156915   6.700   4.540   6.290 -0.3339  0.4504 -0.6732
49955SOL    HW256916   6.772   4.499   6.164  1.2417  1.3782 -0.1011
49956SOL     OW56917   9.463   5.898   5.991 -0.4777  0.0693 -0.5219
49956SOL    HW156918   9.419   5.968   6.040  1.4905  1.5806 -0.7642
49956SOL    HW256919   9.475   5.934   5.903  0.1884 -0.7522 -0.7791
49957SOL     OW56920  11.497  12.378  12.533  0.0728 -0.3382 -0.1748
49957SOL    HW156921  11.500  12.318  12.459  1.0851 -1.2848  0.5998
49957SOL    HW256922  11.573  12.435  12.522 -1.1841  1.2163 -1.2026
49958SOL     OW56923   5.894   1.905   3.122  0.2870 -0.2241 -0.2595
49958SOL    HW156924   5.984   1.880   3.102  0.8290  1.1241  0.3271
49958SOL    HW256925   5.902   1.991   3.164 -1.2303 -0.3322  0.3287
49959SOL     OW56926   3.371   3.573   2.909  0.1794 -0.4529 -0.1352
49959SOL    HW156927   3.324   3.526   2.978  1.7864  0.7738  1.8997
49959SOL    HW256928   3.451   3.604   2.951  1.7761 -0.5393 -2.8624
49960SOL     OW56929  12.251   2.554  11.413  0.2175  0.1206 -0.0106
49960SOL    HW156930  12.316   2.504  11.463  0.7569  1.1123  0.3171
49960SOL    HW256931  12.268   2.531  11.322 -0.3848 -1.2501  0.1890
49961SOL     OW56932   5.697   6.907   1.961 -0.5897  0.6014 -0.2794
49961SOL    HW156933   5.611   6.913   2.001 -0.6186 -1.2332  0.0044
49961SOL    HW256934   5.723   6.816   1.973  1.0467  0.9255 -1.0738
49962SOL     OW56935   1.962   1.103  11.847 -0.2274  0.1311  0.1257
49962SOL    HW156936   2.015   1.181  11.864 -2.3282  1.9271 -0.9645
49962SOL    HW256937   1.875   1.138  11.827 -1.4130 -2.5644  0.1941
49963SOL     OW56938  10.715   3.208   8.630 -0.2544 -0.0380  0.6561
49963SOL    HW156939  10.789   3.237   8.683 -0.4498 -0.1004  0.9732
49963SOL    HW256940  10.639   3.250   8.671 -0.2970  0.7907 -0.2439
49964SOL     OW56941   9.821  11.088   1.856 -0.2026  0.0869 -0.0998
49964SOL    HW156942   9.783  11.081   1.943  0.3301  0.1718  0.1461
49964SOL    HW256943   9.913  11.111   1.872  0.0263 -0.3987 -0.6655
49965SOL     OW56944   9.136  11.050   4.626  0.2315  0.0823 -0.0161
49965SOL    HW156945   9.167  11.006   4.705  0.5254 -1.5356 -0.9844
49965SOL    HW256946   9.089  11.126   4.658 -1.1356 -1.4352  1.8190
49966SOL     OW56947   9.945   2.134   7.700  0.2579 -0.0497 -0.4600
49966SOL    HW156948   9.861   2.157   7.660  0.0301 -0.6506 -0.3382
49966SOL    HW256949   9.976   2.215   7.739 -0.8816 -0.0983  0.6018
49967SOL     OW56950   8.440   4.133  10.507 -0.2437  0.4664 -0.2543
49967SOL    HW156951   8.474   4.087  10.584 -0.3629  0.7348 -0.0382
49967SOL    HW256952   8.346   4.140  10.523 -0.2544  0.6058 -0.3777
49968SOL     OW56953   9.001  12.260   6.442  0.0907 -0.6148  0.5293
49968SOL    HW156954   9.001  12.356   6.435  1.1626 -0.5204  1.5684
49968SOL    HW256955   8.915  12.239   6.478 -1.8190 -0.4272 -3.3243
49969SOL     OW56956  10.595   5.472   6.766  0.3022 -0.1808  0.3618
49969SOL    HW156957  10.621   5.538   6.830 -0.3592 -1.7841  2.4141
49969SOL    HW256958  10.675   5.451   6.719  0.5635  1.9018 -0.2226
49970SOL     OW56959   8.998   3.895   8.798  0.1419  0.6326 -0.0640
49970SOL    HW156960   9.051   3.828   8.843  2.2356  0.8320 -2.0670
49970SOL    HW256961   9.001   3.970   8.857  1.6073  0.4297  0.1624
49971SOL     OW56962  12.184   1.739   8.643 -0.2029 -0.1580  0.2646
49971SOL    HW156963  12.142   1.825   8.644 -0.4888 -0.2537 -1.0194
49971SOL    HW256964  12.237   1.737   8.722 -1.4999  0.5420  1.1823
49972SOL     OW56965   6.679   2.464   1.006 -0.0398 -0.1331  0.3307
49972SOL    HW156966   6.672   2.395   0.940 -0.6502  1.8240 -1.7771
49972SOL    HW256967   6.600   2.517   0.993  0.1259  0.6752  2.2722
49973SOL     OW56968  12.450   4.482  11.058 -0.6158  0.5162 -0.1426
49973SOL    HW156969  12.461   4.407  10.999  0.6479  0.2421  0.3925
49973SOL    HW256970  12.454   4.444  11.146 -1.1385  1.0791  0.1288
49974SOL     OW56971   7.855   3.474   8.060  0.4905 -0.5659  0.4105
49974SOL    HW156972   7.947   3.499   8.063  0.2870  0.1598  1.9091
49974SOL    HW256973   7.854   3.389   8.016  1.8434 -0.4785  0.1795
49975SOL     OW56974   7.990  11.554   7.542 -0.3647 -0.2773  0.7357
49975SOL    HW156975   8.060  11.599   7.495 -0.2980 -1.5835 -0.4768
49975SOL    HW256976   7.935  11.625   7.577  0.4728  0.7399  0.0306
49976SOL     OW56977   0.800   1.257   8.538 -0.9485  0.0985 -0.3149
49976SOL    HW156978   0.809   1.283   8.446  2.6728  1.2383  0.1908
49976SOL    HW256979   0.874   1.299   8.582 -2.2606 -0.7985  3.0771
49977SOL     OW56980   8.414   8.602  11.185  0.3191  0.6010  0.2652
49977SOL    HW156981   8.424   8.652  11.104  1.2866  0.1634  0.1021
49977SOL    HW256982   8.482   8.535  11.180  0.4412  0.6167  1.4737
49978SOL     OW56983   6.806   7.012   1.792  0.6804  0.5685  0.0248
49978SOL    HW156984   6.729   7.049   1.834  1.2612  1.4625  0.3344
49978SOL    HW256985   6.836   7.080   1.731  1.0923  0.1455 -0.2594
49979SOL     OW56986   0.733   9.119   1.793 -0.1335  0.7814 -0.4082
49979SOL    HW156987   0.714   9.206   1.758  0.7962  2.3029  2.5247
49979SOL    HW256988   0.811   9.090   1.745 -0.0663  1.8626 -0.9778
49980SOL     OW56989   2.795   0.066   9.391 -0.7818 -0.1160 -0.5345
49980SOL    HW156990   2.769   0.146   9.436 -0.3040 -0.3541  0.1962
49980SOL    HW256991   2.848   0.095   9.317  0.3090  0.2094  0.3599
49981SOL     OW56992   5.797   5.217   2.812  0.2450 -0.0500  0.7062
49981SOL    HW156993   5.797   5.313   2.805 -1.1644 -0.0974 -0.5540
49981SOL    HW256994   5.846   5.198   2.892  1.5860  1.6669  0.3519
49982SOL     OW56995   7.855   0.052  11.309  0.4348 -0.0564 -0.1910
49982SOL    HW156996   7.942   0.022  11.284  1.5168  2.8324 -0.2919
49982SOL    HW256997   7.823   0.100  11.233 -1.5297 -1.4909 -0.3416
49983SOL     OW56998  12.417  12.236  11.868  0.3350  0.1795  0.5566
49983SOL    HW156999  12.402  12.169  11.801  0.0878  1.4830 -0.7517
49983SOL    HW257000  12.430  12.317  11.818 -0.1618  1.2609  2.1095
49984SOL     OW57001   4.345  10.084   6.303  1.0411  0.1982  0.1810
49984SOL    HW157002   4.372  10.168   6.264 -0.9575  1.5351  1.4513
49984SOL    HW257003   4.261  10.065   6.261  1.3294 -1.0426  0.1420
49985SOL     OW57004   1.943   5.524   3.905  0.6740  0.1918 -0.1165
49985SOL    HW157005   1.880   5.581   3.949 -0.0470  0.1044 -1.0064
49985SOL    HW257006   1.938   5.441   3.952 -0.7704 -0.1944 -0.9205
49986SOL     OW57007   2.487   3.649   9.946  0.0050 -0.4266  0.0069
49986SOL    HW157008   2.465   3.688   9.861 -1.7828  0.5478  0.8437
49986SOL    HW257009   2.403   3.616   9.978  0.8737 -1.8259  0.8997
49987SOL     OW57010   0.578  11.959   1.157 -0.1469  0.1333 -1.0177
49987SOL    HW157011   0.658  11.943   1.106  0.2320 -1.5791  0.0307
49987SOL    HW257012   0.520  11.886   1.133 -0.6075  0.2556 -0.2819
49988SOL     OW57013   6.170   8.468   8.679  0.3055  0.2660 -0.0757
49988SOL    HW157014   6.227   8.435   8.748 -0.0742  0.1291  0.1748
49988SOL    HW257015   6.087   8.421   8.691  0.2576  0.1903 -0.6674
49989SOL     OW57016  10.597   1.106   6.910  0.0249 -0.1374  0.1225
49989SOL    HW157017  10.516   1.083   6.954  0.4797  0.0198  1.0649
49989SOL    HW257018  10.597   1.052   6.830 -1.8165  1.1384 -0.7985
49990SOL     OW57019  10.604   8.382  12.421  0.1611 -0.0640  0.1405
49990SOL    HW157020  10.580   8.431  12.343 -0.4328  0.2581  0.5152
49990SOL    HW257021  10.582   8.291  12.400 -0.1005  0.0364 -0.0289
49991SOL     OW57022   7.333   5.683   0.969 -0.5905  0.8857  0.2651
49991SOL    HW157023   7.381   5.600   0.969 -0.8418  0.7378  0.1908
49991SOL    HW257024   7.245   5.659   0.998 -0.5841  1.1749  0.5320
49992SOL     OW57025   6.714   8.543  12.150 -0.1160 -0.0999  0.1761
49992SOL    HW157026   6.647   8.498  12.099 -0.2504 -0.0725  0.3294
49992SOL    HW257027   6.665   8.595  12.214 -0.0090  1.0765 -0.6680
49993SOL     OW57028  11.533  11.887  10.106 -0.4807 -0.5377 -0.3783
49993SOL    HW157029  11.457  11.945  10.108 -0.2177 -0.2022 -0.2392
49993SOL    HW257030  11.576  11.899  10.191  0.8960  0.8224 -1.2183
49994SOL     OW57031   6.155   3.801  12.382  0.0628  0.3686  0.1662
49994SOL    HW157032   6.186   3.713  12.404  5.2652  2.3401  2.1141
49994SOL    HW257033   6.076   3.812  12.435 -0.9583 -3.0392 -0.3486
49995SOL     OW57034   9.408  11.507   1.391  0.2769  0.4852  0.0536
49995SOL    HW157035   9.420  11.567   1.317 -0.9826  0.6228 -0.0589
49995SOL    HW257036   9.418  11.420   1.353  1.4232  0.5859  0.0846
49996SOL     OW57037   3.605   8.069   1.375  0.1976 -0.0863  0.2598
49996SOL    HW157038   3.650   8.153   1.375  3.1270 -1.5330  1.0493
49996SOL    HW257039   3.603   8.042   1.283 -2.0085  1.3412 -0.2005
49997SOL     OW57040   8.847   1.854   0.081  0.4454 -0.2458 -0.3640
49997SOL    HW157041   8.776   1.861   0.018 -0.1487 -1.6608  0.0913
49997SOL    HW257042   8.825   1.917   0.149 -0.1896 -0.4139 -0.4052
49998SOL     OW57043   9.852   5.691   0.312 -0.2700 -0.6561 -0.0863
49998SOL    HW157044   9.890   5.678   0.399  0.4013  1.5603  0.0156
49998SOL    HW257045   9.926   5.720   0.258 -1.0202 -0.2625 -0.9319
49999SOL     OW57046   0.121   4.401  10.022  0.4530  0.1767 -0.5857
49999SOL    HW157047   0.128   4.423   9.929 -1.6113  0.1269 -0.7911
49999SOL    HW257048   0.049   4.338  10.027  0.3172  0.4121  1.0820
50000SOL     OW57049   4.486   8.992   1.784 -0.1802  0.4178  0.1304
50000SOL    HW157050   4.506   9.029   1.698 -0.2670 -1.0543 -0.5550
50000SOL    HW257051   4.481   8.897   1.769  0.4582  0.0658  1.8881
50001SOL     OW57052   6.068   9.525  12.018  0.0747  0.0356  0.6250
50001SOL    HW157053   6.161   9.510  12.004  0.0456  1.2516 -1.2642
50001SOL    HW257054   6.065   9.594  12.084  0.5478  0.3768  0.2981
50002SOL     OW57055   6.005   7.954   9.785  0.3738  0.7550  0.4765
50002SOL    HW157056   5.950   7.897   9.732 -0.1434  2.7746 -1.2959
50002SOL    HW257057   6.083   7.901   9.805 -0.7793 -1.0607  0.3151
50003SOL     OW57058   3.625   3.211   6.540  0.0961 -0.3167  0.3788
50003SOL    HW157059   3.609   3.298   6.578  0.6774 -0.1623  0.2909
50003SOL    HW257060   3.648   3.156   6.615  2.3156  0.2456  0.1905
50004SOL     OW57061   7.354   1.239   2.067  0.6007 -0.2549 -0.3142
50004SOL    HW157062   7.303   1.303   2.017  1.6887  0.0047 -1.1428
50004SOL    HW257063   7.422   1.210   2.006  1.5431 -0.4629  0.7979
50005SOL     OW57064  12.342   8.753   2.577 -0.2285 -0.4830  0.0471
50005SOL    HW157065  12.259   8.770   2.620 -0.6815 -1.4729 -0.3970
50005SOL    HW257066  12.319   8.738   2.485  0.6521  0.9984 -0.4402
50006SOL     OW57067   0.898  12.215   4.488  0.0548 -0.1719 -0.5666
50006SOL    HW157068   0.900  12.121   4.510  0.1387 -0.1268 -0.3757
50006SOL    HW257069   0.855  12.219   4.403  0.8762 -0.4670 -1.0055
50007SOL     OW57070  11.229   4.290   9.629 -0.0111 -0.6089 -0.3145
50007SOL    HW157071  11.315   4.256   9.655  0.2487 -0.2085 -0.6389
50007SOL    HW257072  11.196   4.334   9.708  1.1845  1.4183 -0.8618
50008SOL     OW57073   2.724   0.791   9.773 -0.1167 -0.2096 -0.0638
50008SOL    HW157074   2.746   0.834   9.690 -0.3097 -0.4187 -0.2255
50008SOL    HW257075   2.636   0.755   9.759  0.0272 -0.6275  0.0778
50009SOL     OW57076   8.380  10.157   1.796  0.9838  0.1412 -0.2138
50009SOL    HW157077   8.311  10.128   1.737  1.3455  1.2201 -1.1992
50009SOL    HW257078   8.382  10.253   1.786 -0.7308  0.7312  3.5110
50010SOL     OW57079   6.860   1.952   9.477  0.0934 -0.0699  0.0528
50010SOL    HW157080   6.914   1.965   9.399 -0.0540 -2.2424 -0.4802
50010SOL    HW257081   6.922   1.941   9.548  0.2814  0.2016 -0.0707
50011SOL     OW57082   4.701  12.299  12.576  0.2833  0.2676 -0.4149
50011SOL    HW157083   4.765  12.243  12.618  1.7339  1.0407 -1.4970
50011SOL    HW257084   4.721  12.387  12.607  0.0704  0.5816 -1.1321
50012SOL     OW57085   1.190   8.688   4.888  0.1874  0.0417 -0.7090
50012SOL    HW157086   1.267   8.680   4.943  0.7823  0.6182 -1.4429
50012SOL    HW257087   1.123   8.725   4.945  0.0748 -1.5613  0.2614
50013SOL     OW57088   8.324   5.583   1.395 -0.0765  0.2286 -0.8413
50013SOL    HW157089   8.314   5.510   1.333  0.1125  1.1518 -1.9859
50013SOL    HW257090   8.237   5.621   1.402 -0.0779  0.1846 -0.5923
50014SOL     OW57091   8.607   1.660  12.344  0.1359  0.4206 -0.4015
50014SOL    HW157092   8.637   1.602  12.414  0.0274  0.7470 -0.0820
50014SOL    HW257093   8.616   1.748  12.380  2.1874  0.7560 -1.5997
50015SOL     OW57094  11.576   5.714   2.069  0.5536  0.0639  0.2678
50015SOL    HW157095  11.577   5.807   2.046  2.0713 -0.2630 -1.0840
50015SOL    HW257096  11.559   5.669   1.987  0.0948 -0.8839  0.8675
50016SOL     OW57097  10.110   8.577   2.556  0.1517 -0.0544 -0.3815
50016SOL    HW157098  10.194   8.538   2.579 -0.6329 -0.6612  1.6870
50016SOL    HW257099  10.046   8.507   2.569 -0.9052  0.9607  0.2036
50017SOL     OW57100   6.299   3.827   1.851  0.2975  0.1368  0.3713
50017SOL    HW157101   6.224   3.768   1.849 -0.0927  0.5864  1.1179
50017SOL    HW257102   6.280   3.886   1.924  0.6181  1.2659 -0.4471
50018SOL     OW57103   3.224   0.902   1.947  0.4517 -0.4855 -0.0883
50018SOL    HW157104   3.140   0.933   1.912  0.8118  0.4387 -0.1726
50018SOL    HW257105   3.283   0.977   1.936  1.1430 -0.9374  0.4878
50019SOL     OW57106   1.289   4.854   0.612 -0.2232 -0.0911  0.0815
50019SOL    HW157107   1.265   4.945   0.628  1.4206  0.3077  0.4914
50019SOL    HW257108   1.325   4.824   0.695 -1.4323 -1.3796  0.1737
50020SOL     OW57109  11.137   7.178   2.213 -0.0329 -0.6109  0.2701
50020SOL    HW157110  11.229   7.201   2.202 -0.2947 -0.4073 -2.2064
50020SOL    HW257111  11.090   7.259   2.193 -0.7884 -0.4689  2.3601
50021SOL     OW57112   1.876   3.463  10.459 -0.1397  0.5191  0.2154
50021SOL    HW157113   1.846   3.436  10.546  0.0075  0.6277  0.2998
50021SOL    HW257114   1.807   3.434  10.399 -1.0924  2.0032  0.5472
50022SOL     OW57115   5.974   7.464   8.991  0.0870  0.1857 -0.4401
50022SOL    HW157116   5.951   7.490   9.081 -1.1400  0.1952 -0.7379
50022SOL    HW257117   6.036   7.392   9.002 -0.0965  0.1447  0.4139
50023SOL     OW57118   7.653   5.670   3.647 -0.7634  0.0202  0.1506
50023SOL    HW157119   7.620   5.620   3.721  0.8321 -0.2141  0.7397
50023SOL    HW257120   7.688   5.604   3.587  3.4353  0.2944  1.9255
50024SOL     OW57121   9.425   4.433  11.620  0.0691 -0.2342  0.3041
50024SOL    HW157122   9.386   4.384  11.693 -0.7486  2.1503  1.5969
50024SOL    HW257123   9.517   4.445  11.646 -0.5091  1.7219  1.6988
50025SOL     OW57124   9.253   6.795  12.246 -0.5242  0.2575  0.4470
50025SOL    HW157125   9.293   6.743  12.316  0.4570  0.2182 -0.1288
50025SOL    HW257126   9.244   6.883  12.284  0.4960  0.3689  0.4582
50026SOL     OW57127   9.717   0.414   3.245  0.5725 -0.4425  0.3388
50026SOL    HW157128   9.790   0.352   3.241  0.0487 -1.2574  2.1535
50026SOL    HW257129   9.641   0.360   3.268 -0.3904  0.5480 -0.4086
50027SOL     OW57130   5.114   6.722  11.921  0.3897  0.2670 -0.6687
50027SOL    HW157131   5.172   6.798  11.929  0.2953  0.2698  0.1288
50027SOL    HW257132   5.171   6.652  11.888  0.6727  0.4721 -0.6255
50028SOL     OW57133   6.408   1.846   5.254  0.1313  0.3699  0.1633
50028SOL    HW157134   6.456   1.927   5.236  2.0062 -0.0522  2.7371
50028SOL    HW257135   6.416   1.833   5.348 -1.7233 -1.8733  0.1069
50029SOL     OW57136   3.116  11.193   6.831  0.0220  0.0085 -0.2913
50029SOL    HW157137   3.083  11.259   6.770 -0.6033  0.2657  0.3154
50029SOL    HW257138   3.161  11.130   6.775 -0.0451  0.5392 -0.9610
50030SOL     OW57139   5.621   6.151   7.611 -0.5981 -0.2886  0.9990
50030SOL    HW157140   5.658   6.234   7.580  0.5151 -0.2329  2.3879
50030SOL    HW257141   5.565   6.176   7.684 -1.0867 -0.6668  0.7565
50031SOL     OW57142  10.940   2.004   8.313 -0.5308  0.5604 -0.4275
50031SOL    HW157143  10.931   1.936   8.246 -0.4018  0.0762  0.0302
50031SOL    HW257144  11.001   2.067   8.276 -1.6754  1.1218 -1.3998
50032SOL     OW57145   3.554   4.964   3.296 -0.1143 -0.2530  0.2593
50032SOL    HW157146   3.612   5.037   3.319 -0.6999 -0.1307  1.4164
50032SOL    HW257147   3.488   5.004   3.239 -0.8160  0.2964  1.4202
50033SOL     OW57148   1.199   5.683  12.357  0.3768 -0.3601 -0.5265
50033SOL    HW157149   1.281   5.694  12.309  0.3317  1.8042 -0.1957
50033SOL    HW257150   1.227   5.672  12.448  0.3800 -2.5424 -0.7475
50034SOL     OW57151  12.463   9.245   1.073 -0.4512  0.2036 -0.2132
50034SOL    HW157152  12.475   9.297   1.152 -0.3495 -0.1384 -0.0005
50034SOL    HW257153  12.368   9.241   1.061 -0.5829 -1.5184  1.0997
50035SOL     OW57154   5.303   1.532  12.581  0.3978 -0.3346 -0.3618
50035SOL    HW157155   5.213   1.502  12.598 -0.5128  2.7634  1.0441
50035SOL    HW257156   5.344   1.534  12.668  0.1295  2.9654 -0.2138
50036SOL     OW57157   8.496   8.064   7.478  0.2281  0.1092  0.5730
50036SOL    HW157158   8.530   8.060   7.389 -1.7273  0.1079 -0.1984
50036SOL    HW257159   8.465   8.153   7.488 -1.7273 -0.5202  0.4017
50037SOL     OW57160   8.678   0.935   7.175 -0.1586 -0.3295 -0.2257
50037SOL    HW157161   8.628   0.861   7.141 -2.4210  1.5324 -1.2048
50037SOL    HW257162   8.635   1.012   7.138  1.6114  1.5255  1.3573
50038SOL     OW57163   5.750   6.335  11.683 -0.0440 -0.5824  0.1949
50038SOL    HW157164   5.825   6.395  11.677 -1.5735  1.3036 -1.6625
50038SOL    HW257165   5.788   6.249  11.694  2.3151  0.6879  3.9724
50039SOL     OW57166   0.860   2.181   7.224  0.3339 -0.8451 -0.0296
50039SOL    HW157167   0.774   2.198   7.261 -0.1465 -0.7018 -1.1795
50039SOL    HW257168   0.896   2.268   7.205  0.6477 -0.9112  0.2510
50040SOL     OW57169   2.223   4.786   2.255  0.1216  0.3766  0.0740
50040SOL    HW157170   2.282   4.717   2.226  0.4399  0.6779 -0.0007
50040SOL    HW257171   2.177   4.813   2.175 -0.6749 -0.3825  0.2669
50041SOL     OW57172   0.683   4.978   0.598  0.1563 -0.3997  0.1112
50041SOL    HW157173   0.625   4.978   0.673 -0.0757  0.9314 -0.0415
50041SOL    HW257174   0.659   5.056   0.549 -0.2306 -1.6193 -1.7714
50042SOL     OW57175   0.494   9.313  10.919  0.0076  0.5864 -0.1885
50042SOL    HW157176   0.490   9.301  11.013 -1.0032 -0.9361 -0.3873
50042SOL    HW257177   0.456   9.233  10.883 -0.3126  1.4416 -1.8712
50043SOL     OW57178  12.075   2.503   5.954 -0.0873 -0.1721  0.0737
50043SOL    HW157179  11.980   2.514   5.965 -0.0013 -0.0455  0.6877
50043SOL    HW257180  12.092   2.413   5.980  0.2794  0.4519  2.1736
50044SOL     OW57181   0.963   2.806  12.242 -0.2654 -0.1723 -0.9460
50044SOL    HW157182   0.946   2.735  12.180  0.7209  0.2123 -1.6665
50044SOL    HW257183   1.028   2.861  12.200 -1.1142  1.2642 -0.4570
50045SOL     OW57184   3.854   9.427   8.086 -0.4925  0.4348  0.8694
50045SOL    HW157185   3.788   9.477   8.038 -0.1387  0.3788  0.3230
50045SOL    HW257186   3.874   9.353   8.029 -0.0709  0.3644  1.1055
50046SOL     OW57187   8.815   1.620   1.507 -0.6058  0.1823 -0.1991
50046SOL    HW157188   8.736   1.656   1.546 -0.4815 -0.8850  1.0893
50046SOL    HW257189   8.790   1.599   1.417 -2.0131 -0.8205  0.3961
50047SOL     OW57190   9.408   9.675   7.236  0.2019  0.0980 -0.0096
50047SOL    HW157191   9.344   9.675   7.164 -0.5046 -1.7167  0.5495
50047SOL    HW257192   9.364   9.721   7.307 -0.6459 -1.3829  0.4640
50048SOL     OW57193   7.913   4.376  12.559 -0.7054  0.3326 -0.4468
50048SOL    HW157194   7.885   4.369  12.651 -1.0429  0.9259 -0.4964
50048SOL    HW257195   7.964   4.297  12.543 -1.2787 -0.1393  0.0289
50049SOL     OW57196   4.914   2.125   1.533  0.0343  0.3941 -0.1029
50049SOL    HW157197   4.947   2.041   1.502  0.2924  0.9845 -1.5038
50049SOL    HW257198   4.969   2.190   1.489 -0.4061  1.3061  0.6579
50050SOL     OW57199   3.404   2.888   3.179 -0.3907 -0.2106 -0.2094
50050SOL    HW157200   3.310   2.882   3.160 -0.5624 -2.5386  0.9464
50050SOL    HW257201   3.445   2.831   3.115  0.0843 -0.2831  0.1551
50051SOL     OW57202   9.644   8.929   9.974  0.1662 -0.0881  0.3007
50051SOL    HW157203   9.549   8.921   9.972 -0.1061  1.3188  3.1590
50051SOL    HW257204   9.674   8.857  10.028  0.6118  0.1731  0.4134
50052SOL     OW57205   2.891  11.739   9.854  0.1992 -0.1499  0.1367
50052SOL    HW157206   2.912  11.743   9.947 -0.7070 -2.5444  0.5263
50052SOL    HW257207   2.812  11.793   9.844  0.7354  0.7273  0.5928
50053SOL     OW57208   4.028   9.117   5.492  0.4753  0.1720  0.0265
50053SOL    HW157209   4.074   9.201   5.500  0.2504  0.0994  3.2443
50053SOL    HW257210   4.089   9.053   5.528 -0.4487 -0.6126  0.2219
50054SOL     OW57211   3.298   6.230   6.004  0.0714 -0.1752  0.0541
50054SOL    HW157212   3.273   6.153   6.055 -1.4815  0.1186 -0.2215
50054SOL    HW257213   3.241   6.300   6.036 -1.6040 -0.1830 -2.6216
50055SOL     OW57214   7.492   7.048   8.540 -0.1501  0.0970 -0.4836
50055SOL    HW157215   7.564   6.985   8.531 -0.8579 -0.7328 -0.4599
50055SOL    HW257216   7.437   7.012   8.610  0.0140  1.3281  0.3043
50056SOL     OW57217   2.288   3.528  10.091 -0.5273  0.2592  0.0123
50056SOL    HW157218   2.321   3.438  10.091 -0.2530  0.3300 -2.0308
50056SOL    HW257219   2.230   3.532  10.168 -1.7507 -2.1067 -0.7013
50057SOL     OW57220   6.044   1.485  11.393  0.2059  0.3389 -0.1698
50057SOL    HW157221   6.104   1.550  11.355  1.0435 -1.1746 -1.5380
50057SOL    HW257222   6.078   1.470  11.481  0.4355  1.2112 -0.0995
50058SOL     OW57223   4.288   5.721   3.305  0.2644  0.0204 -0.1026
50058SOL    HW157224   4.280   5.763   3.391  0.7095 -1.2048  0.5595
50058SOL    HW257225   4.356   5.772   3.261  0.5709  0.2099  0.5598
50059SOL     OW57226   6.049  10.555   7.739 -0.0429 -0.5962  0.8402
50059SOL    HW157227   6.141  10.580   7.730 -0.9208  2.0791 -3.3172
50059SOL    HW257228   6.015  10.614   7.806  0.7399  0.2481  0.5225
50060SOL     OW57229   2.580   7.885   9.702 -0.0955  0.2726  0.2687
50060SOL    HW157230   2.635   7.960   9.725 -0.3829  0.5618  0.0191
50060SOL    HW257231   2.639   7.810   9.706  0.0713  0.4355  1.0583
50061SOL     OW57232  12.080   4.753   2.327 -0.8817 -0.0477 -0.1513
50061SOL    HW157233  12.105   4.664   2.351  0.2340  0.5157  0.8809
50061SOL    HW257234  12.071   4.751   2.232  0.4304 -0.9642 -0.2762
50062SOL     OW57235   8.608  10.070   5.144 -0.2608 -0.2227 -0.1695
50062SOL    HW157236   8.595  10.154   5.100  0.8620 -0.6149 -1.2747
50062SOL    HW257237   8.673  10.088   5.212 -2.0823  0.4103  1.5168
50063SOL     OW57238   7.797  11.064   2.227 -0.0333  0.0113 -0.1865
50063SOL    HW157239   7.770  11.046   2.137 -1.6904  0.2154  0.2326
50063SOL    HW257240   7.830  10.980   2.260 -0.1349 -0.2565 -0.7602
50064SOL     OW57241   9.089  10.557   9.764 -0.3019 -0.3742 -0.0884
50064SOL    HW157242   9.042  10.635   9.795 -1.2195 -1.2379  0.7387
50064SOL    HW257243   9.181  10.577   9.781 -0.7156 -0.6425  2.9309
50065SOL     OW57244  11.313   2.468  10.982  0.0799  0.1462 -0.0007
50065SOL    HW157245  11.365   2.535  10.937  0.1466  0.3242  0.3338
50065SOL    HW257246  11.370   2.438  11.053 -1.0963  1.9847  1.8156
50066SOL     OW57247   6.237  11.930   5.150 -0.0214 -0.4573  0.8259
50066SOL    HW157248   6.317  11.947   5.100 -1.9877 -0.4831 -2.6877
50066SOL    HW257249   6.222  12.009   5.201  1.4504  0.1451  0.3614
50067SOL     OW57250   5.983   2.948   1.707  0.3819  0.4840  0.0067
50067SOL    HW157251   5.917   2.902   1.656  0.5081  1.5988 -1.2460
50067SOL    HW257252   6.009   2.887   1.776 -0.9976 -0.4529 -0.2739
50068SOL     OW57253   1.779   4.150   6.400 -0.0187  0.2013  0.4765
50068SOL    HW157254   1.693   4.167   6.362 -0.1120  0.7863  0.9344
50068SOL    HW257255   1.763   4.080   6.464  0.2084 -1.0566 -0.7948
50069SOL     OW57256   3.660   7.398   6.965 -0.0471  0.5004  0.7347
50069SOL    HW157257   3.622   7.361   7.044 -1.5008  1.8191  0.6979
50069SOL    HW257258   3.593   7.384   6.897  0.7420  0.3109 -0.0259
50070SOL     OW57259   2.922   1.849   0.348  0.1997 -0.1333  0.2117
50070SOL    HW157260   2.927   1.842   0.253  0.3233  2.2502 -0.0225
50070SOL    HW257261   3.013   1.847   0.378  0.1181 -2.1125  0.4462
50071SOL     OW57262  12.569   9.180   5.908 -0.2422 -0.1492 -0.0440
50071SOL    HW157263  12.602   9.257   5.955 -0.4243 -0.4831  0.6345
50071SOL    HW257264  12.644   9.150   5.856  0.4020 -0.6522  1.1534
50072SOL     OW57265   4.485  12.131   1.937  0.0690 -0.3240 -0.0321
50072SOL    HW157266   4.530  12.055   1.974  4.7298  2.3591  0.5992
50072SOL    HW257267   4.484  12.115   1.842  0.8798 -1.2000  0.0943
50073SOL     OW57268   2.872   0.847   6.897  0.0344  0.3144 -0.5015
50073SOL    HW157269   2.918   0.847   6.980 -2.4017  2.2537  0.9967
50073SOL    HW257270   2.803   0.781   6.907  1.7720 -1.9747 -2.4046
50074SOL     OW57271   2.520   3.380   3.005  0.6424 -0.3400  0.3391
50074SOL    HW157272   2.426   3.373   2.986  0.5854  0.0938  0.4376
50074SOL    HW257273   2.563   3.361   2.921  0.3923  1.5027 -0.2610
50075SOL     OW57274   1.458  11.820   9.870  0.4141  0.3532  0.0528
50075SOL    HW157275   1.469  11.900   9.921  2.8377  1.4050 -1.9377
50075SOL    HW257276   1.370  11.790   9.892 -0.4197  3.3036  1.2274
50076SOL     OW57277   6.861   6.612   3.453  0.0161 -0.6015  0.1747
50076SOL    HW157278   6.846   6.578   3.365  0.7336 -0.1617 -0.1239
50076SOL    HW257279   6.950   6.583   3.475  0.1184 -0.0826  0.4568
50077SOL     OW57280   7.839   2.616   5.967  0.1805  0.1631 -0.0771
50077SOL    HW157281   7.814   2.550   5.903  0.7312 -1.6036  1.4224
50077SOL    HW257282   7.758   2.639   6.011 -0.2237  1.4959 -1.4565
50078SOL     OW57283   6.102   3.781  10.811 -0.3630  0.1047  0.1613
50078SOL    HW157284   6.021   3.777  10.761 -1.1548 -0.0559  1.4082
50078SOL    HW257285   6.110   3.873  10.837 -0.2785  0.0768  0.2352
50079SOL     OW57286   1.795   8.458  10.811 -0.5125  0.0788 -0.7318
50079SOL    HW157287   1.743   8.460  10.891  1.0380  0.2515  0.3144
50079SOL    HW257288   1.731   8.445  10.741 -1.9634  0.5055  0.4701
50080SOL     OW57289   8.065   8.732   7.214 -0.3029  0.0074  0.1121
50080SOL    HW157290   8.097   8.740   7.125  0.9975  0.7157  0.6125
50080SOL    HW257291   7.994   8.669   7.209 -1.4841  1.3772 -1.7360
50081SOL     OW57292   1.099  10.816  11.628 -1.0649 -0.1212  0.5057
50081SOL    HW157293   1.134  10.733  11.593 -0.6012  0.0350  0.5977
50081SOL    HW257294   1.176  10.864  11.657 -1.3804  0.1294  0.9270
50082SOL     OW57295   5.429   2.394   9.668 -0.3303 -0.3614  0.4488
50082SOL    HW157296   5.516   2.434   9.663 -0.6395  0.2797  0.1755
50082SOL    HW257297   5.444   2.310   9.711  0.5318 -0.5567 -0.2076
50083SOL     OW57298   6.663   6.096  11.369 -0.1203  0.1982  0.1251
50083SOL    HW157299   6.726   6.143  11.424  2.2768 -0.7730 -1.6108
50083SOL    HW257300   6.648   6.154  11.295 -0.7068  0.1226  0.1851
50084SOL     OW57301  11.262   6.045   9.030 -0.3430  0.0767 -0.1767
50084SOL    HW157302  11.255   6.031   9.124 -2.1156 -2.5302 -0.6009
50084SOL    HW257303  11.185   6.001   8.993  0.0360  1.4300 -2.8287
50085SOL     OW57304   2.556  11.638   8.028 -0.4893 -0.1892  0.3360
50085SOL    HW157305   2.532  11.684   8.108  0.1503  0.0583  0.3883
50085SOL    HW257306   2.473  11.604   7.994 -0.8557  0.3120  0.7234
50086SOL     OW57307   4.680  12.025  12.305  0.4014 -0.5255  0.4679
50086SOL    HW157308   4.616  11.961  12.274  0.2391  0.6658 -1.9795
50086SOL    HW257309   4.732  11.979  12.370 -1.2463 -2.3491  0.5713
50087SOL     OW57310   9.588   6.470  10.893  0.0894 -0.2846  0.0366
50087SOL    HW157311   9.582   6.375  10.896  0.6491 -0.3259 -0.0159
50087SOL    HW257312   9.652   6.492  10.962 -1.1257  0.1656  1.0583
50088SOL     OW57313   8.206   6.605  10.253 -0.1887 -0.6657 -0.7906
50088SOL    HW157314   8.213   6.658  10.333  0.6107 -0.0376 -1.2610
50088SOL    HW257315   8.293   6.612  10.212 -1.3194  1.2140 -3.0864
50089SOL     OW57316   9.477   6.670   1.297  0.0105 -0.3676  0.0383
50089SOL    HW157317   9.509   6.637   1.381 -1.5348  0.9918  1.2105
50089SOL    HW257318   9.541   6.639   1.234  0.6597 -2.3568  1.5490
50090SOL     OW57319  10.842  10.624  10.893  0.3856 -0.1834  0.0038
50090SOL    HW157320  10.754  10.660  10.887  1.4515  2.6796 -0.1971
50090SOL    HW257321  10.884  10.677  10.961  2.2256 -0.8836 -0.5330
50091SOL     OW57322   1.454   9.350   7.411  0.1458  0.0294  0.2858
50091SOL    HW157323   1.363   9.331   7.433  0.4121 -0.3332  1.1031
50091SOL    HW257324   1.505   9.283   7.456  0.7216 -0.8986 -1.6455
50092SOL     OW57325  12.361   8.218  12.262 -1.2360 -0.7240 -0.4602
50092SOL    HW157326  12.300   8.213  12.335 -0.4810  0.0605  0.2490
50092SOL    HW257327  12.355   8.309  12.232  0.0284 -0.4471  0.0418
50093SOL     OW57328  11.250  12.254   5.539  0.3080 -0.3712 -0.6307
50093SOL    HW157329  11.227  12.163   5.555 -0.2159 -0.5483 -2.1706
50093SOL    HW257330  11.166  12.296   5.518  0.5538  0.4452 -0.0235
50094SOL     OW57331   5.424   3.313   5.258  0.7419 -0.0484  0.5461
50094SOL    HW157332   5.414   3.347   5.347 -0.2797 -2.0232  1.2559
50094SOL    HW257333   5.335   3.306   5.225  1.0752  0.0613 -0.4056
50095SOL     OW57334  11.216   1.805  11.844  0.4293  0.0902  0.3214
50095SOL    HW157335  11.146   1.754  11.884  0.4215  0.2953  0.5689
50095SOL    HW257336  11.269   1.740  11.798 -1.2573  0.1802 -1.9387
50096SOL     OW57337   0.352  10.810   9.282  0.3587  0.7301  0.0346
50096SOL    HW157338   0.281  10.802   9.218  1.6607  2.7928 -1.8201
50096SOL    HW257339   0.312  10.784   9.365 -2.1731  0.4967 -1.1524
50097SOL     OW57340   0.871   3.210   6.532 -0.6834  0.2708 -0.2434
50097SOL    HW157341   0.962   3.184   6.536 -0.3617  1.2488 -0.7078
50097SOL    HW257342   0.825   3.151   6.592  0.6093  1.2710  1.8211
50098SOL     OW57343  11.527   4.409   7.388 -0.2314  0.0255  0.9633
50098SOL    HW157344  11.505   4.381   7.477 -3.2500  0.3980  0.4416
50098SOL    HW257345  11.496   4.499   7.383 -0.5983 -0.1586 -0.5896
50099SOL     OW57346   8.734  10.213  12.272  0.1480 -0.3455 -0.1075
50099SOL    HW157347   8.729  10.258  12.356  0.7218  1.7312 -1.1220
50099SOL    HW257348   8.822  10.233  12.239 -0.1660 -0.8872 -1.3325
50100SOL     OW57349   5.348   2.237   3.354 -0.2003 -0.1055  0.4096
50100SOL    HW157350   5.263   2.204   3.382 -0.7110  0.5147 -0.3585
50100SOL    HW257351   5.328   2.316   3.304  0.8614  0.3110  0.6074
50101SOL     OW57352  10.366   5.207  10.066 -0.0135 -0.0234  0.0458
50101SOL    HW157353  10.389   5.248  10.150  0.1918 -1.9477  0.9885
50101SOL    HW257354  10.414   5.124  10.066 -0.5238 -0.3628 -1.7067
50102SOL     OW57355   0.747   7.664   8.662  0.3384  0.7810  0.0378
50102SOL    HW157356   0.837   7.653   8.694  0.3668  0.8748 -0.0093
50102SOL    HW257357   0.750   7.635   8.571  0.1040 -0.1581  0.3114
50103SOL     OW57358   0.220   3.689  12.281  0.3523  0.0193 -0.0500
50103SOL    HW157359   0.268   3.723  12.205  0.6044 -1.3158 -0.5348
50103SOL    HW257360   0.240   3.595  12.281  1.0979  0.1214  2.2303
50104SOL     OW57361  10.888   9.377   4.755 -0.0107  0.1661 -0.0501
50104SOL    HW157362  10.802   9.342   4.778 -1.5119  2.9036 -1.0643
50104SOL    HW257363  10.899   9.356   4.662 -0.4589  1.3578 -0.3958
50105SOL     OW57364  12.390   2.576   4.156 -0.7197 -0.3230  0.5604
50105SOL    HW157365  12.355   2.664   4.167  0.9333  0.5666 -0.7477
50105SOL    HW257366  12.477   2.580   4.194 -1.0192 -1.7348  1.4518
50106SOL     OW57367   3.923   4.312   4.712  0.2819  0.0083 -0.1698
50106SOL    HW157368   3.895   4.221   4.716  2.2248 -0.6090  1.4998
50106SOL    HW257369   3.953   4.325   4.622 -0.7926 -0.7295 -0.6494
50107SOL     OW57370   8.757  12.226  11.149 -0.0272  0.1270  0.0512
50107SOL    HW157371   8.664  12.248  11.145 -0.1990 -0.6777 -0.5974
50107SOL    HW257372   8.788  12.269  11.229 -1.1738 -0.3815  0.8040
50108SOL     OW57373  11.010   6.927   4.482 -0.9772 -0.1627  0.2384
50108SOL    HW157374  10.992   6.908   4.390 -0.6591  2.3924 -0.4228
50108SOL    HW257375  10.949   6.871   4.530 -0.8576 -1.8732 -1.4762
50109SOL     OW57376  10.123   4.758   1.463 -0.1705 -0.0200  0.6304
50109SOL    HW157377  10.102   4.772   1.370 -2.1934 -1.0728  0.8727
50109SOL    HW257378  10.141   4.664   1.468  1.2931  0.2547  1.1109
50110SOL     OW57379   8.502   5.918   5.212 -0.1442  0.3051 -0.0952
50110SOL    HW157380   8.430   5.859   5.191 -1.7205  2.8534 -2.6313
50110SOL    HW257381   8.463   5.981   5.274  0.9626 -0.1664  1.1350
50111SOL     OW57382  10.133   5.208  11.367 -0.4914  0.2889  0.2555
50111SOL    HW157383  10.201   5.140  11.368  0.1913  0.9152 -1.0481
50111SOL    HW257384  10.138   5.248  11.454  0.7462  0.2376  0.2343
50112SOL     OW57385   7.885   5.890   2.720 -0.1872  0.5400  0.0994
50112SOL    HW157386   7.926   5.805   2.703  1.4894  1.0533  1.2214
50112SOL    HW257387   7.795   5.880   2.691  0.2365 -1.2908 -0.7363
50113SOL     OW57388   4.687   2.053   5.062  0.3137 -0.6391 -0.0546
50113SOL    HW157389   4.614   2.113   5.047  1.6670  0.2992 -4.2560
50113SOL    HW257390   4.651   1.966   5.041  0.0073 -0.3518 -0.7565
50114SOL     OW57391   4.695  10.287   3.237  0.1049 -0.1661  0.2933
50114SOL    HW157392   4.785  10.287   3.271 -0.5486  1.0218  2.1380
50114SOL    HW257393   4.664  10.376   3.252 -0.5921  0.1902 -2.6190
50115SOL     OW57394  10.222   2.281   7.948  0.2045 -0.2575 -0.4554
50115SOL    HW157395  10.210   2.206   8.007  1.2052  0.8353  1.2069
50115SOL    HW257396  10.134   2.312   7.930 -0.1001 -0.2215  1.0151
50116SOL     OW57397   4.352  10.431  11.101 -0.0219 -0.1406  0.0116
50116SOL    HW157398   4.314  10.519  11.103 -0.5396 -0.3758  1.3061
50116SOL    HW257399   4.322  10.389  11.182  0.8044 -1.2683 -0.2313
50117SOL     OW57400   3.958   9.558   6.808  0.0692 -0.4546 -0.2476
50117SOL    HW157401   3.926   9.626   6.867  0.1479 -0.4885 -0.1648
50117SOL    HW257402   3.881   9.504   6.789  0.2387 -0.9891  0.5657
50118SOL     OW57403   3.743  11.296   8.925 -0.3293 -0.2394 -0.6951
50118SOL    HW157404   3.812  11.290   8.991  0.3865  1.3299 -1.2510
50118SOL    HW257405   3.789  11.297   8.841 -1.0584  0.2414 -1.0998
50119SOL     OW57406   1.282   4.475   7.355 -0.1590 -0.2197 -0.4652
50119SOL    HW157407   1.334   4.532   7.412  0.0545 -0.4737 -0.4050
50119SOL    HW257408   1.345   4.412   7.320 -0.0167  0.8031 -2.1285
50120SOL     OW57409  12.164   0.742  10.131  0.5738 -0.4421 -0.0386
50120SOL    HW157410  12.256   0.755  10.154  0.3764 -1.3728  1.4149
50120SOL    HW257411  12.119   0.736  10.216 -0.8225 -0.0590 -0.7175
50121SOL     OW57412   8.791  11.287   8.401 -0.0899 -0.4820 -0.5699
50121SOL    HW157413   8.801  11.215   8.338  0.8423 -1.8035  1.0097
50121SOL    HW257414   8.853  11.266   8.471 -0.3856  1.4613  0.3252
50122SOL     OW57415   9.680   0.471  11.156 -0.2236  0.0967 -0.6350
50122SOL    HW157416   9.629   0.428  11.087 -0.3476  0.5470 -0.8307
50122SOL    HW257417   9.649   0.561  11.156  0.9543  0.5309 -1.1391
50123SOL     OW57418  11.679   4.078  12.254 -0.4110 -0.4787 -0.1441
50123SOL    HW157419  11.683   4.035  12.339 -2.1362  0.1155  0.2751
50123SOL    HW257420  11.745   4.147  12.259 -2.1605  1.2063  1.7394
50124SOL     OW57421   6.449   9.519   6.048 -0.0899 -0.0982 -0.3526
50124SOL    HW157422   6.390   9.556   6.113 -0.8407 -0.4731 -0.8019
50124SOL    HW257423   6.536   9.539   6.080 -0.4619  0.5588  0.2754
50125SOL     OW57424   3.942   4.991   0.459 -0.5544  0.6210 -0.0956
50125SOL    HW157425   4.023   4.939   0.453  0.1541  1.5906  0.6679
50125SOL    HW257426   3.959   5.052   0.531 -2.6511 -0.2856  1.2472
50126SOL     OW57427  11.561   3.878   5.059 -0.1904  0.0286 -0.4653
50126SOL    HW157428  11.637   3.875   5.000 -1.4411  1.2459 -2.2023
50126SOL    HW257429  11.517   3.794   5.044  0.0685 -0.1147 -0.4455
50127SOL     OW57430   3.495   3.274  11.290 -0.6989 -0.2597 -0.2033
50127SOL    HW157431   3.461   3.258  11.378 -0.7847 -0.6381 -0.3025
50127SOL    HW257432   3.590   3.262  11.299 -0.7121 -0.3394 -0.1729
50128SOL     OW57433  12.217   1.947  10.238 -0.3438  0.8856 -0.3913
50128SOL    HW157434  12.175   1.993  10.312  2.0553  1.6111  0.6395
50128SOL    HW257435  12.148   1.939  10.173 -1.3613  4.7081 -0.0455
50129SOL     OW57436  10.090  11.094   1.875 -0.0809  0.3534 -0.4204
50129SOL    HW157437  10.105  11.106   1.781  1.5687 -0.6383 -0.3286
50129SOL    HW257438  10.177  11.097   1.914 -0.8792  2.6672  1.3705
50130SOL     OW57439  12.321   1.605   2.474  0.3353 -0.3047  0.4004
50130SOL    HW157440  12.233   1.635   2.451  0.1647 -1.1258 -0.0494
50130SOL    HW257441  12.322   1.605   2.570 -0.3828 -0.8954  0.4246
50131SOL     OW57442  10.818   8.316   5.878 -0.4034 -0.0975 -0.0836
50131SOL    HW157443  10.770   8.233   5.879  2.6005 -1.9835  0.9247
50131SOL    HW257444  10.904   8.293   5.844 -0.2561  3.2249 -2.4145
50132SOL     OW57445   8.872  10.928   0.029 -0.5477  0.3784  0.1917
50132SOL    HW157446   8.812  10.993  -0.007  2.1828  0.7967 -4.2641
50132SOL    HW257447   8.943  10.979   0.068 -0.1612  0.0245 -0.0407
50133SOL     OW57448   5.225   9.345   2.052  0.1367  0.0482 -0.4192
50133SOL    HW157449   5.281   9.419   2.029  2.1583 -0.2503  2.9085
50133SOL    HW257450   5.278   9.268   2.031 -0.7085 -0.4106 -0.9506
50134SOL     OW57451  10.114  11.381  11.634 -0.4057  0.0603 -0.3032
50134SOL    HW157452  10.109  11.446  11.565  0.4800  1.1760  0.6491
50134SOL    HW257453  10.207  11.357  11.638 -0.7225 -1.3575 -0.6982
50135SOL     OW57454   8.558   6.856   4.908  0.8357  0.8853  0.2031
50135SOL    HW157455   8.463   6.845   4.901  1.0952 -1.2045 -1.2312
50135SOL    HW257456   8.571   6.949   4.926 -1.4828  1.1291  0.8720
50136SOL     OW57457   1.792   5.355   6.947 -0.2178 -0.0165 -0.2298
50136SOL    HW157458   1.888   5.352   6.949 -0.2433 -1.2032  0.0945
50136SOL    HW257459   1.765   5.263   6.952 -1.3834  0.3314  0.2992
50137SOL     OW57460  10.124   3.879   5.987 -0.2922  0.3656 -0.3692
50137SOL    HW157461  10.156   3.796   6.021 -1.0362  0.3217  0.2576
50137SOL    HW257462  10.171   3.892   5.905  0.6986 -0.0920  0.1143
50138SOL     OW57463  11.810   0.081  11.526  0.3412  0.2050 -0.1595
50138SOL    HW157464  11.845   0.168  11.546 -1.1627  1.0524 -1.0374
50138SOL    HW257465  11.854   0.054  11.446  1.7562 -0.4461  0.7948
50139SOL     OW57466  10.374   9.515  12.472 -0.5032 -0.0040 -0.6643
50139SOL    HW157467  10.307   9.583  12.465 -1.4759 -1.0846 -2.3691
50139SOL    HW257468  10.393   9.490  12.382 -1.1158 -2.8633 -0.0893
50140SOL     OW57469   4.746   3.704   8.222 -0.2994 -1.1492 -0.1427
50140SOL    HW157470   4.748   3.609   8.234  1.1768 -0.9774  1.1862
50140SOL    HW257471   4.835   3.733   8.240 -1.2192  0.7403  1.8627
50141SOL     OW57472   2.045   2.710   8.948 -0.4681  0.0003  0.8432
50141SOL    HW157473   2.136   2.710   8.977 -0.2098 -0.8586  0.0529
50141SOL    HW257474   2.044   2.655   8.870 -1.7792 -0.5509  1.2177
50142SOL     OW57475   1.798   8.328   6.365  0.4216  0.2742 -0.1601
50142SOL    HW157476   1.792   8.376   6.282 -0.6094 -1.7215 -1.3252
50142SOL    HW257477   1.714   8.283   6.372  0.5665  0.2609  1.9120
50143SOL     OW57478   0.509   6.458   4.839 -0.6287 -0.1420 -0.0507
50143SOL    HW157479   0.538   6.518   4.908 -0.6763 -0.6882  0.4450
50143SOL    HW257480   0.524   6.371   4.874 -1.3521 -0.4314 -0.4380
50144SOL     OW57481   9.543   9.195  10.068 -0.0412 -0.2860  0.1342
50144SOL    HW157482   9.613   9.238  10.018  0.2796 -1.4197 -0.4299
50144SOL    HW257483   9.585   9.118  10.107  0.1105  1.3297  3.4482
50145SOL     OW57484   5.473   2.088   8.018  0.1217  0.0502  0.1392
50145SOL    HW157485   5.542   2.038   8.062 -0.3819  0.5404  1.5362
50145SOL    HW257486   5.408   2.022   7.992  0.3800 -0.2330  0.2117
50146SOL     OW57487  11.280   7.480   5.591 -0.4865 -0.0569 -0.0187
50146SOL    HW157488  11.294   7.573   5.609 -1.7228 -0.1721  1.7631
50146SOL    HW257489  11.368   7.446   5.577  0.4980  0.6460  3.4186
50147SOL     OW57490   6.088   4.569   3.359  0.3150 -0.6791  0.2996
50147SOL    HW157491   6.049   4.540   3.276  0.4381 -1.4169  0.4931
50147SOL    HW257492   6.013   4.580   3.418  0.0140  1.6895 -0.4117
50148SOL     OW57493   6.975  12.592   2.550 -0.1468 -0.2684  0.1874
50148SOL    HW157494   6.926  12.655   2.603 -0.7546  1.0833 -1.8468
50148SOL    HW257495   6.938  12.507   2.572  0.2165  0.0876  2.5010
50149SOL     OW57496   7.948  12.188   7.273  0.0300 -0.0591  0.6172
50149SOL    HW157497   8.041  12.168   7.280  0.2467  1.1321  1.2689
50149SOL    HW257498   7.928  12.239   7.351 -1.5032 -1.4900  1.2155
50150SOL     OW57499   5.085  11.362  10.251  0.2662  0.0472 -0.4517
50150SOL    HW157500   5.068  11.300  10.179 -2.0052  0.4607 -0.3172
50150SOL    HW257501   5.086  11.448  10.209 -1.4794  0.3271  0.0394
50151SOL     OW57502  12.236   4.637  12.179 -0.2975  0.3642  0.4449
50151SOL    HW157503  12.204   4.550  12.155  0.0835  0.8885 -2.3220
50151SOL    HW257504  12.299   4.621  12.249 -0.7852 -1.5014  0.5083
50152SOL     OW57505   8.236   3.700   7.922 -0.0084  0.3060 -0.1891
50152SOL    HW157506   8.266   3.724   8.010 -0.7114  1.5048 -0.2593
50152SOL    HW257507   8.312   3.657   7.882  0.1244 -0.8196  1.2026
50153SOL     OW57508   3.536  11.872   1.671  0.5814  0.1734  0.2722
50153SOL    HW157509   3.529  11.908   1.583  2.6154 -0.3486 -0.1504
50153SOL    HW257510   3.572  11.944   1.723  0.8651 -0.0098  0.3279
50154SOL     OW57511   0.985   0.899  10.083 -0.0232  0.3992  0.0936
50154SOL    HW157512   1.004   0.991  10.103  0.7326  0.3497 -0.3705
50154SOL    HW257513   0.930   0.870  10.156  1.5169  0.6114  1.4091
50155SOL     OW57514  11.351   1.344  11.659 -0.1224 -0.8093 -0.1449
50155SOL    HW157515  11.316   1.307  11.740  2.1343 -0.0303  1.2669
50155SOL    HW257516  11.311   1.291  11.590 -1.4643 -2.0612  1.4963
50156SOL     OW57517   4.911   6.287   8.008 -0.2734 -0.0160  0.3319
50156SOL    HW157518   5.006   6.300   8.008 -0.4777  1.7620  0.9625
50156SOL    HW257519   4.877   6.355   7.949 -1.2333  0.2466  1.1482
50157SOL     OW57520   9.499  10.186   5.432  0.3886  0.2873  0.1301
50157SOL    HW157521   9.494  10.092   5.450  0.8001 -0.3561 -2.6607
50157SOL    HW257522   9.421  10.222   5.475  1.1652 -0.9748  2.7942
50158SOL     OW57523   7.768   0.491   0.048 -0.1480  0.3402  0.3786
50158SOL    HW157524   7.839   0.534   0.096 -0.5459  0.8707  0.4946
50158SOL    HW257525   7.688   0.530   0.083 -0.4681  0.2995 -0.2876
50159SOL     OW57526   7.534   8.651   2.500  0.3338 -0.1091 -0.4369
50159SOL    HW157527   7.478   8.688   2.567 -0.3321  1.3906 -1.7505
50159SOL    HW257528   7.557   8.564   2.532  0.9121  0.9361  2.1875
50160SOL     OW57529  10.233   3.625   8.471  0.4774 -0.0873 -0.3938
50160SOL    HW157530  10.249   3.696   8.533  0.9505 -0.6754  0.1559
50160SOL    HW257531  10.305   3.564   8.484 -0.2622 -0.9794 -0.4270
50161SOL     OW57532   1.077  11.834   6.433 -0.2740 -0.0393 -0.0763
50161SOL    HW157533   1.077  11.754   6.381  2.5788 -1.8587  2.3412
50161SOL    HW257534   1.135  11.894   6.386  0.4849 -0.8126 -0.1566
50162SOL     OW57535  11.693   1.686   1.707 -0.3503 -0.1341  0.0629
50162SOL    HW157536  11.642   1.634   1.770 -0.3550  2.1239  2.0516
50162SOL    HW257537  11.629   1.711   1.640 -0.9524 -0.4806  0.4961
50163SOL     OW57538   3.576   3.547   2.689  0.3463 -0.1078 -0.2276
50163SOL    HW157539   3.616   3.632   2.670 -0.1160 -0.2758 -2.1493
50163SOL    HW257540   3.498   3.568   2.742  1.6306  0.3972  1.5736
50164SOL     OW57541   5.044  12.018   3.615  0.2527 -0.1351 -0.1415
50164SOL    HW157542   4.999  11.934   3.628 -1.5673  0.9471  1.0403
50164SOL    HW257543   5.121  12.012   3.672  1.3779 -1.7920 -1.7306
50165SOL     OW57544   0.804   4.677   1.788 -0.4980  0.0380  0.6361
50165SOL    HW157545   0.898   4.676   1.808 -0.4547  0.8525  0.4781
50165SOL    HW257546   0.782   4.584   1.775  0.0378 -0.2659  1.7819
50166SOL     OW57547   7.606   5.917   9.585  0.1302  0.0041 -0.1233
50166SOL    HW157548   7.589   5.892   9.494  0.5181 -1.3576  0.1712
50166SOL    HW257549   7.694   5.953   9.584  0.2881 -0.3851 -0.2130
50167SOL     OW57550   2.392   4.581  11.032 -0.1323  0.2015  0.4924
50167SOL    HW157551   2.302   4.612  11.019 -0.6117 -1.5338 -0.5711
50167SOL    HW257552   2.383   4.502  11.085  0.6467 -0.5765 -0.4961
50168SOL     OW57553   4.065   5.503   8.951 -0.1016 -0.3417  0.1179
50168SOL    HW157554   3.986   5.507   9.004  1.3163  1.7006  2.2347
50168SOL    HW257555   4.121   5.440   8.995 -0.1321 -1.0350 -0.8070
50169SOL     OW57556   2.060   9.270  11.622  0.0455  0.3633  0.1447
50169SOL    HW157557   2.020   9.202  11.569  0.3488 -0.2819  0.7377
50169SOL    HW257558   1.986   9.323  11.653 -0.4378 -1.0397  1.5392
50170SOL     OW57559   1.926   0.449   5.811 -0.4957 -0.1322  0.1282
50170SOL    HW157560   1.845   0.500   5.807  0.0263  0.6796 -0.4153
50170SOL    HW257561   1.943   0.438   5.904 -0.0811  1.6055  0.2948
50171SOL     OW57562   0.333   1.735   9.963 -0.0175 -0.6229  0.6620
50171SOL    HW157563   0.360   1.825   9.982 -0.0857 -0.6716  0.9933
50171SOL    HW257564   0.416   1.688   9.949  0.0261 -0.5510  0.6755
50172SOL     OW57565   7.031   4.116   5.225 -0.2554  0.6163  0.1842
50172SOL    HW157566   6.998   4.105   5.315  1.7063  1.0894  1.0306
50172SOL    HW257567   7.014   4.032   5.183 -1.3665  0.4422  0.9404
50173SOL     OW57568   4.714   8.831   2.852 -0.7681 -0.4218 -0.1303
50173SOL    HW157569   4.680   8.921   2.854  0.0305 -0.0871 -0.8051
50173SOL    HW257570   4.693   8.800   2.764  1.8676  0.3130 -1.1061
50174SOL     OW57571   2.559   7.018   2.762 -0.1887  1.0684  0.0445
50174SOL    HW157572   2.576   6.924   2.763  0.3569  1.1404 -1.1042
50174SOL    HW257573   2.498   7.032   2.835 -0.0453 -0.1217  0.4125
50175SOL     OW57574   3.860   0.169   6.847 -0.1027 -0.7697  0.0757
50175SOL    HW157575   3.813   0.211   6.774 -1.0488  0.1452  1.1798
50175SOL    HW257576   3.935   0.225   6.862  0.6066 -1.4591 -0.7599
50176SOL     OW57577  12.312  12.279  10.211 -0.4018  0.4190 -0.0297
50176SOL    HW157578  12.355  12.196  10.233 -1.0895 -0.0619 -0.4896
50176SOL    HW257579  12.377  12.326  10.159 -0.0238  0.1560  0.1988
50177SOL     OW57580  11.772   1.553   3.890 -0.0823  0.3641 -0.4350
50177SOL    HW157581  11.704   1.486   3.876  0.0569  0.3281 -0.9746
50177SOL    HW257582  11.753   1.589   3.976 -0.0988 -0.4474 -0.0898
50178SOL     OW57583   8.333  11.602   3.982  0.5047 -0.0978 -0.3062
50178SOL    HW157584   8.300  11.676   4.033 -3.9313 -1.5554 -0.6171
50178SOL    HW257585   8.386  11.552   4.043  1.7285  2.0838  0.5300
50179SOL     OW57586  10.958   2.264  10.625 -0.8876 -0.0768  0.4146
50179SOL    HW157587  10.965   2.321  10.702  1.4240  1.0083 -0.4781
50179SOL    HW257588  10.988   2.178  10.656  1.7653  0.7523  0.4531
50180SOL     OW57589   1.015  10.394   6.193  0.3155  0.3989 -0.0523
50180SOL    HW157590   0.969  10.460   6.245  1.0965 -0.5099  1.8805
50180SOL    HW257591   0.948  10.330   6.169 -0.1324  1.0509 -0.5642
50181SOL     OW57592   8.153   5.995  12.156 -0.6791  0.5368  0.2092
50181SOL    HW157593   8.200   6.018  12.076 -0.2020 -2.0035 -0.3259
50181SOL    HW257594   8.061   5.999  12.132 -0.5212 -2.0218 -1.1092
50182SOL     OW57595   3.263   1.637   5.387  0.3549 -0.2582 -0.3674
50182SOL    HW157596   3.213   1.605   5.461  0.6620  1.2754  0.5514
50182SOL    HW257597   3.199   1.650   5.317 -0.1761 -0.3755  0.0951
50183SOL     OW57598   2.090   4.875   1.414 -0.3352 -0.3393  0.6794
50183SOL    HW157599   2.063   4.942   1.477 -1.7455  0.3420 -0.5690
50183SOL    HW257600   2.175   4.905   1.382  0.1163 -0.3846  1.7951
50184SOL     OW57601  10.385   0.202  11.261  0.0875  0.4152  0.2234
50184SOL    HW157602  10.474   0.180  11.289 -0.8279 -1.0403  2.2255
50184SOL    HW257603  10.389   0.294  11.236  2.0747  0.4541  0.5833
50185SOL     OW57604   6.239   9.100   4.661 -0.2186 -0.0170  0.5077
50185SOL    HW157605   6.203   9.152   4.733  0.0981 -1.2189  1.5572
50185SOL    HW257606   6.316   9.057   4.699  0.9372  0.6042 -1.0123
50186SOL     OW57607   9.880   2.430   5.798 -0.4621  0.3646  0.1461
50186SOL    HW157608   9.964   2.443   5.843 -0.9818  0.1629  1.2096
50186SOL    HW257609   9.840   2.517   5.797 -0.2872  0.4421 -0.2752
50187SOL     OW57610   8.041   9.171   7.208 -0.2411 -0.2252  0.6781
50187SOL    HW157611   8.001   9.256   7.229 -0.6893 -0.2549 -0.0113
50187SOL    HW257612   7.970   9.108   7.216 -0.0887 -0.4291  0.4635
50188SOL     OW57613   3.916   5.487   0.672 -0.1947  0.2326  0.8426
50188SOL    HW157614   3.876   5.414   0.624 -0.2118  1.5874 -1.3927
50188SOL    HW257615   3.875   5.485   0.758 -3.5212  0.2074 -0.5855
50189SOL     OW57616   7.691   2.050   0.535 -0.1607  0.2277  0.4990
50189SOL    HW157617   7.677   1.956   0.518 -0.7546  0.5967 -1.3077
50189SOL    HW257618   7.785   2.058   0.551 -0.2285 -0.7783  1.5369
50190SOL     OW57619   0.290  12.349   4.493 -0.2622 -0.1815 -0.3550
50190SOL    HW157620   0.360  12.284   4.498  0.2666  0.4269  0.3029
50190SOL    HW257621   0.286  12.373   4.400  0.0794 -0.5644 -0.4694
50191SOL     OW57622   9.194   0.322   6.988  0.1139 -0.0336 -0.1968
50191SOL    HW157623   9.144   0.284   7.060 -1.7454 -0.7240 -1.7868
50191SOL    HW257624   9.217   0.409   7.019  1.1865 -1.0247  2.0287
50192SOL     OW57625   6.206   6.185   3.353  0.0834 -0.1098 -0.3696
50192SOL    HW157626   6.116   6.195   3.384 -0.3799  0.2926 -1.7695
50192SOL    HW257627   6.204   6.103   3.303  0.6242 -0.3572  0.0075
50193SOL     OW57628   6.633  10.668   6.831  0.2906  0.0061  0.3998
50193SOL    HW157629   6.672  10.608   6.894 -0.8841 -0.0832  1.0735
50193SOL    HW257630   6.708  10.710   6.789  1.1904 -2.2182 -0.4221
50194SOL     OW57631  12.306   0.860   8.939 -0.1818 -0.4552  0.1723
50194SOL    HW157632  12.255   0.909   8.875 -0.0347  1.0067  1.1369
50194SOL    HW257633  12.241   0.821   8.997 -0.2829  1.2577  1.2936
50195SOL     OW57634   9.586   9.120   3.961  0.4409 -0.0458  0.0325
50195SOL    HW157635   9.529   9.044   3.961  1.4276 -0.8055 -0.0280
50195SOL    HW257636   9.667   9.090   3.919  1.2609  0.7004  1.0193
50196SOL     OW57637   7.888   6.870   6.668  0.1970 -0.2103 -0.1006
50196SOL    HW157638   7.967   6.836   6.709  0.3984 -0.9335 -1.0410
50196SOL    HW257639   7.918   6.940   6.610 -0.0315  0.4887  0.6033
50197SOL     OW57640   7.966  10.787   9.476 -0.5726 -0.6581 -0.1401
50197SOL    HW157641   8.008  10.865   9.439  1.2923 -1.1626  0.7686
50197SOL    HW257642   7.993  10.787   9.568  0.1841 -2.8089 -0.3076
50198SOL     OW57643   8.076   4.328  11.811  0.4599 -0.1214 -0.2080
50198SOL    HW157644   8.144   4.393  11.795 -0.7853  1.6931  1.4491
50198SOL    HW257645   7.995   4.378  11.814 -0.6719 -1.8920  0.2001
50199SOL     OW57646   7.927   7.777   7.767 -0.0053 -0.5429 -0.0374
50199SOL    HW157647   7.853   7.836   7.782  0.9655  0.6427  0.2979
50199SOL    HW257648   7.936   7.774   7.672  1.6161  2.1431 -0.0761
50200SOL     OW57649   2.620   4.413   4.174  0.4620 -0.2275  0.4440
50200SOL    HW157650   2.712   4.415   4.203  0.7812  0.4238 -0.5635
50200SOL    HW257651   2.571   4.448   4.248  0.8590 -1.8548  1.5177
50201SOL     OW57652   6.609   2.628   2.480  0.4381 -0.5185  0.1213
50201SOL    HW157653   6.537   2.629   2.416  0.1555 -2.9830  0.3184
50201SOL    HW257654   6.598   2.546   2.528  1.2781  0.7420  2.6647
50202SOL     OW57655   8.694   2.614   3.528  0.0922  0.3500  0.2063
50202SOL    HW157656   8.693   2.699   3.485  0.7170 -0.7189 -2.0595
50202SOL    HW257657   8.773   2.617   3.583  0.9901  0.6878 -1.0621
50203SOL     OW57658  10.457   6.725  12.266  1.0239 -0.3846  0.3435
50203SOL    HW157659  10.405   6.757  12.193 -1.8216 -0.2389  2.2794
50203SOL    HW257660  10.491   6.804  12.309  2.4927 -0.4622 -0.5978
50204SOL     OW57661   9.354   0.548   7.737 -0.1114 -0.3673 -0.0094
50204SOL    HW157662   9.381   0.467   7.694  1.7297  1.0124 -1.6023
50204SOL    HW257663   9.406   0.550   7.818 -0.1133 -0.7281  0.0039
50205SOL     OW57664   8.774  10.888   1.221 -0.1267  0.3728  0.1068
50205SOL    HW157665   8.786  10.892   1.316  2.1657  0.0272 -0.1040
50205SOL    HW257666   8.680  10.875   1.209 -0.3296 -0.7779  2.3650
50206SOL     OW57667  12.216  11.706  12.326  0.2015 -0.2701  0.3039
50206SOL    HW157668  12.271  11.628  12.329  0.6347 -0.1171 -1.9304
50206SOL    HW257669  12.173  11.702  12.241 -1.7124  0.6742  1.1651
50207SOL     OW57670   8.629   7.346   1.456 -0.7762 -0.2847  0.5884
50207SOL    HW157671   8.610   7.324   1.365 -1.9727  2.4295  0.0880
50207SOL    HW257672   8.555   7.312   1.505  0.3398 -2.6406  0.7860
50208SOL     OW57673   5.877   0.808   7.388  0.5144 -0.5989 -0.3712
50208SOL    HW157674   5.952   0.828   7.333 -0.4424 -1.8273 -2.2308
50208SOL    HW257675   5.863   0.714   7.376 -0.4110 -0.6794  1.1244
50209SOL     OW57676   8.577   1.179   0.770 -0.3635 -0.3427  0.0631
50209SOL    HW157677   8.593   1.199   0.678  2.2151  1.7610  0.8232
50209SOL    HW257678   8.511   1.243   0.798 -1.4585 -1.2524 -0.3611
50210SOL     OW57679   4.141   0.104   0.404  0.1032  0.3346 -0.2298
50210SOL    HW157680   4.100   0.021   0.431 -1.0726  0.8761 -0.3038
50210SOL    HW257681   4.070   0.154   0.365  0.5088  1.8908  0.9518
50211SOL     OW57682   7.340  12.576   9.541 -0.1721 -1.4403  0.5306
50211SOL    HW157683   7.410  12.611   9.596  0.9368 -0.0409 -1.6180
50211SOL    HW257684   7.267  12.638   9.553  0.1479 -1.0061  0.2717
50212SOL     OW57685   4.702   2.439   2.564 -0.2341  0.2791  0.4761
50212SOL    HW157686   4.756   2.384   2.508  0.7903  1.2989  0.4153
50212SOL    HW257687   4.758   2.514   2.585 -0.9665  0.4418  1.9965
50213SOL     OW57688   3.880   4.217   0.695 -0.3415  0.7638 -0.2368
50213SOL    HW157689   3.934   4.246   0.768 -0.3137 -0.3894  0.2178
50213SOL    HW257690   3.919   4.134   0.668 -0.8282  0.7917 -1.0549
50214SOL     OW57691   0.648   8.589   0.134  0.5022  0.2002 -0.3357
50214SOL    HW157692   0.735   8.562   0.162  0.3730  1.0100  0.9296
50214SOL    HW257693   0.601   8.608   0.215 -1.2267 -1.2658 -0.9292
50215SOL     OW57694   5.342   8.647  12.242  0.3914  0.0642 -0.1416
50215SOL    HW157695   5.313   8.656  12.333  0.7204 -0.7501  0.0483
50215SOL    HW257696   5.393   8.726  12.225 -1.1760  1.1105 -0.2068
50216SOL     OW57697   0.048   5.478   8.515 -0.2443  0.9764  0.1183
50216SOL    HW157698   0.031   5.563   8.556 -0.0288  1.2208 -0.2919
50216SOL    HW257699   0.017   5.488   8.425 -0.0217  0.6914  0.0074
50217SOL     OW57700   9.585   2.769  11.659 -0.5978 -0.1431 -0.5086
50217SOL    HW157701   9.645   2.801  11.727 -0.5543  0.6013 -0.8886
50217SOL    HW257702   9.507   2.741  11.708  0.2779 -1.7319  0.0548
50218SOL     OW57703  12.273   7.617  12.522 -0.5960  0.1609 -0.2403
50218SOL    HW157704  12.261   7.705  12.486  2.4647  1.2258  0.9910
50218SOL    HW257705  12.185   7.590  12.549 -1.3953  4.0198  1.8398
50219SOL     OW57706   1.146   9.467   9.214  0.5067  0.1550 -0.3761
50219SOL    HW157707   1.213   9.524   9.250  0.4674  0.5916 -0.9811
50219SOL    HW257708   1.194   9.405   9.158  0.8583 -1.9927  2.1049
50220SOL     OW57709   5.023   2.774   8.133  0.4436 -0.3000 -0.3676
50220SOL    HW157710   5.091   2.833   8.166  0.8064 -0.9247  0.0227
50220SOL    HW257711   4.964   2.762   8.208  0.1189 -0.0822 -0.5848
50221SOL     OW57712   0.386   9.375   5.285 -0.0874 -0.3046  0.4023
50221SOL    HW157713   0.446   9.329   5.226  1.4662  0.2266  1.4973
50221SOL    HW257714   0.368   9.312   5.355  0.3055 -0.0105  0.7767
50222SOL     OW57715   5.437   0.496   5.977 -0.1404 -0.3746  0.1343
50222SOL    HW157716   5.496   0.543   5.917 -0.4970 -1.1746 -0.8677
50222SOL    HW257717   5.488   0.421   6.006 -0.7020 -1.1745 -0.8841
50223SOL     OW57718   4.667   3.120   2.833  0.0949 -0.1367  0.0540
50223SOL    HW157719   4.746   3.124   2.886  0.0718  1.2234  0.0100
50223SOL    HW257720   4.687   3.057   2.764  0.7588 -0.5694  0.6322
50224SOL     OW57721   4.710   7.193  10.263 -0.0098 -0.1972  0.1260
50224SOL    HW157722   4.757   7.268  10.225 -2.5390  1.1920 -0.5129
50224SOL    HW257723   4.635   7.233  10.307 -1.6771 -2.3565 -0.5853
50225SOL     OW57724  10.470   8.968   7.854  0.1010  0.6550  0.3515
50225SOL    HW157725  10.528   8.984   7.928  1.1020  1.9992 -0.6514
50225SOL    HW257726  10.523   8.991   7.777 -0.6361 -1.4117 -0.8519
50226SOL     OW57727  12.410  10.335   4.535 -0.1887 -0.1796  0.2200
50226SOL    HW157728  12.428  10.378   4.452  1.9490 -1.7530 -0.1970
50226SOL    HW257729  12.459  10.386   4.600 -0.3595 -0.0353  0.2355
50227SOL     OW57730   8.363   3.884  11.708  0.0933  0.1863 -0.2761
50227SOL    HW157731   8.319   3.842  11.635 -1.1408 -0.3267  0.7285
50227SOL    HW257732   8.325   3.843  11.786  0.4994  1.5580  0.6836
50228SOL     OW57733  12.589   4.252   0.010  0.2354  0.1166  0.1983
50228SOL    HW157734  12.589   4.340  -0.026  0.3060 -0.3610 -1.0248
50228SOL    HW257735  12.577   4.195  -0.066 -0.4660 -0.9037  1.0400
50229SOL     OW57736   8.010   1.229   5.482 -0.2196 -0.0529  0.0857
50229SOL    HW157737   7.917   1.247   5.469 -0.1148  1.0764  0.8144
50229SOL    HW257738   8.022   1.229   5.577  0.8952  1.8851 -0.0189
50230SOL     OW57739   1.680   0.649   9.390  0.2429  0.1382  0.6965
50230SOL    HW157740   1.724   0.699   9.460 -0.5553 -1.4685  2.4414
50230SOL    HW257741   1.594   0.628   9.427 -1.0569  1.0256 -1.6477
50231SOL     OW57742  12.156   8.330   2.705  0.6278  0.0730  0.1141
50231SOL    HW157743  12.080   8.384   2.681  0.3280 -0.3244  0.1685
50231SOL    HW257744  12.208   8.387   2.762  0.0577  0.1344  0.5761
50232SOL     OW57745  12.162   6.062  10.958 -0.1456 -0.5129 -0.1834
50232SOL    HW157746  12.155   6.002  10.883  1.2408 -0.1155 -0.6781
50232SOL    HW257747  12.207   6.139  10.922 -0.9824  0.4020  0.6765
50233SOL     OW57748  11.534  11.328  11.898 -0.6974  0.2165  0.1413
50233SOL    HW157749  11.486  11.411  11.902 -1.3006 -0.1704  1.9298
50233SOL    HW257750  11.625  11.354  11.882 -0.9437  1.2057  0.2770
50234SOL     OW57751   1.665  11.850   1.990 -0.0064  0.0989  0.0554
50234SOL    HW157752   1.727  11.920   1.971 -0.5136  0.3989 -0.5592
50234SOL    HW257753   1.580  11.884   1.960 -0.1340 -1.0557 -0.9882
50235SOL     OW57754   5.009  12.277  10.374 -0.1801 -0.1028  0.3195
50235SOL    HW157755   5.098  12.246  10.356 -0.7387 -2.1535  0.8699
50235SOL    HW257756   5.021  12.359  10.421  1.4139 -0.2141  0.1430
50236SOL     OW57757   6.785   7.481   9.190  0.0989  0.2214  0.0870
50236SOL    HW157758   6.698   7.510   9.216  0.7347  2.8231 -0.4031
50236SOL    HW257759   6.771   7.398   9.146 -2.0243  0.2104  0.7099
50237SOL     OW57760   0.612  11.838   6.168  0.1524 -0.2687 -0.1447
50237SOL    HW157761   0.677  11.770   6.151 -0.5941 -0.9302 -0.4278
50237SOL    HW257762   0.656  11.899   6.227  1.5835  0.1604 -1.5828
50238SOL     OW57763   1.147  11.753   4.378 -0.3649 -0.2137  0.0960
50238SOL    HW157764   1.094  11.770   4.300 -1.7565 -2.5580  0.4325
50238SOL    HW257765   1.211  11.687   4.350 -1.6001 -1.9382  1.1051
50239SOL     OW57766   1.012   4.407   5.186 -0.1073  0.2471 -0.0866
50239SOL    HW157767   0.920   4.387   5.167 -0.4495 -1.0403  2.4608
50239SOL    HW257768   1.008   4.476   5.252  0.7709  0.4523 -0.2387
50240SOL     OW57769   4.371   1.052   1.103 -0.3363  0.2659  0.9492
50240SOL    HW157770   4.451   1.062   1.153 -0.9998  0.2750  2.0396
50240SOL    HW257771   4.326   0.977   1.143 -0.5170 -0.2505 -0.1554
50241SOL     OW57772   9.041  11.484   5.261 -0.0603  0.3864 -0.5298
50241SOL    HW157773   9.002  11.544   5.198  2.0444  5.3840  2.3799
50241SOL    HW257774   8.972  11.470   5.326 -0.4724 -0.2276 -1.0820
50242SOL     OW57775   3.417   0.122   8.339 -0.1097  0.6075 -0.2926
50242SOL    HW157776   3.416   0.093   8.248  0.1141  0.1501 -0.1533
50242SOL    HW257777   3.483   0.192   8.341  0.8810 -0.3167 -0.2102
50243SOL     OW57778   4.559  11.119   8.199 -0.4144 -0.2380 -0.0246
50243SOL    HW157779   4.635  11.120   8.141 -0.2715 -0.9420  0.1381
50243SOL    HW257780   4.584  11.059   8.269  0.1819  1.9975  1.8254
50244SOL     OW57781   5.023   4.090   1.679  0.3122 -0.4972 -0.0536
50244SOL    HW157782   5.001   4.055   1.765  0.2285 -1.1468 -0.3354
50244SOL    HW257783   5.119   4.097   1.680  0.3194 -0.6084  0.0470
50245SOL     OW57784   4.107  10.389  11.519  0.5016  0.4015  0.0001
50245SOL    HW157785   4.092  10.304  11.561  1.9972 -0.0134 -0.2566
50245SOL    HW257786   4.020  10.428  11.512 -0.2273 -1.1732 -0.0106
50246SOL     OW57787   4.038   2.234  12.277  0.1970 -0.3324  0.2498
50246SOL    HW157788   4.003   2.152  12.242 -0.0293  0.1555 -0.7400
50246SOL    HW257789   3.962   2.293  12.279  0.2523 -0.2880  1.4139
50247SOL     OW57790  11.769  10.207   6.204 -0.4071  0.2735  0.6112
50247SOL    HW157791  11.757  10.266   6.130 -1.8439 -1.7044 -0.8492
50247SOL    HW257792  11.848  10.157   6.184 -0.9957 -0.5144  0.1824
50248SOL     OW57793   6.353   1.530   1.482 -0.5191  0.3222  0.3715
50248SOL    HW157794   6.274   1.552   1.532  0.0342  1.6204  0.7130
50248SOL    HW257795   6.334   1.561   1.394 -0.5702  0.1882  0.3342
50249SOL     OW57796   6.107  10.389   4.634  0.8138 -0.7537 -0.1298
50249SOL    HW157797   6.096  10.298   4.663 -1.9003  0.1081  2.0001
50249SOL    HW257798   6.186  10.419   4.678  0.6969 -1.5566  0.6697
50250SOL     OW57799   0.062  12.109   6.813  0.2034 -0.3031 -0.4624
50250SOL    HW157800   0.071  12.052   6.736  1.1624  0.4275 -0.9109
50250SOL    HW257801   0.125  12.180   6.798 -1.2017  1.0654 -0.0791
50251SOL     OW57802   2.581   3.660   9.293 -0.1935 -0.2224  0.0870
50251SOL    HW157803   2.557   3.681   9.203 -0.2689  0.5916  0.2810
50251SOL    HW257804   2.617   3.742   9.328 -0.7833 -0.3310  0.9919
50252SOL     OW57805   2.626  10.837   2.654 -0.5441  0.2674  0.0251
50252SOL    HW157806   2.550  10.782   2.676 -0.6635  0.8567  1.1393
50252SOL    HW257807   2.648  10.881   2.736  0.4128  0.8355 -0.5248
50253SOL     OW57808   9.299   2.328   1.401 -0.1731  0.2036  0.4317
50253SOL    HW157809   9.367   2.375   1.450  1.2512 -2.0033  0.7261
50253SOL    HW257810   9.233   2.307   1.466 -0.0637  0.4259  0.6184
50254SOL     OW57811   3.959  11.338   1.593 -0.4290  0.1488 -0.3223
50254SOL    HW157812   3.954  11.247   1.623 -1.0124  0.4875  0.6647
50254SOL    HW257813   4.007  11.333   1.511  0.3447 -0.9450  0.1639
50255SOL     OW57814   5.457   6.309   2.720 -0.1527 -1.0083  0.2180
50255SOL    HW157815   5.531   6.251   2.699  0.8531 -0.3733  1.8305
50255SOL    HW257816   5.390   6.250   2.756 -0.4664 -1.5811 -1.2117
50256SOL     OW57817   0.754   7.709  12.276  0.4517 -0.6152 -0.2053
50256SOL    HW157818   0.717   7.689  12.362  2.0724 -2.2388  0.1682
50256SOL    HW257819   0.726   7.636  12.221  1.1190 -0.6541 -0.5036
50257SOL     OW57820   4.323   3.814   6.825  0.3865  0.2609  0.5500
50257SOL    HW157821   4.352   3.873   6.894 -0.2158 -0.2563  1.2658
50257SOL    HW257822   4.386   3.827   6.754 -1.1377  3.6521 -0.3796
50258SOL     OW57823   3.796   7.503  11.503  0.7225  0.2729 -0.8426
50258SOL    HW157824   3.732   7.538  11.564  1.0093 -1.0756  0.2929
50258SOL    HW257825   3.775   7.544  11.419 -1.5601 -0.0446 -0.4800
50259SOL     OW57826   1.675   1.214   8.122  0.0305  0.3674  0.2500
50259SOL    HW157827   1.597   1.271   8.121 -0.5832 -0.4651 -0.8966
50259SOL    HW257828   1.748   1.274   8.139 -0.7317  1.3274  0.2490
50260SOL     OW57829  10.326   2.225   4.566  0.2162  0.5042  0.5700
50260SOL    HW157830  10.414   2.195   4.545  0.2576  1.3948 -0.6108
50260SOL    HW257831  10.271   2.187   4.497 -0.3736 -0.2240  1.4188
50261SOL     OW57832   3.419   8.829   5.344  0.2369 -0.1007 -0.1399
50261SOL    HW157833   3.456   8.741   5.335  0.2175 -0.3240  1.6322
50261SOL    HW257834   3.486   8.887   5.308  0.7601 -0.7617 -0.2479
50262SOL     OW57835   4.461   9.261   6.315  0.1326  0.2644  0.2122
50262SOL    HW157836   4.417   9.252   6.400  1.0981 -0.1826  0.6796
50262SOL    HW257837   4.515   9.339   6.324  0.4494  0.0582  0.1108
50263SOL     OW57838   4.478   9.224   3.027 -0.2164 -0.5242 -0.0080
50263SOL    HW157839   4.436   9.194   3.107  1.0956  2.6391  2.0777
50263SOL    HW257840   4.407   9.269   2.979 -0.5388 -0.5133  0.4735
50264SOL     OW57841   1.647  12.016   2.282  0.4628 -0.3076 -0.3061
50264SOL    HW157842   1.742  12.016   2.271  0.8078  3.8584  1.0387
50264SOL    HW257843   1.634  12.025   2.376 -1.1882  0.6073 -0.5782
50265SOL     OW57844   3.651   6.404   3.634  0.5938  0.1205 -0.0495
50265SOL    HW157845   3.666   6.463   3.560 -1.4543  0.0301 -0.5958
50265SOL    HW257846   3.565   6.365   3.616 -0.1838  0.4373  2.5786
50266SOL     OW57847   5.380   4.562   8.820  0.0171  0.0980  0.3186
50266SOL    HW157848   5.337   4.503   8.881 -1.3152  1.2331  0.5104
50266SOL    HW257849   5.317   4.574   8.749  0.7230  0.4247 -0.2715
50267SOL     OW57850  10.700   3.629  12.525  0.0538 -0.0803  0.1522
50267SOL    HW157851  10.704   3.615  12.620  0.7802  2.1363  0.5042
50267SOL    HW257852  10.607   3.641  12.507  0.0593  1.3292  0.9235
50268SOL     OW57853   0.265   5.628   5.324  0.1754  0.0539 -0.0522
50268SOL    HW157854   0.200   5.697   5.308  1.6293  1.6914  0.7618
50268SOL    HW257855   0.260   5.612   5.418  1.3813  0.6844  0.1362
50269SOL     OW57856   3.205   9.018   9.522 -0.1765 -0.1198  0.4786
50269SOL    HW157857   3.232   8.967   9.599 -0.1727  1.4858  1.5879
50269SOL    HW257858   3.111   9.028   9.531 -0.2307 -0.2520  0.0678
50270SOL     OW57859   6.992  11.514   6.104  0.1385 -0.0027  0.2887
50270SOL    HW157860   7.014  11.424   6.128 -0.0086 -0.1023  0.0498
50270SOL    HW257861   7.055  11.567   6.152  1.0489 -0.2947 -0.5519
50271SOL     OW57862   0.966   9.830   3.394 -0.1039 -0.4342 -0.4924
50271SOL    HW157863   0.962   9.797   3.304 -3.4371  0.2973 -0.7301
50271SOL    HW257864   0.962   9.925   3.385 -0.5718 -0.3601  0.4338
50272SOL     OW57865  10.441   6.933   8.614 -0.7137  0.0542 -0.1202
50272SOL    HW157866  10.509   6.968   8.556 -0.0092  0.4919  0.9498
50272SOL    HW257867  10.472   6.845   8.636 -2.5573 -1.4559 -2.9364
50273SOL     OW57868   1.087   1.280   7.022 -0.7612 -0.1492  0.1449
50273SOL    HW157869   1.017   1.217   7.005 -1.2024  0.5922 -0.8844
50273SOL    HW257870   1.055   1.362   6.985  0.5510  0.2607 -0.1441
50274SOL     OW57871   2.913   1.399  10.662  0.6489  0.1885  0.4098
50274SOL    HW157872   2.849   1.387  10.592 -0.2298 -0.2238  1.2478
50274SOL    HW257873   2.887   1.335  10.729  2.4261 -0.5478  0.4545
50275SOL     OW57874   6.789   9.851   8.016  0.0973  0.8813  0.0503
50275SOL    HW157875   6.799   9.866   8.110  0.2316 -1.0797  0.3927
50275SOL    HW257876   6.841   9.920   7.975  1.0129  1.0625  1.4415
50276SOL     OW57877   0.969   4.498   7.093 -0.1570 -0.0269 -0.0209
50276SOL    HW157878   0.896   4.479   7.034  0.9276 -0.0130 -1.4229
50276SOL    HW257879   1.005   4.412   7.115 -1.0517 -0.0864  1.3178
50277SOL     OW57880   3.696   6.289  12.192  0.1037  0.6641 -0.0595
50277SOL    HW157881   3.628   6.225  12.171  1.1776 -0.6954  0.4772
50277SOL    HW257882   3.690   6.354  12.121 -0.3401 -0.5748 -1.2096
50278SOL     OW57883  12.353   9.065   8.750 -0.1152 -0.5994  0.1297
50278SOL    HW157884  12.292   9.002   8.712 -1.1824  0.1497  0.5356
50278SOL    HW257885  12.417   9.082   8.680  0.1884 -2.0957  0.0145
50279SOL     OW57886  11.565   6.294   0.841 -0.0689 -0.1240 -0.1791
50279SOL    HW157887  11.547   6.202   0.822 -1.7177  0.1669 -0.1923
50279SOL    HW257888  11.597   6.293   0.932 -2.1868 -0.5543  0.6400
50280SOL     OW57889  10.615   2.170   4.629  0.0989 -0.4164 -0.0699
50280SOL    HW157890  10.704   2.204   4.631  2.2954 -5.2659 -0.6923
50280SOL    HW257891  10.578   2.193   4.714  1.8375  1.7451  0.1825
50281SOL     OW57892   3.734   2.699  11.655 -0.7144 -0.1502  0.2042
50281SOL    HW157893   3.809   2.658  11.699 -0.2363  0.0761 -0.3760
50281SOL    HW257894   3.663   2.635  11.664 -0.1560 -0.8360 -0.1270
50282SOL     OW57895   4.235   0.951   6.677  0.1178  0.3905 -0.6301
50282SOL    HW157896   4.307   1.011   6.659  1.2997 -0.2292  1.7034
50282SOL    HW257897   4.177   0.999   6.736 -0.2694  0.1207 -0.7866
50283SOL     OW57898   0.869   1.550   5.010 -0.2444  0.2197 -0.0247
50283SOL    HW157899   0.939   1.502   5.054 -0.1433  0.8495  0.5253
50283SOL    HW257900   0.885   1.642   5.034  1.4024  1.0069 -3.4762
50284SOL     OW57901   9.521   9.106  11.070  0.2840 -0.1942  0.2760
50284SOL    HW157902   9.467   9.038  11.029  0.1592  0.2620 -0.3414
50284SOL    HW257903   9.493   9.187  11.027  0.5758  0.2197  0.8563
50285SOL     OW57904   5.473   4.244   7.994  0.2926  0.3187 -0.2801
50285SOL    HW157905   5.414   4.298   7.941 -1.1690  0.1572  1.1241
50285SOL    HW257906   5.495   4.170   7.937 -1.4401  0.0212 -0.6312
50286SOL     OW57907   6.166   9.793   1.232  0.2472  0.5344  0.0871
50286SOL    HW157908   6.222   9.852   1.182 -0.8231  0.9221 -0.7035
50286SOL    HW257909   6.149   9.719   1.174  0.2194  0.2609  0.4391
50287SOL     OW57910   6.269   4.880  11.672  0.2990  0.0214  0.1474
50287SOL    HW157911   6.345   4.881  11.730 -0.5693  0.6512  1.3244
50287SOL    HW257912   6.203   4.831  11.721  0.6246 -2.6233 -1.8317
50288SOL     OW57913   7.733   3.154  11.918 -0.1913  0.2776 -0.0634
50288SOL    HW157914   7.645   3.188  11.897 -0.1452 -0.2676 -1.2189
50288SOL    HW257915   7.787   3.183  11.845  0.3762 -0.2482  0.1450
50289SOL     OW57916  10.221   1.853  10.040 -0.3867 -0.3948 -0.1564
50289SOL    HW157917  10.222   1.768   9.996 -2.0989 -0.6140  0.1406
50289SOL    HW257918  10.230   1.917   9.970  3.6067 -0.7636 -0.1789
50290SOL     OW57919   3.567   7.440   9.420  1.0182 -0.3123  0.5448
50290SOL    HW157920   3.480   7.408   9.446  1.3932 -1.0256  0.9724
50290SOL    HW257921   3.618   7.437   9.501  1.1189  1.2697  0.5747
50291SOL     OW57922   3.608   4.456   3.321  0.0812  0.4103  0.5689
50291SOL    HW157923   3.692   4.500   3.332 -0.9623  2.2790  1.7126
50291SOL    HW257924   3.579   4.484   3.233  1.1358 -1.2060 -0.3324
50292SOL     OW57925   5.787   2.223   2.524  0.2835 -0.7618  0.4883
50292SOL    HW157926   5.797   2.261   2.437 -0.1157  0.2774  0.8863
50292SOL    HW257927   5.695   2.196   2.529 -0.1270  0.6735  1.1568
50293SOL     OW57928   8.543   8.689   2.918 -0.0679  0.0913  0.1465
50293SOL    HW157929   8.599   8.612   2.910  0.3114  0.4915 -1.6457
50293SOL    HW257930   8.469   8.671   2.859  0.0255  1.0752 -0.2931
50294SOL     OW57931   7.886   7.853   5.171  0.0731  0.2865 -0.1930
50294SOL    HW157932   7.792   7.867   5.175 -0.1377 -0.8528 -1.0224
50294SOL    HW257933   7.918   7.921   5.111 -0.1022  1.1130  0.6170
50295SOL     OW57934   3.199   3.640   1.984  0.4705  0.0090 -0.6083
50295SOL    HW157935   3.161   3.554   1.967 -0.2557  0.1936  0.0261
50295SOL    HW257936   3.274   3.646   1.924  0.4045 -0.9739 -0.7994
50296SOL     OW57937   9.580  10.621  12.528  0.0409 -0.5868 -0.1239
50296SOL    HW157938   9.587  10.548  12.590 -1.0668 -0.3263  0.3319
50296SOL    HW257939   9.486  10.635  12.518  0.2301  0.7025 -0.2932
50297SOL     OW57940   3.214   0.074   0.466  0.5793 -0.0483  0.0560
50297SOL    HW157941   3.290   0.046   0.516  0.1245  1.6992  1.8744
50297SOL    HW257942   3.140   0.033   0.510  0.3329 -0.4508 -0.7164
50298SOL     OW57943  11.756   6.477  10.460 -0.0696 -0.9001 -0.1720
50298SOL    HW157944  11.787   6.512  10.543 -2.7987  0.2003  0.5069
50298SOL    HW257945  11.835   6.466  10.407  1.4912  0.8979  1.6267
50299SOL     OW57946   0.415   7.750   2.316  0.3954 -0.0277  0.2180
50299SOL    HW157947   0.386   7.740   2.407  0.0873  0.4589  0.1822
50299SOL    HW257948   0.442   7.663   2.289 -3.4727 -1.1614 -0.5747
50300SOL     OW57949   3.578  11.267   9.921  0.2286 -0.3826 -0.1740
50300SOL    HW157950   3.576  11.192   9.981  0.1669 -0.2619 -0.0242
50300SOL    HW257951   3.612  11.339   9.974  0.1045 -0.2572 -0.2641
50301SOL     OW57952   0.560  11.381   3.263  0.0497 -0.0266 -0.5770
50301SOL    HW157953   0.499  11.433   3.315 -0.5660  0.0334 -1.3565
50301SOL    HW257954   0.514  11.299   3.246 -0.2445  0.4192 -2.0502
50302SOL     OW57955   3.756   2.136  11.351  0.3276 -0.4157  0.6491
50302SOL    HW157956   3.841   2.110  11.386  0.9008  1.4366  0.7551
50302SOL    HW257957   3.699   2.061  11.368  1.5834 -1.1446  1.8571
50303SOL     OW57958   0.846  11.735   5.207 -0.2528 -0.0768  0.0549
50303SOL    HW157959   0.894  11.717   5.287  0.7994  0.4442 -0.4389
50303SOL    HW257960   0.765  11.777   5.236  0.2138  0.3020  0.8386
50304SOL     OW57961  10.200   0.610   4.204  0.4913  0.4464  0.7699
50304SOL    HW157962  10.136   0.558   4.253  0.2157 -0.5776 -0.6026
50304SOL    HW257963  10.173   0.601   4.113  1.6236  1.3834  0.3193
50305SOL     OW57964   0.751   0.413   6.006 -0.0535  0.1813  0.8900
50305SOL    HW157965   0.811   0.346   5.973  2.4350  0.4391  4.3733
50305SOL    HW257966   0.727   0.465   5.929  1.7721 -1.7784 -1.1218
50306SOL     OW57967  11.089   1.465   0.154  0.0815 -0.5234  0.0889
50306SOL    HW157968  11.100   1.525   0.228  1.9431 -0.2887 -0.3277
50306SOL    HW257969  11.077   1.523   0.079 -2.0362 -0.7634  0.1935
50307SOL     OW57970   1.809   1.194   0.435  0.3273  0.3120 -0.5954
50307SOL    HW157971   1.855   1.235   0.509 -1.5161  1.2570  0.0935
50307SOL    HW257972   1.841   1.103   0.435  1.6490  0.7379  0.2570
50308SOL     OW57973  10.871   2.103   7.961  0.7346  0.5750  0.1731
50308SOL    HW157974  10.886   2.091   7.868  1.1561  0.9659  0.1864
50308SOL    HW257975  10.830   2.021   7.990  3.2630 -0.7926  0.2168
50309SOL     OW57976  10.911   6.935   8.171 -0.1531  0.4676 -0.0651
50309SOL    HW157977  10.894   6.841   8.185 -0.3066  0.5389  0.2423
50309SOL    HW257978  10.918   6.944   8.077  0.4623  0.0414 -0.0650
50310SOL     OW57979  11.742   9.156   0.824  0.3810  0.2787  0.0811
50310SOL    HW157980  11.832   9.161   0.790  0.3057 -1.6673 -0.4857
50310SOL    HW257981  11.753   9.142   0.918  0.7278 -1.2154 -0.1592
50311SOL     OW57982   5.341   7.910   9.559  0.0382  0.0746  0.4845
50311SOL    HW157983   5.334   8.005   9.553 -0.7859 -0.0009  0.1014
50311SOL    HW257984   5.338   7.891   9.653 -0.1849  0.4063  0.5478
50312SOL     OW57985   9.631  12.176  11.118 -0.0866  0.1450 -0.2553
50312SOL    HW157986   9.580  12.204  11.042 -0.2790  1.4897  0.3270
50312SOL    HW257987   9.660  12.258  11.158  4.2425 -0.4495 -1.6254
50313SOL     OW57988   5.645  10.275   2.713 -0.0272 -0.0936  0.6414
50313SOL    HW157989   5.649  10.291   2.807  0.7613 -0.8273  0.7430
50313SOL    HW257990   5.735  10.252   2.688 -0.3795 -0.6606 -0.1504
50314SOL     OW57991   0.847   8.460  10.138 -0.1061 -0.6208 -0.6419
50314SOL    HW157992   0.823   8.370  10.116 -1.6128 -0.1186 -1.2088
50314SOL    HW257993   0.880   8.497  10.056  1.3199 -0.8716 -0.2123
50315SOL     OW57994   9.851   6.663   8.623  0.5302 -0.1125  0.0208
50315SOL    HW157995   9.915   6.715   8.576  0.9952 -0.1117  0.6475
50315SOL    HW257996   9.840   6.708   8.707 -0.2442 -0.1436 -0.0555
50316SOL     OW57997   0.546   6.369   3.498  0.4273 -0.8301  0.0520
50316SOL    HW157998   0.539   6.280   3.464 -1.0996 -0.6945 -0.0607
50316SOL    HW257999   0.501   6.366   3.582  1.8552 -0.5440  0.8473
50317SOL     OW58000   9.633  11.470   8.774 -0.1485 -0.0587 -0.2483
50317SOL    HW158001   9.699  11.408   8.744 -0.1840 -0.7242  0.9972
50317SOL    HW258002   9.568  11.417   8.819 -0.5077  0.8089  0.2884
50318SOL     OW58003   9.461  11.927   5.053  0.5467  0.5873  0.6879
50318SOL    HW158004   9.545  11.928   5.007  0.4244  1.5656  0.4606
50318SOL    HW258005   9.404  11.874   4.998  0.6977  0.8735  0.2533
50319SOL     OW58006   2.446  12.220   3.817 -0.1214 -0.1597  0.2167
50319SOL    HW158007   2.379  12.163   3.779 -1.6898  2.0168 -0.5158
50319SOL    HW258008   2.412  12.308   3.805  2.3486  0.9977  0.9688
50320SOL     OW58009   1.985   8.184  11.714 -0.4392  0.3549  0.1377
50320SOL    HW158010   2.079   8.186  11.693 -0.4728  0.9898  0.0404
50320SOL    HW258011   1.948   8.124  11.649 -0.2388  0.7987 -0.3905
50321SOL     OW58012   2.350   6.610  11.198  0.0356  0.1506  0.5698
50321SOL    HW158013   2.423   6.548  11.210 -0.2371 -0.2209  0.3361
50321SOL    HW258014   2.352   6.665  11.276  1.5063  1.1179 -0.1096
50322SOL     OW58015   4.565   2.568   5.585  0.2556 -0.4917  0.1189
50322SOL    HW158016   4.524   2.482   5.593  1.1090 -0.7894  1.8016
50322SOL    HW258017   4.504   2.628   5.627 -0.4784 -0.1908 -1.3155
50323SOL     OW58018   8.490  10.838   1.199 -0.2184 -0.3257 -0.2596
50323SOL    HW158019   8.439  10.914   1.224 -0.3068 -0.2532 -0.6455
50323SOL    HW258020   8.429  10.764   1.204 -0.4357 -0.2008 -0.9712
50324SOL     OW58021  11.471   9.374   6.599  0.5096 -0.0904 -0.1220
50324SOL    HW158022  11.442   9.354   6.510  0.4146  0.2528 -0.1674
50324SOL    HW258023  11.567   9.367   6.594  0.5588  0.7082 -0.4455
50325SOL     OW58024  11.905   7.002   9.895  0.0481 -1.3020 -0.0748
50325SOL    HW158025  11.932   6.910   9.903 -1.0228 -1.4209  4.8290
50325SOL    HW258026  11.984   7.052   9.915  0.4962 -1.0204 -2.2408
50326SOL     OW58027   8.465  10.657  10.929 -0.1409  0.2998 -0.5066
50326SOL    HW158028   8.502  10.733  10.884 -1.0541 -0.2181 -2.2343
50326SOL    HW258029   8.539  10.618  10.976  1.1100  0.3676 -2.3185
50327SOL     OW58030  11.245   3.182   8.117 -0.0756  0.2211 -0.1651
50327SOL    HW158031  11.187   3.251   8.147 -0.7681 -0.0921 -0.7679
50327SOL    HW258032  11.327   3.197   8.165 -0.2530  1.3790 -0.2116
50328SOL     OW58033   3.143   5.072  10.658 -0.3339  0.4454 -0.0557
50328SOL    HW158034   3.216   5.057  10.718 -0.1078 -0.7767 -0.5852
50328SOL    HW258035   3.065   5.059  10.711 -0.1409  0.2407  0.1815
50329SOL     OW58036  10.452   8.387   8.839 -0.2532 -0.0211  0.0345
50329SOL    HW158037  10.525   8.373   8.778 -0.1600 -0.5274  0.2570
50329SOL    HW258038  10.426   8.478   8.825 -1.8200 -0.7582 -2.5194
50330SOL     OW58039   7.358   5.119   2.969 -0.2118 -0.1594  0.5329
50330SOL    HW158040   7.354   5.098   3.063  1.1619 -1.3918  0.3548
50330SOL    HW258041   7.279   5.079   2.932  0.3468 -1.6492  0.8513
50331SOL     OW58042  11.624   8.786   3.099 -0.3488  0.3081  0.0034
50331SOL    HW158043  11.713   8.818   3.117 -0.3228 -0.3782  1.1914
50331SOL    HW258044  11.601   8.736   3.177 -1.7421  0.3759 -0.3499
50332SOL     OW58045   0.160   9.539   7.324  0.4521 -0.4470  0.0836
50332SOL    HW158046   0.253   9.530   7.304  0.1706 -0.4026 -1.3859
50332SOL    HW258047   0.116   9.491   7.254 -0.6334 -0.8457  1.0049
50333SOL     OW58048   9.850  11.909   1.562 -0.3676  0.4506 -0.2188
50333SOL    HW158049   9.895  11.877   1.484  0.4815  1.2101 -0.0513
50333SOL    HW258050   9.912  11.968   1.604 -1.4744  1.4657  0.0722
50334SOL     OW58051   9.625   8.659  10.811  0.1451 -0.3395 -0.5586
50334SOL    HW158052   9.574   8.581  10.788 -0.2400  0.6144 -3.2897
50334SOL    HW258053   9.706   8.651  10.760  1.8992 -0.7697  2.0906
50335SOL     OW58054   0.472   2.999   1.077  0.2530  0.3979 -0.0802
50335SOL    HW158055   0.521   2.952   1.011 -1.4287 -0.5355 -0.7169
50335SOL    HW258056   0.482   3.091   1.053  2.9197  0.4051  0.7240
50336SOL     OW58057   0.649   4.821  10.607 -0.1489 -0.4064  0.4270
50336SOL    HW158058   0.703   4.742  10.612  0.2589 -0.1990 -0.4965
50336SOL    HW258059   0.623   4.838  10.698  2.0580 -0.0328  1.0454
50337SOL     OW58060   4.719   6.124   8.581  0.1889 -0.8752  0.3170
50337SOL    HW158061   4.635   6.116   8.627  0.1411  0.7382  0.5510
50337SOL    HW258062   4.696   6.121   8.489 -0.1126 -0.6236  0.3812
50338SOL     OW58063  10.629   2.046   2.210  0.6232 -0.3265 -0.0371
50338SOL    HW158064  10.666   2.013   2.292 -0.5991 -1.4875  0.0866
50338SOL    HW258065  10.536   2.061   2.231  0.5412  0.3906 -0.9149
50339SOL     OW58066   1.529   4.732   8.509  0.3702  0.3568  0.6300
50339SOL    HW158067   1.475   4.766   8.581 -1.1190 -0.6858  0.0423
50339SOL    HW258068   1.478   4.750   8.430  1.5626  0.6457 -0.0936
50340SOL     OW58069   8.024   7.156   1.394 -0.7219 -0.3521 -0.7182
50340SOL    HW158070   7.929   7.148   1.396 -0.6047 -2.2067  2.3589
50340SOL    HW258071   8.042   7.238   1.441 -0.7874 -0.8151  0.1356
50341SOL     OW58072  10.105   1.996   1.803  0.2570 -0.2845 -0.5306
50341SOL    HW158073  10.076   1.943   1.729 -0.8071 -0.9175  0.3210
50341SOL    HW258074  10.026   2.009   1.856  0.9906  0.1958  0.4728
50342SOL     OW58075   2.435  12.081   4.079  0.4052 -0.0633 -0.0407
50342SOL    HW158076   2.508  12.019   4.073  1.2941  0.9314  0.3583
50342SOL    HW258077   2.441  12.133   3.999  0.3709  0.2934  0.1908
50343SOL     OW58078   6.118   6.602   2.826 -0.0727 -0.0710 -0.6499
50343SOL    HW158079   6.161   6.649   2.898  0.1051 -1.3769  0.1356
50343SOL    HW258080   6.180   6.607   2.753  0.1724  0.4463 -0.4079
50344SOL     OW58081   4.636  12.336   4.295 -0.8231  0.1590 -0.6080
50344SOL    HW158082   4.652  12.393   4.219  0.0195  0.8266  0.0586
50344SOL    HW258083   4.543  12.347   4.314 -0.7534  1.0220 -0.7294
50345SOL     OW58084   4.180   7.995   5.903  0.6375 -0.0046 -0.3312
50345SOL    HW158085   4.272   8.002   5.929  0.7590  2.3426 -1.1360
50345SOL    HW258086   4.180   8.008   5.808 -0.5293  0.1379 -0.3352
50346SOL     OW58087   2.614   3.251   1.166 -0.5777  0.2877 -0.2235
50346SOL    HW158088   2.606   3.158   1.189 -1.0638  0.4945  0.4485
50346SOL    HW258089   2.705   3.272   1.187 -0.0245 -0.4020 -1.7760
50347SOL     OW58090   8.555   3.561   7.306 -0.2465  0.3209  0.2379
50347SOL    HW158091   8.575   3.479   7.262  0.1963  1.1298 -1.1303
50347SOL    HW258092   8.480   3.597   7.258 -0.9986  0.3225  1.3691
50348SOL     OW58093   9.115   7.917  11.726  0.1743 -0.1506  0.5282
50348SOL    HW158094   9.074   8.003  11.732 -2.0433 -1.1206  0.2093
50348SOL    HW258095   9.124   7.889  11.817 -1.9371 -0.7823  0.6026
50349SOL     OW58096  11.866   8.594   4.808  0.4298 -0.7787 -0.1782
50349SOL    HW158097  11.856   8.640   4.725  1.6002  0.5452  0.3715
50349SOL    HW258098  11.781   8.605   4.852  0.4569  0.2757 -0.3596
50350SOL     OW58099  10.103   9.262   1.229  0.2409 -0.7063 -0.0822
50350SOL    HW158100  10.181   9.217   1.262 -0.3874 -0.4100  1.9618
50350SOL    HW258101  10.076   9.319   1.302 -1.5044 -0.3203 -0.9857
50351SOL     OW58102   3.958   2.210   0.585 -0.3219 -0.1988 -0.5931
50351SOL    HW158103   3.933   2.286   0.532  0.1591 -0.1563 -0.7699
50351SOL    HW258104   3.876   2.164   0.603 -0.6723  0.6340 -0.0625
50352SOL     OW58105   5.402   9.326   0.829  0.0710  0.0539  0.0967
50352SOL    HW158106   5.326   9.287   0.873 -0.1644  0.0984 -0.2615
50352SOL    HW258107   5.405   9.416   0.863 -1.4073  0.7891 -1.5211
50353SOL     OW58108   5.963   4.340   4.768 -0.8746 -0.5190 -0.4943
50353SOL    HW158109   6.039   4.283   4.754 -0.4778 -0.2752  0.5599
50353SOL    HW258110   5.993   4.404   4.833 -1.6779  0.1895 -0.8043
50354SOL     OW58111   2.029   9.132   1.280 -0.7849 -0.1075 -0.0154
50354SOL    HW158112   2.091   9.088   1.222  0.8819  1.5730  0.3863
50354SOL    HW258113   1.947   9.082   1.271  0.0982 -1.3041 -1.9543
50355SOL     OW58114   5.518   5.394  10.702  0.2484  0.4366  0.0415
50355SOL    HW158115   5.572   5.459  10.746 -1.2140  1.5435  0.2793
50355SOL    HW258116   5.509   5.427  10.613 -1.2150  1.0678  0.3936
50356SOL     OW58117   8.846   4.687   4.867 -0.6780 -0.3761 -0.1878
50356SOL    HW158118   8.818   4.729   4.786  0.6294 -0.3191 -0.6299
50356SOL    HW258119   8.916   4.743   4.900 -2.4001  0.6811  2.0297
50357SOL     OW58120  10.944  10.370   3.603 -0.3775 -0.8510  0.2891
50357SOL    HW158121  10.849  10.364   3.600 -0.3568 -2.6782  1.5867
50357SOL    HW258122  10.973  10.334   3.519 -0.8231  0.1755 -0.3164
50358SOL     OW58123  12.549   9.321   3.102  0.0566 -0.1296 -0.7912
50358SOL    HW158124  12.560   9.409   3.136 -0.8358  1.0276 -3.2834
50358SOL    HW258125  12.616   9.312   3.034  0.5529 -1.6347 -0.1615
50359SOL     OW58126   2.749   8.140   2.024  0.3992  0.0094  0.1415
50359SOL    HW158127   2.654   8.139   2.021  0.4118 -0.2733 -0.5592
50359SOL    HW258128   2.775   8.076   1.957  1.0829  0.7461 -0.3103
50360SOL     OW58129   2.719   3.288   0.813 -0.0128 -0.5305  0.0758
50360SOL    HW158130   2.763   3.304   0.730  2.9899  2.8379  2.0585
50360SOL    HW258131   2.642   3.345   0.811  1.0935  1.0240  0.2611
50361SOL     OW58132   2.406   4.537   8.493 -0.3841 -0.2116  0.0996
50361SOL    HW158133   2.362   4.460   8.530 -0.3011 -0.5669 -0.5298
50361SOL    HW258134   2.453   4.575   8.567 -0.5175 -0.7048  0.4450
50362SOL     OW58135   0.975   8.828   6.588  0.1827  0.7336 -0.0020
50362SOL    HW158136   1.012   8.856   6.504  2.0120 -2.1991 -0.3371
50362SOL    HW258137   0.884   8.807   6.567 -0.0604  2.2759 -0.6469
50363SOL     OW58138  11.620   2.633   5.635 -0.1603  0.0858 -0.4231
50363SOL    HW158139  11.658   2.545   5.635  0.9158  0.4889  1.7357
50363SOL    HW258140  11.531   2.621   5.666 -0.2683 -0.3125 -0.8678
50364SOL     OW58141  12.089  12.394   7.625  0.2469 -0.0522  0.0041
50364SOL    HW158142  12.135  12.442   7.556 -1.4480  0.7382 -0.6260
50364SOL    HW258143  11.997  12.398   7.600 -0.4147  0.1556  2.2548
50365SOL     OW58144  10.140  11.646  12.150  0.2180 -0.6100 -0.2198
50365SOL    HW158145  10.191  11.625  12.072 -0.2175 -0.6102 -0.5047
50365SOL    HW258146  10.199  11.699  12.204 -0.0307  0.8146 -1.2916
50366SOL     OW58147   3.451   1.432   9.371  0.0359  0.1223  0.9334
50366SOL    HW158148   3.445   1.490   9.295 -1.4832 -0.5328  0.5061
50366SOL    HW258149   3.544   1.409   9.377  0.2968  0.7991 -0.2465
50367SOL     OW58150  12.318   2.059   4.714  0.2840 -0.0342 -0.3995
50367SOL    HW158151  12.406   2.038   4.684 -0.3822 -1.5396 -1.4272
50367SOL    HW258152  12.261   2.033   4.642 -0.9742  1.5626 -0.0520
50368SOL     OW58153   8.762   1.263   4.462 -0.3661 -0.5835 -0.3899
50368SOL    HW158154   8.842   1.221   4.429 -0.9965 -1.8720 -0.3387
50368SOL    HW258155   8.693   1.200   4.444 -1.6277  1.0869 -1.7177
50369SOL     OW58156   2.541   8.598   3.473  0.4627  0.2152  0.3698
50369SOL    HW158157   2.560   8.552   3.391  2.0710  0.2054  0.7129
50369SOL    HW258158   2.590   8.680   3.466 -0.9787  1.1103  0.5037
50370SOL     OW58159  11.436   3.706   8.502  0.0200 -0.3670 -0.7177
50370SOL    HW158160  11.412   3.721   8.411  1.1059 -1.0260 -1.1366
50370SOL    HW258161  11.443   3.611   8.510  1.5508 -0.2617 -0.4167
50371SOL     OW58162   4.621   3.626   5.968  0.4907 -0.2138  0.4072
50371SOL    HW158163   4.647   3.695   6.029  0.9238  0.3921 -0.4265
50371SOL    HW258164   4.527   3.613   5.985  0.9669 -1.3851  2.4397
50372SOL     OW58165  11.270   9.214   9.928  0.2375  0.4966  0.5360
50372SOL    HW158166  11.345   9.249   9.977  1.3603  0.6121 -1.1913
50372SOL    HW258167  11.304   9.137   9.883  0.0593  1.8906 -2.1930
50373SOL     OW58168  11.760  11.320   7.625  0.2532 -0.3732 -0.8043
50373SOL    HW158169  11.752  11.225   7.615 -0.4101 -0.1842 -2.4878
50373SOL    HW258170  11.728  11.355   7.542 -0.5009  1.3701  0.1612
50374SOL     OW58171  11.997   7.724   4.555  0.7433 -0.0179 -0.7351
50374SOL    HW158172  12.073   7.673   4.527 -0.4420 -1.7332 -0.9869
50374SOL    HW258173  11.930   7.704   4.489 -0.8613 -1.0029  1.1025
50375SOL     OW58174   3.801   9.822  11.505  0.1900  0.2311 -0.1714
50375SOL    HW158175   3.706   9.834  11.504  0.2082  0.6602  1.2730
50375SOL    HW258176   3.814   9.730  11.528  0.1086  0.5440  1.2165
50376SOL     OW58177   5.251  11.753   2.375 -0.4391  1.0171 -0.5983
50376SOL    HW158178   5.311  11.741   2.302  0.5620  3.0686 -0.1895
50376SOL    HW258179   5.236  11.848   2.379 -1.4552  0.8328  1.0859
50377SOL     OW58180   8.954   8.574   9.092  0.4470 -0.4088  0.5696
50377SOL    HW158181   8.948   8.522   9.012 -3.1559  1.7061 -0.8241
50377SOL    HW258182   8.878   8.547   9.144  1.2641  0.0914  2.0906
50378SOL     OW58183   2.304   9.352   7.367  0.7027  0.6201  0.5055
50378SOL    HW158184   2.276   9.277   7.314 -1.8472  2.0590 -0.3718
50378SOL    HW258185   2.381   9.320   7.415  1.0238 -1.8334 -1.4344
50379SOL     OW58186   2.979   0.497   9.883  0.1567 -0.3335 -0.3019
50379SOL    HW158187   3.029   0.554   9.825 -0.6837  0.8030  0.0591
50379SOL    HW258188   2.949   0.426   9.826 -2.2673  1.7277 -1.8188
50380SOL     OW58189   7.154   8.240   4.708  0.3438 -0.0357  0.0817
50380SOL    HW158190   7.109   8.320   4.735  0.6565  0.0087  0.4771
50380SOL    HW258191   7.104   8.209   4.633  0.4010  0.6940 -0.2658
50381SOL     OW58192   6.713  12.305   2.251 -0.3949  0.3640  0.2970
50381SOL    HW158193   6.794  12.256   2.264 -0.9114 -0.5805  0.0097
50381SOL    HW258194   6.697  12.348   2.335 -0.4690 -0.7928  0.8954
50382SOL     OW58195   6.109   9.202   4.888 -0.5817  0.5251 -0.2365
50382SOL    HW158196   6.024   9.231   4.854 -1.2222 -0.6022  0.3281
50382SOL    HW258197   6.130   9.265   4.957 -1.9257 -0.2223  0.9320
50383SOL     OW58198   1.959   1.477   3.019 -0.3141  0.1518 -0.2172
50383SOL    HW158199   1.895   1.412   2.992 -0.7272  0.0848  0.8682
50383SOL    HW258200   2.031   1.467   2.958  0.0023 -1.8965  0.4149
50384SOL     OW58201  11.237   0.538   4.693  0.0874 -0.0765  0.4239
50384SOL    HW158202  11.251   0.594   4.769  1.4683  0.6969 -0.3694
50384SOL    HW258203  11.143   0.547   4.675 -0.4400 -0.8679  2.4475
50385SOL     OW58204   2.294   5.746  10.355 -0.2136  0.2816 -0.3151
50385SOL    HW158205   2.265   5.834  10.331  0.5100  0.5906 -0.0730
50385SOL    HW258206   2.390   5.752  10.357 -0.1760  0.4530  3.2272
50386SOL     OW58207   7.983   6.850   4.031  0.1606  0.2253 -0.1740
50386SOL    HW158208   8.039   6.784   4.072  1.5960  1.3914 -0.1701
50386SOL    HW258209   7.943   6.897   4.104  0.7240  0.6646 -0.1486
50387SOL     OW58210   0.186   3.504   1.951 -0.2284 -0.3796 -0.1293
50387SOL    HW158211   0.278   3.529   1.959 -0.5060  0.3334  1.1702
50387SOL    HW258212   0.163   3.467   2.036 -1.0809 -0.7755 -0.5193
50388SOL     OW58213   9.756   3.344   4.993 -0.2042  0.2476 -0.1406
50388SOL    HW158214   9.794   3.385   4.916 -0.7637  1.9024  0.4174
50388SOL    HW258215   9.688   3.405   5.022  0.2807 -0.0830  1.9009
50389SOL     OW58216   5.272   1.058   7.318  0.3535 -0.1084 -0.2557
50389SOL    HW158217   5.294   0.965   7.329 -0.7120 -0.4477 -0.8321
50389SOL    HW258218   5.185   1.067   7.357  0.1128  0.4680 -0.8995
50390SOL     OW58219   8.813  11.716  11.744  0.0457  0.1853 -0.0368
50390SOL    HW158220   8.772  11.798  11.774 -0.7237 -0.1605 -0.1194
50390SOL    HW258221   8.823  11.664  11.824  0.2529  0.2354 -0.0296
50391SOL     OW58222   5.672   0.956   7.252 -0.1432  0.0968 -0.6243
50391SOL    HW158223   5.755   0.951   7.300 -0.7139  0.4184  0.4208
50391SOL    HW258224   5.695   0.998   7.169  0.5562  1.2047  0.1005
50392SOL     OW58225   0.124   8.688   6.535 -0.0043 -0.1590  0.2134
50392SOL    HW158226   0.184   8.629   6.489  2.2489  0.2264  2.4023
50392SOL    HW258227   0.091   8.636   6.609 -0.0128  0.5261  0.7024
50393SOL     OW58228   8.417  10.772   4.845  0.2777 -0.2085 -0.2560
50393SOL    HW158229   8.429  10.854   4.894  0.3737 -0.9930  1.0615
50393SOL    HW258230   8.433  10.797   4.754  2.3046  0.8537  0.3197
50394SOL     OW58231   2.359   1.592   4.825 -0.3605 -0.0440  0.0893
50394SOL    HW158232   2.426   1.647   4.864  0.8840 -1.0751 -0.5347
50394SOL    HW258233   2.301   1.569   4.898 -1.6619  3.0151  0.1749
50395SOL     OW58234   1.209   1.955   3.747  0.2052 -0.3819  0.1129
50395SOL    HW158235   1.265   2.022   3.707  0.7628  0.2879  1.9136
50395SOL    HW258236   1.259   1.874   3.741 -0.9535 -0.9967 -3.1500
50396SOL     OW58237  11.289   4.850  10.260 -0.6254 -0.2886  0.2692
50396SOL    HW158238  11.317   4.922  10.203 -3.6162  0.7398 -0.0935
50396SOL    HW258239  11.357   4.784  10.250  2.1449  2.2954  0.3895
50397SOL     OW58240  11.609  11.518  11.124 -0.4277  0.3495 -1.3368
50397SOL    HW158241  11.654  11.455  11.180  0.8545  2.7288  0.4755
50397SOL    HW258242  11.677  11.550  11.065 -0.8703  0.6071 -1.7143
50398SOL     OW58243   9.753   2.400  10.817  0.1636  0.3519  0.1831
50398SOL    HW158244   9.758   2.479  10.870 -0.6206  0.2185  0.4630
50398SOL    HW258245   9.810   2.418  10.742  0.3651  0.9895  0.4851
50399SOL     OW58246   8.234   9.532   2.799 -0.0924 -0.0208 -0.1502
50399SOL    HW158247   8.275   9.564   2.880  1.9903  0.3961 -1.3086
50399SOL    HW258248   8.148   9.575   2.797  0.9893  2.3118  0.3960
50400SOL     OW58249   3.199  10.893   3.286  0.5777 -0.2297  0.0273
50400SOL    HW158250   3.229  10.962   3.227 -1.0601  0.7746  0.3088
50400SOL    HW258251   3.189  10.937   3.371 -4.1093  0.3012 -0.5548
50401SOL     OW58252   6.537   1.293  10.890 -0.2114  0.2922 -0.1721
50401SOL    HW158253   6.464   1.355  10.885  0.9511  1.7302  0.0758
50401SOL    HW258254   6.592   1.325  10.961  1.1827 -0.1741 -0.9912
50402SOL     OW58255  10.459   4.352   1.564  0.3620 -0.1083  0.2372
50402SOL    HW158256  10.460   4.447   1.552 -0.3667 -0.2942 -1.4979
50402SOL    HW258257  10.422   4.339   1.652  0.6400  1.1893  0.5679
50403SOL     OW58258   0.249   9.465   0.033 -0.3472  0.1295 -0.1346
50403SOL    HW158259   0.171   9.420   0.065 -1.1182  0.5534 -1.3608
50403SOL    HW258260   0.226   9.494  -0.055  0.8188  1.2062 -0.1183
50404SOL     OW58261  10.458   7.630   9.743 -0.4165 -0.5222 -0.4958
50404SOL    HW158262  10.418   7.550   9.709  1.9648 -1.6695 -0.8217
50404SOL    HW258263  10.472   7.613   9.836 -0.0833 -0.4194 -0.5247
50405SOL     OW58264   0.998   4.642   2.038  0.7313  0.5901 -0.1150
50405SOL    HW158265   0.930   4.596   2.088  0.3593  2.0832  0.8229
50405SOL    HW258266   1.067   4.659   2.102  1.8126 -0.4745 -0.9476
50406SOL     OW58267   7.145   7.627  11.353 -0.0262 -0.1696 -0.1290
50406SOL    HW158268   7.199   7.691  11.307 -0.3354  1.1005  1.2293
50406SOL    HW258269   7.179   7.625  11.442 -0.0916 -1.8444 -0.1163
50407SOL     OW58270  11.412   3.781   6.699  0.0404  0.6440 -0.5275
50407SOL    HW158271  11.383   3.693   6.675  0.1732  0.3273  0.4322
50407SOL    HW258272  11.340   3.838   6.673 -1.4050 -0.0990  1.5701
50408SOL     OW58273   2.782   7.130   1.951 -0.2091 -0.3879 -0.2876
50408SOL    HW158274   2.814   7.127   2.041  1.4411  1.3528 -0.7287
50408SOL    HW258275   2.858   7.105   1.898 -0.1414  1.6637 -1.2818
50409SOL     OW58276   3.321   0.253  10.564  0.0428  0.6981  0.2421
50409SOL    HW158277   3.414   0.266  10.583  0.3079  2.1886 -1.6905
50409SOL    HW258278   3.318   0.246  10.468 -1.6080 -1.6118  0.4031
50410SOL     OW58279   5.392   4.552   4.959 -0.4934  0.2392 -0.0387
50410SOL    HW158280   5.378   4.472   4.908  2.1568 -0.0703 -0.4211
50410SOL    HW258281   5.401   4.621   4.893  1.2142  0.1240  0.0252
50411SOL     OW58282  10.131   9.581  10.977 -0.1086  0.4304 -0.2988
50411SOL    HW158283  10.214   9.575  10.930  0.9177 -0.8753  1.5219
50411SOL    HW258284  10.107   9.490  10.995 -0.0303  0.8191  2.2318
50412SOL     OW58285   8.909   7.470   3.077  0.0396 -0.0350  0.8240
50412SOL    HW158286   8.923   7.511   3.163 -0.0950 -0.8357  1.2305
50412SOL    HW258287   8.856   7.393   3.095  0.6392 -0.6300  0.1202
50413SOL     OW58288   9.064  10.799  10.948 -0.1367 -0.0179  0.0618
50413SOL    HW158289   9.072  10.766  10.858  1.3018 -2.4921  0.9760
50413SOL    HW258290   9.145  10.769  10.990 -0.3651  1.8754  1.9764
50414SOL     OW58291  10.208  12.441   8.005 -0.0141 -0.4678 -0.0124
50414SOL    HW158292  10.223  12.368   8.065 -0.6860 -0.7258 -0.1490
50414SOL    HW258293  10.289  12.447   7.954  0.1982 -0.8581  0.2719
50415SOL     OW58294   5.277   7.977   5.493 -0.1241 -0.3090  0.2468
50415SOL    HW158295   5.202   8.023   5.456 -0.1537 -1.0454 -0.6274
50415SOL    HW258296   5.275   7.890   5.454  1.6423 -0.0874 -0.4446
50416SOL     OW58297   2.254   3.512   2.948 -0.0634 -0.3667 -0.5644
50416SOL    HW158298   2.320   3.555   2.894 -1.7596  0.7697 -1.8567
50416SOL    HW258299   2.215   3.447   2.889 -0.2022 -0.9266  0.1352
50417SOL     OW58300   3.194   6.521   6.094  0.2564 -0.0252 -0.2631
50417SOL    HW158301   3.221   6.594   6.150 -0.0900  0.7924 -1.1171
50417SOL    HW258302   3.100   6.515   6.106  0.3411 -0.6062  0.1149
50418SOL     OW58303   6.688   6.986   9.481  0.2428 -0.3071  0.0956
50418SOL    HW158304   6.674   6.956   9.570  0.2790 -0.8698 -0.0880
50418SOL    HW258305   6.610   6.956   9.433  0.4011 -0.3379 -0.1434
50419SOL     OW58306   3.328   4.792  11.557  0.5006  0.1212  0.1898
50419SOL    HW158307   3.292   4.878  11.576 -1.7759 -0.5541 -0.6890
50419SOL    HW258308   3.303   4.738  11.632 -1.9560 -0.7503 -1.1387
50420SOL     OW58309   7.643  11.740  10.613 -0.2700 -0.1037  0.2211
50420SOL    HW158310   7.652  11.661  10.666 -1.6372 -1.2180 -1.1186
50420SOL    HW258311   7.573  11.789  10.656 -2.0887 -1.4855 -1.0050
50421SOL     OW58312   6.049   3.321   6.333  0.0836  0.1242  0.1844
50421SOL    HW158313   5.956   3.327   6.311 -0.0621  0.9490  0.9602
50421SOL    HW258314   6.093   3.372   6.264 -0.2555  1.6257  1.0237
50422SOL     OW58315   9.649   8.251   7.833 -0.1055 -0.1419 -0.0982
50422SOL    HW158316   9.735   8.275   7.869 -1.1121  1.7975  1.2041
50422SOL    HW258317   9.593   8.241   7.909 -1.0598 -1.4420 -0.9286
50423SOL     OW58318  10.885   8.065   2.320  0.3955  0.6116  0.1177
50423SOL    HW158319  10.958   8.102   2.271  0.8944 -0.1540  0.2752
50423SOL    HW258320  10.852   7.994   2.265  0.0437  0.6635  0.2538
50424SOL     OW58321  11.820   3.769   0.255  0.0653  0.0129  0.0832
50424SOL    HW158322  11.850   3.854   0.222 -0.3703 -0.5195 -1.7994
50424SOL    HW258323  11.818   3.712   0.178 -0.5316 -1.4758  1.1368
50425SOL     OW58324   7.985   3.209   0.977  0.1020  0.1758 -0.1934
50425SOL    HW158325   7.901   3.175   1.009 -0.1639  0.3083 -0.7377
50425SOL    HW258326   7.970   3.304   0.970  1.0306  0.5327  1.9281
50426SOL     OW58327   6.229   4.771  12.028 -0.3520  0.0769 -0.4827
50426SOL    HW158328   6.273   4.853  12.006  2.4408 -0.9089  1.0021
50426SOL    HW258329   6.228   4.721  11.946 -1.3722  1.2216 -1.2055
50427SOL     OW58330   1.257   7.171   8.104 -0.0531  0.8104  0.5449
50427SOL    HW158331   1.351   7.172   8.122  0.0975  0.0513 -0.1613
50427SOL    HW258332   1.248   7.222   8.023  0.1538 -1.5730 -1.0825
50428SOL     OW58333   7.399   2.530   4.224 -0.5296  0.0805 -0.5388
50428SOL    HW158334   7.375   2.575   4.305 -2.0537  0.5780 -1.2346
50428SOL    HW258335   7.445   2.597   4.173 -2.7037  0.9246 -1.5287
50429SOL     OW58336   1.359   7.777  12.193 -0.5098 -0.1906 -0.1271
50429SOL    HW158337   1.320   7.690  12.205  1.0421 -0.9441 -0.3267
50429SOL    HW258338   1.377   7.808  12.282  0.0590 -0.6139 -0.0907
50430SOL     OW58339   2.512   7.069   7.311  0.4858 -0.1831  0.3757
50430SOL    HW158340   2.493   7.013   7.387 -0.0238  0.8250  1.0163
50430SOL    HW258341   2.558   7.144   7.348  1.2414 -0.2073 -0.4833
50431SOL     OW58342  10.111   1.576   3.608 -0.1534 -0.0847 -0.4534
50431SOL    HW158343  10.188   1.580   3.664 -0.2787  0.6367 -0.3149
50431SOL    HW258344  10.107   1.663   3.567 -0.6163 -0.2756 -0.8221
50432SOL     OW58345   3.832  11.659   3.698 -0.7060  0.9788 -0.3475
50432SOL    HW158346   3.764  11.676   3.763  0.2341  1.7470  0.4711
50432SOL    HW258347   3.864  11.746   3.674  0.6970  0.6108  0.0782
50433SOL     OW58348   1.698   2.725   8.797 -0.3423  0.4262 -0.4396
50433SOL    HW158349   1.725   2.646   8.843 -1.0055 -0.0638 -0.8675
50433SOL    HW258350   1.669   2.785   8.866  0.0835  0.2641 -0.1188
50434SOL     OW58351  10.363   1.072   7.047 -0.2230  0.2557 -0.4551
50434SOL    HW158352  10.304   1.077   7.122 -0.5349 -0.4997 -0.6423
50434SOL    HW258353  10.305   1.059   6.972  0.1546  0.0166 -0.7034
50435SOL     OW58354   9.799   8.710   8.181  0.3239  0.6073 -0.9607
50435SOL    HW158355   9.802   8.800   8.147  0.6746 -0.3620 -3.7310
50435SOL    HW258356   9.706   8.688   8.181  0.2546  0.8835 -0.4733
50436SOL     OW58357   8.903   5.581   4.964  0.3580 -0.1917  0.1594
50436SOL    HW158358   8.956   5.660   4.970 -0.7340  0.5428  0.4284
50436SOL    HW258359   8.814   5.610   4.985 -0.1077 -1.4398 -0.0019
50437SOL     OW58360   3.419  11.708  11.349  0.0176  0.7079  0.2021
50437SOL    HW158361   3.426  11.685  11.256  2.1704 -0.4564  0.5679
50437SOL    HW258362   3.326  11.723  11.363 -0.5079 -0.1262 -1.9107
50438SOL     OW58363  11.477   8.277   3.688 -0.8044 -0.3481 -0.1234
50438SOL    HW158364  11.515   8.197   3.650 -2.2131 -0.6341 -0.9996
50438SOL    HW258365  11.409   8.245   3.747 -0.7293  0.1867  0.2523
50439SOL     OW58366  10.301   6.358   8.972 -0.1996  0.1704 -0.0753
50439SOL    HW158367  10.255   6.393   9.049  0.0946  0.9434 -0.2444
50439SOL    HW258368  10.294   6.263   8.982 -1.6557  0.2595  0.0121
50440SOL     OW58369  10.256   5.305   7.876 -0.2362  0.0596  0.1155
50440SOL    HW158370  10.242   5.214   7.901  0.8756  0.3894  2.1412
50440SOL    HW258371  10.168   5.341   7.865 -0.7474 -0.6520  1.6819
50441SOL     OW58372   5.728   9.349   3.234  0.1072 -0.4335 -0.4925
50441SOL    HW158373   5.712   9.263   3.273  1.2301 -1.3319 -1.9018
50441SOL    HW258374   5.676   9.349   3.154  1.2360 -0.4156 -1.2539
50442SOL     OW58375   6.467   8.100   9.547 -0.5267 -0.7518  0.2433
50442SOL    HW158376   6.551   8.145   9.535 -0.5341 -1.0390 -1.0940
50442SOL    HW258377   6.401   8.166   9.526 -0.5407 -1.2697 -1.5475
50443SOL     OW58378   1.590  11.686   1.587  0.2023 -0.1335  0.3906
50443SOL    HW158379   1.618  11.707   1.498  1.4088 -0.7089  0.6085
50443SOL    HW258380   1.649  11.615   1.614 -0.6606 -0.5002  1.3639
50444SOL     OW58381   5.479   7.166  11.358  0.0886  0.9363  0.3094
50444SOL    HW158382   5.456   7.212  11.439 -0.1362  0.7519  0.3510
50444SOL    HW258383   5.549   7.218  11.320  1.6339 -0.0702  1.6494
50445SOL     OW58384   5.568   0.995   7.627 -0.1249  0.1899  0.4834
50445SOL    HW158385   5.512   0.943   7.569  0.4608  0.4934 -0.3836
50445SOL    HW258386   5.656   0.957   7.616  0.0097  0.3138  1.1018
50446SOL     OW58387   1.663   6.575   9.684 -0.9172 -0.2758 -0.2420
50446SOL    HW158388   1.661   6.670   9.695 -1.5711 -0.3379  0.2170
50446SOL    HW258389   1.583   6.555   9.635 -0.3611 -0.5094 -1.0836
50447SOL     OW58390   5.010   5.287  11.469  0.2183  0.3953 -1.2574
50447SOL    HW158391   4.943   5.317  11.531 -0.1803 -1.4600 -0.7129
50447SOL    HW258392   5.082   5.258  11.525  0.7148  0.6306 -1.7666
50448SOL     OW58393   8.868   5.098   2.968 -0.0150  0.1617 -0.9224
50448SOL    HW158394   8.807   5.143   2.909  0.4665 -1.1558 -2.5277
50448SOL    HW258395   8.942   5.158   2.977 -0.0807  0.3775 -1.7280
50449SOL     OW58396   7.747   5.552   8.125  0.3153  0.1630 -0.6676
50449SOL    HW158397   7.690   5.592   8.190 -0.1812 -1.0808 -0.3028
50449SOL    HW258398   7.803   5.624   8.094  2.1133  0.4644  2.7305
50450SOL     OW58399  11.368   4.123  12.152 -0.1745  0.2352 -0.5572
50450SOL    HW158400  11.307   4.180  12.200  1.3564  1.0080  0.5930
50450SOL    HW258401  11.447   4.122  12.207  0.2828 -2.0711 -1.1547
50451SOL     OW58402  11.438   1.788   3.902  0.4880 -0.4266 -0.6987
50451SOL    HW158403  11.465   1.717   3.959 -1.6699 -0.8969 -0.1800
50451SOL    HW258404  11.516   1.844   3.894  0.9319 -0.4189  2.5511
50452SOL     OW58405   7.550  10.328  11.270  0.1655 -0.2198  0.2079
50452SOL    HW158406   7.616  10.397  11.271  1.4952 -1.4570  1.8091
50452SOL    HW258407   7.543  10.300  11.361  0.0473 -2.5551 -0.4771
50453SOL     OW58408   3.702   9.059   6.933 -0.6286  0.4906 -0.2285
50453SOL    HW158409   3.757   9.129   6.967 -0.7271  0.1204  0.7279
50453SOL    HW258410   3.614   9.097   6.929 -0.4768  0.7959 -0.8913
50454SOL     OW58411   5.276   1.127  11.041  0.3770  0.8605  0.0939
50454SOL    HW158412   5.217   1.139  11.115 -1.2774  0.6133 -1.1393
50454SOL    HW258413   5.232   1.064  10.984  1.8342  0.6628 -0.8925
50455SOL     OW58414   7.717   8.868  12.553 -0.2372  0.1589  0.1379
50455SOL    HW158415   7.795   8.921  12.539 -0.3647  0.4228  0.4107
50455SOL    HW258416   7.666   8.917  12.618 -0.5823 -0.0600  0.0368
50456SOL     OW58417   7.936   1.833  11.871  0.0923 -0.0011  0.9466
50456SOL    HW158418   7.978   1.847  11.957  4.1054 -2.1371 -0.3846
50456SOL    HW258419   7.953   1.741  11.851 -2.5325 -0.1171 -1.3481
50457SOL     OW58420  12.401   4.032   5.210  0.0446 -0.1301  0.4132
50457SOL    HW158421  12.413   3.940   5.185  2.1714  0.6987 -2.0357
50457SOL    HW258422  12.486   4.058   5.247 -0.1527  1.1396  0.0227
50458SOL     OW58423   2.851   3.770   4.823 -0.3900  0.4121  0.4566
50458SOL    HW158424   2.864   3.799   4.913 -0.5864  0.9154  0.3264
50458SOL    HW258425   2.882   3.680   4.822 -0.1009  0.5043  0.9538
50459SOL     OW58426   3.117   4.421   4.515  0.0782 -0.5181  0.1294
50459SOL    HW158427   3.208   4.430   4.543  0.1765  0.0358 -0.3455
50459SOL    HW258428   3.099   4.328   4.522 -0.1602 -0.3766  2.8204
50460SOL     OW58429   2.793   2.703   7.844 -0.0667  0.1262 -0.3132
50460SOL    HW158430   2.756   2.669   7.925  1.6627 -1.9532 -0.3077
50460SOL    HW258431   2.862   2.764   7.872  0.9198 -1.0252 -0.1590
50461SOL     OW58432   4.662   0.854   8.911  0.2544 -0.7636  0.1752
50461SOL    HW158433   4.677   0.805   8.992  0.6376 -2.1253 -0.6793
50461SOL    HW258434   4.714   0.934   8.921  2.2144 -1.9896  0.3315
50462SOL     OW58435  10.895   7.018   6.322 -0.5663 -0.2506 -0.0176
50462SOL    HW158436  10.986   6.995   6.343 -0.8135 -0.8948  0.3753
50462SOL    HW258437  10.848   7.009   6.405 -0.9968  0.0442 -0.2270
50463SOL     OW58438   9.655   7.573   6.411  0.0403 -0.0745  0.4969
50463SOL    HW158439   9.565   7.604   6.419 -0.4286 -1.1372 -0.3751
50463SOL    HW258440   9.651   7.507   6.342  1.2316 -1.0957  1.3621
50464SOL     OW58441   6.253   1.844   7.525  0.0755  0.2808 -0.1685
50464SOL    HW158442   6.277   1.752   7.533  1.5360  0.5744 -0.8125
50464SOL    HW258443   6.228   1.870   7.614  0.4847 -0.5179  0.1924
50465SOL     OW58444   4.235   1.927  10.865  0.1350 -0.3976 -0.2108
50465SOL    HW158445   4.228   1.995  10.798 -0.0210  1.7876  1.8686
50465SOL    HW258446   4.326   1.897  10.859  0.6369  1.0439 -0.2874
50466SOL     OW58447   3.549   8.706  12.291 -0.0134  0.1201  0.1655
50466SOL    HW158448   3.532   8.632  12.348 -0.3247  0.1629  0.1261
50466SOL    HW258449   3.492   8.693  12.215 -1.0018  1.0374  0.7129
50467SOL     OW58450  12.427   2.843   3.318  0.6201 -0.0105  0.1380
50467SOL    HW158451  12.353   2.888   3.359  1.5077  2.1357 -0.4558
50467SOL    HW258452  12.501   2.861   3.375  0.7256 -2.1464  0.7307
50468SOL     OW58453   8.904   6.442   3.916  0.6712 -0.2341  0.3331
50468SOL    HW158454   8.918   6.410   4.005  1.1109 -1.5808 -0.1897
50468SOL    HW258455   8.978   6.408   3.866  0.7215  0.9560 -0.4495
50469SOL     OW58456   2.431   8.488  12.395  0.1507  1.1667 -0.2803
50469SOL    HW158457   2.413   8.394  12.397  0.3589  0.9833 -2.8407
50469SOL    HW258458   2.459   8.509  12.483  2.9066 -1.7664 -0.2701
50470SOL     OW58459   1.851   2.092   3.828  0.2491 -0.1838  0.6745
50470SOL    HW158460   1.776   2.076   3.770  1.3231 -0.9132 -0.5998
50470SOL    HW258461   1.819   2.153   3.894 -1.1578  0.3682 -0.4690
50471SOL     OW58462  10.361   9.511   1.202  0.8609 -0.4945 -0.3937
50471SOL    HW158463  10.295   9.533   1.137  0.3649 -1.6107 -0.2923
50471SOL    HW258464  10.319   9.445   1.258  2.3025 -1.8098 -0.7980
50472SOL     OW58465   2.616   9.698   0.667 -0.0689 -0.5521  0.7260
50472SOL    HW158466   2.602   9.793   0.667  1.2232 -0.3382  0.8731
50472SOL    HW258467   2.615   9.674   0.760  2.2160 -0.2219  0.8874
50473SOL     OW58468  12.306   8.332   0.782 -0.2831  0.6481  0.3270
50473SOL    HW158469  12.398   8.310   0.767 -0.3507  0.8233 -0.3729
50473SOL    HW258470  12.262   8.308   0.701 -1.0535 -0.4599  1.0360
50474SOL     OW58471   6.387   1.578   0.224 -1.2109  0.0819  0.2090
50474SOL    HW158472   6.391   1.493   0.269  0.1388  0.5494  1.0393
50474SOL    HW258473   6.376   1.642   0.294 -2.0288  0.6326 -0.3971
50475SOL     OW58474  10.119  10.752   3.321  0.0312 -0.3514  0.0046
50475SOL    HW158475  10.190  10.688   3.320 -0.4542 -0.9167  0.8768
50475SOL    HW258476  10.102  10.768   3.413 -0.4335  0.3943 -0.2020
50476SOL     OW58477   9.144   3.566   0.866 -0.1642  0.4590  0.3462
50476SOL    HW158478   9.053   3.567   0.835 -0.5509 -0.4978  1.3884
50476SOL    HW258479   9.160   3.655   0.897 -0.4845  0.8369 -0.5287
50477SOL     OW58480  11.650   0.109   5.917  0.6646  0.0769 -0.7779
50477SOL    HW158481  11.731   0.074   5.879  0.9568  0.6045 -0.6484
50477SOL    HW258482  11.633   0.189   5.867 -1.0728 -1.2287 -2.4116
50478SOL     OW58483   8.364  10.791   0.496  0.4405 -0.1300  0.3207
50478SOL    HW158484   8.317  10.831   0.569 -0.6217  1.1165 -0.9890
50478SOL    HW258485   8.353  10.697   0.510 -1.4851  0.1051  0.6976
50479SOL     OW58486  10.127   8.909  12.480  0.3096 -0.5479  0.0001
50479SOL    HW158487  10.165   8.996  12.465  0.2625 -0.7895 -1.8129
50479SOL    HW258488  10.174   8.852  12.418 -0.6931 -1.5123  0.1026
50480SOL     OW58489   4.355   1.971   7.867  0.2722 -0.3085 -0.0443
50480SOL    HW158490   4.286   1.908   7.887 -0.9997  0.5532 -1.4701
50480SOL    HW258491   4.313   2.056   7.878  1.2902  0.2512 -0.3660
50481SOL     OW58492   4.572   6.700   7.430  0.0274  0.6991 -0.0660
50481SOL    HW158493   4.525   6.777   7.461  0.1922  0.7255  0.1258
50481SOL    HW258494   4.549   6.631   7.492 -1.8439  0.0051 -1.4605
50482SOL     OW58495   5.104  10.460   1.467  0.1897  0.3456 -0.4837
50482SOL    HW158496   5.072  10.451   1.557  0.4371 -0.9277 -0.5007
50482SOL    HW258497   5.196  10.431   1.472  0.0854 -0.1464 -1.2114
50483SOL     OW58498   9.935   3.365   1.708  0.1362  0.0533 -0.2978
50483SOL    HW158499  10.016   3.346   1.660 -0.0050 -0.0535 -0.4939
50483SOL    HW258500   9.906   3.279   1.740  1.0135  0.2958  1.2383
50484SOL     OW58501   6.157  11.985  10.253 -0.5652 -0.0614 -0.3113
50484SOL    HW158502   6.101  12.029  10.316 -0.4177 -2.0792  1.3437
50484SOL    HW258503   6.101  11.921  10.210 -0.1739 -0.1426 -0.7164
50485SOL     OW58504   5.487   7.305  10.178 -0.0082  0.0969  0.0541
50485SOL    HW158505   5.507   7.394  10.207 -0.1700  1.1231 -2.7447
50485SOL    HW258506   5.571   7.269  10.149 -0.1673 -0.2162 -0.0280
50486SOL     OW58507   7.209   9.228   3.217  0.7944  0.4792 -0.2853
50486SOL    HW158508   7.182   9.203   3.305  0.9673  1.3453  0.0266
50486SOL    HW258509   7.260   9.154   3.185 -1.0507 -0.7849 -0.5033
50487SOL     OW58510  10.869   6.058   8.294 -0.2340 -0.4820 -0.1643
50487SOL    HW158511  10.954   6.100   8.285  0.8273 -2.6410 -0.7004
50487SOL    HW258512  10.868   6.026   8.385 -0.9913  0.5195  0.2050
50488SOL     OW58513  10.171   5.570  12.206 -0.4196  0.2184 -0.2143
50488SOL    HW158514  10.144   5.615  12.126  3.0929  0.1835 -1.5691
50488SOL    HW258515  10.218   5.636  12.256  4.4649 -1.4179 -2.0497
50489SOL     OW58516  10.774   7.004   3.568 -0.0339 -0.6232  0.2318
50489SOL    HW158517  10.817   7.079   3.526  1.2365 -1.8078 -0.7035
50489SOL    HW258518  10.681   7.015   3.549  0.0297  1.1108  0.7909
50490SOL     OW58519   7.824   6.175   9.135 -0.0460  0.2256  0.0858
50490SOL    HW158520   7.829   6.152   9.042 -1.2912  0.0110  0.0557
50490SOL    HW258521   7.864   6.261   9.141 -0.7926  0.6509 -0.8143
50491SOL     OW58522   8.407   6.452  10.565 -0.5325  0.2830 -0.9517
50491SOL    HW158523   8.455   6.384  10.613 -0.1641 -0.4471 -2.3011
50491SOL    HW258524   8.453   6.459  10.481 -0.6169  2.1643 -0.8759
50492SOL     OW58525   7.896   9.911   2.078 -0.3598 -0.3184 -0.1905
50492SOL    HW158526   7.912   9.985   2.019 -0.0323 -0.1538  0.0966
50492SOL    HW258527   7.822   9.939   2.132  2.3442  1.7262  2.9063
50493SOL     OW58528   9.452   7.956  11.603  0.6054  0.1556 -0.2165
50493SOL    HW158529   9.423   7.874  11.564  0.2268  0.3733 -0.4087
50493SOL    HW258530   9.526   7.984  11.549  0.7170 -0.0449 -0.1658
50494SOL     OW58531   6.800   5.926   7.595 -0.0397 -0.7065  0.0637
50494SOL    HW158532   6.740   5.885   7.658 -0.7422  1.0808  0.6292
50494SOL    HW258533   6.743   5.972   7.534  0.6922  1.0610  0.6322
50495SOL     OW58534  10.620   4.149   6.700 -0.1462 -0.0967  0.0572
50495SOL    HW158535  10.594   4.070   6.747 -3.6390  0.4646 -0.6395
50495SOL    HW258536  10.610   4.126   6.607 -0.5692  0.9513 -0.1655
50496SOL     OW58537   2.026   4.103   6.005 -1.0996 -0.0516  0.1768
50496SOL    HW158538   1.991   4.097   5.916 -3.4253  0.5043  0.9906
50496SOL    HW258539   2.022   4.014   6.038 -0.2881 -0.2486 -0.2272
50497SOL     OW58540   3.089  10.637   6.627 -0.2701  0.3149 -0.1950
50497SOL    HW158541   3.001  10.632   6.664 -1.2231  0.4199 -2.2960
50497SOL    HW258542   3.083  10.587   6.545  2.5419 -2.5794  1.1530
50498SOL     OW58543  12.370   5.492   7.912 -0.2016 -0.7758 -0.2601
50498SOL    HW158544  12.455   5.449   7.917  0.0695 -0.2455 -0.1606
50498SOL    HW258545  12.312   5.438   7.966  0.4477 -0.2934  0.9858
50499SOL     OW58546   3.041   4.032   0.883  0.1791  0.3027  0.3945
50499SOL    HW158547   3.002   3.946   0.893 -3.0716  1.2789 -2.2301
50499SOL    HW258548   3.097   4.025   0.805 -1.7527  0.9634 -1.1226
50500SOL     OW58549   2.505  12.477   6.287 -0.3048  0.2196  0.1168
50500SOL    HW158550   2.568  12.546   6.309 -0.7990  0.5418  0.5461
50500SOL    HW258551   2.558  12.400   6.271  0.2474  0.6593 -0.2083
50501SOL     OW58552   2.672   9.191   8.008 -0.0740 -0.4686  0.3072
50501SOL    HW158553   2.612   9.222   7.940 -1.6206  2.0793  2.6282
50501SOL    HW258554   2.757   9.187   7.965 -1.1917 -0.2330 -2.0806
50502SOL     OW58555  11.664   8.218   4.282  0.0590  0.3684  0.0430
50502SOL    HW158556  11.624   8.175   4.206 -0.5770 -0.1680  0.6636
50502SOL    HW258557  11.609   8.296   4.296  1.1940  1.4136 -1.0638
50503SOL     OW58558   2.264  10.208   2.070 -0.4912 -0.2199  0.4944
50503SOL    HW158559   2.260  10.290   2.119  0.6795  0.1315  0.0470
50503SOL    HW258560   2.243  10.140   2.134  0.2608  0.2856  1.3012
50504SOL     OW58561   1.407   4.082   6.962  0.2513  0.4953 -0.4005
50504SOL    HW158562   1.500   4.075   6.980 -0.1260  0.6218  1.9181
50504SOL    HW258563   1.375   3.991   6.965  0.0663  0.5806  0.3263
50505SOL     OW58564   0.151   0.320   3.513  0.0437  0.7780  0.1210
50505SOL    HW158565   0.154   0.297   3.420 -0.0689 -0.6297  0.4570
50505SOL    HW258566   0.058   0.314   3.536  0.1756  0.3314  0.5263
50506SOL     OW58567  10.129   2.046   2.117 -0.7019 -0.3525 -0.1647
50506SOL    HW158568  10.097   2.009   2.200 -0.4537 -0.1857  0.0083
50506SOL    HW258569  10.051   2.076   2.072 -0.7756  0.2057  0.3304
50507SOL     OW58570  10.238   9.856  11.775 -0.4730 -0.0862 -0.0121
50507SOL    HW158571  10.308   9.898  11.825 -1.3274  1.5838 -0.1515
50507SOL    HW258572  10.274   9.845  11.687  0.4852 -1.6090  0.5355
50508SOL     OW58573   6.085   9.024  11.130 -0.5962 -0.0938  0.5095
50508SOL    HW158574   6.077   8.931  11.110 -2.4734  0.3263 -1.0075
50508SOL    HW258575   6.143   9.028  11.206  0.0784 -2.4329  0.1717
50509SOL     OW58576  10.653   5.875   4.600  0.4473 -0.7566  0.5493
50509SOL    HW158577  10.572   5.832   4.629 -0.4937  1.4074  1.3207
50509SOL    HW258578  10.701   5.806   4.553 -1.0537 -2.5507  1.5225
50510SOL     OW58579   5.524  10.043   1.948 -0.0077  0.6354  0.7199
50510SOL    HW158580   5.450  10.048   2.009 -2.3026  0.3725 -1.7974
50510SOL    HW258581   5.557  10.132   1.941 -0.7832  0.9609  1.1292
50511SOL     OW58582  11.164   9.198   9.102 -0.3052 -0.0692  0.6278
50511SOL    HW158583  11.120   9.245   9.172 -2.0076 -1.7802  0.7917
50511SOL    HW258584  11.243   9.250   9.084  0.1586  0.4947  3.7031
50512SOL     OW58585  11.611   7.775   4.970  0.0038  0.3255 -0.0517
50512SOL    HW158586  11.584   7.812   5.054  0.9004 -1.1626  0.9566
50512SOL    HW258587  11.561   7.694   4.963 -1.2574  1.1969 -1.7712
50513SOL     OW58588  10.653  10.027  10.183  0.1920  0.7725  0.2070
50513SOL    HW158589  10.607   9.991  10.107 -0.7417  0.6607  0.8038
50513SOL    HW258590  10.743  10.038  10.154 -0.1045  0.5293 -0.8477
50514SOL     OW58591   5.414   6.059   0.505  0.3090 -0.4522 -0.2266
50514SOL    HW158592   5.414   6.015   0.591  0.6894 -1.1225 -0.5632
50514SOL    HW258593   5.414   6.152   0.527  1.3789 -0.6018  0.5215
50515SOL     OW58594   7.089   9.347   7.772  0.1830 -0.4253 -0.0834
50515SOL    HW158595   7.025   9.417   7.786 -0.2902 -1.0327  0.7893
50515SOL    HW258596   7.155   9.361   7.840 -0.0952 -1.0316  0.3178
50516SOL     OW58597   2.141   7.776   2.129  0.6187 -0.1128  0.2055
50516SOL    HW158598   2.047   7.757   2.135  0.5165 -0.7163 -2.2731
50516SOL    HW258599   2.170   7.731   2.049  2.3050  2.6727 -0.9061
50517SOL     OW58600   0.361  11.292   8.445 -0.0155  0.1697 -0.3105
50517SOL    HW158601   0.339  11.201   8.428 -0.2240  0.0025  0.8360
50517SOL    HW258602   0.276  11.338   8.443 -0.2466 -0.1041  1.7768
50518SOL     OW58603   5.984   5.627   4.170 -0.1942 -0.4195 -0.3699
50518SOL    HW158604   6.021   5.712   4.192 -0.4237 -0.7145  1.3198
50518SOL    HW258605   6.058   5.576   4.138  0.8894 -0.8193  2.4309
50519SOL     OW58606   6.766  10.326  12.267  0.3456 -0.4174  0.2768
50519SOL    HW158607   6.770  10.422  12.266  2.4793 -0.4049 -2.6200
50519SOL    HW258608   6.826  10.301  12.337 -0.9568  0.2888  1.7113
50520SOL     OW58609   0.488   2.107   9.118 -0.0688  0.3197 -0.5770
50520SOL    HW158610   0.462   2.173   9.054 -0.9274  0.5044 -0.0562
50520SOL    HW258611   0.497   2.155   9.200  0.5806  0.0070 -0.4572
50521SOL     OW58612   5.371   0.402  10.464  0.2480 -0.2571  0.4349
50521SOL    HW158613   5.297   0.419  10.405  2.6062  0.1736 -2.6243
50521SOL    HW258614   5.400   0.314  10.441  1.3683  0.0013  0.8016
50522SOL     OW58615   9.571  10.855   4.830  0.0495 -0.1014 -0.2338
50522SOL    HW158616   9.585  10.946   4.854  0.8916 -0.4838  0.8007
50522SOL    HW258617   9.502  10.825   4.889  0.7376 -0.5033  0.3764
50523SOL     OW58618   0.201  12.167   9.599 -0.0574 -0.1059  0.3484
50523SOL    HW158619   0.198  12.149   9.505  1.6409 -0.8539  0.4117
50523SOL    HW258620   0.138  12.238   9.612 -0.0846  0.2229 -1.4097
50524SOL     OW58621  11.215   4.143  12.538 -0.0539  0.1671 -1.1923
50524SOL    HW158622  11.299   4.110  12.509 -0.6118 -0.5567 -2.0430
50524SOL    HW258623  11.181   4.076  12.597  1.1510  1.7042  1.4231
50525SOL     OW58624   5.330   3.793   0.918  0.2681  0.4862  0.3210
50525SOL    HW158625   5.376   3.714   0.945 -0.9555  0.2876  1.9853
50525SOL    HW258626   5.253   3.762   0.870 -0.2555  0.6412  1.0402
50526SOL     OW58627   6.863  10.709   6.692  0.7464 -0.1778 -0.1576
50526SOL    HW158628   6.928  10.762   6.647  2.7476 -3.3113 -1.2901
50526SOL    HW258629   6.837  10.642   6.628 -1.9680 -0.3967  1.0147
50527SOL     OW58630   4.580   0.072  10.461 -0.2082 -0.2556 -0.8570
50527SOL    HW158631   4.662   0.022  10.468  0.9281  1.6402  0.2307
50527SOL    HW258632   4.519   0.025  10.517  1.0463 -0.0777  0.7410
50528SOL     OW58633   7.098   2.102   5.074  0.4289 -0.2713 -1.0443
50528SOL    HW158634   7.092   2.159   4.998  1.4286  0.6129 -0.4881
50528SOL    HW258635   7.138   2.021   5.041  1.4977  0.3624 -1.3443
50529SOL     OW58636   9.085   5.960   1.842  0.1219  0.3005  0.4763
50529SOL    HW158637   9.053   5.954   1.932  0.6796 -1.1173  0.6069
50529SOL    HW258638   9.006   5.954   1.788 -0.0724 -0.4777  0.8405
50530SOL     OW58639   3.633   0.842  10.114 -0.0657  0.0496  0.7979
50530SOL    HW158640   3.712   0.812  10.159  1.6138 -1.0979 -2.5415
50530SOL    HW258641   3.590   0.762  10.085 -0.9638  0.7283  0.1960
50531SOL     OW58642   7.611   9.406   1.793 -0.0049  0.0927 -0.0482
50531SOL    HW158643   7.636   9.325   1.748 -0.4679 -0.1721  0.1651
50531SOL    HW258644   7.692   9.457   1.796  0.2839 -0.3446 -0.2165
50532SOL     OW58645   7.809   1.176   6.982 -0.2714 -0.0052 -0.2376
50532SOL    HW158646   7.753   1.249   6.953 -2.0387 -0.9747  0.5728
50532SOL    HW258647   7.843   1.204   7.067 -0.7079 -0.0014 -0.0634
50533SOL     OW58648  10.200   2.998  10.313 -0.7420 -0.0806 -0.0592
50533SOL    HW158649  10.259   3.040  10.376 -1.5707  2.4927 -0.8687
50533SOL    HW258650  10.126   2.967  10.366 -0.4147  0.0578  0.4859
50534SOL     OW58651   0.700   9.807   3.379 -0.0742  0.0390  0.3994
50534SOL    HW158652   0.795   9.805   3.392 -0.0526 -1.4318  0.2261
50534SOL    HW258653   0.666   9.848   3.458  0.7295  1.0768  0.2270
50535SOL     OW58654   4.542   0.990   3.082 -0.1037 -0.6175 -0.7599
50535SOL    HW158655   4.506   0.942   3.007  0.4122  0.5306 -1.7794
50535SOL    HW258656   4.636   0.972   3.079  0.3136  1.5065 -2.0053
50536SOL     OW58657   3.505   8.051   9.778 -0.5790  0.0717 -0.1107
50536SOL    HW158658   3.537   8.080   9.862 -2.3175 -1.5401  1.2059
50536SOL    HW258659   3.410   8.058   9.784 -0.9315 -2.6674 -0.8364
50537SOL     OW58660   0.470   2.635  11.282 -0.3593  0.5960 -0.1583
50537SOL    HW158661   0.433   2.580  11.351  1.1082 -0.2462  0.0040
50537SOL    HW258662   0.564   2.630  11.295  0.1435 -1.2176 -3.3423
50538SOL     OW58663  11.028  11.751  11.398 -0.3519 -0.1026 -0.2819
50538SOL    HW158664  10.949  11.802  11.378 -0.9751 -0.9588 -0.0512
50538SOL    HW258665  11.013  11.666  11.356 -0.2887 -0.8524  1.1605
50539SOL     OW58666   0.492  12.416   0.588 -0.5339  0.3129  0.1100
50539SOL    HW158667   0.547  12.358   0.534 -1.7992  0.4353 -1.3659
50539SOL    HW258668   0.408  12.370   0.595 -0.9427  1.1060  0.5410
50540SOL     OW58669   8.432   1.174   5.577 -0.1664 -0.1674 -0.7814
50540SOL    HW158670   8.414   1.109   5.646  2.9484 -1.3476 -0.9447
50540SOL    HW258671   8.380   1.251   5.603 -2.6420 -2.0611  0.3539
50541SOL     OW58672   9.092  11.505   1.497 -0.9565 -0.3817 -0.6317
50541SOL    HW158673   9.034  11.561   1.445  0.6907  2.0864  0.0202
50541SOL    HW258674   9.174  11.502   1.448  0.8971  2.6178  1.9252
50542SOL     OW58675   5.697  11.980   7.424 -0.2952  0.1155  0.2805
50542SOL    HW158676   5.743  12.001   7.342 -1.8812 -0.7836 -0.8820
50542SOL    HW258677   5.696  12.063   7.472  0.8700  0.6050 -0.4960
50543SOL     OW58678  10.956   0.227   2.776  0.5028  0.0259 -0.6253
50543SOL    HW158679  11.032   0.248   2.831 -0.6187 -1.7219  1.7287
50543SOL    HW258680  10.995   0.200   2.693  2.3768  0.5440  0.0152
50544SOL     OW58681  10.507   5.062   9.318 -0.2508  0.5728 -0.0752
50544SOL    HW158682  10.415   5.077   9.340 -0.6179  0.8202 -1.6917
50544SOL    HW258683  10.506   4.983   9.264  0.5943  0.1046  0.5630
50545SOL     OW58684   8.262   1.751   8.366 -0.1498  0.1857  0.2743
50545SOL    HW158685   8.281   1.823   8.426  0.9141 -0.1183  0.3137
50545SOL    HW258686   8.285   1.785   8.280 -0.5392  0.2041  0.1734
50546SOL     OW58687   7.877  11.325   5.550 -0.2048 -0.1657 -0.6791
50546SOL    HW158688   7.916  11.284   5.627 -2.6329 -1.2679  0.0658
50546SOL    HW258689   7.834  11.403   5.583 -0.0583  0.1362 -1.1871
50547SOL     OW58690   1.611   3.747  11.301 -0.1799 -0.3988 -0.8154
50547SOL    HW158691   1.572   3.754  11.388 -0.9954 -1.8355 -1.0376
50547SOL    HW258692   1.576   3.822  11.253  1.3691  1.2247  0.4464
50548SOL     OW58693   7.012  10.948   3.146 -0.6284 -0.6037 -0.1290
50548SOL    HW158694   7.084  10.919   3.088 -0.3193  0.0854 -0.0980
50548SOL    HW258695   6.972  10.867   3.176  3.0184 -1.3288  3.5705
50549SOL     OW58696   7.558   7.791  11.447  0.2307  0.1599  0.0522
50549SOL    HW158697   7.502   7.863  11.476  0.4696  0.7417 -0.8865
50549SOL    HW258698   7.644   7.812  11.481  0.5376  0.9062 -1.1201
50550SOL     OW58699  12.193   1.125   3.975 -0.0651  0.5888  0.2535
50550SOL    HW158700  12.139   1.192   4.017 -0.7117 -0.0127  0.4085
50550SOL    HW258701  12.163   1.043   4.013 -0.0903  0.1027 -0.7818
50551SOL     OW58702   6.172   2.472   8.249  0.1355  0.0452  0.5607
50551SOL    HW158703   6.198   2.563   8.264 -1.0154  0.2728  1.2863
50551SOL    HW258704   6.229   2.422   8.307 -0.9333  0.5351  2.1148
50552SOL     OW58705   7.519   0.145   6.559  0.1429  0.0030 -0.7092
50552SOL    HW158706   7.497   0.235   6.536 -0.7672 -0.5185 -1.9645
50552SOL    HW258707   7.582   0.154   6.631 -0.2386  1.6225 -0.5324
50553SOL     OW58708   0.060   1.639  11.027 -0.2290  0.1525  0.1260
50553SOL    HW158709   0.082   1.729  11.052  1.5849 -0.5846  1.3527
50553SOL    HW258710   0.046   1.594  11.110 -0.7576 -0.8044 -0.4590
50554SOL     OW58711   4.983   0.757   0.884  0.0725  0.3123 -0.0045
50554SOL    HW158712   4.993   0.701   0.808  0.0214  0.6846 -0.2874
50554SOL    HW258713   5.072   0.767   0.919 -0.1649 -1.6099  1.2591
50555SOL     OW58714   9.671   3.124   9.595  0.3684 -0.3025  0.0346
50555SOL    HW158715   9.674   3.037   9.557 -0.2296  0.4663 -1.9059
50555SOL    HW258716   9.624   3.177   9.530 -0.1008  1.2586  1.5737
50556SOL     OW58717   8.182  11.953   8.063 -0.3527 -0.0668  0.1061
50556SOL    HW158718   8.093  11.984   8.050  0.2664  2.4311  1.2281
50556SOL    HW258719   8.190  11.877   8.005 -3.3804 -0.7954  0.4811
50557SOL     OW58720   1.770   2.374   0.610  0.3684  0.2759  0.1956
50557SOL    HW158721   1.682   2.390   0.643  0.5844  1.3013  0.3118
50557SOL    HW258722   1.767   2.401   0.518  1.1678  2.8031  0.8104
50558SOL     OW58723   4.191   0.430   2.309  0.2223 -0.0468 -0.0618
50558SOL    HW158724   4.250   0.505   2.308 -0.8891  0.8479 -1.3638
50558SOL    HW258725   4.171   0.416   2.402 -1.9164  3.2256  0.1336
50559SOL     OW58726  10.312  10.987   4.944 -0.0067  0.4899  0.1696
50559SOL    HW158727  10.238  10.968   4.887 -0.6906  0.8150  0.9487
50559SOL    HW258728  10.330  10.904   4.988 -1.5793  1.0156  1.9117
50560SOL     OW58729   2.720   3.572   2.682 -0.1756 -0.4162 -0.6699
50560SOL    HW158730   2.722   3.578   2.587 -0.3091 -1.2433 -0.7310
50560SOL    HW258731   2.697   3.481   2.700 -1.2535 -0.0143  0.1416
50561SOL     OW58732   1.460   4.529   8.893  0.5091 -0.0436  0.4562
50561SOL    HW158733   1.415   4.470   8.832  0.1009 -0.8946  1.5583
50561SOL    HW258734   1.513   4.471   8.948  1.1030  0.7386  0.7318
50562SOL     OW58735   4.397  10.733   2.125  0.8510 -0.2288  0.1529
50562SOL    HW158736   4.334  10.748   2.055  0.4287  0.6692  0.7035
50562SOL    HW258737   4.346  10.741   2.205  1.6549  0.5544  0.6086
50563SOL     OW58738  10.595   7.177   9.566 -0.6566  0.5282 -0.4450
50563SOL    HW158739  10.611   7.173   9.471  0.1580  2.4069 -0.4469
50563SOL    HW258740  10.665   7.234   9.599 -0.2328 -1.0102  1.4860
50564SOL     OW58741   9.954  12.560   3.823 -0.1831 -0.3648  0.1955
50564SOL    HW158742   9.956  12.510   3.741 -1.6608 -0.7052  0.3475
50564SOL    HW258743   9.890  12.629   3.807 -0.9655 -0.8220  1.2778
50565SOL     OW58744   6.151   6.814   9.371 -0.6188  0.5600 -0.1388
50565SOL    HW158745   6.070   6.838   9.416 -0.0979  1.3839  0.3977
50565SOL    HW258746   6.126   6.744   9.311 -1.7912  1.0451 -0.2378
50566SOL     OW58747   3.518   8.808   7.484 -0.2131  0.3271  0.0257
50566SOL    HW158748   3.546   8.841   7.399 -1.2165 -0.3819 -0.6018
50566SOL    HW258749   3.438   8.759   7.465 -1.2169  1.3091  1.5756
50567SOL     OW58750  12.301  10.091   3.738  0.1502  0.5378 -0.6084
50567SOL    HW158751  12.206  10.089   3.755  0.2808 -0.3288  0.1244
50567SOL    HW258752  12.337  10.142   3.810  0.3433 -0.0862 -0.2513
50568SOL     OW58753   4.991   0.900   7.592 -0.0587  0.0431 -0.3088
50568SOL    HW158754   5.011   0.946   7.510  2.4774  0.3016  0.3774
50568SOL    HW258755   4.964   0.970   7.652 -3.1573 -0.2728 -1.1468
50569SOL     OW58756  11.430   2.897   1.111 -0.4175  0.0182 -0.5341
50569SOL    HW158757  11.522   2.923   1.111 -1.1487  3.0370 -1.9931
50569SOL    HW258758  11.408   2.886   1.018 -1.6159 -0.3407 -0.2244
50570SOL     OW58759   1.702   1.829   0.326  0.5674 -0.3840 -0.1494
50570SOL    HW158760   1.624   1.852   0.377  0.4290  0.0700 -0.5617
50570SOL    HW258761   1.728   1.743   0.360  1.0375  0.3320  1.3672
50571SOL     OW58762   1.562   5.033   8.810 -0.0378  0.4071 -1.0391
50571SOL    HW158763   1.543   4.964   8.873  2.0953 -0.4136 -1.2442
50571SOL    HW258764   1.639   5.003   8.762  1.5652  3.2786 -0.5194
50572SOL     OW58765  12.561   8.328   1.555  0.2446 -0.6805 -0.5855
50572SOL    HW158766  12.539   8.238   1.580  0.6476 -0.5490  0.2618
50572SOL    HW258767  12.654   8.336   1.577  0.7519 -0.6859 -2.5069
50573SOL     OW58768   7.784   9.453   3.367 -0.9392 -0.5690 -0.3288
50573SOL    HW158769   7.819   9.512   3.435  1.9628 -2.4715  0.0206
50573SOL    HW258770   7.724   9.508   3.316  3.9642  3.9471 -2.1946
50574SOL     OW58771   8.594   4.281   5.694  0.1956  0.1530  0.5699
50574SOL    HW158772   8.683   4.248   5.708  0.0205 -0.1522  0.9985
50574SOL    HW258773   8.570   4.322   5.778 -1.0527 -2.1397  1.4232
50575SOL     OW58774   1.163   9.253   5.577 -0.3218 -0.2537  0.0077
50575SOL    HW158775   1.136   9.233   5.666 -2.1845  0.4015 -0.3806
50575SOL    HW258776   1.178   9.347   5.576  1.7907 -0.5304  0.1167
50576SOL     OW58777   5.956   3.437   4.940  0.4919 -0.2820  0.1352
50576SOL    HW158778   5.875   3.474   4.906 -0.1257 -1.5720  0.1361
50576SOL    HW258779   5.994   3.389   4.866  0.8095 -0.4017  0.3729
50577SOL     OW58780   9.735   4.738   4.822 -1.0898  0.0249  0.2018
50577SOL    HW158781   9.663   4.781   4.777  0.6736  0.3248 -2.5799
50577SOL    HW258782   9.792   4.707   4.752  1.7725  0.3009  2.2188
50578SOL     OW58783   6.885   9.329  12.085 -0.0528 -0.0354 -0.2193
50578SOL    HW158784   6.927   9.333  12.171 -0.5919  1.3294 -0.0048
50578SOL    HW258785   6.860   9.419  12.066  1.6942  0.0145 -2.6349
50579SOL     OW58786  11.090   1.259  11.284 -1.1704  0.4049  0.7699
50579SOL    HW158787  11.155   1.207  11.331 -2.0886 -2.2600 -0.7265
50579SOL    HW258788  11.129   1.274  11.198 -1.8040  0.3580  0.4733
50580SOL     OW58789   4.615   7.906   2.290  0.3414 -0.3675 -0.8885
50580SOL    HW158790   4.528   7.907   2.330  0.0828 -0.2181 -1.4393
50580SOL    HW258791   4.658   7.985   2.323  0.8801 -1.2686  0.6714
50581SOL     OW58792   7.260   2.473   7.392  0.2118  0.1020  0.0877
50581SOL    HW158793   7.297   2.426   7.467  0.8590  1.5956  0.7553
50581SOL    HW258794   7.336   2.496   7.339 -0.2936 -1.5480 -1.4502
50582SOL     OW58795  10.330  10.403   3.563  0.1288 -0.8190 -0.1632
50582SOL    HW158796  10.313  10.399   3.658  2.4846 -0.5179  0.3435
50582SOL    HW258797  10.384  10.326   3.546  1.0549 -0.0176 -0.9317
50583SOL     OW58798   8.789   8.302   3.122  0.1333 -0.2264  0.4492
50583SOL    HW158799   8.741   8.318   3.041  0.7748  0.7679  0.2539
50583SOL    HW258800   8.879   8.288   3.095  0.3586  0.1549  0.9871
50584SOL     OW58801   0.799   2.928   3.526  0.0898 -0.0918  0.5106
50584SOL    HW158802   0.758   2.869   3.463 -0.9581  1.2244 -0.0823
50584SOL    HW258803   0.745   3.007   3.525  0.0401 -0.0020  3.0617
50585SOL     OW58804  11.903  12.105   1.388 -0.0074  0.0719 -0.5044
50585SOL    HW158805  11.927  12.174   1.326  1.6944  0.7591  0.8211
50585SOL    HW258806  11.979  12.047   1.390 -0.6559 -0.7958 -0.1874
50586SOL     OW58807   9.839   5.668   5.142  0.3340  0.4428  0.1915
50586SOL    HW158808   9.805   5.624   5.220  0.9414  1.3064  0.9619
50586SOL    HW258809   9.785   5.746   5.133 -0.1346  0.0272 -0.6191
50587SOL     OW58810   8.508   1.533   8.945 -0.4775 -0.2986  0.0713
50587SOL    HW158811   8.422   1.491   8.940 -1.2180  0.9616  1.3714
50587SOL    HW258812   8.553   1.489   9.016 -1.4865  1.3725  1.8511
50588SOL     OW58813  10.119   5.485   5.623 -0.3474  0.1955 -0.0397
50588SOL    HW158814  10.122   5.532   5.706 -0.3764  1.0683 -0.5202
50588SOL    HW258815  10.154   5.547   5.559 -0.4256 -0.4253 -0.6975
50589SOL     OW58816   8.428   9.323  11.714 -0.2803 -0.0824  0.6697
50589SOL    HW158817   8.480   9.358  11.787  1.5242 -1.5112  0.1364
50589SOL    HW258818   8.363   9.267  11.756 -0.0425  0.0651  1.2436
50590SOL     OW58819   6.943   4.843   8.213  0.1875  0.0433 -0.6231
50590SOL    HW158820   6.909   4.834   8.302  2.1092 -1.8859 -0.0117
50590SOL    HW258821   6.936   4.755   8.175  1.6069  0.2757 -1.5124
50591SOL     OW58822   7.560   5.070   5.214 -0.7723 -0.4410  0.1155
50591SOL    HW158823   7.624   5.097   5.148  1.2408 -0.3412  1.9739
50591SOL    HW258824   7.505   5.147   5.226 -1.8728 -0.8092 -2.1412
50592SOL     OW58825   6.311   9.977  11.673  0.8947 -0.7277 -0.3105
50592SOL    HW158826   6.317   9.887  11.642 -1.0008 -1.3668  0.9981
50592SOL    HW258827   6.234  10.012  11.628 -1.4994 -1.4518  2.8420
50593SOL     OW58828   6.961   8.350  12.487 -0.2585  0.4447 -0.1573
50593SOL    HW158829   6.898   8.421  12.478  0.9682  1.4457 -1.1794
50593SOL    HW258830   7.040   8.381  12.443  0.8838 -0.8719  0.8350
50594SOL     OW58831   5.535   8.686   4.255  0.1988 -0.1729  0.0471
50594SOL    HW158832   5.463   8.744   4.228  0.4996  0.6442  0.9367
50594SOL    HW258833   5.500   8.598   4.244 -1.6259  0.1787  2.1356
50595SOL     OW58834  10.930   0.841   4.723 -0.0852  0.0263 -0.1219
50595SOL    HW158835  10.922   0.855   4.817 -0.2171  0.1672 -0.1554
50595SOL    HW258836  11.012   0.885   4.699  1.0582 -1.7780  0.2906
50596SOL     OW58837   7.382   5.997   7.587  0.5039  0.2506 -0.4557
50596SOL    HW158838   7.466   5.952   7.582  0.1000 -0.4424 -1.3677
50596SOL    HW258839   7.338   5.959   7.662  0.3652 -0.5455 -0.9299
50597SOL     OW58840  11.151   2.984   9.151  0.9163 -0.1646  0.3951
50597SOL    HW158841  11.173   2.925   9.223 -0.5860 -2.8620 -1.1947
50597SOL    HW258842  11.056   2.995   9.156  0.9139  0.4346 -0.5821
50598SOL     OW58843   7.897   9.069  12.465 -0.2039 -0.3091  0.2902
50598SOL    HW158844   7.954   9.145  12.478 -0.1061 -0.5873  1.6934
50598SOL    HW258845   7.830   9.100  12.405  0.1751  0.7149  0.3616
50599SOL     OW58846   0.515   4.744   6.397 -0.5478  0.1563  0.0795
50599SOL    HW158847   0.591   4.689   6.418 -3.1938 -3.3664  1.4078
50599SOL    HW258848   0.495   4.790   6.479  0.5925  1.8537 -0.5359
50600SOL     OW58849   8.050   9.494   3.271 -0.0068 -0.8957  0.3777
50600SOL    HW158850   8.122   9.465   3.327 -0.4796 -0.5126  1.1908
50600SOL    HW258851   7.974   9.445   3.301  0.2665 -2.8411 -1.7984
50601SOL     OW58852  10.157   7.334   9.384 -0.4528  0.3091  0.2326
50601SOL    HW158853  10.086   7.317   9.324 -1.1323  2.6519  0.2610
50601SOL    HW258854  10.236   7.305   9.338 -0.9666  1.8739 -1.7797
50602SOL     OW58855   6.244   7.962  12.062 -0.1248 -0.0664 -0.1144
50602SOL    HW158856   6.203   8.004  12.138  0.2923  1.1278 -0.5199
50602SOL    HW258857   6.203   8.004  11.987 -0.5707 -1.2805 -0.5681
50603SOL     OW58858   0.487  11.109  12.001  0.4942 -0.0103  0.3244
50603SOL    HW158859   0.442  11.030  11.972 -1.8779  1.7433 -1.0664
50603SOL    HW258860   0.472  11.112  12.096 -0.8974 -0.3730  0.1355
50604SOL     OW58861   6.828   0.741   1.947 -0.2187 -0.1898 -0.5827
50604SOL    HW158862   6.825   0.689   1.867  1.8368 -1.3244  0.0056
50604SOL    HW258863   6.797   0.828   1.920  0.8009 -0.4234 -2.7111
50605SOL     OW58864   1.978   1.931   4.501 -0.6155 -0.2361  0.0243
50605SOL    HW158865   2.009   1.913   4.412 -1.2321 -0.6329 -0.1197
50605SOL    HW258866   1.965   2.026   4.504 -0.2443 -0.1795 -0.1942
50606SOL     OW58867   3.215   2.822  10.172 -0.3878 -0.1586 -0.2388
50606SOL    HW158868   3.246   2.800  10.260 -0.0744  0.2698 -0.2346
50606SOL    HW258869   3.120   2.827  10.181 -0.4084 -0.8301 -0.0909
50607SOL     OW58870   0.697   9.882  11.581 -0.2696  0.4041 -0.3611
50607SOL    HW158871   0.621   9.889  11.524 -0.7235 -0.0022  0.1770
50607SOL    HW258872   0.673   9.813  11.644 -0.6502  2.2349  1.6310
50608SOL     OW58873   1.774   1.989   9.826  0.1162  0.4004  0.1989
50608SOL    HW158874   1.764   1.950   9.912  0.4881  0.4626  0.2727
50608SOL    HW258875   1.691   1.971   9.781  0.5771 -1.1743 -0.0481
50609SOL     OW58876   8.217   0.107   2.475 -0.5450  0.5360 -0.0255
50609SOL    HW158877   8.275   0.162   2.527  1.3093 -0.7811 -0.5941
50609SOL    HW258878   8.194   0.034   2.532  0.5344 -0.3020 -0.6337
50610SOL     OW58879   8.768   9.598   5.702  0.1284 -0.3905 -0.5076
50610SOL    HW158880   8.729   9.679   5.667  0.3249 -0.8755 -1.8884
50610SOL    HW258881   8.810   9.557   5.627 -1.3885 -2.6301 -0.2301
50611SOL     OW58882  12.203   8.231   3.768 -0.0912 -0.0697 -0.0708
50611SOL    HW158883  12.253   8.282   3.704  1.1404 -1.5411 -0.3424
50611SOL    HW258884  12.112   8.252   3.750  0.2085 -0.6091 -2.4637
50612SOL     OW58885   9.894  11.112  10.893  0.6256  0.1095 -0.6554
50612SOL    HW158886   9.962  11.146  10.834  0.9060  1.0880  0.2075
50612SOL    HW258887   9.943  11.061  10.958  0.4849  0.3177 -0.3823
50613SOL     OW58888   1.543   2.509   5.111 -0.0503  0.4880  0.2759
50613SOL    HW158889   1.583   2.490   5.196 -1.6066 -0.3136  0.8622
50613SOL    HW258890   1.529   2.422   5.072 -0.4128  0.7987 -0.2962
50614SOL     OW58891   9.733  12.276  10.074  0.9183 -0.1976 -0.3635
50614SOL    HW158892   9.722  12.330  10.152  2.0403  1.2099 -1.1412
50614SOL    HW258893   9.694  12.328  10.003  0.9590 -0.9331 -0.9390
50615SOL     OW58894  11.486   1.974   4.582 -0.1962  0.3183  0.4036
50615SOL    HW158895  11.407   2.015   4.547  1.4956  1.8534 -2.0103
50615SOL    HW258896  11.541   2.048   4.610  0.9999 -0.5729  0.5072
50616SOL     OW58897   9.818  11.356   7.280 -0.5150 -0.3976 -0.0892
50616SOL    HW158898   9.735  11.399   7.261 -0.5120 -1.7337 -3.8608
50616SOL    HW258899   9.795  11.264   7.293  0.2471 -0.5537  0.2284
50617SOL     OW58900   3.460   6.334  11.326  0.3262  0.3392  0.1113
50617SOL    HW158901   3.493   6.325  11.416  1.4492 -1.4239 -0.4189
50617SOL    HW258902   3.414   6.252  11.309  0.8090  0.3176 -1.1814
50618SOL     OW58903   4.061  11.670  10.987  0.2367  0.3084 -0.0071
50618SOL    HW158904   4.108  11.587  10.985 -0.1456  0.0524  0.9598
50618SOL    HW258905   3.983  11.655  10.933  0.3795  0.1709 -0.1735
50619SOL     OW58906   2.912   3.924   7.994 -0.0804  0.2698  0.1934
50619SOL    HW158907   2.995   3.919   7.945 -0.7959  1.1814 -1.1629
50619SOL    HW258908   2.897   3.834   8.023  1.5472  0.1432  0.7830
50620SOL     OW58909   8.082   6.539   7.827  0.3085  0.4304  0.2712
50620SOL    HW158910   8.160   6.532   7.881 -0.5607 -0.8723  1.4441
50620SOL    HW258911   8.101   6.486   7.749  0.1807 -0.8819  1.1045
50621SOL     OW58912   8.759   7.833   4.614  0.2331 -0.2609  0.0268
50621SOL    HW158913   8.738   7.740   4.624 -0.6642  0.0039  0.7287
50621SOL    HW258914   8.797   7.859   4.698  1.9231 -0.3346 -0.6781
50622SOL     OW58915   6.634  10.305   7.992  0.3866  0.3288  0.0930
50622SOL    HW158916   6.631  10.216   8.028  1.7327  0.1589 -0.1338
50622SOL    HW258917   6.582  10.357   8.052  0.7133 -0.3772  1.0185
50623SOL     OW58918   3.185   7.080   4.318  0.1465  0.3286  0.1668
50623SOL    HW158919   3.186   7.140   4.244  0.9294  0.6435  0.4181
50623SOL    HW258920   3.144   7.130   4.389  1.7418  0.9922  0.6859
50624SOL     OW58921   0.793   1.851   1.918  0.1715  0.0998 -0.1531
50624SOL    HW158922   0.838   1.768   1.909 -0.0503 -0.2001  1.2356
50624SOL    HW258923   0.863   1.915   1.931  0.3090  0.0155 -0.4791
50625SOL     OW58924   8.102   4.308   0.509  0.3050 -0.5250  0.5387
50625SOL    HW158925   8.011   4.280   0.525  1.2416 -3.7002  0.9472
50625SOL    HW258926   8.122   4.276   0.421  1.0438  0.2626  0.4028
50626SOL     OW58927   0.918  11.623   8.326  0.2893 -0.6717  0.0748
50626SOL    HW158928   0.940  11.716   8.333  1.3299 -0.9371  0.6554
50626SOL    HW258929   0.837  11.614   8.376  0.5316 -0.1786  0.5764
50627SOL     OW58930   5.133   1.990   4.039 -0.2539  0.3040  0.4640
50627SOL    HW158931   5.130   2.067   4.096  1.5905  0.5172  0.3544
50627SOL    HW258932   5.194   1.931   4.082  1.0691  0.4117 -1.1546
50628SOL     OW58933   2.513  10.433   5.906  0.0876 -0.8572  0.6926
50628SOL    HW158934   2.424  10.397   5.911 -0.4670  0.1446 -1.2831
50628SOL    HW258935   2.529  10.448   5.813  1.6174  0.7667  1.1457
50629SOL     OW58936  11.351   9.014   2.849 -0.5447 -0.2149 -0.1134
50629SOL    HW158937  11.281   9.061   2.895 -1.5631 -1.9004  0.1260
50629SOL    HW258938  11.319   9.008   2.758 -1.4857 -2.3179  0.3077
50630SOL     OW58939   7.110   9.867   6.393  0.2489  0.1725  0.8123
50630SOL    HW158940   7.163   9.919   6.333  0.6102 -0.3892  0.6307
50630SOL    HW258941   7.119   9.777   6.360 -0.5449  0.0241  0.9758
50631SOL     OW58942   0.223   0.796   2.670  0.3679  0.5767  0.3328
50631SOL    HW158943   0.187   0.708   2.672  0.2853  0.6152  0.5920
50631SOL    HW258944   0.183   0.841   2.744 -2.1513  1.8504 -1.6567
50632SOL     OW58945   0.944   9.965  10.878  0.5848  0.1013  0.1485
50632SOL    HW158946   0.998  10.031  10.923 -0.7719  0.8139  0.8131
50632SOL    HW258947   0.875   9.945  10.941  0.5020 -1.3591 -0.3799
50633SOL     OW58948  11.296  10.416   9.538  0.2191  0.0821 -0.6520
50633SOL    HW158949  11.284  10.334   9.489 -0.0895  0.6855 -1.6167
50633SOL    HW258950  11.349  10.471   9.480 -0.4336  0.9394 -0.4537
50634SOL     OW58951   1.798   2.068   7.579 -0.2373 -0.3029  0.9648
50634SOL    HW158952   1.711   2.096   7.607 -0.1526 -1.5337  2.6486
50634SOL    HW258953   1.784   1.981   7.542  0.4050 -1.1474  2.5846
50635SOL     OW58954  11.464   4.404   6.458  0.2009  0.1417  0.1649
50635SOL    HW158955  11.468   4.433   6.550 -0.2446 -0.2700  0.3223
50635SOL    HW258956  11.429   4.315   6.463  1.7616 -0.5285 -0.2859
50636SOL     OW58957   1.601   8.809  11.511 -0.2032  0.2857 -0.1374
50636SOL    HW158958   1.534   8.877  11.516  0.8193  1.4653 -1.4150
50636SOL    HW258959   1.614   8.796  11.417  0.8240 -0.4446  0.0867
50637SOL     OW58960   9.275   6.317   1.587  0.4437 -0.3561 -0.9625
50637SOL    HW158961   9.333   6.286   1.657 -1.4195 -1.8334  0.0026
50637SOL    HW258962   9.214   6.245   1.572 -1.1459  1.1245 -1.9678
50638SOL     OW58963   0.964   3.685   3.431 -0.0182  0.3710 -0.0915
50638SOL    HW158964   0.975   3.597   3.397  0.2322  0.2320  0.3458
50638SOL    HW258965   0.884   3.717   3.388 -0.4372 -0.2772  0.1931
50639SOL     OW58966   1.377   9.604   9.271 -1.3162  0.3497 -0.0074
50639SOL    HW158967   1.400   9.569   9.356  1.8302 -0.2741 -1.0078
50639SOL    HW258968   1.387   9.699   9.280 -2.3016  0.4102  0.6224
50640SOL     OW58969   7.048   8.919  12.436 -0.4027 -0.3066  0.2339
50640SOL    HW158970   7.106   8.865  12.490  0.3773 -1.2367 -1.4523
50640SOL    HW258971   6.986   8.857  12.398 -0.8688  0.3031 -0.0061
50641SOL     OW58972   5.970   6.734   4.034  0.8039 -0.3318 -0.0232
50641SOL    HW158973   6.042   6.787   3.999 -0.4831  1.8713  0.5044
50641SOL    HW258974   5.923   6.705   3.956  0.5187  0.8197 -0.3021
50642SOL     OW58975   8.619   0.062   5.966 -0.7558  0.0421  0.0303
50642SOL    HW158976   8.623  -0.002   5.896  0.5168  0.2626 -0.1209
50642SOL    HW258977   8.705   0.105   5.965 -1.7854  2.2636 -0.3604
50643SOL     OW58978   1.028   1.610  11.473  0.5630 -0.3125  0.7395
50643SOL    HW158979   0.943   1.595  11.433  0.2748  1.7738  0.4176
50643SOL    HW258980   1.018   1.584  11.564 -0.5547  0.2511  0.7939
50644SOL     OW58981   8.993   0.843   1.884  0.1764  0.2247 -0.2969
50644SOL    HW158982   8.988   0.756   1.925  2.4596  0.6590  1.0992
50644SOL    HW258983   9.046   0.829   1.806  0.8733  0.3833  0.1329
50645SOL     OW58984   0.480  11.718   4.232 -0.5121 -0.6044  0.0205
50645SOL    HW158985   0.405  11.678   4.188 -0.4767  0.2092 -0.8157
50645SOL    HW258986   0.556  11.689   4.183 -0.4235 -0.1357 -0.1245
50646SOL     OW58987   1.027   1.473   2.386  0.3621  0.1512  0.1406
50646SOL    HW158988   1.031   1.460   2.292  1.3946  1.0645  0.0367
50646SOL    HW258989   0.937   1.503   2.403 -0.0156 -0.6311 -0.4568
50647SOL     OW58990   2.772  12.543   0.724  0.3192 -0.2294  0.2083
50647SOL    HW158991   2.771  12.501   0.810 -0.3462  0.4693  0.5562
50647SOL    HW258992   2.855  12.591   0.722  0.3002 -0.1850  0.4850
50648SOL     OW58993   8.775   0.901  10.748 -0.2062  0.4034 -0.5425
50648SOL    HW158994   8.715   0.838  10.787 -0.6950  0.6637 -0.8696
50648SOL    HW258995   8.852   0.900  10.806 -0.8707  0.7073  0.3708
50649SOL     OW58996   0.059   2.598   4.714  0.1804  0.2886  0.0857
50649SOL    HW158997   0.045   2.521   4.659  1.0337 -0.3634  0.7481
50649SOL    HW258998   0.096   2.563   4.795  1.0178  1.4431  0.2235
50650SOL     OW58999   8.522   0.708   8.144  0.5118 -0.3427 -0.0369
50650SOL    HW159000   8.506   0.623   8.102 -0.5555 -0.0393 -0.2812
50650SOL    HW259001   8.535   0.688   8.236 -1.1259 -0.6692  0.1515
50651SOL     OW59002   4.201   7.877  10.628 -0.2208 -0.4875  0.0846
50651SOL    HW159003   4.150   7.888  10.708 -1.4642 -1.3466 -0.5625
50651SOL    HW259004   4.156   7.931  10.563  0.0950 -0.7220 -0.3311
50652SOL     OW59005   6.447   0.594   8.893  0.7834 -0.4136 -0.4204
50652SOL    HW159006   6.457   0.614   8.986  1.4337  2.3447 -0.9711
50652SOL    HW259007   6.353   0.602   8.877  0.7729  0.0718 -0.1523
50653SOL     OW59008  12.025  12.592  12.485 -0.2652  0.7386  0.2718
50653SOL    HW159009  12.102  12.647  12.478  0.6198 -0.6242 -2.0168
50653SOL    HW259010  11.994  12.583  12.394 -0.9109 -1.6860  0.6586
50654SOL     OW59011   3.034   0.839  10.128 -0.2572 -0.2297  0.3928
50654SOL    HW159012   2.966   0.806  10.069 -0.1193 -1.7494  1.0464
50654SOL    HW259013   3.115   0.797  10.097  0.0782  0.1765  0.7163
50655SOL     OW59014   2.726   8.416   5.285  0.4045  0.8561 -0.2155
50655SOL    HW159015   2.758   8.499   5.251  1.2045  0.8711  0.5415
50655SOL    HW259016   2.713   8.432   5.379 -2.2529  0.9719 -0.5154
50656SOL     OW59017   8.883   2.801   4.499 -0.0151  0.0010  0.1181
50656SOL    HW159018   8.830   2.806   4.419 -0.0223  1.7254  0.1892
50656SOL    HW259019   8.861   2.716   4.537  0.6981 -1.3010 -2.1721
50657SOL     OW59020   6.008  10.188   0.752  0.7441  0.3271  0.1568
50657SOL    HW159021   6.086  10.132   0.744  0.5001 -0.0603  0.4253
50657SOL    HW259022   5.976  10.170   0.841  1.1525  1.5455  0.5703
50658SOL     OW59023   6.205  12.074   2.149  0.1671 -0.2035  0.1136
50658SOL    HW159024   6.285  12.099   2.103  0.3654 -0.7532  0.1527
50658SOL    HW259025   6.199  12.137   2.221  1.3668 -1.0376  0.9913
50659SOL     OW59026   1.976   1.664   7.663  0.3582 -0.2839 -0.2077
50659SOL    HW159027   2.034   1.729   7.624  0.0616  1.4453  2.0464
50659SOL    HW259028   2.006   1.581   7.627  0.4680  1.0442 -3.5519
50660SOL     OW59029   2.603   5.122  12.533  0.2990 -0.3569 -0.4949
50660SOL    HW159030   2.640   5.100  12.619 -0.0627 -0.0320 -0.2515
50660SOL    HW259031   2.668   5.179  12.493  0.7482 -0.9927 -0.6888
50661SOL     OW59032   8.306   4.171  12.033  0.0421 -0.6387 -0.3535
50661SOL    HW159033   8.296   4.241  12.099  0.8268  2.1544 -2.9742
50661SOL    HW259034   8.218   4.161  11.996 -0.0753 -1.0842  0.0390
50662SOL     OW59035   1.579   3.476   9.609  0.4162  0.0163  0.7735
50662SOL    HW159036   1.519   3.425   9.662  1.2651 -0.4380  1.3168
50662SOL    HW259037   1.652   3.417   9.592  1.3281  0.9760  1.2591
50663SOL     OW59038   3.982   1.996   9.845  0.3163  0.8536 -0.1130
50663SOL    HW159039   3.891   1.988   9.817  0.6031  0.1388 -0.8723
50663SOL    HW259040   3.986   2.080   9.891 -0.8385  0.6460  0.3890
50664SOL     OW59041  11.871   0.509   2.023  0.3426 -0.6153 -0.6507
50664SOL    HW159042  11.851   0.550   2.108  1.5544 -1.4046  0.0489
50664SOL    HW259043  11.883   0.417   2.043  1.0864 -0.7430 -1.6064
50665SOL     OW59044   4.714   1.834   0.627  0.0916 -0.0577  0.1987
50665SOL    HW159045   4.640   1.798   0.676 -0.2786  0.3437 -0.0559
50665SOL    HW259046   4.683   1.920   0.597  0.4061 -0.1924 -0.5236
50666SOL     OW59047  11.295  10.768   3.479 -0.4466  0.1415  0.0057
50666SOL    HW159048  11.224  10.712   3.446  0.1891  0.1525 -1.4078
50666SOL    HW259049  11.256  10.814   3.554 -1.4242 -1.0833  0.2756
50667SOL     OW59050  12.288   6.325   1.676 -1.0647 -0.2186 -0.0514
50667SOL    HW159051  12.335   6.366   1.749 -2.0882 -1.0242  1.1158
50667SOL    HW259052  12.278   6.395   1.612  0.8509  0.2189  0.0640
50668SOL     OW59053   2.294   1.650   0.294  0.8492 -0.0395 -0.2320
50668SOL    HW159054   2.242   1.590   0.347  0.3744  1.4677  1.0804
50668SOL    HW259055   2.385   1.622   0.306  0.8368  0.7347  2.0821
50669SOL     OW59056   2.269   5.572   4.130 -0.1879 -0.4052  0.3491
50669SOL    HW159057   2.294   5.634   4.198 -2.3023  0.4704  0.4068
50669SOL    HW259058   2.235   5.497   4.177 -1.9156  0.3160  0.3174
50670SOL     OW59059  11.471   8.527   4.035 -0.2144 -0.2036 -0.1575
50670SOL    HW159060  11.420   8.534   3.954  0.4088 -0.7053 -0.6036
50670SOL    HW259061  11.540   8.464   4.014  0.0406 -0.2256  0.7239
50671SOL     OW59062   5.846   9.344  12.417  0.1452  0.0212  0.0145
50671SOL    HW159063   5.864   9.405  12.488 -0.4632 -0.5438  0.6688
50671SOL    HW259064   5.844   9.399  12.339  0.9166  0.6365  0.4113
50672SOL     OW59065   9.988   5.393   4.565 -0.4688 -0.4167  0.4809
50672SOL    HW159066  10.024   5.415   4.651 -0.9520 -0.0601  0.5932
50672SOL    HW259067   9.973   5.478   4.523 -2.7255 -0.4837  1.0650
50673SOL     OW59068   8.811  12.309   9.951 -0.2323 -0.4595  0.4307
50673SOL    HW159069   8.832  12.216   9.941  1.3108 -0.2315  1.1537
50673SOL    HW259070   8.829  12.328  10.044 -0.7021  0.5151  0.3398
50674SOL     OW59071  10.504   4.288  12.473 -0.0056  0.1505  0.3233
50674SOL    HW159072  10.436   4.267  12.536 -0.0637  0.5014  0.3810
50674SOL    HW259073  10.467   4.266  12.388 -0.5740  1.2595  0.2627
50675SOL     OW59074  10.670   7.182   1.361  0.4891  0.3081  0.1967
50675SOL    HW159075  10.709   7.112   1.412 -0.9032 -0.0887  0.7599
50675SOL    HW259076  10.576   7.167   1.366  0.0838  2.6424  0.9764
50676SOL     OW59077   4.380  11.819   7.051  0.0317 -0.8435 -0.0613
50676SOL    HW159078   4.295  11.796   7.013  0.0171 -2.6835  0.9545
50676SOL    HW259079   4.358  11.852   7.138  0.1976  1.4825 -0.8475
50677SOL     OW59080   4.810   2.133   5.311  0.5199  0.0704 -0.0784
50677SOL    HW159081   4.726   2.156   5.352  1.1288  0.8344  0.7661
50677SOL    HW259082   4.875   2.144   5.380  1.5250  1.0055 -1.1208
50678SOL     OW59083   9.641   7.047   4.079 -0.5576  0.2055  0.2618
50678SOL    HW159084   9.560   7.098   4.078 -1.2704 -0.8424 -1.9541
50678SOL    HW259085   9.615   6.961   4.110 -0.3195 -0.1700 -0.5684
50679SOL     OW59086  12.267   9.208   7.384 -0.1583 -0.1005 -0.2064
50679SOL    HW159087  12.313   9.207   7.300 -1.6531 -2.0512 -1.1014
50679SOL    HW259088  12.317   9.148   7.440  0.0741  0.1374 -0.1587
50680SOL     OW59089   8.712  10.787   4.146  0.4785  0.2400 -0.3010
50680SOL    HW159090   8.728  10.812   4.237  0.9608 -0.3100 -0.2301
50680SOL    HW259091   8.749  10.700   4.138  1.0043  0.5277 -1.1896
50681SOL     OW59092   9.359   4.527   9.659 -0.0931 -0.0436 -0.3828
50681SOL    HW159093   9.310   4.543   9.740  0.2515  1.1568 -0.3899
50681SOL    HW259094   9.373   4.432   9.658 -0.0160 -0.0724  1.0163
50682SOL     OW59095   0.145   7.978   6.417 -0.2206 -0.1703  0.1006
50682SOL    HW159096   0.080   7.980   6.347 -0.2566  1.5681  0.1223
50682SOL    HW259097   0.230   7.982   6.371 -0.2160 -0.0526  0.1173
50683SOL     OW59098   3.742   8.233   0.418  0.5941  0.4928  0.1095
50683SOL    HW159099   3.697   8.303   0.466 -0.5725  0.4355 -0.8429
50683SOL    HW259100   3.692   8.154   0.440  1.0293  0.2041  0.0575
50684SOL     OW59101   1.001   7.328   8.958  0.0729  0.2240  0.0763
50684SOL    HW159102   0.968   7.244   8.928 -0.1715  0.8364 -1.4731
50684SOL    HW259103   0.933   7.360   9.018  1.5362 -1.9559  3.1852
50685SOL     OW59104   5.783   1.524   9.159 -0.1338  0.3035  0.5849
50685SOL    HW159105   5.826   1.452   9.112 -2.2968 -1.4771  1.1192
50685SOL    HW259106   5.689   1.511   9.141 -0.7031  2.0134  2.0458
50686SOL     OW59107   4.244  11.156   2.183 -0.0285 -0.1214  0.6668
50686SOL    HW159108   4.277  11.245   2.197 -1.1527  0.8508 -2.0862
50686SOL    HW259109   4.294  11.124   2.108 -2.0517 -0.3621 -0.6587
50687SOL     OW59110   0.617   7.143  12.534 -0.2066  0.1606 -0.0213
50687SOL    HW159111   0.619   7.080  12.605 -2.2353  0.3111  0.2235
50687SOL    HW259112   0.579   7.095  12.460  0.8206  0.3288 -0.6828
50688SOL     OW59113   8.026   2.399   9.466  0.7326  0.6158 -0.7968
50688SOL    HW159114   7.981   2.443   9.394 -0.0349 -0.0691 -0.7501
50688SOL    HW259115   7.966   2.330   9.493  1.0796  0.7516  0.3912
50689SOL     OW59116   8.996   6.739   3.695  0.2066  0.0880  0.4711
50689SOL    HW159117   8.983   6.714   3.787 -0.3158  1.1593  0.7018
50689SOL    HW259118   9.040   6.664   3.656  1.9128  0.2375  1.9700
50690SOL     OW59119   6.147   6.641   1.672  0.3676 -0.2477 -0.3300
50690SOL    HW159120   6.240   6.637   1.694 -0.0295  2.7948  2.7028
50690SOL    HW259121   6.128   6.734   1.664 -2.0226 -0.8305 -3.3766
50691SOL     OW59122   7.950   6.731   8.744 -1.2354  0.2624 -0.7637
50691SOL    HW159123   7.904   6.767   8.668 -2.4671  2.2720  0.8246
50691SOL    HW259124   7.901   6.651   8.765 -2.5671  1.0997 -0.5377
50692SOL     OW59125   2.751  11.175  10.442  0.0651  0.2517 -0.2226
50692SOL    HW159126   2.728  11.267  10.439  1.2101  0.5365 -1.6690
50692SOL    HW259127   2.689  11.132  10.384 -0.6043  0.0685  0.6195
50693SOL     OW59128  10.731   9.096   8.770  0.7074  0.2168 -0.0374
50693SOL    HW159129  10.691   9.117   8.685 -2.0458  2.7310  1.7014
50693SOL    HW259130  10.817   9.137   8.766  1.2425 -0.9130 -2.0225
50694SOL     OW59131   0.233   6.469   4.345 -0.4036 -0.0097  0.1684
50694SOL    HW159132   0.179   6.516   4.281 -0.3358  0.8542  0.7417
50694SOL    HW259133   0.318   6.511   4.341 -0.1430 -0.5196  0.2164
50695SOL     OW59134   1.065   6.010   0.138  0.0056  0.1188  0.5956
50695SOL    HW159135   1.077   6.101   0.110  2.5791 -0.2825  0.1593
50695SOL    HW259136   1.068   6.013   0.233  2.3278  0.2894  0.5569
50696SOL     OW59137   0.720   5.349   4.516 -0.3221 -0.3536 -0.2463
50696SOL    HW159138   0.712   5.365   4.610  1.2403  3.9175 -0.6308
50696SOL    HW259139   0.769   5.267   4.510  0.5794 -0.1523  2.6907
50697SOL     OW59140   8.629  10.613  12.168 -0.0394 -0.6103 -0.1618
50697SOL    HW159141   8.534  10.608  12.179 -0.0494  0.7595  0.6729
50697SOL    HW259142   8.641  10.627  12.074 -0.7367  0.2018 -0.1439
50698SOL     OW59143   3.851   0.401   4.445 -0.0846 -0.0451  0.2686
50698SOL    HW159144   3.810   0.333   4.392  0.7200 -1.5759  1.5201
50698SOL    HW259145   3.795   0.409   4.522 -0.9756  1.8087 -0.5157
50699SOL     OW59146   7.652   0.021   0.138  0.5228  0.3240 -0.2218
50699SOL    HW159147   7.691   0.096   0.094 -3.4088  2.2686 -0.8624
50699SOL    HW259148   7.637  -0.043   0.069 -1.5080  1.5209 -0.9765
50700SOL     OW59149   0.511  10.533   8.299 -0.5857  0.5118 -0.0357
50700SOL    HW159150   0.468  10.452   8.274 -0.5751  0.1393  1.0899
50700SOL    HW259151   0.569  10.509   8.372  0.0716  1.3655 -0.2487
50701SOL     OW59152   5.335   1.304   7.378 -0.5026  0.0169  0.2921
50701SOL    HW159153   5.319   1.216   7.345  0.9486  0.1202 -0.7897
50701SOL    HW259154   5.293   1.306   7.464 -1.3941 -1.3974 -0.0847
50702SOL     OW59155  11.246   2.077   4.553  0.7680  0.0271 -0.3680
50702SOL    HW159156  11.160   2.087   4.594  0.8441  1.3114 -0.4957
50702SOL    HW259157  11.244   2.133   4.476  1.6990  0.0172 -0.4188
50703SOL     OW59158   3.494   1.395  12.261 -0.0324  0.0713  0.2869
50703SOL    HW159159   3.477   1.383  12.168 -0.7620 -0.1692  0.4426
50703SOL    HW259160   3.573   1.448  12.265 -0.0785  0.2014 -0.4694
50704SOL     OW59161   3.447  12.108   7.727 -0.3549 -0.7033 -0.0501
50704SOL    HW159162   3.521  12.165   7.748 -1.7689  0.6064  1.7453
50704SOL    HW259163   3.445  12.043   7.797 -0.4144 -1.2421 -0.5435
50705SOL     OW59164  10.477  10.432   9.532  0.0024 -0.6005 -0.1243
50705SOL    HW159165  10.502  10.351   9.576 -0.2239 -0.3215  0.5391
50705SOL    HW259166  10.558  10.483   9.528 -0.0373 -0.5011  0.2589
50706SOL     OW59167  10.594  10.164  11.175  0.4910  0.1136  0.6616
50706SOL    HW159168  10.581  10.229  11.106 -0.4047 -1.0020 -0.2562
50706SOL    HW259169  10.663  10.106  11.140 -0.6754 -1.0531  0.2167
50707SOL     OW59170   4.481   5.796   3.596  0.8665  0.0436 -0.0580
50707SOL    HW159171   4.535   5.851   3.652  2.3446 -1.0188 -0.3582
50707SOL    HW259172   4.544   5.738   3.552 -0.4785 -0.8593 -0.8745
50708SOL     OW59173   9.894   4.637   2.151 -1.1181  0.0516  0.5838
50708SOL    HW159174   9.819   4.684   2.188 -1.1248  1.4352 -1.0400
50708SOL    HW259175   9.856   4.584   2.081 -0.8192 -0.7666  1.0331
50709SOL     OW59176   3.034   3.162   4.147 -0.2549  0.2842 -0.1232
50709SOL    HW159177   3.113   3.210   4.124  0.2534  0.3457  1.5577
50709SOL    HW259178   3.003   3.204   4.228  1.3922 -3.3152  2.7015
50710SOL     OW59179   5.521   3.453   2.937  1.1147  0.2454  0.3896
50710SOL    HW159180   5.603   3.464   2.985  0.7227  1.7718  0.7965
50710SOL    HW259181   5.464   3.521   2.973  0.6369  1.1457 -1.8783
50711SOL     OW59182   9.386   9.528  11.243 -0.0725  0.2054 -0.5830
50711SOL    HW159183   9.432   9.611  11.260 -2.8668  1.8848 -0.5851
50711SOL    HW259184   9.316   9.552  11.183 -2.0061 -1.7941  0.7442
50712SOL     OW59185  10.094   3.228   1.334 -0.4539 -0.2194 -0.8894
50712SOL    HW159186  10.158   3.176   1.286  0.0553 -0.5176  0.1048
50712SOL    HW259187  10.031   3.254   1.267 -0.2304 -1.3454 -1.5701
50713SOL     OW59188  11.339   0.591   2.837 -0.0067  0.2720  0.4973
50713SOL    HW159189  11.331   0.578   2.742 -1.4579 -1.9614  0.8208
50713SOL    HW259190  11.398   0.521   2.866  1.5833  1.8101  1.1275
50714SOL     OW59191   2.794   1.798  11.816  0.6446 -0.0092  0.1809
50714SOL    HW159192   2.789   1.844  11.732  0.4583 -0.4886 -0.0724
50714SOL    HW259193   2.836   1.861  11.875 -0.4874  0.8515  0.0921
50715SOL     OW59194   6.828   1.162   9.046  0.4967 -0.4926  0.0742
50715SOL    HW159195   6.850   1.152   9.139 -0.3320 -0.3882  0.2933
50715SOL    HW259196   6.759   1.097   9.030 -0.2524  0.3241 -0.1356
50716SOL     OW59197   7.866   6.229   1.424  0.0397  0.1647 -0.7696
50716SOL    HW159198   7.913   6.159   1.378  0.9416  2.0999 -2.9872
50716SOL    HW259199   7.786   6.242   1.372 -0.7264 -0.0173  0.3387
50717SOL     OW59200   7.083   2.620   0.490 -0.1398 -0.3452 -0.6022
50717SOL    HW159201   7.033   2.690   0.531 -0.1793  0.5712 -2.1714
50717SOL    HW259202   7.149   2.597   0.556 -0.4111  0.8404  0.1157
50718SOL     OW59203   2.784   9.629   8.472  0.6669  0.2306 -0.1084
50718SOL    HW159204   2.701   9.635   8.519  0.5041  0.4847 -0.4263
50718SOL    HW259205   2.779   9.696   8.404  0.0844 -1.3713 -1.7443
50719SOL     OW59206   0.120   7.925   6.128  0.6219  0.1721  0.2847
50719SOL    HW159207   0.126   7.871   6.049  1.6682  1.5577 -0.6200
50719SOL    HW259208   0.101   8.013   6.096 -2.7847  0.1470  1.8172
50720SOL     OW59209   2.085   9.348  12.087 -0.5176  0.2593  0.2269
50720SOL    HW159210   2.170   9.306  12.073 -0.4496  0.8530 -1.2837
50720SOL    HW259211   2.025   9.276  12.107  0.2944 -0.1786  1.1753
50721SOL     OW59212   8.359   1.356   7.909  0.0113 -0.1224  0.2807
50721SOL    HW159213   8.306   1.295   7.857 -1.8806 -0.1933  2.1340
50721SOL    HW259214   8.448   1.324   7.900 -0.3298 -0.6109 -2.1964
50722SOL     OW59215   3.182  10.310   1.831 -0.4173  0.0603 -0.2558
50722SOL    HW159216   3.152  10.393   1.794 -0.9428  0.6235  1.3433
50722SOL    HW259217   3.135  10.243   1.782 -0.8439  0.7568 -0.8131
50723SOL     OW59218  11.959   4.660   8.007  0.3911  0.3192 -0.1861
50723SOL    HW159219  12.029   4.662   7.943  0.2207  0.1710 -0.3780
50723SOL    HW259220  11.890   4.715   7.970  0.5906  0.8582  0.2207
50724SOL     OW59221   0.888   8.506   8.865 -0.5176 -0.8648 -0.6455
50724SOL    HW159222   0.943   8.429   8.857  0.5042 -0.2261 -0.0171
50724SOL    HW259223   0.946   8.580   8.846 -1.5568 -0.2558 -1.6156
50725SOL     OW59224   9.441  11.701   7.210 -0.0286 -0.2500 -0.0360
50725SOL    HW159225   9.375  11.634   7.226 -1.7373  0.3393 -3.6286
50725SOL    HW259226   9.400  11.783   7.240 -0.4540 -0.0579 -1.1026
50726SOL     OW59227   2.505   0.313  10.876  0.0800  0.6383 -0.0860
50726SOL    HW159228   2.455   0.393  10.864 -3.4282 -0.8438  2.7334
50726SOL    HW259229   2.480   0.258  10.802 -2.8944 -0.1018  1.2901
50727SOL     OW59230   1.162   2.026   2.832  0.0430  0.5748 -0.4954
50727SOL    HW159231   1.112   2.062   2.905  0.3249  0.8374 -0.4263
50727SOL    HW259232   1.200   1.945   2.866 -0.8122  0.0721 -0.7353
50728SOL     OW59233   5.415   0.188   9.067 -0.4615  0.6413 -0.1804
50728SOL    HW159234   5.348   0.199   9.135 -0.3668  0.6471 -0.0874
50728SOL    HW259235   5.390   0.107   9.023 -0.0132  0.1525  0.4515
50729SOL     OW59236   6.848   5.237   8.407  0.1989 -0.0108  0.3541
50729SOL    HW159237   6.830   5.260   8.498  2.4402  0.0753  0.8321
50729SOL    HW259238   6.864   5.321   8.363 -1.6197  0.0193 -0.3696
50730SOL     OW59239  11.864   3.105   0.473  0.1230 -0.7152 -0.2626
50730SOL    HW159240  11.899   3.021   0.503 -1.4203 -1.3481 -0.1658
50730SOL    HW259241  11.940   3.149   0.434  0.8447 -2.3626 -0.8251
50731SOL     OW59242   1.723   1.932  10.105 -0.1057  0.2956 -0.2713
50731SOL    HW159243   1.633   1.917  10.133 -0.1003  0.0741 -0.3651
50731SOL    HW259244   1.762   1.984  10.174  0.1666 -0.9992  0.5825
50732SOL     OW59245   9.843   2.548   6.836 -0.1696 -0.8299  0.2274
50732SOL    HW159246   9.855   2.564   6.929 -0.6375  0.3529  0.1004
50732SOL    HW259247   9.765   2.598   6.812 -0.5013 -1.7308 -0.6443
50733SOL     OW59248   8.626   2.477   9.784 -0.2266  0.0119  0.1434
50733SOL    HW159249   8.548   2.525   9.755  0.5230  0.7784 -0.6382
50733SOL    HW259250   8.695   2.543   9.789  0.0502 -0.3674  2.3040
50734SOL     OW59251   1.201   2.684   0.421 -0.6792 -0.3374 -0.0755
50734SOL    HW159252   1.211   2.777   0.440 -0.0485 -0.2949 -0.5836
50734SOL    HW259253   1.107   2.672   0.412 -0.8192  0.1106  0.6579
50735SOL     OW59254   8.027   4.048   9.638 -0.5640  0.2157 -0.1903
50735SOL    HW159255   8.008   4.097   9.558  0.2649  0.1187 -0.4610
50735SOL    HW259256   8.121   4.061   9.651 -1.1328  2.8973  2.5055
50736SOL     OW59257   7.168   0.121   6.497  0.9054  0.1405  0.4349
50736SOL    HW159258   7.108   0.195   6.492  1.3890  0.5362  0.4716
50736SOL    HW259259   7.251   0.154   6.461  0.2463 -1.3006 -2.7350
50737SOL     OW59260   6.714   6.986   1.041 -0.1068 -0.0382  0.0513
50737SOL    HW159261   6.718   6.910   1.099 -0.0990 -0.2877 -0.2744
50737SOL    HW259262   6.752   6.955   0.959 -2.4344 -0.4564 -0.9431
50738SOL     OW59263   6.901   9.401   9.224 -0.8297 -0.0211 -0.3729
50738SOL    HW159264   6.884   9.463   9.295 -2.5625  0.0920 -0.8321
50738SOL    HW259265   6.818   9.397   9.176 -0.2467 -1.4501 -1.3239
50739SOL     OW59266   9.461   3.397   5.285  0.0864 -0.1611 -0.3367
50739SOL    HW159267   9.399   3.377   5.355  0.0379 -0.6231 -0.5049
50739SOL    HW259268   9.545   3.408   5.329 -0.3784  2.2263  0.1214
50740SOL     OW59269   5.591   6.762   2.408 -0.0299 -0.0790  0.4017
50740SOL    HW159270   5.621   6.807   2.487  0.5589 -0.1372  0.2188
50740SOL    HW259271   5.617   6.671   2.421 -1.7291 -0.5134  1.0281
50741SOL     OW59272   2.288   7.028   7.682 -0.2841 -0.0915 -0.0048
50741SOL    HW159273   2.334   6.963   7.628  0.1306  0.2758 -0.1014
50741SOL    HW259274   2.358   7.072   7.730 -0.6564 -0.4663  0.9059
50742SOL     OW59275   3.566   0.894   1.054 -0.6145  0.0610 -0.2655
50742SOL    HW159276   3.593   0.986   1.046  0.2638 -0.3356 -2.5778
50742SOL    HW259277   3.645   0.844   1.035 -1.2540 -1.1828  0.2551
50743SOL     OW59278   1.310   4.776   4.585  0.7023  0.0416 -0.0368
50743SOL    HW159279   1.278   4.833   4.515  0.6407  1.0464  0.7724
50743SOL    HW259280   1.253   4.699   4.581  0.9264 -0.0733 -1.2982
50744SOL     OW59281   3.220   9.049   0.678 -0.2160  0.4543 -0.2923
50744SOL    HW159282   3.204   8.955   0.691  1.0964  0.3759  1.1187
50744SOL    HW259283   3.156   9.092   0.734 -0.5077  0.3858 -0.5722
50745SOL     OW59284   0.211   9.782  11.160  0.5542  0.1977 -0.2980
50745SOL    HW159285   0.192   9.805  11.251  1.3064 -1.3010  0.2633
50745SOL    HW259286   0.187   9.860  11.110  0.3934  1.1414  1.2060
50746SOL     OW59287   5.231   5.621  11.963 -0.0302  0.3490  0.0100
50746SOL    HW159288   5.242   5.526  11.972  0.6951  0.3358 -0.8524
50746SOL    HW259289   5.169   5.645  12.031 -0.6883 -0.8418 -0.1469
50747SOL     OW59290   3.616  12.495   7.158  0.1947  0.0556  0.2096
50747SOL    HW159291   3.533  12.528   7.124  0.3899  0.3495  0.0160
50747SOL    HW259292   3.679  12.566   7.142  0.4108 -0.0329  0.6638
50748SOL     OW59293   9.314   3.672   4.533  0.1588 -0.3643  0.4598
50748SOL    HW159294   9.383   3.608   4.552  0.2273  0.0466  1.6855
50748SOL    HW259295   9.359   3.745   4.490  0.6150  0.1526  1.7631
50749SOL     OW59296   9.516   8.229   7.467 -0.6276  0.3327  0.2443
50749SOL    HW159297   9.523   8.140   7.502 -1.9007  0.5100  0.9997
50749SOL    HW259298   9.450   8.224   7.399 -2.5390  1.1312  1.9441
50750SOL     OW59299   9.340   7.984  10.880  0.2670  0.3411 -0.3416
50750SOL    HW159300   9.377   8.067  10.909  1.6603 -0.7157  1.0362
50750SOL    HW259301   9.401   7.952  10.814  0.0698  0.1046 -0.4101
50751SOL     OW59302   4.933   8.257   4.013 -0.1706  0.6893  0.1043
50751SOL    HW159303   4.973   8.182   4.057 -2.3414  0.3960  1.7551
50751SOL    HW259304   4.943   8.329   4.076  1.1128  1.6175 -1.1003
50752SOL     OW59305   9.293  10.056  10.907  0.0563  0.3092  0.1885
50752SOL    HW159306   9.232  10.036  10.978 -0.5375 -0.1272 -0.4217
50752SOL    HW259307   9.283  10.150  10.892  0.3709  0.4455  0.8522
50753SOL     OW59308   6.635   2.655   6.272  0.0034 -0.3767  0.2818
50753SOL    HW159309   6.675   2.629   6.189  1.7125  1.9029  0.3104
50753SOL    HW259310   6.673   2.594   6.336 -0.7496 -1.6577 -0.4345
50754SOL     OW59311   4.307   0.171   3.072  0.4613  0.1563 -0.3318
50754SOL    HW159312   4.329   0.216   2.991 -0.3997  2.5747  0.6594
50754SOL    HW259313   4.242   0.106   3.047  0.6984  0.4153 -1.6777
50755SOL     OW59314   3.594   4.363  11.878  0.2520  0.1762 -0.1292
50755SOL    HW159315   3.596   4.268  11.888  0.3085  0.3592  1.8566
50755SOL    HW259316   3.539   4.394  11.949  0.4540  1.6680 -0.5785
50756SOL     OW59317   8.651   2.688  11.852  0.0592 -0.1349 -0.6072
50756SOL    HW159318   8.569   2.728  11.881 -1.0959 -0.6747 -2.8825
50756SOL    HW259319   8.623   2.614  11.798  2.0898 -0.8662 -0.7257
50757SOL     OW59320   4.314   1.798   2.073  0.4775  0.2744  0.2263
50757SOL    HW159321   4.349   1.878   2.111 -0.0369 -0.3694  2.1304
50757SOL    HW259322   4.315   1.734   2.144 -1.8405 -0.5918 -0.4251
50758SOL     OW59323   4.436   6.086   3.584 -0.0173 -0.3342 -0.3873
50758SOL    HW159324   4.528   6.087   3.558  0.1887  3.0750  0.1131
50758SOL    HW259325   4.388   6.067   3.503  1.0502 -0.7219 -0.9427
50759SOL     OW59326   5.102  11.088   1.863  0.1781 -0.4581 -0.0143
50759SOL    HW159327   5.110  11.135   1.780 -1.0521 -0.0230  0.0910
50759SOL    HW259328   5.064  11.004   1.839  0.4559 -0.5933  0.0264
50760SOL     OW59329   6.558   2.678  10.272  0.5750 -0.1300 -0.0162
50760SOL    HW159330   6.628   2.642  10.217 -0.8137  0.6705 -2.4254
50760SOL    HW259331   6.491   2.610  10.272  0.5102 -0.0666  0.5897
50761SOL     OW59332  12.370   5.228  11.889 -0.0444 -0.2620  0.4411
50761SOL    HW159333  12.340   5.247  11.800 -1.2038 -1.0066  0.6610
50761SOL    HW259334  12.362   5.311  11.936 -0.7056 -0.1878  0.1985
50762SOL     OW59335   1.364   0.548  10.025 -0.5610 -0.1804  0.6734
50762SOL    HW159336   1.315   0.499   9.959 -0.6228  2.5939 -1.5135
50762SOL    HW259337   1.455   0.544   9.996 -0.3881 -0.0503  1.1822
50763SOL     OW59338   9.840   3.625   7.530  0.1014 -0.4956  0.1807
50763SOL    HW159339   9.906   3.578   7.479  0.0304 -0.4215  0.0199
50763SOL    HW259340   9.871   3.715   7.534 -0.8469 -0.0687 -1.3800
50764SOL     OW59341   2.399   4.914  11.778 -0.3348  0.1131  0.0224
50764SOL    HW159342   2.489   4.885  11.759 -0.8375 -1.3697 -0.2284
50764SOL    HW259343   2.384   4.885  11.868 -1.4310 -2.0945 -0.7800
50765SOL     OW59344   4.415   8.195   5.981  0.1465 -0.7389 -0.2843
50765SOL    HW159345   4.443   8.108   6.009 -0.1800 -0.3489  1.3492
50765SOL    HW259346   4.476   8.255   6.023 -2.3371  0.0655  2.5242
50766SOL     OW59347   3.072  12.014   2.292 -0.1614  0.3895 -0.0645
50766SOL    HW159348   3.107  11.930   2.322 -0.8075  0.8310  2.1377
50766SOL    HW259349   3.031  11.995   2.208  1.7930 -0.9705 -0.7643
50767SOL     OW59350   4.691   2.404   4.431  0.0703 -0.0636  0.1603
50767SOL    HW159351   4.704   2.468   4.500  0.9857  0.4255 -0.4442
50767SOL    HW259352   4.718   2.321   4.469  1.4204  0.3459  0.1240
50768SOL     OW59353   1.917   2.438   6.346 -0.0087  0.1914 -0.1172
50768SOL    HW159354   1.905   2.433   6.251 -0.9242 -0.3594  0.0129
50768SOL    HW259355   2.011   2.442   6.358  0.1294  0.0169 -1.0449
50769SOL     OW59356   0.878   3.339   9.554  0.3012  0.0907  0.0263
50769SOL    HW159357   0.808   3.367   9.494  0.5893 -1.3397 -1.0364
50769SOL    HW259358   0.948   3.403   9.540  0.1499  0.0989 -0.7757
50770SOL     OW59359   4.391   8.323  10.148 -0.0744 -0.2229 -0.2086
50770SOL    HW159360   4.324   8.329  10.080  1.9911  3.2530 -2.2183
50770SOL    HW259361   4.459   8.267  10.111  0.4662  0.6051 -0.4963
50771SOL     OW59362  11.988  10.793  11.296 -0.1743 -0.4692 -0.4946
50771SOL    HW159363  11.921  10.788  11.227 -0.9549  1.6815  0.0345
50771SOL    HW259364  11.950  10.745  11.370 -1.4579  1.1987 -0.0069
50772SOL     OW59365   9.783   3.735   4.812  0.2645  0.3919 -0.1578
50772SOL    HW159366   9.823   3.674   4.873  0.1866 -1.0624 -1.4998
50772SOL    HW259367   9.697   3.754   4.849  0.2792 -0.3447  0.2609
50773SOL     OW59368   3.268  10.021   2.232  0.6508  0.4898  0.1952
50773SOL    HW159369   3.185  10.048   2.272  0.5887 -0.2811  0.6056
50773SOL    HW259370   3.295  10.096   2.179 -1.3402 -0.0032 -1.5948
50774SOL     OW59371   2.099  10.983   4.813 -0.1024  0.6969 -0.3386
50774SOL    HW159372   2.031  10.927   4.849 -0.0938  0.6166 -0.4472
50774SOL    HW259373   2.181  10.941   4.838 -0.0840  1.0908  0.2700
50775SOL     OW59374   1.455   2.378   7.520  0.1193 -0.5021  0.4011
50775SOL    HW159375   1.419   2.337   7.441  0.2436  1.1259 -0.5373
50775SOL    HW259376   1.490   2.304   7.571 -0.4175 -1.6381 -0.8146
50776SOL     OW59377   5.065   2.959  12.021 -0.4425 -0.5425 -0.0367
50776SOL    HW159378   5.073   2.930  12.112  3.2294  0.4367  0.1240
50776SOL    HW259379   5.130   2.906  11.974  0.4127  1.5255 -1.3106
50777SOL     OW59380   4.859  10.315   6.157  0.0233  0.5734  0.5339
50777SOL    HW159381   4.796  10.303   6.228 -1.4373  1.2934 -0.5796
50777SOL    HW259382   4.858  10.232   6.109 -1.3278  1.1156 -0.4191
50778SOL     OW59383  11.903   2.218   2.136  0.6530  0.0211 -0.2847
50778SOL    HW159384  11.949   2.299   2.158 -0.7393  0.4226  1.4274
50778SOL    HW259385  11.889   2.223   2.042  0.4506  1.8799 -0.1927
50779SOL     OW59386   4.267   4.768   0.991  0.5742  0.2931 -0.1656
50779SOL    HW159387   4.275   4.863   0.997  0.6424  0.2024  2.1753
50779SOL    HW259388   4.210   4.745   1.064  0.2574 -1.4509 -0.9209
50780SOL     OW59389   5.904   7.125   9.876  0.3048 -0.8755  0.2954
50780SOL    HW159390   5.839   7.094   9.812  0.0549  0.3924 -0.0985
50780SOL    HW259391   5.948   7.046   9.906 -0.1035 -1.5758 -0.8866
50781SOL     OW59392   5.794  11.786  10.987  0.3180  0.0243 -0.1663
50781SOL    HW159393   5.734  11.798  11.061  0.0729 -2.3656  0.0843
50781SOL    HW259394   5.880  11.777  11.027  0.8092  2.5950 -0.4781
50782SOL     OW59395  10.773   8.976  12.429  1.1738 -1.0046 -0.0856
50782SOL    HW159396  10.748   9.027  12.506  0.7326  1.3944 -1.6985
50782SOL    HW259397  10.850   8.926  12.457  0.2393 -1.2469  2.2492
50783SOL     OW59398   5.107   6.719   3.810 -0.0208 -0.1994  0.6730
50783SOL    HW159399   5.124   6.654   3.878  1.0592 -1.5567 -0.8118
50783SOL    HW259400   5.194   6.749   3.784 -0.4805  1.5000  0.9692
50784SOL     OW59401   5.668   3.831   3.955 -0.2983 -0.5125  0.3286
50784SOL    HW159402   5.631   3.835   3.867  0.6661 -1.1607 -0.1328
50784SOL    HW259403   5.761   3.847   3.942  0.1151 -2.1407  1.0100
50785SOL     OW59404   5.394   0.264   6.405  0.0234 -0.7280  0.3350
50785SOL    HW159405   5.420   0.355   6.394  1.1265 -0.8245  1.7670
50785SOL    HW259406   5.368   0.235   6.318  0.5383  0.6801 -0.3137
50786SOL     OW59407   8.035   8.560   1.382  0.2225 -0.0374 -0.7267
50786SOL    HW159408   7.954   8.573   1.333 -0.0373  1.6602  0.0684
50786SOL    HW259409   8.090   8.634   1.356 -0.3150  1.5680  2.2157
50787SOL     OW59410   5.947   0.939  10.161 -0.3239  0.0489  0.0077
50787SOL    HW159411   5.896   1.014  10.130  0.8449  0.0176 -2.1829
50787SOL    HW259412   6.035   0.955  10.128  0.7445 -0.7232  2.2579
50788SOL     OW59413   4.201  11.690   3.158 -0.0535  0.0817  0.0993
50788SOL    HW159414   4.255  11.769   3.159 -0.3017  0.2475  1.5594
50788SOL    HW259415   4.208  11.658   3.068  0.9201  1.1601 -0.2325
50789SOL     OW59416   2.753   8.913   1.426 -0.1273 -0.4930 -0.5143
50789SOL    HW159417   2.786   8.982   1.483  0.4094 -0.6221 -0.6625
50789SOL    HW259418   2.726   8.843   1.486 -1.8753  0.3235 -0.2826
50790SOL     OW59419   2.505  12.344   4.516 -0.3937 -0.0636  0.3659
50790SOL    HW159420   2.442  12.406   4.553  0.9437  1.2332  0.5293
50790SOL    HW259421   2.492  12.350   4.421 -0.3136  0.4160  0.3851
50791SOL     OW59422   4.580  12.196   9.704  0.0958  0.0138 -0.3089
50791SOL    HW159423   4.676  12.191   9.707  0.0680 -0.5659  1.7510
50791SOL    HW259424   4.556  12.241   9.785 -1.4317 -2.3629  0.6950
50792SOL     OW59425   7.236   4.964   1.888  0.0391  0.6210  0.1638
50792SOL    HW159426   7.188   4.891   1.849 -1.7774  1.3867  0.8578
50792SOL    HW259427   7.256   4.935   1.977  1.7242 -0.0479 -0.4034
50793SOL     OW59428  10.932   7.908   4.286 -0.3334  0.0560 -0.7627
50793SOL    HW159429  10.988   7.909   4.364 -0.5541 -2.2142 -0.5035
50793SOL    HW259430  10.843   7.909   4.322 -0.4440 -1.5585 -0.8892
50794SOL     OW59431   0.303   8.862   3.017 -0.3534 -0.0198 -0.6958
50794SOL    HW159432   0.376   8.822   3.065 -0.5001 -0.8995 -1.1799
50794SOL    HW259433   0.337   8.947   2.989 -0.2679  0.5072  0.9349
50795SOL     OW59434  10.750   3.898  11.839 -0.4903 -0.3119 -0.2885
50795SOL    HW159435  10.794   3.952  11.905 -1.1459  2.5802 -2.0600
50795SOL    HW259436  10.818   3.881  11.774 -0.5474 -0.7850 -0.2254
50796SOL     OW59437   1.879   6.611   4.706 -0.0388  0.9114 -0.4685
50796SOL    HW159438   1.852   6.697   4.737  2.0436  1.5847 -0.3596
50796SOL    HW259439   1.917   6.628   4.620  0.0564  0.0323 -0.6091
50797SOL     OW59440   8.099  11.478   7.787 -0.3719 -0.3862 -0.2464
50797SOL    HW159441   8.172  11.418   7.773 -0.3694 -0.2625 -0.7908
50797SOL    HW259442   8.069  11.501   7.699  2.0608  3.4389 -0.3310
50798SOL     OW59443   2.355   9.871   1.120 -0.1624 -0.4967  0.1162
50798SOL    HW159444   2.335   9.835   1.206 -0.0215 -1.1082 -0.1028
50798SOL    HW259445   2.327   9.803   1.059  0.9925 -0.6517 -0.2658
50799SOL     OW59446   7.269   6.194   1.380  0.4934  0.3028 -0.4777
50799SOL    HW159447   7.233   6.106   1.392 -2.4554  1.5988  1.4537
50799SOL    HW259448   7.261   6.210   1.286 -2.0729 -0.3501 -0.4426
50800SOL     OW59449   9.802   1.645   2.863 -0.1987  0.3045  0.1726
50800SOL    HW159450   9.786   1.604   2.949  1.6352 -0.3689  0.2566
50800SOL    HW259451   9.760   1.730   2.869 -0.8678 -0.0754  1.4223
50801SOL     OW59452   9.251   6.313  11.055 -0.1690  0.1736  0.2137
50801SOL    HW159453   9.279   6.382  10.995  2.6092 -1.8035 -0.9832
50801SOL    HW259454   9.325   6.253  11.059 -1.8093 -1.9206  2.4890
50802SOL     OW59455   7.374   8.610   6.043 -0.4222  0.6787 -0.4030
50802SOL    HW159456   7.328   8.657   6.113  0.5793  0.8247  0.1834
50802SOL    HW259457   7.432   8.675   6.004 -0.2754  0.3594 -0.7264
50803SOL     OW59458  10.325   8.914   9.643 -0.0501 -0.2951  0.1429
50803SOL    HW159459  10.282   8.829   9.639 -1.6842  0.4810  0.0231
50803SOL    HW259460  10.379   8.911   9.721  1.5293 -2.1226 -0.9523
50804SOL     OW59461   0.441   1.887   2.688  0.1017  0.2080  0.0640
50804SOL    HW159462   0.522   1.837   2.702 -1.4964 -2.2087  1.4185
50804SOL    HW259463   0.445   1.913   2.596  1.9965 -0.6210 -0.1476
50805SOL     OW59464   3.441   8.844   4.992  0.1809 -0.0222 -0.5063
50805SOL    HW159465   3.449   8.926   5.040  1.7186  0.8637 -2.1706
50805SOL    HW259466   3.528   8.805   4.994 -0.3401 -1.2402 -0.4202
50806SOL     OW59467   3.617   6.669   1.651 -0.2958  0.1348 -0.1349
50806SOL    HW159468   3.548   6.603   1.661 -0.1550  0.1177  0.8008
50806SOL    HW259469   3.697   6.619   1.636 -0.0463  0.0244  1.3583
50807SOL     OW59470  11.019   8.984   2.914  0.0941 -0.0971  0.4724
50807SOL    HW159471  11.064   8.913   2.958  0.2692  1.1356  2.3930
50807SOL    HW259472  11.062   9.064   2.947 -0.7237  0.9429 -0.8636
50808SOL     OW59473  11.470   0.165   1.536 -0.7273  0.7135  0.1600
50808SOL    HW159474  11.425   0.112   1.601  0.7191 -0.5193  0.2090
50808SOL    HW259475  11.542   0.206   1.584 -0.1695  0.4930 -0.4739
50809SOL     OW59476   2.525   9.340   0.587 -0.1263  0.0354  0.1704
50809SOL    HW159477   2.494   9.361   0.499 -0.8095 -1.9013 -0.0915
50809SOL    HW259478   2.474   9.397   0.645  0.4463  1.4455 -0.6587
50810SOL     OW59479   2.251   8.575   8.728 -0.4002 -0.2730 -0.4955
50810SOL    HW159480   2.214   8.523   8.799  1.7761 -0.2651  0.7415
50810SOL    HW259481   2.186   8.643   8.710 -1.0472 -0.3384  1.4431
50811SOL     OW59482  11.718   2.242   2.549 -0.0500 -0.2935 -0.1543
50811SOL    HW159483  11.735   2.208   2.637 -0.9081 -4.7598 -1.4723
50811SOL    HW259484  11.802   2.280   2.521  0.8466 -0.7084  1.8107
50812SOL     OW59485  10.241   3.641   1.728  0.1192 -0.3439  0.1381
50812SOL    HW159486  10.199   3.589   1.797 -2.6532 -0.0345 -1.1848
50812SOL    HW259487  10.326   3.667   1.766 -0.4994 -1.6948  2.6911
50813SOL     OW59488   6.473   3.352  10.034  0.2541 -0.1938  0.0656
50813SOL    HW159489   6.425   3.421  10.080  0.3671 -0.9543  1.3651
50813SOL    HW259490   6.549   3.335  10.090  1.1603 -0.1897 -1.1084
50814SOL     OW59491   3.348   1.793  10.412  0.3333 -0.4926 -0.3618
50814SOL    HW159492   3.363   1.877  10.455  0.4729  0.1750 -1.6481
50814SOL    HW259493   3.346   1.815  10.318 -0.0146 -1.8693 -0.6911
50815SOL     OW59494  10.934   3.669   1.737 -0.4751  0.6821  0.0409
50815SOL    HW159495  10.898   3.674   1.825  0.6853 -1.5355  0.7351
50815SOL    HW259496  10.973   3.755   1.721 -1.5947  1.4421  1.2751
50816SOL     OW59497  10.189   4.732   0.315 -0.5313 -0.1417 -0.2506
50816SOL    HW159498  10.136   4.698   0.242  1.1130 -0.3857 -1.3824
50816SOL    HW259499  10.137   4.805   0.349 -1.9315 -0.8198 -0.8242
50817SOL     OW59500  11.178   2.087   9.513 -0.0533 -0.8832  0.2547
50817SOL    HW159501  11.273   2.092   9.510 -0.0681  2.2867  1.3706
50817SOL    HW259502  11.157   2.058   9.602 -0.0902  0.6673  0.7781
50818SOL     OW59503  11.041  10.924  10.203  0.3180  0.1534 -0.2882
50818SOL    HW159504  11.078  10.944  10.289 -2.9687  0.8213  1.1294
50818SOL    HW259505  11.032  11.009  10.160  0.6318 -0.0250 -0.7156
50819SOL     OW59506   1.377  11.768  10.842  0.0672 -0.5132 -0.1667
50819SOL    HW159507   1.324  11.743  10.918  0.0422 -2.2993 -0.7312
50819SOL    HW259508   1.329  11.732  10.767  0.3826  0.7309 -0.9893
50820SOL     OW59509   6.666   9.014   0.423 -0.5073  0.1664  0.4624
50820SOL    HW159510   6.575   9.019   0.392 -1.4422 -1.0369  2.7836
50820SOL    HW259511   6.695   9.105   0.427 -2.3585  0.7472  1.6574
50821SOL     OW59512   4.757   6.340  12.059 -0.0223  0.1417 -0.2703
50821SOL    HW159513   4.748   6.268  12.121  0.6489 -1.0123 -1.4820
50821SOL    HW259514   4.851   6.346  12.043  0.1169  2.2852  0.9152
50822SOL     OW59515   3.157  10.680   8.189  0.0181  0.5150 -0.0275
50822SOL    HW159516   3.079  10.646   8.232  0.3238  0.2396  0.3126
50822SOL    HW259517   3.134  10.771   8.167 -0.4879  0.3573 -0.1645
50823SOL     OW59518   0.289  10.367   9.301  0.4635 -0.6869  0.1615
50823SOL    HW159519   0.219  10.408   9.250  0.4001  0.2087  0.9421
50823SOL    HW259520   0.320  10.295   9.246 -0.4878 -0.5593 -0.5638
50824SOL     OW59521  12.452   5.977   7.462  0.1523 -0.1871  0.0135
50824SOL    HW159522  12.493   6.013   7.540  1.4346  0.0458 -0.7354
50824SOL    HW259523  12.514   5.910   7.431  0.1326  0.3820 -1.3195
50825SOL     OW59524   9.387   5.109   2.520 -0.6011 -0.1122 -0.1729
50825SOL    HW159525   9.343   5.102   2.605 -2.1185  0.1096 -0.9182
50825SOL    HW259526   9.430   5.025   2.509  0.9846  0.3842  1.5009
50826SOL     OW59527   4.521   8.003   6.189 -0.3265 -0.5662 -0.1531
50826SOL    HW159528   4.498   7.937   6.124  1.3061 -3.5232  2.0117
50826SOL    HW259529   4.614   8.017   6.177 -0.4999  0.7857 -0.0375
50827SOL     OW59530  11.702   2.390   6.550  0.2824 -0.1839  0.5399
50827SOL    HW159531  11.745   2.405   6.634 -0.4462 -0.7739  1.0339
50827SOL    HW259532  11.618   2.350   6.573  0.5781 -1.5011 -0.4997
50828SOL     OW59533   4.365   2.281   1.588 -0.6749 -0.1654  0.0761
50828SOL    HW159534   4.426   2.325   1.646 -0.5083 -0.7184  0.3270
50828SOL    HW259535   4.338   2.348   1.526 -0.6607  0.3670  0.6388
50829SOL     OW59536   8.120   4.499   3.555  0.1806  0.2510 -0.3695
50829SOL    HW159537   8.047   4.438   3.547 -0.5985  0.9114  1.3032
50829SOL    HW259538   8.120   4.548   3.472 -0.3426 -0.7293 -0.9661
50830SOL     OW59539   8.629   8.813  10.395 -0.4239 -0.3060 -0.1735
50830SOL    HW159540   8.569   8.741  10.415  0.2973 -0.4715  1.5010
50830SOL    HW259541   8.672   8.832  10.478 -1.2935  2.7373 -0.3183
50831SOL     OW59542   0.333   0.894   8.336 -0.1607  0.6859 -0.1462
50831SOL    HW159543   0.305   0.817   8.386 -0.7634  1.3878  0.6156
50831SOL    HW259544   0.262   0.957   8.347 -0.2428  0.9284 -1.7699
50832SOL     OW59545   7.282   3.669   5.114  0.5648  0.3460 -0.0838
50832SOL    HW159546   7.334   3.685   5.193 -0.7517  1.7741  0.5598
50832SOL    HW259547   7.305   3.581   5.087  2.0839  0.3363  1.0976
50833SOL     OW59548   4.162   9.662  11.636  0.3283 -0.1161  0.6403
50833SOL    HW159549   4.129   9.744  11.599  0.1678 -1.4412 -2.4201
50833SOL    HW259550   4.204   9.617  11.562 -0.9955 -3.4999  1.7526
50834SOL     OW59551  11.182   0.043   6.348  0.2238  0.0638  0.0195
50834SOL    HW159552  11.109   0.095   6.312  1.2523 -0.5507 -3.3050
50834SOL    HW259553  11.236   0.107   6.394 -0.4326  1.2695 -0.8161
50835SOL     OW59554   0.890   8.156   6.468  0.9538  0.1269  0.0275
50835SOL    HW159555   0.806   8.201   6.454  0.2894 -1.0930 -0.0886
50835SOL    HW259556   0.898   8.148   6.563  0.4903 -0.5146  0.0245
50836SOL     OW59557   8.196   6.915   2.502  0.2186 -0.5303 -0.1667
50836SOL    HW159558   8.165   6.966   2.427 -2.7901 -2.3685 -0.3010
50836SOL    HW259559   8.164   6.962   2.578  2.0043  0.5266 -0.0041
50837SOL     OW59560   0.251  10.190   0.290  0.4497  0.0355  0.5666
50837SOL    HW159561   0.263  10.283   0.273 -1.9487  0.4577  0.7996
50837SOL    HW259562   0.325  10.166   0.346  0.5863  2.0616  1.3443
50838SOL     OW59563   4.961   1.442  10.387 -0.2730 -0.1924  0.5149
50838SOL    HW159564   5.025   1.444  10.459 -3.2285  0.9146  3.3608
50838SOL    HW259565   4.948   1.349  10.369  2.5380 -0.4552 -0.6960
50839SOL     OW59566   6.274  10.497   1.176  0.3634  0.8048 -0.2672
50839SOL    HW159567   6.290  10.578   1.128  3.2247 -0.8984 -2.5413
50839SOL    HW259568   6.338  10.499   1.247 -0.3458  1.0041  0.3789
50840SOL     OW59569   3.148   3.920   1.474 -0.4279  0.2550  0.3466
50840SOL    HW159570   3.165   3.835   1.514  1.2048 -0.4956 -1.7506
50840SOL    HW259571   3.107   3.900   1.390 -0.4461  1.5578  0.0155
50841SOL     OW59572   0.448   3.949   1.681 -0.2117 -0.0886 -0.0832
50841SOL    HW159573   0.389   3.899   1.625 -0.4389 -0.9097  0.8726
50841SOL    HW259574   0.522   3.971   1.624 -0.7140 -0.3813 -0.8629
50842SOL     OW59575   1.414   9.214   4.624  0.0590  0.7304  0.9040
50842SOL    HW159576   1.497   9.175   4.651 -0.1906 -0.7192 -0.3286
50842SOL    HW259577   1.433   9.255   4.540 -0.4267  0.5411  0.6972
50843SOL     OW59578  11.007   0.158   2.207 -0.3588 -0.8213  0.4122
50843SOL    HW159579  10.957   0.221   2.156  1.4777 -0.1606 -0.6873
50843SOL    HW259580  11.053   0.105   2.142  0.5467 -1.2249  1.3550
50844SOL     OW59581  12.506  12.248   2.028 -0.1351 -0.4748 -0.2164
50844SOL    HW159582  12.476  12.248   2.119  1.6401  0.0205  0.4066
50844SOL    HW259583  12.434  12.287   1.979 -0.6482  0.3788  1.1572
50845SOL     OW59584   8.327  12.400   7.036  0.3601  0.3511 -0.2998
50845SOL    HW159585   8.386  12.428   7.106  0.1622  0.9336 -0.3617
50845SOL    HW259586   8.384  12.355   6.973  0.8142  1.3075 -0.5805
50846SOL     OW59587  11.232   9.233  10.573  0.0371 -0.1781  0.1481
50846SOL    HW159588  11.259   9.168  10.639 -0.2522 -0.8135 -0.3524
50846SOL    HW259589  11.314   9.271  10.542  0.2180 -0.3950  0.3573
50847SOL     OW59590   4.874   8.244  10.711 -0.2363 -0.1377  0.0753
50847SOL    HW159591   4.890   8.298  10.789  2.4350  0.8968 -1.0727
50847SOL    HW259592   4.880   8.306  10.638 -2.2373 -1.1666 -1.0375
50848SOL     OW59593   2.268   5.920   0.457  0.5963  0.2949  0.2144
50848SOL    HW159594   2.325   5.847   0.481  0.5420 -0.8889 -2.8780
50848SOL    HW259595   2.321   5.998   0.473  1.0180 -0.4115  2.6059
50849SOL     OW59596   1.967  10.643   7.280 -0.6657  0.7217  0.1063
50849SOL    HW159597   1.894  10.704   7.274 -1.2103  0.3105  1.9173
50849SOL    HW259598   1.928  10.562   7.312  0.7178  0.8261  2.2440
50850SOL     OW59599   4.449   0.343   7.176  0.0682  0.2189  0.1208
50850SOL    HW159600   4.377   0.393   7.137 -0.3229 -0.6614 -0.3076
50850SOL    HW259601   4.407   0.266   7.215  0.8621 -0.7729 -0.9266
50851SOL     OW59602   7.674  12.133   9.709  0.3880  0.0997 -0.5072
50851SOL    HW159603   7.690  12.184   9.630 -1.2009  0.2210 -0.7666
50851SOL    HW259604   7.595  12.082   9.691 -1.1583  1.5428  1.6269
50852SOL     OW59605   6.225   9.598   1.711  0.9453 -0.3921  0.1600
50852SOL    HW159606   6.193   9.593   1.621 -1.1899 -1.4126  0.9038
50852SOL    HW259607   6.316   9.628   1.703  1.0730 -1.2256 -2.3595
50853SOL     OW59608   8.456  10.741   4.070 -0.3831  0.0075  0.2765
50853SOL    HW159609   8.545  10.758   4.103  0.0203  1.1220 -1.2475
50853SOL    HW259610   8.413  10.826   4.073 -0.9295 -0.2439 -0.2861
50854SOL     OW59611   8.716   7.133   4.618 -0.2606 -0.1914  0.1491
50854SOL    HW159612   8.686   7.191   4.549 -2.1363 -2.3480 -0.9906
50854SOL    HW259613   8.722   7.189   4.696 -0.5189  1.7765 -1.1891
50855SOL     OW59614  12.505  10.948   8.325  0.1887  0.4714 -0.0367
50855SOL    HW159615  12.573  11.005   8.289 -0.1003  0.0277 -1.3353
50855SOL    HW259616  12.550  10.895   8.391  0.9309  0.7001 -0.3485
50856SOL     OW59617   9.712   2.742   6.264 -0.4398 -0.3250 -0.1458
50856SOL    HW159618   9.643   2.802   6.234  1.7081  1.8287 -1.1235
50856SOL    HW259619   9.721   2.678   6.192 -1.0624 -0.3290 -0.2261
50857SOL     OW59620   5.254  10.839  10.096 -0.3479  0.0881  0.5973
50857SOL    HW159621   5.309  10.918  10.096  1.4759 -1.1162  0.7536
50857SOL    HW259622   5.168  10.870  10.069  1.1323  1.5974 -2.9681
50858SOL     OW59623   8.851  10.433   0.516 -0.1846  0.5254 -0.1188
50858SOL    HW159624   8.938  10.412   0.483 -0.2642  0.6458 -0.4024
50858SOL    HW259625   8.791  10.379   0.464 -0.4113  1.6216 -1.0203
50859SOL     OW59626   9.310  11.565   2.001  0.2510 -0.1780 -0.0318
50859SOL    HW159627   9.312  11.522   1.916 -1.0925 -1.8572  0.7210
50859SOL    HW259628   9.295  11.658   1.981  1.1158 -0.3585 -1.6440
50860SOL     OW59629   4.989   6.011   3.924 -0.3883 -0.2031 -0.1486
50860SOL    HW159630   4.949   5.947   3.864 -1.7674 -0.0563  0.5940
50860SOL    HW259631   4.979   6.095   3.880 -0.0191 -0.2849 -0.3952
50861SOL     OW59632   3.548  11.762  12.262  0.3492 -0.1080  0.2847
50861SOL    HW159633   3.621  11.701  12.250 -1.4568 -2.4261  0.4226
50861SOL    HW259634   3.493  11.749  12.185 -1.4116 -0.6640  1.5796
50862SOL     OW59635   3.022   9.975   4.956  0.9633 -0.6646  0.0963
50862SOL    HW159636   2.970   9.949   5.032  0.7535  0.5375  0.3919
50862SOL    HW259637   3.003   9.909   4.889  0.8166 -1.4922  0.9434
50863SOL     OW59638  12.317   8.996   5.670 -0.3957 -0.3380  0.0429
50863SOL    HW159639  12.328   9.062   5.601  2.0103  1.1190  1.6983
50863SOL    HW259640  12.368   8.921   5.640  1.7429  0.7723  0.7385
50864SOL     OW59641   6.317   7.356   4.409 -0.0756  0.7058  0.3735
50864SOL    HW159642   6.403   7.370   4.371  0.7363  1.0702  2.2194
50864SOL    HW259643   6.264   7.321   4.338  1.4022  1.1276 -0.9767
50865SOL     OW59644   0.103   7.279   0.261  0.2200 -0.3792  1.2239
50865SOL    HW159645   0.065   7.205   0.214  0.9845 -0.2989  0.4607
50865SOL    HW259646   0.139   7.240   0.341  0.4001 -0.8020  0.9428
50866SOL     OW59647   7.951   9.502   0.835  0.2170  0.6656 -0.1788
50866SOL    HW159648   7.985   9.558   0.766 -0.7065  1.0208 -0.3586
50866SOL    HW259649   7.862   9.480   0.807  0.4252 -0.5958  0.0625
50867SOL     OW59650  11.387  10.249   1.060 -0.5525 -0.2606 -0.1667
50867SOL    HW159651  11.338  10.258   1.141  0.9389 -1.0974  0.8800
50867SOL    HW259652  11.419  10.159   1.061 -0.2119 -0.1745 -1.5137
50868SOL     OW59653   0.835   3.080   9.074 -0.0036  0.0166 -0.4577
50868SOL    HW159654   0.917   3.109   9.113 -0.3251  1.5942 -0.8986
50868SOL    HW259655   0.783   3.049   9.148 -0.0630  1.6248  0.2083
50869SOL     OW59656  10.888   3.519   2.608  0.2517 -0.1088 -0.4839
50869SOL    HW159657  10.925   3.490   2.524  0.1124 -0.1727 -0.5245
50869SOL    HW259658  10.801   3.480   2.610  0.1792  0.0564 -0.3981
50870SOL     OW59659   1.905   6.799   2.980  0.1202 -0.1101  0.3237
50870SOL    HW159660   1.898   6.707   2.957 -1.0364 -0.3086  1.3759
50870SOL    HW259661   1.815   6.830   2.984  0.5069  1.2777 -0.7347
50871SOL     OW59662   7.098   0.244   2.849 -0.4900  0.4833  0.7415
50871SOL    HW159663   7.033   0.199   2.795  0.8242 -1.9671  1.0558
50871SOL    HW259664   7.052   0.263   2.931 -1.0882 -0.3215  0.6028
50872SOL     OW59665   7.162   6.407   0.936 -0.4138  0.5477  0.2519
50872SOL    HW159666   7.208   6.483   0.972 -1.0336  0.3069  1.6073
50872SOL    HW259667   7.098   6.444   0.875 -1.1278  1.1770  1.3622
50873SOL     OW59668   6.507  10.087  10.347 -0.0881  0.1400 -0.0413
50873SOL    HW159669   6.602  10.099  10.340  0.1137 -0.8148  0.9589
50873SOL    HW259670   6.471  10.159  10.295  1.1712  0.6746 -0.2173
50874SOL     OW59671   5.189   3.115   4.952 -0.0102 -0.0899 -0.0705
50874SOL    HW159672   5.160   3.150   4.868  1.8593 -0.8678 -1.0967
50874SOL    HW259673   5.276   3.079   4.935 -0.3903 -2.0956  1.7198
50875SOL     OW59674   7.845   2.798  11.628 -0.3178 -0.5018  0.5541
50875SOL    HW159675   7.792   2.746  11.568  1.5880  0.3183 -2.0186
50875SOL    HW259676   7.825   2.889  11.606  1.7667 -0.1789 -0.2454
50876SOL     OW59677   7.208   8.994   4.596 -0.1832 -0.1109 -0.1898
50876SOL    HW159678   7.148   8.937   4.546 -0.3892  0.3405 -0.4647
50876SOL    HW259679   7.230   8.942   4.674 -1.9017  0.1751  0.5325
50877SOL     OW59680   0.376   5.835   1.558  0.1552 -0.4320 -0.2087
50877SOL    HW159681   0.291   5.876   1.545 -0.6350 -1.5535  1.0376
50877SOL    HW259682   0.402   5.805   1.471 -0.5368  0.2801 -0.6729
50878SOL     OW59683   7.704   7.260  10.915 -0.3677 -0.0236 -0.9114
50878SOL    HW159684   7.665   7.212  10.988  1.1432  0.5734  0.3384
50878SOL    HW259685   7.763   7.196  10.874 -0.0597  0.0735 -0.6330
50879SOL     OW59686   3.708   3.596   4.139  0.4006 -0.8681  0.2389
50879SOL    HW159687   3.760   3.627   4.213 -1.6937 -0.4350  1.6025
50879SOL    HW259688   3.644   3.536   4.177 -2.1905  1.0671 -0.8025
50880SOL     OW59689   5.560   1.649   9.346 -0.7484  0.0354 -0.0711
50880SOL    HW159690   5.615   1.629   9.422 -0.7780  0.6623  0.1159
50880SOL    HW259691   5.590   1.588   9.279  0.5371  0.7083 -0.1400
50881SOL     OW59692  10.683  12.120   4.556 -0.0268 -0.2549 -0.2354
50881SOL    HW159693  10.722  12.106   4.470  0.5534 -0.7610  0.1060
50881SOL    HW259694  10.615  12.185   4.541  0.4891  0.1242 -0.9622
50882SOL     OW59695   7.533   0.091   9.707  0.3929  0.1991 -0.4604
50882SOL    HW159696   7.591   0.034   9.757  1.8684  0.7780 -1.4414
50882SOL    HW259697   7.519   0.167   9.763 -0.1519 -0.3282  0.1330
50883SOL     OW59698   4.978   8.423   0.489 -0.2388 -0.4057  0.1798
50883SOL    HW159699   5.006   8.473   0.413 -1.0057  0.5152  0.4786
50883SOL    HW259700   5.041   8.352   0.496  0.5861  0.2340 -0.5554
50884SOL     OW59701   2.919   6.167   2.831  0.2981 -0.3649 -0.2554
50884SOL    HW159702   2.896   6.211   2.912  1.4158  1.6703 -0.9694
50884SOL    HW259703   2.852   6.195   2.768  0.6944 -0.0951 -0.5696
50885SOL     OW59704   0.503   9.937  11.382  0.1935 -0.1466 -0.1071
50885SOL    HW159705   0.470   9.998  11.448  0.7074  0.4777 -0.4254
50885SOL    HW259706   0.500   9.986  11.300  0.1521 -0.7150 -0.4488
50886SOL     OW59707  10.742   9.034   8.469 -0.7443  0.2535 -0.4365
50886SOL    HW159708  10.836   9.043   8.478 -0.5331 -0.9304 -1.2083
50886SOL    HW259709  10.721   9.075   8.386 -0.7007 -0.6331 -0.8981
50887SOL     OW59710   6.211   8.979   4.243  0.5121 -0.7063  0.2438
50887SOL    HW159711   6.281   8.956   4.181  1.0783 -1.0267  0.9766
50887SOL    HW259712   6.243   9.058   4.286 -0.5574  0.3917 -0.9065
50888SOL     OW59713   9.871  10.069  11.352  0.2103  0.1392 -0.3092
50888SOL    HW159714   9.917  10.016  11.417  0.5956 -0.1815 -0.8318
50888SOL    HW259715   9.871  10.015  11.272  1.0023  1.0978 -0.9834
50889SOL     OW59716   3.815   6.088   7.551  0.1348 -0.9379 -0.0715
50889SOL    HW159717   3.891   6.142   7.530 -0.4585 -0.2066 -0.3917
50889SOL    HW259718   3.791   6.047   7.468  0.8385 -2.0517  0.2552
50890SOL     OW59719  12.265   6.192   3.781  0.0000  0.5855 -0.7121
50890SOL    HW159720  12.224   6.169   3.698 -2.0322 -0.6577  0.5803
50890SOL    HW259721  12.217   6.268   3.812 -0.9867 -0.5021  0.5182
50891SOL     OW59722   6.126   5.148   5.160  0.6129  0.3229 -0.2308
50891SOL    HW159723   6.183   5.078   5.191  1.0423  1.0903  0.7568
50891SOL    HW259724   6.174   5.188   5.088  0.3214 -0.4358 -0.8709
50892SOL     OW59725  10.738  12.006  12.276 -0.3854  0.8836 -0.0652
50892SOL    HW159726  10.691  11.965  12.204 -0.9470 -0.7325  1.1519
50892SOL    HW259727  10.677  12.004  12.349  1.1660 -0.3325  1.2852
50893SOL     OW59728   0.980   2.138   9.518  0.3780  0.1946 -0.0863
50893SOL    HW159729   0.962   2.096   9.602 -0.8775  0.4284 -0.2182
50893SOL    HW259730   1.071   2.169   9.526  0.4386 -0.2118  0.9962
50894SOL     OW59731   8.302   8.303  10.859  0.5044  0.2496 -0.1409
50894SOL    HW159732   8.292   8.214  10.826  2.1467 -0.2231  0.5505
50894SOL    HW259733   8.284   8.296  10.953 -1.7399  1.1396 -0.4230
50895SOL     OW59734   9.042  10.628  11.578  0.3765  0.0274  0.0299
50895SOL    HW159735   8.988  10.701  11.607  0.5695  0.7872 -1.4436
50895SOL    HW259736   9.063  10.648  11.487  2.5034 -0.6368  0.3211
50896SOL     OW59737   6.514   8.667   0.390 -0.0505 -0.0544 -0.5572
50896SOL    HW159738   6.564   8.745   0.366  1.3583 -0.1366  1.7878
50896SOL    HW259739   6.528   8.658   0.484 -0.7949 -2.7332 -0.6321
50897SOL     OW59740   0.394   2.999  10.442 -0.0140  0.0506 -0.2387
50897SOL    HW159741   0.445   2.927  10.481  1.0232  0.3598 -0.9765
50897SOL    HW259742   0.386   3.063  10.513 -1.1483 -0.8582  0.5030
50898SOL     OW59743   9.117   5.215   7.445  0.4360  0.4663 -0.1693
50898SOL    HW159744   9.199   5.264   7.454 -0.3993  1.8615  0.0453
50898SOL    HW259745   9.065   5.266   7.384 -1.2713  0.9943  1.6402
50899SOL     OW59746   5.105   9.676   5.869 -0.3917  0.6700 -0.3266
50899SOL    HW159747   5.192   9.637   5.867 -0.5505  0.2924  0.0502
50899SOL    HW259748   5.103   9.732   5.791 -0.5770 -0.9792 -1.5683
50900SOL     OW59749   9.653   7.204   3.311  0.2322 -0.6227  0.0036
50900SOL    HW159750   9.711   7.253   3.369 -0.6174 -0.0207  0.3806
50900SOL    HW259751   9.569   7.204   3.358 -0.7034  0.5888 -1.5862
50901SOL     OW59752   1.710  11.192  12.269 -0.1837 -0.6200  0.2661
50901SOL    HW159753   1.647  11.200  12.198  0.4729  0.8107 -0.1887
50901SOL    HW259754   1.783  11.248  12.243  1.3768 -2.3400  0.7036
50902SOL     OW59755  10.813   5.534   4.643 -0.3351  0.5191  0.2407
50902SOL    HW159756  10.781   5.471   4.578  2.2747 -0.7854  0.0745
50902SOL    HW259757  10.804   5.619   4.601 -1.5783  0.0224 -0.5649
50903SOL     OW59758   9.411   3.490  12.472  0.2930 -0.7698  0.9743
50903SOL    HW159759   9.377   3.469  12.385  0.3449  1.4677  0.3501
50903SOL    HW259760   9.344   3.457  12.533 -0.4957 -0.9887  0.0111
50904SOL     OW59761  11.732   2.009   8.892 -0.0476  0.1449 -0.1159
50904SOL    HW159762  11.637   2.019   8.885  0.0934  0.5909 -1.7127
50904SOL    HW259763  11.759   1.972   8.808  1.2651  0.6020  0.0792
50905SOL     OW59764   5.007   6.349   7.265  0.0386  0.2324 -0.6443
50905SOL    HW159765   4.987   6.314   7.178 -0.3362  0.3320 -0.6002
50905SOL    HW259766   5.077   6.293   7.298 -0.2037 -0.1565 -0.7800
50906SOL     OW59767   7.298   5.312   0.306 -0.0357  0.2350  0.1934
50906SOL    HW159768   7.256   5.258   0.373  1.1387  1.6329  2.1553
50906SOL    HW259769   7.227   5.365   0.270 -0.4682  0.4490  1.3323
50907SOL     OW59770   0.628   4.605  11.034 -0.4706  0.1337 -0.5789
50907SOL    HW159771   0.619   4.609  11.129  0.8270  1.4960 -0.4870
50907SOL    HW259772   0.688   4.531  11.019 -0.9345 -0.2921 -0.3751
50908SOL     OW59773   1.076   9.263   7.483  0.4040  0.1134  0.2836
50908SOL    HW159774   1.075   9.303   7.570 -0.1241 -2.6214  1.6500
50908SOL    HW259775   0.997   9.296   7.441 -0.7578 -0.4918  1.8723
50909SOL     OW59776   6.537   1.686   1.620 -0.1101 -0.3356 -0.0733
50909SOL    HW159777   6.472   1.756   1.611  0.6330  0.1356 -2.1986
50909SOL    HW259778   6.497   1.611   1.577  0.3718 -0.3117 -0.5650
50910SOL     OW59779   2.221   2.457   1.968  0.5742 -0.0767  0.2976
50910SOL    HW159780   2.196   2.539   1.925  3.4785 -0.0627 -1.6502
50910SOL    HW259781   2.166   2.390   1.926  0.0297  0.5410  0.0109
50911SOL     OW59782  10.327   9.953   9.862  0.6433 -0.0977 -0.2636
50911SOL    HW159783  10.391   9.900   9.908  0.4568  0.4578  0.6557
50911SOL    HW259784  10.259   9.892   9.834  1.9001 -0.8317 -1.9187
50912SOL     OW59785  12.229   8.472   5.062  0.0291  0.6277  0.2701
50912SOL    HW159786  12.224   8.535   5.133 -0.8551 -0.1076  0.8864
50912SOL    HW259787  12.216   8.387   5.104 -0.8273  0.2026 -0.7834
50913SOL     OW59788  12.311   7.471   4.790 -0.0456  0.3960  0.0127
50913SOL    HW159789  12.360   7.510   4.862 -1.5884  0.6902  0.9401
50913SOL    HW259790  12.220   7.497   4.805 -0.6506 -0.8838 -1.1453
50914SOL     OW59791  10.993   2.023  11.891 -0.3312  0.2937  0.5813
50914SOL    HW159792  11.055   1.979  11.833 -1.1505  1.6014 -1.3777
50914SOL    HW259793  11.046   2.052  11.965  1.1771  0.4062 -0.4961
50915SOL     OW59794  10.482   1.146   5.608 -0.1280 -0.3432 -0.5955
50915SOL    HW159795  10.527   1.086   5.548  1.4786  0.5699 -0.3466
50915SOL    HW259796  10.518   1.125   5.694 -0.5275  0.0823 -0.3223
50916SOL     OW59797   2.643   5.014   1.327  0.2753 -0.2908  0.7584
50916SOL    HW159798   2.713   5.005   1.261  1.3488 -0.9838  1.9387
50916SOL    HW259799   2.619   5.106   1.324  2.4394  0.3681  1.4588
50917SOL     OW59800   1.781  11.725   0.278  0.0294  0.1518  0.7352
50917SOL    HW159801   1.816  11.694   0.194 -1.6384  1.2064 -0.3895
50917SOL    HW259802   1.691  11.693   0.280 -0.8108  2.4076  0.8802
50918SOL     OW59803   5.511   0.961   7.883 -0.3771 -0.1351 -0.1229
50918SOL    HW159804   5.535   0.971   7.791  0.7054  1.1238  0.2588
50918SOL    HW259805   5.450   0.888   7.885 -0.0836 -0.4502 -1.7830
50919SOL     OW59806   8.208   6.085   3.567  0.2377 -0.3021 -0.1506
50919SOL    HW159807   8.155   6.121   3.496 -0.1948  0.3567  0.4973
50919SOL    HW259808   8.278   6.037   3.522 -0.2831 -0.2660 -1.0162
50920SOL     OW59809  10.473   8.342   1.602 -0.3061 -0.2450  0.3182
50920SOL    HW159810  10.400   8.334   1.664  0.3629  0.9658  1.3171
50920SOL    HW259811  10.489   8.252   1.573 -2.1473 -0.5567  0.1020
50921SOL     OW59812   3.354  12.306  11.051 -0.2380  0.5917 -0.3027
50921SOL    HW159813   3.264  12.319  11.082 -0.8488 -0.5161 -1.5054
50921SOL    HW259814   3.408  12.330  11.125 -1.5963 -0.9378  1.2738
50922SOL     OW59815   1.140  12.554   4.429 -0.6744  0.9305  0.3467
50922SOL    HW159816   1.111  12.628   4.376 -1.4157 -0.4421 -1.2555
50922SOL    HW259817   1.059  12.514   4.460 -0.4050 -0.5755 -0.7960
50923SOL     OW59818  10.800   3.084   3.438  0.3977  0.7213  0.0298
50923SOL    HW159819  10.824   3.063   3.348  0.1721  0.8845 -0.0695
50923SOL    HW259820  10.833   3.173   3.451 -0.0671  0.9111 -0.0775
50924SOL     OW59821   4.018   3.940   4.457  0.2464  0.4727  0.1592
50924SOL    HW159822   3.948   3.876   4.472  0.0804  0.2004 -1.5263
50924SOL    HW259823   4.090   3.911   4.513 -0.8451  0.5759  1.6980
50925SOL     OW59824   3.013  11.603  11.201  0.3337  0.4097 -0.2881
50925SOL    HW159825   2.936  11.618  11.145 -1.9308 -0.5644  2.3043
50925SOL    HW259826   3.011  11.509  11.219  1.1052  0.6425  1.1626
50926SOL     OW59827  10.810   4.573   0.399  0.0118  0.4487 -0.0087
50926SOL    HW159828  10.883   4.512   0.391 -1.3067 -1.0996 -0.9016
50926SOL    HW259829  10.741   4.534   0.345 -1.9372  1.1462  1.8678
50927SOL     OW59830   0.737  11.825   4.789  0.2721  0.5822  0.5539
50927SOL    HW159831   0.707  11.771   4.862  0.4834 -1.0001 -0.4731
50927SOL    HW259832   0.676  11.806   4.718  0.2963  1.7984  0.1848
50928SOL     OW59833   5.316   7.456   0.110 -0.3397  0.1150 -0.4063
50928SOL    HW159834   5.285   7.504   0.186  0.8747  1.2107 -0.5844
50928SOL    HW259835   5.309   7.518   0.037  1.2983  0.0807 -0.6266
50929SOL     OW59836   1.125   5.197   5.989 -0.5111 -0.4306 -0.2815
50929SOL    HW159837   1.172   5.217   6.070 -0.5939  1.6574 -0.6785
50929SOL    HW259838   1.032   5.198   6.015 -0.7490  2.9058 -0.7469
50930SOL     OW59839   8.237   6.106  11.667 -0.4301  0.2305 -0.0674
50930SOL    HW159840   8.320   6.155  11.667 -0.3578  0.1854  1.7569
50930SOL    HW259841   8.173   6.168  11.634  0.0355  0.8763  0.2002
50931SOL     OW59842  11.805   2.518   6.034  0.2561  0.5501 -0.0793
50931SOL    HW159843  11.817   2.480   6.121 -0.6975 -0.7346 -0.4629
50931SOL    HW259844  11.712   2.541   6.031 -0.1104 -0.8886 -1.2668
50932SOL     OW59845   9.067   0.930   1.170  0.2780  0.4482 -0.6682
50932SOL    HW159846   9.069   0.834   1.172  1.6179  0.4472  1.2866
50932SOL    HW259847   9.135   0.954   1.107 -0.7954  0.1456 -1.9808
50933SOL     OW59848  12.518   5.923   8.035  0.0851 -0.3338  0.0668
50933SOL    HW159849  12.603   5.880   8.030 -1.1066 -2.8012 -1.1013
50933SOL    HW259850  12.459   5.855   8.070 -1.7072  0.7219 -0.7359
50934SOL     OW59851  10.144   1.810   3.495 -0.6722  1.0622  0.0475
50934SOL    HW159852  10.214   1.869   3.525  1.1795 -0.5670 -0.8242
50934SOL    HW259853  10.144   1.820   3.400  0.4850 -1.0694 -0.2495
50935SOL     OW59854   2.899   8.874   5.705  0.3634 -0.0001  0.2759
50935SOL    HW159855   2.818   8.825   5.721 -0.5291  1.2320 -0.2617
50935SOL    HW259856   2.967   8.807   5.698 -0.4331 -1.0008  1.7259
50936SOL     OW59857   0.371   7.736   8.414  0.2916 -0.0665  0.2155
50936SOL    HW159858   0.359   7.651   8.372  1.0557 -0.0328 -0.0862
50936SOL    HW259859   0.288   7.782   8.399 -0.2746 -0.8872  0.7161
50937SOL     OW59860   3.376  12.214   9.992  0.2959  0.0799  0.2040
50937SOL    HW159861   3.354  12.280   9.926 -0.3903  0.5143  0.8527
50937SOL    HW259862   3.320  12.140   9.972  1.3532 -0.4892 -0.7735
50938SOL     OW59863   2.665  10.836   4.080 -0.2139 -0.2042  0.4997
50938SOL    HW159864   2.587  10.873   4.119 -0.6982  0.0381 -0.6778
50938SOL    HW259865   2.736  10.863   4.138 -0.7677  1.1148  0.5953
50939SOL     OW59866   9.028   4.569   6.274  0.0803  0.5350  0.2053
50939SOL    HW159867   9.093   4.606   6.214 -1.0910  0.3035 -1.2794
50939SOL    HW259868   8.945   4.608   6.246 -1.1220 -2.5858 -1.0136
50940SOL     OW59869   3.613   5.949   9.306  0.5844 -0.8133  0.0671
50940SOL    HW159870   3.668   5.982   9.234 -0.0553 -2.6463 -1.3435
50940SOL    HW259871   3.640   5.858   9.318 -0.8409 -1.1880  0.6274
50941SOL     OW59872   5.908   3.321   9.147  0.3253 -0.6644  0.0459
50941SOL    HW159873   5.827   3.371   9.158  1.4006  1.4298 -0.8924
50941SOL    HW259874   5.880   3.238   9.108 -1.3982 -0.0846 -0.0414
50942SOL     OW59875  12.268   1.560   8.412 -0.5299 -0.3822  0.5124
50942SOL    HW159876  12.231   1.489   8.464 -2.7821  1.2598  1.3389
50942SOL    HW259877  12.336   1.598   8.467 -0.3872 -0.9326  0.7154
50943SOL     OW59878  11.815   5.475  10.807 -0.1002  0.3222 -0.1740
50943SOL    HW159879  11.817   5.402  10.870  2.5241 -0.9455 -1.5637
50943SOL    HW259880  11.730   5.468  10.765 -1.0158 -0.1704  1.6693
50944SOL     OW59881   5.016   3.081   0.361  0.7769 -0.2345 -0.4258
50944SOL    HW159882   5.036   3.010   0.300 -0.6899 -0.8812 -0.2024
50944SOL    HW259883   4.986   3.036   0.440  1.1457  0.6186  0.2128
50945SOL     OW59884  12.568  11.077   0.610  0.8763  0.0441 -0.0755
50945SOL    HW159885  12.563  11.123   0.693 -1.4681 -1.1494  0.5140
50945SOL    HW259886  12.479  11.077   0.576  1.1082 -2.3920 -0.9213
50946SOL     OW59887   9.280   3.628   1.315 -0.7678 -0.0117 -0.2900
50946SOL    HW159888   9.189   3.627   1.285 -0.9700 -0.1977  0.3269
50946SOL    HW259889   9.279   3.681   1.395 -0.2082  0.5878 -0.6590
50947SOL     OW59890   7.869   9.475   8.220  0.3227  0.1163 -0.4238
50947SOL    HW159891   7.936   9.407   8.217  0.1275 -0.2292  1.6914
50947SOL    HW259892   7.885   9.521   8.302 -0.8553  1.2647 -0.8023
50948SOL     OW59893   7.154   1.411   9.703  0.3669 -0.2839  0.0530
50948SOL    HW159894   7.247   1.424   9.684 -0.0466  0.9413 -1.2328
50948SOL    HW259895   7.121   1.498   9.727 -1.2227  0.1413 -3.1514
50949SOL     OW59896   7.384  11.199  10.920  0.4765  0.3970 -0.9213
50949SOL    HW159897   7.452  11.135  10.897  1.4280  0.9283  0.3043
50949SOL    HW259898   7.343  11.221  10.837  1.7182 -0.0495 -1.6769
50950SOL     OW59899   4.072   1.471   4.911  0.2296  0.0600 -0.1365
50950SOL    HW159900   4.057   1.400   4.848 -0.2238  0.4083 -0.4279
50950SOL    HW259901   4.019   1.544   4.877 -1.7927 -0.3972  1.8052
50951SOL     OW59902  12.107   9.217   2.477  0.0350  0.0466  0.0565
50951SOL    HW159903  12.095   9.123   2.464  1.1052 -0.3446  1.5683
50951SOL    HW259904  12.191   9.237   2.436  0.0362  0.2385  0.1492
50952SOL     OW59905   5.376  11.215  10.943 -0.4488  0.0136 -0.1913
50952SOL    HW159906   5.424  11.224  10.860  0.0679 -2.0895 -0.1606
50952SOL    HW259907   5.317  11.142  10.929 -1.0195  0.2221  1.0154
50953SOL     OW59908   0.325   0.982   8.708 -0.0540  0.4416  0.1954
50953SOL    HW159909   0.279   0.898   8.715  1.9932 -0.7128  0.3412
50953SOL    HW259910   0.418   0.959   8.707  0.5359  2.6360 -1.0112
50954SOL     OW59911   7.521  10.934   8.267  0.3264  0.3616 -0.1969
50954SOL    HW159912   7.542  11.000   8.201 -0.9783 -0.1231 -1.1348
50954SOL    HW259913   7.432  10.955   8.294  0.8807  0.6391  1.5528
50955SOL     OW59914   1.917   0.834  12.081  0.7068  0.2078  0.0235
50955SOL    HW159915   1.907   0.929  12.087 -0.5975  0.0276  0.9761
50955SOL    HW259916   1.843   0.806  12.027  1.8725 -0.1515 -1.4631
50956SOL     OW59917   0.283   4.401   8.522 -0.0453  0.2599 -0.7066
50956SOL    HW159918   0.319   4.313   8.508 -1.0405 -0.2609 -0.1646
50956SOL    HW259919   0.309   4.423   8.612 -2.1849 -0.7336  0.2381
50957SOL     OW59920   0.048   5.372   6.144 -0.8436  0.1978  0.1538
50957SOL    HW159921   0.023   5.430   6.072 -2.2996  0.1492  0.5997
50957SOL    HW259922   0.056   5.286   6.103 -3.0750 -0.1070  0.2557
50958SOL     OW59923   7.953   4.463   4.862 -0.1905 -0.3915  0.2278
50958SOL    HW159924   7.957   4.388   4.921 -0.1753  0.2535  1.0754
50958SOL    HW259925   7.969   4.539   4.919  0.3045  0.2184 -0.6883
50959SOL     OW59926   3.364   5.890   1.809  0.6332  0.4902 -0.2104
50959SOL    HW159927   3.444   5.941   1.819  1.3479 -0.7144  0.2572
50959SOL    HW259928   3.375   5.842   1.727 -0.3266  1.5420 -1.0001
50960SOL     OW59929  10.301   7.753   6.185  0.2336 -0.0819 -0.1645
50960SOL    HW159930  10.306   7.765   6.090  2.5201  0.6385 -0.0081
50960SOL    HW259931  10.390   7.767   6.216 -0.6927  1.0286  2.2570
50961SOL     OW59932   3.748  10.686   9.451  0.2931  0.3529  0.1914
50961SOL    HW159933   3.682  10.705   9.518  1.4628  0.9054  1.2351
50961SOL    HW259934   3.831  10.706   9.494  1.1382 -0.2593 -1.1139
50962SOL     OW59935   4.818   9.270  10.877 -0.2318 -0.1656  0.1047
50962SOL    HW159936   4.774   9.185  10.886 -1.5025  0.2546 -1.6374
50962SOL    HW259937   4.908   9.254  10.906 -0.1089 -2.4152 -1.3277
50963SOL     OW59938   8.256  10.716   0.143  0.2408  0.5163 -0.3251
50963SOL    HW159939   8.333  10.673   0.179  0.0644  0.0015 -0.5647
50963SOL    HW259940   8.187  10.701   0.208 -0.0421 -0.2995 -0.8073
50964SOL     OW59941  11.251   0.915   5.069  0.4114 -0.2915 -0.1158
50964SOL    HW159942  11.323   0.968   5.036  0.0358  0.3381  0.0574
50964SOL    HW259943  11.276   0.892   5.158  0.2107  0.2796  0.0896
50965SOL     OW59944   9.911   2.335   8.258 -0.2924  0.0737 -0.1208
50965SOL    HW159945   9.945   2.388   8.186  0.3470  1.2177  1.0004
50965SOL    HW259946   9.897   2.249   8.219  1.6313  0.2022 -1.2173
50966SOL     OW59947   1.824   4.490   1.307 -0.2798  0.4108 -0.2961
50966SOL    HW159948   1.762   4.467   1.238 -1.6853  0.2179  0.9638
50966SOL    HW259949   1.841   4.407   1.351 -0.1368  0.6793  0.1586
50967SOL     OW59950   4.682   3.723   8.828  0.1954 -0.3950 -0.5471
50967SOL    HW159951   4.677   3.768   8.744 -1.5447  1.8679  0.6707
50967SOL    HW259952   4.597   3.679   8.837  0.3969 -0.6842 -0.0029
50968SOL     OW59953   0.650   9.057   6.230 -0.3536  0.0090 -0.2526
50968SOL    HW159954   0.571   9.047   6.282 -0.8491  2.6524 -0.3887
50968SOL    HW259955   0.696   9.131   6.269  1.4543 -0.6679 -0.9608
50969SOL     OW59956  10.676   3.878   5.017 -0.2255  0.2278  0.0378
50969SOL    HW159957  10.591   3.847   5.050  0.3794 -0.0627  1.4249
50969SOL    HW259958  10.668   3.973   5.017  0.0771  0.3106  2.1340
50970SOL     OW59959   9.770   2.054   1.251 -0.1626 -0.1028  0.9194
50970SOL    HW159960   9.724   1.989   1.304  1.6816  0.7364  3.7518
50970SOL    HW259961   9.856   2.017   1.235  0.7526  1.3311  2.1685
50971SOL     OW59962   4.663  10.358   6.359  0.1207  0.2110  0.0043
50971SOL    HW159963   4.657  10.441   6.408  0.4564 -0.9394  2.1284
50971SOL    HW259964   4.573  10.326   6.356  0.0021  0.6025 -0.7512
50972SOL     OW59965  10.110   3.615   0.899 -0.3832 -0.4205 -0.2340
50972SOL    HW159966  10.042   3.623   0.833 -0.6867 -2.3250 -0.2065
50972SOL    HW259967  10.151   3.531   0.882 -0.6141 -1.0837  2.0970
50973SOL     OW59968   7.199   7.703   2.477  0.7633  0.2648 -0.6182
50973SOL    HW159969   7.181   7.745   2.392 -1.1980 -1.7781 -1.3059
50973SOL    HW259970   7.252   7.627   2.455  0.2432 -0.2774 -0.0053
50974SOL     OW59971  11.480  11.946   5.605 -0.0428 -0.0265 -0.2603
50974SOL    HW159972  11.475  11.855   5.575  2.1514 -0.0505 -0.7250
50974SOL    HW259973  11.525  11.940   5.690 -2.5280  0.4210  1.2034
50975SOL     OW59974  10.255   0.375   9.509 -0.1973  0.2015  0.6393
50975SOL    HW159975  10.329   0.329   9.470  1.1987  1.7205  1.4121
50975SOL    HW259976  10.248   0.457   9.460 -1.0186  0.3308  0.9470
50976SOL     OW59977   7.101   3.054   8.455 -0.0802  0.3594  0.2037
50976SOL    HW159978   7.122   2.962   8.470  0.7222  0.7363  1.5582
50976SOL    HW259979   7.153   3.102   8.520  0.3236  1.8485 -1.1390
50977SOL     OW59980   6.050   4.558   1.865 -0.3673  0.6320 -0.3624
50977SOL    HW159981   6.110   4.566   1.790 -0.1295  1.8202 -0.0614
50977SOL    HW259982   5.978   4.617   1.844 -1.0402 -0.1766 -0.3438
50978SOL     OW59983   2.227  10.471   8.211  0.1872  0.6298  0.0344
50978SOL    HW159984   2.208  10.418   8.288 -0.0656  0.3962 -0.1862
50978SOL    HW259985   2.309  10.515   8.232 -0.3333  1.2624  0.7960
50979SOL     OW59986   3.995  12.292   0.974 -0.4431  0.0212 -0.4569
50979SOL    HW159987   3.948  12.258   1.051  0.0757  0.9090  0.2742
50979SOL    HW259988   3.949  12.372   0.951 -1.1516 -0.7017 -1.6627
50980SOL     OW59989   8.202   8.556   0.202 -0.5669  0.6153 -0.0454
50980SOL    HW159990   8.156   8.622   0.152  0.4702  0.7304 -0.8779
50980SOL    HW259991   8.203   8.479   0.146  0.8066  0.8161 -0.3420
50981SOL     OW59992   5.132   1.852   4.347  0.1731  0.0359 -0.2867
50981SOL    HW159993   5.218   1.813   4.363  0.5894  1.0624  0.0673
50981SOL    HW259994   5.139   1.941   4.382 -0.8860  0.2891 -0.6739
50982SOL     OW59995  11.183   6.144   5.248  0.6089 -0.2259 -0.2229
50982SOL    HW159996  11.265   6.144   5.198 -0.3630 -1.4872 -1.9263
50982SOL    HW259997  11.147   6.057   5.235 -0.7099  0.0956  1.0276
50983SOL     OW59998  10.683   8.039   5.510  0.2451 -0.2486  0.3806
50983SOL    HW159999  10.694   7.984   5.433  3.0130  0.1245  0.4241
50983SOL    HW260000  10.733   7.995   5.578 -1.3526 -0.0649  1.7451
50984SOL     OW60001  12.362   5.694   8.119  0.1757 -0.3981  0.5111
50984SOL    HW160002  12.303   5.661   8.187 -0.3398 -1.8706 -0.5969
50984SOL    HW260003  12.334   5.650   8.039  0.7998  1.2464 -0.6746
50985SOL     OW60004   9.056   6.409   9.985  0.1693 -0.4059 -0.8425
50985SOL    HW160005   8.970   6.429   9.947 -0.0892  0.3904  0.1190
50985SOL    HW260006   9.045   6.425  10.079  1.6920  0.8790 -0.8438
50986SOL     OW60007  11.017   9.841   0.857 -0.6577 -0.6564 -0.0843
50986SOL    HW160008  11.086   9.908   0.862 -0.2550 -1.1313  1.4064
50986SOL    HW260009  10.940   9.884   0.893 -0.5232 -0.8181  0.4151
50987SOL     OW60010   2.374   7.260   1.352  0.0314  0.1011  0.3026
50987SOL    HW160011   2.318   7.314   1.408 -0.2810 -1.8215  1.9563
50987SOL    HW260012   2.378   7.176   1.396  1.6993 -0.8015 -1.4207
50988SOL     OW60013  10.416   8.415   9.472  0.5201 -0.1276  0.1794
50988SOL    HW160014  10.390   8.323   9.466 -1.0929  0.3189 -0.1641
50988SOL    HW260015  10.389   8.453   9.389  0.0561  0.9124  0.7827
50989SOL     OW60016   3.215   9.916   9.786  0.0564  0.0709 -0.2331
50989SOL    HW160017   3.135   9.942   9.740 -1.1735  1.2006  2.3475
50989SOL    HW260018   3.259   9.999   9.805  0.8665 -0.4149  0.0599
50990SOL     OW60019   4.936   2.025   7.039 -0.3794 -0.5898 -0.1681
50990SOL    HW160020   4.918   1.931   7.033 -0.4594 -0.5262 -1.2316
50990SOL    HW260021   5.018   2.037   6.991 -0.3294 -0.1266  0.0285
50991SOL     OW60022   0.437   2.751   6.647  0.0630  0.5459  0.2133
50991SOL    HW160023   0.437   2.655   6.654 -0.3520  0.6039  1.1197
50991SOL    HW260024   0.446   2.768   6.554 -3.1580 -0.3988 -0.3674
50992SOL     OW60025   4.206   3.328   3.799  0.1966  0.2316  0.1734
50992SOL    HW160026   4.218   3.241   3.837  0.8953  0.6100  0.8575
50992SOL    HW260027   4.219   3.316   3.705  1.1249 -0.2590  0.3533
50993SOL     OW60028  10.140   7.899   7.291 -0.3403  0.2618 -0.2599
50993SOL    HW160029  10.198   7.946   7.350 -0.9855 -0.5531  1.0822
50993SOL    HW260030  10.195   7.878   7.215  1.0247 -0.1720  0.8021
50994SOL     OW60031   7.255   8.291   0.048  0.1591  0.0051 -0.3000
50994SOL    HW160032   7.173   8.250   0.018  1.1192 -0.4744 -2.4955
50994SOL    HW260033   7.234   8.384   0.052 -0.2044  0.0402 -2.0868
50995SOL     OW60034   1.761   2.735  12.517  0.2776 -0.4494 -0.3669
50995SOL    HW160035   1.677   2.772  12.546  1.2947  1.6163  0.0698
50995SOL    HW260036   1.754   2.731  12.422 -1.1708 -2.5651 -0.2567
50996SOL     OW60037  11.669   6.680   4.521  0.6074 -0.2589  0.2341
50996SOL    HW160038  11.661   6.643   4.609 -0.3196 -0.0211  0.2614
50996SOL    HW260039  11.746   6.737   4.526 -0.4059  1.0935  1.3958
50997SOL     OW60040  11.153   9.345  10.933 -0.5436  0.3669 -0.6856
50997SOL    HW160041  11.243   9.345  10.899 -0.1224  0.9693  0.3796
50997SOL    HW260042  11.163   9.332  11.027 -1.5182  1.2993 -0.4331
50998SOL     OW60043   0.812   4.174   3.594 -0.1156 -0.0500  0.0296
50998SOL    HW160044   0.839   4.263   3.571 -0.9125  0.5493  1.3234
50998SOL    HW260045   0.894   4.124   3.597  0.5118  0.9779  0.7270
50999SOL     OW60046   7.310   9.272   4.699  0.0765  0.1598  0.0195
50999SOL    HW160047   7.372   9.279   4.627 -1.5148  0.4033 -1.3623
50999SOL    HW260048   7.225   9.257   4.658 -0.7363 -0.6709  1.8787
51000SOL     OW60049   7.745   6.916  12.370  0.4542 -0.4819  0.6698
51000SOL    HW160050   7.811   6.890  12.434  0.7705 -0.6652  0.2742
51000SOL    HW260051   7.795   6.941  12.292  0.1114  0.5486  0.7718
51001SOL     OW60052  12.124   8.564   9.395  0.1341  0.2140  0.0334
51001SOL    HW160053  12.188   8.578   9.466 -0.9389  0.8766  0.8886
51001SOL    HW260054  12.061   8.502   9.432  0.7893 -1.2589 -1.1649
51002SOL     OW60055  11.908  12.209   6.022 -0.3660 -0.0809  0.0720
51002SOL    HW160056  11.988  12.236   6.069 -0.4220  0.5997 -0.2239
51002SOL    HW260057  11.892  12.279   5.960 -0.7177 -0.6322 -0.4618
51003SOL     OW60058  11.489   2.266   3.872 -0.4494 -0.0557  0.1425
51003SOL    HW160059  11.460   2.352   3.841 -0.2009 -0.2590 -0.6864
51003SOL    HW260060  11.427   2.205   3.833 -0.4413 -0.2837  0.4796
51004SOL     OW60061  12.294   2.346   4.979  0.2820  0.1520  0.1334
51004SOL    HW160062  12.372   2.292   4.991 -0.7114 -1.3421  0.1570
51004SOL    HW260063  12.286   2.395   5.060  2.1971  1.7505 -0.5499
51005SOL     OW60064  11.515   2.974   3.933  0.0325 -0.4623  0.1802
51005SOL    HW160065  11.524   3.029   4.011 -2.2478  0.8469 -0.3913
51005SOL    HW260066  11.476   2.893   3.966  1.1449 -0.8256  0.6725
51006SOL     OW60067   2.965  11.560  11.467 -0.3365  0.3230 -0.1430
51006SOL    HW160068   2.975  11.556  11.372 -0.2598  2.9658 -0.3110
51006SOL    HW260069   2.897  11.495  11.487  0.5426 -1.1796 -1.8017
51007SOL     OW60070  11.036   5.168  11.247 -0.1672 -0.1153 -0.4944
51007SOL    HW160071  10.985   5.229  11.301  0.1546  0.3639 -0.7191
51007SOL    HW260072  11.020   5.198  11.158 -0.3112 -0.6074 -0.6351
51008SOL     OW60073   4.888  12.112   6.043 -0.9222 -0.7094  0.3127
51008SOL    HW160074   4.915  12.164   6.118 -0.0659 -0.8671  0.1231
51008SOL    HW260075   4.842  12.037   6.081 -0.8842 -0.5641  0.6502
51009SOL     OW60076   8.712   8.845  12.084 -0.4840 -0.0762 -0.3479
51009SOL    HW160077   8.772   8.893  12.141  0.2061 -0.6030 -0.6077
51009SOL    HW260078   8.638   8.904  12.072  0.3464  0.9300 -0.6793
51010SOL     OW60079   2.304   5.125   6.259  0.6750  0.0802 -0.2098
51010SOL    HW160080   2.264   5.118   6.172 -0.5038  0.3370  0.2870
51010SOL    HW260081   2.298   5.219   6.280 -0.0227 -0.1237  0.5695
51011SOL     OW60082  10.802  12.278  10.773  0.0905  0.1472 -0.3543
51011SOL    HW160083  10.755  12.360  10.785  0.1216  0.4146 -1.8487
51011SOL    HW260084  10.734  12.211  10.769 -0.2181  0.5132 -2.3509
51012SOL     OW60085   3.615  11.017  10.847 -0.1453  0.2963 -0.2599
51012SOL    HW160086   3.592  11.076  10.775 -0.7843 -0.1639 -0.4369
51012SOL    HW260087   3.553  11.039  10.916 -0.5294 -0.3184 -0.4053
51013SOL     OW60088   2.375   0.545   7.833 -0.0189 -0.1640  0.7269
51013SOL    HW160089   2.363   0.477   7.768  2.0268  0.4166 -0.3446
51013SOL    HW260090   2.393   0.624   7.783 -0.1683  0.7015  1.9771
51014SOL     OW60091   7.664  11.401   1.005 -0.3045  0.3822  0.2030
51014SOL    HW160092   7.707  11.397   1.090  2.1306  0.9788 -0.9363
51014SOL    HW260093   7.635  11.492   0.996 -0.4048  0.3603  0.2978
51015SOL     OW60094   4.021  11.670   9.225  0.3724  0.6653 -0.5234
51015SOL    HW160095   3.956  11.739   9.209  1.0573  1.6074  0.6684
51015SOL    HW260096   3.977  11.611   9.286 -0.2543 -0.0542 -1.6258
51016SOL     OW60097   3.818   4.057   1.871 -0.3223  0.2175  0.1474
51016SOL    HW160098   3.783   4.060   1.960  0.5071 -0.4460  0.5162
51016SOL    HW260099   3.805   3.966   1.844  0.8395  0.0222  0.1951
51017SOL     OW60100   8.758   5.820   3.845 -0.3236  0.0469 -0.4957
51017SOL    HW160101   8.803   5.757   3.787 -0.3422  0.1885 -0.6638
51017SOL    HW260102   8.822   5.839   3.914 -0.7408 -1.0765  0.2301
51018SOL     OW60103   7.002  12.410   7.120 -0.8527  0.0769  0.1171
51018SOL    HW160104   6.981  12.472   7.191 -0.8036 -0.7083  0.8340
51018SOL    HW260105   7.098  12.406   7.121 -0.5514  2.9639 -2.5507
51019SOL     OW60106   0.611   9.935   5.425  0.3414  0.2635  0.7695
51019SOL    HW160107   0.620   9.860   5.366 -0.7776  0.5419  0.2246
51019SOL    HW260108   0.664   9.911   5.501  1.9619 -0.0300 -0.3962
51020SOL     OW60109   1.635   5.740   4.336  0.4848  0.0534 -0.2737
51020SOL    HW160110   1.699   5.712   4.402  0.7911  0.1765 -0.5134
51020SOL    HW260111   1.602   5.824   4.369  1.1387  0.4532 -0.6026
51021SOL     OW60112   2.593   6.807   7.905 -0.4833  0.2085 -0.1609
51021SOL    HW160113   2.578   6.749   7.830  0.6891 -0.0802 -0.1922
51021SOL    HW260114   2.509   6.811   7.949 -0.8345 -0.7534 -0.7077
51022SOL     OW60115   6.843  11.155   3.799 -0.1977 -0.2725 -0.0173
51022SOL    HW160116   6.901  11.219   3.839 -0.4617 -0.9230  1.4884
51022SOL    HW260117   6.900  11.105   3.740  0.3228  0.3744 -0.0774
51023SOL     OW60118   7.878  12.333   1.904 -0.9846  0.1014  0.4100
51023SOL    HW160119   7.923  12.323   1.988  0.4648  1.5357 -0.1430
51023SOL    HW260120   7.849  12.424   1.904 -0.9121  0.1294 -0.6754
51024SOL     OW60121   0.657   3.276   8.298 -0.2127  0.8801 -0.0108
51024SOL    HW160122   0.578   3.302   8.346 -1.0653 -1.2366 -0.1550
51024SOL    HW260123   0.627   3.207   8.238  1.6136  0.5658 -0.6250
51025SOL     OW60124   8.684   3.889   3.529 -0.3464  0.1675  0.4699
51025SOL    HW160125   8.672   3.801   3.495  0.2289 -0.3384  1.5261
51025SOL    HW260126   8.627   3.894   3.605  0.8748  0.0834  1.4366
51026SOL     OW60127   7.422   0.637   0.062  0.4435 -0.0498 -0.2899
51026SOL    HW160128   7.412   0.571   0.131 -0.7976  0.3934 -0.0313
51026SOL    HW260129   7.395   0.593  -0.018 -1.4846  0.4284  0.0465
51027SOL     OW60130  12.480  11.461   9.369  0.2799  0.3135 -0.2875
51027SOL    HW160131  12.495  11.513   9.448  1.0400  1.4309 -1.1313
51027SOL    HW260132  12.548  11.491   9.308 -1.5864  1.0622 -2.1222
51028SOL     OW60133   7.752   4.427   8.901  0.3353  0.2355  0.2935
51028SOL    HW160134   7.711   4.506   8.937 -0.8326  0.1364 -0.7516
51028SOL    HW260135   7.846   4.439   8.917  0.2423  2.0776 -0.2647
51029SOL     OW60136   5.162  12.518   6.805  0.2619  0.2958  0.3567
51029SOL    HW160137   5.109  12.444   6.773  0.1900  0.7867 -0.7092
51029SOL    HW260138   5.177  12.571   6.727  1.1007  0.9270  0.9413
51030SOL     OW60139  11.599   9.433  11.963 -0.2141 -0.2378 -0.2049
51030SOL    HW160140  11.632   9.358  12.014  1.3845  1.1748  0.9534
51030SOL    HW260141  11.520   9.460  12.009 -1.8544 -2.2173 -1.6535
51031SOL     OW60142   4.978  12.417   0.799  0.5351 -0.6513  0.5441
51031SOL    HW160143   4.984  12.500   0.846  1.5873 -0.0607 -0.5610
51031SOL    HW260144   4.908  12.369   0.843  1.1672  0.0466  2.3948
51032SOL     OW60145  10.847  11.213   9.154 -0.1427 -0.0079 -0.6499
51032SOL    HW160146  10.825  11.304   9.171  1.0079  0.1758  0.0171
51032SOL    HW260147  10.941  11.207   9.175 -0.4474 -1.5924  0.4677
51033SOL     OW60148   8.097  10.189  10.344 -0.5101 -0.5417  0.0992
51033SOL    HW160149   8.158  10.195  10.271  0.3138  2.9779  0.8678
51033SOL    HW260150   8.148  10.152  10.416 -0.5284 -1.4851 -0.3683
51034SOL     OW60151   8.999  10.799   1.733 -0.2096  0.2894  0.1002
51034SOL    HW160152   9.038  10.719   1.699  2.0509  1.1683  0.4280
51034SOL    HW260153   9.074  10.855   1.753 -1.7093  2.5759 -0.3301
51035SOL     OW60154  11.217   0.246   2.878 -0.2480  0.5434  0.0233
51035SOL    HW160155  11.265   0.262   2.796  1.2833 -1.8564  0.3349
51035SOL    HW260156  11.225   0.327   2.927  2.7386  0.6347 -0.3861
51036SOL     OW60157  11.845   9.841   0.975 -0.1408  0.2728  0.3165
51036SOL    HW160158  11.918   9.780   0.979 -0.3591 -0.0229 -0.0792
51036SOL    HW260159  11.790   9.808   0.904  0.0953  1.3373 -0.3791
51037SOL     OW60160   4.418   1.512   1.527 -0.0873 -0.1062 -0.5196
51037SOL    HW160161   4.338   1.486   1.481 -0.3356  0.3592 -0.3600
51037SOL    HW260162   4.399   1.600   1.559  0.6132  0.1440 -0.7753
51038SOL     OW60163   1.946  11.285   7.496  0.1345  0.5465 -0.4685
51038SOL    HW160164   1.980  11.222   7.560 -3.6237  0.3000  1.5470
51038SOL    HW260165   1.980  11.369   7.524  0.8192  0.0819  0.1290
51039SOL     OW60166   1.187  12.427   8.870 -0.1226  0.7790 -0.1161
51039SOL    HW160167   1.187  12.346   8.922  3.4894  0.2108 -0.7114
51039SOL    HW260168   1.157  12.400   8.783 -1.5261  0.6886  0.3838
51040SOL     OW60169   2.759   9.718   9.491 -0.0164 -0.2035  0.0356
51040SOL    HW160170   2.748   9.702   9.585 -1.4796 -0.2961 -0.1291
51040SOL    HW260171   2.793   9.807   9.486  2.1464 -0.9130  0.7052
51041SOL     OW60172  12.003   0.974   6.563  0.7386 -0.1751  0.0588
51041SOL    HW160173  12.039   0.930   6.486  0.3586  0.1274 -0.2938
51041SOL    HW260174  11.968   1.057   6.530  1.1065  0.2364  0.6514
51042SOL     OW60175   4.727  11.100  11.467  0.1476  0.2276  0.2155
51042SOL    HW160176   4.718  11.188  11.502  0.4816  0.3960 -0.1069
51042SOL    HW260177   4.673  11.045  11.524 -1.0835  0.8333 -0.3319
51043SOL     OW60178   0.670   9.911   7.691 -0.3414  0.0361  0.3506
51043SOL    HW160179   0.651   9.828   7.733 -1.8385  0.1398 -0.0808
51043SOL    HW260180   0.621   9.976   7.742  0.3123  0.5759  0.3101
51044SOL     OW60181   8.489   9.148   2.679  0.7409  0.0710 -0.2079
51044SOL    HW160182   8.456   9.100   2.756 -0.2808 -1.4056 -1.5137
51044SOL    HW260183   8.474   9.089   2.606  1.7605  1.4259 -1.5626
51045SOL     OW60184   7.984   9.799   9.577 -0.5890  0.4768 -0.1440
51045SOL    HW160185   8.025   9.715   9.596 -2.2075 -0.4802 -0.6456
51045SOL    HW260186   8.029   9.862   9.634  0.6153 -0.7184  0.2794
51046SOL     OW60187   4.565  11.662  10.302 -0.4110 -0.5608 -0.3566
51046SOL    HW160188   4.649  11.623  10.278 -0.3279 -0.6920  0.1516
51046SOL    HW260189   4.587  11.751  10.330 -0.1445 -1.2657  1.8717
51047SOL     OW60190   1.881   6.498   8.698 -0.7627  0.0495 -0.8301
51047SOL    HW160191   1.942   6.436   8.659 -0.8178  0.2720 -1.2685
51047SOL    HW260192   1.928   6.581   8.700 -0.9836  0.1800 -0.9967
51048SOL     OW60193  11.769   6.075   9.646 -0.2288  0.6802 -0.1440
51048SOL    HW160194  11.855   6.117   9.646  0.0954  0.0646  1.4981
51048SOL    HW260195  11.718   6.126   9.582 -0.0747  4.0224  2.1331
51049SOL     OW60196  12.196   2.390   6.317 -0.3471 -0.4892 -0.2124
51049SOL    HW160197  12.181   2.415   6.408 -0.8858 -0.8656 -0.1930
51049SOL    HW260198  12.271   2.444   6.289 -0.8391  0.3849  0.1310
51050SOL     OW60199   9.973   2.640  12.371 -0.5519 -0.1787  0.0322
51050SOL    HW160200  10.040   2.669  12.432  1.1529 -1.6309 -1.0283
51050SOL    HW260201  10.006   2.665  12.285 -2.5323  1.1481 -0.4069
51051SOL     OW60202   0.246   9.763   0.095  0.3929 -0.1876 -0.1620
51051SOL    HW160203   0.155   9.791   0.093  0.4097 -0.1258 -0.0551
51051SOL    HW260204   0.242   9.668   0.096  0.3524 -0.2623 -2.3298
51052SOL     OW60205   2.727   9.391   7.549  0.5936  0.1952  0.2779
51052SOL    HW160206   2.810   9.355   7.580  0.6602  0.0447 -0.0626
51052SOL    HW260207   2.703   9.457   7.613  0.7267 -0.1091  0.6426
51053SOL     OW60208   1.258   8.490   8.296  0.5486 -0.1549  0.4959
51053SOL    HW160209   1.246   8.410   8.244  0.6941 -0.2996  0.6857
51053SOL    HW260210   1.182   8.544   8.274  0.7664 -0.0793 -0.1086
51054SOL     OW60211   7.205   3.473   1.101  0.0854 -0.3061 -0.4246
51054SOL    HW160212   7.228   3.434   1.185  1.2349 -0.4983 -0.8063
51054SOL    HW260213   7.271   3.541   1.088  0.1747 -0.5591 -1.3497
51055SOL     OW60214   0.095   4.877   0.130  0.7562 -0.2551 -0.2761
51055SOL    HW160215   0.170   4.923   0.092  0.5316 -1.3187 -2.1633
51055SOL    HW260216   0.048   4.944   0.179  2.1331  0.7741 -0.2962
51056SOL     OW60217   0.130   1.959   2.778 -0.3178  0.1169 -0.1273
51056SOL    HW160218   0.101   1.961   2.869 -0.2497  2.0886 -0.1107
51056SOL    HW260219   0.094   1.877   2.743 -0.3231 -0.6842  1.6557
51057SOL     OW60220   2.669   2.675   0.406 -0.6422  0.2266 -0.3277
51057SOL    HW160221   2.740   2.611   0.404 -0.3135  0.4999  1.5276
51057SOL    HW260222   2.640   2.680   0.315  2.1059  0.5707 -1.2921
51058SOL     OW60223   8.045   4.978   4.982 -0.4926 -0.1291  0.4237
51058SOL    HW160224   7.989   5.025   5.044 -0.2662  1.0098 -0.2085
51058SOL    HW260225   8.061   5.041   4.912  1.8906 -0.2798  0.7551
51059SOL     OW60226   3.264   0.394   9.634  0.3744  0.2783  0.1606
51059SOL    HW160227   3.335   0.336   9.605 -0.0327 -0.3597  0.4248
51059SOL    HW260228   3.276   0.399   9.729  0.6818  0.9979  0.0867
51060SOL     OW60229   8.828   1.569  11.399 -0.1440  0.0278 -0.5479
51060SOL    HW160230   8.782   1.538  11.320  0.7680 -0.6907 -0.8087
51060SOL    HW260231   8.814   1.664  11.398  1.6425  0.3677 -2.7853
51061SOL     OW60232   3.674   9.532  10.944  0.0454 -0.0783  0.2455
51061SOL    HW160233   3.592   9.573  10.973 -0.3548 -0.3003 -0.5394
51061SOL    HW260234   3.650   9.442  10.923  0.5587 -0.2338  0.3061
51062SOL     OW60235   7.763   8.645   8.465  0.0842 -0.0699  0.4854
51062SOL    HW160236   7.683   8.597   8.484  0.5479 -0.6049  1.1548
51062SOL    HW260237   7.828   8.578   8.445  0.4093  0.3450  0.1051
51063SOL     OW60238   0.237  10.095   0.038 -0.0852  0.0806 -0.0823
51063SOL    HW160239   0.202  10.134   0.118  2.1161  2.1655 -0.0302
51063SOL    HW260240   0.274  10.012   0.066  1.1867  1.0428  1.2679
51064SOL     OW60241   2.822   3.474   2.113 -0.0609 -0.7107 -0.4993
51064SOL    HW160242   2.899   3.443   2.066 -0.5951 -1.5186 -0.8670
51064SOL    HW260243   2.854   3.545   2.169  0.2951  1.6072 -3.4035
51065SOL     OW60244   2.407   9.874   1.723  0.4335  0.1779 -0.0368
51065SOL    HW160245   2.344   9.916   1.665  0.4432  0.2019 -0.0300
51065SOL    HW260246   2.380   9.901   1.811  1.2428  1.2759 -0.1142
51066SOL     OW60247   0.709   5.707  10.168 -0.1487  0.0019 -0.1009
51066SOL    HW160248   0.708   5.669  10.256 -0.7634 -0.6407 -0.3708
51066SOL    HW260249   0.617   5.713  10.144 -0.0899  1.8336 -0.0267
51067SOL     OW60250   3.409   2.478   9.905  0.1448  0.0867 -0.4883
51067SOL    HW160251   3.409   2.556   9.959 -0.5412 -0.9713  1.1094
51067SOL    HW260252   3.318   2.465   9.880  0.4024  0.3540 -1.5980
51068SOL     OW60253   6.200   7.373   3.246  0.0425 -0.2174 -0.2516
51068SOL    HW160254   6.171   7.463   3.228  0.1234 -0.4724 -1.7709
51068SOL    HW260255   6.168   7.322   3.172  0.4153 -1.3664  0.3559
51069SOL     OW60256   7.254   4.715  10.815  0.0471  0.3485  0.2485
51069SOL    HW160257   7.285   4.794  10.772 -0.2827  1.3253  1.7142
51069SOL    HW260258   7.333   4.668  10.840  0.3206  1.1886  1.0420
51070SOL     OW60259   0.151   7.972   7.494  0.4244  0.0249 -0.0859
51070SOL    HW160260   0.191   7.933   7.571 -0.6096  0.3483  0.6350
51070SOL    HW260261   0.064   7.933   7.489  0.5981 -0.2551 -1.3046
51071SOL     OW60262   7.634   2.612   9.934 -0.2225 -0.0814 -0.3450
51071SOL    HW160263   7.677   2.552   9.995 -0.0379  0.7366  0.3398
51071SOL    HW260264   7.540   2.601   9.951 -0.3202 -1.5231 -1.5189
51072SOL     OW60265   7.224   7.298   2.085  0.3195  0.3814  0.6691
51072SOL    HW160266   7.156   7.251   2.132 -0.3985  1.2381  0.5101
51072SOL    HW260267   7.306   7.273   2.129 -0.3161  1.1657  2.3912
51073SOL     OW60268   6.585  10.279   1.158 -0.0639  0.3199 -0.2028
51073SOL    HW160269   6.638  10.329   1.220  0.4674  0.5509 -0.8238
51073SOL    HW260270   6.524  10.230   1.212  1.9010 -1.3170  0.7049
51074SOL     OW60271   6.502   2.014   6.237  0.1646 -0.2199 -0.8138
51074SOL    HW160272   6.536   2.099   6.210  1.0929 -0.2405  0.1851
51074SOL    HW260273   6.569   1.951   6.209 -0.9040 -0.7396 -2.2967
51075SOL     OW60274  10.219   8.502   5.489  0.2314 -0.1070  0.1312
51075SOL    HW160275  10.219   8.573   5.553  1.8505 -0.0705  0.1396
51075SOL    HW260276  10.126   8.483   5.474 -0.2003  0.6812  1.5860
51076SOL     OW60277  10.698   6.210   0.231 -0.3802 -0.8391  0.0918
51076SOL    HW160278  10.747   6.226   0.311 -0.1529 -1.2134  0.0327
51076SOL    HW260279  10.658   6.294   0.209 -2.3467 -1.2414  1.8465
51077SOL     OW60280   1.343   0.502   7.002 -0.6032 -0.1099 -0.5771
51077SOL    HW160281   1.356   0.422   6.951 -1.9254 -0.0800 -0.9850
51077SOL    HW260282   1.261   0.489   7.048  0.5814 -0.1457  1.6341
51078SOL     OW60283   7.243   7.923   7.510 -0.3590 -0.5586  0.1999
51078SOL    HW160284   7.255   7.854   7.574 -2.8731 -0.5437  0.7929
51078SOL    HW260285   7.328   7.968   7.507  0.7539 -2.4622  1.1742
51079SOL     OW60286   0.797  12.169  11.149  0.1658  0.3320  0.4832
51079SOL    HW160287   0.804  12.216  11.066  1.3334  1.5955  1.2591
51079SOL    HW260288   0.881  12.184  11.192  0.4048 -2.0468  1.0194
51080SOL     OW60289   0.465   6.778   8.406  0.3789 -0.3461 -0.3718
51080SOL    HW160290   0.543   6.768   8.351  1.4717  0.7013  0.9177
51080SOL    HW260291   0.433   6.866   8.388 -0.9292 -0.9878 -1.3662
51081SOL     OW60292   2.197   4.147  12.071  0.5508 -0.0928  0.4829
51081SOL    HW160293   2.101   4.141  12.076  0.4509 -1.0223 -1.5628
51081SOL    HW260294   2.227   4.057  12.087  0.9967 -0.0777 -0.2498
51082SOL     OW60295  11.816   4.114   8.984 -0.5534 -0.2295 -0.0361
51082SOL    HW160296  11.874   4.073   9.049 -1.7594  1.6741  2.4119
51082SOL    HW260297  11.729   4.081   9.005 -0.9692  0.4267 -0.6937
51083SOL     OW60298   5.462   6.650   3.895  0.2077 -0.0358 -0.2189
51083SOL    HW160299   5.475   6.611   3.808  0.2987  0.6555 -0.5237
51083SOL    HW260300   5.403   6.724   3.879  1.5819  1.1479  0.0239
51084SOL     OW60301   5.106   5.900   7.107  0.3620 -0.4530  0.2443
51084SOL    HW160302   5.137   5.862   7.025  0.5608  0.2786 -0.0337
51084SOL    HW260303   5.167   5.868   7.173  2.0431  1.3134 -0.3558
51085SOL     OW60304  12.264   4.149   5.828  0.1590 -0.2835  0.1136
51085SOL    HW160305  12.169   4.137   5.825  0.2443 -0.8597 -0.9026
51085SOL    HW260306  12.291   4.141   5.736  1.0922  0.7204  0.2853
51086SOL     OW60307   6.990   4.790   6.156 -0.5298 -0.1652 -0.3067
51086SOL    HW160308   6.946   4.773   6.239 -1.4654 -0.5047 -0.8576
51086SOL    HW260309   7.040   4.870   6.170 -0.3445 -0.4467  0.7037
51087SOL     OW60310  10.883   3.486   7.252 -0.6108  0.0277  0.2991
51087SOL    HW160311  10.963   3.485   7.200 -0.5000  0.7246  0.4509
51087SOL    HW260312  10.909   3.524   7.335 -0.8666 -0.7589  0.7549
51088SOL     OW60313   0.721   7.075  10.865  0.1393  0.1932  0.2705
51088SOL    HW160314   0.726   7.055  10.959 -0.7358  1.2738  0.5612
51088SOL    HW260315   0.635   7.115  10.853 -0.5649 -1.6839 -1.3591
51089SOL     OW60316   8.674  11.028   3.132  0.3539  0.2978  0.9894
51089SOL    HW160317   8.581  11.021   3.111  0.4960  0.1277  0.3961
51089SOL    HW260318   8.700  10.939   3.157  0.5863  0.1190  0.1494
51090SOL     OW60319   8.241   6.077   6.361 -0.0480 -0.1574  0.1319
51090SOL    HW160320   8.208   6.122   6.438 -0.1346 -0.3033  0.1815
51090SOL    HW260321   8.219   6.135   6.288  1.5928  0.8389  0.3641
51091SOL     OW60322   4.345   9.273   1.134 -0.0170  0.1808  0.3585
51091SOL    HW160323   4.298   9.191   1.119 -0.0757  0.4311 -0.8817
51091SOL    HW260324   4.349   9.315   1.048  3.2707 -0.2640  0.1524
51092SOL     OW60325   6.605   8.093  10.856  0.0430  0.7273 -0.3990
51092SOL    HW160326   6.619   8.075  10.949 -1.2500  0.0769 -0.3075
51092SOL    HW260327   6.539   8.162  10.855  0.8306  1.4863 -0.8334
51093SOL     OW60328   9.973  12.115   3.193  0.0026 -0.3208  0.1866
51093SOL    HW160329  10.058  12.129   3.234  0.4728 -2.2358 -0.0698
51093SOL    HW260330   9.917  12.083   3.264 -0.9307  2.0981  0.6569
51094SOL     OW60331   6.034  10.169   9.398 -0.1933  0.2803  0.2400
51094SOL    HW160332   6.126  10.160   9.424 -0.4907  1.4382  1.7941
51094SOL    HW260333   5.984  10.132   9.471 -0.9963  0.0353 -0.4142
51095SOL     OW60334  10.062   1.871   2.416 -0.2359  0.0877 -0.4562
51095SOL    HW160335  10.133   1.809   2.396 -0.0449  0.1349  0.0500
51095SOL    HW260336  10.072   1.889   2.509  0.3616  1.6801 -0.7897
51096SOL     OW60337   3.715  12.507   6.869  0.6939 -0.6077  0.6203
51096SOL    HW160338   3.776  12.579   6.852  0.1542 -0.2005  0.4004
51096SOL    HW260339   3.721  12.493   6.964  2.3782 -1.6974  0.3982
51097SOL     OW60340   9.838  12.058  10.211  0.3115  0.5497 -0.5587
51097SOL    HW160341   9.871  12.008  10.136 -0.7147  0.1770 -0.7777
51097SOL    HW260342   9.797  12.135  10.173 -1.4065 -0.2907 -0.5276
51098SOL     OW60343   5.569  12.453   4.165 -0.0492  0.2394  0.5504
51098SOL    HW160344   5.652  12.455   4.212 -0.3118 -2.3453  1.2150
51098SOL    HW260345   5.523  12.532   4.194  1.5761  0.9874  1.2091
51099SOL     OW60346   8.577   7.924   8.839 -0.1032 -0.1513 -0.4729
51099SOL    HW160347   8.666   7.915   8.874  0.1607 -0.7638 -1.2667
51099SOL    HW260348   8.535   7.987   8.896  0.7978  0.0196  0.0176
51100SOL     OW60349   8.000   5.480   6.890 -0.1049 -0.0829  0.5651
51100SOL    HW160350   7.974   5.389   6.905 -0.8405 -0.1184 -0.7799
51100SOL    HW260351   8.048   5.478   6.807 -1.3039  0.9305 -0.1932
51101SOL     OW60352   7.308   6.248   3.310  0.2020 -0.2014  0.4060
51101SOL    HW160353   7.333   6.205   3.229 -0.2827 -2.9519  1.6026
51101SOL    HW260354   7.386   6.242   3.365 -0.1154 -0.2367  0.8544
51102SOL     OW60355   7.631   7.982   7.295 -0.1656 -0.2434  0.7091
51102SOL    HW160356   7.648   7.887   7.292 -1.4221 -0.4627 -1.5773
51102SOL    HW260357   7.714   8.020   7.324 -0.2710 -2.1247  3.9639
51103SOL     OW60358  10.794   4.456  10.953  0.0067 -0.0966 -0.3048
51103SOL    HW160359  10.764   4.540  10.919  1.9693  0.8480  0.1675
51103SOL    HW260360  10.787   4.396  10.879  2.1471  1.4046 -1.8557
51104SOL     OW60361   9.330   6.289   9.672  0.2172  0.6294 -0.1415
51104SOL    HW160362   9.282   6.364   9.708 -0.1314  0.1373  0.4383
51104SOL    HW260363   9.263   6.236   9.628  0.4842  0.7241 -0.6704
51105SOL     OW60364   9.566   1.266   3.946  0.6868 -0.1024  0.3790
51105SOL    HW160365   9.529   1.298   3.864  0.6775 -0.0405  0.4069
51105SOL    HW260366   9.620   1.339   3.978  1.8833 -0.6623 -0.3101
51106SOL     OW60367   8.248   2.931   8.220 -0.0410  0.1267  0.4763
51106SOL    HW160368   8.324   2.923   8.276  0.0539  1.9639  0.6828
51106SOL    HW260369   8.191   2.994   8.265 -1.4285 -0.7655  0.0513
51107SOL     OW60370   7.624   8.729   7.085 -0.9797 -0.5375  0.5948
51107SOL    HW160371   7.556   8.661   7.085 -1.3894 -0.1491 -0.1452
51107SOL    HW260372   7.594   8.792   7.019  0.9633 -1.2489 -1.1041
51108SOL     OW60373   9.097   1.883   9.643  0.1810  0.4695  0.1772
51108SOL    HW160374   9.022   1.853   9.695 -0.3400  0.6445 -0.4476
51108SOL    HW260375   9.118   1.808   9.587 -0.3310  0.8229 -0.5146
51109SOL     OW60376   0.060   8.266  12.088 -0.1079  0.4563 -0.2312
51109SOL    HW160377   0.075   8.338  12.027 -2.0753  1.3180  0.2208
51109SOL    HW260378   0.090   8.300  12.172 -0.6092  0.5921 -0.1028
51110SOL     OW60379   4.287   9.996   1.379  0.4750 -0.9538 -0.3487
51110SOL    HW160380   4.218  10.037   1.430  0.8568 -0.3842 -0.2867
51110SOL    HW260381   4.241   9.953   1.306  0.0360 -0.8262 -0.1486
51111SOL     OW60382   6.309  11.294   8.357  0.2239 -0.5813 -0.1052
51111SOL    HW160383   6.279  11.317   8.445 -1.8773 -0.0733 -0.9094
51111SOL    HW260384   6.343  11.376   8.321 -2.0522  0.0502 -0.9410
51112SOL     OW60385   9.574   1.278   2.927  0.3155 -0.3130 -0.4840
51112SOL    HW160386   9.629   1.282   3.006 -1.8371 -2.5017  1.2841
51112SOL    HW260387   9.620   1.217   2.869 -0.0537 -1.9641  0.8775
51113SOL     OW60388   0.922   7.395  11.891 -0.2479  0.1643  0.1077
51113SOL    HW160389   0.982   7.395  11.816 -0.2610  1.5584  0.0789
51113SOL    HW260390   0.873   7.313  11.883  1.6362 -1.0306  0.1281
51114SOL     OW60391   9.352   7.271   2.405  0.5841  0.6702  0.2209
51114SOL    HW160392   9.393   7.250   2.320 -0.4000  0.6455 -0.2568
51114SOL    HW260393   9.410   7.231   2.470  0.3221 -1.0255 -0.5261
51115SOL     OW60394   0.553   4.212  11.010 -0.0403  0.2981 -0.1286
51115SOL    HW160395   0.622   4.234  11.072  2.1668  1.8458 -2.8806
51115SOL    HW260396   0.561   4.117  10.998  0.9948  0.3124  0.3402
51116SOL     OW60397  10.788  12.069   7.610 -0.1666  0.0913  0.4705
51116SOL    HW160398  10.706  12.024   7.588  0.8263 -0.8362 -1.5873
51116SOL    HW260399  10.767  12.121   7.687 -2.5446 -0.5340  0.3109
51117SOL     OW60400   4.855   0.472   9.246  0.0902  0.1948 -0.1916
51117SOL    HW160401   4.907   0.393   9.240 -0.9577 -0.4593 -1.0663
51117SOL    HW260402   4.906   0.538   9.200  1.4581  0.3490  1.4268
51118SOL     OW60403   6.349  12.015   6.585  0.5962 -0.0277  0.5957
51118SOL    HW160404   6.289  12.023   6.510  0.4784  0.4081  0.7316
51118SOL    HW260405   6.405  11.941   6.563 -0.3128 -0.7660  0.6816
51119SOL     OW60406   1.342   9.950   9.876 -0.2866 -0.1685 -0.1332
51119SOL    HW160407   1.414   9.914   9.927 -0.6244 -3.0034 -1.4288
51119SOL    HW260408   1.383   9.987   9.798 -0.1740 -2.1078 -1.0445
51120SOL     OW60409  11.189   2.997  10.270 -0.2957 -0.5346  0.3842
51120SOL    HW160410  11.242   2.922  10.297 -0.9977 -1.0061  0.4732
51120SOL    HW260411  11.227   3.071  10.317 -0.8379 -1.1628  1.8677
51121SOL     OW60412   0.860  12.520   0.359  0.2847 -0.1238  0.2118
51121SOL    HW160413   0.822  12.602   0.328  1.0074  1.1471  2.5044
51121SOL    HW260414   0.943  12.513   0.312  1.0217  1.3741  1.2353
51122SOL     OW60415  12.278   7.416   1.242 -0.4323 -0.5869  0.0785
51122SOL    HW160416  12.319   7.347   1.190 -0.3720  0.2025 -0.9609
51122SOL    HW260417  12.348   7.449   1.298 -0.6413 -1.8380  1.1079
51123SOL     OW60418  11.641   0.460   2.625  0.2535  0.2108 -0.1577
51123SOL    HW160419  11.672   0.460   2.535  3.1413  0.5030  0.7325
51123SOL    HW260420  11.711   0.416   2.674 -0.1501  2.0511  2.2320
51124SOL     OW60421   3.313   9.631   5.555  0.4025 -0.2814  0.4856
51124SOL    HW160422   3.232   9.589   5.529 -0.2460  1.2520 -0.1156
51124SOL    HW260423   3.308   9.637   5.650 -0.3666  0.1303  0.4235
51125SOL     OW60424   6.371   3.880   5.688  0.2716 -0.6832 -0.0581
51125SOL    HW160425   6.349   3.840   5.603  1.3012 -1.8840  0.2041
51125SOL    HW260426   6.380   3.973   5.669  0.2452 -0.9009 -1.2236
51126SOL     OW60427   0.724   3.955   1.956 -0.4561 -0.5695 -0.1982
51126SOL    HW160428   0.788   3.975   1.888  0.6294 -2.3233  0.2477
51126SOL    HW260429   0.678   3.877   1.924 -4.1352  1.8910 -1.6077
51127SOL     OW60430   4.003   3.994   5.697 -0.5206  0.5062 -0.1943
51127SOL    HW160431   3.984   3.901   5.684  0.9850  0.0022  0.8947
51127SOL    HW260432   4.092   4.004   5.662 -0.6881  1.5577 -0.3354
51128SOL     OW60433  11.742   1.645   2.793 -0.5520 -0.0559  0.3033
51128SOL    HW160434  11.812   1.666   2.730 -0.3155  1.3597  1.0028
51128SOL    HW260435  11.762   1.556   2.822  1.1543  0.4322  0.7158
51129SOL     OW60436   4.983   5.307   4.099  0.4295 -0.9622  0.9167
51129SOL    HW160437   4.992   5.252   4.176 -2.1202 -1.5415  0.8930
51129SOL    HW260438   4.947   5.249   4.032 -0.1744  0.1864  0.2052
51130SOL     OW60439   6.466   5.801   1.360  0.3107 -0.5763 -0.0331
51130SOL    HW160440   6.498   5.854   1.433 -1.9067  0.1560  0.4873
51130SOL    HW260441   6.383   5.766   1.390  0.0611 -1.5140 -1.6725
51131SOL     OW60442   4.592   3.581   4.046 -0.5686 -0.0506  0.1052
51131SOL    HW160443   4.524   3.607   3.984  0.5542  1.3612 -0.6049
51131SOL    HW260444   4.609   3.489   4.025 -3.2620 -0.9120  1.3308
51132SOL     OW60445   0.976   2.381  10.986 -0.4344  0.0023 -0.4553
51132SOL    HW160446   1.001   2.294  11.017  2.0722  1.1052  0.9669
51132SOL    HW260447   0.915   2.413  11.053  1.2964  0.5682  0.9341
51133SOL     OW60448   8.538   2.057   2.695  0.4015 -0.3246 -0.7310
51133SOL    HW160449   8.501   2.059   2.606  1.7338 -0.4519 -1.3038
51133SOL    HW260450   8.611   2.118   2.692  0.0027  0.2314  0.5050
51134SOL     OW60451   2.416   5.148   8.273  0.2966 -0.9217 -0.1354
51134SOL    HW160452   2.371   5.232   8.261  0.2295 -0.5543  2.2207
51134SOL    HW260453   2.499   5.170   8.314 -1.2925 -2.0658  4.3153
51135SOL     OW60454   1.402   4.993  10.899  0.4855 -0.0265  0.1463
51135SOL    HW160455   1.320   4.997  10.948  0.7469  2.8832  0.4846
51135SOL    HW260456   1.466   5.037  10.955  2.2317 -1.8461 -0.2962
51136SOL     OW60457   3.033  12.263   4.543  0.0063 -0.1147 -0.2148
51136SOL    HW160458   2.957  12.321   4.547  0.0076 -0.1077 -0.3022
51136SOL    HW260459   3.074  12.271   4.629 -0.4179 -0.5587  0.0340
51137SOL     OW60460   9.493   2.470  12.519 -0.2059 -0.1207 -0.0917
51137SOL    HW160461   9.413   2.434  12.481  0.1745  0.4886 -1.5198
51137SOL    HW260462   9.468   2.495  12.608 -1.2976 -0.9638 -0.1373
51138SOL     OW60463   6.914  10.606   9.634 -0.2594  0.0458 -0.2498
51138SOL    HW160464   6.951  10.638   9.717  2.5651 -0.3243 -1.2700
51138SOL    HW260465   6.945  10.516   9.627 -2.0092 -0.5560 -0.8999
51139SOL     OW60466   3.870  11.937   3.684 -0.2488  0.7427 -0.3329
51139SOL    HW160467   3.793  11.990   3.705 -1.4347 -0.9321 -0.2714
51139SOL    HW260468   3.907  11.980   3.606 -0.0703  2.7087  0.7625
51140SOL     OW60469   6.444   4.598   3.657  0.3781  1.1690  0.0605
51140SOL    HW160470   6.495   4.657   3.713 -0.0542  0.7464  0.9182
51140SOL    HW260471   6.433   4.646   3.575  0.2785  2.1623  0.6446
51141SOL     OW60472  12.573   4.998   8.096  0.1352  0.1899 -0.1157
51141SOL    HW160473  12.580   5.037   8.009 -0.8499 -0.2391 -0.4012
51141SOL    HW260474  12.489   4.953   8.096  0.7463 -1.0259  0.5743
51142SOL     OW60475   6.831   7.878  11.467  0.4357  0.1541 -0.1817
51142SOL    HW160476   6.888   7.822  11.521 -0.2223  0.0175  0.3846
51142SOL    HW260477   6.762   7.819  11.436 -1.1453  0.9200  1.6931
51143SOL     OW60478   9.174   8.853  12.528 -0.3143 -0.2239  0.2831
51143SOL    HW160479   9.079   8.846  12.541 -0.3411  0.0383  0.2331
51143SOL    HW260480   9.203   8.762  12.515 -0.4168 -0.4019  1.2420
51144SOL     OW60481   5.871   7.091   6.399 -0.2680 -0.1184 -0.2425
51144SOL    HW160482   5.962   7.106   6.425  0.2640  0.0442 -2.0502
51144SOL    HW260483   5.850   7.166   6.343 -1.7110  0.1290  0.5819
51145SOL     OW60484   3.045  12.095   1.101 -0.1131  1.0128  0.2809
51145SOL    HW160485   2.960  12.090   1.146 -0.2042 -3.3364  0.0777
51145SOL    HW260486   3.105  12.127   1.168 -0.9320 -1.6918  2.5033
51146SOL     OW60487   1.321  12.481  11.718  0.2843 -0.3159 -0.3127
51146SOL    HW160488   1.293  12.550  11.777 -0.0907  0.2124 -1.0838
51146SOL    HW260489   1.407  12.455  11.749 -0.7662 -1.5494  1.7576
51147SOL     OW60490   7.581   0.135   2.272  0.0630 -0.6979 -0.2805
51147SOL    HW160491   7.598   0.192   2.197 -2.1695  0.5522  0.0914
51147SOL    HW260492   7.603   0.189   2.348 -1.3213 -0.5638  0.0509
51148SOL     OW60493  10.065  11.213   5.152 -0.1004  0.2235 -0.1497
51148SOL    HW160494  10.014  11.253   5.083  0.4528 -0.1302 -0.7804
51148SOL    HW260495  10.147  11.263   5.155  0.0514 -0.0219 -0.0450
51149SOL     OW60496   8.753   7.272   3.158 -0.2712 -0.1228  0.1117
51149SOL    HW160497   8.684   7.285   3.224 -0.2802  2.1384 -0.2720
51149SOL    HW260498   8.779   7.180   3.169 -2.6072 -0.7509  0.9603
51150SOL     OW60499   3.010   2.062   8.781 -0.2042  0.4100 -0.4964
51150SOL    HW160500   2.927   2.077   8.828  0.8124 -0.3183  1.6482
51150SOL    HW260501   3.002   1.973   8.746 -0.2004  0.2132 -0.0030
51151SOL     OW60502  10.702   7.293  10.886 -0.1609  0.6246 -0.0769
51151SOL    HW160503  10.782   7.345  10.894  0.2666 -0.0263 -0.0299
51151SOL    HW260504  10.636   7.355  10.856  0.6014  0.9616 -1.0964
51152SOL     OW60505   1.032   3.665   4.776 -0.2300  0.1301 -0.2919
51152SOL    HW160506   1.060   3.676   4.685  0.9729  0.2183  0.0653
51152SOL    HW260507   0.937   3.675   4.774 -0.0857  1.6754 -1.3160
51153SOL     OW60508   2.226   5.924   3.209  0.6790 -0.4147  0.0100
51153SOL    HW160509   2.311   5.883   3.189  1.3356  0.3809  1.0682
51153SOL    HW260510   2.162   5.856   3.189  1.5415 -0.9804 -0.9801
51154SOL     OW60511   8.169  12.372   9.868 -0.1030  0.0665 -0.1199
51154SOL    HW160512   8.134  12.413   9.947 -1.0037 -0.7111 -0.0923
51154SOL    HW260513   8.158  12.278   9.882  1.7528 -0.2027 -0.2648
51155SOL     OW60514   9.531   4.787  12.578  0.5878 -0.7382  0.0198
51155SOL    HW160515   9.499   4.834  12.655  0.7090 -0.3228 -0.1804
51155SOL    HW260516   9.470   4.810  12.508  0.0168 -1.7413  0.1682
51156SOL     OW60517   6.024   1.013  10.791 -0.6597  0.6962 -0.0219
51156SOL    HW160518   6.093   0.962  10.749 -1.2783 -0.2791  0.1035
51156SOL    HW260519   6.054   1.026  10.881 -0.6606  0.2238  0.0490
51157SOL     OW60520   7.141  12.488   8.666 -0.1094 -0.2914 -0.1357
51157SOL    HW160521   7.176  12.469   8.579  3.7763 -0.6227  1.3182
51157SOL    HW260522   7.133  12.584   8.668 -0.8694 -0.3130 -0.9899
51158SOL     OW60523  11.516  10.671  10.884 -0.1440  0.2123  0.6683
51158SOL    HW160524  11.480  10.759  10.879  1.0735  0.6499 -1.2296
51158SOL    HW260525  11.608  10.680  10.859  0.0267 -1.5833  0.4739
51159SOL     OW60526  10.025   4.982   4.686 -0.1209  0.2441  0.0255
51159SOL    HW160527  10.057   5.071   4.702  1.8487 -0.1273 -1.4693
51159SOL    HW260528   9.951   4.994   4.626  0.0385  0.8575 -0.0617
51160SOL     OW60529   2.809   1.718  10.445 -0.0119 -0.4664  0.2616
51160SOL    HW160530   2.840   1.751  10.530 -3.2570  1.2181  0.9356
51160SOL    HW260531   2.715   1.706  10.457 -0.6313  0.0819 -3.2019
51161SOL     OW60532   6.171   8.541   4.593 -0.0461 -0.2515  0.2055
51161SOL    HW160533   6.198   8.632   4.586 -0.4192  0.2375  3.6125
51161SOL    HW260534   6.248   8.496   4.629 -0.6243 -0.7910  0.7802
51162SOL     OW60535  11.955  11.579   4.581 -0.4660 -0.0278  0.4688
51162SOL    HW160536  11.883  11.634   4.612  0.2329  0.0604  2.0738
51162SOL    HW260537  12.031  11.610   4.631  0.1278 -1.8749  0.7846
51163SOL     OW60538   7.710  12.190   7.099 -0.5506  0.3790 -0.1655
51163SOL    HW160539   7.792  12.192   7.148 -0.5334 -0.0088 -0.1730
51163SOL    HW260540   7.652  12.134   7.151 -0.2646 -0.7107 -0.9914
51164SOL     OW60541   6.844  12.163   7.175 -0.0248  0.4444  0.0632
51164SOL    HW160542   6.856  12.197   7.264  0.3134 -1.2973  0.7045
51164SOL    HW260543   6.906  12.214   7.122  0.5355  0.7692  1.0000
51165SOL     OW60544  12.107   7.311  12.407 -0.4666 -0.8165  0.1510
51165SOL    HW160545  12.201   7.292  12.408 -0.1343  0.6306 -0.4694
51165SOL    HW260546  12.098   7.381  12.342 -1.6805  0.4927  1.6746
51166SOL     OW60547  11.737   9.272   5.548 -0.7595 -0.3643 -0.1176
51166SOL    HW160548  11.665   9.218   5.581 -1.7069  0.3274 -0.9512
51166SOL    HW260549  11.726   9.269   5.453 -0.4323  0.7413 -0.2035
51167SOL     OW60550   3.482   3.220   9.837 -0.3973  0.4826 -0.3931
51167SOL    HW160551   3.391   3.198   9.820  0.0519 -0.8102 -1.3423
51167SOL    HW260552   3.495   3.198   9.929 -0.1827 -2.8443 -1.0849
51168SOL     OW60553  11.320  11.500   0.250 -0.6292  0.1584 -0.0987
51168SOL    HW160554  11.315  11.419   0.200  1.9390  0.7506 -1.5112
51168SOL    HW260555  11.336  11.472   0.340 -1.6193 -0.8943 -0.2279
51169SOL     OW60556   4.109   4.761   3.255  0.0082  0.4755  0.6762
51169SOL    HW160557   4.092   4.787   3.164  0.0816  1.7270  1.0037
51169SOL    HW260558   4.197   4.724   3.254  0.8411  2.3593  0.5729
51170SOL     OW60559  10.018   3.815   1.704 -0.1016  0.3099  0.3892
51170SOL    HW160560   9.966   3.749   1.750 -0.0397 -0.3265 -0.4335
51170SOL    HW260561  10.103   3.774   1.689  0.2708  0.9374  0.7294
51171SOL     OW60562   6.872  11.814   1.066 -0.6132 -0.1890 -0.2161
51171SOL    HW160563   6.886  11.821   0.972  0.2641 -0.3042 -0.0980
51171SOL    HW260564   6.869  11.905   1.097  0.2711 -0.1703 -0.1862
51172SOL     OW60565   5.189   8.947   2.174  0.2488  0.1055  0.2174
51172SOL    HW160566   5.094   8.947   2.157  0.0914  0.5801  1.0794
51172SOL    HW260567   5.203   9.019   2.236  1.2458  0.3477 -0.2631
51173SOL     OW60568   7.561   7.829   6.341  0.2343  0.2047  0.2503
51173SOL    HW160569   7.575   7.890   6.269  2.2599 -0.2937  0.1536
51173SOL    HW260570   7.540   7.746   6.299  2.4088 -0.3359  0.1214
51174SOL     OW60571   0.149   5.439  12.275  0.5328 -0.1467 -0.8825
51174SOL    HW160572   0.124   5.505  12.340 -1.9400 -0.1914 -1.6971
51174SOL    HW260573   0.238   5.414  12.300  0.1133  0.6780  1.7689
51175SOL     OW60574   4.328   1.911   3.106 -0.4191 -0.6818 -0.8685
51175SOL    HW160575   4.393   1.907   3.176 -0.7557  1.1618 -0.3913
51175SOL    HW260576   4.378   1.932   3.028 -0.3664  0.2346 -0.5963
51176SOL     OW60577  11.679  11.357   7.358 -0.3157  0.4109  0.5672
51176SOL    HW160578  11.761  11.371   7.309 -1.5746  0.7632 -1.5558
51176SOL    HW260579  11.636  11.442   7.355 -0.6900  0.2853  1.8769
51177SOL     OW60580   8.742   8.934   5.553  0.4390 -0.1151  0.1443
51177SOL    HW160581   8.667   8.969   5.505  1.6259 -0.6024 -2.1833
51177SOL    HW260582   8.706   8.860   5.602 -0.5444 -0.6338 -1.2896
51178SOL     OW60583   8.269   8.534   9.199  0.2579 -0.6754  0.3608
51178SOL    HW160584   8.227   8.527   9.113 -0.9158  0.0350  0.8547
51178SOL    HW260585   8.247   8.452   9.243 -0.3758 -0.4278  0.5107
51179SOL     OW60586   0.249   9.931   6.225 -0.5246 -0.0687 -0.6074
51179SOL    HW160587   0.192   9.997   6.185  0.2140  1.0225  0.0673
51179SOL    HW260588   0.298   9.979   6.292 -0.0961 -1.3562  0.0429
51180SOL     OW60589  12.365   9.662   1.509 -0.1459 -0.3221 -0.7712
51180SOL    HW160590  12.312   9.585   1.528  0.1351 -0.1128  0.9590
51180SOL    HW260591  12.438   9.658   1.570  1.0139  0.2269 -2.0668
51181SOL     OW60592  11.048   3.747   9.924  0.7086  0.0750 -0.1318
51181SOL    HW160593  11.080   3.680   9.985  0.1610  1.5260  1.8357
51181SOL    HW260594  11.115   3.815   9.924  0.4910  0.3066 -0.8155
51182SOL     OW60595  10.076   6.093   2.238 -0.8063 -0.4687  0.0880
51182SOL    HW160596  10.051   6.177   2.200 -2.0492 -0.2184  1.3968
51182SOL    HW260597  10.167   6.081   2.210 -0.4815  1.4753  0.1370
51183SOL     OW60598   8.611   4.784  11.282  0.2784 -0.3472 -0.3494
51183SOL    HW160599   8.678   4.817  11.341  0.0004 -0.0885 -0.1789
51183SOL    HW260600   8.546   4.743  11.339 -0.2872  0.4268 -0.4210
51184SOL     OW60601   9.227   6.043   1.590  0.1910 -0.3250 -0.1722
51184SOL    HW160602   9.168   5.997   1.650  1.5837  0.8754  2.2680
51184SOL    HW260603   9.315   6.017   1.618  0.9293  1.4355 -0.6913
51185SOL     OW60604   3.689   9.708   4.927 -0.2889 -0.5203  0.2040
51185SOL    HW160605   3.650   9.795   4.929 -0.0973 -0.4434  1.7278
51185SOL    HW260606   3.676   9.678   4.837 -2.9613 -0.0842  0.3391
51186SOL     OW60607   9.970  10.153   3.452 -0.0586  0.5762 -0.0391
51186SOL    HW160608   9.991  10.152   3.359  0.4083 -1.8678  0.0046
51186SOL    HW260609   9.971  10.245   3.477 -0.2035  1.2835 -2.4336
51187SOL     OW60610  12.416   7.885   0.296 -0.2901 -0.2537 -0.1121
51187SOL    HW160611  12.388   7.794   0.286  1.3185 -0.7742 -0.1884
51187SOL    HW260612  12.507   7.886   0.265  0.6189  0.8050  2.3646
51188SOL     OW60613   0.454   8.919   9.208 -0.7291 -0.3716 -0.1325
51188SOL    HW160614   0.408   8.855   9.153 -1.4813 -0.1049  0.1724
51188SOL    HW260615   0.453   9.000   9.157 -0.3621 -0.4335 -0.2386
51189SOL     OW60616   4.620  11.255   2.021  0.2188 -0.1366  0.5970
51189SOL    HW160617   4.656  11.172   2.049 -0.7391 -0.3636  1.1911
51189SOL    HW260618   4.565  11.233   1.946  1.2979  0.2113 -0.3243
51190SOL     OW60619   8.392   9.565   4.235 -0.1775 -0.1469 -0.1997
51190SOL    HW160620   8.455   9.594   4.170 -1.7075  1.5419 -0.9978
51190SOL    HW260621   8.404   9.625   4.309  0.0079 -0.6342  0.1737
51191SOL     OW60622  11.280   1.639  10.380  0.1735  0.6074  0.1405
51191SOL    HW160623  11.252   1.678  10.463  0.0156  0.4548  0.1613
51191SOL    HW260624  11.266   1.545  10.393 -0.9450  0.6766 -0.4699
51192SOL     OW60625   5.552   8.360  11.479  0.4865 -0.2942 -0.0143
51192SOL    HW160626   5.590   8.395  11.560  1.8754  0.9847 -1.1609
51192SOL    HW260627   5.459   8.355  11.497  0.8486 -0.9243  1.9718
51193SOL     OW60628   6.798   7.824   2.832 -0.0001 -0.4749 -0.2454
51193SOL    HW160629   6.839   7.901   2.792 -0.8540 -0.1751 -0.5680
51193SOL    HW260630   6.737   7.793   2.765 -1.5211  0.0806  0.8535
51194SOL     OW60631  12.076  10.364   5.077  0.3743 -0.4535  0.2866
51194SOL    HW160632  11.984  10.391   5.075  0.1317 -1.3010 -0.5148
51194SOL    HW260633  12.100  10.369   5.170 -0.3901  0.0491  0.4682
51195SOL     OW60634   6.720   7.639   1.810  0.0685 -0.8076 -0.0584
51195SOL    HW160635   6.657   7.567   1.797  0.2974 -0.9456 -0.3882
51195SOL    HW260636   6.704   7.698   1.737 -0.1719 -0.4777  0.2542
51196SOL     OW60637   9.638   9.930   5.257  0.2255 -0.3277  0.2787
51196SOL    HW160638   9.572   9.862   5.245 -1.6388  1.0189  2.1497
51196SOL    HW260639   9.628   9.986   5.179  0.1329 -0.8721 -0.1106
51197SOL     OW60640   3.335   6.243   0.304 -0.1139  0.2016 -0.0868
51197SOL    HW160641   3.251   6.218   0.264  0.4138  0.3559 -1.3386
51197SOL    HW260642   3.354   6.329   0.267  0.5990  0.1623  0.1751
51198SOL     OW60643   3.540  11.164   1.008 -0.3523  0.6576 -0.0218
51198SOL    HW160644   3.558  11.232   0.944 -3.1256  1.2055 -0.3441
51198SOL    HW260645   3.592  11.189   1.085 -1.0386  3.0154 -0.2333
51199SOL     OW60646  10.953   3.323  12.440 -1.1038 -0.3277 -0.1434
51199SOL    HW160647  10.900   3.375  12.381  0.5977  1.0275 -0.5559
51199SOL    HW260648  10.959   3.237  12.398 -0.7122  0.3268 -1.4802
51200SOL     OW60649   1.678  10.566   8.060 -0.6504 -0.0550 -0.7492
51200SOL    HW160650   1.636  10.645   8.026 -3.4209 -0.7045  0.8329
51200SOL    HW260651   1.720  10.595   8.141 -1.1851 -0.0607 -0.4620
51201SOL     OW60652   5.209  10.713   4.089 -0.9055 -0.5712 -0.6577
51201SOL    HW160653   5.135  10.762   4.126  0.9661  1.3886  0.7377
51201SOL    HW260654   5.219  10.637   4.147 -1.2973 -0.3976 -0.3552
51202SOL     OW60655   4.804   8.255   9.013  0.6844 -0.5089  0.3008
51202SOL    HW160656   4.713   8.257   8.986  1.3060 -0.3714 -1.9582
51202SOL    HW260657   4.853   8.245   8.932  2.7349  0.3714  1.3605
51203SOL     OW60658   5.984  10.448   9.653  0.2226 -0.2457 -0.1576
51203SOL    HW160659   6.029  10.383   9.706 -0.7318  1.6370  3.2279
51203SOL    HW260660   6.054  10.496   9.609  1.0103 -2.2518 -1.2380
51204SOL     OW60661  10.023   8.730   4.767 -0.0729 -0.0746  0.3565
51204SOL    HW160662   9.977   8.750   4.685 -2.3053 -2.6141  0.8501
51204SOL    HW260663  10.042   8.637   4.762  1.0688  0.0173  2.1227
51205SOL     OW60664   9.003   9.189   1.719 -0.8792  0.6505 -0.1009
51205SOL    HW160665   9.073   9.146   1.767 -1.2032  0.7143  0.4455
51205SOL    HW260666   8.937   9.121   1.706 -1.1924  0.8588  0.3631
51206SOL     OW60667  10.470   1.431   5.889 -0.1772 -0.5850 -0.7551
51206SOL    HW160668  10.452   1.397   5.801 -0.2644  0.1011 -1.0148
51206SOL    HW260669  10.452   1.525   5.882  1.0095 -0.3105 -0.3329
51207SOL     OW60670   0.663  10.146   4.610 -0.0143  0.0229 -0.5580
51207SOL    HW160671   0.697  10.235   4.601 -0.9242  0.4951  0.4149
51207SOL    HW260672   0.577  10.149   4.569 -1.5705  0.5904  2.4358
51208SOL     OW60673   7.483   7.245   1.192 -0.0116  0.3236 -0.0345
51208SOL    HW160674   7.549   7.266   1.126  0.6654 -0.4045  0.3843
51208SOL    HW260675   7.510   7.295   1.269  0.0720  0.0241  0.1368
51209SOL     OW60676   0.572   4.401   8.633  0.3441 -0.1166  0.3686
51209SOL    HW160677   0.515   4.428   8.706  1.2885 -0.6121  1.3280
51209SOL    HW260678   0.523   4.333   8.588 -0.8536  1.1594 -0.3388
51210SOL     OW60679   7.716  11.041   4.802 -0.1736 -0.1767 -0.4044
51210SOL    HW160680   7.690  11.097   4.875  0.9524 -1.0417  0.7167
51210SOL    HW260681   7.684  10.954   4.827 -0.9506 -0.2506 -1.5989
51211SOL     OW60682   7.543  11.088   3.579 -0.0742 -0.0141 -0.6009
51211SOL    HW160683   7.518  11.154   3.644  0.3661 -0.5465  0.1131
51211SOL    HW260684   7.493  11.010   3.602 -0.4599  0.0042 -1.3387
51212SOL     OW60685   8.159   9.807   6.709  0.0877 -0.0585  0.4796
51212SOL    HW160686   8.147   9.867   6.635 -0.0712 -0.5313  0.1213
51212SOL    HW260687   8.224   9.850   6.764  0.4339  0.1530 -0.0888
51213SOL     OW60688   0.986   1.957   6.382 -0.3199  0.0765  0.5465
51213SOL    HW160689   0.981   2.045   6.419  0.4583 -0.0303  0.9157
51213SOL    HW260690   0.945   1.964   6.296 -1.2285  0.5562  1.0074
51214SOL     OW60691   6.074   0.316  12.348 -0.1796  0.2588  0.5382
51214SOL    HW160692   6.150   0.260  12.362 -0.5755 -0.3159  0.4172
51214SOL    HW260693   6.052   0.347  12.436  0.3485  0.6410  0.5408
51215SOL     OW60694   9.440   4.788   9.590 -0.3062  0.0736 -0.0478
51215SOL    HW160695   9.402   4.713   9.637  0.6238  0.8063  2.0288
51215SOL    HW260696   9.453   4.757   9.501 -2.2595 -1.3966  0.1183
51216SOL     OW60697   7.830   8.499   6.621  0.1031  0.2029  0.1197
51216SOL    HW160698   7.920   8.498   6.588 -0.1240 -1.1877 -0.5188
51216SOL    HW260699   7.780   8.451   6.555 -0.5476 -1.7993  1.9763
51217SOL     OW60700   8.071   7.685  10.854 -0.4596 -0.1160  0.4996
51217SOL    HW160701   8.089   7.603  10.901 -1.0769 -0.9842 -0.7335
51217SOL    HW260702   8.019   7.737  10.915 -0.6459 -0.9288  1.0417
51218SOL     OW60703  11.367   0.708  12.314  0.7571 -0.0038  0.6889
51218SOL    HW160704  11.385   0.681  12.224  0.1798 -2.2847  1.1927
51218SOL    HW260705  11.407   0.641  12.368  0.5645  0.9996  2.1344
51219SOL     OW60706   8.339   6.235   4.109  0.0514 -0.0838 -0.3233
51219SOL    HW160707   8.347   6.150   4.065  0.1861  1.0392 -2.6167
51219SOL    HW260708   8.430   6.262   4.125  0.0077 -0.3585  0.4392
51220SOL     OW60709   0.156  11.910   4.996  0.4440 -0.1619 -0.2590
51220SOL    HW160710   0.110  11.942   5.074  1.8174  0.1269  0.4610
51220SOL    HW260711   0.108  11.831   4.971 -0.5807  0.2487  0.3115
51221SOL     OW60712   3.042   3.201   6.472 -0.3083  0.2005  0.7182
51221SOL    HW160713   3.083   3.288   6.468 -0.4258  0.2628  0.8784
51221SOL    HW260714   2.951   3.217   6.447 -0.4218  0.1823  1.1179
51222SOL     OW60715   7.617  12.538  11.290  0.3753  0.2698 -0.6796
51222SOL    HW160716   7.619  12.445  11.313 -0.5365 -0.8412 -4.3458
51222SOL    HW260717   7.708  12.565  11.295  0.7715 -1.0371 -0.2308
51223SOL     OW60718  10.011  11.182  11.268  0.3177  0.1441  0.3822
51223SOL    HW160719  10.061  11.162  11.189  0.6481  0.9545  0.3783
51223SOL    HW260720  10.006  11.099  11.314  0.0415 -0.3650 -0.5314
51224SOL     OW60721   2.116   1.787  12.170 -0.0394 -0.1895 -0.2353
51224SOL    HW160722   2.026   1.770  12.196 -0.2813  0.4854 -0.5806
51224SOL    HW260723   2.132   1.878  12.197  1.4887 -1.1200  2.3771
51225SOL     OW60724   9.145   0.030   5.904  0.9499 -0.4585  0.3426
51225SOL    HW160725   9.232   0.002   5.875  1.0870  0.9474 -0.6929
51225SOL    HW260726   9.159   0.120   5.936 -0.2052 -0.0240 -0.3301
51226SOL     OW60727   9.565   6.921   8.686  0.1625 -0.6978 -0.0423
51226SOL    HW160728   9.645   6.876   8.713  0.3060 -0.0537  0.6179
51226SOL    HW260729   9.586   7.014   8.691 -0.5019 -0.5290 -0.2503
51227SOL     OW60730   0.742  11.992   0.378 -0.4461  0.4564  0.4173
51227SOL    HW160731   0.803  12.061   0.350  0.0027 -0.2186 -0.3167
51227SOL    HW260732   0.776  11.913   0.338 -1.6301 -0.0005  0.2845
51228SOL     OW60733  11.065   3.840   4.140 -0.3130 -0.1769  0.1890
51228SOL    HW160734  11.116   3.894   4.201 -0.6810  0.0694  0.2883
51228SOL    HW260735  11.033   3.768   4.194 -1.2077  0.4053  0.4668
51229SOL     OW60736   2.249   3.389   0.242 -0.3778 -0.4618  0.6787
51229SOL    HW160737   2.158   3.387   0.214 -0.1199 -0.3551 -0.1971
51229SOL    HW260738   2.246   3.370   0.336 -1.3517  0.2062  0.7966
51230SOL     OW60739   7.948   3.195   1.396  0.5063  0.2567  0.2009
51230SOL    HW160740   8.018   3.151   1.348 -1.7130 -1.4880 -1.7339
51230SOL    HW260741   7.928   3.137   1.469  0.5008  0.2712  0.2110
51231SOL     OW60742   5.868   2.727  10.431 -0.1726  0.5591  0.2968
51231SOL    HW160743   5.857   2.811  10.476  0.3389  1.6308 -1.4580
51231SOL    HW260744   5.961   2.722  10.411  0.0157 -1.0302  1.4267
51232SOL     OW60745   9.317   7.310   8.752 -0.3289 -0.0488 -0.1648
51232SOL    HW160746   9.325   7.235   8.693  0.6700 -0.1738  0.1235
51232SOL    HW260747   9.230   7.345   8.733 -0.6932 -1.0967 -0.5177
51233SOL     OW60748   8.789   6.668   2.237  0.7542  0.2062 -0.0099
51233SOL    HW160749   8.747   6.632   2.315 -1.3682 -0.2936 -1.3177
51233SOL    HW260750   8.781   6.763   2.247 -1.8740  0.1270 -0.7694
51234SOL     OW60751   7.761   2.270   7.815  0.3295  0.0169 -0.2446
51234SOL    HW160752   7.680   2.321   7.805  0.6513  0.8855  1.3144
51234SOL    HW260753   7.830   2.335   7.824  0.4400 -0.3965  4.6886
51235SOL     OW60754   6.782   6.172  10.036  0.0021  0.3881  0.1490
51235SOL    HW160755   6.823   6.152   9.951  0.6395 -1.0338  0.7651
51235SOL    HW260756   6.688   6.162  10.020  0.1822 -1.1047 -0.1020
51236SOL     OW60757   8.224  10.294   6.588 -0.8377 -0.1243 -0.3571
51236SOL    HW160758   8.133  10.267   6.573 -0.9670 -0.5345  1.0492
51236SOL    HW260759   8.238  10.365   6.525 -0.9398 -2.4212 -3.2299
51237SOL     OW60760   0.396   4.129   2.352  0.1447 -0.0015  0.0433
51237SOL    HW160761   0.410   4.210   2.304 -0.4210  0.0275 -0.0839
51237SOL    HW260762   0.302   4.111   2.342  0.3426 -0.9270 -0.3470
51238SOL     OW60763   8.576  11.824   1.295 -0.5400  0.0371  0.0930
51238SOL    HW160764   8.611  11.759   1.355 -0.8993 -1.5169 -1.3241
51238SOL    HW260765   8.562  11.777   1.213  0.4325  2.2072 -1.4066
51239SOL     OW60766   6.919  11.992   4.194 -0.0356 -0.3475  0.3386
51239SOL    HW160767   6.929  11.897   4.208  0.1692 -0.5224 -0.9157
51239SOL    HW260768   6.935  12.030   4.281 -0.1227 -1.4592  0.8631
51240SOL     OW60769   7.935   5.140   9.187  0.7597 -0.2565 -0.2470
51240SOL    HW160770   7.892   5.115   9.269  0.4304 -0.0507 -0.3519
51240SOL    HW260771   7.956   5.233   9.198  0.5667 -0.1874 -0.4562
51241SOL     OW60772   8.599   4.181   1.494 -0.4054  0.1318 -0.4931
51241SOL    HW160773   8.564   4.116   1.433 -0.9085  0.0222 -0.1024
51241SOL    HW260774   8.550   4.165   1.575  0.4466  0.0916  0.0204
51242SOL     OW60775  10.656   4.814   0.468 -0.4661  0.1446 -0.3727
51242SOL    HW160776  10.708   4.741   0.435 -1.0464  0.7685 -2.8978
51242SOL    HW260777  10.650   4.875   0.395 -2.0912  1.5679  0.8429
51243SOL     OW60778  10.233   8.794   1.758  0.0275  0.2623 -0.4972
51243SOL    HW160779  10.227   8.782   1.853  0.5080 -3.4984 -0.7921
51243SOL    HW260780  10.142   8.807   1.730 -0.0886  1.6868  0.4540
51244SOL     OW60781   9.652   5.813   2.712 -0.6286 -0.4890  0.3312
51244SOL    HW160782   9.689   5.891   2.669 -0.7582 -1.4233 -1.5826
51244SOL    HW260783   9.707   5.741   2.682 -0.6251 -1.2010  1.9377
51245SOL     OW60784   3.964   4.093   3.204 -0.2535 -0.1795 -0.0816
51245SOL    HW160785   3.868   4.094   3.198 -0.4343 -4.0351 -0.7569
51245SOL    HW260786   3.994   4.107   3.115 -0.1480  1.1498  0.1500
51246SOL     OW60787   9.471   0.005   4.666 -0.5046  0.1309 -0.0632
51246SOL    HW160788   9.566  -0.001   4.659 -0.5876  0.1084 -1.4051
51246SOL    HW260789   9.448  -0.055   4.737  0.2071 -2.3001 -1.7611
51247SOL     OW60790   3.690   2.746   6.543  0.3689  0.0011 -0.4580
51247SOL    HW160791   3.688   2.810   6.614 -0.6652  0.7652 -1.1321
51247SOL    HW260792   3.621   2.684   6.565  0.1407  0.1604 -0.7134
51248SOL     OW60793   9.436   5.626   0.351 -0.2459 -0.0267 -0.7897
51248SOL    HW160794   9.476   5.617   0.437  1.6781 -0.0290 -1.6385
51248SOL    HW260795   9.400   5.715   0.351  0.8186  0.4175 -0.3976
51249SOL     OW60796   7.533   4.788   1.813 -0.3943 -0.4305 -0.2920
51249SOL    HW160797   7.586   4.754   1.741 -0.6515  0.3141 -0.8479
51249SOL    HW260798   7.508   4.876   1.785 -1.6911 -0.6573  0.0682
51250SOL     OW60799  11.320   4.022   7.842 -0.1800 -0.0231  0.6539
51250SOL    HW160800  11.266   4.101   7.850  1.7082  2.0774 -3.8122
51250SOL    HW260801  11.265   3.959   7.795 -0.5189 -0.0291  1.0549
51251SOL     OW60802   5.117   2.688   5.585  0.6371  0.4798  0.3125
51251SOL    HW160803   5.157   2.772   5.565  0.3131 -0.0073 -2.8963
51251SOL    HW260804   5.190   2.628   5.597  0.9150  1.2553  3.6987
51252SOL     OW60805   1.787   5.081   6.944  0.0232  0.4474  0.3175
51252SOL    HW160806   1.737   5.043   6.871 -1.6616 -1.1512  2.1785
51252SOL    HW260807   1.813   5.005   6.997 -0.1398  1.6248  2.1713
51253SOL     OW60808   3.984   6.086   3.594 -0.5584  0.7245  0.1313
51253SOL    HW160809   4.023   6.003   3.566 -0.2342  1.0676 -0.4508
51253SOL    HW260810   4.043   6.120   3.661 -0.8593  0.3379  0.6007
51254SOL     OW60811  11.889   3.416  10.074 -0.3620  0.2637 -0.3840
51254SOL    HW160812  11.931   3.335  10.101 -1.5854  0.1283  1.3220
51254SOL    HW260813  11.959   3.482  10.078  0.2438 -0.3874 -0.0550
51255SOL     OW60814   1.932   4.228   1.336  0.0874  0.2818  0.0995
51255SOL    HW160815   1.846   4.188   1.351 -0.1875  0.7665 -0.1512
51255SOL    HW260816   1.951   4.211   1.244 -0.3796  1.3660 -0.2134
51256SOL     OW60817   5.588   9.837  12.481 -0.0143  0.0391 -0.5189
51256SOL    HW160818   5.531   9.901  12.438  1.6567  1.3153 -0.9510
51256SOL    HW260819   5.555   9.832  12.570 -1.9831 -0.7480 -1.2284
51257SOL     OW60820   2.561   2.446   1.997  0.1141 -0.0472  0.2731
51257SOL    HW160821   2.471   2.423   2.022  0.3312 -0.6688  0.5131
51257SOL    HW260822   2.552   2.488   1.912 -0.2500 -1.8150 -0.6082
51258SOL     OW60823   4.371  11.088   7.709  0.0803  0.0831  0.6465
51258SOL    HW160824   4.397  11.001   7.678 -1.1036 -0.1110  0.1132
51258SOL    HW260825   4.363  11.079   7.804 -0.9994 -0.6800  0.4994
51259SOL     OW60826   3.891  11.372  11.345 -0.0426  0.0359 -0.1257
51259SOL    HW160827   3.826  11.442  11.335  1.1914  1.7537  2.6461
51259SOL    HW260828   3.972  11.409  11.309  0.8422  0.4812  2.1981
51260SOL     OW60829   0.803   3.190   1.442 -0.4640  0.4728 -0.1271
51260SOL    HW160830   0.779   3.125   1.376 -0.0470 -1.6272  1.7024
51260SOL    HW260831   0.738   3.181   1.511  0.0029  1.5450  0.4859
51261SOL     OW60832   7.616   1.510   6.010  0.2367  0.2462  0.0849
51261SOL    HW160833   7.630   1.415   6.007 -0.9002  0.0967 -1.3271
51261SOL    HW260834   7.522   1.520   6.021  0.4059  1.2384  0.8079
51262SOL     OW60835   8.550   1.639   6.968 -0.2857 -0.1068  0.8363
51262SOL    HW160836   8.559   1.551   7.002 -1.1680  0.2271  1.9847
51262SOL    HW260837   8.463   1.668   6.997 -0.8926  0.3953 -1.2702
51263SOL     OW60838   3.182   9.601  10.165  0.2358  0.2038  0.4573
51263SOL    HW160839   3.094   9.599  10.203  1.2165 -0.3614  2.8690
51263SOL    HW260840   3.189   9.688  10.126 -1.4356  0.1930  0.0558
51264SOL     OW60841   5.390   2.801   7.115  0.3456 -0.0590 -0.5212
51264SOL    HW160842   5.368   2.713   7.085  0.5631  0.0174 -0.9283
51264SOL    HW260843   5.332   2.818   7.189 -0.8044  0.0607 -1.4144
51265SOL     OW60844  10.487   4.528   5.560 -0.0659  0.2801 -0.1821
51265SOL    HW160845  10.509   4.471   5.634 -0.3765  0.6829  0.2203
51265SOL    HW260846  10.538   4.492   5.487 -0.8617 -1.0058 -0.1381
51266SOL     OW60847   7.968   9.907   1.744  0.3578 -0.6081 -0.0343
51266SOL    HW160848   7.984   9.990   1.699 -0.8076  1.5220  3.1402
51266SOL    HW260849   7.895   9.867   1.696 -1.9397  2.3400  0.7249
51267SOL     OW60850   7.654   6.353   7.517  0.6468  0.0792  0.2494
51267SOL    HW160851   7.701   6.272   7.497 -0.2420 -0.0635 -1.4772
51267SOL    HW260852   7.700   6.421   7.468  0.3479  0.3115  0.2886
51268SOL     OW60853   4.974   5.535  11.770 -0.2510 -0.0696 -0.3214
51268SOL    HW160854   4.886   5.497  11.772 -0.7904  1.1241  1.7398
51268SOL    HW260855   5.033   5.460  11.777 -1.1681 -0.7801 -0.0552
51269SOL     OW60856   7.964   5.812   0.266 -0.2489  0.3205 -0.2838
51269SOL    HW160857   8.032   5.753   0.234 -1.0043  0.2850 -1.8854
51269SOL    HW260858   7.996   5.841   0.352  1.3796 -0.3361 -0.6432
51270SOL     OW60859   6.202   9.743   3.782  0.1897  0.3724 -0.6249
51270SOL    HW160860   6.155   9.720   3.862  0.5843  1.2853 -0.1166
51270SOL    HW260861   6.137   9.736   3.713 -0.4925  0.8161 -0.0410
51271SOL     OW60862   6.987  10.614   4.976 -0.3606 -0.0770  0.3264
51271SOL    HW160863   6.986  10.610   5.072 -2.4894 -0.0788  0.3358
51271SOL    HW260864   7.038  10.537   4.950 -0.7133 -0.7082  1.4407
51272SOL     OW60865   1.236   5.281   3.491 -0.2239 -0.1988  0.2161
51272SOL    HW160866   1.172   5.330   3.543 -1.7330 -1.0389 -0.7660
51272SOL    HW260867   1.311   5.340   3.485 -0.9585  0.9124  1.2539
51273SOL     OW60868   7.121   0.670   0.252  0.6672  0.1003 -0.1242
51273SOL    HW160869   7.183   0.697   0.319  0.3697  1.9182 -0.5377
51273SOL    HW260870   7.159   0.701   0.170 -0.7171  1.1801 -0.3957
51274SOL     OW60871  11.023   0.170   4.358  0.0914 -0.4841 -0.1319
51274SOL    HW160872  11.059   0.253   4.326  0.3842 -0.2578  0.7496
51274SOL    HW260873  11.096   0.129   4.404 -1.0613  0.6571  3.0077
51275SOL     OW60874   9.604   3.107   8.514  0.2136  0.5175 -0.2624
51275SOL    HW160875   9.597   3.159   8.434 -2.2376  0.6048 -0.0386
51275SOL    HW260876   9.543   3.147   8.575  0.0302 -1.1700  0.7313
51276SOL     OW60877   2.750   2.480   3.693  0.1725 -0.5310  0.4658
51276SOL    HW160878   2.808   2.550   3.723  1.7971 -1.4148 -0.4504
51276SOL    HW260879   2.675   2.524   3.655  0.4740  0.6651  1.2161
51277SOL     OW60880   8.173  11.673   7.943  0.0791 -0.4491 -0.1475
51277SOL    HW160881   8.129  11.609   7.888 -2.0978 -0.5040  1.5254
51277SOL    HW260882   8.208  11.621   8.016  0.1603  0.0011  0.1377
51278SOL     OW60883  10.484   2.450   4.779  0.0043 -0.4364 -0.1794
51278SOL    HW160884  10.479   2.355   4.779 -1.3834 -0.4579 -2.5783
51278SOL    HW260885  10.394   2.479   4.763  0.7710  1.1291 -2.2109
51279SOL     OW60886   1.537   0.730   9.755 -0.3405 -0.1171 -0.4116
51279SOL    HW160887   1.483   0.722   9.834  0.2121 -0.8992 -0.0883
51279SOL    HW260888   1.489   0.790   9.698 -0.5392  0.8070  0.6940
51280SOL     OW60889   8.797  10.204  11.038 -0.1838 -0.2556  0.0637
51280SOL    HW160890   8.840  10.243  10.962  0.5404 -0.7336  0.2189
51280SOL    HW260891   8.814  10.110  11.030 -2.4085 -0.6681 -0.6294
51281SOL     OW60892   7.553   1.313   7.249 -0.3789 -0.3232  0.0648
51281SOL    HW160893   7.627   1.363   7.214 -0.1219 -1.7803 -1.6359
51281SOL    HW260894   7.482   1.377   7.256  0.6907  0.8375  0.5714
51282SOL     OW60895   9.063   2.966  11.106 -0.6115  0.2765  0.9201
51282SOL    HW160896   8.995   2.921  11.157 -1.1612  1.0147  0.8667
51282SOL    HW260897   9.122   3.003  11.172 -0.4296 -0.1205  0.9771
51283SOL     OW60898   8.804   9.715  10.650  0.2206  0.7718 -0.2562
51283SOL    HW160899   8.890   9.675  10.664  1.0097  1.2194 -3.1906
51283SOL    HW260900   8.821   9.809  10.656 -0.1636  0.8533 -0.4394
51284SOL     OW60901   9.825   8.834  10.988 -0.0159  0.1429 -0.2412
51284SOL    HW160902   9.804   8.865  11.076 -0.3830  1.1497 -0.6670
51284SOL    HW260903   9.756   8.771  10.968 -0.0364  0.0497  0.1214
51285SOL     OW60904   2.257   2.012   3.464  0.7284  0.3874  0.1920
51285SOL    HW160905   2.205   1.970   3.396 -0.1676  1.1375  0.3928
51285SOL    HW260906   2.194   2.034   3.532  1.3327  1.2067  0.4994
51286SOL     OW60907  10.791   9.452   0.891  0.7299  0.3795 -0.5021
51286SOL    HW160908  10.699   9.474   0.876  0.6766  0.1203 -0.5578
51286SOL    HW260909  10.795   9.357   0.881  1.2842  0.5217 -1.9853
51287SOL     OW60910   5.101   9.351   5.254 -0.1241 -0.4561  0.5315
51287SOL    HW160911   5.041   9.350   5.180  2.1605 -0.1519 -1.4489
51287SOL    HW260912   5.060   9.295   5.320 -3.3624  1.1190  0.0237
51288SOL     OW60913   7.600  11.385   2.364 -0.0997 -0.1612  0.5360
51288SOL    HW160914   7.677  11.376   2.308 -1.9789  2.2147 -2.8008
51288SOL    HW260915   7.556  11.300   2.358  0.9587 -0.7067  0.3696
51289SOL     OW60916  10.597   4.664   8.111  0.1048 -0.0045 -0.2257
51289SOL    HW160917  10.591   4.596   8.044  3.6501  0.3379 -1.0879
51289SOL    HW260918  10.580   4.746   8.064  0.1690  0.0607 -0.1345
51290SOL     OW60919   1.177   1.941   4.077  0.0166  0.0671  0.4773
51290SOL    HW160920   1.173   1.859   4.028  2.2625 -0.0860  0.4417
51290SOL    HW260921   1.221   2.002   4.018  2.7812 -0.1167  2.1794
51291SOL     OW60922   8.599   2.464   7.673  0.2453  0.0612 -0.7357
51291SOL    HW160923   8.639   2.420   7.748  0.0251  1.6939  0.3957
51291SOL    HW260924   8.547   2.396   7.630 -2.2396 -0.2793  2.4367
51292SOL     OW60925   4.473   8.398   9.869  0.1587  0.6110  0.7798
51292SOL    HW160926   4.389   8.440   9.889 -1.0917 -0.2313 -2.1430
51292SOL    HW260927   4.508   8.450   9.797  1.2154 -0.1789  0.7087
51293SOL     OW60928   7.346   4.247   5.467 -0.4986  0.0438  0.3908
51293SOL    HW160929   7.360   4.243   5.372  0.8148 -0.2927  0.5761
51293SOL    HW260930   7.318   4.159   5.491  0.7653 -0.3403  0.5248
51294SOL     OW60931   2.462   0.763   8.750 -0.0375 -0.0997 -0.9616
51294SOL    HW160932   2.548   0.784   8.714  0.2592  0.1625 -0.1271
51294SOL    HW260933   2.467   0.669   8.769  0.5123  0.1485  0.2187
51295SOL     OW60934  12.179   2.313  12.229 -0.1683 -0.3115 -0.3075
51295SOL    HW160935  12.146   2.387  12.179 -2.2607 -2.0846 -1.7661
51295SOL    HW260936  12.199   2.247  12.163  1.1864 -1.2341  0.9641
51296SOL     OW60937   0.978   9.273   2.529  0.1636 -0.3035  0.0724
51296SOL    HW160938   0.987   9.267   2.624 -0.0411  1.0739  0.2083
51296SOL    HW260939   1.010   9.189   2.495  0.7658 -0.5864  1.3149
51297SOL     OW60940  11.429   4.802   8.983  0.0335 -0.1341 -0.1858
51297SOL    HW160941  11.339   4.786   8.953  0.1975  1.7297 -1.9380
51297SOL    HW260942  11.430   4.896   9.005  1.4167 -0.2586  0.3848
51298SOL     OW60943   7.806  10.436   1.577 -0.2284 -0.2285 -0.0993
51298SOL    HW160944   7.756  10.426   1.658 -2.5338  3.6127 -0.7900
51298SOL    HW260945   7.897  10.445   1.605 -0.5820 -1.8272  1.7361
51299SOL     OW60946   6.957   3.089   5.292 -0.4307  0.0307 -0.2120
51299SOL    HW160947   6.894   3.130   5.232 -2.4399 -1.7924  0.5077
51299SOL    HW260948   6.951   3.141   5.373  0.2491  0.8317 -0.6539
51300SOL     OW60949   6.139   6.002   0.419 -0.2505  0.4744  0.0046
51300SOL    HW160950   6.046   5.994   0.397 -0.5159  0.3445  1.1116
51300SOL    HW260951   6.155   5.929   0.479  0.7240  0.1341 -0.6418
51301SOL     OW60952  11.997   6.119  10.512 -0.1848  0.2910  0.1037
51301SOL    HW160953  12.061   6.161  10.570  1.5746  0.6474 -1.9602
51301SOL    HW260954  12.050   6.086  10.439 -2.2808 -0.2461 -1.2438
51302SOL     OW60955   3.473  12.151  12.576  0.0154 -0.2405  0.1974
51302SOL    HW160956   3.473  12.239  12.537 -3.1000 -0.1985  0.0916
51302SOL    HW260957   3.495  12.167  12.668 -0.7789  0.7192  0.2428
51303SOL     OW60958   1.709   5.834  10.300  1.0109  0.3503 -0.2369
51303SOL    HW160959   1.771   5.905  10.286 -0.0336  1.3172 -0.1196
51303SOL    HW260960   1.744   5.760  10.249  2.2018  0.8893 -0.2185
51304SOL     OW60961   9.006   1.116   6.382  0.1291  0.2179 -0.1028
51304SOL    HW160962   8.967   1.195   6.346  0.2587  0.3246 -0.0091
51304SOL    HW260963   8.931   1.062   6.407  0.0364  0.5227  0.2986
51305SOL     OW60964  12.334   8.912   3.574  0.1291  0.4244 -0.1571
51305SOL    HW160965  12.277   8.974   3.619  2.0733  1.5262  0.8557
51305SOL    HW260966  12.348   8.951   3.488 -2.1023 -0.7939 -1.1661
51306SOL     OW60967   7.971  12.006  11.236 -0.2762  0.0321 -0.1846
51306SOL    HW160968   7.892  11.954  11.226  0.5817 -0.7668 -4.2121
51306SOL    HW260969   8.041  11.952  11.198  1.3315  2.5444 -1.0372
51307SOL     OW60970   5.753  12.543   8.689 -0.2846  0.2820 -0.4856
51307SOL    HW160971   5.691  12.591   8.742 -1.0925  0.8694 -1.9058
51307SOL    HW260972   5.730  12.565   8.598  0.6303 -1.1632 -1.1132
51308SOL     OW60973   1.631  11.834   9.031 -0.7132  0.1697  0.1141
51308SOL    HW160974   1.579  11.808   8.956 -1.5083 -0.1819  0.7685
51308SOL    HW260975   1.588  11.792   9.106  0.2627  0.2214  0.7245
51309SOL     OW60976   7.134   2.802   3.192  0.3920 -0.2380 -0.0803
51309SOL    HW160977   7.048   2.799   3.149  0.3341 -1.0675  0.0757
51309SOL    HW260978   7.144   2.893   3.220 -1.0834 -0.4145  1.1702
51310SOL     OW60979  11.309  10.422   8.467 -0.0733  0.1794 -0.6721
51310SOL    HW160980  11.384  10.444   8.521 -1.3851  0.9713  0.9198
51310SOL    HW260981  11.336  10.443   8.377  2.6558 -2.4810 -0.6204
51311SOL     OW60982  11.751   5.580   0.972 -0.5684  1.1054  0.9139
51311SOL    HW160983  11.835   5.550   0.938 -1.4151 -1.9927  1.2022
51311SOL    HW260984  11.692   5.578   0.896 -0.6880  2.0937  0.9611
51312SOL     OW60985   8.141   1.667   0.256  0.1029  0.4422 -0.5900
51312SOL    HW160986   8.189   1.675   0.173  2.4202 -0.5359  0.5683
51312SOL    HW260987   8.189   1.723   0.317 -1.2764  0.7658  0.2548
51313SOL     OW60988  12.583   5.753  11.707 -0.0869 -0.6162  0.4826
51313SOL    HW160989  12.582   5.849  11.704 -0.6556 -0.6300  0.2662
51313SOL    HW260990  12.673   5.730  11.684 -0.0960 -0.1574 -0.0336
51314SOL     OW60991   9.735   2.871   9.508 -0.4357 -0.1341  0.4168
51314SOL    HW160992   9.676   2.853   9.435 -0.8010  0.9024  0.4410
51314SOL    HW260993   9.791   2.793   9.513 -0.1591 -0.0904 -1.2052
51315SOL     OW60994   7.523   9.879   8.117 -0.4231  0.5710 -0.6503
51315SOL    HW160995   7.529   9.880   8.213 -0.1958  0.5730 -0.6643
51315SOL    HW260996   7.598   9.827   8.089 -2.1516 -2.1047 -0.7027
51316SOL     OW60997   2.729   8.014  10.752  0.4283  0.0192  0.0597
51316SOL    HW160998   2.713   7.945  10.816 -1.6298 -1.0371 -1.4485
51316SOL    HW260999   2.646   8.062  10.749  0.0681 -0.6275 -2.4878
51317SOL     OW61000   7.912   0.538   7.498  0.9598 -0.3230 -0.3506
51317SOL    HW161001   7.989   0.546   7.555  0.7665 -2.1760  0.2324
51317SOL    HW261002   7.914   0.447   7.468 -1.2380 -0.5233 -0.0117
51318SOL     OW61003   6.297   9.093   2.621  0.3070  0.4773  0.4264
51318SOL    HW161004   6.278   9.119   2.711  0.1151 -2.2633  1.2780
51318SOL    HW261005   6.211   9.093   2.577 -0.1656 -1.4344  1.2506
51319SOL     OW61006   7.384   7.783   1.582  0.0109  0.0087 -0.3049
51319SOL    HW161007   7.466   7.744   1.550 -0.5655 -0.7279 -0.9201
51319SOL    HW261008   7.385   7.872   1.546  0.2925 -0.1715 -0.7631
51320SOL     OW61009   1.914   3.698   4.761 -0.2209 -0.5174  0.1958
51320SOL    HW161010   1.980   3.658   4.704 -1.0102  0.0371 -1.1469
51320SOL    HW261011   1.956   3.777   4.794 -0.0153 -0.4552 -0.2038
51321SOL     OW61012   7.751   8.476  10.621  0.1428  0.2327  0.4828
51321SOL    HW161013   7.770   8.430  10.539 -0.4040  0.5964  0.1469
51321SOL    HW261014   7.813   8.439  10.684  3.0487  2.3128 -0.8677
51322SOL     OW61015   1.958   7.248   6.172 -0.6707 -0.2586 -0.0508
51322SOL    HW161016   1.868   7.242   6.205 -1.0403 -0.7819 -1.1277
51322SOL    HW261017   2.011   7.209   6.242 -1.5693 -2.5735 -0.5576
51323SOL     OW61018  12.227   7.856   4.286 -0.1211 -0.4294  0.3978
51323SOL    HW161019  12.239   7.801   4.363 -1.4885 -0.8430  0.3457
51323SOL    HW261020  12.313   7.895   4.270  0.1157 -0.0704  2.3319
51324SOL     OW61021   9.718  10.641   2.843 -0.2326  0.2938  0.4611
51324SOL    HW161022   9.721  10.676   2.932 -1.9503  2.3714 -0.2281
51324SOL    HW261023   9.716  10.546   2.855 -1.5190  0.5349  2.6911
51325SOL     OW61024   5.403   0.920   1.533  0.7490  0.0342  0.2938
51325SOL    HW161025   5.443   0.894   1.450  1.5106 -1.0678  0.9736
51325SOL    HW261026   5.353   0.843   1.560 -1.3130  1.1445 -0.1831
51326SOL     OW61027   0.774   4.053   9.097  0.1167  0.0492 -0.0639
51326SOL    HW161028   0.752   4.078   9.007 -0.9924 -1.3153 -0.2080
51326SOL    HW261029   0.713   4.103   9.152  0.3924  0.4398 -0.1183
51327SOL     OW61030   4.871   8.552   8.852 -0.3241 -0.1561 -0.1381
51327SOL    HW161031   4.890   8.528   8.761 -1.7442  1.0635 -0.8028
51327SOL    HW261032   4.946   8.603   8.881 -1.2214  2.2553 -1.7716
51328SOL     OW61033   7.048   3.518  11.378 -0.0687 -0.0831 -0.7045
51328SOL    HW161034   6.990   3.453  11.417  0.7101 -0.5508 -0.2774
51328SOL    HW261035   7.004   3.602  11.392 -0.7249 -0.4475 -0.5714
51329SOL     OW61036   2.882  10.952   9.160 -0.0627 -0.1598  0.3556
51329SOL    HW161037   2.930  10.982   9.082  1.2962 -0.7296  0.9444
51329SOL    HW261038   2.877  10.857   9.150  0.0829 -0.2316  0.9319
51330SOL     OW61039   6.854   5.710  10.617  0.1841 -0.0725 -0.3741
51330SOL    HW161040   6.864   5.723  10.712 -1.4070 -0.3543 -0.1343
51330SOL    HW261041   6.802   5.784  10.588  1.0056  0.2253 -1.1208
51331SOL     OW61042   7.086   3.095   7.059 -0.0213  0.1502 -0.4132
51331SOL    HW161043   7.169   3.119   7.100 -0.2415  1.6433 -0.7917
51331SOL    HW261044   7.110   3.060   6.973  0.1680  2.4535 -1.3735
51332SOL     OW61045   9.330   1.235   8.615 -0.2956  0.2311  0.0238
51332SOL    HW161046   9.409   1.283   8.640 -0.3982  1.4700 -1.8618
51332SOL    HW261047   9.258   1.285   8.651 -0.2803 -0.6296  1.3152
51333SOL     OW61048   4.903   2.004   4.658 -0.5874  0.2218 -0.3617
51333SOL    HW161049   4.833   2.066   4.679 -0.2451  0.7489 -0.7580
51333SOL    HW261050   4.956   2.049   4.592  0.8198  0.3374  0.7965
51334SOL     OW61051   6.698   1.047  11.851  0.0393 -0.1644 -0.0747
51334SOL    HW161052   6.715   1.140  11.868  1.1142 -0.3603 -0.0592
51334SOL    HW261053   6.708   1.005  11.936 -0.6638 -0.2806 -0.0394
51335SOL     OW61054   2.384   5.417   4.453 -0.4744  0.1285 -0.8203
51335SOL    HW161055   2.450   5.348   4.450 -1.1126 -0.5008 -0.5613
51335SOL    HW261056   2.333   5.404   4.373  0.1943  1.1036 -1.4190
51336SOL     OW61057   7.782   8.243   9.315  0.2389  0.5402  0.1888
51336SOL    HW161058   7.838   8.195   9.375  0.6161  0.0857 -0.5171
51336SOL    HW261059   7.842   8.303   9.269  0.1071  0.2476 -0.3708
51337SOL     OW61060  10.324   9.283   9.060 -0.4828 -0.0560  0.4108
51337SOL    HW161061  10.251   9.240   9.106 -1.1937  1.0200  0.3289
51337SOL    HW261062  10.369   9.212   9.015 -2.9230 -0.5219 -1.5270
51338SOL     OW61063   0.420   4.561  10.597 -0.0182 -0.7440 -0.1266
51338SOL    HW161064   0.350   4.596  10.652  1.7028  0.7276  1.2666
51338SOL    HW261065   0.472   4.506  10.656  1.1986 -0.0838 -0.5505
51339SOL     OW61066   2.616   0.097   5.260 -0.0136  0.3454  0.2454
51339SOL    HW161067   2.574   0.086   5.346 -0.4366 -1.3087 -0.1311
51339SOL    HW261068   2.561   0.160   5.214 -0.7261  0.0126  0.6204
51340SOL     OW61069   7.732   7.641  12.338 -0.4598 -0.3723  0.3967
51340SOL    HW161070   7.813   7.663  12.291 -0.4859 -0.3568  0.3583
51340SOL    HW261071   7.734   7.697  12.416  0.3171 -1.4553  1.1772
51341SOL     OW61072   8.146   4.221   0.266 -0.4351 -0.0387 -0.3060
51341SOL    HW161073   8.058   4.220   0.228 -1.8927 -0.9324  2.7962
51341SOL    HW261074   8.175   4.130   0.260 -0.3793 -0.0476  0.1143
51342SOL     OW61075   0.739   6.035  11.119  0.2986  0.0932 -0.1974
51342SOL    HW161076   0.672   6.087  11.162 -0.0819  0.8375 -1.6241
51342SOL    HW261077   0.802   6.099  11.086  0.9651 -0.5013 -0.1001
51343SOL     OW61078   4.044   2.841   9.558  0.1026 -0.6065 -0.1886
51343SOL    HW161079   4.111   2.797   9.506 -0.2986 -0.2523 -1.0064
51343SOL    HW261080   4.079   2.839   9.648  0.3315 -2.1348 -0.2830
51344SOL     OW61081   2.945   4.802  12.162  0.7629  0.2253 -0.7220
51344SOL    HW161082   2.919   4.710  12.166 -0.3049  0.5421  0.3511
51344SOL    HW261083   2.877   4.849  12.212 -1.3306  2.2239 -4.9301
51345SOL     OW61084   0.834  10.596   7.157 -0.5970 -0.1409 -0.1552
51345SOL    HW161085   0.802  10.664   7.097 -1.9988 -1.0028 -0.4372
51345SOL    HW261086   0.921  10.625   7.183 -0.6808  1.1408 -1.2329
51346SOL     OW61087   5.019   5.957   0.942  0.2560  0.1354  0.6255
51346SOL    HW161088   4.953   5.890   0.964 -0.8221  1.7226  2.5608
51346SOL    HW261089   5.102   5.919   0.972 -0.3412 -0.3513  1.7416
51347SOL     OW61090  11.888   3.593   3.832 -0.3197  0.0349  0.1274
51347SOL    HW161091  11.804   3.547   3.824 -1.0443  1.4019 -0.4935
51347SOL    HW261092  11.899   3.638   3.748  0.6981  0.4250  0.4523
51348SOL     OW61093   3.246   7.336   2.286  0.2905 -0.1052  0.2507
51348SOL    HW161094   3.300   7.287   2.225 -0.5659 -0.9729  0.1601
51348SOL    HW261095   3.307   7.394   2.332  1.0068  0.2623 -1.1158
51349SOL     OW61096   8.728  11.079   1.047  0.0923 -0.8273  0.1952
51349SOL    HW161097   8.678  11.127   1.113 -0.8380 -1.8688  0.2615
51349SOL    HW261098   8.762  11.002   1.092  1.9151 -0.0967  0.1886
51350SOL     OW61099   5.806  10.440   9.079  0.4238  0.0582 -0.2103
51350SOL    HW161100   5.857  10.459   9.158  0.4844 -0.7314 -0.0469
51350SOL    HW261101   5.717  10.467   9.101  0.2139 -1.1788  0.5473
51351SOL     OW61102   1.049   2.113  12.130 -0.2213  0.0985  0.2164
51351SOL    HW161103   1.078   2.129  12.040  1.5511  0.6273  0.8223
51351SOL    HW261104   1.030   2.200  12.165  0.2858  0.0281  0.6951
51352SOL     OW61105   0.292  10.932   3.905 -0.1516 -0.3051  0.0648
51352SOL    HW161106   0.249  10.909   3.823 -0.7904  1.6286 -0.1888
51352SOL    HW261107   0.385  10.929   3.884 -0.3121  0.2841 -0.7670
51353SOL     OW61108   4.988  11.063   6.087 -0.2068  0.3427  0.2899
51353SOL    HW161109   4.906  11.015   6.096 -0.1368  0.0935 -0.3477
51353SOL    HW261110   5.056  10.996   6.096 -0.1236  0.0447 -1.9262
51354SOL     OW61111   2.993   2.588   2.983 -0.1687  0.1843 -0.0277
51354SOL    HW161112   2.901   2.614   2.973 -1.1162 -3.4135 -2.8126
51354SOL    HW261113   2.999   2.554   3.072 -1.2329  1.3554  0.5261
51355SOL     OW61114   0.098   5.233  11.820 -0.2357  0.2926 -0.2320
51355SOL    HW161115   0.052   5.289  11.882  1.1598  0.9602  0.2370
51355SOL    HW261116   0.118   5.291  11.746 -0.8449 -0.2014 -0.8008
51356SOL     OW61117   1.027   3.034   3.619  0.5310 -0.0286 -0.5777
51356SOL    HW161118   0.947   2.983   3.608  1.4342 -1.7620  0.4165
51356SOL    HW261119   1.061   3.046   3.530  0.5642 -1.6499 -0.8011
51357SOL     OW61120  10.834   3.694   7.896 -0.0426 -0.1135 -0.1302
51357SOL    HW161121  10.797   3.629   7.957  1.2537 -2.5685 -1.7682
51357SOL    HW261122  10.808   3.778   7.932  0.2252 -1.4048  3.5411
51358SOL     OW61123   1.993   8.639   6.167  0.1315  0.4350  0.4178
51358SOL    HW161124   1.902   8.609   6.158 -0.1181  1.4498 -0.5996
51358SOL    HW261125   2.021   8.659   6.078  0.9004  1.4442  0.8706
51359SOL     OW61126  11.957   0.956   8.394  0.3353  0.2933 -0.0351
51359SOL    HW161127  11.949   0.950   8.489  0.0192  1.8690  0.0679
51359SOL    HW261128  11.956   0.865   8.364  1.2177 -0.2672  1.5167
51360SOL     OW61129   3.811   8.296   3.689  0.1951 -0.4282 -0.5020
51360SOL    HW161130   3.819   8.297   3.593 -1.4014  1.5816 -0.6902
51360SOL    HW261131   3.871   8.364   3.719 -1.0558  0.6313 -0.3140
51361SOL     OW61132   2.082   4.409   2.724 -0.3899 -0.7749  0.5735
51361SOL    HW161133   2.013   4.353   2.760 -1.4811 -0.4818 -0.9568
51361SOL    HW261134   2.135   4.351   2.670  0.2258 -0.8854  1.2889
51362SOL     OW61135   4.059   0.569   5.933  0.3318 -0.6431  0.3548
51362SOL    HW161136   4.143   0.525   5.922 -0.2463 -1.3886 -1.6118
51362SOL    HW261137   3.994   0.499   5.923 -0.5519  0.1901  0.0705
51363SOL     OW61138   0.290   1.811   9.282  0.3202 -0.1436 -0.4264
51363SOL    HW161139   0.268   1.718   9.286 -1.0999  0.1413 -0.9947
51363SOL    HW261140   0.273   1.844   9.371  0.2285 -0.2999 -0.3866
51364SOL     OW61141   8.492   2.629   0.089 -0.2704  0.0793  0.3568
51364SOL    HW161142   8.535   2.708   0.122  1.1833 -0.8771  0.8196
51364SOL    HW261143   8.418   2.663   0.037 -0.0298  1.7153  1.0050
51365SOL     OW61144   9.774   2.178  10.215 -0.2456 -0.7632 -0.1886
51365SOL    HW161145   9.856   2.206  10.256  0.1494  1.1048 -2.0598
51365SOL    HW261146   9.796   2.095  10.171  0.6273 -0.3502 -0.5615
51366SOL     OW61147   5.323  11.501   0.181 -0.4364  0.2230 -0.2464
51366SOL    HW161148   5.358  11.443   0.114 -0.5361  0.3768 -0.4324
51366SOL    HW261149   5.400  11.534   0.227 -0.4325 -1.0479  0.6980
51367SOL     OW61150   7.070  11.824   8.254  0.4569 -0.2709  0.0898
51367SOL    HW161151   7.079  11.777   8.171  0.1857 -0.1695 -0.0002
51367SOL    HW261152   7.137  11.892   8.251  0.5028 -0.3206 -0.0095
51368SOL     OW61153   4.103   7.707  11.091  0.0245 -0.0892 -0.0351
51368SOL    HW161154   4.132   7.667  11.173 -0.5438  1.5834  1.0484
51368SOL    HW261155   4.027   7.760  11.116 -0.2142  0.3829 -1.6666
51369SOL     OW61156   1.251   3.322  10.351  0.0791  0.2483 -0.1331
51369SOL    HW161157   1.193   3.384  10.395 -0.4055 -0.1011 -0.2707
51369SOL    HW261158   1.276   3.367  10.270 -2.9345 -0.9452 -1.9231
51370SOL     OW61159   1.965  10.776   4.037  0.2817  0.1029 -0.1103
51370SOL    HW161160   1.936  10.867   4.036 -1.1004 -0.2886  0.7920
51370SOL    HW261161   1.898  10.729   3.988  1.0590 -0.4223 -0.6893
51371SOL     OW61162   5.183   1.693   2.390  0.0401  0.3692  0.0035
51371SOL    HW161163   5.094   1.663   2.413  0.7767 -0.3460  2.1520
51371SOL    HW261164   5.208   1.751   2.461  1.0262  1.1829 -0.9830
51372SOL     OW61165  11.643   9.861   6.310 -0.1227 -0.1632  0.1464
51372SOL    HW161166  11.609   9.948   6.331  1.5322  0.4417  0.4956
51372SOL    HW261167  11.678   9.828   6.393  2.3899  0.3385 -0.6042
51373SOL     OW61168  11.831  10.004   0.026  0.1934  0.4702  0.4078
51373SOL    HW161169  11.761  10.068   0.013 -1.1410 -0.6102  1.9164
51373SOL    HW261170  11.876  10.033   0.104  2.7706  2.2301 -1.5690
51374SOL     OW61171   0.991   9.740   6.398 -0.0148  0.6454 -0.4841
51374SOL    HW161172   1.053   9.808   6.370  0.8051  0.7732  1.4566
51374SOL    HW261173   1.037   9.693   6.467 -1.4722 -0.3550 -0.1528
51375SOL     OW61174   6.567   0.161  11.826 -0.3143  0.0728 -0.6968
51375SOL    HW161175   6.659   0.169  11.849 -0.3705 -1.4706  0.1837
51375SOL    HW261176   6.560   0.203  11.740  1.0176  0.9748 -0.3856
51376SOL     OW61177   6.242   9.050  12.404  0.0990  0.1900  0.1286
51376SOL    HW161178   6.280   8.980  12.351 -1.4565 -0.4444 -0.2159
51376SOL    HW261179   6.273   9.131  12.364 -0.1056 -0.2944 -1.0512
51377SOL     OW61180  10.371   8.533   6.937 -0.4739 -0.5112 -0.5535
51377SOL    HW161181  10.446   8.526   6.877 -1.2090  0.7410 -1.6505
51377SOL    HW261182  10.411   8.553   7.022  0.5428 -1.6605 -0.7258
51378SOL     OW61183   6.233  12.103   4.125  0.5319  0.9865  0.1207
51378SOL    HW161184   6.210  12.196   4.120 -2.0610  0.3451 -1.9650
51378SOL    HW261185   6.164  12.065   4.180 -0.0747 -0.1000 -1.3381
51379SOL     OW61186   1.859   5.897   9.948 -0.2671 -0.0727 -0.4590
51379SOL    HW161187   1.853   5.943  10.032  0.7058  2.0409 -1.4550
51379SOL    HW261188   1.951   5.873   9.940 -0.4826 -0.8702 -0.6378
51380SOL     OW61189  10.141  12.010   9.998 -0.3835  0.2475  0.2335
51380SOL    HW161190  10.133  12.094   9.952 -1.1826  0.6552  1.0588
51380SOL    HW261191  10.055  11.969   9.988  0.4646 -1.2431 -1.5187
51381SOL     OW61192   5.912   6.812   5.028  0.0368  0.6188 -0.1987
51381SOL    HW161193   5.843   6.812   4.962  0.6232 -0.2997 -0.8515
51381SOL    HW261194   5.882   6.871   5.096 -1.9639 -0.7169  0.1496
51382SOL     OW61195   3.307   3.671   5.734  0.0829  0.8354  0.4164
51382SOL    HW161196   3.241   3.658   5.667 -0.4293 -0.5931  1.1563
51382SOL    HW261197   3.290   3.759   5.769  0.8563  1.9499 -1.7910
51383SOL     OW61198   1.225   0.215   3.220 -0.6590 -0.3210  0.2581
51383SOL    HW161199   1.143   0.231   3.173 -0.4702 -2.3239 -0.8540
51383SOL    HW261200   1.262   0.303   3.233 -2.1986  0.5023 -0.6280
51384SOL     OW61201   0.766  12.011   4.042  0.2043  0.8835 -0.3937
51384SOL    HW161202   0.824  12.054   3.979  0.1568 -0.0985 -1.1187
51384SOL    HW261203   0.822  11.947   4.086 -0.4051 -0.3527 -1.3817
51385SOL     OW61204   2.890  11.276   0.615 -0.1067 -0.1589 -0.2703
51385SOL    HW161205   2.901  11.368   0.593  0.2243  0.1294  0.9805
51385SOL    HW261206   2.887  11.231   0.531  1.0648  0.8438 -0.8837
51386SOL     OW61207   8.054   9.401   2.362 -0.1617  0.1302 -0.8667
51386SOL    HW161208   8.078   9.313   2.394  1.0939  0.4452 -0.8790
51386SOL    HW261209   7.960   9.408   2.379 -0.2287 -1.1253 -0.6358
51387SOL     OW61210   7.348   6.791  10.495  0.4534  0.4312  0.2692
51387SOL    HW161211   7.337   6.757  10.584  0.0323  0.4463  0.2252
51387SOL    HW261212   7.306   6.877  10.497  1.8900  1.1621  0.5006
51388SOL     OW61213   5.316   0.186   6.161  0.1718  0.1438  0.7808
51388SOL    HW161214   5.252   0.255   6.145  0.1582  0.1420  0.8264
51388SOL    HW261215   5.385   0.201   6.096  1.0326  1.2426  1.9074
51389SOL     OW61216   9.433  10.371   4.480 -0.2354 -0.2212 -0.1380
51389SOL    HW161217   9.403  10.347   4.393  1.0057  0.9251 -0.9126
51389SOL    HW261218   9.412  10.464   4.489  2.0677  0.3918 -0.3451
51390SOL     OW61219   1.694   8.148   0.744 -0.3423  0.0731  0.1818
51390SOL    HW161220   1.691   8.055   0.725  2.0056  0.0627 -0.3444
51390SOL    HW261221   1.608   8.181   0.715 -1.6692 -2.0445  1.4610
51391SOL     OW61222  10.794   1.402  11.082  0.7538  0.2790 -0.3238
51391SOL    HW161223  10.878   1.385  11.041  0.2072 -0.1333 -1.3005
51391SOL    HW261224  10.734   1.419  11.010  0.3290  2.2498  0.4120
51392SOL     OW61225   4.599  11.282   0.288  0.9634 -0.6670 -0.0666
51392SOL    HW161226   4.646  11.209   0.328  0.9436 -0.1018  1.0411
51392SOL    HW261227   4.520  11.291   0.341  0.1583 -0.8677 -1.1969
51393SOL     OW61228   9.993  10.848   1.706 -1.0254  0.0571 -0.5207
51393SOL    HW161229   9.993  10.899   1.788  0.4263  0.4860 -0.7602
51393SOL    HW261230  10.083  10.855   1.674 -1.5842 -0.0759 -2.1882
51394SOL     OW61231   3.114   4.849  10.524  0.3249  0.0702 -0.3737
51394SOL    HW161232   3.115   4.921  10.587 -0.7777 -2.3488  2.6092
51394SOL    HW261233   3.197   4.803  10.538 -0.1814 -0.8233 -0.2292
51395SOL     OW61234   6.228   3.333  10.420  0.2538  0.1032  0.3284
51395SOL    HW161235   6.313   3.323  10.464 -1.2293 -1.9187  2.9853
51395SOL    HW261236   6.213   3.427  10.419  1.2572  0.3445  2.4882
51396SOL     OW61237   6.091  10.732   3.718  0.3150 -0.6595  0.5592
51396SOL    HW161238   6.027  10.784   3.766  0.2715 -0.2594  0.0789
51396SOL    HW261239   6.062  10.641   3.729 -0.0821 -0.5133  0.7081
51397SOL     OW61240   3.908   4.472   3.804 -0.3442  0.0099  0.2163
51397SOL    HW161241   3.900   4.377   3.816 -1.6350  0.2202  1.1855
51397SOL    HW261242   3.849   4.492   3.732 -0.0827  0.0947  0.0222
51398SOL     OW61243   1.440  12.514   8.829  0.1305 -0.1554 -0.3351
51398SOL    HW161244   1.487  12.466   8.896  1.6407 -1.3253 -2.1318
51398SOL    HW261245   1.348  12.500   8.848  0.4512  0.8737  2.3575
51399SOL     OW61246   5.239   0.520   9.535 -0.0517  0.1660 -0.0735
51399SOL    HW161247   5.239   0.606   9.575 -1.9156  0.5440 -0.7968
51399SOL    HW261248   5.148   0.490   9.540  0.7030 -2.2190  1.0864
51400SOL     OW61249   4.025   1.493   2.515  0.4581  0.1781  0.4906
51400SOL    HW161250   3.999   1.419   2.570 -0.0798  0.2158  0.3003
51400SOL    HW261251   4.116   1.511   2.539  0.5900 -0.5315  0.5506
51401SOL     OW61252  10.293  10.518  10.258 -0.0113 -0.4464 -0.5599
51401SOL    HW161253  10.376  10.567  10.260 -1.4094  2.1393  1.3630
51401SOL    HW261254  10.305  10.448  10.323  0.9594 -0.6553 -0.9557
51402SOL     OW61255   4.229   2.179   4.352  0.1832 -0.4120 -0.3620
51402SOL    HW161256   4.305   2.196   4.297 -0.0065 -1.9195 -1.1628
51402SOL    HW261257   4.163   2.145   4.291 -1.1611  0.8912  0.3036
51403SOL     OW61258  12.398  12.545   7.673 -0.1365  0.4168 -0.8308
51403SOL    HW161259  12.474  12.528   7.728 -0.1891 -1.2868 -1.2163
51403SOL    HW261260  12.323  12.526   7.729 -0.1866 -1.6304 -1.5091
51404SOL     OW61261   2.956   4.928   3.197 -0.0318  0.3386  0.4878
51404SOL    HW161262   2.960   4.984   3.120 -0.4477  0.0440  0.2508
51404SOL    HW261263   2.866   4.936   3.229 -0.6832 -1.6838 -0.6812
51405SOL     OW61264   4.163   9.795   4.649 -0.2259  0.1800  0.2525
51405SOL    HW161265   4.166   9.774   4.743 -1.1815  0.2411  0.3116
51405SOL    HW261266   4.185   9.713   4.605  1.1512  0.3780  0.5267
51406SOL     OW61267   9.963   1.875   6.822  0.0437  0.1440  0.1400
51406SOL    HW161268  10.057   1.858   6.816  0.4422  1.7281  1.0843
51406SOL    HW261269   9.944   1.871   6.916 -0.8506 -0.1983 -0.0446
51407SOL     OW61270   8.778  11.302   2.084  0.4609  0.2970  0.7004
51407SOL    HW161271   8.865  11.263   2.071  0.8763  0.9830  1.2827
51407SOL    HW261272   8.785  11.347   2.168 -0.8613 -0.6735  1.3554
51408SOL     OW61273   6.476   3.788   1.405  0.4680  0.0174  0.0220
51408SOL    HW161274   6.567   3.816   1.412  0.0576  1.2992  0.4703
51408SOL    HW261275   6.480   3.693   1.411  1.6529  0.1280  1.6207
51409SOL     OW61276   2.184   8.969   1.119 -0.0186  0.6288  0.0905
51409SOL    HW161277   2.244   8.943   1.049  2.0264  1.0377  1.6300
51409SOL    HW261278   2.146   8.887   1.151 -0.9487  0.4325 -1.4032
51410SOL     OW61279   8.503   1.705   6.678  0.3827  0.0763  0.2021
51410SOL    HW161280   8.528   1.797   6.665 -1.8210  0.6518 -0.4574
51410SOL    HW261281   8.545   1.680   6.760  2.1415  1.2196 -0.2804
51411SOL     OW61282   9.784   3.857   6.034 -0.4224 -0.0327  0.4028
51411SOL    HW161283   9.782   3.844   6.129  1.9044 -2.4027  0.2283
51411SOL    HW261284   9.868   3.901   6.018 -0.9647  0.6878 -0.5732
51412SOL     OW61285   7.076   5.297   3.515  0.5028  0.1895 -0.0448
51412SOL    HW161286   7.019   5.220   3.504  0.5084  0.2280 -0.3717
51412SOL    HW261287   7.028   5.368   3.472  1.5268 -0.1309 -1.8479
51413SOL     OW61288  12.068   6.126   9.875  0.1714  0.2588 -0.0200
51413SOL    HW161289  12.028   6.212   9.890  2.1553  1.1238  0.7638
51413SOL    HW261290  12.043   6.075   9.953  0.5449  0.7712  0.4472
51414SOL     OW61291   6.275   5.464   7.872  0.0033 -0.3759 -0.1053
51414SOL    HW161292   6.277   5.556   7.846 -3.0096  0.0451  0.8519
51414SOL    HW261293   6.341   5.422   7.815  1.1625  2.2417 -0.8438
51415SOL     OW61294   0.822   4.722   8.659  0.0613  0.0739 -0.1953
51415SOL    HW161295   0.830   4.810   8.622  0.5455 -0.4226 -1.2971
51415SOL    HW261296   0.765   4.734   8.736  0.3297  1.3823 -0.1726
51416SOL     OW61297  10.387  12.014   2.785  0.1466  0.1260 -0.4436
51416SOL    HW161298  10.370  12.090   2.729  0.3456  2.7511  2.7608
51416SOL    HW261299  10.300  11.978   2.804 -0.0923  0.5951 -0.6360
51417SOL     OW61300   7.143   5.083   3.744  0.1200  0.2889  0.6233
51417SOL    HW161301   7.200   5.152   3.780 -0.5807  1.4823 -0.4621
51417SOL    HW261302   7.138   5.017   3.813  1.6201  0.8581  1.3071
51418SOL     OW61303  12.494   9.729   5.973 -0.6143 -0.4425 -0.2715
51418SOL    HW161304  12.412   9.772   5.947 -0.1298 -0.3003 -1.6255
51418SOL    HW261305  12.561   9.797   5.961 -0.3022 -0.5186  0.9488
51419SOL     OW61306  11.065  12.335   7.124  0.2644  1.0310  0.3167
51419SOL    HW161307  10.982  12.340   7.077  0.2595 -1.2295 -0.0144
51419SOL    HW261308  11.129  12.310   7.057  1.1910  2.4889  0.6182
51420SOL     OW61309   1.360  10.568   1.167  0.6358 -0.1845 -0.2167
51420SOL    HW161310   1.317  10.641   1.211  1.1643  0.2694 -0.4507
51420SOL    HW261311   1.428  10.608   1.114  0.3448 -0.7681 -1.0545
51421SOL     OW61312  11.197   9.316   3.798 -0.1886  0.2410  0.4225
51421SOL    HW161313  11.246   9.322   3.880 -1.5949  0.9307  1.2396
51421SOL    HW261314  11.135   9.388   3.800 -0.0412  0.4879 -1.4287
51422SOL     OW61315   6.947  10.500   5.580  0.3567  0.1712  0.0140
51422SOL    HW161316   6.985  10.551   5.651 -2.4487  1.3131  0.7917
51422SOL    HW261317   6.895  10.432   5.623 -1.3794  0.8690 -0.8776
51423SOL     OW61318   2.146   0.916  11.941 -0.5386  0.2582 -0.1264
51423SOL    HW161319   2.128   1.000  11.899 -2.9459  0.6321  1.4091
51423SOL    HW261320   2.060   0.886  11.972  0.3179 -2.5116 -0.1048
51424SOL     OW61321   4.195   2.452  12.256  0.6687  0.6325 -0.0944
51424SOL    HW161322   4.251   2.466  12.332  0.0583  0.6378  0.3618
51424SOL    HW261323   4.166   2.361  12.264 -0.4685  1.0202  0.4240
51425SOL     OW61324  10.083   0.811  11.064  0.2286  0.7030  0.6930
51425SOL    HW161325  10.110   0.875  10.999  1.4100 -0.4129  0.0327
51425SOL    HW261326   9.997   0.781  11.034  1.2129 -0.5899 -1.0274
51426SOL     OW61327   8.183  11.812   8.497  0.7741 -0.0639 -0.2691
51426SOL    HW161328   8.179  11.882   8.432  3.1711 -0.0982 -0.5609
51426SOL    HW261329   8.175  11.857   8.581 -1.2353  0.1085 -0.5126
51427SOL     OW61330   8.901   5.390   5.313  0.1490 -0.3647 -0.5293
51427SOL    HW161331   8.924   5.465   5.258 -0.1449 -2.2533 -3.4236
51427SOL    HW261332   8.813   5.409   5.344  0.0035  0.4226 -1.3706
51428SOL     OW61333  10.804   6.969   2.127 -0.1440  0.5649 -0.0937
51428SOL    HW161334  10.836   6.993   2.041  0.1845 -0.3504 -0.2310
51428SOL    HW261335  10.717   7.010   2.132 -0.9007 -0.7705 -1.5335
51429SOL     OW61336   8.545   3.347   8.669 -0.6105 -0.6160 -0.2513
51429SOL    HW161337   8.542   3.255   8.695 -0.5801 -0.0367  2.0381
51429SOL    HW261338   8.609   3.386   8.729 -0.0845  0.7624 -1.6602
51430SOL     OW61339   9.252   5.849  12.555  0.1166  0.0883 -0.1988
51430SOL    HW161340   9.313   5.858  12.481  0.1286  1.3465 -0.0673
51430SOL    HW261341   9.262   5.758  12.583  0.9592 -0.0955 -1.0195
51431SOL     OW61342   9.058   9.965   2.354 -0.9511  0.1622  0.1251
51431SOL    HW161343   9.083  10.016   2.431 -0.7530  0.0555  0.1322
51431SOL    HW261344   9.083   9.875   2.375 -2.3285 -0.1422  0.5751
51432SOL     OW61345   5.225   7.632  12.496  0.1755 -0.7808 -0.0438
51432SOL    HW161346   5.143   7.641  12.544  0.0529 -2.3453  0.0863
51432SOL    HW261347   5.236   7.716  12.451 -0.4992  0.1682  1.4549
51433SOL     OW61348   5.291   5.448   5.788  0.0330 -0.1266 -0.5511
51433SOL    HW161349   5.281   5.424   5.880  0.0518  0.5974 -0.3535
51433SOL    HW261350   5.239   5.384   5.741  2.7565 -2.6902 -0.3500
51434SOL     OW61351   4.418  11.110   3.741  0.5211 -0.5773 -0.7948
51434SOL    HW161352   4.440  11.190   3.788  3.1586 -2.5880  1.7477
51434SOL    HW261353   4.464  11.118   3.658  0.0236  0.8771 -0.9583
51435SOL     OW61354   3.696  10.446   4.979  0.0475  0.6005 -0.0206
51435SOL    HW161355   3.738  10.403   5.053  0.8381 -0.9083 -1.2803
51435SOL    HW261356   3.635  10.380   4.944 -0.8503  1.5417 -0.2977
51436SOL     OW61357  10.450   5.195   1.421 -0.1087  0.0431 -0.2495
51436SOL    HW161358  10.413   5.176   1.507  0.2806 -1.4698 -0.3811
51436SOL    HW261359  10.415   5.281   1.398 -0.8568  0.1158  1.0671
51437SOL     OW61360   8.189   9.554  10.886 -0.5731  0.2768  0.1834
51437SOL    HW161361   8.261   9.491  10.893 -1.3177 -0.4904  1.3765
51437SOL    HW261362   8.192   9.584  10.796  0.3066 -0.8733 -0.1977
51438SOL     OW61363  11.164   9.281  11.201 -0.2912  0.2268  0.0464
51438SOL    HW161364  11.164   9.376  11.216 -1.8405  0.3046 -0.3208
51438SOL    HW261365  11.117   9.245  11.276 -1.7210 -0.0197 -0.9342
51439SOL     OW61366   1.369  11.934   4.445 -0.7092  0.0594  0.3835
51439SOL    HW161367   1.303  12.002   4.459 -2.0219 -0.5940 -2.1769
51439SOL    HW261368   1.321  11.860   4.409  0.9494 -1.7024  1.5580
51440SOL     OW61369   7.754   1.080   2.900 -0.2187 -0.2245  0.1236
51440SOL    HW161370   7.798   1.046   2.822  1.3617  0.9978  0.4369
51440SOL    HW261371   7.694   1.010   2.926 -2.1142 -0.0272 -3.1530
51441SOL     OW61372  10.843  10.661   2.973 -0.0651 -0.4180  0.6427
51441SOL    HW161373  10.889  10.600   2.915  0.2497  0.5905 -0.2110
51441SOL    HW261374  10.779  10.704   2.916 -0.3172  0.0007  1.2387
51442SOL     OW61375   4.937   8.379  10.940 -0.0570  0.1115  0.2446
51442SOL    HW161376   4.992   8.456  10.955  0.7554 -0.6187  1.1675
51442SOL    HW261377   4.966   8.316  11.005 -1.4190 -0.6179  0.1849
51443SOL     OW61378   4.243   9.936  11.400  0.3681  0.0141  0.3838
51443SOL    HW161379   4.154   9.930  11.436  0.4562 -1.5506  0.3892
51443SOL    HW261380   4.240  10.013  11.344 -1.3862 -0.7139 -0.6077
51444SOL     OW61381   1.423   4.139   6.026  0.1692  0.2633 -0.4604
51444SOL    HW161382   1.398   4.209   5.967 -0.9223  0.6441  0.4322
51444SOL    HW261383   1.447   4.183   6.107  0.2838 -0.3447 -0.1573
51445SOL     OW61384  12.528   4.155   9.214  0.0529 -0.3233 -0.2392
51445SOL    HW161385  12.445   4.133   9.171  0.2169 -0.2583 -0.5918
51445SOL    HW261386  12.539   4.249   9.200  0.3143 -0.3794 -0.4169
51446SOL     OW61387   8.450   7.559  11.712  0.0999 -0.4033 -0.1088
51446SOL    HW161388   8.523   7.532  11.767 -0.0540 -0.1983  0.1928
51446SOL    HW261389   8.406   7.628  11.761  0.9806  1.0025 -1.2319
51447SOL     OW61390   0.197   7.005   0.955 -0.3567  0.0047  0.1121
51447SOL    HW161391   0.258   7.073   0.929 -0.9224  0.8635  0.9527
51447SOL    HW261392   0.203   6.939   0.886 -0.2209  1.1741 -1.0226
51448SOL     OW61393  11.216   7.195   8.283 -0.5706 -0.3541  0.6164
51448SOL    HW161394  11.121   7.201   8.291 -0.7006 -1.6811  0.3905
51448SOL    HW261395  11.235   7.228   8.196 -0.8036  0.1138  0.7428
51449SOL     OW61396  11.444   2.676  10.537 -0.2992  0.1376 -0.7298
51449SOL    HW161397  11.390   2.750  10.509 -0.7216  0.0401 -0.1714
51449SOL    HW261398  11.447   2.682  10.632 -1.1433 -1.1271 -0.6067
51450SOL     OW61399   2.941  10.626   2.644  0.2590  0.2325  0.1994
51450SOL    HW161400   3.013  10.607   2.583 -1.2447 -0.5198 -1.4238
51450SOL    HW261401   2.901  10.706   2.610  0.3111  0.6483  1.0945
51451SOL     OW61402   9.302   1.840  11.191 -0.4387  0.1342 -0.2711
51451SOL    HW161403   9.347   1.812  11.271  0.3254  3.7026  0.7257
51451SOL    HW261404   9.239   1.906  11.220 -1.3416  0.3378 -2.4666
51452SOL     OW61405   7.242   0.193   0.444  0.2934 -0.4208 -0.9224
51452SOL    HW161406   7.269   0.156   0.529 -0.2107  0.5294 -0.3354
51452SOL    HW261407   7.300   0.151   0.381  0.8440 -0.9663 -0.0831
51453SOL     OW61408   9.941   5.459   8.231 -0.2079  0.2044 -0.1897
51453SOL    HW161409   9.858   5.465   8.279 -0.1365 -2.0488  0.3165
51453SOL    HW261410  10.003   5.509   8.285 -0.9867  1.0296 -0.0263
51454SOL     OW61411   6.043   7.194   1.009 -0.2439  0.1412  0.5543
51454SOL    HW161412   5.994   7.130   0.958  0.8939  1.4477 -2.4610
51454SOL    HW261413   6.033   7.276   0.960  1.4367  1.3901  2.1503
51455SOL     OW61414   3.213   2.232  10.753  0.0743  0.0461 -0.3233
51455SOL    HW161415   3.256   2.172  10.693 -1.6749 -1.1848 -0.4379
51455SOL    HW261416   3.187   2.306  10.699 -0.2731 -0.4251 -0.8172
51456SOL     OW61417   0.354   5.219   8.989 -0.3204 -0.1267  0.7433
51456SOL    HW161418   0.314   5.248   9.071  0.1985 -1.6433  1.5702
51456SOL    HW261419   0.444   5.252   8.994 -0.3586 -0.0137  0.6779
51457SOL     OW61420  11.974   3.829   2.270 -0.2262 -0.0158 -0.0056
51457SOL    HW161421  12.033   3.758   2.246 -1.5730 -0.6436 -1.6660
51457SOL    HW261422  11.892   3.785   2.293 -0.2481  0.8606  1.7670
51458SOL     OW61423   4.925   8.712   1.020  0.0757 -0.1554 -0.1984
51458SOL    HW161424   4.841   8.672   0.999 -0.4988  0.7993  0.2166
51458SOL    HW261425   4.911   8.806   1.008  0.8607  0.0795  0.6149
51459SOL     OW61426  10.629   1.442  10.830 -0.2932 -0.0120  0.1206
51459SOL    HW161427  10.624   1.361  10.781  0.6720 -0.4864  0.7672
51459SOL    HW261428  10.652   1.509  10.765  0.1343 -0.4763 -0.2099
51460SOL     OW61429   3.017   5.666  12.300 -0.3676 -0.1364  0.1846
51460SOL    HW161430   2.932   5.655  12.258 -1.0072  1.4148  0.9463
51460SOL    HW261431   3.074   5.700  12.231 -1.1214  1.3865  0.2701
51461SOL     OW61432   8.985   8.124  12.192 -0.1444  0.1463  0.6387
51461SOL    HW161433   8.920   8.064  12.228 -0.6703  1.1670  1.4417
51461SOL    HW261434   9.069   8.089  12.220 -0.1093 -2.3278 -2.0557
51462SOL     OW61435   6.546   8.669   0.654 -0.3363 -0.0884 -0.3268
51462SOL    HW161436   6.482   8.641   0.719  0.5993  0.3968  0.8252
51462SOL    HW261437   6.606   8.596   0.645  0.5718  0.5143  0.7079
51463SOL     OW61438  10.513   1.623   1.289  0.2749  0.5090 -0.3610
51463SOL    HW161439  10.569   1.546   1.300  1.1646  1.2406  0.4352
51463SOL    HW261440  10.569   1.686   1.243 -0.0773  1.0544 -0.0454
51464SOL     OW61441   6.424   0.718   2.298 -0.0613  0.2496 -0.0184
51464SOL    HW161442   6.379   0.801   2.287 -0.2099  0.2947  0.8317
51464SOL    HW261443   6.360   0.661   2.340  0.9098  0.5949  2.0815
51465SOL     OW61444   6.784  11.519   2.353  0.2271  0.4954 -0.4222
51465SOL    HW161445   6.796  11.602   2.308  1.7521  1.0646  0.9380
51465SOL    HW261446   6.865  11.471   2.339 -0.1866 -0.2948 -0.2175
51466SOL     OW61447  11.703   6.286   7.625  0.2380  0.1236  0.2182
51466SOL    HW161448  11.647   6.227   7.574  0.2000  1.7041 -1.6621
51466SOL    HW261449  11.651   6.308   7.702 -1.5536  1.1338 -1.2213
51467SOL     OW61450   6.105   4.348   5.478  0.2659  0.0234 -0.1744
51467SOL    HW161451   6.161   4.324   5.551 -0.0784  1.5094  0.6173
51467SOL    HW261452   6.103   4.270   5.422  1.8014 -0.5950  0.5827
51468SOL     OW61453   2.955   3.686  11.372  0.2686 -0.2956  0.0806
51468SOL    HW161454   2.884   3.714  11.430 -0.4546  1.2463 -1.4761
51468SOL    HW261455   2.944   3.738  11.293  2.5340 -0.7813 -0.6269
51469SOL     OW61456  11.496   4.058   1.419 -0.1980  0.1083 -0.1917
51469SOL    HW161457  11.416   4.026   1.378  0.6198 -1.9173 -0.3047
51469SOL    HW261458  11.520   4.135   1.367 -2.2038  0.9532  0.0457
51470SOL     OW61459   2.484   5.598   3.561 -0.0505  0.3495  0.1945
51470SOL    HW161460   2.455   5.689   3.547 -0.3594  0.5899  2.0940
51470SOL    HW261461   2.482   5.559   3.474  1.3194  2.5130 -0.9063
51471SOL     OW61462  11.131   2.095   3.223  0.4184 -0.0335  0.1153
51471SOL    HW161463  11.115   2.175   3.272  0.3316  0.3722 -0.5520
51471SOL    HW261464  11.213   2.111   3.176  0.8481 -0.6687  0.6310
51472SOL     OW61465   3.230   2.852   0.167  0.4146 -0.1820  0.1835
51472SOL    HW161466   3.296   2.862   0.235  0.6003 -1.2628  0.1726
51472SOL    HW261467   3.225   2.758   0.150 -1.2409 -0.1554  0.3009
51473SOL     OW61468   3.493   7.820   4.416 -0.3373  0.2094  0.5395
51473SOL    HW161469   3.522   7.786   4.500  0.2801 -0.6735 -0.0090
51473SOL    HW261470   3.439   7.751   4.379  0.7857 -0.1519 -0.5108
51474SOL     OW61471   9.276   0.124   1.374 -0.0452  0.7809  0.4597
51474SOL    HW161472   9.242   0.209   1.347 -1.1624  0.0575 -0.5295
51474SOL    HW261473   9.204   0.083   1.422  0.3468  0.2481  0.6032
51475SOL     OW61474   7.637   1.576   1.590 -0.4122  0.3067  0.6730
51475SOL    HW161475   7.666   1.495   1.549  2.1280  2.7470 -2.9641
51475SOL    HW261476   7.716   1.612   1.631 -1.1967  1.5155  1.1766
51476SOL     OW61477   6.896   9.936   1.440  0.1256 -0.2752 -0.1318
51476SOL    HW161478   6.868   9.939   1.349  0.5156 -0.3879 -0.2567
51476SOL    HW261479   6.991   9.933   1.436  0.1320 -0.7806  0.2682
51477SOL     OW61480   2.556   7.120   2.258 -0.0435  0.4018  0.6539
51477SOL    HW161481   2.504   7.177   2.316 -2.0150 -0.2280 -0.3912
51477SOL    HW261482   2.580   7.045   2.313  0.4957  1.0859  1.3758
51478SOL     OW61483   4.926  11.361   5.630  0.2916 -0.2563 -0.0007
51478SOL    HW161484   4.932  11.277   5.675  0.5299 -0.5349 -0.5407
51478SOL    HW261485   4.964  11.345   5.544 -1.8440 -0.2517 -1.0056
51479SOL     OW61486  10.912   2.990   4.264 -0.3650  0.4709 -0.4600
51479SOL    HW161487  10.944   3.058   4.323  1.8710  1.8420 -3.0290
51479SOL    HW261488  10.945   2.908   4.302 -0.2070  1.1430  0.9164
51480SOL     OW61489   7.972   4.355   2.607 -0.1659  0.5446 -0.2027
51480SOL    HW161490   7.993   4.441   2.570 -0.9599  0.8683  0.0812
51480SOL    HW261491   7.963   4.370   2.701 -2.4929  0.6359 -0.3706
51481SOL     OW61492   8.504   1.600   0.172  0.2075 -0.3371  0.6868
51481SOL    HW161493   8.431   1.616   0.113  1.3503 -0.2709 -0.7821
51481SOL    HW261494   8.498   1.669   0.238  0.4956  1.3571 -0.9820
51482SOL     OW61495   6.341   1.048  10.231  0.5815  0.1979 -0.2834
51482SOL    HW161496   6.319   0.957  10.252 -0.8815  0.0868 -2.0856
51482SOL    HW261497   6.434   1.056  10.253  0.9805 -1.9931 -0.9498
51483SOL     OW61498   5.047   4.646  10.698  0.4701 -0.1160  0.3036
51483SOL    HW161499   5.117   4.581  10.687 -0.2057 -0.7095 -0.5495
51483SOL    HW261500   5.093   4.731  10.697  1.2498 -0.5285  0.4347
51484SOL     OW61501   9.455   2.208  10.033  0.1121  0.4492 -0.0324
51484SOL    HW161502   9.393   2.137  10.048 -0.4368  0.7632 -0.7095
51484SOL    HW261503   9.415   2.285  10.074  0.4461  0.4796  0.2396
51485SOL     OW61504   7.246   3.168   8.662  0.2077 -0.0418 -0.2083
51485SOL    HW161505   7.327   3.207   8.693 -0.3019  1.0030 -0.1546
51485SOL    HW261506   7.231   3.093   8.719  1.3270 -0.4781 -0.4696
51486SOL     OW61507   9.413   0.952  12.342 -0.1645  0.4398 -0.2658
51486SOL    HW161508   9.399   0.892  12.268 -0.8075  0.4217 -0.1363
51486SOL    HW261509   9.492   0.918  12.385  0.2177  0.4549 -0.9423
51487SOL     OW61510   8.860   3.080  11.347 -0.4278  0.7817 -0.8503
51487SOL    HW161511   8.835   3.164  11.385  0.7655  1.4202 -1.4332
51487SOL    HW261512   8.954   3.087  11.333  0.0569 -1.3410  0.7952
51488SOL     OW61513   0.379   5.485  11.031 -0.9613 -0.1645 -0.4910
51488SOL    HW161514   0.391   5.580  11.035 -0.6260 -0.2175 -0.2307
51488SOL    HW261515   0.468   5.449  11.031 -1.0888 -0.5545  1.2730
51489SOL     OW61516  12.223   5.926   8.337 -0.3462  0.8020  0.3458
51489SOL    HW161517  12.171   5.950   8.414 -0.8924 -0.8764  0.5508
51489SOL    HW261518  12.175   5.854   8.297  2.1444 -1.3757  0.9986
51490SOL     OW61519   9.477  11.238   1.359  0.1495 -0.0680  0.6861
51490SOL    HW161520   9.541  11.266   1.293 -0.0574  0.2228  0.6096
51490SOL    HW261521   9.448  11.152   1.329 -1.7449  1.0524 -0.9408
51491SOL     OW61522   3.771  10.444  10.797 -0.1673 -0.2639  0.3876
51491SOL    HW161523   3.788  10.434  10.703  0.5157  2.6592  0.1132
51491SOL    HW261524   3.851  10.484  10.832 -1.1756  0.6211  1.8008
51492SOL     OW61525  10.707   4.455   3.493 -0.1833 -0.5668 -0.2981
51492SOL    HW161526  10.796   4.424   3.508  0.3928  0.0702 -2.1454
51492SOL    HW261527  10.703   4.540   3.538  0.5366 -0.0505 -1.1854
51493SOL     OW61528   9.325   3.313   2.665  0.2556  0.1141 -0.1359
51493SOL    HW161529   9.394   3.251   2.688  1.0437  1.4098  1.1351
51493SOL    HW261530   9.271   3.319   2.744 -1.1719 -0.6316 -1.0021
51494SOL     OW61531   1.631  11.346   9.566  0.2591 -0.3502 -0.7018
51494SOL    HW161532   1.609  11.436   9.543 -0.7110  0.3998  2.7015
51494SOL    HW261533   1.549  11.298   9.558 -0.0557 -0.1130  0.7668
51495SOL     OW61534  10.812   7.215   2.728 -0.1997 -0.6565 -0.1940
51495SOL    HW161535  10.880   7.264   2.680  0.9457 -1.9825  0.0010
51495SOL    HW261536  10.854   7.191   2.810 -0.9467 -1.4530 -0.0398
51496SOL     OW61537   7.984   4.236   5.022 -0.1782  0.4209  0.1952
51496SOL    HW161538   7.984   4.150   5.063  0.9661  1.1452  1.8058
51496SOL    HW261539   8.045   4.227   4.948 -0.5669 -0.3064 -0.0516
51497SOL     OW61540   2.717   3.201   5.192 -0.2615  0.5221 -0.6615
51497SOL    HW161541   2.746   3.112   5.173  1.2543  1.4698 -3.3165
51497SOL    HW261542   2.626   3.203   5.164 -0.9898 -0.6661  1.3783
51498SOL     OW61543   4.361   3.399   8.943 -0.5031  0.5014 -0.5206
51498SOL    HW161544   4.312   3.343   8.882  1.6643 -2.3156  0.1228
51498SOL    HW261545   4.309   3.399   9.023  0.3462 -2.4679  0.1651
51499SOL     OW61546   2.939   6.694  11.752  0.2821  0.3083  0.5087
51499SOL    HW161547   2.912   6.694  11.844 -0.3954  2.2443  0.3425
51499SOL    HW261548   2.916   6.606  11.721 -1.2567  0.2452  1.6878
51500SOL     OW61549   0.605   9.952   5.867  0.4554 -0.3913  0.3766
51500SOL    HW161550   0.643   9.934   5.953 -0.4649  1.4945  1.2319
51500SOL    HW261551   0.669   9.917   5.805  0.3891 -3.2559  1.7871
51501SOL     OW61552   7.498   8.259  11.216  0.5749 -0.3053  0.1198
51501SOL    HW161553   7.553   8.238  11.291 -1.9158  0.5758  2.3185
51501SOL    HW261554   7.510   8.353  11.203 -1.3115  0.1611  1.4667
51502SOL     OW61555   9.440   7.218  10.580 -0.6385  0.1016 -0.7640
51502SOL    HW161556   9.483   7.135  10.561 -0.0158  0.5730 -1.4678
51502SOL    HW261557   9.509   7.284  10.574 -1.5128  0.9383 -2.4231
51503SOL     OW61558   9.145  10.941   6.875  0.7111  0.0924  0.2896
51503SOL    HW161559   9.211  10.876   6.900 -1.7422 -2.4775  0.5517
51503SOL    HW261560   9.114  10.977   6.958  0.5167 -0.0236  0.2663
51504SOL     OW61561   7.441  10.265   0.561  0.0934  0.2817 -0.3106
51504SOL    HW161562   7.520  10.318   0.546  0.1973  0.2942  0.2588
51504SOL    HW261563   7.460  10.217   0.641 -0.1469 -0.3558 -0.6321
51505SOL     OW61564  10.602   6.036   8.662 -0.0703  0.1672  0.4624
51505SOL    HW161565  10.528   6.090   8.633  0.0876  0.3535  0.4015
51505SOL    HW261566  10.563   5.951   8.683 -0.4160  0.4887  1.1395
51506SOL     OW61567  10.136   3.973   6.679  0.2673  0.1914  0.4022
51506SOL    HW161568  10.141   3.882   6.650  0.5023  0.6900 -1.2219
51506SOL    HW261569  10.171   4.024   6.606  3.0956  1.4343  2.4398
51507SOL     OW61570   7.817   8.168   1.318  0.0970 -0.0078  0.1188
51507SOL    HW161571   7.770   8.251   1.331  0.2792 -0.0418  1.0484
51507SOL    HW261572   7.854   8.175   1.230  0.6202  1.1640  0.4089
51508SOL     OW61573   6.696   1.279  11.552  0.0296 -0.3074 -0.2141
51508SOL    HW161574   6.628   1.238  11.605  1.1775 -1.7565  0.1801
51508SOL    HW261575   6.778   1.256  11.595  0.8174  1.1423 -0.8545
51509SOL     OW61576   5.100   5.223  10.046 -0.1359 -0.1809 -0.5299
51509SOL    HW161577   5.087   5.304  10.094  1.3492  0.2228 -0.7580
51509SOL    HW261578   5.049   5.158  10.095  2.5752 -0.1633  2.6510
51510SOL     OW61579  11.021   8.321  11.299  0.5420  0.5289 -0.0344
51510SOL    HW161580  11.061   8.237  11.281  2.8408  1.2627  1.2973
51510SOL    HW261581  11.077   8.361  11.365 -2.3691  1.6965  1.9242
51511SOL     OW61582   1.375  11.380   5.473 -0.1062  0.1995  0.1205
51511SOL    HW161583   1.458  11.356   5.433 -0.6518 -0.7009 -0.4867
51511SOL    HW261584   1.371  11.329   5.554  1.5152  2.8438  2.0239
51512SOL     OW61585  10.767   7.466   4.931 -0.1457 -0.1699 -0.4118
51512SOL    HW161586  10.752   7.464   4.836 -0.2011 -0.5249 -0.3970
51512SOL    HW261587  10.682   7.442   4.969 -0.0047 -0.4554 -0.2825
51513SOL     OW61588   9.642  12.438   6.948  0.0356 -0.2566  0.2679
51513SOL    HW161589   9.619  12.486   6.869 -0.3225 -0.1944  0.4088
51513SOL    HW261590   9.737  12.448   6.955 -0.1946  1.7647  1.1265
51514SOL     OW61591  11.449   8.538  10.330  0.1590  0.5683 -0.5920
51514SOL    HW161592  11.423   8.579  10.247 -0.0016 -0.1286 -0.8984
51514SOL    HW261593  11.544   8.527  10.322  0.2109  0.9108 -0.4866
51515SOL     OW61594   4.833   1.529   7.151 -0.1513 -0.2606 -0.5311
51515SOL    HW161595   4.796   1.568   7.230 -1.4194 -2.4407  0.0538
51515SOL    HW261596   4.914   1.487   7.180 -0.7268 -1.2494 -0.2723
51516SOL     OW61597  11.748   2.096  11.882  0.2555  0.2791 -0.0512
51516SOL    HW161598  11.715   2.012  11.851  1.4581 -0.6031  0.9254
51516SOL    HW261599  11.688   2.161  11.846 -0.2215 -0.9273 -1.5120
51517SOL     OW61600   1.991  11.640   7.962 -0.3041 -0.1400 -0.1118
51517SOL    HW161601   1.897  11.632   7.946 -0.4688  0.9997  0.1552
51517SOL    HW261602   2.003  11.732   7.985  0.6764 -0.5848  1.2924
51518SOL     OW61603  12.212   3.381  10.129  0.5325 -0.1298  0.8533
51518SOL    HW161604  12.230   3.291  10.155 -2.1492 -0.7870  0.7479
51518SOL    HW261605  12.156   3.415  10.199 -0.3888  0.6420 -0.2217
51519SOL     OW61606   0.408  11.925   7.506 -0.4036 -0.3699  0.0972
51519SOL    HW161607   0.357  11.843   7.509 -0.0723 -0.6813 -1.5703
51519SOL    HW261608   0.353  11.985   7.455 -0.6160  0.4624  1.2618
51520SOL     OW61609   9.640   2.074   7.776 -0.0741  0.4620  0.5416
51520SOL    HW161610   9.674   2.145   7.722 -0.7923  1.5547  1.4855
51520SOL    HW261611   9.566   2.112   7.823 -1.9839 -1.4997 -0.6372
51521SOL     OW61612  12.363  10.466  10.459  0.1677  1.0026 -0.0400
51521SOL    HW161613  12.402  10.536  10.406  1.7159 -0.0864 -0.4145
51521SOL    HW261614  12.421  10.459  10.535 -1.6553  2.0943  1.5443
51522SOL     OW61615   4.485   8.410   5.257 -0.1620  0.6802 -0.4445
51522SOL    HW161616   4.412   8.472   5.257 -0.8169  0.1027  2.9729
51522SOL    HW261617   4.485   8.373   5.345  2.4099 -1.6025 -1.2673
51523SOL     OW61618  11.742   4.803   5.097  0.1307  0.1603 -0.5240
51523SOL    HW161619  11.736   4.736   5.165  1.9283 -0.1651 -0.6423
51523SOL    HW261620  11.753   4.885   5.144 -2.2142  0.4538 -0.3739
51524SOL     OW61621   7.174   8.977   6.141  0.0179 -0.0577  0.1663
51524SOL    HW161622   7.106   8.998   6.206 -0.1195  2.1739 -0.6268
51524SOL    HW261623   7.237   8.924   6.189 -1.5383 -0.9541  1.3233
51525SOL     OW61624   0.331   9.097  10.374  0.2503 -0.6126  0.4352
51525SOL    HW161625   0.276   9.169  10.343  1.6221  0.2746  0.0043
51525SOL    HW261626   0.404   9.094  10.312 -1.0422 -4.1040 -1.1813
51526SOL     OW61627   9.375   9.029   6.178 -0.5081 -0.4019 -0.3664
51526SOL    HW161628   9.333   8.963   6.233 -1.1352  1.4337  1.4797
51526SOL    HW261629   9.468   9.023   6.199 -0.2505 -1.9519 -1.6949
51527SOL     OW61630   8.478  11.707   9.978  0.5234  0.2098  0.1745
51527SOL    HW161631   8.516  11.794   9.970 -2.2359  1.3504 -2.3141
51527SOL    HW261632   8.400  11.719  10.031 -0.1001 -0.6669 -0.5181
51528SOL     OW61633   0.008   7.001   0.528  0.0918 -0.0183 -0.0108
51528SOL    HW161634  -0.014   6.981   0.437 -1.7458 -3.5370  1.0358
51528SOL    HW261635   0.102   6.986   0.533 -0.1249 -2.1632 -0.9133
51529SOL     OW61636  12.140   3.037   6.443 -0.0241 -0.1395 -0.0392
51529SOL    HW161637  12.049   3.015   6.424  0.2750 -2.0696  0.5758
51529SOL    HW261638  12.151   3.126   6.407 -1.8656 -0.2301 -0.9526
51530SOL     OW61639   6.207   6.235   4.999  0.3174 -0.0732 -0.4589
51530SOL    HW161640   6.291   6.279   5.012  0.5253 -0.1785 -1.3710
51530SOL    HW261641   6.222   6.177   4.925 -0.9486  0.9554 -1.5739
51531SOL     OW61642   2.330  10.616   4.126 -0.7978 -0.2383  0.2344
51531SOL    HW161643   2.300  10.574   4.207  0.0168 -0.3166  0.5093
51531SOL    HW261644   2.419  10.582   4.114 -0.4944  0.6507 -0.0743
51532SOL     OW61645   6.505   0.109   8.075 -0.3739  0.4141  0.3782
51532SOL    HW161646   6.570   0.058   8.026 -0.2725 -0.5684  1.4899
51532SOL    HW261647   6.434   0.124   8.013  0.0132 -0.2795 -0.2494
51533SOL     OW61648   1.996   0.326   6.553 -0.3642 -0.3268 -0.4151
51533SOL    HW161649   2.058   0.286   6.491  0.2426 -0.1945  0.0942
51533SOL    HW261650   2.009   0.420   6.542 -1.5178 -0.2524 -1.3362
51534SOL     OW61651   0.434   7.312   0.317  0.1404  0.2642  0.0577
51534SOL    HW161652   0.516   7.329   0.363  0.5287 -0.1945 -0.4658
51534SOL    HW261653   0.416   7.219   0.333 -0.8988  0.6245  1.1643
51535SOL     OW61654  10.574   7.226   5.331 -0.4727 -0.5575 -0.5504
51535SOL    HW161655  10.560   7.309   5.286 -2.0175 -0.6509 -0.2855
51535SOL    HW261656  10.565   7.160   5.262  1.8459 -0.5108 -0.9886
51536SOL     OW61657   5.040   3.235   4.767  0.2907 -0.2922 -0.0606
51536SOL    HW161658   5.023   3.329   4.773 -0.5474 -0.4499  0.1511
51536SOL    HW261659   5.004   3.208   4.683 -0.1899 -0.5695  0.2327
51537SOL     OW61660   2.926  11.988  12.126 -0.3712  0.3905  0.3606
51537SOL    HW161661   2.834  11.971  12.147 -0.4292  0.9634  0.6055
51537SOL    HW261662   2.924  12.066  12.071 -0.0801 -0.0233 -0.2469
51538SOL     OW61663   5.437   0.370   9.861 -0.1976 -0.1081 -0.0421
51538SOL    HW161664   5.401   0.288   9.894 -1.4734 -0.0888 -1.3130
51538SOL    HW261665   5.451   0.354   9.767  0.9297  0.6637 -0.0298
51539SOL     OW61666   0.104   6.268   3.153  0.6188  0.2863  0.1582
51539SOL    HW161667   0.055   6.199   3.109  1.5004  1.3039 -2.5815
51539SOL    HW261668   0.191   6.231   3.167  0.5001  0.1607  0.6023
51540SOL     OW61669   9.915   8.811   9.483 -0.8835  0.2995 -0.4399
51540SOL    HW161670   9.857   8.739   9.458 -1.2800  0.3674  0.2637
51540SOL    HW261671   9.859   8.888   9.484  0.0500  1.2164 -3.8741
51541SOL     OW61672  12.541   2.832   7.949  0.4472 -0.9591  0.1127
51541SOL    HW161673  12.478   2.785   8.004 -0.2926  1.7056  1.7216
51541SOL    HW261674  12.486   2.880   7.887  1.0762 -0.9786 -0.4639
51542SOL     OW61675   2.948   6.501  10.638 -0.0651 -0.0990  0.0276
51542SOL    HW161676   3.003   6.485  10.714  1.3183  1.2102 -0.6474
51542SOL    HW261677   3.008   6.498  10.563 -0.7767  1.9111 -0.6908
51543SOL     OW61678   4.058   5.241  11.613  0.4434  0.0495 -0.3854
51543SOL    HW161679   3.994   5.237  11.685  2.8268 -0.2782  1.8596
51543SOL    HW261680   4.070   5.334  11.597 -0.6466  0.1164 -0.9345
51544SOL     OW61681   2.201   6.672   5.524  0.2704  0.4469 -0.5619
51544SOL    HW161682   2.266   6.618   5.479 -0.5180  0.2389 -1.4811
51544SOL    HW261683   2.128   6.679   5.462 -1.7846 -1.6037  1.4164
51545SOL     OW61684   3.799   1.880   3.331 -0.1052  0.2007  0.0277
51545SOL    HW161685   3.754   1.827   3.264 -0.1961 -1.2728  1.1883
51545SOL    HW261686   3.884   1.837   3.342 -0.1752  0.2790  0.9901
51546SOL     OW61687  11.302   1.263  11.064  0.6204 -0.1649 -0.0782
51546SOL    HW161688  11.369   1.312  11.017  0.6968  1.4693  1.5918
51546SOL    HW261689  11.346   1.184  11.094  0.5487 -1.2784 -2.6760
51547SOL     OW61690   3.803  10.088   7.957  0.6002 -0.1260 -0.4807
51547SOL    HW161691   3.840  10.147   7.891  1.0610  0.5343  0.3534
51547SOL    HW261692   3.783  10.008   7.908 -0.0774  0.7199 -1.6329
51548SOL     OW61693   3.913  11.542   4.926  0.1024 -0.2146 -0.0581
51548SOL    HW161694   3.896  11.562   4.834  0.4169  0.4798  0.0243
51548SOL    HW261695   3.869  11.612   4.974 -1.5878 -1.5408  0.4172
51549SOL     OW61696   9.850  10.811   1.428 -0.5927  0.2657  0.2546
51549SOL    HW161697   9.874  10.811   1.521  0.4453  0.5641  0.0023
51549SOL    HW261698   9.778  10.747   1.422  1.4521 -2.2698  0.7414
51550SOL     OW61699   2.620   0.004  10.355  0.4656  0.1571 -0.0058
51550SOL    HW161700   2.648   0.087  10.394  1.0323 -0.9931  2.1962
51550SOL    HW261701   2.689  -0.058  10.380 -0.6411 -1.2692 -0.4005
51551SOL     OW61702   7.202   1.919   6.502  0.0346 -0.0552 -0.5355
51551SOL    HW161703   7.169   1.846   6.450  0.3425 -0.2072 -0.5144
51551SOL    HW261704   7.137   1.988   6.489 -1.3909 -0.9933  1.0702
51552SOL     OW61705   5.654   9.471  10.211  0.4973  0.0529 -0.3327
51552SOL    HW161706   5.748   9.455  10.215  0.5729  0.7092  1.2375
51552SOL    HW261707   5.645   9.546  10.152  0.8638 -0.5126 -1.1281
51553SOL     OW61708   4.691   5.534   0.543 -0.4967 -0.4562  0.0243
51553SOL    HW161709   4.690   5.546   0.638 -1.5100 -1.0312  0.0978
51553SOL    HW261710   4.695   5.623   0.508  1.8305 -0.2820  0.5846
51554SOL     OW61711   3.421   6.927   6.426 -0.5438  0.4700  0.1500
51554SOL    HW161712   3.346   6.968   6.468 -0.8720 -0.3691  0.4013
51554SOL    HW261713   3.491   6.992   6.432 -0.9521  0.8491  0.8504
51555SOL     OW61714   7.954   0.770   6.307  0.1287  0.3938 -0.3721
51555SOL    HW161715   7.915   0.794   6.391 -2.4872 -1.1530 -1.0430
51555SOL    HW261716   7.941   0.676   6.300  2.3378  0.1071 -1.5736
51556SOL     OW61717  12.482   1.815   7.031 -0.6556  0.0470 -0.1666
51556SOL    HW161718  12.403   1.782   6.989 -1.4034  0.2244  1.0706
51556SOL    HW261719  12.491   1.904   6.998 -0.7973 -0.0685 -0.5294
51557SOL     OW61720  12.196  10.403   8.414  0.1391  0.4667  0.0767
51557SOL    HW161721  12.136  10.367   8.480 -0.2435  1.2655  0.1657
51557SOL    HW261722  12.199  10.497   8.433  0.1825  0.6714 -0.9287
51558SOL     OW61723   9.339   6.791   8.574 -0.4141 -0.2536  0.4323
51558SOL    HW161724   9.411   6.833   8.622  1.6009 -1.6081 -1.2092
51558SOL    HW261725   9.338   6.835   8.489 -3.1310  1.3019  1.1788
51559SOL     OW61726   4.658   3.472   2.663 -0.5480 -0.4061 -0.0923
51559SOL    HW161727   4.647   3.498   2.571  1.3905  1.9159  0.2339
51559SOL    HW261728   4.583   3.511   2.708 -0.7661 -0.3624 -0.4916
51560SOL     OW61729   4.618   9.022   7.928 -0.0609  0.0535  0.2864
51560SOL    HW161730   4.677   8.978   7.988  0.2535 -1.6372 -1.1784
51560SOL    HW261731   4.569   9.084   7.982 -0.1259 -1.6929  2.3361
51561SOL     OW61732   7.486  10.059   9.921 -0.0164 -0.0535 -0.5688
51561SOL    HW161733   7.534  10.113   9.858  0.8517  1.1974  1.1096
51561SOL    HW261734   7.472  10.116   9.996 -1.4724 -1.3568  0.1979
51562SOL     OW61735   6.667  10.267   9.380 -0.1458  0.6738  0.2806
51562SOL    HW161736   6.580  10.289   9.348  0.7606  1.9392 -1.4905
51562SOL    HW261737   6.687  10.183   9.339 -0.3308  0.6155  0.3085
51563SOL     OW61738   7.338   6.213   4.826  0.6571  0.5589  0.3577
51563SOL    HW161739   7.367   6.255   4.745  0.7250  0.4994  0.3511
51563SOL    HW261740   7.250   6.248   4.841  1.1139  1.5249  0.9205
51564SOL     OW61741   1.056   3.386   2.474 -0.5679 -0.2156 -0.4419
51564SOL    HW161742   0.979   3.431   2.509 -0.4475 -0.0187 -0.4306
51564SOL    HW261743   1.039   3.380   2.380 -0.8896 -0.7419 -0.3557
51565SOL     OW61744   3.534  10.573   7.640  0.8103 -0.5665  0.3088
51565SOL    HW161745   3.510  10.614   7.557 -2.3523  1.4158  2.0192
51565SOL    HW261746   3.620  10.610   7.661 -0.0306  1.9461 -0.3127
51566SOL     OW61747   2.567   6.797   1.343  0.2582  0.7445 -0.2136
51566SOL    HW161748   2.639   6.772   1.285  0.8338  2.3341 -0.2340
51566SOL    HW261749   2.592   6.762   1.428 -0.2755 -1.0324 -0.7346
51567SOL     OW61750   2.584  12.547   7.290  0.3632 -0.2116 -0.1635
51567SOL    HW161751   2.614  12.604   7.360  2.7663 -1.6447  0.0538
51567SOL    HW261752   2.502  12.509   7.323  0.7147  0.2302  1.2596
51568SOL     OW61753   4.481   7.259   4.533  0.6827  0.2615 -0.0335
51568SOL    HW161754   4.411   7.248   4.598  0.9942  1.1570  0.4652
51568SOL    HW261755   4.439   7.306   4.460  1.0255  1.9192  0.7836
51569SOL     OW61756   9.884   2.880   1.233  0.2351 -0.4001  0.5086
51569SOL    HW161757   9.915   2.970   1.218  1.4752 -0.7286  1.0650
51569SOL    HW261758   9.955   2.824   1.202  0.1959 -1.1740  1.7447
51570SOL     OW61759  11.403   3.908   9.453  0.1317 -0.3639  0.1482
51570SOL    HW161760  11.461   3.918   9.378 -0.3761 -1.0754 -0.3501
51570SOL    HW261761  11.458   3.925   9.529  0.1419  2.8086 -0.4326
51571SOL     OW61762   4.977   2.427   8.268  0.1736 -0.0380  0.0124
51571SOL    HW161763   4.997   2.403   8.359  0.1294 -1.2557 -0.2798
51571SOL    HW261764   4.954   2.520   8.272 -0.0020 -0.1167  1.2744
51572SOL     OW61765   3.561   6.453   7.287 -0.7940  0.1122 -0.2971
51572SOL    HW161766   3.583   6.465   7.195 -0.2014  1.6817  0.0147
51572SOL    HW261767   3.468   6.476   7.292 -0.6452  0.7662 -0.3989
51573SOL     OW61768   3.854  10.533   5.536 -0.1907 -0.1656  0.0783
51573SOL    HW161769   3.790  10.505   5.471 -0.2625  0.1873 -0.0049
51573SOL    HW261770   3.851  10.629   5.533  0.6371 -0.1399 -0.2201
51574SOL     OW61771   7.266   0.687   5.149 -0.2146  0.1361  0.0234
51574SOL    HW161772   7.188   0.715   5.197  0.2812 -1.7145  2.0559
51574SOL    HW261773   7.336   0.740   5.185 -0.3596  1.2236 -1.2272
51575SOL     OW61774   8.550   9.406   3.731  0.1961  0.5511  0.2919
51575SOL    HW161775   8.574   9.318   3.704  1.3185  0.9434 -0.0411
51575SOL    HW261776   8.598   9.421   3.812 -0.9868  0.4111  1.0488
51576SOL     OW61777   0.848  11.259   6.311  0.1562  0.1579  0.2637
51576SOL    HW161778   0.754  11.241   6.319  0.0745  0.4112 -0.0720
51576SOL    HW261779   0.890  11.197   6.370 -0.1045 -1.2167 -0.9492
51577SOL     OW61780   6.503   4.209   4.217 -0.0825 -0.5946  0.4593
51577SOL    HW161781   6.585   4.173   4.184 -0.1521 -0.9344  0.6469
51577SOL    HW261782   6.527   4.293   4.255  0.0745 -0.4095 -0.0403
51578SOL     OW61783   2.123   8.029   3.105  0.1095 -0.3938  0.3086
51578SOL    HW161784   2.066   8.042   3.181 -0.7097 -0.9432 -0.1964
51578SOL    HW261785   2.128   7.934   3.095  0.1354 -0.3246 -0.3788
51579SOL     OW61786   3.061   2.424   6.546 -0.3187 -0.3395 -0.4496
51579SOL    HW161787   2.978   2.396   6.508 -1.0804 -0.5758  1.2884
51579SOL    HW261788   3.039   2.453   6.634  0.9359  2.8505 -1.0585
51580SOL     OW61789   3.660   1.580  11.804  0.0368 -0.6453  0.0411
51580SOL    HW161790   3.634   1.540  11.722  0.4083  0.3890 -0.5967
51580SOL    HW261791   3.725   1.646  11.780  0.6129 -0.7471  1.2236
51581SOL     OW61792   6.159   7.515   4.795 -0.8818 -0.1933  0.1874
51581SOL    HW161793   6.247   7.531   4.761 -1.0035 -1.2985 -0.6855
51581SOL    HW261794   6.166   7.430   4.840 -1.8374 -1.0580 -1.2260
51582SOL     OW61795   2.795   6.532   3.345  0.1716 -0.1089 -0.0901
51582SOL    HW161796   2.720   6.481   3.313 -0.6998  0.6378  0.7275
51582SOL    HW261797   2.798   6.514   3.439  2.0291 -1.3994 -0.3230
51583SOL     OW61798   2.861   7.571   1.267 -0.1444 -0.0904  0.0502
51583SOL    HW161799   2.791   7.548   1.329 -0.9318 -0.1617 -0.8499
51583SOL    HW261800   2.860   7.501   1.202 -0.1909  0.6410 -0.7505
51584SOL     OW61801   1.095   9.948   7.952 -0.1974  0.1465  0.2547
51584SOL    HW161802   1.015   9.911   7.989 -0.4106  0.9303  0.6113
51584SOL    HW261803   1.157   9.949   8.025 -0.3018  0.7807  0.3419
51585SOL     OW61804   6.591   7.972   1.297 -0.6859 -0.1937 -0.1532
51585SOL    HW161805   6.575   7.879   1.278 -0.9949 -0.4700  1.3244
51585SOL    HW261806   6.527   8.019   1.243 -0.0071 -0.7753 -1.5085
51586SOL     OW61807   7.582   4.982   5.485 -0.5550  0.1647 -0.2408
51586SOL    HW161808   7.675   4.992   5.504 -0.3023 -1.1464 -0.6486
51586SOL    HW261809   7.577   4.976   5.390 -0.9758 -0.3343 -0.1975
51587SOL     OW61810  11.150   7.431  10.175 -0.5516 -0.1132 -0.4801
51587SOL    HW161811  11.086   7.455  10.242 -0.8130  0.9750 -1.0876
51587SOL    HW261812  11.174   7.341  10.196 -0.0213  0.4422  1.5348
51588SOL     OW61813  12.417   9.752   2.042 -0.0010  0.0615  0.1551
51588SOL    HW161814  12.338   9.803   2.023 -0.0891 -0.0605  0.1959
51588SOL    HW261815  12.480   9.817   2.074  0.0903  0.2412 -0.3770
51589SOL     OW61816   7.144   4.431  11.041 -0.1468  0.2160  0.2401
51589SOL    HW161817   7.216   4.396  10.990  0.2930  1.1641  0.1771
51589SOL    HW261818   7.183   4.501  11.093 -0.8433  0.1289  0.9059
51590SOL     OW61819   7.779   8.847   4.398  0.1282 -0.2622 -0.4128
51590SOL    HW161820   7.786   8.802   4.314 -1.3112  1.4790 -1.5051
51590SOL    HW261821   7.742   8.932   4.378  0.6725  0.5973  1.8852
51591SOL     OW61822  10.294   1.643   4.309  0.2524 -0.8454  0.2001
51591SOL    HW161823  10.375   1.612   4.349  0.4890  1.0313  1.2513
51591SOL    HW261824  10.239   1.671   4.382  1.0415  3.5232 -0.6286
51592SOL     OW61825   0.394   5.547   8.343 -0.3959 -0.4983  0.1905
51592SOL    HW161826   0.484   5.522   8.361  0.1592  1.9803  1.1964
51592SOL    HW261827   0.351   5.544   8.428 -1.0299 -0.7429 -0.1318
51593SOL     OW61828   0.391   4.935   4.253  0.5567  0.1528  0.8521
51593SOL    HW161829   0.475   4.974   4.279  0.5233  0.0310  1.1421
51593SOL    HW261830   0.347   4.916   4.336  0.0287  0.6720  0.6993
51594SOL     OW61831   8.219   2.009   2.126 -0.3122  0.3488 -0.3379
51594SOL    HW161832   8.253   1.994   2.214  0.0219  1.0249 -0.3471
51594SOL    HW261833   8.253   1.937   2.074 -2.6775 -1.6128  0.6323
51595SOL     OW61834  10.982   8.778   8.511 -0.0850 -0.5872 -0.2207
51595SOL    HW161835  11.028   8.711   8.460  0.2640 -0.1744 -0.4579
51595SOL    HW261836  10.970   8.738   8.597 -1.0713 -1.4601 -0.7440
51596SOL     OW61837  12.399   3.613   4.515 -0.0224  0.2245 -0.5746
51596SOL    HW161838  12.460   3.553   4.558 -0.0719 -0.1940 -1.0692
51596SOL    HW261839  12.455   3.669   4.460  0.1238  1.2969  0.6266
51597SOL     OW61840   8.342   1.390  10.447 -0.0617 -0.4925 -0.0048
51597SOL    HW161841   8.306   1.303  10.463  1.6032 -1.6624 -2.2036
51597SOL    HW261842   8.370   1.388  10.356  0.4510  2.2166  0.0222
51598SOL     OW61843   1.664   5.180  10.701 -0.2909  0.6915 -0.4763
51598SOL    HW161844   1.611   5.202  10.624 -2.5289 -0.1148  0.7175
51598SOL    HW261845   1.610   5.208  10.775  1.6669  1.1783  0.8256
51599SOL     OW61846   5.213   7.930   3.806 -0.0838 -0.2244 -0.5219
51599SOL    HW161847   5.129   7.887   3.793 -0.5468  0.8226 -1.1379
51599SOL    HW261848   5.277   7.867   3.772 -0.6159 -0.9782 -0.1617
51600SOL     OW61849   9.026   2.007   4.332  0.0283 -0.0362  0.0746
51600SOL    HW161850   8.994   1.982   4.245  0.3608 -0.6472  0.1238
51600SOL    HW261851   8.966   1.965   4.393  0.3489 -0.3884  0.1515
51601SOL     OW61852   3.128   1.919  11.342 -0.0225  1.0245 -0.2677
51601SOL    HW161853   3.115   1.837  11.294  0.9540  1.5912 -1.5740
51601SOL    HW261854   3.158   1.892  11.428  0.8852 -0.0060 -0.8798
51602SOL     OW61855  11.603   0.536   1.682  0.4085  0.3051 -0.8251
51602SOL    HW161856  11.690   0.565   1.654  0.5565 -0.5418 -1.2780
51602SOL    HW261857  11.556   0.520   1.601 -0.1530  0.6881 -0.5798
51603SOL     OW61858   4.054   7.992  12.167  0.2745  0.4307 -0.2592
51603SOL    HW161859   4.126   7.983  12.229 -0.0908 -0.1749  0.0792
51603SOL    HW261860   4.036   7.903  12.138  0.1174  0.6573 -0.8691
51604SOL     OW61861   4.141  10.581   0.995  0.3551 -0.1435  0.0216
51604SOL    HW161862   4.065  10.523   0.982  0.2103 -0.0176  0.2938
51604SOL    HW261863   4.151  10.585   1.090 -0.8338  1.8051  0.1146
51605SOL     OW61864   5.122   9.378   6.100 -0.4035 -0.2423 -0.4261
51605SOL    HW161865   5.115   9.372   6.005  2.4854 -0.4440 -0.7156
51605SOL    HW261866   5.106   9.289   6.131 -0.7763 -0.2906 -0.7434
51606SOL     OW61867   2.092   2.107   6.873 -0.0644 -0.1550  0.0328
51606SOL    HW161868   2.134   2.123   6.788 -1.6876 -0.0269 -0.7993
51606SOL    HW261869   2.014   2.162   6.871  0.6144  0.9841  2.2538
51607SOL     OW61870  11.697   5.640   8.971 -0.4330  0.4283  0.1986
51607SOL    HW161871  11.648   5.566   8.936  1.4498 -0.3428 -0.9930
51607SOL    HW261872  11.664   5.716   8.925 -0.1108 -0.1627 -1.0460
51608SOL     OW61873   8.210   4.734  12.374  0.4756  0.9211  0.1409
51608SOL    HW161874   8.205   4.699  12.463  0.2519  0.3538 -0.0883
51608SOL    HW261875   8.141   4.688  12.326  0.0336  1.8249 -0.1274
51609SOL     OW61876   7.648   1.209   6.028 -0.5372  0.3996  0.2220
51609SOL    HW161877   7.585   1.225   5.957 -0.7486  0.2314  0.3703
51609SOL    HW261878   7.668   1.116   6.023  1.8958  0.9449 -1.6295
51610SOL     OW61879  11.701  10.816   3.953 -0.1138 -0.1584  0.2871
51610SOL    HW161880  11.615  10.854   3.934 -0.0565  0.4726  1.2148
51610SOL    HW261881  11.686  10.761   4.030  0.6238  1.3647  1.5952
51611SOL     OW61882   9.392  11.251   6.326 -0.3414  0.0063 -0.4135
51611SOL    HW161883   9.465  11.189   6.329 -0.3571 -0.1057 -1.9661
51611SOL    HW261884   9.316  11.197   6.304 -0.3942  0.5378 -1.5724
51612SOL     OW61885   3.878  12.374  11.174  0.1810  0.2334  0.0920
51612SOL    HW161886   3.888  12.297  11.229  1.2614 -0.5996 -1.2253
51612SOL    HW261887   3.897  12.448  11.233  0.5479 -0.5834  1.0215
51613SOL     OW61888  11.943  11.551   9.532 -0.9750 -0.3706  0.4196
51613SOL    HW161889  11.897  11.467   9.527 -0.6923 -0.5470  0.7417
51613SOL    HW261890  12.031  11.532   9.499 -0.6144 -0.4270  1.3904
51614SOL     OW61891   3.094  11.952   0.083  0.0107 -0.1784 -0.3746
51614SOL    HW161892   3.184  11.975   0.106 -0.1641 -1.3540  1.8262
51614SOL    HW261893   3.073  11.879   0.142 -2.4651  0.2334 -0.6587
51615SOL     OW61894   6.205  10.434   5.172 -0.2062 -0.2347 -0.3577
51615SOL    HW161895   6.248  10.376   5.109 -0.8867 -0.7062 -0.3955
51615SOL    HW261896   6.243  10.410   5.256  1.4645  1.0954 -0.6769
51616SOL     OW61897  10.373   6.511   6.508  0.5280  0.1206 -0.0044
51616SOL    HW161898  10.366   6.418   6.484 -0.7340  0.1048  0.3347
51616SOL    HW261899  10.317   6.556   6.445 -1.0199  0.3226  1.4186
51617SOL     OW61900   0.180   0.831  10.948  0.8161  0.5974  0.6104
51617SOL    HW161901   0.263   0.862  10.985 -0.2143  0.5172  3.1743
51617SOL    HW261902   0.187   0.736  10.952  0.2652  0.5893  1.7349
51618SOL     OW61903   5.266  12.366   5.838 -0.0094  0.2626 -0.0575
51618SOL    HW161904   5.226  12.316   5.766 -0.4381  0.4111  0.0778
51618SOL    HW261905   5.231  12.327   5.917  0.9308 -0.2956  0.0961
51619SOL     OW61906   9.102  12.478  11.878  0.1335 -0.1108  0.2212
51619SOL    HW161907   9.161  12.441  11.943  0.0067  0.3181  0.5876
51619SOL    HW261908   9.083  12.566  11.910  0.8892  0.4928 -0.9312
51620SOL     OW61909   8.913   7.072   4.253 -0.3642 -0.0136 -0.6163
51620SOL    HW161910   8.900   7.166   4.261  0.9436  0.0339  2.2161
51620SOL    HW261911   8.836   7.033   4.295 -0.6299 -0.1859 -1.2651
51621SOL     OW61912   6.749   8.467   4.181 -0.3250  0.4737 -0.1040
51621SOL    HW161913   6.781   8.480   4.091 -0.6566 -0.3893 -0.3547
51621SOL    HW261914   6.746   8.372   4.192 -1.6753  0.5381  0.3055
51622SOL     OW61915   8.302   2.512   6.267 -0.6553  0.3053  0.0491
51622SOL    HW161916   8.302   2.417   6.266  0.4430  0.2038 -3.4891
51622SOL    HW261917   8.232   2.537   6.207 -1.0659  1.7733  1.0817
51623SOL     OW61918   8.477   4.884   8.119 -0.3632  0.3537  0.2682
51623SOL    HW161919   8.523   4.904   8.038 -1.7350  0.7325 -0.4487
51623SOL    HW261920   8.457   4.969   8.157 -0.8758  0.2055  0.3328
51624SOL     OW61921  11.944   8.271  12.098 -0.5442 -0.0464  0.2891
51624SOL    HW161922  11.925   8.245  12.188  2.1114 -0.2172  0.8800
51624SOL    HW261923  11.998   8.350  12.106 -1.1663  0.5636 -1.1960
51625SOL     OW61924   6.864  12.372   5.012 -0.1943  0.5485  0.1731
51625SOL    HW161925   6.781  12.330   4.989 -0.2262  0.5456  0.2871
51625SOL    HW261926   6.865  12.371   5.108 -1.2251  2.7426  0.2806
51626SOL     OW61927   5.732   0.985   5.306 -0.2224 -0.0281  0.2191
51626SOL    HW161928   5.734   1.014   5.397  0.1707  0.0482  0.1868
51626SOL    HW261929   5.768   1.058   5.256  2.8824 -1.3222  0.3551
51627SOL     OW61930   9.701  11.402   9.030 -0.2412 -0.5192 -0.7606
51627SOL    HW161931   9.676  11.477   9.084  1.3269  0.0461 -0.7661
51627SOL    HW261932   9.649  11.329   9.064 -0.6230  0.2266  0.2889
51628SOL     OW61933   3.903  12.200   5.380  0.1034 -0.0435 -0.1585
51628SOL    HW161934   3.940  12.145   5.448 -1.0703 -2.4978 -1.3674
51628SOL    HW261935   3.975  12.256   5.352  1.5468 -1.3835  0.7410
51629SOL     OW61936   4.746   1.654   6.553  0.8667  0.2582 -0.1228
51629SOL    HW161937   4.733   1.729   6.495 -1.1868  0.0187 -0.0596
51629SOL    HW261938   4.787   1.587   6.498  0.3480  0.5580 -0.8828
51630SOL     OW61939   9.073  10.097  10.340  0.1544  0.7998  0.1285
51630SOL    HW161940   9.073  10.157  10.415  0.1924 -1.1704  1.7818
51630SOL    HW261941   9.162  10.064  10.335 -0.0914  0.1520 -0.1553
51631SOL     OW61942  10.832   3.763   0.215 -0.3301 -0.1534 -0.2941
51631SOL    HW161943  10.851   3.772   0.308 -0.3511 -0.8773 -0.2200
51631SOL    HW261944  10.750   3.714   0.211 -0.6421  0.3828 -0.6867
51632SOL     OW61945   1.619   5.338   0.253  0.1317  0.0428  0.4349
51632SOL    HW161946   1.616   5.252   0.296  1.7511  0.1337  0.7847
51632SOL    HW261947   1.682   5.327   0.182  1.2214  1.2284  1.1774
51633SOL     OW61948   1.659   6.145   2.003 -0.0878 -0.1282  0.1141
51633SOL    HW161949   1.719   6.158   1.930  2.4772 -0.0516  2.0843
51633SOL    HW261950   1.657   6.230   2.047 -3.8367  0.6957 -1.2771
51634SOL     OW61951  12.439   3.015   2.043 -0.1517  0.1784 -0.4720
51634SOL    HW161952  12.534   3.007   2.054 -0.1764  0.0718 -0.3317
51634SOL    HW261953  12.421   3.108   2.058 -0.2272 -0.0156  0.7526
51635SOL     OW61954  10.045   1.008   1.491 -0.1881 -0.6242 -0.5749
51635SOL    HW161955  10.031   1.099   1.468 -0.0869 -0.3995  0.2199
51635SOL    HW261956  10.004   0.998   1.577  2.5935 -0.4632  0.8955
51636SOL     OW61957   6.392   9.120   4.423 -0.2112  0.2139  0.0651
51636SOL    HW161958   6.465   9.181   4.417 -0.4989  1.0159  3.2701
51636SOL    HW261959   6.321   9.171   4.461 -1.5843 -1.2856 -0.3652
51637SOL     OW61960   4.235   2.302   6.454 -0.6358 -1.0377 -0.1625
51637SOL    HW161961   4.255   2.265   6.539  0.1556 -2.9046 -1.1095
51637SOL    HW261962   4.271   2.240   6.391  3.3908  2.5448 -1.9454
51638SOL     OW61963   5.813   8.818   5.595 -0.4658 -0.2258  0.3395
51638SOL    HW161964   5.866   8.830   5.517 -1.0057 -2.5458 -0.4672
51638SOL    HW261965   5.876   8.801   5.665 -0.0501 -0.9702 -0.2027
51639SOL     OW61966   7.950  10.322  11.349  0.4090  0.1605  0.1196
51639SOL    HW161967   7.896  10.377  11.292  0.5852  0.6024  0.3809
51639SOL    HW261968   7.893  10.248  11.370 -0.2433  0.8066  0.6991
51640SOL     OW61969   8.778   6.954   8.952 -0.0099  0.7167 -0.1418
51640SOL    HW161970   8.852   7.008   8.925 -0.6643  1.6478 -0.1322
51640SOL    HW261971   8.802   6.923   9.039  2.1231 -2.3222 -1.6156
51641SOL     OW61972  10.535   5.834   9.625 -0.5154  0.0706 -0.4923
51641SOL    HW161973  10.610   5.874   9.580 -0.7787  0.8622 -0.2460
51641SOL    HW261974  10.538   5.872   9.713 -1.2786  0.1942 -0.5184
51642SOL     OW61975   1.881   7.064  10.953  1.0115 -0.2994  0.7358
51642SOL    HW161976   1.928   6.997  11.002  0.4832  0.3940  2.2214
51642SOL    HW261977   1.790   7.057  10.983  0.2737 -1.0207 -1.4321
51643SOL     OW61978   6.488  12.334   4.618 -0.7555 -0.5437  0.3337
51643SOL    HW161979   6.572  12.376   4.599 -0.3840 -1.1411  0.6414
51643SOL    HW261980   6.511  12.251   4.659 -1.4360 -1.8298 -1.7177
51644SOL     OW61981   2.794  10.043   2.953 -0.2036  0.8400 -0.0198
51644SOL    HW161982   2.890  10.047   2.947 -0.2744  0.3886 -2.4469
51644SOL    HW261983   2.776   9.958   2.993  0.3977  0.7062 -0.0127
51645SOL     OW61984   8.482  10.269  12.120  0.2879 -0.4778  0.6158
51645SOL    HW161985   8.510  10.287  12.031 -0.0507  0.8592  0.7536
51645SOL    HW261986   8.564  10.255  12.169  0.6640  1.3267  0.5929
51646SOL     OW61987  10.527   1.762   8.288  0.3382  0.0338 -0.0569
51646SOL    HW161988  10.557   1.705   8.359 -1.4705  0.5988  1.2304
51646SOL    HW261989  10.432   1.767   8.300  0.2417  1.8238 -1.2581
51647SOL     OW61990   4.298   1.206   9.256  0.0525 -0.0392  0.0203
51647SOL    HW161991   4.331   1.236   9.172  0.4861 -0.5885 -0.0098
51647SOL    HW261992   4.241   1.277   9.286  0.5964  0.5497 -0.3190
51648SOL     OW61993   8.794   8.932   9.788  0.1314  0.3887  0.1675
51648SOL    HW161994   8.768   9.012   9.833 -1.5477 -0.9010  1.6368
51648SOL    HW261995   8.721   8.911   9.731  0.3868 -0.3073  0.0855
51649SOL     OW61996  11.394   9.261   0.241  0.3442 -0.5031  0.2725
51649SOL    HW161997  11.347   9.290   0.319  0.7160 -0.4663  0.4869
51649SOL    HW261998  11.436   9.179   0.268 -0.0738 -0.8381 -0.0930
51650SOL     OW61999   0.338   0.091   5.670  0.2602  0.3397  0.1886
51650SOL    HW162000   0.274   0.020   5.671 -1.2348  1.3015 -4.3563
51650SOL    HW262001   0.305   0.155   5.732 -0.8728 -0.9761  0.9932
51651SOL     OW62002   3.125   7.196   1.026 -0.4115 -0.6110  0.1586
51651SOL    HW162003   3.068   7.120   1.036 -0.5536 -0.4750  0.3929
51651SOL    HW262004   3.214   7.160   1.030 -0.4265 -1.1330 -2.4273
51652SOL     OW62005  11.944   2.531   7.740  0.3757 -0.6666 -0.4259
51652SOL    HW162006  12.028   2.559   7.778  0.0137  1.5273 -1.1068
51652SOL    HW262007  11.949   2.561   7.649 -0.9774 -0.8873 -0.5795
51653SOL     OW62008  10.548   6.463   9.696  0.5051  0.2033  0.1420
51653SOL    HW162009  10.618   6.525   9.716  0.5434  0.5469 -0.9700
51653SOL    HW262010  10.588   6.401   9.635 -0.1609  0.4323 -0.5491
51654SOL     OW62011   8.367   8.793   2.430 -0.8166  0.6025  0.2904
51654SOL    HW162012   8.445   8.750   2.465 -0.8175  1.1471  0.9903
51654SOL    HW262013   8.298   8.776   2.494 -0.1831  3.8346  2.0337
51655SOL     OW62014  11.950   2.515   2.687 -0.1498 -0.0957  0.6181
51655SOL    HW162015  11.943   2.464   2.767 -1.4893 -0.5815  0.2104
51655SOL    HW262016  11.862   2.552   2.674  0.2921  0.7352 -0.1283
51656SOL     OW62017  12.562   9.097   6.605  0.1876 -0.2039  0.3977
51656SOL    HW162018  12.546   9.181   6.648 -2.1308  0.0634 -0.8450
51656SOL    HW262019  12.524   9.032   6.665 -0.0563 -0.1486  0.3043
51657SOL     OW62020   3.216   5.765  12.522 -0.4700 -0.3910  0.0231
51657SOL    HW162021   3.145   5.707  12.496 -1.1997 -0.2712  1.6476
51657SOL    HW262022   3.202   5.845  12.471 -1.5840 -0.3229  0.4169
51658SOL     OW62023   6.720  10.334   7.239 -0.3974  0.7996  0.0930
51658SOL    HW162024   6.762  10.263   7.189 -0.0778  1.0932 -0.0572
51658SOL    HW262025   6.753  10.323   7.328 -0.9460  0.2929  0.2459
51659SOL     OW62026  12.063   9.706   2.184  0.3350  0.7851  0.4207
51659SOL    HW162027  12.155   9.693   2.207  0.7564 -1.8500 -2.1860
51659SOL    HW262028  12.015   9.687   2.265  1.9713 -0.9670  1.0528
51660SOL     OW62029  10.932   6.038   1.705 -0.3633 -0.0329 -0.1185
51660SOL    HW162030  10.845   6.025   1.744 -0.8320 -1.1021 -1.4347
51660SOL    HW262031  10.984   6.077   1.775 -1.6405 -0.2600  1.0024
51661SOL     OW62032   5.866  10.886   9.505  0.5773 -0.4604  0.0492
51661SOL    HW162033   5.861  10.791   9.501 -1.6481 -0.4083  0.0130
51661SOL    HW262034   5.889  10.905   9.596 -1.8018 -1.0653  0.8600
51662SOL     OW62035   3.305   2.510   9.450  0.0607  0.4297 -0.3622
51662SOL    HW162036   3.339   2.473   9.368 -0.8148  0.8361 -0.9181
51662SOL    HW262037   3.270   2.435   9.498  1.9986 -0.0537  0.3753
51663SOL     OW62038   5.657   7.197   4.421 -0.3706 -0.0825  0.4850
51663SOL    HW162039   5.676   7.288   4.395 -0.1655 -0.3062 -0.1714
51663SOL    HW262040   5.725   7.176   4.485  0.3608 -0.1837 -0.3028
51664SOL     OW62041   1.701   7.136   4.519  0.0056 -0.2715  0.3220
51664SOL    HW162042   1.672   7.218   4.479 -2.0226 -0.9948  0.2333
51664SOL    HW262043   1.762   7.164   4.588 -0.6877  1.3184  0.3290
51665SOL     OW62044   7.356   3.289   7.506 -0.0161  0.0376  0.3241
51665SOL    HW162045   7.287   3.230   7.475 -1.5871  2.5843 -1.4658
51665SOL    HW262046   7.319   3.330   7.584 -0.5162  1.2462 -0.5133
51666SOL     OW62047   5.198   7.429   1.807  0.1140 -0.4507  0.2947
51666SOL    HW162048   5.111   7.467   1.826 -0.6889 -1.3054 -1.4916
51666SOL    HW262049   5.226   7.473   1.727  0.6550 -1.2667  0.0274
51667SOL     OW62050  10.991   1.957   2.352 -0.2746 -0.3126 -0.1752
51667SOL    HW162051  10.930   1.998   2.414  1.0299 -1.0379  1.6683
51667SOL    HW262052  11.061   1.921   2.407  0.8540 -1.1702 -2.0735
51668SOL     OW62053   7.103  10.447   2.818 -0.2121 -0.7858 -0.6088
51668SOL    HW162054   7.119  10.459   2.911  1.0202  1.7739 -1.0798
51668SOL    HW262055   7.014  10.411   2.813 -0.2000 -1.2157  1.5318
51669SOL     OW62056   3.555  11.406  10.257 -0.3596  0.2489  0.1213
51669SOL    HW162057   3.467  11.429  10.288 -0.5506 -1.5326  1.0001
51669SOL    HW262058   3.556  11.434  10.166 -1.9852 -0.0481 -0.0153
51670SOL     OW62059   4.875   7.626  11.281 -0.7609 -0.3101  0.4254
51670SOL    HW162060   4.952   7.682  11.290 -1.1975  0.3571  0.1709
51670SOL    HW262061   4.878   7.567  11.356 -0.3349  0.1238  0.7558
51671SOL     OW62062  11.401  10.529   9.258  0.1590  0.2110  0.4273
51671SOL    HW162063  11.447  10.467   9.200 -0.7926 -0.9684  0.8761
51671SOL    HW262064  11.433  10.615   9.232  1.7068 -0.4793 -0.0729
51672SOL     OW62065  10.087   9.705   2.923 -0.1925 -0.1144  0.3780
51672SOL    HW162066  10.047   9.707   3.009  1.3669 -0.7622  1.1595
51672SOL    HW262067  10.165   9.650   2.934  1.1357  1.4035 -0.9376
51673SOL     OW62068  12.478   8.522   6.688 -0.1293 -0.0620  0.1636
51673SOL    HW162069  12.542   8.496   6.754 -0.4075  0.6580  0.7273
51673SOL    HW262070  12.393   8.513   6.731 -0.4465 -1.2235 -0.6485
51674SOL     OW62071  12.035   1.817   0.926  0.2229 -0.6994  0.1682
51674SOL    HW162072  12.031   1.880   0.854 -2.5879 -0.8108  0.1284
51674SOL    HW262073  12.109   1.847   0.980  1.1232  0.5599 -1.6623
51675SOL     OW62074  10.351   6.923   6.611 -0.1621 -0.1395  0.1270
51675SOL    HW162075  10.263   6.957   6.630  0.4784  2.2339 -0.7966
51675SOL    HW262076  10.408   6.999   6.620  1.6734 -1.4380 -0.2032
51676SOL     OW62077   3.621   6.810   7.098 -0.3483 -0.3842 -0.1885
51676SOL    HW162078   3.527   6.822   7.086 -0.3679 -1.0836 -0.7722
51676SOL    HW262079   3.646   6.879   7.160 -1.2336 -0.1713 -0.0541
51677SOL     OW62080   1.995   8.335   0.942 -0.0118  0.0889 -0.2864
51677SOL    HW162081   2.079   8.334   0.987  0.8961 -0.5785 -1.9098
51677SOL    HW262082   1.952   8.414   0.973  1.8161  1.2137 -0.4766
51678SOL     OW62083  10.519   3.050   1.619 -0.5491  0.3919 -0.3933
51678SOL    HW162084  10.592   3.027   1.676  0.1107 -0.0623 -1.3792
51678SOL    HW262085  10.508   3.144   1.630 -0.5936  0.2743  0.6474
51679SOL     OW62086   1.178   2.409   5.961 -0.3615  1.1231 -0.1563
51679SOL    HW162087   1.094   2.454   5.970  0.4850  2.6480  0.4037
51679SOL    HW262088   1.176   2.342   6.029 -0.6307  1.9762  0.7025
51680SOL     OW62089   3.374  12.243   8.061 -0.3432  0.2067  0.2350
51680SOL    HW162090   3.289  12.220   8.024 -0.7813  1.4013  0.4579
51680SOL    HW262091   3.436  12.184   8.017 -1.0024  0.7651 -1.5451
51681SOL     OW62092   9.330   5.442   1.144  0.3629 -0.2973  0.1129
51681SOL    HW162093   9.424   5.457   1.147  0.2964  0.2118 -0.2075
51681SOL    HW262094   9.316   5.363   1.197  1.1867 -1.5066 -1.3912
51682SOL     OW62095  10.753   3.157   9.854  0.4018 -0.1702  0.2056
51682SOL    HW162096  10.783   3.201   9.775  0.8189  2.0304  1.5093
51682SOL    HW262097  10.657   3.166   9.852  0.3803 -0.4371 -0.1891
51683SOL     OW62098  11.062   1.725   3.578  0.1072  0.9298 -0.4258
51683SOL    HW162099  11.066   1.768   3.663  1.5068 -0.5986  0.3166
51683SOL    HW262100  11.042   1.634   3.597 -2.5174  1.0561 -1.9650
51684SOL     OW62101   8.199   7.191   0.031 -0.3396 -0.4079  0.3563
51684SOL    HW162102   8.284   7.235   0.031  0.3781 -1.7582 -0.2593
51684SOL    HW262103   8.144   7.245  -0.026  0.2013  0.2647  0.4591
51685SOL     OW62104   5.798   8.572  11.944  0.0450 -0.1410  0.6819
51685SOL    HW162105   5.765   8.519  12.017  0.1369  0.2195  0.9878
51685SOL    HW262106   5.744   8.651  11.946 -0.5342 -0.4965 -0.1818
51686SOL     OW62107  12.467  11.290   5.463  0.6506  0.4168  0.3056
51686SOL    HW162108  12.421  11.249   5.390 -1.1693  0.1070  1.5618
51686SOL    HW262109  12.409  11.361   5.491  1.9168  1.3483  0.6612
51687SOL     OW62110   6.648   9.314  12.242 -0.1930  1.1544  0.3916
51687SOL    HW162111   6.625   9.401  12.274  0.7063  1.6769 -0.3347
51687SOL    HW262112   6.742   9.320  12.221 -0.2393  0.1715 -0.1596
51688SOL     OW62113   1.924   3.346  12.416  0.4225 -1.5355 -0.1202
51688SOL    HW162114   2.006   3.300  12.432  0.2504 -1.6186  0.6028
51688SOL    HW262115   1.946   3.414  12.353  1.1120 -1.3802  0.2731
51689SOL     OW62116   5.654   3.535   6.210  0.2325 -0.4675  0.3782
51689SOL    HW162117   5.630   3.442   6.216 -1.7080 -0.2611 -2.4386
51689SOL    HW262118   5.579   3.577   6.170  1.5670  2.1380  0.4096
51690SOL     OW62119   3.204   8.443   3.981 -0.5123  0.1351 -0.3940
51690SOL    HW162120   3.246   8.366   3.942 -1.9890 -1.0961  0.3102
51690SOL    HW262121   3.238   8.445   4.071  1.2712  1.7134 -1.0462
51691SOL     OW62122   6.802   5.961  10.456 -0.6885 -0.0801 -0.0557
51691SOL    HW162123   6.718   5.918  10.470 -0.3406 -0.5870  0.5765
51691SOL    HW262124   6.780   6.049  10.425 -1.4880  0.3887  1.7298
51692SOL     OW62125   0.156   1.326  11.309  0.2178 -0.2399  0.5522
51692SOL    HW162126   0.118   1.238  11.304  1.0569 -0.5394 -1.0596
51692SOL    HW262127   0.081   1.383  11.327 -0.2584 -1.3127  2.2504
51693SOL     OW62128   9.662   7.508   0.214 -0.5149  0.7484  0.3360
51693SOL    HW162129   9.639   7.432   0.160  1.0613  0.6956 -0.3146
51693SOL    HW262130   9.694   7.572   0.151 -0.6119  1.4785  1.0219
51694SOL     OW62131   9.291   0.022   7.959 -0.1421  0.3922 -0.3015
51694SOL    HW162132   9.216   0.053   8.010  1.4007  0.0725  2.3828
51694SOL    HW262133   9.350   0.097   7.954 -0.5963  0.6579 -2.4352
51695SOL     OW62134   5.152   1.242   3.629  0.4816  0.3612 -0.2228
51695SOL    HW162135   5.168   1.305   3.559  0.1803 -0.3792 -0.9726
51695SOL    HW262136   5.178   1.288   3.709 -1.7891  2.2517 -0.4703
51696SOL     OW62137   6.888  10.823   3.753  0.2615  0.2056 -0.2082
51696SOL    HW162138   6.979  10.847   3.774  0.5341 -1.8675  1.2691
51696SOL    HW262139   6.878  10.846   3.661  3.0472 -1.5559 -1.0808
51697SOL     OW62140   1.181   5.106   5.747  0.1483  0.3009  0.5141
51697SOL    HW162141   1.153   5.124   5.836 -1.1521  1.7555 -0.1281
51697SOL    HW262142   1.276   5.091   5.753  0.4794  2.4640  1.8979
51698SOL     OW62143   0.188   6.622   7.250 -0.3212  0.0867  0.1243
51698SOL    HW162144   0.283   6.619   7.263 -0.1226  1.5637 -0.7671
51698SOL    HW262145   0.159   6.697   7.302 -1.1726 -0.9325  1.1825
51699SOL     OW62146   8.168  10.097   7.397 -0.6031  0.2619  0.4345
51699SOL    HW162147   8.237  10.079   7.333  1.1505 -0.1660  2.3445
51699SOL    HW262148   8.187  10.186   7.428 -2.2652  1.0143 -0.5690
51700SOL     OW62149   8.375  10.457   9.774 -0.5654  0.0428  0.0744
51700SOL    HW162150   8.463  10.440   9.739 -0.2153 -0.4945  1.1665
51700SOL    HW262151   8.343  10.371   9.801 -1.1556  0.3329  0.3129
51701SOL     OW62152   8.798   0.605   9.639 -0.3639  0.1101  0.2402
51701SOL    HW162153   8.804   0.510   9.631 -1.6716 -0.2258  2.2515
51701SOL    HW262154   8.880   0.638   9.603  0.0001 -1.7581 -0.7533
51702SOL     OW62155  12.013   3.393   7.028  0.4637  0.0318 -0.6187
51702SOL    HW162156  11.929   3.385   6.983  1.7275  0.0931 -3.1346
51702SOL    HW262157  12.048   3.477   7.001  2.1278 -0.7590 -1.0656
51703SOL     OW62158   4.895   0.423   6.913 -0.1558  0.8181  0.1913
51703SOL    HW162159   4.950   0.347   6.892  1.5458  1.9917  0.1886
51703SOL    HW262160   4.839   0.393   6.985 -0.1724 -0.7034 -0.4283
51704SOL     OW62161   2.232  12.412   6.353 -0.3556 -0.1848 -0.9018
51704SOL    HW162162   2.188  12.369   6.280  0.2677  0.4035 -1.6509
51704SOL    HW262163   2.306  12.458   6.313  2.4742 -3.0477  0.5072
51705SOL     OW62164   1.492   3.527   2.070  0.0090 -0.2571  0.5582
51705SOL    HW162165   1.513   3.445   2.115  0.1909 -0.1716  0.6326
51705SOL    HW262166   1.499   3.505   1.977  3.6966  0.5092  0.4873
51706SOL     OW62167   6.265   0.380   6.254 -0.1509  0.0284  0.2840
51706SOL    HW162168   6.247   0.423   6.337 -2.3036  0.1168 -0.1730
51706SOL    HW262169   6.249   0.288   6.270  2.6420 -0.4476  0.7702
51707SOL     OW62170   0.163   2.974   7.978  0.2383 -0.2395 -0.1319
51707SOL    HW162171   0.170   3.010   7.889 -0.8649  1.0774  0.2816
51707SOL    HW262172   0.087   2.917   7.975 -0.0457  0.1251  0.0610
51708SOL     OW62173  12.377   9.716   9.348 -0.3008  0.6351 -0.2249
51708SOL    HW162174  12.429   9.708   9.428 -0.9643  0.0594  0.1560
51708SOL    HW262175  12.433   9.766   9.288  1.3418 -1.3011 -0.3844
51709SOL     OW62176   4.303   1.422  10.635  0.4439 -0.3486 -0.3530
51709SOL    HW162177   4.292   1.513  10.607 -0.5753 -0.5088 -0.4777
51709SOL    HW262178   4.362   1.384  10.570  1.7795  0.4913  0.2961
51710SOL     OW62179   3.745   5.253   1.972 -0.7022  0.0785 -0.4828
51710SOL    HW162180   3.816   5.193   1.994 -1.0386 -0.2842 -0.3759
51710SOL    HW262181   3.750   5.322   2.038 -0.3309  0.1567 -0.5904
51711SOL     OW62182   0.422  11.604   2.208 -0.3990  0.6221 -0.2006
51711SOL    HW162183   0.455  11.644   2.128  1.9994 -0.2023  0.2934
51711SOL    HW262184   0.411  11.512   2.185  0.2451  0.3929  0.3713
51712SOL     OW62185   1.614   9.114   4.956 -0.1749  0.9991 -0.0279
51712SOL    HW162186   1.660   9.147   5.032 -0.8268  2.0497 -0.0788
51712SOL    HW262187   1.678   9.120   4.885  0.1781  0.7543  0.2637
51713SOL     OW62188  11.171  11.664   2.442 -0.3941  0.6673 -0.0307
51713SOL    HW162189  11.196  11.682   2.351  0.2555 -0.2202 -0.0456
51713SOL    HW262190  11.093  11.717   2.456 -2.1732 -1.2235 -1.9819
51714SOL     OW62191   9.847   1.038   4.831 -0.1742  0.5510  0.0234
51714SOL    HW162192   9.886   1.104   4.889  2.1115 -0.0215 -0.7527
51714SOL    HW262193   9.814   1.089   4.757 -2.1704  1.1779  1.2634
51715SOL     OW62194  10.223   7.144  10.765  0.1222 -0.0889  0.7027
51715SOL    HW162195  10.313   7.138  10.797  0.1387 -0.0765  0.6604
51715SOL    HW262196  10.232   7.169  10.673  0.0580  0.5532  0.8647
51716SOL     OW62197   5.773   2.609   4.425  0.2334  0.6150  0.1012
51716SOL    HW162198   5.736   2.521   4.420 -1.2749  1.2020  0.3085
51716SOL    HW262199   5.810   2.625   4.338 -1.7790  0.7046 -0.7964
51717SOL     OW62200  10.863   5.196   7.215 -0.2162  0.0717 -0.2118
51717SOL    HW162201  10.925   5.183   7.143  1.3945  1.3049  0.8711
51717SOL    HW262202  10.814   5.114   7.221  2.6020 -1.7152  0.0652
51718SOL     OW62203   7.189   9.213   5.671  0.3003  0.2558 -0.6802
51718SOL    HW162204   7.219   9.128   5.706 -1.2389 -0.5369 -1.1893
51718SOL    HW262205   7.265   9.270   5.679  1.2865 -1.0849 -0.0213
51719SOL     OW62206   9.526  12.338   9.435  0.1765  0.1215  0.0087
51719SOL    HW162207   9.443  12.383   9.451 -0.9072 -1.3645 -1.1256
51719SOL    HW262208   9.511  12.248   9.465  1.4228 -0.1399 -0.1017
51720SOL     OW62209   5.780  11.374  10.103  0.1959  0.0116  0.4365
51720SOL    HW162210   5.773  11.459  10.146  0.1265 -0.5799  1.6216
51720SOL    HW262211   5.850  11.329  10.150 -0.0071 -0.7265  0.0490
51721SOL     OW62212   0.854   1.575   1.556  0.1497 -0.5676  0.0246
51721SOL    HW162213   0.839   1.515   1.629  1.9620 -0.4500  0.5468
51721SOL    HW262214   0.790   1.645   1.567 -2.7072 -2.7685 -1.1319
51722SOL     OW62215  12.316   2.388   1.539 -0.1180  0.6103 -0.0187
51722SOL    HW162216  12.340   2.461   1.595 -0.8726  1.2121 -0.4591
51722SOL    HW262217  12.367   2.401   1.459 -2.9432  2.8529 -1.6584
51723SOL     OW62218   2.799  11.818   2.495  0.5191  0.0988 -0.3513
51723SOL    HW162219   2.832  11.810   2.585  1.6073  0.0397 -0.7408
51723SOL    HW262220   2.713  11.776   2.498  0.1384  0.8883  0.8641
51724SOL     OW62221   7.226   0.363   7.577  0.5227  0.6658  0.6443
51724SOL    HW162222   7.252   0.291   7.519 -0.2195  1.4608 -0.7016
51724SOL    HW262223   7.153   0.327   7.628 -0.7401  0.8544 -0.9672
51725SOL     OW62224  10.063   9.423   6.434  0.6968  0.6713 -0.4529
51725SOL    HW162225  10.115   9.452   6.360 -0.3053  0.8928 -1.0910
51725SOL    HW262226  10.117   9.441   6.511  0.3585  3.7909 -0.8372
51726SOL     OW62227   1.860  10.973   4.404 -0.0102  0.1782  0.0573
51726SOL    HW162228   1.903  11.054   4.376  0.7428  0.4502  1.8783
51726SOL    HW262229   1.791  10.959   4.339 -0.0976  2.2236 -0.3564
51727SOL     OW62230   9.557   3.534   4.897 -0.4737  0.0033 -0.5477
51727SOL    HW162231   9.600   3.582   4.969  1.0995  0.8998 -2.0066
51727SOL    HW262232   9.469   3.517   4.930 -0.0793  1.1097  1.2790
51728SOL     OW62233   0.010   6.876   9.734  0.4120  0.0491  0.4688
51728SOL    HW162234  -0.007   6.804   9.795 -0.6863  0.9939  1.3181
51728SOL    HW262235   0.032   6.833   9.651 -0.7346 -1.2656  0.8176
51729SOL     OW62236   6.598   1.594   6.791  0.2440  0.2755 -0.1652
51729SOL    HW162237   6.530   1.554   6.738  0.3737  1.6870 -1.4433
51729SOL    HW262238   6.589   1.551   6.877 -1.5184 -0.3363 -0.6096
51730SOL     OW62239   9.773   9.758   6.794  0.8910 -0.9522  0.1531
51730SOL    HW162240   9.794   9.782   6.704  0.3653  1.0219  0.4962
51730SOL    HW262241   9.850   9.710   6.825  1.4816 -0.8143 -1.0457
51731SOL     OW62242   5.642   9.027  11.360  0.2342 -0.0112  0.2825
51731SOL    HW162243   5.683   9.063  11.438  0.2982 -0.3496  0.4068
51731SOL    HW262244   5.675   9.081  11.288  1.2057 -0.5186  0.3329
51732SOL     OW62245   8.899   7.894   1.177 -0.0856 -0.1540  0.4099
51732SOL    HW162246   8.909   7.876   1.271 -2.8938 -2.3379  0.4459
51732SOL    HW262247   8.864   7.812   1.141  1.5795  0.3765 -2.7382
51733SOL     OW62248   4.671   6.789   4.666 -0.1160  0.9164  0.4491
51733SOL    HW162249   4.720   6.855   4.617 -0.0736 -0.3788 -1.4037
51733SOL    HW262250   4.593   6.835   4.698  0.0119  1.9290 -0.6108
51734SOL     OW62251   3.938  10.714   2.306 -0.0634 -0.6561 -0.8456
51734SOL    HW162252   3.884  10.709   2.226 -0.6101  0.9949 -0.6134
51734SOL    HW262253   3.968  10.804   2.309  1.2502 -1.0949  0.0175
51735SOL     OW62254   2.000  11.093   7.924  0.0139 -0.0157  0.5701
51735SOL    HW162255   2.005  11.182   7.958  0.7624 -0.1487  0.8302
51735SOL    HW262256   2.046  11.040   7.989  0.1010 -0.5023  0.1209
51736SOL     OW62257   7.167   5.199   5.927 -0.4418  0.0308 -0.1565
51736SOL    HW162258   7.132   5.112   5.906  2.4916 -1.0197 -1.1785
51736SOL    HW262259   7.234   5.183   5.993 -0.4209  1.6484  0.2589
51737SOL     OW62260   4.966   8.829   0.322  0.1585 -0.3968  0.3539
51737SOL    HW162261   4.904   8.828   0.249 -1.6024 -3.4068  1.6977
51737SOL    HW262262   5.035   8.889   0.294 -3.9899  4.6678 -0.6392
51738SOL     OW62263   1.208   4.683   1.517  0.7587 -0.7316  0.5853
51738SOL    HW162264   1.190   4.589   1.513 -0.5775 -0.5526  1.5610
51738SOL    HW262265   1.255   4.694   1.600  0.3052 -0.4554  0.8054
51739SOL     OW62266  10.726   5.035   9.488 -0.4195 -0.2048 -0.4194
51739SOL    HW162267  10.714   5.098   9.559  0.1850 -1.1657  0.5589
51739SOL    HW262268  10.655   5.055   9.427 -2.4560 -0.8678  1.5712
51740SOL     OW62269   3.058   6.150   2.176  0.2081 -0.2117 -0.4975
51740SOL    HW162270   3.100   6.234   2.197 -0.9874  0.1358  0.6144
51740SOL    HW262271   3.125   6.102   2.128  1.4582  0.7918  0.1627
51741SOL     OW62272   6.358   0.706   5.745 -0.2479  0.2061 -0.1018
51741SOL    HW162273   6.332   0.630   5.692 -2.6705  2.0285 -1.7244
51741SOL    HW262274   6.450   0.721   5.721  0.0016 -1.6186 -0.4583
51742SOL     OW62275   1.078   2.668  12.003  0.4420  0.0545  0.0188
51742SOL    HW162276   1.065   2.573  12.007 -1.2770  0.1896 -1.1046
51742SOL    HW262277   1.173   2.679  11.999  0.6540 -1.6522 -0.6554
51743SOL     OW62278   9.757   8.462   1.414 -0.3178  0.4145 -0.3922
51743SOL    HW162279   9.783   8.407   1.340  0.5446  1.2245 -0.7251
51743SOL    HW262280   9.773   8.552   1.382 -0.7935  0.8075  0.4585
51744SOL     OW62281   6.068   2.145   4.197 -1.0707  0.1707 -0.1886
51744SOL    HW162282   6.079   2.059   4.237 -1.5413  0.1924 -0.0051
51744SOL    HW262283   6.130   2.145   4.124 -2.2186 -0.9770 -1.2336
51745SOL     OW62284   0.765   5.209   1.470  0.7224 -0.1167  0.2510
51745SOL    HW162285   0.724   5.149   1.534 -0.0510 -1.0625 -1.0873
51745SOL    HW262286   0.806   5.151   1.406 -0.1890  0.7656 -1.1869
51746SOL     OW62287   3.815   7.810   8.912  0.0627 -0.0882  0.0204
51746SOL    HW162288   3.853   7.895   8.891  0.9189 -0.4025  0.2193
51746SOL    HW262289   3.741   7.829   8.969 -1.0899  0.6542 -1.6405
51747SOL     OW62290  12.574  12.145   3.448  0.0045  0.2483 -0.3809
51747SOL    HW162291  12.515  12.220   3.441 -3.4844 -2.2733 -0.5567
51747SOL    HW262292  12.610  12.133   3.360  0.1332  1.3163 -0.4807
51748SOL     OW62293   4.545   2.162   5.400  0.1544  0.0650  0.0586
51748SOL    HW162294   4.463   2.159   5.352  0.9914  0.2223 -1.4385
51748SOL    HW262295   4.529   2.222   5.473 -0.3920  1.9593 -1.5471
51749SOL     OW62296  11.198   3.293   7.521 -0.3194 -0.2353 -0.3742
51749SOL    HW162297  11.205   3.378   7.478 -1.2834 -1.1541 -2.4719
51749SOL    HW262298  11.289   3.265   7.534  0.0008  0.5117 -0.9510
51750SOL     OW62299   8.748   5.167   1.564 -0.6544  0.0046  0.6659
51750SOL    HW162300   8.684   5.237   1.550 -0.0846  0.5320  0.6711
51750SOL    HW262301   8.798   5.195   1.640  0.9527  0.6310 -0.5683
51751SOL     OW62302  11.155  11.506   9.521 -0.2665  0.4377 -0.6629
51751SOL    HW162303  11.069  11.526   9.483  0.0008  0.5505 -1.2199
51751SOL    HW262304  11.147  11.415   9.550 -1.0604  0.9166  0.6855
51752SOL     OW62305   3.845  11.501  11.992  0.8034 -0.3653  0.2108
51752SOL    HW162306   3.828  11.473  12.082  0.6505  0.2348  0.3738
51752SOL    HW262307   3.853  11.419  11.942 -0.1642 -0.7011  0.5782
51753SOL     OW62308  11.034   6.675   5.889  0.1244 -1.0603  0.4541
51753SOL    HW162309  11.090   6.612   5.936 -0.6818 -0.7800  1.8677
51753SOL    HW262310  11.027   6.750   5.949  0.2396 -0.0461 -0.7687
51754SOL     OW62311   9.598   9.676   2.876 -0.4593 -0.2939 -0.1436
51754SOL    HW162312   9.569   9.594   2.917 -0.7307 -0.4015 -0.5492
51754SOL    HW262313   9.623   9.731   2.950 -1.3364 -0.3422  0.2030
51755SOL     OW62314   3.529   2.721  11.275  0.0560 -0.0741 -0.4255
51755SOL    HW162315   3.619   2.725  11.308 -0.3401  1.1335  0.5749
51755SOL    HW262316   3.523   2.794  11.214 -1.2317  2.2450  2.2389
51756SOL     OW62317  11.234   3.991   8.821 -0.1020  0.4049 -0.2744
51756SOL    HW162318  11.308   4.049   8.808 -0.0323  0.1809 -0.9206
51756SOL    HW262319  11.165   4.027   8.765 -0.0423 -0.1545 -0.7178
51757SOL     OW62320   4.456   8.841   7.792  0.0715  0.4186  0.3052
51757SOL    HW162321   4.544   8.871   7.812  0.5417 -0.5444 -0.2521
51757SOL    HW262322   4.449   8.847   7.697 -1.3030  2.7003  0.4837
51758SOL     OW62323   7.327   6.095   3.652 -0.3826 -0.0977 -0.2684
51758SOL    HW162324   7.339   6.003   3.627 -2.4092 -0.6309  0.5175
51758SOL    HW262325   7.383   6.144   3.592 -1.4939 -1.6222 -2.6727
51759SOL     OW62326   1.807   4.573   6.642 -0.1099 -0.1912 -0.8778
51759SOL    HW162327   1.751   4.505   6.679 -0.4122  0.4905 -0.0668
51759SOL    HW262328   1.845   4.618   6.717  1.0742 -0.2554 -1.4132
51760SOL     OW62329  10.239   2.433  11.606 -0.1090  0.1554  0.0516
51760SOL    HW162330  10.272   2.405  11.521 -1.3741  3.0147 -1.5481
51760SOL    HW262331  10.144   2.443  11.592 -0.4434  0.0314  2.0075
51761SOL     OW62332   2.170   5.092  11.157 -0.5996 -0.1684  0.1377
51761SOL    HW162333   2.177   5.137  11.073 -2.6087  0.5576  0.2944
51761SOL    HW262334   2.195   5.002  11.137 -1.2031 -0.0540 -1.3060
51762SOL     OW62335   3.656  12.016  10.686 -0.1651 -0.4070  0.3020
51762SOL    HW162336   3.710  12.093  10.671  1.3325 -1.0184  2.0994
51762SOL    HW262337   3.699  11.946  10.638  0.8076 -0.9265  1.8460
51763SOL     OW62338   9.522   5.987  10.479 -0.2284  0.3750  0.2575
51763SOL    HW162339   9.509   5.941  10.396  0.9858 -1.6821  1.1371
51763SOL    HW262340   9.579   6.061  10.457 -0.1228  0.0027 -0.7851
51764SOL     OW62341   4.374   1.345   8.635  0.2016  0.3380 -0.1867
51764SOL    HW162342   4.279   1.346   8.628  0.2215  1.7618 -0.5985
51764SOL    HW262343   4.394   1.261   8.677 -1.1020 -0.8573 -1.7735
51765SOL     OW62344   1.272   2.615   2.800 -0.3971 -0.7722 -1.0547
51765SOL    HW162345   1.276   2.560   2.722  0.8874 -1.3135 -0.6333
51765SOL    HW262346   1.363   2.626   2.826 -0.8300 -1.1780  0.7834
51766SOL     OW62347  10.544   9.897   6.102  0.2283 -0.4093  0.1180
51766SOL    HW162348  10.496   9.940   6.031  0.3322  0.6764  0.6840
51766SOL    HW262349  10.556   9.807   6.071  1.1212  0.2657 -1.6832
51767SOL     OW62350  11.085   1.509   5.117 -0.5432 -0.2680  0.4887
51767SOL    HW162351  11.023   1.475   5.053  1.7155 -0.3611 -1.8074
51767SOL    HW262352  11.146   1.437   5.131  0.6613  0.7289  0.5039
51768SOL     OW62353   7.634   6.297  10.870 -0.6515 -0.0589 -0.4104
51768SOL    HW162354   7.656   6.347  10.791 -1.2891 -0.0552 -0.5917
51768SOL    HW262355   7.629   6.362  10.940 -1.0325  0.0752 -0.5591
51769SOL     OW62356   8.402   1.232  12.455  0.4333  0.3490 -0.0440
51769SOL    HW162357   8.406   1.141  12.483  0.4324  1.1514  2.9180
51769SOL    HW262358   8.493   1.255  12.437  0.8960  0.5158  2.1951
51770SOL     OW62359   9.510   4.805   8.453  0.0385  0.2155 -0.1460
51770SOL    HW162360   9.557   4.795   8.536  1.1080 -1.2207 -0.8879
51770SOL    HW262361   9.576   4.835   8.391 -0.5336  0.3119 -0.7169
51771SOL     OW62362   6.699   1.803   6.185 -0.1411  0.0652 -0.1404
51771SOL    HW162363   6.674   1.719   6.147 -0.3466 -0.7601  1.6799
51771SOL    HW262364   6.779   1.829   6.138 -0.2287 -1.0092 -0.9026
51772SOL     OW62365   3.286   3.096   5.558  0.3566 -0.0620 -0.0395
51772SOL    HW162366   3.217   3.069   5.497 -0.1807  0.1226  0.4645
51772SOL    HW262367   3.367   3.062   5.520 -0.3328 -3.4008  1.0708
51773SOL     OW62368   4.380   7.726   2.385  0.4848 -0.0643  0.0857
51773SOL    HW162369   4.299   7.692   2.424 -0.3989  1.2391 -0.5197
51773SOL    HW262370   4.446   7.659   2.403 -0.9026 -1.5352 -0.0928
51774SOL     OW62371   9.614  10.970  11.967  0.0674  0.1223  0.1575
51774SOL    HW162372   9.680  11.037  11.984  0.0595  0.3616 -0.7098
51774SOL    HW262373   9.660  10.887  11.980  0.1019  0.2828  1.1437
51775SOL     OW62374  10.196   1.489   9.273 -0.6262 -0.2447  0.0250
51775SOL    HW162375  10.165   1.578   9.258 -1.1728 -0.7043 -1.8033
51775SOL    HW262376  10.197   1.448   9.186  0.6886 -1.6840  0.6533
51776SOL     OW62377  11.728   0.806  10.597  0.6549  0.2429  0.2296
51776SOL    HW162378  11.779   0.834  10.673  0.9130 -1.8290  0.8672
51776SOL    HW262379  11.658   0.753  10.633 -1.3699  2.1074 -0.7455
51777SOL     OW62380   4.075   7.172   0.868 -0.0483 -0.5631 -0.2503
51777SOL    HW162381   4.134   7.102   0.896  0.5203 -0.0481 -0.1277
51777SOL    HW262382   4.019   7.131   0.802 -1.2256 -1.7208  1.3826
51778SOL     OW62383   0.258   5.828  11.262  0.1243  0.1147  0.4550
51778SOL    HW162384   0.238   5.916  11.230 -2.1894 -0.4089  0.2676
51778SOL    HW262385   0.251   5.836  11.357 -1.4880 -0.1057  0.3908
51779SOL     OW62386   2.564   5.383  10.992  0.2078  0.2537 -0.5200
51779SOL    HW162387   2.553   5.473  11.024 -0.3753  0.3050 -0.8499
51779SOL    HW262388   2.512   5.380  10.912 -0.9964 -0.8021  0.2693
51780SOL     OW62389  10.112   0.542   5.453 -0.5626 -0.2803 -0.2475
51780SOL    HW162390  10.129   0.512   5.542 -1.8691 -0.5868 -0.0870
51780SOL    HW262391  10.097   0.636   5.461 -0.4589 -0.2699 -0.1767
51781SOL     OW62392  12.467   3.686  10.188 -0.1897 -0.6937 -0.0638
51781SOL    HW162393  12.495   3.601  10.221  0.8606 -0.1167  0.5824
51781SOL    HW262394  12.540   3.745  10.207 -1.7609  0.8674  1.5814
51782SOL     OW62395   3.899   4.420  12.038 -0.1184  0.0683  0.0136
51782SOL    HW162396   3.877   4.334  12.001 -0.1519  0.4462 -0.8702
51782SOL    HW262397   3.817   4.450  12.077 -0.0172 -0.4545  0.6380
51783SOL     OW62398  11.728  11.153   8.744 -0.2584  0.4584  0.4458
51783SOL    HW162399  11.662  11.214   8.777 -2.0603 -0.0488 -1.8894
51783SOL    HW262400  11.736  11.176   8.651  0.3495 -1.6682 -0.0861
51784SOL     OW62401   5.928  11.413  12.505 -0.3213 -0.1671 -0.9096
51784SOL    HW162402   6.005  11.435  12.453 -0.4037  2.8891  0.0897
51784SOL    HW262403   5.867  11.485  12.488 -1.9260 -1.1687  0.3594
51785SOL     OW62404   8.775   8.308  10.922  0.2627  0.2197 -0.0703
51785SOL    HW162405   8.840   8.238  10.927  1.4920  1.3931  1.5975
51785SOL    HW262406   8.693   8.267  10.949  1.1569 -0.4193  1.8501
51786SOL     OW62407   3.157  11.692   3.869 -0.3900  0.6210 -0.2992
51786SOL    HW162408   3.131  11.759   3.932 -1.2327 -0.0829  0.1196
51786SOL    HW262409   3.091  11.697   3.800  1.0151  1.9996 -1.6373
51787SOL     OW62410   3.417   9.422   6.054  0.5969 -0.0579 -0.3671
51787SOL    HW162411   3.347   9.451   6.113  0.1002  1.3613 -1.6175
51787SOL    HW262412   3.416   9.327   6.062 -1.0317 -0.0304  0.1464
51788SOL     OW62413   2.831   9.828   8.298  0.4300  0.0953  0.4639
51788SOL    HW162414   2.925   9.839   8.313  0.2910  0.1977  1.2851
51788SOL    HW262415   2.824   9.815   8.204  1.2415  0.3622  0.3557
51789SOL     OW62416   9.230   1.470  11.795  0.3876 -0.2208 -0.3304
51789SOL    HW162417   9.233   1.375  11.803  0.4530 -0.1254  1.0454
51789SOL    HW262418   9.206   1.501  11.883 -0.7292  0.9872 -1.0206
51790SOL     OW62419   2.439   0.791  10.073 -0.4493  0.1029  0.5512
51790SOL    HW162420   2.488   0.825  10.147 -0.7284  0.6097  0.5051
51790SOL    HW262421   2.374   0.859  10.053 -1.1955 -0.5668  0.6391
51791SOL     OW62422  11.409  10.457   6.588 -0.2000 -0.3050  0.5192
51791SOL    HW162423  11.486  10.411   6.554  0.2179  2.2016 -2.3967
51791SOL    HW262424  11.334  10.411   6.551  0.0713 -0.4742  0.1797
51792SOL     OW62425   4.659   7.852   9.729  0.0691 -0.3911  0.2518
51792SOL    HW162426   4.564   7.851   9.721 -0.0531 -0.7102  1.4799
51792SOL    HW262427   4.685   7.937   9.694 -0.5246 -0.8319 -1.3365
51793SOL     OW62428   0.591  12.404   4.213  0.1950  0.1433 -0.3779
51793SOL    HW162429   0.620  12.454   4.289 -0.4900 -0.2929  0.1921
51793SOL    HW262430   0.496  12.396   4.225  0.4774 -3.2633  0.8254
51794SOL     OW62431   9.336   1.878   2.082 -0.4166 -0.7561 -0.6244
51794SOL    HW162432   9.277   1.804   2.071 -2.7040  1.1559 -2.0853
51794SOL    HW262433   9.291   1.936   2.143  0.5922  0.1237 -0.6884
51795SOL     OW62434   9.576   7.100   0.163 -0.6642 -0.6191  0.3016
51795SOL    HW162435   9.655   7.093   0.217 -0.9683 -1.5501  0.6352
51795SOL    HW262436   9.590   7.179   0.111 -1.0534  1.2500  2.8481
51796SOL     OW62437   2.019   0.018  11.106  0.3723  0.5099  0.0869
51796SOL    HW162438   2.061   0.103  11.089  1.1349  0.1786  0.2466
51796SOL    HW262439   2.079  -0.026  11.167 -0.8016  0.4827  1.2540
51797SOL     OW62440   8.139   5.221   3.205 -0.7624 -0.5759 -0.3256
51797SOL    HW162441   8.107   5.144   3.253 -0.2301 -0.4112  0.3136
51797SOL    HW262442   8.117   5.295   3.261 -0.9143 -0.2988 -0.7514
51798SOL     OW62443   0.144   3.146   4.936 -0.1734  0.2013  0.6753
51798SOL    HW162444   0.171   3.055   4.923 -0.7761  0.1255 -0.1370
51798SOL    HW262445   0.170   3.166   5.026 -1.2637 -1.2118  1.3469
51799SOL     OW62446  10.378   5.560  10.902 -0.0282 -0.0307 -0.0725
51799SOL    HW162447  10.374   5.495  10.972  0.8597  0.4539  0.4488
51799SOL    HW262448  10.397   5.643  10.946 -0.1489  0.4112 -0.8194
51800SOL     OW62449   9.312  10.012   8.084 -0.1360  0.3170  0.1473
51800SOL    HW162450   9.336  10.102   8.106 -0.6765  0.1877  1.3191
51800SOL    HW262451   9.368   9.958   8.140  0.8092 -0.1265 -1.1650
51801SOL     OW62452   1.862   7.939   1.162 -0.2430 -0.7651 -0.3509
51801SOL    HW162453   1.803   7.882   1.211 -1.1220 -0.6649 -1.2732
51801SOL    HW262454   1.823   8.026   1.167  0.2268 -0.5508 -0.3254
51802SOL     OW62455   3.351  11.944   5.999  0.4917  0.6520 -0.4093
51802SOL    HW162456   3.309  12.019   5.958  0.4003 -0.3138 -2.1984
51802SOL    HW262457   3.410  11.909   5.931 -0.2304 -1.4818 -0.0197
51803SOL     OW62458  12.512  12.199   3.967  0.3582 -0.4282 -0.1955
51803SOL    HW162459  12.420  12.224   3.977  0.8594  1.8290 -0.5356
51803SOL    HW262460  12.515  12.107   3.992 -1.8076 -0.2785  0.8691
51804SOL     OW62461   1.104  11.638   2.623  0.1248 -0.1707  0.2181
51804SOL    HW162462   1.129  11.613   2.534  0.1013 -0.4312  0.2845
51804SOL    HW262463   1.076  11.556   2.664  2.4060 -0.5283  1.2209
51805SOL     OW62464   4.837  10.040   6.021 -0.4630  0.3529  0.2334
51805SOL    HW162465   4.826   9.946   6.035  1.0584 -0.4411 -3.0807
51805SOL    HW262466   4.750  10.076   6.035 -1.8352 -2.0202 -1.4541
51806SOL     OW62467   6.863  11.386   7.343  0.0348 -0.1028 -0.1107
51806SOL    HW162468   6.903  11.308   7.382  1.0904 -0.5294 -1.9382
51806SOL    HW262469   6.803  11.350   7.277 -0.3790  0.6352 -0.1443
51807SOL     OW62470   8.654   5.429   6.257 -0.3479  0.6076  0.9793
51807SOL    HW162471   8.588   5.493   6.286  0.7230  1.3271  1.9453
51807SOL    HW262472   8.730   5.483   6.234 -0.4378 -0.1224 -1.1678
51808SOL     OW62473  11.675   6.641   3.269 -0.6201 -0.8632  0.1059
51808SOL    HW162474  11.770   6.649   3.276 -0.6659  0.0128 -0.1498
51808SOL    HW262475  11.648   6.599   3.351  0.0139 -1.3746  0.0570
51809SOL     OW62476  11.177  12.188   4.662 -0.1208  0.1001 -0.2497
51809SOL    HW162477  11.184  12.212   4.570 -0.3720  2.9649  0.3809
51809SOL    HW262478  11.087  12.158   4.672  1.4325 -6.8830 -2.1082
51810SOL     OW62479   0.512   0.369   0.349 -0.0128  0.0541  0.3179
51810SOL    HW162480   0.504   0.423   0.270  0.5276 -0.3686 -0.0314
51810SOL    HW262481   0.576   0.416   0.404 -0.9466  0.7441  0.8525
51811SOL     OW62482   0.833  10.114  11.496 -0.0313  0.6366 -0.2142
51811SOL    HW162483   0.810  10.177  11.564  0.5955  0.5316  0.0978
51811SOL    HW262484   0.768  10.045  11.504 -1.7495  1.9913 -1.6133
51812SOL     OW62485  12.570   5.624   4.960  0.5188  0.3737 -0.6282
51812SOL    HW162486  12.595   5.533   4.947 -0.1074  0.1461 -0.2430
51812SOL    HW262487  12.490   5.621   5.011  0.2489  1.1288 -0.9796
51813SOL     OW62488   5.261   9.795   3.960  0.1276 -0.4882  0.0406
51813SOL    HW162489   5.331   9.856   3.935  0.7900 -1.9333 -1.9365
51813SOL    HW262490   5.298   9.744   4.031 -0.3139  1.1217  1.4931
51814SOL     OW62491   2.950   3.044  11.494  0.3450 -0.2892 -0.1846
51814SOL    HW162492   2.941   2.959  11.452  0.1105 -1.2317  1.6530
51814SOL    HW262493   2.868   3.055  11.542 -0.6618  2.1016 -2.2429
51815SOL     OW62494   3.486   1.213   1.124  0.1215  0.3156  0.0301
51815SOL    HW162495   3.421   1.281   1.103 -0.6365 -0.4671 -0.2303
51815SOL    HW262496   3.542   1.209   1.046  0.1050  0.5636  0.0032
51816SOL     OW62497   7.179   1.723   1.110 -0.0915 -0.0245  0.1505
51816SOL    HW162498   7.102   1.675   1.078  0.3413  0.1257 -1.1804
51816SOL    HW262499   7.253   1.668   1.086  0.2944  0.4713  0.1893
51817SOL     OW62500   0.539   3.030  11.261 -0.0161  0.1889  0.4117
51817SOL    HW162501   0.469   2.989  11.310  1.8956 -2.5179  1.1121
51817SOL    HW262502   0.527   2.999  11.171  0.3880 -0.4489  0.5749
51818SOL     OW62503  12.425  12.500  10.758  0.5773 -0.0807 -0.4158
51818SOL    HW162504  12.400  12.459  10.675  0.4416  0.4081 -0.6186
51818SOL    HW262505  12.347  12.494  10.813  0.2096  0.8246 -0.8090
51819SOL     OW62506   1.730  11.441   5.816 -0.2952 -0.0217  0.5620
51819SOL    HW162507   1.687  11.390   5.885  0.8071 -1.1875  0.4089
51819SOL    HW262508   1.794  11.495   5.864 -0.7531  0.4929  0.6129
51820SOL     OW62509   3.565   5.541  10.943 -0.4430 -0.3588  0.5843
51820SOL    HW162510   3.594   5.595  11.016 -0.7663 -0.2706  0.6508
51820SOL    HW262511   3.518   5.468  10.984  1.1425 -1.4191  0.5635
51821SOL     OW62512   1.585   7.151  11.372 -0.3516  0.5242 -0.5496
51821SOL    HW162513   1.658   7.166  11.432 -0.2959  0.7129 -0.6656
51821SOL    HW262514   1.557   7.238  11.345 -1.4999  0.5243  0.5332
51822SOL     OW62515   6.876  10.669   2.967  0.0673  0.3181  0.1435
51822SOL    HW162516   6.871  10.725   2.890  1.0478 -0.2903 -0.3841
51822SOL    HW262517   6.948  10.608   2.948 -0.0206 -0.1800  1.3116
51823SOL     OW62518  11.154  11.795   3.675 -0.2043 -0.2906 -0.0862
51823SOL    HW162519  11.068  11.789   3.633 -0.2604  1.5034 -0.2810
51823SOL    HW262520  11.146  11.867   3.737  1.4606  0.6585 -0.8987
51824SOL     OW62521   0.805  12.204   5.174  0.0332 -0.1201  0.3175
51824SOL    HW162522   0.785  12.120   5.132 -0.7988 -1.3313  2.9238
51824SOL    HW262523   0.830  12.261   5.102  2.7318 -3.1510 -1.4135
51825SOL     OW62524   3.045   3.434  11.235  0.2941 -0.4450 -0.0786
51825SOL    HW162525   3.028   3.497  11.165 -2.0790 -2.8863 -1.8787
51825SOL    HW262526   3.024   3.481  11.315 -1.9939  0.9279 -1.3839
51826SOL     OW62527   6.275   3.557   7.075  0.3739  0.7245  0.1569
51826SOL    HW162528   6.235   3.635   7.036 -0.3220  1.0871  1.5330
51826SOL    HW262529   6.356   3.545   7.026 -0.0842  1.6158 -0.8624
51827SOL     OW62530   0.448  10.863   4.293  0.5946 -0.1792 -0.1131
51827SOL    HW162531   0.393  10.916   4.352  0.9262  0.0015  0.0384
51827SOL    HW262532   0.536  10.868   4.332  0.6868 -0.5918 -0.2683
51828SOL     OW62533  10.622   1.137   3.997 -0.0775 -0.0418 -0.1552
51828SOL    HW162534  10.692   1.104   4.054 -1.2243 -0.0789  1.2994
51828SOL    HW262535  10.663   1.208   3.947  0.7656  0.6255  1.4140
51829SOL     OW62536   6.836   9.719   4.783  0.3228  0.0989  0.0675
51829SOL    HW162537   6.778   9.748   4.713 -0.8784 -0.5944  0.7557
51829SOL    HW262538   6.794   9.642   4.819  1.7930 -0.5660  0.4524
51830SOL     OW62539   8.804   6.490  10.602 -0.7277  0.7978 -0.5661
51830SOL    HW162540   8.849   6.503  10.519 -0.0807  0.8747 -0.2076
51830SOL    HW262541   8.852   6.544  10.665  0.0747 -0.8450  0.2973
51831SOL     OW62542   2.870   0.501   3.457 -0.1473 -0.3660  0.0410
51831SOL    HW162543   2.781   0.483   3.428 -0.7501  0.9191  0.9985
51831SOL    HW262544   2.886   0.436   3.526 -0.4695 -0.3944  0.0907
51832SOL     OW62545  10.772  11.431   6.756 -0.3665  0.0718  0.1525
51832SOL    HW162546  10.714  11.462   6.686  2.3553  0.9939 -1.8628
51832SOL    HW262547  10.824  11.362   6.715  0.6396 -0.0742  1.5889
51833SOL     OW62548   7.543   1.671   9.201  0.7702  0.2993 -0.3990
51833SOL    HW162549   7.539   1.727   9.124 -0.9730  1.2512  0.3055
51833SOL    HW262550   7.492   1.594   9.178  0.7549  0.3113 -0.4054
51834SOL     OW62551  12.249   0.854   4.926 -0.4966  0.0143  0.0198
51834SOL    HW162552  12.248   0.909   4.848  0.5315  1.4329  0.9476
51834SOL    HW262553  12.331   0.877   4.970  0.5280 -3.0536 -0.0552
51835SOL     OW62554   7.431   0.572  11.481 -0.3106 -0.3001  0.1627
51835SOL    HW162555   7.475   0.490  11.501 -0.0720  0.1336  1.4944
51835SOL    HW262556   7.351   0.571  11.533  0.0114  0.5848  0.7078
51836SOL     OW62557   8.304   5.947   6.765 -0.8324 -0.3335 -0.0968
51836SOL    HW162558   8.387   5.910   6.737 -1.1267  0.2912 -1.9442
51836SOL    HW262559   8.321   6.041   6.773 -0.6900 -0.4827  2.2812
51837SOL     OW62560   3.071  11.194   3.681  0.5466  0.1417  0.3909
51837SOL    HW162561   3.029  11.153   3.757  0.8514  0.7732  0.9100
51837SOL    HW262562   3.126  11.262   3.718 -0.7472  1.7552 -0.5019
51838SOL     OW62563   5.436   3.139   5.591  0.5730 -0.1000  0.0894
51838SOL    HW162564   5.501   3.081   5.551  0.1762 -0.9791  0.6937
51838SOL    HW262565   5.462   3.226   5.562  0.3820 -0.6753 -1.9812
51839SOL     OW62566  10.280   1.280  10.535  0.2986  0.3348 -0.2973
51839SOL    HW162567  10.329   1.235  10.603  0.3747 -1.0228 -1.2068
51839SOL    HW262568  10.238   1.354  10.579  0.8142 -0.1733  1.0750
51840SOL     OW62569  11.053   5.546   6.453  0.2687 -0.5624  0.6300
51840SOL    HW162570  10.966   5.567   6.420  0.0720 -1.1080  0.8005
51840SOL    HW262571  11.109   5.544   6.375  0.4059  1.1059  0.6512
51841SOL     OW62572   7.443   1.583  10.952 -0.0827  0.1691 -0.3260
51841SOL    HW162573   7.533   1.551  10.951 -0.0446  0.2366  0.4319
51841SOL    HW262574   7.390   1.503  10.949 -0.0017  0.1305 -0.8036
51842SOL     OW62575   7.735  11.419   9.925 -0.5272 -0.1643 -0.1197
51842SOL    HW162576   7.673  11.486   9.954  0.0313  0.2395  0.1491
51842SOL    HW262577   7.741  11.359  10.000 -1.9591 -1.2154 -0.7971
51843SOL     OW62578   5.238   9.271   4.183  0.2283  0.0212 -0.0977
51843SOL    HW162579   5.280   9.191   4.152 -0.1579 -1.9633  3.8529
51843SOL    HW262580   5.308   9.319   4.229 -0.4445 -0.3020  1.3212
51844SOL     OW62581  10.456  11.432  10.963 -0.0305 -0.4341 -0.4284
51844SOL    HW162582  10.420  11.409  10.878 -0.3041  1.8268 -0.9737
51844SOL    HW262583  10.507  11.511  10.947 -1.3288  0.9463  1.7537
51845SOL     OW62584   1.483   7.693   6.166  0.3531 -0.4383  0.4507
51845SOL    HW162585   1.409   7.633   6.172  0.8606 -0.9746  1.4712
51845SOL    HW262586   1.462   7.763   6.228  0.1799 -0.0066 -0.0867
51846SOL     OW62587   6.549   0.279   8.276  0.1329  0.1070  0.5161
51846SOL    HW162588   6.641   0.307   8.280  0.7554 -1.9495  2.3549
51846SOL    HW262589   6.542   0.230   8.194  1.5225 -2.2052  1.6911
51847SOL     OW62590   3.749   4.619   2.691 -0.4779  0.1601  0.3719
51847SOL    HW162591   3.662   4.586   2.713 -0.2982  0.1632  1.1127
51847SOL    HW262592   3.809   4.554   2.728 -0.1526  0.5314  0.5048
51848SOL     OW62593   6.822   0.414   4.061 -0.3739  0.0831  0.4204
51848SOL    HW162594   6.817   0.389   4.153 -0.0909 -0.5341  0.2675
51848SOL    HW262595   6.910   0.450   4.050 -0.0697 -0.7214  0.1744
51849SOL     OW62596   3.596   3.853   4.328 -0.3811 -0.2935 -0.3627
51849SOL    HW162597   3.533   3.815   4.390  0.7716 -0.4338  0.7587
51849SOL    HW262598   3.676   3.803   4.340  1.3863  2.6584  1.5259
51850SOL     OW62599  10.944   7.822   6.464 -0.1207  0.1233 -0.5565
51850SOL    HW162600  10.961   7.898   6.408 -0.4544 -0.2110 -1.1106
51850SOL    HW262601  11.014   7.825   6.529  1.0070 -0.2024 -1.7275
51851SOL     OW62602   3.435   5.527  10.160  0.2810 -0.2521  0.1653
51851SOL    HW162603   3.392   5.447  10.128 -0.3069 -1.3167  3.2554
51851SOL    HW262604   3.525   5.519  10.130 -0.0764 -1.4347 -0.6743
51852SOL     OW62605   7.196   3.605  11.632 -0.3099 -0.2400  0.0623
51852SOL    HW162606   7.159   3.643  11.552 -0.5810  3.2225  1.6394
51852SOL    HW262607   7.123   3.561  11.674 -0.5582 -0.6708 -0.7952
51853SOL     OW62608  11.974  11.303   8.483 -0.3172  0.4295  0.2536
51853SOL    HW162609  12.059  11.295   8.439 -0.4480  0.6908 -0.0537
51853SOL    HW262610  11.954  11.396   8.477 -1.4573  0.1207 -1.2472
51854SOL     OW62611   9.109   1.139  11.074 -0.4831  0.2087 -0.3726
51854SOL    HW162612   9.066   1.103  11.152  1.5221 -1.5416  0.0166
51854SOL    HW262613   9.147   1.222  11.103 -2.4050  1.1621 -0.3999
51855SOL     OW62614   6.797   6.603   0.889 -0.4469  0.4598  0.7790
51855SOL    HW162615   6.772   6.640   0.804  1.6707  0.6378  0.1771
51855SOL    HW262616   6.802   6.508   0.873 -0.6505  0.4328  0.8751
51856SOL     OW62617   4.814   4.830   2.147 -0.7018 -0.3824 -0.5216
51856SOL    HW162618   4.806   4.743   2.110 -0.5097 -0.6733  0.1103
51856SOL    HW262619   4.758   4.885   2.091 -1.4244 -1.0475 -0.4726
51857SOL     OW62620   3.168   8.166   2.579 -0.2793  0.8069  0.1512
51857SOL    HW162621   3.183   8.202   2.492  0.1967  1.0205  0.3207
51857SOL    HW262622   3.186   8.073   2.570  0.3843  0.9295  0.1657
51858SOL     OW62623   3.152   7.991  11.982  0.6284  0.2078 -0.1363
51858SOL    HW162624   3.209   8.065  12.002  0.3305  0.4204 -0.0595
51858SOL    HW262625   3.185   7.956  11.899  0.2273  0.9760 -0.6271
51859SOL     OW62626   5.196  12.515   0.519  0.0590  0.2569 -0.2663
51859SOL    HW162627   5.175  12.513   0.612  1.5274 -1.6691  0.0871
51859SOL    HW262628   5.224  12.426   0.499 -0.9135  0.4445 -2.7455
51860SOL     OW62629   4.381   1.513   0.044  0.3615 -0.2837 -0.3283
51860SOL    HW162630   4.325   1.498   0.120 -0.3363 -0.2576 -0.8275
51860SOL    HW262631   4.355   1.598   0.010  1.9560  0.5689  0.4786
51861SOL     OW62632   0.826   6.684   4.736  0.2875 -0.1747 -0.2643
51861SOL    HW162633   0.908   6.704   4.692  0.2427 -0.6563 -0.5686
51861SOL    HW262634   0.851   6.637   4.815  0.3037 -0.2845 -0.3354
51862SOL     OW62635   0.203   1.967   4.661  0.0682 -0.1619 -0.2488
51862SOL    HW162636   0.180   2.058   4.642 -2.9765 -0.3992  1.6584
51862SOL    HW262637   0.180   1.920   4.581 -4.2211  0.0368  0.6392
51863SOL     OW62638   1.268   7.278   9.223 -0.4443 -0.2030 -0.1457
51863SOL    HW162639   1.181   7.243   9.244 -0.3581 -1.1143 -1.2120
51863SOL    HW262640   1.302   7.218   9.156  0.7138  0.5606 -0.2596
51864SOL     OW62641  10.300   0.749   9.676  0.4681  0.5902  0.3314
51864SOL    HW162642  10.373   0.768   9.736  0.3682  0.8251  0.3810
51864SOL    HW262643  10.271   0.661   9.701  1.5400 -0.0286 -0.5160
51865SOL     OW62644  10.950   2.517   1.010 -0.8011  0.3074  0.3099
51865SOL    HW162645  11.006   2.495   0.935 -1.6180  1.7378 -0.7661
51865SOL    HW262646  10.992   2.593   1.050 -0.5871 -0.2051  1.0851
51866SOL     OW62647   8.581   6.010   3.736 -0.1501 -0.2688  0.5629
51866SOL    HW162648   8.623   6.075   3.680  0.0740 -0.3268  0.6612
51866SOL    HW262649   8.651   5.981   3.795  0.1551 -1.7738 -0.5169
51867SOL     OW62650   3.021   5.436   7.989 -0.1706 -0.3176 -0.3465
51867SOL    HW162651   2.974   5.513   7.957  0.4472  0.3723  0.3552
51867SOL    HW262652   2.980   5.416   8.073 -2.1620 -2.4589 -1.6798
51868SOL     OW62653   8.759   5.698   3.298 -0.0509  0.0390  0.0645
51868SOL    HW162654   8.801   5.645   3.366 -0.6241 -1.9861 -1.1099
51868SOL    HW262655   8.731   5.777   3.345  2.2049  0.0801  1.5399
51869SOL     OW62656  10.296  12.049   2.464 -0.4095 -0.1381 -0.2569
51869SOL    HW162657  10.233  12.080   2.529  0.0260 -1.3271  0.7833
51869SOL    HW262658  10.349  12.126   2.444 -1.4601  0.6020 -0.2982
51870SOL     OW62659   6.485   1.270   5.927  0.0079 -0.0012  0.2482
51870SOL    HW162660   6.483   1.175   5.932 -1.4866 -0.0497 -0.5305
51870SOL    HW262661   6.533   1.290   5.847  0.1062 -0.1122  0.2804
51871SOL     OW62662   2.540  11.162   4.812  0.4985 -0.0179  0.4735
51871SOL    HW162663   2.569  11.164   4.720 -0.7645  0.1163  0.0586
51871SOL    HW262664   2.544  11.069   4.836  1.6095  0.0369  0.5562
51872SOL     OW62665   3.862   3.010   6.201  0.2194 -0.4058 -0.5187
51872SOL    HW162666   3.913   2.970   6.131  1.3904 -0.8904  0.5831
51872SOL    HW262667   3.789   2.949   6.216  1.2765 -1.5191  0.2707
51873SOL     OW62668  12.211   9.596   6.834  0.1540 -0.0144  0.1728
51873SOL    HW162669  12.277   9.581   6.766  0.7545  1.1548  0.4731
51873SOL    HW262670  12.250   9.559   6.913 -0.9553 -2.2542 -0.2701
51874SOL     OW62671   9.150   3.089  11.382  0.4540  0.3599  0.0839
51874SOL    HW162672   9.179   3.177  11.359 -0.3025  0.3246 -1.0647
51874SOL    HW262673   9.223   3.033  11.355  0.9562  0.6203  0.8580
51875SOL     OW62674   8.951   5.592   7.238  0.1140 -0.1648  0.0438
51875SOL    HW162675   8.932   5.659   7.304  0.3018  1.8293 -1.7947
51875SOL    HW262676   8.877   5.595   7.179  0.4794 -1.0774 -0.4768
51876SOL     OW62677   2.555  11.790   3.246 -0.6427  0.4099 -0.5266
51876SOL    HW162678   2.560  11.704   3.288  0.1776 -0.5508 -2.4443
51876SOL    HW262679   2.480  11.832   3.287 -0.0393 -0.4963  1.7018
51877SOL     OW62680   8.595   3.452   6.866  0.1429  0.0025 -0.5469
51877SOL    HW162681   8.657   3.394   6.909  0.5133  1.0930  0.4466
51877SOL    HW262682   8.622   3.540   6.892 -1.0713  0.5725 -1.1045
51878SOL     OW62683  12.074   4.181  10.171 -0.2359  0.3519  0.1015
51878SOL    HW162684  12.123   4.129  10.235 -0.6540 -2.9059 -1.9526
51878SOL    HW262685  12.139   4.240  10.134  1.6064 -1.9616 -0.6485
51879SOL     OW62686   0.457   1.871  12.348  0.3536 -0.3057 -0.0536
51879SOL    HW162687   0.399   1.796  12.366  0.0609  0.3700  2.0468
51879SOL    HW262688   0.427   1.903  12.262  0.3692 -2.4413 -0.9267
51880SOL     OW62689   8.477  12.418   4.434 -0.4136 -0.5139  0.0558
51880SOL    HW162690   8.568  12.444   4.423 -0.8351  1.3764  0.7264
51880SOL    HW262691   8.479  12.322   4.429  1.9546 -0.7057  2.3733
51881SOL     OW62692   6.737   2.456  10.133  0.0350  0.1152 -0.6414
51881SOL    HW162693   6.794   2.490  10.064 -1.2623  0.9941 -1.3402
51881SOL    HW262694   6.761   2.364  10.142  0.9489  0.2550 -1.5235
51882SOL     OW62695   7.081   6.859   6.746  0.2198  0.6445  0.5634
51882SOL    HW162696   7.014   6.874   6.813 -1.5926 -1.3438 -0.6578
51882SOL    HW262697   7.083   6.940   6.696 -0.2680  1.2253  1.4478
51883SOL     OW62698  11.674  12.184   4.187  0.2243  0.0023 -0.4023
51883SOL    HW162699  11.687  12.131   4.108 -0.7928 -0.5531 -0.2258
51883SOL    HW262700  11.581  12.208   4.184 -0.0852 -0.8584  1.1108
51884SOL     OW62701   8.078   4.546   4.460 -0.3816 -0.0478  0.2441
51884SOL    HW162702   8.029   4.465   4.466 -1.7355  0.7164 -0.0684
51884SOL    HW262703   8.016   4.610   4.424  0.5750  1.1758  0.6632
51885SOL     OW62704  10.892   6.690  10.123  0.6036 -0.0734  0.1114
51885SOL    HW162705  10.810   6.658  10.086  1.0179  0.7469 -1.5813
51885SOL    HW262706  10.954   6.618  10.109  1.3666  1.0329 -3.1076
51886SOL     OW62707   3.566   3.627   3.612 -0.2419  0.5999 -0.6578
51886SOL    HW162708   3.629   3.597   3.677  1.0621  1.1029 -1.6352
51886SOL    HW262709   3.490   3.654   3.662 -0.2821 -1.4371  0.4553
51887SOL     OW62710   0.969   7.092  11.327 -1.0347  0.0457  0.2623
51887SOL    HW162711   0.983   7.169  11.382  1.5024  0.2950 -0.5741
51887SOL    HW262712   0.909   7.037  11.377 -2.0321  2.0404  1.3879
51888SOL     OW62713  12.250  11.790   0.056 -0.0154  0.3263 -0.1083
51888SOL    HW162714  12.293  11.841  -0.012 -0.1961 -0.2419 -0.6563
51888SOL    HW262715  12.314  11.786   0.127  0.4883  0.2552 -0.5594
51889SOL     OW62716   1.451   2.573  11.493 -0.0658  0.1333  0.3618
51889SOL    HW162717   1.392   2.647  11.503  1.2924  1.0330  2.0849
51889SOL    HW262718   1.454   2.532  11.579  2.2755  0.4803  0.4884
51890SOL     OW62719  10.795   1.336  10.003  0.6421  0.4702  0.3507
51890SOL    HW162720  10.773   1.427  10.022  0.0106  0.1307  1.3057
51890SOL    HW262721  10.890   1.337   9.990  0.2559  2.0101 -4.1212
51891SOL     OW62722   9.727   5.612   4.173 -0.1988 -0.7779  0.0613
51891SOL    HW162723   9.670   5.673   4.220 -0.6819  2.7417 -4.4213
51891SOL    HW262724   9.667   5.555   4.126  0.0371 -0.4192 -0.6977
51892SOL     OW62725   0.116  10.958   3.104 -0.6928 -0.4131 -0.0779
51892SOL    HW162726   0.061  10.988   3.033 -0.0882  1.7515  0.2969
51892SOL    HW262727   0.112  11.028   3.169  1.4834 -0.7444  0.4920
51893SOL     OW62728   2.247  10.075   0.495  0.5228  0.1855  0.6288
51893SOL    HW162729   2.155  10.101   0.499  0.8637  1.3299  2.1623
51893SOL    HW262730   2.247   9.993   0.445 -1.2210  0.5476 -0.0381
51894SOL     OW62731  11.508   7.138   2.429 -0.3372  0.2855 -0.0695
51894SOL    HW162732  11.468   7.061   2.469 -0.0106  0.6807  1.0500
51894SOL    HW262733  11.587   7.153   2.480 -1.7561  2.9586  1.5637
51895SOL     OW62734  11.449  12.582  10.085  0.2919  0.2853  0.1617
51895SOL    HW162735  11.488  12.523  10.021  1.5208  0.1555  0.9787
51895SOL    HW262736  11.373  12.535  10.118  0.7619 -0.4847  0.1749
51896SOL     OW62737   4.365   9.486   5.985 -0.3893  0.0443  0.4101
51896SOL    HW162738   4.331   9.575   5.986 -0.8008 -0.1063  0.0885
51896SOL    HW262739   4.453   9.494   5.950 -1.2604  0.0585 -1.9426
51897SOL     OW62740   9.777  11.471  11.125  0.0433  0.1085  0.1114
51897SOL    HW162741   9.725  11.393  11.146 -0.7385  0.4627 -0.4848
51897SOL    HW262742   9.859  11.436  11.089 -1.2688 -0.4574 -2.4982
51898SOL     OW62743   2.386   3.732   4.349  0.0982  0.1668  0.4679
51898SOL    HW162744   2.321   3.798   4.326  1.1916  0.7691 -1.0922
51898SOL    HW262745   2.340   3.649   4.344 -0.7173  0.6352  0.0797
51899SOL     OW62746  10.982  10.746   8.109  0.3365  0.0128 -0.1410
51899SOL    HW162747  11.037  10.758   8.031 -0.5639  0.8703 -0.6626
51899SOL    HW262748  10.942  10.832   8.124 -1.8051 -0.8599 -0.4889
51900SOL     OW62749   5.805   6.638   0.346 -0.6815  0.2387 -0.0692
51900SOL    HW162750   5.820   6.731   0.360  0.3486 -0.0832  1.0508
51900SOL    HW262751   5.760   6.608   0.425 -0.2338 -0.3765 -0.0371
51901SOL     OW62752  11.429   0.972   9.147 -0.9449 -0.2648 -0.3095
51901SOL    HW162753  11.393   0.981   9.235 -0.3264 -1.8075  0.1322
51901SOL    HW262754  11.377   0.902   9.106  0.4390 -1.4011 -0.2146
51902SOL     OW62755  10.143   6.644   5.754 -0.3396 -0.0227  0.3623
51902SOL    HW162756  10.208   6.598   5.806  1.5876  1.7621 -0.3411
51902SOL    HW262757  10.191   6.677   5.678 -2.9411 -2.2850 -2.5541
51903SOL     OW62758   7.639   1.654   8.772 -0.1366  0.2179  0.0006
51903SOL    HW162759   7.724   1.632   8.736  0.8687  0.3903  2.1409
51903SOL    HW262760   7.622   1.743   8.740  1.4753  0.9997  1.2077
51904SOL     OW62761   1.283   5.487   0.634  0.3320  0.2434  0.1994
51904SOL    HW162762   1.356   5.549   0.626  0.0759  0.6957  1.2493
51904SOL    HW262763   1.221   5.530   0.693 -0.2024 -0.6919  0.3340
51905SOL     OW62764   7.074   8.149   9.675  0.4602  0.2258 -0.4013
51905SOL    HW162765   7.136   8.080   9.652 -1.2394 -1.6848  0.5194
51905SOL    HW262766   7.098   8.174   9.764 -0.2100 -0.6537  0.0280
51906SOL     OW62767   7.204  10.734   5.235  0.7810 -0.0010 -0.3617
51906SOL    HW162768   7.184  10.646   5.201 -0.0093 -0.6475  1.6320
51906SOL    HW262769   7.223  10.786   5.157 -1.3375 -1.2766 -1.8488
51907SOL     OW62770   9.615  10.095   5.924 -0.6450 -0.1612  0.1338
51907SOL    HW162771   9.586  10.009   5.955 -0.4573 -0.2052  0.1861
51907SOL    HW262772   9.669  10.075   5.848 -1.6695 -0.0236 -0.6612
51908SOL     OW62773   7.806   7.590   4.822  0.0021 -0.0417 -0.2598
51908SOL    HW162774   7.762   7.511   4.853  0.7306 -0.2822  0.1907
51908SOL    HW262775   7.858   7.619   4.897  2.4998 -1.1358 -1.4732
51909SOL     OW62776   9.209   1.850   3.943 -0.1702  0.3840 -0.1583
51909SOL    HW162777   9.148   1.903   3.893 -1.4852 -1.7745 -0.9862
51909SOL    HW262778   9.264   1.807   3.878  0.3355  0.1198  0.4261
51910SOL     OW62779   1.554  11.788  12.539 -0.6980  0.1523 -0.0414
51910SOL    HW162780   1.570  11.764  12.447 -1.1846  1.9748 -0.6447
51910SOL    HW262781   1.459  11.792  12.546 -0.6961 -0.8005  0.8052
51911SOL     OW62782   0.501   1.000   7.824 -0.4381  0.2621 -0.2062
51911SOL    HW162783   0.590   1.019   7.854  0.9498 -2.8747 -1.8789
51911SOL    HW262784   0.457   1.085   7.823  2.4380  1.8812  0.9649
51912SOL     OW62785   2.058   8.340   1.316 -0.1363 -0.0166 -0.8005
51912SOL    HW162786   2.098   8.306   1.396  2.1165  1.5156 -1.1861
51912SOL    HW262787   1.979   8.287   1.305  0.6518 -1.7729  1.1942
51913SOL     OW62788   8.922   8.414   2.184 -0.7489  0.3791 -0.3702
51913SOL    HW162789   8.945   8.502   2.155  1.7672  0.3243  1.0789
51913SOL    HW262790   8.926   8.361   2.105 -0.1454  1.2253 -0.9332
51914SOL     OW62791   9.304   4.164   7.312  0.2543 -0.0388  0.0290
51914SOL    HW162792   9.345   4.229   7.369  0.2224  1.8603 -1.9691
51914SOL    HW262793   9.373   4.099   7.297  0.3608 -0.4214  1.8783
51915SOL     OW62794  11.002   8.452   8.565 -0.7539 -0.0031  0.3876
51915SOL    HW162795  11.083   8.411   8.595 -1.8023 -1.7996  0.8696
51915SOL    HW262796  10.962   8.488   8.645  0.0629  1.9324  0.0012
51916SOL     OW62797   4.066   2.524   4.343 -0.1518 -0.1838  0.7693
51916SOL    HW162798   4.160   2.540   4.330 -0.0564 -1.1145  0.2796
51916SOL    HW262799   4.029   2.532   4.255 -0.5712  0.3679  0.9903
51917SOL     OW62800   0.115   4.956  10.751  1.0488  0.4651 -0.8579
51917SOL    HW162801   0.105   4.927  10.842  0.8957 -0.5090 -1.1742
51917SOL    HW262802   0.142   5.047  10.758  0.8501  0.4590  0.1647
51918SOL     OW62803   7.667   6.228   7.033  0.0821  0.4375  0.2146
51918SOL    HW162804   7.739   6.272   7.077 -0.9475  2.0565  0.3667
51918SOL    HW262805   7.706   6.148   6.997  1.6781  0.7128  1.2213
51919SOL     OW62806  12.149   3.506   1.862 -0.0580 -0.1975  0.0720
51919SOL    HW162807  12.137   3.599   1.844 -0.0977 -0.3963 -0.9793
51919SOL    HW262808  12.061   3.474   1.882  0.1977  0.3579  2.4470
51920SOL     OW62809   8.116   0.232   7.901  0.2585  0.2613 -0.3203
51920SOL    HW162810   8.149   0.233   7.991  0.3708  0.5955 -0.3645
51920SOL    HW262811   8.027   0.267   7.908 -1.4587 -3.6134  0.3117
51921SOL     OW62812   6.188   2.752   5.152 -0.0359  0.6257  0.6756
51921SOL    HW162813   6.162   2.774   5.063 -1.2478 -0.7888  0.6372
51921SOL    HW262814   6.115   2.779   5.207  0.2678  0.5741  1.1190
51922SOL     OW62815  11.531   4.628   9.658  0.6184 -0.9418 -0.1847
51922SOL    HW162816  11.607   4.682   9.679 -1.2182  0.5650  3.8258
51922SOL    HW262817  11.555   4.540   9.689  1.5588 -1.0842 -1.2717
51923SOL     OW62818   5.430   5.843   4.875 -0.2594  0.1090 -0.1346
51923SOL    HW162819   5.338   5.852   4.899 -0.2287  0.0863 -0.0054
51923SOL    HW262820   5.431   5.847   4.780 -0.3988  0.0700 -0.1377
51924SOL     OW62821   9.829  10.735  11.968 -0.2408  0.5202  1.1694
51924SOL    HW162822   9.880  10.671  11.918  0.1701  2.3025 -0.8844
51924SOL    HW262823   9.869  10.736  12.055  0.2168 -1.4263  1.0099
51925SOL     OW62824   6.882   6.077   5.667 -0.3720 -0.6179 -0.6373
51925SOL    HW162825   6.910   6.059   5.577  0.5586 -0.5433 -0.3720
51925SOL    HW262826   6.963   6.083   5.717 -0.7535  1.2654 -0.1388
51926SOL     OW62827   0.124   0.341   9.308 -0.2784 -0.5553  0.5320
51926SOL    HW162828   0.054   0.401   9.284  1.2423  1.8006  1.5389
51926SOL    HW262829   0.181   0.338   9.231 -0.5545 -1.0809  0.3390
51927SOL     OW62830   0.216   4.694   8.110  0.0548 -0.2271 -0.0071
51927SOL    HW162831   0.199   4.770   8.166  1.8198  0.2206 -0.0385
51927SOL    HW262832   0.309   4.698   8.091  0.0917 -2.1327 -0.4368
51928SOL     OW62833  11.284   8.127   5.082 -0.1645 -0.2056  0.1369
51928SOL    HW162834  11.300   8.033   5.074  0.3275 -0.0967 -0.2499
51928SOL    HW262835  11.354   8.167   5.031  0.7372  0.4370  1.8368
51929SOL     OW62836   8.143   6.754   7.111 -0.3276  0.0270 -0.0711
51929SOL    HW162837   8.148   6.659   7.123 -3.1845 -0.1579  0.3282
51929SOL    HW262838   8.232   6.780   7.085  0.4180 -2.7941 -0.6534
51930SOL     OW62839   6.912   5.716   5.521  0.6500 -0.3614 -0.1413
51930SOL    HW162840   6.915   5.621   5.516  1.2625 -0.3349 -0.3092
51930SOL    HW262841   7.003   5.743   5.529  0.4590  0.1980  0.1875
51931SOL     OW62842   2.682   4.210  11.664  0.2652  0.0225  0.5919
51931SOL    HW162843   2.698   4.181  11.754  2.3128  1.3845  0.7377
51931SOL    HW262844   2.641   4.296  11.674 -0.6263 -0.3393  0.1871
51932SOL     OW62845   3.681  10.221   0.274 -0.3281  0.2867 -0.1404
51932SOL    HW162846   3.675  10.131   0.307  0.0630  0.4206  0.2998
51932SOL    HW262847   3.765  10.224   0.228  0.3468  0.8193  1.0750
51933SOL     OW62848   0.804   5.173  10.360  0.2848  0.2514  0.1387
51933SOL    HW162849   0.871   5.153  10.426  0.2873  0.1381  0.1016
51933SOL    HW262850   0.761   5.089  10.344 -0.0789  0.3867  0.3964
51934SOL     OW62851  12.168   4.044   0.435  0.4729  0.1564  0.4055
51934SOL    HW162852  12.209   3.957   0.435  1.2076  0.5036  0.3954
51934SOL    HW262853  12.204   4.088   0.358 -1.5785 -0.3016 -0.8944
51935SOL     OW62854   8.603   2.092   8.108 -0.0656 -0.2898  0.4765
51935SOL    HW162855   8.526   2.111   8.054  0.7329 -0.1601 -0.6608
51935SOL    HW262856   8.651   2.175   8.110 -0.3311 -0.1510  1.8361
51936SOL     OW62857   5.999   0.029   9.825  0.0466  0.2459  0.5797
51936SOL    HW162858   5.978  -0.063   9.810  2.9371 -0.2760 -1.0691
51936SOL    HW262859   5.990   0.070   9.739  0.1465  1.1835  1.0092
51937SOL     OW62860   9.883   9.674   0.514  0.4770  0.0462  0.8083
51937SOL    HW162861   9.939   9.702   0.442  2.2261 -2.8322  0.9011
51937SOL    HW262862   9.804   9.642   0.471  0.8801 -0.2518  0.2838
51938SOL     OW62863   4.020   9.202   0.308 -0.5214 -0.6815  0.4510
51938SOL    HW162864   4.022   9.293   0.279  0.3766 -1.0873 -0.8471
51938SOL    HW262865   3.933   9.171   0.284 -0.2556 -0.6222 -0.6805
51939SOL     OW62866   0.972  12.111   0.315  0.2249  0.0793 -0.3225
51939SOL    HW162867   1.029  12.061   0.256  1.3501 -0.3458  1.0423
51939SOL    HW262868   1.024  12.121   0.395 -1.1280  0.8775  0.5004
51940SOL     OW62869  10.724   6.915   1.442  0.1447 -0.3995  0.1441
51940SOL    HW162870  10.732   6.907   1.537  0.7045 -2.9570 -0.0391
51940SOL    HW262871  10.814   6.918   1.409 -0.0432  0.6186 -0.3269
51941SOL     OW62872  12.227  11.186   4.150  0.5573 -0.3492  0.2036
51941SOL    HW162873  12.198  11.207   4.239  1.3323  0.3887  0.2926
51941SOL    HW262874  12.311  11.142   4.163  0.1143 -1.3150 -0.1121
51942SOL     OW62875   7.939  12.007   7.527  0.4199 -0.4610  0.3276
51942SOL    HW162876   7.995  11.954   7.583  1.7085 -1.1603 -1.5265
51942SOL    HW262877   7.992  12.084   7.506 -0.6465  0.5833  1.3060
51943SOL     OW62878   1.766  11.846   9.648 -0.4775 -0.1257  0.3361
51943SOL    HW162879   1.824  11.912   9.611  0.0355 -1.2950 -1.0452
51943SOL    HW262880   1.694  11.840   9.586 -1.9355  1.0215  1.8317
51944SOL     OW62881   0.985  12.443  11.307 -0.9084 -0.3558  0.1366
51944SOL    HW162882   1.040  12.454  11.230 -1.5028 -0.2259 -0.2804
51944SOL    HW262883   1.025  12.499  11.374 -1.3124  0.8478 -0.5879
51945SOL     OW62884   0.987   2.876   5.936 -0.3788 -0.4909 -0.3737
51945SOL    HW162885   1.072   2.839   5.958  0.2818  1.4074  0.4542
51945SOL    HW262886   0.930   2.851   6.009  0.4940  1.4593  1.0348
51946SOL     OW62887   4.008   8.922  10.346 -0.4725 -0.2004  0.0977
51946SOL    HW162888   4.012   8.910  10.251 -0.4770 -0.6918  0.1546
51946SOL    HW262889   4.022   9.015  10.360 -1.1695 -0.0103 -0.4313
51947SOL     OW62890   3.653   6.119   2.924 -0.7482 -0.0331  0.3308
51947SOL    HW162891   3.589   6.114   2.853 -0.0721  1.2625 -0.4086
51947SOL    HW262892   3.606   6.086   3.001 -2.3907  1.0793 -0.1380
51948SOL     OW62893   4.421  11.622   8.717 -0.4287  0.2645  0.2994
51948SOL    HW162894   4.481  11.693   8.697 -1.5824  1.3988  0.7608
51948SOL    HW262895   4.471  11.542   8.697  1.2141  1.1607  0.6554
51949SOL     OW62896   5.488   8.348   5.333  0.1006 -0.1189 -0.5254
51949SOL    HW162897   5.399   8.381   5.346  1.1231  1.9622  1.9002
51949SOL    HW262898   5.488   8.263   5.376 -0.7559 -0.2790 -0.8056
51950SOL     OW62899   0.097   5.830   1.497  0.0419  0.0919  0.6513
51950SOL    HW162900   0.043   5.910   1.503 -0.5445 -0.2334 -0.0945
51950SOL    HW262901   0.033   5.759   1.492  0.5161 -0.2814 -0.6206
51951SOL     OW62902  10.934   7.303   6.822  0.4121 -0.0679 -0.0041
51951SOL    HW162903  10.850   7.345   6.805  0.0795 -1.5653 -2.6494
51951SOL    HW262904  10.989   7.330   6.749  1.3632 -1.2223  0.2569
51952SOL     OW62905  11.950   6.868   0.428 -0.3590 -0.7661  0.5366
51952SOL    HW162906  11.856   6.860   0.413 -0.5612 -3.8566  2.5701
51952SOL    HW262907  11.958   6.929   0.501 -0.7148 -0.0043 -0.0542
51953SOL     OW62908   4.732  11.877   3.975 -0.6504  0.5773  0.3291
51953SOL    HW162909   4.672  11.875   3.900  0.3094 -1.0602 -0.4417
51953SOL    HW262910   4.742  11.785   3.999  1.4948  0.8094  0.4648
51954SOL     OW62911   3.237  12.492   2.207 -0.0004  0.5490 -0.2330
51954SOL    HW162912   3.232  12.397   2.196 -1.0294  0.5495  0.0612
51954SOL    HW262913   3.325  12.508   2.239  0.0436 -0.3514  0.1253
51955SOL     OW62914   8.349  12.357   3.940 -0.4879  0.3229  0.4168
51955SOL    HW162915   8.285  12.290   3.914  1.7028 -0.9110 -2.2074
51955SOL    HW262916   8.403  12.314   4.006  0.4854 -0.3185 -0.7651
51956SOL     OW62917  12.482   8.655   6.121  0.3580  0.5165 -0.2445
51956SOL    HW162918  12.578   8.650   6.124  0.3786 -0.1202 -1.4404
51956SOL    HW262919  12.464   8.747   6.104  0.6576  1.0929  2.2425
51957SOL     OW62920   2.555   6.626   7.689  0.0819 -0.1445  0.2568
51957SOL    HW162921   2.465   6.610   7.660  0.1216  0.1362 -0.0337
51957SOL    HW262922   2.608   6.607   7.611  0.1801  0.7572  0.0928
51958SOL     OW62923   9.335   1.193   8.332  0.7032 -0.0962  0.3958
51958SOL    HW162924   9.398   1.252   8.291  0.1931 -0.3323 -0.7653
51958SOL    HW262925   9.342   1.212   8.425 -1.3605  3.7685 -0.0504
51959SOL     OW62926   4.497  12.145   7.649 -0.7002  0.7142  0.5277
51959SOL    HW162927   4.519  12.228   7.607  1.6467  0.6757  1.4973
51959SOL    HW262928   4.446  12.169   7.726  0.0333  1.2974  0.8455
51960SOL     OW62929   2.456   3.541   3.273 -0.5310 -0.2000 -0.0037
51960SOL    HW162930   2.552   3.537   3.278 -0.4145  1.4540 -0.3034
51960SOL    HW262931   2.435   3.507   3.186 -0.1758 -0.1208 -0.1215
51961SOL     OW62932   3.455   1.941   5.368 -0.2861  0.2790 -0.1009
51961SOL    HW162933   3.429   1.922   5.277  0.0037  1.9412 -0.5549
51961SOL    HW262934   3.526   1.879   5.386 -1.5560 -1.3276 -0.3461
51962SOL     OW62935   4.908   9.175   8.586  0.1094 -0.4034 -0.4173
51962SOL    HW162936   4.987   9.158   8.637 -1.6719  0.0191  2.7339
51962SOL    HW262937   4.859   9.094   8.590 -1.1587  0.3764  0.7521
51963SOL     OW62938   9.005   1.175  11.605 -0.5108 -0.0551  0.1928
51963SOL    HW162939   8.914   1.168  11.634 -0.2253 -0.0620  1.1228
51963SOL    HW262940   9.003   1.237  11.532 -1.5039 -1.3860 -0.9677
51964SOL     OW62941  11.894   7.664   3.329 -0.0184 -0.3406  0.1661
51964SOL    HW162942  11.861   7.634   3.413 -0.1185  0.6616  0.4891
51964SOL    HW262943  11.909   7.758   3.340 -0.7522 -0.0400 -1.1529
51965SOL     OW62944   8.560   4.007  10.701  0.0967 -0.2595  0.0155
51965SOL    HW162945   8.641   3.957  10.691  0.5091  0.4467 -0.2450
51965SOL    HW262946   8.513   3.963  10.772 -0.4302 -2.1706 -1.4177
51966SOL     OW62947  10.270   7.756   9.189 -0.0241 -0.5400  0.0232
51966SOL    HW162948  10.281   7.666   9.159  3.6176 -0.1362 -0.2766
51966SOL    HW262949  10.334   7.807   9.138 -2.1341  2.3134 -0.0280
51967SOL     OW62950   9.797   0.050   3.386 -0.2013 -0.0617  0.4486
51967SOL    HW162951   9.824  -0.018   3.324  2.3577  0.7042  0.6242
51967SOL    HW262952   9.713   0.081   3.352 -0.1099 -1.4345 -1.1586
51968SOL     OW62953   6.602   0.183   4.313 -0.1072 -0.3168  0.1856
51968SOL    HW162954   6.696   0.164   4.318  0.0050  0.4314  1.0579
51968SOL    HW262955   6.568   0.159   4.399 -0.4049  1.0890  0.4699
51969SOL     OW62956  10.580   7.001  12.159  0.5488 -0.2682  0.2174
51969SOL    HW162957  10.610   7.088  12.133 -0.5700 -0.7685 -3.3156
51969SOL    HW262958  10.660   6.947  12.161  1.1014  0.5615  1.3349
51970SOL     OW62959   4.285   7.192  11.816 -0.6152 -0.3847  0.0196
51970SOL    HW162960   4.273   7.099  11.833 -2.9243 -0.5912 -2.0657
51970SOL    HW262961   4.198   7.222  11.789  0.3789  2.0522 -0.7511
51971SOL     OW62962   0.207   0.752   8.720  0.3451 -0.0367 -0.1026
51971SOL    HW162963   0.215   0.711   8.634 -1.4889 -1.1188  0.1971
51971SOL    HW262964   0.113   0.753   8.737  0.5550  1.7618  1.1510
51972SOL     OW62965   8.255  10.700   1.043 -1.0688 -0.0296  0.1396
51972SOL    HW162966   8.169  10.675   1.009 -2.0817  1.1456  1.6819
51972SOL    HW262967   8.236  10.768   1.107  1.0888  0.6833  0.0945
51973SOL     OW62968   4.423   0.982   8.823 -0.5647 -0.1957 -0.0296
51973SOL    HW162969   4.479   1.054   8.796 -1.6843 -0.1618 -2.5977
51973SOL    HW262970   4.483   0.909   8.840  0.4574  0.8510  0.9587
51974SOL     OW62971   8.689   3.813   7.315 -0.4280  0.2624  0.2546
51974SOL    HW162972   8.763   3.762   7.348 -0.2340 -0.7004 -1.5080
51974SOL    HW262973   8.613   3.756   7.327 -0.5929  0.5096  0.3994
51975SOL     OW62974   5.449   8.883  12.168  0.0342  0.9121 -0.4047
51975SOL    HW162975   5.465   8.960  12.223 -0.6026  2.9421 -2.8616
51975SOL    HW262976   5.387   8.914  12.102 -1.2282 -2.1050 -0.8020
51976SOL     OW62977   0.532  10.574   7.239  0.5276  0.0188 -0.4495
51976SOL    HW162978   0.588  10.639   7.283  0.6821 -0.5535  0.2094
51976SOL    HW262979   0.466  10.627   7.193  0.1425  0.6372  0.7621
51977SOL     OW62980  12.155   8.184   3.285  0.0513  1.2604 -0.1684
51977SOL    HW162981  12.211   8.147   3.217  1.3694  2.0796  0.4336
51977SOL    HW262982  12.077   8.213   3.238  0.3712  0.6264 -1.1213
51978SOL     OW62983   7.823   0.853   7.299  0.7143  0.5552 -0.0475
51978SOL    HW162984   7.813   0.872   7.392  1.2300 -0.1988  0.1778
51978SOL    HW262985   7.743   0.887   7.258 -0.1269 -0.2516  0.8577
51979SOL     OW62986   7.512   3.251   9.283 -0.1805 -0.1586 -0.2576
51979SOL    HW162987   7.497   3.245   9.189 -0.0424 -0.7087 -0.2463
51979SOL    HW262988   7.425   3.268   9.320 -0.3663 -0.7189 -0.4193
51980SOL     OW62989   0.692   4.633   1.233 -0.1154 -0.9482  0.4912
51980SOL    HW162990   0.764   4.571   1.226  2.0622  1.0715  2.6871
51980SOL    HW262991   0.613   4.579   1.233  1.2073 -3.1996 -3.1865
51981SOL     OW62992   6.408   6.744   8.667 -0.2626  0.0959  0.0635
51981SOL    HW162993   6.408   6.649   8.684  0.6127  0.2898  1.2582
51981SOL    HW262994   6.315   6.768   8.670 -0.5781 -0.8482 -1.1052
51982SOL     OW62995   2.633   2.140   0.236  0.2307  0.1419  0.4830
51982SOL    HW162996   2.629   2.123   0.330  0.0921  0.5544  0.5564
51982SOL    HW262997   2.541   2.140   0.208  0.3419 -2.0002 -0.0429
51983SOL     OW62998   9.843   5.840  12.176  0.4209  0.5621 -0.3592
51983SOL    HW162999   9.840   5.935  12.163 -1.5420  0.7695  1.1127
51983SOL    HW263000   9.846   5.829  12.271  0.6070 -0.8570 -0.5116
51984SOL     OW63001   0.415  10.521  10.682  0.1244  0.3991  0.4403
51984SOL    HW163002   0.358  10.501  10.607 -2.6043 -1.8126  2.8739
51984SOL    HW263003   0.500  10.484  10.658 -0.9785 -1.2921 -1.1610
51985SOL     OW63004   7.257   5.473   0.691 -0.2985  0.3340  0.0292
51985SOL    HW163005   7.270   5.553   0.639 -1.2132  0.6305  0.2338
51985SOL    HW263006   7.164   5.475   0.715  0.3550  0.9742  2.8792
51986SOL     OW63007   8.573  11.789   3.797  0.9648 -0.5295  0.0331
51986SOL    HW163008   8.541  11.790   3.707 -1.9498  1.4802  0.9397
51986SOL    HW263009   8.623  11.870   3.806  1.1858 -0.6896  0.2695
51987SOL     OW63010   4.468   4.860   4.263  0.4479 -0.0468  0.8456
51987SOL    HW163011   4.526   4.890   4.193  0.5998 -2.1403 -0.0070
51987SOL    HW263012   4.435   4.940   4.303  0.2003  1.2523 -1.7514
51988SOL     OW63013   0.987   9.719  10.352 -0.1518 -0.9063  0.4517
51988SOL    HW163014   0.895   9.729  10.326  0.0993  0.0603 -0.1342
51988SOL    HW263015   0.986   9.722  10.447 -0.4969  1.7755  0.4409
51989SOL     OW63016   1.157   4.869   6.592  0.5374  0.1925 -0.2792
51989SOL    HW163017   1.105   4.943   6.560  1.0216  0.7565  0.2168
51989SOL    HW263018   1.157   4.806   6.520  0.4728  0.8518 -0.8586
51990SOL     OW63019  11.028   9.381   5.976  0.1981  0.6847  0.0767
51990SOL    HW163020  11.056   9.296   5.943  0.4387  1.1079 -0.8355
51990SOL    HW263021  11.018   9.368   6.070  0.9279 -0.1561  0.0496
51991SOL     OW63022   7.664  10.052   0.843  0.2974 -0.6211  0.0959
51991SOL    HW163023   7.660   9.999   0.763 -1.8115  1.2725 -1.1925
51991SOL    HW263024   7.576  10.047   0.879  0.6263  0.3157  1.0772
51992SOL     OW63025   5.733   5.862   2.237  0.1504  0.3463  0.4125
51992SOL    HW163026   5.796   5.866   2.310 -1.0690  0.6894  1.4823
51992SOL    HW263027   5.681   5.942   2.246  0.8698  1.1050 -1.7160
51993SOL     OW63028   4.892   3.060   3.021 -0.1562 -0.4452  0.0971
51993SOL    HW163029   4.822   3.020   3.071 -0.7423  0.3067 -0.1002
51993SOL    HW263030   4.965   2.998   3.026 -0.7385 -1.0968  0.5439
51994SOL     OW63031   4.326   8.790   2.893  0.1994 -0.2913 -0.2132
51994SOL    HW163032   4.253   8.757   2.946  1.6840  0.0523  2.1576
51994SOL    HW263033   4.356   8.714   2.844 -1.7043 -0.4413 -1.2625
51995SOL     OW63034   5.907  10.047   1.286 -0.1112 -0.2027  0.2509
51995SOL    HW163035   5.983  10.021   1.339 -1.0950 -2.2620  0.7596
51995SOL    HW263036   5.832  10.014   1.335 -1.1745 -0.5483 -1.5317
51996SOL     OW63037   9.811  11.519   7.521  0.1408 -0.2202  0.2430
51996SOL    HW163038   9.804  11.453   7.452 -1.2520 -0.3027  0.4497
51996SOL    HW263039   9.852  11.473   7.594 -0.1549 -0.6603  0.1347
51997SOL     OW63040   2.618   6.622   0.519  0.0256  0.8473 -0.3921
51997SOL    HW163041   2.552   6.553   0.517  0.5791  0.2620  0.8589
51997SOL    HW263042   2.569   6.702   0.537 -0.3541  0.4089  0.5687
51998SOL     OW63043   1.807   4.919   0.111  0.1575  0.0428  0.4924
51998SOL    HW163044   1.809   4.884   0.200  2.2404  0.6848  0.7579
51998SOL    HW263045   1.732   4.877   0.070 -0.1777 -1.1257  2.2049
51999SOL     OW63046   9.091   2.874  12.518  0.2946  0.3655 -0.1545
51999SOL    HW163047   9.049   2.789  12.503 -1.3242  1.0810  0.0488
51999SOL    HW263048   9.123   2.900  12.432 -2.8676  1.3473 -1.1993
52000SOL     OW63049   6.381   3.710  10.896  0.3832  0.5689 -0.3171
52000SOL    HW163050   6.440   3.689  10.823 -2.0352 -0.4137 -2.1261
52000SOL    HW263051   6.308   3.757  10.855 -0.2802  1.4303  1.7613
52001SOL     OW63052  10.175   5.056   2.114  0.0135 -0.0437 -0.2130
52001SOL    HW163053  10.139   4.981   2.067  0.0410 -0.3496  0.2458
52001SOL    HW263054  10.106   5.081   2.176 -0.0255  0.3593 -0.4121
52002SOL     OW63055   6.378  12.376  11.102  0.4020 -0.3849  0.1230
52002SOL    HW163056   6.320  12.451  11.087  1.3984  0.5664  0.8325
52002SOL    HW263057   6.353  12.313  11.035  0.7222  1.3112 -1.6991
52003SOL     OW63058   2.957   1.616   1.958 -0.0925 -0.2848  0.1494
52003SOL    HW163059   2.982   1.664   1.879 -0.9044  0.0217  0.0684
52003SOL    HW263060   2.915   1.536   1.926 -2.1739  0.7181  0.1968
52004SOL     OW63061  11.427  10.926  10.963  0.1951 -0.1400  0.2711
52004SOL    HW163062  11.439  10.931  11.058 -0.6543 -3.3539  0.6591
52004SOL    HW263063  11.333  10.918  10.951  0.3651 -0.7713 -0.7432
52005SOL     OW63064   9.811   3.526   3.339 -0.1175  0.0999 -0.0533
52005SOL    HW163065   9.727   3.537   3.296 -0.4431 -0.5454  0.4037
52005SOL    HW263066   9.852   3.453   3.292 -0.5615 -0.7463  0.8357
52006SOL     OW63067   4.831  12.055   7.990 -0.2773  0.0594 -0.1945
52006SOL    HW163068   4.826  12.010   7.906  0.1991 -0.7077  0.1777
52006SOL    HW263069   4.844  12.147   7.968 -0.9771 -0.0153 -0.9626
52007SOL     OW63070   4.254  10.085  11.839 -0.1025  0.2683  0.1283
52007SOL    HW163071   4.191  10.132  11.784  2.1231  1.0814 -1.8947
52007SOL    HW263072   4.222   9.994  11.839 -1.6206  0.7657 -0.2534
52008SOL     OW63073   0.328   0.249   6.502 -0.4045 -0.1718 -0.0982
52008SOL    HW163074   0.417   0.237   6.537 -0.1465 -0.9169 -0.9910
52008SOL    HW263075   0.282   0.295   6.572 -0.5829 -3.6215  2.3286
52009SOL     OW63076   6.799   0.429   6.560 -0.0383 -0.0313  0.5497
52009SOL    HW163077   6.825   0.348   6.604  1.0026  0.4386  0.8159
52009SOL    HW263078   6.823   0.498   6.621  1.8079  0.6738 -0.8772
52010SOL     OW63079   8.934   7.883   0.257 -0.0277  0.0606  0.2009
52010SOL    HW163080   8.848   7.850   0.232 -0.0568 -0.5424  1.0841
52010SOL    HW263081   8.917   7.937   0.334  0.6033 -1.6357  1.5938
52011SOL     OW63082   6.450   9.153   9.501  0.3834 -0.1714  0.4032
52011SOL    HW163083   6.472   9.062   9.480 -2.7000 -1.7459  3.1091
52011SOL    HW263084   6.371   9.171   9.450  1.6233  1.5115 -1.0290
52012SOL     OW63085   4.404   5.743   3.026 -0.1677 -0.3200 -0.5430
52012SOL    HW163086   4.454   5.810   3.072  1.5814 -1.3070 -0.9429
52012SOL    HW263087   4.374   5.786   2.946  0.2773  0.2000 -0.4363
52013SOL     OW63088   3.043   4.338   5.281  0.9430  0.6273  0.4327
52013SOL    HW163089   2.949   4.326   5.276  0.8094  1.0566  1.5999
52013SOL    HW263090   3.077   4.294   5.204  0.0248 -2.0810  1.4586
52014SOL     OW63091  11.192   7.314   0.478 -0.0910  0.5395  0.6917
52014SOL    HW163092  11.165   7.222   0.474  1.1306  0.1725  0.5598
52014SOL    HW263093  11.287   7.311   0.482  0.1427  1.8302 -1.7333
52015SOL     OW63094   8.160   2.670   7.041  0.8101  0.4801  0.0597
52015SOL    HW163095   8.237   2.714   7.075  0.6512  0.7205  0.1075
52015SOL    HW263096   8.108   2.739   7.000  0.2004  0.4695  0.7824
52016SOL     OW63097   5.179  11.396   4.303  0.2400 -0.1317  0.1582
52016SOL    HW163098   5.219  11.309   4.304  0.0283 -0.2889 -1.9625
52016SOL    HW263099   5.252  11.456   4.314  0.5624 -0.5331  0.2329
52017SOL     OW63100   9.481   7.670  11.572  0.3069  0.1863 -0.4142
52017SOL    HW163101   9.551   7.682  11.637  0.7045  0.1269 -0.8255
52017SOL    HW263102   9.526   7.671  11.488 -0.3238  1.3193 -0.7614
52018SOL     OW63103   3.237   1.585   4.798  0.0119  0.3459 -0.1688
52018SOL    HW163104   3.195   1.514   4.847  0.6063  1.0053  1.3613
52018SOL    HW263105   3.173   1.655   4.796 -0.5478 -0.1524 -1.6219
52019SOL     OW63106  11.151   6.887  11.556  0.1022  0.6602 -0.0535
52019SOL    HW163107  11.117   6.950  11.619 -0.1633  1.7549 -1.2463
52019SOL    HW263108  11.241   6.916  11.539  0.4175 -0.0505  0.3304
52020SOL     OW63109   1.377   0.324   9.107 -0.1149 -0.4930  0.8283
52020SOL    HW163110   1.347   0.388   9.043 -0.6243 -1.9245 -0.4266
52020SOL    HW263111   1.376   0.371   9.190 -1.2660  0.8725  0.0919
52021SOL     OW63112   9.924   8.682   7.931  0.8137 -0.1137  0.3250
52021SOL    HW163113   9.872   8.649   8.005  0.2535  1.5355  0.6935
52021SOL    HW263114   9.862   8.689   7.859  0.3274  2.2859  0.8862
52022SOL     OW63115   6.614  12.043   9.061 -0.0106  0.2700 -0.0297
52022SOL    HW163116   6.543  12.012   9.118  0.3648  0.4358  0.5338
52022SOL    HW263117   6.580  12.123   9.022 -0.4709 -0.1236 -0.4531
52023SOL     OW63118   0.140  11.065   0.200 -0.4782  0.1841 -0.6087
52023SOL    HW163119   0.193  11.007   0.145 -0.4164  0.4227 -0.8068
52023SOL    HW263120   0.063  11.014   0.222  0.3457 -0.5672  0.6149
52024SOL     OW63121   8.516   2.950   4.453  0.2143 -0.1360  0.4608
52024SOL    HW163122   8.561   2.896   4.387  1.1346  0.9245  0.1910
52024SOL    HW263123   8.585   3.006   4.489 -0.9403  1.7948 -0.2041
52025SOL     OW63124   1.578   4.373   3.370  0.4535 -0.2504  0.3058
52025SOL    HW163125   1.590   4.321   3.290  1.2316  0.5477 -0.1140
52025SOL    HW263126   1.529   4.450   3.342 -2.7364 -1.7497  1.3446
52026SOL     OW63127   6.342  11.330   3.408 -0.5178 -0.0912 -0.0479
52026SOL    HW163128   6.302  11.395   3.465 -1.8440 -0.3521 -0.6371
52026SOL    HW263129   6.388  11.381   3.341  0.2212  0.2168  0.6908
52027SOL     OW63130  11.850   6.615   8.718 -0.7081 -0.3841 -0.0814
52027SOL    HW163131  11.764   6.591   8.752 -1.0222  0.1105 -0.5084
52027SOL    HW263132  11.835   6.697   8.671  0.0371 -0.1789  0.0246
52028SOL     OW63133   3.865   3.389  11.481  0.3080  0.1304 -0.0786
52028SOL    HW163134   3.788   3.445  11.484  1.0304  1.2061 -0.8953
52028SOL    HW263135   3.880   3.364  11.573 -1.0992 -0.2452  0.0652
52029SOL     OW63136  10.208   2.798   2.302  0.0453  0.0666  0.2000
52029SOL    HW163137  10.219   2.879   2.252 -0.6333 -1.4716 -2.6777
52029SOL    HW263138  10.114   2.780   2.298  0.1756 -0.8443  0.8309
52030SOL     OW63139   7.853   9.141   7.694  0.0417 -0.2381 -0.0632
52030SOL    HW163140   7.809   9.106   7.772  1.6561 -1.8795  0.1742
52030SOL    HW263141   7.844   9.072   7.628  1.2256 -0.1263 -0.3631
52031SOL     OW63142   8.969  10.110   9.430 -0.4737 -0.5913 -0.2393
52031SOL    HW163143   8.955  10.015   9.431 -0.0204 -0.6505  0.5344
52031SOL    HW263144   8.881  10.147   9.439 -0.4692 -0.9599  1.7396
52032SOL     OW63145   1.956   6.275   3.522  0.1723 -0.3339 -0.2568
52032SOL    HW163146   1.984   6.361   3.488 -1.1207 -0.5292 -1.9467
52032SOL    HW263147   2.031   6.218   3.507  1.3907  0.6440  1.7106
52033SOL     OW63148  12.510   7.524   4.144 -0.5005 -0.7477 -0.2238
52033SOL    HW163149  12.559   7.442   4.135 -1.9225 -1.6685 -0.0223
52033SOL    HW263150  12.521   7.549   4.236  0.9798  0.0045 -0.5810
52034SOL     OW63151   6.271  10.838   2.910  0.0251 -1.1932 -0.5604
52034SOL    HW163152   6.239  10.896   2.980 -0.0226 -0.5389 -1.1145
52034SOL    HW263153   6.353  10.878   2.881  0.3668 -1.8077 -0.4600
52035SOL     OW63154   6.240   8.840   4.622  0.3654  0.6129  0.0697
52035SOL    HW163155   6.269   8.831   4.713  0.2695 -0.1584  0.0360
52035SOL    HW263156   6.214   8.932   4.614 -1.7319  0.2329  1.4870
52036SOL     OW63157   4.771  11.296   7.266 -0.5589  1.0393  0.0881
52036SOL    HW163158   4.700  11.358   7.250 -0.4178  1.1938  0.0604
52036SOL    HW263159   4.738  11.212   7.235  0.2646  1.5750 -2.5164
52037SOL     OW63160  12.253   7.886   5.338 -0.0635  0.4817  0.0535
52037SOL    HW163161  12.322   7.948   5.315 -0.5178  1.4866  1.2604
52037SOL    HW263162  12.258   7.818   5.271  0.3750  1.8888 -1.4055
52038SOL     OW63163   4.028   5.164   1.042 -0.0005  0.1484  0.0609
52038SOL    HW163164   3.977   5.184   0.964 -0.7904  0.6580  0.6829
52038SOL    HW263165   4.106   5.219   1.035 -1.3986  2.4123  0.9773
52039SOL     OW63166   1.821   5.604   3.673  0.8977  0.0536 -0.3954
52039SOL    HW163167   1.794   5.689   3.708 -0.6472  0.4872 -2.4202
52039SOL    HW263168   1.868   5.562   3.744  0.2864  1.9467  1.2063
52040SOL     OW63169  12.527   6.757   5.363  0.1892  0.0040 -0.2597
52040SOL    HW163170  12.477   6.755   5.445  1.2953  0.4349  0.4520
52040SOL    HW263171  12.465   6.788   5.298 -1.2994 -2.2549 -0.0324
52041SOL     OW63172   7.706   3.825   9.077  0.2065  0.5526 -0.1387
52041SOL    HW163173   7.789   3.798   9.116  0.1843  0.1044 -0.3851
52041SOL    HW263174   7.729   3.852   8.988  0.4441  2.7354  0.5243
52042SOL     OW63175   1.275  12.430   2.414  0.4123 -0.3385  0.0589
52042SOL    HW163176   1.260  12.352   2.468 -0.5482  0.4820  1.0118
52042SOL    HW263177   1.260  12.503   2.473  1.7692  0.5972 -0.6919
52043SOL     OW63178   1.209   3.841  11.692 -0.4231  0.4620 -0.2699
52043SOL    HW163179   1.155   3.864  11.617  0.4082  1.0050 -0.7243
52043SOL    HW263180   1.155   3.781  11.743 -0.5944 -0.8519 -1.8954
52044SOL     OW63181  10.377   5.307   3.180 -0.1056  0.4744  0.3248
52044SOL    HW163182  10.407   5.232   3.230  0.1971 -0.9457 -1.8406
52044SOL    HW263183  10.364   5.273   3.091  0.0462  2.9716 -0.7441
52045SOL     OW63184   2.330   9.890   7.708  0.3466  0.2455  0.0891
52045SOL    HW163185   2.323   9.982   7.683 -0.9370  0.2411  0.3904
52045SOL    HW263186   2.273   9.881   7.784 -0.3156 -1.0011 -0.5158
52046SOL     OW63187  10.441   0.314   7.451  0.3745 -0.0654  0.0093
52046SOL    HW163188  10.363   0.296   7.399 -0.6025  1.9236  0.6662
52046SOL    HW263189  10.473   0.228   7.478 -0.9438 -0.9742 -1.1785
52047SOL     OW63190   7.343   2.765   8.350 -0.1289 -0.1191 -0.1450
52047SOL    HW163191   7.417   2.732   8.401  0.7130  1.1569 -0.5096
52047SOL    HW263192   7.272   2.772   8.414  0.9146  1.4765  0.8958
52048SOL     OW63193   1.105  11.690   1.828 -0.4520  0.1703  0.5989
52048SOL    HW163194   1.199  11.676   1.813 -0.7687 -0.6015 -0.9052
52048SOL    HW263195   1.101  11.742   1.908  1.2059 -0.9520  1.4738
52049SOL     OW63196   4.416   1.643   1.857  0.1130 -0.0179  0.4553
52049SOL    HW163197   4.425   1.561   1.906  1.1003 -0.4973 -0.4868
52049SOL    HW263198   4.392   1.707   1.923 -1.7439 -1.2497  1.0505
52050SOL     OW63199   5.937   5.260   1.758 -0.5515 -0.0712 -0.3568
52050SOL    HW163200   5.930   5.277   1.852  0.5906 -1.8139  0.0923
52050SOL    HW263201   5.910   5.169   1.747 -3.5466  0.9082 -2.2065
52051SOL     OW63202   3.239  12.072   6.548 -0.2320  0.5071 -0.3434
52051SOL    HW163203   3.169  12.076   6.612 -0.8679 -0.4485 -0.9473
52051SOL    HW263204   3.317  12.049   6.599 -0.6001  0.3799  0.1699
52052SOL     OW63205   3.914   7.129   5.717  0.3772  0.1857  0.1574
52052SOL    HW163206   3.915   7.224   5.724  0.7057  0.0836  2.0337
52052SOL    HW263207   3.874   7.099   5.799  0.3709 -1.2960 -0.3545
52053SOL     OW63208   7.932   8.128  10.460 -0.1662 -0.6458 -0.6660
52053SOL    HW163209   7.935   8.033  10.471  0.3949 -0.5317  0.2548
52053SOL    HW263210   7.839   8.148  10.448 -0.3841 -1.2183  0.0019
52054SOL     OW63211  10.124   2.502   6.442 -0.2540  0.3943  0.2657
52054SOL    HW163212  10.059   2.462   6.500 -1.8191 -0.3111 -1.8371
52054SOL    HW263213  10.103   2.468   6.355  1.4214  2.0687 -0.8883
52055SOL     OW63214   7.394   2.560   6.815 -0.1562 -0.2990  0.1961
52055SOL    HW163215   7.333   2.606   6.872  0.8068  1.8083 -0.3555
52055SOL    HW263216   7.441   2.500   6.873 -1.1129 -0.2483  1.0533
52056SOL     OW63217   9.716   1.546   6.575 -0.1880  0.0416  0.4260
52056SOL    HW163218   9.748   1.503   6.654  1.0125  0.0609 -0.0206
52056SOL    HW263219   9.738   1.639   6.588  0.9135 -0.0959 -0.3279
52057SOL     OW63220   4.606   9.629   8.839  0.1690  0.1059  0.5191
52057SOL    HW163221   4.671   9.601   8.903  1.3640 -0.5667 -0.9205
52057SOL    HW263222   4.523   9.629   8.887  1.0281 -0.2816  2.0614
52058SOL     OW63223  12.470   4.335   8.981  0.0263 -0.4048  0.3076
52058SOL    HW163224  12.399   4.282   8.945  1.0364 -0.8332 -1.1119
52058SOL    HW263225  12.426   4.413   9.014 -1.0220 -0.1793 -1.4795
52059SOL     OW63226  10.513  12.470  10.613 -0.3410  0.0181  0.0739
52059SOL    HW163227  10.546  12.534  10.675 -0.8898 -1.0254  1.5163
52059SOL    HW263228  10.590  12.420  10.586 -0.1484  0.2288  0.2309
52060SOL     OW63229   1.524   5.618   0.626  0.2180 -0.4847  0.4541
52060SOL    HW163230   1.473   5.698   0.635  0.6601 -0.2077  0.5446
52060SOL    HW263231   1.598   5.630   0.686  1.2372 -0.2066 -0.8113
52061SOL     OW63232   0.029   9.795   1.786  0.6151 -0.4955 -0.0808
52061SOL    HW163233  -0.016   9.716   1.755  2.2276 -1.4948  0.0322
52061SOL    HW263234  -0.021   9.820   1.864 -0.9469 -0.3740 -1.0589
52062SOL     OW63235   1.313  12.170   2.204 -0.0749  0.3181  0.6281
52062SOL    HW163236   1.321  12.260   2.235 -1.7987  0.8897 -0.4556
52062SOL    HW263237   1.399  12.131   2.220  0.9996  2.4148  0.2829
52063SOL     OW63238  10.241  11.627   1.785 -0.5018 -0.0831 -0.3981
52063SOL    HW163239  10.200  11.551   1.744  0.3668  0.4303 -2.3599
52063SOL    HW263240  10.321  11.642   1.734 -0.2611  1.6826  0.4080
52064SOL     OW63241   1.865   5.021   8.536 -0.5765 -0.1314  1.3518
52064SOL    HW163242   1.814   4.954   8.581 -0.8984 -0.5574  0.3712
52064SOL    HW263243   1.803   5.060   8.474  0.4253 -1.1029 -0.3354
52065SOL     OW63244   0.380   3.630   7.441  0.4970 -0.1254  0.3079
52065SOL    HW163245   0.466   3.598   7.412  0.8810  0.5357  0.6929
52065SOL    HW263246   0.380   3.616   7.536 -0.2985 -1.2195  0.1683
52066SOL     OW63247   2.028   0.919   8.631  0.9792 -0.4902  0.0043
52066SOL    HW163248   1.947   0.937   8.585  1.5684  1.7182 -0.2745
52066SOL    HW263249   2.015   0.832   8.670 -1.8023  0.1064  0.6294
52067SOL     OW63250   1.382   0.907  10.933  0.1207  0.2295 -0.3826
52067SOL    HW163251   1.356   0.879  10.845 -0.4292 -0.5827  0.0253
52067SOL    HW263252   1.300   0.929  10.976  0.3382  0.0767  0.1128
52068SOL     OW63253   7.640   5.947   5.392 -0.0389  0.5110  0.1645
52068SOL    HW163254   7.702   5.919   5.325 -0.3885  0.7068 -0.2475
52068SOL    HW263255   7.573   5.879   5.393 -1.0226  1.4301 -1.0154
52069SOL     OW63256  12.117   8.187   0.376  0.7719  0.8185 -0.3029
52069SOL    HW163257  12.024   8.210   0.382  1.0058  2.6447 -2.2959
52069SOL    HW263258  12.120   8.116   0.312  0.7287  0.7553 -0.2340
52070SOL     OW63259   5.555   0.154   4.585  0.2607  0.4863 -0.1115
52070SOL    HW163260   5.618   0.095   4.625  0.1387  0.3483 -0.1222
52070SOL    HW263261   5.479   0.099   4.565 -0.0940  0.7649  0.4380
52071SOL     OW63262   6.305   6.937   2.961 -0.0824  0.1318 -0.6888
52071SOL    HW163263   6.341   7.025   2.961 -0.1303  0.1517 -0.5391
52071SOL    HW263264   6.319   6.905   3.051  2.7862 -1.1850 -1.4773
52072SOL     OW63265  10.342  10.258   6.421 -0.2879 -0.2318 -1.0976
52072SOL    HW163266  10.426  10.290   6.452 -0.5038  2.6579 -3.1074
52072SOL    HW263267  10.288  10.252   6.500  1.5495 -1.5258  0.1286
52073SOL     OW63268  10.900   0.137  10.246 -0.2956 -0.1725 -0.0028
52073SOL    HW163269  10.907   0.232  10.253 -1.0952  0.0208 -1.4461
52073SOL    HW263270  10.825   0.114  10.301  0.2784 -0.0707  0.8522
52074SOL     OW63271  11.787   1.353   8.428 -0.2813  0.0902 -0.9702
52074SOL    HW163272  11.722   1.423   8.433 -0.6345 -0.2230 -1.1706
52074SOL    HW263273  11.813   1.338   8.519 -2.5816 -1.7372 -0.5404
52075SOL     OW63274   8.420  11.486   8.352 -0.2687  0.7048  0.1089
52075SOL    HW163275   8.428  11.540   8.430  1.6273  0.0059  0.4657
52075SOL    HW263276   8.451  11.399   8.379 -2.4530 -0.3807 -0.6544
52076SOL     OW63277   2.498   9.960   9.193 -0.8287 -0.0134  0.9092
52076SOL    HW163278   2.589   9.987   9.177 -1.2831  1.0452  0.0571
52076SOL    HW263279   2.505   9.900   9.268  0.7226 -0.9594  0.0650
52077SOL     OW63280   7.795   9.490   6.983 -0.1888  0.2379  0.1294
52077SOL    HW163281   7.815   9.475   6.891  0.4424 -0.2019  0.3290
52077SOL    HW263282   7.852   9.429   7.030 -0.5773  0.3840  0.8072
52078SOL     OW63283   9.568  11.455   6.778 -0.1682  0.3217  0.0535
52078SOL    HW163284   9.640  11.424   6.833 -0.1716 -3.7114 -1.8604
52078SOL    HW263285   9.489  11.440   6.829 -0.0722 -2.0927 -0.4073
52079SOL     OW63286   8.879   8.836   4.169  0.2489 -0.5843  0.2707
52079SOL    HW163287   8.936   8.889   4.225  0.2538 -0.6623  0.3407
52079SOL    HW263288   8.814   8.799   4.229 -0.7180  0.6209 -0.0079
52080SOL     OW63289   4.793  12.115   2.969  0.1562 -0.0917  0.0887
52080SOL    HW163290   4.791  12.161   3.053  0.3488  0.5531 -0.2525
52080SOL    HW263291   4.885  12.120   2.942 -0.1240  0.8188 -0.7524
52081SOL     OW63292   1.783  10.959   0.581  0.1758  0.2313 -0.0100
52081SOL    HW163293   1.855  11.021   0.592  0.3210  0.1785 -0.5882
52081SOL    HW263294   1.707  11.003   0.618  0.2125  0.8963 -0.6984
52082SOL     OW63295   4.668   8.659  10.352  0.8742  0.0660 -0.0268
52082SOL    HW163296   4.589   8.619  10.389  0.4534  1.6275  0.8178
52082SOL    HW263297   4.654   8.655  10.257 -0.4075  0.6735  0.1175
52083SOL     OW63298   8.214   6.211   6.107 -0.6695  0.4735 -0.2433
52083SOL    HW163299   8.150   6.165   6.052 -1.6196  1.1868  0.2438
52083SOL    HW263300   8.283   6.147   6.122 -1.6413 -0.5824 -0.1388
52084SOL     OW63301   1.355   7.421   0.436 -0.1240 -0.0107  0.3839
52084SOL    HW163302   1.360   7.327   0.452  0.1071 -0.0037  0.3545
52084SOL    HW263303   1.431   7.440   0.382 -0.3041  0.1519  0.1837
52085SOL     OW63304   3.664  10.501  11.610  0.2807 -0.1317  0.0301
52085SOL    HW163305   3.748  10.503  11.656  1.0705  0.9749 -1.3811
52085SOL    HW263306   3.600  10.530  11.675  0.9580 -1.0080  1.1307
52086SOL     OW63307   0.942   9.142   0.653  0.3479 -0.1358  0.1453
52086SOL    HW163308   0.935   9.200   0.729 -0.8529 -0.6845  0.4898
52086SOL    HW263309   1.015   9.177   0.603 -1.1317  2.5192 -0.3684
52087SOL     OW63310   2.146   4.596   1.482  0.6010  0.8428 -0.1074
52087SOL    HW163311   2.139   4.648   1.562  0.0059  0.8971 -0.1920
52087SOL    HW263312   2.156   4.506   1.513  2.3294  1.0545  0.0544
52088SOL     OW63313  11.677   0.325   4.143  0.7353 -0.1763 -0.1576
52088SOL    HW163314  11.715   0.327   4.056  1.3338 -0.6177  0.0877
52088SOL    HW263315  11.752   0.330   4.202  0.3969 -0.6777  0.3296
52089SOL     OW63316   6.097   1.073   5.887 -0.4317 -0.1814  0.0752
52089SOL    HW163317   6.154   1.061   5.963 -1.3959  1.0049  1.0430
52089SOL    HW263318   6.103   0.991   5.838  1.2959 -0.4491  0.6751
52090SOL     OW63319   6.447   0.550   4.290 -0.0046 -0.8881  0.2184
52090SOL    HW163320   6.442   0.471   4.344  1.0269 -1.1454 -0.0451
52090SOL    HW263321   6.422   0.521   4.202 -0.3007 -0.7707  0.2626
52091SOL     OW63322   6.419   3.151   1.793 -0.3901 -0.5638  0.4063
52091SOL    HW163323   6.445   3.153   1.701  0.0024  0.6906  0.5206
52091SOL    HW263324   6.323   3.155   1.791 -0.3382  2.0601  0.0489
52092SOL     OW63325   6.592  11.002   3.808 -0.2830  0.2217 -0.0471
52092SOL    HW163326   6.624  10.953   3.732  1.3174  0.6336  0.3310
52092SOL    HW263327   6.653  11.075   3.817 -1.9064  1.6012  0.1596
52093SOL     OW63328   7.893   6.284   9.415 -0.2763 -0.0869  0.2983
52093SOL    HW163329   7.964   6.328   9.368 -1.1537  1.1087  0.0408
52093SOL    HW263330   7.875   6.341   9.489 -0.0532 -1.1005  1.1585
52094SOL     OW63331   5.938   1.932  10.740 -0.9354 -0.1427 -0.5131
52094SOL    HW163332   5.911   2.023  10.734 -1.7986 -0.3277  0.2864
52094SOL    HW263333   5.903   1.891  10.661 -1.0252  0.1028 -0.5997
52095SOL     OW63334  10.824   4.632   6.578 -0.3293 -0.2462 -0.6525
52095SOL    HW163335  10.773   4.558   6.612  0.5886 -0.9480 -0.7563
52095SOL    HW263336  10.767   4.708   6.589 -1.3322 -0.9880 -0.6418
52096SOL     OW63337  10.592   7.021   5.666  0.2057  0.2147 -0.0645
52096SOL    HW163338  10.566   7.095   5.610  0.2485  1.0076  0.9340
52096SOL    HW263339  10.666   7.054   5.716 -2.1224  0.9336  3.2449
52097SOL     OW63340  10.900  11.290   8.461 -0.2802 -0.5863  0.0306
52097SOL    HW163341  10.820  11.343   8.458 -1.1629 -1.8069  0.8685
52097SOL    HW263342  10.948  11.324   8.536  0.8778  1.2975 -1.4786
52098SOL     OW63343   5.086   5.442  10.180 -0.2815  0.7150 -0.1091
52098SOL    HW163344   5.175   5.471  10.202 -0.0492 -1.3184  1.9569
52098SOL    HW263345   5.034   5.460  10.258 -0.8465 -1.2599  0.0219
52099SOL     OW63346   6.340   3.654   4.492 -0.2173  0.3790 -0.4816
52099SOL    HW163347   6.381   3.567   4.488 -1.5511 -0.2417 -1.6382
52099SOL    HW263348   6.333   3.673   4.585 -0.7309 -1.1873 -0.1625
52100SOL     OW63349  12.592  12.404   9.313  0.1616 -0.2136  0.0799
52100SOL    HW163350  12.552  12.447   9.389 -0.8474  1.5167 -1.3644
52100SOL    HW263351  12.563  12.313   9.320 -0.0151 -0.0698  1.6899
52101SOL     OW63352   2.629   1.387   7.532  0.3624 -0.6811  0.0166
52101SOL    HW163353   2.641   1.314   7.593  0.7618 -0.1760  0.5492
52101SOL    HW263354   2.561   1.441   7.573 -0.2554 -0.9746 -0.5959
52102SOL     OW63355   7.088   6.164   2.000  0.0164 -0.0071 -0.5699
52102SOL    HW163356   7.037   6.091   2.035  0.5943 -0.7033 -1.1393
52102SOL    HW263357   7.038   6.194   1.924  0.0340 -0.1455 -0.6361
52103SOL     OW63358   9.946   5.379  11.598  0.3745 -0.3717 -0.4699
52103SOL    HW163359  10.023   5.324  11.611  1.4523  0.7840 -1.7581
52103SOL    HW263360   9.962   5.455  11.653  0.0616 -0.2216 -0.5871
52104SOL     OW63361   9.254   0.804  10.504  0.2684  0.0217  0.4401
52104SOL    HW163362   9.337   0.849  10.517  0.0371  0.7762 -0.5505
52104SOL    HW263363   9.188   0.863  10.541  0.0266  0.2230 -0.2892
52105SOL     OW63364  10.373   7.586   2.799 -0.1990 -0.6511 -0.2366
52105SOL    HW163365  10.369   7.496   2.765 -0.1019 -1.1016  0.8924
52105SOL    HW263366  10.282   7.609   2.817 -0.2591 -0.3750 -0.8889
52106SOL     OW63367   1.484   8.866   6.213 -0.3158  0.1525  0.4643
52106SOL    HW163368   1.449   8.820   6.137  1.9989 -1.5031  0.2945
52106SOL    HW263369   1.441   8.824   6.288 -1.0118  0.3190  0.1661
52107SOL     OW63370   2.895   3.855   4.086 -0.8582  0.1082 -0.3864
52107SOL    HW163371   2.820   3.836   4.141 -1.0642  0.6279 -0.4848
52107SOL    HW263372   2.899   3.951   4.082 -1.5034  0.0988 -2.1460
52108SOL     OW63373   4.782   0.431   6.444  0.4787 -0.2489 -0.2862
52108SOL    HW163374   4.788   0.337   6.459  0.1506 -0.3858 -0.9706
52108SOL    HW263375   4.721   0.440   6.371  3.8495  0.1999 -3.3555
52109SOL     OW63376   5.381   2.168   1.036 -0.0298 -0.6472  0.6603
52109SOL    HW163377   5.290   2.157   1.066  0.8217 -0.8779  3.4036
52109SOL    HW263378   5.372   2.197   0.945 -2.8974  1.2085  1.3891
52110SOL     OW63379   8.604   9.165   5.446 -0.5892  0.1149  0.1324
52110SOL    HW163380   8.529   9.118   5.483  0.4352 -1.1441  0.7234
52110SOL    HW263381   8.639   9.215   5.519 -0.7441  0.5622 -0.0977
52111SOL     OW63382   5.799   4.384   3.367 -0.3108  0.0080  0.0582
52111SOL    HW163383   5.763   4.408   3.452  1.5876  1.4513  0.5116
52111SOL    HW263384   5.854   4.307   3.385 -1.0436 -0.5824 -0.1599
52112SOL     OW63385   7.836   3.713   2.821  0.0259  0.0170 -0.5193
52112SOL    HW163386   7.919   3.681   2.787  0.0874  0.0901 -0.4382
52112SOL    HW263387   7.825   3.667   2.905  0.3453  0.5580 -0.1725
52113SOL     OW63388   4.913   8.476   3.011  0.1123 -0.0477 -0.1239
52113SOL    HW163389   5.002   8.462   3.042 -0.0110 -0.5510  0.0174
52113SOL    HW263390   4.901   8.571   3.014 -0.0725 -0.0850  1.9087
52114SOL     OW63391  10.301   6.349   7.655 -0.2933 -0.4478 -0.8937
52114SOL    HW163392  10.214   6.316   7.674 -0.5135  0.1674 -0.8156
52114SOL    HW263393  10.311   6.426   7.711 -0.0904  0.0725 -1.6200
52115SOL     OW63394   3.631  11.524  10.022  0.1451  0.3814 -0.0206
52115SOL    HW163395   3.620  11.619  10.029  0.2877  0.4363 -0.5079
52115SOL    HW263396   3.721  11.508  10.052 -0.9072 -0.0126  3.4708
52116SOL     OW63397  10.367  10.175   9.679 -0.5681  0.2845  0.0388
52116SOL    HW163398  10.355  10.116   9.754 -2.2710  0.9995  0.3729
52116SOL    HW263399  10.295  10.237   9.686 -0.2078  0.9437 -1.6843
52117SOL     OW63400   1.561   1.405   8.729 -0.1456  0.7716  0.1433
52117SOL    HW163401   1.472   1.423   8.699 -0.6101 -2.6146 -0.9559
52117SOL    HW263402   1.555   1.406   8.825 -2.3938 -2.7967  0.2282
52118SOL     OW63403   5.840  12.490   4.225 -0.4609  0.3871 -0.2648
52118SOL    HW163404   5.900  12.564   4.214 -1.6821  1.5058  0.3417
52118SOL    HW263405   5.891  12.424   4.272  0.2534  1.3661  0.3631
52119SOL     OW63406   3.051   3.641  12.571  0.1138 -0.3140 -0.3325
52119SOL    HW163407   2.964   3.607  12.549 -0.0188  0.6740 -1.4078
52119SOL    HW263408   3.036   3.698  12.646 -0.1061 -0.4052 -0.3061
52120SOL     OW63409   0.644   8.121  12.151  0.0560 -0.0371 -0.2800
52120SOL    HW163410   0.590   8.067  12.208 -1.5409  0.7828 -0.9628
52120SOL    HW263411   0.605   8.110  12.064  1.6715 -0.2661 -1.0135
52121SOL     OW63412   4.619   0.128   6.327  0.2999 -0.0617 -0.1160
52121SOL    HW163413   4.671   0.152   6.403 -1.4813  0.7735  0.8845
52121SOL    HW263414   4.635   0.034   6.316  1.0437 -0.0724  0.9198
52122SOL     OW63415   2.614   8.924   7.257  0.1262 -0.3241  0.7587
52122SOL    HW163416   2.520   8.912   7.268  0.0642  0.7122  1.4663
52122SOL    HW263417   2.629   8.904   7.164 -0.7734 -0.5365  0.6420
52123SOL     OW63418   3.427  10.621   3.599 -0.2956 -0.2546 -0.0060
52123SOL    HW163419   3.486  10.673   3.545 -0.3940 -0.3556 -0.2129
52123SOL    HW263420   3.365  10.583   3.537 -0.4842 -0.2725  0.1915
52124SOL     OW63421  11.087   1.362   1.064 -0.3560  0.2160 -0.0653
52124SOL    HW163422  11.171   1.390   1.101  0.4763 -2.3057  0.1697
52124SOL    HW263423  11.085   1.402   0.977  1.2375  0.1028 -0.1812
52125SOL     OW63424   2.808  11.885   0.491  0.5916  0.2633 -0.3578
52125SOL    HW163425   2.828  11.865   0.583 -1.8655 -0.2111  0.1532
52125SOL    HW263426   2.791  11.979   0.490  0.3784  0.2267 -0.2624
52126SOL     OW63427  11.258   7.853   3.146  0.3084 -0.1381 -0.0617
52126SOL    HW163428  11.249   7.853   3.241 -0.0161 -0.7176 -0.0910
52126SOL    HW263429  11.328   7.791   3.128 -0.2385 -0.7062 -0.2537
52127SOL     OW63430  10.284  10.891  10.429 -0.1975  0.0708 -0.2092
52127SOL    HW163431  10.309  10.971  10.476 -1.5308 -0.4574  1.4830
52127SOL    HW263432  10.365  10.841  10.422  0.1989  0.5382  0.8027
52128SOL     OW63433  11.648   5.075   1.783 -0.0880  0.5009 -0.3622
52128SOL    HW163434  11.608   5.140   1.725 -2.2870  1.1317  1.6756
52128SOL    HW263435  11.643   5.114   1.870  1.7467 -0.9964  0.4891
52129SOL     OW63436   8.613  10.671   2.912 -0.0134  0.2321 -0.1566
52129SOL    HW163437   8.693  10.709   2.875 -0.0707  0.0160 -0.5087
52129SOL    HW263438   8.561  10.746   2.939  0.0007  0.3953 -0.5780
52130SOL     OW63439   3.878   3.831   7.704 -0.5755  0.0161 -0.1155
52130SOL    HW163440   3.800   3.878   7.675  1.2212  2.9271 -0.5410
52130SOL    HW263441   3.941   3.842   7.634  0.2424 -2.4763  0.1249
52131SOL     OW63442  11.769  11.779  12.557 -0.0834 -0.1575  0.0910
52131SOL    HW163443  11.792  11.815  12.643 -1.8748 -2.0912  1.4824
52131SOL    HW263444  11.846  11.796  12.502  0.9866  1.4385  1.9562
52132SOL     OW63445   6.916   6.270   0.314 -0.6591 -0.6189 -0.5920
52132SOL    HW163446   6.837   6.218   0.329 -0.5993 -0.9072 -1.2161
52132SOL    HW263447   6.926   6.323   0.393 -0.5375 -1.8071  0.2156
52133SOL     OW63448   7.389   6.569   4.689 -0.4473 -0.1257 -0.0815
52133SOL    HW163449   7.328   6.498   4.707 -1.7043  0.9665  0.1176
52133SOL    HW263450   7.380   6.585   4.595  0.0774 -0.4387 -0.1879
52134SOL     OW63451  11.222  12.053   2.725 -0.3472 -0.3335  0.0284
52134SOL    HW163452  11.144  12.039   2.671 -0.5068 -1.6141  0.5465
52134SOL    HW263453  11.193  12.111   2.796 -0.2445  0.9997 -0.9759
52135SOL     OW63454   0.659   5.731   7.249 -0.6497  0.0306 -0.1995
52135SOL    HW163455   0.610   5.787   7.309 -1.1550 -1.7142  1.1238
52135SOL    HW263456   0.751   5.745   7.274 -0.5719  1.7227 -1.2624
52136SOL     OW63457   1.742  12.190  12.021 -0.5842 -0.0768  0.1963
52136SOL    HW163458   1.790  12.113  11.992 -0.2908  0.1300  0.1261
52136SOL    HW263459   1.806  12.262  12.017 -0.7737  0.1179  0.5216
52137SOL     OW63460   6.651   7.495   2.490  0.4446  0.0844 -0.0417
52137SOL    HW163461   6.674   7.408   2.459 -2.4377 -0.0298 -2.2490
52137SOL    HW263462   6.588   7.528   2.427 -0.6907  2.6714  2.2050
52138SOL     OW63463   5.466  11.645  11.466 -0.0201  0.1700 -0.7527
52138SOL    HW163464   5.457  11.565  11.414 -0.8668  0.6973 -1.4429
52138SOL    HW263465   5.410  11.709  11.422  0.8883  1.2456 -0.3889
52139SOL     OW63466  11.245   1.002   9.761 -0.0759  0.4294 -0.1236
52139SOL    HW163467  11.299   1.055   9.702 -1.2221  0.4820 -1.1921
52139SOL    HW263468  11.297   0.991   9.840  0.3041  2.9665  0.0608
52140SOL     OW63469   5.287   4.106   3.790 -0.2313  0.3136 -0.2615
52140SOL    HW163470   5.381   4.119   3.776 -0.1892  1.5507  0.9950
52140SOL    HW263471   5.248   4.124   3.704  0.8548 -3.6934 -1.8641
52141SOL     OW63472   2.473   9.329   0.932  0.9124 -0.1833  0.6357
52141SOL    HW163473   2.432   9.338   1.018  2.1663  2.3226  1.0546
52141SOL    HW263474   2.417   9.378   0.873  1.9721  1.2652  0.7770
52142SOL     OW63475  10.863   0.559  12.011 -0.2330 -0.4411  0.0680
52142SOL    HW163476  10.847   0.648  11.980  2.1259 -0.0029 -0.0787
52142SOL    HW263477  10.935   0.526  11.956 -0.1395 -1.9226  1.0081
52143SOL     OW63478   6.846   8.551   4.434 -0.0199  0.5884 -0.6423
52143SOL    HW163479   6.790   8.525   4.362 -0.5259 -1.0944  0.2994
52143SOL    HW263480   6.935   8.538   4.401 -0.2477 -0.3507 -0.9193
52144SOL     OW63481   2.641   1.483   3.687 -0.0088  0.3339 -0.0150
52144SOL    HW163482   2.674   1.572   3.700  1.4212 -0.2654  0.7890
52144SOL    HW263483   2.616   1.454   3.775 -1.1813  0.1905 -0.3834
52145SOL     OW63484   7.924   5.000  11.721 -0.0592  0.8175  0.1891
52145SOL    HW163485   7.863   4.931  11.748  1.5022 -0.1532  1.4402
52145SOL    HW263486   7.948   4.977  11.631 -1.7491  1.4161 -0.4539
52146SOL     OW63487   7.933   5.345   0.406 -0.5442 -0.0716 -0.1594
52146SOL    HW163488   7.839   5.362   0.401 -0.5779 -0.4954 -1.3456
52146SOL    HW263489   7.973   5.430   0.425 -1.1285  0.2248 -0.2508
52147SOL     OW63490   1.965   4.781  12.072  0.0419  0.6389 -0.5605
52147SOL    HW163491   1.928   4.790  11.984  0.0329 -0.7708 -0.7347
52147SOL    HW263492   1.908   4.834  12.128 -0.3689  0.9934 -1.2972
52148SOL     OW63493   2.306   9.466   0.754 -0.0643 -0.0685  0.1087
52148SOL    HW163494   2.213   9.442   0.752 -0.0343 -0.2737  0.7601
52148SOL    HW263495   2.307   9.552   0.796 -0.1516  1.0349 -2.0289
52149SOL     OW63496   4.177   8.812   0.625  0.0488  0.2571  0.1583
52149SOL    HW163497   4.231   8.804   0.546 -0.1661 -1.0272  0.1207
52149SOL    HW263498   4.192   8.902   0.655 -0.7245  1.1581 -1.9643
52150SOL     OW63499   6.670   9.573   0.643  0.3071 -0.4279 -0.0301
52150SOL    HW163500   6.686   9.634   0.571 -1.0844 -0.6755 -0.5787
52150SOL    HW263501   6.758   9.550   0.675  0.8784  2.1736  0.5035
52151SOL     OW63502  10.187   5.395   9.410 -0.1217  0.0923  0.1650
52151SOL    HW163503  10.149   5.420   9.494 -0.9163 -2.8400  0.8086
52151SOL    HW263504  10.137   5.445   9.345 -0.5610  1.2207  1.3400
52152SOL     OW63505   9.698  12.156   4.277 -0.0023 -0.0513  0.6608
52152SOL    HW163506   9.650  12.202   4.346 -1.4039 -0.7526  0.1798
52152SOL    HW263507   9.739  12.082   4.321  1.5442  1.1193  1.2731
52153SOL     OW63508   6.403   8.233   1.508 -0.2436  0.0678 -0.3479
52153SOL    HW163509   6.404   8.143   1.474 -3.0776 -0.0895 -0.2343
52153SOL    HW263510   6.365   8.284   1.437 -0.8355  0.7658  0.4679
52154SOL     OW63511  10.296  11.561   5.089  0.2505 -0.2726  0.0580
52154SOL    HW163512  10.281  11.470   5.061  0.4187 -0.4759  0.6124
52154SOL    HW263513  10.229  11.576   5.155 -0.6583  0.4690 -0.9980
52155SOL     OW63514   2.650   1.989   4.995  0.2644 -0.1420  0.4486
52155SOL    HW163515   2.669   2.071   4.950 -0.0726 -0.9097 -1.1792
52155SOL    HW263516   2.718   1.981   5.061  2.3599 -0.1561 -1.5846
52156SOL     OW63517   1.034   5.066   0.027 -0.2293 -0.2194  0.7026
52156SOL    HW163518   1.076   5.002  -0.030  0.2761  0.8052 -0.1062
52156SOL    HW263519   1.099   5.086   0.094  0.2058  0.5875  0.0548
52157SOL     OW63520   2.466   4.246  10.065 -0.8181 -1.2481  0.5465
52157SOL    HW163521   2.490   4.326  10.112 -0.7625 -1.1718  0.3890
52157SOL    HW263522   2.387   4.268  10.017  0.9490 -0.2387 -2.1531
52158SOL     OW63523   6.080  11.058   7.339  0.6215  0.4301 -0.0923
52158SOL    HW163524   6.110  11.132   7.391  0.6681  0.5911 -0.3490
52158SOL    HW263525   6.091  10.982   7.397 -0.6284  0.7750  0.6446
52159SOL     OW63526   0.868   4.454   2.949 -0.0006  0.1122 -0.5386
52159SOL    HW163527   0.929   4.516   2.910  0.3927  0.0666  0.0038
52159SOL    HW263528   0.864   4.479   3.041  1.1883 -1.5056 -0.0272
52160SOL     OW63529   1.416   0.737   8.203 -0.2266 -0.1830 -0.0835
52160SOL    HW163530   1.488   0.674   8.203 -0.2412 -0.1997 -0.1222
52160SOL    HW263531   1.449   0.811   8.151  0.2121  0.3252  0.8973
52161SOL     OW63532  10.440   4.429   6.270 -0.0321 -0.4572 -0.6355
52161SOL    HW163533  10.413   4.361   6.207 -0.9928 -1.0719  0.3964
52161SOL    HW263534  10.528   4.402   6.297  1.5741  1.2520 -3.6140
52162SOL     OW63535   1.767   3.252   4.773  0.2894  0.1963 -0.0211
52162SOL    HW163536   1.762   3.297   4.689 -0.3255 -0.9515 -0.6261
52162SOL    HW263537   1.853   3.275   4.808  1.1688 -0.4402 -1.6488
52163SOL     OW63538   6.830   3.966   2.808  0.2760  0.3579 -0.3749
52163SOL    HW163539   6.771   4.031   2.771 -1.4540  0.0890  1.6951
52163SOL    HW263540   6.847   3.997   2.897  0.0951 -1.5499  0.3695
52164SOL     OW63541   3.170   7.482   5.778 -0.3241  0.7553 -0.6773
52164SOL    HW163542   3.118   7.468   5.699 -1.3650  1.5606 -0.1571
52164SOL    HW263543   3.108   7.470   5.850  0.4473  0.7185 -0.0046
52165SOL     OW63544   4.250   3.629   1.011 -0.2426 -0.1713 -0.1182
52165SOL    HW163545   4.190   3.572   1.060 -1.4895  1.9443  0.9860
52165SOL    HW263546   4.261   3.706   1.068  0.6730  1.0756 -1.8911
52166SOL     OW63547   6.941   5.825   7.926 -0.5941  0.0556  0.1957
52166SOL    HW163548   6.863   5.881   7.930 -0.6306  0.0060  0.1687
52166SOL    HW263549   6.952   5.807   7.833 -1.3838 -1.1174  0.3105
52167SOL     OW63550   9.807   1.088   5.265  0.1014  0.6671 -0.3130
52167SOL    HW163551   9.744   1.077   5.194 -0.3074 -1.8934  0.3310
52167SOL    HW263552   9.886   1.044   5.233  0.3277  0.5989  0.3201
52168SOL     OW63553  11.472   7.620   5.981 -0.4245 -0.0631 -0.2595
52168SOL    HW163554  11.392   7.634   6.032 -0.1334  0.6293  0.0188
52168SOL    HW263555  11.448   7.553   5.917 -1.8219  1.4580 -1.4308
52169SOL     OW63556  11.058   0.079  11.934  0.1958 -0.0115 -0.0789
52169SOL    HW163557  11.020  -0.004  11.904 -0.1396 -0.0959  0.5638
52169SOL    HW263558  10.991   0.145  11.915 -0.5907 -0.2585  1.6805
52170SOL     OW63559  10.213   8.873   4.396  0.1894 -0.1612  0.2476
52170SOL    HW163560  10.232   8.828   4.479  0.3145 -0.1094  0.2468
52170SOL    HW263561  10.246   8.813   4.329 -2.0600 -1.3754  0.0966
52171SOL     OW63562   5.619   7.901   1.716 -0.4860 -0.0514  0.1980
52171SOL    HW163563   5.527   7.908   1.688 -0.7238 -0.1840  0.9319
52171SOL    HW263564   5.662   7.975   1.673 -0.6135 -0.8288 -1.3675
52172SOL     OW63565   7.573   1.602   3.655 -0.2142  0.3199 -0.2482
52172SOL    HW163566   7.618   1.580   3.573 -1.8739  1.6315 -1.5892
52172SOL    HW263567   7.481   1.582   3.638 -0.5455  0.3129  1.4234
52173SOL     OW63568  12.536   9.638  11.448 -0.3558 -0.4400 -0.1846
52173SOL    HW163569  12.452   9.674  11.476 -1.0433 -1.0291 -1.4061
52173SOL    HW263570  12.597   9.711  11.453 -1.2471  0.3480 -0.5591
52174SOL     OW63571   5.860  11.432   1.211  0.3489  0.5260 -0.0524
52174SOL    HW163572   5.807  11.495   1.161 -0.3090 -0.9089 -1.2137
52174SOL    HW263573   5.949  11.446   1.181  0.5549  2.2786  1.1948
52175SOL     OW63574   5.800   2.592   2.312  0.5182  0.2439  0.1541
52175SOL    HW163575   5.728   2.631   2.362  0.7157  0.2547  0.4357
52175SOL    HW263576   5.808   2.504   2.348  0.3230  0.0726 -0.2180
52176SOL     OW63577   0.891   7.530  11.574 -0.3960 -0.0916 -0.4208
52176SOL    HW163578   0.861   7.459  11.631 -0.6162  0.0581 -0.3467
52176SOL    HW263579   0.834   7.604  11.596  0.1358  0.2503 -0.1535
52177SOL     OW63580  10.053   3.384   9.384  0.2885 -0.4353 -0.2179
52177SOL    HW163581  10.102   3.329   9.445  2.7250  0.6885 -1.0186
52177SOL    HW263582  10.088   3.360   9.298 -0.8184  0.2156 -0.8672
52178SOL     OW63583   3.228   4.669   5.710 -0.1213  0.5784 -0.0506
52178SOL    HW163584   3.197   4.636   5.794 -0.8206  0.2704 -0.4164
52178SOL    HW263585   3.169   4.742   5.690 -0.9683 -0.3496 -1.0083
52179SOL     OW63586   4.527   9.058   1.261  0.3271  0.2994 -0.3542
52179SOL    HW163587   4.561   9.003   1.331  1.1601  0.8944 -0.2738
52179SOL    HW263588   4.548   9.148   1.288 -2.5049  0.8505  0.3563
52180SOL     OW63589   3.020   3.438  10.324 -0.2081 -0.1588  0.2159
52180SOL    HW163590   2.965   3.498  10.274 -1.2228 -0.8138  0.5121
52180SOL    HW263591   2.978   3.432  10.410  0.0493 -1.0476  0.2928
52181SOL     OW63592   6.923  10.597   1.006 -0.1730 -0.1592 -0.0266
52181SOL    HW163593   6.953  10.563   1.090 -0.8951  0.1998  0.3890
52181SOL    HW263594   6.948  10.689   1.007 -0.8816  0.0383  0.1419
52182SOL     OW63595  10.299   0.355   8.155 -0.4956  0.1094 -0.3714
52182SOL    HW163596  10.340   0.438   8.128 -2.4861  0.4473 -2.7173
52182SOL    HW263597  10.254   0.377   8.237 -0.6154  1.2223 -0.7128
52183SOL     OW63598   2.868   1.362   4.781  0.2406 -0.3531  0.3885
52183SOL    HW163599   2.783   1.331   4.750  0.1710 -1.4611  1.6515
52183SOL    HW263600   2.863   1.357   4.876  1.0706  1.3729  0.5743
52184SOL     OW63601   9.123  11.150   5.798 -0.1396  0.4454 -0.6855
52184SOL    HW163602   9.111  11.165   5.892  1.0733  3.6032 -0.9290
52184SOL    HW263603   9.145  11.057   5.792  0.5589  0.3169  2.2464
52185SOL     OW63604   3.954  11.639   6.825 -0.0448  0.7363 -0.1200
52185SOL    HW163605   3.893  11.572   6.856  2.1239 -0.1807  2.6604
52185SOL    HW263606   3.989  11.678   6.905  1.3278  2.8022 -1.6329
52186SOL     OW63607   1.131   1.160   6.365  0.5302  0.2528 -0.3088
52186SOL    HW163608   1.201   1.191   6.307 -0.6082  1.6918 -0.9991
52186SOL    HW263609   1.064   1.127   6.305  1.4005 -3.1423  0.3771
52187SOL     OW63610  10.387   3.702   9.466  0.2629 -0.4524 -0.1564
52187SOL    HW163611  10.471   3.656   9.470  0.5664  0.1346  0.4837
52187SOL    HW263612  10.323   3.639   9.499  0.7027 -0.3492  0.9186
52188SOL     OW63613   7.264   4.634   5.519 -0.1108 -0.6371 -0.2094
52188SOL    HW163614   7.345   4.584   5.514  0.4779  0.3671 -1.1985
52188SOL    HW263615   7.249   4.665   5.429 -0.4652  0.9072  0.3562
52189SOL     OW63616   3.370  11.639   7.138 -0.0303  0.8292 -0.6206
52189SOL    HW163617   3.439  11.667   7.198  0.1967 -1.3285  0.2312
52189SOL    HW263618   3.312  11.715   7.130  1.3882  2.0461  0.1861
52190SOL     OW63619   4.484   0.738   7.982 -0.0303 -0.5359 -0.3811
52190SOL    HW163620   4.502   0.796   8.057 -0.4231 -3.2890  2.0351
52190SOL    HW263621   4.394   0.760   7.956  0.3204  0.8733 -0.4626
52191SOL     OW63622   2.861   6.265   3.064  0.2992 -0.5102 -0.0724
52191SOL    HW163623   2.790   6.214   3.104 -0.6810 -0.7533 -1.9759
52191SOL    HW263624   2.830   6.355   3.066  0.6960 -0.3857  0.5996
52192SOL     OW63625   7.737  11.402   1.294 -0.2773 -0.1953 -0.2708
52192SOL    HW163626   7.711  11.492   1.275 -2.1129 -0.6380 -0.0376
52192SOL    HW263627   7.831  11.399   1.273 -0.1645  1.7677 -0.2125
52193SOL     OW63628   6.820   0.156   6.697 -0.3527  0.0911  0.2521
52193SOL    HW163629   6.809   0.131   6.606  1.4125 -1.0701  0.3077
52193SOL    HW263630   6.760   0.099   6.745 -1.3612  0.7753 -0.1525
52194SOL     OW63631   1.404   6.749   9.916 -0.0808  0.2468  0.1060
52194SOL    HW163632   1.493   6.716   9.925  0.4385  0.4833 -2.8589
52194SOL    HW263633   1.397   6.820   9.980  1.1957 -0.9588  1.6463
52195SOL     OW63634  12.248   7.439  11.435  0.2493 -0.5490 -0.1670
52195SOL    HW163635  12.173   7.386  11.464  1.2201 -2.7572 -1.4249
52195SOL    HW263636  12.209   7.520  11.402 -1.6584 -1.7583 -1.0543
52196SOL     OW63637   9.612   3.861  11.440 -0.3894 -0.3474 -0.5550
52196SOL    HW163638   9.563   3.779  11.439  1.2100 -1.3685  0.0705
52196SOL    HW263639   9.633   3.875  11.532  1.0149 -0.2916 -0.8627
52197SOL     OW63640  10.339   1.068   3.645 -0.1906  0.2346 -0.0783
52197SOL    HW163641  10.358   1.053   3.553 -0.4125  1.5291 -0.3641
52197SOL    HW263642  10.283   1.146   3.645  0.3484  0.6485  1.1882
52198SOL     OW63643   1.809   9.300   1.343  0.2197  0.0269 -0.2255
52198SOL    HW163644   1.876   9.238   1.373 -0.5232 -0.3461  0.6809
52198SOL    HW263645   1.838   9.324   1.254  0.2019 -2.1047 -0.8755
52199SOL     OW63646   3.262   6.008   2.056  0.2561  0.2916  0.4505
52199SOL    HW163647   3.266   5.998   1.961 -0.2751 -0.4735  0.4939
52199SOL    HW263648   3.309   5.932   2.091 -1.0037 -0.3754  0.7889
52200SOL     OW63649   4.542   9.633   6.308 -0.4365  0.1044 -0.3880
52200SOL    HW163650   4.527   9.686   6.230 -2.8735 -0.9578 -0.7303
52200SOL    HW263651   4.483   9.670   6.374  1.4371  0.8666  0.9791
52201SOL     OW63652   6.829   4.741   1.768 -0.2792 -0.6099 -0.2159
52201SOL    HW163653   6.853   4.651   1.793  0.2382 -1.0368 -2.1036
52201SOL    HW263654   6.755   4.730   1.709 -1.3084  0.3566  0.8416
52202SOL     OW63655   6.929  11.765   1.360  0.3063  0.3022  0.1910
52202SOL    HW163656   6.925  11.762   1.265  0.8394  0.8131  0.1480
52202SOL    HW263657   6.966  11.680   1.385 -0.1513  0.0315 -0.0321
52203SOL     OW63658   0.450   5.241   2.907  0.0918  0.2185  0.6206
52203SOL    HW163659   0.424   5.226   2.816 -2.3909 -2.3230  1.5963
52203SOL    HW263660   0.426   5.332   2.923 -0.6661  0.3295 -0.9000
52204SOL     OW63661  10.186   2.637   8.661  0.2496 -0.2312  0.0123
52204SOL    HW163662  10.176   2.542   8.665 -0.1389 -0.4240 -2.9890
52204SOL    HW263663  10.124   2.665   8.593  1.3071  1.9827 -0.1427
52205SOL     OW63664   2.227   1.009   2.009 -1.0342  0.1547  0.2919
52205SOL    HW163665   2.245   1.084   2.066 -0.6967 -0.3442  0.8448
52205SOL    HW263666   2.171   0.952   2.061  1.1741 -1.4427  1.0583
52206SOL     OW63667  11.139   0.797  10.032 -0.2075  0.3103 -0.3256
52206SOL    HW163668  11.206   0.772   9.969 -0.2385  0.9328 -0.6140
52206SOL    HW263669  11.162   0.886  10.059 -2.0875  1.4149 -2.0832
52207SOL     OW63670   0.036  11.497   8.117 -0.5555 -0.5909 -0.0906
52207SOL    HW163671  -0.036  11.537   8.166 -1.3266 -0.9653 -0.9037
52207SOL    HW263672   0.079  11.571   8.074  0.6426 -0.1482  1.7572
52208SOL     OW63673   5.863   2.001   7.682 -0.4570 -0.0375 -0.1535
52208SOL    HW163674   5.853   1.945   7.759  1.2083  0.0044  0.1192
52208SOL    HW263675   5.815   1.955   7.613  0.5274 -1.6073  0.1627
52209SOL     OW63676   6.813   9.337   6.567 -0.1764 -0.2957  0.2274
52209SOL    HW163677   6.825   9.242   6.576  2.0967  0.0619  1.7797
52209SOL    HW263678   6.852   9.358   6.483  1.1745 -0.5023  0.7859
52210SOL     OW63679  10.806  10.086   3.425 -0.5106  0.2665 -0.5645
52210SOL    HW163680  10.769  10.173   3.437  1.2044  1.0204 -0.3781
52210SOL    HW263681  10.756  10.030   3.484 -0.1466  1.5787  1.0595
52211SOL     OW63682   7.411   6.513  10.975  0.6310  0.1610 -0.0921
52211SOL    HW163683   7.468   6.480  11.045  0.7666 -1.7549 -1.0383
52211SOL    HW263684   7.472   6.546  10.908  0.6677 -1.1376 -0.7440
52212SOL     OW63685   6.254   1.163  10.665 -0.4109 -1.1222 -0.1391
52212SOL    HW163686   6.348   1.169  10.644 -0.9006  0.1122 -2.3277
52212SOL    HW263687   6.246   1.083  10.716  1.3837 -3.3277 -3.0152
52213SOL     OW63688  10.770   8.284   0.682 -0.0036  0.0810 -0.5049
52213SOL    HW163689  10.818   8.335   0.748 -1.3598 -0.4490  0.9582
52213SOL    HW263690  10.681   8.281   0.715 -0.0373 -3.1173 -0.5817
52214SOL     OW63691   9.449   5.936  10.879 -0.1615  0.2337  0.2035
52214SOL    HW163692   9.497   5.876  10.823 -0.6702 -0.0833  0.1002
52214SOL    HW263693   9.489   6.022  10.863  0.5397 -0.0677  0.3216
52215SOL     OW63694  12.270   4.082   3.596  0.7047  0.5841 -0.1887
52215SOL    HW163695  12.283   4.155   3.536  0.4511 -0.0413 -1.0156
52215SOL    HW263696  12.358   4.051   3.615  0.7724  0.6372 -0.4130
52216SOL     OW63697  11.295   2.138   7.593 -0.3091  0.0588  0.3709
52216SOL    HW163698  11.229   2.114   7.527 -0.5609 -0.3246  0.7536
52216SOL    HW263699  11.371   2.085   7.571 -1.1312 -1.8106  1.6983
52217SOL     OW63700   7.325   5.979  12.301 -0.5140  0.1859  0.3310
52217SOL    HW163701   7.250   5.919  12.305 -0.6255  0.1944 -1.2272
52217SOL    HW263702   7.396   5.926  12.264 -1.1756  1.4686 -3.0915
52218SOL     OW63703   5.220   0.924   4.287  0.5218  0.5475  0.3983
52218SOL    HW163704   5.250   0.971   4.209  0.0211 -0.4052 -0.3995
52218SOL    HW263705   5.211   0.991   4.354  1.4589  1.3171 -0.2118
52219SOL     OW63706  11.140  11.357   1.055 -0.5494  0.1734  0.2596
52219SOL    HW163707  11.140  11.448   1.027 -0.6466  0.2954  0.6441
52219SOL    HW263708  11.087  11.311   0.990 -2.2835  0.7581  1.1813
52220SOL     OW63709   5.456   9.610  11.878  0.0052  0.3163 -0.2456
52220SOL    HW163710   5.374   9.599  11.830  0.0106 -0.6220 -0.0535
52220SOL    HW263711   5.522   9.621  11.810 -0.0552 -0.5421 -0.4530
52221SOL     OW63712   0.560   7.263  12.119 -0.1082 -0.1335  0.0565
52221SOL    HW163713   0.567   7.250  12.024  0.5648  0.3094  0.0420
52221SOL    HW263714   0.648   7.247  12.152 -0.5321 -1.1767  0.7297
52222SOL     OW63715   2.995  10.188   1.404  0.0273  0.6774  0.1479
52222SOL    HW163716   3.038  10.111   1.367  0.1559  0.5841  0.4924
52222SOL    HW263717   2.914  10.196   1.353 -0.3883 -0.1722  0.6399
52223SOL     OW63718   7.006   8.582   3.162 -0.7790  0.3515  0.2255
52223SOL    HW163719   6.921   8.605   3.126 -1.3021  1.5626  2.0776
52223SOL    HW263720   7.040   8.663   3.199 -0.5245 -0.8020  2.7627
52224SOL     OW63721   1.757  12.218   7.133 -0.2850 -0.4426  0.6746
52224SOL    HW163722   1.697  12.285   7.100  0.6348  0.0105 -0.1322
52224SOL    HW263723   1.706  12.137   7.131 -1.2879  0.1491  1.2800
52225SOL     OW63724   8.707   2.912   7.206  0.2289 -0.5884  0.9734
52225SOL    HW163725   8.649   2.884   7.277  0.4640  0.8931  1.7917
52225SOL    HW263726   8.787   2.939   7.251  1.0868 -1.3798 -0.0405
52226SOL     OW63727   5.240   5.315   2.933 -0.3108 -0.1336  0.2054
52226SOL    HW163728   5.310   5.380   2.936 -0.7396  0.5095 -2.1692
52226SOL    HW263729   5.240   5.277   3.021  1.4220  1.4995  0.9933
52227SOL     OW63730   9.882   4.548   6.789 -0.3141  0.0614 -0.3639
52227SOL    HW163731   9.977   4.546   6.790 -0.3166 -0.9375  1.4951
52227SOL    HW263732   9.860   4.641   6.783  0.7865  0.4039  0.6270
52228SOL     OW63733   8.365   6.310   5.003 -0.3208  0.2130 -0.3065
52228SOL    HW163734   8.426   6.300   5.075 -0.7177 -0.0334 -0.0012
52228SOL    HW263735   8.396   6.248   4.936  0.9110  1.4682 -0.9685
52229SOL     OW63736   6.404   0.275  11.137  0.0704  0.1076 -0.0020
52229SOL    HW163737   6.436   0.311  11.220  0.4034  0.8875 -0.4514
52229SOL    HW263738   6.342   0.206  11.162  1.6096 -1.0010  0.8984
52230SOL     OW63739  10.936  11.383   2.357 -0.0915  0.0299  0.0877
52230SOL    HW163740  10.934  11.390   2.261 -1.8626 -1.2911 -0.0169
52230SOL    HW263741  10.987  11.459   2.385  0.9992  0.1244 -1.9139
52231SOL     OW63742   2.492   2.951   6.539  0.1127  0.3128  0.1265
52231SOL    HW163743   2.408   2.944   6.493  1.6328 -0.5877 -2.8563
52231SOL    HW263744   2.499   2.869   6.588 -0.2382 -0.2047 -0.6578
52232SOL     OW63745   5.365   9.694   1.840 -0.5954 -0.0450  0.0429
52232SOL    HW163746   5.402   9.630   1.901 -0.3273 -0.9232 -1.0055
52232SOL    HW263747   5.442   9.735   1.800 -0.6383  3.1046  2.7532
52233SOL     OW63748   6.458  12.417   3.611 -0.3226  0.0944 -0.2038
52233SOL    HW163749   6.526  12.454   3.555 -0.6016 -0.0837 -0.6637
52233SOL    HW263750   6.436  12.487   3.672  0.5473  0.0328  0.2074
52234SOL     OW63751  12.593   8.162   6.079  0.1107  0.0426 -0.2246
52234SOL    HW163752  12.557   8.155   6.167 -1.3699 -0.1954 -0.8144
52234SOL    HW263753  12.606   8.256   6.066 -1.6327  0.2932 -0.4564
52235SOL     OW63754   2.814   3.824   8.536  0.6878 -0.8279  0.3088
52235SOL    HW163755   2.728   3.820   8.495  0.8702 -1.6147 -0.0320
52235SOL    HW263756   2.862   3.750   8.498  1.0332 -1.2745  1.5650
52236SOL     OW63757   9.397  10.341   2.883  0.2115 -0.0383 -0.3833
52236SOL    HW163758   9.332  10.394   2.837  0.4030  1.5866  1.1217
52236SOL    HW263759   9.475  10.396   2.886  0.8599 -0.9524  0.0483
52237SOL     OW63760   1.979   4.092   7.937  0.1647  0.2784 -0.3211
52237SOL    HW163761   1.963   4.148   7.861  1.1683  0.5526 -0.3499
52237SOL    HW263762   2.069   4.113   7.964  0.8802 -1.8821 -0.8229
52238SOL     OW63763   8.395   3.363   5.990  0.3632  0.3272  0.0218
52238SOL    HW163764   8.436   3.413   5.920 -0.8102  0.3276 -0.6845
52238SOL    HW263765   8.456   3.291   6.006  0.9006  0.6258 -0.6209
52239SOL     OW63766  11.768   4.209   1.084  0.0604 -0.0347  0.1551
52239SOL    HW163767  11.715   4.209   1.004  0.0187 -0.7475  0.1818
52239SOL    HW263768  11.774   4.117   1.109 -0.5684  0.2461  1.4015
52240SOL     OW63769   1.076  12.048   4.954 -0.1120  0.1082  0.5237
52240SOL    HW163770   1.009  12.056   4.887 -0.5795  0.9642  1.0761
52240SOL    HW263771   1.132  12.125   4.942 -1.0868  1.1267  2.0350
52241SOL     OW63772  12.356   7.620   0.314 -0.2868 -0.5770 -0.0061
52241SOL    HW163773  12.449   7.599   0.317 -0.2191 -0.2435  0.3267
52241SOL    HW263774  12.313   7.535   0.308  0.0456 -0.7243 -0.3537
52242SOL     OW63775  10.159   9.657   6.323  0.0379 -0.7768 -0.1346
52242SOL    HW163776  10.253   9.673   6.311 -0.1685 -0.1776 -1.0625
52242SOL    HW263777  10.118   9.699   6.247 -1.0904  0.2504  0.9966
52243SOL     OW63778   9.460   9.846   0.834 -0.3899 -0.1970 -0.3160
52243SOL    HW163779   9.451   9.782   0.763 -0.0993  1.2010 -1.6833
52243SOL    HW263780   9.370   9.867   0.858 -0.4940 -0.5851 -0.3579
52244SOL     OW63781   7.896   5.112   0.219  0.5590 -0.0629  0.1043
52244SOL    HW163782   7.962   5.050   0.250  1.6994  1.2219  0.3567
52244SOL    HW263783   7.915   5.193   0.267 -0.8796  0.4942 -0.2129
52245SOL     OW63784   6.028  11.930   0.148 -0.9182  0.3891  0.6869
52245SOL    HW163785   5.935  11.906   0.152 -1.2060  1.3300 -0.0801
52245SOL    HW263786   6.029  12.015   0.104  0.3492  0.1238  0.1602
52246SOL     OW63787   6.516   1.852  11.756  0.3144 -0.4094 -0.7494
52246SOL    HW163788   6.523   1.947  11.749 -1.7121 -0.2534 -1.3758
52246SOL    HW263789   6.547   1.832  11.844 -2.6168  1.3269  0.8419
52247SOL     OW63790  10.292   7.964   3.497  0.2507  0.3190  0.3433
52247SOL    HW163791  10.307   8.058   3.508 -0.8750  0.4234  1.1433
52247SOL    HW263792  10.378   7.924   3.507  0.6919  1.2337  0.3106
52248SOL     OW63793   6.431  10.420   7.436 -0.3968  0.5583 -0.2515
52248SOL    HW163794   6.387  10.348   7.482  0.5855  0.5512  0.7256
52248SOL    HW263795   6.450  10.386   7.349 -0.9579  0.0395 -0.1722
52249SOL     OW63796   5.537   9.310   2.667  0.0823  0.2121 -0.0422
52249SOL    HW163797   5.499   9.255   2.598  0.9878 -0.1451 -0.2818
52249SOL    HW263798   5.583   9.379   2.619 -0.4391  0.7618  0.2425
52250SOL     OW63799   9.199   7.041   1.236 -0.0849  0.2112 -0.3018
52250SOL    HW163800   9.152   7.108   1.185  1.5240  0.8937 -0.9536
52250SOL    HW263801   9.284   7.034   1.193  0.3262 -1.1902  0.6870
52251SOL     OW63802   0.849   2.496   1.747  0.1357 -0.2608  0.2052
52251SOL    HW163803   0.880   2.475   1.835  2.3046  1.7074  0.0004
52251SOL    HW263804   0.923   2.540   1.705 -1.4441  0.4867 -1.9816
52252SOL     OW63805   9.459   5.884   3.408 -0.5165  0.5974  0.2893
52252SOL    HW163806   9.405   5.848   3.338  1.8755  0.4090 -1.5829
52252SOL    HW263807   9.492   5.967   3.373 -0.2733  1.1408  1.7133
52253SOL     OW63808  11.458   1.183   4.554 -0.1517 -0.0649 -0.3807
52253SOL    HW163809  11.501   1.249   4.608 -0.9088 -1.2771  1.8219
52253SOL    HW263810  11.369   1.216   4.542  0.0920  0.3375 -1.1958
52254SOL     OW63811   5.229  11.121   6.233  0.8037  0.2425  0.0210
52254SOL    HW163812   5.200  11.030   6.233  2.2204 -0.2440 -0.5186
52254SOL    HW263813   5.287  11.128   6.309  0.4027  0.8055  0.2822
52255SOL     OW63814  11.367   3.514  12.185 -0.1575  0.2847  0.0064
52255SOL    HW163815  11.316   3.586  12.221 -0.9943 -1.1687  1.9289
52255SOL    HW263816  11.454   3.550  12.172 -0.8902  1.9933 -0.4145
52256SOL     OW63817   9.213   2.317   0.972  0.5684 -0.0165 -0.2257
52256SOL    HW163818   9.155   2.376   1.020 -0.9190 -1.0787 -0.6570
52256SOL    HW263819   9.230   2.362   0.889 -0.5162 -0.1418 -0.5351
52257SOL     OW63820   5.572   0.223   1.845  0.2244 -0.1112  0.1529
52257SOL    HW163821   5.577   0.193   1.754 -0.5742  1.7166 -0.5469
52257SOL    HW263822   5.490   0.271   1.849  0.7249  0.6618  1.5956
52258SOL     OW63823   6.296   1.477   8.135  0.3305 -0.8665 -0.3529
52258SOL    HW163824   6.361   1.420   8.176  1.5185  0.4854 -0.2655
52258SOL    HW263825   6.237   1.500   8.207  0.5268 -1.0802 -0.1203
52259SOL     OW63826   8.193   5.367   8.185  0.1521 -0.3283 -0.2710
52259SOL    HW163827   8.265   5.403   8.237 -0.2307 -1.4109  1.0454
52259SOL    HW263828   8.199   5.272   8.197 -1.9372 -0.4124  0.5096
52260SOL     OW63829  12.519  10.802   3.670 -0.0206  0.1797 -0.6400
52260SOL    HW163830  12.441  10.747   3.673  0.5896 -0.6977  2.4038
52260SOL    HW263831  12.499  10.877   3.725  1.1770  0.0391  0.0325
52261SOL     OW63832   4.139   8.430   4.843 -0.6247 -0.4753 -0.0618
52261SOL    HW163833   4.118   8.475   4.761 -0.4564 -1.5206 -0.6939
52261SOL    HW263834   4.097   8.483   4.911  0.0665  0.9704 -0.7132
52262SOL     OW63835   8.739   2.658  11.406  0.4488  0.3577 -0.3740
52262SOL    HW163836   8.820   2.636  11.452  1.0369  1.5174 -0.8058
52262SOL    HW263837   8.695   2.574  11.393  0.0003  0.0017  2.6955
52263SOL     OW63838   1.974   8.315   6.634  0.0534  0.0839  0.0377
52263SOL    HW163839   1.982   8.220   6.625 -0.4580  0.0308  0.0878
52263SOL    HW263840   1.920   8.342   6.559  1.2407  0.5122 -0.7026
52264SOL     OW63841  10.500   7.129   0.693  0.0283 -0.4258  0.4678
52264SOL    HW163842  10.490   7.126   0.598 -0.1739 -0.0907  0.4760
52264SOL    HW263843  10.440   7.198   0.721  2.7350  2.1248  0.4902
52265SOL     OW63844  10.696   6.767  12.560 -0.1860 -0.6218  0.0597
52265SOL    HW163845  10.760   6.824  12.604 -1.2787  1.5871 -1.0303
52265SOL    HW263846  10.720   6.771  12.468 -1.6213 -0.0760 -0.3161
52266SOL     OW63847   3.799   4.907   0.721  0.5218  0.3857  0.1365
52266SOL    HW163848   3.871   4.910   0.658  1.1380  0.1698  0.8183
52266SOL    HW263849   3.840   4.879   0.803 -0.5901 -1.4140  0.1465
52267SOL     OW63850   0.060   3.253   7.772  0.4752  0.7596 -0.1133
52267SOL    HW163851   0.120   3.192   7.729 -0.4138  1.4145 -2.4754
52267SOL    HW263852   0.039   3.317   7.704 -1.5455  1.5336  1.1544
52268SOL     OW63853   7.881   6.820  11.753 -0.0280  0.6527 -0.0101
52268SOL    HW163854   7.819   6.831  11.681 -0.1455  1.2521  0.1772
52268SOL    HW263855   7.830   6.841  11.831  0.5668  1.7486  0.0985
52269SOL     OW63856   3.807   7.883   8.123 -0.1572  0.2818 -0.1963
52269SOL    HW163857   3.754   7.960   8.142 -1.3985 -0.1741 -1.6671
52269SOL    HW263858   3.745   7.810   8.124  0.5949 -0.3927 -1.0631
52270SOL     OW63859   9.546   8.741   0.516 -0.4380  0.4953  0.3777
52270SOL    HW163860   9.469   8.733   0.460  1.0207  3.6056 -2.3939
52270SOL    HW263861   9.608   8.677   0.481 -0.4385  0.5750  0.2342
52271SOL     OW63862   6.862   5.554   0.251 -0.2609  0.1628  0.2401
52271SOL    HW163863   6.773   5.527   0.276  0.4004 -1.2265  1.2711
52271SOL    HW263864   6.878   5.634   0.302 -0.1822 -0.7623  1.7535
52272SOL     OW63865   1.646   5.218  11.701  0.4179 -0.8990 -0.6065
52272SOL    HW163866   1.703   5.196  11.775 -1.8560 -1.6401  1.0207
52272SOL    HW263867   1.707   5.235  11.629  2.7617  0.0218  1.4259
52273SOL     OW63868  10.251   3.487   9.130 -0.1082 -0.3866 -0.5684
52273SOL    HW163869  10.233   3.394   9.147  0.9896 -0.3336  1.0958
52273SOL    HW263870  10.327   3.507   9.185 -1.4779  1.9650  0.6475
52274SOL     OW63871   8.564   6.330   4.208  0.7193 -0.4065  0.0122
52274SOL    HW163872   8.594   6.314   4.297  2.4130  3.2432  0.2920
52274SOL    HW263873   8.644   6.332   4.155 -0.1642 -1.4917 -1.4402
52275SOL     OW63874   8.304   5.136  11.889 -0.2761  0.2717 -0.3882
52275SOL    HW163875   8.259   5.062  11.931  0.0709  0.3978  0.2146
52275SOL    HW263876   8.392   5.104  11.872 -0.1768  0.4887 -0.2854
52276SOL     OW63877  11.673   1.121   2.145  0.0429 -0.3214 -0.7007
52276SOL    HW163878  11.593   1.070   2.135 -0.1938 -0.6473  1.9975
52276SOL    HW263879  11.713   1.121   2.058 -1.3037 -2.7903 -1.4122
52277SOL     OW63880  12.000  10.654   2.178 -0.7701  1.0085  0.3705
52277SOL    HW163881  12.010  10.721   2.246 -1.9823  0.7110  0.8603
52277SOL    HW263882  11.940  10.693   2.114 -1.3707  0.4460  0.5866
52278SOL     OW63883   7.129   3.664   9.615  0.1016 -0.7142 -0.2353
52278SOL    HW163884   7.176   3.699   9.691 -0.3505  0.0142 -0.2758
52278SOL    HW263885   7.065   3.732   9.593  2.3737  0.7029 -3.3170
52279SOL     OW63886  11.451  11.599   8.699 -0.3999 -0.1516 -0.1610
52279SOL    HW163887  11.509  11.564   8.768 -0.5092  2.0203  1.1311
52279SOL    HW263888  11.483  11.558   8.619  0.9355 -1.3810  0.9238
52280SOL     OW63889   5.660   8.375   3.254  0.0518  0.8935 -0.3946
52280SOL    HW163890   5.634   8.466   3.236 -1.3596  1.0449  2.0164
52280SOL    HW263891   5.657   8.368   3.349  1.7973 -1.2563 -0.4206
52281SOL     OW63892   0.867  11.204   0.290 -0.8950  0.6380 -0.2944
52281SOL    HW163893   0.839  11.114   0.303 -0.2559  0.5583  0.5848
52281SOL    HW263894   0.786  11.256   0.300 -0.9974  0.2937  0.8372
52282SOL     OW63895   3.630   1.989  10.383  0.0964 -0.0867  0.3869
52282SOL    HW163896   3.585   1.917  10.339  0.2222  0.3455 -0.4561
52282SOL    HW263897   3.562   2.032  10.435 -0.2794  0.0259 -0.1911
52283SOL     OW63898   5.801   3.194   8.396 -1.0687  0.3438  0.1715
52283SOL    HW163899   5.770   3.140   8.323 -1.4254 -1.0758  1.3287
52283SOL    HW263900   5.799   3.136   8.472  1.2608  1.1829  0.9561
52284SOL     OW63901   1.558   5.659  11.702  0.4436 -0.1426  0.4122
52284SOL    HW163902   1.539   5.631  11.792 -0.7812  0.2840  0.3069
52284SOL    HW263903   1.542   5.753  11.702  1.6946  0.0870  0.0492
52285SOL     OW63904   1.765   1.321   1.549  0.2282  0.1201  0.2527
52285SOL    HW163905   1.672   1.340   1.542  0.3247  0.6160  0.2656
52285SOL    HW263906   1.773   1.268   1.628 -0.1477 -0.6540 -0.2195
52286SOL     OW63907   6.170  11.566  10.711 -0.0176 -0.6242 -0.1666
52286SOL    HW163908   6.202  11.547  10.623  0.4592  1.5726 -0.5113
52286SOL    HW263909   6.151  11.659  10.710 -1.3140 -0.8225  1.6715
52287SOL     OW63910   7.100   0.883  11.876 -0.4927 -0.3551  0.2239
52287SOL    HW163911   7.029   0.883  11.940 -0.4407  2.8290  0.4131
52287SOL    HW263912   7.174   0.923  11.922  0.1821  0.0909 -1.1764
52288SOL     OW63913   7.177   6.981   8.038  0.1812 -0.2506 -0.4394
52288SOL    HW163914   7.229   7.051   8.077  0.4160 -1.0010  0.6435
52288SOL    HW263915   7.100   6.974   8.094 -0.6332  0.2048 -1.4749
52289SOL     OW63916   6.403   7.597   0.852 -0.2976  0.2953  0.1087
52289SOL    HW163917   6.407   7.535   0.925  0.5231 -0.4058 -0.5089
52289SOL    HW263918   6.493   7.626   0.841 -0.7008  1.7705  0.5082
52290SOL     OW63919  11.377   3.126   4.314 -0.3187 -0.5355 -0.5784
52290SOL    HW163920  11.455   3.147   4.263  0.1683  0.0275  0.3693
52290SOL    HW263921  11.324   3.071   4.256 -0.1992  0.8023 -2.0052
52291SOL     OW63922  12.025   9.858   0.356 -0.4306  0.1170 -0.1720
52291SOL    HW163923  11.977   9.852   0.439 -0.7336 -0.1870 -0.3691
52291SOL    HW263924  12.001   9.944   0.321 -0.5366  0.1216 -0.0900
52292SOL     OW63925   6.327   2.115   7.024  0.3277 -0.4223 -0.1348
52292SOL    HW163926   6.407   2.080   7.064 -0.2891 -1.1002  0.5409
52292SOL    HW263927   6.280   2.156   7.096 -0.4177 -0.9475 -0.3142
52293SOL     OW63928   6.964   4.128   0.555 -0.2026  0.6872  0.5922
52293SOL    HW163929   6.990   4.209   0.598 -1.1193 -0.0414  2.6399
52293SOL    HW263930   6.983   4.060   0.620 -0.6879 -0.5966 -0.5682
52294SOL     OW63931   4.229  10.749   6.137  0.0725  0.1866 -0.8858
52294SOL    HW163932   4.174  10.793   6.072  1.7657  1.8549 -1.2503
52294SOL    HW263933   4.232  10.658   6.107 -1.5796  0.2785 -1.4516
52295SOL     OW63934   2.826  11.506   9.718  0.0953  0.1196 -0.9838
52295SOL    HW163935   2.793  11.539   9.634  0.3531 -0.8581 -1.4924
52295SOL    HW263936   2.873  11.580   9.757 -1.0561  0.9514 -1.1349
52296SOL     OW63937  11.895   2.549   5.281  0.1455  0.1103 -0.3555
52296SOL    HW163938  11.803   2.528   5.264 -0.3089  1.7482 -0.1731
52296SOL    HW263939  11.941   2.525   5.201 -0.3926 -0.9363 -0.3624
52297SOL     OW63940   6.972   9.129   4.546  0.0173  0.0227  0.0743
52297SOL    HW163941   6.915   9.086   4.482  1.6178 -1.1825 -0.6055
52297SOL    HW263942   7.040   9.064   4.565  0.2735  0.8023  2.0991
52298SOL     OW63943   5.790  11.082  12.375 -0.4349  0.0148  0.3543
52298SOL    HW163944   5.782  11.177  12.383 -2.2482 -0.1326  0.7070
52298SOL    HW263945   5.840  11.055  12.452 -0.9100  0.5895  0.8746
52299SOL     OW63946   7.890   2.818   0.340  0.4748  0.3874 -0.5598
52299SOL    HW163947   7.922   2.870   0.414  2.6313 -0.1255 -1.0767
52299SOL    HW263948   7.915   2.869   0.263  1.9607 -0.9938 -1.0492
52300SOL     OW63949   0.231   7.386   2.114 -0.0278 -0.2156  0.5620
52300SOL    HW163950   0.216   7.407   2.206 -0.4481  0.1299  0.4175
52300SOL    HW263951   0.154   7.420   2.069  0.3931  0.0238  0.0203
52301SOL     OW63952  12.435  11.341   3.011 -0.5277  0.1972  0.4405
52301SOL    HW163953  12.391  11.328   2.927 -1.7447  1.1296  0.8934
52301SOL    HW263954  12.491  11.417   2.997 -0.9937  0.5662  0.5588
52302SOL     OW63955   4.800  11.168   9.761  0.1474 -0.0766 -0.3515
52302SOL    HW163956   4.815  11.154   9.667  0.4039 -0.7398 -0.2171
52302SOL    HW263957   4.866  11.232   9.786 -0.3743  0.6412 -0.7643
52303SOL     OW63958   7.653   8.404   6.415 -0.4915  0.6066 -0.2619
52303SOL    HW163959   7.588   8.369   6.476  0.9081 -0.7124  0.5556
52303SOL    HW263960   7.668   8.333   6.353  0.4743  0.7104 -0.1610
52304SOL     OW63961  10.046   8.623   2.860 -0.1806 -0.8783  0.1131
52304SOL    HW163962   9.974   8.626   2.797  0.7104 -0.1456 -0.9196
52304SOL    HW263963  10.124   8.644   2.808  0.2590  2.8418  1.8994
52305SOL     OW63964   5.183   4.466   0.735 -0.0988  0.0985 -0.0102
52305SOL    HW163965   5.221   4.551   0.757  1.0841 -0.6762  1.0989
52305SOL    HW263966   5.164   4.471   0.642 -1.4995  2.1133  0.3161
52306SOL     OW63967  11.044   7.217   9.869  0.0880  0.2857 -0.8698
52306SOL    HW163968  11.086   7.302   9.886 -0.2237  0.5608 -1.4398
52306SOL    HW263969  11.108   7.153   9.899  1.2241  0.6835 -2.3424
52307SOL     OW63970  10.748  10.704   1.549  0.2236 -0.3955 -0.0597
52307SOL    HW163971  10.817  10.770   1.552  0.3506 -0.5461  0.3872
52307SOL    HW263972  10.711  10.704   1.638 -1.4954  0.9048 -0.6997
52308SOL     OW63973   1.452  10.437  10.678 -0.0226  0.6830 -0.3168
52308SOL    HW163974   1.372  10.488  10.665  0.3796  1.5985  0.7031
52308SOL    HW263975   1.498  10.444  10.594 -0.7548  0.5673 -0.7437
52309SOL     OW63976   6.309   0.682  10.675 -0.0503  0.1710 -0.4214
52309SOL    HW163977   6.373   0.699  10.607  0.6100  0.3363  0.2258
52309SOL    HW263978   6.331   0.594  10.707 -2.0411 -1.0775 -2.2260
52310SOL     OW63979  10.845   2.243  10.400  0.3621 -0.0971  0.0622
52310SOL    HW163980  10.790   2.316  10.372 -0.4342 -0.8318 -0.3290
52310SOL    HW263981  10.862   2.261  10.493 -2.2897 -0.8776  0.7870
52311SOL     OW63982   6.508   7.581  12.087  0.4941 -0.5738  0.1419
52311SOL    HW163983   6.436   7.641  12.105  1.2431  0.3426  0.1281
52311SOL    HW263984   6.539   7.554  12.174 -0.2570 -1.4699  0.1483
52312SOL     OW63985   8.837   0.342   9.636 -0.1770  0.8554  0.0909
52312SOL    HW163986   8.759   0.286   9.644 -0.9102  1.8050 -0.1227
52312SOL    HW263987   8.896   0.311   9.704 -1.1653  0.7380  0.9312
52313SOL     OW63988   7.472  11.891   1.363  0.3135  0.3575  0.2394
52313SOL    HW163989   7.486  11.918   1.273  0.3291  0.8148  0.3764
52313SOL    HW263990   7.410  11.955   1.398  0.5027  0.3312  0.6264
52314SOL     OW63991  10.520   5.928   7.593 -0.6699  0.1982 -0.6529
52314SOL    HW163992  10.526   6.017   7.559  0.1679 -0.0800 -1.2565
52314SOL    HW263993  10.446   5.930   7.653 -0.7353  1.2698 -0.7604
52315SOL     OW63994  12.084   7.188   0.069  0.0682  0.0695 -0.2674
52315SOL    HW163995  11.999   7.146   0.077  0.5069 -0.6495  0.7012
52315SOL    HW263996  12.084   7.224  -0.020 -1.2810  0.1835 -0.2398
52316SOL     OW63997   0.493   5.599  12.565  0.7361 -0.1664  0.2931
52316SOL    HW163998   0.514   5.677  12.513 -2.7591 -0.5273 -1.9726
52316SOL    HW263999   0.420   5.626  12.620 -1.2081 -1.9484 -1.2353
52317SOL     OW64000  11.538   7.402   4.559 -0.2192  0.1569 -0.0956
52317SOL    HW164001  11.582   7.469   4.611 -0.2470  1.5864 -1.8338
52317SOL    HW264002  11.481   7.451   4.500 -2.1692 -1.5206  0.2624
52318SOL     OW64003  10.475   6.571   0.804  0.1501  0.1360 -0.4325
52318SOL    HW164004  10.461   6.605   0.892  2.3966  0.7688 -0.2472
52318SOL    HW264005  10.432   6.485   0.803 -0.4614  0.4030  1.0443
52319SOL     OW64006   1.803  10.206   3.081  0.5064 -0.2029  0.4695
52319SOL    HW164007   1.716  10.232   3.051 -0.0264 -0.2839  1.8489
52319SOL    HW264008   1.845  10.166   3.004  0.6858  2.9871 -1.2321
52320SOL     OW64009   1.530  10.410   2.207  0.4936  0.0908 -0.7478
52320SOL    HW164010   1.615  10.370   2.222 -0.8725 -1.5320  5.3375
52320SOL    HW264011   1.479  10.343   2.160  1.2411 -0.9504 -0.1045
52321SOL     OW64012   0.741   4.247   6.839 -0.9110  0.0017 -0.5558
52321SOL    HW164013   0.764   4.175   6.781 -3.1480 -2.2258  1.1220
52321SOL    HW264014   0.822   4.297   6.848  1.5804 -3.7100  0.1211
52322SOL     OW64015  11.181  11.119   2.346  0.0833 -0.3769  0.2508
52322SOL    HW164016  11.160  11.026   2.339 -0.4125 -0.1494 -2.2232
52322SOL    HW264017  11.105  11.158   2.389 -1.4643 -0.6435 -2.0554
52323SOL     OW64018   5.275   0.778   9.632 -0.8020 -0.2134 -0.2152
52323SOL    HW164019   5.348   0.737   9.678 -0.8369 -2.2621 -1.8464
52323SOL    HW264020   5.293   0.872   9.638  1.3056 -0.6033  0.4841
52324SOL     OW64021  12.403   0.747   5.609  0.2227 -0.0281  0.2093
52324SOL    HW164022  12.354   0.813   5.559 -0.2577 -0.5884 -0.0671
52324SOL    HW264023  12.494   0.775   5.602 -0.1431  1.8771  1.9751
52325SOL     OW64024   8.296   7.855   8.034 -0.5218  0.0838 -0.3022
52325SOL    HW164025   8.337   7.933   7.995 -2.4888  1.1431 -0.3814
52325SOL    HW264026   8.295   7.874   8.128 -2.1598  0.7794 -0.4360
52326SOL     OW64027   8.009   3.269   2.002  0.3289 -0.3546 -0.2328
52326SOL    HW164028   8.093   3.315   1.996  0.0492  0.1724 -0.2343
52326SOL    HW264029   7.960   3.300   1.926 -0.2215  0.0852  0.2963
52327SOL     OW64030   4.469  11.233  11.925 -0.0651 -0.2931 -0.2961
52327SOL    HW164031   4.423  11.316  11.932 -0.8106 -0.6829 -0.5415
52327SOL    HW264032   4.401  11.166  11.929  0.6774 -1.0219  2.1952
52328SOL     OW64033   9.348   2.174   7.373  0.2127 -0.2471 -0.1492
52328SOL    HW164034   9.275   2.162   7.434  1.2752 -0.7309  1.0580
52328SOL    HW264035   9.408   2.102   7.393  1.8617  1.1280  0.1061
52329SOL     OW64036  10.733  12.204  11.118  0.2893 -0.3735 -0.0349
52329SOL    HW164037  10.668  12.254  11.069  1.9844  0.2599 -1.7611
52329SOL    HW264038  10.763  12.265  11.186 -0.5890 -0.5431  0.5338
52330SOL     OW64039   4.335   7.049   5.725 -0.0283 -0.2439  0.2691
52330SOL    HW164040   4.265   7.039   5.660  0.3064  2.0880 -0.5698
52330SOL    HW264041   4.334   7.143   5.746  1.8977 -0.4231  1.3241
52331SOL     OW64042   1.184  12.439   1.031 -0.0566 -0.0304 -0.2678
52331SOL    HW164043   1.257  12.377   1.031 -0.6211 -0.7346  0.8070
52331SOL    HW264044   1.107  12.385   1.047 -0.3586  1.1022  2.7829
52332SOL     OW64045   1.391   1.681   4.547 -0.0104  1.1317  0.3884
52332SOL    HW164046   1.348   1.746   4.492 -0.8193  1.1492  1.0244
52332SOL    HW264047   1.485   1.696   4.532 -0.1784  0.3227 -1.9079
52333SOL     OW64048  10.596   8.525   1.451  0.4156  0.3180  0.4325
52333SOL    HW164049  10.541   8.470   1.507  0.5691  0.0914  0.3597
52333SOL    HW264050  10.684   8.514   1.486  0.6282 -0.3842 -0.2938
52334SOL     OW64051   5.796   1.023   5.580 -0.1384  0.7592  0.3362
52334SOL    HW164052   5.800   1.046   5.673 -1.0517  3.3769 -0.2038
52334SOL    HW264053   5.880   1.049   5.544 -0.5135  1.6051  0.0607
52335SOL     OW64054   8.376   7.063  10.178 -0.3391  0.1688  0.1764
52335SOL    HW164055   8.462   7.022  10.170  0.0022  0.2760  2.6375
52335SOL    HW264056   8.393   7.156  10.169 -0.0422  0.2569  1.5517
52336SOL     OW64057   7.806   0.849  10.946 -0.7138 -0.2692  0.3146
52336SOL    HW164058   7.807   0.914  11.016  2.1855 -0.3416  0.4337
52336SOL    HW264059   7.897   0.820  10.938 -0.6234  0.5366 -4.1982
52337SOL     OW64060   2.718   5.686   0.624 -0.3439  0.3076  0.1026
52337SOL    HW164061   2.689   5.600   0.653  0.1159  0.2292  0.3402
52337SOL    HW264062   2.699   5.744   0.698 -1.8239  0.6701 -0.5180
52338SOL     OW64063   1.988   3.524   3.501 -0.0950 -0.4770 -0.4780
52338SOL    HW164064   1.932   3.539   3.424 -1.0695  0.1931  0.3295
52338SOL    HW264065   1.967   3.435   3.529 -2.2693  0.3905  0.9413
52339SOL     OW64066  12.323   1.034   7.682  0.3046  1.0128  0.2568
52339SOL    HW164067  12.251   0.972   7.685  1.2798 -0.2770 -1.3266
52339SOL    HW264068  12.390   0.995   7.738  0.7233  0.8839 -0.3247
52340SOL     OW64069   0.075   6.725   2.567  0.1341  0.0297  0.5646
52340SOL    HW164070   0.070   6.734   2.663  2.7682 -0.7597  0.8659
52340SOL    HW264071   0.128   6.800   2.540 -1.7045  1.0038 -0.5028
52341SOL     OW64072   2.566  11.692  10.860  0.2543  0.2896 -0.5934
52341SOL    HW164073   2.649  11.706  10.906 -0.4457 -0.5276  0.9946
52341SOL    HW264074   2.566  11.758  10.791  2.7769 -0.4986 -1.4670
52342SOL     OW64075   4.460  11.512  10.785  0.3328  0.1670 -0.4799
52342SOL    HW164076   4.436  11.422  10.804  1.2006  0.3720  1.9367
52342SOL    HW264077   4.504  11.543  10.864 -0.4386  2.9039 -1.0002
52343SOL     OW64078   6.578   0.892   0.418  0.1875 -0.4837  0.3103
52343SOL    HW164079   6.582   0.880   0.323  3.4459 -0.4395  0.3503
52343SOL    HW264080   6.586   0.804   0.454  1.7487 -0.2998  0.4952
52344SOL     OW64081   0.077   6.079  11.457  0.1191  0.1216  0.0915
52344SOL    HW164082   0.073   6.174  11.446 -0.3469 -0.0419 -1.4660
52344SOL    HW264083   0.012   6.060  11.524  0.2391  0.8979  0.4450
52345SOL     OW64084  10.589   0.504   7.156 -0.2232  0.6003  0.1638
52345SOL    HW164085  10.659   0.544   7.207  0.4961 -0.6356  0.1967
52345SOL    HW264086  10.625   0.497   7.068 -0.1013 -0.4640  0.2817
52346SOL     OW64087   4.583   7.529   1.178  0.2262  0.1430 -0.1765
52346SOL    HW164088   4.591   7.565   1.266  0.8695 -1.4329  0.4480
52346SOL    HW264089   4.494   7.492   1.175  0.7052 -1.0961  0.3499
52347SOL     OW64090  11.482   2.106   2.453  0.3144  0.7172 -0.2600
52347SOL    HW164091  11.563   2.156   2.465 -0.7232  1.8984  2.4524
52347SOL    HW264092  11.412   2.165   2.482 -1.4977 -0.5798 -1.7060
52348SOL     OW64093   6.140   2.483   7.164 -0.3045 -0.0427  0.2147
52348SOL    HW164094   6.085   2.483   7.086 -0.5503 -0.4307  0.3821
52348SOL    HW264095   6.224   2.518   7.135 -0.0926 -1.0512 -0.4422
52349SOL     OW64096  12.328   3.806  10.894  0.5186  0.2895  0.1175
52349SOL    HW164097  12.297   3.843  10.812 -0.0680  1.0360  0.6539
52349SOL    HW264098  12.422   3.820  10.893  0.5373  0.1481 -0.4928
52350SOL     OW64099   6.336   5.883   2.797  0.6088  0.1268 -0.5159
52350SOL    HW164100   6.351   5.965   2.751  2.1199 -0.5795 -1.3480
52350SOL    HW264101   6.392   5.820   2.752 -2.6699 -2.0878 -1.8580
52351SOL     OW64102   3.384   8.939  10.284 -0.1689  0.4887 -0.3882
52351SOL    HW164103   3.305   8.887  10.302 -1.9510  3.0652 -0.1460
52351SOL    HW264104   3.438   8.927  10.361 -1.2192  0.1803  0.3297
52352SOL     OW64105   8.114   0.186  10.799 -0.1584 -0.0920 -0.4486
52352SOL    HW164106   8.150   0.098  10.809 -0.7054 -0.1120  2.1031
52352SOL    HW264107   8.190   0.244  10.794  0.2129 -0.5801 -0.4488
52353SOL     OW64108   9.045   4.120   1.739  0.0162  0.2078  0.1868
52353SOL    HW164109   8.953   4.120   1.765  0.0164  0.5385  0.1825
52353SOL    HW264110   9.044   4.132   1.644  0.1262  2.4702  0.4174
52354SOL     OW64111   9.765   7.155   6.085  0.4649 -0.2492 -0.1025
52354SOL    HW164112   9.839   7.098   6.107  1.8052  0.6825 -1.8939
52354SOL    HW264113   9.688   7.099   6.095  1.3627 -1.2227  1.9180
52355SOL     OW64114   7.779   6.707   1.912 -0.2809  0.0288  0.7494
52355SOL    HW164115   7.715   6.681   1.846  0.5251  0.9766 -0.4552
52355SOL    HW264116   7.756   6.655   1.989 -0.1217 -2.5133 -0.8017
52356SOL     OW64117   7.112   7.312   8.131 -0.0551  0.1693 -0.2088
52356SOL    HW164118   7.120   7.331   8.038 -0.7435 -1.9054 -0.7580
52356SOL    HW264119   7.195   7.270   8.155  1.1756  2.9600  0.8092
52357SOL     OW64120   9.669   9.394  11.685 -0.1419  0.6401  0.0007
52357SOL    HW164121   9.722   9.334  11.738 -0.3952  0.7121  0.3410
52357SOL    HW264122   9.692   9.373  11.595 -1.4490 -1.1523  0.0246
52358SOL     OW64123   3.783   7.452   1.892 -0.0290 -0.1156  0.0830
52358SOL    HW164124   3.855   7.395   1.865  0.2623  0.0349  0.5205
52358SOL    HW264125   3.718   7.393   1.928 -0.9042 -0.4367 -1.8947
52359SOL     OW64126   2.530   3.353   7.240  0.0212  0.2368  0.4721
52359SOL    HW164127   2.539   3.310   7.154 -0.3297 -0.8791  0.9676
52359SOL    HW264128   2.579   3.296   7.300 -1.4290 -0.1132  1.3564
52360SOL     OW64129   2.261   4.998   0.138  0.1818 -0.1461  0.1345
52360SOL    HW164130   2.284   5.091   0.131  1.3705 -0.4885 -0.9642
52360SOL    HW264131   2.317   4.965   0.208 -0.3516 -0.0191  0.6306
52361SOL     OW64132   9.467   9.386   4.434 -0.4554  0.2890  0.3454
52361SOL    HW164133   9.436   9.455   4.375 -1.7503  0.0351  0.7053
52361SOL    HW264134   9.535   9.341   4.384 -0.4887  1.0065 -0.3819
52362SOL     OW64135   6.237   5.430  11.970 -0.2789 -0.6488  0.3055
52362SOL    HW164136   6.233   5.384  11.887 -1.0082 -0.3210  0.1499
52362SOL    HW264137   6.293   5.376  12.025 -1.9568 -2.3182  0.4831
52363SOL     OW64138   7.067   5.851  11.988 -0.5487 -0.2266  0.2578
52363SOL    HW164139   7.036   5.870  12.077  0.6180 -0.2496  0.6910
52363SOL    HW264140   7.119   5.928  11.965 -0.1008 -0.6134 -0.0400
52364SOL     OW64141   5.886   2.352   7.817 -0.5155  0.4681  0.6539
52364SOL    HW164142   5.904   2.381   7.727 -0.0207 -1.7998 -0.0429
52364SOL    HW264143   5.961   2.383   7.867 -0.6286  1.4673  0.2363
52365SOL     OW64144   3.267  10.920   1.507  0.1580 -0.0049 -0.4163
52365SOL    HW164145   3.298  10.996   1.458  0.1757 -0.0526 -0.4792
52365SOL    HW264146   3.323  10.848   1.477 -0.2093 -0.1557 -0.7530
52366SOL     OW64147   0.595  10.912  11.152 -0.0133 -0.1915 -0.2235
52366SOL    HW164148   0.552  10.904  11.067 -1.3366  0.0451  0.3867
52366SOL    HW264149   0.668  10.972  11.137 -0.6396  0.3861 -1.0479
52367SOL     OW64150   4.439  12.230   1.393  0.2146  0.6920 -0.5521
52367SOL    HW164151   4.474  12.254   1.479  0.6137 -0.0167 -0.5075
52367SOL    HW264152   4.420  12.314   1.351 -1.8131  1.0719  0.9407
52368SOL     OW64153   7.515   7.944   0.438 -0.0560  0.1078  0.1576
52368SOL    HW164154   7.568   7.874   0.475 -0.3794  0.2667  0.9604
52368SOL    HW264155   7.574   8.019   0.431  0.4634 -0.4018 -1.3164
52369SOL     OW64156   1.507   1.680  10.690 -0.4152  0.0993  0.0300
52369SOL    HW164157   1.488   1.689  10.784  0.4778 -1.3653  0.3926
52369SOL    HW264158   1.602   1.671  10.685 -0.4013  0.7289 -1.0832
52370SOL     OW64159   7.252   1.150  11.762  0.2378 -0.8880 -0.1331
52370SOL    HW164160   7.278   1.238  11.735  3.2350 -1.3769  0.7423
52370SOL    HW264161   7.177   1.163  11.820  0.2620  1.0312 -0.4821
52371SOL     OW64162   9.652   5.329   2.770  0.2837 -0.1359 -0.5264
52371SOL    HW164163   9.686   5.399   2.825 -2.1423  1.4983 -0.9644
52371SOL    HW264164   9.678   5.353   2.681 -0.9479  0.5139 -0.7317
52372SOL     OW64165   5.934   0.130  11.898 -0.4035  0.3827 -0.4474
52372SOL    HW164166   5.962   0.059  11.839 -1.6852 -1.0557  0.5824
52372SOL    HW264167   5.879   0.186  11.844  1.5810  1.3315 -1.5961
52373SOL     OW64168   9.176   9.445  10.833  0.1669 -0.3862 -0.4179
52373SOL    HW164169   9.128   9.483  10.907 -0.5298 -0.0905 -1.0068
52373SOL    HW264170   9.143   9.355  10.828  1.9720 -1.2091  1.1100
52374SOL     OW64171  11.493   1.560   6.539  0.0559 -0.6601  0.2661
52374SOL    HW164172  11.472   1.623   6.470 -0.8127 -1.0460  0.1702
52374SOL    HW264173  11.424   1.494   6.534  0.6519 -1.3394  0.7211
52375SOL     OW64174   6.662   2.594   4.372 -0.1184  0.1385  0.2938
52375SOL    HW164175   6.616   2.660   4.425 -1.0069 -1.1124  1.1472
52375SOL    HW264176   6.616   2.594   4.288  1.2535  2.0910 -0.5159
52376SOL     OW64177   7.502   5.845   6.043 -0.0144 -0.2599  0.0848
52376SOL    HW164178   7.508   5.860   5.948  2.0888  2.1277  0.4797
52376SOL    HW264179   7.538   5.757   6.055 -1.3149 -1.0406 -1.3931
52377SOL     OW64180   4.390   6.700   6.675 -0.3768 -0.4831 -0.4445
52377SOL    HW164181   4.312   6.742   6.638 -0.3973 -0.2364 -0.1364
52377SOL    HW264182   4.369   6.689   6.768  0.1017 -0.0617 -0.2804
52378SOL     OW64183   8.675   2.295  11.452 -0.5681  0.8051 -0.5119
52378SOL    HW164184   8.765   2.272  11.429 -0.7057  0.5667 -0.8265
52378SOL    HW264185   8.624   2.267  11.376 -1.1644 -0.8573  0.4588
52379SOL     OW64186  12.021   2.701   2.505 -0.0977  0.2720 -0.5614
52379SOL    HW164187  12.059   2.755   2.575  0.5499 -0.6802 -0.1509
52379SOL    HW264188  11.985   2.625   2.550 -1.8435  0.7817 -1.0350
52380SOL     OW64189   6.628   9.334   1.452  0.8773 -0.3613  0.5686
52380SOL    HW164190   6.541   9.297   1.439  0.0216  1.0458  1.8595
52380SOL    HW264191   6.676   9.267   1.500  0.8690 -1.5416 -0.9765
52381SOL     OW64192   0.114   8.611  10.782 -0.1068  0.1350  0.0735
52381SOL    HW164193   0.150   8.526  10.806  0.7183  0.5557  0.3299
52381SOL    HW264194   0.112   8.661  10.863  0.6891  0.8252 -0.3170
52382SOL     OW64195   7.771   1.272   2.665 -0.1163 -0.6106 -0.2830
52382SOL    HW164196   7.726   1.357   2.672 -0.7842 -1.0479  0.9312
52382SOL    HW264197   7.815   1.276   2.580 -1.5358  0.2874 -1.0145
52383SOL     OW64198  10.884   4.230   5.998  0.1304 -0.1533  0.3041
52383SOL    HW164199  10.821   4.174   5.950  0.2051  0.9577 -1.1635
52383SOL    HW264200  10.959   4.236   5.939  0.8139  0.1276  1.1988
52384SOL     OW64201   9.638   6.554   1.510  0.5692 -1.3608 -0.2286
52384SOL    HW164202   9.630   6.471   1.557 -0.0504 -1.2962 -0.2075
52384SOL    HW264203   9.705   6.537   1.444  0.2962 -1.9546 -0.3676
52385SOL     OW64204   2.441   5.511  10.038  0.3557  0.0456  0.1564
52385SOL    HW164205   2.511   5.577  10.045 -0.2702  0.6286  1.0698
52385SOL    HW264206   2.450   5.458  10.117 -0.5527  0.4488  0.5346
52386SOL     OW64207   9.092   1.355   8.693 -0.3691  0.3005  0.9888
52386SOL    HW164208   9.018   1.415   8.689 -1.7169 -1.3527  0.0881
52386SOL    HW264209   9.055   1.269   8.676  1.9238 -0.4458 -0.9426
52387SOL     OW64210  11.476  11.076   4.880  0.3112  0.0363 -0.0432
52387SOL    HW164211  11.509  11.154   4.834 -0.3049  0.5796  0.4192
52387SOL    HW264212  11.477  11.101   4.972 -1.3054  0.0390 -0.0087
52388SOL     OW64213   8.937   0.570   7.662 -0.3908 -0.3228  0.3276
52388SOL    HW164214   8.902   0.527   7.740 -1.1305  1.0321  0.7746
52388SOL    HW264215   8.973   0.499   7.609  0.9673 -1.2068  2.3098
52389SOL     OW64216   9.731   0.314   1.868  0.0763 -0.2770 -0.0947
52389SOL    HW164217   9.699   0.227   1.845 -0.5434 -0.3829  1.0720
52389SOL    HW264218   9.779   0.344   1.790 -1.1316 -0.9602 -1.1414
52390SOL     OW64219   1.217  10.615   0.944  0.1808 -0.2135 -0.3377
52390SOL    HW164220   1.261  10.587   1.024 -0.1738 -0.5028 -0.2408
52390SOL    HW264221   1.262  10.695   0.918  1.5254 -1.1008 -0.8593
52391SOL     OW64222   4.401   1.600  11.119  0.5751 -0.3114  0.1875
52391SOL    HW164223   4.321   1.623  11.072  0.9449 -1.3096 -1.0089
52391SOL    HW264224   4.408   1.505  11.108  1.2278 -0.4193  1.4152
52392SOL     OW64225   7.956   2.821  10.294 -0.1320 -0.6947  0.4481
52392SOL    HW164226   7.877   2.813  10.241  0.5245  0.3869 -0.7528
52392SOL    HW264227   7.935   2.776  10.376 -2.1736  0.0589  0.3777
52393SOL     OW64228   7.792   4.581   4.666  0.0391  0.6329 -0.5397
52393SOL    HW164229   7.845   4.630   4.603  1.4391 -0.3651 -0.1817
52393SOL    HW264230   7.856   4.533   4.719 -1.1819  0.2763  0.6622
52394SOL     OW64231   7.991  11.326   0.019 -0.1718  0.2673  0.4596
52394SOL    HW164232   7.930  11.382   0.068 -0.7976 -0.3130  0.3658
52394SOL    HW264233   8.068  11.381   0.005 -0.4844  0.8627  0.9963
52395SOL     OW64234   3.799   6.465   1.097  0.8845  0.0938  0.0910
52395SOL    HW164235   3.747   6.536   1.061 -0.3962 -1.7685 -2.0031
52395SOL    HW264236   3.853   6.435   1.024  0.4664 -1.8622  0.5148
52396SOL     OW64237  11.649  10.725   5.857  0.3135 -0.2077  0.0747
52396SOL    HW164238  11.674  10.808   5.816 -2.9181  1.2533  0.7644
52396SOL    HW264239  11.662  10.660   5.788  2.2171  0.9159 -0.7331
52397SOL     OW64240   8.936   8.670   5.303 -0.4299  0.4074  0.0014
52397SOL    HW164241   8.929   8.629   5.389  0.3974  0.0403 -0.0937
52397SOL    HW264242   8.985   8.751   5.318  0.2920  0.0196 -0.2144
52398SOL     OW64243  12.512   6.670   2.148 -0.3554  0.0070 -0.1765
52398SOL    HW164244  12.432   6.722   2.152  0.2619  0.8843  1.3753
52398SOL    HW264245  12.495   6.595   2.205 -0.0653  0.2102  0.1801
52399SOL     OW64246   7.259   7.956  10.930  0.5208 -0.0456  0.1520
52399SOL    HW164247   7.304   7.877  10.960 -0.4950 -0.4305  0.7169
52399SOL    HW264248   7.174   7.953  10.974  0.0497  0.8041 -0.6694
52400SOL     OW64249   1.580   9.307   3.931  0.2477  0.2452 -0.2843
52400SOL    HW164250   1.643   9.290   4.001  0.1801 -0.5683 -0.4130
52400SOL    HW264251   1.548   9.396   3.948  1.1465  0.5170 -0.0035
52401SOL     OW64252   7.608   1.318   6.800  0.5342  0.2481 -0.5471
52401SOL    HW164253   7.523   1.358   6.818  0.8437  0.8301 -0.3598
52401SOL    HW264254   7.621   1.330   6.706 -0.3912 -1.4419 -0.9451
52402SOL     OW64255   4.556   9.865   9.123 -0.4675  0.5093 -0.5613
52402SOL    HW164256   4.522   9.882   9.210  1.5358 -0.9338  0.5791
52402SOL    HW264257   4.483   9.886   9.064 -2.6984 -0.7782  1.5704
52403SOL     OW64258  10.893   8.274   7.362  0.5005 -0.1182 -0.4741
52403SOL    HW164259  10.811   8.232   7.336  0.5853 -0.3722 -0.3423
52403SOL    HW264260  10.961   8.223   7.318  0.5002  1.6173 -2.6339
52404SOL     OW64261   8.607   5.462   3.889  0.1962 -0.4970  0.2766
52404SOL    HW164262   8.595   5.510   3.807 -0.1111  0.3532  0.8010
52404SOL    HW264263   8.558   5.381   3.877  0.2584 -0.4318 -0.4270
52405SOL     OW64264   5.139   6.161   7.791  0.8235 -0.3850  1.0161
52405SOL    HW164265   5.173   6.085   7.838  0.3514 -0.1439  1.7756
52405SOL    HW264266   5.113   6.222   7.861 -0.0046 -0.0614  0.4440
52406SOL     OW64267  11.072  12.479   3.950  0.1013  0.0942  0.3447
52406SOL    HW164268  11.014  12.405   3.968  0.2283  0.2002  1.2183
52406SOL    HW264269  11.042  12.548   4.009  0.8170  0.3100  0.4692
52407SOL     OW64270   5.029   2.639   4.998  0.3486 -0.5329  0.5115
52407SOL    HW164271   5.063   2.673   5.081 -0.1003  1.4314 -0.0710
52407SOL    HW264272   4.947   2.596   5.022  0.6975 -0.8357  1.2064
52408SOL     OW64273   8.107   5.977   5.940  0.2603 -0.3896 -0.6757
52408SOL    HW164274   8.024   5.934   5.961  0.0853 -0.2340 -1.0387
52408SOL    HW264275   8.098   6.004   5.848  0.3937  0.3580 -0.4775
52409SOL     OW64276   5.872   9.727   5.581  0.2307  0.3172 -0.1404
52409SOL    HW164277   5.805   9.728   5.649  0.5559  0.5618  0.1815
52409SOL    HW264278   5.955   9.725   5.629  0.4820  1.1996 -0.5127
52410SOL     OW64279   5.216  10.749   2.381  0.0792  0.4665  0.1089
52410SOL    HW164280   5.179  10.661   2.389  2.4660 -0.5761  0.2888
52410SOL    HW264281   5.236  10.759   2.288  3.2858 -0.7598  0.5650
52411SOL     OW64282   9.249   9.480   6.888 -0.5801 -0.7495  0.2775
52411SOL    HW164283   9.197   9.504   6.965 -1.3838 -0.6191 -0.2964
52411SOL    HW264284   9.335   9.456   6.924  0.0767  2.2718  0.9803
52412SOL     OW64285   6.029  10.851  11.512  0.7910 -0.1582  0.0971
52412SOL    HW164286   5.998  10.940  11.494  0.4948 -0.2997 -0.0980
52412SOL    HW264287   6.103  10.840  11.453  0.8901 -0.0047  0.1920
52413SOL     OW64288   8.240   2.214   5.674  0.4125  0.5397  0.0234
52413SOL    HW164289   8.214   2.278   5.741 -1.4458 -0.5411  0.4222
52413SOL    HW264290   8.237   2.262   5.592 -2.7394  0.6386  0.0812
52414SOL     OW64291  11.680   0.335   3.804  0.1973 -0.8934 -0.1082
52414SOL    HW164292  11.589   0.311   3.786 -0.8353  1.9456  0.8776
52414SOL    HW264293  11.712   0.375   3.723 -1.4645  3.4276  1.1044
52415SOL     OW64294   0.195   5.937  10.754  0.2057  0.0864  0.0817
52415SOL    HW164295   0.163   6.006  10.812 -1.0691 -0.4722  0.0809
52415SOL    HW264296   0.115   5.895  10.722  0.9456 -0.7455 -0.6881
52416SOL     OW64297   9.614   7.546   4.979 -0.2678  0.4206  0.3778
52416SOL    HW164298   9.683   7.563   4.915 -2.4897  1.4166 -1.8979
52416SOL    HW264299   9.638   7.462   5.018  1.0727 -0.3597 -1.9111
52417SOL     OW64300   2.961  10.202   1.020  0.1762  0.0108  0.4441
52417SOL    HW164301   2.989  10.202   0.928  0.0959  1.9933  0.3784
52417SOL    HW264302   3.043  10.194   1.070  0.1774 -1.6493  0.2383
52418SOL     OW64303   5.541  10.620  12.561  0.3061  0.4365 -0.1417
52418SOL    HW164304   5.587  10.627  12.645  0.7507 -0.3604 -0.3025
52418SOL    HW264305   5.558  10.703  12.517  2.8358 -0.3291 -0.7912
52419SOL     OW64306   0.775   6.284   1.910 -0.0987  0.1752  0.1363
52419SOL    HW164307   0.797   6.336   1.833  1.8687  1.0120  1.2026
52419SOL    HW264308   0.850   6.226   1.922 -0.7412 -0.5114  0.9645
52420SOL     OW64309   7.247   3.085   5.604 -0.4936  0.3346  0.3102
52420SOL    HW164310   7.190   3.145   5.652  1.6316  3.5969 -0.8154
52420SOL    HW264311   7.260   3.128   5.519  0.4409 -2.2722 -0.9579
52421SOL     OW64312   6.147   7.583   7.602 -0.1185  0.3069 -0.3704
52421SOL    HW164313   6.210   7.654   7.588  1.0480 -0.6427 -0.1001
52421SOL    HW264314   6.064   7.628   7.615  0.5631  1.6258 -0.3394
52422SOL     OW64315   8.760   1.745  12.108  0.2238 -0.4963  0.4660
52422SOL    HW164316   8.707   1.825  12.114 -3.1794 -2.2753 -1.9924
52422SOL    HW264317   8.723   1.688  12.175 -0.3931 -1.4102 -0.6114
52423SOL     OW64318   9.727   8.804   9.034 -0.1546 -0.3820 -0.6219
52423SOL    HW164319   9.693   8.715   9.023 -0.6580 -0.0441 -1.9758
52423SOL    HW264320   9.660   8.861   8.996  1.1645  0.4021 -1.8951
52424SOL     OW64321   3.419   4.062   8.630  0.8601 -0.0917 -0.4845
52424SOL    HW164322   3.328   4.058   8.659  0.3417 -1.0707 -2.0780
52424SOL    HW264323   3.461   4.124   8.690 -0.7412  0.0460  0.5569
52425SOL     OW64324   2.444   6.276   2.103 -0.2854 -0.4914  0.1137
52425SOL    HW164325   2.507   6.304   2.037 -1.0169 -0.5256 -0.6221
52425SOL    HW264326   2.497   6.245   2.176  0.5440  0.3635 -0.1026
52426SOL     OW64327  12.081   2.385   5.571 -0.4120  0.6737 -0.8425
52426SOL    HW164328  12.062   2.293   5.592 -0.7150  0.5588 -1.6072
52426SOL    HW264329  12.002   2.415   5.525 -0.3510  1.3445 -0.5137
52427SOL     OW64330   0.169  11.544   5.323 -0.4682  0.2031 -0.1179
52427SOL    HW164331   0.203  11.565   5.237 -1.7926  2.4133 -0.1920
52427SOL    HW264332   0.245  11.516   5.373  0.2964 -1.2564 -2.0114
52428SOL     OW64333   4.546   0.674   1.725 -0.1544 -0.4942  0.6614
52428SOL    HW164334   4.562   0.764   1.697  2.3048 -1.2432 -0.6512
52428SOL    HW264335   4.515   0.683   1.816 -0.1698  1.6601  0.5059
52429SOL     OW64336  11.610   9.306  12.475  0.2818  0.2231 -0.2139
52429SOL    HW164337  11.530   9.339  12.432 -1.1715 -0.6084  1.6848
52429SOL    HW264338  11.637   9.377  12.533  1.4129  0.8032 -1.4199
52430SOL     OW64339  10.712   1.685   5.373  0.5702  0.2011 -0.3543
52430SOL    HW164340  10.761   1.670   5.292  0.6587 -1.9224  0.0299
52430SOL    HW264341  10.696   1.597   5.407 -0.1043  1.0285  1.5635
52431SOL     OW64342  11.069  10.612   4.670  0.4563  0.3804 -0.0198
52431SOL    HW164343  11.131  10.554   4.627  1.0069  1.0634 -0.1635
52431SOL    HW264344  11.098  10.616   4.761  0.9725  1.1444 -0.2098
52432SOL     OW64345   9.742  11.249   1.321  0.0176  0.1772  0.6149
52432SOL    HW164346   9.720  11.317   1.385  3.6130  1.0798  1.1110
52432SOL    HW264347   9.795  11.187   1.370  1.9742  0.3252 -1.1812
52433SOL     OW64348   5.744   4.638   6.878 -0.1349  0.0754  0.5908
52433SOL    HW164349   5.757   4.724   6.838 -1.9677  0.7126  1.2485
52433SOL    HW264350   5.732   4.578   6.805 -0.3533  0.6655  0.1392
52434SOL     OW64351   3.756   0.784   5.365 -0.6155 -0.0546 -0.0471
52434SOL    HW164352   3.670   0.822   5.383 -0.7967 -0.8025  0.7061
52434SOL    HW264353   3.771   0.801   5.272 -0.8565  1.5102  0.1837
52435SOL     OW64354   6.232   0.724   6.211  0.0153  0.2533  0.5169
52435SOL    HW164355   6.160   0.690   6.265 -0.4454 -1.7199 -1.1710
52435SOL    HW264356   6.308   0.723   6.268 -0.6196 -0.9649  1.3885
52436SOL     OW64357   9.209   8.622  11.953 -0.5889 -0.1604 -0.0170
52436SOL    HW164358   9.298   8.597  11.930 -0.7707 -1.3002  0.4679
52436SOL    HW264359   9.217   8.712  11.985  0.1288  0.3150 -1.4637
52437SOL     OW64360   7.431   4.318   4.792 -0.6246 -0.0981 -0.3644
52437SOL    HW164361   7.361   4.256   4.812 -1.3434  1.0436  0.8440
52437SOL    HW264362   7.446   4.365   4.875  0.2983  0.9297 -1.0797
52438SOL     OW64363  10.696   1.226   2.952  0.0224  0.0585  0.0113
52438SOL    HW164364  10.781   1.205   2.991  0.5729  0.2036 -1.0986
52438SOL    HW264365  10.705   1.202   2.860 -0.9890  0.5198 -0.2183
52439SOL     OW64366   7.226   6.188   1.112  0.5226  0.9805 -0.3302
52439SOL    HW164367   7.317   6.166   1.091  0.0604 -0.0488 -1.3523
52439SOL    HW264368   7.199   6.246   1.041 -0.1363 -0.1135 -0.9941
52440SOL     OW64369   1.720  11.670   2.202 -0.2372 -0.4715 -0.3389
52440SOL    HW164370   1.648  11.709   2.251  0.2001  0.3254 -0.3155
52440SOL    HW264371   1.761  11.743   2.156  0.8949 -0.8019  0.0829
52441SOL     OW64372  12.192   3.242  11.042  0.0301  0.0231 -0.2984
52441SOL    HW164373  12.145   3.302  11.099  0.2437  0.0349 -0.1350
52441SOL    HW264374  12.156   3.259  10.955 -0.3660 -0.0684 -0.1505
52442SOL     OW64375  11.768  12.214  12.092 -0.2478  0.1274 -0.2047
52442SOL    HW164376  11.726  12.247  12.013  0.6064  0.3934 -0.5620
52442SOL    HW264377  11.829  12.147  12.061  2.5481  2.5023 -0.2058
52443SOL     OW64378   5.433   1.455   9.938 -0.4794  0.2992  0.1037
52443SOL    HW164379   5.447   1.549   9.954  1.4308  0.0879 -0.0080
52443SOL    HW264380   5.467   1.412  10.016 -0.2023 -0.3369 -0.3541
52444SOL     OW64381  10.522   4.325  10.486  0.0464  0.3552  0.1088
52444SOL    HW164382  10.518   4.407  10.536  0.0082  1.0072 -0.9415
52444SOL    HW264383  10.430   4.302  10.472  0.0562  0.0214  0.5600
52445SOL     OW64384  10.010   5.125   7.808 -0.0661  0.3582 -0.0957
52445SOL    HW164385  10.093   5.078   7.797  0.8607  2.0353 -0.5594
52445SOL    HW264386  10.014   5.160   7.897 -0.1789  0.6127 -0.1893
52446SOL     OW64387   8.303   8.135   3.340  0.0799 -0.1687  0.4444
52446SOL    HW164388   8.317   8.099   3.427 -2.8593 -0.8844  0.7358
52446SOL    HW264389   8.300   8.058   3.282  0.6320  0.1926 -0.0813
52447SOL     OW64390   9.409  10.924   2.249 -0.0521 -0.6622 -0.6235
52447SOL    HW164391   9.481  10.873   2.285 -1.1909 -0.4870  2.1595
52447SOL    HW264392   9.442  11.014   2.248  0.9467 -0.9906 -2.8047
52448SOL     OW64393   9.910   7.934   0.202 -0.3679  0.5442 -0.3721
52448SOL    HW164394   9.821   7.948   0.171 -0.3728  2.7631  0.4488
52448SOL    HW264395   9.962   8.001   0.158  0.6503  0.1355  0.1636
52449SOL     OW64396   5.030   2.122   9.601  0.3287  0.1527 -0.9458
52449SOL    HW164397   5.025   2.049   9.540 -0.5353  0.0368 -0.7559
52449SOL    HW264398   5.122   2.148   9.601  0.8896 -1.6794 -0.1326
52450SOL     OW64399   3.566   5.106   1.394  0.6291 -0.3429 -0.3518
52450SOL    HW164400   3.551   5.022   1.350  0.0291 -0.1883 -0.4568
52450SOL    HW264401   3.521   5.170   1.338  2.7941  0.3573 -1.4220
52451SOL     OW64402   1.745   4.236   7.207  0.2725 -0.5144  0.2947
52451SOL    HW164403   1.709   4.180   7.139 -0.2868 -0.4224  0.5058
52451SOL    HW264404   1.839   4.232   7.194  0.2821 -1.9183  0.6325
52452SOL     OW64405   6.721   3.920   2.223 -0.3120 -0.0961  0.0692
52452SOL    HW164406   6.632   3.914   2.257 -0.5106  0.5313 -0.3391
52452SOL    HW264407   6.763   3.985   2.279 -0.4361  0.4241 -0.4348
52453SOL     OW64408   0.629  10.620   2.530  0.4047  0.5291  0.5241
52453SOL    HW164409   0.689  10.694   2.534 -1.7187  2.3162  2.0679
52453SOL    HW264410   0.561  10.647   2.468  0.1005 -0.5474  0.3667
52454SOL     OW64411   5.043   5.771   8.533  0.0928  0.5791  0.5618
52454SOL    HW164412   5.117   5.784   8.473 -1.1002  1.0362 -0.8726
52454SOL    HW264413   4.979   5.836   8.506 -1.5800 -0.9874  0.5472
52455SOL     OW64414   5.589   4.384   3.206 -0.3747  0.3683  0.0290
52455SOL    HW164415   5.625   4.338   3.130 -1.9411  0.5022 -0.8297
52455SOL    HW264416   5.659   4.381   3.271  1.2934  0.8965 -1.6516
52456SOL     OW64417  11.708   5.669   6.689  0.7993  0.7334 -0.2386
52456SOL    HW164418  11.660   5.687   6.769 -1.1941 -0.1055 -1.1852
52456SOL    HW264419  11.707   5.574   6.681  1.1467  0.7933 -1.1464
52457SOL     OW64420   3.589   5.964   0.813  0.6464 -0.4425 -0.0874
52457SOL    HW164421   3.564   6.031   0.877  0.0013 -2.0383  1.4347
52457SOL    HW264422   3.625   5.892   0.866  0.8558 -1.5022 -1.5941
52458SOL     OW64423  11.520  11.834   1.094  0.4190  0.0557  0.7117
52458SOL    HW164424  11.599  11.862   1.140 -0.7373  2.8885  1.1484
52458SOL    HW264425  11.515  11.889   1.016 -2.1745  1.5064  1.7773
52459SOL     OW64426   6.864   0.833  10.067 -0.1734 -0.1434 -0.0046
52459SOL    HW164427   6.893   0.803   9.981 -1.4516 -0.6577 -0.2705
52459SOL    HW264428   6.827   0.755  10.109 -1.1397  0.4729  0.3283
52460SOL     OW64429   0.867  10.359   2.327  0.0725  0.2552 -0.5655
52460SOL    HW164430   0.890  10.452   2.330 -1.6504  0.7434 -1.5745
52460SOL    HW264431   0.784  10.356   2.280  1.0724 -1.9960 -2.3497
52461SOL     OW64432   1.707   9.378  12.426  0.3054 -0.0825 -0.2286
52461SOL    HW164433   1.754   9.295  12.436 -0.1891 -0.5478 -1.5390
52461SOL    HW264434   1.776   9.444  12.416  0.6894 -0.5028 -0.3679
52462SOL     OW64435   1.467   2.699   1.113  0.0875  0.1195 -0.8231
52462SOL    HW164436   1.418   2.744   1.182  3.3955  1.0645  1.1645
52462SOL    HW264437   1.423   2.616   1.102 -2.2400  1.1094  0.3716
52463SOL     OW64438   4.156  10.555   9.014 -0.5292  0.3511 -0.0722
52463SOL    HW164439   4.089  10.587   9.074  0.5306 -0.1940  1.4410
52463SOL    HW264440   4.131  10.593   8.929 -2.2746  0.8187  0.5963
52464SOL     OW64441   4.344   9.208  11.995  0.0269  0.3342  0.2402
52464SOL    HW164442   4.388   9.272  11.939  1.6961 -1.0876 -0.1472
52464SOL    HW264443   4.411   9.180  12.057 -0.5980 -1.1885  0.2638
52465SOL     OW64444   3.427   8.277   3.193  0.1632  0.2569 -0.2248
52465SOL    HW164445   3.362   8.306   3.129 -1.4121  1.4076  1.7541
52465SOL    HW264446   3.497   8.342   3.188 -0.7860  1.3753  0.3869
52466SOL     OW64447   9.775  12.337   3.345  0.5732  0.6217  0.5802
52466SOL    HW164448   9.690  12.357   3.305  0.9657  0.7252 -0.2298
52466SOL    HW264449   9.775  12.242   3.356  0.9341  0.4411 -0.8162
52467SOL     OW64450   5.107   5.734   1.370  0.4183 -0.0745 -0.1748
52467SOL    HW164451   5.142   5.745   1.458 -0.1029  0.3593 -0.0114
52467SOL    HW264452   5.128   5.817   1.326 -0.7323  0.3623  0.0540
52468SOL     OW64453  10.969   2.808  11.175 -0.4474  0.1150  0.2914
52468SOL    HW164454  10.886   2.763  11.191  0.1817 -0.9421  0.6459
52468SOL    HW264455  10.983   2.861  11.253 -0.1883 -0.6617  0.7845
52469SOL     OW64456   0.070  10.335  10.210  0.1750  0.5079  0.0296
52469SOL    HW164457   0.030  10.251  10.232  0.2072  0.7342  0.9713
52469SOL    HW264458   0.110  10.365  10.292  1.7690  0.5757 -0.7240
52470SOL     OW64459   2.535   8.954   4.320  0.0269 -0.2263  0.0845
52470SOL    HW164460   2.618   8.915   4.293  1.3684  1.6941  1.1910
52470SOL    HW264461   2.509   8.905   4.398  0.1320 -0.8127 -0.2466
52471SOL     OW64462   1.477  11.257   4.329  0.1563 -0.4383  0.4159
52471SOL    HW164463   1.439  11.181   4.373  1.6101 -0.4490  1.7168
52471SOL    HW264464   1.486  11.323   4.398 -1.3679  1.1034 -0.7323
52472SOL     OW64465   1.112  12.346   9.890 -0.4620 -0.1549 -0.3153
52472SOL    HW164466   1.052  12.369   9.819  0.7613 -1.0567 -1.6849
52472SOL    HW264467   1.157  12.427   9.910 -0.6925  0.0713 -0.6883
52473SOL     OW64468   3.062   3.192   9.954 -0.7634 -0.8514  0.9179
52473SOL    HW164469   3.007   3.118   9.981 -2.0568  0.5222  2.2783
52473SOL    HW264470   3.109   3.217  10.034  0.9935 -1.2341  0.0600
52474SOL     OW64471  11.773   5.073   0.085 -0.2091 -0.0992  0.4555
52474SOL    HW164472  11.763   5.148   0.026 -1.3615  0.9208  1.8871
52474SOL    HW264473  11.683   5.045   0.102  0.0775 -0.1395  1.9958
52475SOL     OW64474   3.720   4.653   9.303 -0.0518 -0.5436 -0.1024
52475SOL    HW164475   3.651   4.689   9.247  0.2945 -0.5416 -0.5326
52475SOL    HW264476   3.695   4.562   9.316 -0.2282 -0.4967 -0.1095
52476SOL     OW64477   5.271  11.133   0.393  0.2215 -0.1996  0.1170
52476SOL    HW164478   5.212  11.209   0.389  0.6247  0.0920 -0.3934
52476SOL    HW264479   5.264  11.103   0.484 -0.3097  0.1512  0.2013
52477SOL     OW64480   9.069  12.526  12.320 -0.3020 -0.1413 -0.9100
52477SOL    HW164481   9.149  12.489  12.282  0.4636 -0.2561  0.7272
52477SOL    HW264482   9.086  12.620  12.326  0.5669 -0.3680  1.2178
52478SOL     OW64483   6.636   2.516   3.263  0.2814  0.3003 -0.2111
52478SOL    HW164484   6.632   2.603   3.223  0.5369  0.5581  0.3204
52478SOL    HW264485   6.719   2.514   3.311  0.7578 -0.6056 -1.0439
52479SOL     OW64486   5.384  11.236   9.819  0.3658  0.3975 -0.0754
52479SOL    HW164487   5.462  11.283   9.848  0.6020  0.6639 -1.1086
52479SOL    HW264488   5.417  11.173   9.755 -0.3486  1.0246 -1.0858
52480SOL     OW64489   9.984   7.016   1.550  0.2192  0.1963  0.0452
52480SOL    HW164490   9.952   7.003   1.639  1.1187  0.2775  0.3895
52480SOL    HW264491   9.915   6.980   1.494  0.4181 -1.5327  0.8301
52481SOL     OW64492   7.914   5.242   5.920 -0.2849  0.2199  0.5891
52481SOL    HW164493   8.009   5.232   5.918 -0.2391  0.1869  2.2418
52481SOL    HW264494   7.881   5.160   5.956 -1.0129 -0.0339 -0.5868
52482SOL     OW64495  10.908   4.279   3.552  0.0855  0.0409  0.7753
52482SOL    HW164496  10.985   4.256   3.605  0.6792  1.2797  0.4878
52482SOL    HW264497  10.874   4.195   3.522  1.2083 -0.5460  1.0883
52483SOL     OW64498   8.445   1.227   0.267 -0.0307 -0.0345  0.3538
52483SOL    HW164499   8.384   1.273   0.325 -0.5350 -0.5554  0.2496
52483SOL    HW264500   8.394   1.154   0.233 -0.0025  0.6929 -1.3654
52484SOL     OW64501   7.478   0.110   7.921  0.4849  0.8764  0.3468
52484SOL    HW164502   7.391   0.151   7.924  0.6554  1.3591 -0.8645
52484SOL    HW264503   7.460   0.020   7.894  0.3096  0.7884  0.7455
52485SOL     OW64504  12.189   6.526   1.524 -0.0913 -0.2378 -0.2778
52485SOL    HW164505  12.218   6.532   1.432 -0.5880  0.0715 -0.4221
52485SOL    HW264506  12.178   6.617   1.551 -0.1759 -0.3347  0.0161
52486SOL     OW64507   9.585  10.925  11.700 -0.2933 -0.4384 -0.0019
52486SOL    HW164508   9.677  10.954  11.703  0.1432 -1.6798 -0.7698
52486SOL    HW264509   9.586  10.839  11.741 -1.1849 -0.3463  0.2318
52487SOL     OW64510  11.992   9.033   3.603  0.5609 -0.0830  0.3152
52487SOL    HW164511  12.011   9.104   3.664 -0.4143 -0.3941  1.0083
52487SOL    HW264512  11.978   9.076   3.519  2.4218  0.3102  0.1613
52488SOL     OW64513   5.498   7.737   4.085 -0.0107 -0.6458 -0.5261
52488SOL    HW164514   5.480   7.663   4.143  1.6572 -0.4003  0.3466
52488SOL    HW264515   5.421   7.793   4.094 -0.2639 -1.1485  0.5981
52489SOL     OW64516   1.096  10.032   9.858  0.6030 -0.2734  0.4098
52489SOL    HW164517   1.186   9.999   9.864  0.3832 -1.1357 -0.6585
52489SOL    HW264518   1.041   9.958   9.883  0.1746  0.3010  1.2333
52490SOL     OW64519   9.805   9.781   5.569  0.3256 -0.1677 -0.1783
52490SOL    HW164520   9.781   9.829   5.649  0.9252 -1.4062  0.7897
52490SOL    HW264521   9.746   9.705   5.569  1.2416 -0.8894 -0.1640
52491SOL     OW64522   4.463   4.159   0.196  0.1141  0.0520 -0.1851
52491SOL    HW164523   4.380   4.144   0.151 -0.9745  0.5862  1.5419
52491SOL    HW264524   4.461   4.252   0.219  1.3058  0.1238 -0.3093
52492SOL     OW64525   6.734   1.080   4.600 -0.0937 -0.2021 -0.1571
52492SOL    HW164526   6.730   1.159   4.547  1.7503  1.9949  2.6546
52492SOL    HW264527   6.644   1.049   4.603 -0.7335  1.2775 -2.0290
52493SOL     OW64528   0.416   1.789   7.676 -0.2735 -0.0800  0.2510
52493SOL    HW164529   0.493   1.804   7.621 -0.4882  0.4020  0.0699
52493SOL    HW264530   0.425   1.699   7.706 -0.9507 -0.8929 -1.8277
52494SOL     OW64531   6.256   4.630   8.687  0.7199 -0.2917  0.2653
52494SOL    HW164532   6.228   4.596   8.602  0.7951  0.2455  0.0175
52494SOL    HW264533   6.186   4.690   8.713  1.7362  1.2858 -0.4922
52495SOL     OW64534   4.821   1.889   7.382  0.6304 -0.2044  0.5301
52495SOL    HW164535   4.874   1.959   7.345  1.9901 -0.9762  0.9335
52495SOL    HW264536   4.859   1.873   7.469  1.6104 -2.6573 -0.2381
52496SOL     OW64537   8.761  12.226   8.768  0.0621 -0.1121  0.7902
52496SOL    HW164538   8.761  12.182   8.853  1.2260 -1.4215  0.1525
52496SOL    HW264539   8.670  12.225   8.740 -0.5054  1.2172  2.4202
52497SOL     OW64540   2.454   3.109   5.104  0.2895 -1.0269 -0.7031
52497SOL    HW164541   2.362   3.088   5.094 -0.4556  1.1966  0.8469
52497SOL    HW264542   2.480   3.145   5.019 -0.3959 -1.1911 -0.9847
52498SOL     OW64543  12.143   6.647  12.031  0.4915 -0.7438 -0.0809
52498SOL    HW164544  12.076   6.647  11.962  0.7483  0.7319 -0.3746
52498SOL    HW264545  12.094   6.656  12.113  0.2950  0.7046 -0.3171
52499SOL     OW64546   9.864   5.950  11.347  0.6648 -0.1471  0.9511
52499SOL    HW164547   9.803   5.879  11.368  0.3740  0.0236  0.6994
52499SOL    HW264548   9.932   5.909  11.295 -0.3197  0.0393 -0.5392
52500SOL     OW64549   5.039  10.205   0.346 -0.4666 -0.2134 -0.2777
52500SOL    HW164550   4.944  10.204   0.362 -0.6120  0.2694 -1.0800
52500SOL    HW264551   5.048  10.234   0.255  0.5553  2.4992  0.5879
52501SOL     OW64552   1.851   9.902  10.061  0.1540 -0.0538  0.9242
52501SOL    HW164553   1.888   9.989  10.050  1.1866 -0.6268 -0.4167
52501SOL    HW264554   1.921   9.851  10.103 -0.7865 -0.0249  2.6101
52502SOL     OW64555   6.884  10.979  10.282 -0.6198 -0.7214  0.0956
52502SOL    HW164556   6.936  10.974  10.362 -0.5434 -1.0429  0.0258
52502SOL    HW264557   6.797  10.950  10.309 -1.0896  0.9157  0.4844
52503SOL     OW64558   2.012   2.536   4.169  0.5123  0.4376  0.4084
52503SOL    HW164559   2.093   2.553   4.218 -0.2632  0.8002  1.5951
52503SOL    HW264560   1.944   2.582   4.218 -0.6398 -0.9604  0.1825
52504SOL     OW64561   1.711   9.648   0.477 -0.1417  0.3082 -0.2951
52504SOL    HW164562   1.785   9.644   0.417  0.2164  0.3582  0.1379
52504SOL    HW264563   1.683   9.556   0.487  0.1290  0.2416 -0.1340
52505SOL     OW64564   3.236   8.941  10.767  0.3825 -0.3072 -0.1272
52505SOL    HW164565   3.228   8.975  10.856 -0.0261 -1.8475  0.4529
52505SOL    HW264566   3.250   9.019  10.713 -0.4079  0.7562  1.1356
52506SOL     OW64567   0.948  10.620   2.329 -0.8257 -0.1956 -0.2504
52506SOL    HW164568   0.861  10.649   2.302 -0.5092  0.9183 -0.1470
52506SOL    HW264569   1.003  10.637   2.252 -0.2596  1.3513  0.4467
52507SOL     OW64570  10.097   9.630   9.950  0.5442 -0.4500 -0.2450
52507SOL    HW164571  10.013   9.599   9.915 -0.2631  1.6095 -0.2817
52507SOL    HW264572  10.145   9.660   9.873  0.6057 -0.0169 -0.0360
52508SOL     OW64573  10.596   7.359   7.660  0.3822 -0.0091  0.2232
52508SOL    HW164574  10.629   7.341   7.748 -1.2705 -1.0904  0.6681
52508SOL    HW264575  10.501   7.366   7.670  0.3053  1.6737 -1.2068
52509SOL     OW64576   8.943   9.273  11.940 -0.0897  0.2271 -0.3429
52509SOL    HW164577   8.894   9.320  12.008  2.7749  2.1315  0.6010
52509SOL    HW264578   8.902   9.300  11.858 -0.5975  1.7726  0.3872
52510SOL     OW64579   9.289   8.754   6.839  0.0826  0.4118  0.2675
52510SOL    HW164580   9.279   8.685   6.904 -0.0091 -0.7112 -0.9023
52510SOL    HW264581   9.254   8.716   6.758  0.9687  1.4548 -0.6354
52511SOL     OW64582   5.572  10.087   9.181 -0.0651  0.6019  0.4910
52511SOL    HW164583   5.569   9.997   9.212 -0.2420  0.5383  0.2937
52511SOL    HW264584   5.482  10.119   9.192 -0.0229  0.7256  0.4784
52512SOL     OW64585  12.392   6.706   4.608  0.3373 -0.2153 -0.7123
52512SOL    HW164586  12.310   6.726   4.654  1.5439  2.2561  0.5591
52512SOL    HW264587  12.365   6.673   4.522 -1.9888 -3.0461  0.9290
52513SOL     OW64588   0.917   4.242   1.989 -0.0700 -0.1325 -0.2112
52513SOL    HW164589   0.890   4.192   1.913 -0.1828  0.0513 -0.2924
52513SOL    HW264590   1.009   4.263   1.973 -0.1730  0.1587 -0.4377
52514SOL     OW64591   2.429   4.995   5.965 -0.0565  0.1679 -0.5619
52514SOL    HW164592   2.343   5.003   6.006  0.8321  0.3406  1.4286
52514SOL    HW264593   2.448   5.083   5.933  0.4033  0.8171  1.3293
52515SOL     OW64594   6.875   9.493   5.673 -0.0446  0.1286  0.2541
52515SOL    HW164595   6.786   9.489   5.708  0.0546 -1.5005  0.3715
52515SOL    HW264596   6.864   9.505   5.579 -0.3255  2.6309  0.5406
52516SOL     OW64597   2.361   7.465   7.634  0.1407 -0.1362 -0.1776
52516SOL    HW164598   2.300   7.402   7.672  1.1823 -0.3114  1.2723
52516SOL    HW264599   2.336   7.549   7.674 -0.7101  0.2562 -1.4721
52517SOL     OW64600  12.557   3.689   9.185 -0.0902  0.2350  0.0833
52517SOL    HW164601  12.581   3.750   9.116  0.8704 -0.6907 -0.4320
52517SOL    HW264602  12.635   3.635   9.198 -0.8715 -0.8221  0.5843
52518SOL     OW64603   0.404   6.602   9.535  0.0401 -0.4656 -0.1913
52518SOL    HW164604   0.405   6.697   9.545 -1.8897 -0.2904 -1.1357
52518SOL    HW264605   0.362   6.570   9.614  0.3162 -0.5052 -0.0598
52519SOL     OW64606  12.025   4.094   9.892  0.1779 -0.2258  0.4211
52519SOL    HW164607  12.057   4.053   9.972 -0.8026 -1.8464  0.0261
52519SOL    HW264608  12.037   4.027   9.825  0.6800  0.9900 -0.7428
52520SOL     OW64609   9.568  11.392   0.726 -0.1800 -0.2558  0.5011
52520SOL    HW164610   9.532  11.305   0.740 -0.8888  0.0272  0.4684
52520SOL    HW264611   9.627  11.406   0.800  0.2035 -0.8934  0.3250
52521SOL     OW64612   7.470   9.688   7.660 -0.0979 -0.1310 -0.5944
52521SOL    HW164613   7.448   9.726   7.745 -0.6051  1.8626 -1.5634
52521SOL    HW264614   7.552   9.641   7.675 -0.1965  0.1393  0.9882
52522SOL     OW64615   6.340  10.284   0.765 -0.6533  0.1715  0.1062
52522SOL    HW164616   6.430  10.305   0.793 -1.0529  1.9461  0.1842
52522SOL    HW264617   6.292  10.274   0.848 -0.2610 -2.4058  0.1193
52523SOL     OW64618   8.891  10.111   5.354 -0.4623 -0.1076  0.5347
52523SOL    HW164619   8.971  10.144   5.314  0.5858 -2.4582  0.5097
52523SOL    HW264620   8.821  10.165   5.317  0.8542  0.4143 -1.3530
52524SOL     OW64621  10.159   3.284   5.892 -0.7426  0.7436  0.6599
52524SOL    HW164622  10.087   3.224   5.876  0.8834 -0.9659 -0.7234
52524SOL    HW264623  10.228   3.229   5.929  0.0645  2.2130  1.4207
52525SOL     OW64624   8.616   3.016   4.107  0.5993 -0.4319 -0.3062
52525SOL    HW164625   8.633   3.100   4.063  0.3964  0.1913  0.7581
52525SOL    HW264626   8.523   2.999   4.089  0.8108 -0.8055 -1.1152
52526SOL     OW64627   6.551   6.045   9.624 -0.0937  0.1928  0.4195
52526SOL    HW164628   6.519   6.008   9.542  0.9530  0.8802 -0.3269
52526SOL    HW264629   6.647   6.044   9.614  0.0074  1.2294  1.2032
52527SOL     OW64630   1.562   3.307  11.222 -0.4687 -0.5949  0.4011
52527SOL    HW164631   1.531   3.391  11.188  1.7503 -0.4815 -1.6376
52527SOL    HW264632   1.561   3.318  11.317 -0.8825  1.4750  0.2153
52528SOL     OW64633   2.241  10.250  11.971 -0.5904 -0.6133  0.2207
52528SOL    HW164634   2.302  10.214  11.906  1.6889  0.2816  1.7253
52528SOL    HW264635   2.227  10.179  12.033  0.9711 -0.1256  1.1972
52529SOL     OW64636   1.800   6.954   4.352 -0.1075 -0.1668 -0.3534
52529SOL    HW164637   1.762   7.008   4.421  1.0822  0.0370  0.1553
52529SOL    HW264638   1.838   7.018   4.291  0.3067 -0.3898 -0.3314
52530SOL     OW64639   5.089   8.981   6.658 -0.2902 -0.5308 -0.4888
52530SOL    HW164640   5.185   8.981   6.652 -0.2728  0.3686 -0.3808
52530SOL    HW264641   5.063   9.068   6.626 -0.8833  0.3226  2.1043
52531SOL     OW64642   2.078  11.360   4.948  0.1227 -0.4072  0.3847
52531SOL    HW164643   2.088  11.432   5.010 -0.0177 -1.3040  1.4739
52531SOL    HW264644   2.159  11.310   4.956 -0.9536 -2.0512  1.8881
52532SOL     OW64645   0.309   5.373   1.020 -0.6075 -0.0275  0.0714
52532SOL    HW164646   0.240   5.435   0.997  0.1713  0.9834  0.4154
52532SOL    HW264647   0.285   5.341   1.107 -0.6338  0.3377  0.2007
52533SOL     OW64648   4.630   6.932   9.556 -0.8470 -0.0942  0.4050
52533SOL    HW164649   4.665   6.850   9.521 -0.5428 -0.9324  2.5395
52533SOL    HW264650   4.588   6.907   9.638 -2.5711  1.5951  0.1087
52534SOL     OW64651   6.286   2.650   3.521  0.7290 -0.7013 -0.0606
52534SOL    HW164652   6.238   2.663   3.603  1.0294 -3.3457  0.6318
52534SOL    HW264653   6.354   2.717   3.522 -0.1705  0.2415  1.1246
52535SOL     OW64654   4.397   1.551   9.225  0.4961  0.5721  0.2850
52535SOL    HW164655   4.391   1.467   9.181  1.4579  0.5627  0.1501
52535SOL    HW264656   4.437   1.610   9.160 -0.9922  1.3857  0.0514
52536SOL     OW64657   8.598   6.291   1.389  0.2578  0.3200 -0.8472
52536SOL    HW164658   8.607   6.323   1.478  0.2313 -1.1264 -0.3036
52536SOL    HW264659   8.683   6.254   1.367  0.4271  1.1456 -1.6302
52537SOL     OW64660  11.911   6.180   6.158 -0.4151 -0.6787 -0.2949
52537SOL    HW164661  11.913   6.268   6.194  1.9711 -0.7583 -0.1008
52537SOL    HW264662  11.862   6.188   6.076  1.8804  1.4265 -1.5981
52538SOL     OW64663  11.344  11.763   6.595 -0.5067 -0.0484 -0.2351
52538SOL    HW164664  11.401  11.836   6.573 -0.5818  0.3447  0.8012
52538SOL    HW264665  11.403  11.694   6.624 -0.5057  0.1000  0.1269
52539SOL     OW64666   2.373   4.551   2.147  0.0485 -0.1994 -0.0388
52539SOL    HW164667   2.465   4.568   2.166  0.1535 -1.1348  0.3109
52539SOL    HW264668   2.348   4.480   2.206 -0.3609 -1.2980 -1.4563
52540SOL     OW64669   8.107   1.381   6.434  0.7335  0.4963 -0.1817
52540SOL    HW164670   8.150   1.378   6.349 -0.1309 -1.0707 -0.6004
52540SOL    HW264671   8.027   1.433   6.420  1.7075  2.2117  0.2682
52541SOL     OW64672   3.787   4.984   1.749  0.2733  0.0211  0.3500
52541SOL    HW164673   3.726   5.057   1.754 -0.8356 -0.9789  2.2453
52541SOL    HW264674   3.873   5.025   1.760 -0.2074  1.1722  0.0125
52542SOL     OW64675   2.687   1.183   7.707  0.0831 -0.3568  0.3185
52542SOL    HW164676   2.609   1.160   7.757  0.9552  0.3024  2.0730
52542SOL    HW264677   2.724   1.098   7.681 -1.3980 -0.6684 -0.9119
52543SOL     OW64678   2.995  11.884  11.566  0.0186 -0.7082  0.2719
52543SOL    HW164679   3.056  11.926  11.626 -0.1161  0.9521 -0.6753
52543SOL    HW264680   2.968  11.954  11.506 -1.7801 -1.7048 -0.1713
52544SOL     OW64681   2.066   2.320   8.894 -0.1293  0.1612  0.1082
52544SOL    HW164682   2.000   2.310   8.826  0.4743  0.0914 -0.4777
52544SOL    HW264683   2.027   2.279   8.971  0.4357 -2.7387 -1.0062
52545SOL     OW64684   2.003   1.196   2.310 -0.7189 -0.0602 -0.3688
52545SOL    HW164685   1.938   1.207   2.241  0.1821 -1.6177 -1.5243
52545SOL    HW264686   1.994   1.104   2.336 -0.1482  0.1688  0.6854
52546SOL     OW64687   7.462   1.113   3.764 -0.2946  0.4594 -1.0611
52546SOL    HW164688   7.390   1.140   3.706 -1.1761  0.1334 -0.1512
52546SOL    HW264689   7.425   1.120   3.852  1.2276  1.5713 -0.4868
52547SOL     OW64690   3.059   5.725  11.589  0.2378  0.1097  0.0764
52547SOL    HW164691   3.124   5.774  11.638  0.9319 -0.5028 -0.2227
52547SOL    HW264692   3.108   5.656  11.545 -0.5132  0.0515 -0.6993
52548SOL     OW64693  10.215   6.909   6.356  0.2824  0.2922  0.1828
52548SOL    HW164694  10.281   6.949   6.412  0.4638 -1.2812  1.1405
52548SOL    HW264695  10.136   6.904   6.411  0.4880 -1.3461  0.3626
52549SOL     OW64696   4.625   1.127  11.572 -0.4475 -0.1354  0.1393
52549SOL    HW164697   4.624   1.045  11.621 -0.0722 -0.8505 -0.9910
52549SOL    HW264698   4.715   1.160  11.582 -1.2329  1.4580  2.6228
52550SOL     OW64699   9.975  11.209   6.545 -0.2205 -0.3929 -0.4074
52550SOL    HW164700  10.019  11.128   6.519 -0.2065 -0.5915  0.2397
52550SOL    HW264701   9.983  11.212   6.640  0.8992  1.0143 -0.5271
52551SOL     OW64702   7.304  10.140  10.972 -0.4055 -0.0147 -0.0771
52551SOL    HW164703   7.323  10.233  10.960 -0.6071  0.1149  0.5504
52551SOL    HW264704   7.364  10.095  10.913  0.1199  0.4934  0.0612
52552SOL     OW64705   7.434  11.169   0.264  0.0680 -0.0973  0.2723
52552SOL    HW164706   7.404  11.187   0.175 -0.0194  0.8366  0.4700
52552SOL    HW264707   7.490  11.244   0.286 -0.3306 -0.0487  1.1808
52553SOL     OW64708   5.538  10.903   8.490  0.4472  0.2297  0.0303
52553SOL    HW164709   5.476  10.949   8.547 -0.2869  1.4691 -1.6832
52553SOL    HW264710   5.483  10.861   8.425  1.2916 -0.7922 -0.0443
52554SOL     OW64711   8.747  12.274   2.878 -0.3553  0.6367 -0.1571
52554SOL    HW164712   8.789  12.333   2.940 -0.9647  2.4298 -1.3769
52554SOL    HW264713   8.697  12.213   2.933  3.9374 -1.8947  1.3811
52555SOL     OW64714   8.288   0.480   0.189  0.7953  0.2758 -0.2384
52555SOL    HW164715   8.372   0.503   0.149  0.3949  0.3435 -1.0698
52555SOL    HW264716   8.261   0.560   0.234  0.6911  0.5881 -0.8446
52556SOL     OW64717   7.674  10.340   0.851  0.0230 -0.0654 -0.1535
52556SOL    HW164718   7.666  10.246   0.835 -0.7932  0.1599 -1.1230
52556SOL    HW264719   7.728  10.372   0.778  0.7839  0.1418  0.4829
52557SOL     OW64720  11.672  11.473  10.136  0.3129  0.6249  0.1736
52557SOL    HW164721  11.605  11.466  10.204  0.9099 -1.6135  0.6139
52557SOL    HW264722  11.752  11.441  10.178  0.7583 -0.5625 -1.4871
52558SOL     OW64723   2.462   8.261   1.280  0.4985  0.5116  0.1851
52558SOL    HW164724   2.487   8.169   1.274  1.1669  0.6422  0.7702
52558SOL    HW264725   2.542   8.309   1.258 -0.1046  0.9649 -1.0835
52559SOL     OW64726   9.825   4.968   6.290 -1.0591  0.0149  0.4012
52559SOL    HW164727   9.816   4.970   6.386 -0.7411  1.5002  0.4215
52559SOL    HW264728   9.868   5.051   6.268 -1.6866 -0.0280 -1.0932
52560SOL     OW64729   9.227   2.036  11.396  0.6158 -1.1055  0.2663
52560SOL    HW164730   9.207   1.960  11.450  0.9926 -1.5625 -0.2305
52560SOL    HW264731   9.317   2.058  11.418  0.1831 -0.1452  1.1820
52561SOL     OW64732   5.331   9.021   6.519 -0.2954  0.0069  0.3481
52561SOL    HW164733   5.336   8.944   6.463  1.1054 -0.5034  1.1391
52561SOL    HW264734   5.415   9.066   6.507 -1.9157  2.7953 -1.9309
52562SOL     OW64735   9.470   8.835   7.314 -0.5090  0.4414  0.2493
52562SOL    HW164736   9.502   8.760   7.365 -0.2803  0.1387 -0.3303
52562SOL    HW264737   9.497   8.911   7.365  1.2858  0.2069 -0.2572
52563SOL     OW64738   1.298   0.065   0.158 -0.1013 -0.3231 -0.2997
52563SOL    HW164739   1.362  -0.006   0.158 -0.7797 -1.1534 -4.2675
52563SOL    HW264740   1.352   0.144   0.168  1.5089 -1.0726 -2.2290
52564SOL     OW64741   2.632   0.553  10.081 -0.2459 -0.3047 -0.5188
52564SOL    HW164742   2.569   0.624  10.090 -0.1355 -0.4030  1.4428
52564SOL    HW264743   2.717   0.596  10.074 -0.2440 -0.2201 -0.0108
52565SOL     OW64744   1.905  12.072   3.296 -0.0387 -0.1407  0.0831
52565SOL    HW164745   1.870  11.983   3.293 -0.0254 -0.1356 -0.2357
52565SOL    HW264746   1.886  12.108   3.210 -1.5279  0.7308  0.7349
52566SOL     OW64747  10.500   0.418   1.459 -0.3100 -0.3038 -0.2131
52566SOL    HW164748  10.584   0.425   1.504 -0.0144 -1.0586 -0.6371
52566SOL    HW264749  10.508   0.477   1.384 -0.0029 -0.7011 -0.4920
52567SOL     OW64750   1.003  11.065  10.774  0.4001  0.1416  0.2499
52567SOL    HW164751   1.089  11.097  10.801  0.8918 -2.0657  1.5987
52567SOL    HW264752   0.977  11.122  10.701  1.7966  2.5242  1.4957
52568SOL     OW64753   6.556   0.441  11.325 -0.3295 -0.6056  0.6166
52568SOL    HW164754   6.609   0.513  11.362 -0.2729 -0.5141  0.3574
52568SOL    HW264755   6.613   0.364  11.332 -0.2372 -0.5465  0.5232
52569SOL     OW64756   5.168   6.547   5.775  0.5245 -0.1945  0.2519
52569SOL    HW164757   5.088   6.523   5.727  0.8133 -0.0922 -0.2806
52569SOL    HW264758   5.144   6.626   5.823  0.6751  0.5941 -0.9231
52570SOL     OW64759   7.359   7.928   3.567 -0.0259 -0.6327  0.1561
52570SOL    HW164760   7.376   7.920   3.474  1.0271  0.3050  0.2522
52570SOL    HW264761   7.285   7.989   3.572  1.4442  1.2303 -0.0031
52571SOL     OW64762  10.831   5.704   1.315 -0.8553 -0.0917 -0.6371
52571SOL    HW164763  10.804   5.721   1.405 -0.2773  2.4833 -0.8661
52571SOL    HW264764  10.865   5.614   1.317 -1.5828 -0.3847  1.5058
52572SOL     OW64765  12.136   0.618   8.615 -0.6215  0.1036 -0.1869
52572SOL    HW164766  12.069   0.677   8.650 -0.9111 -0.5583  0.3794
52572SOL    HW264767  12.152   0.555   8.685 -0.8191 -0.9169 -1.0276
52573SOL     OW64768   0.125   4.780   1.121 -0.3020 -0.0338  0.0635
52573SOL    HW164769   0.119   4.875   1.113 -0.1632  0.0860  1.2453
52573SOL    HW264770   0.212   4.764   1.158 -0.2466 -0.6425 -0.3066
52574SOL     OW64771   2.456   1.693   6.707  0.3360  0.5464 -0.1302
52574SOL    HW164772   2.477   1.626   6.642 -0.7411 -0.7113  0.7615
52574SOL    HW264773   2.526   1.758   6.699  0.8227 -0.1409 -1.7542
52575SOL     OW64774   1.782   8.384   1.850  0.3948  0.2567  0.2014
52575SOL    HW164775   1.790   8.386   1.945 -0.0056 -0.3025  0.2517
52575SOL    HW264776   1.716   8.316   1.833  0.6943  0.1301 -0.4874
52576SOL     OW64777   0.338   6.202   6.471  0.1409 -0.5902 -0.5774
52576SOL    HW164778   0.297   6.116   6.483 -0.1625 -0.8535 -2.9968
52576SOL    HW264779   0.425   6.182   6.436  0.4976  0.0780 -0.0954
52577SOL     OW64780   3.842  12.241  10.669  0.1353  0.0188 -0.2579
52577SOL    HW164781   3.906  12.188  10.716  0.4108 -0.0588 -0.7077
52577SOL    HW264782   3.856  12.330  10.701  0.9696  0.1233 -0.8683
52578SOL     OW64783   3.839   8.056   8.587 -0.4129  0.4554 -0.2395
52578SOL    HW164784   3.893   8.110   8.529 -1.2325  0.0266 -1.4247
52578SOL    HW264785   3.886   8.057   8.671  1.1260  0.5781 -1.0688
52579SOL     OW64786   8.752   2.123   8.855 -0.2766 -0.1633  0.2332
52579SOL    HW164787   8.686   2.076   8.804  0.2077  0.4721 -1.0334
52579SOL    HW264788   8.732   2.102   8.946 -2.0190 -0.2395 -0.1388
52580SOL     OW64789   6.581   7.008   5.052  0.4866  0.4420  0.2048
52580SOL    HW164790   6.525   7.070   5.099  0.3894  0.7578 -0.3218
52580SOL    HW264791   6.522   6.939   5.025  0.8655 -0.7586  2.2278
52581SOL     OW64792   9.993   9.189   0.695 -0.9371  0.3303  0.3190
52581SOL    HW164793  10.067   9.137   0.664 -1.2290  0.3769 -0.4825
52581SOL    HW264794   9.999   9.186   0.791  0.6485  1.1278  0.2670
52582SOL     OW64795   4.439  12.327   8.210  0.2531 -0.6436  0.1535
52582SOL    HW164796   4.367  12.384   8.237  0.0105 -1.3878  1.1391
52582SOL    HW264797   4.512  12.386   8.194 -0.5823  0.1383 -0.9392
52583SOL     OW64798   5.983   0.115   6.205  0.0203  0.1069 -0.0967
52583SOL    HW164799   5.940   0.133   6.288  0.0126 -0.5842  0.0585
52583SOL    HW264800   5.914   0.124   6.140 -0.7075 -2.1458  0.2619
52584SOL     OW64801  12.074   6.060   7.352  0.3159 -0.4071 -0.1988
52584SOL    HW164802  11.984   6.089   7.368  0.2898 -0.0997 -0.8756
52584SOL    HW264803  12.128   6.115   7.410  0.2996  1.2874 -1.7216
52585SOL     OW64804   8.217  11.358   9.526  0.5190  0.3154  0.7285
52585SOL    HW164805   8.265  11.290   9.572  1.5242 -0.5718 -1.4660
52585SOL    HW264806   8.282  11.426   9.509  0.8454 -0.4530 -1.4060
52586SOL     OW64807   2.295   4.664   8.279  0.3303  0.4788  0.2877
52586SOL    HW164808   2.240   4.694   8.351 -0.0964  0.5780 -0.0777
52586SOL    HW264809   2.375   4.634   8.322  0.2770  0.9884  0.7618
52587SOL     OW64810   9.080   1.604   8.087 -0.2536 -0.2476 -0.2071
52587SOL    HW164811   9.001   1.633   8.133 -1.5898 -2.0345 -1.2570
52587SOL    HW264812   9.060   1.515   8.058  2.2249 -0.8167 -0.3960
52588SOL     OW64813   9.368   5.297  11.351 -0.4199  0.4833 -0.2736
52588SOL    HW164814   9.432   5.367  11.335  0.0611  0.0111 -0.4525
52588SOL    HW264815   9.415   5.217  11.330 -1.5146  0.1938 -1.7646
52589SOL     OW64816   4.707   6.705   0.595 -0.1905  0.0329  0.3264
52589SOL    HW164817   4.755   6.669   0.520 -0.3952 -0.6992  0.5368
52589SOL    HW264818   4.770   6.701   0.668 -0.1089  0.4038  0.2757
52590SOL     OW64819   4.052   5.185  11.194 -0.8080 -0.1901 -0.3831
52590SOL    HW164820   4.020   5.154  11.279  0.2913 -0.4433 -0.0457
52590SOL    HW264821   3.974   5.217  11.149 -1.3732  0.1949  0.8301
52591SOL     OW64822   1.578   7.429  12.365 -0.1018 -0.3183  0.0627
52591SOL    HW164823   1.500   7.464  12.407  0.5113  2.0469 -0.6267
52591SOL    HW264824   1.546   7.394  12.281 -0.4217  0.8870 -0.3391
52592SOL     OW64825   9.664   3.172   1.197  0.1043 -0.2472  0.3200
52592SOL    HW164826   9.652   3.110   1.268  0.3498  0.3274  0.8736
52592SOL    HW264827   9.575   3.192   1.167  0.0290 -0.9350  0.0679
52593SOL     OW64828   9.752   0.229   4.122 -0.0572  0.0492 -0.0375
52593SOL    HW164829   9.834   0.180   4.121 -0.2819 -0.5670 -3.7230
52593SOL    HW264830   9.684   0.162   4.133 -0.1666  0.3512  1.2425
52594SOL     OW64831   7.410  12.134   2.505 -0.0721  0.1062  0.2777
52594SOL    HW164832   7.484  12.164   2.453 -0.1171 -0.5384 -0.1691
52594SOL    HW264833   7.345  12.203   2.496 -0.1912 -0.1201 -0.7661
52595SOL     OW64834   0.131   7.919   8.070  0.1705 -0.1702  0.7002
52595SOL    HW164835   0.192   7.854   8.036 -0.7812 -0.9820  0.5199
52595SOL    HW264836   0.163   7.936   8.159 -0.2423 -1.7648  1.1775
52596SOL     OW64837  10.771   5.705   0.748  0.2544  0.0922 -0.2801
52596SOL    HW164838  10.818   5.735   0.670  2.9754 -1.9120  0.4266
52596SOL    HW264839  10.783   5.775   0.812 -0.5255  0.9977 -1.0975
52597SOL     OW64840   7.531   9.386   1.283  0.4007  0.1176 -0.2638
52597SOL    HW164841   7.506   9.453   1.345  1.1065 -0.5312  0.7416
52597SOL    HW264842   7.453   9.331   1.274  0.4286 -0.0325  0.3844
52598SOL     OW64843   4.487  12.118   0.752 -0.0985 -0.3300  0.4236
52598SOL    HW164844   4.401  12.141   0.718 -0.4659 -2.2731 -0.0936
52598SOL    HW264845   4.544  12.190   0.725 -1.5720  1.1029  0.9889
52599SOL     OW64846  11.908   0.821   3.197  0.5936 -0.7935 -0.6230
52599SOL    HW164847  11.971   0.750   3.181  1.1036 -0.5484  0.2101
52599SOL    HW264848  11.962   0.895   3.224 -0.0071 -0.3538 -0.6101
52600SOL     OW64849   1.472   5.335  11.312  0.4096  0.5967 -0.0633
52600SOL    HW164850   1.464   5.241  11.331  0.7267  0.3636 -0.9971
52600SOL    HW264851   1.437   5.379  11.389 -1.6413 -0.2885 -0.4404
52601SOL     OW64852   4.099   1.612   9.469  0.0781  0.1094 -0.2910
52601SOL    HW164853   4.019   1.657   9.443 -0.6338 -0.0077  1.5013
52601SOL    HW264854   4.167   1.679   9.464 -0.5932  0.8744  0.4085
52602SOL     OW64855   7.175  11.902   4.327  0.4560 -0.0891  0.1012
52602SOL    HW164856   7.115  11.829   4.342  0.1846  0.3058  0.9429
52602SOL    HW264857   7.258  11.873   4.364  0.2126  0.2294  0.9140
52603SOL     OW64858   7.644   2.901   2.842  0.4474 -0.1470 -0.4955
52603SOL    HW164859   7.721   2.929   2.892  0.2422  1.2232 -0.9027
52603SOL    HW264860   7.600   2.838   2.900  0.3921  1.1415  0.9337
52604SOL     OW64861   8.893   0.591  10.618 -0.3369 -0.5338  0.0177
52604SOL    HW164862   8.823   0.582  10.683 -0.6121 -0.4745 -0.2676
52604SOL    HW264863   8.874   0.674  10.573 -0.8201 -1.1440 -0.9285
52605SOL     OW64864   0.923   6.310  11.477 -0.2867  0.3948  0.1664
52605SOL    HW164865   0.870   6.334  11.401 -1.4337  1.7485  1.3420
52605SOL    HW264866   1.013   6.308  11.445 -0.9591 -2.0844 -1.9303
52606SOL     OW64867   2.095   2.349   3.347  0.7515 -0.4246  0.0705
52606SOL    HW164868   2.119   2.299   3.425  0.3167 -2.3327 -0.9707
52606SOL    HW264869   2.144   2.307   3.275 -0.0870  0.2726 -0.9424
52607SOL     OW64870   4.210   0.732   7.971 -0.4164  0.0045  0.6009
52607SOL    HW164871   4.191   0.651   8.018 -0.2060 -0.5659 -0.2700
52607SOL    HW264872   4.137   0.742   7.910  1.3528 -1.5818 -1.9483
52608SOL     OW64873  11.635  10.058  12.062  0.8926 -0.3075  0.0039
52608SOL    HW164874  11.612  10.046  12.154  1.6736  1.5473  0.4898
52608SOL    HW264875  11.636   9.970  12.025 -1.2887 -0.9312  1.2957
52609SOL     OW64876  10.493   1.521   0.033  0.4272  0.2523 -0.4222
52609SOL    HW164877  10.488   1.498   0.126  0.4860  2.6576  0.2609
52609SOL    HW264878  10.445   1.604   0.027  1.3460  0.6998 -2.3376
52610SOL     OW64879   6.064   1.547   0.322 -0.2513  0.2217  0.2051
52610SOL    HW164880   6.070   1.452   0.313  1.3052  0.1247  1.6699
52610SOL    HW264881   6.119   1.567   0.397  0.1329  2.3848 -0.5815
52611SOL     OW64882   0.145   9.139   4.788 -0.3123 -0.7269 -0.9652
52611SOL    HW164883   0.188   9.097   4.714  1.3094 -0.5793 -0.1576
52611SOL    HW264884   0.097   9.068   4.832  0.3482 -1.2228 -1.0340
52612SOL     OW64885   6.337   5.196   5.812 -0.5655  0.3111 -0.4250
52612SOL    HW164886   6.249   5.157   5.818  0.2348 -1.6345 -0.5172
52612SOL    HW264887   6.364   5.210   5.902 -0.8560  0.6584 -0.3897
52613SOL     OW64888   6.548   4.004   0.798  0.1075 -0.1385 -0.3550
52613SOL    HW164889   6.502   4.071   0.746 -0.3291  0.7914  1.1755
52613SOL    HW264890   6.616   4.052   0.845  1.1842 -1.1415 -0.8285
52614SOL     OW64891   0.099  11.392   8.372 -0.0689  0.3379  0.0985
52614SOL    HW164892   0.085  11.426   8.283 -0.1927 -0.5918 -0.2454
52614SOL    HW264893   0.103  11.297   8.361 -0.2273  0.2061  1.1121
52615SOL     OW64894   6.722   3.826   9.154  0.0716  0.1614  0.5579
52615SOL    HW164895   6.803   3.840   9.106  0.4810  0.6465  1.3624
52615SOL    HW264896   6.721   3.732   9.173 -1.1697 -0.4817 -2.2150
52616SOL     OW64897   3.271   7.608   9.382  0.6891 -0.0527 -0.1290
52616SOL    HW164898   3.290   7.522   9.421 -0.4289 -0.6791 -0.9114
52616SOL    HW264899   3.320   7.609   9.300  0.0626 -0.2973 -0.5173
52617SOL     OW64900   7.100   2.732  12.383 -0.5275 -0.2432 -0.4990
52617SOL    HW164901   7.076   2.663  12.321  1.2113 -1.2333 -0.1325
52617SOL    HW264902   7.195   2.742  12.372 -0.7332  2.1801 -0.5913
52618SOL     OW64903   7.779   0.463  10.997  0.0878  0.1164  0.4846
52618SOL    HW164904   7.829   0.415  10.932 -1.5153 -0.9517 -0.0049
52618SOL    HW264905   7.749   0.397  11.059 -1.5549  0.5564  0.2056
52619SOL     OW64906   6.645   7.398   7.081 -0.2241  0.1442 -0.5063
52619SOL    HW164907   6.665   7.489   7.100 -1.2725 -0.0901  2.1288
52619SOL    HW264908   6.718   7.349   7.118  0.1673 -0.1427 -1.6114
52620SOL     OW64909  11.757  11.195   0.879  0.0159  0.2012  0.2500
52620SOL    HW164910  11.703  11.274   0.873  0.5029  0.5516  0.4480
52620SOL    HW264911  11.699  11.130   0.919 -0.4282  0.4180 -0.0292
52621SOL     OW64912   5.649  10.455  12.185  0.2877 -0.3351  0.4591
52621SOL    HW164913   5.609  10.406  12.257  0.0500 -0.3306  0.3296
52621SOL    HW264914   5.596  10.534  12.176 -0.1241 -0.6758 -0.1944
52622SOL     OW64915  12.260   6.916   2.652  0.1559 -0.5178  0.3019
52622SOL    HW164916  12.314   6.840   2.635 -1.3030 -1.7683  0.9942
52622SOL    HW264917  12.247   6.956   2.566  0.1092 -1.6479 -0.2305
52623SOL     OW64918  11.158   6.947   6.431 -0.0874  0.0160 -0.8649
52623SOL    HW164919  11.146   6.885   6.503 -0.7635 -0.6412 -1.5237
52623SOL    HW264920  11.230   7.004   6.460  0.1767 -0.7248 -0.0121
52624SOL     OW64921   6.813  11.736  10.878 -0.1303 -0.1821 -0.4271
52624SOL    HW164922   6.841  11.759  10.789 -0.1503 -1.8692 -0.9019
52624SOL    HW264923   6.749  11.666  10.866  0.8831 -1.4148  0.9375
52625SOL     OW64924  12.117  11.122   7.749 -0.0886  0.3147  0.1851
52625SOL    HW164925  12.037  11.120   7.696 -1.5750  1.7326  2.2035
52625SOL    HW264926  12.188  11.108   7.687 -1.9233 -2.1460 -1.5498
52626SOL     OW64927  10.292   2.638   9.972  0.8982  0.3650 -0.5988
52626SOL    HW164928  10.221   2.597   9.922  0.7394  0.4419 -0.4360
52626SOL    HW264929  10.252   2.662  10.055  1.0147  0.7648 -0.6567
52627SOL     OW64930   6.247   8.035   6.008 -0.2705 -0.1460 -0.0358
52627SOL    HW164931   6.173   7.975   6.001  0.1037 -0.6766  0.4244
52627SOL    HW264932   6.294   8.006   6.086  0.5122  0.0634 -0.4136
52628SOL     OW64933   0.247   6.020   7.673 -0.3329 -0.2445 -0.3944
52628SOL    HW164934   0.266   5.959   7.602 -1.5894 -0.3927 -0.6233
52628SOL    HW264935   0.152   6.021   7.680 -0.5434  3.2373 -1.7904
52629SOL     OW64936   3.836  10.695   8.591  0.1083 -0.1705  0.1567
52629SOL    HW164937   3.820  10.781   8.554 -0.4857  0.4278  1.7143
52629SOL    HW264938   3.759  10.678   8.645  0.1258 -1.7770 -0.2730
52630SOL     OW64939  12.066   7.202  10.395 -0.2476  0.2807 -0.5910
52630SOL    HW164940  12.055   7.159  10.310  0.3854 -1.2242  0.0456
52630SOL    HW264941  11.979   7.202  10.434 -0.1687 -0.9921 -0.3722
52631SOL     OW64942  12.463  10.898   6.633  0.0036  0.4659  0.3171
52631SOL    HW164943  12.391  10.893   6.695  0.1084 -0.2903  0.3817
52631SOL    HW264944  12.423  10.925   6.551 -0.3197  0.2506  0.4041
52632SOL     OW64945  12.447   8.620   7.083  0.2139 -0.4822 -0.2063
52632SOL    HW164946  12.540   8.633   7.065  0.5723 -1.0620  1.1074
52632SOL    HW264947  12.436   8.525   7.089 -0.3036 -0.3994  0.3509
52633SOL     OW64948   7.618   1.234   4.298 -0.1647  0.3087  0.2186
52633SOL    HW164949   7.674   1.157   4.309  1.5651  1.5386  0.2457
52633SOL    HW264950   7.540   1.213   4.350  0.7821 -0.9320  1.2140
52634SOL     OW64951   5.716   4.541   0.473 -0.1693  0.2194  0.5280
52634SOL    HW164952   5.704   4.572   0.563 -0.5098  0.0882  0.5308
52634SOL    HW264953   5.639   4.487   0.456  0.8441 -1.3619  0.8322
52635SOL     OW64954  10.022  12.364   9.155 -0.1667  0.0567 -0.0826
52635SOL    HW164955   9.963  12.408   9.094 -0.0332 -0.8746 -0.9062
52635SOL    HW264956   9.966  12.303   9.203  0.0871 -0.7498 -0.7890
52636SOL     OW64957   6.052  10.830   4.248  0.0548  0.1610  0.2546
52636SOL    HW164958   6.096  10.907   4.285 -0.0205  0.0312  0.6145
52636SOL    HW264959   6.124  10.773   4.221  0.1344  0.8875 -1.1657
52637SOL     OW64960   1.139   9.239   4.666 -0.0464  0.2675 -0.4356
52637SOL    HW164961   1.228   9.218   4.638  0.1660  1.3118 -0.5931
52637SOL    HW264962   1.097   9.274   4.588 -0.8641 -0.9555 -0.5720
52638SOL     OW64963  10.639   2.920   5.252 -1.0543  0.0692  0.3939
52638SOL    HW164964  10.582   2.960   5.317 -0.5302 -0.3206  1.1135
52638SOL    HW264965  10.668   2.993   5.197 -1.5262  0.3961  0.5729
52639SOL     OW64966   9.080   8.650   4.986 -0.9908 -0.1827 -0.1625
52639SOL    HW164967   9.012   8.598   5.029 -0.2630 -0.2846  0.9213
52639SOL    HW264968   9.044   8.738   4.982 -2.1019 -0.6812 -1.7133
52640SOL     OW64969  10.479  11.583   3.141  0.0773  0.5085 -0.2130
52640SOL    HW164970  10.460  11.491   3.162  1.8712  0.1405  0.0112
52640SOL    HW264971  10.491  11.583   3.045 -1.2670  0.7977 -0.3923
52641SOL     OW64972   4.847   3.152   3.914  0.8014 -0.3484 -0.4055
52641SOL    HW164973   4.826   3.125   4.004 -1.8037  1.7903 -0.2624
52641SOL    HW264974   4.905   3.083   3.882  0.8198 -1.8491  2.4723
52642SOL     OW64975   7.566   1.293   2.866  0.5042  0.3324  0.2277
52642SOL    HW164976   7.551   1.360   2.799 -0.3468 -0.5597 -0.5006
52642SOL    HW264977   7.636   1.239   2.831 -0.1309 -0.3011 -0.0874
52643SOL     OW64978  10.948   1.156  11.640  0.0976 -0.1879  0.2812
52643SOL    HW164979  10.968   1.094  11.710  1.1137 -0.5762 -0.3501
52643SOL    HW264980  11.015   1.142  11.574 -0.3803  0.7341 -0.4292
52644SOL     OW64981   1.118   5.004   3.443  0.1874  0.0164  0.0871
52644SOL    HW164982   1.124   4.944   3.518  1.3183 -0.2127 -0.1639
52644SOL    HW264983   1.165   5.082   3.471 -1.8103  1.0962  0.6438
52645SOL     OW64984  12.432  10.139   2.982 -0.0073  0.1726  0.1674
52645SOL    HW164985  12.349  10.095   2.997 -0.5584  0.9152 -0.5961
52645SOL    HW264986  12.444  10.135   2.887  0.1275  1.2821  0.1236
52646SOL     OW64987   6.647   0.221   8.994 -0.4492  1.2045 -0.0051
52646SOL    HW164988   6.613   0.292   8.939 -1.7497  0.6031 -0.0348
52646SOL    HW264989   6.579   0.153   8.989  0.2396  0.4218  0.9186
52647SOL     OW64990   5.044  10.579  11.220 -0.1862  0.2253  0.1829
52647SOL    HW164991   5.133  10.560  11.190  0.1740 -0.7652  1.7389
52647SOL    HW264992   4.988  10.543  11.152  0.6015 -2.0560  0.6314
52648SOL     OW64993   1.168  11.684   3.623  0.7734 -0.2633  0.1735
52648SOL    HW164994   1.161  11.770   3.581 -2.5500 -0.6990 -0.5234
52648SOL    HW264995   1.152  11.701   3.716 -0.6839 -0.1246 -0.0692
52649SOL     OW64996  10.139   4.067   4.595  1.0312  0.0750 -0.3367
52649SOL    HW164997  10.114   4.115   4.516 -0.5924  1.2262  0.8019
52649SOL    HW264998  10.145   4.135   4.663 -0.8841 -1.2010  1.2419
52650SOL     OW64999   1.389  11.731   5.631 -0.6129  0.2179  0.3987
52650SOL    HW165000   1.407  11.681   5.552  0.8502  0.9565  0.2239
52650SOL    HW265001   1.347  11.811   5.600  0.8156  0.9349  0.2396
52651SOL     OW65002   9.073   2.533   1.094 -0.2084 -0.2058 -0.2535
52651SOL    HW165003   9.103   2.571   1.176  1.7702  0.6756 -1.3005
52651SOL    HW265004   9.034   2.606   1.046  0.5218 -0.2128 -0.8941
52652SOL     OW65005   8.425  12.094   9.969  0.1302 -0.3722  0.0641
52652SOL    HW165006   8.506  12.045   9.956 -0.5839 -1.3172 -1.1269
52652SOL    HW265007   8.452  12.186   9.970  1.0756 -0.5765 -1.8410
52653SOL     OW65008   8.988   4.482  11.489  0.1283 -0.0110 -0.3135
52653SOL    HW165009   9.062   4.530  11.526  1.2931  0.3654 -2.9152
52653SOL    HW265010   9.018   4.391  11.485 -0.0076 -0.0560 -0.3181
52654SOL     OW65011   1.012   3.633  11.850 -0.1679  0.4557 -0.1878
52654SOL    HW165012   0.929   3.648  11.806 -0.2135 -1.8371 -1.0253
52654SOL    HW265013   1.027   3.538  11.842  2.2611  0.7196  0.3961
52655SOL     OW65014   6.822  11.341   1.832  0.0196 -0.1979 -0.2779
52655SOL    HW165015   6.787  11.287   1.903  1.3487 -0.1359  0.4569
52655SOL    HW265016   6.744  11.377   1.789 -0.8777 -1.9913 -0.2513
52656SOL     OW65017   2.038   8.788   4.909  0.3121  0.2318 -0.6957
52656SOL    HW165018   2.016   8.814   4.999 -0.7268  1.4160 -1.2653
52656SOL    HW265019   2.133   8.800   4.904  0.8485 -2.2702  0.9565
52657SOL     OW65020   1.318   8.774   7.400 -0.5377 -0.4024 -0.0930
52657SOL    HW165021   1.332   8.866   7.376 -1.0804 -0.8416 -2.2822
52657SOL    HW265022   1.310   8.728   7.317  1.2737 -2.7321  0.9157
52658SOL     OW65023   2.305  11.202   4.997 -0.2763 -0.3902  0.8157
52658SOL    HW165024   2.288  11.152   5.077  1.9624 -3.3884 -0.3935
52658SOL    HW265025   2.387  11.167   4.964 -1.1466  0.6383 -2.8597
52659SOL     OW65026   1.196   6.153   5.844 -0.3217  0.2823  0.0120
52659SOL    HW165027   1.178   6.244   5.870  4.3934  1.2273  1.0195
52659SOL    HW265028   1.232   6.160   5.756  3.2257  0.0607  1.2876
52660SOL     OW65029   3.304   6.636  11.906  0.3074 -0.3600 -0.1616
52660SOL    HW165030   3.217   6.635  11.946 -1.1046  1.8686 -2.8441
52660SOL    HW265031   3.356   6.691  11.965 -1.2271  1.4364 -0.3863
52661SOL     OW65032   8.332   3.384   4.105  0.0066 -0.6982 -0.1813
52661SOL    HW165033   8.376   3.321   4.048  1.7250 -0.7845  1.1841
52661SOL    HW265034   8.363   3.363   4.193 -1.8812  0.0142  0.7058
52662SOL     OW65035   6.182   9.640   8.910  0.5685  0.0850 -0.1881
52662SOL    HW165036   6.274   9.623   8.892  0.9310  2.0511 -0.4804
52662SOL    HW265037   6.135   9.607   8.833  0.7485 -2.8045  0.8524
52663SOL     OW65038   5.032  11.281   7.187 -0.3648  0.6199  0.2877
52663SOL    HW165039   4.952  11.278   7.240  0.8312 -1.2999  2.1722
52663SOL    HW265040   5.080  11.357   7.221 -1.3897  1.8841 -0.9697
52664SOL     OW65041   3.303   5.843   0.171  0.3711 -0.0302  0.1575
52664SOL    HW165042   3.270   5.799   0.092  1.1491  1.4888 -1.0871
52664SOL    HW265043   3.397   5.831   0.167  0.4741  0.6395  0.4879
52665SOL     OW65044   3.383   4.311   8.019 -0.2456 -0.7644 -0.3409
52665SOL    HW165045   3.396   4.311   8.114 -0.0591 -1.4748 -0.3603
52665SOL    HW265046   3.396   4.402   7.993 -1.2195 -0.3905  0.4340
52666SOL     OW65047   0.287   3.374   2.617 -0.5873  0.1425  0.0420
52666SOL    HW165048   0.245   3.459   2.628 -2.3116 -0.7054  0.3096
52666SOL    HW265049   0.323   3.354   2.703 -0.9670  0.2105  0.2195
52667SOL     OW65050   8.657   3.373   1.741 -0.2432  0.0602 -0.7103
52667SOL    HW165051   8.604   3.428   1.683  0.2817  1.9378  0.4792
52667SOL    HW265052   8.741   3.363   1.696 -0.0148  1.0752 -0.5366
52668SOL     OW65053   4.708   9.871   2.050 -0.6836  0.4822 -0.0066
52668SOL    HW165054   4.647   9.915   1.991 -1.3863  0.2092  0.5041
52668SOL    HW265055   4.714   9.781   2.017  0.9191  0.9809 -1.1783
52669SOL     OW65056   1.301  12.165   1.278 -0.3758 -0.4145  0.6457
52669SOL    HW165057   1.384  12.157   1.325 -1.0082  0.6580  2.0434
52669SOL    HW265058   1.325  12.167   1.186  1.1203 -0.4188  1.0142
52670SOL     OW65059  11.623   4.556   5.254 -0.1994 -0.0952  0.2141
52670SOL    HW165060  11.672   4.556   5.336 -0.1059 -0.8591  0.1605
52670SOL    HW265061  11.574   4.474   5.254 -0.4863  0.0634 -0.3290
52671SOL     OW65062   6.893  11.253  10.445  0.8241 -0.5127  0.2279
52671SOL    HW165063   6.809  11.226  10.408 -0.5596  0.6148  2.2854
52671SOL    HW265064   6.916  11.182  10.505  0.4771 -0.0854  0.8775
52672SOL     OW65065   3.692   4.117   3.180  0.7075 -0.1321 -0.2889
52672SOL    HW165066   3.612   4.117   3.233  1.6575  1.8621  1.2776
52672SOL    HW265067   3.664   4.153   3.096  0.0064  0.8717  0.3481
52673SOL     OW65068   9.358   0.874   3.257 -0.1391  0.5780  0.2546
52673SOL    HW165069   9.423   0.921   3.309  0.1375  0.0348  0.4086
52673SOL    HW265070   9.352   0.924   3.175  1.1125  0.1630 -0.1145
52674SOL     OW65071  10.874   1.935   8.560  0.3835  0.0199 -0.4792
52674SOL    HW165072  10.967   1.920   8.579  0.0614 -0.8896  0.4279
52674SOL    HW265073  10.872   1.956   8.466  1.5314  0.3731 -0.4408
52675SOL     OW65074   6.926   2.673   4.008  0.0090  0.0826 -0.0210
52675SOL    HW165075   6.886   2.752   4.044 -0.2312  0.6621 -1.5158
52675SOL    HW265076   7.009   2.702   3.971  1.4432 -0.9372  2.1476
52676SOL     OW65077   0.111   5.597   3.973 -0.4221 -0.6174 -0.0053
52676SOL    HW165078   0.042   5.663   3.972 -1.3875 -1.6211 -0.7355
52676SOL    HW265079   0.096   5.544   3.895  1.6723 -0.3763 -0.6486
52677SOL     OW65080   1.642   3.042   6.404 -0.1482 -0.2188  0.0692
52677SOL    HW165081   1.608   3.023   6.316 -1.4544 -1.3387  0.7816
52677SOL    HW265082   1.708   3.110   6.390 -2.2133  1.6275 -1.4807
52678SOL     OW65083   7.316   7.582   4.322  0.5633  0.0868  0.2451
52678SOL    HW165084   7.352   7.647   4.262 -0.7550  0.9208  0.3109
52678SOL    HW265085   7.378   7.579   4.394  0.7190  1.1939  0.1732
52679SOL     OW65086   9.733   9.267   7.678  0.3630 -0.3457  0.0626
52679SOL    HW165087   9.735   9.283   7.772 -1.7376  1.3815 -0.0951
52679SOL    HW265088   9.643   9.241   7.660  0.7534 -0.7548 -1.4682
52680SOL     OW65089   4.535   6.548  11.655  0.0943 -0.4085  0.5552
52680SOL    HW165090   4.441   6.532  11.649  0.0708 -0.2581  0.5304
52680SOL    HW265091   4.571   6.467  11.692  0.3636 -1.7883 -2.3894
52681SOL     OW65092  12.282   5.517   7.602  0.5078  0.2315 -0.6334
52681SOL    HW165093  12.337   5.595   7.601  1.7959 -0.6458 -0.5211
52681SOL    HW265094  12.250   5.511   7.692  1.4167 -0.0360 -0.3154
52682SOL     OW65095   2.065  11.119   2.867 -0.4001 -0.3919  0.4338
52682SOL    HW165096   1.989  11.065   2.885 -0.9088 -0.1298 -0.8173
52682SOL    HW265097   2.135  11.082   2.921 -1.2470 -1.0364  1.0987
52683SOL     OW65098   4.686  11.670  11.710 -0.1709  0.1521 -0.4912
52683SOL    HW165099   4.771  11.688  11.670 -0.1828  0.7628 -0.2491
52683SOL    HW265100   4.698  11.587  11.756  1.6369  2.2076  3.2013
52684SOL     OW65101  12.538   5.238  11.148  0.0653 -0.3572 -0.3822
52684SOL    HW165102  12.631   5.219  11.139  0.6768  1.3245  1.4744
52684SOL    HW265103  12.497   5.199  11.071  2.1812 -1.8108 -0.8493
52685SOL     OW65104   2.247   0.798   3.858  0.2225 -0.4744 -0.1879
52685SOL    HW165105   2.215   0.708   3.854 -1.2381 -0.0164  0.3216
52685SOL    HW265106   2.337   0.794   3.826  0.1563 -2.0970 -0.2283
52686SOL     OW65107   9.047  11.405  10.532 -0.4729 -0.8696  0.0747
52686SOL    HW165108   9.036  11.361  10.616 -0.9030 -0.7164  0.1020
52686SOL    HW265109   8.989  11.357  10.473  0.4449 -1.5073 -0.3384
52687SOL     OW65110   2.899  10.182  10.615 -0.1083 -0.0644  0.0345
52687SOL    HW165111   2.978  10.129  10.608 -1.0486 -1.5753  0.4953
52687SOL    HW265112   2.856  10.173  10.530 -0.5713 -0.5612  0.3138
52688SOL     OW65113   1.035   0.261   6.104 -0.3451  0.3258  0.0750
52688SOL    HW165114   0.957   0.315   6.088 -0.3433  0.4203  0.3638
52688SOL    HW265115   1.075   0.250   6.018 -1.7253 -1.3605 -0.3930
52689SOL     OW65116  11.347  10.741   4.946  0.5500  0.0005 -0.2352
52689SOL    HW165117  11.421  10.791   4.983  0.8944 -0.6470 -0.0255
52689SOL    HW265118  11.386  10.692   4.874  0.0686  0.5518 -0.8735
52690SOL     OW65119   4.574   9.801   6.081 -0.0893 -0.1226 -0.0263
52690SOL    HW165120   4.659   9.808   6.038  0.5115  1.4264  1.3088
52690SOL    HW265121   4.511   9.803   6.009  0.9639 -3.4336 -1.2289
52691SOL     OW65122   2.497   3.529   4.588 -0.5425 -0.1965 -0.0230
52691SOL    HW165123   2.409   3.549   4.557 -0.4924 -1.3507 -1.0003
52691SOL    HW265124   2.506   3.434   4.574  0.9724 -0.0348 -0.2844
52692SOL     OW65125   2.955   7.650   3.930 -0.4393  0.4406  0.5956
52692SOL    HW165126   2.905   7.625   3.852 -1.0042 -0.7568  1.3084
52692SOL    HW265127   3.045   7.623   3.910 -0.7867 -0.9722  0.7889
52693SOL     OW65128   8.646  10.867   9.196 -0.3300 -0.4261  0.0695
52693SOL    HW165129   8.574  10.882   9.257 -0.3315  2.1898 -0.4290
52693SOL    HW265130   8.619  10.913   9.116  2.8831  3.0631  0.7018
52694SOL     OW65131   2.971   8.754   0.583 -0.3379 -0.9507  0.3076
52694SOL    HW165132   3.012   8.817   0.524 -0.4053 -0.9187  0.2953
52694SOL    HW265133   2.943   8.682   0.526 -0.1213 -1.0644  0.3414
52695SOL     OW65134   7.335  12.550   3.878 -0.0912 -0.1213 -0.0254
52695SOL    HW165135   7.407  12.555   3.816  1.4148 -1.9174  1.4516
52695SOL    HW265136   7.365  12.489   3.945 -2.3502  0.3424  1.5358
52696SOL     OW65137  11.210  11.314  10.655 -0.2345  0.2344 -0.1001
52696SOL    HW165138  11.273  11.271  10.713 -0.2131 -0.2223 -0.4510
52696SOL    HW265139  11.129  11.264  10.667 -0.3685  0.4569 -0.0824
52697SOL     OW65140  12.183  12.462   4.362  0.2404 -0.0837 -0.0594
52697SOL    HW165141  12.252  12.469   4.296  0.3577  0.8400  0.1548
52697SOL    HW265142  12.102  12.454   4.311  0.4764 -0.9332 -0.3102
52698SOL     OW65143   2.791   4.151  12.502 -0.2931 -0.0458  0.5138
52698SOL    HW165144   2.824   4.159  12.412  0.1357  3.0343  0.8396
52698SOL    HW265145   2.697   4.171  12.494 -0.2305  0.3552  0.7507
52699SOL     OW65146   7.162   0.177   8.423 -0.1770 -0.0617  0.2169
52699SOL    HW165147   7.121   0.264   8.429  0.6650  0.3455  0.1674
52699SOL    HW265148   7.234   0.180   8.486 -0.9400 -1.1881  1.1880
52700SOL     OW65149  11.199   1.253   1.465 -0.1809  0.0159 -0.0777
52700SOL    HW165150  11.154   1.206   1.395 -0.3203 -1.7677  1.1452
52700SOL    HW265151  11.208   1.342   1.432 -1.0984 -0.5339 -1.9528
52701SOL     OW65152   9.241   1.354   2.392  0.3162 -0.0805  0.3313
52701SOL    HW165153   9.225   1.447   2.380  0.9402 -0.2231 -2.0078
52701SOL    HW265154   9.157   1.312   2.375  0.0506  0.0088  1.3226
52702SOL     OW65155   6.483   2.072   1.122  0.3543  0.0060  0.0314
52702SOL    HW165156   6.521   1.987   1.098  0.4788 -0.2332  1.0401
52702SOL    HW265157   6.394   2.052   1.149  1.1607 -0.2320  2.8133
52703SOL     OW65158   7.994  10.300   9.128 -0.3036 -0.1124 -0.1905
52703SOL    HW165159   7.971  10.285   9.036 -2.7840 -1.8140  0.6035
52703SOL    HW265160   8.033  10.217   9.156  0.7136  0.4958  0.2573
52704SOL     OW65161   7.459  10.228   6.929  0.6877  0.4109  0.3343
52704SOL    HW165162   7.436  10.265   7.015 -0.4002  0.3148  0.1075
52704SOL    HW265163   7.374  10.205   6.890  1.2834 -1.8043  0.2301
52705SOL     OW65164   6.074   5.173   0.415  0.1081  0.0939 -0.7428
52705SOL    HW165165   5.989   5.218   0.408 -0.4587 -0.9054 -0.4253
52705SOL    HW265166   6.138   5.241   0.393 -0.7244  1.0481 -0.3287
52706SOL     OW65167   6.334   5.046   0.764  1.0851  0.0199 -0.4037
52706SOL    HW165168   6.414   5.005   0.794  0.7632  0.8535  1.7853
52706SOL    HW265169   6.348   5.140   0.778  0.6534  0.4250 -2.3765
52707SOL     OW65170   9.143   8.040   3.250 -0.7216  0.3804 -0.0106
52707SOL    HW165171   9.200   7.964   3.239 -0.5912  0.4225  0.3588
52707SOL    HW265172   9.151   8.064   3.343 -1.8389 -0.0154  0.2131
52708SOL     OW65173   2.548   0.699   8.035 -0.2383 -0.2789  0.3437
52708SOL    HW165174   2.471   0.657   7.996  0.9513 -2.2935  0.0473
52708SOL    HW265175   2.541   0.680   8.128 -0.1795 -0.3492  0.3346
52709SOL     OW65176  12.108   6.310   8.534  0.3419  0.0766 -0.2507
52709SOL    HW165177  12.174   6.377   8.549 -0.9437  1.0983  1.0777
52709SOL    HW265178  12.026   6.348   8.566 -0.6135 -1.7606 -0.3379
52710SOL     OW65179  11.451  12.590  11.605  0.0446 -0.2594 -0.4507
52710SOL    HW165180  11.422  12.514  11.553 -0.2541 -0.3058 -0.2198
52710SOL    HW265181  11.394  12.589  11.682 -0.0159  0.2465 -0.4879
52711SOL     OW65182  11.765   0.957  11.481  0.6007  0.1839 -0.3693
52711SOL    HW165183  11.760   0.882  11.423  1.6730 -0.7868  0.7322
52711SOL    HW265184  11.786   1.031  11.423 -0.0879 -0.4267 -1.4116
52712SOL     OW65185   9.515   9.849   5.923 -0.4120 -0.2462  0.0973
52712SOL    HW165186   9.421   9.841   5.938 -0.5335  1.6704  0.5168
52712SOL    HW265187   9.541   9.761   5.894 -2.0676 -1.1691  1.2330
52713SOL     OW65188   5.289   5.461   0.353 -0.0149  0.2701  0.7448
52713SOL    HW165189   5.237   5.449   0.432  1.3806  0.5544  1.7415
52713SOL    HW265190   5.334   5.378   0.340 -1.3782 -0.2950 -0.6517
52714SOL     OW65191   7.864   2.195  12.228 -0.2151  0.1797  0.4715
52714SOL    HW165192   7.808   2.269  12.251 -0.7354  0.0894 -0.4674
52714SOL    HW265193   7.951   2.220  12.259 -0.3027  1.3585 -0.1986
52715SOL     OW65194  10.880   1.677   5.165 -0.1728 -0.5223  0.0087
52715SOL    HW165195  10.969   1.644   5.173  0.0510 -0.1078 -0.6859
52715SOL    HW265196  10.868   1.694   5.071 -0.6201  0.3981  0.2154
52716SOL     OW65197   2.695  10.441   1.343  0.5565  0.2484  0.8794
52716SOL    HW165198   2.733  10.362   1.304 -1.2319  0.2251 -1.0266
52716SOL    HW265199   2.611  10.451   1.299 -0.0877  2.2152  2.3980
52717SOL     OW65200   8.891   3.185   8.467 -0.2100  0.3549  0.4671
52717SOL    HW165201   8.826   3.164   8.534  0.3781 -0.9916  0.6573
52717SOL    HW265202   8.856   3.146   8.387 -0.0835  0.4469  0.3677
52718SOL     OW65203   5.184  12.301  11.117  0.0958 -0.2371 -0.7884
52718SOL    HW165204   5.244  12.372  11.093 -0.2590  0.0481 -0.8287
52718SOL    HW265205   5.110  12.310  11.058  0.4319 -1.1792 -1.3845
52719SOL     OW65206   9.629   3.691   0.135 -0.5765  0.5126  0.2450
52719SOL    HW165207   9.592   3.728   0.215 -0.1230  1.2257  0.1346
52719SOL    HW265208   9.554   3.679   0.077 -0.6040  2.5301 -0.2084
52720SOL     OW65209   6.613  12.302   8.509  0.7078 -0.2334  0.1126
52720SOL    HW165210   6.709  12.307   8.514  0.7881 -0.8492 -0.5922
52720SOL    HW265211   6.594  12.309   8.415  0.0070  0.6414  0.3150
52721SOL     OW65212   2.449   0.323  11.376  0.2730 -0.2174  0.3089
52721SOL    HW165213   2.426   0.263  11.305 -0.0443 -0.3002  0.4791
52721SOL    HW265214   2.432   0.410  11.339 -0.5686 -0.2831  0.5101
52722SOL     OW65215   6.390   3.482   2.162  0.3080 -0.1388  0.3046
52722SOL    HW165216   6.410   3.507   2.071 -1.1886 -3.7310 -1.1987
52722SOL    HW265217   6.297   3.499   2.172  0.8092  1.9909  1.9140
52723SOL     OW65218   3.122   3.648   1.322 -0.1727 -0.3563  0.0249
52723SOL    HW165219   3.073   3.726   1.294  0.5864 -0.0835 -0.5566
52723SOL    HW265220   3.154   3.609   1.241  2.2486  0.5706  0.4669
52724SOL     OW65221   3.943   6.702   6.199  0.4712  0.0165 -0.3175
52724SOL    HW165222   3.877   6.730   6.136  1.3581 -0.4640 -1.4965
52724SOL    HW265223   4.017   6.761   6.184  0.7051 -0.1265  0.2537
52725SOL     OW65224   7.863   3.903   1.455 -0.1015 -0.1915  0.9323
52725SOL    HW165225   7.907   3.975   1.409 -1.6469 -0.3766 -0.9742
52725SOL    HW265226   7.811   3.945   1.522  0.0476  0.3593  0.7064
52726SOL     OW65227   7.248   3.393   8.418  0.0977  0.2606 -0.1436
52726SOL    HW165228   7.194   3.468   8.444 -3.0355 -1.3860 -1.3661
52726SOL    HW265229   7.266   3.347   8.500 -0.4145  0.8070  0.2879
52727SOL     OW65230   0.007   1.391   6.182  0.4525  0.6004 -0.5259
52727SOL    HW165231  -0.001   1.296   6.174 -1.7228  0.5914  0.9717
52727SOL    HW265232   0.057   1.405   6.263 -0.1967  0.6986 -0.1295
52728SOL     OW65233  10.669   0.347   5.530  0.1021  0.0378 -1.1726
52728SOL    HW165234  10.592   0.400   5.511 -0.0041  0.3762  0.0959
52728SOL    HW265235  10.633   0.261   5.554 -0.1378  0.9498  2.1404
52729SOL     OW65236   9.232   2.605   6.739  0.2601  0.8746  0.2016
52729SOL    HW165237   9.227   2.691   6.698 -3.0484  1.4538  1.4369
52729SOL    HW265238   9.224   2.543   6.667 -2.0994  1.7797 -0.4047
52730SOL     OW65239   8.158   1.938  11.391 -0.5928  0.0122 -0.1975
52730SOL    HW165240   8.118   1.963  11.474  1.8083 -1.3700  1.5026
52730SOL    HW265241   8.182   2.021  11.350 -0.5247  0.6936  1.1658
52731SOL     OW65242   7.282  10.569   5.489 -0.1191 -0.3769  0.2219
52731SOL    HW165243   7.209  10.624   5.462 -0.2937 -0.7156 -0.0064
52731SOL    HW265244   7.342  10.570   5.415  0.3100  0.2416  0.5734
52732SOL     OW65245  12.148   4.395  10.602  0.6842 -0.4230 -0.2186
52732SOL    HW165246  12.140   4.461  10.671  0.8307 -0.4578 -0.1659
52732SOL    HW265247  12.161   4.445  10.522  1.8105 -0.3874 -0.0427
52733SOL     OW65248   6.110   2.351  10.561 -0.7072  0.3733 -0.0200
52733SOL    HW165249   6.171   2.388  10.624 -0.3131 -0.5612  0.1568
52733SOL    HW265250   6.128   2.398  10.479  0.0880  0.2684  0.0893
52734SOL     OW65251   8.700  10.039   4.216  0.3692 -0.2106 -0.6028
52734SOL    HW165252   8.731  10.033   4.125  0.4395  0.9678 -0.6753
52734SOL    HW265253   8.754  10.108   4.254 -1.9835  1.8162 -0.6732
52735SOL     OW65254   0.779   6.430   6.574  0.0913 -0.3202  0.1476
52735SOL    HW165255   0.766   6.412   6.667  1.3011  0.0429  0.4031
52735SOL    HW265256   0.833   6.358   6.542 -1.9368 -1.5154 -0.7679
52736SOL     OW65257   3.545   4.093  12.317 -0.3305 -0.0504 -0.5243
52736SOL    HW165258   3.526   4.009  12.359  2.0613 -0.4050 -0.0218
52736SOL    HW265259   3.566   4.151  12.390 -1.3632  0.8434 -0.9155
52737SOL     OW65260   9.407  12.537   5.860  0.4140  0.5506  0.1095
52737SOL    HW165261   9.487  12.588   5.867 -0.3030  2.1041 -2.0168
52737SOL    HW265262   9.411  12.476   5.933  3.0353  1.2459  0.6356
52738SOL     OW65263   0.894   2.900   8.401 -0.0987  0.5552  0.2716
52738SOL    HW165264   0.847   2.845   8.339  0.5095 -0.4793  0.6954
52738SOL    HW265265   0.831   2.916   8.471  0.2205 -1.0495  0.9732
52739SOL     OW65266   5.806   1.737  10.892 -0.1433  0.1565  0.2462
52739SOL    HW165267   5.850   1.818  10.865 -2.0601  0.8891 -0.8622
52739SOL    HW265268   5.786   1.693  10.810  0.2730 -1.1399  0.8230
52740SOL     OW65269  11.442   9.489   4.937 -0.3223 -0.0286 -0.4462
52740SOL    HW165270  11.482   9.520   4.856 -0.1835 -1.2106 -0.8515
52740SOL    HW265271  11.393   9.411   4.912  0.8625 -1.2439  0.8055
52741SOL     OW65272   1.027   7.605   4.712  0.4061  0.1135 -0.3368
52741SOL    HW165273   0.932   7.591   4.711  0.3383  0.1501  1.9471
52741SOL    HW265274   1.042   7.666   4.639 -1.2664 -0.1250 -0.9397
52742SOL     OW65275   5.890   4.047   7.077  0.1585 -0.0040 -0.2341
52742SOL    HW165276   5.939   4.028   7.157  0.9704 -0.7028 -0.8754
52742SOL    HW265277   5.814   3.988   7.081  1.5775 -2.0206 -1.2093
52743SOL     OW65278   7.872   8.810   5.034 -0.7949  1.0193 -0.4598
52743SOL    HW165279   7.825   8.886   5.000 -2.4507 -0.1862 -0.9821
52743SOL    HW265280   7.868   8.746   4.964 -1.0973 -0.2179  0.6485
52744SOL     OW65281  12.091   1.156   9.253  0.0115 -0.0709 -0.3824
52744SOL    HW165282  12.121   1.088   9.312  0.8560 -0.1516 -0.8822
52744SOL    HW265283  12.169   1.210   9.238 -1.0859  2.2288  1.5893
52745SOL     OW65284   6.513   2.107   9.081 -0.1151 -0.0724  0.3916
52745SOL    HW165285   6.587   2.047   9.070 -0.4914 -0.4465 -0.1049
52745SOL    HW265286   6.554   2.192   9.097  0.4224 -0.2973  0.2247
52746SOL     OW65287   8.220   6.407   8.508 -0.1221  0.4616  0.0590
52746SOL    HW165288   8.308   6.441   8.522  1.4016 -2.5193 -1.3114
52746SOL    HW265289   8.174   6.477   8.462  1.5932  1.9778  0.5089
52747SOL     OW65290   1.217   6.808   3.657  0.1100  0.2745 -0.0545
52747SOL    HW165291   1.130   6.771   3.644  0.0774  0.3547 -0.0643
52747SOL    HW265292   1.235   6.856   3.576 -0.8171  2.2493  0.8398
52748SOL     OW65293   6.892   8.174   1.821  0.1679  0.5465  0.3441
52748SOL    HW165294   6.987   8.159   1.821  0.3403  1.1953  3.0887
52748SOL    HW265295   6.859   8.116   1.890 -1.7841 -1.1881 -1.8973
52749SOL     OW65296  10.018  12.017  11.343 -0.0638  0.1958  0.4442
52749SOL    HW165297  10.101  12.018  11.296 -0.5310  1.4924 -0.4282
52749SOL    HW265298  10.013  12.103  11.384 -1.2846  0.4172 -0.1197
52750SOL     OW65299  11.462   2.548   8.823 -0.2649  0.5797 -0.2189
52750SOL    HW165300  11.411   2.505   8.754 -2.6186 -0.3694  1.9638
52750SOL    HW265301  11.546   2.501   8.823 -1.0172 -0.8328 -1.0024
52751SOL     OW65302   3.491   6.351   1.025  0.4008  0.1180  0.4521
52751SOL    HW165303   3.445   6.341   0.941 -1.2204  0.7456  1.2226
52751SOL    HW265304   3.553   6.422   1.009  0.5355 -0.1720 -0.3790
52752SOL     OW65305  11.913   3.359   4.278 -0.5624 -0.4334  0.3996
52752SOL    HW165306  12.005   3.357   4.303 -0.5649 -2.5773  0.4211
52752SOL    HW265307  11.877   3.278   4.313 -1.6735 -1.2888 -2.4349
52753SOL     OW65308  10.740   9.384  10.874  0.3950  0.1630 -0.1463
52753SOL    HW165309  10.821   9.431  10.895  0.1642 -0.3420  2.0949
52753SOL    HW265310  10.673   9.452  10.873  0.3649  0.1675  1.1605
52754SOL     OW65311   6.979   1.546  11.300  0.4789  0.4370  0.4388
52754SOL    HW165312   6.928   1.567  11.223  0.5645  0.3535  0.3591
52754SOL    HW265313   7.006   1.455  11.288  3.3130  1.3447 -1.0549
52755SOL     OW65314   2.100   6.548   9.942 -0.7870 -0.0164  0.1433
52755SOL    HW165315   2.129   6.505  10.023 -0.8053 -1.4375 -0.5713
52755SOL    HW265316   2.009   6.520   9.932 -0.4301 -0.8048 -0.9716
52756SOL     OW65317  11.472   7.969  10.909  0.4344 -0.0789  0.0956
52756SOL    HW165318  11.558   8.010  10.900 -0.3864  1.5388 -0.8192
52756SOL    HW265319  11.448   7.942  10.820 -0.4585  0.4914  0.1470
52757SOL     OW65320  10.467   0.957   0.971  0.0824 -0.4007  0.2081
52757SOL    HW165321  10.518   1.029   1.008 -1.9443  1.7156 -0.8235
52757SOL    HW265322  10.532   0.890   0.949  1.9187  0.5488  2.3606
52758SOL     OW65323  10.615  11.500   1.324 -0.0273  0.3750 -0.4393
52758SOL    HW165324  10.555  11.571   1.345  0.6975  0.4654  1.5095
52758SOL    HW265325  10.699  11.527   1.361  0.3068 -1.3638  0.1757
52759SOL     OW65326   3.360  10.262  11.657 -0.3049  0.2856  0.5314
52759SOL    HW165327   3.362  10.337  11.597  2.8739  0.5410  0.7822
52759SOL    HW265328   3.272  10.225  11.646 -0.9773  2.2699 -1.7935
52760SOL     OW65329  10.774  10.898   6.421  0.0258  0.5037  0.0183
52760SOL    HW165330  10.862  10.924   6.448  0.4509 -0.0288 -0.8185
52760SOL    HW265331  10.743  10.972   6.368  0.9623 -0.3081 -1.7723
52761SOL     OW65332  11.714  10.969   5.759 -0.4948 -0.5703  0.3624
52761SOL    HW165333  11.737  11.055   5.792 -0.8288 -0.4765  0.3538
52761SOL    HW265334  11.640  10.984   5.701 -0.4200 -0.8350  0.1960
52762SOL     OW65335   2.195   4.088   8.876  0.0963  0.3268  0.7294
52762SOL    HW165336   2.126   4.154   8.880  0.3059  0.5801  0.2666
52762SOL    HW265337   2.258   4.115   8.942  1.5668  2.2049 -1.3176
52763SOL     OW65338   7.691  12.556   4.469  0.0384  0.2817 -0.0384
52763SOL    HW165339   7.688  12.616   4.544 -1.3643  1.1387 -0.7271
52763SOL    HW265340   7.697  12.614   4.392  0.0280 -0.5261 -0.6623
52764SOL     OW65341   9.340   2.068   0.212 -1.1086 -0.1992  0.0967
52764SOL    HW165342   9.271   2.094   0.151  1.1554  1.4670 -1.9959
52764SOL    HW265343   9.374   1.986   0.176 -1.2886 -0.4560  0.5043
52765SOL     OW65344   9.479   2.721   5.097  0.2474  0.4040  0.0495
52765SOL    HW165345   9.452   2.767   5.018  0.6884 -0.3450 -0.5377
52765SOL    HW265346   9.409   2.658   5.114  1.2292 -1.0215 -1.0520
52766SOL     OW65347   4.987   1.054   2.471 -0.4142 -0.2899  0.0897
52766SOL    HW165348   5.013   0.998   2.398 -1.1405 -1.5541  0.7644
52766SOL    HW265349   4.935   0.997   2.527 -1.0695  1.0436  0.8790
52767SOL     OW65350  10.160   1.299   8.512 -0.1045 -0.5244  0.1257
52767SOL    HW165351  10.226   1.360   8.477 -1.7592  0.3676 -1.6284
52767SOL    HW265352  10.145   1.237   8.441 -1.3714 -0.5132  0.3580
52768SOL     OW65353   9.916   6.628  12.415 -0.2465  0.1005 -0.4171
52768SOL    HW165354   9.999   6.668  12.440 -0.8296  1.3839 -0.4934
52768SOL    HW265355   9.849   6.690  12.442 -1.2369 -1.1216  0.0598
52769SOL     OW65356   6.322  10.433   1.742 -0.5742  0.1786  0.6673
52769SOL    HW165357   6.399  10.385   1.711 -1.4728 -1.0654  0.3041
52769SOL    HW265358   6.280  10.373   1.803 -1.8138  0.4241  0.0800
52770SOL     OW65359   1.697   6.053   7.821 -0.2499  0.4422 -0.1053
52770SOL    HW165360   1.670   5.966   7.850 -0.7486  0.7536  0.3764
52770SOL    HW265361   1.679   6.110   7.896 -0.0611  0.9869 -0.4692
52771SOL     OW65362   7.069   8.836  10.362 -0.4860 -0.0764 -0.0486
52771SOL    HW165363   7.130   8.822  10.435 -0.1764  0.6458 -0.1646
52771SOL    HW265364   7.032   8.749  10.345 -1.9800  0.0251  2.2000
52772SOL     OW65365   0.692  11.712   1.403 -0.8026  0.3045  0.3014
52772SOL    HW165366   0.770  11.724   1.458 -0.4468 -1.2716  0.1759
52772SOL    HW265367   0.677  11.799   1.366  0.0186  0.9859  1.4685
52773SOL     OW65368  10.360   2.178   7.733 -0.9891 -0.2521 -0.1581
52773SOL    HW165369  10.305   2.246   7.773  0.1873  2.3343 -2.5913
52773SOL    HW265370  10.313   2.151   7.654 -0.4666 -0.7005 -0.3278
52774SOL     OW65371  10.883   3.270   4.468  0.5691  0.0139 -0.1725
52774SOL    HW165372  10.965   3.222   4.459  0.5312 -0.3374  1.1310
52774SOL    HW265373  10.866   3.305   4.380  0.9314 -1.8171 -1.0435
52775SOL     OW65374   8.590   5.600   1.378 -0.8727  0.0262  0.0783
52775SOL    HW165375   8.610   5.565   1.291  0.6520  1.7211 -0.3273
52775SOL    HW265376   8.495   5.592   1.387 -0.7435 -3.1290 -0.3764
52776SOL     OW65377   4.348   5.528   2.738  0.4231 -0.0900  0.2248
52776SOL    HW165378   4.355   5.433   2.749  0.9521 -0.0066  0.6485
52776SOL    HW265379   4.399   5.564   2.810  1.7822  0.5088 -0.9972
52777SOL     OW65380   0.840   6.070   5.679  0.0838 -0.4667 -0.3360
52777SOL    HW165381   0.851   6.162   5.657 -1.4138  0.1579  1.3695
52777SOL    HW265382   0.746   6.055   5.672  0.0274 -1.2450  1.6856
52778SOL     OW65383   8.988   0.037   2.946  0.3466  0.0228 -0.2300
52778SOL    HW165384   8.963   0.091   2.870  0.1071  1.1883  0.6465
52778SOL    HW265385   9.018  -0.045   2.908 -0.1597  0.4295 -1.5711
52779SOL     OW65386   3.265   0.511   4.937  0.6838 -0.0266  0.1886
52779SOL    HW165387   3.208   0.440   4.966  0.9972 -1.0901 -1.6315
52779SOL    HW265388   3.224   0.590   4.971 -0.3346 -0.9847  1.2611
52780SOL     OW65389   0.467   9.473   9.492 -0.3273 -0.3652 -0.1454
52780SOL    HW165390   0.391   9.450   9.546 -0.4536  2.4000  1.0055
52780SOL    HW265391   0.430   9.508   9.411 -0.4717  2.6583  1.1108
52781SOL     OW65392   6.259   7.807   7.435  0.1811  0.1597  0.1575
52781SOL    HW165393   6.331   7.849   7.482  0.2529 -0.8713  0.9913
52781SOL    HW265394   6.246   7.862   7.357  1.2873  0.8406  0.4341
52782SOL     OW65395  12.156   1.885   0.411 -0.4883  0.1125  0.0950
52782SOL    HW165396  12.194   1.965   0.373 -0.0749  0.4804  1.2414
52782SOL    HW265397  12.133   1.910   0.501 -1.9168 -0.5914 -0.0485
52783SOL     OW65398  12.064   2.259   0.619  0.0051 -0.6690 -0.4512
52783SOL    HW165399  12.088   2.307   0.539  1.3856 -0.9926 -0.2725
52783SOL    HW265400  12.061   2.326   0.687 -3.3449 -0.0109 -1.0725
52784SOL     OW65401  10.017   1.313   7.652 -0.2130  0.2479 -0.2092
52784SOL    HW165402  10.065   1.232   7.634 -1.3885 -0.0224 -2.5279
52784SOL    HW265403   9.933   1.284   7.689 -0.7801  0.3462 -1.3781
52785SOL     OW65404  11.142   9.884   3.703 -0.1607  0.1887 -0.3100
52785SOL    HW165405  11.136   9.948   3.632  0.4809  0.9614  0.3017
52785SOL    HW265406  11.066   9.903   3.759 -2.5016 -2.4546 -2.3256
52786SOL     OW65407   6.237   6.293   5.309 -0.3124 -0.1075  0.0791
52786SOL    HW165408   6.236   6.242   5.228 -1.3973  1.3235 -0.8554
52786SOL    HW265409   6.259   6.382   5.281  1.8518 -0.0710  1.7121
52787SOL     OW65410   7.936   8.640   5.934  0.9030 -0.6286 -0.0717
52787SOL    HW165411   7.968   8.664   6.021  1.0237 -2.1942  0.3374
52787SOL    HW265412   7.998   8.682   5.873  1.4227 -0.3910  0.6106
52788SOL     OW65413   3.265  10.296  10.644  0.3152 -0.6274 -0.1564
52788SOL    HW165414   3.223  10.281  10.729 -0.1835  0.1215 -0.2617
52788SOL    HW265415   3.316  10.376  10.657  0.7673 -0.8749 -0.3794
52789SOL     OW65416   5.999   7.139  10.292  0.3559  0.6949  0.1593
52789SOL    HW165417   6.009   7.074  10.361 -1.5444  0.6137  0.4380
52789SOL    HW265418   6.073   7.125  10.234  0.3195 -1.3150  0.5357
52790SOL     OW65419   1.516   2.273   2.769  0.5224 -0.1247  0.6430
52790SOL    HW165420   1.427   2.269   2.734  1.2122 -0.0234 -1.2020
52790SOL    HW265421   1.571   2.288   2.693  2.3260 -2.1255  1.4614
52791SOL     OW65422   9.235   3.324   9.781  0.1539 -0.0920 -0.5401
52791SOL    HW165423   9.160   3.372   9.818  0.7803  1.4677 -1.1885
52791SOL    HW265424   9.247   3.363   9.694  1.1675 -0.9362 -0.7899
52792SOL     OW65425  10.164   5.286   3.569  0.4298 -0.8687 -0.0178
52792SOL    HW165426  10.248   5.329   3.554  1.0799 -1.4558  1.7838
52792SOL    HW265427  10.137   5.256   3.482  1.2149  0.8333 -0.9085
52793SOL     OW65428   0.860   1.258  10.327 -0.2710 -0.2202  0.5184
52793SOL    HW165429   0.923   1.326  10.303 -0.5124  0.1421  0.9001
52793SOL    HW265430   0.881   1.237  10.418 -0.8898  0.1126  0.7401
52794SOL     OW65431   0.921   6.310   5.574  0.3482 -0.1893  0.3631
52794SOL    HW165432   0.997   6.269   5.534  0.3342  0.6654 -0.5984
52794SOL    HW265433   0.942   6.404   5.575 -1.8534  0.5094 -2.8475
52795SOL     OW65434   5.212   5.253   1.441  0.1304 -0.0298  0.0754
52795SOL    HW165435   5.214   5.347   1.456 -0.6310 -0.0112  0.1124
52795SOL    HW265436   5.119   5.233   1.430  0.1879 -0.9429  1.1378
52796SOL     OW65437  10.554   2.336   2.811 -0.1570 -0.1420 -0.0195
52796SOL    HW165438  10.559   2.388   2.731 -0.6152  0.6104  0.4294
52796SOL    HW265439  10.641   2.297   2.820  0.1070  0.3203 -0.5199
52797SOL     OW65440   6.023   5.911  10.100 -0.0831 -1.3086  0.8623
52797SOL    HW165441   5.938   5.876  10.127 -1.8154  0.8141 -1.3913
52797SOL    HW265442   6.004   6.000  10.069  2.4976 -1.6257 -2.1327
52798SOL     OW65443  11.237   0.064   3.457  0.2463 -0.3894 -0.3992
52798SOL    HW165444  11.184  -0.014   3.471  0.3661 -0.4261 -0.1369
52798SOL    HW265445  11.174   0.135   3.449  0.1333 -0.5248 -0.7283
52799SOL     OW65446   1.340   2.677  10.252 -0.1577 -0.3317  0.0394
52799SOL    HW165447   1.334   2.744  10.320  0.0951 -0.1542 -0.1095
52799SOL    HW265448   1.422   2.697  10.206 -1.2456  0.7028 -1.5356
52800SOL     OW65449  12.278   0.033  10.976 -0.1348  0.3036 -0.3334
52800SOL    HW165450  12.213   0.076  11.032 -0.6280 -0.4176 -0.3391
52800SOL    HW265451  12.359   0.034  11.027 -0.5172 -0.1126  0.2831
52801SOL     OW65452   8.528   1.416  11.300 -0.1953  0.1915  0.5217
52801SOL    HW165453   8.538   1.320  11.297 -1.2436  0.0964 -0.8825
52801SOL    HW265454   8.483   1.433  11.383 -1.9957 -0.7800 -0.1914
52802SOL     OW65455  11.572   6.134   7.431  0.3929  0.0725 -0.0410
52802SOL    HW165456  11.487   6.178   7.420  0.0923  0.2292  2.3070
52802SOL    HW265457  11.566   6.056   7.376 -1.4527 -0.1141  0.3593
52803SOL     OW65458  12.262   0.942   4.404 -0.0520  0.1994  0.0129
52803SOL    HW165459  12.230   0.907   4.487 -2.3982 -0.3999 -1.0622
52803SOL    HW265460  12.356   0.955   4.418  0.2320 -2.7369  1.8041
52804SOL     OW65461   5.912   9.444   6.412 -0.2716 -0.4558 -0.7209
52804SOL    HW165462   5.962   9.490   6.480 -1.2990 -1.1377  0.5312
52804SOL    HW265463   5.979   9.413   6.350  0.6370  0.6471 -0.3407
52805SOL     OW65464   6.596   2.742   9.586 -0.0129  0.3337  0.1419
52805SOL    HW165465   6.616   2.659   9.544  2.7241  1.1033 -0.2824
52805SOL    HW265466   6.625   2.731   9.676  1.2219  1.0505 -0.1374
52806SOL     OW65467   6.722   1.940   9.122  0.6075 -0.0743 -0.0355
52806SOL    HW165468   6.803   1.936   9.071  1.2082 -0.9269  0.9235
52806SOL    HW265469   6.700   1.848   9.137 -1.1256  0.1277 -1.1348
52807SOL     OW65470   7.029   4.093   4.275  0.5035 -0.2041 -0.1733
52807SOL    HW165471   6.988   4.010   4.251 -2.5812  1.0250  0.4059
52807SOL    HW265472   7.045   4.138   4.192  0.5125 -0.6324 -0.4041
52808SOL     OW65473   1.722  11.434   6.745  0.2631 -0.0428 -0.8838
52808SOL    HW165474   1.651  11.482   6.702  0.6000  1.1590 -0.1577
52808SOL    HW265475   1.678  11.380   6.810 -0.1895 -1.3532 -2.2033
52809SOL     OW65476  12.556   9.514   3.461  0.0871  0.1600  0.1911
52809SOL    HW165477  12.635   9.561   3.488 -0.4880  1.0442  0.3924
52809SOL    HW265478  12.552   9.437   3.519  1.7537 -0.9013 -1.0302
52810SOL     OW65479   3.674   1.957   3.582 -0.0945 -0.1721  0.2881
52810SOL    HW165480   3.723   1.960   3.500  1.3664 -2.1346  1.0183
52810SOL    HW265481   3.606   1.892   3.567 -1.4611  1.3008 -0.1505
52811SOL     OW65482   8.161   4.925   1.655 -0.3682 -0.0380  0.5797
52811SOL    HW165483   8.186   4.870   1.730 -0.1388 -0.5169  0.1601
52811SOL    HW265484   8.114   4.999   1.694  0.7764  0.3400  1.3142
52812SOL     OW65485   1.577   6.556   3.237  0.3127 -0.0752 -0.0837
52812SOL    HW165486   1.514   6.523   3.301 -0.1190 -2.1478 -1.4756
52812SOL    HW265487   1.532   6.628   3.193 -0.1753 -0.0175  0.4997
52813SOL     OW65488   5.786   1.369  10.111 -0.0364 -0.5541  0.9493
52813SOL    HW165489   5.768   1.461  10.092 -0.3751 -0.4975  1.5327
52813SOL    HW265490   5.865   1.349  10.060 -0.3004 -0.1107  0.3471
52814SOL     OW65491  11.437  12.370  12.151  0.1815 -0.1048  0.1378
52814SOL    HW165492  11.425  12.305  12.221  0.8580 -0.6322 -0.2222
52814SOL    HW265493  11.509  12.424  12.181  1.5568 -1.3181 -0.8326
52815SOL     OW65494   4.883   9.569   6.171 -0.3639 -0.4400  0.0248
52815SOL    HW165495   4.804   9.516   6.170 -0.0808 -0.8674 -0.0123
52815SOL    HW265496   4.954   9.507   6.155  0.3445 -0.7045  3.3873
52816SOL     OW65497   2.171   8.021   1.663 -0.0369  0.0097 -0.6184
52816SOL    HW165498   2.112   7.968   1.610  1.9236  0.3115 -3.3651
52816SOL    HW265499   2.256   7.978   1.654  0.6605  0.8857  1.2072
52817SOL     OW65500   0.979   2.326   5.327 -0.2950  0.7019  0.9157
52817SOL    HW165501   0.898   2.334   5.276  0.3472 -1.0524 -0.4791
52817SOL    HW265502   0.956   2.271   5.401 -0.3661  0.0706  0.4328
52818SOL     OW65503   8.228   7.843   5.060  0.4652 -0.0205 -0.2003
52818SOL    HW165504   8.216   7.755   5.025 -0.8393 -0.4761  1.2641
52818SOL    HW265505   8.273   7.831   5.143  0.2112  0.6746  0.0519
52819SOL     OW65506   7.173  11.183   1.284  0.2493 -0.2292 -0.4468
52819SOL    HW165507   7.190  11.095   1.316  3.6432  0.2257 -0.6946
52819SOL    HW265508   7.156  11.235   1.363  1.2428 -0.5478 -0.0137
52820SOL     OW65509   4.156   6.609   2.813 -0.2670  0.1058  0.6597
52820SOL    HW165510   4.114   6.621   2.728 -0.0140 -0.2102  0.4910
52820SOL    HW265511   4.232   6.554   2.796 -1.7487 -2.3795  1.4986
52821SOL     OW65512   1.783   5.747   3.992  0.4986 -0.4212  0.3659
52821SOL    HW165513   1.710   5.791   4.036  0.6350 -0.3544  0.5252
52821SOL    HW265514   1.808   5.807   3.921  1.0797  0.0474  0.9552
52822SOL     OW65515   8.235   7.285   2.651 -0.4295 -0.2410  0.7758
52822SOL    HW165516   8.147   7.312   2.627 -0.8420  0.7267  3.1449
52822SOL    HW265517   8.284   7.366   2.660 -0.4135 -0.4511  3.3349
52823SOL     OW65518  12.579   7.696   8.897  0.9888  0.6506  0.1396
52823SOL    HW165519  12.536   7.764   8.949 -0.2180  0.4607 -0.5859
52823SOL    HW265520  12.538   7.614   8.926  2.1715  0.2412  0.7426
52824SOL     OW65521  10.656   0.064   2.620  0.4160 -0.1326  0.6488
52824SOL    HW165522  10.585   0.061   2.684 -0.5233  0.9858 -0.2897
52824SOL    HW265523  10.734   0.038   2.669 -0.1214  1.4219  2.4359
52825SOL     OW65524   0.420   1.452   3.320 -0.2849  0.4068 -0.3202
52825SOL    HW165525   0.334   1.429   3.284 -0.7028  1.2262  0.1235
52825SOL    HW265526   0.451   1.523   3.264 -0.7081  1.3384  0.6026
52826SOL     OW65527   6.364  12.437   9.225  0.3865 -0.0617 -0.0006
52826SOL    HW165528   6.408  12.468   9.305  1.2124  0.4541 -0.6315
52826SOL    HW265529   6.274  12.467   9.234 -0.0709 -1.7637  1.6616
52827SOL     OW65530   1.177   0.126  12.510  0.1673  0.0696  0.1704
52827SOL    HW165531   1.181   0.053  12.448  0.3457 -0.0894  0.3686
52827SOL    HW265532   1.214   0.091  12.591  0.2131  0.3671  0.2801
52828SOL     OW65533   1.219   0.835   9.867 -0.1641  0.1054 -0.8120
52828SOL    HW165534   1.151   0.819   9.932  1.0533 -1.0743  0.2333
52828SOL    HW265535   1.258   0.918   9.893  1.0341 -0.8680  0.6934
52829SOL     OW65536  11.809   1.131   0.999 -0.2140  0.3208  0.5614
52829SOL    HW165537  11.876   1.185   0.956 -0.0590  0.5894  1.1157
52829SOL    HW265538  11.837   1.128   1.091 -0.2558 -0.6688  0.5432
52830SOL     OW65539  10.518   7.470   9.304 -0.0081 -0.0264  0.4757
52830SOL    HW165540  10.505   7.402   9.239  1.4659 -0.9072  1.0380
52830SOL    HW265541  10.583   7.433   9.365  1.3019  2.0787  0.4807
52831SOL     OW65542   8.211  12.124   0.700  0.3815  0.0590  0.2933
52831SOL    HW165543   8.223  12.125   0.605 -0.4031 -2.5903  0.1104
52831SOL    HW265544   8.297  12.150   0.734  0.5408  1.5554 -1.0834
52832SOL     OW65545   8.662   2.017   6.414  0.7053 -0.4248  0.1452
52832SOL    HW165546   8.739   2.049   6.367  1.1089 -1.4237  0.1154
52832SOL    HW265547   8.606   1.980   6.346 -0.5743  1.6973 -0.0654
52833SOL     OW65548  12.349   2.272   5.562  0.0396 -0.2532 -0.2483
52833SOL    HW165549  12.253   2.271   5.572 -0.0382 -0.7199 -0.9938
52833SOL    HW265550  12.371   2.183   5.536  0.6964 -0.1647 -0.0125
52834SOL     OW65551  12.303   6.281   2.130  0.4894 -0.0025  0.1026
52834SOL    HW165552  12.335   6.238   2.210  1.1479 -0.8270 -0.5867
52834SOL    HW265553  12.383   6.308   2.084  0.2407 -1.7984 -1.4919
52835SOL     OW65554   2.371   1.378   1.327  0.2219 -0.1791 -0.5699
52835SOL    HW165555   2.372   1.455   1.270  0.9529  0.0292 -0.2875
52835SOL    HW265556   2.308   1.319   1.286  0.7097 -0.0186 -1.5771
52836SOL     OW65557   6.044   2.142   5.258 -0.1943  0.7105 -0.1478
52836SOL    HW165558   6.075   2.228   5.230 -0.0436 -0.0808 -2.5636
52836SOL    HW265559   6.033   2.092   5.178 -0.9418 -1.3427  1.1434
52837SOL     OW65560   1.231   7.084   5.299 -0.2434 -0.5322  0.0083
52837SOL    HW165561   1.259   7.023   5.367  2.2265 -0.4510 -0.8559
52837SOL    HW265562   1.194   7.028   5.230  2.5495 -1.2663 -1.0508
52838SOL     OW65563   2.821   2.641   4.779  0.0227 -0.4276 -0.0112
52838SOL    HW165564   2.792   2.569   4.723  1.4292 -0.7316 -0.3904
52838SOL    HW265565   2.747   2.658   4.836 -0.3517 -2.1815  0.0816
52839SOL     OW65566   8.771   1.619   0.379 -0.0265 -0.2443 -0.2039
52839SOL    HW165567   8.820   1.579   0.452  1.6341  0.1932 -1.0270
52839SOL    HW265568   8.743   1.544   0.326  0.5128 -0.4723 -0.1765
52840SOL     OW65569  11.059   2.744   7.644  0.1275  0.1999 -1.0004
52840SOL    HW165570  11.016   2.794   7.713  0.4510  1.1970 -1.5043
52840SOL    HW265571  10.993   2.680   7.617  0.3348 -0.8718  0.8797
52841SOL     OW65572   1.717   1.530  11.605  0.5965  0.4056 -0.0906
52841SOL    HW165573   1.759   1.589  11.542  0.7557 -1.1532 -1.5009
52841SOL    HW265574   1.755   1.444  11.588  1.2216  0.0398  2.7161
52842SOL     OW65575   2.364  11.863  10.140 -0.0543  0.4824  0.0319
52842SOL    HW165576   2.368  11.889  10.232  2.2725 -3.0854  1.1322
52842SOL    HW265577   2.290  11.803  10.136  1.6466 -1.7519  0.4179
52843SOL     OW65578   5.848   6.024   3.320  0.1713 -0.2138 -0.2100
52843SOL    HW165579   5.854   6.011   3.226 -1.9463  1.3929 -0.6400
52843SOL    HW265580   5.775   5.969   3.348  0.0689  0.1661  0.2869
52844SOL     OW65581   9.319   9.288   5.059 -0.2049  0.3597  0.6034
52844SOL    HW165582   9.227   9.301   5.081 -0.4990 -0.8632  0.1604
52844SOL    HW265583   9.335   9.195   5.074  0.7456  0.3960 -0.0729
52845SOL     OW65584   5.716   5.586  12.016 -0.5255 -0.0575  0.2334
52845SOL    HW165585   5.731   5.560  12.107  0.5768  0.3871  0.1933
52845SOL    HW265586   5.769   5.526  11.964  0.0249  0.6216 -0.0109
52846SOL     OW65587   5.155   2.766  11.625  0.2732  0.2024 -0.1212
52846SOL    HW165588   5.177   2.786  11.716 -0.9094  1.9329 -0.1659
52846SOL    HW265589   5.237   2.779  11.577  0.2069  2.6234  0.2649
52847SOL     OW65590   4.695   7.073   3.886 -0.8059 -0.2893 -0.3179
52847SOL    HW165591   4.685   7.144   3.822 -0.8558  0.7534  0.7936
52847SOL    HW265592   4.787   7.079   3.913 -0.1041 -2.2853 -1.9957
52848SOL     OW65593   3.643   5.379   9.937  0.3396 -0.0562 -0.5028
52848SOL    HW165594   3.718   5.338   9.893  0.7412 -0.8964  0.9063
52848SOL    HW265595   3.591   5.306   9.968  0.9833  0.4322  1.9398
52849SOL     OW65596  10.174  11.977   6.706  0.1341 -0.0960  0.1929
52849SOL    HW165597  10.085  11.964   6.673  0.0953 -1.6003  0.8164
52849SOL    HW265598  10.163  11.998   6.799  0.4229 -0.1316  0.2364
52850SOL     OW65599   1.693  12.525   4.985  0.1072  0.3940  0.5048
52850SOL    HW165600   1.693  12.619   4.969  0.8955  0.3647  0.2793
52850SOL    HW265601   1.733  12.515   5.072 -0.9888  0.3333  1.0085
52851SOL     OW65602  10.802  10.043   8.153 -0.0712 -0.3635  0.0888
52851SOL    HW165603  10.814  10.124   8.105 -1.9528  0.6812  1.2416
52851SOL    HW265604  10.725  10.003   8.113  0.9337 -1.7009 -0.5745
52852SOL     OW65605   6.146   8.746   5.331 -0.0604 -0.0931 -0.2432
52852SOL    HW165606   6.101   8.661   5.330 -0.8262  0.2783  0.8425
52852SOL    HW265607   6.077   8.809   5.352  0.5038  0.8119 -1.0124
52853SOL     OW65608   9.708   3.226   5.286  0.3675 -0.0791 -0.1125
52853SOL    HW165609   9.743   3.197   5.202 -0.6692 -1.2144 -0.1712
52853SOL    HW265610   9.621   3.260   5.266  0.7282  1.1545  0.2811
52854SOL     OW65611   4.198   1.167   1.876  0.7168 -0.5786 -0.3607
52854SOL    HW165612   4.140   1.130   1.810  1.1422 -0.9770 -0.5128
52854SOL    HW265613   4.145   1.171   1.955  0.6174 -1.3584 -0.3829
52855SOL     OW65614   2.618  10.158   7.986 -0.0618 -0.7485 -0.2455
52855SOL    HW165615   2.555  10.211   7.936 -0.7096 -1.1705  0.1002
52855SOL    HW265616   2.564  10.092   8.030  0.4356 -0.1994  1.2730
52856SOL     OW65617   1.543   7.517   8.003 -0.3640 -0.7214  0.2366
52856SOL    HW165618   1.458   7.561   8.013 -0.9904 -1.0974 -2.6222
52856SOL    HW265619   1.542   7.482   7.914  2.1712 -2.1561  0.6746
52857SOL     OW65620   2.000   8.343   2.323  0.3033  0.5081  0.2005
52857SOL    HW165621   2.069   8.408   2.337  0.1610  0.3743  1.7175
52857SOL    HW265622   2.043   8.272   2.275  1.2157  0.4744  1.0189
52858SOL     OW65623   8.940   9.862   0.025  0.4653 -0.1383  0.0035
52858SOL    HW165624   8.961   9.852   0.118 -1.0609  1.8448  0.6156
52858SOL    HW265625   8.846   9.879   0.022 -0.1287 -2.8421 -2.1876
52859SOL     OW65626   0.992  10.895   1.830  0.4956  0.3374 -0.8459
52859SOL    HW165627   1.049  10.969   1.808 -0.0491  0.7588 -0.8747
52859SOL    HW265628   0.904  10.932   1.830  0.4448  0.5576  2.6812
52860SOL     OW65629  11.726  11.870   5.407  0.0529 -0.0114  0.3427
52860SOL    HW165630  11.758  11.955   5.378  1.1109 -1.0243 -1.6671
52860SOL    HW265631  11.633  11.885   5.427 -0.5567  1.0867 -2.7112
52861SOL     OW65632   3.706  12.579   6.131  0.4099  0.4425 -0.4659
52861SOL    HW165633   3.777  12.639   6.153  0.9604  0.4023 -2.0146
52861SOL    HW265634   3.742  12.525   6.061 -0.0711 -1.6957  0.8427
52862SOL     OW65635   1.054   0.955   1.813  0.1508  0.1318 -0.1232
52862SOL    HW165636   1.024   0.871   1.848  0.4995 -0.0076 -0.1561
52862SOL    HW265637   1.085   0.935   1.725  0.3174  0.2805 -0.0991
52863SOL     OW65638   9.149   6.241  12.511  0.0698  0.1753 -0.1848
52863SOL    HW165639   9.222   6.193  12.472  0.3773  0.4914 -0.0057
52863SOL    HW265640   9.108   6.286  12.437  0.9888  1.2151 -0.0846
52864SOL     OW65641   4.258  10.600   1.627  0.0465 -0.1900 -0.4218
52864SOL    HW165642   4.350  10.626   1.616  0.6014 -0.3776  2.8277
52864SOL    HW265643   4.258  10.506   1.607  0.1926  0.0923 -1.8873
52865SOL     OW65644  10.471   8.619   9.107  0.1410 -0.2893  0.0745
52865SOL    HW165645  10.454   8.623   9.013  0.5439  0.4395  0.0280
52865SOL    HW265646  10.384   8.623   9.148 -0.0030 -0.1345 -0.2484
52866SOL     OW65647   9.619   9.105   4.494  0.3584 -0.1948 -0.1172
52866SOL    HW165648   9.603   9.018   4.458 -1.1316  0.0433 -0.0999
52866SOL    HW265649   9.533   9.134   4.525  0.6524  1.6162 -0.8783
52867SOL     OW65650   2.051   1.865   6.965  0.0768 -0.4104  0.4876
52867SOL    HW165651   2.083   1.955   6.958  1.5129 -0.8821  0.5932
52867SOL    HW265652   2.118   1.812   6.921  0.1254 -1.5911  1.8969
52868SOL     OW65653  11.014   4.147   5.201  0.5751 -0.4839  0.1327
52868SOL    HW165654  10.998   4.076   5.140 -1.0880 -0.2501  0.2636
52868SOL    HW265655  11.020   4.225   5.146 -0.7996 -0.2913  0.2177
52869SOL     OW65656   0.404   2.092   0.506  0.5575 -0.0354 -0.3915
52869SOL    HW165657   0.494   2.114   0.483  0.9702 -1.7942 -0.5994
52869SOL    HW265658   0.350   2.153   0.456  1.6031  0.3034 -1.1279
52870SOL     OW65659   0.879  11.547  10.762  0.3351 -0.0619 -0.1139
52870SOL    HW165660   0.888  11.515  10.852  0.2620  3.1045  1.1636
52870SOL    HW265661   0.935  11.625  10.760 -0.2292  0.3410 -2.6345
52871SOL     OW65662   8.007   6.099   4.318  0.0099  0.4387  0.3917
52871SOL    HW165663   8.032   6.039   4.388 -0.0371 -1.4027 -1.1134
52871SOL    HW265664   7.921   6.069   4.289 -0.7590  2.2396  0.6477
52872SOL     OW65665   0.251   4.319   0.102 -0.1786  0.1257 -0.2853
52872SOL    HW165666   0.165   4.288   0.074  0.2317 -0.6590 -0.7401
52872SOL    HW265667   0.239   4.412   0.120 -0.8025  0.3424 -1.7005
52873SOL     OW65668  10.614   9.639   6.030 -0.0465 -0.3282 -0.2627
52873SOL    HW165669  10.649   9.589   5.957  0.0771 -0.2202 -0.2790
52873SOL    HW265670  10.617   9.579   6.105  0.6241 -0.1696 -0.1559
52874SOL     OW65671   7.275  11.767  11.553  0.2280 -0.1421 -0.1758
52874SOL    HW165672   7.262  11.743  11.462 -0.6281 -1.0261  0.1633
52874SOL    HW265673   7.347  11.830  11.552  0.6093 -0.5896 -1.3901
52875SOL     OW65674   8.800   1.871   7.908  0.1688 -0.1189 -0.3230
52875SOL    HW165675   8.785   1.877   8.002 -1.5209 -0.4263 -0.5433
52875SOL    HW265676   8.714   1.852   7.871  0.5476  1.2688 -2.0541
52876SOL     OW65677   9.203   0.627   5.033  0.5589 -0.6576 -0.0007
52876SOL    HW165678   9.146   0.688   5.080  1.6274  0.5258 -0.1876
52876SOL    HW265679   9.179   0.638   4.941  1.2891  0.0889 -0.1130
52877SOL     OW65680  11.221   4.882  12.470  0.2946  0.2002 -0.5946
52877SOL    HW165681  11.128   4.873  12.493  0.4790 -1.7576 -0.4700
52877SOL    HW265682  11.255   4.793  12.474  1.7491  0.6149 -2.5746
52878SOL     OW65683   6.965  10.106   5.744  0.1852 -0.1030  0.1428
52878SOL    HW165684   7.016  10.149   5.813  1.9570 -1.7153 -0.0841
52878SOL    HW265685   7.026  10.044   5.704 -1.0857  0.0285 -2.2094
52879SOL     OW65686   7.092  10.229   3.716  0.5044  0.4778 -0.2755
52879SOL    HW165687   7.076  10.236   3.810  3.7512 -0.2897  0.4334
52879SOL    HW265688   7.130  10.142   3.705  0.8763  0.8433 -2.2078
52880SOL     OW65689  10.431   4.285   4.210  0.3354 -0.0730 -0.0201
52880SOL    HW165690  10.520   4.312   4.235  0.1508 -0.0729  0.6354
52880SOL    HW265691  10.418   4.201   4.252  0.1467 -0.2381 -0.4020
52881SOL     OW65692   3.200   0.764  11.332  0.3062 -0.2317  0.4536
52881SOL    HW165693   3.269   0.699  11.333 -1.2730 -2.0531 -1.0036
52881SOL    HW265694   3.124   0.720  11.371 -1.0383  0.3877 -1.3065
52882SOL     OW65695   8.154   9.844   1.402 -0.2815 -0.3040  0.1257
52882SOL    HW165696   8.105   9.848   1.319 -1.0143 -0.1141  0.5569
52882SOL    HW265697   8.113   9.772   1.450  1.7875 -2.1150 -0.6817
52883SOL     OW65698   3.636   9.932   6.724  0.1900 -0.3712 -0.2709
52883SOL    HW165699   3.667   9.844   6.703 -0.8039 -1.6593  3.1256
52883SOL    HW265700   3.553   9.918   6.770 -0.0088  2.3448  0.3322
52884SOL     OW65701   7.136   6.006   6.453 -0.6764  0.9382  0.2309
52884SOL    HW165702   7.202   5.991   6.385  1.1306  0.4686  1.9995
52884SOL    HW265703   7.053   5.985   6.410  0.2725  1.6092 -2.1058
52885SOL     OW65704   2.944   8.659   7.425 -0.3033 -0.0255  0.7909
52885SOL    HW165705   2.905   8.600   7.489  0.7129  0.7068  2.1370
52885SOL    HW265706   2.882   8.660   7.352 -0.9424 -1.7555  1.2747
52886SOL     OW65707  10.231   7.203   9.628  0.1753  0.3193 -0.0785
52886SOL    HW165708  10.283   7.123   9.617  0.1130  0.1642  0.6909
52886SOL    HW265709  10.200   7.224   9.541 -2.3909 -2.2340  0.0827
52887SOL     OW65710   4.727   1.908  10.267  0.2246  0.4060 -0.3056
52887SOL    HW165711   4.695   1.966  10.197  2.0201 -0.0762 -1.5991
52887SOL    HW265712   4.650   1.856  10.291 -0.7149  1.3598 -1.1283
52888SOL     OW65713   2.523  10.228   7.466  0.1451  0.1359 -0.3343
52888SOL    HW165714   2.464  10.182   7.525 -1.5067  1.9971 -0.4387
52888SOL    HW265715   2.602  10.242   7.518 -0.4446 -0.2097  0.6852
52889SOL     OW65716  11.417   7.651   0.488  0.6989  0.2119  0.6477
52889SOL    HW165717  11.502   7.634   0.447  0.0145 -3.2378  0.3718
52889SOL    HW265718  11.423   7.609   0.573 -1.1486 -1.4353  0.0285
52890SOL     OW65719   6.435   1.706   1.127 -0.0917  0.7154  0.2614
52890SOL    HW165720   6.354   1.740   1.164  0.5367  1.7210  0.7404
52890SOL    HW265721   6.503   1.765   1.159  0.9727 -0.6948  0.7242
52891SOL     OW65722  10.487   3.516   7.183  0.9669  0.2853  0.3996
52891SOL    HW165723  10.532   3.432   7.174 -0.3891 -0.4387  0.0986
52891SOL    HW265724  10.498   3.539   7.276  0.7860 -0.5692  0.6445
52892SOL     OW65725   0.594   5.301   9.397 -0.4682 -0.1645  0.1098
52892SOL    HW165726   0.671   5.254   9.429  0.4547 -0.0965 -1.8391
52892SOL    HW265727   0.540   5.233   9.354 -0.8009  0.0129  0.2425
52893SOL     OW65728   3.180   1.791   9.680  0.3195  0.2155 -0.0875
52893SOL    HW165729   3.273   1.815   9.688  0.7236 -1.5179  1.1506
52893SOL    HW265730   3.133   1.862   9.723  1.2609  0.1130  1.1846
52894SOL     OW65731  11.539   1.730  10.086 -0.3945  0.3523 -0.7303
52894SOL    HW165732  11.529   1.648  10.037 -1.6149  0.3519 -0.4995
52894SOL    HW265733  11.450   1.758  10.105  0.0282  1.2888 -0.0473
52895SOL     OW65734   5.558   2.475  10.983 -0.3840 -0.0086 -0.3979
52895SOL    HW165735   5.492   2.445  11.046  0.7905 -1.5018  0.1754
52895SOL    HW265736   5.600   2.549  11.025 -0.5064 -0.1680  0.0071
52896SOL     OW65737   3.612   5.613   7.665 -0.4956  0.2820  0.0104
52896SOL    HW165738   3.656   5.671   7.602  0.5528  1.6892  1.9083
52896SOL    HW265739   3.676   5.544   7.683  0.0953  1.0710  1.0726
52897SOL     OW65740   6.023   2.771   6.234  0.6233 -0.5506  0.8269
52897SOL    HW165741   5.934   2.737   6.239  0.9607 -1.5262  0.3980
52897SOL    HW265742   6.069   2.712   6.174  0.8046  1.6600 -1.3505
52898SOL     OW65743   9.061   1.465   0.418  0.4406  0.3804  0.1797
52898SOL    HW165744   9.097   1.385   0.381 -0.6595  0.2343 -0.6174
52898SOL    HW265745   8.995   1.436   0.481  1.0241  0.6573  0.9432
52899SOL     OW65746  11.472   6.382   6.402 -0.5209  0.1481 -0.0935
52899SOL    HW165747  11.518   6.332   6.470 -1.3139  0.4189  0.6619
52899SOL    HW265748  11.381   6.353   6.409 -0.4313 -0.6926 -1.8490
52900SOL     OW65749   5.837   4.199   8.499  0.2473  0.3506 -0.1446
52900SOL    HW165750   5.769   4.136   8.523  0.6622 -0.6870 -1.5660
52900SOL    HW265751   5.900   4.148   8.449  0.8926  1.7938 -0.8515
52901SOL     OW65752   7.350   0.296   7.108 -0.4126 -0.1728 -0.3361
52901SOL    HW165753   7.311   0.358   7.169 -0.4995 -0.2433 -0.3203
52901SOL    HW265754   7.285   0.226   7.099  0.2573 -0.9676  0.7469
52902SOL     OW65755   2.787   5.056   7.939  0.3882  0.8029  0.2668
52902SOL    HW165756   2.837   5.118   7.886 -0.6740  1.7576  0.3619
52902SOL    HW265757   2.842   5.041   8.016 -0.0102  2.8492  0.9899
52903SOL     OW65758   7.494   6.525   1.209 -0.0328 -0.3120 -0.3199
52903SOL    HW165759   7.401   6.523   1.229  0.1745  0.5145  0.7992
52903SOL    HW265760   7.498   6.533   1.113 -1.0552 -3.7731 -0.7802
52904SOL     OW65761   1.827   8.080   0.485  0.2270 -0.1899 -0.0128
52904SOL    HW165762   1.918   8.106   0.500  0.3719 -1.3521  1.3373
52904SOL    HW265763   1.809   8.018   0.555 -1.5045 -0.2501 -0.4874
52905SOL     OW65764   7.592   7.944  10.839  0.0461 -0.2442 -0.7239
52905SOL    HW165765   7.662   7.908  10.783 -0.1802  0.7723 -1.6955
52905SOL    HW265766   7.631   8.022  10.877  0.4659 -1.3392  1.2191
52906SOL     OW65767   0.681  11.512   4.448 -0.0906  0.4442  0.3815
52906SOL    HW165768   0.764  11.500   4.403 -1.4342 -2.0468 -1.7170
52906SOL    HW265769   0.615  11.488   4.383 -2.3094 -0.2442  2.7314
52907SOL     OW65770   5.275   6.373   2.484  0.0582 -0.0799  0.5803
52907SOL    HW165771   5.186   6.361   2.517 -1.5063  1.9239 -2.4357
52907SOL    HW265772   5.324   6.410   2.557 -1.5357 -1.2640  2.3151
52908SOL     OW65773   9.430   6.172   1.804 -0.0867  0.4813 -0.2003
52908SOL    HW165774   9.482   6.097   1.776  0.6853  0.8668  0.1665
52908SOL    HW265775   9.387   6.143   1.884  0.0047  0.3447 -0.2011
52909SOL     OW65776   7.554   9.093  12.136 -0.9124  0.1048  0.3088
52909SOL    HW165777   7.511   9.012  12.165  0.4136 -1.6978 -2.2924
52909SOL    HW265778   7.562   9.082  12.041  3.3919  1.2298  0.3645
52910SOL     OW65779   0.920  10.992   9.291  0.5181 -0.0656 -0.4222
52910SOL    HW165780   0.900  10.982   9.198  0.4141 -2.9423 -0.1953
52910SOL    HW265781   0.973  11.072   9.296 -1.7182  1.6823 -2.5281
52911SOL     OW65782  11.733   2.270   4.462 -0.5041 -0.2325  0.3341
52911SOL    HW165783  11.652   2.278   4.412 -0.0933  0.5696 -0.2237
52911SOL    HW265784  11.704   2.247   4.550 -1.5352  2.4843  0.7945
52912SOL     OW65785   5.246  11.868   9.366 -0.7083  0.6880  0.3662
52912SOL    HW165786   5.217  11.887   9.456 -0.3483 -0.1242  0.6659
52912SOL    HW265787   5.279  11.778   9.370 -0.3242  0.7793 -0.4972
52913SOL     OW65788  10.540  10.220   4.551  0.2131 -0.4163 -0.2534
52913SOL    HW165789  10.501  10.292   4.600 -0.6759  0.9927 -2.8725
52913SOL    HW265790  10.610  10.260   4.500  1.0518 -1.8156 -0.2694
52914SOL     OW65791  11.946   8.830   7.375  0.5085 -0.4800 -0.3215
52914SOL    HW165792  12.003   8.883   7.432  1.5458 -1.7828 -0.1017
52914SOL    HW265793  11.947   8.743   7.415  0.0177 -1.0379 -1.4846
52915SOL     OW65794   6.109  12.548   9.288 -0.6381  0.3767 -0.0811
52915SOL    HW165795   6.077  12.536   9.377 -0.3073  0.6650  0.0766
52915SOL    HW265796   6.040  12.598   9.244 -0.4668  0.8807  0.2209
52916SOL     OW65797   3.739  10.542   7.997 -0.1702  0.4042  0.0569
52916SOL    HW165798   3.755  10.617   8.054 -2.0569 -0.7241  2.2625
52916SOL    HW265799   3.645  10.524   8.007  0.2182 -2.2963 -0.2699
52917SOL     OW65800  12.281   1.899   0.994 -0.1489  0.2022  0.0828
52917SOL    HW165801  12.252   1.987   0.970 -0.3310 -0.6254 -3.0976
52917SOL    HW265802  12.374   1.908   1.013  0.2268  0.8376 -1.9003
52918SOL     OW65803  11.762   4.755   2.878  0.4921 -0.1887  0.0711
52918SOL    HW165804  11.800   4.726   2.961  2.0293  0.0241 -0.5250
52918SOL    HW265805  11.735   4.846   2.894 -1.5278 -0.9162  1.0411
52919SOL     OW65806  10.218   0.482   4.710  0.5258  0.3720 -0.3899
52919SOL    HW165807  10.266   0.509   4.632  0.6899 -0.0875 -0.4531
52919SOL    HW265808  10.209   0.562   4.762  1.1724  0.5018 -0.4772
52920SOL     OW65809  10.133   5.751   9.049 -0.1083  0.8925 -0.3282
52920SOL    HW165810  10.196   5.823   9.043  1.2731 -0.3314 -1.0753
52920SOL    HW265811  10.101   5.739   8.960  1.1769 -0.6689 -0.6238
52921SOL     OW65812   7.875   4.835   5.332 -0.7554 -0.0686  0.0059
52921SOL    HW165813   7.964   4.823   5.366 -1.3222 -0.9967  1.2306
52921SOL    HW265814   7.861   4.929   5.336  0.4499  0.1851 -0.9745
52922SOL     OW65815   7.059  11.016   5.939  0.2830 -0.5453  0.6640
52922SOL    HW165816   7.112  10.938   5.955 -0.6395 -1.5246 -0.8741
52922SOL    HW265817   6.976  10.983   5.905  0.5297  1.1433 -1.8539
52923SOL     OW65818  10.709   0.125   4.402  0.1002 -0.2196 -0.6832
52923SOL    HW165819  10.681   0.216   4.407 -0.7494 -0.4541 -0.9715
52923SOL    HW265820  10.804   0.129   4.393  0.2064  0.5973  0.5880
52924SOL     OW65821  12.379   8.447   7.929  0.1690 -0.0298  0.2081
52924SOL    HW165822  12.302   8.504   7.935  0.6508  0.5053  1.5994
52924SOL    HW265823  12.453   8.505   7.946  0.7292 -0.9104  0.8257
52925SOL     OW65824   2.069   3.894   8.751 -0.2090  0.4444 -0.2196
52925SOL    HW165825   2.081   3.818   8.808 -0.8881  1.4856  1.4016
52925SOL    HW265826   2.122   3.963   8.791  0.2455  0.9009 -1.5483
52926SOL     OW65827   0.163  11.327  11.602 -0.2371 -0.6793  0.0626
52926SOL    HW165828   0.252  11.319  11.568  0.3858 -0.6034  1.5915
52926SOL    HW265829   0.137  11.238  11.623 -2.0594 -1.2914 -3.8508
52927SOL     OW65830   8.122   7.018   5.568  0.4887 -0.2158 -0.5016
52927SOL    HW165831   8.105   6.966   5.489  2.7531 -1.6211 -0.1489
52927SOL    HW265832   8.067   6.978   5.635  0.4377 -0.6399 -0.7900
52928SOL     OW65833   3.583   8.133  11.467  0.1357 -0.0525 -0.1520
52928SOL    HW165834   3.623   8.207  11.513 -0.4396 -0.1841  0.5929
52928SOL    HW265835   3.653   8.068  11.460  0.7095  0.6433 -1.0158
52929SOL     OW65836   1.134  10.894   3.299 -0.0486 -0.3282  0.2529
52929SOL    HW165837   1.121  10.958   3.368  0.4816  1.2333 -1.0203
52929SOL    HW265838   1.066  10.914   3.234  0.4432 -0.7029 -0.3964
52930SOL     OW65839   8.271   1.785   7.004  0.5706  0.0344  0.0150
52930SOL    HW165840   8.227   1.735   6.936  2.2532  1.8824 -2.6160
52930SOL    HW265841   8.209   1.855   7.026 -0.0869 -0.7266  0.6195
52931SOL     OW65842   3.313   0.489   9.899 -0.7170 -0.3241 -0.1622
52931SOL    HW165843   3.262   0.478   9.979 -1.1330  1.7957 -0.0801
52931SOL    HW265844   3.399   0.520   9.928 -0.7928  0.2358 -0.5134
52932SOL     OW65845  11.858   7.690   1.751 -0.0223  0.0503 -0.1750
52932SOL    HW165846  11.915   7.765   1.767 -1.3257  0.9893  0.2030
52932SOL    HW265847  11.887   7.656   1.666  1.7788 -0.1686  0.4811
52933SOL     OW65848   0.385   2.257   4.244 -0.2876  0.3789 -0.3438
52933SOL    HW165849   0.352   2.344   4.266  0.6484  1.0283 -1.3812
52933SOL    HW265850   0.473   2.254   4.283  0.6692  0.8699 -2.3147
52934SOL     OW65851   4.003   4.040  12.010 -0.4001 -0.5389  0.2931
52934SOL    HW165852   4.009   4.108  11.943  1.2530 -0.7126  0.2318
52934SOL    HW265853   3.921   4.059  12.057 -0.4179  0.9338 -0.2987
52935SOL     OW65854  11.103   7.262   9.106  0.4824  0.2514  0.4023
52935SOL    HW165855  11.139   7.274   9.194  1.3150  0.4310  0.0471
52935SOL    HW265856  11.141   7.179   9.076  0.0218  0.0775  0.2961
52936SOL     OW65857  11.729   3.509   4.820 -0.1811  0.9053 -0.3092
52936SOL    HW165858  11.705   3.601   4.825  0.0426  1.0118 -1.0444
52936SOL    HW265859  11.799   3.505   4.755  0.9201  0.4167  0.8700
52937SOL     OW65860   8.390   7.901   1.164  0.0912  0.1136  0.3160
52937SOL    HW165861   8.463   7.917   1.224 -0.4698  1.5874  0.6560
52937SOL    HW265862   8.412   7.951   1.086 -0.1992 -0.0566  0.1255
52938SOL     OW65863   6.662   0.613   9.721 -0.1556 -0.3117  0.4119
52938SOL    HW165864   6.613   0.593   9.801 -2.3918 -1.9044 -1.2121
52938SOL    HW265865   6.607   0.676   9.674 -0.4569 -1.7292 -1.2234
52939SOL     OW65866   0.906   0.495  11.089  0.1806  0.0952 -0.5647
52939SOL    HW165867   0.859   0.416  11.062  2.3582 -1.2295 -0.6931
52939SOL    HW265868   0.941   0.531  11.008 -0.0938  0.7320 -0.4051
52940SOL     OW65869   2.121   0.487   9.131 -0.2620  0.4981 -0.0377
52940SOL    HW165870   2.124   0.507   9.037  0.2600  1.6797  0.2192
52940SOL    HW265871   2.116   0.572   9.174 -2.7689 -0.0709  0.9561
52941SOL     OW65872   2.847   7.608   4.255  0.2413 -0.1844  0.0145
52941SOL    HW165873   2.850   7.681   4.192  0.6587 -0.4700 -0.3023
52941SOL    HW265874   2.872   7.532   4.204  1.4783 -0.2835  0.7255
52942SOL     OW65875   7.280   0.436   2.718  0.2680  0.2119 -0.6342
52942SOL    HW165876   7.375   0.434   2.731  0.2862  0.0723 -0.7952
52942SOL    HW265877   7.251   0.348   2.742  0.0919  0.4581  0.0958
52943SOL     OW65878   7.235   4.247   0.942 -0.2598  0.5359 -0.3701
52943SOL    HW165879   7.167   4.278   1.003 -0.6469 -0.6460 -0.1682
52943SOL    HW265880   7.317   4.276   0.981 -0.6157  1.7394 -0.4680
52944SOL     OW65881   4.733  11.126  11.170 -0.1410 -0.4262 -0.0345
52944SOL    HW165882   4.734  11.125  11.266 -0.0868  0.4322 -0.0190
52944SOL    HW265883   4.694  11.210  11.147 -1.5468 -1.2449 -0.7779
52945SOL     OW65884   9.610   6.613   0.827 -0.1274 -0.3183 -0.3274
52945SOL    HW165885   9.603   6.518   0.820 -1.4583 -0.4363  1.8156
52945SOL    HW265886   9.522   6.642   0.850 -0.0436  1.6127 -2.0923
52946SOL     OW65887  11.540   7.405   0.267 -0.7745  1.0665  0.2991
52946SOL    HW165888  11.536   7.336   0.334  1.5610 -2.2479 -2.5661
52946SOL    HW265889  11.448   7.421   0.243 -1.4303 -1.6743  0.6374
52947SOL     OW65890   6.915   1.290   7.433 -0.3681 -0.6739 -0.0655
52947SOL    HW165891   6.922   1.222   7.500  1.8231 -1.3146 -0.8753
52947SOL    HW265892   6.938   1.246   7.351 -1.3464  0.4891 -1.0106
52948SOL     OW65893   2.051  10.458   5.430 -0.1353 -0.1676 -0.3519
52948SOL    HW165894   2.087  10.370   5.425 -1.6014 -0.7562 -0.9844
52948SOL    HW265895   2.072  10.497   5.345 -0.9438 -0.4998 -0.7083
52949SOL     OW65896  10.400  10.260   7.650  0.0120  0.5746  0.0996
52949SOL    HW165897  10.308  10.286   7.652 -0.1799 -0.0598 -0.3398
52949SOL    HW265898  10.443  10.328   7.599 -0.3852  0.3602 -0.5376
52950SOL     OW65899  11.348   4.617   0.798  0.1216 -0.0084  0.7018
52950SOL    HW165900  11.269   4.571   0.826 -1.6218 -0.4360 -3.9952
52950SOL    HW265901  11.354   4.693   0.856 -3.1055 -0.5428  1.9352
52951SOL     OW65902  10.588   3.122   0.065  0.0347 -0.4243  0.1866
52951SOL    HW165903  10.631   3.156   0.143  0.4266 -0.5591  0.0359
52951SOL    HW265904  10.649   3.056   0.032 -1.2855 -2.2353  1.2043
52952SOL     OW65905   0.961   1.957   9.730  0.5276  0.3013  0.0938
52952SOL    HW165906   0.951   1.884   9.668 -0.3080 -1.0363  1.7129
52952SOL    HW265907   0.879   1.957   9.779  0.4091  2.5506 -0.0304
52953SOL     OW65908   0.398   1.995  12.102  0.0055  0.3420  0.0424
52953SOL    HW165909   0.323   1.954  12.057  0.5022  0.6128 -1.0600
52953SOL    HW265910   0.424   2.067  12.045  1.5584 -0.1852  0.0488
52954SOL     OW65911   8.284   1.806   2.874 -0.7918  0.0555  0.1717
52954SOL    HW165912   8.244   1.772   2.954 -2.2289 -0.7139 -0.8242
52954SOL    HW265913   8.379   1.800   2.890 -1.0344  0.6142  2.0693
52955SOL     OW65914   3.256   9.605   8.974 -0.1184  0.4941 -0.3222
52955SOL    HW165915   3.231   9.665   9.044  0.5957  0.6171 -0.1686
52955SOL    HW265916   3.350   9.617   8.963  0.5399 -2.2016  1.3153
52956SOL     OW65917   7.234   9.637   8.884  0.3082 -0.0599  0.2687
52956SOL    HW165918   7.282   9.597   8.811  0.1998  0.9542 -0.3821
52956SOL    HW265919   7.299   9.644   8.954  0.7228 -0.0454 -0.1088
52957SOL     OW65920  11.203   4.356   3.685  0.2792  0.5310  0.4960
52957SOL    HW165921  11.229   4.390   3.599  0.9980 -0.9814  0.0872
52957SOL    HW265922  11.138   4.419   3.717 -0.0154  1.1127 -1.1630
52958SOL     OW65923  11.863   1.905  11.491 -0.1350  0.0498  0.4694
52958SOL    HW165924  11.902   1.818  11.489 -0.1385  0.0482  0.4751
52958SOL    HW265925  11.937   1.964  11.507  0.0382  0.1380 -0.5425
52959SOL     OW65926   8.441   7.240   7.633  0.2212  0.1007  0.0773
52959SOL    HW165927   8.399   7.315   7.591  1.3630 -0.8065 -2.9792
52959SOL    HW265928   8.530   7.269   7.652 -0.2683  0.4762  1.9050
52960SOL     OW65929  10.325   7.732   3.117  0.0799  0.1056 -0.3402
52960SOL    HW165930  10.290   7.647   3.092  3.5666 -1.2997 -0.8931
52960SOL    HW265931  10.311   7.788   3.040  2.5978 -1.6231 -2.2028
52961SOL     OW65932   6.279   5.081  12.028 -0.0882 -0.1641 -1.0444
52961SOL    HW165933   6.351   5.029  12.065 -0.0980  0.1117 -0.6336
52961SOL    HW265934   6.323   5.142  11.968 -0.0027 -0.1636 -0.9821
52962SOL     OW65935   7.454   0.261   6.021  0.0331 -0.4364 -0.1200
52962SOL    HW165936   7.402   0.308   5.955 -0.7767 -0.7482  0.2783
52962SOL    HW265937   7.442   0.169   5.999  0.7462 -0.4945 -0.2591
52963SOL     OW65938   3.962   5.927   5.990 -0.1205 -0.2061 -0.2306
52963SOL    HW165939   3.906   5.994   5.950  2.2404  0.6151 -2.3977
52963SOL    HW265940   3.930   5.845   5.954 -0.6967  0.1141 -0.4694
52964SOL     OW65941   4.188   2.477   6.853  0.6104 -0.1856  0.1484
52964SOL    HW165942   4.232   2.405   6.898 -0.2068 -1.0911 -0.4951
52964SOL    HW265943   4.098   2.474   6.884  0.8710  1.4501  1.1918
52965SOL     OW65944   0.454  12.492   7.486 -0.6974  0.1603  0.1044
52965SOL    HW165945   0.390  12.449   7.428 -0.6417  2.8205 -2.1583
52965SOL    HW265946   0.531  12.435   7.482 -1.3412 -0.6946 -0.9612
52966SOL     OW65947   2.357   2.667   9.992  0.4271 -0.7417  0.2594
52966SOL    HW165948   2.410   2.704   9.921  0.6514  1.0051  1.2681
52966SOL    HW265949   2.307   2.741  10.025 -0.0234 -1.6155  1.6141
52967SOL     OW65950  12.082   8.932  11.682 -0.2052  0.0964 -0.7802
52967SOL    HW165951  12.014   8.968  11.626 -0.6445  0.0161 -0.3142
52967SOL    HW265952  12.049   8.946  11.771  0.1865 -0.3347 -0.5636
52968SOL     OW65953   4.916   7.950  10.858 -0.6828 -0.5100 -0.0557
52968SOL    HW165954   4.983   8.017  10.844 -0.4698 -0.4064  1.3778
52968SOL    HW265955   4.833   7.998  10.852 -0.5270 -0.0483  1.1796
52969SOL     OW65956   5.282   7.937   4.073  0.2923  0.1264 -0.2346
52969SOL    HW165957   5.262   7.927   3.980  0.8232  0.7891 -0.4284
52969SOL    HW265958   5.200   7.967   4.112 -0.1779 -0.9637 -0.3261
52970SOL     OW65959   1.504   6.094  10.439 -0.2893  0.7061  0.7922
52970SOL    HW165960   1.456   6.068  10.518 -1.7311  0.1238 -0.2377
52970SOL    HW265961   1.436   6.103  10.372  1.0583 -0.4708 -0.8017
52971SOL     OW65962   4.814   4.483   8.316  0.2754  0.1527 -0.4913
52971SOL    HW165963   4.866   4.417   8.269  0.7695  0.2019 -0.0317
52971SOL    HW265964   4.876   4.521   8.379 -0.2795  0.3243 -0.0382
52972SOL     OW65965   7.186   7.974   6.243  0.2025 -0.5719 -0.4583
52972SOL    HW165966   7.197   7.935   6.157 -0.6520  0.4415 -1.0577
52972SOL    HW265967   7.229   8.059   6.237 -0.0138 -0.4190  0.0529
52973SOL     OW65968   2.641   6.250  12.057 -0.1728 -0.2196 -0.3222
52973SOL    HW165969   2.660   6.188  11.987  1.4229  0.5018 -0.5651
52973SOL    HW265970   2.569   6.304  12.022 -1.6906 -1.9679 -0.0410
52974SOL     OW65971   1.744   6.094   4.242  0.3626 -0.7019  0.6992
52974SOL    HW165972   1.705   6.024   4.189 -0.3673  0.6854 -0.6762
52974SOL    HW265973   1.836   6.071   4.249  0.1505 -1.7531  0.2087
52975SOL     OW65974   6.864   4.091   3.035 -0.3834  0.2020 -0.0443
52975SOL    HW165975   6.864   4.182   3.005  0.0819  0.4476  0.6797
52975SOL    HW265976   6.953   4.076   3.065 -0.6589 -0.2390  0.5764
52976SOL     OW65977   3.763   2.974   0.527  0.3968 -0.2116 -0.4849
52976SOL    HW165978   3.827   3.042   0.547  0.6987  0.1199 -2.3897
52976SOL    HW265979   3.784   2.902   0.586  1.0566  0.7475  0.4856
52977SOL     OW65980   9.495   3.625   1.651 -0.2299  0.1271 -0.5238
52977SOL    HW165981   9.437   3.582   1.714 -0.9829  0.9628 -0.6294
52977SOL    HW265982   9.568   3.565   1.641  0.2275  0.2427  1.6296
52978SOL     OW65983   5.724   2.862   5.695  0.1606 -0.0924 -0.4532
52978SOL    HW165984   5.702   2.869   5.788 -0.9882  0.0218 -0.7264
52978SOL    HW265985   5.775   2.782   5.689 -1.1501 -0.9960  0.0394
52979SOL     OW65986   9.192   0.028  10.429  0.2047  0.0521 -0.1903
52979SOL    HW165987   9.097   0.036  10.436  0.1254  0.1942 -1.2836
52979SOL    HW265988   9.225   0.057  10.514 -0.7200  0.1636  0.1356
52980SOL     OW65989   4.366   8.911   3.119  0.3774 -0.4344 -0.2688
52980SOL    HW165990   4.350   8.891   3.027 -3.2458 -0.7384  0.2907
52980SOL    HW265991   4.429   8.844   3.148  1.9223 -0.0650 -2.5409
52981SOL     OW65992   2.984   0.400  10.141 -0.1264  0.1376  0.0461
52981SOL    HW165993   2.961   0.307  10.153 -0.6736  0.4214  1.4636
52981SOL    HW265994   2.961   0.419  10.050  1.2213 -1.4314 -0.6672
52982SOL     OW65995   8.198   6.625   4.100 -0.4815  0.1898 -0.1643
52982SOL    HW165996   8.277   6.603   4.150 -0.6919  0.4065  0.2729
52982SOL    HW265997   8.128   6.576   4.143 -0.9647  1.6935  0.8474
52983SOL     OW65998   7.573  10.118   8.854  0.0546  0.3812  0.0132
52983SOL    HW165999   7.525  10.158   8.926  0.7706  1.3747 -0.0490
52983SOL    HW266000   7.565  10.024   8.869  1.0353  0.5631  1.9662
52984SOL     OW66001   7.225  12.080  10.232 -0.3512  0.1882  0.1306
52984SOL    HW166002   7.135  12.061  10.207  0.1982  1.6314 -3.5082
52984SOL    HW266003   7.254  12.002  10.279 -2.8639 -1.1690 -0.4188
52985SOL     OW66004   2.806   2.327   1.394  0.2698 -0.1328 -0.1318
52985SOL    HW166005   2.846   2.316   1.307 -1.9720  1.4514 -1.4656
52985SOL    HW266006   2.801   2.422   1.406 -2.3196 -0.2599  0.2700
52986SOL     OW66007   7.414   1.404  11.741  0.1859  0.3641  0.5157
52986SOL    HW166008   7.391   1.444  11.825 -1.1703  1.9499 -0.5457
52986SOL    HW266009   7.414   1.477  11.679 -0.8991 -1.0398 -1.2406
52987SOL     OW66010  11.450   6.397   1.215 -0.2516 -0.1920 -0.6083
52987SOL    HW166011  11.416   6.310   1.236  0.1480 -0.2401 -0.1357
52987SOL    HW266012  11.545   6.385   1.207 -0.1694  0.2352 -0.3450
52988SOL     OW66013   6.778   9.380  10.462 -0.0373  0.2235  0.3925
52988SOL    HW166014   6.735   9.427  10.533 -1.4562  0.4963 -0.6069
52988SOL    HW266015   6.787   9.291  10.494  0.7973  0.6863  1.5093
52989SOL     OW66016   2.096  10.895   1.623 -0.2977  0.0640  0.2322
52989SOL    HW166017   2.118  10.972   1.571  1.0810 -0.9100 -0.7034
52989SOL    HW266018   2.180  10.861   1.653 -0.7952 -1.5737 -0.1228
52990SOL     OW66019   9.021   3.218   3.952 -0.3784  0.0701  0.3007
52990SOL    HW166020   8.991   3.144   4.005  1.0488 -0.1648  0.8394
52990SOL    HW266021   9.022   3.292   4.012 -0.8655  0.3020  0.0207
52991SOL     OW66022   4.343   0.503   3.572  0.0640  0.5704  0.5663
52991SOL    HW166023   4.313   0.505   3.482 -1.3679 -1.4776  0.9156
52991SOL    HW266024   4.302   0.579   3.613 -1.2316  0.2069  0.0081
52992SOL     OW66025   1.341   7.153   3.675 -0.7085  0.2628  0.2878
52992SOL    HW166026   1.259   7.104   3.668 -1.5164  1.3923  1.3145
52992SOL    HW266027   1.340   7.212   3.600 -0.8532  0.2787  0.3001
52993SOL     OW66028   7.127   0.259  10.753 -0.4504  0.1323 -0.7883
52993SOL    HW166029   7.216   0.281  10.781 -0.7479  1.9170 -1.1288
52993SOL    HW266030   7.100   0.190  10.813  0.5429  0.7642  0.4475
52994SOL     OW66031  11.361   0.416  10.269  0.3255  0.4333  0.3026
52994SOL    HW166032  11.297   0.356  10.308 -0.2364  0.9373  0.1824
52994SOL    HW266033  11.337   0.418  10.176  2.1578 -1.3948 -0.2895
52995SOL     OW66034  10.724   1.633   6.790 -0.0856  0.3710  0.5343
52995SOL    HW166035  10.754   1.583   6.866  0.0780 -0.2331  0.0825
52995SOL    HW266036  10.676   1.569   6.737 -0.4100  0.8466  0.2542
52996SOL     OW66037   8.348   5.356   4.341  0.0828  0.3596  0.0260
52996SOL    HW166038   8.375   5.287   4.281  1.2722  1.8524 -1.2502
52996SOL    HW266039   8.411   5.427   4.326  0.4188  0.8488  3.0175
52997SOL     OW66040   6.843   8.440  11.046  0.4214 -0.2455  0.5685
52997SOL    HW166041   6.926   8.393  11.050  0.7605  0.3411  0.6166
52997SOL    HW266042   6.868   8.532  11.035 -0.2289 -0.1123  0.1346
52998SOL     OW66043   4.334  10.665   7.278  0.0283  0.0534  0.3893
52998SOL    HW166044   4.422  10.681   7.244  1.0584 -2.3221  1.6769
52998SOL    HW266045   4.302  10.751   7.303  1.5573  1.1156 -1.0555
52999SOL     OW66046   3.525  12.342   0.546  0.1395 -0.2836 -0.0060
52999SOL    HW166047   3.589  12.315   0.611 -0.2505 -1.6151 -0.1393
52999SOL    HW266048   3.561  12.312   0.463  0.9623  2.0033 -0.5428
53000SOL     OW66049   4.401  10.035   0.339  0.2722  0.0375 -0.1174
53000SOL    HW166050   4.438  10.006   0.422 -0.7913  0.0949  0.3920
53000SOL    HW266051   4.373   9.954   0.296 -1.4436  0.1554  0.6995
53001SOL     OW66052   0.391   3.543   8.808  0.3010  0.1078 -0.2874
53001SOL    HW166053   0.406   3.621   8.755 -0.4610  0.0062 -0.6708
53001SOL    HW266054   0.330   3.572   8.876  1.9923  0.4778  1.1411
53002SOL     OW66055  11.112   3.187   0.833 -0.0024 -0.1350 -0.7221
53002SOL    HW166056  11.026   3.181   0.793 -0.0934 -1.7480 -0.3549
53002SOL    HW266057  11.099   3.156   0.923  0.7317  0.7920 -0.2740
53003SOL     OW66058  11.295   6.148   1.202  0.1592 -0.5813  0.4665
53003SOL    HW166059  11.257   6.213   1.143  0.4043  1.9234  2.8819
53003SOL    HW266060  11.228   6.080   1.210 -0.6606 -0.0028 -1.1107
53004SOL     OW66061   0.744   8.949   3.669 -0.4829 -0.1329 -0.0523
53004SOL    HW166062   0.757   8.971   3.576 -0.8486 -0.1469 -0.1088
53004SOL    HW266063   0.800   8.873   3.683 -1.3557 -0.9017 -0.5904
53005SOL     OW66064   1.234   1.654   8.355 -0.0006 -0.6137  0.2093
53005SOL    HW166065   1.205   1.563   8.344  0.7138 -0.5564 -2.8447
53005SOL    HW266066   1.320   1.646   8.397 -0.1979 -1.2921  0.5109
53006SOL     OW66067   1.586   7.148  10.065 -0.6888 -0.3960 -0.1841
53006SOL    HW166068   1.610   7.163   9.974  0.1076 -0.0176  0.0775
53006SOL    HW266069   1.550   7.231  10.095 -2.0298 -0.8563 -0.4694
53007SOL     OW66070   2.036   9.856   8.439  0.5675 -0.4617 -0.1181
53007SOL    HW166071   2.120   9.820   8.408  1.3500  0.2535  1.0896
53007SOL    HW266072   2.015   9.804   8.516  0.7580  0.4322  0.5505
53008SOL     OW66073  12.086   1.098   3.298  0.0768  0.4212 -0.3624
53008SOL    HW166074  12.177   1.074   3.319  0.4208  1.9293 -0.0315
53008SOL    HW266075  12.039   1.084   3.380 -0.9169 -4.1248 -1.4266
53009SOL     OW66076   7.494  10.211   4.616 -0.0306 -0.3332  0.7296
53009SOL    HW166077   7.512  10.253   4.532  0.4253  0.2588  1.1157
53009SOL    HW266078   7.579  10.179   4.646  0.3434  1.7913  2.1946
53010SOL     OW66079  10.581   7.309   4.757  0.3607 -0.6897  0.3042
53010SOL    HW166080  10.514   7.363   4.714  0.8339 -1.0591 -0.9351
53010SOL    HW266081  10.536   7.228   4.781  0.4184 -1.0492 -0.7774
53011SOL     OW66082   3.537   3.995   8.212  0.0344 -0.2120  0.2414
53011SOL    HW166083   3.498   4.035   8.290  2.1720  0.2531  1.1434
53011SOL    HW266084   3.488   4.034   8.138 -0.2847  1.3773  1.2369
53012SOL     OW66085  11.265   1.183   7.329 -0.5384  0.3623  0.3930
53012SOL    HW166086  11.349   1.227   7.338  0.1940 -0.9753  0.3545
53012SOL    HW266087  11.242   1.192   7.237 -0.1269  0.1871  0.2730
53013SOL     OW66088   5.743   8.765   8.986  0.3524  0.0143  0.4734
53013SOL    HW166089   5.729   8.689   9.043  0.5670 -0.2197  0.2164
53013SOL    HW266090   5.831   8.753   8.952  0.1245  0.0066 -0.1260
53014SOL     OW66091   7.050   9.016   4.970 -0.0314 -0.1354  0.5447
53014SOL    HW166092   7.054   8.949   4.902  0.7073  0.1181  0.3295
53014SOL    HW266093   7.015   9.094   4.926  0.0487 -0.0954  0.5503
53015SOL     OW66094   9.564   2.997   0.285  0.8342 -0.0124 -0.0762
53015SOL    HW166095   9.491   2.950   0.325 -0.0310  0.5495 -0.9496
53015SOL    HW266096   9.639   2.940   0.299  0.2049 -0.6771  0.7124
53016SOL     OW66097   7.565   8.353   5.938 -0.2059 -0.4325  0.8114
53016SOL    HW166098   7.521   8.431   5.973 -1.0045 -0.5047  0.0054
53016SOL    HW266099   7.554   8.359   5.843  3.6029  0.7817  0.2822
53017SOL     OW66100   9.257   6.940   7.017  0.2721  0.0645  0.3447
53017SOL    HW166101   9.275   6.861   6.965 -0.0293 -0.7077  1.3803
53017SOL    HW266102   9.180   6.979   6.976 -0.1301 -0.6888  0.3660
53018SOL     OW66103   2.643   0.008  11.370  0.1083 -0.0336 -0.0802
53018SOL    HW166104   2.693   0.089  11.361 -0.4605  0.3090 -0.2410
53018SOL    HW266105   2.567   0.033  11.422  0.3224 -0.6453  0.5279
53019SOL     OW66106   4.679  10.724   5.273  0.2083  0.0849  0.1055
53019SOL    HW166107   4.738  10.716   5.348  2.3924 -0.7318 -1.5666
53019SOL    HW266108   4.621  10.797   5.295  0.2539 -0.5932  2.8508
53020SOL     OW66109   8.796   6.075   3.209  0.9114  0.0496  0.5139
53020SOL    HW166110   8.815   6.166   3.186  0.6215 -0.2304 -0.9627
53020SOL    HW266111   8.866   6.024   3.168 -0.1502 -0.5616 -0.6105
53021SOL     OW66112   9.392   4.165  10.705  0.1871 -0.6977 -0.1342
53021SOL    HW166113   9.331   4.092  10.715 -0.5790  0.1091  1.5827
53021SOL    HW266114   9.373   4.222  10.780  1.2788  0.8811 -1.0050
53022SOL     OW66115   3.800  10.737   2.062  0.2285  0.1302  0.1710
53022SOL    HW166116   3.876  10.707   2.013  0.4742 -1.1656  1.2652
53022SOL    HW266117   3.757  10.656   2.090 -1.3571  0.8450 -0.1278
53023SOL     OW66118  11.330   1.404   0.004  0.2428 -0.1346  0.2344
53023SOL    HW166119  11.336   1.490  -0.037 -1.0705 -0.0782  0.1334
53023SOL    HW266120  11.257   1.411   0.065 -0.6976 -1.5141 -0.6655
53024SOL     OW66121   5.209   9.819   2.268 -0.0151  0.0845  0.0299
53024SOL    HW166122   5.183   9.837   2.178  1.2530 -1.7880 -0.7834
53024SOL    HW266123   5.275   9.885   2.288  2.4482 -1.6185 -1.8317
53025SOL     OW66124   7.558   1.501   0.705 -0.3765  0.3941 -0.7389
53025SOL    HW166125   7.496   1.515   0.633 -1.1715  1.4109  0.1042
53025SOL    HW266126   7.643   1.496   0.662 -0.9357 -0.1005 -1.8436
53026SOL     OW66127  10.338   1.040   3.369 -0.3865 -0.1066 -0.2412
53026SOL    HW166128  10.400   1.032   3.296  1.4828  1.0610  1.1221
53026SOL    HW266129  10.259   0.996   3.338  0.8134 -0.9065 -2.4107
53027SOL     OW66130   9.075   5.438   6.003 -0.3212  0.1971 -0.1386
53027SOL    HW166131   9.007   5.473   6.061 -0.9549 -2.6737  1.0119
53027SOL    HW266132   9.105   5.359   6.047  3.3180  0.9511 -0.9692
53028SOL     OW66133   0.599   3.269   9.647  0.2052  0.3171  0.0112
53028SOL    HW166134   0.547   3.288   9.569 -0.5057 -0.1271  0.3645
53028SOL    HW266135   0.688   3.256   9.615  0.6898  3.6731 -0.3295
53029SOL     OW66136   0.795   7.705   8.017 -0.7118  0.1976  0.3072
53029SOL    HW166137   0.703   7.730   8.027 -0.3740  1.8405 -0.3315
53029SOL    HW266138   0.792   7.617   7.979 -2.0062  0.1187  0.5361
53030SOL     OW66139  10.800   5.551  11.965  0.4228 -0.4458 -0.2409
53030SOL    HW166140  10.831   5.530  11.877  3.9017 -1.1797  1.0096
53030SOL    HW266141  10.791   5.466  12.008 -2.6977 -0.2212 -0.1600
53031SOL     OW66142   6.735   1.186   5.181  0.3193  0.3832 -0.3216
53031SOL    HW166143   6.759   1.234   5.102  0.9668 -0.5092 -0.6846
53031SOL    HW266144   6.663   1.130   5.155 -0.4121  1.1009  0.0935
53032SOL     OW66145   9.687   9.408   2.589  0.2067 -0.2215 -0.0762
53032SOL    HW166146   9.757   9.460   2.628  0.3591 -1.1430  0.8981
53032SOL    HW266147   9.640   9.470   2.533  0.5855  0.8907  0.8049
53033SOL     OW66148  12.348   9.929   7.316  0.4096  0.1909 -0.3103
53033SOL    HW166149  12.378   9.838   7.319  0.0052  0.0102 -1.4536
53033SOL    HW266150  12.334   9.952   7.408 -0.4209 -1.2130 -0.0529
53034SOL     OW66151   4.413   6.161   0.794 -0.2211  0.3385  0.0303
53034SOL    HW166152   4.473   6.225   0.756 -0.1065 -0.4340 -1.1452
53034SOL    HW266153   4.469   6.089   0.824 -0.3588  0.7079  1.2526
53035SOL     OW66154   9.943   2.127  11.705 -0.0465  0.0832  0.0081
53035SOL    HW166155   9.848   2.126  11.694  0.0646  0.7480 -1.1802
53035SOL    HW266156   9.956   2.127  11.800 -1.2188 -0.3617  0.1864
53036SOL     OW66157  11.256   9.285   0.490  0.1572 -0.0954 -0.0263
53036SOL    HW166158  11.240   9.190   0.487  2.0709 -0.4583 -0.0219
53036SOL    HW266159  11.217   9.313   0.572  2.5388 -1.5506  1.7290
53037SOL     OW66160   8.847  12.564   7.136 -0.1691  0.0562  0.2168
53037SOL    HW166161   8.818  12.625   7.204  0.5619 -0.6167  1.1763
53037SOL    HW266162   8.840  12.477   7.178  1.5946 -0.2581 -0.0674
53038SOL     OW66163   0.652  10.426   6.409 -0.9143 -0.5365  0.0183
53038SOL    HW166164   0.696  10.471   6.481  0.7461 -0.6397 -0.8773
53038SOL    HW266165   0.654  10.334   6.434 -0.2737 -0.5807 -0.1738
53039SOL     OW66166   4.556  10.001   1.184 -0.2395  0.2033  0.0304
53039SOL    HW166167   4.498  10.054   1.238 -0.5882  1.4491 -1.5034
53039SOL    HW266168   4.541   9.911   1.214 -0.3323  0.8446  2.0382
53040SOL     OW66169  10.718   4.916   4.225 -0.6031  0.4475 -0.3134
53040SOL    HW166170  10.776   4.974   4.273 -1.3443  0.4535  0.5993
53040SOL    HW266171  10.776   4.872   4.162  0.1092  1.5344 -0.4434
53041SOL     OW66172   0.925  10.078   2.376  0.5777 -0.1294 -0.1518
53041SOL    HW166173   1.009  10.111   2.409 -0.0035  0.6813  0.5330
53041SOL    HW266174   0.866  10.153   2.379 -0.1137 -0.6207 -0.8841
53042SOL     OW66175   9.529   3.216   1.714  0.5766 -0.5166 -0.1793
53042SOL    HW166176   9.534   3.271   1.792 -1.5893  0.2064 -0.5056
53042SOL    HW266177   9.477   3.140   1.741 -1.6408  0.5353 -1.3056
53043SOL     OW66178   9.990   7.212   9.188 -0.0617  0.3439 -0.2638
53043SOL    HW166179  10.047   7.233   9.114 -0.8430  1.4410 -0.5792
53043SOL    HW266180  10.005   7.119   9.204  1.4848  0.5142 -0.6074
53044SOL     OW66181   5.496   7.254   0.547  0.1110  0.4675  0.1929
53044SOL    HW166182   5.563   7.275   0.482  0.2778 -0.9164 -0.1262
53044SOL    HW266183   5.417   7.298   0.515  0.5080  0.8748 -0.2444
53045SOL     OW66184  11.464   9.235  12.123  0.2075 -0.3976 -0.3812
53045SOL    HW166185  11.523   9.167  12.157  0.0602 -0.9535 -1.2126
53045SOL    HW266186  11.412   9.191  12.057 -2.7134 -0.4910  1.7951
53046SOL     OW66187   7.608   8.132   9.145 -0.0152 -0.0910 -0.4367
53046SOL    HW166188   7.581   8.073   9.215  1.1075  0.1934  0.2541
53046SOL    HW266189   7.667   8.195   9.187  0.2904  0.3816 -1.5314
53047SOL     OW66190   2.221  10.004   5.682 -0.2696 -0.0989  0.2523
53047SOL    HW166191   2.310   9.992   5.716 -0.0925 -0.9405 -0.4657
53047SOL    HW266192   2.202   9.922   5.637 -2.4001 -0.9773  2.5204
53048SOL     OW66193   9.596  10.689   0.614 -0.3731  0.9411 -0.0041
53048SOL    HW166194   9.526  10.632   0.583  0.5987 -1.0092  1.1869
53048SOL    HW266195   9.657  10.695   0.541  0.1408 -0.6449  0.2661
53049SOL     OW66196   8.857   1.792   9.757  0.4086 -0.0163  0.3805
53049SOL    HW166197   8.875   1.701   9.731 -0.8883 -0.0423 -0.5489
53049SOL    HW266198   8.854   1.790   9.852  0.1678 -1.0203  0.3645
53050SOL     OW66199   5.739   7.370   5.148  0.7032 -0.0445  0.0076
53050SOL    HW166200   5.802   7.336   5.083  0.7390 -0.5619  0.3064
53050SOL    HW266201   5.661   7.315   5.136  0.7158 -0.1507  0.4085
53051SOL     OW66202   0.857   0.725   4.930  0.3063 -0.2629 -0.1267
53051SOL    HW166203   0.845   0.734   5.025  0.5431  0.6311 -0.1701
53051SOL    HW266204   0.836   0.812   4.895 -0.9933 -0.9102 -1.0286
53052SOL     OW66205   1.854   4.724  11.822  0.2260  0.7072  0.1409
53052SOL    HW166206   1.859   4.738  11.727 -1.1219 -0.4835 -0.1338
53052SOL    HW266207   1.773   4.767  11.849 -2.5081 -3.5957 -0.2780
53053SOL     OW66208   2.505   1.724   7.442  0.3899 -1.1109 -0.0028
53053SOL    HW166209   2.507   1.704   7.348 -2.1365  1.2542 -0.7212
53053SOL    HW266210   2.436   1.667   7.477 -0.7461  0.0515 -0.2644
53054SOL     OW66211   9.197  12.457   3.072 -0.0546 -0.5382 -0.5155
53054SOL    HW166212   9.107  12.447   3.104  0.5482 -1.5124  0.9653
53054SOL    HW266213   9.199  12.408   2.990 -0.9814 -0.1284 -0.7967
53055SOL     OW66214   0.585   5.562   1.392 -0.5725  1.0403  0.0000
53055SOL    HW166215   0.567   5.640   1.340  0.0252  0.9719 -0.3065
53055SOL    HW266216   0.510   5.555   1.451 -0.3079  2.2323  0.4966
53056SOL     OW66217   4.929   7.400  12.286 -0.0679 -0.0180  0.2486
53056SOL    HW166218   5.004   7.341  12.291  0.0107 -0.0106 -0.5786
53056SOL    HW266219   4.866   7.364  12.348 -0.3527 -1.4747 -0.8139
53057SOL     OW66220   3.040   1.823   2.367  0.0367  0.0373  0.1294
53057SOL    HW166221   3.043   1.739   2.321 -0.2501 -0.2694  0.6703
53057SOL    HW266222   2.948   1.847   2.368  0.0178 -0.0417  0.6965
53058SOL     OW66223  12.204   8.719   2.334 -0.9892 -0.3534 -0.1641
53058SOL    HW166224  12.207   8.730   2.239  0.1355 -0.6160 -0.1743
53058SOL    HW266225  12.174   8.628   2.346  0.3079 -0.8255 -0.3186
53059SOL     OW66226   6.720  10.482   4.656 -0.7941 -0.8674 -0.1495
53059SOL    HW166227   6.697  10.530   4.736  0.2688 -0.3930 -0.1073
53059SOL    HW266228   6.651  10.416   4.647 -1.8829  0.1747  0.2090
53060SOL     OW66229   8.391   4.459   8.776  0.1642 -0.0832  0.6137
53060SOL    HW166230   8.469   4.448   8.721  0.7108  0.5421  1.2430
53060SOL    HW266231   8.361   4.548   8.758 -0.2946 -0.2542  0.5210
53061SOL     OW66232   0.790   8.062   3.029 -0.0174 -0.0521  0.3589
53061SOL    HW166233   0.884   8.049   3.044 -0.0481  0.0453  0.6507
53061SOL    HW266234   0.774   8.152   3.058 -0.5432 -0.6446  2.0461
53062SOL     OW66235   3.085  11.558   2.583 -0.3154 -0.0372  0.8905
53062SOL    HW166236   3.132  11.641   2.589  0.8689 -0.7762  3.1841
53062SOL    HW266237   3.016  11.565   2.649 -0.5150 -0.6958  0.7581
53063SOL     OW66238  12.572  11.347   5.836  0.0769 -0.7200  0.6261
53063SOL    HW166239  12.523  11.266   5.847  1.2872 -1.5631  0.0349
53063SOL    HW266240  12.658  11.329   5.874  0.9477 -0.3242 -1.0498
53064SOL     OW66241   7.663   2.719   6.577 -0.3268 -0.4312  0.0615
53064SOL    HW166242   7.675   2.644   6.635 -2.9231  0.9660  2.6528
53064SOL    HW266243   7.589   2.694   6.521  0.8305 -0.9625 -1.2720
53065SOL     OW66244   1.552   2.074   6.888  0.2280 -0.3774 -0.0882
53065SOL    HW166245   1.510   1.988   6.879 -0.4328 -0.0888  0.1629
53065SOL    HW266246   1.640   2.055   6.920  0.7460 -1.0856 -1.8271
53066SOL     OW66247  11.103  10.220   8.918 -0.8186  0.0073  0.0186
53066SOL    HW166248  11.151  10.302   8.921  0.6529 -0.7727 -0.7962
53066SOL    HW266249  11.067  10.217   8.829 -2.7158  0.7268  0.7119
53067SOL     OW66250   1.081   6.552   3.044 -0.8559  0.0155 -0.3897
53067SOL    HW166251   1.049   6.494   3.113 -0.7695  0.5551  0.1051
53067SOL    HW266252   1.001   6.583   3.001 -1.0137  1.2062  0.7205
53068SOL     OW66253   9.545   8.079   1.974  0.0299  0.6253  0.5830
53068SOL    HW166254   9.611   8.022   2.014  0.3057 -1.1613 -2.1584
53068SOL    HW266255   9.596   8.143   1.925 -0.2605  0.6556  0.3174
53069SOL     OW66256  12.541   8.946  10.164 -0.3658 -0.4040  0.0462
53069SOL    HW166257  12.573   9.023  10.212 -0.7843 -0.5317  0.5477
53069SOL    HW266258  12.597   8.875  10.194 -1.4168 -0.7341  1.3314
53070SOL     OW66259  11.563  12.470   5.152 -0.3777  0.5915  0.2312
53070SOL    HW166260  11.535  12.430   5.234 -0.2145 -0.3683 -0.1729
53070SOL    HW266261  11.656  12.448   5.144 -0.8779 -1.1795 -1.2487
53071SOL     OW66262   0.294  12.027  11.801  0.0558  0.6098 -0.3876
53071SOL    HW166263   0.327  11.964  11.866  0.6474  0.0715 -1.1833
53071SOL    HW266264   0.356  12.100  11.805 -0.6669  1.1863  0.5815
53072SOL     OW66265   2.099   0.270  11.070 -0.0813 -0.6495  0.3352
53072SOL    HW166266   2.049   0.286  10.990 -1.4997 -2.3347  0.8047
53072SOL    HW266267   2.061   0.329  11.135  0.1369 -0.2658  0.1161
53073SOL     OW66268   7.593   1.041   1.540 -0.0797  0.1488 -0.3489
53073SOL    HW166269   7.512   0.993   1.523  0.5785 -1.8902  1.7593
53073SOL    HW266270   7.658   0.973   1.558  1.0073  1.7629  2.4798
53074SOL     OW66271   9.009   6.772   0.037  0.1821  0.3415  0.2272
53074SOL    HW166272   9.076   6.733   0.092  0.3475 -0.4460 -0.5000
53074SOL    HW266273   9.054   6.839  -0.013  0.7771 -1.0799 -1.2377
53075SOL     OW66274   1.898   0.329   8.188  0.9766  0.3744  0.2537
53075SOL    HW166275   1.860   0.302   8.272 -0.0956 -2.3476 -0.9840
53075SOL    HW266276   1.984   0.287   8.185  2.0128  2.3254  0.8679
53076SOL     OW66277  11.890   5.021   2.351  0.2297 -0.3891 -0.3992
53076SOL    HW166278  11.934   4.956   2.406  1.3398  1.0955  0.5806
53076SOL    HW266279  11.802   5.027   2.387  1.0904  0.9527  1.7085
53077SOL     OW66280   3.317   0.881   9.898  0.2222 -0.2475  0.3687
53077SOL    HW166281   3.308   0.824   9.975 -0.7491 -0.0873  0.3874
53077SOL    HW266282   3.366   0.957   9.930  0.8682 -0.7228  0.5289
53078SOL     OW66283   1.758   9.641   2.824 -0.0450  1.1505 -0.2680
53078SOL    HW166284   1.775   9.680   2.910 -0.6229  1.0502 -0.1058
53078SOL    HW266285   1.777   9.710   2.761 -0.3228  1.4527 -0.0204
53079SOL     OW66286   3.402   9.732   0.936 -0.4379  0.2935 -0.3780
53079SOL    HW166287   3.495   9.750   0.947 -0.6291  0.6698  0.7102
53079SOL    HW266288   3.366   9.731   1.025 -1.3751 -0.4101 -0.7383
53080SOL     OW66289   2.593   8.721  12.582 -0.4505  0.3008 -0.1224
53080SOL    HW166290   2.677   8.748  12.543 -0.9490  1.0923 -0.6734
53080SOL    HW266291   2.605   8.628  12.601  0.5381  0.3917 -0.2408
53081SOL     OW66292   9.748   0.458  10.829  0.1329 -0.9988 -0.4795
53081SOL    HW166293   9.751   0.365  10.808 -1.6118 -0.9466 -1.0924
53081SOL    HW266294   9.664   0.470  10.873  0.1478  0.3619 -0.7831
53082SOL     OW66295   1.713   9.028   9.344  0.5333  0.3524 -0.1812
53082SOL    HW166296   1.624   9.043   9.374  0.7366 -0.2432  0.7614
53082SOL    HW266297   1.712   8.940   9.306  0.5150  0.7063 -1.0340
53083SOL     OW66298   9.728   7.228  11.763  0.0639  0.3152 -0.2619
53083SOL    HW166299   9.701   7.239  11.854  1.1091 -0.1228  0.1106
53083SOL    HW266300   9.785   7.152  11.764  1.9895  1.6779 -0.8646
53084SOL     OW66301   8.492   5.760  12.178 -0.1820 -0.2060 -0.5029
53084SOL    HW166302   8.406   5.794  12.154  0.5667  0.7543 -1.9548
53084SOL    HW266303   8.518   5.810  12.255 -0.9692 -0.5991  0.0262
53085SOL     OW66304   4.973   9.345   7.612  0.3992 -0.4173  0.5931
53085SOL    HW166305   5.057   9.374   7.576  0.7651 -2.2350 -0.1322
53085SOL    HW266306   4.907   9.388   7.557  0.9416 -2.6770 -2.0139
53086SOL     OW66307   7.089  11.829   6.498  0.5504  0.1480 -0.3203
53086SOL    HW166308   7.029  11.766   6.538  0.6989  1.8931  3.0008
53086SOL    HW266309   7.033  11.903   6.472  0.9846  1.1272  1.3782
53087SOL     OW66310   6.877   9.648   7.256 -0.6931 -0.0148  0.0140
53087SOL    HW166311   6.834   9.712   7.200 -0.9054  0.6964  0.9687
53087SOL    HW266312   6.962   9.687   7.276  0.9578 -1.8653 -2.7338
53088SOL     OW66313  11.819  10.096   5.050  0.4478 -0.5658  0.2784
53088SOL    HW166314  11.785  10.037   4.983  0.0467  0.1634 -0.1735
53088SOL    HW266315  11.911  10.107   5.028  0.3305 -0.3721 -0.1265
53089SOL     OW66316   5.746   0.647  11.148 -0.0230  0.1627 -0.0494
53089SOL    HW166317   5.673   0.611  11.098 -1.0781  1.5408  0.4186
53089SOL    HW266318   5.708   0.668  11.233  1.5935 -1.6130  1.2065
53090SOL     OW66319   5.067   0.205  11.758 -0.6177  0.1558 -0.1684
53090SOL    HW166320   4.975   0.198  11.784 -0.1987  0.3698  1.4650
53090SOL    HW266321   5.112   0.233  11.837  0.7747  0.6771 -1.1136
53091SOL     OW66322   8.739  11.854   6.392  0.8732 -0.0867  0.4918
53091SOL    HW166323   8.830  11.882   6.398  1.3151 -1.4112  0.3174
53091SOL    HW266324   8.709  11.851   6.483  0.8885  0.6799  0.5272
53092SOL     OW66325   3.682   9.252  11.826 -0.0115  0.3159 -0.2216
53092SOL    HW166326   3.693   9.200  11.906  0.2252  0.0825 -0.4045
53092SOL    HW266327   3.746   9.216  11.765  0.5995  1.2163 -0.1499
53093SOL     OW66328   4.236   8.537   9.146  0.2718 -0.3912 -0.0625
53093SOL    HW166329   4.288   8.526   9.225  2.5199  0.6231 -1.3039
53093SOL    HW266330   4.163   8.475   9.156  0.7441 -0.6363  2.5284
53094SOL     OW66331  11.277   4.285   4.139  0.1499  0.2686  0.1443
53094SOL    HW166332  11.248   4.375   4.156  1.3322  0.5248  0.9444
53094SOL    HW266333  11.298   4.283   4.046  1.2138  1.1678  0.3466
53095SOL     OW66334   0.838  11.013   6.081 -0.0507  0.7338 -0.6077
53095SOL    HW166335   0.879  10.966   6.154 -0.6891 -0.4305 -0.9739
53095SOL    HW266336   0.846  11.105   6.105  0.3044  0.4016  0.6388
53096SOL     OW66337   2.488   5.807   8.403 -0.0029 -0.0903 -0.2601
53096SOL    HW166338   2.571   5.843   8.436 -0.2441 -0.8119  1.2125
53096SOL    HW266339   2.492   5.714   8.427 -1.1027 -0.1994 -0.4794
53097SOL     OW66340   6.328   4.309   1.220  0.1241  0.5915 -0.2639
53097SOL    HW166341   6.412   4.307   1.265 -0.3363 -0.5312  0.5830
53097SOL    HW266342   6.350   4.300   1.127  0.9231 -0.3650 -0.0015
53098SOL     OW66343   2.773  11.008   0.978  0.4227 -0.2639 -0.0434
53098SOL    HW166344   2.841  10.948   0.949  2.4831  0.5369  2.7384
53098SOL    HW266345   2.790  11.090   0.931  0.1503 -0.6240 -0.7802
53099SOL     OW66346   9.477   0.711   4.989 -0.0568 -0.4643  0.2862
53099SOL    HW166347   9.530   0.712   5.069 -0.9125  0.5934  0.8669
53099SOL    HW266348   9.387   0.698   5.019 -0.4220  0.1838 -0.4746
53100SOL     OW66349   3.281   1.663   0.103 -0.1754  0.2610 -0.4624
53100SOL    HW166350   3.297   1.755   0.123 -1.6837  0.8846 -1.8963
53100SOL    HW266351   3.353   1.638   0.044 -0.1226  0.7234 -0.5966
53101SOL     OW66352   6.262   0.519   9.320  0.0804  0.2575  0.1700
53101SOL    HW166353   6.325   0.447   9.311 -0.0243  0.2090 -0.2030
53101SOL    HW266354   6.284   0.579   9.248  0.1502  0.5854  0.4653
53102SOL     OW66355   1.199   1.239   0.746  0.1180 -0.1531 -1.0728
53102SOL    HW166356   1.287   1.204   0.759 -0.3460 -1.7757 -2.0832
53102SOL    HW266357   1.149   1.204   0.820  0.2304  0.5348 -0.6580
53103SOL     OW66358   3.170   3.782   4.415 -0.9176 -0.4283  0.0920
53103SOL    HW166359   3.131   3.746   4.335 -1.5840 -0.7473  0.5511
53103SOL    HW266360   3.130   3.868   4.425  0.3767  0.3056 -0.7859
53104SOL     OW66361   8.087   4.947   3.058  0.0310 -0.2979  0.4774
53104SOL    HW166362   8.154   4.926   3.122  0.5600  0.1707  0.0884
53104SOL    HW266363   8.130   5.006   2.995 -0.0251 -1.9091 -1.1494
53105SOL     OW66364   4.933   7.275   1.165  0.3021 -0.1481 -0.3193
53105SOL    HW166365   4.996   7.236   1.104 -0.1124 -3.0623  0.9617
53105SOL    HW266366   4.975   7.356   1.195  1.7136 -0.0770 -2.3107
53106SOL     OW66367   0.705   6.737   8.266 -0.2500 -0.1684 -0.4204
53106SOL    HW166368   0.788   6.693   8.251 -0.4238 -0.5837 -0.1671
53106SOL    HW266369   0.674   6.761   8.179  1.2797  2.1368 -0.4231
53107SOL     OW66370   2.830   4.079   3.747  0.2047  0.0374  0.1636
53107SOL    HW166371   2.863   3.992   3.728 -0.0585  0.1311 -0.8095
53107SOL    HW266372   2.740   4.079   3.714  0.0588  0.5487  0.5323
53108SOL     OW66373  11.090   9.651   5.926 -0.4364 -0.9291  0.8521
53108SOL    HW166374  11.095   9.641   5.831 -1.5587 -0.3501  0.7101
53108SOL    HW266375  11.076   9.563   5.960 -0.6090 -1.0667  0.4261
53109SOL     OW66376   5.915   2.787   7.540 -0.0612 -0.4047  0.4113
53109SOL    HW166377   5.908   2.716   7.476  0.3445 -1.2521  1.2722
53109SOL    HW266378   6.008   2.812   7.538  0.3637 -1.6662  1.8917
53110SOL     OW66379   5.570   5.256  11.175 -0.0525 -0.0560 -0.0707
53110SOL    HW166380   5.620   5.188  11.220  0.8493 -1.0303 -2.4093
53110SOL    HW266381   5.618   5.337  11.192 -0.2194 -0.2368  1.3696
53111SOL     OW66382   5.426   5.595   7.959  0.2312 -0.5563  0.3059
53111SOL    HW166383   5.352   5.563   8.011 -0.4455  1.0595  0.3930
53111SOL    HW266384   5.389   5.665   7.905  0.8912 -2.1821 -2.4185
53112SOL     OW66385   2.879  12.247   7.269 -0.2741  0.3869  0.4740
53112SOL    HW166386   2.804  12.250   7.209 -1.7018 -0.6375  2.1028
53112SOL    HW266387   2.936  12.318   7.240 -1.2387  0.3505 -1.6409
53113SOL     OW66388   7.407   6.972   0.429  0.0334  0.8566  0.1218
53113SOL    HW166389   7.365   6.983   0.343 -1.7031 -1.3226  0.5924
53113SOL    HW266390   7.414   7.061   0.464  0.2218  1.7451 -1.9733
53114SOL     OW66391   7.022   7.205   5.846  0.0820  0.3293 -0.2774
53114SOL    HW166392   6.968   7.130   5.821 -0.0933 -0.1681  1.5110
53114SOL    HW266393   7.054   7.239   5.762 -0.4232 -1.2841 -1.1813
53115SOL     OW66394   8.008   0.265   1.358 -0.7947  0.0339 -0.1596
53115SOL    HW166395   8.045   0.341   1.313  1.1801 -0.8927 -0.1938
53115SOL    HW266396   7.982   0.206   1.287 -0.0387 -0.3503 -0.1245
53116SOL     OW66397   4.614   2.909   4.737  0.2917  0.3331  0.0598
53116SOL    HW166398   4.663   2.845   4.788  2.1557  0.1764 -1.7608
53116SOL    HW266399   4.665   2.990   4.746 -0.3110  0.7433 -0.1589
53117SOL     OW66400   8.362  12.039   0.411  0.1568 -0.2490 -0.2454
53117SOL    HW166401   8.310  12.060   0.333 -1.4667 -0.3426  0.7542
53117SOL    HW266402   8.423  12.112   0.419  0.9733 -0.6777 -2.0824
53118SOL     OW66403   2.402  10.318   1.852  0.2725  0.0841 -0.5599
53118SOL    HW166404   2.479  10.339   1.903 -0.9409  1.9753  0.6161
53118SOL    HW266405   2.344  10.272   1.913 -0.5287  0.8936 -0.6905
53119SOL     OW66406   9.816   0.085   2.512  0.2209  0.5515  0.0020
53119SOL    HW166407   9.910   0.103   2.518 -0.0073  1.6928  0.2377
53119SOL    HW266408   9.812  -0.009   2.494  1.3632  0.1404  1.6626
53120SOL     OW66409  10.821   0.950   4.189  0.1388  0.3299 -0.4379
53120SOL    HW166410  10.783   0.923   4.272  1.5039 -0.5630 -0.0560
53120SOL    HW266411  10.915   0.930   4.198  0.4379  0.8986 -1.9171
53121SOL     OW66412   5.567   5.409   1.293  0.7566  0.0711  0.1502
53121SOL    HW166413   5.597   5.327   1.332 -0.4048  0.7021  2.5779
53121SOL    HW266414   5.645   5.465   1.291  0.7937  0.1325  2.0089
53122SOL     OW66415   2.117   4.668   4.851  0.2023  0.1597 -0.6488
53122SOL    HW166416   2.114   4.717   4.933  0.8711 -1.2203  0.2575
53122SOL    HW266417   2.026   4.662   4.823 -0.0037  0.8988 -0.1655
53123SOL     OW66418  12.311   6.304   9.569 -0.7301  0.2085 -0.4567
53123SOL    HW166419  12.257   6.381   9.587 -0.1256  0.3293  1.0246
53123SOL    HW266420  12.256   6.230   9.593 -0.3220  0.3299  1.0004
53124SOL     OW66421   6.261  10.257   1.024 -0.6451 -0.0197  0.2499
53124SOL    HW166422   6.268  10.337   1.076 -1.3744 -0.2122  0.6668
53124SOL    HW266423   6.179  10.216   1.055 -0.1597 -1.0438  0.2210
53125SOL     OW66424   7.381   4.348  11.334 -0.4112 -0.1717 -0.4884
53125SOL    HW166425   7.428   4.397  11.401 -0.1086 -1.1062  0.0057
53125SOL    HW266426   7.292   4.339  11.369 -0.3691 -0.2866 -0.4111
53126SOL     OW66427  10.993   4.356   6.921  0.3453 -0.6418  0.2197
53126SOL    HW166428  11.080   4.323   6.940 -0.2963 -1.1670  2.6178
53126SOL    HW266429  11.005   4.450   6.907  1.4235 -0.8888 -0.5656
53127SOL     OW66430   1.428  12.461  12.130 -0.2705  0.4430  0.3405
53127SOL    HW166431   1.484  12.514  12.188 -2.3521  0.9546  2.0120
53127SOL    HW266432   1.478  12.380  12.118  1.0918  1.0846  1.2750
53128SOL     OW66433  11.284   4.730   6.963 -0.5200  0.2527  0.6141
53128SOL    HW166434  11.342   4.800   6.993 -0.4719  0.5734 -0.2069
53128SOL    HW266435  11.209   4.734   7.023 -0.6568  1.2088  0.3943
53129SOL     OW66436   0.236  11.445   4.269  0.1395  0.1044 -0.1651
53129SOL    HW166437   0.189  11.378   4.219  0.8009 -2.4278  2.3070
53129SOL    HW266438   0.272  11.503   4.203 -0.0571 -2.2925 -2.5640
53130SOL     OW66439   6.759  12.514  10.432  0.3115  0.4527  0.0003
53130SOL    HW166440   6.703  12.469  10.368  0.9847  0.1544 -0.3883
53130SOL    HW266441   6.722  12.602  10.439  0.0207  0.3767 -0.5338
53131SOL     OW66442   2.542   3.058   4.213  0.0929 -0.0203  0.2239
53131SOL    HW166443   2.605   3.046   4.141 -0.8815  0.3657 -0.7245
53131SOL    HW266444   2.524   3.152   4.213  1.5789  0.3388  2.3145
53132SOL     OW66445  11.896   6.304   3.711 -0.5978 -0.2656  0.5728
53132SOL    HW166446  11.951   6.352   3.649 -0.8171 -1.1117 -0.2959
53132SOL    HW266447  11.917   6.342   3.796  0.3280  0.3420  0.0888
53133SOL     OW66448  11.589   5.324   3.563 -0.2051 -0.3483  0.5840
53133SOL    HW166449  11.669   5.364   3.598 -0.4736 -0.8607  1.8389
53133SOL    HW266450  11.611   5.231   3.554 -0.9746 -0.6980  1.9969
53134SOL     OW66451   5.381   2.547   5.623 -0.4976  0.1627 -0.3210
53134SOL    HW166452   5.407   2.598   5.700  0.0809  0.9878 -1.0398
53134SOL    HW266453   5.434   2.468   5.627  0.9895  1.0761 -0.8791
53135SOL     OW66454   1.219   1.225  10.394  0.2778 -0.4322  0.2510
53135SOL    HW166455   1.155   1.285  10.356 -0.0327 -0.7160  0.3194
53135SOL    HW266456   1.263   1.186  10.319  1.0293  0.4554  0.2127
53136SOL     OW66457   9.175   8.220   8.873 -0.0969  0.2253 -0.3516
53136SOL    HW166458   9.210   8.269   8.798  0.4541  1.9532  0.9600
53136SOL    HW266459   9.090   8.262   8.891  0.3584  0.7048  0.7595
53137SOL     OW66460   2.837  10.128  12.078 -0.3441  0.7477 -0.0912
53137SOL    HW166461   2.877  10.186  12.143 -1.5135 -0.3379  1.6907
53137SOL    HW266462   2.777  10.184  12.029  1.6332  1.9019 -1.2957
53138SOL     OW66463   6.866   3.622   3.158  0.1177  0.1064  0.0592
53138SOL    HW166464   6.941   3.679   3.180 -0.4540 -0.1531  3.0444
53138SOL    HW266465   6.794   3.658   3.209 -1.1317 -1.2904 -0.6769
53139SOL     OW66466  11.238   1.964   1.241 -0.2619  0.1225 -0.4432
53139SOL    HW166467  11.314   1.910   1.220 -1.3024 -0.9115 -1.7157
53139SOL    HW266468  11.261   2.008   1.323  2.1390  0.6746 -1.3211
53140SOL     OW66469   5.093  11.858   6.095 -0.3194 -0.0609 -0.4223
53140SOL    HW166470   5.087  11.932   6.034 -1.2840 -0.7766 -1.2088
53140SOL    HW266471   5.005  11.848   6.131  0.2024  0.2852  1.0602
53141SOL     OW66472   7.250   1.619   5.736 -0.3905 -0.0025 -0.1071
53141SOL    HW166473   7.269   1.642   5.645 -1.7269  1.2013 -0.1313
53141SOL    HW266474   7.320   1.661   5.786  0.8428 -1.3864 -0.6009
53142SOL     OW66475   7.754   7.252  10.583  0.2992 -0.8905  0.0588
53142SOL    HW166476   7.693   7.190  10.543  1.2844 -1.7286 -0.1951
53142SOL    HW266477   7.792   7.203  10.656  0.6760 -0.3831  0.2027
53143SOL     OW66478   8.021  11.491   6.129  0.5966  0.3203  0.1280
53143SOL    HW166479   8.032  11.493   6.034 -1.3090  2.1863 -0.1282
53143SOL    HW266480   7.942  11.437   6.142  0.6704  0.3303  0.6152
53144SOL     OW66481   1.759   5.940  11.848 -0.2464 -0.2021  0.5906
53144SOL    HW166482   1.844   5.976  11.824 -0.2584  0.5175  1.5544
53144SOL    HW266483   1.697   5.978  11.786 -0.1488  0.8802  1.1381
53145SOL     OW66484  10.634   4.727   4.415 -0.1969 -0.2238 -0.0713
53145SOL    HW166485  10.652   4.788   4.343 -2.6754  0.0820 -0.5114
53145SOL    HW266486  10.640   4.640   4.375  0.2683 -0.1445 -0.1821
53146SOL     OW66487   9.952   0.947  10.804 -0.5470 -0.0452  0.2550
53146SOL    HW166488   9.899   0.932  10.726  1.4430  1.0459 -1.3930
53146SOL    HW266489  10.033   0.900  10.788  1.0152  2.4382  0.3192
53147SOL     OW66490  10.385   8.121   9.543  0.3875 -0.8097 -0.4467
53147SOL    HW166491  10.398   8.036   9.587  0.7884 -0.8070 -0.5503
53147SOL    HW266492  10.454   8.124   9.477  1.9055  0.5987  1.0846
53148SOL     OW66493   0.332   1.464   6.027  0.1907 -0.1481 -0.2295
53148SOL    HW166494   0.269   1.392   6.035  2.6131 -2.4114  0.0297
53148SOL    HW266495   0.383   1.461   6.109  0.5213  1.7483 -0.3111
53149SOL     OW66496  10.389  10.393   4.383  0.2684 -0.5061 -0.3388
53149SOL    HW166497  10.365  10.330   4.452  1.2277  0.4969  0.9674
53149SOL    HW266498  10.311  10.400   4.329 -0.1023 -2.2834 -0.1192
53150SOL     OW66499   0.294  10.625   5.208  0.1765  0.1363  0.5089
53150SOL    HW166500   0.258  10.595   5.292  0.5825 -1.0064  0.2913
53150SOL    HW266501   0.387  10.602   5.212  0.2983  0.5115 -0.0617
53151SOL     OW66502  10.097  11.168   9.164 -0.2191 -0.1703  1.2473
53151SOL    HW166503  10.188  11.168   9.136  0.0468  1.8406  1.9500
53151SOL    HW266504  10.063  11.253   9.135 -2.0353 -1.1058  0.5190
53152SOL     OW66505  11.458   4.094  10.733  0.0689  0.4784  0.1538
53152SOL    HW166506  11.482   4.003  10.719 -0.1063  0.6182 -1.1693
53152SOL    HW266507  11.506   4.120  10.812 -0.2372 -0.8740  0.8135
53153SOL     OW66508   3.652   3.244   4.249  0.4469  0.2825 -0.3646
53153SOL    HW166509   3.651   3.153   4.279 -2.2311  0.1063 -0.7762
53153SOL    HW266510   3.658   3.237   4.153 -1.9277  0.3659 -0.5853
53154SOL     OW66511   2.000   1.621  11.698  0.1310 -0.0659 -0.2772
53154SOL    HW166512   1.930   1.573  11.742  0.7014 -0.6170  0.0277
53154SOL    HW266513   2.054   1.553  11.657  0.6704  0.3381 -0.2438
53155SOL     OW66514   2.844  12.462  11.127  0.2072  0.0123 -0.0805
53155SOL    HW166515   2.787  12.476  11.203  1.0783  1.5504  0.3269
53155SOL    HW266516   2.807  12.518  11.058 -0.6292 -1.4406 -0.8509
53156SOL     OW66517   7.275   4.835   4.089  0.3679 -0.1557  0.5526
53156SOL    HW166518   7.308   4.751   4.120 -0.7188 -0.2939  1.4108
53156SOL    HW266519   7.276   4.890   4.168  0.3116  0.3902  0.1737
53157SOL     OW66520  10.165   2.050  10.920 -0.0752 -0.2867  0.3688
53157SOL    HW166521  10.139   2.083  10.834  0.8329  2.1109  0.9254
53157SOL    HW266522  10.259   2.068  10.924 -0.2385  0.3094  2.1183
53158SOL     OW66523   4.297   0.063  10.995 -0.2934  0.3538  0.3486
53158SOL    HW166524   4.295  -0.030  10.970  2.2303  0.4251 -0.4866
53158SOL    HW266525   4.214   0.098  10.963 -1.1902 -1.5345  0.4358
53159SOL     OW66526   2.135  10.704   3.455 -0.6150 -0.5097  0.1359
53159SOL    HW166527   2.132  10.609   3.461  1.3585 -0.7167 -1.1650
53159SOL    HW266528   2.162  10.733   3.542 -1.8476 -1.0668  0.7228
53160SOL     OW66529   0.985   7.629   7.513  0.6165  0.0060  0.1836
53160SOL    HW166530   1.017   7.714   7.482 -1.3181  0.6911 -0.0853
53160SOL    HW266531   0.999   7.570   7.439 -1.6707  1.0556 -1.1816
53161SOL     OW66532   2.274  11.936   1.232  0.3023  0.1213  0.2791
53161SOL    HW166533   2.282  11.937   1.327 -1.8424 -1.3844  0.5370
53161SOL    HW266534   2.258  12.028   1.209  0.9710  0.5209  1.3229
53162SOL     OW66535  10.538   1.267  11.902  0.1911 -0.3108 -0.0496
53162SOL    HW166536  10.480   1.257  11.826 -0.0893  0.1061  0.1101
53162SOL    HW266537  10.571   1.178  11.918 -0.5225 -0.5824 -0.0440
53163SOL     OW66538   5.458   9.998   3.061 -0.1139  0.4107  0.5676
53163SOL    HW166539   5.436  10.032   2.974 -2.3143  2.5527  1.8320
53163SOL    HW266540   5.544  10.034   3.080 -0.2652  1.1700 -0.1399
53164SOL     OW66541  11.038   6.023   4.528 -0.3625  0.2385  0.7606
53164SOL    HW166542  10.978   5.968   4.477 -0.7575 -1.2329  2.7183
53164SOL    HW266543  11.125   5.989   4.508 -0.4020  0.4786  0.1481
53165SOL     OW66544   9.222  10.481   1.835 -0.2109  0.0596  0.1745
53165SOL    HW166545   9.201  10.552   1.896  0.1763 -0.1239  0.5311
53165SOL    HW266546   9.234  10.404   1.892  3.3585  0.5187  0.2510
53166SOL     OW66547  12.468   6.362   7.671  0.6080 -0.0676  0.1313
53166SOL    HW166548  12.512   6.447   7.658 -3.1462  2.2425  0.8960
53166SOL    HW266549  12.441   6.363   7.763 -3.2924  0.0826 -0.8461
53167SOL     OW66550   4.933   2.030   0.944  0.5691 -0.1252 -0.2988
53167SOL    HW166551   4.989   1.983   1.007  0.5691 -1.3379 -1.1783
53167SOL    HW266552   4.957   1.994   0.859 -0.9373 -0.0247 -0.7851
53168SOL     OW66553   4.699  10.072  10.490  0.1358 -0.6467  0.1479
53168SOL    HW166554   4.714  10.070  10.584  0.8684  1.5720  0.1317
53168SOL    HW266555   4.786  10.082  10.452 -0.2230 -0.7836 -0.7339
53169SOL     OW66556   7.031  11.183   7.453 -0.5271 -0.1739 -0.0875
53169SOL    HW166557   7.108  11.222   7.410 -1.6585  1.1609 -0.9745
53169SOL    HW266558   7.044  11.088   7.442  0.8046  0.0370 -0.5604
53170SOL     OW66559   8.690   7.553   6.502  0.7256 -0.3413 -0.4438
53170SOL    HW166560   8.681   7.643   6.471 -2.1070  0.3244  1.8658
53170SOL    HW266561   8.783   7.534   6.492  1.5262  2.9802 -0.6616
53171SOL     OW66562  11.974  11.356  12.483 -0.6090 -0.2865  0.0672
53171SOL    HW166563  11.928  11.296  12.542 -0.2590  0.2806  0.9272
53171SOL    HW266564  12.042  11.395  12.536 -0.5403  0.5427 -0.6087
53172SOL     OW66565   7.465   7.441  10.352  0.3586 -0.3864 -0.2547
53172SOL    HW166566   7.370   7.438  10.365  0.3875 -0.4929 -0.0589
53172SOL    HW266567   7.484   7.366  10.296  0.3845 -0.6450  0.0940
53173SOL     OW66568   9.858  10.828   8.602 -0.0530  0.1315 -0.0945
53173SOL    HW166569   9.765  10.807   8.604  0.0286 -0.3116 -0.5645
53173SOL    HW266570   9.865  10.898   8.538 -0.0107 -0.1377 -0.3876
53174SOL     OW66571   8.213   7.074   6.623  0.7717 -0.4423  0.2802
53174SOL    HW166572   8.175   7.020   6.553  0.0957 -0.1071  0.3900
53174SOL    HW266573   8.197   7.164   6.596 -0.7264 -0.3024  1.5210
53175SOL     OW66574  10.592   7.885   2.503 -0.2178 -0.5415  0.2632
53175SOL    HW166575  10.617   7.978   2.500 -0.3437 -0.5342 -0.6764
53175SOL    HW266576  10.671   7.838   2.475 -0.7305 -0.6052 -1.1294
53176SOL     OW66577   7.253   0.301   4.832  0.1149 -0.2621  0.3824
53176SOL    HW166578   7.198   0.324   4.907 -0.6091  2.2666 -0.7959
53176SOL    HW266579   7.339   0.285   4.869 -0.5728 -0.6893  1.8937
53177SOL     OW66580   7.062   1.155   2.435  0.5679 -0.0906  0.2389
53177SOL    HW166581   7.127   1.130   2.369 -1.6915 -0.9974 -1.7656
53177SOL    HW266582   7.079   1.097   2.508  1.3449 -1.0463 -0.6693
53178SOL     OW66583   6.426   0.182   0.209  0.7424 -0.0481  0.6536
53178SOL    HW166584   6.429   0.252   0.144  0.1320  0.7007  1.4247
53178SOL    HW266585   6.503   0.196   0.264 -0.2293  0.9855  1.7833
53179SOL     OW66586   0.574   3.931   9.535  0.6801  0.4275 -0.1317
53179SOL    HW166587   0.527   3.886   9.465  1.5911 -1.8467  0.6234
53179SOL    HW266588   0.534   4.018   9.539 -0.4220  0.1078 -2.4205
53180SOL     OW66589  11.848   2.922   2.055  0.1122 -0.5262 -0.1698
53180SOL    HW166590  11.943   2.918   2.057  0.1139 -0.9665 -0.7536
53180SOL    HW266591  11.819   2.859   2.121  0.2245 -3.0730 -2.3798
53181SOL     OW66592   2.214   0.230   5.798 -0.0886  0.2245  0.4503
53181SOL    HW166593   2.222   0.219   5.703  1.7524  0.7107  0.5252
53181SOL    HW266594   2.223   0.324   5.812 -0.5234  0.1727  1.1079
53182SOL     OW66595   3.668   5.779   2.909 -0.3783  0.8003  0.0301
53182SOL    HW166596   3.685   5.850   2.848 -0.3276  0.4414 -0.3815
53182SOL    HW266597   3.611   5.719   2.861 -0.3957  0.5493  0.3607
53183SOL     OW66598   5.434  10.612   1.629  0.5877 -0.2176  0.1329
53183SOL    HW166599   5.432  10.652   1.542 -0.1809 -0.4324  0.0486
53183SOL    HW266600   5.474  10.680   1.685  0.9624 -0.0289 -0.3535
53184SOL     OW66601   0.582   5.194  10.090  0.5938  0.1969  0.2690
53184SOL    HW166602   0.663   5.236  10.118 -0.7556  2.5684  0.8460
53184SOL    HW266603   0.541   5.164  10.171  0.3184  0.1053  0.0972
53185SOL     OW66604   9.194   7.585   6.087  0.2198  0.2002  0.4142
53185SOL    HW166605   9.173   7.496   6.058 -2.0614  0.6705  0.4595
53185SOL    HW266606   9.264   7.573   6.151  1.0409 -1.4054 -0.7046
53186SOL     OW66607   6.865   8.798  12.251  0.0535  0.1647 -0.0309
53186SOL    HW166608   6.872   8.746  12.170  0.3526 -0.1352  0.1826
53186SOL    HW266609   6.784   8.848  12.240  0.1378  0.1997 -0.5574
53187SOL     OW66610   2.423   2.011  10.769 -0.1791  0.3517  0.0219
53187SOL    HW166611   2.368   1.943  10.731 -0.0936  1.1310 -1.5728
53187SOL    HW266612   2.419   1.996  10.863 -1.6220 -0.7338 -0.1902
53188SOL     OW66613   7.363   9.872   3.206  0.0037 -0.3673 -0.0101
53188SOL    HW166614   7.395   9.954   3.245  0.5042 -0.1305 -0.8877
53188SOL    HW266615   7.396   9.875   3.116 -2.0571 -0.3711 -0.8063
53189SOL     OW66616   1.764   6.665  10.820  0.4929 -0.1042  0.7701
53189SOL    HW166617   1.812   6.696  10.743 -1.2761 -1.0898 -0.8162
53189SOL    HW266618   1.816   6.591  10.852  0.3588 -0.8407 -0.6140
53190SOL     OW66619  10.661   1.473   8.764 -0.1471 -0.5041  0.1545
53190SOL    HW166620  10.613   1.521   8.831 -0.2804 -1.3373  0.6807
53190SOL    HW266621  10.752   1.502   8.773 -0.5456  1.2582 -1.0045
53191SOL     OW66622   4.521  10.001   8.364  0.2666  0.4996  0.3524
53191SOL    HW166623   4.505  10.089   8.396  1.1620  0.6676  0.3573
53191SOL    HW266624   4.434   9.962   8.357  0.0164  0.4501  2.9690
53192SOL     OW66625   6.364   0.555   6.795 -0.8178  0.0486 -0.0980
53192SOL    HW166626   6.399   0.491   6.732 -0.7547 -0.6747  0.6609
53192SOL    HW266627   6.317   0.618   6.741 -0.9585 -0.6899 -0.8583
53193SOL     OW66628  10.080   6.709   7.974 -0.1200  0.1626 -0.2452
53193SOL    HW166629  10.167   6.748   7.986  0.4305 -0.7827 -0.9552
53193SOL    HW266630  10.041   6.709   8.061  0.6713  0.4543  0.1173
53194SOL     OW66631   3.261   7.112   0.731 -0.2756  0.4818 -0.4322
53194SOL    HW166632   3.212   7.031   0.747 -0.7494  0.8042 -0.2460
53194SOL    HW266633   3.276   7.148   0.818 -0.4992  0.8489 -0.5436
53195SOL     OW66634   7.148   1.327   5.191 -0.0787  0.4161 -0.2706
53195SOL    HW166635   7.064   1.313   5.147  1.4226 -1.1295 -2.9130
53195SOL    HW266636   7.190   1.397   5.141  0.3438  0.9983  0.8635
53196SOL     OW66637   1.137   3.357   5.942  0.6939  0.0891 -0.6225
53196SOL    HW166638   1.059   3.341   5.994 -0.5431  1.2531 -2.0251
53196SOL    HW266639   1.200   3.396   6.003 -0.4965  0.8804  0.1330
53197SOL     OW66640   2.898   8.945   7.340 -0.4067  0.0860  0.0323
53197SOL    HW166641   2.816   8.899   7.324 -0.5188  0.6749 -1.1732
53197SOL    HW266642   2.935   8.902   7.417 -1.0383 -1.2752 -0.4027
53198SOL     OW66643   1.489   0.225  10.567  0.0510  0.8511  0.1318
53198SOL    HW166644   1.496   0.307  10.518 -0.8160 -0.3008 -2.0630
53198SOL    HW266645   1.395   0.215  10.583 -0.0372 -0.4902 -1.0843
53199SOL     OW66646   3.591   2.116   1.870  0.0580 -0.3379  0.1136
53199SOL    HW166647   3.665   2.104   1.810  0.2699  0.6347  0.1617
53199SOL    HW266648   3.619   2.186   1.929 -0.4376 -0.7825  0.8972
53200SOL     OW66649   5.508   4.049   5.211 -0.3333  0.3079 -0.4707
53200SOL    HW166650   5.463   4.084   5.287  0.2771  1.5567 -0.6686
53200SOL    HW266651   5.599   4.039   5.239 -0.3320 -0.3139 -0.6839
53201SOL     OW66652   1.473  11.550   3.723  0.6114  0.5599 -0.8855
53201SOL    HW166653   1.413  11.517   3.656 -1.6773  0.3690  1.1200
53201SOL    HW266654   1.416  11.588   3.790  2.7724  0.8391  0.9202
53202SOL     OW66655   1.057  10.645   4.054 -0.1297  0.1751 -0.0388
53202SOL    HW166656   0.965  10.624   4.044 -0.3106  0.3925  1.0751
53202SOL    HW266657   1.083  10.602   4.136  0.5429  0.8231  0.0987
53203SOL     OW66658   4.052   3.076   4.378 -0.3393  0.0238 -0.0617
53203SOL    HW166659   4.081   2.996   4.334  0.0993 -0.5465  1.2133
53203SOL    HW266660   4.072   3.061   4.471 -1.9190  0.8839  0.4499
53204SOL     OW66661   1.420   3.751   3.795  0.1989 -0.4097 -0.2663
53204SOL    HW166662   1.328   3.725   3.789  0.5014 -1.3207 -1.1473
53204SOL    HW266663   1.447   3.767   3.705  1.5869 -2.6948 -0.3456
53205SOL     OW66664   2.902   6.335   1.815  0.8206 -0.3109 -0.3767
53205SOL    HW166665   2.919   6.390   1.739 -0.2665  2.4054  1.1802
53205SOL    HW266666   2.815   6.360   1.845  1.4925 -0.6374  2.1786
53206SOL     OW66667   6.662   1.474   3.403  0.5069  0.2340 -0.8660
53206SOL    HW166668   6.602   1.401   3.412 -0.5407  0.8752 -2.2240
53206SOL    HW266669   6.695   1.467   3.313  0.4710  1.3438 -0.9886
53207SOL     OW66670   8.819   6.957   2.032  0.2697  0.3724 -1.0106
53207SOL    HW166671   8.800   6.921   2.119 -0.3855  2.5132 -0.2056
53207SOL    HW266672   8.902   7.003   2.043  0.1813  0.6571 -1.5187
53208SOL     OW66673   6.852  12.319   2.619 -0.6151 -0.5505 -0.7102
53208SOL    HW166674   6.823  12.245   2.671  0.0642 -0.1502  0.2605
53208SOL    HW266675   6.772  12.356   2.582 -0.9991 -1.4668 -0.8187
53209SOL     OW66676   7.945   5.719   4.284 -0.2936  0.2978  0.1097
53209SOL    HW166677   7.881   5.678   4.226  0.3672 -1.0605  0.3233
53209SOL    HW266678   7.944   5.811   4.258 -2.3230  0.3306  0.0938
53210SOL     OW66679   1.427   7.303   3.893 -0.0599  0.1268 -0.4270
53210SOL    HW166680   1.416   7.235   3.825  1.0109 -0.5918  0.0902
53210SOL    HW266681   1.464   7.256   3.967  0.3942  1.2383  0.0618
53211SOL     OW66682   6.302   6.640   0.001  0.1556 -0.1178 -0.4167
53211SOL    HW166683   6.214   6.644   0.040  0.5475 -0.3097  0.5004
53211SOL    HW266684   6.316   6.728  -0.034 -0.5514 -0.1919 -0.9225
53212SOL     OW66685   0.969   1.959  11.330 -0.4459 -0.0410 -0.4983
53212SOL    HW166686   1.047   1.993  11.374 -0.9782 -0.9871  1.3033
53212SOL    HW266687   0.994   1.872  11.300 -0.3562  0.2561 -1.2964
53213SOL     OW66688   5.938   0.241   4.688  0.4870 -0.1345 -0.8562
53213SOL    HW166689   5.930   0.181   4.762  0.7970  0.8586  0.0075
53213SOL    HW266690   5.921   0.187   4.611 -2.4756 -0.6720  0.0578
53214SOL     OW66691   0.145   1.744   4.218  0.0450  0.1493 -0.0333
53214SOL    HW166692   0.123   1.835   4.199 -0.2364 -0.3010 -2.0020
53214SOL    HW266693   0.079   1.692   4.173  2.0359 -1.1096 -1.7104
53215SOL     OW66694   6.034   7.670  10.327 -0.5036  0.0338 -0.7510
53215SOL    HW166695   6.037   7.760  10.362 -0.1582 -0.1125 -0.3893
53215SOL    HW266696   6.103   7.624  10.375  1.9792  0.5005 -3.5461
53216SOL     OW66697   0.114   0.141   2.335 -0.4268  0.2842  0.0571
53216SOL    HW166698   0.083   0.219   2.289 -0.6376  1.6112  2.2807
53216SOL    HW266699   0.164   0.092   2.270  1.7115  3.4448 -0.8789
53217SOL     OW66700   3.699   4.846  12.436  0.4758 -0.0102 -0.4285
53217SOL    HW166701   3.780   4.794  12.438  0.9312  0.6930 -0.2906
53217SOL    HW266702   3.689   4.871  12.345  0.9493  0.7239 -0.2826
53218SOL     OW66703   8.455   9.158   3.930  0.5403 -0.2894 -0.5050
53218SOL    HW166704   8.411   9.141   3.846 -3.1314  0.3758  1.0876
53218SOL    HW266705   8.446   9.076   3.978  1.5115 -0.2761 -0.2900
53219SOL     OW66706   5.313   3.413   1.008 -0.0136  0.0283  0.5475
53219SOL    HW166707   5.250   3.378   0.945 -0.4025  0.6469  0.5803
53219SOL    HW266708   5.382   3.453   0.955 -0.5215  0.8690  0.4962
53220SOL     OW66709  11.813   0.351   4.369 -0.0909 -0.4232  0.3500
53220SOL    HW166710  11.815   0.275   4.426 -1.7889 -0.6505  0.1341
53220SOL    HW266711  11.842   0.423   4.425 -0.1139 -0.9220  1.0185
53221SOL     OW66712   6.280   9.400   1.408 -0.3314  0.2715  0.5150
53221SOL    HW166713   6.337   9.472   1.380 -1.3986  0.2871 -1.8993
53221SOL    HW266714   6.209   9.442   1.457 -1.1039  0.9787 -1.1230
53222SOL     OW66715   8.470   1.632   3.515 -0.0267 -0.0322  0.3806
53222SOL    HW166716   8.376   1.625   3.535 -0.4527  0.4848 -1.3185
53222SOL    HW266717   8.513   1.603   3.596 -1.6297 -2.2760  0.5435
53223SOL     OW66718   6.100   1.720   4.812 -0.6549 -0.0533 -0.2709
53223SOL    HW166719   6.150   1.754   4.886 -1.0107 -0.9676  0.4165
53223SOL    HW266720   6.160   1.724   4.738 -0.1622  0.5131  0.1534
53224SOL     OW66721   9.347  12.075   4.743 -0.6341  0.5634 -0.4551
53224SOL    HW166722   9.399  12.004   4.707 -0.9405  0.7281 -1.2328
53224SOL    HW266723   9.297  12.035   4.814 -1.2202 -0.1278 -1.2453
53225SOL     OW66724  10.301  11.553  10.519 -0.0952 -0.1111  0.5286
53225SOL    HW166725  10.306  11.528  10.611  1.8710  1.4036  0.9031
53225SOL    HW266726  10.254  11.636  10.519 -1.1918 -0.7191  0.0042
53226SOL     OW66727  12.591   5.331   2.447  0.1647 -0.1715  0.2494
53226SOL    HW166728  12.634   5.376   2.374 -1.8978  1.1103 -0.2577
53226SOL    HW266729  12.617   5.239   2.436  1.5938  0.3182 -0.8287
53227SOL     OW66730  10.371   9.857   0.898  0.5154 -0.2642  0.4551
53227SOL    HW166731  10.276   9.867   0.907  0.4657  0.3202 -0.5262
53227SOL    HW266732  10.397   9.932   0.844  1.3379 -1.1352 -0.3914
53228SOL     OW66733   3.010   9.333   1.423 -0.0661  0.0008 -0.0103
53228SOL    HW166734   3.104   9.321   1.434  0.1033  1.4115  0.2954
53228SOL    HW266735   2.994   9.319   1.330  0.8595  2.0731 -0.5329
53229SOL     OW66736   9.511  11.596   4.411 -0.3612 -0.0519  0.3486
53229SOL    HW166737   9.472  11.535   4.349 -1.2670  2.7924 -2.1296
53229SOL    HW266738   9.555  11.661   4.356 -0.9460  2.4773  2.6433
53230SOL     OW66739   4.325   6.513   4.289 -0.1744  0.1960  0.1245
53230SOL    HW166740   4.343   6.424   4.259  1.2976  0.6562 -0.4605
53230SOL    HW266741   4.365   6.518   4.375  0.0276  0.3787  0.0215
53231SOL     OW66742   6.242   3.970  10.624 -0.4738  0.4107 -0.3808
53231SOL    HW166743   6.162   3.926  10.596  1.1334 -1.0417 -3.2075
53231SOL    HW266744   6.258   4.035  10.554  1.7269 -0.6325 -0.9259
53232SOL     OW66745  10.078  11.595   2.033 -0.0048 -0.6387 -0.1803
53232SOL    HW166746  10.154  11.586   1.974 -0.6240 -1.8389 -0.8324
53232SOL    HW266747  10.005  11.613   1.975 -0.7811 -2.6756  0.1084
53233SOL     OW66748   1.613   5.814   1.360 -0.1892 -0.4585  0.0448
53233SOL    HW166749   1.644   5.732   1.397  2.1192 -0.3156 -1.4032
53233SOL    HW266750   1.666   5.882   1.402 -3.1829  0.6135  2.4882
53234SOL     OW66751   4.299   7.613   3.778 -0.9804 -0.2542 -0.2357
53234SOL    HW166752   4.328   7.553   3.710  0.3540 -0.0229  0.0802
53234SOL    HW266753   4.205   7.600   3.785 -0.8777 -1.4836 -0.9556
53235SOL     OW66754   5.164   3.580   4.299 -0.1058  0.0487 -0.0753
53235SOL    HW166755   5.069   3.566   4.302  0.1592 -2.0847  0.0691
53235SOL    HW266756   5.182   3.634   4.376 -1.0066 -1.2278  1.1100
53236SOL     OW66757   8.108   3.721   6.011  0.4857  0.2410  0.0215
53236SOL    HW166758   8.166   3.693   5.940  1.9343 -0.8747  1.5594
53236SOL    HW266759   8.124   3.815   6.019  1.7796  0.0326  0.1277
53237SOL     OW66760  10.426   3.114   9.413  0.0098 -0.3554  0.4895
53237SOL    HW166761  10.447   3.067   9.494 -0.1131 -0.5584  0.4043
53237SOL    HW266762  10.506   3.108   9.361 -0.6175 -2.1852 -0.3421
53238SOL     OW66763   2.874   2.940   4.781 -0.0020  0.0096 -0.0645
53238SOL    HW166764   2.895   2.875   4.713 -2.2086 -2.4423  1.4373
53238SOL    HW266765   2.808   2.996   4.740 -2.0397 -2.0363  0.2311
53239SOL     OW66766   7.053   1.418   8.745 -0.3936 -0.0262 -0.5209
53239SOL    HW166767   6.993   1.376   8.807 -0.8126 -0.9240 -1.5078
53239SOL    HW266768   7.105   1.477   8.799 -2.9799  1.7731  0.2406
53240SOL     OW66769  12.111   8.741   7.591 -0.6352 -0.0286 -0.2620
53240SOL    HW166770  12.082   8.653   7.614  0.4286 -0.8997 -2.0519
53240SOL    HW266771  12.098   8.793   7.670  0.9234 -2.3206  1.6104
53241SOL     OW66772   0.703   4.940   5.381 -1.0498 -0.4338  0.0317
53241SOL    HW166773   0.633   4.967   5.322 -2.4758 -1.6175  1.1011
53241SOL    HW266774   0.763   4.890   5.326 -1.6229 -0.3241 -0.7029
53242SOL     OW66775   2.365   3.647   0.681 -0.2878  0.7914  0.3771
53242SOL    HW166776   2.375   3.661   0.587 -1.2178  0.0324  0.1465
53242SOL    HW266777   2.365   3.735   0.719 -0.6299  1.1396 -0.4144
53243SOL     OW66778  11.984   9.936  10.661  0.2076  0.0233 -0.2787
53243SOL    HW166779  11.897   9.948  10.621 -0.3309 -0.3451  0.7371
53243SOL    HW266780  11.999  10.018  10.709  1.1081  0.6997 -1.6633
53244SOL     OW66781   8.110   1.640   2.057  0.2962 -0.3918  0.5607
53244SOL    HW166782   8.073   1.609   2.140 -2.2770 -0.1322 -0.3829
53244SOL    HW266783   8.204   1.649   2.074 -0.0403 -1.0166  3.2064
53245SOL     OW66784  11.276  10.258   6.177  0.4459  0.3157 -0.1189
53245SOL    HW166785  11.267  10.244   6.271 -0.3119 -1.2431 -0.4021
53245SOL    HW266786  11.304  10.350   6.170  0.8361  0.3708  1.6206
53246SOL     OW66787   0.111   7.367   3.703 -0.5462  1.2148 -0.4663
53246SOL    HW166788   0.069   7.364   3.617  0.6061  1.0166 -1.0374
53246SOL    HW266789   0.143   7.457   3.711 -0.8648  1.2999 -0.1400
53247SOL     OW66790   2.035  11.389  10.699 -0.0384  0.0836 -0.6480
53247SOL    HW166791   1.977  11.423  10.630  0.1683  0.8483 -0.4616
53247SOL    HW266792   2.121  11.381  10.656 -0.1024 -0.2619 -0.7083
53248SOL     OW66793   0.430   7.120   3.263  0.5945 -0.1861 -0.4721
53248SOL    HW166794   0.475   7.162   3.337  1.0936 -0.5293 -0.5755
53248SOL    HW266795   0.423   7.028   3.288  0.1563 -0.1793 -0.5629
53249SOL     OW66796  10.270   5.099   7.372  0.2667 -0.5054 -0.3006
53249SOL    HW166797  10.290   5.120   7.464 -0.1746 -0.9961 -0.0885
53249SOL    HW266798  10.219   5.173   7.341  0.4633 -0.3127 -0.1691
53250SOL     OW66799   6.265   3.275   9.568  0.0299  0.2511 -0.0992
53250SOL    HW166800   6.354   3.302   9.546 -0.1392  1.8580  0.9978
53250SOL    HW266801   6.209   3.319   9.504 -0.0289 -0.2925 -0.4292
53251SOL     OW66802   4.021   6.244   7.430  0.2497  0.1094  0.1112
53251SOL    HW166803   4.114   6.263   7.418 -0.1975  1.4310 -1.7129
53251SOL    HW266804   3.981   6.330   7.444 -0.6525 -0.4884  1.3637
53252SOL     OW66805  10.707   8.649  12.588 -0.1493  0.0913 -0.0426
53252SOL    HW166806  10.737   8.700  12.663  0.0065  2.2362 -1.4729
53252SOL    HW266807  10.621   8.686  12.566  0.6872  0.9811 -2.1229
53253SOL     OW66808   8.019   9.592   5.444 -0.3611  0.3608  0.0909
53253SOL    HW166809   8.069   9.510   5.436 -0.7583  0.1340 -0.0548
53253SOL    HW266810   7.978   9.603   5.359  1.7730  2.0840 -0.8215
53254SOL     OW66811  12.457   8.325   2.180  0.1580  0.4637 -0.2204
53254SOL    HW166812  12.435   8.352   2.269 -2.1100 -0.4698 -0.4230
53254SOL    HW266813  12.520   8.390   2.149 -0.7138  2.0940  1.2785
53255SOL     OW66814   5.317   8.791   2.854 -0.0981  0.2880 -0.0555
53255SOL    HW166815   5.376   8.857   2.891 -1.1209  0.8938  0.5604
53255SOL    HW266816   5.293   8.736   2.928 -1.1568  0.7222 -0.0633
53256SOL     OW66817   6.873   1.518   2.718 -0.0194 -0.2846  0.0002
53256SOL    HW166818   6.794   1.507   2.772  0.1317 -1.9332 -0.0500
53256SOL    HW266819   6.858   1.463   2.642  1.3186 -0.9214  0.1598
53257SOL     OW66820   8.012   6.830   5.179  0.7238 -0.4029 -0.4091
53257SOL    HW166821   8.032   6.754   5.124  2.9518 -0.3162  0.1971
53257SOL    HW266822   7.932   6.805   5.225  0.0784 -1.3878 -1.9637
53258SOL     OW66823   6.122  10.034  11.493 -0.0572  0.5952 -0.2433
53258SOL    HW166824   6.032  10.048  11.523  0.0040 -0.1365  0.3114
53258SOL    HW266825   6.127  10.080  11.409 -0.9295  0.6922 -0.2493
53259SOL     OW66826   2.020   6.608  11.424 -0.4080  0.2647  0.0870
53259SOL    HW166827   2.051   6.540  11.483  0.5185  0.1086 -0.5668
53259SOL    HW266828   1.968   6.561  11.358  1.5239 -0.0659 -1.2792
53260SOL     OW66829  11.605   9.251  11.463  0.1966  0.2816 -0.3087
53260SOL    HW166830  11.682   9.303  11.439  0.8468 -2.0005 -4.0124
53260SOL    HW266831  11.637   9.161  11.467 -2.0097 -0.5737 -0.3430
53261SOL     OW66832   3.556   2.227   5.950 -0.7335 -0.5329 -0.0357
53261SOL    HW166833   3.468   2.242   5.984  0.2254 -1.1667  2.9829
53261SOL    HW266834   3.603   2.309   5.966 -0.2802 -0.8206  0.1540
53262SOL     OW66835   9.977   5.184   5.208  0.0600  0.3592 -0.2116
53262SOL    HW166836   9.970   5.239   5.286  1.2799  0.3736 -0.1084
53262SOL    HW266837   9.886   5.167   5.184 -0.3980 -1.0791  2.2033
53263SOL     OW66838   1.706   6.290   8.848 -0.0818  0.1091  0.6391
53263SOL    HW166839   1.743   6.230   8.783 -0.9623  1.1938 -0.9025
53263SOL    HW266840   1.782   6.324   8.895  0.4459 -2.2675  1.6782
53264SOL     OW66841   3.846  11.061   5.847 -0.0947  0.0931  0.1978
53264SOL    HW166842   3.819  11.151   5.832  0.6863 -0.0239 -2.4383
53264SOL    HW266843   3.768  11.009   5.830 -0.3320  0.2094  0.9070
53265SOL     OW66844   8.115  11.637   5.549 -0.0965  0.7918  0.2963
53265SOL    HW166845   8.086  11.659   5.460  0.1858  0.6309  0.1636
53265SOL    HW266846   8.133  11.722   5.589  0.8062  0.8291 -0.1562
53266SOL     OW66847   8.991   1.493   2.587  0.1546 -0.1411 -0.7283
53266SOL    HW166848   8.907   1.539   2.582  1.0348  1.5693 -0.7072
53266SOL    HW266849   9.014   1.474   2.496  0.8159  1.5148 -0.9410
53267SOL     OW66850   1.255   6.199   2.215 -0.1987 -0.1689  0.4524
53267SOL    HW166851   1.243   6.104   2.215  1.1763 -0.3713 -0.7751
53267SOL    HW266852   1.182   6.231   2.268 -0.8494 -1.8784  0.6869
53268SOL     OW66853  11.216   5.294  11.656  0.1766 -0.4586  0.3762
53268SOL    HW166854  11.241   5.223  11.715 -1.0693 -0.1557  1.3006
53268SOL    HW266855  11.217   5.253  11.569 -0.4872 -1.6192  0.8911
53269SOL     OW66856   8.441   5.276   8.369  0.4311 -0.1812  0.1970
53269SOL    HW166857   8.440   5.352   8.427  2.3701  0.1796 -0.1442
53269SOL    HW266858   8.484   5.208   8.420  0.9026 -0.2749 -0.3047
53270SOL     OW66859   2.556  11.694   2.555  0.0595 -0.1343 -0.3576
53270SOL    HW166860   2.466  11.677   2.527 -0.0396 -1.2222  0.5610
53270SOL    HW266861   2.567  11.640   2.634  1.6512 -0.3397 -0.7028
53271SOL     OW66862  11.185   3.435  12.511 -0.5976  0.0224  0.2314
53271SOL    HW166863  11.224   3.403  12.592 -1.8840  0.4674  1.0632
53271SOL    HW266864  11.094   3.403  12.514 -0.3417 -1.0955 -1.6844
53272SOL     OW66865   9.583   9.540  10.037 -0.8048  0.4320  0.0178
53272SOL    HW166866   9.578   9.503   9.949 -0.2101 -2.5815  1.1346
53272SOL    HW266867   9.671   9.577  10.043 -0.3250 -0.6510 -0.2010
53273SOL     OW66868  10.241   4.481   4.173  0.1490 -0.2226  0.4307
53273SOL    HW166869  10.307   4.421   4.207  0.3968 -0.4760 -0.4723
53273SOL    HW266870  10.286   4.564   4.161 -0.0717  0.0159  1.2110
53274SOL     OW66871   9.235  11.623   1.151  0.7238 -0.3220  0.3763
53274SOL    HW166872   9.161  11.569   1.124  0.6992  1.2852 -3.3900
53274SOL    HW266873   9.312  11.572   1.126  0.7384  0.3960 -1.1044
53275SOL     OW66874   7.988  11.672  10.393  0.4499 -0.6726 -0.5405
53275SOL    HW166875   8.035  11.655  10.312  1.5352 -0.7659  0.0881
53275SOL    HW266876   8.051  11.718  10.448 -0.0917 -1.0857  0.4442
53276SOL     OW66877   8.313  10.696   5.487 -0.4347  0.2252  0.5074
53276SOL    HW166878   8.345  10.662   5.570  1.6249  0.8072 -0.0109
53276SOL    HW266879   8.218  10.680   5.490 -0.2287 -0.9383  2.3903
53277SOL     OW66880  11.461  11.424   7.017  0.0794  0.6803 -0.3017
53277SOL    HW166881  11.427  11.377   6.940  0.0330  0.5960 -0.2284
53277SOL    HW266882  11.556  11.420   7.008  0.0763  0.5329 -0.2711
53278SOL     OW66883   2.644  11.495   0.569  0.0528  0.4275  0.5226
53278SOL    HW166884   2.612  11.584   0.586  0.5902  0.5357  1.0030
53278SOL    HW266885   2.672  11.498   0.477 -0.2770  0.6454  0.4251
53279SOL     OW66886   9.006   9.124   8.603  0.1270 -0.5744  0.1349
53279SOL    HW166887   8.939   9.187   8.573 -0.4364 -1.1485  0.1643
53279SOL    HW266888   9.056   9.103   8.524  1.2210  0.9469  0.3706
53280SOL     OW66889   9.266  11.367   7.574  0.3419  0.0762  0.6286
53280SOL    HW166890   9.314  11.445   7.545  0.6627 -0.6749 -0.9636
53280SOL    HW266891   9.326  11.324   7.636  0.6518  0.4790  0.6103
53281SOL     OW66892   9.725   6.225   5.606 -0.2207  0.6419 -0.0518
53281SOL    HW166893   9.767   6.226   5.520 -1.1336 -1.3258 -0.5997
53281SOL    HW266894   9.633   6.206   5.586 -0.4425  0.1716  1.3510
53282SOL     OW66895   0.282   6.714   3.187 -0.0138  0.6666 -0.5328
53282SOL    HW166896   0.303   6.690   3.278  5.0369  1.8033 -1.1114
53282SOL    HW266897   0.270   6.630   3.142  0.6916 -0.0666  0.5876
53283SOL     OW66898   2.909   8.654   4.912  0.0672  0.0981  0.7050
53283SOL    HW166899   2.835   8.623   4.859  0.1347  1.4835 -0.2575
53283SOL    HW266900   2.981   8.664   4.850  1.3430 -1.9666  1.7648
53284SOL     OW66901   6.464  12.525   3.871 -0.3551 -0.0284 -0.4061
53284SOL    HW166902   6.434  12.437   3.891  0.9923 -0.4000  0.1504
53284SOL    HW266903   6.456  12.573   3.953  0.0442  0.0102 -0.3840
53285SOL     OW66904  11.823   4.448   9.737 -0.5459  0.1617 -0.0418
53285SOL    HW166905  11.765   4.407   9.674  0.6239 -0.9968 -0.4139
53285SOL    HW266906  11.806   4.403   9.819  1.8026 -2.3186 -0.7605
53286SOL     OW66907   7.570   0.267   9.314  0.6606 -0.1489 -0.4568
53286SOL    HW166908   7.620   0.235   9.238 -0.1313 -0.4818 -0.8505
53286SOL    HW266909   7.481   0.236   9.298  0.7103 -1.2462  1.2055
53287SOL     OW66910   9.102   1.425   2.836 -0.5516  0.4676  0.4411
53287SOL    HW166911   9.056   1.455   2.758 -1.6993 -0.2153  0.8332
53287SOL    HW266912   9.155   1.352   2.807 -1.6924 -0.3897  0.4571
53288SOL     OW66913   1.418  11.127   6.255  0.1061  0.3668 -0.3344
53288SOL    HW166914   1.442  11.074   6.331 -0.1706 -0.0442 -0.5344
53288SOL    HW266915   1.474  11.205   6.262  0.2801  0.2026  0.1358
53289SOL     OW66916   4.593   2.626   6.239  0.9197 -0.1491  0.1394
53289SOL    HW166917   4.661   2.624   6.307  0.3534  0.3107  0.7364
53289SOL    HW266918   4.510   2.625   6.288  0.5020  1.0678 -0.5018
53290SOL     OW66919   1.728   6.629   7.724  0.1110 -0.1763  0.2652
53290SOL    HW166920   1.757   6.562   7.661  1.0195 -1.4500  1.9450
53290SOL    HW266921   1.635   6.613   7.735  0.2746 -1.0347  0.4719
53291SOL     OW66922   9.732   4.560  10.124 -0.5442  0.3508  0.2937
53291SOL    HW166923   9.802   4.535  10.185 -0.2450 -0.1781 -0.2528
53291SOL    HW266924   9.659   4.584  10.180  0.1194  1.0578  0.8844
53292SOL     OW66925   0.923  11.674   2.291 -0.2476 -0.6160 -0.1402
53292SOL    HW166926   0.983  11.601   2.278 -1.7056 -1.6797 -1.1973
53292SOL    HW266927   0.875  11.652   2.371  0.7887  0.2661  0.7424
53293SOL     OW66928   8.240   0.252   9.614  0.1563 -0.2311 -0.3652
53293SOL    HW166929   8.169   0.189   9.627 -0.3228  0.5392  0.9007
53293SOL    HW266930   8.257   0.287   9.701  1.6195  0.1184 -0.7661
53294SOL     OW66931  10.861  10.625   8.938 -0.1453  0.0023  0.6081
53294SOL    HW166932  10.850  10.681   8.861  0.1382 -1.5969 -0.6560
53294SOL    HW266933  10.912  10.678   8.999  0.7865  0.8697 -0.8605
53295SOL     OW66934  10.042   7.671   5.076  0.4758  0.2754 -0.4974
53295SOL    HW166935  10.032   7.578   5.095 -3.1059  0.6713  0.3183
53295SOL    HW266936  10.118   7.676   5.018  1.0823 -3.0697 -0.1759
53296SOL     OW66937   8.823   5.026   3.671 -0.1876 -0.0690  0.0320
53296SOL    HW166938   8.916   5.026   3.696 -0.1633  0.7272 -0.0508
53296SOL    HW266939   8.780   5.079   3.738 -0.0189  2.7121 -1.9074
53297SOL     OW66940   2.524   2.670   8.127  0.5803 -0.0972 -0.1199
53297SOL    HW166941   2.464   2.602   8.098  0.6259 -0.4908  0.6964
53297SOL    HW266942   2.608   2.626   8.136  0.1073 -0.5671  2.8160
53298SOL     OW66943  12.346   1.218   0.993 -0.7042 -0.0059  0.4284
53298SOL    HW166944  12.309   1.136   0.961 -1.7166 -0.0748  1.7435
53298SOL    HW266945  12.365   1.268   0.913 -1.2029 -1.0173 -0.3417
53299SOL     OW66946   0.629   3.833   7.412 -0.5976 -0.3673 -1.0645
53299SOL    HW166947   0.577   3.796   7.483 -0.4915  0.4051 -0.5737
53299SOL    HW266948   0.565   3.872   7.353 -0.5856  1.0582 -0.1911
53300SOL     OW66949   3.000   1.276   7.998  0.1055 -0.5803 -0.0615
53300SOL    HW166950   3.084   1.253   8.038 -1.0943 -1.1265  2.2957
53300SOL    HW266951   2.995   1.221   7.920  0.9055 -2.3406  1.0709
53301SOL     OW66952   8.880   4.792  11.358  0.1890  0.4907  0.2959
53301SOL    HW166953   8.879   4.756  11.447  1.7865 -0.6599 -0.1104
53301SOL    HW266954   8.898   4.717  11.301  0.0459  1.3439 -0.9247
53302SOL     OW66955   7.260   0.375   1.481  0.1403 -0.2385 -0.1472
53302SOL    HW166956   7.219   0.289   1.476 -1.1353  0.3341  0.1908
53302SOL    HW266957   7.254   0.411   1.392  2.7149 -1.3671 -0.8667
53303SOL     OW66958  12.140   0.405  11.180 -0.5087  0.6970  0.4783
53303SOL    HW166959  12.069   0.430  11.120  1.1559  2.7704 -0.7705
53303SOL    HW266960  12.220   0.423  11.131  0.9445 -1.1938  1.9772
53304SOL     OW66961  10.206  12.167   3.332 -0.1023  0.3012 -0.0709
53304SOL    HW166962  10.222  12.219   3.253  0.4709  0.3680  0.0860
53304SOL    HW266963  10.280  12.107   3.337  0.3551  0.9168  0.9155
53305SOL     OW66964   6.782  12.339  10.063 -0.3730 -0.5294  0.3731
53305SOL    HW166965   6.851  12.400  10.086  0.5015 -1.2174 -0.3476
53305SOL    HW266966   6.717  12.392  10.017  0.1532 -0.0515  0.1718
53306SOL     OW66967   7.837  10.529  10.497  0.0923  0.2634  0.1457
53306SOL    HW166968   7.836  10.443  10.540 -0.2694  0.7108  1.0668
53306SOL    HW266969   7.906  10.577  10.541  0.7048  0.2567 -0.7812
53307SOL     OW66970   9.105   2.874   6.297  0.0491 -0.0093 -0.3044
53307SOL    HW166971   9.118   2.956   6.345  0.7019 -0.1147 -0.3008
53307SOL    HW266972   9.026   2.889   6.245  0.2585  0.6770 -0.4263
53308SOL     OW66973   5.920   1.855   5.995  0.4565 -0.3467  0.1759
53308SOL    HW166974   5.852   1.922   5.985 -0.4164 -1.1813  0.4083
53308SOL    HW266975   5.953   1.840   5.906  1.3775  1.0922  0.2358
53309SOL     OW66976   6.669  11.968   5.828 -0.9523  0.5122  0.1617
53309SOL    HW166977   6.638  12.012   5.907  1.1432  0.3594  1.1453
53309SOL    HW266978   6.764  11.965   5.838 -0.6694 -0.1146 -2.0725
53310SOL     OW66979  12.439   1.339   8.114  0.1101 -0.6209  0.0766
53310SOL    HW166980  12.442   1.326   8.019  0.7781 -0.6122  0.0905
53310SOL    HW266981  12.503   1.408   8.131 -1.5879  0.9654  0.3002
53311SOL     OW66982   6.916   3.487   5.895 -0.6628 -0.1139  0.4169
53311SOL    HW166983   6.934   3.576   5.864 -2.6481  0.2065  0.0677
53311SOL    HW266984   6.834   3.463   5.852 -0.1531 -2.1472  0.4782
53312SOL     OW66985   2.643   3.129   9.116 -0.7051  0.1702 -0.7350
53312SOL    HW166986   2.738   3.126   9.116 -0.6935  0.1668 -1.8377
53312SOL    HW266987   2.619   3.146   9.025 -1.7386  0.9728 -0.3328
53313SOL     OW66988  10.811  12.559  11.689  0.0797 -0.3416 -0.1863
53313SOL    HW166989  10.757  12.624  11.644 -1.0749 -0.5488  0.8465
53313SOL    HW266990  10.867  12.522  11.621  0.0003  0.9647 -0.9935
53314SOL     OW66991  11.865   5.297  10.459  0.2073  0.6740  0.5438
53314SOL    HW166992  11.925   5.367  10.483  0.4064  0.2827  1.2203
53314SOL    HW266993  11.796   5.340  10.409  0.8675  1.1837  0.0509
53315SOL     OW66994   1.979   8.779   6.699  0.3332  0.0593 -0.4413
53315SOL    HW166995   2.026   8.698   6.717  0.3047  0.3981  1.3155
53315SOL    HW266996   1.889   8.750   6.679  0.7399 -0.4365 -1.6563
53316SOL     OW66997   3.657   3.324   8.550  0.0974 -0.4861 -0.3247
53316SOL    HW166998   3.619   3.241   8.519 -2.3468  0.3029  0.3872
53316SOL    HW266999   3.665   3.313   8.645 -3.2886  1.1099  0.2845
53317SOL     OW67000   0.208   4.758   7.546 -0.6837 -0.1369 -0.4976
53317SOL    HW167001   0.288   4.737   7.593 -0.9153  0.6494  0.2729
53317SOL    HW267002   0.227   4.841   7.502 -0.8179 -0.3461 -0.9663
53318SOL     OW67003   6.135   4.449  10.262  0.1264 -0.4299  0.2328
53318SOL    HW167004   6.112   4.541  10.276  0.3788 -0.3950  0.4314
53318SOL    HW267005   6.102   4.429  10.175  1.1454  0.2057 -0.3188
53319SOL     OW67006   7.303   7.224   9.685 -0.0084  0.6723  0.5650
53319SOL    HW167007   7.315   7.291   9.618  0.1328 -0.7662 -0.9199
53319SOL    HW267008   7.318   7.141   9.639 -2.6590 -0.5468  1.7178
53320SOL     OW67009   4.000   7.600   8.957 -0.0364 -0.1089  0.0956
53320SOL    HW167010   3.920   7.645   8.929 -1.0077 -0.9511  1.4204
53320SOL    HW267011   4.068   7.634   8.899 -0.7563  2.8445  0.8110
53321SOL     OW67012  11.848  11.379   2.192 -0.1219 -0.4851 -0.1166
53321SOL    HW167013  11.869  11.378   2.099  0.6183 -0.7144  0.0442
53321SOL    HW267014  11.917  11.326   2.233 -0.5195 -0.5107  0.5438
53322SOL     OW67015   0.017   1.474  11.586 -0.3693  0.2667 -0.6104
53322SOL    HW167016   0.003   1.565  11.561  0.6988  1.3843  2.3270
53322SOL    HW267017   0.110   1.471  11.611  0.1192 -2.1594 -2.4336
53323SOL     OW67018  11.779   8.168  12.319  0.0793  0.4286  0.2563
53323SOL    HW167019  11.694   8.173  12.275 -0.3680  0.5873  1.1215
53323SOL    HW267020  11.758   8.155  12.411  1.0179 -0.9263  0.3000
53324SOL     OW67021   3.510   5.190   2.205 -0.7718  0.4370  0.1117
53324SOL    HW167022   3.562   5.266   2.178 -1.6234  0.9789 -0.0533
53324SOL    HW267023   3.453   5.223   2.275  0.1101 -0.5087  1.3243
53325SOL     OW67024   7.178   5.793   5.547 -0.3405  0.1529 -0.6493
53325SOL    HW167025   7.264   5.753   5.561 -0.3950  0.9111  2.7708
53325SOL    HW267026   7.198   5.882   5.517  0.0749  0.2106 -0.2148
53326SOL     OW67027   2.090   1.466   7.219 -0.0063  0.0128  0.3992
53326SOL    HW167028   2.172   1.437   7.180 -0.5844 -2.0215  0.6196
53326SOL    HW267029   2.024   1.404   7.188 -1.3206  1.0620  0.9564
53327SOL     OW67030   9.166   6.667   8.184  0.6909  0.2675 -0.6963
53327SOL    HW167031   9.191   6.607   8.114  1.5217 -0.2883  0.0581
53327SOL    HW267032   9.076   6.643   8.206  1.6713 -2.2340  1.0750
53328SOL     OW67033   7.581   3.422  10.411 -0.3662  0.2902  0.1543
53328SOL    HW167034   7.634   3.400  10.335  0.3309  1.4408  0.2800
53328SOL    HW267035   7.591   3.349  10.471 -0.8575 -0.5935 -0.8085
53329SOL     OW67036   8.523   8.909  12.492  0.5438  0.4881 -0.4674
53329SOL    HW167037   8.469   8.917  12.413  0.5741  0.1865 -0.5176
53329SOL    HW267038   8.462   8.930  12.564  0.8156  2.0406 -0.6382
53330SOL     OW67039  10.667   3.446   7.939  0.3418  0.1571 -0.0090
53330SOL    HW167040  10.589   3.442   7.884 -0.3269 -3.0817  0.9309
53330SOL    HW267041  10.728   3.383   7.900  0.5651 -0.8499  1.8193
53331SOL     OW67042  10.477   6.752   0.148  0.1269  0.0875  0.1382
53331SOL    HW167043  10.533   6.730   0.074 -0.6869 -0.7298 -0.2499
53331SOL    HW267044  10.510   6.836   0.179  0.0424  0.7837 -1.5855
53332SOL     OW67045   4.122   8.562   5.938 -0.4351  0.0959  0.0809
53332SOL    HW167046   4.057   8.594   6.001 -0.5960  1.1277 -0.5957
53332SOL    HW267047   4.086   8.479   5.908 -2.5060  1.5485 -1.7655
53333SOL     OW67048   6.289  12.224   6.050 -0.4487 -0.2447 -0.1306
53333SOL    HW167049   6.296  12.218   6.145  1.4205  1.2297 -0.1299
53333SOL    HW267050   6.201  12.260   6.036 -0.9181 -0.8769  0.9857
53334SOL     OW67051   8.001   6.801   5.923 -0.4198 -0.6699  0.3251
53334SOL    HW167052   8.017   6.785   5.830 -0.3200  1.4711 -0.0649
53334SOL    HW267053   8.086   6.825   5.959 -0.4796 -1.3580  0.9789
53335SOL     OW67054   4.909   7.480  10.327  0.0020 -0.2014 -0.2978
53335SOL    HW167055   4.989   7.519  10.364 -1.2711 -0.0516  2.5615
53335SOL    HW267056   4.844   7.488  10.397 -2.4910 -0.5480 -2.4157
53336SOL     OW67057   4.817   0.667   0.559 -0.2430 -0.4171 -0.1055
53336SOL    HW167058   4.787   0.602   0.496  0.4683  0.2957 -1.2004
53336SOL    HW267059   4.892   0.626   0.602 -0.4075 -0.6980 -0.0800
53337SOL     OW67060   6.476   0.529   1.370 -0.4081  0.2027  0.0415
53337SOL    HW167061   6.453   0.618   1.347 -0.1984 -0.1973 -1.8577
53337SOL    HW267062   6.540   0.538   1.441  0.2549  1.5893 -0.7000
53338SOL     OW67063   9.549  12.313   5.340  0.1543  0.3507  0.3356
53338SOL    HW167064   9.606  12.236   5.349 -1.8939 -1.3746 -0.7412
53338SOL    HW267065   9.524  12.334   5.430  0.1152 -0.7727  0.6071
53339SOL     OW67066   7.441   4.849   5.149 -0.1748  0.1523 -0.2234
53339SOL    HW167067   7.475   4.927   5.192 -1.6122  0.5320  0.2735
53339SOL    HW267068   7.444   4.870   5.055 -0.3767  0.7448 -0.1013
53340SOL     OW67069   3.320   8.899  11.272  0.2872  0.1319 -0.1393
53340SOL    HW167070   3.249   8.907  11.208  0.4910 -0.8884 -0.5180
53340SOL    HW267071   3.334   8.988  11.303 -0.1351  0.5846 -1.1745
53341SOL     OW67072   3.374   7.220  12.027  0.5499 -0.4280 -0.0275
53341SOL    HW167073   3.318   7.295  12.010 -0.9917 -1.5620 -0.1807
53341SOL    HW267074   3.399   7.188  11.940  0.2176 -0.7897  0.0072
53342SOL     OW67075   8.043   5.015   3.333  0.1551  0.0254 -0.1277
53342SOL    HW167076   7.951   4.987   3.330 -0.2185  0.8266  2.0022
53342SOL    HW267077   8.086   4.949   3.388  0.8298 -0.2375 -0.9588
53343SOL     OW67078  10.288   8.899   6.551  0.1768  0.0232 -0.7663
53343SOL    HW167079  10.257   8.824   6.501 -0.3990 -1.3513  1.4790
53343SOL    HW267080  10.216   8.920   6.611  1.7753 -0.2960  1.4257
53344SOL     OW67081   6.645   2.003   3.784 -0.9133 -0.6285  0.0432
53344SOL    HW167082   6.579   1.933   3.794 -0.3104 -1.0279  1.4787
53344SOL    HW267083   6.729   1.959   3.798 -0.5729  0.5252  2.0078
53345SOL     OW67084   8.413  10.991  11.745 -0.2316  0.2394 -0.7441
53345SOL    HW167085   8.493  10.993  11.796 -0.1262  1.6877 -0.9155
53345SOL    HW267086   8.402  10.900  11.719  1.3226  0.0169 -0.6640
53346SOL     OW67087   9.467   6.703   7.087  0.1482  0.3187  0.1777
53346SOL    HW167088   9.418   6.777   7.124 -0.3911  0.1862 -0.2493
53346SOL    HW267089   9.445   6.705   6.994 -0.4412 -0.8107  0.2789
53347SOL     OW67090   0.037  12.202   7.615  0.1608 -0.1674 -0.0776
53347SOL    HW167091  -0.041  12.258   7.623  0.8162  0.5806  1.4462
53347SOL    HW267092   0.079  12.207   7.701  0.9843 -1.9334 -0.3438
53348SOL     OW67093  11.267   4.669   6.629  1.0358 -0.2892 -0.4741
53348SOL    HW167094  11.323   4.746   6.638  0.4995  0.1337 -0.6827
53348SOL    HW267095  11.256   4.637   6.719  1.5199 -0.3120 -0.4210
53349SOL     OW67096   0.349   7.014  11.900  0.1973 -0.1330  0.3149
53349SOL    HW167097   0.390   6.934  11.933 -0.5133 -0.7718 -0.3007
53349SOL    HW267098   0.316   6.990  11.814 -1.2663  0.4063  0.6868
53350SOL     OW67099   1.314   0.523   8.943 -0.4518  0.4321  0.0837
53350SOL    HW167100   1.375   0.517   8.870  0.8893 -1.0441  1.2604
53350SOL    HW267101   1.238   0.571   8.908  0.6853  0.8773 -1.8698
53351SOL     OW67102   0.896   0.272   9.079 -0.1711 -0.5509 -0.1921
53351SOL    HW167103   0.907   0.196   9.022  0.3202  0.4076 -1.4074
53351SOL    HW267104   0.872   0.235   9.164 -0.3319 -2.0394 -0.8617
53352SOL     OW67105   0.958   8.509   7.980  0.6963  0.2725 -0.5412
53352SOL    HW167106   0.945   8.586   8.035  1.2875  0.0509 -0.0840
53352SOL    HW267107   0.924   8.436   8.032 -0.4803  0.2848 -1.2359
53353SOL     OW67108   3.380   9.930   4.721  0.1947 -0.2362 -0.4845
53353SOL    HW167109   3.456   9.928   4.780 -0.3558 -0.5449  0.2304
53353SOL    HW267110   3.351  10.021   4.723 -0.3290 -0.4056  0.4041
53354SOL     OW67111   7.049   7.052   5.563 -0.1026 -0.1922  0.1253
53354SOL    HW167112   6.978   7.006   5.608  0.6750  0.3751  2.0644
53354SOL    HW267113   7.007   7.130   5.525 -0.6730 -0.2964  0.5346
53355SOL     OW67114   2.818   8.597   3.815  0.8608  0.1325 -0.3061
53355SOL    HW167115   2.727   8.567   3.806  1.0092 -0.5195  0.2513
53355SOL    HW267116   2.812   8.676   3.868  0.5766  0.4021 -0.7267
53356SOL     OW67117   5.862   0.820   6.570 -0.9135 -0.2918  0.0201
53356SOL    HW167118   5.769   0.798   6.579 -0.7595 -0.5742  1.0741
53356SOL    HW267119   5.907   0.754   6.622 -0.0274 -0.8222 -1.3992
53357SOL     OW67120  11.964  12.365   3.581  0.6925 -0.3905 -0.0805
53357SOL    HW167121  11.939  12.433   3.517  2.0360 -1.7691 -2.2092
53357SOL    HW267122  11.937  12.400   3.665  2.3499  3.3280 -0.9002
53358SOL     OW67123   1.132   3.483   2.169  0.5439  0.6767 -0.2352
53358SOL    HW167124   1.158   3.541   2.098 -1.7745  1.8181 -0.2594
53358SOL    HW267125   1.099   3.541   2.237 -0.7634 -0.5372  0.2247
53359SOL     OW67126   0.355   4.772   0.495  0.1612 -0.2568  0.0238
53359SOL    HW167127   0.348   4.839   0.427 -2.2441 -1.1820 -0.7270
53359SOL    HW267128   0.300   4.700   0.464  1.7397 -2.1296  1.3608
53360SOL     OW67129  11.678  10.865  11.387  0.4119 -0.3951  0.5235
53360SOL    HW167130  11.665  10.893  11.477 -0.0932 -0.9967  0.6483
53360SOL    HW267131  11.749  10.801  11.392  0.0359 -0.8189  0.5838
53361SOL     OW67132  11.354  12.297  11.885 -0.3136 -0.4726 -0.2402
53361SOL    HW167133  11.449  12.310  11.876 -0.6577  1.6097 -1.5005
53361SOL    HW267134  11.344  12.258  11.972  1.5813  0.8270  0.6453
53362SOL     OW67135   8.463   0.591   5.441  0.0272 -0.2074 -0.1960
53362SOL    HW167136   8.405   0.654   5.483 -0.0603 -1.1932  1.1943
53362SOL    HW267137   8.479   0.524   5.507  0.3546 -1.5069 -1.5400
53363SOL     OW67138   7.807  12.088   4.857  0.6604  0.8634 -0.2176
53363SOL    HW167139   7.887  12.085   4.909 -1.0057  0.8756  2.5284
53363SOL    HW267140   7.737  12.076   4.920 -1.5313  0.5274 -2.5627
53364SOL     OW67141   4.036  11.976  10.463 -0.0800 -0.2653  0.1550
53364SOL    HW167142   4.063  11.896  10.507 -0.4834 -0.2391  0.4637
53364SOL    HW267143   4.091  11.982  10.385 -0.2384 -0.9840 -0.0161
53365SOL     OW67144   5.218   9.024  12.553 -0.6402  0.9923 -0.5802
53365SOL    HW167145   5.192   9.097  12.496 -1.3339  0.4122 -1.0220
53365SOL    HW267146   5.191   8.945  12.505 -1.1528  0.4846  0.5087
53366SOL     OW67147  11.483   4.795  11.709  0.2225 -0.0619 -0.1860
53366SOL    HW167148  11.527   4.866  11.756 -0.6582  0.1215  0.3740
53366SOL    HW267149  11.498   4.718  11.762 -0.1136 -0.0020 -0.0020
53367SOL     OW67150   2.849   4.123   9.081  0.6063 -0.1788  0.1366
53367SOL    HW167151   2.835   4.028   9.079 -1.9375  0.1171 -1.2100
53367SOL    HW267152   2.830   4.148   9.171  2.7692 -1.0647  0.8889
53368SOL     OW67153   7.831   9.288   7.342  0.3377  0.6656 -0.0712
53368SOL    HW167154   7.767   9.358   7.341 -1.1411 -0.6045  0.5998
53368SOL    HW267155   7.897   9.317   7.405 -0.2020  1.4896  0.1355
53369SOL     OW67156  10.192   3.872  11.041  0.1270  0.1673 -0.1320
53369SOL    HW167157  10.177   3.966  11.048 -1.3826 -0.0246 -0.4012
53369SOL    HW267158  10.212   3.858  10.948 -1.2796  0.0457 -0.4421
53370SOL     OW67159   5.529   6.271   1.706  0.2492  0.1090 -0.0688
53370SOL    HW167160   5.486   6.199   1.753  0.2896  0.2759  0.2233
53370SOL    HW267161   5.468   6.343   1.711  0.1319  0.0397 -0.5213
53371SOL     OW67162  10.428   3.636  10.928  0.2447 -0.7122 -0.0039
53371SOL    HW167163  10.356   3.599  10.979  0.4365 -2.1365 -0.7256
53371SOL    HW267164  10.441   3.723  10.965 -0.8825 -0.9841  1.0971
53372SOL     OW67165   0.056   4.466   0.730  0.0835  0.5211 -0.0529
53372SOL    HW167166   0.064   4.552   0.770 -1.3074  0.7794 -0.2803
53372SOL    HW267167   0.007   4.482   0.649 -0.7919 -0.5585  0.2400
53373SOL     OW67168   2.772  10.142   4.890  0.4442 -0.0514  0.1515
53373SOL    HW167169   2.853  10.092   4.881  1.1476  1.2262 -0.9527
53373SOL    HW267170   2.801  10.233   4.901 -0.8366  0.4131 -0.1629
53374SOL     OW67171   3.100   1.508   5.569  0.1987  0.4702  0.1269
53374SOL    HW167172   3.022   1.456   5.550  0.0466 -0.1115  2.1469
53374SOL    HW267173   3.155   1.451   5.622  1.0037  1.6501  0.6115
53375SOL     OW67174   6.880   7.361   1.445 -0.2879  0.0112 -0.0700
53375SOL    HW167175   6.919   7.433   1.396 -0.4827  0.1699  0.0076
53375SOL    HW267176   6.894   7.284   1.390  0.0796  0.0788 -0.0718
53376SOL     OW67177   9.561   0.658   4.112 -0.1296  0.0714 -0.0116
53376SOL    HW167178   9.630   0.657   4.179  0.8960  2.6299 -0.8901
53376SOL    HW267179   9.511   0.738   4.131 -2.8554 -1.6560  0.5274
53377SOL     OW67180   0.251   7.233   2.756  0.0043 -0.2226  0.5129
53377SOL    HW167181   0.278   7.195   2.839 -1.3736 -0.2078  0.9881
53377SOL    HW267182   0.156   7.228   2.757 -0.0413 -0.1524 -1.0396
53378SOL     OW67183   7.127   5.663  10.938 -0.6564  0.0288  0.3010
53378SOL    HW167184   7.173   5.734  10.984  0.3013 -0.1455 -0.3663
53378SOL    HW267185   7.157   5.583  10.980  0.1642 -0.1269 -0.5423
53379SOL     OW67186  10.889   6.021   6.421 -0.0923 -0.8621  0.6572
53379SOL    HW167187  10.970   5.983   6.455  1.2589  1.5665  0.4432
53379SOL    HW267188  10.913   6.051   6.333  0.1890  3.5404  1.9947
53380SOL     OW67189  11.975   8.810  11.421 -0.1410  0.7187  0.1537
53380SOL    HW167190  11.894   8.773  11.454 -0.0093  1.3968  1.3059
53380SOL    HW267191  12.030   8.821  11.499  1.4121 -0.5525 -0.7077
53381SOL     OW67192   4.523  10.975   7.431  0.7541  0.6131  1.0478
53381SOL    HW167193   4.492  10.899   7.480 -0.8695  0.2207 -0.5120
53381SOL    HW267194   4.610  10.950   7.401 -0.5054 -1.5284 -1.1462
53382SOL     OW67195   0.088  11.642   3.650 -0.4270 -0.2226 -0.0110
53382SOL    HW167196   0.037  11.633   3.731 -0.9275  0.3248 -0.2624
53382SOL    HW267197   0.092  11.736   3.635  2.9341  0.0089  1.4408
53383SOL     OW67198   2.613   6.653   7.206  0.3268  0.5762 -0.2529
53383SOL    HW167199   2.649   6.646   7.295  1.2595  2.1441 -0.4768
53383SOL    HW267200   2.668   6.719   7.163 -0.5469  0.3458 -1.7850
53384SOL     OW67201   6.645   9.236   0.984  0.3155 -0.5061  0.1059
53384SOL    HW167202   6.616   9.208   1.071  1.4183  1.1530  1.0732
53384SOL    HW267203   6.604   9.322   0.971  0.8610 -0.3422 -0.6316
53385SOL     OW67204  11.105   5.330   1.536  0.6392 -0.1017 -0.2889
53385SOL    HW167205  11.095   5.315   1.630 -0.2231  1.0402 -0.1739
53385SOL    HW267206  11.188   5.377   1.528  0.3057  0.5542  0.0111
53386SOL     OW67207   3.626  10.315   6.235  0.7738 -0.5113 -0.1009
53386SOL    HW167208   3.570  10.363   6.297  1.7340  1.1097 -0.4517
53386SOL    HW267209   3.564  10.278   6.171 -0.0445 -0.3828  0.5931
53387SOL     OW67210   6.124   2.973   3.485  0.2708 -0.0182  0.5624
53387SOL    HW167211   6.175   2.922   3.549  2.2099 -0.3453 -1.1175
53387SOL    HW267212   6.131   3.063   3.516  1.7516 -0.0832  0.5230
53388SOL     OW67213   3.236   3.779  11.398 -0.1622  0.8370  0.2011
53388SOL    HW167214   3.155   3.729  11.397 -0.1059  0.7473 -0.1900
53388SOL    HW267215   3.208   3.870  11.397 -0.2651  0.8181  0.8935
53389SOL     OW67216   7.026  10.984  11.787 -0.5931 -0.0665  0.2981
53389SOL    HW167217   7.073  10.985  11.703 -0.3098 -1.0892  0.4351
53389SOL    HW267218   6.953  11.045  11.774 -2.2116 -2.2095 -1.7084
53390SOL     OW67219   3.623  11.694   2.250  0.5207 -0.3102 -0.2864
53390SOL    HW167220   3.635  11.672   2.157  2.1235  0.1915 -0.2307
53390SOL    HW267221   3.540  11.741   2.253 -0.1569 -1.3767 -1.2613
53391SOL     OW67222   3.296   1.092   7.357  0.0011 -0.8220  0.1634
53391SOL    HW167223   3.216   1.110   7.407  0.1099  0.1706  0.0007
53391SOL    HW267224   3.265   1.061   7.272 -0.1913 -1.6618  0.5305
53392SOL     OW67225   4.307   5.777   1.598  0.0229  0.2576 -0.2469
53392SOL    HW167226   4.354   5.735   1.526  0.3279  0.2900 -0.0689
53392SOL    HW267227   4.266   5.704   1.645  0.2152  0.1955 -0.1758
53393SOL     OW67228   1.267   7.267  10.462 -0.1708 -0.7763  0.1011
53393SOL    HW167229   1.243   7.276  10.554 -0.3804 -0.6372  0.0347
53393SOL    HW267230   1.184   7.252  10.417 -0.1247 -0.3882 -0.1227
53394SOL     OW67231   9.504  12.530   6.730 -0.4275 -0.3552 -0.1087
53394SOL    HW167232   9.440  12.597   6.756 -2.7130 -2.1915 -0.6157
53394SOL    HW267233   9.454  12.469   6.676  1.7300 -2.0728 -0.3027
53395SOL     OW67234   6.726   4.462  12.009 -0.2507  0.1675 -0.2863
53395SOL    HW167235   6.773   4.381  11.989 -0.0913 -0.3636  1.9861
53395SOL    HW267236   6.770   4.497  12.086 -1.7594  1.2117  0.1470
53396SOL     OW67237   9.584   3.845   2.027 -0.2027 -0.7523 -0.0907
53396SOL    HW167238   9.550   3.838   1.938 -2.5045  2.4723  0.3676
53396SOL    HW267239   9.668   3.889   2.017 -1.2608  1.2513 -0.6417
53397SOL     OW67240   3.670   8.064   1.106 -0.0321 -0.2955 -0.4011
53397SOL    HW167241   3.724   8.092   1.033  0.0015  2.8458  0.6782
53397SOL    HW267242   3.583   8.053   1.069  0.4648 -1.2401 -1.3453
53398SOL     OW67243   0.271   3.417   5.412 -0.0843  0.0029 -0.1274
53398SOL    HW167244   0.286   3.486   5.477  1.0354 -0.1282 -0.2197
53398SOL    HW267245   0.296   3.336   5.458 -0.7679 -0.2759 -0.2308
53399SOL     OW67246   0.530   7.257   6.199 -0.6071  0.4676  0.1230
53399SOL    HW167247   0.578   7.301   6.269 -0.0762 -0.5185  0.4016
53399SOL    HW267248   0.486   7.328   6.151  0.1617  1.2780  0.5871
53400SOL     OW67249   0.336   8.243   9.414  0.3140 -0.4256 -0.3875
53400SOL    HW167250   0.389   8.185   9.359  0.7870 -0.1753 -0.2022
53400SOL    HW267251   0.399   8.302   9.455  0.2328 -2.0054  2.1998
53401SOL     OW67252   6.548   6.201   0.956  0.1029  0.3852 -0.4338
53401SOL    HW167253   6.544   6.240   0.869  1.5380  1.0781 -0.2167
53401SOL    HW267254   6.633   6.155   0.958 -0.6859 -1.1433 -0.0042
53402SOL     OW67255   1.064   9.464  10.258  0.1673 -0.1327 -0.2595
53402SOL    HW167256   1.042   9.552  10.289  0.6073 -0.0891 -0.0678
53402SOL    HW267257   0.979   9.419  10.252  0.0287 -0.0111  0.6186
53403SOL     OW67258  11.150   3.598   2.829  0.9599  0.5929 -0.0360
53403SOL    HW167259  11.195   3.676   2.861 -1.3034  1.2545  1.8360
53403SOL    HW267260  11.112   3.625   2.746 -0.8123  1.9962  1.1415
53404SOL     OW67261   6.614  12.030  10.272  0.4695 -0.5665  0.0546
53404SOL    HW167262   6.541  12.035  10.209  2.1089 -0.4043 -1.9458
53404SOL    HW267263   6.618  12.117  10.310  0.6991 -0.0323 -1.1486
53405SOL     OW67264   1.204   8.909  11.055 -0.1129  0.0244  0.3915
53405SOL    HW167265   1.296   8.916  11.027 -0.5045 -0.5416 -1.1063
53405SOL    HW267266   1.199   8.824  11.099 -0.2834 -0.7474 -1.0706
53406SOL     OW67267   2.394   1.193   3.824 -0.7539  0.4185 -0.3459
53406SOL    HW167268   2.389   1.249   3.901  1.6421  1.9482 -1.1966
53406SOL    HW267269   2.409   1.105   3.860  1.2927  1.2369  0.9725
53407SOL     OW67270   5.977   6.538   4.846  0.5742 -0.0427  0.2183
53407SOL    HW167271   6.048   6.503   4.792 -0.8214 -1.9212 -0.5321
53407SOL    HW267272   5.988   6.494   4.931 -0.1562 -1.0266 -0.1748
53408SOL     OW67273   7.063   5.978   2.663 -0.2281  0.1701  0.0200
53408SOL    HW167274   7.074   6.072   2.673 -3.0621  0.4715  1.0965
53408SOL    HW267275   7.010   5.968   2.584  1.0670 -0.6536 -0.7872
53409SOL     OW67276  12.114   0.112  10.137  0.2986  0.1893  0.0679
53409SOL    HW167277  12.154   0.168  10.070 -0.4363  0.2917 -0.3015
53409SOL    HW267278  12.140   0.023  10.113 -0.0008  0.2191 -0.3981
53410SOL     OW67279   8.585   5.947   4.933  0.3623  0.1514  0.0877
53410SOL    HW167280   8.575   5.977   5.023  1.4540 -0.2764  0.3690
53410SOL    HW267281   8.516   5.993   4.884 -0.4490  0.1450  1.1837
53411SOL     OW67282   4.061   5.580   8.585 -0.4607  0.5069 -0.1028
53411SOL    HW167283   4.105   5.496   8.601 -1.9370 -0.2959 -0.0520
53411SOL    HW267284   3.970   5.556   8.569 -0.9297  2.1225  0.0087
53412SOL     OW67285   0.897   0.807   5.880  0.0073  0.3777 -0.6432
53412SOL    HW167286   0.823   0.771   5.929  0.2081 -0.8258 -1.1723
53412SOL    HW267287   0.881   0.901   5.878 -0.0282  0.4852  1.6659
53413SOL     OW67288   9.680   0.897   7.131 -0.3360  0.1388 -0.4981
53413SOL    HW167289   9.735   0.945   7.193  0.6587  1.1192 -2.0699
53413SOL    HW267290   9.599   0.947   7.128  0.6676  1.7884 -2.0666
53414SOL     OW67291   3.692   2.322   2.047  0.0020 -1.0342  0.5952
53414SOL    HW167292   3.657   2.384   1.982  1.3329 -0.7430  0.1261
53414SOL    HW267293   3.653   2.350   2.130 -3.1031 -2.4558 -0.2358
53415SOL     OW67294   6.141   8.165  11.858 -0.2320 -0.0420  0.0764
53415SOL    HW167295   6.049   8.142  11.869 -0.7658  0.9344 -1.9599
53415SOL    HW267296   6.148   8.254  11.892 -0.2112  0.1582 -0.4470
53416SOL     OW67297   3.743   6.424   3.366 -0.1983 -0.3514 -0.6808
53416SOL    HW167298   3.804   6.485   3.325  0.2372  0.8235  1.5654
53416SOL    HW267299   3.790   6.342   3.370  1.0103  0.3620  0.3862
53417SOL     OW67300   6.966   9.682   1.146 -0.1383  0.1706  0.4420
53417SOL    HW167301   6.996   9.772   1.160  0.1935  0.2210 -0.4884
53417SOL    HW267302   6.897   9.691   1.079  0.8469 -0.3954 -0.6816
53418SOL     OW67303   1.037   5.650   5.053  0.0771 -0.3855 -0.2344
53418SOL    HW167304   1.131   5.635   5.045  0.1121  0.3513 -1.5456
53418SOL    HW267305   1.008   5.585   5.117  1.6260  0.0693  0.9871
53419SOL     OW67306   1.128  10.348  11.653 -0.1423 -0.1399  0.0785
53419SOL    HW167307   1.196  10.297  11.609 -0.0016 -0.1469  0.3021
53419SOL    HW267308   1.046  10.321  11.610 -0.1489 -1.0339  0.6309
53420SOL     OW67309   5.963   2.949   0.885 -0.3018 -0.1332  0.3033
53420SOL    HW167310   6.035   3.010   0.871 -0.1682 -0.3834 -0.1155
53420SOL    HW267311   5.944   2.955   0.979 -0.4304  0.7006  0.2314
53421SOL     OW67312   4.615   3.287   8.993 -0.3826  0.2306  0.1098
53421SOL    HW167313   4.661   3.317   8.914  0.3930 -0.2695  0.3588
53421SOL    HW267314   4.526   3.318   8.981  0.4667  3.1669  0.6424
53422SOL     OW67315   8.521   9.853   1.715  0.5926  0.0988 -0.2835
53422SOL    HW167316   8.476   9.855   1.631 -0.2347 -1.3806  0.0941
53422SOL    HW267317   8.587   9.922   1.708  0.8655 -0.3076 -2.3202
53423SOL     OW67318   6.929   4.465  11.246  0.7780 -0.5608 -0.0863
53423SOL    HW167319   7.010   4.440  11.202  2.4034  0.6840  2.0015
53423SOL    HW267320   6.936   4.428  11.334 -0.5719  0.2021  0.3775
53424SOL     OW67321   9.481  10.997   5.671 -0.1983  0.0863  0.0101
53424SOL    HW167322   9.513  10.954   5.592  2.1762 -1.0170  1.4567
53424SOL    HW267323   9.430  10.930   5.716 -0.3623  0.2544  0.0757
53425SOL     OW67324   7.088   0.494   7.846  0.1966 -0.0041  0.1732
53425SOL    HW167325   7.088   0.536   7.932 -1.6741 -0.8871  0.6612
53425SOL    HW267326   7.081   0.400   7.865  0.7207 -0.2897 -0.9387
53426SOL     OW67327   1.827   7.426   5.271  0.1224 -0.1922  0.2868
53426SOL    HW167328   1.827   7.450   5.364  0.9952 -2.0764  0.8144
53426SOL    HW267329   1.915   7.391   5.255  0.4451  1.2858 -1.6102
53427SOL     OW67330   9.955  11.900   4.123  0.0080 -0.0339  0.1747
53427SOL    HW167331   9.910  11.831   4.074 -1.2094  0.6371  0.3337
53427SOL    HW267332  10.026  11.928   4.064 -1.7757  1.1676 -1.5058
53428SOL     OW67333   0.997   4.035  12.359  0.3119  0.0126 -0.1881
53428SOL    HW167334   1.051   3.962  12.389  1.1332  0.6549 -0.0721
53428SOL    HW267335   1.017   4.043  12.266 -0.1083 -0.1823 -0.2979
53429SOL     OW67336   4.229   2.022   2.799  0.3163 -0.1833  0.2141
53429SOL    HW167337   4.229   2.117   2.813  0.5376 -0.1216 -0.1833
53429SOL    HW267338   4.161   1.989   2.858 -0.9819  0.4040 -0.9114
53430SOL     OW67339   2.895  12.360   0.200 -0.2987 -0.6860 -0.6799
53430SOL    HW167340   2.872  12.397   0.285  0.1574  0.0966 -0.8887
53430SOL    HW267341   2.910  12.267   0.218  0.5319 -0.3921  0.2496
53431SOL     OW67342   4.374  10.307  10.681 -0.2320 -0.3254  0.3377
53431SOL    HW167343   4.405  10.270  10.764  1.6309 -0.7028 -0.4756
53431SOL    HW267344   4.378  10.233  10.620  1.2233  0.6086 -0.7467
53432SOL     OW67345   3.280   0.568   6.483  0.1215 -0.0927 -0.7808
53432SOL    HW167346   3.303   0.661   6.480  1.4372 -0.4155 -1.9594
53432SOL    HW267347   3.350   0.528   6.535 -0.3821 -0.4429 -0.3668
53433SOL     OW67348   2.823   1.327   5.034  0.3972  0.2556 -0.4408
53433SOL    HW167349   2.851   1.246   5.076 -1.8923 -0.0678  0.6325
53433SOL    HW267350   2.794   1.382   5.107 -0.6168  0.9715 -1.3553
53434SOL     OW67351   1.363  10.580   3.131  0.0892  0.1076 -0.3077
53434SOL    HW167352   1.377  10.655   3.073  0.1603  0.6722  0.4190
53434SOL    HW267353   1.300  10.525   3.085  0.1870  0.5193 -0.9431
53435SOL     OW67354   7.402   6.521   7.471  0.1170  0.1948  0.4033
53435SOL    HW167355   7.488   6.562   7.468  0.0039  0.4540  0.6137
53435SOL    HW267356   7.417   6.433   7.503  0.4580 -0.1860 -0.7721
53436SOL     OW67357   9.931   1.808   7.073  0.0568  0.1426 -0.5926
53436SOL    HW167358   9.950   1.773   7.160 -0.1351  1.6173  0.0737
53436SOL    HW267359   9.843   1.845   7.081 -0.3656 -0.5850 -1.7059
53437SOL     OW67360   9.570   7.165   0.921  0.4887  0.7125  0.3016
53437SOL    HW167361   9.513   7.167   0.844 -1.2472 -0.7175  1.4659
53437SOL    HW267362   9.588   7.258   0.939 -1.0025  1.1848 -0.4720
53438SOL     OW67363   2.356   3.484   7.577  0.7596  0.2794 -0.6978
53438SOL    HW167364   2.350   3.531   7.660 -0.1808 -0.4837 -0.3232
53438SOL    HW267365   2.430   3.424   7.589  0.5466  0.0803 -0.3511
53439SOL     OW67366   7.430   5.523   7.245  0.4587  0.4199  0.5422
53439SOL    HW167367   7.480   5.450   7.282  0.3636  0.1133  0.0751
53439SOL    HW267368   7.438   5.593   7.310 -0.2457 -0.3137  1.4468
53440SOL     OW67369   7.578   4.039   8.644  0.0188  0.5547  0.2217
53440SOL    HW167370   7.568   4.006   8.555  0.7862 -0.4861  0.5003
53440SOL    HW267371   7.588   4.134   8.634 -1.3881  0.6390 -0.6770
53441SOL     OW67372   0.741   4.729   2.895 -0.0349  0.8591  0.3233
53441SOL    HW167373   0.658   4.776   2.895 -0.4038  0.2764  2.3270
53441SOL    HW267374   0.791   4.769   2.966 -0.8352 -2.4283  2.9908
53442SOL     OW67375  12.329  10.849  10.512  0.3907 -0.2609  0.4329
53442SOL    HW167376  12.369  10.933  10.490  1.0002 -0.4769  0.7024
53442SOL    HW267377  12.377  10.820  10.590 -0.7261 -0.2136  1.1551
53443SOL     OW67378   3.381   5.782   1.287 -0.3164  0.2151 -0.2915
53443SOL    HW167379   3.374   5.768   1.382  2.1293  1.5420  0.1812
53443SOL    HW267380   3.334   5.864   1.272  0.0863  0.5038 -0.0255
53444SOL     OW67381   4.396  11.094   0.968  0.1624 -0.0836  0.0267
53444SOL    HW167382   4.344  11.019   0.995 -0.5310 -0.0624 -1.1473
53444SOL    HW267383   4.484  11.059   0.952 -0.0235 -0.5421  0.0002
53445SOL     OW67384  10.726   1.985  12.450 -0.3825 -0.1592 -0.7914
53445SOL    HW167385  10.803   1.929  12.452 -0.6566 -0.5482 -1.1048
53445SOL    HW267386  10.724   2.026  12.537  0.2137 -0.0862 -0.8051
53446SOL     OW67387   3.113  10.613   5.197  0.2786 -0.1641 -0.1179
53446SOL    HW167388   3.037  10.625   5.255 -0.4269  1.9092 -1.3659
53446SOL    HW267389   3.146  10.702   5.182  2.7313 -0.9841  0.0390
53447SOL     OW67390   9.825   4.813   0.275  0.1166 -0.3899 -0.0372
53447SOL    HW167391   9.768   4.739   0.293 -1.1850  0.3375 -1.0193
53447SOL    HW267392   9.829   4.819   0.180  0.2519  0.7595  0.0199
53448SOL     OW67393   9.512   8.918  10.426  0.8636 -0.3918  0.0373
53448SOL    HW167394   9.511   9.011  10.402  3.0261 -0.5635 -0.9907
53448SOL    HW267395   9.540   8.918  10.518 -0.6131 -0.0146  0.5241
53449SOL     OW67396   8.620   5.622   8.826  0.1839 -0.2001 -0.3928
53449SOL    HW167397   8.634   5.578   8.910 -0.2563 -0.2321 -0.3333
53449SOL    HW267398   8.706   5.622   8.784  0.6354  0.6800  0.4748
53450SOL     OW67399   7.063   8.890  11.396  0.2328  0.3444 -0.5561
53450SOL    HW167400   7.047   8.958  11.331 -0.5917  2.3004  1.5466
53450SOL    HW267401   6.977   8.854  11.416  0.5198 -0.4849 -0.7626
53451SOL     OW67402  10.541  11.889   0.856 -0.5079 -0.2960 -0.3549
53451SOL    HW167403  10.451  11.858   0.866 -0.1108 -1.4780 -0.3547
53451SOL    HW267404  10.588  11.815   0.818  0.7160 -0.0853  0.7064
53452SOL     OW67405   4.760  10.119   3.484  0.0002  0.1451  0.1082
53452SOL    HW167406   4.809  10.127   3.402 -0.9570  1.7193 -0.3657
53452SOL    HW267407   4.724  10.030   3.482  1.2952 -0.3887 -0.4009
53453SOL     OW67408  12.313   7.723  11.804  0.6593  0.5850 -0.2483
53453SOL    HW167409  12.392   7.741  11.855  0.5074 -0.0387  0.2213
53453SOL    HW267410  12.345   7.689  11.721  0.8989 -1.3756  0.5805
53454SOL     OW67411   6.702   2.706   6.794 -0.0967  0.0722  0.0345
53454SOL    HW167412   6.679   2.781   6.740 -2.3962  0.6887  1.7126
53454SOL    HW267413   6.640   2.637   6.767  1.3502 -0.9634 -0.8077
53455SOL     OW67414   0.356   9.943   8.755  0.7682 -0.0703  0.7320
53455SOL    HW167415   0.264   9.933   8.779  0.4182  0.1981 -0.4174
53455SOL    HW267416   0.401   9.962   8.837 -0.5488  2.0401  1.0191
53456SOL     OW67417   9.110  10.350  12.471  0.1917 -0.5396  0.4902
53456SOL    HW167418   9.197  10.375  12.440 -0.8922  2.9638 -0.2151
53456SOL    HW267419   9.103  10.390  12.558 -0.8790 -0.2436  0.2880
53457SOL     OW67420   7.997   9.232   7.976 -0.1171  0.6091  0.2245
53457SOL    HW167421   7.929   9.281   7.930 -0.4936  0.0914  0.2253
53457SOL    HW267422   8.073   9.234   7.917 -0.6206 -0.1147 -0.4633
53458SOL     OW67423   5.367   7.332   4.511  0.1732  0.5098 -0.3698
53458SOL    HW167424   5.459   7.308   4.525  0.1178  1.3187  1.7912
53458SOL    HW267425   5.331   7.338   4.600 -1.9430  0.3410 -1.1789
53459SOL     OW67426   1.122  11.446   1.133 -0.6021 -0.1336 -0.0048
53459SOL    HW167427   1.106  11.457   1.227 -1.5514 -0.4169 -0.1225
53459SOL    HW267428   1.073  11.367   1.110 -0.5743  0.0742 -0.7860
53460SOL     OW67429   3.037   1.107   4.251  0.0056  0.4061  0.5753
53460SOL    HW167430   3.078   1.188   4.280 -1.3536  0.9825  0.9309
53460SOL    HW267431   3.001   1.068   4.330  0.1164 -0.2372  0.3153
53461SOL     OW67432   4.266   8.105   3.861  0.5246 -0.8617 -0.1122
53461SOL    HW167433   4.350   8.143   3.836 -0.3707 -0.2108 -2.4372
53461SOL    HW267434   4.214   8.180   3.889  0.2263 -1.0371 -0.1965
53462SOL     OW67435   3.040  11.342  11.196  0.0173  0.4779  0.5205
53462SOL    HW167436   2.993  11.267  11.159  1.9878  0.3730 -2.1120
53462SOL    HW267437   3.128  11.309  11.213  1.0818  2.2004 -1.1770
53463SOL     OW67438   4.919  12.223   4.929 -0.2104  0.0533  0.2682
53463SOL    HW167439   4.996  12.250   4.879  0.6485 -1.6323  0.6400
53463SOL    HW267440   4.910  12.289   4.997  0.1815  0.9148 -0.4932
53464SOL     OW67441  10.767   0.902   3.120  0.0461 -0.9001  0.0020
53464SOL    HW167442  10.836   0.858   3.169  0.8548  0.5547  0.2204
53464SOL    HW267443  10.806   0.920   3.034 -0.4508 -1.0529 -0.2638
53465SOL     OW67444   9.918  11.620   1.173 -0.8691  0.8610  0.1506
53465SOL    HW167445   9.978  11.617   1.098 -2.4044  1.1210 -1.1497
53465SOL    HW267446   9.831  11.626   1.133 -1.8114 -0.0733  1.9610
53466SOL     OW67447   0.308   8.880   5.171  0.4253  0.0187  0.3313
53466SOL    HW167448   0.347   8.851   5.254  0.8970  1.4192  0.6299
53466SOL    HW267449   0.240   8.815   5.153 -0.1394  0.0324  2.1552
53467SOL     OW67450   5.657   9.860   4.272 -0.4454 -0.5117  0.5088
53467SOL    HW167451   5.731   9.820   4.319 -0.2713 -1.2442 -0.3615
53467SOL    HW267452   5.614   9.915   4.338  1.3770  0.6365  0.8092
53468SOL     OW67453   1.497   1.517   2.423  0.0906 -0.2244 -0.6416
53468SOL    HW167454   1.452   1.466   2.356  0.6817 -0.4557 -0.8727
53468SOL    HW267455   1.580   1.470   2.437  0.5996  0.6019 -0.7860
53469SOL     OW67456   4.660  12.250  10.489 -0.7426 -0.0444 -0.0750
53469SOL    HW167457   4.735  12.299  10.524  0.0815  0.3251 -2.1726
53469SOL    HW267458   4.584  12.300  10.518 -0.0105  1.3993 -0.5136
53470SOL     OW67459   0.169   5.796   6.165  0.1716 -0.1181  0.2294
53470SOL    HW167460   0.086   5.754   6.140 -0.9118  1.7632  0.4987
53470SOL    HW267461   0.149   5.889   6.169  2.0321  0.2845  1.4551
53471SOL     OW67462   5.725   0.322   7.763  0.3970 -0.5935  0.1807
53471SOL    HW167463   5.699   0.280   7.845 -0.0387  0.6168  0.6970
53471SOL    HW267464   5.819   0.340   7.774  0.3559 -0.5036  0.3962
53472SOL     OW67465   8.652   7.532   8.965  0.2209 -0.0190 -0.1127
53472SOL    HW167466   8.608   7.456   9.003 -2.5665  1.4379 -0.1380
53472SOL    HW267467   8.647   7.599   9.033  0.4491  0.8534 -0.9316
53473SOL     OW67468   5.719  12.561  10.430  0.4700  0.4707 -0.3087
53473SOL    HW167469   5.667  12.542  10.508  1.2565  1.5449  0.4931
53473SOL    HW267470   5.671  12.517  10.359 -0.7877  0.2922  0.6099
53474SOL     OW67471   9.173   6.771   7.233 -0.3802  0.1208 -0.0303
53474SOL    HW167472   9.174   6.826   7.155 -2.4349 -0.3792 -0.4676
53474SOL    HW267473   9.250   6.798   7.283 -1.3415  3.4786 -0.1544
53475SOL     OW67474  12.024   5.820  11.902  0.2676  0.6694  0.0636
53475SOL    HW167475  11.990   5.781  11.822 -0.4841  0.7428  0.3402
53475SOL    HW267476  12.009   5.754  11.969 -0.2078  1.0763  0.3658
53476SOL     OW67477   1.207   4.891   8.936  0.5828 -0.2156  0.0412
53476SOL    HW167478   1.262   4.921   9.009 -0.6284  1.1053  0.4489
53476SOL    HW267479   1.175   4.806   8.964 -1.0841  0.9061  1.8009
53477SOL     OW67480   8.460   9.064  11.117  0.1294 -0.0425  0.1999
53477SOL    HW167481   8.490   9.045  11.205 -1.1436 -0.4775  0.5696
53477SOL    HW267482   8.410   9.145  11.126  2.6788  1.7557 -0.7473
53478SOL     OW67483  10.687   6.529   6.852  0.3393  0.2638  0.2204
53478SOL    HW167484  10.648   6.442   6.859  0.2576  0.3252  0.5895
53478SOL    HW267485  10.644   6.568   6.776  1.2248 -0.4348 -0.6550
53479SOL     OW67486   3.830  10.162   5.879 -0.4943 -0.1453  0.3806
53479SOL    HW167487   3.748  10.159   5.830  0.2329  0.1058 -0.8950
53479SOL    HW267488   3.855  10.254   5.880  0.0346 -0.2835  0.3100
53480SOL     OW67489   2.196   5.270   2.108  0.1836 -0.4063 -0.7581
53480SOL    HW167490   2.218   5.346   2.055 -1.0946 -0.2936 -1.1565
53480SOL    HW267491   2.244   5.198   2.067  0.8987  0.0551 -0.7560
53481SOL     OW67492   5.770   1.346   2.881  0.2108 -0.0150 -0.3465
53481SOL    HW167493   5.822   1.406   2.827 -1.0027  0.3667 -1.1590
53481SOL    HW267494   5.723   1.403   2.942  0.7192 -0.3483  0.3653
53482SOL     OW67495   6.282   3.343   4.108 -0.5202 -0.2907  0.4505
53482SOL    HW167496   6.294   3.332   4.203 -0.9936  0.0664  0.5572
53482SOL    HW267497   6.190   3.320   4.093 -0.0166 -2.0105 -0.1903
53483SOL     OW67498   7.162  11.813  12.503  0.0695  0.1126  0.5641
53483SOL    HW167499   7.153  11.718  12.493  1.1808  0.0704 -0.2729
53483SOL    HW267500   7.083  11.849  12.461  0.2637 -0.4054 -0.2635
53484SOL     OW67501   0.099   6.178   7.910 -0.0449 -0.1946  0.3205
53484SOL    HW167502   0.139   6.131   7.983  0.1326 -0.2435  0.1924
53484SOL    HW267503   0.063   6.110   7.854  0.8578 -0.2207 -0.2415
53485SOL     OW67504   2.357  11.300   7.274 -0.2518  0.8820  0.3171
53485SOL    HW167505   2.386  11.364   7.339  0.1529  1.9941 -0.9024
53485SOL    HW267506   2.274  11.268   7.307 -0.1328  1.5353  1.3028
53486SOL     OW67507   9.559   4.382   9.962  0.7374 -0.2746  0.4562
53486SOL    HW167508   9.643   4.381  10.007  1.4129 -1.4280 -0.7361
53486SOL    HW267509   9.517   4.300   9.988  0.2746 -0.0228  0.5164
53487SOL     OW67510   4.426  10.055   2.059  0.0101 -0.1963  0.3786
53487SOL    HW167511   4.379  10.036   2.140  1.5869  0.9336  1.6534
53487SOL    HW267512   4.440   9.970   2.018  0.6642 -1.0136  2.1969
53488SOL     OW67513  11.229   9.021   8.679  0.2368 -0.4980 -0.5167
53488SOL    HW167514  11.281   8.947   8.649  0.2282 -0.5026 -0.5192
53488SOL    HW267515  11.293   9.081   8.717  0.1868 -0.7277 -0.0668
53489SOL     OW67516   8.421   7.924   4.852  0.2705  0.2599  0.0429
53489SOL    HW167517   8.347   7.885   4.901  1.4191 -1.0772  0.8002
53489SOL    HW267518   8.388   7.932   4.763 -0.9315  0.0634  0.4385
53490SOL     OW67519   3.469   2.051   2.927 -0.1506  0.5168  0.2735
53490SOL    HW167520   3.389   2.101   2.911 -0.6650 -0.2805  0.3083
53490SOL    HW267521   3.520   2.061   2.846  0.7873  2.9151  1.0616
53491SOL     OW67522   1.679   1.074   9.991 -0.2869  0.4421 -0.6684
53491SOL    HW167523   1.638   0.989  10.008 -0.3271  0.6106  0.1137
53491SOL    HW267524   1.669   1.087   9.897 -1.5345  0.2330 -0.5817
53492SOL     OW67525   5.137   1.891   5.767  0.2793 -0.6393 -0.1209
53492SOL    HW167526   5.135   1.871   5.861 -0.4691 -0.0925 -0.0174
53492SOL    HW267527   5.229   1.909   5.749  0.4986 -1.1797  0.4091
53493SOL     OW67528   8.980  12.522   6.452  0.2015  0.2239 -0.0457
53493SOL    HW167529   8.981  12.539   6.547  0.9851  0.1707 -0.0362
53493SOL    HW267530   8.980  12.609   6.412 -0.0913  0.2470  0.0013
53494SOL     OW67531   3.948  10.793   3.809 -0.2902 -0.3474 -0.4114
53494SOL    HW167532   3.926  10.700   3.817 -0.1970 -0.5024 -1.7060
53494SOL    HW267533   4.028  10.794   3.755 -0.5862  0.5036 -0.8538
53495SOL     OW67534   9.257   9.127   9.337  0.7940 -0.1485  0.0197
53495SOL    HW167535   9.301   9.052   9.377  1.3879 -0.2700 -0.8416
53495SOL    HW267536   9.236   9.185   9.411 -0.4993 -1.5510  0.8093
53496SOL     OW67537  10.797   1.921   0.330  0.0288 -0.3843 -0.3554
53496SOL    HW167538  10.798   1.839   0.380 -0.4694 -0.2216 -0.0700
53496SOL    HW267539  10.791   1.989   0.397  1.3215 -0.0621 -0.5444
53497SOL     OW67540   2.925   4.320  11.953  0.0998 -0.6860  0.9676
53497SOL    HW167541   2.993   4.272  12.000  1.5714 -0.3192 -0.6983
53497SOL    HW267542   2.849   4.263  11.956  0.8120 -1.6260  1.8905
53498SOL     OW67543   2.507   0.371   4.794  0.2999 -0.4030 -0.1362
53498SOL    HW167544   2.416   0.401   4.794  0.0083 -1.1465  1.9014
53498SOL    HW267545   2.558   0.450   4.776 -0.6711  0.4281  0.6379
53499SOL     OW67546  12.558   3.708  11.230  0.0541 -0.1250 -0.1769
53499SOL    HW167547  12.644   3.666  11.230  0.8858  1.4954 -0.4074
53499SOL    HW267548  12.569   3.785  11.286 -0.6551  1.2178 -1.7950
53500SOL     OW67549   2.030  11.168   0.346 -0.1430 -0.2359 -0.1498
53500SOL    HW167550   1.956  11.142   0.291 -0.2378  0.5441 -0.4027
53500SOL    HW267551   2.068  11.085   0.375 -1.9667 -0.6638  1.1846
53501SOL     OW67552   5.764   9.962   8.596  0.6377 -0.1612 -0.4703
53501SOL    HW167553   5.715   9.879   8.595 -0.1553  0.2787  0.2542
53501SOL    HW267554   5.698  10.028   8.577  1.2004  0.3409 -0.6903
53502SOL     OW67555   6.849  10.815   2.754 -0.0153  0.8537 -0.3455
53502SOL    HW167556   6.870  10.808   2.661 -0.7060 -0.4437 -0.4274
53502SOL    HW267557   6.869  10.906   2.776 -1.4876  1.6997 -2.1772
53503SOL     OW67558  11.137   4.189   4.360 -0.1466 -0.5536 -0.6596
53503SOL    HW167559  11.124   4.095   4.375  2.2122 -0.8566 -0.0638
53503SOL    HW267560  11.190   4.193   4.280  3.2117 -0.0857  1.3890
53504SOL     OW67561   6.491   1.282   9.463 -0.4143 -0.0837 -0.2831
53504SOL    HW167562   6.401   1.297   9.434 -1.1374 -0.2618  1.7298
53504SOL    HW267563   6.498   1.329   9.546  0.3966 -2.4515  1.0825
53505SOL     OW67564   9.484   3.950   7.300  0.6521 -0.3046 -0.7077
53505SOL    HW167565   9.577   3.927   7.301  0.2729 -2.0721  1.6394
53505SOL    HW267566   9.439   3.869   7.324 -1.4235  0.8436 -0.4552
53506SOL     OW67567   3.405   3.598   6.547  0.4779  0.0882 -0.5468
53506SOL    HW167568   3.454   3.677   6.523  0.2263  0.2690 -0.4736
53506SOL    HW267569   3.395   3.604   6.642 -0.8493  0.7498 -0.7011
53507SOL     OW67570   3.366   8.817   0.232 -0.1260  0.2920 -0.1608
53507SOL    HW167571   3.458   8.804   0.254  0.2324 -0.3741 -1.8786
53507SOL    HW267572   3.345   8.744   0.173 -2.4524 -0.9865  2.0405
53508SOL     OW67573   5.260   9.455   0.168  0.1613 -0.4386  0.0973
53508SOL    HW167574   5.228   9.510   0.241 -1.6755  0.1066 -1.0358
53508SOL    HW267575   5.285   9.518   0.101 -1.0915 -0.9275 -0.8728
53509SOL     OW67576   0.899  11.628   9.752 -0.0223 -0.5010  0.1787
53509SOL    HW167577   0.873  11.649   9.842  0.8148 -0.3317  0.3881
53509SOL    HW267578   0.817  11.632   9.702 -0.4684 -0.4232  0.8972
53510SOL     OW67579  12.525  11.614   1.341 -0.6322 -0.5806 -0.2830
53510SOL    HW167580  12.483  11.690   1.382  0.4288 -0.1547  0.0590
53510SOL    HW267581  12.599  11.594   1.398  0.7182 -0.1627 -1.8028
53511SOL     OW67582   3.034   3.415   5.961 -0.1687  1.0217  0.1750
53511SOL    HW167583   3.103   3.395   6.025  0.4473  2.0894 -0.1371
53511SOL    HW267584   3.041   3.509   5.947 -1.4952  1.0927 -0.1110
53512SOL     OW67585  10.504   7.693  12.587  0.1012  0.4298  0.1813
53512SOL    HW167586  10.419   7.684  12.546  1.2203 -2.9214 -1.7544
53512SOL    HW267587  10.500   7.637  12.665  0.9518 -0.9937 -0.7661
53513SOL     OW67588  11.956   0.622  11.989  0.1592 -0.6478 -0.1550
53513SOL    HW167589  12.010   0.552  11.954  2.5207  0.2652  1.4730
53513SOL    HW267590  12.007   0.660  12.060 -2.1289  1.0807  0.7038
53514SOL     OW67591   1.324   0.498  10.768 -0.2134  0.1108 -0.4522
53514SOL    HW167592   1.419   0.486  10.765 -0.4148 -1.5085 -1.9337
53514SOL    HW267593   1.312   0.592  10.758  1.2502  0.5074  1.0009
53515SOL     OW67594  11.471   3.152   6.421  0.7771  0.2102 -0.3014
53515SOL    HW167595  11.450   3.121   6.509 -0.4567  1.5369 -0.0880
53515SOL    HW267596  11.509   3.076   6.377  4.0105  0.1663  2.1589
53516SOL     OW67597   8.638   3.327   3.310  0.0230 -0.0594  0.8211
53516SOL    HW167598   8.665   3.243   3.272 -0.5517  0.1800 -0.1501
53516SOL    HW267599   8.600   3.375   3.237  1.2136  1.4410  1.1514
53517SOL     OW67600   3.656   0.247   2.326 -0.3663  0.1697 -0.2190
53517SOL    HW167601   3.749   0.230   2.314 -0.5033 -0.0373 -1.0048
53517SOL    HW267602   3.639   0.224   2.418 -0.0018 -1.4545 -0.5291
53518SOL     OW67603   8.697   6.337  11.907  0.3047 -0.0371  0.1489
53518SOL    HW167604   8.630   6.328  11.839 -0.5504 -0.8465  1.0696
53518SOL    HW267605   8.775   6.297  11.869 -0.3372 -1.0608 -0.1383
53519SOL     OW67606  10.475  12.071   4.070  0.4593 -0.5059 -0.2576
53519SOL    HW167607  10.404  12.096   4.011  0.4960 -0.6147 -0.3495
53519SOL    HW267608  10.472  12.135   4.141  1.0137  0.1852 -0.8493
53520SOL     OW67609   1.674   4.880   4.951  0.1585  0.6465 -0.0445
53520SOL    HW167610   1.766   4.906   4.955  0.7917 -1.4884  0.3940
53520SOL    HW267611   1.631   4.939   5.013  1.1568  1.8447 -0.4336
53521SOL     OW67612  12.062   7.819   9.520  0.0507  0.1564 -0.6210
53521SOL    HW167613  12.128   7.847   9.583  0.1261  1.0391 -1.0738
53521SOL    HW267614  11.990   7.786   9.573  0.5898 -0.2177 -0.1083
53522SOL     OW67615   6.303  11.052   5.077 -0.1625  0.5014  0.7020
53522SOL    HW167616   6.308  11.121   5.143  0.5873  1.4988 -0.3524
53522SOL    HW267617   6.210  11.038   5.062 -0.3272  0.5906  1.6330
53523SOL     OW67618   7.857  12.057   2.936 -0.5358  0.8164  0.3364
53523SOL    HW167619   7.813  12.071   2.852  0.7349  1.1879 -0.2907
53523SOL    HW267620   7.853  11.962   2.949 -1.9465  0.8801  0.5581
53524SOL     OW67621  10.379   1.715  10.724  0.1474  0.0648  0.2395
53524SOL    HW167622  10.380   1.808  10.700 -0.4977  0.1294  0.4414
53524SOL    HW267623  10.409   1.669  10.646  2.5899  0.5706  0.7863
53525SOL     OW67624   8.025   0.481   6.324  0.0524  0.0368  0.8077
53525SOL    HW167625   8.089   0.548   6.297 -1.9104  1.3938 -0.7553
53525SOL    HW267626   8.033   0.478   6.419  1.0569  1.6367  0.8276
53526SOL     OW67627   5.477  11.374   1.478 -0.8875  0.5679  0.5386
53526SOL    HW167628   5.504  11.466   1.474  0.5658  0.1296 -2.0477
53526SOL    HW267629   5.523  11.340   1.555  1.2616  1.2902 -0.3289
53527SOL     OW67630   0.041  11.828   7.748 -0.6793  0.1802  0.6260
53527SOL    HW167631   0.102  11.807   7.676 -0.6724  0.1514  0.6399
53527SOL    HW267632   0.085  11.794   7.826 -1.0500 -0.5183  0.5393
53528SOL     OW67633   5.341   5.562   3.218  0.8552 -0.2595 -0.6531
53528SOL    HW167634   5.248   5.581   3.230  0.8181 -1.0462  0.4151
53528SOL    HW267635   5.343   5.470   3.193  1.2904  0.0280 -1.7016
53529SOL     OW67636   1.450  10.098   6.225 -0.0427 -0.0052 -0.1584
53529SOL    HW167637   1.445  10.100   6.130 -0.6185 -1.2349 -0.1755
53529SOL    HW267638   1.433  10.188   6.252  0.7388  0.4764 -1.2381
53530SOL     OW67639   9.300   5.649   0.628 -0.0008 -0.8435 -0.0981
53530SOL    HW167640   9.272   5.563   0.599 -1.7862  0.3488 -2.2847
53530SOL    HW267641   9.264   5.709   0.563  1.6745  1.5212  0.9965
53531SOL     OW67642  12.081   8.511  12.091  0.1952  0.0743 -0.7337
53531SOL    HW167643  12.173   8.492  12.074  0.3272  0.5338 -0.5328
53531SOL    HW267644  12.071   8.604  12.070 -0.3490 -0.1004 -1.2755
53532SOL     OW67645   5.100   5.692   1.997  0.1240  0.4099 -0.6256
53532SOL    HW167646   5.114   5.760   2.063 -1.2489  0.7525 -0.6592
53532SOL    HW267647   5.179   5.695   1.943  2.0411 -0.9226  1.8468
53533SOL     OW67648   7.840  11.785   8.178 -0.0957  0.6571 -0.4384
53533SOL    HW167649   7.926  11.748   8.200 -0.2661  0.7042  0.3556
53533SOL    HW267650   7.794  11.789   8.262 -0.8350  0.7409 -0.8438
53534SOL     OW67651  10.350  10.501  11.940  0.0177  0.0814 -0.7708
53534SOL    HW167652  10.261  10.522  11.912 -0.6735 -1.4597  0.1216
53534SOL    HW267653  10.396  10.478  11.860 -1.0348 -1.2117 -1.0355
53535SOL     OW67654   5.234   7.731   5.388  0.4338 -0.3369 -0.1872
53535SOL    HW167655   5.205   7.688   5.468  0.8447  0.5854  0.4776
53535SOL    HW267656   5.179   7.693   5.319 -0.8727 -0.1868  0.7215
53536SOL     OW67657   9.567  11.882   8.443  0.3119  0.0403 -0.6336
53536SOL    HW167658   9.513  11.958   8.464  1.4974  1.0698 -1.1874
53536SOL    HW267659   9.543  11.816   8.509 -1.6266  0.4356 -0.9024
53537SOL     OW67660   0.904   4.292   6.354 -0.0094  0.4182  0.5698
53537SOL    HW167661   0.994   4.318   6.338  0.4246 -1.0264  0.4478
53537SOL    HW267662   0.909   4.235   6.431 -0.6856 -0.2597  0.1374
53538SOL     OW67663  11.019   9.622   7.191  0.4844 -0.3891 -0.1140
53538SOL    HW167664  11.057   9.568   7.260  1.0145 -0.0236 -0.1250
53538SOL    HW267665  11.092   9.670   7.154  0.1249 -0.2044 -0.5979
53539SOL     OW67666   6.917   5.892   6.291  0.1724  0.1254  0.4887
53539SOL    HW167667   6.887   5.808   6.324 -1.5526  0.4165 -0.2136
53539SOL    HW267668   6.848   5.920   6.231  1.2102  1.5550 -0.0909
53540SOL     OW67669   1.350  11.565   4.331 -0.5575  0.1213  0.3203
53540SOL    HW167670   1.408  11.527   4.396 -0.0038  1.1413  0.4453
53540SOL    HW267671   1.402  11.567   4.250 -0.2144  1.5055  0.5550
53541SOL     OW67672   2.223   4.811   6.284  0.1466 -0.2425 -0.3017
53541SOL    HW167673   2.129   4.793   6.288  0.3250 -1.4903 -1.0223
53541SOL    HW267674   2.229   4.902   6.253 -0.8015  0.5116  1.5656
53542SOL     OW67675   8.381   9.320  12.081  0.0066  0.1562 -0.1769
53542SOL    HW167676   8.318   9.392  12.075 -0.7328 -0.5335 -0.6767
53542SOL    HW267677   8.445   9.351  12.146 -0.2300  1.3154 -0.4744
53543SOL     OW67678   4.721  12.138  10.830  0.4435  0.2702 -0.3642
53543SOL    HW167679   4.766  12.110  10.751 -0.6208  0.5812 -1.1028
53543SOL    HW267680   4.755  12.081  10.899  2.5786  1.0504 -0.6922
53544SOL     OW67681   9.860   9.686  11.733  0.5398  0.4896  0.5259
53544SOL    HW167682   9.928   9.686  11.800 -0.8603  0.2478  2.0149
53544SOL    HW267683   9.778   9.685  11.783 -0.5766  1.6531 -1.1778
53545SOL     OW67684   6.912  11.804   3.242 -0.1775 -0.2461  0.4239
53545SOL    HW167685   6.961  11.771   3.166 -1.0238  2.3575 -1.3592
53545SOL    HW267686   6.979  11.845   3.297  0.0215  1.0576 -0.7450
53546SOL     OW67687   9.921   1.147   9.583  0.2740  0.4979  0.1055
53546SOL    HW167688   9.964   1.178   9.663 -0.5050 -1.7509  1.4941
53546SOL    HW267689   9.978   1.076   9.552  0.0428  0.6888 -0.7859
53547SOL     OW67690   0.343   1.777  11.760  0.1769  0.1637  0.0676
53547SOL    HW167691   0.312   1.799  11.848 -0.5144 -1.6837  0.3334
53547SOL    HW267692   0.315   1.851  11.706 -0.9411  0.5307  1.0966
53548SOL     OW67693   8.263   7.135   3.427 -0.0352  1.0043  0.3666
53548SOL    HW167694   8.337   7.094   3.382 -0.3532  0.4977  0.2985
53548SOL    HW267695   8.238   7.072   3.495 -1.8781  0.0416 -1.0722
53549SOL     OW67696   0.115   4.706   4.376  0.1750  0.2049  0.3301
53549SOL    HW167697   0.147   4.774   4.435 -0.4167  0.4651  0.3595
53549SOL    HW267698   0.187   4.644   4.369  0.9748  1.1705 -0.2090
53550SOL     OW67699   5.286  12.589   2.343 -0.1560  0.1168  0.5761
53550SOL    HW167700   5.295  12.525   2.413 -0.5403 -1.0719 -0.4418
53550SOL    HW267701   5.276  12.538   2.263 -0.4087  1.4364 -0.2824
53551SOL     OW67702   4.671   6.248   3.628 -0.0833  0.5401  0.4311
53551SOL    HW167703   4.707   6.186   3.692 -0.9044 -0.8150 -0.3786
53551SOL    HW267704   4.650   6.326   3.680 -1.4444 -0.7917  1.9928
53552SOL     OW67705  11.228   9.950   8.111  0.1060 -0.4156 -0.0674
53552SOL    HW167706  11.157   9.921   8.169 -2.2740  2.0273 -1.5389
53552SOL    HW267707  11.306   9.943   8.165 -1.6230 -0.6171  2.6316
53553SOL     OW67708  11.464   2.028   9.006  0.2928 -0.0588 -0.0769
53553SOL    HW167709  11.477   2.121   8.985  0.1980 -0.2634 -1.0807
53553SOL    HW267710  11.409   2.029   9.084 -0.6565  0.7380 -0.7196
53554SOL     OW67711   8.346   9.618   5.593 -0.2286 -0.2145  0.3105
53554SOL    HW167712   8.389   9.535   5.613  0.4364 -0.2822 -1.1999
53554SOL    HW267713   8.354   9.626   5.498 -0.7281  1.3421  0.3702
53555SOL     OW67714   1.195   7.458   5.577 -0.3010 -0.2806 -0.5027
53555SOL    HW167715   1.230   7.427   5.493 -0.6090 -0.1735 -0.6708
53555SOL    HW267716   1.207   7.384   5.637  1.0518  0.0531 -0.3147
53556SOL     OW67717  11.034   6.374   1.438  0.3215 -0.0019 -0.0088
53556SOL    HW167718  11.080   6.325   1.507  0.8961  0.5045 -0.0296
53556SOL    HW267719  11.102   6.396   1.374  0.1281  1.0636  0.1341
53557SOL     OW67720   6.813   6.618   5.237  0.1840  0.2110  0.2962
53557SOL    HW167721   6.778   6.581   5.156  1.8972 -0.0565 -0.3630
53557SOL    HW267722   6.790   6.710   5.234 -2.0034 -0.2571  0.7823
53558SOL     OW67723   9.630   6.647   1.989 -0.2423  0.1793  0.2099
53558SOL    HW167724   9.582   6.566   2.004  0.3550 -0.4839 -1.2559
53558SOL    HW267725   9.563   6.716   1.990 -1.1604 -0.6584 -1.1965
53559SOL     OW67726  10.640   5.255   8.678  0.5748 -0.2722  0.1695
53559SOL    HW167727  10.641   5.164   8.648 -0.6228  0.3386 -1.8969
53559SOL    HW267728  10.699   5.301   8.617 -0.0986  0.6137  0.1627
53560SOL     OW67729  12.484   7.301   1.728 -0.9942  0.0361 -0.5287
53560SOL    HW167730  12.489   7.356   1.806 -0.8627 -0.1204 -0.4272
53560SOL    HW267731  12.575   7.292   1.699 -0.9974 -0.2452 -0.4609
53561SOL     OW67732   0.989   6.796   4.528 -0.0494 -0.4859 -0.1617
53561SOL    HW167733   0.977   6.757   4.442 -0.4599 -0.0680 -0.3039
53561SOL    HW267734   0.975   6.890   4.514  1.0992 -0.2510  0.1335
53562SOL     OW67735   9.370   5.692  11.441  0.2350  0.3229  0.5470
53562SOL    HW167736   9.401   5.720  11.527  1.4380  1.3666 -0.1946
53562SOL    HW267737   9.439   5.635  11.408  1.4513  2.6281 -1.1102
53563SOL     OW67738   6.317   3.749   4.771 -0.8877  0.0419 -0.1110
53563SOL    HW167739   6.378   3.817   4.798 -0.6472 -0.2464  0.0616
53563SOL    HW267740   6.242   3.759   4.830 -1.0682  0.4765 -0.4047
53564SOL     OW67741   3.422   1.849   5.127  0.2799 -0.1633  0.3722
53564SOL    HW167742   3.472   1.790   5.071 -0.5046 -1.0166  0.5385
53564SOL    HW267743   3.386   1.914   5.067  0.9224 -0.0167  0.1449
53565SOL     OW67744   0.925   6.908  10.058 -0.3249  0.6965 -0.1513
53565SOL    HW167745   0.835   6.888  10.033 -0.2446  0.2873 -0.1180
53565SOL    HW267746   0.943   6.848  10.130  0.2386  0.2422 -0.6733
53566SOL     OW67747   3.658   1.228   9.652  0.5836 -0.0128 -0.5103
53566SOL    HW167748   3.610   1.159   9.606  0.9913 -1.1273  0.6553
53566SOL    HW267749   3.748   1.219   9.620  0.7854 -0.5307  0.1587
53567SOL     OW67750  12.570   1.376   5.229  0.6158 -0.5371  0.2501
53567SOL    HW167751  12.620   1.432   5.169  2.1038 -0.0446  1.8470
53567SOL    HW267752  12.498   1.431   5.259 -0.9459 -1.2212 -2.0136
53568SOL     OW67753  12.304   6.179   8.095  0.1077 -0.1581  0.3398
53568SOL    HW167754  12.363   6.106   8.114  0.9137  1.0229  2.6873
53568SOL    HW267755  12.216   6.141   8.100  0.5184 -1.0054  1.3499
53569SOL     OW67756   3.068   0.043   7.662  0.0924 -0.3890 -0.0672
53569SOL    HW167757   3.163   0.049   7.655 -0.0538  3.9549 -1.2418
53569SOL    HW267758   3.047   0.090   7.743 -1.0946  1.7301 -1.5056
53570SOL     OW67759  10.080   9.683   6.595  0.5064 -0.2816 -0.3272
53570SOL    HW167760   9.992   9.714   6.573  0.8868  0.6431 -0.6106
53570SOL    HW267761  10.118   9.658   6.511 -0.0846 -2.3801 -0.0131
53571SOL     OW67762  10.919   1.645   8.652 -0.2064  0.0975 -0.2331
53571SOL    HW167763  10.893   1.731   8.620  0.3362  1.0947  1.8776
53571SOL    HW267764  10.958   1.661   8.737  2.5667 -1.9299 -0.9836
53572SOL     OW67765  10.328   5.063  11.888  0.0120 -0.0018  0.3072
53572SOL    HW167766  10.389   5.014  11.944  0.0943  0.5565  0.7200
53572SOL    HW267767  10.385   5.119  11.835 -0.1513  1.1233  1.2682
53573SOL     OW67768   5.441   0.575   5.499 -0.2073  0.1773  0.0091
53573SOL    HW167769   5.511   0.597   5.437 -0.1239 -1.0010 -0.3473
53573SOL    HW267770   5.362   0.570   5.445 -0.4074  0.6452  0.2603
53574SOL     OW67771   2.316  11.548   6.953 -0.0655  0.5221 -1.0874
53574SOL    HW167772   2.394  11.546   7.008 -0.2151  3.2955 -0.6077
53574SOL    HW267773   2.257  11.484   6.993  0.9902  0.2563  0.1104
53575SOL     OW67774   8.256   3.343  10.555  0.0365  0.2826  0.1276
53575SOL    HW167775   8.317   3.304  10.617 -0.6530 -0.1170  0.5753
53575SOL    HW267776   8.227   3.424  10.597  0.6126  0.7227 -0.3017
53576SOL     OW67777   6.782  12.175   0.562  0.4231 -0.4706 -0.0345
53576SOL    HW167778   6.735  12.140   0.486 -1.7674 -1.1348  1.5438
53576SOL    HW267779   6.800  12.099   0.616  0.7253  0.1656  0.7817
53577SOL     OW67780   1.541  10.641   0.986 -0.1100  0.2447 -0.0290
53577SOL    HW167781   1.616  10.700   0.982  0.5042 -0.4114  1.3556
53577SOL    HW267782   1.532  10.608   0.896  0.9357  0.7280 -0.3272
53578SOL     OW67783   7.824   8.626   4.841  0.0504 -0.0669  0.5820
53578SOL    HW167784   7.762   8.585   4.781 -1.4200  0.5932  1.6043
53578SOL    HW267785   7.868   8.553   4.884 -0.3822 -0.5462  0.2265
53579SOL     OW67786   8.709   2.267   7.275  0.4746 -0.3907 -0.1250
53579SOL    HW167787   8.640   2.207   7.304  1.1119 -1.1441 -0.1317
53579SOL    HW267788   8.766   2.213   7.221  2.2657 -0.3479  1.6302
53580SOL     OW67789   6.445   1.396   9.733  0.4779  0.3387  0.1937
53580SOL    HW167790   6.489   1.453   9.796 -0.6858  0.2252  1.1561
53580SOL    HW267791   6.438   1.312   9.778  0.3408  0.0218 -0.4091
53581SOL     OW67792   7.197  11.485   0.065  0.0284 -0.1825  0.1475
53581SOL    HW167793   7.135  11.505   0.134  0.9680 -0.7180  1.1688
53581SOL    HW267794   7.272  11.542   0.082 -1.0135  2.2299 -2.4312
53582SOL     OW67795   9.149  10.922   2.122 -0.1529  0.1251  0.0390
53582SOL    HW167796   9.239  10.946   2.146  0.1246  0.9505 -1.6610
53582SOL    HW267797   9.154  10.829   2.100  0.0686 -0.0626  0.8409
53583SOL     OW67798  11.595   0.011  11.959  0.5406 -0.3140 -0.1652
53583SOL    HW167799  11.618  -0.064  11.904  4.7268  0.7982 -0.2762
53583SOL    HW267800  11.593  -0.025  12.048  3.0997 -0.6055 -0.1442
53584SOL     OW67801   8.113   3.931   8.462 -0.2889  0.1268  0.0164
53584SOL    HW167802   8.201   3.899   8.478 -0.4029  0.2491  0.9384
53584SOL    HW267803   8.123   4.025   8.452 -0.1744  0.0140 -1.0034
53585SOL     OW67804   0.410   7.678   8.849 -0.0618 -0.6329  0.2948
53585SOL    HW167805   0.452   7.737   8.786 -2.8600  0.2270 -0.9404
53585SOL    HW267806   0.455   7.695   8.932  2.5072 -0.4316 -1.0418
53586SOL     OW67807  10.937   1.269   7.605 -0.4283 -0.2525 -0.4463
53586SOL    HW167808  10.892   1.199   7.653  1.4908  0.2031  2.2210
53586SOL    HW267809  11.027   1.237   7.596  0.4073  1.6736  0.5319
53587SOL     OW67810  11.115   9.853   1.906 -0.7659 -0.1414  0.0321
53587SOL    HW167811  11.058   9.923   1.872  1.7696  2.3707  0.5673
53587SOL    HW267812  11.201   9.874   1.871  0.4557 -1.9605  1.7601
53588SOL     OW67813   9.148   6.133   9.565 -0.5289 -0.5104 -0.2660
53588SOL    HW167814   9.159   6.042   9.593  0.3228 -0.1991  0.4445
53588SOL    HW267815   9.182   6.134   9.476  0.7485 -0.5999  0.2093
53589SOL     OW67816  10.009   1.733   9.448 -0.0678  0.1919  0.4215
53589SOL    HW167817  10.020   1.718   9.354  0.0885  1.0807  0.2886
53589SOL    HW267818   9.936   1.796   9.453 -2.1308 -2.0797  1.0504
53590SOL     OW67819   6.134   6.765   8.692 -0.0523 -0.0908  0.5369
53590SOL    HW167820   6.079   6.791   8.765 -0.4912 -1.3392  0.6722
53590SOL    HW267821   6.082   6.701   8.644 -0.0577  1.1705 -1.2844
53591SOL     OW67822  10.970  10.514  10.055 -0.4036  0.0024  0.0525
53591SOL    HW167823  11.040  10.461  10.094 -1.0146 -1.8249 -1.2153
53591SOL    HW267824  10.893  10.457  10.055 -0.9105  0.5980 -2.0134
53592SOL     OW67825   4.862   1.782   4.528 -0.1699  0.1865 -0.2716
53592SOL    HW167826   4.880   1.789   4.434  0.1143 -0.7544 -0.2958
53592SOL    HW267827   4.884   1.868   4.563 -1.5046  0.9784 -1.2591
53593SOL     OW67828   2.200   2.397  11.102  0.1737  0.1762  0.5494
53593SOL    HW167829   2.173   2.343  11.028  0.9144 -1.0073  1.1282
53593SOL    HW267830   2.140   2.472  11.099 -0.4733 -0.3581 -0.6252
53594SOL     OW67831   8.975   7.265   5.269  0.4095 -0.6202 -0.0098
53594SOL    HW167832   8.965   7.170   5.268 -0.0853 -0.5688 -0.3373
53594SOL    HW267833   9.004   7.286   5.357 -1.1010 -0.9125  0.5818
53595SOL     OW67834  12.547   4.721   6.589  0.0079  0.0592 -0.3970
53595SOL    HW167835  12.515   4.787   6.528  0.0423 -0.6723 -1.2219
53595SOL    HW267836  12.641   4.715   6.573  0.0724  0.0936 -0.0461
53596SOL     OW67837   8.746   1.605   1.250  0.2422 -0.1272 -0.0279
53596SOL    HW167838   8.818   1.667   1.239  1.0722 -1.0872 -0.2715
53596SOL    HW267839   8.706   1.598   1.163 -0.2949  0.5797  0.1613
53597SOL     OW67840   5.910  10.493   3.134  0.6854  0.1595 -0.3283
53597SOL    HW167841   5.963  10.572   3.133 -0.4936  0.9668 -1.4116
53597SOL    HW267842   5.934  10.446   3.054  0.5243 -0.0105 -0.2786
53598SOL     OW67843  11.438   9.729   5.037 -0.4289  0.2636 -0.3329
53598SOL    HW167844  11.350   9.753   5.066 -0.3817  0.4650 -0.3502
53598SOL    HW267845  11.430   9.638   5.009 -0.5357  0.1496  0.0557
53599SOL     OW67846   0.006   9.496   9.114 -0.9413 -0.1365  0.2099
53599SOL    HW167847   0.037   9.464   9.199 -2.1725 -1.1049  0.3168
53599SOL    HW267848   0.046   9.583   9.106  1.2929 -1.0385  0.5858
53600SOL     OW67849  12.424   1.696   7.257  0.5229 -0.7701  0.1424
53600SOL    HW167850  12.508   1.684   7.300  0.0910 -0.6740  1.0421
53600SOL    HW267851  12.444   1.746   7.178  1.1377  0.5777  1.1146
53601SOL     OW67852   1.756   2.275   3.500 -0.3387 -0.0969 -0.1834
53601SOL    HW167853   1.697   2.230   3.439  0.4055 -1.2759 -0.0576
53601SOL    HW267854   1.835   2.222   3.500  0.2219  0.7230  0.6850
53602SOL     OW67855   7.304   8.564  10.952  0.2192 -0.2654  0.0156
53602SOL    HW167856   7.394   8.533  10.943  1.2667  2.6706 -0.8045
53602SOL    HW267857   7.252   8.502  10.901  1.8774 -1.5735 -0.1747
53603SOL     OW67858   6.781   1.725  11.120  0.5184 -0.2228 -0.0052
53603SOL    HW167859   6.849   1.784  11.086  0.7082 -0.3368  0.1687
53603SOL    HW267860   6.746   1.771  11.196 -0.3444  0.3143 -0.7206
53604SOL     OW67861   4.407  11.611   9.127  0.0989 -0.0117  0.0105
53604SOL    HW167862   4.459  11.663   9.188  2.0387 -1.9694  0.1752
53604SOL    HW267863   4.471  11.571   9.069 -1.4885 -0.3738 -1.5757
53605SOL     OW67864   3.117   8.636   2.061  0.4948  0.0644 -0.1680
53605SOL    HW167865   3.044   8.580   2.037  1.3930 -0.0786 -2.9484
53605SOL    HW267866   3.192   8.577   2.068  1.0046  0.6122 -0.8212
53606SOL     OW67867   6.257   1.915   3.880  0.1906  0.1377  0.1846
53606SOL    HW167868   6.196   1.864   3.932 -0.0318  1.2431  1.0538
53606SOL    HW267869   6.202   1.967   3.821  0.2733  1.0143  0.8562
53607SOL     OW67870   5.086  12.407   9.869  0.2154  0.1091  0.5248
53607SOL    HW167871   5.018  12.344   9.892  0.6887 -0.2583  0.9412
53607SOL    HW267872   5.090  12.405   9.774 -0.3230  0.1051  0.5001
53608SOL     OW67873   2.014   0.219   3.642 -0.2737  0.2739  0.1384
53608SOL    HW167874   1.964   0.256   3.715  1.2162  0.2474  1.2260
53608SOL    HW267875   2.046   0.296   3.594 -0.5875  0.3096 -0.0144
53609SOL     OW67876   7.466   9.604   2.570 -0.9141  0.5522 -0.6824
53609SOL    HW167877   7.461   9.512   2.542 -1.1556  1.0998 -2.5256
53609SOL    HW267878   7.376   9.626   2.595 -1.3176  0.8872 -2.3314
53610SOL     OW67879  11.204   6.408   5.164 -0.3952 -0.5399 -0.1101
53610SOL    HW167880  11.133   6.345   5.174  0.2130 -1.4618 -1.4605
53610SOL    HW267881  11.188   6.472   5.234 -1.3513 -1.8502  0.9333
53611SOL     OW67882   1.656  12.066   0.473  0.0157 -0.8474  0.2543
53611SOL    HW167883   1.631  12.155   0.447 -1.4874 -0.7232  1.8698
53611SOL    HW267884   1.618  12.010   0.406 -1.2418 -0.3796  0.5353
53612SOL     OW67885   7.119   9.788   4.577  0.1818 -0.0189 -0.7787
53612SOL    HW167886   7.132   9.809   4.670  0.9920  0.9210 -1.0935
53612SOL    HW267887   7.206   9.792   4.539 -0.3284  1.1051 -1.8821
53613SOL     OW67888  11.682   2.330   4.071  0.2744 -0.2261  0.4954
53613SOL    HW167889  11.633   2.294   3.997  0.4651 -1.8763  1.1460
53613SOL    HW267890  11.618   2.335   4.142 -0.0716  1.9372  0.1144
53614SOL     OW67891  11.781   2.430   6.806  0.0724  0.3780 -0.0886
53614SOL    HW167892  11.834   2.419   6.885 -0.0594  0.0153 -0.0502
53614SOL    HW267893  11.714   2.494   6.831  1.2806  1.8797 -0.5358
53615SOL     OW67894   8.223   9.326   1.851  0.3434  0.2146  0.1175
53615SOL    HW167895   8.174   9.258   1.896 -1.1829  0.9264 -0.3877
53615SOL    HW267896   8.307   9.287   1.831  0.1766 -0.8958  1.4641
53616SOL     OW67897   1.689   4.285   5.272  0.4615  0.3683  0.3632
53616SOL    HW167898   1.619   4.245   5.324  1.7078 -0.0548  1.7992
53616SOL    HW267899   1.698   4.229   5.196 -1.4384  1.0203 -0.4082
53617SOL     OW67900   0.451   7.754   4.997  0.3998  0.0747  0.2390
53617SOL    HW167901   0.417   7.664   4.991  0.1396  0.1628  0.3904
53617SOL    HW267902   0.537   7.749   4.955  0.1996 -0.1496 -0.1580
53618SOL     OW67903   9.162   2.923   8.962 -0.2899  0.0711 -0.3277
53618SOL    HW167904   9.190   3.011   8.985 -2.1167  1.2370 -2.2829
53618SOL    HW267905   9.141   2.882   9.046  3.2276  0.4159  0.9058
53619SOL     OW67906   1.947   1.607   9.301  0.3179  0.2412 -0.3143
53619SOL    HW167907   1.876   1.574   9.356  0.7444 -0.0982  0.0506
53619SOL    HW267908   1.913   1.688   9.263 -0.5540 -0.3360 -0.7973
53620SOL     OW67909   2.108  10.234   2.575  0.1747  0.0506  0.6282
53620SOL    HW167910   2.118  10.144   2.605  0.0391 -0.4014 -0.6197
53620SOL    HW267911   2.014  10.244   2.558  0.3436 -0.0023 -0.4407
53621SOL     OW67912  11.352   8.361   9.895 -0.1548 -0.4498 -0.1672
53621SOL    HW167913  11.437   8.397   9.922 -0.3532 -0.0562 -0.0585
53621SOL    HW267914  11.322   8.420   9.826 -1.3960  0.7997  1.3638
53622SOL     OW67915   2.826   6.865   7.476  0.2079 -0.1758  1.1372
53622SOL    HW167916   2.799   6.773   7.471  1.7694 -0.7092  1.5873
53622SOL    HW267917   2.799   6.893   7.563 -0.9814  0.0467  0.7050
53623SOL     OW67918   8.278   6.293  10.360  0.4806  0.1418  0.4809
53623SOL    HW167919   8.235   6.366  10.315  1.7929  0.9821  0.5252
53623SOL    HW267920   8.310   6.237  10.289  3.4636  1.9969  0.1935
53624SOL     OW67921   6.241   8.307   3.868  0.3370  0.1744  0.3093
53624SOL    HW167922   6.314   8.257   3.833 -0.0340  0.2460 -0.5896
53624SOL    HW267923   6.282   8.382   3.911  0.8160 -0.0750  0.2984
53625SOL     OW67924   6.481   8.897   3.352 -0.1543 -0.5044  0.5365
53625SOL    HW167925   6.572   8.888   3.379 -0.0077  0.0344  0.2370
53625SOL    HW267926   6.430   8.862   3.425  0.2986 -1.0538  0.5920
53626SOL     OW67927  10.622   2.000   2.797 -0.3665 -0.1015 -0.2499
53626SOL    HW167928  10.634   1.962   2.883 -1.5584  0.2181  0.0800
53626SOL    HW267929  10.703   2.048   2.780  0.8899 -2.1521 -0.3860
53627SOL     OW67930  11.928   3.813  10.386 -0.1790  0.1993 -0.0448
53627SOL    HW167931  11.839   3.778  10.385  0.0627 -0.5114 -2.2607
53627SOL    HW267932  11.924   3.889  10.328  0.6670  0.1068 -0.2350
53628SOL     OW67933   5.649   2.866   9.146 -0.1887 -0.6693 -0.5006
53628SOL    HW167934   5.582   2.799   9.132  0.2287 -1.3568  0.6324
53628SOL    HW267935   5.676   2.854   9.237  0.4342  0.5575 -0.5026
53629SOL     OW67936   4.694   7.693   6.090 -1.3364  0.4403  0.1254
53629SOL    HW167937   4.771   7.734   6.129 -1.9562  2.6604 -0.7978
53629SOL    HW267938   4.694   7.724   5.999 -2.7165 -0.4229 -0.1978
53630SOL     OW67939   0.458  11.670  12.518  0.3684  0.3090 -0.0030
53630SOL    HW167940   0.381  11.694  12.569 -0.2140 -1.9215  0.2795
53630SOL    HW267941   0.517  11.745  12.525 -0.2931  0.6524  2.7279
53631SOL     OW67942   9.784   6.825   2.178 -0.0067 -0.0384 -0.2490
53631SOL    HW167943   9.704   6.790   2.138 -0.5632  0.0951  0.7174
53631SOL    HW267944   9.843   6.749   2.184  0.1796 -0.0115 -1.5114
53632SOL     OW67945   1.261   9.800   5.035 -0.6339 -0.1698  0.2868
53632SOL    HW167946   1.353   9.777   5.022 -0.7562 -0.9445  0.7711
53632SOL    HW267947   1.231   9.826   4.948  0.2068  0.7159  0.2447
53633SOL     OW67948  11.259   2.085   1.502  0.0275 -0.1251  0.0532
53633SOL    HW167949  11.259   2.019   1.571  0.1042 -1.1359 -0.8760
53633SOL    HW267950  11.173   2.128   1.510 -0.5093 -1.1428 -0.0524
53634SOL     OW67951  11.209   4.261   4.778  0.1980 -0.2643  0.4772
53634SOL    HW167952  11.239   4.194   4.838  1.0260 -0.3219  0.0195
53634SOL    HW267953  11.281   4.271   4.716 -0.4677  0.0874 -0.2553
53635SOL     OW67954   1.246   9.132  12.439  0.1092  0.4234  0.2950
53635SOL    HW167955   1.240   9.205  12.377 -1.1134 -0.1624 -0.3179
53635SOL    HW267956   1.188   9.065  12.403  3.5474 -2.2083 -0.9069
53636SOL     OW67957  10.967  12.101  12.346  0.2870  0.5278  0.8141
53636SOL    HW167958  10.937  12.159  12.416 -2.8464 -0.6493  0.5829
53636SOL    HW267959  10.887  12.068  12.306  1.9612 -1.6994 -0.9607
53637SOL     OW67960   7.621  11.212   0.687 -0.6906 -0.5192  0.4935
53637SOL    HW167961   7.590  11.245   0.602 -1.9149  1.7870  1.7303
53637SOL    HW267962   7.709  11.248   0.697 -0.3513 -1.1918  0.0364
53638SOL     OW67963   6.330   2.749   8.682 -0.0096 -0.5877  0.2167
53638SOL    HW167964   6.312   2.658   8.660  0.5778 -0.7484  0.3686
53638SOL    HW267965   6.420   2.748   8.715 -0.0095  0.0419  0.2494
53639SOL     OW67966   0.881   7.362  12.477  0.1190  0.0238 -0.3026
53639SOL    HW167967   0.873   7.455  12.499  2.5697  0.1503  0.3012
53639SOL    HW267968   0.975   7.347  12.466 -0.0842 -2.6209  0.6836
53640SOL     OW67969   3.538   1.106   7.504  0.3444 -0.0974  0.4994
53640SOL    HW167970   3.453   1.107   7.459 -0.1669  0.8711  1.4357
53640SOL    HW267971   3.603   1.113   7.434 -0.3879  0.1055 -0.1672
53641SOL     OW67972   7.436   6.206  11.223 -0.0970 -0.1736  0.0001
53641SOL    HW167973   7.393   6.264  11.287 -1.6954 -1.8321  0.4988
53641SOL    HW267974   7.365   6.166  11.174  1.0132 -0.8967 -1.0904
53642SOL     OW67975   2.569   0.862  10.278  0.0775  0.6820  0.6877
53642SOL    HW167976   2.607   0.947  10.304  0.5184  0.3531  1.1324
53642SOL    HW267977   2.604   0.800  10.342 -0.2395  0.1590  0.3558
53643SOL     OW67978   8.274   0.863   4.721  0.0972  0.1479 -0.2381
53643SOL    HW167979   8.302   0.804   4.651 -0.0359  0.9448 -0.9814
53643SOL    HW267980   8.258   0.806   4.796 -1.4705 -0.9542 -1.3650
53644SOL     OW67981   0.230   5.477   7.100 -0.0996  0.6577 -0.3070
53644SOL    HW167982   0.302   5.423   7.132 -0.3872  1.2210  1.4090
53644SOL    HW267983   0.208   5.440   7.015  1.4556 -0.2363 -0.3611
53645SOL     OW67984  12.382   7.543   7.766 -0.3169 -0.0776  0.2555
53645SOL    HW167985  12.448   7.518   7.702 -2.5783  0.2951 -2.4339
53645SOL    HW267986  12.414   7.624   7.804  0.5619  0.3624 -1.3421
53646SOL     OW67987   8.856   3.276  10.866 -0.4860 -0.0243  0.3463
53646SOL    HW167988   8.798   3.270  10.790 -0.8543 -2.6439  0.7352
53646SOL    HW267989   8.940   3.307  10.830 -0.3112 -2.2829 -1.3883
53647SOL     OW67990   4.726   7.999   3.171 -0.2602  0.0113 -0.1617
53647SOL    HW167991   4.705   7.979   3.080  0.1502 -0.8952 -0.0712
53647SOL    HW267992   4.664   7.948   3.222  0.6407 -0.8883  0.0727
53648SOL     OW67993   0.978  11.822  10.364  0.5480  0.6488  0.1026
53648SOL    HW167994   0.911  11.877  10.405  1.6264  1.9838  0.1172
53648SOL    HW267995   1.060  11.868  10.379  1.4796 -0.8958 -0.0259
53649SOL     OW67996  10.229  12.284   0.025  0.3630  0.0539  0.1172
53649SOL    HW167997  10.268  12.228   0.093  1.2137  1.2688  0.6616
53649SOL    HW267998  10.304  12.313  -0.027  0.0083  1.1590  0.2107
53650SOL     OW67999  10.704  12.075   3.933 -0.2195  0.3693 -0.2911
53650SOL    HW168000  10.622  12.109   3.898 -0.0988  1.1726  0.1867
53650SOL    HW268001  10.678  12.024   4.010 -0.4823 -1.3865 -1.4785
53651SOL     OW68002   9.255   3.644   3.100  0.5771  0.4653 -0.5658
53651SOL    HW168003   9.198   3.692   3.160  1.0641 -0.7352  0.9300
53651SOL    HW268004   9.310   3.711   3.060  1.6031  1.1799  1.8552
53652SOL     OW68005  10.960   8.476  12.374  0.7525  0.1540 -0.6017
53652SOL    HW168006  11.035   8.506  12.322  0.7822  0.7341 -0.2315
53652SOL    HW268007  10.921   8.406  12.322  2.3619 -1.1143 -0.1727
53653SOL     OW68008   8.228   0.005   4.979 -0.5817  0.6329  0.0572
53653SOL    HW168009   8.148   0.019   5.029 -1.9079 -2.8936 -0.8446
53653SOL    HW268010   8.207   0.034   4.890 -0.5739  0.3981 -0.0196
53654SOL     OW68011   1.062   0.632   7.088 -0.3571 -0.2372 -0.0137
53654SOL    HW168012   0.990   0.659   7.030 -1.4012 -2.4405  0.1521
53654SOL    HW268013   1.018   0.591   7.163  1.0538 -0.0878  0.9291
53655SOL     OW68014   2.853   2.887   4.397  0.8157  0.0452  0.2481
53655SOL    HW168015   2.903   2.888   4.316  0.9599  0.2856  0.3367
53655SOL    HW268016   2.909   2.839   4.459 -0.7164 -3.1942 -0.6592
53656SOL     OW68017  10.814   2.516   3.059  0.2130 -0.2923 -0.0936
53656SOL    HW168018  10.868   2.482   2.988  1.5600  0.4815  0.4988
53656SOL    HW268019  10.798   2.441   3.116  0.8515 -0.5031 -0.1872
53657SOL     OW68020  11.548   6.693   5.583  0.1318  0.1650 -0.4316
53657SOL    HW168021  11.495   6.767   5.613 -0.4572 -0.2453 -0.4540
53657SOL    HW268022  11.626   6.734   5.545  0.6171  0.7260  1.0844
53658SOL     OW68023  12.128   8.875   6.913 -0.3419 -0.1298 -0.3385
53658SOL    HW168024  12.066   8.867   6.985 -0.9811 -0.2829 -0.8984
53658SOL    HW268025  12.090   8.940   6.855  0.9829  1.2602  0.2664
53659SOL     OW68026   7.294   9.450   6.988 -0.1756  0.1358 -0.1172
53659SOL    HW168027   7.236   9.402   6.929  0.0328  0.9050 -0.9682
53659SOL    HW268028   7.381   9.413   6.971  0.3427  2.0890 -2.2587
53660SOL     OW68029   6.820   8.259   5.630 -0.0380  0.2710 -0.0161
53660SOL    HW168030   6.812   8.276   5.724 -0.5386 -0.9437  0.1901
53660SOL    HW268031   6.771   8.329   5.588  0.1092  0.7686  0.6299
53661SOL     OW68032   9.489  12.440  11.309 -0.1764  0.2283  0.8844
53661SOL    HW168033   9.410  12.386  11.314  0.0450 -0.1858  0.0304
53661SOL    HW268034   9.459  12.526  11.281 -0.1010 -0.5379 -1.8127
53662SOL     OW68035   0.798   5.057   1.788 -0.2284 -0.0743 -0.4440
53662SOL    HW168036   0.792   4.986   1.852  1.5912 -0.2004 -0.3732
53662SOL    HW268037   0.707   5.086   1.776 -1.0661 -2.5405 -0.6344
53663SOL     OW68038   1.189   9.527  11.805 -0.1748  0.8642 -0.2065
53663SOL    HW168039   1.259   9.494  11.748 -0.7193  2.3354 -1.8144
53663SOL    HW268040   1.235   9.560  11.882  0.7636  0.4691 -0.5735
53664SOL     OW68041  11.049   1.127   1.194  0.5627 -0.2290  0.0513
53664SOL    HW168042  11.080   1.058   1.136 -1.6761 -1.3946  0.1100
53664SOL    HW268043  11.069   1.209   1.148  1.8639 -0.9693 -0.7448
53665SOL     OW68044   5.274  10.084   9.435 -0.4778 -0.0532 -0.0660
53665SOL    HW168045   5.318  10.051   9.513  0.5427  2.0088  0.2915
53665SOL    HW268046   5.222  10.158   9.465 -1.7543 -0.5277 -1.0153
53666SOL     OW68047  11.330   9.594   7.606 -0.2122  0.7970 -0.0254
53666SOL    HW168048  11.312   9.583   7.699 -0.2424  1.4166  0.0503
53666SOL    HW268049  11.373   9.679   7.600  2.4244 -0.4716 -0.2431
53667SOL     OW68050   0.841   8.212  12.296  0.0723 -0.0545 -0.3815
53667SOL    HW168051   0.768   8.204  12.235 -0.2112  0.2256 -0.0830
53667SOL    HW268052   0.831   8.300  12.334  1.4895  0.6817 -1.5483
53668SOL     OW68053   5.779   2.519   1.288 -0.0491  0.4990  0.0187
53668SOL    HW168054   5.858   2.478   1.322  0.8181  1.8489 -0.2525
53668SOL    HW268055   5.709   2.494   1.348  0.5335 -0.8845  0.1479
53669SOL     OW68056  12.111   7.362   9.484 -0.6188  0.2341 -0.2537
53669SOL    HW168057  12.126   7.447   9.442  1.1771 -0.4195 -1.0132
53669SOL    HW268058  12.039   7.323   9.434 -2.2663  1.7307  0.8229
53670SOL     OW68059   5.200   6.951   2.409  0.0535  0.1463  0.3840
53670SOL    HW168060   5.268   7.017   2.394 -0.1546  0.4903  0.8892
53670SOL    HW268061   5.248   6.870   2.423  0.2974  0.1092 -0.6326
53671SOL     OW68062   4.296   9.150   3.249  0.0008 -0.0886  0.4632
53671SOL    HW168063   4.319   9.073   3.197 -0.2726  1.3999 -2.0549
53671SOL    HW268064   4.344   9.139   3.331  2.0520 -1.6814 -0.8552
53672SOL     OW68065   3.426   7.597   6.414  0.1811  0.4699 -0.3396
53672SOL    HW168066   3.334   7.585   6.391  0.2860  0.9031 -0.9802
53672SOL    HW268067   3.474   7.578   6.334  0.7159 -0.6343  0.2210
53673SOL     OW68068   9.844  12.494   1.970  0.2210  0.2582  0.1742
53673SOL    HW168069   9.906  12.499   2.043  1.4363 -1.3180 -0.6838
53673SOL    HW268070   9.892  12.449   1.900 -1.9590 -1.3044 -0.4412
53674SOL     OW68071   6.895   7.658   7.253  0.8565 -0.2001  0.3358
53674SOL    HW168072   6.943   7.739   7.269 -0.4009  0.5360  0.5059
53674SOL    HW268073   6.811   7.686   7.217 -0.4219 -1.2775  2.3037
53675SOL     OW68074  12.016   9.542   0.007 -0.2916  0.3604 -0.5423
53675SOL    HW168075  12.057   9.455   0.003  0.3599  0.6542 -0.4342
53675SOL    HW268076  11.972   9.544   0.091 -1.1710 -0.2391 -0.9805
53676SOL     OW68077  10.109   8.396   2.050 -0.0909 -0.5717 -0.5369
53676SOL    HW168078  10.197   8.406   2.087  0.1049 -0.6344 -0.9818
53676SOL    HW268079  10.108   8.455   1.975 -1.0683  0.8891  0.5598
53677SOL     OW68080   7.948   2.081   6.723  0.3303  0.0970 -0.5985
53677SOL    HW168081   8.032   2.115   6.755  0.2625 -1.0536  0.9388
53677SOL    HW268082   7.972   2.019   6.654  0.7754 -0.3203 -0.0815
53678SOL     OW68083   0.215   9.759   6.640  0.0583 -0.6514  0.0495
53678SOL    HW168084   0.234   9.797   6.554  0.7443  0.0344  0.4943
53678SOL    HW268085   0.124   9.731   6.634 -0.2211  0.3266 -0.5588
53679SOL     OW68086   0.889   5.540  11.604  0.6585 -0.4608 -0.5154
53679SOL    HW168087   0.803   5.516  11.572  0.3901 -1.5500  0.8979
53679SOL    HW268088   0.923   5.602  11.540 -0.9217 -0.4754 -1.4014
53680SOL     OW68089   5.849   3.048   6.412  0.4355 -0.2708  0.1850
53680SOL    HW168090   5.941   3.040   6.389  0.7572  0.0520  1.3230
53680SOL    HW268091   5.847   3.047   6.508 -1.0223 -3.5014  0.2541
53681SOL     OW68092   3.245   6.435   8.403  0.0821  0.3554  0.1543
53681SOL    HW168093   3.333   6.426   8.368  0.1594 -1.1672  0.6722
53681SOL    HW268094   3.189   6.439   8.326  0.6034  1.5349 -0.1796
53682SOL     OW68095  12.243   9.549   4.043  0.2077  0.0502 -0.2718
53682SOL    HW168096  12.166   9.510   4.002 -1.2605  0.3140  2.0242
53682SOL    HW268097  12.247   9.638   4.007  0.2537 -0.3844 -1.3845
53683SOL     OW68098   6.512   8.460   5.837  0.0096  0.6477 -0.0524
53683SOL    HW168099   6.545   8.550   5.840 -0.4380  0.8203 -0.3932
53683SOL    HW268100   6.461   8.455   5.757 -0.2170  0.1735  0.1175
53684SOL     OW68101   5.930   9.290   1.646 -0.4686 -0.2493  0.8154
53684SOL    HW168102   5.901   9.329   1.564  1.0049 -0.7260  0.0454
53684SOL    HW268103   5.851   9.287   1.700 -1.5920 -0.4680 -0.7770
53685SOL     OW68104   2.843   5.746   3.026  0.2558 -0.4005 -0.5624
53685SOL    HW168105   2.916   5.741   3.086  0.2308 -0.0626 -0.5060
53685SOL    HW268106   2.773   5.789   3.075  0.3566  0.2197 -0.9516
53686SOL     OW68107  10.196   5.728   2.978 -0.8115 -0.0419 -0.1341
53686SOL    HW168108  10.236   5.758   3.059 -0.2076 -1.2777  0.0456
53686SOL    HW268109  10.268   5.690   2.928 -1.5577 -1.3827 -0.2386
53687SOL     OW68110   5.336   9.751   9.586 -0.8008  0.0413  0.5966
53687SOL    HW168111   5.376   9.838   9.586 -0.1100 -0.2474 -0.8063
53687SOL    HW268112   5.350   9.719   9.675  2.8385 -0.3173  0.0647
53688SOL     OW68113   1.024   4.179   6.553 -0.1607  0.5239 -0.4557
53688SOL    HW168114   1.091   4.130   6.505  0.5662  1.8608 -0.8469
53688SOL    HW268115   1.039   4.155   6.645  1.2144  1.1945 -0.4805
53689SOL     OW68116   7.431   2.319   0.336  0.2743  0.1589 -0.3502
53689SOL    HW168117   7.367   2.263   0.381  1.2111  0.5661  1.5796
53689SOL    HW268118   7.474   2.260   0.274  0.6185 -1.0679  1.0033
53690SOL     OW68119   6.912   4.526   8.204  1.0022  0.0300  0.3320
53690SOL    HW168120   6.940   4.444   8.246 -1.0689 -0.3319  1.1343
53690SOL    HW268121   6.842   4.500   8.144  0.2764  1.1818  0.6311
53691SOL     OW68122   2.333   9.703   9.986  0.6055 -0.1522 -0.0725
53691SOL    HW168123   2.267   9.748  10.038  0.3425 -1.0848  0.4344
53691SOL    HW268124   2.283   9.657   9.918  0.6757 -1.1506  0.5287
53692SOL     OW68125   6.805   3.989   1.633 -0.4969  0.1445 -0.3734
53692SOL    HW168126   6.732   4.001   1.693 -1.0187  0.5102 -1.0700
53692SOL    HW268127   6.877   3.958   1.688 -0.5323  1.8254  0.6756
53693SOL     OW68128  12.360   4.175  11.790  0.2095  0.3409  0.7929
53693SOL    HW168129  12.404   4.095  11.759 -1.3978 -0.2400 -0.1132
53693SOL    HW268130  12.387   4.242  11.728  0.9717  0.3534  1.1197
53694SOL     OW68131   8.673   8.682   0.835 -0.5084 -0.0986  0.6569
53694SOL    HW168132   8.711   8.710   0.752 -2.3950  1.3975  0.2291
53694SOL    HW268133   8.718   8.600   0.855  2.1747  1.0333 -0.2439
53695SOL     OW68134   4.098  10.366   6.402 -0.3634  0.6548  0.6367
53695SOL    HW168135   4.015  10.346   6.445  0.0354 -0.0836  1.0816
53695SOL    HW268136   4.106  10.461   6.408 -0.4389  0.5858  1.9581
53696SOL     OW68137   0.590   8.724  10.308  0.6287  0.2901 -0.1471
53696SOL    HW168138   0.658   8.778  10.267  0.4344  0.5653 -0.1117
53696SOL    HW268139   0.564   8.663  10.240  0.3601  0.6982 -0.4208
53697SOL     OW68140  12.551   0.932   8.662 -0.2964  0.1064  0.1434
53697SOL    HW168141  12.598   1.015   8.669 -0.8206  0.3519  0.9343
53697SOL    HW268142  12.514   0.932   8.574  1.2314 -0.1330 -0.5246
53698SOL     OW68143  11.781   4.598   2.183 -0.2047 -0.5698 -0.3109
53698SOL    HW168144  11.823   4.678   2.153  1.4960 -0.4050  2.1571
53698SOL    HW268145  11.699   4.627   2.224  0.5503 -0.0061  0.8450
53699SOL     OW68146   9.112   8.732   1.151 -0.0404  0.0751 -0.1711
53699SOL    HW168147   9.086   8.813   1.196 -0.8375  0.0333 -0.5315
53699SOL    HW268148   9.168   8.686   1.214  0.2658  0.8138  0.1105
53700SOL     OW68149   8.029   3.337   5.001 -0.3823  0.0726  0.3022
53700SOL    HW168150   7.973   3.378   4.935  0.6711  1.5177  0.2555
53700SOL    HW268151   8.009   3.383   5.082  2.0162  1.9959 -0.0783
53701SOL     OW68152  10.273   5.241   0.779 -0.2561  0.5457 -0.0885
53701SOL    HW168153  10.255   5.316   0.836 -0.3759 -0.2806  0.9824
53701SOL    HW268154  10.344   5.194   0.822 -0.8610 -0.5170 -0.2079
53702SOL     OW68155  11.062   0.445   9.940  0.1610 -0.3449  0.0654
53702SOL    HW168156  11.153   0.439   9.969 -0.0641  0.5632  1.0220
53702SOL    HW268157  11.024   0.515   9.994 -1.1118 -0.7284 -0.2985
53703SOL     OW68158   6.080   8.111   4.362  0.6730 -0.1414 -0.1286
53703SOL    HW168159   5.998   8.160   4.355  0.2008 -1.0271 -1.1779
53703SOL    HW268160   6.058   8.034   4.414  0.9102 -0.2468 -0.1815
53704SOL     OW68161   2.905  12.328   2.473  0.3924  0.8460  0.8944
53704SOL    HW168162   2.994  12.358   2.490  0.9415  0.5860 -1.2479
53704SOL    HW268163   2.908  12.234   2.489  1.4547  0.2256 -2.2430
53705SOL     OW68164   7.149   3.522   3.552 -0.2322 -0.0700  0.0155
53705SOL    HW168165   7.105   3.455   3.603  0.0177 -0.3135 -0.0833
53705SOL    HW268166   7.236   3.485   3.536  0.3218  0.7703  0.9724
53706SOL     OW68167   6.361   7.810   9.870  0.1001 -0.1773  0.6265
53706SOL    HW168168   6.456   7.800   9.867 -0.0992 -2.7286 -2.5351
53706SOL    HW268169   6.347   7.905   9.864  2.5044  0.1457 -1.8827
53707SOL     OW68170  11.434  11.739   9.691  0.0238 -0.0564  0.1293
53707SOL    HW168171  11.499  11.706   9.752  1.0679  1.1847 -0.2604
53707SOL    HW268172  11.451  11.693   9.609  1.1843  1.0632 -0.2881
53708SOL     OW68173   0.273   6.118  10.263  0.5230 -0.2818  0.0608
53708SOL    HW168174   0.187   6.109  10.305 -0.2970 -0.1355 -1.4856
53708SOL    HW268175   0.264   6.069  10.181  1.8430 -0.0369 -0.2452
53709SOL     OW68176   6.283   2.338  10.281  0.0531  0.1584 -0.4036
53709SOL    HW168177   6.276   2.363  10.189  0.1408  2.0566  0.0675
53709SOL    HW268178   6.377   2.337  10.299  0.0632 -0.7467 -0.4520
53710SOL     OW68179   5.036   8.234   1.031 -0.2681  0.0288 -0.4706
53710SOL    HW168180   5.064   8.214   0.942  0.3197  0.2260 -0.3389
53710SOL    HW268181   4.978   8.162   1.055  1.1867 -1.1190 -0.2884
53711SOL     OW68182   3.291   7.434   1.209  0.0869 -0.2618  0.0819
53711SOL    HW168183   3.246   7.508   1.169 -0.2711  0.4595  1.7407
53711SOL    HW268184   3.244   7.357   1.177 -0.1587  0.2790 -0.8912
53712SOL     OW68185   3.978  10.530   3.903  0.0185  0.5009  0.1443
53712SOL    HW168186   3.888  10.515   3.931  0.4926  1.3449  2.3273
53712SOL    HW268187   4.011  10.444   3.879 -1.0702  0.0334  0.2778
53713SOL     OW68188   0.844   4.236   2.639 -0.0267  0.1614  0.2123
53713SOL    HW168189   0.789   4.264   2.566 -0.0090  1.2612  0.6027
53713SOL    HW268190   0.820   4.295   2.711  0.5066 -0.4006  0.8639
53714SOL     OW68191   3.508   9.838   0.008 -0.8987 -0.0469  0.0362
53714SOL    HW168192   3.586   9.784   0.020 -0.4541  0.2305 -1.4842
53714SOL    HW268193   3.509   9.898   0.083  1.6045  1.4758 -1.1114
53715SOL     OW68194   9.355  11.899   4.502 -0.1901  0.0191 -0.3576
53715SOL    HW168195   9.266  11.936   4.503 -0.0687  0.3546 -1.1366
53715SOL    HW268196   9.348  11.822   4.446 -0.2268 -0.5962  0.4791
53716SOL     OW68197  11.839   1.494  12.497 -0.5361 -0.0701  0.1890
53716SOL    HW168198  11.747   1.471  12.503 -0.4386 -1.0081 -1.3540
53716SOL    HW268199  11.878   1.425  12.444  0.8504  0.8804 -0.1016
53717SOL     OW68200   9.115   8.749   8.301  0.3567 -0.0207 -0.0938
53717SOL    HW168201   9.071   8.671   8.267 -1.5566  1.6743 -1.7722
53717SOL    HW268202   9.199   8.717   8.335  0.5184 -2.5142 -2.5365
53718SOL     OW68203  10.547   0.041   8.288 -0.1364  0.4712 -0.0220
53718SOL    HW168204  10.562   0.045   8.382 -0.6722  1.8942  0.0293
53718SOL    HW268205  10.534   0.133   8.262  1.0909  0.2294 -1.6667
53719SOL     OW68206  10.308   9.330   0.177  0.2478 -0.2586  0.5836
53719SOL    HW168207  10.393   9.313   0.137 -0.4821  0.9822 -1.6619
53719SOL    HW268208  10.300   9.425   0.177 -1.8234 -0.3733 -0.9017
53720SOL     OW68209   2.521  11.707   0.710  0.1110  0.0780  0.2207
53720SOL    HW168210   2.557  11.714   0.799  1.2136  1.3722 -0.2878
53720SOL    HW268211   2.533  11.794   0.673  1.7269 -0.9742 -1.9459
53721SOL     OW68212  10.110   5.273   4.135 -0.0392 -0.1141 -0.4469
53721SOL    HW168213  10.114   5.185   4.171 -0.8998 -0.1312 -0.3543
53721SOL    HW268214  10.177   5.322   4.182 -0.7408 -0.2867  0.7844
53722SOL     OW68215   4.730  10.574   0.938 -0.2247 -0.3396  0.3521
53722SOL    HW168216   4.653  10.584   0.994 -1.3135 -2.3038 -0.7086
53722SOL    HW268217   4.735  10.480   0.921  1.2619 -0.0145 -1.2283
53723SOL     OW68218   1.076  11.825   4.625  0.2738 -0.2347 -0.3528
53723SOL    HW168219   0.997  11.864   4.586 -0.0879 -0.9843 -0.3847
53723SOL    HW268220   1.124  11.790   4.550 -1.7275 -4.1235 -0.0655
53724SOL     OW68221   9.457   0.535   3.889  0.2696 -0.1178  0.0952
53724SOL    HW168222   9.476   0.579   3.972 -1.6865 -0.1065  0.5803
53724SOL    HW268223   9.535   0.482   3.872  0.7940  0.0238  1.8460
53725SOL     OW68224   6.900   3.348   9.040 -0.1023 -0.1058 -0.4138
53725SOL    HW168225   6.893   3.285   9.113 -0.1603  0.9898  0.5491
53725SOL    HW268226   6.905   3.293   8.962  1.3569 -1.3532  0.5092
53726SOL     OW68227   0.315   7.542   3.975 -0.4417  0.2609  0.8824
53726SOL    HW168228   0.266   7.503   4.047  1.0494 -0.3480  1.6107
53726SOL    HW268229   0.396   7.573   4.016  1.0098 -1.2296 -0.7036
53727SOL     OW68230  10.123   3.282   9.699 -0.1411  0.3834  0.0167
53727SOL    HW168231  10.049   3.246   9.650  0.1332 -1.6131  0.9639
53727SOL    HW268232  10.180   3.320   9.633 -0.7630 -0.4192 -1.0043
53728SOL     OW68233   2.461   7.280   0.317  0.1884  0.5466 -0.0453
53728SOL    HW168234   2.518   7.347   0.356  1.1408 -0.1960 -0.1262
53728SOL    HW268235   2.401   7.256   0.387 -1.2800  2.6508 -0.4906
53729SOL     OW68236   3.928  10.901   8.901 -0.0597 -0.3268  0.2172
53729SOL    HW168237   3.976  10.822   8.877  1.2833 -0.2948  2.5368
53729SOL    HW268238   3.982  10.973   8.868 -0.3940 -0.3398 -0.3676
53730SOL     OW68239   9.767   5.850   8.866 -0.3637  0.3760  0.3256
53730SOL    HW168240   9.682   5.888   8.846 -0.9358  0.6941  2.9847
53730SOL    HW268241   9.749   5.757   8.883  0.5787 -0.6193 -3.2463
53731SOL     OW68242   7.341   0.152   8.665  0.0392 -0.2559  0.0916
53731SOL    HW168243   7.247   0.169   8.673  0.4290  2.0424  0.5539
53731SOL    HW268244   7.382   0.220   8.719  1.9997 -0.4062 -1.1287
53732SOL     OW68245   5.806   3.383   4.531  0.2020 -0.2271  0.2121
53732SOL    HW168246   5.752   3.385   4.609 -1.0703 -0.2809 -0.6405
53732SOL    HW268247   5.860   3.462   4.537 -0.0585 -0.1023  1.0058
53733SOL     OW68248   5.962  11.781  11.505 -0.0272 -0.5199 -0.5165
53733SOL    HW168249   6.041  11.732  11.482  0.0180 -0.3409 -0.7409
53733SOL    HW268250   5.897  11.713  11.525  1.1920 -0.7693  3.3929
53734SOL     OW68251   9.590   3.543   5.909 -0.1691 -0.1594  0.3139
53734SOL    HW168252   9.544   3.624   5.888  0.5453  0.4719  1.1005
53734SOL    HW268253   9.648   3.567   5.982 -0.4897 -1.5609  1.0583
53735SOL     OW68254   8.124   7.869   8.525 -0.2301  0.1233  0.2724
53735SOL    HW168255   8.196   7.880   8.587 -0.5859 -1.8360  1.1198
53735SOL    HW268256   8.047   7.856   8.580 -0.8025 -0.2668 -0.5917
53736SOL     OW68257   1.511   0.776   6.178 -0.2069  0.2967  0.2614
53736SOL    HW168258   1.512   0.685   6.209  0.1891 -1.0633 -3.2699
53736SOL    HW268259   1.428   0.784   6.130 -0.2851  1.8792  0.6030
53737SOL     OW68260   8.827  11.310   2.815 -0.2685  0.0525 -0.3991
53737SOL    HW168261   8.845  11.219   2.791 -1.7705 -1.1157  2.3486
53737SOL    HW268262   8.874  11.322   2.898 -2.1523  0.8820  0.6118
53738SOL     OW68263   7.515   4.550   5.499  0.1352 -0.6818  0.2845
53738SOL    HW168264   7.600   4.571   5.462  1.6661 -1.4215  3.0967
53738SOL    HW268265   7.528   4.467   5.544 -1.7680 -0.2675  1.7492
53739SOL     OW68266   9.234   6.934   3.918 -0.2591  0.3431  0.0896
53739SOL    HW168267   9.260   6.852   3.960  3.4696  0.7302 -1.0887
53739SOL    HW268268   9.164   6.909   3.858 -0.8739 -1.4696  1.4864
53740SOL     OW68269   0.716   4.634   6.820  0.0390  0.1983 -0.3095
53740SOL    HW168270   0.810   4.639   6.804  0.2048  1.5164  0.8842
53740SOL    HW268271   0.706   4.562   6.883  0.2135 -0.1343 -0.6612
53741SOL     OW68272  10.631  11.842   7.527 -0.2696 -0.6272  0.5149
53741SOL    HW168273  10.559  11.781   7.511 -0.9017  0.5105 -1.2274
53741SOL    HW268274  10.692  11.828   7.454 -0.5197  0.9201 -0.0253
53742SOL     OW68275   0.436   3.683   9.459 -0.1809 -1.1026 -0.1721
53742SOL    HW168276   0.387   3.629   9.521  0.3201 -2.2537 -0.7394
53742SOL    HW268277   0.378   3.691   9.383  0.4689 -2.4988 -0.8602
53743SOL     OW68278  11.021  10.881   1.860 -0.3504  0.1079 -0.4440
53743SOL    HW168279  11.035  10.818   1.790 -0.7995  0.8502 -1.2095
53743SOL    HW268280  10.971  10.952   1.820 -0.4258  0.6478  0.5679
53744SOL     OW68281   2.539   0.466   6.240  0.0944  0.2953 -0.2415
53744SOL    HW168282   2.539   0.562   6.237  2.6170  0.3617 -0.1350
53744SOL    HW268283   2.631   0.442   6.236 -0.5005 -2.1724 -0.7437
53745SOL     OW68284   9.270   4.322   5.951  0.0330  0.4238  0.4862
53745SOL    HW168285   9.268   4.288   5.862  0.9626  1.2867  0.1175
53745SOL    HW268286   9.301   4.248   6.004 -0.9672 -0.2328  0.1843
53746SOL     OW68287  11.495   4.259  11.343 -0.2309  0.0240 -0.0246
53746SOL    HW168288  11.492   4.292  11.433  1.8957  0.8590 -0.2268
53746SOL    HW268289  11.570   4.200  11.341 -0.1760  0.1074 -1.2916
53747SOL     OW68290   9.163   4.583   5.861  0.1210  0.0585 -0.1962
53747SOL    HW168291   9.236   4.535   5.900 -0.4002 -0.2284  0.4755
53747SOL    HW268292   9.090   4.520   5.865 -1.0314  1.4180  2.2562
53748SOL     OW68293   3.476  11.462   0.821 -0.0157 -0.6421  0.7422
53748SOL    HW168294   3.433  11.543   0.794 -2.4533 -1.5687  1.4669
53748SOL    HW268295   3.452  11.399   0.752  0.5767 -1.0959  0.9473
53749SOL     OW68296   9.125  11.773   3.338  0.0038 -0.6452  0.1542
53749SOL    HW168297   9.130  11.868   3.326  0.8927 -0.5463  1.1984
53749SOL    HW268298   9.211  11.748   3.372  0.0356 -1.9357 -0.7736
53750SOL     OW68299   4.311  11.860   5.700  0.4633 -0.0569  0.7851
53750SOL    HW168300   4.301  11.870   5.794  1.2546 -2.0610  1.1296
53750SOL    HW268301   4.391  11.908   5.678  0.3019  0.3742  1.1324
53751SOL     OW68302   8.204   2.975   3.833 -0.1232  0.1922  0.9710
53751SOL    HW168303   8.253   2.929   3.765 -1.5044  1.2993 -0.8744
53751SOL    HW268304   8.250   3.059   3.842  1.4425 -0.7960  3.1822
53752SOL     OW68305  12.383   2.027   4.333  0.2958  0.4181 -0.0542
53752SOL    HW168306  12.391   1.954   4.272  1.0386  0.1227  0.3901
53752SOL    HW268307  12.390   2.105   4.277 -1.0489  0.1748 -0.6022
53753SOL     OW68308   0.711   5.202   4.159 -0.8842 -0.0462 -0.5038
53753SOL    HW168309   0.721   5.204   4.064  0.7476 -0.2895 -0.3672
53753SOL    HW268310   0.709   5.294   4.185 -2.8525  0.0571 -0.8701
53754SOL     OW68311   7.748  11.436   1.925  0.4243 -0.2359  0.0568
53754SOL    HW168312   7.711  11.465   1.842  0.2002  0.6456  0.4466
53754SOL    HW268313   7.819  11.376   1.901  1.6733  1.5021 -0.8550
53755SOL     OW68314   5.322   0.633  10.926 -0.0689  0.2588 -0.0221
53755SOL    HW168315   5.368   0.714  10.948 -0.7089  0.4244  0.7795
53755SOL    HW268316   5.267   0.616  11.002 -0.8157 -0.3001 -0.6700
53756SOL     OW68317   8.195   9.895   2.650  0.3827  0.4013  0.2090
53756SOL    HW168318   8.153   9.954   2.587 -0.8074  0.0884  0.6875
53756SOL    HW268319   8.229   9.823   2.597  0.5070  0.7645 -0.2122
53757SOL     OW68320  12.103  10.972   1.387 -0.1725 -0.5248 -0.0653
53757SOL    HW168321  12.056  11.044   1.429 -1.2378 -0.8838 -0.6130
53757SOL    HW268322  12.079  10.978   1.294 -0.6921 -1.8914 -0.0409
53758SOL     OW68323   4.304   0.815   7.663  0.2118  0.2847 -0.5234
53758SOL    HW168324   4.336   0.785   7.578 -0.6133 -0.2586 -0.6625
53758SOL    HW268325   4.376   0.799   7.723 -0.2023 -2.1789 -0.5628
53759SOL     OW68326   8.308   1.942   8.179 -0.5451 -0.7087  0.8384
53759SOL    HW168327   8.267   1.907   8.100  3.8833 -1.2869 -1.5768
53759SOL    HW268328   8.333   2.031   8.154 -0.7746 -0.1956  2.3582
53760SOL     OW68329   7.826   9.142   2.591 -0.5442  0.1632 -0.5370
53760SOL    HW168330   7.818   9.100   2.676 -0.3677 -0.6136 -0.8966
53760SOL    HW268331   7.782   9.083   2.531  0.4489  0.0573 -1.1896
53761SOL     OW68332   6.696   8.018   8.200  0.2070 -0.4373  0.1879
53761SOL    HW168333   6.737   8.104   8.188 -1.3649  0.4528  0.9225
53761SOL    HW268334   6.718   7.970   8.120 -1.0767  1.5827 -1.4945
53762SOL     OW68335   1.411   0.975  11.371 -0.2504  0.1507  0.0274
53762SOL    HW168336   1.447   1.006  11.288 -0.0063 -0.4148 -0.0827
53762SOL    HW268337   1.384   0.885  11.354 -1.3077  0.4142  0.2365
53763SOL     OW68338   0.926   8.675  10.876 -0.2773 -0.1428  0.5009
53763SOL    HW168339   0.931   8.769  10.858 -1.4894 -0.5261 -2.6324
53763SOL    HW268340   1.012   8.652  10.909  0.3860  1.9175  0.3448
53764SOL     OW68341   6.484   4.244   0.640 -0.0888  0.1746 -0.4741
53764SOL    HW168342   6.471   4.329   0.680 -1.8933  0.9424 -2.5245
53764SOL    HW268343   6.425   4.243   0.565  0.6152 -2.5013 -1.1020
53765SOL     OW68344   3.070   0.424   6.376 -0.2302  0.2814 -0.0642
53765SOL    HW168345   3.043   0.373   6.452  0.8952  0.1496  0.2589
53765SOL    HW268346   3.136   0.484   6.410  0.4070  0.1014 -0.9740
53766SOL     OW68347   9.954   7.123   5.295 -0.4204  0.1100  0.0246
53766SOL    HW168348   9.957   7.105   5.389 -0.7420  1.5879  0.3465
53766SOL    HW268349   9.953   7.218   5.289 -0.3753  0.0396 -1.4880
53767SOL     OW68350   0.365   8.519   6.447  0.1659 -0.1621  0.1273
53767SOL    HW168351   0.355   8.542   6.354 -0.5024 -2.6961 -0.5340
53767SOL    HW268352   0.458   8.499   6.457 -0.1071 -2.1439 -0.6919
53768SOL     OW68353   3.186   9.320   3.879 -0.6673  0.3182 -0.0556
53768SOL    HW168354   3.148   9.368   3.953  0.4198 -1.0485  1.4509
53768SOL    HW268355   3.271   9.289   3.911 -0.2364 -0.4480 -1.8291
53769SOL     OW68356   8.432  12.217   7.829 -0.2185  0.1946  0.5704
53769SOL    HW168357   8.413  12.311   7.827 -0.0652  0.2215  0.3165
53769SOL    HW268358   8.413  12.191   7.919  0.4278  0.6170  0.8384
53770SOL     OW68359  10.871   6.638   6.437 -0.4051 -0.5229 -0.2586
53770SOL    HW168360  10.919   6.673   6.512 -1.4645  0.0711  0.1678
53770SOL    HW268361  10.794   6.694   6.430 -1.4039 -1.8934 -0.4895
53771SOL     OW68362   9.791   7.050   6.471  0.4893 -0.7464 -0.0397
53771SOL    HW168363   9.809   6.965   6.431  0.1432 -0.3863 -0.9817
53771SOL    HW268364   9.697   7.063   6.461  0.5519 -0.2087  0.0070
53772SOL     OW68365   0.069   4.584   1.535  0.0065  0.0961  0.6040
53772SOL    HW168366   0.044   4.517   1.471 -1.1626  0.6976  0.4105
53772SOL    HW268367  -0.013   4.627   1.559  0.7874  1.8930  0.2332
53773SOL     OW68368   9.936   2.462   7.534 -0.3508 -0.4043  0.5534
53773SOL    HW168369   9.903   2.538   7.487 -3.1791 -1.1439  1.1422
53773SOL    HW268370   9.857   2.412   7.557  1.1711 -1.9759  2.7868
53774SOL     OW68371  10.928   4.788   1.678  0.2767  0.2320  0.3742
53774SOL    HW168372  10.839   4.820   1.664 -0.4753 -0.8415  2.3707
53774SOL    HW268373  10.969   4.854   1.733 -0.4333 -0.8402  2.2906
53775SOL     OW68374   3.770   7.434  11.114  0.0904  0.5057 -0.3065
53775SOL    HW168375   3.835   7.376  11.152 -0.7408 -0.9037 -0.9611
53775SOL    HW268376   3.755   7.501  11.181  0.2906 -0.6456  0.9247
53776SOL     OW68377   3.999   2.872  11.734 -0.4679  0.1341  0.1004
53776SOL    HW168378   4.076   2.866  11.789  1.2645  1.8868 -1.9639
53776SOL    HW268379   3.996   2.788  11.687  0.8068  0.4206 -0.5267
53777SOL     OW68380   2.679   8.041   1.536 -0.2522 -0.3268 -0.5349
53777SOL    HW168381   2.747   7.986   1.574 -0.5559 -0.1458  0.2938
53777SOL    HW268382   2.724   8.090   1.467  0.4432 -0.2651 -0.0515
53778SOL     OW68383   3.970   9.347  11.710  0.3106  0.0759 -0.1523
53778SOL    HW168384   3.903   9.412  11.691  0.4743  1.1386  2.5451
53778SOL    HW268385   4.036   9.394  11.760  1.2779 -1.7978  0.4300
53779SOL     OW68386   3.452   2.858   7.170  0.2870 -0.4951 -0.7424
53779SOL    HW168387   3.424   2.771   7.140  0.5483 -2.1250  3.0657
53779SOL    HW268388   3.527   2.839   7.228 -1.3178  1.8683  2.4079
53780SOL     OW68389   3.781   5.396   7.329  0.4346  0.5998 -0.2383
53780SOL    HW168390   3.796   5.363   7.241 -0.2547  1.4554 -0.6906
53780SOL    HW268391   3.740   5.322   7.376  1.9572 -0.2743 -0.2425
53781SOL     OW68392   6.336   9.964   8.697 -0.2985  0.7563 -0.4283
53781SOL    HW168393   6.278  10.022   8.648 -0.3345  1.1189  0.0385
53781SOL    HW268394   6.330   9.995   8.787 -0.3592 -0.0078 -0.1661
53782SOL     OW68395   4.460   5.927   0.512 -0.1154 -0.3028  0.4879
53782SOL    HW168396   4.505   6.010   0.528  0.9595 -0.8571  0.3823
53782SOL    HW268397   4.441   5.893   0.599 -0.9191  0.2340  0.5337
53783SOL     OW68398   7.670   4.884   4.510 -0.7148 -0.0714  0.1223
53783SOL    HW168399   7.588   4.846   4.542 -0.8971 -0.9811 -1.3221
53783SOL    HW268400   7.713   4.917   4.589 -3.3838  2.3735  0.7421
53784SOL     OW68401   0.215   8.898   8.527  0.0112 -0.0557  0.2507
53784SOL    HW168402   0.279   8.880   8.596  0.6453 -0.3253 -0.3864
53784SOL    HW268403   0.167   8.816   8.516 -0.2987  0.0823  0.5840
53785SOL     OW68404   7.027   7.255   2.920 -0.6996  0.2860  0.1649
53785SOL    HW168405   7.115   7.254   2.957 -0.4587  0.8878 -0.3721
53785SOL    HW268406   6.973   7.302   2.984 -0.8034 -0.7182  0.8421
53786SOL     OW68407   7.593   8.365   5.667  0.5190 -0.0461  0.0967
53786SOL    HW168408   7.644   8.356   5.587  2.0585 -0.9093  1.1250
53786SOL    HW268409   7.537   8.441   5.652  0.3505 -0.5430 -2.0001
53787SOL     OW68410   8.974   0.349   1.435  0.3751  0.4271 -0.0759
53787SOL    HW168411   8.963   0.257   1.412 -0.5222  0.6830 -0.7486
53787SOL    HW268412   9.068   0.360   1.448  0.5427 -0.4737 -0.4685
53788SOL     OW68413   8.957   4.126   1.479  0.8206 -0.7488 -0.5824
53788SOL    HW168414   9.003   4.077   1.410  1.3648  1.3265 -1.7638
53788SOL    HW268415   8.877   4.158   1.438  0.6375 -0.3525  0.0641
53789SOL     OW68416   0.512   1.659   3.145 -0.1796 -0.8230 -0.4343
53789SOL    HW168417   0.476   1.585   3.096  2.1730 -0.2284 -3.3428
53789SOL    HW268418   0.603   1.666   3.115  0.0278  2.5392  0.5662
53790SOL     OW68419   5.059  12.515  11.329  0.5668 -0.2544  0.0815
53790SOL    HW168420   5.120  12.447  11.303  0.3172  0.3907 -2.4556
53790SOL    HW268421   4.974  12.471  11.332  0.9486 -1.1005  3.4012
53791SOL     OW68422   4.335   6.565  12.374  1.1516 -0.4186  0.4812
53791SOL    HW168423   4.387   6.619  12.433  0.0168 -0.0720  1.2126
53791SOL    HW268424   4.352   6.600  12.287  3.9380 -1.8279  0.3710
53792SOL     OW68425   7.360  12.251   9.769  0.4074  0.1089 -0.0905
53792SOL    HW168426   7.315  12.293   9.696 -0.9434 -0.7439  0.2074
53792SOL    HW268427   7.424  12.193   9.728 -2.0250 -2.3090 -0.8159
53793SOL     OW68428   3.820   0.514   4.065  0.8943  0.0333  0.6735
53793SOL    HW168429   3.784   0.542   3.981 -2.1366 -0.4098  1.6966
53793SOL    HW268430   3.849   0.424   4.051 -2.0858 -1.0263  0.6250
53794SOL     OW68431   3.042   7.155   6.107  0.4001 -0.9144  0.0142
53794SOL    HW168432   2.982   7.146   6.033  1.2078 -0.5398 -0.7056
53794SOL    HW268433   3.030   7.074   6.157 -2.5170  0.1868  1.3164
53795SOL     OW68434   3.351   3.915   0.182  0.6079  0.1515  0.2522
53795SOL    HW168435   3.334   3.939   0.091 -0.3022 -1.4290 -0.0406
53795SOL    HW268436   3.278   3.954   0.231 -0.4301 -1.2397 -0.1100
53796SOL     OW68437   9.765   9.341   6.243 -0.0527  0.2963  0.0978
53796SOL    HW168438   9.773   9.432   6.217 -1.6366  0.7394  1.0712
53796SOL    HW268439   9.698   9.304   6.186 -0.4038  0.1222  0.6068
53797SOL     OW68440   4.182   4.490  12.139 -0.0450  0.0207 -0.4046
53797SOL    HW168441   4.089   4.484  12.116  0.1974  1.4766 -1.9919
53797SOL    HW268442   4.223   4.526  12.060  1.7153  0.3081  0.6091
53798SOL     OW68443   2.665   7.370   4.354 -0.0574  0.1691 -0.4132
53798SOL    HW168444   2.656   7.464   4.368 -0.6086 -0.1312  1.4742
53798SOL    HW268445   2.746   7.346   4.399 -0.9939 -0.5679  0.9439
53799SOL     OW68446   4.130   8.096   9.872  0.0999 -0.0226 -0.2157
53799SOL    HW168447   4.100   8.186   9.887 -0.7651 -0.4701  0.8704
53799SOL    HW268448   4.197   8.104   9.803 -0.7380  1.3175 -0.9216
53800SOL     OW68449   4.895   1.724   0.446  0.2772 -0.1796 -0.1923
53800SOL    HW168450   4.974   1.773   0.469  0.9124 -0.8774 -0.8074
53800SOL    HW268451   4.823   1.776   0.481  1.0183  0.3733  0.5614
53801SOL     OW68452  10.958   6.900  11.937  0.5185  0.6943 -0.1306
53801SOL    HW168453  10.874   6.867  11.970 -0.4062  1.1697 -1.8749
53801SOL    HW268454  11.015   6.902  12.014 -0.3311 -1.8640  0.6517
53802SOL     OW68455  11.125   4.537  10.065 -0.0781  0.4387 -0.7901
53802SOL    HW168456  11.219   4.523  10.075  0.4955  3.0131 -1.7408
53802SOL    HW268457  11.117   4.628  10.039 -2.8547  0.2228 -1.0204
53803SOL     OW68458  10.032   6.312   7.621  0.4283 -0.2340 -0.1309
53803SOL    HW168459  10.005   6.403   7.632 -0.8651 -0.5918 -0.1843
53803SOL    HW268460   9.956   6.269   7.583  0.7948 -1.4758  0.4951
53804SOL     OW68461   6.812   1.916  11.668  0.1543  0.0836 -0.6431
53804SOL    HW168462   6.856   1.851  11.613  1.2225 -1.3098  1.7177
53804SOL    HW268463   6.728   1.876  11.690 -0.2467  0.6119 -1.1852
53805SOL     OW68464  12.127   1.272   9.974 -0.3900 -0.1568 -0.4420
53805SOL    HW168465  12.105   1.250  10.064 -1.0441 -0.0624 -0.5722
53805SOL    HW268466  12.154   1.190   9.935 -0.8850 -0.3544 -0.3775
53806SOL     OW68467   1.788   7.538   5.019  0.1989  0.0984  0.4734
53806SOL    HW168468   1.873   7.567   4.985  0.3326  1.4987  1.8385
53806SOL    HW268469   1.806   7.511   5.109 -0.8850  1.1637  1.0537
53807SOL     OW68470   9.699   6.281  12.409 -0.1193  0.3331  0.0238
53807SOL    HW168471   9.650   6.202  12.430  1.8267 -0.9160  0.0671
53807SOL    HW268472   9.790   6.257  12.423  0.4952  2.8309  0.7838
53808SOL     OW68473   9.744  11.672   0.692  0.2363 -0.3962 -0.3602
53808SOL    HW168474   9.653  11.696   0.711  0.5239 -1.2403  2.4753
53808SOL    HW268475   9.743  11.646   0.600 -1.8008  2.1315 -1.1729
53809SOL     OW68476   3.287   3.564   7.130  0.3441 -0.2752  0.0348
53809SOL    HW168477   3.335   3.599   7.056 -1.1068  2.9912  0.4627
53809SOL    HW268478   3.246   3.484   7.097  2.2288 -0.5861 -1.6873
53810SOL     OW68479   9.443   3.671   9.640 -0.3083  0.1745 -0.5363
53810SOL    HW168480   9.350   3.683   9.657 -0.1861  2.3823 -1.1608
53810SOL    HW268481   9.450   3.581   9.607 -2.1839 -0.0449 -0.4179
53811SOL     OW68482  11.977  11.049   2.181 -0.3105 -0.1136 -0.0045
53811SOL    HW168483  11.938  11.030   2.096  1.6104 -0.6471 -0.8186
53811SOL    HW268484  11.909  11.025   2.244 -1.1320 -1.4395 -1.3086
53812SOL     OW68485   9.523  12.393   7.190  0.1690  0.2496  0.2223
53812SOL    HW168486   9.571  12.393   7.108  1.3084  0.6466  0.8805
53812SOL    HW268487   9.517  12.300   7.214  4.5800  0.2996  2.3656
53813SOL     OW68488   3.582   5.572   2.750  0.3667  0.1278  0.2644
53813SOL    HW168489   3.621   5.499   2.799  1.3231  1.2226  1.2171
53813SOL    HW268490   3.641   5.586   2.676  0.2375 -0.0007  0.1369
53814SOL     OW68491   6.612   2.180   4.499  0.3431 -0.0931 -0.0809
53814SOL    HW168492   6.698   2.174   4.460 -0.0043 -0.0629 -0.8676
53814SOL    HW268493   6.553   2.142   4.434 -0.4168  1.2532 -0.2198
53815SOL     OW68494   8.963   5.374   0.008 -0.9395  0.4943 -0.1991
53815SOL    HW168495   8.924   5.354   0.093 -1.5308  2.0182 -0.0800
53815SOL    HW268496   8.968   5.290  -0.036 -1.3685 -0.2085  1.0342
53816SOL     OW68497  10.540   3.482   5.382 -0.0323 -0.6954  0.4227
53816SOL    HW168498  10.597   3.493   5.306 -0.8415 -0.8019 -0.2212
53816SOL    HW268499  10.474   3.419   5.354 -1.7225  0.9771  0.3612
53817SOL     OW68500   8.551   8.159  11.024 -0.1002  0.3110  0.4302
53817SOL    HW168501   8.553   8.161  11.120  1.7489  1.8082  0.4209
53817SOL    HW268502   8.458   8.162  11.001 -0.5521  0.4358  2.1671
53818SOL     OW68503   4.111   9.626   7.294  0.4037  0.5022 -0.5335
53818SOL    HW168504   4.058   9.549   7.315 -1.3027  1.6398 -0.4903
53818SOL    HW268505   4.148   9.653   7.378 -1.0242  1.1688 -0.0959
53819SOL     OW68506   2.489   0.089   5.498 -0.0249 -0.4860 -0.5592
53819SOL    HW168507   2.527   0.082   5.585 -1.2309 -2.1635 -0.1037
53819SOL    HW268508   2.425   0.159   5.505  0.9975  0.4706 -0.5668
53820SOL     OW68509   9.814  12.315   4.949  0.0185  0.0885 -0.4708
53820SOL    HW168510   9.812  12.232   4.997  0.3888 -0.8623 -2.0508
53820SOL    HW268511   9.772  12.377   5.009  1.9918 -0.6257  1.8224
53821SOL     OW68512   9.822   4.147   5.539  0.1260 -0.0167 -0.0502
53821SOL    HW168513   9.879   4.072   5.558 -1.9396 -1.5862  0.4173
53821SOL    HW268514   9.800   4.136   5.446  0.0814  0.2081 -0.0658
53822SOL     OW68515   7.647   6.593   9.108  0.1898 -0.0554 -0.4328
53822SOL    HW168516   7.600   6.510   9.101  0.3597 -0.3172  1.2193
53822SOL    HW268517   7.594   6.654   9.056 -1.2951 -0.6427  0.3357
53823SOL     OW68518   6.225   7.960   7.209  0.3587  0.2742  0.4047
53823SOL    HW168519   6.285   8.009   7.264 -0.0171  1.1447  0.0606
53823SOL    HW268520   6.276   7.937   7.131 -0.1895  2.6294 -0.7616
53824SOL     OW68521   2.651   3.585   8.259 -0.2960 -0.2279 -0.5883
53824SOL    HW168522   2.630   3.495   8.234  2.4774 -2.1931  3.0362
53824SOL    HW268523   2.579   3.611   8.316  0.9417 -2.1765  2.1026
53825SOL     OW68524  11.482   1.700   5.198 -0.2441  0.0917  0.0929
53825SOL    HW168525  11.509   1.701   5.106  2.4646  1.5720  0.7835
53825SOL    HW268526  11.436   1.783   5.210 -0.6194 -0.1129  0.0875
53826SOL     OW68527   2.372   6.096   2.760 -0.1746  0.0583  0.4606
53826SOL    HW168528   2.431   6.082   2.686 -0.3929  2.0127 -0.1387
53826SOL    HW268529   2.388   6.021   2.818 -0.2258 -1.7011 -1.6638
53827SOL     OW68530   1.357   1.236   0.353  0.0025  0.4718 -0.2410
53827SOL    HW168531   1.434   1.243   0.298  0.3325  0.5957  0.2276
53827SOL    HW268532   1.388   1.257   0.441 -0.9107  2.3236 -0.3087
53828SOL     OW68533   8.425   6.073   0.716  0.1613 -0.3459  0.4084
53828SOL    HW168534   8.382   5.996   0.754 -3.0368  0.5334 -1.0691
53828SOL    HW268535   8.368   6.146   0.740  1.9731  1.2837 -0.0366
53829SOL     OW68536   8.879   7.861   2.224  0.1326 -0.0176  0.1326
53829SOL    HW168537   8.946   7.865   2.156 -2.2916 -1.4535 -2.5483
53829SOL    HW268538   8.880   7.770   2.254  0.6379  0.4165  1.5247
53830SOL     OW68539  11.077   0.402   1.704  0.5206 -0.6932 -0.0289
53830SOL    HW168540  11.154   0.384   1.758 -0.5889 -1.9547  1.2040
53830SOL    HW268541  11.099   0.366   1.618  1.8116  0.2029 -0.1197
53831SOL     OW68542   3.101  10.101  12.456 -0.2616  0.4002 -0.2040
53831SOL    HW168543   3.019  10.060  12.426  0.9359 -1.2781 -1.3626
53831SOL    HW268544   3.165  10.031  12.453  1.3870  1.8355  0.0437
53832SOL     OW68545   1.211  11.937   4.014  0.1729  0.3085 -0.5125
53832SOL    HW168546   1.141  11.945   4.078  0.9767  0.0405  0.4207
53832SOL    HW268547   1.180  11.872   3.951  0.1584 -0.8781  0.6884
53833SOL     OW68548   7.478   8.742   1.588  0.8250 -0.7481 -0.1285
53833SOL    HW168549   7.555   8.798   1.599  1.3488 -1.3096 -0.8597
53833SOL    HW268550   7.486   8.707   1.499 -1.1637  0.5233 -0.8850
53834SOL     OW68551   2.244  12.466   6.971  0.0621 -0.1843  0.1513
53834SOL    HW168552   2.194  12.528   7.023 -0.4728  0.2485 -0.8576
53834SOL    HW268553   2.312  12.518   6.930 -0.2685 -0.2989 -0.5461
53835SOL     OW68554   8.711   3.035   6.546 -0.1381  0.0177 -0.0861
53835SOL    HW168555   8.742   2.946   6.533  1.2451  0.7409 -2.4292
53835SOL    HW268556   8.724   3.052   6.639  1.2616 -1.6380  0.0575
53836SOL     OW68557   9.900   7.112   2.551 -0.1123 -0.6140  0.0094
53836SOL    HW168558   9.891   7.142   2.460  1.4018  0.7115  0.2381
53836SOL    HW268559   9.860   7.025   2.552  0.4302 -0.9497 -2.0947
53837SOL     OW68560   3.441  10.736   8.925 -0.1167  1.1179 -0.1008
53837SOL    HW168561   3.386  10.813   8.937 -1.3473  0.1870  0.3946
53837SOL    HW268562   3.406  10.671   8.986  3.2601  1.3275  2.4102
53838SOL     OW68563   2.603   4.741   9.964  0.2518  0.0137 -0.1439
53838SOL    HW168564   2.538   4.734  10.034 -0.0434  0.4913 -0.3656
53838SOL    HW268565   2.584   4.668   9.905  0.2476 -0.1531  0.0628
53839SOL     OW68566   8.067   4.341   5.305  0.0554 -0.3114  0.3493
53839SOL    HW168567   8.030   4.332   5.217 -1.4708  0.5282  0.8602
53839SOL    HW268568   8.158   4.312   5.296 -0.5525 -1.9672 -1.1016
53840SOL     OW68569   9.330   5.920   5.654 -0.0266  0.1270 -0.2829
53840SOL    HW168570   9.339   6.007   5.616  1.0294  1.2327  2.2937
53840SOL    HW268571   9.403   5.870   5.617  1.2619  1.3050  0.5868
53841SOL     OW68572   9.923  11.379   3.086 -0.2080  0.5311  0.4307
53841SOL    HW168573   9.951  11.459   3.131  0.1527  0.0062  1.1573
53841SOL    HW268574   9.885  11.325   3.156  1.5400 -0.8475  0.3673
53842SOL     OW68575   7.463   6.216   3.068  0.0314 -0.3760  0.3598
53842SOL    HW168576   7.449   6.189   2.977  0.7284 -0.0018  0.1364
53842SOL    HW268577   7.485   6.135   3.114  2.5607 -0.1818 -0.3947
53843SOL     OW68578   6.372   1.492  11.537 -0.5289 -0.3436 -0.0159
53843SOL    HW168579   6.338   1.402  11.539 -0.2769 -0.5943 -3.2130
53843SOL    HW268580   6.420   1.500  11.620 -1.3606 -2.7997  0.8053
53844SOL     OW68581  10.471   2.505   2.023  0.5516  0.0912  0.4015
53844SOL    HW168582  10.396   2.494   2.082  0.5637 -0.1598  0.3719
53844SOL    HW268583  10.542   2.537   2.079  0.4224  0.3316  0.4289
53845SOL     OW68584   4.738   9.973   0.170 -0.5022 -0.4849 -0.0733
53845SOL    HW168585   4.695  10.055   0.194 -0.0015 -0.0773 -0.5406
53845SOL    HW268586   4.715   9.960   0.077  2.6911  1.2806 -1.2483
53846SOL     OW68587   5.188   9.726  10.772 -0.0998 -0.3254  0.0217
53846SOL    HW168588   5.224   9.651  10.726 -2.2703 -0.7358 -1.1629
53846SOL    HW268589   5.145   9.688  10.849  1.8663  0.1600  1.4463
53847SOL     OW68590  12.207   3.751   8.556  0.0974  0.1110 -0.0068
53847SOL    HW168591  12.116   3.747   8.527 -1.0744  2.0557  2.9207
53847SOL    HW268592  12.251   3.804   8.490 -1.2736  0.4470 -0.6940
53848SOL     OW68593   4.629   4.771   0.652 -0.1071 -0.1606  0.2040
53848SOL    HW168594   4.654   4.720   0.575 -0.5497 -1.3514  0.8179
53848SOL    HW268595   4.702   4.760   0.713 -0.0151  0.3013  0.1790
53849SOL     OW68596  11.205   0.102   9.940  0.5441 -0.5168 -0.1024
53849SOL    HW168597  11.251   0.166   9.885 -1.3389  1.1653  0.1677
53849SOL    HW268598  11.192   0.147  10.023  1.6625 -2.3425  1.1443
53850SOL     OW68599   1.159  10.569   9.560 -0.0891  0.4984  0.1214
53850SOL    HW168600   1.126  10.637   9.500 -1.6540  0.5888  1.0139
53850SOL    HW268601   1.128  10.487   9.522  1.1441  0.3278 -0.5476
53851SOL     OW68602   2.098   2.695  10.816  0.6105  0.3100  0.1363
53851SOL    HW168603   2.034   2.643  10.767  0.7111  0.4951 -0.1884
53851SOL    HW268604   2.149   2.741  10.750  0.4347  0.9337  0.4261
53852SOL     OW68605   9.536   0.352  10.926  0.3651 -0.3133 -0.5224
53852SOL    HW168606   9.574   0.276  10.882  1.8230  0.3560 -0.5063
53852SOL    HW268607   9.470   0.384  10.865 -0.3679 -1.6546 -0.4632
53853SOL     OW68608   3.668  10.978   8.346 -0.0720 -0.0895 -0.0237
53853SOL    HW168609   3.575  10.978   8.368 -0.6343  1.4905 -2.0707
53853SOL    HW268610   3.712  11.015   8.423 -1.1631 -0.6365  0.8688
53854SOL     OW68611   4.426   5.162   9.778  0.1245  0.1229  0.0770
53854SOL    HW168612   4.382   5.234   9.823  0.5082 -0.5896  1.6591
53854SOL    HW268613   4.477   5.118   9.846  1.2794 -0.6036 -1.1959
53855SOL     OW68614   4.190   3.800   2.105  0.2883  0.3270 -0.2734
53855SOL    HW168615   4.150   3.722   2.067 -0.3978 -0.0989  1.2408
53855SOL    HW268616   4.208   3.776   2.196 -1.1892  2.3316  0.6303
53856SOL     OW68617   2.981   4.603  10.532  0.1988 -0.0631 -0.4214
53856SOL    HW168618   2.921   4.646  10.593  3.7851 -0.4218  3.8747
53856SOL    HW268619   3.033   4.674  10.494  1.4188 -0.0408  1.1784
53857SOL     OW68620   8.499   9.977   2.457  0.1581  0.4425 -0.1674
53857SOL    HW168621   8.485  10.011   2.545 -2.2143  0.6699 -0.5637
53857SOL    HW268622   8.525   9.886   2.470  1.3726  0.9090  0.7831
53858SOL     OW68623  10.093   5.291   6.702  0.4479  0.3322  0.2761
53858SOL    HW168624  10.035   5.273   6.627 -0.9446  1.4379  1.0366
53858SOL    HW268625  10.109   5.205   6.740 -2.1931  0.0769  1.0621
53859SOL     OW68626  11.182   3.231   5.279  0.2616  0.0822  0.1802
53859SOL    HW168627  11.120   3.300   5.303  1.2608  0.4365  1.8584
53859SOL    HW268628  11.246   3.276   5.224  0.5534  0.3590  0.7373
53860SOL     OW68629  10.362   2.061  11.382 -0.4753 -0.0694  0.4377
53860SOL    HW168630  10.335   2.049  11.291  0.6560  2.5265 -0.3179
53860SOL    HW268631  10.439   2.004  11.391 -0.9168 -0.7559 -0.0593
53861SOL     OW68632   9.317   7.269  12.078  0.7168 -0.3083  0.5575
53861SOL    HW168633   9.302   7.179  12.051  1.4309 -0.8930  1.9797
53861SOL    HW268634   9.408   7.288  12.053  0.1234  0.5744 -1.1003
53862SOL     OW68635   2.866   8.341  11.250  0.7490 -0.6567 -0.0756
53862SOL    HW168636   2.788   8.349  11.305  0.3735 -0.4487 -0.6257
53862SOL    HW268637   2.838   8.371  11.163  0.6847 -2.9791 -0.9520
53863SOL     OW68638  11.681   1.507  10.006  0.4755  0.0808 -0.1527
53863SOL    HW168639  11.699   1.583  10.061 -0.5119 -0.4333  0.9385
53863SOL    HW268640  11.635   1.446  10.064  0.4888 -0.9956 -1.2302
53864SOL     OW68641  10.457   9.092   1.914 -0.2127 -0.8410 -0.4174
53864SOL    HW168642  10.398   9.127   1.980 -1.1273  0.8977 -2.0590
53864SOL    HW268643  10.491   9.011   1.952 -0.0725  0.4880  2.4685
53865SOL     OW68644   8.881   4.041   6.628  0.0461  0.1380 -0.3644
53865SOL    HW168645   8.861   4.115   6.571  0.6164  1.3673  0.9498
53865SOL    HW268646   8.816   3.975   6.605 -0.3221  0.9473 -1.7559
53866SOL     OW68647  11.325   3.960   1.219 -0.1322 -0.1960  0.3609
53866SOL    HW168648  11.321   3.865   1.230  0.0910 -0.1349  0.9631
53866SOL    HW268649  11.236   3.984   1.194 -0.5436 -0.3947  1.5668
53867SOL     OW68650   8.956   3.679  10.988  0.5423  0.3000 -0.1376
53867SOL    HW168651   8.903   3.647  10.915  0.0812  0.4916  0.1102
53867SOL    HW268652   9.045   3.683  10.953  1.0092 -2.9748  0.2976
53868SOL     OW68653   4.467   9.749   1.275  0.6675 -1.1560  0.0248
53868SOL    HW168654   4.481   9.718   1.365  0.3077 -1.4079 -0.0061
53868SOL    HW268655   4.373   9.746   1.263  0.5143  0.9270  0.3580
53869SOL     OW68656  12.571   5.680   7.146 -0.3410  0.0413  0.0678
53869SOL    HW168657  12.490   5.661   7.193  0.1033  1.2133  1.3477
53869SOL    HW268658  12.615   5.595   7.138 -2.0818 -0.7743 -1.4619
53870SOL     OW68659  12.438   6.631  11.338  0.4358 -0.0999 -0.4683
53870SOL    HW168660  12.381   6.640  11.415  0.8938 -0.8350 -0.0284
53870SOL    HW268661  12.393   6.569  11.281  0.9814 -1.0098  0.0724
53871SOL     OW68662   4.156   0.321   9.670  0.3529  0.0549  0.1078
53871SOL    HW168663   4.141   0.363   9.755  2.4152  1.7586 -0.2618
53871SOL    HW268664   4.174   0.394   9.610  0.8297 -1.1986 -1.3467
53872SOL     OW68665  10.875  10.917  10.503 -0.7194  0.4416  0.3461
53872SOL    HW168666  10.865  10.844  10.441  1.8014  0.7677 -0.5678
53872SOL    HW268667  10.812  10.983  10.472 -1.4319 -0.4615 -0.1870
53873SOL     OW68668   8.711   9.934  11.379  0.1274  0.6721 -0.4002
53873SOL    HW168669   8.788   9.982  11.409  0.7999  0.2066 -1.3372
53873SOL    HW268670   8.742   9.882  11.305 -1.0405  0.3056 -0.6570
53874SOL     OW68671   8.808  12.489   5.335 -0.3470  0.7316 -0.1050
53874SOL    HW168672   8.718  12.516   5.319 -0.9202 -0.8746  0.1784
53874SOL    HW268673   8.841  12.462   5.249 -0.0382  1.5685 -0.2543
53875SOL     OW68674   6.600   9.645   6.641 -0.1400 -0.3137  0.0171
53875SOL    HW168675   6.673   9.637   6.580  0.2076  0.5925  0.2971
53875SOL    HW268676   6.589   9.739   6.653  0.0906 -0.4744  1.6924
53876SOL     OW68677   8.148   5.574   4.410  0.5004  0.1764 -0.0577
53876SOL    HW168678   8.208   5.517   4.362  0.3392 -1.0680  1.1273
53876SOL    HW268679   8.094   5.615   4.343  2.0707  0.6417 -1.0919
53877SOL     OW68680   6.858  10.593   1.862  0.1072  0.2734  0.9883
53877SOL    HW168681   6.901  10.577   1.777 -0.1367  1.0259  0.7170
53877SOL    HW268682   6.882  10.517   1.915  0.2655 -0.2109  0.2446
53878SOL     OW68683  12.063  12.166   8.594 -0.0343  0.0363  0.2888
53878SOL    HW168684  11.994  12.103   8.615  0.5463 -0.7474 -0.1172
53878SOL    HW268685  12.116  12.122   8.528 -0.3078  1.4246 -0.9057
53879SOL     OW68686   1.331   6.738   3.907  0.4970  0.1487 -0.4495
53879SOL    HW168687   1.290   6.770   3.827  0.6752 -0.4154 -0.7743
53879SOL    HW268688   1.265   6.752   3.975  0.8862  1.9817 -0.4062
53880SOL     OW68689   4.376   7.517   4.022  0.4570 -0.3158  0.1698
53880SOL    HW168690   4.469   7.534   4.009  0.4684 -1.2679 -1.1878
53880SOL    HW268691   4.335   7.548   3.941 -0.1190 -1.9031 -0.1745
53881SOL     OW68692   7.322   8.181   3.871  0.2270 -0.0729 -0.2828
53881SOL    HW168693   7.257   8.156   3.936 -0.5832  1.2605 -0.5315
53881SOL    HW268694   7.398   8.125   3.889 -0.2737 -0.2970  1.2749
53882SOL     OW68695  12.042   3.263   0.296 -0.0111 -0.2891 -0.2890
53882SOL    HW168696  12.080   3.349   0.312 -1.2453  0.3417 -0.5912
53882SOL    HW268697  12.008   3.269   0.206  0.1163 -1.1782 -0.4001
53883SOL     OW68698   1.354   3.862   1.420  0.0066  0.2571  0.3073
53883SOL    HW168699   1.414   3.865   1.346  1.0867 -1.4709  1.0494
53883SOL    HW268700   1.375   3.780   1.465 -2.4056 -0.0310  1.0454
53884SOL     OW68701   1.049   3.272   3.783  0.0363  0.3418 -0.1564
53884SOL    HW168702   0.969   3.290   3.734  0.5351 -1.5022 -1.7759
53884SOL    HW268703   1.064   3.178   3.770  1.4316  0.2630  1.7101
53885SOL     OW68704   1.123   1.261   7.449 -0.3523  0.2446 -0.4079
53885SOL    HW168705   1.190   1.309   7.497  0.7816 -1.2245 -0.4262
53885SOL    HW268706   1.152   1.170   7.454 -2.1966 -0.3856 -0.7182
53886SOL     OW68707   1.025   1.498   2.097  0.9133  0.0224  0.0340
53886SOL    HW168708   1.034   1.480   2.004 -0.2785  1.5756 -0.4468
53886SOL    HW268709   1.068   1.583   2.109  0.3273  0.2358  0.7091
53887SOL     OW68710   0.012   6.621   9.876  0.0574  0.4492  0.0864
53887SOL    HW168711   0.033   6.620   9.783  0.3004 -0.5798  0.1358
53887SOL    HW268712  -0.000   6.529   9.899 -2.2944  0.8124  0.5782
53888SOL     OW68713  10.502   5.829   7.980 -0.2417  0.0285  0.1379
53888SOL    HW168714  10.487   5.840   7.886  1.0947  2.9331  0.1341
53888SOL    HW268715  10.415   5.828   8.019 -0.7821  0.5066 -1.0127
53889SOL     OW68716   9.144   4.413   0.336 -0.7649 -0.2582  0.4548
53889SOL    HW168717   9.049   4.409   0.325 -0.9205  1.2554  0.9359
53889SOL    HW268718   9.163   4.507   0.348  0.7318 -0.5750  0.8445
53890SOL     OW68719  11.556   2.918  11.239  0.2247 -0.4251  0.0173
53890SOL    HW168720  11.489   2.854  11.263 -0.1844 -0.2431 -0.6259
53890SOL    HW268721  11.509   3.002  11.235  0.9550  0.1190  1.9011
53891SOL     OW68722  10.192   7.074   2.781 -0.0951 -0.1271  0.0708
53891SOL    HW168723  10.183   7.153   2.728  1.3437 -0.0687 -0.0995
53891SOL    HW268724  10.256   7.097   2.848 -0.0186 -1.0113  0.3058
53892SOL     OW68725   9.371  10.805  12.200  0.1675 -0.0665 -0.0329
53892SOL    HW168726   9.437  10.810  12.269 -1.6727 -1.0573  1.9335
53892SOL    HW268727   9.352  10.711  12.192 -1.4489  0.2364 -0.0606
53893SOL     OW68728   1.390   8.207  11.512  0.0294 -0.2895 -0.5387
53893SOL    HW168729   1.317   8.226  11.571  2.0501 -0.0809  2.1362
53893SOL    HW268730   1.392   8.112  11.506  0.7032 -0.4370  1.1646
53894SOL     OW68731   5.958  10.195   9.132 -0.3773 -0.2863 -0.6046
53894SOL    HW168732   5.986  10.194   9.224 -1.5884  1.9752 -0.1349
53894SOL    HW268733   6.037  10.217   9.083  0.1482 -0.8926 -0.0398
53895SOL     OW68734   4.482   9.073   9.635 -0.6409 -0.2967 -0.7515
53895SOL    HW168735   4.386   9.079   9.636 -0.6127  2.1847 -2.3649
53895SOL    HW268736   4.508   9.134   9.566  2.1519 -0.4006  0.1077
53896SOL     OW68737  11.420   3.804   7.483  0.2646 -0.2894  0.1625
53896SOL    HW168738  11.470   3.760   7.415 -0.1905 -1.9678  0.8492
53896SOL    HW268739  11.338   3.829   7.440  0.0572 -1.1652  0.0281
53897SOL     OW68740   8.336   4.523   1.782 -0.4043 -0.4296  0.4020
53897SOL    HW168741   8.408   4.546   1.840 -1.3866  0.4220  1.3352
53897SOL    HW268742   8.278   4.599   1.785 -1.4973 -1.2229 -0.0650
53898SOL     OW68743   3.775   4.665   9.853  0.0712 -0.0101 -0.6797
53898SOL    HW168744   3.794   4.667   9.760  2.1712  0.6653 -0.2763
53898SOL    HW268745   3.738   4.751   9.872  0.7205  0.2736 -0.6877
53899SOL     OW68746  10.348   3.406   0.289 -0.6009  0.2805 -0.3283
53899SOL    HW168747  10.383   3.325   0.327 -0.9589  0.6665  0.8658
53899SOL    HW268748  10.389   3.476   0.340  0.5603  0.9357 -2.0522
53900SOL     OW68749   6.697   1.698  12.353  0.1047 -0.0940 -0.1826
53900SOL    HW168750   6.701   1.781  12.400 -0.7914 -0.4816  0.6085
53900SOL    HW268751   6.610   1.664  12.371  0.3195 -1.0316 -0.8097
53901SOL     OW68752  11.464   8.732   7.399  0.5444  0.2893 -0.1798
53901SOL    HW168753  11.548   8.729   7.353  0.3681  0.3557 -0.5096
53901SOL    HW268754  11.482   8.779   7.480  0.8010  0.4024 -0.3013
53902SOL     OW68755  12.354   8.623  11.312  0.1823 -0.4187  0.7839
53902SOL    HW168756  12.263   8.596  11.302  0.0463  0.3186 -0.1540
53902SOL    HW268757  12.398   8.547  11.350 -1.0106 -0.4303  2.1896
53903SOL     OW68758  12.317   7.897  11.141  0.1010 -0.1775  0.8017
53903SOL    HW168759  12.251   7.957  11.106 -0.1945 -0.6000  0.6319
53903SOL    HW268760  12.400   7.931  11.108 -0.1134 -0.1782  0.2445
53904SOL     OW68761  11.827   9.619   4.905 -0.1535 -0.0985  0.2299
53904SOL    HW168762  11.818   9.582   4.993 -0.0600 -0.3454  0.1345
53904SOL    HW268763  11.774   9.563   4.849 -2.5343  1.6460  0.5497
53905SOL     OW68764  10.586  11.323   3.332 -0.2726 -0.5902 -0.0841
53905SOL    HW168765  10.657  11.293   3.388  0.3023  0.3875 -0.2644
53905SOL    HW268766  10.627  11.388   3.274 -1.4213  0.3981  0.1801
53906SOL     OW68767   6.023   9.756   5.818  0.6679  0.0042  0.1564
53906SOL    HW168768   6.072   9.674   5.824  1.2715  0.4382  1.8956
53906SOL    HW268769   5.963   9.753   5.892  0.2293  0.8398 -0.1539
53907SOL     OW68770   9.345  12.382   4.270 -0.6266  0.4465 -0.4771
53907SOL    HW168771   9.382  12.468   4.286 -2.9804  1.5863 -0.6798
53907SOL    HW268772   9.399  12.345   4.200  1.2653  1.1278  0.5481
53908SOL     OW68773   8.603  11.661   0.005 -0.0751 -0.2090 -0.3036
53908SOL    HW168774   8.596  11.651   0.100  0.1134 -1.0781 -0.3724
53908SOL    HW268775   8.675  11.721  -0.008  1.2166 -1.6223  0.0652
53909SOL     OW68776   0.470   0.886  11.365 -0.0014  0.1220 -0.0195
53909SOL    HW168777   0.449   0.951  11.431 -0.2312  0.6531 -0.6059
53909SOL    HW268778   0.408   0.815  11.380  0.7868 -0.3627  1.1544
53910SOL     OW68779  10.517  10.035   7.319 -0.2105  0.4604 -0.0560
53910SOL    HW168780  10.430  10.045   7.357  0.1705  0.6561  0.7862
53910SOL    HW268781  10.514   9.950   7.275 -0.1693 -0.5581  1.7964
53911SOL     OW68782  12.477   0.033   6.920  0.2065 -0.2037 -0.2889
53911SOL    HW168783  12.520  -0.012   6.847  2.9872  0.8511  0.5450
53911SOL    HW268784  12.469  -0.034   6.988  3.9351  0.1976  0.7913
53912SOL     OW68785  10.092   3.149   6.443  0.7094  0.0617 -0.4774
53912SOL    HW168786  10.042   3.223   6.478  1.1295  0.4849 -0.7574
53912SOL    HW268787  10.030   3.076   6.442  0.1603  0.5237 -0.6177
53913SOL     OW68788   7.694  10.419   0.557  0.3958 -0.3320  0.2330
53913SOL    HW168789   7.668  10.499   0.511  1.3106  0.4136  0.9729
53913SOL    HW268790   7.790  10.423   0.559  0.4107 -0.9392  1.1690
53914SOL     OW68791   7.950  10.792   8.209 -0.5091 -0.4794 -0.0664
53914SOL    HW168792   8.030  10.844   8.211 -0.1415 -1.0343  2.1471
53914SOL    HW268793   7.950  10.750   8.123  0.5410  1.0524 -0.8597
53915SOL     OW68794  11.657   8.306   1.934  0.3713  0.3455 -0.0674
53915SOL    HW168795  11.681   8.394   1.906 -0.5875  1.0573  1.2056
53915SOL    HW268796  11.579   8.319   1.989 -1.5685 -1.5755 -2.1336
53916SOL     OW68797  11.374   1.370   3.147  0.7867 -0.4192 -0.3076
53916SOL    HW168798  11.402   1.447   3.196  0.3155 -0.2470 -0.2973
53916SOL    HW268799  11.454   1.334   3.111  0.8693  0.9740 -1.6273
53917SOL     OW68800   7.428   6.578  12.445 -0.0826  0.6502 -0.5122
53917SOL    HW168801   7.471   6.629  12.514 -0.0279  0.6299 -0.5317
53917SOL    HW268802   7.343   6.621  12.434 -0.6164 -0.1198  0.4652
53918SOL     OW68803   4.036   3.382  12.225  0.4110  0.3695  0.0136
53918SOL    HW168804   3.994   3.433  12.294 -0.2101  1.4500 -1.1392
53918SOL    HW268805   4.019   3.291  12.249  0.1840  0.7121  1.2532
53919SOL     OW68806   4.177   5.141  10.747 -0.4468  0.0420 -0.2173
53919SOL    HW168807   4.266   5.162  10.775 -0.0085 -0.5902 -1.0787
53919SOL    HW268808   4.142   5.223  10.713  0.8047 -0.2384 -2.4042
53920SOL     OW68809   8.070  12.157  10.530 -0.3221  0.3458  0.1208
53920SOL    HW168810   8.020  12.096  10.475 -0.3130  1.4600 -1.1900
53920SOL    HW268811   8.040  12.139  10.619  0.3794 -2.2042 -0.0728
53921SOL     OW68812   5.018   7.826   1.140  0.3300  0.1877  0.0854
53921SOL    HW168813   4.981   7.738   1.148 -1.0103  0.8365  1.5652
53921SOL    HW268814   5.004   7.850   1.049 -0.3658 -0.6867 -0.0502
53922SOL     OW68815  12.142   9.724  12.216 -0.5355 -0.4348 -0.8915
53922SOL    HW168816  12.077   9.747  12.282 -1.0234 -0.4216 -1.3645
53922SOL    HW268817  12.150   9.629  12.221 -1.0024 -0.4962 -1.1965
53923SOL     OW68818   6.368   8.872   8.968  0.4898  0.3372  0.3884
53923SOL    HW168819   6.280   8.893   8.935 -0.3067 -0.7773  1.6837
53923SOL    HW268820   6.412   8.830   8.894 -0.4348 -0.0285  0.0325
53924SOL     OW68821   8.731   1.076   3.989  0.0127 -0.1769  0.1902
53924SOL    HW168822   8.750   1.001   3.933  0.9550 -0.1926  0.5158
53924SOL    HW268823   8.693   1.038   4.069 -1.6195 -0.1345 -0.5251
53925SOL     OW68824   8.189   6.896   4.278 -0.3706  0.2343 -0.0914
53925SOL    HW168825   8.186   6.803   4.256 -2.2859  0.4515 -0.9153
53925SOL    HW268826   8.125   6.907   4.347  0.8997  0.7276  1.0552
53926SOL     OW68827  11.807  10.837  10.211  0.8260  0.0145 -0.4157
53926SOL    HW168828  11.854  10.846  10.128  0.5768  3.7431 -0.3138
53926SOL    HW268829  11.865  10.876  10.276 -0.3942  0.2128  0.5792
53927SOL     OW68830   7.964   4.810   0.953  0.4936 -0.1784 -0.4450
53927SOL    HW168831   7.988   4.861   1.029  0.3580  2.3049 -1.9568
53927SOL    HW268832   7.870   4.793   0.964  0.7752 -1.1369  0.6135
53928SOL     OW68833  11.549  10.758   0.559 -0.0023  0.1884  0.4718
53928SOL    HW168834  11.600  10.819   0.611 -0.1985  0.7840 -0.0271
53928SOL    HW268835  11.565  10.784   0.468  1.9240 -2.0319  0.0612
53929SOL     OW68836   9.082  11.293   8.532 -0.1397  0.0674  1.1608
53929SOL    HW168837   9.085  11.279   8.438 -0.0178  1.2544  0.9795
53929SOL    HW268838   9.129  11.217   8.569 -0.9632 -0.8656  0.3381
53930SOL     OW68839  12.060  11.559   0.062 -0.1492  0.4220  0.1354
53930SOL    HW168840  12.098  11.645   0.047 -1.1905  0.9790  0.5871
53930SOL    HW268841  12.121  11.516   0.121  0.4508  0.7972 -0.2102
53931SOL     OW68842   3.296  11.575   3.485  0.5749  0.1877 -0.0712
53931SOL    HW168843   3.387  11.577   3.457  0.0930  1.7191 -1.6545
53931SOL    HW268844   3.268  11.667   3.484 -1.5206 -0.4003 -1.5082
53932SOL     OW68845   5.925   3.547  11.135  0.4828 -0.3778 -0.5364
53932SOL    HW168846   5.988   3.529  11.065  0.1625  1.0436 -1.2301
53932SOL    HW268847   5.920   3.643  11.138  0.2214 -0.4222  1.2125
53933SOL     OW68848   7.004   1.737   4.953 -0.3932  0.1912 -0.0185
53933SOL    HW168849   7.044   1.711   5.036  0.3135  0.5577 -0.2376
53933SOL    HW268850   7.075   1.731   4.889 -0.4755  1.6213 -0.2748
53934SOL     OW68851   1.795   5.762   4.578 -0.5215  0.3591  1.0242
53934SOL    HW168852   1.728   5.700   4.607  0.0072 -0.3790  0.7134
53934SOL    HW268853   1.877   5.723   4.607  0.1051 -0.6983 -1.8165
53935SOL     OW68854   7.418  10.097   0.179  0.2177 -0.0674  0.2818
53935SOL    HW168855   7.481  10.047   0.128  0.9361 -0.5065  1.5672
53935SOL    HW268856   7.379  10.158   0.116  0.9424 -0.7160 -0.8154
53936SOL     OW68857   9.005  12.435   2.554 -0.1934 -0.3730  0.3808
53936SOL    HW168858   9.044  12.518   2.526  2.4371 -1.0460  1.7590
53936SOL    HW268859   8.986  12.389   2.472  1.1331  0.3699 -0.3786
53937SOL     OW68860   9.408  10.512   4.829 -0.0866 -0.2763 -0.6216
53937SOL    HW168861   9.323  10.472   4.813  0.6065 -1.5182 -1.3390
53937SOL    HW268862   9.417  10.514   4.924 -0.3135 -1.4732 -0.5644
53938SOL     OW68863   1.537   9.205  11.367 -0.0942 -0.5822  0.4149
53938SOL    HW168864   1.482   9.283  11.354  3.1589  1.8547  0.0068
53938SOL    HW268865   1.587   9.198  11.286  0.8324 -2.1890  1.0906
53939SOL     OW68866  12.448   9.593   8.366 -0.5360  0.3308 -0.3112
53939SOL    HW168867  12.400   9.561   8.443 -0.5776 -0.8853 -0.8275
53939SOL    HW268868  12.530   9.545   8.367 -0.9884 -0.5305 -1.6159
53940SOL     OW68869   2.385   3.918   1.773  0.1117  0.3324 -0.0828
53940SOL    HW168870   2.404   3.827   1.748  0.1901  0.3212  0.0185
53940SOL    HW268871   2.290   3.926   1.762  0.1117  0.2538 -0.1446
53941SOL     OW68872   3.514  11.423  11.926 -0.2689  0.0233 -0.3235
53941SOL    HW168873   3.553  11.480  11.859  1.5666 -0.3757  0.3681
53941SOL    HW268874   3.587  11.400  11.984 -1.3934 -1.3690  0.5941
53942SOL     OW68875   9.747  10.094   6.643 -0.0192  0.2951 -0.0273
53942SOL    HW168876   9.764  10.185   6.667  1.2236 -0.2774  1.4593
53942SOL    HW268877   9.663  10.074   6.684  0.3060  0.4366  0.7344
53943SOL     OW68878  11.970   7.277   7.024  0.0455  0.2516  1.0621
53943SOL    HW168879  11.992   7.294   6.933 -0.3445 -0.3000  0.8583
53943SOL    HW268880  12.008   7.191   7.043 -3.0087 -1.4612  0.2505
53944SOL     OW68881   6.883   5.161   1.620 -0.1581  0.4768 -0.2536
53944SOL    HW168882   6.802   5.114   1.639 -0.1619  0.3971 -0.4686
53944SOL    HW268883   6.888   5.228   1.689  0.4317 -0.5469  0.7238
53945SOL     OW68884  10.327   4.149  10.781  0.9812 -0.3777 -0.2945
53945SOL    HW168885  10.307   4.056  10.767 -0.7706 -0.3234  1.4130
53945SOL    HW268886  10.281   4.194  10.710 -0.4035 -0.6742  0.3707
53946SOL     OW68887   7.741  11.449   5.809 -0.4706  0.1840 -0.3737
53946SOL    HW168888   7.709  11.485   5.727  1.8551 -1.6748 -2.2557
53946SOL    HW268889   7.676  11.382   5.833  0.1197 -1.1470 -2.2467
53947SOL     OW68890  12.205  12.502   5.338 -0.6471 -0.6366  0.0178
53947SOL    HW168891  12.171  12.531   5.423 -0.1146 -1.9055  0.6800
53947SOL    HW268892  12.143  12.539   5.274 -1.6898 -0.5992  1.0214
53948SOL     OW68893  10.785   8.919   2.784  0.2904 -0.4069 -0.1120
53948SOL    HW168894  10.872   8.948   2.811  0.0569 -0.5729  0.8483
53948SOL    HW268895  10.782   8.826   2.805  0.2478 -0.6542 -1.1396
53949SOL     OW68896   5.911  11.615   6.022 -0.1018  0.0139 -0.5899
53949SOL    HW168897   5.993  11.579   6.058 -0.9008 -1.8154 -0.4862
53949SOL    HW268898   5.893  11.560   5.946 -1.3705  0.2074 -0.4467
53950SOL     OW68899   6.997   1.128   4.099  0.1088  0.6215  0.1882
53950SOL    HW168900   7.016   1.216   4.131 -0.8844  0.8198  0.2828
53950SOL    HW268901   7.002   1.136   4.004  0.8411  0.5757  0.2198
53951SOL     OW68902   6.311   9.149  10.952 -0.1705 -0.3610  0.6139
53951SOL    HW168903   6.333   9.094  10.877  0.5246  0.6467  0.0630
53951SOL    HW268904   6.242   9.100  10.998 -1.9308 -0.1628 -1.6689
53952SOL     OW68905   3.211   4.070   0.650  0.2795 -0.2189  0.6912
53952SOL    HW168906   3.139   4.112   0.603  0.9800  1.4017  0.9889
53952SOL    HW268907   3.260   4.023   0.581  0.5933  1.1163 -0.0337
53953SOL     OW68908   4.555   2.383   4.857 -0.4859  1.0292 -0.7636
53953SOL    HW168909   4.563   2.377   4.952 -1.7976  1.5602 -0.5992
53953SOL    HW268910   4.479   2.439   4.842 -1.1136 -0.0919 -2.1110
53954SOL     OW68911   7.311   7.436  10.051  0.0267 -0.1405 -0.5105
53954SOL    HW168912   7.217   7.424  10.041  0.0854 -0.3786 -0.7925
53954SOL    HW268913   7.345   7.348  10.066  0.4173 -0.3195 -2.2040
53955SOL     OW68914   3.885   8.714   7.310  0.2039  0.2151  0.2014
53955SOL    HW168915   3.857   8.651   7.243  1.5645 -1.8315  1.4548
53955SOL    HW268916   3.969   8.747   7.279  0.0406  0.5495  0.1084
53956SOL     OW68917   9.995   2.755  12.125  0.5027  0.2952 -0.1369
53956SOL    HW168918   9.904   2.780  12.140  0.6009 -0.2265  1.5671
53956SOL    HW268919   9.994   2.708  12.042 -0.4695  1.7746 -1.0121
53957SOL     OW68920   8.136   4.791  11.190 -0.5241 -0.4638  0.0742
53957SOL    HW168921   8.058   4.742  11.167 -2.1438  1.9378  0.0329
53957SOL    HW268922   8.115   4.832  11.274  1.2915 -0.9019  0.7960
53958SOL     OW68923   8.113  10.949  11.919 -0.2879  0.4119 -0.2535
53958SOL    HW168924   8.017  10.950  11.918 -0.3591 -0.1826  1.5160
53958SOL    HW268925   8.136  10.856  11.929  0.3413  0.7402  1.9858
53959SOL     OW68926   1.652   0.438   9.030 -0.0602  0.1064 -0.4879
53959SOL    HW168927   1.684   0.381   8.960  0.5515  1.3332 -1.2440
53959SOL    HW268928   1.567   0.402   9.054  1.0277 -2.1402  0.2743
53960SOL     OW68929  12.284   2.501   5.234  0.1388 -0.2434  0.6013
53960SOL    HW168930  12.331   2.567   5.286  2.1699 -0.2921 -1.0731
53960SOL    HW268931  12.261   2.433   5.298  1.4026  0.2884  1.6878
53961SOL     OW68932   8.850  10.216   4.365  0.3329  0.5764  0.2108
53961SOL    HW168933   8.909  10.208   4.440  2.3027  1.1660 -1.1914
53961SOL    HW268934   8.866  10.305   4.332 -1.9293  1.0422  0.1952
53962SOL     OW68935   3.620   1.123   6.028 -0.0149 -0.7012  0.3337
53962SOL    HW168936   3.668   1.175   5.964 -0.7129 -2.3011 -1.5954
53962SOL    HW268937   3.530   1.155   6.024 -0.2870 -1.4956 -0.3132
53963SOL     OW68938   6.786  10.291   5.698 -0.5076  0.2827  0.2517
53963SOL    HW168939   6.840  10.216   5.723 -1.5517 -0.6934 -0.3473
53963SOL    HW268940   6.727  10.257   5.631 -1.3210  1.5244  0.3038
53964SOL     OW68941   9.173  10.926   1.136 -0.3415 -0.4807 -0.0452
53964SOL    HW168942   9.118  11.000   1.111  0.7003  0.3429  0.0229
53964SOL    HW268943   9.160  10.862   1.066 -1.2188 -0.2282 -0.1270
53965SOL     OW68944   0.239   7.382  11.237  0.8220  0.0223  0.1927
53965SOL    HW168945   0.325   7.422  11.251  1.0342  0.3753 -1.7941
53965SOL    HW268946   0.258   7.290  11.220  0.7368 -0.0382  0.4183
53966SOL     OW68947   1.567   1.930   6.528 -0.1331  0.7711 -0.5011
53966SOL    HW168948   1.497   1.996   6.524  1.2319  2.3757  0.5876
53966SOL    HW268949   1.620   1.946   6.450 -0.3601  0.2694 -0.7636
53967SOL     OW68950   0.948   3.302   9.816  0.4763 -0.1765 -0.0838
53967SOL    HW168951   1.010   3.232   9.796 -1.2085 -1.6406 -0.4765
53967SOL    HW268952   0.905   3.321   9.732  1.3757  1.8594 -0.1350
53968SOL     OW68953  12.151   5.032  11.349 -0.4963 -0.9424 -0.2576
53968SOL    HW168954  12.101   5.108  11.378  0.2369  0.0812 -1.5501
53968SOL    HW268955  12.242   5.052  11.371 -0.2668 -1.3308 -0.8088
53969SOL     OW68956   4.755   4.121   1.596 -0.6592 -0.0536 -0.1370
53969SOL    HW168957   4.747   4.053   1.663  1.0655  1.2568  1.4557
53969SOL    HW268958   4.849   4.129   1.580 -0.9619  0.4858 -1.8999
53970SOL     OW68959   0.059   8.033   3.211  0.1154  0.0492  0.3552
53970SOL    HW168960   0.104   8.113   3.182 -1.3185  0.2446 -1.5182
53970SOL    HW268961   0.129   7.969   3.221  0.9768  0.7116 -1.1479
53971SOL     OW68962   7.392   8.797  11.876  0.1052 -0.1750  0.3197
53971SOL    HW168963   7.310   8.808  11.925 -0.4580  1.1836 -0.8576
53971SOL    HW268964   7.427   8.885  11.869  0.9469 -0.5584 -0.4079
53972SOL     OW68965   0.168   8.805   4.470 -0.5054  0.1170 -0.2452
53972SOL    HW168966   0.185   8.721   4.513 -2.1873  1.3871  3.3393
53972SOL    HW268967   0.086   8.792   4.423 -1.5298  0.0187  1.4705
53973SOL     OW68968   1.182   4.547   2.326 -0.0216  0.2939  0.0749
53973SOL    HW168969   1.199   4.453   2.332 -1.6722 -0.0176  0.4127
53973SOL    HW268970   1.091   4.557   2.354  0.2663  2.0648  0.5148
53974SOL     OW68971  12.109   2.484   3.864 -0.2118  0.1244 -0.0898
53974SOL    HW168972  12.039   2.447   3.919 -0.2391  1.8180  1.0886
53974SOL    HW268973  12.079   2.572   3.843  1.5351  0.8745  0.3954
53975SOL     OW68974   7.793   9.395   2.108  0.4704  0.1207  0.3756
53975SOL    HW168975   7.699   9.408   2.097  0.4314 -0.9619 -0.8765
53975SOL    HW268976   7.832   9.479   2.084 -0.1196  0.2483 -0.1687
53976SOL     OW68977   5.032   9.259   6.525  0.2722  0.4264 -0.3445
53976SOL    HW168978   5.096   9.247   6.455 -0.5935  1.0213 -1.2679
53976SOL    HW268979   4.947   9.245   6.482 -0.2499  0.2144  0.7227
53977SOL     OW68980  11.997   9.025  11.254 -0.0969  0.0001  0.1132
53977SOL    HW168981  11.968   8.948  11.303  1.5566  0.0492  1.2333
53977SOL    HW268982  12.087   9.039  11.281 -0.4723  2.6093  0.2944
53978SOL     OW68983   6.153  10.787   7.508 -0.5029  0.4821 -0.0855
53978SOL    HW168984   6.163  10.709   7.454 -0.8444  1.1155 -1.0935
53978SOL    HW268985   6.241  10.804   7.542 -0.2481  0.1565 -0.5700
53979SOL     OW68986   6.777   7.605   3.822 -0.7762  0.7886  0.5751
53979SOL    HW168987   6.698   7.650   3.852 -3.2741 -1.8976 -1.3464
53979SOL    HW268988   6.788   7.533   3.885 -2.1596 -0.9779 -1.0582
53980SOL     OW68989   6.994   5.974   4.015 -0.8451  0.6121  0.1666
53980SOL    HW168990   6.949   5.907   4.066 -0.5719 -0.1243 -0.5338
53980SOL    HW268991   7.073   5.931   3.984  0.2873  1.8393  1.2440
53981SOL     OW68992  10.248  12.043  11.103  0.5965  0.3844 -0.0361
53981SOL    HW168993  10.207  12.110  11.158 -1.0079 -1.1946  0.8228
53981SOL    HW268994  10.299  11.989  11.164  0.3175 -0.2876 -0.3820
53982SOL     OW68995   0.922   8.903   6.232 -0.2362 -0.5132 -0.2680
53982SOL    HW168996   0.917   8.984   6.181  0.9579 -0.8599 -0.9788
53982SOL    HW268997   0.907   8.834   6.168  0.1078 -0.9063  0.0725
53983SOL     OW68998   6.078   1.030   5.517  0.1484  0.3410 -0.2242
53983SOL    HW168999   6.090   0.951   5.571 -0.3913  1.0449  0.9776
53983SOL    HW269000   6.079   1.102   5.580 -0.0904  1.2415 -1.2204
53984SOL     OW69001   3.735   8.631   5.498  0.0415  0.6819 -0.1624
53984SOL    HW169002   3.673   8.566   5.530  1.6601 -0.6373  0.4233
53984SOL    HW269003   3.695   8.715   5.519 -2.0671 -0.0922 -0.8790
53985SOL     OW69004  11.046  10.179   5.635 -0.0933 -0.2687 -0.6310
53985SOL    HW169005  11.081  10.150   5.719  1.6719 -0.1564 -1.2820
53985SOL    HW269006  10.958  10.142   5.631 -0.4243  0.1960  1.4915
53986SOL     OW69007   5.433  10.025   9.624 -0.0112  0.5609 -0.2366
53986SOL    HW169008   5.507  10.077   9.591 -0.0540  1.0511  0.3989
53986SOL    HW269009   5.461   9.996   9.711  0.2870 -1.0952 -0.8611
53987SOL     OW69010  11.439   5.793  10.548 -0.0953 -1.3521  0.3919
53987SOL    HW169011  11.398   5.869  10.588 -0.4958 -1.4215  0.1099
53987SOL    HW269012  11.418   5.721  10.608  2.7771 -0.7806  2.3088
53988SOL     OW69013   3.919  11.948  11.708 -0.3586 -0.0122 -0.1275
53988SOL    HW169014   3.914  11.944  11.803  1.4849 -2.8673 -0.0395
53988SOL    HW269015   3.830  11.934  11.677 -0.7647 -0.3233  1.1625
53989SOL     OW69016   9.899   9.183   8.896 -0.4763 -0.1227  0.5638
53989SOL    HW169017   9.847   9.121   8.846 -1.6468  0.4864  1.0062
53989SOL    HW269018   9.838   9.252   8.922  0.4048  0.2974  1.6357
53990SOL     OW69019   2.436   1.385   9.074  0.0529 -0.6353 -0.1262
53990SOL    HW169020   2.375   1.346   9.011  1.0146 -2.2723 -0.0920
53990SOL    HW269021   2.382   1.409   9.149 -0.7108 -1.0419 -0.5402
53991SOL     OW69022   0.302   1.512   8.284  0.1589  0.0498  0.8246
53991SOL    HW169023   0.301   1.466   8.367  1.1064 -0.5158  0.5409
53991SOL    HW269024   0.395   1.524   8.264  0.0026 -0.9727 -0.7454
53992SOL     OW69025   5.064   6.661   9.110 -0.1109  0.1115  0.0285
53992SOL    HW169026   5.144   6.651   9.163  0.3388 -1.2402 -0.8484
53992SOL    HW269027   5.000   6.604   9.151 -0.6409  1.1581  0.7008
53993SOL     OW69028   4.840   4.162  12.379  0.1430 -0.0624 -0.0977
53993SOL    HW169029   4.884   4.237  12.419  2.0892 -0.4320 -1.4232
53993SOL    HW269030   4.837   4.096  12.449  1.1124  0.2121  0.2163
53994SOL     OW69031   1.922   8.672  11.750 -0.2666  0.1653 -0.0385
53994SOL    HW169032   1.947   8.736  11.816  0.9733 -1.2512  0.9308
53994SOL    HW269033   1.999   8.664  11.694 -0.3404 -0.5891 -0.0423
53995SOL     OW69034   2.559   7.458   2.259 -0.4928 -0.0453  0.3742
53995SOL    HW169035   2.642   7.424   2.292 -2.0290 -1.6824  2.9328
53995SOL    HW269036   2.570   7.553   2.255  2.1720 -0.3187 -1.6515
53996SOL     OW69037   1.165   3.465   0.717 -0.2587  0.2629 -0.0755
53996SOL    HW169038   1.141   3.520   0.792 -0.3342 -0.3857  0.3815
53996SOL    HW269039   1.202   3.386   0.756  0.0072  0.0569 -0.7342
53997SOL     OW69040   1.895   8.982   3.077 -0.2848 -0.0550 -0.0608
53997SOL    HW169041   1.936   8.945   3.154  0.0506 -0.4097 -0.4052
53997SOL    HW269042   1.847   8.910   3.038 -1.1826  0.3384  0.2947
53998SOL     OW69043   5.415   3.032   4.814 -0.4551  0.2418  0.3061
53998SOL    HW169044   5.369   2.998   4.737 -1.8406  0.4337  1.0168
53998SOL    HW269045   5.452   3.115   4.784  0.2120 -0.3393 -0.5303
53999SOL     OW69046   0.926   2.431  11.842  0.1244  0.5735 -0.4997
53999SOL    HW169047   1.013   2.404  11.812  0.3197  1.9054 -1.2016
53999SOL    HW269048   0.923   2.525  11.825 -0.9389  0.8098  0.8098
54000SOL     OW69049   5.172  11.588  11.671 -0.0537 -0.2699  0.3440
54000SOL    HW169050   5.179  11.537  11.752 -0.9110  0.3728  0.8328
54000SOL    HW269051   5.210  11.673  11.693  0.3433 -0.3170 -0.1412
54001SOL     OW69052   7.651   2.112   2.359 -0.5246 -0.5671 -0.3830
54001SOL    HW169053   7.716   2.099   2.428 -1.6939  3.5374  1.8372
54001SOL    HW269054   7.595   2.035   2.363  0.7220 -1.4331  1.7749
54002SOL     OW69055   4.200   7.250   9.485 -0.0230 -0.3639 -0.7415
54002SOL    HW169056   4.264   7.319   9.504 -0.0400 -0.3733 -0.6471
54002SOL    HW269057   4.254   7.173   9.466 -0.0054 -0.4087 -0.5198
54003SOL     OW69058   7.456   8.806   0.698  0.0164  0.2934  0.2329
54003SOL    HW169059   7.374   8.799   0.748 -0.4973 -0.8418 -0.7321
54003SOL    HW269060   7.516   8.851   0.758 -0.4449 -1.3667  2.0787
54004SOL     OW69061   0.194   7.874   2.218  0.0182 -0.0464  0.0237
54004SOL    HW169062   0.254   7.801   2.231 -2.2942 -1.8726  1.1583
54004SOL    HW269063   0.207   7.900   2.127  0.3816 -2.4330 -0.6782
54005SOL     OW69064   4.849   9.062   2.410 -0.7649 -0.6005  0.5830
54005SOL    HW169065   4.765   9.101   2.434 -0.5628 -0.4587  1.0531
54005SOL    HW269066   4.896   9.052   2.492  0.6921  1.6814  0.1053
54006SOL     OW69067  12.410  12.303  10.558 -0.7823 -0.1366  0.4082
54006SOL    HW169068  12.488  12.296  10.504  0.3003  0.3293  1.8463
54006SOL    HW269069  12.358  12.225  10.537 -0.4077  0.0275 -1.2587
54007SOL     OW69070   8.702   8.094   4.139 -0.1332  0.0083  0.5401
54007SOL    HW169071   8.687   8.183   4.108  0.9469 -0.4755 -1.5095
54007SOL    HW269072   8.743   8.105   4.225  0.0444  1.4749  0.2869
54008SOL     OW69073   0.742   2.933   7.983 -0.1152 -0.1832  0.0938
54008SOL    HW169074   0.726   2.885   7.903 -0.9252 -0.7380  0.5749
54008SOL    HW269075   0.821   2.985   7.965 -0.3961 -0.1601 -1.1042
54009SOL     OW69076  11.847   4.039   1.694 -0.3986 -0.7658  0.0029
54009SOL    HW169077  11.802   4.122   1.710  0.3268  0.0742 -1.9708
54009SOL    HW269078  11.813   3.980   1.761 -1.2695  0.9897  1.1915
54010SOL     OW69079  10.543   1.262   5.216 -0.2352  0.1492  0.2256
54010SOL    HW169080  10.594   1.330   5.260 -1.2930 -1.2759  4.1299
54010SOL    HW269081  10.558   1.183   5.269 -2.7006 -1.4640 -1.2691
54011SOL     OW69082  12.466   3.492   7.317 -0.1744  0.1671 -0.2656
54011SOL    HW169083  12.433   3.582   7.318  1.6622  0.8732  0.0069
54011SOL    HW269084  12.512   3.484   7.233  0.7781 -0.0796  0.2643
54012SOL     OW69085   4.682   6.007   5.655 -0.0380 -0.3968 -0.4598
54012SOL    HW169086   4.689   6.102   5.670  1.0744 -0.6268  0.5237
54012SOL    HW269087   4.768   5.981   5.622 -0.2219 -1.1272 -0.3811
54013SOL     OW69088  12.034   9.135   2.080 -0.2311 -0.0293 -0.1616
54013SOL    HW169089  11.970   9.099   2.142  0.5231  0.1870  0.7675
54013SOL    HW269090  12.022   9.229   2.085  0.1205  0.0083 -0.0301
54014SOL     OW69091   8.301   2.769   6.396  0.2022 -0.0658 -0.3976
54014SOL    HW169092   8.382   2.772   6.446  0.4668  1.8966 -0.8746
54014SOL    HW269093   8.310   2.692   6.340  0.9041 -0.9346  0.8674
54015SOL     OW69094   8.123   8.755   5.468  0.1440  0.1677  0.2673
54015SOL    HW169095   8.173   8.835   5.452 -0.6006  0.2538 -1.8936
54015SOL    HW269096   8.078   8.738   5.385  0.9825 -2.9693  0.3196
54016SOL     OW69097   2.614   3.387   6.226 -0.3364  0.3674  0.4143
54016SOL    HW169098   2.556   3.453   6.264  0.7069  0.7029  1.4640
54016SOL    HW269099   2.690   3.436   6.196  0.0181 -0.2342  0.3043
54017SOL     OW69100   1.803   0.991   7.998 -0.7234  0.1732  0.0346
54017SOL    HW169101   1.765   1.062   8.050 -2.0701 -0.2057 -0.3977
54017SOL    HW269102   1.893   1.019   7.981 -1.7472  2.7587 -1.8199
54018SOL     OW69103   9.936   4.864   5.930  0.1001 -0.2056  0.2266
54018SOL    HW169104   9.885   4.945   5.930  1.7557  0.8864  0.3932
54018SOL    HW269105  10.027   4.893   5.921  0.8544 -1.9763  1.6001
54019SOL     OW69106   6.469   1.307   8.284 -0.1032 -0.3078  0.2159
54019SOL    HW169107   6.502   1.301   8.374 -0.8867  0.1972  0.5482
54019SOL    HW269108   6.545   1.289   8.229  0.4781 -0.2155  0.9739
54020SOL     OW69109   7.509   7.933   8.399  0.4252 -0.3463  0.8602
54020SOL    HW169110   7.425   7.928   8.444 -0.0493 -2.0347 -0.1101
54020SOL    HW269111   7.500   8.007   8.339 -0.1835 -0.2235  1.1006
54021SOL     OW69112   0.100   5.633  12.506 -0.1326  0.0166  0.3627
54021SOL    HW169113   0.170   5.600  12.562  0.1156 -0.5575 -0.2801
54021SOL    HW269114   0.028   5.654  12.567  0.6363  0.7673  1.0459
54022SOL     OW69115   4.884  11.075   8.683 -0.1812 -0.4828 -0.6665
54022SOL    HW169116   4.973  11.056   8.714 -0.5391 -0.7776  0.2057
54022SOL    HW269117   4.837  10.993   8.694 -1.4593  0.5030  2.1269
54023SOL     OW69118  12.196   4.006   4.178  0.3236  0.3908 -0.1027
54023SOL    HW169119  12.176   3.912   4.178  1.7849  0.0549 -0.8118
54023SOL    HW269120  12.260   4.017   4.108  1.5354  1.6120  1.1193
54024SOL     OW69121   0.402  12.270  11.937 -0.2211 -0.2451  0.0906
54024SOL    HW169122   0.455  12.273  12.017  0.4344  0.5163 -0.3551
54024SOL    HW269123   0.464  12.248  11.868 -0.0316  2.6005 -0.7622
54025SOL     OW69124  12.238   4.857   5.267 -0.3272 -0.8011  0.4605
54025SOL    HW169125  12.254   4.913   5.191 -0.7202 -2.3651 -0.8360
54025SOL    HW269126  12.315   4.869   5.322 -0.2707  0.7643  0.0958
54026SOL     OW69127   2.974  12.334  11.568 -0.5535 -0.0017  0.2267
54026SOL    HW169128   2.994  12.331  11.662 -1.3388 -0.0372  0.3938
54026SOL    HW269129   2.965  12.242  11.543 -0.3889  0.0101  0.1250
54027SOL     OW69130   3.880   7.488   6.708 -0.2522 -0.4076 -0.3221
54027SOL    HW169131   3.787   7.473   6.693 -0.0194 -1.9091 -0.4185
54027SOL    HW269132   3.922   7.406   6.683  0.8207 -0.7454  2.2842
54028SOL     OW69133   8.639   6.871   7.911  0.3401  0.0285  0.0305
54028SOL    HW169134   8.680   6.955   7.933  0.1630 -0.6733  3.4847
54028SOL    HW269135   8.713   6.811   7.900  0.4857  0.5916 -2.8027
54029SOL     OW69136   5.860   5.283   4.226  0.0983  0.6378 -0.0419
54029SOL    HW169137   5.933   5.224   4.247 -0.1715  0.4038  0.2408
54029SOL    HW269138   5.871   5.303   4.133 -0.7783 -1.2052 -0.5819
54030SOL     OW69139   5.589   2.802   4.408  0.6475  0.5132 -0.0589
54030SOL    HW169140   5.669   2.752   4.421  3.0313  3.5421 -1.6825
54030SOL    HW269141   5.537   2.750   4.347  3.3075  0.2422 -2.2561
54031SOL     OW69142  10.700   0.234   0.784 -0.6032  0.2598  0.4505
54031SOL    HW169143  10.680   0.305   0.845  1.1409  1.0033  0.1970
54031SOL    HW269144  10.735   0.277   0.706 -1.3940 -0.7701 -0.5080
54032SOL     OW69145   8.756   6.625  12.573 -0.3294 -0.5455 -0.1694
54032SOL    HW169146   8.764   6.529  12.576  0.4617 -0.4682  0.8882
54032SOL    HW269147   8.838   6.657  12.610 -0.8687  0.5322  0.1307
54033SOL     OW69148   8.912   5.893   2.510  0.1071  0.0066 -0.2808
54033SOL    HW169149   8.991   5.913   2.561 -0.7314 -0.7040  1.3835
54033SOL    HW269150   8.864   5.975   2.507 -0.0178 -0.0348  0.4372
54034SOL     OW69151  11.316   6.879   8.381  0.8378 -0.0749 -0.4161
54034SOL    HW169152  11.294   6.823   8.306  0.0891  0.4017 -0.5597
54034SOL    HW269153  11.310   6.821   8.457 -2.0114  0.2175 -0.2996
54035SOL     OW69154   9.061  10.392   6.514 -0.6257 -0.0212  0.1921
54035SOL    HW169155   9.100  10.314   6.554 -0.0261  1.3098  2.3630
54035SOL    HW269156   8.969  10.388   6.539 -0.7791 -0.4315 -0.4090
54036SOL     OW69157   0.114  12.512   0.986  0.1204 -0.1875 -0.1341
54036SOL    HW169158   0.057  12.468   1.049  1.9976 -2.0433  0.3619
54036SOL    HW269159   0.200  12.514   1.029  1.2199 -0.5731 -2.2025
54037SOL     OW69160   2.574   2.880   6.154 -0.2636  0.0884 -0.2635
54037SOL    HW169161   2.577   2.970   6.120  0.1911  0.1375 -0.0979
54037SOL    HW269162   2.488   2.873   6.195 -1.3934 -0.3823 -2.5590
54038SOL     OW69163   3.511   1.170  11.264 -0.2260  0.4034  0.1177
54038SOL    HW169164   3.489   1.117  11.340  1.4757 -0.3136  0.1304
54038SOL    HW269165   3.494   1.113  11.189 -0.5169  0.6173  0.0165
54039SOL     OW69166   1.010  11.128   2.760  0.0752 -0.5407 -0.0521
54039SOL    HW169167   1.095  11.091   2.782  0.3776  0.7031  1.0005
54039SOL    HW269168   0.968  11.062   2.704  0.9076 -2.0671  1.0651
54040SOL     OW69169  10.633  11.354   9.709  0.1300 -0.0712  0.2777
54040SOL    HW169170  10.574  11.282   9.730  0.1736 -0.0349  0.5299
54040SOL    HW269171  10.594  11.396   9.632 -0.2755  0.0677  0.5557
54041SOL     OW69172   9.679   3.350   2.262 -0.2230  0.2702  0.2871
54041SOL    HW169173   9.659   3.364   2.354  0.9005 -1.7329  0.9054
54041SOL    HW269174   9.597   3.316   2.225 -0.9752  2.0065  0.2623
54042SOL     OW69175   8.445   9.851  10.048 -0.0014  0.2105  0.3194
54042SOL    HW169176   8.477   9.823  10.134  0.9120  1.2145  0.3375
54042SOL    HW269177   8.475   9.942  10.041  0.0395  0.0985 -1.1161
54043SOL     OW69178   9.315   0.494   0.538  0.0381  0.0463  0.1082
54043SOL    HW169179   9.256   0.541   0.597 -2.1926 -0.5032 -1.5589
54043SOL    HW269180   9.340   0.415   0.587 -1.2218 -0.0685  0.6042
54044SOL     OW69181   2.281  10.648   6.419  0.2113  0.2442  0.8439
54044SOL    HW169182   2.287  10.709   6.492 -1.1637  1.0673  0.3015
54044SOL    HW269183   2.191  10.616   6.422  0.5322 -0.7402  0.3113
54045SOL     OW69184   8.725   2.062   7.524  0.3291 -0.2701  0.3721
54045SOL    HW169185   8.785   2.108   7.583 -0.2546  0.0967  0.6931
54045SOL    HW269186   8.773   1.984   7.497  1.6732  0.8929 -0.8163
54046SOL     OW69187   7.432   3.067   2.740  0.4106 -0.0707 -0.2403
54046SOL    HW169188   7.382   3.004   2.689 -0.4218  1.3306 -1.2157
54046SOL    HW269189   7.517   3.024   2.755 -0.7758 -2.2027  0.8672
54047SOL     OW69190   0.576   6.524  10.375 -0.0517 -0.0647 -0.4462
54047SOL    HW169191   0.541   6.439  10.398  0.0934  0.1627  0.6666
54047SOL    HW269192   0.501   6.583  10.377 -0.1074 -0.1143 -0.9625
54048SOL     OW69193   4.807   0.858  12.281 -0.3207 -0.2686 -0.0194
54048SOL    HW169194   4.848   0.775  12.257 -0.1566 -0.0828 -0.4016
54048SOL    HW269195   4.714   0.845  12.265 -0.3408 -0.4931  0.2649
54049SOL     OW69196  11.531   2.801   4.599  0.3830 -0.0601 -0.1873
54049SOL    HW169197  11.558   2.716   4.635 -1.7806 -1.4259 -1.5203
54049SOL    HW269198  11.461   2.830   4.658  1.4929  1.1451  0.5953
54050SOL     OW69199   1.002   8.149   6.242 -0.0824  0.5862 -0.1130
54050SOL    HW169200   0.972   8.155   6.333  0.1658 -0.7131  0.0766
54050SOL    HW269201   0.927   8.180   6.191 -1.8466 -2.4708  0.3547
54051SOL     OW69202   0.198   2.865   6.479 -0.1218 -0.1421  0.3587
54051SOL    HW169203   0.138   2.816   6.535 -1.2784  0.6262 -0.1804
54051SOL    HW269204   0.263   2.901   6.540 -0.7934 -0.1314  1.0915
54052SOL     OW69205   9.361   8.369   2.155 -0.5935 -0.3547 -0.0551
54052SOL    HW169206   9.438   8.371   2.099 -1.3295 -1.8153 -1.1884
54052SOL    HW269207   9.289   8.399   2.099 -1.3847 -2.0744 -0.0314
54053SOL     OW69208   6.060   4.906   0.418  0.0752 -0.1778  0.3590
54053SOL    HW169209   6.008   4.910   0.337 -0.4028  0.7115  0.6938
54053SOL    HW269210   6.075   4.998   0.440 -1.5957 -0.3394  2.4289
54054SOL     OW69211   6.931  10.589   7.408 -0.1893 -0.1013 -0.3771
54054SOL    HW169212   6.937  10.502   7.369  1.1628 -0.1507 -0.1123
54054SOL    HW269213   6.987  10.585   7.486  0.2751  1.1337 -0.6153
54055SOL     OW69214  10.711   2.393   4.901  0.4155 -0.5336 -0.0846
54055SOL    HW169215  10.682   2.304   4.922 -1.6350  0.2245  0.5708
54055SOL    HW269216  10.630   2.441   4.884  1.2062  1.8521  2.2528
54056SOL     OW69217  10.682   2.216   2.014 -0.0501  0.3355  0.1771
54056SOL    HW169218  10.692   2.137   2.067  1.0489  0.0687 -0.4210
54056SOL    HW269219  10.588   2.234   2.017 -0.2190 -0.5880  0.8946
54057SOL     OW69220   4.582   4.348   0.611 -0.0101 -0.7225 -0.3736
54057SOL    HW169221   4.607   4.413   0.546  1.5665 -0.7601  0.1625
54057SOL    HW269222   4.486   4.350   0.611 -0.0209  1.7687 -0.1804
54058SOL     OW69223   0.793   2.099   9.947 -0.2752  0.2886  0.1611
54058SOL    HW169224   0.700   2.119   9.941 -0.3380 -0.1608 -0.6310
54058SOL    HW269225   0.831   2.140   9.869  0.1457  0.2689  0.3550
54059SOL     OW69226  11.132   9.883  11.137 -0.4944  0.6606  0.1232
54059SOL    HW169227  11.189   9.952  11.103 -0.6155  1.1377  0.8497
54059SOL    HW269228  11.136   9.813  11.072 -0.8811  1.6107 -0.9411
54060SOL     OW69229   3.281   3.565   4.774 -0.6942  0.2684 -0.0718
54060SOL    HW169230   3.362   3.527   4.740 -1.0725 -1.7965  1.1570
54060SOL    HW269231   3.232   3.490   4.810 -3.0704  1.4560 -0.5862
54061SOL     OW69232   7.727   7.173  12.085  0.5383  0.1802  0.2515
54061SOL    HW169233   7.632   7.164  12.074  0.7093 -1.8012 -0.0183
54061SOL    HW269234   7.738   7.211  12.172 -0.4968 -0.6780  0.7789
54062SOL     OW69235  10.033   6.388  11.112  0.2411  0.4140  0.0147
54062SOL    HW169236  10.050   6.296  11.130  0.3120 -0.0308 -2.1365
54062SOL    HW269237  10.117   6.424  11.086 -0.2338  0.4690 -1.5400
54063SOL     OW69238   4.063  10.062   8.889 -0.0218 -0.1426 -0.0848
54063SOL    HW169239   4.129  10.011   8.841  0.4552 -0.8916  1.2920
54063SOL    HW269240   4.114  10.130   8.934 -0.1820 -0.6247  0.8535
54064SOL     OW69241  11.911  10.769   8.827  0.1473  0.0118 -0.4179
54064SOL    HW169242  11.860  10.832   8.878  0.2437 -0.1102 -0.1653
54064SOL    HW269243  11.931  10.814   8.745 -1.9962 -0.5962 -1.3557
54065SOL     OW69244   7.127   5.706   5.143  0.0530  0.1669  0.3681
54065SOL    HW169245   7.100   5.630   5.091 -0.4794  0.8326 -0.3599
54065SOL    HW269246   7.193   5.672   5.203 -1.0744 -1.1204  0.9237
54066SOL     OW69247   4.049   0.266   2.802  0.0425 -0.1464  0.2403
54066SOL    HW169248   4.138   0.236   2.780  0.0351  0.6069 -0.9238
54066SOL    HW269249   4.062   0.323   2.878  0.6041  0.1519 -0.0675
54067SOL     OW69250   8.032  11.428   6.863 -0.2859 -0.6242 -0.6793
54067SOL    HW169251   7.992  11.507   6.828  1.0862  0.7314  0.6377
54067SOL    HW269252   7.977  11.356   6.831 -2.1589  0.9167 -1.0884
54068SOL     OW69253   1.454  12.224  10.460 -0.2698  0.1498  0.0066
54068SOL    HW169254   1.544  12.254  10.454 -0.0900 -0.6076 -2.1786
54068SOL    HW269255   1.460  12.138  10.501  0.1179 -0.2728 -0.9153
54069SOL     OW69256   8.114   4.414   1.291  0.5433  0.0468 -0.2773
54069SOL    HW169257   8.200   4.452   1.307  0.6455  0.3543 -1.4855
54069SOL    HW269258   8.052   4.483   1.316  0.7316  1.6554 -3.6544
54070SOL     OW69259   0.981   2.731   7.808 -0.1863  0.0235  0.6699
54070SOL    HW169260   1.075   2.723   7.823 -0.0655  0.0109 -0.0470
54070SOL    HW269261   0.945   2.645   7.831  0.1272 -0.3204 -0.1124
54071SOL     OW69262  11.304  11.680   2.181 -0.1929  0.0721  0.1019
54071SOL    HW169263  11.392  11.643   2.170  0.3130  1.1001  0.5467
54071SOL    HW269264  11.257  11.652   2.103  1.4564  2.0485 -1.7385
54072SOL     OW69265   8.107   7.687  12.391 -0.0809 -0.0734 -0.4739
54072SOL    HW169266   8.132   7.759  12.333 -0.7546 -0.8499 -1.7774
54072SOL    HW269267   8.078   7.729  12.471  2.1894  0.9909 -0.1205
54073SOL     OW69268   2.056   1.040   6.212  0.4824  0.0196  0.2386
54073SOL    HW169269   2.018   0.953   6.202 -1.5228  0.7144  1.2349
54073SOL    HW269270   2.124   1.029   6.278  0.9474 -0.9703 -0.3858
54074SOL     OW69271   1.904   7.323  11.049  0.4093 -0.3296  0.3704
54074SOL    HW169272   1.927   7.308  11.141 -0.2385  0.0984  0.6161
54074SOL    HW269273   1.886   7.236  11.014  1.1212 -0.5368  0.5201
54075SOL     OW69274   5.944   8.786  12.449  0.1379  0.2918  0.2807
54075SOL    HW169275   5.946   8.882  12.443 -0.9187  0.3357  0.4760
54075SOL    HW269276   5.922   8.769  12.541 -1.5889 -0.0986 -0.1810
54076SOL     OW69277  10.016   1.955   1.195 -0.1547 -0.1562 -0.3840
54076SOL    HW169278   9.987   1.973   1.105 -0.1375 -1.4097 -0.6634
54076SOL    HW269279  10.109   1.976   1.195 -0.4680  1.3053 -0.2280
54077SOL     OW69280   5.872   8.112  11.842  0.2912  0.5296  0.1235
54077SOL    HW169281   5.809   8.146  11.906  0.5170 -0.2009  0.7493
54077SOL    HW269282   5.819   8.059  11.782 -0.2455  2.7549 -1.5062
54078SOL     OW69283   1.920   1.073   0.763 -0.2882 -0.1625 -0.0570
54078SOL    HW169284   1.916   1.154   0.712  0.7320 -0.0749 -0.0198
54078SOL    HW269285   1.887   1.097   0.850  0.3638  0.3004  0.0621
54079SOL     OW69286   1.716   1.815   4.208 -0.3739  0.1708 -0.1308
54079SOL    HW169287   1.768   1.831   4.129 -0.7286 -1.4544 -0.7327
54079SOL    HW269288   1.630   1.851   4.188 -0.8656 -1.4008 -1.0654
54080SOL     OW69289   2.088   1.301   2.812 -0.0690  0.5195  0.5169
54080SOL    HW169290   2.021   1.236   2.833  0.3042 -0.2049 -0.5135
54080SOL    HW269291   2.095   1.299   2.717  2.2375 -0.2669  0.6510
54081SOL     OW69292   1.707   6.877   2.645 -0.2992  0.0740 -0.1297
54081SOL    HW169293   1.662   6.844   2.722  0.6723  0.6614  0.7171
54081SOL    HW269294   1.799   6.856   2.660  0.2914  2.5634  0.1893
54082SOL     OW69295   8.851   1.763  10.477  0.3273  0.1619 -0.3071
54082SOL    HW169296   8.775   1.794  10.428  0.6994 -0.5642 -1.3725
54082SOL    HW269297   8.815   1.698  10.538 -0.0755  0.7366  0.0735
54083SOL     OW69298   5.213  11.326  11.644  0.0750  0.2317 -0.1542
54083SOL    HW169299   5.219  11.247  11.589 -2.0658 -0.9074  1.0900
54083SOL    HW269300   5.203  11.398  11.582 -1.9930 -0.9779 -1.3598
54084SOL     OW69301   8.618   8.261   2.509 -0.2876  0.5265 -0.7250
54084SOL    HW169302   8.678   8.200   2.466  0.5395 -0.1518  1.2592
54084SOL    HW269303   8.577   8.209   2.579 -0.2914  1.9732  0.3916
54085SOL     OW69304   9.550  10.737   5.597 -0.3195 -0.5878 -0.5511
54085SOL    HW169305   9.593  10.651   5.594 -0.1702 -0.7190  2.1371
54085SOL    HW269306   9.609  10.795   5.549 -0.0493 -1.8314 -1.7873
54086SOL     OW69307   3.871   5.159   0.808  0.0867 -0.2190  0.1432
54086SOL    HW169308   3.938   5.197   0.750  0.7873 -0.4831  0.7581
54086SOL    HW269309   3.840   5.081   0.762  0.3980 -0.2445 -0.0263
54087SOL     OW69310   9.881   2.918  10.249 -0.0028 -0.3013  0.5943
54087SOL    HW169311   9.834   2.835  10.239  0.3978 -0.8088  2.6325
54087SOL    HW269312   9.830   2.980  10.198 -1.5430 -1.3416  0.8003
54088SOL     OW69313  11.749   5.668  10.998 -0.4211 -0.0584 -0.2434
54088SOL    HW169314  11.751   5.757  10.961  0.8822  0.0408  0.0078
54088SOL    HW269315  11.786   5.613  10.929  0.8407 -0.0580  0.3951
54089SOL     OW69316   6.127   6.891   4.548  0.3215  0.2851  0.5673
54089SOL    HW169317   6.221   6.907   4.540  0.6395 -1.3724  0.5770
54089SOL    HW269318   6.086   6.960   4.496  1.5459  0.9099  0.3993
54090SOL     OW69319  11.417   3.592  11.458  0.1568 -0.5793 -0.1400
54090SOL    HW169320  11.471   3.566  11.533 -0.6759 -1.3165  0.2133
54090SOL    HW269321  11.327   3.572  11.484 -0.3007  0.5277 -0.7676
54091SOL     OW69322   8.160   0.832   6.787 -0.5675 -0.5939 -0.2056
54091SOL    HW169323   8.245   0.828   6.831 -1.6339  0.0593  2.0415
54091SOL    HW269324   8.097   0.847   6.857 -2.4302  0.1926 -1.9472
54092SOL     OW69325   4.143  11.916  11.138  0.1695 -0.4530  0.7735
54092SOL    HW169326   4.113  11.847  11.078  2.4022 -0.4103 -0.4854
54092SOL    HW269327   4.080  11.987  11.127  0.0455 -0.7941 -0.9036
54093SOL     OW69328   4.380   4.736   8.636  0.0624 -0.3830  0.1539
54093SOL    HW169329   4.300   4.697   8.601 -0.5262  0.9533 -0.0560
54093SOL    HW269330   4.376   4.718   8.730  0.6541 -2.2487 -0.1416
54094SOL     OW69331  11.643   6.787   4.141 -0.7727 -0.4848 -0.7019
54094SOL    HW169332  11.709   6.820   4.080  0.2227  0.8397  1.0102
54094SOL    HW269333  11.688   6.720   4.192 -0.2387  1.3653  1.3966
54095SOL     OW69334  11.211   7.923  11.795  0.0497  0.6216  0.1993
54095SOL    HW169335  11.282   7.987  11.787  0.1378  0.5351  0.2713
54095SOL    HW269336  11.244   7.859  11.858 -0.3027  0.8557  0.6246
54096SOL     OW69337   3.853   7.731   1.547  0.0449  0.0484 -0.3679
54096SOL    HW169338   3.869   7.735   1.453  0.8248 -0.7344 -0.2778
54096SOL    HW269339   3.939   7.714   1.586 -0.4801 -1.0902  0.3735
54097SOL     OW69340  11.344   1.287   2.266  0.0871 -0.5843  0.5713
54097SOL    HW169341  11.351   1.217   2.330 -0.6353 -0.9651  0.2450
54097SOL    HW269342  11.259   1.273   2.223  0.8407 -0.7598 -0.9377
54098SOL     OW69343   6.209   7.742   9.648 -0.2167  0.4307  0.1359
54098SOL    HW169344   6.257   7.776   9.723  1.5112  0.7180 -1.0502
54098SOL    HW269345   6.210   7.814   9.585 -1.5575  0.1581 -0.2306
54099SOL     OW69346   3.889   5.495   3.591  0.3452  0.0466 -0.6357
54099SOL    HW169347   3.935   5.552   3.530 -0.1563  0.0851 -0.9818
54099SOL    HW269348   3.860   5.421   3.538  1.5662 -0.8851 -0.0629
54100SOL     OW69349   9.402   5.735   2.958 -0.4003  0.6003 -0.3332
54100SOL    HW169350   9.390   5.808   3.019  1.1802 -0.1861  0.9770
54100SOL    HW269351   9.423   5.660   3.014 -2.3581 -1.0036 -1.6066
54101SOL     OW69352   4.696   9.670   9.933 -0.3731  0.0494  0.0885
54101SOL    HW169353   4.691   9.591   9.987 -0.6195 -0.1632 -0.2457
54101SOL    HW269354   4.618   9.667   9.879 -0.7895  0.9353  0.6262
54102SOL     OW69355   9.893   0.081   3.101  0.4710  0.4295 -0.0091
54102SOL    HW169356   9.801   0.092   3.077  0.4706  0.2005 -0.1175
54102SOL    HW269357   9.928   0.170   3.104  0.3202  0.4981 -0.2541
54103SOL     OW69358   5.496   5.277   9.488 -0.1626  0.1952 -0.5347
54103SOL    HW169359   5.587   5.272   9.515 -0.8114 -2.0119  1.6629
54103SOL    HW269360   5.493   5.230   9.404  0.7391  0.6720 -0.8513
54104SOL     OW69361  11.695  10.535   0.365  0.1448 -0.0175  0.3288
54104SOL    HW169362  11.603  10.533   0.391 -0.0631 -0.9014 -0.4261
54104SOL    HW269363  11.704  10.615   0.314 -0.3933 -0.2955 -0.2162
54105SOL     OW69364  11.050   0.559   7.057 -0.1783  0.1251  0.0031
54105SOL    HW169365  11.054   0.612   6.977 -1.9438 -2.1763 -1.7177
54105SOL    HW269366  11.142   0.541   7.078  0.3918  2.2212 -0.4204
54106SOL     OW69367   7.565  12.589   5.399  0.6046  0.2195 -0.1354
54106SOL    HW169368   7.588  12.575   5.307  1.8351  0.9419  0.0433
54106SOL    HW269369   7.537  12.680   5.404  0.6742  0.2248  0.2294
54107SOL     OW69370   5.714  12.222   5.009 -0.5770 -0.1873 -0.0916
54107SOL    HW169371   5.699  12.216   5.103 -1.5766  2.3086 -0.0108
54107SOL    HW269372   5.800  12.182   4.996 -0.4064 -0.5719  1.8714
54108SOL     OW69373   2.893   5.388   8.216  0.6543 -0.5148 -0.7340
54108SOL    HW169374   2.844   5.307   8.209 -1.6819  0.6878  0.4445
54108SOL    HW269375   2.931   5.385   8.305 -0.6621  0.2735 -0.1210
54109SOL     OW69376   5.173   8.194  11.844  0.1724 -0.2216  0.0850
54109SOL    HW169377   5.200   8.219  11.755 -0.2265  0.0152  0.0312
54109SOL    HW269378   5.172   8.276  11.893 -0.0723 -0.2855  0.1865
54110SOL     OW69379   4.323   5.010   0.939  0.7004  0.2693  0.0885
54110SOL    HW169380   4.306   5.102   0.956 -0.8113  0.1552 -0.6581
54110SOL    HW269381   4.370   5.009   0.855  1.8824  0.4152  0.7303
54111SOL     OW69382   2.327   3.182   3.261  0.1507 -0.4319  0.1654
54111SOL    HW169383   2.361   3.174   3.350 -0.5826 -0.3104  0.4628
54111SOL    HW269384   2.275   3.263   3.263  0.1482 -0.4171 -0.3815
54112SOL     OW69385   1.375  11.116   5.656  0.1910 -0.2955  0.2914
54112SOL    HW169386   1.312  11.053   5.691 -1.6189  0.1654 -1.8827
54112SOL    HW269387   1.386  11.090   5.564  1.5368  0.9379  0.0704
54113SOL     OW69388   8.927  11.659   3.199  0.0941  0.2505 -0.3404
54113SOL    HW169389   8.931  11.672   3.104  1.4899  0.3535 -0.2777
54113SOL    HW269390   9.011  11.692   3.231 -0.8217  1.3183  1.0700
54114SOL     OW69391   7.632  11.358  10.911  0.1545  0.9583  0.5480
54114SOL    HW169392   7.629  11.450  10.939 -0.4311  1.2355 -0.3614
54114SOL    HW269393   7.542  11.328  10.923  0.1950  0.7046  0.2065
54115SOL     OW69394  12.054   3.307   1.056 -0.2579 -0.3105  0.5101
54115SOL    HW169395  11.963   3.295   1.082 -0.1447  0.4854  1.3013
54115SOL    HW269396  12.067   3.402   1.055  0.8514 -0.4324  1.4513
54116SOL     OW69397   9.176   1.152   8.908 -0.5092  0.5493  0.5517
54116SOL    HW169398   9.202   1.205   8.983  2.2152  0.4711 -0.2338
54116SOL    HW269399   9.154   1.216   8.839 -0.9143  0.6160  0.7375
54117SOL     OW69400   3.431   8.549  12.061  0.1915 -0.2706 -0.6442
54117SOL    HW169401   3.519   8.511  12.064  0.2726 -0.0492 -0.1344
54117SOL    HW269402   3.405   8.543  11.969 -0.1687 -2.4171 -0.4648
54118SOL     OW69403   9.470   8.849   2.127  0.1570 -0.2326 -0.8966
54118SOL    HW169404   9.394   8.844   2.186  0.8256  1.1536  0.1491
54118SOL    HW269405   9.466   8.937   2.090  1.5042  0.0571 -0.4301
54119SOL     OW69406   4.262   3.128   2.342  0.2158  0.1341  0.3344
54119SOL    HW169407   4.237   3.040   2.371  0.1095 -0.7819 -2.2913
54119SOL    HW269408   4.357   3.130   2.353  0.0371  0.4426  2.1813
54120SOL     OW69409  11.813   3.757   1.819  0.0064  0.3582 -0.1948
54120SOL    HW169410  11.784   3.686   1.762  0.5074  0.0357 -0.0515
54120SOL    HW269411  11.907   3.764   1.803  0.5455 -0.9801  1.9241
54121SOL     OW69412   2.045   3.198   8.020  0.8279  0.2791  0.2539
54121SOL    HW169413   2.111   3.129   8.017  1.3472  0.7475 -3.0350
54121SOL    HW269414   1.989   3.174   8.093  1.2470 -3.4115 -0.4158
54122SOL     OW69415   7.116  11.888   1.552  0.5262  0.4114  0.0581
54122SOL    HW169416   7.086  11.974   1.523 -1.1157 -0.1689 -0.0480
54122SOL    HW269417   7.067  11.825   1.499  2.8105 -0.6352 -0.9540
54123SOL     OW69418   7.086   3.847   1.110 -0.2904  0.4076 -0.4047
54123SOL    HW169419   7.123   3.878   1.027 -0.6231  0.9046 -0.3770
54123SOL    HW269420   7.076   3.753   1.099  1.4979  0.1617 -0.2028
54124SOL     OW69421   3.157   7.859   6.253 -0.3681 -0.3235  0.3233
54124SOL    HW169422   3.244   7.896   6.236 -1.1614  2.0003  0.8869
54124SOL    HW269423   3.174   7.777   6.298  1.5333 -0.1103  0.0831
54125SOL     OW69424   0.974   4.253   7.194  0.0116  0.2678 -0.0619
54125SOL    HW169425   0.983   4.247   7.289  1.1723  1.6056 -0.0525
54125SOL    HW269426   1.062   4.237   7.160  0.0468  1.7098 -0.7618
54126SOL     OW69427   3.900   1.841   2.642 -0.1721  0.5588  0.1321
54126SOL    HW169428   3.840   1.914   2.626 -1.0444  0.1257  1.2925
54126SOL    HW269429   3.931   1.816   2.555 -0.1946  2.0225 -0.3175
54127SOL     OW69430  10.054   5.524   7.665  0.2939  0.0165 -0.7943
54127SOL    HW169431  10.002   5.520   7.745  1.2238  0.9273 -0.1279
54127SOL    HW269432   9.993   5.498   7.596 -0.4762 -0.9253  0.2168
54128SOL     OW69433   2.831   7.548   1.743 -0.4509 -0.0584  0.0125
54128SOL    HW169434   2.768   7.518   1.809  0.6369 -0.9290  0.6895
54128SOL    HW269435   2.904   7.486   1.750  0.0795  0.3833 -1.3876
54129SOL     OW69436  11.807  10.486   3.122 -0.1321 -0.2012  0.2631
54129SOL    HW169437  11.786  10.575   3.094 -0.6849  0.4934  2.6659
54129SOL    HW269438  11.902  10.486   3.132  0.0870 -0.4881 -1.5293
54130SOL     OW69439   1.761   2.527   4.687 -0.0639  0.6177 -0.3525
54130SOL    HW169440   1.746   2.516   4.593 -0.7580  0.5416 -0.2372
54130SOL    HW269441   1.830   2.592   4.693  0.3339  0.2578 -0.9285
54131SOL     OW69442   0.898   5.014   4.108 -0.0154  0.3422 -0.2667
54131SOL    HW169443   0.853   5.090   4.145  0.9621  0.4225  0.8039
54131SOL    HW269444   0.986   5.045   4.089 -0.2733  0.0937 -2.0175
54132SOL     OW69445   9.400  10.534   3.971  0.0488 -0.5568  0.2435
54132SOL    HW169446   9.385  10.627   3.985 -0.2340 -0.4876 -0.4873
54132SOL    HW269447   9.495  10.524   3.977  0.0759 -0.2270  0.3612
54133SOL     OW69448   0.790  11.052   2.076 -0.5454 -0.1697 -0.5191
54133SOL    HW169449   0.819  11.143   2.071  1.9739 -0.8760 -0.2807
54133SOL    HW269450   0.799  11.019   1.987 -0.6430 -0.4066 -0.4418
54134SOL     OW69451   4.260   9.975   2.237 -0.5732  0.1042  0.4650
54134SOL    HW169452   4.268   9.884   2.209 -1.5128  0.1889 -0.1166
54134SOL    HW269453   4.202   9.971   2.314 -0.3015  0.1682  0.6723
54135SOL     OW69454   6.882   3.079   1.507 -0.0924  0.2103 -0.2477
54135SOL    HW169455   6.936   3.145   1.466 -0.6184  0.6594 -0.2272
54135SOL    HW269456   6.799   3.124   1.527 -0.1855 -0.2453  0.4375
54136SOL     OW69457   5.788   3.491  12.534 -0.1270  0.4211  0.1306
54136SOL    HW169458   5.821   3.577  12.562  0.3846 -0.3227  1.9154
54136SOL    HW269459   5.863   3.449  12.492  0.0615  0.2685  0.6160
54137SOL     OW69460   3.216   3.804   9.943  0.6606  0.1746  0.0540
54137SOL    HW169461   3.159   3.810  10.019  2.0269  1.5641  1.0382
54137SOL    HW269462   3.197   3.882   9.892 -0.0727 -0.6250 -0.9365
54138SOL     OW69463   2.031  12.219   0.978 -0.2569 -1.2988  0.1198
54138SOL    HW169464   2.103  12.207   1.040  0.3241  0.5903 -0.1226
54138SOL    HW269465   2.073  12.247   0.897 -1.2331  4.4593  1.1443
54139SOL     OW69466  12.142   1.672   1.954  0.0064  0.2315 -0.5422
54139SOL    HW169467  12.067   1.613   1.952  1.0217 -1.1981  1.1544
54139SOL    HW269468  12.211   1.626   1.905  0.1474  1.0452 -1.1450
54140SOL     OW69469   6.651   9.418   3.292 -0.0260 -0.1367  0.6157
54140SOL    HW169470   6.590   9.354   3.253 -0.7922 -0.2090  1.8763
54140SOL    HW269471   6.619   9.430   3.381 -0.3649  2.5875  0.2010
54141SOL     OW69472  11.120   7.872   6.005  0.0298 -0.0940 -0.1494
54141SOL    HW169473  11.149   7.962   5.985 -2.7660  1.1367  0.7514
54141SOL    HW269474  11.167   7.848   6.084  2.3339 -0.2917 -1.5044
54142SOL     OW69475   3.109  12.555   6.668  0.6622 -0.3400  0.1363
54142SOL    HW169476   3.042  12.493   6.641 -0.6708  1.2550 -0.3532
54142SOL    HW269477   3.088  12.636   6.621  2.1878  0.5730  0.9406
54143SOL     OW69478   0.253   9.572   4.591 -0.7236  0.0818 -0.1405
54143SOL    HW169479   0.249   9.616   4.506 -0.6014  0.4205  0.0239
54143SOL    HW269480   0.346   9.557   4.606 -0.7758 -0.3842 -0.2677
54144SOL     OW69481   1.457   1.260   8.387  0.1684  0.4759  0.0573
54144SOL    HW169482   1.520   1.319   8.346  1.2654 -1.2325 -0.8007
54144SOL    HW269483   1.372   1.300   8.369  0.9262  2.4616  0.6452
54145SOL     OW69484  11.694   5.137   3.275 -0.0722  0.7064  0.3787
54145SOL    HW169485  11.603   5.117   3.255  0.2084 -1.8001  1.2414
54145SOL    HW269486  11.702   5.121   3.369  1.7048 -1.2338 -0.0326
54146SOL     OW69487   6.174  12.384   3.017 -0.6174  0.4248 -0.8657
54146SOL    HW169488   6.192  12.310   3.075  1.0044  1.8889  0.6292
54146SOL    HW269489   6.239  12.376   2.947  1.1705  1.6024  0.5434
54147SOL     OW69490   0.051   7.256   1.183 -0.4256 -0.4426  0.4102
54147SOL    HW169491   0.066   7.162   1.197 -1.4161 -0.7178 -0.2976
54147SOL    HW269492  -0.044   7.264   1.172 -0.2886  0.5537 -0.1602
54148SOL     OW69493   2.232  11.003   9.816  0.3177 -0.6616  0.6208
54148SOL    HW169494   2.240  10.916   9.776 -1.3462 -0.1345 -1.0034
54148SOL    HW269495   2.319  11.042   9.807  0.0729 -0.5728 -2.6697
54149SOL     OW69496   4.667   0.267   6.104 -0.1318 -0.1582  0.0866
54149SOL    HW169497   4.640   0.209   6.175  0.4745  0.7020  1.0394
54149SOL    HW269498   4.599   0.256   6.037 -1.3588 -0.0773  1.2906
54150SOL     OW69499  11.638   4.685   1.058  0.0073  0.1110 -0.0802
54150SOL    HW169500  11.716   4.681   1.003  0.0096 -1.3441 -0.0185
54150SOL    HW269501  11.595   4.767   1.033  0.9315  0.3470 -0.9579
54151SOL     OW69502   5.847   1.589   3.986  0.6434  0.0566 -0.0929
54151SOL    HW169503   5.809   1.541   3.912  1.9725 -1.0136 -0.1189
54151SOL    HW269504   5.794   1.668   3.993 -0.3534 -0.4702 -1.3333
54152SOL     OW69505   4.101   9.603   2.440  0.4549 -0.3118  0.3541
54152SOL    HW169506   4.066   9.638   2.358  0.1569 -0.6460  0.3338
54152SOL    HW269507   4.141   9.678   2.483  1.4447 -0.2964 -0.5178
54153SOL     OW69508   2.300  10.235   3.186  0.3679 -0.1873  0.0852
54153SOL    HW169509   2.236  10.199   3.125 -0.0312 -0.6071  0.7473
54153SOL    HW269510   2.306  10.170   3.256 -0.8186  1.2778  1.6314
54154SOL     OW69511  10.496   4.384   0.446 -0.1572 -0.3689  0.4541
54154SOL    HW169512  10.431   4.441   0.487  0.8257  1.0402  0.1356
54154SOL    HW269513  10.560   4.367   0.515 -0.5769 -1.3181  0.6192
54155SOL     OW69514   4.293   3.752   8.108  0.0581  0.4946 -0.2253
54155SOL    HW169515   4.272   3.690   8.038 -0.3980  0.5875 -0.1715
54155SOL    HW269516   4.228   3.734   8.177  2.0505 -1.4062  1.3239
54156SOL     OW69517   2.655   6.040   8.618 -0.3419 -0.3997 -0.1038
54156SOL    HW169518   2.690   6.071   8.535  0.2978  0.1335  0.3620
54156SOL    HW269519   2.717   5.973   8.647 -0.5760 -0.6024 -0.0689
54157SOL     OW69520   4.388   2.911  11.462 -0.4782  0.7117 -0.2079
54157SOL    HW169521   4.299   2.939  11.439 -1.5597 -2.3128 -0.1653
54157SOL    HW269522   4.416   2.857  11.388 -0.0034 -0.9483  1.1210
54158SOL     OW69523   1.448  10.016   1.005  0.4294 -0.2799 -0.7176
54158SOL    HW169524   1.543  10.007   0.999  0.5465  0.2063  0.2014
54158SOL    HW269525   1.431  10.027   1.099 -0.5437 -0.4304 -0.8644
54159SOL     OW69526   8.193   0.890   2.167 -0.0698 -0.0849 -0.3711
54159SOL    HW169527   8.216   0.975   2.205  0.7521 -1.0158  1.3374
54159SOL    HW269528   8.246   0.884   2.087  1.1640  0.3098  0.3936
54160SOL     OW69529   6.352   2.867   2.024 -0.1913 -0.0539  0.0473
54160SOL    HW169530   6.389   2.929   1.961 -0.3922  0.0472  0.0288
54160SOL    HW269531   6.356   2.782   1.979  0.3124 -0.0945  0.1683
54161SOL     OW69532   6.686   5.532   0.019  0.5668 -0.6252 -0.0933
54161SOL    HW169533   6.756   5.550   0.082  0.5805 -1.5616  0.1772
54161SOL    HW269534   6.724   5.552  -0.066  0.4366  0.9933  0.2113
54162SOL     OW69535   5.001   7.039   1.364 -0.4311  0.0918  0.1485
54162SOL    HW169536   5.014   7.131   1.341  0.7172  0.1663  1.0218
54162SOL    HW269537   5.074   7.018   1.421 -2.1624 -0.5745  2.2674
54163SOL     OW69538   3.295   4.361  11.632 -0.2335 -0.2002  0.7761
54163SOL    HW169539   3.316   4.423  11.702 -0.1660 -0.3121  0.8531
54163SOL    HW269540   3.323   4.406  11.552 -2.0180  0.7442  0.6137
54164SOL     OW69541   9.797  10.707   3.617  0.3454  0.4392 -0.3828
54164SOL    HW169542   9.864  10.729   3.681  0.2680  1.2448 -0.5791
54164SOL    HW269543   9.720  10.684   3.670  0.3598  0.8525 -0.1806
54165SOL     OW69544   5.841   7.391   4.345 -0.0045  0.0901 -0.2349
54165SOL    HW169545   5.768   7.452   4.342 -0.6374 -0.6311  0.0570
54165SOL    HW269546   5.901   7.427   4.410 -0.5508  0.2089  0.2096
54166SOL     OW69547   8.544   6.409   2.323  0.1107 -0.5340 -0.2459
54166SOL    HW169548   8.593   6.470   2.378  1.0379 -1.6979  0.2683
54166SOL    HW269549   8.507   6.345   2.384 -2.2432  0.3944 -0.6064
54167SOL     OW69550  11.997   5.684   0.144 -0.2328 -0.2284 -0.2990
54167SOL    HW169551  12.008   5.769   0.186  0.4291 -0.0741 -0.7638
54167SOL    HW269552  12.018   5.620   0.212  0.7062  0.0166 -0.3413
54168SOL     OW69553   9.029   9.602  12.552 -0.4815 -0.0900  0.5225
54168SOL    HW169554   9.121   9.614  12.531 -0.8794 -0.1289 -1.3785
54168SOL    HW269555   8.998   9.690  12.573 -0.1530  0.0165  0.5655
54169SOL     OW69556   3.107  12.408   8.505 -0.0636  0.3105  0.5475
54169SOL    HW169557   3.124  12.326   8.551 -0.6009  0.0328  0.2581
54169SOL    HW269558   3.157  12.401   8.424 -1.5744 -0.5440 -0.3454
54170SOL     OW69559   2.028   8.351   8.700 -0.4999 -0.8751  0.5669
54170SOL    HW169560   2.035   8.377   8.791 -0.4452 -0.6357  0.4944
54170SOL    HW269561   1.961   8.409   8.663  1.4544  1.0049 -0.2596
54171SOL     OW69562  11.260   7.397   0.139  0.0326  0.1991  0.0309
54171SOL    HW169563  11.243   7.302   0.139 -0.8369  0.3213 -1.4639
54171SOL    HW269564  11.240   7.424   0.050  1.5960  1.5820  0.0632
54172SOL     OW69565   1.288   5.719   4.842  0.4808  0.2887  0.3332
54172SOL    HW169566   1.366   5.775   4.837  0.2878  0.5661  0.4151
54172SOL    HW269567   1.318   5.634   4.810  0.9148  0.2892  0.7267
54173SOL     OW69568   3.341   8.689   0.505  0.5011  0.6077  0.5138
54173SOL    HW169569   3.332   8.597   0.528  1.9178  0.2654 -0.2020
54173SOL    HW269570   3.417   8.692   0.447 -1.7829  1.6420 -2.7391
54174SOL     OW69571  11.224   4.165  11.256  0.5432 -0.6719  0.2544
54174SOL    HW169572  11.316   4.183  11.278  0.3396 -1.1780  1.6562
54174SOL    HW269573  11.200   4.093  11.314 -0.4929 -1.1259 -0.7235
54175SOL     OW69574   2.351   7.767   5.132  0.6387  0.2510 -0.5370
54175SOL    HW169575   2.284   7.708   5.167  0.0952  2.1113  1.9028
54175SOL    HW269576   2.412   7.710   5.086 -0.6606 -1.9813  0.3284
54176SOL     OW69577   2.470   5.777  11.119 -0.3853 -0.3080 -0.3743
54176SOL    HW169578   2.469   5.683  11.138 -0.6629 -0.5188 -1.3759
54176SOL    HW269579   2.508   5.783  11.032  0.3867  0.5854  0.0177
54177SOL     OW69580   1.839   1.997   1.872  0.2000  0.2594  0.1427
54177SOL    HW169581   1.843   1.920   1.930 -0.9886 -0.5164 -0.7637
54177SOL    HW269582   1.757   1.987   1.825 -0.4489  2.6117  0.6625
54178SOL     OW69583   8.755   3.039   8.257 -0.2559 -0.2515  0.4541
54178SOL    HW169584   8.828   3.015   8.200 -1.4777 -0.1112 -1.2369
54178SOL    HW269585   8.723   2.956   8.292  0.5936 -0.3256  1.0831
54179SOL     OW69586   3.457   1.466   9.690  0.2150  0.2669 -0.5446
54179SOL    HW169587   3.526   1.532   9.685  0.8148 -0.0503  2.1725
54179SOL    HW269588   3.502   1.384   9.710 -0.8542 -0.1465  0.2668
54180SOL     OW69589   6.796   1.007   3.723 -0.1498  0.5189 -0.0838
54180SOL    HW169590   6.704   1.030   3.709  0.2049  1.4862 -0.8876
54180SOL    HW269591   6.793   0.918   3.760 -1.4168  0.6952  0.2763
54181SOL     OW69592   4.892   9.632   4.188 -0.0228  0.0461 -0.3464
54181SOL    HW169593   4.927   9.700   4.131  0.0007  0.8414  0.5729
54181SOL    HW269594   4.897   9.670   4.276 -2.8125  0.0555 -0.1092
54182SOL     OW69595   6.394   9.686   3.600  0.5058 -0.3031 -0.3601
54182SOL    HW169596   6.452   9.762   3.595 -1.3936  1.1017 -2.2690
54182SOL    HW269597   6.335   9.707   3.673  1.0977 -0.8384  0.2962
54183SOL     OW69598   1.106   2.088  11.587 -0.0700  0.2769 -0.0414
54183SOL    HW169599   1.190   2.132  11.603 -1.2179  2.4432  0.3489
54183SOL    HW269600   1.131   1.999  11.563  2.4663  1.3706 -1.9685
54184SOL     OW69601   5.831   7.334   6.261  0.3488 -0.3122  0.2851
54184SOL    HW169602   5.899   7.362   6.199  0.7189  1.4504  1.4114
54184SOL    HW269603   5.749   7.352   6.215  0.5997  1.9018  0.5957
54185SOL     OW69604   4.963  11.453   9.013 -0.0193 -0.1437 -0.8412
54185SOL    HW169605   4.895  11.394   9.044 -0.0454 -1.2199 -2.8131
54185SOL    HW269606   5.039  11.397   8.999  0.8831  0.8093 -0.0377
54186SOL     OW69607   3.279   0.548   4.670  0.4301  0.5672  0.2663
54186SOL    HW169608   3.292   0.544   4.765 -4.0355  0.2911  1.1091
54186SOL    HW269609   3.259   0.458   4.645 -1.8973  1.1448 -0.1648
54187SOL     OW69610  11.062   0.217   4.686  0.3295 -0.1083 -0.0464
54187SOL    HW169611  11.111   0.176   4.615  0.4308 -2.3056  1.2164
54187SOL    HW269612  11.125   0.225   4.757 -0.6421 -1.2472  0.9791
54188SOL     OW69613   3.929   1.549   4.634 -0.2291 -0.8570 -0.8251
54188SOL    HW169614   3.990   1.507   4.573  1.9449 -0.1638  0.7561
54188SOL    HW269615   3.885   1.616   4.581  1.6843 -0.1712 -1.6456
54189SOL     OW69616   4.079  12.585   2.903 -0.1929  0.7071  0.6874
54189SOL    HW169617   4.081  12.657   2.840 -0.4780  2.3252  2.4566
54189SOL    HW269618   4.139  12.520   2.866 -0.6405  1.3911 -1.4270
54190SOL     OW69619   9.571   5.401   4.749  0.0525  0.5784 -0.6609
54190SOL    HW169620   9.630   5.326   4.745  0.4134  0.8895 -3.8810
54190SOL    HW269621   9.626   5.473   4.780  0.4753  0.1519 -0.4022
54191SOL     OW69622   2.813   2.907   5.047  0.4525  0.1542  0.3869
54191SOL    HW169623   2.847   2.918   4.958 -0.9889  0.6684 -0.1298
54191SOL    HW269624   2.890   2.911   5.103  1.5571 -1.4542 -0.9180
54192SOL     OW69625   8.410  11.622   8.593  0.2232  0.0359 -0.1784
54192SOL    HW169626   8.466  11.694   8.620  0.3115  0.4681 -1.4392
54192SOL    HW269627   8.322  11.660   8.590  0.3762  0.3261 -1.5890
54193SOL     OW69628   7.420   4.693   1.241  0.7296 -0.0781  0.2968
54193SOL    HW169629   7.354   4.652   1.185 -0.3444  1.6124  0.2561
54193SOL    HW269630   7.373   4.763   1.286  2.1082  0.0534  1.6046
54194SOL     OW69631   4.330   2.811   8.730 -0.1287 -0.4269  0.2690
54194SOL    HW169632   4.393   2.867   8.774  0.3247 -1.3437  0.8344
54194SOL    HW269633   4.252   2.813   8.786 -0.8044  1.0615 -0.6604
54195SOL     OW69634   8.520   0.283   0.660 -0.2407  0.3172 -0.2456
54195SOL    HW169635   8.459   0.221   0.621  0.7009 -0.3752 -0.6582
54195SOL    HW269636   8.480   0.307   0.744  0.0266 -1.9386  0.5837
54196SOL     OW69637   2.594   1.445   2.743  0.2793 -0.0447  0.2530
54196SOL    HW169638   2.554   1.380   2.685 -0.6171  0.6093  0.1144
54196SOL    HW269639   2.620   1.516   2.684  2.7255 -0.9126  0.1756
54197SOL     OW69640   3.745   4.781   3.067  0.2281  0.3455  0.2297
54197SOL    HW169641   3.660   4.818   3.045  0.5987  1.9579  1.3253
54197SOL    HW269642   3.727   4.690   3.088 -1.5260  1.0624  2.1162
54198SOL     OW69643  10.431   7.890   9.001 -0.8955  0.0076  0.1537
54198SOL    HW169644  10.499   7.957   8.992  0.1268 -0.8249  1.2650
54198SOL    HW269645  10.373   7.905   8.927 -0.0190  1.3396 -0.3133
54199SOL     OW69646   6.822  11.282   0.233  0.0046  0.0030  0.2578
54199SOL    HW169647   6.771  11.353   0.195  2.8854  1.3067 -1.5291
54199SOL    HW269648   6.825  11.302   0.326 -1.0583  0.9611  0.1084
54200SOL     OW69649   9.223  11.591   5.088 -0.0626 -0.1109 -0.3219
54200SOL    HW169650   9.182  11.671   5.055 -0.8696 -0.3668  0.0401
54200SOL    HW269651   9.157  11.551   5.144  1.0016 -0.0912  0.9907
54201SOL     OW69652  10.628  10.660   3.688 -0.0595  0.3007  1.0930
54201SOL    HW169653  10.598  10.699   3.606  0.5931 -1.6340 -0.1531
54201SOL    HW269654  10.549  10.624   3.728 -0.3843  1.2680  1.3457
54202SOL     OW69655  12.345   4.274   0.710  0.6122  0.0402  0.1125
54202SOL    HW169656  12.401   4.203   0.680  0.3828  0.5174 -1.5231
54202SOL    HW269657  12.401   4.327   0.766  1.5064 -0.0418 -0.6975
54203SOL     OW69658   8.027  12.491  11.884  0.2336  0.4389  1.0178
54203SOL    HW169659   8.071  12.572  11.912 -0.0117  0.5444  1.0993
54203SOL    HW269660   7.955  12.480  11.947  1.5176 -0.9729  2.3232
54204SOL     OW69661   1.915   0.914   4.751  0.1088 -0.3789  0.2670
54204SOL    HW169662   1.871   0.954   4.826  0.0348  1.6236 -0.7689
54204SOL    HW269663   1.844   0.891   4.691  0.2773  0.2528 -0.1923
54205SOL     OW69664  11.208  11.495   7.756 -0.1171 -0.2672  0.5350
54205SOL    HW169665  11.222  11.584   7.789  1.5819 -0.4599  0.4463
54205SOL    HW269666  11.157  11.507   7.676  2.2487  0.9221 -0.9101
54206SOL     OW69667   8.759   4.423   1.791 -0.3696  0.2962 -0.2033
54206SOL    HW169668   8.687   4.485   1.789  0.1082  0.8387 -1.0263
54206SOL    HW269669   8.813   4.446   1.715  0.2702 -0.5741 -0.0275
54207SOL     OW69670   6.283   4.025   2.659  0.0220 -0.2118  0.1205
54207SOL    HW169671   6.240   4.036   2.575 -0.3037 -0.7771  0.2107
54207SOL    HW269672   6.376   4.043   2.641 -0.2587  1.1693 -0.0314
54208SOL     OW69673   7.003   7.653   2.865 -0.7061 -0.1180 -0.1827
54208SOL    HW169674   6.946   7.730   2.872 -0.1209  0.5047 -1.7467
54208SOL    HW269675   6.966   7.602   2.793  0.2073 -0.1493 -0.6413
54209SOL     OW69676   1.863  10.784   4.630  0.0632  0.8788 -0.2675
54209SOL    HW169677   1.878  10.837   4.551 -1.3170  0.7283 -0.6688
54209SOL    HW269678   1.853  10.848   4.700  0.7359  1.0416 -0.3158
54210SOL     OW69679  10.967  10.116  10.769  0.2387 -0.4951  0.2426
54210SOL    HW169680  10.880  10.153  10.755 -1.1640 -2.6662  2.4170
54210SOL    HW269681  10.991  10.142  10.858  1.0423 -1.3346  0.2883
54211SOL     OW69682   4.464   4.135   3.208 -0.3199  0.1884  0.0458
54211SOL    HW169683   4.434   4.067   3.147  2.9535 -3.5117  2.0441
54211SOL    HW269684   4.427   4.109   3.293  0.0969  1.6122  0.6916
54212SOL     OW69685   4.735   0.529   5.301  0.0301 -0.0343 -0.3657
54212SOL    HW169686   4.823   0.515   5.268  0.3950  1.0954  0.0808
54212SOL    HW269687   4.743   0.515   5.396 -0.4380 -0.6508 -0.4095
54213SOL     OW69688   3.723   9.520   8.294 -0.4024  0.3899  0.7985
54213SOL    HW169689   3.780   9.595   8.307  0.1230  0.5423 -1.9346
54213SOL    HW269690   3.767   9.467   8.228 -2.1132 -0.8872  0.6138
54214SOL     OW69691   5.962   7.833  10.732 -0.0959  0.4165  0.2788
54214SOL    HW169692   5.919   7.912  10.699 -1.1395  1.2046  3.2180
54214SOL    HW269693   6.050   7.862  10.755  0.2369  0.1586 -0.6332
54215SOL     OW69694   5.907   8.993   3.688  0.3644  0.1915  0.2525
54215SOL    HW169695   5.968   8.993   3.762  0.3871 -0.9899  0.2561
54215SOL    HW269696   5.840   8.930   3.713 -0.9615  1.5799  0.3082
54216SOL     OW69697   6.732   3.830   0.695 -0.8257 -0.0902  0.2316
54216SOL    HW169698   6.692   3.758   0.743 -1.3111  1.5432  2.4876
54216SOL    HW269699   6.675   3.905   0.713  0.2194  1.0864 -1.1381
54217SOL     OW69700   7.589   0.816   6.557 -0.0612  0.2336 -0.0272
54217SOL    HW169701   7.510   0.773   6.589 -0.0702 -0.0031 -0.3637
54217SOL    HW269702   7.572   0.909   6.569 -0.0622  0.1470  0.6617
54218SOL     OW69703   3.419   9.021   5.707  0.1085  0.1656  0.5582
54218SOL    HW169704   3.393   9.089   5.644  0.2602  1.6773  2.0657
54218SOL    HW269705   3.348   8.956   5.702 -1.2575  1.5847  0.7557
54219SOL     OW69706   9.359   1.072   9.228  0.3223 -0.2832 -0.5744
54219SOL    HW169707   9.405   1.037   9.152 -0.6724  2.1346 -2.4135
54219SOL    HW269708   9.266   1.072   9.202  0.0614  1.4277  0.2347
54220SOL     OW69709   2.858   3.412   7.118  0.1103 -0.2860  0.3970
54220SOL    HW169710   2.821   3.375   7.199  0.6077 -0.0730  0.7297
54220SOL    HW269711   2.796   3.388   7.050 -0.5644 -0.0632  0.9169
54221SOL     OW69712   0.928   0.690   1.794  0.1864 -0.0439 -0.1453
54221SOL    HW169713   0.935   0.611   1.848 -0.0004  0.9983  1.4933
54221SOL    HW269714   0.836   0.716   1.802 -0.0544 -0.3216 -1.7003
54222SOL     OW69715   1.957   4.223   7.698 -0.4367  0.1165 -0.3990
54222SOL    HW169716   1.895   4.210   7.627 -1.7363  0.0627  0.7173
54222SOL    HW269717   1.959   4.318   7.712 -0.5727  0.0889 -0.1817
54223SOL     OW69718   0.074   3.827   8.999 -0.0337  0.1446 -0.1847
54223SOL    HW169719   0.124   3.898   8.958 -2.8402  1.0928 -2.2847
54223SOL    HW269720   0.096   3.750   8.947 -0.3947  0.4758 -0.8457
54224SOL     OW69721   2.624   2.946   7.466  0.0070 -0.0282 -0.1237
54224SOL    HW169722   2.697   2.889   7.489 -0.0743 -0.1086 -0.0615
54224SOL    HW269723   2.566   2.942   7.542 -0.2988 -0.3561 -0.3684
54225SOL     OW69724   7.526   9.998   2.374 -0.8343 -0.1133  0.2917
54225SOL    HW169725   7.600  10.029   2.322 -0.8597 -0.6110 -0.0572
54225SOL    HW269726   7.517   9.906   2.348 -2.1605  0.1832 -0.3760
54226SOL     OW69727   1.113  11.046  11.063  0.3021 -0.2061  0.2424
54226SOL    HW169728   1.102  11.133  11.102 -1.7224 -0.5672  0.6194
54226SOL    HW269729   1.059  11.048  10.984  2.4412 -0.2818 -1.3038
54227SOL     OW69730   1.870   6.233   7.369 -0.2859  0.0071  0.1238
54227SOL    HW169731   1.889   6.213   7.461 -1.6298  0.5907  0.5511
54227SOL    HW269732   1.775   6.243   7.366 -0.3637 -0.9736 -1.5432
54228SOL     OW69733   1.087   1.313   2.591 -0.2340  0.7192  0.3229
54228SOL    HW169734   1.002   1.308   2.635  0.5960 -0.8631  1.8743
54228SOL    HW269735   1.069   1.358   2.509 -2.3858  1.2901  1.0414
54229SOL     OW69736   8.178   8.740  10.249  0.8207  0.1314  0.4223
54229SOL    HW169737   8.271   8.760  10.243  1.0224 -0.9367 -0.3310
54229SOL    HW269738   8.175   8.650  10.280  0.0613 -0.0829 -0.2316
54230SOL     OW69739   6.576   2.918   5.024  0.0958 -0.0741  0.2604
54230SOL    HW169740   6.604   2.836   5.064  1.0530  0.8293  1.5745
54230SOL    HW269741   6.640   2.934   4.954 -0.7165 -0.9447 -0.6979
54231SOL     OW69742   6.487  10.089  10.010  0.1849 -0.1087 -0.2151
54231SOL    HW169743   6.483  10.017  10.073  1.0853 -0.3393 -0.4116
54231SOL    HW269744   6.578  10.118  10.012 -0.3551  1.6798  0.5755
54232SOL     OW69745   7.409   5.605   5.249  0.1421 -0.2391  0.1635
54232SOL    HW169746   7.361   5.650   5.319  1.5637 -1.1058  1.7491
54232SOL    HW269747   7.501   5.625   5.266  0.6968 -2.4387  0.0039
54233SOL     OW69748   4.255  12.088   9.320  0.0641 -0.1806 -0.2931
54233SOL    HW169749   4.186  12.107   9.383 -0.4011  2.2463 -1.4443
54233SOL    HW269750   4.336  12.109   9.367 -0.2571  1.2216 -0.3293
54234SOL     OW69751   2.376   1.249   4.134 -0.3811  0.0143  0.4202
54234SOL    HW169752   2.304   1.310   4.150 -1.3468 -1.0515  0.3202
54234SOL    HW269753   2.398   1.215   4.221 -0.0836  0.2477  0.4359
54235SOL     OW69754   2.286   9.383   1.178 -0.5476  0.1350 -0.3264
54235SOL    HW169755   2.280   9.290   1.200  2.2548  0.3495  2.0114
54235SOL    HW269756   2.207   9.422   1.215 -0.2802 -0.9288  1.4683
54236SOL     OW69757   0.659  10.749  10.590  0.5201 -0.3291  0.0484
54236SOL    HW169758   0.693  10.815  10.649 -0.7122  0.7805 -0.4184
54236SOL    HW269759   0.734  10.694  10.568  1.0721 -0.5692  2.3339
54237SOL     OW69760   5.325   5.632   1.854 -0.4197  0.1696  0.7183
54237SOL    HW169761   5.325   5.541   1.881  1.4236 -0.1236 -0.1162
54237SOL    HW269762   5.418   5.656   1.848 -0.8450  1.8273  0.0714
54238SOL     OW69763   9.341  10.305   0.366  0.1272 -0.7894 -0.3234
54238SOL    HW169764   9.386  10.241   0.311  0.1387 -0.6334 -0.4958
54238SOL    HW269765   9.316  10.256   0.444 -0.7013 -1.2540 -0.8558
54239SOL     OW69766   0.041   9.456   2.171  0.9359  0.1733 -0.1597
54239SOL    HW169767   0.096   9.449   2.093  0.1150 -1.0198 -0.6731
54239SOL    HW269768   0.004   9.544   2.168 -2.6050 -1.1463 -3.6386
54240SOL     OW69769   2.022  12.304   7.126  0.3212  0.1808  0.2312
54240SOL    HW169770   2.069  12.274   7.048 -0.7719  2.9660 -1.6825
54240SOL    HW269771   1.929  12.296   7.103 -0.0627 -0.0777  1.7624
54241SOL     OW69772   3.285  10.406   9.539 -0.1712  0.8308 -0.3100
54241SOL    HW169773   3.309  10.323   9.498  0.4297  0.9688 -0.2374
54241SOL    HW269774   3.323  10.472   9.482  0.4375  1.0307  0.3302
54242SOL     OW69775   9.582  10.549   9.404  0.0566  0.2670  0.3841
54242SOL    HW169776   9.510  10.517   9.350  0.0369  0.5432  0.2464
54242SOL    HW269777   9.572  10.644   9.404 -0.7845  0.2309  2.0121
54243SOL     OW69778   3.170   9.365  11.757 -0.1068 -0.3664 -0.0878
54243SOL    HW169779   3.168   9.297  11.690 -1.0873  0.8035 -1.3104
54243SOL    HW269780   3.261   9.368  11.786  0.5369 -0.3555 -1.9848
54244SOL     OW69781  10.730   4.770   9.563  0.2080 -0.4364 -0.3155
54244SOL    HW169782  10.738   4.865   9.561  0.4313 -0.4233  0.7642
54244SOL    HW269783  10.807   4.738   9.517  0.6710 -0.1077  0.2260
54245SOL     OW69784  11.600   3.524   2.264 -0.1973 -0.1732  0.4419
54245SOL    HW169785  11.629   3.480   2.344  1.1267 -0.2838 -0.0670
54245SOL    HW269786  11.582   3.454   2.203 -2.5014 -0.1437  1.0151
54246SOL     OW69787   1.404   6.554   1.514 -0.2930  0.0345 -0.0136
54246SOL    HW169788   1.424   6.478   1.458 -0.7459  0.1270 -0.3054
54246SOL    HW269789   1.448   6.627   1.472 -2.9942  0.7037 -1.9672
54247SOL     OW69790   6.393   6.594   5.694  0.0142  0.2910  0.4051
54247SOL    HW169791   6.343   6.515   5.674  1.1761  0.1381 -2.2811
54247SOL    HW269792   6.328   6.665   5.691 -0.4315 -0.1386 -0.9828
54248SOL     OW69793   0.563   7.044   9.526  0.3917 -0.1782  0.0705
54248SOL    HW169794   0.515   6.996   9.594 -0.2639  0.3994  0.0314
54248SOL    HW269795   0.506   7.040   9.449 -0.5484  2.1560  0.5664
54249SOL     OW69796   6.197   3.918  11.600  0.6497 -0.1583  0.4676
54249SOL    HW169797   6.123   3.937  11.657  0.1683 -0.7754  0.0586
54249SOL    HW269798   6.236   3.838  11.637  0.9791  0.0368  0.5487
54250SOL     OW69799   1.622   0.728   7.676  0.2933  0.1126  0.5958
54250SOL    HW169800   1.599   0.649   7.627  1.0213 -0.4701  1.1774
54250SOL    HW269801   1.681   0.697   7.745 -0.6100  0.9252  1.7677
54251SOL     OW69802  12.589   5.296   7.343 -0.2077 -0.4097 -0.2996
54251SOL    HW169803  12.618   5.272   7.254  1.0313  1.5229 -0.4739
54251SOL    HW269804  12.620   5.386   7.355 -0.8152 -0.4400  1.9120
54252SOL     OW69805  11.665  10.424  10.720 -0.5453  0.2715  0.1636
54252SOL    HW169806  11.736  10.447  10.780 -0.6634 -1.0259  0.8400
54252SOL    HW269807  11.641  10.507  10.678  0.1330  1.0547  1.2578
54253SOL     OW69808  10.057   5.936   0.956  0.3909 -0.5753 -0.5999
54253SOL    HW169809  10.091   5.991   1.026 -1.2526 -0.0340 -0.1864
54253SOL    HW269810   9.980   5.893   0.994  0.0517 -1.0462 -1.7600
54254SOL     OW69811   7.037   6.885   8.364 -0.3567  0.3059  0.1833
54254SOL    HW169812   7.122   6.902   8.323 -0.2308 -1.0410 -0.1492
54254SOL    HW269813   7.058   6.838   8.445 -0.8067 -1.0355 -0.4422
54255SOL     OW69814   0.397   3.713  10.941  0.0685 -0.8097  0.3220
54255SOL    HW169815   0.362   3.625  10.956  0.0258 -1.1034 -1.3223
54255SOL    HW269816   0.433   3.709  10.852 -0.4868  1.0021 -0.0152
54256SOL     OW69817   4.762   9.482   3.997  0.1157  0.0803 -0.2181
54256SOL    HW169818   4.817   9.509   3.924  0.8900 -1.4823 -0.2519
54256SOL    HW269819   4.801   9.522   4.074  0.6862 -0.1806 -0.3719
54257SOL     OW69820   4.237   2.580   5.931 -0.3210 -0.1926 -0.1902
54257SOL    HW169821   4.205   2.597   5.842 -0.2570 -1.6187 -0.5048
54257SOL    HW269822   4.205   2.655   5.982  0.7491  1.3327 -1.6413
54258SOL     OW69823   9.383  10.341  10.638  1.0285  0.5205  0.4246
54258SOL    HW169824   9.422  10.406  10.580  0.4939 -0.4849 -1.1299
54258SOL    HW269825   9.450  10.272  10.646 -0.0722 -0.8813 -1.6936
54259SOL     OW69826   3.925  12.189   8.137  0.0140 -0.2821  0.0923
54259SOL    HW169827   3.933  12.193   8.042  0.2584 -1.2584  0.0665
54259SOL    HW269828   3.963  12.272   8.167  0.9993 -0.4525 -0.6087
54260SOL     OW69829   0.826  11.715  12.303 -0.1124  0.3569  0.1540
54260SOL    HW169830   0.773  11.792  12.324 -0.9851  0.1246 -1.0833
54260SOL    HW269831   0.828  11.712  12.207  0.7651 -0.5824  0.1851
54261SOL     OW69832  11.820  11.506   0.518 -0.0821  0.5436  0.1811
54261SOL    HW169833  11.823  11.601   0.509 -1.0224  0.5223 -0.4952
54261SOL    HW269834  11.851  11.489   0.607  2.5055  1.2946 -0.4824
54262SOL     OW69835   8.410   0.336   5.597  0.3622  0.1946  0.6539
54262SOL    HW169836   8.441   0.255   5.556 -1.8756 -0.2294 -0.3885
54262SOL    HW269837   8.425   0.323   5.691  0.5544 -1.2098  0.4479
54263SOL     OW69838   1.221   6.788   4.674 -0.3186 -0.0890 -0.1614
54263SOL    HW169839   1.141   6.775   4.622 -0.8680  0.7655  0.4505
54263SOL    HW269840   1.264   6.863   4.633 -0.7228  0.5499  0.5559
54264SOL     OW69841  11.701   6.132  11.943  0.4456  0.4010  0.7598
54264SOL    HW169842  11.778   6.093  11.983  0.7247  0.4679  0.2937
54264SOL    HW269843  11.635   6.063  11.946  1.4515 -0.8054 -1.6699
54265SOL     OW69844   2.877   7.491   6.786  0.1042  0.4169 -0.2798
54265SOL    HW169845   2.816   7.494   6.713  1.7252 -1.6490 -1.8647
54265SOL    HW269846   2.824   7.468   6.862 -1.1594 -1.1088 -1.5559
54266SOL     OW69847   8.376   0.116   2.253 -0.4225  0.2759 -0.4858
54266SOL    HW169848   8.308   0.073   2.201 -1.3009  1.0547 -0.0032
54266SOL    HW269849   8.346   0.108   2.343  1.4919 -1.8051  0.0686
54267SOL     OW69850  10.630   1.535   2.190  0.4169 -0.3882  0.6392
54267SOL    HW169851  10.698   1.573   2.245 -0.6176  0.8725  1.0986
54267SOL    HW269852  10.589   1.610   2.147 -1.4277 -0.9868  1.2549
54268SOL     OW69853  10.033   9.487   7.311  0.2500 -0.0078  0.0278
54268SOL    HW169854   9.968   9.461   7.376  1.2140  0.8883  1.4410
54268SOL    HW269855  10.016   9.432   7.235 -0.7307 -1.3427  1.1655
54269SOL     OW69856   2.477  10.647   3.305 -0.0723 -0.4060 -0.7967
54269SOL    HW169857   2.479  10.568   3.252 -0.6667 -0.5175 -0.6626
54269SOL    HW269858   2.429  10.622   3.383 -0.8684  0.2705 -1.0574
54270SOL     OW69859   7.681   9.299   0.700 -0.4193 -0.3002  0.3577
54270SOL    HW169860   7.623   9.225   0.718 -0.5636 -0.4809 -0.7941
54270SOL    HW269861   7.747   9.264   0.641 -0.1100  0.3355  0.3184
54271SOL     OW69862   6.633   2.314   2.132 -1.0416  0.1274 -0.0662
54271SOL    HW169863   6.641   2.409   2.139  0.1225  0.0834 -0.5862
54271SOL    HW269864   6.709   2.287   2.080 -1.8733 -0.9840 -0.7620
54272SOL     OW69865  11.339   9.457   4.565  0.6785  0.1474 -0.8041
54272SOL    HW169866  11.317   9.518   4.495 -1.1578 -0.0384 -0.4448
54272SOL    HW269867  11.399   9.506   4.621 -0.1731  1.3805 -0.9297
54273SOL     OW69868   5.186  10.179   1.818 -0.6333 -0.7611 -0.6519
54273SOL    HW169869   5.095  10.190   1.791 -0.2844 -0.2643 -1.6813
54273SOL    HW269870   5.235  10.241   1.765  0.2777 -0.7837  0.1273
54274SOL     OW69871   4.444   5.406  11.692  0.0589 -0.2998  1.1774
54274SOL    HW169872   4.465   5.493  11.657 -1.1286 -0.3118  0.3663
54274SOL    HW269873   4.499   5.397  11.770  1.7605  0.3193  0.1092
54275SOL     OW69874   8.576   0.193   3.427 -0.9506 -0.3637  0.0821
54275SOL    HW169875   8.509   0.262   3.424  1.0485  1.7280  0.4827
54275SOL    HW269876   8.585   0.174   3.521 -1.8298 -1.5861 -0.0579
54276SOL     OW69877   3.338  10.989   7.737 -0.4068  0.2197 -0.0849
54276SOL    HW169878   3.347  11.012   7.829 -0.4535  0.7812 -0.2134
54276SOL    HW269879   3.260  10.933   7.733  0.8599 -1.6905  0.5255
54277SOL     OW69880   1.000   3.263   0.305 -0.2263 -0.3524 -0.0186
54277SOL    HW169881   1.003   3.357   0.320 -0.1691 -0.3291 -0.1750
54277SOL    HW269882   0.911   3.237   0.329 -0.5378 -0.1041 -0.8772
54278SOL     OW69883   1.026   6.883  12.253  0.0094 -0.3330  0.2482
54278SOL    HW169884   0.937   6.871  12.221  0.6397 -2.1086 -0.9719
54278SOL    HW269885   1.045   6.976  12.236 -1.2836 -0.1375 -0.2376
54279SOL     OW69886   6.686   6.795   5.526  0.4175  0.1181  0.4142
54279SOL    HW169887   6.680   6.855   5.451  2.4312 -1.7757 -1.3970
54279SOL    HW269888   6.778   6.798   5.551  0.1851 -0.8962  1.4430
54280SOL     OW69889   5.993   8.875  10.112  0.0326 -0.0073 -0.3251
54280SOL    HW169890   6.051   8.839  10.179 -2.2197  0.8069  2.2055
54280SOL    HW269891   5.934   8.803  10.090  0.5980 -0.1920 -1.3237
54281SOL     OW69892   0.308  12.263   7.778  0.1656  0.7022 -0.1434
54281SOL    HW169893   0.376  12.219   7.830 -0.4737  0.2813  0.3602
54281SOL    HW269894   0.351  12.341   7.743  0.6015  1.0553  1.0978
54282SOL     OW69895   0.115   2.540  10.751  0.2407  0.5162  0.1633
54282SOL    HW169896   0.199   2.520  10.711  0.0110 -1.3938  0.5451
54282SOL    HW269897   0.077   2.607  10.694  0.0911 -1.7807 -2.6585
54283SOL     OW69898   9.425   9.854  10.547 -0.8129 -0.7601  0.0972
54283SOL    HW169899   9.450   9.935  10.503 -0.6531 -0.6329  0.4206
54283SOL    HW269900   9.499   9.833  10.604 -0.0995 -2.0389 -1.2267
54284SOL     OW69901   7.268  11.648   4.183 -0.2156  0.1286 -0.3138
54284SOL    HW169902   7.217  11.725   4.160 -0.3884  0.3582  0.7855
54284SOL    HW269903   7.327  11.678   4.252  0.6903 -0.3857 -0.8442
54285SOL     OW69904  11.568   5.191   5.633 -0.6677 -0.0496 -0.6739
54285SOL    HW169905  11.475   5.211   5.648 -0.2407  2.3168 -0.7611
54285SOL    HW269906  11.607   5.276   5.612  1.1567 -1.2846 -2.6625
54286SOL     OW69907  11.473   8.209   4.909  0.1432 -0.4334  0.1896
54286SOL    HW169908  11.542   8.155   4.948 -0.9204 -1.1790  1.1274
54286SOL    HW269909  11.469   8.180   4.818  1.3484 -0.0649  0.0072
54287SOL     OW69910  10.020   7.990  11.467  0.1009 -0.4568 -0.3155
54287SOL    HW169911   9.957   7.999  11.395  0.2894  0.2076 -0.4040
54287SOL    HW269912  10.027   7.895  11.480  0.7239 -0.6503 -1.7733
54288SOL     OW69913   7.721  11.386   8.727  0.6412 -0.7578 -0.4850
54288SOL    HW169914   7.725  11.317   8.660  1.5291 -0.4216 -0.7932
54288SOL    HW269915   7.776  11.353   8.798 -0.4630 -1.2082  0.1954
54289SOL     OW69916   3.275  10.976   8.133 -0.0557 -0.0734 -0.0471
54289SOL    HW169917   3.262  11.059   8.087  1.5666 -0.0871 -0.6162
54289SOL    HW269918   3.334  10.927   8.076 -0.5871 -1.4165  0.5321
54290SOL     OW69919   8.269   6.416   1.161 -0.6809 -0.2753  0.5005
54290SOL    HW169920   8.272   6.426   1.256  0.4006  4.5381  0.1949
54290SOL    HW269921   8.347   6.364   1.140 -0.7197 -1.0586  2.1447
54291SOL     OW69922  11.604  12.324   2.512  0.2025  0.3124 -0.4383
54291SOL    HW169923  11.522  12.357   2.476  0.9373  1.7000 -0.9068
54291SOL    HW269924  11.577  12.259   2.577 -1.2340  0.2632 -1.0508
54292SOL     OW69925   2.626  11.901   4.815 -0.2835  0.3871 -0.3922
54292SOL    HW169926   2.656  11.813   4.835  0.0312  0.4718 -0.4816
54292SOL    HW269927   2.701  11.943   4.772  0.0614  1.1508  0.8999
54293SOL     OW69928   6.333   1.231  11.571  0.2091 -0.2635  0.6133
54293SOL    HW169929   6.394   1.158  11.584 -0.4232 -0.9740 -0.3149
54293SOL    HW269930   6.300   1.219  11.482 -2.1542 -0.5792  1.4606
54294SOL     OW69931   9.956   8.851  10.050 -0.9064  0.1180  0.1662
54294SOL    HW169932  10.040   8.823  10.085 -0.6931  0.9922  0.3634
54294SOL    HW269933   9.891   8.800  10.100 -0.4804 -1.4914 -0.8388
54295SOL     OW69934  12.306   6.782   0.632 -0.2037  0.1070 -0.2252
54295SOL    HW169935  12.225   6.744   0.664 -1.0813  1.1796 -1.0795
54295SOL    HW269936  12.279   6.864   0.590  1.2885  0.3742 -0.7328
54296SOL     OW69937  11.226   6.697   1.073  0.2957 -0.5052 -0.3082
54296SOL    HW169938  11.222   6.650   1.156  1.1867  0.6908  0.4434
54296SOL    HW269939  11.137   6.690   1.038 -0.3198 -0.3565  1.1332
54297SOL     OW69940   4.661   2.438   8.884  0.2262 -0.1618 -0.2256
54297SOL    HW169941   4.644   2.528   8.909 -0.3037 -0.4886  0.6405
54297SOL    HW269942   4.703   2.399   8.961 -1.6414 -1.2479  0.3277
54298SOL     OW69943   0.886   9.276  11.087 -0.0075 -0.4800 -0.3425
54298SOL    HW169944   0.885   9.253  11.180 -0.0463  0.0288 -0.2143
54298SOL    HW269945   0.978   9.271  11.062  0.4208  2.1323  0.4359
54299SOL     OW69946   7.836  12.168   4.594  0.3886  0.6076 -0.2410
54299SOL    HW169947   7.793  12.103   4.538 -0.0175  2.0304 -1.6455
54299SOL    HW269948   7.823  12.134   4.683  0.0723 -1.1506 -0.9063
54300SOL     OW69949   8.381   5.146   7.989 -0.0085 -0.0971  0.0769
54300SOL    HW169950   8.340   5.230   7.971  0.8975  0.9856  2.5522
54300SOL    HW269951   8.459   5.168   8.041  1.7162 -2.3171 -1.3700
54301SOL     OW69952   8.910   7.010   0.456 -0.7400 -0.2771  0.0024
54301SOL    HW169953   8.822   6.975   0.442 -1.2909  0.8510  0.5033
54301SOL    HW269954   8.912   7.089   0.401  0.9085 -1.6673 -2.1021
54302SOL     OW69955  12.271   5.322  10.958  0.3443  0.3451 -0.1957
54302SOL    HW169956  12.327   5.271  11.017 -0.4660  0.3851  0.6214
54302SOL    HW269957  12.287   5.413  10.983 -0.2712  0.3435  0.2142
54303SOL     OW69958   8.991   7.867   8.462  0.1693  0.5030 -0.0134
54303SOL    HW169959   9.030   7.952   8.447 -3.4835  2.1670 -1.2956
54303SOL    HW269960   8.911   7.885   8.511  0.3715 -2.5089  1.7072
54304SOL     OW69961   1.369   1.138   9.400 -0.4815 -0.2223  0.4113
54304SOL    HW169962   1.399   1.102   9.316  0.2941  1.4151 -0.0475
54304SOL    HW269963   1.449   1.171   9.442 -0.8788 -0.8708  1.7560
54305SOL     OW69964   9.951   3.294   2.482 -0.0105 -0.2582  0.1339
54305SOL    HW169965   9.957   3.297   2.578 -0.1942  0.8211  0.1168
54305SOL    HW269966   9.930   3.384   2.456 -1.2154 -0.7847 -0.8365
54306SOL     OW69967   1.769   8.114  10.564  0.2184 -0.4962  0.2318
54306SOL    HW169968   1.853   8.155  10.579  0.4169 -1.1817  1.0822
54306SOL    HW269969   1.705   8.184  10.575  0.6487 -0.0586 -0.0359
54307SOL     OW69970  10.388  12.339   8.806  0.5473 -0.2926  0.3919
54307SOL    HW169971  10.317  12.380   8.756  1.9390 -1.0716 -2.3873
54307SOL    HW269972  10.345  12.306   8.885 -1.5249  2.1120  0.3786
54308SOL     OW69973   4.444  12.502   0.940  0.5922 -0.1535 -0.2937
54308SOL    HW169974   4.462  12.532   0.851 -0.8736  0.6975 -0.3476
54308SOL    HW269975   4.519  12.530   0.992  2.6259 -2.7002 -1.6104
54309SOL     OW69976  12.350   6.727   7.499  0.0376 -0.6315 -0.1316
54309SOL    HW169977  12.300   6.699   7.575  0.4872 -0.1524  0.3524
54309SOL    HW269978  12.297   6.701   7.424 -0.9313 -0.1520  0.3684
54310SOL     OW69979   6.714   8.131   0.406 -0.0145  0.1226 -0.6825
54310SOL    HW169980   6.774   8.077   0.457 -0.5638  0.2359  0.1168
54310SOL    HW269981   6.768   8.171   0.339  0.2784 -2.0378 -1.8222
54311SOL     OW69982   1.844   2.227   6.796  0.5863 -0.4017  0.1268
54311SOL    HW169983   1.788   2.278   6.738  0.7224  0.7647  0.9912
54311SOL    HW269984   1.834   2.268   6.882  0.9051 -1.6714  0.8023
54312SOL     OW69985  11.615   7.177   6.365 -0.1885  0.1238 -0.0727
54312SOL    HW169986  11.602   7.139   6.278 -0.3604  0.8189 -0.3546
54312SOL    HW269987  11.531   7.166   6.409  0.5973 -2.6171  0.9891
54313SOL     OW69988   4.039  10.462  12.053 -0.3787  0.2760 -0.3437
54313SOL    HW169989   4.132  10.479  12.038 -0.1903  0.0798  0.5424
54313SOL    HW269990   4.034  10.366  12.060 -0.5577  0.3262  0.1881
54314SOL     OW69991  11.792   9.732  10.006  0.1808  0.1340 -0.1664
54314SOL    HW169992  11.852   9.783   9.951  0.0777 -0.0449 -0.4457
54314SOL    HW269993  11.709   9.779  10.001  0.5222  0.9268  0.9887
54315SOL     OW69994   7.676  10.436   5.329 -0.1580  0.2228 -0.2585
54315SOL    HW169995   7.759  10.390   5.318  0.9735  1.3749  2.5391
54315SOL    HW269996   7.684  10.514   5.275  1.1316  0.9034  0.8559
54316SOL     OW69997   9.574   8.770   7.055 -0.7369 -0.1608 -0.4871
54316SOL    HW169998   9.511   8.706   7.022 -0.5992 -0.7305  0.3204
54316SOL    HW269999   9.544   8.791   7.143 -0.9431  1.1275 -0.8430
54317SOL     OW70000   2.711   9.880   3.625  0.2031 -0.1212  0.4946
54317SOL    HW170001   2.659   9.912   3.698  0.7176  0.2122  0.7171
54317SOL    HW270002   2.795   9.855   3.664  0.3628 -0.2513  0.0723
54318SOL     OW70003   9.763   5.079   8.698  0.3780 -0.1142 -0.2179
54318SOL    HW170004   9.684   5.122   8.731  0.3369  0.2725 -0.8072
54318SOL    HW270005   9.803   5.039   8.776 -0.1851  0.0221  0.1487
54319SOL     OW70006  10.218   2.871   6.368 -0.3539 -0.0090  0.1093
54319SOL    HW170007  10.267   2.791   6.348 -1.1489 -0.5717  0.3915
54319SOL    HW270008  10.154   2.845   6.433 -2.1856  0.3066 -1.4752
54320SOL     OW70009   3.794   8.761   9.747 -0.2814 -0.1090 -0.4542
54320SOL    HW170010   3.765   8.798   9.664 -1.5235  1.7882  0.7213
54320SOL    HW270011   3.865   8.818   9.776 -1.0884  0.3963  0.6075
54321SOL     OW70012   6.547  11.997   5.588 -0.7730  0.3958 -0.0126
54321SOL    HW170013   6.608  11.995   5.662 -0.7061  2.1194  0.0242
54321SOL    HW270014   6.571  11.921   5.536  0.6421  0.3697  0.6207
54322SOL     OW70015   8.172   6.026   9.904  0.5178 -0.6094 -0.3189
54322SOL    HW170016   8.242   5.968   9.934  0.5182  0.1190  1.2285
54322SOL    HW270017   8.122   6.045   9.984 -0.4660  0.1861 -1.1004
54323SOL     OW70018   3.893   7.037  11.261  0.0885 -0.1216  0.3735
54323SOL    HW170019   3.842   7.034  11.181 -1.5814 -0.3382  1.4135
54323SOL    HW270020   3.902   6.946  11.288 -0.2225  0.0097  0.9471
54324SOL     OW70021  11.729   6.473   8.054  0.2835 -0.1099  0.0630
54324SOL    HW170022  11.769   6.413   8.117  1.5831  0.4762 -0.1824
54324SOL    HW270023  11.789   6.474   7.980 -0.2468  0.7053 -0.3658
54325SOL     OW70024  10.794  11.569  11.384  0.0026  0.0685  0.2613
54325SOL    HW170025  10.809  11.491  11.438 -1.0004  0.5270  1.2315
54325SOL    HW270026  10.746  11.629  11.441  0.7533  1.4120 -0.4696
54326SOL     OW70027   2.021  11.950  10.287 -0.1437 -0.1079  0.2174
54326SOL    HW170028   2.084  12.023  10.286  1.6474 -1.5897 -0.0686
54326SOL    HW270029   1.948  11.981  10.232  2.1849  0.1598 -3.0070
54327SOL     OW70030   1.050   6.290  10.710 -0.5678  0.0296  0.1500
54327SOL    HW170031   1.123   6.335  10.667 -0.2176 -0.7730 -0.1264
54327SOL    HW270032   0.972   6.331  10.673 -0.2596  0.1614 -0.3759
54328SOL     OW70033   7.121   4.318   2.844 -0.4547 -0.2883  0.1202
54328SOL    HW170034   7.130   4.393   2.786 -3.2202  0.0707  0.0152
54328SOL    HW270035   7.031   4.322   2.876 -0.0301 -2.3180  1.8942
54329SOL     OW70036   7.754  12.544   6.781 -0.2823 -0.1104  0.3399
54329SOL    HW170037   7.817  12.478   6.752  0.8009  0.2851  1.6734
54329SOL    HW270038   7.680  12.493   6.813 -0.3160 -0.6079 -0.4902
54330SOL     OW70039   8.030  12.048  11.851  0.3535 -0.4530 -0.3731
54330SOL    HW170040   8.006  12.076  11.939  0.0301 -2.7426  0.3132
54330SOL    HW270041   7.965  11.982  11.827  1.7111 -1.4824 -1.4173
54331SOL     OW70042   9.901   3.144  10.934 -0.1836  0.2937 -0.0064
54331SOL    HW170043   9.870   3.235  10.939 -0.0973  0.2968  0.4901
54331SOL    HW270044   9.820   3.092  10.938 -0.1194  0.2879  1.7282
54332SOL     OW70045  11.720   7.657   2.442  0.3330  0.3090 -0.2289
54332SOL    HW170046  11.728   7.740   2.489 -0.6208 -0.0525  0.5949
54332SOL    HW270047  11.797   7.607   2.469  0.4443  0.5826 -0.0366
54333SOL     OW70048   9.369   3.363   5.939  0.2430 -0.6186  0.2279
54333SOL    HW170049   9.441   3.427   5.940 -0.5720  0.5059 -2.7975
54333SOL    HW270050   9.299   3.405   5.988  0.5675 -0.3017  0.4301
54334SOL     OW70051   6.223   1.543   1.236  0.0091  0.5670  0.0520
54334SOL    HW170052   6.196   1.592   1.158  1.4598 -1.1478 -1.6090
54334SOL    HW270053   6.141   1.508   1.272 -0.4722 -1.1174 -2.4729
54335SOL     OW70054  11.239   0.888  11.723  0.1504  0.0789 -0.2280
54335SOL    HW170055  11.273   0.935  11.799 -1.5673  0.9798  0.0299
54335SOL    HW270056  11.256   0.947  11.649 -1.9050  1.1526  0.0808
54336SOL     OW70057   7.439   9.087   6.627  0.4524 -0.0243  0.3966
54336SOL    HW170058   7.423   9.115   6.717  1.4241  1.2347  0.2009
54336SOL    HW270059   7.532   9.064   6.625  0.4903  0.1651 -0.3188
54337SOL     OW70060  10.859  10.298   1.231  0.1287  0.7857  0.1087
54337SOL    HW170061  10.801  10.369   1.257 -1.3957 -0.1420 -0.6390
54337SOL    HW270062  10.848  10.232   1.299 -1.1914 -0.1741 -0.9731
54338SOL     OW70063   5.986   3.168   2.587  0.4810  0.1313  0.5191
54338SOL    HW170064   6.064   3.198   2.541  0.3761  0.4638  0.5513
54338SOL    HW270065   6.009   3.176   2.680 -0.1002  1.6810  0.5678
54339SOL     OW70066   6.108   1.271   8.380 -0.2947  0.5205 -0.0468
54339SOL    HW170067   6.054   1.209   8.430  0.2610 -0.9092 -1.1525
54339SOL    HW270068   6.142   1.219   8.307  1.9117  1.6063  0.1492
54340SOL     OW70069   4.664   0.976  11.819 -0.0941 -0.4456 -0.7172
54340SOL    HW170070   4.654   0.956  11.912 -2.7436  0.3960 -0.7546
54340SOL    HW270071   4.747   0.935  11.795  1.0260 -0.0979  2.1465
54341SOL     OW70072   6.492   1.680   7.208  0.3715 -0.4495 -0.2928
54341SOL    HW170073   6.471   1.687   7.301  2.2155 -0.4905  0.1691
54341SOL    HW270074   6.434   1.744   7.166 -0.0670  0.0049  0.9474
54342SOL     OW70075   8.819   2.559  12.039 -0.0268  0.0973 -0.1303
54342SOL    HW170076   8.773   2.529  12.117  0.1089 -1.1316 -0.4908
54342SOL    HW270077   8.750   2.589  11.980 -0.2239 -0.0662  0.0152
54343SOL     OW70078   5.239  10.034  11.372  0.1088  0.2742  0.6592
54343SOL    HW170079   5.243  10.129  11.371 -3.3043  0.5256  1.1178
54343SOL    HW270080   5.233  10.010  11.279 -0.9538  0.6656  0.6186
54344SOL     OW70081   3.361   7.022   2.319  0.2448  0.8576 -0.6016
54344SOL    HW170082   3.443   6.977   2.340 -0.0288  0.8576  0.4938
54344SOL    HW270083   3.386   7.087   2.253  0.9749  0.3269 -0.8665
54345SOL     OW70084   4.525   8.998   9.048  0.1006  0.1172  0.6279
54345SOL    HW170085   4.603   9.052   9.057  0.9145 -0.9470  0.2553
54345SOL    HW270086   4.540   8.947   8.968 -1.7460  1.1033 -0.4029
54346SOL     OW70087   8.993   1.328   8.061 -0.4932  0.4956 -0.3233
54346SOL    HW170088   8.950   1.267   8.121  1.7137 -1.3509 -0.4749
54346SOL    HW270089   8.957   1.307   7.975  0.0313 -0.4474 -0.3307
54347SOL     OW70090   3.122   3.071  10.417 -0.1104 -0.4643  0.0685
54347SOL    HW170091   3.133   3.109  10.505 -1.0113 -0.9240  0.3915
54347SOL    HW270092   3.028   3.055  10.409 -0.0091 -0.6556 -0.8933
54348SOL     OW70093   8.257  12.049   3.517  0.4377  0.2069  0.3759
54348SOL    HW170094   8.201  12.073   3.444  0.9937 -0.3654 -0.2536
54348SOL    HW270095   8.279  11.957   3.501  0.2611 -0.0384  1.4686
54349SOL     OW70096   0.557   7.701   1.794 -0.0327  0.4898  0.5630
54349SOL    HW170097   0.533   7.640   1.864  0.6694  1.5333  1.7679
54349SOL    HW270098   0.512   7.782   1.817 -0.2111  0.6986 -0.5005
54350SOL     OW70099  10.478   3.937   6.771 -0.0933  0.9174  0.6531
54350SOL    HW170100  10.471   3.876   6.845  0.3098  0.5413  0.3850
54350SOL    HW270101  10.467   3.883   6.694 -0.5609  1.3196  0.4346
54351SOL     OW70102   1.935   3.957   4.334 -0.1730 -0.3842 -0.1150
54351SOL    HW170103   1.925   3.930   4.425 -0.2700 -2.4728 -0.7077
54351SOL    HW270104   2.030   3.956   4.319 -0.1928 -0.7047 -0.2226
54352SOL     OW70105  12.197   8.505   6.163 -0.2469  0.0642  0.0614
54352SOL    HW170106  12.204   8.438   6.095 -1.7562  0.4297 -0.4952
54352SOL    HW270107  12.280   8.553   6.158 -0.5652  0.5193 -2.0334
54353SOL     OW70108   8.030   6.381   2.311  0.4630  0.0968 -0.4277
54353SOL    HW170109   8.062   6.293   2.333  0.6738  0.7559  2.1788
54353SOL    HW270110   8.103   6.439   2.332 -0.0574  1.0033 -1.0692
54354SOL     OW70111   7.473   9.890   5.116  0.0263 -0.4267  0.3547
54354SOL    HW170112   7.414   9.963   5.096 -1.4647 -1.5155  0.6032
54354SOL    HW270113   7.558   9.931   5.131 -0.2197  1.0507 -1.8071
54355SOL     OW70114  11.936   0.529   4.594 -0.7177  0.2171 -0.1175
54355SOL    HW170115  12.009   0.587   4.617 -0.9568  0.5439 -0.1795
54355SOL    HW270116  11.959   0.445   4.634 -1.1758  0.7904  1.4429
54356SOL     OW70117   0.221   2.681   7.002 -0.0167  0.0708  0.0212
54356SOL    HW170118   0.126   2.679   7.018  0.0399  1.1818  0.6110
54356SOL    HW270119   0.238   2.771   6.974  0.8586 -0.1464 -0.1587
54357SOL     OW70120  12.290   5.108   4.376  0.4907 -0.2741 -0.2450
54357SOL    HW170121  12.361   5.056   4.413  0.9039  0.1260 -0.4712
54357SOL    HW270122  12.254   5.053   4.306  0.1389 -0.7545  0.3082
54358SOL     OW70123   7.708   2.561   2.748  0.0718  0.0885  0.2860
54358SOL    HW170124   7.636   2.500   2.732  1.1412 -0.8634 -1.1449
54358SOL    HW270125   7.727   2.552   2.841 -0.0713 -1.4987  0.1883
54359SOL     OW70126   6.269   8.719   0.274 -0.7685 -0.1420  0.0381
54359SOL    HW170127   6.351   8.695   0.317 -0.2399  0.6392 -0.5023
54359SOL    HW270128   6.204   8.718   0.344 -0.4093 -1.2728  0.3779
54360SOL     OW70129   1.915   3.944   1.164  1.0681  0.4714 -0.3134
54360SOL    HW170130   1.864   3.882   1.216 -0.4924  1.9559  0.0233
54360SOL    HW270131   1.978   3.890   1.117 -0.5097 -1.4027 -0.3863
54361SOL     OW70132   3.719   6.903   6.328 -0.7840  0.0932  0.5960
54361SOL    HW170133   3.664   6.861   6.261  0.9785 -0.4902 -0.5601
54361SOL    HW270134   3.680   6.877   6.411 -1.0004 -2.0975 -0.1346
54362SOL     OW70135   1.662   6.239   8.034 -0.1654 -0.2685  0.0462
54362SOL    HW170136   1.748   6.234   8.073  0.2528 -0.7464 -0.9010
54362SOL    HW270137   1.634   6.330   8.049 -0.6351 -0.7598  2.6071
54363SOL     OW70138   6.139   3.217  11.833 -0.3348  0.0205 -0.5024
54363SOL    HW170139   6.098   3.302  11.843 -0.3497  0.3375 -2.6379
54363SOL    HW270140   6.135   3.200  11.738  1.7782 -1.2626 -0.4295
54364SOL     OW70141   0.596  12.488   4.900  0.3243 -0.5239  0.2183
54364SOL    HW170142   0.508  12.488   4.936  0.7942  1.5924  1.5764
54364SOL    HW270143   0.588  12.532   4.815 -0.2414 -2.4485 -0.7819
54365SOL     OW70144  10.548   0.979   2.081 -0.1299  0.3566 -0.3226
54365SOL    HW170145  10.597   0.941   2.154 -1.7129 -0.5651  0.3054
54365SOL    HW270146  10.543   1.072   2.101  0.6631  0.3337  0.0103
54366SOL     OW70147   8.124   3.305   4.590 -0.1970 -0.9289 -0.4049
54366SOL    HW170148   8.133   3.351   4.506  0.6816  1.8413  1.0644
54366SOL    HW270149   8.160   3.366   4.654 -0.4367 -3.1259  1.9687
54367SOL     OW70150  10.807   4.586   9.323 -0.3499  0.6921  0.7783
54367SOL    HW170151  10.875   4.538   9.370  0.4163  0.9659 -0.0117
54367SOL    HW270152  10.732   4.527   9.321 -0.1529  0.4041  1.7040
54368SOL     OW70153   3.665   5.346  12.454 -0.4458  0.2720 -0.1378
54368SOL    HW170154   3.711   5.341  12.370 -1.4434  1.5838 -0.8049
54368SOL    HW270155   3.677   5.260  12.493  0.9424 -0.0225 -1.1404
54369SOL     OW70156   3.575  11.126   8.724 -0.6233  0.5680 -0.7049
54369SOL    HW170157   3.565  11.044   8.677  1.3467  0.6143 -1.2922
54369SOL    HW270158   3.632  11.105   8.798  0.2320  1.4426 -1.0798
54370SOL     OW70159   9.029   0.224   9.790 -0.3808  0.2567  0.3421
54370SOL    HW170160   9.045   0.201   9.882 -0.9278  1.3938  0.7375
54370SOL    HW270161   9.007   0.141   9.748 -2.3885  0.0096  1.7447
54371SOL     OW70162   7.759   7.504  11.719  0.7935 -0.4314  0.0442
54371SOL    HW170163   7.780   7.412  11.733  4.1368  0.5767  3.4365
54371SOL    HW270164   7.808   7.529  11.640  0.7100 -1.3016 -0.2853
54372SOL     OW70165  11.251  11.147   8.825  0.4102 -0.4064  0.0427
54372SOL    HW170166  11.197  11.220   8.856  1.5118 -0.5939  2.6399
54372SOL    HW270167  11.189  11.075   8.816 -0.1707  0.0085  0.5970
54373SOL     OW70168   4.994  11.383   9.757 -0.0753  0.3498 -0.2147
54373SOL    HW170169   4.948  11.466   9.743  0.5756  0.5894 -1.0485
54373SOL    HW270170   5.068  11.386   9.695  1.1113  0.0149  1.1254
54374SOL     OW70171  11.739   2.504   8.366 -0.3567 -0.7991 -0.3422
54374SOL    HW170172  11.708   2.587   8.330  0.0315 -0.3827  0.2560
54374SOL    HW270173  11.659   2.454   8.382 -0.6942 -0.0611  0.4084
54375SOL     OW70174   1.694   2.440   4.421 -0.3059 -0.4229 -0.0336
54375SOL    HW170175   1.710   2.367   4.361  0.5401 -0.2936  0.0212
54375SOL    HW270176   1.606   2.424   4.455 -0.7894 -0.5226 -1.2664
54376SOL     OW70177   5.948   8.569   2.302  0.0046 -0.3309  0.0697
54376SOL    HW170178   5.932   8.662   2.285  0.5921 -0.3352 -0.5335
54376SOL    HW270179   5.862   8.528   2.292 -0.1363  0.0555 -0.3461
54377SOL     OW70180  11.930   4.942   7.728  0.1890  0.2229  0.4134
54377SOL    HW170181  11.944   5.035   7.715 -0.3182  0.2170 -0.2299
54377SOL    HW270182  11.937   4.904   7.641  0.0297 -0.2890  0.6167
54378SOL     OW70183   2.610   1.793   1.848 -0.5741 -0.3376 -0.0634
54378SOL    HW170184   2.575   1.709   1.818  2.2130 -2.0075  0.9950
54378SOL    HW270185   2.698   1.797   1.810 -0.5353  1.9890  0.1626
54379SOL     OW70186  11.146   7.942  10.010 -0.4854  0.0930 -0.5984
54379SOL    HW170187  11.167   8.034  10.025 -1.7450  0.0210  2.2895
54379SOL    HW270188  11.124   7.908  10.097 -1.0082 -2.7116 -1.7172
54380SOL     OW70189   2.416   6.142   0.520 -0.0808  1.3000 -0.4371
54380SOL    HW170190   2.504   6.151   0.483  0.2488  1.6225  0.3941
54380SOL    HW270191   2.430   6.097   0.603 -0.9052 -0.2316 -1.0831
54381SOL     OW70192   1.636   8.453   2.964  0.4090  0.0798  0.3957
54381SOL    HW170193   1.637   8.461   2.868 -0.8498 -0.3686  0.3286
54381SOL    HW270194   1.649   8.360   2.980 -2.8705 -0.4789  0.4833
54382SOL     OW70195  10.689   3.551   8.184  0.0656  0.1017 -0.0971
54382SOL    HW170196  10.620   3.503   8.231  0.0262  0.9806  0.7720
54382SOL    HW270197  10.686   3.516   8.095 -0.5887 -0.8370  0.2789
54383SOL     OW70198   1.951   3.956  10.234  0.0088  0.5414 -0.5675
54383SOL    HW170199   2.029   3.903  10.247 -0.7138 -0.3815  0.1143
54383SOL    HW270200   1.880   3.905  10.272 -0.6404  2.2260  0.5997
54384SOL     OW70201   7.023   7.906   0.720 -0.2636 -0.1929 -0.2890
54384SOL    HW170202   6.977   7.916   0.804 -1.3146  2.1063 -1.0509
54384SOL    HW270203   7.114   7.924   0.741 -0.0236 -2.3025  0.7872
54385SOL     OW70204   2.848   2.289   0.631  0.0422 -0.1089  0.4304
54385SOL    HW170205   2.786   2.255   0.696 -1.0330 -0.7838 -0.8862
54385SOL    HW270206   2.906   2.216   0.612 -0.1275 -0.1578  0.0875
54386SOL     OW70207   9.116   0.540   0.762  0.2457  0.1673  0.2076
54386SOL    HW170208   9.055   0.503   0.698 -0.8756 -0.3329  1.5119
54386SOL    HW270209   9.124   0.632   0.737 -1.2765  0.3061  0.1493
54387SOL     OW70210   8.840  11.947   4.083  0.2326  0.0134  0.5844
54387SOL    HW170211   8.765  11.888   4.090  1.1905 -1.1086  2.4033
54387SOL    HW270212   8.871  11.937   3.993 -0.5031 -1.1743  0.4441
54388SOL     OW70213   3.502  10.902   5.497  0.2422 -0.4128  0.0870
54388SOL    HW170214   3.422  10.915   5.549  1.8369  0.9689  2.4186
54388SOL    HW270215   3.539  10.989   5.489  0.7479 -0.7841 -2.4115
54389SOL     OW70216   4.189   5.811   3.568  0.4099 -0.0767  0.0623
54389SOL    HW170217   4.271   5.851   3.598  2.1438 -2.7455 -0.7826
54389SOL    HW270218   4.183   5.729   3.617 -1.6179 -0.1033 -0.1573
54390SOL     OW70219   0.055  12.251  10.390 -0.0408 -0.3831 -0.4941
54390SOL    HW170220   0.010  12.186  10.336  0.0143 -1.9308  1.2324
54390SOL    HW270221   0.144  12.217  10.398 -0.2490 -0.5986  1.1659
54391SOL     OW70222   9.509  11.640   4.004  0.1359 -0.6482 -0.2616
54391SOL    HW170223   9.528  11.547   4.013  0.7317 -0.5558 -0.5560
54391SOL    HW270224   9.425  11.643   3.959 -1.0367 -1.0661  1.7527
54392SOL     OW70225   4.992   4.508  11.662 -0.3068  0.2388  0.2560
54392SOL    HW170226   4.958   4.588  11.701 -0.9095 -0.5287  1.3621
54392SOL    HW270227   4.922   4.444  11.674  1.0448 -1.0800  1.5374
54393SOL     OW70228  12.118  11.169   4.401 -0.1861  0.0855 -0.1104
54393SOL    HW170229  12.125  11.236   4.468 -2.1950 -0.3170  0.5674
54393SOL    HW270230  12.024  11.161   4.384  0.1973 -0.2964 -2.5063
54394SOL     OW70231   8.615   5.992   7.215 -0.1558  0.0639 -0.3846
54394SOL    HW170232   8.604   5.898   7.198  0.4066 -0.3871  1.5045
54394SOL    HW270233   8.660   5.996   7.300 -0.8537  2.0512 -0.0547
54395SOL     OW70234   1.979   1.933   2.343  0.4428 -0.4626 -0.3358
54395SOL    HW170235   2.071   1.927   2.369  0.3222 -0.2843  0.1462
54395SOL    HW270236   1.977   1.896   2.255  1.2553  1.1014 -1.0475
54396SOL     OW70237  10.805   1.380   0.585  0.0411  0.4264 -0.3374
54396SOL    HW170238  10.730   1.438   0.593  0.6272  1.1568 -0.0176
54396SOL    HW270239  10.786   1.326   0.508 -0.7010  0.7583 -0.3907
54397SOL     OW70240   0.646  12.017   7.550  0.0843 -0.0734 -0.2309
54397SOL    HW170241   0.564  11.976   7.525  0.4657 -0.7078 -0.4584
54397SOL    HW270242   0.634  12.043   7.642 -1.1078  1.7339 -0.8479
54398SOL     OW70243   9.996   8.327   8.362  0.8338  0.4471  0.1060
54398SOL    HW170244   9.964   8.238   8.374  1.3235  0.3195  0.5236
54398SOL    HW270245  10.058   8.340   8.434  0.2691  1.3625  0.4399
54399SOL     OW70246   9.032  11.931   9.002 -0.8041  0.5965  0.0728
54399SOL    HW170247   9.057  11.912   8.911  0.3677  0.5496  0.3904
54399SOL    HW270248   8.980  12.011   8.996 -0.1669  0.9775 -0.5877
54400SOL     OW70249  10.430   2.913   9.629  0.6316 -0.1937  0.2758
54400SOL    HW170250  10.405   2.820   9.626  2.9218 -0.8869  1.1784
54400SOL    HW270251  10.367   2.952   9.689 -1.6548 -0.6563 -1.6292
54401SOL     OW70252  12.131   0.124   0.406  0.1061 -0.0980 -0.0102
54401SOL    HW170253  12.155   0.202   0.355  2.1803 -1.1547 -0.7597
54401SOL    HW270254  12.099   0.061   0.341  1.9392 -1.1435  0.0485
54402SOL     OW70255   4.714  10.344   3.641  0.0235 -0.5493 -0.0484
54402SOL    HW170256   4.714  10.278   3.572 -0.0268 -0.6816  0.0771
54402SOL    HW270257   4.640  10.401   3.620 -0.4858 -1.0576  0.3387
54403SOL     OW70258   1.311   5.027   4.741  0.2557  0.2307 -0.6644
54403SOL    HW170259   1.360   5.102   4.707 -1.3100  2.0445  0.8707
54403SOL    HW270260   1.325   4.958   4.676  1.5783  1.8951 -2.2576
54404SOL     OW70261  10.016   2.192   8.781  0.3926  0.0420 -0.3405
54404SOL    HW170262  10.005   2.149   8.696 -0.4792  2.7524 -1.6859
54404SOL    HW270263  10.110   2.209   8.787  0.4163  0.1016 -0.8779
54405SOL     OW70264  10.326   9.167   4.773  0.1163  0.3392 -0.2363
54405SOL    HW170265  10.388   9.110   4.728 -0.1201 -0.9635  1.0376
54405SOL    HW270266  10.322   9.245   4.718  1.8491 -0.0921 -1.0507
54406SOL     OW70267   5.206   5.768   1.008  0.0883 -0.7060 -0.1508
54406SOL    HW170268   5.154   5.690   0.985 -1.2191 -0.0571  0.5009
54406SOL    HW270269   5.296   5.742   0.989 -0.5479 -1.4294 -2.6490
54407SOL     OW70270   4.619  10.253   4.540 -0.2839 -0.3951 -0.0845
54407SOL    HW170271   4.537  10.204   4.533 -0.7115  0.4900 -1.6125
54407SOL    HW270272   4.684  10.199   4.494 -0.5031 -0.0766 -0.7775
54408SOL     OW70273   2.635   0.663   3.422  0.3843  0.2537  0.0790
54408SOL    HW170274   2.702   0.703   3.367  1.4961 -1.1191  0.3896
54408SOL    HW270275   2.600   0.736   3.474  0.6667  1.2172 -1.0427
54409SOL     OW70276   2.564   2.188  10.136 -0.0043 -0.3257  0.1237
54409SOL    HW170277   2.489   2.228  10.180  0.1287  0.7519 -0.6033
54409SOL    HW270278   2.601   2.258  10.082  1.7232 -0.7382  0.6984
54410SOL     OW70279   5.595   9.557   5.173  0.1216  0.1689  0.3763
54410SOL    HW170280   5.509   9.543   5.215 -0.2527 -0.4665 -0.5709
54410SOL    HW270281   5.630   9.469   5.161  1.0102  0.4373  0.9316
54411SOL     OW70282  10.173  10.741   4.113 -0.2848 -0.2547 -0.1118
54411SOL    HW170283  10.208  10.652   4.109  0.1682 -0.0613 -0.5990
54411SOL    HW270284  10.121  10.750   4.033 -2.4238 -0.9172  1.1223
54412SOL     OW70285   6.717   7.509   5.907 -0.4225  0.0775 -0.3091
54412SOL    HW170286   6.710   7.596   5.866 -0.3709  0.3295  0.2038
54412SOL    HW270287   6.629   7.492   5.942  0.0306  0.8179  1.3296
54413SOL     OW70288   5.602   6.317  11.916  0.3170  0.1012 -0.2578
54413SOL    HW170289   5.510   6.291  11.910  0.1109  0.5544  0.7047
54413SOL    HW270290   5.631   6.321  11.825  0.1984 -2.7648 -0.5189
54414SOL     OW70291   3.943  12.086   4.327  0.0647 -0.0869  0.0691
54414SOL    HW170292   3.951  12.008   4.381 -0.6185  0.7866  1.4822
54414SOL    HW270293   4.001  12.070   4.252 -0.4801 -2.1713  0.0246
54415SOL     OW70294   8.148   2.492  11.195 -0.2673  0.6142 -0.4276
54415SOL    HW170295   8.131   2.399  11.208 -2.0580  0.9029 -0.5206
54415SOL    HW270296   8.226   2.509  11.248 -0.5037 -0.7098  0.4047
54416SOL     OW70297   9.904   8.346  11.349  0.2347  0.4858  0.1858
54416SOL    HW170298   9.812   8.330  11.366  0.1098 -0.7492 -1.4186
54416SOL    HW270299   9.940   8.374  11.433 -1.2948 -0.4486  1.1841
54417SOL     OW70300   0.845   1.839  10.066 -0.0593 -0.0083  0.1233
54417SOL    HW170301   0.877   1.926  10.044  1.2844 -0.5588 -0.1905
54417SOL    HW270302   0.851   1.790   9.984  0.5217 -0.7664  0.6021
54418SOL     OW70303   6.036   3.264   4.342  0.6252  0.3122 -0.3183
54418SOL    HW170304   6.121   3.268   4.386  0.4824  0.4116 -0.0530
54418SOL    HW270305   5.974   3.297   4.407  0.4064  0.3975 -0.5731
54419SOL     OW70306   5.989   2.345   1.369  0.1653 -0.0484 -0.0661
54419SOL    HW170307   5.969   2.252   1.375  0.2038 -0.0696 -0.2639
54419SOL    HW270308   6.084   2.348   1.352  0.0445  0.0068 -0.7515
54420SOL     OW70309  11.780   2.240   1.840 -0.7065 -0.3195 -0.2662
54420SOL    HW170310  11.689   2.271   1.838  0.0568  2.1095  0.3120
54420SOL    HW270311  11.775   2.152   1.802 -3.4996 -0.8626  1.0586
54421SOL     OW70312   1.043   0.048   9.008  0.4681 -0.4013 -0.7464
54421SOL    HW170313   1.092  -0.022   8.965 -0.3486 -1.1968 -0.4142
54421SOL    HW270314   1.088   0.062   9.091  1.6078  0.6267 -1.4963
54422SOL     OW70315   8.237   3.374   8.481  0.2325  0.4290  0.2621
54422SOL    HW170316   8.290   3.447   8.515  0.1460 -0.4068  2.3215
54422SOL    HW270317   8.190   3.341   8.557 -1.6387 -0.2312 -1.1134
54423SOL     OW70318   9.353  10.014   7.801  0.1967  0.4381 -0.4415
54423SOL    HW170319   9.340   9.997   7.894 -1.3193  1.8981 -0.3331
54423SOL    HW270320   9.378   9.929   7.764  0.7032 -0.1897  1.2497
54424SOL     OW70321   1.811  12.068  11.458 -0.4898  0.5051 -0.4979
54424SOL    HW170322   1.803  12.002  11.527  4.1146  1.3758  1.2502
54424SOL    HW270323   1.758  12.141  11.488 -2.6874 -0.9328 -0.6296
54425SOL     OW70324   7.226  10.326   3.461  0.0063 -0.6885  0.1967
54425SOL    HW170325   7.198  10.301   3.372 -1.5002  0.2435  0.3782
54425SOL    HW270326   7.153  10.378   3.495  1.5217  0.9063  1.1460
54426SOL     OW70327   6.633   5.101   7.656  0.1724 -0.4340 -0.2965
54426SOL    HW170328   6.557   5.085   7.713  0.1959  0.5534  0.0240
54426SOL    HW270329   6.596   5.117   7.570 -0.2336  2.7338  0.3587
54427SOL     OW70330   5.691  12.333   0.581 -0.5265  0.2945  0.1814
54427SOL    HW170331   5.686  12.247   0.539 -0.5197  0.3577  0.0503
54427SOL    HW270332   5.612  12.338   0.635 -0.3844  0.0936  0.4090
54428SOL     OW70333   2.261   3.133   2.152 -0.1306 -0.0169  0.6829
54428SOL    HW170334   2.306   3.137   2.236  0.3344 -1.0277  0.4986
54428SOL    HW270335   2.238   3.040   2.142 -1.9483  0.4110  0.6135
54429SOL     OW70336   2.525  10.924   6.479  0.1049  0.4815  0.3551
54429SOL    HW170337   2.478  10.879   6.549  0.8429  0.6614  0.9882
54429SOL    HW270338   2.583  10.986   6.524 -0.8320  2.0398 -0.4942
54430SOL     OW70339   7.241   6.058   5.446 -0.1747 -0.4605  0.0916
54430SOL    HW170340   7.152   6.044   5.412  0.4989 -0.0312 -2.0090
54430SOL    HW270341   7.279   6.124   5.387  1.8208 -1.2584  0.3985
54431SOL     OW70342   6.128   8.438  11.150  0.2836 -0.0482 -0.0295
54431SOL    HW170343   6.205   8.411  11.200  1.3565 -0.1555 -1.6915
54431SOL    HW270344   6.058   8.441  11.215  1.9141  1.2767  1.7856
54432SOL     OW70345   9.315   4.753  10.726 -0.3119 -0.3976 -0.0132
54432SOL    HW170346   9.394   4.704  10.746 -0.3689 -2.0939 -3.2133
54432SOL    HW270347   9.346   4.839  10.697  0.1479 -0.1715  1.1258
54433SOL     OW70348   6.879   8.873   1.207  0.1341  0.0964 -0.2343
54433SOL    HW170349   6.966   8.841   1.228 -0.0534 -0.5267 -0.3812
54433SOL    HW270350   6.875   8.870   1.111  0.2177  0.8630 -0.2745
54434SOL     OW70351   6.653   5.377  11.670  0.0876  0.7914  0.0293
54434SOL    HW170352   6.604   5.362  11.590 -1.6229  1.7294  0.8410
54434SOL    HW270353   6.603   5.444  11.717  2.5832  2.4129  0.5596
54435SOL     OW70354  10.979   2.041   5.410 -0.5725 -0.0238 -0.4624
54435SOL    HW170355  11.074   2.050   5.406 -0.4968 -0.7075 -0.3061
54435SOL    HW270356  10.947   2.130   5.424 -0.0264  0.3781 -1.6611
54436SOL     OW70357   6.302   3.920   6.539  0.1111 -0.1087  0.1390
54436SOL    HW170358   6.325   3.955   6.625  2.7700 -0.8705 -0.1567
54436SOL    HW270359   6.304   3.825   6.551  1.0385 -0.2323 -0.8611
54437SOL     OW70360   5.390   9.184   6.908  0.8271 -0.1795  0.0375
54437SOL    HW170361   5.307   9.229   6.928  0.1897 -1.9012  1.4744
54437SOL    HW270362   5.419   9.225   6.827 -0.2596  2.0556  0.6843
54438SOL     OW70363   3.836   9.282   2.006  0.3356 -0.3200 -0.3244
54438SOL    HW170364   3.841   9.301   2.100 -0.7546 -1.2435 -0.0726
54438SOL    HW270365   3.910   9.224   1.990 -0.1990 -1.1601  0.2147
54439SOL     OW70366  10.376  11.726   3.708  0.4073  0.2204  0.0701
54439SOL    HW170367  10.373  11.633   3.732  0.6148  0.0975 -0.3485
54439SOL    HW270368  10.366  11.773   3.790 -2.4007 -0.1337  0.0219
54440SOL     OW70369   5.610  11.363   7.054  0.6002 -0.3831  0.2209
54440SOL    HW170370   5.594  11.336   6.964  1.2791  0.7907 -0.2587
54440SOL    HW270371   5.704  11.350   7.067  0.3773 -1.3455  1.0490
54441SOL     OW70372   5.397   4.433   3.655 -0.5233  0.1845 -0.2680
54441SOL    HW170373   5.351   4.360   3.613 -0.9241  0.3171 -0.0667
54441SOL    HW270374   5.341   4.458   3.728 -0.4670  0.7953 -0.4302
54442SOL     OW70375  10.721   1.667   1.547 -0.5040  0.0963 -0.0210
54442SOL    HW170376  10.724   1.757   1.512  0.3812  0.6247  1.3546
54442SOL    HW270377  10.690   1.677   1.637 -0.3521 -0.9807  0.1636
54443SOL     OW70378   4.727   3.438   8.223 -0.2132 -0.3378 -0.0389
54443SOL    HW170379   4.639   3.426   8.258 -0.3372 -2.6263 -0.9977
54443SOL    HW270380   4.779   3.368   8.262  1.0688  0.6161  0.0446
54444SOL     OW70381  11.093   9.295   7.380 -0.0623 -0.0452  0.4271
54444SOL    HW170382  11.140   9.377   7.365 -1.7189  0.9372  0.3575
54444SOL    HW270383  11.162   9.230   7.396  1.3310  1.0998 -0.7129
54445SOL     OW70384   0.826   5.517   9.389 -0.3359  0.3882  0.0025
54445SOL    HW170385   0.820   5.500   9.484  3.0736 -0.7758  0.1291
54445SOL    HW270386   0.817   5.430   9.349  0.7346  0.5307 -0.5617
54446SOL     OW70387  10.333   3.782   0.856  0.1272  0.2991 -0.4262
54446SOL    HW170388  10.402   3.723   0.825 -1.1309  0.1065 -3.1018
54446SOL    HW270389  10.262   3.724   0.883 -1.1236  0.4552 -3.0899
54447SOL     OW70390   4.452   2.536   1.995 -0.4869  0.3675 -0.1691
54447SOL    HW170391   4.488   2.620   2.025  0.3730  0.0488 -0.2731
54447SOL    HW270392   4.411   2.499   2.073  1.6907 -0.4362  0.6917
54448SOL     OW70393  10.827   8.298   4.057 -0.2559 -0.4827  0.3002
54448SOL    HW170394  10.807   8.327   3.968  3.7432 -0.6828 -0.8502
54448SOL    HW270395  10.842   8.379   4.106  2.0138 -0.3426 -0.5167
54449SOL     OW70396   7.055   6.653   7.302 -0.3186  0.1631  0.6283
54449SOL    HW170397   7.062   6.595   7.378  1.0352  0.1296  0.5174
54449SOL    HW270398   7.140   6.644   7.258 -1.2013 -0.1022 -1.1041
54450SOL     OW70399   0.968   6.686   0.100 -0.7614 -0.2922 -0.1903
54450SOL    HW170400   1.021   6.716   0.026  0.7582  2.0871  1.7434
54450SOL    HW270401   0.955   6.593   0.083  1.7253 -0.3856 -2.1482
54451SOL     OW70402   8.314   4.449   5.888 -0.3634  0.1293 -0.1099
54451SOL    HW170403   8.290   4.540   5.907 -0.9693 -0.4259  1.9968
54451SOL    HW270404   8.381   4.427   5.952 -1.2946 -1.3572  0.4021
54452SOL     OW70405   4.090  11.165  10.549 -0.0288  0.3422 -0.3833
54452SOL    HW170406   4.001  11.130  10.548  0.3581 -1.0116  2.1835
54452SOL    HW270407   4.144  11.093  10.516  0.2639  0.5856 -0.4344
54453SOL     OW70408   1.966   1.765   8.856  0.4101  0.0764 -0.5100
54453SOL    HW170409   1.997   1.815   8.932  0.4584  0.1887 -0.6049
54453SOL    HW270410   1.920   1.829   8.802 -1.1420 -0.3333  0.2645
54454SOL     OW70411   4.571   1.648   0.430  0.0288  0.2336 -0.4037
54454SOL    HW170412   4.550   1.558   0.453  0.3154 -0.0844 -1.3145
54454SOL    HW270413   4.664   1.658   0.451  0.4111 -0.1995 -1.7418
54455SOL     OW70414   2.587   7.024   5.019  0.1219  0.6594 -0.2819
54455SOL    HW170415   2.626   7.039   5.105  0.1561  3.0096 -0.6540
54455SOL    HW270416   2.496   6.999   5.039  0.0603  1.4071  0.4516
54456SOL     OW70417   5.676   9.912   1.041 -0.2125 -0.6070  0.3189
54456SOL    HW170418   5.664   9.918   0.947 -0.5789 -1.8972  0.2630
54456SOL    HW270419   5.590   9.887   1.075  0.0950 -0.8909  0.9114
54457SOL     OW70420   1.400   2.628   0.220 -0.0617  0.3789  0.2789
54457SOL    HW170421   1.344   2.704   0.234 -0.3486  0.4450 -1.1210
54457SOL    HW270422   1.358   2.557   0.270 -0.9423  0.6208 -0.1068
54458SOL     OW70423   8.331   8.867  10.794  0.5962  0.5991 -0.0433
54458SOL    HW170424   8.276   8.896  10.866 -0.7997  0.0297 -0.8401
54458SOL    HW270425   8.387   8.800  10.832 -0.9281 -0.5300  0.2835
54459SOL     OW70426   8.806   1.265  10.121 -0.2717 -0.0102 -0.1209
54459SOL    HW170427   8.897   1.270  10.150  0.3505  2.4603 -2.1198
54459SOL    HW270428   8.756   1.302  10.195  0.5874  0.6299  0.1549
54460SOL     OW70429   9.720  11.849   6.817 -0.2017 -0.4605  0.0254
54460SOL    HW170430   9.746  11.769   6.771 -1.3058 -1.0424  0.3899
54460SOL    HW270431   9.665  11.819   6.889 -2.0406  0.7118 -0.8182
54461SOL     OW70432   0.770   7.530   4.685  0.4839 -0.0442 -0.1768
54461SOL    HW170433   0.735   7.494   4.604 -0.4160  1.4402 -0.4925
54461SOL    HW270434   0.714   7.494   4.754  0.0827  0.1344 -0.4090
54462SOL     OW70435   0.039   7.279   2.413  1.1278 -0.5845 -0.3150
54462SOL    HW170436  -0.027   7.254   2.477 -1.0591 -0.6942 -2.4817
54462SOL    HW270437   0.051   7.201   2.359  1.6641  0.0046 -1.0703
54463SOL     OW70438   1.612  11.800   5.758  0.2010 -0.1409  0.3333
54463SOL    HW170439   1.524  11.794   5.722  0.2555 -0.1575  0.2058
54463SOL    HW270440   1.671  11.780   5.685  0.3610  1.1535  0.0711
54464SOL     OW70441   3.054   8.938  11.948 -0.5578 -0.1255  0.0237
54464SOL    HW170442   3.034   8.880  12.021 -1.6272  0.8291  0.5153
54464SOL    HW270443   3.016   9.022  11.973  0.3732  0.6180 -0.9704
54465SOL     OW70444   1.098   3.782  12.450  0.2546  0.0460 -0.1685
54465SOL    HW170445   1.080   3.691  12.425  0.2914 -0.0465  0.1360
54465SOL    HW270446   1.111   3.779  12.545 -2.8691  0.8219  0.3960
54466SOL     OW70447  11.600  11.879   6.747 -0.2114 -0.3056 -0.5380
54466SOL    HW170448  11.534  11.815   6.776 -0.5222  1.4705  3.3306
54466SOL    HW270449  11.663  11.883   6.820  0.7213  2.5278 -1.3593
54467SOL     OW70450   1.589   4.136   9.577 -0.4831 -0.6752  0.1261
54467SOL    HW170451   1.575   4.054   9.624 -1.5061 -0.6112 -0.0373
54467SOL    HW270452   1.501   4.161   9.547 -0.0640  0.0680 -0.5004
54468SOL     OW70453  12.136   7.452   9.832  0.2430 -0.0752 -0.2610
54468SOL    HW170454  12.183   7.479   9.753 -0.7390  0.1448 -0.7861
54468SOL    HW270455  12.043   7.458   9.808 -0.2270  2.7885  1.7369
54469SOL     OW70456   1.790   7.044   1.817  0.1753 -0.7024  0.3282
54469SOL    HW170457   1.727   7.085   1.876  1.4681  0.8943  0.6836
54469SOL    HW270458   1.860   7.013   1.874  0.8023 -0.3583 -0.2334
54470SOL     OW70459   0.482   3.761   4.509  0.5085  0.0409  0.3995
54470SOL    HW170460   0.403   3.707   4.508  0.0200  0.6196  2.5001
54470SOL    HW270461   0.459   3.838   4.458  0.0835 -0.2598  0.1282
54471SOL     OW70462   2.904   0.744   6.156 -0.1117  0.3789 -0.1976
54471SOL    HW170463   2.950   0.817   6.198 -0.2636 -0.8115  2.2405
54471SOL    HW270464   2.812   0.756   6.180 -0.1867 -0.4001 -0.0425
54472SOL     OW70465   6.859   5.651   6.428  0.0001 -0.4267 -0.1956
54472SOL    HW170466   6.794   5.601   6.477 -1.5800  0.2553 -1.4650
54472SOL    HW270467   6.910   5.585   6.381 -0.4031 -0.9431  0.0799
54473SOL     OW70468   6.706   9.851   4.529 -0.2714 -0.9748  0.2655
54473SOL    HW170469   6.749   9.932   4.558  2.0465 -2.3165  0.8558
54473SOL    HW270470   6.725   9.846   4.436 -0.8879 -0.5828  0.1149
54474SOL     OW70471   8.612   1.274  10.991  0.4163 -0.0853  0.1055
54474SOL    HW170472   8.677   1.230  10.936 -0.5498 -3.3914  1.3980
54474SOL    HW270473   8.527   1.244  10.958 -0.2709  0.0586  1.6249
54475SOL     OW70474   9.213   2.591   3.439  0.2636  0.3280 -0.2631
54475SOL    HW170475   9.302   2.613   3.467  1.3836  0.0945 -3.1923
54475SOL    HW270476   9.184   2.667   3.389 -0.4480 -0.2781 -0.8017
54476SOL     OW70477   3.445  11.542   7.751 -0.4964 -0.4882  0.5885
54476SOL    HW170478   3.470  11.451   7.735  1.5481 -0.0181  0.8025
54476SOL    HW270479   3.461  11.586   7.667 -3.8253 -0.6981 -0.2934
54477SOL     OW70480   9.098   7.947   5.627 -0.0111 -0.1076  0.3107
54477SOL    HW170481   9.137   7.959   5.713  1.2231  1.5341 -0.4154
54477SOL    HW270482   9.050   8.028   5.611 -2.1092 -1.2722  0.3220
54478SOL     OW70483   5.684   4.517   1.431  0.2930 -0.1353  0.0605
54478SOL    HW170484   5.605   4.534   1.380 -0.6862  0.5624  1.6999
54478SOL    HW270485   5.756   4.547   1.375 -0.7064  0.4966 -0.9378
54479SOL     OW70486   5.821  12.010   3.075  0.5159  0.4796 -0.4695
54479SOL    HW170487   5.806  12.082   3.014  1.3088  0.7096 -0.4136
54479SOL    HW270488   5.779  11.934   3.035  0.8186  0.6817 -1.1784
54480SOL     OW70489   7.794   5.824   2.281  0.5781  0.3933 -0.4343
54480SOL    HW170490   7.827   5.914   2.271 -1.6537  1.1485 -1.9738
54480SOL    HW270491   7.805   5.786   2.194  1.9056 -1.0217  0.3189
54481SOL     OW70492   5.818   8.351   0.746  0.1332 -0.0516  0.2199
54481SOL    HW170493   5.873   8.315   0.816 -1.2849 -1.5165  0.6287
54481SOL    HW270494   5.805   8.279   0.685  1.4809  1.2570 -1.7055
54482SOL     OW70495   2.731   3.550   9.563  0.1540 -0.4163 -0.1037
54482SOL    HW170496   2.710   3.461   9.537  0.6122 -0.4472 -0.3909
54482SOL    HW270497   2.664   3.604   9.520 -0.5705 -0.6785  0.6775
54483SOL     OW70498  10.178   0.379  10.827  0.0445  0.6581  0.3515
54483SOL    HW170499  10.232   0.441  10.778  0.4546 -0.2186 -0.3552
54483SOL    HW270500  10.157   0.424  10.909  0.6117  1.5834  0.0059
54484SOL     OW70501  11.406  12.379   9.598  0.1989 -0.1684  0.0369
54484SOL    HW170502  11.445  12.329   9.527 -0.4410  0.8579 -1.0834
54484SOL    HW270503  11.410  12.470   9.569 -0.8186  0.1998  0.9417
54485SOL     OW70504   6.535   1.516   4.151  0.2191 -0.1027  0.0433
54485SOL    HW170505   6.483   1.485   4.226  1.3506 -2.9062 -0.2325
54485SOL    HW270506   6.513   1.609   4.145 -1.0300 -0.0823  2.9334
54486SOL     OW70507   5.268  12.508  11.856  0.0799  0.2310  0.0530
54486SOL    HW170508   5.191  12.467  11.816 -0.3027  2.4655 -1.7358
54486SOL    HW270509   5.341  12.476  11.804  0.3266 -1.3738  1.3312
54487SOL     OW70510   4.329   7.208   1.348  0.3413  0.5570  0.1790
54487SOL    HW170511   4.348   7.256   1.429  0.0124  1.1493 -0.0953
54487SOL    HW270512   4.415   7.178   1.318  0.5881  1.2480  0.1831
54488SOL     OW70513   7.410  12.484  11.130 -0.1657 -0.1301 -0.0234
54488SOL    HW170514   7.385  12.543  11.201 -0.8500  0.1800 -0.5089
54488SOL    HW270515   7.502  12.464  11.147 -0.3733 -0.2359  1.0699
54489SOL     OW70516   1.227   4.594   5.859  0.0563  0.7463 -0.6593
54489SOL    HW170517   1.171   4.626   5.930 -0.9974 -0.7458 -0.7876
54489SOL    HW270518   1.203   4.648   5.784  1.4567  2.6088  0.1525
54490SOL     OW70519  10.753  10.944   9.187  0.0530  0.2626 -0.1989
54490SOL    HW170520  10.821  10.888   9.149 -0.5964 -0.9341  0.3271
54490SOL    HW270521  10.772  11.031   9.153  1.2885 -0.2127 -0.8068
54491SOL     OW70522   7.203   4.975   3.478 -0.0391 -0.1123 -0.6102
54491SOL    HW170523   7.195   5.005   3.569  0.0523  1.6474 -1.1434
54491SOL    HW270524   7.287   4.928   3.477  0.9949  1.6117 -0.1938
54492SOL     OW70525   1.942   6.657   4.434  0.1610 -0.5994  0.0747
54492SOL    HW170526   1.979   6.736   4.395  0.5260 -1.7021 -1.9138
54492SOL    HW270527   1.859   6.643   4.388  0.9210 -2.3047 -0.8687
54493SOL     OW70528   2.749   6.308  10.011 -0.8329  0.4184  0.0430
54493SOL    HW170529   2.743   6.263   9.927 -2.3163  0.7570 -0.0561
54493SOL    HW270530   2.842   6.326  10.022 -0.5000 -0.5138 -1.0526
54494SOL     OW70531   8.066   0.489   5.223 -0.4891 -0.1061  0.2489
54494SOL    HW170532   8.096   0.476   5.313 -2.2831 -2.6938  0.5880
54494SOL    HW270533   8.139   0.460   5.169 -0.5560 -1.7001  0.9593
54495SOL     OW70534   6.813   5.103   2.112 -0.1960  0.7409  0.7968
54495SOL    HW170535   6.872   5.163   2.158  1.3249 -0.3658  0.3832
54495SOL    HW270536   6.740   5.158   2.082  2.3547  2.9865 -1.8935
54496SOL     OW70537   8.695  12.382   8.205  0.2349  0.0407 -0.6153
54496SOL    HW170538   8.737  12.408   8.287 -1.5061 -1.0447  0.6956
54496SOL    HW270539   8.623  12.325   8.232 -0.7556  0.1136 -2.8841
54497SOL     OW70540  10.272   0.188  12.211  0.3638  0.3465  0.5940
54497SOL    HW170541  10.367   0.193  12.225  0.2896  2.2889  0.6550
54497SOL    HW270542  10.259   0.222  12.122 -0.1402 -1.7184 -0.1793
54498SOL     OW70543   3.306  11.211   8.819 -0.2144  0.2147 -0.0214
54498SOL    HW170544   3.294  11.305   8.819  1.0211  0.4031  0.5287
54498SOL    HW270545   3.401  11.199   8.823 -0.3520 -0.9855  2.9671
54499SOL     OW70546   1.831   1.275  11.528 -0.3763 -0.0896  0.7778
54499SOL    HW170547   1.846   1.315  11.443  3.6333  0.1242  1.3616
54499SOL    HW270548   1.882   1.194  11.526 -0.0477 -0.0088  2.9718
54500SOL     OW70549  11.804   9.076   7.937 -0.3430 -0.9179 -0.6386
54500SOL    HW170550  11.762   8.991   7.950  0.4783 -1.0184  1.8077
54500SOL    HW270551  11.890   9.067   7.977 -0.6851  1.3720  0.8274
54501SOL     OW70552   4.181   9.236   5.791  0.6669  0.1061 -0.4272
54501SOL    HW170553   4.089   9.250   5.814  0.8912 -1.0197  1.3758
54501SOL    HW270554   4.190   9.272   5.703 -1.7029 -0.5411 -0.9983
54502SOL     OW70555  10.243   1.514   1.867  0.6230  1.5926  0.0915
54502SOL    HW170556  10.274   1.487   1.780  0.6952  2.0537 -0.0268
54502SOL    HW270557  10.310   1.574   1.899  1.6789 -0.1754  1.3663
54503SOL     OW70558   2.558   0.037   0.544  0.5965  0.1665 -0.0923
54503SOL    HW170559   2.549  -0.037   0.484 -1.1718  0.8064 -0.6781
54503SOL    HW270560   2.607   0.002   0.618  1.1995 -1.1428 -1.0643
54504SOL     OW70561  10.168  10.450   6.256  0.0380 -0.1120 -0.1606
54504SOL    HW170562  10.234  10.382   6.266 -0.8992 -0.9638  0.3239
54504SOL    HW270563  10.182  10.508   6.330 -0.1370 -0.6267  0.2788
54505SOL     OW70564   0.827   1.856   0.182  0.4563 -0.5554  0.6426
54505SOL    HW170565   0.765   1.840   0.253  0.0441 -0.9990  0.1889
54505SOL    HW270566   0.785   1.820   0.105  1.7602 -1.8784  0.5088
54506SOL     OW70567  10.437   3.726   3.040  0.9314 -0.3666  0.2326
54506SOL    HW170568  10.478   3.722   3.126  0.1294 -3.0627  0.5894
54506SOL    HW270569  10.346   3.702   3.056 -0.2254  2.7034 -0.9325
54507SOL     OW70570   1.489   3.833   1.772  0.5191  0.0746 -0.0939
54507SOL    HW170571   1.486   3.778   1.694  1.7981  0.7285 -0.6414
54507SOL    HW270572   1.406   3.818   1.816 -0.2048 -0.3441 -1.5600
54508SOL     OW70573   4.899   8.331   6.237 -0.0821  0.0883  0.3203
54508SOL    HW170574   4.988   8.351   6.208  0.1482  0.3056  1.1271
54508SOL    HW270575   4.880   8.245   6.200  0.5046 -0.0078  0.2235
54509SOL     OW70576   6.348  12.014   8.194  0.0182 -0.5307  0.1464
54509SOL    HW170577   6.262  12.037   8.160 -0.6993 -3.1886 -0.0094
54509SOL    HW270578   6.384  12.097   8.226 -1.9863  0.8878 -1.0666
54510SOL     OW70579   9.271   3.209   6.164 -0.5117  0.1214 -0.0224
54510SOL    HW170580   9.209   3.194   6.236 -0.3534 -0.8306 -0.0785
54510SOL    HW270581   9.273   3.127   6.116  0.6131  0.2166 -0.1667
54511SOL     OW70582   9.788   0.650   4.282 -0.0111  0.4743 -0.1288
54511SOL    HW170583   9.822   0.739   4.268  0.0021  0.3776 -0.6998
54511SOL    HW270584   9.743   0.656   4.367  0.9085  0.7538  0.3620
54512SOL     OW70585   5.361   1.454   2.412  0.0209  0.0875 -0.3852
54512SOL    HW170586   5.443   1.407   2.427 -0.0117  0.3610  0.7928
54512SOL    HW270587   5.384   1.523   2.351  0.6904  0.2022 -0.0177
54513SOL     OW70588   6.806  10.160  10.286  0.3072  0.3700  0.0471
54513SOL    HW170589   6.846  10.075  10.303  0.4238  0.1087 -1.3989
54513SOL    HW270590   6.876  10.223  10.306  0.2808  0.1332  0.9375
54514SOL     OW70591   0.789  10.903  10.787 -0.2925  0.0438 -0.2294
54514SOL    HW170592   0.716  10.942  10.835  0.2921 -0.2660  0.9592
54514SOL    HW270593   0.859  10.968  10.791  0.4554 -0.7970  1.1715
54515SOL     OW70594   6.683   3.465   7.446  0.1800  0.2732 -0.5070
54515SOL    HW170595   6.598   3.487   7.484 -0.2655  0.1948 -1.4223
54515SOL    HW270596   6.723   3.406   7.510 -0.1326  0.9013  0.2862
54516SOL     OW70597  11.912   0.254  11.029  0.2967  0.4027  0.4091
54516SOL    HW170598  11.846   0.287  10.969 -1.0438  1.0669  2.1610
54516SOL    HW270599  11.870   0.180  11.073  1.9070 -1.2869 -0.7047
54517SOL     OW70600   1.792   8.689   9.260  0.0626  0.3975  0.7276
54517SOL    HW170601   1.790   8.601   9.223  2.2153  0.4035  0.5099
54517SOL    HW270602   1.759   8.677   9.349  0.8662 -0.7506  0.8988
54518SOL     OW70603   1.464   7.550   3.721 -0.4470  0.2086  0.3255
54518SOL    HW170604   1.449   7.627   3.777 -1.2356 -0.3551  0.9214
54518SOL    HW270605   1.460   7.476   3.782  0.8859 -0.2813 -0.1469
54519SOL     OW70606  10.620  11.027   5.351  0.2750 -0.3115 -0.0274
54519SOL    HW170607  10.712  11.005   5.362  0.4396  0.2514 -0.3073
54519SOL    HW270608  10.605  11.027   5.257 -0.7733 -3.5383 -0.0030
54520SOL     OW70609   4.465  11.519   9.486  0.3746 -0.2212 -0.1633
54520SOL    HW170610   4.468  11.596   9.429  4.0051 -0.5988 -0.7114
54520SOL    HW270611   4.513  11.546   9.564  0.8840 -1.6206  0.0302
54521SOL     OW70612   3.046   0.269  11.029  0.0746  0.2648  0.2083
54521SOL    HW170613   3.087   0.352  11.052  0.1460  0.7424 -1.5285
54521SOL    HW270614   3.061   0.260  10.935 -0.9162 -1.1651  0.1625
54522SOL     OW70615  11.563   7.082  12.239 -0.1683  0.6034  0.0251
54522SOL    HW170616  11.643   7.060  12.286 -0.8782  1.4641  1.6944
54522SOL    HW270617  11.567   7.030  12.159  0.4746 -1.9172  1.6011
54523SOL     OW70618  11.043   5.252  11.954  0.3109 -0.0068 -0.0967
54523SOL    HW170619  10.951   5.244  11.928  0.2456 -2.8160  0.7496
54523SOL    HW270620  11.047   5.336  12.000 -1.6724  0.4579 -0.6538
54524SOL     OW70621   9.664   2.771   7.811 -0.0771  0.0243 -0.5636
54524SOL    HW170622   9.722   2.845   7.791 -2.5226  2.0504 -0.7617
54524SOL    HW270623   9.621   2.752   7.728 -1.0677 -0.1145 -0.0265
54525SOL     OW70624   0.970   7.213  10.575 -0.6456  0.0418  0.5292
54525SOL    HW170625   0.875   7.205  10.566 -0.5684 -0.1712 -0.1842
54525SOL    HW270626   1.001   7.231  10.486  0.0088 -0.1712  0.7089
54526SOL     OW70627   6.712  11.318   7.120  0.0197  0.2055  0.4884
54526SOL    HW170628   6.783  11.316   7.056 -0.9040 -0.2683 -0.5485
54526SOL    HW270629   6.633  11.333   7.068 -0.7747 -0.3345  1.4967
54527SOL     OW70630   5.118  11.642   5.690  0.0857  0.3650  0.5614
54527SOL    HW170631   5.053  11.712   5.692 -0.2020  0.1177 -0.1121
54527SOL    HW270632   5.136  11.624   5.783 -1.3358 -0.0647  0.7777
54528SOL     OW70633   1.343   2.189  11.757 -0.4971  0.0181 -0.0532
54528SOL    HW170634   1.398   2.117  11.788 -0.8062 -0.5979 -0.8856
54528SOL    HW270635   1.388   2.220  11.678 -0.2804  0.8603  0.3856
54529SOL     OW70636  12.517   9.847  12.273  0.0889  0.2472  0.4208
54529SOL    HW170637  12.513   9.751  12.279 -2.7295  0.3304  1.6308
54529SOL    HW270638  12.601   9.870  12.312  0.4107 -1.6784  0.9929
54530SOL     OW70639   9.375   9.781   2.154  0.5566  0.0525 -0.2630
54530SOL    HW170640   9.470   9.776   2.164  0.8206  1.5435 -1.6803
54530SOL    HW270641   9.351   9.865   2.193 -0.5249 -1.1594  1.9305
54531SOL     OW70642   6.579   3.221  11.663 -0.3314  0.2038  0.2537
54531SOL    HW170643   6.533   3.141  11.687 -0.3921  0.1443 -0.0625
54531SOL    HW270644   6.510   3.288  11.658 -0.8388 -0.3895 -2.7398
54532SOL     OW70645   1.963   4.552  12.571  0.0535 -0.0381 -0.2481
54532SOL    HW170646   1.886   4.585  12.525 -1.3582 -0.6023  1.5788
54532SOL    HW270647   1.994   4.627  12.622 -0.0867 -0.1611  0.0202
54533SOL     OW70648   2.523   8.766  11.059 -0.0781  0.3887  0.2511
54533SOL    HW170649   2.480   8.702  11.115  1.8931 -1.5563 -0.3022
54533SOL    HW270650   2.455   8.796  10.999 -0.9012 -1.9551 -0.0853
54534SOL     OW70651   7.984   3.582  10.279 -0.6771  0.7756 -0.5096
54534SOL    HW170652   7.928   3.505  10.286 -0.2247  0.4402 -0.5361
54534SOL    HW270653   8.073   3.547  10.278 -0.3186  1.4350  2.0466
54535SOL     OW70654  10.451   2.415   5.134 -0.4903  0.2079  0.1350
54535SOL    HW170655  10.377   2.413   5.073  0.6566 -1.3166 -1.2967
54535SOL    HW270656  10.471   2.508   5.145 -1.7570  0.5815 -0.4838
54536SOL     OW70657   3.311  11.311   4.266 -0.5170 -0.1507  0.8033
54536SOL    HW170658   3.308  11.244   4.333  0.5983 -0.9461  0.0903
54536SOL    HW270659   3.387  11.288   4.212 -0.4615  1.3439  0.1924
54537SOL     OW70660   3.613   5.153  10.684 -0.1947  0.4824  0.2173
54537SOL    HW170661   3.696   5.190  10.714 -0.2980  0.2650  0.7929
54537SOL    HW270662   3.578   5.107  10.761 -0.0187 -0.9046 -0.5026
54538SOL     OW70663   3.047  11.945   1.719  0.0067 -0.0999 -0.1716
54538SOL    HW170664   3.065  11.873   1.657  1.3247  1.0679 -1.2085
54538SOL    HW270665   3.017  12.017   1.663 -1.6743  0.0696  0.8967
54539SOL     OW70666   8.636   6.744   8.856  0.4023 -0.5048 -0.0420
54539SOL    HW170667   8.686   6.815   8.898  1.3557 -1.1465 -0.0640
54539SOL    HW270668   8.552   6.784   8.833  1.3505  0.9584 -1.1377
54540SOL     OW70669   6.071   4.959   8.148 -0.1103 -0.3321 -0.6034
54540SOL    HW170670   6.098   5.050   8.164 -1.6523 -0.1678  1.5129
54540SOL    HW270671   5.977   4.964   8.133  0.0901 -1.4206 -2.4132
54541SOL     OW70672   2.644  12.159  10.390  0.3052 -0.1093  0.1898
54541SOL    HW170673   2.663  12.251  10.408 -0.2807 -0.0619  0.5890
54541SOL    HW270674   2.663  12.114  10.472  0.3641 -0.3063  0.0673
54542SOL     OW70675   9.874   9.447   9.103 -0.4300 -0.2373 -0.1391
54542SOL    HW170676   9.879   9.506   9.028 -0.6900  0.5940  0.4773
54542SOL    HW270677   9.814   9.377   9.075 -1.4125  0.6576 -0.3271
54543SOL     OW70678  11.712   4.566   1.307  0.0269 -0.0154  0.1726
54543SOL    HW170679  11.639   4.529   1.357  1.0574 -2.3530  0.0418
54543SOL    HW270680  11.678   4.576   1.218 -0.5725  0.3655  0.4329
54544SOL     OW70681   2.675   9.084   0.859  0.1900 -0.4835 -0.7621
54544SOL    HW170682   2.745   9.073   0.794  0.1041 -0.7896 -0.8051
54544SOL    HW270683   2.657   9.178   0.859  1.5950 -0.1861  0.2887
54545SOL     OW70684  11.464   0.165   4.132  0.1014 -0.1446 -0.1044
54545SOL    HW170685  11.544   0.215   4.122  0.4145 -0.7039 -0.4800
54545SOL    HW270686  11.450   0.161   4.227  1.3290 -1.2753  0.0598
54546SOL     OW70687   8.205   2.489   0.298 -0.0609  0.8580  0.7023
54546SOL    HW170688   8.222   2.517   0.208 -2.2040 -2.3456 -0.8997
54546SOL    HW270689   8.163   2.565   0.338 -0.6132  1.8521 -1.5544
54547SOL     OW70690   4.328   6.877  11.442 -0.5745 -0.0716  0.2709
54547SOL    HW170691   4.309   6.817  11.370 -1.9381  0.7243 -0.0699
54547SOL    HW270692   4.282   6.838  11.517  0.3668 -0.5955  0.5900
54548SOL     OW70693   3.672   5.312  11.321 -0.4569  0.0849  0.3863
54548SOL    HW170694   3.737   5.301  11.390  0.5487 -1.0838 -0.7058
54548SOL    HW270695   3.669   5.228  11.276  0.4158  1.3653 -2.2778
54549SOL     OW70696   3.673   7.757   3.285 -0.2605  0.3221 -0.3151
54549SOL    HW170697   3.700   7.808   3.362 -0.3312 -1.0607  0.6599
54549SOL    HW270698   3.690   7.815   3.211  1.2517  1.1168  0.6094
54550SOL     OW70699  10.055   5.360   0.382  0.5326 -0.2036  0.0056
54550SOL    HW170700   9.983   5.326   0.328  0.6956  0.5025 -0.6794
54550SOL    HW270701  10.124   5.294   0.375 -0.0677 -0.9364  0.7469
54551SOL     OW70702  12.505   6.442   2.334  0.2617  0.0712 -0.1547
54551SOL    HW170703  12.525   6.353   2.364 -1.8096 -0.6535 -0.6951
54551SOL    HW270704  12.414   6.456   2.361  1.3188  3.2035  2.5360
54552SOL     OW70705   5.135   1.926   4.829  0.4834 -0.3687 -0.9038
54552SOL    HW170706   5.205   1.875   4.789  3.1593  2.6053 -0.3602
54552SOL    HW270707   5.082   1.957   4.755  1.4220 -0.3542 -1.5748
54553SOL     OW70708  12.106   1.462   9.114  0.0042  0.3377  0.2984
54553SOL    HW170709  12.173   1.400   9.142 -0.0604  1.4839  3.3053
54553SOL    HW270710  12.024   1.428   9.152  0.1744  2.8041  3.2624
54554SOL     OW70711   0.771   5.776   5.002 -0.7407 -0.3113 -0.0010
54554SOL    HW170712   0.861   5.749   5.023 -1.8195 -2.3926  2.4668
54554SOL    HW270713   0.753   5.735   4.918  0.0708 -1.2667  0.2752
54555SOL     OW70714   7.603  10.945   9.711 -0.4317  0.7017 -0.7465
54555SOL    HW170715   7.640  10.984   9.632 -0.1069 -0.5138 -1.2255
54555SOL    HW270716   7.582  11.019   9.767 -1.0338  1.6258 -2.1327
54556SOL     OW70717  12.517   5.991  11.213  0.4470  0.0272 -0.2526
54556SOL    HW170718  12.583   6.018  11.277 -0.4597  0.2492  0.6126
54556SOL    HW270719  12.461   6.068  11.202 -2.2196 -1.3445  2.2958
54557SOL     OW70720   1.057   7.547   4.053 -0.2520  0.5301 -0.2158
54557SOL    HW170721   1.150   7.528   4.058 -0.1999 -0.1275 -2.4648
54557SOL    HW270722   1.033   7.577   4.141  1.8702 -0.1255  0.6355
54558SOL     OW70723  10.180   1.932   8.963  0.4069 -0.6782 -0.0225
54558SOL    HW170724  10.210   1.953   9.051  1.4210  1.9902 -0.9037
54558SOL    HW270725  10.085   1.945   8.967  0.3501 -1.2815  0.8256
54559SOL     OW70726  10.562   2.733   4.618  0.1188 -0.3222  0.3581
54559SOL    HW170727  10.513   2.679   4.556  0.3876 -0.4454  0.2524
54559SOL    HW270728  10.643   2.684   4.634  0.8622  0.5596 -0.5886
54560SOL     OW70729   2.254   6.517   0.284  0.0757  0.7944  0.4095
54560SOL    HW170730   2.303   6.503   0.366  0.4668  0.3784  0.1097
54560SOL    HW270731   2.188   6.583   0.307 -0.4291  0.0046  1.3079
54561SOL     OW70732   7.780   9.981   3.772 -0.2699  0.1079 -0.2308
54561SOL    HW170733   7.686   9.963   3.772 -0.2872  0.1170  0.9889
54561SOL    HW270734   7.792  10.047   3.703 -1.3583  1.0747  0.4787
54562SOL     OW70735   4.151  11.504  11.342  0.4965  0.3021 -0.4851
54562SOL    HW170736   4.145  11.586  11.391  0.5054  0.7328 -1.1863
54562SOL    HW270737   4.224  11.457  11.381 -0.6338 -0.1928  1.1201
54563SOL     OW70738   0.785  11.677   2.514 -0.0521  0.4267  0.1053
54563SOL    HW170739   0.773  11.631   2.598 -0.2147  0.3137  0.0207
54563SOL    HW270740   0.807  11.766   2.540  0.3030  0.2931  0.2705
54564SOL     OW70741   6.015  12.443   2.735  0.2348  0.0595  0.2293
54564SOL    HW170742   6.034  12.354   2.765  0.3835 -0.0520 -0.1863
54564SOL    HW270743   6.095  12.470   2.689 -0.1607  0.0500 -0.4686
54565SOL     OW70744   1.555  12.042   5.010 -0.0868  0.2914 -0.3158
54565SOL    HW170745   1.603  12.049   5.092  3.6637  0.4313 -2.2877
54565SOL    HW270746   1.479  12.099   5.021  1.1125  1.5218  2.4719
54566SOL     OW70747   0.313  11.295   0.964  0.3866  0.5406 -0.0559
54566SOL    HW170748   0.388  11.255   0.921 -1.6393 -1.8526 -1.6681
54566SOL    HW270749   0.333  11.289   1.058  2.4915  0.7172 -0.4561
54567SOL     OW70750  10.198   0.001  10.359 -0.6983  0.0352 -0.4797
54567SOL    HW170751  10.163  -0.031  10.442  0.1550 -0.6462 -0.3787
54567SOL    HW270752  10.273   0.055  10.384 -2.3348  2.5434 -0.6066
54568SOL     OW70753  10.514  12.048  12.435 -0.1965 -0.1579 -0.2684
54568SOL    HW170754  10.445  12.104  12.400  0.3621  0.4586 -0.4136
54568SOL    HW270755  10.519  12.070  12.528 -0.2428 -0.2490 -0.2444
54569SOL     OW70756   9.001   6.335   8.077  0.5112  0.6734  0.1008
54569SOL    HW170757   8.956   6.402   8.128 -0.2533  1.1058 -1.0997
54569SOL    HW270758   8.967   6.345   7.988 -0.7786 -2.2536  0.1119
54570SOL     OW70759   3.132   7.394   0.445 -0.7177  0.0111  0.5614
54570SOL    HW170760   3.209   7.341   0.468 -0.0856 -0.3083 -1.9724
54570SOL    HW270761   3.090   7.344   0.375 -2.3956  0.9483  0.8673
54571SOL     OW70762   0.520   5.597   6.721  0.6870 -0.2421 -0.1671
54571SOL    HW170763   0.589   5.551   6.769 -0.4233 -1.6361  0.1694
54571SOL    HW270764   0.475   5.649   6.788 -1.0468 -2.4116  0.4730
54572SOL     OW70765   6.754   2.060  12.528  0.5225  0.6854 -0.1002
54572SOL    HW170766   6.720   2.009  12.602 -1.0293  1.3465 -0.3086
54572SOL    HW270767   6.695   2.039  12.455  0.1258  2.3764 -0.3166
54573SOL     OW70768  10.729   6.218   6.610 -0.0756 -0.3342 -0.4472
54573SOL    HW170769  10.794   6.237   6.677 -0.8895 -2.2627  0.9893
54573SOL    HW270770  10.769   6.149   6.557 -1.3886 -2.7102  1.4106
54574SOL     OW70771   8.166   4.051  11.547 -0.4319  0.5130  0.4875
54574SOL    HW170772   8.150   4.045  11.641 -2.0214  1.3144  0.2929
54574SOL    HW270773   8.091   4.007  11.507 -0.6880  1.7322 -0.4198
54575SOL     OW70774   4.675   1.262  11.878  0.2784 -0.4338 -0.1679
54575SOL    HW170775   4.690   1.170  11.854  2.4155 -0.6013  1.5388
54575SOL    HW270776   4.762   1.301  11.876 -0.1626  0.7845  2.1008
54576SOL     OW70777  10.560   0.005   1.482 -0.4704  0.6032  0.0528
54576SOL    HW170778  10.612   0.059   1.541  0.0177 -0.7024  0.8775
54576SOL    HW270779  10.474   0.047   1.479 -1.0452 -0.1443  3.0421
54577SOL     OW70780   2.904   1.357   3.073  0.6938 -0.2674  0.1653
54577SOL    HW170781   2.983   1.316   3.108  0.8169 -2.7956 -2.7370
54577SOL    HW270782   2.832   1.302   3.105  0.4196 -0.1114 -0.1807
54578SOL     OW70783   7.428   8.061   7.126 -0.3075 -0.1503  0.3020
54578SOL    HW170784   7.385   8.142   7.154  0.4150  1.5290 -3.0025
54578SOL    HW270785   7.506   8.055   7.180  0.1947  2.0054 -0.0989
54579SOL     OW70786   6.117   6.011   5.484 -0.0800 -1.0771 -0.2976
54579SOL    HW170787   6.086   5.921   5.485  0.3345 -1.2524 -1.6094
54579SOL    HW270788   6.071   6.052   5.411 -0.8235  0.0014  0.7291
54580SOL     OW70789   1.993   1.513   2.448  0.0523 -0.4742 -0.3632
54580SOL    HW170790   1.982   1.583   2.513 -2.1921 -0.7585 -0.3356
54580SOL    HW270791   2.049   1.449   2.490  1.0352  0.6624  0.1339
54581SOL     OW70792   5.831   6.281   2.452 -0.1515  0.3077 -0.1380
54581SOL    HW170793   5.886   6.281   2.374  0.6228  0.5846  0.3873
54581SOL    HW270794   5.769   6.210   2.438  1.3850 -1.1298 -0.0441
54582SOL     OW70795   5.117   4.593   2.845 -0.5614  0.5969  0.7140
54582SOL    HW170796   5.171   4.625   2.917 -0.1660  1.0983  0.2038
54582SOL    HW270797   5.036   4.565   2.887 -0.6786  1.6987  1.2744
54583SOL     OW70798   6.931   9.237   5.772 -0.3914  0.4854  0.0299
54583SOL    HW170799   6.904   9.324   5.743 -0.8209  0.4973  0.4340
54583SOL    HW270800   7.019   9.226   5.737 -0.3744  1.0387 -0.1207
54584SOL     OW70801   6.607   7.055  10.101  0.5933  0.6386  0.0276
54584SOL    HW170802   6.542   7.076  10.034  1.0373  1.7777 -0.0688
54584SOL    HW270803   6.672   7.000  10.056  0.0636  0.0711 -0.0513
54585SOL     OW70804   8.476  11.576   4.860  0.1570 -0.1367  0.6372
54585SOL    HW170805   8.496  11.482   4.862 -1.0140 -0.4096  0.2714
54585SOL    HW270806   8.497  11.603   4.771  1.6648  0.2357  1.0853
54586SOL     OW70807  11.414   9.893   4.293  0.2305  0.1165 -0.3109
54586SOL    HW170808  11.437   9.858   4.206  0.3987  0.8685 -0.5754
54586SOL    HW270809  11.360   9.825   4.332  2.3210 -1.4385  0.0691
54587SOL     OW70810   9.825   8.867   0.579  0.6424  0.3645 -0.2899
54587SOL    HW170811   9.799   8.919   0.655  0.9750 -0.6685  0.5578
54587SOL    HW270812   9.743   8.831   0.545  0.6938 -1.1528  1.0829
54588SOL     OW70813   7.232   7.151   8.467  0.1485  0.1247 -0.5457
54588SOL    HW170814   7.271   7.238   8.468  0.9936 -0.2229 -1.6852
54588SOL    HW270815   7.303   7.092   8.493 -0.0104 -0.3791 -1.2261
54589SOL     OW70816   0.810   3.491   4.622  0.1167 -0.0909 -0.3897
54589SOL    HW170817   0.715   3.477   4.618  0.0765  0.2071 -0.5294
54589SOL    HW270818   0.826   3.563   4.560  0.7888 -1.9645 -2.5271
54590SOL     OW70819   6.434   9.241   1.190  0.0233  0.5511 -0.5547
54590SOL    HW170820   6.418   9.318   1.244 -1.5968  0.4284 -0.7983
54590SOL    HW270821   6.467   9.175   1.251  0.0069  0.9801 -0.0743
54591SOL     OW70822   9.781   2.685  10.090  0.7968  0.2379  0.0125
54591SOL    HW170823   9.862   2.714  10.048  2.2556  1.9338  3.5913
54591SOL    HW270824   9.801   2.598  10.125  0.4192 -0.1237 -0.6523
54592SOL     OW70825   2.141   1.149   3.677  0.6410 -0.0013  0.0217
54592SOL    HW170826   2.078   1.207   3.721 -0.0659 -0.0022 -0.9458
54592SOL    HW270827   2.226   1.180   3.706  0.2011 -0.6700  2.2017
54593SOL     OW70828   9.670   6.683   7.887 -0.6011 -0.0839  0.6438
54593SOL    HW170829   9.648   6.769   7.923  1.1003  0.3198  0.7738
54593SOL    HW270830   9.711   6.636   7.959  0.3579 -0.2484  0.0067
54594SOL     OW70831   5.927   9.540   2.431 -0.5491 -0.7288 -0.1638
54594SOL    HW170832   6.001   9.480   2.420 -0.2209 -0.4068  0.2670
54594SOL    HW270833   5.959   9.607   2.491 -1.8268 -1.6633  1.6502
54595SOL     OW70834   1.313   7.211   4.490 -0.1852  0.3764  0.1512
54595SOL    HW170835   1.240   7.267   4.467  0.1819  0.8009  0.0059
54595SOL    HW270836   1.303   7.196   4.584  0.0126  1.1249  0.2977
54596SOL     OW70837   1.349   0.046   0.547 -0.3384 -0.3835 -0.1718
54596SOL    HW170838   1.296   0.025   0.624 -1.0914 -0.6977 -0.7653
54596SOL    HW270839   1.329  -0.022   0.484 -0.2977  0.2866 -0.9281
54597SOL     OW70840  11.172   2.792   0.824 -0.2395 -0.3369 -0.0753
54597SOL    HW170841  11.132   2.706   0.809 -1.5839  0.3261 -0.3377
54597SOL    HW270842  11.129   2.850   0.762  0.6343  0.5483  0.1263
54598SOL     OW70843   2.310   2.313   8.457 -0.4929  0.1005  0.0808
54598SOL    HW170844   2.228   2.265   8.464 -1.1064  1.2010  0.7315
54598SOL    HW270845   2.306   2.353   8.370 -1.6389  1.8202  0.8619
54599SOL     OW70846   6.749   2.542   6.003 -0.0795  0.1450  0.5091
54599SOL    HW170847   6.745   2.456   6.045  0.0083  0.0903  0.4045
54599SOL    HW270848   6.816   2.533   5.935 -1.4430 -0.2719 -0.8187
54600SOL     OW70849   4.069   8.192  11.951  0.0490 -1.1027 -0.0995
54600SOL    HW170850   3.998   8.250  11.981  2.4431  1.0824  1.7527
54600SOL    HW270851   4.061   8.114  12.006 -1.7553 -1.5881 -0.9562
54601SOL     OW70852   6.115  11.165   3.823  0.0260 -0.1107  0.2168
54601SOL    HW170853   6.069  11.084   3.845 -1.3221  0.3072 -0.9845
54601SOL    HW270854   6.073  11.196   3.743  0.5927  1.7298  0.5971
54602SOL     OW70855  10.676  11.890   1.319  0.2531  0.2022 -0.8810
54602SOL    HW170856  10.662  11.985   1.310 -0.1783  0.3100  0.6184
54602SOL    HW270857  10.589  11.855   1.339  0.7997 -0.1122  1.2699
54603SOL     OW70858   3.176  10.779   7.795  0.0266 -0.0412 -0.6797
54603SOL    HW170859   3.084  10.786   7.769 -0.3072 -0.0209  0.4392
54603SOL    HW270860   3.198  10.687   7.784 -1.0733 -0.7089  1.9241
54604SOL     OW70861   6.747   8.762   8.028 -0.9996 -0.1138  0.0012
54604SOL    HW170862   6.778   8.779   7.939 -1.1031 -0.8065 -0.1782
54604SOL    HW270863   6.803   8.815   8.084 -0.9468  0.3445 -0.4815
54605SOL     OW70864   3.650   3.855   8.879  0.2057  0.5248 -0.2388
54605SOL    HW170865   3.722   3.795   8.899  0.0821  0.5536  0.3150
54605SOL    HW270866   3.630   3.896   8.963 -2.9051 -2.0953  0.4769
54606SOL     OW70867  12.270   3.202   8.607 -0.1281 -0.0982  0.0323
54606SOL    HW170868  12.277   3.108   8.618 -0.3174 -0.1276 -0.0902
54606SOL    HW270869  12.214   3.213   8.530  0.1504  0.1100 -0.1448
54607SOL     OW70870   8.923   2.490   5.585 -0.1015 -0.3843  0.0909
54607SOL    HW170871   8.956   2.502   5.496  1.7264  0.0242  0.7646
54607SOL    HW270872   8.984   2.428   5.625  0.4913  1.1299  1.6901
54608SOL     OW70873   1.591   7.793   1.226 -0.4524 -0.0410 -0.4737
54608SOL    HW170874   1.567   7.876   1.185  1.7417  0.8463 -0.0995
54608SOL    HW270875   1.600   7.733   1.152 -1.8603  0.0537 -0.7645
54609SOL     OW70876   3.078   3.057   5.381  0.6916 -0.3511  0.3367
54609SOL    HW170877   3.023   2.984   5.352  0.7942  0.5066 -2.2714
54609SOL    HW270878   3.166   3.035   5.351  1.7190 -1.1971  3.5275
54610SOL     OW70879   0.710   9.282   0.256 -0.4123 -0.2847  0.2649
54610SOL    HW170880   0.655   9.301   0.179 -0.0249 -0.6275 -0.1003
54610SOL    HW270881   0.799   9.299   0.226 -0.2283 -0.7899  0.5254
54611SOL     OW70882  10.449   3.867   9.717 -0.3077  0.4322  0.3877
54611SOL    HW170883  10.429   3.818   9.637 -0.9341 -0.4288  1.0574
54611SOL    HW270884  10.364   3.896   9.750  0.0574  2.0895 -0.0420
54612SOL     OW70885   1.295   0.361   8.302 -0.5066  0.7676 -0.3001
54612SOL    HW170886   1.362   0.324   8.358  0.2301  0.9240 -1.0595
54612SOL    HW270887   1.342   0.391   8.224 -1.4661  0.7293 -0.9189
54613SOL     OW70888   4.675   5.931   5.045  0.5873  0.0335 -0.8656
54613SOL    HW170889   4.751   5.959   4.994 -0.3369 -0.7934 -2.8212
54613SOL    HW270890   4.600   5.952   4.989 -0.3741 -2.5687 -0.6828
54614SOL     OW70891   2.914   0.982  11.577 -0.6402  0.3583  0.0071
54614SOL    HW170892   2.881   0.982  11.667  1.0470 -0.8476  0.6861
54614SOL    HW270893   2.906   0.890  11.549  0.3535  0.4070 -0.4651
54615SOL     OW70894   8.927  11.695  10.767  0.4198 -0.4835  0.0402
54615SOL    HW170895   8.913  11.750  10.690  0.5175  0.9375  1.0100
54615SOL    HW270896   8.931  11.606  10.732 -2.7464 -0.2578 -1.2667
54616SOL     OW70897   1.230   5.043   3.786  0.0888 -0.6180  0.4792
54616SOL    HW170898   1.314   5.084   3.805  0.7212 -1.1885 -0.9424
54616SOL    HW270899   1.165   5.110   3.808  0.9848  0.3634  0.2067
54617SOL     OW70900   0.005   9.441   5.988 -0.4815  0.2363 -0.0271
54617SOL    HW170901  -0.048   9.515   5.958  0.5328  0.8454 -0.3600
54617SOL    HW270902   0.092   9.458   5.951 -0.1383 -0.9129  0.2365
54618SOL     OW70903  12.508   6.339  10.265 -0.3330  0.0627 -0.6240
54618SOL    HW170904  12.544   6.254  10.291 -0.4605 -0.6757 -2.7393
54618SOL    HW270905  12.415   6.323  10.253 -0.3035  0.4169 -1.3665
54619SOL     OW70906   5.168  11.513  11.028  0.8234 -0.3588 -0.2566
54619SOL    HW170907   5.138  11.428  11.062 -0.7669  0.2467 -0.0957
54619SOL    HW270908   5.185  11.496  10.935  0.7341 -0.9057 -0.1803
54620SOL     OW70909   5.461   9.105  12.350  0.4885 -0.7784 -0.5441
54620SOL    HW170910   5.424   9.193  12.337 -0.6756 -1.2900 -0.8811
54620SOL    HW270911   5.502   9.109  12.436 -1.3942 -0.4663  0.4020
54621SOL     OW70912   6.723  10.569   4.376  0.0988 -0.3882  0.0684
54621SOL    HW170913   6.767  10.491   4.341 -1.9562 -0.9709 -1.4564
54621SOL    HW270914   6.742  10.567   4.470  1.3573 -1.8660 -0.1691
54622SOL     OW70915   3.634  10.219   9.715 -0.3329 -0.0952 -0.3456
54622SOL    HW170916   3.627  10.193   9.623  0.6049 -0.7846 -0.2349
54622SOL    HW270917   3.575  10.160   9.761  0.5525 -0.9571 -0.2957
54623SOL     OW70918   9.864   2.526   5.529 -0.0693 -0.3436 -0.0154
54623SOL    HW170919   9.899   2.479   5.604  0.8755  1.2634  0.5915
54623SOL    HW270920   9.940   2.554   5.479 -0.6849 -1.5077 -1.6870
54624SOL     OW70921   9.090   6.576   9.041 -0.4415 -0.5510 -0.4957
54624SOL    HW170922   9.054   6.597   9.127 -1.4240 -1.0889 -0.7661
54624SOL    HW270923   9.185   6.582   9.053 -0.5286 -1.3564  0.8314
54625SOL     OW70924  10.376  10.260   3.179 -0.0915  0.0620 -0.1909
54625SOL    HW170925  10.328  10.308   3.112  0.4420  1.1716  0.1827
54625SOL    HW270926  10.407  10.181   3.135 -2.3469 -0.7808 -0.3999
54626SOL     OW70927   9.732   7.716   9.804  0.0632  0.0888  0.1563
54626SOL    HW170928   9.811   7.679   9.766  0.6320  1.1229  0.2838
54626SOL    HW270929   9.690   7.763   9.732 -1.0744 -1.4008 -0.2112
54627SOL     OW70930   2.886  10.162   7.934  0.1877  0.2386  0.1762
54627SOL    HW170931   2.792  10.175   7.947  0.5339  0.6460  2.8552
54627SOL    HW270932   2.900  10.070   7.954  0.4646  0.4104  0.8165
54628SOL     OW70933   6.137   8.064   3.284  0.2919  0.0450  0.2761
54628SOL    HW170934   6.146   8.106   3.369  0.4373  2.6017 -0.9206
54628SOL    HW270935   6.049   8.026   3.285  0.6301 -0.8047  1.8545
54629SOL     OW70936   3.482   9.716   9.413 -0.1040  0.1296  0.2489
54629SOL    HW170937   3.523   9.760   9.488 -0.0856 -1.1133  0.9952
54629SOL    HW270938   3.392   9.749   9.412  0.3902  1.5254 -0.3099
54630SOL     OW70939  11.689   2.609   2.692  0.3430  0.3952  0.1490
54630SOL    HW170940  11.718   2.682   2.747 -0.9919  2.4019 -1.6573
54630SOL    HW270941  11.613   2.574   2.738 -0.9988  2.2966 -0.4982
54631SOL     OW70942   1.368   2.448   1.029 -0.7993 -0.2437 -0.5200
54631SOL    HW170943   1.321   2.506   0.970  0.3126  0.6005 -0.6171
54631SOL    HW270944   1.300   2.396   1.072 -1.6222 -1.2720 -2.8891
54632SOL     OW70945  10.765   3.206   4.701 -0.4550  0.4330 -0.3437
54632SOL    HW170946  10.791   3.284   4.750  1.4648  0.2899 -1.0662
54632SOL    HW270947  10.804   3.217   4.615 -1.4219 -0.6475 -0.9481
54633SOL     OW70948  11.406   8.560   6.981  0.5282 -0.1909 -0.6501
54633SOL    HW170949  11.482   8.529   7.031  1.9207  0.9674 -1.9529
54633SOL    HW270950  11.442   8.583   6.896 -1.4939 -0.5491 -1.6565
54634SOL     OW70951  10.821   7.856   6.044 -0.0571  0.1812  0.5083
54634SOL    HW170952  10.830   7.915   6.119  0.7878  0.5920  0.0943
54634SOL    HW270953  10.908   7.819   6.033 -0.4062 -0.5908  0.3036
54635SOL     OW70954   6.397   6.623   9.379  0.0446 -0.0077 -0.5014
54635SOL    HW170955   6.306   6.611   9.406 -0.4733  1.5175 -1.4314
54635SOL    HW270956   6.427   6.535   9.354 -1.2763 -0.4630 -0.5397
54636SOL     OW70957   1.918   7.540   2.386  0.0141 -0.1921  0.1667
54636SOL    HW170958   1.955   7.452   2.389  0.4506 -0.0078  0.3270
54636SOL    HW270959   1.992   7.598   2.406 -0.2135  0.2246 -0.1804
54637SOL     OW70960   7.680   1.067   4.620 -0.0069  0.0194  0.4725
54637SOL    HW170961   7.601   1.013   4.619  0.4845 -0.7099 -0.2890
54637SOL    HW270962   7.649   1.154   4.647 -1.4727  0.3425 -1.9730
54638SOL     OW70963  11.882   7.572   7.931 -0.0265 -0.8719 -0.6527
54638SOL    HW170964  11.910   7.657   7.965  0.6113 -1.6822  0.9456
54638SOL    HW270965  11.791   7.585   7.904 -0.2111  0.1010  0.4032
54639SOL     OW70966   2.853   2.862   5.696 -0.2886 -0.6859 -0.0465
54639SOL    HW170967   2.847   2.919   5.620 -0.2449 -1.8523 -0.9396
54639SOL    HW270968   2.790   2.898   5.758 -1.4959 -0.6675 -1.2579
54640SOL     OW70969   1.725   0.285   1.109  0.4914 -0.1083  0.0898
54640SOL    HW170970   1.710   0.284   1.015  1.9260 -0.1695 -0.1662
54640SOL    HW270971   1.707   0.376   1.135  0.4000 -0.0136 -0.2974
54641SOL     OW70972   8.806  12.578   9.193  0.2731  0.3466  0.1263
54641SOL    HW170973   8.721  12.540   9.213  0.1074  0.5491 -0.1843
54641SOL    HW270974   8.800  12.603   9.100  1.2565 -1.2370 -0.4162
54642SOL     OW70975   7.512   5.293   1.823 -0.0024 -0.2529  0.3726
54642SOL    HW170976   7.529   5.280   1.916  1.9924  0.6835  0.1900
54642SOL    HW270977   7.458   5.371   1.818 -0.4260 -0.5210  0.7618
54643SOL     OW70978   9.636   9.740   0.088 -0.2704 -0.4058 -0.6698
54643SOL    HW170979   9.716   9.689   0.081  0.3252 -0.1210  2.3943
54643SOL    HW270980   9.565   9.677   0.072  0.5243 -1.4987 -0.0218
54644SOL     OW70981   3.131  11.071  11.110  0.0075  0.1340 -0.5095
54644SOL    HW170982   3.173  11.017  11.043 -1.1603  0.4046 -1.5002
54644SOL    HW270983   3.037  11.056  11.097 -0.2459 -0.2977  1.5033
54645SOL     OW70984   5.337   9.091   5.834  0.1581 -0.3143 -0.2605
54645SOL    HW170985   5.346   9.020   5.771  1.4053 -1.6467  1.3185
54645SOL    HW270986   5.344   9.171   5.781 -0.5047 -1.3446 -1.9818
54646SOL     OW70987   9.754   7.780  11.653  0.6536  0.0967 -0.4750
54646SOL    HW170988   9.777   7.852  11.713 -2.5236 -0.7606  2.0757
54646SOL    HW270989   9.806   7.706  11.684  2.0483  0.5977 -1.5006
54647SOL     OW70990   5.381   6.681   2.200  0.1528  0.1676  0.1672
54647SOL    HW170991   5.357   6.657   2.289  1.3676 -1.3618  0.1451
54647SOL    HW270992   5.331   6.620   2.145  0.7014 -0.0552 -0.0912
54648SOL     OW70993  10.796  11.479  10.693  0.8142 -0.5885 -0.2520
54648SOL    HW170994  10.828  11.569  10.681  0.2118 -0.4528 -0.9201
54648SOL    HW270995  10.725  11.471  10.629  0.9032 -1.5594 -0.2318
54649SOL     OW70996   7.417   7.192   7.011 -0.0168  0.6247  0.2796
54649SOL    HW170997   7.491   7.169   6.953 -0.0567 -0.1022  0.5029
54649SOL    HW270998   7.340   7.185   6.954  0.1711  2.5592 -0.2683
54650SOL     OW70999   1.691   3.759   6.530 -0.1583 -0.2810 -0.4361
54650SOL    HW171000   1.771   3.786   6.484 -0.0055  0.1369  0.0645
54650SOL    HW271001   1.659   3.683   6.480  0.3283 -0.2044 -0.8758
54651SOL     OW71002   3.709   5.496   3.803  0.2291  0.4769 -0.0946
54651SOL    HW171003   3.664   5.433   3.746  0.8414 -1.1015  1.0717
54651SOL    HW271004   3.770   5.541   3.746 -1.0930  0.9299 -1.2162
54652SOL     OW71005   1.507   4.829   7.256  0.3427 -0.6874  0.4098
54652SOL    HW171006   1.549   4.751   7.290  1.5418 -0.8894 -1.4115
54652SOL    HW271007   1.453   4.798   7.183  1.0092  0.1796 -0.4783
54653SOL     OW71008   8.175   7.565   1.008  0.0884 -0.2917 -0.0908
54653SOL    HW171009   8.149   7.613   1.086  1.3163  0.2679 -0.0159
54653SOL    HW271010   8.156   7.625   0.936  0.4160 -0.1906 -0.0953
54654SOL     OW71011   3.473   4.905   3.677 -0.0554 -0.1094  0.4710
54654SOL    HW171012   3.483   4.859   3.593  0.1147 -1.1120  1.0321
54654SOL    HW271013   3.558   4.945   3.693  0.0294 -0.2466  0.3634
54655SOL     OW71014   0.098  10.802   4.385 -0.0438  0.4797 -0.2901
54655SOL    HW171015   0.168  10.868   4.388 -1.0828  1.6252  2.5709
54655SOL    HW271016   0.112  10.756   4.302  1.5883  3.3620 -1.7971
54656SOL     OW71017   4.799   0.798  10.465 -0.6895  0.2454 -0.1848
54656SOL    HW171018   4.828   0.708  10.453  0.3419  0.7039 -1.3275
54656SOL    HW271019   4.865   0.837  10.523 -1.0089  0.3231  0.1274
54657SOL     OW71020  10.955   3.958   0.453 -0.0840  0.0430 -0.3288
54657SOL    HW171021  10.894   3.994   0.389  0.8252  1.3463 -0.4869
54657SOL    HW271022  11.025   4.023   0.459 -0.3676  0.1974  2.3458
54658SOL     OW71023   2.469   8.547   6.418  0.1247 -0.2261 -0.3705
54658SOL    HW171024   2.406   8.512   6.355 -0.2606 -0.8670  0.3549
54658SOL    HW271025   2.554   8.535   6.376 -0.2470  1.1559 -1.6034
54659SOL     OW71026   4.166   8.226   9.072 -0.1861  0.6296  0.3595
54659SOL    HW171027   4.132   8.180   8.995  0.6638  0.7533 -0.0980
54659SOL    HW271028   4.089   8.270   9.109 -0.6929  0.1932 -0.1447
54660SOL     OW71029   1.875   3.575   1.768 -0.1667  0.1009  0.1328
54660SOL    HW171030   1.900   3.496   1.815  0.3318  1.1274  1.6920
54660SOL    HW271031   1.824   3.625   1.832  0.5497  1.5569 -0.3917
54661SOL     OW71032   4.901   7.152   6.946  0.0805  0.6704 -0.1868
54661SOL    HW171033   4.962   7.125   6.878 -0.9798  0.5273 -1.1173
54661SOL    HW271034   4.866   7.236   6.915 -0.6018  0.4850  0.0591
54662SOL     OW71035   6.776   1.029  10.973  0.1174  0.1706 -0.0411
54662SOL    HW171036   6.791   1.032  10.879  0.0721  0.2378 -0.0476
54662SOL    HW271037   6.690   0.988  10.982 -0.3167  1.0442 -0.0823
54663SOL     OW71038   2.862  11.614   8.648  0.9545  0.0904 -0.5211
54663SOL    HW171039   2.775  11.653   8.647  0.0012 -1.8460 -2.4285
54663SOL    HW271040   2.879  11.595   8.740 -1.0417 -0.2797 -0.1818
54664SOL     OW71041   9.393   4.683   4.841 -0.3587 -0.4553 -0.3720
54664SOL    HW171042   9.446   4.711   4.767  0.1108 -1.2211 -0.3335
54664SOL    HW271043   9.353   4.764   4.873  0.6445  0.1153 -0.5111
54665SOL     OW71044   5.820  12.192   3.277 -0.0227  0.0315 -0.7018
54665SOL    HW171045   5.828  12.106   3.237 -1.0024 -0.0801 -0.6818
54665SOL    HW271046   5.782  12.247   3.208  0.0910  0.3162 -0.5387
54666SOL     OW71047   4.308  12.286   6.435  0.6214  0.0321  0.0466
54666SOL    HW171048   4.266  12.245   6.510 -1.0171  1.3450 -0.0966
54666SOL    HW271049   4.297  12.223   6.363 -1.5510  0.4830 -0.0915
54667SOL     OW71050   4.706   7.516   0.265  0.0490 -0.1933  0.1648
54667SOL    HW171051   4.797   7.536   0.286 -0.8513  1.5627  2.9534
54667SOL    HW271052   4.705   7.504   0.170  3.2994 -1.1887  0.1420
54668SOL     OW71053  11.482   9.902   0.052 -0.1014  0.6308 -0.0986
54668SOL    HW171054  11.496   9.836   0.120 -1.7769  0.1356 -0.1745
54668SOL    HW271055  11.472   9.851  -0.029  0.5957  1.1289 -0.5084
54669SOL     OW71056   2.690  11.192  11.886 -0.6839  0.0007  0.0078
54669SOL    HW171057   2.748  11.161  11.816 -0.1202  0.8387  0.0771
54669SOL    HW271058   2.656  11.276  11.853 -0.5372  0.3251  0.6642
54670SOL     OW71059   7.582   1.968   4.083  0.3815  0.3413 -0.2003
54670SOL    HW171060   7.595   1.926   3.998  0.3123  0.2807 -0.1814
54670SOL    HW271061   7.644   1.923   4.141  1.3633  1.2689 -0.5055
54671SOL     OW71062   9.342   8.970   7.105  0.1101  0.0524  0.4578
54671SOL    HW171063   9.338   8.888   7.057 -1.8968 -0.2019  0.9472
54671SOL    HW271064   9.376   8.947   7.191 -3.4759 -0.9855  1.7572
54672SOL     OW71065   5.546   0.496  12.554  0.3655 -0.1238 -0.5274
54672SOL    HW171066   5.555   0.403  12.573  3.7217  0.1906  0.0004
54672SOL    HW271067   5.559   0.503  12.460 -1.5559 -0.2707 -0.8477
54673SOL     OW71068   4.309   3.475   3.389  0.1856  0.0356 -0.1487
54673SOL    HW171069   4.226   3.502   3.428  0.7714  2.8336 -0.6277
54673SOL    HW271070   4.286   3.446   3.301 -0.3582  0.1820 -0.0571
54674SOL     OW71071   5.931   2.309   4.600  0.8974  0.1497  1.0357
54674SOL    HW171072   5.966   2.383   4.649 -1.2994  0.1500  2.7098
54674SOL    HW271073   5.919   2.240   4.665 -2.5494  0.2960  0.7201
54675SOL     OW71074   7.749   3.057   9.850  0.4599 -0.0377 -0.0172
54675SOL    HW171075   7.690   3.120   9.810  0.0182 -1.0321 -0.9857
54675SOL    HW271076   7.736   2.977   9.800  1.4273 -0.7412  0.8133
54676SOL     OW71077   1.602   2.564   3.204  0.3453  0.4687 -0.4015
54676SOL    HW171078   1.665   2.522   3.144  0.1264 -0.5593  0.0599
54676SOL    HW271079   1.644   2.559   3.290 -1.3175 -2.4862  0.3749
54677SOL     OW71080   1.972   6.013   1.263 -0.1502 -0.2631 -0.0709
54677SOL    HW171081   1.909   5.987   1.197 -0.3843  1.2489 -0.4815
54677SOL    HW271082   2.056   5.980   1.231 -0.4149 -0.4281 -0.5967
54678SOL     OW71083   7.857   6.638   7.698  0.1160  0.2583 -0.3643
54678SOL    HW171084   7.920   6.623   7.768  0.5421 -1.5643 -1.0853
54678SOL    HW271085   7.809   6.556   7.691 -1.6298  1.2408 -0.5704
54679SOL     OW71086   3.058   8.367   3.069 -0.3172  0.2149 -0.3596
54679SOL    HW171087   3.001   8.409   3.133 -2.3116  0.3882 -2.1208
54679SOL    HW271088   3.038   8.273   3.076 -0.3957  0.2141 -0.5714
54680SOL     OW71089   9.609   2.895   8.936  0.8273 -0.4441  0.4081
54680SOL    HW171090   9.530   2.843   8.950 -0.0453  0.6991 -0.0811
54680SOL    HW271091   9.619   2.898   8.841  2.1878 -1.6157  0.4938
54681SOL     OW71092  10.224   3.198   9.214 -0.1679  0.7761  0.8166
54681SOL    HW171093  10.169   3.120   9.212  2.7685 -1.4795 -0.8081
54681SOL    HW271094  10.279   3.186   9.292  1.3545  0.3106 -0.2741
54682SOL     OW71095   2.831   8.361   2.326 -0.6538 -0.1258  0.1785
54682SOL    HW171096   2.844   8.267   2.336 -0.4070 -0.1671 -0.4346
54682SOL    HW271097   2.895   8.401   2.386  1.6348 -0.3398 -1.9380
54683SOL     OW71098   6.073   6.042  12.269 -0.3420  0.1283 -0.2488
54683SOL    HW171099   6.060   6.128  12.229  0.3205  0.5363  0.3882
54683SOL    HW271100   6.167   6.035  12.280 -0.4601 -0.2825  0.5525
54684SOL     OW71101   6.534   3.194   0.714 -0.1581  0.3970 -0.0752
54684SOL    HW171102   6.483   3.275   0.714 -0.9998 -0.0393  2.1511
54684SOL    HW271103   6.482   3.134   0.660 -1.3917  0.3634  1.0765
54685SOL     OW71104   9.433   8.843  11.751 -0.3179 -0.4581  0.5066
54685SOL    HW171105   9.358   8.871  11.699  0.6421 -0.9772 -1.2516
54685SOL    HW271106   9.473   8.924  11.781 -1.0058 -0.1541  0.6343
54686SOL     OW71107   7.747   3.049   2.543  0.8917 -0.2724  0.1079
54686SOL    HW171108   7.688   2.981   2.576  0.7708  0.4447  1.4440
54686SOL    HW271109   7.785   3.088   2.621 -0.5875  2.5763 -0.4212
54687SOL     OW71110   0.558   3.802   0.276 -0.1248  0.4012 -0.5810
54687SOL    HW171111   0.573   3.880   0.330 -1.6038  0.3306 -0.0181
54687SOL    HW271112   0.490   3.828   0.215 -1.5459 -0.7767  0.4227
54688SOL     OW71113   3.011   5.995   9.154  0.0354 -0.0889 -0.1814
54688SOL    HW171114   3.089   5.961   9.112 -0.3410 -0.6493 -0.4442
54688SOL    HW271115   2.981   5.923   9.210  0.8695  0.8472  1.5450
54689SOL     OW71116   4.837  11.241   4.735  0.2022  0.6087  0.6719
54689SOL    HW171117   4.917  11.197   4.764  0.3200 -1.5911 -2.5265
54689SOL    HW271118   4.868  11.318   4.687  0.3220  0.5190  0.6049
54690SOL     OW71119   2.285   6.245   0.225  0.0457 -0.2994 -0.0422
54690SOL    HW171120   2.254   6.333   0.245 -3.3715 -1.6109  1.2793
54690SOL    HW271121   2.329   6.216   0.305  0.7137  0.0188 -0.2923
54691SOL     OW71122   9.574   4.667  12.292 -0.0912  0.0093  0.5700
54691SOL    HW171123   9.657   4.708  12.315 -0.0057 -0.1589  0.5600
54691SOL    HW271124   9.550   4.616  12.369 -0.2125  0.1011  0.5931
54692SOL     OW71125   3.712   5.406   1.092 -0.5147  0.1391 -0.3311
54692SOL    HW171126   3.795   5.437   1.057 -0.4711  0.9133  0.4099
54692SOL    HW271127   3.722   5.413   1.187 -2.1322  2.3409 -0.2325
54693SOL     OW71128  12.294   4.857   5.917 -0.5327  0.5813  0.3390
54693SOL    HW171129  12.255   4.839   5.831  1.2150  1.1431 -0.6278
54693SOL    HW271130  12.238   4.925   5.954 -0.9235  0.8331 -0.6636
54694SOL     OW71131   9.682   7.695   1.551 -0.7931 -0.1007  0.1342
54694SOL    HW171132   9.668   7.709   1.458 -0.1474 -0.8703 -0.0839
54694SOL    HW271133   9.737   7.618   1.556 -2.0948 -1.0042  1.2127
54695SOL     OW71134   5.671   3.335   7.067  0.2059 -0.5440 -0.5908
54695SOL    HW171135   5.692   3.281   6.991 -0.6406 -3.2325  0.9307
54695SOL    HW271136   5.754   3.375   7.091  0.9173 -1.2548 -1.7508
54696SOL     OW71137   8.692   7.886   9.417  0.4742  0.1086  0.4519
54696SOL    HW171138   8.784   7.888   9.442  0.3869  2.0156  0.8090
54696SOL    HW271139   8.647   7.849   9.493  0.8634 -0.1244  0.5714
54697SOL     OW71140   2.786   7.039   8.742 -0.3555 -0.0511  0.7059
54697SOL    HW171141   2.828   7.090   8.811  0.8216 -1.0365  0.7359
54697SOL    HW271142   2.838   6.959   8.735 -0.3916  0.0691 -1.3960
54698SOL     OW71143   8.799  11.807   0.652  0.5752 -0.0261 -0.0048
54698SOL    HW171144   8.748  11.878   0.691  0.4879 -0.2676  0.3133
54698SOL    HW271145   8.845  11.767   0.725  0.3915 -0.4914 -0.1395
54699SOL     OW71146   7.339   9.710   3.796 -0.2703 -0.1623 -0.3210
54699SOL    HW171147   7.265   9.658   3.764 -0.3581  0.6395 -1.4726
54699SOL    HW271148   7.404   9.705   3.726  0.4276 -0.1369  0.3105
54700SOL     OW71149   5.018   2.112  11.365 -0.1415  0.1611  0.2243
54700SOL    HW171150   4.939   2.057  11.369 -0.2815  0.3881  0.7627
54700SOL    HW271151   4.992   2.187  11.311 -0.3672  0.3331  0.5610
54701SOL     OW71152  11.021   5.680   5.604  0.0491 -0.1173  0.3366
54701SOL    HW171153  10.956   5.666   5.672 -2.3652 -0.6309 -1.9240
54701SOL    HW271154  11.016   5.773   5.585  0.2363 -0.0962  0.3867
54702SOL     OW71155   1.074  10.217   0.831 -0.2757  0.1495 -0.3077
54702SOL    HW171156   1.093  10.153   0.900 -0.6160  0.4523  0.0722
54702SOL    HW271157   1.117  10.181   0.753 -0.7297 -0.7112 -0.1784
54703SOL     OW71158  11.079   1.503   1.915 -0.1958  0.3436  0.0693
54703SOL    HW171159  11.027   1.513   1.995 -0.3928  0.2848 -0.0492
54703SOL    HW271160  11.027   1.443   1.861  1.7277 -2.8700  1.4704
54704SOL     OW71161   2.013   5.515   2.113  0.2960  0.2508  0.2844
54704SOL    HW171162   1.984   5.427   2.137  0.7926  0.1538  0.5644
54704SOL    HW271163   2.018   5.562   2.197  0.8049  0.2983  0.2352
54705SOL     OW71164   1.064   8.973   5.072 -0.2368 -0.2634 -0.2876
54705SOL    HW171165   1.158   8.979   5.087 -0.3033 -0.3387  0.1583
54705SOL    HW271166   1.036   8.896   5.122 -0.3590 -0.8927 -1.2964
54706SOL     OW71167   3.280   4.134   3.423 -0.4087 -0.2846 -0.1421
54706SOL    HW171168   3.366   4.105   3.393  0.6562  0.5099  1.9566
54706SOL    HW271169   3.250   4.064   3.482 -0.0796  0.5212  1.0153
54707SOL     OW71170  12.018   1.513   3.684 -0.6988 -0.0923 -0.1511
54707SOL    HW171171  12.002   1.429   3.727 -2.1960  0.0471 -0.3888
54707SOL    HW271172  12.037   1.574   3.756  1.1934 -0.7762 -0.0329
54708SOL     OW71173  11.709   3.165   1.699  0.4958 -0.9283 -0.7534
54708SOL    HW171174  11.621   3.201   1.684  0.5068 -1.4225 -2.2067
54708SOL    HW271175  11.759   3.193   1.622  1.4398 -1.1773 -0.2390
54709SOL     OW71176   7.936   2.056   4.553  0.0778 -0.2437  0.2906
54709SOL    HW171177   7.849   2.041   4.516 -0.3055 -3.4056  2.1091
54709SOL    HW271178   7.996   2.025   4.486 -0.3713 -1.1950  0.3178
54710SOL     OW71179   3.880   5.150  10.459  0.0840 -0.1715  0.2176
54710SOL    HW171180   3.957   5.119  10.411 -0.1948  1.3113 -1.2823
54710SOL    HW271181   3.817   5.173  10.391 -1.2023 -0.1385  1.3850
54711SOL     OW71182   5.521   7.695   1.482 -0.3739  0.0498  0.4920
54711SOL    HW171183   5.574   7.620   1.453  1.8490  1.3493  0.9390
54711SOL    HW271184   5.481   7.728   1.401  1.5202  0.4780 -0.3443
54712SOL     OW71185  10.549   5.298   0.531 -0.1445 -0.0005  0.2241
54712SOL    HW171186  10.519   5.378   0.574  0.7552 -0.6612  2.1750
54712SOL    HW271187  10.514   5.227   0.584 -0.1770 -0.8968 -0.9622
54713SOL     OW71188  11.609   5.079   5.931  0.5248 -0.0718 -0.1419
54713SOL    HW171189  11.665   5.156   5.917 -1.0553  1.0762 -0.3222
54713SOL    HW271190  11.542   5.109   5.991 -0.6858 -1.0238 -0.9787
54714SOL     OW71191   6.362  10.420   9.237  0.6554  0.1385  0.0367
54714SOL    HW171192   6.370  10.498   9.182 -0.1462 -0.0937 -0.4160
54714SOL    HW271193   6.331  10.453   9.321  0.7834  0.3639 -0.0049
54715SOL     OW71194  11.742   9.308  10.367  0.0822 -0.5183  0.1868
54715SOL    HW171195  11.737   9.403  10.355  2.1430 -0.5880 -2.1061
54715SOL    HW271196  11.797   9.295  10.444 -0.6547  0.0984  0.8363
54716SOL     OW71197  10.212   9.712   8.806 -0.6951 -0.2320 -0.9144
54716SOL    HW171198  10.176   9.643   8.861 -0.7030  0.2759 -0.2653
54716SOL    HW271199  10.306   9.691   8.800 -0.7407 -0.4366 -0.9261
54717SOL     OW71200   8.807   9.671   7.652 -0.0467  0.1309 -0.3437
54717SOL    HW171201   8.757   9.623   7.719 -1.2443 -0.6667 -1.7637
54717SOL    HW271202   8.775   9.760   7.657  0.2000  0.1893  0.4274
54718SOL     OW71203   8.904   3.868  12.521 -0.0003 -0.0897 -0.6916
54718SOL    HW171204   8.840   3.932  12.554  0.7386  0.4307 -0.2550
54718SOL    HW271205   8.863   3.833  12.442 -0.2542  1.2123 -1.1657
54719SOL     OW71206   3.935   5.747  11.639  0.1092 -0.0140  0.2217
54719SOL    HW171207   3.952   5.838  11.615  0.5099 -0.3644 -0.8876
54719SOL    HW271208   3.859   5.751  11.697  0.5341  1.0809  0.7285
54720SOL     OW71209   4.666   4.438  10.077  0.1365 -0.7026 -0.0953
54720SOL    HW171210   4.579   4.399  10.088 -0.1861  0.3458  1.3506
54720SOL    HW271211   4.704   4.436  10.165  1.1741 -0.2050 -0.5116
54721SOL     OW71212   4.786   6.691   9.561  0.2270 -0.1303 -0.1209
54721SOL    HW171213   4.800   6.700   9.467  0.7606 -0.3021 -0.0574
54721SOL    HW271214   4.854   6.745   9.602 -0.1819  0.1843  0.1695
54722SOL     OW71215   9.772   3.834  10.084  0.0880  0.0255  0.1057
54722SOL    HW171216   9.751   3.927  10.090 -0.2820 -0.0322 -0.2075
54722SOL    HW271217   9.743   3.809   9.996 -1.0328 -0.6826  0.6490
54723SOL     OW71218   8.911  12.579   7.751  0.7775 -0.1784 -0.5098
54723SOL    HW171219   8.960  12.508   7.792 -0.7223 -1.4073 -0.7768
54723SOL    HW271220   8.859  12.537   7.682 -1.0912  0.9473  0.1336
54724SOL     OW71221   8.899   6.702   3.962  0.1892 -0.3577  0.1476
54724SOL    HW171222   8.952   6.679   4.039  0.1932 -0.5570  0.0872
54724SOL    HW271223   8.881   6.618   3.920  2.6729 -0.0686 -1.7094
54725SOL     OW71224   7.725  12.290  11.657 -0.4158 -0.1888 -0.2065
54725SOL    HW171225   7.743  12.304  11.750 -1.3667  0.9579 -0.1686
54725SOL    HW271226   7.697  12.199  11.651 -2.1961  0.2444  0.9598
54726SOL     OW71227   5.108   3.988   5.818 -1.1528  0.6389  0.0748
54726SOL    HW171228   5.115   3.933   5.740 -1.7033 -1.4933  1.4507
54726SOL    HW271229   5.181   4.049   5.810 -2.1928  1.6888 -2.9327
54727SOL     OW71230   8.762   7.952   6.656  0.1621  0.4563  0.0358
54727SOL    HW171231   8.720   7.915   6.577 -0.6122  1.0513  0.1600
54727SOL    HW271232   8.801   8.034   6.626 -0.4611  0.8712  0.3505
54728SOL     OW71233  11.325   2.479   1.584 -0.1139  0.7664 -0.3354
54728SOL    HW171234  11.339   2.405   1.525  1.1285  0.6974  0.0204
54728SOL    HW271235  11.236   2.467   1.618  0.3847 -1.0607  0.4049
54729SOL     OW71236  12.018   4.855   2.560  0.1066  0.0730 -0.0354
54729SOL    HW171237  12.024   4.809   2.476  0.0175  1.3796 -0.7748
54729SOL    HW271238  12.098   4.907   2.565  0.3170 -0.3196  0.9008
54730SOL     OW71239   7.558  11.423  10.361  0.3663  0.6936 -0.2604
54730SOL    HW171240   7.579  11.514  10.385 -0.0941  0.9462 -0.8019
54730SOL    HW271241   7.623  11.400  10.295  1.8067 -0.0956  1.3589
54731SOL     OW71242  11.392  10.199  10.816  0.2108  0.3989 -0.4719
54731SOL    HW171243  11.421  10.110  10.796  0.9930  0.6878 -0.6597
54731SOL    HW271244  11.329  10.189  10.887  0.7994 -0.2421 -0.0378
54732SOL     OW71245   9.303  10.346   1.109  0.2651 -0.5267  0.1346
54732SOL    HW171246   9.318  10.386   1.024 -1.7292  0.4022  0.1655
54732SOL    HW271247   9.363  10.271   1.111  0.2145 -0.6996 -2.1620
54733SOL     OW71248   8.971   9.632   0.633  0.1580 -0.1892  0.0503
54733SOL    HW171249   8.909   9.670   0.570 -1.3623 -1.9103  0.3989
54733SOL    HW271250   9.014   9.561   0.585  0.2992 -0.3549  0.4125
54734SOL     OW71251   9.082   7.400  11.336  0.1275  0.2584 -0.3168
54734SOL    HW171252   9.096   7.470  11.399 -1.1600 -2.0911  2.8449
54734SOL    HW271253   9.167   7.358  11.327 -0.0607 -0.7243  1.7674
54735SOL     OW71254   7.949  10.721   3.412  0.3932 -0.1338  0.0898
54735SOL    HW171255   7.898  10.707   3.332 -0.6842 -0.9326  0.8839
54735SOL    HW271256   8.019  10.781   3.386 -1.2138  1.3989 -0.9548
54736SOL     OW71257   7.186   5.435   7.227  0.1813  0.1738  0.1719
54736SOL    HW171258   7.196   5.359   7.169 -0.5674 -0.0359  0.3059
54736SOL    HW271259   7.267   5.484   7.216  0.0979  0.0824 -0.9883
54737SOL     OW71260   1.363   9.592  12.032 -0.5477 -0.5072 -0.0387
54737SOL    HW171261   1.408   9.546  12.103 -2.0632 -0.9264  0.6879
54737SOL    HW271262   1.391   9.683  12.041 -1.7452 -0.2947  1.9719
54738SOL     OW71263   2.318   0.742   7.394  0.1342  0.4320  1.0208
54738SOL    HW171264   2.384   0.676   7.371  0.7088  1.4983 -0.5677
54738SOL    HW271265   2.235   0.702   7.369  0.2649 -0.4492  1.9150
54739SOL     OW71266   7.759   7.942   4.373 -0.4619 -0.7087 -0.5092
54739SOL    HW171267   7.775   7.848   4.376 -3.0558 -1.1881 -0.2258
54739SOL    HW271268   7.798   7.969   4.289  0.7666 -1.8973 -0.3641
54740SOL     OW71269   7.561   0.150   3.389 -0.3873 -0.3156  0.5088
54740SOL    HW171270   7.592   0.171   3.477  0.5909  0.5345 -0.0194
54740SOL    HW271271   7.610   0.072   3.364  1.4555  1.0614 -0.3491
54741SOL     OW71272   0.413   8.685   4.222 -0.3784 -0.7312 -0.8585
54741SOL    HW171273   0.442   8.776   4.229 -0.9078 -0.5820 -0.5409
54741SOL    HW271274   0.441   8.644   4.304  2.5029 -1.6580 -2.1628
54742SOL     OW71275   7.535   2.873   0.890  0.2635 -0.0729  0.0809
54742SOL    HW171276   7.486   2.872   0.807 -0.4352  1.3349  0.4376
54742SOL    HW271277   7.553   2.781   0.909 -0.9897 -0.5301 -0.8144
54743SOL     OW71278   6.654  10.894   8.730  0.4050  0.5806  0.0149
54743SOL    HW171279   6.721  10.960   8.715 -2.0868  3.4035  0.3134
54743SOL    HW271280   6.579  10.923   8.677 -0.6125 -2.4241 -0.3712
54744SOL     OW71281   5.124   8.052   6.133 -0.0187  0.0265  0.4201
54744SOL    HW171282   5.028   8.063   6.133  0.0013  0.8316 -2.3749
54744SOL    HW271283   5.154   8.103   6.059  2.8383  1.2874  2.2962
54745SOL     OW71284   6.538   9.718   5.159  0.1790 -0.0322  0.3659
54745SOL    HW171285   6.600   9.786   5.189 -0.4701 -0.2550  2.4012
54745SOL    HW271286   6.491   9.759   5.086  0.3418  1.4456  1.0382
54746SOL     OW71287  10.663   7.269  11.792  0.3004 -0.0540 -0.5519
54746SOL    HW171288  10.689   7.345  11.741  1.4820 -0.7416 -1.0206
54746SOL    HW271289  10.700   7.194  11.745 -0.5829 -0.9065  0.0502
54747SOL     OW71290   0.394  11.722   3.620  0.0328  0.2972  0.1118
54747SOL    HW171291   0.383  11.795   3.559  0.2269  0.4259  0.2300
54747SOL    HW271292   0.308  11.680   3.623 -0.0408  0.4317 -0.0683
54748SOL     OW71293  12.108  12.293   0.555  0.0150 -0.4381  0.3785
54748SOL    HW171294  12.111  12.337   0.470  0.3321 -0.2610  0.4793
54748SOL    HW271295  12.057  12.351   0.610  0.1345 -0.3685  0.4149
54749SOL     OW71296   5.549   8.930   3.576 -0.1413  0.2181  0.5788
54749SOL    HW171297   5.555   8.909   3.482  2.2082  0.7869  0.5529
54749SOL    HW271298   5.531   9.024   3.578 -1.3866  0.0033  0.7440
54750SOL     OW71299  11.867   7.703   4.328 -0.9734  0.3335 -0.2736
54750SOL    HW171300  11.792   7.746   4.286  0.2216  1.1734 -1.6366
54750SOL    HW271301  11.907   7.651   4.258  1.3617  2.1452 -0.3845
54751SOL     OW71302   3.834  10.157   3.243  0.1025 -0.3472 -0.4475
54751SOL    HW171303   3.822  10.164   3.148 -0.3073  0.9684 -0.3139
54751SOL    HW271304   3.781  10.228   3.279 -0.2708 -1.2404  0.8170
54752SOL     OW71305  11.786   4.527   7.351  0.0429 -0.0547 -0.4879
54752SOL    HW171306  11.854   4.495   7.411 -0.3900  1.6608  1.0050
54752SOL    HW271307  11.709   4.476   7.374 -0.0022  0.2771  0.1193
54753SOL     OW71308   0.225   2.400   3.358 -0.2872 -0.0957  0.0303
54753SOL    HW171309   0.159   2.333   3.337 -0.6470  0.0957  0.5145
54753SOL    HW271310   0.296   2.385   3.295 -1.3842  0.5680 -1.4278
54754SOL     OW71311  11.791   4.463   2.557  0.1024 -0.1447 -0.9293
54754SOL    HW171312  11.853   4.511   2.613  0.9535 -0.7872 -1.2970
54754SOL    HW271313  11.707   4.507   2.570  0.3974  0.0327  0.4527
54755SOL     OW71314  10.507  10.366   0.794 -0.2266  0.1067  0.4704
54755SOL    HW171315  10.413  10.377   0.782 -0.2436 -0.0188  0.4914
54755SOL    HW271316  10.517  10.338   0.885 -0.0419  1.7540  0.9844
54756SOL     OW71317  10.539  11.657  10.025  0.2151 -0.0432  0.0555
54756SOL    HW171318  10.518  11.612  10.107 -1.0937  0.0242 -0.2268
54756SOL    HW271319  10.633  11.676  10.032 -0.1097  1.1126  2.1278
54757SOL     OW71320   2.276  11.939  10.665  0.3248 -0.2034 -0.0790
54757SOL    HW171321   2.271  11.891  10.747 -0.3636 -1.8930 -1.0815
54757SOL    HW271322   2.185  11.951  10.638  0.5641 -1.3231 -1.5009
54758SOL     OW71323   4.973   0.125   7.770  0.1981  0.4961  0.5758
54758SOL    HW171324   4.986   0.208   7.815  0.5092  1.0452 -0.5136
54758SOL    HW271325   5.043   0.121   7.706 -0.5210 -0.0521 -0.1906
54759SOL     OW71326   9.910   8.580   0.646  0.2870 -0.0581 -0.2724
54759SOL    HW171327   9.963   8.611   0.573 -1.3448 -0.9883 -1.9369
54759SOL    HW271328   9.821   8.572   0.610 -0.7039 -0.0256  1.9671
54760SOL     OW71329  10.667  10.989   4.674 -0.3953  0.0310 -0.4012
54760SOL    HW171330  10.589  11.033   4.707 -0.4525 -0.6173  0.3584
54760SOL    HW271331  10.711  11.054   4.620 -0.1759  1.2217  1.1514
54761SOL     OW71332   5.330  12.055  11.161 -0.0021  0.5545 -0.2546
54761SOL    HW171333   5.339  12.064  11.255  2.4526  1.0041 -0.4482
54761SOL    HW271334   5.277  12.130  11.134 -2.6019 -0.7566  0.9165
54762SOL     OW71335   0.252   8.339  11.532 -0.4519  0.4834 -0.5135
54762SOL    HW171336   0.294   8.301  11.456 -0.1786  0.3219 -0.2814
54762SOL    HW271337   0.171   8.377  11.498  0.7112  2.3925 -1.3069
54763SOL     OW71338   2.598   7.880   5.928  0.0882  0.1307  0.3149
54763SOL    HW171339   2.570   7.814   5.991  3.3872 -1.5029  0.2600
54763SOL    HW271340   2.516   7.914   5.891 -1.8040 -2.1546  2.0889
54764SOL     OW71341   0.856   1.114   0.363 -0.0521 -0.0454 -0.5686
54764SOL    HW171342   0.857   1.101   0.458  1.4975 -1.5188 -0.7581
54764SOL    HW271343   0.938   1.159   0.344  0.1528 -0.7176 -1.3171
54765SOL     OW71344   3.407   4.680   3.427  0.4378 -0.3871  0.3680
54765SOL    HW171345   3.448   4.751   3.378  0.2625  0.2296  1.1088
54765SOL    HW271346   3.473   4.655   3.492  0.7687 -1.3726 -0.3052
54766SOL     OW71347   5.346  11.848  11.001  0.3216 -0.0225  0.0543
54766SOL    HW171348   5.362  11.920  11.063 -0.1273  0.6993 -0.6378
54766SOL    HW271349   5.403  11.777  11.031 -0.7433 -0.1326  2.0043
54767SOL     OW71350   6.388   2.115   3.292  0.2113  0.3034 -0.1414
54767SOL    HW171351   6.403   2.170   3.369  0.9163 -0.2689  0.1482
54767SOL    HW271352   6.371   2.028   3.328  1.0215 -0.0722 -0.6400
54768SOL     OW71353   6.067  10.724   3.245  0.2277 -0.3448 -0.4003
54768SOL    HW171354   6.151  10.697   3.281 -0.2113 -2.6287 -0.9261
54768SOL    HW271355   6.083  10.811   3.207  2.3522 -0.7847 -0.5948
54769SOL     OW71356   0.703  10.630   2.210 -0.3382  0.3196 -0.2470
54769SOL    HW171357   0.629  10.673   2.253 -1.0452 -0.2261 -0.8837
54769SOL    HW271358   0.673  10.540   2.195  0.6090 -0.0202 -0.1479
54770SOL     OW71359   6.413  10.158   9.159 -0.0358  0.0130 -0.5416
54770SOL    HW171360   6.490  10.195   9.116  2.1646 -2.0364  1.2954
54770SOL    HW271361   6.364  10.235   9.191  1.7355  1.4082 -0.9935
54771SOL     OW71362   2.511  11.234  12.253  0.2275 -0.3714  0.0737
54771SOL    HW171363   2.416  11.231  12.262  0.1997  0.1102 -0.0454
54771SOL    HW271364   2.544  11.232  12.343  0.0386  1.3665  0.2236
54772SOL     OW71365  10.543   2.964   1.942 -0.7283 -0.1204 -1.0874
54772SOL    HW171366  10.606   2.944   1.874  1.3577 -0.6773  0.8677
54772SOL    HW271367  10.561   3.055   1.966 -1.5474  0.1218 -1.3465
54773SOL     OW71368   1.595  11.522   5.081 -0.8406  0.5637 -0.5259
54773SOL    HW171369   1.654  11.487   5.149 -1.2584 -1.1533 -0.9841
54773SOL    HW271370   1.654  11.561   5.017 -0.1596 -1.0641 -0.9421
54774SOL     OW71371   9.564   0.283   0.707  0.4969 -0.0868 -0.1615
54774SOL    HW171372   9.624   0.286   0.632  0.3547  1.8074 -0.2393
54774SOL    HW271373   9.531   0.372   0.715 -1.6559 -0.8904  0.4453
54775SOL     OW71374   4.936   9.313  12.540  0.1387  0.1223 -0.3080
54775SOL    HW171375   4.980   9.278  12.618 -1.6804 -0.6684  0.4369
54775SOL    HW271376   5.001   9.305  12.470  1.2185 -0.8482  0.7524
54776SOL     OW71377  11.512   0.038   6.314 -0.6676 -0.0953  0.8287
54776SOL    HW171378  11.529  -0.026   6.383  0.5282 -0.2543  0.4060
54776SOL    HW271379  11.578   0.020   6.247 -1.5561  0.3058 -0.1909
54777SOL     OW71380  10.758  11.206   3.108  0.6248 -0.4042 -0.3277
54777SOL    HW171381  10.732  11.202   3.016  1.4091 -0.0505 -0.5722
54777SOL    HW271382  10.796  11.294   3.118 -0.2536 -0.1009  0.5541
54778SOL     OW71383  11.295   4.193   6.411  0.8142  0.7221 -0.0843
54778SOL    HW171384  11.205   4.214   6.385  1.0365  2.7836  0.6065
54778SOL    HW271385  11.346   4.208   6.331  0.7842  1.5759  0.0423
54779SOL     OW71386   9.427  10.964   5.992  0.1627 -0.1584 -0.7508
54779SOL    HW171387   9.519  10.937   5.999  0.1944 -0.2101 -1.3048
54779SOL    HW271388   9.379  10.898   6.042  0.5136  0.4682  0.4612
54780SOL     OW71389   3.695  10.884  11.326 -0.2350 -0.0690 -0.2965
54780SOL    HW171390   3.623  10.938  11.356  0.1666 -0.9842  2.6471
54780SOL    HW271391   3.661  10.795  11.327 -0.2357 -0.1838 -2.9649
54781SOL     OW71392   0.662   8.506   6.400  0.0461  0.4451 -0.3033
54781SOL    HW171393   0.676   8.421   6.441  0.1841  0.3734 -0.4983
54781SOL    HW271394   0.719   8.506   6.323 -1.2243  0.0165 -1.2939
54782SOL     OW71395   1.691   4.245  11.432 -0.5566 -0.5136  0.2345
54782SOL    HW171396   1.764   4.251  11.371  0.2255  1.0193  1.2715
54782SOL    HW271397   1.613   4.255  11.378  0.1143  0.5451 -0.5671
54783SOL     OW71398   2.423   1.186   3.078  0.1576 -0.4311 -0.5836
54783SOL    HW171399   2.401   1.107   3.127 -0.6659 -0.2378 -0.6282
54783SOL    HW271400   2.391   1.258   3.132  0.3146 -0.1644 -0.8439
54784SOL     OW71401   4.863   0.504  10.944  0.0544  0.1989  0.1514
54784SOL    HW171402   4.942   0.525  10.993 -0.4118  0.0761  0.9731
54784SOL    HW271403   4.813   0.446  11.002 -0.0458 -0.7901 -0.8668
54785SOL     OW71404   7.909  10.304   0.034  0.3323  0.0986 -0.1589
54785SOL    HW171405   7.844  10.349   0.087  1.0532  1.2599 -0.2244
54785SOL    HW271406   7.972  10.372   0.011  1.3771 -0.9270 -0.3968
54786SOL     OW71407  11.736   7.286   0.042 -0.0504 -0.0803  0.2793
54786SOL    HW171408  11.669   7.348   0.070 -0.2171 -0.9469  1.9269
54786SOL    HW271409  11.726   7.281  -0.054 -0.0908  2.3080  0.1060
54787SOL     OW71410   6.481   2.000   4.729  0.1984 -0.2938  0.4378
54787SOL    HW171411   6.472   2.022   4.822 -1.2829 -1.5052  0.6162
54787SOL    HW271412   6.482   2.084   4.684 -2.8696  0.2996  1.2644
54788SOL     OW71413   8.855   2.066   1.616 -0.0601  0.0387  0.5395
54788SOL    HW171414   8.760   2.070   1.620 -0.3146 -2.9401 -0.1203
54788SOL    HW271415   8.874   1.981   1.575  2.8712  1.3234 -1.1079
54789SOL     OW71416   5.957   3.880   7.302 -0.0639 -0.6484  0.0199
54789SOL    HW171417   6.000   3.795   7.294  0.1944 -0.6514  1.2954
54789SOL    HW271418   6.018   3.933   7.353  0.2954  0.6767 -1.6655
54790SOL     OW71419  12.447   7.957   0.575  0.7241 -0.1560 -0.5643
54790SOL    HW171420  12.445   7.916   0.489  0.6458 -1.6923  0.1332
54790SOL    HW271421  12.402   8.040   0.563 -1.1292 -1.2341 -1.5894
54791SOL     OW71422   4.318   3.719   4.307 -0.0459 -0.3398 -0.8673
54791SOL    HW171423   4.381   3.783   4.341  0.9874 -2.2569  1.0609
54791SOL    HW271424   4.261   3.700   4.381 -0.9096 -1.0003 -1.6869
54792SOL     OW71425   3.824  11.623   9.427  0.2601  0.2934  0.0300
54792SOL    HW171426   3.743  11.671   9.444 -0.0832  0.0839 -0.9695
54792SOL    HW271427   3.798  11.531   9.422  0.4375  0.2844 -0.9742
54793SOL     OW71428   7.919  12.013   8.056  0.0322  0.1420  0.4696
54793SOL    HW171429   7.889  11.943   8.114 -1.0047 -0.2476 -0.4942
54793SOL    HW271430   7.857  12.011   7.983  2.2469 -0.5278 -1.5273
54794SOL     OW71431   1.250   4.860   3.217  0.1668  0.4826 -0.2393
54794SOL    HW171432   1.259   4.805   3.294 -0.5655 -0.5615 -0.8682
54794SOL    HW271433   1.163   4.839   3.182  0.2781  1.3064 -1.0701
54795SOL     OW71434   6.621   0.404   8.730  0.0073 -0.4784  0.4404
54795SOL    HW171435   6.687   0.465   8.698 -2.4205  2.0744 -0.1262
54795SOL    HW271436   6.560   0.458   8.780 -1.9772 -2.5562  0.4665
54796SOL     OW71437   9.179   1.076   7.317  0.3910 -0.1080  0.5980
54796SOL    HW171438   9.092   1.063   7.354  0.4973  2.9277  2.1877
54796SOL    HW271439   9.235   1.015   7.365 -0.1386  1.1179  2.9236
54797SOL     OW71440   3.841   0.705   1.469 -0.2112 -0.4895  0.3378
54797SOL    HW171441   3.773   0.769   1.448 -1.5028 -1.4685  1.3985
54797SOL    HW271442   3.823   0.631   1.412  1.0666 -0.0977 -0.6324
54798SOL     OW71443   4.258   1.139  10.705  0.2248 -0.7007 -0.5735
54798SOL    HW171444   4.305   1.222  10.698 -0.8170 -0.1763 -1.7145
54798SOL    HW271445   4.273   1.095  10.621 -0.6863 -0.8685 -0.6550
54799SOL     OW71446   6.010  10.309   6.697 -0.1613 -0.5971 -0.2047
54799SOL    HW171447   5.936  10.251   6.717  0.1638 -0.6566  0.8921
54799SOL    HW271448   6.040  10.339   6.783 -1.4935  2.7483 -0.7482
54800SOL     OW71449   9.310   5.452   7.093  0.2533  0.0180 -0.1159
54800SOL    HW171450   9.249   5.521   7.119 -1.9009 -2.0520  0.6790
54800SOL    HW271451   9.295   5.381   7.156  2.3086 -1.2167 -0.9253
54801SOL     OW71452   9.445   1.953   0.729  0.1404 -0.3817  0.4717
54801SOL    HW171453   9.469   1.965   0.821 -1.6099  0.2301  0.8874
54801SOL    HW271454   9.350   1.958   0.728  0.0987 -0.6976 -1.3460
54802SOL     OW71455   0.711   8.608   1.263 -0.7515  0.0596 -0.1005
54802SOL    HW171456   0.787   8.652   1.224 -0.7981 -0.5853 -0.9438
54802SOL    HW271457   0.659   8.680   1.301  1.7603  0.3001  3.3000
54803SOL     OW71458   7.207   6.402   5.779  0.4349 -0.2898  0.8298
54803SOL    HW171459   7.236   6.468   5.716  0.0121 -0.1391  0.7896
54803SOL    HW271460   7.240   6.434   5.863 -0.3477  0.3265  0.9058
54804SOL     OW71461   5.462   6.001   9.507  0.6066 -0.0118  0.0384
54804SOL    HW171462   5.387   6.023   9.452 -0.6647 -0.5540  1.4909
54804SOL    HW271463   5.527   6.069   9.487 -0.1166  0.2698 -1.4947
54805SOL     OW71464   7.816   4.281   5.398 -0.0293  0.7077 -0.3343
54805SOL    HW171465   7.772   4.282   5.313  1.5215  0.5616 -1.1780
54805SOL    HW271466   7.896   4.333   5.384 -1.2954  3.4747  1.9491
54806SOL     OW71467  10.667   6.619   7.113  0.0479 -0.6402  0.2039
54806SOL    HW171468  10.667   6.580   7.026  0.5228 -1.4042  0.5446
54806SOL    HW271469  10.598   6.685   7.109 -1.0199 -1.7551 -0.2642
54807SOL     OW71470   2.997  11.866   5.018  0.2800 -0.1279 -0.5044
54807SOL    HW171471   2.918  11.921   5.016  0.4657  0.1342 -0.7358
54807SOL    HW271472   2.968  11.781   4.984 -0.0302 -0.2033 -0.0669
54808SOL     OW71473   5.598   7.437   3.617  0.5148  0.4977 -0.1544
54808SOL    HW171474   5.659   7.500   3.656  0.5752  0.7532 -0.6498
54808SOL    HW271475   5.538   7.491   3.565 -1.6479  0.5489  2.1721
54809SOL     OW71476  12.364   5.107   6.870 -0.6638 -0.3920 -0.4069
54809SOL    HW171477  12.443   5.071   6.830 -0.2678  1.2764 -1.2158
54809SOL    HW271478  12.293   5.077   6.813 -0.0716  2.3046 -2.7949
54810SOL     OW71479   4.625  10.922   4.007  0.7346 -0.0715 -0.0128
54810SOL    HW171480   4.716  10.902   3.983  0.4292 -0.8757 -0.5079
54810SOL    HW271481   4.590  10.840   4.042 -0.0607  0.0092 -0.6066
54811SOL     OW71482   2.876   7.731  10.223  0.0858  0.3844 -0.0309
54811SOL    HW171483   2.886   7.767  10.310  2.1376  1.3534 -0.6227
54811SOL    HW271484   2.845   7.641  10.237  2.5321 -0.2483  1.8093
54812SOL     OW71485  11.262   7.201  10.260  0.5481 -0.2748 -0.3388
54812SOL    HW171486  11.235   7.139  10.327 -0.1850  0.7253  0.3349
54812SOL    HW271487  11.337   7.160  10.217  0.4457 -1.3448  0.4646
54813SOL     OW71488  12.120  11.907   9.536  0.0799 -0.4244  0.1065
54813SOL    HW171489  12.199  11.877   9.580 -0.1692 -1.6765 -0.2518
54813SOL    HW271490  12.050  11.855   9.574 -0.3854 -0.2870 -0.5343
54814SOL     OW71491   8.001  12.184   2.416 -0.0576 -0.2199  0.1174
54814SOL    HW171492   8.003  12.105   2.471 -0.0807 -0.6704 -0.5139
54814SOL    HW271493   7.955  12.156   2.337  1.3827 -0.0383 -0.8138
54815SOL     OW71494  11.233   6.599   3.066  0.1262 -0.1468  0.2044
54815SOL    HW171495  11.174   6.670   3.040  1.1927  0.4444 -0.6534
54815SOL    HW271496  11.201   6.522   3.019 -0.2901  0.0376  0.1858
54816SOL     OW71497  10.502   9.814  10.045 -0.1403  0.2611  0.5835
54816SOL    HW171498  10.521   9.768  10.126  0.1426 -0.2189  0.2465
54816SOL    HW271499  10.570   9.786   9.985  0.5938  1.8285  0.6377
54817SOL     OW71500  11.900   0.154   9.331 -0.3792 -0.6858 -0.3858
54817SOL    HW171501  11.844   0.204   9.390  0.8314 -0.1922  0.3885
54817SOL    HW271502  11.943   0.220   9.277  0.1994 -0.9635 -0.2799
54818SOL     OW71503  11.242   9.573   4.332 -0.9259 -0.2053 -0.3204
54818SOL    HW171504  11.173   9.635   4.309 -2.0722 -1.5379 -0.6228
54818SOL    HW271505  11.267   9.532   4.249 -1.5744 -1.5221  0.1039
54819SOL     OW71506   6.436   1.081   0.582 -0.1329 -0.1509  0.1006
54819SOL    HW171507   6.485   1.019   0.528 -0.2621 -0.4905  0.3779
54819SOL    HW271508   6.503   1.122   0.637 -0.1916 -0.8310  0.6931
54820SOL     OW71509   6.579   6.839   9.723 -0.1857 -0.1770  0.2044
54820SOL    HW171510   6.561   6.751   9.691 -1.6861 -0.7530  2.3568
54820SOL    HW271511   6.639   6.826   9.796 -1.3496  0.3986  1.3130
54821SOL     OW71512   9.839   6.237   5.366 -0.1390  0.2589  0.1590
54821SOL    HW171513   9.782   6.276   5.299 -0.7880 -1.5834 -0.4269
54821SOL    HW271514   9.927   6.257   5.337 -0.4386  0.4436 -0.6612
54822SOL     OW71515   9.146   6.707  11.444 -0.9035  0.1756 -0.4233
54822SOL    HW171516   9.145   6.628  11.390 -0.7819 -1.1039  1.3431
54822SOL    HW271517   9.200   6.769  11.394 -0.0727 -1.2347 -1.3715
54823SOL     OW71518  12.495   3.837   4.251  0.2133  0.2319  0.7279
54823SOL    HW171519  12.444   3.856   4.330  0.1205 -0.0903  0.7487
54823SOL    HW271520  12.534   3.751   4.269  1.1190  0.6695  0.8962
54824SOL     OW71521   7.207   0.949   9.338 -0.3634 -0.6414 -0.2525
54824SOL    HW171522   7.241   0.859   9.339  1.1659 -0.1449  2.6525
54824SOL    HW271523   7.119   0.941   9.375  0.5301 -0.8110  2.0253
54825SOL     OW71524  10.897  12.046   3.525  0.2032 -0.4026 -0.8046
54825SOL    HW171525  10.911  11.952   3.523  2.0301 -0.3670  2.8434
54825SOL    HW271526  10.802  12.057   3.527 -0.0633 -2.4091  1.6260
54826SOL     OW71527   8.952   7.184  10.688 -0.1294  0.0085  0.1090
54826SOL    HW171528   8.932   7.099  10.648 -0.7358  0.1034  0.2060
54826SOL    HW271529   8.931   7.173  10.780  0.2824  0.1100  0.2155
54827SOL     OW71530  10.346   7.812   1.326 -0.3073 -0.2166  0.0686
54827SOL    HW171531  10.391   7.804   1.410  0.4098 -0.2610 -0.3145
54827SOL    HW271532  10.311   7.724   1.309  0.2155 -0.4069 -0.0460
54828SOL     OW71533   6.565   3.957   8.707  0.2411 -0.2895 -0.3296
54828SOL    HW171534   6.591   3.886   8.765  3.3577  0.5760 -0.4571
54828SOL    HW271535   6.505   3.916   8.644  0.1750 -2.2286  0.9041
54829SOL     OW71536  11.665   6.745   1.396  0.6040 -0.2060  0.2462
54829SOL    HW171537  11.611   6.667   1.407 -0.3990  0.4587  0.1542
54829SOL    HW271538  11.708   6.757   1.481 -0.5285  0.0713  0.7995
54830SOL     OW71539   6.686   7.430   4.002  0.5213 -0.6865 -0.3889
54830SOL    HW171540   6.628   7.370   4.049 -2.0035  2.2513  0.5130
54830SOL    HW271541   6.763   7.438   4.059  0.9753 -2.9515 -0.5580
54831SOL     OW71542  10.292  10.975   2.092 -0.9877 -0.3889 -0.0291
54831SOL    HW171543  10.319  11.033   2.163  2.0022 -1.6942  0.0708
54831SOL    HW271544  10.196  10.976   2.095 -1.0386 -0.4351  4.0705
54832SOL     OW71545   8.434   6.260   3.423  0.5197  0.0894 -0.7261
54832SOL    HW171546   8.476   6.345   3.429 -0.0143  0.3617 -0.7444
54832SOL    HW271547   8.355   6.276   3.372  1.5030 -0.8383 -2.6252
54833SOL     OW71548   8.665   4.380   7.949  0.6435 -0.1278  0.5716
54833SOL    HW171549   8.614   4.356   7.872  0.4113 -0.7734  0.9126
54833SOL    HW271550   8.716   4.456   7.922  0.5649 -0.3445 -0.2141
54834SOL     OW71551   3.803  12.042   0.835  0.3426 -0.2958  0.1404
54834SOL    HW171552   3.873  12.098   0.869 -0.8441  0.5107  1.3934
54834SOL    HW271553   3.821  11.956   0.873  1.6104 -0.5541 -0.9730
54835SOL     OW71554  12.540   6.979   6.227 -0.0260 -0.4806 -0.0989
54835SOL    HW171555  12.627   6.961   6.263 -0.8065 -1.9176  1.1352
54835SOL    HW271556  12.558   7.028   6.146  1.8228  2.5460  1.9070
54836SOL     OW71557   7.263   9.360   5.009 -0.7364  0.3775 -0.4149
54836SOL    HW171558   7.229   9.370   4.921  1.1396  0.0145 -1.2436
54836SOL    HW271559   7.339   9.419   5.013 -0.6024  0.1619  0.8393
54837SOL     OW71560   8.866   3.584  10.760  0.4022 -0.1005  0.3192
54837SOL    HW171561   8.836   3.500  10.725 -0.4563 -0.6469  2.2375
54837SOL    HW271562   8.952   3.596  10.721  0.4018 -1.7050 -0.2677
54838SOL     OW71563   2.825   9.001  11.545  0.3802 -0.4341  0.0045
54838SOL    HW171564   2.741   9.031  11.511  0.0149 -0.5156  0.8137
54838SOL    HW271565   2.839   9.054  11.624  0.6302 -1.0812  0.3991
54839SOL     OW71566   7.219   8.990   9.333  0.2237 -0.0007  0.5371
54839SOL    HW171567   7.201   9.083   9.343 -0.5509 -0.0799  0.0042
54839SOL    HW271568   7.252   8.980   9.244 -0.7533 -0.3685  0.1982
54840SOL     OW71569   3.781   4.881   4.391  0.1993 -0.0642 -0.0970
54840SOL    HW171570   3.828   4.836   4.321  0.9098 -0.7813  0.8242
54840SOL    HW271571   3.832   4.961   4.407 -0.4115  0.5161 -0.9219
54841SOL     OW71572   3.352   8.516   7.956  0.0001 -0.1451  0.1075
54841SOL    HW171573   3.311   8.574   8.020 -0.1658 -0.2920  0.1353
54841SOL    HW271574   3.280   8.463   7.923  0.6378 -3.1023  2.9337
54842SOL     OW71575   8.275   5.630  11.477  0.1847  0.0589  0.3036
54842SOL    HW171576   8.184   5.651  11.456  0.0476  0.9571  1.6499
54842SOL    HW271577   8.286   5.540  11.448 -1.3264 -0.2843  0.7087
54843SOL     OW71578   9.068   9.385   5.083 -0.4798 -0.1648 -0.0492
54843SOL    HW171579   9.073   9.480   5.072 -0.6180 -0.2222 -0.7004
54843SOL    HW271580   9.005   9.357   5.016  0.0795 -0.7904 -0.3253
54844SOL     OW71581   9.910   7.583  10.264 -0.2105 -0.1496  0.0602
54844SOL    HW171582   9.945   7.537  10.341  0.4537  1.2105  0.6067
54844SOL    HW271583   9.894   7.672  10.295  0.8122  0.6365 -1.5663
54845SOL     OW71584   3.243   1.227   5.278 -0.4272 -0.0026  0.3276
54845SOL    HW171585   3.326   1.180   5.272 -0.6592 -0.6974  2.0141
54845SOL    HW271586   3.218   1.243   5.187  2.1903  1.4001 -0.2616
54846SOL     OW71587  11.558   5.889   7.301  0.0899 -0.3448  0.6832
54846SOL    HW171588  11.585   5.797   7.301 -0.6332 -0.5642  0.6998
54846SOL    HW271589  11.555   5.913   7.208  0.0483 -0.4053  0.6689
54847SOL     OW71590  10.513  10.887  12.342  0.4741 -0.6941  0.1717
54847SOL    HW171591  10.608  10.886  12.354  0.6744 -1.9829 -1.1947
54847SOL    HW271592  10.498  10.830  12.266 -1.1625  1.5822 -1.3547
54848SOL     OW71593   0.719  11.528   0.257  0.1156  0.1923  0.4914
54848SOL    HW171594   0.670  11.501   0.179 -1.0352 -0.2364  1.3331
54848SOL    HW271595   0.657  11.583   0.306  0.9073  0.6640  0.9926
54849SOL     OW71596   6.391   3.061   8.991  0.3364 -0.3205 -0.1113
54849SOL    HW171597   6.369   2.968   8.991 -0.2533 -0.2079  1.5333
54849SOL    HW271598   6.363   3.093   8.905  1.1811 -1.7754 -0.9652
54850SOL     OW71599   7.712   4.062  10.369  0.9082 -0.0474  0.4217
54850SOL    HW171600   7.666   4.065  10.453  0.4540 -0.9692  0.2275
54850SOL    HW271601   7.775   3.991  10.379 -0.6142 -1.6526 -0.6947
54851SOL     OW71602   0.606  11.111   4.227  0.4450  0.3123  0.4326
54851SOL    HW171603   0.569  11.146   4.145  0.2965  1.2667  0.8893
54851SOL    HW271604   0.554  11.153   4.296 -0.5252 -1.7305  1.0138
54852SOL     OW71605   2.806  10.380   6.211  0.0565 -0.3288 -0.1826
54852SOL    HW171606   2.788  10.407   6.301  0.2948 -0.1435 -0.1897
54852SOL    HW271607   2.837  10.290   6.219 -1.8594 -1.0288 -0.2616
54853SOL     OW71608   9.584   4.466   9.447 -0.3238 -0.3458 -0.1068
54853SOL    HW171609   9.555   4.552   9.418  3.1392  1.1060  0.1823
54853SOL    HW271610   9.574   4.468   9.542 -1.8294 -0.9810 -0.2303
54854SOL     OW71611   0.850   1.674   9.867  0.0609 -0.0439  0.2836
54854SOL    HW171612   0.869   1.687   9.774 -0.1170 -0.8430  0.1290
54854SOL    HW271613   0.929   1.633   9.902  0.0873  0.1619  0.4732
54855SOL     OW71614   1.434   3.547   1.074 -0.0775 -0.1643 -0.6445
54855SOL    HW171615   1.395   3.565   1.160  1.3856  0.4494 -0.0779
54855SOL    HW271616   1.410   3.456   1.056 -0.7317 -0.1824  0.2263
54856SOL     OW71617  10.885   1.530   7.476  0.8384 -0.0049 -0.4593
54856SOL    HW171618  10.846   1.613   7.502  1.3605  0.0743  0.0942
54856SOL    HW271619  10.811   1.470   7.467  0.2682  0.8969 -2.4551
54857SOL     OW71620   8.651  10.183   2.357  0.4407 -0.7624  0.0605
54857SOL    HW171621   8.648  10.202   2.263 -0.1350 -1.5850 -0.0885
54857SOL    HW271622   8.588  10.113   2.370  0.1624 -0.3278  1.1504
54858SOL     OW71623   0.405   4.178  10.591  0.1435 -0.0613  0.2719
54858SOL    HW171624   0.345   4.237  10.544  1.4114  0.8472 -0.2697
54858SOL    HW271625   0.460   4.237  10.643  2.1548 -0.6350 -1.0969
54859SOL     OW71626   4.207   7.217   5.477  0.3486  0.1754  0.0011
54859SOL    HW171627   4.217   7.235   5.383 -0.5025  2.2375  0.2643
54859SOL    HW271628   4.115   7.191   5.486  0.5425 -0.4613  0.2324
54860SOL     OW71629  10.760  11.795   9.163  0.1776  0.3699 -0.2267
54860SOL    HW171630  10.842  11.748   9.144  0.9618  1.5223  0.1715
54860SOL    HW271631  10.721  11.746   9.235  0.5257 -0.1905 -0.4077
54861SOL     OW71632   0.692   7.471   4.969  0.5644 -0.5366  0.1109
54861SOL    HW171633   0.629   7.420   5.020  0.0390 -1.3584 -1.3136
54861SOL    HW271634   0.712   7.546   5.025 -1.3680 -0.4591  0.7910
54862SOL     OW71635  10.341   6.170   5.180 -0.0228 -0.0056  0.1197
54862SOL    HW171636  10.383   6.137   5.260 -0.1250 -1.2788 -0.3303
54862SOL    HW271637  10.412   6.171   5.115 -0.1654  0.0266 -0.0358
54863SOL     OW71638   3.999  11.789   7.971 -0.1113 -0.7009 -0.5416
54863SOL    HW171639   4.007  11.832   8.056 -0.2585 -0.1854 -0.7825
54863SOL    HW271640   3.905  11.777   7.959 -0.0598 -1.2961 -0.3792
54864SOL     OW71641   3.370  11.926   1.225 -0.3494 -0.2226  0.0297
54864SOL    HW171642   3.324  11.848   1.193  2.2409 -1.4413 -0.9811
54864SOL    HW271643   3.342  11.996   1.166 -2.5547 -0.3648  0.8221
54865SOL     OW71644   2.717   9.404  12.190 -0.1972 -0.0195  0.2937
54865SOL    HW171645   2.810   9.413  12.209 -0.1283 -0.2801  0.0820
54865SOL    HW271646   2.697   9.478  12.132  0.7213 -1.9900 -2.7469
54866SOL     OW71647   4.406  11.990  12.445 -0.2274  0.2083 -0.0988
54866SOL    HW171648   4.393  12.082  12.420  1.1773  0.7860  1.1426
54866SOL    HW271649   4.492  11.968  12.410  0.6794  0.2678  1.9643
54867SOL     OW71650   7.240   2.599   1.211 -0.4041  0.0433  0.5594
54867SOL    HW171651   7.173   2.651   1.256 -0.7208 -0.3805  0.5780
54867SOL    HW271652   7.307   2.663   1.187 -1.8713  0.9055 -1.5281
54868SOL     OW71653   6.325   2.967   1.304 -0.0046  0.2246 -0.0682
54868SOL    HW171654   6.413   2.937   1.283 -0.4635 -2.9868  1.8146
54868SOL    HW271655   6.325   2.978   1.399 -1.8350 -0.8253  0.1005
54869SOL     OW71656   2.199   8.411   8.943 -0.3612 -0.2031  0.5485
54869SOL    HW171657   2.112   8.423   8.980 -0.3657 -2.5431  1.4417
54869SOL    HW271658   2.251   8.375   9.014  0.8303 -0.6983 -0.5225
54870SOL     OW71659   8.133   3.272  12.294 -0.6036 -0.4227  0.0718
54870SOL    HW171660   8.039   3.271  12.308 -0.4904  1.2899  1.2686
54870SOL    HW271661   8.149   3.351  12.243  0.0695 -1.4950 -1.4712
54871SOL     OW71662   9.779   2.135   8.072 -0.1126  0.1020  0.3082
54871SOL    HW171663   9.690   2.147   8.037  0.4256  0.1974 -1.1111
54871SOL    HW271664   9.776   2.049   8.114 -0.5848 -0.4409 -0.7770
54872SOL     OW71665   9.625   3.630   1.053 -0.0095 -0.2087  0.0534
54872SOL    HW171666   9.673   3.713   1.043  0.3248 -0.5295 -1.2098
54872SOL    HW271667   9.667   3.587   1.127  0.9849 -0.0119 -0.3760
54873SOL     OW71668  11.732   7.590  10.895 -0.6620  0.0505 -0.1398
54873SOL    HW171669  11.658   7.628  10.941  0.5344  0.8293  1.2067
54873SOL    HW271670  11.729   7.497  10.918  1.0617  0.6744  3.4165
54874SOL     OW71671  10.970  11.015  11.163 -0.2849  0.4326 -0.4017
54874SOL    HW171672  10.925  11.091  11.202  0.0184  0.8904 -0.9311
54874SOL    HW271673  11.036  10.990  11.228 -2.2360 -1.2033  1.1007
54875SOL     OW71674   4.293   5.703  11.503 -0.5204 -0.1484 -0.5626
54875SOL    HW171675   4.231   5.642  11.543 -0.7799  0.6261  0.2426
54875SOL    HW271676   4.275   5.697  11.409 -0.1543 -1.7200 -0.5672
54876SOL     OW71677  11.284   8.536  12.494  0.0346 -0.0755  0.0831
54876SOL    HW171678  11.342   8.555  12.420 -2.2080  0.4603 -1.6663
54876SOL    HW271679  11.284   8.441  12.501  1.5980 -0.0725  0.5829
54877SOL     OW71680   8.006   9.540   1.763 -0.1678  0.7925  0.2528
54877SOL    HW171681   7.991   9.447   1.752 -1.3456  0.8147  1.3818
54877SOL    HW271682   7.918   9.579   1.763  0.3169  1.9366 -0.4794
54878SOL     OW71683   0.018  10.748  11.228  0.1662 -0.6736  0.1334
54878SOL    HW171684   0.027  10.765  11.134 -0.5041  0.6175  0.2764
54878SOL    HW271685   0.108  10.740  11.259  0.5431  1.4477 -0.2221
54879SOL     OW71686   7.508   2.919   0.195  0.1716 -0.3836  0.5936
54879SOL    HW171687   7.540   2.853   0.256  0.3299 -0.0396  0.8855
54879SOL    HW271688   7.420   2.940   0.226  0.1059 -0.4931  0.4765
54880SOL     OW71689   8.955   7.461   7.232  0.1720  0.0992 -0.0524
54880SOL    HW171690   8.873   7.509   7.241  0.5266  0.5097  1.2762
54880SOL    HW271691   8.933   7.385   7.178 -0.7179  1.0038 -1.0005
54881SOL     OW71692   2.002   5.622   0.624 -0.0643 -0.0020 -0.5484
54881SOL    HW171693   2.048   5.698   0.660  1.0645 -1.2760  0.8397
54881SOL    HW271694   2.029   5.619   0.532  1.4579  0.1724 -0.1329
54882SOL     OW71695   9.207   9.051   2.499  0.2898  0.0637 -0.2260
54882SOL    HW171696   9.218   8.984   2.431  0.5871 -0.3774  0.2492
54882SOL    HW271697   9.257   9.126   2.467 -1.1653  0.5702 -1.4186
54883SOL     OW71698   9.923   3.597   8.483  0.3967  0.6828  0.3516
54883SOL    HW171699   9.993   3.560   8.536 -0.9758  0.2166  1.9640
54883SOL    HW271700   9.940   3.691   8.483  0.0724  0.8019  2.3237
54884SOL     OW71701   9.863   3.022  11.404 -0.2157  0.8915 -0.0457
54884SOL    HW171702   9.922   3.063  11.468  1.0678  0.7887 -1.1126
54884SOL    HW271703   9.918   2.956  11.361 -0.6490  1.8039 -2.1238
54885SOL     OW71704   0.874   7.703   3.280  0.0348  0.2159  0.6873
54885SOL    HW171705   0.914   7.790   3.280 -1.3546  0.9093  2.0641
54885SOL    HW271706   0.853   7.686   3.372 -0.9997 -0.9509  0.2661
54886SOL     OW71707  10.826   5.873   7.161 -0.5876  0.7139  0.4266
54886SOL    HW171708  10.799   5.923   7.084  0.7444  0.9784  0.1161
54886SOL    HW271709  10.771   5.907   7.231 -0.2050  2.1465  0.0774
54887SOL     OW71710   0.265  11.569   7.137  0.9344 -0.2851  0.2583
54887SOL    HW171711   0.198  11.501   7.141  0.0748  0.5464  0.5830
54887SOL    HW271712   0.347  11.522   7.123  0.4972 -1.4409  1.3991
54888SOL     OW71713   1.043   5.384   4.636 -0.3053  0.5978  0.4946
54888SOL    HW171714   0.950   5.397   4.652 -0.5987 -1.1492  0.4108
54888SOL    HW271715   1.084   5.393   4.722 -0.7297  0.1363  0.7528
54889SOL     OW71716  11.660   1.526  11.717  0.1278  0.1188  0.4691
54889SOL    HW171717  11.733   1.580  11.746 -0.5745  3.1494 -2.6561
54889SOL    HW271718  11.695   1.476  11.643 -0.3994 -0.1169  0.3715
54890SOL     OW71719   6.038   9.413   5.256  0.0176 -0.3049 -0.4776
54890SOL    HW171720   5.978   9.487   5.266 -0.0705 -0.2938 -1.0745
54890SOL    HW271721   6.091   9.435   5.180  0.5360 -0.4886 -0.1754
54891SOL     OW71722  11.651   1.952   3.854 -0.1457  0.2735 -0.2819
54891SOL    HW171723  11.729   1.914   3.814  0.1892  0.7859 -0.1173
54891SOL    HW271724  11.670   2.045   3.861  0.1652  0.1130  1.8520
54892SOL     OW71725   8.245   5.681   2.668  0.2406  0.5674 -0.4093
54892SOL    HW171726   8.280   5.632   2.742  0.2223 -1.2567 -1.5599
54892SOL    HW271727   8.218   5.614   2.604 -0.9843  2.0313 -1.5209
54893SOL     OW71728  11.082   1.014   8.360 -0.5667 -0.3497  0.2172
54893SOL    HW171729  11.133   1.063   8.424 -1.8431  0.0891  0.9182
54893SOL    HW271730  11.078   0.925   8.396 -0.0624 -0.4640  0.0063
54894SOL     OW71731   7.071   7.845   3.717 -0.0646 -0.1326 -0.0061
54894SOL    HW171732   7.103   7.917   3.664 -0.4573  0.1151  0.0880
54894SOL    HW271733   7.006   7.884   3.775  1.6940 -0.0039  2.0180
54895SOL     OW71734   6.700   3.943   5.728  0.0043 -0.5580 -0.2212
54895SOL    HW171735   6.675   4.020   5.779  1.4867  0.4417 -0.9410
54895SOL    HW271736   6.638   3.941   5.655  1.5326  1.5710 -1.6825
54896SOL     OW71737   9.928   6.909   9.184 -0.3690 -0.1131 -0.7069
54896SOL    HW171738   9.916   6.883   9.092  0.6588  1.6556 -1.3977
54896SOL    HW271739  10.017   6.884   9.205 -1.2739 -2.5399  0.5966
54897SOL     OW71740  10.635  10.972   9.670  0.2605 -0.0657  0.4373
54897SOL    HW171741  10.619  11.053   9.719 -0.9685 -0.7337  1.1732
54897SOL    HW271742  10.703  10.996   9.607  0.0036  1.5063  0.7136
54898SOL     OW71743   1.321   2.043  11.281 -0.0360  0.1393  0.3668
54898SOL    HW171744   1.363   1.987  11.347 -1.2183  0.6869  1.6381
54898SOL    HW271745   1.258   1.985  11.238 -0.2618  0.1268  0.7077
54899SOL     OW71746   2.011   8.819   8.197 -0.1446 -0.2240 -0.1555
54899SOL    HW171747   1.975   8.735   8.168 -0.3705  0.2472 -1.2751
54899SOL    HW271748   1.942   8.858   8.250 -0.8242  0.0970 -1.2324
54900SOL     OW71749   4.983   4.623   8.765  0.3827 -0.1667  0.6621
54900SOL    HW171750   4.904   4.569   8.764 -0.0409  0.4137  1.5129
54900SOL    HW271751   4.951   4.713   8.767  1.0147  0.3483 -3.3008
54901SOL     OW71752   6.076   0.207   0.913 -0.3541  0.1537 -0.8073
54901SOL    HW171753   6.030   0.280   0.870 -0.3228 -0.1650 -1.3915
54901SOL    HW271754   6.100   0.149   0.841  1.4131  0.5536 -0.5646
54902SOL     OW71755   1.956   0.484   4.943 -0.4857  0.3692 -0.0336
54902SOL    HW171756   1.865   0.499   4.970 -0.4135  1.6823 -0.4534
54902SOL    HW271757   1.950   0.470   4.848 -0.1222  1.8599 -0.2931
54903SOL     OW71758   6.560  11.707  12.363 -0.1056  0.1234 -1.0035
54903SOL    HW171759   6.636  11.698  12.420 -0.5085  1.6058 -0.1799
54903SOL    HW271760   6.593  11.752  12.286  0.0554 -0.2117 -1.1353
54904SOL     OW71761  11.295   1.752   3.194 -0.2303 -0.3631  0.3641
54904SOL    HW171762  11.360   1.698   3.239 -0.5610 -0.6328  0.5209
54904SOL    HW271763  11.347   1.818   3.146  0.3613 -2.4227 -2.0401
54905SOL     OW71764  11.617   4.160   0.806  0.5273  0.4533 -0.2839
54905SOL    HW171765  11.526   4.182   0.827  0.7286  0.2289  0.8853
54905SOL    HW271766  11.654   4.242   0.773 -0.6526  0.0327 -2.8508
54906SOL     OW71767   0.537   8.927   4.261  0.1577 -0.0075  0.3600
54906SOL    HW171768   0.597   8.959   4.193  0.4045  0.7250  0.9148
54906SOL    HW271769   0.594   8.907   4.336 -0.0628 -1.1600  0.2481
54907SOL     OW71770   3.297  11.464   6.880  0.2166 -0.1125 -0.0649
54907SOL    HW171771   3.205  11.452   6.902  0.2712 -0.2301  0.1099
54907SOL    HW271772   3.312  11.407   6.804  0.1266 -0.0335 -0.1407
54908SOL     OW71773   3.721   7.427   2.617 -0.5052  0.0553  0.0123
54908SOL    HW171774   3.670   7.374   2.555  0.5115 -0.4351 -0.4258
54908SOL    HW271775   3.788   7.368   2.650 -1.6806 -0.0334  2.4827
54909SOL     OW71776   2.133   8.899   7.112 -0.8167  0.3023  0.1621
54909SOL    HW171777   2.055   8.843   7.112 -0.5934 -0.0685  2.1228
54909SOL    HW271778   2.186   8.866   7.039 -0.7391 -2.0110  1.1853
54910SOL     OW71779   3.435   4.325   8.291  0.4886 -0.0212  0.0105
54910SOL    HW171780   3.370   4.335   8.361  1.2498 -1.1682  0.9167
54910SOL    HW271781   3.513   4.371   8.325  0.4455  0.5887 -0.6894
54911SOL     OW71782   0.741   8.195  10.137  0.4698 -0.0933  0.2661
54911SOL    HW171783   0.679   8.216  10.207 -0.7446  0.7362 -1.0013
54911SOL    HW271784   0.709   8.112  10.101 -0.2550  0.5694 -0.6993
54912SOL     OW71785   1.868   3.644   4.361  0.3382  0.7502  0.2566
54912SOL    HW171786   1.961   3.633   4.384  0.8363  2.2856 -0.8914
54912SOL    HW271787   1.857   3.595   4.279 -0.0071  0.1629  0.6432
54913SOL     OW71788   9.855   7.054   0.226 -0.1907 -0.1487  0.1604
54913SOL    HW171789   9.819   7.060   0.314  2.2571  0.1933  1.2312
54913SOL    HW271790   9.907   6.973   0.228  1.1010  0.6276 -0.4203
54914SOL     OW71791   2.254  12.416   8.123 -0.1727  0.1088  0.4803
54914SOL    HW171792   2.334  12.464   8.104  0.8633 -1.2517  1.2926
54914SOL    HW271793   2.276  12.358   8.196 -1.5261 -1.1829 -0.0731
54915SOL     OW71794   7.811   1.288   6.237 -0.6687 -0.1906 -0.0979
54915SOL    HW171795   7.776   1.270   6.150  1.4203 -0.0357 -1.0259
54915SOL    HW271796   7.802   1.206   6.285 -1.6958 -0.3140 -0.4908
54916SOL     OW71797   1.432   6.509   9.534 -0.0806  0.0048 -0.6156
54916SOL    HW171798   1.368   6.563   9.581  0.5533  0.2813 -0.0570
54916SOL    HW271799   1.381   6.466   9.466 -0.9272 -0.0344  0.0250
54917SOL     OW71800   3.926   1.402   9.927  0.2234  0.4293 -0.0898
54917SOL    HW171801   3.983   1.329   9.952  0.1054  0.4859  0.3640
54917SOL    HW271802   3.927   1.403   9.831  0.4003 -0.0301 -0.0931
54918SOL     OW71803  12.159   1.558   9.514 -0.3853 -0.3802  0.0971
54918SOL    HW171804  12.159   1.469   9.550 -0.5611 -1.6112 -2.6957
54918SOL    HW271805  12.067   1.586   9.518 -0.0323  0.6849  3.0417
54919SOL     OW71806  11.061   7.602   9.147  0.3080 -0.5644  0.1590
54919SOL    HW171807  11.101   7.558   9.073  0.9110  0.2368 -0.0128
54919SOL    HW271808  11.090   7.553   9.224  1.1567 -0.3477 -0.0109
54920SOL     OW71809  12.586   1.857   3.922  0.3770 -0.0823  0.1868
54920SOL    HW171810  12.576   1.775   3.873 -0.2444 -0.4445  0.9011
54920SOL    HW271811  12.675   1.886   3.902  0.1862 -0.2793 -1.0588
54921SOL     OW71812   0.679   0.674   7.926 -0.2377  0.3464  0.0393
54921SOL    HW171813   0.629   0.710   7.999  1.3941  0.2835  1.2449
54921SOL    HW271814   0.708   0.588   7.956  0.6823  0.4291 -0.5528
54922SOL     OW71815  11.957   4.882   0.913 -0.3317 -0.7174 -0.0738
54922SOL    HW171816  11.943   4.974   0.891 -1.0136 -0.6546  0.5644
54922SOL    HW271817  11.957   4.880   1.008  1.4245 -1.1467 -0.0489
54923SOL     OW71818   2.641   3.972   0.113 -0.1855 -0.4620  0.3159
54923SOL    HW171819   2.672   4.053   0.073  1.6967 -0.7374  1.1166
54923SOL    HW271820   2.687   3.968   0.197 -0.8672 -1.9642  0.6471
54924SOL     OW71821   7.407   5.443   8.529  0.6998 -0.4589  0.2756
54924SOL    HW171822   7.336   5.508   8.532  0.7805 -0.3891  1.5836
54924SOL    HW271823   7.364   5.360   8.550  0.8360 -0.5894  0.0425
54925SOL     OW71824  10.962   0.185   9.341  0.2469 -0.2688  0.5935
54925SOL    HW171825  10.962   0.281   9.346  2.2495 -0.1707 -0.5015
54925SOL    HW271826  11.033   0.158   9.400  0.4575 -1.0164  0.0097
54926SOL     OW71827   9.688   5.103  10.104 -0.7578 -0.0433  0.1097
54926SOL    HW171828   9.749   5.174  10.084  0.3611 -0.9796  0.0407
54926SOL    HW271829   9.686   5.099  10.199 -0.3214 -0.3095  0.1132
54927SOL     OW71830   6.887   2.735   2.215  0.1515  0.8430  0.2522
54927SOL    HW171831   6.973   2.776   2.216  1.3073 -1.4218  1.4303
54927SOL    HW271832   6.862   2.732   2.308  0.2901 -1.3657  0.2534
54928SOL     OW71833   6.441   1.965   0.553  0.4071  0.6504 -0.0590
54928SOL    HW171834   6.534   1.957   0.531  0.3325 -1.8263  0.2067
54928SOL    HW271835   6.429   2.058   0.571  3.0757  0.9252  0.9182
54929SOL     OW71836   2.864   1.068  12.210 -0.1502 -0.3112 -0.5698
54929SOL    HW171837   2.925   1.141  12.200  0.2741 -0.4562  0.7298
54929SOL    HW271838   2.894   1.023  12.289 -0.7137 -1.5942 -1.0636
54930SOL     OW71839   3.312  11.279   8.293  0.0446  0.0514 -0.0522
54930SOL    HW171840   3.384  11.218   8.280  1.4108  1.4288  0.6664
54930SOL    HW271841   3.280  11.260   8.381  0.4214  0.3056  0.1430
54931SOL     OW71842   8.185   1.744   9.803 -0.6926 -0.4618 -0.3068
54931SOL    HW171843   8.256   1.753   9.866 -1.0379 -0.6239  0.1155
54931SOL    HW271844   8.114   1.797   9.840 -0.8938 -0.5486 -0.5685
54932SOL     OW71845  11.744  10.682   8.407 -0.4241  0.0712 -0.3299
54932SOL    HW171846  11.725  10.758   8.352 -1.7494 -0.8087 -1.1587
54932SOL    HW271847  11.839  10.671   8.402 -0.4018  0.6671 -1.5663
54933SOL     OW71848   8.889  12.409  12.135 -0.4780  0.0550  0.1263
54933SOL    HW171849   8.918  12.462  12.210 -1.3129 -1.6155  1.7095
54933SOL    HW271850   8.967  12.361  12.108 -0.0419  1.0628 -0.4516
54934SOL     OW71851  10.481   4.925   9.086  0.2849 -0.0561 -0.3323
54934SOL    HW171852  10.526   4.962   9.011  2.0966 -0.2022  0.6311
54934SOL    HW271853  10.499   4.831   9.082  1.0203  0.0238  0.6481
54935SOL     OW71854   3.462   1.706   8.854  0.5473  0.2708  0.1988
54935SOL    HW171855   3.514   1.763   8.910  1.2130  0.3976 -0.5322
54935SOL    HW271856   3.466   1.747   8.768 -1.1874  0.5482  0.2261
54936SOL     OW71857   4.422   2.133   5.101 -0.2892  0.0242  0.0543
54936SOL    HW171858   4.345   2.149   5.046  0.8164  0.3774 -1.4538
54936SOL    HW271859   4.405   2.048   5.141 -0.8122 -0.6190 -1.4476
54937SOL     OW71860   3.822   2.624  10.336  0.4060 -0.1445 -0.0102
54937SOL    HW171861   3.729   2.636  10.319  0.5615  1.1342 -0.0313
54937SOL    HW271862   3.863   2.627  10.249  0.5524  0.0814  0.0668
54938SOL     OW71863   8.769   0.167   7.303  0.0171  0.1163  0.0945
54938SOL    HW171864   8.676   0.182   7.285 -0.5092 -0.8010  1.8290
54938SOL    HW271865   8.783   0.205   7.390  1.2112  0.0056 -0.0310
54939SOL     OW71866   8.118   9.010   2.817 -0.3125 -0.3271  0.2657
54939SOL    HW171867   8.151   9.100   2.819  2.2688 -1.2157  2.2124
54939SOL    HW271868   8.048   9.009   2.883  0.1944  0.0531  0.8174
54940SOL     OW71869   3.402  10.314  12.432 -0.0941 -0.1342 -0.1725
54940SOL    HW171870   3.475  10.322  12.493 -0.7202 -2.4857  1.0205
54940SOL    HW271871   3.330  10.361  12.475 -0.7607 -2.4299  1.4643
54941SOL     OW71872   3.140   8.530   7.153 -0.7655  0.5539 -0.7000
54941SOL    HW171873   3.201   8.480   7.098  0.6196  0.9721  0.3955
54941SOL    HW271874   3.182   8.615   7.163 -1.0949  0.5659  0.8042
54942SOL     OW71875  11.506   5.371   2.859  0.0602  0.5925  0.6390
54942SOL    HW171876  11.600   5.386   2.861  0.1158  0.4294 -0.5144
54942SOL    HW271877  11.486   5.335   2.946  1.4004 -1.3808  0.1753
54943SOL     OW71878  10.570   7.866   7.594  0.2593 -0.1264 -0.5346
54943SOL    HW171879  10.653   7.903   7.566 -0.3723  2.3083  0.5112
54943SOL    HW271880  10.554   7.904   7.680 -2.0748 -0.2225 -0.8360
54944SOL     OW71881   5.217   1.760  11.312  0.3663  0.2160 -0.1757
54944SOL    HW171882   5.213   1.702  11.388 -3.4328 -0.7901 -0.8983
54944SOL    HW271883   5.229   1.848  11.349 -0.0363 -0.3996  1.4996
54945SOL     OW71884   5.063  10.737   5.245 -0.1309  0.1717 -0.3071
54945SOL    HW171885   4.985  10.793   5.241  0.6090  1.2165 -2.5126
54945SOL    HW271886   5.045  10.673   5.313 -2.7100  0.6718 -0.4362
54946SOL     OW71887   1.297   7.560   6.500  0.0470 -0.0087 -0.3967
54946SOL    HW171888   1.382   7.582   6.540 -1.0263  0.4979  1.7352
54946SOL    HW271889   1.233   7.584   6.567 -1.6628 -2.7303 -0.9502
54947SOL     OW71890   7.097   3.864   9.190  0.2622  0.1516 -0.2725
54947SOL    HW171891   7.038   3.857   9.115 -1.0679 -0.5396  0.7995
54947SOL    HW271892   7.082   3.952   9.225  0.4397  0.2585 -0.4677
54948SOL     OW71893  12.258   3.121   1.409  0.0493  0.0235  0.5655
54948SOL    HW171894  12.273   3.042   1.358 -1.0269  1.1038 -1.5702
54948SOL    HW271895  12.316   3.186   1.369  0.1214  0.6172  1.5873
54949SOL     OW71896  12.401   0.128   1.063  0.2818 -0.2471  0.9093
54949SOL    HW171897  12.372   0.213   1.030 -0.5380 -1.2196 -1.0909
54949SOL    HW271898  12.491   0.119   1.032  0.8572  0.4292  2.3071
54950SOL     OW71899   4.275   3.249   2.072 -0.2328 -0.2038  0.0773
54950SOL    HW171900   4.241   3.201   2.147 -1.0854 -1.7703 -1.2442
54950SOL    HW271901   4.273   3.186   2.000  0.8155  1.1519 -1.2133
54951SOL     OW71902   6.508   8.598   6.190  0.1620  0.0147 -0.4342
54951SOL    HW171903   6.417   8.628   6.193  0.2683  0.2707  1.1718
54951SOL    HW271904   6.505   8.515   6.142 -1.2976 -1.1587  1.5377
54952SOL     OW71905  11.286  10.434   5.740  0.2963 -0.5040  0.9003
54952SOL    HW171906  11.310  10.525   5.724  0.1134 -0.5489  0.3538
54952SOL    HW271907  11.301  10.390   5.656 -0.0257 -0.8897  1.0425
54953SOL     OW71908   6.438   8.061   7.370  0.1133 -0.2485  0.4998
54953SOL    HW171909   6.497   8.137   7.380  0.6150 -0.3398 -1.3364
54953SOL    HW271910   6.469   7.998   7.435  1.3892  0.1170  0.2721
54954SOL     OW71911   5.147   3.214   5.536  0.3937  0.4006 -0.2013
54954SOL    HW171912   5.232   3.177   5.560  0.6285  0.0968 -1.4420
54954SOL    HW271913   5.132   3.283   5.600  1.2070 -0.0656  0.5163
54955SOL     OW71914   0.622   6.821   4.596  0.7901  0.4911  0.5240
54955SOL    HW171915   0.557   6.759   4.562 -0.1929  0.5275  2.2157
54955SOL    HW271916   0.682   6.767   4.647  1.2215  0.6692  0.2183
54956SOL     OW71917   5.443   4.388  12.110  0.8009  0.0291 -0.3592
54956SOL    HW171918   5.522   4.339  12.133  0.5246  0.7458  2.4646
54956SOL    HW271919   5.371   4.336  12.145  0.1096  0.2212 -1.4291
54957SOL     OW71920   5.964  12.175   5.612  0.3743 -0.3868 -0.0196
54957SOL    HW171921   5.908  12.097   5.608 -0.9736  0.5039  0.7164
54957SOL    HW271922   6.028  12.154   5.681 -0.3634 -0.6173  0.6145
54958SOL     OW71923  11.411   0.661  12.044  0.4020  0.1366  0.0043
54958SOL    HW171924  11.465   0.582  12.046  1.4785  0.7063 -2.5770
54958SOL    HW271925  11.351   0.647  11.971 -0.9166  0.8140  0.9118
54959SOL     OW71926   1.201   5.743  10.513 -0.2960  0.6652 -0.6083
54959SOL    HW171927   1.295   5.754  10.499  0.2340 -1.0336  1.1747
54959SOL    HW271928   1.191   5.741  10.609 -2.0342 -0.0968 -0.7743
54960SOL     OW71929   4.799   3.371   9.172  0.2912  0.6991 -0.3750
54960SOL    HW171930   4.757   3.424   9.240  1.0089  0.1967  0.4717
54960SOL    HW271931   4.727   3.348   9.113 -0.2005  1.8071 -0.2364
54961SOL     OW71932   5.291   8.674   0.591 -0.0396  0.1881  0.2458
54961SOL    HW171933   5.293   8.609   0.521 -0.2849  1.3282 -0.8759
54961SOL    HW271934   5.379   8.673   0.628  0.9174  1.3369 -1.8316
54962SOL     OW71935   2.401   2.085   0.125 -0.4251 -0.1700  0.3760
54962SOL    HW171936   2.313   2.116   0.147 -1.0709 -0.4487 -1.6200
54962SOL    HW271937   2.390   1.990   0.115  0.0869 -0.1910  0.0171
54963SOL     OW71938   7.744   6.992   0.317  0.2385 -0.5694 -0.0971
54963SOL    HW171939   7.754   7.077   0.274 -1.8718  0.1217  0.6451
54963SOL    HW271940   7.667   6.953   0.275  0.4805 -1.6117  0.3928
54964SOL     OW71941  11.043   4.942   4.724  0.9055  0.1229  0.2002
54964SOL    HW171942  11.028   4.848   4.734  0.7587  0.0413 -0.6707
54964SOL    HW271943  11.016   4.980   4.807  2.3935 -0.7639  1.1337
54965SOL     OW71944   6.683  10.950  11.697 -0.0175 -0.1593 -0.5786
54965SOL    HW171945   6.724  11.021  11.746  0.0196  0.0203 -0.8660
54965SOL    HW271946   6.685  10.875  11.756  1.4327 -0.3749 -0.8565
54966SOL     OW71947   4.119   9.979   3.166  0.0916 -0.1049 -0.1617
54966SOL    HW171948   4.076  10.002   3.084  0.4157 -0.2674 -0.3750
54966SOL    HW271949   4.211   9.968   3.144 -0.0491 -1.6728 -0.0805
54967SOL     OW71950   7.957  10.392   9.553  0.1311  0.1773 -0.5639
54967SOL    HW171951   8.051  10.407   9.567  0.1381 -0.1380 -0.2535
54967SOL    HW271952   7.914  10.464   9.599  0.2547  1.3226 -2.1419
54968SOL     OW71953   6.094   6.408   1.352  0.7059  0.0792 -0.1674
54968SOL    HW171954   6.022   6.470   1.337 -0.1286 -1.1116 -1.3761
54968SOL    HW271955   6.144   6.446   1.424 -0.5836  1.4343  0.0658
54969SOL     OW71956   4.952  11.275  12.394  0.6129 -0.2721 -0.2901
54969SOL    HW171957   4.976  11.365  12.370  2.1627 -0.8399 -0.9958
54969SOL    HW271958   4.885  11.250  12.331  1.3281 -0.1482 -1.1168
54970SOL     OW71959  12.094   4.252   4.473 -0.1551  0.8187  0.1793
54970SOL    HW171960  12.176   4.260   4.423  0.1189 -1.6091  0.1315
54970SOL    HW271961  12.102   4.319   4.542  2.1330  0.3054  0.4998
54971SOL     OW71962   5.266   8.477  11.250 -0.7273  0.3633  0.1022
54971SOL    HW171963   5.181   8.435  11.265 -0.0227 -1.1206  0.0113
54971SOL    HW271964   5.271   8.544  11.319 -0.8972 -1.1940  1.6835
54972SOL     OW71965   0.655   2.284   1.647 -0.2465  0.1040 -0.0430
54972SOL    HW171966   0.721   2.350   1.668 -1.3278  1.0323  0.5754
54972SOL    HW271967   0.622   2.255   1.732  0.7527 -1.8563 -0.2701
54973SOL     OW71968   8.105   4.204   6.446 -0.3845 -0.1902  0.2141
54973SOL    HW171969   8.065   4.241   6.525 -0.5508 -2.5651  1.3332
54973SOL    HW271970   8.030   4.173   6.394 -0.3811  2.7139 -1.6967
54974SOL     OW71971   0.224  11.920  12.548  0.3688  0.6149  0.5379
54974SOL    HW171972   0.274  11.964  12.480  0.1821  0.8282  0.5375
54974SOL    HW271973   0.247  11.966  12.629 -0.5137  1.3176  0.4128
54975SOL     OW71974   5.626   3.528   3.807 -0.0647  0.3566 -0.1705
54975SOL    HW171975   5.619   3.592   3.878 -0.4317 -1.3872  1.4420
54975SOL    HW271976   5.552   3.548   3.749 -1.1994  0.3414  1.2147
54976SOL     OW71977   2.101   3.560  11.610  0.1422 -0.1971 -0.2595
54976SOL    HW171978   2.065   3.485  11.563  1.3803 -2.0335  1.5573
54976SOL    HW271979   2.164   3.598  11.549 -2.4032  1.1395 -2.2518
54977SOL     OW71980   5.613   4.462  12.574 -0.1613  0.6639  0.5601
54977SOL    HW171981   5.543   4.518  12.541  1.2072  1.0294 -1.9689
54977SOL    HW271982   5.681   4.523  12.604  1.2860  0.4968 -2.1008
54978SOL     OW71983   9.074   2.849   2.872  0.1695  0.2640 -0.1728
54978SOL    HW171984   9.067   2.757   2.845  0.3732  0.6309 -1.5197
54978SOL    HW271985   9.145   2.885   2.818  0.7158  0.9926  0.9914
54979SOL     OW71986  10.477   1.832   8.680  0.9409  0.0959 -0.1864
54979SOL    HW171987  10.532   1.798   8.609  0.0165 -1.1688 -0.3373
54979SOL    HW271988  10.391   1.791   8.665  1.2265 -1.8288  2.8019
54980SOL     OW71989   6.823  11.229   6.460  0.1103 -0.0702 -0.6229
54980SOL    HW171990   6.864  11.233   6.547 -0.0660 -0.6923 -0.5051
54980SOL    HW271991   6.844  11.142   6.428 -0.9470 -0.3408 -0.6375
54981SOL     OW71992  10.419   2.754   3.097  0.8720  0.3521 -0.2666
54981SOL    HW171993  10.410   2.721   3.186  1.5119 -0.4838 -0.5024
54981SOL    HW271994  10.335   2.733   3.055  1.9559 -2.9663 -1.0232
54982SOL     OW71995  12.252   2.569   8.804  0.1769 -0.0154  0.6337
54982SOL    HW171996  12.221   2.488   8.843 -0.7360  0.4464  0.9037
54982SOL    HW271997  12.241   2.635   8.873  2.2185  0.1075  0.9081
54983SOL     OW71998   6.335   9.251  11.213  0.3510 -0.4396  0.1017
54983SOL    HW171999   6.335   9.221  11.122  1.8543  0.3278 -0.1830
54983SOL    HW272000   6.251   9.295  11.224  0.7422  0.7705 -1.4042
54984SOL     OW72001  11.007   2.192   0.399 -0.6429  0.8998 -0.6729
54984SOL    HW172002  10.978   2.277   0.366 -1.9659  1.4760  1.7497
54984SOL    HW272003  10.931   2.157   0.446  1.0821  0.2429  1.8421
54985SOL     OW72004  10.061   6.630   2.832 -0.4852 -0.0886  0.1203
54985SOL    HW172005   9.991   6.608   2.770 -0.2344  2.0094 -0.9954
54985SOL    HW272006  10.117   6.552   2.832 -0.9377 -0.4772 -1.6910
54986SOL     OW72007   1.082   3.728   4.515 -0.5315  0.2863 -0.2282
54986SOL    HW172008   1.169   3.689   4.502 -0.2924  0.8825 -0.4768
54986SOL    HW272009   1.037   3.714   4.431 -0.3715  0.7063 -0.3914
54987SOL     OW72010  11.541  10.337   9.082 -0.2104 -0.2636 -0.3152
54987SOL    HW172011  11.473  10.271   9.066  0.4955 -1.2872  0.6782
54987SOL    HW272012  11.608  10.317   9.016 -0.5718  0.3309 -0.8733
54988SOL     OW72013   1.321   8.577   8.792  0.5122 -0.2677 -0.8175
54988SOL    HW172014   1.407   8.582   8.751  0.7792 -2.4516 -0.6902
54988SOL    HW272015   1.260   8.561   8.720  0.5999 -1.2535 -0.6997
54989SOL     OW72016   1.115   2.978   0.803 -0.0414 -0.2594 -0.6308
54989SOL    HW172017   1.158   2.915   0.861 -0.2389  0.7398  0.6354
54989SOL    HW272018   1.185   3.037   0.776  0.1585 -1.0322 -1.8803
54990SOL     OW72019   9.719   5.957   4.856  0.4267 -0.5498  0.2620
54990SOL    HW172020   9.811   5.969   4.875  0.5672 -2.2312  0.8155
54990SOL    HW272021   9.718   5.907   4.774 -0.0186  0.2215 -0.2116
54991SOL     OW72022   8.511   1.183   4.409 -0.2030 -0.2192 -0.7772
54991SOL    HW172023   8.486   1.275   4.413  1.5722  0.2478  1.8420
54991SOL    HW272024   8.445   1.138   4.461 -0.2601 -0.2232 -0.8524
54992SOL     OW72025  10.766  10.135   2.828 -0.1251  0.1851 -0.1596
54992SOL    HW172026  10.694  10.157   2.769 -0.4438 -0.2769  0.0541
54992SOL    HW272027  10.762  10.040   2.837 -0.0218  0.2381  0.5365
54993SOL     OW72028   8.746  11.981   9.275  0.4119 -0.0468  0.1143
54993SOL    HW172029   8.728  11.893   9.308 -1.8833  1.0383  2.0930
54993SOL    HW272030   8.760  12.033   9.354 -1.5343  1.9538 -0.7352
54994SOL     OW72031  11.969  10.918   6.756  0.2257 -0.0687 -0.3526
54994SOL    HW172032  11.947  10.899   6.847 -1.1514  0.4714 -0.5494
54994SOL    HW272033  12.052  10.966   6.761 -0.7287  1.5656  0.7727
54995SOL     OW72034   3.940   8.874   0.766 -0.1097  0.6886 -0.1127
54995SOL    HW172035   4.024   8.834   0.741 -1.2560 -1.2469 -1.0979
54995SOL    HW272036   3.919   8.836   0.851 -1.1002 -0.7704 -0.9572
54996SOL     OW72037   6.843   8.429   8.734  0.3099 -0.0652 -0.2710
54996SOL    HW172038   6.871   8.484   8.807 -0.1907  0.7141 -0.6628
54996SOL    HW272039   6.924   8.413   8.685  0.3953  0.6627 -0.3807
54997SOL     OW72040   7.003   3.949  10.112  0.1340  0.2086  0.1922
54997SOL    HW172041   6.990   3.865  10.156 -3.5496  0.0027 -0.9488
54997SOL    HW272042   7.005   3.927  10.019  2.3445  1.1630 -0.0506
54998SOL     OW72043  11.434   5.282   6.893 -0.0586  0.5835  0.0052
54998SOL    HW172044  11.482   5.333   6.828 -0.4964  0.6408 -0.2745
54998SOL    HW272045  11.371   5.343   6.930 -0.6820  0.2122 -0.4334
54999SOL     OW72046   3.608   2.612   4.487  0.0988  0.5875 -0.0980
54999SOL    HW172047   3.606   2.568   4.572 -0.2613 -1.5267 -1.1299
54999SOL    HW272048   3.579   2.545   4.425  0.4210  2.0465 -1.9063
55000SOL     OW72049   7.450   1.930   1.512 -0.0196  0.1322 -0.3249
55000SOL    HW172050   7.526   1.965   1.557  0.7744  0.9248 -2.1783
55000SOL    HW272051   7.482   1.852   1.467 -0.2871  0.4581 -1.0964
55001SOL     OW72052   8.244  10.633   9.330  0.0911 -0.2976  0.4436
55001SOL    HW172053   8.242  10.625   9.425  0.5502 -2.6922  0.3007
55001SOL    HW272054   8.165  10.684   9.309 -0.2534 -0.1095  2.0500
55002SOL     OW72055   8.376   4.452  11.445  0.2304  0.3987 -0.4439
55002SOL    HW172056   8.416   4.534  11.417 -0.6576  0.9366 -0.1795
55002SOL    HW272057   8.282   4.467  11.435  0.0409 -0.4699 -0.0689
55003SOL     OW72058   6.847   3.872   3.628  0.0462  0.2173  0.1479
55003SOL    HW172059   6.891   3.811   3.687  0.6731 -0.1821 -0.7142
55003SOL    HW272060   6.766   3.826   3.603  0.6672 -0.4211 -0.7499
55004SOL     OW72061   5.371   2.834   6.043  0.1516 -0.6109 -0.2820
55004SOL    HW172062   5.303   2.859   5.980 -2.2234 -0.5971  2.0975
55004SOL    HW272063   5.367   2.738   6.045 -0.9648 -0.5727  0.9450
55005SOL     OW72064  11.482  10.625   4.732 -0.0643  0.2185 -0.3410
55005SOL    HW172065  11.545  10.557   4.756 -1.0739  0.3318  3.2679
55005SOL    HW272066  11.429  10.586   4.663 -0.1813 -2.4899  1.1434
55006SOL     OW72067   7.381  11.960   4.558 -0.5131 -0.5449 -0.1862
55006SOL    HW172068   7.359  12.037   4.505 -1.8237 -1.6943 -1.4126
55006SOL    HW272069   7.384  11.992   4.648 -1.8635  0.7901 -0.5745
55007SOL     OW72070  10.806  12.418   7.038  0.4778 -0.4171 -0.4406
55007SOL    HW172071  10.715  12.431   7.014  0.5540 -1.0374 -1.1050
55007SOL    HW272072  10.855  12.476   6.979  0.5446 -0.4761 -0.4427
55008SOL     OW72073   5.099   5.968   0.682 -0.1046 -0.2655  0.0489
55008SOL    HW172074   5.066   5.974   0.772  0.4340 -1.9892  0.3945
55008SOL    HW272075   5.192   5.989   0.689 -0.2128  0.3284 -0.2355
55009SOL     OW72076   5.534  11.554  10.664 -0.2204 -0.1522 -0.2077
55009SOL    HW172077   5.533  11.459  10.674 -0.1868 -0.0219  1.2099
55009SOL    HW272078   5.610  11.583  10.714 -0.2697  0.6396 -0.5668
55010SOL     OW72079   2.486   9.370   9.279 -0.1552 -0.1839 -0.4011
55010SOL    HW172080   2.412   9.398   9.331  2.0163  2.7110  1.4343
55010SOL    HW272081   2.555   9.351   9.342  1.7700  0.8580 -2.0321
55011SOL     OW72082   6.254   2.828  12.515  0.5346  0.1872 -0.0780
55011SOL    HW172083   6.322   2.848  12.579 -0.2794 -0.6390  1.0996
55011SOL    HW272084   6.192   2.901  12.522  0.3650  0.0193  0.2131
55012SOL     OW72085   0.418  10.332   3.669 -0.1052  0.3878  0.3548
55012SOL    HW172086   0.467  10.373   3.741 -0.3525  1.0568  0.1541
55012SOL    HW272087   0.335  10.379   3.668 -0.9123 -0.9862  0.9369
55013SOL     OW72088  10.802  10.836   8.777  0.2533  0.1264 -0.2192
55013SOL    HW172089  10.865  10.894   8.735  1.6226 -1.0368  0.1644
55013SOL    HW272090  10.753  10.893   8.837  1.0027  1.0262 -0.4428
55014SOL     OW72091   6.718   7.242  11.461 -0.0784  0.6926  0.3347
55014SOL    HW172092   6.743   7.277  11.376 -0.5942 -0.1627 -0.1923
55014SOL    HW272093   6.640   7.292  11.486  1.1290  2.2137  1.1990
55015SOL     OW72094  10.830  10.540   3.209 -0.0749 -0.0200  0.3353
55015SOL    HW172095  10.741  10.504   3.217 -0.0134 -0.0546  0.8910
55015SOL    HW272096  10.829  10.588   3.126 -0.4302 -0.5340  0.0366
55016SOL     OW72097   3.569  11.323   6.847 -0.0200 -0.3528 -0.0413
55016SOL    HW172098   3.515  11.296   6.773  0.1648 -2.2033  0.4577
55016SOL    HW272099   3.558  11.254   6.912  0.4435  0.8375  1.3533
55017SOL     OW72100   9.334   5.829   2.682  0.1305  0.3767  0.1547
55017SOL    HW172101   9.400   5.820   2.751 -0.7387  1.6749  1.2242
55017SOL    HW272102   9.252   5.805   2.725 -0.4293  1.2096 -0.4246
55018SOL     OW72103  12.131   0.358   5.876  0.2570  0.2389  0.3793
55018SOL    HW172104  12.186   0.399   5.809 -0.2600 -0.1864 -0.3182
55018SOL    HW272105  12.193   0.311   5.932  0.8742  1.9331  1.2197
55019SOL     OW72106   2.548   3.161   6.049  0.6184  0.2779 -0.3301
55019SOL    HW172107   2.516   3.225   6.112  1.1747  1.4717 -1.2381
55019SOL    HW272108   2.484   3.162   5.978 -0.4170 -1.6085  0.4855
55020SOL     OW72109   7.207   8.166  10.532 -0.5212  0.1951  0.3919
55020SOL    HW172110   7.284   8.163  10.476 -0.1727  0.2011  0.8710
55020SOL    HW272111   7.212   8.086  10.585 -1.0060  0.0400  0.2156
55021SOL     OW72112   1.954   9.073  10.758  0.3104  0.1974 -0.0320
55021SOL    HW172113   2.033   9.020  10.766 -1.0527 -1.7047  1.6172
55021SOL    HW272114   1.906   9.034  10.686  0.6553  1.1493 -0.8133
55022SOL     OW72115   5.224   0.608  11.533 -0.7612  0.4123  0.3590
55022SOL    HW172116   5.131   0.612  11.515 -0.8709  0.2584  0.8755
55022SOL    HW272117   5.263   0.572  11.454 -1.2569 -0.4916  0.5154
55023SOL     OW72118   8.007   0.469  10.279 -0.1084  0.2520  0.0300
55023SOL    HW172119   8.100   0.449  10.293  0.3342  0.2197 -2.5903
55023SOL    HW272120   7.994   0.551  10.326  0.7163 -0.6588  2.0005
55024SOL     OW72121   8.496   3.871   0.298 -0.3581  0.9829  0.9524
55024SOL    HW172122   8.404   3.844   0.301 -0.0216 -0.2173  1.2411
55024SOL    HW272123   8.519   3.867   0.205 -0.5263  1.0049  0.9094
55025SOL     OW72124   3.481   1.712  11.925  0.6859 -0.4730 -0.0897
55025SOL    HW172125   3.495   1.712  12.020  2.4272 -1.1664 -0.3224
55025SOL    HW272126   3.555   1.664  11.889  1.2228  1.5900 -1.9860
55026SOL     OW72127   7.543   6.600   4.915  0.2464  0.8016  0.2050
55026SOL    HW172128   7.485   6.641   4.979 -0.9223 -0.3979 -0.0538
55026SOL    HW272129   7.491   6.595   4.834  0.2358 -1.3531  0.2812
55027SOL     OW72130   9.234  12.090   9.572 -1.2806  0.2054 -0.2573
55027SOL    HW172131   9.209  12.182   9.558 -0.7339  0.4930  0.5535
55027SOL    HW272132   9.322  12.084   9.535 -1.5455 -0.1532 -0.8400
55028SOL     OW72133   3.197   8.293   2.323 -0.3584  0.1195  0.4807
55028SOL    HW172134   3.255   8.357   2.366 -0.9748  0.1983  1.2220
55028SOL    HW272135   3.202   8.315   2.230 -0.0895  0.8711  0.6609
55029SOL     OW72136   9.801   5.799   2.125  0.1903  0.0923 -0.1173
55029SOL    HW172137   9.861   5.730   2.096 -0.1463 -0.4522  0.4492
55029SOL    HW272138   9.748   5.819   2.049  0.9469  0.4285 -0.5680
55030SOL     OW72139   0.070   4.015   4.859 -0.0271  0.3330 -0.0896
55030SOL    HW172140   0.073   3.935   4.910  2.3864 -0.4607 -1.3627
55030SOL    HW272141   0.022   3.992   4.779  0.4133  0.2441 -0.3277
55031SOL     OW72142   2.300  11.955   7.926 -0.1737  0.0175  0.2647
55031SOL    HW172143   2.264  12.043   7.933 -0.1510  0.0688 -0.2232
55031SOL    HW272144   2.295  11.920   8.015 -2.2441 -0.3160  0.0477
55032SOL     OW72145   3.123  11.792   3.473  0.1889 -0.2578  0.0239
55032SOL    HW172146   3.097  11.827   3.559 -0.3194  0.0909 -0.2702
55032SOL    HW272147   3.182  11.858   3.438 -2.0680  1.1885 -1.2610
55033SOL     OW72148  11.193   8.664  12.178 -0.3162  0.6768 -0.0734
55033SOL    HW172149  11.285   8.677  12.203 -0.2700 -0.0253  0.1211
55033SOL    HW272150  11.189   8.573  12.149 -1.7916 -0.6099  3.6816
55034SOL     OW72151   9.885  11.607  12.472 -0.0198  0.1385 -0.6661
55034SOL    HW172152   9.901  11.634  12.382 -0.3706  0.3110 -0.6768
55034SOL    HW272153   9.801  11.647  12.495  0.9922  1.7648  0.3966
55035SOL     OW72154   9.183  12.335   6.674  0.7425 -0.3735  0.3868
55035SOL    HW172155   9.130  12.406   6.638  0.4995 -0.3010  0.8807
55035SOL    HW272156   9.269  12.346   6.633  1.4709  1.6999  2.2368
55036SOL     OW72157  10.758  10.918   2.261 -0.0482  0.3541 -0.3417
55036SOL    HW172158  10.698  10.968   2.205 -0.6689  1.0022  0.8637
55036SOL    HW272159  10.814  10.984   2.301 -0.8500  0.1241  1.2345
55037SOL     OW72160  12.299   7.657  10.298 -0.5326  0.1057 -0.6484
55037SOL    HW172161  12.261   7.664  10.210  2.0311 -2.2034 -2.0801
55037SOL    HW272162  12.270   7.571  10.330 -0.3333  0.3536  0.2406
55038SOL     OW72163   0.784  11.261   5.024  0.0231 -0.5390  0.2651
55038SOL    HW172164   0.860  11.260   4.966 -0.2787 -0.8510 -0.1293
55038SOL    HW272165   0.782  11.350   5.060 -0.9341  0.3214 -1.7411
55039SOL     OW72166   0.028   9.058   2.014  0.6134  0.4679  0.1996
55039SOL    HW172167   0.006   9.060   2.107  1.3094  2.7861  0.3787
55039SOL    HW272168   0.079   9.138   1.999 -0.7835  0.9909 -2.4920
55040SOL     OW72169   1.014  10.428   2.859  0.5763 -0.6976  0.0614
55040SOL    HW172170   0.924  10.451   2.839  1.5005  3.3213 -0.3084
55040SOL    HW272171   1.063  10.449   2.779  1.8344 -3.7239 -0.1131
55041SOL     OW72172   5.478  12.112   8.031  0.3530  0.3263 -0.2469
55041SOL    HW172173   5.535  12.038   8.012  0.8909  1.0095 -1.3611
55041SOL    HW272174   5.534  12.174   8.078  0.7729  1.3036 -1.9609
55042SOL     OW72175   9.834   8.603   1.046  0.1063 -0.2460 -0.2530
55042SOL    HW172176   9.893   8.594   1.120  0.4969  0.5820 -0.4509
55042SOL    HW272177   9.755   8.643   1.083 -0.1158 -0.8335 -0.0903
55043SOL     OW72178   8.587   3.516  10.497  0.0760 -0.3738  0.1058
55043SOL    HW172179   8.579   3.429  10.459  2.3992 -0.5814 -0.0172
55043SOL    HW272180   8.679   3.525  10.519  0.1421  2.4290 -0.8238
55044SOL     OW72181  10.274   9.386   6.609  0.8234  0.4418  0.0962
55044SOL    HW172182  10.303   9.298   6.584 -2.0535 -0.7736  0.6897
55044SOL    HW272183  10.301   9.394   6.701  1.0818  0.1540  0.0488
55045SOL     OW72184   9.989   8.719   0.865  0.0700  0.4431  0.1440
55045SOL    HW172185   9.972   8.660   0.792  0.3177  1.4990 -0.7953
55045SOL    HW272186   9.925   8.694   0.931 -0.7717  0.0542 -0.7867
55046SOL     OW72187  11.975  10.513   5.721  0.1146 -1.0273  0.0998
55046SOL    HW172188  12.004  10.602   5.741 -1.1419 -0.2770 -1.1920
55046SOL    HW272189  11.894  10.525   5.672 -1.1691 -2.9419  1.5832
55047SOL     OW72190  11.910   7.463   4.712  0.0781  0.3263  0.4300
55047SOL    HW172191  11.864   7.534   4.669  0.0262  0.7388  1.1466
55047SOL    HW272192  11.990   7.503   4.746 -0.0007  0.0748  0.9278
55048SOL     OW72193  12.266   0.016   6.151 -0.1513 -0.0689  0.6585
55048SOL    HW172194  12.326  -0.026   6.212  1.0741  0.3550 -0.1906
55048SOL    HW272195  12.229  -0.056   6.100  1.6635 -0.2134 -0.5555
55049SOL     OW72196  11.841   6.234  10.720 -0.1237 -0.5519  0.3937
55049SOL    HW172197  11.756   6.224  10.676 -1.3906 -0.4728  2.6913
55049SOL    HW272198  11.902   6.187  10.663 -1.6923 -0.6639 -1.3082
55050SOL     OW72199   4.013   4.756   0.872  0.3556  0.1593 -0.7827
55050SOL    HW172200   3.999   4.675   0.822 -0.8783  0.9607 -1.7789
55050SOL    HW272201   4.108   4.762   0.881  0.5658 -0.5095 -2.2104
55051SOL     OW72202  11.379  10.781   1.695 -0.2888  0.9200  0.1461
55051SOL    HW172203  11.464  10.739   1.708  0.0177  1.4169 -0.2111
55051SOL    HW272204  11.388  10.868   1.734 -0.6998  0.9043  0.2846
55052SOL     OW72205   9.849   0.761   9.099  0.3460  0.9162  0.4634
55052SOL    HW172206   9.850   0.828   9.167 -0.6754  2.2272 -0.7461
55052SOL    HW272207   9.905   0.796   9.030 -0.9442  1.0043 -0.5845
55053SOL     OW72208  11.396   4.203   4.561 -0.1916  0.0606 -0.1036
55053SOL    HW172209  11.324   4.156   4.520  0.5588  0.0916 -1.4998
55053SOL    HW272210  11.463   4.136   4.574  0.4912  0.5199 -1.1655
55054SOL     OW72211   2.106   1.260  11.413 -0.5808  0.0008 -0.4402
55054SOL    HW172212   2.117   1.299  11.500 -1.6528  0.4749 -0.5000
55054SOL    HW272213   2.180   1.292  11.362 -0.0298 -0.1541  0.2503
55055SOL     OW72214   0.678   8.829   4.472 -0.5570  0.3771 -0.6754
55055SOL    HW172215   0.631   8.766   4.527 -0.8890  1.2784  0.1213
55055SOL    HW272216   0.759   8.784   4.447 -0.9153 -0.4598 -0.3702
55056SOL     OW72217   3.516   2.518   6.671  0.4368 -0.0916  0.1661
55056SOL    HW172218   3.575   2.449   6.640 -0.0553 -0.2316 -0.4953
55056SOL    HW272219   3.445   2.520   6.606 -0.3017  0.0533  0.9595
55057SOL     OW72220   8.562   9.318   1.288 -0.6363  0.2284  0.5988
55057SOL    HW172221   8.597   9.232   1.265 -2.6661 -0.1906 -1.1895
55057SOL    HW272222   8.550   9.314   1.383 -2.0017 -2.0474  0.4064
55058SOL     OW72223   1.487  11.347  10.345  0.3207  0.0091 -0.4169
55058SOL    HW172224   1.535  11.383  10.420 -0.0205  0.2417 -0.3109
55058SOL    HW272225   1.515  11.256  10.340 -1.3887 -0.6651  1.4007
55059SOL     OW72226   3.099   1.869   4.181 -0.5101 -0.2829  0.3278
55059SOL    HW172227   3.134   1.829   4.261  0.8751 -1.3762 -0.7727
55059SOL    HW272228   3.034   1.932   4.212  0.2159 -0.4561  2.3287
55060SOL     OW72229   6.104  11.072   0.708  0.1567 -0.4689 -0.2929
55060SOL    HW172230   6.174  11.070   0.773 -0.3294 -2.6994  0.2408
55060SOL    HW272231   6.034  11.122   0.749  1.0652  1.0142 -0.4826
55061SOL     OW72232   9.543  10.403   7.932  0.2368 -0.0819  0.0307
55061SOL    HW172233   9.508  10.487   7.902 -1.1211 -0.5663  0.1919
55061SOL    HW272234   9.623  10.426   7.980 -0.9104  1.2907  1.4035
55062SOL     OW72235   9.080   3.597  11.408 -0.2143 -0.0449 -0.6225
55062SOL    HW172236   8.993   3.635  11.393  1.2135  3.9454 -0.0764
55062SOL    HW272237   9.073   3.556  11.494 -1.7227 -0.4399 -0.8997
55063SOL     OW72238   2.779  11.971   2.881 -0.2043 -0.4829  0.0565
55063SOL    HW172239   2.767  12.046   2.823  0.3199 -1.4427 -1.3825
55063SOL    HW272240   2.694  11.926   2.879  0.2184 -1.2909 -1.1841
55064SOL     OW72241   9.683   7.705   9.377 -0.3173 -0.1320  0.3303
55064SOL    HW172242   9.741   7.754   9.320 -1.1445  0.9538  0.3921
55064SOL    HW272243   9.646   7.770   9.437 -1.6331 -0.7724  0.2493
55065SOL     OW72244  10.734   2.974   6.184  0.0621  0.0792  0.0277
55065SOL    HW172245  10.794   2.976   6.109 -0.1523  0.4000 -0.1383
55065SOL    HW272246  10.790   2.949   6.258  0.8291  2.2327  0.2412
55066SOL     OW72247  12.178   7.743   8.913  0.6940  0.2699  0.1709
55066SOL    HW172248  12.128   7.696   8.979  1.0716 -0.9652 -0.3897
55066SOL    HW272249  12.138   7.830   8.909 -1.4754 -0.6883 -0.3467
55067SOL     OW72250   5.921   7.414   9.783  0.2079 -0.2829  0.1144
55067SOL    HW172251   5.926   7.319   9.774 -1.3459 -0.2820 -1.3496
55067SOL    HW272252   5.863   7.428   9.858 -0.4683 -0.5189 -0.3573
55068SOL     OW72253   4.610  11.379  11.138 -0.9978 -0.0731  0.1141
55068SOL    HW172254   4.535  11.437  11.156 -0.1456  0.9510  0.4914
55068SOL    HW272255   4.635  11.401  11.048  2.0434  3.4926  1.5641
55069SOL     OW72256   0.477   3.875   2.350  0.4564  0.2989 -0.4743
55069SOL    HW172257   0.412   3.862   2.282 -1.1451  2.6778  0.4887
55069SOL    HW272258   0.471   3.968   2.373  2.5553  0.0892  1.2928
55070SOL     OW72259   3.271   5.279   2.970 -0.3971  0.5999  0.1551
55070SOL    HW172260   3.258   5.372   2.989  0.0017  1.0042 -1.3965
55070SOL    HW272261   3.363   5.271   2.947 -0.1332 -0.4325  1.4064
55071SOL     OW72262   1.255   1.463   4.654 -0.0628 -0.1590  0.0428
55071SOL    HW172263   1.292   1.541   4.613  0.6888 -0.6034 -0.1566
55071SOL    HW272264   1.180   1.495   4.704  1.7360  1.1390  2.1031
55072SOL     OW72265   9.027  11.319   9.962 -0.2290 -0.0934 -0.3126
55072SOL    HW172266   9.081  11.347  10.037  0.5191  0.1524 -0.9295
55072SOL    HW272267   9.014  11.398   9.910  0.4389 -0.5200 -1.1581
55073SOL     OW72268   2.120   6.468   6.382 -0.0016  0.0849 -0.5133
55073SOL    HW172269   2.041   6.485   6.330 -0.8692  0.4765  0.8878
55073SOL    HW272270   2.118   6.534   6.451  2.8536  1.6676 -1.7792
55074SOL     OW72271   6.093   0.862   7.232 -0.0483  0.5730  0.3483
55074SOL    HW172272   6.144   0.940   7.210  1.0030 -0.2806 -0.3144
55074SOL    HW272273   6.088   0.812   7.150 -1.8630  0.5710  0.4199
55075SOL     OW72274  11.365   5.303  12.393 -0.0137  0.0712  0.0270
55075SOL    HW172275  11.273   5.286  12.372  0.7533 -0.8742 -3.1587
55075SOL    HW272276  11.372   5.398  12.400 -1.2782  0.1289  0.7622
55076SOL     OW72277  11.586   3.203   3.802  0.0653  0.8369  0.2165
55076SOL    HW172278  11.515   3.205   3.739  0.7322  0.4380 -0.5624
55076SOL    HW272279  11.583   3.114   3.838 -0.3417  1.0769  0.7901
55077SOL     OW72280   2.575   1.331  10.113  0.0655 -0.4779  0.6660
55077SOL    HW172281   2.496   1.291  10.149  0.2237 -1.0190  0.4332
55077SOL    HW272282   2.550   1.359  10.025  0.1546 -0.7453  0.5525
55078SOL     OW72283   0.573   7.916   4.161 -0.7230 -1.1484  0.3738
55078SOL    HW172284   0.512   7.947   4.228 -1.5876 -0.3094 -0.7414
55078SOL    HW272285   0.546   7.963   4.082  3.3331  1.7868  0.4070
55079SOL     OW72286   9.702   5.113   5.202 -0.0176 -0.4584 -0.2334
55079SOL    HW172287   9.704   5.089   5.109  0.4294 -1.4838  0.0310
55079SOL    HW272288   9.631   5.062   5.239 -0.3333  0.1113 -0.0472
55080SOL     OW72289   1.398   4.021  10.569 -0.6113 -0.3764  0.3690
55080SOL    HW172290   1.316   4.035  10.522 -0.2688 -2.9637 -1.2075
55080SOL    HW272291   1.467   4.048  10.508 -0.2394 -0.1471  0.8775
55081SOL     OW72292   5.691  11.521   4.839 -0.7252 -0.9406  0.4642
55081SOL    HW172293   5.721  11.569   4.762  3.4897 -0.6363  2.0202
55081SOL    HW272294   5.670  11.434   4.806 -0.0504 -0.5313 -1.1685
55082SOL     OW72295  10.202   4.065   6.927  0.5249  0.1343 -0.5797
55082SOL    HW172296  10.204   4.014   6.846 -0.0330 -0.7205 -0.0637
55082SOL    HW272297  10.115   4.049   6.964  0.4481  1.2208 -0.2506
55083SOL     OW72298  12.041  10.546   7.541  0.4645 -0.1532  0.0305
55083SOL    HW172299  12.081  10.553   7.628 -1.6537  2.2914  0.9152
55083SOL    HW272300  11.976  10.477   7.550  0.0977  0.2437  0.4532
55084SOL     OW72301   6.512   4.745   5.079  0.4395  0.1753 -0.5087
55084SOL    HW172302   6.448   4.705   5.139  0.3259  1.2187  0.0906
55084SOL    HW272303   6.576   4.676   5.063 -0.4870 -0.6919 -0.6070
55085SOL     OW72304   9.252   2.390  10.718 -0.7231 -0.1821  0.3395
55085SOL    HW172305   9.251   2.414  10.625 -1.1433  0.4287  0.5023
55085SOL    HW272306   9.265   2.295  10.717  0.3357 -0.0571 -0.3196
55086SOL     OW72307  10.913   2.034   7.694  0.2629  0.2138 -0.3091
55086SOL    HW172308  10.840   1.982   7.662 -0.8805  0.8653  1.1143
55086SOL    HW272309  10.960   2.062   7.615  0.1947 -1.8838 -1.1546
55087SOL     OW72310   4.036   8.616   2.681 -0.0613  0.4341  0.2545
55087SOL    HW172311   4.024   8.704   2.647 -1.2255 -0.0551 -0.6871
55087SOL    HW272312   4.124   8.617   2.721  1.1946  1.2056 -2.3158
55088SOL     OW72313   7.844   2.917   9.180 -0.0678  0.1031 -0.2534
55088SOL    HW172314   7.889   2.978   9.121 -0.0145 -0.4564 -0.8147
55088SOL    HW272315   7.792   2.972   9.237 -0.7490  0.6373 -1.3519
55089SOL     OW72316   3.506   6.897   2.811 -0.5220  0.2207  1.3043
55089SOL    HW172317   3.578   6.958   2.795 -0.1641 -0.6735 -0.7540
55089SOL    HW272318   3.543   6.830   2.869  0.7792 -0.9746 -0.8146
55090SOL     OW72319   3.421   9.685  10.994 -0.2149 -0.7200 -0.4691
55090SOL    HW172320   3.330   9.712  10.994  0.2111  0.8796  0.3196
55090SOL    HW272321   3.470   9.766  10.978  1.0726 -1.3951 -0.0969
55091SOL     OW72322  11.082   2.251   3.998 -0.0408  0.6668  0.2561
55091SOL    HW172323  11.105   2.176   4.052 -0.3654  0.6035  0.3094
55091SOL    HW272324  11.014   2.296   4.047 -0.5231  0.4637 -0.2137
55092SOL     OW72325   5.727   6.362  12.165  0.6082  0.0851  0.3446
55092SOL    HW172326   5.670   6.331  12.235 -0.8146  0.2291 -0.7035
55092SOL    HW272327   5.668   6.376  12.090  2.2311 -1.2974 -1.2922
55093SOL     OW72328   8.776   7.644   1.096 -0.3305 -0.3916 -1.2981
55093SOL    HW172329   8.810   7.555   1.092  0.4805 -0.1353 -0.5741
55093SOL    HW272330   8.702   7.640   1.157  1.9683  0.0371  1.8063
55094SOL     OW72331  10.901   2.742   4.979 -0.0880 -0.7907  0.2536
55094SOL    HW172332  10.927   2.815   5.034 -1.0309 -0.9004  0.8820
55094SOL    HW272333  10.805   2.746   4.979 -0.1187 -1.2682 -0.7424
55095SOL     OW72334   8.556   0.279   5.208 -0.1369  0.2641  0.3267
55095SOL    HW172335   8.494   0.212   5.237  0.3692  0.3488  1.6565
55095SOL    HW272336   8.501   0.352   5.180 -0.6756 -0.4584 -0.5334
55096SOL     OW72337   4.182   9.404  10.995 -0.3956 -0.1672  0.1705
55096SOL    HW172338   4.090   9.396  10.970 -0.6141  1.7188  0.2224
55096SOL    HW272339   4.219   9.463  10.930  0.9848 -1.4887 -0.2827
55097SOL     OW72340  10.792   8.898   6.451 -0.6726 -0.2546  0.7181
55097SOL    HW172341  10.804   8.901   6.546 -0.9231 -0.8484  0.7726
55097SOL    HW272342  10.792   8.990   6.424  2.3955 -0.0821  0.9128
55098SOL     OW72343   3.952   6.338  12.191 -0.2225 -0.0171 -0.8216
55098SOL    HW172344   3.944   6.433  12.182 -0.5823  0.0446  0.1145
55098SOL    HW272345   3.862   6.307  12.202 -0.0236 -0.3489 -0.0653
55099SOL     OW72346   1.930   1.311   3.825 -0.5286 -0.0652 -0.3534
55099SOL    HW172347   1.941   1.292   3.918  0.0123  0.0425 -0.3880
55099SOL    HW272348   1.905   1.404   3.823 -2.1361 -0.4712 -0.2396
55100SOL     OW72349   9.416  10.646   7.670  0.4851 -0.3054  0.0858
55100SOL    HW172350   9.473  10.665   7.744  1.4630 -0.0357 -0.7181
55100SOL    HW272351   9.401  10.732   7.629  1.6254 -0.6851 -1.1991
55101SOL     OW72352   8.334   0.540  12.320 -0.0710 -0.4390  0.0074
55101SOL    HW172353   8.293   0.595  12.386 -0.6964  0.0157 -0.7491
55101SOL    HW272354   8.264   0.480  12.292  0.3166 -0.9372  0.0752
55102SOL     OW72355   1.725   8.264  12.290  0.0292 -0.0214 -0.2175
55102SOL    HW172356   1.753   8.344  12.246  1.2130 -0.6723 -0.6854
55102SOL    HW272357   1.695   8.207  12.220  0.4765 -0.4925 -0.0307
55103SOL     OW72358   5.702   8.379   6.246 -0.0509  0.1416 -0.4244
55103SOL    HW172359   5.781   8.405   6.293 -0.2482  1.3624 -0.7385
55103SOL    HW272360   5.726   8.385   6.154 -0.8014  1.6039 -0.5596
55104SOL     OW72361   8.832   8.643  11.874  0.1563 -0.3959  0.4918
55104SOL    HW172362   8.877   8.685  11.801 -1.8969 -0.0885 -0.6512
55104SOL    HW272363   8.798   8.716  11.926  0.7074 -0.6334  1.2042
55105SOL     OW72364   3.696  12.508   2.831  0.2433 -0.1348 -0.1653
55105SOL    HW172365   3.755  12.573   2.869  0.1185 -0.6782  1.0013
55105SOL    HW272366   3.617  12.514   2.884  0.0188 -0.8283 -0.4114
55106SOL     OW72367  10.658   6.573   3.098 -0.4402  0.0392 -0.1484
55106SOL    HW172368  10.616   6.606   3.019 -0.5364 -1.3693 -0.7209
55106SOL    HW272369  10.738   6.530   3.066 -0.2969 -0.2236  0.5564
55107SOL     OW72370   4.095   2.032   6.658 -0.0549 -0.9952 -0.2094
55107SOL    HW172371   4.132   1.988   6.581  0.6645 -1.4830  0.4033
55107SOL    HW272372   4.064   1.960   6.713 -0.3076 -0.6582  0.0911
55108SOL     OW72373   3.952   5.514   7.523 -0.2568 -0.1152 -0.0072
55108SOL    HW172374   3.888   5.479   7.461  0.4959 -0.6574 -0.4991
55108SOL    HW272375   3.915   5.493   7.609 -1.1874  0.4197 -0.2613
55109SOL     OW72376   4.787   3.518   0.203  0.2934  0.0833  0.4896
55109SOL    HW172377   4.767   3.560   0.286  2.5706  0.2336  1.0049
55109SOL    HW272378   4.797   3.425   0.224 -0.7946 -0.1647  0.0384
55110SOL     OW72379  10.132   2.443   0.358  0.0269  0.7359 -0.3581
55110SOL    HW172380  10.104   2.352   0.373  2.5623 -0.1239 -0.3630
55110SOL    HW272381  10.057   2.483   0.313 -1.9882 -0.7203  1.4415
55111SOL     OW72382   8.022   9.973   1.158  0.2945 -0.9189  0.0765
55111SOL    HW172383   8.016   9.978   1.063  0.4620 -0.1134  0.0987
55111SOL    HW272384   8.102  10.022   1.179  0.0842 -0.8209  0.6498
55112SOL     OW72385   2.033  11.822   9.846 -0.6045  0.4780  0.2700
55112SOL    HW172386   2.039  11.916   9.831 -1.8528  0.1911 -2.4403
55112SOL    HW272387   1.945  11.808   9.879 -0.5720  0.1945  0.2407
55113SOL     OW72388   0.785  10.565   4.095  0.8390  0.1279  0.2553
55113SOL    HW172389   0.777  10.565   4.190 -1.3010 -1.0524  0.1487
55113SOL    HW272390   0.710  10.616   4.064  0.6428 -0.7618 -0.8134
55114SOL     OW72391   0.137  10.063   7.740 -0.1092  0.8570  0.1421
55114SOL    HW172392   0.220  10.017   7.730 -1.2347 -1.0809 -1.1518
55114SOL    HW272393   0.161  10.152   7.765  2.2660  0.0066  1.1512
55115SOL     OW72394   9.881   6.519   0.991  0.3986  0.1234  0.1086
55115SOL    HW172395   9.966   6.499   0.951 -0.0177 -1.1501 -0.1854
55115SOL    HW272396   9.818   6.512   0.919  0.0315  1.1356  0.3037
55116SOL     OW72397  12.026   7.116   4.483  0.2922 -0.2833 -0.6335
55116SOL    HW172398  12.051   7.200   4.444 -0.5275  1.0261  1.5239
55116SOL    HW272399  11.934   7.105   4.459 -0.5660  1.1021  1.7148
55117SOL     OW72400   9.335   1.805   1.451 -0.0274  0.0828  0.2224
55117SOL    HW172401   9.271   1.839   1.513 -0.8152  0.4396 -0.7675
55117SOL    HW272402   9.306   1.716   1.432  0.0716  0.0618  0.1645
55118SOL     OW72403   1.599   9.072   2.696  0.2512 -0.0123  0.4450
55118SOL    HW172404   1.635   9.149   2.740 -0.8332  1.0187 -0.3823
55118SOL    HW272405   1.643   9.071   2.611  0.0643 -0.1439  0.3489
55119SOL     OW72406   3.819   9.026   2.227 -0.3673 -0.2420  0.1588
55119SOL    HW172407   3.736   9.071   2.215 -0.0046  0.9613  1.7069
55119SOL    HW272408   3.796   8.937   2.251 -1.1568 -0.3192 -0.8354
55120SOL     OW72409   0.522   8.862   7.025  0.2430 -0.2293  0.4554
55120SOL    HW172410   0.580   8.859   6.949  1.5139  0.6583  1.3512
55120SOL    HW272411   0.547   8.942   7.072 -1.6757  0.1656  0.9228
55121SOL     OW72412   6.013   3.314   8.163 -0.1009  0.2159 -0.0492
55121SOL    HW172413   6.099   3.277   8.182 -0.7392 -1.4180 -0.1651
55121SOL    HW272414   5.987   3.357   8.244  0.0033 -0.9813  0.6434
55122SOL     OW72415  10.882   2.771   8.585  0.6510 -0.2955  0.0581
55122SOL    HW172416  10.969   2.808   8.571 -0.5482  2.1312 -1.7671
55122SOL    HW272417  10.835   2.789   8.504 -1.5791 -1.5257  0.9808
55123SOL     OW72418   7.483   6.951  10.047 -0.4489  0.2516 -0.0911
55123SOL    HW172419   7.572   6.979  10.026 -0.6330 -0.5546 -2.2145
55123SOL    HW272420   7.427   7.021  10.014 -0.6879 -0.4592 -1.2706
55124SOL     OW72421   5.451  12.499   9.322  0.4024  0.0570 -0.3849
55124SOL    HW172422   5.413  12.562   9.384 -0.5049 -0.1898 -0.6855
55124SOL    HW272423   5.523  12.547   9.281 -1.4656  1.6499 -2.0386
55125SOL     OW72424   1.004   9.960  10.610 -0.0055  0.0594 -0.4376
55125SOL    HW172425   0.973   9.963  10.700 -1.2560  0.4572 -0.8646
55125SOL    HW272426   1.100   9.964  10.618 -0.1267  1.5203  0.8202
55126SOL     OW72427   3.004   4.197   1.780 -0.8512  0.2773  0.1125
55126SOL    HW172428   2.943   4.261   1.744 -0.2699 -0.4807 -2.4910
55126SOL    HW272429   2.972   4.113   1.748  1.0731 -0.2168 -0.7129
55127SOL     OW72430   9.218   9.463   1.763 -0.9960 -0.6169  0.4287
55127SOL    HW172431   9.207   9.504   1.677  1.6609 -0.1581  0.2256
55127SOL    HW272432   9.286   9.397   1.750 -1.1168 -1.0964  2.0196
55128SOL     OW72433   2.280   2.978   8.534  0.1335  0.4521 -0.9144
55128SOL    HW172434   2.251   2.923   8.461 -2.1276  0.9590 -0.4560
55128SOL    HW272435   2.265   3.068   8.505  1.2392  0.7580 -0.6126
55129SOL     OW72436   3.436   4.600   7.969  0.1379  0.3519 -0.1439
55129SOL    HW172437   3.356   4.652   7.960 -0.9854 -1.1052  1.0781
55129SOL    HW272438   3.480   4.638   8.045 -1.4906 -1.4104  1.7759
55130SOL     OW72439   8.544   8.949   9.642 -0.2317  0.4413  0.0476
55130SOL    HW172440   8.492   9.000   9.579 -1.2232  1.4319  1.5859
55130SOL    HW272441   8.544   9.003   9.721 -0.6529 -1.5954  1.5228
55131SOL     OW72442   1.478   3.834   8.038  0.1682  0.2259  0.2819
55131SOL    HW172443   1.559   3.853   7.991  0.6111  1.0976  1.3601
55131SOL    HW272444   1.440   3.759   7.992  2.1634 -0.9394  0.4506
55132SOL     OW72445  11.397   4.621   1.342  0.0488  0.1364  0.6980
55132SOL    HW172446  11.394   4.566   1.421 -2.1052  1.8107  1.9229
55132SOL    HW272447  11.389   4.710   1.376 -1.1608  0.8941 -1.4236
55133SOL     OW72448   4.309   8.799   3.759 -0.2916 -0.2805  0.1546
55133SOL    HW172449   4.249   8.871   3.778 -0.3208 -0.5620  1.2247
55133SOL    HW272450   4.357   8.827   3.681 -0.3437  0.8737  0.5171
55134SOL     OW72451   5.487   1.646   1.129 -0.4355 -0.1985 -0.3033
55134SOL    HW172452   5.474   1.736   1.099  1.7070 -0.3096 -1.8522
55134SOL    HW272453   5.400   1.607   1.126 -1.4010  1.7597  0.2994
55135SOL     OW72454   3.957   0.286   0.283 -0.5105  0.3219  0.1216
55135SOL    HW172455   3.995   0.373   0.282 -0.2031  0.1915 -1.0457
55135SOL    HW272456   3.865   0.299   0.260  0.0175  0.1640 -2.3168
55136SOL     OW72457   8.419  11.807   3.174  0.5981 -0.4261  0.4538
55136SOL    HW172458   8.448  11.717   3.159  2.5702 -0.1478  2.1416
55136SOL    HW272459   8.390  11.808   3.266 -0.1572  0.4861  0.2236
55137SOL     OW72460   1.610   1.803   4.464 -0.2085 -0.1165  0.7367
55137SOL    HW172461   1.660   1.807   4.382 -0.3135 -2.0241  0.5423
55137SOL    HW272462   1.628   1.887   4.507 -1.5797  1.7204 -2.0184
55138SOL     OW72463  11.837   9.327  11.798 -0.0422 -0.1933 -0.5369
55138SOL    HW172464  11.854   9.260  11.731  0.2124  0.1059 -0.7692
55138SOL    HW272465  11.909   9.318  11.860  0.6432  0.6459 -1.1872
55139SOL     OW72466   1.695   6.262   1.260  0.0462  0.1993  0.3352
55139SOL    HW172467   1.623   6.326   1.255 -0.7870 -0.7432 -0.1448
55139SOL    HW272468   1.665   6.198   1.324  0.8480  0.2471  0.7664
55140SOL     OW72469   4.485   3.977   5.340 -0.7964 -0.0723 -0.0750
55140SOL    HW172470   4.531   3.894   5.329 -0.5242  0.0024  0.5107
55140SOL    HW272471   4.427   3.982   5.263  0.9655  0.3730 -1.4344
55141SOL     OW72472   3.209   9.404   6.243  0.2423 -1.1094  0.1856
55141SOL    HW172473   3.124   9.382   6.281  0.9718 -0.2768  2.4748
55141SOL    HW272474   3.267   9.414   6.318  1.8689  0.4380 -1.1805
55142SOL     OW72475   8.384   7.939  12.511  0.8644  0.5812  0.4228
55142SOL    HW172476   8.332   8.017  12.489  1.3357  0.9413  0.5698
55142SOL    HW272477   8.357   7.917  12.600 -0.2068 -0.1965 -0.0609
55143SOL     OW72478   9.470  12.222  10.455 -0.5426  0.1239 -0.2810
55143SOL    HW172479   9.536  12.232  10.523 -2.0443  0.1977  1.2254
55143SOL    HW272480   9.450  12.128  10.455  0.3188 -0.0833 -1.5065
55144SOL     OW72481   9.318   6.818   5.605 -0.2997  0.0450 -0.2517
55144SOL    HW172482   9.386   6.834   5.540 -0.2070 -0.1889 -0.2128
55144SOL    HW272483   9.320   6.724   5.619 -0.5764  0.0484 -0.1895
55145SOL     OW72484  11.540   0.075  11.354  0.7270 -0.2511  0.1517
55145SOL    HW172485  11.589   0.072  11.271  1.4068 -0.8042  0.5590
55145SOL    HW272486  11.448   0.070  11.328  0.7425  2.3448 -0.7376
55146SOL     OW72487  10.899   8.359  11.076  0.9016 -0.4804 -0.2363
55146SOL    HW172488  10.938   8.326  11.158  1.4977  1.5626  0.3600
55146SOL    HW272489  10.907   8.454  11.082 -1.7704 -0.0913 -1.3417
55147SOL     OW72490   4.470   2.933  12.329  0.2250 -0.1984 -0.0172
55147SOL    HW172491   4.474   2.876  12.405  0.6695 -1.4758 -0.9708
55147SOL    HW272492   4.523   3.009  12.353  0.9376 -0.9041  0.6918
55148SOL     OW72493   9.764   9.232   1.076 -0.1987  0.7549 -0.7552
55148SOL    HW172494   9.746   9.289   1.001  0.0708  1.7242 -0.1112
55148SOL    HW272495   9.725   9.148   1.053  1.6574  0.3990 -2.8751
55149SOL     OW72496   7.537   2.165   1.107  0.1165  0.1167  0.1713
55149SOL    HW172497   7.605   2.150   1.041 -1.0839  0.1045 -1.0934
55149SOL    HW272498   7.498   2.079   1.121  0.4027  0.1091  0.9592
55150SOL     OW72499   3.510   0.671   9.619 -0.0494 -0.7416 -0.1827
55150SOL    HW172500   3.558   0.753   9.606 -0.4192 -0.4988 -0.0458
55150SOL    HW272501   3.419   0.692   9.598 -0.8837 -0.0685  3.3473
55151SOL     OW72502   9.922   7.027  11.683  1.2134 -0.2250  0.0557
55151SOL    HW172503   9.906   7.027  11.588  0.9386 -2.4542  0.0474
55151SOL    HW272504  10.013   7.054  11.692  0.2755  3.8236 -0.5002
55152SOL     OW72505  10.231  11.268   9.498 -0.3000 -0.1701  0.2990
55152SOL    HW172506  10.237  11.302   9.408  0.2728  2.3560  1.2227
55152SOL    HW272507  10.145  11.295   9.529  0.3590  0.9784  1.2199
55153SOL     OW72508   7.692   1.493  10.997 -0.3704 -0.0865 -0.4554
55153SOL    HW172509   7.752   1.558  11.034 -0.4551 -0.4035  0.2658
55153SOL    HW272510   7.724   1.409  11.031 -0.6704 -0.3474 -0.8149
55154SOL     OW72511  11.969   9.538   5.789 -0.3247  0.4477 -0.7669
55154SOL    HW172512  11.936   9.513   5.703  1.2260 -1.0831 -0.9692
55154SOL    HW272513  11.921   9.483   5.851 -1.7878  1.8897 -0.5645
55155SOL     OW72514   5.618   9.823  10.668  0.3226  0.4807 -0.2066
55155SOL    HW172515   5.644   9.768  10.594 -0.2819 -0.2074  0.0827
55155SOL    HW272516   5.579   9.763  10.731 -2.1998  1.4267 -0.7124
55156SOL     OW72517   6.482   2.845  11.991  0.4825  0.6084 -0.2776
55156SOL    HW172518   6.464   2.933  11.958 -1.1333  0.7721  0.9241
55156SOL    HW272519   6.402   2.819  12.037  1.0534 -1.3534 -0.2767
55157SOL     OW72520   5.472   4.688  10.790  0.1424 -0.0883  0.3900
55157SOL    HW172521   5.403   4.753  10.797 -0.8716 -0.7095 -2.5166
55157SOL    HW272522   5.553   4.738  10.802 -0.6472  1.4910 -0.5727
55158SOL     OW72523   2.481   0.186   5.779 -0.0087 -0.6692  0.7049
55158SOL    HW172524   2.387   0.204   5.768 -0.0141 -0.9551  0.2685
55158SOL    HW272525   2.489   0.154   5.869  0.1218  2.2752  1.8496
55159SOL     OW72526   7.393   8.435  11.499 -0.3382  0.1654  0.5854
55159SOL    HW172527   7.458   8.440  11.429 -1.1212 -0.3089 -0.1889
55159SOL    HW272528   7.344   8.517  11.492 -1.2788 -0.4548 -0.2954
55160SOL     OW72529   1.772   4.111   0.795  0.2850  0.5694  0.2282
55160SOL    HW172530   1.793   4.018   0.803 -1.1378 -0.1654 -3.0837
55160SOL    HW272531   1.856   4.153   0.779  0.6871 -0.5049 -0.5695
55161SOL     OW72532   6.020  10.015   2.640 -0.4313 -0.1981 -0.3930
55161SOL    HW172533   6.080   9.988   2.571  1.1055  1.4203  0.2379
55161SOL    HW272534   5.987  10.100   2.611 -2.3188 -0.9511 -0.6229
55162SOL     OW72535   2.314   1.487   3.848  0.2964 -0.1346 -0.1769
55162SOL    HW172536   2.325   1.577   3.815  1.2131 -0.4044 -0.6537
55162SOL    HW272537   2.280   1.438   3.773  1.0106 -0.4460 -0.3056
55163SOL     OW72538   5.472   4.425   0.403  0.7049 -0.4299 -0.0257
55163SOL    HW172539   5.400   4.488   0.399 -0.0611 -1.2367  0.7262
55163SOL    HW272540   5.463   4.373   0.322  1.1156  0.1646 -0.4646
55164SOL     OW72541  10.207   2.034   6.583  0.5204 -0.3470  0.5025
55164SOL    HW172542  10.164   2.067   6.662  1.2110  0.3446  0.6121
55164SOL    HW272543  10.256   2.110   6.550  0.2695 -0.6369 -0.5743
55165SOL     OW72544   9.348   8.051   9.545  0.2403 -0.0094  0.3083
55165SOL    HW172545   9.344   8.091   9.458 -2.0531  0.0678  0.3961
55165SOL    HW272546   9.348   7.957   9.528  0.5882  0.0010  0.2296
55166SOL     OW72547   0.382   7.429   7.759 -0.1514  0.0879 -0.0839
55166SOL    HW172548   0.446   7.496   7.738 -1.5534  1.0963 -1.3492
55166SOL    HW272549   0.300   7.477   7.771 -1.2950 -1.3980 -1.4807
55167SOL     OW72550  10.592  11.722   3.322  0.2245  0.2357  0.1610
55167SOL    HW172551  10.564  11.682   3.240 -0.0020 -0.1111  0.4115
55167SOL    HW272552  10.584  11.816   3.306 -1.9683  0.1526  0.5360
55168SOL     OW72553   3.574  10.347   4.593  0.5223 -0.5763 -0.0882
55168SOL    HW172554   3.628  10.408   4.543 -0.7238 -0.9018 -1.8975
55168SOL    HW272555   3.611  10.261   4.573  1.9047 -0.5366  1.9952
55169SOL     OW72556  10.951   5.061   2.788 -0.1343 -0.2831  0.4408
55169SOL    HW172557  10.994   5.137   2.828  1.2862 -1.6234  1.5922
55169SOL    HW272558  10.961   4.992   2.853 -2.1989 -1.2432 -0.1975
55170SOL     OW72559   0.349   9.730  10.911  0.3488  0.0026 -0.0146
55170SOL    HW172560   0.383   9.664  10.971 -1.2056  0.1259  1.0681
55170SOL    HW272561   0.284   9.778  10.963  1.1952  2.1775 -0.8535
55171SOL     OW72562   6.090   1.138   0.077 -0.1545  0.1512 -0.3779
55171SOL    HW172563   6.014   1.190   0.053 -0.7509 -0.6304 -0.2163
55171SOL    HW272564   6.105   1.081   0.002 -0.7967 -0.8995  0.2809
55172SOL     OW72565   1.484   5.065  11.332  0.4001 -0.2473 -0.4028
55172SOL    HW172566   1.444   4.979  11.343  1.9869 -0.9768 -0.0385
55172SOL    HW272567   1.568   5.059  11.378  0.7518  1.3481 -0.7573
55173SOL     OW72568  11.296   0.632   8.441  0.6740  0.0412  0.1717
55173SOL    HW172569  11.317   0.588   8.524  1.3475 -0.8905 -0.4710
55173SOL    HW272570  11.371   0.690   8.426  0.4224  0.4129  0.3466
55174SOL     OW72571   0.624   8.290   3.645 -0.1903 -0.3156  0.3884
55174SOL    HW172572   0.639   8.372   3.691 -0.6565 -0.1133  0.1883
55174SOL    HW272573   0.531   8.293   3.619  0.1931 -0.1599 -1.0556
55175SOL     OW72574   1.610   6.455   4.478  0.2851 -0.1565  0.3062
55175SOL    HW172575   1.536   6.503   4.514  1.1083  1.1651  0.2911
55175SOL    HW272576   1.615   6.484   4.387  0.0527 -1.2233 -0.0677
55176SOL     OW72577   3.780   5.070   9.608 -0.4149  0.6353  0.3554
55176SOL    HW172578   3.826   5.110   9.682  0.8102  1.6901 -0.9332
55176SOL    HW272579   3.818   4.983   9.600 -0.5559  0.5107  0.9494
55177SOL     OW72580  12.024   2.142   9.629 -0.7403  0.6061  0.0459
55177SOL    HW172581  12.094   2.082   9.655 -1.0746  0.1106 -0.1593
55177SOL    HW272582  11.947   2.085   9.620 -0.9723  1.0068 -0.5414
55178SOL     OW72583   6.487   8.747   8.355  0.3797 -0.0818  0.0375
55178SOL    HW172584   6.507   8.835   8.387 -0.0974 -0.4316  1.3637
55178SOL    HW272585   6.420   8.714   8.416 -0.1231 -1.0146 -0.9864
55179SOL     OW72586   2.488   4.775   1.711 -0.5430 -0.0142  0.0148
55179SOL    HW172587   2.428   4.818   1.650 -1.4320 -0.0458  0.8295
55179SOL    HW272588   2.491   4.684   1.681 -1.1172 -0.0729  0.1127
55180SOL     OW72589   9.119   3.536   3.695  0.2899  0.1287  0.2041
55180SOL    HW172590   9.127   3.456   3.643 -0.2338  0.7683 -0.8945
55180SOL    HW272591   9.209   3.556   3.722  0.4411 -0.7550  0.3853
55181SOL     OW72592   4.558   3.162   0.112  0.4718 -0.3419 -0.4629
55181SOL    HW172593   4.595   3.178   0.199 -0.2681  0.8107 -0.3285
55181SOL    HW272594   4.496   3.091   0.126  1.4737 -1.2306 -0.3826
55182SOL     OW72595   9.948   6.261   5.034 -0.1905 -0.0698 -0.4461
55182SOL    HW172596   9.949   6.202   4.959 -0.9493  0.1144 -0.6172
55182SOL    HW272597   9.923   6.346   4.997 -1.7945 -0.2391  0.1685
55183SOL     OW72598  12.263  11.421   0.991  0.6581  0.6997 -0.0018
55183SOL    HW172599  12.351  11.458   1.000  1.4482 -1.1867  0.6677
55183SOL    HW272600  12.253  11.365   1.069 -2.1947  2.8489  1.3507
55184SOL     OW72601  10.021   3.422   2.111  0.3816 -0.1810  0.8824
55184SOL    HW172602   9.939   3.469   2.092  0.6139 -0.3568 -0.6042
55184SOL    HW272603  10.034   3.435   2.205 -0.5759  1.1006  0.8640
55185SOL     OW72604   9.437   1.245  12.256  0.1504  0.5769  0.0252
55185SOL    HW172605   9.367   1.249  12.320  0.5844  0.4954  0.5124
55185SOL    HW272606   9.455   1.151  12.246 -0.7021  0.5147 -1.0927
55186SOL     OW72607   5.016   1.964   5.059 -0.1795  0.0123 -0.2318
55186SOL    HW172608   5.067   1.957   4.979  2.7673  0.8653  1.4149
55186SOL    HW272609   5.014   1.875   5.094  3.1487  0.3708  1.2420
55187SOL     OW72610   8.628   2.909  11.394 -0.4861  0.4325 -0.4718
55187SOL    HW172611   8.667   2.825  11.370 -1.2111 -0.0810  0.1122
55187SOL    HW272612   8.688   2.974  11.358  0.9537 -0.3297  0.4548
55188SOL     OW72613   0.287   6.490   3.018 -0.0093  0.3746  0.0313
55188SOL    HW172614   0.237   6.409   3.006  0.6930 -0.1513  0.5846
55188SOL    HW272615   0.371   6.472   2.977 -0.3491  1.3748 -1.1974
55189SOL     OW72616  11.431   3.644  11.168  0.6563 -0.1613  0.3082
55189SOL    HW172617  11.519   3.624  11.200  0.0618 -0.4076  1.8791
55189SOL    HW272618  11.372   3.595  11.225 -0.5142 -0.2548 -0.9058
55190SOL     OW72619   3.400   6.809   2.553 -0.1769 -0.2696  0.2835
55190SOL    HW172620   3.445   6.767   2.626 -1.6076 -0.8874  0.8561
55190SOL    HW272621   3.443   6.775   2.474 -0.1508 -1.4387  0.7906
55191SOL     OW72622   6.372   7.779  10.432  0.4571  0.1783 -0.0372
55191SOL    HW172623   6.285   7.814  10.413 -0.5852 -1.3577  1.5190
55191SOL    HW272624   6.402   7.742  10.348 -1.6922 -1.8002 -0.0393
55192SOL     OW72625   1.846  10.732   6.926 -0.0499  0.1284 -0.0374
55192SOL    HW172626   1.843  10.819   6.886 -0.2965  0.1223 -0.0338
55192SOL    HW272627   1.808  10.745   7.013  0.8078  0.2160  0.3408
55193SOL     OW72628   1.465   9.952   7.362 -0.6344 -0.1403 -0.0989
55193SOL    HW172629   1.524  10.006   7.309  0.5814  0.6471  1.9352
55193SOL    HW272630   1.449  10.004   7.441 -1.8058 -1.5478  0.6451
55194SOL     OW72631   3.764   3.178  12.047 -0.3205 -0.1195  0.4075
55194SOL    HW172632   3.745   3.102  11.991 -0.7027  0.0656  0.2866
55194SOL    HW272633   3.858   3.193  12.035 -0.3998 -0.0819 -0.1821
55195SOL     OW72634   1.516  10.573   0.718 -0.0858 -0.3901 -0.8878
55195SOL    HW172635   1.589  10.605   0.665 -0.8049 -0.4636 -1.9750
55195SOL    HW272636   1.480  10.500   0.666  0.9920 -2.4533  1.1087
55196SOL     OW72637   1.825   9.581   3.885 -0.3191  0.3511 -0.0420
55196SOL    HW172638   1.852   9.554   3.797 -1.5262  0.8548 -0.5937
55196SOL    HW272639   1.888   9.540   3.943  0.7298  0.3201 -1.1698
55197SOL     OW72640   1.207   9.810   1.712  0.3834  0.6286  0.0496
55197SOL    HW172641   1.174   9.722   1.693 -0.4900  1.2463 -1.4608
55197SOL    HW272642   1.129   9.862   1.730  0.6681  1.6150 -1.4301
55198SOL     OW72643   2.883  10.252   9.700 -0.1073 -0.2451  0.2134
55198SOL    HW172644   2.918  10.279   9.615 -1.5842  0.7125 -0.1278
55198SOL    HW272645   2.878  10.157   9.695 -1.5108 -0.1344 -1.3523
55199SOL     OW72646   8.505   3.874   2.758 -0.0979 -0.3753  0.1629
55199SOL    HW172647   8.515   3.965   2.786  2.2511 -1.0933  1.9915
55199SOL    HW272648   8.582   3.857   2.705 -0.8448 -1.1702 -0.7112
55200SOL     OW72649   1.031   8.656   8.245 -0.4162  0.6055 -0.5315
55200SOL    HW172650   1.001   8.741   8.276 -0.0802  0.1224  1.1793
55200SOL    HW272651   0.958   8.597   8.263  0.1853  0.1136  0.3282
55201SOL     OW72652  12.444   4.313   2.898 -0.3851 -0.8887  0.5537
55201SOL    HW172653  12.485   4.240   2.850 -1.4961 -0.5128 -1.0728
55201SOL    HW272654  12.478   4.391   2.855 -2.3555 -0.5636 -0.5351
55202SOL     OW72655   6.083  10.485   3.816  0.0214  0.2799 -0.5177
55202SOL    HW172656   6.157  10.511   3.871 -1.2517  0.3075  1.2826
55202SOL    HW272657   6.091  10.390   3.808  0.9936  0.4298 -1.5067
55203SOL     OW72658   2.117   3.627   9.743 -0.8124 -0.2609 -0.1301
55203SOL    HW172659   2.100   3.638   9.837 -0.0654  1.9505 -0.1966
55203SOL    HW272660   2.129   3.716   9.710  1.3218 -1.1086 -1.8722
55204SOL     OW72661   6.296   0.695   2.676 -0.1067 -0.1538  0.3113
55204SOL    HW172662   6.271   0.649   2.756  3.3914 -0.9792  1.0898
55204SOL    HW272663   6.250   0.648   2.606 -0.9426 -1.2634  1.5609
55205SOL     OW72664   7.030  10.966  12.133 -0.2389  0.1560  0.6067
55205SOL    HW172665   7.025  11.008  12.218 -1.4422  0.4481  0.4076
55205SOL    HW272666   7.114  10.920  12.134  0.7357  1.8631  1.1431
55206SOL     OW72667   6.173  11.074   0.148 -0.3704  0.7474 -1.0096
55206SOL    HW172668   6.255  11.026   0.131 -0.4624  0.5246 -0.8250
55206SOL    HW272669   6.183  11.106   0.238 -0.7077  0.2696 -0.7963
55207SOL     OW72670   3.354   1.195   4.540 -0.1845 -0.1795 -0.2789
55207SOL    HW172671   3.431   1.245   4.565  0.0408 -0.0057 -1.2788
55207SOL    HW272672   3.306   1.183   4.622  1.3123 -1.0308  0.5178
55208SOL     OW72673   0.951   0.088   0.691 -0.0144 -0.0170 -0.7425
55208SOL    HW172674   1.037   0.050   0.707 -0.0670 -0.0719 -0.5965
55208SOL    HW272675   0.897   0.015   0.662 -0.2913 -0.1796  0.1674
55209SOL     OW72676   0.489  10.626   9.629  0.0144 -0.4690  0.2489
55209SOL    HW172677   0.519  10.648   9.717  0.2061 -2.3203  0.6726
55209SOL    HW272678   0.567  10.592   9.585  0.3110  1.8242 -1.1912
55210SOL     OW72679   1.334   1.221   5.335 -0.1747 -0.4464  0.3492
55210SOL    HW172680   1.430   1.224   5.336 -0.1730  3.1287 -0.3511
55210SOL    HW272681   1.309   1.251   5.422 -0.5734  1.8635 -0.5037
55211SOL     OW72682   1.257   3.246  12.439 -0.3070 -0.7328  0.2570
55211SOL    HW172683   1.227   3.161  12.472  3.3106 -1.8520  1.1057
55211SOL    HW272684   1.341   3.261  12.483 -0.1148  2.6419 -0.9508
55212SOL     OW72685   6.860  12.082  11.599 -0.3699 -0.0060 -0.3322
55212SOL    HW172686   6.896  11.994  11.610  0.1659  0.1999 -0.3986
55212SOL    HW272687   6.898  12.133  11.671 -0.9232  0.0947 -0.1100
55213SOL     OW72688   8.183   2.703   4.796 -0.0920  0.3243  0.1123
55213SOL    HW172689   8.215   2.662   4.876  0.1529 -1.2954 -0.7734
55213SOL    HW272690   8.253   2.761   4.768  0.9931 -1.1589 -0.3540
55214SOL     OW72691  12.163   4.477   2.595  0.1722 -0.1929  0.0035
55214SOL    HW172692  12.109   4.529   2.654 -0.7579 -0.4032 -0.6341
55214SOL    HW272693  12.156   4.388   2.628 -1.2206 -0.4939 -0.9933
55215SOL     OW72694   2.212   8.721   4.409 -0.4277  0.4937 -0.7829
55215SOL    HW172695   2.129   8.682   4.436  0.6453 -0.6175  1.1663
55215SOL    HW272696   2.248   8.658   4.346  0.0264 -0.3021  0.2442
55216SOL     OW72697   3.811   4.910  11.697  0.4575 -0.3853  0.5280
55216SOL    HW172698   3.817   4.975  11.767 -0.9755 -0.4479  0.7459
55216SOL    HW272699   3.742   4.850  11.726  1.3703 -1.6913  0.0677
55217SOL     OW72700   8.688   5.534   9.089 -0.7997 -0.4226  0.0819
55217SOL    HW172701   8.782   5.544   9.070 -0.8223 -1.1003 -0.4309
55217SOL    HW272702   8.673   5.590   9.166  0.1218 -0.6688  0.4572
55218SOL     OW72703   2.492   5.580  12.568 -0.0207 -0.7223 -0.3046
55218SOL    HW172704   2.565   5.616  12.517  0.2824 -0.7433  0.1106
55218SOL    HW272705   2.414   5.615  12.526  0.2728  1.0569  0.5475
55219SOL     OW72706   9.292   9.769   6.095  0.2553 -0.5481  0.7011
55219SOL    HW172707   9.230   9.748   6.165 -1.3144 -0.2549 -0.5601
55219SOL    HW272708   9.242   9.820   6.032  1.5196 -1.1271 -0.8430
55220SOL     OW72709   2.780   7.242   3.404  0.2682  0.1463  0.3092
55220SOL    HW172710   2.725   7.192   3.464  0.7405  0.1385  0.7427
55220SOL    HW272711   2.754   7.213   3.317  0.2603 -0.5584  0.5422
55221SOL     OW72712  11.352   2.153   1.035 -0.0062  0.3072 -0.4001
55221SOL    HW172713  11.410   2.195   0.972 -0.5079 -1.0275 -1.8064
55221SOL    HW272714  11.396   2.071   1.057  0.3531  0.9200  1.3364
55222SOL     OW72715   8.039   3.936   6.346 -0.1232 -0.0983  0.3478
55222SOL    HW172716   8.091   3.940   6.426  1.1620  0.3146 -0.4753
55222SOL    HW272717   8.005   3.846   6.344 -0.2828 -0.0687  1.4083
55223SOL     OW72718   8.259   9.622   6.399 -0.0458  0.7954  0.0724
55223SOL    HW172719   8.221   9.710   6.398  0.1821  0.8978  0.4248
55223SOL    HW272720   8.218   9.578   6.325  0.1707  1.3375 -0.3823
55224SOL     OW72721  11.721   8.001   8.775 -0.5768 -0.2694 -0.0205
55224SOL    HW172722  11.788   8.064   8.802 -1.1289 -0.1061  1.0281
55224SOL    HW272723  11.670   8.047   8.709 -1.3112  0.6180  1.1214
55225SOL     OW72724   3.620  10.910   7.955  0.2514 -0.4520  0.3155
55225SOL    HW172725   3.571  10.838   7.994 -0.5763 -0.9194 -1.4748
55225SOL    HW272726   3.711  10.894   7.979 -0.1779 -0.8650  1.7527
55226SOL     OW72727   3.846   3.557   3.078  0.1403 -0.4252 -0.5981
55226SOL    HW172728   3.893   3.578   2.997  0.5954 -1.8966 -0.7482
55226SOL    HW272729   3.896   3.485   3.116 -0.2457  0.0468  0.8487
55227SOL     OW72730   9.270   8.021   5.383  0.0679 -0.2639  0.1837
55227SOL    HW172731   9.304   8.072   5.455 -0.7015  0.9634 -0.2865
55227SOL    HW272732   9.218   7.952   5.425  0.8251 -0.4635  0.8160
55228SOL     OW72733   8.300   9.290   9.031 -0.1165 -0.2591 -0.5732
55228SOL    HW172734   8.351   9.325   9.103 -0.9083 -3.4725  1.7464
55228SOL    HW272735   8.221   9.344   9.029  0.1666  0.2160  0.5533
55229SOL     OW72736   1.118   5.506   4.386 -0.6539  0.5216 -0.3887
55229SOL    HW172737   1.034   5.539   4.354 -0.7296 -0.6519 -1.4540
55229SOL    HW272738   1.102   5.482   4.477 -1.0765  1.6297 -0.1513
55230SOL     OW72739   6.759  10.405   3.368 -0.4577 -0.9423 -0.2111
55230SOL    HW172740   6.765  10.359   3.285  1.4799  0.4079 -0.8851
55230SOL    HW272741   6.795  10.343   3.432  0.3918 -1.0856 -0.8058
55231SOL     OW72742   7.773   6.950   0.976  0.0133 -0.0027  0.6491
55231SOL    HW172743   7.680   6.968   0.994 -0.3614  0.2157 -1.3452
55231SOL    HW272744   7.819   7.023   1.016 -0.8360  0.9222 -0.0181
55232SOL     OW72745  10.739   3.647  11.214  0.1958 -0.5453 -0.3346
55232SOL    HW172746  10.753   3.587  11.140 -1.5796 -2.7362  0.9895
55232SOL    HW272747  10.645   3.643  11.231  0.7062 -1.2615  2.9264
55233SOL     OW72748   4.911   0.778   2.915  0.5406  0.0944  0.1667
55233SOL    HW172749   4.969   0.751   2.987  0.2999  0.0032  0.3271
55233SOL    HW272750   4.842   0.712   2.913  0.1570  0.4862  0.3149
55234SOL     OW72751   7.993  10.861   2.143 -0.6230 -0.4912 -0.4144
55234SOL    HW172752   8.086  10.879   2.127 -0.4479  1.3249  2.0501
55234SOL    HW272753   7.989  10.765   2.149  1.0982 -0.6140 -0.4947
55235SOL     OW72754  12.160   7.123  11.702  0.0958  0.2421  0.4480
55235SOL    HW172755  12.236   7.094  11.651  0.2586 -0.8712  1.2910
55235SOL    HW272756  12.149   7.056  11.769 -0.8237  1.0849  1.1680
55236SOL     OW72757   9.332   0.618   2.553 -0.4434  0.3972  0.6746
55236SOL    HW172758   9.320   0.654   2.465 -0.5816 -1.4005 -0.0890
55236SOL    HW272759   9.257   0.560   2.566 -0.4104  0.6097  1.9811
55237SOL     OW72760  11.999   2.547   6.556 -0.3534  0.6740 -0.1411
55237SOL    HW172761  12.049   2.536   6.637  1.3642 -0.1610 -1.2335
55237SOL    HW272762  11.930   2.481   6.561  0.2750  0.0333  0.2755
55238SOL     OW72763   9.221   5.954   8.133 -0.4738 -0.5568  0.0740
55238SOL    HW172764   9.185   5.983   8.217 -0.1193  0.7925 -0.2182
55238SOL    HW272765   9.167   5.879   8.108 -2.1449  0.5167  0.3332
55239SOL     OW72766   2.214   6.815   7.311  0.2395 -0.2465  0.4186
55239SOL    HW172767   2.171   6.793   7.394  0.3827 -0.5625  0.4082
55239SOL    HW272768   2.151   6.790   7.244  0.4835 -0.8124  0.3989
55240SOL     OW72769   7.138   8.819   7.566  0.4245  0.1928  0.5498
55240SOL    HW172770   7.185   8.881   7.623  0.1822  1.7971 -0.9152
55240SOL    HW272771   7.206   8.783   7.510  0.1617  1.7151 -0.8479
55241SOL     OW72772   3.988   7.173   3.854 -0.8516 -0.2204 -0.2290
55241SOL    HW172773   4.056   7.121   3.811  0.6794  0.9285  0.7012
55241SOL    HW272774   3.988   7.256   3.807  0.8394  1.0551  1.8360
55242SOL     OW72775   8.917  10.428   7.685  0.7390 -0.4646  0.3133
55242SOL    HW172776   8.849  10.402   7.623  1.0659 -0.2823 -0.1270
55242SOL    HW272777   8.870  10.446   7.766  0.1431  0.5824 -0.2465
55243SOL     OW72778   8.314   8.431  12.024  0.4022 -0.1480  0.1267
55243SOL    HW172779   8.272   8.509  12.062  0.1885  0.0070 -0.4156
55243SOL    HW272780   8.407   8.448  12.030  0.3717 -0.1088  0.5420
55244SOL     OW72781   9.977   9.899  12.340 -0.3168  0.2594  0.0265
55244SOL    HW172782   9.889   9.925  12.310 -0.4257 -1.8409 -1.6932
55244SOL    HW272783  10.035   9.930  12.271 -0.2889 -2.4313 -1.2908
55245SOL     OW72784   8.011   7.424  10.566  0.5215 -0.0793 -0.0154
55245SOL    HW172785   7.996   7.450  10.657  2.8296  0.8734  0.1733
55245SOL    HW272786   7.925   7.432  10.524 -0.1680  1.5920  1.5759
55246SOL     OW72787   4.157   5.561   1.195 -0.0125 -0.2226 -0.6158
55246SOL    HW172788   4.197   5.501   1.132 -0.8111  0.3933 -1.7408
55246SOL    HW272789   4.098   5.506   1.246  0.1562 -0.6157 -0.8411
55247SOL     OW72790   5.862   4.666   2.847  0.0510  1.0833  0.3472
55247SOL    HW172791   5.830   4.754   2.830 -1.8622  0.5765  1.0842
55247SOL    HW272792   5.784   4.615   2.867  1.1578 -0.6806  0.4293
55248SOL     OW72793   0.299  11.482   5.080 -0.4894  0.0930 -0.1394
55248SOL    HW172794   0.392  11.471   5.099 -0.3776  1.8566  0.5540
55248SOL    HW272795   0.276  11.406   5.027  0.3641 -2.5490  2.9423
55249SOL     OW72796  11.833   9.760   6.088  0.1927  0.3317  0.1713
55249SOL    HW172797  11.815   9.666   6.088  0.6439  0.2416  0.1961
55249SOL    HW272798  11.777   9.796   6.157  1.2666 -0.1744  1.3431
55250SOL     OW72799  11.078   5.328   0.018 -0.9847 -0.3984 -0.3583
55250SOL    HW172800  11.061   5.345  -0.074  0.0717 -0.5414 -0.5888
55250SOL    HW272801  11.036   5.400   0.064  1.6436  1.7999 -1.1848
55251SOL     OW72802   7.676   6.399   6.026 -0.3313  0.4611  0.2709
55251SOL    HW172803   7.674   6.495   6.024  2.3668  0.5700  0.1378
55251SOL    HW272804   7.743   6.375   5.962  0.4762 -1.4025  1.7337
55252SOL     OW72805   5.063   8.000   4.444 -0.2451 -0.6253 -0.6122
55252SOL    HW172806   5.074   7.924   4.502 -1.6094 -1.3114 -1.2150
55252SOL    HW272807   4.986   8.045   4.478 -0.3448 -0.3627 -1.1847
55253SOL     OW72808  11.905   0.928   2.102  0.5271  0.2734 -0.1401
55253SOL    HW172809  11.944   0.892   2.182  1.0509  0.4248 -0.3250
55253SOL    HW272810  11.881   1.017   2.126  0.3334  0.1943 -0.0382
55254SOL     OW72811   9.231   7.002  12.390 -0.7783 -0.6422  0.0057
55254SOL    HW172812   9.279   7.057  12.451  0.3228 -2.2730  0.6702
55254SOL    HW272813   9.139   7.016  12.412 -0.5418  0.9170  0.1294
55255SOL     OW72814   7.716  10.937   5.623 -0.5095 -0.1833 -0.0880
55255SOL    HW172815   7.648  10.876   5.596 -0.5486  0.2618 -1.0339
55255SOL    HW272816   7.705  11.012   5.565 -0.6643  0.8683  1.2710
55256SOL     OW72817   0.338   5.505   6.539  0.2069 -0.1725 -0.5408
55256SOL    HW172818   0.327   5.592   6.500 -0.2571 -0.0205 -0.0754
55256SOL    HW272819   0.403   5.517   6.608 -0.8281  0.1010  0.4198
55257SOL     OW72820   9.111   1.591   4.804 -0.2624 -0.3614  0.2217
55257SOL    HW172821   9.129   1.683   4.783 -0.2146 -0.3771  0.1931
55257SOL    HW272822   9.096   1.591   4.898  0.5269 -0.4450  0.3564
55258SOL     OW72823  11.676  11.353   9.563  0.0477 -0.1543  0.2381
55258SOL    HW172824  11.677  11.378   9.656 -0.9631 -2.4415  0.9238
55258SOL    HW272825  11.750  11.293   9.554 -1.1095 -1.5803  0.0852
55259SOL     OW72826   3.728   1.256   6.436  0.1206 -0.1013  0.5732
55259SOL    HW172827   3.777   1.197   6.493 -0.8350 -0.6337  0.8614
55259SOL    HW272828   3.671   1.305   6.495  0.1104  0.3273  0.2163
55260SOL     OW72829   4.071   1.202  12.029  0.0348 -0.8469  0.0585
55260SOL    HW172830   4.076   1.242  11.942 -1.0650  0.3258  0.5056
55260SOL    HW272831   4.146   1.143  12.032  0.3573 -0.5731 -1.5151
55261SOL     OW72832   1.980   1.391  10.298  0.1918  0.2123  0.2569
55261SOL    HW172833   1.960   1.306  10.259  1.2299  0.3320 -0.5988
55261SOL    HW272834   1.912   1.404  10.365 -2.5490  0.5868 -2.3598
55262SOL     OW72835   7.696  10.193   6.316 -0.1618  0.0556  0.5618
55262SOL    HW172836   7.623  10.227   6.264  0.3508 -1.0959 -0.9693
55262SOL    HW272837   7.666  10.199   6.407 -2.6632 -1.4583 -0.0814
55263SOL     OW72838   9.583  11.220   3.658 -0.0248 -0.0554 -0.3729
55263SOL    HW172839   9.528  11.247   3.584 -0.7357 -1.9071 -0.5849
55263SOL    HW272840   9.671  11.215   3.622 -0.1905  0.1049 -0.8104
55264SOL     OW72841   2.196   7.143   7.221  0.0986 -0.5282 -0.6057
55264SOL    HW172842   2.242   7.062   7.199  2.5137  1.0301 -1.7572
55264SOL    HW272843   2.173   7.133   7.314  3.2594 -1.2963  0.2082
55265SOL     OW72844   0.135   3.272   9.789 -0.3359 -0.0835  0.0276
55265SOL    HW172845   0.176   3.207   9.847  0.7623 -0.1083 -0.7334
55265SOL    HW272846   0.041   3.263   9.805 -0.1752 -1.4706  0.3447
55266SOL     OW72847   7.517  11.813   9.856  0.0253 -0.5174  0.0230
55266SOL    HW172848   7.516  11.753   9.931 -1.5961 -1.1029 -0.4358
55266SOL    HW272849   7.480  11.763   9.784  0.8941  0.2721 -1.0118
55267SOL     OW72850   0.575   1.844   3.987  0.6071 -0.7611 -0.0695
55267SOL    HW172851   0.630   1.768   3.969  0.7399 -0.9394  1.0190
55267SOL    HW272852   0.495   1.808   4.025 -0.8406 -0.6046 -2.7044
55268SOL     OW72853   0.572  10.283  11.971  0.3541  0.3115 -0.2903
55268SOL    HW172854   0.556  10.315  12.060 -2.6176 -0.3182 -0.4948
55268SOL    HW272855   0.659  10.243  11.974  0.4369  0.5742  2.2509
55269SOL     OW72856   5.494   8.367   9.637  0.2002 -0.0773  0.6987
55269SOL    HW172857   5.505   8.441   9.578  0.6094  0.2975  1.2333
55269SOL    HW272858   5.465   8.295   9.580  0.0452  0.4188  0.1376
55270SOL     OW72859   5.407   6.827   1.965 -0.8084  0.2449 -0.2280
55270SOL    HW172860   5.414   6.820   2.060 -0.4075 -1.7907 -0.3521
55270SOL    HW272861   5.313   6.815   1.947 -0.7562 -0.3559 -0.1275
55271SOL     OW72862   9.237   1.245  12.442 -0.0187  0.0304 -0.1392
55271SOL    HW172863   9.234   1.158  12.482  0.5892  0.6407  1.2937
55271SOL    HW272864   9.145   1.272  12.437 -0.1038  0.0761  1.2024
55272SOL     OW72865  11.669   0.553   4.604 -0.3076  0.0466 -0.4987
55272SOL    HW172866  11.763   0.544   4.620  0.0477  1.6434 -1.4791
55272SOL    HW272867  11.639   0.613   4.673 -0.4266  0.2160 -0.6953
55273SOL     OW72868  11.950  10.260   2.567 -0.2242 -0.1708 -0.0428
55273SOL    HW172869  11.921  10.331   2.512 -2.4836 -0.7542  0.3092
55273SOL    HW272870  12.046  10.268   2.569 -0.3566  2.1840 -0.8305
55274SOL     OW72871   4.008  12.053   5.890  0.3178  0.2027 -0.1498
55274SOL    HW172872   4.093  12.023   5.923  0.1353 -1.2776 -0.9457
55274SOL    HW272873   3.986  11.990   5.821 -1.8787 -0.0282  0.7004
55275SOL     OW72874   4.996  11.675   2.414  0.3826 -0.5678  0.9834
55275SOL    HW172875   5.080  11.717   2.395 -1.9026  3.0205 -3.0258
55275SOL    HW272876   5.003  11.588   2.373  1.1754  0.9907 -2.5318
55276SOL     OW72877   8.419   6.502   0.259  0.6330 -0.3292  0.0027
55276SOL    HW172878   8.384   6.438   0.197 -0.7447  0.8131 -0.4344
55276SOL    HW272879   8.513   6.505   0.239  0.6797 -1.9484 -0.1772
55277SOL     OW72880   0.298   5.270   3.254  0.1892  0.9054 -0.3176
55277SOL    HW172881   0.362   5.213   3.296 -0.3551  0.7055  0.2592
55277SOL    HW272882   0.350   5.328   3.198  0.7060 -0.5434 -1.4010
55278SOL     OW72883   5.609   2.524  11.834 -0.1269  0.9646 -0.4245
55278SOL    HW172884   5.629   2.436  11.865  0.7086  1.7735  1.4981
55278SOL    HW272885   5.668   2.537  11.760  1.2336  0.6031  0.5469
55279SOL     OW72886   7.664   5.710  11.244 -0.1686  0.0907 -0.3267
55279SOL    HW172887   7.654   5.654  11.321  2.2814  0.3840  0.3127
55279SOL    HW272888   7.629   5.795  11.272  0.3375  0.0849  0.3543
55280SOL     OW72889   1.527  10.802   8.008  0.4825  0.8220 -0.1282
55280SOL    HW172890   1.464  10.793   7.937 -1.0031  0.4255  1.2006
55280SOL    HW272891   1.579  10.879   7.983 -0.3526  1.0258 -1.3678
55281SOL     OW72892   9.136   8.281  12.518  0.0909 -0.3398  0.5753
55281SOL    HW172893   9.112   8.190  12.534 -1.2538 -0.2595 -0.8053
55281SOL    HW272894   9.108   8.298  12.428  2.5862  0.7104 -0.0875
55282SOL     OW72895   0.135   2.019  10.122  0.2089 -0.6204 -0.2376
55282SOL    HW172896   0.087   2.000  10.042  0.5199 -0.4516 -0.4676
55282SOL    HW272897   0.096   2.100  10.155  1.6129  0.6363 -1.4861
55283SOL     OW72898   2.021   2.046   1.685  0.3830  0.1223  1.2304
55283SOL    HW172899   2.012   1.984   1.612  2.2862 -0.5638  1.5310
55283SOL    HW272900   1.956   2.016   1.749 -0.5076  0.0363  0.3288
55284SOL     OW72901   0.747   5.195   2.549 -0.2869  0.3843 -0.3011
55284SOL    HW172902   0.770   5.109   2.514 -0.1047  0.9726 -1.6870
55284SOL    HW272903   0.687   5.176   2.620  3.6646 -1.2198  3.0127
55285SOL     OW72904  11.485  10.109   0.791  0.3634  0.2731  0.7931
55285SOL    HW172905  11.509  10.065   0.872  0.2314  0.3327  0.8653
55285SOL    HW272906  11.523  10.197   0.799  0.5937  0.1848  0.6662
55286SOL     OW72907   8.999   2.540   7.697 -0.1792 -0.1927 -0.0931
55286SOL    HW172908   8.972   2.473   7.635 -1.4307  0.6255 -0.4799
55286SOL    HW272909   9.023   2.615   7.642  1.1258 -0.2672  0.3318
55287SOL     OW72910   5.761   8.576   1.712  0.6012  0.2802 -0.1806
55287SOL    HW172911   5.668   8.566   1.730  0.4497  0.6660 -0.7426
55287SOL    HW272912   5.783   8.503   1.655  0.3241  0.9859 -1.2082
55288SOL     OW72913  11.605   7.947   9.808 -0.2453  0.0880 -0.0579
55288SOL    HW172914  11.535   8.012   9.801 -0.4831 -0.0248  1.1473
55288SOL    HW272915  11.685   7.998   9.810 -0.3351  0.2603 -0.5777
55289SOL     OW72916   9.418   0.787   8.051  0.1202 -0.3955 -0.0101
55289SOL    HW172917   9.401   0.840   8.128 -0.6451  0.0200 -0.4547
55289SOL    HW272918   9.377   0.835   7.979  0.7451 -0.8200 -0.6631
55290SOL     OW72919   1.173   8.807   0.433 -0.3588 -0.6147  0.0356
55290SOL    HW172920   1.225   8.754   0.494  2.7049  0.8237 -1.1380
55290SOL    HW272921   1.104   8.845   0.488  1.5795 -0.2710  2.4389
55291SOL     OW72922   9.678   7.115   5.464 -0.4119 -0.6807  0.1112
55291SOL    HW172923   9.744   7.049   5.487 -0.6255 -2.3807 -3.4648
55291SOL    HW272924   9.729   7.187   5.428 -0.3401 -0.0898  1.3494
55292SOL     OW72925  10.806   3.570  11.815  0.0615 -0.0780 -0.1714
55292SOL    HW172926  10.855   3.545  11.737 -0.8928 -0.3586 -0.6876
55292SOL    HW272927  10.721   3.528  11.805 -0.1438  0.0353  0.9317
55293SOL     OW72928  12.182   8.060  10.136  0.1479  0.2443  0.5606
55293SOL    HW172929  12.266   8.033  10.173  0.1999  0.4015  0.5589
55293SOL    HW272930  12.168   8.148  10.171 -0.2962 -0.0044  1.0289
55294SOL     OW72931   8.669  11.817   2.406 -0.2065 -0.4354  0.2707
55294SOL    HW172932   8.743  11.813   2.466  0.3756 -1.4168 -0.4753
55294SOL    HW272933   8.671  11.905   2.370  0.2643 -0.2808  0.6819
55295SOL     OW72934   7.188   3.513   5.677  0.0576  0.4339 -0.2497
55295SOL    HW172935   7.161   3.601   5.651 -2.1979 -0.5622 -1.5238
55295SOL    HW272936   7.254   3.488   5.612  0.4313  1.0162 -0.1040
55296SOL     OW72937   7.785  10.055   7.972  0.2414  0.0504 -0.0006
55296SOL    HW172938   7.815  10.125   7.914  0.0267 -0.5261 -0.8264
55296SOL    HW272939   7.738  10.101   8.042  1.6354  0.8521  0.4625
55297SOL     OW72940  12.138   9.343   5.522  0.2102  0.0339 -0.0559
55297SOL    HW172941  12.169   9.271   5.468  2.0220  0.6955  0.0366
55297SOL    HW272942  12.214   9.369   5.574 -0.3740  2.0108 -0.1037
55298SOL     OW72943   0.286  10.774  10.146 -0.3605  0.0595  0.1791
55298SOL    HW172944   0.200  10.765  10.106 -0.2354 -0.6880  0.0648
55298SOL    HW272945   0.341  10.809  10.076 -0.3276 -0.4879 -0.0734
55299SOL     OW72946   7.194   3.335   9.309 -0.6282  0.3335 -0.5127
55299SOL    HW172947   7.227   3.394   9.377 -1.6017 -1.6972  1.8260
55299SOL    HW272948   7.161   3.394   9.241 -1.4302  2.5176  1.6349
55300SOL     OW72949   2.619  10.716  11.248  0.5041  0.0530 -0.1237
55300SOL    HW172950   2.523  10.722  11.248  0.4484  0.0590 -2.6040
55300SOL    HW272951   2.642  10.699  11.157  2.8435 -0.7334  0.5406
55301SOL     OW72952   4.351   7.963   0.801  0.0146 -0.7816 -0.2266
55301SOL    HW172953   4.353   8.058   0.791  0.5044 -0.9130 -1.5882
55301SOL    HW272954   4.329   7.949   0.893  1.1154  0.6427  0.2895
55302SOL     OW72955   7.340   0.889  11.344 -0.3090 -0.1379 -0.6302
55302SOL    HW172956   7.264   0.945  11.330 -0.4125  0.7051  2.6920
55302SOL    HW272957   7.314   0.831  11.415  1.4649 -1.2275 -0.8267
55303SOL     OW72958   6.397  12.173  10.785 -0.1208 -0.4936 -0.1304
55303SOL    HW172959   6.455  12.226  10.731  0.4913 -1.3640 -0.3530
55303SOL    HW272960   6.313  12.217  10.781  0.5550  0.8840  0.3245
55304SOL     OW72961   0.617   8.926   0.298 -0.1504  0.2409  0.2789
55304SOL    HW172962   0.620   8.982   0.375  2.6364 -1.7323  1.7728
55304SOL    HW272963   0.690   8.955   0.244 -0.7601  0.2117 -0.5858
55305SOL     OW72964   2.530   0.500   5.808  0.2288  0.6424 -0.1586
55305SOL    HW172965   2.519   0.488   5.714 -1.8099  3.3451 -0.3972
55305SOL    HW272966   2.441   0.491   5.844  0.8939  0.1497  1.4695
55306SOL     OW72967  12.051   6.397   7.596  0.1775  0.1200 -0.1185
55306SOL    HW172968  11.999   6.316   7.598  1.6431 -0.8618  0.3069
55306SOL    HW272969  12.133   6.371   7.555  0.4991  1.5481 -0.4400
55307SOL     OW72970   2.933   5.972  11.976  0.0146 -0.0777 -0.1702
55307SOL    HW172971   2.838   5.967  11.987  0.2752 -1.0534  2.3800
55307SOL    HW272972   2.946   6.038  11.908 -2.3976  2.8441  1.9160
55308SOL     OW72973   4.697   3.615   2.062 -0.3147 -0.0586 -0.1655
55308SOL    HW172974   4.731   3.629   2.150 -2.5023 -0.6879  0.8393
55308SOL    HW272975   4.610   3.655   2.063 -0.2395  0.2823 -2.1836
55309SOL     OW72976   8.051   1.300   9.967 -0.2519  0.2312 -0.7234
55309SOL    HW172977   8.088   1.240   9.902  0.1735  0.8017 -1.0235
55309SOL    HW272978   7.972   1.333   9.926 -1.6750 -1.7041  0.2985
55310SOL     OW72979   7.675   3.409   0.231  0.1344 -0.4436 -0.4279
55310SOL    HW172980   7.752   3.452   0.268  0.4276 -1.1925 -0.1532
55310SOL    HW272981   7.691   3.316   0.245 -1.2975 -0.5677  0.5650
55311SOL     OW72982   1.581   8.153   2.672 -0.1701 -0.2997  0.4243
55311SOL    HW172983   1.501   8.120   2.631 -0.4965  0.1482  0.6915
55311SOL    HW272984   1.643   8.161   2.599 -0.1170 -1.3686  0.3394
55312SOL     OW72985  12.352   8.739   6.425  0.2242 -0.7478 -0.0450
55312SOL    HW172986  12.411   8.673   6.390  1.2482  0.6296 -1.0230
55312SOL    HW272987  12.359   8.813   6.365 -0.4728  0.4757  1.2909
55313SOL     OW72988  11.871   2.095  11.077  0.2444 -0.0334  0.1697
55313SOL    HW172989  11.805   2.096  11.146  0.3056  2.3418  0.2637
55313SOL    HW272990  11.832   2.145  11.005  1.9546  1.6276  0.3157
55314SOL     OW72991  11.604   2.972   3.205  0.0610 -0.4936  0.5001
55314SOL    HW172992  11.686   2.977   3.255  0.5748 -1.6203 -0.2025
55314SOL    HW272993  11.563   2.890   3.233  0.2359 -1.0163 -0.7245
55315SOL     OW72994  12.274   4.734   1.940  0.0774  0.3644  0.2849
55315SOL    HW172995  12.282   4.823   1.976  0.1841 -0.0735  1.3684
55315SOL    HW272996  12.195   4.737   1.887  1.1809  1.6820 -1.4421
55316SOL     OW72997   6.880   6.918  10.836  0.5178  0.0406 -0.1419
55316SOL    HW172998   6.924   6.932  10.752  3.0328 -0.3272  1.0235
55316SOL    HW272999   6.827   6.840  10.822  0.7285  0.1022 -1.4479
55317SOL     OW73000   5.998   7.944  12.566  0.7318 -0.1610  0.0832
55317SOL    HW173001   5.934   7.873  12.567 -1.0837  1.3696  1.4176
55317SOL    HW273002   6.004   7.972  12.657  2.7926  0.2639 -0.1233
55318SOL     OW73003   4.837   0.785   1.518 -0.5753  0.6678  0.7627
55318SOL    HW173004   4.783   0.862   1.536 -0.1200  0.9084  1.1182
55318SOL    HW273005   4.904   0.786   1.586  0.5450  1.0005 -0.2949
55319SOL     OW73006   6.548   1.073   2.765 -0.0557 -0.1109  0.4233
55319SOL    HW173007   6.478   1.015   2.734 -1.7666  0.8373  2.2931
55319SOL    HW273008   6.515   1.161   2.746  1.2479  0.3399  0.1700
55320SOL     OW73009   4.060   3.429   9.081  0.3404 -0.4452  0.7204
55320SOL    HW173010   3.989   3.381   9.123 -1.4650  1.5648  0.0942
55320SOL    HW273011   4.056   3.401   8.989 -0.4410  0.5585  0.4409
55321SOL     OW73012   5.579   1.341   6.023 -0.7003 -0.0683 -0.3702
55321SOL    HW173013   5.563   1.296   5.940 -0.9729 -2.1385  0.7555
55321SOL    HW273014   5.670   1.369   6.017 -0.3602 -1.2244 -0.9037
55322SOL     OW73015  10.539   0.642   9.514  0.4265  0.5225  0.1220
55322SOL    HW173016  10.627   0.679   9.517  0.0693  1.4518 -0.5158
55322SOL    HW273017  10.535   0.583   9.590  1.3414  1.0300  0.5787
55323SOL     OW73018   0.110   5.290  10.429  0.5468 -0.4625 -0.1032
55323SOL    HW173019   0.097   5.203  10.466 -0.4741 -0.0387  0.5758
55323SOL    HW273020   0.196   5.316  10.460  0.2699 -0.6684  0.8654
55324SOL     OW73021   2.756   8.044   6.444 -0.5731 -0.7395 -0.2112
55324SOL    HW173022   2.721   7.963   6.409  0.9731 -1.2435 -0.6891
55324SOL    HW273023   2.697   8.068   6.516 -3.2977 -0.1787 -2.4679
55325SOL     OW73024   3.101   7.201  11.545  0.2796 -0.0944 -0.1328
55325SOL    HW173025   3.130   7.148  11.619 -0.7718  0.1578  0.4797
55325SOL    HW273026   3.167   7.186  11.478  0.6583 -1.2225  0.4566
55326SOL     OW73027  10.534  11.249   1.499 -0.7573  0.3924 -0.1191
55326SOL    HW173028  10.542  11.299   1.418 -0.8410 -1.1825 -1.1431
55326SOL    HW273029  10.580  11.301   1.564 -1.5906  2.2046 -0.9200
55327SOL     OW73030   7.829  12.559   2.206  1.2630 -0.4104  0.0240
55327SOL    HW173031   7.756  12.618   2.225  0.0731 -1.5882 -0.7360
55327SOL    HW273032   7.906  12.616   2.205  0.3952  0.8424  1.0046
55328SOL     OW73033   4.266  10.757  12.297  0.1649 -0.4326  0.5804
55328SOL    HW173034   4.326  10.830  12.310  0.6305 -1.0036  1.7737
55328SOL    HW273035   4.306  10.684  12.343 -0.7642 -1.1946  0.2178
55329SOL     OW73036   7.981   8.836   3.308  0.1338 -0.4395  0.4247
55329SOL    HW173037   7.943   8.752   3.334 -1.7613  0.0977 -0.4015
55329SOL    HW273038   7.977   8.889   3.387  0.9257 -0.9730  0.8339
55330SOL     OW73039   5.644   0.415   7.508 -0.2230 -0.5812  0.4664
55330SOL    HW173040   5.686   0.353   7.568  0.7275 -0.6302 -0.2183
55330SOL    HW273041   5.565   0.371   7.478  0.7046 -1.7102 -0.4161
55331SOL     OW73042   2.783   1.988   8.918  0.1258  0.3304 -0.3478
55331SOL    HW173043   2.712   2.052   8.911 -0.2997 -0.2313 -1.6050
55331SOL    HW273044   2.749   1.910   8.875  1.0958 -0.3324  0.0485
55332SOL     OW73045  11.077   6.128   4.856 -0.0463  0.2167 -0.0265
55332SOL    HW173046  11.136   6.120   4.782 -1.0489 -0.4525 -0.7661
55332SOL    HW273047  11.045   6.218   4.851  0.7764  0.5465  0.3084
55333SOL     OW73048   0.067   2.025   8.465  0.2434 -0.0818 -0.9953
55333SOL    HW173049   0.106   1.938   8.470 -2.1630 -1.1972  0.2236
55333SOL    HW273050   0.085   2.065   8.550 -0.9991 -0.5470 -0.4810
55334SOL     OW73051   5.636   7.571  12.175 -0.5737 -0.1495  0.6997
55334SOL    HW173052   5.574   7.630  12.218 -0.5644  0.6376 -0.3412
55334SOL    HW273053   5.690   7.627  12.120  0.7050 -0.8995  1.1511
55335SOL     OW73054  12.095  10.875  12.051  0.3636  0.2373 -0.0308
55335SOL    HW173055  12.180  10.845  12.083 -0.6442 -1.3954  1.3037
55335SOL    HW273056  12.106  10.970  12.039  2.6399 -0.0808 -0.9229
55336SOL     OW73057  12.356   6.453   6.783  0.7390 -0.1071 -0.4217
55336SOL    HW173058  12.415   6.378   6.790  0.8256 -0.1755 -1.7475
55336SOL    HW273059  12.368   6.500   6.866 -0.8714 -2.6550  1.4068
55337SOL     OW73060   5.812   2.641   3.572 -0.7371 -0.6276  0.6556
55337SOL    HW173061   5.734   2.671   3.618 -1.7860 -0.1580 -1.2808
55337SOL    HW273062   5.814   2.695   3.492  1.6668 -0.5139  0.7172
55338SOL     OW73063   2.802   0.570   8.232 -0.9158 -0.4419  0.8379
55338SOL    HW173064   2.857   0.565   8.154  0.4453  2.2530  1.4987
55338SOL    HW273065   2.767   0.482   8.242  1.2156 -1.6335 -1.1171
55339SOL     OW73066   8.841   5.834   4.388  0.4878  0.3773  0.3540
55339SOL    HW173067   8.773   5.893   4.355  0.5775  0.1255 -0.3094
55339SOL    HW273068   8.882   5.882   4.460 -0.1166  0.6988  0.4867
55340SOL     OW73069   5.876   5.127   1.299  0.0199 -0.1875 -0.3570
55340SOL    HW173070   5.804   5.128   1.362  0.6078 -0.0329  0.3225
55340SOL    HW273071   5.923   5.046   1.317  0.0268 -0.2795 -0.7833
55341SOL     OW73072   7.632  11.298   7.138  0.6176 -0.1995  0.3955
55341SOL    HW173073   7.692  11.372   7.149 -0.6977  1.1551 -1.1257
55341SOL    HW273074   7.635  11.252   7.222  4.1571 -0.5352  0.2200
55342SOL     OW73075   5.182  12.223   3.112 -0.0890  0.3128  0.0786
55342SOL    HW173076   5.205  12.145   3.162 -1.0891  0.0564  0.1557
55342SOL    HW273077   5.264  12.249   3.070  0.3937 -0.4184  0.5395
55343SOL     OW73078   2.690  12.453   5.592  0.7625  0.3216 -0.4361
55343SOL    HW173079   2.608  12.474   5.636  0.9045  0.8270 -0.4006
55343SOL    HW273080   2.664  12.426   5.504  0.5572  0.4385 -0.4123
55344SOL     OW73081   0.183   0.637   6.139 -0.2528  0.2918  0.1031
55344SOL    HW173082   0.113   0.591   6.185  0.2039 -2.5507 -1.7457
55344SOL    HW273083   0.138   0.698   6.081 -0.9525  1.3095  1.6381
55345SOL     OW73084   1.033   4.623  11.212 -0.2989 -0.1769  0.0871
55345SOL    HW173085   1.034   4.719  11.208  2.4286 -0.1535 -1.0956
55345SOL    HW273086   1.055   4.603  11.303 -2.1448  0.2595  0.6655
55346SOL     OW73087   5.717  11.725   0.694 -0.2055  0.2454 -0.0406
55346SOL    HW173088   5.714  11.789   0.764  1.6965  0.6907 -0.3137
55346SOL    HW273089   5.667  11.764   0.623 -1.0654  0.3542  0.6153
55347SOL     OW73090  11.749   9.372   2.871  1.0063 -0.0806  0.1363
55347SOL    HW173091  11.754   9.287   2.915  0.5271 -0.5612 -0.7076
55347SOL    HW273092  11.819   9.370   2.806 -0.5889 -0.9006 -1.6508
55348SOL     OW73093   5.171   3.940  11.734 -0.2375 -0.7181 -0.4776
55348SOL    HW173094   5.167   4.006  11.803  1.0200  1.5889 -2.4323
55348SOL    HW273095   5.247   3.887  11.756 -0.1442 -0.3371  0.1540
55349SOL     OW73096   1.009   6.423   9.284  0.5830 -0.1380 -0.1536
55349SOL    HW173097   0.948   6.496   9.276  0.1797 -0.5266 -0.6830
55349SOL    HW273098   1.015   6.387   9.195  0.3590 -1.0835  0.2038
55350SOL     OW73099   2.543   2.972  12.163  0.1298  0.6665  0.0477
55350SOL    HW173100   2.631   2.967  12.201 -0.5898  0.2217  1.7394
55350SOL    HW273101   2.527   3.065  12.151  0.2924  0.8313  1.0589
55351SOL     OW73102   4.532   5.540  10.001  0.7260 -0.2111 -0.0252
55351SOL    HW173103   4.572   5.570  10.082  2.7228 -0.9576 -0.6797
55351SOL    HW273104   4.577   5.589   9.932 -0.3981 -0.1411 -0.7300
55352SOL     OW73105   1.140   5.519  11.391  0.2990  0.1204 -0.0373
55352SOL    HW173106   1.127   5.437  11.342 -0.9880  0.1217  0.2678
55352SOL    HW273107   1.158   5.584  11.324 -0.5631 -0.0529 -0.4518
55353SOL     OW73108   5.868   9.491   3.071  0.0022 -0.2403 -0.1296
55353SOL    HW173109   5.847   9.438   3.147  2.2125 -0.3744  0.4577
55353SOL    HW273110   5.903   9.429   3.007 -1.7184 -0.1112 -1.2669
55354SOL     OW73111  12.111   3.251  10.787  0.8247 -0.0978  0.3346
55354SOL    HW173112  12.018   3.238  10.767  0.6178  0.9898  0.5242
55354SOL    HW273113  12.148   3.289  10.708  0.6663  1.3086  0.9008
55355SOL     OW73114  10.026   7.582   4.298 -0.4181 -0.2840 -0.3993
55355SOL    HW173115  10.097   7.619   4.245  0.2767 -0.2784  0.5133
55355SOL    HW273116   9.985   7.517   4.242 -0.0828  0.1430 -1.1564
55356SOL     OW73117   4.010   9.762   3.286  0.4912 -0.7215 -0.3251
55356SOL    HW173118   4.058   9.737   3.365  1.1196 -1.6397 -0.9766
55356SOL    HW273119   4.048   9.845   3.259 -1.0229  0.6107  1.3789
55357SOL     OW73120   9.656   0.308   9.210 -0.3439  0.1658 -0.5681
55357SOL    HW173121   9.695   0.255   9.280 -0.9735 -0.6009 -0.7794
55357SOL    HW273122   9.718   0.379   9.195 -0.4566  0.6687  1.1587
55358SOL     OW73123   4.465   1.286   0.156  0.3561 -0.2175 -0.6046
55358SOL    HW173124   4.393   1.225   0.141 -0.5258  0.7439 -0.4424
55358SOL    HW273125   4.455   1.352   0.088  0.4700  0.4765  0.0336
55359SOL     OW73126   9.367   0.869   4.196 -0.4993 -0.6572  0.5942
55359SOL    HW173127   9.315   0.939   4.235  1.3958  0.8943  0.4800
55359SOL    HW273128   9.369   0.891   4.103 -0.2370 -1.0926  0.4981
55360SOL     OW73129  11.845   1.991   1.760  0.1042 -0.1486  0.2452
55360SOL    HW173130  11.876   1.941   1.685  0.3293  0.7854 -0.2967
55360SOL    HW273131  11.831   1.925   1.829  1.5124 -0.8170 -0.0743
55361SOL     OW73132   4.550   5.563   1.356  0.1314  0.8174 -0.2493
55361SOL    HW173133   4.537   5.548   1.449  1.8830  1.7280  0.1875
55361SOL    HW273134   4.594   5.484   1.324 -0.9150  0.2882 -0.4569
55362SOL     OW73135   7.969   5.143   8.340  0.3266 -0.2828 -0.3455
55362SOL    HW173136   8.042   5.120   8.284  2.0242 -0.0523  1.6625
55362SOL    HW273137   7.921   5.061   8.352  1.2630 -0.8368 -0.2921
55363SOL     OW73138  11.466   0.320   9.630 -0.0794 -1.0015 -0.3441
55363SOL    HW173139  11.395   0.380   9.605 -0.0050 -0.3162  1.0284
55363SOL    HW273140  11.427   0.233   9.620 -0.4383 -0.7235 -1.5975
55364SOL     OW73141   5.582   2.820   3.997  0.9090 -0.2502 -0.0515
55364SOL    HW173142   5.669   2.857   4.013  0.3100  1.0375  0.4141
55364SOL    HW273143   5.568   2.760   4.071  0.9929  0.3476  0.4636
55365SOL     OW73144   6.176   9.434   6.295 -0.5481 -0.1811 -0.0428
55365SOL    HW173145   6.233   9.395   6.230 -0.5109  0.0280 -0.1377
55365SOL    HW273146   6.218   9.415   6.379 -2.1493 -3.1651  0.2138
55366SOL     OW73147   0.470   3.347  10.326  0.0843  0.4125 -0.5046
55366SOL    HW173148   0.516   3.279  10.277 -0.4080  0.5528 -1.1763
55366SOL    HW273149   0.538   3.411  10.347  0.5370 -0.2447  0.0771
55367SOL     OW73150   9.428   5.254  10.218 -0.1537  0.0307  0.2033
55367SOL    HW173151   9.433   5.247  10.123 -0.3113  2.4028 -0.0401
55367SOL    HW273152   9.348   5.304  10.235 -0.2055 -0.4741  1.6015
55368SOL     OW73153   1.012   7.606   8.710 -0.3739 -0.0067 -1.0908
55368SOL    HW173154   1.020   7.547   8.785 -0.0546 -1.2402 -2.0545
55368SOL    HW273155   1.098   7.605   8.669  0.2667  2.7449 -0.0301
55369SOL     OW73156   4.578   0.283   5.815  0.2195 -0.5901 -0.3442
55369SOL    HW173157   4.582   0.240   5.730 -1.1748 -1.9309  0.2218
55369SOL    HW273158   4.560   0.375   5.795  2.1249 -0.4195 -1.5352
55370SOL     OW73159   3.409   2.718   4.143  0.1139 -0.3885  0.0164
55370SOL    HW173160   3.453   2.775   4.080 -1.9884 -0.0604 -1.2342
55370SOL    HW273161   3.327   2.763   4.162 -1.4521 -2.7749 -0.7208
55371SOL     OW73162  11.341   7.611  10.268 -0.1431 -0.2282  0.0475
55371SOL    HW173163  11.259   7.627  10.221  0.0503 -1.4434 -0.7577
55371SOL    HW273164  11.313   7.575  10.352 -0.4564 -0.2285 -0.0550
55372SOL     OW73165   3.137   0.697   9.783 -0.0285 -0.4953  0.2410
55372SOL    HW173166   3.192   0.756   9.834  0.9236 -0.2019 -1.0979
55372SOL    HW273167   3.195   0.626   9.757 -0.5102 -0.6527 -0.4189
55373SOL     OW73168   1.845   5.646  11.904 -0.0215 -0.4818 -0.2915
55373SOL    HW173169   1.886   5.637  11.818 -1.2537  0.5550 -1.0273
55373SOL    HW273170   1.803   5.732  11.901 -0.5451 -0.6605  1.1580
55374SOL     OW73171  12.202   2.865   8.330 -0.1061 -0.1303  0.1954
55374SOL    HW173172  12.120   2.823   8.306 -0.3417  0.1968  0.4297
55374SOL    HW273173  12.231   2.818   8.408  0.8748 -1.4802 -0.9344
55375SOL     OW73174   5.760   8.703  10.139 -0.0391 -0.2755  0.1760
55375SOL    HW173175   5.732   8.671  10.225 -1.4924  0.3460 -0.0339
55375SOL    HW273176   5.721   8.791  10.133 -2.2151 -1.2639 -2.1341
55376SOL     OW73177   8.370   0.364   9.843 -0.2386  1.0122 -0.0638
55376SOL    HW173178   8.287   0.390   9.884 -0.4567  1.0335 -0.5099
55376SOL    HW273179   8.408   0.446   9.812 -0.2804  0.9540 -0.2759
55377SOL     OW73180   1.174   2.290  11.211 -0.1252 -0.0019 -0.5359
55377SOL    HW173181   1.113   2.318  11.279 -1.4440 -0.8067 -1.3609
55377SOL    HW273182   1.218   2.213  11.249  3.2295  2.6541  1.5816
55378SOL     OW73183  10.763   5.294   6.610  0.2187 -0.6463  0.7462
55378SOL    HW173184  10.838   5.349   6.588  0.7355 -1.1188  1.2946
55378SOL    HW273185  10.752   5.305   6.705  0.1491 -1.2678  0.8112
55379SOL     OW73186   1.995   0.442   0.999 -0.1855 -1.0097 -0.5834
55379SOL    HW173187   1.915   0.394   1.022 -1.4016  1.0864 -0.2254
55379SOL    HW273188   2.051   0.434   1.076 -1.0068 -0.6147  0.0773
55380SOL     OW73189   7.814   1.370   9.863 -0.0832  0.4441  0.0768
55380SOL    HW173190   7.855   1.383   9.777  0.4596 -0.5315  0.1653
55380SOL    HW273191   7.729   1.330   9.844  0.4806 -0.7842  0.0051
55381SOL     OW73192   9.409  12.084  11.347  0.1966  0.3566 -0.3470
55381SOL    HW173193   9.464  12.114  11.419  0.3484 -2.2719  0.7471
55381SOL    HW273194   9.470  12.054  11.280  0.0752  0.8283 -0.6672
55382SOL     OW73195   3.758   1.631   7.227  0.7036  0.4246 -0.2716
55382SOL    HW173196   3.767   1.624   7.322  2.7168  0.0724 -0.4474
55382SOL    HW273197   3.699   1.559   7.203  2.9442 -1.7567  0.3988
55383SOL     OW73198   4.025   4.748  12.149  0.3917  0.2335  0.0265
55383SOL    HW173199   4.078   4.684  12.198 -0.5710 -0.1827  0.5554
55383SOL    HW273200   4.063   4.749  12.062 -0.9572 -2.8506 -0.7260
55384SOL     OW73201  12.012   9.621   8.888  0.1618  0.1838 -0.2878
55384SOL    HW173202  12.067   9.544   8.901 -0.2371 -0.2420 -0.9878
55384SOL    HW273203  12.017   9.670   8.970 -0.8304 -1.4108  0.7820
55385SOL     OW73204   7.785  12.454  10.637 -0.2957 -0.7121 -0.3181
55385SOL    HW173205   7.772  12.544  10.668  2.6680 -0.6686  1.2159
55385SOL    HW273206   7.865  12.458  10.585 -0.3349 -2.4027 -0.5597
55386SOL     OW73207  11.673  12.475   6.180  0.1196  0.1837 -0.0835
55386SOL    HW173208  11.686  12.467   6.085 -0.9327  0.6143 -0.2806
55386SOL    HW273209  11.703  12.391   6.216 -0.9664 -0.6152 -0.9754
55387SOL     OW73210  12.250   1.100   9.818 -0.0476  0.0007 -0.2177
55387SOL    HW173211  12.311   1.050   9.871  0.4257  0.3318 -0.4399
55387SOL    HW273212  12.241   1.050   9.737  2.0527  1.2539 -1.3209
55388SOL     OW73213   6.152   6.643   9.148  0.3447  0.1236 -0.1356
55388SOL    HW173214   6.230   6.646   9.093 -0.4882 -0.4604 -1.4128
55388SOL    HW273215   6.161   6.562   9.199  0.8765  0.3962  0.2061
55389SOL     OW73216   1.106  12.104  10.578 -0.0349 -0.3560  0.2002
55389SOL    HW173217   1.155  12.058  10.647 -0.7941 -0.3318  0.7735
55389SOL    HW273218   1.112  12.196  10.602 -0.4063 -0.3578  0.3108
55390SOL     OW73219   0.778   3.486  12.223  0.4628  0.6482 -0.4065
55390SOL    HW173220   0.716   3.534  12.279 -1.5153 -0.4685 -1.5206
55390SOL    HW273221   0.833   3.437  12.284  1.0121  2.4585  0.6613
55391SOL     OW73222   2.372   2.895   9.089 -0.4145  0.1548 -0.5824
55391SOL    HW173223   2.335   2.815   9.053  1.7249 -1.4669  0.5619
55391SOL    HW273224   2.464   2.893   9.065 -0.1623  1.9707  0.0125
55392SOL     OW73225   1.272   1.534   8.679  0.4701  0.2790 -0.4593
55392SOL    HW173226   1.204   1.556   8.742  0.7407 -0.7049  0.2122
55392SOL    HW273227   1.320   1.616   8.664 -0.8982  0.9997 -1.0195
55393SOL     OW73228  11.147   8.285   5.262 -0.1553 -0.5137  0.3116
55393SOL    HW173229  11.226   8.263   5.213  0.0821  1.8680 -0.5276
55393SOL    HW273230  11.135   8.379   5.246 -1.9159 -0.3525  2.2194
55394SOL     OW73231   8.582   2.008   0.556 -0.2703 -0.4782  0.5617
55394SOL    HW173232   8.535   1.974   0.632  1.3776  0.2457  1.9796
55394SOL    HW273233   8.519   2.063   0.510 -0.4388  1.7970  3.2882
55395SOL     OW73234   4.773   1.163   1.642 -0.2541  0.4899 -0.1378
55395SOL    HW173235   4.805   1.226   1.577  0.7272 -1.1105 -1.2699
55395SOL    HW273236   4.836   1.169   1.714  1.0742 -0.6309 -1.1493
55396SOL     OW73237   9.873   1.792   3.673  0.0345 -0.2062 -0.0380
55396SOL    HW173238   9.848   1.878   3.640 -2.8290 -1.6221 -1.9637
55396SOL    HW273239   9.955   1.772   3.628 -0.7337  0.4021 -1.8054
55397SOL     OW73240   5.203   3.243   6.812  0.3509  0.0891 -0.2499
55397SOL    HW173241   5.297   3.224   6.812  0.5674  1.1007 -1.3069
55397SOL    HW273242   5.167   3.182   6.748  0.8454  2.0955 -2.5763
55398SOL     OW73243  12.065   1.929  10.020  0.0379  0.2955 -0.1995
55398SOL    HW173244  11.979   1.888  10.031  1.8416 -3.6142  1.0965
55398SOL    HW273245  12.079   1.929   9.925 -0.6499 -0.8620 -0.3292
55399SOL     OW73246   4.106   8.196  11.643  0.7360  0.2028  0.0565
55399SOL    HW173247   4.069   8.162  11.724  0.9570 -0.2950 -0.0483
55399SOL    HW273248   4.130   8.287  11.663 -0.1542  0.4084  0.2461
55400SOL     OW73249  11.655   9.170   9.988 -0.7420 -0.0685  0.2426
55400SOL    HW173250  11.603   9.177  10.069 -0.3441  0.1118  0.4838
55400SOL    HW273251  11.743   9.197  10.014 -0.5362 -0.3330 -0.1760
55401SOL     OW73252   0.092  12.239   8.190 -0.2644 -0.4691 -0.5921
55401SOL    HW173253   0.010  12.252   8.237 -0.7388 -1.1292 -1.2191
55401SOL    HW273254   0.114  12.147   8.205  1.0762  0.0192  0.6790
55402SOL     OW73255   0.022   7.423  11.399  0.8591 -0.3242 -0.1400
55402SOL    HW173256   0.097   7.403  11.343  0.2571 -1.5092 -0.5727
55402SOL    HW273257  -0.054   7.407  11.344  0.2686 -0.3218  0.6496
55403SOL     OW73258   2.436   4.545   2.509  0.1482  0.1615  0.9876
55403SOL    HW173259   2.450   4.493   2.588  1.6563 -0.2833  0.4496
55403SOL    HW273260   2.406   4.482   2.443  2.3434 -0.1546  0.2277
55404SOL     OW73261   6.958  10.205   1.081 -0.2426 -0.2909 -0.1895
55404SOL    HW173262   6.936  10.151   1.005 -1.5635  0.3581 -0.2823
55404SOL    HW273263   6.887  10.269   1.088  1.5445  1.8489 -0.4336
55405SOL     OW73264   1.258   5.615  11.613  0.1158 -0.4943  0.1147
55405SOL    HW173265   1.325   5.552  11.639  0.5909 -0.4325 -0.8861
55405SOL    HW273266   1.210   5.572  11.542  0.0211  0.0077 -0.1360
55406SOL     OW73267  10.230   1.110   2.370  0.1979  0.2644 -0.3031
55406SOL    HW173268  10.309   1.060   2.388  0.0590  0.0885 -0.1662
55406SOL    HW273269  10.216   1.102   2.276 -0.0702 -0.3355 -0.2217
55407SOL     OW73270   0.970   9.064   2.336  0.4781 -0.0044 -0.3955
55407SOL    HW173271   0.947   9.082   2.245 -0.2918  0.5890 -0.0896
55407SOL    HW273272   0.987   8.970   2.339  0.4805 -0.0289 -1.1442
55408SOL     OW73273   5.130   8.836   9.207  0.5751  0.4528  0.1662
55408SOL    HW173274   5.138   8.931   9.191 -0.0192  0.5868  0.6272
55408SOL    HW273275   5.053   8.828   9.263  1.2813 -0.2099  1.0585
55409SOL     OW73276   3.269   4.674   9.693 -0.6464 -0.1289 -0.3252
55409SOL    HW173277   3.353   4.702   9.657 -1.7381  0.2798 -2.7776
55409SOL    HW273278   3.258   4.727   9.771  0.3816  1.4831 -1.2099
55410SOL     OW73279   0.435   5.819  10.756  0.0033 -0.0282 -0.1719
55410SOL    HW173280   0.355   5.868  10.735  0.2822 -0.1448 -1.5745
55410SOL    HW273281   0.431   5.742  10.699  3.5987  2.4431 -4.3549
55411SOL     OW73282  11.216   9.340   7.893  0.8005 -0.1101  0.2124
55411SOL    HW173283  11.167   9.422   7.901 -3.1624 -2.2158  0.2144
55411SOL    HW273284  11.242   9.318   7.982 -0.0312  0.1390  0.5278
55412SOL     OW73285   5.174  11.714   2.677 -0.2126 -0.4534  0.5629
55412SOL    HW173286   5.185  11.722   2.582 -1.8325 -0.2323  0.3692
55412SOL    HW273287   5.108  11.645   2.688 -0.3477 -0.1904  1.5117
55413SOL     OW73288   8.754  11.167   4.665 -0.0306  0.5211 -0.2428
55413SOL    HW173289   8.754  11.075   4.640 -0.3827  0.7395 -1.0829
55413SOL    HW273290   8.716  11.169   4.753 -0.0720 -0.1263 -0.2483
55414SOL     OW73291   9.769   8.788   0.093  0.2685  0.2502  0.5243
55414SOL    HW173292   9.809   8.705   0.118 -0.5406  0.5024  2.9069
55414SOL    HW273293   9.724   8.769   0.011 -0.5901 -1.9163  1.4116
55415SOL     OW73294   7.711   4.544  12.474 -0.2765  0.4147  0.0547
55415SOL    HW173295   7.741   4.565  12.385 -0.9618  1.0437 -0.0394
55415SOL    HW273296   7.784   4.495  12.513 -0.3621 -0.7755 -1.1901
55416SOL     OW73297   8.399  12.133   2.498  0.2917 -0.4124 -0.2272
55416SOL    HW173298   8.377  12.185   2.420  0.4559 -0.6181 -0.4112
55416SOL    HW273299   8.489  12.157   2.518 -0.0766  0.4222  0.5223
55417SOL     OW73300   1.161   7.126  10.742  0.0710  0.0663 -1.0845
55417SOL    HW173301   1.085   7.145  10.686  0.6843  1.5772 -1.4683
55417SOL    HW273302   1.211   7.062  10.693  0.2085  0.8070 -1.9409
55418SOL     OW73303   8.248   4.444   9.411 -0.2758 -0.3360 -0.4214
55418SOL    HW173304   8.168   4.495   9.418 -0.0569  0.0970 -1.0003
55418SOL    HW273305   8.218   4.355   9.395 -0.6431  0.0100 -1.7871
55419SOL     OW73306   1.138   1.038   5.254  0.3274  0.5703 -0.1772
55419SOL    HW173307   1.194   1.107   5.288  3.0520 -1.3570 -0.4615
55419SOL    HW273308   1.159   1.033   5.161  1.0771 -1.2987  0.0292
55420SOL     OW73309   2.487  11.170   5.364 -0.5773  0.0864  0.5799
55420SOL    HW173310   2.564  11.183   5.308  0.5595  0.2221  2.1061
55420SOL    HW273311   2.455  11.083   5.341 -0.4980  0.3711 -0.6749
55421SOL     OW73312   5.293   2.345   2.242  0.0183 -0.2636  0.0191
55421SOL    HW173313   5.271   2.267   2.192  2.4242  0.4197 -2.3561
55421SOL    HW273314   5.250   2.417   2.196  0.8450  0.1865 -0.0744
55422SOL     OW73315  11.186   7.425   1.370 -0.4411  0.4386 -0.3036
55422SOL    HW173316  11.175   7.433   1.275 -2.0200  0.3666 -0.1533
55422SOL    HW273317  11.114   7.369   1.398  0.3176  0.0209  0.8820
55423SOL     OW73318  10.478  10.700   2.250 -0.6837 -0.1650  0.1369
55423SOL    HW173319  10.567  10.729   2.265 -0.9282  0.1773  0.9632
55423SOL    HW273320  10.423  10.767   2.290 -1.3356 -0.1159 -0.7889
55424SOL     OW73321  11.496   3.763   5.549  0.3422 -0.4052 -0.0930
55424SOL    HW173322  11.472   3.843   5.501  0.8732  0.3346  0.8337
55424SOL    HW273323  11.591   3.757   5.538  0.3354 -0.7772  0.0484
55425SOL     OW73324  11.803  10.682  11.095 -0.1335 -0.4774  0.2795
55425SOL    HW173325  11.714  10.669  11.126 -0.2588 -0.8083 -0.2145
55425SOL    HW273326  11.794  10.731  11.013  0.1981  0.4108  0.7582
55426SOL     OW73327   7.529   7.430   9.466  0.4184  0.4748  0.1876
55426SOL    HW173328   7.457   7.372   9.439  0.7613 -0.6771  1.5892
55426SOL    HW273329   7.568   7.460   9.385 -1.6210  1.1122 -0.6180
55427SOL     OW73330   1.953   4.602   3.233 -0.1649 -0.4154  0.4200
55427SOL    HW173331   1.885   4.542   3.202 -1.6361  0.6488  1.4234
55427SOL    HW273332   2.032   4.548   3.238 -0.6222 -1.4350 -1.8497
55428SOL     OW73333   2.120   5.452   6.667 -0.1725  0.0353  0.1289
55428SOL    HW173334   2.035   5.446   6.623 -0.6314  0.7767  0.8728
55428SOL    HW273335   2.167   5.521   6.621 -0.5694  0.6629  0.6418
55429SOL     OW73336   2.128   7.714   2.403 -0.4261  0.0156  0.0918
55429SOL    HW173337   2.163   7.741   2.318 -0.2068  0.3887  0.3040
55429SOL    HW273338   2.128   7.793   2.456 -1.0749 -0.0926  0.2722
55430SOL     OW73339   8.859   4.425   4.399  0.0782  0.4836  0.0172
55430SOL    HW173340   8.864   4.394   4.489  0.6895  0.1237 -0.1428
55430SOL    HW273341   8.897   4.355   4.346 -2.5433 -0.4627 -0.8004
55431SOL     OW73342  10.858   6.514  12.319  0.4418  0.4419 -0.6692
55431SOL    HW173343  10.896   6.601  12.310 -0.0256  1.0075  2.0252
55431SOL    HW273344  10.922   6.464  12.370 -0.0490 -0.2446 -0.7068
55432SOL     OW73345   3.216   4.472   2.371 -0.2958 -0.0140  0.1221
55432SOL    HW173346   3.245   4.505   2.285  0.0268 -0.0173  0.2259
55432SOL    HW273347   3.129   4.435   2.355 -0.3597  0.2493 -0.1423
55433SOL     OW73348   4.210  10.647   9.368 -0.1837  0.1457  0.2017
55433SOL    HW173349   4.270  10.580   9.335 -2.0916 -1.4176 -0.2805
55433SOL    HW273350   4.209  10.714   9.300  0.0031 -0.4675 -0.4193
55434SOL     OW73351  10.516   3.382  10.516 -0.1589  0.0407 -0.0911
55434SOL    HW173352  10.601   3.425  10.528 -0.2304  0.8239 -1.9560
55434SOL    HW273353  10.454   3.455  10.506 -0.5709 -0.4868 -1.5548
55435SOL     OW73354   6.860   1.649   7.506 -0.9440  0.3688  0.5434
55435SOL    HW173355   6.810   1.617   7.581 -0.4753 -1.5267  0.0862
55435SOL    HW273356   6.926   1.707   7.543 -1.0136 -0.1812  1.5396
55436SOL     OW73357   4.916   1.901  10.779 -0.3886 -0.4368 -0.0526
55436SOL    HW173358   4.886   1.901  10.870 -0.1842  2.1812  0.0690
55436SOL    HW273359   4.870   1.827  10.739 -2.3912 -0.1527  1.5720
55437SOL     OW73360   9.437   3.826   0.808  0.1761 -0.2552 -0.0414
55437SOL    HW173361   9.410   3.777   0.887  0.8293 -1.0009 -0.2740
55437SOL    HW273362   9.466   3.911   0.841  1.5565 -0.9722  0.6708
55438SOL     OW73363   9.599   5.385   6.505 -0.2109 -0.6721  0.7641
55438SOL    HW173364   9.691   5.375   6.482  0.2320  1.2774  1.5330
55438SOL    HW273365   9.599   5.403   6.599 -1.2518  0.5794  0.5605
55439SOL     OW73366   9.662   4.587   3.535  0.2612  0.2572 -0.3743
55439SOL    HW173367   9.641   4.537   3.614  0.4259 -1.1742 -1.1940
55439SOL    HW273368   9.659   4.678   3.562 -1.1820 -0.1406  0.9275
55440SOL     OW73369   3.309  11.532  10.637  0.9574 -0.0177 -0.1782
55440SOL    HW173370   3.313  11.497  10.726 -0.8459  1.1812  0.4338
55440SOL    HW273371   3.377  11.484  10.589  1.2405 -1.4573  1.5603
55441SOL     OW73372   2.016  10.367  11.900 -0.4043 -0.1968  0.0549
55441SOL    HW173373   2.014  10.386  11.807  0.7900 -0.2794 -0.0032
55441SOL    HW273374   2.107  10.342  11.918 -0.7735 -0.8687  1.1040
55442SOL     OW73375   1.611   5.911   8.621  0.1737  0.2000 -0.1276
55442SOL    HW173376   1.654   5.848   8.562  1.2855  1.6539 -0.9324
55442SOL    HW273377   1.519   5.908   8.595  0.3882 -0.3385 -0.8878
55443SOL     OW73378   4.249   8.887   8.872 -0.2382  0.3928  0.2167
55443SOL    HW173379   4.211   8.960   8.824  0.0248  0.6589  0.4080
55443SOL    HW273380   4.242   8.812   8.812 -1.2480  0.3894  0.3362
55444SOL     OW73381   7.210   2.514   1.595  0.1272  0.0306  0.0821
55444SOL    HW173382   7.161   2.595   1.578 -1.9119 -1.6939 -3.3360
55444SOL    HW273383   7.151   2.462   1.649 -0.8008 -1.0183 -1.8518
55445SOL     OW73384   6.510  11.155   8.100 -0.2258 -0.0535  0.2742
55445SOL    HW173385   6.523  11.247   8.123  0.0362 -0.3565  1.4156
55445SOL    HW273386   6.514  11.153   8.004 -1.3460  1.2837  0.1702
55446SOL     OW73387  10.945   1.730   6.007  0.0596  0.5609  0.5267
55446SOL    HW173388  10.968   1.805   5.952 -0.2354 -0.1260 -0.5868
55446SOL    HW273389  10.876   1.762   6.065 -0.7557  0.9214 -0.5962
55447SOL     OW73390   6.495  12.145  11.590 -0.2365  0.3234  0.4973
55447SOL    HW173391   6.521  12.054  11.606 -0.8430  0.2677  1.1725
55447SOL    HW273392   6.559  12.176  11.525 -0.8087 -0.9686 -0.7285
55448SOL     OW73393   6.900   9.164  10.606  0.6233 -0.2363 -0.0570
55448SOL    HW173394   6.945   9.144  10.524 -0.2435 -1.4594 -0.2596
55448SOL    HW273395   6.910   9.085  10.660  0.5942  0.2930  0.7447
55449SOL     OW73396   8.445   4.665  10.752  0.2758 -0.4712 -0.3095
55449SOL    HW173397   8.478   4.575  10.759  0.5471 -0.3886 -0.4836
55449SOL    HW273398   8.404   4.682  10.837  0.0062 -0.8438 -0.3628
55450SOL     OW73399   5.946   6.897   1.328  0.3128 -0.6179 -0.0537
55450SOL    HW173400   5.914   6.981   1.294 -0.8702 -1.6588 -1.6963
55450SOL    HW273401   5.989   6.919   1.410 -1.1800  1.4204  0.2721
55451SOL     OW73402  11.137   5.481  12.079 -0.6136  0.1646 -0.7669
55451SOL    HW173403  11.223   5.451  12.050 -0.1204 -0.1664  0.8867
55451SOL    HW273404  11.135   5.574  12.056  0.2225  0.1907 -0.7606
55452SOL     OW73405   0.662   8.230   0.468 -0.0843  0.4882 -0.3316
55452SOL    HW173406   0.736   8.290   0.478  0.6754 -0.2838 -1.1497
55452SOL    HW273407   0.596   8.262   0.530  0.7514  1.4645  0.0736
55453SOL     OW73408   1.015  12.261   2.787 -0.4491  0.4691  0.4335
55453SOL    HW173409   1.009  12.180   2.839 -1.9435  0.6959  0.6516
55453SOL    HW273410   0.925  12.292   2.780 -0.0563  1.4020 -0.8124
55454SOL     OW73411   2.382   4.710  12.559  0.1689 -0.2112 -0.1335
55454SOL    HW173412   2.388   4.772  12.633 -0.9397  0.3887 -0.5224
55454SOL    HW273413   2.400   4.764  12.482 -0.3207 -0.4762 -0.4358
55455SOL     OW73414   4.305   4.771  10.862 -0.1247  0.6207  0.2915
55455SOL    HW173415   4.305   4.820  10.780  1.0480  0.5069  0.2123
55455SOL    HW273416   4.214   4.742  10.872 -0.0771 -0.3025 -1.5300
55456SOL     OW73417  10.006   2.360   6.176  0.5843 -0.0884  0.9709
55456SOL    HW173418  10.050   2.381   6.094  2.8100  0.4719  2.2274
55456SOL    HW273419   9.938   2.297   6.152  2.0585 -0.9758 -1.1133
55457SOL     OW73420   9.947   4.762   7.652 -0.1044 -0.7519  0.1325
55457SOL    HW173421   9.998   4.819   7.594 -2.4824  0.3605 -0.9946
55457SOL    HW273422  10.010   4.732   7.717  1.6952  1.5699 -0.3939
55458SOL     OW73423  10.807   3.520  12.273  0.2120 -0.0355 -0.2428
55458SOL    HW173424  10.790   3.584  12.204  1.5606  1.2650  0.5743
55458SOL    HW273425  10.767   3.557  12.351  0.3138 -0.5946  0.0834
55459SOL     OW73426   3.699  11.548   2.718 -0.8545 -0.4016 -0.3721
55459SOL    HW173427   3.650  11.514   2.643 -0.6456  0.0031 -0.6925
55459SOL    HW273428   3.661  11.635   2.734  1.0383  0.7991 -1.8767
55460SOL     OW73429  10.634   2.364  11.609  0.0764  0.4166 -0.1133
55460SOL    HW173430  10.655   2.453  11.637  1.7663 -0.0835  0.2934
55460SOL    HW273431  10.574   2.332  11.676 -0.6623  1.2860 -0.3408
55461SOL     OW73432   8.148   5.398   7.496  0.0903 -0.2192 -0.1350
55461SOL    HW173433   8.161   5.443   7.413 -2.7155  0.5705 -0.2725
55461SOL    HW273434   8.140   5.469   7.560  1.5530 -0.7947  0.7153
55462SOL     OW73435   1.062   5.524   2.895  0.0478  0.4265 -0.0132
55462SOL    HW173436   1.010   5.457   2.852  3.5449 -1.6315 -1.4469
55462SOL    HW273437   1.096   5.578   2.824  1.1210  0.6910  0.6691
55463SOL     OW73438  10.926   2.531  12.552 -0.4108  0.2518 -0.2358
55463SOL    HW173439  10.858   2.597  12.562  0.7145  1.6308 -1.3083
55463SOL    HW273440  11.008   2.581  12.550  0.7361 -1.3932  1.6250
55464SOL     OW73441   1.015   1.946   1.699 -0.3133  0.6852  0.4879
55464SOL    HW173442   0.995   2.039   1.709 -0.8598  0.3992  2.3021
55464SOL    HW273443   0.980   1.924   1.612  1.7197  2.6068 -0.9437
55465SOL     OW73444   2.531   9.674   3.537 -0.0749 -0.2614  0.2094
55465SOL    HW173445   2.592   9.733   3.583  1.0531 -1.2801  0.0736
55465SOL    HW273446   2.548   9.691   3.444 -1.8037  1.2361  0.1187
55466SOL     OW73447  10.377   3.214   2.296  0.0674  0.5270 -0.2021
55466SOL    HW173448  10.456   3.178   2.336  1.0941  0.1261 -2.4467
55466SOL    HW273449  10.333   3.138   2.258 -0.1597  1.0348 -0.9790
55467SOL     OW73450   3.673   1.582   9.995 -0.5269  0.1283  0.2404
55467SOL    HW173451   3.765   1.558   9.986 -0.2597  1.5810 -1.6866
55467SOL    HW273452   3.644   1.539  10.075  1.7148 -0.6857  0.6789
55468SOL     OW73453   6.318   5.422   8.779  0.1459  0.1202  0.5581
55468SOL    HW173454   6.400   5.431   8.731  0.6413  0.5314  1.4695
55468SOL    HW273455   6.309   5.504   8.828 -0.8640  0.1292  0.3852
55469SOL     OW73456   0.238   7.012   1.303 -0.3843 -0.6605  0.4743
55469SOL    HW173457   0.270   6.964   1.227 -1.2691 -1.5244  0.6190
55469SOL    HW273458   0.260   6.956   1.378 -1.4698 -0.8843  0.6423
55470SOL     OW73459   2.336   0.269   0.208  0.4263 -0.0953  0.0500
55470SOL    HW173460   2.317   0.323   0.285  0.7429 -1.1724  0.9035
55470SOL    HW273461   2.431   0.261   0.206  0.4088 -0.2435 -0.3292
55471SOL     OW73462   9.274   7.714   4.815 -0.2459 -0.1404  0.7054
55471SOL    HW173463   9.239   7.798   4.786  1.0789  0.4965  0.8753
55471SOL    HW273464   9.335   7.688   4.746 -1.9013 -1.8689 -0.2249
55472SOL     OW73465   6.901   5.975  11.175  0.3741 -0.1381 -0.1129
55472SOL    HW173466   6.911   5.880  11.182 -0.8014 -0.2819 -0.0355
55472SOL    HW273467   6.931   6.009  11.260 -2.0275 -0.7444  1.0707
55473SOL     OW73468  11.679   1.423   5.224 -0.2171 -0.1258 -0.5927
55473SOL    HW173469  11.702   1.341   5.181  0.7227  0.4466 -1.2253
55473SOL    HW273470  11.698   1.409   5.317  3.6611  0.5568 -1.1406
55474SOL     OW73471   6.016   9.651   1.997  0.2619  0.4702 -0.3912
55474SOL    HW173472   5.999   9.558   1.981  1.4233  0.3688 -1.1853
55474SOL    HW273473   5.981   9.695   1.921 -2.1129  0.9343  0.8889
55475SOL     OW73474   8.398   0.991   0.840  0.2424  0.3003 -0.1027
55475SOL    HW173475   8.468   1.034   0.791 -0.6425 -0.1052 -1.8283
55475SOL    HW273476   8.348   0.943   0.773 -1.1155 -0.1905  1.1989
55476SOL     OW73477  11.301   1.474   9.462 -0.0496  0.0787 -0.4761
55476SOL    HW173478  11.261   1.543   9.410  2.1311  1.3963 -0.5606
55476SOL    HW273479  11.348   1.421   9.398 -0.8815 -0.9051 -0.2923
55477SOL     OW73480   2.785   2.055  10.624  0.0237  0.6533 -0.4978
55477SOL    HW173481   2.748   2.090  10.705 -0.6971  0.8141 -0.8839
55477SOL    HW273482   2.864   2.008  10.651 -0.6536 -0.0036  0.4012
55478SOL     OW73483   8.479   9.368   8.201  0.6497  0.4972  0.1813
55478SOL    HW173484   8.394   9.374   8.157  0.9804  2.8627 -0.2947
55478SOL    HW273485   8.458   9.374   8.294  0.1643 -1.3255  0.2179
55479SOL     OW73486   8.498   7.912   9.836 -0.5626  0.2179  0.2116
55479SOL    HW173487   8.547   7.872   9.764 -1.1048 -0.4401  0.2024
55479SOL    HW273488   8.522   7.861   9.913  0.3326  1.1737  0.5970
55480SOL     OW73489   7.968   9.600  10.387  0.1167  0.6944 -0.0814
55480SOL    HW173490   8.021   9.632  10.314  1.1148 -1.1768 -0.2285
55480SOL    HW273491   7.956   9.507  10.369 -0.8519  0.5015  1.4139
55481SOL     OW73492   9.571   9.591   3.287  0.4933 -0.0782  0.5436
55481SOL    HW173493   9.533   9.505   3.269 -0.1561  0.1905  0.6182
55481SOL    HW273494   9.543   9.611   3.377 -0.6375  0.8747 -0.0003
55482SOL     OW73495   5.421   3.677   6.152 -0.4462  0.0861  0.3629
55482SOL    HW173496   5.366   3.652   6.227 -0.4102  1.5326  0.8993
55482SOL    HW273497   5.373   3.748   6.110 -1.1350 -1.5801 -1.8420
55483SOL     OW73498   5.956   3.657   1.939  0.3119  0.2691 -0.1294
55483SOL    HW173499   5.871   3.687   1.906  0.2018  2.4978  1.9176
55483SOL    HW273500   6.014   3.663   1.863 -0.7622  1.4385 -0.9010
55484SOL     OW73501   7.027   3.304   8.739 -0.5198  0.3290 -0.9854
55484SOL    HW173502   7.097   3.250   8.703 -0.6894  0.9662 -2.3383
55484SOL    HW273503   6.980   3.337   8.663 -2.0604  0.2527 -0.1165
55485SOL     OW73504   9.647  10.480   5.522  0.3276  0.5845  0.2340
55485SOL    HW173505   9.627  10.471   5.616 -1.1491 -0.9539 -0.1761
55485SOL    HW273506   9.672  10.392   5.494  0.6826  1.0117 -0.8270
55486SOL     OW73507  11.621   8.356   7.720  0.0320  0.5207 -0.4256
55486SOL    HW173508  11.701   8.325   7.762 -0.7260 -0.5951  0.2547
55486SOL    HW273509  11.615   8.448   7.743  0.3583  0.2518  0.7770
55487SOL     OW73510   4.872   6.966  12.279  0.0836 -0.0323 -0.1227
55487SOL    HW173511   4.818   7.021  12.335  2.4348  1.9854  0.3302
55487SOL    HW273512   4.863   7.005  12.192  0.3136 -0.0973 -0.1753
55488SOL     OW73513   8.284   9.225   1.548 -0.0805  0.5790 -0.3026
55488SOL    HW173514   8.269   9.146   1.599 -1.3577  0.5270 -0.7492
55488SOL    HW273515   8.211   9.229   1.486 -0.5856  2.6109  0.3500
55489SOL     OW73516   0.081  11.165   4.351  0.3647 -0.6236  0.2800
55489SOL    HW173517  -0.007  11.146   4.318 -1.2392  3.9765  1.1370
55489SOL    HW273518   0.133  11.181   4.272 -1.0458  1.4522 -0.3395
55490SOL     OW73519   0.834   3.585   5.482  0.0289  0.4223 -0.4757
55490SOL    HW173520   0.764   3.572   5.546  1.1715 -0.7227  0.5923
55490SOL    HW273521   0.911   3.604   5.535  1.4957 -2.6883 -1.3317
55491SOL     OW73522   1.695  10.780   0.208  0.3679 -0.1769 -0.0542
55491SOL    HW173523   1.719  10.738   0.291  3.0162  0.6538 -0.3326
55491SOL    HW273524   1.718  10.715   0.141 -0.1054 -0.1480 -0.2511
55492SOL     OW73525   8.508   5.022   8.798  0.1323 -0.0760 -0.4101
55492SOL    HW173526   8.534   4.941   8.842  0.1834 -0.4364 -1.0873
55492SOL    HW273527   8.545   5.091   8.852  2.5150 -0.5581 -1.2772
55493SOL     OW73528   4.759   1.023   9.437  0.6001  0.3178 -0.2321
55493SOL    HW173529   4.669   1.016   9.404  0.6042  0.7073 -0.3334
55493SOL    HW273530   4.799   0.939   9.415 -0.0258 -0.2436  0.6854
55494SOL     OW73531   3.270   1.571   7.485  0.0665  0.0731 -0.4018
55494SOL    HW173532   3.329   1.507   7.444 -0.2536 -0.3376 -0.2275
55494SOL    HW273533   3.329   1.628   7.535  0.1761 -1.8190  1.8006
55495SOL     OW73534   6.791  12.225  11.143 -0.1931  0.0252  0.0779
55495SOL    HW173535   6.799  12.315  11.112  0.3201 -0.6492 -1.9487
55495SOL    HW273536   6.803  12.172  11.064  0.2976 -1.8411  1.3390
55496SOL     OW73537   9.812   6.280  10.624 -0.1747 -0.6794  0.4731
55496SOL    HW173538   9.802   6.375  10.629  1.7281 -0.4704  0.9179
55496SOL    HW273539   9.847   6.264  10.536 -0.7200 -1.0204  0.3063
55497SOL     OW73540   6.248   6.343   8.318  0.0308 -0.3687 -0.0347
55497SOL    HW173541   6.232   6.259   8.274 -0.0905 -0.4371  0.1370
55497SOL    HW273542   6.332   6.372   8.284  0.1439 -0.6333  0.0146
55498SOL     OW73543   0.797   5.828   7.025 -0.3356  0.2191 -0.0623
55498SOL    HW173544   0.761   5.914   7.005  1.1290  0.7586 -0.4901
55498SOL    HW273545   0.765   5.808   7.113 -1.6807  0.6344 -0.4277
55499SOL     OW73546   1.367   3.553   7.183  0.0607  0.4410 -0.5954
55499SOL    HW173547   1.445   3.568   7.129  0.0372 -0.4678 -0.8975
55499SOL    HW273548   1.300   3.609   7.144 -0.0656 -0.5046 -1.7784
55500SOL     OW73549   6.823   4.706  11.281  0.0349  0.2410 -0.2735
55500SOL    HW173550   6.893   4.759  11.318 -0.5917  0.4553  0.6447
55500SOL    HW273551   6.865   4.622  11.260  0.9264  0.9242 -1.3144
55501SOL     OW73552   9.982   0.875   2.421 -0.0390  0.4282 -0.1145
55501SOL    HW173553  10.066   0.854   2.463 -0.1509 -0.6402 -0.3860
55501SOL    HW273554   9.930   0.795   2.432 -0.9636  1.0247 -0.0937
55502SOL     OW73555   0.713   7.750   0.215 -0.2551  0.3762  0.5481
55502SOL    HW173556   0.792   7.794   0.184 -0.0463 -0.1565  0.2982
55502SOL    HW273557   0.668   7.814   0.269 -1.2375  1.8082 -1.8119
55503SOL     OW73558  12.583  10.335   3.878  0.0680 -0.0141  0.9874
55503SOL    HW173559  12.572  10.394   3.954  2.1874 -1.6790  2.7144
55503SOL    HW273560  12.527  10.260   3.899  0.6286 -0.4603  0.8711
55504SOL     OW73561   7.544   2.994   6.633 -0.0918 -0.2144  0.0209
55504SOL    HW173562   7.577   2.905   6.619 -1.2239 -0.5260 -0.7647
55504SOL    HW273563   7.466   3.000   6.578  0.8077  1.7821 -1.1456
55505SOL     OW73564   3.876  10.342   9.738 -0.3897  0.2662  0.2303
55505SOL    HW173565   3.826  10.411   9.694 -0.0640 -1.1949 -2.6745
55505SOL    HW273566   3.809  10.287   9.779 -1.2113 -0.9795 -2.5656
55506SOL     OW73567   7.426   3.400  10.121 -0.5174  0.4673 -0.0391
55506SOL    HW173568   7.421   3.321  10.175  0.2856  0.7672  0.4892
55506SOL    HW273569   7.335   3.428  10.111 -0.6324  0.9640  2.0052
55507SOL     OW73570   9.503  11.369  10.687 -0.3525  0.6896 -0.1055
55507SOL    HW173571   9.522  11.287  10.733  1.0335  0.7857 -0.4387
55507SOL    HW273572   9.473  11.429  10.755  0.0015  0.3147  0.3917
55508SOL     OW73573   1.735   1.101  12.198  0.2146 -0.0489 -0.0702
55508SOL    HW173574   1.762   1.078  12.287 -1.6478  0.6654  0.7491
55508SOL    HW273575   1.639   1.104  12.202  0.1313  2.8115 -1.3315
55509SOL     OW73576   8.904   2.131   6.648 -0.1194 -0.4738 -0.0615
55509SOL    HW173577   8.910   2.077   6.727 -3.4141 -0.9627 -0.0211
55509SOL    HW273578   8.811   2.145   6.635  0.4668  2.9781 -1.6533
55510SOL     OW73579   0.461   5.044   9.302 -0.0353 -0.8725  0.4464
55510SOL    HW173580   0.530   5.007   9.247  0.7913 -1.5456  1.8818
55510SOL    HW273581   0.476   5.006   9.388 -0.0934  1.6521  1.6581
55511SOL     OW73582   6.819   7.218   7.751 -0.2173  0.3387 -0.2429
55511SOL    HW173583   6.820   7.143   7.691 -0.5357 -1.8589  2.3251
55511SOL    HW273584   6.911   7.244   7.758  0.0036 -0.3092 -0.5854
55512SOL     OW73585  10.133  11.140  11.905 -0.2263  0.0698 -0.3815
55512SOL    HW173586  10.061  11.188  11.864 -0.5686  0.3058  0.4914
55512SOL    HW273587  10.203  11.206  11.915 -0.3356  0.1434 -0.0995
55513SOL     OW73588   8.315   4.389   0.929  0.2329 -0.1355 -0.5741
55513SOL    HW173589   8.351   4.334   0.859  1.0308 -0.6194  0.1923
55513SOL    HW273590   8.361   4.472   0.920 -0.0353 -0.0232 -0.9336
55514SOL     OW73591   4.059  10.011   6.016  0.0456 -0.3102 -0.0947
55514SOL    HW173592   4.101  10.092   6.043  0.0613 -0.0722 -0.8128
55514SOL    HW273593   3.989  10.038   5.958 -0.4362 -0.7723  0.2578
55515SOL     OW73594   8.182   2.954   3.233 -0.6148  0.4086  0.2741
55515SOL    HW173595   8.212   2.953   3.324 -1.8999 -0.1333  0.7186
55515SOL    HW273596   8.089   2.932   3.238 -0.3166 -1.5452 -1.3148
55516SOL     OW73597   3.069   2.747   3.971  0.3853  0.2910  0.0606
55516SOL    HW173598   3.119   2.770   3.892 -2.1478 -0.3888 -1.8822
55516SOL    HW273599   3.060   2.652   3.966 -1.9316  0.4704 -0.2882
55517SOL     OW73600  11.434   4.450   1.106 -0.0686 -0.2633 -0.1941
55517SOL    HW173601  11.444   4.522   1.169 -0.8748 -0.7668  0.5202
55517SOL    HW273602  11.490   4.476   1.032  1.5827 -0.0635  1.0518
55518SOL     OW73603   7.790   9.096   2.109 -0.1710 -0.2820  0.1696
55518SOL    HW173604   7.714   9.042   2.129 -0.3201 -1.3026 -2.6728
55518SOL    HW273605   7.864   9.045   2.141 -0.4544 -1.2431 -0.6471
55519SOL     OW73606   0.008   7.514   2.051  0.3617 -0.0082 -0.1766
55519SOL    HW173607  -0.075   7.500   2.005  0.8325  0.8125 -1.3112
55519SOL    HW273608  -0.007   7.591   2.105  0.5999  0.5925 -0.9519
55520SOL     OW73609   2.899  11.463   0.869  0.2645  0.0893  0.0299
55520SOL    HW173610   2.813  11.467   0.909  0.7834 -1.4433  1.4043
55520SOL    HW273611   2.882  11.441   0.777 -0.9061  3.0674 -0.6060
55521SOL     OW73612  11.954  11.456   0.774  0.1931 -0.0068 -0.2202
55521SOL    HW173613  11.912  11.509   0.842 -1.5143 -0.6684 -0.7131
55521SOL    HW273614  12.015  11.399   0.822 -0.3785  0.1117  0.6638
55522SOL     OW73615   0.127  10.475  12.471  0.7793 -0.4952 -0.6600
55522SOL    HW173616   0.173  10.394  12.449  1.5331 -0.1077 -0.5598
55522SOL    HW273617   0.166  10.541  12.413  0.0948 -0.2237 -0.8219
55523SOL     OW73618   4.537  12.489   6.026  0.1636  0.1606 -0.4014
55523SOL    HW173619   4.608  12.483   6.090 -0.0771 -0.9765 -0.2211
55523SOL    HW273620   4.571  12.444   5.948 -1.1725 -2.5895  0.4765
55524SOL     OW73621  11.915   7.947   7.669 -0.3370 -0.2775 -0.3897
55524SOL    HW173622  11.920   7.902   7.754 -1.1375  0.7055  0.2035
55524SOL    HW273623  11.993   8.001   7.665  1.7429 -3.1341 -2.0166
55525SOL     OW73624  10.686  10.612   8.438  0.2559 -0.2679 -0.5705
55525SOL    HW173625  10.670  10.591   8.530  1.2642 -0.1544 -0.3554
55525SOL    HW273626  10.599  10.626   8.401 -0.1293  0.3644  0.5286
55526SOL     OW73627   5.614   5.260  11.930  0.0661  0.6229 -0.0051
55526SOL    HW173628   5.640   5.170  11.910 -2.2817 -0.2309  0.5038
55526SOL    HW273629   5.689   5.313  11.904  0.9839 -1.3471 -1.6022
55527SOL     OW73630   3.474   7.449   4.876  0.2136 -0.7115 -0.8968
55527SOL    HW173631   3.485   7.539   4.904 -1.0559 -0.2999 -1.6378
55527SOL    HW273632   3.499   7.396   4.952 -0.2248  0.2906 -0.0417
55528SOL     OW73633   1.105   0.731  11.153  0.0910 -0.3961  0.3385
55528SOL    HW173634   1.120   0.799  11.088 -0.1516 -2.1610 -1.6796
55528SOL    HW273635   1.011   0.711  11.146  0.2281 -1.1970  0.6220
55529SOL     OW73636   3.600  12.266   6.806  0.0175  0.5927 -0.2642
55529SOL    HW173637   3.686  12.231   6.832 -0.3712  1.0067  1.7103
55529SOL    HW273638   3.616  12.360   6.794 -0.1916  0.6850  0.2035
55530SOL     OW73639   4.566  10.112   0.721  0.6148  0.0982  0.3925
55530SOL    HW173640   4.496  10.176   0.736  0.4605  0.4165 -1.3783
55530SOL    HW273641   4.647  10.163   0.725  0.6018  0.1052  0.5498
55531SOL     OW73642  10.895   8.248   6.139 -0.2830 -0.2055  0.1589
55531SOL    HW173643  10.916   8.304   6.213 -0.1359 -1.9177  1.4700
55531SOL    HW273644  10.814   8.285   6.103 -0.5930  0.4231  1.4522
55532SOL     OW73645   4.878   3.889   1.410  0.0482 -0.1680 -0.1136
55532SOL    HW173646   4.933   3.947   1.463 -0.1353  0.1269 -0.2403
55532SOL    HW273647   4.889   3.803   1.450 -0.7427  0.1891  0.9463
55533SOL     OW73648   8.589  12.105   1.374 -0.0169 -0.2123  0.1749
55533SOL    HW173649   8.682  12.121   1.358 -0.0375  0.2683  0.4888
55533SOL    HW273650   8.580  12.010   1.376  0.9774 -0.3163  2.8827
55534SOL     OW73651  11.492  10.559   2.036  0.0529  0.0151 -0.5022
55534SOL    HW173652  11.554  10.504   1.988  1.2524  0.8862  0.0133
55534SOL    HW273653  11.425  10.497   2.067  1.7113 -1.3099  0.6426
55535SOL     OW73654   4.345   0.172   0.612 -1.2475 -0.4962  0.5397
55535SOL    HW173655   4.303   0.178   0.526 -2.4465 -1.2646  1.0425
55535SOL    HW273656   4.344   0.261   0.646 -0.7323 -0.1770 -0.2370
55536SOL     OW73657   4.157  12.432   0.165  0.2605  0.3738 -0.1444
55536SOL    HW173658   4.235  12.487   0.161  0.6947  0.0059  2.1192
55536SOL    HW273659   4.132  12.432   0.258 -2.6668  0.7870 -0.8237
55537SOL     OW73660   7.197   3.202  10.975 -0.2516 -0.2532 -0.4853
55537SOL    HW173661   7.289   3.213  10.952  0.7521 -2.6084  1.9134
55537SOL    HW273662   7.183   3.264  11.047 -0.6829  0.3862 -1.1082
55538SOL     OW73663  10.363   6.077   4.713  0.0792 -0.7680  0.7507
55538SOL    HW173664  10.380   6.045   4.802 -0.8948 -1.3399  0.7436
55538SOL    HW273665  10.439   6.131   4.692 -0.0151 -0.0165  2.2168
55539SOL     OW73666   7.870   5.702   2.505  0.4628  0.1966 -0.5339
55539SOL    HW173667   7.824   5.741   2.430 -1.3499 -0.6695  0.0564
55539SOL    HW273668   7.817   5.625   2.528  0.4028  0.9326  2.1852
55540SOL     OW73669   1.372   7.907   5.500 -0.1140 -0.2300  0.5261
55540SOL    HW173670   1.391   7.828   5.550 -1.2389 -0.4977  0.5567
55540SOL    HW273671   1.400   7.888   5.411  0.3306 -0.3689  0.6924
55541SOL     OW73672   2.819   2.100   2.166 -0.7125  0.0285  0.2007
55541SOL    HW173673   2.912   2.114   2.180 -0.5562 -1.6289  1.0612
55541SOL    HW273674   2.809   2.101   2.070  0.2162  0.0140  0.0953
55542SOL     OW73675   6.270   7.247  12.274  0.0294 -0.4143 -0.6719
55542SOL    HW173676   6.314   7.165  12.251  1.8021  0.2038  0.3024
55542SOL    HW273677   6.178   7.232  12.252  0.1694 -2.9216  0.0911
55543SOL     OW73678   6.757  10.109   6.632  0.3608  0.2541  0.3941
55543SOL    HW173679   6.848  10.077   6.629  0.4298  0.4620  0.2537
55543SOL    HW273680   6.763  10.200   6.603  0.1587  0.3883  0.7798
55544SOL     OW73681  10.400  11.784   2.463 -0.6263  0.2918 -0.1604
55544SOL    HW173682  10.402  11.880   2.463 -1.3605  0.3485  1.8143
55544SOL    HW273683  10.491  11.758   2.480 -0.6164  0.6712  0.3856
55545SOL     OW73684  12.506   5.793   3.974 -0.4703 -0.3482 -0.0410
55545SOL    HW173685  12.473   5.839   3.897  1.1030 -1.2034 -1.3015
55545SOL    HW273686  12.454   5.712   3.978  1.3316 -1.7319 -2.0642
55546SOL     OW73687   8.194   7.624   5.953  0.2793 -0.0126 -0.4675
55546SOL    HW173688   8.130   7.690   5.978  1.2172  0.3576  1.1501
55546SOL    HW273689   8.145   7.560   5.903 -1.0629  0.9174 -0.3968
55547SOL     OW73690   5.163   2.454   3.530 -0.2651  0.3949 -0.6759
55547SOL    HW173691   5.250   2.475   3.497 -0.0407 -0.8835 -0.9683
55547SOL    HW273692   5.178   2.410   3.613 -0.4914 -1.3304 -1.4954
55548SOL     OW73693  12.347   8.421   9.011  0.0873 -0.3382  0.6187
55548SOL    HW173694  12.428   8.457   8.975  0.0515 -0.2526  0.6223
55548SOL    HW273695  12.325   8.480   9.084 -0.0226 -0.3130  0.5647
55549SOL     OW73696   8.164   8.499  11.222 -0.1395 -0.4423  0.0688
55549SOL    HW173697   8.242   8.553  11.212  1.0964 -1.8768  1.4412
55549SOL    HW273698   8.140   8.508  11.314  0.5008 -2.7046  0.5061
55550SOL     OW73699   1.719   1.821   2.337  1.2516 -0.1987  0.3579
55550SOL    HW173700   1.796   1.878   2.343  0.8188  0.6864 -1.6038
55550SOL    HW273701   1.741   1.757   2.270  0.6654 -0.5702  0.5111
55551SOL     OW73702   6.227   8.433   0.195 -0.3340 -0.5114 -0.0799
55551SOL    HW173703   6.136   8.410   0.177 -0.1556  0.8440 -3.4378
55551SOL    HW273704   6.228   8.529   0.192  0.8882 -0.3877  2.1903
55552SOL     OW73705   2.434   4.677  11.944  0.4239  0.1099 -0.4526
55552SOL    HW173706   2.339   4.663  11.952  0.0125  2.5910 -0.1225
55552SOL    HW273707   2.461   4.701  12.033  0.9821  1.2802 -0.9263
55553SOL     OW73708  12.554  10.170  10.642 -0.0766  0.0849  0.3365
55553SOL    HW173709  12.629  10.122  10.608  1.1758  0.9430  1.7507
55553SOL    HW273710  12.557  10.255  10.597 -1.7726 -0.7512 -1.5097
55554SOL     OW73711   5.573   8.479   4.564  0.2575 -0.8229 -0.5773
55554SOL    HW173712   5.642   8.507   4.624 -0.8916 -0.5600  0.6657
55554SOL    HW273713   5.614   8.480   4.478  0.9483  2.4368 -0.3400
55555SOL     OW73714  10.178   7.474  10.302 -0.0945  0.5848  0.2680
55555SOL    HW173715  10.197   7.522  10.383 -1.0916 -0.5638  1.2289
55555SOL    HW273716  10.097   7.427  10.321  0.2706 -0.6187 -1.0158
55556SOL     OW73717   6.644   4.714  10.699  0.0624 -0.0192 -0.2007
55556SOL    HW173718   6.652   4.621  10.723 -0.5107  0.0682  0.3798
55556SOL    HW273719   6.632   4.759  10.783  1.9463  0.7830 -0.3160
55557SOL     OW73720   7.784   4.698   7.344 -0.4867  0.5186  0.0288
55557SOL    HW173721   7.842   4.650   7.286 -0.1966  2.1331 -1.1057
55557SOL    HW273722   7.836   4.714   7.423  0.4608  1.4399 -0.7428
55558SOL     OW73723   0.529   6.085   4.251  0.3040 -0.1052 -0.0075
55558SOL    HW173724   0.608   6.122   4.290  0.6320  0.0063 -0.7690
55558SOL    HW273725   0.475   6.161   4.229 -0.4461 -0.2069  1.3671
55559SOL     OW73726   9.206   0.198   8.294 -0.1363 -0.3613  0.3598
55559SOL    HW173727   9.155   0.162   8.221  0.2575 -0.0301 -0.0818
55559SOL    HW273728   9.294   0.164   8.282  0.4443  1.3557 -0.5210
55560SOL     OW73729   0.323  11.438   9.235  0.7926  0.3202 -0.0638
55560SOL    HW173730   0.306  11.506   9.299  2.3021  0.2416  0.4343
55560SOL    HW273731   0.319  11.356   9.285 -0.5111  0.0422 -0.5659
55561SOL     OW73732  11.008  10.458  10.434 -0.1870 -0.3559  0.0753
55561SOL    HW173733  11.042  10.374  10.401  0.1341 -0.1953 -0.0149
55561SOL    HW273734  10.987  10.441  10.525  0.5243 -0.3586  0.2454
55562SOL     OW73735   1.629  12.262  11.558 -0.1404  0.3811  0.4293
55562SOL    HW173736   1.584  12.345  11.548 -1.4562 -0.3659 -0.0078
55562SOL    HW273737   1.631  12.246  11.653  1.5347  1.6234  0.6660
55563SOL     OW73738  10.512   2.084   6.700 -0.4056 -0.7503  0.0440
55563SOL    HW173739  10.584   2.034   6.741 -0.4592 -3.0864 -2.4164
55563SOL    HW273740  10.440   2.074   6.762  0.2108 -1.9869  0.6306
55564SOL     OW73741  10.805   8.850   9.681 -0.2982  0.2421  0.1619
55564SOL    HW173742  10.752   8.773   9.661 -0.5726  0.3002  0.6533
55564SOL    HW273743  10.806   8.855   9.776 -0.0061  0.6559  0.1407
55565SOL     OW73744   5.214  10.046   8.673  0.3581  0.3521 -0.1014
55565SOL    HW173745   5.251  10.134   8.668  1.4782 -0.0992 -0.0486
55565SOL    HW273746   5.201  10.031   8.767 -1.3454  1.0473 -0.1942
55566SOL     OW73747   0.362   6.224   2.186  0.3185  0.5636  0.9066
55566SOL    HW173748   0.289   6.278   2.217 -0.4335  0.8872 -1.2040
55566SOL    HW273749   0.386   6.263   2.102  1.8057 -0.5804  0.7600
55567SOL     OW73750  11.377   6.837   1.715  0.0369  0.4497  0.3552
55567SOL    HW173751  11.432   6.907   1.678 -1.4157  1.4516  0.0111
55567SOL    HW273752  11.382   6.850   1.809 -0.0977  0.9337  0.3001
55568SOL     OW73753   5.029   3.467   6.458  0.2611  0.4715  0.2846
55568SOL    HW173754   4.997   3.437   6.544  0.7151 -0.9140 -0.0023
55568SOL    HW273755   4.949   3.483   6.408 -0.0304  1.9713  1.1464
55569SOL     OW73756   2.475   5.114   3.313  0.2704 -0.1251 -0.2997
55569SOL    HW173757   2.483   5.090   3.221  1.8327  2.8730 -1.0754
55569SOL    HW273758   2.385   5.143   3.323  0.2548  0.0909 -1.0369
55570SOL     OW73759  11.199   2.372  11.350  0.2557  0.0020 -0.1251
55570SOL    HW173760  11.111   2.335  11.361  0.0357  0.9950  2.0032
55570SOL    HW273761  11.187   2.447  11.292 -0.3017  0.0607  0.0576
55571SOL     OW73762   1.941   4.019  11.502 -1.3372  0.3729 -0.6079
55571SOL    HW173763   1.896   4.069  11.571 -0.8523 -1.6202  1.2796
55571SOL    HW273764   2.027   3.999  11.540 -1.1477 -1.0147 -1.7007
55572SOL     OW73765   9.084   7.836   8.758  0.3474 -0.0634  0.2663
55572SOL    HW173766   9.037   7.764   8.717 -0.0590 -0.4001  1.2703
55572SOL    HW273767   9.126   7.883   8.686 -0.6290 -0.4117 -0.5499
55573SOL     OW73768  11.969   2.906  11.774  0.0427 -0.3602  0.4029
55573SOL    HW173769  12.040   2.842  11.787 -0.1562 -0.5619  0.4950
55573SOL    HW273770  12.010   2.990  11.793  0.5118 -0.3770 -0.4837
55574SOL     OW73771   3.657   6.013   2.384  0.0272 -0.4841  0.2836
55574SOL    HW173772   3.730   6.072   2.400 -0.3055  0.1792 -0.5817
55574SOL    HW273773   3.586   6.069   2.352 -0.2270 -1.3477 -0.7599
55575SOL     OW73774   7.602   5.842   2.488 -0.0359  0.0876 -0.2416
55575SOL    HW173775   7.654   5.817   2.411  0.3987 -1.6941  0.5875
55575SOL    HW273776   7.624   5.934   2.501 -0.1979  0.4716 -2.2871
55576SOL     OW73777   7.357   7.173  12.556 -0.3381  0.5352 -0.5639
55576SOL    HW173778   7.332   7.094  12.508  0.4936 -0.6301  0.7928
55576SOL    HW273779   7.452   7.165  12.566 -0.4241  0.9498  0.8244
55577SOL     OW73780   9.699   2.298   1.870 -0.0953  0.7288 -0.3449
55577SOL    HW173781   9.616   2.286   1.824  0.2767  0.6943 -1.0071
55577SOL    HW273782   9.688   2.380   1.918 -0.0939  1.3130 -1.3376
55578SOL     OW73783   7.326   6.555   8.495 -0.8812 -0.5163 -0.2054
55578SOL    HW173784   7.302   6.490   8.560 -2.7020 -0.6108 -0.9251
55578SOL    HW273785   7.418   6.576   8.515 -0.9009 -1.7262  1.3366
55579SOL     OW73786   1.636   2.759   0.289  0.1236  0.0251 -0.0228
55579SOL    HW173787   1.632   2.842   0.241 -3.4558  0.3009  0.5114
55579SOL    HW273788   1.573   2.702   0.244  0.1730 -1.3095  1.5166
55580SOL     OW73789   1.801   0.878  11.353 -0.5525 -0.6331 -0.3059
55580SOL    HW173790   1.831   0.892  11.263 -2.1174  2.1054 -0.5220
55580SOL    HW273791   1.880   0.886  11.406  0.1769 -0.8302 -1.3373
55581SOL     OW73792  10.598   8.661  10.249  0.0768  0.0337 -0.4216
55581SOL    HW173793  10.566   8.630  10.165  0.1372  0.2934 -0.5424
55581SOL    HW273794  10.690   8.682  10.235  0.2676 -0.5779 -0.1092
55582SOL     OW73795   2.332   2.638   8.957 -0.4467 -0.3010  0.6629
55582SOL    HW173796   2.300   2.557   8.919 -1.8675 -0.5534  2.2487
55582SOL    HW273797   2.409   2.661   8.905 -1.5793 -1.2057 -1.5331
55583SOL     OW73798  12.133   3.780   5.782  0.6528  0.7670 -0.6663
55583SOL    HW173799  12.126   3.726   5.704 -0.8547  0.2871 -0.2206
55583SOL    HW273800  12.224   3.811   5.781  0.6119  0.9552 -2.7029
55584SOL     OW73801   7.318   2.996   6.495  0.7070  0.3666  0.3431
55584SOL    HW173802   7.264   3.075   6.497 -0.3690 -0.3555  0.6218
55584SOL    HW273803   7.301   2.957   6.409 -1.7356 -1.5052  1.5288
55585SOL     OW73804   0.639  10.684   9.890  0.3381  0.6791 -0.1348
55585SOL    HW173805   0.718  10.729   9.858  0.0849  0.8440 -0.5423
55585SOL    HW273806   0.661  10.591   9.886 -0.2824  0.5462 -2.5721
55586SOL     OW73807   2.623   4.175   1.305  0.1239  0.3568 -0.1808
55586SOL    HW173808   2.644   4.085   1.331 -0.3816  0.5852  1.1070
55586SOL    HW273809   2.593   4.167   1.215  2.3746 -0.4300 -0.9369
55587SOL     OW73810  12.275   0.257   2.732 -0.2183  0.1652 -0.2375
55587SOL    HW173811  12.315   0.228   2.814 -0.1169 -1.8802 -0.9293
55587SOL    HW273812  12.328   0.215   2.664 -0.2717  1.8504 -1.3775
55588SOL     OW73813  12.394   3.496  10.890 -0.2297 -0.1465 -0.4495
55588SOL    HW173814  12.402   3.591  10.896 -0.1982 -0.0592 -1.6663
55588SOL    HW273815  12.386   3.467  10.981  1.1245  0.8872  0.0294
55589SOL     OW73816  10.404   0.775   7.090 -0.2669  0.2422 -0.0313
55589SOL    HW173817  10.496   0.789   7.070 -0.6368  2.8196 -0.3244
55589SOL    HW273818  10.387   0.833   7.164 -1.1825 -1.8524  1.4715
55590SOL     OW73819  10.950   1.257   0.314 -0.6569  0.3893 -0.2347
55590SOL    HW173820  10.995   1.333   0.278  0.0794  0.9252  1.7255
55590SOL    HW273821  10.857   1.279   0.310 -0.4567  1.3186  0.1643
55591SOL     OW73822   9.078   6.333   4.868  0.4761  0.3299 -0.0467
55591SOL    HW173823   9.076   6.240   4.891  1.1030  0.1460 -0.7160
55591SOL    HW273824   9.149   6.341   4.805 -0.8523  0.9128 -1.5260
55592SOL     OW73825   7.875   5.492   6.261  0.0122  0.2983  0.1866
55592SOL    HW173826   7.964   5.482   6.295  0.4127  2.4745 -0.0256
55592SOL    HW273827   7.831   5.410   6.282  1.4675 -0.0352  2.1636
55593SOL     OW73828   9.646   8.823   7.939  0.5599  0.1984  0.5471
55593SOL    HW173829   9.674   8.785   7.856  1.2000  1.1513  0.3158
55593SOL    HW273830   9.551   8.815   7.938  0.3894  1.8909 -1.1319
55594SOL     OW73831   0.642   3.275   2.978  0.6270  0.2363 -0.3001
55594SOL    HW173832   0.653   3.353   2.924 -0.0738  1.7049  1.5833
55594SOL    HW273833   0.677   3.299   3.064  0.1294 -1.4164  0.4176
55595SOL     OW73834   3.163   5.925   7.836 -0.7115  0.0204 -0.3306
55595SOL    HW173835   3.152   5.937   7.931 -0.3822 -0.0739 -0.2812
55595SOL    HW273836   3.256   5.907   7.825 -0.8968 -0.7788 -0.5938
55596SOL     OW73837   2.489   7.145  11.536 -0.2596 -0.2283 -0.0553
55596SOL    HW173838   2.554   7.109  11.595  0.2889 -0.1955 -0.6298
55596SOL    HW273839   2.418   7.080  11.535  0.0659 -0.5862  0.0423
55597SOL     OW73840  10.933   3.206   7.381 -0.0355 -0.5529 -0.5438
55597SOL    HW173841  10.909   3.298   7.371  0.2792 -0.2771  1.0157
55597SOL    HW273842  11.009   3.208   7.439 -0.3449 -1.8266 -0.0801
55598SOL     OW73843   7.106   3.405  11.157 -0.2878  0.4420 -0.0220
55598SOL    HW173844   7.075   3.475  11.099  1.1464  1.1608  0.0328
55598SOL    HW273845   7.087   3.436  11.245 -2.2699 -0.5552 -0.0418
55599SOL     OW73846   4.531  10.470   3.510  0.2687 -0.4795  0.1623
55599SOL    HW173847   4.499  10.416   3.438  1.4998 -0.3656 -0.4904
55599SOL    HW273848   4.493  10.557   3.493  0.3624 -0.5116 -0.2115
55600SOL     OW73849   0.823  10.098   0.622 -0.3504  0.0262  0.5644
55600SOL    HW173850   0.818  10.170   0.559  1.0386 -3.0314 -3.5888
55600SOL    HW273851   0.733  10.068   0.631 -0.6082  0.6342  0.0875
55601SOL     OW73852  10.363   1.644  11.004  0.3803 -0.1882 -0.2703
55601SOL    HW173853  10.430   1.703  11.038 -0.6250  0.8951 -0.0997
55601SOL    HW273854  10.371   1.651  10.908 -0.8422  1.6238 -0.2995
55602SOL     OW73855  12.430   9.415   1.324  0.2523  0.3339  0.1120
55602SOL    HW173856  12.341   9.407   1.290  0.0881 -0.6633  0.7114
55602SOL    HW273857  12.424   9.381   1.414  1.2455  0.1748  0.1308
55603SOL     OW73858  10.982   7.848  12.547  0.0351 -0.3293 -0.2824
55603SOL    HW173859  10.906   7.833  12.603 -0.4576  0.5785 -0.6787
55603SOL    HW273860  11.057   7.830  12.603 -0.4641 -1.5017  0.0351
55604SOL     OW73861   1.264   9.359  12.321  0.3690 -0.1264 -0.0631
55604SOL    HW173862   1.349   9.402  12.310  0.2723  0.2139  0.4763
55604SOL    HW273863   1.228   9.398  12.401  0.2851 -1.2320  0.4639
55605SOL     OW73864   9.150   4.920  11.492  0.4839 -0.3953  0.1186
55605SOL    HW173865   9.125   4.980  11.562  1.2046 -0.7604  0.7028
55605SOL    HW273866   9.067   4.896  11.449  0.1775  0.8786 -0.0222
55606SOL     OW73867   8.622  12.335   0.561 -0.3111  0.2156 -0.2226
55606SOL    HW173868   8.618  12.250   0.605  1.9338 -1.0294 -2.1832
55606SOL    HW273869   8.679  12.388   0.617 -0.2467 -0.1968  0.1058
55607SOL     OW73870   3.298  12.078   7.314 -0.0434  0.1083  0.2496
55607SOL    HW173871   3.218  12.116   7.348  1.1241  2.4964  0.5758
55607SOL    HW273872   3.327  12.140   7.247  1.4546 -0.7470  0.0583
55608SOL     OW73873  11.939   7.030   3.900 -0.1061  0.4313  0.1316
55608SOL    HW173874  12.022   6.984   3.911 -0.6181 -0.6495 -0.3900
55608SOL    HW273875  11.964   7.123   3.899  1.2184  0.1048 -0.9951
55609SOL     OW73876   6.995   5.728   3.303 -0.3797 -0.1538  0.0116
55609SOL    HW173877   6.946   5.792   3.251 -1.1327 -1.1333 -0.5085
55609SOL    HW273878   7.065   5.779   3.344 -0.2275  0.7909 -1.3547
55610SOL     OW73879   6.304   6.746  12.282 -0.5285 -0.2084  0.3580
55610SOL    HW173880   6.284   6.768  12.373  1.5475  0.2345  0.7462
55610SOL    HW273881   6.262   6.660  12.268  1.0995 -1.4383  2.4981
55611SOL     OW73882   8.368   5.822   4.195  0.6056 -0.8520 -0.4062
55611SOL    HW173883   8.372   5.873   4.114  1.2201 -1.7120 -0.9394
55611SOL    HW273884   8.370   5.888   4.265 -0.8952 -0.0484 -1.0819
55612SOL     OW73885   3.946   4.521  11.542 -0.4042 -0.5350 -0.2918
55612SOL    HW173886   3.855   4.490  11.541 -0.5863 -0.2914  2.0875
55612SOL    HW273887   3.969   4.524  11.635  1.7986  0.1594 -0.7972
55613SOL     OW73888  12.290   1.907   1.471  0.3723  0.1007 -0.1803
55613SOL    HW173889  12.233   1.832   1.458  0.5539  0.3297 -2.7785
55613SOL    HW273890  12.378   1.870   1.473  0.3972  0.1454 -0.4383
55614SOL     OW73891   5.859   9.919   9.091  0.3336 -0.1578  0.1255
55614SOL    HW173892   5.883  10.006   9.058  2.1930 -0.2989  0.9835
55614SOL    HW273893   5.942   9.874   9.103 -0.6131 -2.2254 -0.6519
55615SOL     OW73894  10.991   6.770   7.477 -0.0535 -0.1818  0.2364
55615SOL    HW173895  10.907   6.816   7.479 -0.4167 -0.4838 -2.9004
55615SOL    HW273896  10.983   6.709   7.403  3.0809  0.1259 -0.5042
55616SOL     OW73897   3.180   3.934   8.718  0.1424 -0.9978  0.4552
55616SOL    HW173898   3.211   3.956   8.806 -0.0879 -1.1855  0.5847
55616SOL    HW273899   3.178   3.838   8.717  3.6803 -1.2029 -0.9579
55617SOL     OW73900   0.579   8.280   5.388 -0.4467 -0.2374  0.0304
55617SOL    HW173901   0.518   8.273   5.462 -1.2311  1.5945 -0.3782
55617SOL    HW273902   0.646   8.341   5.418  0.2720 -0.9438 -0.1212
55618SOL     OW73903   1.682   9.782   3.378  0.3262 -0.0973 -0.0112
55618SOL    HW173904   1.616   9.747   3.437 -0.6791 -0.3069 -1.2165
55618SOL    HW273905   1.667   9.876   3.378 -0.9849 -0.2630 -1.3904
55619SOL     OW73906  12.278   7.182   1.406  0.2135  0.4423  0.6293
55619SOL    HW173907  12.226   7.160   1.329  2.7963  0.8309 -1.3611
55619SOL    HW273908  12.275   7.103   1.460 -0.4846 -0.4001 -0.5933
55620SOL     OW73909  12.129  10.519   9.117  0.6979 -0.2533  0.1673
55620SOL    HW173910  12.063  10.486   9.056 -0.6880  1.8467  0.3873
55620SOL    HW273911  12.207  10.467   9.099 -0.0959 -0.7431 -2.3327
55621SOL     OW73912  11.477   4.200   6.868 -0.2757 -0.2083  0.4820
55621SOL    HW173913  11.394   4.190   6.821  0.2029 -1.0890 -0.2244
55621SOL    HW273914  11.452   4.224   6.957 -1.2502  0.3838  0.0665
55622SOL     OW73915  10.264   1.136   9.646 -0.3351 -0.2896 -0.5384
55622SOL    HW173916  10.307   1.075   9.586  2.0706  1.0905 -0.3131
55622SOL    HW273917  10.293   1.222   9.618  0.9572  0.4259  2.6032
55623SOL     OW73918   1.379   9.120   4.102  0.3318  0.2536  0.3171
55623SOL    HW173919   1.381   9.054   4.033 -4.0625 -0.6027  0.7485
55623SOL    HW273920   1.307   9.179   4.078 -0.4324  0.7538  3.3737
55624SOL     OW73921   3.822   2.005   1.025  0.2650 -0.2652 -0.2549
55624SOL    HW173922   3.860   2.032   1.109 -1.0446 -0.1967  0.3538
55624SOL    HW273923   3.830   2.082   0.969 -0.5835  0.3597  0.4478
55625SOL     OW73924  11.864   3.719   3.608 -0.3992 -0.0515  0.2832
55625SOL    HW173925  11.822   3.797   3.645  3.1371  2.1272  0.1476
55625SOL    HW273926  11.871   3.738   3.514  1.8689  0.2963  0.4660
55626SOL     OW73927   1.017  12.368   6.066 -0.2275 -0.0993  0.7928
55626SOL    HW173928   0.999  12.409   5.981 -1.0998 -0.1517  0.9339
55626SOL    HW273929   1.051  12.439   6.120  1.0324 -0.2287  0.1994
55627SOL     OW73930  10.441   6.128   3.401 -0.2081 -0.0368 -0.7145
55627SOL    HW173931  10.534   6.110   3.387 -0.1057 -0.0280 -0.0938
55627SOL    HW273932  10.440   6.212   3.447 -0.4542 -0.5633  0.2814
55628SOL     OW73933   1.106  11.383   5.315  0.1165 -0.6088  0.0467
55628SOL    HW173934   1.110  11.426   5.400 -3.0247  1.1849 -0.5869
55628SOL    HW273935   1.183  11.416   5.268 -0.3547  1.7196  0.7857
55629SOL     OW73936   8.719   2.290   7.835  0.1905  0.3586  0.2526
55629SOL    HW173937   8.743   2.311   7.925 -0.4941 -1.3657  0.8776
55629SOL    HW273938   8.799   2.256   7.795  0.2815  0.3177  0.4724
55630SOL     OW73939   8.274   2.254  11.759 -0.2827 -0.0915  0.3015
55630SOL    HW173940   8.299   2.169  11.723 -0.9435 -0.1610 -0.0108
55630SOL    HW273941   8.181   2.245  11.780 -1.1180  1.3953 -2.3416
55631SOL     OW73942   6.844   3.966   8.239 -0.1059  0.7595 -0.0276
55631SOL    HW173943   6.846   3.890   8.298 -1.0747  0.9694  0.2964
55631SOL    HW273944   6.826   3.928   8.153 -0.6884  0.6095  0.1502
55632SOL     OW73945   3.162  12.318   7.423  0.9647 -0.1487 -0.4642
55632SOL    HW173946   3.248  12.349   7.454 -0.1735  2.3017  0.5249
55632SOL    HW273947   3.110  12.308   7.503 -0.2171  0.2760 -1.1583
55633SOL     OW73948   4.944   9.985   1.054 -0.0288  0.2255 -0.6006
55633SOL    HW173949   4.855   9.951   1.059  0.4264 -1.3637 -2.3937
55633SOL    HW273950   4.935  10.070   1.012 -0.6037 -0.6261 -2.3104
55634SOL     OW73951   8.167   2.310   4.841  0.7435  0.3788  0.5756
55634SOL    HW173952   8.184   2.218   4.819  3.4523  0.8213  0.5535
55634SOL    HW273953   8.164   2.312   4.936  1.9074  0.4270  0.6225
55635SOL     OW73954  11.756   3.270   1.086  0.3271  0.0081 -0.4817
55635SOL    HW173955  11.675   3.219   1.094  0.1709  0.5175  2.5394
55635SOL    HW273956  11.808   3.223   1.022 -0.9966 -2.2948  0.0244
55636SOL     OW73957   5.345   5.211  11.036 -0.1478  0.0612  0.1352
55636SOL    HW173958   5.285   5.204  11.110  0.1356 -0.4788  0.3218
55636SOL    HW273959   5.432   5.213  11.076  0.0181 -0.4404 -0.1867
55637SOL     OW73960   1.370   1.396   4.998 -0.0163 -0.4375 -0.2576
55637SOL    HW173961   1.459   1.393   5.035  0.3099  1.0074 -0.8623
55637SOL    HW273962   1.381   1.362   4.910 -0.4706 -2.1976  0.3241
55638SOL     OW73963  11.901   7.997  11.333 -0.6948  0.1878 -0.4861
55638SOL    HW173964  11.946   8.072  11.293 -0.1609  0.4150  0.5171
55638SOL    HW273965  11.816   7.994  11.289 -0.6242  1.2268 -0.7221
55639SOL     OW73966  11.995  10.800   8.304  0.4900 -0.1334  0.0871
55639SOL    HW173967  12.037  10.842   8.379  1.9102 -0.2188 -0.6309
55639SOL    HW273968  11.938  10.867   8.266 -0.1611 -0.0617  1.1585
55640SOL     OW73969   5.214   5.453  10.481 -0.1158 -0.1485  0.3327
55640SOL    HW173970   5.211   5.359  10.498 -0.2833 -0.1977  0.0371
55640SOL    HW273971   5.299   5.467  10.440 -1.1131 -0.6080 -2.0965
55641SOL     OW73972   3.659  10.529   8.298  0.2604  0.5041  0.5141
55641SOL    HW173973   3.722  10.479   8.350  0.6524  0.6430  0.1716
55641SOL    HW273974   3.709  10.603   8.263  0.0103  0.3941 -0.0930
55642SOL     OW73975  10.956   8.931  11.792 -0.8561 -0.0262 -0.3131
55642SOL    HW173976  10.865   8.953  11.771 -0.6428  0.8524 -0.3592
55642SOL    HW273977  10.983   8.997  11.856 -0.4924 -0.7548  0.3041
55643SOL     OW73978   1.194   2.486   7.832  0.1539  0.2455  0.0368
55643SOL    HW173979   1.275   2.461   7.877  1.4534  0.6306 -1.9723
55643SOL    HW273980   1.130   2.421   7.860  1.1932 -0.1866  1.5344
55644SOL     OW73981  10.034   2.491   9.880 -0.2530 -0.0340 -0.4418
55644SOL    HW173982   9.953   2.481   9.929 -0.7356  0.0212 -1.2034
55644SOL    HW273983  10.073   2.403   9.879 -1.0612 -0.4032 -1.3298
55645SOL     OW73984   9.703   3.135   3.060  0.2850 -0.4438 -0.1192
55645SOL    HW173985   9.685   3.043   3.039 -1.6201  0.1023 -1.1077
55645SOL    HW273986   9.671   3.146   3.149 -1.1458 -0.3591 -0.6137
55646SOL     OW73987  11.812  10.249   5.766  0.3314 -0.6512  0.2626
55646SOL    HW173988  11.865  10.185   5.719 -1.2121 -1.1481 -0.8676
55646SOL    HW273989  11.874  10.318   5.790  1.4022 -0.9475 -1.4955
55647SOL     OW73990   4.885   4.179  11.215  0.3996 -0.0207  0.3398
55647SOL    HW173991   4.790   4.186  11.224  0.3002 -1.4329  0.5455
55647SOL    HW273992   4.920   4.234  11.285 -0.2164  1.6301 -0.5708
55648SOL     OW73993   9.439   4.757   7.769  0.7009 -0.1998  0.6457
55648SOL    HW173994   9.521   4.708   7.775  0.2776 -0.9943  0.1184
55648SOL    HW273995   9.426   4.771   7.676  0.0198 -0.4518  0.7004
55649SOL     OW73996   6.999  10.006  11.270 -0.0804  0.6911  0.5020
55649SOL    HW173997   6.938  10.013  11.196  0.1365  0.7854  0.3295
55649SOL    HW273998   6.960   9.939  11.327  0.7951 -0.9751 -0.7418
55650SOL     OW73999   3.282   8.114   7.596 -0.2604 -0.1600 -0.2446
55650SOL    HW174000   3.220   8.187   7.588  2.9442  2.9702  0.8354
55650SOL    HW274001   3.354   8.138   7.538  0.5072 -3.1004 -0.6504
55651SOL     OW74002   0.963  10.174   1.614  0.0012  0.0308 -0.1919
55651SOL    HW174003   0.897  10.108   1.593 -0.0312  0.3926 -1.3180
55651SOL    HW274004   0.957  10.187   1.708 -0.8832 -0.6288 -0.1573
55652SOL     OW74005   1.034   0.694   1.352 -0.1222 -0.3003 -0.3231
55652SOL    HW174006   1.066   0.735   1.432 -0.0996 -0.2980 -0.3332
55652SOL    HW274007   1.011   0.605   1.377  2.7296 -1.3073 -0.9229
55653SOL     OW74008   7.127  12.058   2.713  0.1090  0.1471  0.2378
55653SOL    HW174009   7.168  12.098   2.790  1.9030  2.0939 -1.6112
55653SOL    HW274010   7.033  12.075   2.725  0.4866  1.6825  1.3009
55654SOL     OW74011   0.245   0.422   8.357  0.1521  0.1152  0.2629
55654SOL    HW174012   0.279   0.357   8.296 -1.7266 -0.4828 -0.2145
55654SOL    HW274013   0.160   0.388   8.384 -0.3295  1.7706  0.9929
55655SOL     OW74014   0.294   7.884   3.381 -0.1856  0.2013  0.1269
55655SOL    HW174015   0.346   7.845   3.451  2.2042 -0.5052 -1.9100
55655SOL    HW274016   0.299   7.979   3.397  1.2516  0.1087  0.3093
55656SOL     OW74017   2.166   9.549   9.781  0.1241  0.6712 -0.4249
55656SOL    HW174018   2.161   9.510   9.868 -3.4498  2.1763  0.2166
55656SOL    HW274019   2.119   9.487   9.724  0.4920  0.7815 -0.8593
55657SOL     OW74020  12.558   0.734   8.940  0.3923 -0.2723 -0.1360
55657SOL    HW174021  12.613   0.767   9.011  1.2494  2.1268 -1.7713
55657SOL    HW274022  12.480   0.790   8.942  0.1581 -0.5661 -0.7235
55658SOL     OW74023   0.248   4.700  10.768  0.6658  0.0294  0.1443
55658SOL    HW174024   0.189   4.655  10.827 -0.7253 -0.8339 -1.7862
55658SOL    HW274025   0.219   4.792  10.770 -1.5643 -0.5446 -1.5576
55659SOL     OW74026   1.641   7.458  11.034 -0.3091  0.3455  0.0441
55659SOL    HW174027   1.614   7.466  11.126 -0.5118 -0.1803  0.0305
55659SOL    HW274028   1.679   7.370  11.027  0.6387  0.7537 -0.1401
55660SOL     OW74029   2.388   6.713   0.744  0.5861 -0.3691 -0.3032
55660SOL    HW174030   2.309   6.705   0.797 -0.4892  0.2474 -1.7496
55660SOL    HW274031   2.359   6.758   0.665  2.6556  1.0566 -0.3160
55661SOL     OW74032  11.049  10.844  11.736  0.1522  0.1573 -0.0199
55661SOL    HW174033  11.099  10.878  11.811  0.4419  0.5772 -0.3963
55661SOL    HW274034  11.076  10.753  11.729 -0.0709  0.0468  0.5479
55662SOL     OW74035  12.167   4.809   6.985  0.0921  0.1343 -0.0369
55662SOL    HW174036  12.083   4.788   6.944 -0.2342 -1.1397  1.2032
55662SOL    HW274037  12.210   4.868   6.923 -1.3162  0.0630 -1.1312
55663SOL     OW74038   6.520  11.115   3.412  0.6892  0.1341 -0.4549
55663SOL    HW174039   6.454  11.185   3.412  1.4182  0.8903 -2.8280
55663SOL    HW274040   6.597  11.155   3.453  0.7036  0.3119 -0.6541
55664SOL     OW74041   0.317   3.029   1.614 -0.0308 -0.1790  0.2442
55664SOL    HW174042   0.282   3.111   1.579 -1.8490 -0.8662  0.3608
55664SOL    HW274043   0.240   2.975   1.631  1.0874 -1.6582  0.8400
55665SOL     OW74044   3.751   9.373   6.015  0.1853  0.4845 -0.6080
55665SOL    HW174045   3.666   9.378   5.972  0.1896  0.0115 -0.6808
55665SOL    HW274046   3.743   9.430   6.091  0.0095  0.9328 -0.9546
55666SOL     OW74047   9.667  10.304  11.870  0.2698 -0.6054  0.1673
55666SOL    HW174048   9.713  10.327  11.951 -1.4962 -1.5474  1.5058
55666SOL    HW274049   9.575  10.302  11.895 -0.5615  1.0886 -2.3773
55667SOL     OW74050  10.408   3.193  10.852  0.2404 -0.5448  0.3613
55667SOL    HW174051  10.444   3.281  10.840 -0.4641 -0.2059  0.6453
55667SOL    HW274052  10.313   3.205  10.843  0.2194 -1.5074 -1.0218
55668SOL     OW74053   6.597  10.178   0.194 -0.2711 -0.0539  0.6267
55668SOL    HW174054   6.563  10.123   0.265 -0.5388  1.1058  1.4202
55668SOL    HW274055   6.666  10.230   0.236 -1.3592  1.6360  0.3997
55669SOL     OW74056   9.571  10.308   3.437 -0.7514  0.0371 -0.4066
55669SOL    HW174057   9.556  10.299   3.531 -0.4748 -1.6953 -0.5036
55669SOL    HW274058   9.660  10.342   3.430 -0.7751  0.1784 -0.0554
55670SOL     OW74059   9.193   9.127   5.655 -0.2284 -0.6823 -0.3932
55670SOL    HW174060   9.277   9.132   5.701 -0.5271  0.2904  0.0603
55670SOL    HW274061   9.138   9.193   5.697 -1.6751 -2.2011  0.2033
55671SOL     OW74062  10.911   8.468   4.235 -0.4311  0.4438 -0.1142
55671SOL    HW174063  10.996   8.505   4.209 -1.5496  2.9035 -0.5290
55671SOL    HW274064  10.922   8.447   4.328  0.8497  0.0246 -0.3368
55672SOL     OW74065   1.225   7.834   6.847  1.0253 -0.2953  0.0609
55672SOL    HW174066   1.240   7.777   6.923  0.7459 -2.2791 -1.3048
55672SOL    HW274067   1.159   7.897   6.877 -0.1574 -1.9361  1.0533
55673SOL     OW74068  10.457  12.492   5.479 -0.0229  0.4228  0.0533
55673SOL    HW174069  10.408  12.473   5.399  0.1690 -0.4019  0.1241
55673SOL    HW274070  10.390  12.488   5.548 -0.0412  0.3554  0.0309
55674SOL     OW74071   8.689   3.981   9.799 -0.2938  0.2752  0.1599
55674SOL    HW174072   8.781   3.984   9.826 -0.2120 -0.8085  0.0834
55674SOL    HW274073   8.668   4.069   9.770  1.4404  0.0053 -2.1563
55675SOL     OW74074   1.132   8.321  11.623  0.0928  0.7374  0.0680
55675SOL    HW174075   1.043   8.340  11.595  0.1973  1.2011  0.0457
55675SOL    HW274076   1.157   8.395  11.679  0.5659  0.7622 -0.1636
55676SOL     OW74077   2.043  10.690  11.293 -0.2389  0.3008 -0.6603
55676SOL    HW174078   2.037  10.726  11.381 -1.6985  0.8746 -0.9659
55676SOL    HW274079   2.071  10.763  11.238 -2.6015  0.8939 -1.1793
55677SOL     OW74080  10.011   1.831  12.202 -0.2404  0.2210  0.1412
55677SOL    HW174081   9.972   1.918  12.190  1.6539  1.0777 -0.1349
55677SOL    HW274082  10.024   1.798  12.113 -1.5417 -0.6746  0.2457
55678SOL     OW74083   6.363   2.765   0.556 -0.6019  0.3786  0.0879
55678SOL    HW174084   6.459   2.769   0.565 -0.5343  1.1622 -0.8671
55678SOL    HW274085   6.348   2.753   0.462 -1.4582  0.7404  0.1710
55679SOL     OW74086   1.341   9.077   2.845 -0.0288 -0.7918 -0.2119
55679SOL    HW174087   1.381   9.056   2.929 -2.3826 -2.0504  0.6964
55679SOL    HW274088   1.413   9.076   2.783  1.4447 -2.1177  1.4177
55680SOL     OW74089  10.296  11.080   1.391 -0.4459 -0.1034  0.0543
55680SOL    HW174090  10.389  11.058   1.390 -0.1446  1.0809  0.3183
55680SOL    HW274091  10.252  11.001   1.360  0.6535 -0.6379 -0.1827
55681SOL     OW74092  10.799   9.942   7.448 -0.0524  0.5411 -0.0369
55681SOL    HW174093  10.748   9.961   7.369 -0.5352 -0.3885  0.0276
55681SOL    HW274094  10.733   9.938   7.518  0.0738 -0.6803  0.0492
55682SOL     OW74095   4.177   5.960   8.749  0.0438  0.4505  0.1447
55682SOL    HW174096   4.265   5.997   8.751 -0.2225  1.1463  2.6851
55682SOL    HW274097   4.188   5.870   8.780 -0.0944  0.4526  0.2019
55683SOL     OW74098  11.357   0.008  12.477  0.2262  0.3196  0.2995
55683SOL    HW174099  11.354   0.033  12.569 -3.0362 -1.9678  1.0055
55683SOL    HW274100  11.388  -0.083  12.477 -1.6381 -0.3678 -0.5837
55684SOL     OW74101   1.397   9.480   2.022 -0.0107 -0.4460  0.0476
55684SOL    HW174102   1.354   9.551   2.069  1.0089  0.8897 -0.9664
55684SOL    HW274103   1.461   9.445   2.084 -1.7981 -1.8125  1.2273
55685SOL     OW74104  10.361   9.828   3.621  0.0213  0.1377  0.0080
55685SOL    HW174105  10.281   9.849   3.575 -0.7414  0.6689  1.5036
55685SOL    HW274106  10.332   9.790   3.704  1.3339 -1.6046 -0.2675
55686SOL     OW74107   2.826   4.784   8.504 -0.3568 -0.2848  0.2388
55686SOL    HW174108   2.807   4.809   8.594 -0.3884  0.2085  0.0994
55686SOL    HW274109   2.909   4.738   8.508  0.3629  0.9693  0.3473
55687SOL     OW74110   3.486   3.747   7.654 -0.0014 -0.3242  0.1516
55687SOL    HW174111   3.392   3.754   7.673  0.0663  0.5313  0.2481
55687SOL    HW274112   3.493   3.760   7.560  0.1306  1.2212  0.3392
55688SOL     OW74113   9.786  11.678   4.356  0.0718  0.0422  0.2071
55688SOL    HW174114   9.847  11.644   4.291 -0.1825 -1.6555  0.8162
55688SOL    HW274115   9.818  11.644   4.439  1.0461  3.0724  1.2254
55689SOL     OW74116   8.760  11.945   0.960 -0.0115  0.1341 -0.0095
55689SOL    HW174117   8.679  11.895   0.967  0.1440 -0.4085 -1.5895
55689SOL    HW274118   8.814  11.916   1.034 -0.7081 -0.5311  0.2403
55690SOL     OW74119   7.075   0.144   8.733  0.3791 -0.4722 -0.1388
55690SOL    HW174120   7.100   0.231   8.764  0.8093 -0.8015  0.4605
55690SOL    HW274121   7.004   0.118   8.791  0.1972 -0.4887 -0.3685
55691SOL     OW74122   5.949   4.108   5.881 -0.2975  0.2441 -0.0968
55691SOL    HW174123   5.933   4.176   5.816 -0.3856 -1.7461 -2.2710
55691SOL    HW274124   6.010   4.149   5.943  0.4763  1.9770 -1.8870
55692SOL     OW74125   7.150   3.516  10.032 -0.0817  0.3576  0.4127
55692SOL    HW174126   7.140   3.583  10.100  0.6129 -1.3263  2.2449
55692SOL    HW274127   7.062   3.482  10.019 -0.0610 -0.0244  1.2375
55693SOL     OW74128   2.571   2.985   1.204  0.0523 -0.0377 -0.2098
55693SOL    HW174129   2.620   2.916   1.159  0.0600  1.1747 -2.1671
55693SOL    HW274130   2.485   2.946   1.222  1.8762 -2.7157  4.5641
55694SOL     OW74131   6.803  10.008  11.066  0.5324 -0.3936  0.1277
55694SOL    HW174132   6.786   9.944  10.996 -3.2511  1.0726 -0.5361
55694SOL    HW274133   6.722  10.010  11.116  1.3613  2.2186  1.5281
55695SOL     OW74134   6.070   5.008   7.537 -0.0285  0.0154 -0.1728
55695SOL    HW174135   6.024   4.947   7.595  0.8837 -1.7831 -1.2740
55695SOL    HW274136   6.162   4.981   7.541  0.1921  0.4518 -1.7333
55696SOL     OW74137   1.634   8.459   0.320  0.1719  0.5090  0.0821
55696SOL    HW174138   1.717   8.445   0.364  0.2680 -1.7445 -0.6760
55696SOL    HW274139   1.648   8.536   0.265  2.2064 -0.5082 -0.9362
55697SOL     OW74140  11.822   3.251   9.865  0.0531  0.1094 -0.5281
55697SOL    HW174141  11.791   3.313   9.800  0.5851  1.9465  0.8780
55697SOL    HW274142  11.819   3.300   9.948  2.0864 -1.1972  0.3870
55698SOL     OW74143  12.455   5.068  11.409 -0.1064  0.2074  0.3482
55698SOL    HW174144  12.505   4.996  11.447 -1.3264  0.4798  2.6933
55698SOL    HW274145  12.519   5.118  11.359  1.0096 -1.8148 -0.3511
55699SOL     OW74146  10.796   0.537   8.632  0.2905 -0.1822 -0.1935
55699SOL    HW174147  10.752   0.525   8.548  1.0562 -0.2941 -0.5860
55699SOL    HW274148  10.745   0.485   8.693  0.7995 -1.6472 -0.9553
55700SOL     OW74149   5.801   3.385   0.683 -0.3145 -0.2766 -0.6974
55700SOL    HW174150   5.757   3.409   0.601 -0.6147  0.4682 -0.3209
55700SOL    HW274151   5.887   3.427   0.677 -0.9036  1.0777  0.0378
55701SOL     OW74152   5.727   4.459   5.602  0.2343  0.2681  0.4565
55701SOL    HW174153   5.642   4.446   5.561  0.8111  2.0043 -1.4470
55701SOL    HW274154   5.773   4.521   5.545  2.3378  0.3165  2.0483
55702SOL     OW74155   2.330  11.882   1.956  0.1695 -0.0327  0.5850
55702SOL    HW174156   2.387  11.811   1.983  2.2883  0.3325 -2.4225
55702SOL    HW274157   2.301  11.858   1.867 -1.0894  1.6955  0.4529
55703SOL     OW74158   3.122  11.399   2.199  0.0464  0.0087 -0.1453
55703SOL    HW174159   3.199  11.442   2.236  0.7874 -0.8026 -0.6684
55703SOL    HW274160   3.055  11.406   2.266  1.0478 -0.5909  0.9674
55704SOL     OW74161   4.631   2.603   9.249 -0.0579 -0.1009  0.3916
55704SOL    HW174162   4.682   2.603   9.330 -0.4054 -1.3056  0.6376
55704SOL    HW274163   4.550   2.648   9.272  0.4502  0.9048  0.2793
55705SOL     OW74164   2.996   1.812   4.684  0.3126 -0.1701 -0.1505
55705SOL    HW174165   2.976   1.763   4.764 -1.1159 -0.0748 -0.4074
55705SOL    HW274166   2.911   1.847   4.656  1.1181  1.6175 -0.5356
55706SOL     OW74167   3.040  10.108  10.939 -0.5651 -0.1706 -0.6672
55706SOL    HW174168   3.005  10.033  10.890  1.6463 -0.9792 -1.1292
55706SOL    HW274169   3.125  10.078  10.969  0.7569  2.4386 -1.5592
55707SOL     OW74170   7.355   6.123   6.707  0.0315 -0.5402  0.4755
55707SOL    HW174171   7.427   6.066   6.679 -0.7887 -0.6261 -1.6857
55707SOL    HW274172   7.370   6.205   6.661 -1.2493 -0.5768 -0.0549
55708SOL     OW74173   7.886  11.254   2.456  0.3553 -0.1694 -0.3365
55708SOL    HW174174   7.865  11.269   2.364 -0.4847 -0.3689 -0.1849
55708SOL    HW274175   7.933  11.170   2.456  2.4591  0.9245 -0.8319
55709SOL     OW74176   9.266   6.462   4.323 -0.1665 -0.9547 -0.0548
55709SOL    HW174177   9.216   6.436   4.400 -0.8938 -1.1866 -0.5938
55709SOL    HW274178   9.304   6.381   4.290 -1.2709 -1.1344 -0.9213
55710SOL     OW74179   2.167   1.511   3.372  0.8142 -0.2631 -0.0306
55710SOL    HW174180   2.209   1.547   3.294  0.8956  0.6777  0.4449
55710SOL    HW274181   2.073   1.514   3.352  0.8906 -1.2257 -0.5978
55711SOL     OW74182   0.788  12.090   7.830  0.2450  0.5365 -0.1260
55711SOL    HW174183   0.825  12.063   7.746 -0.2667 -1.5791  0.2546
55711SOL    HW274184   0.854  12.062   7.894 -1.3191 -2.1655  0.4638
55712SOL     OW74185   0.421   9.604   6.493  0.0703  0.3580 -0.1803
55712SOL    HW174186   0.469   9.525   6.519  0.1809 -0.3655 -2.3372
55712SOL    HW274187   0.448   9.671   6.556  0.9804 -0.9910  0.9236
55713SOL     OW74188   0.066   3.271  11.884  0.4747 -0.3623  0.6514
55713SOL    HW174189   0.153   3.276  11.925  0.1359  2.2503  1.2309
55713SOL    HW274190   0.043   3.362  11.866 -2.5861 -0.8600  1.4548
55714SOL     OW74191  12.315   8.109   7.169  0.6738 -0.1244 -0.2441
55714SOL    HW174192  12.268   8.028   7.187  2.0094 -1.1827 -1.2800
55714SOL    HW274193  12.330   8.148   7.255 -2.0529  0.3038  0.1275
55715SOL     OW74194  11.175   3.469  11.658 -0.5255 -0.0863  0.2395
55715SOL    HW174195  11.096   3.500  11.614  1.6343  0.5201 -3.6063
55715SOL    HW274196  11.160   3.376  11.672 -1.5945 -0.1553 -1.2036
55716SOL     OW74197  11.526   2.095  10.600 -0.0126  0.2777 -0.4803
55716SOL    HW174198  11.590   2.050  10.655  0.3437 -1.4014 -2.1586
55716SOL    HW274199  11.457   2.030  10.586 -1.7398  1.7814  0.6325
55717SOL     OW74200   1.650   6.549   2.596  0.1165  0.3324 -0.0449
55717SOL    HW174201   1.664   6.567   2.688  0.1878  0.1810 -0.0254
55717SOL    HW274202   1.702   6.471   2.578  0.5381  0.6748 -0.3410
55718SOL     OW74203  11.411   8.639   8.390  0.1514  0.4042 -0.0849
55718SOL    HW174204  11.381   8.646   8.480 -0.2261 -0.5908 -0.1135
55718SOL    HW274205  11.332   8.618   8.340  0.4658  0.2863 -0.5400
55719SOL     OW74206  10.772   9.707   2.190  0.3620  0.7696 -0.0842
55719SOL    HW174207  10.758   9.794   2.227 -2.3842  0.3188  0.2079
55719SOL    HW274208  10.756   9.647   2.264 -2.1217 -0.0441 -1.1607
55720SOL     OW74209   9.754   1.413   3.480  0.2618  0.4098  0.0441
55720SOL    HW174210   9.763   1.457   3.396 -0.2716  0.0737 -0.1873
55720SOL    HW274211   9.705   1.475   3.534  0.8445  0.7440  0.2029
55721SOL     OW74212  11.766  10.067   8.272 -0.0027  0.1568 -0.0799
55721SOL    HW174213  11.778  10.070   8.178 -0.5818  1.0299 -0.1395
55721SOL    HW274214  11.837  10.011   8.304  1.3695  1.4100 -0.8334
55722SOL     OW74215   4.088   3.083   8.331  0.4316  0.0850  0.1935
55722SOL    HW174216   4.060   3.174   8.329  1.4469  0.4401  1.1327
55722SOL    HW274217   4.095   3.062   8.424 -0.2240 -1.1038  0.0028
55723SOL     OW74218   7.941  12.295   9.564 -0.4222  0.2287 -0.3850
55723SOL    HW174219   8.011  12.314   9.502  0.9865 -2.5919  0.1696
55723SOL    HW274220   7.951  12.362   9.633  1.2814  0.3038 -0.6707
55724SOL     OW74221   1.180   0.037   7.113 -0.9509  0.3287 -0.3683
55724SOL    HW174222   1.180  -0.055   7.140  0.9239  0.7489  1.3020
55724SOL    HW274223   1.176   0.034   7.018 -0.0764 -1.5202 -0.3904
55725SOL     OW74224   3.020   0.168   7.046  0.6482  0.1933 -0.0361
55725SOL    HW174225   2.931   0.150   7.077  0.5889 -1.4116 -0.9924
55725SOL    HW274226   3.054   0.234   7.106 -0.7519 -0.0858  1.1160
55726SOL     OW74227   6.182   9.204   9.437  0.3831 -0.3043 -0.4847
55726SOL    HW174228   6.112   9.219   9.374 -0.7444 -0.0371  0.7915
55726SOL    HW274229   6.191   9.109   9.441  1.3665 -0.3158 -1.9576
55727SOL     OW74230   3.583  12.550   9.345  0.0543  0.2679 -0.1549
55727SOL    HW174231   3.628  12.486   9.289  0.0261  0.5157 -0.4634
55727SOL    HW274232   3.547  12.614   9.284  0.0529  0.5625  0.1498
55728SOL     OW74233   3.657  10.985   3.312 -0.5255  0.2370 -0.2793
55728SOL    HW174234   3.752  10.992   3.303 -0.5025 -1.1661 -1.4757
55728SOL    HW274235   3.622  11.030   3.235 -0.8395  0.6393  0.0915
55729SOL     OW74236   7.036   4.352   1.075  0.1173  0.3313  0.0294
55729SOL    HW174237   6.999   4.417   1.016  0.5345  1.0630  0.5588
55729SOL    HW274238   6.976   4.277   1.069 -0.0349  0.5226 -1.0388
55730SOL     OW74239   2.338   1.723   7.724  0.3351  0.7654 -0.4866
55730SOL    HW174240   2.293   1.669   7.659  0.0733  0.9670 -0.4735
55730SOL    HW274241   2.391   1.783   7.672  0.6442  0.4797 -0.5002
55731SOL     OW74242   5.039   1.964   0.697 -0.2722 -0.2644  0.5946
55731SOL    HW174243   5.059   1.932   0.609  0.1232  1.7037 -0.0706
55731SOL    HW274244   5.119   1.947   0.748  0.1349  0.1466  0.1056
55732SOL     OW74245   2.656   2.384   3.371 -0.0234 -0.7418  0.4314
55732SOL    HW174246   2.687   2.295   3.393  0.1877 -0.4500  1.3788
55732SOL    HW274247   2.564   2.384   3.398 -0.2797 -0.9527 -0.4264
55733SOL     OW74248   5.300   9.137   1.136  0.0801 -0.2581  0.8386
55733SOL    HW174249   5.377   9.081   1.147  1.1090  0.8660 -0.2198
55733SOL    HW274250   5.320   9.215   1.189 -0.6994 -0.2941  1.1939
55734SOL     OW74251   8.715   0.734   7.866  0.1099  0.3352 -0.3266
55734SOL    HW174252   8.636   0.770   7.905 -0.9832 -0.9068 -1.2970
55734SOL    HW274253   8.733   0.791   7.791 -0.0259  0.4652 -0.2595
55735SOL     OW74254   9.618  11.054   6.867 -0.4248  0.2669 -0.5400
55735SOL    HW174255   9.538  11.100   6.840  0.1616  1.7310  0.0965
55735SOL    HW274256   9.672  11.052   6.788 -1.0713 -0.7343 -0.9757
55736SOL     OW74257   8.774   6.148   2.505 -0.4255 -0.4063  0.6236
55736SOL    HW174258   8.685   6.176   2.481 -0.1346  1.0306  1.0999
55736SOL    HW274259   8.822   6.230   2.518  1.2085 -1.1437 -0.4353
55737SOL     OW74260   4.712   1.050   2.231  0.5131 -0.1249 -0.2033
55737SOL    HW174261   4.784   0.999   2.196  2.0236  2.3408 -0.9076
55737SOL    HW274262   4.746   1.139   2.238 -2.2999  1.0459 -0.0441
55738SOL     OW74263   1.156  10.902   5.423 -0.0806  0.2258  1.1152
55738SOL    HW174264   1.067  10.921   5.453 -0.5807 -0.4206  0.1100
55738SOL    HW274265   1.189  10.837   5.485 -0.9606 -0.8274  0.5122
55739SOL     OW74266   0.571  11.598  10.287  0.4709  0.1523 -0.3533
55739SOL    HW174267   0.477  11.590  10.271 -0.0865  0.3354  2.3401
55739SOL    HW274268   0.593  11.520  10.339  1.5310  0.7020  0.0490
55740SOL     OW74269   6.410   9.608   9.803  0.3812  0.3670 -0.3910
55740SOL    HW174270   6.427   9.702   9.801 -0.1122  0.4545 -0.6488
55740SOL    HW274271   6.474   9.571   9.742  0.5514  0.5372 -0.3185
55741SOL     OW74272   6.985   9.779   7.671  0.2414 -0.2107  0.7023
55741SOL    HW174273   6.893   9.807   7.662  0.7407  0.9167 -1.8802
55741SOL    HW274274   7.033   9.836   7.611  2.4103 -1.9600  0.6454
55742SOL     OW74275  12.070   6.386  12.525 -0.2036  0.2551 -0.4813
55742SOL    HW174276  12.022   6.323  12.579  2.1889 -1.5294 -0.2759
55742SOL    HW274277  12.055   6.358  12.435 -2.2036  1.7762 -0.7052
55743SOL     OW74278   1.739   9.996   3.638  0.4325  0.4777  0.2781
55743SOL    HW174279   1.716   9.933   3.570 -1.0596 -0.5551  1.6610
55743SOL    HW274280   1.700  10.078   3.608 -1.2806 -0.2373  0.4112
55744SOL     OW74281   3.452   5.961   6.630  0.3626 -0.0728 -0.1082
55744SOL    HW174282   3.425   6.051   6.647  1.9901  0.5138 -0.4102
55744SOL    HW274283   3.398   5.908   6.689 -0.9287  1.0373 -0.2356
55745SOL     OW74284   5.441   3.212   2.853 -0.3332  0.1233  0.3776
55745SOL    HW174285   5.465   3.304   2.865  0.9864  0.1183 -1.7978
55745SOL    HW274286   5.521   3.170   2.820 -0.6617 -2.0199  2.0466
55746SOL     OW74287   4.896  10.382  12.193 -0.1096 -0.0610 -0.7696
55746SOL    HW174288   4.975  10.419  12.153 -0.1118  1.0460  0.1887
55746SOL    HW274289   4.862  10.321  12.127  1.3594 -0.3244 -1.3296
55747SOL     OW74290   3.154   3.368   6.993  0.3883  0.5879  0.7224
55747SOL    HW174291   3.192   3.356   6.906 -0.8171 -0.9464  0.3498
55747SOL    HW274292   3.061   3.382   6.976  0.1697  0.4510  1.7559
55748SOL     OW74293   2.392   8.219  12.447  0.0275  0.0981 -0.1893
55748SOL    HW174294   2.338   8.150  12.409  0.2417 -0.4867  0.5349
55748SOL    HW274295   2.479   8.204  12.411 -0.1783  0.7179 -0.9493
55749SOL     OW74296   8.239  11.146  12.251  0.6844 -0.7112  0.0478
55749SOL    HW174297   8.151  11.109  12.245  1.5675 -2.9027 -0.2876
55749SOL    HW274298   8.261  11.171  12.161  1.3448 -2.6221 -0.3718
55750SOL     OW74299   9.671   0.665   8.683 -0.2552 -0.1790  0.0332
55750SOL    HW174300   9.580   0.676   8.714  0.3682  0.4701  1.7865
55750SOL    HW274301   9.692   0.574   8.702 -0.4726 -0.2756 -0.1850
55751SOL     OW74302   8.602  11.445   5.056  0.7041 -0.7934 -0.0704
55751SOL    HW174303   8.551  11.525   5.040 -0.0844 -1.2888 -0.0656
55751SOL    HW274304   8.686  11.462   5.014  1.0592  0.5843  1.0795
55752SOL     OW74305   0.508   3.611   8.514 -0.0313  0.5707  0.5171
55752SOL    HW174306   0.597   3.586   8.539  0.4091  1.0005 -0.5827
55752SOL    HW274307   0.485   3.550   8.443 -0.3753  0.8732  0.3663
55753SOL     OW74308   7.209  11.681   1.940 -0.3153  0.0670  0.0937
55753SOL    HW174309   7.227  11.594   1.906 -0.9683  0.4169 -1.1895
55753SOL    HW274310   7.295  11.721   1.953 -0.0167 -0.7277  0.6331
55754SOL     OW74311  10.487   5.068   0.123  0.1890 -0.6474  0.4481
55754SOL    HW174312  10.457   5.030   0.205 -0.0066 -1.2345  0.1162
55754SOL    HW274313  10.550   5.004   0.089  2.0735  0.6765  1.2603
55755SOL     OW74314   8.445   3.114   0.039  0.2523  0.0452  0.2159
55755SOL    HW174315   8.414   3.097   0.128  2.4935  0.5777  1.1835
55755SOL    HW274316   8.401   3.195   0.014 -1.6716 -0.9679  0.1349
55756SOL     OW74317   7.700  11.507   3.915  0.1045  0.1855  0.6820
55756SOL    HW174318   7.697  11.433   3.856  1.5446 -0.1668  1.0079
55756SOL    HW274319   7.609  11.534   3.926 -0.2688 -0.4003 -0.8424
55757SOL     OW74320   5.102   0.984   3.237 -0.1860 -0.2460 -0.3187
55757SOL    HW174321   5.053   1.053   3.281 -0.0061  0.9731 -1.9526
55757SOL    HW274322   5.192   1.016   3.233  0.3296 -1.4801  0.6633
55758SOL     OW74323  10.290   8.848   8.999  0.2961 -0.3784 -0.1375
55758SOL    HW174324  10.307   8.856   9.093  1.8063  0.3763 -0.4423
55758SOL    HW274325  10.219   8.909   8.982 -1.2344 -1.8099  0.7763
55759SOL     OW74326   8.372   7.511   9.679 -0.3556  0.2120  0.3894
55759SOL    HW174327   8.283   7.522   9.714 -1.3226  1.1017 -2.1066
55759SOL    HW274328   8.362   7.449   9.607  0.7452  1.3235 -0.7805
55760SOL     OW74329   4.650   8.583   1.639  0.4886  0.5376  0.0707
55760SOL    HW174330   4.658   8.578   1.543  0.7599 -0.2949  0.1328
55760SOL    HW274331   4.735   8.615   1.668  0.6856 -0.0064  0.0942
55761SOL     OW74332   2.042   0.843   1.255  0.3542 -0.4847 -0.0454
55761SOL    HW174333   2.014   0.824   1.165 -1.6479  0.8266  0.2394
55761SOL    HW274334   2.136   0.859   1.248  0.6504 -2.4754 -1.5337
55762SOL     OW74335   3.631   8.222   2.063 -0.4109  0.2987 -0.1160
55762SOL    HW174336   3.678   8.306   2.061  1.3782 -0.6460  0.2592
55762SOL    HW274337   3.700   8.156   2.067 -1.8041 -1.1514  1.5996
55763SOL     OW74338   8.129   5.836   6.548 -0.5801 -0.1414 -0.0465
55763SOL    HW174339   8.042   5.874   6.560 -0.1290  0.6250  0.9870
55763SOL    HW274340   8.170   5.842   6.635  1.3058  1.5967 -0.9849
55764SOL     OW74341   8.058  11.749  12.177  0.8411 -0.2932 -0.6964
55764SOL    HW174342   8.067  11.823  12.237  0.8654 -0.0873 -0.9503
55764SOL    HW274343   8.130  11.691  12.200  1.4590  0.2540 -1.1842
55765SOL     OW74344   6.598   8.710   7.771 -0.5887 -0.2001 -0.2973
55765SOL    HW174345   6.525   8.669   7.817 -0.9107  1.6745  0.9777
55765SOL    HW274346   6.586   8.804   7.787  0.4515  0.3675 -2.5536
55766SOL     OW74347   9.456   9.830  11.073 -0.5587 -0.1204 -0.3190
55766SOL    HW174348   9.478   9.833  11.167  0.3017 -2.9478 -0.3540
55766SOL    HW274349   9.509   9.900  11.035 -0.0586  0.3535  1.1420
55767SOL     OW74350   1.405   4.659   6.161 -0.3395 -0.2393  0.6403
55767SOL    HW174351   1.311   4.663   6.145 -0.2361 -0.6862 -0.1908
55767SOL    HW274352   1.444   4.675   6.075  0.4540  2.9076  1.4564
55768SOL     OW74353   5.239   1.512   3.632 -0.1745  0.1079 -0.3590
55768SOL    HW174354   5.270   1.538   3.719 -1.0016 -0.1686  0.0338
55768SOL    HW274355   5.152   1.474   3.648 -0.2513 -0.1317 -1.2837
55769SOL     OW74356   4.613   9.649  12.457  0.0156  0.6903  0.4101
55769SOL    HW174357   4.656   9.587  12.516 -0.8067 -1.4653 -1.1436
55769SOL    HW274358   4.521   9.648  12.483 -0.6771 -1.5004 -1.7550
55770SOL     OW74359  12.092   2.692   6.344 -0.2764 -0.5647  0.1197
55770SOL    HW174360  12.084   2.641   6.425  0.0983  0.3164  0.7329
55770SOL    HW274361  12.185   2.713   6.338 -0.3479 -0.3820 -0.3920
55771SOL     OW74362   7.676   1.597  12.027 -0.0948 -0.8312  0.1038
55771SOL    HW174363   7.752   1.546  12.001  0.4523 -0.4177  0.8539
55771SOL    HW274364   7.607   1.532  12.039  0.0672 -1.1875 -0.7962
55772SOL     OW74365   1.492   9.985  11.471 -0.3386  0.3467 -0.0623
55772SOL    HW174366   1.434   9.924  11.424  1.5269 -0.6677 -1.1473
55772SOL    HW274367   1.437  10.021  11.541 -1.9865 -1.3079 -0.4311
55773SOL     OW74368   9.826   6.341  11.592 -0.8202  0.1433  0.1985
55773SOL    HW174369   9.739   6.345  11.633 -0.7427  0.1307  0.3677
55773SOL    HW274370   9.878   6.288  11.653 -0.7975 -0.1704 -0.0914
55774SOL     OW74371   1.457   0.622   5.749 -0.2647  0.6510 -0.1933
55774SOL    HW174372   1.388   0.558   5.728 -0.3724  1.1472 -1.4634
55774SOL    HW274373   1.411   0.705   5.757 -0.2398  0.4901  2.2870
55775SOL     OW74374  10.779   8.542   1.733 -0.6843 -0.4058 -0.4421
55775SOL    HW174375  10.805   8.486   1.806 -1.6668 -2.4072 -1.5332
55775SOL    HW274376  10.730   8.613   1.775  0.3344 -0.4849  0.9754
55776SOL     OW74377   0.731   4.747   9.604 -0.4031 -0.5375  0.0685
55776SOL    HW174378   0.690   4.798   9.673 -0.9937 -0.5664 -0.2555
55776SOL    HW274379   0.672   4.673   9.590  0.1096 -0.9533  0.0768
55777SOL     OW74380   1.513   6.853   8.142  0.1364  0.0422 -0.0479
55777SOL    HW174381   1.499   6.771   8.094  2.1458  0.1097 -0.8263
55777SOL    HW274382   1.509   6.921   8.074 -0.2297  0.4796  0.4023
55778SOL     OW74383   6.300   0.053  11.844 -0.2883 -0.7962  0.4163
55778SOL    HW174384   6.394   0.055  11.824 -0.3188 -2.1650  0.0077
55778SOL    HW274385   6.259   0.095  11.768  0.0044  0.0655  0.7281
55779SOL     OW74386   9.796   4.965   4.501  0.0660 -0.1673 -0.2799
55779SOL    HW174387   9.771   4.997   4.415 -0.4418  0.6997  0.1747
55779SOL    HW274388   9.738   4.891   4.518  0.0850 -0.2628 -0.6277
55780SOL     OW74389   4.797   8.767  11.037  0.1005  0.2344  0.5708
55780SOL    HW174390   4.775   8.836  10.974  3.0974 -0.4230 -1.4258
55780SOL    HW274391   4.713   8.728  11.061 -1.2804  1.1351 -2.3440
55781SOL     OW74392  10.348   9.558   5.004  0.6187  0.7789 -0.1814
55781SOL    HW174393  10.374   9.517   4.921 -0.6558 -1.3581  0.4089
55781SOL    HW274394  10.403   9.516   5.070 -1.1116 -0.4962  0.5081
55782SOL     OW74395   0.855   4.431  11.066 -0.1750  0.1084 -0.3274
55782SOL    HW174396   0.843   4.347  11.111 -0.8467  0.3232 -0.0896
55782SOL    HW274397   0.889   4.489  11.133 -2.7116  0.8766  0.4165
55783SOL     OW74398   0.510   8.970   8.222 -0.2624  0.0045 -0.8311
55783SOL    HW174399   0.538   9.055   8.255 -0.4524  0.3742 -1.5973
55783SOL    HW274400   0.578   8.946   8.158  1.1061 -1.5671  1.1188
55784SOL     OW74401   7.924   6.538   3.702 -0.1855 -0.3437  0.2651
55784SOL    HW174402   7.840   6.518   3.743 -0.2024  0.2741  0.5391
55784SOL    HW274403   7.989   6.514   3.768 -0.2363  1.2631  0.9320
55785SOL     OW74404   1.825   3.253   6.315 -0.2157 -0.7471 -0.1116
55785SOL    HW174405   1.745   3.275   6.267 -0.0502  1.6404  0.6032
55785SOL    HW274406   1.894   3.302   6.271  0.6259 -1.5850  0.2235
55786SOL     OW74407   8.853  10.639   9.502  0.0167 -0.5407  0.0623
55786SOL    HW174408   8.944  10.667   9.489 -0.4817  0.6765 -1.0630
55786SOL    HW274409   8.841  10.567   9.440  0.5271 -1.4987  1.0453
55787SOL     OW74410   7.489   0.944  10.467 -0.2514  0.2376 -0.0189
55787SOL    HW174411   7.403   0.917  10.497  0.3170  0.3101  1.8120
55787SOL    HW274412   7.495   1.036  10.492 -0.0516  0.5326 -1.1226
55788SOL     OW74413   9.280   4.952   1.608  0.5562  0.0719  0.1780
55788SOL    HW174414   9.370   4.929   1.584  0.4027  0.4982 -0.8737
55788SOL    HW274415   9.233   4.953   1.524 -0.6025 -0.8720  0.7912
55789SOL     OW74416   8.246   2.311  10.249  0.4838  0.0758  0.4594
55789SOL    HW174417   8.215   2.225  10.220  0.0004  1.0067 -1.9406
55789SOL    HW274418   8.341   2.302  10.250  0.4973 -0.1911 -0.8893
55790SOL     OW74419   1.848   6.050   6.135  0.0471  0.0185  0.0384
55790SOL    HW174420   1.796   6.037   6.055 -2.3332 -0.8358  1.6125
55790SOL    HW274421   1.822   6.137   6.165  1.1826  0.4710 -0.2426
55791SOL     OW74422   5.003   2.467   3.962  0.1035  0.2188  0.0361
55791SOL    HW174423   5.085   2.427   3.933 -1.1587 -1.3869 -1.5868
55791SOL    HW274424   4.955   2.485   3.880 -1.5093  0.2953  0.9536
55792SOL     OW74425   5.128   7.305   2.944 -0.1074  0.0982 -0.3599
55792SOL    HW174426   5.171   7.387   2.966 -0.6967  1.1639 -2.8625
55792SOL    HW274427   5.198   7.249   2.910  0.1739 -0.2392  0.7170
55793SOL     OW74428   2.459   5.564   0.889  0.2890 -0.1107  0.0244
55793SOL    HW174429   2.548   5.541   0.862  0.0631  1.3026 -2.1214
55793SOL    HW274430   2.453   5.658   0.873 -1.6097 -0.1921  0.0798
55794SOL     OW74431  11.161   9.910   6.523  0.2692 -0.2622  0.0494
55794SOL    HW174432  11.113   9.934   6.602 -0.2237  0.2347 -0.3986
55794SOL    HW274433  11.112   9.949   6.451  1.9004  1.1830 -0.3551
55795SOL     OW74434   7.985   5.058  11.085  0.1935  1.0420  0.1335
55795SOL    HW174435   8.032   5.141  11.088  0.7624  0.7151  2.3851
55795SOL    HW274436   7.988   5.026  11.175 -0.9996 -0.8772 -0.4516
55796SOL     OW74437   8.058   5.429   4.110  0.0843 -0.4272  0.4231
55796SOL    HW174438   8.003   5.485   4.055 -0.9771 -0.7753  1.0904
55796SOL    HW274439   8.141   5.476   4.117 -0.2437  0.2843 -0.3327
55797SOL     OW74440  12.365   7.693  10.553 -0.0062 -0.5019  0.0015
55797SOL    HW174441  12.301   7.728  10.491 -2.0662 -1.2504  1.6045
55797SOL    HW274442  12.400   7.770  10.597  0.7397 -0.0389 -1.3477
55798SOL     OW74443   1.825   4.415   4.855  0.6164 -0.7217  0.3064
55798SOL    HW174444   1.755   4.353   4.833  1.0104 -1.3685  0.8608
55798SOL    HW274445   1.906   4.364   4.850  1.0296 -0.0606 -0.0002
55799SOL     OW74446   9.311   8.116   2.914  0.2102 -0.1572 -0.0331
55799SOL    HW174447   9.300   8.155   2.827  0.8634  0.5626  0.1963
55799SOL    HW274448   9.405   8.107   2.925  0.1336 -0.2311  0.6093
55800SOL     OW74449   8.562   7.121   5.975 -0.4075 -0.0131  0.4661
55800SOL    HW174450   8.643   7.161   6.006  0.5596 -0.9425 -0.7818
55800SOL    HW274451   8.578   7.026   5.980 -1.0435 -0.2001 -0.7137
55801SOL     OW74452   6.562   5.484  11.418 -0.2575  0.2207  0.3021
55801SOL    HW174453   6.639   5.492  11.361 -0.6721 -0.9524 -0.4615
55801SOL    HW274454   6.509   5.561  11.399 -0.1236  0.1236 -0.4983
55802SOL     OW74455  11.121   0.442   2.346 -0.0726 -0.5853 -0.0814
55802SOL    HW174456  11.144   0.356   2.380  0.4020 -0.6522 -0.5691
55802SOL    HW274457  11.055   0.475   2.407  0.1474 -1.0606  0.4171
55803SOL     OW74458   0.819   2.628   2.349  0.2571  0.4065 -0.7479
55803SOL    HW174459   0.727   2.625   2.374  0.2961  2.0063 -0.2719
55803SOL    HW274460   0.844   2.537   2.337 -1.1330 -0.1107  0.0596
55804SOL     OW74461   7.878   0.931   1.083  0.6507 -0.0109  0.0081
55804SOL    HW174462   7.800   0.906   1.133  1.3426 -2.2909  0.0500
55804SOL    HW274463   7.924   0.993   1.139  0.3862 -0.9671  1.3296
55805SOL     OW74464   4.443   1.676   8.358 -0.0186  0.4859  0.3278
55805SOL    HW174465   4.438   1.585   8.331  0.0376  0.6451 -0.2190
55805SOL    HW274466   4.418   1.675   8.450  0.8343 -0.1996  0.5708
55806SOL     OW74467   4.643   4.693   9.965  0.0485  0.1095  0.0369
55806SOL    HW174468   4.675   4.608   9.996 -0.8214 -0.0740  0.4768
55806SOL    HW274469   4.642   4.748  10.043  0.5132  0.4966 -0.2280
55807SOL     OW74470   3.829  12.038  12.356  0.3025 -0.0123  0.2539
55807SOL    HW174471   3.754  12.080  12.398  0.7087  0.7132  0.2686
55807SOL    HW274472   3.887  12.110  12.334 -0.3146 -0.2371 -2.4297
55808SOL     OW74473  10.911   3.511  11.532 -0.0773  0.4042 -0.1693
55808SOL    HW174474  10.867   3.592  11.509 -1.1305  0.1484  0.8085
55808SOL    HW274475  10.841   3.445  11.532  0.5040 -0.2310  0.3563
55809SOL     OW74476  10.966   0.634   7.862 -0.5380  0.2180 -0.1194
55809SOL    HW174477  10.872   0.625   7.845 -1.1150 -1.6776  3.2100
55809SOL    HW274478  11.001   0.546   7.851  0.9679  0.9244 -1.4218
55810SOL     OW74479   7.320   1.991   0.844 -0.3118  0.1530 -0.1720
55810SOL    HW174480   7.293   1.900   0.832  0.1175 -0.4617  2.7721
55810SOL    HW274481   7.239   2.041   0.837 -1.8044 -1.2081  4.2420
55811SOL     OW74482   5.067  11.011   7.397  0.1515  0.2712  0.0879
55811SOL    HW174483   5.124  11.047   7.329 -0.1457 -1.6092 -1.2608
55811SOL    HW274484   4.981  11.006   7.355 -0.0914 -0.7004  0.6823
55812SOL     OW74485   2.964   8.457   2.557 -0.4685 -0.4597  0.2057
55812SOL    HW174486   2.977   8.493   2.645  0.7571  1.0208 -0.5293
55812SOL    HW274487   2.936   8.366   2.572 -1.2830  0.0596  2.1107
55813SOL     OW74488  11.571   6.850   9.627  0.2014  0.6148  0.4219
55813SOL    HW174489  11.640   6.810   9.679 -0.3775 -0.3327  0.5003
55813SOL    HW274490  11.539   6.922   9.680 -2.1816 -1.8855  2.7274
55814SOL     OW74491   7.369   3.840  10.883  0.2721 -0.0342 -0.0085
55814SOL    HW174492   7.446   3.786  10.866  0.0553 -0.5715  0.6645
55814SOL    HW274493   7.396   3.898  10.955 -0.1090 -0.5942  0.6008
55815SOL     OW74494   1.436   7.465   7.011 -0.1155 -0.6687 -0.2865
55815SOL    HW174495   1.454   7.514   6.930  0.6231  0.6479  0.6309
55815SOL    HW274496   1.433   7.374   6.983 -0.0681 -0.2365 -1.8368
55816SOL     OW74497   7.138   3.167  11.927  0.3577 -0.0212 -0.0008
55816SOL    HW174498   7.062   3.164  11.986  2.2245  0.2675  2.6377
55816SOL    HW274499   7.206   3.118  11.974  1.5169 -1.2665 -2.7874
55817SOL     OW74500  10.227   4.397  10.088 -0.2899  0.3759  0.3872
55817SOL    HW174501  10.266   4.462  10.146 -0.7442 -0.0809  1.2257
55817SOL    HW274502  10.276   4.317  10.104 -0.5576  0.1931  0.3059
55818SOL     OW74503   1.642   6.601   2.855  0.4828 -0.1370 -0.3347
55818SOL    HW174504   1.703   6.606   2.928  1.4665 -0.7136 -1.0901
55818SOL    HW274505   1.561   6.566   2.893  0.6736  0.4683  0.6444
55819SOL     OW74506  11.310  11.787  10.420  0.1264 -0.0154 -0.6639
55819SOL    HW174507  11.305  11.694  10.443  2.4290  0.3500  1.8417
55819SOL    HW274508  11.220  11.818  10.425 -0.9594 -2.3238 -3.1000
55820SOL     OW74509   9.926   8.737   5.408 -0.0379  0.0075 -0.0326
55820SOL    HW174510   9.874   8.759   5.330 -0.5631 -1.2679 -0.0578
55820SOL    HW274511  10.002   8.796   5.403 -1.4130  1.8634 -0.0260
55821SOL     OW74512   4.481   3.111   5.132  0.2339 -0.1777  0.3745
55821SOL    HW174513   4.573   3.119   5.105  0.4262  0.6378  1.2069
55821SOL    HW274514   4.433   3.097   5.050  0.9979  0.3543 -0.1816
55822SOL     OW74515   3.764   6.955   2.701  0.7023 -0.4728  0.6497
55822SOL    HW174516   3.784   6.883   2.762  1.0002  0.8353  2.1781
55822SOL    HW274517   3.813   6.934   2.622  2.6390 -0.8246  1.8805
55823SOL     OW74518   0.417   7.837  12.068  0.1655  0.6606 -0.0667
55823SOL    HW174519   0.369   7.917  12.046  0.4086  0.1839 -2.7340
55823SOL    HW274520   0.397   7.821  12.160 -2.9149  1.7578 -0.4109
55824SOL     OW74521   2.408   6.851   7.480 -0.2217 -0.1168  0.6521
55824SOL    HW174522   2.461   6.772   7.493  0.6301 -0.0458 -1.8925
55824SOL    HW274523   2.341   6.825   7.416 -2.2017  0.3192  2.4193
55825SOL     OW74524   2.145   9.046   3.341 -0.0478 -0.2041 -0.5116
55825SOL    HW174525   2.198   9.112   3.386  0.9737 -0.7236 -0.8970
55825SOL    HW274526   2.198   9.020   3.266  0.2803 -2.4842  0.4061
55826SOL     OW74527   5.129   6.175   5.104 -0.5578 -0.0674  0.1429
55826SOL    HW174528   5.179   6.131   5.035  0.5228 -0.5629  1.2276
55826SOL    HW274529   5.114   6.264   5.069  1.6886  0.3309  0.0755
55827SOL     OW74530   0.629   0.107   0.186  0.5095 -0.0648 -0.1497
55827SOL    HW174531   0.639   0.023   0.140 -1.5219  0.3306 -1.4771
55827SOL    HW274532   0.662   0.171   0.124 -0.4151  0.3191 -0.2546
55828SOL     OW74533   9.692   1.005   6.646  0.4126 -0.0369  0.5265
55828SOL    HW174534   9.597   1.017   6.644  0.4162  0.1619  1.1848
55828SOL    HW274535   9.704   0.927   6.700  0.6295  0.0345  0.5789
55829SOL     OW74536  10.231   5.692  11.476  0.2505 -0.5311  0.1800
55829SOL    HW174537  10.172   5.685  11.551  1.1003 -0.5543  0.8706
55829SOL    HW274538  10.243   5.786  11.464  0.6563 -0.5336  0.5277
55830SOL     OW74539   4.118   1.387   5.179 -0.3633 -0.3615  0.0610
55830SOL    HW174540   4.097   1.410   5.089  1.2968  0.3655 -0.1717
55830SOL    HW274541   4.040   1.411   5.229 -0.8961  0.2403 -1.0327
55831SOL     OW74542   7.156   2.514   3.000 -0.1845 -0.1018 -0.1914
55831SOL    HW174543   7.094   2.585   3.013  0.2697  0.1749  0.4750
55831SOL    HW274544   7.122   2.467   2.923  0.5588  1.9819 -1.8964
55832SOL     OW74545  12.138   1.556  12.474 -0.1278 -0.2734 -0.1163
55832SOL    HW174546  12.045   1.544  12.493 -0.3028 -0.3933 -1.0009
55832SOL    HW274547  12.163   1.478  12.424  0.9271 -1.1768  1.7189
55833SOL     OW74548   0.393   7.584   2.922  0.2480 -0.1907  0.0437
55833SOL    HW174549   0.430   7.535   2.996  2.0157  2.4521  1.0701
55833SOL    HW274550   0.461   7.579   2.854  1.0052  1.7273  0.6090
55834SOL     OW74551   7.718   9.709   5.397 -0.1088 -0.3519 -0.4833
55834SOL    HW174552   7.765   9.650   5.337 -0.1695  0.0839 -0.9680
55834SOL    HW274553   7.788   9.755   5.443 -0.0206  0.8100 -1.7112
55835SOL     OW74554   3.206   7.798   0.627 -1.0133 -0.0619 -0.1841
55835SOL    HW174555   3.201   7.764   0.538 -1.2647  1.2711 -0.7106
55835SOL    HW274556   3.270   7.743   0.671  0.4777  0.3602 -1.7212
55836SOL     OW74557  11.413   1.595   3.694 -0.1680  0.5188  0.2614
55836SOL    HW174558  11.400   1.649   3.771  0.6786  1.1694 -0.0403
55836SOL    HW274559  11.468   1.647   3.636  0.1736 -0.4198 -0.2941
55837SOL     OW74560   4.058  10.797   4.876 -0.0405 -0.2830  0.2718
55837SOL    HW174561   4.029  10.747   4.952  0.8333 -1.9554 -0.4517
55837SOL    HW274562   4.151  10.812   4.891 -0.0859  0.2879  0.0138
55838SOL     OW74563  10.635   2.406   7.735  0.1593  0.3262 -0.3950
55838SOL    HW174564  10.630   2.313   7.715  1.1555 -0.4432  2.3802
55838SOL    HW274565  10.584   2.449   7.667  0.5015 -2.1397 -2.3346
55839SOL     OW74566   2.359   5.729   8.159 -0.1942  0.4406  0.7967
55839SOL    HW174567   2.434   5.674   8.137 -0.0867  0.1627  1.7927
55839SOL    HW274568   2.389   5.781   8.234 -0.5278  1.3552  0.3183
55840SOL     OW74569   6.850   6.691   2.469  0.1480 -0.3911 -0.4151
55840SOL    HW174570   6.848   6.628   2.397  1.3107 -0.3444 -0.4975
55840SOL    HW274571   6.936   6.679   2.510 -0.0487  0.3840  0.2546
55841SOL     OW74572   5.650  11.385   4.429  0.1256 -0.0126  0.2067
55841SOL    HW174573   5.681  11.408   4.342 -1.0618  0.8672 -0.0060
55841SOL    HW274574   5.557  11.369   4.418  0.3402 -2.0580  0.9222
55842SOL     OW74575   3.084   9.407   4.907 -0.2464 -0.3610  0.1777
55842SOL    HW174576   3.162   9.452   4.878 -1.3678 -0.3719 -3.2860
55842SOL    HW274577   3.049   9.461   4.978  1.1392  1.3940 -0.4295
55843SOL     OW74578  12.579   9.826   0.099  0.0092  0.2511 -0.0492
55843SOL    HW174579  12.549   9.916   0.091 -0.3220  0.1639  0.1910
55843SOL    HW274580  12.542   9.781   0.024  0.5913  0.4245 -0.4474
55844SOL     OW74581   4.869  11.114   2.148 -0.0790  0.2568 -0.9801
55844SOL    HW174582   4.950  11.165   2.138  1.9770 -2.1069  2.0177
55844SOL    HW274583   4.892  11.026   2.118 -2.1274 -0.1230 -1.6291
55845SOL     OW74584   0.038   0.201   0.886  0.8895 -0.3473 -0.4070
55845SOL    HW174585   0.121   0.201   0.839  0.8628  1.0898 -0.5065
55845SOL    HW274586   0.041   0.280   0.940  0.3081 -1.2068  0.9286
55846SOL     OW74587   5.127   0.413   3.672 -0.0304 -0.0414 -0.7429
55846SOL    HW174588   5.139   0.424   3.577  1.8606  0.2453 -0.5104
55846SOL    HW274589   5.208   0.370   3.701 -0.3807  0.3060  0.8156
55847SOL     OW74590   1.974   8.273  10.220 -0.0751  0.3180  0.7797
55847SOL    HW174591   1.915   8.316  10.282  2.3550  2.9149  1.4685
55847SOL    HW274592   2.026   8.214  10.274 -0.5365 -0.3592  0.5085
55848SOL     OW74593   8.548   7.539   9.889 -0.0856  0.3110 -0.2647
55848SOL    HW174594   8.478   7.543   9.824  0.8968  2.4660 -1.3158
55848SOL    HW274595   8.543   7.622   9.936 -0.3338 -0.9182  2.0351
55849SOL     OW74596  11.382   1.788   8.613  0.4134  0.0330 -0.3090
55849SOL    HW174597  11.333   1.706   8.616 -0.3820  0.5196  0.2254
55849SOL    HW274598  11.416   1.799   8.702  0.2477  0.4367 -0.2922
55850SOL     OW74599   9.380   6.566   7.896 -0.6069  0.2613  0.1150
55850SOL    HW174600   9.407   6.479   7.869 -0.6141  0.5498 -0.8634
55850SOL    HW274601   9.462   6.613   7.915 -0.5537  0.3411 -0.3128
55851SOL     OW74602   4.782   9.559   1.217 -0.0597 -0.3037 -0.7004
55851SOL    HW174603   4.788   9.468   1.189  1.0251 -0.2546 -0.6550
55851SOL    HW274604   4.796   9.609   1.137  3.4533 -0.1559 -0.1461
55852SOL     OW74605   3.218   6.026   8.384  0.5651  0.4842 -0.0256
55852SOL    HW174606   3.247   5.946   8.428  1.2668  1.1961  0.8707
55852SOL    HW274607   3.217   6.004   8.291  2.4659 -0.0738  0.0373
55853SOL     OW74608   8.826   0.422   1.166 -0.3091 -0.3997  0.4567
55853SOL    HW174609   8.823   0.514   1.140  1.0080 -0.5074 -0.2007
55853SOL    HW274610   8.874   0.421   1.249 -1.1370 -0.4157  0.9417
55854SOL     OW74611   9.980   4.920  10.649 -0.4936 -0.7075  0.2186
55854SOL    HW174612   9.914   4.888  10.587 -0.2700  0.1341 -0.4769
55854SOL    HW274613  10.033   4.981  10.597 -0.1734 -0.1463  1.1961
55855SOL     OW74614   5.594   8.752   1.597 -0.4316  0.2527 -0.2145
55855SOL    HW174615   5.673   8.743   1.650 -2.2155  1.2735  2.8584
55855SOL    HW274616   5.624   8.794   1.516  2.6673 -2.8429 -0.9263
55856SOL     OW74617   3.348   6.315   3.597 -0.5342 -0.2453 -0.0512
55856SOL    HW174618   3.263   6.289   3.561 -1.6222  0.4969  1.8122
55856SOL    HW274619   3.329   6.396   3.645  1.5288  0.6756 -0.7208
55857SOL     OW74620   5.870   8.098   2.604 -0.4578 -0.4817 -0.5840
55857SOL    HW174621   5.906   8.186   2.589 -1.2641  0.0333  0.3598
55857SOL    HW274622   5.842   8.068   2.518 -1.7821  0.9210 -0.6794
55858SOL     OW74623   7.836   4.645   3.962  0.2707 -0.0109  0.2666
55858SOL    HW174624   7.865   4.734   3.984 -0.6204  0.7467 -1.4053
55858SOL    HW274625   7.754   4.634   4.009  0.4424  0.0022  0.5701
55859SOL     OW74626   2.345  11.783   7.272 -0.0263  0.0092  0.4293
55859SOL    HW174627   2.413  11.789   7.339 -0.0751  1.4066  0.3838
55859SOL    HW274628   2.355  11.864   7.221 -1.4425  0.0239  0.1477
55860SOL     OW74629  11.890   8.280   7.815  0.1661  0.1124 -0.1722
55860SOL    HW174630  11.895   8.239   7.902 -0.5279 -0.5501 -0.4283
55860SOL    HW274631  11.961   8.239   7.766 -0.7073 -1.0542 -0.5163
55861SOL     OW74632   4.526   9.443   6.822 -0.4248 -0.0033  0.1391
55861SOL    HW174633   4.432   9.425   6.832 -0.5690  0.0402 -1.0871
55861SOL    HW274634   4.530   9.536   6.800 -0.1130 -0.0778 -0.1193
55862SOL     OW74635   4.804   4.590  12.212 -0.3060 -0.1522  0.1089
55862SOL    HW174636   4.878   4.530  12.214 -1.4843 -1.6793 -0.2589
55862SOL    HW274637   4.814   4.638  12.130  0.7412  0.3039  0.4898
55863SOL     OW74638   0.177   9.546  12.378 -0.2643  0.1763  0.2355
55863SOL    HW174639   0.114   9.556  12.306 -1.0276  1.5803  1.0656
55863SOL    HW274640   0.257   9.515  12.335 -0.4009  1.8760 -1.3871
55864SOL     OW74641   9.473   6.727   5.971  0.2352  0.8801  0.5242
55864SOL    HW174642   9.393   6.698   6.014  0.1373 -0.0828 -0.2933
55864SOL    HW274643   9.472   6.685   5.885  0.4952  2.6507 -0.4041
55865SOL     OW74644  10.113   0.730   5.947 -0.1831 -0.0558  0.0442
55865SOL    HW174645  10.157   0.703   6.028  1.5997  1.2014 -0.4485
55865SOL    HW274646  10.081   0.818   5.965 -2.2247 -0.7879  0.2438
55866SOL     OW74647   8.318  11.037   8.463 -0.1225  0.0030  0.0448
55866SOL    HW174648   8.364  11.089   8.396 -0.6207 -1.2071 -1.2958
55866SOL    HW274649   8.232  11.078   8.470  0.8498  1.8875  2.1009
55867SOL     OW74650   9.914   9.361   8.203  0.2812 -0.0947 -0.2102
55867SOL    HW174651  10.007   9.354   8.226  0.8035 -0.4045 -2.2205
55867SOL    HW274652   9.911   9.340   8.110 -1.7226  0.6168 -0.3492
55868SOL     OW74653  10.816   9.224   7.415 -0.2151 -0.4482 -0.0222
55868SOL    HW174654  10.912   9.222   7.413 -0.1979  0.3764 -0.2618
55868SOL    HW274655  10.792   9.138   7.449  0.5872 -0.9795 -0.7480
55869SOL     OW74656   4.789  12.310   0.957 -0.3621 -0.4948 -0.8394
55869SOL    HW174657   4.712  12.347   1.001 -0.6604 -0.9126 -1.0091
55869SOL    HW274658   4.814  12.235   1.011  0.4011  0.0833 -0.3528
55870SOL     OW74659  12.004   6.884   1.293 -0.0794  0.3296 -0.7224
55870SOL    HW174660  12.091   6.846   1.303 -0.6540 -1.4940 -2.1009
55870SOL    HW274661  11.962   6.871   1.378 -0.7563 -3.7159 -1.4648
55871SOL     OW74662   4.304   1.384   9.982 -0.4696 -0.0366  0.0363
55871SOL    HW174663   4.363   1.323   9.937  0.0439 -2.3886  3.4842
55871SOL    HW274664   4.232   1.329  10.012 -1.2714  1.5660  1.1538
55872SOL     OW74665   8.954   9.374   0.895  0.0931  0.1345 -0.2782
55872SOL    HW174666   8.972   9.323   0.973  0.6683  0.9516  0.1414
55872SOL    HW274667   8.952   9.310   0.824  0.2694 -0.5271  0.3069
55873SOL     OW74668   9.512   1.402   5.272  0.1412  0.4420  0.4160
55873SOL    HW174669   9.597   1.429   5.238 -0.7187  1.0219 -1.4435
55873SOL    HW274670   9.504   1.446   5.356  1.7910  0.1219  0.7704
55874SOL     OW74671   3.705  10.675  12.506 -0.2435 -0.5717  0.0117
55874SOL    HW174672   3.652  10.727  12.565 -0.5545 -1.6118  0.6796
55874SOL    HW274673   3.647  10.653  12.433 -0.0737  0.1072 -0.3335
55875SOL     OW74674   7.056   0.991  11.373  0.0088 -0.6647  0.4819
55875SOL    HW174675   6.980   0.943  11.342  0.0239 -0.6822  0.4719
55875SOL    HW274676   7.074   0.955  11.460 -0.5832  0.0059  0.8983
55876SOL     OW74677   9.239   5.699   6.069  0.3761  0.1404  0.0555
55876SOL    HW174678   9.237   5.780   6.018 -0.1671 -0.5136 -0.9989
55876SOL    HW274679   9.149   5.668   6.070  0.5218 -0.2950  0.7112
55877SOL     OW74680   1.355   5.598   7.745 -0.0730 -0.3066  0.6929
55877SOL    HW174681   1.350   5.692   7.726 -0.5558 -0.5201 -0.3535
55877SOL    HW274682   1.263   5.571   7.751  0.0673 -0.5643  1.8291
55878SOL     OW74683  10.620   3.566   0.201 -0.6807 -0.3477  0.2292
55878SOL    HW174684  10.534   3.523   0.201 -0.9961  0.2300 -1.1872
55878SOL    HW274685  10.657   3.545   0.286 -2.0405 -0.9932  0.6923
55879SOL     OW74686   4.706   9.516   9.353  0.0055 -0.5821 -0.6202
55879SOL    HW174687   4.758   9.561   9.419 -1.3918 -0.1647  0.2503
55879SOL    HW274688   4.770   9.468   9.300  1.2284 -0.3178  0.5629
55880SOL     OW74689   2.533   3.513   4.984 -0.7768 -0.0244 -0.1752
55880SOL    HW174690   2.507   3.498   5.075 -2.1854 -0.4867 -0.6252
55880SOL    HW274691   2.453   3.546   4.942 -0.1783  0.0704 -1.2711
55881SOL     OW74692   1.800   7.221   5.701 -0.1100 -0.2960  0.2127
55881SOL    HW174693   1.763   7.298   5.744 -0.1992 -0.6965  0.8755
55881SOL    HW274694   1.848   7.175   5.771  0.7778 -0.3238 -0.3949
55882SOL     OW74695   0.807  12.560   4.125  0.1013 -0.2876  0.2014
55882SOL    HW174696   0.774  12.608   4.049  0.5563  0.2258  0.3231
55882SOL    HW274697   0.747  12.486   4.134 -1.4408  0.9631  0.8018
55883SOL     OW74698   1.545   8.313   4.764  0.0320 -0.2131 -0.1761
55883SOL    HW174699   1.637   8.314   4.788  0.1854 -3.1312 -0.4036
55883SOL    HW274700   1.544   8.337   4.671  0.7818 -1.9638 -0.6612
55884SOL     OW74701   6.183  11.544   2.981 -0.7354 -0.5959  0.0359
55884SOL    HW174702   6.222  11.622   3.022 -2.7286 -0.1100  1.1344
55884SOL    HW274703   6.126  11.508   3.049  0.1102 -3.0357 -0.4579
55885SOL     OW74704   3.863   2.065  11.000  0.2927  0.5310  0.0886
55885SOL    HW174705   3.778   2.075  10.958 -0.4213 -0.8274  1.1479
55885SOL    HW274706   3.873   2.143  11.054  0.2077  1.1967 -0.8295
55886SOL     OW74707   3.741  11.495   1.453  0.1481 -0.2207 -0.0880
55886SOL    HW174708   3.646  11.499   1.437  0.2265 -0.1566 -0.5522
55886SOL    HW274709   3.779  11.542   1.379  0.4924  0.8402  0.7397
55887SOL     OW74710   3.988   7.644   5.859  0.5411  0.2071  0.8594
55887SOL    HW174711   4.056   7.666   5.795 -1.0436 -0.5884 -1.2010
55887SOL    HW274712   3.929   7.719   5.859  0.1280 -0.1184  0.8377
55888SOL     OW74713   6.911   9.033   1.669 -0.1144 -0.1138  0.2008
55888SOL    HW174714   6.902   9.064   1.579  0.6437  2.7617  1.0071
55888SOL    HW274715   6.930   8.940   1.661  0.3851  0.1504 -2.6143
55889SOL     OW74716   7.278  10.383   1.851  0.1358  0.1124 -0.0381
55889SOL    HW174717   7.334  10.352   1.922 -1.1063  0.0864  0.9628
55889SOL    HW274718   7.296  10.323   1.778  0.5927 -0.5747  0.6259
55890SOL     OW74719   3.987   3.475   0.884 -0.2943 -0.2747  0.6353
55890SOL    HW174720   3.982   3.397   0.829 -2.2899  1.3265 -1.6827
55890SOL    HW274721   3.910   3.469   0.941  1.0660 -1.2884  2.4549
55891SOL     OW74722   3.471   6.809   1.433  0.2134  0.3538 -1.1517
55891SOL    HW174723   3.546   6.793   1.491  1.4896  1.1622 -2.5000
55891SOL    HW274724   3.398   6.824   1.492  1.4931  1.2661  0.2702
55892SOL     OW74725   5.042   9.526   2.239  0.0752  0.4340 -0.2934
55892SOL    HW174726   5.131   9.557   2.259 -0.8354  2.4310  1.0134
55892SOL    HW274727   4.988   9.605   2.247 -1.6209 -0.4120 -2.6010
55893SOL     OW74728   0.006   9.961   2.098  0.3168 -0.5223 -0.0325
55893SOL    HW174729   0.030  10.013   2.174  2.8254 -1.7535  0.1183
55893SOL    HW274730   0.047  10.006   2.024 -0.5762 -0.3290 -0.4244
55894SOL     OW74731   5.130   7.162  11.793  0.2016 -0.0058  0.4995
55894SOL    HW174732   5.112   7.126  11.880  0.5713 -1.4462  0.0250
55894SOL    HW274733   5.072   7.113  11.735 -0.3439  1.2356 -0.0314
55895SOL     OW74734   1.608   3.380   0.347 -0.0392  0.2466 -0.5198
55895SOL    HW174735   1.675   3.317   0.321  0.5191 -0.2561  1.8642
55895SOL    HW274736   1.528   3.350   0.304  0.6343 -0.9495 -0.9836
55896SOL     OW74737  10.828   3.382   1.731  0.4601  0.0115 -0.3483
55896SOL    HW174738  10.757   3.437   1.699  0.9172  0.9123  0.1484
55896SOL    HW274739  10.908   3.430   1.710  0.8090  0.2850  1.3896
55897SOL     OW74740   5.713   7.657   3.305  0.5046 -0.4072  0.0494
55897SOL    HW174741   5.803   7.680   3.326  0.0886  1.5157 -0.0414
55897SOL    HW274742   5.660   7.713   3.362 -0.6402 -1.2826 -0.1083
55898SOL     OW74743   0.716   2.656  11.413 -0.1857  0.1148 -0.2137
55898SOL    HW174744   0.775   2.613  11.476 -1.3901 -1.6639 -0.2214
55898SOL    HW274745   0.773   2.716  11.364  1.3928 -0.7236  0.4986
55899SOL     OW74746   4.420   9.314  11.437  0.0169  0.2612  0.9425
55899SOL    HW174747   4.465   9.280  11.514 -0.8432  0.8450  1.7266
55899SOL    HW274748   4.475   9.387  11.409  0.9489 -0.6585  0.2840
55900SOL     OW74749  10.757   7.958   8.788 -0.0915 -0.7540 -0.2184
55900SOL    HW174750  10.725   7.868   8.796 -1.0217 -0.2261  4.0632
55900SOL    HW274751  10.704   7.996   8.718 -2.6956 -2.3943  0.7428
55901SOL     OW74752   0.272   7.565   1.723 -0.7463 -0.0586 -0.6349
55901SOL    HW174753   0.309   7.500   1.782  0.6425  0.9169 -0.3948
55901SOL    HW274754   0.285   7.648   1.768 -3.3442  0.3542 -0.4955
55902SOL     OW74755  10.275   9.424   0.843  0.5637 -0.6871  0.1364
55902SOL    HW174756  10.240   9.346   0.888 -1.0313  0.6044  1.2835
55902SOL    HW274757  10.256   9.409   0.751  0.1208 -1.5793  0.3564
55903SOL     OW74758   3.802   0.516   1.276  0.2647 -0.4610 -0.3218
55903SOL    HW174759   3.729   0.458   1.294 -0.6893  1.2423  1.7504
55903SOL    HW274760   3.785   0.551   1.188 -1.0074 -0.6880 -0.1807
55904SOL     OW74761   7.322  11.126   4.037 -0.2668  0.3445 -0.7395
55904SOL    HW174762   7.403  11.084   4.008  0.5209  1.1881  0.1638
55904SOL    HW274763   7.293  11.074   4.111 -0.6219 -0.0181 -1.1263
55905SOL     OW74764   7.564   9.312   3.830  0.4034 -0.0756 -0.6417
55905SOL    HW174765   7.620   9.363   3.772  0.4816 -0.3036 -0.7690
55905SOL    HW274766   7.611   9.230   3.843 -0.5516 -0.8780 -1.9362
55906SOL     OW74767  10.083   4.769   0.628 -0.1863 -0.3266  0.2335
55906SOL    HW174768  10.076   4.818   0.547 -0.5904 -0.0452  0.4360
55906SOL    HW274769  10.152   4.814   0.678  0.4664 -0.8380 -0.1810
55907SOL     OW74770   4.614   7.035   3.258  0.1835  0.3206 -0.0448
55907SOL    HW174771   4.655   6.951   3.280 -1.0378 -0.2828 -0.0161
55907SOL    HW274772   4.672   7.073   3.191  0.9805 -0.3339  0.2563
55908SOL     OW74773  11.615  10.121   8.549  0.2151  0.0997  0.7020
55908SOL    HW174774  11.655  10.083   8.471  0.8755  0.0144  1.0654
55908SOL    HW274775  11.528  10.149   8.522 -0.3658 -1.8158  0.4446
55909SOL     OW74776  10.712  11.093   4.186 -0.1964  0.4662 -0.1761
55909SOL    HW174777  10.701  11.188   4.176 -0.1313  0.4316 -0.6038
55909SOL    HW274778  10.652  11.056   4.122 -0.7718  0.1982  0.5013
55910SOL     OW74779   5.493   6.296   3.479 -0.2180  0.0365  0.5763
55910SOL    HW174780   5.403   6.320   3.500 -0.4835  0.9158 -1.4102
55910SOL    HW274781   5.487   6.206   3.447 -0.0951 -0.5648  2.1522
55911SOL     OW74782   8.958  11.586   9.099  0.2915  0.6007 -0.0843
55911SOL    HW174783   8.939  11.510   9.155 -0.4846  0.7527 -0.1271
55911SOL    HW274784   8.872  11.613   9.067  0.7722  0.1883 -1.7946
55912SOL     OW74785   3.382   5.761   8.275 -0.4407 -0.2290 -0.8668
55912SOL    HW174786   3.458   5.741   8.330 -1.2438  0.5284  0.5497
55912SOL    HW274787   3.310   5.710   8.313 -0.6375 -1.1604 -2.3643
55913SOL     OW74788   7.148   2.472  10.405  0.3579 -0.1750  1.2315
55913SOL    HW174789   7.133   2.522  10.486  1.6417  1.4385  0.5432
55913SOL    HW274790   7.235   2.433  10.416  1.0537  0.9943  0.2442
55914SOL     OW74791   2.753   7.474   7.940 -0.7141  0.1512  0.4307
55914SOL    HW174792   2.668   7.430   7.935 -0.1928 -0.8833  0.3993
55914SOL    HW274793   2.738   7.560   7.899 -2.2311  0.7908  2.2222
55915SOL     OW74794   4.229   5.461   1.573 -0.4626  0.8989 -0.1596
55915SOL    HW174795   4.173   5.457   1.496 -0.1027 -0.0923 -0.3891
55915SOL    HW274796   4.301   5.400   1.553 -0.2711  0.7727  0.8813
55916SOL     OW74797   6.939   7.990   5.365 -0.2038 -0.7668 -0.2621
55916SOL    HW174798   6.856   8.000   5.318  0.3695 -2.8472 -1.8926
55916SOL    HW274799   6.994   8.061   5.331 -0.5415 -0.8725 -1.0628
55917SOL     OW74800  12.318  10.756   0.886 -0.3630 -0.7275 -0.2692
55917SOL    HW174801  12.313  10.679   0.942 -0.4136 -2.0459 -2.0261
55917SOL    HW274802  12.408  10.759   0.856 -0.3633 -0.0858 -0.2315
55918SOL     OW74803   6.564   4.503   6.685  0.4282  0.1949  0.5712
55918SOL    HW174804   6.506   4.563   6.638 -0.1130  0.7960  1.9363
55918SOL    HW274805   6.589   4.552   6.764  1.5691 -0.6459  0.7454
55919SOL     OW74806  10.190   7.710   5.940  0.7543  0.1647 -0.2563
55919SOL    HW174807  10.267   7.744   5.894 -0.4735  0.3789 -2.2528
55919SOL    HW274808  10.184   7.618   5.913  0.7624 -0.0871  0.5570
55920SOL     OW74809   2.402   5.409   8.873  0.3643  0.3911 -0.2351
55920SOL    HW174810   2.379   5.485   8.819  1.4621  0.8358 -0.1125
55920SOL    HW274811   2.326   5.351   8.868 -0.0033  0.9480 -1.3251
55921SOL     OW74812   9.220   5.988   1.315 -0.3644 -0.1393 -0.3074
55921SOL    HW174813   9.309   5.958   1.295 -0.2353  0.7205 -1.1307
55921SOL    HW274814   9.214   5.986   1.410  0.7192  0.2848 -0.2223
55922SOL     OW74815  12.381   1.988   0.638 -0.0050  0.1126  0.4340
55922SOL    HW174816  12.429   2.071   0.650  1.6022 -0.4745 -1.4252
55922SOL    HW274817  12.436   1.923   0.682 -0.5661 -0.1770  0.7138
55923SOL     OW74818   8.049   0.169   5.678 -0.2330 -0.3389  0.3845
55923SOL    HW174819   8.006   0.145   5.596 -0.2724  0.6833  0.0889
55923SOL    HW274820   7.984   0.223   5.724  0.9615  1.9138 -0.4308
55924SOL     OW74821   9.816  11.289  12.451 -0.1213  0.3691 -0.0200
55924SOL    HW174822   9.758  11.366  12.452 -0.8535 -0.1764  0.5458
55924SOL    HW274823   9.775  11.229  12.390  1.7141  1.3243 -2.3638
55925SOL     OW74824   8.849   1.085   1.862 -0.5894 -0.4325 -0.0864
55925SOL    HW174825   8.904   1.120   1.792  0.2624  0.7823  1.1309
55925SOL    HW274826   8.881   0.995   1.874 -1.7645 -1.1983 -2.2075
55926SOL     OW74827   6.271   3.123   4.606  0.0180  0.3312  0.0303
55926SOL    HW174828   6.331   3.099   4.678 -0.2026  2.6917  1.0852
55926SOL    HW274829   6.185   3.093   4.636  0.0346  0.7048  0.4718
55927SOL     OW74830  11.294   6.373  11.425 -1.0862  0.0369  0.1423
55927SOL    HW174831  11.219   6.397  11.480 -3.2281 -1.0361 -2.1252
55927SOL    HW274832  11.259   6.307  11.365  1.4281  0.2875 -1.7294
55928SOL     OW74833   3.622   8.319   9.114 -0.1472  0.2405  0.5425
55928SOL    HW174834   3.590   8.251   9.055  0.6896 -0.0625  0.4341
55928SOL    HW274835   3.555   8.388   9.109  0.8820  1.1904 -2.4359
55929SOL     OW74836   7.639   4.713   1.097  0.0437  0.5471  0.5414
55929SOL    HW174837   7.549   4.705   1.131  0.5151 -0.4261  1.6200
55929SOL    HW274838   7.629   4.705   1.002 -0.9873  0.1452  0.6673
55930SOL     OW74839   3.834  10.325   6.540  0.1299  0.1362  0.6077
55930SOL    HW174840   3.777  10.255   6.509  2.0058 -0.6783 -1.2528
55930SOL    HW274841   3.849  10.305   6.633 -1.9558  0.0036  0.9704
55931SOL     OW74842  11.577   8.845   4.229  0.1308  0.7140 -0.0883
55931SOL    HW174843  11.634   8.911   4.189 -0.0911  0.1379 -1.3913
55931SOL    HW274844  11.628   8.765   4.226  0.1395  0.6677  0.8921
55932SOL     OW74845   8.045   3.749   4.545  0.8487 -0.4722  0.5244
55932SOL    HW174846   8.045   3.819   4.480  1.3748 -0.6975  0.2755
55932SOL    HW274847   8.136   3.720   4.549  1.0045  0.1050  1.9829
55933SOL     OW74848   3.624  10.521   1.259  0.2720  0.5392 -0.8128
55933SOL    HW174849   3.671  10.476   1.329  0.1350  0.9531 -0.4534
55933SOL    HW274850   3.578  10.451   1.213  0.0696  0.3065 -0.2675
55934SOL     OW74851   6.485   8.894   4.131  0.2871 -0.3880 -0.6906
55934SOL    HW174852   6.520   8.982   4.120  0.5801 -0.3614  0.3399
55934SOL    HW274853   6.556   8.836   4.106  0.0319 -0.3441 -1.5537
55935SOL     OW74854   8.015   5.233  11.821  0.3049  1.0831  0.4689
55935SOL    HW174855   7.925   5.263  11.836  0.6588  1.7968  1.2340
55935SOL    HW274856   8.005   5.155  11.766 -0.8399  0.6652  1.2311
55936SOL     OW74857   2.554  11.467   1.357 -0.6211 -0.2064 -0.2610
55936SOL    HW174858   2.633  11.444   1.308 -0.8950  0.6910 -1.1771
55936SOL    HW274859   2.483  11.455   1.293 -1.5327 -3.0920  1.1451
55937SOL     OW74860   3.552  10.291   7.863  0.4278  0.7486  0.2348
55937SOL    HW174861   3.583  10.363   7.810  1.8482  0.8173  1.1226
55937SOL    HW274862   3.611  10.218   7.842 -0.5210  0.0499 -0.0930
55938SOL     OW74863   2.233   7.559   7.403 -0.0265  0.1231  0.3333
55938SOL    HW174864   2.258   7.505   7.477  1.1649  0.4159  0.1719
55938SOL    HW274865   2.316   7.581   7.360 -0.5568  1.3065 -0.1342
55939SOL     OW74866   2.145   5.845   0.799  0.1507 -0.2142  0.1480
55939SOL    HW174867   2.206   5.817   0.867 -0.9804 -3.0094  0.1433
55939SOL    HW274868   2.074   5.888   0.848  0.6977  0.3968  0.4250
55940SOL     OW74869   4.148  11.197   7.567  0.1892  0.3802 -0.7581
55940SOL    HW174870   4.149  11.288   7.597 -0.5761 -0.7091  3.1237
55940SOL    HW274871   4.240  11.171   7.567  0.3164  0.8208 -0.7458
55941SOL     OW74872  12.294   3.161  12.545 -0.3308 -0.1252 -0.2558
55941SOL    HW174873  12.286   3.070  12.572 -0.7186  0.1979  0.7532
55941SOL    HW274874  12.240   3.210  12.606  0.0491  0.8167 -0.6415
55942SOL     OW74875   3.592   4.205   8.813  0.3761 -0.4220  0.5875
55942SOL    HW174876   3.643   4.169   8.885 -0.3786 -0.0042  1.3441
55942SOL    HW274877   3.527   4.261   8.855  0.8033  0.9488 -0.4814
55943SOL     OW74878   6.279   5.087   6.137 -0.0170  0.2957  0.8411
55943SOL    HW174879   6.367   5.067   6.169  0.3930 -0.8680 -0.8856
55943SOL    HW274880   6.229   5.007   6.152 -0.0528  0.0378 -0.5356
55944SOL     OW74881   7.814  12.003  12.494  0.5159 -0.4901  0.3991
55944SOL    HW174882   7.820  11.912  12.522  1.5757 -1.0914 -1.5883
55944SOL    HW274883   7.865  12.052  12.559  1.8058 -1.6277  0.2860
55945SOL     OW74884   5.741   6.697   5.294 -0.2496  0.0682 -0.7053
55945SOL    HW174885   5.683   6.712   5.219  2.1423  2.3032 -2.2821
55945SOL    HW274886   5.699   6.742   5.367 -1.5274 -0.2347 -1.2292
55946SOL     OW74887   6.904   9.665  10.451 -0.2026 -0.1222  0.1520
55946SOL    HW174888   6.968   9.650  10.521  2.7784  0.4782 -2.2220
55946SOL    HW274889   6.884   9.577  10.419  0.2378 -0.2806  0.2921
55947SOL     OW74890   4.717   8.858   3.456  0.1239 -0.2184 -0.2404
55947SOL    HW174891   4.758   8.788   3.506 -1.0986 -0.4726  0.4490
55947SOL    HW274892   4.766   8.937   3.479  1.1545 -0.7384 -0.5917
55948SOL     OW74893   4.059  12.234  11.914  0.4468 -0.0413 -0.0350
55948SOL    HW174894   4.102  12.318  11.929 -2.5004  1.3988  1.2941
55948SOL    HW274895   4.077  12.183  11.993  0.4394  0.2339  0.1473
55949SOL     OW74896  11.136  12.301  11.693  0.3339 -0.5135  0.0223
55949SOL    HW174897  11.217  12.276  11.737  0.5341  0.1036  0.0192
55949SOL    HW274898  11.078  12.226  11.705  1.3378 -1.5201 -1.1052
55950SOL     OW74899   5.038   9.064   1.336 -0.2275 -0.4336 -0.2099
55950SOL    HW174900   5.059   9.022   1.252 -0.6871  0.7399 -0.9427
55950SOL    HW274901   5.070   9.154   1.326  2.0872 -0.9301  1.8772
55951SOL     OW74902   4.881   2.709   4.460 -0.0007  0.4245 -0.1074
55951SOL    HW174903   4.965   2.753   4.470  0.7601 -1.0154  0.2096
55951SOL    HW274904   4.834   2.760   4.394  1.5644  0.6682 -1.0849
55952SOL     OW74905   3.499   5.491   0.929  0.0805  0.1741 -0.5371
55952SOL    HW174906   3.571   5.449   0.975 -1.3541 -2.0947 -0.1844
55952SOL    HW274907   3.476   5.567   0.984  1.0360 -0.1043  0.2678
55953SOL     OW74908   7.244  11.194   0.920  0.3472  0.3480  0.2428
55953SOL    HW174909   7.169  11.152   0.961  0.7719 -0.0167  0.6551
55953SOL    HW274910   7.290  11.123   0.875  1.0325  0.3753  0.8860
55954SOL     OW74911   0.906  10.184   8.795 -0.0680  0.6337  0.1285
55954SOL    HW174912   0.963  10.158   8.722 -0.2156 -1.9122  0.8172
55954SOL    HW274913   0.966  10.208   8.865  0.0783  2.2831 -0.5298
55955SOL     OW74914   4.682  10.474  11.450  0.5405  0.1902 -0.1812
55955SOL    HW174915   4.737  10.465  11.528  1.0806 -2.2337 -0.7639
55955SOL    HW274916   4.695  10.565  11.422 -0.5722  1.5043  3.1295
55956SOL     OW74917   6.116   0.020   4.178  0.0242 -0.0617 -0.7655
55956SOL    HW174918   6.084   0.092   4.123 -0.9420 -0.2825 -0.5121
55956SOL    HW274919   6.159   0.063   4.251 -2.6409  0.3822  0.6648
55957SOL     OW74920   9.849   3.139   2.759  0.0757  0.5218  0.0280
55957SOL    HW174921   9.820   3.226   2.788 -0.1795  0.2286  0.6902
55957SOL    HW274922   9.909   3.110   2.828  1.5318  0.8759 -1.0401
55958SOL     OW74923   4.107   5.798   6.221 -0.0763 -0.1595 -0.0378
55958SOL    HW174924   4.058   5.814   6.140 -0.4557 -1.8753 -0.1890
55958SOL    HW274925   4.064   5.852   6.287  0.5099  1.6215 -1.0228
55959SOL     OW74926   9.550   3.259   3.262 -0.1523  0.5254  0.4362
55959SOL    HW174927   9.493   3.206   3.205 -0.0159  1.5572 -0.7089
55959SOL    HW274928   9.613   3.196   3.297  0.1141 -0.0738 -1.0187
55960SOL     OW74929   4.645   5.648   7.846 -0.1578 -0.3009  0.1573
55960SOL    HW174930   4.677   5.596   7.771 -2.3882 -1.7370  0.0901
55960SOL    HW274931   4.672   5.737   7.826  0.9416 -0.9191 -1.4173
55961SOL     OW74932   8.958   5.823   6.829  0.1152  0.0871 -0.6870
55961SOL    HW174933   9.013   5.850   6.902  2.1552 -1.9945 -1.3512
55961SOL    HW274934   8.998   5.864   6.752 -0.8980  0.7196 -0.9070
55962SOL     OW74935  10.651  11.623   4.505 -0.6593  0.2465  0.0681
55962SOL    HW174936  10.650  11.697   4.566 -2.0951 -1.2073  1.9456
55962SOL    HW274937  10.598  11.653   4.431 -0.6258  1.3522  0.4708
55963SOL     OW74938  12.231   9.924   5.069 -0.1198  0.4212 -0.1324
55963SOL    HW174939  12.197   9.998   5.019  0.2412  0.9587  0.3872
55963SOL    HW274940  12.196   9.937   5.158  0.9306  0.6691  0.2667
55964SOL     OW74941   7.382  11.569   1.458  0.3312 -0.3873  0.4346
55964SOL    HW174942   7.428  11.640   1.502 -0.0744 -0.4369  0.9526
55964SOL    HW274943   7.403  11.580   1.365 -0.0785  0.6818  0.4518
55965SOL     OW74944   8.823   0.414   5.279  0.3352  0.1656  0.6099
55965SOL    HW174945   8.841   0.398   5.186 -1.4200 -0.8214  0.3897
55965SOL    HW274946   8.734   0.382   5.292 -0.2664  2.2313  2.1696
55966SOL     OW74947  10.205   2.654   3.717  0.3496 -0.3689 -0.1803
55966SOL    HW174948  10.125   2.703   3.734  1.1977  0.9810  0.1034
55966SOL    HW274949  10.274   2.720   3.718  1.0816 -0.8437 -4.1082
55967SOL     OW74950   6.342   0.365  10.201  0.4151  0.3260  0.6190
55967SOL    HW174951   6.268   0.306  10.213 -0.8568  1.7032 -0.1047
55967SOL    HW274952   6.383   0.337  10.120 -0.2060  0.4317  0.2598
55968SOL     OW74953  10.733   0.633   4.220 -0.2668  0.1466  0.0937
55968SOL    HW174954  10.720   0.635   4.314  0.0919  0.1975  0.1446
55968SOL    HW274955  10.685   0.557   4.190  2.4079 -1.9648  0.7705
55969SOL     OW74956   7.797   1.313   9.225 -0.5799  0.6029  0.2126
55969SOL    HW174957   7.833   1.392   9.183 -0.8999  0.4552 -0.3541
55969SOL    HW274958   7.757   1.346   9.306 -0.8720  1.0517 -0.1084
55970SOL     OW74959   7.071   3.386   6.089 -0.6431 -0.8111  0.2321
55970SOL    HW174960   7.013   3.425   6.023 -1.2050  0.1969  1.2896
55970SOL    HW274961   7.096   3.459   6.145  1.9847 -1.1362 -0.3901
55971SOL     OW74962   4.607   5.994   0.923  0.5339 -0.6278  0.6551
55971SOL    HW174963   4.593   6.030   1.011 -1.3561 -2.1621  1.0620
55971SOL    HW274964   4.672   5.925   0.935  0.9305 -0.2544  0.6751
55972SOL     OW74965   2.515   1.009   6.062 -0.2525  0.1553  0.6965
55972SOL    HW174966   2.534   0.969   6.147 -1.1043  0.4787  1.0434
55972SOL    HW274967   2.429   0.975   6.038 -0.1268  0.2636  0.0773
55973SOL     OW74968   1.553   2.097   5.620  0.0223 -0.5078 -0.4163
55973SOL    HW174969   1.605   2.058   5.690  1.3804  0.5839 -0.7760
55973SOL    HW274970   1.509   2.171   5.663 -0.0654 -0.5407 -0.4501
55974SOL     OW74971   7.541   8.390   7.608 -0.0987 -0.2746  0.1559
55974SOL    HW174972   7.526   8.333   7.683  0.8381 -1.5103 -0.5551
55974SOL    HW274973   7.636   8.407   7.610 -0.4701  2.0472  0.8761
55975SOL     OW74974  11.175  12.206   2.960  0.2880  0.2520  0.3278
55975SOL    HW174975  11.081  12.201   2.973  0.0616  1.5571 -0.6084
55975SOL    HW274976  11.212  12.209   3.049 -0.7219  2.1256  0.7275
55976SOL     OW74977   5.063   3.955   6.733 -0.3608  0.5522 -0.8446
55976SOL    HW174978   5.055   4.048   6.710  0.2283  0.3085 -2.1663
55976SOL    HW274979   5.052   3.909   6.649 -1.8782 -0.6565 -0.0210
55977SOL     OW74980   9.723   5.583   8.934 -0.0796 -0.4468  0.6338
55977SOL    HW174981   9.656   5.567   8.867  0.7499  1.4013 -0.7245
55977SOL    HW274982   9.775   5.502   8.935 -0.5927 -0.8141 -0.3878
55978SOL     OW74983   4.543   5.509   9.714 -0.7331 -0.3736  0.5324
55978SOL    HW174984   4.634   5.496   9.741 -0.5342  0.9780  0.5655
55978SOL    HW274985   4.550   5.545   9.625 -1.1918  0.5643  0.8657
55979SOL     OW74986   1.681   7.042   7.496 -0.2348 -0.3477 -0.9226
55979SOL    HW174987   1.654   7.131   7.517  0.2982 -0.5281  0.7363
55979SOL    HW274988   1.603   6.989   7.509  0.0414 -0.4314  0.6461
55980SOL     OW74989   4.219   9.186   5.076 -0.1949 -0.2418  0.4766
55980SOL    HW174990   4.141   9.130   5.071 -0.3371  0.0181 -0.2723
55980SOL    HW274991   4.250   9.192   4.985  0.6699 -0.2993  0.7550
55981SOL     OW74992   2.281   0.849   9.781 -0.4057 -0.4162 -0.1942
55981SOL    HW174993   2.289   0.937   9.817 -0.9146 -0.6193  0.4378
55981SOL    HW274994   2.237   0.861   9.697  0.2101  0.0029 -0.4613
55982SOL     OW74995   2.378   6.745  11.442  0.1445 -0.0324  0.5096
55982SOL    HW174996   2.471   6.750  11.462 -0.1715 -1.3153  2.6044
55982SOL    HW274997   2.348   6.836  11.439  1.1520  0.3410  1.4768
55983SOL     OW74998   7.351   2.734   2.306 -0.1029 -0.1475  0.4964
55983SOL    HW174999   7.415   2.722   2.236  0.4935  0.6865  0.8885
55983SOL    HW275000   7.397   2.784   2.373 -0.5674 -1.2173  1.6450
55984SOL     OW75001   5.072   6.187   8.773 -0.1720 -0.1290  0.4882
55984SOL    HW175002   4.988   6.229   8.791  0.1433  0.4954  0.5145
55984SOL    HW275003   5.099   6.224   8.689  1.5670  2.0863  1.9297
55985SOL     OW75004   0.713   8.178   9.623  0.0562  0.0939  0.2133
55985SOL    HW175005   0.788   8.211   9.672 -0.1228  1.1640 -0.2201
55985SOL    HW275006   0.648   8.248   9.627 -0.0781  0.0993 -1.2867
55986SOL     OW75007   0.142   1.473   0.375 -0.5731 -0.5145 -0.3564
55986SOL    HW175008   0.131   1.418   0.452  0.3029 -1.1582 -0.6639
55986SOL    HW275009   0.096   1.554   0.395  0.5691 -0.2321  1.2838
55987SOL     OW75010   2.394   9.599   8.104 -0.3005 -0.1419 -0.0970
55987SOL    HW175011   2.425   9.689   8.094 -0.0880  0.1584  2.5368
55987SOL    HW275012   2.298   9.606   8.098 -0.2297 -0.0038 -1.3527
55988SOL     OW75013   7.074  10.872   1.594 -0.0413 -0.3052  0.2819
55988SOL    HW175014   7.055  10.844   1.684  2.6978 -2.0627  0.4202
55988SOL    HW275015   7.156  10.921   1.601 -0.1138  0.0598 -1.1997
55989SOL     OW75016   9.939   9.305   7.497  0.0818  0.1371  0.3742
55989SOL    HW175017   9.861   9.287   7.551 -1.1498 -0.9236 -1.6426
55989SOL    HW275018  10.000   9.235   7.520 -1.6376 -2.2131 -1.7176
55990SOL     OW75019   9.518   9.742   0.367  0.0194 -0.2732  0.3251
55990SOL    HW175020   9.562   9.773   0.288 -0.4302 -0.4645 -0.0087
55990SOL    HW275021   9.543   9.650   0.374 -1.6436 -0.8840 -0.8426
55991SOL     OW75022  11.056   2.437  10.861 -0.1875 -0.7296 -0.0038
55991SOL    HW175023  11.013   2.519  10.837  0.3678 -0.5824 -0.5318
55991SOL    HW275024  11.146   2.463  10.883 -0.0784 -1.1649  0.0687
55992SOL     OW75025   1.284  12.396   0.360 -0.4493  0.5125  0.3867
55992SOL    HW175026   1.188  12.389   0.357 -0.3359 -2.0039  0.0568
55992SOL    HW275027   1.314  12.324   0.303  1.6302 -0.2285  2.2949
55993SOL     OW75028   3.254  10.838  11.329 -0.0400  0.2478 -0.4458
55993SOL    HW175029   3.271  10.744  11.320 -0.4621  0.0404  0.6903
55993SOL    HW275030   3.340  10.877  11.338  0.1544  0.0066 -1.2257
55994SOL     OW75031   9.658   5.449   4.476  0.1305 -0.7001  0.1007
55994SOL    HW175032   9.728   5.429   4.415 -0.6697 -0.1858 -1.0077
55994SOL    HW275033   9.694   5.518   4.532  0.4988 -0.4428 -0.4524
55995SOL     OW75034   8.319  11.574   1.437 -0.4573  0.2270  0.0259
55995SOL    HW175035   8.294  11.578   1.530  1.2865 -0.1632  0.5551
55995SOL    HW275036   8.316  11.481   1.416  0.4409  0.1779  0.0891
55996SOL     OW75037   5.666   6.995  10.349  0.0511 -0.6115  0.3781
55996SOL    HW175038   5.647   7.041  10.431  1.6979 -0.4928  0.7374
55996SOL    HW275039   5.721   7.056  10.300  0.5472 -1.3855 -0.0460
55997SOL     OW75040   9.559   7.842  10.388 -0.3145  0.4913  0.4122
55997SOL    HW175041   9.654   7.836  10.383 -0.3057  1.1893 -0.3964
55997SOL    HW275042   9.527   7.790  10.314 -0.5086  1.3952 -0.1581
55998SOL     OW75043   4.292   6.996   0.969 -0.4979  0.0992 -0.2530
55998SOL    HW175044   4.251   6.936   0.906  0.6789 -0.0442 -0.9211
55998SOL    HW275045   4.283   6.952   1.053 -0.7966 -0.4078 -0.5453
55999SOL     OW75046   8.280   2.300   0.002 -0.1467 -0.1418  0.0925
55999SOL    HW175047   8.313   2.271  -0.083 -0.7370  0.4466 -0.3369
55999SOL    HW275048   8.209   2.361  -0.018 -0.8822 -0.6622  1.0010
56000SOL     OW75049   3.718   6.890   6.615  0.0082 -0.0096  0.3012
56000SOL    HW175050   3.735   6.875   6.708  1.4618 -0.3407  0.0068
56000SOL    HW275051   3.697   6.983   6.609 -0.2513 -0.0185  0.9662
56001SOL     OW75052   9.103   4.141   8.887  0.3731  0.3662 -0.0317
56001SOL    HW175053   9.053   4.130   8.968 -4.2051  0.2874 -2.5662
56001SOL    HW275054   9.080   4.229   8.856  2.5215  0.6495 -0.9990
56002SOL     OW75055  11.903   7.746   0.755  0.3319  0.2943  0.5536
56002SOL    HW175056  11.842   7.790   0.814 -0.5690 -0.4545  0.2048
56002SOL    HW275057  11.951   7.817   0.713  0.1812  0.8711  1.3349
56003SOL     OW75058   8.859   3.387   5.563  0.4471 -0.1323 -0.0454
56003SOL    HW175059   8.813   3.373   5.481  1.8084 -1.2449 -0.6638
56003SOL    HW275060   8.810   3.456   5.607 -1.9815 -1.4933 -0.4823
56004SOL     OW75061   1.009   2.976  10.418  0.6139  0.5506  0.3085
56004SOL    HW175062   1.011   2.889  10.378 -0.0007  0.7355 -0.1303
56004SOL    HW275063   1.056   3.032  10.356 -1.6793  1.1559 -0.9609
56005SOL     OW75064   4.901   1.629  11.185  0.5637  0.3860  0.0483
56005SOL    HW175065   4.842   1.557  11.162  0.7443 -0.4944  2.0617
56005SOL    HW275066   4.857   1.708  11.154 -1.8454 -0.2122  1.6633
56006SOL     OW75067  10.585   3.286   1.983 -0.6087 -0.1154  0.5053
56006SOL    HW175068  10.672   3.292   1.944 -1.0239 -0.3602 -0.4824
56006SOL    HW275069  10.525   3.297   1.910 -1.4153 -2.3558  0.7332
56007SOL     OW75070  11.271   3.243   4.672 -0.0078  0.0062 -0.0946
56007SOL    HW175071  11.326   3.320   4.687 -0.9123  0.8254 -0.8518
56007SOL    HW275072  11.216   3.236   4.750  2.6084 -2.1610  1.7414
56008SOL     OW75073   4.483  12.121   8.402 -0.1422  0.2515  0.5829
56008SOL    HW175074   4.462  12.194   8.344 -0.5511  0.2915  0.7807
56008SOL    HW275075   4.424  12.051   8.375  2.1629 -1.0530 -1.5831
56009SOL     OW75076  10.667  11.987   3.225 -0.1475 -0.8578 -0.1180
56009SOL    HW175077  10.753  11.972   3.185  0.7067 -2.1632  2.0406
56009SOL    HW275078  10.673  12.075   3.263  0.4413 -1.1388  0.4598
56010SOL     OW75079  12.422   6.326   8.669  0.1879  0.0155  0.2674
56010SOL    HW175080  12.509   6.287   8.679  0.3647  0.0786 -0.9366
56010SOL    HW275081  12.420   6.357   8.579 -1.4748 -0.9615 -0.0685
56011SOL     OW75082   6.789   0.805   0.621  0.0557 -0.2264  0.0940
56011SOL    HW175083   6.732   0.797   0.697  0.9848 -0.2033  0.8019
56011SOL    HW275084   6.785   0.719   0.579  0.7550 -0.7409  1.0473
56012SOL     OW75085   6.740   4.885   5.233 -0.8295 -0.7386 -0.0725
56012SOL    HW175086   6.651   4.873   5.199 -0.1571 -0.0022 -2.2481
56012SOL    HW275087   6.772   4.796   5.247 -2.1128 -1.0160  1.4663
56013SOL     OW75088  11.799   6.422   1.429 -0.0046 -0.5587 -0.3939
56013SOL    HW175089  11.797   6.366   1.352  0.0139  0.1616 -0.9254
56013SOL    HW275090  11.715   6.467   1.429 -0.2178 -0.9429  0.3076
56014SOL     OW75091   1.286   0.328   1.212 -0.0177  0.0576 -0.6892
56014SOL    HW175092   1.329   0.245   1.187 -1.5381 -0.4358 -1.8312
56014SOL    HW275093   1.268   0.371   1.129 -0.2573  1.0199 -0.1488
56015SOL     OW75094   8.809  10.844   7.787 -0.4264 -0.0091 -0.6705
56015SOL    HW175095   8.745  10.773   7.792 -0.5021  0.0836 -0.2396
56015SOL    HW275096   8.757  10.924   7.801 -0.6258  0.3070 -2.7940
56016SOL     OW75097   1.957   7.536   9.998 -0.6837 -0.0290 -0.2892
56016SOL    HW175098   1.936   7.605  10.060  0.6355  1.6841 -1.6315
56016SOL    HW275099   1.872   7.508   9.963 -1.2482  0.8762  0.3308
56017SOL     OW75100  10.569   3.173   4.888 -0.2125 -0.3392  0.0595
56017SOL    HW175101  10.633   3.144   4.822 -0.9766 -0.5046 -0.6227
56017SOL    HW275102  10.551   3.095   4.940  0.7216 -0.1082  0.7751
56018SOL     OW75103  11.896  11.840   9.255  0.0653  0.1900  0.4094
56018SOL    HW175104  11.882  11.746   9.250  1.0182  0.0665 -0.0612
56018SOL    HW275105  11.858  11.865   9.340  1.0632 -0.8416  1.1848
56019SOL     OW75106  11.550   3.325  10.875  0.1007 -0.0658  0.0410
56019SOL    HW175107  11.604   3.397  10.908  0.7550 -0.3962 -0.2929
56019SOL    HW275108  11.463   3.341  10.912  0.1620  1.0667 -0.2977
56020SOL     OW75109   6.915   3.322   2.607 -0.2717  0.4125 -0.1477
56020SOL    HW175110   6.863   3.289   2.680 -0.0167 -2.2142 -1.0491
56020SOL    HW275111   6.861   3.392   2.569 -1.6236 -0.0015  0.9312
56021SOL     OW75112   8.331   0.588  11.530  0.1098  0.1770 -0.5147
56021SOL    HW175113   8.332   0.674  11.488  1.0639 -0.3207 -1.5406
56021SOL    HW275114   8.346   0.526  11.459  2.0634 -0.6724  0.5770
56022SOL     OW75115   2.731   7.166   3.086  0.8916 -0.1646 -0.6873
56022SOL    HW175116   2.757   7.074   3.081  3.1485  0.1733  2.1498
56022SOL    HW275117   2.810   7.215   3.064  1.0062  0.9821  1.8563
56023SOL     OW75118   9.469   6.171  11.272  0.0463  0.1733 -0.1615
56023SOL    HW175119   9.550   6.168  11.322 -0.4300  2.4668  0.8899
56023SOL    HW275120   9.424   6.089  11.294  1.6560 -0.7335 -0.0894
56024SOL     OW75121   3.204  11.169   7.933  0.5428 -0.0879  0.0402
56024SOL    HW175122   3.208  11.260   7.961 -1.6991  0.3537 -0.7949
56024SOL    HW275123   3.187  11.174   7.838  2.4384 -1.4410 -0.4286
56025SOL     OW75124   8.517   1.106   2.671 -0.4856 -0.0138  0.1885
56025SOL    HW175125   8.486   1.018   2.691 -0.5961 -0.0042  0.0654
56025SOL    HW275126   8.563   1.134   2.750  0.1559 -0.4452 -0.0182
56026SOL     OW75127   5.832  12.151   3.602  0.1102 -0.0022  0.0989
56026SOL    HW175128   5.900  12.144   3.669  0.6297  0.5491 -0.3572
56026SOL    HW275129   5.880  12.172   3.522 -0.4176 -1.4935 -0.6434
56027SOL     OW75130   4.636   4.465  10.532  0.6435 -0.4282 -0.5853
56027SOL    HW175131   4.545   4.442  10.512  0.9108 -0.9951 -1.1961
56027SOL    HW275132   4.646   4.554  10.500  0.6781 -0.8441 -1.7868
56028SOL     OW75133   1.584   4.417   9.118  0.3802  0.0544 -0.7647
56028SOL    HW175134   1.595   4.383   9.207 -1.2205  0.4888 -0.3851
56028SOL    HW275135   1.660   4.474   9.105  0.3147  0.4625  0.5464
56029SOL     OW75136   6.320   5.927   0.845  0.0451  0.5953  0.2826
56029SOL    HW175137   6.321   5.836   0.814 -0.3731  0.5762  0.3208
56029SOL    HW275138   6.347   5.921   0.936 -0.5186  0.4455  0.4429
56030SOL     OW75139   2.993   5.787   8.881 -0.3582 -0.0356  0.0366
56030SOL    HW175140   2.984   5.718   8.947 -0.5870  0.5781  0.6579
56030SOL    HW275141   3.084   5.816   8.888 -0.0094 -0.8774 -0.8454
56031SOL     OW75142   0.157   1.104   9.225 -0.3216 -0.0702  0.1957
56031SOL    HW175143   0.079   1.063   9.262  0.1464 -1.0442  0.1306
56031SOL    HW275144   0.219   1.110   9.298  1.0432 -3.0585 -0.5305
56032SOL     OW75145   4.387   2.036   2.254  0.2807 -0.3939  0.3412
56032SOL    HW175146   4.321   2.069   2.193 -0.1845 -0.6660  0.6897
56032SOL    HW275147   4.374   2.086   2.334  2.2722  1.4666 -0.3981
56033SOL     OW75148   4.033   2.300   6.658 -0.5475  0.2827 -0.3311
56033SOL    HW175149   4.029   2.205   6.661  1.7629  0.0374 -1.8936
56033SOL    HW275150   4.121   2.321   6.688 -0.6739  1.8347 -0.9544
56034SOL     OW75151   9.855  11.854   8.487 -0.0758  0.0313  0.3412
56034SOL    HW175152   9.870  11.939   8.527 -0.3349 -0.1232  0.7723
56034SOL    HW275153   9.760  11.850   8.474 -0.4830 -1.3979  3.0850
56035SOL     OW75154   7.093  12.353   3.554 -0.4996 -0.6708  0.2224
56035SOL    HW175155   7.016  12.388   3.511  0.4451  0.4535 -0.6318
56035SOL    HW275156   7.075  12.363   3.647 -1.7288 -1.2407  0.0629
56036SOL     OW75157   2.418  12.524  11.215  0.7698  0.5018  0.3031
56036SOL    HW175158   2.402  12.575  11.136 -1.0984  0.0835  0.3643
56036SOL    HW275159   2.508  12.545  11.239  1.0388  1.4228 -1.3500
56037SOL     OW75160   4.003   4.808  11.558 -0.2399 -0.0594 -0.6511
56037SOL    HW175161   3.989   4.718  11.530 -1.9294 -0.1230  0.2436
56037SOL    HW275162   3.925   4.829  11.610  0.6935  1.5164  0.1758
56038SOL     OW75163   9.445   1.656   8.344  0.3084  0.1162 -0.8664
56038SOL    HW175164   9.514   1.611   8.296  1.3046 -1.3160  1.7048
56038SOL    HW275165   9.485   1.739   8.371  1.0550 -0.6565  0.5115
56039SOL     OW75166   9.508  11.104  10.114 -0.3231  0.0034 -0.2154
56039SOL    HW175167   9.449  11.064  10.178 -1.5117  0.5902 -0.9182
56039SOL    HW275168   9.580  11.139  10.167 -2.0485  1.9184  1.0449
56040SOL     OW75169   0.249   7.544   1.222 -0.1917 -0.2617  0.1130
56040SOL    HW175170   0.287   7.535   1.135  0.8565 -0.1416  0.5440
56040SOL    HW275171   0.237   7.638   1.234 -0.5862 -0.2972 -0.0072
56041SOL     OW75172   0.148   8.613   7.150  0.6223  0.1589  0.3426
56041SOL    HW175173   0.205   8.688   7.134  0.3022  0.4152  0.3773
56041SOL    HW275174   0.107   8.631   7.235 -2.2986  1.8301 -1.2537
56042SOL     OW75175   0.492   2.701  12.205  0.1412 -0.0706  0.5566
56042SOL    HW175176   0.456   2.735  12.287 -0.3103  1.2302 -0.1526
56042SOL    HW275177   0.507   2.778  12.151 -0.0403 -0.9301 -0.7785
56043SOL     OW75178   3.920   8.754   5.668  0.2578 -0.0761 -0.4753
56043SOL    HW175179   3.847   8.710   5.624  0.5379  0.7754 -1.8300
56043SOL    HW275180   3.883   8.780   5.753 -0.9778  0.1602 -1.0511
56044SOL     OW75181   9.866   1.523  10.060 -0.2332 -0.0706  0.1939
56044SOL    HW175182   9.868   1.531  10.155  2.1601 -1.0490  0.2994
56044SOL    HW275183   9.869   1.429  10.043 -0.5876  0.0910 -0.8660
56045SOL     OW75184   9.205   6.664   0.181 -0.5892  0.2147  0.3326
56045SOL    HW175185   9.271   6.732   0.198 -1.5517  2.1797 -2.8566
56045SOL    HW275186   9.256   6.588   0.154  0.4810  1.2877 -0.8264
56046SOL     OW75187   1.453   9.120   7.143  0.1974  0.1452  0.5032
56046SOL    HW175188   1.374   9.139   7.193 -0.1530  0.1769 -0.0570
56046SOL    HW275189   1.485   9.206   7.114 -0.4400  0.0329 -0.5892
56047SOL     OW75190   5.122   0.457   5.614  0.1538 -0.4240  0.5696
56047SOL    HW175191   5.159   0.369   5.625 -2.5870 -1.6530  0.7757
56047SOL    HW275192   5.118   0.492   5.703 -0.9978 -1.1102  0.8012
56048SOL     OW75193   0.865   5.441   3.627  0.2239 -0.0709  0.3285
56048SOL    HW175194   0.829   5.509   3.570 -1.3827  0.2280  1.6156
56048SOL    HW275195   0.858   5.360   3.577 -2.6168 -0.0784  0.5810
56049SOL     OW75196   0.098   0.537   3.765 -0.1560 -0.1332  0.5049
56049SOL    HW175197   0.005   0.519   3.752 -0.3597  0.4446  1.1148
56049SOL    HW275198   0.135   0.452   3.790 -0.3756 -0.5227 -0.4243
56050SOL     OW75199   8.229  11.743  11.814  0.3065 -0.1203 -0.0205
56050SOL    HW175200   8.285  11.778  11.883  0.0337 -0.6818  0.4960
56050SOL    HW275201   8.237  11.806  11.743 -0.8113  1.4499  1.1656
56051SOL     OW75202   0.309   3.562  12.536 -0.1400  0.2851  0.1804
56051SOL    HW175203   0.214   3.558  12.528  0.0780 -1.0185 -2.8955
56051SOL    HW275204   0.335   3.476  12.568  0.0366  0.6008  0.9082
56052SOL     OW75205  10.961  12.224   5.534 -0.2852  0.3676 -0.1285
56052SOL    HW175206  10.902  12.163   5.577 -2.7896  1.9800 -1.0597
56052SOL    HW275207  10.934  12.310   5.566  1.9988  1.1809 -0.1630
56053SOL     OW75208  10.935   4.840  12.272  0.2153  0.2090  0.4112
56053SOL    HW175209  10.950   4.798  12.357 -0.4117  0.5674  0.7016
56053SOL    HW275210  10.849   4.880  12.280  0.7356  1.4284  0.0781
56054SOL     OW75211   1.320   9.393   9.010 -0.3677 -0.3581 -0.8545
56054SOL    HW175212   1.325   9.478   9.055 -0.2356 -0.8306  0.0534
56054SOL    HW275213   1.386   9.399   8.940  1.4424 -0.5675  0.7333
56055SOL     OW75214   0.652   1.049  10.209 -0.2793  0.2890 -0.5763
56055SOL    HW175215   0.725   1.011  10.159 -0.3789 -1.2585  0.4035
56055SOL    HW275216   0.603   0.974  10.242 -0.3620  1.2414  1.6633
56056SOL     OW75217  11.724   1.508   6.627  0.0431 -0.2776 -0.4104
56056SOL    HW175218  11.708   1.413   6.632  0.5222 -0.3118  0.7552
56056SOL    HW275219  11.639   1.545   6.601 -1.3002 -0.7082  2.8570
56057SOL     OW75220  12.509   2.391   4.575 -0.1125 -0.6150 -0.1776
56057SOL    HW175221  12.435   2.331   4.570  0.2595 -0.9978 -1.2141
56057SOL    HW275222  12.483   2.467   4.523  0.7958 -1.3954 -1.8449
56058SOL     OW75223   2.925  10.585   7.252 -0.2159  0.4259  0.4804
56058SOL    HW175224   2.832  10.588   7.271 -0.0211 -0.6932  1.8011
56058SOL    HW275225   2.953  10.677   7.252 -1.5935  0.8912 -1.6449
56059SOL     OW75226   5.976  10.308   7.655  0.0397  0.0874 -0.7127
56059SOL    HW175227   6.006  10.396   7.679 -0.6114  0.6293 -1.8001
56059SOL    HW275228   6.053  10.267   7.614  0.2713  0.2430 -0.4384
56060SOL     OW75229   0.905  12.226  10.043 -0.0334  0.3055 -0.0408
56060SOL    HW175230   0.983  12.271  10.011  0.4771  0.2315  1.0508
56060SOL    HW275231   0.937  12.141  10.073 -0.5752  0.1777  0.1894
56061SOL     OW75232  10.460   9.037   5.928 -0.3080 -0.3595  0.2066
56061SOL    HW175233  10.509   9.088   5.993  0.1199 -0.7567  0.2055
56061SOL    HW275234  10.437   9.101   5.861 -0.4378 -0.0169  0.5734
56062SOL     OW75235   1.672   9.161   1.838 -0.2905 -0.8221  0.1743
56062SOL    HW175236   1.636   9.073   1.848 -0.4271 -0.9683 -1.3502
56062SOL    HW275237   1.761   9.155   1.872 -0.1132 -1.6995 -0.4193
56063SOL     OW75238   3.381   9.863  11.833  0.3664 -0.7332 -0.0987
56063SOL    HW175239   3.353   9.875  11.743  1.0267  1.5934 -0.0730
56063SOL    HW275240   3.346   9.778  11.859 -0.5584 -1.0633 -2.2547
56064SOL     OW75241   0.386   9.759   8.537  0.8209 -0.0611 -0.3277
56064SOL    HW175242   0.413   9.811   8.613 -0.3835 -1.0062  0.7992
56064SOL    HW275243   0.295   9.736   8.554  0.6158 -0.5781 -1.9259
56065SOL     OW75244  10.692   4.444   5.355 -0.0817  0.1341  0.3434
56065SOL    HW175245  10.664   4.410   5.270 -1.0013  0.4525  0.5173
56065SOL    HW275246  10.782   4.411   5.365  0.2477  0.5722 -1.0060
56066SOL     OW75247   1.350   2.432   2.074 -0.2834  0.4014 -0.0246
56066SOL    HW175248   1.305   2.361   2.029 -0.4639 -0.1315  0.9573
56066SOL    HW275249   1.315   2.429   2.163  1.9385 -0.2544  0.8836
56067SOL     OW75250   5.783   8.611   0.455  0.0607 -0.3250 -0.0125
56067SOL    HW175251   5.855   8.548   0.466  0.9415  0.8354  1.2358
56067SOL    HW275252   5.825   8.697   0.463 -1.0081  0.5017 -2.2323
56068SOL     OW75253   2.942   6.971   0.387 -0.0466  0.0243  0.4989
56068SOL    HW175254   2.881   7.036   0.422  0.4718  1.0726 -0.4855
56068SOL    HW275255   2.885   6.901   0.354 -0.6259  0.0880  1.3360
56069SOL     OW75256   3.288  11.678  10.020  0.8025 -0.3048 -0.7786
56069SOL    HW175257   3.367  11.684  10.073  0.5118  0.8767 -0.4340
56069SOL    HW275258   3.299  11.599   9.967  2.4562  0.1305 -1.1351
56070SOL     OW75259   6.449   8.745   8.760 -0.0312  0.0403  0.1171
56070SOL    HW175260   6.427   8.730   8.668  0.7578  0.3788 -0.1407
56070SOL    HW275261   6.544   8.729   8.764  0.0999  0.9036  0.6863
56071SOL     OW75262  11.356   6.309   3.894  0.0057  0.2816 -0.4991
56071SOL    HW175263  11.351   6.289   3.801 -1.5557 -0.2126 -0.3343
56071SOL    HW275264  11.277   6.359   3.913  0.4745  0.6739  0.4977
56072SOL     OW75265   0.261   6.586   7.597  0.4037 -0.3084  0.0670
56072SOL    HW175266   0.170   6.601   7.623  0.6988  0.1979  0.8413
56072SOL    HW275267   0.256   6.517   7.531 -0.4666 -0.9351  0.7632
56073SOL     OW75268   2.089   8.428  11.250  0.0315  0.6904 -0.0866
56073SOL    HW175269   2.064   8.409  11.340 -0.0406 -2.1032 -0.6222
56073SOL    HW275270   2.013   8.475  11.214 -1.3559 -1.0519  0.4281
56074SOL     OW75271   0.784   8.919   5.779 -0.0183 -0.0365  0.2321
56074SOL    HW175272   0.710   8.979   5.791  0.4722  1.1210 -1.9827
56074SOL    HW275273   0.853   8.973   5.742  2.2759 -0.9436  2.8943
56075SOL     OW75274   4.631   7.622  12.037  0.5443  0.2117  0.1610
56075SOL    HW175275   4.724   7.643  12.039  0.3445  1.1250  1.9558
56075SOL    HW275276   4.610   7.616  11.944  2.4897 -0.5645 -0.2822
56076SOL     OW75277   9.952  12.570   6.742 -0.3471  0.0131  0.1175
56076SOL    HW175278   9.941  12.477   6.724 -1.9379 -0.3278  2.3709
56076SOL    HW275279  10.023  12.574   6.807  0.7531  0.5524 -1.0760
56077SOL     OW75280   5.440   2.437   7.167 -0.1271 -0.1550  0.1131
56077SOL    HW175281   5.359   2.394   7.138 -0.5743  1.4248 -1.1254
56077SOL    HW275282   5.421   2.467   7.256 -1.0281  0.4461 -0.2696
56078SOL     OW75283   7.955   5.603   0.532  0.7855  0.0265 -1.0278
56078SOL    HW175284   7.957   5.609   0.628 -1.2311 -0.5886 -0.8939
56078SOL    HW275285   7.960   5.693   0.502  1.0794  0.2491 -0.3246
56079SOL     OW75286   1.247   4.316   5.080 -0.0206 -0.0106 -0.0930
56079SOL    HW175287   1.165   4.363   5.089  0.5681  0.9003  0.6282
56079SOL    HW275288   1.221   4.227   5.055 -1.1758  0.4635 -0.6252
56080SOL     OW75289   2.446   6.211   7.034 -0.0666  0.0484  0.2020
56080SOL    HW175290   2.397   6.277   7.083  0.9977 -0.1511  1.6222
56080SOL    HW275291   2.493   6.162   7.101 -1.6562 -2.9180 -0.6770
56081SOL     OW75292   2.039  11.504   7.595  0.1246  0.0691  0.2697
56081SOL    HW175293   2.054  11.552   7.513  1.9241  2.0874  1.6460
56081SOL    HW275294   2.122  11.514   7.643 -0.6677 -1.5663  2.0845
56082SOL     OW75295   6.900   4.142  12.404 -0.2302  0.3225 -0.2059
56082SOL    HW175296   6.820   4.194  12.407 -0.6089 -0.2345 -0.3824
56082SOL    HW275297   6.925   4.132  12.496  0.1870  1.3086 -0.2003
56083SOL     OW75298   5.288  11.184   4.944 -0.2019 -0.1485  0.3186
56083SOL    HW175299   5.312  11.110   5.000 -1.2915 -1.0778 -0.3961
56083SOL    HW275300   5.333  11.259   4.983  1.7990 -1.3378  0.4691
56084SOL     OW75301   9.238   9.416   7.466  0.4662  0.3806  0.5458
56084SOL    HW175302   9.329   9.446   7.470  0.0062  1.9138  0.1159
56084SOL    HW275303   9.187   9.492   7.493 -0.7748  0.0558 -0.8038
56085SOL     OW75304   2.467  12.594   6.882  0.0440 -0.2164 -0.0968
56085SOL    HW175305   2.508  12.663   6.934 -3.8407  2.6450 -0.3634
56085SOL    HW275306   2.470  12.627   6.792 -2.0975 -0.1385 -0.1950
56086SOL     OW75307   8.587   8.200   0.595  0.1618  0.1138  0.1278
56086SOL    HW175308   8.565   8.279   0.545  0.4255  1.1402  1.5682
56086SOL    HW275309   8.680   8.210   0.616 -0.1578  0.2182  1.6245
56087SOL     OW75310   1.354  12.232   6.378 -0.3639  0.0768  0.3156
56087SOL    HW175311   1.404  12.242   6.458 -1.1639 -2.1350  1.1685
56087SOL    HW275312   1.409  12.270   6.310  0.8399  0.9541  1.7352
56088SOL     OW75313   5.738   9.631  11.770 -0.3624  0.0518  0.6744
56088SOL    HW175314   5.813   9.665  11.819 -0.5082  0.5035  0.5857
56088SOL    HW275315   5.756   9.537  11.762  0.1988  0.1532  0.6505
56089SOL     OW75316   6.034   8.102  10.945  0.3351 -0.0343 -0.0843
56089SOL    HW175317   5.988   8.148  10.874 -0.3604 -1.6316 -0.7093
56089SOL    HW275318   6.107   8.059  10.902 -0.0814 -0.9953  0.1461
56090SOL     OW75319   3.763  10.084   1.891  0.1908  0.6227  0.4379
56090SOL    HW175320   3.761  10.180   1.890  1.2590  0.7033  2.0904
56090SOL    HW275321   3.856  10.063   1.903  0.1055 -0.6738 -0.8714
56091SOL     OW75322   6.438  10.217   2.765  0.3558  0.4919 -0.2070
56091SOL    HW175323   6.491  10.279   2.816 -0.1028 -1.5629  3.0612
56091SOL    HW275324   6.395  10.163   2.831 -0.8600 -2.0141 -2.8555
56092SOL     OW75325  10.405   3.613   3.455  0.1932  0.3253  0.1945
56092SOL    HW175326  10.454   3.667   3.517 -0.1872  0.7146  0.1546
56092SOL    HW275327  10.429   3.649   3.369  0.4704 -0.0092  0.1273
56093SOL     OW75328   9.512  12.292   4.696 -0.3200  0.0721 -0.4753
56093SOL    HW175329   9.449  12.240   4.745 -0.7415 -1.0595 -2.1501
56093SOL    HW275330   9.505  12.260   4.607  3.2104 -0.6857 -0.6071
56094SOL     OW75331   6.059   1.633   1.917 -0.4306  0.2078 -0.0037
56094SOL    HW175332   6.116   1.657   1.990 -0.9744  0.9768  0.1781
56094SOL    HW275333   6.107   1.662   1.839  0.2946 -0.8981  0.0068
56095SOL     OW75334   0.922  11.506   4.324 -0.1910  0.2457 -0.2707
56095SOL    HW175335   0.955  11.593   4.300 -0.0119  0.3067  0.1859
56095SOL    HW275336   0.996  11.447   4.307  0.5851  0.5312  1.8165
56096SOL     OW75337   0.898   7.649   2.825  0.0160 -0.2142 -0.3993
56096SOL    HW175338   0.843   7.573   2.846 -0.0014 -0.2017 -0.3988
56096SOL    HW275339   0.954   7.661   2.901 -2.3036  1.8763  1.1747
56097SOL     OW75340   3.644   5.184   8.864  0.2836  0.4485  0.1705
56097SOL    HW175341   3.625   5.143   8.780 -0.1590  2.6225 -0.8753
56097SOL    HW275342   3.722   5.237   8.847 -1.2801  2.9519  0.3201
56098SOL     OW75343  10.696   1.352   0.322  0.2461 -0.3636  0.1572
56098SOL    HW175344  10.673   1.444   0.331  0.3192 -0.0594 -2.1619
56098SOL    HW275345  10.688   1.334   0.228  0.1149 -2.7562  0.5481
56099SOL     OW75346   0.361   2.364   4.561  0.4878 -0.1708 -1.1241
56099SOL    HW175347   0.432   2.311   4.525  0.2811 -2.9717  2.0381
56099SOL    HW275348   0.393   2.394   4.646 -2.2888 -2.7085  1.0826
56100SOL     OW75349   7.008   4.284   4.977 -0.2612 -0.2099 -0.3088
56100SOL    HW175350   7.011   4.327   5.063 -0.9408  1.6712 -1.1599
56100SOL    HW275351   6.936   4.221   4.984 -0.6666  0.3070  0.3650
56101SOL     OW75352   9.439   1.204  11.857 -0.0447  0.5812 -0.1476
56101SOL    HW175353   9.483   1.125  11.827 -0.0917 -0.0011  1.2536
56101SOL    HW275354   9.346   1.189  11.839 -0.1033  0.1234  0.5027
56102SOL     OW75355   0.514   4.417   2.558 -0.4583 -0.4476  0.2669
56102SOL    HW175356   0.577   4.425   2.487 -1.2934  2.9514 -0.2285
56102SOL    HW275357   0.560   4.452   2.635 -0.5306 -1.4449  0.7842
56103SOL     OW75358   8.748   2.621   7.516  0.1354  0.3467  0.3407
56103SOL    HW175359   8.687   2.689   7.488  0.0119 -0.2841 -1.0180
56103SOL    HW275360   8.693   2.555   7.559  0.0506  0.4081  0.3261
56104SOL     OW75361  10.110   5.199   4.880  0.5523  0.1599 -0.9570
56104SOL    HW175362  10.199   5.165   4.879  0.1842 -1.0903  1.1076
56104SOL    HW275363  10.090   5.209   4.974 -1.3596  0.6903 -1.3785
56105SOL     OW75364   0.949   9.385   6.760  0.1837 -0.2346  0.2803
56105SOL    HW175365   0.960   9.356   6.850  0.7237  0.1651  0.3476
56105SOL    HW275366   0.945   9.304   6.709 -1.2284 -0.4928  0.7696
56106SOL     OW75367   1.907   3.607   7.588 -0.3685  0.3288  0.4451
56106SOL    HW175368   1.837   3.643   7.641 -1.0336  2.7602 -1.8661
56106SOL    HW275369   1.862   3.556   7.520  0.1969  0.3677  0.0317
56107SOL     OW75370   4.975   5.491   1.449 -0.3262  0.3348 -0.3934
56107SOL    HW175371   5.047   5.554   1.442  1.9269 -2.0299 -0.2074
56107SOL    HW275372   4.940   5.505   1.537 -0.0530  1.4878 -0.4520
56108SOL     OW75373  12.435   0.808   5.302  0.8612 -0.4435 -0.3930
56108SOL    HW175374  12.352   0.781   5.261  0.7463 -2.4150  1.0327
56108SOL    HW275375  12.492   0.827   5.228 -0.3255 -0.7685 -1.4384
56109SOL     OW75376   5.773   4.768   4.110  0.0029  0.4235 -0.3505
56109SOL    HW175377   5.817   4.696   4.064 -0.1373  0.3147 -0.3158
56109SOL    HW275378   5.801   4.760   4.201 -1.9667 -1.1416  0.1869
56110SOL     OW75379  11.289   4.732   2.899 -0.0515 -0.2900 -0.0104
56110SOL    HW175380  11.225   4.739   2.970  0.6213 -0.7971  0.6698
56110SOL    HW275381  11.237   4.712   2.821 -0.9455  1.7409  0.0226
56111SOL     OW75382   1.364   1.666   9.948 -0.6816 -0.0774  0.1232
56111SOL    HW175383   1.355   1.611   9.871 -0.7984  0.1673 -0.0394
56111SOL    HW275384   1.397   1.608  10.016 -4.4073 -1.3730  1.1013
56112SOL     OW75385   8.586   4.856   3.127  0.3036  0.2200  0.0564
56112SOL    HW175386   8.676   4.831   3.104  0.6525 -1.0830  2.5170
56112SOL    HW275387   8.594   4.938   3.174  0.3731 -0.4544  1.2590
56113SOL     OW75388   9.542   6.574   5.036  0.1161  0.2563 -0.5194
56113SOL    HW175389   9.507   6.593   4.949 -2.4314  1.8076  0.7387
56113SOL    HW275390   9.478   6.516   5.076  0.9851 -0.0103  0.5382
56114SOL     OW75391  10.191   8.480   6.705 -0.1828 -0.2550  0.4537
56114SOL    HW175392  10.117   8.537   6.684  0.7643  0.5891 -0.7514
56114SOL    HW275393  10.222   8.511   6.790 -0.4325  0.2253  0.3730
56115SOL     OW75394   7.096  10.524   3.138  0.2639  0.1936  0.2019
56115SOL    HW175395   7.122  10.590   3.203 -0.4755 -0.1983  0.9149
56115SOL    HW275396   7.108  10.440   3.183 -2.6913 -0.0187  0.8314
56116SOL     OW75397   2.354   6.856   6.710  0.2532 -0.1595 -0.5665
56116SOL    HW175398   2.285   6.790   6.717 -0.2944  0.5415  1.3348
56116SOL    HW275399   2.406   6.844   6.790  0.3480  1.4840 -0.3536
56117SOL     OW75400  11.379   4.872   1.454 -0.8180 -0.2862 -0.1704
56117SOL    HW175401  11.340   4.948   1.496  0.0884  0.3556 -0.4581
56117SOL    HW275402  11.423   4.826   1.526  3.9727  2.7650 -0.6569
56118SOL     OW75403   7.362   4.750   3.255 -0.4263 -0.0867 -0.5549
56118SOL    HW175404   7.445   4.703   3.260  0.2852  1.1114 -0.7585
56118SOL    HW275405   7.312   4.704   3.188 -0.4936 -1.6479  0.5089
56119SOL     OW75406   6.481   2.827   3.495 -0.3942  0.5100  0.1702
56119SOL    HW175407   6.502   2.832   3.588 -0.2478 -0.8367  0.2244
56119SOL    HW275408   6.484   2.918   3.465  1.0493  0.8207  1.1524
56120SOL     OW75409   5.930  10.262  10.755  0.3711  0.3074 -0.1517
56120SOL    HW175410   6.011  10.231  10.714 -1.3186 -3.3006 -1.1369
56120SOL    HW275411   5.930  10.222  10.842 -0.4447  0.0237 -0.2716
56121SOL     OW75412  11.792   7.815   6.017 -0.4168 -0.0015 -0.4474
56121SOL    HW175413  11.763   7.901   5.984 -0.5318  1.1201  2.2876
56121SOL    HW275414  11.721   7.786   6.074 -0.1409 -1.7218 -0.9202
56122SOL     OW75415   5.831  12.074   5.988  0.0122  0.3885  0.6059
56122SOL    HW175416   5.894  12.050   6.056  0.3493  0.5264  0.3479
56122SOL    HW275417   5.787  11.992   5.966 -0.2102  0.3751  1.1025
56123SOL     OW75418  12.500   9.595   9.540 -0.2430  0.2374 -0.1024
56123SOL    HW175419  12.582   9.603   9.588 -0.2851  0.7683 -0.1114
56123SOL    HW275420  12.458   9.517   9.577 -0.0101  0.3131  0.3254
56124SOL     OW75421   4.596  11.921  10.410 -0.2891  0.4761  0.3339
56124SOL    HW175422   4.503  11.941  10.401 -0.1777  0.0912 -2.1884
56124SOL    HW275423   4.638  11.970  10.339  1.3058 -0.2166  0.7698
56125SOL     OW75424   9.437   3.918  11.920 -0.1853 -0.6452 -0.0322
56125SOL    HW175425   9.455   4.001  11.964  0.9464  0.0030 -1.6180
56125SOL    HW275426   9.417   3.857  11.991  1.0911  0.4543  1.3356
56126SOL     OW75427   1.277   1.909   1.806 -0.4577  0.6071 -0.2811
56126SOL    HW175428   1.192   1.894   1.765 -1.0132  0.2116  0.9957
56126SOL    HW275429   1.338   1.916   1.732 -1.0840 -2.1318 -1.1792
56127SOL     OW75430  10.541   0.023   8.602  0.1276 -0.0301 -0.1330
56127SOL    HW175431  10.561  -0.070   8.592 -0.9960 -0.2532 -0.4466
56127SOL    HW275432  10.614   0.058   8.653  0.7212 -1.0166 -0.2816
56128SOL     OW75433   2.006   1.813   3.756  0.0499  0.0715  0.4962
56128SOL    HW175434   2.097   1.791   3.736 -0.5453 -2.1604 -0.0023
56128SOL    HW275435   2.003   1.818   3.852  0.5666 -0.5085  0.5493
56129SOL     OW75436   2.349   8.694   1.680 -0.3401  0.0686  1.3944
56129SOL    HW175437   2.387   8.619   1.726 -1.2481 -1.8221 -0.7262
56129SOL    HW275438   2.254   8.679   1.685 -0.5085 -1.5327 -2.8352
56130SOL     OW75439   3.276   4.567   5.475  0.3464  0.4609  0.3573
56130SOL    HW175440   3.275   4.604   5.563  0.2488  0.1179  0.5019
56130SOL    HW275441   3.202   4.506   5.474  0.0823  0.7854 -0.1012
56131SOL     OW75442   0.156   1.826   5.783 -0.4798 -0.0520  0.6400
56131SOL    HW175443   0.223   1.829   5.852 -0.1886 -2.2721  0.5450
56131SOL    HW275444   0.111   1.742   5.797 -2.4962  0.8483 -0.0144
56132SOL     OW75445   5.739   6.919   0.371 -0.2893  0.0995  0.2320
56132SOL    HW175446   5.798   6.994   0.369 -0.0750 -0.0693 -1.7243
56132SOL    HW275447   5.673   6.938   0.305  0.0336 -1.6283 -0.6548
56133SOL     OW75448   8.167   5.685   5.515 -0.4043 -0.2233 -0.6988
56133SOL    HW175449   8.100   5.651   5.574  0.0458 -0.8554 -0.5479
56133SOL    HW275450   8.212   5.752   5.566 -0.2250 -0.5451 -0.4343
56134SOL     OW75451   4.383  12.343  10.154  0.6155 -0.1689 -0.7396
56134SOL    HW175452   4.426  12.425  10.180 -1.2286  0.4249  0.6028
56134SOL    HW275453   4.294  12.369  10.131  0.4255 -1.6146 -1.7405
56135SOL     OW75454   1.362  10.841   5.871 -0.2780  0.2275  0.2138
56135SOL    HW175455   1.375  10.763   5.817  1.1871 -0.1518  1.0657
56135SOL    HW275456   1.270  10.864   5.859 -0.4450 -0.9683 -0.9286
56136SOL     OW75457   8.297   4.159   9.398 -0.2063  0.5787  1.0081
56136SOL    HW175458   8.356   4.176   9.325 -0.3556 -1.4761  0.3368
56136SOL    HW275459   8.355   4.131   9.469 -0.2889 -1.5058  0.3282
56137SOL     OW75460   2.024  10.715  10.566 -0.3197 -0.2758 -0.2111
56137SOL    HW175461   2.086  10.644  10.548  0.8893  0.8905 -0.8068
56137SOL    HW275462   2.048  10.745  10.654 -2.1569 -1.8756  0.9171
56138SOL     OW75463  10.134   0.962   4.757 -0.0214  0.1790 -0.0639
56138SOL    HW175464  10.065   1.007   4.804 -1.5382 -2.7878  0.7812
56138SOL    HW275465  10.099   0.947   4.669  0.4873  0.6565 -0.3572
56139SOL     OW75466  11.404  10.029   7.488  0.1627 -0.7259  0.2586
56139SOL    HW175467  11.326  10.034   7.543 -0.0432 -0.9087 -0.0114
56139SOL    HW275468  11.447  10.113   7.500  0.8475 -1.2491  1.7607
56140SOL     OW75469   1.388   0.747   7.852 -0.3557 -0.1559  0.2275
56140SOL    HW175470   1.435   0.806   7.911 -1.8676  0.0948  1.2586
56140SOL    HW275471   1.426   0.763   7.766  1.5977 -0.1775  1.0271
56141SOL     OW75472   2.398  10.342   2.478 -0.1987  0.0365 -0.5729
56141SOL    HW175473   2.426  10.414   2.535  1.7641 -1.8264  0.9732
56141SOL    HW275474   2.313  10.316   2.512 -0.3486  0.7987 -0.3510
56142SOL     OW75475   7.406   3.761   1.376  0.4045  0.0584  0.0159
56142SOL    HW175476   7.367   3.834   1.424 -0.0368 -0.0187 -0.2217
56142SOL    HW275477   7.496   3.758   1.407  0.4126  0.6646  0.0782
56143SOL     OW75478   8.186   1.013  10.864 -0.1636 -0.2069  1.1371
56143SOL    HW175479   8.173   0.962  10.783 -2.3265  2.0892 -0.1287
56143SOL    HW275480   8.131   0.968  10.929  1.7524 -2.1964  1.5012
56144SOL     OW75481   6.419   2.965   6.425 -0.3006  0.0251  0.4583
56144SOL    HW175482   6.400   3.040   6.369 -1.1358 -1.2352 -1.0514
56144SOL    HW275483   6.347   2.904   6.409  0.0851 -0.9161  2.0025
56145SOL     OW75484   3.970   9.003  11.377 -0.7621  0.3631 -0.4897
56145SOL    HW175485   3.946   8.948  11.302 -1.6744  0.9374 -0.6397
56145SOL    HW275486   4.001   9.085  11.338  0.8324 -0.1069 -0.2731
56146SOL     OW75487   4.114   7.985   1.297 -0.5663 -0.3792  0.2061
56146SOL    HW175488   4.171   8.020   1.365 -0.4878 -0.2840  0.0904
56146SOL    HW275489   4.166   7.989   1.217 -0.6311 -0.5606  0.1526
56147SOL     OW75490   3.803  10.127   7.333 -0.3584  0.1444 -0.2976
56147SOL    HW175491   3.863  10.053   7.321 -0.9785 -0.0193 -2.9662
56147SOL    HW275492   3.822  10.185   7.260  0.0540  2.6755  1.6750
56148SOL     OW75493   1.398   8.405   4.972 -0.4776 -0.1632  1.0762
56148SOL    HW175494   1.439   8.376   4.891 -0.8716  1.1214  0.3819
56148SOL    HW275495   1.403   8.329   5.030  2.5774 -0.2074  0.9509
56149SOL     OW75496   2.574   6.343   1.634  0.0775 -0.0226 -0.3171
56149SOL    HW175497   2.568   6.295   1.551 -0.9826  0.3991 -0.5044
56149SOL    HW275498   2.606   6.429   1.610  2.8306 -0.8329  0.1245
56150SOL     OW75499  10.008   4.888   6.695  0.0313 -0.1093  0.4294
56150SOL    HW175500  10.087   4.841   6.668  1.2548  2.3228 -0.4994
56150SOL    HW275501  10.040   4.956   6.755 -1.1325  1.6775 -0.8860
56151SOL     OW75502  10.745   4.331   3.797 -0.2853  0.3235  0.0261
56151SOL    HW175503  10.771   4.354   3.708  0.1841 -1.7047 -0.4028
56151SOL    HW275504  10.650   4.326   3.795 -0.3214  1.0380 -0.1526
56152SOL     OW75505   5.330   1.864  12.503 -0.2906  0.0200 -0.0920
56152SOL    HW175506   5.299   1.783  12.545  0.0199  1.2053  2.6201
56152SOL    HW275507   5.252   1.899  12.459 -0.7820 -0.9972 -0.0658
56153SOL     OW75508  12.305   1.225   5.596  0.5524 -0.0381  0.2367
56153SOL    HW175509  12.256   1.301   5.629  1.2868  0.9892 -0.9033
56153SOL    HW275510  12.397   1.252   5.602  0.9339 -1.4662  1.2331
56154SOL     OW75511   1.212   5.382   5.173 -0.4069 -0.2971  0.1237
56154SOL    HW175512   1.278   5.334   5.223 -0.3797 -2.5517 -1.8631
56154SOL    HW275513   1.129   5.342   5.198 -0.2749 -2.5692 -2.5052
56155SOL     OW75514   2.093   3.293   0.952  0.3940 -0.3570 -0.0899
56155SOL    HW175515   2.088   3.217   0.894 -0.0270 -0.1908 -0.2798
56155SOL    HW275516   2.186   3.310   0.963  0.4828 -0.7282 -0.2769
56156SOL     OW75517  10.022   2.014   0.267  0.0577 -0.5220 -0.2609
56156SOL    HW175518  10.030   2.097   0.221 -1.4877 -0.1370  0.0998
56156SOL    HW275519   9.928   1.996   0.267 -0.0035 -0.6606  2.4142
56157SOL     OW75520   2.316   2.564   5.564 -0.2152  0.4326 -0.0552
56157SOL    HW175521   2.234   2.593   5.603 -1.1467 -0.4689 -1.2401
56157SOL    HW275522   2.356   2.509   5.630 -0.4086  1.1264  0.6541
56158SOL     OW75523   3.901  11.284  11.657 -0.0755  0.7257 -0.2369
56158SOL    HW175524   3.963  11.298  11.728 -1.0505  1.5911  0.4767
56158SOL    HW275525   3.871  11.372  11.633 -0.8267  0.3501 -0.7352
56159SOL     OW75526   2.139   4.409   9.121  0.4476 -0.1909  0.0867
56159SOL    HW175527   2.097   4.373   9.043 -1.1975  0.0284  0.8322
56159SOL    HW275528   2.145   4.335   9.181 -1.4512  0.3216  1.0041
56160SOL     OW75529   5.969   4.906  12.180 -0.0289  0.1333 -0.9065
56160SOL    HW175530   5.914   4.865  12.247  1.4697  0.2189  0.4493
56160SOL    HW275531   6.052   4.858  12.186  0.8225  1.5206 -1.2516
56161SOL     OW75532   3.953   8.209   1.253  0.2508 -0.4046  0.5649
56161SOL    HW175533   4.031   8.235   1.205  0.0969 -1.6793 -0.4383
56161SOL    HW275534   3.971   8.120   1.283 -0.5891 -0.4995  0.8137
56162SOL     OW75535   1.684   1.963  11.122 -0.3918 -0.1875 -0.1476
56162SOL    HW175536   1.669   1.950  11.028 -1.6450 -1.0718  0.1544
56162SOL    HW275537   1.671   1.877  11.161  2.9784 -0.5168  0.5542
56163SOL     OW75538  10.370  12.121  10.838  0.3943 -0.4726  0.6623
56163SOL    HW175539  10.302  12.081  10.892 -0.2341 -0.3869 -0.0529
56163SOL    HW275540  10.360  12.215  10.852  0.3820 -0.4604  0.5742
56164SOL     OW75541  12.423   6.368   0.492 -0.1780 -0.1422  0.2255
56164SOL    HW175542  12.480   6.319   0.433 -2.1132 -2.0777 -0.1508
56164SOL    HW275543  12.443   6.460   0.472  1.6452 -0.7305 -0.9709
56165SOL     OW75544   1.111   4.498   9.585  0.0499 -0.0094  0.3000
56165SOL    HW175545   1.186   4.554   9.564 -1.5537  1.9903 -0.3765
56165SOL    HW275546   1.118   4.484   9.680  1.7952 -0.7414  0.1186
56166SOL     OW75547  11.991   2.750   3.292 -0.0802 -0.4708 -0.1376
56166SOL    HW175548  11.955   2.836   3.313  2.8223  1.0651 -0.9685
56166SOL    HW275549  11.981   2.742   3.197  0.0575 -0.8736 -0.1232
56167SOL     OW75550   1.635   2.085   0.750 -0.1507 -0.1289 -0.0292
56167SOL    HW175551   1.695   2.096   0.824 -0.4814 -1.7557  0.5130
56167SOL    HW275552   1.549   2.072   0.790 -0.5501  0.2539 -0.7479
56168SOL     OW75553   8.703   9.214   9.577 -0.0154 -0.6642  0.6563
56168SOL    HW175554   8.737   9.141   9.526  0.0129  0.1463 -0.5168
56168SOL    HW275555   8.774   9.236   9.638  0.7601 -0.3431 -0.3388
56169SOL     OW75556   0.029   6.849   4.944 -0.3612 -0.8553 -0.0485
56169SOL    HW175557   0.013   6.763   4.906  0.4804 -0.4852 -1.2957
56169SOL    HW275558  -0.010   6.911   4.882 -1.5315 -0.3456  1.1541
56170SOL     OW75559   3.607   8.773   7.744 -0.2522  0.0498  0.0280
56170SOL    HW175560   3.695   8.773   7.705  0.2652 -0.4030  1.1666
56170SOL    HW275561   3.549   8.794   7.670  0.8290  0.6914 -0.6714
56171SOL     OW75562  12.251   7.010   7.873  0.4577 -0.2371  0.5438
56171SOL    HW175563  12.242   6.983   7.964 -2.0480 -0.5361  0.2774
56171SOL    HW275564  12.250   7.106   7.876 -1.0883 -0.2247  0.7884
56172SOL     OW75565   8.419   8.125   5.866 -0.2573  0.4721  0.5195
56172SOL    HW175566   8.464   8.074   5.799  0.9280  2.5919 -0.3839
56172SOL    HW275567   8.469   8.108   5.946  0.1691  0.2717  0.2146
56173SOL     OW75568   6.322   5.087   2.205 -0.1899 -0.1331  0.6068
56173SOL    HW175569   6.242   5.035   2.215  0.4264 -1.0956  0.7052
56173SOL    HW275570   6.392   5.029   2.236  0.5628  0.6323  0.3769
56174SOL     OW75571   3.377  11.670   2.054 -0.4776 -0.4910 -0.2252
56174SOL    HW175572   3.345  11.586   2.021  0.7169 -1.2598  0.5197
56174SOL    HW275573   3.419  11.711   1.979  0.3959 -1.3078 -0.1954
56175SOL     OW75574  12.530   9.256   6.360 -0.3709  0.6596 -0.3430
56175SOL    HW175575  12.561   9.248   6.451 -1.7677  0.8521  0.1735
56175SOL    HW275576  12.594   9.313   6.318  0.8056 -0.1713  0.2706
56176SOL     OW75577   0.172   0.911  12.090  0.1033 -0.1057 -0.4206
56176SOL    HW175578   0.133   0.883  12.007  0.1578  0.9715 -0.8243
56176SOL    HW275579   0.264   0.925  12.069  0.5300 -1.6832  0.2931
56177SOL     OW75580  10.231   7.408  12.155  0.3358  0.2081  0.6924
56177SOL    HW175581  10.187   7.330  12.124 -1.5086  1.3630  0.2812
56177SOL    HW275582  10.228   7.401  12.251  3.0985 -1.7358  0.7639
56178SOL     OW75583   6.791   2.252   2.847  0.1206 -0.0476  0.3179
56178SOL    HW175584   6.865   2.195   2.865  1.4107  2.1950  2.9737
56178SOL    HW275585   6.830   2.340   2.842 -1.8110  0.7931 -2.9918
56179SOL     OW75586   0.647  10.162  11.210  0.4289  0.3609  0.2529
56179SOL    HW175587   0.614  10.078  11.178 -0.3141  0.3188  1.0896
56179SOL    HW275588   0.682  10.205  11.132  0.1523 -0.4086 -0.3171
56180SOL     OW75589   2.576  12.010   1.724  0.0360  0.6447  0.1229
56180SOL    HW175590   2.607  12.100   1.719  2.6159 -0.2079 -0.5921
56180SOL    HW275591   2.560  11.996   1.818 -0.1111  1.7327  0.2735
56181SOL     OW75592   4.578   2.398   7.127  0.5029  0.5987  0.1388
56181SOL    HW175593   4.511   2.333   7.106  1.2866 -0.0408 -0.4073
56181SOL    HW275594   4.661   2.353   7.114  1.0638  1.0959  1.6617
56182SOL     OW75595   3.185   0.493  10.587 -0.5672  0.7083  0.1651
56182SOL    HW175596   3.254   0.429  10.569  0.1047  1.1993  0.9289
56182SOL    HW275597   3.105   0.440  10.595 -0.1378  0.0402  0.1418
56183SOL     OW75598   7.259  11.400   4.276  0.4677  0.3704  0.1546
56183SOL    HW175599   7.285  11.475   4.222 -2.0678  1.7966  0.7483
56183SOL    HW275600   7.328  11.393   4.342  0.7343  2.3042  0.1482
56184SOL     OW75601   6.796   0.033   0.879  0.7439 -0.2649  0.7647
56184SOL    HW175602   6.844   0.093   0.822  0.1484 -0.3738  0.1415
56184SOL    HW275603   6.820   0.061   0.968  0.7209  0.6924  0.4844
56185SOL     OW75604   9.254   4.769   5.684 -0.5814 -0.0138  0.0817
56185SOL    HW175605   9.309   4.812   5.749 -0.9774 -0.7806  0.9397
56185SOL    HW275606   9.208   4.701   5.732 -1.4267 -0.1334 -0.8572
56186SOL     OW75607  11.525  10.885   4.659 -0.4866 -0.3854 -0.6671
56186SOL    HW175608  11.481  10.801   4.675 -0.7958  0.0081  0.6552
56186SOL    HW275609  11.508  10.936   4.738 -0.3363  0.9458 -1.4773
56187SOL     OW75610   1.283   1.387   1.076  0.2798  0.2890 -0.3683
56187SOL    HW175611   1.203   1.369   1.027  0.3223 -0.6358 -0.1253
56187SOL    HW275612   1.262   1.362   1.166  0.9138 -0.2075 -0.3489
56188SOL     OW75613   6.346   0.774  10.319 -1.0985 -0.0057 -0.4079
56188SOL    HW175614   6.398   0.781  10.400 -1.1898 -1.4016 -0.1950
56188SOL    HW275615   6.261   0.740  10.348 -1.1592 -0.4474 -1.0789
56189SOL     OW75616   4.030   2.648   0.442 -0.0198 -0.0662  0.3089
56189SOL    HW175617   4.069   2.718   0.495  0.6959 -0.0397 -0.2325
56189SOL    HW275618   3.989   2.694   0.369 -0.0962 -0.1647  0.2901
56190SOL     OW75619   1.025   6.202   1.020 -0.1880  0.3684  0.0383
56190SOL    HW175620   0.943   6.217   0.972  1.2950 -0.3190 -2.9667
56190SOL    HW275621   1.031   6.276   1.081 -2.2913  1.2627 -0.7469
56191SOL     OW75622   3.578   6.084   0.206  0.1674  0.2257 -0.4296
56191SOL    HW175623   3.510   6.132   0.252 -0.8821 -1.2749 -0.3257
56191SOL    HW275624   3.658   6.102   0.256 -0.9175 -1.3662  2.1022
56192SOL     OW75625   1.351   4.731   1.787 -0.3127 -0.1567  0.5608
56192SOL    HW175626   1.440   4.709   1.816 -0.1003  0.4707  0.4049
56192SOL    HW275627   1.322   4.798   1.848 -0.6984 -0.3963  0.6398
56193SOL     OW75628   3.841   3.588   0.323  0.4177  0.3251  0.1739
56193SOL    HW175629   3.895   3.515   0.353  1.4130  0.8938 -0.1692
56193SOL    HW275630   3.769   3.592   0.385 -0.9996 -2.4287 -1.1195
56194SOL     OW75631  11.602  10.648  10.586  0.1608 -0.2387 -0.6455
56194SOL    HW175632  11.541  10.710  10.626 -0.3372  0.2733 -2.1414
56194SOL    HW275633  11.610  10.677  10.495  3.2220  0.1377 -0.3499
56195SOL     OW75634   4.334   2.963  11.712 -0.8203  0.4648  0.2220
56195SOL    HW175635   4.361   2.948  11.621 -0.1143  0.9485  0.3431
56195SOL    HW275636   4.367   2.887  11.759  1.2653  1.4878  0.5371
56196SOL     OW75637   4.341   0.034   5.268 -0.4165  0.1318  0.0670
56196SOL    HW175638   4.388   0.094   5.325  1.0387 -0.7880 -0.1092
56196SOL    HW275639   4.262   0.082   5.242 -0.1738  1.2667  1.3232
56197SOL     OW75640   5.422  11.129   7.853  0.0947  0.6183  0.0784
56197SOL    HW175641   5.403  11.106   7.762 -1.7626 -1.9241  0.9907
56197SOL    HW275642   5.384  11.216   7.864  1.2699  1.4312 -1.7846
56198SOL     OW75643  12.297   6.906   8.913  0.2452  0.1118  0.1337
56198SOL    HW175644  12.240   6.941   8.845  0.7469  0.4899 -0.1055
56198SOL    HW275645  12.269   6.816   8.925  0.5400 -0.1510 -1.0090
56199SOL     OW75646   8.637   2.417   6.555 -0.0087  0.1786 -0.1306
56199SOL    HW175647   8.588   2.340   6.583  1.2050 -0.5841 -0.0384
56199SOL    HW275648   8.604   2.436   6.467  0.1520 -0.8583 -0.4241
56200SOL     OW75649   1.961   0.081  10.614  0.2223 -0.2581  0.2372
56200SOL    HW175650   1.997   0.050  10.697 -2.4800 -0.2213  1.5370
56200SOL    HW275651   1.957   0.176  10.623 -2.0220 -0.3663  1.0369
56201SOL     OW75652  12.307   8.826   7.401  0.3138  0.5373  0.3050
56201SOL    HW175653  12.341   8.906   7.442  0.3453  0.8384 -0.3082
56201SOL    HW275654  12.251   8.788   7.468  0.4930  0.9415  0.6949
56202SOL     OW75655  10.881   8.152   0.207 -0.2655  0.1197  0.1295
56202SOL    HW175656  10.970   8.178   0.181 -0.9178  3.8312  1.1067
56202SOL    HW275657  10.895   8.090   0.279  1.6028  1.6353  1.1621
56203SOL     OW75658   3.058   2.041   5.235 -0.0894 -0.5437  0.1724
56203SOL    HW175659   3.090   1.998   5.314 -0.0903 -2.3866 -0.7641
56203SOL    HW275660   3.136   2.063   5.185 -0.1364 -0.7596  0.0033
56204SOL     OW75661   8.365   8.022   9.178 -0.6330 -0.0207  0.0085
56204SOL    HW175662   8.344   8.002   9.269 -0.3484  0.3221  0.1473
56204SOL    HW275663   8.376   8.117   9.175 -0.0240 -0.0923 -0.2523
56205SOL     OW75664   5.074   7.931   0.431 -0.2148  0.5267 -0.5701
56205SOL    HW175665   5.015   7.992   0.475 -2.2930 -1.9180  0.2498
56205SOL    HW275666   5.162   7.968   0.445 -1.3925  4.1758 -1.6248
56206SOL     OW75667   8.161   8.119   9.013  0.3217 -0.0554  0.4594
56206SOL    HW175668   8.212   8.077   9.082  1.1096 -0.5967 -0.4355
56206SOL    HW275669   8.114   8.189   9.058  0.0880 -0.9786  1.7127
56207SOL     OW75670   8.220   5.858  12.482 -0.5474 -0.7364  0.6143
56207SOL    HW175671   8.243   5.914  12.408  0.3847 -1.3878  0.3929
56207SOL    HW275672   8.132   5.826  12.462 -0.4723 -0.5728 -0.0032
56208SOL     OW75673   6.983   3.207   3.062  0.2335  0.1239  0.2919
56208SOL    HW175674   7.053   3.224   3.125  0.1820  0.0897  0.3583
56208SOL    HW275675   7.025   3.213   2.977  0.7682 -1.9276  0.3675
56209SOL     OW75676   0.192   9.292   1.404  0.0692  0.1346 -0.6283
56209SOL    HW175677   0.216   9.333   1.321  1.2890 -0.3124 -0.5221
56209SOL    HW275678   0.153   9.209   1.380  0.8618 -0.2091 -0.7589
56210SOL     OW75679   2.669   6.152  11.795 -0.2499  0.1183  0.0996
56210SOL    HW175680   2.669   6.057  11.786 -2.2849  0.1951 -1.2656
56210SOL    HW275681   2.743   6.181  11.741 -0.5561 -0.6096 -0.7274
56211SOL     OW75682   7.879   1.315   8.241  0.1095 -0.5952  0.6732
56211SOL    HW175683   7.954   1.375   8.244  0.7270 -1.3806  1.7616
56211SOL    HW275684   7.841   1.329   8.155  0.7044  0.7885  0.6015
56212SOL     OW75685   3.152   7.383   6.869 -0.0396  0.5007  0.1448
56212SOL    HW175686   3.088   7.447   6.838 -0.8597  1.0035  2.6757
56212SOL    HW275687   3.234   7.408   6.826 -1.2392  0.5414 -2.2624
56213SOL     OW75688   0.913   7.875   5.860  0.6663  0.2671 -0.2591
56213SOL    HW175689   0.903   7.783   5.836  2.0241 -0.0425  0.2586
56213SOL    HW275690   0.981   7.908   5.802  1.3382  0.5009  0.6397
56214SOL     OW75691   3.957  12.228   9.841 -0.0051  0.4508  0.0404
56214SOL    HW175692   3.986  12.148   9.797  0.9830  1.4172 -1.1315
56214SOL    HW275693   3.875  12.250   9.798 -0.3153  0.0417  0.4128
56215SOL     OW75694   3.145   6.725   2.454  0.0880 -0.8797  0.4133
56215SOL    HW175695   3.224   6.778   2.469 -0.1898 -0.1824 -0.4914
56215SOL    HW275696   3.177   6.635   2.452  0.9277 -0.5863 -0.2288
56216SOL     OW75697   5.342   8.780  11.166 -0.2182 -0.3562 -0.3400
56216SOL    HW175698   5.268   8.764  11.225  0.4686 -0.5073  0.5117
56216SOL    HW275699   5.419   8.768  11.222  0.4513 -0.4002 -1.2597
56217SOL     OW75700   8.177   1.685   7.384 -0.1384  0.0941 -0.0902
56217SOL    HW175701   8.238   1.612   7.380 -1.0184 -0.6122 -1.2615
56217SOL    HW275702   8.100   1.650   7.429 -0.1877  0.5815  0.2083
56218SOL     OW75703   7.939   1.637   7.198 -0.3429  0.0459  0.0419
56218SOL    HW175704   8.028   1.667   7.215 -0.4464  0.3970 -0.0113
56218SOL    HW275705   7.885   1.687   7.260 -0.5398  0.1173 -0.1835
56219SOL     OW75706   1.457  12.521  11.419 -0.5042  0.0611 -0.3551
56219SOL    HW175707   1.366  12.551  11.428 -0.0281  1.3809  0.4153
56219SOL    HW275708   1.482  12.546  11.330 -1.1040 -0.9348 -0.8126
56220SOL     OW75709   5.089  10.284   9.481 -0.1409 -0.0750 -0.0245
56220SOL    HW175710   5.091  10.228   9.558 -0.6386 -1.2903 -0.8642
56220SOL    HW275711   5.009  10.258   9.435  0.2830  0.4531 -1.0872
56221SOL     OW75712   1.991   2.543   7.429  0.4228  0.4467  0.2441
56221SOL    HW175713   1.933   2.598   7.376  1.3344 -0.9301 -2.3586
56221SOL    HW275714   1.932   2.491   7.483 -0.7409  0.0359 -1.3438
56222SOL     OW75715   7.931   1.828   1.949 -0.2550  0.1281 -0.2698
56222SOL    HW175716   7.867   1.800   2.014 -0.1618  1.0039  0.2206
56222SOL    HW275717   8.015   1.800   1.985 -0.2241  0.4163 -0.1102
56223SOL     OW75718   8.914  10.907  11.699 -0.3782 -0.2850  0.2358
56223SOL    HW175719   8.956  10.921  11.783  1.1711 -1.2030 -0.3472
56223SOL    HW275720   8.972  10.947  11.635 -1.0549 -0.4262 -0.4892
56224SOL     OW75721   8.465   3.076   6.702  0.0611  0.2474 -0.1343
56224SOL    HW175722   8.442   3.022   6.778  0.8238 -0.7420 -0.5899
56224SOL    HW275723   8.559   3.062   6.689  0.3940  2.0479 -0.0031
56225SOL     OW75724   8.361  10.197   3.640 -0.5511  0.0674  0.2313
56225SOL    HW175725   8.298  10.269   3.655  0.1302  1.0585 -1.3469
56225SOL    HW275726   8.367  10.192   3.544  1.3496 -0.3846  0.3555
56226SOL     OW75727   8.204   7.900  12.244  0.4049  0.0745 -0.1269
56226SOL    HW175728   8.181   7.937  12.159 -1.0783 -0.6789 -0.0914
56226SOL    HW275729   8.188   7.971  12.306 -0.0328  0.1523 -0.3210
56227SOL     OW75730   7.799  12.430   9.117 -0.0190 -0.0750  0.1010
56227SOL    HW175731   7.848  12.357   9.154 -1.0367 -1.3106 -0.9176
56227SOL    HW275732   7.708  12.400   9.114 -0.4235  1.1337 -0.5526
56228SOL     OW75733   1.084   0.336   7.047  0.5258 -0.0175 -0.1943
56228SOL    HW175734   1.078   0.270   6.978 -0.1985 -0.3641  0.1891
56228SOL    HW275735   1.001   0.382   7.043  0.5992  0.1545  0.2585
56229SOL     OW75736  10.096   9.396   4.050 -0.0879 -0.3118 -0.6236
56229SOL    HW175737  10.113   9.404   4.143  1.5781  1.3951 -1.0256
56229SOL    HW275738  10.106   9.302   4.032  0.5862 -0.5228  0.7234
56230SOL     OW75739   4.287   6.004   7.200 -0.3024 -0.4578  0.5059
56230SOL    HW175740   4.291   5.936   7.268 -1.3614 -0.8582  0.1776
56230SOL    HW275741   4.206   6.051   7.218  0.7211  1.1706  1.1262
56231SOL     OW75742   2.444   1.455   0.587 -0.5256 -0.1696  0.6399
56231SOL    HW175743   2.484   1.512   0.652 -0.3856 -0.6618  0.9885
56231SOL    HW275744   2.472   1.492   0.503 -0.5112  0.3247  0.8598
56232SOL     OW75745   7.929  11.235   9.504  0.4481  0.2275 -0.5739
56232SOL    HW175746   8.005  11.274   9.546  0.9187  1.3121 -2.3487
56232SOL    HW275747   7.897  11.302   9.444 -0.7475 -0.9189 -1.2736
56233SOL     OW75748  11.378   1.306   9.222  0.5064  0.2236  0.2826
56233SOL    HW175749  11.363   1.215   9.196 -0.3600  0.1908  0.8594
56233SOL    HW275750  11.324   1.357   9.161 -0.7340  0.2057  1.3246
56234SOL     OW75751   4.845   0.155   5.319 -0.7060 -0.2658  0.8526
56234SOL    HW175752   4.823   0.210   5.244 -2.4008 -0.3756  1.2154
56234SOL    HW275753   4.834   0.065   5.287 -1.8731 -0.3075  1.3237
56235SOL     OW75754   0.758   5.593  10.816  0.4843  0.0415 -0.1898
56235SOL    HW175755   0.761   5.558  10.905  3.7035  0.2401 -0.1279
56235SOL    HW275756   0.745   5.687  10.828  0.6973  0.0390  0.0686
56236SOL     OW75757   4.794   3.532   5.732 -0.1506  0.6173  0.1248
56236SOL    HW175758   4.763   3.578   5.810  0.2491  1.0848  0.0134
56236SOL    HW275759   4.883   3.505   5.754 -0.3254  0.0288  0.1281
56237SOL     OW75760   7.573   0.747  11.032  0.1212  0.4559  0.0190
56237SOL    HW175761   7.584   0.654  11.011 -2.1362  0.3772 -1.1517
56237SOL    HW275762   7.642   0.791  10.982 -2.5492 -0.1124 -4.7231
56238SOL     OW75763  10.641   7.333   5.572 -0.9705  0.3535 -0.1183
56238SOL    HW175764  10.676   7.422   5.563 -0.9527  0.2678 -1.0924
56238SOL    HW275765  10.618   7.308   5.482  1.0141 -1.4091 -0.2147
56239SOL     OW75766  11.452  11.699   5.526  0.0520  0.3948 -0.1033
56239SOL    HW175767  11.384  11.631   5.520 -0.7318  1.1748 -0.3631
56239SOL    HW275768  11.532  11.651   5.548 -0.5490 -0.5690  0.0630
56240SOL     OW75769   0.420   0.991  10.012 -0.3339 -0.3581  0.0169
56240SOL    HW175770   0.472   0.912  10.029 -0.7965 -0.3453  1.6872
56240SOL    HW275771   0.337   0.975  10.057 -1.1185  0.3504 -1.1376
56241SOL     OW75772   0.324   9.718   4.358 -0.2122 -0.3368  0.2357
56241SOL    HW175773   0.415   9.698   4.339 -0.1526  0.0723  0.0926
56241SOL    HW275774   0.274   9.653   4.308  0.0075 -0.9566  0.7991
56242SOL     OW75775   3.052   6.629   0.017 -0.1125  0.4376 -0.5753
56242SOL    HW175776   2.978   6.600   0.070 -0.0793  0.4670 -0.5129
56242SOL    HW275777   3.076   6.714   0.053 -1.1130  1.2167 -1.6734
56243SOL     OW75778   4.103   9.606  12.423  0.0722 -0.8178 -1.0472
56243SOL    HW175779   4.103   9.511  12.432  0.1070 -0.8678 -1.5342
56243SOL    HW275780   4.037   9.624  12.357 -0.3820 -0.4517 -0.4965
56244SOL     OW75781   8.213   4.968   2.788 -0.8961 -0.5345  0.2856
56244SOL    HW175782   8.261   4.886   2.794  0.6034  0.4101  1.9473
56244SOL    HW275783   8.244   5.020   2.861 -1.8681  1.5101 -0.6742
56245SOL     OW75784  12.352   4.213  10.632  0.6271 -0.0129  0.0269
56245SOL    HW175785  12.271   4.250  10.665  0.0347 -2.0730  1.0796
56245SOL    HW275786  12.325   4.152  10.563  1.4597  0.5761 -0.8606
56246SOL     OW75787   9.164   0.841   1.639  0.0759  0.1445  0.3621
56246SOL    HW175788   9.128   0.760   1.604 -0.3203  0.2140  0.6057
56246SOL    HW275789   9.182   0.895   1.562  2.2540 -0.9324  0.0263
56247SOL     OW75790   0.990   5.287   0.751  0.3171 -0.6698 -0.7452
56247SOL    HW175791   1.027   5.357   0.805 -0.6527  2.2457 -3.5250
56247SOL    HW275792   0.899   5.281   0.780  0.6644 -1.6462  0.2240
56248SOL     OW75793   3.666  10.751   1.657 -0.1707 -0.5595  0.2342
56248SOL    HW175794   3.661  10.823   1.594  0.2562 -1.8764 -1.3854
56248SOL    HW275795   3.759  10.727   1.658  0.0954  0.3297  2.4843
56249SOL     OW75796   7.945   3.957   2.492  0.6025 -0.3829  0.8133
56249SOL    HW175797   7.944   3.906   2.411 -2.0364  0.7339  0.0377
56249SOL    HW275798   7.883   3.913   2.549 -0.6256  1.0827  0.6688
56250SOL     OW75799  10.311   9.126  12.488 -0.6065 -0.3761 -0.1130
56250SOL    HW175800  10.336   9.131  12.396 -1.9166 -0.6777 -0.5148
56250SOL    HW275801  10.338   9.210  12.525  0.8009 -0.6209 -0.5267
56251SOL     OW75802   2.930   0.651   0.909  0.0846 -0.2395  0.2992
56251SOL    HW175803   2.980   0.703   0.846 -0.8390  0.6322  0.2602
56251SOL    HW275804   2.975   0.666   0.992  0.8567 -0.7899 -0.0077
56252SOL     OW75805   0.624   1.349   6.940 -0.5853 -0.2850 -0.4991
56252SOL    HW175806   0.678   1.280   6.902 -0.0619  0.1385 -0.5493
56252SOL    HW275807   0.687   1.411   6.976 -1.0803 -0.6095  0.9584
56253SOL     OW75808   9.483   4.674   2.132 -0.4210 -0.1341  0.0763
56253SOL    HW175809   9.533   4.745   2.172 -1.9491  0.4169  1.0589
56253SOL    HW275810   9.530   4.655   2.050  1.0585  0.7261  0.6799
56254SOL     OW75811   1.418   0.288   6.249  0.9417 -0.4287  0.4918
56254SOL    HW175812   1.492   0.231   6.270  1.9399  0.4807 -0.4183
56254SOL    HW275813   1.426   0.304   6.155  0.1256  0.4330  0.5549
56255SOL     OW75814  12.219   6.949  10.227  0.4194 -0.0345 -0.1053
56255SOL    HW175815  12.281   6.947  10.154  1.6462  0.0920  0.9079
56255SOL    HW275816  12.254   6.888  10.291 -1.0430 -0.7196  0.0968
56256SOL     OW75817   5.517   7.628   6.174 -0.2011  0.0340 -0.0058
56256SOL    HW175818   5.510   7.533   6.188  1.1049 -0.1489 -0.4765
56256SOL    HW275819   5.539   7.636   6.081  2.2267  0.6393  0.5525
56257SOL     OW75820   2.393   7.679   1.163 -0.3257 -0.5204 -0.0860
56257SOL    HW175821   2.340   7.710   1.089  0.2604  1.4456  0.2643
56257SOL    HW275822   2.331   7.630   1.217 -1.2614 -0.1939 -0.8233
56258SOL     OW75823   9.547   2.828  10.048  0.0556  0.5392  0.2349
56258SOL    HW175824   9.480   2.782  10.100 -0.8162 -0.4089 -1.6406
56258SOL    HW275825   9.628   2.782  10.066 -0.3267 -0.0817  0.3839
56259SOL     OW75826   6.689   6.915   7.096  0.9129  0.0857  0.2457
56259SOL    HW175827   6.729   6.850   7.154  2.1614  0.2270 -0.4083
56259SOL    HW275828   6.727   6.896   7.010 -0.6444  0.0953 -0.4702
56260SOL     OW75829  10.057   3.704  11.982 -0.2202 -0.2524 -0.1993
56260SOL    HW175830  10.093   3.721  11.895  0.6633  2.1505  0.5636
56260SOL    HW275831  10.109   3.631  12.016  2.0102  1.2012 -0.2900
56261SOL     OW75832   9.714   7.045   4.662 -0.1237 -0.1749 -0.4041
56261SOL    HW175833   9.740   6.994   4.739 -1.7208  1.1393  1.0847
56261SOL    HW275834   9.736   7.136   4.685 -0.4277  0.2167 -1.5999
56262SOL     OW75835   1.222   4.449   2.642  0.2602 -0.3042 -0.3678
56262SOL    HW175836   1.147   4.396   2.668  0.3682 -0.0644  0.4411
56262SOL    HW275837   1.188   4.505   2.572 -1.1040  1.7206  1.7572
56263SOL     OW75838   3.886   7.325   4.754 -0.3307 -0.2306 -0.0091
56263SOL    HW175839   3.835   7.396   4.793  1.1463  0.6383  0.4118
56263SOL    HW275840   3.923   7.278   4.829 -0.7894 -1.0760 -0.2999
56264SOL     OW75841   5.127  11.102  10.673 -0.7532 -0.3403  0.4029
56264SOL    HW175842   5.151  11.194  10.662 -1.0642 -0.2119  0.7744
56264SOL    HW275843   5.210  11.055  10.674 -0.6388 -0.4074 -2.7044
56265SOL     OW75844   0.465   2.214   6.662 -0.2370  0.4782  0.1906
56265SOL    HW175845   0.436   2.236   6.751 -1.0171 -1.0579  0.3568
56265SOL    HW275846   0.452   2.294   6.612 -0.9565  1.0180  1.1980
56266SOL     OW75847   0.345   7.950   2.937 -0.3871 -0.6307  0.3451
56266SOL    HW175848   0.417   7.896   2.905 -0.2042  0.5393 -1.2925
56266SOL    HW275849   0.329   8.014   2.868 -2.5748 -0.4395  0.9465
56267SOL     OW75850   2.977   0.584   0.333 -0.5623 -0.5405 -0.2916
56267SOL    HW175851   2.974   0.519   0.263  0.2059  0.0106 -0.8545
56267SOL    HW275852   2.901   0.640   0.317 -0.1798 -0.1901 -0.9228
56268SOL     OW75853   3.540   7.491   7.335 -0.1611  0.1479  1.0119
56268SOL    HW175854   3.480   7.457   7.402 -2.4819  0.8829 -0.5797
56268SOL    HW275855   3.542   7.423   7.268 -0.7055  0.8730  0.2288
56269SOL     OW75856   9.252   8.709   4.378 -0.5133  0.0099  0.1666
56269SOL    HW175857   9.296   8.744   4.300 -1.0084 -0.1722 -0.1994
56269SOL    HW275858   9.245   8.784   4.437  0.6001 -0.0346  0.3745
56270SOL     OW75859   5.839   8.920   0.448  0.0596 -0.6481  0.1583
56270SOL    HW175860   5.744   8.909   0.445 -0.1636  0.9232  0.5689
56270SOL    HW275861   5.852   9.014   0.433  1.5732 -0.9137 -0.2781
56271SOL     OW75862   5.628   1.360  12.293 -0.3001 -0.4365 -0.1337
56271SOL    HW175863   5.652   1.332  12.205 -0.4872  1.6827 -0.9111
56271SOL    HW275864   5.534   1.339  12.300 -0.2469 -0.7564 -0.3519
56272SOL     OW75865   0.728  10.634   5.566  0.3989 -0.1559  1.0306
56272SOL    HW175866   0.744  10.648   5.473  0.6816  0.8114  1.2189
56272SOL    HW275867   0.648  10.582   5.569  0.8074 -0.8550  0.2331
56273SOL     OW75868  11.306   0.438   1.407 -0.4818 -0.2215 -0.2998
56273SOL    HW175869  11.226   0.461   1.360 -0.6722 -1.0288 -0.3841
56273SOL    HW275870  11.302   0.343   1.416  1.0223 -0.4109 -1.3237
56274SOL     OW75871   9.895   1.346   3.921 -0.1293  0.2226 -0.4652
56274SOL    HW175872   9.857   1.390   3.997 -0.0450 -0.0563 -0.2609
56274SOL    HW275873   9.985   1.325   3.947 -0.5524 -1.2602 -0.0430
56275SOL     OW75874   3.511   6.972   3.262  0.1983  0.8216 -0.4766
56275SOL    HW175875   3.455   6.948   3.335 -0.1885 -0.8076 -1.2530
56275SOL    HW275876   3.571   7.038   3.298 -1.0397  1.2815  0.8346
56276SOL     OW75877  12.383  12.123   8.906  0.5027  0.2026 -0.1081
56276SOL    HW175878  12.479  12.124   8.910  0.4810 -0.1397  0.6208
56276SOL    HW275879  12.361  12.194   8.846  1.2727 -0.9405 -1.7980
56277SOL     OW75880  11.368   1.551  11.395  0.1774  0.3987 -0.5285
56277SOL    HW175881  11.441   1.525  11.339  0.3721  1.5270 -0.8368
56277SOL    HW275882  11.372   1.491  11.469  1.6258  0.6308 -0.3818
56278SOL     OW75883   0.607   5.479  10.642  0.3968 -0.2271  0.0555
56278SOL    HW175884   0.518   5.501  10.669 -0.0239 -2.3232  0.5925
56278SOL    HW275885   0.663   5.522  10.707 -0.3098 -0.1867  0.6584
56279SOL     OW75886   2.111   6.034   2.496  0.1826  0.7360 -0.0407
56279SOL    HW175887   2.111   6.118   2.543  1.6198 -0.3452  2.0422
56279SOL    HW275888   2.141   6.056   2.407 -0.4446  2.5424  0.1583
56280SOL     OW75889  11.836  11.099   1.477 -0.0632 -0.0304 -0.0272
56280SOL    HW175890  11.779  11.025   1.496 -0.4699  0.4442  0.6625
56280SOL    HW275891  11.894  11.105   1.553 -1.5577  1.7510  1.0633
56281SOL     OW75892   6.810   4.054   0.352 -0.1651  0.1920 -0.1003
56281SOL    HW175893   6.860   4.080   0.429 -0.1360  0.5803 -0.2478
56281SOL    HW275894   6.798   3.960   0.362 -0.0256  0.2135  0.2991
56282SOL     OW75895   3.267   3.043   7.783 -0.4321  0.3354  0.3824
56282SOL    HW175896   3.185   3.002   7.810  0.7446 -0.3288  3.2712
56282SOL    HW275897   3.313   2.974   7.736 -0.2464 -0.3372  1.5099
56283SOL     OW75898   3.300   8.972  10.012  0.4863  0.8404 -0.5194
56283SOL    HW175899   3.319   8.970  10.106  2.0032  0.5799 -0.7996
56283SOL    HW275900   3.222   8.918  10.002  0.8288  0.1218  0.5031
56284SOL     OW75901  10.131   7.861   2.665 -0.3444  0.2885 -0.0557
56284SOL    HW175902  10.128   7.776   2.621  2.5284 -0.3725  0.8479
56284SOL    HW275903  10.124   7.841   2.758  2.5981  0.6961  0.3536
56285SOL     OW75904   2.410  12.182   8.615  0.2846 -0.1331  0.4575
56285SOL    HW175905   2.492  12.149   8.579  0.5348  1.1721 -0.2412
56285SOL    HW275906   2.432  12.211   8.704  0.7132  0.6896  0.0898
56286SOL     OW75907   9.689   6.569   5.297 -0.1024  0.7831 -1.0150
56286SOL    HW175908   9.599   6.599   5.283 -0.4443 -0.3672 -1.3934
56286SOL    HW275909   9.686   6.475   5.280  0.6179  0.2081  1.5083
56287SOL     OW75910  11.925   8.818   9.146 -0.3354  0.4284  0.4826
56287SOL    HW175911  11.897   8.738   9.192  0.2449  0.6813  1.2847
56287SOL    HW275912  11.987   8.860   9.205  1.4979  0.0714 -1.0981
56288SOL     OW75913   4.358  12.483   1.327 -0.0318 -0.0248  0.2050
56288SOL    HW175914   4.443  12.495   1.368 -0.2362  1.6490  0.2292
56288SOL    HW275915   4.342  12.565   1.280 -0.9628 -0.8869 -1.0749
56289SOL     OW75916   0.828   0.514  12.347  0.3163 -0.2832  0.1846
56289SOL    HW175917   0.908   0.472  12.377 -0.3288 -2.1747 -0.5635
56289SOL    HW275918   0.843   0.528  12.253 -0.3434 -1.0336 -0.0496
56290SOL     OW75919   8.841   1.277   9.547 -0.2119  0.5453  0.0366
56290SOL    HW175920   8.835   1.365   9.583 -1.6151  0.2614  0.5438
56290SOL    HW275921   8.761   1.266   9.496  0.9234  0.3156 -1.8233
56291SOL     OW75922   7.956   2.534   0.862 -0.0908  0.4986  0.4548
56291SOL    HW175923   8.005   2.611   0.892  0.4571  0.4179 -0.1805
56291SOL    HW275924   7.873   2.537   0.910  1.1143 -0.1980  2.7285
56292SOL     OW75925   5.680   0.998  10.484 -0.4804  0.1057  0.2871
56292SOL    HW175926   5.656   1.005  10.576 -0.1907  2.0432  0.2706
56292SOL    HW275927   5.753   1.059  10.473 -1.4284  1.0234 -1.4845
56293SOL     OW75928  10.135  12.334  11.177 -0.0119  0.3507  0.0019
56293SOL    HW175929  10.201  12.403  11.171 -0.5565  0.8366 -0.5191
56293SOL    HW275930  10.105  12.321  11.086  1.1413 -1.6259 -0.1558
56294SOL     OW75931   3.476   8.693  11.323 -0.1489  0.3086 -0.3483
56294SOL    HW175932   3.401   8.752  11.323 -0.7576 -0.3741  1.6708
56294SOL    HW275933   3.482   8.661  11.233 -0.9783  1.9488 -1.0293
56295SOL     OW75934   6.320   9.271   9.713  0.1145 -0.1627 -0.4191
56295SOL    HW175935   6.377   9.284   9.789 -2.4234 -2.5368  2.0960
56295SOL    HW275936   6.375   9.224   9.650  1.7369  0.1679  0.6702
56296SOL     OW75937   3.077  10.262   4.205 -0.0588 -0.0534 -0.1533
56296SOL    HW175938   3.086  10.253   4.300  1.2398  0.7869 -0.1716
56296SOL    HW275939   2.983  10.266   4.190 -0.4391 -2.8556  0.8096
56297SOL     OW75940   2.613   9.757   6.482 -0.7086 -0.0657 -0.1884
56297SOL    HW175941   2.654   9.672   6.499  0.0103  0.4947  1.0325
56297SOL    HW275942   2.562   9.776   6.560 -2.3360 -0.1687 -1.1846
56298SOL     OW75943   1.444   0.392   2.638  0.2943 -0.1252 -0.2292
56298SOL    HW175944   1.517   0.333   2.655 -0.0357 -1.2361 -2.3064
56298SOL    HW275945   1.377   0.366   2.702  0.6746 -1.0360 -0.1860
56299SOL     OW75946   8.965   4.889  12.447 -0.6417 -0.0148 -0.0978
56299SOL    HW175947   8.977   4.795  12.462 -2.6959 -0.3035 -0.0063
56299SOL    HW275948   8.984   4.930  12.531 -0.7563 -0.4510  0.1390
56300SOL     OW75949   2.792   0.850   2.742 -0.4171 -0.6173  1.1003
56300SOL    HW175950   2.877   0.839   2.702 -0.0965  0.0045  1.5786
56300SOL    HW275951   2.803   0.926   2.800 -1.4545 -0.1525  0.7139
56301SOL     OW75952  10.214   4.280  11.207  0.1065  0.0103  0.2503
56301SOL    HW175953  10.285   4.339  11.184  0.0863 -0.2445 -0.4959
56301SOL    HW275954  10.226   4.262  11.300  0.8153  0.2367  0.2045
56302SOL     OW75955   3.847   0.829   8.054 -0.1990 -0.1697  0.1260
56302SOL    HW175956   3.857   0.775   8.132  0.0060 -0.2304  0.0599
56302SOL    HW275957   3.907   0.790   7.990 -1.1367 -0.7658 -0.4142
56303SOL     OW75958   9.585  12.119  11.573  0.1630 -0.5150 -0.1920
56303SOL    HW175959   9.638  12.040  11.564 -0.4330 -0.7496 -2.0606
56303SOL    HW275960   9.648  12.189  11.587  0.9817 -0.8775 -1.7904
56304SOL     OW75961  10.533   9.647  10.665  0.1786  0.4542 -0.8205
56304SOL    HW175962  10.460   9.708  10.670  0.9123  1.6145 -3.2521
56304SOL    HW275963  10.544   9.616  10.755 -2.2510  1.4503 -0.1086
56305SOL     OW75964  11.503   7.486  10.091  0.7766  0.3673 -0.0017
56305SOL    HW175965  11.462   7.525  10.168  0.0473 -0.8105  0.2315
56305SOL    HW275966  11.491   7.552  10.022 -0.0284  0.7458  0.4801
56306SOL     OW75967  10.134   7.932   3.153 -0.4913  0.1714  1.0093
56306SOL    HW175968  10.105   7.976   3.233  1.6606  0.9460  1.4419
56306SOL    HW275969  10.215   7.888   3.179  0.1002  0.2135 -0.6603
56307SOL     OW75970  12.106   7.405   3.513  0.6030 -0.2196 -0.1818
56307SOL    HW175971  12.039   7.445   3.569  0.4800 -0.5007 -0.1280
56307SOL    HW275972  12.162   7.357   3.574 -0.1358 -1.3966 -0.3888
56308SOL     OW75973   0.761   5.245   1.143 -0.3304 -0.0253  0.4965
56308SOL    HW175974   0.766   5.326   1.194  1.6704 -0.8830  1.7939
56308SOL    HW275975   0.807   5.181   1.197  0.3778 -1.4133 -1.6493
56309SOL     OW75976   1.035   4.100   0.338  0.4359  0.1055  0.1225
56309SOL    HW175977   1.068   4.188   0.317  0.9121 -0.1711 -0.3098
56309SOL    HW275978   1.114   4.046   0.346  0.3308  0.1925  2.7986
56310SOL     OW75979   1.410   1.296   2.284  0.1671  0.3520  0.3139
56310SOL    HW175980   1.426   1.244   2.205  0.2945 -0.8769  1.1039
56310SOL    HW275981   1.367   1.235   2.344  0.5561  1.0924  1.3815
56311SOL     OW75982  12.305  11.039   0.496  0.1743  0.0939  0.4107
56311SOL    HW175983  12.295  11.062   0.588 -1.6115  0.9115  0.0468
56311SOL    HW275984  12.226  11.072   0.453  1.4977  0.8691 -1.6428
56312SOL     OW75985   3.101   0.089   9.654  0.5154  0.0187 -1.0083
56312SOL    HW175986   3.120   0.116   9.744 -0.3088 -0.5635 -0.6499
56312SOL    HW275987   3.181   0.110   9.606  0.3717  1.9623 -0.5135
56313SOL     OW75988   5.694  10.007   0.195 -0.5170 -0.4415  0.1686
56313SOL    HW175989   5.743   9.926   0.206  1.5391  0.6854 -0.1104
56313SOL    HW275990   5.670  10.008   0.103  1.9723  0.5092 -0.5625
56314SOL     OW75991   8.403   0.114  10.816 -0.4040 -0.1282  0.3846
56314SOL    HW175992   8.397   0.190  10.758  0.4036 -1.1325 -1.1052
56314SOL    HW275993   8.394   0.039  10.757  2.2145 -1.2506  1.2650
56315SOL     OW75994   9.888   2.920   5.732  0.0863 -0.2905 -0.0984
56315SOL    HW175995   9.866   2.990   5.792 -1.0083 -1.0053  0.3619
56315SOL    HW275996   9.833   2.936   5.655  1.6561  0.7655 -1.0816
56316SOL     OW75997   8.095   1.560   7.805 -0.3498 -0.1532 -0.0339
56316SOL    HW175998   8.142   1.478   7.810  2.5494  1.3835 -0.0414
56316SOL    HW275999   8.037   1.560   7.882  1.5995 -1.0487  1.5129
56317SOL     OW76000   3.762  10.751   8.193 -0.0324  0.5524 -0.5221
56317SOL    HW176001   3.755  10.832   8.244  0.9834 -0.5971  1.5623
56317SOL    HW276002   3.826  10.771   8.125 -0.4470  1.7367 -0.5853
56318SOL     OW76003   5.423   2.588   5.038  0.0830  0.1774 -0.1648
56318SOL    HW176004   5.387   2.653   5.098  0.5294 -0.8793  1.3066
56318SOL    HW276005   5.391   2.614   4.952 -1.9323  0.8245  0.7277
56319SOL     OW76006  11.034   0.531  12.266  0.6699  0.2584  0.0737
56319SOL    HW176007  10.945   0.502  12.246  0.8155  0.2546 -0.5839
56319SOL    HW276008  11.049   0.606  12.209  1.3751 -0.2421 -0.4284
56320SOL     OW76009   6.665  10.333   1.871 -0.3746 -0.3808 -0.1642
56320SOL    HW176010   6.750  10.318   1.911 -0.1512  0.6604 -0.2029
56320SOL    HW276011   6.604  10.278   1.920 -0.1673  1.0524  1.8227
56321SOL     OW76012  11.695   2.977   1.169  0.3290  0.5143  0.0901
56321SOL    HW176013  11.706   2.940   1.256 -1.0010 -0.6522 -0.2000
56321SOL    HW276014  11.778   2.961   1.124  0.4617 -0.3120  0.6215
56322SOL     OW76015   9.706  10.082   1.107 -0.1064 -0.5307 -0.1062
56322SOL    HW176016   9.714  10.034   1.190 -0.4741 -0.2014  0.1249
56322SOL    HW276017   9.787  10.062   1.060 -0.5032 -1.8702 -0.2733
56323SOL     OW76018   5.564   2.701  11.203  0.1020 -0.6844 -0.6720
56323SOL    HW176019   5.514   2.667  11.277 -2.0519 -0.2696 -1.8507
56323SOL    HW276020   5.654   2.709  11.236 -0.7555 -0.5802  1.8375
56324SOL     OW76021  11.608   2.714   0.481 -0.4720  0.0557 -0.3234
56324SOL    HW176022  11.628   2.802   0.514 -0.9510 -0.5354  1.6470
56324SOL    HW276023  11.648   2.712   0.394  1.4514  1.5021  0.4434
56325SOL     OW76024   0.183   4.476   5.037 -0.1521  0.0298  0.6263
56325SOL    HW176025   0.104   4.425   5.022  0.1116  0.1875 -1.6962
56325SOL    HW276026   0.254   4.412   5.034  0.0595  0.2996 -0.8421
56326SOL     OW76027   8.254   9.272   8.678 -0.5335 -0.6962 -0.6002
56326SOL    HW176028   8.165   9.306   8.670 -0.4497 -0.5919 -1.1005
56326SOL    HW276029   8.296   9.294   8.595  0.8059  1.7624  0.6140
56327SOL     OW76030   2.305   6.160   7.940  0.0508  0.4233  0.0173
56327SOL    HW176031   2.347   6.074   7.938  0.8051  0.7904 -0.2737
56327SOL    HW276032   2.226   6.149   7.887  0.4894  0.0833 -0.5790
56328SOL     OW76033   1.740   2.576  11.497  0.0071  0.2222  0.1874
56328SOL    HW176034   1.733   2.481  11.483  1.1887  0.3154 -1.2936
56328SOL    HW276035   1.650   2.607  11.489 -0.2578 -0.6520 -0.4247
56329SOL     OW76036   6.331   9.406   4.584 -0.1461 -0.6282 -0.3819
56329SOL    HW176037   6.240   9.385   4.562 -0.4493 -0.4226  0.6132
56329SOL    HW276038   6.361   9.462   4.513 -0.9013 -0.4339 -0.5520
56330SOL     OW76039   1.056   5.230   9.800  0.5413 -0.0331  0.0959
56330SOL    HW176040   1.135   5.249   9.851 -0.1759  0.4246  1.0694
56330SOL    HW276041   1.036   5.312   9.756 -0.1031  0.2239  0.8571
56331SOL     OW76042  11.652   3.444   7.165 -0.6297 -0.2128 -0.4686
56331SOL    HW176043  11.659   3.377   7.233 -2.0569 -0.1028 -0.1883
56331SOL    HW276044  11.690   3.403   7.087  1.4168 -0.1814  0.4640
56332SOL     OW76045   9.724   7.680   5.242  0.4467 -0.1273  0.2034
56332SOL    HW176046   9.730   7.660   5.149 -2.2101 -1.7026  0.2654
56332SOL    HW276047   9.812   7.707   5.267  1.9801 -2.4813 -2.1484
56333SOL     OW76048   4.487   4.985   0.723  0.1118  0.2109 -0.2126
56333SOL    HW176049   4.535   4.902   0.720  1.3402  0.9087 -2.6192
56333SOL    HW276050   4.448   4.994   0.636  1.3263  2.8215 -0.6134
56334SOL     OW76051   6.110   1.646   6.164  0.6138 -0.3230  0.5115
56334SOL    HW176052   6.152   1.725   6.129  0.8634 -0.7049 -0.0749
56334SOL    HW276053   6.068   1.675   6.245 -0.0168  0.6044 -0.1199
56335SOL     OW76054  11.424   8.992   0.050  0.2093  0.3084  0.2669
56335SOL    HW176055  11.329   9.002   0.047  0.1060 -0.7207 -0.5944
56335SOL    HW276056  11.456   9.073   0.090 -1.0683  0.3566  1.2379
56336SOL     OW76057  12.036   1.139  11.373  0.4635  0.6520 -0.2508
56336SOL    HW176058  12.026   1.056  11.327  2.9689  0.1143  0.0060
56336SOL    HW276059  11.949   1.178  11.372 -1.0700 -2.4635  0.5837
56337SOL     OW76060  11.440  10.038   5.310  0.1147  0.5053 -0.9450
56337SOL    HW176061  11.528  10.002   5.299 -0.5187 -1.0021 -1.3675
56337SOL    HW276062  11.423  10.085   5.229  0.7858  1.4213 -0.5720
56338SOL     OW76063   1.605  12.285   7.542 -0.0093 -0.1033 -0.1944
56338SOL    HW176064   1.536  12.242   7.594  0.4894 -2.4157 -1.3222
56338SOL    HW276065   1.677  12.222   7.541  0.7986  0.7866 -1.9111
56339SOL     OW76066   3.042   3.421  11.887 -0.0543 -0.7211  0.1818
56339SOL    HW176067   3.037   3.460  11.974  0.0678 -2.6673  1.1243
56339SOL    HW276068   2.993   3.481  11.830  0.3105  0.8580  1.4653
56340SOL     OW76069   4.647   0.290   8.783  0.0148 -0.7149 -0.3046
56340SOL    HW176070   4.670   0.208   8.826  1.2666 -0.9193 -1.3034
56340SOL    HW276071   4.726   0.344   8.791 -1.0710  0.7871  1.1375
56341SOL     OW76072   8.053  11.574   4.149  0.1500  0.5061  0.4413
56341SOL    HW176073   7.969  11.529   4.144 -0.7145  2.2296 -2.9448
56341SOL    HW276074   8.107  11.516   4.204 -2.8112 -1.2190  1.8108
56342SOL     OW76075   6.853   0.006   1.659 -0.1252  0.5270 -0.0809
56342SOL    HW176076   6.822  -0.005   1.749  1.5956 -0.4521  0.4281
56342SOL    HW276077   6.943  -0.026   1.660  0.4828  2.0386 -1.8023
56343SOL     OW76078   2.763   8.605   7.185 -0.3957  0.3724  0.5487
56343SOL    HW176079   2.749   8.672   7.119  0.7617 -0.6795 -0.8321
56343SOL    HW276080   2.752   8.522   7.138  1.4928 -0.4287  1.3937
56344SOL     OW76081  10.844   7.803   9.746 -0.0760  0.1360  0.1055
56344SOL    HW176082  10.781   7.873   9.728  1.7094  1.7995  0.0195
56344SOL    HW276083  10.828   7.738   9.677  0.2428  1.9134 -1.7328
56345SOL     OW76084   3.891   3.485   9.422 -0.6716  1.1568  0.3579
56345SOL    HW176085   3.840   3.405   9.410  1.3940 -0.0340 -1.2453
56345SOL    HW276086   3.831   3.555   9.399 -2.0910 -0.0370  0.2686
56346SOL     OW76087   2.271   8.284   9.164  0.0210  0.0223 -0.5164
56346SOL    HW176088   2.276   8.189   9.165 -0.5761 -0.0139 -0.6271
56346SOL    HW276089   2.314   8.311   9.246 -0.7235 -0.3953  0.0247
56347SOL     OW76090   8.227   7.048   8.680 -0.2607  0.0945 -0.9960
56347SOL    HW176091   8.291   7.112   8.712 -1.5032  1.8364 -1.8170
56347SOL    HW276092   8.142   7.090   8.694 -1.1866 -1.6703 -0.9935
56348SOL     OW76093   5.993  10.394  11.301  0.7188  0.3533  0.2647
56348SOL    HW176094   6.039  10.462  11.252  0.9307  0.2943  0.3781
56348SOL    HW276095   6.020  10.407  11.392 -0.4640  1.0948  0.5177
56349SOL     OW76096   9.961   3.882   7.470 -0.2053 -0.9205  0.1448
56349SOL    HW176097   9.994   3.879   7.380 -0.1453 -0.9238  0.1672
56349SOL    HW276098  10.032   3.921   7.520 -0.3145 -0.7439  0.1596
56350SOL     OW76099   5.023   9.139   8.013  0.0830  0.1921 -0.3661
56350SOL    HW176100   4.985   9.122   8.099  1.7953  0.1248  0.4237
56350SOL    HW276101   5.046   9.231   8.014  1.1215 -0.0600 -0.3175
56351SOL     OW76102   7.932   2.837   1.478 -0.0238 -0.1401  0.1905
56351SOL    HW176103   7.842   2.845   1.446  0.3775  2.2413 -0.6113
56351SOL    HW276104   7.944   2.744   1.494 -1.7179 -0.9399 -2.4725
56352SOL     OW76105  10.673   3.674   4.597  0.0825 -0.6173  0.9126
56352SOL    HW176106  10.591   3.714   4.568  0.0048  1.4536  3.5570
56352SOL    HW276107  10.675   3.588   4.555 -1.5271  0.7365 -2.2551
56353SOL     OW76108   9.227   3.983   3.605  0.2709  0.3768  0.3692
56353SOL    HW176109   9.277   3.928   3.665  0.1810 -1.8415 -1.4425
56353SOL    HW276110   9.146   3.934   3.590 -0.4158  1.6659 -0.2930
56354SOL     OW76111   2.278   1.982   1.821 -0.6155  0.3868  0.3974
56354SOL    HW176112   2.288   1.905   1.765  1.3586  0.2213  0.8959
56354SOL    HW276113   2.201   2.027   1.786 -0.7535 -0.8636 -1.0355
56355SOL     OW76114   5.033  11.960   4.936 -0.1643 -0.1382  0.2655
56355SOL    HW176115   4.967  11.919   4.991 -1.2908  0.7135 -0.3903
56355SOL    HW276116   5.028  12.053   4.960 -0.6177  0.2316 -1.1698
56356SOL     OW76117   8.825   4.428  12.462  0.9260 -0.5804  0.4333
56356SOL    HW176118   8.792   4.387  12.383  2.0320 -6.0226  2.3464
56356SOL    HW276119   8.751   4.425  12.523  0.8992  0.9534  0.5213
56357SOL     OW76120   5.807   8.094   4.748 -0.0981 -0.3526 -0.1207
56357SOL    HW176121   5.866   8.021   4.768  1.8831  0.8900 -1.0379
56357SOL    HW276122   5.780   8.079   4.657  1.6150  0.7968 -0.8802
56358SOL     OW76123   2.487   7.244   4.091 -0.1736 -0.1933 -0.0058
56358SOL    HW176124   2.429   7.306   4.136  0.4755 -0.0065  0.5808
56358SOL    HW276125   2.556   7.299   4.054  1.8893 -0.7286  2.7208
56359SOL     OW76126   0.062   5.834   0.983  0.2437  0.5999  0.5035
56359SOL    HW176127   0.115   5.912   0.998 -0.4928  1.1787  0.1783
56359SOL    HW276128   0.111   5.763   1.024  1.7656  0.9283 -0.6470
56360SOL     OW76129   5.373  11.063   8.670 -0.0612 -0.5484  0.0526
56360SOL    HW176130   5.283  11.055   8.700 -0.0613  0.2514  0.2859
56360SOL    HW276131   5.422  11.089   8.748  0.1054  0.5607 -0.3977
56361SOL     OW76132   7.623   4.869   7.200  0.2477 -0.6144  0.1710
56361SOL    HW176133   7.633   4.960   7.229 -0.6038 -0.6689  0.6528
56361SOL    HW276134   7.661   4.817   7.271 -0.8880 -0.7028  0.7275
56362SOL     OW76135   0.330  10.471   4.018  0.3398  0.2219 -0.7588
56362SOL    HW176136   0.275  10.515   4.083 -1.4946 -0.2307 -1.9245
56362SOL    HW276137   0.394  10.423   4.069 -0.0199  1.1841  0.6511
56363SOL     OW76138   9.955  10.481   7.087  0.5171  0.4154 -0.2374
56363SOL    HW176139   9.864  10.508   7.101 -0.2780 -1.3213 -1.6412
56363SOL    HW276140   9.959  10.390   7.118  1.9019  0.5885  0.1791
56364SOL     OW76141   5.932  10.206   7.014 -0.3365  0.5032  0.1403
56364SOL    HW176142   5.855  10.264   7.016  0.0077  0.9971  2.7131
56364SOL    HW276143   5.993  10.247   7.075  0.8197 -1.4208  0.3243
56365SOL     OW76144   1.474  12.514   7.939  0.5869 -0.7923  0.9482
56365SOL    HW176145   1.430  12.434   7.967 -0.9847 -0.1432  0.4269
56365SOL    HW276146   1.543  12.527   8.003  0.1021 -1.9249  1.7244
56366SOL     OW76147   2.915   4.473   5.965 -0.8695  0.3295 -0.1638
56366SOL    HW176148   2.968   4.406   6.008  0.1458  1.2334  0.0705
56366SOL    HW276149   2.841   4.426   5.928 -0.2840 -0.8801  0.1507
56367SOL     OW76150   1.206   8.464  10.056 -0.3024  0.3797 -0.0828
56367SOL    HW176151   1.210   8.477  10.150 -0.3679 -0.5670  0.0631
56367SOL    HW276152   1.206   8.552  10.019  0.6080  0.7571  0.7640
56368SOL     OW76153   3.835   3.059   5.847 -0.2908 -0.4544 -0.3279
56368SOL    HW176154   3.831   3.145   5.806 -1.1206 -0.0348  0.6212
56368SOL    HW276155   3.926   3.051   5.878  0.4901 -0.9472 -2.5383
56369SOL     OW76156   7.658   9.552  10.878  0.3994 -0.0227 -0.2384
56369SOL    HW176157   7.751   9.532  10.884  0.2715 -0.7053 -0.3952
56369SOL    HW276158   7.638   9.596  10.961  1.0993  1.2206 -0.7001
56370SOL     OW76159   5.668  10.663   0.216  0.1876 -0.1578  0.4287
56370SOL    HW176160   5.678  10.578   0.257 -0.6056 -0.4240  0.0888
56370SOL    HW276161   5.619  10.715   0.279 -0.3207 -0.3135  0.1665
56371SOL     OW76162   2.017   1.962   9.051  0.1817  0.4603  0.9361
56371SOL    HW176163   1.945   1.921   9.098  0.0985  1.4200  1.6882
56371SOL    HW276164   2.004   2.056   9.066  0.3939  0.7724 -0.6684
56372SOL     OW76165  12.398   0.259   8.227 -0.3314 -0.0610  0.2786
56372SOL    HW176166  12.310   0.227   8.247  0.7158 -1.8892  2.4715
56372SOL    HW276167  12.406   0.251   8.132 -2.5309  0.2790  0.0024
56373SOL     OW76168  10.862   3.883   6.464 -0.5325  0.5022 -0.1913
56373SOL    HW176169  10.949   3.846   6.477 -1.0631 -0.4739  0.7621
56373SOL    HW276170  10.878   3.967   6.422  0.7173 -0.6811 -2.2444
56374SOL     OW76171   5.416   9.749  10.403  0.1261  0.1339  0.1382
56374SOL    HW176172   5.389   9.697  10.478  1.6268 -1.0675 -0.1120
56374SOL    HW276173   5.509   9.732  10.393  0.2690  1.3993 -1.1271
56375SOL     OW76174  11.498   7.631  10.994 -0.0258  0.2021  0.2743
56375SOL    HW176175  11.427   7.677  10.949  1.1767  0.6743 -1.2227
56375SOL    HW276176  11.453   7.566  11.049 -1.5944  0.2338 -0.8943
56376SOL     OW76177   4.373   7.380   1.540 -0.2977 -0.0304 -0.6147
56376SOL    HW176178   4.367   7.380   1.635  1.4301  1.2901 -0.4649
56376SOL    HW276179   4.377   7.473   1.515  1.7032 -0.3509 -1.7449
56377SOL     OW76180   8.748   6.670   2.951 -0.3636  0.2038 -0.2497
56377SOL    HW176181   8.830   6.640   2.991 -0.2706  0.2333 -0.4190
56377SOL    HW276182   8.735   6.758   2.987 -0.5726  0.0112  0.1512
56378SOL     OW76183   2.668   9.381   3.575 -0.1645 -0.1531 -0.3642
56378SOL    HW176184   2.705   9.427   3.500  0.1390 -0.9735 -0.7309
56378SOL    HW276185   2.743   9.363   3.632  0.7938 -4.6527 -2.5673
56379SOL     OW76186   5.396  12.443  10.849  0.7979  0.1091  0.3514
56379SOL    HW176187   5.354  12.369  10.804 -1.5088  0.5164  1.7173
56379SOL    HW276188   5.460  12.402  10.907  2.1651 -0.5420 -1.4881
56380SOL     OW76189  12.115   6.382   6.674  1.0030  0.0195  0.0287
56380SOL    HW176190  12.187   6.429   6.716  1.9952 -0.4713 -1.0550
56380SOL    HW276191  12.065   6.449   6.628  0.5869  0.4013  1.0103
56381SOL     OW76192  11.060   1.639   9.438 -0.1838 -0.1800  0.2663
56381SOL    HW176193  11.073   1.699   9.512 -2.0299 -1.9892  2.1934
56381SOL    HW276194  10.985   1.675   9.391  2.7089  2.6553 -2.7541
56382SOL     OW76195   2.163   1.254   8.593  0.5470 -0.2689  0.1513
56382SOL    HW176196   2.189   1.241   8.502  1.3406 -0.3158  0.3809
56382SOL    HW276197   2.235   1.217   8.645 -0.1151 -0.6959  0.8044
56383SOL     OW76198   3.980   1.138  10.468  0.0582  0.2637  0.2728
56383SOL    HW176199   4.008   1.172  10.553  0.2223 -0.3540  0.4776
56383SOL    HW276200   4.019   1.050  10.464  0.2350  0.3733 -0.5372
56384SOL     OW76201   4.483   8.648   3.119  0.0656  0.2709 -0.5801
56384SOL    HW176202   4.561   8.608   3.157 -0.9324 -1.6979 -0.4754
56384SOL    HW276203   4.503   8.655   3.026  0.9034  1.1850 -0.3541
56385SOL     OW76204   4.817   9.235   6.355  0.0671 -1.2891 -0.0040
56385SOL    HW176205   4.788   9.250   6.265  0.4595  2.4158  0.3406
56385SOL    HW276206   4.763   9.293   6.408  3.6035  1.0760  1.3834
56386SOL     OW76207  10.476   8.510   4.112 -0.0608  0.3759  0.1810
56386SOL    HW176208  10.419   8.562   4.169  0.7040 -0.1506  1.4778
56386SOL    HW276209  10.546   8.569   4.086 -0.9827  0.9351 -1.1648
56387SOL     OW76210  12.407   9.647   1.066 -0.1022 -0.0604 -0.2242
56387SOL    HW176211  12.394   9.571   1.009 -2.6892 -0.7065  1.0796
56387SOL    HW276212  12.395   9.722   1.008  0.0118 -0.6525 -1.0425
56388SOL     OW76213  12.078   4.186   3.220  0.1675  0.0715 -0.2492
56388SOL    HW176214  12.023   4.228   3.153 -0.9402 -1.5775 -0.4367
56388SOL    HW276215  12.019   4.125   3.264  1.9189 -2.0307 -0.6678
56389SOL     OW76216   2.614   5.981   1.779  0.3980  0.1977 -0.4232
56389SOL    HW176217   2.707   5.974   1.759  0.3184 -0.5787 -0.5521
56389SOL    HW276218   2.593   6.073   1.763  1.4670  0.7467  1.0876
56390SOL     OW76219   8.683   8.405   9.031 -0.1181  0.0565  0.3937
56390SOL    HW176220   8.608   8.463   9.020  0.9970  1.8096  1.5410
56390SOL    HW276221   8.664   8.355   9.111 -1.0949 -1.2708 -0.6155
56391SOL     OW76222   0.395   0.015   7.734  0.0701 -0.1318  0.0741
56391SOL    HW176223   0.481   0.054   7.745 -1.0407  3.5844 -2.4635
56391SOL    HW276224   0.398  -0.027   7.648 -0.7128  0.3398 -0.1933
56392SOL     OW76225  10.925   7.929  11.183 -0.3819  0.0524 -0.7131
56392SOL    HW176226  10.900   7.898  11.270 -0.7022 -1.8849 -1.4510
56392SOL    HW276227  10.846   7.973  11.151  0.1737  2.0666  0.4605
56393SOL     OW76228  12.310  11.807   4.983  0.2157 -0.3791 -0.5470
56393SOL    HW176229  12.276  11.772   5.066 -0.5547  1.9274  0.1892
56393SOL    HW276230  12.405  11.805   4.992  0.1339  0.7282  0.8294
56394SOL     OW76231  10.853   8.013   4.909  0.1014 -0.6478 -0.0230
56394SOL    HW176232  10.833   7.970   4.826  0.6621 -1.0826  0.0608
56394SOL    HW276233  10.840   8.106   4.891  0.5052 -0.7113 -0.6840
56395SOL     OW76234   8.961   9.468   9.250  0.1710  0.1845 -0.2084
56395SOL    HW176235   8.943   9.384   9.209  1.7493 -0.2494 -0.0706
56395SOL    HW276236   8.875   9.507   9.264 -0.4839 -0.0429 -3.0660
56396SOL     OW76237  12.484   7.766   7.873 -0.1613  0.4536 -0.3783
56396SOL    HW176238  12.474   7.858   7.848 -1.2922  0.3410 -0.3652
56396SOL    HW276239  12.504   7.769   7.967 -1.7325  0.6538 -0.0132
56397SOL     OW76240   7.698   6.991   2.081  0.4900 -0.2851 -0.2600
56397SOL    HW176241   7.650   6.912   2.054 -0.7814  1.0343 -2.0306
56397SOL    HW276242   7.720   7.035   2.000 -0.7442  2.2806  0.6992
56398SOL     OW76243   9.306   2.122   6.889 -0.8167  0.3958 -0.2105
56398SOL    HW176244   9.391   2.164   6.888 -0.5380 -0.1413  0.4525
56398SOL    HW276245   9.287   2.105   6.796  0.6017 -1.0388 -0.2925
56399SOL     OW76246   4.027  10.692   4.579  0.4535 -0.3690 -0.2262
56399SOL    HW176247   3.972  10.654   4.511 -1.2398  2.6315 -0.6896
56399SOL    HW276248   4.056  10.776   4.544  0.8780  0.5558  2.0964
56400SOL     OW76249   2.703   6.681   5.205 -0.4336 -0.8882  0.3296
56400SOL    HW176250   2.748   6.633   5.136  1.2080 -1.8466  1.9930
56400SOL    HW276251   2.613   6.690   5.173  0.7966  1.0920 -3.1336
56401SOL     OW76252  11.866  12.230   0.305  0.6062 -0.2575  0.3020
56401SOL    HW176253  11.851  12.183   0.387  2.0039  0.1820  0.8405
56401SOL    HW276254  11.808  12.306   0.308  1.0470  0.0507  1.1396
56402SOL     OW76255  10.677   8.968   5.528  0.2898  0.2227 -0.2771
56402SOL    HW176256  10.726   8.934   5.453  2.3466  0.7147  0.7620
56402SOL    HW276257  10.606   9.019   5.490  1.8698  1.3004 -1.9420
56403SOL     OW76258   4.744  11.712  11.086 -0.7097 -0.1313  0.3765
56403SOL    HW176259   4.733  11.663  11.167  3.9758 -0.0306  1.3468
56403SOL    HW276260   4.797  11.655  11.030  2.2277  2.4306  0.3170
56404SOL     OW76261   6.622   8.724   5.798  0.8209 -0.1016  0.6333
56404SOL    HW176262   6.705   8.679   5.783  1.1282 -0.0615  2.0714
56404SOL    HW276263   6.643   8.817   5.785  1.0738 -0.0712  1.1958
56405SOL     OW76264   1.365   0.278   3.564 -0.0770  0.4405  0.5354
56405SOL    HW176265   1.389   0.252   3.652 -0.9309 -0.2194  0.5814
56405SOL    HW276266   1.392   0.370   3.558  0.8214  0.2250  1.1628
56406SOL     OW76267  12.457   9.036   8.357 -0.1700 -0.0353  0.0661
56406SOL    HW176268  12.479   8.961   8.303  0.2634  2.0981 -2.9872
56406SOL    HW276269  12.390   9.004   8.417  0.6190 -3.0055 -0.5063
56407SOL     OW76270  11.718   4.143   4.149  0.4447 -0.1217  0.3108
56407SOL    HW176271  11.806   4.120   4.177  0.5465  0.0558  0.1382
56407SOL    HW276272  11.695   4.219   4.203  0.3877 -0.1847  0.3747
56408SOL     OW76273   6.156   6.942  10.388 -0.1692  0.4443 -0.3434
56408SOL    HW176274   6.159   6.919  10.295 -0.5327  0.9619 -0.4843
56408SOL    HW276275   6.215   7.017  10.395  0.8857 -0.3972  0.0856
56409SOL     OW76276   3.277   1.051   9.333 -0.0795  0.2995 -0.7720
56409SOL    HW176277   3.265   1.001   9.252 -1.2707  1.9001 -1.6407
56409SOL    HW276278   3.347   1.113   9.313  1.1566 -0.7549  0.1832
56410SOL     OW76279   5.583   6.756   4.112 -0.4077  0.2936  0.4755
56410SOL    HW176280   5.545   6.718   4.033  0.0755  0.9516 -0.0884
56410SOL    HW276281   5.678   6.754   4.095 -0.2944  0.3099  1.1028
56411SOL     OW76282   9.895   8.743   2.131  0.0020 -0.7048 -0.0026
56411SOL    HW176283   9.870   8.662   2.176 -1.4143  0.0731  0.6932
56411SOL    HW276284   9.878   8.812   2.195 -0.0081  0.2594 -1.0150
56412SOL     OW76285   6.355   2.179   5.944  0.1933 -0.0543  0.3176
56412SOL    HW176286   6.302   2.210   5.871  0.8668 -0.2657 -0.2753
56412SOL    HW276287   6.316   2.220   6.021  0.3803  1.3653 -0.3138
56413SOL     OW76288   9.366   5.646   6.308 -0.6109 -0.2006  0.1057
56413SOL    HW176289   9.312   5.676   6.235 -2.3018  0.5492  1.5982
56413SOL    HW276290   9.385   5.554   6.288 -2.0883 -0.3533 -0.6797
56414SOL     OW76291   4.097   1.976   0.815 -0.4493  0.1475  0.0726
56414SOL    HW176292   4.019   1.949   0.768 -0.1246 -0.4430 -0.1358
56414SOL    HW276293   4.167   1.976   0.749 -0.5699  2.1987 -0.0928
56415SOL     OW76294   2.175   2.535   7.216 -0.1655  1.1514 -0.1231
56415SOL    HW176295   2.185   2.443   7.192 -0.4172  0.7168  1.3088
56415SOL    HW276296   2.128   2.532   7.300 -0.2767  2.5885 -0.1155
56416SOL     OW76297   9.058   7.140   3.064  0.1639 -0.3633 -0.0761
56416SOL    HW176298   8.973   7.098   3.082 -0.4278  0.2507 -1.2977
56416SOL    HW276299   9.103   7.079   3.006  0.2391 -0.3290 -0.0538
56417SOL     OW76300   1.243   9.532   1.216 -0.1842 -0.2447  0.7326
56417SOL    HW176301   1.165   9.540   1.271 -0.1769 -0.5092  0.7810
56417SOL    HW276302   1.309   9.495   1.275  0.1061  0.3807  0.8168
56418SOL     OW76303   7.717   9.806   4.414  0.1236  0.6213 -0.0821
56418SOL    HW176304   7.752   9.871   4.475  1.3921 -0.2842  0.2081
56418SOL    HW276305   7.779   9.804   4.342 -0.1605  0.0939 -0.3202
56419SOL     OW76306  10.990   9.128   8.877 -0.1916  0.6094 -0.6244
56419SOL    HW176307  11.018   9.084   8.797  0.7638  1.1741 -0.6112
56419SOL    HW276308  11.067   9.124   8.934 -0.5832  0.9859 -0.0634
56420SOL     OW76309   8.069   8.996  10.717  0.0820  0.7997 -0.2561
56420SOL    HW176310   8.160   9.024  10.714 -0.1340  1.5838  0.3162
56420SOL    HW276311   8.072   8.908  10.754  0.5851  0.9294  0.0196
56421SOL     OW76312   5.651   7.257   1.779  0.2325  0.0348 -0.2416
56421SOL    HW176313   5.577   7.199   1.794 -0.7959  1.0419 -1.1974
56421SOL    HW276314   5.613   7.345   1.781  0.9916  0.5010 -2.7591
56422SOL     OW76315   4.419  12.341  11.366 -0.0097 -0.6206  0.0601
56422SOL    HW176316   4.436  12.418  11.420  0.8045 -2.0284  1.9399
56422SOL    HW276317   4.328  12.319  11.382  0.0062 -0.5589  0.2356
56423SOL     OW76318   6.345   9.321  12.363  0.0916 -0.6257  0.3727
56423SOL    HW176319   6.367   9.356  12.277 -2.0164  0.3196  0.1563
56423SOL    HW276320   6.428   9.321  12.411  1.0009  0.3652 -1.1211
56424SOL     OW76321   9.087  12.454  10.204 -0.2099  0.0813 -0.3352
56424SOL    HW176322   9.135  12.450  10.287  0.3142  2.2278 -0.4994
56424SOL    HW276323   9.154  12.463  10.137 -0.7446  0.8542 -0.7751
56425SOL     OW76324   8.240   5.379   0.275 -0.1654  0.0416 -0.1101
56425SOL    HW176325   8.259   5.294   0.316  0.1196  0.3373  0.3723
56425SOL    HW276326   8.215   5.436   0.348 -0.3212  0.3858 -0.4299
56426SOL     OW76327   0.583   1.138   2.876 -0.2031 -0.2618 -0.8943
56426SOL    HW176328   0.497   1.169   2.845  0.2568  1.2772 -0.7104
56426SOL    HW276329   0.598   1.187   2.956  0.3560 -1.3855 -0.2873
56427SOL     OW76330  10.580   3.571   2.488  0.5357 -0.7556  0.1663
56427SOL    HW176331  10.566   3.575   2.393 -0.9226 -1.4094  0.3289
56427SOL    HW276332  10.624   3.654   2.509 -1.2501  0.4932 -0.7559
56428SOL     OW76333   4.379   0.756   2.019  0.3909 -0.9057  0.4021
56428SOL    HW176334   4.288   0.744   2.044 -0.0765 -0.6314 -1.0454
56428SOL    HW276335   4.389   0.850   2.005  0.8536 -0.9496  0.3956
56429SOL     OW76336  10.430   0.474   5.559  0.2200  0.1199 -0.4271
56429SOL    HW176337  10.416   0.548   5.500  2.2562  1.1937  0.3315
56429SOL    HW276338  10.372   0.492   5.634 -0.9789 -0.2785 -1.2319
56430SOL     OW76339   9.409   3.424   6.492 -0.1731  0.7477  0.1474
56430SOL    HW176340   9.313   3.422   6.492 -0.1969  0.7893  1.3102
56430SOL    HW276341   9.434   3.348   6.545  0.4908 -0.0242 -1.2305
56431SOL     OW76342   2.409   3.323   9.794 -0.1278  0.6709  0.3064
56431SOL    HW176343   2.373   3.322   9.883 -1.1102 -1.0938 -0.0621
56431SOL    HW276344   2.335   3.298   9.739  1.2995 -1.7489 -0.6380
56432SOL     OW76345   3.491   7.736  11.224 -0.2270  0.1765  0.4777
56432SOL    HW176346   3.438   7.752  11.146  1.2437 -0.7545 -0.7592
56432SOL    HW276347   3.464   7.805  11.285 -1.7727  0.6265 -0.6431
56433SOL     OW76348  11.627   4.569  11.605  0.1417 -0.2443  0.3341
56433SOL    HW176349  11.691   4.550  11.536  0.0522 -0.3006  0.2669
56433SOL    HW276350  11.588   4.652  11.580  1.5327  0.7636  1.3559
56434SOL     OW76351   0.150   0.851   4.731 -0.7263 -0.3449 -0.9605
56434SOL    HW176352   0.135   0.830   4.823  0.1688 -0.3985 -0.8134
56434SOL    HW276353   0.171   0.944   4.731 -1.7521 -0.1061 -1.2453
56435SOL     OW76354   1.639  12.437   8.132 -0.0328 -0.1192  0.6498
56435SOL    HW176355   1.639  12.472   8.222  0.9224  1.8525 -0.0489
56435SOL    HW276356   1.664  12.345   8.142  1.1806  0.3348  2.3405
56436SOL     OW76357   6.656   0.666   3.043 -0.3520 -0.1157 -0.6610
56436SOL    HW176358   6.627   0.670   2.951  0.6791 -1.9814 -1.1108
56436SOL    HW276359   6.685   0.755   3.062  1.1264 -0.0660 -2.7666
56437SOL     OW76360   0.856   6.381   0.711  0.1390 -0.0852  0.4037
56437SOL    HW176361   0.921   6.450   0.704 -1.1826  1.1989  0.2136
56437SOL    HW276362   0.829   6.383   0.803 -1.4548  1.1984 -0.0372
56438SOL     OW76363   4.172   3.404   1.422 -0.1171  0.5292  0.0174
56438SOL    HW176364   4.242   3.344   1.397  0.1439  0.0877  1.6575
56438SOL    HW276365   4.200   3.490   1.390  0.5688  0.1505 -0.4159
56439SOL     OW76366   0.232   6.394  10.564  0.3748 -0.2549  0.2671
56439SOL    HW176367   0.205   6.482  10.538  0.6823  0.1433  1.2525
56439SOL    HW276368   0.156   6.358  10.610 -0.0232 -0.8056 -0.7837
56440SOL     OW76369   6.330   1.137   4.960  0.2004 -0.6212 -0.4643
56440SOL    HW176370   6.318   1.214   4.905 -2.3483 -0.0041  0.8356
56440SOL    HW276371   6.304   1.064   4.904  0.7783 -0.3592 -1.0920
56441SOL     OW76372   6.588   3.194  10.259  0.6267  0.5063 -0.0562
56441SOL    HW176373   6.622   3.113  10.297 -2.3664 -1.3371 -0.9921
56441SOL    HW276374   6.524   3.225  10.323 -2.0164 -0.8298 -1.8331
56442SOL     OW76375   0.480   2.383   6.345 -0.0913 -0.1215  0.3744
56442SOL    HW176376   0.390   2.368   6.316  0.0018 -1.8237  0.8527
56442SOL    HW276377   0.516   2.443   6.280 -0.7237 -1.6543 -1.4896
56443SOL     OW76378   9.830   1.484   8.328 -0.3687 -0.6379  0.0185
56443SOL    HW176379   9.883   1.426   8.272  1.3074 -0.0671  0.9341
56443SOL    HW276380   9.861   1.466   8.417  1.6194  2.9226  0.2075
56444SOL     OW76381   7.655   3.693   9.763 -0.0212  0.4373  0.4099
56444SOL    HW176382   7.667   3.785   9.738  0.6939  0.0433 -0.7321
56444SOL    HW276383   7.721   3.678   9.831  0.9703  0.3322 -0.5575
56445SOL     OW76384  12.131   6.620   6.528  0.3171 -0.6399 -0.4507
56445SOL    HW176385  12.079   6.700   6.528 -0.0514 -0.8821  0.0498
56445SOL    HW276386  12.222   6.651   6.524  0.1546 -0.2188 -1.3505
56446SOL     OW76387  11.335   3.161   5.686  0.6942  0.6152 -0.5590
56446SOL    HW176388  11.314   3.084   5.739  3.6890 -0.0484 -0.1446
56446SOL    HW276389  11.271   3.227   5.713 -1.7530 -1.5418 -0.6619
56447SOL     OW76390   9.416   0.521   8.414 -0.2312  0.0436 -0.4925
56447SOL    HW176391   9.386   0.536   8.504  0.3950  0.1244 -0.2894
56447SOL    HW276392   9.345   0.554   8.359 -0.4951  0.2591 -0.0296
56448SOL     OW76393  10.140  10.332   7.674  0.2986  0.6787 -0.4507
56448SOL    HW176394  10.084  10.376   7.610 -0.9710  1.8370  1.3443
56448SOL    HW276395  10.129  10.383   7.754 -0.7052 -2.4910  1.6192
56449SOL     OW76396   7.868   4.406   3.502 -0.0565 -0.0669  0.7161
56449SOL    HW176397   7.802   4.471   3.527 -0.7564 -0.4307 -0.1468
56449SOL    HW276398   7.832   4.322   3.529 -1.0546 -0.5310 -1.8156
56450SOL     OW76399   8.911   5.706  12.215 -0.0508 -0.2970 -0.1504
56450SOL    HW176400   8.850   5.669  12.151 -0.0337 -1.6220  0.5837
56450SOL    HW276401   8.897   5.655  12.295  0.7522  0.5667  0.5662
56451SOL     OW76402  10.976   5.291   9.453 -0.2705  0.2762  0.1576
56451SOL    HW176403  10.925   5.306   9.373 -0.7276 -1.1007  0.1651
56451SOL    HW276404  10.928   5.337   9.521 -0.6358  0.3202 -0.1232
56452SOL     OW76405   1.565  10.363  10.442  0.3683 -0.3652  0.3009
56452SOL    HW176406   1.652  10.392  10.415 -0.7035  0.3368 -2.8224
56452SOL    HW276407   1.554  10.277  10.401  0.4628 -1.6290  2.7738
56453SOL     OW76408  10.123   8.198  11.215  0.3521 -0.0254  0.0726
56453SOL    HW176409  10.081   8.275  11.254 -0.1214  0.1500 -0.7624
56453SOL    HW276410  10.185   8.234  11.151  0.4381 -0.3301 -0.0186
56454SOL     OW76411   0.643   6.521   4.268  0.4749 -0.0873  0.0409
56454SOL    HW176412   0.652   6.462   4.343  0.8915 -0.5622 -0.3721
56454SOL    HW276413   0.635   6.462   4.193 -0.4099  0.3772 -0.2379
56455SOL     OW76414  11.220   6.696   1.470  0.2235  0.3428 -0.0856
56455SOL    HW176415  11.260   6.782   1.482  0.4054  0.4786 -1.4618
56455SOL    HW276416  11.178   6.676   1.554  0.2913  1.7126  0.2903
56456SOL     OW76417   9.427   2.478   1.176 -0.6620 -0.0900  0.0634
56456SOL    HW176418   9.423   2.455   1.083 -2.1141 -1.7092  0.4643
56456SOL    HW276419   9.384   2.405   1.221 -0.2993  0.8046  1.9935
56457SOL     OW76420   8.333   3.777   4.783 -0.0765  0.2700 -0.4034
56457SOL    HW176421   8.300   3.829   4.856  0.8798  0.3095  0.0209
56457SOL    HW276422   8.386   3.709   4.824 -0.3731 -0.3427 -1.0183
56458SOL     OW76423  12.205   9.991   8.883  0.0545 -0.0902  0.5447
56458SOL    HW176424  12.166  10.027   8.963  0.5618 -0.6190  1.0433
56458SOL    HW276425  12.222   9.899   8.904  1.1700  0.0229  0.2027
56459SOL     OW76426   6.775   3.619  10.464 -0.1848 -0.2666 -0.8682
56459SOL    HW176427   6.820   3.569  10.397  0.9782  1.6945 -1.6315
56459SOL    HW276428   6.845   3.655  10.519 -0.9793  0.3968 -0.2581
56460SOL     OW76429   9.410   5.377   2.467 -0.2676  0.0322  0.0673
56460SOL    HW176430   9.321   5.411   2.461 -0.2065 -0.0047 -1.6006
56460SOL    HW276431   9.400   5.289   2.503 -0.8884  0.0804  0.0181
56461SOL     OW76432   0.491  11.038   6.018 -1.5272  0.0345  0.0354
56461SOL    HW176433   0.509  11.043   5.925 -0.8202  0.0822  0.1723
56461SOL    HW276434   0.436  10.960   6.027 -0.6053 -0.6796 -0.2835
56462SOL     OW76435   6.920  11.508   8.385 -0.1816 -0.2063  0.3430
56462SOL    HW176436   7.002  11.549   8.413  0.5879  0.3829 -2.4319
56462SOL    HW276437   6.852  11.570   8.412  0.6286  1.0546 -0.3637
56463SOL     OW76438   0.660   3.201   2.680 -0.1071 -0.0252  0.0443
56463SOL    HW176439   0.631   3.128   2.625  0.6319 -0.5799  0.3618
56463SOL    HW276440   0.585   3.219   2.737 -0.3983 -0.3546 -0.2280
56464SOL     OW76441   1.845   0.653   4.222  0.2554 -0.4598  0.4181
56464SOL    HW176442   1.767   0.612   4.185  1.4937 -2.6844  0.0966
56464SOL    HW276443   1.888   0.693   4.146 -0.2483  0.2261  0.4900
56465SOL     OW76444   8.993   3.437   8.587 -0.1600 -0.0851  0.5312
56465SOL    HW176445   8.971   3.359   8.535  1.2362 -0.9837  1.2043
56465SOL    HW276446   9.011   3.505   8.522 -0.6246 -0.5513 -0.0923
56466SOL     OW76447   2.101   2.932   7.662 -0.2387 -0.5702 -0.1729
56466SOL    HW176448   2.191   2.959   7.680 -0.4756 -0.3445  0.6957
56466SOL    HW276449   2.081   2.970   7.576  0.6600 -1.0484 -0.6069
56467SOL     OW76450  10.708   5.721  10.317  0.7104  0.3390  0.5271
56467SOL    HW176451  10.762   5.659  10.268 -0.0861 -0.5016  0.6878
56467SOL    HW276452  10.742   5.807  10.293  0.2284 -0.0196 -1.6930
56468SOL     OW76453   4.450  10.676  12.075  0.7097  0.0955  0.1418
56468SOL    HW176454   4.392  10.725  12.134 -0.7753 -1.4941  0.0611
56468SOL    HW276455   4.528  10.659  12.128  0.5108  1.0127  0.7462
56469SOL     OW76456   3.785  11.687  11.421 -0.6828  1.2263  0.0862
56469SOL    HW176457   3.836  11.729  11.352  1.5312 -0.4928  0.5629
56469SOL    HW276458   3.716  11.639  11.375 -0.6427  1.9393 -0.7353
56470SOL     OW76459  12.412   4.764   1.212  0.7336  0.3062  0.2839
56470SOL    HW176460  12.441   4.678   1.180  0.1043  0.4235 -0.6369
56470SOL    HW276461  12.443   4.826   1.147  1.5956  0.8578  1.1844
56471SOL     OW76462   4.362   9.280  11.161  0.4078  0.8429  0.2463
56471SOL    HW176463   4.301   9.341  11.118  1.1400  0.3521 -1.5713
56471SOL    HW276464   4.348   9.294  11.254 -4.4813 -1.0798  0.1194
56472SOL     OW76465   7.657   3.787   7.329 -0.2328  0.1725  0.2517
56472SOL    HW176466   7.737   3.833   7.302  0.2167 -0.3985  0.5835
56472SOL    HW276467   7.678   3.752   7.416  0.4008 -2.9091 -1.0346
56473SOL     OW76468   4.308   0.189  12.028 -0.2235 -0.2459 -0.1070
56473SOL    HW176469   4.310   0.100  11.992 -0.9675 -0.5477  0.5573
56473SOL    HW276470   4.248   0.236  11.971 -1.8910 -0.8878  1.0230
56474SOL     OW76471  10.692   8.424   2.815  0.0552  0.0174  0.6800
56474SOL    HW176472  10.637   8.345   2.810 -0.0014  0.0027  1.4890
56474SOL    HW276473  10.702   8.441   2.908  1.9869 -0.3639  0.5973
56475SOL     OW76474   2.622   9.968   8.412  0.6889  0.3875 -0.3844
56475SOL    HW176475   2.698   9.918   8.382  0.9796 -0.0542  1.0212
56475SOL    HW276476   2.553   9.946   8.349  1.4318 -0.0281 -1.0742
56476SOL     OW76477  12.391   6.144   7.285  0.0345  0.3709  0.0042
56476SOL    HW176478  12.380   6.088   7.208 -2.2101 -1.3404  1.4454
56476SOL    HW276479  12.416   6.084   7.355  1.3423  1.7897  0.7988
56477SOL     OW76480   4.853   5.405   8.644 -0.5183 -0.6079 -0.0359
56477SOL    HW176481   4.803   5.476   8.683 -0.1349  0.2109 -0.9774
56477SOL    HW276482   4.803   5.326   8.664 -0.9890 -0.0724  0.9616
56478SOL     OW76483  12.093   8.699   4.568 -0.0320  0.0311 -0.0406
56478SOL    HW176484  12.180   8.738   4.571  0.4873 -1.0810  2.6730
56478SOL    HW276485  12.080   8.663   4.656 -3.3970  0.4703 -0.2184
56479SOL     OW76486   4.497  12.199   2.338  0.6373  0.0479  0.0466
56479SOL    HW176487   4.573  12.144   2.317  1.3897  0.3878  1.6898
56479SOL    HW276488   4.487  12.189   2.433 -2.3190 -1.1402 -0.3013
56480SOL     OW76489   0.013   1.702   2.509  0.1600 -0.3092 -0.2696
56480SOL    HW176490  -0.054   1.706   2.441  0.1759 -1.3345 -0.3494
56480SOL    HW276491  -0.035   1.715   2.591 -0.1763 -1.2655 -0.3080
56481SOL     OW76492   7.798   8.363   2.488 -0.9554  0.1457 -0.2490
56481SOL    HW176493   7.860   8.356   2.560 -0.1659 -0.0258 -0.9375
56481SOL    HW276494   7.716   8.391   2.530 -0.1812  1.2900  0.5459
56482SOL     OW76495   9.391   9.464   5.913 -0.2108 -0.7751 -0.1620
56482SOL    HW176496   9.385   9.394   5.849 -0.7942 -0.4158 -0.5136
56482SOL    HW276497   9.303   9.471   5.949 -0.4573  0.5132 -0.9415
56483SOL     OW76498   5.543  12.078   2.756 -0.9384  0.0371 -0.2974
56483SOL    HW176499   5.465  12.030   2.728 -0.1077 -1.6815  0.1479
56483SOL    HW276500   5.606  12.009   2.777  0.8957  1.3648 -1.1795
56484SOL     OW76501   6.958   9.437   8.124 -0.1483  0.9923 -0.2338
56484SOL    HW176502   6.963   9.516   8.178  0.0102  0.7465  0.1174
56484SOL    HW276503   6.947   9.470   8.035  0.2527  1.4205 -0.1355
56485SOL     OW76504   2.859   2.306   6.927  0.4339  0.6496 -0.1071
56485SOL    HW176505   2.839   2.295   7.020  1.7115  0.6422  0.1818
56485SOL    HW276506   2.874   2.217   6.895 -0.0296  0.6495 -0.3322
56486SOL     OW76507  11.641  11.025  11.953  0.4406 -0.3825  0.5567
56486SOL    HW176508  11.654  11.120  11.953 -0.9058 -0.1853  0.3523
56486SOL    HW276509  11.730  10.989  11.959  0.9805  0.8796  0.4442
56487SOL     OW76510  11.463  11.410  12.446 -0.4922 -0.3493  0.6031
56487SOL    HW176511  11.438  11.465  12.520  0.7649 -0.2507  0.9813
56487SOL    HW276512  11.559  11.417  12.442 -0.4417 -1.2727 -0.3126
56488SOL     OW76513   3.891   0.768  12.595  0.3785 -0.0773  0.3897
56488SOL    HW176514   3.819   0.732  12.544  2.2294 -0.0070 -2.5062
56488SOL    HW276515   3.859   0.768  12.685 -4.0421  1.9389 -0.8979
56489SOL     OW76516   3.010  11.873  12.432  0.1975  0.3601 -0.3146
56489SOL    HW176517   3.046  11.911  12.512  0.7620 -2.1709  0.7334
56489SOL    HW276518   2.945  11.937  12.402  1.0478  2.0777  1.3020
56490SOL     OW76519   7.915  11.085   5.162  0.2367 -0.2737 -0.2053
56490SOL    HW176520   7.986  11.027   5.190 -0.6579 -1.8265 -0.9851
56490SOL    HW276521   7.952  11.135   5.090  0.9502 -0.0641  0.3010
56491SOL     OW76522   7.166   3.498   4.828  0.1788 -0.3779  0.5827
56491SOL    HW176523   7.183   3.584   4.791  0.0027  0.2689  1.9236
56491SOL    HW276524   7.078   3.476   4.799  1.1745 -1.3628 -1.9940
56492SOL     OW76525   7.340   8.487   4.236  0.1006  0.6601 -0.4605
56492SOL    HW176526   7.341   8.462   4.144 -2.2637  2.2274 -1.0051
56492SOL    HW276527   7.401   8.560   4.241  0.7282  0.1540 -0.6330
56493SOL     OW76528   2.259   7.921   4.006 -0.6534 -0.3147 -0.2428
56493SOL    HW176529   2.239   7.990   3.943  1.0691 -0.4741 -1.0161
56493SOL    HW276530   2.344   7.945   4.042 -1.0578 -0.8752  1.1401
56494SOL     OW76531   5.010   6.561   2.991  0.6095 -0.1288  0.3961
56494SOL    HW176532   4.922   6.525   2.983 -0.3853  2.3094 -0.5797
56494SOL    HW276533   5.003   6.628   3.060  2.1928 -1.1637  1.6347
56495SOL     OW76534  10.393   7.922   5.263 -0.4239  0.8275 -1.0025
56495SOL    HW176535  10.394   7.833   5.225 -0.3736  0.9147 -1.2091
56495SOL    HW276536  10.385   7.980   5.187  1.3077  1.0789 -1.0483
56496SOL     OW76537   4.427  10.779  11.427 -0.6133  0.9008  0.7787
56496SOL    HW176538   4.499  10.775  11.365 -0.7530  3.5975  0.3274
56496SOL    HW276539   4.416  10.689  11.457  0.7987 -0.1260 -1.5379
56497SOL     OW76540   3.439   1.328   5.924 -0.5483 -0.0640 -0.6727
56497SOL    HW176541   3.464   1.303   5.835  1.0145  1.9258 -0.8705
56497SOL    HW276542   3.354   1.287   5.938 -0.2460 -1.4723 -2.5930
56498SOL     OW76543  12.191   9.901   1.575 -0.4260  0.0525  0.0907
56498SOL    HW176544  12.194   9.808   1.552  1.7037  0.5118 -1.8363
56498SOL    HW276545  12.277   9.934   1.552 -0.9473  2.4225  1.2855
56499SOL     OW76546   3.439   3.108  10.452  0.2545 -0.6250  0.7310
56499SOL    HW176547   3.408   3.108  10.543  2.5880 -1.3978  1.6084
56499SOL    HW276548   3.386   3.040  10.410  0.7804 -2.0455  2.2086
56500SOL     OW76549   7.160   4.916   2.140 -0.0833 -0.2855 -0.4800
56500SOL    HW176550   7.148   4.829   2.101  1.2165  0.4332 -2.6806
56500SOL    HW276551   7.099   4.918   2.213 -1.3545 -2.4469 -1.3789
56501SOL     OW76552   9.790  11.694   8.843 -0.3607  0.3343 -0.1006
56501SOL    HW176553   9.747  11.610   8.861 -0.6885  0.7340  1.0048
56501SOL    HW276554   9.777  11.707   8.749  0.1066 -1.0796 -0.3932
56502SOL     OW76555   6.059  11.424   9.184  0.0597  0.6227 -0.3687
56502SOL    HW176556   5.969  11.394   9.169  0.1180  0.0447  0.3430
56502SOL    HW276557   6.072  11.495   9.122 -0.7108  0.3542 -0.8485
56503SOL     OW76558  11.628   6.402   5.697 -0.2789 -0.2078 -0.4629
56503SOL    HW176559  11.563   6.464   5.732 -1.5461 -1.3188 -0.7644
56503SOL    HW276560  11.627   6.329   5.759 -0.5178 -0.9581 -1.3252
56504SOL     OW76561  11.254   3.518   2.042  0.2475 -1.0032  0.4287
56504SOL    HW176562  11.307   3.518   2.122 -1.0781 -1.3837  1.3479
56504SOL    HW276563  11.195   3.593   2.053  0.1671 -0.9627 -0.2708
56505SOL     OW76564   2.759  10.236   1.200 -0.3643  0.1018 -0.5793
56505SOL    HW176565   2.824  10.212   1.134 -0.9486 -0.1566 -1.0729
56505SOL    HW276566   2.688  10.174   1.187  0.0325 -0.7481  1.1285
56506SOL     OW76567   1.773   9.243   3.101  0.2195  0.1192 -0.4365
56506SOL    HW176568   1.733   9.179   3.159  1.1028 -0.4548 -0.4415
56506SOL    HW276569   1.855   9.202   3.073  0.8251  1.2585 -0.4049
56507SOL     OW76570   9.035   8.009   1.825  0.1900  0.2096  0.4436
56507SOL    HW176571   9.127   7.989   1.809  0.0665  0.6272 -0.9559
56507SOL    HW276572   9.005   7.940   1.884  0.7172 -1.6042 -1.2910
56508SOL     OW76573   4.402   3.669   8.836  0.0811 -0.4000 -0.2012
56508SOL    HW176574   4.357   3.663   8.752  0.6623 -1.4358 -0.4650
56508SOL    HW276575   4.391   3.582   8.875 -0.7265  0.2530  1.0984
56509SOL     OW76576   8.377   9.452   9.990  0.3812  0.2343 -0.3826
56509SOL    HW176577   8.345   9.461  10.080  0.1983  2.3298 -0.6011
56509SOL    HW276578   8.318   9.387   9.950  0.9624 -1.3240  1.1874
56510SOL     OW76579  11.204   4.820   3.930  0.4964 -0.0001  0.3417
56510SOL    HW176580  11.243   4.889   3.876  0.2659  1.2142  1.6617
56510SOL    HW276581  11.171   4.866   4.008  1.9290 -1.8058  2.1339
56511SOL     OW76582  10.445   4.173  12.231 -0.0656  0.2404 -0.1923
56511SOL    HW176583  10.488   4.146  12.149  1.4476 -0.8025  0.8993
56511SOL    HW276584  10.363   4.125  12.232  1.3388 -2.3406  0.3835
56512SOL     OW76585   1.522   7.573   2.018 -0.4235  0.5163  0.2537
56512SOL    HW176586   1.548   7.621   1.939  1.8097  0.1499  0.7266
56512SOL    HW276587   1.495   7.487   1.986 -2.6793  1.3842 -0.3979
56513SOL     OW76588   1.138   3.318   8.134 -0.0161 -0.0947  0.0400
56513SOL    HW176589   1.068   3.287   8.190 -0.3387 -0.9041 -0.7856
56513SOL    HW276590   1.204   3.353   8.194 -0.1851 -1.2741  0.9345
56514SOL     OW76591   5.256   3.421   9.042 -0.1904  0.1821  0.1120
56514SOL    HW176592   5.270   3.352   9.107 -1.4715  0.2402  0.4767
56514SOL    HW276593   5.251   3.502   9.093 -1.2186  0.2272 -0.0317
56515SOL     OW76594  11.658  10.626   0.859 -0.2141 -0.3121  0.0308
56515SOL    HW176595  11.718  10.635   0.933 -0.0377 -2.0743  0.1452
56515SOL    HW276596  11.665  10.709   0.812 -0.9676  1.1989  2.4134
56516SOL     OW76597   0.939  10.453   8.662  0.2405 -0.4282  0.2587
56516SOL    HW176598   1.031  10.436   8.640  0.2980  0.5122 -0.3260
56516SOL    HW276599   0.894  10.371   8.643  0.5184 -0.1024 -2.1879
56517SOL     OW76600   5.175   7.932   1.326 -0.5681  0.4489 -0.2110
56517SOL    HW176601   5.120   7.903   1.398 -0.0348  1.6461  0.7079
56517SOL    HW276602   5.129   7.903   1.247 -0.4769 -2.1073  0.5776
56518SOL     OW76603   2.262   2.481   0.850  0.0313  0.1549  0.2541
56518SOL    HW176604   2.186   2.486   0.792 -1.1508 -0.0337  1.7046
56518SOL    HW276605   2.319   2.415   0.811 -1.6452 -1.3855  0.3101
56519SOL     OW76606   9.781   9.325   5.928 -0.3326 -0.0972  0.2711
56519SOL    HW176607   9.713   9.265   5.959  1.0931 -1.6227  0.6178
56519SOL    HW276608   9.840   9.270   5.877  2.7808  0.2017  3.1891
56520SOL     OW76609  11.744   2.272   7.394 -0.4110 -0.1166 -0.1545
56520SOL    HW176610  11.748   2.290   7.488 -0.3742  0.7407 -0.3096
56520SOL    HW276611  11.834   2.288   7.364 -0.5148 -0.0031 -0.3997
56521SOL     OW76612   5.274   7.249   9.542 -0.5413  0.3029 -0.2797
56521SOL    HW176613   5.235   7.307   9.477 -1.2597 -0.6345 -0.7145
56521SOL    HW276614   5.368   7.263   9.534 -0.7133  1.6992 -0.0763
56522SOL     OW76615   5.296   6.616   4.546 -0.3353  0.3415  0.3198
56522SOL    HW176616   5.353   6.541   4.534 -0.5716  0.4821 -2.2737
56522SOL    HW276617   5.353   6.684   4.583 -0.1380 -1.0233  2.7587
56523SOL     OW76618  10.519  11.095  10.208  0.2424  0.2471 -0.5728
56523SOL    HW176619  10.469  11.042  10.146  0.8910 -0.9377 -0.1217
56523SOL    HW276620  10.600  11.116  10.162  0.7908 -0.7616 -0.1073
56524SOL     OW76621   4.156   3.561  11.416  0.2080 -0.4498 -0.0701
56524SOL    HW176622   4.123   3.649  11.432 -0.1231 -0.7742  1.1478
56524SOL    HW276623   4.083   3.503  11.438  1.4837 -1.1828  2.7488
56525SOL     OW76624   3.181   6.557   8.858  0.1691  0.0768  0.3322
56525SOL    HW176625   3.099   6.559   8.808 -0.0046  0.4830  0.6333
56525SOL    HW276626   3.241   6.507   8.802 -0.2943 -0.2647  0.1290
56526SOL     OW76627   0.816   7.033   4.723 -0.0211  0.2398 -0.3145
56526SOL    HW176628   0.753   6.965   4.743 -0.8714  0.8247 -0.9490
56526SOL    HW276629   0.814   7.092   4.799 -0.3276  0.3260 -0.3910
56527SOL     OW76630   1.177   9.759   5.969 -0.5691 -0.0105  0.2063
56527SOL    HW176631   1.267   9.766   6.001 -0.0687 -0.2157 -1.1100
56527SOL    HW276632   1.133   9.707   6.036  0.4561 -0.4869  0.5366
56528SOL     OW76633   2.667   2.653   3.428  0.1209  0.1018 -0.0041
56528SOL    HW176634   2.640   2.561   3.416  1.1247 -0.3068  0.7208
56528SOL    HW276635   2.587   2.698   3.454 -0.2523 -0.7032  0.2901
56529SOL     OW76636   2.450   2.636  10.589  0.5489  0.8227  0.3917
56529SOL    HW176637   2.450   2.731  10.593  2.0868  0.8414  0.6062
56529SOL    HW276638   2.421   2.608  10.676  1.0520  1.1102  0.6553
56530SOL     OW76639  10.195   4.824  10.833  0.4969  0.0948  0.2693
56530SOL    HW176640  10.145   4.899  10.804  0.2574  0.1620  0.8397
56530SOL    HW276641  10.146   4.789  10.908  0.9964 -0.1787  0.4770
56531SOL     OW76642   3.178   4.446   2.946  0.2591 -0.1567 -0.1171
56531SOL    HW176643   3.091   4.433   2.909  0.6882 -0.2187 -1.1205
56531SOL    HW276644   3.191   4.541   2.945 -0.0883 -0.0878  0.7452
56532SOL     OW76645   8.907   1.666   8.305 -0.1693  0.1842 -0.5185
56532SOL    HW176646   8.900   1.634   8.395 -0.9262  1.5360 -0.0723
56532SOL    HW276647   8.817   1.685   8.278 -0.1634 -1.8199 -2.2147
56533SOL     OW76648   6.470   6.384   4.745  0.3981  0.3632 -0.4188
56533SOL    HW176649   6.465   6.376   4.840  1.2643 -1.2261 -0.4556
56533SOL    HW276650   6.562   6.404   4.728  0.6062 -0.9270 -0.9611
56534SOL     OW76651  12.521   5.997  10.025  0.0607 -0.1855  0.4017
56534SOL    HW176652  12.489   5.908  10.035  3.6442 -1.6734 -0.1080
56534SOL    HW276653  12.454   6.040   9.972 -1.1492 -2.9619 -0.5012
56535SOL     OW76654   6.803   7.547   2.216  0.5802 -0.2285  0.0149
56535SOL    HW176655   6.851   7.511   2.291 -0.2539 -1.2302  0.0796
56535SOL    HW276656   6.864   7.539   2.143  0.5864 -1.3172  0.1329
56536SOL     OW76657   2.759   0.895   9.287  0.1812 -0.5421 -0.8349
56536SOL    HW176658   2.811   0.879   9.208 -0.9388 -1.1998 -1.4530
56536SOL    HW276659   2.689   0.954   9.258 -0.2211 -0.7643 -0.3174
56537SOL     OW76660   0.281   2.988  12.196  0.6999  1.1692  0.0448
56537SOL    HW176661   0.199   3.015  12.154  0.1990 -0.7159 -0.2912
56537SOL    HW276662   0.343   2.978  12.124  0.2940 -0.4803 -0.1254
56538SOL     OW76663   2.881   6.755   5.961 -0.4140 -0.0923  0.3214
56538SOL    HW176664   2.975   6.753   5.943 -0.3218  0.5302  0.6970
56538SOL    HW276665   2.867   6.683   6.022 -0.4453 -1.1474 -0.8937
56539SOL     OW76666  10.201  12.120   4.349 -0.4575  0.3317 -0.4218
56539SOL    HW176667  10.131  12.129   4.284 -1.8971 -1.7315  0.7228
56539SOL    HW276668  10.163  12.157   4.429 -1.3134 -2.9562  0.8429
56540SOL     OW76669   1.044   7.976   7.041 -0.1090  0.2097  0.0732
56540SOL    HW176670   1.073   7.933   7.121  0.7997  0.8389  0.1014
56540SOL    HW276671   0.954   7.945   7.028 -1.1245  1.8417  2.5524
56541SOL     OW76672   0.045  12.311   4.877 -0.0282 -0.2334 -0.0430
56541SOL    HW176673   0.101  12.363   4.820 -2.3691  0.8039 -1.5650
56541SOL    HW276674  -0.013  12.375   4.919  0.4807 -1.1559  2.2467
56542SOL     OW76675   4.951  10.186  10.816 -0.0030  0.2935  0.1927
56542SOL    HW176676   4.994  10.261  10.775 -0.4010  0.1533 -0.5103
56542SOL    HW276677   5.008  10.112  10.794 -0.1801  0.2283 -0.0505
56543SOL     OW76678   8.882   6.694   4.354  0.1405  0.3321  0.3125
56543SOL    HW176679   8.968   6.733   4.343 -0.5648  1.5618 -1.2384
56543SOL    HW276680   8.821   6.768   4.352 -1.1176 -0.6779 -1.0226
56544SOL     OW76681  11.246   5.124   0.921 -0.0060 -0.4621 -0.1450
56544SOL    HW176682  11.239   5.167   0.835  1.1006 -1.3046 -0.6815
56544SOL    HW276683  11.257   5.031   0.900  2.3675 -0.4683  0.8161
56545SOL     OW76684   0.456   3.184   0.266  0.1668 -0.7257  0.8262
56545SOL    HW176685   0.548   3.190   0.241  0.1395  1.8740  1.1352
56545SOL    HW276686   0.457   3.153   0.357  0.8331  0.3262  1.1963
56546SOL     OW76687   3.591   1.988   6.414 -0.0789  0.1449  0.3859
56546SOL    HW176688   3.573   1.918   6.477  1.5881 -1.0046 -0.3595
56546SOL    HW276689   3.512   1.992   6.359 -1.7257  1.3913  2.6298
56547SOL     OW76690  10.755   0.583   6.555  0.1324  0.0466 -0.5323
56547SOL    HW176691  10.761   0.633   6.637 -2.6853 -0.2036 -0.0882
56547SOL    HW276692  10.783   0.645   6.487 -1.9687  1.8955  0.1611
56548SOL     OW76693   1.173   7.879   3.535  0.1459  0.1656 -0.8033
56548SOL    HW176694   1.222   7.798   3.524  1.5690  0.1909  3.5831
56548SOL    HW276695   1.087   7.851   3.567 -0.6369  0.3847 -2.5611
56549SOL     OW76696  11.144   9.986   6.164  0.3363 -0.1958  0.8869
56549SOL    HW176697  11.065   9.991   6.219 -0.1641 -0.5727  0.2249
56549SOL    HW276698  11.186   9.905   6.190  0.4631 -0.0389  1.1788
56550SOL     OW76699   2.050   3.064   3.539 -0.3610  0.1948  0.3158
56550SOL    HW176700   2.057   3.084   3.445  0.5018  0.3364  0.4110
56550SOL    HW276701   2.020   3.146   3.578  0.6218  0.5487  0.3462
56551SOL     OW76702   6.588   4.394   1.405 -0.5111  0.4195 -0.5483
56551SOL    HW176703   6.576   4.402   1.500  0.1565  0.2398 -0.4412
56551SOL    HW276704   6.574   4.301   1.386  0.1831  0.2932 -0.4891
56552SOL     OW76705   1.459   0.482  10.468  0.1507  0.0781  0.0952
56552SOL    HW176706   1.366   0.504  10.473  0.2189  0.7875 -1.3004
56552SOL    HW276707   1.504   0.559  10.503  0.2408  0.3161 -0.5254
56553SOL     OW76708   6.520   0.139   9.768 -0.4783  0.3601 -0.7078
56553SOL    HW176709   6.449   0.093   9.723 -0.6455  0.6773 -0.7686
56553SOL    HW276710   6.561   0.193   9.700 -0.1372  0.1295 -0.6879
56554SOL     OW76711   1.927  10.308   4.081  0.3177 -0.4017 -0.5902
56554SOL    HW176712   1.971  10.322   3.998  1.4988  1.1946  0.2481
56554SOL    HW276713   1.909  10.214   4.083  0.0441 -0.4446 -2.7138
56555SOL     OW76714   0.245   4.768   2.628 -0.0552  0.2973  0.0235
56555SOL    HW176715   0.222   4.703   2.561 -0.8710 -1.7679  2.1547
56555SOL    HW276716   0.336   4.791   2.610  0.1823 -1.2858 -0.9701
56556SOL     OW76717  10.602   5.260   3.517  0.5631 -0.5194 -0.5472
56556SOL    HW176718  10.517   5.300   3.499  0.2984  1.4640  3.7958
56556SOL    HW276719  10.581   5.176   3.556  0.8560 -1.7470 -2.8845
56557SOL     OW76720   9.017  11.663   0.848  0.1971  0.2627  0.2702
56557SOL    HW176721   9.056  11.606   0.781 -0.4383  1.2448 -0.9994
56557SOL    HW276722   8.963  11.604   0.901 -1.5107 -0.1980 -1.8311
56558SOL     OW76723   6.598   3.283   5.586 -0.2433  0.2406 -0.0115
56558SOL    HW176724   6.512   3.243   5.589 -0.6976  0.7497 -2.8515
56558SOL    HW276725   6.598   3.334   5.504  2.2626  1.3799  0.5868
56559SOL     OW76726  11.215   2.873   3.213 -0.2613 -0.1886 -0.0277
56559SOL    HW176727  11.290   2.829   3.252  1.3230  1.3154 -1.2070
56559SOL    HW276728  11.140   2.817   3.234  1.1111 -1.5383  1.5336
56560SOL     OW76729   1.302   3.968   4.386 -0.3283  0.5074 -0.6839
56560SOL    HW176730   1.367   3.931   4.327  0.3361  0.4223  0.0944
56560SOL    HW276731   1.328   3.939   4.473 -1.8057 -0.1236 -0.4123
56561SOL     OW76732   4.523  11.732   3.257 -0.3863 -0.0862  0.5473
56561SOL    HW176733   4.523  11.654   3.202 -0.2692 -0.4315  1.0276
56561SOL    HW276734   4.594  11.786   3.222  0.2174 -0.6647  0.8571
56562SOL     OW76735   5.840   2.198  11.394  0.3859  0.9684  0.3679
56562SOL    HW176736   5.803   2.157  11.316 -1.6994  2.3762  0.5283
56562SOL    HW276737   5.913   2.142  11.418 -0.6086 -1.0579 -1.0078
56563SOL     OW76738   7.057   8.217  11.654 -0.4573  0.1629 -0.0121
56563SOL    HW176739   7.110   8.286  11.614  0.1191 -0.0498  0.3709
56563SOL    HW276740   6.987   8.265  11.700  0.2478  0.5315  0.7059
56564SOL     OW76741   8.841   6.667   7.905 -0.2515  0.0399  0.3529
56564SOL    HW176742   8.840   6.571   7.905  0.8060  0.0131  0.2516
56564SOL    HW276743   8.920   6.690   7.955 -0.5657  0.8573  0.4837
56565SOL     OW76744   4.775   6.260  12.483 -0.5639  0.0641  0.5122
56565SOL    HW176745   4.867   6.262  12.508 -0.5571 -0.8705  0.5877
56565SOL    HW276746   4.727   6.248  12.565 -0.7335  0.2446  0.4412
56566SOL     OW76747   4.572   6.351  11.863  0.3869  0.1867  0.1145
56566SOL    HW176748   4.639   6.363  11.931 -0.3000 -0.5471  0.9453
56566SOL    HW276749   4.501   6.304  11.908 -0.9816  1.5343 -0.5756
56567SOL     OW76750   0.462  10.107   0.485  0.1554 -0.8625 -0.3245
56567SOL    HW176751   0.526  10.176   0.504 -1.4266  0.2529  1.2580
56567SOL    HW276752   0.474  10.044   0.557 -0.3421 -0.7727 -0.1602
56568SOL     OW76753   8.033   2.419   4.419  0.5838  0.3123 -0.2673
56568SOL    HW176754   7.946   2.432   4.458  0.0400  0.9233 -1.6256
56568SOL    HW276755   8.094   2.452   4.486 -0.2315  0.1420  0.5823
56569SOL     OW76756  12.365  10.954   0.151  0.5520 -0.3065  0.0069
56569SOL    HW176757  12.328  11.027   0.200 -1.0318 -0.2004 -1.2621
56569SOL    HW276758  12.305  10.881   0.166  1.3537 -0.9522  0.1327
56570SOL     OW76759  10.265   4.196   6.178  0.0171 -0.2672 -0.1656
56570SOL    HW176760  10.218   4.258   6.122  0.4348  0.4256  0.2363
56570SOL    HW276761  10.199   4.131   6.201  0.1483 -1.3418 -2.5442
56571SOL     OW76762   7.051   8.942   7.903 -0.9102 -0.0047  0.5539
56571SOL    HW176763   7.011   8.997   7.835  1.2597  0.3631 -0.5036
56571SOL    HW276764   7.138   8.980   7.917 -0.5263 -1.3287  2.0597
56572SOL     OW76765   7.527   7.315   6.198 -0.5763 -0.0445  0.2548
56572SOL    HW176766   7.621   7.312   6.212 -0.5193 -1.3725 -0.2283
56572SOL    HW276767   7.490   7.271   6.275 -0.7802  0.2399  0.3193
56573SOL     OW76768   5.640   3.755   5.427 -0.3049  0.2695 -0.6141
56573SOL    HW176769   5.691   3.827   5.390  0.1491  0.9594  1.2303
56573SOL    HW276770   5.706   3.689   5.450 -0.4387  0.3344 -0.0298
56574SOL     OW76771   7.235   6.783  10.754  0.3680  0.2788 -0.1795
56574SOL    HW176772   7.274   6.760  10.839  3.7195 -0.0444 -1.6541
56574SOL    HW276773   7.208   6.874  10.764 -0.0249  0.0289  1.4341
56575SOL     OW76774   5.340  10.746  12.211 -0.2866 -0.0942 -0.7038
56575SOL    HW176775   5.435  10.733  12.218 -0.1805  1.3513  1.1649
56575SOL    HW276776   5.330  10.820  12.151  0.0440  2.1120  1.7809
56576SOL     OW76777   6.905  12.188   5.959  0.4336  0.1838  0.4745
56576SOL    HW176778   6.850  12.190   5.881 -0.9324 -1.0690  1.3399
56576SOL    HW276779   6.860  12.246   6.021  1.7906  1.5903  0.1992
56577SOL     OW76780   9.109   2.198   1.612  0.0648  0.0510  0.0748
56577SOL    HW176781   9.015   2.181   1.621 -0.1039  1.6229  1.9025
56577SOL    HW276782   9.147   2.112   1.596 -1.6280 -0.6938 -0.2013
56578SOL     OW76783   3.564   1.104  12.329 -0.4967 -0.8212 -0.3530
56578SOL    HW176784   3.560   1.191  12.288 -1.1115 -1.3083 -1.3805
56578SOL    HW276785   3.494   1.105  12.394 -1.0235 -0.8039 -0.9107
56579SOL     OW76786   9.478   0.078   5.176  0.3504  0.0263  0.5955
56579SOL    HW176787   9.473   0.157   5.122  0.7441 -0.6501 -0.4649
56579SOL    HW276788   9.387   0.059   5.199  0.2904  1.0189  1.2254
56580SOL     OW76789   6.732   8.412   1.498  0.1493 -0.5423  0.1855
56580SOL    HW176790   6.824   8.404   1.523 -0.4973  0.5504  3.4968
56580SOL    HW276791   6.693   8.327   1.519 -0.3597  0.3261  3.2557
56581SOL     OW76792   6.099   8.274   2.898  0.0627  0.1621  0.4297
56581SOL    HW176793   6.145   8.279   2.982  1.0609 -0.2785 -0.0696
56581SOL    HW276794   6.102   8.363   2.863 -0.4598  0.3729  0.9012
56582SOL     OW76795   2.460   7.157   4.585  0.7534  0.4207  0.3027
56582SOL    HW176796   2.477   7.236   4.535 -1.1311  0.0253 -1.0651
56582SOL    HW276797   2.386   7.179   4.642 -1.0928 -0.8296 -1.4813
56583SOL     OW76798   7.668   8.422   2.894  0.5393  0.3709  0.0290
56583SOL    HW176799   7.679   8.425   2.989  0.1659 -0.9372  0.1242
56583SOL    HW276800   7.575   8.438   2.880  0.2695 -1.0750  0.0081
56584SOL     OW76801   9.397   0.331   3.173  0.0036 -0.0743 -0.2805
56584SOL    HW176802   9.319   0.312   3.121  0.1261  1.9116 -1.3048
56584SOL    HW276803   9.364   0.388   3.243 -0.2350 -3.0228  2.2066
56585SOL     OW76804   0.365   9.960   6.495  0.1465  0.5474  0.6404
56585SOL    HW176805   0.316  10.042   6.493 -1.0943 -0.1747  0.8530
56585SOL    HW276806   0.415   9.966   6.577 -1.5081  0.2308  1.7262
56586SOL     OW76807   7.954   4.378   4.141 -0.5454 -0.1575 -0.0009
56586SOL    HW176808   7.940   4.406   4.050  1.5458 -1.2556 -0.7267
56586SOL    HW276809   8.044   4.405   4.160 -0.8018 -0.3793  1.6007
56587SOL     OW76810   4.540   6.179   9.071  0.3232 -0.2680 -0.1058
56587SOL    HW176811   4.516   6.126   9.147 -2.3714  0.7719 -0.1077
56587SOL    HW276812   4.523   6.123   8.995 -1.0824  0.0406 -0.0497
56588SOL     OW76813  10.218   7.998   4.323  0.1678 -0.1951 -0.2566
56588SOL    HW176814  10.166   8.074   4.350 -0.4265 -0.3234 -0.9988
56588SOL    HW276815  10.159   7.924   4.333  0.5254 -0.4754 -0.1913
56589SOL     OW76816   6.485   0.860   1.120 -0.1065 -0.3143  0.0439
56589SOL    HW176817   6.480   0.865   1.024  0.5355 -1.0534 -0.0379
56589SOL    HW276818   6.577   0.878   1.140 -0.0949 -0.8240  0.4717
56590SOL     OW76819   3.581   7.428   0.615 -0.6077  0.2743  0.4202
56590SOL    HW176820   3.643   7.390   0.677 -1.5301  0.0655  1.2373
56590SOL    HW276821   3.552   7.510   0.656 -0.0677  0.9199 -0.4529
56591SOL     OW76822   8.971   2.272   2.221  0.4079  0.3122  0.2488
56591SOL    HW176823   8.992   2.204   2.156 -1.3712  0.6984 -0.8026
56591SOL    HW276824   9.041   2.336   2.211  1.2479 -0.5957  0.1401
56592SOL     OW76825   7.718  11.198   9.028 -0.1298  0.1317  0.1544
56592SOL    HW176826   7.674  11.154   8.956 -0.0781 -1.7186  1.2035
56592SOL    HW276827   7.648  11.242   9.076 -0.4794 -0.5053  0.2382
56593SOL     OW76828   8.224  10.060   2.883 -0.1713  0.0359 -0.6146
56593SOL    HW176829   8.178  10.003   2.822 -2.1178  0.8201  0.0283
56593SOL    HW276830   8.260  10.001   2.949  1.3592 -0.7511 -2.0733
56594SOL     OW76831  11.507  11.051   3.416 -0.4704 -0.6497 -0.1844
56594SOL    HW176832  11.493  11.141   3.448 -1.6348 -0.3615 -1.4165
56594SOL    HW276833  11.546  11.005   3.490  1.9773  1.3389 -0.1104
56595SOL     OW76834   5.304   7.816   9.804  0.4253  0.5265  0.7086
56595SOL    HW176835   5.384   7.807   9.857  1.4442  1.1397 -0.6632
56595SOL    HW276836   5.242   7.861   9.862  1.3067  0.6555  1.5812
56596SOL     OW76837   9.164   2.819   6.595 -0.2094 -0.6664  0.1020
56596SOL    HW176838   9.165   2.792   6.503  2.0534  0.0749 -0.1466
56596SOL    HW276839   9.237   2.880   6.603 -0.5257 -0.5043  2.3540
56597SOL     OW76840  12.155   4.581  10.813 -0.6979 -0.5853 -0.0850
56597SOL    HW176841  12.074   4.627  10.791  0.2649  0.8446 -0.8273
56597SOL    HW276842  12.224   4.634  10.773  0.9168  0.0760  3.1816
56598SOL     OW76843   1.128   8.908   7.721  0.0924  0.3993 -0.3429
56598SOL    HW176844   1.068   8.846   7.762  0.1820  1.0315  0.8096
56598SOL    HW276845   1.215   8.868   7.731  0.2125  0.9087  0.8637
56599SOL     OW76846   1.707   4.855   7.868 -0.3876 -0.6286  0.0691
56599SOL    HW176847   1.700   4.760   7.855 -0.3255 -0.3583 -2.3515
56599SOL    HW276848   1.739   4.888   7.784 -2.4384  1.7673  0.1105
56600SOL     OW76849  10.829   7.172   4.798  0.2347  0.0685  0.4212
56600SOL    HW176850  10.741   7.209   4.803  0.4816  0.9055 -0.7607
56600SOL    HW276851  10.855   7.188   4.707  1.5300 -0.3310  0.7094
56601SOL     OW76852  10.824  11.715   1.126  0.0200  0.2176 -0.3103
56601SOL    HW176853  10.768  11.761   1.189 -0.1439 -0.0754 -0.2415
56601SOL    HW276854  10.836  11.778   1.055 -3.4366 -0.9111 -2.1299
56602SOL     OW76855   8.568  10.864  10.742  0.5867  0.0853  0.4843
56602SOL    HW176856   8.486  10.909  10.721  0.8579 -0.6198 -2.5870
56602SOL    HW276857   8.629  10.934  10.762 -0.1450  0.7695  0.3857
56603SOL     OW76858   4.874   7.279   4.877 -0.1197 -0.4297  0.1954
56603SOL    HW176859   4.834   7.195   4.897  1.1755 -1.5448 -1.5538
56603SOL    HW276860   4.839   7.302   4.791 -0.3363  0.7774  0.5817
56604SOL     OW76861   8.507   4.383  11.678  0.7611  0.3546  0.1770
56604SOL    HW176862   8.475   4.400  11.589 -1.5364  2.7644  1.3232
56604SOL    HW276863   8.450   4.314  11.711 -0.6590  1.7755  0.8229
56605SOL     OW76864  10.073   1.354  12.350  0.5085  1.0262 -0.0441
56605SOL    HW176865  10.037   1.398  12.273  0.5680  2.1674  0.5512
56605SOL    HW276866   9.999   1.307  12.389  0.3192  1.0325 -0.3991
56606SOL     OW76867   1.510  12.493   5.334  0.0394  0.3094 -0.3739
56606SOL    HW176868   1.504  12.481   5.429  0.9158 -0.0558 -0.3546
56606SOL    HW276869   1.456  12.570   5.316  1.9038  2.0017  0.7783
56607SOL     OW76870  11.789   4.256  11.195  0.2570  0.4252 -0.1107
56607SOL    HW176871  11.777   4.244  11.289 -1.5895 -0.9181 -0.4593
56607SOL    HW276872  11.882   4.239  11.180  0.3880 -0.2966  1.3512
56608SOL     OW76873   7.134  12.563   1.676  0.4272  0.1483  0.1891
56608SOL    HW176874   7.200  12.555   1.745  0.1547 -2.6736  0.2614
56608SOL    HW276875   7.180  12.543   1.595  0.5973  2.7892 -0.4390
56609SOL     OW76876   5.860   0.017   4.949 -0.4852  0.6148  0.0638
56609SOL    HW176877   5.782  -0.037   4.937  0.7726 -1.5774  0.9509
56609SOL    HW276878   5.857   0.043   5.041 -0.2389  0.5906  0.0811
56610SOL     OW76879   6.382  11.502   6.247 -0.2018  0.0148  0.3031
56610SOL    HW176880   6.465  11.550   6.257 -1.1413  1.9396 -0.5159
56610SOL    HW276881   6.394  11.449   6.168  1.6426 -3.0149  2.4079
56611SOL     OW76882   2.121   9.035   2.963 -0.8542 -0.0982  0.1301
56611SOL    HW176883   2.052   9.002   3.021  0.0074 -1.2021  0.5807
56611SOL    HW276884   2.202   9.001   3.001 -0.1592  0.1866 -1.0374
56612SOL     OW76885   1.352   2.546   9.430 -0.8807  0.2187  0.3159
56612SOL    HW176886   1.399   2.612   9.480 -0.4773  0.5146 -0.4383
56612SOL    HW276887   1.317   2.593   9.355 -0.2384 -0.4856 -0.4471
56613SOL     OW76888  10.342   2.731   1.805  0.2951  0.1836 -0.0707
56613SOL    HW176889  10.398   2.687   1.741  1.4006  1.5770 -0.1014
56613SOL    HW276890  10.403   2.767   1.869 -0.6287  1.0009  0.3720
56614SOL     OW76891   9.950   0.165   0.568  0.2743 -0.4573 -0.2914
56614SOL    HW176892  10.026   0.132   0.521  0.5874 -0.3631  0.1494
56614SOL    HW276893   9.980   0.246   0.609  0.1552 -0.8049  0.4964
56615SOL     OW76894   4.196   0.537   9.513  0.1669  0.5619 -0.2055
56615SOL    HW176895   4.237   0.599   9.573 -0.2821  0.9508 -0.2939
56615SOL    HW276896   4.247   0.546   9.432  0.1737  0.7356 -0.1829
56616SOL     OW76897  11.751  11.400   6.122 -0.3541 -0.4942 -0.1555
56616SOL    HW176898  11.800  11.462   6.068  1.7472 -2.3245 -0.5114
56616SOL    HW276899  11.723  11.451   6.198  0.1348  1.1765 -1.0430
56617SOL     OW76900  12.428   6.733  11.884  0.3852  0.2516 -0.0265
56617SOL    HW176901  12.475   6.709  11.804  0.8001 -0.9519  0.5438
56617SOL    HW276902  12.342   6.692  11.874 -0.2460  1.6857 -0.6670
56618SOL     OW76903   8.911   8.562   5.537  0.3497 -0.1273  0.0498
56618SOL    HW176904   8.870   8.608   5.610  0.0118  0.5536 -0.5492
56618SOL    HW276905   8.975   8.504   5.577  0.9230  1.0135  0.8322
56619SOL     OW76906   1.053   1.364   9.081  0.3634 -0.3997 -1.5113
56619SOL    HW176907   1.026   1.273   9.074 -1.1817 -0.0990 -0.0311
56619SOL    HW276908   1.100   1.370   9.164 -2.0693  0.6760 -0.1283
56620SOL     OW76909   3.614   7.549  12.248  0.8642  0.2091 -0.0971
56620SOL    HW176910   3.663   7.478  12.289 -3.1311 -3.4563 -0.9466
56620SOL    HW276911   3.618   7.530  12.154 -0.7700  0.7216 -0.2983
56621SOL     OW76912   2.500   1.491   7.771  0.4973  0.1166  0.3164
56621SOL    HW176913   2.438   1.558   7.742  1.2500  1.2119  1.1390
56621SOL    HW276914   2.446   1.413   7.784 -0.3340  0.4344 -1.0418
56622SOL     OW76915   3.196   6.764   0.302 -0.8167 -0.0486 -0.3947
56622SOL    HW176916   3.123   6.800   0.354 -0.4303  0.3500 -0.1232
56622SOL    HW276917   3.210   6.676   0.339 -0.0867  0.4884  0.6705
56623SOL     OW76918  10.465  11.405   4.796 -0.2119  0.8993 -0.1270
56623SOL    HW176919  10.467  11.310   4.784 -0.7511  0.8628  0.0152
56623SOL    HW276920  10.422  11.438   4.717  1.9320  1.2364 -1.2260
56624SOL     OW76921   3.135   6.410   7.687 -0.8354 -0.2640 -0.2971
56624SOL    HW176922   3.045   6.406   7.719 -1.2992 -0.5859 -1.6014
56624SOL    HW276923   3.143   6.337   7.626 -0.1099  0.5569 -1.2243
56625SOL     OW76924   2.275   1.491   1.930 -0.1948 -0.3818 -0.1990
56625SOL    HW176925   2.212   1.534   1.988 -2.1809 -2.3883 -0.7400
56625SOL    HW276926   2.230   1.413   1.899  1.8914 -0.9243 -2.1461
56626SOL     OW76927  10.004   1.812   5.758  0.3218 -0.4235  0.2303
56626SOL    HW176928  10.080   1.844   5.807  0.6212 -0.0164 -0.4895
56626SOL    HW276929   9.941   1.884   5.764 -0.2381 -0.9858  1.3085
56627SOL     OW76930   6.719   7.776   9.422 -0.3008 -1.1966 -0.0005
56627SOL    HW176931   6.690   7.698   9.469  2.0475 -1.5733  1.0051
56627SOL    HW276932   6.678   7.849   9.468 -0.8931 -1.7388  0.3409
56628SOL     OW76933   2.125  10.202   5.505 -0.5089 -0.3320 -0.1859
56628SOL    HW176934   2.134  10.137   5.435 -0.6777 -1.5288  0.8690
56628SOL    HW276935   2.167  10.162   5.581 -0.2732  0.9657  0.3979
56629SOL     OW76936   9.495   1.948  12.580  0.7188 -0.3052  0.2428
56629SOL    HW176937   9.551   1.888  12.628  1.7001  0.4127  0.0123
56629SOL    HW276938   9.502   1.919  12.489  0.7798 -0.1592  0.2009
56630SOL     OW76939   5.258   4.833   1.445  0.2164 -0.4037 -0.1457
56630SOL    HW176940   5.178   4.846   1.394 -0.5114  2.3827  1.5137
56630SOL    HW276941   5.315   4.906   1.420  0.6649 -0.1667  1.4253
56631SOL     OW76942   7.460   6.421  10.163 -0.1625 -0.4361 -0.0141
56631SOL    HW176943   7.547   6.398  10.197 -0.5306  0.4623  1.6190
56631SOL    HW276944   7.464   6.516  10.149 -1.6669  0.1144  2.6782
56632SOL     OW76945   1.321   7.663   3.478 -0.6885  0.2680 -0.1506
56632SOL    HW176946   1.372   7.639   3.555  1.2127  3.0771 -0.3744
56632SOL    HW276947   1.387   7.689   3.413 -2.3210  2.8212 -0.9163
56633SOL     OW76948   9.260   9.207  10.114 -0.3754  0.3189  0.3005
56633SOL    HW176949   9.354   9.195  10.099 -0.7495 -1.1668 -1.2848
56633SOL    HW276950   9.241   9.149  10.188 -0.4409 -1.5269 -1.0731
56634SOL     OW76951   3.849   9.457   5.593 -0.5261  0.0642  0.6259
56634SOL    HW176952   3.775   9.456   5.533 -0.0900  0.4026  0.0654
56634SOL    HW276953   3.871   9.550   5.602  0.3004 -0.0793  0.1858
56635SOL     OW76954   1.074   8.192  10.137  0.3470 -0.1371 -0.4864
56635SOL    HW176955   1.116   8.261  10.087  0.4120 -0.0060 -0.2548
56635SOL    HW276956   0.984   8.222  10.150  0.3826 -0.0834 -0.3630
56636SOL     OW76957   1.312   6.731   5.978  0.3362  0.1453 -0.0290
56636SOL    HW176958   1.361   6.652   6.001  0.3348  0.1215 -0.1051
56636SOL    HW276959   1.225   6.717   6.015  0.8247  0.8710  1.4508
56637SOL     OW76960   1.695   6.618   6.009  0.0145 -0.0777 -0.3272
56637SOL    HW176961   1.612   6.578   6.035  0.3197  0.3011  1.3496
56637SOL    HW276962   1.675   6.712   6.004  0.5728  0.1732  1.3147
56638SOL     OW76963   0.139   1.685   7.047  0.7921 -0.0874  0.2847
56638SOL    HW176964   0.056   1.730   7.062  1.2255  0.7041  0.3717
56638SOL    HW276965   0.137   1.662   6.954  0.8172  0.6525  0.0947
56639SOL     OW76966   8.129   1.550   4.974  0.4103 -0.2963 -0.0351
56639SOL    HW176967   8.193   1.480   4.966  2.0620  1.0754  0.5668
56639SOL    HW276968   8.156   1.600   5.051  0.3623  2.0029 -1.3925
56640SOL     OW76969   6.630  10.608   0.367 -0.8131 -0.5255 -0.0066
56640SOL    HW176970   6.642  10.651   0.452  2.2348 -1.1547  0.0094
56640SOL    HW276971   6.547  10.642   0.334  0.1250  3.3883  1.1565
56641SOL     OW76972   8.352  10.619   1.860 -0.3045  0.2041 -0.0451
56641SOL    HW176973   8.390  10.551   1.805 -1.3268  0.3088 -0.9067
56641SOL    HW276974   8.426  10.673   1.886  0.4753 -1.0427  0.3915
56642SOL     OW76975   9.472   7.403  11.691 -0.1978 -0.4369 -0.0598
56642SOL    HW176976   9.531   7.355  11.633 -0.1263 -1.4475  0.8270
56642SOL    HW276977   9.384   7.379  11.662 -0.1899 -2.7046  1.5999
56643SOL     OW76978   9.555   0.823  10.398  0.1007 -0.3100  0.4491
56643SOL    HW176979   9.553   0.898  10.458 -1.6372 -1.3193  1.7395
56643SOL    HW276980   9.588   0.750  10.451 -1.0180 -1.1203  0.0593
56644SOL     OW76981   4.047   7.963   3.995 -0.8833 -0.7540 -0.3217
56644SOL    HW176982   4.104   8.033   3.963 -0.2212 -0.5563  1.2146
56644SOL    HW276983   4.107   7.895   4.026 -1.5190 -1.8123 -1.3258
56645SOL     OW76984  11.976  11.295   2.821  0.0816 -0.0329 -0.6089
56645SOL    HW176985  11.953  11.243   2.898 -0.4428  1.0300 -0.0179
56645SOL    HW276986  11.957  11.238   2.746  1.6487 -1.4922  0.0534
56646SOL     OW76987   1.846   2.661   9.121  0.1384 -0.0571  0.5938
56646SOL    HW176988   1.796   2.597   9.070 -0.7568  0.7011  0.4901
56646SOL    HW276989   1.918   2.688   9.063 -1.2707  1.3296 -0.6137
56647SOL     OW76990   8.401   6.679   9.041  0.0261 -0.3576  0.6671
56647SOL    HW176991   8.432   6.640   8.960  0.6874  0.6371  0.4184
56647SOL    HW276992   8.478   6.685   9.096 -0.0866  0.4250  0.7595
56648SOL     OW76993   8.160   3.561  10.901  0.4030 -0.4487 -0.3099
56648SOL    HW176994   8.070   3.574  10.932  0.5982  2.5592 -0.6533
56648SOL    HW276995   8.209   3.538  10.980 -0.3179 -0.0632  0.2668
56649SOL     OW76996   4.533   9.753   5.075 -0.0743  0.1597 -0.1815
56649SOL    HW176997   4.552   9.841   5.044 -1.5181  0.9141  0.9713
56649SOL    HW276998   4.491   9.710   5.001  1.3198  0.1444 -1.0059
56650SOL     OW76999   2.366   1.141  10.852 -0.2512 -0.2833 -0.0996
56650SOL    HW177000   2.344   1.205  10.920 -0.4456  0.9870 -1.3074
56650SOL    HW277001   2.368   1.192  10.772  2.4209 -1.2498 -0.7369
56651SOL     OW77002   9.256   1.030   9.657 -0.0429 -0.2466  0.2104
56651SOL    HW177003   9.228   1.010   9.568 -0.2843  0.1761  0.1898
56651SOL    HW277004   9.178   1.066   9.699  0.0486 -0.5195  0.6180
56652SOL     OW77005   9.811  10.490  11.682 -0.4408  0.1914 -0.3668
56652SOL    HW177006   9.787  10.398  11.683  0.6592 -0.1097 -0.5503
56652SOL    HW277007   9.769  10.525  11.603  1.2581 -0.7823 -1.7823
56653SOL     OW77008   0.974  12.573   1.931 -0.1429 -0.6016 -0.4824
56653SOL    HW177009   0.927  12.562   2.014 -0.7052  1.8136 -0.3996
56653SOL    HW277010   1.043  12.636   1.951  1.1617 -1.6712 -1.3750
56654SOL     OW77011   2.685   4.026   4.574 -0.0385 -0.2494 -0.1895
56654SOL    HW177012   2.681   3.949   4.630 -0.6779  0.2668  0.4936
56654SOL    HW277013   2.613   4.014   4.512 -0.8092  0.2972  0.5863
56655SOL     OW77014   5.589  11.001   0.125  0.8049  0.1170 -0.0306
56655SOL    HW177015   5.667  11.032   0.170  0.9014 -1.2742  0.8172
56655SOL    HW277016   5.530  10.973   0.195  1.0287 -2.2670 -0.7165
56656SOL     OW77017  10.379   3.964   7.110 -0.2762 -0.3360 -0.0297
56656SOL    HW177018  10.315   4.006   7.053  0.6358  1.4635  0.2163
56656SOL    HW277019  10.380   3.873   7.081 -1.9148 -0.1114 -0.9472
56657SOL     OW77020   2.314   8.410   7.107  0.3562  0.3224 -0.1185
56657SOL    HW177021   2.404   8.377   7.114  0.5270  0.8651  0.3585
56657SOL    HW277022   2.283   8.378   7.022  0.2546 -1.6624  0.6127
56658SOL     OW77023   6.857   8.276   0.204  0.4288  0.5073 -0.1871
56658SOL    HW177024   6.934   8.331   0.216  1.9119 -1.2623 -0.9863
56658SOL    HW277025   6.787   8.337   0.179  1.8216  2.0687 -0.4336
56659SOL     OW77026   5.144  10.409   8.667  0.1645 -0.0078  0.5647
56659SOL    HW177027   5.094  10.417   8.585 -0.7779  0.4950  1.1722
56659SOL    HW277028   5.150  10.498   8.700 -1.8089 -0.4755  2.3851
56660SOL     OW77029   9.620   5.769   7.398  0.5578 -0.0460 -0.1073
56660SOL    HW177030   9.711   5.739   7.399  0.5961  0.0792  0.2423
56660SOL    HW277031   9.618   5.841   7.461  0.1020 -0.3858  0.2739
56661SOL     OW77032   8.443   9.224   9.485  0.1630 -0.3912  0.2825
56661SOL    HW177033   8.534   9.238   9.510  0.2689 -1.9172  0.8140
56661SOL    HW277034   8.396   9.214   9.568  0.1427 -3.2121  0.0147
56662SOL     OW77035   1.060   8.777   5.956  0.3820  0.3264  0.8406
56662SOL    HW177036   1.055   8.786   5.860  3.4056 -0.9478  0.4304
56662SOL    HW277037   1.115   8.851   5.983 -1.1894  1.2026  1.7784
56663SOL     OW77038   1.290   2.213   6.674 -0.2891 -1.2994  0.0711
56663SOL    HW177039   1.231   2.202   6.749  0.3056 -1.2752  0.5448
56663SOL    HW277040   1.264   2.143   6.614 -0.5715 -1.5071  0.4297
56664SOL     OW77041   2.455   6.141  10.177 -0.2433  0.2558 -0.6067
56664SOL    HW177042   2.404   6.139  10.096  0.3227  0.5337 -0.9742
56664SOL    HW277043   2.394   6.108  10.244  0.0040 -2.2970 -1.5257
56665SOL     OW77044  11.523   0.058  10.328 -0.3916  0.2036 -0.2504
56665SOL    HW177045  11.587   0.128  10.316 -1.0207  0.9803  0.7407
56665SOL    HW277046  11.491   0.039  10.240  0.7345  0.2470 -0.6772
56666SOL     OW77047   9.179  10.515  10.777 -0.1158  0.2552  0.1753
56666SOL    HW177048   9.154  10.589  10.722 -1.3637 -1.1977 -1.3560
56666SOL    HW277049   9.264  10.488  10.742  1.7513  2.5554  2.5590
56667SOL     OW77050  12.004   2.038   1.307  0.5772 -0.5888 -0.3272
56667SOL    HW177051  12.062   2.085   1.248 -1.4345 -0.1154 -2.0635
56667SOL    HW277052  11.924   2.023   1.256 -0.0955 -3.0356  1.2451
56668SOL     OW77053   6.100   3.397   9.390  0.2267 -0.3947 -0.0201
56668SOL    HW177054   6.151   3.450   9.328  0.3975 -0.5333  0.0017
56668SOL    HW277055   6.032   3.356   9.337 -1.1052  1.3261  0.2472
56669SOL     OW77056   4.363  11.862   4.639 -0.0967 -0.0619 -0.4438
56669SOL    HW177057   4.389  11.907   4.719 -0.2840  1.3042 -1.1336
56669SOL    HW277058   4.441  11.813   4.612 -0.1954 -0.9966  0.8458
56670SOL     OW77059   5.131  11.087   3.697 -0.3069 -0.3409 -0.6177
56670SOL    HW177060   5.121  11.164   3.641  0.3361  1.1145  1.1884
56670SOL    HW277061   5.044  11.047   3.698 -0.8645  0.8338 -0.9241
56671SOL     OW77062   8.022   3.131   8.131  0.1574  0.3173  0.0072
56671SOL    HW177063   8.115   3.123   8.108  0.2507  0.2980  0.3943
56671SOL    HW277064   7.980   3.162   8.050  0.5878  0.8655 -0.0099
56672SOL     OW77065   3.976   4.604  10.600  0.3789 -0.0436  0.3070
56672SOL    HW177066   3.924   4.544  10.654 -0.1764 -0.1578 -0.3403
56672SOL    HW277067   3.972   4.687  10.646  1.4204 -0.5663  1.3803
56673SOL     OW77068   5.391   5.287   3.727  0.1840 -0.2789  0.2793
56673SOL    HW177069   5.430   5.210   3.768 -0.9516 -0.4754  1.0326
56673SOL    HW277070   5.305   5.257   3.697 -0.5111  0.8276  1.1070
56674SOL     OW77071   0.646   8.741   8.916  0.1124 -0.0606  0.1504
56674SOL    HW177072   0.726   8.712   8.961  0.2818  0.5523  0.2555
56674SOL    HW277073   0.575   8.713   8.974  0.2452 -0.6509  0.0330
56675SOL     OW77074   8.226   1.953  11.727 -0.3888  0.2206  0.1978
56675SOL    HW177075   8.285   1.924  11.796  0.0633  0.5076 -0.0605
56675SOL    HW277076   8.146   1.979  11.773  0.1262  0.9880  0.6797
56676SOL     OW77077   2.166   5.872  10.033 -0.1629 -0.1617  0.0764
56676SOL    HW177078   2.147   5.935  10.103  0.7433 -0.9734  1.0931
56676SOL    HW277079   2.244   5.907   9.989  2.2042 -1.9244  2.5273
56677SOL     OW77080   5.212   1.247   7.611  0.5555  0.0056 -0.2166
56677SOL    HW177081   5.208   1.158   7.644  0.2796 -0.0852 -0.4860
56677SOL    HW277082   5.120   1.273   7.601  0.6333  0.4436  0.1887
56678SOL     OW77083   6.966   6.942   9.473 -0.4082  0.4917 -0.0637
56678SOL    HW177084   6.875   6.972   9.474  0.3257  3.0192 -0.7108
56678SOL    HW277085   7.003   6.979   9.392  1.1892 -0.5035  0.1560
56679SOL     OW77086   8.218   1.587  11.978  0.3436  0.4093 -0.1589
56679SOL    HW177087   8.174   1.588  11.892  0.5828  0.5995 -0.2810
56679SOL    HW277088   8.179   1.512  12.024  0.6178 -0.0433 -0.6478
56680SOL     OW77089   3.633  10.107   0.629 -0.3034  0.7295  0.0939
56680SOL    HW177090   3.714  10.112   0.579 -0.1382  0.3264  0.3144
56680SOL    HW277091   3.567  10.149   0.573 -0.4393 -0.9733 -1.1051
56681SOL     OW77092   0.142   2.331   8.382 -0.5301 -1.0221 -0.1092
56681SOL    HW177093   0.054   2.293   8.375 -0.7995 -0.2805 -1.0638
56681SOL    HW277094   0.144   2.398   8.314 -1.1323  2.7654  3.2271
56682SOL     OW77095   0.464  12.452   1.783 -0.4502  0.2795  0.0966
56682SOL    HW177096   0.494  12.422   1.698  0.6047  0.3195  0.4467
56682SOL    HW277097   0.513  12.532   1.800  0.0693 -0.2392  1.1531
56683SOL     OW77098   7.477  11.863   2.189  0.2917  0.5827  0.1976
56683SOL    HW177099   7.516  11.867   2.276  0.5225  0.3552  0.1087
56683SOL    HW277100   7.453  11.771   2.177 -0.9996  0.8557  0.5554
56684SOL     OW77101   1.188   9.302  12.064 -0.5824 -0.0790  0.4915
56684SOL    HW177102   1.215   9.313  12.155 -1.6474 -0.6238  0.8967
56684SOL    HW277103   1.205   9.387  12.023  1.5292 -0.3420  0.7335
56685SOL     OW77104  11.588  12.074   2.236 -0.3215  0.2375 -0.3155
56685SOL    HW177105  11.558  12.164   2.227 -0.9690 -0.0399 -1.0810
56685SOL    HW277106  11.514  12.027   2.272  0.2238  0.1192  0.6785
56686SOL     OW77107   9.690   4.985  11.906  0.8225  0.2160  0.0264
56686SOL    HW177108   9.639   5.054  11.947 -0.4087  0.6350 -2.0588
56686SOL    HW277109   9.777   4.993  11.944  0.7751  3.0949 -0.2853
56687SOL     OW77110   7.223   5.997   5.139  0.1224  0.1516  0.1663
56687SOL    HW177111   7.297   5.985   5.080  0.8939 -0.7274  1.2649
56687SOL    HW277112   7.181   5.911   5.144  0.0533  0.2168  0.8655
56688SOL     OW77113   6.996   2.444   9.973  0.2096  0.3155 -0.1673
56688SOL    HW177114   7.007   2.393  10.054  0.7463  0.9741  0.1857
56688SOL    HW277115   6.964   2.380   9.909  0.0062 -0.2702  0.4987
56689SOL     OW77116   2.942  11.421   3.095 -0.7271 -0.5352  0.4336
56689SOL    HW177117   2.972  11.383   3.178  0.2838 -0.4665  0.1098
56689SOL    HW277118   2.867  11.475   3.120 -0.3551 -0.4133  1.3316
56690SOL     OW77119   4.147   2.812   1.076  0.7748  0.1819  0.7131
56690SOL    HW177120   4.113   2.782   1.161 -1.8698 -1.3649 -0.7631
56690SOL    HW277121   4.194   2.736   1.041 -0.7334 -0.3033 -0.4115
56691SOL     OW77122   0.202   1.118   4.751 -0.0423  0.1944 -0.2817
56691SOL    HW177123   0.137   1.170   4.703 -0.5866  0.2964  0.5423
56691SOL    HW277124   0.225   1.173   4.826  2.6698  1.1467 -1.6940
56692SOL     OW77125  12.148  12.416   4.654  0.1694  0.2928  0.0505
56692SOL    HW177126  12.189  12.467   4.584 -0.7856  0.0444 -0.7151
56692SOL    HW277127  12.171  12.325   4.634  0.1878  0.2498  0.2631
56693SOL     OW77128   9.061   6.909   1.793  0.0974  0.0352 -0.1937
56693SOL    HW177129   9.062   7.005   1.793  1.3352  0.0391 -0.5394
56693SOL    HW277130   9.085   6.884   1.704 -0.7304 -0.6137 -0.2522
56694SOL     OW77131   1.318  10.398   4.912  0.6650 -0.1021 -0.3960
56694SOL    HW177132   1.322  10.426   4.821 -0.0719 -0.7243 -0.6233
56694SOL    HW277133   1.242  10.340   4.917  0.0494  0.7621  0.8465
56695SOL     OW77134   7.114   6.623   3.683 -0.2311  0.0858 -0.2050
56695SOL    HW177135   7.140   6.595   3.771  0.7638 -1.5289 -0.9728
56695SOL    HW277136   7.133   6.548   3.627 -2.1905  0.5602 -1.5973
56696SOL     OW77137   4.744   7.829   4.554  0.4851  0.1822 -0.2304
56696SOL    HW177138   4.837   7.809   4.547  1.3501  3.3199  0.6928
56696SOL    HW277139   4.716   7.791   4.637  1.4074  0.6876  0.3200
56697SOL     OW77140  11.501   9.760  10.252 -0.3009 -0.0237  0.1185
56697SOL    HW177141  11.417   9.804  10.261  1.2292  3.2505 -0.1974
56697SOL    HW277142  11.513   9.749  10.158  0.5698  1.6796 -0.0036
56698SOL     OW77143   3.051   1.449   7.606 -0.0571 -0.3088  0.2672
56698SOL    HW177144   3.116   1.504   7.562 -0.6547 -1.2231 -1.8594
56698SOL    HW277145   3.083   1.360   7.594  0.2730 -0.5661  2.6281
56699SOL     OW77146   3.808   2.306   7.231 -0.6134 -0.2461 -0.2954
56699SOL    HW177147   3.821   2.360   7.153 -1.4553 -1.9281 -1.6942
56699SOL    HW277148   3.806   2.216   7.197  0.8364 -1.1946  1.9352
56700SOL     OW77149   4.763  12.504  10.629  0.0700  0.0109 -0.1832
56700SOL    HW177150   4.770  12.595  10.659  0.3583  0.3215 -1.1503
56700SOL    HW277151   4.718  12.459  10.700 -0.8264  1.0850 -0.0403
56701SOL     OW77152   3.417  10.220   3.350  0.6937 -0.4207  0.4375
56701SOL    HW177153   3.473  10.293   3.326  0.2555 -0.0126  0.6450
56701SOL    HW277154   3.466  10.142   3.322  0.2087  0.0063 -1.8029
56702SOL     OW77155   7.917  12.545   4.161 -0.6047 -0.1629  0.2000
56702SOL    HW177156   7.825  12.566   4.146 -0.6338 -0.4537 -0.0490
56702SOL    HW277157   7.956  12.546   4.073 -0.2633  0.4545  0.3522
56703SOL     OW77158   0.376   3.314   9.065  0.0688 -0.0182  0.5562
56703SOL    HW177159   0.391   3.221   9.082  1.4904  0.3613  1.5641
56703SOL    HW277160   0.462   3.349   9.040 -0.4641  0.9974  0.0622
56704SOL     OW77161   1.832   0.922   2.188  0.2890 -0.3800 -0.2516
56704SOL    HW177162   1.806   0.903   2.278 -0.9687 -0.0116 -0.5174
56704SOL    HW277163   1.925   0.898   2.184  0.1311 -1.2543  0.8870
56705SOL     OW77164   0.021   3.314   3.595 -0.3388 -0.2610 -0.2360
56705SOL    HW177165   0.072   3.379   3.546 -1.4981  0.3765 -0.6224
56705SOL    HW277166  -0.059   3.360   3.620 -0.2234 -0.8784  1.4079
56706SOL     OW77167   3.121   2.977   3.133  0.1850  0.4148 -0.7936
56706SOL    HW177168   3.059   3.044   3.162  0.8383  0.0938  1.6060
56706SOL    HW277169   3.075   2.929   3.064 -2.4109 -0.0129  1.0866
56707SOL     OW77170   0.867  11.759   3.689 -0.2235  0.5565 -0.5702
56707SOL    HW177171   0.846  11.682   3.636  1.1727 -0.9791  0.9863
56707SOL    HW277172   0.788  11.813   3.685 -2.4057 -2.3057  0.5989
56708SOL     OW77173   4.983   0.693   9.954 -0.3837 -0.3142  0.2694
56708SOL    HW177174   4.948   0.605   9.947 -1.4900  0.1689 -0.5082
56708SOL    HW277175   5.078   0.682   9.957 -0.4876 -1.4782 -0.5188
56709SOL     OW77176  11.591  10.982   1.356 -0.6107 -0.0243 -0.1775
56709SOL    HW177177  11.566  10.908   1.300  2.3889 -1.5190  0.2908
56709SOL    HW277178  11.609  10.943   1.441  1.3305  1.1845  0.0082
56710SOL     OW77179   8.473  12.582   8.733  0.0379  0.3215 -0.6797
56710SOL    HW177180   8.406  12.521   8.702  0.3165  0.5740 -1.8597
56710SOL    HW277181   8.433  12.669   8.723 -0.8556  0.3529  2.2307
56711SOL     OW77182  11.953   4.530   1.774 -0.0254 -0.1869  0.2676
56711SOL    HW177183  11.870   4.534   1.822 -0.3926 -1.7226 -0.1754
56711SOL    HW277184  11.933   4.567   1.688 -0.6333 -1.6563 -0.2733
56712SOL     OW77185   0.140   0.913   9.465  0.6790 -0.2228 -0.0203
56712SOL    HW177186   0.113   0.866   9.544  1.4620 -0.7774 -0.0707
56712SOL    HW277187   0.233   0.894   9.457  0.2606 -1.6884 -2.0908
56713SOL     OW77188   4.226   6.596   3.155  0.0473 -0.5536 -0.6663
56713SOL    HW177189   4.135   6.594   3.185  0.6032 -4.1205  1.4248
56713SOL    HW277190   4.222   6.555   3.068 -0.4239 -0.0336 -0.8958
56714SOL     OW77191   1.014   8.903  12.365 -0.5767 -0.4262 -0.1977
56714SOL    HW177192   1.046   8.849  12.438  0.7584  0.6509  0.0510
56714SOL    HW277193   0.962   8.842  12.312 -0.4386 -1.5666  0.9056
56715SOL     OW77194   7.206   2.790  11.587 -1.0585 -0.4738 -0.0858
56715SOL    HW177195   7.232   2.745  11.666  2.4526  1.9448  0.3588
56715SOL    HW277196   7.141   2.854  11.616  0.0042  0.2097  0.8631
56716SOL     OW77197   4.985  10.369   8.410 -0.5561 -0.5352  0.1619
56716SOL    HW177198   4.890  10.374   8.413 -0.4581  1.5631  2.0341
56716SOL    HW277199   5.009  10.404   8.324 -1.4250  0.0878  0.1660
56717SOL     OW77200   5.876   6.448   3.630 -0.3424  0.0093 -0.6267
56717SOL    HW177201   5.880   6.475   3.538 -1.6048  1.0963 -0.4081
56717SOL    HW277202   5.857   6.530   3.677 -1.8459 -0.8668  0.3595
56718SOL     OW77203   6.731   0.680   3.491 -0.2191  0.6650 -0.0235
56718SOL    HW177204   6.725   0.715   3.580  0.7885 -1.3289  0.9026
56718SOL    HW277205   6.642   0.649   3.472  0.2383 -2.2156  1.8550
56719SOL     OW77206   4.556   9.971   6.851 -0.5675  0.5558 -0.0768
56719SOL    HW177207   4.541  10.025   6.929  0.1759 -0.6624  0.9529
56719SOL    HW277208   4.650   9.952   6.853 -0.4582  0.8442 -1.5210
56720SOL     OW77209   5.946   6.946   0.905 -0.3758  0.1907 -0.3696
56720SOL    HW177210   5.877   6.896   0.949  0.3721 -0.1118  0.4971
56720SOL    HW277211   5.966   6.896   0.827  1.4098 -1.7647  1.2206
56721SOL     OW77212   3.757  10.219   1.221 -0.2909 -0.1461 -0.2798
56721SOL    HW177213   3.833  10.161   1.212 -1.4690 -2.0037  1.1500
56721SOL    HW277214   3.743  10.254   1.133 -0.8711 -3.8116 -1.8321
56722SOL     OW77215   4.806   1.302   4.217  0.2275  0.1545  0.4667
56722SOL    HW177216   4.872   1.245   4.256 -1.4212 -1.1639  1.4741
56722SOL    HW277217   4.734   1.243   4.193 -1.1642  1.6876  0.6609
56723SOL     OW77218   5.989   7.880   5.400 -0.6258 -0.3028 -0.0079
56723SOL    HW177219   5.928   7.911   5.466 -1.5719 -2.4149  0.1835
56723SOL    HW277220   5.934   7.853   5.326 -0.0675 -2.7734  0.3901
56724SOL     OW77221   9.496  10.654   3.109  0.3250 -0.5029 -0.1656
56724SOL    HW177222   9.491  10.568   3.149 -1.4929  0.0056  0.8206
56724SOL    HW277223   9.408  10.669   3.073  0.7145  0.7842 -0.6434
56725SOL     OW77224   8.295   3.886   1.533  0.2243 -0.0226  0.2244
56725SOL    HW177225   8.361   3.829   1.573 -1.0232 -1.5353  0.2110
56725SOL    HW277226   8.225   3.891   1.598 -1.3613 -1.6374 -1.2466
56726SOL     OW77227  12.382  11.230  11.050  0.2394 -0.4319 -0.3585
56726SOL    HW177228  12.333  11.306  11.021 -0.9357 -1.1703 -0.4017
56726SOL    HW277229  12.470  11.262  11.066 -0.1515  0.8548 -0.6920
56727SOL     OW77230  12.471   0.928   7.950 -0.2500  0.4080  0.2064
56727SOL    HW177231  12.418   0.960   8.023 -0.4700  3.0081 -0.9724
56727SOL    HW277232  12.552   0.979   7.956 -1.0500  2.1980 -2.4028
56728SOL     OW77233   8.852  12.144   1.308  0.8138  0.0829 -0.0481
56728SOL    HW177234   8.919  12.142   1.376 -0.5528  0.1444  1.3536
56728SOL    HW277235   8.872  12.222   1.257  0.3694  1.5760  1.9244
56729SOL     OW77236   8.304   0.345   9.295  0.4689  0.0715 -0.5072
56729SOL    HW177237   8.261   0.288   9.359 -1.0547 -0.4329 -1.9014
56729SOL    HW277238   8.362   0.287   9.246  2.1302  0.5813  0.7796
56730SOL     OW77239   6.817   5.302   5.276 -0.1987  0.4675 -0.4003
56730SOL    HW177240   6.778   5.291   5.190  0.0987  0.2228 -0.5037
56730SOL    HW277241   6.821   5.214   5.313 -1.6636  0.7226  0.4602
56731SOL     OW77242   6.582   6.457  10.243 -0.4277  0.2438 -0.2706
56731SOL    HW177243   6.589   6.457  10.338 -2.9260  0.6626 -0.0072
56731SOL    HW277244   6.672   6.450  10.211  0.4068 -0.6069  2.1060
56732SOL     OW77245   8.671  11.661  11.046  0.7060  0.4113  0.6629
56732SOL    HW177246   8.747  11.610  11.077  1.2965  0.8945  0.0433
56732SOL    HW277247   8.681  11.663  10.951 -0.4128 -0.0061  0.5268
56733SOL     OW77248   3.119   5.707   3.746  0.3795 -0.4236 -0.2186
56733SOL    HW177249   3.140   5.796   3.772  2.1127 -1.4930  2.5965
56733SOL    HW277250   3.160   5.696   3.660 -0.4784  1.6441 -0.9377
56734SOL     OW77251   5.405   6.038   3.505 -0.3149  0.0285  0.2568
56734SOL    HW177252   5.351   5.964   3.478 -0.8082  1.0677 -1.7877
56734SOL    HW277253   5.493   6.016   3.472 -0.2228 -0.1143  0.5909
56735SOL     OW77254  10.006  10.613  10.084  0.1574 -0.0520  0.3253
56735SOL    HW177255  10.036  10.652  10.166 -0.1563  1.3385 -0.1987
56735SOL    HW277256  10.065  10.649  10.017  0.4970 -1.2770 -0.0731
56736SOL     OW77257   7.194   0.559  11.623 -0.5508 -0.3019 -0.7914
56736SOL    HW177258   7.211   0.500  11.697  0.6155  0.8815 -0.0824
56736SOL    HW277259   7.124   0.617  11.653 -2.0324 -1.5329 -1.6574
56737SOL     OW77260   7.595   7.277   0.062 -0.0194  0.0194  0.0941
56737SOL    HW177261   7.671   7.245   0.110  0.6741 -0.7315 -1.4525
56737SOL    HW277262   7.627   7.354   0.015 -0.8891  1.2094  1.3661
56738SOL     OW77263   6.122   1.047   0.504  0.0351  0.1084 -0.2015
56738SOL    HW177264   6.201   1.100   0.516 -0.1790  0.2921  0.3894
56738SOL    HW277265   6.146   0.960   0.535  0.3716 -0.1478 -1.1279
56739SOL     OW77266   8.090  11.699   1.761  0.3384  0.6563 -0.0192
56739SOL    HW177267   8.154  11.634   1.734 -1.3473 -1.4031  0.6064
56739SOL    HW277268   8.085  11.761   1.689  0.5876 -1.0375 -1.5418
56740SOL     OW77269   0.716   4.486   8.001  0.2122  0.5193 -0.0715
56740SOL    HW177270   0.756   4.528   8.077  1.7115 -0.4936 -0.2553
56740SOL    HW277271   0.766   4.405   7.989 -1.6726 -0.6339 -0.5769
56741SOL     OW77272   5.488   9.581  12.378 -0.2543  0.0898 -0.0106
56741SOL    HW177273   5.521   9.664  12.414 -0.7403  0.2817  0.0037
56741SOL    HW277274   5.550   9.558  12.309 -0.4705  0.8078 -0.4601
56742SOL     OW77275   2.709   1.863   4.075  0.4973 -0.5001  1.0474
56742SOL    HW177276   2.752   1.777   4.077 -1.2800 -1.5240 -0.9038
56742SOL    HW277277   2.636   1.852   4.015  0.7083  2.6745  0.0225
56743SOL     OW77278   6.776   3.440   0.589  0.1317 -0.5806 -0.0239
56743SOL    HW177279   6.843   3.377   0.618 -0.1480  0.2437  2.6485
56743SOL    HW277280   6.775   3.507   0.657 -1.3931  0.9830 -1.4993
56744SOL     OW77281   8.223   2.712  10.274  0.0835  0.2544  0.0186
56744SOL    HW177282   8.133   2.700  10.245  0.1682  0.1001 -0.1825
56744SOL    HW277283   8.215   2.749  10.361 -0.1916 -1.0658  0.5859
56745SOL     OW77284   1.273  11.839   4.811  0.0263 -0.6573 -0.0028
56745SOL    HW177285   1.283  11.934   4.810  1.6140 -0.7259 -3.2457
56745SOL    HW277286   1.207  11.821   4.744 -1.2398 -1.8547  1.4634
56746SOL     OW77287   0.612   9.472   7.189  0.2632 -0.1056  0.6149
56746SOL    HW177288   0.530   9.482   7.141  0.3287  1.2011  0.7380
56746SOL    HW277289   0.677   9.450   7.122  0.3164  1.5005  0.0868
56747SOL     OW77290  11.070   9.860   7.723  0.0614 -0.2100 -0.0666
56747SOL    HW177291  11.079   9.955   7.732 -0.5184  0.0512 -1.8986
56747SOL    HW277292  11.150   9.825   7.763  0.5967  1.0849  0.0571
56748SOL     OW77293   6.799  12.457   8.245 -0.1028  0.1366 -0.5157
56748SOL    HW177294   6.860  12.513   8.294 -1.2953  0.2428  0.9143
56748SOL    HW277295   6.712  12.485   8.274 -0.7688 -1.7106 -0.5970
56749SOL     OW77296  10.896  12.517   9.195  0.0972  0.6268 -0.2634
56749SOL    HW177297  10.939  12.584   9.248 -0.4514 -0.3514  1.4746
56749SOL    HW277298  10.958  12.444   9.194  0.2179  0.7195 -1.2421
56750SOL     OW77299   0.521  11.156   0.867  0.3841 -0.1036  0.2500
56750SOL    HW177300   0.520  11.157   0.771 -0.8979  0.6427  0.2521
56750SOL    HW277301   0.487  11.070   0.890  1.5276 -0.6339  0.0586
56751SOL     OW77302   3.874  12.392   1.484 -0.0898  0.1484 -0.1039
56751SOL    HW177303   3.963  12.393   1.448  0.8064 -2.2017  1.7666
56751SOL    HW277304   3.854  12.484   1.500  1.7262  0.7900 -1.1641
56752SOL     OW77305   7.299  10.191   5.533 -0.1180 -0.6160 -0.8548
56752SOL    HW177306   7.233  10.258   5.514  0.5490  0.1613 -0.5008
56752SOL    HW277307   7.349  10.183   5.452  0.7025  0.3835 -0.4856
56753SOL     OW77308   1.821   1.707  11.441  0.1389  0.1759 -0.6105
56753SOL    HW177309   1.810   1.777  11.505 -0.4244  0.6396 -1.2035
56753SOL    HW277310   1.843   1.752  11.359 -1.8676 -0.2063 -1.3983
56754SOL     OW77311   7.267   5.080  11.694  0.4826  0.0644 -0.5216
56754SOL    HW177312   7.241   4.988  11.707  0.1992  0.2603  0.3455
56754SOL    HW277313   7.285   5.113  11.782  2.3836  0.3428 -0.9808
56755SOL     OW77314   0.882   1.081   5.925 -0.0901 -0.2176 -0.1257
56755SOL    HW177315   0.812   1.137   5.960 -0.6375 -0.4486 -0.8288
56755SOL    HW277316   0.922   1.133   5.856  0.5419 -0.0272  0.3758
56756SOL     OW77317   2.216   3.443   9.576 -0.6967  0.4522 -0.2125
56756SOL    HW177318   2.192   3.519   9.628  1.2162  0.8944  0.1131
56756SOL    HW277319   2.185   3.368   9.627 -1.1541  0.9596  0.2659
56757SOL     OW77320   8.987   0.662  12.239  0.3787  0.4740 -0.1697
56757SOL    HW177321   8.952   0.626  12.157  0.2083  0.4203 -0.0739
56757SOL    HW277322   8.995   0.586  12.297 -1.9349  0.8365  0.7473
56758SOL     OW77323   7.883   2.567   5.622 -0.6530  0.0733  0.5754
56758SOL    HW177324   7.837   2.649   5.641  1.4906  1.1954  1.2836
56758SOL    HW277325   7.902   2.571   5.528 -1.1537  0.0495  0.4717
56759SOL     OW77326   9.629  11.715  11.997 -0.4058  0.5615 -0.8226
56759SOL    HW177327   9.554  11.751  11.950 -0.2111  0.3643 -1.2918
56759SOL    HW277328   9.649  11.633  11.952  1.1881  1.4507 -1.8246
56760SOL     OW77329   1.617  11.752   6.917  0.2563 -0.2469  0.1150
56760SOL    HW177330   1.585  11.673   6.959 -0.2862 -0.6955 -1.0872
56760SOL    HW277331   1.613  11.819   6.985  0.2218 -1.1245  1.0013
56761SOL     OW77332   9.427  10.032   6.763  0.5221 -0.0129 -0.0857
56761SOL    HW177333   9.422  10.104   6.825  0.7242 -0.4170  0.4089
56761SOL    HW277334   9.387   9.958   6.809  1.3759 -0.5189 -0.1295
56762SOL     OW77335   2.221   1.180   0.392 -0.1681 -0.5678  0.2515
56762SOL    HW177336   2.314   1.202   0.403 -0.3692 -0.3604  1.8179
56762SOL    HW277337   2.213   1.092   0.429 -0.0666 -1.8957 -2.6368
56763SOL     OW77338   5.410   4.868   0.711  0.0601  0.9832  0.1124
56763SOL    HW177339   5.428   4.891   0.620  0.5792  1.2412  0.2834
56763SOL    HW277340   5.453   4.935   0.763 -0.1454  0.7777  0.5567
56764SOL     OW77341   9.554   1.617   6.169 -0.7632 -0.0045  0.3468
56764SOL    HW177342   9.609   1.557   6.119  1.7750  2.1460  0.3249
56764SOL    HW277343   9.470   1.615   6.125  0.4812 -0.4649 -2.1627
56765SOL     OW77344   2.015  10.229   9.197 -0.1226 -0.1466  0.3421
56765SOL    HW177345   2.033  10.307   9.144 -0.4941  0.1220  0.5982
56765SOL    HW277346   2.085  10.229   9.262  0.4274 -0.5697 -0.2423
56766SOL     OW77347   8.507   6.327   1.653 -0.3073  0.1780  0.0566
56766SOL    HW177348   8.504   6.247   1.704  0.8297 -0.2474 -0.5014
56766SOL    HW277349   8.546   6.392   1.712 -0.4833  0.1168  0.2417
56767SOL     OW77350   6.918   8.107   3.998  0.4694 -0.2086  0.1040
56767SOL    HW177351   6.906   8.035   3.936 -1.0814 -1.3733  1.6485
56767SOL    HW277352   7.006   8.095   4.032  1.0811  0.0363 -1.3264
56768SOL     OW77353  12.281   6.571  11.694 -0.1313 -0.0617 -0.2851
56768SOL    HW177354  12.201   6.596  11.649 -0.3455  0.1822  0.2218
56768SOL    HW277355  12.314   6.495  11.645  1.0416  1.7098 -2.4819
56769SOL     OW77356   0.753   8.625   5.783 -0.1093  0.2950 -1.1045
56769SOL    HW177357   0.759   8.713   5.821 -2.6958  0.2219 -0.3499
56769SOL    HW277358   0.794   8.634   5.696  1.0474  1.8177 -0.4628
56770SOL     OW77359  10.297   9.088  11.418  0.3918  0.1961  0.1095
56770SOL    HW177360  10.273   9.122  11.332 -0.0119  2.2806  0.9908
56770SOL    HW277361  10.224   9.112  11.475  1.8982  1.4785  1.6173
56771SOL     OW77362   0.816   5.324   0.512  0.1821  0.1631 -0.6562
56771SOL    HW177363   0.863   5.335   0.594 -1.0270  0.5307  0.0082
56771SOL    HW277364   0.834   5.404   0.462 -1.5187  1.3625  0.5403
56772SOL     OW77365   8.291  10.287   8.179 -0.0729 -0.2347  0.4998
56772SOL    HW177366   8.289  10.335   8.096  1.8663 -1.7007 -0.4613
56772SOL    HW277367   8.227  10.216   8.166 -0.6024  0.2005  0.7044
56773SOL     OW77368   0.032   0.485   7.779 -0.3167 -0.4652  0.1995
56773SOL    HW177369   0.092   0.424   7.821 -0.2534 -1.7797 -1.7070
56773SOL    HW277370   0.049   0.569   7.823  3.4985 -0.5733 -0.7060
56774SOL     OW77371  11.365   5.083   9.603 -0.4750 -0.0631 -0.0635
56774SOL    HW177372  11.343   5.162   9.653  0.3115 -0.1234  0.3941
56774SOL    HW277373  11.303   5.018   9.634 -0.0310 -0.0849  0.8220
56775SOL     OW77374   4.847  10.181   9.087  0.1260  0.1502  0.1539
56775SOL    HW177375   4.858  10.088   9.106  3.2752  0.1894 -0.9127
56775SOL    HW277376   4.880  10.225   9.166 -0.1887  0.3885  0.1572
56776SOL     OW77377   3.635   9.700   9.214  0.0324  0.1691  0.3288
56776SOL    HW177378   3.572   9.710   9.285 -0.1292 -0.4430  0.2797
56776SOL    HW277379   3.674   9.786   9.204 -1.5339  0.8431 -0.3241
56777SOL     OW77380   2.765   2.769   1.986 -0.2513  0.5622  0.6828
56777SOL    HW177381   2.774   2.719   2.067 -1.3846  1.0657  1.1384
56777SOL    HW277382   2.753   2.859   2.015 -0.2187  0.8154 -0.0708
56778SOL     OW77383   0.147   9.061   2.390  0.6392 -0.2022  0.5224
56778SOL    HW177384   0.184   9.147   2.369 -0.3917  0.6426  1.9759
56778SOL    HW277385   0.073   9.051   2.330  1.2403 -0.4488 -0.1908
56779SOL     OW77386   5.697   0.906  12.184  0.1512  0.3006 -0.8408
56779SOL    HW177387   5.638   0.832  12.171  0.5178 -0.1952  0.1851
56779SOL    HW277388   5.653   0.962  12.248  0.1914  0.6142 -1.0837
56780SOL     OW77389   8.956   4.075   8.558  0.1437  0.1393 -0.3058
56780SOL    HW177390   8.886   4.121   8.604  1.8399  1.2795  1.2678
56780SOL    HW277391   8.957   4.115   8.470  0.6003  2.1483  0.5544
56781SOL     OW77392   9.085   0.724   3.113  0.2951  0.5778 -0.3269
56781SOL    HW177393   9.161   0.727   3.171  0.0484  2.0719 -0.0274
56781SOL    HW277394   9.021   0.671   3.161  0.7872  0.1709 -0.1138
56782SOL     OW77395   1.184   4.593   3.916 -0.3344 -0.0608  0.2749
56782SOL    HW177396   1.178   4.642   3.834  1.5825 -1.3749 -0.7547
56782SOL    HW277397   1.121   4.522   3.906 -0.3738 -0.0016  0.0962
56783SOL     OW77398   5.919   6.291   9.078 -0.2951 -0.3324  0.1114
56783SOL    HW177399   5.875   6.215   9.040  0.1797 -1.5667  1.8959
56783SOL    HW277400   5.989   6.254   9.132  1.0257  1.4578 -0.2746
56784SOL     OW77401  11.837   3.970   4.444 -0.0702 -0.8326  0.2053
56784SOL    HW177402  11.827   3.877   4.420  0.7716 -0.6342 -1.0333
56784SOL    HW277403  11.878   4.010   4.367 -0.5511  0.6087  0.6714
56785SOL     OW77404  10.025   0.344   9.042 -0.7106  0.0012 -0.0484
56785SOL    HW177405  10.010   0.262   9.089 -2.1914  1.8149  2.9536
56785SOL    HW277406  10.120   0.351   9.034 -0.4288 -0.8058  2.0302
56786SOL     OW77407   0.329  12.527   4.996 -0.0404 -0.0555 -0.2905
56786SOL    HW177408   0.284  12.573   5.067 -0.5652  0.4022 -0.9046
56786SOL    HW277409   0.265  12.525   4.925 -0.3362 -2.4168 -0.0445
56787SOL     OW77410   7.371   6.731  10.226 -0.2959 -0.3287 -0.1800
56787SOL    HW177411   7.397   6.802  10.167 -1.5994 -0.1638 -0.5843
56787SOL    HW277412   7.363   6.772  10.312 -1.1488  0.0612 -0.4317
56788SOL     OW77413  10.004  10.576   0.323 -0.3097 -0.1026  0.3315
56788SOL    HW177414  10.090  10.589   0.365 -0.6888  0.6579  0.8979
56788SOL    HW277415   9.969  10.498   0.366 -0.4834  0.3827  1.1019
56789SOL     OW77416   4.091   8.709   7.707  0.2895  0.6021  0.0400
56789SOL    HW177417   4.076   8.718   7.801  0.7335  1.9084  0.0021
56789SOL    HW277418   4.174   8.662   7.700  0.3053  0.5925  0.2898
56790SOL     OW77419   0.950  11.883   3.399  0.6028  0.3528 -0.4283
56790SOL    HW177420   1.019  11.861   3.336  1.0475 -1.0156  0.4952
56790SOL    HW277421   0.997  11.906   3.479  0.0211  1.0543 -0.2842
56791SOL     OW77422   2.162   6.786  10.756 -0.2029  0.3988 -0.3749
56791SOL    HW177423   2.142   6.731  10.831 -1.3164 -0.0900 -1.0044
56791SOL    HW277424   2.172   6.874  10.792  2.2428 -0.2530  0.7409
56792SOL     OW77425   7.672   9.509  12.109 -0.1755  0.3940  0.0121
56792SOL    HW177426   7.602   9.534  12.170  0.6249 -0.7272  1.4738
56792SOL    HW277427   7.646   9.547  12.025 -2.8144 -0.4347  0.3644
56793SOL     OW77428  11.011   5.118   9.671  0.2024 -0.0778  0.0726
56793SOL    HW177429  10.921   5.140   9.695 -0.2596 -0.7552 -0.9759
56793SOL    HW277430  11.039   5.189   9.614  0.2930  0.0752  0.3080
56794SOL     OW77431  12.271   1.355   0.522 -0.5583  0.5932 -0.2991
56794SOL    HW177432  12.273   1.317   0.434 -0.8106  0.0822 -0.0864
56794SOL    HW277433  12.181   1.344   0.551 -0.1154 -0.7182  0.6560
56795SOL     OW77434  11.008   6.396   4.784 -0.1145 -0.3184 -0.3085
56795SOL    HW177435  11.088   6.437   4.818 -0.1060  1.0042 -1.7800
56795SOL    HW277436  10.947   6.399   4.858  1.5444 -2.5970  1.2891
56796SOL     OW77437   1.794   1.264   2.963  0.2561 -0.0905  0.4812
56796SOL    HW177438   1.773   1.298   2.876 -0.4832 -0.8436  0.3448
56796SOL    HW277439   1.712   1.271   3.011  0.9337  1.3313  1.4871
56797SOL     OW77440   7.197   9.777   8.448 -0.1363  0.2611  0.1819
56797SOL    HW177441   7.279   9.726   8.449  0.0000  0.4434 -0.6158
56797SOL    HW277442   7.219   9.856   8.399 -0.3664  1.0710  1.3709
56798SOL     OW77443   4.073   4.579   0.670  0.2225 -0.1453  0.4392
56798SOL    HW177444   4.079   4.502   0.612  2.0486  0.4397 -0.2161
56798SOL    HW277445   4.113   4.650   0.620 -0.9980  1.1534  1.2261
56799SOL     OW77446  10.493   1.541  10.472 -0.3838 -0.5218 -0.0076
56799SOL    HW177447  10.459   1.511  10.388 -1.8133  1.2291 -0.1045
56799SOL    HW277448  10.556   1.609  10.450 -0.8098 -0.0117  0.3195
56800SOL     OW77449  11.892   3.678  11.982  0.0292  0.5553  0.1521
56800SOL    HW177450  11.928   3.765  12.002 -0.2964  1.5957 -3.1294
56800SOL    HW277451  11.802   3.682  12.014  0.7410  0.4243  2.3140
56801SOL     OW77452  10.515   9.187   6.146  0.2591 -0.4283 -0.0337
56801SOL    HW177453  10.528   9.207   6.239 -0.6988 -0.3218  0.0845
56801SOL    HW277454  10.604   9.183   6.110  0.6773 -1.1790  1.0282
56802SOL     OW77455   9.064   2.561   2.804  0.0417  0.1712 -0.1039
56802SOL    HW177456   9.036   2.609   2.725  1.9114  1.1558 -0.2403
56802SOL    HW277457   9.060   2.469   2.778  0.1219  0.4515 -1.1902
56803SOL     OW77458   4.309   6.691   6.971 -0.0554  0.0675 -0.1677
56803SOL    HW177459   4.226   6.738   6.963  1.0985  2.1600 -0.8498
56803SOL    HW277460   4.348   6.724   7.052  0.8667  0.4713 -0.7554
56804SOL     OW77461   9.641   5.115   5.977  0.0103  0.8944  0.0332
56804SOL    HW177462   9.595   5.090   5.897  0.5763  1.8253 -0.6045
56804SOL    HW277463   9.660   5.208   5.965  3.3187  0.2705 -0.3728
56805SOL     OW77464  11.711   2.702   4.037  0.0136  0.3659 -0.3178
56805SOL    HW177465  11.669   2.698   3.951  0.2784  0.6646 -0.4613
56805SOL    HW277466  11.727   2.611   4.061  0.5357  0.3087 -0.8749
56806SOL     OW77467   0.423   8.924   9.607  0.4324 -0.4520 -0.5909
56806SOL    HW177468   0.350   8.902   9.549 -0.6175 -0.4006  0.6743
56806SOL    HW277469   0.441   9.016   9.588 -0.2441 -0.2913 -0.5073
56807SOL     OW77470   9.937   2.836   9.849 -0.3369  0.4821  0.3262
56807SOL    HW177471   9.974   2.878   9.771 -0.2631 -0.0719  0.0542
56807SOL    HW277472   9.861   2.788   9.817  0.9424 -1.5512  0.1705
56808SOL     OW77473   9.787   5.550   5.401  0.0118  0.3596  0.0381
56808SOL    HW177474   9.744   5.478   5.355  1.9574 -0.5660 -0.4645
56808SOL    HW277475   9.756   5.544   5.491 -0.7681 -0.3520 -0.2696
56809SOL     OW77476   2.529  10.991   2.199  0.3908  0.2734 -0.5355
56809SOL    HW177477   2.511  10.995   2.292  0.6628  0.4264 -0.4865
56809SOL    HW277478   2.463  11.047   2.158 -1.1448 -1.5357 -0.6568
56810SOL     OW77479   3.681   2.099  10.137  0.3244 -0.8419 -0.2754
56810SOL    HW177480   3.677   2.067  10.227  0.4743  0.2589  0.1314
56810SOL    HW277481   3.649   2.026  10.084  0.4728 -1.5839  0.6461
56811SOL     OW77482  11.464   4.841   6.682 -0.1992  0.4899 -0.1132
56811SOL    HW177483  11.552   4.854   6.646 -0.3403 -1.8927 -1.5323
56811SOL    HW277484  11.453   4.912   6.745  3.0462  0.3809  0.7419
56812SOL     OW77485  11.205   0.453   2.088  0.3797 -0.2999 -0.3522
56812SOL    HW177486  11.161   0.449   2.173  2.1414 -1.5872  0.5778
56812SOL    HW277487  11.167   0.530   2.045 -0.7858  0.2169  1.4582
56813SOL     OW77488   1.491   8.616   8.439 -0.0879 -0.0400 -0.0920
56813SOL    HW177489   1.514   8.709   8.429  2.3441 -0.3151  1.9448
56813SOL    HW277490   1.414   8.604   8.383 -1.3938  3.5271  0.6761
56814SOL     OW77491   3.133   2.826   6.612  0.5438 -0.2981  0.1444
56814SOL    HW177492   3.154   2.786   6.696 -2.1451 -0.0214  1.0365
56814SOL    HW277493   3.051   2.786   6.586  0.2007  1.2084 -1.2716
56815SOL     OW77494   9.756   6.054   6.585  0.0243 -0.1037 -0.3751
56815SOL    HW177495   9.836   6.068   6.534 -0.6146  4.6286 -0.5303
56815SOL    HW277496   9.782   6.070   6.676 -0.1955 -1.5992 -0.0363
56816SOL     OW77497  10.773  11.159   0.683  0.1977 -0.2971  0.2344
56816SOL    HW177498  10.762  11.066   0.663 -1.3288  0.1493 -1.2565
56816SOL    HW277499  10.692  11.184   0.729  0.1229  0.5179 -0.3195
56817SOL     OW77500   2.716   0.426   5.991  0.1393  0.2513 -0.6371
56817SOL    HW177501   2.643   0.458   5.939  0.7945  1.2136 -1.0045
56817SOL    HW277502   2.755   0.505   6.029  0.6703 -0.2900 -0.0296
56818SOL     OW77503   0.592   0.392   7.210 -0.3050  0.0044  0.0566
56818SOL    HW177504   0.617   0.435   7.292  2.4175 -0.6735 -0.3308
56818SOL    HW277505   0.533   0.322   7.237  0.4891 -0.1647  1.4480
56819SOL     OW77506   6.893  12.517   5.901  0.5853 -0.2836  0.5090
56819SOL    HW177507   6.925  12.605   5.920 -0.1637  0.0140  0.4437
56819SOL    HW277508   6.880  12.517   5.806  1.7032 -0.8587  0.3419
56820SOL     OW77509  11.184  11.767   3.189 -0.3866 -0.2930  0.3019
56820SOL    HW177510  11.195  11.730   3.277  0.3970 -1.4501 -0.2601
56820SOL    HW277511  11.171  11.691   3.133 -3.4569  0.5079 -0.3003
56821SOL     OW77512   3.048   7.192   7.953  0.0155 -0.4479  0.0348
56821SOL    HW177513   3.035   7.282   7.982 -0.6398 -0.0538 -1.3757
56821SOL    HW277514   3.099   7.151   8.023  0.0524  0.9236  0.8471
56822SOL     OW77515   3.954   2.773   0.205  0.5828 -0.1890 -0.0412
56822SOL    HW177516   4.040   2.802   0.235  0.9152 -1.0909 -0.0919
56822SOL    HW277517   3.962   2.766   0.110 -0.0547  1.3152 -0.2350
56823SOL     OW77518   5.800   5.022   8.688 -0.1015 -0.5467 -0.2230
56823SOL    HW177519   5.763   4.999   8.603 -0.1133 -0.5680 -0.2120
56823SOL    HW277520   5.847   4.942   8.716 -1.2893 -1.0251  0.4520
56824SOL     OW77521  11.010  10.764   1.365  0.1586 -0.0242 -0.0895
56824SOL    HW177522  11.082  10.825   1.347 -0.8341  1.1026 -0.3318
56824SOL    HW277523  10.942  10.788   1.302  0.0735 -1.9855 -0.7858
56825SOL     OW77524   0.392   7.069   9.288  0.3702 -0.3480  0.9330
56825SOL    HW177525   0.353   7.009   9.225 -0.3547  0.8622  0.1885
56825SOL    HW277526   0.324   7.082   9.355 -0.2060  1.0457  0.1187
56826SOL     OW77527   0.040   3.522  12.587 -0.7094  0.2001  0.2109
56826SOL    HW177528  -0.017   3.518  12.664 -1.0236  0.2831 -0.0158
56826SOL    HW277529   0.056   3.430  12.564  0.7190  0.1171  1.3406
56827SOL     OW77530   3.453   3.821   9.161 -0.1124 -0.2882 -0.1748
56827SOL    HW177531   3.402   3.826   9.242  2.5940 -0.1574  1.6277
56827SOL    HW277532   3.507   3.743   9.171  1.4478  0.6178 -1.1065
56828SOL     OW77533   4.403  11.670   3.842 -0.4245 -0.7568  0.3078
56828SOL    HW177534   4.373  11.581   3.821 -0.7259 -0.6820  0.4192
56828SOL    HW277535   4.357  11.692   3.923  1.1513 -1.2681  1.4020
56829SOL     OW77536   7.854   5.079   5.474  0.1122  0.4466 -0.1198
56829SOL    HW177537   7.839   5.161   5.522  1.1678  1.0257 -0.7383
56829SOL    HW277538   7.933   5.096   5.422  0.6819 -1.1689  0.1716
56830SOL     OW77539  10.532   5.789   8.705  0.2714 -0.0137 -0.0512
56830SOL    HW177540  10.476   5.743   8.643 -0.3730  1.1161 -0.3237
56830SOL    HW277541  10.514   5.746   8.789 -0.1897 -0.3671 -0.3246
56831SOL     OW77542   6.223   2.207  11.406 -0.3268 -0.0113 -0.1255
56831SOL    HW177543   6.255   2.269  11.471 -0.8329 -0.6271  0.7483
56831SOL    HW277544   6.198   2.260  11.331  1.4272  0.6044 -0.3091
56832SOL     OW77545   6.283  11.002  10.559 -0.1081  0.5763 -0.6837
56832SOL    HW177546   6.282  11.091  10.593 -1.1279  0.9462 -1.6317
56832SOL    HW277547   6.337  10.954  10.621  0.4702  1.8492 -0.1570
56833SOL     OW77548   5.960   6.592   3.367 -0.7483  0.7612  0.0897
56833SOL    HW177549   5.906   6.595   3.288 -1.6674  0.5330  0.6848
56833SOL    HW277550   6.025   6.525   3.349 -1.0654  0.5785 -0.4047
56834SOL     OW77551   4.190   1.164   4.507  0.1115 -0.0546 -0.5984
56834SOL    HW177552   4.198   1.143   4.600 -1.7100  1.8668  0.0787
56834SOL    HW277553   4.245   1.099   4.463  0.3735 -1.5492  1.7383
56835SOL     OW77554   4.520   6.990   9.311  0.3990  0.0849 -0.3222
56835SOL    HW177555   4.564   6.980   9.396  1.1452  2.3301 -0.3800
56835SOL    HW277556   4.473   7.073   9.318  0.3669  0.2461 -2.0578
56836SOL     OW77557   4.710   4.005  12.172  0.1916 -0.2283  0.3213
56836SOL    HW177558   4.622   4.042  12.162 -0.2978 -1.0073  1.5356
56836SOL    HW277559   4.762   4.077  12.208 -0.6041 -0.4886  2.0832
56837SOL     OW77560   3.555   5.000   9.074 -0.1469 -0.0756 -0.3017
56837SOL    HW177561   3.605   5.062   9.021  0.4781 -1.6728 -1.6624
56837SOL    HW277562   3.499   5.055   9.129 -0.7880  1.6678 -2.5735
56838SOL     OW77563   3.647   4.439   2.232 -0.3085  0.2081  0.5194
56838SOL    HW177564   3.654   4.527   2.194 -0.0587 -0.1207 -0.2157
56838SOL    HW277565   3.612   4.385   2.161  1.5135 -0.7132  0.2610
56839SOL     OW77566   1.938   1.513   6.265  0.2229 -0.6702 -0.2010
56839SOL    HW177567   1.946   1.508   6.360 -2.1117 -1.2034  0.0181
56839SOL    HW277568   1.889   1.434   6.241  1.6699 -1.0990 -2.0012
56840SOL     OW77569   9.478   1.248  10.960 -0.4239  0.1083 -0.0577
56840SOL    HW177570   9.519   1.166  10.932 -0.4443 -0.2358  0.8842
56840SOL    HW277571   9.498   1.310  10.890 -0.4894 -0.7197 -0.8307
56841SOL     OW77572   2.243   9.855   0.325 -0.4124 -0.5550  0.1109
56841SOL    HW177573   2.329   9.822   0.301 -0.0208 -1.3514  2.3365
56841SOL    HW277574   2.198   9.869   0.241  1.5166 -1.0592 -1.0647
56842SOL     OW77575   9.277   3.270   0.008 -0.5305 -0.1005  0.3448
56842SOL    HW177576   9.207   3.206   0.019 -0.2619 -0.4714 -0.0703
56842SOL    HW277577   9.309   3.287   0.097  1.7785 -3.2103  0.2687
56843SOL     OW77578  11.905   3.569   7.723 -0.3723 -0.4629 -0.6191
56843SOL    HW177579  11.965   3.625   7.674  0.2172  0.0307  0.6291
56843SOL    HW277580  11.947   3.557   7.808 -1.5637 -0.9501 -0.0782
56844SOL     OW77581   6.689   3.127   1.242 -0.4144 -0.1639  0.1112
56844SOL    HW177582   6.780   3.148   1.221 -0.9194  1.0565 -1.0006
56844SOL    HW277583   6.682   3.143   1.336  0.9411 -2.0068  0.5927
56845SOL     OW77584   0.376  12.523   1.119  0.3725 -0.2716 -0.3044
56845SOL    HW177585   0.466  12.532   1.150  0.1776  1.7677 -0.1520
56845SOL    HW277586   0.384  12.489   1.030  1.0776 -3.2994  0.7879
56846SOL     OW77587   0.187   7.855   9.851 -0.1940  0.1317 -0.0824
56846SOL    HW177588   0.166   7.910   9.926 -0.4685 -1.5282  1.1049
56846SOL    HW277589   0.127   7.885   9.782 -1.0089  0.6574  0.8315
56847SOL     OW77590  11.028   2.679   8.996 -0.0649 -0.0867  0.0022
56847SOL    HW177591  11.092   2.726   8.942 -0.9215 -0.1069 -1.0801
56847SOL    HW277592  10.956   2.661   8.936 -0.8770 -0.4849  1.0733
56848SOL     OW77593  10.508   5.975  11.284 -0.0798  0.0501  0.3239
56848SOL    HW177594  10.537   5.981  11.375  1.1591 -1.8148  0.1111
56848SOL    HW277595  10.588   5.952  11.236 -0.3435  2.5683 -1.5197
56849SOL     OW77596   2.520   2.121   1.899  0.4352 -0.0006  0.5123
56849SOL    HW177597   2.484   2.205   1.926  0.5312 -0.6142  2.6888
56849SOL    HW277598   2.446   2.072   1.865  0.4777  1.1251 -1.3427
56850SOL     OW77599   0.006   3.851  12.107  0.8052 -0.3501 -0.2579
56850SOL    HW177600   0.048   3.798  12.175 -0.6257  0.2281  1.1404
56850SOL    HW277601  -0.044   3.788  12.055  1.3553 -0.7097 -0.3615
56851SOL     OW77602   3.134  10.282   0.045 -0.1042  0.1444  0.1837
56851SOL    HW177603   3.143  10.204  -0.010 -0.8979  0.7606 -0.8579
56851SOL    HW277604   3.148  10.355  -0.015 -0.0994  0.8172  0.9949
56852SOL     OW77605   9.930   6.249  10.372  0.2580  0.2483 -0.7481
56852SOL    HW177606   9.950   6.310  10.301  0.5132  1.5393  0.4158
56852SOL    HW277607  10.004   6.188  10.373  1.6355  1.8767  0.1642
56853SOL     OW77608   2.694   0.059  10.971 -0.2037 -0.0120 -0.0995
56853SOL    HW177609   2.745   0.034  10.894 -0.8484 -1.1044 -0.1927
56853SOL    HW277610   2.625   0.115  10.937  1.7847  2.8649  0.2248
56854SOL     OW77611   5.265   8.485   5.326  0.2146  0.1451  0.1944
56854SOL    HW177612   5.237   8.569   5.288 -0.9934 -0.4375 -0.2669
56854SOL    HW277613   5.183   8.437   5.339  0.6596 -0.0642  2.7017
56855SOL     OW77614  11.149   6.900  12.459  0.0878  0.2860  0.2035
56855SOL    HW177615  11.153   6.860  12.546  1.5908  0.3868  0.2103
56855SOL    HW277616  11.240   6.922  12.439 -0.4388  1.7641 -0.7132
56856SOL     OW77617   4.126   5.066   8.033 -0.6785  0.4705  0.1956
56856SOL    HW177618   4.130   4.982   8.077  0.7692 -0.0224 -0.8162
56856SOL    HW277619   4.105   5.129   8.103 -1.1890 -0.6252  1.0602
56857SOL     OW77620   5.429  11.638   9.066 -0.1751 -0.2241 -0.6145
56857SOL    HW177621   5.486  11.715   9.072  0.8760 -1.0289  0.3068
56857SOL    HW277622   5.360  11.664   9.005  0.0504  1.5001 -0.1947
56858SOL     OW77623  11.308  12.429   2.895  0.1946  0.3003  0.8612
56858SOL    HW177624  11.239  12.418   2.830  1.1433 -0.6264 -0.0070
56858SOL    HW277625  11.312  12.346   2.942 -0.0225  0.7320  1.6779
56859SOL     OW77626   1.997   8.487   9.105 -0.2783  0.1546  0.4878
56859SOL    HW177627   2.025   8.497   9.196 -2.3155  0.3485  1.1431
56859SOL    HW277628   1.904   8.468   9.110 -0.4930  0.3762 -1.5854
56860SOL     OW77629   6.459   2.171   9.366 -0.1822  0.1190 -0.3868
56860SOL    HW177630   6.500   2.168   9.280 -2.6953 -0.0314 -1.6472
56860SOL    HW277631   6.413   2.255   9.368 -0.9491 -0.3072  0.4209
56861SOL     OW77632   6.510   5.266   6.451  0.2961  0.0943  0.1249
56861SOL    HW177633   6.423   5.237   6.424 -0.5100  0.1226  2.5160
56861SOL    HW277634   6.538   5.326   6.382 -1.8660  0.6266 -0.3421
56862SOL     OW77635   9.841  11.271   3.578  0.1402 -0.4232  0.0909
56862SOL    HW177636   9.930  11.256   3.545 -0.1666 -1.0173 -0.4816
56862SOL    HW277637   9.846  11.356   3.622  1.2119 -0.8592  0.8558
56863SOL     OW77638  10.684  11.092   0.059 -0.6204 -0.6737  0.5003
56863SOL    HW177639  10.738  11.014   0.049 -0.1656 -0.4089  0.8342
56863SOL    HW277640  10.718  11.154  -0.006 -0.1687 -0.3207  1.0614
56864SOL     OW77641   4.883   0.082   2.652 -0.2152 -0.5788  0.0044
56864SOL    HW177642   4.820   0.098   2.722 -0.5074 -0.4950 -0.2776
56864SOL    HW277643   4.969   0.095   2.694 -0.2526 -3.1808  1.0884
56865SOL     OW77644   6.093   4.097   7.508  0.0474 -0.6761  0.9652
56865SOL    HW177645   6.088   4.157   7.433 -0.7233 -1.8739  0.0235
56865SOL    HW277646   6.162   4.034   7.484 -1.1326 -1.8774  0.6195
56866SOL     OW77647   5.918  10.439   5.096 -0.7920 -0.5377  0.0197
56866SOL    HW177648   5.912  10.356   5.048  0.4243  0.5836 -2.2116
56866SOL    HW277649   6.007  10.440   5.131 -1.2342 -0.7350  1.1820
56867SOL     OW77650   8.541   7.583   7.715  0.0248  0.4065  0.0709
56867SOL    HW177651   8.461   7.616   7.756  0.9780  2.1429  0.6343
56867SOL    HW277652   8.579   7.525   7.780 -1.4776 -1.6318 -0.7765
56868SOL     OW77653   0.527  10.063  10.618  0.2728 -0.1918 -0.1964
56868SOL    HW177654   0.598  10.008  10.585  0.2153 -0.3887  0.0024
56868SOL    HW277655   0.489  10.103  10.540  0.5524 -0.1434 -0.3105
56869SOL     OW77656  11.655  12.556  12.229 -0.4830 -0.6915  0.3961
56869SOL    HW177657  11.712  12.628  12.256  0.9432 -1.9906  1.0276
56869SOL    HW277658  11.693  12.479  12.271 -0.3627 -2.2323 -2.3229
56870SOL     OW77659   3.052   2.451   6.816 -0.1638  0.3226  0.2978
56870SOL    HW177660   2.972   2.412   6.851 -0.3035 -0.0608 -0.4159
56870SOL    HW277661   3.042   2.545   6.830 -0.2400  0.1847  1.2081
56871SOL     OW77662   0.953   8.142  10.443 -0.2538  0.1782 -0.4292
56871SOL    HW177663   0.940   8.230  10.408  1.3007  0.5521 -0.1614
56871SOL    HW277664   0.985   8.156  10.532 -2.4174 -0.7306  0.5487
56872SOL     OW77665  10.422   9.277  11.583  0.1363  0.1217  0.0642
56872SOL    HW177666  10.514   9.251  11.591 -0.0532 -0.6369 -0.1800
56872SOL    HW277667  10.383   9.211  11.525 -1.0667 -0.8224  1.8667
56873SOL     OW77668  10.950   6.729   3.468  0.0753 -0.3022 -0.1159
56873SOL    HW177669  10.864   6.739   3.427 -0.2278 -0.5300  0.4646
56873SOL    HW277670  10.962   6.810   3.517 -0.7800 -1.1556  1.5921
56874SOL     OW77671   6.685   6.108   0.207  0.1477 -0.3170 -0.0974
56874SOL    HW177672   6.650   6.196   0.193 -0.0536 -0.5715 -1.3508
56874SOL    HW277673   6.643   6.078   0.287  0.8917  1.0536  0.8452
56875SOL     OW77674   4.145   7.998  11.183  0.1896 -0.2226  0.0566
56875SOL    HW177675   4.202   8.041  11.247  0.3492 -0.6758  0.2237
56875SOL    HW277676   4.151   8.052  11.105  0.1556  0.2258  0.3561
56876SOL     OW77677   2.682   7.866  10.959 -0.6896  0.3994 -0.3216
56876SOL    HW177678   2.683   7.929  11.031  0.9814 -0.0757  0.1309
56876SOL    HW277679   2.599   7.819  10.968 -1.0176  1.1356  0.5937
56877SOL     OW77680   8.230   3.098   1.299  0.4747 -0.5966  0.4320
56877SOL    HW177681   8.290   3.153   1.250 -0.5950  1.1251  0.9666
56877SOL    HW277682   8.266   3.096   1.388  0.8528 -1.3148  0.2719
56878SOL     OW77683  10.801   2.414   7.075 -0.1717 -0.4614 -0.4427
56878SOL    HW177684  10.770   2.401   6.985 -0.0830 -0.8841 -0.4139
56878SOL    HW277685  10.847   2.498   7.073  0.8108 -0.9890 -1.0672
56879SOL     OW77686   3.301   4.341   6.165  0.2032 -0.3702  0.1580
56879SOL    HW177687   3.366   4.327   6.096  1.0084 -0.2489  0.8827
56879SOL    HW277688   3.305   4.435   6.184  0.8364 -0.5863  1.1808
56880SOL     OW77689   5.404   1.951   4.181  0.6051  0.5212 -0.4304
56880SOL    HW177690   5.464   1.983   4.114 -0.1516 -0.0549 -1.4144
56880SOL    HW277691   5.389   1.859   4.158 -0.8531  0.7215 -0.3803
56881SOL     OW77692   0.192   6.030   1.783  0.1681 -0.1120  0.5701
56881SOL    HW177693   0.210   5.936   1.786  0.7561 -0.0392 -0.2369
56881SOL    HW277694   0.097   6.037   1.791  0.2316 -0.6774  2.2131
56882SOL     OW77695   5.207   9.142   8.301  0.4333  0.2489 -0.0963
56882SOL    HW177696   5.213   9.094   8.384 -1.6863  0.7410  0.4097
56882SOL    HW277697   5.115   9.136   8.277  0.7340  1.3762 -1.6705
56883SOL     OW77698  12.554   3.437   5.568 -0.0988  0.6639 -0.7360
56883SOL    HW177699  12.552   3.477   5.481 -3.6325 -2.9837 -2.6685
56883SOL    HW277700  12.620   3.368   5.562 -0.6644  0.1090 -0.7435
56884SOL     OW77701   8.701   8.010   7.269 -0.3333  0.1706 -0.6125
56884SOL    HW177702   8.642   7.964   7.209 -1.3839 -0.3813  0.7864
56884SOL    HW277703   8.787   7.971   7.253 -1.0366 -1.6941 -0.0846
56885SOL     OW77704   1.471   1.598   6.028  0.3979  0.3693 -0.2517
56885SOL    HW177705   1.406   1.548   5.980  0.8597 -1.4921  0.9394
56885SOL    HW277706   1.451   1.689   6.009 -0.1496 -0.2348 -2.9624
56886SOL     OW77707   3.122  10.849   6.789 -0.2906  0.4974  0.0846
56886SOL    HW177708   3.107  10.779   6.852  0.3870  0.1107 -0.1692
56886SOL    HW277709   3.088  10.816   6.706  1.0162 -0.0065 -0.2840
56887SOL     OW77710   1.580   7.963   9.850 -0.6911  0.4331 -0.2338
56887SOL    HW177711   1.547   8.034   9.904  0.2574 -0.6806  1.9373
56887SOL    HW277712   1.671   7.989   9.830 -0.3381 -0.1379  0.5778
56888SOL     OW77713   4.328   8.539   1.941 -0.1571  0.1210 -0.0379
56888SOL    HW177714   4.376   8.590   1.876 -0.9291  0.7923 -0.1077
56888SOL    HW277715   4.239   8.574   1.937 -0.5961 -0.9399  0.2423
56889SOL     OW77716   1.485   9.245   9.758 -0.2242 -0.1703  0.0681
56889SOL    HW177717   1.496   9.335   9.788 -1.9174  0.4329 -0.9502
56889SOL    HW277718   1.417   9.251   9.691 -1.5355 -2.4278  1.1048
56890SOL     OW77719   1.277  11.337   7.922  0.0187  0.1035 -0.2941
56890SOL    HW177720   1.235  11.363   8.004  1.2644  1.2114  0.0211
56890SOL    HW277721   1.285  11.242   7.929  3.0228  0.3734  2.4012
56891SOL     OW77722  11.869   3.743   3.102  0.0052  0.0607  0.2149
56891SOL    HW177723  11.800   3.677   3.100 -0.0045 -0.1169  2.6489
56891SOL    HW277724  11.831   3.816   3.150  1.1422  0.3792  0.6838
56892SOL     OW77725   2.810   2.714   2.780  0.2592 -0.0623 -0.2573
56892SOL    HW177726   2.820   2.619   2.784  1.0762  0.0745  2.0277
56892SOL    HW277727   2.735   2.733   2.835  0.6997  0.6984  0.0878
56893SOL     OW77728   1.844  10.703   8.294 -1.3223 -0.1949 -0.1391
56893SOL    HW177729   1.926  10.743   8.262 -2.3410  0.8105 -1.6291
56893SOL    HW277730   1.869  10.613   8.316  0.5361  0.5458  1.0754
56894SOL     OW77731   7.378   7.507   2.452  0.7529 -0.0995  0.9997
56894SOL    HW177732   7.433   7.532   2.527  1.9156 -1.0437  0.5008
56894SOL    HW277733   7.340   7.423   2.478  1.1550 -0.4277  0.5474
56895SOL     OW77734   7.731  12.410  12.213  0.6177 -0.0348  0.2312
56895SOL    HW177735   7.681  12.328  12.214 -1.3819  1.0720 -1.6111
56895SOL    HW277736   7.822  12.382  12.200 -0.0125 -1.9812 -0.3279
56896SOL     OW77737   3.184  11.575   9.175  0.0321  0.3864 -0.1568
56896SOL    HW177738   3.151  11.640   9.238  1.4073 -0.4096  1.4663
56896SOL    HW277739   3.178  11.619   9.090 -1.0106  1.8519  0.6219
56897SOL     OW77740   9.260   4.149   0.720 -0.3147  0.7470 -1.0680
56897SOL    HW177741   9.252   4.244   0.726 -0.2788  0.6598  1.0656
56897SOL    HW277742   9.293   4.134   0.632  0.4447  2.7614 -1.1914
56898SOL     OW77743   1.861   4.080   5.717 -0.7357  0.9054 -0.5519
56898SOL    HW177744   1.802   4.006   5.709 -0.8326  0.5566  2.2143
56898SOL    HW277745   1.812   4.145   5.767 -0.2614  2.4376 -1.9833
56899SOL     OW77746   1.446   9.473   9.518  0.0849 -0.0922 -0.5471
56899SOL    HW177747   1.448   9.475   9.613 -0.0314  1.3723 -0.5625
56899SOL    HW277748   1.385   9.403   9.497 -1.2403  0.7216  0.4738
56900SOL     OW77749  11.862  10.692  11.773  0.1450 -0.2715  0.0828
56900SOL    HW177750  11.937  10.646  11.811  0.3073  1.1280  1.5617
56900SOL    HW277751  11.877  10.784  11.794 -2.0234  0.0476  0.4848
56901SOL     OW77752   2.167   5.413   4.871  0.4180 -0.5526 -0.1276
56901SOL    HW177753   2.133   5.346   4.812 -1.0072  0.9937 -1.1517
56901SOL    HW277754   2.094   5.431   4.931  0.4394  0.7158 -0.4585
56902SOL     OW77755   4.140   2.181   1.344 -0.3366  0.4674 -0.7225
56902SOL    HW177756   4.076   2.251   1.362  0.4744  0.9386  0.4387
56902SOL    HW277757   4.175   2.203   1.258 -0.3578  1.2964 -0.5280
56903SOL     OW77758   4.365   0.460  11.096 -0.4141 -0.2624 -0.7193
56903SOL    HW177759   4.422   0.391  11.061 -2.4661 -1.7399 -1.3429
56903SOL    HW277760   4.340   0.512  11.019  1.1526  1.2782 -0.2501
56904SOL     OW77761   7.117  11.559   8.573 -0.0893  0.0447 -0.0777
56904SOL    HW177762   7.188  11.531   8.515  4.1159 -0.0684  4.4175
56904SOL    HW277763   7.131  11.654   8.583 -1.2402  0.1999  0.1535
56905SOL     OW77764   1.461   9.592  11.037 -0.8619  0.5777 -0.4519
56905SOL    HW177765   1.518   9.634  10.973  0.3818  0.8229  0.7592
56905SOL    HW277766   1.398   9.660  11.062 -0.5190  0.8938 -0.4471
56906SOL     OW77767   3.623   1.449   2.026  1.0998  0.1204  0.3030
56906SOL    HW177768   3.618   1.378   1.962  1.1249  0.0492  0.3812
56906SOL    HW277769   3.625   1.406   2.111 -2.0964  0.2723  0.5586
56907SOL     OW77770   2.512   1.917   9.690 -0.2155  0.4734  0.2920
56907SOL    HW177771   2.448   1.905   9.761 -0.6855  2.3532  0.2416
56907SOL    HW277772   2.578   1.849   9.705 -0.7721  0.2711  2.0112
56908SOL     OW77773   5.071   4.665   3.759 -0.0320 -0.3813 -0.1649
56908SOL    HW177774   5.150   4.653   3.812 -0.9955  0.2090  1.4666
56908SOL    HW277775   5.016   4.590   3.781 -0.1096 -0.5625 -0.9645
56909SOL     OW77776   7.284   6.643   9.546  0.4182  0.0462 -0.1366
56909SOL    HW177777   7.222   6.669   9.613 -1.3270 -1.2056 -1.1618
56909SOL    HW277778   7.340   6.578   9.589 -1.3691 -1.5649 -0.0927
56910SOL     OW77779   9.992   7.384  11.933  0.0008 -0.5785 -0.4202
56910SOL    HW177780   9.989   7.444  12.007  2.0059  0.5834 -1.2047
56910SOL    HW277781  10.047   7.312  11.963  1.5297  0.3010 -0.9902
56911SOL     OW77782   4.014   0.681  11.427  0.0066 -0.0005 -0.2578
56911SOL    HW177783   3.936   0.660  11.376  0.8615 -0.1359 -1.5462
56911SOL    HW277784   4.086   0.677  11.364  0.9363  1.1108  0.6890
56912SOL     OW77785   8.132  10.502  11.265  0.6448 -0.5705  0.2944
56912SOL    HW177786   8.172  10.464  11.187 -1.3322  0.9805 -1.6238
56912SOL    HW277787   8.072  10.434  11.296 -0.1352 -0.4702 -0.8881
56913SOL     OW77788   8.663   1.628  11.173  0.1626  0.4184 -0.6433
56913SOL    HW177789   8.701   1.541  11.168  0.0227  0.2810  0.4260
56913SOL    HW277790   8.570   1.613  11.193  0.2465  0.8057  0.0957
56914SOL     OW77791   6.582  11.173   7.554  0.0388 -0.6021 -0.3674
56914SOL    HW177792   6.584  11.267   7.575 -0.3004 -0.6757 -0.0025
56914SOL    HW277793   6.585  11.170   7.459 -0.2740 -0.2060 -0.3941
56915SOL     OW77794   5.986   4.291   7.025 -0.0384 -0.1759  0.2517
56915SOL    HW177795   5.999   4.324   6.936 -1.2211  1.7973  0.7424
56915SOL    HW277796   5.940   4.208   7.014  3.3242 -2.0807 -1.0608
56916SOL     OW77797   1.104   3.079   2.909 -0.3017  0.4043  0.0445
56916SOL    HW177798   1.150   3.021   2.847 -0.6272 -0.3791  0.5129
56916SOL    HW277799   1.029   3.111   2.860  0.7483  1.7530 -0.7543
56917SOL     OW77800   2.000   3.774   9.218 -0.2313  0.0173 -0.5478
56917SOL    HW177801   1.955   3.690   9.216  3.1813 -1.9920 -1.4263
56917SOL    HW277802   2.088   3.755   9.184  1.0621  3.7348  0.2371
56918SOL     OW77803   6.836   4.335   2.923 -0.5006  0.2457  0.5695
56918SOL    HW177804   6.842   4.424   2.957  0.8799  0.7495 -0.8687
56918SOL    HW277805   6.754   4.332   2.874 -0.6743  0.6300  0.8359
56919SOL     OW77806   8.221   1.264   1.593  0.5632  0.2710 -0.4337
56919SOL    HW177807   8.220   1.345   1.645 -1.1637 -0.1027  0.1746
56919SOL    HW277808   8.257   1.290   1.509 -0.3293  1.7811 -0.3851
56920SOL     OW77809   9.771  12.325   7.419  0.7971  0.3350 -0.6110
56920SOL    HW177810   9.705  12.394   7.412  2.1201  1.9594  1.5451
56920SOL    HW277811   9.724  12.245   7.394 -1.6848  1.5494 -0.2037
56921SOL     OW77812   6.985   0.447   3.375  1.1628 -0.2471 -0.4043
56921SOL    HW177813   7.072   0.463   3.340  1.4265 -1.1954 -0.2057
56921SOL    HW277814   6.926   0.483   3.308  1.6891  0.2682 -0.6071
56922SOL     OW77815   9.451   7.938   1.558 -0.0554 -0.3427 -0.0464
56922SOL    HW177816   9.534   7.915   1.516  0.8583  0.3198  1.3207
56922SOL    HW277817   9.400   7.980   1.488  0.1509 -2.0456 -1.2901
56923SOL     OW77818   2.859  10.492   3.732 -0.0347  0.7114  0.5345
56923SOL    HW177819   2.946  10.532   3.726  0.1750  0.1863 -0.0182
56923SOL    HW277820   2.798  10.563   3.716  0.3544  0.4681 -2.5560
56924SOL     OW77821   4.765   8.949  11.885 -0.0334  0.0692 -0.0211
56924SOL    HW177822   4.705   8.924  11.814  0.3325  1.7645 -1.0102
56924SOL    HW277823   4.723   8.917  11.965 -1.0891 -0.8084 -0.8908
56925SOL     OW77824   9.088   3.071   2.209 -0.3003  0.6247 -0.1303
56925SOL    HW177825   9.060   3.162   2.202  0.2946  0.9035  0.8606
56925SOL    HW277826   9.184   3.076   2.211 -0.2796  0.0921  1.1747
56926SOL     OW77827   7.941   0.504   7.022 -0.7761 -0.2503  0.5978
56926SOL    HW177828   7.970   0.547   7.103 -0.8299 -1.0853  1.0713
56926SOL    HW277829   7.931   0.576   6.960 -1.0218  0.4463  1.4160
56927SOL     OW77830   5.784   7.367   0.463  0.3404 -0.1512 -0.2668
56927SOL    HW177831   5.832   7.345   0.383 -0.5195 -0.4495 -0.7232
56927SOL    HW277832   5.738   7.448   0.441 -2.2602 -1.7373 -1.1883
56928SOL     OW77833   9.043   1.649  12.134 -0.1451  0.1809  0.1309
56928SOL    HW177834   9.021   1.576  12.076 -0.9673 -0.3286  1.0544
56928SOL    HW277835   8.962   1.699  12.142 -0.2479 -0.1384  1.3628
56929SOL     OW77836   6.393  10.970   8.634 -0.4041 -0.2194  0.3781
56929SOL    HW177837   6.322  10.906   8.633 -1.5494  0.9939  0.9637
56929SOL    HW277838   6.366  11.036   8.570  0.6933 -0.2344 -0.1200
56930SOL     OW77839   7.808  11.013   6.254  0.2487 -0.3266  0.2318
56930SOL    HW177840   7.824  11.018   6.160 -0.5201  0.3912  0.1297
56930SOL    HW277841   7.719  10.978   6.261 -0.6595  1.9373  0.6197
56931SOL     OW77842   4.562   0.405   9.795 -0.0439 -0.3072 -0.2117
56931SOL    HW177843   4.512   0.330   9.761 -0.5151 -0.2351  0.2929
56931SOL    HW277844   4.645   0.367   9.824  0.7857 -0.2107 -2.3120
56932SOL     OW77845   4.978   4.242   0.167 -0.4715  0.4791 -0.1672
56932SOL    HW177846   4.938   4.164   0.206  0.6521 -0.0722 -0.0585
56932SOL    HW277847   4.908   4.306   0.163 -2.1718 -1.3301 -2.6419
56933SOL     OW77848   6.943   6.155   4.846  0.6732  0.3378 -0.1214
56933SOL    HW177849   6.944   6.061   4.824  0.7733  0.0900  0.8964
56933SOL    HW277850   6.982   6.198   4.770  2.5991 -0.6358  0.2493
56934SOL     OW77851   3.473   3.912   4.729  0.8350 -0.2682 -0.2194
56934SOL    HW177852   3.487   3.977   4.797 -0.8031 -1.1914  1.0741
56934SOL    HW277853   3.561   3.882   4.705  1.5959  1.8963 -0.4100
56935SOL     OW77854  10.745   7.235   2.335 -0.3237  0.4006  0.0428
56935SOL    HW177855  10.749   7.141   2.315 -0.1110  0.5279 -0.5357
56935SOL    HW277856  10.742   7.277   2.249  3.3914  1.1110  0.1118
56936SOL     OW77857   9.386   2.289   2.305  0.1019  0.0860  0.0904
56936SOL    HW177858   9.382   2.314   2.213  0.4953  1.0149  0.3173
56936SOL    HW277859   9.460   2.229   2.311 -2.5139 -3.6399 -0.9896
56937SOL     OW77860   7.222  10.846   2.948  0.2274  0.6032  0.1944
56937SOL    HW177861   7.263  10.774   2.900 -0.7317  0.5844 -0.6445
56937SOL    HW277862   7.288  10.915   2.947  0.9103 -0.0309  0.4385
56938SOL     OW77863   7.837   0.214  12.281  0.0671 -0.2497 -0.3742
56938SOL    HW177864   7.762   0.179  12.233 -0.2851  1.7167 -1.3602
56938SOL    HW277865   7.811   0.209  12.373 -0.5311 -1.2052 -0.5847
56939SOL     OW77866  10.146   0.002   4.515  0.0004  0.6371  0.7471
56939SOL    HW177867  10.083  -0.068   4.533  0.3203  0.2180  0.2829
56939SOL    HW277868  10.092   0.076   4.485 -0.1938 -0.1595 -0.9821
56940SOL     OW77869   8.523   1.508   1.960 -0.0857  0.0296  0.3006
56940SOL    HW177870   8.616   1.486   1.953  0.2110  1.2375  0.3416
56940SOL    HW277871   8.484   1.471   1.881  0.1816 -1.5910  0.8722
56941SOL     OW77872  11.549   1.038   3.944  0.5759 -0.2543 -0.5496
56941SOL    HW177873  11.501   1.004   4.019  0.1515 -0.3973 -0.8802
56941SOL    HW277874  11.531   0.976   3.874  0.0381  0.4810 -1.0779
56942SOL     OW77875   9.902   7.416   4.132 -0.2224  0.0692 -0.0983
56942SOL    HW177876   9.826   7.445   4.083  0.3538  0.9712 -0.4852
56942SOL    HW277877   9.957   7.372   4.067 -0.7887 -1.3841  0.3506
56943SOL     OW77878   3.729   9.533   7.649 -0.0790  0.0523 -0.1890
56943SOL    HW177879   3.747   9.444   7.619  0.1489  0.4087 -1.1361
56943SOL    HW277880   3.634   9.538   7.652 -0.1529 -1.1089  2.6298
56944SOL     OW77881   9.191   9.441   7.178 -0.4409  1.0443 -0.3866
56944SOL    HW177882   9.234   9.420   7.261  1.5303  1.4372 -1.2515
56944SOL    HW277883   9.165   9.356   7.143  0.3610  0.7120 -0.2043
56945SOL     OW77884   8.871   8.839   8.137 -0.2718  0.0386 -0.1065
56945SOL    HW177885   8.805   8.905   8.113  0.9887  1.2312 -0.4219
56945SOL    HW277886   8.885   8.852   8.230  0.2004  0.4375 -0.2302
56946SOL     OW77887   5.993   7.686   1.794  0.1999  0.0691  0.7991
56946SOL    HW177888   5.902   7.657   1.796  0.0497  0.4812  0.0651
56946SOL    HW277889   6.003   7.739   1.874 -0.5714  1.0924  0.2396
56947SOL     OW77890   8.185  12.367  12.571 -0.3353 -0.8857 -0.5113
56947SOL    HW177891   8.142  12.292  12.528 -1.0368 -1.8590  1.7560
56947SOL    HW277892   8.115  12.411  12.619 -0.0892  1.7502 -2.3519
56948SOL     OW77893  11.981   1.555   7.709 -0.3727 -0.3425  0.5383
56948SOL    HW177894  11.964   1.534   7.801 -1.0261 -0.2309  0.4485
56948SOL    HW277895  11.955   1.476   7.662  0.3932 -0.5696  0.4795
56949SOL     OW77896   2.968   5.302   1.918 -0.2628  0.1752 -0.3076
56949SOL    HW177897   3.026   5.366   1.957  0.6787 -0.9902  0.2715
56949SOL    HW277898   2.887   5.308   1.969  0.7476 -0.9198  1.5342
56950SOL     OW77899   0.858   1.121   9.168  0.3264  0.8703  0.7745
56950SOL    HW177900   0.937   1.106   9.115  1.3217  1.2301  2.0967
56950SOL    HW277901   0.820   1.201   9.132 -1.2617 -0.9358 -1.9276
56951SOL     OW77902  11.954   4.934  12.078 -0.4128 -0.2158  0.5364
56951SOL    HW177903  11.980   5.014  12.033 -1.0912  0.6194  1.5509
56951SOL    HW277904  11.897   4.965  12.150 -0.9010 -1.6266  0.7914
56952SOL     OW77905   6.952   6.192   4.514 -0.6521  0.2400 -0.2177
56952SOL    HW177906   7.024   6.245   4.480 -1.1994  1.1044 -0.0612
56952SOL    HW277907   6.964   6.106   4.474 -0.0935  0.6573 -0.9638
56953SOL     OW77908  10.961   0.795   8.505  0.1047 -0.7302 -0.4987
56953SOL    HW177909  11.018   0.726   8.537 -0.3735 -0.5880  0.7029
56953SOL    HW277910  10.890   0.800   8.569  0.1847  0.9375 -0.4887
56954SOL     OW77911   9.030   1.787   5.732  0.2931 -0.0356 -0.1998
56954SOL    HW177912   8.992   1.711   5.776 -0.8591  0.0813 -0.9541
56954SOL    HW277913   9.083   1.829   5.799  1.3351 -1.7509  0.1023
56955SOL     OW77914   7.069   3.281   5.747 -0.7606 -0.1953  0.3766
56955SOL    HW177915   7.105   3.359   5.707  0.0559  0.2344  1.8660
56955SOL    HW277916   6.995   3.313   5.799  0.0923 -0.2509  1.6701
56956SOL     OW77917   3.248  12.312   0.897  0.5751  0.2176  0.1300
56956SOL    HW177918   3.282  12.235   0.942  3.0518  0.2463 -1.4828
56956SOL    HW277919   3.212  12.278   0.815 -0.9441  0.5117  0.6398
56957SOL     OW77920  11.123   8.879   6.768 -0.1408 -0.3489 -0.0240
56957SOL    HW177921  11.155   8.798   6.729  0.5494 -0.4263  0.6905
56957SOL    HW277922  11.132   8.866   6.862 -0.8164  0.2388  0.1326
56958SOL     OW77923  12.578   9.297   9.719  0.0986  0.2621  0.5161
56958SOL    HW177924  12.597   9.287   9.812 -1.1087  0.7068  0.8319
56958SOL    HW277925  12.576   9.208   9.685  2.9287  0.1713  0.3629
56959SOL     OW77926   7.128   0.422   0.070  0.2072  0.5199  0.0485
56959SOL    HW177927   7.126   0.480   0.146  2.5750  1.3277 -0.4387
56959SOL    HW277928   7.150   0.336   0.106 -0.8113  0.4298  0.4872
56960SOL     OW77929  11.427   7.863   2.103 -0.2031 -0.1201  0.4902
56960SOL    HW177930  11.390   7.777   2.080  0.3976 -0.1458 -0.4501
56960SOL    HW277931  11.520   7.847   2.114  0.1172  0.6163 -0.9304
56961SOL     OW77932   2.498  12.181   2.646  0.2693 -0.1176  0.8064
56961SOL    HW177933   2.511  12.219   2.733  0.5132  0.6433  0.4409
56961SOL    HW277934   2.520  12.251   2.585 -1.6315 -0.0728  0.1232
56962SOL     OW77935   5.364   4.190  11.362  0.1173 -0.0289 -0.5729
56962SOL    HW177936   5.408   4.275  11.366  0.0351  0.0354 -1.0365
56962SOL    HW277937   5.290   4.199  11.422 -0.0592  0.3232 -0.8422
56963SOL     OW77938  12.154   6.134  11.359  0.2494 -0.5533 -0.4015
56963SOL    HW177939  12.193   6.217  11.331 -0.0654  0.2218  1.3024
56963SOL    HW277940  12.062   6.142  11.335  0.3283 -0.6388 -0.7325
56964SOL     OW77941   0.383   1.410   4.116  0.5306 -0.6468  0.9721
56964SOL    HW177942   0.340   1.351   4.178  0.8110 -4.6239 -2.2502
56964SOL    HW277943   0.319   1.421   4.045  1.1814  1.6455  0.6419
56965SOL     OW77944   8.419   8.459   6.462 -0.5848 -0.3507  0.3271
56965SOL    HW177945   8.422   8.510   6.381  1.2134  0.3154  0.7674
56965SOL    HW277946   8.335   8.483   6.502 -1.5320 -0.7426 -1.3269
56966SOL     OW77947  10.069   9.236   6.129  0.1610 -0.6405  0.2897
56966SOL    HW177948  10.162   9.259   6.124 -0.1819  0.5679 -2.4457
56966SOL    HW277949  10.023   9.314   6.098 -1.8307 -1.1292  1.7569
56967SOL     OW77950   4.026   9.737  10.846  0.0949 -0.1957  0.5571
56967SOL    HW177951   4.032   9.818  10.796  1.7797 -0.5087  0.2034
56967SOL    HW277952   4.035   9.667  10.780 -0.6894 -0.6751  0.9367
56968SOL     OW77953   9.830   8.748   7.169  0.1680 -0.0486 -0.5805
56968SOL    HW177954   9.881   8.728   7.090 -0.5016  0.4657 -1.1531
56968SOL    HW277955   9.739   8.735   7.142 -0.1162  1.0010 -0.1442
56969SOL     OW77956   4.431   5.533   9.369  0.3140 -0.0107  0.4981
56969SOL    HW177957   4.378   5.477   9.312  3.0140  0.5759 -2.9374
56969SOL    HW277958   4.373   5.606   9.392 -0.8024  0.0154 -2.0612
56970SOL     OW77959   4.278  11.525   6.684  0.2709 -0.2368 -0.1650
56970SOL    HW177960   4.347  11.590   6.696  1.2470 -1.2001 -0.3355
56970SOL    HW277961   4.198  11.575   6.678  0.9927  0.9391 -0.2336
56971SOL     OW77962   2.424  12.414   4.031  0.1855 -0.4103 -0.0043
56971SOL    HW177963   2.431  12.496   4.080 -0.0776 -0.9756  1.0165
56971SOL    HW277964   2.395  12.440   3.944 -2.7406  0.3739  1.0942
56972SOL     OW77965   3.014   2.729   9.711  0.0323 -0.2218 -0.2377
56972SOL    HW177966   2.956   2.804   9.727  0.4205 -0.1678  1.1004
56972SOL    HW277967   2.960   2.652   9.727  0.2587 -0.1717  0.9238
56973SOL     OW77968   4.493   4.865   2.483 -0.6274  0.2190 -0.3573
56973SOL    HW177969   4.588   4.879   2.485 -0.5931 -0.0431  0.0452
56973SOL    HW277970   4.471   4.839   2.573 -1.1667  0.8119 -0.3098
56974SOL     OW77971   6.928   6.151  11.800 -0.2049 -0.1336 -0.0251
56974SOL    HW177972   6.909   6.066  11.761 -1.6951  0.7993 -1.4973
56974SOL    HW277973   6.890   6.147  11.888 -0.6972 -0.8375 -0.2633
56975SOL     OW77974  10.225   6.388   2.765  0.3506 -0.0808 -0.3416
56975SOL    HW177975  10.313   6.421   2.745 -0.4282  2.1093 -0.3948
56975SOL    HW277976  10.195   6.350   2.683  1.2430 -0.9211 -0.3079
56976SOL     OW77977  10.543   8.269  12.146 -0.0080 -0.5383  0.0505
56976SOL    HW177978  10.632   8.240  12.168  1.1753  0.9340 -2.3251
56976SOL    HW277979  10.513   8.206  12.080 -1.1797 -1.5838  1.5172
56977SOL     OW77980   6.679  10.442   5.895  0.4283 -0.2944  0.1832
56977SOL    HW177981   6.707  10.403   5.812 -2.5923  0.5924 -1.4118
56977SOL    HW277982   6.607  10.386   5.924  0.1638  0.5333  1.1829
56978SOL     OW77983   9.435   5.798   9.781 -0.1604 -0.2743  0.0492
56978SOL    HW177984   9.443   5.742   9.704  1.4015 -1.2526  0.8894
56978SOL    HW277985   9.403   5.740   9.850 -0.2143  0.2827  0.5028
56979SOL     OW77986   5.335   8.532   0.986  0.7572 -0.7404 -0.0849
56979SOL    HW177987   5.357   8.618   1.021  0.6791 -0.0354 -1.6748
56979SOL    HW277988   5.419   8.488   0.976  1.3048  0.7674 -3.1809
56980SOL     OW77989   3.080   2.502   8.556  0.0930 -0.4565 -0.3903
56980SOL    HW177990   3.016   2.571   8.572  1.3004  0.5687  0.1749
56980SOL    HW277991   3.112   2.519   8.467  0.1760 -0.4635 -0.3618
56981SOL     OW77992   9.160   1.473   8.966 -0.6319  0.4227 -0.5950
56981SOL    HW177993   9.067   1.487   8.980 -0.4078  1.9685 -0.5384
56981SOL    HW277994   9.173   1.484   8.871 -0.1467  2.7463 -0.3141
56982SOL     OW77995   1.971   3.806   0.092 -0.0405 -0.4219  0.4021
56982SOL    HW177996   2.063   3.795   0.115  0.7771  1.0483 -1.8707
56982SOL    HW277997   1.952   3.898   0.112 -0.7797 -0.4883  0.0391
56983SOL     OW77998  11.079   2.489   1.673  0.0498  0.2998 -0.3839
56983SOL    HW177999  11.072   2.410   1.726  1.3716  0.1387 -0.4272
56983SOL    HW278000  11.006   2.482   1.611 -0.3830 -0.4288  0.1831
56984SOL     OW78001   5.569   1.077  12.334 -0.0922 -0.0428 -0.0696
56984SOL    HW178002   5.633   1.132  12.379 -1.1238 -0.6492  2.2620
56984SOL    HW278003   5.493   1.134  12.320 -1.0509 -0.6683  2.0906
56985SOL     OW78004   2.292   8.274   3.930  0.8321  0.0341  0.1174
56985SOL    HW178005   2.311   8.361   3.963  0.8617 -0.2113  0.7527
56985SOL    HW278006   2.221   8.241   3.985 -0.6162  0.4335 -1.4104
56986SOL     OW78007   8.627   6.734  10.431 -0.2517  0.3628 -0.0485
56986SOL    HW178008   8.659   6.644  10.445 -0.6984 -0.1570 -1.9601
56986SOL    HW278009   8.676   6.787  10.493  1.5206 -0.9374 -0.2482
56987SOL     OW78010   9.682   2.161   7.046 -0.7468  0.0996  0.8698
56987SOL    HW178011   9.646   2.080   7.011  2.0968 -0.6282 -0.6950
56987SOL    HW278012   9.648   2.229   6.989  0.0799 -0.5230 -0.3966
56988SOL     OW78013   2.978   1.584   3.603  0.1723 -0.5026  0.8897
56988SOL    HW178014   3.003   1.639   3.529  0.6642 -1.2246  0.5104
56988SOL    HW278015   2.947   1.502   3.563  2.9413 -1.9592  1.4904
56989SOL     OW78016   7.191   6.385   1.709  0.2207  0.5219  0.4543
56989SOL    HW178017   7.244   6.313   1.744  0.3351  0.3830  0.0071
56989SOL    HW278018   7.167   6.356   1.621 -0.5273  0.6219  0.6136
56990SOL     OW78019  12.427  11.848   8.566  0.5488 -0.0124  0.0602
56990SOL    HW178020  12.518  11.840   8.537  0.5035  0.3426 -0.1944
56990SOL    HW278021  12.430  11.831   8.660  0.8186 -0.3857 -0.0133
56991SOL     OW78022   4.805   0.756   9.381  0.0550  0.0222 -0.0633
56991SOL    HW178023   4.767   0.687   9.436  0.3157 -0.0992 -0.0325
56991SOL    HW278024   4.886   0.779   9.425  0.8592 -0.9079 -1.0143
56992SOL     OW78025   1.552  10.247   0.862 -0.4720  0.1528  0.1929
56992SOL    HW178026   1.493  10.248   0.937  0.6995 -0.8218  1.1574
56992SOL    HW278027   1.526  10.324   0.810 -0.1322  1.9647  2.5255
56993SOL     OW78028  11.411  11.207   8.100 -0.0724  0.3836  0.1151
56993SOL    HW178029  11.400  11.249   8.186 -0.6753 -0.8418  0.6547
56993SOL    HW278030  11.493  11.244   8.066 -0.2653  1.5173  0.8338
56994SOL     OW78031   4.737   5.982   9.530  0.5708 -0.2174 -0.4320
56994SOL    HW178032   4.793   6.057   9.549  1.3835 -0.5154 -1.5285
56994SOL    HW278033   4.714   5.946   9.616  2.3253 -0.2559  0.0558
56995SOL     OW78034  11.162   7.692  10.477 -0.0502 -0.1934  0.0939
56995SOL    HW178035  11.148   7.763  10.415  1.1304  0.2907  0.3462
56995SOL    HW278036  11.130   7.614  10.432  0.0567  0.2726 -0.8144
56996SOL     OW78037   1.005   8.750   8.736  0.2932 -0.8841  0.0982
56996SOL    HW178038   1.001   8.831   8.788 -0.5610  0.1429 -1.4848
56996SOL    HW278039   1.087   8.757   8.688  0.5500 -1.2998  0.4737
56997SOL     OW78040   3.512   5.736   8.940  0.3324  0.4122 -0.0349
56997SOL    HW178041   3.532   5.675   9.011  1.2199 -0.2099 -0.7944
56997SOL    HW278042   3.586   5.797   8.940  0.5510  0.1549 -0.6845
56998SOL     OW78043   1.279   6.376   6.264  0.5704 -0.4412 -0.9873
56998SOL    HW178044   1.350   6.374   6.200 -0.5392 -0.5399 -2.2308
56998SOL    HW278045   1.205   6.415   6.218  0.0920  0.6348  0.6045
56999SOL     OW78046   0.490   5.914   3.747 -0.1146  0.1044 -0.0945
56999SOL    HW178047   0.442   5.871   3.818 -1.4041  2.7149  0.7381
56999SOL    HW278048   0.459   5.870   3.668  0.3008 -1.9291  0.8000
57000SOL     OW78049   3.109  12.430   1.925 -0.1306  0.3162 -0.5000
57000SOL    HW178050   3.074  12.491   1.989 -0.4447 -1.2015  0.8332
57000SOL    HW278051   3.038  12.367   1.910  0.1790  0.2585 -1.8318
57001SOL     OW78052   6.525   0.884   8.249  0.4092 -0.4389 -0.0204
57001SOL    HW178053   6.620   0.873   8.244  0.4846 -0.4432  1.1601
57001SOL    HW278054   6.506   0.887   8.343 -0.4210  2.4248 -0.1820
57002SOL     OW78055   7.328   5.949   6.258 -0.6694 -0.2859  0.6214
57002SOL    HW178056   7.407   5.941   6.311 -1.4971  0.0689  1.9494
57002SOL    HW278057   7.342   5.889   6.184 -0.9756 -3.6881  3.0815
57003SOL     OW78058   1.967   8.561   9.587 -0.0498 -0.5529  0.1880
57003SOL    HW178059   2.009   8.644   9.610  0.7833 -1.1006  0.7120
57003SOL    HW278060   1.880   8.586   9.555  0.1088  0.4994  0.5345
57004SOL     OW78061   9.055   4.739   6.847 -0.8324 -0.0714  0.0893
57004SOL    HW178062   9.022   4.658   6.809  1.2841 -0.8297 -0.2967
57004SOL    HW278063   9.074   4.717   6.938  1.8174 -0.7599 -0.5441
57005SOL     OW78064   3.477   7.843   3.545  0.4519 -0.0885 -0.9182
57005SOL    HW178065   3.566   7.864   3.516  0.9556  1.8629  1.6517
57005SOL    HW278066   3.420   7.889   3.483  1.3720  1.0870 -0.9359
57006SOL     OW78067   1.548   2.597   6.690  0.6372  0.1069  0.3508
57006SOL    HW178068   1.632   2.601   6.644  0.5074 -2.7206 -0.3265
57006SOL    HW278069   1.482   2.613   6.622  0.5492 -0.7199  0.2351
57007SOL     OW78070   6.762   7.925   7.297 -0.3719 -0.9268  0.5259
57007SOL    HW178071   6.842   7.906   7.346  0.8892  2.4188  0.0093
57007SOL    HW278072   6.725   8.001   7.340 -0.9912  0.1360 -1.7318
57008SOL     OW78073  12.299  11.224   6.794 -0.5401  0.6919  0.0046
57008SOL    HW178074  12.273  11.170   6.869  0.4169  0.7989  0.4274
57008SOL    HW278075  12.367  11.282   6.828  1.0497 -0.3158 -1.2866
57009SOL     OW78076  10.166   7.262   6.620 -0.1522 -0.3341  0.2278
57009SOL    HW178077  10.074   7.253   6.645 -0.1884  1.1238  0.7442
57009SOL    HW278078  10.164   7.312   6.538  0.1898  1.3846  1.2013
57010SOL     OW78079   2.926   8.362   4.778  0.0177 -0.0409  0.6525
57010SOL    HW178080   2.925   8.276   4.737 -0.1569 -0.9623  2.4767
57010SOL    HW278081   2.854   8.359   4.841  1.0343  0.8195  1.9129
57011SOL     OW78082  12.064   4.144   1.505  0.1279  0.8286 -0.4204
57011SOL    HW178083  11.973   4.167   1.523  0.0538  2.0373 -2.0283
57011SOL    HW278084  12.065   4.048   1.503 -0.6670  0.7460  1.5559
57012SOL     OW78085  12.199   7.338   5.136 -0.4211 -0.0630 -0.0025
57012SOL    HW178086  12.105   7.337   5.149 -0.2342 -1.1418  1.4865
57012SOL    HW278087  12.218   7.257   5.088 -0.3349  0.6301 -1.1838
57013SOL     OW78088   8.574   2.204   4.922 -0.7006 -0.1308  0.3903
57013SOL    HW178089   8.670   2.203   4.927 -0.7694 -0.9730  2.2111
57013SOL    HW278090   8.548   2.113   4.938 -1.8323  0.1430  0.2127
57014SOL     OW78091   2.577   1.236   1.474 -0.8628 -0.5757  0.2161
57014SOL    HW178092   2.503   1.294   1.453  0.1576  1.0598  0.9354
57014SOL    HW278093   2.645   1.261   1.412 -0.6597 -1.5641  0.0310
57015SOL     OW78094   2.151   4.697  11.300  0.2753  0.3630 -0.7434
57015SOL    HW178095   2.198   4.735  11.374  0.6193 -2.0742  0.3790
57015SOL    HW278096   2.106   4.621  11.336 -1.4467  0.4245 -2.5966
57016SOL     OW78097   1.865   2.611   6.557  0.2642  0.0310 -0.4695
57016SOL    HW178098   1.874   2.563   6.475 -1.0416 -0.3693 -0.4026
57016SOL    HW278099   1.798   2.676   6.539  0.8023  0.7116 -0.0507
57017SOL     OW78100   6.121   0.987   9.930  0.7112  0.2091 -0.3881
57017SOL    HW178101   6.144   0.894   9.927  0.9669  0.2837 -1.1860
57017SOL    HW278102   6.059   0.998   9.857 -0.9371  0.2598  0.9753
57018SOL     OW78103   0.178   0.522   1.358 -0.2014 -0.0725  0.5393
57018SOL    HW178104   0.167   0.427   1.360  0.6075 -0.1690  0.8753
57018SOL    HW278105   0.152   0.551   1.445 -0.5597  0.0308  0.3993
57019SOL     OW78106   5.010   9.004   3.390  0.1748  0.4528 -0.4791
57019SOL    HW178107   5.042   9.094   3.381 -0.4020  0.7013 -0.0862
57019SOL    HW278108   4.931   9.001   3.335 -0.9646  0.7781  1.0779
57020SOL     OW78109  11.579  12.165   6.705 -0.4001 -0.3868  0.3592
57020SOL    HW178110  11.570  12.073   6.730 -3.3431 -0.6364 -1.1624
57020SOL    HW278111  11.618  12.162   6.618  0.9235 -0.0535  0.9163
57021SOL     OW78112   0.826  12.176   9.030  1.0703 -0.7392 -0.1497
57021SOL    HW178113   0.780  12.248   8.988  0.4163 -0.7919  0.4608
57021SOL    HW278114   0.825  12.106   8.965 -0.6586 -1.1043  0.2427
57022SOL     OW78115   8.577   3.128   9.688 -0.0653  0.4922  0.9728
57022SOL    HW178116   8.540   3.198   9.742 -0.6670 -0.0600  1.2797
57022SOL    HW278117   8.502   3.081   9.654  0.3287  0.3504  0.2817
57023SOL     OW78118  11.915   0.876   5.018  0.4542 -0.7213 -0.1690
57023SOL    HW178119  11.995   0.848   4.974  0.5914  0.2822 -0.5949
57023SOL    HW278120  11.944   0.936   5.086  0.0884 -0.5552 -0.1537
57024SOL     OW78121   6.663  11.129   4.853  0.0502  0.5862  0.0330
57024SOL    HW178122   6.671  11.118   4.948  3.7867 -0.5436 -0.2745
57024SOL    HW278123   6.569  11.133   4.838 -0.9451 -3.3883  3.3574
57025SOL     OW78124   9.590   9.243   4.223 -0.1909  0.2861  0.1150
57025SOL    HW178125   9.540   9.256   4.142  1.7955 -0.7157 -1.3788
57025SOL    HW278126   9.614   9.150   4.221  1.5869  0.6930  0.7943
57026SOL     OW78127  10.715  11.121   1.272  0.2710  0.2552 -0.0236
57026SOL    HW178128  10.673  11.130   1.358 -0.7309 -2.2874 -0.1473
57026SOL    HW278129  10.643  11.125   1.209  0.4767 -1.6065 -0.4316
57027SOL     OW78130   0.087   2.897   0.487 -0.0655 -0.5826  0.8647
57027SOL    HW178131   0.014   2.955   0.506  0.4973  1.2829 -2.1438
57027SOL    HW278132   0.149   2.914   0.558 -0.7337  1.0849  1.0966
57028SOL     OW78133  11.469   4.111  11.758 -0.0624 -0.7431 -0.0939
57028SOL    HW178134  11.427   4.155  11.684 -0.4657  0.0392  0.5811
57028SOL    HW278135  11.420   4.029  11.768 -1.3570  0.0891  0.5863
57029SOL     OW78136   1.900   7.020   7.292 -0.0765 -0.2104  0.1023
57029SOL    HW178137   1.971   7.063   7.339 -0.4175  1.9323 -1.1966
57029SOL    HW278138   1.826   7.022   7.353  0.1083  0.4356  0.3111
57030SOL     OW78139   0.371   4.414  11.819  0.1489  0.2680 -0.3383
57030SOL    HW178140   0.445   4.358  11.843  0.2819  1.2374  1.6745
57030SOL    HW278141   0.361   4.473  11.893 -1.6522  1.2016 -1.2791
57031SOL     OW78142   6.035  12.412   7.636  0.1694 -0.0144  0.5687
57031SOL    HW178143   6.088  12.454   7.569  0.0502 -1.7177 -0.6776
57031SOL    HW278144   6.070  12.323   7.641 -1.6313 -0.7566  0.7298
57032SOL     OW78145  10.712   0.041   1.810 -0.2038  0.1986  0.4774
57032SOL    HW178146  10.784   0.051   1.872  0.0063 -1.0702  0.4611
57032SOL    HW278147  10.728   0.109   1.744  0.6178  0.3370  0.8047
57033SOL     OW78148   3.224   4.777   7.924 -0.9015 -0.5227 -0.0923
57033SOL    HW178149   3.184   4.811   7.844 -1.3920 -0.7823  0.0392
57033SOL    HW278150   3.284   4.847   7.952 -0.2713 -0.6846 -1.0069
57034SOL     OW78151  10.182   7.404  11.155 -0.1207  0.1826 -0.0619
57034SOL    HW178152  10.118   7.474  11.174 -0.1865  0.2999 -0.7117
57034SOL    HW278153  10.137   7.324  11.180 -0.5564  0.2588 -0.5935
57035SOL     OW78154   1.343   3.130   5.068  0.1146  0.0385 -0.2014
57035SOL    HW178155   1.421   3.135   5.012  0.7310  2.0289  0.7307
57035SOL    HW278156   1.310   3.220   5.071 -1.0039 -0.3755  1.1209
57036SOL     OW78157   0.200   2.374   6.298 -0.1648 -0.3493  0.2963
57036SOL    HW178158   0.177   2.450   6.245  0.7546 -0.2079  0.0769
57036SOL    HW278159   0.118   2.326   6.309 -0.4402 -0.2018 -0.9597
57037SOL     OW78160   9.230   4.267   3.796 -0.2698  0.1376  0.0993
57037SOL    HW178161   9.256   4.247   3.886  0.9640  3.7348  0.7267
57037SOL    HW278162   9.313   4.279   3.749 -0.9033 -0.8316 -1.3539
57038SOL     OW78163   0.983  12.373   5.793  0.6157  0.6267 -0.3874
57038SOL    HW178164   0.928  12.328   5.728  0.2197 -0.1927  0.4763
57038SOL    HW278165   1.040  12.304   5.827 -1.0550  0.3318  2.0804
57039SOL     OW78166   5.240   7.807   3.293 -0.2781 -0.1985 -0.1029
57039SOL    HW178167   5.160   7.859   3.283  1.2063  2.3882  0.5276
57039SOL    HW278168   5.305   7.869   3.327  1.8610 -2.3242 -0.0399
57040SOL     OW78169   6.655   3.533   0.370  0.1445  0.0851  0.2844
57040SOL    HW178170   6.695   3.479   0.302 -1.0433 -0.7270  0.1966
57040SOL    HW278171   6.709   3.516   0.448  0.6481 -0.1004 -0.0940
57041SOL     OW78172   7.853   7.253   6.875  0.0662  0.0146 -0.7299
57041SOL    HW178173   7.765   7.289   6.865  0.5038  1.2393 -0.3188
57041SOL    HW278174   7.857   7.221   6.965  0.0791  0.0835 -0.7057
57042SOL     OW78175  10.974   7.594   4.332  0.3379  0.4708 -0.4269
57042SOL    HW178176  10.891   7.638   4.350 -1.2909 -1.6801 -2.0844
57042SOL    HW278177  10.982   7.528   4.402  0.6260  0.6107 -0.3242
57043SOL     OW78178   5.182   9.333   4.522  0.1116  0.3015  0.1211
57043SOL    HW178179   5.088   9.348   4.531  0.1427 -0.7784  3.4354
57043SOL    HW278180   5.191   9.239   4.512  0.8630  0.3491  0.2654
57044SOL     OW78181  12.240   6.228   6.487  0.3806 -0.2532  0.0909
57044SOL    HW178182  12.233   6.280   6.567  0.0347  2.7951 -1.7400
57044SOL    HW278183  12.153   6.190   6.475  0.0471  0.3581  0.5192
57045SOL     OW78184   4.032  10.720  12.507  0.1497  0.4903 -1.0954
57045SOL    HW178185   4.036  10.679  12.421 -0.1763 -0.4038 -0.7005
57045SOL    HW278186   3.938  10.728  12.525  0.1999  1.9153 -1.3887
57046SOL     OW78187   5.728   2.495   9.887 -0.4751  0.6000  0.1068
57046SOL    HW178188   5.670   2.508   9.962  0.9329  0.0587  1.3380
57046SOL    HW278189   5.761   2.406   9.899 -1.4050 -0.0872 -2.0315
57047SOL     OW78190  12.466  11.350   0.713 -0.1017 -0.2221  0.2959
57047SOL    HW178191  12.524  11.290   0.758  0.3086  0.0216  0.1010
57047SOL    HW278192  12.403  11.378   0.779 -0.5372 -1.1614  0.2909
57048SOL     OW78193   5.138  11.702   0.960 -1.4778  0.6440 -0.3688
57048SOL    HW178194   5.188  11.764   0.906  0.1478 -1.2453 -1.1247
57048SOL    HW278195   5.181  11.705   1.045  0.5714 -1.5405 -1.2261
57049SOL     OW78196   7.454   5.606   5.781 -0.3887  0.3339 -0.1407
57049SOL    HW178197   7.478   5.515   5.802 -0.4871  0.2826 -0.2477
57049SOL    HW278198   7.368   5.619   5.820 -0.4014  0.3619 -0.1780
57050SOL     OW78199   9.119   1.059   5.534 -0.4470  0.0778  0.5354
57050SOL    HW178200   9.039   1.051   5.483 -0.0125  0.4494 -0.2230
57050SOL    HW278201   9.091   1.049   5.625 -0.9736 -2.7995  0.1543
57051SOL     OW78202   9.132   3.614  10.322  0.5270  0.1817  0.0281
57051SOL    HW178203   9.131   3.521  10.344 -0.2118  0.1093 -0.2965
57051SOL    HW278204   9.152   3.658  10.405  1.6406 -0.2987  0.0269
57052SOL     OW78205   9.826   3.900   6.660 -0.2928 -0.3812  0.9390
57052SOL    HW178206   9.906   3.946   6.634 -1.2502  0.0043 -1.5493
57052SOL    HW278207   9.845   3.808   6.643 -0.4822 -0.2570  0.0347
57053SOL     OW78208   6.968   1.530   9.325  0.0084  0.4132 -0.1760
57053SOL    HW178209   7.007   1.443   9.313  0.8310  0.9796 -1.9714
57053SOL    HW278210   6.882   1.513   9.363 -0.7105 -1.3710 -2.3723
57054SOL     OW78211   8.399   6.128   4.812  0.0117  0.1846  0.7413
57054SOL    HW178212   8.313   6.090   4.830 -1.3044  2.5349 -0.2224
57054SOL    HW278213   8.393   6.161   4.723  1.9604  0.3350  0.6250
57055SOL     OW78214  11.777   0.219   3.226  0.1424 -1.0037 -0.3178
57055SOL    HW178215  11.810   0.166   3.153 -0.5232 -2.2852  0.2774
57055SOL    HW278216  11.785   0.163   3.302  3.1720  1.1668  1.1681
57056SOL     OW78217  10.226   7.188   3.812 -0.4301 -0.0664  0.2937
57056SOL    HW178218  10.232   7.139   3.731  0.4604  1.4540 -0.6118
57056SOL    HW278219  10.292   7.149   3.870  0.9651  0.6412 -0.7614
57057SOL     OW78220   5.269   0.149  11.590  0.1211  0.4039  0.0385
57057SOL    HW178221   5.198   0.188  11.641  0.3632  1.4150 -0.3662
57057SOL    HW278222   5.267   0.056  11.612 -1.2133  0.4452  0.1655
57058SOL     OW78223   6.482  12.183   6.355 -0.5877 -0.3521  0.1963
57058SOL    HW178224   6.394  12.156   6.380 -0.2744 -0.8512  0.7768
57058SOL    HW278225   6.476  12.278   6.345 -1.7748 -0.5865 -2.1579
57059SOL     OW78226   1.820   8.035   9.746  0.3989  0.1890  0.5222
57059SOL    HW178227   1.852   7.949   9.771  0.0379 -0.0461  0.1835
57059SOL    HW278228   1.897   8.092   9.750  0.5967 -0.1091  0.9313
57060SOL     OW78229   9.771   0.404   0.021 -0.4291 -0.1569  0.0601
57060SOL    HW178230   9.800   0.408   0.112 -1.1400 -0.5987  0.3202
57060SOL    HW278231   9.675   0.397   0.027 -0.5443  0.5144 -0.7399
57061SOL     OW78232   0.959   3.558   1.346  0.1944 -0.2862 -0.6443
57061SOL    HW178233   0.932   3.625   1.285  3.4655  3.3244  1.4166
57061SOL    HW278234   0.927   3.588   1.431  4.9716  1.1499  0.9582
57062SOL     OW78235   3.885   8.322   9.472  0.3131 -0.4223  0.1970
57062SOL    HW178236   3.801   8.342   9.512  0.7460  0.6904  0.5691
57062SOL    HW278237   3.893   8.227   9.481 -1.9468 -0.9144 -1.9391
57063SOL     OW78238  10.314   0.311   0.152 -0.0397  0.1451  0.2003
57063SOL    HW178239  10.330   0.221   0.125  2.0751  0.5341 -0.0385
57063SOL    HW278240  10.265   0.350   0.079  1.8490  0.0265 -1.1989
57064SOL     OW78241  10.200   7.290   4.831  0.5363  0.4588  0.3316
57064SOL    HW178242  10.123   7.245   4.795  1.0171 -2.0749  2.1930
57064SOL    HW278243  10.265   7.287   4.760 -0.4780  1.1156 -0.6646
57065SOL     OW78244   5.922   4.527  11.438  0.0686 -0.3948  0.3685
57065SOL    HW178245   5.938   4.469  11.512 -3.0714  1.1942  2.5328
57065SOL    HW278246   5.974   4.606  11.457  0.4988 -0.5885  0.0148
57066SOL     OW78247   3.945   1.458   3.342  0.1459  0.7816  0.0639
57066SOL    HW178248   3.969   1.370   3.370 -0.4099 -0.1386 -2.1304
57066SOL    HW278249   3.904   1.498   3.419 -0.7642 -1.3471  0.7524
57067SOL     OW78250  12.289  11.344   2.767  1.2212 -0.2865 -0.0701
57067SOL    HW178251  12.296  11.349   2.672 -0.1131  0.0205 -0.1738
57067SOL    HW278252  12.206  11.298   2.783  1.0017  0.4202  0.9394
57068SOL     OW78253   4.338   8.434   2.226 -0.3194 -0.2349  0.9415
57068SOL    HW178254   4.348   8.486   2.147 -0.0258 -0.3595  0.8928
57068SOL    HW278255   4.328   8.344   2.194  0.5618 -0.3868  1.0611
57069SOL     OW78256  11.955   2.906   6.872  0.2476 -0.3749 -0.3430
57069SOL    HW178257  11.905   2.866   6.943  0.7544  0.2783  0.3921
57069SOL    HW278258  11.921   2.864   6.793 -1.8881  0.4549  0.0486
57070SOL     OW78259   6.547   0.424   5.635  0.9741  0.3367 -0.3258
57070SOL    HW178260   6.572   0.421   5.727  0.2313  1.6611 -0.0579
57070SOL    HW278261   6.453   0.404   5.635  1.1619 -0.6261 -0.9138
57071SOL     OW78262   6.853   8.102  12.471  0.9398  0.3701  0.0446
57071SOL    HW178263   6.890   8.190  12.472 -0.5202  1.0252 -0.2723
57071SOL    HW278264   6.774   8.110  12.417 -0.7977 -0.4425  2.2853
57072SOL     OW78265   7.413   7.340   6.720 -0.1305 -0.0144  0.0427
57072SOL    HW178266   7.494   7.392   6.718 -0.8877  1.2268  0.0373
57072SOL    HW278267   7.374   7.362   6.805 -1.1421  0.5197 -0.5434
57073SOL     OW78268   7.154   0.733   3.965 -0.4038  0.1665  0.3987
57073SOL    HW178269   7.137   0.656   4.019  0.1757 -1.0601 -1.1043
57073SOL    HW278270   7.249   0.740   3.961 -0.4387  1.2927  0.9283
57074SOL     OW78271  11.201  10.421   4.917 -0.3069 -0.2692  0.2728
57074SOL    HW178272  11.179  10.330   4.897  0.1342 -0.0161 -1.5656
57074SOL    HW278273  11.270  10.415   4.983  2.0066 -1.4534 -2.0785
57075SOL     OW78274   4.292  11.118   9.424  0.5396 -0.3151  0.3666
57075SOL    HW178275   4.345  11.172   9.482 -1.6307  0.9051  1.3225
57075SOL    HW278276   4.261  11.047   9.480  1.8105 -1.5296 -0.4083
57076SOL     OW78277   7.633   0.345   7.005 -0.0040  0.2859 -0.6436
57076SOL    HW178278   7.561   0.324   7.066  0.7442 -1.8961 -0.4187
57076SOL    HW278279   7.659   0.433   7.029  0.1912 -0.4392  2.2012
57077SOL     OW78280   3.809   2.379   2.823  0.1501  0.0050  0.2273
57077SOL    HW178281   3.890   2.370   2.773  0.0221 -1.8463  0.2923
57077SOL    HW278282   3.836   2.368   2.915 -0.0239  0.5498  0.3498
57078SOL     OW78283   1.376   5.207   2.377 -0.0599 -0.2423 -0.7490
57078SOL    HW178284   1.364   5.267   2.451 -1.3906 -0.9112 -0.4127
57078SOL    HW278285   1.298   5.153   2.376  0.1690 -0.5944 -2.3448
57079SOL     OW78286   1.043   3.938   8.028 -0.1998 -0.2043 -0.5676
57079SOL    HW178287   1.070   3.979   8.110 -1.1397 -1.0886  0.2124
57079SOL    HW278288   1.102   3.863   8.018 -1.6387 -1.5504  0.6193
57080SOL     OW78289   5.529   8.105   2.561  0.5717  0.3277  0.1810
57080SOL    HW178290   5.583   8.110   2.640  0.6587 -0.0262  0.1445
57080SOL    HW278291   5.460   8.043   2.582  0.5913  0.2372 -0.0203
57081SOL     OW78292   1.612  11.088  10.305 -0.1943 -0.3948  0.4100
57081SOL    HW178293   1.681  11.138  10.350 -0.1328 -0.6262  0.5777
57081SOL    HW278294   1.650  11.064  10.221 -0.8958  1.4690 -0.4895
57082SOL     OW78295   7.096   2.429  11.763  0.6425 -0.0828 -0.2199
57082SOL    HW178296   7.168   2.369  11.781  0.2291 -0.5659 -0.1339
57082SOL    HW278297   7.101   2.494  11.833 -0.2562 -1.3089  1.0515
57083SOL     OW78298   7.850   6.814   2.243 -0.4968 -0.2835  0.0599
57083SOL    HW178299   7.933   6.775   2.216  0.6441  1.4848  0.8754
57083SOL    HW278300   7.813   6.849   2.162  0.3732  0.3728 -0.0701
57084SOL     OW78301   2.066  10.420   3.457  0.3347 -0.0768  0.6206
57084SOL    HW178302   2.033  10.429   3.368  0.2036  1.8517  0.8150
57084SOL    HW278303   2.001  10.366   3.502 -0.8502  0.9121  0.1430
57085SOL     OW78304   6.000   3.123   1.247 -0.4065  0.0007  0.2964
57085SOL    HW178305   6.028   3.035   1.272  0.4099  0.6431  1.7720
57085SOL    HW278306   5.942   3.151   1.318 -0.4732  0.7417 -0.0437
57086SOL     OW78307   2.417  10.270   1.010 -0.2624  0.2433 -0.3897
57086SOL    HW178308   2.493  10.212   1.022  0.4890  0.6468 -2.7568
57086SOL    HW278309   2.342  10.214   1.030  0.4948 -1.2719 -1.5549
57087SOL     OW78310   7.772   8.819   2.199  0.6727 -0.2550  0.2201
57087SOL    HW178311   7.819   8.752   2.248  2.3020  0.4196 -0.3462
57087SOL    HW278312   7.753   8.778   2.115 -1.7454 -1.2654  1.1717
57088SOL     OW78313   0.851  12.038   2.019 -0.1364  0.6979  0.0425
57088SOL    HW178314   0.926  12.086   2.055 -0.8224  0.9487  1.1689
57088SOL    HW278315   0.827  12.088   1.940  2.3112 -0.7020 -1.7294
57089SOL     OW78316  10.473   0.140   6.403 -0.0950  0.0324  0.4977
57089SOL    HW178317  10.411   0.191   6.350 -0.0819 -0.8371 -0.3990
57089SOL    HW278318  10.523   0.205   6.452 -1.7508  0.7654  1.2876
57090SOL     OW78319   3.802  10.533   0.634  0.3770 -0.2622  0.3738
57090SOL    HW178320   3.875  10.525   0.573  1.1560  0.1105  1.2266
57090SOL    HW278321   3.738  10.587   0.588  0.4770 -0.8798 -0.5191
57091SOL     OW78322   7.843   7.217   0.143 -0.0180  0.0963 -0.2390
57091SOL    HW178323   7.878   7.246   0.059  0.5072 -1.6737 -0.6730
57091SOL    HW278324   7.896   7.262   0.209  0.4598  0.4593 -0.8644
57092SOL     OW78325  10.053   2.987  11.122 -0.0893 -0.2992  0.0003
57092SOL    HW178326  10.107   3.007  11.045 -0.7366  0.1769 -0.3434
57092SOL    HW278327   9.963   3.000  11.091 -0.4287 -1.5713  0.4169
57093SOL     OW78328   9.241   9.700   5.431  0.0480  0.5039 -0.4092
57093SOL    HW178329   9.249   9.735   5.342  0.0271  1.0380 -0.2079
57093SOL    HW278330   9.279   9.612   5.427  1.7708  1.2174 -0.5226
57094SOL     OW78331  10.691  11.243   2.820  0.1541  0.5508  0.6504
57094SOL    HW178332  10.657  11.331   2.809 -2.0383 -0.2891  0.2075
57094SOL    HW278333  10.775  11.244   2.776 -1.0998  1.6767 -1.9009
57095SOL     OW78334   2.585   4.734  10.963 -0.5181  0.1486  0.1968
57095SOL    HW178335   2.595   4.788  11.042 -0.1409 -0.1782  0.3788
57095SOL    HW278336   2.525   4.664  10.990  0.2374 -0.4239  0.4492
57096SOL     OW78337   8.288   2.654   2.886 -0.6061  0.2557 -0.6054
57096SOL    HW178338   8.331   2.660   2.972 -1.3934 -0.6327 -0.1370
57096SOL    HW278339   8.346   2.599   2.834 -1.0059 -0.7180 -0.0574
57097SOL     OW78340   8.155  10.750   1.741  0.0927  0.5538 -0.4245
57097SOL    HW178341   8.221  10.704   1.792 -1.6836 -0.6535  0.9297
57097SOL    HW278342   8.164  10.842   1.767  2.4637  0.7519 -1.7541
57098SOL     OW78343   8.372   6.585   7.612  0.1433  0.0339  0.5586
57098SOL    HW178344   8.437   6.642   7.572 -0.6166  0.5654  0.0557
57098SOL    HW278345   8.369   6.613   7.704 -0.2367  0.8470  0.3158
57099SOL     OW78346   6.339  10.659   7.296  0.1639  0.6918  0.3969
57099SOL    HW178347   6.434  10.650   7.292  0.1513  0.6315  0.2079
57099SOL    HW278348   6.310  10.587   7.354  0.3086  1.2614  1.1906
57100SOL     OW78349   2.648  10.564   1.770 -0.3885 -0.0124  0.0005
57100SOL    HW178350   2.557  10.586   1.793  0.3489  0.6122  2.6010
57100SOL    HW278351   2.652  10.469   1.781 -0.5410  0.0516  0.6666
57101SOL     OW78352   1.101   8.289   4.956  0.0946  0.2444  0.2358
57101SOL    HW178353   1.146   8.215   4.997  0.4202  0.5566  0.4451
57101SOL    HW278354   1.153   8.308   4.878 -0.8025 -0.6712 -0.6203
57102SOL     OW78355   8.760  12.523   2.645 -0.3063 -0.2747  0.0370
57102SOL    HW178356   8.706  12.522   2.566 -0.0461  3.0335 -0.3065
57102SOL    HW278357   8.847  12.496   2.615 -0.1187  1.3215 -0.9362
57103SOL     OW78358   6.233   2.752   6.567 -0.0220  0.1535 -0.1018
57103SOL    HW178359   6.279   2.717   6.491 -1.0962 -1.0676 -0.2159
57103SOL    HW278360   6.234   2.681   6.631 -1.2032  0.2885  0.1034
57104SOL     OW78361   7.156   9.364   0.886 -0.7191  0.3563 -0.0093
57104SOL    HW178362   7.160   9.417   0.807 -0.7295  0.1685 -0.1388
57104SOL    HW278363   7.161   9.273   0.854  0.0621  0.2989  0.2670
57105SOL     OW78364   0.500   1.950   7.302 -0.6034  0.1763  0.1498
57105SOL    HW178365   0.547   1.934   7.221 -0.6239 -1.1376  0.3785
57105SOL    HW278366   0.524   2.039   7.327  0.8987 -0.0869 -0.2964
57106SOL     OW78367   0.123   5.599   3.359  0.2402  0.7885 -0.2242
57106SOL    HW178368   0.057   5.557   3.413  1.3048  0.4352  0.8364
57106SOL    HW278369   0.205   5.558   3.385  0.8089  0.7196 -2.0083
57107SOL     OW78370   0.739   5.146   5.570  0.3692  0.2439  0.1574
57107SOL    HW178371   0.731   5.088   5.494  0.8213 -0.3999  0.5988
57107SOL    HW278372   0.832   5.164   5.577  0.1229  2.2742 -0.8808
57108SOL     OW78373   8.120   4.746  11.559  0.4637  0.5324 -0.2732
57108SOL    HW178374   8.103   4.658  11.526  1.8789 -0.1773  0.7788
57108SOL    HW278375   8.073   4.804  11.500  1.1205 -0.8046 -2.1828
57109SOL     OW78376  12.331   0.632   5.929 -0.2555  0.0876 -0.6483
57109SOL    HW178377  12.322   0.604   5.838 -0.4681  0.1630 -0.6508
57109SOL    HW278378  12.425   0.639   5.943 -0.2000 -0.5731 -0.6661
57110SOL     OW78379   3.144  11.451   5.462 -0.1757  0.7420 -0.0369
57110SOL    HW178380   3.172  11.469   5.372 -0.5889  0.1373 -0.2971
57110SOL    HW278381   3.050  11.433   5.455  0.0120 -0.4918  0.3199
57111SOL     OW78382   0.622   5.646   5.631  0.4329 -0.0174  0.1708
57111SOL    HW178383   0.703   5.678   5.589 -0.2533  1.4919 -0.0702
57111SOL    HW278384   0.627   5.678   5.721 -0.7085  1.7083 -0.3288
57112SOL     OW78385   2.244   6.075  12.314  0.3267 -0.2312  0.2418
57112SOL    HW178386   2.158   6.066  12.272 -0.8715  0.7153  2.3487
57112SOL    HW278387   2.238   6.024  12.394  1.5645  0.2603  0.6758
57113SOL     OW78388  11.061  11.709   0.250  0.0213  0.3187 -0.2726
57113SOL    HW178389  11.041  11.646   0.181  0.6089  0.8682 -0.9624
57113SOL    HW278390  11.003  11.686   0.322 -1.0176  0.0945 -1.1621
57114SOL     OW78391   9.738   9.759   4.354 -0.0542 -0.1524  0.4174
57114SOL    HW178392   9.739   9.845   4.395  1.7990  0.0858 -0.0387
57114SOL    HW278393   9.748   9.697   4.428 -1.8059 -0.0294  0.7851
57115SOL     OW78394  11.701   8.664   2.645  0.1188 -0.5619  0.3475
57115SOL    HW178395  11.678   8.638   2.555 -0.3398 -2.5218  0.9894
57115SOL    HW278396  11.670   8.754   2.651  0.3922 -0.2867 -1.5337
57116SOL     OW78397   9.498   1.562   2.381 -0.0526 -0.0583  0.5869
57116SOL    HW178398   9.563   1.536   2.316 -1.4848 -1.9297 -0.1808
57116SOL    HW278399   9.519   1.509   2.458 -0.2697 -0.1799  0.5616
57117SOL     OW78400   1.145  12.205   9.042  0.3980  0.4750  0.0213
57117SOL    HW178401   1.090  12.129   9.024  0.2981  0.9785 -2.0718
57117SOL    HW278402   1.099  12.253   9.110 -0.9384  0.0566 -0.5657
57118SOL     OW78403   0.900   8.416  11.502 -0.0073 -0.3442  0.1279
57118SOL    HW178404   0.943   8.497  11.476 -1.5399  0.5083  0.1431
57118SOL    HW278405   0.811   8.442  11.524 -0.3855 -1.9586  0.6480
57119SOL     OW78406   0.555   8.661   9.396 -0.0481 -0.2310  0.3207
57119SOL    HW178407   0.464   8.662   9.366 -0.8248  1.2138  2.4681
57119SOL    HW278408   0.584   8.751   9.386  0.8009 -0.4646  0.6395
57120SOL     OW78409   1.421   8.096   7.004  0.1455  0.0970  0.1488
57120SOL    HW178410   1.496   8.151   6.981 -0.1614  1.0610  1.3260
57120SOL    HW278411   1.348   8.157   7.012 -0.3059 -0.5367  1.0530
57121SOL     OW78412   7.721   3.300   5.508  0.4369  0.5998 -0.8686
57121SOL    HW178413   7.652   3.363   5.529  0.4547  0.7869 -1.3419
57121SOL    HW278414   7.677   3.216   5.505  0.4770  0.5377  0.1125
57122SOL     OW78415   6.789   0.363   4.585 -0.1230  0.1669  0.0235
57122SOL    HW178416   6.730   0.292   4.609  0.1341  0.1943  0.7769
57122SOL    HW278417   6.873   0.338   4.623  0.5917 -0.2965 -1.7791
57123SOL     OW78418   3.235   9.343   8.194 -0.3922  0.3671  0.1971
57123SOL    HW178419   3.247   9.283   8.121 -0.1514  1.6603 -0.8723
57123SOL    HW278420   3.163   9.400   8.167  0.3537  1.5029  0.5062
57124SOL     OW78421   9.396   9.102   2.218 -0.4000 -0.1133  0.0412
57124SOL    HW178422   9.452   9.143   2.152 -0.8281  0.6029  0.1131
57124SOL    HW278423   9.312   9.147   2.209 -1.7612 -2.7878 -1.6789
57125SOL     OW78424   3.653   4.030   2.139 -0.0527  0.2579  0.1107
57125SOL    HW178425   3.573   4.046   2.189 -0.1166  0.8900 -0.1877
57125SOL    HW278426   3.723   4.063   2.195 -0.0728  0.4054  0.0515
57126SOL     OW78427  10.910  11.516  11.718  0.1332  0.5257  0.3455
57126SOL    HW178428  10.912  11.421  11.724  0.0299  0.4434 -0.7492
57126SOL    HW278429  10.991  11.539  11.671 -0.7420  0.8054 -1.1159
57127SOL     OW78430   6.432  11.017  12.424  0.0842  0.0293 -0.3814
57127SOL    HW178431   6.455  10.991  12.335 -0.1958 -0.8135 -0.2222
57127SOL    HW278432   6.345  10.979  12.439 -0.2395  0.8712 -0.0347
57128SOL     OW78433   5.430   2.471   0.260  0.0782 -0.4275 -0.2522
57128SOL    HW178434   5.480   2.538   0.307 -0.4004  0.4077 -0.9083
57128SOL    HW278435   5.352   2.457   0.315  0.3884 -0.7651  0.1044
57129SOL     OW78436   4.543  10.476   5.760 -0.2710 -0.2356  0.2962
57129SOL    HW178437   4.638  10.475   5.773 -0.2852 -0.4015  0.3809
57129SOL    HW278438   4.527  10.560   5.716 -0.0336 -0.3957 -0.1120
57130SOL     OW78439   6.993   7.040   5.156 -0.2325 -0.2681 -0.1905
57130SOL    HW178440   7.070   7.095   5.171 -1.0388  0.6926  0.5212
57130SOL    HW278441   7.009   6.961   5.208 -0.4990  0.6683  1.3609
57131SOL     OW78442   1.919  10.572   4.830  0.3146  0.1270 -0.0522
57131SOL    HW178443   1.825  10.555   4.837  0.1918 -0.4965 -2.2925
57131SOL    HW278444   1.927  10.623   4.750  2.0223 -1.3168 -0.8575
57132SOL     OW78445   1.781   4.146  10.482 -0.0263 -0.0933  0.3796
57132SOL    HW178446   1.695   4.181  10.459  0.5947  0.6694 -0.9333
57132SOL    HW278447   1.842   4.218  10.465  1.1139 -1.2709 -0.8950
57133SOL     OW78448   2.821   6.894   3.060 -0.2301  0.1513 -0.5413
57133SOL    HW178449   2.825   6.869   2.968 -0.4550  0.3997 -0.6183
57133SOL    HW278450   2.903   6.861   3.097  0.0465  0.4065 -0.9170
57134SOL     OW78451  10.264   1.603   9.949 -0.0108  0.5643 -0.2906
57134SOL    HW178452  10.184   1.609   9.897  0.0750 -0.1754 -0.5078
57134SOL    HW278453  10.312   1.530   9.911  0.4283  0.5341  0.3172
57135SOL     OW78454   9.303   0.015   7.634  0.1573  0.7570  0.0314
57135SOL    HW178455   9.334  -0.016   7.719  1.1117 -1.6505 -1.0910
57135SOL    HW278456   9.283   0.107   7.648  1.9034  0.8727  2.4277
57136SOL     OW78457  10.358   9.701   2.368 -0.0440  0.1584 -0.1338
57136SOL    HW178458  10.279   9.705   2.423  0.8336 -2.1280  1.4555
57136SOL    HW278459  10.361   9.610   2.337  1.7998  0.2651 -0.3938
57137SOL     OW78460   4.153   8.657   7.991 -0.3975  0.5972 -0.0686
57137SOL    HW178461   4.093   8.719   8.033 -1.1252 -0.2284  0.1211
57137SOL    HW278462   4.238   8.675   8.032 -1.0350 -0.0066  1.5791
57138SOL     OW78463   8.921   8.788   3.237 -0.1580 -0.4359 -0.0754
57138SOL    HW178464   8.922   8.754   3.147  2.1618 -3.0560  0.7977
57138SOL    HW278465   9.011   8.818   3.252 -1.1399  2.5171  0.5988
57139SOL     OW78466   2.347  11.703   1.733  0.0174 -0.1751  0.4368
57139SOL    HW178467   2.343  11.656   1.650  0.4437  1.7633 -0.7195
57139SOL    HW278468   2.416  11.659   1.782  0.7188 -0.4924 -0.7933
57140SOL     OW78469   5.130   2.697   5.262 -0.2222 -0.0725 -0.0201
57140SOL    HW178470   5.173   2.622   5.303 -0.2556  0.1978  0.5165
57140SOL    HW278471   5.038   2.690   5.289  0.2259  1.5799  2.2283
57141SOL     OW78472   5.864   7.842   5.167 -0.1791  0.2133 -0.0687
57141SOL    HW178473   5.786   7.815   5.118  0.6435 -1.1172 -0.7165
57141SOL    HW278474   5.936   7.833   5.104  0.4660  1.8392  0.3819
57142SOL     OW78475   2.772   8.271  11.610  1.2936  0.0250  0.5494
57142SOL    HW178476   2.741   8.346  11.560  0.0050 -0.3203  0.8023
57142SOL    HW278477   2.854   8.301  11.650  0.7620  1.3193  0.7113
57143SOL     OW78478  10.967   5.557   2.538 -0.3120 -0.3220 -0.6283
57143SOL    HW178479  10.876   5.529   2.525 -0.0625 -0.8778 -1.2416
57143SOL    HW278480  11.017   5.506   2.474  0.6708 -1.3590  0.9058
57144SOL     OW78481   5.666   2.204   6.095 -0.7302 -0.2795  0.2790
57144SOL    HW178482   5.677   2.128   6.152  0.0342 -0.8704 -0.6158
57144SOL    HW278483   5.647   2.277   6.155  2.9193 -0.2409  1.6622
57145SOL     OW78484   8.060   8.828   9.250  0.2319  0.3651 -0.4521
57145SOL    HW178485   8.093   8.849   9.163  1.8811 -1.6499 -0.3838
57145SOL    HW278486   8.121   8.761   9.283 -3.1187 -2.6103  0.2804
57146SOL     OW78487  11.683  10.308  10.471  0.0845 -0.3941 -0.1715
57146SOL    HW178488  11.673  10.344  10.559  1.0041 -0.3731 -0.0664
57146SOL    HW278489  11.593  10.288  10.443 -0.3388  0.9168  0.2004
57147SOL     OW78490   0.734   8.906   7.456 -0.1763  0.2201  0.3948
57147SOL    HW178491   0.693   8.831   7.499 -2.3972  0.7480 -0.6100
57147SOL    HW278492   0.826   8.882   7.447 -0.4312 -1.5105  1.8764
57148SOL     OW78493   7.861   6.570   2.745 -0.1143 -0.5313 -0.0573
57148SOL    HW178494   7.935   6.583   2.686 -0.0370  2.3091  0.4960
57148SOL    HW278495   7.785   6.594   2.693 -0.1840  0.6300  0.5571
57149SOL     OW78496   9.932   7.380   0.857 -0.5820 -0.7084  0.5643
57149SOL    HW178497  10.008   7.435   0.840 -0.2025 -1.7514 -1.4006
57149SOL    HW278498   9.867   7.440   0.893  0.5961  0.5392  0.6884
57150SOL     OW78499   3.876  10.840   0.507  0.0006  0.0923 -0.0498
57150SOL    HW178500   3.918  10.761   0.540  0.3687 -0.1269 -1.0117
57150SOL    HW278501   3.806  10.807   0.451  0.1347  0.4475 -0.4267
57151SOL     OW78502   2.003  10.484   2.063  0.6340 -0.3484 -0.4514
57151SOL    HW178503   2.017  10.555   2.125  0.4164  1.8804 -2.7908
57151SOL    HW278504   2.080  10.428   2.072  2.9521  2.4789 -1.3813
57152SOL     OW78505   1.634   5.456   3.226  0.1585  0.2885  0.3227
57152SOL    HW178506   1.644   5.531   3.285  1.7334  0.4949 -0.1617
57152SOL    HW278507   1.717   5.408   3.234  0.0943 -0.1105 -1.1473
57153SOL     OW78508   9.499   4.976   3.607  0.3595 -0.2360  0.3290
57153SOL    HW178509   9.531   5.061   3.639  1.7442 -0.6607  0.1415
57153SOL    HW278510   9.544   4.912   3.662 -2.6970 -0.8766  2.3149
57154SOL     OW78511   0.436   5.341   1.312 -0.0874  0.0816  0.3757
57154SOL    HW178512   0.436   5.423   1.362  0.1653  1.6152 -1.9789
57154SOL    HW278513   0.527   5.312   1.315 -0.3611 -0.7200  2.0610
57155SOL     OW78514   5.265   0.073   5.040 -0.1844  0.0041 -0.0985
57155SOL    HW178515   5.305   0.124   4.970 -0.1007  1.6388  1.0788
57155SOL    HW278516   5.338   0.048   5.096 -0.3075 -0.9002 -0.3249
57156SOL     OW78517   5.009   4.387   8.156 -0.0904  0.5177  0.1294
57156SOL    HW178518   5.031   4.477   8.181  0.5209  0.8051 -1.3245
57156SOL    HW278519   5.089   4.337   8.172 -0.3555  0.2723  0.7114
57157SOL     OW78520   1.445   4.273  11.277 -0.1340  0.4772 -0.8262
57157SOL    HW178521   1.452   4.189  11.231 -0.7105  0.4321 -0.8393
57157SOL    HW278522   1.365   4.265  11.328  1.4261 -0.1948  1.7018
57158SOL     OW78523   3.624   9.472   1.063  0.1648 -0.4589 -0.6496
57158SOL    HW178524   3.718   9.485   1.050  0.6265 -2.3863  0.4067
57158SOL    HW278525   3.595   9.425   0.984  0.1119 -0.0415 -0.8828
57159SOL     OW78526   1.480   9.615   4.723  0.3127 -0.9063  0.2779
57159SOL    HW178527   1.438   9.585   4.642  0.3000 -1.2080  0.3943
57159SOL    HW278528   1.471   9.710   4.721 -0.8168 -0.9863  0.5328
57160SOL     OW78529  11.294   1.033  11.970  0.1067 -0.5134 -0.1694
57160SOL    HW178530  11.292   1.127  11.957 -0.6991 -0.6171 -0.9122
57160SOL    HW278531  11.375   1.016  12.017 -0.1263  0.6320  0.6760
57161SOL     OW78532   6.323  11.953  10.456 -0.4864 -0.1565 -0.0217
57161SOL    HW178533   6.362  12.040  10.444  1.3824 -0.8749  0.4731
57161SOL    HW278534   6.259  11.946  10.385 -0.5848  1.5613 -0.1484
57162SOL     OW78535   0.209   3.392  12.281  0.5851 -0.1511  0.0448
57162SOL    HW178536   0.292   3.370  12.239 -0.3610 -1.7831 -1.0842
57162SOL    HW278537   0.210   3.343  12.363  0.5987 -0.4495 -0.1316
57163SOL     OW78538  11.046   2.665   6.669 -0.0101  0.3980  0.5539
57163SOL    HW178539  11.083   2.643   6.754 -0.2561  0.6746  0.7366
57163SOL    HW278540  10.968   2.716   6.689 -1.7463 -1.9436  0.2636
57164SOL     OW78541   9.441   2.944   3.891  0.0053 -0.1149 -0.9862
57164SOL    HW178542   9.409   2.857   3.868 -0.0854 -0.5620  0.6662
57164SOL    HW278543   9.374   3.005   3.859 -0.3179 -0.7119 -1.4444
57165SOL     OW78544  11.654   5.707  12.206 -0.0952  0.3971  0.0635
57165SOL    HW178545  11.611   5.656  12.137 -1.0572  1.6473 -0.3133
57165SOL    HW278546  11.582   5.743  12.258  0.5391  1.3699  0.3085
57166SOL     OW78547   3.624  10.839   2.951  0.5883 -0.0047 -0.0972
57166SOL    HW178548   3.578  10.918   2.981  1.4624  0.7590 -0.7119
57166SOL    HW278549   3.701  10.872   2.906  1.0514 -1.2306 -0.2357
57167SOL     OW78550  10.720   4.727   2.423  0.0922  0.0972  0.9147
57167SOL    HW178551  10.764   4.791   2.479 -1.4657  0.4627  1.7934
57167SOL    HW278552  10.627   4.741   2.439 -0.4151 -0.1962 -1.3508
57168SOL     OW78553  12.297   3.428   4.970 -0.5938 -0.4482 -0.0490
57168SOL    HW178554  12.376   3.479   4.990 -1.2582 -0.0126  1.6139
57168SOL    HW278555  12.329   3.338   4.960  0.0606 -0.3622  1.1265
57169SOL     OW78556   7.918   0.177   1.855 -0.3734 -0.1672  0.1319
57169SOL    HW178557   7.876   0.096   1.826 -0.2853 -0.4512  0.7963
57169SOL    HW278558   7.867   0.205   1.930  1.3155 -1.1721  1.7364
57170SOL     OW78559   5.264  12.560   1.391 -0.2929 -0.5006  0.0454
57170SOL    HW178560   5.282  12.646   1.354  2.6624 -0.7446  0.6907
57170SOL    HW278561   5.267  12.499   1.317  0.6176 -0.3958 -0.0063
57171SOL     OW78562   8.556   6.710   0.818 -0.1310  0.4025 -0.2017
57171SOL    HW178563   8.585   6.695   0.729  2.3793 -1.0488  0.7648
57171SOL    HW278564   8.478   6.654   0.828 -0.5008  0.6718 -1.4744
57172SOL     OW78565   8.666   8.805   1.250 -0.6663  0.3103 -0.3836
57172SOL    HW178566   8.627   8.726   1.213 -0.0334  0.3223 -1.1074
57172SOL    HW278567   8.609   8.876   1.220 -0.2595  0.3009 -1.2200
57173SOL     OW78568   2.562   5.124  10.248 -0.4411  0.6334  0.0945
57173SOL    HW178569   2.578   5.034  10.277  1.0312  1.2086  1.1923
57173SOL    HW278570   2.647   5.167  10.255 -1.2384  2.2838  0.1736
57174SOL     OW78571   5.933   7.796   2.326 -0.3931 -0.5299 -0.1238
57174SOL    HW178572   5.877   7.719   2.339 -0.2355 -0.7175 -0.5467
57174SOL    HW278573   5.873   7.869   2.319 -0.6214 -0.7927 -1.0670
57175SOL     OW78574   4.210   0.681   4.256 -0.0932 -0.1034 -0.3479
57175SOL    HW178575   4.204   0.776   4.248 -0.4864 -0.0163  0.8174
57175SOL    HW278576   4.126   0.649   4.224  0.8141 -0.2355 -2.7838
57176SOL     OW78577   4.504   7.301   6.678  0.2614  0.2484 -0.1980
57176SOL    HW178578   4.570   7.368   6.696  0.7592 -0.2022 -0.3225
57176SOL    HW278579   4.432   7.349   6.637 -0.0939  0.9834  1.2195
57177SOL     OW78580  10.036  12.085   0.709  0.0144  0.0210  0.1094
57177SOL    HW178581  10.007  12.158   0.763 -0.2641  0.6018 -0.7922
57177SOL    HW278582   9.997  12.008   0.749  0.5648  0.3169  1.2601
57178SOL     OW78583   9.338  12.354  11.916 -0.1042 -0.0975 -0.2499
57178SOL    HW178584   9.296  12.315  11.839  2.7689 -0.1941 -1.9025
57178SOL    HW278585   9.331  12.286  11.984  1.0420 -1.8146 -1.7714
57179SOL     OW78586   0.790   2.156   4.879 -0.1042  0.5561 -0.2135
57179SOL    HW178587   0.824   2.082   4.829  0.2714  0.1907  0.5656
57179SOL    HW278588   0.834   2.150   4.964 -0.4929  1.3465  0.0557
57180SOL     OW78589   3.787   0.791   6.658  0.3055  0.3910 -1.1973
57180SOL    HW178590   3.856   0.819   6.597  0.2555  2.5496 -0.3526
57180SOL    HW278591   3.828   0.723   6.711  1.5257  1.0537 -1.2636
57181SOL     OW78592   0.653   9.135   8.683 -0.1965  0.4517  0.0157
57181SOL    HW178593   0.679   9.090   8.763  1.3394  1.3199  0.0562
57181SOL    HW278594   0.651   9.066   8.616  2.9573  0.3289 -0.1104
57182SOL     OW78595   6.379   0.242   1.749  0.3120  0.0176 -0.3722
57182SOL    HW178596   6.425   0.159   1.759 -0.3597 -0.3669 -0.3501
57182SOL    HW278597   6.441   0.308   1.777  0.0456 -0.6640  2.0802
57183SOL     OW78598   7.376   1.970   4.659 -0.9657  0.8624  0.2540
57183SOL    HW178599   7.450   1.960   4.720 -1.8062  0.2257  1.2055
57183SOL    HW278600   7.302   1.930   4.705 -1.5014 -0.2043 -1.4493
57184SOL     OW78601   3.782   5.328   1.455  0.0185  0.4736  0.5551
57184SOL    HW178602   3.793   5.332   1.550 -0.3940 -0.6532  0.6662
57184SOL    HW278603   3.708   5.268   1.442  0.8171 -0.3122 -0.5088
57185SOL     OW78604   0.464   4.486   1.281 -0.8118 -0.3933 -0.0794
57185SOL    HW178605   0.412   4.540   1.341  0.2220  0.5734 -0.0238
57185SOL    HW278606   0.469   4.401   1.323 -0.1334  0.2586  1.2063
57186SOL     OW78607   1.758   3.641   7.287 -0.3259 -0.1180  0.0329
57186SOL    HW178608   1.699   3.630   7.213  0.0349  0.4251 -0.3422
57186SOL    HW278609   1.783   3.552   7.312  2.0187 -0.2756 -2.4764
57187SOL     OW78610   4.721  11.547   0.014 -0.1522 -0.6053 -0.0667
57187SOL    HW178611   4.738  11.630  -0.031 -0.1690 -0.8004 -0.4364
57187SOL    HW278612   4.807  11.507   0.024 -0.1493 -0.5639  0.0682
57188SOL     OW78613   8.957   4.711   9.178 -0.0637  0.0930  0.0617
57188SOL    HW178614   8.868   4.716   9.213  0.5259  0.4382  1.6038
57188SOL    HW278615   8.954   4.763   9.097 -1.2135  0.2407  0.1815
57189SOL     OW78616   1.046   1.274   8.167 -0.1873  0.1044  0.6707
57189SOL    HW178617   0.968   1.311   8.209 -0.0308  1.2276  0.0099
57189SOL    HW278618   1.023   1.269   8.074  0.1430 -0.5776  0.6261
57190SOL     OW78619  12.156   0.267   1.614  0.2875 -0.7538  0.1779
57190SOL    HW178620  12.095   0.222   1.672  1.2553 -0.9262  1.1033
57190SOL    HW278621  12.201   0.196   1.567 -0.0612 -0.6361 -0.3452
57191SOL     OW78622   6.775   6.879   3.507  0.2477 -0.3008  0.4334
57191SOL    HW178623   6.799   6.786   3.502  0.8092 -0.0797 -1.4826
57191SOL    HW278624   6.766   6.895   3.601  0.1755 -2.2727  0.8226
57192SOL     OW78625   0.001   5.389   5.657 -0.1585  0.3081  0.2607
57192SOL    HW178626  -0.034   5.376   5.745  0.2349  0.9822  0.5315
57192SOL    HW278627  -0.029   5.314   5.607 -2.0313  0.8716  0.4672
57193SOL     OW78628   4.699   6.847   4.356 -0.1567 -0.0449  0.3441
57193SOL    HW178629   4.684   6.934   4.392  1.1775 -0.3449  1.6696
57193SOL    HW278630   4.791   6.846   4.331  0.1113 -1.4132  1.3049
57194SOL     OW78631   9.540   2.515   9.745 -0.1208 -0.2820 -0.4653
57194SOL    HW178632   9.489   2.563   9.811 -0.0119 -1.2838  0.3796
57194SOL    HW278633   9.513   2.424   9.755  0.7358 -0.6174 -1.0388
57195SOL     OW78634   2.651   9.136   2.387 -0.2763 -0.0694  0.7839
57195SOL    HW178635   2.692   9.050   2.382 -1.4740 -0.5942 -0.7320
57195SOL    HW278636   2.707   9.192   2.333 -0.3049 -0.2370  0.5817
57196SOL     OW78637   2.327  11.940   9.196 -0.6845 -0.1378  0.2018
57196SOL    HW178638   2.281  12.016   9.160 -0.2886 -0.8946 -2.0361
57196SOL    HW278639   2.271  11.865   9.176  0.1632 -0.7398 -0.0246
57197SOL     OW78640   2.057   4.871   2.028  0.4901  0.1067 -0.5191
57197SOL    HW178641   1.989   4.872   1.962 -0.7711  1.2585  0.7394
57197SOL    HW278642   2.038   4.946   2.085  1.4092 -0.9142  1.2470
57198SOL     OW78643  10.836   3.900   4.596  0.0663 -0.0585 -0.3174
57198SOL    HW178644  10.854   3.864   4.509  1.6146  0.2724 -0.1648
57198SOL    HW278645  10.777   3.837   4.637  0.1291 -0.7373 -1.2398
57199SOL     OW78646   1.034   5.164   0.316  0.1363 -0.1546 -0.0242
57199SOL    HW178647   0.971   5.116   0.371  0.2886 -0.5659 -0.2072
57199SOL    HW278648   1.020   5.256   0.340 -0.3205 -0.2655  0.1617
57200SOL     OW78649  11.033   3.675   5.129 -0.3287 -0.4056 -0.2039
57200SOL    HW178650  11.023   3.767   5.104 -1.9763 -0.0386  1.5462
57200SOL    HW278651  11.039   3.628   5.046  2.8626  1.4013 -1.1633
57201SOL     OW78652  10.177   1.321  11.505  0.4414  0.6606  0.5670
57201SOL    HW178653  10.202   1.266  11.430  0.4984  0.5016  0.7031
57201SOL    HW278654  10.087   1.293  11.526  1.2886 -1.0705  2.1438
57202SOL     OW78655   7.233  12.345  11.011 -0.0588  0.0983  0.5018
57202SOL    HW178656   7.221  12.274  11.075 -0.0371  0.1352  0.5459
57202SOL    HW278657   7.304  12.397  11.046  0.7254 -0.5228 -0.1187
57203SOL     OW78658   2.367  12.098   5.017  0.5332 -0.2841 -0.3464
57203SOL    HW178659   2.389  12.045   4.941  0.8040  0.0286 -0.4879
57203SOL    HW278660   2.363  12.035   5.089  1.1969 -0.4520 -0.4486
57204SOL     OW78661   4.176   8.692   9.716 -0.5786 -0.1808 -0.0493
57204SOL    HW178662   4.123   8.676   9.638 -0.0472  2.7820 -1.1303
57204SOL    HW278663   4.145   8.775   9.751  1.5594  0.3388  0.8245
57205SOL     OW78664   8.147  11.398   5.167 -0.2321 -0.4415 -0.1751
57205SOL    HW178665   8.074  11.336   5.160  0.7268 -1.6449  0.0621
57205SOL    HW278666   8.189  11.394   5.081 -1.3196  1.4415 -0.8605
57206SOL     OW78667   8.610   1.972   2.265 -0.1784 -0.4013  0.0849
57206SOL    HW178668   8.531   1.941   2.310  1.0867 -0.0967  2.7497
57206SOL    HW278669   8.669   1.998   2.336  0.9493  2.8969 -1.8682
57207SOL     OW78670   7.744   1.891   9.563  0.6727  0.2184  0.3632
57207SOL    HW178671   7.663   1.852   9.529 -0.3536  1.9917  0.6508
57207SOL    HW278672   7.807   1.819   9.563 -1.2263 -1.5536  1.2970
57208SOL     OW78673   8.348   1.307   4.936  0.0552 -0.0153  0.2613
57208SOL    HW178674   8.285   1.313   4.864  0.4661 -0.0658 -0.1089
57208SOL    HW278675   8.305   1.250   5.000 -1.9528  2.9654  1.8088
57209SOL     OW78676   3.029   5.224  11.030  0.2358  0.2049  0.2242
57209SOL    HW178677   2.979   5.143  11.028 -1.3053  1.1304  0.1268
57209SOL    HW278678   3.043   5.246  10.938  0.9822 -0.1199  0.2484
57210SOL     OW78679   0.030   5.105  12.464 -0.2111 -0.0420  0.3084
57210SOL    HW178680   0.066   5.180  12.511  0.4692 -1.2265  1.7923
57210SOL    HW278681  -0.034   5.067  12.524  1.1536 -1.9848  0.6390
57211SOL     OW78682   1.493   5.032   2.702 -0.0046  0.7028 -0.2255
57211SOL    HW178683   1.403   5.045   2.732  0.4386 -0.0759  1.5736
57211SOL    HW278684   1.533   5.119   2.710  0.0893  0.5476  1.5710
57212SOL     OW78685  12.133   1.992   0.707  0.3941  0.4479 -0.4126
57212SOL    HW178686  12.101   2.072   0.666 -0.2651 -0.5196 -1.8783
57212SOL    HW278687  12.227   1.990   0.686  0.6911  1.4374  0.7193
57213SOL     OW78688  11.760  12.169   6.989 -0.4815 -0.0955  0.2951
57213SOL    HW178689  11.723  12.201   7.071 -1.3791  0.8056 -0.4284
57213SOL    HW278690  11.739  12.237   6.925  1.0411 -0.3214 -0.5022
57214SOL     OW78691   6.433  11.553   9.645  0.8123 -0.0248  0.1175
57214SOL    HW178692   6.439  11.557   9.550 -0.8552 -1.0043 -0.0699
57214SOL    HW278693   6.418  11.643   9.673 -0.0595  0.0908 -0.6841
57215SOL     OW78694   8.548   3.622   4.605 -0.3516 -0.0860 -0.1777
57215SOL    HW178695   8.538   3.528   4.623  1.3332 -0.0644  1.2072
57215SOL    HW278696   8.552   3.662   4.692  2.1676  0.8292 -0.6209
57216SOL     OW78697  12.222   9.172   4.849  0.0573 -0.2333 -0.4836
57216SOL    HW178698  12.297   9.129   4.808 -1.6040 -1.7269 -2.0780
57216SOL    HW278699  12.195   9.239   4.787 -0.4760 -0.3110 -0.3426
57217SOL     OW78700   0.723   4.215   5.460  0.3683  0.3076  0.3297
57217SOL    HW178701   0.683   4.233   5.545  0.4267 -1.2690  0.7114
57217SOL    HW278702   0.796   4.156   5.479  0.0630 -0.4884 -0.8559
57218SOL     OW78703   2.480   0.329   4.470 -0.1081 -0.7122  0.4859
57218SOL    HW178704   2.510   0.380   4.545 -1.9947 -2.1680  2.3512
57218SOL    HW278705   2.395   0.367   4.447 -0.5674 -1.6493  0.5565
57219SOL     OW78706   0.826   7.535   8.417 -0.2472 -0.0574 -0.9408
57219SOL    HW178707   0.765   7.481   8.367 -0.0973  0.3238 -1.5364
57219SOL    HW278708   0.911   7.493   8.406 -0.1777  0.1465 -1.1800
57220SOL     OW78709   3.354  12.255   2.809  0.7315 -0.1849 -0.0804
57220SOL    HW178710   3.415  12.279   2.740 -0.3482 -0.6313 -1.2374
57220SOL    HW278711   3.290  12.199   2.765 -0.8319  0.7241  0.9396
57221SOL     OW78712  12.294  10.352  11.423  0.4580 -0.0052 -0.2423
57221SOL    HW178713  12.341  10.432  11.399 -0.2267  0.3403 -0.4610
57221SOL    HW278714  12.205  10.365  11.389  0.8220 -1.6609 -2.0047
57222SOL     OW78715  11.581  10.837   7.803 -0.2299  0.8919  0.2406
57222SOL    HW178716  11.559  10.801   7.889  1.8474  0.4571  0.6422
57222SOL    HW278717  11.581  10.761   7.745 -0.2583  0.9616  0.1490
57223SOL     OW78718   6.618   6.761   3.933  0.3059 -0.3534 -0.1049
57223SOL    HW178719   6.636   6.732   4.023  0.1341  0.4747  0.2059
57223SOL    HW278720   6.703   6.756   3.889  0.1460 -2.0415 -0.2837
57224SOL     OW78721   9.659  12.090   9.850 -0.8724  0.3637 -0.0003
57224SOL    HW178722   9.685  12.094   9.942 -2.1151  3.5833  0.3457
57224SOL    HW278723   9.725  12.143   9.804 -1.2272  0.2209 -0.6914
57225SOL     OW78724   1.230   1.895  10.839  0.5720 -0.5057 -0.2553
57225SOL    HW178725   1.164   1.853  10.785 -0.1288 -0.1208  0.2819
57225SOL    HW278726   1.225   1.987  10.816  0.7591 -0.4421 -0.0433
57226SOL     OW78727   0.234   7.233   5.261 -0.6214  0.3955  0.2313
57226SOL    HW178728   0.234   7.146   5.300  0.0305 -0.0371 -0.6771
57226SOL    HW278729   0.147   7.267   5.278 -0.5267  0.0124  1.5589
57227SOL     OW78730   1.021   0.804   0.533 -0.1255  0.3666 -0.1975
57227SOL    HW178731   0.994   0.825   0.622  0.3313  0.1371 -0.0026
57227SOL    HW278732   1.117   0.807   0.536 -0.0193 -1.7955 -0.1470
57228SOL     OW78733   2.691   9.445   9.497  0.1265 -0.0101  0.0873
57228SOL    HW178734   2.606   9.482   9.521 -1.3415 -1.6635 -2.1373
57228SOL    HW278735   2.699   9.365   9.549 -0.8296 -1.0801 -1.3415
57229SOL     OW78736  12.195  12.192   8.137  0.4665 -0.0649 -0.3025
57229SOL    HW178737  12.166  12.253   8.069  1.3043  0.3242 -0.3223
57229SOL    HW278738  12.124  12.128   8.144 -2.4920  3.0866  2.5846
57230SOL     OW78739   0.556   6.495   5.746 -0.5711  0.4903  0.2362
57230SOL    HW178740   0.527   6.548   5.820 -1.7954  0.7455 -0.4009
57230SOL    HW278741   0.485   6.433   5.731  0.5924 -1.0053  0.6076
57231SOL     OW78742   3.684  11.997   9.335  0.5097  0.0839 -0.4521
57231SOL    HW178743   3.646  12.079   9.303 -0.2995  0.1764  0.6664
57231SOL    HW278744   3.746  11.971   9.267 -0.2265  0.9000 -1.4738
57232SOL     OW78745   0.748   1.318   9.049  0.4705 -0.7968  0.5448
57232SOL    HW178746   0.779   1.405   9.077  0.6265 -1.7123  3.6613
57232SOL    HW278747   0.669   1.336   8.999 -0.4220  1.1657  2.4482
57233SOL     OW78748  10.952   7.830   5.075  0.6425 -0.6722 -0.4964
57233SOL    HW178749  10.990   7.893   5.137 -2.0055  0.2368  0.3060
57233SOL    HW278750  10.927   7.882   4.999  1.8397 -1.4321 -1.4504
57234SOL     OW78751   2.649  12.428   2.528  0.0449  0.1042  0.2945
57234SOL    HW178752   2.731  12.383   2.512 -0.9548 -0.7152 -3.6556
57234SOL    HW278753   2.660  12.514   2.487 -1.0956 -0.1032 -0.5003
57235SOL     OW78754   9.074   7.974  10.814  0.2201 -0.4977  0.4288
57235SOL    HW178755   9.020   7.986  10.892 -0.8288  1.8811 -0.5669
57235SOL    HW278756   9.163   7.965  10.849 -0.4928 -2.3046  1.9875
57236SOL     OW78757   0.459   4.848  11.801  0.1054  0.8468 -0.2257
57236SOL    HW178758   0.433   4.845  11.893  0.5897 -0.5072 -0.1102
57236SOL    HW278759   0.540   4.898  11.800  0.8629 -0.3432  0.2971
57237SOL     OW78760   3.967   0.031   1.892  0.1123  0.1266  0.1389
57237SOL    HW178761   3.939  -0.060   1.886 -0.0973  0.2025 -0.0471
57237SOL    HW278762   3.886   0.082   1.885  0.4321  0.4142 -2.3019
57238SOL     OW78763   8.406   9.985   9.102 -0.2271 -0.3834  1.0012
57238SOL    HW178764   8.476  10.032   9.057 -0.5877 -0.3355  0.4822
57238SOL    HW278765   8.448   9.946   9.179  0.1716  0.4142  1.1924
57239SOL     OW78766  11.529   2.784   0.853 -0.0768  0.6998  0.3591
57239SOL    HW178767  11.624   2.782   0.847 -0.1024  0.5405  0.0492
57239SOL    HW278768  11.504   2.866   0.810 -0.0993  0.6132  0.2072
57240SOL     OW78769  12.328   1.194   1.264  0.2611 -0.4584 -0.1305
57240SOL    HW178770  12.329   1.115   1.317 -0.0226 -0.7128 -0.4992
57240SOL    HW278771  12.278   1.170   1.186  0.7383 -0.1183 -0.5509
57241SOL     OW78772   0.590   8.929   7.812  0.0273  0.1453 -0.3315
57241SOL    HW178773   0.560   8.860   7.753 -0.7965 -0.0156  0.2714
57241SOL    HW278774   0.619   8.999   7.754  0.3584 -0.4797 -0.9410
57242SOL     OW78775   2.625   3.911  10.729 -0.6021 -0.2872  0.3383
57242SOL    HW178776   2.616   4.005  10.740  0.1213  0.2882 -2.9039
57242SOL    HW278777   2.546   3.885  10.681 -0.8497 -1.3838  1.2999
57243SOL     OW78778   0.857   6.271   3.192  0.1775  0.6719  0.2976
57243SOL    HW178779   0.937   6.255   3.141  0.3743  1.4941  0.3296
57243SOL    HW278780   0.874   6.231   3.277  1.1679  2.0692  0.8138
57244SOL     OW78781   1.039   7.219   6.988 -0.5781  0.1188  0.8812
57244SOL    HW178782   0.981   7.232   7.063  0.6415  0.3520  1.8246
57244SOL    HW278783   1.127   7.220   7.026  0.0471 -0.1898 -0.5072
57245SOL     OW78784  12.355   2.018   9.349  0.5691  0.4741 -0.9516
57245SOL    HW178785  12.273   2.053   9.316 -0.0317  2.1721  1.9478
57245SOL    HW278786  12.333   1.930   9.381  0.0280  0.6678 -0.7910
57246SOL     OW78787  12.327   6.387   6.272  0.7578 -0.1434  0.2864
57246SOL    HW178788  12.290   6.339   6.347 -0.3979 -0.8965 -0.7231
57246SOL    HW278789  12.335   6.477   6.304  2.0047 -0.7780  1.8909
57247SOL     OW78790   5.333   4.937  12.096 -0.0155 -0.5559 -0.3784
57247SOL    HW178791   5.318   4.960  12.187 -1.4216 -0.1491 -0.6972
57247SOL    HW278792   5.302   4.846  12.088  0.7453 -0.8299 -0.3047
57248SOL     OW78793  10.607   0.597  10.659 -0.3077  0.5663 -0.1321
57248SOL    HW178794  10.669   0.587  10.587 -1.3770  0.6550 -1.1037
57248SOL    HW278795  10.657   0.576  10.737  0.5937 -0.6915 -1.0079
57249SOL     OW78796   8.808  12.349   7.323 -0.5323 -0.2764  0.3638
57249SOL    HW178797   8.850  12.269   7.355 -0.9329 -0.3940  0.6029
57249SOL    HW278798   8.778  12.393   7.403 -0.4202  0.0510  0.2238
57250SOL     OW78799   5.875   2.996   3.119  0.8002 -0.3938  0.1856
57250SOL    HW178800   5.843   3.051   3.047 -0.8218 -2.3635 -0.6893
57250SOL    HW278801   5.938   3.052   3.165  1.1384  1.3041 -2.1272
57251SOL     OW78802   0.809   4.847  12.319 -0.1015  0.1940 -0.2650
57251SOL    HW178803   0.854   4.771  12.282  0.9649  0.7619 -0.1739
57251SOL    HW278804   0.876   4.914  12.325 -0.5289  0.5054  1.5749
57252SOL     OW78805  10.303  11.791   3.206 -0.1337 -0.0948 -0.2704
57252SOL    HW178806  10.340  11.863   3.155  1.9070 -0.1081  1.0818
57252SOL    HW278807  10.370  11.723   3.204 -1.1409 -1.1409  0.2174
57253SOL     OW78808   8.997   4.412   7.097 -0.0189 -0.4087  0.4819
57253SOL    HW178809   9.080   4.369   7.076 -0.6773 -1.5505  0.0771
57253SOL    HW278810   8.949   4.413   7.014 -0.3546  0.3710  0.6794
57254SOL     OW78811   4.371   6.788   5.849  0.3153  0.1117 -0.6185
57254SOL    HW178812   4.363   6.854   5.780 -2.8161 -0.7674 -1.2397
57254SOL    HW278813   4.381   6.839   5.930 -1.5539  1.3986 -1.1361
57255SOL     OW78814   4.197   2.186  10.745 -0.4233 -0.1516  0.4476
57255SOL    HW178815   4.180   2.227  10.830 -1.0981 -1.0494  0.7656
57255SOL    HW278816   4.110   2.171  10.708 -0.2632 -2.0132  0.7149
57256SOL     OW78817   0.172   6.681   6.188  0.3352 -0.1580 -0.0358
57256SOL    HW178818   0.260   6.645   6.202  1.0436  1.5475  0.1898
57256SOL    HW278819   0.135   6.688   6.276  1.2518  2.0675  0.2419
57257SOL     OW78820   7.001   9.120   7.678  0.2221 -0.0300  0.0293
57257SOL    HW178821   7.011   9.203   7.725 -1.8221  0.2754 -0.0060
57257SOL    HW278822   7.076   9.116   7.619  0.3756  1.7668  0.0747
57258SOL     OW78823   1.257  11.651  10.641  0.0077 -0.0590 -0.0186
57258SOL    HW178824   1.266  11.699  10.558 -1.3229 -0.4743 -0.4204
57258SOL    HW278825   1.245  11.560  10.614 -1.7989 -0.0194  0.5571
57259SOL     OW78826   7.325   4.174   5.208 -0.1931 -0.1751  0.3456
57259SOL    HW178827   7.384   4.153   5.135 -1.5178  0.4974 -0.9794
57259SOL    HW278828   7.241   4.194   5.166 -0.9181  0.5487  2.0450
57260SOL     OW78829   1.128   4.821   5.008  0.1282  0.1546 -0.1532
57260SOL    HW178830   1.168   4.744   4.966 -0.3087 -0.5257  0.6446
57260SOL    HW278831   1.145   4.809   5.101 -0.6618  0.6032  0.0579
57261SOL     OW78832   9.457   8.586  11.818  0.0876  0.4981  0.0648
57261SOL    HW178833   9.477   8.540  11.737 -1.3787 -1.1260  0.5680
57261SOL    HW278834   9.443   8.677  11.791  0.0327  0.0650 -1.4303
57262SOL     OW78835   2.903   2.030   4.330  0.1845 -0.0019 -0.3837
57262SOL    HW178836   2.835   2.063   4.271  0.1557  1.0546  0.2261
57262SOL    HW278837   2.912   2.097   4.397 -0.5374 -1.6261  1.4404
57263SOL     OW78838   2.000  10.425   1.484  0.1556  0.6378 -0.0952
57263SOL    HW178839   1.952  10.361   1.432 -0.3092  0.3328  0.6810
57263SOL    HW278840   1.932  10.484   1.517 -0.0002 -0.7779  2.4305
57264SOL     OW78841   2.586  10.412   4.013 -0.5323 -0.4652  0.0848
57264SOL    HW178842   2.667  10.454   3.986 -1.6469  1.1038 -1.0342
57264SOL    HW278843   2.560  10.360   3.937 -1.4869  0.5289 -0.3002
57265SOL     OW78844  11.597   6.493   3.560  0.3273 -0.1437 -0.6354
57265SOL    HW178845  11.620   6.400   3.568  0.1597 -0.0353  1.5755
57265SOL    HW278846  11.535   6.508   3.631  0.3896  1.6828 -0.9389
57266SOL     OW78847   7.197   3.658  12.556  0.4080 -0.0906  0.4749
57266SOL    HW178848   7.156   3.628  12.638  0.0680  1.1698  0.7853
57266SOL    HW278849   7.124   3.677  12.498  0.5686  1.0138  0.6143
57267SOL     OW78850   6.960   0.517   1.097  0.1004  0.0651  0.2052
57267SOL    HW178851   6.953   0.450   1.165  0.2573  1.5387  1.7099
57267SOL    HW278852   6.917   0.594   1.133  0.5748  1.0323 -1.1835
57268SOL     OW78853   9.321   0.761   6.732  0.2922 -0.5540  0.0003
57268SOL    HW178854   9.235   0.727   6.704 -0.2930 -1.0233  2.1741
57268SOL    HW278855   9.374   0.683   6.743 -0.0066 -0.5440  1.7192
57269SOL     OW78856   8.905   2.109   9.950 -0.0284  0.4319  0.4028
57269SOL    HW178857   8.828   2.142   9.904  0.5402  0.3107 -0.6627
57269SOL    HW278858   8.926   2.178  10.014 -1.3433  0.2106  1.1193
57270SOL     OW78859   8.584   1.224   2.223  0.1519  0.3051 -0.4566
57270SOL    HW178860   8.569   1.318   2.230 -2.5813 -0.0981  0.3605
57270SOL    HW278861   8.643   1.204   2.296 -0.0936  1.2321  0.0205
57271SOL     OW78862   0.264   9.441  12.035  0.8928  0.4698 -0.0677
57271SOL    HW178863   0.310   9.429  12.118 -0.6814 -2.2310  0.5225
57271SOL    HW278864   0.323   9.407  11.969  0.2712 -2.0216  0.5686
57272SOL     OW78865   5.710   9.528   8.923 -0.6607 -0.4042 -0.0673
57272SOL    HW178866   5.757   9.561   8.847  0.7604 -1.2952  0.3789
57272SOL    HW278867   5.729   9.592   8.992 -0.0617 -0.7778  0.1197
57273SOL     OW78868   0.002   6.582   4.777 -0.4209 -0.3116 -0.3990
57273SOL    HW178869   0.069   6.545   4.719 -1.2070 -0.0267 -1.5456
57273SOL    HW278870  -0.053   6.634   4.718 -1.1992  0.0738  0.6460
57274SOL     OW78871  12.387   1.762  11.035 -0.0183  0.8138 -0.0539
57274SOL    HW178872  12.436   1.816  10.973  0.2922 -0.4672 -0.9495
57274SOL    HW278873  12.386   1.675  10.997 -0.4601  0.1442  1.3956
57275SOL     OW78874   1.450   1.365  10.774 -0.1961  0.0590  0.0195
57275SOL    HW178875   1.500   1.326  10.845  0.5036 -1.2034 -1.1178
57275SOL    HW278876   1.505   1.435  10.741  1.0056 -1.4734 -1.3780
57276SOL     OW78877   2.434  10.325   0.500  0.1082  0.2377  0.1314
57276SOL    HW178878   2.437  10.244   0.449 -0.0998 -0.3226  1.0087
57276SOL    HW278879   2.355  10.318   0.553  0.0532  1.0451  0.1713
57277SOL     OW78880  11.887   9.677   2.445  0.8196 -0.0556 -0.2194
57277SOL    HW178881  11.951   9.671   2.516  1.1035 -0.5597 -0.5061
57277SOL    HW278882  11.886   9.589   2.407  0.8375  0.2618 -0.9764
57278SOL     OW78883   0.898   0.495   9.418 -1.1550 -0.0057 -0.1632
57278SOL    HW178884   0.875   0.535   9.335  0.2538 -0.6007 -0.8764
57278SOL    HW278885   0.883   0.564   9.483 -0.2309  1.1831 -1.1670
57279SOL     OW78886   0.026   6.135   4.499  0.1100  0.4082  0.2760
57279SOL    HW178887   0.107   6.163   4.456  0.9800 -0.6474  1.1825
57279SOL    HW278888  -0.007   6.063   4.446 -0.5815  1.2077 -0.4213
57280SOL     OW78889   1.516  10.244   3.039  0.0316  0.0693 -0.3418
57280SOL    HW178890   1.464  10.272   3.114 -1.1418  0.4987 -1.2731
57280SOL    HW278891   1.523  10.323   2.985 -0.6019 -0.6327 -1.4790
57281SOL     OW78892  11.184  11.570   5.704 -0.0220 -0.1637  0.3739
57281SOL    HW178893  11.120  11.631   5.669 -1.0148 -1.5116 -0.2358
57281SOL    HW278894  11.137  11.487   5.711  0.7492 -0.4783  2.8891
57282SOL     OW78895   8.166   4.619   5.233  0.2320 -0.3668 -0.1419
57282SOL    HW178896   8.144   4.704   5.271  1.8664  0.5502 -1.1452
57282SOL    HW278897   8.202   4.569   5.305  0.4651  0.2549  0.1781
57283SOL     OW78898   2.394   9.119  10.923  0.3740 -0.0677  0.1260
57283SOL    HW178899   2.366   9.099  11.013 -0.1614  0.3754  0.0583
57283SOL    HW278900   2.319   9.162  10.883 -0.1776 -2.1930 -1.2364
57284SOL     OW78901   0.996   1.605   6.759 -0.2867 -0.1884 -0.4336
57284SOL    HW178902   0.998   1.636   6.849 -1.0556 -0.2056 -0.4054
57284SOL    HW278903   1.040   1.674   6.709  0.3306 -0.2782 -0.0242
57285SOL     OW78904   0.049   3.018  12.030  0.4529 -0.8090 -0.1464
57285SOL    HW178905   0.063   2.936  11.982 -0.4980 -1.0368 -0.0606
57285SOL    HW278906   0.018   3.080  11.963  1.5365 -0.3992 -0.2840
57286SOL     OW78907   4.060   5.938   9.919 -0.0006  0.1436 -0.5078
57286SOL    HW178908   4.001   5.864   9.936  0.1215 -0.0780 -1.0221
57286SOL    HW278909   4.031   5.973   9.835 -1.4149  2.0289  0.6772
57287SOL     OW78910   1.955   6.873   1.413  0.0078 -0.1335 -0.0156
57287SOL    HW178911   2.010   6.798   1.392 -2.2464 -2.2400  1.0778
57287SOL    HW278912   1.891   6.877   1.342 -0.6925 -0.1059  0.6019
57288SOL     OW78913   2.246  10.630  11.548 -0.0506 -0.5629  0.0395
57288SOL    HW178914   2.238  10.540  11.516  2.1076 -0.5196 -0.8079
57288SOL    HW278915   2.297  10.622  11.629  2.1145  0.0039 -1.1859
57289SOL     OW78916  10.944  11.827   7.464  0.0576  0.2671 -0.7250
57289SOL    HW178917  10.880  11.813   7.394  0.3829 -0.5372 -0.8684
57289SOL    HW278918  10.918  11.910   7.504  0.5585  1.3675 -2.5678
57290SOL     OW78919   6.339   8.538   3.944  0.3547  0.3626 -0.0692
57290SOL    HW178920   6.380   8.531   4.030  1.7733  1.3764 -0.6111
57290SOL    HW278921   6.329   8.633   3.930 -0.9509  0.1726 -0.5409
57291SOL     OW78922  11.128   2.399   4.457 -0.3938 -0.1572  0.5288
57291SOL    HW178923  11.131   2.334   4.386 -0.3697  0.5359 -0.1145
57291SOL    HW278924  11.035   2.418   4.469 -0.4105 -0.4143  0.8208
57292SOL     OW78925   5.783   2.908   7.738  0.2567  0.1495  0.1952
57292SOL    HW178926   5.700   2.913   7.691  0.9789  2.2703 -0.9859
57292SOL    HW278927   5.843   2.865   7.677  0.3276 -0.3508  0.6083
57293SOL     OW78928  12.315   3.129   2.943  0.0172  0.0944 -0.2452
57293SOL    HW178929  12.313   3.211   2.991  1.1528  0.4254 -0.7304
57293SOL    HW278930  12.408   3.105   2.939 -0.1788 -0.6073 -1.1158
57294SOL     OW78931   6.781  10.122   2.264 -0.4423 -0.9907 -0.3047
57294SOL    HW178932   6.712  10.064   2.231 -0.4506  0.4419 -3.1382
57294SOL    HW278933   6.863  10.079   2.239 -0.3636 -1.0529  0.0440
57295SOL     OW78934  10.529   1.686   1.821 -0.2728 -0.8122 -0.1369
57295SOL    HW178935  10.506   1.779   1.823  1.6317 -0.2711 -1.0478
57295SOL    HW278936  10.473   1.649   1.753 -0.7762 -0.2714 -0.0301
57296SOL     OW78937   1.161   0.561   9.182  0.2568  0.1402  0.3028
57296SOL    HW178938   1.217   0.549   9.259  1.8507  1.1039 -0.6594
57296SOL    HW278939   1.212   0.526   9.109 -1.0520 -0.3454 -0.4106
57297SOL     OW78940   4.129   1.682   2.747 -0.0313  0.1705  0.1523
57297SOL    HW178941   4.051   1.708   2.698 -0.2075  0.2476  0.4684
57297SOL    HW278942   4.097   1.617   2.810  0.2378 -0.1234 -0.0102
57298SOL     OW78943   8.735   3.915   8.332  0.1979  0.3070  0.1977
57298SOL    HW178944   8.776   3.887   8.413  3.3826 -0.1401 -1.4113
57298SOL    HW278945   8.641   3.916   8.351  0.5810 -2.6227  2.9909
57299SOL     OW78946  11.218   2.102   8.766 -0.1882 -0.0844  0.3566
57299SOL    HW178947  11.297   2.135   8.723 -0.3228 -0.1804  0.0339
57299SOL    HW278948  11.188   2.030   8.710  0.3058 -1.0134  1.2445
57300SOL     OW78949   5.626   2.829  11.813  0.1669  0.2079  0.3628
57300SOL    HW178950   5.700   2.865  11.764  1.7914 -1.8071  1.1898
57300SOL    HW278951   5.642   2.735  11.815 -2.5250 -0.3402  0.4802
57301SOL     OW78952  12.324   7.116   1.872  0.1163 -0.2335  0.1525
57301SOL    HW178953  12.334   7.129   1.966  2.0223  0.1196 -0.0575
57301SOL    HW278954  12.283   7.197   1.841 -0.8573 -0.4975  0.6972
57302SOL     OW78955   6.606  11.070   4.260 -1.1276 -0.7713 -0.5276
57302SOL    HW178956   6.677  11.006   4.267 -2.3150 -1.9935  1.2178
57302SOL    HW278957   6.546  11.032   4.196 -0.8897 -0.4193 -0.9641
57303SOL     OW78958   1.967  11.122   0.653  0.1136  0.1275 -0.3285
57303SOL    HW178959   2.027  11.082   0.716 -2.4721 -0.9787  1.6336
57303SOL    HW278960   2.024  11.167   0.591  2.9052 -0.3145  1.7024
57304SOL     OW78961   9.778  11.029   2.384  0.4901  0.1368 -0.2795
57304SOL    HW178962   9.710  11.020   2.451  0.3867  1.2507 -0.2172
57304SOL    HW278963   9.817  10.941   2.377 -1.1210 -0.5983 -0.5157
57305SOL     OW78964   3.325   0.203   1.523  0.4251 -0.1784 -0.1270
57305SOL    HW178965   3.408   0.245   1.544 -0.4349  1.0652  0.8900
57305SOL    HW278966   3.329   0.118   1.568  0.8767  0.1402  0.4443
57306SOL     OW78967   4.246   9.309   6.150  0.4309  0.1192  0.3603
57306SOL    HW178968   4.323   9.262   6.181  1.0804 -1.2817 -2.9168
57306SOL    HW278969   4.280   9.373   6.088 -0.9264  0.9562  0.4341
57307SOL     OW78970   2.863   8.681  12.443  0.3038 -0.1613 -0.1846
57307SOL    HW178971   2.869   8.753  12.506  0.1621  0.0665 -0.4298
57307SOL    HW278972   2.899   8.606  12.490  0.9927  0.1984 -0.1313
57308SOL     OW78973   9.212   3.141   3.358  0.5712 -0.4528  0.1411
57308SOL    HW178974   9.122   3.175   3.354  0.1710 -1.3423  1.0145
57308SOL    HW278975   9.251   3.166   3.275 -1.1106 -1.7007 -1.1157
57309SOL     OW78976   4.290   4.586   4.570 -0.2541  0.0351  0.0148
57309SOL    HW178977   4.235   4.572   4.493  1.1755  1.8149 -1.4084
57309SOL    HW278978   4.375   4.549   4.546 -0.0635 -0.3333  1.1687
57310SOL     OW78979   7.035   5.130   0.127  0.7410 -0.3591 -0.0465
57310SOL    HW178980   7.016   5.200   0.190  0.6598  0.5929 -1.0840
57310SOL    HW278981   7.086   5.066   0.176  2.2402  1.2166  0.5625
57311SOL     OW78982   7.895   9.740   6.952 -0.0602 -0.0360 -0.2825
57311SOL    HW178983   7.854   9.655   6.936  0.9145 -0.2333 -2.0185
57311SOL    HW278984   7.874   9.792   6.873  0.0022  1.0804  0.4116
57312SOL     OW78985   4.573   2.806   7.618  0.3822 -0.4342  0.2332
57312SOL    HW178986   4.635   2.811   7.690  1.3260 -1.2203 -0.4995
57312SOL    HW278987   4.511   2.877   7.635 -0.6977 -1.8771  2.9578
57313SOL     OW78988   8.285   3.393   7.438 -0.4757  0.0951 -0.6924
57313SOL    HW178989   8.212   3.352   7.485 -0.3300  1.1241  0.4617
57313SOL    HW278990   8.349   3.323   7.428  0.7213  0.4373  3.2030
57314SOL     OW78991   9.312   1.144  10.565  0.3203 -0.0905 -0.3528
57314SOL    HW178992   9.291   1.227  10.521 -0.6463  0.1309  0.4913
57314SOL    HW278993   9.233   1.091  10.555  0.7569 -0.7213 -0.4566
57315SOL     OW78994   9.821   8.227   8.142  0.4895 -0.2407 -0.2468
57315SOL    HW178995   9.879   8.227   8.218 -0.2189  2.2790  0.3883
57315SOL    HW278996   9.842   8.309   8.096 -0.9619 -0.4121 -1.2630
57316SOL     OW78997   1.155   3.183   5.503  0.0331 -0.3924 -0.2912
57316SOL    HW178998   1.234   3.202   5.554 -0.0776 -0.7106 -0.0005
57316SOL    HW278999   1.163   3.090   5.481 -0.2846 -0.4370 -0.2165
57317SOL     OW79000   2.580   3.555  10.435 -0.1643 -0.7395  0.4290
57317SOL    HW179001   2.550   3.639  10.401  0.4332 -0.7383 -0.1256
57317SOL    HW279002   2.499   3.507  10.455 -0.5839 -0.9424 -1.5430
57318SOL     OW79003   1.741  12.252   0.982 -0.6817  0.3186 -0.1584
57318SOL    HW179004   1.837  12.251   0.974 -0.7610  2.3135 -2.4381
57318SOL    HW279005   1.719  12.163   1.011  1.9129  0.2011  1.8681
57319SOL     OW79006  11.512   8.990  10.519 -0.1331  0.3682  0.2027
57319SOL    HW179007  11.441   9.028  10.571  0.0790  2.6437 -1.0149
57319SOL    HW279008  11.591   9.012  10.567 -0.1636 -2.3078  1.6416
57320SOL     OW79009  11.923  11.796   0.329  0.2076  0.4439  0.3783
57320SOL    HW179010  12.009  11.833   0.350  1.0881 -1.5939  0.6032
57320SOL    HW279011  11.886  11.856   0.264  1.8446  1.2997  0.1885
57321SOL     OW79012   8.137   1.201   9.717 -0.6128  0.5649 -0.3357
57321SOL    HW179013   8.202   1.135   9.692 -0.7402 -0.7791  2.5161
57321SOL    HW279014   8.169   1.282   9.676  1.4506 -0.5486 -1.1225
57322SOL     OW79015  11.093   9.768   8.801 -0.0742 -0.2861 -0.0835
57322SOL    HW179016  11.082   9.851   8.754 -1.0095 -1.0518 -1.2799
57322SOL    HW279017  11.165   9.785   8.862  0.0384  1.2775 -0.5918
57323SOL     OW79018   4.367   4.381   3.372  0.2788 -0.3373  0.7282
57323SOL    HW179019   4.438   4.358   3.312  0.6915  0.5190  0.8672
57323SOL    HW279020   4.360   4.476   3.365 -1.8122 -0.5214 -0.3422
57324SOL     OW79021   4.256  11.440  12.008 -0.2922  0.2299  0.4539
57324SOL    HW179022   4.299  11.525  12.015 -0.8977  0.5168  0.7792
57324SOL    HW279023   4.251  11.409  12.099  0.5872 -0.4937  0.2659
57325SOL     OW79024   4.738  12.049   4.855 -0.1043  0.7587  0.4807
57325SOL    HW179025   4.802  12.111   4.891  0.1616 -0.0984  1.5316
57325SOL    HW279026   4.763  11.964   4.893 -1.4163  0.2772  0.3078
57326SOL     OW79027   9.196   9.181   3.367 -0.1126 -0.0732  0.3283
57326SOL    HW179028   9.240   9.111   3.319  2.3444  2.1961 -1.0490
57326SOL    HW279029   9.103   9.170   3.347  0.5505 -0.7513 -2.9827
57327SOL     OW79030  10.130   2.920   0.857 -0.0185  0.4323 -0.0855
57327SOL    HW179031  10.201   2.874   0.812 -0.4016  0.6712 -0.9476
57327SOL    HW279032  10.122   2.875   0.941  2.9956  2.0684  1.2488
57328SOL     OW79033   3.963   6.845  12.336 -0.0544 -0.0347  0.0212
57328SOL    HW179034   4.044   6.803  12.306  0.2040  0.2450  0.3176
57328SOL    HW279035   3.965   6.932  12.295 -0.7878 -0.4484 -0.9224
57329SOL     OW79036   8.207   6.779   8.670  0.3297  0.5153 -0.4088
57329SOL    HW179037   8.200   6.874   8.656 -1.4394  0.2371 -1.8101
57329SOL    HW279038   8.124   6.755   8.710  1.3800 -0.2588  1.4136
57330SOL     OW79039   0.764   5.808   3.715 -0.4589 -0.2786 -0.7211
57330SOL    HW179040   0.671   5.826   3.727 -0.3730 -0.1907 -0.1407
57330SOL    HW279041   0.781   5.827   3.623 -0.5231  2.0638 -0.3300
57331SOL     OW79042   5.087   5.231   2.685  0.2123  0.1080 -0.2810
57331SOL    HW179043   5.112   5.151   2.639 -2.0959 -0.4087 -0.7502
57331SOL    HW279044   5.132   5.225   2.769  0.4442 -1.4852 -0.4853
57332SOL     OW79045   4.872   5.376   0.892 -0.0531 -0.5196 -0.0203
57332SOL    HW179046   4.886   5.382   0.986  0.9121  2.5581 -0.2407
57332SOL    HW279047   4.780   5.401   0.879  0.8209  3.2767 -0.0260
57333SOL     OW79048   1.549   8.787   1.027 -0.6045  0.0161 -0.0271
57333SOL    HW179049   1.527   8.700   0.993  1.8859 -1.0911  1.0311
57333SOL    HW279050   1.602   8.771   1.105  0.5615  2.4720 -0.2141
57334SOL     OW79051  12.319   6.878  12.089  1.0656 -0.5808  0.1204
57334SOL    HW179052  12.226   6.854  12.090  0.3599  1.8834  1.4145
57334SOL    HW279053  12.358   6.821  12.022 -1.9250  0.2809 -2.6103
57335SOL     OW79054   4.636   2.178  11.038 -0.7552 -0.9610  0.2701
57335SOL    HW179055   4.686   2.107  10.997 -0.5400  0.1395 -1.4782
57335SOL    HW279056   4.702   2.228  11.087 -0.0772  0.3854 -1.8855
57336SOL     OW79057   4.171   1.407  12.202 -0.3744  0.6646  0.1665
57336SOL    HW179058   4.208   1.432  12.117 -0.6051  0.4273 -0.0037
57336SOL    HW279059   4.116   1.331  12.183  2.1932 -1.5596  1.0178
57337SOL     OW79060  10.773   4.357   1.653  0.0515 -0.8772  0.0371
57337SOL    HW179061  10.797   4.447   1.674  2.4227 -0.9211 -1.9488
57337SOL    HW279062  10.679   4.360   1.638  0.1444  1.4256 -0.4837
57338SOL     OW79063   5.199   8.941   8.476  0.5220  0.3307 -0.0049
57338SOL    HW179064   5.126   8.886   8.450  0.1807 -0.1152  1.7684
57338SOL    HW279065   5.267   8.880   8.503  0.4844  0.7495  1.0774
57339SOL     OW79066   1.573  10.706   4.619  0.7385  0.3151  0.3354
57339SOL    HW179067   1.521  10.773   4.662 -0.2944 -0.1772 -0.1207
57339SOL    HW279068   1.660  10.746   4.611  0.4146  1.1986  0.9866
57340SOL     OW79069   7.244   6.564   6.370  0.4012 -0.8377  0.0539
57340SOL    HW179070   7.293   6.606   6.300 -1.3910 -0.5894 -1.1234
57340SOL    HW279071   7.273   6.609   6.450 -0.7668  2.1107 -1.0527
57341SOL     OW79072   8.122   2.688   1.025 -0.0129 -0.1926  1.0697
57341SOL    HW179073   8.189   2.623   1.002  0.1845  1.0300 -2.3150
57341SOL    HW279074   8.167   2.772   1.015 -1.8940  0.6497 -1.0474
57342SOL     OW79075  10.080   3.826   3.029 -0.5356 -0.3137  0.6231
57342SOL    HW179076  10.011   3.840   3.094 -1.9112 -0.0476 -0.8392
57342SOL    HW279077  10.137   3.761   3.069 -2.5034 -1.7466  1.2684
57343SOL     OW79078   3.930   0.595   4.290 -0.2140  0.1902 -0.3227
57343SOL    HW179079   3.903   0.533   4.358 -0.2611  1.2440  0.6505
57343SOL    HW279080   3.898   0.557   4.208 -0.0345 -1.1805  0.2191
57344SOL     OW79081   0.745   8.065   7.006 -0.0563  0.3637 -0.7375
57344SOL    HW179082   0.742   7.992   6.944  1.6247  0.5353 -1.0691
57344SOL    HW279083   0.704   8.031   7.086  1.7186 -1.3585 -0.4944
57345SOL     OW79084   4.418   2.719   2.582 -0.6776  0.1225  0.9523
57345SOL    HW179085   4.467   2.801   2.574  0.1342 -0.4556 -0.2506
57345SOL    HW279086   4.333   2.746   2.618 -0.3601  1.4573  0.7631
57346SOL     OW79087   6.283   6.035   9.998  0.1182  0.2195  0.1507
57346SOL    HW179088   6.216   5.989  10.049 -0.6534  1.3799  0.1982
57346SOL    HW279089   6.269   6.127  10.016 -0.7247  0.7629 -2.8221
57347SOL     OW79090   4.562  11.630   0.627 -0.2250  0.2753  0.0902
57347SOL    HW179091   4.532  11.670   0.709 -0.5345  0.4102 -0.0879
57347SOL    HW279092   4.504  11.555   0.614 -0.0953  0.1799  0.0596
57348SOL     OW79093  12.428   9.651   5.490  0.3909 -0.0961  0.9521
57348SOL    HW179094  12.470   9.725   5.445 -0.5234  0.7771  1.4936
57348SOL    HW279095  12.417   9.585   5.421  0.9702  0.3690  0.3946
57349SOL     OW79096   6.816   2.392  11.762 -0.2935  0.3835 -0.3246
57349SOL    HW179097   6.907   2.419  11.752 -0.1755 -0.1284 -0.6629
57349SOL    HW279098   6.781   2.449  11.830 -0.0526  1.3828 -1.0202
57350SOL     OW79099   6.157   1.906   2.968 -0.3547  0.0582 -0.7427
57350SOL    HW179100   6.135   1.814   2.950  0.2195 -0.1588 -0.3793
57350SOL    HW279101   6.184   1.941   2.882  0.9729 -0.5689 -0.6109
57351SOL     OW79102   3.813   2.811   0.760  0.3773 -0.7223  0.2116
57351SOL    HW179103   3.839   2.886   0.814 -1.6199  0.3537 -0.2121
57351SOL    HW279104   3.739   2.772   0.806 -0.0340 -1.0536 -0.7074
57352SOL     OW79105   6.310   4.902   8.916  0.2792 -0.0211 -0.5682
57352SOL    HW179106   6.310   4.997   8.926 -0.2991  0.0583 -1.2052
57352SOL    HW279107   6.223   4.882   8.883  0.2479 -0.8283 -0.0123
57353SOL     OW79108  12.394   5.436   6.259  0.3553  0.6080  1.0488
57353SOL    HW179109  12.480   5.471   6.234  0.0070  0.7731  0.0133
57353SOL    HW279110  12.356   5.503   6.315  0.8739  0.5578  1.4740
57354SOL     OW79111   2.992   3.976   5.773  0.4039 -0.8807 -0.0214
57354SOL    HW179112   3.007   3.901   5.830  1.7833 -0.7650 -0.2171
57354SOL    HW279113   2.998   3.941   5.684 -1.3831 -0.9871 -0.1463
57355SOL     OW79114   4.690   4.227   8.915 -0.0294  0.1275 -0.1752
57355SOL    HW179115   4.638   4.176   8.977 -1.5210  1.0891 -0.5753
57355SOL    HW279116   4.689   4.175   8.835  3.5674 -2.1074  1.0061
57356SOL     OW79117  10.128   6.775   4.279 -0.3071 -0.2721  0.3167
57356SOL    HW179118  10.133   6.855   4.227  0.6860 -0.2044  0.4917
57356SOL    HW279119  10.193   6.788   4.349  0.8043 -1.7612 -0.3987
57357SOL     OW79120  10.629   3.858   5.954 -0.1465 -0.4268 -0.0111
57357SOL    HW179121  10.542   3.823   5.972 -0.1524 -1.2887 -1.5109
57357SOL    HW279122  10.662   3.804   5.882  0.1776  2.1392 -1.9325
57358SOL     OW79123   7.952   3.186   2.680 -0.4466  0.3747  0.2844
57358SOL    HW179124   7.987   3.257   2.735  0.5860  0.8265 -0.8968
57358SOL    HW279125   8.001   3.193   2.598 -1.4532 -0.7176 -0.4475
57359SOL     OW79126   0.556   0.566   2.317  0.4952 -0.2518  0.1613
57359SOL    HW179127   0.577   0.473   2.331 -0.6147 -0.8181 -1.5601
57359SOL    HW279128   0.633   0.601   2.272  2.3452  0.5822  3.6320
57360SOL     OW79129   0.762   1.525   7.305 -0.0835 -0.0307 -0.1579
57360SOL    HW179130   0.752   1.559   7.216 -0.1939  0.7527  0.1476
57360SOL    HW279131   0.798   1.598   7.355  1.5858 -0.9712  0.0898
57361SOL     OW79132   8.671   6.634   7.115  0.2606  0.1140 -1.3498
57361SOL    HW179133   8.750   6.585   7.093  0.6061  0.3581 -0.6746
57361SOL    HW279134   8.696   6.726   7.107  0.7707  0.2699  1.1554
57362SOL     OW79135  11.020   2.244   9.713  0.0261  0.2762 -0.0663
57362SOL    HW179136  11.014   2.265   9.620 -0.5791  1.0823  0.1557
57362SOL    HW279137  11.114   2.228   9.727 -0.1144 -2.1840 -1.2945
57363SOL     OW79138   6.437   2.503   7.133  0.2052  0.4378 -0.4673
57363SOL    HW179139   6.504   2.457   7.083 -0.6793 -1.8305  0.3061
57363SOL    HW279140   6.467   2.593   7.136  3.0035 -0.4126 -0.5090
57364SOL     OW79141   5.300  11.025  12.542  0.4181 -0.2841  0.6005
57364SOL    HW179142   5.364  10.954  12.531  0.9400  0.5366 -2.5732
57364SOL    HW279143   5.232  11.005  12.478  0.3006  1.7689  0.0309
57365SOL     OW79144  12.373   5.335   4.967  0.2286 -0.2782 -0.0464
57365SOL    HW179145  12.334   5.281   5.035 -1.6994 -1.2651 -1.8165
57365SOL    HW279146  12.456   5.293   4.946  0.0832 -0.8902  0.5981
57366SOL     OW79147   0.877   3.517   5.178  0.5878 -0.2452 -0.2256
57366SOL    HW179148   0.916   3.483   5.258  0.3760  0.3700  0.1443
57366SOL    HW279149   0.948   3.564   5.134  0.4018  0.4651  0.2127
57367SOL     OW79150   7.609  10.196   1.472  0.1708  0.4288  0.2112
57367SOL    HW179151   7.640  10.287   1.477  0.3971  0.3440  0.3884
57367SOL    HW279152   7.684  10.147   1.436 -0.4079  0.5278 -1.1838
57368SOL     OW79153   3.697   4.414  12.493 -0.0560  0.0391 -0.2065
57368SOL    HW179154   3.755   4.338  12.486 -0.3768 -0.2385  0.0600
57368SOL    HW279155   3.711   4.447  12.582 -1.3677 -0.9264  0.3982
57369SOL     OW79156   7.937   8.210   7.698  0.1479  0.0313 -0.7728
57369SOL    HW179157   8.028   8.233   7.712  0.7797 -1.8634 -1.4279
57369SOL    HW279158   7.908   8.175   7.783  0.0432  0.5755 -0.5823
57370SOL     OW79159   4.862   9.639   6.703 -0.2436 -0.5775  0.1858
57370SOL    HW179160   4.862   9.722   6.752  0.5518 -0.5846  0.2057
57370SOL    HW279161   4.783   9.644   6.649  0.4145  0.7530 -0.7316
57371SOL     OW79162  12.118   0.520   9.974 -0.0968  0.5392  0.1264
57371SOL    HW179163  12.146   0.597  10.022 -0.0075  0.9194 -0.5179
57371SOL    HW279164  12.181   0.513   9.902  1.6627 -1.7894  1.7400
57372SOL     OW79165   3.925   0.426   8.667  0.2246 -0.0898 -0.0164
57372SOL    HW179166   3.929   0.522   8.667  1.6129 -0.1095  1.8385
57372SOL    HW279167   3.831   0.406   8.671 -0.0510  1.2111  0.5775
57373SOL     OW79168   1.209   1.812   8.011  0.3524  0.1054  0.6002
57373SOL    HW179169   1.131   1.853   8.048  0.5058 -0.1792  1.2516
57373SOL    HW279170   1.282   1.863   8.047  0.5680 -0.9262  1.7212
57374SOL     OW79171  10.486   2.932   8.385  0.2097  0.8142 -0.4769
57374SOL    HW179172  10.575   2.896   8.382 -0.0639  0.1156 -0.4542
57374SOL    HW279173  10.454   2.910   8.472 -1.2093 -2.0489 -1.5783
57375SOL     OW79174   6.592   4.378   8.748  0.3134 -0.1359 -0.1936
57375SOL    HW179175   6.528   4.312   8.773  1.0111 -0.8960 -0.3626
57375SOL    HW279176   6.672   4.354   8.796  0.2687  1.2448  0.6194
57376SOL     OW79177   2.690   6.354   3.760  0.1833 -0.1319 -0.7146
57376SOL    HW179178   2.690   6.442   3.722  0.9031 -0.2471 -0.9915
57376SOL    HW279179   2.655   6.298   3.691 -0.6847 -0.0141 -0.3901
57377SOL     OW79180   6.205  10.148   5.817 -0.1808  0.3847 -0.1051
57377SOL    HW179181   6.232  10.058   5.797 -1.6599 -0.7094  2.2916
57377SOL    HW279182   6.129  10.137   5.875 -1.2310  3.2180 -0.8019
57378SOL     OW79183   2.984  10.399   9.036 -0.0284 -0.2164 -0.1797
57378SOL    HW179184   2.993  10.459   9.111 -1.6082 -1.2517  0.9154
57378SOL    HW279185   3.056  10.337   9.047 -0.2407 -0.3575  0.5067
57379SOL     OW79186   3.883   0.324   9.964 -0.1816  0.1917  0.0710
57379SOL    HW179187   3.890   0.412  10.003  0.7480 -0.4538  1.4431
57379SOL    HW279188   3.973   0.293   9.960 -0.6527 -1.5316  1.6378
57380SOL     OW79189  11.535   2.252   8.674 -0.0095 -0.4449  0.2199
57380SOL    HW179190  11.553   2.161   8.647  1.7926 -0.1714  0.3743
57380SOL    HW279191  11.561   2.305   8.599  3.6288  0.2186  1.7111
57381SOL     OW79192   0.459   9.679  11.368  0.5236  0.3147 -0.2139
57381SOL    HW179193   0.384   9.676  11.428  0.9608  0.9625  0.3783
57381SOL    HW279194   0.471   9.772  11.349  0.2776  0.1032 -1.4719
57382SOL     OW79195   3.988   3.799   2.679  0.0784 -0.1736 -0.7014
57382SOL    HW179196   3.991   3.758   2.592  0.1046  1.7240 -1.6524
57382SOL    HW279197   4.053   3.869   2.675 -1.4650  1.4025  0.0384
57383SOL     OW79198  12.489   1.386   0.170  1.0982  0.1816  0.0634
57383SOL    HW179199  12.417   1.330   0.201  0.8545  0.8257  0.6759
57383SOL    HW279200  12.553   1.324   0.135  0.7350 -0.4751  0.5313
57384SOL     OW79201   2.479   1.098   6.699  0.5477 -0.1374  0.2027
57384SOL    HW179202   2.572   1.108   6.679  0.3675  0.8607 -0.1604
57384SOL    HW279203   2.433   1.139   6.626 -0.2561 -2.6758 -0.8279
57385SOL     OW79204   0.557  10.590  10.257  0.3373  0.2842 -0.0203
57385SOL    HW179205   0.635  10.566  10.208  0.8658 -0.7395  1.2436
57385SOL    HW279206   0.574  10.558  10.346 -2.1211 -1.3686 -0.0438
57386SOL     OW79207   3.485   9.935   3.276  0.2105 -0.0154 -0.0451
57386SOL    HW179208   3.435   9.892   3.345 -0.1616  1.3357  0.5372
57386SOL    HW279209   3.429   9.928   3.198 -0.6440  0.9893  0.4688
57387SOL     OW79210   8.348  11.443   6.561 -0.0965 -0.1688 -0.2123
57387SOL    HW179211   8.305  11.366   6.596 -2.1597  1.9712  2.4373
57387SOL    HW279212   8.392  11.482   6.637  1.6323  0.8319 -1.6531
57388SOL     OW79213   8.044   8.717   0.450 -0.0206 -0.4156  0.2874
57388SOL    HW179214   8.111   8.670   0.499 -0.1220 -0.3352  0.5062
57388SOL    HW279215   7.972   8.727   0.512  0.6519  1.5511  0.8235
57389SOL     OW79216   0.808   2.027  10.732  0.0036  0.3945 -0.0776
57389SOL    HW179217   0.860   2.105  10.710  1.1968  0.5179  2.7378
57389SOL    HW279218   0.857   1.954  10.695  0.5236  0.7733 -0.1494
57390SOL     OW79219   5.987  11.901   1.576 -0.0059 -0.3264  0.1115
57390SOL    HW179220   6.037  11.844   1.635 -0.4838 -1.2732 -0.3833
57390SOL    HW279221   5.922  11.844   1.537 -0.4634  0.5592 -0.4465
57391SOL     OW79222   4.843   1.913  11.685  0.0075 -0.0011 -0.2504
57391SOL    HW179223   4.893   1.831  11.678 -0.4554 -0.3806  0.8227
57391SOL    HW279224   4.765   1.897  11.633  0.7404  0.4142 -1.5207
57392SOL     OW79225  10.772   7.379   0.151  0.0505  0.1856 -0.0585
57392SOL    HW179226  10.859   7.377   0.193  0.1731  1.9517 -0.1437
57392SOL    HW279227  10.719   7.433   0.209 -0.6405  0.1452 -0.6426
57393SOL     OW79228   8.705   7.150   6.613  0.5968  0.4603  0.5278
57393SOL    HW179229   8.678   7.083   6.676  1.1560  0.3870  0.6980
57393SOL    HW279230   8.668   7.231   6.648 -2.9053 -0.1354 -1.3788
57394SOL     OW79231  12.437  11.118   4.918 -0.0718  0.0906 -0.1110
57394SOL    HW179232  12.406  11.161   4.997  1.2029 -0.1772  0.5631
57394SOL    HW279233  12.386  11.036   4.914  0.7528 -0.5126  1.1650
57395SOL     OW79234   5.607   2.203   7.054  0.1505 -0.2970 -0.5379
57395SOL    HW179235   5.567   2.287   7.074 -0.8740 -0.6298 -1.0948
57395SOL    HW279236   5.578   2.145   7.125 -0.6728 -0.6332 -1.1439
57396SOL     OW79237   3.495   6.668   2.274 -0.1897 -0.0797  0.0016
57396SOL    HW179238   3.461   6.719   2.200 -0.3136  1.7444  1.2543
57396SOL    HW279239   3.431   6.597   2.285 -1.2021  0.7269 -0.4585
57397SOL     OW79240  12.169   9.952  10.373 -0.2762  0.3600  0.2003
57397SOL    HW179241  12.213   9.928  10.454  0.0753 -2.2012 -0.6723
57397SOL    HW279242  12.111   9.879  10.354 -1.2401  1.4420 -1.2567
57398SOL     OW79243   3.792   1.139  12.537 -0.0433  0.0540  0.2368
57398SOL    HW179244   3.730   1.098  12.476  0.7176 -1.5483  0.4684
57398SOL    HW279245   3.874   1.092  12.522  1.0543  1.9318  0.1496
57399SOL     OW79246   9.858   8.269   1.239 -0.2169 -0.2143  0.7328
57399SOL    HW179247   9.890   8.228   1.320  1.4766  0.6732  0.5528
57399SOL    HW279248   9.874   8.204   1.171  1.2232  0.2002  0.6537
57400SOL     OW79249   4.851  10.405   6.594  0.1849 -0.2467  0.0019
57400SOL    HW179250   4.874  10.373   6.507 -1.3801  0.8782 -0.8663
57400SOL    HW279251   4.792  10.339   6.630  0.6106 -0.5708  0.1221
57401SOL     OW79252  10.586   2.673   5.184 -0.3461 -0.2765 -0.4287
57401SOL    HW179253  10.593   2.695   5.091  0.3592  1.9934  0.0826
57401SOL    HW279254  10.624   2.749   5.229  0.3479 -1.7897  1.6924
57402SOL     OW79255   2.282   7.545   8.118  0.4108  0.2155  0.0950
57402SOL    HW179256   2.209   7.526   8.059  0.3030  1.0401 -0.0547
57402SOL    HW279257   2.300   7.638   8.104 -0.6890  0.8670  2.5399
57403SOL     OW79258   8.905   8.179   1.495 -0.1095  0.3355  0.1434
57403SOL    HW179259   8.982   8.236   1.509 -1.1104  1.4748  1.2655
57403SOL    HW279260   8.841   8.211   1.558 -0.8489 -1.8509  0.5484
57404SOL     OW79261   2.699   8.368   1.245 -0.3511  0.4222  0.1381
57404SOL    HW179262   2.746   8.295   1.286  1.4643  0.2487 -2.0969
57404SOL    HW279263   2.761   8.440   1.245 -1.2830  1.2521  0.1257
57405SOL     OW79264  12.420   0.754   7.003  0.5808 -0.2431 -0.9623
57405SOL    HW179265  12.368   0.831   6.981  1.6909  0.7193 -0.2934
57405SOL    HW279266  12.414   0.699   6.925  0.2973  0.8088 -1.7059
57406SOL     OW79267  10.873   3.754   3.366  0.0616 -0.2322 -0.0302
57406SOL    HW179268  10.902   3.727   3.453 -1.8381 -0.0728  0.7120
57406SOL    HW279269  10.927   3.704   3.306  1.0106 -0.8042  1.2449
57407SOL     OW79270   7.845  11.931   5.393 -0.2791 -0.1566 -0.2123
57407SOL    HW179271   7.898  11.995   5.441  0.0380 -0.7277  0.1952
57407SOL    HW279272   7.901  11.905   5.319  0.0523 -0.8298  0.2702
57408SOL     OW79273   4.880  10.784  10.919 -0.1404  0.1676 -0.1126
57408SOL    HW179274   4.952  10.728  10.950 -0.0917  0.4427  0.2911
57408SOL    HW279275   4.889  10.785  10.824 -0.7312 -1.2892 -0.2041
57409SOL     OW79276   0.204   3.802   5.939 -0.1635  0.2769 -0.4293
57409SOL    HW179277   0.238   3.877   5.890 -0.2401  0.3947 -0.3032
57409SOL    HW279278   0.136   3.765   5.883 -0.0196  0.2089 -0.5598
57410SOL     OW79279   8.572   8.681   4.214  0.4611 -0.3570 -0.3044
57410SOL    HW179280   8.534   8.597   4.189 -1.1881 -0.5881  2.6036
57410SOL    HW279281   8.637   8.659   4.281 -1.2674  0.6950  1.8483
57411SOL     OW79282   1.889   8.656   2.166  0.2373  0.3531  0.0382
57411SOL    HW179283   1.935   8.660   2.250 -0.1564  1.7295  0.2088
57411SOL    HW279284   1.858   8.745   2.151 -2.1751 -0.4423 -0.1805
57412SOL     OW79285   3.625   7.982   6.816  0.1507 -0.3832 -0.4850
57412SOL    HW179286   3.671   7.954   6.737  0.9650 -2.7804  0.7334
57412SOL    HW279287   3.684   8.046   6.857  1.9740 -2.5196  0.4376
57413SOL     OW79288  11.115   8.550   2.771 -0.5899 -0.1326 -0.3060
57413SOL    HW179289  11.132   8.525   2.862 -1.7308  0.9345  0.2240
57413SOL    HW279290  11.202   8.569   2.734 -0.2540  1.4467  1.1715
57414SOL     OW79291   3.375  10.036   0.779 -0.4004  0.2409 -0.2229
57414SOL    HW179292   3.447  10.039   0.715 -0.5036 -1.5873 -0.4777
57414SOL    HW279293   3.350   9.944   0.782 -0.8578  0.3863  1.9796
57415SOL     OW79294   7.573   8.242   9.513 -0.4381 -0.5425 -0.1854
57415SOL    HW179295   7.613   8.282   9.435 -0.5438  1.8971  0.9213
57415SOL    HW279296   7.592   8.304   9.584  0.7710 -3.2596  2.0700
57416SOL     OW79297  10.084   0.043   5.246 -0.4133 -0.0806  0.1336
57416SOL    HW179298  10.021   0.068   5.178  1.5236  0.7101 -1.4449
57416SOL    HW279299  10.109   0.125   5.287 -0.0777 -0.3341  0.4450
57417SOL     OW79300   4.522  10.539   0.282  0.0676  0.3109  0.1675
57417SOL    HW179301   4.525  10.447   0.253  2.1674  0.5453 -0.5391
57417SOL    HW279302   4.595  10.547   0.342 -0.5568  1.3633  0.8064
57418SOL     OW79303   6.516   4.268  10.588 -0.1218  0.0883 -0.1062
57418SOL    HW179304   6.606   4.295  10.607 -0.0177 -0.0300 -0.4129
57418SOL    HW279305   6.463   4.308  10.657  0.2491 -0.3746  0.4574
57419SOL     OW79306  10.812   1.213   8.105 -0.9039  0.5466 -0.3765
57419SOL    HW179307  10.863   1.148   8.056  2.5628  1.9902  1.0036
57419SOL    HW279308  10.807   1.178   8.194  0.4242  1.8095  0.2259
57420SOL     OW79309   8.033   0.126   0.026  0.0449  0.1847 -0.7853
57420SOL    HW179310   7.997   0.040   0.048 -0.0249  0.0063 -1.5725
57420SOL    HW279311   8.109   0.107  -0.029  1.8387  0.5144  1.4034
57421SOL     OW79312  10.895   2.998   5.960  0.2415  0.3130  0.3839
57421SOL    HW179313  10.975   3.049   5.967  0.0403  0.6894 -0.0499
57421SOL    HW279314  10.914   2.933   5.893  0.6419 -0.4722  1.2243
57422SOL     OW79315  11.204  10.092   7.733  0.5470 -0.4930 -0.3558
57422SOL    HW179316  11.203  10.184   7.707  0.0410 -0.4970 -0.3650
57422SOL    HW279317  11.285  10.081   7.782  0.9048 -0.1859 -0.8734
57423SOL     OW79318   2.618   8.630   1.944  0.5242 -0.2408 -0.2361
57423SOL    HW179319   2.597   8.674   2.026  0.7290  0.1888 -0.4139
57423SOL    HW279320   2.684   8.565   1.967  0.3951 -0.2969 -0.0186
57424SOL     OW79321  11.992   3.347   2.190 -0.3618 -0.4069 -0.9425
57424SOL    HW179322  11.984   3.326   2.283  1.3782 -1.5750 -1.0084
57424SOL    HW279323  11.903   3.341   2.156 -1.0898  0.4464  0.7053
57425SOL     OW79324   9.224  12.360   3.709  0.2041  0.2598  0.2275
57425SOL    HW179325   9.266  12.295   3.653  0.5626  0.5639  0.1410
57425SOL    HW279326   9.195  12.311   3.786 -1.1582 -0.3530 -0.6427
57426SOL     OW79327   1.221   8.932   2.123  0.7897  0.3446  0.2026
57426SOL    HW179328   1.147   8.964   2.071  1.6179  1.4239 -0.3533
57426SOL    HW279329   1.236   9.001   2.188 -0.4977 -1.1607  2.2413
57427SOL     OW79330   8.339   1.514  11.080  0.4710  0.4636 -0.2411
57427SOL    HW179331   8.301   1.483  11.162 -1.3139  1.7630 -0.5043
57427SOL    HW279332   8.420   1.464  11.070  0.4626 -0.1020  2.0254
57428SOL     OW79333  10.693   1.917   8.109 -0.8227 -0.3610 -0.2434
57428SOL    HW179334  10.668   2.007   8.128 -1.7554 -0.6561 -0.0325
57428SOL    HW279335  10.632   1.863   8.161  0.4046 -1.1053  0.4895
57429SOL     OW79336   4.470  10.495   0.578  0.0613  0.4626  0.6459
57429SOL    HW179337   4.498  10.586   0.569 -0.0602  0.4201 -0.3375
57429SOL    HW279338   4.552  10.445   0.583  0.1534  0.5422  0.0830
57430SOL     OW79339   5.462   3.430   5.513  0.2065 -0.0561  0.4497
57430SOL    HW179340   5.502   3.423   5.600  1.2353  0.2930  0.0201
57430SOL    HW279341   5.445   3.523   5.501 -1.5976 -0.2685  0.9692
57431SOL     OW79342   1.688   8.081  12.090 -0.0651 -0.3615  0.5756
57431SOL    HW179343   1.635   8.002  12.088  0.6404 -0.8758  1.6617
57431SOL    HW279344   1.668   8.125  12.007  0.6084 -2.3768 -0.7322
57432SOL     OW79345   1.139   4.505  10.440  0.2844 -0.0821 -0.0435
57432SOL    HW179346   1.226   4.540  10.463  1.5024 -2.7171 -0.3034
57432SOL    HW279347   1.100   4.480  10.524 -0.3790  1.3025  0.0943
57433SOL     OW79348   6.443  10.892   7.797 -0.0575  0.4752 -0.2009
57433SOL    HW179349   6.414  10.899   7.706  0.3080  1.2525 -0.2692
57433SOL    HW279350   6.416  10.974   7.837  0.3505  0.4092  0.2250
57434SOL     OW79351   8.177   4.817   4.760 -0.2515  0.0133 -0.0544
57434SOL    HW179352   8.237   4.830   4.833 -0.7717 -0.0482  0.3910
57434SOL    HW279353   8.144   4.728   4.771  0.3714 -0.3288 -0.8973
57435SOL     OW79354   1.238  10.069  11.225 -0.2154 -0.4414 -0.1129
57435SOL    HW179355   1.331  10.063  11.203  0.0541  0.7960  0.6347
57435SOL    HW279356   1.201  10.128  11.159 -0.6680 -1.5583 -0.9043
57436SOL     OW79357   3.229  11.214   4.901  0.3104 -0.2896  0.0392
57436SOL    HW179358   3.169  11.281   4.869  1.3591  1.0449  0.7884
57436SOL    HW279359   3.267  11.176   4.821  0.1794  0.4424 -0.3803
57437SOL     OW79360   3.867   2.099   3.143  0.2373  0.2087 -0.2086
57437SOL    HW179361   3.821   2.160   3.085  1.1212 -0.7915 -2.0618
57437SOL    HW279362   3.804   2.028   3.158  0.8680 -0.8577 -2.2365
57438SOL     OW79363   0.060  11.128  12.093  0.3341 -0.2553 -0.1940
57438SOL    HW179364  -0.035  11.127  12.092  0.3324 -0.8754 -1.3591
57438SOL    HW279365   0.084  11.184  12.019  0.8619 -1.5456 -1.0363
57439SOL     OW79366   5.046   4.390  12.132 -0.0748 -0.1240 -0.0883
57439SOL    HW179367   5.082   4.469  12.093  0.1158 -0.9058 -1.5599
57439SOL    HW279368   5.118   4.328  12.134 -0.3589 -0.4547  0.5602
57440SOL     OW79369  10.371   0.567   2.490  0.4008 -0.9659 -0.4608
57440SOL    HW179370  10.467   0.570   2.500  0.3156  0.7737  0.2611
57440SOL    HW279371  10.355   0.602   2.402  0.3698  0.9502  0.2565
57441SOL     OW79372   5.596   0.122   8.838 -0.4878  0.3729  0.1207
57441SOL    HW179373   5.560   0.124   8.927  0.3165 -2.3373  0.6046
57441SOL    HW279374   5.657   0.196   8.834 -0.4273  0.4438  1.8672
57442SOL     OW79375   2.588   8.711   4.770 -0.4816 -0.2265 -0.5129
57442SOL    HW179376   2.628   8.785   4.723  1.3597 -1.0114 -0.2607
57442SOL    HW279377   2.565   8.648   4.701 -0.3665 -0.1973 -0.5775
57443SOL     OW79378   0.714  10.951   0.405  0.1907 -0.4210 -0.0251
57443SOL    HW179379   0.785  10.951   0.469  2.3473  0.2175 -2.2510
57443SOL    HW279380   0.666  10.870   0.422  1.8875 -1.2394  1.1056
57444SOL     OW79381   4.563   7.457   4.867 -0.2003 -0.3545 -0.3842
57444SOL    HW179382   4.523   7.492   4.946 -2.5876 -1.8336 -0.8275
57444SOL    HW279383   4.617   7.384   4.898  0.7002  0.4956  0.0682
57445SOL     OW79384   8.403  10.145   0.882 -0.1942 -0.0061 -0.3441
57445SOL    HW179385   8.383  10.238   0.869 -0.0281 -0.0332 -0.8156
57445SOL    HW279386   8.409  10.135   0.977 -0.3399  0.4399 -0.2843
57446SOL     OW79387   6.097   3.619   2.576  0.0359 -0.4875  0.0558
57446SOL    HW179388   6.152   3.543   2.560  0.5340 -0.5127  1.6712
57446SOL    HW279389   6.092   3.626   2.672 -0.0437  1.4689 -0.0355
57447SOL     OW79390  11.636   5.827   8.713 -0.1166 -0.3549  0.5082
57447SOL    HW179391  11.581   5.861   8.784 -0.3550 -0.8804  0.5771
57447SOL    HW279392  11.612   5.881   8.637  0.3816  0.4329  0.8948
57448SOL     OW79393   9.213   5.682   2.330  0.2264 -0.7570  0.6770
57448SOL    HW179394   9.159   5.642   2.398  1.8156 -1.1657  1.7499
57448SOL    HW279395   9.287   5.721   2.377  0.4123  0.5988 -0.6552
57449SOL     OW79396   6.440   8.954   6.283 -0.2881  0.2765  0.2082
57449SOL    HW179397   6.472   8.910   6.204  0.4609 -1.9020  1.6147
57449SOL    HW279398   6.507   9.019   6.303  0.8671 -0.9165  0.4124
57450SOL     OW79399  11.608  12.162   0.119 -0.1766  0.1341  0.0167
57450SOL    HW179400  11.595  12.230   0.052 -0.0637  1.2488  1.1079
57450SOL    HW279401  11.673  12.104   0.080 -0.2681  0.6359 -0.9426
57451SOL     OW79402   1.253   0.341   5.279  0.3722  0.9757  0.0553
57451SOL    HW179403   1.232   0.272   5.342 -1.0407 -1.2355 -2.6107
57451SOL    HW279404   1.172   0.393   5.273  0.4023  1.0022 -0.1339
57452SOL     OW79405  12.320   9.639   7.528  0.2188  0.1184 -0.3271
57452SOL    HW179406  12.253   9.704   7.548 -1.8351 -2.0942  0.5011
57452SOL    HW279407  12.309   9.572   7.596  2.9276 -0.6423 -0.5122
57453SOL     OW79408   6.589   1.611  10.579 -0.2367 -0.1359 -0.3514
57453SOL    HW179409   6.646   1.638  10.651  0.0179 -0.2399 -0.5101
57453SOL    HW279410   6.503   1.602  10.619  0.3339 -2.5887  0.5321
57454SOL     OW79411   6.987   3.728   4.450 -0.5623  0.3161  0.2664
57454SOL    HW179412   7.016   3.637   4.464 -0.5264  0.6171  2.5616
57454SOL    HW279413   7.027   3.776   4.522  1.6159  2.7402 -2.3332
57455SOL     OW79414   6.973   7.037   2.208  0.0958 -0.5152  0.0368
57455SOL    HW179415   7.001   7.035   2.116  0.0549 -1.9307  0.0384
57455SOL    HW279416   6.901   7.100   2.210 -0.6868 -1.3336 -1.1362
57456SOL     OW79417   0.111  10.250   5.630  0.0875  0.2768 -0.4420
57456SOL    HW179418   0.088  10.334   5.592  0.3005  0.5699  0.0668
57456SOL    HW279419   0.205  10.257   5.649 -0.0501  0.2153  0.3101
57457SOL     OW79420   7.385   6.036   4.389  0.4776 -0.1927 -0.0415
57457SOL    HW179421   7.453   5.971   4.406  1.0456 -0.1414 -1.8972
57457SOL    HW279422   7.303   5.992   4.411  0.9827 -0.8544  0.5621
57458SOL     OW79423   7.927  10.525   9.268  0.1992 -0.0901 -0.0250
57458SOL    HW179424   7.948  10.448   9.216  4.0971 -0.0999  1.2450
57458SOL    HW279425   7.905  10.491   9.354 -0.5277  0.1232 -0.1278
57459SOL     OW79426   8.868   6.431   3.485 -0.0373  0.4103  0.1533
57459SOL    HW179427   8.959   6.451   3.506 -0.2626  1.6141  0.0171
57459SOL    HW279428   8.818   6.500   3.528 -0.9519 -0.6369  0.8123
57460SOL     OW79429   5.144   7.235   3.879  0.2282  0.6430 -0.4264
57460SOL    HW179430   5.145   7.323   3.915  2.5482 -0.5639  2.9776
57460SOL    HW279431   5.218   7.233   3.818  0.5646  0.9040 -0.0306
57461SOL     OW79432   4.650  10.393   4.785  0.4186  0.2486  0.2854
57461SOL    HW179433   4.639  10.345   4.702  2.5582  1.5824 -0.8427
57461SOL    HW279434   4.570  10.373   4.834 -0.6639 -1.0667 -1.8402
57462SOL     OW79435   4.134   5.840   1.280 -0.2959 -0.0893  0.5803
57462SOL    HW179436   4.053   5.852   1.331  0.6083 -0.8030  2.2549
57462SOL    HW279437   4.128   5.751   1.246 -0.9899  0.4543 -0.7771
57463SOL     OW79438  12.246   8.375   2.002  0.0461 -0.3465  0.2954
57463SOL    HW179439  12.276   8.391   1.912 -0.9081  1.4247  0.2373
57463SOL    HW279440  12.318   8.329   2.044  0.5848 -1.0499 -1.3309
57464SOL     OW79441   9.937   6.463  10.198  0.5609 -0.5554 -0.0011
57464SOL    HW179442  10.030   6.477  10.217  0.9300 -0.9062 -1.3839
57464SOL    HW279443   9.915   6.531  10.135  0.3048 -1.3917 -0.8440
57465SOL     OW79444  12.169  11.003   7.229 -0.2785  0.2072  0.5777
57465SOL    HW179445  12.207  10.919   7.255 -0.3338  0.3137  1.0071
57465SOL    HW279446  12.079  10.982   7.206  0.6691 -0.5570 -3.1030
57466SOL     OW79447   8.308   2.393   9.792 -0.1135 -0.1762 -0.3758
57466SOL    HW179448   8.379   2.342   9.830 -0.7424 -1.2738 -0.6386
57466SOL    HW279449   8.228   2.346   9.818 -0.7417  0.9583 -0.1884
57467SOL     OW79450   2.556  11.569   4.051 -0.1696 -0.4753 -0.1478
57467SOL    HW179451   2.567  11.513   3.974  0.2069 -0.3352 -0.2023
57467SOL    HW279452   2.477  11.537   4.094 -0.5555 -0.3577 -0.7582
57468SOL     OW79453   4.503   8.193  11.147 -0.6226  0.0689 -0.2751
57468SOL    HW179454   4.556   8.212  11.069 -0.2596  0.0146 -0.0447
57468SOL    HW279455   4.414   8.215  11.121 -0.5707 -0.3756 -0.8567
57469SOL     OW79456   9.748   1.431   9.201 -1.2308  0.1375 -0.4328
57469SOL    HW179457   9.653   1.442   9.198 -1.2145  0.5450  0.3570
57469SOL    HW279458   9.771   1.445   9.293 -0.4227 -0.1019 -0.5904
57470SOL     OW79459   9.709   9.805   4.778  0.2024  0.4061 -0.5105
57470SOL    HW179460   9.790   9.848   4.751  1.0751 -0.6488  0.2897
57470SOL    HW279461   9.725   9.712   4.759  0.0982 -0.1226  1.7099
57471SOL     OW79462  11.387   4.392   9.175  0.0736 -0.3688  0.1569
57471SOL    HW179463  11.411   4.344   9.255 -0.3449 -0.2635  0.3518
57471SOL    HW279464  11.465   4.444   9.154  0.5543 -1.1678 -0.0894
57472SOL     OW79465   6.356   7.815   1.935 -0.6212  0.2415  0.1596
57472SOL    HW179466   6.340   7.721   1.949  2.0814 -1.0182 -3.3493
57472SOL    HW279467   6.431   7.835   1.991 -0.2657 -0.1740 -0.1539
57473SOL     OW79468   2.181  10.587   7.128 -0.9479 -0.3895 -0.1337
57473SOL    HW179469   2.126  10.570   7.052 -2.3070  1.6746  0.2836
57473SOL    HW279470   2.124  10.638   7.187  0.3820 -1.0269  1.8085
57474SOL     OW79471   7.836   6.306   2.634 -0.1885  0.1985 -0.1939
57474SOL    HW179472   7.792   6.222   2.646  0.6815 -0.1237  0.9193
57474SOL    HW279473   7.881   6.322   2.717  0.0120  1.5608 -0.5386
57475SOL     OW79474  11.303  11.416   9.241  0.0096  0.4843  0.5206
57475SOL    HW179475  11.242  11.401   9.314  1.1653 -0.8456  1.2559
57475SOL    HW279476  11.390  11.411   9.281  0.6903 -0.7817 -1.0150
57476SOL     OW79477  11.225   0.738   1.377 -0.5639 -0.4399  0.7623
57476SOL    HW179478  11.200   0.684   1.303 -0.7863  0.8851 -0.1573
57476SOL    HW279479  11.309   0.775   1.353 -1.1056  0.8009  0.7110
57477SOL     OW79480   9.105   0.225   3.228  0.0865  0.2376  0.0489
57477SOL    HW179481   9.107   0.131   3.211 -2.5936  0.2951 -1.1562
57477SOL    HW279482   9.047   0.235   3.303  0.1018  0.9499 -0.0245
57478SOL     OW79483  11.828  10.729   8.029  0.4045 -0.3428 -0.1058
57478SOL    HW179484  11.775  10.767   8.099  2.0616  0.8781  0.5695
57478SOL    HW279485  11.789  10.762   7.948  0.1154  0.5193  0.3748
57479SOL     OW79486  12.298   8.577  12.469  0.2850 -0.3726 -0.1049
57479SOL    HW179487  12.351   8.532  12.403  2.5203  0.8689  0.6985
57479SOL    HW279488  12.229   8.515  12.492  0.3734 -1.4393 -2.4322
57480SOL     OW79489  11.573   1.362  11.963 -0.0654 -0.1118  0.2172
57480SOL    HW179490  11.603   1.271  11.956 -0.2919 -0.2579  1.1448
57480SOL    HW279491  11.642   1.412  11.918  1.1726 -0.5290  1.5664
57481SOL     OW79492   2.489   7.588   4.955  0.2053  0.2984 -0.7367
57481SOL    HW179493   2.471   7.641   4.877 -0.7763  0.8353 -0.1526
57481SOL    HW279494   2.426   7.517   4.950 -0.4090  0.7875 -0.0049
57482SOL     OW79495   9.734  11.752   3.944  0.8790 -0.1081  0.0221
57482SOL    HW179496   9.756  11.676   3.890  0.8553 -0.5504  0.6225
57482SOL    HW279497   9.644  11.736   3.972  0.7317  0.3438 -0.1742
57483SOL     OW79498   7.538   6.221   3.473 -0.3562  0.2733 -0.6104
57483SOL    HW179499   7.617   6.173   3.498 -0.9397 -2.1097 -2.9584
57483SOL    HW279500   7.571   6.306   3.444  1.2019 -0.1996 -0.3518
57484SOL     OW79501  10.546   9.526   1.543  0.3038  0.2034  0.3024
57484SOL    HW179502  10.542   9.592   1.474  0.4719 -0.7867 -0.7011
57484SOL    HW279503  10.567   9.445   1.496  2.3242 -0.1745  1.7540
57485SOL     OW79504   3.462   2.565   1.157 -0.0572 -0.5792 -0.7126
57485SOL    HW179505   3.429   2.475   1.160  0.2459 -0.6742  0.3826
57485SOL    HW279506   3.385   2.619   1.141 -0.8468 -0.7832  1.9268
57486SOL     OW79507  10.910   5.928   6.138  0.2382  0.5080  0.1774
57486SOL    HW179508  10.989   5.921   6.192 -0.4300 -3.4973  0.9245
57486SOL    HW279509  10.838   5.904   6.196 -0.9755 -0.0790 -1.4851
57487SOL     OW79510   6.875   0.307  12.109  0.1695  0.1845  0.2707
57487SOL    HW179511   6.853   0.241  12.174 -0.4376 -0.5002 -0.6110
57487SOL    HW279512   6.935   0.367  12.155 -0.9790  0.2664  1.7417
57488SOL     OW79513   9.955   2.081   4.075 -0.3334  0.1656  0.3266
57488SOL    HW179514   9.900   2.019   4.026 -0.1709 -0.1426  0.5324
57488SOL    HW279515  10.034   2.031   4.096 -0.1418  0.4883  0.3693
57489SOL     OW79516   5.757   4.246   5.150  0.2769  0.0781  0.0739
57489SOL    HW179517   5.667   4.267   5.174  0.5152 -0.1057  1.1610
57489SOL    HW279518   5.749   4.198   5.068 -0.6649 -0.4836  0.4742
57490SOL     OW79519   7.683   7.266  12.344  0.4344  0.2354 -0.1718
57490SOL    HW179520   7.631   7.333  12.299  0.3111  0.2587  0.0015
57490SOL    HW279521   7.632   7.245  12.422  0.6452  0.1949 -0.0443
57491SOL     OW79522   3.761   0.373  11.521 -0.2716 -0.1390  0.4889
57491SOL    HW179523   3.771   0.465  11.496 -0.6368  0.2423  1.6801
57491SOL    HW279524   3.683   0.343  11.474  0.1693 -0.0126 -0.3390
57492SOL     OW79525   0.693  11.321   6.638 -0.1570  0.0628  0.0104
57492SOL    HW179526   0.732  11.253   6.693 -1.7978 -1.1526 -0.2831
57492SOL    HW279527   0.624  11.360   6.692 -0.4781  0.2018 -0.4891
57493SOL     OW79528   7.002   6.428   0.548 -0.1345 -0.0015 -0.5612
57493SOL    HW179529   6.999   6.523   0.555  0.6608 -0.0925  1.6721
57493SOL    HW279530   6.971   6.396   0.633  0.0451 -1.7272 -1.1013
57494SOL     OW79531   8.893   2.881   3.247 -0.2900 -0.6117 -0.7230
57494SOL    HW179532   8.896   2.938   3.170 -0.8029  0.7474  0.2141
57494SOL    HW279533   8.984   2.869   3.272 -0.1399 -0.8015 -1.3541
57495SOL     OW79534   0.245   9.759   2.249  0.1675  0.4749  0.4870
57495SOL    HW179535   0.270   9.823   2.183 -0.5768  1.5532  1.2308
57495SOL    HW279536   0.164   9.720   2.215  1.2015 -0.9192 -0.5036
57496SOL     OW79537   3.769   7.972   7.796  0.3387 -0.3855  0.4880
57496SOL    HW179538   3.755   8.009   7.709 -2.3123 -0.9204  0.6076
57496SOL    HW279539   3.696   8.004   7.848  1.0387 -1.2974  2.1110
57497SOL     OW79540   4.793   1.747   5.213  0.4755  0.4688  0.6513
57497SOL    HW179541   4.787   1.738   5.118  0.2701  1.7012  0.5413
57497SOL    HW279542   4.705   1.726   5.245  0.3401  0.8325  0.5108
57498SOL     OW79543  12.055   2.837   9.116  0.0341  0.2226  0.5819
57498SOL    HW179544  12.004   2.784   9.054  1.4891 -1.0362  0.4198
57498SOL    HW279545  11.993   2.904   9.146 -1.6238 -1.0418  0.1457
57499SOL     OW79546   6.307   6.933   2.549  0.3673 -0.5474  0.2603
57499SOL    HW179547   6.359   6.913   2.471 -1.7191  0.7624 -1.5798
57499SOL    HW279548   6.352   7.009   2.588 -0.0274  0.5262 -1.2602
57500SOL     OW79549   5.251   6.891   3.163 -0.1910 -0.2590 -0.3742
57500SOL    HW179550   5.176   6.840   3.193 -0.0486  1.8101  4.3210
57500SOL    HW279551   5.214   6.976   3.138  0.2946 -0.3751 -1.5820
57501SOL     OW79552   1.962   0.605   6.497 -0.0694 -0.0070  0.3057
57501SOL    HW179553   1.967   0.659   6.419 -0.7967  0.0735  0.3110
57501SOL    HW279554   1.972   0.666   6.570  1.9982 -0.2443  0.2786
57502SOL     OW79555   3.890   5.261  10.973  0.1732  0.3084 -0.0081
57502SOL    HW179556   3.970   5.310  10.955 -1.0880  2.7461  0.5917
57502SOL    HW279557   3.841   5.264  10.891  0.2736 -0.3467 -0.0944
57503SOL     OW79558   7.286   8.145   8.328 -0.3346  0.3332 -0.1565
57503SOL    HW179559   7.361   8.171   8.382  1.0729  0.3400 -2.0482
57503SOL    HW279560   7.317   8.151   8.238 -2.1777 -1.0459 -0.9510
57504SOL     OW79561   0.132   1.410   2.852  0.1650  0.1710  0.4417
57504SOL    HW179562   0.039   1.390   2.856  0.0538  0.6050  0.0408
57504SOL    HW279563   0.136   1.506   2.856  0.5694  0.1732  0.0242
57505SOL     OW79564  11.773   3.073   4.851  0.1805  0.0833 -0.0664
57505SOL    HW179565  11.868   3.066   4.845  0.2192 -0.8857  1.2928
57505SOL    HW279566  11.757   3.153   4.900  0.2474  0.6344 -0.9121
57506SOL     OW79567   4.863   8.612   8.462  0.0427  0.2379 -1.1693
57506SOL    HW179568   4.818   8.692   8.437  1.2890  1.9026  1.4878
57506SOL    HW279569   4.939   8.608   8.404 -0.0339  0.9726 -1.3329
57507SOL     OW79570   6.957  11.664   5.409 -0.5077 -0.0843 -0.4571
57507SOL    HW179571   7.052  11.663   5.404 -0.4609 -2.4552 -0.3392
57507SOL    HW279572   6.928  11.694   5.323  0.2831  2.0540 -0.0452
57508SOL     OW79573   5.011   8.359  11.308  0.5340  0.1209  0.2370
57508SOL    HW179574   5.009   8.377  11.402 -0.1212  0.9714  0.0719
57508SOL    HW279575   4.929   8.396  11.275  0.4502 -0.7513 -0.5705
57509SOL     OW79576   1.426   5.132   8.374  0.0371  0.1511  0.0783
57509SOL    HW179577   1.452   5.199   8.312 -0.1893  0.3832  0.2344
57509SOL    HW279578   1.503   5.075   8.382 -0.3177 -0.5710 -1.3065
57510SOL     OW79579   5.371   6.369   0.458  0.1696 -0.5207  0.4011
57510SOL    HW179580   5.435   6.358   0.388 -0.1234 -1.7871  0.3135
57510SOL    HW279581   5.419   6.415   0.527  0.2112  1.5905 -0.9457
57511SOL     OW79582   9.279   5.181   4.459  0.6556 -0.3876 -0.1410
57511SOL    HW179583   9.264   5.235   4.536  0.3855 -1.3179  0.4663
57511SOL    HW279584   9.195   5.180   4.413  1.1242  1.1414 -1.1066
57512SOL     OW79585  11.340   9.238   2.240 -0.0681 -0.4809 -0.1073
57512SOL    HW179586  11.305   9.312   2.289  0.9621  0.1552 -0.2941
57512SOL    HW279587  11.329   9.263   2.148  2.8780  0.8067 -0.2161
57513SOL     OW79588   7.515   1.301  11.382  0.7634  0.0505  0.3457
57513SOL    HW179589   7.428   1.341  11.372  0.0755 -1.5915 -0.7886
57513SOL    HW279590   7.575   1.375  11.389 -0.7342  1.2305  1.3753
57514SOL     OW79591   5.080   1.923   0.431 -0.4061  0.1196 -0.1251
57514SOL    HW179592   5.171   1.941   0.407  0.0325 -1.2592  0.3880
57514SOL    HW279593   5.029   1.955   0.357  0.5085  0.7175 -0.5207
57515SOL     OW79594   7.315   6.724   1.371  0.1440 -0.5962  0.0890
57515SOL    HW179595   7.398   6.740   1.415 -0.7429  0.3465  1.5146
57515SOL    HW279596   7.289   6.810   1.336 -1.7840 -0.0219  2.5902
57516SOL     OW79597  10.725   6.519   8.765 -0.0005  0.1254 -0.1985
57516SOL    HW179598  10.815   6.547   8.747  0.9126 -2.2654  0.3752
57516SOL    HW279599  10.727   6.424   8.757 -1.9441 -0.1940  2.0620
57517SOL     OW79600  10.497   7.844   3.688  0.2357  0.3690  0.5312
57517SOL    HW179601  10.488   7.756   3.726  2.4570 -1.0290 -1.8190
57517SOL    HW279602  10.588   7.847   3.658  0.1194  3.4014  0.2665
57518SOL     OW79603   2.469   7.298   6.531 -0.3220 -0.3778 -0.1680
57518SOL    HW179604   2.506   7.368   6.478  1.5178 -1.5377 -0.5084
57518SOL    HW279605   2.459   7.224   6.471 -1.3146 -0.7261  0.3945
57519SOL     OW79606   7.435   8.568   7.852  0.4897 -0.0215  0.4313
57519SOL    HW179607   7.407   8.645   7.900 -0.4795 -0.1112  0.0286
57519SOL    HW279608   7.449   8.599   7.762 -3.6781 -0.9704 -0.7336
57520SOL     OW79609  10.783   9.589  10.274  0.8169  0.3701  0.5627
57520SOL    HW179610  10.742   9.674  10.261  0.4193 -0.0755 -1.4537
57520SOL    HW279611  10.711   9.526  10.264  0.5514 -0.2381  4.5148
57521SOL     OW79612   9.599   8.408   9.366 -0.0501  0.6884 -0.4951
57521SOL    HW179613   9.584   8.347   9.294  0.5630  0.2967 -0.3010
57521SOL    HW279614   9.522   8.400   9.422 -0.1914  0.4459 -0.7245
57522SOL     OW79615  11.619   1.275   9.360 -0.3415  0.0052 -0.1917
57522SOL    HW179616  11.693   1.334   9.351 -0.4384  0.4130  1.4021
57522SOL    HW279617  11.548   1.317   9.311 -0.5417  1.4721  1.2775
57523SOL     OW79618   4.975   3.952   3.582  0.4446 -0.0408 -0.4613
57523SOL    HW179619   5.016   4.027   3.539  1.8659 -1.3701 -1.5677
57523SOL    HW279620   4.990   3.879   3.521  0.5373 -1.5490  1.2790
57524SOL     OW79621  11.191   1.295   5.823 -0.4176  0.0581  0.4726
57524SOL    HW179622  11.185   1.379   5.868 -0.1651  0.4156 -0.1397
57524SOL    HW279623  11.233   1.316   5.739 -0.9420 -0.5735  0.0371
57525SOL     OW79624   3.547   2.937   2.777 -0.2634 -0.1506 -0.0489
57525SOL    HW179625   3.551   2.896   2.690 -2.4873 -0.8367  0.0854
57525SOL    HW279626   3.553   2.863   2.838 -1.1654  0.0383  0.2881
57526SOL     OW79627   6.607   1.123   9.756  0.2406 -0.1090  0.3490
57526SOL    HW179628   6.624   1.034   9.724  0.0663  0.1597 -0.5172
57526SOL    HW279629   6.533   1.113   9.816  1.9710 -0.9658  2.4867
57527SOL     OW79630   9.750   5.334  11.426 -0.7839 -0.0164  0.2235
57527SOL    HW179631   9.700   5.275  11.481 -0.2332  0.0738  0.8356
57527SOL    HW279632   9.817   5.371  11.484 -0.4365  0.3781 -0.4071
57528SOL     OW79633   2.352  10.299   3.488 -0.6160 -0.3604  0.5516
57528SOL    HW179634   2.277  10.349   3.455 -1.0168 -1.2879  0.0090
57528SOL    HW279635   2.318  10.210   3.498  0.6787 -1.0399 -0.7089
57529SOL     OW79636  10.926   8.944   7.347 -0.2853  0.0048 -0.2183
57529SOL    HW179637  10.947   9.010   7.280 -1.0235  0.5005  0.0157
57529SOL    HW279638  10.831   8.934   7.340 -0.3601  0.0024  0.7029
57530SOL     OW79639   3.915   0.238  11.317 -0.0773  0.5196 -0.3880
57530SOL    HW179640   3.982   0.288  11.271  0.2909  1.4334  1.0640
57530SOL    HW279641   3.891   0.293  11.392 -1.4780 -0.3946 -0.1156
57531SOL     OW79642  10.691   5.581   0.417  0.7975 -0.0657 -0.0494
57531SOL    HW179643  10.729   5.669   0.409 -1.2513  0.7545 -1.6176
57531SOL    HW279644  10.631   5.588   0.490 -0.1163  0.1700 -0.8031
57532SOL     OW79645  12.072  10.913   1.821  0.7757  0.0760  0.4788
57532SOL    HW179646  12.064  10.822   1.792  1.0830  0.5037 -1.0077
57532SOL    HW279647  11.996  10.927   1.877  0.9903 -1.2346  1.1438
57533SOL     OW79648   9.906   6.953   4.869 -0.4723 -0.3539  0.3443
57533SOL    HW179649   9.996   6.920   4.868  0.4772  2.0608  0.0420
57533SOL    HW279650   9.883   6.958   4.961  0.0714 -0.0533  0.4636
57534SOL     OW79651   4.147   8.141   7.371 -0.3153  0.2292  0.4809
57534SOL    HW179652   4.117   8.064   7.419 -0.4556 -0.4443 -0.6454
57534SOL    HW279653   4.112   8.129   7.282 -1.0222  2.0116  0.4986
57535SOL     OW79654  10.405   0.907   4.645  0.1394 -0.1487  0.4008
57535SOL    HW179655  10.466   0.846   4.687  0.2490 -0.6915 -0.5059
57535SOL    HW279656  10.329   0.909   4.703  0.8126  0.1491  1.2923
57536SOL     OW79657   4.765   5.203   0.626 -0.5904 -0.5710  0.2296
57536SOL    HW179658   4.761   5.263   0.552  0.4400  1.3145  1.6269
57536SOL    HW279659   4.712   5.245   0.694 -0.7013 -1.7599  0.9026
57537SOL     OW79660  12.484   8.466   3.728 -0.4845 -0.2685  0.3772
57537SOL    HW179661  12.502   8.389   3.675 -0.5830  0.4636 -0.7495
57537SOL    HW279662  12.407   8.506   3.688  1.2784  2.0358 -0.9351
57538SOL     OW79663   1.410  10.778   7.033 -0.5007 -0.3866 -0.2249
57538SOL    HW179664   1.339  10.775   7.098 -1.4018 -2.8183 -1.1743
57538SOL    HW279665   1.468  10.706   7.059 -1.0296 -1.6005 -2.1554
57539SOL     OW79666   1.730   9.398   5.060  0.3158  0.1866 -0.0900
57539SOL    HW179667   1.712   9.491   5.045 -0.3998  0.1217  0.3647
57539SOL    HW279668   1.820   9.386   5.027 -0.1328  0.6970 -1.6027
57540SOL     OW79669  11.842  11.974  11.840  0.4608 -0.0863  0.1556
57540SOL    HW179670  11.891  12.055  11.824 -0.7525  0.6439  0.0199
57540SOL    HW279671  11.890  11.930  11.910  1.9472  0.0351 -0.7425
57541SOL     OW79672   5.897   5.471   2.776  0.6757 -0.0320 -0.7884
57541SOL    HW179673   5.963   5.450   2.710  0.3413 -1.0694 -0.8141
57541SOL    HW279674   5.933   5.547   2.823  1.6857 -0.3117 -1.0839
57542SOL     OW79675  11.847  10.398   9.100  0.8736 -0.2016 -0.4934
57542SOL    HW179676  11.908  10.393   9.173 -0.5742  1.8223  0.9660
57542SOL    HW279677  11.842  10.309   9.066  2.6864 -0.9046  0.9171
57543SOL     OW79678  11.602  10.809   5.078  0.1559 -0.1418  0.3296
57543SOL    HW179679  11.617  10.781   4.987 -1.2928 -1.3357  0.4138
57543SOL    HW279680  11.690  10.818   5.115  0.7514 -0.8724 -0.8402
57544SOL     OW79681   9.859   8.136   9.640 -0.2802  0.0613  0.0096
57544SOL    HW179682   9.930   8.073   9.625  0.3347  0.0551  2.5272
57544SOL    HW279683   9.897   8.200   9.701 -2.2288  0.4081  0.9298
57545SOL     OW79684   3.521  11.121   7.028 -0.8271  0.1200  0.5788
57545SOL    HW179685   3.550  11.192   7.086 -0.6290  2.2867 -1.9444
57545SOL    HW279686   3.601  11.074   7.005  0.0069  2.4674 -1.8103
57546SOL     OW79687   7.247   7.570   3.506 -0.1153  0.1047  0.3417
57546SOL    HW179688   7.215   7.590   3.594  0.6156  0.9654  0.4169
57546SOL    HW279689   7.238   7.652   3.458  1.2694  0.1650  0.1571
57547SOL     OW79690   0.596   2.078  12.435 -0.0298 -0.4698 -0.0758
57547SOL    HW179691   0.541   2.006  12.404 -0.6118  0.3685 -1.0579
57547SOL    HW279692   0.676   2.071  12.383 -0.3098 -0.0963 -0.5706
57548SOL     OW79693  11.787   6.186   0.180  0.2118 -0.0081  0.6301
57548SOL    HW179694  11.704   6.201   0.226 -0.5941 -1.4666 -0.2331
57548SOL    HW279695  11.851   6.172   0.250 -0.5778 -0.3138  1.3152
57549SOL     OW79696   9.005   0.270   1.006  0.4545 -0.4634  0.6322
57549SOL    HW179697   8.939   0.330   1.042  0.2454  2.4264 -3.7513
57549SOL    HW279698   9.089   0.312   1.025  0.5819 -0.8100  0.8388
57550SOL     OW79699   6.817   4.838   6.379 -0.7148  0.2060  0.5949
57550SOL    HW179700   6.752   4.828   6.449 -0.3608  0.1277  0.9148
57550SOL    HW279701   6.800   4.925   6.343  0.0624  0.8728  1.7786
57551SOL     OW79702   9.117   1.276   9.591 -0.0638  0.3040  0.0020
57551SOL    HW179703   9.169   1.290   9.512  0.7582  1.4316  0.7174
57551SOL    HW279704   9.030   1.252   9.558 -0.2177  2.3939 -1.3016
57552SOL     OW79705   3.709   6.789   5.391  0.3023 -0.5200  0.0804
57552SOL    HW179706   3.687   6.794   5.484  0.8360  2.1897  0.1292
57552SOL    HW279707   3.800   6.760   5.389  0.8131  0.9601  0.5324
57553SOL     OW79708  11.965  11.585  11.478 -0.2482 -0.0488 -0.0915
57553SOL    HW179709  11.875  11.567  11.505 -0.5863 -0.7615 -1.6086
57553SOL    HW279710  12.013  11.505  11.500 -0.6739 -0.9205 -2.1345
57554SOL     OW79711   0.348   9.671   2.474  0.5785  0.5350  0.1725
57554SOL    HW179712   0.326   9.717   2.392  1.4383  1.1579  0.2749
57554SOL    HW279713   0.404   9.598   2.446 -0.2189 -0.0480  0.0792
57555SOL     OW79714   7.798   7.183   0.817  0.0520  0.1611 -0.0584
57555SOL    HW179715   7.892   7.184   0.832  0.0047  1.7592  0.2894
57555SOL    HW279716   7.783   7.106   0.762  1.7434  0.6294 -1.2335
57556SOL     OW79717   8.008   0.029   5.169 -0.3381  0.2129  0.1890
57556SOL    HW179718   7.957   0.110   5.178  0.8091  0.7652  2.4992
57556SOL    HW279719   8.005  -0.011   5.256  1.1142 -1.0100 -0.2765
57557SOL     OW79720   7.323   4.649   0.238 -1.0195  0.0004  0.4298
57557SOL    HW179721   7.394   4.605   0.191  3.0502  2.4798  3.5390
57557SOL    HW279722   7.299   4.723   0.181  2.2307  1.6805  0.9928
57558SOL     OW79723   7.217   2.638   0.234 -1.0929  0.4101 -0.2737
57558SOL    HW179724   7.187   2.632   0.325  0.6599 -0.5097  0.2907
57558SOL    HW279725   7.219   2.732   0.216  0.9677  0.7919  1.5452
57559SOL     OW79726   0.421  10.087   4.757 -0.4472 -0.2627 -0.4351
57559SOL    HW179727   0.404  10.021   4.691  0.6702  0.2144 -1.2200
57559SOL    HW279728   0.369  10.059   4.833 -0.2459 -1.8429 -0.8566
57560SOL     OW79729   9.788   6.432  11.336 -0.5289 -0.2325 -0.0806
57560SOL    HW179730   9.778   6.372  11.410 -1.3703  1.5496  1.3114
57560SOL    HW279731   9.837   6.381  11.271 -1.4563 -2.5205  0.8879
57561SOL     OW79732  11.105   7.243   6.344 -0.2208 -0.4423  0.1490
57561SOL    HW179733  11.061   7.222   6.262  0.0963  0.4749 -0.2682
57561SOL    HW279734  11.188   7.196   6.340  0.3235  0.5596 -0.6105
57562SOL     OW79735   4.944  10.738   7.444 -0.0856  0.3900  0.6582
57562SOL    HW179736   4.878  10.771   7.383  1.5094 -0.1436 -1.4818
57562SOL    HW279737   4.986  10.816   7.480  0.1039  0.7283 -0.2750
57563SOL     OW79738  10.440   3.810   6.523 -0.1929 -0.7181 -0.5542
57563SOL    HW179739  10.453   3.815   6.428 -0.3257  0.0574 -0.5364
57563SOL    HW279740  10.358   3.761   6.533  0.5125 -2.0051 -0.7849
57564SOL     OW79741  11.040   3.624   4.341 -0.3575 -0.2789 -0.4424
57564SOL    HW179742  10.979   3.557   4.310  0.0311 -1.1403  0.6032
57564SOL    HW279743  11.124   3.600   4.301 -0.4168  0.1703 -0.8542
57565SOL     OW79744   2.879   8.545   6.509  0.3200  0.0100  0.5489
57565SOL    HW179745   2.911   8.526   6.597 -0.3860 -0.7366  0.6581
57565SOL    HW279746   2.857   8.638   6.510 -0.7514 -0.2362  1.5063
57566SOL     OW79747   6.704   8.917   0.681  0.0239  0.4852  0.2169
57566SOL    HW179748   6.648   8.841   0.669  0.5825  0.0789  0.1728
57566SOL    HW279749   6.686   8.972   0.605 -0.2758  0.3397  0.1801
57567SOL     OW79750   9.364   9.431  12.276 -0.8512 -0.0069 -0.2574
57567SOL    HW179751   9.425   9.445  12.349 -0.4078 -0.1294 -0.6035
57567SOL    HW279752   9.317   9.350  12.300 -1.8714  0.8296  0.6816
57568SOL     OW79753   4.577   0.194   4.592 -0.0654 -0.4767 -0.9126
57568SOL    HW179754   4.515   0.191   4.519 -0.1638  0.6784 -0.8900
57568SOL    HW279755   4.526   0.163   4.667 -0.1014 -1.2174 -1.2342
57569SOL     OW79756   0.204   9.670   1.054  0.8070  0.4090  0.0880
57569SOL    HW179757   0.147   9.747   1.060 -0.3109 -0.4799  1.4162
57569SOL    HW279758   0.189   9.636   0.966 -0.9625  0.0412  0.4952
57570SOL     OW79759   8.044   5.959   4.530 -0.0541  1.0598  0.2413
57570SOL    HW179760   8.095   5.880   4.547 -0.1372  0.9354 -0.0803
57570SOL    HW279761   7.968   5.952   4.589 -1.8568 -0.7879 -2.0887
57571SOL     OW79762   8.562   1.306   3.106  0.1719 -0.4593 -0.0643
57571SOL    HW179763   8.607   1.391   3.106 -0.2342 -0.2001  1.5944
57571SOL    HW279764   8.587   1.266   3.189 -1.2476 -1.0807  0.0866
57572SOL     OW79765  10.697  11.783   6.528  0.0314 -0.1223  0.6330
57572SOL    HW179766  10.729  11.812   6.613  0.0692 -0.5916  0.7829
57572SOL    HW279767  10.680  11.689   6.540 -1.0911  0.0478  0.4693
57573SOL     OW79768   5.091   8.402   4.568 -0.0435 -0.5062  0.0187
57573SOL    HW179769   5.145   8.329   4.596  2.1896  0.5759 -1.1519
57573SOL    HW279770   5.154   8.465   4.531 -2.0921  1.0131 -1.0694
57574SOL     OW79771   6.315  11.249   2.887  0.1502 -0.0829  0.2934
57574SOL    HW179772   6.340  11.335   2.853 -1.7917  0.5885  0.4695
57574SOL    HW279773   6.228  11.261   2.923  0.8373 -1.5232  2.6919
57575SOL     OW79774   1.870   6.283   4.988  0.7610  0.3026 -0.0326
57575SOL    HW179775   1.838   6.298   4.899  0.4206  0.1589  0.0619
57575SOL    HW279776   1.951   6.233   4.977  1.3850  1.3421 -0.3141
57576SOL     OW79777   5.846  12.519   1.727  0.5584 -0.5773 -0.3472
57576SOL    HW179778   5.792  12.589   1.690 -1.0031 -0.6000  1.7180
57576SOL    HW279779   5.932  12.559   1.739 -0.2399  0.9365  0.5594
57577SOL     OW79780   6.477   1.023   7.472  0.2305 -0.0085 -0.1022
57577SOL    HW179781   6.552   1.000   7.527  0.6792  0.3974 -0.5277
57577SOL    HW279782   6.516   1.066   7.395 -0.5808  4.0722  1.5161
57578SOL     OW79783  11.452  11.931  10.975  0.2913 -0.1409 -0.0053
57578SOL    HW179784  11.472  12.002  11.036  0.9045 -0.2162 -0.1125
57578SOL    HW279785  11.369  11.956  10.935  1.5834  1.6633 -1.7250
57579SOL     OW79786   2.621   2.808   2.317  0.0210 -0.5427  0.6322
57579SOL    HW179787   2.648   2.741   2.380 -0.9961  0.1645  1.8600
57579SOL    HW279788   2.542   2.771   2.276 -0.5602 -0.1004  1.3346
57580SOL     OW79789   3.406   2.941   1.226 -0.0170 -0.1131 -0.2793
57580SOL    HW179790   3.431   3.030   1.203  2.3913 -0.7317 -0.3013
57580SOL    HW279791   3.408   2.939   1.322  0.3624 -0.2322 -0.2861
57581SOL     OW79792   1.330  10.338   3.691 -0.1553  0.2454 -0.1740
57581SOL    HW179793   1.261  10.275   3.711 -0.6561  0.6430 -0.5989
57581SOL    HW279794   1.308  10.414   3.744 -0.9265  0.9358 -1.4130
57582SOL     OW79795  10.396   5.361  11.247 -0.0607 -0.1994  0.8222
57582SOL    HW179796  10.416   5.339  11.156 -1.1844  0.3512  0.4225
57582SOL    HW279797  10.377   5.276  11.288 -1.0289 -0.3257  0.1537
57583SOL     OW79798   0.983  10.521   3.308 -0.4677  0.1007 -0.7283
57583SOL    HW179799   1.042  10.522   3.383  0.5589 -4.9995 -1.1534
57583SOL    HW279800   0.999  10.605   3.265  2.3666  1.2665  2.1616
57584SOL     OW79801   3.260   5.839  11.364 -0.0122 -0.3101 -0.7743
57584SOL    HW179802   3.268   5.747  11.391  0.0214 -0.1399 -0.1993
57584SOL    HW279803   3.201   5.878  11.428  1.0818  0.4046 -0.1756
57585SOL     OW79804   7.991   3.611   7.409 -0.4660  0.0903 -0.2269
57585SOL    HW179805   8.076   3.616   7.453 -1.5525  0.1551  2.0224
57585SOL    HW279806   7.979   3.518   7.390  0.0487  0.0594 -0.3925
57586SOL     OW79807   0.626   4.501   9.916  0.2296 -0.2896  0.3112
57586SOL    HW179808   0.640   4.433   9.982 -1.0513 -0.5858  0.2991
57586SOL    HW279809   0.531   4.513   9.913  0.3592  0.6863 -0.5127
57587SOL     OW79810   4.383  10.331   9.716 -0.0248  0.3124  0.3707
57587SOL    HW179811   4.404  10.238   9.721 -1.8431 -0.0870  2.3717
57587SOL    HW279812   4.306  10.335   9.658  1.1175  0.8480 -1.1738
57588SOL     OW79813   5.311   1.113   7.055  0.0962 -0.0420  0.3143
57588SOL    HW179814   5.303   1.077   7.143  1.9661 -1.6184 -0.0907
57588SOL    HW279815   5.396   1.159   7.056  0.6082 -0.9166 -0.8948
57589SOL     OW79816   1.636   9.312   2.890  0.0784  0.0022  0.1467
57589SOL    HW179817   1.692   9.286   2.964  1.2416  1.6619 -0.0806
57589SOL    HW279818   1.593   9.392   2.920  2.1836  1.9441 -1.6173
57590SOL     OW79819  12.592   4.263   5.018  0.0982  0.3538  0.2731
57590SOL    HW179820  12.507   4.220   5.010  0.3425 -0.3688  1.2903
57590SOL    HW279821  12.653   4.201   4.977  0.2898  0.3251  0.6047
57591SOL     OW79822  12.368   6.642   4.934  0.3036  0.5875  0.0463
57591SOL    HW179823  12.280   6.607   4.932  0.7190 -0.4847  0.1294
57591SOL    HW279824  12.400   6.634   4.844  0.2422  1.1901 -0.0362
57592SOL     OW79825   3.594   2.245   3.086  0.5468 -0.5588 -0.4445
57592SOL    HW179826   3.552   2.174   3.037  1.0546 -0.7336 -0.6447
57592SOL    HW279827   3.602   2.211   3.175 -1.6360  0.2985  0.1174
57593SOL     OW79828   4.134   5.133   5.372  0.3507  0.1858 -1.1198
57593SOL    HW179829   4.193   5.088   5.433 -0.6229  0.1368 -0.1753
57593SOL    HW279830   4.154   5.095   5.287 -1.2868 -3.0601 -0.2187
57594SOL     OW79831   7.699  12.548   9.344 -0.2070  0.9038 -0.2941
57594SOL    HW179832   7.762  12.508   9.284 -1.2172  1.9342 -2.1505
57594SOL    HW279833   7.616  12.544   9.298 -0.8479  2.6588  0.5932
57595SOL     OW79834  11.298  11.439   4.186 -0.4214  0.0450  0.2085
57595SOL    HW179835  11.350  11.449   4.265 -1.4616  0.6769  0.8419
57595SOL    HW279836  11.330  11.507   4.127  0.5719 -0.6324 -0.0490
57596SOL     OW79837   8.720   8.974   2.789 -0.1773 -0.0103  0.1244
57596SOL    HW179838   8.777   8.911   2.833 -0.4182  0.7004  1.4995
57596SOL    HW279839   8.635   8.964   2.831 -0.7995 -0.2918 -1.1606
57597SOL     OW79840  11.365   8.424   4.761  0.1305 -0.0914 -0.4565
57597SOL    HW179841  11.417   8.382   4.693  0.5071  1.6041 -1.2537
57597SOL    HW279842  11.379   8.369   4.838 -1.5345 -2.9628 -2.0300
57598SOL     OW79843  10.855   4.546   1.843 -0.0464 -0.8161 -0.1092
57598SOL    HW179844  10.871   4.630   1.885 -0.0051 -0.9370  0.1187
57598SOL    HW279845  10.942   4.507   1.832  0.1006 -0.1396 -1.6724
57599SOL     OW79846  11.358   0.002   7.497 -0.0133  0.4563  0.3298
57599SOL    HW179847  11.306  -0.040   7.429  1.6394 -1.7333  0.3244
57599SOL    HW279848  11.365   0.093   7.469  0.1229 -0.2484 -2.1343
57600SOL     OW79849  11.872   4.366   2.313  0.1859 -0.3055 -0.2320
57600SOL    HW179850  11.856   4.451   2.272 -0.4197 -0.8770 -1.2209
57600SOL    HW279851  11.862   4.382   2.406  0.7778  0.8546 -0.3463
57601SOL     OW79852   8.884   1.592   5.826 -0.4657  0.7809 -0.1839
57601SOL    HW179853   8.879   1.512   5.773  2.7787 -0.2683  0.8337
57601SOL    HW279854   8.818   1.579   5.894  0.0306 -1.1049  0.0082
57602SOL     OW79855  11.713   2.248   8.233  0.0369  0.2708  0.0846
57602SOL    HW179856  11.688   2.212   8.148  0.4447  1.1495 -0.4246
57602SOL    HW279857  11.729   2.341   8.216 -0.9698  0.7033  1.3588
57603SOL     OW79858   2.169   6.996   4.919  0.2147 -0.3354 -0.2878
57603SOL    HW179859   2.092   7.004   4.977  0.9595 -4.5612  1.7056
57603SOL    HW279860   2.244   6.999   4.978  1.4185  0.3910 -1.7853
57604SOL     OW79861   8.129   2.264   3.962 -0.0421  0.2644 -0.1528
57604SOL    HW179862   8.048   2.214   3.975  0.2925 -0.7906 -1.8452
57604SOL    HW279863   8.104   2.355   3.981 -1.1116 -0.2809  1.2602
57605SOL     OW79864   4.725   6.640   8.967  0.7091 -0.0294 -0.5925
57605SOL    HW179865   4.807   6.661   8.922  0.7471  0.5399 -0.2759
57605SOL    HW279866   4.689   6.726   8.991  1.0801 -0.3272  1.1645
57606SOL     OW79867  12.207   3.020  12.318  0.2287  0.5323  0.4597
57606SOL    HW179868  12.239   2.952  12.378  0.6373  0.1122 -0.2147
57606SOL    HW279869  12.222   3.102  12.364 -0.8498  0.1527  1.5622
57607SOL     OW79870  10.317   0.983   4.119  0.1361  0.0893  0.3640
57607SOL    HW179871  10.354   0.908   4.166  1.5520  0.3966 -0.2096
57607SOL    HW279872  10.354   1.059   4.163  0.4758  0.4037 -0.4570
57608SOL     OW79873   1.912   4.227  11.246 -0.1406 -0.0715  0.2436
57608SOL    HW179874   1.921   4.220  11.151  0.8753 -0.9513  0.3864
57608SOL    HW279875   1.936   4.140  11.278 -2.0801 -0.3018  1.2137
57609SOL     OW79876   2.209   5.453  11.333 -0.9354 -0.3648 -0.5913
57609SOL    HW179877   2.297   5.415  11.333 -0.5552  0.4707 -0.3632
57609SOL    HW279878   2.150   5.378  11.328 -0.2835 -1.1250  1.7802
57610SOL     OW79879   0.927   4.809   5.274 -0.0750 -0.0493  0.0170
57610SOL    HW179880   1.018   4.794   5.302  0.3313  0.1281 -1.1463
57610SOL    HW279881   0.929   4.897   5.235 -0.8681  0.1610  0.4391
57611SOL     OW79882  12.138   2.140   1.528 -0.1474  0.1735  0.2558
57611SOL    HW179883  12.170   2.050   1.522 -1.3065 -0.3908  1.8326
57611SOL    HW279884  12.076   2.149   1.456  0.1973 -0.1846 -0.0892
57612SOL     OW79885   7.322   9.974   2.731 -0.7506 -0.1029 -0.1998
57612SOL    HW179886   7.367  10.012   2.656 -0.9931  0.2921 -0.1458
57612SOL    HW279887   7.374  10.002   2.807  0.1340 -1.4038 -0.2779
57613SOL     OW79888  11.692   8.460   1.063 -0.1294  0.0086  0.1513
57613SOL    HW179889  11.630   8.402   1.107  0.0101  0.0425  0.3956
57613SOL    HW279890  11.746   8.495   1.134 -0.7322  1.0687  0.1153
57614SOL     OW79891   5.257   8.982   9.904 -0.3528  0.1130  0.4138
57614SOL    HW179892   5.318   8.919   9.943 -1.3985 -1.6106 -0.6033
57614SOL    HW279893   5.312   9.040   9.852  0.3509 -2.5440 -1.9965
57615SOL     OW79894  10.745   6.249   7.647  0.4067 -0.4234 -0.5557
57615SOL    HW179895  10.670   6.225   7.592 -0.2435 -1.2718  0.6520
57615SOL    HW279896  10.736   6.344   7.658 -0.1513 -0.4260 -0.9087
57616SOL     OW79897   7.448   2.086   3.404 -0.1802  0.4325 -0.4896
57616SOL    HW179898   7.453   2.115   3.313 -4.0771 -0.0238 -1.0315
57616SOL    HW279899   7.442   2.167   3.455  1.1005  0.6681 -0.6762
57617SOL     OW79900  11.079   3.171   4.883 -0.3356 -0.0715  0.1614
57617SOL    HW179901  10.986   3.193   4.892  0.0580  1.2009  1.5315
57617SOL    HW279902  11.091   3.094   4.938 -0.4204  0.3086  0.7258
57618SOL     OW79903   0.716   1.001   8.457 -0.1634  0.3952 -0.3059
57618SOL    HW179904   0.743   1.083   8.500  1.2047 -0.6723  0.9757
57618SOL    HW279905   0.793   0.974   8.407 -0.8342  0.1929 -1.2659
57619SOL     OW79906  11.427   9.887   6.851 -0.2299 -0.1423  0.7938
57619SOL    HW179907  11.419   9.829   6.927 -1.5644  0.6273  1.2813
57619SOL    HW279908  11.355   9.950   6.862  0.8236  1.2467 -0.0130
57620SOL     OW79909   0.582   0.120   0.961  0.1124  0.0053  0.1249
57620SOL    HW179910   0.535   0.179   1.020 -2.0703 -1.0494 -0.4419
57620SOL    HW279911   0.663   0.099   1.007 -1.0634 -0.0056  2.3120
57621SOL     OW79912   0.418   7.158   8.933  0.3697 -0.1389  0.7221
57621SOL    HW179913   0.360   7.232   8.952  1.8930  1.0850  0.7451
57621SOL    HW279914   0.482   7.193   8.872  0.9290 -1.5448  0.4736
57622SOL     OW79915   7.777   6.319   2.235  0.3708  0.5095 -0.1083
57622SOL    HW179916   7.795   6.236   2.192  1.2031  0.4461  0.3295
57622SOL    HW279917   7.860   6.342   2.277  0.0276  1.3502  0.1263
57623SOL     OW79918   1.431   9.441   0.717 -0.3499  0.1211 -0.1638
57623SOL    HW179919   1.483   9.416   0.641 -0.2339  1.2261 -0.4691
57623SOL    HW279920   1.406   9.532   0.700 -0.3801  0.3670  1.0740
57624SOL     OW79921   9.787   4.499   3.192  0.4210  0.1484 -0.2757
57624SOL    HW179922   9.822   4.573   3.243 -0.1749  0.1420  0.1519
57624SOL    HW279923   9.737   4.540   3.122 -1.1872  0.1783  0.8426
57625SOL     OW79924   7.532   7.297   1.508  0.3458 -0.2434 -0.5832
57625SOL    HW179925   7.444   7.312   1.473  0.6491 -1.0556 -1.7437
57625SOL    HW279926   7.551   7.376   1.558  0.1458  1.3228 -2.8286
57626SOL     OW79927   9.630   3.018   7.238  0.4108 -0.3143  0.0247
57626SOL    HW179928   9.542   3.055   7.241 -0.3661 -1.9448 -0.8821
57626SOL    HW279929   9.617   2.926   7.261  1.6814 -0.8545 -1.2467
57627SOL     OW79930  12.333  10.670   7.628  0.0203 -1.0408 -0.5219
57627SOL    HW179931  12.327  10.727   7.705  1.4506 -0.5593 -0.7328
57627SOL    HW279932  12.330  10.581   7.664 -2.5324 -0.9024 -0.2128
57628SOL     OW79933   3.529   3.099   3.027 -0.2319 -0.3609  0.3602
57628SOL    HW179934   3.560   3.078   2.939 -1.1524  1.0675 -0.3265
57628SOL    HW279935   3.515   3.013   3.068 -0.4915 -1.0680 -1.1299
57629SOL     OW79936   4.462  10.793   0.566  0.3652  0.5672  0.7885
57629SOL    HW179937   4.374  10.805   0.601  0.2145  0.1159  0.5649
57629SOL    HW279938   4.520  10.811   0.640  0.0811  0.6405  0.9944
57630SOL     OW79939   4.376   3.443   9.318 -0.3961  0.3600  0.5495
57630SOL    HW179940   4.306   3.508   9.321 -0.2915  0.5001  0.0496
57630SOL    HW279941   4.334   3.364   9.284 -0.0302  0.8334 -1.0828
57631SOL     OW79942   9.463  10.534   0.411 -0.5548 -0.4202  0.0903
57631SOL    HW179943   9.420  10.594   0.350  1.0424 -0.9846 -1.7091
57631SOL    HW279944   9.410  10.454   0.407 -1.0065 -0.1278  0.1917
57632SOL     OW79945  11.230  11.065   1.555 -0.4400  0.1459 -0.6529
57632SOL    HW179946  11.299  11.043   1.617 -1.2924 -0.9711 -0.0677
57632SOL    HW279947  11.249  11.012   1.477  0.1587  0.9269 -1.0546
57633SOL     OW79948   7.773  11.461   4.944 -0.3940  0.1132  0.3554
57633SOL    HW179949   7.777  11.551   4.977 -1.9059 -0.2135  1.5242
57633SOL    HW279950   7.684  11.452   4.910  0.1204 -0.5857 -0.8383
57634SOL     OW79951   8.679   1.253  12.473  0.4362 -0.0490 -0.1056
57634SOL    HW179952   8.659   1.336  12.515 -1.5347 -0.3501 -0.3408
57634SOL    HW279953   8.691   1.191  12.545  0.9839  0.2477  0.0578
57635SOL     OW79954   7.124   2.790   8.511  0.4547  0.5208  0.6037
57635SOL    HW179955   7.034   2.766   8.531  0.7366 -1.6060 -0.3312
57635SOL    HW279956   7.169   2.788   8.595 -0.2143  0.9191  0.9797
57636SOL     OW79957  10.741  12.325   2.145  0.6723  0.2987  0.2330
57636SOL    HW179958  10.715  12.233   2.138 -0.8933  0.6323  1.1734
57636SOL    HW279959  10.782  12.345   2.061  3.3722 -1.9008  0.8592
57637SOL     OW79960   9.345  10.618   4.514  0.0288  0.2556  0.1830
57637SOL    HW179961   9.386  10.705   4.515  1.2815 -0.2734  2.5625
57637SOL    HW279962   9.270  10.626   4.574 -0.0546 -0.2185  0.1451
57638SOL     OW79963   8.326  10.319   6.109 -0.2165 -0.7189  0.2673
57638SOL    HW179964   8.407  10.332   6.060  0.4139 -0.0075  1.4363
57638SOL    HW279965   8.273  10.397   6.089  0.1506 -0.2999  0.9110
57639SOL     OW79966  11.294  10.937   6.078  0.3625  0.1078  0.1713
57639SOL    HW179967  11.324  11.010   6.132  0.6315  1.2012 -1.3870
57639SOL    HW279968  11.373  10.885   6.061  1.2488  2.1383 -2.6501
57640SOL     OW79969   3.172   5.044   1.325  0.1510 -0.2295 -0.1772
57640SOL    HW179970   3.161   4.949   1.321 -0.8744 -0.2588  1.9804
57640SOL    HW279971   3.204   5.061   1.414 -0.7242  1.5179 -0.1484
57641SOL     OW79972  11.345   4.172   2.040 -0.1775  0.1928  0.0768
57641SOL    HW179973  11.412   4.107   2.063 -0.4419  0.2342  1.0242
57641SOL    HW279974  11.323   4.214   2.124  0.8806  2.3845 -0.6695
57642SOL     OW79975   9.220   0.457   1.386 -0.3657 -0.3465 -0.1884
57642SOL    HW179976   9.296   0.454   1.445 -0.1860 -0.9728 -0.4346
57642SOL    HW279977   9.242   0.523   1.321  0.1385 -0.7783 -0.4684
57643SOL     OW79978  11.292   0.408   6.160  0.3781 -0.5245  0.3832
57643SOL    HW179979  11.358   0.341   6.144  0.9259  0.6260 -3.1083
57643SOL    HW279980  11.208   0.362   6.153  0.7573 -1.2134  0.2859
57644SOL     OW79981   2.079   2.830   5.251 -0.0390 -0.1528  0.2672
57644SOL    HW179982   2.118   2.749   5.284 -0.3842  0.4538  2.2972
57644SOL    HW279983   2.006   2.800   5.196  0.2585 -1.2153  0.4182
57645SOL     OW79984   1.275  11.582   3.905 -0.1907 -0.7640  0.2797
57645SOL    HW179985   1.207  11.650   3.906 -0.3538 -0.8571 -1.4065
57645SOL    HW279986   1.233  11.509   3.860  0.7008 -1.1916  0.1403
57646SOL     OW79987   3.382   9.761   4.995  0.0205  0.1386  0.6402
57646SOL    HW179988   3.374   9.746   5.089  0.5991  2.9065  1.2349
57646SOL    HW279989   3.348   9.850   4.982  0.1207 -0.0912 -1.7563
57647SOL     OW79990   1.430   0.185   8.778 -0.0202  0.0331  0.5229
57647SOL    HW179991   1.339   0.210   8.793  0.2700  0.3029  2.0060
57647SOL    HW279992   1.431   0.091   8.796  0.0142  0.0577  0.6530
57648SOL     OW79993  10.728   4.819   0.731 -0.0380 -0.3190  0.1045
57648SOL    HW179994  10.800   4.759   0.751 -0.4296 -1.3121 -1.3182
57648SOL    HW279995  10.721   4.818   0.636 -0.1874  1.8815  0.0367
57649SOL     OW79996   9.795   2.619   1.701 -0.5315  0.4717 -0.0633
57649SOL    HW179997   9.806   2.709   1.669  2.2355 -0.1920 -1.2837
57649SOL    HW279998   9.759   2.571   1.627 -1.6728  0.4922  0.4715
57650SOL     OW79999   9.041   3.006   0.803  0.6418  0.0036  0.9252
57650SOL    HW180000   9.123   3.046   0.829  0.3197  3.5814 -2.5382
57650SOL    HW280001   9.058   2.970   0.716 -1.3638  0.9526  0.0578
57651SOL     OW80002   1.788   2.361   9.312  0.0922  0.3223 -0.0844
57651SOL    HW180003   1.727   2.347   9.384 -2.0863 -0.7200 -1.9871
57651SOL    HW280004   1.773   2.452   9.285  2.0191  1.2226  1.6435
57652SOL     OW80005   9.631   4.237  11.720 -0.3538  0.5183 -0.5057
57652SOL    HW180006   9.655   4.146  11.738 -1.8217 -0.1408 -1.6368
57652SOL    HW280007   9.597   4.269  11.803  1.6953  0.6069  0.3585
57653SOL     OW80008   8.881   2.967  11.635  0.2771 -0.0995  0.5416
57653SOL    HW180009   8.794   2.992  11.664  0.2367  0.7268 -0.2305
57653SOL    HW280010   8.877   2.971  11.539  0.7798 -1.4028  0.4368
57654SOL     OW80011   5.276   3.525   1.253  0.3636  0.8329 -0.1081
57654SOL    HW180012   5.281   3.505   1.160 -0.8539 -0.2850  0.0219
57654SOL    HW280013   5.221   3.455   1.289 -0.8322  2.3196  1.1098
57655SOL     OW80014   3.941   5.072  10.113  0.3172 -0.1678 -0.0822
57655SOL    HW180015   4.009   5.069  10.181 -0.1412 -0.5766  0.3625
57655SOL    HW280016   3.859   5.078  10.161 -0.1089 -1.8988 -0.5553
57656SOL     OW80017  10.815  11.530   0.914  0.0427  0.0201 -0.1493
57656SOL    HW180018  10.785  11.592   0.980  0.0840  0.2024 -0.3013
57656SOL    HW280019  10.888  11.575   0.871 -0.2422  0.0633 -0.5889
57657SOL     OW80020  12.400   5.838  10.606 -0.1114  0.1834 -0.0079
57657SOL    HW180021  12.480   5.796  10.637 -1.5432 -1.5565  1.6562
57657SOL    HW280022  12.391   5.809  10.516 -0.5203 -2.4307  0.7930
57658SOL     OW80023   0.927   1.194  12.343 -0.0086  0.9686 -0.2661
57658SOL    HW180024   0.947   1.287  12.331 -0.7946  1.0111 -1.4334
57658SOL    HW280025   0.945   1.178  12.435  1.9333  1.8162 -0.4376
57659SOL     OW80026   1.849   9.535   8.412 -0.1526  0.6240 -0.1801
57659SOL    HW180027   1.852   9.543   8.507  1.5073 -1.6736  0.0274
57659SOL    HW280028   1.939   9.551   8.383 -0.5638  0.9493 -1.3604
57660SOL     OW80029   6.989   9.981   2.187  0.2317  0.1684  0.5064
57660SOL    HW180030   7.041   9.937   2.254  0.1419 -0.0748  0.4148
57660SOL    HW280031   7.049   9.989   2.113  0.0699 -0.3146  0.3215
57661SOL     OW80032   7.193   7.890   3.061 -0.1496 -0.6075 -0.0686
57661SOL    HW180033   7.158   7.836   3.131 -0.0985 -1.3542 -0.6060
57661SOL    HW280034   7.268   7.840   3.027 -0.4379 -0.4637 -0.9368
57662SOL     OW80035   2.711   7.143   1.532  0.4605 -0.0341  0.0202
57662SOL    HW180036   2.665   7.209   1.584  1.2418  0.8643 -0.4053
57662SOL    HW280037   2.802   7.173   1.530  0.6049 -0.5027 -1.1427
57663SOL     OW80038   1.627   5.485   1.563  0.8298 -0.4776 -0.1582
57663SOL    HW180039   1.709   5.528   1.541 -0.7391  2.3512 -1.0509
57663SOL    HW280040   1.624   5.408   1.506  1.9048  0.5709 -1.7191
57664SOL     OW80041   9.792   5.568   4.795  0.7197 -0.0807  0.1789
57664SOL    HW180042   9.883   5.536   4.797  0.5605 -0.8673 -2.0918
57664SOL    HW280043   9.795   5.644   4.736  0.1646  0.9721  1.4505
57665SOL     OW80044   4.967   1.043  12.164 -0.3055  0.2635 -0.0106
57665SOL    HW180045   5.015   0.994  12.097 -2.4911 -0.2016 -1.3223
57665SOL    HW280046   4.912   0.977  12.207 -2.8115  1.3518 -1.3611
57666SOL     OW80047   2.174  11.458   9.416  0.5128 -0.0519  0.2034
57666SOL    HW180048   2.092  11.411   9.400  0.5949 -0.4775  0.9704
57666SOL    HW280049   2.214  11.411   9.489  0.9619  0.7668  0.4934
57667SOL     OW80050   4.770  11.062   1.119  0.0606  0.0402  0.2678
57667SOL    HW180051   4.776  11.143   1.067 -0.8846  0.8185  1.3268
57667SOL    HW280052   4.705  11.009   1.073  0.7030 -0.1508 -0.4461
57668SOL     OW80053  11.572  11.368   8.322 -0.0408  0.5849 -0.2826
57668SOL    HW180054  11.477  11.382   8.320 -0.0131  0.8270  0.0366
57668SOL    HW280055  11.608  11.444   8.276  0.0982  1.4636  1.2393
57669SOL     OW80056   7.543   6.841   0.189 -0.1542  0.2788  0.0277
57669SOL    HW180057   7.537   6.773   0.122  2.9248 -0.9970  0.8956
57669SOL    HW280058   7.516   6.798   0.270  1.6942  0.0052  0.5571
57670SOL     OW80059  10.761   2.001   4.853  0.6589  0.7674 -0.5410
57670SOL    HW180060  10.672   1.998   4.887  1.1392 -0.6561  0.7013
57670SOL    HW280061  10.816   2.010   4.931  1.6212  1.5086 -1.2817
57671SOL     OW80062  10.985   2.638   8.178 -0.3590 -0.4381  0.2653
57671SOL    HW180063  10.912   2.582   8.205  0.2894 -1.3866  0.0718
57671SOL    HW280064  11.044   2.639   8.253  0.1819 -0.9443 -0.1484
57672SOL     OW80065   4.530   2.563  10.796  0.0347  0.1634  0.1993
57672SOL    HW180066   4.520   2.646  10.844 -1.4090 -0.3686  0.8933
57672SOL    HW280067   4.519   2.496  10.863 -0.7577 -0.5906 -0.6564
57673SOL     OW80068   1.164   7.596   1.198  0.2823  0.0501  0.4357
57673SOL    HW180069   1.199   7.676   1.158  1.2518 -0.5413  0.0457
57673SOL    HW280070   1.072   7.615   1.214  0.5672  1.3567  0.6372
57674SOL     OW80071   4.001   1.056   5.563  0.4994  0.4846 -0.1795
57674SOL    HW180072   4.071   0.992   5.550  0.8794  0.8319  0.1573
57674SOL    HW280073   4.045   1.141   5.559  0.5185  0.6700  2.4713
57675SOL     OW80074   6.129  12.367   1.640  0.6564 -0.1651 -0.0167
57675SOL    HW180075   6.092  12.290   1.683 -2.5558  0.5235 -1.2514
57675SOL    HW280076   6.118  12.350   1.547  0.2637  1.5762 -0.3278
57676SOL     OW80077   5.491  11.876   3.546  0.7092 -0.1818  0.4881
57676SOL    HW180078   5.454  11.936   3.611  2.1642 -0.0854  1.2657
57676SOL    HW280079   5.415  11.833   3.507 -0.2210 -0.0115  2.0348
57677SOL     OW80080   6.391   3.216   6.265  0.1803 -0.0981 -0.5924
57677SOL    HW180081   6.313   3.271   6.254  0.6625  0.5186 -0.9560
57677SOL    HW280082   6.439   3.226   6.182  0.8056 -0.2221 -0.2479
57678SOL     OW80083   9.565   6.625   6.628  0.7725  0.9102  0.1383
57678SOL    HW180084   9.600   6.710   6.654  0.3157  1.2929 -0.4557
57678SOL    HW280085   9.640   6.578   6.590  0.6559  1.7573 -1.2093
57679SOL     OW80086   7.719  11.348   2.659  0.3892 -0.0944 -0.6948
57679SOL    HW180087   7.699  11.315   2.571 -0.7794 -0.8989 -0.1536
57679SOL    HW280088   7.812  11.368   2.657 -0.1433  3.1652 -3.1987
57680SOL     OW80089   4.624   8.756  11.694  0.7219 -0.4621  0.1489
57680SOL    HW180090   4.540   8.796  11.712  0.1360 -1.4672 -0.2652
57680SOL    HW280091   4.646   8.784  11.605  0.5480 -0.6760  0.0399
57681SOL     OW80092  10.482   7.155   7.323  0.4581 -0.7569  0.2363
57681SOL    HW180093  10.475   7.073   7.275 -1.2205 -1.3524  1.4096
57681SOL    HW280094  10.515   7.218   7.258 -0.5564 -1.7935 -1.3481
57682SOL     OW80095   8.531   6.838   8.173 -0.5153  0.5795 -0.3783
57682SOL    HW180096   8.587   6.764   8.198  1.3014  1.6842 -0.9581
57682SOL    HW280097   8.562   6.862   8.086 -0.8359  2.2200 -0.0589
57683SOL     OW80098   5.493   2.356   2.430  0.1001  0.1893  0.0282
57683SOL    HW180099   5.559   2.291   2.404 -1.3936 -1.5859  0.4300
57683SOL    HW280100   5.421   2.343   2.369  0.7844  3.4937 -1.7197
57684SOL     OW80101   1.202   5.937   4.469 -0.9153 -0.0019  0.8005
57684SOL    HW180102   1.166   6.024   4.488  2.2784  2.1338 -1.6824
57684SOL    HW280103   1.161   5.912   4.386 -0.2530  0.1887  0.4087
57685SOL     OW80104  11.894  11.021   7.902 -0.4188  0.2300 -0.6679
57685SOL    HW180105  11.980  11.065   7.905 -1.0900  1.5629  0.7948
57685SOL    HW280106  11.879  11.004   7.809  2.1384 -1.5649 -0.8735
57686SOL     OW80107   3.370   8.813   8.115  0.1017 -0.0388 -0.5263
57686SOL    HW180108   3.456   8.803   8.073  0.3965  0.3902 -0.0303
57686SOL    HW280109   3.374   8.899   8.157  1.0343 -1.6663  3.1041
57687SOL     OW80110   7.735   7.016   7.970 -0.4835  0.1931  0.5385
57687SOL    HW180111   7.806   7.079   7.971  2.0833 -2.4961  1.1709
57687SOL    HW280112   7.737   6.975   8.056 -0.6767 -2.1061 -0.4588
57688SOL     OW80113   6.454   3.505   5.431  0.0626  0.4739 -0.0259
57688SOL    HW180114   6.479   3.522   5.341 -2.2671 -0.4912 -0.9404
57688SOL    HW280115   6.377   3.560   5.445 -1.0789 -1.1711  0.5079
57689SOL     OW80116   7.315   6.109   0.784  0.3550  0.3604  0.3251
57689SOL    HW180117   7.409   6.090   0.776  0.1713 -0.0584 -1.2355
57689SOL    HW280118   7.312   6.202   0.808  1.1926  1.1589 -2.3089
57690SOL     OW80119   0.669   7.868   2.623  0.5678  0.0586 -0.4650
57690SOL    HW180120   0.584   7.899   2.591 -0.2233 -2.3873 -0.9424
57690SOL    HW280121   0.667   7.886   2.717  0.6627  2.3631 -0.8377
57691SOL     OW80122   3.576   0.470   6.433 -0.0630  0.1042 -0.7379
57691SOL    HW180123   3.587   0.561   6.408 -0.3037  0.0630 -1.0066
57691SOL    HW280124   3.597   0.420   6.353 -0.9501 -0.0228 -0.9035
57692SOL     OW80125   3.907   2.323   4.720 -0.2255 -0.4996 -0.1861
57692SOL    HW180126   3.923   2.301   4.628 -0.3548 -2.4802  0.2249
57692SOL    HW280127   3.838   2.262   4.748  0.4773 -0.5972  1.4683
57693SOL     OW80128   9.491   9.828   8.200  0.2932  0.5452  0.2319
57693SOL    HW180129   9.568   9.829   8.257  1.3441  0.0627 -1.1092
57693SOL    HW280130   9.453   9.741   8.211 -0.2313  0.8692  1.0840
57694SOL     OW80131   4.234   8.647   6.794  0.7122 -0.0810 -0.0515
57694SOL    HW180132   4.241   8.610   6.706  0.8409 -0.0138 -0.0691
57694SOL    HW280133   4.286   8.727   6.791  1.1659 -0.3582  0.2358
57695SOL     OW80134   3.520   0.754   3.063 -0.4364 -0.5064  0.0525
57695SOL    HW180135   3.549   0.668   3.033 -0.4732 -0.3160 -0.5347
57695SOL    HW280136   3.425   0.754   3.051 -0.3921 -0.2429 -0.3279
57696SOL     OW80137   3.199  10.250   5.757 -0.1912  0.3508  0.3457
57696SOL    HW180138   3.259  10.295   5.817  2.3111 -0.6950 -1.2066
57696SOL    HW280139   3.194  10.161   5.792 -1.6151  0.6522  0.9610
57697SOL     OW80140   7.082   3.526  10.454 -0.7672 -0.7156  0.5137
57697SOL    HW180141   7.065   3.465  10.526 -0.4078 -1.3999  0.0333
57697SOL    HW280142   7.177   3.530  10.447 -0.7886 -1.7844 -0.8343
57698SOL     OW80143   9.269   8.766   2.329 -0.3997 -0.1478 -0.3138
57698SOL    HW180144   9.246   8.674   2.314  2.9657 -1.0812 -0.3531
57698SOL    HW280145   9.318   8.766   2.411  0.5641  1.4325 -0.8441
57699SOL     OW80146  12.103   9.204   9.911  0.6082 -0.3046 -0.5042
57699SOL    HW180147  12.150   9.287   9.920 -0.2180  0.0097  1.5114
57699SOL    HW280148  12.168   9.137   9.933  0.3425  0.0959  1.7734
57700SOL     OW80149   7.094   9.181   2.356 -0.6510  0.1158  0.0159
57700SOL    HW180150   7.187   9.167   2.338 -0.5447 -0.8170  1.1037
57700SOL    HW280151   7.049   9.119   2.298 -0.5411 -0.0246  0.0782
57701SOL     OW80152   7.788  10.721   3.184  0.6441 -0.3471  0.3383
57701SOL    HW180153   7.757  10.812   3.187 -2.3752 -1.1976 -1.0636
57701SOL    HW280154   7.856  10.721   3.117  0.9974  0.9372  0.6608
57702SOL     OW80155   0.157  11.446   2.530 -0.9035 -0.3470 -0.3927
57702SOL    HW180156   0.099  11.435   2.605 -2.7182  0.7636 -1.5485
57702SOL    HW280157   0.240  11.476   2.567 -1.7046  0.0154  1.1788
57703SOL     OW80158   8.111   0.136   9.343  0.3703  0.5459  0.7154
57703SOL    HW180159   8.033   0.117   9.394 -0.9040  0.8066 -1.0520
57703SOL    HW280160   8.101   0.084   9.263  1.4557  1.4265 -0.0221
57704SOL     OW80161  11.722   6.420   8.445 -0.7782  0.1090 -0.3836
57704SOL    HW180162  11.650   6.384   8.393  0.7157 -0.7109 -1.9783
57704SOL    HW280163  11.802   6.393   8.399  0.5992  0.5106  1.6127
57705SOL     OW80164   7.129   8.695   0.151  0.2773  0.9630  0.3945
57705SOL    HW180165   7.101   8.776   0.193  0.8936  1.6461 -0.4787
57705SOL    HW280166   7.086   8.695   0.066  0.7883  0.6917  0.1276
57706SOL     OW80167  12.006   7.780  11.119  0.5356 -0.3149 -0.6391
57706SOL    HW180168  11.937   7.737  11.069 -0.5933  0.1017  0.5088
57706SOL    HW280169  11.960   7.842  11.176  1.7293 -0.9511  1.1151
57707SOL     OW80170  11.817   6.180   7.946  0.5311 -0.0722  0.1885
57707SOL    HW180171  11.872   6.228   7.884  0.6649 -0.3765  0.0712
57707SOL    HW280172  11.797   6.097   7.902  2.4395 -1.2659  1.4119
57708SOL     OW80173   1.339   4.408   7.691 -0.1683  0.5915 -0.5057
57708SOL    HW180174   1.323   4.465   7.766 -0.2940  1.2349 -1.0081
57708SOL    HW280175   1.311   4.321   7.720 -0.3608  0.8650  0.1351
57709SOL     OW80176   5.026   6.270   6.730 -0.1450 -0.1934 -0.7079
57709SOL    HW180177   5.075   6.192   6.704  0.0736  0.3073 -1.8499
57709SOL    HW280178   5.088   6.342   6.719 -0.1081  0.0968  1.0326
57710SOL     OW80179   9.429   4.016   5.116 -0.3340  0.1888  0.0820
57710SOL    HW180180   9.457   4.089   5.061 -0.7424 -1.0631 -1.8829
57710SOL    HW280181   9.338   4.000   5.090 -0.3253 -0.8863  0.6450
57711SOL     OW80182   0.867   9.737   8.045  0.0488 -0.1294 -0.1712
57711SOL    HW180183   0.847   9.705   8.134 -0.5844 -0.6120 -0.4790
57711SOL    HW280184   0.940   9.682   8.016  0.2877  0.0589  0.0658
57712SOL     OW80185   1.878   3.777   6.170 -0.2084 -0.3066 -0.1607
57712SOL    HW180186   1.798   3.820   6.142 -0.9754 -0.9578  0.9637
57712SOL    HW280187   1.903   3.823   6.250  1.3741  0.8513 -1.2548
57713SOL     OW80188   8.558  11.826  11.760 -0.6323  0.0990 -0.4324
57713SOL    HW180189   8.598  11.911  11.780 -1.0072  0.4507 -1.1164
57713SOL    HW280190   8.494  11.846  11.691 -0.0681 -0.8797 -1.2737
57714SOL     OW80191  10.359  10.607   1.231  0.4921  0.4985  0.5472
57714SOL    HW180192  10.413  10.677   1.269 -0.5188  0.1563  2.7924
57714SOL    HW280193  10.366  10.535   1.294 -0.7302 -0.3855 -0.2862
57715SOL     OW80194   6.804   5.654   8.841 -0.0687 -0.5123  0.2857
57715SOL    HW180195   6.840   5.618   8.760 -0.2679 -0.0484 -0.0132
57715SOL    HW280196   6.711   5.666   8.822  0.3254  2.1759 -0.4077
57716SOL     OW80197   0.595  11.847   9.893 -0.1477  0.2956  0.0052
57716SOL    HW180198   0.586  11.926   9.946  0.8018  0.4992 -0.1166
57716SOL    HW280199   0.612  11.879   9.805 -0.3367 -0.0511 -0.1581
57717SOL     OW80200   5.074   1.938   6.083 -0.3472  0.1869 -0.0037
57717SOL    HW180201   5.060   1.991   6.162 -1.7771 -0.2476  0.0684
57717SOL    HW280202   5.164   1.907   6.091 -0.7688 -0.6920  1.9933
57718SOL     OW80203  11.002  10.858   7.266  0.1430  0.6618 -1.3301
57718SOL    HW180204  11.047  10.920   7.210 -0.1917 -0.0319 -2.4013
57718SOL    HW280205  11.048  10.775   7.252  0.3176  0.5558 -0.2511
57719SOL     OW80206   2.416   6.479   0.034 -0.3858 -0.3481  0.1467
57719SOL    HW180207   2.488   6.542   0.037 -0.0234 -0.5137 -2.4353
57719SOL    HW280208   2.350   6.514   0.093  0.4791  1.5779  0.0303
57720SOL     OW80209   3.448   7.005  12.310  0.0609 -0.3167  0.3167
57720SOL    HW180210   3.440   6.918  12.349 -0.8607 -0.5644 -0.3880
57720SOL    HW280211   3.471   7.062  12.384  1.8684 -1.3148  0.5974
57721SOL     OW80212   5.488   6.696   4.728 -0.5764  0.2501  0.7809
57721SOL    HW180213   5.550   6.658   4.791  0.6298 -0.2413 -0.6347
57721SOL    HW280214   5.406   6.702   4.776  0.3176  0.0185  2.4411
57722SOL     OW80215   4.015   9.007   2.963  0.0916 -0.0273 -0.5858
57722SOL    HW180216   4.080   8.939   2.945 -0.6905 -0.8489 -0.3635
57722SOL    HW280217   3.955   9.003   2.889 -0.9372 -0.7792  0.2548
57723SOL     OW80218   3.037  12.581   4.490 -0.1769  0.2816 -0.6501
57723SOL    HW180219   2.952  12.568   4.534 -0.0313  1.3925 -0.0001
57723SOL    HW280220   3.099  12.595   4.562 -0.0308  2.6996 -1.1676
57724SOL     OW80221   2.299   7.820   8.064 -0.7842 -0.0043 -0.1711
57724SOL    HW180222   2.306   7.866   8.148 -0.7737  0.8771 -0.6346
57724SOL    HW280223   2.363   7.864   8.007 -0.2675 -1.0659 -0.4390
57725SOL     OW80224  11.229   5.458   7.016 -0.4099 -0.1735  0.4240
57725SOL    HW180225  11.242   5.454   7.110  0.1628 -1.2048  0.3250
57725SOL    HW280226  11.153   5.514   7.004 -1.3649 -1.1772  1.5866
57726SOL     OW80227   1.598   9.135   3.310  0.6344 -0.9029 -0.4608
57726SOL    HW180228   1.540   9.203   3.344  2.2733  0.3112  0.0120
57726SOL    HW280229   1.643   9.100   3.387  0.8007 -1.5803 -0.8522
57727SOL     OW80230   1.663   3.378   6.625  0.4028  0.4442 -0.7068
57727SOL    HW180231   1.721   3.452   6.606  0.3101  1.1026  1.3224
57727SOL    HW280232   1.689   3.349   6.712 -2.2031  0.6713  0.2179
57728SOL     OW80233   9.427   9.783  12.056 -0.7758 -0.1811 -0.2491
57728SOL    HW180234   9.393   9.826  11.978 -1.7948  0.4648  0.5203
57728SOL    HW280235   9.354   9.731  12.089 -0.7677  0.5130  0.9353
57729SOL     OW80236   1.252   6.992   5.888 -0.0160  0.1620 -0.1493
57729SOL    HW180237   1.256   7.033   5.802 -1.1671 -0.9619 -0.7666
57729SOL    HW280238   1.311   6.917   5.883 -0.1657  0.0308 -0.0066
57730SOL     OW80239   2.185   4.354   5.149  0.1571  0.5357 -0.2105
57730SOL    HW180240   2.244   4.384   5.218  0.7826 -0.6398 -0.2059
57730SOL    HW280241   2.107   4.322   5.196  1.3000 -1.9392  0.1571
57731SOL     OW80242   2.746  10.655  12.137 -0.0667 -0.1428 -0.4628
57731SOL    HW180243   2.653  10.633  12.133 -0.0681 -0.5014  1.1144
57731SOL    HW280244   2.759  10.718  12.065 -2.1746  2.2673  1.1112
57732SOL     OW80245   6.777   8.310   8.152 -0.0092  0.0929  0.0818
57732SOL    HW180246   6.867   8.293   8.181 -0.6857 -1.6650  1.3202
57732SOL    HW280247   6.742   8.371   8.218  0.5902  1.7652 -1.0716
57733SOL     OW80248   7.841  11.139   2.949 -0.3319  0.0064 -0.0767
57733SOL    HW180249   7.840  11.235   2.956 -1.2481  0.0439 -0.5074
57733SOL    HW280250   7.813  11.109   3.035 -0.3460  0.1336 -0.0359
57734SOL     OW80251   0.353   3.158   6.089  0.2873 -0.1128 -0.4364
57734SOL    HW180252   0.313   3.111   6.163  1.1819 -0.7253 -0.3162
57734SOL    HW280253   0.362   3.091   6.021 -2.7449  0.9504 -2.0798
57735SOL     OW80254   4.280   9.073  11.760  0.1155 -0.5812  0.0946
57735SOL    HW180255   4.216   9.126  11.712 -0.1397 -0.9645  0.0078
57735SOL    HW280256   4.279   9.109  11.848  0.5606  0.1032 -0.1717
57736SOL     OW80257   8.493   9.366   5.650  0.1673  0.3296  0.3685
57736SOL    HW180258   8.502   9.426   5.725  4.0553 -0.2779  0.6104
57736SOL    HW280259   8.456   9.287   5.687  0.6626  0.5471  1.3665
57737SOL     OW80260   9.649   8.745  12.461  0.1740 -0.1368  0.1845
57737SOL    HW180261   9.598   8.677  12.418 -0.9429  0.9230 -0.2496
57737SOL    HW280262   9.734   8.743  12.417 -0.6611  0.3641 -1.5358
57738SOL     OW80263   0.992   0.407   1.360 -0.1865  0.0356 -0.0564
57738SOL    HW180264   0.933   0.332   1.345  0.7402 -0.3637 -1.9035
57738SOL    HW280265   1.070   0.386   1.310  0.3696  1.9526 -0.0448
57739SOL     OW80266   8.976   3.082   5.995  0.8316  0.0902 -0.3967
57739SOL    HW180267   8.945   3.086   5.905  2.2924 -0.0711 -0.9332
57739SOL    HW280268   8.946   3.164   6.034  1.0049  0.6054 -1.3130
57740SOL     OW80269   8.864   9.399  10.583 -0.5880  0.4814 -0.0583
57740SOL    HW180270   8.774   9.376  10.558 -0.0949  0.1832 -1.6736
57740SOL    HW280271   8.876   9.488  10.550  0.3335 -0.2029 -1.6922
57741SOL     OW80272  12.129   0.308   3.270 -0.7641  0.6584 -0.1074
57741SOL    HW180273  12.070   0.309   3.195 -1.3220  0.2170  0.3163
57741SOL    HW280274  12.072   0.297   3.345 -0.2692  1.7819  0.4529
57742SOL     OW80275   6.699   7.881  10.260  0.5454  0.9220 -0.1650
57742SOL    HW180276   6.660   7.967  10.240  0.9180  1.3823  0.9610
57742SOL    HW280277   6.792   7.899  10.271  0.5861  0.4226  0.3488
57743SOL     OW80278  10.521   7.347   1.743  0.3519  0.3976 -0.4187
57743SOL    HW180279  10.493   7.323   1.831 -0.7049  2.7063 -0.0502
57743SOL    HW280280  10.613   7.372   1.753  0.4874 -0.1808 -0.1641
57744SOL     OW80281   4.908  11.140   6.935 -0.4808  0.7381  0.6950
57744SOL    HW180282   4.823  11.121   6.974 -0.7130 -0.9757 -0.5209
57744SOL    HW280283   4.965  11.070   6.966 -0.8207 -1.0628 -2.2854
57745SOL     OW80284   2.124   3.573  10.449 -0.5642  0.4323 -0.4045
57745SOL    HW180285   2.043   3.524  10.457 -1.6028  1.9948 -0.9450
57745SOL    HW280286   2.123   3.634  10.522  0.0876  0.5519 -0.4834
57746SOL     OW80287   8.699   5.956   9.180  0.2312  0.3698  0.2770
57746SOL    HW180288   8.702   5.922   9.091 -1.1022 -1.4462  0.8733
57746SOL    HW280289   8.790   5.952   9.209  0.5354  0.0162 -0.6651
57747SOL     OW80290   8.004  10.864   6.586  0.0673  0.0310 -0.3244
57747SOL    HW180291   8.041  10.793   6.534 -0.0164 -0.6594  0.5388
57747SOL    HW280292   8.025  10.841   6.677 -3.2744 -0.9678  0.3436
57748SOL     OW80293   4.889   3.277   1.243  0.4133  0.4769  0.0608
57748SOL    HW180294   4.830   3.204   1.260 -0.4696  1.5910  2.1452
57748SOL    HW280295   4.832   3.354   1.242  1.5716  1.3605 -0.0354
57749SOL     OW80296   5.728   8.633   1.109 -0.6270 -0.3872  0.3282
57749SOL    HW180297   5.780   8.711   1.127  1.0259 -1.2957 -0.2905
57749SOL    HW280298   5.660   8.633   1.176 -1.1323  1.9573 -0.0886
57750SOL     OW80299   9.697   8.079   9.428  0.2205  0.2659  0.3906
57750SOL    HW180300   9.773   8.103   9.480  0.4424  0.7230 -0.1278
57750SOL    HW280301   9.670   8.161   9.387  0.7654 -0.2699 -1.1227
57751SOL     OW80302   9.514   5.981   0.827  0.4350  0.1560 -0.2743
57751SOL    HW180303   9.576   5.971   0.756 -0.3050 -0.9444 -0.7991
57751SOL    HW280304   9.434   6.015   0.785  0.2680  0.3250  0.1702
57752SOL     OW80305   7.659   1.304   3.783 -0.2380 -0.5868  0.0844
57752SOL    HW180306   7.690   1.338   3.699  1.1718 -1.1356  0.3564
57752SOL    HW280307   7.578   1.257   3.761  1.2004 -2.5801 -1.3689
57753SOL     OW80308   6.068  11.869  11.028 -0.5908  0.0489 -0.0183
57753SOL    HW180309   6.117  11.919  11.094  1.3341 -1.2837 -0.3345
57753SOL    HW280310   6.106  11.781  11.033 -2.7903 -0.9892 -0.5571
57754SOL     OW80311   7.497  11.482   7.503  0.2405 -0.6055  0.2715
57754SOL    HW180312   7.489  11.481   7.599 -0.0322 -1.1300  0.2486
57754SOL    HW280313   7.540  11.565   7.484 -0.7728  0.0700  0.7683
57755SOL     OW80314   0.839   7.009   6.027  0.2138  0.1542  0.1699
57755SOL    HW180315   0.879   6.922   6.019  0.3596  0.2380  0.0013
57755SOL    HW280316   0.912   7.070   6.018  0.5483  0.2533  2.7594
57756SOL     OW80317   6.877   7.656   6.959 -0.0751  0.0600 -0.2028
57756SOL    HW180318   6.906   7.746   6.942  0.3026  0.1753  0.9575
57756SOL    HW280319   6.782   7.659   6.950 -0.1595  0.8149  0.7965
57757SOL     OW80320   2.653   9.563   6.681  0.7792  0.4799  0.4173
57757SOL    HW180321   2.686   9.523   6.761 -1.1096  0.4334  1.2159
57757SOL    HW280322   2.639   9.489   6.621  2.9067  0.5851 -0.2797
57758SOL     OW80323   3.684  10.316   2.403  0.0665 -0.1520  0.3208
57758SOL    HW180324   3.695  10.399   2.357 -0.3341 -0.7836 -0.9606
57758SOL    HW280325   3.757  10.262   2.372 -0.6077 -0.8226 -0.1291
57759SOL     OW80326   4.697   7.957   5.116  0.1472  0.1108  0.6247
57759SOL    HW180327   4.607   7.927   5.132  0.5823 -0.4697  2.2148
57759SOL    HW280328   4.692   8.052   5.126 -0.2865  0.0848  0.7105
57760SOL     OW80329   2.615   0.034   1.339 -0.1880  0.2460 -0.2735
57760SOL    HW180330   2.623   0.106   1.276 -0.7368  1.2909  0.8186
57760SOL    HW280331   2.634  -0.044   1.288 -1.8368  0.9324 -2.0528
57761SOL     OW80332  10.135   7.176  12.022  0.2834  0.5802  0.2151
57761SOL    HW180333  10.098   7.114  12.084  0.0978  2.4989  2.1533
57761SOL    HW280334  10.210   7.130  11.984 -1.4856 -1.8135 -0.6318
57762SOL     OW80335   0.577   7.312   9.221 -0.2164  0.0806  0.3783
57762SOL    HW180336   0.522   7.234   9.230  0.0302 -0.0973  0.3581
57762SOL    HW280337   0.590   7.322   9.127  0.1020 -0.1036  0.3999
57763SOL     OW80338   2.179   4.349   1.568 -0.1862  0.1200 -0.7189
57763SOL    HW180339   2.143   4.276   1.517  0.6608 -0.3745 -0.6279
57763SOL    HW280340   2.217   4.307   1.645  0.4923  0.6446 -0.7679
57764SOL     OW80341   3.709   1.497   9.012  0.1539  0.4007 -0.1030
57764SOL    HW180342   3.628   1.527   9.052  0.8977  0.7738  1.1609
57764SOL    HW280343   3.683   1.423   8.957 -0.8435 -0.4107  1.4028
57765SOL     OW80344   3.950   1.472   9.683 -0.1117 -0.6154  0.8361
57765SOL    HW180345   3.995   1.540   9.733 -0.5819  1.1660 -1.0331
57765SOL    HW280346   3.928   1.514   9.599 -1.3364 -2.7668 -0.0032
57766SOL     OW80347   6.201  10.723   2.234  0.3368 -0.4643  0.5077
57766SOL    HW180348   6.277  10.682   2.195  2.0668 -0.3023  3.3805
57766SOL    HW280349   6.209  10.816   2.212  0.1358 -0.6541 -0.3974
57767SOL     OW80350   7.854   0.799   6.578 -0.1685 -0.2300 -0.7890
57767SOL    HW180351   7.863   0.880   6.626 -0.2268 -1.1357  0.8063
57767SOL    HW280352   7.760   0.788   6.567 -0.3690 -1.4686  1.5591
57768SOL     OW80353  11.855   2.311   7.991 -0.5207  0.5338  0.2711
57768SOL    HW180354  11.850   2.217   7.970  0.0608  0.6961 -0.6466
57768SOL    HW280355  11.946   2.326   8.013 -0.8187  0.6930  1.4430
57769SOL     OW80356   6.380   7.404   8.159 -0.0274 -0.0872 -0.2280
57769SOL    HW180357   6.456   7.350   8.181  1.4945  1.3839 -1.5671
57769SOL    HW280358   6.305   7.354   8.191  1.3664 -2.4054 -0.3520
57770SOL     OW80359   0.296  11.231  11.227 -0.9096  0.6484 -0.1671
57770SOL    HW180360   0.352  11.287  11.281 -0.4657  0.4107 -0.3800
57770SOL    HW280361   0.306  11.144  11.265 -0.8876  0.5492 -0.3993
57771SOL     OW80362   5.860   3.409   3.759  0.2180  0.4093 -0.4261
57771SOL    HW180363   5.773   3.442   3.783  0.3615  0.3407  0.2095
57771SOL    HW280364   5.897   3.377   3.841 -0.1258 -1.8385 -1.0588
57772SOL     OW80365   4.848   1.938   2.884  0.4054  0.2490  0.5143
57772SOL    HW180366   4.776   1.878   2.904  0.3273  0.4091  0.7247
57772SOL    HW280367   4.806   2.013   2.842  0.8728 -1.3200 -3.0553
57773SOL     OW80368   9.818   6.547   4.986 -0.4845  0.2856 -0.0990
57773SOL    HW180369   9.871   6.582   5.057 -1.0093  0.4570  0.2060
57773SOL    HW280370   9.728   6.569   5.009 -0.8301 -1.2433  0.0902
57774SOL     OW80371  10.918   9.575   6.370  0.8693  0.1036  0.0312
57774SOL    HW180372  10.857   9.646   6.346  0.6583  0.6418  1.9713
57774SOL    HW280373  10.975   9.614   6.435  0.5236 -1.5966  1.4189
57775SOL     OW80374   5.758   8.243   1.823 -0.1988  0.2033  0.4940
57775SOL    HW180375   5.677   8.292   1.806 -0.2951 -0.3359 -0.7298
57775SOL    HW280376   5.824   8.311   1.841 -0.9188  0.6425  1.5284
57776SOL     OW80377   0.329  10.784   0.364  0.2916  0.0257 -0.1688
57776SOL    HW180378   0.360  10.850   0.302  1.2787 -0.1053  0.1704
57776SOL    HW280379   0.236  10.805   0.376 -0.2289 -0.5943 -2.5027
57777SOL     OW80380   4.202   5.781   5.297 -0.4349  0.3976  0.2413
57777SOL    HW180381   4.219   5.802   5.205  0.3589  0.2550  0.3466
57777SOL    HW280382   4.262   5.710   5.317  1.1072  1.9698  1.5024
57778SOL     OW80383   4.448   1.739   6.938 -0.2785 -0.4492 -0.3066
57778SOL    HW180384   4.539   1.711   6.948 -0.4286 -0.8594 -0.0404
57778SOL    HW280385   4.401   1.659   6.914 -0.5372 -0.2009 -0.6323
57779SOL     OW80386  11.017   8.062   1.947 -0.2626  0.4156 -0.1361
57779SOL    HW180387  10.950   8.113   1.993 -0.1576 -0.4311  1.0042
57779SOL    HW280388  11.079   8.127   1.914 -1.0039  1.1243 -0.1637
57780SOL     OW80389   1.300   9.765   6.610  0.0273  0.0096 -0.8427
57780SOL    HW180390   1.264   9.816   6.538 -1.5735 -1.2704 -0.9946
57780SOL    HW280391   1.239   9.778   6.682  1.5485  1.1910  0.2986
57781SOL     OW80392  10.560  10.814   2.537 -0.2022  0.4576 -0.8199
57781SOL    HW180393  10.487  10.841   2.481 -1.2354 -3.0468 -1.4621
57781SOL    HW280394  10.547  10.863   2.618 -2.9669  0.4601 -1.1440
57782SOL     OW80395   9.668   1.052   1.840 -0.3675  0.5888 -0.5154
57782SOL    HW180396   9.642   0.997   1.914  0.3750  2.1073  0.9407
57782SOL    HW280397   9.696   1.134   1.880 -1.5882  2.1173 -2.6029
57783SOL     OW80398  10.021   0.178   3.497 -0.0920 -0.2920  0.1589
57783SOL    HW180399  10.003   0.239   3.568  2.3186  0.5500  0.1499
57783SOL    HW280400   9.937   0.138   3.477 -1.1420  0.7069  2.3144
57784SOL     OW80401   6.833   2.674   3.362 -0.1285 -0.1404 -0.3549
57784SOL    HW180402   6.919   2.689   3.324 -0.3588  0.3083 -0.7117
57784SOL    HW280403   6.799   2.762   3.380  0.2810 -0.3381  1.6319
57785SOL     OW80404   9.234   4.790   0.651 -0.1015  0.2367  0.4417
57785SOL    HW180405   9.263   4.849   0.721 -2.1660 -1.4807  2.9389
57785SOL    HW280406   9.298   4.719   0.651  0.2445  0.5458  0.1332
57786SOL     OW80407   6.751   7.877   2.341  0.0486 -0.7950 -0.3448
57786SOL    HW180408   6.805   7.954   2.321 -0.7999 -0.0668  0.1158
57786SOL    HW280409   6.808   7.821   2.393 -0.0212  0.5664  1.2850
57787SOL     OW80410   8.524   2.862   0.457 -0.5077  0.0337 -0.2874
57787SOL    HW180411   8.447   2.859   0.400 -0.0497 -2.8072 -0.8823
57787SOL    HW280412   8.590   2.810   0.411  0.8099 -0.0195  1.5586
57788SOL     OW80413   0.065  11.077   6.679  0.1708 -0.3728 -0.0945
57788SOL    HW180414  -0.010  11.018   6.668  0.1949 -0.5066  0.4392
57788SOL    HW280415   0.074  11.120   6.594 -0.1121 -0.8276 -0.3626
57789SOL     OW80416   6.471   5.850   9.818  0.2352  0.0343 -0.5939
57789SOL    HW180417   6.500   5.906   9.747  0.8225 -0.2958 -0.6225
57789SOL    HW280418   6.407   5.903   9.866  1.8053  1.2611  0.2178
57790SOL     OW80419   7.461  10.317   6.217 -0.2381  0.3476 -0.1277
57790SOL    HW180420   7.383  10.339   6.267 -0.0163  1.0992 -0.0904
57790SOL    HW280421   7.450  10.364   6.134 -1.3822 -2.1546 -1.5191
57791SOL     OW80422   9.433   4.941   1.227 -0.8200 -0.1514 -0.0567
57791SOL    HW180423   9.383   4.922   1.307 -1.1580  1.2475  0.0801
57791SOL    HW280424   9.524   4.945   1.256 -0.9823  0.7694  0.3535
57792SOL     OW80425   0.136   4.973   8.300  0.6077  0.3585 -0.4719
57792SOL    HW180426   0.071   4.978   8.230  0.7306 -1.3358 -0.7441
57792SOL    HW280427   0.110   5.042   8.361 -0.2144  1.0657 -1.5737
57793SOL     OW80428   4.474   9.625   1.528 -0.1750 -0.5906 -0.1905
57793SOL    HW180429   4.381   9.605   1.541  0.0438 -0.3953  2.0086
57793SOL    HW280430   4.518   9.580   1.600  1.3238  0.2460 -0.5470
57794SOL     OW80431   3.637   9.824   0.969  0.5068  0.4517  0.3487
57794SOL    HW180432   3.660   9.824   0.876 -0.2136 -0.6112  0.1553
57794SOL    HW280433   3.713   9.785   1.012  0.9159  1.1072  0.2465
57795SOL     OW80434  11.366   8.787   9.029 -0.3510  0.1556  0.0690
57795SOL    HW180435  11.349   8.745   9.113  0.3061 -0.3738 -0.0532
57795SOL    HW280436  11.307   8.745   8.968  0.8745 -1.2037 -0.2226
57796SOL     OW80437  11.892   1.583   0.234 -0.4103  0.3163 -0.5315
57796SOL    HW180438  11.812   1.608   0.186 -1.4818 -0.3214  0.8404
57796SOL    HW280439  11.938   1.524   0.174 -1.1197  0.4578 -1.2431
57797SOL     OW80440   2.276   6.076   1.320 -0.1317  0.6884  0.3003
57797SOL    HW180441   2.236   6.103   1.237 -0.8717  0.1102  0.4545
57797SOL    HW280442   2.295   6.158   1.365  1.9134  1.1084 -1.1533
57798SOL     OW80443  10.795   2.923   0.038 -0.7898 -0.6831  0.0561
57798SOL    HW180444  10.839   2.963  -0.037 -1.5415  0.3115  0.1185
57798SOL    HW280445  10.861   2.920   0.106 -0.4934 -0.2962 -0.2100
57799SOL     OW80446   8.145   5.747   2.036  0.3373 -0.2429 -0.3346
57799SOL    HW180447   8.233   5.740   1.999  0.1789 -1.2144 -0.5495
57799SOL    HW280448   8.124   5.659   2.068 -0.2657  0.1477  0.3909
57800SOL     OW80449   2.329   0.549   4.598  0.1607 -0.1094  0.5900
57800SOL    HW180450   2.270   0.601   4.652  0.9934  1.3428  0.1416
57800SOL    HW280451   2.273   0.480   4.562 -0.3569 -1.3253  3.4708
57801SOL     OW80452   2.924   4.583   4.731  0.1123  0.2178  0.0859
57801SOL    HW180453   2.974   4.547   4.658  0.8068 -0.0649  0.6883
57801SOL    HW280454   2.832   4.577   4.703  0.3230 -0.5120 -0.4731
57802SOL     OW80455   5.078   1.135   6.022 -0.3011 -0.0336  0.2194
57802SOL    HW180456   5.121   1.195   6.082 -1.4539 -0.4360  1.5086
57802SOL    HW280457   5.143   1.117   5.954 -0.0020  2.8770 -0.3947
57803SOL     OW80458   6.187   1.108   8.162  0.3215  0.2523 -0.2416
57803SOL    HW180459   6.128   1.072   8.096  0.0877 -0.7943  0.4947
57803SOL    HW280460   6.269   1.122   8.117  0.3434 -1.0157 -0.6354
57804SOL     OW80461   3.368   8.376   0.371 -0.6833  0.5513 -0.2966
57804SOL    HW180462   3.370   8.321   0.293 -3.5105  0.4180 -0.3905
57804SOL    HW280463   3.288   8.428   0.362 -0.6967  1.0889  2.1299
57805SOL     OW80464   8.040   2.496  10.110 -0.1175 -0.5465  0.3018
57805SOL    HW180465   8.101   2.432  10.147 -0.3539 -0.7811  0.2876
57805SOL    HW280466   7.957   2.450  10.106 -0.1012 -0.5172 -0.5053
57806SOL     OW80467   9.164   9.266   2.212  0.3406  0.1879 -0.3307
57806SOL    HW180468   9.117   9.301   2.137  0.0295  1.4985  0.4435
57806SOL    HW280469   9.098   9.217   2.262 -0.1066  1.5385  0.4504
57807SOL     OW80470   1.045   8.101   2.237  0.2849  0.1618  0.1825
57807SOL    HW180471   1.114   8.036   2.221 -0.7188 -0.5358 -1.5787
57807SOL    HW280472   1.003   8.071   2.318  1.3818  0.0271  0.7304
57808SOL     OW80473  10.291   9.146   0.977 -0.5823  0.1515 -0.0629
57808SOL    HW180474  10.226   9.186   1.035 -1.4570 -0.3971 -0.6329
57808SOL    HW280475  10.250   9.064   0.948  0.2885 -0.1156 -0.5907
57809SOL     OW80476   7.218   2.502   2.395  0.1271  0.1068  0.0326
57809SOL    HW180477   7.252   2.588   2.368 -1.0853  0.5259 -0.2222
57809SOL    HW280478   7.296   2.454   2.423  0.8229  1.3162  0.2729
57810SOL     OW80479   6.001  10.511   9.277 -0.2486 -0.2514  0.4570
57810SOL    HW180480   5.938  10.567   9.321 -1.2049 -1.7751  1.1297
57810SOL    HW280481   6.073  10.501   9.340 -0.1398  0.1002  0.3897
57811SOL     OW80482  12.446   2.553   2.381 -0.6043  0.2838 -0.2617
57811SOL    HW180483  12.354   2.554   2.354 -0.9387 -0.5549  0.7454
57811SOL    HW280484  12.452   2.623   2.447 -0.5895  0.1750 -0.1465
57812SOL     OW80485   2.748   4.729   9.147 -0.1963 -0.0753  0.5942
57812SOL    HW180486   2.718   4.779   9.071 -0.7983  0.1174  0.9538
57812SOL    HW280487   2.829   4.772   9.174 -0.7523  0.7669  0.9551
57813SOL     OW80488   4.233   7.534   5.544  0.3521 -0.4332  0.9277
57813SOL    HW180489   4.214   7.608   5.485 -0.6346 -1.2507  0.1892
57813SOL    HW280490   4.177   7.464   5.513  2.2904 -1.9747  0.7225
57814SOL     OW80491   8.311   8.096   6.281  0.2920  0.0884  0.2647
57814SOL    HW180492   8.237   8.036   6.287 -0.1466  0.5740 -0.2033
57814SOL    HW280493   8.377   8.046   6.231  1.6445 -1.6368  3.4403
57815SOL     OW80494   6.717   1.716  10.793 -0.2219 -0.2495  0.1752
57815SOL    HW180495   6.796   1.762  10.766 -0.5973  0.4222  0.1984
57815SOL    HW280496   6.670   1.779  10.847 -0.5726 -0.7898  0.5127
57816SOL     OW80497  10.826  10.562  11.449  0.1245 -0.2432  0.2193
57816SOL    HW180498  10.813  10.656  11.464 -1.6502 -0.5152  0.6345
57816SOL    HW280499  10.827  10.525  11.537  1.8352 -0.5236  0.1039
57817SOL     OW80500   2.007  12.549  10.859 -0.4235  0.4901  0.4805
57817SOL    HW180501   2.019  12.581  10.949  2.0965 -0.9131  0.7387
57817SOL    HW280502   1.997  12.455  10.869  2.0471  0.0032 -0.7413
57818SOL     OW80503   2.383  12.285   7.211 -0.2133 -0.2304 -0.4571
57818SOL    HW180504   2.378  12.346   7.284  0.8738 -0.7517  0.0733
57818SOL    HW280505   2.316  12.316   7.149 -0.2636  0.9767  0.1719
57819SOL     OW80506  12.511   2.714   2.831  0.3170  0.1651  0.3799
57819SOL    HW180507  12.584   2.715   2.893 -0.7536 -0.2160  1.6986
57819SOL    HW280508  12.433   2.723   2.886 -0.6338  0.6502 -0.9968
57820SOL     OW80509   5.051   5.904   6.753  0.4679 -0.2178 -0.3875
57820SOL    HW180510   4.982   5.934   6.812  1.0906  2.0286 -0.6678
57820SOL    HW280511   5.109   5.852   6.807 -1.1049 -1.6468 -0.0160
57821SOL     OW80512  10.980   3.408   7.672 -0.0989 -0.8033 -0.2709
57821SOL    HW180513  10.943   3.333   7.718 -0.2864 -0.7484 -0.3328
57821SOL    HW280514  11.062   3.376   7.635 -0.3327 -1.0587 -0.5600
57822SOL     OW80515   5.893   2.751   7.954 -0.5186  0.1473 -0.1061
57822SOL    HW180516   5.842   2.818   7.908  0.2201  0.3954 -0.5884
57822SOL    HW280517   5.985   2.776   7.938 -0.2353  0.2800  1.5749
57823SOL     OW80518  11.788   9.721   1.336  0.4316 -0.2161 -0.6178
57823SOL    HW180519  11.783   9.813   1.309  0.4271 -0.4985 -1.6251
57823SOL    HW280520  11.835   9.723   1.419  0.2566  0.7140 -0.5282
57824SOL     OW80521  11.593   8.461   2.444  0.2564 -0.7313 -0.2727
57824SOL    HW180522  11.652   8.477   2.371  0.7313  1.6673  0.5585
57824SOL    HW280523  11.520   8.522   2.431  0.9223  0.6181  1.8000
57825SOL     OW80524  11.633   0.189  11.765 -0.1655 -0.2667 -0.0664
57825SOL    HW180525  11.701   0.244  11.803  0.7886 -2.1728  1.1657
57825SOL    HW280526  11.595   0.143  11.840  0.4332 -2.7004 -1.1541
57826SOL     OW80527   1.116   2.142  11.879 -0.3900 -0.3578  0.5545
57826SOL    HW180528   1.205   2.169  11.855 -0.8798  2.0670  1.1705
57826SOL    HW280529   1.076   2.116  11.796 -0.2075  2.1301 -0.4167
57827SOL     OW80530   4.100  11.322   0.339 -0.0906  0.3659 -0.4121
57827SOL    HW180531   4.138  11.243   0.299 -1.6907 -0.3083 -0.6485
57827SOL    HW280532   4.073  11.295   0.426 -0.2254  0.7916 -0.3186
57828SOL     OW80533   0.184  11.563  12.034  0.0327 -0.4640  0.1601
57828SOL    HW180534   0.088  11.559  12.041 -0.0096  1.3487  1.3171
57828SOL    HW280535   0.201  11.570  11.940 -1.0052 -0.3462 -0.0352
57829SOL     OW80536   0.304   3.836   3.518  0.0551 -0.2702 -0.5231
57829SOL    HW180537   0.354   3.777   3.461  0.3118 -0.3864 -0.1793
57829SOL    HW280538   0.307   3.921   3.474 -0.7356 -0.6166 -1.2804
57830SOL     OW80539   1.816   1.769   0.099  0.1422  0.3935 -0.2038
57830SOL    HW180540   1.771   1.793   0.180  0.2861  3.3516 -0.9020
57830SOL    HW280541   1.907   1.755   0.126 -0.4232 -2.4112  0.6600
57831SOL     OW80542   7.304   0.324   1.973 -0.3306 -0.3347  0.5220
57831SOL    HW180543   7.259   0.241   1.956 -0.7968 -0.1167  0.6798
57831SOL    HW280544   7.298   0.372   1.890 -3.5401  1.1736  1.4878
57832SOL     OW80545  12.167   3.064   5.339  0.0256 -0.0553  0.1689
57832SOL    HW180546  12.157   3.003   5.412 -0.4262  0.5750  0.6484
57832SOL    HW280547  12.149   3.150   5.377 -0.5803  0.2489 -0.7655
57833SOL     OW80548   3.096   1.086   0.330 -0.6834  0.0999 -0.4582
57833SOL    HW180549   3.004   1.098   0.354 -0.3294 -0.1515  1.2032
57833SOL    HW280550   3.100   0.998   0.293 -0.6717 -1.1918  2.3438
57834SOL     OW80551   3.070  10.077   8.525  0.2270 -0.0252 -0.4571
57834SOL    HW180552   3.012  10.138   8.571  0.3955  0.3111 -0.6822
57834SOL    HW280553   3.106  10.128   8.452  0.8943 -0.1879 -0.2516
57835SOL     OW80554   6.368   9.867  11.062  0.0686  0.6627  0.3063
57835SOL    HW180555   6.388   9.850  11.154  0.3226 -1.2709 -0.0494
57835SOL    HW280556   6.413   9.949  11.042  1.6191  0.1254  1.4147
57836SOL     OW80557   0.404   0.666   1.884 -0.3590 -0.0244 -0.1003
57836SOL    HW180558   0.348   0.744   1.880  1.1537  1.1501  0.7263
57836SOL    HW280559   0.388   0.629   1.971  0.2880  0.4176  0.2057
57837SOL     OW80560   2.322   5.061  10.608 -0.2835 -0.3581 -0.0657
57837SOL    HW180561   2.251   5.010  10.647 -0.5183 -0.3639 -0.5013
57837SOL    HW280562   2.398   5.002  10.611 -0.1656 -0.1813  0.8470
57838SOL     OW80563   5.342   5.170   4.517  0.2871  0.1517  0.2157
57838SOL    HW180564   5.426   5.124   4.509  1.2590  1.6613  1.1133
57838SOL    HW280565   5.358   5.237   4.584 -1.7833  0.1966  0.7297
57839SOL     OW80566   6.747   0.911   4.280 -0.9753 -0.6010 -0.5350
57839SOL    HW180567   6.830   0.882   4.243 -1.3965 -0.7512 -1.3917
57839SOL    HW280568   6.713   0.834   4.325 -0.7830 -0.6257 -0.4345
57840SOL     OW80569   6.256   1.751  10.414 -0.0412 -0.2103 -0.1873
57840SOL    HW180570   6.269   1.692  10.339 -1.1745 -1.2418  0.3807
57840SOL    HW280571   6.165   1.737  10.439 -1.0256  3.2748 -1.2493
57841SOL     OW80572  12.127   5.483   7.387  0.4860 -0.2079 -0.0159
57841SOL    HW180573  12.180   5.475   7.467  0.2350  0.2200  0.1972
57841SOL    HW280574  12.126   5.395   7.350  2.3072 -0.0060 -0.6401
57842SOL     OW80575  10.013  11.568  10.414  0.2098  0.2881  0.2435
57842SOL    HW180576  10.047  11.638  10.470 -0.5273  0.9847 -0.1651
57842SOL    HW280577  10.001  11.494  10.474  0.2496  0.7555  0.8460
57843SOL     OW80578   1.494   7.698   4.692 -0.5311 -0.5910 -0.1590
57843SOL    HW180579   1.427   7.719   4.757 -0.2687 -1.3587  0.3784
57843SOL    HW280580   1.453   7.629   4.639 -0.3156 -0.7761 -0.0838
57844SOL     OW80581  12.080   0.771   4.639  0.6135  0.1883 -0.0289
57844SOL    HW180582  12.124   0.854   4.654  0.9720 -0.3615  2.2894
57844SOL    HW280583  11.987   0.791   4.649  0.7716  0.0943  1.8834
57845SOL     OW80584   3.302   5.035   8.537  1.0114 -0.2090 -0.0142
57845SOL    HW180585   3.219   5.077   8.561  0.4464  0.5461 -2.9637
57845SOL    HW280586   3.322   4.980   8.613 -1.4318  0.6434  1.4038
57846SOL     OW80587   4.017   4.038   1.162 -0.5590  0.5834  0.1353
57846SOL    HW180588   3.933   4.035   1.207  0.1895 -1.7243  1.5390
57846SOL    HW280589   4.053   4.124   1.185 -0.9966  0.1844  2.5762
57847SOL     OW80590   6.705   8.509   2.108 -0.4138  0.0230 -0.2281
57847SOL    HW180591   6.660   8.427   2.084 -0.0281 -1.0144  2.3142
57847SOL    HW280592   6.791   8.502   2.066  0.3089 -1.8040  1.3949
57848SOL     OW80593  11.396   4.164   7.393  0.0116 -0.2275  0.3505
57848SOL    HW180594  11.464   4.097   7.405  0.2237  0.2337  2.0114
57848SOL    HW280595  11.439   4.233   7.343 -0.2191 -1.2917 -1.4163
57849SOL     OW80596  11.817   3.430  11.514  0.4488  0.3356 -0.1036
57849SOL    HW180597  11.911   3.425  11.498  0.9045  0.9110  2.1008
57849SOL    HW280598  11.807   3.507  11.571 -1.3583  0.2959 -0.3269
57850SOL     OW80599   1.551   8.323   9.358 -0.1520 -1.1377 -0.1881
57850SOL    HW180600   1.529   8.410   9.392  0.1943  0.1521 -2.9853
57850SOL    HW280601   1.605   8.284   9.427  1.5984  1.7878  0.2959
57851SOL     OW80602   5.129  10.676   0.561  0.0202  0.7366 -0.3010
57851SOL    HW180603   5.187  10.605   0.533 -0.9419  0.0124 -0.5066
57851SOL    HW280604   5.129  10.737   0.488  2.1241  1.8087  0.5016
57852SOL     OW80605  12.037   2.208   7.728  0.0930  0.2228  0.6788
57852SOL    HW180606  12.093   2.269   7.776  1.6468 -1.1280  0.6903
57852SOL    HW280607  12.046   2.125   7.775  0.1835 -0.6799 -0.8464
57853SOL     OW80608   5.801  11.342   6.752  0.2016 -0.1890 -0.3768
57853SOL    HW180609   5.798  11.366   6.659 -0.8528 -3.3007 -1.2791
57853SOL    HW280610   5.712  11.315   6.772  0.5032  0.0773  1.4825
57854SOL     OW80611   9.019   9.547   2.286  0.4584 -0.7111  0.2842
57854SOL    HW180612   9.091   9.488   2.263  1.6889 -0.1795  2.4875
57854SOL    HW280613   9.061   9.617   2.336 -1.4931  0.1026  0.8659
57855SOL     OW80614   4.952   5.134   1.526 -0.2345 -0.0697  0.0913
57855SOL    HW180615   4.880   5.196   1.540 -0.4573 -0.5993  1.5250
57855SOL    HW280616   4.990   5.122   1.613  1.8195  0.4340 -0.6659
57856SOL     OW80617   4.539   2.437   1.262  0.0227  0.2803  0.0492
57856SOL    HW180618   4.582   2.437   1.176 -0.7066  1.2406 -0.3412
57856SOL    HW280619   4.583   2.369   1.311  0.3670 -0.3909 -1.1459
57857SOL     OW80620   9.566   9.280   2.105  0.3234  0.6961 -0.4706
57857SOL    HW180621   9.502   9.350   2.097  1.6199  1.7857 -1.7409
57857SOL    HW280622   9.647   9.324   2.132  0.8138 -0.5140  0.1276
57858SOL     OW80623   9.510   2.730  12.036  0.3250 -0.0001  0.1443
57858SOL    HW180624   9.586   2.787  12.022  0.9343 -0.8115  0.0141
57858SOL    HW280625   9.540   2.668  12.104 -0.8942  0.8584  1.5164
57859SOL     OW80626   9.651   5.741   0.013  1.1944 -0.3249  0.3577
57859SOL    HW180627   9.628   5.663   0.064 -0.0091 -0.0416  0.2885
57859SOL    HW280628   9.649   5.812   0.077  1.6157 -0.2546  0.2905
57860SOL     OW80629   0.816   5.480   1.514 -0.3285  0.3854  0.2270
57860SOL    HW180630   0.731   5.509   1.482 -0.5630  1.9802  2.1243
57860SOL    HW280631   0.814   5.384   1.504 -2.2360  0.4105  0.0188
57861SOL     OW80632   5.702   1.649   4.513  0.0675  0.3265  0.6657
57861SOL    HW180633   5.666   1.574   4.561  0.6489 -0.1689  0.3460
57861SOL    HW280634   5.674   1.726   4.563 -0.6682 -0.0954  0.9138
57862SOL     OW80635   1.816   4.281   3.943 -0.4268 -0.0184  0.3278
57862SOL    HW180636   1.807   4.367   3.986  1.8747  0.3534  0.1991
57862SOL    HW280637   1.817   4.218   4.015 -1.0506  0.1576  0.4966
57863SOL     OW80638   6.189   7.942   9.157  0.0490 -0.0025  0.6690
57863SOL    HW180639   6.241   8.017   9.127 -1.1755  1.3975  1.8631
57863SOL    HW280640   6.098   7.973   9.152 -0.4811 -1.3899  1.2906
57864SOL     OW80641  10.280   9.205   2.119  0.2993 -0.0208 -0.1384
57864SOL    HW180642  10.315   9.204   2.208  0.6305 -0.3517 -0.2740
57864SOL    HW280643  10.194   9.163   2.127  0.2216  0.1679  0.0640
57865SOL     OW80644   5.719  11.145   2.200 -0.1616  0.1747  0.3275
57865SOL    HW180645   5.693  11.202   2.128  0.6674  1.6753  1.1803
57865SOL    HW280646   5.717  11.057   2.162  1.2433  0.9865 -1.8355
57866SOL     OW80647   7.715   1.274   6.547 -0.5561 -0.4430  0.4014
57866SOL    HW180648   7.773   1.346   6.521 -2.3175  0.3929 -1.4207
57866SOL    HW280649   7.775   1.202   6.568  1.1835  0.9149  0.3442
57867SOL     OW80650   4.164   5.966  11.041  0.0417  0.3237  0.3856
57867SOL    HW180651   4.198   6.014  10.966  0.0207  1.6976  1.2138
57867SOL    HW280652   4.107   5.898  11.004  0.2891  0.7762 -0.8354
57868SOL     OW80653   2.436   1.081  11.572 -0.3013  0.4736  0.4454
57868SOL    HW180654   2.480   1.003  11.607 -1.0337  0.3502  1.1311
57868SOL    HW280655   2.459   1.082  11.479 -1.8328 -1.6770 -0.0232
57869SOL     OW80656  10.716   8.469   7.872 -0.3501 -0.1671 -0.2640
57869SOL    HW180657  10.648   8.534   7.855 -1.4205 -0.6388  1.8326
57869SOL    HW280658  10.732   8.475   7.967  1.9147 -0.6941 -0.5549
57870SOL     OW80659   6.657   8.768   7.096 -0.1753  0.2016  0.3215
57870SOL    HW180660   6.691   8.729   7.015  1.5432 -0.7976  1.4487
57870SOL    HW280661   6.704   8.721   7.166 -2.1057  0.5549  1.9247
57871SOL     OW80662   4.447   1.874   9.098  0.7217  0.5428 -0.4517
57871SOL    HW180663   4.415   1.939   9.160 -0.3411  0.8816 -1.3418
57871SOL    HW280664   4.522   1.916   9.056  0.6259  0.8237 -0.3454
57872SOL     OW80665   4.182   9.608  12.117 -0.0669 -0.5199  0.2786
57872SOL    HW180666   4.095   9.602  12.158 -0.5678  0.5168 -0.5635
57872SOL    HW280667   4.168   9.664  12.041  2.0072  2.6840  2.0351
57873SOL     OW80668   0.002   3.007   6.801  0.6933 -0.0286  0.2449
57873SOL    HW180669  -0.064   3.047   6.857  2.2408 -1.2982  3.1958
57873SOL    HW280670   0.067   3.076   6.787 -0.2860  0.6534 -1.0663
57874SOL     OW80671   0.132  11.386  10.040 -0.2683  0.4076  0.0342
57874SOL    HW180672   0.155  11.303   9.999 -0.5867  0.0903  0.4801
57874SOL    HW280673   0.211  11.439  10.034  0.7278 -0.7655  1.8126
57875SOL     OW80674   6.062   7.929   6.599 -0.4897  0.3410 -0.5942
57875SOL    HW180675   6.144   7.881   6.604 -0.0724  1.0673 -0.3713
57875SOL    HW280676   6.024   7.921   6.687 -0.8432 -0.2916 -0.7927
57876SOL     OW80677  11.569   1.370   3.758  0.2842 -0.3926 -0.5055
57876SOL    HW180678  11.509   1.313   3.805 -0.4178 -1.4514 -2.5601
57876SOL    HW280679  11.531   1.458   3.766  1.1526 -0.1742  2.3282
57877SOL     OW80680   5.984   7.236   9.509  0.5695  0.0235  0.5750
57877SOL    HW180681   5.969   7.142   9.520  3.2534 -0.8367 -1.8803
57877SOL    HW280682   6.066   7.252   9.556  0.4557  1.0159  0.4490
57878SOL     OW80683   3.261   6.183   9.132  0.2085  0.5540  0.0122
57878SOL    HW180684   3.257   6.278   9.122  0.7857  0.7198  1.1700
57878SOL    HW280685   3.257   6.149   9.043 -0.4041  1.6436 -0.3913
57879SOL     OW80686   2.794   4.443   0.434  0.0124  0.2172 -1.0342
57879SOL    HW180687   2.731   4.500   0.480  0.4932 -0.6195  0.7537
57879SOL    HW280688   2.879   4.479   0.457  0.2673 -0.2618 -1.2269
57880SOL     OW80689   1.692  12.153   8.156  0.3185 -0.1410 -0.1925
57880SOL    HW180690   1.688  12.152   8.061  0.6361  0.5998 -0.2148
57880SOL    HW280691   1.650  12.071   8.182 -0.9441  0.2473 -0.9233
57881SOL     OW80692   6.564   4.529  12.529  0.0194 -0.5123 -0.3614
57881SOL    HW180693   6.577   4.589  12.603  1.8089  0.1119 -1.1223
57881SOL    HW280694   6.573   4.585  12.452 -2.2220 -1.0713 -1.0977
57882SOL     OW80695   6.476   8.326   6.117 -0.6812  0.2286  0.0793
57882SOL    HW180696   6.518   8.246   6.084 -0.5148  0.4305 -0.2095
57882SOL    HW280697   6.449   8.372   6.038 -3.1723 -0.7747  0.2606
57883SOL     OW80698   8.408   9.556   1.925 -0.3113 -0.0215  0.5891
57883SOL    HW180699   8.497   9.587   1.910 -0.3876  0.3867  0.9533
57883SOL    HW280700   8.418   9.483   1.987  0.0349 -1.9342 -1.6080
57884SOL     OW80701   1.891  10.692   9.406 -0.2686  0.2766  0.8886
57884SOL    HW180702   1.806  10.712   9.446 -1.0093 -1.6224  0.4031
57884SOL    HW280703   1.892  10.596   9.400  0.3393  0.3675 -2.4632
57885SOL     OW80704   7.574  11.001  12.121  0.1296  0.0350 -0.0342
57885SOL    HW180705   7.501  11.005  12.183  0.6225 -0.7255  0.6113
57885SOL    HW280706   7.570  11.085  12.074 -1.3163 -0.1035 -0.1988
57886SOL     OW80707   6.677  12.463  11.592  0.7287  0.5566 -0.4672
57886SOL    HW180708   6.717  12.459  11.679  1.2279  1.4742 -0.6371
57886SOL    HW280709   6.670  12.372  11.564  0.0656  0.2210  0.7505
57887SOL     OW80710   5.409   8.694  10.911 -0.1058 -0.4651  0.0015
57887SOL    HW180711   5.378   8.701  11.001 -0.3120 -0.5102 -0.0656
57887SOL    HW280712   5.380   8.776  10.870  0.2561 -0.3046  0.0550
57888SOL     OW80713   0.261   9.651   9.536 -0.6655  0.3796  0.2637
57888SOL    HW180714   0.323   9.721   9.557 -0.8606  0.4342  0.6709
57888SOL    HW280715   0.228   9.622   9.621 -0.9958  0.1631  0.0646
57889SOL     OW80716   0.870  10.059   3.670  0.2420 -0.3381 -0.1091
57889SOL    HW180717   0.900  10.131   3.725  1.7924  0.1400 -1.5117
57889SOL    HW280718   0.775  10.062   3.677  0.3480  0.6073  1.3787
57890SOL     OW80719   5.789   7.291  11.423  0.0471 -0.0607 -0.0004
57890SOL    HW180720   5.751   7.323  11.505 -1.2105 -1.6850  0.0997
57890SOL    HW280721   5.815   7.201  11.442  0.7138 -0.1232 -1.1020
57891SOL     OW80722  11.063   0.452   6.543 -0.1139 -0.9688 -0.0775
57891SOL    HW180723  11.089   0.535   6.584  1.6730 -0.2418 -2.4893
57891SOL    HW280724  10.967   0.456   6.540 -0.3472 -0.7830  3.2302
57892SOL     OW80725   9.996   4.190   7.813 -0.4144 -1.0234 -0.0399
57892SOL    HW180726  10.049   4.200   7.734  0.1210  2.0759  0.5860
57892SOL    HW280727   9.906   4.189   7.781 -0.1757 -0.7011 -0.7524
57893SOL     OW80728   6.676  11.705   2.071 -0.1884 -0.2537  0.5112
57893SOL    HW180729   6.710  11.723   1.983 -0.7752  1.8983  0.6636
57893SOL    HW280730   6.750  11.722   2.129 -0.2128 -0.1825  0.5222
57894SOL     OW80731   2.831   7.516   9.729  0.3784  0.1345  0.1603
57894SOL    HW180732   2.754   7.498   9.783 -0.8380  2.2239 -0.7264
57894SOL    HW280733   2.847   7.610   9.740  2.5386 -0.1572 -0.0588
57895SOL     OW80734  11.533   3.859   0.408 -0.1449 -0.3382 -0.1574
57895SOL    HW180735  11.467   3.884   0.344 -0.9822 -0.2198  0.7200
57895SOL    HW280736  11.493   3.880   0.493  0.5291 -1.4088  0.4507
57896SOL     OW80737   4.495  12.007   8.674 -0.1700  0.2461  0.1569
57896SOL    HW180738   4.581  11.974   8.699 -0.0292  0.3611 -0.1565
57896SOL    HW280739   4.485  11.981   8.582  0.5283  2.2137 -0.5303
57897SOL     OW80740   5.647   9.842   3.528 -0.2563  0.4450 -0.3245
57897SOL    HW180741   5.564   9.839   3.481 -0.1563  0.2594 -0.4926
57897SOL    HW280742   5.713   9.827   3.461 -0.0306  1.4093 -0.3321
57898SOL     OW80743   1.141   6.866   1.625  0.3255 -0.1231 -0.1882
57898SOL    HW180744   1.212   6.921   1.592  0.2213 -0.4194 -0.9220
57898SOL    HW280745   1.067   6.925   1.633  0.4980  0.0651  0.0182
57899SOL     OW80746  11.522   0.631   7.076 -0.1179  0.5151  0.0520
57899SOL    HW180747  11.473   0.693   7.020  0.6549  0.2813 -0.9122
57899SOL    HW280748  11.454   0.585   7.124 -0.7567  1.5220  0.1552
57900SOL     OW80749   4.087   6.531   3.596  0.5378  0.1761 -0.3521
57900SOL    HW180750   4.109   6.609   3.545 -1.0059 -0.1540 -1.5862
57900SOL    HW280751   4.117   6.458   3.541  3.1940 -0.1778  1.3657
57901SOL     OW80752   0.031   1.637   6.029 -0.2883  0.4281  0.5192
57901SOL    HW180753  -0.001   1.583   6.101 -1.2354 -0.2246 -0.3636
57901SOL    HW280754   0.127   1.632   6.036 -0.3626 -0.8180  0.8779
57902SOL     OW80755   7.705   2.633   8.943  0.0907 -0.4349 -0.1420
57902SOL    HW180756   7.717   2.610   9.035  0.5426  1.1026  0.2038
57902SOL    HW280757   7.610   2.644   8.933  0.1483  0.7395  0.4940
57903SOL     OW80758   0.371  11.611   2.673 -0.4928  0.1841  0.5921
57903SOL    HW180759   0.401  11.556   2.745  0.0953 -0.7619 -0.3465
57903SOL    HW280760   0.426  11.585   2.599 -0.3889  1.8440  0.0452
57904SOL     OW80761   7.081  10.007  11.948 -0.3062  0.4511 -0.3443
57904SOL    HW180762   7.047  10.053  12.025  0.2312  1.9784 -0.9761
57904SOL    HW280763   7.057  10.063  11.874  0.1496 -0.4332 -1.1875
57905SOL     OW80764   8.493   0.797   0.328  0.3125  0.0676  0.3880
57905SOL    HW180765   8.521   0.716   0.286  0.1083 -0.6606  1.6084
57905SOL    HW280766   8.525   0.790   0.418 -0.0007  1.1910  0.6020
57906SOL     OW80767   6.601   4.760   3.834  0.5681 -0.3202  0.2560
57906SOL    HW180768   6.566   4.823   3.771 -0.4549 -0.3263  0.8008
57906SOL    HW280769   6.651   4.814   3.895 -0.0116 -0.0654  0.5169
57907SOL     OW80770  12.020  11.975  12.120 -0.2013 -0.3718  0.2064
57907SOL    HW180771  12.028  11.976  12.216 -0.8570  0.0657  0.2599
57907SOL    HW280772  12.086  12.038  12.090 -0.1581 -0.3348  0.3779
57908SOL     OW80773   1.483   5.448  11.892  0.0729  0.4137  0.4673
57908SOL    HW180774   1.539   5.417  11.962 -0.5239  0.7256  1.0996
57908SOL    HW280775   1.401   5.400  11.905 -0.0649  0.5290  0.0269
57909SOL     OW80776   3.082   1.342  10.415  0.2127 -0.1030 -0.3439
57909SOL    HW180777   3.053   1.329  10.505  0.1716  0.3642 -0.2885
57909SOL    HW280778   3.077   1.437  10.401 -0.8057 -0.2551 -1.1751
57910SOL     OW80779   5.725  11.682   7.324  0.2763  0.0195 -0.8889
57910SOL    HW180780   5.662  11.752   7.337  1.2909  0.7896  0.0911
57910SOL    HW280781   5.675  11.602   7.341 -0.2211  0.6572  0.8456
57911SOL     OW80782   2.042   4.275  12.398  0.1376  0.4053  0.3505
57911SOL    HW180783   2.114   4.326  12.434 -0.5362 -0.4353  3.0813
57911SOL    HW280784   2.071   4.184  12.404 -0.9573  0.0881  1.0714
57912SOL     OW80785   0.607   9.787   4.017 -0.3647  0.0374 -0.3382
57912SOL    HW180786   0.522   9.758   3.983 -0.2808 -2.8055  1.5663
57912SOL    HW280787   0.591   9.877   4.045 -2.7136 -0.3196 -0.2878
57913SOL     OW80788  10.110   4.813   9.409  0.3934 -0.2550 -0.2130
57913SOL    HW180789  10.139   4.868   9.481  0.7712 -0.2774 -0.3462
57913SOL    HW280790  10.111   4.871   9.332 -0.1117 -0.2017 -0.1822
57914SOL     OW80791  10.904   2.569   0.548 -0.2333  0.0576 -0.0460
57914SOL    HW180792  10.951   2.601   0.471 -1.8086  0.3368 -0.9491
57914SOL    HW280793  10.813   2.593   0.532 -0.8095 -1.0612  1.3031
57915SOL     OW80794   7.525  12.548   8.632 -0.0259  0.2402  0.2045
57915SOL    HW180795   7.491  12.470   8.675  1.3076 -0.2518  0.4121
57915SOL    HW280796   7.454  12.612   8.640 -0.6866 -0.5678  1.0822
57916SOL     OW80797   5.292  10.529   8.197 -0.2485  0.6604  0.5864
57916SOL    HW180798   5.365  10.533   8.259  1.4924 -1.6253 -1.1482
57916SOL    HW280799   5.317  10.588   8.126  1.5770 -2.2611 -1.4495
57917SOL     OW80800   3.573   1.741  12.239  0.5039  0.0772  0.1427
57917SOL    HW180801   3.641   1.678  12.264  1.0904 -0.0089 -1.5715
57917SOL    HW280802   3.619   1.805  12.185 -0.1578  1.8222  1.5457
57918SOL     OW80803   6.609   3.553   2.376  0.2141 -0.3786 -0.8885
57918SOL    HW180804   6.682   3.492   2.374  1.1693  0.6720  0.0750
57918SOL    HW280805   6.577   3.555   2.286  0.4094 -1.9631 -1.0209
57919SOL     OW80806   7.037   1.225  11.909 -0.0831  0.5428 -0.0172
57919SOL    HW180807   7.025   1.318  11.927 -0.8420  0.4703 -0.0894
57919SOL    HW280808   7.051   1.185  11.995  0.8457  0.7994 -0.0437
57920SOL     OW80809   3.006   6.680   3.238 -0.2264  0.2093 -0.3562
57920SOL    HW180810   2.934   6.634   3.281 -1.0275  1.4439 -0.3210
57920SOL    HW280811   3.049   6.613   3.185 -1.4066 -0.5705 -0.3827
57921SOL     OW80812   9.020  10.333   5.866  0.1562 -0.0612 -0.5027
57921SOL    HW180813   9.023  10.241   5.891  0.7955 -0.0177 -0.3960
57921SOL    HW280814   9.104  10.349   5.823 -0.0736  0.3973 -0.7845
57922SOL     OW80815   2.856  12.469   8.252 -0.4165  0.1194  0.5837
57922SOL    HW180816   2.940  12.445   8.214 -1.5077 -0.8550 -1.3914
57922SOL    HW280817   2.815  12.386   8.275 -1.1226  0.5311  0.8467
57923SOL     OW80818   8.357   6.649   0.644 -0.1015  0.7246 -0.3669
57923SOL    HW180819   8.292   6.629   0.576  0.7257  1.2138 -1.3382
57923SOL    HW280820   8.328   6.599   0.720 -0.7661 -0.2783 -1.2384
57924SOL     OW80821   9.857   6.686   4.343  0.0429 -0.3639 -0.0352
57924SOL    HW180822   9.882   6.773   4.374  1.2615 -0.5436 -0.4530
57924SOL    HW280823   9.799   6.652   4.411  1.3760 -0.1177  1.2673
57925SOL     OW80824  11.953   4.971   1.390 -0.4985  0.3051 -0.8918
57925SOL    HW180825  12.038   4.954   1.348 -1.6597  1.0261 -3.7962
57925SOL    HW280826  11.939   5.065   1.377 -1.6308  0.2403 -0.2015
57926SOL     OW80827   9.640   5.235   3.662  0.3260 -0.3918  0.1419
57926SOL    HW180828   9.674   5.323   3.672  0.5789 -0.5754  0.9194
57926SOL    HW280829   9.599   5.214   3.746 -1.5920 -0.2367 -0.6983
57927SOL     OW80830   4.191   3.242   0.689  0.0920  0.3286 -0.6850
57927SOL    HW180831   4.227   3.231   0.777 -0.6162  0.0984 -0.4128
57927SOL    HW280832   4.194   3.337   0.675 -1.5502  0.5914  0.3867
57928SOL     OW80833  10.206   3.685   5.288 -0.6009 -0.2315  0.0932
57928SOL    HW180834  10.227   3.619   5.221  1.2560  0.1024  0.2877
57928SOL    HW280835  10.120   3.660   5.320 -0.0573 -2.4288 -0.0171
57929SOL     OW80836   3.314   9.142  10.608  0.2796  0.0108 -0.1626
57929SOL    HW180837   3.261   9.193  10.546  0.6725  0.2679 -0.2891
57929SOL    HW280838   3.358   9.208  10.661  1.5674 -0.1630 -0.9702
57930SOL     OW80839   9.757   4.945  10.863 -0.5002 -0.2582 -0.2395
57930SOL    HW180840   9.727   4.992  10.785  1.1859  0.9839 -0.1941
57930SOL    HW280841   9.850   4.926  10.846 -1.1236 -3.9006 -0.3715
57931SOL     OW80842  11.012   1.890   3.804  0.0188  0.3971  0.5159
57931SOL    HW180843  10.917   1.900   3.809 -0.1009 -0.9855  1.8706
57931SOL    HW280844  11.047   1.979   3.806 -1.2388  0.9122  0.1253
57932SOL     OW80845   6.753   7.900   3.385  0.2090 -0.2803 -0.7953
57932SOL    HW180846   6.846   7.891   3.361  0.6109  3.2592 -1.0411
57932SOL    HW280847   6.755   7.946   3.469 -1.3657 -1.0692 -0.2883
57933SOL     OW80848  12.576   1.783   3.228 -0.0018 -0.4033  0.3871
57933SOL    HW180849  12.511   1.837   3.273  0.5915  0.8964 -0.2531
57933SOL    HW280850  12.660   1.812   3.264  0.2535 -2.3342  1.4936
57934SOL     OW80851   6.274  10.077   3.963 -0.4569  0.4181  0.3873
57934SOL    HW180852   6.193  10.117   3.935 -1.8186 -1.8152  0.8550
57934SOL    HW280853   6.248  10.016   4.032  1.7043  0.0629  0.9804
57935SOL     OW80854   5.798   6.600   4.467 -0.6505  0.0828 -0.6082
57935SOL    HW180855   5.892   6.618   4.462 -0.5224 -0.6992 -1.2703
57935SOL    HW280856   5.792   6.520   4.520 -0.8922 -0.1732 -1.0157
57936SOL     OW80857   1.510   2.480  11.250 -0.0147  0.1521 -0.0914
57936SOL    HW180858   1.488   2.387  11.250  0.8669 -0.0684 -0.4821
57936SOL    HW280859   1.484   2.512  11.337 -1.8622 -0.0684 -0.5392
57937SOL     OW80860  10.869   1.933   1.512 -0.1449  0.1284  0.2587
57937SOL    HW180861  10.898   2.018   1.479 -0.0936 -0.5034 -1.4242
57937SOL    HW280862  10.852   1.882   1.433 -0.9164 -1.1779  1.2424
57938SOL     OW80863   0.076   3.978  11.799  0.1460  0.0815 -0.3178
57938SOL    HW180864   0.111   4.019  11.879 -1.4609  1.3166 -0.1933
57938SOL    HW280865   0.050   3.890  11.827 -0.1951  0.4213  0.4679
57939SOL     OW80866   6.452   3.971   2.288  0.2730 -0.2234 -0.2346
57939SOL    HW180867   6.388   4.040   2.302  0.2542 -0.4553  0.9150
57939SOL    HW280868   6.423   3.898   2.343  0.0535 -1.3364 -1.7463
57940SOL     OW80869   1.043   8.361   4.032 -0.1404 -0.7121 -0.1988
57940SOL    HW180870   0.986   8.396   4.100  0.2315  1.0005 -0.7176
57940SOL    HW280871   0.995   8.286   3.996 -1.7602  0.2909 -0.1901
57941SOL     OW80872  11.227   2.285   1.241 -0.2023  0.2236  0.0138
57941SOL    HW180873  11.313   2.290   1.284 -0.8352 -1.0034  1.5396
57941SOL    HW280874  11.242   2.234   1.162  0.4452 -0.1284  0.3590
57942SOL     OW80875  10.743  11.791   7.270 -0.5406  0.3021  0.2793
57942SOL    HW180876  10.773  11.701   7.282 -1.4394  0.2299  2.3837
57942SOL    HW280877  10.648  11.785   7.268 -0.5960  1.1503 -0.1560
57943SOL     OW80878  12.093   4.278   2.201 -0.3149 -0.7037  0.3464
57943SOL    HW180879  12.009   4.306   2.236 -0.0896  1.1578 -0.4773
57943SOL    HW280880  12.106   4.332   2.123  1.0588 -1.8628 -0.2929
57944SOL     OW80881   4.346   7.600   5.880  0.6086 -0.1045  0.2656
57944SOL    HW180882   4.283   7.530   5.899  0.6989 -1.7537 -4.2745
57944SOL    HW280883   4.421   7.554   5.840  2.8046  2.2368  1.4148
57945SOL     OW80884   4.803   1.954   5.639  0.3075 -0.0342 -0.4546
57945SOL    HW180885   4.842   2.029   5.592  0.1214 -0.5130 -1.4035
57945SOL    HW280886   4.857   1.879   5.612 -0.9789 -0.6329 -1.4548
57946SOL     OW80887   0.836  11.364   3.214 -0.5370  0.4435 -0.2665
57946SOL    HW180888   0.742  11.363   3.234 -0.9749 -0.1298 -2.2070
57946SOL    HW280889   0.844  11.318   3.131  1.4046  1.0953 -0.4932
57947SOL     OW80890   3.193  10.985   0.943 -0.6402 -0.9009  0.4602
57947SOL    HW180891   3.164  11.069   0.909  0.9022 -0.8331 -0.8603
57947SOL    HW280892   3.113  10.932   0.950 -1.2463 -0.5006 -2.2307
57948SOL     OW80893   3.312   3.866   5.895  0.5892 -0.3864  0.1719
57948SOL    HW180894   3.239   3.882   5.956 -0.1022  0.4017 -0.8195
57948SOL    HW280895   3.387   3.910   5.936  0.5712 -1.3745  1.3007
57949SOL     OW80896   5.451   7.490   3.917 -0.4331 -0.2152 -0.0161
57949SOL    HW180897   5.542   7.466   3.898 -0.1004  1.7162 -1.2301
57949SOL    HW280898   5.452   7.516   4.009  0.7381  1.5951 -0.4871
57950SOL     OW80899   6.302  10.319  11.268 -0.0364 -0.2257  0.9565
57950SOL    HW180900   6.226  10.262  11.264  0.1277 -0.3562 -1.1646
57950SOL    HW280901   6.359  10.289  11.197  1.2108  0.9835  1.3915
57951SOL     OW80902   8.659  11.392  11.339 -0.4519  0.2952  0.4310
57951SOL    HW180903   8.730  11.328  11.338  0.4926  1.2996 -0.4853
57951SOL    HW280904   8.614  11.378  11.422  0.3527 -0.8763  0.6873
57952SOL     OW80905   4.014   1.177   2.100  0.0363  0.3762 -0.1876
57952SOL    HW180906   4.033   1.158   2.191 -0.6055  0.4980 -0.0259
57952SOL    HW280907   4.014   1.091   2.057  0.2271  0.3094 -0.0586
57953SOL     OW80908   6.686   8.221   8.476  0.5611  0.6128  0.8192
57953SOL    HW180909   6.596   8.253   8.470  0.4012  0.1247  0.5624
57953SOL    HW280910   6.736   8.296   8.509  0.0202  0.8132  1.2113
57954SOL     OW80911   6.665   4.287   7.785  0.4734 -0.4971 -0.0139
57954SOL    HW180912   6.583   4.296   7.737  0.3769 -2.0211 -0.2043
57954SOL    HW280913   6.646   4.322   7.872 -0.0737  0.0774 -0.3590
57955SOL     OW80914  11.121   8.191   0.650  0.0675  0.3879 -0.2403
57955SOL    HW180915  11.092   8.099   0.647  0.7485  0.1806 -1.1841
57955SOL    HW280916  11.155   8.207   0.562  1.8047  0.9233  0.4846
57956SOL     OW80917   5.540  10.160  10.430  0.0698  0.0809 -0.7242
57956SOL    HW180918   5.487  10.105  10.488  0.2528 -0.0251 -0.6562
57956SOL    HW280919   5.630  10.148  10.460  0.2030 -0.2203 -1.2234
57957SOL     OW80920   7.129   9.848   7.902 -0.2967  0.3641  0.2939
57957SOL    HW180921   7.082   9.926   7.932 -1.4661  0.1526 -0.8901
57957SOL    HW280922   7.080   9.819   7.825  0.9277 -0.7506 -0.0980
57958SOL     OW80923   8.365   5.062   2.281  0.7852  0.7117 -0.5210
57958SOL    HW180924   8.322   5.025   2.359  0.5730 -0.9622 -1.3819
57958SOL    HW280925   8.403   5.144   2.312  1.8831 -0.5362  1.7051
57959SOL     OW80926   0.106   5.349   2.150 -0.0182  0.4700  0.0591
57959SOL    HW180927   0.193   5.335   2.186 -0.4960 -0.0428  1.0405
57959SOL    HW280928   0.096   5.445   2.148  0.2157  0.5185  0.8282
57960SOL     OW80929   1.359   6.454   0.183  0.3260  0.2117 -0.1287
57960SOL    HW180930   1.308   6.442   0.263 -1.0391 -1.5564 -1.1812
57960SOL    HW280931   1.308   6.410   0.115  2.2794  0.1410 -1.6501
57961SOL     OW80932   1.525   0.441  12.501 -0.3200  0.4862  0.0566
57961SOL    HW180933   1.609   0.451  12.457  0.5875 -0.9598  1.3721
57961SOL    HW280934   1.510   0.525  12.545  0.9824  0.4040  0.6881
57962SOL     OW80935  12.066   0.439   4.188  0.0010 -0.4466 -0.3138
57962SOL    HW180936  12.028   0.487   4.114  0.1068 -1.9532 -1.3768
57962SOL    HW280937  12.002   0.371   4.208  1.2430 -1.8269 -0.8945
57963SOL     OW80938   9.202   7.070   8.115 -0.1925  0.0857 -0.2278
57963SOL    HW180939   9.277   7.049   8.060 -0.7431 -2.6929 -0.0658
57963SOL    HW280940   9.156   6.986   8.125 -2.8065  1.4990  0.4247
57964SOL     OW80941   7.135   1.057   5.447 -0.1146  0.3417 -0.4136
57964SOL    HW180942   7.156   1.044   5.355 -1.6903 -0.7726 -0.6595
57964SOL    HW280943   7.063   1.120   5.446 -0.9221 -0.5579 -0.0353
57965SOL     OW80944   1.252   6.411  11.984  0.2571  0.3210 -0.4545
57965SOL    HW180945   1.294   6.328  12.007  0.6316  0.5110 -0.4376
57965SOL    HW280946   1.220   6.446  12.067  0.3937  0.3482 -0.4122
57966SOL     OW80947  11.639  10.364   8.355  0.0988 -0.0967 -0.2816
57966SOL    HW180948  11.678  10.371   8.443 -1.4916  1.9907  0.3391
57966SOL    HW280949  11.689  10.425   8.302 -1.6668  2.0608  0.3508
57967SOL     OW80950   6.743   7.675   1.426 -0.2181  0.1224 -0.3985
57967SOL    HW180951   6.805   7.620   1.379 -0.7568 -0.3799 -0.5329
57967SOL    HW280952   6.658   7.634   1.410 -0.6290  1.0223 -0.5296
57968SOL     OW80953   8.406   8.552   8.887  0.2615 -0.0533 -0.2708
57968SOL    HW180954   8.312   8.561   8.874  0.2127  0.2071  0.2290
57968SOL    HW280955   8.437   8.507   8.808 -0.2500  0.0219 -0.5194
57969SOL     OW80956   5.877  10.354   7.906  0.4147 -0.0734 -0.2022
57969SOL    HW180957   5.906  10.330   7.818  0.6420  0.2852 -0.2221
57969SOL    HW280958   5.812  10.422   7.892 -0.6437 -1.0382 -0.1756
57970SOL     OW80959   0.925   1.284  11.623  0.6163  0.0080  0.1900
57970SOL    HW180960   0.843   1.236  11.636  0.8343 -0.4609 -0.1258
57970SOL    HW280961   0.920   1.356  11.685  0.0444 -0.1193  0.3029
57971SOL     OW80962   9.849  11.887   2.257  0.0456 -0.1379  0.4328
57971SOL    HW180963   9.870  11.977   2.284 -0.1861  0.3653 -0.9651
57971SOL    HW280964   9.890  11.878   2.171 -1.1850 -0.8608 -0.1050
57972SOL     OW80965   9.086   5.903   9.950  0.3971 -0.1145 -0.5281
57972SOL    HW180966   9.122   5.989   9.972 -1.3395  0.6007 -0.2923
57972SOL    HW280967   9.140   5.841   9.999  0.0423  1.0553  1.4690
57973SOL     OW80968   9.440  12.234   5.077 -0.0428  0.3712  0.0537
57973SOL    HW180969   9.461  12.247   5.169  0.9355  2.5011 -0.4146
57973SOL    HW280970   9.477  12.148   5.056  2.0271  0.9691  1.0459
57974SOL     OW80971   4.044   9.027   7.843 -0.4297 -0.2316 -0.3601
57974SOL    HW180972   4.135   9.022   7.873 -0.5904  0.7135  0.3211
57974SOL    HW280973   4.002   8.949   7.879 -0.4828  0.5888  1.4502
57975SOL     OW80974   4.001   7.987   5.295  0.1000 -0.1478  0.0456
57975SOL    HW180975   3.931   8.047   5.322  0.3144  1.0193 -1.7870
57975SOL    HW280976   3.956   7.915   5.252 -0.0881 -0.6596  1.0772
57976SOL     OW80977   3.464  12.336  10.291 -0.4315  0.0196 -0.1085
57976SOL    HW180978   3.533  12.359  10.353 -1.7776  0.4252  1.3101
57976SOL    HW280979   3.507  12.336  10.206  0.9524  1.9027  0.5265
57977SOL     OW80980  11.425   5.630   3.190  0.1537 -0.0439 -0.5783
57977SOL    HW180981  11.416   5.581   3.271  1.2066 -0.0040 -0.4336
57977SOL    HW280982  11.342   5.616   3.145 -0.2315 -0.5097  0.2539
57978SOL     OW80983  11.636   2.821   3.720 -0.1337  0.2417  0.0918
57978SOL    HW180984  11.600   2.878   3.788 -0.1716 -0.6340  0.8171
57978SOL    HW280985  11.561   2.802   3.664 -0.9531 -1.8418  1.7824
57979SOL     OW80986   7.327   5.766  11.378 -0.1567  0.2412  0.0043
57979SOL    HW180987   7.294   5.777  11.467 -0.1055  0.8543 -0.0491
57979SOL    HW280988   7.397   5.831  11.370  0.6252 -0.5951 -0.0979
57980SOL     OW80989   2.090   2.832   3.047  0.6369 -0.5182  0.0684
57980SOL    HW180990   2.090   2.753   2.992  0.4692 -1.6738  1.6766
57980SOL    HW280991   2.019   2.885   3.011  1.8968 -0.2141 -2.1899
57981SOL     OW80992   3.434   4.389   8.942  0.4809 -0.3934  0.2825
57981SOL    HW180993   3.386   4.463   8.980 -1.1774 -1.6250  0.7099
57981SOL    HW280994   3.406   4.314   8.994  1.9290 -1.3741 -0.3049
57982SOL     OW80995   4.173   2.961   1.487  0.2672 -0.3566  0.2702
57982SOL    HW180996   4.246   3.011   1.524  1.0551 -0.7866 -0.6309
57982SOL    HW280997   4.095   2.998   1.527  0.8289  1.5455 -0.2849
57983SOL     OW80998  10.811   7.619   6.923  0.4711  0.0441 -0.0434
57983SOL    HW180999  10.756   7.692   6.895 -0.3844 -0.9269 -0.9827
57983SOL    HW281000  10.856   7.591   6.843 -0.5391 -1.5481 -0.1015
57984SOL     OW81001   6.367   4.117  11.587 -0.0647  0.1580  0.1847
57984SOL    HW181002   6.285   4.068  11.591 -0.6405  1.0937  0.2064
57984SOL    HW281003   6.352   4.183  11.520  0.7217  0.2550  0.1004
57985SOL     OW81004   9.450   6.975   5.347  0.1075  0.2293 -0.2848
57985SOL    HW181005   9.521   7.019   5.393  0.4865 -0.2287 -0.4236
57985SOL    HW281006   9.401   7.046   5.305  1.0243  0.4907 -0.9432
57986SOL     OW81007   8.641   4.690   4.134 -0.5924 -0.4134 -0.2559
57986SOL    HW181008   8.581   4.688   4.060  0.9180 -0.4068 -1.5307
57986SOL    HW281009   8.671   4.599   4.143  1.2446  0.0291 -1.4163
57987SOL     OW81010   7.617   0.168  10.253  0.0271 -0.3134  0.0413
57987SOL    HW181011   7.639   0.075  10.247 -0.9593 -0.7157  1.8057
57987SOL    HW281012   7.686   0.205  10.309  1.4945  0.4755 -2.1558
57988SOL     OW81013  11.586   8.251  11.055  0.0880  0.2349 -0.2491
57988SOL    HW181014  11.491   8.265  11.053 -0.0100 -0.4397 -0.3708
57988SOL    HW281015  11.619   8.320  11.112 -0.7423 -1.0424  1.8772
57989SOL     OW81016  12.089   0.616   3.107 -0.4083  0.3169 -0.0801
57989SOL    HW181017  12.123   0.661   3.029 -0.7541 -0.3753 -0.6341
57989SOL    HW281018  12.070   0.528   3.077  1.5550 -0.6487  1.3091
57990SOL     OW81019   6.826   4.183   4.433 -0.0309 -0.6320  0.1567
57990SOL    HW181020   6.882   4.173   4.356  0.0224  0.5950  0.0139
57990SOL    HW281021   6.883   4.225   4.498  0.0093 -1.8918  0.9859
57991SOL     OW81022  12.302   8.295   7.726 -0.0960  0.0999  0.5386
57991SOL    HW181023  12.376   8.275   7.670  0.1268 -0.2306  0.9447
57991SOL    HW281024  12.336   8.357   7.790 -1.1078  2.9587 -1.5064
57992SOL     OW81025   5.760   1.449  11.854 -0.9028  0.1933  0.3419
57992SOL    HW181026   5.853   1.461  11.870 -0.5436 -1.4091 -0.3187
57992SOL    HW281027   5.752   1.449  11.759 -1.7279  1.2191  0.3945
57993SOL     OW81028  12.195  11.415   9.054  0.5630  0.1952  0.3601
57993SOL    HW181029  12.198  11.510   9.061  3.2329  0.2529 -0.3042
57993SOL    HW281030  12.284  11.390   9.028 -0.4144 -2.3719 -0.9453
57994SOL     OW81031   1.077   5.413  11.735  0.6528  0.0142  0.3052
57994SOL    HW181032   1.116   5.352  11.671  0.4683  0.2194 -0.0063
57994SOL    HW281033   0.998   5.445  11.692 -0.5143 -1.2718  1.3864
57995SOL     OW81034   5.589  11.150   5.265 -0.0799 -0.3225  0.0833
57995SOL    HW181035   5.619  11.060   5.259  0.1457 -0.2567  0.2095
57995SOL    HW281036   5.496  11.146   5.244  0.2448 -0.3699 -1.4710
57996SOL     OW81037   2.729   8.369   4.074 -0.2998 -0.6294 -0.1227
57996SOL    HW181038   2.822   8.378   4.097 -0.8442 -0.3055  2.1677
57996SOL    HW281039   2.721   8.277   4.046  0.4857 -1.0450  0.9177
57997SOL     OW81040   5.550   7.690   0.011  0.0259  0.1473  0.2090
57997SOL    HW181041   5.550   7.741   0.092  3.1893 -0.4038  0.7095
57997SOL    HW281042   5.565   7.600   0.041 -2.7602 -0.7378 -0.8149
57998SOL     OW81043   1.507   7.324   7.805  0.1620 -0.5352 -0.4184
57998SOL    HW181044   1.412   7.316   7.801  0.2792 -1.5996 -1.4911
57998SOL    HW281045   1.539   7.234   7.809  1.2045 -0.3166 -2.5706
57999SOL     OW81046   8.495   1.131  11.306  0.0317 -0.4478 -0.8071
57999SOL    HW181047   8.422   1.074  11.280  0.5324 -1.4425 -0.1331
57999SOL    HW281048   8.572   1.086  11.272  0.4653 -0.3827  0.0695
58000SOL     OW81049   1.236   3.325  11.698  0.1886  0.3652 -0.4987
58000SOL    HW181050   1.273   3.360  11.779 -0.6486  2.6331 -1.0382
58000SOL    HW281051   1.311   3.288  11.652  0.6892 -0.8961  1.2327
58001SOL     OW81052   2.132   8.273   3.331  0.1233 -0.2855 -0.3879
58001SOL    HW181053   2.192   8.345   3.347 -0.4307  0.0999  0.0072
58001SOL    HW281054   2.062   8.311   3.277 -0.0656 -0.5760 -0.3512
58002SOL     OW81055   7.061   4.874   1.161  0.3846  0.4709 -0.0246
58002SOL    HW181056   7.135   4.911   1.112  0.9687  3.8307  3.0095
58002SOL    HW281057   7.090   4.786   1.185  1.6439  0.1876 -2.2370
58003SOL     OW81058   5.958   7.696   1.293  0.3221  0.5212 -1.1295
58003SOL    HW181059   5.977   7.736   1.378 -1.4948 -1.4819  0.3416
58003SOL    HW281060   5.921   7.767   1.241  0.4704  1.5691  0.1450
58004SOL     OW81061   9.411   4.609   6.668 -0.4733  0.9717 -0.0579
58004SOL    HW181062   9.403   4.545   6.598  0.6166  0.7049  0.0425
58004SOL    HW281063   9.505   4.626   6.675 -0.4617  0.3769  1.8657
58005SOL     OW81064   4.617   4.221  11.300 -0.2513  0.0672  0.1213
58005SOL    HW181065   4.529   4.229  11.263 -0.2102 -0.4612 -0.1074
58005SOL    HW281066   4.642   4.310  11.325 -0.7670  0.2481 -0.0080
58006SOL     OW81067   7.101  11.989   4.743 -0.2768 -0.0605  0.5202
58006SOL    HW181068   7.139  11.933   4.810 -0.0979  0.4142  0.8144
58006SOL    HW281069   7.099  11.934   4.664  0.3414 -0.3193  0.6858
58007SOL     OW81070   4.084   0.923  12.257  0.0043 -0.5482 -0.1261
58007SOL    HW181071   4.010   0.910  12.198 -0.4548 -1.6584  0.6483
58007SOL    HW281072   4.150   0.861  12.225  0.8473  0.8107 -1.1427
58008SOL     OW81073  10.003  11.060   8.928 -0.8067  0.2640 -0.1158
58008SOL    HW181074  10.041  11.072   9.014 -0.6956  1.4781 -0.3258
58008SOL    HW281075   9.938  10.990   8.940 -2.4999  2.0116  1.5045
58009SOL     OW81076   2.114   8.697   4.060  0.2123  0.5397 -0.5397
58009SOL    HW181077   2.050   8.641   4.104  1.7082 -0.5799  0.3092
58009SOL    HW281078   2.114   8.667   3.969 -0.5479  0.6461 -0.5796
58010SOL     OW81079   3.663   2.568   3.222 -0.0759  0.0631 -0.1133
58010SOL    HW181080   3.649   2.527   3.137  1.5754  0.6209 -0.6930
58010SOL    HW281081   3.576   2.600   3.247 -0.7715 -0.9420 -1.1345
58011SOL     OW81082   9.337   7.493   5.218 -0.3126  0.3453 -0.3779
58011SOL    HW181083   9.397   7.535   5.280  0.8629 -0.9884 -0.5747
58011SOL    HW281084   9.359   7.532   5.133  0.9989 -0.8120 -0.6142
58012SOL     OW81085   4.993  11.946   7.115 -0.5626 -0.5919 -0.3534
58012SOL    HW181086   5.062  12.009   7.093  0.2078 -1.4576 -0.4415
58012SOL    HW281087   5.028  11.861   7.089 -1.6921 -1.0457 -0.4611
58013SOL     OW81088   8.083  11.794   0.645  0.6795 -0.8537  0.3087
58013SOL    HW181089   8.022  11.738   0.693 -2.1559  1.5709 -0.1077
58013SOL    HW281090   8.132  11.841   0.713 -0.3419 -0.4443  0.7822
58014SOL     OW81091   5.059  11.429   2.300 -0.0261  0.1783 -0.0281
58014SOL    HW181092   5.019  11.343   2.286  0.8124 -0.8087  2.8787
58014SOL    HW281093   5.138  11.427   2.247 -0.4862 -0.4596 -0.7131
58015SOL     OW81094  10.713   1.099   8.948  0.1287  0.5895  0.1842
58015SOL    HW181095  10.756   1.177   8.983  1.3817  0.5799 -1.2444
58015SOL    HW281096  10.671   1.128   8.868  0.3607 -0.1277 -0.2093
58016SOL     OW81097   6.956   8.585   9.406 -0.3878 -0.0162 -0.2830
58016SOL    HW181098   6.998   8.519   9.462  0.1024 -0.0794 -0.7126
58016SOL    HW281099   7.000   8.667   9.428 -0.8337  0.1251  0.0830
58017SOL     OW81100   9.816   8.118   5.095  0.7926  0.4807  0.5809
58017SOL    HW181101   9.826   8.027   5.067  0.8818  0.9966 -1.2296
58017SOL    HW281102   9.871   8.125   5.173  0.1779 -1.1844  1.2228
58018SOL     OW81103   1.343   7.189  12.312  0.2624 -0.1171 -0.4799
58018SOL    HW181104   1.425   7.217  12.271  1.4459 -0.8603  1.2651
58018SOL    HW281105   1.343   7.094  12.303 -0.4866 -0.1088 -0.5966
58019SOL     OW81106   2.406   3.847  10.519  0.2281 -0.2609  0.2491
58019SOL    HW181107   2.454   3.853  10.436 -0.0943 -0.0655  0.0763
58019SOL    HW281108   2.384   3.938  10.540 -2.8981 -0.5189 -1.3339
58020SOL     OW81109   0.956   6.281   7.531 -0.2341  0.3350  0.2194
58020SOL    HW181110   1.049   6.300   7.543 -0.2302 -0.5619  1.7025
58020SOL    HW281111   0.948   6.186   7.543 -1.2232  0.2739 -0.7273
58021SOL     OW81112  12.100   0.242   6.884 -0.5684 -0.2160  0.1700
58021SOL    HW181113  12.126   0.209   6.970  0.1026  0.4079  0.2191
58021SOL    HW281114  12.007   0.222   6.878 -0.4859 -0.8327  0.7783
58022SOL     OW81115   6.845   9.622   3.358 -0.1019 -0.6672 -0.2636
58022SOL    HW181116   6.792   9.553   3.320 -0.3465 -0.5036 -0.2174
58022SOL    HW281117   6.810   9.703   3.322 -1.3081 -0.3835  1.4112
58023SOL     OW81118   5.885  12.293   7.316  0.1352 -0.0672 -0.0180
58023SOL    HW181119   5.944  12.242   7.372  1.0917  0.8467 -0.1599
58023SOL    HW281120   5.929  12.296   7.231 -1.5228 -1.8374 -1.0290
58024SOL     OW81121   1.626   0.457   7.561 -0.8784 -0.1398 -0.2756
58024SOL    HW181122   1.585   0.459   7.475 -4.5359 -0.1901  1.2893
58024SOL    HW281123   1.612   0.368   7.593  0.1411 -0.0422  0.5166
58025SOL     OW81124   4.630   2.612   3.930  0.5243  0.4058  0.1567
58025SOL    HW181125   4.635   2.613   4.026  0.5929 -1.0769  0.1795
58025SOL    HW281126   4.664   2.698   3.905  3.8493 -0.3894  1.3334
58026SOL     OW81127   3.893   7.776   2.336 -0.6440  0.7856  0.0946
58026SOL    HW181128   3.909   7.695   2.384  1.8243  0.7804 -0.6101
58026SOL    HW281129   3.846   7.749   2.257 -0.9103  0.2055  0.4555
58027SOL     OW81130  12.074   6.476  10.625 -0.0657  0.0541 -0.1284
58027SOL    HW181131  12.031   6.550  10.582 -0.7857 -0.5851 -0.5206
58027SOL    HW281132  12.011   6.445  10.690  0.2181 -0.2315  0.0161
58028SOL     OW81133   9.081   0.355   6.731 -0.3434 -0.3734  0.1514
58028SOL    HW181134   9.127   0.376   6.812 -0.0146  0.5492 -0.2640
58028SOL    HW281135   9.116   0.416   6.666 -0.9947 -0.7296 -0.5571
58029SOL     OW81136   4.651   5.998   4.299  0.4735  0.2378 -0.3702
58029SOL    HW181137   4.597   6.074   4.279 -0.4085 -0.1301  0.5511
58029SOL    HW281138   4.590   5.926   4.311  1.3237 -0.7603 -1.6895
58030SOL     OW81139   2.593  11.472   7.430 -0.2175  0.3118  0.5599
58030SOL    HW181140   2.514  11.455   7.481 -1.2658 -1.3794 -1.4708
58030SOL    HW281141   2.650  11.522   7.489 -1.0406 -2.0423  3.6143
58031SOL     OW81142   7.043   2.196   8.110 -0.0335  0.0928 -0.1629
58031SOL    HW181143   7.037   2.280   8.065  0.9450 -0.3506 -1.1444
58031SOL    HW281144   7.120   2.204   8.166  1.1745 -0.7386 -1.6155
58032SOL     OW81145   1.860   5.199   2.578  0.7332 -0.5222  0.0301
58032SOL    HW181146   1.799   5.211   2.505  1.4843  0.0925 -0.5031
58032SOL    HW281147   1.867   5.104   2.588  0.3602 -0.6035 -0.4661
58033SOL     OW81148  10.038  12.571  11.397  0.2336  0.0958 -0.0906
58033SOL    HW181149   9.984  12.642  11.362  1.8007  1.1835 -0.4250
58033SOL    HW281150   9.989  12.492  11.376 -1.0587  1.0040 -0.6794
58034SOL     OW81151   7.707   6.911  11.531 -0.9220  0.2072 -0.3670
58034SOL    HW181152   7.683   6.877  11.445  0.6043  1.9525 -1.5656
58034SOL    HW281153   7.640   6.977  11.550 -0.3804  0.9732 -1.0192
58035SOL     OW81154   4.294   4.358   3.087 -0.5754 -0.0770 -0.1622
58035SOL    HW181155   4.327   4.274   3.119  1.0245 -0.4006 -2.4546
58035SOL    HW281156   4.339   4.423   3.142  0.5301 -0.6543 -0.3444
58036SOL     OW81157   6.840   4.305   2.297  0.7466  0.2347 -0.0828
58036SOL    HW181158   6.786   4.334   2.223  0.1143 -0.2392  0.1754
58036SOL    HW281159   6.916   4.264   2.257  0.5415  0.2246 -0.4678
58037SOL     OW81160   5.743  10.168   0.620  0.1269 -0.3709  0.4317
58037SOL    HW181161   5.739  10.128   0.533  0.3009  1.6040 -0.5539
58037SOL    HW281162   5.832  10.150   0.650  0.8590  0.8934 -0.8534
58038SOL     OW81163   1.419   3.409   6.410  0.8867 -0.3254 -0.9182
58038SOL    HW181164   1.411   3.345   6.480  0.2660  1.0312  0.2961
58038SOL    HW281165   1.514   3.421   6.399  0.9936 -0.8682 -0.6116
58039SOL     OW81166   4.124  10.969   2.367 -0.2363  0.0419 -0.1471
58039SOL    HW181167   4.102  11.038   2.429 -0.0374 -0.9043  1.0015
58039SOL    HW281168   4.157  11.016   2.290 -0.6487  1.2384  0.3764
58040SOL     OW81169   9.381  11.802   1.008  0.0923 -0.0705  0.1414
58040SOL    HW181170   9.317  11.734   1.028  2.4055 -2.9013 -1.3981
58040SOL    HW281171   9.415  11.829   1.093  0.5576 -2.3536  0.7296
58041SOL     OW81172  12.564   7.055   5.121 -0.6326  0.6504  0.0501
58041SOL    HW181173  12.586   6.977   5.071 -0.5328 -0.8215  2.2343
58041SOL    HW281174  12.470   7.047   5.138 -0.4788  0.5855  0.9270
58042SOL     OW81175   3.295  10.165   7.891 -0.6774 -0.3419  0.3522
58042SOL    HW181176   3.215  10.204   7.855 -0.6358 -1.3319 -0.9063
58042SOL    HW281177   3.365  10.225   7.865 -1.0583  1.0325  2.2765
58043SOL     OW81178   6.287   5.407  12.535 -0.1828  0.0442 -0.1221
58043SOL    HW181179   6.328   5.321  12.528 -3.1214 -1.5501  0.5412
58043SOL    HW281180   6.299   5.432  12.627 -0.7103 -0.4312  0.0787
58044SOL     OW81181   9.080   1.862   4.772 -0.4359 -0.3074 -0.3695
58044SOL    HW181182   9.174   1.882   4.776 -0.7010  1.0020 -0.2374
58044SOL    HW281183   9.047   1.886   4.859 -0.9113 -0.6649 -0.4504
58045SOL     OW81184  10.673   9.269   2.163  0.5979  0.2603  1.1800
58045SOL    HW181185  10.684   9.177   2.140  0.6828  0.4358  0.4950
58045SOL    HW281186  10.669   9.314   2.079  2.9182  1.1712  1.4995
58046SOL     OW81187   3.618   6.919   2.373  0.4133 -0.1670  0.0025
58046SOL    HW181188   3.646   6.861   2.303  2.0287  0.2299  0.2732
58046SOL    HW281189   3.697   6.934   2.425  0.1996  2.6450 -0.3307
58047SOL     OW81190   0.916   9.913   8.295 -0.9976 -0.0677 -0.5304
58047SOL    HW181191   0.871   9.988   8.257 -1.7691  1.1748  2.5430
58047SOL    HW281192   1.007   9.941   8.305 -0.9268 -0.1788 -0.8247
58048SOL     OW81193  10.165   0.109   8.201  0.1468 -0.4019 -0.2386
58048SOL    HW181194  10.218   0.176   8.159  0.0351 -0.2017 -0.0612
58048SOL    HW281195  10.166   0.035   8.139  0.6839 -0.4271 -0.2068
58049SOL     OW81196  11.193   8.499   7.702  0.4832  0.1210  0.5885
58049SOL    HW181197  11.184   8.575   7.759  0.1435 -0.2742  1.0766
58049SOL    HW281198  11.239   8.531   7.625  0.0796  0.8878  0.6592
58050SOL     OW81199   3.292   0.036   4.140 -0.1386 -0.2126  0.0627
58050SOL    HW181200   3.375   0.075   4.111  0.1923 -0.8440  0.1490
58050SOL    HW281201   3.315  -0.015   4.217 -1.0408  1.5814  1.5848
58051SOL     OW81202  11.611   2.665   6.521 -0.2612 -0.0659 -0.3172
58051SOL    HW181203  11.631   2.572   6.513  0.5452  0.2613 -3.1823
58051SOL    HW281204  11.523   2.674   6.485  0.1906  0.4051 -1.3611
58052SOL     OW81205   5.975   2.406   4.013  0.0236  0.0044 -0.3047
58052SOL    HW181206   5.944   2.424   4.102 -1.0616  0.5203 -0.7671
58052SOL    HW281207   6.036   2.333   4.023  1.7380  1.5288  1.1702
58053SOL     OW81208   3.466   3.045  11.503  0.7119 -0.2229 -0.4204
58053SOL    HW181209   3.442   2.952  11.503  1.4609 -0.5272  2.6223
58053SOL    HW281210   3.556   3.046  11.535  0.1695  1.5872  1.2330
58054SOL     OW81211   7.162  10.087   2.000 -0.3587  0.1924 -0.8827
58054SOL    HW181212   7.167  10.164   2.056 -3.1778 -0.0343 -0.1699
58054SOL    HW281213   7.140  10.122   1.913  0.3558  0.3117 -1.0171
58055SOL     OW81214   0.514   9.155   9.040  0.3819  0.3679  0.0709
58055SOL    HW181215   0.597   9.203   9.037 -1.0747  3.0704 -2.7513
58055SOL    HW281216   0.452   9.220   9.073 -1.1962 -0.4382 -1.2045
58056SOL     OW81217   3.335   9.408   5.228  0.9225 -0.0230 -0.3271
58056SOL    HW181218   3.376   9.389   5.143  0.2588 -0.0704 -0.6429
58056SOL    HW281219   3.308   9.322   5.261  0.5104  0.0678 -0.4181
58057SOL     OW81220  12.405  10.142   2.416 -1.2093 -0.0765 -0.0742
58057SOL    HW181221  12.364  10.187   2.341  0.2418  3.6205  1.1298
58057SOL    HW281222  12.498  10.142   2.395 -0.9913 -0.9788  0.8314
58058SOL     OW81223   3.163   9.138  11.569  0.0779  0.4071 -0.0017
58058SOL    HW181224   3.215   9.059  11.587 -0.2698  0.4996  1.5348
58058SOL    HW281225   3.074   9.115  11.597 -0.3828  0.8221 -1.0477
58059SOL     OW81226   6.168   0.250  11.293 -0.3162 -0.2138  0.1386
58059SOL    HW181227   6.200   0.166  11.324  0.4373 -0.7823 -2.0182
58059SOL    HW281228   6.223   0.315  11.337  1.3227 -1.0224 -0.6346
58060SOL     OW81229   7.862   3.037   2.060  0.0524 -0.1948 -0.0405
58060SOL    HW181230   7.811   3.091   1.999  0.7298  0.3027 -0.1782
58060SOL    HW281231   7.928   3.097   2.096  0.3278 -0.7430  0.3892
58061SOL     OW81232   8.721  10.032   5.967 -0.3154  0.1040 -0.5122
58061SOL    HW181233   8.688   9.958   6.018 -1.0351  1.0835  0.5183
58061SOL    HW281234   8.806  10.053   6.007 -0.5553  0.4190 -0.1452
58062SOL     OW81235  10.163   0.608   8.750  0.4118  0.2761 -0.3248
58062SOL    HW181236  10.092   0.553   8.715  1.9805 -0.6141 -2.3276
58062SOL    HW281237  10.166   0.684   8.691  0.8596  0.5084 -0.0118
58063SOL     OW81238   5.358   6.044   3.844 -0.1824 -0.0231  0.5809
58063SOL    HW181239   5.412   6.068   3.768 -0.1715 -1.8705 -0.0642
58063SOL    HW281240   5.331   5.954   3.825 -0.7195 -0.2932  2.4879
58064SOL     OW81241   9.848   3.624   3.680  0.0222  0.1949  0.4140
58064SOL    HW181242   9.892   3.672   3.750  0.4647  1.6971 -0.8295
58064SOL    HW281243   9.906   3.551   3.661  1.0860  1.1070  0.0467
58065SOL     OW81244   0.298   5.730   6.378 -0.6156 -1.0089 -0.0562
58065SOL    HW181245   0.233   5.741   6.309 -1.4766 -0.1914  0.8577
58065SOL    HW281246   0.346   5.813   6.379 -0.8475 -0.8760  0.5495
58066SOL     OW81247  10.599  12.132   1.266  0.4170  1.0377 -0.3942
58066SOL    HW181248  10.506  12.146   1.286  0.0370 -0.6468 -0.8378
58066SOL    HW281249  10.632  12.219   1.244 -1.7890  1.3220 -3.1396
58067SOL     OW81250   5.981   8.938   6.294 -0.0137 -0.0361  0.5320
58067SOL    HW181251   6.061   8.980   6.262 -0.3574  0.8052  0.7497
58067SOL    HW281252   5.912   8.968   6.234 -0.4282  0.4746  1.2542
58068SOL     OW81253  10.149   7.497   4.533  0.1573 -0.5053  0.3929
58068SOL    HW181254  10.094   7.507   4.454  0.3417 -0.2629  0.2971
58068SOL    HW281255  10.106   7.427   4.582 -0.5282  0.0256  0.5642
58069SOL     OW81256   0.365   9.246   8.122  0.8842  0.4195 -0.2741
58069SOL    HW181257   0.307   9.233   8.198 -0.2249  2.4040 -0.7279
58069SOL    HW281258   0.451   9.259   8.160  0.5318  0.3199  0.5886
58070SOL     OW81259   9.232   9.408   0.037 -0.4263 -0.8042  0.0883
58070SOL    HW181260   9.276   9.476  -0.014 -1.0485 -0.0130  0.5699
58070SOL    HW281261   9.214   9.338  -0.026  1.0897 -0.9511 -0.2059
58071SOL     OW81262  11.646   5.743  11.699  0.0641 -0.1599 -0.4213
58071SOL    HW181263  11.627   5.797  11.775 -1.7090 -0.5918 -0.5024
58071SOL    HW281264  11.660   5.655  11.734  0.4955 -0.1168 -0.4867
58072SOL     OW81265   0.618   9.486  12.421  0.3081 -0.3859  0.1385
58072SOL    HW181266   0.653   9.445  12.342 -0.9107  0.4518 -0.8771
58072SOL    HW281267   0.679   9.558  12.440  0.6286 -0.6205  0.0024
58073SOL     OW81268  10.815  11.308   3.751 -0.4496  0.2736  0.3620
58073SOL    HW181269  10.834  11.340   3.840  0.8896  1.5802 -0.3537
58073SOL    HW281270  10.745  11.244   3.764  1.3649 -1.4261  2.6546
58074SOL     OW81271   7.723   0.231   5.270  0.1676  0.4494  0.8711
58074SOL    HW181272   7.699   0.315   5.310  0.2512  0.5541  0.7018
58074SOL    HW281273   7.646   0.207   5.218 -0.4750 -0.3444  2.1406
58075SOL     OW81274   5.529   2.336   3.822  0.6080  0.1985  0.5605
58075SOL    HW181275   5.524   2.242   3.804  2.5189  0.4903 -2.0033
58075SOL    HW281276   5.549   2.341   3.915  2.0703 -2.0237  0.4479
58076SOL     OW81277   7.207   8.649   2.183  0.8602  0.6965 -0.1663
58076SOL    HW181278   7.292   8.680   2.211  0.6984  0.9537  0.0459
58076SOL    HW281279   7.155   8.644   2.263  0.9864 -0.4748 -0.1309
58077SOL     OW81280   1.642   8.592  12.424 -0.0882 -0.4269 -0.1281
58077SOL    HW181281   1.569   8.647  12.453 -1.6699 -1.9858 -0.9269
58077SOL    HW281282   1.628   8.509  12.469  0.2932 -1.2542 -1.4770
58078SOL     OW81283   1.227  11.914  11.243 -0.0447  0.5736  0.2124
58078SOL    HW181284   1.137  11.883  11.248 -0.0818  0.8939  2.2450
58078SOL    HW281285   1.241  11.961  11.325  1.6472  1.4541 -0.5320
58079SOL     OW81286   5.780   2.388   9.387  0.5692 -0.3177 -0.1146
58079SOL    HW181287   5.719   2.343   9.328  0.4445 -2.6641  1.6530
58079SOL    HW281288   5.845   2.321   9.410  1.0500  0.7300  1.7832
58080SOL     OW81289   5.225   6.027  11.675  0.5522 -0.1355 -0.2651
58080SOL    HW181290   5.189   5.957  11.728  2.1421 -0.0609  1.0080
58080SOL    HW281291   5.237   6.100  11.737 -0.3092  1.0023 -1.3801
58081SOL     OW81292   0.086  10.880   2.663  0.3374 -0.1852  0.1477
58081SOL    HW181293   0.042  10.965   2.664  0.2189 -0.2254 -0.8191
58081SOL    HW281294   0.173  10.897   2.701 -0.2120  0.0478  1.3477
58082SOL     OW81295   9.345   0.072   3.010 -0.0834  0.2713 -0.7662
58082SOL    HW181296   9.318   0.095   2.922  1.4652  0.4839 -1.2078
58082SOL    HW281297   9.279   0.010   3.040  0.2395 -1.0745 -2.6887
58083SOL     OW81298   2.134   5.876   5.644  0.4465 -0.2406  0.4422
58083SOL    HW181299   2.148   5.895   5.737 -0.3614 -2.0159  0.9612
58083SOL    HW281300   2.045   5.842   5.639 -0.0761  1.2337 -1.2367
58084SOL     OW81301   1.580   0.703  11.359 -0.7194 -0.3864 -0.2129
58084SOL    HW181302   1.495   0.723  11.321 -1.3022 -0.3176  1.0678
58084SOL    HW281303   1.636   0.777  11.336 -1.3112  0.0841 -0.1375
58085SOL     OW81304   1.533   2.252  10.925  0.2651 -0.0545  0.3459
58085SOL    HW181305   1.540   2.252  11.020 -0.9534 -0.6633  0.4495
58085SOL    HW281306   1.443   2.281  10.907  0.2332 -0.6810 -0.5938
58086SOL     OW81307   2.014  12.268   6.218 -0.4860 -0.3365  0.2949
58086SOL    HW181308   1.962  12.214   6.279 -2.6117 -0.3810 -1.4291
58086SOL    HW281309   1.981  12.244   6.132  1.5008  0.7094 -0.8083
58087SOL     OW81310   4.844   6.345   3.177 -0.1459 -0.5789 -0.6747
58087SOL    HW181311   4.937   6.333   3.161 -0.3726 -1.8648 -1.2390
58087SOL    HW281312   4.805   6.349   3.089 -0.4857  1.4984 -0.4811
58088SOL     OW81313   8.509   0.611   4.145  0.4280 -0.5800  0.2289
58088SOL    HW181314   8.471   0.538   4.194  0.2338 -0.3762  0.3830
58088SOL    HW281315   8.565   0.656   4.208 -1.6145  1.0760  0.9807
58089SOL     OW81316   1.580   0.028   6.005  0.0803  0.2143  0.0940
58089SOL    HW181317   1.492   0.064   6.003 -0.0515 -0.0979  0.2715
58089SOL    HW281318   1.636   0.103   6.025 -0.3621  0.0176  2.3093
58090SOL     OW81319   2.409  10.250   0.146  0.2317  0.1083 -0.2712
58090SOL    HW181320   2.478  10.214   0.201  1.6035  1.7727 -0.7893
58090SOL    HW281321   2.454  10.313   0.090 -1.3302 -0.5296 -2.3690
58091SOL     OW81322   4.317   7.811   9.462  0.4304  0.1053 -0.2632
58091SOL    HW181323   4.348   7.833   9.550 -0.4837  1.4069 -0.2414
58091SOL    HW281324   4.240   7.866   9.449 -0.0328 -0.7907 -1.5088
58092SOL     OW81325   6.845  12.049   0.006  0.0368  0.3750 -0.2744
58092SOL    HW181326   6.790  12.103   0.062 -1.3230 -0.5468 -0.6909
58092SOL    HW281327   6.790  12.028  -0.070  1.2491  0.1436 -1.1199
58093SOL     OW81328   2.232   7.583  12.306  0.0429 -0.4639 -0.5907
58093SOL    HW181329   2.247   7.504  12.254 -2.2155 -2.1145  1.0753
58093SOL    HW281330   2.145   7.613  12.282 -1.2894 -1.5423  2.3852
58094SOL     OW81331   7.428   0.769   0.735 -0.0798  0.2656 -0.2725
58094SOL    HW181332   7.369   0.695   0.745  0.6328 -0.1184  1.5297
58094SOL    HW281333   7.375   0.845   0.759  0.5986 -0.2943  3.8207
58095SOL     OW81334  12.489  11.572  12.069 -0.4566 -0.0883  0.0442
58095SOL    HW181335  12.431  11.647  12.062 -1.0640 -0.6659 -1.7130
58095SOL    HW281336  12.436  11.505  12.112 -1.1704 -0.6274 -1.5922
58096SOL     OW81337   8.280   4.703   3.668 -0.2221 -0.3221 -0.7549
58096SOL    HW181338   8.197   4.749   3.683 -0.6107 -1.7084  1.9438
58096SOL    HW281339   8.255   4.619   3.628 -0.1935 -0.8984  0.4034
58097SOL     OW81340   3.743  10.921   3.669  0.0300 -0.7493 -0.4524
58097SOL    HW181341   3.754  10.880   3.583  3.0055 -0.0544 -0.5124
58097SOL    HW281342   3.819  10.892   3.720 -0.7969  0.1571  1.3957
58098SOL     OW81343   4.163   8.687  11.552  0.5320  0.7146 -0.0676
58098SOL    HW181344   4.087   8.681  11.493  0.2972  0.5893  0.2427
58098SOL    HW281345   4.190   8.778  11.546  0.8698  0.5762 -0.8090
58099SOL     OW81346  11.111   0.502   4.356  0.0192 -0.0981 -0.3191
58099SOL    HW181347  11.203   0.528   4.352  0.3119 -1.0649 -0.1448
58099SOL    HW281348  11.085   0.525   4.445 -0.0161  0.4906 -0.4736
58100SOL     OW81349   9.796   7.772   4.037 -0.0660  0.2329  0.0507
58100SOL    HW181350   9.869   7.822   4.074  0.3365  0.4538 -0.9980
58100SOL    HW281351   9.836   7.723   3.965 -0.8406 -0.1003 -0.1587
58101SOL     OW81352   7.699   2.516   6.729  0.0786  0.1003  0.4766
58101SOL    HW181353   7.636   2.450   6.700 -1.2332  0.8702  1.5079
58101SOL    HW281354   7.760   2.467   6.784 -0.9567 -0.2552  1.3374
58102SOL     OW81355   4.192  11.006   0.430  0.3628 -0.4006 -0.1616
58102SOL    HW181356   4.121  10.942   0.425 -1.1541  1.1673  0.4793
58102SOL    HW281357   4.188  11.039   0.520  1.1970  0.5117 -0.4469
58103SOL     OW81358   0.969   8.204   7.957 -0.0540  0.3273  0.3172
58103SOL    HW181359   0.883   8.197   7.917  0.9479 -2.4724 -1.6749
58103SOL    HW281360   1.028   8.228   7.885  1.0326  0.9214  1.3537
58104SOL     OW81361   7.878  11.286  12.359 -0.7105 -0.3517 -0.7199
58104SOL    HW181362   7.929  11.289  12.440 -0.9859  0.4424 -0.5675
58104SOL    HW281363   7.795  11.244  12.385 -0.7237 -0.2732 -0.6360
58105SOL     OW81364   7.956  12.083   0.130  0.4964  0.5588 -0.1454
58105SOL    HW181365   8.051  12.076   0.133  0.3820 -3.1437  0.0544
58105SOL    HW281366   7.928  12.065   0.220 -0.3982 -0.7187 -0.6515
58106SOL     OW81367   9.241  10.212   0.609 -0.4160 -0.1201 -0.2374
58106SOL    HW181368   9.176  10.231   0.677 -0.5897  0.9175 -0.6815
58106SOL    HW281369   9.297  10.144   0.648  0.3545  1.4451  1.5244
58107SOL     OW81370   5.208   8.168  12.334  0.7182  0.2950  0.3089
58107SOL    HW181371   5.158   8.240  12.297 -1.1985 -0.3232  1.4967
58107SOL    HW281372   5.233   8.198  12.422  0.3351 -0.2681  0.6226
58108SOL     OW81373   9.180   1.116   3.981 -0.1303  0.1728 -0.4075
58108SOL    HW181374   9.145   1.112   3.892  1.4756  0.2791 -1.0826
58108SOL    HW281375   9.261   1.065   3.977  0.1350  0.4511  0.9116
58109SOL     OW81376  10.227   6.982  12.559 -0.0643 -0.2573  0.8160
58109SOL    HW181377  10.210   7.074  12.538  1.7153  0.1588  0.9980
58109SOL    HW281378  10.318   6.968  12.531 -0.7742 -2.4314 -0.7119
58110SOL     OW81379   7.557  12.221   1.858  0.0639 -0.6781 -0.0089
58110SOL    HW181380   7.641  12.261   1.834 -0.5150  0.8199  0.3511
58110SOL    HW281381   7.563  12.207   1.952  0.2328 -1.4325 -0.1192
58111SOL     OW81382   1.987   5.559   8.951  0.0570 -0.4793  0.6120
58111SOL    HW181383   1.903   5.595   8.920  1.5422  2.7032 -0.1408
58111SOL    HW281384   2.017   5.503   8.881 -0.1032  0.7559 -0.4838
58112SOL     OW81385   0.911   8.298   1.294 -0.2934  0.4658 -0.2614
58112SOL    HW181386   0.980   8.257   1.242  0.7471  0.0438  1.3909
58112SOL    HW281387   0.884   8.230   1.356  1.5670  2.1766  2.6476
58113SOL     OW81388   5.315  10.366   0.835 -0.0866  0.6113 -0.3757
58113SOL    HW181389   5.298  10.460   0.831  1.6208  1.0178  0.8725
58113SOL    HW281390   5.410  10.359   0.846  0.0571 -1.3283 -2.2314
58114SOL     OW81391  10.733   3.095   9.363 -0.0644 -0.3144 -0.1238
58114SOL    HW181392  10.748   3.054   9.448  0.6376  0.8478  0.3342
58114SOL    HW281393  10.793   3.051   9.304  0.6866  0.0489  0.3612
58115SOL     OW81394   5.889   9.771   8.768  0.5487 -0.0430 -0.6893
58115SOL    HW181395   5.872   9.848   8.715 -1.9791  1.2512  1.7325
58115SOL    HW281396   5.977   9.785   8.803  0.5781  1.1535 -1.2050
58116SOL     OW81397   0.280   5.370  11.321  0.1554 -0.0589  0.8507
58116SOL    HW181398   0.347   5.438  11.326  0.3530 -0.1527 -0.3007
58116SOL    HW281399   0.199   5.417  11.306  0.2387 -0.0481  0.4204
58117SOL     OW81400   0.667   0.213   8.390  0.1595 -0.0723 -0.2884
58117SOL    HW181401   0.746   0.160   8.379  0.3894 -0.1095  1.2654
58117SOL    HW281402   0.696   0.289   8.440 -0.9859 -0.7205  1.4652
58118SOL     OW81403   8.545  12.382   0.931  0.1170  0.8911 -0.0841
58118SOL    HW181404   8.640  12.373   0.932  0.0848  0.5570  0.0831
58118SOL    HW281405   8.530  12.477   0.936  0.4513  1.0070 -1.0982
58119SOL     OW81406   4.203   2.692   8.507 -0.1302  0.6171  0.0661
58119SOL    HW181407   4.256   2.748   8.564  0.2670  0.4504 -0.1335
58119SOL    HW281408   4.167   2.626   8.566 -1.6796  1.8282  0.5401
58120SOL     OW81409   5.984   3.577   4.486  0.1515 -0.6609  0.3798
58120SOL    HW181410   6.023   3.638   4.423  1.5584 -0.3995  1.4355
58120SOL    HW281411   6.017   3.606   4.571 -0.1748 -2.1313  1.0476
58121SOL     OW81412   1.990   0.405   4.222  0.0763 -0.9700  0.1607
58121SOL    HW181413   1.963   0.497   4.218  0.2902 -0.9289 -2.6697
58121SOL    HW281414   1.926   0.363   4.279 -2.6454  0.2033 -1.8292
58122SOL     OW81415   9.345   1.295   5.089 -0.3783  0.4714  0.2009
58122SOL    HW181416   9.363   1.340   5.007  1.1272 -1.0216 -0.3237
58122SOL    HW281417   9.379   1.354   5.157 -0.4462  1.1038 -0.3087
58123SOL     OW81418   8.666   1.488  11.999  0.0641 -0.4238 -0.3699
58123SOL    HW181419   8.721   1.562  12.027 -0.6718  0.1332 -0.3576
58123SOL    HW281420   8.599   1.528  11.943 -0.8601 -0.9519  0.3337
58124SOL     OW81421   9.745  11.865  12.252  0.8403 -0.5579 -0.7806
58124SOL    HW181422   9.757  11.776  12.218  0.1017 -1.5007  1.2266
58124SOL    HW281423   9.650  11.876  12.257  0.8698  1.1135 -2.7388
58125SOL     OW81424   1.130   7.685   2.162  0.1653 -0.1659 -0.4401
58125SOL    HW181425   1.054   7.718   2.115  0.7537 -0.1767 -1.4255
58125SOL    HW281426   1.121   7.590   2.160  0.6972 -0.2056 -1.4225
58126SOL     OW81427  12.289  12.398  11.096  0.3444 -0.2116 -0.5236
58126SOL    HW181428  12.368  12.401  11.152  2.2687 -1.2069 -2.9994
58126SOL    HW281429  12.293  12.478  11.045 -0.0924 -0.4160 -0.8775
58127SOL     OW81430  12.052   8.356   8.165 -0.3181  0.2122 -0.2930
58127SOL    HW181431  12.027   8.339   8.256  1.6865  0.6740  0.4142
58127SOL    HW281432  12.086   8.273   8.134  0.7261  0.5000  0.0303
58128SOL     OW81433  11.197   0.550   9.106  0.3093 -0.3211  0.4628
58128SOL    HW181434  11.229   0.520   9.190 -1.1584 -0.5771  0.9672
58128SOL    HW281435  11.199   0.473   9.050 -1.9363 -1.0728  1.2931
58129SOL     OW81436   6.010  10.101   8.836  0.1606  0.2245 -0.2586
58129SOL    HW181437   6.099  10.099   8.871  0.5284  2.1485 -0.9396
58129SOL    HW281438   6.020  10.078   8.744  0.0919  1.1349 -0.5095
58130SOL     OW81439   3.806  11.602   8.078  0.0995 -0.1466 -0.2619
58130SOL    HW181440   3.900  11.585   8.089  0.1577 -0.0691 -0.6344
58130SOL    HW281441   3.769  11.517   8.055  0.1040 -0.1456 -0.2701
58131SOL     OW81442   5.958  12.444   1.050  0.1313 -0.5036 -0.5835
58131SOL    HW181443   6.053  12.435   1.051  0.1253 -0.8858  1.6832
58131SOL    HW281444   5.929  12.390   0.976  1.6763 -0.2323 -1.4115
58132SOL     OW81445  10.425   6.283   3.757 -0.3638 -0.0677  0.0873
58132SOL    HW181446  10.452   6.282   3.665 -0.0692  1.2090  0.1425
58132SOL    HW281447  10.503   6.256   3.805 -0.2727  0.0574  0.0110
58133SOL     OW81448  11.178   2.653   2.331  0.3854 -0.8278 -0.0519
58133SOL    HW181449  11.144   2.565   2.346 -0.9248 -0.4595 -0.6935
58133SOL    HW281450  11.220   2.648   2.245  0.7645 -0.9434  0.1370
58134SOL     OW81451   6.564   0.038  12.547 -0.4766 -0.0303 -0.1093
58134SOL    HW181452   6.565   0.066  12.455  1.0195 -0.3231 -0.2143
58134SOL    HW281453   6.610   0.107  12.594 -0.9956 -0.0140  0.3816
58135SOL     OW81454   3.692   8.454  12.152  0.0828  0.8075 -0.2025
58135SOL    HW181455   3.743   8.475  12.073  2.3295  0.3405  1.0419
58135SOL    HW281456   3.753   8.468  12.224 -1.3821 -0.4165  1.3459
58136SOL     OW81457   5.973   0.375  10.470 -0.7681  0.1924  0.4514
58136SOL    HW181458   6.006   0.286  10.458  1.9758  0.8853  1.8879
58136SOL    HW281459   5.982   0.392  10.564 -0.8362  2.0920  0.1678
58137SOL     OW81460   6.973   8.515   2.755  0.6000 -0.3977  0.0003
58137SOL    HW181461   6.896   8.542   2.705  0.8628 -2.5358 -1.6912
58137SOL    HW281462   7.046   8.560   2.712  0.5368 -0.0371  0.2633
58138SOL     OW81463   5.312   9.557   6.218  0.1070  0.3077  0.6052
58138SOL    HW181464   5.316   9.635   6.163 -2.3435  0.8108  1.0146
58138SOL    HW281465   5.238   9.507   6.184 -2.1016  1.0774  3.8351
58139SOL     OW81466   2.834   8.031   0.664 -0.2782 -0.2082  0.1492
58139SOL    HW181467   2.776   8.060   0.735  0.4709 -0.6654  0.9715
58139SOL    HW281468   2.866   8.112   0.625 -1.3347  0.0472 -0.2059
58140SOL     OW81469  12.061   6.082   8.165  0.1664  0.3561 -0.1227
58140SOL    HW181470  12.005   6.007   8.145  0.6475 -0.3732  1.1161
58140SOL    HW281471  12.105   6.058   8.246  1.3988  1.4115 -0.4454
58141SOL     OW81472   1.306   3.582   4.490 -0.3731 -0.3518 -0.1562
58141SOL    HW181473   1.369   3.517   4.520  1.1887  1.5237  0.8335
58141SOL    HW281474   1.343   3.617   4.409 -0.1496  0.6616  0.3577
58142SOL     OW81475   1.803   4.872   3.238  0.1468  0.1277  0.4615
58142SOL    HW181476   1.859   4.794   3.237 -0.2534 -0.1601 -0.6126
58142SOL    HW281477   1.863   4.945   3.254  0.9463 -0.1012 -1.3021
58143SOL     OW81478   2.183  10.695   3.714  0.0720  0.7101  0.6121
58143SOL    HW181479   2.189  10.629   3.783 -0.5257  0.4251  0.4037
58143SOL    HW281480   2.173  10.778   3.761  1.8638  0.7963  0.8890
58144SOL     OW81481  12.397   4.619   4.606  0.1649 -0.1899 -0.0624
58144SOL    HW181482  12.445   4.693   4.643 -1.7795  0.9310  0.3614
58144SOL    HW281483  12.430   4.543   4.654  0.7029  0.6715  0.9855
58145SOL     OW81484   8.325   7.951   6.912  0.1079  0.4816  0.0264
58145SOL    HW181485   8.375   7.886   6.863  1.4657  0.9605  0.7349
58145SOL    HW281486   8.369   8.034   6.895 -0.5773  0.9585  0.5078
58146SOL     OW81487   7.627   1.019   5.626  0.6846  0.0507 -0.3023
58146SOL    HW181488   7.613   1.075   5.702 -0.4271 -0.9683  0.2792
58146SOL    HW281489   7.694   1.064   5.575 -1.0398  2.5715 -0.5180
58147SOL     OW81490   9.998   7.436  10.507 -0.5466  0.4761  0.0726
58147SOL    HW181491   9.970   7.494  10.577  1.7862  1.9075 -0.0567
58147SOL    HW281492  10.009   7.350  10.549 -4.4560 -0.1489  0.1702
58148SOL     OW81493   5.915  10.151   4.502  0.2188  0.0095 -0.4429
58148SOL    HW181494   5.839  10.130   4.556  1.2385  0.6324  1.3385
58148SOL    HW281495   5.979  10.083   4.523  0.3134 -0.2995 -1.6419
58149SOL     OW81496   7.185   1.979   7.440 -0.1750 -0.0315 -0.6796
58149SOL    HW181497   7.141   2.015   7.517 -0.9963 -3.6110  0.7108
58149SOL    HW281498   7.277   1.971   7.465 -0.2031  0.0183 -0.5637
58150SOL     OW81499   1.420   3.738   0.412 -0.4652 -0.4296 -0.1780
58150SOL    HW181500   1.459   3.684   0.481 -0.4807 -1.2244 -0.7860
58150SOL    HW281501   1.436   3.690   0.331 -0.5811  0.4212 -0.7248
58151SOL     OW81502   4.139   3.036   0.253 -0.0759 -0.2734 -0.0104
58151SOL    HW181503   4.052   3.075   0.257  0.8089  1.8839 -0.0636
58151SOL    HW281504   4.170   3.037   0.344  1.2784  2.5987 -0.3835
58152SOL     OW81505   7.865   5.492  10.865 -0.0761  0.0009  0.1227
58152SOL    HW181506   7.928   5.481  10.937  0.1956 -1.3759 -0.3012
58152SOL    HW281507   7.780   5.499  10.909  0.2868  1.2252  0.6661
58153SOL     OW81508   2.736   5.620  12.174 -0.6809  0.1226  0.4539
58153SOL    HW181509   2.755   5.541  12.123  1.0589  0.9023 -0.1750
58153SOL    HW281510   2.666   5.663  12.125  0.6761  0.6462 -1.1172
58154SOL     OW81511   8.598   7.008   1.460  0.2551 -0.7683 -0.4651
58154SOL    HW181512   8.643   7.080   1.417 -0.3939  0.6910  1.1591
58154SOL    HW281513   8.506   7.017   1.433  0.0676 -0.5881  0.1959
58155SOL     OW81514   1.874   0.788  10.558 -0.0075 -0.1717 -0.0965
58155SOL    HW181515   1.823   0.849  10.611 -0.5981  0.0988 -0.9606
58155SOL    HW281516   1.947   0.839  10.525  0.9934 -0.6181  1.3346
58156SOL     OW81517   4.158   6.680   1.620  0.0078 -0.1675 -0.0429
58156SOL    HW181518   4.245   6.706   1.651 -0.0322 -0.1438  0.0510
58156SOL    HW281519   4.151   6.587   1.641  0.4909 -0.4737 -1.1721
58157SOL     OW81520   9.925  11.023   8.378 -0.0400  0.2210 -0.0979
58157SOL    HW181521   9.979  11.100   8.360 -0.4107  0.8899  1.4799
58157SOL    HW281522   9.839  11.046   8.343 -0.0035  0.2718 -0.1544
58158SOL     OW81523   4.357   5.255   1.259  0.2509  0.4119  0.1021
58158SOL    HW181524   4.273   5.245   1.304 -0.8838 -0.6551 -2.1303
58158SOL    HW281525   4.335   5.296   1.175  2.1124  0.9815 -0.1545
58159SOL     OW81526   3.741  11.895   7.049  0.4010  0.5672 -0.0436
58159SOL    HW181527   3.811  11.924   7.108 -0.7600 -1.3547  2.4644
58159SOL    HW281528   3.661  11.908   7.099 -0.4370 -3.7851  0.0931
58160SOL     OW81529   4.125  10.265   6.016 -0.0729  0.1056 -0.6474
58160SOL    HW181530   4.043  10.301   5.983  0.3042  0.4062 -1.2859
58160SOL    HW281531   4.191  10.330   5.992  0.3935 -0.2780 -0.4149
58161SOL     OW81532   0.728   3.756   1.047 -0.1707 -0.4962 -0.3481
58161SOL    HW181533   0.669   3.720   1.113 -0.5468 -1.1656 -1.0373
58161SOL    HW281534   0.672   3.810   0.991  0.0840 -0.2035 -0.3234
58162SOL     OW81535   6.584   9.903  10.750 -0.5488 -0.0392 -0.0157
58162SOL    HW181536   6.639   9.901  10.672 -1.2054 -0.3237 -0.4742
58162SOL    HW281537   6.638   9.864  10.819  0.4777  1.3036 -0.0244
58163SOL     OW81538   4.909   4.584   3.422 -0.0001  0.1962 -0.6171
58163SOL    HW181539   4.830   4.619   3.462  0.9918 -0.4675  2.1951
58163SOL    HW281540   4.893   4.490   3.417 -0.3350  0.3252 -2.4586
58164SOL     OW81541   8.915   4.226   6.447  0.0396  0.1662  0.5354
58164SOL    HW181542   8.905   4.271   6.363  0.5984  1.2712  1.0366
58164SOL    HW281543   8.988   4.166   6.434 -1.2327 -1.2737 -0.3928
58165SOL     OW81544   4.871   9.384   0.807  0.7028 -0.1067 -0.4266
58165SOL    HW181545   4.807   9.329   0.853  1.0157  0.7567  1.1052
58165SOL    HW281546   4.850   9.373   0.715 -1.5962  0.0655  0.0267
58166SOL     OW81547   6.514   5.097   4.812  0.1986  0.1307  0.1316
58166SOL    HW181548   6.557   5.017   4.841  0.1745  0.4041  0.9519
58166SOL    HW281549   6.432   5.067   4.773  0.0221 -0.2294  0.7621
58167SOL     OW81550   5.789  11.377   8.164 -0.3217  0.1511 -0.1862
58167SOL    HW181551   5.856  11.446   8.162  0.9360 -1.0219 -0.5320
58167SOL    HW281552   5.838  11.297   8.144 -2.1511 -0.5186 -2.4017
58168SOL     OW81553  11.945   4.409   1.096  0.2470  0.0562 -0.4214
58168SOL    HW181554  11.885   4.337   1.078  0.5438 -0.5453  0.8942
58168SOL    HW281555  11.949   4.458   1.013 -1.6217 -0.1780 -0.6903
58169SOL     OW81556  11.901   0.007   3.706  0.1935  0.6790 -0.4120
58169SOL    HW181557  11.812   0.007   3.742  0.2540 -3.0299  0.0873
58169SOL    HW281558  11.889   0.018   3.612 -1.2264 -2.9925 -0.8116
58170SOL     OW81559   7.119   0.119   1.958  0.3386 -0.0956  0.4641
58170SOL    HW181560   7.142   0.064   1.883 -1.6317 -0.7182  0.2549
58170SOL    HW281561   7.121   0.058   2.033  0.5570  0.1167  0.6319
58171SOL     OW81562   6.557   4.736   5.763  0.6350  0.1749  0.3810
58171SOL    HW181563   6.635   4.683   5.746  1.4859  1.4623  0.1657
58171SOL    HW281564   6.499   4.678   5.812  0.9117 -1.4507 -1.1008
58172SOL     OW81565   8.962   4.628   4.086  0.3708  0.3612 -0.8294
58172SOL    HW181566   9.009   4.629   4.169 -1.4328 -1.1250  0.3012
58172SOL    HW281567   8.899   4.700   4.093  0.7884  0.7828 -1.3008
58173SOL     OW81568   6.835   1.422   7.963  0.4098 -0.4476  0.0582
58173SOL    HW181569   6.913   1.424   7.908 -0.0087 -0.3637 -0.5431
58173SOL    HW281570   6.867   1.442   8.051  1.1011 -0.6945 -0.1343
58174SOL     OW81571  10.425   4.032   4.855  0.1846  0.0461 -0.3767
58174SOL    HW181572  10.504   4.031   4.801 -1.0153  1.6584 -2.2713
58174SOL    HW281573  10.403   4.125   4.864 -0.0045 -0.1871  2.4728
58175SOL     OW81574   0.453   5.946   6.309 -0.1777 -0.2967 -0.3947
58175SOL    HW181575   0.546   5.967   6.311  0.3849 -2.4502 -0.9969
58175SOL    HW281576   0.413   6.018   6.261  1.1117  0.7930  0.0904
58176SOL     OW81577  10.642   1.106   5.863 -0.3102  0.2096 -0.4825
58176SOL    HW181578  10.720   1.160   5.879 -0.1515 -0.4667  1.3714
58176SOL    HW281579  10.602   1.097   5.950 -2.3293  0.3152 -1.3541
58177SOL     OW81580   9.414   5.634   9.573 -0.3183  0.6458  0.3550
58177SOL    HW181581   9.424   5.550   9.617  0.9699  0.0445 -1.0143
58177SOL    HW281582   9.335   5.624   9.520  0.3195 -0.0271 -0.4817
58178SOL     OW81583   3.063   7.967   0.786  0.1139  0.6223 -0.2774
58178SOL    HW181584   2.977   7.954   0.746 -0.2379  1.9651 -0.0099
58178SOL    HW281585   3.121   7.907   0.739 -0.8341  0.1612 -0.8951
58179SOL     OW81586  12.205  11.290   7.230  0.5737  0.5239 -0.2184
58179SOL    HW181587  12.271  11.317   7.293 -0.5416 -1.0794  1.7482
58179SOL    HW281588  12.219  11.195   7.220  0.4149  0.6509 -2.0484
58180SOL     OW81589  10.169  12.455   8.645  0.5299 -0.3633 -0.0282
58180SOL    HW181590  10.101  12.451   8.713  2.6641  2.3983  2.5994
58180SOL    HW281591  10.171  12.547   8.619  1.8607 -0.7912 -1.5865
58181SOL     OW81592  10.455   0.603   7.394 -0.1718 -0.2772  0.5209
58181SOL    HW181593  10.475   0.575   7.304  0.8560 -0.3992  0.7741
58181SOL    HW281594  10.486   0.531   7.448 -0.9854 -0.2950  0.9721
58182SOL     OW81595   3.954   7.527  10.913  0.4408  0.1557  0.3107
58182SOL    HW181596   3.880   7.502  10.967 -0.9741  2.3561 -0.4857
58182SOL    HW281597   3.999   7.594  10.964  2.5954 -1.8443  1.2408
58183SOL     OW81598   6.346   6.727   3.735 -0.3897 -0.8067 -0.1026
58183SOL    HW181599   6.407   6.694   3.800 -0.7828 -0.7378  0.3050
58183SOL    HW281600   6.279   6.659   3.727 -0.5004 -0.6862 -0.2193
58184SOL     OW81601   1.372  10.630   8.636  0.3573 -0.5099 -0.2581
58184SOL    HW181602   1.467  10.628   8.642  0.5227  2.0305 -0.9936
58184SOL    HW281603   1.341  10.618   8.726  1.3946 -0.2151  0.1479
58185SOL     OW81604   1.990   1.675   7.966 -0.1118  0.1727 -0.6158
58185SOL    HW181605   2.004   1.743   7.901 -0.3168  2.0563  1.2087
58185SOL    HW281606   2.018   1.714   8.049 -1.2818 -1.5668  0.6824
58186SOL     OW81607   4.993   6.039  12.412 -0.0305 -0.6263  0.5688
58186SOL    HW181608   5.079   6.031  12.370 -0.0876 -0.4804  0.4226
58186SOL    HW281609   5.003   6.113  12.472 -0.7643  1.0556 -1.2535
58187SOL     OW81610  10.219   1.417   7.330 -0.2565 -0.0620 -0.1714
58187SOL    HW181611  10.247   1.366   7.406 -1.3262 -0.5501 -0.0797
58187SOL    HW281612  10.281   1.490   7.326  1.3380 -1.3565 -0.3184
58188SOL     OW81613   1.648   0.573   3.139 -0.2569  0.0446 -0.5423
58188SOL    HW181614   1.687   0.640   3.196  0.5613 -0.5120 -0.4256
58188SOL    HW281615   1.651   0.493   3.190 -2.1874  0.0944 -0.2933
58189SOL     OW81616  12.247   4.880   0.038 -0.0814 -0.0532 -0.5524
58189SOL    HW181617  12.158   4.912   0.026 -0.4591 -0.8548  0.0532
58189SOL    HW281618  12.240   4.785   0.036  0.7582 -0.1304 -0.4746
58190SOL     OW81619   6.244  12.306   4.430  0.4861  0.3019 -1.0076
58190SOL    HW181620   6.226  12.400   4.430 -0.4682  0.2151  2.0580
58190SOL    HW281621   6.319  12.297   4.489 -0.3155 -0.9639 -0.1506
58191SOL     OW81622   2.233  10.321   7.986 -0.3260  0.0826 -0.6518
58191SOL    HW181623   2.252  10.324   8.080 -0.7964 -0.9739 -0.4994
58191SOL    HW281624   2.293  10.384   7.947  0.0472  0.3608  0.3295
58192SOL     OW81625  11.321   1.293  11.956  0.6378 -0.4387 -0.4954
58192SOL    HW181626  11.281   1.345  12.026  1.7038 -1.0941  0.6488
58192SOL    HW281627  11.408   1.331  11.945  0.7344 -0.7919 -0.9873
58193SOL     OW81628   6.945   0.680   7.442 -0.5875  0.1111  0.4760
58193SOL    HW181629   6.916   0.628   7.517  0.0619 -0.3324  0.4326
58193SOL    HW281630   7.040   0.680   7.449 -0.5720  1.0899  0.3258
58194SOL     OW81631   4.939   8.372   1.456 -0.2645 -0.2958 -0.0265
58194SOL    HW181632   4.929   8.276   1.455  0.1240 -0.3846 -2.5247
58194SOL    HW281633   5.023   8.387   1.499  0.1786 -1.1860 -0.5348
58195SOL     OW81634   9.443   6.583   8.309 -0.5967  0.0043  0.1253
58195SOL    HW181635   9.459   6.516   8.242 -2.1247  1.2251 -1.5697
58195SOL    HW281636   9.348   6.587   8.316 -0.5293  1.8593  0.3212
58196SOL     OW81637   0.533   3.106   3.481 -0.6683  0.4065 -0.2005
58196SOL    HW181638   0.592   3.176   3.511 -0.2959 -0.5920  1.5631
58196SOL    HW281639   0.458   3.152   3.445  0.3900  1.7128 -0.8364
58197SOL     OW81640   1.584   2.714   6.933 -0.5202 -0.8424  0.2692
58197SOL    HW181641   1.603   2.643   6.993  1.2308 -0.5028  0.1642
58197SOL    HW281642   1.597   2.677   6.846 -0.7413 -0.7028  0.1743
58198SOL     OW81643   1.815   2.553   1.332  0.1077  0.1017  0.4870
58198SOL    HW181644   1.829   2.513   1.418  0.6156  0.7282  0.7034
58198SOL    HW281645   1.757   2.627   1.349  1.1660  0.9617  0.5027
58199SOL     OW81646   7.077   2.112   8.563 -0.6601  0.2733 -0.0643
58199SOL    HW181647   7.035   2.191   8.529  1.1228  0.4415 -2.1427
58199SOL    HW281648   7.088   2.056   8.486  1.2934 -0.4551  0.6688
58200SOL     OW81649   7.631  11.271   7.879 -0.2867  0.1007  0.5131
58200SOL    HW181650   7.713  11.315   7.898 -0.7314  1.7168 -1.0296
58200SOL    HW281651   7.645  11.231   7.793 -0.6062 -1.0082  0.9537
58201SOL     OW81652   3.440   2.717  10.051 -0.1837  0.7858  0.1282
58201SOL    HW181653   3.508   2.750  10.110  0.6479  0.6378 -0.7236
58201SOL    HW281654   3.367   2.778  10.062 -1.1595 -0.6750  3.3005
58202SOL     OW81655   3.794  11.718   1.667 -0.0901  0.2893  0.3160
58202SOL    HW181656   3.712  11.767   1.675  0.5861  1.4762  0.2645
58202SOL    HW281657   3.860  11.777   1.703  0.7769 -0.5552  0.1414
58203SOL     OW81658   3.830   3.393   5.067  0.4025 -0.2725  0.1974
58203SOL    HW181659   3.880   3.465   5.107  1.5611 -0.2051 -1.2659
58203SOL    HW281660   3.739   3.418   5.078  0.7396  0.5876  1.2238
58204SOL     OW81661   6.714   7.871   6.622 -0.1028  0.5582 -0.4944
58204SOL    HW181662   6.737   7.877   6.715 -0.3341  0.6333 -0.4425
58204SOL    HW281663   6.766   7.797   6.590  0.3378  0.8261 -0.4124
58205SOL     OW81664   0.780   8.711  11.724 -0.3981 -0.1114  0.3182
58205SOL    HW181665   0.720   8.781  11.699 -0.0997  0.1884  0.4263
58205SOL    HW281666   0.864   8.755  11.736 -0.4087 -0.3405  1.2835
58206SOL     OW81667  12.214   1.688   6.155 -0.6710  0.6821 -0.4287
58206SOL    HW181668  12.239   1.743   6.230  0.3431  0.7915 -0.8309
58206SOL    HW281669  12.209   1.599   6.191 -0.8566  0.8243 -0.0932
58207SOL     OW81670   5.596  11.983   2.466  0.1221  0.1208  0.1903
58207SOL    HW181671   5.527  11.981   2.531 -0.7308  0.0953 -0.6987
58207SOL    HW281672   5.551  11.980   2.382  1.2099 -0.2705 -0.4080
58208SOL     OW81673   5.045   7.621   0.549 -0.1974 -0.2318  0.0170
58208SOL    HW181674   4.987   7.596   0.477  0.0775 -0.8292 -0.0086
58208SOL    HW281675   4.987   7.652   0.618 -0.4760  0.1380 -0.3825
58209SOL     OW81676   1.288  12.407   7.397  0.1263  0.3976 -0.3275
58209SOL    HW181677   1.383  12.402   7.384  0.2015  1.4086 -0.3063
58209SOL    HW281678   1.252  12.357   7.324  0.6836 -0.8952  0.2600
58210SOL     OW81679   7.555  11.159   4.996 -0.1796  0.3540  0.2559
58210SOL    HW181680   7.550  11.250   4.965  0.1525  0.4976  0.6140
58210SOL    HW281681   7.534  11.166   5.089 -0.9241 -0.0388  0.1270
58211SOL     OW81682  11.490   8.777  10.050  0.0056  0.3023  0.3196
58211SOL    HW181683  11.539   8.839  10.102  0.8870  1.0698 -1.3382
58211SOL    HW281684  11.507   8.803   9.959 -0.7952 -1.4521 -0.3856
58212SOL     OW81685   3.679  12.110   4.278 -0.4689  0.3933  0.0470
58212SOL    HW181686   3.629  12.041   4.322  0.0271 -0.3017 -0.4601
58212SOL    HW281687   3.756  12.122   4.334  0.9651 -1.5920 -1.3495
58213SOL     OW81688   9.427  11.627   8.223 -0.0523 -0.1136  0.7638
58213SOL    HW181689   9.378  11.707   8.243 -0.7897 -0.5165  0.5976
58213SOL    HW281690   9.432  11.580   8.306 -3.4298 -1.9611  0.0829
58214SOL     OW81691   5.192   1.651  10.267 -0.1807  0.1187 -0.3903
58214SOL    HW181692   5.220   1.712  10.335 -0.7785  1.4730 -1.3161
58214SOL    HW281693   5.273   1.612  10.235  0.0578 -1.1255  1.5826
58215SOL     OW81694   1.423   0.456  11.063  0.2573  0.1797 -0.1098
58215SOL    HW181695   1.409   0.496  10.978  0.8882  2.8699  0.9612
58215SOL    HW281696   1.360   0.498  11.121  1.5846  0.3417  1.2878
58216SOL     OW81697   7.446   9.138   4.928  0.1434  0.0014 -0.6152
58216SOL    HW181698   7.409   9.218   4.965 -1.3974 -0.5467 -0.8836
58216SOL    HW281699   7.425   9.144   4.834  0.9077 -0.2402 -0.8021
58217SOL     OW81700   5.599   1.271   3.628 -0.0201 -0.2475 -0.5631
58217SOL    HW181701   5.691   1.249   3.610 -0.0887 -1.3590  0.3499
58217SOL    HW281702   5.551   1.192   3.605 -0.7894  0.3983 -1.2331
58218SOL     OW81703   4.158  10.947   1.173 -0.3086  0.2354 -0.4836
58218SOL    HW181704   4.069  10.932   1.204 -0.4038  0.6357 -0.5553
58218SOL    HW281705   4.189  11.021   1.226  0.9266 -1.5499  1.4153
58219SOL     OW81706   1.446   1.240   6.036 -0.3001  0.3169 -0.0783
58219SOL    HW181707   1.354   1.227   6.011 -0.8227 -0.2871  1.9646
58219SOL    HW281708   1.486   1.154   6.026 -0.4688  0.1135  0.9114
58220SOL     OW81709  12.036  10.846   7.504  0.0173  0.0268 -0.1680
58220SOL    HW181710  11.946  10.817   7.488 -0.0940  0.6750 -0.8001
58220SOL    HW281711  12.062  10.801   7.584 -1.5593  1.3113  1.1463
58221SOL     OW81712   6.782   7.725   3.102  0.0828  0.3720  0.5124
58221SOL    HW181713   6.692   7.703   3.126  0.0884  0.8174  0.9526
58221SOL    HW281714   6.777   7.748   3.009  0.1738 -2.0215 -0.1580
58222SOL     OW81715   1.654   3.332   3.001 -0.5498 -0.2452  0.1858
58222SOL    HW181716   1.562   3.320   3.025 -0.4585  0.2495  0.7933
58222SOL    HW281717   1.659   3.423   2.972 -0.4282 -0.5191 -0.6850
58223SOL     OW81718   6.062   3.026   8.189  0.5789  0.4603 -0.2535
58223SOL    HW181719   6.146   3.072   8.200  1.3396 -0.8874 -0.2369
58223SOL    HW281720   5.999   3.096   8.170  1.5259  1.6012  0.6142
58224SOL     OW81721   1.546   2.209  11.193 -0.2386  0.1871 -0.4222
58224SOL    HW181722   1.462   2.165  11.206 -0.3479  0.6737  0.6512
58224SOL    HW281723   1.605   2.139  11.166 -1.2901  0.0795 -2.7454
58225SOL     OW81724   1.681   1.197   9.522  0.9786 -0.3470  0.3494
58225SOL    HW181725   1.769   1.231   9.540  1.5883 -1.6192 -0.0668
58225SOL    HW281726   1.680   1.183   9.427  0.1435  0.1078  0.2828
58226SOL     OW81727   0.598  12.366   9.573  0.0481 -0.3774 -0.1168
58226SOL    HW181728   0.570  12.332   9.487 -2.7637 -0.5363  0.7569
58226SOL    HW281729   0.621  12.287   9.623 -2.1330 -0.7011  0.4720
58227SOL     OW81730   4.783   3.994   1.948  0.1921 -0.7644  0.1539
58227SOL    HW181731   4.748   3.941   1.877  2.2676 -0.8618 -0.8761
58227SOL    HW281732   4.877   3.981   1.944  0.6268  1.4960  1.0812
58228SOL     OW81733   6.606  12.557   5.322 -0.0466  0.2561  0.1884
58228SOL    HW181734   6.629  12.467   5.345 -3.1294 -0.6260  0.2632
58228SOL    HW281735   6.559  12.549   5.239 -1.2635  1.6529  0.7067
58229SOL     OW81736   8.169   8.419   4.240 -0.3351  0.0508 -0.2442
58229SOL    HW181737   8.238   8.373   4.191 -1.8701 -1.5655 -1.0235
58229SOL    HW281738   8.216   8.486   4.290  1.6569 -0.1938 -1.6259
58230SOL     OW81739  10.201  10.069   8.409  0.2446 -0.2841  0.4031
58230SOL    HW181740  10.161  10.043   8.326 -0.6821  0.0205  0.7324
58230SOL    HW281741  10.273  10.127   8.384 -1.0924  1.2143 -0.1623
58231SOL     OW81742   4.453   8.520   3.570  0.6282  0.5692  0.4179
58231SOL    HW181743   4.434   8.614   3.573  2.1145  0.8670  1.2548
58231SOL    HW281744   4.539   8.511   3.609 -0.4392 -1.4133  2.5978
58232SOL     OW81745   3.590   8.845   6.219  0.1742  0.2694 -0.2924
58232SOL    HW181746   3.605   8.819   6.128 -0.6634 -1.8296  0.1164
58232SOL    HW281747   3.532   8.777   6.254  1.1127  0.5782  2.0280
58233SOL     OW81748   9.985  10.914  12.423 -0.3281 -0.3710  0.0770
58233SOL    HW181749  10.064  10.961  12.395 -0.9400  1.3841  1.1423
58233SOL    HW281750  10.016  10.853  12.490  0.2273 -0.2048 -0.0232
58234SOL     OW81751   2.883   1.263   7.426 -0.1542  0.1951 -0.9876
58234SOL    HW181752   2.825   1.250   7.351 -1.3810 -0.7594  0.0736
58234SOL    HW281753   2.929   1.179   7.435 -1.2451 -0.3238  0.2780
58235SOL     OW81754   0.057   8.546   3.234  0.5610 -0.1543 -0.0241
58235SOL    HW181755   0.017   8.478   3.179 -0.0917 -0.7834  1.1914
58235SOL    HW281756   0.014   8.627   3.207  0.6470 -0.3601 -0.8129
58236SOL     OW81757  12.029  10.749  10.689 -0.1739 -0.0012  0.0606
58236SOL    HW181758  12.065  10.798  10.763 -0.9975 -0.6765  0.9351
58236SOL    HW281759  12.039  10.808  10.614 -2.8845  2.3930  1.3673
58237SOL     OW81760   9.656  10.976   6.343  0.5413  0.3873  0.0992
58237SOL    HW181761   9.679  11.030   6.268  0.1314  1.4815  0.7441
58237SOL    HW281762   9.641  11.038   6.415 -4.4353 -0.0303 -0.1817
58238SOL     OW81763   3.357   1.065  11.681  0.0848 -0.5273  0.2063
58238SOL    HW181764   3.412   1.000  11.725 -0.5966 -0.5684  1.0265
58238SOL    HW281765   3.277   1.069  11.734 -0.7078 -0.4654 -0.9641
58239SOL     OW81766   4.435   2.860  10.029  0.0551  0.4842  0.2039
58239SOL    HW181767   4.486   2.785  10.061  0.5725  1.2057  1.1144
58239SOL    HW281768   4.370   2.876  10.097 -0.8397  0.1307 -0.5434
58240SOL     OW81769   8.884   1.805   2.382  1.0886 -0.3268  0.0148
58240SOL    HW181770   8.936   1.822   2.460  2.1166 -2.0315 -0.2427
58240SOL    HW281771   8.846   1.890   2.359  0.8835  0.2322  2.2411
58241SOL     OW81772   1.824   7.023   6.788 -0.5179  0.3447  0.1451
58241SOL    HW181773   1.754   7.077   6.752  1.3688  2.1261 -1.0658
58241SOL    HW281774   1.870   7.082   6.848  0.7840 -0.3405 -0.1543
58242SOL     OW81775   1.752  11.469   1.486 -0.3884 -0.9186  0.3464
58242SOL    HW181776   1.814  11.425   1.427  0.4500 -0.3671  0.7913
58242SOL    HW281777   1.798  11.548   1.515 -1.5271 -0.1924  0.2459
58243SOL     OW81778   1.924   5.368   0.939 -0.8157 -0.5460  0.5643
58243SOL    HW181779   1.961   5.378   0.851 -1.4047  0.1753  0.3913
58243SOL    HW281780   1.908   5.274   0.947 -1.6746 -0.5035 -0.4888
58244SOL     OW81781   9.118   3.146   6.388 -0.4608 -0.2770 -0.2953
58244SOL    HW181782   9.130   3.199   6.467  2.2491  1.3016 -1.6145
58244SOL    HW281783   9.024   3.149   6.372 -0.9115  0.5685  2.0277
58245SOL     OW81784   6.010   9.218   6.047 -0.4429 -0.3541  0.0588
58245SOL    HW181785   6.076   9.149   6.060 -1.2055 -1.5072 -1.8500
58245SOL    HW281786   5.943   9.199   6.113  1.1214  0.9339  2.1357
58246SOL     OW81787   1.328   6.931   5.487 -0.7131 -0.4623 -0.4476
58246SOL    HW181788   1.396   6.895   5.430 -0.9236 -0.4755 -0.6910
58246SOL    HW281789   1.311   6.861   5.550  0.3761 -0.0140  0.3963
58247SOL     OW81790   5.774   7.842   9.620  0.5054  0.2569  0.4613
58247SOL    HW181791   5.784   7.747   9.611 -0.5239  0.2603 -1.0645
58247SOL    HW281792   5.798   7.877   9.534  1.5571  1.4523  1.2159
58248SOL     OW81793   3.506   9.103   6.044  0.0297 -0.0864 -1.0135
58248SOL    HW181794   3.512   9.145   5.958 -3.5954 -1.7146 -2.2602
58248SOL    HW281795   3.543   9.015   6.030  1.8459  0.4970 -0.1181
58249SOL     OW81796   5.379   5.001   7.942  0.5612  0.2450  0.3238
58249SOL    HW181797   5.308   4.937   7.950  0.4700  0.5101  1.9595
58249SOL    HW281798   5.438   4.963   7.877 -0.4095 -0.6178 -0.0795
58250SOL     OW81799   1.648   2.891   1.006  0.4372 -0.1326  0.5528
58250SOL    HW181800   1.731   2.889   1.053 -1.1319  2.5120  3.8827
58250SOL    HW281801   1.596   2.822   1.047 -0.4915  1.3072  1.9174
58251SOL     OW81802   7.132   1.985  11.674  0.5303 -0.2512  0.0252
58251SOL    HW181803   7.060   2.042  11.701  1.2867  0.2645  0.9988
58251SOL    HW281804   7.126   1.983  11.578 -0.1120  0.6595  0.0326
58252SOL     OW81805   7.186   0.644   0.686  0.1086 -0.2678  0.0317
58252SOL    HW181806   7.129   0.672   0.758  2.1569 -0.2124  1.7438
58252SOL    HW281807   7.131   0.588   0.632 -2.1337  1.4836  0.3736
58253SOL     OW81808   8.452   5.694   6.034  0.0846 -0.2090 -0.1435
58253SOL    HW181809   8.497   5.631   5.977  0.7949 -1.2623  1.4958
58253SOL    HW281810   8.508   5.700   6.112 -1.2548  0.5452  0.8064
58254SOL     OW81811  10.866   7.747   9.267 -0.0365  0.0930  0.1093
58254SOL    HW181812  10.776   7.723   9.243 -0.0531 -1.7643  1.7763
58254SOL    HW281813  10.920   7.698   9.205 -0.1547 -0.5542  0.5087
58255SOL     OW81814   4.499   2.668  12.452  0.1668  0.5928 -0.4697
58255SOL    HW181815   4.563   2.728  12.491 -0.7605  2.3299 -1.5167
58255SOL    HW281816   4.551   2.614  12.392  0.9049  0.8243 -0.0621
58256SOL     OW81817   5.069  11.396   0.644 -0.6251  0.1820  0.5378
58256SOL    HW181818   5.037  11.346   0.569 -0.5484  0.2725  0.4448
58256SOL    HW281819   5.009  11.470   0.651 -0.0202  0.7389 -0.0733
58257SOL     OW81820   0.997   2.966  11.624 -0.1286  0.4329 -0.9849
58257SOL    HW181821   0.924   2.953  11.684 -0.1884  1.5276 -0.8023
58257SOL    HW281822   0.965   2.934  11.540 -0.6718  0.5204 -0.8149
58258SOL     OW81823   4.190   2.134   5.847 -0.2392 -0.5450  0.9268
58258SOL    HW181824   4.096   2.119   5.839  0.0064 -1.1490 -1.4274
58258SOL    HW281825   4.230   2.060   5.802  1.2604  1.6176 -1.5714
58259SOL     OW81826   6.946   8.597   8.915 -0.0367  0.4768  0.4184
58259SOL    HW181827   7.040   8.579   8.917 -0.3921 -2.2436 -1.2374
58259SOL    HW281828   6.921   8.608   9.006  2.1527  3.4249  0.7891
58260SOL     OW81829   2.315   0.561   2.515  0.5156  0.1254  0.4220
58260SOL    HW181830   2.345   0.576   2.425  1.2502  0.1057  0.6604
58260SOL    HW281831   2.220   0.570   2.510  0.4458 -0.8896 -0.5623
58261SOL     OW81832   6.771  11.194   6.824 -0.1951  0.5323 -0.2928
58261SOL    HW181833   6.786  11.119   6.882 -0.1223  1.9791  1.6480
58261SOL    HW281834   6.680  11.185   6.797 -0.8154  0.7921  1.5664
58262SOL     OW81835   4.285  11.133  10.982 -0.2487  0.0655  0.2142
58262SOL    HW181836   4.345  11.183  10.927  0.2074  0.1222  0.7596
58262SOL    HW281837   4.318  11.144  11.071  0.2499 -1.7374  0.2960
58263SOL     OW81838   4.007   1.496  12.398 -0.6168  0.0326 -0.5477
58263SOL    HW181839   4.046   1.437  12.334 -1.8668 -0.2373 -1.0781
58263SOL    HW281840   4.071   1.567  12.407 -0.0269 -0.3788 -1.4273
58264SOL     OW81841   2.776   9.198   4.430  0.0740 -0.2009  0.1239
58264SOL    HW181842   2.788   9.290   4.406  0.1326 -0.1511  0.3391
58264SOL    HW281843   2.681   9.185   4.427  0.1746 -0.8634 -2.5432
58265SOL     OW81844  10.734  12.022   5.585  0.4603  0.8036 -0.1125
58265SOL    HW181845  10.705  12.095   5.531 -1.3027 -0.1853 -0.5747
58265SOL    HW281846  10.771  11.960   5.522  0.1948  0.4819  0.0488
58266SOL     OW81847   2.232   9.315   3.433  0.6642  0.2821  0.0742
58266SOL    HW181848   2.207   9.332   3.342  0.7249  3.1535  0.4837
58266SOL    HW281849   2.150   9.296   3.478  0.3437  0.9836 -0.2042
58267SOL     OW81850  10.845   4.489   2.397 -0.1416  0.4242 -0.7052
58267SOL    HW181851  10.784   4.450   2.334  1.7966  1.9676 -3.7827
58267SOL    HW281852  10.810   4.576   2.414 -1.4096 -0.4397  1.6675
58268SOL     OW81853   1.189   1.785   0.682  0.2766 -0.7037  0.0606
58268SOL    HW181854   1.231   1.817   0.762 -2.6533  1.3863  0.9240
58268SOL    HW281855   1.102   1.757   0.710 -1.1901  0.8922 -2.4391
58269SOL     OW81856   2.129   0.548   5.615 -0.0201  0.9340  0.5193
58269SOL    HW181857   2.127   0.603   5.693  2.2191  1.2821  0.3752
58269SOL    HW281858   2.113   0.459   5.648  0.8570  1.0825  1.3820
58270SOL     OW81859   3.126  10.053   6.737  0.2070  0.5790  0.3983
58270SOL    HW181860   3.200   9.992   6.741 -0.4770 -0.2607  0.4375
58270SOL    HW281861   3.166  10.139   6.752  1.5628  0.4635 -1.9463
58271SOL     OW81862  11.035   8.656  11.857  0.5264 -0.0323 -0.7737
58271SOL    HW181863  11.069   8.672  11.945  0.4752  0.7832 -0.9004
58271SOL    HW281864  10.989   8.736  11.833 -0.2540 -0.5811 -1.1874
58272SOL     OW81865   0.278  12.056   3.006  0.3979  0.1351  0.5075
58272SOL    HW181866   0.225  12.079   2.930 -0.1159  0.4335  0.9483
58272SOL    HW281867   0.295  11.962   2.996  0.4018  0.1871 -0.0106
58273SOL     OW81868   2.251  10.958   3.823  0.1095  0.0603  0.1332
58273SOL    HW181869   2.245  10.917   3.909 -1.4509  1.2459  0.6460
58273SOL    HW281870   2.328  11.013   3.828 -1.3689  2.1580  1.7876
58274SOL     OW81871   3.737   5.770   4.476 -0.1460  0.1872 -0.2745
58274SOL    HW181872   3.718   5.689   4.430  1.5229 -0.7527  0.6122
58274SOL    HW281873   3.809   5.809   4.427 -0.4989  0.8084 -0.3087
58275SOL     OW81874  11.603   9.546   8.285 -0.0837 -0.3072 -0.3437
58275SOL    HW181875  11.662   9.520   8.356  0.8932  0.3544 -0.8976
58275SOL    HW281876  11.515   9.528   8.320  0.1032  3.0355  2.4465
58276SOL     OW81877   6.056   2.023   6.162  0.4355 -0.1994  0.2678
58276SOL    HW181878   6.142   1.985   6.148 -0.1507 -0.9262 -1.7954
58276SOL    HW281879   5.995   1.961   6.121 -0.8435  1.3622 -0.3292
58277SOL     OW81880   6.953   3.767   2.138 -0.2933  0.2200  0.0578
58277SOL    HW181881   6.961   3.710   2.214 -0.0303 -1.9556 -1.5175
58277SOL    HW281882   6.859   3.783   2.129 -0.4175 -0.4199  0.2109
58278SOL     OW81883   0.672   5.191  11.112  0.2927 -0.1423  0.2544
58278SOL    HW181884   0.767   5.198  11.105  0.3689 -1.2487 -0.0504
58278SOL    HW281885   0.639   5.226  11.029  0.4095  0.4823  0.4656
58279SOL     OW81886   6.575   8.148  10.176  0.2992  0.2052  0.9650
58279SOL    HW181887   6.619   8.122  10.095  2.6989 -2.0695  2.8109
58279SOL    HW281888   6.613   8.234  10.197 -1.1655  1.3476 -0.7817
58280SOL     OW81889   6.714   5.684   0.669 -0.0889  0.2143 -0.0451
58280SOL    HW181890   6.685   5.758   0.723  1.7615  1.0933 -0.1659
58280SOL    HW281891   6.793   5.653   0.711 -1.9652 -3.3010  1.3286
58281SOL     OW81892   8.448   2.761   1.657  0.2688  0.2902 -0.3692
58281SOL    HW181893   8.460   2.855   1.649  1.5348  0.3191  1.4390
58281SOL    HW281894   8.382   2.740   1.590 -1.1943  2.6602  0.2068
58282SOL     OW81895   5.498   4.584   2.699  0.1330 -0.2612 -0.0641
58282SOL    HW181896   5.475   4.659   2.753 -1.2018 -1.5833  1.3017
58282SOL    HW281897   5.542   4.524   2.759 -0.4958 -1.3567 -0.6629
58283SOL     OW81898   3.008   1.796   5.780 -0.4034 -0.6224  0.3608
58283SOL    HW181899   2.984   1.775   5.870 -1.0127  2.3867  0.9990
58283SOL    HW281900   3.099   1.826   5.786 -1.2125  2.0427  0.5133
58284SOL     OW81901   4.371   8.547   1.471 -0.6872  0.1542  0.0164
58284SOL    HW181902   4.347   8.639   1.485  0.2283  0.0709  2.9412
58284SOL    HW281903   4.293   8.507   1.432 -0.6705  2.3495 -2.5248
58285SOL     OW81904   4.602   5.178   5.345  0.4004  0.0852  0.3128
58285SOL    HW181905   4.535   5.119   5.312 -0.5322  0.2050  1.8703
58285SOL    HW281906   4.685   5.136   5.324 -0.2007 -0.7747 -0.3761
58286SOL     OW81907   0.798   6.380   0.979  0.3500  0.4465 -0.0561
58286SOL    HW181908   0.763   6.452   1.030  0.7474  0.7681 -0.2300
58286SOL    HW281909   0.733   6.310   0.986  1.0639 -0.0696  2.1506
58287SOL     OW81910   3.817   6.295  11.248  0.4502 -0.0578  0.0828
58287SOL    HW181911   3.897   6.280  11.198  0.6164 -0.1060  0.3647
58287SOL    HW281912   3.751   6.243  11.202  0.4960  0.2700 -0.3678
58288SOL     OW81913   2.651   6.471   5.957  0.1336  0.1397 -0.1773
58288SOL    HW181914   2.727   6.478   6.015 -0.0419  0.5518  0.0057
58288SOL    HW281915   2.671   6.527   5.883 -0.1862  0.6127  0.0891
58289SOL     OW81916   8.238   7.921   9.900 -0.4808  0.1328 -0.1736
58289SOL    HW181917   8.225   8.014   9.878  0.0790  0.6395  1.5335
58289SOL    HW281918   8.332   7.908   9.895 -0.5303 -0.2770 -0.0753
58290SOL     OW81919   2.078  10.557   9.626  0.1231 -0.0336  0.1002
58290SOL    HW181920   2.145  10.505   9.669  1.9572  0.7537 -1.6633
58290SOL    HW281921   2.046  10.502   9.554  1.5856  0.9155 -1.3473
58291SOL     OW81922   8.097   0.709   4.186 -0.1559 -0.0480  0.0749
58291SOL    HW181923   8.084   0.615   4.202 -1.0029 -0.1198 -0.8509
58291SOL    HW281924   8.034   0.752   4.243 -0.5739 -0.1166 -0.3216
58292SOL     OW81925   6.514   8.970   8.520  0.9205 -0.1356  0.0969
58292SOL    HW181926   6.553   8.975   8.608 -0.7725  0.6539  0.8484
58292SOL    HW281927   6.425   9.002   8.532  0.8996  0.7615 -2.0758
58293SOL     OW81928   4.259  12.169   9.719 -0.1816  0.0569 -0.1651
58293SOL    HW181929   4.313  12.139   9.792 -0.4632 -2.8001 -1.0013
58293SOL    HW281930   4.315  12.229   9.670  1.6375 -1.4824 -0.0547
58294SOL     OW81931   2.522  11.149   1.928  0.0025  0.0864 -0.2127
58294SOL    HW181932   2.471  11.177   2.003  2.0650  1.0368  0.9052
58294SOL    HW281933   2.505  11.055   1.920  0.2034 -0.1527  1.8348
58295SOL     OW81934   2.101   0.708  12.294 -0.1094 -0.5475 -0.1174
58295SOL    HW181935   2.135   0.632  12.248 -0.8858 -1.3772  0.6294
58295SOL    HW281936   2.099   0.778  12.228  1.5181 -0.8908 -0.5656
58296SOL     OW81937   3.300  12.423   8.288 -0.0269  0.2792 -0.0316
58296SOL    HW181938   3.346  12.366   8.227 -0.1830 -1.1610  1.1439
58296SOL    HW281939   3.352  12.503   8.289 -0.8040  0.9472 -3.0965
58297SOL     OW81940  10.850   6.276   0.434  0.1596  0.2141  0.7228
58297SOL    HW181941  10.936   6.316   0.440  0.9745 -1.5171  1.1422
58297SOL    HW281942  10.818   6.273   0.524  1.0174 -1.8690  1.0243
58298SOL     OW81943   3.117   0.405   8.979 -0.2232 -0.0433 -0.0826
58298SOL    HW181944   3.173   0.422   9.055 -1.5794 -1.1184  1.2127
58298SOL    HW281945   3.164   0.338   8.930  0.5799  0.5323 -0.1340
58299SOL     OW81946   9.424   9.515   1.083  0.6280 -0.5562 -0.5807
58299SOL    HW181947   9.359   9.585   1.081  1.9207  0.6819 -1.8540
58299SOL    HW281948   9.387   9.447   1.027 -1.0178 -1.3530  1.3086
58300SOL     OW81949   3.771   1.588   3.601  0.5795 -0.1993 -0.1443
58300SOL    HW181950   3.687   1.612   3.641  0.0318 -0.5537 -1.0442
58300SOL    HW281951   3.771   1.492   3.602 -0.0703 -0.2735 -2.1718
58301SOL     OW81952   1.347  12.059  12.541 -0.5881  0.0836  0.3129
58301SOL    HW181953   1.316  11.971  12.562 -0.9414 -0.0332 -0.6773
58301SOL    HW281954   1.306  12.080  12.457  0.2251  0.8350  0.0897
58302SOL     OW81955   0.567   5.343   7.932 -0.0494 -0.5612  0.3762
58302SOL    HW181956   0.622   5.417   7.957 -0.9239 -0.2328  1.4120
58302SOL    HW281957   0.511   5.328   8.008 -0.8403 -1.3976 -0.3500
58303SOL     OW81958   5.427   2.553   3.489 -0.1080  0.5056 -0.0014
58303SOL    HW181959   5.414   2.618   3.558 -2.0056  0.7688 -0.5335
58303SOL    HW281960   5.501   2.586   3.439  1.1561  0.4405  1.7197
58304SOL     OW81961  10.224   4.988   9.884  0.1862  0.2741  0.0737
58304SOL    HW181962  10.318   4.993   9.905  0.0802 -0.3045  0.7604
58304SOL    HW281963  10.221   4.976   9.790  0.8564 -0.7699  0.1669
58305SOL     OW81964   9.616   2.642   6.502 -0.7667  0.4276  0.5141
58305SOL    HW181965   9.524   2.660   6.481 -0.0937  2.5076 -0.9862
58305SOL    HW281966   9.665   2.692   6.437  1.4478 -0.0239  1.7571
58306SOL     OW81967   9.969  10.375   7.473  0.0226  0.0903 -0.2579
58306SOL    HW181968   9.891  10.419   7.506 -0.0097 -0.2806  0.1747
58306SOL    HW281969   9.937  10.289   7.444 -0.0847  0.6774 -1.9600
58307SOL     OW81970   1.913   2.427   6.079 -0.3838  1.0180  0.2580
58307SOL    HW181971   2.001   2.460   6.063 -0.3308  0.9535  0.4134
58307SOL    HW281972   1.863   2.452   6.001  0.0363  0.0911 -0.3207
58308SOL     OW81973  10.996   0.611   4.136  0.3798  0.3605  0.4746
58308SOL    HW181974  11.014   0.533   4.189  2.4373  1.3521  1.3263
58308SOL    HW281975  10.903   0.629   4.151 -0.5996 -2.7559 -0.9416
58309SOL     OW81976  12.072  12.581   0.157  0.2227 -0.3373  0.0323
58309SOL    HW181977  12.106  12.670   0.142  2.1206 -1.1515 -0.8382
58309SOL    HW281978  12.008  12.568   0.087 -1.3959  0.9336  1.2017
58310SOL     OW81979   3.512  12.366   3.798 -1.2071 -0.7307 -0.0975
58310SOL    HW181980   3.540  12.435   3.738 -0.4631 -0.8724  0.0796
58310SOL    HW281981   3.568  12.291   3.776 -0.7477 -0.7066  0.9339
58311SOL     OW81982  11.891  12.355   8.768 -0.1170 -0.3451  0.4565
58311SOL    HW181983  11.822  12.386   8.710  0.7945 -1.0320 -1.0642
58311SOL    HW281984  11.929  12.279   8.722  1.9809  0.3137  0.9737
58312SOL     OW81985  10.584   4.577   7.389  0.4479  0.0564  0.8221
58312SOL    HW181986  10.661   4.611   7.435  1.0979  0.2294 -0.3711
58312SOL    HW281987  10.618   4.506   7.335  0.2965  1.7923 -1.7249
58313SOL     OW81988  12.471   0.370   6.267 -0.1121  0.1487 -0.3563
58313SOL    HW181989  12.489   0.462   6.248  0.6885  0.5824  2.1201
58313SOL    HW281990  12.379   0.368   6.292  0.3072  0.6919  1.4059
58314SOL     OW81991  11.396   4.206  10.147 -0.0659 -0.6145  0.1582
58314SOL    HW181992  11.417   4.199  10.240 -1.4760 -1.5633  0.4247
58314SOL    HW281993  11.309   4.169  10.139 -1.0749  1.7994 -1.1281
58315SOL     OW81994   8.719   0.530   3.913  0.0303 -0.1338  0.2450
58315SOL    HW181995   8.735   0.448   3.959 -2.2859 -0.6357  0.2786
58315SOL    HW281996   8.758   0.597   3.968  0.0584 -1.0193  1.3368
58316SOL     OW81997   0.329   9.991   4.027  1.0198 -0.6402  0.2347
58316SOL    HW181998   0.295  10.066   3.978 -0.4253 -1.7689 -0.5765
58316SOL    HW281999   0.423  10.009   4.037  0.8165  0.9655 -0.4661
58317SOL     OW82000   9.970   2.474   1.099  0.4891  0.2199 -1.0778
58317SOL    HW182001   9.888   2.457   1.146 -0.0845  2.8394 -0.9355
58317SOL    HW282002   9.946   2.466   1.006 -0.6328  3.1041 -1.1452
58318SOL     OW82003   1.409   7.940  11.512 -0.6536 -0.2936  0.3524
58318SOL    HW182004   1.428   7.921  11.420 -0.1864  0.6477  0.2435
58318SOL    HW282005   1.314   7.937  11.518 -0.7294  0.3947 -0.3433
58319SOL     OW82006   2.518  10.900   3.437  0.3415  0.3121  0.8311
58319SOL    HW182007   2.522  10.810   3.405 -0.0405  0.5039  0.2220
58319SOL    HW282008   2.584  10.947   3.385 -0.6079  0.7258 -0.0463
58320SOL     OW82009   9.437  11.531   4.662  0.4318 -0.5748 -0.2105
58320SOL    HW182010   9.457  11.603   4.721  0.8208 -1.0187  0.2164
58320SOL    HW282011   9.486  11.550   4.582  1.0955 -0.7104  0.1549
58321SOL     OW82012   8.196  11.388   5.640  0.3001 -0.2245  0.0420
58321SOL    HW182013   8.157  11.466   5.600  0.6876 -0.4220 -0.7261
58321SOL    HW282014   8.258  11.355   5.575  0.4590 -0.9294  0.5367
58322SOL     OW82015  10.843   4.316   0.072  0.6478  0.3355 -0.6421
58322SOL    HW182016  10.866   4.235   0.118  1.5104  0.2769 -1.1445
58322SOL    HW282017  10.771   4.353   0.123  1.2869  0.0590  0.5085
58323SOL     OW82018   8.622  10.291   4.966  0.2722  0.1768  0.7254
58323SOL    HW182019   8.574  10.353   4.912  1.9491 -1.4424 -2.9450
58323SOL    HW282020   8.710  10.328   4.974  0.0790  0.3757  2.4970
58324SOL     OW82021   2.428  11.564   2.030  0.3989  1.0956  0.3826
58324SOL    HW182022   2.485  11.633   1.997 -0.6756  1.5558 -0.5718
58324SOL    HW282023   2.482  11.516   2.094  2.0452  1.1148 -0.9416
58325SOL     OW82024   8.542   4.053  12.045 -0.4863  0.2988  0.1454
58325SOL    HW182025   8.466   4.111  12.053 -1.6611 -1.1059 -0.4793
58325SOL    HW282026   8.507   3.965  12.061  0.7542 -0.5106 -1.3453
58326SOL     OW82027   3.724   7.461   9.919  0.3271  0.0213 -0.4047
58326SOL    HW182028   3.634   7.479   9.946  0.2048 -0.5380 -0.4204
58326SOL    HW282029   3.761   7.409   9.991  1.4751  2.4062  0.8379
58327SOL     OW82030   2.127  12.459  11.633  0.2084  0.3633 -0.5244
58327SOL    HW182031   2.049  12.414  11.599 -1.4093  2.3113  0.3866
58327SOL    HW282032   2.159  12.510  11.559 -0.1278  0.5085 -0.5743
58328SOL     OW82033   7.324   4.366   1.417  0.3354  0.0670 -0.1696
58328SOL    HW182034   7.338   4.274   1.394  1.9408  0.6045 -1.5953
58328SOL    HW282035   7.229   4.378   1.415  0.0093 -1.8251  1.2882
58329SOL     OW82036   7.132  12.101  11.794  0.5914 -0.0038 -0.2482
58329SOL    HW182037   7.100  12.184  11.759  0.3483  0.4602  1.0313
58329SOL    HW282038   7.062  12.071  11.852 -0.0462 -1.9339 -1.9028
58330SOL     OW82039   2.722   8.032   3.648 -0.4465  0.3395  0.6938
58330SOL    HW182040   2.810   8.068   3.644 -0.0517 -0.7133 -1.3624
58330SOL    HW282041   2.665   8.108   3.656  0.4870  1.2947 -1.1696
58331SOL     OW82042   4.063  10.138  11.220  0.2376  0.0987  0.3064
58331SOL    HW182043   4.117  10.216  11.216  2.2865 -1.2731  0.0795
58331SOL    HW282044   4.086  10.087  11.143 -1.4781 -0.5065  0.1346
58332SOL     OW82045  10.408  12.088  12.083  0.3846 -0.4456  0.3010
58332SOL    HW182046  10.423  12.126  12.170 -0.2944 -1.2080  0.7642
58332SOL    HW282047  10.316  12.063  12.083  0.1991  0.1878 -0.9078
58333SOL     OW82048  11.995   6.934   3.259  0.1464 -0.4396 -0.2476
58333SOL    HW182049  11.968   6.880   3.333  0.2924 -1.2554 -0.7794
58333SOL    HW282050  12.033   6.872   3.197  0.1901  0.2597 -0.9271
58334SOL     OW82051   5.237   0.219   0.018 -0.6120  0.3268 -0.2279
58334SOL    HW182052   5.324   0.238   0.053 -0.2118 -0.3358 -0.8244
58334SOL    HW282053   5.235   0.262  -0.067 -0.1062 -1.2585 -1.0947
58335SOL     OW82054   6.716   2.096   1.351  0.4878 -0.1653  0.0347
58335SOL    HW182055   6.655   2.061   1.287 -0.4406  1.1794  0.1607
58335SOL    HW282056   6.752   2.175   1.311  0.1548  0.5048  1.0063
58336SOL     OW82057   2.737  10.670   8.813  0.0764 -0.1917  0.5064
58336SOL    HW182058   2.759  10.743   8.755  0.9990  0.3168  1.4595
58336SOL    HW282059   2.726  10.595   8.754 -2.0875  0.9011 -0.6344
58337SOL     OW82060  11.053  10.378   6.509 -0.4542  0.7410 -0.5008
58337SOL    HW182061  11.071  10.462   6.466 -1.0333  1.2686  0.2633
58337SOL    HW282062  10.972  10.348   6.469 -0.3449  0.6364 -0.6433
58338SOL     OW82063   9.142   4.340   8.596  0.5696  0.0445 -0.0496
58338SOL    HW182064   9.166   4.355   8.505  1.4478 -2.4647 -0.3012
58338SOL    HW282065   9.131   4.245   8.603 -1.8711  0.3611  1.9100
58339SOL     OW82066  12.275   4.429   8.237  0.3823  0.0914  1.1780
58339SOL    HW182067  12.318   4.514   8.228  0.0784  0.1868  0.5736
58339SOL    HW282068  12.268   4.415   8.332  2.1202 -0.1331  1.3108
58340SOL     OW82069   4.639  10.773   0.097  0.0139  0.4220 -0.1776
58340SOL    HW182070   4.646  10.732   0.183 -1.2831 -0.8634 -0.6391
58340SOL    HW282071   4.709  10.732   0.045  0.5589  0.9250  0.1554
58341SOL     OW82072   2.602   2.855   8.998 -0.4845  0.0313  0.0803
58341SOL    HW182073   2.651   2.888   8.923  0.2197  0.0226  0.5260
58341SOL    HW282074   2.630   2.911   9.071 -2.6761  1.3814 -0.0319
58342SOL     OW82075   4.873   4.336   2.458  0.3288  0.1737 -0.0148
58342SOL    HW182076   4.965   4.352   2.438 -0.1170 -0.2499 -2.7923
58342SOL    HW282077   4.844   4.416   2.502  1.7268  0.8526 -0.2739
58343SOL     OW82078   9.925   3.060  10.466 -0.5151 -0.0416 -0.0879
58343SOL    HW182079   9.852   3.120  10.481 -1.5440 -1.3098  0.1632
58343SOL    HW282080   9.892   2.998  10.400 -0.3775 -1.7609  1.3890
58344SOL     OW82081   6.108   1.867   3.342 -0.0606  0.1001  0.1393
58344SOL    HW182082   6.086   1.960   3.348  1.5067  0.6071 -1.2935
58344SOL    HW282083   6.204   1.864   3.350  0.0347 -1.2497 -1.0399
58345SOL     OW82084  10.723   2.246   9.797 -0.3742  0.2870 -0.7906
58345SOL    HW182085  10.671   2.310   9.846  0.8514  0.3478  0.4887
58345SOL    HW282086  10.807   2.291   9.782  1.1980 -1.5349  1.6976
58346SOL     OW82087   5.567   8.940   0.397  0.2289 -0.6298 -0.1289
58346SOL    HW182088   5.484   8.977   0.428  0.2081  0.0760 -0.9781
58346SOL    HW282089   5.601   9.005   0.336  0.9804 -1.3160 -0.4649
58347SOL     OW82090  11.880  12.188  11.358 -0.5041  0.5305  0.1369
58347SOL    HW182091  11.902  12.260  11.418 -0.3999  0.0543  0.6854
58347SOL    HW282092  11.942  12.196  11.286  0.1643  0.4036  0.6826
58348SOL     OW82093   8.482   8.926   5.236  0.2963 -0.3990 -0.4132
58348SOL    HW182094   8.394   8.933   5.274  0.0786 -0.6597 -0.8654
58348SOL    HW282095   8.505   9.016   5.213  0.4321 -0.2353  0.3330
58349SOL     OW82096  12.421   9.159   2.924 -0.1812  0.1697  0.3921
58349SOL    HW182097  12.444   9.224   2.991  0.1603  0.9258 -0.4298
58349SOL    HW282098  12.496   9.099   2.923 -0.8608 -0.7538  1.7316
58350SOL     OW82099   2.444  10.661  10.107  0.5870  0.0726 -0.0084
58350SOL    HW182100   2.480  10.744  10.074 -0.2244  0.4021 -0.1078
58350SOL    HW282101   2.493  10.593  10.061  0.2093  0.5217 -1.1124
58351SOL     OW82102   0.326   1.842   2.958  0.3572 -0.3671  0.0281
58351SOL    HW182103   0.400   1.808   3.008  0.2829  1.3985  1.4400
58351SOL    HW282104   0.356   1.842   2.867  1.1390 -2.0036  0.2526
58352SOL     OW82105  10.059  10.031   1.717 -0.3737  0.4472 -0.0123
58352SOL    HW182106  10.026   9.942   1.726  0.8087  0.0922  0.9417
58352SOL    HW282107  10.021  10.079   1.790  0.2662  0.3228  0.4092
58353SOL     OW82108   6.563   6.811   5.780 -0.0103  0.0209 -0.0631
58353SOL    HW182109   6.606   6.851   5.705  0.4378  0.3192  0.3480
58353SOL    HW282110   6.509   6.741   5.743  0.2560  0.1281 -0.6535
58354SOL     OW82111   5.523   4.528   1.204  0.0307 -0.9575 -0.2835
58354SOL    HW182112   5.447   4.475   1.182 -0.0764 -0.8590 -0.1507
58354SOL    HW282113   5.532   4.589   1.130  1.7003 -2.8148 -1.7406
58355SOL     OW82114   6.007   8.287   8.241 -0.1816  0.3286  0.0276
58355SOL    HW182115   5.949   8.228   8.195 -0.2434 -0.3791  0.9924
58355SOL    HW282116   5.949   8.344   8.292 -0.0549 -0.2453  0.8312
58356SOL     OW82117   3.029   1.498   6.238 -0.1566 -0.4327  0.3992
58356SOL    HW182118   3.028   1.587   6.275  0.0318 -0.4946  0.5543
58356SOL    HW282119   2.937   1.473   6.236 -0.2277 -0.1635  0.1827
58357SOL     OW82120   9.650   6.775   4.154 -0.2606  0.0666  0.2585
58357SOL    HW182121   9.729   6.735   4.190  0.2816  0.3600 -0.5944
58357SOL    HW282122   9.581   6.750   4.216  0.5263 -0.0058  1.1312
58358SOL     OW82123   7.910   5.423   1.196  0.0766 -0.2189  0.3668
58358SOL    HW182124   7.949   5.507   1.168  1.9506 -0.9642  0.5948
58358SOL    HW282125   7.835   5.411   1.138  1.5493  0.1840 -1.7495
58359SOL     OW82126  12.561   7.002   0.257  0.0537  0.0602 -0.4003
58359SOL    HW182127  12.489   7.055   0.224  1.1543  1.8122 -0.1332
58359SOL    HW282128  12.618   6.989   0.181  0.0527 -0.3050 -0.3431
58360SOL     OW82129   3.604   7.988   0.417  0.2334 -0.3416 -0.0982
58360SOL    HW182130   3.524   7.976   0.468  1.5341 -0.2779  2.1020
58360SOL    HW282131   3.586   7.945   0.334 -2.3906  0.4811 -0.0613
58361SOL     OW82132   9.967   3.496   3.075 -0.4014  0.9117 -0.0685
58361SOL    HW182133   9.885   3.524   3.033 -1.2311 -0.3311  0.6539
58361SOL    HW282134   9.961   3.401   3.077 -0.2702  0.8882  2.5387
58362SOL     OW82135   9.137   3.325   2.089 -0.1184 -0.3634  0.1944
58362SOL    HW182136   9.076   3.276   2.034  1.4323 -0.4289 -1.5445
58362SOL    HW282137   9.206   3.354   2.030  1.4908 -0.1794  2.0458
58363SOL     OW82138   8.247  11.834   6.301  0.4614 -0.0474 -0.0953
58363SOL    HW182139   8.219  11.922   6.278 -0.4648 -0.3035  0.0093
58363SOL    HW282140   8.302  11.846   6.378  1.4931  0.5633 -0.9091
58364SOL     OW82141   6.004   3.966   7.813 -0.3135  0.1965  0.2484
58364SOL    HW182142   6.080   3.993   7.762 -2.4380  0.0805 -3.2371
58364SOL    HW282143   5.957   4.047   7.830 -0.1503  0.1020  1.2274
58365SOL     OW82144   2.697   0.623   6.976  0.0226 -0.2844 -0.6091
58365SOL    HW182145   2.618   0.626   7.029 -0.1404  1.9095 -0.8997
58365SOL    HW282146   2.743   0.544   7.006 -1.1806 -0.3776  1.1311
58366SOL     OW82147  10.459  12.571   5.026  0.4506  0.3850  0.3556
58366SOL    HW182148  10.529  12.595   4.966  0.7278  0.1981  0.6040
58366SOL    HW282149  10.465  12.635   5.097 -0.2347  0.9604 -0.0853
58367SOL     OW82150   5.208   9.642  12.200 -0.4229  0.4733  0.0253
58367SOL    HW182151   5.160   9.657  12.282  0.4619  2.2526  0.2834
58367SOL    HW282152   5.299   9.664  12.221 -0.1567  0.8733 -1.3903
58368SOL     OW82153   5.678  10.074   2.280 -0.0015 -0.0560  0.8882
58368SOL    HW182154   5.616  10.146   2.273  0.2439  0.0299 -0.5546
58368SOL    HW282155   5.750  10.097   2.221  0.2079 -1.3491  0.6042
58369SOL     OW82156   3.466  11.561   3.150 -0.0302 -0.1419 -0.3346
58369SOL    HW182157   3.450  11.655   3.146 -0.5824 -0.1200  1.4434
58369SOL    HW282158   3.511  11.548   3.233  1.4474 -1.2891 -1.2742
58370SOL     OW82159   7.804   5.501   5.902 -0.5412  0.2482  0.2463
58370SOL    HW182160   7.842   5.424   5.944  1.7799  0.9119 -0.4833
58370SOL    HW282161   7.735   5.530   5.963  0.0727 -1.0646  1.6351
58371SOL     OW82162   0.039   4.087   7.916  0.3151 -0.5574 -0.0803
58371SOL    HW182163  -0.056   4.102   7.921  0.3294 -0.9263  2.7274
58371SOL    HW282164   0.050   4.038   7.834 -1.5444  1.7089 -1.8213
58372SOL     OW82165   7.565   2.307   2.156 -0.1536 -0.4973 -0.0055
58372SOL    HW182166   7.549   2.300   2.250  0.7526  1.1526  0.3275
58372SOL    HW282167   7.625   2.235   2.136 -1.1067 -1.4418  0.4610
58373SOL     OW82168  10.822   3.399   0.371 -0.4086 -0.6535  0.0687
58373SOL    HW182169  10.918   3.405   0.366 -0.4389 -0.6856 -0.6606
58373SOL    HW282170  10.800   3.436   0.457  0.1871  0.1953 -0.1323
58374SOL     OW82171   6.224   0.754  11.099  0.4135 -0.5241  0.3953
58374SOL    HW182172   6.149   0.699  11.077 -0.2053  0.2693  0.4543
58374SOL    HW282173   6.301   0.702  11.074 -0.1575 -1.2610  0.1384
58375SOL     OW82174   9.226  11.216   4.452  0.6939  0.2405 -0.7606
58375SOL    HW182175   9.183  11.168   4.523  1.1526  0.2494 -0.4728
58375SOL    HW282176   9.212  11.162   4.374  2.1196 -0.9041 -0.2510
58376SOL     OW82177   4.487   5.644   5.101 -0.6992 -0.4423 -0.6892
58376SOL    HW182178   4.470   5.551   5.112  1.4956 -0.7781  0.3478
58376SOL    HW282179   4.556   5.648   5.035 -0.4187  0.4118 -0.3619
58377SOL     OW82180   9.451   6.696   4.324  0.0919 -0.2121 -0.2484
58377SOL    HW182181   9.399   6.769   4.359  1.3796  0.4582  0.3651
58377SOL    HW282182   9.391   6.622   4.323 -0.9250  0.5763  0.2425
58378SOL     OW82183  12.401  11.381   2.220 -0.0689 -0.2209 -0.1060
58378SOL    HW182184  12.461  11.442   2.262 -0.1739 -0.3592  0.2440
58378SOL    HW282185  12.450  11.347   2.145 -0.3777  1.0969 -0.9409
58379SOL     OW82186  12.288   7.542   9.624  0.1986 -0.1968 -0.4082
58379SOL    HW182187  12.370   7.583   9.596  1.3151 -1.6195  0.6660
58379SOL    HW282188  12.273   7.472   9.561  0.7759 -1.0726  0.4066
58380SOL     OW82189   6.701   3.614   3.593  0.0494 -0.4607 -0.1141
58380SOL    HW182190   6.687   3.621   3.688 -1.1962  2.3231 -0.3948
58380SOL    HW282191   6.723   3.522   3.579 -0.7973 -1.2161  2.7272
58381SOL     OW82192   0.945   3.595   6.975  0.5947 -0.8067 -0.5115
58381SOL    HW182193   0.905   3.552   6.899 -0.0917 -1.2438  0.0865
58381SOL    HW282194   0.884   3.579   7.047  1.9309 -1.6397  0.4776
58382SOL     OW82195   2.158   8.543  12.438  0.3004 -0.5918  0.3878
58382SOL    HW182196   2.224   8.533  12.370  2.2333  2.6195  1.5643
58382SOL    HW282197   2.091   8.599  12.399  0.3992 -0.4118  0.4731
58383SOL     OW82198   6.025   9.066   5.741  0.1594 -0.4332  0.5200
58383SOL    HW182199   6.021   8.971   5.735 -0.0940 -0.3261 -1.3137
58383SOL    HW282200   5.971   9.087   5.817 -1.1469 -1.6555 -0.0241
58384SOL     OW82201   0.571  11.723   3.156 -0.1917  0.5191  0.2874
58384SOL    HW182202   0.644  11.663   3.141  0.5437  1.5667 -0.4160
58384SOL    HW282203   0.600  11.779   3.229 -0.6822  0.3417  0.6265
58385SOL     OW82204  10.965   9.715   6.836  0.3109  0.0761  0.1436
58385SOL    HW182205  10.995   9.787   6.780  1.9178 -0.0091  0.8456
58385SOL    HW282206  11.045   9.671   6.865 -0.5166 -0.5399  1.6472
58386SOL     OW82207   5.597   8.078  10.948  0.0483  0.3295  0.5777
58386SOL    HW182208   5.609   8.172  10.956 -1.0426  0.4646  0.8154
58386SOL    HW282209   5.656   8.052  10.877 -0.3043  1.3439 -0.1090
58387SOL     OW82210  11.018   7.754   2.769  0.0992 -0.5653  0.0135
58387SOL    HW182211  11.073   7.774   2.694  2.8941 -1.4405  1.6981
58387SOL    HW282212  10.982   7.668   2.751 -0.9104  0.0704 -1.1619
58388SOL     OW82213   9.967   3.681   6.981  0.3407 -0.3154 -0.1542
58388SOL    HW182214  10.054   3.700   6.945  0.1707  0.5558 -0.1327
58388SOL    HW282215   9.921   3.636   6.910  0.6197 -0.2579 -0.3732
58389SOL     OW82216   5.306   3.647   2.453  0.4735  0.1845  0.0762
58389SOL    HW182217   5.261   3.731   2.442  0.5147  0.1807 -0.1241
58389SOL    HW282218   5.381   3.667   2.508 -0.6590 -0.1088  1.8046
58390SOL     OW82219   1.925   3.622   2.106  0.7436 -0.0445  0.0414
58390SOL    HW182220   1.846   3.651   2.061  1.8080  0.2477 -1.7085
58390SOL    HW282221   1.937   3.531   2.079  0.3061 -0.5194  1.3604
58391SOL     OW82222   7.803   9.335   6.068  0.5370  0.4079  0.4896
58391SOL    HW182223   7.823   9.273   6.139 -2.2728 -1.0775  0.1125
58391SOL    HW282224   7.789   9.280   5.991 -2.3495  1.3996  0.2023
58392SOL     OW82225   0.030   1.897   9.788  0.0042  0.0355 -0.2059
58392SOL    HW182226  -0.053   1.873   9.747  0.1993  0.1559 -0.6718
58392SOL    HW282227   0.042   1.832   9.858 -1.2422  0.9277  0.8948
58393SOL     OW82228   7.290   0.749   2.127 -0.4450  0.2480  0.1727
58393SOL    HW182229   7.273   0.655   2.133 -0.4206  0.2486  0.2542
58393SOL    HW282230   7.284   0.769   2.033 -1.9254  0.4316  0.2822
58394SOL     OW82231   3.827   2.632   3.828 -0.0138 -0.3704 -0.1129
58394SOL    HW182232   3.750   2.644   3.773  1.2747  3.2524 -1.4762
58394SOL    HW282233   3.881   2.568   3.782 -1.8213 -2.4212  0.5063
58395SOL     OW82234  11.437  10.845   3.261  0.1267 -0.0611 -0.5902
58395SOL    HW182235  11.474  10.931   3.283 -0.2029  0.2276 -1.1613
58395SOL    HW282236  11.426  10.803   3.346 -2.2532  1.5041 -0.0207
58396SOL     OW82237  12.311   6.815   2.199  0.4657 -0.0977  0.3370
58396SOL    HW182238  12.275   6.883   2.257 -0.2028 -0.6454  0.5868
58396SOL    HW282239  12.250   6.741   2.209 -0.3588  0.1862 -1.9631
58397SOL     OW82240   9.286   2.118  10.710  0.3502  0.2094  0.2461
58397SOL    HW182241   9.281   2.040  10.655 -0.3865 -0.0262  0.6260
58397SOL    HW282242   9.287   2.084  10.799  0.3975  0.6177  0.4031
58398SOL     OW82243  11.238  11.368  11.487 -0.0252 -0.0631 -0.8350
58398SOL    HW182244  11.312  11.347  11.430  0.4994 -0.1620 -0.1388
58398SOL    HW282245  11.229  11.292  11.544  0.1786  0.4834 -0.0586
58399SOL     OW82246   1.182   9.567  11.377 -0.6514  0.4840  0.1118
58399SOL    HW182247   1.242   9.493  11.370  1.1424  2.0016 -1.6208
58399SOL    HW282248   1.150   9.563  11.467  0.6272 -1.4391  0.5504
58400SOL     OW82249   9.579   8.426   0.181 -0.4328 -0.6289 -0.2380
58400SOL    HW182250   9.650   8.383   0.132  0.5094  2.0327 -1.3959
58400SOL    HW282251   9.510   8.439   0.116 -0.9704 -0.9409  0.2626
58401SOL     OW82252   9.177   5.108   7.170  0.3525 -0.0520 -0.1897
58401SOL    HW182253   9.120   5.058   7.112  0.7538 -0.4593 -0.2333
58401SOL    HW282254   9.125   5.185   7.194 -0.8400 -1.2121  1.0696
58402SOL     OW82255  12.132   2.409  10.185  0.4291  0.1058 -0.0289
58402SOL    HW182256  12.180   2.338  10.228  0.5338  0.9366  1.2813
58402SOL    HW282257  12.199   2.460  10.141  0.7859  1.2059  1.7137
58403SOL     OW82258   2.073   1.521   8.940 -0.3970  0.5454 -0.0534
58403SOL    HW182259   1.982   1.511   8.969 -0.9666  1.5694 -1.3675
58403SOL    HW282260   2.068   1.586   8.870  1.4441  1.0392  0.2355
58404SOL     OW82261   9.337  11.176  12.026 -0.3907  0.2387 -0.4268
58404SOL    HW182262   9.340  11.151  12.118 -1.7583 -2.1998 -0.9537
58404SOL    HW282263   9.377  11.263  12.023  0.4980  0.0121  2.3102
58405SOL     OW82264   4.915  10.894   4.014  0.1115  0.0738  0.3639
58405SOL    HW182265   4.940  10.982   4.040 -1.5721  0.2468  1.6312
58405SOL    HW282266   4.895  10.850   4.097  0.2825 -1.2840 -0.2903
58406SOL     OW82267   0.448   5.898  10.412 -0.0632 -0.0306  0.0816
58406SOL    HW182268   0.528   5.897  10.465 -1.7459 -0.9398  2.8262
58406SOL    HW282269   0.414   5.987  10.421 -0.5303 -0.2833  0.8397
58407SOL     OW82270   2.238   7.630  12.574 -0.0793  0.2178  0.0414
58407SOL    HW182271   2.267   7.541  12.595 -0.2104  0.4291  1.1397
58407SOL    HW282272   2.218   7.626  12.480  0.6336 -0.7076 -0.0926
58408SOL     OW82273   8.210   0.870  12.567  0.1746  0.3378 -0.0129
58408SOL    HW182274   8.201   0.920  12.486  0.2132 -0.9729 -0.8593
58408SOL    HW282275   8.166   0.787  12.548  3.9939 -1.8353 -0.3499
58409SOL     OW82276  10.757   0.944   8.386  0.3788 -0.2780  0.3452
58409SOL    HW182277  10.767   0.926   8.479 -0.1039 -0.5050  0.3572
58409SOL    HW282278  10.846   0.936   8.350  0.6838  0.5338  0.9060
58410SOL     OW82279   1.760   6.789   5.483 -0.7158  0.0517  0.1158
58410SOL    HW182280   1.705   6.860   5.449 -0.4678  0.8394  1.2967
58410SOL    HW282281   1.699   6.721   5.509 -0.9991  0.0944 -0.4273
58411SOL     OW82282   5.292   0.898   6.909 -0.1545  0.1437 -0.3424
58411SOL    HW182283   5.286   0.823   6.967  1.2797  1.2572  1.3692
58411SOL    HW282284   5.292   0.974   6.968  1.8779  1.3111 -1.7143
58412SOL     OW82285   7.504  12.003  10.832  0.1351  0.5311  0.2775
58412SOL    HW182286   7.599  12.008  10.835  0.1264  0.8057  0.1112
58412SOL    HW282287   7.482  11.926  10.884  0.4834  0.0723 -0.2542
58413SOL     OW82288   7.477  11.883   2.467  0.6715 -0.1966 -0.3808
58413SOL    HW182289   7.462  11.971   2.502  3.0679 -0.0568  0.4628
58413SOL    HW282290   7.422  11.826   2.521  1.0871  0.5134  0.8277
58414SOL     OW82291   2.397   4.234   9.050  0.3400  0.0173  0.0539
58414SOL    HW182292   2.346   4.303   9.092 -1.1568 -1.8904  1.5420
58414SOL    HW282293   2.488   4.257   9.067 -0.0344  2.2864 -0.6507
58415SOL     OW82294   8.250  10.227   0.587 -0.2861  0.3010 -0.0281
58415SOL    HW182295   8.196  10.152   0.560 -0.7867  0.8494 -0.5771
58415SOL    HW282296   8.318  10.188   0.642 -0.3735 -0.5969 -0.5334
58416SOL     OW82297  12.121   0.968   1.139  0.2625  0.1531  0.3076
58416SOL    HW182298  12.093   0.879   1.158 -1.7007  0.4647 -0.8592
58416SOL    HW282299  12.071   1.023   1.199 -1.0350  0.6550 -1.1535
58417SOL     OW82300   8.663   5.750  10.991  0.1031  0.2469 -0.6175
58417SOL    HW182301   8.582   5.740  10.941  0.7600 -0.8867 -1.5111
58417SOL    HW282302   8.731   5.752  10.924  0.8876  0.1575  0.1723
58418SOL     OW82303   0.151   2.661   0.358  0.4228  0.2680  0.3515
58418SOL    HW182304   0.122   2.735   0.412  0.8178 -0.1087  1.0896
58418SOL    HW282305   0.222   2.621   0.407 -1.6924 -2.4536  1.4916
58419SOL     OW82306   0.365   2.208   8.457 -0.5079  0.1704  0.1152
58419SOL    HW182307   0.423   2.191   8.383  1.7061  1.9865  1.3020
58419SOL    HW282308   0.280   2.226   8.417 -0.1559 -1.9237 -1.7450
58420SOL     OW82309   6.195   9.842   0.049  0.4210 -0.4622  0.4790
58420SOL    HW182310   6.163   9.821   0.136 -0.4840 -3.4779 -0.4534
58420SOL    HW282311   6.119   9.830  -0.008  1.1908  0.6399 -0.8693
58421SOL     OW82312   8.487   8.366   8.682  0.3562 -0.0237  0.3466
58421SOL    HW182313   8.486   8.293   8.743 -0.2324 -2.2430 -2.1426
58421SOL    HW282314   8.572   8.360   8.638  1.7739  2.9409  2.3447
58422SOL     OW82315   7.701   2.342   3.445  0.5564  0.2365 -0.3421
58422SOL    HW182316   7.608   2.360   3.460 -0.2802 -3.5356 -0.1123
58422SOL    HW282317   7.714   2.364   3.353 -0.9542 -0.4408 -0.7525
58423SOL     OW82318   6.616   6.420   1.312  0.0506 -0.0468 -0.0648
58423SOL    HW182319   6.561   6.460   1.379  0.1783  0.0488 -0.0165
58423SOL    HW282320   6.683   6.486   1.293 -0.2266  0.0899 -0.5843
58424SOL     OW82321   2.788   7.937   4.603 -0.3231 -0.1491 -0.0351
58424SOL    HW182322   2.810   7.911   4.692  0.5208 -0.3786 -0.3010
58424SOL    HW282323   2.843   7.881   4.547  0.3068  1.0594 -0.6633
58425SOL     OW82324  10.914   5.941   5.579 -0.2683  0.0079 -0.1416
58425SOL    HW182325  10.899   5.945   5.484 -0.1936 -1.6005 -0.2577
58425SOL    HW282326  10.952   6.026   5.601 -0.1564  0.3623 -1.5759
58426SOL     OW82327   6.006   7.457  11.319  0.4154 -0.0412  0.1027
58426SOL    HW182328   5.938   7.394  11.343 -0.0588  0.1707 -0.6705
58426SOL    HW282329   6.047   7.480  11.403  0.0277 -0.7245  0.4925
58427SOL     OW82330   4.014   6.903   0.032  0.4880  0.4341 -0.4106
58427SOL    HW182331   4.054   6.891  -0.054 -1.5755  0.8502 -1.4841
58427SOL    HW282332   4.044   6.827   0.083  1.4077 -0.0448 -1.6164
58428SOL     OW82333   2.687  10.824   2.063  0.6424  0.1377 -0.2361
58428SOL    HW182334   2.764  10.875   2.039  0.2069  0.8137 -0.2300
58428SOL    HW282335   2.633  10.885   2.113  1.4181 -1.1355  2.3378
58429SOL     OW82336  11.101   9.824   1.490 -0.9461  1.1335 -0.1503
58429SOL    HW182337  11.113   9.762   1.418  2.6994  0.4233  0.8822
58429SOL    HW282338  11.029   9.788   1.541  0.0620 -1.5047 -0.4263
58430SOL     OW82339   6.996   2.384   0.939 -0.0360 -0.0943  0.2011
58430SOL    HW182340   6.962   2.470   0.912 -0.3540 -0.3872 -0.3591
58430SOL    HW282341   6.965   2.324   0.871 -0.8628 -0.8711  1.2200
58431SOL     OW82342   6.230   8.320   2.535  0.3678 -0.0101  0.1129
58431SOL    HW182343   6.201   8.341   2.446 -0.6102 -0.3538  0.3335
58431SOL    HW282344   6.257   8.229   2.531  1.2810  0.2549 -0.0468
58432SOL     OW82345   1.378  11.113   8.945 -0.3738  0.5427 -0.2378
58432SOL    HW182346   1.404  11.158   9.025 -1.6600  1.6249 -0.3885
58432SOL    HW282347   1.430  11.155   8.876 -0.5287  0.8123 -0.1915
58433SOL     OW82348   9.119   5.812   3.369 -0.5431 -0.1703 -0.6745
58433SOL    HW182349   9.080   5.803   3.456 -1.5466  1.5739 -0.9017
58433SOL    HW282350   9.147   5.723   3.346 -4.2375 -1.5774 -0.4105
58434SOL     OW82351   9.250  11.676  12.210  0.5050 -0.3442 -0.0907
58434SOL    HW182352   9.260  11.763  12.249 -0.0210 -0.1790 -0.3176
58434SOL    HW282353   9.265  11.690  12.116  0.0800 -0.4281 -0.1760
58435SOL     OW82354   3.538   3.940   6.005 -0.3950 -0.5767  0.1912
58435SOL    HW182355   3.568   4.031   6.010 -0.0035 -0.7326  0.6366
58435SOL    HW282356   3.595   3.899   5.940 -0.2916 -0.6153  0.3065
58436SOL     OW82357  10.858   2.417   6.549 -0.1479  0.5734  0.3391
58436SOL    HW182358  10.912   2.492   6.521 -0.5875  0.3723 -1.1211
58436SOL    HW282359  10.772   2.455   6.566  0.2480  0.7812  2.0048
58437SOL     OW82360  10.435   3.393   5.637 -0.0884 -0.4384  0.4258
58437SOL    HW182361  10.402   3.304   5.630  1.0636 -0.8266 -0.2352
58437SOL    HW282362  10.494   3.403   5.562  1.2604  0.2402  1.5406
58438SOL     OW82363   8.543   2.964   9.382  0.2709 -0.4781 -0.3678
58438SOL    HW182364   8.608   2.991   9.447  0.3136 -2.1478  0.3386
58438SOL    HW282365   8.461   2.959   9.431 -0.0502 -0.0605 -0.8567
58439SOL     OW82366   3.513   7.588   6.153  0.8071  0.5835  0.3745
58439SOL    HW182367   3.562   7.524   6.102 -0.2005  0.1507 -0.0804
58439SOL    HW282368   3.441   7.615   6.096 -0.2744  0.1762  1.5028
58440SOL     OW82369   2.909   8.056  10.013 -0.2117 -0.1054  0.6956
58440SOL    HW182370   2.965   8.127  10.044  1.2613 -0.9618  0.0997
58440SOL    HW282371   2.970   7.985   9.991 -1.5620 -1.1897  0.3122
58441SOL     OW82372   2.701   0.241   3.234 -0.1799  0.1954  0.5627
58441SOL    HW182373   2.706   0.336   3.227  0.9271  0.0583 -0.8137
58441SOL    HW282374   2.702   0.209   3.144  3.0078 -1.2501  0.9617
58442SOL     OW82375   4.004   9.202   6.136 -0.0534  0.7591  0.3855
58442SOL    HW182376   3.947   9.274   6.109 -1.2427 -0.1928  0.2971
58442SOL    HW282377   4.092   9.238   6.129 -0.4519  1.4265 -2.1030
58443SOL     OW82378   3.133  11.117  10.753 -0.2680 -0.2973  0.2969
58443SOL    HW182379   3.129  11.205  10.790  1.9184  0.3536 -0.8084
58443SOL    HW282380   3.190  11.069  10.814  0.0511 -0.3830 -0.0629
58444SOL     OW82381  11.078   4.934   7.346 -0.2369 -0.6247  0.6926
58444SOL    HW182382  11.079   4.893   7.260 -3.7698 -0.3347  0.3568
58444SOL    HW282383  11.134   4.878   7.400  0.8862 -1.6515 -1.4024
58445SOL     OW82384   4.826   7.132  10.565 -0.0573 -0.0616  0.1715
58445SOL    HW182385   4.808   7.039  10.580  0.8244 -0.4575 -1.0036
58445SOL    HW282386   4.854   7.136  10.473  0.6495  1.2503  0.4132
58446SOL     OW82387   7.441  10.314   3.127 -0.0097  0.1353 -0.2330
58446SOL    HW182388   7.520  10.343   3.081  1.8809 -0.3854  2.4140
58446SOL    HW282389   7.472  10.243   3.184 -2.5092 -0.3812  0.5916
58447SOL     OW82390  11.630   1.648  11.155 -0.2968 -0.1922  0.1912
58447SOL    HW182391  11.558   1.686  11.105 -0.2683  0.3336  0.5461
58447SOL    HW282392  11.703   1.708  11.142  0.1057 -0.7690 -0.2384
58448SOL     OW82393   6.986  11.627   7.101  0.4138 -0.0032  0.3753
58448SOL    HW182394   7.068  11.590   7.068  0.9856  0.4072  1.2804
58448SOL    HW282395   6.918  11.582   7.051  1.1847 -0.3326 -0.4180
58449SOL     OW82396  10.854   3.549   9.832 -0.3887 -0.2853  0.1737
58449SOL    HW182397  10.923   3.499   9.789 -0.6099  0.4432 -1.0827
58449SOL    HW282398  10.898   3.628   9.865 -0.3893 -0.4149  0.4876
58450SOL     OW82399   1.911  10.610   3.697 -0.0139 -0.3441  0.7797
58450SOL    HW182400   2.002  10.641   3.701 -0.2171  0.2742  0.6888
58450SOL    HW282401   1.860  10.679   3.740 -0.3292 -1.1669  1.7944
58451SOL     OW82402   7.876   1.018  12.303  0.4043  0.2545 -0.3547
58451SOL    HW182403   7.910   0.929  12.310  2.4420  1.0487  1.1069
58451SOL    HW282404   7.851   1.041  12.393 -1.9467  0.5239 -1.0263
58452SOL     OW82405   4.124  12.441  10.120  0.1472 -0.4418 -0.1397
58452SOL    HW182406   4.147  12.531  10.144 -0.4205 -0.3895  0.2172
58452SOL    HW282407   4.130  12.440  10.024  1.8179 -0.4850 -0.0685
58453SOL     OW82408   2.088   6.764   5.796 -0.3082  0.1475 -0.2239
58453SOL    HW182409   2.144   6.699   5.755  0.2679  0.9723 -0.7737
58453SOL    HW282410   2.088   6.741   5.889 -1.8711 -1.9270 -0.6566
58454SOL     OW82411   9.849  11.651   9.120  0.4108  0.0900 -0.5889
58454SOL    HW182412   9.756  11.649   9.141  0.2360  0.5296 -1.3139
58454SOL    HW282413   9.853  11.679   9.029  1.2892  0.9493 -0.3001
58455SOL     OW82414   0.312   5.472   8.598 -0.2115  0.5343 -0.6236
58455SOL    HW182415   0.356   5.504   8.677 -0.6423 -0.3200 -0.0171
58455SOL    HW282416   0.219   5.484   8.616 -0.2906  0.9273 -1.2760
58456SOL     OW82417   4.117   0.761   3.007 -0.2282 -0.1596  0.1750
58456SOL    HW182418   4.040   0.736   3.057  0.9267 -0.9487  1.6394
58456SOL    HW282419   4.184   0.777   3.073  0.8821  0.4808 -1.0577
58457SOL     OW82420   2.117   8.711   6.448 -0.0019  0.1100 -0.6494
58457SOL    HW182421   2.060   8.727   6.523  1.2994  2.5501 -0.0808
58457SOL    HW282422   2.059   8.677   6.380 -2.1528  2.2429 -0.0172
58458SOL     OW82423   0.443  12.464  11.362  0.0201  0.4263  0.1639
58458SOL    HW182424   0.516  12.502  11.410  0.1265  1.1198 -0.5313
58458SOL    HW282425   0.482  12.398  11.305 -0.1004 -0.3628  0.9774
58459SOL     OW82426   6.828  10.843   7.844 -0.3997 -0.1592  0.1322
58459SOL    HW182427   6.878  10.765   7.871 -1.4069 -0.8837 -0.0259
58459SOL    HW282428   6.783  10.815   7.764 -0.5151  0.7060 -0.1127
58460SOL     OW82429   1.585   1.100   2.524 -0.4383 -0.1342  0.1287
58460SOL    HW182430   1.504   1.143   2.551  0.0987  0.7775  0.3413
58460SOL    HW282431   1.594   1.026   2.583 -0.7523  0.1804  0.5807
58461SOL     OW82432  12.555   6.224  11.897 -0.4223  0.1026  0.6245
58461SOL    HW182433  12.534   6.299  11.952 -1.0653  0.3178  0.1041
58461SOL    HW282434  12.650   6.230  11.882 -0.3499  0.3832  1.1957
58462SOL     OW82435   2.576   0.149   0.040  0.0127  0.0115  0.6017
58462SOL    HW182436   2.615   0.226   0.082  0.3379  0.1542  0.0406
58462SOL    HW282437   2.643   0.118  -0.021 -0.5467 -0.0546  0.0135
58463SOL     OW82438  10.856   6.163   9.292 -0.1530  0.3558  0.1751
58463SOL    HW182439  10.887   6.253   9.301 -0.5108  0.4487  0.5784
58463SOL    HW282440  10.766   6.172   9.261 -0.0871  0.1255 -0.0867
58464SOL     OW82441   9.589   8.153   9.746 -0.2141  0.9732  0.4448
58464SOL    HW182442   9.679   8.158   9.715  1.0566 -0.0369  3.5575
58464SOL    HW282443   9.550   8.082   9.696  1.6402 -0.4584  0.9037
58465SOL     OW82444  10.129   7.236   2.576 -0.4639  0.4879  0.5135
58465SOL    HW182445  10.044   7.193   2.579 -0.2619 -0.0742 -1.0373
58465SOL    HW282446  10.164   7.215   2.489  1.4318  0.3757  1.2518
58466SOL     OW82447   2.827  12.329   5.160 -0.1137  0.2948 -0.2011
58466SOL    HW182448   2.849  12.359   5.072 -2.1034  0.8801 -0.5536
58466SOL    HW282449   2.849  12.404   5.217  0.6448  0.1247 -0.2663
58467SOL     OW82450   7.263  11.140  10.661  0.8987 -0.0653  0.2055
58467SOL    HW182451   7.300  11.072  10.604 -0.3188 -0.7196  0.1564
58467SOL    HW282452   7.299  11.222  10.627  2.5545 -0.6695  0.3850
58468SOL     OW82453  10.693   5.289  12.019 -0.4344 -0.4419 -0.4534
58468SOL    HW182454  10.674   5.195  12.025 -0.8123 -0.4149 -1.2298
58468SOL    HW282455  10.663   5.325  12.103  1.5553 -1.3229  0.7161
58469SOL     OW82456   0.193  10.594   8.181  0.0201  0.1813  0.3890
58469SOL    HW182457   0.233  10.605   8.267 -0.2587  2.2504  0.2988
58469SOL    HW282458   0.204  10.678   8.138  0.3206 -0.8538 -1.7148
58470SOL     OW82459   9.005  11.136   9.171  0.7154  0.1228  0.1918
58470SOL    HW182460   8.968  11.065   9.224  1.5400 -0.4603  0.0126
58470SOL    HW282461   8.959  11.214   9.200 -1.7945 -0.7525 -1.1083
58471SOL     OW82462  11.722  11.718   1.823 -0.0917  1.1644 -0.1329
58471SOL    HW182463  11.695  11.693   1.912 -0.6142  0.4791 -0.4727
58471SOL    HW282464  11.797  11.776   1.836  1.0902 -0.4558  0.7224
58472SOL     OW82465   6.710   8.166   6.674 -0.0660  0.2583  0.2316
58472SOL    HW182466   6.719   8.076   6.642 -0.0177 -0.4848  2.1863
58472SOL    HW282467   6.787   8.179   6.730 -0.7726  1.0313  1.0439
58473SOL     OW82468   2.093   4.321   4.869  0.1115  0.3519 -0.3990
58473SOL    HW182469   2.104   4.332   4.963 -0.8913  1.3030 -0.3595
58473SOL    HW282470   2.179   4.293   4.837  0.3418 -0.4180  0.8460
58474SOL     OW82471  10.552   1.604   4.439  0.0691  0.7141 -0.1928
58474SOL    HW182472  10.566   1.511   4.427 -0.5903  0.5366  0.3869
58474SOL    HW282473  10.480   1.611   4.501 -1.7161  1.5878 -2.2102
58475SOL     OW82474  11.855  11.272   4.831  0.2967  0.0410 -0.0571
58475SOL    HW182475  11.862  11.198   4.890  1.1596  1.9064  2.3416
58475SOL    HW282476  11.763  11.298   4.836 -0.1342 -1.1215 -1.3285
58476SOL     OW82477   1.744   3.790   0.892 -0.0087  0.0081  0.3981
58476SOL    HW182478   1.816   3.745   0.847 -0.6825  0.6025 -1.3465
58476SOL    HW282479   1.667   3.738   0.871 -0.5597  1.1057 -0.3965
58477SOL     OW82480   3.419   6.569   2.905 -0.8161  0.0357  0.1433
58477SOL    HW182481   3.488   6.596   2.845  0.6147 -0.4483  1.5176
58477SOL    HW282482   3.441   6.479   2.930 -1.6745  0.0305  0.9733
58478SOL     OW82483   1.166   8.110   9.577  0.1737 -0.4823  0.0708
58478SOL    HW182484   1.099   8.148   9.635  0.3559  0.1495 -0.1255
58478SOL    HW282485   1.249   8.144   9.611  0.5467 -2.3940  1.1971
58479SOL     OW82486   2.640  12.302   0.887  0.1006  0.0718  0.3566
58479SOL    HW182487   2.614  12.299   0.795 -0.2984  1.6941  0.3954
58479SOL    HW282488   2.713  12.240   0.893 -1.5625 -2.1125 -0.4585
58480SOL     OW82489   8.399  10.411  11.652 -0.1883  0.1770 -0.3210
58480SOL    HW182490   8.357  10.346  11.596  0.8093 -0.2617 -0.5739
58480SOL    HW282491   8.367  10.495  11.619  1.2039  0.0015 -2.2804
58481SOL     OW82492   3.259  12.201   1.248  0.3224  0.4276  0.4415
58481SOL    HW182493   3.290  12.282   1.206  1.3317 -0.5476 -0.7596
58481SOL    HW282494   3.247  12.225   1.340  0.2919  2.0266  0.0492
58482SOL     OW82495   0.287   5.182   0.807  0.2760 -0.5982  0.3687
58482SOL    HW182496   0.289   5.263   0.857  0.4273  1.5881 -2.8836
58482SOL    HW282497   0.205   5.139   0.834 -0.2723  1.0715  1.5202
58483SOL     OW82498   1.554   9.037   7.441  0.2049 -0.2785 -0.8136
58483SOL    HW182499   1.473   9.058   7.490  1.0814  0.8057  0.2467
58483SOL    HW282500   1.597   8.970   7.494  0.8653  0.4594 -0.4014
58484SOL     OW82501   1.958   8.909   3.655  0.4414  0.2457 -0.1592
58484SOL    HW182502   2.030   8.882   3.599  0.2230 -0.8238  0.0464
58484SOL    HW282503   1.999   8.962   3.723  1.1737 -0.9964  0.3990
58485SOL     OW82504   8.669   7.495   0.754 -0.2706  0.1985  0.1418
58485SOL    HW182505   8.698   7.425   0.695 -0.0415  1.2553 -1.0360
58485SOL    HW282506   8.574   7.492   0.749 -0.2574  0.1124 -0.0981
58486SOL     OW82507   9.029   2.631  11.131 -0.3630 -0.0997 -0.1587
58486SOL    HW182508   8.980   2.711  11.149  1.7728  0.9097  1.6869
58486SOL    HW282509   9.056   2.639  11.040  1.3537  2.2949  0.4463
58487SOL     OW82510   0.071   4.377   1.012  0.2476  0.4082  0.2241
58487SOL    HW182511   0.082   4.373   0.917  1.1613 -2.0204  0.3662
58487SOL    HW282512  -0.023   4.389   1.024 -0.4507 -2.6880 -1.0636
58488SOL     OW82513   5.337   3.624   3.044  0.2028 -0.7027 -0.0928
58488SOL    HW182514   5.273   3.694   3.042  1.7054  0.7529  0.3054
58488SOL    HW282515   5.362   3.616   3.137  2.0877  0.2363 -0.4726
58489SOL     OW82516   0.987  11.867   8.399 -0.3054 -0.2656  0.3992
58489SOL    HW182517   0.959  11.952   8.431  2.1229  0.4709  0.7428
58489SOL    HW282518   1.069  11.884   8.352 -0.7206 -2.1589 -1.1699
58490SOL     OW82519  10.514   1.624  11.584 -0.3328 -0.2776  0.0487
58490SOL    HW182520  10.467   1.623  11.501 -0.8091  0.3596  0.3110
58490SOL    HW282521  10.457   1.671  11.644  0.0726 -0.6098  0.7065
58491SOL     OW82522  12.468   4.844   2.331  0.4852  0.2752 -0.2607
58491SOL    HW182523  12.458   4.842   2.236 -1.5422  0.0618 -0.0953
58491SOL    HW282524  12.380   4.824   2.364  0.8025  1.8065  1.6501
58492SOL     OW82525  10.540  12.554   6.624  0.2170  0.1258 -0.0235
58492SOL    HW182526  10.527  12.588   6.536 -1.6178  0.5670  0.3884
58492SOL    HW282527  10.624  12.507   6.619  0.0077 -0.1237 -2.0661
58493SOL     OW82528   7.546   0.569   3.103 -0.4547  0.4788  0.0481
58493SOL    HW182529   7.452   0.554   3.108 -0.5902  0.5382 -1.6437
58493SOL    HW282530   7.555   0.663   3.088 -0.0877  0.5532  0.6886
58494SOL     OW82531   5.796   7.688   6.214 -0.4189 -0.7645 -0.2425
58494SOL    HW182532   5.851   7.631   6.161  0.2371 -0.8481  0.5004
58494SOL    HW282533   5.708   7.653   6.203  0.0883 -2.6296  1.0062
58495SOL     OW82534   9.670   1.912   8.215  0.2783  0.2596  0.1116
58495SOL    HW182535   9.631   1.908   8.302 -2.6014 -0.2693 -1.0987
58495SOL    HW282536   9.609   1.864   8.159  2.0162  0.6159 -2.2241
58496SOL     OW82537   1.388  10.068   2.442 -0.3302 -0.2237  0.0654
58496SOL    HW182538   1.447   9.995   2.462 -0.1567 -0.7678 -2.2510
58496SOL    HW282539   1.353  10.049   2.355 -1.0877  1.9411 -0.1683
58497SOL     OW82540  11.189  10.039   0.907 -0.2909  0.2395  0.1606
58497SOL    HW182541  11.239  10.099   0.851 -0.2636  0.6196  0.5821
58497SOL    HW282542  11.146  10.096   0.970  1.0966 -0.2811  1.6449
58498SOL     OW82543   2.298   7.444   0.537  0.0159 -0.5588 -0.3389
58498SOL    HW182544   2.337   7.388   0.604  1.7214  0.6541 -0.2470
58498SOL    HW282545   2.349   7.525   0.541 -0.5442 -0.0463 -2.3688
58499SOL     OW82546   0.348   2.517   9.083  0.1340 -0.3110  0.0582
58499SOL    HW182547   0.387   2.467   9.155  1.8886  0.9073  0.0547
58499SOL    HW282548   0.268   2.554   9.120 -1.3856 -3.2828 -0.0563
58500SOL     OW82549   0.550   6.348   7.994  0.2426 -0.2432 -0.0974
58500SOL    HW182550   0.511   6.317   8.076  1.9109  2.2660  1.7872
58500SOL    HW282551   0.485   6.408   7.958 -0.2825 -0.9662 -0.3801
58501SOL     OW82552   3.508   6.375   7.598 -0.4068  0.5084 -0.0019
58501SOL    HW182553   3.507   6.365   7.503 -0.7316  4.4484 -0.5987
58501SOL    HW282554   3.590   6.420   7.617 -0.7503  0.5775  1.4627
58502SOL     OW82555   7.020   6.008   7.400  0.2326 -0.0069 -0.2881
58502SOL    HW182556   6.954   5.990   7.467 -0.6913 -1.1466 -1.4562
58502SOL    HW282557   7.060   6.091   7.427 -0.5563 -0.1022  1.2998
58503SOL     OW82558   7.922   0.005   7.316 -0.1077 -0.1499  0.1966
58503SOL    HW182559   7.973  -0.076   7.326  1.0926  0.5850  0.1464
58503SOL    HW282560   7.930   0.027   7.224  0.6344  0.7028  0.4532
58504SOL     OW82561   9.227   3.492   2.286 -0.2347  0.3426 -0.6293
58504SOL    HW182562   9.185   3.434   2.223  0.3040 -1.5512  0.6636
58504SOL    HW282563   9.321   3.474   2.276 -0.1257  0.2148  0.4824
58505SOL     OW82564   4.094   9.475   7.800  0.3179  0.7398 -0.0684
58505SOL    HW182565   4.018   9.422   7.777 -0.2161  0.4309  2.1659
58505SOL    HW282566   4.057   9.556   7.834  1.0614  1.3506 -0.6634
58506SOL     OW82567   0.507   7.934  10.984  0.1201 -0.2826  0.1768
58506SOL    HW182568   0.551   7.979  10.912 -0.9150 -0.0747 -0.3594
58506SOL    HW282569   0.415   7.962  10.976  0.0849  0.2676  1.9690
58507SOL     OW82570   2.716   7.468  10.213  0.0623 -0.2681 -0.0145
58507SOL    HW182571   2.663   7.403  10.260 -1.4730  0.5647 -0.5199
58507SOL    HW282572   2.803   7.429  10.209  0.1049 -0.6653  2.8900
58508SOL     OW82573   3.841   4.664   4.221 -0.0767 -0.4953 -0.3831
58508SOL    HW182574   3.846   4.571   4.241  0.1888 -0.0411  1.9770
58508SOL    HW282575   3.795   4.669   4.138 -0.2057 -2.7163 -0.4852
58509SOL     OW82576   0.755   6.023   6.653  0.1085 -0.0256  0.2246
58509SOL    HW182577   0.670   5.980   6.643 -1.2239  2.3206  0.6911
58509SOL    HW282578   0.812   5.957   6.693 -2.4701 -0.6738  3.1822
58510SOL     OW82579   7.537   9.619   6.373 -0.1004 -0.4400  0.2888
58510SOL    HW182580   7.473   9.553   6.402  2.7781 -3.4034  0.5571
58510SOL    HW282581   7.548   9.602   6.280  0.1162  0.1896  0.2006
58511SOL     OW82582   3.902   8.570  11.101  0.1870 -0.4556 -0.0147
58511SOL    HW182583   3.927   8.482  11.076 -0.4566 -0.7988  0.5025
58511SOL    HW282584   3.938   8.627  11.033  0.6291 -1.1157 -0.3292
58512SOL     OW82585   1.526   7.192   8.101 -0.1517 -0.1659 -0.3426
58512SOL    HW182586   1.540   7.253   8.029  0.5165 -1.1745 -1.0952
58512SOL    HW282587   1.559   7.108   8.068  1.2273 -0.4264  1.5367
58513SOL     OW82588   4.533   6.733   4.167 -0.4532  0.3622  0.1931
58513SOL    HW182589   4.583   6.766   4.242 -1.5025 -1.2252  1.6713
58513SOL    HW282590   4.541   6.638   4.173  0.7133  0.1906 -2.6746
58514SOL     OW82591   8.509  10.416   2.466 -0.0319  0.2361 -0.5311
58514SOL    HW182592   8.584  10.358   2.454  0.3793  0.1693  1.9415
58514SOL    HW282593   8.509  10.437   2.559 -1.2405  2.7845 -1.0226
58515SOL     OW82594   8.500   0.795   5.096  0.5421 -0.7199 -0.2059
58515SOL    HW182595   8.521   0.851   5.021  0.9692  0.2214  0.5927
58515SOL    HW282596   8.585   0.773   5.134  0.3524 -1.5902 -0.2775
58516SOL     OW82597  12.015   6.699  10.446  0.5966 -0.1425 -0.5174
58516SOL    HW182598  12.046   6.784  10.479  1.1419 -0.0900 -1.1507
58516SOL    HW282599  11.923   6.714  10.426  0.7770  0.4032 -0.9594
58517SOL     OW82600   1.514   0.054   9.413  0.3729  0.1476  0.0872
58517SOL    HW182601   1.494   0.133   9.464  0.7754  0.7595 -0.6744
58517SOL    HW282602   1.554   0.087   9.332  0.8695 -0.8550 -0.0944
58518SOL     OW82603  10.191   8.065   5.702  0.2885 -0.1256  0.1200
58518SOL    HW182604  10.217   8.060   5.610 -0.4157 -1.3182 -0.0235
58518SOL    HW282605  10.160   8.155   5.713  0.3990  0.0328 -0.7940
58519SOL     OW82606  12.182   0.929   9.369 -0.1198  0.6298 -0.1919
58519SOL    HW182607  12.126   0.851   9.368  0.8952 -0.1582  1.0060
58519SOL    HW282608  12.250   0.911   9.304  0.2802  0.3680  0.2895
58520SOL     OW82609  10.708   0.773   2.568 -0.5072 -0.6847  0.1134
58520SOL    HW182610  10.636   0.806   2.622  0.9987  0.4250  1.5725
58520SOL    HW282611  10.694   0.679   2.564 -1.5268 -0.6038  1.1794
58521SOL     OW82612   2.125   1.864  12.512  0.4892 -0.3199  0.4588
58521SOL    HW182613   2.197   1.867  12.575  0.3616 -1.5111  0.6845
58521SOL    HW282614   2.126   1.774  12.479  1.4147  0.5915 -2.2729
58522SOL     OW82615   8.282   7.638   7.490 -0.5222 -0.1821 -0.5618
58522SOL    HW182616   8.317   7.706   7.548  0.3236 -0.0896 -1.1648
58522SOL    HW282617   8.270   7.562   7.548  1.9250 -0.6307 -0.5241
58523SOL     OW82618  12.016   7.340   6.774  0.4034 -0.1236 -0.1049
58523SOL    HW182619  12.087   7.321   6.713 -0.3180  1.2829 -1.4357
58523SOL    HW282620  11.936   7.330   6.722 -0.1986  1.8739  0.3343
58524SOL     OW82621   4.162   4.053   4.022  0.5355  0.0015  0.5823
58524SOL    HW182622   4.122   3.990   4.081  1.2790 -1.4439 -0.4129
58524SOL    HW282623   4.123   4.137   4.047  1.8445 -0.2973  4.0418
58525SOL     OW82624   4.717   2.011   1.687 -0.1417  0.1200  0.8562
58525SOL    HW182625   4.778   2.047   1.622  0.1717  0.9587  1.5912
58525SOL    HW282626   4.714   1.918   1.667  2.1668 -0.1429  1.3838
58526SOL     OW82627   0.049   4.508   8.409 -0.2273  0.7526 -0.3596
58526SOL    HW182628   0.095   4.585   8.373 -1.1836  1.0137 -1.0683
58526SOL    HW282629   0.118   4.458   8.453  0.6497  1.3891 -0.9538
58527SOL     OW82630   2.930  12.186   8.066 -0.3208  0.2021 -0.0121
58527SOL    HW182631   2.968  12.112   8.113  0.3785 -0.4299 -1.5140
58527SOL    HW282632   3.004  12.246   8.054 -0.0804 -0.3929 -1.7081
58528SOL     OW82633   8.558   9.196  12.485  0.5442  0.3353 -0.1589
58528SOL    HW182634   8.553   9.101  12.496  0.7647  0.2878 -0.4374
58528SOL    HW282635   8.643   9.211  12.443  0.9656  0.7477  0.8059
58529SOL     OW82636   3.510   2.019   5.794  0.1950  0.0977  0.0746
58529SOL    HW182637   3.530   2.089   5.857  0.0420 -0.1640  0.4155
58529SOL    HW282638   3.595   1.984   5.770  0.1984 -0.6728  1.1354
58530SOL     OW82639   1.886   2.912   1.163  0.3518 -0.0546 -0.5204
58530SOL    HW182640   1.920   2.822   1.159 -0.0145 -0.2067 -0.3510
58530SOL    HW282641   1.839   2.915   1.247 -0.8696 -0.1525 -1.1742
58531SOL     OW82642   7.631   8.395   0.393  0.1305  0.0293  0.4993
58531SOL    HW182643   7.607   8.442   0.473  0.5231 -0.2002  0.7512
58531SOL    HW282644   7.611   8.457   0.323 -0.5335  0.1094  0.7460
58532SOL     OW82645  10.825   4.639   7.516 -0.3918  0.1181 -0.2543
58532SOL    HW182646  10.859   4.728   7.508 -0.5996  0.1417 -0.9091
58532SOL    HW282647  10.893   4.583   7.481 -0.2264  0.0078  0.2346
58533SOL     OW82648   4.859   2.630  11.062 -0.1090 -0.1463  0.0574
58533SOL    HW182649   4.936   2.621  11.118 -0.0820 -0.5917 -0.0536
58533SOL    HW282650   4.785   2.607  11.118 -0.2767  1.3055  0.4772
58534SOL     OW82651   4.697   7.354   6.069  0.1602  0.2685  0.2292
58534SOL    HW182652   4.718   7.293   5.998  0.1105  0.9747 -0.4102
58534SOL    HW282653   4.781   7.395   6.090  0.3177 -0.4930  1.1205
58535SOL     OW82654   2.250   9.250  11.106 -0.1898  0.3963 -0.8190
58535SOL    HW182655   2.222   9.322  11.051  0.6030  1.2222 -0.1726
58535SOL    HW282656   2.289   9.291  11.183 -2.3003 -0.7063  0.9532
58536SOL     OW82657   6.689   1.732   1.365 -0.1414  0.5247  0.0358
58536SOL    HW182658   6.681   1.746   1.459  0.3321 -1.5840  0.4588
58536SOL    HW282659   6.712   1.639   1.357  2.2286  1.1702 -2.0367
58537SOL     OW82660   0.382   4.706   3.840 -0.9793 -0.7074 -0.2977
58537SOL    HW182661   0.388   4.680   3.932  2.5353  0.0276 -0.1786
58537SOL    HW282662   0.384   4.623   3.792 -0.6088 -1.0295  0.2605
58538SOL     OW82663   4.183   1.168   2.928  0.1937 -0.0055  0.0909
58538SOL    HW182664   4.124   1.092   2.927  0.3691 -0.1787 -2.0596
58538SOL    HW282665   4.230   1.161   3.011 -1.3271 -1.0205  0.9138
58539SOL     OW82666   7.779   1.341  11.979 -0.0121  0.6992 -0.5701
58539SOL    HW182667   7.854   1.283  11.991 -1.0513 -0.3805  1.1005
58539SOL    HW282668   7.753   1.328  11.888  1.1830  0.3130 -0.8773
58540SOL     OW82669  11.177  10.269   8.195 -0.3049  0.8383 -0.1937
58540SOL    HW182670  11.121  10.192   8.186  0.5974  0.2479 -1.0394
58540SOL    HW282671  11.119  10.338   8.226 -1.0309 -0.3072  1.1115
58541SOL     OW82672   4.564   7.350  11.155 -0.1172 -0.2719 -0.4195
58541SOL    HW182673   4.587   7.421  11.215 -0.8055 -1.9614  2.0290
58541SOL    HW282674   4.510   7.391  11.088  0.7772  1.7525  0.0177
58542SOL     OW82675   4.732  11.587   8.459  0.6883 -0.1574 -0.3229
58542SOL    HW182676   4.693  11.509   8.498  3.1735 -1.0933  0.4416
58542SOL    HW282677   4.727  11.571   8.365  1.3955 -1.3753 -0.1713
58543SOL     OW82678  11.999   9.492   6.664 -0.7857 -0.1147  0.5687
58543SOL    HW182679  12.056   9.424   6.626 -0.7854  0.8425 -1.2783
58543SOL    HW282680  12.058   9.545   6.718 -0.1493  0.1531 -0.3566
58544SOL     OW82681   2.030   2.308  11.576 -0.4051 -0.2834 -0.4307
58544SOL    HW182682   2.036   2.232  11.633 -1.9227  0.1403  0.3562
58544SOL    HW282683   2.112   2.355  11.589 -0.1632 -0.9047  0.3471
58545SOL     OW82684   9.962  12.340  12.328 -0.3442  0.0944 -0.8996
58545SOL    HW182685   9.928  12.319  12.241 -2.0317  0.1264 -0.2837
58545SOL    HW282686  10.033  12.402  12.311  0.0431 -0.6792 -2.3023
58546SOL     OW82687   9.492   4.421   7.085  0.0315  0.0668  0.2213
58546SOL    HW182688   9.493   4.328   7.059 -0.2768  0.3334 -0.8064
58546SOL    HW282689   9.423   4.460   7.031 -0.2583  0.7815  1.0881
58547SOL     OW82690   8.060   7.532   2.517 -0.5399  0.3799  0.1578
58547SOL    HW182691   8.045   7.626   2.520  0.3725  0.5074  1.4724
58547SOL    HW282692   8.154   7.522   2.508 -0.2952 -0.3535  2.5621
58548SOL     OW82693   7.818   1.691   8.364  0.2674  0.8534 -0.0242
58548SOL    HW182694   7.784   1.771   8.405 -2.0363 -0.2418  0.3449
58548SOL    HW282695   7.801   1.622   8.427  1.4553 -0.0932 -0.6894
58549SOL     OW82696   2.478   3.616   3.818 -0.0485  0.4459 -0.1259
58549SOL    HW182697   2.400   3.632   3.765 -0.8929  1.1703  1.2848
58549SOL    HW282698   2.446   3.613   3.908  1.7832  2.7659  0.6936
58550SOL     OW82699  12.406   0.493  11.862  0.0660 -0.1876 -0.0484
58550SOL    HW182700  12.439   0.403  11.866 -2.8263 -1.3180  1.6153
58550SOL    HW282701  12.411   0.516  11.769  3.8397 -0.7451 -0.1495
58551SOL     OW82702   9.148  12.203   5.509  0.5474  0.1053 -0.6152
58551SOL    HW182703   9.137  12.199   5.414 -0.4709  2.1746 -0.6443
58551SOL    HW282704   9.091  12.133   5.542 -0.7807  0.7297 -1.4795
58552SOL     OW82705   7.143   4.624   1.230 -0.1480 -0.4149 -0.3386
58552SOL    HW182706   7.139   4.531   1.205  0.2926 -0.5317  0.0048
58552SOL    HW282707   7.148   4.623   1.325 -2.9729  0.0569 -0.0861
58553SOL     OW82708   5.502  11.647   5.458 -0.2016  0.3558 -0.5258
58553SOL    HW182709   5.544  11.651   5.544 -0.3380 -1.3557 -0.3497
58553SOL    HW282710   5.518  11.558   5.427 -1.7646  0.3572 -1.4481
58554SOL     OW82711   0.858   9.110  11.822  0.1703  0.0099 -0.6086
58554SOL    HW182712   0.763   9.102  11.816  0.0209  0.3525  0.8765
58554SOL    HW282713   0.873   9.198  11.855  1.0463  0.1497 -1.3183
58555SOL     OW82714   8.580   1.658   4.837  0.2674 -0.0787 -0.1653
58555SOL    HW182715   8.533   1.699   4.764 -0.4089  0.2220  0.4296
58555SOL    HW282716   8.598   1.569   4.807  1.5075  0.5302 -1.3729
58556SOL     OW82717   7.041   9.854   4.874  0.6194  0.0363 -0.2694
58556SOL    HW182718   6.981   9.790   4.836  1.4748 -0.6104 -0.5743
58556SOL    HW282719   7.069   9.815   4.957  1.1105  0.0245 -0.4357
58557SOL     OW82720  11.548   0.078   8.094 -0.2204 -0.2250  0.3113
58557SOL    HW182721  11.526   0.146   8.031 -0.2575 -0.1158  0.4419
58557SOL    HW282722  11.604   0.121   8.158 -0.7115 -0.1753  0.7108
58558SOL     OW82723   6.808   2.779   9.441  0.3941  0.0744  0.4016
58558SOL    HW182724   6.730   2.785   9.495  0.5654  0.5977  0.5949
58558SOL    HW282725   6.821   2.867   9.407  0.3878 -0.2154 -0.3538
58559SOL     OW82726   0.519  12.567   3.518  0.5225  0.2384 -0.2121
58559SOL    HW182727   0.475  12.614   3.588 -0.3991 -0.5757 -0.2237
58559SOL    HW282728   0.474  12.482   3.513 -0.2397  0.7018 -2.5550
58560SOL     OW82729   5.174   0.889  11.350 -0.0827 -0.2505 -0.5777
58560SOL    HW182730   5.164   0.820  11.284  0.3088  0.5245 -1.4736
58560SOL    HW282731   5.266   0.916  11.343 -0.2458  0.4118 -0.2999
58561SOL     OW82732   4.723   0.705   6.153 -0.0132 -0.4055  0.2363
58561SOL    HW182733   4.781   0.775   6.123  0.3749 -1.3214 -1.2623
58561SOL    HW282734   4.635   0.742   6.148  0.2109  0.0687 -0.3059
58562SOL     OW82735   6.152   5.316   6.610  0.4891 -0.5619 -0.0173
58562SOL    HW182736   6.103   5.313   6.528 -0.6592 -3.5671  0.6420
58562SOL    HW282737   6.211   5.242   6.606  2.5594  0.9466  0.7302
58563SOL     OW82738  11.395   8.868   8.196  0.0787 -0.7732 -0.2145
58563SOL    HW182739  11.305   8.893   8.215  0.1335  0.3558 -1.2686
58563SOL    HW282740  11.418   8.806   8.264 -0.5677  1.0272  1.7706
58564SOL     OW82741   4.825   2.773  11.408 -0.3287 -0.2294 -0.1487
58564SOL    HW182742   4.876   2.835  11.356  0.6370 -1.5792 -0.8788
58564SOL    HW282743   4.734   2.788  11.382 -0.5605  2.8816  1.8678
58565SOL     OW82744   5.182   4.196   6.595  0.3807 -0.2500 -0.2711
58565SOL    HW182745   5.129   4.244   6.531  0.4446 -0.4328 -0.4612
58565SOL    HW282746   5.247   4.260   6.624  1.5895 -0.6954 -1.8270
58566SOL     OW82747   6.571   2.726   7.389  0.0909  0.2302 -0.5140
58566SOL    HW182748   6.528   2.776   7.320 -0.0127 -1.6026 -1.8278
58566SOL    HW282749   6.647   2.779   7.413 -2.0762  2.9158  0.9698
58567SOL     OW82750   7.233  11.286   3.120  0.1105 -0.3895 -0.1064
58567SOL    HW182751   7.268  11.340   3.191  0.1606 -0.1345 -0.3241
58567SOL    HW282752   7.224  11.346   3.046  0.6574 -0.7958 -0.5100
58568SOL     OW82753   4.987   8.131   9.513  0.2608  0.5311 -0.2843
58568SOL    HW182754   4.979   8.177   9.429  2.6197  2.1153  0.2479
58568SOL    HW282755   4.898   8.125   9.547 -0.6021  0.8560 -2.3729
58569SOL     OW82756   5.094   7.688  10.433  0.0400 -0.3341  0.0282
58569SOL    HW182757   5.176   7.735  10.445  0.4577 -1.1895  0.5805
58569SOL    HW282758   5.028   7.743  10.477  0.1090  0.8926 -1.3263
58570SOL     OW82759   6.396   0.119  11.420 -0.5205 -0.4302  0.4511
58570SOL    HW182760   6.458   0.158  11.482 -1.6445  0.4773  1.0429
58570SOL    HW282761   6.436   0.036  11.395  0.8031  0.0105  1.0187
58571SOL     OW82762   1.644   0.594   7.077 -0.0331 -0.0339  0.2492
58571SOL    HW182763   1.584   0.626   7.010 -0.3276  0.4387  0.7305
58571SOL    HW282764   1.686   0.673   7.112  0.0017 -0.2568  0.7262
58572SOL     OW82765  10.977   7.576   7.800  0.2627  0.4790  0.0327
58572SOL    HW182766  10.944   7.493   7.833  1.5021 -0.2571 -0.4912
58572SOL    HW282767  10.917   7.600   7.730  0.5103 -0.5450 -0.5430
58573SOL     OW82768   5.056   2.219   5.163 -0.2172  0.2982  0.5828
58573SOL    HW182769   5.056   2.299   5.215 -0.5897  1.4898 -1.1656
58573SOL    HW282770   5.129   2.230   5.102 -1.8893  0.5581 -1.4516
58574SOL     OW82771   1.182   3.736  12.058  0.3172  0.4692 -0.1301
58574SOL    HW182772   1.193   3.652  12.104 -0.6272 -0.1824 -1.0574
58574SOL    HW282773   1.127   3.715  11.983 -0.7319  2.1134  0.1296
58575SOL     OW82774   0.738  10.569   5.220 -0.4378  0.0296 -0.6998
58575SOL    HW182775   0.650  10.532   5.225  0.0907 -1.4093 -1.2967
58575SOL    HW282776   0.732  10.638   5.153 -1.4369  1.0300  0.3875
58576SOL     OW82777   9.050   4.376   0.921 -0.5974 -0.9235  0.5010
58576SOL    HW182778   8.998   4.370   0.841 -0.4956  3.5838 -0.1875
58576SOL    HW282779   8.986   4.388   0.991 -0.6133 -0.2963  0.3844
58577SOL     OW82780  11.796   0.457   3.583 -0.1737 -0.4135 -0.0156
58577SOL    HW182781  11.802   0.522   3.513 -0.6402 -0.6803 -0.3132
58577SOL    HW282782  11.838   0.379   3.547  1.7398  0.1432  0.8885
58578SOL     OW82783   9.654   2.055   6.436 -0.3019 -0.1490 -0.9000
58578SOL    HW182784   9.666   2.022   6.347  1.3202  1.2240 -1.2428
58578SOL    HW282785   9.743   2.072   6.468 -0.8064 -1.0097  1.1774
58579SOL     OW82786   1.935   4.168  11.784 -0.1335 -0.3153 -0.2733
58579SOL    HW182787   1.967   4.095  11.836  1.1680  0.6259  0.2866
58579SOL    HW282788   1.843   4.146  11.766  0.2852 -2.1561 -0.2885
58580SOL     OW82789   9.135   6.835   1.440 -0.1706 -0.1443  0.0934
58580SOL    HW182790   9.057   6.890   1.448 -0.6228 -0.6294 -0.8682
58580SOL    HW282791   9.177   6.864   1.359  0.3338 -0.2825  0.3000
58581SOL     OW82792   8.396   3.214   7.685 -0.1538  0.0205 -0.1602
58581SOL    HW182793   8.470   3.269   7.709 -1.5392  1.7635  0.3469
58581SOL    HW282794   8.405   3.201   7.591  1.3874 -0.7794  0.0608
58582SOL     OW82795   4.382   5.025   1.517 -0.1903 -0.0248  0.7171
58582SOL    HW182796   4.340   4.946   1.551  1.1285 -0.6185  1.0393
58582SOL    HW282797   4.333   5.047   1.438 -0.8852 -0.8754  0.9043
58583SOL     OW82798  11.951   8.373   4.236 -0.2920 -0.4257 -0.5762
58583SOL    HW182799  11.895   8.332   4.302 -0.1692 -0.1344 -0.2867
58583SOL    HW282800  11.970   8.303   4.174  0.6734 -1.0635  0.4026
58584SOL     OW82801   0.811   8.551   9.415 -0.2241 -0.4153  1.1621
58584SOL    HW182802   0.780   8.526   9.501 -1.4139 -1.0269  0.5812
58584SOL    HW282803   0.738   8.599   9.376  0.4675  0.2629  0.6560
58585SOL     OW82804  11.694   4.063  12.517  0.1455  0.4247  0.2060
58585SOL    HW182805  11.757   4.030  12.581  0.2744  1.2510  0.5267
58585SOL    HW282806  11.716   4.156  12.508 -0.3606  0.4880 -0.4704
58586SOL     OW82807   1.282   3.906   6.004  0.4101 -0.8216 -0.1600
58586SOL    HW182808   1.283   3.885   5.910 -0.2249  1.1040 -0.6446
58586SOL    HW282809   1.335   3.986   6.011  1.1077 -1.3663  1.2676
58587SOL     OW82810   6.675   8.680   8.837 -0.1995  1.0660 -0.1734
58587SOL    HW182811   6.624   8.665   8.917 -0.9158  1.9976 -0.4433
58587SOL    HW282812   6.766   8.676   8.866 -0.3285 -1.5301  0.1633
58588SOL     OW82813  12.428   0.214   3.102 -0.0594 -0.1342  0.5357
58588SOL    HW182814  12.376   0.287   3.136 -0.5172  0.3556 -1.1143
58588SOL    HW282815  12.364   0.157   3.059  0.7437  0.7869 -2.0790
58589SOL     OW82816  12.508   5.836   1.825  0.3251  0.2324  0.4987
58589SOL    HW182817  12.478   5.804   1.910 -1.1810 -0.1094 -0.1321
58589SOL    HW282818  12.578   5.776   1.800  0.7433  0.3033  1.4667
58590SOL     OW82819   5.465  11.780  10.097 -0.3793 -0.0974 -0.3817
58590SOL    HW182820   5.401  11.825  10.043 -0.6987 -1.9515 -1.6615
58590SOL    HW282821   5.501  11.712  10.040  1.7229 -0.0100  0.7381
58591SOL     OW82822   9.170   0.742  10.246  0.0674  0.1785 -0.0323
58591SOL    HW182823   9.252   0.728  10.200 -0.1228 -1.3858  0.0224
58591SOL    HW282824   9.195   0.752  10.338  0.2042 -0.5672  0.0230
58592SOL     OW82825   7.981  11.560   9.691  0.0903 -0.3551 -0.1657
58592SOL    HW182826   7.893  11.593   9.672  0.5922  0.7254 -0.7001
58592SOL    HW282827   8.001  11.501   9.619 -0.5033 -1.2370  0.3780
58593SOL     OW82828   3.674  12.160   4.008  0.0512 -0.3140  0.1583
58593SOL    HW182829   3.658  12.252   3.987 -0.9370 -0.5982 -0.3859
58593SOL    HW282830   3.673  12.156   4.103 -1.1888  0.0405  0.1787
58594SOL     OW82831   2.097   4.729   8.471  0.1438 -0.2568  0.2164
58594SOL    HW182832   2.004   4.717   8.452  0.2786  0.5193 -1.0738
58594SOL    HW282833   2.114   4.821   8.451  1.2099 -0.4164  0.3366
58595SOL     OW82834   2.702   2.186  10.843  0.1979  0.0039 -1.3926
58595SOL    HW182835   2.750   2.256  10.888  1.6127 -0.0319 -2.7714
58595SOL    HW282836   2.628   2.167  10.901  0.4767  1.7686 -0.3791
58596SOL     OW82837   4.881  11.309   7.524  0.0366  0.7123 -0.4685
58596SOL    HW182838   4.846  11.309   7.435 -0.8834  0.3239 -0.1183
58596SOL    HW282839   4.805  11.293   7.580  0.5636  1.1920  0.4095
58597SOL     OW82840   8.018   0.786  12.224 -0.1804 -0.3433  0.7821
58597SOL    HW182841   8.075   0.754  12.154 -1.3382 -1.1801  0.1880
58597SOL    HW282842   7.935   0.739  12.211 -1.8171  2.4698  0.2299
58598SOL     OW82843   3.732   4.473   7.355  0.0304 -0.2178  0.1102
58598SOL    HW182844   3.666   4.438   7.415 -0.9898  1.5936  0.1188
58598SOL    HW282845   3.767   4.396   7.311 -0.7494 -1.4008  1.4485
58599SOL     OW82846   8.302  12.091  10.819 -0.2516 -0.1260 -0.3614
58599SOL    HW182847   8.338  12.087  10.908 -0.2298 -1.9031 -0.4225
58599SOL    HW282848   8.210  12.114  10.832 -0.2024 -0.1769  0.1004
58600SOL     OW82849   0.683   8.594   2.818 -0.5293  0.2623 -0.0321
58600SOL    HW182850   0.635   8.512   2.832  0.1062 -0.2047 -0.5048
58600SOL    HW282851   0.662   8.618   2.728 -1.2782  1.0085  0.3324
58601SOL     OW82852  10.723   5.018   8.563  0.1002  0.2118 -0.0837
58601SOL    HW182853  10.681   4.954   8.504  0.7710 -0.4219  0.1082
58601SOL    HW282854  10.790   5.060   8.509 -0.8176  1.2919 -0.4180
58602SOL     OW82855   2.060   5.573   1.091 -0.1203 -0.2013  0.3268
58602SOL    HW182856   2.015   5.657   1.092  0.7065  0.2822 -0.8952
58602SOL    HW282857   2.002   5.516   1.039 -1.0010 -0.6168  1.6954
58603SOL     OW82858  10.189   6.869   9.300 -0.6923 -0.2753  0.4341
58603SOL    HW182859  10.266   6.816   9.279  0.4112  0.8312  1.5454
58603SOL    HW282860  10.218   6.927   9.370 -2.1291  1.1657 -0.1070
58604SOL     OW82861   5.423   7.179   2.696 -0.1684  0.4026  0.3394
58604SOL    HW182862   5.503   7.179   2.644  0.1062  0.2153  0.7635
58604SOL    HW282863   5.353   7.177   2.630  0.1815 -1.5946 -0.0508
58605SOL     OW82864  10.425  11.567   0.943 -0.1306  0.7101 -0.4259
58605SOL    HW182865  10.338  11.532   0.925 -0.0456  0.6037 -0.6247
58605SOL    HW282866  10.475  11.553   0.863 -0.1581  1.4804 -0.5864
58606SOL     OW82867   7.713   6.085   3.668 -0.0829 -0.8944  0.8093
58606SOL    HW182868   7.715   6.003   3.718  0.7689 -1.0269  0.5706
58606SOL    HW282869   7.788   6.135   3.702 -0.2922 -0.4287  0.5907
58607SOL     OW82870   1.451   3.860   7.201 -0.0205 -0.4550  0.3919
58607SOL    HW182871   1.500   3.810   7.265 -2.0020 -0.9502  1.6117
58607SOL    HW282872   1.509   3.931   7.175  0.1104  1.1547  4.4624
58608SOL     OW82873   3.027   4.273   9.779  0.0505 -0.0059 -0.0624
58608SOL    HW182874   3.103   4.289   9.723  1.2818 -1.4999  1.0747
58608SOL    HW282875   3.012   4.357   9.823  2.0896 -0.0633  0.8699
58609SOL     OW82876   8.870   5.661  10.150  0.0491 -0.1932  0.4265
58609SOL    HW182877   8.965   5.670  10.156 -0.0156 -0.0809  1.4397
58609SOL    HW282878   8.838   5.751  10.139 -0.0269 -0.0438  1.6928
58610SOL     OW82879   4.556   0.552   4.677  0.6195  0.0941  0.1014
58610SOL    HW182880   4.600   0.572   4.594  1.1899  0.3901  0.4700
58610SOL    HW282881   4.471   0.517   4.651  0.8010  0.1661 -0.6111
58611SOL     OW82882   1.808   2.307  11.447  0.0576 -0.0194 -0.0016
58611SOL    HW182883   1.893   2.311  11.491  0.3925 -1.6945 -0.4320
58611SOL    HW282884   1.750   2.264  11.509 -0.0543 -0.3228 -0.3096
58612SOL     OW82885   3.984  12.159   2.184  0.3722  0.4271  0.5043
58612SOL    HW182886   3.951  12.107   2.257  1.5693 -0.7174  0.2882
58612SOL    HW282887   4.076  12.175   2.206  0.4831  0.9250 -0.2716
58613SOL     OW82888   7.614   5.013   0.677  0.1661  0.2772  0.1449
58613SOL    HW182889   7.709   5.008   0.691  0.3968  1.8217 -0.6167
58613SOL    HW282890   7.580   4.932   0.715  1.6608  0.2275  1.4899
58614SOL     OW82891   3.805   9.461   4.452  0.1628  0.0724 -0.3186
58614SOL    HW182892   3.720   9.416   4.448  0.1008  0.0598  0.7383
58614SOL    HW282893   3.813   9.505   4.368 -0.2882 -1.0120 -0.9466
58615SOL     OW82894   9.735   3.857   3.596 -0.5996 -0.2939  0.9084
58615SOL    HW182895   9.735   3.885   3.687 -0.6746 -0.6233  1.0105
58615SOL    HW282896   9.793   3.781   3.594  0.9024  0.8099  0.3316
58616SOL     OW82897  11.148   1.940   8.558 -0.2837  0.7542 -0.1987
58616SOL    HW182898  11.174   2.014   8.503  1.7570  0.2016 -0.0659
58616SOL    HW282899  11.224   1.881   8.557 -2.2120 -1.9325 -1.2106
58617SOL     OW82900  12.363  11.813   6.254  0.1398 -0.7626 -0.5140
58617SOL    HW182901  12.339  11.873   6.324  2.4006 -0.1260 -0.2248
58617SOL    HW282902  12.300  11.741   6.262 -1.2547  0.5022  0.5008
58618SOL     OW82903   9.936   3.052   1.481  0.0748  0.3443 -0.7881
58618SOL    HW182904   9.992   3.103   1.422 -1.0785  2.0537 -0.5011
58618SOL    HW282905   9.958   3.085   1.569 -0.6963  0.3628 -0.5956
58619SOL     OW82906   2.798   0.013   5.817 -0.1880 -0.3225  0.5763
58619SOL    HW182907   2.821  -0.050   5.885  1.5438 -1.4505 -0.9658
58619SOL    HW282908   2.757  -0.040   5.749  0.3964  0.3519 -0.3205
58620SOL     OW82909   0.646  11.906   7.035  0.0575 -0.4706 -0.2507
58620SOL    HW182910   0.711  11.930   7.101  0.8128 -1.8120 -0.4873
58620SOL    HW282911   0.564  11.900   7.084  0.0607  1.2860  0.0444
58621SOL     OW82912   2.884   5.446  10.013  0.0495  0.2526 -0.1376
58621SOL    HW182913   2.893   5.437  10.107 -1.1101  1.1291  0.0895
58621SOL    HW282914   2.882   5.356   9.980 -0.7305 -0.0999  0.8163
58622SOL     OW82915   7.306   8.772  11.407 -0.7477 -0.1717 -0.5195
58622SOL    HW182916   7.295   8.727  11.491  0.3148 -0.7330 -0.6616
58622SOL    HW282917   7.224   8.821  11.395 -0.4828  0.8478  1.3933
58623SOL     OW82918   9.311   5.647   0.915  0.1198 -0.5841 -0.0034
58623SOL    HW182919   9.347   5.662   0.827 -1.5027 -2.7273 -1.1251
58623SOL    HW282920   9.280   5.556   0.913 -0.5942 -0.4730  2.5818
58624SOL     OW82921  12.333  11.817   7.715 -0.0261  0.2679 -0.1827
58624SOL    HW182922  12.421  11.847   7.739 -0.7344  1.9949  0.4502
58624SOL    HW282923  12.275  11.860   7.778 -1.2784 -1.5719  0.0115
58625SOL     OW82924   7.028   5.937   8.600 -0.6182 -0.5407 -0.6035
58625SOL    HW182925   7.083   5.860   8.613  1.7155  0.9574 -0.9934
58625SOL    HW282926   7.036   5.957   8.507  0.5704  1.3091 -0.1750
58626SOL     OW82927   9.500  10.133   9.409  0.2144 -0.0494  0.0627
58626SOL    HW182928   9.529  10.054   9.455 -0.4890  0.8580  2.1829
58626SOL    HW282929   9.481  10.196   9.478 -1.0098  1.3890 -1.4839
58627SOL     OW82930   5.678   9.235  11.178  0.0825  0.4747  0.1612
58627SOL    HW182931   5.627   9.248  11.099  0.5913 -0.8886 -0.4168
58627SOL    HW282932   5.765   9.269  11.157  0.4922 -0.7732 -0.2233
58628SOL     OW82933   8.634   5.835   5.830  0.1359 -0.1005  0.2828
58628SOL    HW182934   8.646   5.769   5.762  0.6073  2.1491 -1.9731
58628SOL    HW282935   8.641   5.787   5.912  0.9137 -2.7389 -1.2230
58629SOL     OW82936   4.113   5.511   5.818 -0.1759 -0.5312  0.2439
58629SOL    HW182937   4.131   5.417   5.814  1.2409 -0.3841  1.9039
58629SOL    HW282938   4.198   5.552   5.834 -0.8244  1.0081 -0.0472
58630SOL     OW82939   5.480   5.455  10.400  0.1505  0.1261 -0.0170
58630SOL    HW182940   5.521   5.371  10.384 -2.0559 -0.6987 -1.9719
58630SOL    HW282941   5.444   5.481  10.315 -0.2569  2.4676  0.7907
58631SOL     OW82942   0.834   5.316  10.136 -0.1680 -0.2580 -0.3029
58631SOL    HW182943   0.890   5.394  10.128 -0.3556 -0.2351 -1.7214
58631SOL    HW282944   0.856   5.279  10.221  1.9691 -0.2236 -0.7792
58632SOL     OW82945   3.424  12.568   6.124  0.1917  0.2588 -0.4087
58632SOL    HW182946   3.409  12.628   6.052 -0.2672  0.6167 -0.0262
58632SOL    HW282947   3.516  12.544   6.118  0.5617  1.5492 -0.1593
58633SOL     OW82948   9.883  12.173   9.406 -0.5416  0.5612  0.0814
58633SOL    HW182949   9.812  12.210   9.354  0.5367  0.2171 -1.7010
58633SOL    HW282950   9.856  12.082   9.422  0.1295 -0.0468 -1.9292
58634SOL     OW82951   7.993   9.946   4.753 -0.2842  0.4815 -0.4151
58634SOL    HW182952   8.054   9.938   4.680  0.0508 -1.0012 -0.0016
58634SOL    HW282953   7.995   9.860   4.796 -2.5561  0.4366 -0.3074
58635SOL     OW82954   4.475   1.562  11.463 -0.4160 -0.1962 -0.1807
58635SOL    HW182955   4.480   1.470  11.487 -0.1177 -0.2726 -0.5198
58635SOL    HW282956   4.395   1.569  11.411 -1.0135 -0.0478  0.7392
58636SOL     OW82957  10.152   8.822  11.150 -0.3665  0.9133  0.1199
58636SOL    HW182958  10.207   8.762  11.201  1.0263  1.6149 -0.5088
58636SOL    HW282959  10.062   8.795  11.170  0.1848 -1.7885 -0.5914
58637SOL     OW82960   4.969   3.224   7.213  0.9040  0.1344  0.2585
58637SOL    HW182961   4.960   3.266   7.128  0.0193  0.8125  0.6719
58637SOL    HW282962   4.993   3.295   7.273  0.2821 -0.0980  0.7972
58638SOL     OW82963   1.859   7.261   9.241  0.8479  0.6478  0.1235
58638SOL    HW182964   1.764   7.246   9.244  0.8729  0.6712  1.9387
58638SOL    HW282965   1.886   7.264   9.332  2.7091  0.0818 -0.3559
58639SOL     OW82966  11.690   4.438   0.091  0.1740  0.2429  0.3631
58639SOL    HW182967  11.604   4.396   0.087  0.6539 -0.9386  1.6089
58639SOL    HW282968  11.675   4.526   0.055 -1.0411 -0.6732 -1.5676
58640SOL     OW82969   9.838  11.108   1.590  0.8016 -0.2080  0.5386
58640SOL    HW182970   9.841  11.114   1.686  0.3548 -0.5945  0.5788
58640SOL    HW282971   9.774  11.040   1.572 -0.3946  1.0253 -0.0646
58641SOL     OW82972   1.790  10.132   4.440 -0.0559 -0.7570 -0.1445
58641SOL    HW182973   1.884  10.143   4.426 -0.3173  1.2410 -0.7932
58641SOL    HW282974   1.770  10.045   4.407  1.6760 -1.5268  0.7215
58642SOL     OW82975  12.184   8.078  11.901  0.7764 -0.2805  0.0576
58642SOL    HW182976  12.207   8.074  11.808  1.1438  1.0577  0.0747
58642SOL    HW282977  12.250   8.135  11.939 -0.0415  0.0969  0.9373
58643SOL     OW82978   4.977   7.680   0.044  0.1978  0.3149 -0.0698
58643SOL    HW182979   4.931   7.733  -0.021  0.4287 -1.3664 -1.6885
58643SOL    HW282980   5.035   7.742   0.089 -0.6434  1.6936 -0.7981
58644SOL     OW82981   1.884  12.335  10.979 -0.1968  0.3209  0.1398
58644SOL    HW182982   1.905  12.281  11.055  1.8728  0.7585 -0.0789
58644SOL    HW282983   1.886  12.273  10.905 -2.0611 -0.0746  0.3537
58645SOL     OW82984   8.971  12.162   7.387 -0.1396 -0.0839  0.1535
58645SOL    HW182985   8.966  12.067   7.398  0.5459  0.1257  3.1728
58645SOL    HW282986   9.039  12.176   7.321 -1.4702 -1.6535 -1.6624
58646SOL     OW82987   9.161   5.021   1.837 -0.0255 -0.0555  0.1510
58646SOL    HW182988   9.214   5.002   1.914  0.7970 -0.5307 -0.5159
58646SOL    HW282989   9.219   5.003   1.763 -1.5703 -2.0453 -0.6516
58647SOL     OW82990   9.620   6.803   3.611 -0.1438  0.3383 -0.4303
58647SOL    HW182991   9.589   6.740   3.547  0.8741  0.9123 -1.5202
58647SOL    HW282992   9.586   6.771   3.695 -0.4083 -1.1373 -1.0753
58648SOL     OW82993  12.043   7.605   2.200  0.2393 -0.4963  0.4486
58648SOL    HW182994  12.119   7.554   2.228 -1.1114 -2.3365  1.0271
58648SOL    HW282995  12.003   7.551   2.131 -1.4405 -0.4270  1.3178
58649SOL     OW82996  10.866   6.843   1.090  0.0239 -0.5145 -0.1799
58649SOL    HW182997  10.896   6.812   1.176 -0.8993 -0.8399  0.0335
58649SOL    HW282998  10.775   6.815   1.085 -0.4646  1.0517 -0.5250
58650SOL     OW82999   7.441   2.878   5.581  0.4468 -0.1542 -0.5852
58650SOL    HW183000   7.406   2.798   5.543 -1.0707 -0.9920  2.2684
58650SOL    HW283001   7.368   2.940   5.577  0.5269  0.0000  0.1465
58651SOL     OW83002   4.210  11.861  10.807  0.3545 -0.0533 -0.3237
58651SOL    HW183003   4.304  11.878  10.810  0.3911 -0.1948 -0.6790
58651SOL    HW283004   4.196  11.794  10.874  0.3645  0.6149  0.3698
58652SOL     OW83005   5.181  12.496   3.780 -0.4165 -0.0793 -0.0471
58652SOL    HW183006   5.254  12.464   3.832  0.6170  2.4723  0.2091
58652SOL    HW283007   5.116  12.525   3.844 -0.1424  0.8948 -0.2010
58653SOL     OW83008   8.412  12.405   2.833 -0.1044  0.2158  0.0100
58653SOL    HW183009   8.475  12.477   2.839 -0.0726  0.2268 -0.3808
58653SOL    HW283010   8.463  12.333   2.796 -0.7181  0.7523 -2.0453
58654SOL     OW83011   5.148   9.134   0.403  0.4491 -0.0635  0.3877
58654SOL    HW183012   5.159   9.083   0.483  1.4447  0.7579  0.7836
58654SOL    HW283013   5.153   9.225   0.431 -0.6697  0.2682 -0.4096
58655SOL     OW83014   8.760   6.153   4.743 -0.3236  0.1796  0.1410
58655SOL    HW183015   8.757   6.246   4.719 -0.7644 -0.1973 -1.3487
58655SOL    HW283016   8.705   6.147   4.821  2.0251  1.6369  2.0861
58656SOL     OW83017   2.582   5.449   6.669  0.4520 -0.6415  0.0253
58656SOL    HW183018   2.523   5.454   6.593 -0.3713 -2.0876  0.5188
58656SOL    HW283019   2.607   5.356   6.673  2.8616 -0.0720 -0.2044
58657SOL     OW83020   2.096   0.075   6.426 -0.0659  0.3859 -0.5593
58657SOL    HW183021   2.090  -0.019   6.411 -1.4187 -0.0696  2.1379
58657SOL    HW283022   2.190   0.093   6.435  0.1500 -0.9746  0.1384
58658SOL     OW83023   5.329   9.185   5.186  0.0013 -0.4426 -0.5393
58658SOL    HW183024   5.258   9.237   5.223 -0.2709  0.1001 -1.7630
58658SOL    HW283025   5.369   9.141   5.261 -2.3695 -1.7178  0.0647
58659SOL     OW83026   7.947   7.608   5.064  0.5238  0.1222 -0.3614
58659SOL    HW183027   7.936   7.699   5.089  1.4548  0.6981 -1.9488
58659SOL    HW283028   7.924   7.559   5.143  0.5250  1.7373  0.6834
58660SOL     OW83029  12.567   1.641   4.734  0.3176 -0.1322  0.0179
58660SOL    HW183030  12.619   1.627   4.654  0.2087 -0.5474  0.0216
58660SOL    HW283031  12.520   1.723   4.717  1.1726  0.3959  0.1191
58661SOL     OW83032  10.474   8.228  10.811 -0.1287  0.5115 -0.0328
58661SOL    HW183033  10.554   8.279  10.827  0.9753 -1.3526  0.7403
58661SOL    HW283034  10.441   8.208  10.898 -0.5132 -0.1008 -0.3126
58662SOL     OW83035   7.148   9.712   7.317  0.2967  0.2402  0.1585
58662SOL    HW183036   7.228   9.720   7.370  0.3825 -0.6460  0.1777
58662SOL    HW283037   7.168   9.761   7.237  0.8515  0.0495  0.1715
58663SOL     OW83038   3.678   6.849   0.787 -0.2167  0.2311  0.9735
58663SOL    HW183039   3.590   6.866   0.753 -0.7581 -4.6552 -0.8875
58663SOL    HW283040   3.731   6.837   0.708  1.3773  0.1163  2.0356
58664SOL     OW83041  10.117   0.430   5.023  0.0402 -0.0170  0.3375
58664SOL    HW183042  10.118   0.519   4.989 -1.1892 -0.2034 -0.2477
58664SOL    HW283043  10.207   0.400   5.015  0.5332  1.2734  0.8308
58665SOL     OW83044  11.013   8.180   5.488  0.2783 -0.0491 -0.5018
58665SOL    HW183045  11.067   8.221   5.420  0.2648 -0.3886 -0.7193
58665SOL    HW283046  10.930   8.161   5.445  0.1223  0.1165 -0.2735
58666SOL     OW83047   1.904   1.071   7.205  0.0627 -0.3559  0.5380
58666SOL    HW183048   1.812   1.053   7.186 -0.1051 -0.3281  1.2745
58666SOL    HW283049   1.924   1.151   7.157 -0.8896  0.8072  1.9881
58667SOL     OW83050   3.678   2.957   8.985  0.7070  0.2422 -0.4373
58667SOL    HW183051   3.658   2.908   9.065 -1.0386 -0.0737 -1.0252
58667SOL    HW283052   3.605   3.017   8.974  1.4834  1.0857 -1.2035
58668SOL     OW83053   5.782   2.140   2.102 -0.1504 -0.1592 -0.0277
58668SOL    HW183054   5.790   2.204   2.032 -1.2485 -0.7879 -0.7532
58668SOL    HW283055   5.822   2.061   2.068 -1.7207 -0.8157 -0.4313
58669SOL     OW83056   0.469   7.360  12.521  0.3365  0.3456  0.8902
58669SOL    HW183057   0.533   7.291  12.502  0.2127  0.5396 -0.3142
58669SOL    HW283058   0.396   7.343  12.462 -0.6209  0.3151  2.0300
58670SOL     OW83059   2.589   3.760   4.120 -0.0239 -0.5511  0.1049
58670SOL    HW183060   2.655   3.787   4.184 -0.9455 -1.3239  1.4531
58670SOL    HW283061   2.591   3.664   4.124 -1.4811 -0.5800  0.4628
58671SOL     OW83062   1.583   1.648   3.308  0.3965 -0.2167 -0.1935
58671SOL    HW183063   1.542   1.656   3.221  1.3153  0.5509 -0.5681
58671SOL    HW283064   1.550   1.565   3.342 -1.3489  0.2882 -0.5418
58672SOL     OW83065  12.229  10.253   7.562  0.4307  0.4003 -0.4361
58672SOL    HW183066  12.182  10.182   7.606  1.6371 -1.1945 -1.5764
58672SOL    HW283067  12.163  10.298   7.510 -0.1495 -0.7018 -0.6694
58673SOL     OW83068  11.057  11.477   7.249  0.1813  0.2319  0.0402
58673SOL    HW183069  11.067  11.536   7.174 -0.1902  0.8505  0.4687
58673SOL    HW283070  11.146  11.451   7.271  0.3480  0.5992 -0.1872
58674SOL     OW83071   5.851   2.188  10.966 -0.2014  0.2887 -0.1854
58674SOL    HW183072   5.756   2.196  10.954 -0.3962 -1.5558 -0.1230
58674SOL    HW283073   5.860   2.132  11.043  0.9126 -0.8841 -1.1315
58675SOL     OW83074  10.716  12.406   1.686 -0.1363 -0.3570  0.0103
58675SOL    HW183075  10.696  12.498   1.701 -4.2635 -1.0329 -0.1655
58675SOL    HW283076  10.752  12.403   1.597  1.6491  1.1655  0.6177
58676SOL     OW83077   8.137   5.120   5.502 -0.0064 -0.3983 -0.0478
58676SOL    HW183078   8.133   5.106   5.596 -0.9400  0.2851  0.0280
58676SOL    HW283079   8.205   5.186   5.490 -0.1979 -0.1579  0.1900
58677SOL     OW83080  10.510   7.636  10.009 -0.5472 -0.2534  0.1634
58677SOL    HW183081  10.525   7.580  10.085 -0.7855 -0.3714  0.1252
58677SOL    HW283082  10.415   7.645  10.004 -0.6908 -1.9710 -1.3436
58678SOL     OW83083   0.610   7.140   3.826  0.4586  0.6936 -0.2391
58678SOL    HW183084   0.687   7.169   3.777  1.3884 -0.0926  0.6994
58678SOL    HW283085   0.622   7.045   3.835 -0.0500  0.7182  0.8734
58679SOL     OW83086   4.521   8.160   2.678 -0.1519  0.0658 -0.5072
58679SOL    HW183087   4.508   8.159   2.583 -0.9273  0.5517 -0.4155
58679SOL    HW283088   4.603   8.113   2.691 -1.4185 -2.5384 -1.2112
58680SOL     OW83089   3.770   7.821   3.972  0.6819  0.1067  0.5988
58680SOL    HW183090   3.745   7.774   3.893  1.8088 -1.4266  1.1115
58680SOL    HW283091   3.820   7.758   4.023  1.5000  1.6086  1.7424
58681SOL     OW83092  12.197   4.699   7.884 -0.2977 -0.0430 -0.2787
58681SOL    HW183093  12.191   4.706   7.789  0.9829  2.9148 -0.2477
58681SOL    HW283094  12.290   4.690   7.902 -0.4113  0.6028  0.7257
58682SOL     OW83095   0.583   6.593   8.559 -0.4006  0.8331  0.3285
58682SOL    HW183096   0.554   6.683   8.543 -1.1733  0.2764 -1.6276
58682SOL    HW283097   0.515   6.538   8.522  1.3885 -0.5354 -1.1590
58683SOL     OW83098   0.634   7.280   9.635 -0.2005  0.0558  0.4212
58683SOL    HW183099   0.588   7.204   9.599  0.8864  0.1926 -1.4184
58683SOL    HW283100   0.700   7.241   9.693  0.6590 -0.4898 -0.8665
58684SOL     OW83101  11.611   1.003   9.634 -0.0801  0.1323 -0.1925
58684SOL    HW183102  11.550   1.073   9.612 -1.2677 -0.7447  0.2423
58684SOL    HW283103  11.691   1.049   9.662 -0.4129  1.2876 -1.0606
58685SOL     OW83104   2.506  11.855  11.296 -0.0771  0.5846  0.1421
58685SOL    HW183105   2.536  11.945  11.312  1.4131  0.6438 -2.4930
58685SOL    HW283106   2.584  11.802  11.307 -0.9703 -0.4683  1.7731
58686SOL     OW83107   2.309   5.596   1.202 -0.1801  0.7314 -0.0491
58686SOL    HW183108   2.380   5.587   1.139  0.0938  2.1097  0.0350
58686SOL    HW283109   2.230   5.575   1.153  0.1315  0.8431 -0.6009
58687SOL     OW83110   2.256   0.993   9.333  0.0479 -0.0367 -0.2980
58687SOL    HW183111   2.253   1.010   9.238 -1.3676 -1.5021 -0.5599
58687SOL    HW283112   2.339   0.946   9.346  0.5503  0.7212 -0.6938
58688SOL     OW83113   5.400   3.688   0.559  0.1236 -0.4585  0.4537
58688SOL    HW183114   5.357   3.660   0.479 -1.6470  0.7949  0.8958
58688SOL    HW283115   5.487   3.717   0.531 -0.0970 -1.0022 -0.8410
58689SOL     OW83116  11.162   5.949   4.244  0.0501 -0.1141 -0.3814
58689SOL    HW183117  11.202   5.870   4.207 -0.5897 -0.7508  0.2560
58689SOL    HW283118  11.181   5.944   4.337 -0.7061  0.0444 -0.2129
58690SOL     OW83119   8.125   3.574   0.248 -0.4225  0.9294  0.1107
58690SOL    HW183120   8.154   3.620   0.169  0.3404 -0.7861 -0.6607
58690SOL    HW283121   8.187   3.602   0.316 -0.9382  2.2307  0.0764
58691SOL     OW83122   7.101   6.973   2.454  0.0669  0.0847 -0.3361
58691SOL    HW183123   7.044   7.007   2.385  1.1476 -0.5322 -1.5990
58691SOL    HW283124   7.054   6.897   2.488 -0.4229  0.3116 -0.4937
58692SOL     OW83125   4.798   0.540   8.503  0.6169  0.4340  0.3376
58692SOL    HW183126   4.765   0.454   8.478  0.1946  0.6486  0.1523
58692SOL    HW283127   4.890   0.539   8.477  0.3235  0.4603 -0.7604
58693SOL     OW83128   5.543   8.120   5.434  0.1703 -0.1056  0.6783
58693SOL    HW183129   5.474   8.060   5.460 -0.3640  0.1170 -0.1799
58693SOL    HW283130   5.614   8.104   5.497 -0.6150 -0.4015  1.5182
58694SOL     OW83131   1.838   2.799   0.559  0.3989 -0.9354  0.7018
58694SOL    HW183132   1.776   2.780   0.488 -1.4712 -0.5315  2.1552
58694SOL    HW283133   1.917   2.750   0.535  0.7064  0.9823 -2.8153
58695SOL     OW83134   5.078   1.220  12.566  0.3189  0.0743 -0.0700
58695SOL    HW183135   5.096   1.314  12.574 -3.0629  1.1364 -2.5818
58695SOL    HW283136   5.007   1.203  12.628 -1.2518  0.0361 -1.7800
58696SOL     OW83137  10.233   1.683  12.306  0.1372 -0.1082  0.3847
58696SOL    HW183138  10.159   1.739  12.283  0.5364  0.3760  0.2565
58696SOL    HW283139  10.303   1.744  12.330  0.6698 -0.5377 -0.0216
58697SOL     OW83140   5.279   7.198   0.179 -0.0532  0.4929 -0.4150
58697SOL    HW183141   5.301   7.266   0.116 -1.4856  1.0165 -0.3840
58697SOL    HW283142   5.219   7.240   0.241  0.3309 -0.3553  0.5581
58698SOL     OW83143  10.099   6.678   3.125  0.1322  0.2766  0.1460
58698SOL    HW183144  10.146   6.639   3.051  4.6367  2.1444  1.6263
58698SOL    HW283145  10.024   6.721   3.086  0.4012 -1.6108 -2.7959
58699SOL     OW83146   9.731   1.222   0.608  0.4514 -0.8566  0.1550
58699SOL    HW183147   9.745   1.313   0.581  1.2610 -0.3123  2.2082
58699SOL    HW283148   9.796   1.172   0.559 -0.2521 -0.4112 -1.2774
58700SOL     OW83149   3.190   7.157   4.031  0.6626 -0.2950 -0.2547
58700SOL    HW183150   3.247   7.177   3.957  1.2424 -0.6876  0.0781
58700SOL    HW283151   3.137   7.083   4.002 -1.5293  1.6458 -1.5134
58701SOL     OW83152   8.677   0.505   9.079 -0.7278 -0.4346 -0.0424
58701SOL    HW183153   8.711   0.426   9.037  0.0297 -0.8598  1.3219
58701SOL    HW283154   8.751   0.565   9.081 -1.2289  0.2318 -0.8257
58702SOL     OW83155   7.355  11.636  10.246  0.5612  0.3500  0.4776
58702SOL    HW183156   7.413  11.709  10.222  0.4919 -0.0130 -0.9026
58702SOL    HW283157   7.270  11.661  10.210  0.7610 -0.8362 -0.9211
58703SOL     OW83158  11.043  10.587  11.718  0.4886 -0.1597  0.5237
58703SOL    HW183159  10.968  10.532  11.696 -0.5127  1.1433  0.5751
58703SOL    HW283160  11.070  10.559  11.805 -2.7332  2.1778  2.4841
58704SOL     OW83161   2.849   6.560   2.910 -0.6775 -0.1518 -0.2025
58704SOL    HW183162   2.854   6.639   2.856 -0.7662 -0.5955 -0.8797
58704SOL    HW283163   2.765   6.566   2.954 -0.1458  0.7404  0.7372
58705SOL     OW83164   5.739   7.030   9.089 -0.3437 -0.2401  0.1084
58705SOL    HW183165   5.784   7.098   9.039 -2.2361 -0.2960 -1.8271
58705SOL    HW283166   5.672   6.997   9.029 -1.1148 -2.0817  1.8755
58706SOL     OW83167   1.128  12.347   1.865  0.4761 -0.4658 -0.4276
58706SOL    HW183168   1.080  12.428   1.877  0.2936 -0.6634  0.2271
58706SOL    HW283169   1.216  12.366   1.896  0.4026 -0.5519 -0.1671
58707SOL     OW83170  10.161   5.953   5.136 -0.0353  0.6938 -0.2031
58707SOL    HW183171  10.222   6.027   5.135 -0.9857  1.5012  0.0946
58707SOL    HW283172  10.190   5.900   5.210  0.6414  0.7702 -0.4038
58708SOL     OW83173   0.145   9.049   0.818 -0.6573  0.1305  0.2034
58708SOL    HW183174   0.172   8.957   0.820 -0.4683  0.1870  0.2876
58708SOL    HW283175   0.050   9.046   0.812 -0.5904 -0.0708 -0.8992
58709SOL     OW83176   1.327   7.666   8.094 -0.3552 -0.6103 -0.0879
58709SOL    HW183177   1.232   7.676   8.097 -0.2231  1.7272 -1.1221
58709SOL    HW283178   1.361   7.751   8.123  1.3508 -0.4029 -2.3730
58710SOL     OW83179   9.967   0.257  10.615  0.4368 -0.2993  0.1202
58710SOL    HW183180  10.007   0.283  10.698  1.7274  1.5154 -0.9858
58710SOL    HW283181  10.013   0.310  10.549 -0.9109 -1.2849 -1.6954
58711SOL     OW83182   7.736   3.191   7.056 -0.2644  0.3236 -0.2556
58711SOL    HW183183   7.682   3.160   6.984 -3.1598  0.8974  1.5103
58711SOL    HW283184   7.732   3.120   7.121  1.7891  0.0737 -0.3197
58712SOL     OW83185   8.611   0.972   1.575  0.1953  0.1293  0.2314
58712SOL    HW183186   8.618   1.064   1.600  0.6245 -0.0551  0.8084
58712SOL    HW283187   8.684   0.929   1.620 -0.2621 -0.5685  0.3233
58713SOL     OW83188  12.296   4.427   6.883 -0.0412  0.0036  0.1640
58713SOL    HW183189  12.336   4.351   6.924 -2.1883 -0.5582  1.3793
58713SOL    HW283190  12.353   4.500   6.907  0.6842 -0.8552  1.1330
58714SOL     OW83191  12.088   2.884   0.737 -0.2286 -0.6211 -0.2102
58714SOL    HW183192  12.167   2.849   0.695 -0.4441 -2.5024  0.8144
58714SOL    HW283193  12.118   2.964   0.780  1.3157 -1.5695  0.6052
58715SOL     OW83194   0.447   2.337   9.306  0.2045 -0.4417  0.4434
58715SOL    HW183195   0.532   2.380   9.307 -0.6066  1.2424  0.1936
58715SOL    HW283196   0.424   2.327   9.398  0.3700 -0.2678  0.5053
58716SOL     OW83197   8.930   3.313   6.717  0.2892 -0.0007  0.3578
58716SOL    HW183198   8.872   3.308   6.793 -0.0690  2.2836  0.3185
58716SOL    HW283199   8.872   3.305   6.642  0.0312  1.6985  0.3276
58717SOL     OW83200   5.164   0.581   6.321  0.0158 -0.5950  0.4049
58717SOL    HW183201   5.114   0.636   6.381 -0.4901  0.9634 -1.3323
58717SOL    HW283202   5.247   0.567   6.365 -0.5063  0.0852  1.6681
58718SOL     OW83203   6.072  11.495   7.894  0.3056 -0.2771  0.1422
58718SOL    HW183204   6.066  11.506   7.989  0.5261 -0.2864  0.1582
58718SOL    HW283205   6.099  11.581   7.862  2.0724 -0.7392  0.2706
58719SOL     OW83206   3.496  11.674   3.726  0.1309 -0.4223 -0.6576
58719SOL    HW183207   3.404  11.670   3.753  0.8397  3.0102  3.4918
58719SOL    HW283208   3.499  11.743   3.661 -0.2238 -0.3790 -0.6320
58720SOL     OW83209   0.644   2.646   8.983  0.0611  0.1193  0.0997
58720SOL    HW183210   0.561   2.660   9.028  0.5996 -0.0943  1.1822
58720SOL    HW283211   0.620   2.596   8.905 -0.8218  0.0329  0.4099
58721SOL     OW83212   1.149   6.924   2.645  0.0019 -0.4816  0.2145
58721SOL    HW183213   1.221   6.973   2.685 -1.3660  0.8275  1.1404
58721SOL    HW283214   1.151   6.839   2.689  1.3631 -0.7078 -0.2386
58722SOL     OW83215   0.732   9.840  11.016 -0.0586  0.3146 -0.1002
58722SOL    HW183216   0.642   9.863  11.035 -0.2180 -0.1504 -0.2812
58722SOL    HW283217   0.733   9.744  11.013  0.2803  0.3334 -0.8635
58723SOL     OW83218   7.010   0.760   4.772  0.0513 -1.0460 -0.2264
58723SOL    HW183219   7.067   0.741   4.697 -0.8632  0.5591 -1.4012
58723SOL    HW283220   6.921   0.759   4.736 -0.4973 -1.2707  1.0726
58724SOL     OW83221   6.190   0.438   0.490 -0.1201 -0.2413  0.2846
58724SOL    HW183222   6.167   0.374   0.423 -1.0369 -0.1625  0.5133
58724SOL    HW283223   6.210   0.518   0.441 -0.4172 -0.2879  0.0885
58725SOL     OW83224   6.045   5.689   2.867 -0.0660  0.2823  0.1762
58725SOL    HW183225   6.053   5.781   2.841  1.7675  0.1958  0.2581
58725SOL    HW283226   5.973   5.688   2.930 -0.4704  1.5653 -0.2300
58726SOL     OW83227  11.731   5.999   4.685  0.0935  0.3207 -0.1208
58726SOL    HW183228  11.679   5.940   4.631  0.2356 -0.2935  0.4081
58726SOL    HW283229  11.721   6.085   4.643 -0.1608 -0.0646 -0.8556
58727SOL     OW83230   9.806   2.620   2.682  0.0846 -0.6557 -0.0929
58727SOL    HW183231   9.837   2.680   2.614  0.1338 -0.7037 -0.1133
58727SOL    HW283232   9.762   2.550   2.634 -1.7676  0.3775  0.0187
58728SOL     OW83233   5.336   5.746   3.738 -0.4002 -0.1350 -0.2100
58728SOL    HW183234   5.349   5.681   3.668 -2.0926 -0.2315 -0.4798
58728SOL    HW283235   5.265   5.710   3.791 -1.0698  1.2700 -0.1112
58729SOL     OW83236  11.182   6.677   1.974  0.0871 -0.4489 -0.1194
58729SOL    HW183237  11.263   6.661   2.021  1.1146  0.3100 -1.5542
58729SOL    HW283238  11.135   6.742   2.027 -0.6812 -2.5148  1.8772
58730SOL     OW83239   3.456   6.078   2.636 -0.5094  0.3802  0.1529
58730SOL    HW183240   3.425   6.133   2.564 -1.1486  0.9913  0.8814
58730SOL    HW283241   3.410   6.110   2.713  1.9777  1.4023  1.3270
58731SOL     OW83242   6.766  12.457   4.437 -0.0820 -0.9118 -0.6288
58731SOL    HW183243   6.784  12.526   4.373  0.1316  0.4379  0.8198
58731SOL    HW283244   6.814  12.484   4.515 -1.1638 -1.9579  0.4398
58732SOL     OW83245   1.038   2.693   6.251  0.5415  0.1194  0.2122
58732SOL    HW183246   1.041   2.626   6.182  0.5810  0.6710 -0.3349
58732SOL    HW283247   0.971   2.754   6.221 -1.4222 -1.0435  2.0074
58733SOL     OW83248   4.802   3.230  10.268  0.2382  0.3373  0.2245
58733SOL    HW183249   4.857   3.207  10.193 -0.1219  0.2814 -0.0243
58733SOL    HW283250   4.824   3.322  10.286 -1.4992  1.1730 -1.5718
58734SOL     OW83251   3.784  10.595   4.760 -0.2725  0.1351  0.2821
58734SOL    HW183252   3.839  10.518   4.748  1.2319  0.8153  2.3850
58734SOL    HW283253   3.734  10.577   4.839 -4.3043 -1.0512 -2.2175
58735SOL     OW83254  10.568   8.546  12.215  0.2597  0.3733  0.1742
58735SOL    HW183255  10.593   8.605  12.144  0.3411  0.4927  0.3022
58735SOL    HW283256  10.541   8.465  12.171 -1.9370  1.2258 -0.1290
58736SOL     OW83257   9.488   1.402   3.701 -0.9116  0.3002 -0.3089
58736SOL    HW183258   9.401   1.410   3.660  0.1506  0.8854 -2.6382
58736SOL    HW283259   9.526   1.490   3.691  0.3150 -0.2109 -0.2277
58737SOL     OW83260   0.925   5.406  10.714 -0.2225  0.0757 -0.4252
58737SOL    HW183261   0.956   5.414  10.624  3.4415  3.5668  0.8221
58737SOL    HW283262   0.873   5.486  10.729  0.2061  0.1418  0.8370
58738SOL     OW83263   3.607   6.578  12.322  0.2380  0.3589 -0.0128
58738SOL    HW183264   3.689   6.554  12.280 -0.1386  0.4966 -0.8614
58738SOL    HW283265   3.568   6.495  12.349  0.3124  0.2371 -0.2799
58739SOL     OW83266   3.112   0.739   4.073 -0.1334  0.2430 -0.0480
58739SOL    HW183267   3.135   0.659   4.119 -1.5718  0.8490  1.8083
58739SOL    HW283268   3.065   0.709   3.995  0.5927 -0.7249 -0.1411
58740SOL     OW83269  11.381   8.315   4.523 -0.6377 -0.0002 -0.2160
58740SOL    HW183270  11.409   8.366   4.447  0.2280  0.5670  0.4692
58740SOL    HW283271  11.380   8.224   4.492 -2.0889  0.3869 -1.4202
58741SOL     OW83272   2.589   8.593   4.100 -0.3141 -0.0417 -0.2937
58741SOL    HW183273   2.622   8.505   4.081  1.3349  0.1942  1.2644
58741SOL    HW283274   2.657   8.634   4.153 -1.5153  1.8244 -0.0886
58742SOL     OW83275  11.971   2.915   1.089 -0.0839  0.2690  0.0593
58742SOL    HW183276  11.991   2.966   1.011 -1.5425 -1.4408 -1.5147
58742SOL    HW283277  12.057   2.886   1.121  0.5691  1.4378 -0.5718
58743SOL     OW83278  11.843   8.212   2.143 -0.5249 -0.3159 -0.6628
58743SOL    HW183279  11.896   8.205   2.063 -1.5173  0.0667 -1.3832
58743SOL    HW283280  11.807   8.301   2.140 -0.0692 -0.0835  0.5487
58744SOL     OW83281   1.768   2.336   5.826 -0.1105  0.3439  0.2641
58744SOL    HW183282   1.795   2.245   5.813 -0.4199 -0.0260  1.9154
58744SOL    HW283283   1.672   2.332   5.824 -0.1144  0.7171 -0.1837
58745SOL     OW83284   7.779   9.333   4.922  0.5510  0.3468  0.7692
58745SOL    HW183285   7.835   9.410   4.928 -0.5939  1.1879  1.0347
58745SOL    HW283286   7.735   9.328   5.007  1.3163 -1.1714  1.1101
58746SOL     OW83287   4.921  11.357   3.849 -0.2660 -0.5820 -0.1044
58746SOL    HW183288   4.936  11.341   3.756  2.3854 -0.5752  0.2384
58746SOL    HW283289   4.942  11.450   3.861  0.1034 -0.7452  0.5901
58747SOL     OW83290   0.606   5.367   5.916  0.1352  0.6620  0.1657
58747SOL    HW183291   0.533   5.420   5.948 -1.0380 -1.1288  0.5944
58747SOL    HW283292   0.679   5.388   5.974 -0.5340  1.2125  0.8210
58748SOL     OW83293   2.600   2.176   8.910 -0.4474 -0.2848 -0.0383
58748SOL    HW183294   2.569   2.181   8.819 -0.8111 -0.2860  0.0854
58748SOL    HW283295   2.525   2.203   8.963 -0.6990 -1.6384  0.3388
58749SOL     OW83296  11.820   6.866   4.860  0.1643  0.2182 -0.1390
58749SOL    HW183297  11.793   6.779   4.829  0.8175 -0.4295  1.0514
58749SOL    HW283298  11.750   6.924   4.831 -0.5207 -0.7821 -0.5497
58750SOL     OW83299   6.079   5.948  11.746  0.0643 -0.1343  0.0166
58750SOL    HW183300   6.153   5.897  11.713 -0.0675 -0.1360 -0.2822
58750SOL    HW283301   6.035   5.889  11.807 -0.1818 -0.4442 -0.4473
58751SOL     OW83302   6.407   5.285  11.294  0.4121  0.0280  0.0972
58751SOL    HW183303   6.414   5.227  11.370  0.2604  1.1513  0.9965
58751SOL    HW283304   6.437   5.370  11.326  1.2338  0.3260 -1.3589
58752SOL     OW83305   4.994   0.088   3.327 -0.2234  0.1673  0.1933
58752SOL    HW183306   4.990   0.001   3.288 -0.8382  0.1607  0.2564
58752SOL    HW283307   5.079   0.091   3.371 -0.8647 -1.0233  1.6095
58753SOL     OW83308  11.386   0.748   6.759 -1.2853 -0.0358 -0.6189
58753SOL    HW183309  11.354   0.834   6.734  1.0892  0.2923 -3.0021
58753SOL    HW283310  11.471   0.765   6.800 -0.7703 -1.2175 -1.1439
58754SOL     OW83311   6.992   4.766  10.907  0.7134  0.1270  0.1416
58754SOL    HW183312   6.935   4.748  10.832  0.6859  2.2484 -0.4265
58754SOL    HW283313   7.080   4.768  10.871  0.6993  1.1781  0.1419
58755SOL     OW83314   6.778   0.815   1.451 -0.1571 -0.2655  0.5243
58755SOL    HW183315   6.818   0.728   1.453 -1.4741 -0.8830  2.2130
58755SOL    HW283316   6.829   0.866   1.514  0.0225 -0.0579  0.2197
58756SOL     OW83317   9.479   9.063   3.381  0.2187 -0.1624  0.2998
58756SOL    HW183318   9.525   9.002   3.322  0.1781  0.0096  0.0878
58756SOL    HW283319   9.482   9.020   3.466  1.9397  0.4190  0.5861
58757SOL     OW83320   2.761   4.182   5.216 -0.1507  0.2045  0.2360
58757SOL    HW183321   2.684   4.219   5.259  0.6422  1.0040  1.0481
58757SOL    HW283322   2.728   4.140   5.137 -1.2193  2.0555 -0.3655
58758SOL     OW83323   4.654   0.495   3.485  0.6578 -0.9737  0.2928
58758SOL    HW183324   4.559   0.494   3.495  0.3333 -0.9004 -2.2715
58758SOL    HW283325   4.681   0.583   3.514 -0.8324  1.1988 -4.0261
58759SOL     OW83326  10.928   3.749   0.602 -0.0653  0.5124  0.3124
58759SOL    HW183327  10.835   3.727   0.592  0.2632 -0.4581 -0.8338
58759SOL    HW283328  10.939   3.828   0.550  0.1093 -0.4165 -1.1157
58760SOL     OW83329   2.074   4.650  11.052  0.3194  0.2448  0.3134
58760SOL    HW183330   2.011   4.580  11.069  1.3446 -0.3739  1.7880
58760SOL    HW283331   2.083   4.695  11.137  2.5490 -0.2971  0.4212
58761SOL     OW83332   5.576  10.452   9.806 -0.1177  0.1312 -0.0867
58761SOL    HW183333   5.485  10.424   9.797  0.2435 -0.8022 -1.1850
58761SOL    HW283334   5.597  10.436   9.898 -0.6801 -0.8810 -0.1158
58762SOL     OW83335   5.931   4.046   1.544  0.4345 -0.0971 -0.8088
58762SOL    HW183336   5.983   4.037   1.624 -0.7619 -0.7954 -0.0679
58762SOL    HW283337   5.857   4.101   1.571 -1.4287 -2.5003 -0.6206
58763SOL     OW83338   8.618  12.589   2.858  0.0664 -0.3207 -0.4885
58763SOL    HW183339   8.669  12.656   2.905 -0.5737  0.2409 -0.5848
58763SOL    HW283340   8.681  12.549   2.798  0.7813 -0.7121  0.4832
58764SOL     OW83341   6.430   3.356   0.998 -0.3155  0.1173  0.3592
58764SOL    HW183342   6.348   3.363   0.951 -0.2704  1.1865  0.4099
58764SOL    HW283343   6.434   3.265   1.028 -0.2777 -0.6267 -1.7779
58765SOL     OW83344  12.488   2.124   6.565  0.0098  0.2766  0.4805
58765SOL    HW183345  12.548   2.063   6.607 -1.0999  0.0366  1.7781
58765SOL    HW283346  12.442   2.166   6.637 -1.6003  0.2111 -0.4638
58766SOL     OW83347   2.682  11.743   6.391  0.0861  0.5581 -0.0130
58766SOL    HW183348   2.605  11.699   6.355  1.6854 -3.3678  0.9312
58766SOL    HW283349   2.654  11.772   6.479 -0.5237 -0.1492  0.0318
58767SOL     OW83350   8.971   8.780   9.934  0.1791 -0.3670 -0.5474
58767SOL    HW183351   8.898   8.837   9.910  1.0088  0.7944 -0.4216
58767SOL    HW283352   9.049   8.834   9.920  0.8843 -0.7021  1.6963
58768SOL     OW83353   9.353   8.584   5.072  0.0482 -0.5307 -0.4758
58768SOL    HW183354   9.260   8.588   5.051 -0.4511 -0.8810  1.4690
58768SOL    HW283355   9.382   8.675   5.071 -0.3940 -0.3899 -0.7352
58769SOL     OW83356   7.586   3.031   4.296  0.1389 -0.2433 -0.1877
58769SOL    HW183357   7.557   3.048   4.206 -3.7296  0.9265  1.0686
58769SOL    HW283358   7.672   3.072   4.302  0.2043  0.2960 -3.1211
58770SOL     OW83359  10.852  11.834   5.152  0.8187 -0.3871  0.0898
58770SOL    HW183360  10.764  11.825   5.117  0.2686 -1.2942  1.6250
58770SOL    HW283361  10.907  11.851   5.075 -0.9620  2.4882 -0.6798
58771SOL     OW83362   1.574   6.068  10.119  0.3921  0.7398 -0.3620
58771SOL    HW183363   1.648   6.127  10.100  1.5179 -0.3832  0.3341
58771SOL    HW283364   1.589   6.041  10.210  1.0901 -2.1569 -1.2289
58772SOL     OW83365   7.696   5.579   1.429  0.0339 -0.5723 -0.6028
58772SOL    HW183366   7.727   5.488   1.424  3.6000  0.3748  0.9447
58772SOL    HW283367   7.694   5.608   1.337 -0.5839 -1.9863 -1.0708
58773SOL     OW83368   4.648   6.226   3.910  0.4429 -0.2315  0.5868
58773SOL    HW183369   4.625   6.215   4.003  0.9571 -0.8741  0.6441
58773SOL    HW283370   4.714   6.295   3.910 -0.2596  0.4582  0.5898
58774SOL     OW83371   5.375  11.864   6.030 -0.6175 -0.5148 -0.3391
58774SOL    HW183372   5.282  11.880   6.047 -0.5312 -0.3654  0.0049
58774SOL    HW283373   5.410  11.949   6.005 -0.3498 -0.3420  0.5937
58775SOL     OW83374   2.083   6.715   7.519 -0.2148  0.6303 -0.3678
58775SOL    HW183375   2.032   6.789   7.551 -0.1047  0.4459  0.2490
58775SOL    HW283376   2.054   6.641   7.573  1.8481  0.8350  1.1694
58776SOL     OW83377   3.567  11.238  11.221  0.2577 -0.5171  0.6029
58776SOL    HW183378   3.650  11.264  11.181 -1.2788  0.9831 -1.9214
58776SOL    HW283379   3.586  11.156  11.267  2.9142 -0.6461 -0.5744
58777SOL     OW83380   7.329   2.431   9.033  0.6729 -0.0267  0.1963
58777SOL    HW183381   7.363   2.374   8.964  2.4457 -0.4446  1.3325
58777SOL    HW283382   7.374   2.514   9.020 -0.9126  0.7380 -0.6536
58778SOL     OW83383   8.430  10.526   0.546 -0.1352 -0.3612  0.3737
58778SOL    HW183384   8.480  10.489   0.619  1.8762  1.0004 -0.2359
58778SOL    HW283385   8.421  10.453   0.485  0.5088 -0.8229  0.8081
58779SOL     OW83386  10.806   8.198   7.821  0.0689 -0.5227  0.2426
58779SOL    HW183387  10.785   8.176   7.731  1.6256  1.8143 -0.8023
58779SOL    HW283388  10.742   8.265   7.845 -0.3992 -1.2018  0.9537
58780SOL     OW83389  11.388   5.696  11.518  0.2932 -0.1618 -0.0527
58780SOL    HW183390  11.478   5.727  11.525 -1.2187  5.0693  0.3129
58780SOL    HW283391  11.377   5.674  11.426  1.7493 -0.2977 -0.2212
58781SOL     OW83392   8.155  10.075   9.179 -0.0097 -0.0077 -0.2972
58781SOL    HW183393   8.117   9.998   9.221  0.1078  0.2466  0.2861
58781SOL    HW283394   8.239  10.045   9.144  0.0649 -0.1300 -0.0118
58782SOL     OW83395   0.315   5.703   2.182  0.2485  0.0084 -0.0657
58782SOL    HW183396   0.406   5.713   2.210 -0.0035 -0.0139  0.7756
58782SOL    HW283397   0.280   5.792   2.184 -0.1036 -0.1388  0.8780
58783SOL     OW83398  10.048  12.050   6.226 -0.1082 -0.2619 -0.2015
58783SOL    HW183399  10.112  12.025   6.292 -0.3094 -0.9705 -0.2705
58783SOL    HW283400   9.967  12.064   6.274  0.1246  0.7941 -0.0924
58784SOL     OW83401   4.245   0.323  10.253  0.1531  0.6861  0.1947
58784SOL    HW183402   4.196   0.357  10.327 -0.1172  0.2075  0.2450
58784SOL    HW283403   4.331   0.364  10.259  0.2251  0.4403  0.9312
58785SOL     OW83404   8.861   9.143   7.873 -0.2365 -0.4304  0.0831
58785SOL    HW183405   8.832   9.222   7.827  1.4760  0.7492  0.8706
58785SOL    HW283406   8.908   9.177   7.950  1.1092 -2.1982  0.1126
58786SOL     OW83407   3.123  10.868  11.710  0.0069  0.1768  0.2267
58786SOL    HW183408   3.164  10.798  11.760  0.1415  0.0472 -0.0633
58786SOL    HW283409   3.066  10.823  11.647 -1.8237  0.3735  1.6644
58787SOL     OW83410   1.873   5.044   1.235  0.5221  0.0205 -0.8336
58787SOL    HW183411   1.886   5.139   1.230  1.1792  0.0909  1.1793
58787SOL    HW283412   1.946   5.013   1.290 -0.6693 -1.3924  0.0155
58788SOL     OW83413   7.414   2.415   1.421 -0.3996 -0.2895 -0.1954
58788SOL    HW183414   7.334   2.445   1.465  0.5657  2.2520  0.0278
58788SOL    HW283415   7.398   2.323   1.400 -3.2593  0.0795  0.0554
58789SOL     OW83416   8.303   2.162  11.110 -0.1761  1.2058 -0.1321
58789SOL    HW183417   8.213   2.131  11.101  0.5627 -0.5928 -2.1454
58789SOL    HW283418   8.298   2.256  11.092 -1.4876  0.8836 -1.7495
58790SOL     OW83419  12.265  11.129   0.758 -0.1033  0.1955 -0.2392
58790SOL    HW183420  12.291  11.096   0.844 -1.1762  0.0017  0.0163
58790SOL    HW283421  12.173  11.152   0.767  0.1085  1.4328 -0.9724
58791SOL     OW83422   5.287   2.465  12.343 -0.2809 -0.3873  0.4047
58791SOL    HW183423   5.363   2.505  12.385 -0.9960  0.8639  0.5835
58791SOL    HW283424   5.318   2.381  12.309  1.3273  0.3842 -0.1015
58792SOL     OW83425  11.452   7.832   3.728 -1.0685 -0.5645  0.2759
58792SOL    HW183426  11.390   7.776   3.681 -1.9688 -0.5656  1.4205
58792SOL    HW283427  11.413   7.843   3.815 -0.3528  0.9154  0.4386
58793SOL     OW83428   4.412   0.351   8.141 -0.3042  0.4862 -0.2476
58793SOL    HW183429   4.398   0.431   8.191 -1.2929 -0.2791  0.7674
58793SOL    HW283430   4.499   0.362   8.101 -0.5709  2.1855 -0.4197
58794SOL     OW83431   1.760  11.137   8.627  0.3995 -0.2504 -0.9095
58794SOL    HW183432   1.829  11.122   8.691 -0.7077  0.6491  0.5726
58794SOL    HW283433   1.740  11.050   8.592  2.0134 -0.5607 -1.1354
58795SOL     OW83434   3.115  12.370   3.664  0.2412  0.3840 -0.0863
58795SOL    HW183435   3.196  12.332   3.629  1.0533  0.4925  1.5966
58795SOL    HW283436   3.144  12.429   3.734 -1.2397  1.2028 -0.1223
58796SOL     OW83437  12.463   2.656   1.021 -0.6340  0.6553  0.4070
58796SOL    HW183438  12.521   2.651   1.097 -1.1629  0.1563  0.7872
58796SOL    HW283439  12.467   2.569   0.981 -1.8295  0.3047  0.9877
58797SOL     OW83440   9.126   1.562  12.470  0.7113 -0.4248 -0.1143
58797SOL    HW183441   9.172   1.549  12.387  0.7040 -1.4912  0.0300
58797SOL    HW283442   9.051   1.502  12.466 -0.7150  1.2851 -0.3519
58798SOL     OW83443  11.293   6.652   0.753  0.7038  0.3274 -0.2768
58798SOL    HW183444  11.262   6.732   0.796  0.9190  0.8307 -1.0553
58798SOL    HW283445  11.379   6.635   0.792  0.4806  0.2274  0.1909
58799SOL     OW83446  12.378   4.754   3.797 -0.0790 -0.6044 -0.6741
58799SOL    HW183447  12.355   4.672   3.840  0.0743 -1.1125 -1.5242
58799SOL    HW283448  12.416   4.727   3.713 -1.1916  0.3486 -1.5354
58800SOL     OW83449   6.973   6.784   3.186 -0.0155  0.1425  0.5592
58800SOL    HW183450   6.934   6.844   3.249 -0.9064  0.1319  0.0396
58800SOL    HW283451   7.047   6.832   3.149 -0.5830  0.8464  0.3119
58801SOL     OW83452  12.127  10.849   0.192  0.2080 -0.0699 -0.8111
58801SOL    HW183453  12.104  10.791   0.265  3.0933 -0.6396 -0.2410
58801SOL    HW283454  12.049  10.903   0.179 -1.0348 -1.1493  1.4983
58802SOL     OW83455   3.325   7.968   1.141 -0.2859  0.1873  0.2548
58802SOL    HW183456   3.230   7.957   1.140 -0.4234  1.2188  1.0624
58802SOL    HW283457   3.355   7.908   1.210 -0.4328  0.4831  0.5756
58803SOL     OW83458  10.253  12.192   8.102 -0.3690 -0.4652 -0.0460
58803SOL    HW183459  10.305  12.121   8.065  1.4150 -0.9445  3.0109
58803SOL    HW283460  10.317  12.258   8.128 -1.8573  1.6321 -1.3927
58804SOL     OW83461  10.349  10.680  11.394 -0.0998  0.0081  0.0423
58804SOL    HW183462  10.255  10.683  11.376 -0.1659 -1.7850 -0.1306
58804SOL    HW283463  10.389  10.652  11.312  0.6165  0.8382  0.0889
58805SOL     OW83464   1.391   8.784   7.701 -0.2576 -0.6294 -0.4699
58805SOL    HW183465   1.476   8.743   7.717  0.6636  0.4739 -2.1579
58805SOL    HW283466   1.362   8.745   7.618 -1.0275 -0.4253 -0.2955
58806SOL     OW83467   1.664   2.342   2.209  0.1520  0.0693 -0.3293
58806SOL    HW183468   1.678   2.349   2.114 -1.3334 -1.9941 -0.7898
58806SOL    HW283469   1.739   2.292   2.241  1.0269  1.3873 -0.2594
58807SOL     OW83470  10.551   1.454   2.732  0.0785  0.0310  0.9781
58807SOL    HW183471  10.605   1.395   2.784 -0.5159 -0.6829  0.7947
58807SOL    HW283472  10.549   1.415   2.645 -1.4001 -0.4052  1.1812
58808SOL     OW83473   9.230   5.759   8.428 -0.0398 -0.7798 -0.0587
58808SOL    HW183474   9.182   5.714   8.358 -0.6015  0.3120 -0.3970
58808SOL    HW283475   9.243   5.848   8.395  2.2627 -1.0349  0.0130
58809SOL     OW83476  12.421   7.661   1.020  0.0653 -0.4495 -0.3122
58809SOL    HW183477  12.477   7.650   0.944  4.1375 -0.5287  2.3686
58809SOL    HW283478  12.376   7.745   1.005  2.6390  0.7781 -1.7676
58810SOL     OW83479   7.907   3.514  11.014 -0.0367  0.5550  0.3270
58810SOL    HW183480   7.821   3.515  11.056 -0.2379  1.3775 -0.0743
58810SOL    HW283481   7.908   3.434  10.963  0.6355 -1.0495  2.6985
58811SOL     OW83482   8.247  10.811   8.257 -0.0341  0.1202 -0.3538
58811SOL    HW183483   8.245  10.849   8.344  1.7653 -0.0737 -0.1804
58811SOL    HW283484   8.243  10.886   8.198  0.2706  0.3614 -0.0689
58812SOL     OW83485   9.730   5.460  12.571  1.2700 -0.1938  0.3082
58812SOL    HW183486   9.659   5.503  12.523  2.2042 -0.2159 -1.1567
58812SOL    HW283487   9.702   5.463  12.663  0.1162  1.2133 -0.0477
58813SOL     OW83488   3.217   2.316   8.147 -0.3810  0.7003 -0.0790
58813SOL    HW183489   3.255   2.233   8.117  0.5221  0.5308  1.4591
58813SOL    HW283490   3.142   2.289   8.201 -0.0441  0.8745  0.4802
58814SOL     OW83491  11.538   6.515   1.465 -0.0103 -0.8583  0.1216
58814SOL    HW183492  11.476   6.473   1.405 -0.7091 -1.7226  1.4082
58814SOL    HW283493  11.491   6.521   1.548  1.2152 -0.4049  0.8080
58815SOL     OW83494   5.278   2.750   7.842  0.1897 -0.2267 -0.4708
58815SOL    HW183495   5.235   2.665   7.848 -2.3423  1.0011  0.4202
58815SOL    HW283496   5.329   2.757   7.922  1.6609 -1.4678 -1.2544
58816SOL     OW83497   7.727   6.757   2.940  0.4935 -0.0919 -0.2651
58816SOL    HW183498   7.749   6.669   2.908  0.4640 -0.0109 -0.5106
58816SOL    HW283499   7.641   6.747   2.980  0.6603 -0.2582  0.0608
58817SOL     OW83500   0.366   9.638   3.952 -0.3135  0.2324 -0.1907
58817SOL    HW183501   0.421   9.562   3.935 -1.2686 -0.3783 -0.6338
58817SOL    HW283502   0.321   9.618   4.034 -0.0817  0.6102  0.0318
58818SOL     OW83503   4.952   4.940   8.168 -0.0266  0.0249  0.5581
58818SOL    HW183504   4.895   5.014   8.146  0.1911 -0.1302 -0.5740
58818SOL    HW283505   4.982   4.959   8.257 -1.7169  0.1674  1.1199
58819SOL     OW83506   3.216   1.746  11.877  0.3515  0.4925  0.4014
58819SOL    HW183507   3.198   1.824  11.930  1.2096  0.9982 -0.0175
58819SOL    HW283508   3.299   1.713  11.911  0.0617 -0.1593  0.4769
58820SOL     OW83509  12.582   9.588   5.010  0.1012 -0.1992  0.6776
58820SOL    HW183510  12.609   9.680   5.017 -2.3253  0.5863  0.9209
58820SOL    HW283511  12.652   9.546   4.961  1.7301  1.5668  1.3734
58821SOL     OW83512   5.251   2.491   7.940  0.0567  0.7843  0.6167
58821SOL    HW183513   5.226   2.398   7.937  3.0551 -0.1098  0.1350
58821SOL    HW283514   5.313   2.497   8.013  1.2760  2.0002 -0.4644
58822SOL     OW83515   4.430  11.929  12.152 -0.2630 -0.1154  0.7818
58822SOL    HW183516   4.446  11.878  12.073 -0.5613 -0.7644  1.1391
58822SOL    HW283517   4.367  11.878  12.202  2.3650 -1.4341  3.0228
58823SOL     OW83518   7.746   3.433   3.600  0.0349 -0.6380  0.3795
58823SOL    HW183519   7.653   3.455   3.595 -0.2287 -0.7604  3.2478
58823SOL    HW283520   7.747   3.337   3.603  0.5540 -0.8324 -2.7406
58824SOL     OW83521   9.749   2.489   5.229  0.1938 -0.7388 -0.1530
58824SOL    HW183522   9.729   2.569   5.277  1.9558 -0.2997 -0.0835
58824SOL    HW283523   9.782   2.429   5.295  1.5676 -0.5115 -0.5852
58825SOL     OW83524   5.661   3.283   1.945  0.1187  0.3339  0.3649
58825SOL    HW183525   5.576   3.240   1.952  0.7019 -0.6093  2.4651
58825SOL    HW283526   5.713   3.226   1.888 -0.1505  0.0463  0.4077
58826SOL     OW83527   5.026   9.269  10.614  0.4320  0.4749 -0.0305
58826SOL    HW183528   4.933   9.281  10.594  0.1729 -1.1840  0.0120
58826SOL    HW283529   5.071   9.336  10.563 -0.7106  0.6086 -0.8927
58827SOL     OW83530   0.757   6.818   8.554 -0.1062 -0.1764  0.0941
58827SOL    HW183531   0.741   6.788   8.465  0.1961 -0.5264  0.1528
58827SOL    HW283532   0.853   6.816   8.563 -0.0883  0.6024  0.1734
58828SOL     OW83533   7.815   3.124   3.691  0.0885 -0.2007 -0.6289
58828SOL    HW183534   7.826   3.076   3.773 -0.5936 -0.1143 -0.4839
58828SOL    HW283535   7.874   3.080   3.630 -0.1694 -0.9188 -0.3685
58829SOL     OW83536   9.726  11.983   7.962 -0.6778  0.5833 -0.3494
58829SOL    HW183537   9.698  11.931   8.037  1.0984 -1.2764 -0.8923
58829SOL    HW283538   9.822  11.983   7.967 -0.5777  2.3041 -1.4004
58830SOL     OW83539  11.612   8.319   9.566 -0.4240 -0.4163 -0.1824
58830SOL    HW183540  11.625   8.412   9.587  0.7306 -0.5307 -0.3327
58830SOL    HW283541  11.676   8.273   9.621  1.0462 -0.8952 -2.2120
58831SOL     OW83542   7.803   9.794  10.475 -0.8108  0.2202  0.3944
58831SOL    HW183543   7.738   9.744  10.526  1.0551 -1.4644  1.2795
58831SOL    HW283544   7.866   9.728  10.446 -0.6010  1.4756 -2.3039
58832SOL     OW83545   7.013   9.943  10.347 -0.1861 -0.0684  0.0305
58832SOL    HW183546   7.034   9.956  10.439  0.1243 -0.1604 -0.0264
58832SOL    HW283547   7.073   9.874  10.318 -0.3521 -0.1119 -0.2135
58833SOL     OW83548   7.798   6.208   1.693 -0.3044  0.3321 -0.2156
58833SOL    HW183549   7.832   6.228   1.605 -0.2277  1.3245  0.0321
58833SOL    HW283550   7.756   6.289   1.722  0.7836  0.4257  1.1841
58834SOL     OW83551   3.254   9.943   7.143 -0.0484 -0.2428 -0.3742
58834SOL    HW183552   3.238   9.912   7.232  0.1896  0.1258 -0.1989
58834SOL    HW283553   3.235  10.037   7.147  1.0283  0.0012 -0.4238
58835SOL     OW83554   6.738  12.517   3.793  0.5498  0.4461 -0.5709
58835SOL    HW183555   6.645  12.497   3.807  0.7421 -2.2828 -2.3127
58835SOL    HW283556   6.738  12.594   3.736 -0.5141  1.9599  1.3640
58836SOL     OW83557   2.419   5.525   5.933 -0.8272 -0.4506 -0.1200
58836SOL    HW183558   2.329   5.547   5.912 -0.2605  1.5610 -0.6642
58836SOL    HW283559   2.447   5.592   5.996  0.8536  0.2352 -1.4864
58837SOL     OW83560   1.597   7.511  11.849 -0.4099 -0.6845 -0.0700
58837SOL    HW183561   1.512   7.477  11.876 -0.5248  0.1965  0.7441
58837SOL    HW283562   1.582   7.605  11.837  0.4562 -0.5182  0.1208
58838SOL     OW83563   3.498   0.004   4.679  0.0573 -0.6396 -0.0680
58838SOL    HW183564   3.536  -0.052   4.747 -1.2311 -2.5857 -0.8679
58838SOL    HW283565   3.408   0.019   4.709 -0.3567 -1.0724 -1.0817
58839SOL     OW83566   5.085  10.908  12.382 -0.0592 -0.6578 -0.3518
58839SOL    HW183567   5.005  10.947  12.417 -0.2880 -0.8323 -0.6714
58839SOL    HW283568   5.119  10.853  12.453  1.7643  2.1762  1.1559
58840SOL     OW83569   1.223  10.978   2.777  0.0623  0.2372  0.0378
58840SOL    HW183570   1.213  10.883   2.784  2.5861 -0.0279  1.6284
58840SOL    HW283571   1.293  10.999   2.840 -0.9424  3.2657  0.2962
58841SOL     OW83572   8.960   7.828   5.415 -0.1597 -0.2839 -0.3102
58841SOL    HW183573   8.959   7.886   5.492 -4.0449  0.6092 -0.8305
58841SOL    HW283574   8.951   7.740   5.451  3.1245 -0.4814  0.3540
58842SOL     OW83575   8.056   6.094   2.748 -0.5422  0.0971 -0.6690
58842SOL    HW183576   8.006   6.014   2.729 -0.0247 -0.2142 -0.7311
58842SOL    HW283577   8.022   6.123   2.833  1.9326 -2.3920  1.3838
58843SOL     OW83578   1.329   7.117   2.740  0.4054 -0.3346 -0.2839
58843SOL    HW183579   1.376   7.105   2.658 -1.6479 -0.4728 -1.4917
58843SOL    HW283580   1.362   7.200   2.775  1.5061 -0.4126 -1.0873
58844SOL     OW83581   3.981  11.460   2.263 -0.2147 -0.6400 -0.2107
58844SOL    HW183582   3.998  11.505   2.346 -2.1965  1.1834 -0.7061
58844SOL    HW283583   4.001  11.525   2.196 -0.9750 -1.2738 -1.0649
58845SOL     OW83584  11.255   2.630   9.221 -0.5241 -0.1089  0.0205
58845SOL    HW183585  11.184   2.649   9.161 -1.1771  0.0523  0.8317
58845SOL    HW283586  11.288   2.544   9.193 -0.2166  0.3708 -1.1233
58846SOL     OW83587  10.222   9.004   0.545  0.4991 -0.1443  0.2875
58846SOL    HW183588  10.185   9.054   0.472 -0.7903  1.0356  1.6909
58846SOL    HW283589  10.189   8.915   0.532  1.8637 -0.4309 -1.5951
58847SOL     OW83590  10.771  12.425   4.762  0.0282 -0.2045 -0.5202
58847SOL    HW183591  10.798  12.335   4.777  0.3342 -0.3222 -1.7049
58847SOL    HW283592  10.687  12.418   4.717 -0.0199  0.1035 -0.4812
58848SOL     OW83593   9.077  12.232  12.075 -0.5489 -0.1899  0.1926
58848SOL    HW183594   9.167  12.201  12.089 -0.4036  0.4056  0.6365
58848SOL    HW283595   9.057  12.207  11.985  0.2008 -0.0089 -0.0353
58849SOL     OW83596   9.917   5.202   3.944 -0.1833 -0.1708  0.0508
58849SOL    HW183597  10.003   5.204   3.987  0.4557 -2.6620 -0.9289
58849SOL    HW283598   9.868   5.275   3.984  1.7478  0.1958  1.9306
58850SOL     OW83599  11.262   9.031   2.580 -0.3794  0.2827  0.0192
58850SOL    HW183600  11.169   9.037   2.555  0.0144  1.3856 -1.3027
58850SOL    HW283601  11.293   8.952   2.536 -0.5234  0.3220 -0.1574
58851SOL     OW83602   9.769  12.594   4.681 -0.1723  0.8209 -0.1320
58851SOL    HW183603   9.811  12.534   4.619  0.3407  2.3614 -1.3124
58851SOL    HW283604   9.824  12.587   4.760 -0.3741 -0.5603 -0.0834
58852SOL     OW83605   2.212   2.636   4.322 -0.4443  0.3638 -0.1658
58852SOL    HW183606   2.288   2.581   4.306 -1.7741 -0.9209 -2.8223
58852SOL    HW283607   2.219   2.662   4.414  2.5890 -0.5374 -0.0484
58853SOL     OW83608   7.206   8.206   1.805 -0.1067 -0.2367 -0.6431
58853SOL    HW183609   7.155   8.269   1.752 -0.5799 -0.2233 -0.1853
58853SOL    HW283610   7.294   8.210   1.768 -0.4987 -0.4681 -1.6426
58854SOL     OW83611   9.123   8.058   5.861 -0.2013  0.1926 -0.2895
58854SOL    HW183612   9.116   8.151   5.882 -1.3757 -0.0718  0.6336
58854SOL    HW283613   9.145   8.016   5.945  0.7383 -0.3280 -0.7808
58855SOL     OW83614   8.780   1.195   5.929 -0.6047  0.4880 -0.0130
58855SOL    HW183615   8.709   1.131   5.927  1.0589 -1.4520  0.2164
58855SOL    HW283616   8.736   1.279   5.943 -2.8146 -0.6713  0.4013
58856SOL     OW83617   7.913   4.933   3.945  0.3934 -0.3291 -0.1457
58856SOL    HW183618   7.928   5.026   3.961  2.6346 -0.4289 -1.2529
58856SOL    HW283619   7.824   4.928   3.910  0.1239  1.3454  0.2357
58857SOL     OW83620   6.102   6.898   8.430  0.2766 -0.5813  0.3429
58857SOL    HW183621   6.163   6.971   8.441  1.1583 -1.2601  0.1461
58857SOL    HW283622   6.111   6.847   8.511 -1.0443  0.0329  0.8871
58858SOL     OW83623   2.068   9.967   9.782  0.4160 -0.1434 -0.3989
58858SOL    HW183624   2.155   9.962   9.741  0.3613 -1.3458 -0.3990
58858SOL    HW283625   2.016   9.901   9.736 -0.4039  0.3129 -0.1506
58859SOL     OW83626   7.681   7.938   7.719 -0.4612  0.2990  0.0328
58859SOL    HW183627   7.635   7.948   7.802 -2.1748 -1.3265 -0.6519
58859SOL    HW283628   7.624   7.981   7.655 -0.7453 -1.1445 -0.7242
58860SOL     OW83629  11.409   9.314   9.115  0.1216  0.4321  0.3461
58860SOL    HW183630  11.450   9.228   9.124  1.1176  0.7350 -0.9517
58860SOL    HW283631  11.460   9.371   9.172  0.4392  0.4617  0.0367
58861SOL     OW83632   0.069  10.128   6.915  0.3023  0.6832  0.0703
58861SOL    HW183633   0.139  10.062   6.908  0.7234  1.2586 -1.7486
58861SOL    HW283634   0.081  10.166   7.002  3.1080  1.6014 -0.5967
58862SOL     OW83635   1.710  10.523   5.818 -0.4544  0.3049 -0.2306
58862SOL    HW183636   1.770  10.555   5.886  0.3410 -2.4962  0.5142
58862SOL    HW283637   1.624  10.522   5.861  0.4590 -4.3758  2.1137
58863SOL     OW83638   0.723   6.318   0.077 -0.0406  0.7829 -0.9067
58863SOL    HW183639   0.670   6.311   0.157 -0.0336  3.7779 -0.5348
58863SOL    HW283640   0.812   6.333   0.109 -0.2372  3.3514 -1.3415
58864SOL     OW83641  10.379   1.687   2.623  0.3667  0.5359  0.3222
58864SOL    HW183642  10.413   1.612   2.672  0.6843 -2.4852 -4.0222
58864SOL    HW283643  10.284   1.683   2.635  0.5203  1.9715  3.1035
58865SOL     OW83644   9.565   6.743  10.248  0.0471 -0.2760 -0.1533
58865SOL    HW183645   9.604   6.734  10.161 -1.3037 -1.6504 -0.6805
58865SOL    HW283646   9.638   6.735  10.309  0.6504 -2.5691 -1.0850
58866SOL     OW83647   1.026   0.516  11.452 -0.3283 -1.0394 -0.2544
58866SOL    HW183648   1.094   0.554  11.508 -0.4913 -2.9492  1.3690
58866SOL    HW283649   1.073   0.488  11.373  0.1865  0.3564 -0.4639
58867SOL     OW83650   2.659   0.895   4.218 -0.1330 -0.4610  0.7506
58867SOL    HW183651   2.731   0.833   4.210 -0.6150 -1.3418  2.7067
58867SOL    HW283652   2.626   0.883   4.307 -2.2661  0.3861  0.1517
58868SOL     OW83653  11.292  10.462   4.582  0.8284  0.4603 -0.0267
58868SOL    HW183654  11.341  10.478   4.502  2.3410  0.0254  0.7760
58868SOL    HW283655  11.252  10.376   4.570 -0.0078  0.9355 -0.7931
58869SOL     OW83656   6.478   6.991   4.631 -0.3463 -0.0495 -0.0178
58869SOL    HW183657   6.459   6.916   4.687 -1.5431  0.1940 -0.0736
58869SOL    HW283658   6.519   6.953   4.553  1.3182 -0.3918  0.9639
58870SOL     OW83659   3.135   7.134   5.014  0.1578 -0.3291  0.4699
58870SOL    HW183660   3.174   7.066   4.960  0.3282 -0.0643  0.2513
58870SOL    HW283661   3.080   7.184   4.953 -1.7354 -1.5928  1.0665
58871SOL     OW83662   1.934   2.880   1.882  0.2773  0.3772 -0.3632
58871SOL    HW183663   1.975   2.959   1.848  0.9100 -0.0967 -0.7119
58871SOL    HW283664   1.840   2.892   1.864  0.5415  0.3385 -1.8834
58872SOL     OW83665   7.832   4.182   1.007 -0.2199 -0.0668 -0.4774
58872SOL    HW183666   7.794   4.233   1.079 -1.8633  0.0407 -1.3618
58872SOL    HW283667   7.920   4.218   0.996 -0.1625  0.3302  1.0550
58873SOL     OW83668  11.289  10.926   6.969  0.0052 -0.8071  0.0383
58873SOL    HW183669  11.298  10.884   6.883  0.5011  0.8032 -0.7467
58873SOL    HW283670  11.376  10.920   7.008  0.1133 -0.4160 -0.1342
58874SOL     OW83671   1.103   6.636  11.837 -0.2070 -0.6301 -0.1473
58874SOL    HW183672   1.177   6.675  11.883 -1.6402 -0.3240  2.0295
58874SOL    HW283673   1.122   6.542  11.836 -0.3452 -0.6997  1.5111
58875SOL     OW83674   1.090   7.079   2.026  0.0648  0.1066  0.0399
58875SOL    HW183675   1.120   7.121   2.106 -1.7090 -0.7188  1.2331
58875SOL    HW283676   1.102   7.144   1.957  0.3467  1.3573  1.2363
58876SOL     OW83677  10.836   8.061   1.108  0.1029  0.5822  0.1432
58876SOL    HW183678  10.822   7.988   1.168  0.0890 -1.2869 -2.0283
58876SOL    HW283679  10.923   8.046   1.071 -0.0629  1.4450 -0.6298
58877SOL     OW83680   7.196   3.206   3.229 -0.0136  0.3861  0.1062
58877SOL    HW183681   7.268   3.245   3.279  0.2572 -0.6678  0.5510
58877SOL    HW283682   7.236   3.182   3.145 -0.0037  0.3995  0.1069
58878SOL     OW83683  11.971   6.811   2.396 -1.1203  0.8652  0.5938
58878SOL    HW183684  11.982   6.904   2.417  0.8254  0.7600  0.2139
58878SOL    HW283685  11.996   6.765   2.477 -0.2004  0.6483  0.2039
58879SOL     OW83686   9.600   0.066   9.853 -0.2131 -0.3699  0.6000
58879SOL    HW183687   9.681   0.049   9.902 -0.7175 -0.8323  1.3018
58879SOL    HW283688   9.583  -0.016   9.807  1.4743  0.7265 -2.2778
58880SOL     OW83689   8.888   1.529  11.689 -0.7770 -0.1013  0.2916
58880SOL    HW183690   8.872   1.536  11.595 -1.0265  1.0009  0.4066
58880SOL    HW283691   8.961   1.588  11.706 -2.8797  2.3953  1.3007
58881SOL     OW83692   0.857  10.518   0.598  0.3122 -0.3615 -0.1879
58881SOL    HW183693   0.900  10.557   0.522  0.7292  2.8447  1.5409
58881SOL    HW283694   0.924  10.519   0.666 -0.9319 -0.2935  1.0790
58882SOL     OW83695   8.072   9.279  12.542  0.0199  0.4063 -0.0990
58882SOL    HW183696   8.028   9.354  12.502 -0.6586 -0.8375 -1.7937
58882SOL    HW283697   8.140   9.255  12.479  0.2138 -0.4068  0.4121
58883SOL     OW83698  10.748   3.087   7.251 -0.1388  0.2904  0.6216
58883SOL    HW183699  10.798   3.015   7.212 -0.7731 -0.3667  0.9942
58883SOL    HW283700  10.806   3.123   7.318  0.8566  1.2625 -0.6945
58884SOL     OW83701   6.881  11.323   1.043  0.3864 -0.2733  0.3581
58884SOL    HW183702   6.904  11.386   0.975 -0.7363  0.5886  0.7346
58884SOL    HW283703   6.868  11.377   1.121  1.1375 -1.1814  1.1428
58885SOL     OW83704  12.201   6.529   5.292  0.2038  0.2863 -0.1565
58885SOL    HW183705  12.133   6.485   5.240 -0.0161  1.5935 -1.0266
58885SOL    HW283706  12.182   6.622   5.282  1.5785  0.6451  0.3529
58886SOL     OW83707   2.247  10.300   6.311  0.2841 -0.5785  0.4346
58886SOL    HW183708   2.191  10.369   6.347  0.6971 -0.0936  0.1555
58886SOL    HW283709   2.335  10.338   6.310  0.3396 -0.7128 -0.7626
58887SOL     OW83710   8.194   5.598   9.370  0.2877 -0.3333  0.0654
58887SOL    HW183711   8.280   5.636   9.354  0.6196 -0.9353  0.3828
58887SOL    HW283712   8.173   5.623   9.460  1.0076 -1.7981  0.6806
58888SOL     OW83713   9.706  11.186   6.131 -0.5076  0.5252  0.0463
58888SOL    HW183714   9.741  11.145   6.051  0.0603 -1.1999  1.1161
58888SOL    HW283715   9.628  11.233   6.102 -0.7182 -0.6450 -1.4226
58889SOL     OW83716   8.016  12.452   0.331 -0.4634  0.1239 -0.5851
58889SOL    HW183717   7.981  12.367   0.355  0.0393  0.4388  1.4374
58889SOL    HW283718   8.108  12.450   0.359 -0.4592  1.3490 -0.4459
58890SOL     OW83719  12.370  11.845   3.524 -0.2132 -0.3245  0.2230
58890SOL    HW183720  12.422  11.905   3.578 -0.1171 -0.1398 -0.0757
58890SOL    HW283721  12.297  11.899   3.492  1.1013  0.2978 -1.9562
58891SOL     OW83722  10.455   3.755   4.421 -0.5000  0.2266 -0.0918
58891SOL    HW183723  10.374   3.717   4.386  0.4815 -1.5742 -0.5258
58891SOL    HW283724  10.468   3.834   4.370 -3.5899  2.3867  2.0623
58892SOL     OW83725   4.621   1.469   6.211 -0.1650  0.3267  0.4212
58892SOL    HW183726   4.551   1.429   6.160 -0.0140  1.1300 -0.4599
58892SOL    HW283727   4.658   1.535   6.152 -0.4210  1.7771  1.8126
58893SOL     OW83728  12.510  11.650   8.299  0.0438  0.4781 -0.8220
58893SOL    HW183729  12.460  11.699   8.234 -0.0992  1.4703  0.0049
58893SOL    HW283730  12.560  11.717   8.346  0.5575 -0.2722 -0.2731
58894SOL     OW83731   6.602  10.945   4.569  0.0740  0.2110  0.3433
58894SOL    HW183732   6.650  10.959   4.487  2.3830  1.2974  1.7669
58894SOL    HW283733   6.664  10.898   4.625 -1.5972 -0.8577  1.3667
58895SOL     OW83734  11.747  10.848   1.541  1.0799  0.4044 -0.1106
58895SOL    HW183735  11.710  10.821   1.625 -0.4174  0.0378 -0.8593
58895SOL    HW283736  11.810  10.779   1.520 -1.2950 -1.6376 -1.0655
58896SOL     OW83737   9.859   0.975   9.252 -0.2019  0.4982 -0.0415
58896SOL    HW183738   9.782   1.022   9.284 -1.0430 -0.0016 -1.2498
58896SOL    HW283739   9.918   1.044   9.222 -0.3517  0.8750  0.5127
58897SOL     OW83740  11.338   6.089   4.968  0.2631  0.1752 -0.5560
58897SOL    HW183741  11.385   6.105   4.886 -1.4551  1.5324 -1.3605
58897SOL    HW283742  11.249   6.068   4.940 -0.8142  2.3388  0.9455
58898SOL     OW83743   0.606   9.973   3.626 -0.6521  0.3349  0.3333
58898SOL    HW183744   0.535   9.982   3.689 -1.1880  0.1810 -0.2445
58898SOL    HW283745   0.601  10.052   3.572 -0.4913  0.2410  0.1790
58899SOL     OW83746   1.891  12.115   9.610 -0.0036  0.2300  0.1544
58899SOL    HW183747   1.800  12.144   9.610  0.1168  0.6379 -0.3315
58899SOL    HW283748   1.931  12.163   9.537  1.2603  2.1448  1.9760
58900SOL     OW83749   0.584  10.789   5.087  0.2810  0.2488 -0.2684
58900SOL    HW183750   0.521  10.821   5.023 -0.6070 -0.4207  0.2583
58900SOL    HW283751   0.629  10.867   5.118 -1.6549  0.9840  0.7908
58901SOL     OW83752   1.548   1.180   0.612 -0.0810  0.0093 -0.0671
58901SOL    HW183753   1.617   1.167   0.547  2.4315  0.6164  2.3113
58901SOL    HW283754   1.551   1.274   0.633  0.7939 -0.5113  2.5097
58902SOL     OW83755   6.427   5.506   4.158 -0.6435 -0.3189  0.1341
58902SOL    HW183756   6.435   5.576   4.223 -1.4329 -0.5012  0.4337
58902SOL    HW283757   6.518   5.486   4.135 -0.4041  1.6756 -0.9281
58903SOL     OW83758   7.742   1.463  11.482  0.4925 -0.2060  0.5395
58903SOL    HW183759   7.811   1.516  11.521 -0.5415  1.7579 -0.1060
58903SOL    HW283760   7.661   1.499  11.520 -0.5611  1.6108 -2.9258
58904SOL     OW83761   0.829   8.898  12.048  0.4611 -0.1793 -0.4548
58904SOL    HW183762   0.782   8.959  12.103  0.5989 -0.5664  0.1024
58904SOL    HW283763   0.861   8.951  11.975 -0.2167  0.2222 -0.4677
58905SOL     OW83764   0.002  11.700   6.486 -0.1583  0.2804 -0.1854
58905SOL    HW183765   0.062  11.644   6.535 -0.6496  0.4709  0.6502
58905SOL    HW283766   0.035  11.697   6.396  1.2981  0.6239  0.3077
58906SOL     OW83767   4.864   0.429   9.811 -0.5294  0.1083  0.1521
58906SOL    HW183768   4.958   0.426   9.829 -0.5314 -1.2068  0.0419
58906SOL    HW283769   4.851   0.366   9.740 -1.7447 -1.0598  1.3553
58907SOL     OW83770   9.834   2.603   9.452  0.4206  0.0212 -0.4185
58907SOL    HW183771   9.769   2.536   9.431 -0.4744  1.0941 -1.2468
58907SOL    HW283772   9.907   2.586   9.391  0.5713 -0.6967 -0.0424
58908SOL     OW83773   9.640   5.144   8.997 -0.2691 -0.3100 -0.2941
58908SOL    HW183774   9.569   5.203   8.976 -0.6365 -0.0701  1.4858
58908SOL    HW283775   9.604   5.056   8.983 -0.7327 -0.1765  0.0636
58909SOL     OW83776  10.753   7.594   5.174 -0.2895  0.1797 -0.4225
58909SOL    HW183777  10.729   7.564   5.087 -1.8000 -0.6953  0.2644
58909SOL    HW283778  10.792   7.680   5.159 -0.3926 -0.0048 -1.9598
58910SOL     OW83779   5.361  10.844   7.781  0.7354 -0.5172 -0.5346
58910SOL    HW183780   5.295  10.909   7.759  0.3925 -0.8086 -0.3973
58910SOL    HW283781   5.419  10.840   7.705  0.9763  0.2067 -0.3940
58911SOL     OW83782   0.764   3.538   8.587 -0.3827 -0.4231  0.0576
58911SOL    HW183783   0.791   3.591   8.662 -0.3107  2.1486 -1.6736
58911SOL    HW283784   0.795   3.586   8.511 -2.6759 -1.5898 -1.7409
58912SOL     OW83785  11.313   6.965   8.794  0.0208 -0.7202 -0.4045
58912SOL    HW183786  11.245   6.973   8.727  1.4174  1.2304 -1.7167
58912SOL    HW283787  11.269   6.985   8.876 -1.6186 -2.6282 -0.7428
58913SOL     OW83788   8.500   5.653  10.760 -0.2624  0.7814 -0.0927
58913SOL    HW183789   8.550   5.571  10.750  0.3160  1.0450  0.5186
58913SOL    HW283790   8.415   5.625  10.793 -0.6198  0.3009 -1.3867
58914SOL     OW83791   2.496   7.426  11.457 -0.1612 -0.0766  0.1585
58914SOL    HW183792   2.404   7.451  11.470 -0.0275  0.8302 -0.5465
58914SOL    HW283793   2.493   7.331  11.444 -1.3145  0.2012 -2.2331
58915SOL     OW83794  12.453   7.401   9.182 -0.1048  0.0974  0.2764
58915SOL    HW183795  12.422   7.410   9.092  0.8297 -0.1180 -0.0715
58915SOL    HW283796  12.434   7.486   9.222 -2.8794 -0.5862  0.6609
58916SOL     OW83797   3.434   4.350   3.538  0.4029  0.4928 -0.1485
58916SOL    HW183798   3.389   4.275   3.500 -1.5792  1.0531  0.9694
58916SOL    HW283799   3.448   4.410   3.464 -3.3800  1.5751 -0.1744
58917SOL     OW83800   1.656   3.603   0.199  0.5002 -0.4035  0.2987
58917SOL    HW183801   1.696   3.565   0.121 -0.3502  0.9033 -0.8393
58917SOL    HW283802   1.603   3.533   0.236  0.5972 -0.9315 -0.5375
58918SOL     OW83803   8.502   1.663   0.704  0.0418 -0.3717 -0.1124
58918SOL    HW183804   8.549   1.672   0.622  0.0354 -0.2156 -0.0984
58918SOL    HW283805   8.500   1.751   0.741  0.9920 -0.6085  0.5760
58919SOL     OW83806   0.169   9.894   0.440  0.2621 -0.3286 -1.2129
58919SOL    HW183807   0.141   9.944   0.362  1.0526  0.5638 -0.9479
58919SOL    HW283808   0.237   9.835   0.407  0.9226  0.3698 -1.1373
58920SOL     OW83809   7.277   7.601   7.357  0.2214  0.0311  0.3488
58920SOL    HW183810   7.309   7.531   7.299  0.8757 -0.4983  1.3229
58920SOL    HW283811   7.295   7.682   7.308 -0.7553 -0.4698 -0.8863
58921SOL     OW83812   1.441   9.530   7.632 -0.6056  0.5816 -0.1788
58921SOL    HW183813   1.409   9.615   7.602 -0.4700  0.9310  0.6177
58921SOL    HW283814   1.485   9.492   7.556  1.1441  2.1257 -0.0104
58922SOL     OW83815   9.428  12.474   5.573  0.2016 -0.4665 -0.0439
58922SOL    HW183816   9.428  12.521   5.657  0.6109 -0.9606  0.2390
58922SOL    HW283817   9.479  12.529   5.514  0.8051 -0.6280  0.3264
58923SOL     OW83818  10.741   0.713   0.654  0.3463  0.2029 -0.0525
58923SOL    HW183819  10.807   0.760   0.603 -0.1149  1.2838  0.2959
58923SOL    HW283820  10.658   0.755   0.629 -0.5064 -2.3726 -1.9414
58924SOL     OW83821   3.062  11.964   3.720 -0.3503 -0.1514  0.7475
58924SOL    HW183822   3.041  12.014   3.641  1.4843  0.0583  0.3531
58924SOL    HW283823   3.111  12.025   3.775  0.1171 -0.8824  1.1561
58925SOL     OW83824   4.908   7.632   8.968  0.3723  0.1054  0.6827
58925SOL    HW183825   4.897   7.615   9.061 -1.0858 -0.0804  0.5095
58925SOL    HW283826   4.819   7.649   8.936  0.9855  1.5107 -0.4218
58926SOL     OW83827   1.568   8.818  11.200 -0.0800 -0.5741 -0.4421
58926SOL    HW183828   1.579   8.838  11.107 -0.9640  2.2036 -0.0365
58926SOL    HW283829   1.473   8.815  11.213 -0.0852  1.8792  0.7895
58927SOL     OW83830   9.334   6.496   9.142  0.2050  0.4307 -0.0867
58927SOL    HW183831   9.406   6.500   9.079  0.3657 -1.3178 -0.0608
58927SOL    HW283832   9.319   6.403   9.155 -0.8716  0.7662  1.2839
58928SOL     OW83833  10.683   9.533   8.164 -0.2378 -0.3252  0.2759
58928SOL    HW183834  10.690   9.601   8.097  2.0933 -0.6861  0.0704
58928SOL    HW283835  10.743   9.562   8.233  0.3871 -1.8879  0.4189
58929SOL     OW83836   5.859   7.327   3.237 -0.5697 -0.4217 -0.1391
58929SOL    HW183837   5.772   7.301   3.267 -1.1044  0.6633 -0.6853
58929SOL    HW283838   5.888   7.392   3.300 -0.3654 -0.4159 -0.2376
58930SOL     OW83839   1.326   2.037   8.559 -0.2310  0.0574 -0.2988
58930SOL    HW183840   1.340   2.121   8.604  1.6855 -0.4511  0.1339
58930SOL    HW283841   1.262   2.057   8.491 -0.4182  1.6885  0.3105
58931SOL     OW83842  12.568   2.118   4.115  0.2557  0.2230  0.1350
58931SOL    HW183843  12.509   2.192   4.100 -1.1497 -1.1556 -1.6102
58931SOL    HW283844  12.604   2.098   4.029  2.0844  0.0112  0.9008
58932SOL     OW83845  11.193   2.882   6.502  0.0689 -0.1157 -0.5393
58932SOL    HW183846  11.156   2.837   6.578  1.0454 -1.3684 -0.7658
58932SOL    HW283847  11.257   2.943   6.538  0.1484 -0.3276 -0.3174
58933SOL     OW83848  10.432   9.209   7.404  0.5355 -0.0950  0.0453
58933SOL    HW183849  10.438   9.303   7.386  1.0575  0.0911  1.1170
58933SOL    HW283850  10.437   9.168   7.318 -1.1100  0.9011 -0.5604
58934SOL     OW83851   7.968   8.355   2.714  0.6789  0.5114 -0.0671
58934SOL    HW183852   7.933   8.318   2.795 -1.0017 -0.3522 -1.1240
58934SOL    HW283853   8.004   8.440   2.739  0.2160  0.2517  1.5724
58935SOL     OW83854   8.770  10.291  12.563 -0.0843  0.1398 -0.7031
58935SOL    HW183855   8.703  10.249  12.617 -0.7670  0.9183 -0.9167
58935SOL    HW283856   8.842  10.307  12.623  0.2864 -1.5079 -0.6692
58936SOL     OW83857  11.801   2.103   2.822  0.2042 -0.2510 -0.2505
58936SOL    HW183858  11.740   2.031   2.815 -0.9193  0.5913  0.5164
58936SOL    HW283859  11.831   2.101   2.913  2.1891 -1.3043 -0.8635
58937SOL     OW83860   5.841  10.913   1.123  0.0304  0.1572  0.7849
58937SOL    HW183861   5.827  10.948   1.211 -0.9197 -1.5073  1.3180
58937SOL    HW283862   5.932  10.937   1.102 -0.3462  2.2920  1.3791
58938SOL     OW83863   7.099   4.836   3.881 -0.3590 -0.6142 -0.0142
58938SOL    HW183864   7.164   4.858   3.947  0.2352  0.0584 -0.8008
58938SOL    HW283865   7.103   4.741   3.873  0.1729 -0.6152  0.3009
58939SOL     OW83866   2.398  11.399   9.277 -0.1135 -0.0664  0.1158
58939SOL    HW183867   2.333  11.453   9.322 -1.1110 -0.5017 -0.7676
58939SOL    HW283868   2.477  11.407   9.330 -1.2181 -0.5062  1.9085
58940SOL     OW83869   3.335   0.797   1.223  0.2919 -0.2437 -0.1032
58940SOL    HW183870   3.418   0.831   1.189 -0.0968  0.4885 -0.3447
58940SOL    HW283871   3.321   0.845   1.305 -0.2563  0.1653 -0.4373
58941SOL     OW83872  10.395   5.666   3.488  0.0147  0.1207 -0.2160
58941SOL    HW183873  10.468   5.718   3.523  0.8880 -0.6828 -0.7982
58941SOL    HW283874  10.337   5.654   3.563  1.9693 -1.7711  1.1103
58942SOL     OW83875   1.189   5.062   8.493  0.1349  0.1985 -0.3369
58942SOL    HW183876   1.260   5.092   8.435  0.3732 -1.6640 -1.0775
58942SOL    HW283877   1.166   5.140   8.544  3.4791  0.6446  0.7624
58943SOL     OW83878   1.926   0.498  10.163 -0.0737  0.5622 -0.5279
58943SOL    HW183879   2.005   0.552  10.167  0.4261 -0.2181  0.4475
58943SOL    HW283880   1.860   0.550  10.210  0.2004  0.6600 -0.2463
58944SOL     OW83881   7.985   5.831  11.874 -0.0926 -0.2759 -0.0060
58944SOL    HW183882   7.926   5.757  11.881 -0.6176  0.0839 -0.5153
58944SOL    HW283883   8.073   5.794  11.883 -0.2571 -1.1855 -1.7054
58945SOL     OW83884   4.915   9.950  12.356  0.0372 -0.0379  0.0531
58945SOL    HW183885   4.921   9.951  12.261 -0.9731 -1.1078 -0.0376
58945SOL    HW283886   4.944  10.038  12.383 -1.0581  0.7809 -1.3206
58946SOL     OW83887  10.874   0.859  10.364  0.1720  0.4090 -0.1750
58946SOL    HW183888  10.822   0.888  10.289 -0.2086  0.9361  0.2842
58946SOL    HW283889  10.820   0.793  10.407 -0.0944  0.9050  0.2616
58947SOL     OW83890  10.721   6.096   2.981  0.4959 -0.0060  0.8695
58947SOL    HW183891  10.676   6.180   2.973 -0.4556 -0.4944  0.8566
58947SOL    HW283892  10.799   6.115   3.032  0.6104  0.9927  0.3446
58948SOL     OW83893   0.118  11.489   1.678  0.6128 -0.4881 -0.3403
58948SOL    HW183894   0.118  11.553   1.607  3.5465 -0.3902 -0.3844
58948SOL    HW283895   0.209  11.457   1.681 -0.1303 -2.6685  1.4404
58949SOL     OW83896   8.773   6.285   7.106 -0.3745  0.3583  0.3779
58949SOL    HW183897   8.830   6.358   7.128  0.4003 -0.2395  0.3796
58949SOL    HW283898   8.832   6.210   7.097 -0.6577  0.4041 -3.1995
58950SOL     OW83899  11.606   9.579   5.815  0.3102 -0.6231  0.0008
58950SOL    HW183900  11.657   9.552   5.891 -0.0156  0.0270  0.4619
58950SOL    HW283901  11.647   9.534   5.741  1.2675 -0.4632  0.4195
58951SOL     OW83902   4.926   3.751   6.150  0.3746 -0.5686  0.1156
58951SOL    HW183903   4.969   3.721   6.070 -0.1262  0.9768 -0.7657
58951SOL    HW283904   4.842   3.787   6.120  0.0299 -0.2721  1.3776
58952SOL     OW83905  12.033   3.055   4.538 -0.3480  0.2205  0.5289
58952SOL    HW183906  11.979   2.992   4.587  2.3089 -2.0532  0.8056
58952SOL    HW283907  12.120   3.046   4.577  0.5215  2.9582 -0.5743
58953SOL     OW83908   0.871   1.268   6.355  0.1376  0.1455  0.0704
58953SOL    HW183909   0.922   1.263   6.435  1.0524  0.3069 -0.4929
58953SOL    HW283910   0.780   1.276   6.385  0.4456 -0.0018  1.0778
58954SOL     OW83911  12.501   6.716  12.368 -0.3504 -0.1672 -0.0318
58954SOL    HW183912  12.548   6.792  12.333 -1.6919  0.2738 -0.9586
58954SOL    HW283913  12.466   6.672  12.291  0.6744 -1.9537  0.4701
58955SOL     OW83914   0.792  11.569   7.129  0.0363  0.5460 -0.5157
58955SOL    HW183915   0.724  11.600   7.070  1.0179  4.2065  0.0281
58955SOL    HW283916   0.759  11.589   7.217 -0.1165 -2.0207  0.0785
58956SOL     OW83917  10.237   4.915   6.228  0.4195  0.0577  0.5967
58956SOL    HW183918  10.166   4.933   6.167  0.9544  0.1141 -0.0176
58956SOL    HW283919  10.200   4.854   6.291  0.2558 -1.0623 -0.5570
58957SOL     OW83920   8.510   4.092   9.168 -0.2848  0.2562 -0.1603
58957SOL    HW183921   8.517   3.998   9.189 -0.8827  0.2292 -0.0764
58957SOL    HW283922   8.442   4.096   9.101  0.4376  0.5290 -0.8921
58958SOL     OW83923   8.297   0.381   6.495  0.5292  0.0039 -0.4837
58958SOL    HW183924   8.310   0.292   6.527 -0.9618 -0.0639  0.0085
58958SOL    HW283925   8.206   0.401   6.515  1.1828  2.1611  0.6707
58959SOL     OW83926  11.215   7.067   3.609  0.2622  0.1994  0.1023
58959SOL    HW183927  11.154   7.141   3.614  0.4263  0.3349  0.1279
58959SOL    HW283928  11.163   6.991   3.634 -0.5228 -0.0494 -2.0634
58960SOL     OW83929   6.041   8.802   2.496 -0.0565  0.2719 -0.3046
58960SOL    HW183930   6.030   8.768   2.585 -1.4890  0.9886 -0.1824
58960SOL    HW283931   6.079   8.730   2.447 -2.1733 -1.2457  0.1459
58961SOL     OW83932   1.156  12.422   6.509 -0.1204 -0.2255  0.2962
58961SOL    HW183933   1.216  12.352   6.482  0.5242  1.1998 -2.2790
58961SOL    HW283934   1.203  12.503   6.488 -2.9148  0.9678 -1.9250
58962SOL     OW83935   9.729   4.849   7.769  0.1232  0.0540 -0.6478
58962SOL    HW183936   9.801   4.807   7.721  1.5991  1.0861  0.5721
58962SOL    HW283937   9.738   4.815   7.858 -0.5671  0.6074 -0.3640
58963SOL     OW83938   2.707  11.116  11.607 -0.2148 -0.5941 -0.1398
58963SOL    HW183939   2.718  11.031  11.565  1.2569  0.3227 -1.7765
58963SOL    HW283940   2.619  11.144  11.583  0.4352 -0.2798 -2.4520
58964SOL     OW83941   2.811   4.831   5.108  0.0600  0.2662 -0.3932
58964SOL    HW183942   2.716   4.819   5.096 -0.0084 -1.1540  1.1659
58964SOL    HW283943   2.819   4.870   5.195  0.9520 -1.4879  0.3615
58965SOL     OW83944   0.509   2.329   5.788  0.3146  0.3425  0.3374
58965SOL    HW183945   0.452   2.336   5.711 -1.3063 -0.5101  1.4002
58965SOL    HW283946   0.455   2.287   5.855  2.7397 -2.2651  0.8820
58966SOL     OW83947   9.484   2.915   3.233  0.0557 -0.6547 -0.0661
58966SOL    HW183948   9.530   2.890   3.153  0.7543 -0.3825  0.2516
58966SOL    HW283949   9.457   2.831   3.272  0.9521 -0.8492  0.1438
58967SOL     OW83950   8.263   1.894  12.397 -0.2355  0.2100  0.6985
58967SOL    HW183951   8.282   1.987  12.406 -2.9335  1.0073 -0.6241
58967SOL    HW283952   8.315   1.865  12.323  1.4532  0.3261  1.7831
58968SOL     OW83953  11.108   3.831   8.261  0.0307  0.2995 -0.3527
58968SOL    HW183954  11.116   3.803   8.169  0.8248 -0.0947 -0.1706
58968SOL    HW283955  11.068   3.756   8.305  1.8498 -0.4864  0.0695
58969SOL     OW83956  10.314   7.846  11.752 -0.1768  0.2783  0.4339
58969SOL    HW183957  10.331   7.766  11.802  1.7013  0.8354  0.7593
58969SOL    HW283958  10.254   7.897  11.807 -0.4152 -0.3540  0.7751
58970SOL     OW83959   2.401   1.886   5.709 -0.5131 -0.0699 -0.1135
58970SOL    HW183960   2.311   1.859   5.730 -0.3881 -0.2311  0.2327
58970SOL    HW283961   2.454   1.809   5.729 -0.4494 -0.4506 -1.6657
58971SOL     OW83962   1.312   1.873   3.035 -0.5027  0.2605 -0.0349
58971SOL    HW183963   1.372   1.924   2.981 -0.0531 -0.7132 -0.4646
58971SOL    HW283964   1.278   1.937   3.098 -2.5609  1.9612 -2.6199
58972SOL     OW83965   5.607   3.571   2.698  0.1542  0.2469  0.1713
58972SOL    HW183966   5.671   3.512   2.657  0.0006  0.1522  0.0648
58972SOL    HW283967   5.571   3.520   2.771 -2.4914 -1.1799 -1.9182
58973SOL     OW83968   5.752  10.216  12.320  0.1062  0.1586  0.4426
58973SOL    HW183969   5.698  10.174  12.253 -0.0145  1.1046 -0.0690
58973SOL    HW283970   5.819  10.264  12.271  1.4955 -1.0506  1.0671
58974SOL     OW83971  11.577  10.989  10.256  0.2447 -0.3109  0.2898
58974SOL    HW183972  11.655  10.938  10.232  1.2151  1.5814 -0.8866
58974SOL    HW283973  11.513  10.968  10.189  1.3899  1.5381 -1.4977
58975SOL     OW83974   6.433   2.391   1.818 -0.1175  0.0442  0.3363
58975SOL    HW183975   6.511   2.363   1.770  0.1914 -0.5970  1.1834
58975SOL    HW283976   6.378   2.433   1.753 -0.0682 -1.5002 -0.7358
58976SOL     OW83977   3.465   7.746   7.352  0.1419  0.0114  0.2573
58976SOL    HW183978   3.458   7.762   7.446 -2.0921 -1.4305  0.4181
58976SOL    HW283979   3.501   7.658   7.345  0.1058  0.0344 -0.2289
58977SOL     OW83980   4.830   3.292   0.305  0.4050  0.3803  0.3859
58977SOL    HW183981   4.879   3.211   0.293  0.4998  0.6418 -1.2292
58977SOL    HW283982   4.882   3.343   0.367  0.4750 -0.6691  1.2179
58978SOL     OW83983  12.241   7.035   4.349  0.3437  0.2053  0.1119
58978SOL    HW183984  12.147   7.039   4.368  0.2114  0.1538 -0.5026
58978SOL    HW283985  12.254   6.947   4.314  0.1676  0.9858 -2.0625
58979SOL     OW83986   7.621   3.755   7.053 -0.2043 -0.0800 -0.7044
58979SOL    HW183987   7.708   3.717   7.038  0.1359 -0.1358  1.2031
58979SOL    HW283988   7.614   3.764   7.148 -1.8241  1.0534 -0.8842
58980SOL     OW83989  10.264   5.064  10.537  0.2516  0.1115  0.4222
58980SOL    HW183990  10.245   4.990  10.479 -2.0550 -1.2631  2.7340
58980SOL    HW283991  10.194   5.126  10.520 -0.2511 -0.1562  1.4205
58981SOL     OW83992   7.281  12.378   4.945  0.4305  0.5501 -0.6171
58981SOL    HW183993   7.208  12.424   4.904  0.1712 -0.8652 -1.8265
58981SOL    HW283994   7.241  12.321   5.010  0.5815  0.6529 -0.4306
58982SOL     OW83995   8.187   9.597   6.896  0.0678 -0.1544  0.4805
58982SOL    HW183996   8.133   9.636   6.828  1.0752  0.5141  0.0541
58982SOL    HW283997   8.245   9.667   6.925  0.3600 -0.7146  1.3023
58983SOL     OW83998   1.095  10.006  11.437 -0.2619  0.1527  0.0229
58983SOL    HW183999   1.155  10.032  11.367 -0.9946  0.5704 -0.4629
58983SOL    HW284000   1.020  10.065  11.427 -0.6744 -0.2433  0.7314
58984SOL     OW84001   4.232  10.034   9.209  0.3240 -0.2659  0.0943
58984SOL    HW184002   4.149  10.061   9.171  0.0090 -1.6094 -0.2012
58984SOL    HW284003   4.276  10.117   9.231 -0.4944  0.4781 -0.9874
58985SOL     OW84004   0.091   6.166   7.320 -0.3135 -0.2301  0.0655
58985SOL    HW184005   0.115   6.240   7.266  2.1146 -1.2810 -0.4190
58985SOL    HW284006  -0.004   6.160   7.312 -0.2545  0.9456 -2.3509
58986SOL     OW84007   3.674   9.226   7.185  0.2046 -0.2044  0.2785
58986SOL    HW184008   3.748   9.166   7.195 -0.7717 -1.5964 -0.5144
58986SOL    HW284009   3.714   9.309   7.158  1.6104 -0.3610  1.7135
58987SOL     OW84010  12.252   2.943   8.000 -0.4180 -0.7496  0.0621
58987SOL    HW184011  12.262   3.028   8.043  0.7056 -0.6773 -0.2929
58987SOL    HW284012  12.158   2.928   7.997 -0.8505  1.7001 -2.1838
58988SOL     OW84013   5.417  11.413  11.820  0.1588  0.4143 -0.0811
58988SOL    HW184014   5.507  11.391  11.796  0.7319 -0.1978  2.3335
58988SOL    HW284015   5.365  11.387  11.745  1.7278 -1.6577 -0.5347
58989SOL     OW84016   7.359   2.508   8.234 -0.4496  0.0828  0.0844
58989SOL    HW184017   7.385   2.510   8.142 -0.5708 -0.2490  0.0402
58989SOL    HW284018   7.324   2.595   8.251 -1.9064 -0.3234 -0.6263
58990SOL     OW84019   0.043  12.445   3.081  0.1239  0.8415 -0.0418
58990SOL    HW184020  -0.037  12.447   3.030 -0.4822  2.6452  0.9194
58990SOL    HW284021   0.107  12.492   3.028  0.6252 -0.6914 -0.8577
58991SOL     OW84022   6.319   8.072   2.862  0.6814  0.2946 -0.2965
58991SOL    HW184023   6.258   8.029   2.804 -1.0587 -0.1721  1.7503
58991SOL    HW284024   6.269   8.145   2.900  0.6769 -1.1473  2.7669
58992SOL     OW84025   3.599   0.295   6.174  0.0773  0.0497  0.1258
58992SOL    HW184026   3.538   0.225   6.150  0.1412  0.3585 -0.9963
58992SOL    HW284027   3.685   0.253   6.171  0.0101 -0.1242  0.6538
58993SOL     OW84028   5.650  10.603   6.870  0.4352  0.3884  0.5254
58993SOL    HW184029   5.569  10.557   6.894  1.1315 -1.0219  0.2634
58993SOL    HW284030   5.656  10.593   6.776  0.5014  1.2295  0.4319
58994SOL     OW84031  11.434   7.392  10.776 -0.3864 -0.3007 -0.0573
58994SOL    HW184032  11.433   7.465  10.838  1.8076 -0.5102  0.2723
58994SOL    HW284033  11.456   7.433  10.692 -0.4943 -0.4052 -0.1376
58995SOL     OW84034   2.115  10.389   0.655  0.3210  0.6641 -0.0218
58995SOL    HW184035   2.056  10.423   0.722 -0.6955 -1.0461  0.0150
58995SOL    HW284036   2.063  10.388   0.574 -0.4222 -2.4691  0.3466
58996SOL     OW84037   8.909  10.026   5.610  0.3266 -0.1380  0.3492
58996SOL    HW184038   9.003  10.014   5.623  0.4614  0.5767  0.0786
58996SOL    HW284039   8.900  10.044   5.517 -0.0141  0.3540  0.4739
58997SOL     OW84040   6.928   9.410  11.716 -0.0299  0.0124  0.4658
58997SOL    HW184041   6.945   9.452  11.800  1.9290 -0.3407  0.2905
58997SOL    HW284042   6.833   9.413  11.706 -0.2407  0.6631  2.3647
58998SOL     OW84043   6.021   3.884   6.269 -0.4739 -0.3234 -0.1429
58998SOL    HW184044   6.011   3.978   6.283  0.4131 -0.2619  0.1258
58998SOL    HW284045   6.116   3.869   6.271 -0.6477 -1.4524  1.4377
58999SOL     OW84046  10.439   9.121   6.565 -0.0265  0.0465  0.5553
58999SOL    HW184047  10.400   9.034   6.556  1.5673 -0.5594 -1.2144
58999SOL    HW284048  10.477   9.121   6.653 -0.8296 -0.6746  0.9280
59000SOL     OW84049   9.354   8.289   7.179  0.5735  0.7112  0.2570
59000SOL    HW184050   9.334   8.381   7.165 -1.2888  0.1778 -0.9718
59000SOL    HW284051   9.275   8.254   7.221 -0.0555 -0.9008 -2.0633
59001SOL     OW84052   7.239   7.951   0.443  0.5685  0.9380  0.2539
59001SOL    HW184053   7.332   7.961   0.465  0.4198  0.2141  1.2973
59001SOL    HW284054   7.240   7.917   0.354  1.2977  1.2254  0.1417
59002SOL     OW84055  12.295   3.588   6.784  0.1421  0.5754  0.3482
59002SOL    HW184056  12.386   3.601   6.812  0.1899 -0.9945  1.0552
59002SOL    HW284057  12.302   3.534   6.705 -0.1193  2.3848 -0.9570
59003SOL     OW84058   1.739   9.331   3.517 -0.0704 -0.1281  0.0503
59003SOL    HW184059   1.645   9.347   3.516 -0.2743 -1.2280 -1.6714
59003SOL    HW284060   1.776   9.405   3.469 -0.0359  0.3055  0.7288
59004SOL     OW84061   3.096   0.816   1.083 -0.6630  0.1199 -0.8416
59004SOL    HW184062   3.048   0.877   1.138  0.7474  1.7554 -1.3384
59004SOL    HW284063   3.178   0.801   1.130 -0.7711 -1.0007 -0.9850
59005SOL     OW84064   8.282   3.758   3.931  0.4652 -0.0587  0.4160
59005SOL    HW184065   8.204   3.727   3.885  1.1673 -2.5460  0.7490
59005SOL    HW284066   8.260   3.847   3.958 -1.3566  0.1487 -1.4943
59006SOL     OW84067   2.342  11.530   1.514 -0.8587  0.2103  0.0265
59006SOL    HW184068   2.323  11.459   1.575 -0.0122 -0.1713 -0.1433
59006SOL    HW284069   2.422  11.503   1.469 -0.0887  1.6021  0.4897
59007SOL     OW84070   7.727   6.328   9.902  0.1592 -0.6564 -0.1759
59007SOL    HW184071   7.781   6.393   9.857  2.4751 -1.9820  0.4712
59007SOL    HW284072   7.687   6.277   9.832  2.6989 -1.8942 -0.8332
59008SOL     OW84073   6.226   2.334   9.169  0.5184 -0.3882 -0.6998
59008SOL    HW184074   6.281   2.407   9.141  0.9737 -0.8706 -1.0719
59008SOL    HW284075   6.242   2.265   9.105 -1.7000 -0.0184 -1.7458
59009SOL     OW84076  10.588   3.093   0.760  0.3286 -0.1706 -0.4274
59009SOL    HW184077  10.627   3.052   0.683 -1.3077  0.8183 -1.8589
59009SOL    HW284078  10.540   3.168   0.725  0.4714  0.9892  1.7114
59010SOL     OW84079   1.398   9.647   8.095 -0.3681  0.7465  0.5013
59010SOL    HW184080   1.361   9.558   8.098  1.6749 -0.2889 -1.6258
59010SOL    HW284081   1.472   9.644   8.155 -1.1627  1.5031  1.5418
59011SOL     OW84082   1.968   3.831  11.320 -0.2928  0.5815 -0.3794
59011SOL    HW184083   1.969   3.896  11.389  1.6510 -0.5181  0.7125
59011SOL    HW284084   1.936   3.751  11.362  0.0344  0.1193 -0.9878
59012SOL     OW84085   5.550  10.692   2.493 -0.3863  0.1174 -0.0499
59012SOL    HW184086   5.495  10.701   2.416 -0.1824  1.0910 -0.0884
59012SOL    HW284087   5.522  10.762   2.552 -0.3694 -0.4566  0.6608
59013SOL     OW84088   5.914   9.936   6.265  0.2034 -0.0277  0.1543
59013SOL    HW184089   5.910  10.032   6.264  1.6033  0.0807  1.5252
59013SOL    HW284090   5.854   9.910   6.335 -0.6213 -0.2125 -0.6000
59014SOL     OW84091  10.579  11.164   5.083  0.3245 -0.2073 -0.1972
59014SOL    HW184092  10.488  11.194   5.094  0.3879  0.0517 -0.3457
59014SOL    HW284093  10.571  11.070   5.065  0.1753 -0.4509  1.0861
59015SOL     OW84094   3.807   9.255   2.569  0.8557 -0.5014 -0.2939
59015SOL    HW184095   3.737   9.241   2.633  0.3220  2.2696 -0.1646
59015SOL    HW284096   3.888   9.238   2.618  0.3839 -2.7163 -0.1685
59016SOL     OW84097   9.230   3.946  10.749 -0.4278  0.1493  0.1592
59016SOL    HW184098   9.214   3.857  10.718 -2.6713  0.6271 -0.2414
59016SOL    HW284099   9.281   3.935  10.829  2.5994 -1.2718 -1.7938
59017SOL     OW84100   5.330   8.136   2.905 -0.0081  0.4068  0.4908
59017SOL    HW184101   5.253   8.138   2.962 -0.1850 -0.7843  0.3132
59017SOL    HW284102   5.403   8.118   2.964 -0.1141 -0.2396  0.4349
59018SOL     OW84103   6.849  10.064   8.991 -0.0080  0.1421  0.3729
59018SOL    HW184104   6.903  10.017   9.054 -0.7720 -0.1578  0.8289
59018SOL    HW284105   6.765  10.074   9.035 -0.3911  0.4077 -0.3943
59019SOL     OW84106   5.395  11.488   8.349 -0.0708  0.1897  0.1693
59019SOL    HW184107   5.323  11.486   8.286 -0.9899  1.4362  1.1321
59019SOL    HW284108   5.372  11.423   8.415  0.0911  0.0106  0.0490
59020SOL     OW84109   2.028   2.078   3.586  0.3074 -0.2739  0.6258
59020SOL    HW184110   1.986   2.089   3.671  1.2448  0.4920  1.0003
59020SOL    HW284111   2.004   1.989   3.559 -1.6173  0.1462  0.7746
59021SOL     OW84112   4.734   1.719   6.895  0.2746 -0.7384  0.1006
59021SOL    HW184113   4.782   1.685   6.970 -1.8168 -0.3654  1.6982
59021SOL    HW284114   4.762   1.665   6.822  1.3314 -2.0545  1.4235
59022SOL     OW84115   4.773  10.810  10.414 -0.5021 -0.4198  0.1492
59022SOL    HW184116   4.785  10.725  10.373 -0.9797 -0.1351 -0.6087
59022SOL    HW284117   4.858  10.853  10.406 -0.6317 -0.3012 -0.7361
59023SOL     OW84118   8.845   4.274   8.374  0.1217 -0.1315 -0.3246
59023SOL    HW184119   8.779   4.234   8.316  0.0027 -2.3775  1.2248
59023SOL    HW284120   8.862   4.360   8.335 -3.1506  0.2470 -1.2300
59024SOL     OW84121  11.123   6.809   4.018 -0.0546 -0.2054 -0.0214
59024SOL    HW184122  11.111   6.715   4.005 -1.4194  0.0410 -0.6824
59024SOL    HW284123  11.217   6.822   4.004  0.3766 -1.6147  1.2006
59025SOL     OW84124   6.483   0.906   6.659 -0.3797 -0.0542  0.0638
59025SOL    HW184125   6.478   0.849   6.736  1.8464  0.9502  1.0377
59025SOL    HW284126   6.406   0.963   6.666 -0.2545 -0.0160  1.5324
59026SOL     OW84127   5.044   1.525   7.812  0.6517  0.1950  0.1424
59026SOL    HW184128   5.091   1.501   7.732  1.4484  0.6390  0.4688
59026SOL    HW284129   5.023   1.441   7.853  0.3137 -0.0348 -0.4805
59027SOL     OW84130   0.181   3.322   5.841  0.3548 -0.2028  0.2093
59027SOL    HW184131   0.134   3.338   5.923  1.3834 -0.7233  0.9177
59027SOL    HW284132   0.192   3.409   5.803  1.8761  0.3283  1.7634
59028SOL     OW84133   3.812   4.096   8.348 -0.2205 -0.2018 -0.2860
59028SOL    HW184134   3.801   4.126   8.438 -0.0379  0.2372 -0.4097
59028SOL    HW284135   3.725   4.106   8.309 -0.7388 -1.9711  0.2985
59029SOL     OW84136   9.156   4.395   3.434 -0.3440  0.4180  0.1040
59029SOL    HW184137   9.062   4.403   3.422 -0.4689 -1.3103 -0.3071
59029SOL    HW284138   9.182   4.322   3.377  1.2325  0.8082  0.2621
59030SOL     OW84139   7.722   3.726   1.720  0.0275 -0.4219 -0.4234
59030SOL    HW184140   7.685   3.751   1.635  2.1304  1.4088 -0.8997
59030SOL    HW284141   7.708   3.802   1.776 -0.4574 -1.2341  0.5938
59031SOL     OW84142  11.240   1.178   3.605 -0.2709 -0.8529  0.2308
59031SOL    HW184143  11.262   1.266   3.575 -1.0028 -0.5079  0.6750
59031SOL    HW284144  11.320   1.147   3.648 -0.1333 -0.2547  0.4171
59032SOL     OW84145   1.919  12.459   0.436  0.0893 -0.3592 -0.0620
59032SOL    HW184146   2.013  12.456   0.452  0.0557  2.4185  1.1395
59032SOL    HW284147   1.879  12.446   0.522 -0.4488  2.0267  0.1238
59033SOL     OW84148   9.648  10.118   5.021  0.6669 -0.1606 -0.2413
59033SOL    HW184149   9.626  10.036   4.976  1.0392  0.2642 -1.2150
59033SOL    HW284150   9.716  10.157   4.968 -0.6277  1.5756 -0.7005
59034SOL     OW84151   0.426   0.050  10.644  0.0907 -0.0404  0.4339
59034SOL    HW184152   0.423  -0.045  10.647  0.2321 -0.1237 -1.0796
59034SOL    HW284153   0.519   0.072  10.654  0.1112 -0.0966  0.3710
59035SOL     OW84154   7.478   6.804   2.142 -0.2376  0.0976  0.2811
59035SOL    HW184155   7.471   6.709   2.130  0.3941  0.2049 -1.1043
59035SOL    HW284156   7.404   6.839   2.092  0.0650  0.3678  0.0178
59036SOL     OW84157  10.719   7.660  11.397  0.5569 -0.5734  0.4591
59036SOL    HW184158  10.706   7.618  11.482  0.0353 -2.0729 -0.3283
59036SOL    HW284159  10.814   7.672  11.390  0.5318  0.4047  1.6271
59037SOL     OW84160   0.733   7.601   8.965 -0.5143  0.1947 -0.2793
59037SOL    HW184161   0.762   7.674   9.019  1.9087  0.6536 -2.0149
59037SOL    HW284162   0.709   7.641   8.882 -0.6722 -0.8247 -0.7377
59038SOL     OW84163   0.149  10.198   4.460 -0.4170 -0.0105  1.0274
59038SOL    HW184164   0.229  10.162   4.423 -0.5233 -0.9848  1.7193
59038SOL    HW284165   0.112  10.127   4.512 -0.0542  1.3854  3.3513
59039SOL     OW84166  11.735   8.519   2.215  0.6641 -0.4391  0.6035
59039SOL    HW184167  11.828   8.511   2.193  0.2605 -0.3334 -1.2963
59039SOL    HW284168  11.701   8.583   2.152 -0.3036  1.0629  2.5514
59040SOL     OW84169   5.617   2.303   3.367  0.0688 -0.0262 -0.3015
59040SOL    HW184170   5.521   2.300   3.357  0.1713 -0.2783 -1.4368
59040SOL    HW284171   5.645   2.367   3.301  0.6162  0.8091  0.7172
59041SOL     OW84172   7.057   6.472   7.499  0.0962  0.2734  0.2621
59041SOL    HW184173   7.085   6.484   7.590  0.1808  0.8380  0.1643
59041SOL    HW284174   7.115   6.403   7.466  1.9247  1.8995 -0.1417
59042SOL     OW84175   0.336   6.018   6.999  0.0224  0.6002  0.6504
59042SOL    HW184176   0.252   6.061   6.985 -0.0420  0.5189  0.7826
59042SOL    HW284177   0.328   5.979   7.086 -0.6778 -1.4421 -0.2616
59043SOL     OW84178   9.300  11.793  11.961  0.2827  0.0912 -0.3655
59043SOL    HW184179   9.229  11.794  11.897 -1.1620  2.0574  1.1346
59043SOL    HW284180   9.360  11.861  11.931  0.6465 -0.3614 -0.6808
59044SOL     OW84181   3.306   4.958  10.328 -0.7349 -0.3348  0.1155
59044SOL    HW184182   3.315   4.880  10.383 -1.0501  0.3782  1.2192
59044SOL    HW284183   3.380   4.953  10.268  0.4031 -0.4993  1.4556
59045SOL     OW84184   3.008   4.207   5.003 -0.3755  0.1126  0.6366
59045SOL    HW184185   3.051   4.132   5.044 -0.9448 -0.4837  0.1695
59045SOL    HW284186   2.936   4.168   4.952 -0.0622  0.8862 -0.4300
59046SOL     OW84187   2.066   1.348   7.888  0.3102 -0.1634 -1.1529
59046SOL    HW184188   2.067   1.356   7.793  0.8482  0.0149 -1.1324
59046SOL    HW284189   2.085   1.255   7.905 -0.9860 -0.4662 -1.2463
59047SOL     OW84190   2.129   3.553  12.370  0.3583  0.5183 -0.0403
59047SOL    HW184191   2.161   3.506  12.293 -2.2192  0.6752 -1.3160
59047SOL    HW284192   2.174   3.511  12.443  2.0203 -0.4324 -1.5137
59048SOL     OW84193   8.735   5.505  10.728  0.1338 -0.5995  0.2634
59048SOL    HW184194   8.771   5.594  10.737 -1.0240 -0.0658 -0.2330
59048SOL    HW284195   8.803   5.448  10.766  0.3221  0.6008  1.8479
59049SOL     OW84196   0.076  12.201   3.189  0.0475  0.2508 -0.0983
59049SOL    HW184197   0.156  12.169   3.149 -1.0462  0.5294 -2.6749
59049SOL    HW284198   0.062  12.288   3.151 -0.9840  0.6130  1.0269
59050SOL     OW84199   3.961  12.038   4.914  0.4442  0.0904 -0.3659
59050SOL    HW184200   3.961  12.125   4.953  0.9943  0.1968 -0.5948
59050SOL    HW284201   4.015  11.985   4.973  0.8780  0.1343 -0.7183
59051SOL     OW84202   8.177   2.082  12.121  0.0568  0.6171  0.2399
59051SOL    HW184203   8.133   2.112  12.042  1.4202  0.2134 -0.7248
59051SOL    HW284204   8.141   1.995  12.137 -0.2163  0.6936  0.0502
59052SOL     OW84205   2.924  10.692   9.668 -0.2075  0.2924 -0.1312
59052SOL    HW184206   2.994  10.714   9.606  0.2195 -0.2666  0.1455
59052SOL    HW284207   2.847  10.736   9.634 -0.1126 -0.4860 -1.3792
59053SOL     OW84208   7.853   2.299  10.661  0.2365 -0.1388  0.1304
59053SOL    HW184209   7.867   2.314  10.755 -1.6997  1.4277  0.2145
59053SOL    HW284210   7.917   2.356  10.618  0.1386  0.2599  0.5033
59054SOL     OW84211   6.595  11.433   1.674 -0.2901 -0.1276  0.1184
59054SOL    HW184212   6.501  11.437   1.661 -0.3544 -1.5720 -0.0673
59054SOL    HW284213   6.625  11.524   1.669 -1.4726  0.2051 -1.2733
59055SOL     OW84214  10.850  11.812   1.543 -0.3381  0.1990 -0.1089
59055SOL    HW184215  10.804  11.867   1.481  0.4984  1.1229  0.0615
59055SOL    HW284216  10.875  11.735   1.493  0.0605  0.7967 -0.8465
59056SOL     OW84217   7.900   7.230  11.700  0.4546 -0.0864 -0.5173
59056SOL    HW184218   7.973   7.264  11.752  0.5933 -0.5156 -0.4291
59056SOL    HW284219   7.927   7.244  11.610  0.7919 -0.5475 -0.4898
59057SOL     OW84220   6.999   5.937   2.397 -0.3340 -0.4277  0.4370
59057SOL    HW184221   7.093   5.957   2.389 -0.4362  0.3842  1.1562
59057SOL    HW284222   6.962   5.962   2.312 -0.1525  0.7652  0.6897
59058SOL     OW84223  12.139  12.450  11.830  0.1524 -0.3105 -0.1825
59058SOL    HW184224  12.230  12.453  11.798  0.7015 -2.1332  1.0589
59058SOL    HW284225  12.126  12.536  11.871  1.5258 -0.2327  0.1484
59059SOL     OW84226   3.885   1.478   5.309 -0.5765 -0.4016 -1.0100
59059SOL    HW184227   3.911   1.564   5.343  1.2072 -0.7480 -1.4035
59059SOL    HW284228   3.807   1.495   5.256 -0.0338  1.0221 -1.3819
59060SOL     OW84229   4.226   1.684   0.725  0.3198 -0.1827  0.5883
59060SOL    HW184230   4.158   1.687   0.657  1.0521 -0.7078 -0.1903
59060SOL    HW284231   4.178   1.689   0.807 -0.5346  1.4639  0.0344
59061SOL     OW84232   4.711   1.350   8.656 -0.3960  0.5313 -0.6031
59061SOL    HW184233   4.803   1.354   8.630 -0.6632  0.0051 -1.7101
59061SOL    HW284234   4.677   1.437   8.636 -0.2795  0.5427 -0.7562
59062SOL     OW84235  11.155   2.904   2.943 -0.2801 -0.2701 -0.0994
59062SOL    HW184236  11.152   2.888   3.037  1.1945 -0.1590 -0.0139
59062SOL    HW284237  11.248   2.897   2.920 -0.5154  0.5347 -1.3995
59063SOL     OW84238   6.023   7.830  11.436  0.1483 -0.3111 -0.2538
59063SOL    HW184239   5.946   7.886  11.428  0.8403  0.6092 -0.5895
59063SOL    HW284240   6.036   7.821  11.531 -0.8400 -1.1451 -0.1826
59064SOL     OW84241  11.565   3.637   9.740 -0.5014  0.2605 -0.3241
59064SOL    HW184242  11.578   3.669   9.651 -0.8097 -0.2140 -0.5506
59064SOL    HW284243  11.612   3.553   9.742 -2.4507 -0.9134 -0.8072
59065SOL     OW84244   1.162  10.115   5.330 -0.7895  0.0945 -0.2133
59065SOL    HW184245   1.239  10.119   5.273 -0.6048 -2.8589 -0.3311
59065SOL    HW284246   1.197  10.090   5.416 -1.5121 -0.2800 -0.0217
59066SOL     OW84247   3.059   1.657   1.692 -0.2429 -0.3917 -0.1227
59066SOL    HW184248   3.083   1.742   1.655  0.8182 -0.9221 -0.7010
59066SOL    HW284249   3.041   1.602   1.617 -2.2824 -0.3506  0.2674
59067SOL     OW84250  10.776   7.646   2.641  0.1714  0.1268  0.3668
59067SOL    HW184251  10.751   7.563   2.599  1.0668 -0.9323  1.8134
59067SOL    HW284252  10.798   7.704   2.568 -1.3802 -0.5814 -0.7237
59068SOL     OW84253  10.087   4.694   3.627  0.7890  0.5095  0.3894
59068SOL    HW184254  10.151   4.710   3.696  1.8721 -2.0737  0.0614
59068SOL    HW284255  10.020   4.640   3.669  0.6942  0.1669 -0.2003
59069SOL     OW84256   3.058  10.332  11.341  0.0944 -0.4676 -0.4686
59069SOL    HW184257   3.002  10.265  11.301 -1.5150  0.4091  0.2727
59069SOL    HW284258   3.099  10.287  11.415 -3.3526  0.0428  1.9854
59070SOL     OW84259   7.559   8.912   7.290  0.0505 -0.0196  0.0208
59070SOL    HW184260   7.579   8.924   7.383  1.2306  0.8557 -0.3278
59070SOL    HW284261   7.569   8.818   7.275  0.0941 -0.1312  0.7240
59071SOL     OW84262   0.550   4.241   4.663  0.4771  0.6701  0.4433
59071SOL    HW184263   0.531   4.323   4.709 -0.9925  0.8270 -0.3667
59071SOL    HW284264   0.625   4.261   4.608  0.5506  1.2666  0.7538
59072SOL     OW84265   9.724   1.656   0.973  0.6638  0.9352  0.5199
59072SOL    HW184266   9.760   1.598   0.906  0.7590  0.8908  0.6088
59072SOL    HW284267   9.696   1.734   0.925 -3.0772 -0.6609 -0.2567
59073SOL     OW84268   9.872   0.473  11.767  0.0200 -0.7721  0.3368
59073SOL    HW184269   9.866   0.419  11.688  1.1833 -0.1102 -0.2386
59073SOL    HW284270   9.958   0.514  11.761  0.0263 -0.5085  1.8388
59074SOL     OW84271   0.871   4.815   3.824 -0.0744  0.7613  0.2346
59074SOL    HW184272   0.798   4.862   3.865 -0.7202 -0.6251  0.7359
59074SOL    HW284273   0.940   4.815   3.891 -0.1607  0.7796  0.3233
59075SOL     OW84274  12.550   6.250   6.763 -0.4752  0.3695  0.1783
59075SOL    HW184275  12.612   6.298   6.709 -0.4447  0.3215  0.1714
59075SOL    HW284276  12.538   6.166   6.719  0.7065 -0.2696  1.0401
59076SOL     OW84277   5.936  11.298  10.619 -0.0384 -0.2925  0.8130
59076SOL    HW184278   5.890  11.381  10.602  1.8477  0.4384 -1.1502
59076SOL    HW284279   5.962  11.304  10.711 -0.8235  0.8214  0.9842
59077SOL     OW84280  12.481   7.798  11.359 -0.4839  0.5797  0.2956
59077SOL    HW184281  12.541   7.757  11.296 -0.1327  0.6001  0.6158
59077SOL    HW284282  12.412   7.836  11.304 -1.0751 -0.8314  0.0247
59078SOL     OW84283   1.149   1.703   2.509  0.2486  0.2847  0.6874
59078SOL    HW184284   1.064   1.744   2.497 -0.2718 -0.4538  1.6490
59078SOL    HW284285   1.134   1.611   2.489  1.0504  0.3066 -0.0533
59079SOL     OW84286   7.315   9.490   6.088 -0.0173  0.1040 -0.5832
59079SOL    HW184287   7.298   9.553   6.017 -0.4549 -0.0839 -0.6497
59079SOL    HW284288   7.410   9.486   6.094  0.0265  1.2016 -0.2042
59080SOL     OW84289   3.182   9.508   4.211 -0.3207  0.4114  0.0820
59080SOL    HW184290   3.174   9.593   4.167  0.0034  1.0177  1.1557
59080SOL    HW284291   3.270   9.478   4.189 -0.1180  0.7641  0.4003
59081SOL     OW84292   9.471   2.736   1.482 -0.0360 -0.4428 -0.6869
59081SOL    HW184293   9.535   2.750   1.412  1.7068  0.3871  0.9532
59081SOL    HW284294   9.396   2.790   1.458 -0.1805 -1.4517 -2.6837
59082SOL     OW84295   5.503   7.055   4.734 -0.2249 -0.2026 -0.3776
59082SOL    HW184296   5.511   7.124   4.799  1.0294 -1.1611  0.5256
59082SOL    HW284297   5.592   7.024   4.720 -0.8684 -2.5002  0.2102
59083SOL     OW84298   0.084   3.993   6.391 -0.3343 -0.0099  0.2163
59083SOL    HW184299   0.147   4.000   6.320 -0.2335 -1.9046  0.0611
59083SOL    HW284300   0.120   4.048   6.461  0.1032  1.0242 -0.7919
59084SOL     OW84301   7.482   7.499  12.488 -0.3404 -0.2395 -0.0076
59084SOL    HW184302   7.546   7.518  12.419 -0.6202  1.7749  0.2204
59084SOL    HW284303   7.503   7.562  12.557 -3.0330  1.0449 -0.2510
59085SOL     OW84304   1.793   8.603  11.434  0.2853 -0.0569 -0.3864
59085SOL    HW184305   1.831   8.517  11.451 -0.8875 -0.4953  0.1322
59085SOL    HW284306   1.794   8.647  11.519  0.6715  0.3635 -0.6044
59086SOL     OW84307  10.753  12.512   0.677 -0.4881 -0.0702 -0.6001
59086SOL    HW184308  10.791  12.597   0.701  0.5566 -0.5491 -0.4901
59086SOL    HW284309  10.663  12.532   0.651 -0.1728  1.1113 -0.8449
59087SOL     OW84310   0.072   9.306   0.889  0.1779 -0.1394  0.5277
59087SOL    HW184311  -0.011   9.295   0.935 -0.7807 -0.4645 -1.1981
59087SOL    HW284312   0.094   9.218   0.858 -0.0030  0.2910 -0.9083
59088SOL     OW84313   5.941  11.759   3.352 -0.0099 -0.0135 -0.0337
59088SOL    HW184314   5.901  11.844   3.372 -1.4192 -0.6436 -0.0999
59088SOL    HW284315   5.874  11.712   3.303  0.3905 -1.5081  0.8029
59089SOL     OW84316   4.366   5.909   4.635 -0.0227  0.1474  0.1369
59089SOL    HW184317   4.280   5.949   4.620  1.0378  1.7919 -2.2533
59089SOL    HW284318   4.392   5.874   4.549  1.7315 -0.2120  0.7630
59090SOL     OW84319   5.657   9.926   7.202  0.4037  0.2891 -0.5611
59090SOL    HW184320   5.596   9.899   7.133 -0.0587  0.2518 -0.1476
59090SOL    HW284321   5.600   9.953   7.274  0.8706  1.2192 -0.5287
59091SOL     OW84322  11.360   7.722  11.905 -0.0598 -0.3708  0.3856
59091SOL    HW184323  11.405   7.709  11.988 -0.5534 -0.1311  0.7011
59091SOL    HW284324  11.286   7.661  11.908 -0.5322  0.1965  0.4741
59092SOL     OW84325  11.711   9.859   2.544  0.0759 -0.2729 -0.1670
59092SOL    HW184326  11.739   9.821   2.627  0.9789  0.3476 -0.1853
59092SOL    HW284327  11.774   9.826   2.480 -0.2000 -0.1802 -0.4900
59093SOL     OW84328   0.068   7.425   0.912 -0.2960 -0.4345 -0.2219
59093SOL    HW184329   0.080   7.411   1.006 -0.8600  0.6071  0.0184
59093SOL    HW284330   0.037   7.340   0.879 -0.0844 -0.8108  0.5227
59094SOL     OW84331   7.058  10.436   1.187  0.6198 -0.3132  0.2030
59094SOL    HW184332   7.066  10.346   1.157  1.0398 -0.4480  0.6995
59094SOL    HW284333   7.133  10.448   1.246  0.0661  0.0699  0.8389
59095SOL     OW84334  12.273   4.671   0.957  0.1104 -0.5522  0.1063
59095SOL    HW184335  12.179   4.657   0.959  0.1680 -0.9083  0.4335
59095SOL    HW284336  12.289   4.717   0.874 -0.5198  0.8471  0.7423
59096SOL     OW84337   6.597   7.639   3.467  0.3959 -0.5381  0.1825
59096SOL    HW184338   6.649   7.719   3.468 -1.1034  0.5003 -0.1520
59096SOL    HW284339   6.520   7.662   3.415  0.8307 -2.8203 -1.6446
59097SOL     OW84340  11.564   0.439   1.100 -0.6771  0.7196 -0.3382
59097SOL    HW184341  11.587   0.427   1.192  2.3120  0.7183 -0.9762
59097SOL    HW284342  11.556   0.534   1.090  2.6996  1.0928 -0.7077
59098SOL     OW84343  11.550   8.020   6.584 -0.0786  0.4574  0.6663
59098SOL    HW184344  11.517   8.023   6.674  1.3222  0.4205  1.2035
59098SOL    HW284345  11.618   8.087   6.581  3.3521 -2.6391  1.1403
59099SOL     OW84346  11.280  10.710   5.475  0.4121  0.0558  0.1373
59099SOL    HW184347  11.269  10.692   5.568  1.1741 -1.1018  0.0247
59099SOL    HW284348  11.367  10.750   5.468  0.1039  0.7113 -0.0118
59100SOL     OW84349  11.705   6.165   8.691 -0.0001  0.0147 -0.2529
59100SOL    HW184350  11.787   6.213   8.680  0.4460 -0.6817 -0.0526
59100SOL    HW284351  11.647   6.225   8.738  1.2748 -0.3856  1.9789
59101SOL     OW84352   7.207   7.273   7.884 -0.2946 -0.4689 -0.1750
59101SOL    HW184353   7.164   7.326   7.817 -0.7033 -0.7994 -0.1819
59101SOL    HW284354   7.266   7.216   7.834  2.1586  1.7542  0.0086
59102SOL     OW84355   8.655   0.772   4.333  0.1508  0.3000 -0.3443
59102SOL    HW184356   8.750   0.778   4.318  0.5377  1.5061  2.1571
59102SOL    HW284357   8.619   0.848   4.286  0.5737  0.5521 -0.2677
59103SOL     OW84358   7.646  11.525  12.018  0.1700 -0.0376  0.3997
59103SOL    HW184359   7.611  11.606  12.054  1.7814  0.7393  0.3082
59103SOL    HW284360   7.735  11.518  12.054 -0.0453 -1.9637  0.6906
59104SOL     OW84361   0.193   1.610   5.228 -0.6285 -0.6300 -0.1507
59104SOL    HW184362   0.241   1.538   5.267 -0.9782 -0.9720 -0.3468
59104SOL    HW284363   0.213   1.686   5.283  0.9539 -0.5242 -0.8072
59105SOL     OW84364   1.409   1.940   9.885 -0.1837  0.0924  0.3738
59105SOL    HW184365   1.373   1.957   9.973 -0.0146 -0.2866  0.5161
59105SOL    HW284366   1.425   1.846   9.883  2.1416  0.4204  0.8299
59106SOL     OW84367   0.081   4.914  11.022 -0.3512 -0.1566  0.4471
59106SOL    HW184368   0.115   4.893  11.108 -0.8078 -1.2193  0.3812
59106SOL    HW284369   0.017   4.984  11.038 -0.5707 -0.4760  0.9916
59107SOL     OW84370  11.104   4.398   2.388  0.5387  0.1790 -0.6052
59107SOL    HW184371  11.012   4.414   2.411 -0.4342 -2.9651 -1.8159
59107SOL    HW284372  11.148   4.480   2.412 -2.1541  1.1049  1.9858
59108SOL     OW84373   0.264  10.880   5.112 -0.1879  0.2115  0.3591
59108SOL    HW184374   0.291  10.792   5.138  0.6467  0.4488  0.3130
59108SOL    HW284375   0.171  10.871   5.091 -0.0247 -0.7368 -0.0105
59109SOL     OW84376   2.294   5.505   1.979 -0.0096  0.4006  0.0130
59109SOL    HW184377   2.383   5.528   1.953 -0.0342  2.2331  1.3868
59109SOL    HW284378   2.238   5.546   1.912  0.0779  2.0498  0.9064
59110SOL     OW84379  11.351   8.775   7.147 -0.0091 -0.3950  0.6396
59110SOL    HW184380  11.389   8.702   7.099 -1.9029 -0.7545 -0.4088
59110SOL    HW284381  11.351   8.747   7.239 -0.2315 -1.4938  0.3138
59111SOL     OW84382   4.112   2.231   8.767 -0.0895  0.4562 -0.0071
59111SOL    HW184383   4.193   2.189   8.799 -0.8214  0.5998  2.2184
59111SOL    HW284384   4.044   2.197   8.825 -1.6960  0.2425 -1.9277
59112SOL     OW84385   9.636   8.098  10.646 -0.2036  0.6369  0.8214
59112SOL    HW184386   9.683   8.129  10.723  1.3673  2.4578 -0.7781
59112SOL    HW284387   9.700   8.100  10.575 -1.7812 -0.2130 -0.7329
59113SOL     OW84388   3.827   4.984   8.710 -0.4396 -0.5881  0.0419
59113SOL    HW184389   3.833   5.078   8.694 -1.3028 -0.3503  0.9781
59113SOL    HW284390   3.830   4.944   8.623 -2.9441  0.5175 -0.6385
59114SOL     OW84391   6.787   2.711   4.737  0.0985  0.3984  0.2179
59114SOL    HW184392   6.796   2.678   4.827 -0.1923 -1.2420 -0.3260
59114SOL    HW284393   6.780   2.632   4.683 -2.1473  1.3511 -1.0076
59115SOL     OW84394   0.704   2.838   6.379  0.7835 -0.1364 -0.3179
59115SOL    HW184395   0.787   2.866   6.417  0.1992  1.0502  0.1767
59115SOL    HW284396   0.639   2.858   6.447  0.3701 -3.9581  0.6399
59116SOL     OW84397   5.997   1.631   7.648 -0.5383 -0.2188 -0.1618
59116SOL    HW184398   5.945   1.661   7.723  0.8907 -1.4947  1.4461
59116SOL    HW284399   5.943   1.652   7.572 -1.0436  3.3790  0.9663
59117SOL     OW84400   2.417   6.895   0.967  0.4140 -0.4454 -0.2421
59117SOL    HW184401   2.376   6.873   1.050 -0.4202  2.8729  0.3624
59117SOL    HW284402   2.441   6.810   0.929 -0.3656 -2.1366  2.7234
59118SOL     OW84403   1.772   8.414   7.314  0.0072  0.5602  0.4622
59118SOL    HW184404   1.773   8.335   7.368 -1.1998 -0.2637 -0.6445
59118SOL    HW284405   1.685   8.413   7.273  0.7878  1.2563 -1.3151
59119SOL     OW84406   2.636  12.127   9.974 -0.1878 -0.4265 -0.1755
59119SOL    HW184407   2.601  12.191  10.036  1.9491  0.4652  0.1998
59119SOL    HW284408   2.637  12.173   9.890  2.0626  0.4026  0.2357
59120SOL     OW84409   4.448   4.428   6.325 -0.0983  0.0705 -0.2347
59120SOL    HW184410   4.462   4.513   6.368  0.6978  0.4707 -1.2531
59120SOL    HW284411   4.518   4.372   6.359 -0.5084 -0.1301  0.2908
59121SOL     OW84412  11.879   5.364   4.196 -0.0997 -0.2717 -0.3313
59121SOL    HW184413  11.846   5.277   4.176  0.9909 -0.6068 -0.7113
59121SOL    HW284414  11.918   5.356   4.283 -1.4128  0.2471  0.3366
59122SOL     OW84415   4.481   1.102  11.327 -0.4496  0.3193  0.3664
59122SOL    HW184416   4.565   1.110  11.283 -0.6528  0.8150  0.0620
59122SOL    HW284417   4.501   1.064  11.412 -0.1934 -2.1863 -0.7038
59123SOL     OW84418   7.220   9.474  10.495  0.2901 -0.5046  0.3741
59123SOL    HW184419   7.207   9.379  10.498 -1.3862 -0.2917  1.0758
59123SOL    HW284420   7.178   9.501  10.413 -0.7104 -0.1958  0.9760
59124SOL     OW84421   8.577   6.867  11.619  0.3477  0.0956  0.0009
59124SOL    HW184422   8.554   6.777  11.644  0.7686 -0.4662 -1.5286
59124SOL    HW284423   8.519   6.922  11.671 -0.0397 -1.0660  0.8398
59125SOL     OW84424   4.208   6.320  12.438 -0.0611  0.2277  0.3237
59125SOL    HW184425   4.200   6.287  12.348  1.0272  0.6749  0.0525
59125SOL    HW284426   4.279   6.384  12.434  0.5089 -0.2893  1.6531
59126SOL     OW84427   1.969  10.926   8.552  0.1489 -0.1710  0.5268
59126SOL    HW184428   1.889  10.946   8.504  0.5614  0.9580  0.2605
59126SOL    HW284429   2.014  11.011   8.558  1.7999 -0.9446 -0.2356
59127SOL     OW84430  10.470   5.744   9.331 -0.2716  0.7962  0.5563
59127SOL    HW184431  10.411   5.697   9.273 -0.1917  1.2023  0.1386
59127SOL    HW284432  10.539   5.778   9.274  1.1550 -0.8526  1.2077
59128SOL     OW84433   2.720   3.092   5.865 -0.3204  0.2947 -0.1232
59128SOL    HW184434   2.662   3.112   5.938 -0.6292 -2.6088  0.5522
59128SOL    HW284435   2.808   3.095   5.902 -0.5008 -1.5973  0.5582
59129SOL     OW84436   9.632   6.338   8.225  0.1882  0.0334  0.3433
59129SOL    HW184437   9.569   6.266   8.224  1.4420 -1.1195 -0.0701
59129SOL    HW284438   9.685   6.322   8.304  0.8749  0.1324 -0.0903
59130SOL     OW84439  11.194   0.088  11.521 -0.3177 -0.3597 -0.0902
59130SOL    HW184440  11.129   0.060  11.586 -1.0682  0.5763 -0.4272
59130SOL    HW284441  11.271   0.034  11.540 -1.0883 -1.2799  0.5001
59131SOL     OW84442   2.242   8.284   1.125  0.1374 -0.2311  0.1815
59131SOL    HW184443   2.170   8.303   1.186 -0.4291  0.6315 -0.7212
59131SOL    HW284444   2.321   8.292   1.178 -0.3865 -0.3453  1.0027
59132SOL     OW84445   3.008  10.472   1.356  0.0478  0.3161  0.4642
59132SOL    HW184446   3.044  10.396   1.401 -1.8722 -0.0067  1.5380
59132SOL    HW284447   2.924  10.488   1.398 -0.7199  1.5328 -1.3961
59133SOL     OW84448   0.631   6.817  10.604  0.0617  0.0552 -0.2342
59133SOL    HW184449   0.641   6.847  10.514  1.2062 -0.2561 -0.2378
59133SOL    HW284450   0.707   6.760  10.618 -0.2408 -0.1037  0.8452
59134SOL     OW84451   0.853   2.722  11.182  0.0085 -0.2098 -0.6133
59134SOL    HW184452   0.943   2.742  11.156 -0.1178  1.0802 -0.1388
59134SOL    HW284453   0.799   2.764  11.115 -0.2492 -0.6633 -0.6936
59135SOL     OW84454   4.377  10.190  12.043 -0.6305 -0.5381 -0.2931
59135SOL    HW184455   4.453  10.139  12.071 -1.6179 -1.7309  0.3280
59135SOL    HW284456   4.341  10.141  11.969  0.3620  1.1306 -1.9550
59136SOL     OW84457  10.246  10.385  10.696 -0.2019  0.2598  0.4639
59136SOL    HW184458  10.283  10.298  10.678  1.4807  0.4520  2.5600
59136SOL    HW284459  10.313  10.446  10.664  0.4093  0.6646  2.4034
59137SOL     OW84460   2.930   7.719   3.097  0.6127  0.2278  0.1941
59137SOL    HW184461   2.893   7.654   3.157  1.4196  0.4759  0.9960
59137SOL    HW284462   2.862   7.735   3.032 -0.2237 -0.1799  0.9601
59138SOL     OW84463   4.203   0.839   5.537 -0.1473  0.4824  0.6379
59138SOL    HW184464   4.143   0.764   5.547  1.4846 -0.7458  1.6646
59138SOL    HW284465   4.284   0.801   5.504  0.7378  1.7968  1.2121
59139SOL     OW84466   9.028   8.727   7.083  0.1335 -0.0976  0.4677
59139SOL    HW184467   9.086   8.679   7.024  0.1730  0.3169  0.1662
59139SOL    HW284468   8.963   8.767   7.025  0.3392  0.5456  0.6731
59140SOL     OW84469   8.023   0.360   3.528  0.0702 -0.4528 -0.5020
59140SOL    HW184470   8.053   0.336   3.440  1.6121  1.7974 -0.6703
59140SOL    HW284471   8.103   0.383   3.575 -0.9432  0.9837  0.6142
59141SOL     OW84472   8.307  12.386  11.654  0.2880  0.5218 -0.1687
59141SOL    HW184473   8.365  12.441  11.706  1.3632  0.3606 -1.1738
59141SOL    HW284474   8.278  12.442  11.582  0.9841 -0.0480 -0.9123
59142SOL     OW84475   0.571   7.598   5.378 -0.0955  0.4141  0.5066
59142SOL    HW184476   0.490   7.547   5.387  0.8927 -1.1783  0.7677
59142SOL    HW284477   0.544   7.689   5.390 -1.3786 -0.2823  3.9153
59143SOL     OW84478   2.654  11.768   0.990 -0.1958  0.2052  0.0991
59143SOL    HW184479   2.741  11.776   1.031  0.1378  2.4887 -0.9060
59143SOL    HW284480   2.598  11.734   1.060  1.0539  0.7762  1.4269
59144SOL     OW84481  12.070   8.573  11.316 -0.2852 -0.2631 -0.2947
59144SOL    HW184482  12.046   8.665  11.328  0.4214 -0.2139  0.8877
59144SOL    HW284483  12.017   8.526  11.380  0.3749 -0.5203  0.0681
59145SOL     OW84484   9.567   5.196   5.524 -0.0125 -0.3226 -0.3344
59145SOL    HW184485   9.609   5.115   5.497 -1.1702 -1.0377 -0.0553
59145SOL    HW284486   9.478   5.190   5.489 -0.2270  0.6556  0.0121
59146SOL     OW84487   6.552  12.532   2.781 -0.0202 -0.3947 -1.2218
59146SOL    HW184488   6.556  12.627   2.792 -2.6857 -0.4155  1.0222
59146SOL    HW284489   6.634  12.500   2.818  0.8059  0.9752 -1.7773
59147SOL     OW84490   6.797  10.151   8.521 -0.1277 -0.5497 -0.2020
59147SOL    HW184491   6.747  10.069   8.518  1.1602 -1.3244 -1.5828
59147SOL    HW284492   6.879  10.128   8.565 -1.0981  0.8443  2.5790
59148SOL     OW84493   4.568   5.233   0.814  0.1309  0.0410  0.6300
59148SOL    HW184494   4.545   5.159   0.758  1.3207 -0.6027  0.9566
59148SOL    HW284495   4.491   5.246   0.869  0.2976 -1.6802  1.3225
59149SOL     OW84496  11.969   2.304  12.004 -0.2126  0.4588  0.0046
59149SOL    HW184497  11.928   2.229  11.960 -0.0102 -0.4889  1.3706
59149SOL    HW284498  11.912   2.378  11.983  0.6670  0.4281 -3.0848
59150SOL     OW84499   3.176   4.176  11.066  0.6325  0.4299 -0.1449
59150SOL    HW184500   3.208   4.134  11.146 -0.7867 -0.3506  0.0461
59150SOL    HW284501   3.122   4.248  11.097 -3.3219 -2.2297 -0.0917
59151SOL     OW84502   6.773   9.036   7.586 -0.1312 -0.6482  0.3522
59151SOL    HW184503   6.839   9.065   7.650  0.1945  1.2572 -0.7789
59151SOL    HW284504   6.812   8.958   7.546  0.2552 -1.0765  1.5166
59152SOL     OW84505   4.046  10.193  12.063 -0.1412 -0.0225 -0.1964
59152SOL    HW184506   4.112  10.136  12.025 -0.8547 -1.0995  0.1472
59152SOL    HW284507   3.965  10.143  12.059 -1.1215  1.5457 -1.2977
59153SOL     OW84508  11.961   2.483   2.213  0.2172  0.1814 -0.5381
59153SOL    HW184509  11.883   2.505   2.163 -0.2962  0.8079  0.5080
59153SOL    HW284510  12.031   2.534   2.172 -0.3625  1.3740 -0.1040
59154SOL     OW84511   9.087  12.410   1.368  0.0710 -0.8669 -0.2370
59154SOL    HW184512   9.077  12.346   1.438 -1.7148 -0.3854 -0.0153
59154SOL    HW284513   9.064  12.363   1.288  0.2029 -0.8908 -0.2618
59155SOL     OW84514   9.007   1.340   1.199 -0.0398 -0.7881 -0.3134
59155SOL    HW184515   9.102   1.327   1.208 -0.1915 -0.6005  2.5038
59155SOL    HW284516   8.984   1.398   1.272 -2.2269 -0.1903 -1.3991
59156SOL     OW84517  10.134   1.259   2.992 -0.3148  0.8066 -0.0385
59156SOL    HW184518  10.218   1.219   2.971 -0.2504  0.8128  0.2025
59156SOL    HW284519  10.074   1.226   2.925 -0.3040  0.1698  0.2634
59157SOL     OW84520   9.429   9.998  12.497  0.0271 -0.2367  0.4811
59157SOL    HW184521   9.507  10.018  12.549 -0.7239 -0.3316  1.6949
59157SOL    HW284522   9.450   9.914  12.455  0.8286  0.0640  0.2658
59158SOL     OW84523   3.253   0.738   7.411 -0.4385 -0.3491 -0.5637
59158SOL    HW184524   3.331   0.686   7.429  0.0798 -0.0387 -1.7814
59158SOL    HW284525   3.282   0.803   7.346 -1.6387 -0.0418 -0.8200
59159SOL     OW84526  10.327   0.329   5.845  0.4402 -0.4105 -0.3478
59159SOL    HW184527  10.354   0.420   5.835  0.2135 -0.0143  2.1063
59159SOL    HW284528  10.409   0.279   5.840  0.8561  0.1614  0.5858
59160SOL     OW84529  10.601  11.020   3.184  0.5246  0.3562 -0.0138
59160SOL    HW184530  10.653  11.098   3.164  1.9891 -0.6489 -0.3776
59160SOL    HW284531  10.660  10.965   3.236 -0.5931 -0.3706  0.5316
59161SOL     OW84532   6.041  10.971   9.120 -0.4850 -0.2186  0.2081
59161SOL    HW184533   6.017  10.894   9.068 -2.7679  0.7339 -0.2899
59161SOL    HW284534   6.045  11.043   9.057  2.6365 -0.0134  0.4995
59162SOL     OW84535   5.323  10.328   1.607 -0.4262 -0.2838 -0.1804
59162SOL    HW184536   5.390  10.275   1.564  0.0010 -0.1035  0.2553
59162SOL    HW284537   5.357  10.417   1.604  0.1095 -0.3958  1.4357
59163SOL     OW84538  10.604   6.259   9.230  0.0429 -0.3611  0.4482
59163SOL    HW184539  10.665   6.305   9.172  1.1897 -0.4559  1.5417
59163SOL    HW284540  10.518   6.288   9.201  0.6364  0.4844 -0.5528
59164SOL     OW84541   8.125   2.884   0.540 -0.6127 -0.3416  0.2470
59164SOL    HW184542   8.066   2.958   0.523 -0.9481 -0.7119 -0.2202
59164SOL    HW284543   8.174   2.873   0.458 -1.9292 -1.8584 -0.3893
59165SOL     OW84544   0.597  12.079   1.814  0.0594  0.2185  0.6757
59165SOL    HW184545   0.587  12.161   1.862 -1.1401 -0.0252  0.8878
59165SOL    HW284546   0.601  12.104   1.722 -1.2580  0.4695  0.6744
59166SOL     OW84547   8.472   0.094   1.215 -0.2265 -0.3261  0.3604
59166SOL    HW184548   8.498   0.099   1.123 -1.3709  2.1278  0.1022
59166SOL    HW284549   8.411   0.167   1.227 -2.0501 -2.0687  2.4710
59167SOL     OW84550   6.625   4.974   0.858 -0.6549  0.0452 -0.4081
59167SOL    HW184551   6.706   4.971   0.907  1.6671  3.3096 -3.5584
59167SOL    HW284552   6.617   4.886   0.820  1.3290 -0.3881  0.0860
59168SOL     OW84553   3.863   2.490   5.497  0.4285 -0.1694 -0.0300
59168SOL    HW184554   3.767   2.495   5.492  0.4374 -1.0078 -1.5521
59168SOL    HW284555   3.894   2.549   5.428  0.9747 -0.8670 -0.3947
59169SOL     OW84556  11.712   3.530  10.955 -0.1982 -0.2794 -0.2524
59169SOL    HW184557  11.708   3.625  10.945 -1.0942 -0.3316 -0.4279
59169SOL    HW284558  11.756   3.517  11.039  0.2899  0.2758 -0.4101
59170SOL     OW84559   0.651   6.126   5.165 -0.2274  0.2793 -0.1023
59170SOL    HW184560   0.742   6.101   5.177 -0.5661 -1.0702 -0.1814
59170SOL    HW284561   0.634   6.190   5.234  0.9391  1.0277 -0.4860
59171SOL     OW84562   2.324   8.934   8.749 -0.1122  0.2075  0.1179
59171SOL    HW184563   2.237   8.896   8.740 -0.5497  0.6792  2.0128
59171SOL    HW284564   2.384   8.862   8.732 -0.8022  0.1162 -2.2864
59172SOL     OW84565   4.311   1.051   6.210  0.0878  0.3200 -0.0410
59172SOL    HW184566   4.292   1.142   6.234 -0.3844  0.2177 -0.0161
59172SOL    HW284567   4.336   1.056   6.118  1.2186  0.6237  0.2716
59173SOL     OW84568  11.339   9.580   5.989 -0.4149  1.1090 -0.1211
59173SOL    HW184569  11.264   9.606   5.935 -1.7721 -0.6817  0.7741
59173SOL    HW284570  11.356   9.656   6.044 -1.8535  1.4516 -0.0942
59174SOL     OW84571   4.533  10.570  10.709  0.0117  0.2823  0.5203
59174SOL    HW184572   4.509  10.582  10.617  1.1796 -0.9515  0.0062
59174SOL    HW284573   4.465  10.512  10.744 -0.8108  1.2987  0.6341
59175SOL     OW84574   9.761   2.114   5.503 -0.6185  0.1599 -0.1377
59175SOL    HW184575   9.850   2.145   5.482 -0.1676  1.6972  3.3435
59175SOL    HW284576   9.774   2.027   5.540 -0.1390  1.2141  2.4097
59176SOL     OW84577  11.872   9.449   0.238 -0.7965  0.6921  0.1736
59176SOL    HW184578  11.786   9.437   0.198 -0.6081  0.5182 -0.1814
59176SOL    HW284579  11.866   9.534   0.282 -1.5343  0.1535  1.1473
59177SOL     OW84580  10.001  10.946   6.058 -0.1471  0.1202  0.5274
59177SOL    HW184581   9.921  10.953   6.109 -0.0214 -0.6914  0.8437
59177SOL    HW284582  10.050  10.875   6.099 -0.0199 -0.5201 -0.6766
59178SOL     OW84583   4.699   7.257   1.363 -0.1239  0.0972  0.5176
59178SOL    HW184584   4.645   7.223   1.292  0.0462  0.7498  0.0603
59178SOL    HW284585   4.785   7.271   1.323  0.7853 -2.1202  1.5423
59179SOL     OW84586   2.678   6.336   9.086  0.5401 -0.7833  0.5842
59179SOL    HW184587   2.772   6.345   9.072  0.5562 -1.3338  0.3205
59179SOL    HW284588   2.642   6.320   8.999  0.2612 -1.0267  0.7436
59180SOL     OW84589   6.683   1.520  10.335 -0.3189 -0.1008  0.1865
59180SOL    HW184590   6.646   1.554  10.417  1.8293  1.3070  0.6358
59180SOL    HW284591   6.769   1.487  10.360  0.2007 -0.0515 -1.4554
59181SOL     OW84592   1.797   3.400   8.434 -0.2878  0.2807 -0.1241
59181SOL    HW184593   1.751   3.321   8.406  2.0446 -1.0235 -0.5220
59181SOL    HW284594   1.786   3.461   8.362 -1.9142  0.2670  0.0767
59182SOL     OW84595   8.986   1.171   1.614 -0.1617  0.6122 -0.9299
59182SOL    HW184596   9.075   1.153   1.583  0.2568  0.2652  0.3953
59182SOL    HW284597   8.932   1.107   1.570  0.3536  0.3597 -1.2081
59183SOL     OW84598   7.902   5.336  12.553 -0.2069  0.0096  0.1316
59183SOL    HW184599   7.872   5.414  12.601 -0.3369  0.2742 -0.3735
59183SOL    HW284600   7.830   5.315  12.494 -0.2703 -0.6453  0.4370
59184SOL     OW84601   6.632   6.083   5.452  0.0019 -0.6738  0.4305
59184SOL    HW184602   6.537   6.073   5.466  0.0571  0.7725  2.3125
59184SOL    HW284603   6.660   6.142   5.523  1.6759  1.9690 -2.1811
59185SOL     OW84604   2.475   7.202   2.508 -0.0662 -0.2255 -0.7381
59185SOL    HW184605   2.405   7.245   2.556  0.4243  0.2700 -0.4624
59185SOL    HW284606   2.553   7.212   2.563  0.6806  0.9974 -1.9263
59186SOL     OW84607  10.800   5.570  12.398  0.2725  1.0389  0.1454
59186SOL    HW184608  10.807   5.478  12.372  0.7920  1.5136 -1.5228
59186SOL    HW284609  10.764   5.567  12.487 -4.1275 -0.6595 -1.4191
59187SOL     OW84610   8.798   5.797   0.968  0.2872  0.7281 -0.2667
59187SOL    HW184611   8.729   5.738   0.997  0.6233 -0.4497 -1.7469
59187SOL    HW284612   8.754   5.882   0.958 -1.2127 -0.1975 -2.0725
59188SOL     OW84613   3.046   1.619   1.248 -0.0790  0.0567  0.1867
59188SOL    HW184614   3.082   1.531   1.255 -0.4950 -0.1437 -0.0989
59188SOL    HW284615   3.121   1.678   1.256  0.7200 -0.3890 -2.8077
59189SOL     OW84616   4.975   3.993   6.309  0.3014  0.9763  0.4522
59189SOL    HW184617   4.948   3.934   6.381 -0.3977  1.5984  0.7152
59189SOL    HW284618   4.998   3.934   6.237 -1.3574  0.3737  0.3694
59190SOL     OW84619   4.964   9.915   5.674 -0.6610 -0.0828  0.0226
59190SOL    HW184620   4.896   9.972   5.638 -0.0111  1.2567  0.8438
59190SOL    HW284621   5.022   9.897   5.599 -0.9663  0.1928 -0.2853
59191SOL     OW84622  10.962  11.440   0.315 -0.0037 -0.8663  0.4453
59191SOL    HW184623  10.931  11.389   0.389  0.6177 -0.9752  0.6383
59191SOL    HW284624  11.053  11.412   0.303  1.1180  1.7597  1.9806
59192SOL     OW84625   8.776   9.774  11.156  0.5053  0.0574 -0.1137
59192SOL    HW184626   8.783   9.814  11.069  0.4234 -0.2323 -0.2571
59192SOL    HW284627   8.855   9.721  11.163  1.7392  1.9287  0.9693
59193SOL     OW84628   0.814   2.818   4.086  0.1932 -1.0458  0.0487
59193SOL    HW184629   0.776   2.734   4.060 -2.0210 -0.2351  0.4837
59193SOL    HW284630   0.828   2.811   4.180  0.4228 -1.0718  0.0137
59194SOL     OW84631   3.678   5.577   4.285  0.1162 -0.4406 -0.0545
59194SOL    HW184632   3.683   5.624   4.202  1.3524  0.9946  0.7820
59194SOL    HW284633   3.585   5.555   4.294  0.1131 -1.6289 -2.3107
59195SOL     OW84634   9.957   3.389   7.442 -0.6650  0.2652  0.2169
59195SOL    HW184635   9.865   3.378   7.466 -0.8733  0.1818 -0.6045
59195SOL    HW284636  10.001   3.312   7.481 -0.4417  1.6628  2.9583
59196SOL     OW84637   7.456   0.027  10.772 -0.3991 -0.3177 -0.1924
59196SOL    HW184638   7.427   0.104  10.822  0.6290 -0.3094  0.4288
59196SOL    HW284639   7.480   0.061  10.686  1.4954  0.3665  0.5465
59197SOL     OW84640  12.414   7.665   9.349 -0.0240 -0.5387  0.0530
59197SOL    HW184641  12.452   7.712   9.274 -0.5098 -3.1707 -2.0025
59197SOL    HW284642  12.479   7.673   9.418  1.0374  0.9452 -1.0519
59198SOL     OW84643   3.762   4.976   0.262  0.2286  0.5666  0.0518
59198SOL    HW184644   3.760   5.072   0.259 -0.6634  0.5738  0.7619
59198SOL    HW284645   3.841   4.956   0.313 -0.2160  0.9474  0.8980
59199SOL     OW84646   7.879   7.027   4.208  0.3283  0.2592  0.1320
59199SOL    HW184647   7.932   7.082   4.266  0.1057  2.1260 -1.3455
59199SOL    HW284648   7.807   6.997   4.264  0.8515  0.8749  1.1779
59200SOL     OW84649   1.458  11.950   3.368 -0.0920  0.4281 -0.1287
59200SOL    HW184650   1.395  11.895   3.322 -0.0880  0.7877 -0.5738
59200SOL    HW284651   1.518  11.888   3.410  1.8176 -0.0133 -3.1937
59201SOL     OW84652   3.760   5.090  12.574  0.2291 -0.0061 -0.1974
59201SOL    HW184653   3.760   5.046  12.659  0.3290 -0.3309 -0.3647
59201SOL    HW284654   3.760   5.019  12.510 -0.2371  0.2398 -0.4716
59202SOL     OW84655   2.507   9.049   4.679 -0.3166 -0.1667 -0.5901
59202SOL    HW184656   2.601   9.046   4.697 -0.3967  0.1246 -0.1404
59202SOL    HW284657   2.490   8.967   4.631  0.0093 -0.6247  0.0668
59203SOL     OW84658   6.466   4.895   5.387 -0.5509 -0.3109 -0.3991
59203SOL    HW184659   6.448   4.932   5.474  1.1054  2.5599 -1.1543
59203SOL    HW284660   6.525   4.821   5.404 -0.5098  0.0010  0.9302
59204SOL     OW84661   6.958   0.350   1.963 -0.8481  0.4079 -0.1599
59204SOL    HW184662   7.016   0.276   1.943 -0.5782  0.2205  1.2139
59204SOL    HW284663   7.009   0.427   1.938  0.7330  0.3386  2.4933
59205SOL     OW84664   1.283   6.911   8.525 -0.4487  0.0792  0.3898
59205SOL    HW184665   1.314   6.850   8.458  0.8395 -0.6618  1.5892
59205SOL    HW284666   1.284   6.996   8.482  0.8515 -0.3009 -0.4114
59206SOL     OW84667  10.937   7.123   8.345  0.2515 -0.2759  0.2986
59206SOL    HW184668  10.932   7.064   8.270  1.0887  2.0104 -1.6856
59206SOL    HW284669  10.900   7.205   8.313  1.8339  1.1724  1.9529
59207SOL     OW84670   8.166   5.224  12.159 -0.2099 -0.2965 -0.3059
59207SOL    HW184671   8.159   5.293  12.226 -0.7650  0.6028 -1.2601
59207SOL    HW284672   8.197   5.147  12.207  0.2267  0.5579  0.8279
59208SOL     OW84673   1.415   5.570  11.065 -0.8441  0.8003 -0.0401
59208SOL    HW184674   1.446   5.637  11.004 -1.5613 -0.6803 -2.1576
59208SOL    HW284675   1.492   5.548  11.118 -0.6131  3.2867  0.8198
59209SOL     OW84676   7.417   9.065  11.497 -0.6313 -0.2095 -0.0704
59209SOL    HW184677   7.365   9.041  11.420 -0.3876 -1.9995  0.2753
59209SOL    HW284678   7.487   9.000  11.499 -0.2375  0.2352  1.2859
59210SOL     OW84679   8.118  11.755   9.535  0.2649 -0.1950  0.1478
59210SOL    HW184680   8.200  11.725   9.573  0.3762 -0.1059 -0.0202
59210SOL    HW284681   8.079  11.809   9.604  0.2439 -0.4164  0.3083
59211SOL     OW84682   5.913   0.795   8.271  0.0502  0.2767 -0.3072
59211SOL    HW184683   5.980   0.748   8.221 -0.2821  0.0279 -0.5207
59211SOL    HW284684   5.912   0.752   8.356 -1.6005 -1.4034 -1.1109
59212SOL     OW84685   1.300   5.071   0.389  0.0544 -0.3031 -0.0387
59212SOL    HW184686   1.276   5.091   0.480  0.2856 -0.7163  0.1165
59212SOL    HW284687   1.244   5.128   0.336  1.9331  2.0966  0.3934
59213SOL     OW84688   2.779   4.528   8.959  0.7711  0.1620  0.2073
59213SOL    HW184689   2.770   4.585   9.035 -0.1619 -1.9417  1.7920
59213SOL    HW284690   2.693   4.528   8.917  0.8640  0.1900  0.0138
59214SOL     OW84691   0.273   7.149   6.935 -0.3694 -0.3106 -0.0770
59214SOL    HW184692   0.346   7.210   6.933  0.5741 -1.3786  0.5271
59214SOL    HW284693   0.239   7.148   6.846  0.8102 -0.3299 -0.5405
59215SOL     OW84694  10.887   8.459   3.520  0.5029  0.0972  0.0314
59215SOL    HW184695  10.871   8.375   3.477 -1.1305  0.9113 -1.0862
59215SOL    HW284696  10.828   8.520   3.475  0.7221  1.5789  1.6529
59216SOL     OW84697   2.920   0.089   3.443  0.4508 -0.5705 -0.4250
59216SOL    HW184698   2.830   0.076   3.414  0.0458  0.1661  0.4484
59216SOL    HW284699   2.917   0.168   3.497  1.8177  0.0693 -1.2258
59217SOL     OW84700   5.723   7.949  10.356 -0.5212  0.2584 -0.4911
59217SOL    HW184701   5.776   7.913  10.285  0.5367  1.0855 -0.1512
59217SOL    HW284702   5.640   7.903  10.350 -0.3545  0.1233 -2.0904
59218SOL     OW84703   1.101   3.855   5.251 -0.4861  0.1208 -0.1742
59218SOL    HW184704   1.016   3.898   5.254 -1.0547 -0.7421 -2.0703
59218SOL    HW284705   1.080   3.762   5.236  0.7733 -0.2922  0.4752
59219SOL     OW84706  12.169   7.602   6.602  0.3767  0.3150 -0.6378
59219SOL    HW184707  12.154   7.640   6.689  2.1260  0.4254 -0.3444
59219SOL    HW284708  12.260   7.623   6.583  0.7896 -1.9500 -1.3660
59220SOL     OW84709   9.512  10.248   1.820 -0.3861 -0.5729  0.4752
59220SOL    HW184710   9.535  10.340   1.805  0.4111 -1.0154 -1.2498
59220SOL    HW284711   9.454  10.225   1.748 -0.7720 -1.3734  1.0183
59221SOL     OW84712   1.454   7.325   1.907  0.1534 -0.5092  0.6465
59221SOL    HW184713   1.482   7.243   1.947 -0.8614 -1.9298 -1.3701
59221SOL    HW284714   1.360   7.313   1.889  0.0175  1.0056  0.1025
59222SOL     OW84715   2.153  10.878   4.354  0.1700 -0.2021  0.5067
59222SOL    HW184716   2.072  10.914   4.390  0.2844  0.5327  0.0596
59222SOL    HW284717   2.131  10.788   4.330 -0.5890  0.0637  0.1604
59223SOL     OW84718   0.291   6.040   0.115  0.2038  0.0264  0.2932
59223SOL    HW184719   0.250   6.046   0.029  0.1775 -0.3843  0.2754
59223SOL    HW284720   0.218   6.045   0.177  0.3041  1.2964  0.3301
59224SOL     OW84721   6.933   6.838   1.264 -0.2794  0.2817 -0.0164
59224SOL    HW184722   6.958   6.833   1.172 -2.3272  1.6812 -0.7213
59224SOL    HW284723   6.985   6.770   1.307  0.4410 -0.6716 -2.2596
59225SOL     OW84724   2.696   6.406  12.378  0.0743 -0.0568 -0.2986
59225SOL    HW184725   2.605   6.389  12.354  0.1918 -0.3193 -0.5599
59225SOL    HW284726   2.693   6.488  12.427 -0.3740 -0.3329  0.1432
59226SOL     OW84727   9.666   8.559   5.249 -0.0153 -0.4363 -0.2075
59226SOL    HW184728   9.631   8.629   5.194 -0.5236 -0.6672 -0.1880
59226SOL    HW284729   9.668   8.597   5.337 -0.3778 -0.4720 -0.1813
59227SOL     OW84730   8.847  10.921   3.929  0.0622  0.0669 -0.1002
59227SOL    HW184731   8.779  10.893   3.991  0.4586 -1.9930 -0.5122
59227SOL    HW284732   8.798  10.953   3.853 -0.4224  0.8742  0.5338
59228SOL     OW84733   1.588  11.826   0.776 -0.7177 -0.6483  0.4389
59228SOL    HW184734   1.646  11.901   0.787 -0.1309 -1.0414  0.1145
59228SOL    HW284735   1.628  11.774   0.706 -1.0051 -1.3575  0.7788
59229SOL     OW84736   2.825   1.329   6.005 -0.2218 -0.0343 -0.2230
59229SOL    HW184737   2.886   1.392   5.967  0.7183 -1.7857 -1.8034
59229SOL    HW284738   2.803   1.365   6.090  2.2091  1.1973 -0.0415
59230SOL     OW84739   8.607  12.188   0.134  0.2431  0.3064  0.2289
59230SOL    HW184740   8.674  12.249   0.163  1.4703 -0.8275 -0.1586
59230SOL    HW284741   8.590  12.132   0.210  2.2063 -1.5495 -0.6086
59231SOL     OW84742   4.521   1.716   1.370 -0.3819 -0.3986 -0.7695
59231SOL    HW184743   4.452   1.781   1.383 -0.3474  0.0552 -2.6137
59231SOL    HW284744   4.477   1.644   1.324 -0.1066 -1.0898  0.0256
59232SOL     OW84745   7.038  11.234   7.734  0.1340 -0.2643  0.3671
59232SOL    HW184746   6.957  11.203   7.774  1.0971 -2.7002  0.5524
59232SOL    HW284747   7.034  11.203   7.644  1.5139 -1.8016  0.7940
59233SOL     OW84748   2.438  12.064   6.630  0.4413 -0.1146  0.5514
59233SOL    HW184749   2.408  11.987   6.679  0.0642 -0.0105  0.4864
59233SOL    HW284750   2.364  12.086   6.573  0.4109  0.5216  0.8381
59234SOL     OW84751   2.451  11.172   1.666  0.2968  0.1919  0.4510
59234SOL    HW184752   2.485  11.194   1.753 -0.0819  2.1844  0.1499
59234SOL    HW284753   2.362  11.209   1.665  0.5330  0.7726 -0.9911
59235SOL     OW84754   7.685  10.373  11.961  0.3391  0.3943 -0.0581
59235SOL    HW184755   7.778  10.351  11.948 -0.1325 -2.0693  0.3978
59235SOL    HW284756   7.662  10.425  11.884  1.6429 -0.5094 -1.1040
59236SOL     OW84757   9.878   9.441   8.768  0.1011  0.3576 -0.0634
59236SOL    HW184758   9.872   9.526   8.724  0.2894  0.3137 -0.1762
59236SOL    HW284759   9.939   9.391   8.714 -2.7570 -1.1582 -2.1574
59237SOL     OW84760   2.380   4.002  11.801  0.1181 -0.0758 -0.9561
59237SOL    HW184761   2.382   3.908  11.817  2.0386 -0.2084 -1.6975
59237SOL    HW284762   2.423   4.041  11.877  1.2076 -0.0023 -1.5776
59238SOL     OW84763   7.967  10.445   0.482  0.3521 -0.6350  0.1587
59238SOL    HW184764   7.952  10.536   0.506 -2.9972 -1.1027  0.2558
59238SOL    HW284765   7.993  10.403   0.564  0.4349 -0.0757  0.4270
59239SOL     OW84766   6.357   6.372   1.837  0.4256  0.0380 -0.1019
59239SOL    HW184767   6.302   6.344   1.764  0.3559  1.4946 -0.6493
59239SOL    HW284768   6.342   6.307   1.905 -1.7759  0.2316 -0.3278
59240SOL     OW84769   6.253   8.396   8.251 -0.0327 -0.1447  0.0260
59240SOL    HW184770   6.171   8.349   8.239  0.1635 -0.1386 -1.7009
59240SOL    HW284771   6.236   8.483   8.215  1.4220 -0.9518 -2.9883
59241SOL     OW84772   5.290   8.372  11.558  0.5446 -0.5386  0.2562
59241SOL    HW184773   5.314   8.439  11.622  2.4672  0.2432 -1.1731
59241SOL    HW284774   5.198   8.390  11.539  0.7996  1.2431  0.4832
59242SOL     OW84775   2.809   4.268   3.262 -0.6240 -0.4721  0.5901
59242SOL    HW184776   2.902   4.250   3.271 -0.2148 -0.9844 -3.0278
59242SOL    HW284777   2.766   4.183   3.277 -0.1096 -1.0850 -1.1328
59243SOL     OW84778   1.522   7.044   2.546 -0.1767 -0.7363  0.5260
59243SOL    HW184779   1.568   7.111   2.496  0.5467 -1.1307  0.6505
59243SOL    HW284780   1.591   6.986   2.578 -0.8221 -1.8325 -0.0157
59244SOL     OW84781  10.882   7.561   4.064 -0.1258 -0.3626 -0.6051
59244SOL    HW184782  10.893   7.576   4.158 -1.0267 -0.5354 -0.4643
59244SOL    HW284783  10.954   7.501   4.041  1.0611  0.9180 -0.3618
59245SOL     OW84784   2.149   7.489   3.834 -0.0499 -0.2294 -0.6931
59245SOL    HW184785   2.114   7.556   3.776  3.8202  1.6031 -1.2380
59245SOL    HW284786   2.167   7.536   3.916  1.9475 -0.7321 -0.7975
59246SOL     OW84787  11.740   4.628   7.782 -0.1507 -0.1670 -0.4156
59246SOL    HW184788  11.767   4.541   7.812 -0.9538 -0.4830 -0.5966
59246SOL    HW284789  11.652   4.640   7.818  0.0758  0.7006 -0.1303
59247SOL     OW84790   6.290   3.247   1.416  0.7294  0.5394 -0.5709
59247SOL    HW184791   6.382   3.230   1.437  0.3154 -0.9410  0.1881
59247SOL    HW284792   6.264   3.174   1.361 -0.1553  0.6233 -0.2769
59248SOL     OW84793  10.365   0.773  11.190 -0.0783 -0.3718 -0.4949
59248SOL    HW184794  10.279   0.743  11.161 -1.3919  0.6068  2.1147
59248SOL    HW284795  10.403   0.697  11.235  0.6113 -0.8964 -1.8981
59249SOL     OW84796   1.362   4.926   0.169  0.2053  0.4791  0.6844
59249SOL    HW184797   1.357   5.003   0.112  1.0438  0.3745  0.4612
59249SOL    HW284798   1.340   4.960   0.256 -0.3401  0.7863  0.4334
59250SOL     OW84799   3.334   7.923   0.253  0.0986  0.7123  0.4345
59250SOL    HW184800   3.300   7.871   0.325  0.7782 -0.4569 -0.0642
59250SOL    HW284801   3.399   7.867   0.211  0.4992  1.7806 -0.4226
59251SOL     OW84802   8.907   1.581   4.637  0.0124 -0.6631 -0.1377
59251SOL    HW184803   8.945   1.565   4.550  0.9939 -1.8277  0.4574
59251SOL    HW284804   8.983   1.599   4.693 -0.5589 -0.4297  0.5754
59252SOL     OW84805   6.657   3.515   9.589  0.0519 -0.2457 -0.0752
59252SOL    HW184806   6.738   3.468   9.568  0.6067 -0.3093  1.9163
59252SOL    HW284807   6.600   3.449   9.628 -0.6035 -0.0099 -0.6290
59253SOL     OW84808   0.864   7.083   4.456 -0.2613  0.1527  0.3909
59253SOL    HW184809   0.784   7.088   4.404 -0.3347  1.3112  0.5684
59253SOL    HW284810   0.833   7.072   4.546 -0.1417 -1.6334  0.2351
59254SOL     OW84811   3.317   6.415   2.659  0.0142  0.0962 -0.1917
59254SOL    HW184812   3.284   6.328   2.640 -1.1888  0.8046 -1.6153
59254SOL    HW284813   3.247   6.458   2.709  1.1859 -0.1771  1.7703
59255SOL     OW84814   9.768   1.577  11.426  0.5306 -1.1227 -0.0501
59255SOL    HW184815   9.856   1.607  11.447  0.7011 -1.0667 -0.8270
59255SOL    HW284816   9.781   1.497  11.376  0.1884 -0.3985 -1.3384
59256SOL     OW84817   8.825   4.978   4.993 -0.1498  0.1303  0.3102
59256SOL    HW184818   8.774   5.035   4.935  0.5944  0.9372  0.4482
59256SOL    HW284819   8.914   5.012   4.989 -0.0526  0.1196  1.8205
59257SOL     OW84820   0.102  10.268   5.147  0.1136 -0.1781 -0.3281
59257SOL    HW184821   0.040  10.279   5.220 -1.5011  1.4424 -1.8429
59257SOL    HW284822   0.047  10.270   5.069  1.8341 -1.4715 -1.6459
59258SOL     OW84823   1.732   7.697   3.944 -0.0892 -0.1032 -0.0616
59258SOL    HW184824   1.726   7.704   4.040  0.5586  0.8578 -0.0751
59258SOL    HW284825   1.699   7.781   3.912 -1.5641 -0.9310 -0.7526
59259SOL     OW84826   8.233  12.360  12.013 -0.2898 -0.0307  0.1373
59259SOL    HW184827   8.219  12.266  12.003 -1.5022  0.0882  0.4477
59259SOL    HW284828   8.160  12.400  11.965  1.2049  0.8071 -1.5279
59260SOL     OW84829  12.162   1.020   6.774  0.4135 -0.5919  0.6161
59260SOL    HW184830  12.127   1.004   6.687 -0.5852  0.8372  0.7093
59260SOL    HW284831  12.108   0.967   6.833 -0.0325 -0.2568  0.5157
59261SOL     OW84832   6.355   9.767   7.835  0.1232  0.0739  0.5563
59261SOL    HW184833   6.351   9.830   7.763  1.3046 -0.7487 -0.2594
59261SOL    HW284834   6.398   9.815   7.906  2.3984 -0.2121 -0.5516
59262SOL     OW84835  12.082   5.702   6.585  0.4005 -0.0553  0.7403
59262SOL    HW184836  12.049   5.775   6.637  0.4786  0.1318  0.5323
59262SOL    HW284837  12.068   5.624   6.639 -1.1842 -0.0988  0.2982
59263SOL     OW84838   7.820   8.566   7.161 -0.6989  0.1718  0.1926
59263SOL    HW184839   7.768   8.645   7.146  0.2556  0.7179 -0.3935
59263SOL    HW284840   7.826   8.525   7.074  1.1111  0.9438 -0.0883
59264SOL     OW84841   8.348  11.465   0.219 -0.3321 -0.4856 -0.5377
59264SOL    HW184842   8.418  11.526   0.239 -0.0485 -0.7184 -0.8070
59264SOL    HW284843   8.293  11.465   0.297 -0.8683  0.8165 -0.8888
59265SOL     OW84844   7.538   5.394   5.059  0.4141 -0.0199  0.2797
59265SOL    HW184845   7.539   5.462   5.126 -1.2524 -1.9126  2.4004
59265SOL    HW284846   7.468   5.419   4.999 -0.0382  0.2542  0.9177
59266SOL     OW84847   0.183   7.399   6.252  0.6659 -0.7001  0.3948
59266SOL    HW184848   0.093   7.387   6.281  0.3331  0.7492  0.0248
59266SOL    HW284849   0.197   7.493   6.253  1.7309 -0.8037 -0.8796
59267SOL     OW84850   7.881  10.151   8.914 -0.7556 -0.3916 -0.0132
59267SOL    HW184851   7.792  10.170   8.885 -0.3260 -0.4782 -1.4662
59267SOL    HW284852   7.934  10.161   8.835  0.5201 -0.3450  0.8390
59268SOL     OW84853   7.131  11.699   3.512 -0.1014  0.3361  0.7328
59268SOL    HW184854   7.186  11.651   3.574 -1.2840 -0.4018  1.2475
59268SOL    HW284855   7.192  11.736   3.449  1.0422  0.2425  1.7593
59269SOL     OW84856   8.914   2.144   9.388 -1.0269  0.1412 -0.4407
59269SOL    HW184857   8.929   2.143   9.482  1.0962 -1.2588 -0.7168
59269SOL    HW284858   8.901   2.236   9.366  2.1214  1.0073  0.7682
59270SOL     OW84859   8.386   7.596   5.766 -0.1089 -0.0879 -0.1540
59270SOL    HW184860   8.376   7.660   5.696 -0.0361  1.1590  0.9252
59270SOL    HW284861   8.316   7.617   5.828  0.6130 -0.2982  0.7575
59271SOL     OW84862   3.433   1.012   7.732  0.4176  0.2326  0.2372
59271SOL    HW184863   3.480   0.989   7.813  1.6662 -0.1951 -0.5875
59271SOL    HW284864   3.501   1.042   7.673 -0.6323  1.7496 -0.2650
59272SOL     OW84865  10.870   3.220   5.476 -0.3987 -0.2138 -0.1339
59272SOL    HW184866  10.868   3.305   5.520 -1.4929  0.2765 -1.0674
59272SOL    HW284867  10.958   3.186   5.493 -0.3007  0.6128  1.1560
59273SOL     OW84868   5.286   9.233   3.080  0.0218  0.3846  0.8919
59273SOL    HW184869   5.301   9.321   3.045  0.5863 -0.0155  0.0647
59273SOL    HW284870   5.330   9.175   3.017  2.3542 -0.3040  2.9948
59274SOL     OW84871   2.878  12.217   8.387  0.0035  0.1221  0.8353
59274SOL    HW184872   2.957  12.168   8.364 -0.1706  0.0623  0.3560
59274SOL    HW284873   2.812  12.186   8.325 -0.1815  0.7639  0.7089
59275SOL     OW84874   4.369   2.483  11.194 -0.1311 -0.8518 -0.1039
59275SOL    HW184875   4.292   2.434  11.225  0.1406 -1.4408 -0.3503
59275SOL    HW284876   4.360   2.482  11.099  0.4206 -1.3176 -0.1540
59276SOL     OW84877   2.169   5.229   3.391  0.1416 -0.1143 -0.1488
59276SOL    HW184878   2.105   5.250   3.459 -0.6322  0.4237 -1.0092
59276SOL    HW284879   2.129   5.157   3.342  0.1185  0.3173 -0.7776
59277SOL     OW84880   0.720   3.292   3.574  0.2806  0.0755 -0.2403
59277SOL    HW184881   0.725   3.385   3.594 -1.3045  0.2518 -0.4701
59277SOL    HW284882   0.714   3.248   3.659  1.1590  0.1575 -0.1287
59278SOL     OW84883   7.401  12.332   9.458  0.0837 -0.6462 -0.0433
59278SOL    HW184884   7.408  12.425   9.478  0.7038 -0.5999 -0.4454
59278SOL    HW284885   7.491  12.300   9.463  0.0289 -0.9887 -0.9903
59279SOL     OW84886   4.989  10.454   1.700 -0.2514 -0.3630 -0.1447
59279SOL    HW184887   4.902  10.420   1.680 -1.4365  2.1067  0.3403
59279SOL    HW284888   4.973  10.541   1.737  2.2831 -0.8339  2.4970
59280SOL     OW84889  12.120   1.819   9.170 -0.5988 -0.5384  0.1304
59280SOL    HW184890  12.168   1.823   9.253 -2.8175 -0.7951  1.5225
59280SOL    HW284891  12.177   1.770   9.111  1.3333  0.2268  1.2787
59281SOL     OW84892   2.510   0.946  10.684  0.3783  0.3622 -0.8563
59281SOL    HW184893   2.567   0.993  10.623  0.2731 -0.4415 -1.6025
59281SOL    HW284894   2.485   1.011  10.749 -0.2438  1.5030 -2.1780
59282SOL     OW84895   7.442  11.483   9.324 -0.0526 -0.2078  0.2466
59282SOL    HW184896   7.358  11.476   9.280 -0.2703 -0.8968  0.7538
59282SOL    HW284897   7.505  11.501   9.253 -0.3396 -1.6779 -0.4127
59283SOL     OW84898   8.947   8.839   0.083 -0.2621  0.6716 -0.1004
59283SOL    HW184899   8.893   8.823   0.005 -1.3658  0.6671  0.6338
59283SOL    HW284900   8.946   8.757   0.131  2.2150 -0.0211 -1.0842
59284SOL     OW84901   9.000   7.068  12.579  0.0598  0.1284  0.2390
59284SOL    HW184902   8.961   7.154  12.562 -0.6703 -0.3194 -0.3877
59284SOL    HW284903   8.940   7.026  12.641  0.6886  0.2537  0.9543
59285SOL     OW84904  12.072   8.842  10.231 -0.2622  0.5821  0.1685
59285SOL    HW184905  12.058   8.803  10.145  0.3872  2.6283 -0.9499
59285SOL    HW284906  12.157   8.808  10.260 -0.5068 -0.1528  0.0321
59286SOL     OW84907   3.396  12.248   7.136 -0.3176 -0.9728 -0.1493
59286SOL    HW184908   3.442  12.258   7.053  0.2256 -1.5068  0.0838
59286SOL    HW284909   3.377  12.337   7.164 -0.7930 -0.8003 -1.0042
59287SOL     OW84910   8.450   9.389   8.488 -0.1888 -0.0574  0.0407
59287SOL    HW184911   8.525   9.349   8.532  0.0877 -0.4467 -0.7650
59287SOL    HW284912   8.447   9.479   8.522 -0.0203 -0.3655  0.8825
59288SOL     OW84913   4.938   6.463   7.488  0.1608  0.6758  0.3904
59288SOL    HW184914   4.945   6.425   7.400  1.8916  1.4363  0.1581
59288SOL    HW284915   5.027   6.460   7.523 -0.1937  1.8606  1.4817
59289SOL     OW84916   8.562   0.989   4.212  0.2858  0.3596 -0.0773
59289SOL    HW184917   8.481   0.939   4.206  1.2912 -2.0527  3.0962
59289SOL    HW284918   8.546   1.055   4.280  0.4143  1.1746 -0.8254
59290SOL     OW84919   8.266   1.111   4.582 -0.0945  0.0557  0.2803
59290SOL    HW184920   8.223   1.151   4.658  2.2828  0.7222  1.3595
59290SOL    HW284921   8.286   1.022   4.611  2.0612  0.7264  1.0460
59291SOL     OW84922   1.052   7.677   9.984  0.0541 -0.2396  0.2917
59291SOL    HW184923   0.966   7.717   9.969  0.0675 -0.6533 -1.0056
59291SOL    HW284924   1.088   7.664   9.896  2.6873  2.5556  0.7782
59292SOL     OW84925   8.699   0.730   6.289  0.2502 -0.0051 -0.8036
59292SOL    HW184926   8.702   0.634   6.290  0.9289 -0.0081  1.1831
59292SOL    HW284927   8.607   0.751   6.274 -0.0600 -0.9713 -0.3361
59293SOL     OW84928   2.986   7.959   6.578  0.1212 -0.8128  0.2286
59293SOL    HW184929   3.023   7.874   6.551 -0.5604 -1.2376  0.6031
59293SOL    HW284930   2.926   7.981   6.507 -1.0845 -1.5490  0.9960
59294SOL     OW84931   0.952  11.467  10.067  0.0692 -0.4494  0.1069
59294SOL    HW184932   0.872  11.508  10.034  0.3665  0.2153  0.1862
59294SOL    HW284933   0.964  11.506  10.154  0.4107 -0.6414  0.1469
59295SOL     OW84934   3.011   4.867   5.358  0.2460  0.1990  0.3711
59295SOL    HW184935   3.017   4.955   5.322  3.0629 -0.0721 -0.1070
59295SOL    HW284936   2.999   4.880   5.452  1.3946  1.1618  0.4165
59296SOL     OW84937   5.836   6.254   5.059  0.1136 -0.1242  0.3245
59296SOL    HW184938   5.910   6.313   5.076  0.0749 -0.2947  1.1202
59296SOL    HW284939   5.804   6.281   4.973  2.6827 -1.7087 -1.2621
59297SOL     OW84940   0.383   0.620   1.195 -0.2990  0.7204  0.5866
59297SOL    HW184941   0.470   0.643   1.228  0.3024  0.2983 -0.6564
59297SOL    HW284942   0.337   0.585   1.272  1.1536 -0.5146  0.9542
59298SOL     OW84943   7.535   6.273   6.294 -0.1590  0.4594 -0.0267
59298SOL    HW184944   7.493   6.308   6.215  1.5173  1.0006 -0.7096
59298SOL    HW284945   7.573   6.190   6.267  0.4954  0.6852  0.1712
59299SOL     OW84946   1.724   1.977   3.042  0.2347  0.1160 -0.0903
59299SOL    HW184947   1.769   1.894   3.024  1.8210  1.1669 -1.2178
59299SOL    HW284948   1.642   1.970   2.994  0.7570 -0.4716 -0.9351
59300SOL     OW84949  10.324   6.031  11.678 -0.6830  0.6566  0.4230
59300SOL    HW184950  10.285   6.000  11.760  1.2889 -1.2701  0.7103
59300SOL    HW284951  10.261   6.006  11.610 -1.1502 -0.0568  1.1089
59301SOL     OW84952   9.162   1.236   7.653  0.4193 -0.8461 -0.4390
59301SOL    HW184953   9.191   1.269   7.568  0.0365  0.3584 -0.1153
59301SOL    HW284954   9.094   1.297   7.681  0.4223 -1.3263  0.6585
59302SOL     OW84955   7.392   3.706  11.954  0.3052 -0.2793 -0.6447
59302SOL    HW184956   7.410   3.618  11.921  0.7048 -0.4305 -0.0477
59302SOL    HW284957   7.418   3.702  12.046  2.7456  1.1620 -1.1984
59303SOL     OW84958  10.957  11.180   1.423  0.1148 -0.1801 -0.3146
59303SOL    HW184959  10.870  11.201   1.388  0.6458  0.5057 -1.2730
59303SOL    HW284960  11.004  11.144   1.347  1.5380  1.9997 -0.5591
59304SOL     OW84961   2.326   3.389   8.025  0.1400 -0.1389  0.1376
59304SOL    HW184962   2.414   3.365   7.998  0.8800 -0.0139  2.2653
59304SOL    HW284963   2.328   3.386   8.121 -2.6208 -1.7484  0.2587
59305SOL     OW84964   3.175   2.196   8.957 -0.1131 -0.5171  0.3474
59305SOL    HW184965   3.114   2.143   8.906 -1.0438 -0.5421  1.4505
59305SOL    HW284966   3.230   2.239   8.892  0.0555 -2.1127 -0.6010
59306SOL     OW84967   6.380  12.513   7.714  0.1911 -0.1977  0.5366
59306SOL    HW184968   6.330  12.571   7.771 -0.7949  0.3928 -0.8812
59306SOL    HW284969   6.331  12.511   7.632  1.0433 -1.8025  0.0179
59307SOL     OW84970   6.933   4.242   3.358 -0.1246  0.0576 -0.5147
59307SOL    HW184971   6.959   4.160   3.400 -0.2099 -0.2033 -0.9702
59307SOL    HW284972   6.995   4.253   3.286  0.0656  0.5433 -0.2825
59308SOL     OW84973   9.697   9.243   4.780  0.3646 -0.1579  0.0843
59308SOL    HW184974   9.729   9.165   4.735  2.1460  1.7868 -2.2572
59308SOL    HW284975   9.620   9.270   4.730  1.0725  0.7994 -0.5210
59309SOL     OW84976   6.244  12.519   1.855  0.2456  0.2868 -0.3672
59309SOL    HW184977   6.190  12.467   1.796 -0.4201 -0.4952  0.8947
59309SOL    HW284978   6.288  12.582   1.798 -1.3136  0.3689 -1.5466
59310SOL     OW84979   8.138  12.450   7.239  0.5446  0.2434  0.2162
59310SOL    HW184980   8.094  12.365   7.249  0.1158  0.3235 -0.8541
59310SOL    HW284981   8.197  12.437   7.164 -2.4346  1.9714 -2.7010
59311SOL     OW84982   9.995   1.831   4.962 -0.2469  0.7385 -0.0258
59311SOL    HW184983   9.987   1.845   5.056  1.8576  0.4284  0.2375
59311SOL    HW284984   9.980   1.737   4.950  2.6957  0.1206  0.4876
59312SOL     OW84985   6.604   7.624   7.433 -0.5395  0.1741  0.1478
59312SOL    HW184986   6.598   7.633   7.338 -1.4459 -0.2977  0.1460
59312SOL    HW284987   6.570   7.537   7.451  1.9385 -0.7626  0.7135
59313SOL     OW84988   5.158  11.240   0.050 -0.2451 -0.3163  0.1087
59313SOL    HW184989   5.208  11.160   0.033  2.6348  0.8164  2.4162
59313SOL    HW284990   5.175  11.296  -0.026  0.9312 -0.4865  0.2260
59314SOL     OW84991  12.215   1.406   7.732 -0.5421  0.2600  0.2699
59314SOL    HW184992  12.155   1.481   7.725 -0.3539  0.3154 -0.9301
59314SOL    HW284993  12.259   1.419   7.816 -2.7781 -0.2302  1.5973
59315SOL     OW84994  12.094   9.724   2.978  0.0462 -0.5030  0.1552
59315SOL    HW184995  12.012   9.700   3.020 -0.7065  0.7239 -0.5491
59315SOL    HW284996  12.159   9.721   3.048 -0.8335 -0.3004  1.0031
59316SOL     OW84997  10.342  11.395   3.455 -0.8241 -0.2566 -0.8517
59316SOL    HW184998  10.346  11.456   3.530  1.8632 -0.0829 -1.0219
59316SOL    HW284999  10.425  11.408   3.410 -0.8283 -2.9421 -1.8188
59317SOL     OW85000   3.538   8.082   8.978  0.3039  0.0571 -0.1020
59317SOL    HW185001   3.561   8.004   9.029  0.2690 -0.5215 -0.9495
59317SOL    HW285002   3.480   8.049   8.909  1.8514  0.4693 -1.6780
59318SOL     OW85003   8.404  11.851   2.549 -0.2469 -0.0045  0.1603
59318SOL    HW185004   8.407  11.946   2.563  0.1994 -0.1313  0.9951
59318SOL    HW285005   8.491  11.830   2.513  0.2188 -0.2965  1.4054
59319SOL     OW85006   3.215   1.929   2.591  0.1309 -0.1257 -0.2928
59319SOL    HW185007   3.152   1.884   2.534  0.1735  0.1836 -0.5842
59319SOL    HW285008   3.182   2.019   2.597 -0.6218 -0.4641  1.2504
59320SOL     OW85009   2.482  10.151  11.830 -0.0641 -0.4889  0.0206
59320SOL    HW185010   2.443  10.172  11.745 -1.1263 -0.6887  0.4439
59320SOL    HW285011   2.562  10.103  11.808 -0.2865 -0.4769 -0.8653
59321SOL     OW85012   5.898   0.755   4.694 -0.2601 -0.2915  0.4205
59321SOL    HW185013   5.947   0.690   4.745 -0.7406  0.2175  1.5781
59321SOL    HW285014   5.847   0.803   4.760  0.0818  1.2654 -0.4030
59322SOL     OW85015   4.919  11.048  11.637 -0.0638 -0.5080  0.1048
59322SOL    HW185016   5.011  11.029  11.618 -0.0569 -0.5755  0.2044
59322SOL    HW285017   4.876  11.047  11.551  0.2181  0.5723 -0.0721
59323SOL     OW85018   9.778   2.084   8.865 -0.0837 -0.4158 -0.5829
59323SOL    HW185019   9.759   2.094   8.771  0.9600  0.6650 -0.7088
59323SOL    HW285020   9.869   2.113   8.873 -0.2910 -0.1235  0.8346
59324SOL     OW85021   6.289  11.184   0.899  0.2054 -0.5998  0.4891
59324SOL    HW185022   6.328  11.145   0.978 -1.7490 -0.6595  1.4783
59324SOL    HW285023   6.359  11.239   0.863  0.9893 -0.1034  2.6081
59325SOL     OW85024   3.527   7.676   0.982 -0.0060  0.0761 -0.2463
59325SOL    HW185025   3.528   7.688   1.077  0.3836 -2.3447  0.1396
59325SOL    HW285026   3.619   7.659   0.960 -0.5112 -3.3321 -0.3285
59326SOL     OW85027  11.812   8.196   4.698 -0.2540  0.1246 -0.6138
59326SOL    HW185028  11.772   8.153   4.774 -0.8930  2.7864  0.6773
59326SOL    HW285029  11.868   8.264   4.736  0.9070  0.3030 -2.5264
59327SOL     OW85030   4.060  11.121   7.999  0.2058  0.5775 -0.2988
59327SOL    HW185031   4.036  11.111   8.091 -0.2154 -0.6871 -0.5268
59327SOL    HW285032   4.156  11.118   7.999  0.1759 -0.8482 -0.0375
59328SOL     OW85033   8.141   5.243   4.566 -0.6074  0.3593 -0.3114
59328SOL    HW185034   8.223   5.281   4.536 -0.9772  1.4635  0.0116
59328SOL    HW285035   8.141   5.154   4.531  0.8053  0.2766 -0.1485
59329SOL     OW85036   9.279   0.278   7.665 -0.0114 -0.6204  0.7201
59329SOL    HW185037   9.229   0.309   7.741 -0.5604  2.6439 -0.7902
59329SOL    HW285038   9.214   0.275   7.595  1.1055 -0.2588 -0.3525
59330SOL     OW85039  12.216   9.481  12.299  0.3830 -0.1254 -0.0960
59330SOL    HW185040  12.126   9.465  12.272  0.2561 -2.8792  1.5614
59330SOL    HW285041  12.269   9.426  12.241  0.6175 -1.3847  1.2442
59331SOL     OW85042   0.133   9.310   2.920  0.5342  0.7376  0.2316
59331SOL    HW185043   0.217   9.305   2.965 -0.1531  0.7907  1.5700
59331SOL    HW285044   0.153   9.353   2.836  1.5820  2.2003  1.1897
59332SOL     OW85045   6.780   3.036   2.198 -0.3860 -0.3459  0.5922
59332SOL    HW185046   6.819   2.953   2.172  1.6413  0.4090  1.0783
59332SOL    HW285047   6.717   3.055   2.128 -1.1305 -2.4044  0.6304
59333SOL     OW85048   1.922   9.751   9.669 -0.1796 -0.4717  0.4087
59333SOL    HW185049   1.869   9.706   9.735 -1.0004 -2.3597 -1.4103
59333SOL    HW285050   1.951   9.681   9.611 -0.8502  1.2422 -2.1388
59334SOL     OW85051   9.266   2.868   7.452  0.1296 -0.1423 -0.0887
59334SOL    HW185052   9.262   2.792   7.395  0.0903  0.1153 -0.4316
59334SOL    HW285053   9.228   2.940   7.400  0.2035  0.1199  0.2134
59335SOL     OW85054   8.942   7.397   7.923  0.2122 -0.1532 -0.1308
59335SOL    HW185055   8.988   7.445   7.854  1.5479 -0.7436  0.3228
59335SOL    HW285056   8.961   7.305   7.904  1.4160 -0.2857  1.5625
59336SOL     OW85057   7.550   4.471   1.325  0.2818  0.0075 -0.0571
59336SOL    HW185058   7.465   4.442   1.359 -0.0935 -0.5748 -1.3991
59336SOL    HW285059   7.530   4.550   1.276  0.8375  0.9166  1.1419
59337SOL     OW85060   7.662  11.091   1.955  0.4327  0.4604 -0.1160
59337SOL    HW185061   7.611  11.171   1.949  0.0712  0.2285 -0.1338
59337SOL    HW285062   7.619  11.030   1.895  0.0315 -0.1107  0.7208
59338SOL     OW85063   6.133   2.702  10.413  0.0289 -0.2107  0.2065
59338SOL    HW185064   6.199   2.716  10.481  0.9158  0.9625 -0.8489
59338SOL    HW285065   6.184   2.683  10.334 -0.9909 -3.4964  0.1905
59339SOL     OW85066   6.874  12.525  11.083 -0.3549 -0.1121 -0.2541
59339SOL    HW185067   6.788  12.497  11.052 -0.7872  0.5462  0.3032
59339SOL    HW285068   6.858  12.555  11.173  0.8018 -1.7086  0.5339
59340SOL     OW85069   2.044  12.311   2.836 -0.0758  0.7506 -0.6574
59340SOL    HW185070   1.951  12.295   2.819 -0.1223  0.5931 -0.2629
59340SOL    HW285071   2.090  12.244   2.786 -0.1707  0.8450 -0.8742
59341SOL     OW85072   7.452   1.288   9.345  0.3981 -0.1693 -0.0458
59341SOL    HW185073   7.424   1.325   9.261  0.3785  1.0961  0.4891
59341SOL    HW285074   7.372   1.252   9.382  0.4058 -0.7332 -0.5644
59342SOL     OW85075   9.608   3.338   7.951 -0.1498  0.0303  0.2188
59342SOL    HW185076   9.575   3.256   7.914  0.8160  0.5101 -1.8651
59342SOL    HW285077   9.531   3.396   7.953 -0.7533 -0.7728  1.3573
59343SOL     OW85078  12.443  10.997   3.863  0.4015 -0.0539  0.3223
59343SOL    HW185079  12.466  11.079   3.819  0.4297 -0.0426  0.3571
59343SOL    HW285080  12.348  11.001   3.873  0.3033 -0.3812 -0.3880
59344SOL     OW85081   1.274   3.503  10.703  0.6671  0.2521  0.1694
59344SOL    HW185082   1.283   3.427  10.761 -1.2819 -0.5730 -0.5105
59344SOL    HW285083   1.311   3.575  10.753 -0.6275 -0.4927  2.3784
59345SOL     OW85084  11.305   6.209   3.628 -0.2968  0.0027 -0.1042
59345SOL    HW185085  11.219   6.168   3.616  0.0514 -0.4360 -1.2864
59345SOL    HW285086  11.366   6.149   3.584  0.3825  1.1547 -0.7821
59346SOL     OW85087   7.688  11.687  11.483  0.2402 -0.2845  0.5236
59346SOL    HW185088   7.780  11.663  11.476 -0.2786 -1.9777 -1.2622
59346SOL    HW285089   7.676  11.705  11.576  2.3686  0.0273  0.7951
59347SOL     OW85090  11.534   3.218  12.195  0.1225  0.0832 -0.0861
59347SOL    HW185091  11.449   3.174  12.195  0.5651 -0.7992 -0.4058
59347SOL    HW285092  11.556   3.230  12.287  0.2080 -0.8153  0.0205
59348SOL     OW85093   6.214  11.031  12.141 -0.1646  0.1338 -0.7372
59348SOL    HW185094   6.238  11.116  12.180 -0.3780  0.5249 -1.4318
59348SOL    HW285095   6.189  10.976  12.215 -0.6110  0.8747 -0.3271
59349SOL     OW85096   3.994   2.121   4.214  0.1857 -0.1146  0.2225
59349SOL    HW185097   3.980   2.111   4.120 -1.5204  0.7889  0.3351
59349SOL    HW285098   3.935   2.056   4.254 -0.0554  0.3852  0.6839
59350SOL     OW85099   4.839   3.184  12.544 -0.1835 -0.1957  0.3930
59350SOL    HW185100   4.801   3.249  12.603  0.1833  0.1765  0.2209
59350SOL    HW285101   4.912   3.147  12.594 -0.7464 -0.8896  0.7129
59351SOL     OW85102  11.610   4.979   7.567 -0.2744  0.0576  0.4572
59351SOL    HW185103  11.559   4.932   7.634 -0.0210  0.1864  0.7427
59351SOL    HW285104  11.666   4.912   7.528  0.9749  0.3366  1.7047
59352SOL     OW85105   2.024   1.137   7.446 -0.0004 -0.2272 -0.5263
59352SOL    HW185106   1.986   1.098   7.367  0.0166 -0.8534 -0.2311
59352SOL    HW285107   2.015   1.069   7.513 -0.1612  0.3598  0.0580
59353SOL     OW85108   6.198   8.089  11.611  0.8099 -0.2424 -0.0269
59353SOL    HW185109   6.179   7.999  11.640 -0.8749  0.1453  0.1584
59353SOL    HW285110   6.201   8.140  11.691 -0.9339  0.3116 -0.2625
59354SOL     OW85111   6.401   2.134  12.505 -0.7543  0.4789  0.1442
59354SOL    HW185112   6.384   2.071  12.576 -0.1042 -0.6852 -0.6822
59354SOL    HW285113   6.318   2.179  12.492 -0.6213  1.4424  2.3119
59355SOL     OW85114   2.457   0.876   7.148 -0.5994  0.0514  0.3503
59355SOL    HW185115   2.505   0.812   7.201  1.0878  1.1744  0.2591
59355SOL    HW285116   2.367   0.844   7.147 -0.3425 -0.9090  2.4847
59356SOL     OW85117   7.590   3.919   5.446  0.3386  0.0008  0.2217
59356SOL    HW185118   7.634   3.927   5.362  0.8442 -2.2035  0.2226
59356SOL    HW285119   7.502   3.952   5.431  0.7628  0.6988 -0.8432
59357SOL     OW85120   8.987   6.282   0.702  0.1663  0.1256 -0.4210
59357SOL    HW185121   8.918   6.343   0.728  0.6791  1.7421 -2.5920
59357SOL    HW285122   8.949   6.232   0.629 -0.5366 -2.8663  1.8092
59358SOL     OW85123   2.890   3.026  11.000 -0.4881 -0.0076  0.5099
59358SOL    HW185124   2.857   2.940  10.974 -2.0633  1.4346 -2.8901
59358SOL    HW285125   2.814   3.068  11.043  0.0662 -0.0410  1.5550
59359SOL     OW85126   9.046   8.270   0.362 -0.0778 -0.1288 -0.5896
59359SOL    HW185127   8.958   8.280   0.326  0.3169 -0.1868 -1.6261
59359SOL    HW285128   9.079   8.359   0.372 -0.9254 -0.0081  1.6306
59360SOL     OW85129   5.024   5.342   6.027 -0.2116  0.3084 -0.3527
59360SOL    HW185130   4.970   5.264   6.038  1.0743 -0.6867 -0.8858
59360SOL    HW285131   4.978   5.394   5.961 -0.9786 -0.0896 -0.1376
59361SOL     OW85132   0.680   5.490  11.119  0.2478  0.3508 -0.7962
59361SOL    HW185133   0.768   5.521  11.100  0.2153  0.4134 -0.8421
59361SOL    HW285134   0.693   5.402  11.155  0.4485  0.9698  0.7222
59362SOL     OW85135   0.251   3.882  11.123 -0.6308 -0.2944 -0.2056
59362SOL    HW185136   0.282   3.861  11.035 -1.4456  0.5266 -0.7058
59362SOL    HW285137   0.242   3.797  11.166  4.4425 -0.6403  0.8447
59363SOL     OW85138  10.382  11.439   3.764  0.3115 -0.0985  0.7111
59363SOL    HW185139  10.464  11.486   3.776  0.7514  0.5374 -3.2105
59363SOL    HW285140  10.407  11.347   3.764  0.7029  0.0051  1.3024
59364SOL     OW85141  10.370   0.175  10.580 -0.2042 -0.7610 -0.0461
59364SOL    HW185142  10.413   0.220  10.507 -1.0112 -1.8272 -1.2210
59364SOL    HW285143  10.442   0.137  10.630  0.3353 -0.9595 -0.9423
59365SOL     OW85144   4.401   9.678   0.188 -0.3548  0.0218 -0.1326
59365SOL    HW185145   4.409   9.583   0.180  3.7119  0.2520 -0.9411
59365SOL    HW285146   4.396   9.710   0.097  1.2187  0.6486 -0.0297
59366SOL     OW85147  10.255   5.002   7.877  0.2467  0.2912 -0.8779
59366SOL    HW185148  10.305   4.931   7.836  0.6716  0.1932 -0.1940
59366SOL    HW285149  10.211   4.961   7.951  0.1382  0.6439 -0.7456
59367SOL     OW85150   8.009  11.639   5.233  0.1521  0.2579  0.1452
59367SOL    HW185151   8.064  11.714   5.210  0.2941  0.7204  1.8765
59367SOL    HW285152   8.069  11.564   5.230  0.3706  0.4427 -0.1035
59368SOL     OW85153   0.061   2.758  11.925 -0.0441 -0.3744 -0.2606
59368SOL    HW185154   0.042   2.737  12.017 -0.5569 -0.7900 -0.4543
59368SOL    HW285155   0.148   2.721  11.910  0.3469  0.3250  0.2555
59369SOL     OW85156   1.663   8.493   2.310  0.9854 -0.0466 -0.1363
59369SOL    HW185157   1.714   8.545   2.248  2.3703 -0.3552  0.6836
59369SOL    HW285158   1.660   8.548   2.389 -0.2775  0.1079 -0.2789
59370SOL     OW85159   7.116   9.743   5.107  0.2380  0.1858  0.7818
59370SOL    HW185160   7.184   9.714   5.168 -0.5217 -4.2418 -0.1670
59370SOL    HW285161   7.038   9.694   5.133 -1.3128  1.4967 -1.1331
59371SOL     OW85162   7.328   1.606   6.106 -0.0484  0.3303 -0.2222
59371SOL    HW185163   7.275   1.679   6.073 -0.2128 -0.1569 -1.0869
59371SOL    HW285164   7.272   1.563   6.170 -0.5921  0.0102 -0.8980
59372SOL     OW85165   6.928   3.176  10.049  0.7585 -0.0005 -0.2595
59372SOL    HW185166   6.995   3.117  10.083 -0.3185 -1.1371 -0.0404
59372SOL    HW285167   6.861   3.118  10.012 -0.5859  1.0418  0.4208
59373SOL     OW85168  10.179   5.692   3.938  0.3215 -0.2727 -0.3465
59373SOL    HW185169  10.108   5.700   4.001  0.7363 -1.0853  0.2404
59373SOL    HW285170  10.226   5.775   3.944 -0.0749 -0.0572 -0.1388
59374SOL     OW85171  10.410  11.037   6.597 -0.2751  0.2529  0.1685
59374SOL    HW185172  10.352  11.107   6.626 -1.5006 -0.9511  0.6938
59374SOL    HW285173  10.464  11.018   6.673 -1.7489 -1.1546  0.9037
59375SOL     OW85174   6.060   7.974   8.888  0.0844 -0.4137 -0.3791
59375SOL    HW185175   5.980   7.981   8.941  0.1179 -0.6225 -0.3015
59375SOL    HW285176   6.114   8.047   8.919 -1.0488  1.2856 -2.1259
59376SOL     OW85177   2.286   5.026   9.885  0.2698 -0.0872  0.1094
59376SOL    HW185178   2.379   5.045   9.898  0.5193  0.0431 -1.6086
59376SOL    HW285179   2.285   4.945   9.834 -0.5173  0.3688 -0.6214
59377SOL     OW85180  11.943   2.686   8.936  0.2369 -0.2769 -0.4133
59377SOL    HW185181  11.904   2.606   8.970 -0.3472  0.0466 -0.3106
59377SOL    HW285182  11.950   2.672   8.842  0.2229 -0.4813 -0.3842
59378SOL     OW85183   3.909   8.914  10.074 -0.2664 -0.2040 -0.0271
59378SOL    HW185184   3.838   8.970  10.104  1.0229  1.1423  0.6790
59378SOL    HW285185   3.940   8.955   9.993  0.4833 -0.0457  0.3264
59379SOL     OW85186   9.373   7.208   0.739  0.0190 -0.2742 -0.2511
59379SOL    HW185187   9.354   7.247   0.654 -1.6949  0.2721  0.3306
59379SOL    HW285188   9.316   7.255   0.800  0.2751 -1.5002  0.9936
59380SOL     OW85189  12.115  11.276  11.789  0.4318 -0.0980 -0.1378
59380SOL    HW185190  12.173  11.262  11.714  1.1958 -1.3981  0.6396
59380SOL    HW285191  12.126  11.368  11.811 -0.2209  0.4538 -1.9234
59381SOL     OW85192   0.267  12.462  12.201  0.5744  0.0415 -0.7382
59381SOL    HW185193   0.197  12.524  12.219 -0.5218 -1.5436  0.8618
59381SOL    HW285194   0.271  12.456  12.106 -0.0522  1.6862 -0.8829
59382SOL     OW85195   5.650   8.111   6.784 -0.4456  0.0089  0.1186
59382SOL    HW185196   5.732   8.156   6.764 -0.8228  0.3447 -0.7345
59382SOL    HW285197   5.583   8.179   6.777 -0.6035  0.2591  2.9988
59383SOL     OW85198   2.969   9.215   6.636 -0.4042 -0.3587  0.1652
59383SOL    HW185199   3.008   9.301   6.651 -0.1965 -0.4236  0.0173
59383SOL    HW285200   2.924   9.194   6.717 -0.2360 -0.2244  0.2938
59384SOL     OW85201  11.405   1.184   9.566  0.4723 -0.7655  0.7035
59384SOL    HW185202  11.372   1.240   9.637  0.2197 -0.6574  0.5025
59384SOL    HW285203  11.462   1.241   9.515 -1.4709 -0.0309 -0.7811
59385SOL     OW85204   6.934   1.597   9.774  0.1086  0.3177  0.5342
59385SOL    HW185205   6.915   1.601   9.867 -0.6752 -1.8097  0.5263
59385SOL    HW285206   6.860   1.640   9.731 -1.3541 -1.7710  0.8048
59386SOL     OW85207   7.118   6.614   8.853 -0.0250 -0.2517  0.0371
59386SOL    HW185208   7.172   6.543   8.819 -0.6250 -1.0551  0.7232
59386SOL    HW285209   7.177   6.664   8.910  0.4653 -0.0377 -0.6461
59387SOL     OW85210   4.631   8.940   7.277  0.6168  0.6617  0.0340
59387SOL    HW185211   4.620   8.948   7.182  0.9680 -1.4676 -0.2342
59387SOL    HW285212   4.652   9.028   7.306  0.3197  1.4034 -1.8409
59388SOL     OW85213   8.929   6.295   0.267 -0.1935 -0.1027 -0.2388
59388SOL    HW185214   8.854   6.291   0.327  0.9380 -0.2517  1.2359
59388SOL    HW285215   8.995   6.239   0.308  0.3163 -0.9591 -2.1446
59389SOL     OW85216   5.073   6.593  12.482 -0.1011  0.1364  0.2816
59389SOL    HW185217   5.089   6.598  12.387 -0.2489  0.5497  0.2794
59389SOL    HW285218   5.161   6.581  12.519 -0.1243 -0.9489  0.0384
59390SOL     OW85219   6.704  11.674   4.983  0.0866 -0.2138  0.3002
59390SOL    HW185220   6.717  11.683   4.888  1.6226 -0.9993  0.4105
59390SOL    HW285221   6.703  11.580   4.998  0.2382 -0.0903  1.1258
59391SOL     OW85222  10.982   2.658   6.215 -0.4298  0.5480  0.5308
59391SOL    HW185223  11.044   2.595   6.178  0.0896  2.3114 -1.7775
59391SOL    HW285224  10.896   2.623   6.193 -0.1876  0.0099  0.4193
59392SOL     OW85225  11.514   0.777   8.436 -0.2258 -0.0731 -0.0582
59392SOL    HW185226  11.566   0.771   8.356  0.6252 -0.2004  0.4982
59392SOL    HW285227  11.577   0.801   8.504 -0.5608 -1.8985  0.9503
59393SOL     OW85228   6.836  10.548   3.726 -0.0246 -0.0695  0.3972
59393SOL    HW185229   6.769  10.578   3.665  1.1752 -1.9101 -1.9828
59393SOL    HW285230   6.871  10.629   3.764 -0.2546  1.2461 -1.9924
59394SOL     OW85231   9.782   4.622   2.908  0.0616 -0.0265  0.0384
59394SOL    HW185232   9.695   4.621   2.867  0.3616 -0.7111 -0.6226
59394SOL    HW285233   9.793   4.711   2.939 -1.5807 -0.3452  1.6790
59395SOL     OW85234  10.941  12.139   4.732  0.1598 -0.2502 -0.0221
59395SOL    HW185235  10.884  12.076   4.689  0.1102 -0.6487  0.6188
59395SOL    HW285236  10.931  12.122   4.825  0.3760  0.5063  0.1529
59396SOL     OW85237   6.196   5.340  11.737 -0.4403 -0.1449 -0.5730
59396SOL    HW185238   6.121   5.301  11.693 -0.5051 -0.2651 -0.3575
59396SOL    HW285239   6.250   5.265  11.764  0.6098 -0.0354 -2.1899
59397SOL     OW85240  10.418  10.921   3.003  0.7812 -0.0756  0.0224
59397SOL    HW185241  10.395  10.828   3.014 -0.0443 -0.1514 -1.8218
59397SOL    HW285242  10.493  10.934   3.060  3.2263 -2.8402 -2.2160
59398SOL     OW85243   4.492   5.446   3.578 -0.2744  0.4442  0.7947
59398SOL    HW185244   4.482   5.443   3.482 -0.0708  0.2559  0.7768
59398SOL    HW285245   4.582   5.477   3.591  0.2940 -1.1575  0.8984
59399SOL     OW85246  10.612   4.504   3.066 -0.8785 -0.2425 -0.2017
59399SOL    HW185247  10.617   4.553   3.148 -2.1433 -0.9596  0.3184
59399SOL    HW285248  10.608   4.572   2.999  0.6242  0.3569  0.2520
59400SOL     OW85249  11.410   7.661  10.617  0.4267  0.1990 -0.7791
59400SOL    HW185250  11.316   7.665  10.598  0.0836 -0.3445  0.6657
59400SOL    HW285251  11.434   7.751  10.639  0.0383  0.1898 -0.3051
59401SOL     OW85252   2.496   9.674   7.165  0.2808 -0.1172  0.1298
59401SOL    HW185253   2.574   9.619   7.174  1.0386  0.9655  0.3638
59401SOL    HW285254   2.526   9.762   7.188 -1.3478  0.0993  1.6488
59402SOL     OW85255   7.030   4.351   1.370 -0.3624 -0.0451 -0.2843
59402SOL    HW185256   7.037   4.307   1.285  0.0348  0.4471 -0.5155
59402SOL    HW285257   6.955   4.411   1.359 -1.2659 -1.0546  0.2188
59403SOL     OW85258  10.172   1.875   4.128 -0.6041 -0.3319  0.0330
59403SOL    HW185259  10.117   1.797   4.138 -1.9312  0.6088  0.2038
59403SOL    HW285260  10.243   1.862   4.191  0.5083 -2.4720 -1.5181
59404SOL     OW85261   9.922   0.758   9.412  0.0234 -0.3598  0.5606
59404SOL    HW185262   9.899   0.834   9.359  1.3487 -0.0926  0.3267
59404SOL    HW285263   9.951   0.795   9.495 -1.5527 -0.7517  1.3304
59405SOL     OW85264   4.089   3.817   9.223  0.4374 -0.2222 -0.4623
59405SOL    HW185265   4.110   3.761   9.299  2.9281  0.5140 -0.5235
59405SOL    HW285266   4.059   3.756   9.157  0.4071 -1.1673  0.3913
59406SOL     OW85267   4.020   8.645   6.179  0.3237  0.1363 -0.1117
59406SOL    HW185268   3.949   8.689   6.226 -2.4212 -2.2853 -1.6216
59406SOL    HW285269   4.041   8.569   6.233  0.6265 -0.0095 -0.4302
59407SOL     OW85270   4.263  12.259   4.879 -0.2777 -0.0169 -0.2839
59407SOL    HW185271   4.178  12.282   4.916  0.4415  1.9766  0.2390
59407SOL    HW285272   4.324  12.271   4.952  0.4627 -1.6597 -0.5822
59408SOL     OW85273  10.077   5.748   0.147 -0.2869 -0.1108  0.0602
59408SOL    HW185274  10.136   5.693   0.199  0.6499  2.6736  2.2016
59408SOL    HW285275  10.049   5.692   0.075  0.1748 -3.4954  2.2924
59409SOL     OW85276   5.104   7.905   9.402  0.4885  0.0081  0.2050
59409SOL    HW185277   5.062   7.971   9.456 -0.5635 -0.5356  0.0775
59409SOL    HW285278   5.190   7.891   9.442  0.2950  0.6673  0.8567
59410SOL     OW85279   0.723   7.490   4.230  0.4297  0.4052 -0.0458
59410SOL    HW185280   0.648   7.545   4.206  0.4305  0.8799  0.9808
59410SOL    HW285281   0.749   7.448   4.148  0.1296  1.5640 -0.7555
59411SOL     OW85282   2.228   2.711  11.753  0.6787 -0.2758 -0.4778
59411SOL    HW185283   2.164   2.653  11.795  1.6485 -1.9518 -1.2259
59411SOL    HW285284   2.256   2.770  11.822 -1.1849  0.0990  0.0245
59412SOL     OW85285   0.411  12.140   7.244  0.0772  0.2873  0.2006
59412SOL    HW185286   0.450  12.147   7.157  0.8829 -1.9142  0.3091
59412SOL    HW285287   0.482  12.107   7.299 -1.4960 -2.4752  0.7348
59413SOL     OW85288   4.870   8.204   3.150  0.6300  0.0254  0.4134
59413SOL    HW185289   4.854   8.227   3.241 -1.1323  1.7799 -0.2797
59413SOL    HW285290   4.817   8.125   3.136  0.7232 -0.1131  0.8167
59414SOL     OW85291   5.327  11.938   2.025 -0.3894 -0.3398 -0.1009
59414SOL    HW185292   5.321  12.009   1.961  0.7468 -0.5404 -0.4439
59414SOL    HW285293   5.333  11.983   2.110 -0.2376 -0.0349 -0.2717
59415SOL     OW85294   6.997   4.831   0.454  0.0554  0.1357  0.1400
59415SOL    HW185295   6.919   4.796   0.499 -0.3781  1.0147  0.1023
59415SOL    HW285296   6.970   4.838   0.362  0.5301 -0.5102 -0.0520
59416SOL     OW85297   9.676   5.334   1.817 -0.3495  0.7163  0.8943
59416SOL    HW185298   9.621   5.388   1.875  0.0315  1.9148  0.1786
59416SOL    HW285299   9.615   5.280   1.768 -0.6907 -0.2198  2.2860
59417SOL     OW85300  11.768   1.988   9.630 -0.6517 -0.2007  0.1843
59417SOL    HW185301  11.718   1.916   9.591  0.2297 -0.7102 -0.0161
59417SOL    HW285302  11.721   2.067   9.602 -1.3855 -0.6669  0.0653
59418SOL     OW85303   0.828   0.414   0.279 -0.2832  0.1150  0.0799
59418SOL    HW185304   0.905   0.465   0.253 -0.9402  1.2399  0.2472
59418SOL    HW285305   0.861   0.352   0.344  0.4596  0.6833  0.2586
59419SOL     OW85306   9.192   2.041  10.120  0.4377 -0.3794  0.0232
59419SOL    HW185307   9.125   2.047  10.188 -0.5933  0.9953 -1.0744
59419SOL    HW285308   9.176   1.956  10.079 -1.6108  0.5051 -1.1578
59420SOL     OW85309  10.926   4.118  12.267 -0.2948 -0.3270 -0.3359
59420SOL    HW185310  10.984   4.068  12.324 -0.4490 -0.6213 -0.4345
59420SOL    HW285311  10.860   4.155  12.325 -1.0057 -1.4052 -0.4347
59421SOL     OW85312  11.095   7.652   8.476 -0.2172 -0.0737 -0.1071
59421SOL    HW185313  11.172   7.707   8.490  0.0341 -0.4651  0.0922
59421SOL    HW285314  11.130   7.563   8.475 -0.6106 -0.2236 -0.4832
59422SOL     OW85315   1.612   8.805   6.544 -0.1863 -0.6031 -0.3562
59422SOL    HW185316   1.536   8.853   6.511 -0.6310 -0.1382  1.2558
59422SOL    HW285317   1.641   8.856   6.619  2.4007 -0.1865 -1.5558
59423SOL     OW85318  10.162   7.886   3.745  0.0923 -0.2168  0.3910
59423SOL    HW185319  10.215   7.879   3.666  0.6914  2.2221  0.4958
59423SOL    HW285320  10.087   7.938   3.719 -0.3524 -0.4651  1.1491
59424SOL     OW85321   9.065   7.048   9.123 -0.3239 -0.3022 -0.1838
59424SOL    HW185322   9.041   7.058   9.216 -1.4362  0.2876 -0.5136
59424SOL    HW285323   9.149   7.002   9.125  0.5477  1.2177  1.1916
59425SOL     OW85324   6.428  10.580   2.139 -0.2197 -0.0311 -0.4764
59425SOL    HW185325   6.469  10.510   2.190  0.6883 -0.6435 -1.9809
59425SOL    HW285326   6.499  10.638   2.116 -0.7039  0.5038 -0.6420
59426SOL     OW85327   8.209   4.841   2.137 -0.3895  0.3101  0.4828
59426SOL    HW185328   8.245   4.760   2.174  2.7681  0.6205 -1.5098
59426SOL    HW285329   8.240   4.910   2.195  0.4302  0.3940 -0.0406
59427SOL     OW85330   0.599   8.301   4.204 -0.1275 -0.3993 -0.0099
59427SOL    HW185331   0.574   8.266   4.118  0.7674 -0.4654 -0.2506
59427SOL    HW285332   0.516   8.328   4.243 -0.3857  1.6733 -1.7871
59428SOL     OW85333   6.696  11.277  11.003  0.2936  0.5651 -0.2797
59428SOL    HW185334   6.783  11.303  11.034 -0.2797  0.4020  1.5749
59428SOL    HW285335   6.648  11.253  11.083 -1.0212 -0.6880 -1.3884
59429SOL     OW85336  11.244   5.163  10.651 -0.5035 -0.0749 -0.0532
59429SOL    HW185337  11.286   5.089  10.606 -0.8121 -0.2874  0.0074
59429SOL    HW285338  11.218   5.128  10.735  1.9370  0.8477  1.2008
59430SOL     OW85339   2.109   9.569   8.298  0.0024  0.0386  0.7715
59430SOL    HW185340   2.190   9.521   8.317 -0.7699 -1.3054  0.7457
59430SOL    HW285341   2.124   9.609   8.213  0.1782 -1.2740  0.1653
59431SOL     OW85342   3.132   6.573   3.578 -0.5631 -0.0069 -0.4201
59431SOL    HW185343   3.132   6.602   3.487  0.2780 -1.5207 -0.9249
59431SOL    HW285344   3.188   6.636   3.624  0.0423  0.0284 -1.1959
59432SOL     OW85345   2.915   9.289   2.622  0.1819  0.3853  0.0571
59432SOL    HW185346   2.832   9.307   2.578  0.3077 -1.6374 -1.0871
59432SOL    HW285347   2.982   9.316   2.559  0.3552 -1.5692 -0.6696
59433SOL     OW85348   5.121   1.038  12.374  0.1626 -0.1350 -0.1951
59433SOL    HW185349   5.066   1.057  12.298  0.3741  0.0590 -0.3001
59433SOL    HW285350   5.123   1.120  12.423 -0.0404 -0.2834  0.0653
59434SOL     OW85351   1.154   6.876   4.175 -0.2304  0.0486  0.4050
59434SOL    HW185352   1.089   6.939   4.208  0.4854  0.3307  1.3278
59434SOL    HW285353   1.217   6.867   4.247  1.7403  1.1237 -1.0997
59435SOL     OW85354   5.445   5.409   7.734  0.1766 -0.1908 -1.0483
59435SOL    HW185355   5.439   5.466   7.810 -0.7338  0.9832 -1.9629
59435SOL    HW285356   5.388   5.449   7.669 -0.3862 -2.0765 -1.7923
59436SOL     OW85357   6.672   8.807  10.872 -0.5279  0.0896 -0.3872
59436SOL    HW185358   6.651   8.734  10.815 -1.9770  0.6479 -0.6275
59436SOL    HW285359   6.590   8.825  10.919  0.0415  1.0017  0.2939
59437SOL     OW85360   9.888   5.551   0.997 -0.3825 -0.2366  0.1062
59437SOL    HW185361   9.940   5.559   0.917  0.3313  1.3801  0.6950
59437SOL    HW285362   9.861   5.641   1.017 -1.5214 -0.7646  1.0671
59438SOL     OW85363   0.432   2.089  11.398  0.2676 -0.3726  0.0696
59438SOL    HW185364   0.493   2.156  11.369  1.9118 -0.8704  2.1253
59438SOL    HW285365   0.476   2.006  11.378 -1.0546 -0.8356 -1.0543
59439SOL     OW85366   6.827   0.107   6.432 -0.2443 -0.0081  0.7943
59439SOL    HW185367   6.896   0.041   6.432  1.0965  1.3344  1.4699
59439SOL    HW285368   6.797   0.109   6.341 -0.4306 -1.6308  0.7882
59440SOL     OW85369   8.676   8.419   6.027  0.2141  0.1753  0.0399
59440SOL    HW185370   8.647   8.345   6.080  1.3651 -0.6732 -0.4633
59440SOL    HW285371   8.601   8.440   5.971 -0.5485  0.2212  1.0672
59441SOL     OW85372   4.319   9.732   2.086 -1.1751  0.1981 -0.6058
59441SOL    HW185373   4.227   9.721   2.065 -1.2179  1.2458 -1.0319
59441SOL    HW285374   4.362   9.657   2.044 -1.5627  0.9299 -2.3846
59442SOL     OW85375   1.084   9.542   4.178  0.0320  0.4484  0.6803
59442SOL    HW185376   0.995   9.533   4.210  0.1377  1.4747  1.3083
59442SOL    HW285377   1.076   9.542   4.083 -1.0734  3.8629  0.6449
59443SOL     OW85378   4.917  11.266   6.263  0.2162 -0.3710  0.2950
59443SOL    HW185379   4.897  11.343   6.209 -1.8204 -0.8459  0.2930
59443SOL    HW285380   4.972  11.212   6.207 -0.9695 -0.3536 -0.9562
59444SOL     OW85381  11.218   6.026   6.594 -0.4795  0.2452  0.1870
59444SOL    HW185382  11.264   5.953   6.553  2.5202  1.8166  0.4563
59444SOL    HW285383  11.216   6.004   6.687 -0.2214  0.1835  0.1788
59445SOL     OW85384   0.966  12.331   5.404  0.3311 -0.2493  0.0042
59445SOL    HW185385   1.050  12.370   5.382  0.4300 -0.3534  0.1947
59445SOL    HW285386   0.928  12.307   5.319  1.5016 -2.3237 -0.0045
59446SOL     OW85387  10.074   0.410   2.830 -0.1793 -0.4960 -0.0350
59446SOL    HW185388  10.069   0.494   2.783 -0.6309  1.0298  2.5007
59446SOL    HW285389   9.983   0.387   2.848 -0.0181 -1.0102  0.1380
59447SOL     OW85390   0.213   3.255  10.272  0.0653  0.4743  0.0434
59447SOL    HW185391   0.252   3.207  10.199  0.7179 -1.4638  1.5594
59447SOL    HW285392   0.266   3.334  10.281  1.1000 -0.1438 -0.4613
59448SOL     OW85393   4.613   2.935   2.288  0.1309 -0.3891 -0.1859
59448SOL    HW185394   4.657   2.997   2.230  0.4327 -0.2618  0.1816
59448SOL    HW285395   4.542   2.985   2.328 -0.9325 -0.8212 -1.4529
59449SOL     OW85396  10.246  11.571  10.775 -0.2619  0.0671 -0.3550
59449SOL    HW185397  10.174  11.508  10.769 -0.9887  0.8523 -0.1183
59449SOL    HW285398  10.203  11.657  10.770  0.6615  0.5507 -0.2081
59450SOL     OW85399   2.975   5.545   6.436 -0.4844 -0.4640 -0.0746
59450SOL    HW185400   3.059   5.501   6.421 -0.2944  0.1288 -0.8006
59450SOL    HW285401   2.910   5.477   6.418 -0.2220 -0.2540 -2.0971
59451SOL     OW85402   0.190  11.542  12.316  0.2900  0.2224  0.1721
59451SOL    HW185403   0.195  11.477  12.385 -0.3450 -0.8585 -0.7664
59451SOL    HW285404   0.116  11.598  12.341  0.8159  0.5788  0.9635
59452SOL     OW85405  10.864   8.628   6.020  0.1501  0.5169  0.0441
59452SOL    HW185406  10.882   8.607   5.928 -1.2319  1.2738 -0.4314
59452SOL    HW285407  10.949   8.651   6.056  1.0656 -1.8047 -0.4674
59453SOL     OW85408   5.430   8.003   5.710  0.0235 -0.1107 -0.8174
59453SOL    HW185409   5.361   8.007   5.643 -1.7824  0.4628  0.9687
59453SOL    HW285410   5.459   8.094   5.720 -0.2745 -0.0707 -0.2846
59454SOL     OW85411   0.575  10.221   8.548  0.0359 -0.3237  0.0310
59454SOL    HW185412   0.486  10.199   8.519 -0.5171  1.4015  0.3006
59454SOL    HW285413   0.632  10.181   8.483 -1.0265  0.3505 -1.3673
59455SOL     OW85414   8.546  11.231   8.777  0.2117 -0.8636 -0.1321
59455SOL    HW185415   8.500  11.160   8.822  0.8018 -0.3943  1.2718
59455SOL    HW285416   8.614  11.258   8.838 -1.5706  2.6257  0.6013
59456SOL     OW85417   2.332   6.263  10.489  0.0369 -0.6185 -0.1482
59456SOL    HW185418   2.277   6.285  10.564 -0.8334  1.3313 -1.3113
59456SOL    HW285419   2.273   6.220  10.427  0.1448  0.0939 -0.7595
59457SOL     OW85420   7.872   1.409   9.600 -0.3741 -0.2483 -0.1721
59457SOL    HW185421   7.802   1.428   9.539 -0.2863  0.2822 -0.1144
59457SOL    HW285422   7.930   1.349   9.553 -0.6630 -0.3792 -0.3596
59458SOL     OW85423   1.390   0.219  12.126  0.0719  0.6795 -0.4555
59458SOL    HW185424   1.474   0.192  12.091  0.2527  0.4367  0.1493
59458SOL    HW285425   1.400   0.212  12.221 -1.3204 -1.5655 -0.3831
59459SOL     OW85426  10.795   6.236   1.550 -0.1364 -0.1585  0.2212
59459SOL    HW185427  10.851   6.176   1.599 -0.2997 -0.9805 -0.5892
59459SOL    HW285428  10.853   6.273   1.483 -0.8481 -2.0732 -1.5367
59460SOL     OW85429   4.705   6.532   5.496  0.2149  0.5473  0.0699
59460SOL    HW185430   4.614   6.545   5.467 -0.3994  0.0552  1.6439
59460SOL    HW285431   4.749   6.613   5.470 -0.3641  0.3366 -1.7369
59461SOL     OW85432   3.224  12.235  10.389 -0.7883  0.3467 -0.2548
59461SOL    HW185433   3.303  12.265  10.344 -0.7494 -1.0510 -1.1911
59461SOL    HW285434   3.156  12.296  10.361 -0.6646 -0.2176 -1.9039
59462SOL     OW85435   0.302   0.801   0.452 -0.2368 -0.0041  0.1038
59462SOL    HW185436   0.396   0.793   0.467 -0.1712  2.5560  1.4919
59462SOL    HW285437   0.295   0.841   0.365 -0.0192  0.1811  0.1710
59463SOL     OW85438   6.162   1.551   2.875 -0.2045  0.5835 -0.4703
59463SOL    HW185439   6.153   1.576   2.783  0.3247  0.6027 -0.5199
59463SOL    HW285440   6.077   1.511   2.897 -0.8961  1.9751 -0.5170
59464SOL     OW85441   7.163   1.720   1.368 -0.8204 -0.4381  0.6119
59464SOL    HW185442   7.248   1.692   1.403 -0.3591  0.5616  0.3396
59464SOL    HW285443   7.175   1.719   1.273 -1.2314 -0.6340  0.5596
59465SOL     OW85444   3.520   3.144   5.021  0.3824 -0.7066  0.2901
59465SOL    HW185445   3.496   3.236   5.032  0.1585 -0.6269 -0.7640
59465SOL    HW285446   3.570   3.122   5.100  2.4896  0.9958 -0.4865
59466SOL     OW85447   1.936   7.610   1.479  0.2769 -0.7282 -0.0217
59466SOL    HW185448   1.974   7.563   1.553  1.3487 -1.4533 -1.0028
59466SOL    HW285449   1.867   7.552   1.447  1.2480 -1.4470 -0.9014
59467SOL     OW85450  11.619   7.377   3.943 -0.4240 -0.6900 -0.0006
59467SOL    HW185451  11.625   7.450   3.881  0.0803  2.0034  2.9259
59467SOL    HW285452  11.701   7.381   3.993 -1.5283 -1.5190  2.0012
59468SOL     OW85453   6.577   6.813   3.038 -0.1519  0.2297  0.6747
59468SOL    HW185454   6.583   6.909   3.037  0.5447  0.1912  1.2545
59468SOL    HW285455   6.609   6.787   3.124  2.4156 -0.7009 -0.4686
59469SOL     OW85456   7.517   0.365   9.559  0.4677 -0.3421  0.5090
59469SOL    HW185457   7.539   0.305   9.488  0.9399 -2.6975  2.5148
59469SOL    HW285458   7.464   0.313   9.619 -0.2344  1.6723  1.7119
59470SOL     OW85459   2.197   9.857   6.316  0.1165 -0.7023  0.6141
59470SOL    HW185460   2.118   9.825   6.361  0.2963 -2.3202 -0.1386
59470SOL    HW285461   2.253   9.889   6.386 -0.9233 -0.1600  1.2267
59471SOL     OW85462  11.905  10.098   0.274  0.1697 -0.7127 -0.2085
59471SOL    HW185463  11.840  10.142   0.328  0.3839 -1.6008  0.7991
59471SOL    HW285464  11.982  10.153   0.278  0.8903 -1.7552  2.1390
59472SOL     OW85465   8.073  11.757   4.354  0.6450 -0.6296  0.5833
59472SOL    HW185466   8.168  11.769   4.344  0.3857 -0.0414 -1.7273
59472SOL    HW285467   8.048  11.705   4.277 -1.4936  2.7889 -1.2859
59473SOL     OW85468   3.942   0.675   3.200 -0.0923 -0.8505 -0.0470
59473SOL    HW185469   3.893   0.597   3.225 -0.7079 -0.6095 -0.4846
59473SOL    HW285470   3.880   0.747   3.210  0.8815 -0.1948  1.7721
59474SOL     OW85471  11.508   7.728   5.385  0.4122 -0.0757  0.1582
59474SOL    HW185472  11.577   7.794   5.376 -1.1603  1.4160 -2.1158
59474SOL    HW285473  11.514   7.676   5.305  0.6278 -1.7921  1.2276
59475SOL     OW85474   5.871   3.301  10.907 -0.2539  0.1866 -0.4668
59475SOL    HW185475   5.937   3.371  10.912  0.8838 -0.8050 -1.0672
59475SOL    HW285476   5.865   3.268  10.996 -0.9450  1.1515 -0.1350
59476SOL     OW85477   9.665  12.216  10.666 -0.0345 -0.0400 -0.1232
59476SOL    HW185478   9.705  12.129  10.674 -0.7466 -0.3638 -0.0387
59476SOL    HW285479   9.721  12.273  10.719  0.3686 -0.4723 -0.0793
59477SOL     OW85480   1.943   0.079   0.239 -0.6796 -0.8192 -0.2121
59477SOL    HW185481   1.884   0.147   0.272 -1.0831  0.2396 -2.8528
59477SOL    HW285482   1.960   0.024   0.315 -0.9635  1.7517  1.8790
59478SOL     OW85483   0.947   4.296   8.431  0.2466 -0.1947 -0.3855
59478SOL    HW185484   0.996   4.304   8.350  1.7801 -0.4852  0.4875
59478SOL    HW285485   0.907   4.382   8.443  1.6094  0.4774 -0.4692
59479SOL     OW85486  12.206   8.712   3.195 -0.0143 -0.3304  0.5689
59479SOL    HW185487  12.257   8.774   3.247  0.4087 -0.2508  0.0706
59479SOL    HW285488  12.215   8.744   3.105 -0.1191 -0.8919  0.3573
59480SOL     OW85489   4.187   3.110   6.175  0.2272  0.2854  0.0023
59480SOL    HW185490   4.170   3.181   6.238 -0.0935  0.6675 -0.5095
59480SOL    HW285491   4.283   3.104   6.172  0.2510  0.4278  0.3433
59481SOL     OW85492  12.051   5.509   1.615  0.4129 -0.4201 -0.1227
59481SOL    HW185493  11.960   5.503   1.646  0.8497  0.2725  1.3885
59481SOL    HW285494  12.098   5.549   1.688  1.5607  1.1116 -1.6258
59482SOL     OW85495   2.778   1.201   9.814 -0.1808  0.5377  0.3459
59482SOL    HW185496   2.822   1.122   9.847  0.8451  0.1852 -1.6851
59482SOL    HW285497   2.685   1.181   9.822  0.0564 -0.9473 -0.1913
59483SOL     OW85498   4.973  11.638   1.685  0.1335  0.1632  0.1998
59483SOL    HW185499   4.909  11.591   1.632 -2.1642  2.3145  0.8423
59483SOL    HW285500   5.044  11.575   1.700 -2.3791 -2.8345  0.4898
59484SOL     OW85501   5.070   0.866   4.620 -0.2230  0.3440 -0.3998
59484SOL    HW185502   5.069   0.892   4.712  0.8487  1.9227 -0.8038
59484SOL    HW285503   5.055   0.947   4.571  0.1217 -0.3077 -1.6424
59485SOL     OW85504   8.711  12.526   4.059 -0.2840 -0.1409 -0.2242
59485SOL    HW185505   8.628  12.575   4.060 -0.8794 -1.1181 -0.3082
59485SOL    HW285506   8.684  12.434   4.062  0.8391 -0.4580  1.4240
59486SOL     OW85507  10.946   4.365   4.453  0.1816  0.8079  0.1166
59486SOL    HW185508  11.023   4.309   4.456  0.2573  0.7401 -1.7798
59486SOL    HW285509  10.913   4.366   4.543  0.3429 -2.0559  0.2871
59487SOL     OW85510   6.420   2.497   9.385  0.2710 -0.3701 -0.7305
59487SOL    HW185511   6.398   2.529   9.298  0.6675  3.0684  0.2658
59487SOL    HW285512   6.516   2.501   9.389  0.2067  1.9047  0.5240
59488SOL     OW85513   8.620   9.607  10.341 -0.3881 -0.5609 -0.5125
59488SOL    HW185514   8.679   9.562  10.401 -1.5537  3.4039  4.1999
59488SOL    HW285515   8.678   9.659  10.285  0.6668 -1.7695 -0.5957
59489SOL     OW85516  11.506   3.812   8.177  0.3320  0.0237  0.3535
59489SOL    HW185517  11.447   3.885   8.198 -0.5528 -0.1346 -1.4588
59489SOL    HW285518  11.557   3.844   8.102  1.2190 -0.5727  0.6891
59490SOL     OW85519   2.472  11.469   6.069  0.2467 -0.3352  0.1251
59490SOL    HW185520   2.484  11.380   6.104  0.4754 -0.2392  0.2940
59490SOL    HW285521   2.456  11.523   6.147  1.5138  0.0106  0.1671
59491SOL     OW85522   8.731  11.067  10.551  0.0783  0.1097 -0.2754
59491SOL    HW185523   8.733  10.972  10.543 -0.8059 -0.1219  1.6971
59491SOL    HW285524   8.682  11.096  10.474  1.2246 -0.9086 -1.4443
59492SOL     OW85525   9.658   6.008   7.065  0.4092 -0.2313 -0.1673
59492SOL    HW185526   9.697   6.062   7.133  1.1064  1.1912 -1.6103
59492SOL    HW285527   9.631   5.928   7.109  3.8692 -0.8022  1.1902
59493SOL     OW85528  11.467   7.794   7.316  0.1723  0.4099 -0.1965
59493SOL    HW185529  11.378   7.823   7.336 -0.4287  0.8456 -3.0717
59493SOL    HW285530  11.511   7.872   7.283  1.7907  0.2691  1.4495
59494SOL     OW85531   5.622   3.929  12.535  0.1560 -0.3043 -0.0922
59494SOL    HW185532   5.573   3.984  12.473  0.6836 -0.1495 -0.3805
59494SOL    HW285533   5.714   3.947  12.515  0.3383  0.1619  1.1128
59495SOL     OW85534   3.218   4.716   5.199  0.0648  0.8798 -0.1421
59495SOL    HW185535   3.149   4.766   5.242 -0.1407  0.6120 -0.1606
59495SOL    HW285536   3.282   4.698   5.268 -0.7798 -0.4867  0.3146
59496SOL     OW85537   3.203   9.691   8.678  0.4694  0.5680  0.4643
59496SOL    HW185538   3.228   9.723   8.765  0.6251  2.1754 -0.1392
59496SOL    HW285539   3.269   9.728   8.619  0.6814 -0.9532 -0.2887
59497SOL     OW85540   4.999   3.205   1.917 -0.4376 -0.0162 -0.0669
59497SOL    HW185541   5.035   3.204   1.828  0.8672  1.0892  0.4140
59497SOL    HW285542   4.952   3.288   1.923 -2.0737 -0.8959 -0.2836
59498SOL     OW85543   4.628  12.145  10.258 -0.3158  0.1103 -0.0714
59498SOL    HW185544   4.623  12.210  10.188  0.0549  0.4305  0.1937
59498SOL    HW285545   4.627  12.196  10.339  0.1872 -0.1905  0.1336
59499SOL     OW85546   9.159   0.870   2.645  0.4266  0.2416  0.0146
59499SOL    HW185547   9.145   0.928   2.570 -0.6384 -0.1407 -0.1034
59499SOL    HW285548   9.187   0.787   2.606  2.9450  0.8941  0.2297
59500SOL     OW85549  12.427   4.544   8.556  0.4069  0.3209 -0.5501
59500SOL    HW185550  12.474   4.539   8.639  1.1181  0.7021 -0.9262
59500SOL    HW285551  12.482   4.496   8.494 -1.0400 -1.6550 -0.4140
59501SOL     OW85552   6.553   2.443   0.539 -0.3719  0.7058 -0.4376
59501SOL    HW185553   6.646   2.425   0.527 -0.5635 -0.8995  0.3416
59501SOL    HW285554   6.550   2.513   0.604  0.2710 -0.5333  0.9822
59502SOL     OW85555   6.102  10.239  12.336  0.4346 -0.0425  0.3769
59502SOL    HW185556   6.124  10.292  12.412  1.1411  1.4327 -0.7848
59502SOL    HW285557   6.044  10.296  12.284 -0.1741 -1.0755 -0.1105
59503SOL     OW85558  11.854  10.665   1.020  0.3332  0.3296  0.0080
59503SOL    HW185559  11.921  10.730   1.000  0.1777  0.1916 -1.0149
59503SOL    HW285560  11.900  10.598   1.071  0.9999  0.2153 -0.7122
59504SOL     OW85561   0.962  10.957   2.293 -0.0327  0.1303 -0.5067
59504SOL    HW185562   0.897  10.964   2.223  0.9700  1.5731 -1.3464
59504SOL    HW285563   1.046  10.967   2.248  0.6536  0.6344  0.8591
59505SOL     OW85564   7.498   8.540  11.831  0.5332 -0.1876  0.2472
59505SOL    HW185565   7.587   8.572  11.820  0.2147  0.6825  0.0677
59505SOL    HW285566   7.450   8.615  11.866 -0.4607 -0.1440 -1.1282
59506SOL     OW85567   3.852   1.774  11.689 -0.0749 -0.2877  0.7175
59506SOL    HW185568   3.882   1.861  11.716  1.2326 -0.5896  0.3163
59506SOL    HW285569   3.802   1.790  11.609  1.0071  0.0006  0.0865
59507SOL     OW85570   5.011   2.656   9.119  0.1501 -0.4023  0.2559
59507SOL    HW185571   5.090   2.608   9.145  1.1440  0.3568 -1.1907
59507SOL    HW285572   5.042   2.746   9.104 -0.7557 -0.3167 -1.3021
59508SOL     OW85573   2.565   2.416  10.982 -0.1514  0.0842 -0.3104
59508SOL    HW185574   2.474   2.434  10.959 -0.1969  0.9640  0.4820
59508SOL    HW285575   2.615   2.444  10.905 -0.4894  0.4761 -0.3925
59509SOL     OW85576   6.387   1.818   5.570  0.1512 -0.3561 -0.3869
59509SOL    HW185577   6.478   1.816   5.542  0.3182 -0.7487  0.1706
59509SOL    HW285578   6.389   1.855   5.658 -0.0358 -1.8854  0.2885
59510SOL     OW85579   8.202   9.622   3.063  0.3130  0.1347 -0.1491
59510SOL    HW185580   8.112   9.604   3.089  0.5533  0.5567  1.1074
59510SOL    HW285581   8.255   9.563   3.117  0.9203  2.1201  1.5659
59511SOL     OW85582   6.104   5.641  12.021  0.2601  0.1842 -0.0723
59511SOL    HW185583   6.167   5.708  12.049  1.0829 -0.1471 -1.0684
59511SOL    HW285584   6.157   5.561  12.012  0.0850  0.2598 -2.5269
59512SOL     OW85585  10.835   7.246   3.449 -0.0143 -0.0295 -0.6551
59512SOL    HW185586  10.778   7.321   3.437 -2.0862 -1.1254  1.4877
59512SOL    HW285587  10.852   7.214   3.360 -2.4602  0.5822 -1.4067
59513SOL     OW85588   4.518   0.283  10.977  0.4573  0.9211  0.1985
59513SOL    HW185589   4.550   0.269  10.887  1.5710 -2.0015  0.9481
59513SOL    HW285590   4.450   0.217  10.989  0.6337  0.9791  1.6481
59514SOL     OW85591   4.107   5.519  11.637 -0.1037  0.5379 -0.1639
59514SOL    HW185592   4.056   5.597  11.658 -0.2414 -0.0418  1.8614
59514SOL    HW285593   4.114   5.472  11.720 -0.0440 -1.6275 -1.3385
59515SOL     OW85594  11.721   4.518   1.913 -0.2620  0.4503 -0.2638
59515SOL    HW185595  11.629   4.492   1.920 -0.1640 -0.0175 -0.6425
59515SOL    HW285596  11.746   4.543   2.002 -0.4973 -0.3084  0.0206
59516SOL     OW85597   6.206   1.220   1.198  0.5255  0.2278 -0.0499
59516SOL    HW185598   6.132   1.201   1.256 -0.2561 -0.5335 -1.2277
59516SOL    HW285599   6.165   1.237   1.113  1.6965 -0.1851 -0.7200
59517SOL     OW85600   5.668   7.385   9.658  0.0766  0.0021  0.2617
59517SOL    HW185601   5.731   7.456   9.652  0.3651 -0.2811 -0.1408
59517SOL    HW285602   5.627   7.382   9.572  0.2571 -0.4863  0.1866
59518SOL     OW85603   3.423   0.515   3.445 -0.3225 -0.3777  0.2227
59518SOL    HW185604   3.331   0.541   3.448 -0.3683 -0.1693 -1.7962
59518SOL    HW285605   3.445   0.516   3.352  2.0504  0.6964  0.7327
59519SOL     OW85606   7.876   1.048   1.350  0.0605 -0.2095  0.3041
59519SOL    HW185607   7.866   0.985   1.421  0.5303  0.2394  0.7836
59519SOL    HW285608   7.970   1.049   1.331 -0.0853 -0.4708 -0.4649
59520SOL     OW85609   7.515   0.965   4.856 -0.0051  0.2211  0.1430
59520SOL    HW185610   7.578   0.942   4.925 -1.9496 -0.2203  1.8648
59520SOL    HW285611   7.483   0.881   4.823 -1.2061  0.4037  0.7785
59521SOL     OW85612   7.363   6.956   9.035  0.3098  0.4022  0.6378
59521SOL    HW185613   7.344   7.018   9.105  0.3764  1.5284 -0.2936
59521SOL    HW285614   7.412   6.886   9.077 -1.8005 -0.2533  2.2040
59522SOL     OW85615   6.029  10.645   1.080 -0.1025  0.1560 -0.2626
59522SOL    HW185616   6.120  10.672   1.071 -0.1102  0.3721  0.2637
59522SOL    HW285617   6.015  10.639   1.175 -0.8552  0.9285 -0.3088
59523SOL     OW85618   2.931   6.773   5.508  0.1906  0.3196  0.1513
59523SOL    HW185619   3.026   6.763   5.496  0.6504  0.7124  2.7584
59523SOL    HW285620   2.920   6.865   5.531 -0.4866 -0.2017  2.0712
59524SOL     OW85621   5.252   0.632   9.988  0.5442 -0.0818 -0.3313
59524SOL    HW185622   5.298   0.678  10.059  1.1296 -0.1699 -0.6565
59524SOL    HW285623   5.321   0.588   9.938  0.2384  0.7629 -1.5339
59525SOL     OW85624   2.839  10.551   3.384  0.3607  0.4842 -1.0708
59525SOL    HW185625   2.756  10.506   3.401  0.7727  0.2528  0.4780
59525SOL    HW285626   2.849  10.611   3.458  2.4226 -0.7962 -0.2216
59526SOL     OW85627  11.949   1.252   6.492 -0.2171  0.2258 -0.0089
59526SOL    HW185628  11.898   1.321   6.451 -1.0080 -0.7168 -0.6370
59526SOL    HW285629  12.017   1.299   6.541 -1.7037  1.5114  0.9118
59527SOL     OW85630   6.056   9.598  11.734  0.8912  0.8964  0.0691
59527SOL    HW185631   6.094   9.557  11.656  1.3440  0.3965  0.5439
59527SOL    HW285632   6.129   9.607  11.795  0.9331  2.9597 -0.2175
59528SOL     OW85633  11.418   8.538   1.729 -0.8688  0.6232 -0.2262
59528SOL    HW185634  11.372   8.504   1.805  1.2604  1.8361  1.7410
59528SOL    HW285635  11.507   8.505   1.738 -1.1275 -1.6583 -3.8865
59529SOL     OW85636  12.456   8.107   3.715 -0.1712  0.0685  0.4542
59529SOL    HW185637  12.475   8.013   3.716 -1.2876 -0.1598  1.3597
59529SOL    HW285638  12.526   8.144   3.660 -0.8007 -1.5008 -1.5626
59530SOL     OW85639   1.210   9.786  10.799  0.0761  0.7018 -0.2512
59530SOL    HW185640   1.142   9.829  10.850  0.0633 -0.1597  0.4837
59530SOL    HW285641   1.290   9.798  10.851  0.3191  0.9295 -0.6670
59531SOL     OW85642   7.277   8.684   7.006 -0.5625 -0.3939  0.0422
59531SOL    HW185643   7.330   8.742   6.950  0.8316  0.0842  1.7691
59531SOL    HW285644   7.324   8.601   7.004  1.2942  0.4609  2.8280
59532SOL     OW85645   7.090   0.133   0.197  1.0408  0.0355  0.7563
59532SOL    HW185646   7.097   0.138   0.292 -0.9673  0.8112  0.9074
59532SOL    HW285647   7.017   0.074   0.181  2.1550 -1.1054 -0.3720
59533SOL     OW85648   0.697   9.848  11.990 -0.0918  0.3051 -0.1110
59533SOL    HW185649   0.660   9.790  11.923  1.2565  1.2790 -1.7749
59533SOL    HW285650   0.789   9.857  11.966  0.8701 -0.5240  2.7912
59534SOL     OW85651   8.960   9.370   2.893  0.3402  0.1053 -0.3647
59534SOL    HW185652   8.879   9.351   2.847 -0.1717  0.4901  0.3489
59534SOL    HW285653   9.027   9.322   2.846 -0.6829 -2.3948  0.5880
59535SOL     OW85654   1.703   1.917  12.300 -0.0043 -0.8222  0.2141
59535SOL    HW185655   1.768   1.959  12.357 -0.3344 -0.2104  0.1464
59535SOL    HW285656   1.753   1.852  12.251  0.7841  0.3482 -0.6108
59536SOL     OW85657   9.475   4.172  11.491  0.1110 -0.7139  0.3019
59536SOL    HW185658   9.568   4.153  11.501 -0.1418 -1.6862  0.9940
59536SOL    HW285659   9.455   4.230  11.564  0.4308  0.5977 -0.6063
59537SOL     OW85660   0.468  12.417   6.410  0.2648  0.1956  0.2988
59537SOL    HW185661   0.437  12.429   6.321 -1.3349 -1.9594  0.4809
59537SOL    HW285662   0.562  12.438   6.406 -0.1151  1.8148 -1.4493
59538SOL     OW85663   4.169   4.035   9.034  0.7868  0.3812  1.0461
59538SOL    HW185664   4.112   4.056   8.960  1.5580 -0.1961  0.2730
59538SOL    HW285665   4.127   3.959   9.075  1.2443 -0.3708  0.1697
59539SOL     OW85666   4.159   9.498   8.879 -0.3224 -0.0247  0.3245
59539SOL    HW185667   4.081   9.541   8.844 -1.1858 -2.7646 -1.5070
59539SOL    HW285668   4.125   9.421   8.925  1.2273 -1.2068 -0.3887
59540SOL     OW85669   9.657  10.906   4.464 -0.5610  0.2129 -0.2545
59540SOL    HW185670   9.663  10.949   4.379 -0.8091 -0.9537 -0.8849
59540SOL    HW285671   9.563  10.890   4.476 -0.3472 -1.8002 -0.9170
59541SOL     OW85672  10.419  11.863   5.451 -0.1303  0.4130 -0.4100
59541SOL    HW185673  10.469  11.795   5.406  1.6921  1.4381 -0.0400
59541SOL    HW285674  10.330  11.828   5.457  0.6387 -1.6988 -0.6740
59542SOL     OW85675   8.826  11.235  11.514 -0.0795 -0.7323  0.2505
59542SOL    HW185676   8.872  11.226  11.597  0.3006  1.0681  0.2709
59542SOL    HW285677   8.736  11.258  11.538 -0.3605 -1.6933  0.1651
59543SOL     OW85678   9.072   4.208   9.567 -0.6173 -0.1492  0.8376
59543SOL    HW185679   9.165   4.223   9.584  0.1812 -0.4040 -2.6195
59543SOL    HW285680   9.031   4.292   9.584  1.4023  2.0910 -3.6875
59544SOL     OW85681   1.435   7.428   9.481  0.2491  0.0614  0.8144
59544SOL    HW185682   1.408   7.481   9.406  0.5967 -1.2492 -0.2931
59544SOL    HW285683   1.369   7.359   9.486  0.2788  0.0823  1.6820
59545SOL     OW85684   1.879   8.409   0.429  0.2057  0.7563 -0.0602
59545SOL    HW185685   1.853   8.353   0.502 -0.5786  1.0061 -0.1324
59545SOL    HW285686   1.974   8.416   0.436  0.3131 -0.4809  0.0282
59546SOL     OW85687   5.469   3.298  12.046 -0.1247  0.3438 -0.4815
59546SOL    HW185688   5.453   3.275  12.138  0.9899 -0.9271 -0.5706
59546SOL    HW285689   5.485   3.214  12.003  0.0627  0.9816 -1.7023
59547SOL     OW85690   0.606   1.021   9.176 -0.3537 -0.0066  0.5394
59547SOL    HW185691   0.685   1.046   9.128 -0.1591  1.4033  1.5468
59547SOL    HW285692   0.638   0.969   9.249 -0.4889 -0.5824  0.1954
59548SOL     OW85693   8.451   8.795   8.262  0.5969 -0.6984 -0.2632
59548SOL    HW185694   8.446   8.812   8.168 -0.2754  0.8951  0.0501
59548SOL    HW285695   8.506   8.866   8.296 -0.0450 -0.5911  0.5796
59549SOL     OW85696  10.198   0.836   9.136  0.0422 -0.1340  0.2649
59549SOL    HW185697  10.145   0.784   9.197  1.4455 -3.4567 -1.1087
59549SOL    HW285698  10.161   0.817   9.050  1.8645 -0.4728 -0.4750
59550SOL     OW85699   9.074  10.428   3.701 -0.3661 -0.4190 -0.4131
59550SOL    HW185700   9.014  10.353   3.700 -0.4938 -0.3350 -2.0829
59550SOL    HW285701   9.018  10.504   3.712 -0.5233 -0.3883 -1.3489
59551SOL     OW85702   3.326   5.266  11.357 -0.0365 -0.4612  0.6628
59551SOL    HW185703   3.349   5.177  11.329  0.3329 -0.0420 -0.4424
59551SOL    HW285704   3.407   5.300  11.396  0.2784 -0.1295 -0.2343
59552SOL     OW85705  11.808  11.001   3.426 -0.2136  0.0481 -0.3077
59552SOL    HW185706  11.798  11.024   3.519  0.3655  0.0830 -0.2461
59552SOL    HW285707  11.891  11.043   3.401 -1.2622  1.6086 -1.3376
59553SOL     OW85708   1.922   0.155   8.422 -0.2292 -0.2642 -0.2222
59553SOL    HW185709   1.937   0.064   8.447 -0.5720 -0.7850 -1.8421
59553SOL    HW285710   2.002   0.200   8.450 -1.2671 -0.3674  3.4716
59554SOL     OW85711   6.433  11.027   9.948  0.0513 -0.0207 -0.1105
59554SOL    HW185712   6.450  10.963  10.016 -1.1070  0.0324  0.2352
59554SOL    HW285713   6.360  11.080   9.981 -0.0578  0.4611 -1.0736
59555SOL     OW85714   0.298   1.263   6.329  0.3490 -0.1041  0.7707
59555SOL    HW185715   0.352   1.314   6.269  1.6443  1.7215  3.2714
59555SOL    HW285716   0.297   1.175   6.292  3.6301  0.1789 -0.3380
59556SOL     OW85717  11.013   9.262   2.029 -0.2835  0.1438 -0.2525
59556SOL    HW185718  11.091   9.232   1.982  0.4745  1.9752 -0.2593
59556SOL    HW285719  10.940   9.221   1.983  0.6414 -1.2857 -0.5023
59557SOL     OW85720   1.946  10.012   3.801 -0.2668 -0.4812  0.6007
59557SOL    HW185721   1.864   9.986   3.758  0.1516 -0.1938 -0.3995
59557SOL    HW285722   1.921  10.027   3.892 -1.7374  1.3531 -0.0208
59558SOL     OW85723   9.431   9.763   5.203 -0.5466  0.3082 -0.5332
59558SOL    HW185724   9.453   9.740   5.112  0.2494  0.0598 -0.2907
59558SOL    HW285725   9.344   9.801   5.198 -1.3529 -1.5285 -1.1411
59559SOL     OW85726   8.514   2.962   5.318 -0.2616 -0.2400  0.5126
59559SOL    HW185727   8.527   2.899   5.247 -0.5255 -0.1008  0.3361
59559SOL    HW285728   8.598   3.006   5.327  0.0859 -0.9895  1.0037
59560SOL     OW85729  10.285  11.527  10.128  0.1801  0.2257  0.4370
59560SOL    HW185730  10.308  11.502  10.039  1.4841 -0.3557  0.9078
59560SOL    HW285731  10.252  11.617  10.120  0.6300  0.3140 -0.5821
59561SOL     OW85732   7.475   1.280   3.133  0.6057  0.1471  0.2481
59561SOL    HW185733   7.523   1.303   3.054 -2.0933  0.7829 -1.3440
59561SOL    HW285734   7.439   1.193   3.115  0.6027 -0.0440  1.1085
59562SOL     OW85735   7.564   3.106   3.050  0.1893  0.6714  0.7029
59562SOL    HW185736   7.592   3.197   3.056 -0.2911  0.7569  1.9732
59562SOL    HW285737   7.477   3.110   3.010 -0.3352  0.9004  1.8153
59563SOL     OW85738   0.126   9.085   4.294  0.5286 -0.0274 -0.0073
59563SOL    HW185739   0.053   9.062   4.237  1.0064  1.0240 -1.1002
59563SOL    HW285740   0.140   9.008   4.349 -1.1594 -0.3702 -0.0211
59564SOL     OW85741   9.532   1.277   9.913 -0.2842  0.3926  0.0937
59564SOL    HW185742   9.501   1.243   9.829  0.0224  0.3750 -0.0112
59564SOL    HW285743   9.495   1.365   9.919  0.9576  0.9978 -0.7646
59565SOL     OW85744  11.419  12.549   3.129  0.2151 -0.1773  0.2943
59565SOL    HW185745  11.373  12.497   3.064 -0.1832  0.0383  0.4006
59565SOL    HW285746  11.389  12.639   3.113 -0.2513 -0.1876  1.0874
59566SOL     OW85747   9.708   9.344   3.758 -0.4760  0.2177 -0.0792
59566SOL    HW185748   9.691   9.309   3.846 -0.4065  1.8689  0.6168
59566SOL    HW285749   9.621   9.360   3.721 -0.5173  1.5943  0.5666
59567SOL     OW85750  10.976   8.259   2.818 -0.6267 -0.0352 -0.3963
59567SOL    HW185751  10.902   8.272   2.878 -0.4997  2.5034 -0.6469
59567SOL    HW285752  11.049   8.304   2.860  0.6100 -1.8329 -0.5280
59568SOL     OW85753   3.230   2.815   3.768 -0.2955 -0.9657  0.1620
59568SOL    HW185754   3.207   2.836   3.678 -0.4332 -3.5129 -0.4652
59568SOL    HW285755   3.294   2.883   3.793 -1.2010  0.5232 -1.3715
59569SOL     OW85756   8.103   5.001  12.502  0.0260  0.3118 -0.0585
59569SOL    HW185757   8.023   4.955  12.528 -0.8620  1.1634 -1.2165
59569SOL    HW285758   8.172   4.935  12.512 -1.3392 -1.7890 -2.9074
59570SOL     OW85759   6.167   8.074  11.183  0.6024  0.1253 -0.2433
59570SOL    HW185760   6.101   8.068  11.114  0.6341 -0.3158 -0.2407
59570SOL    HW285761   6.119   8.105  11.259  0.9242  2.5213 -0.9300
59571SOL     OW85762   3.035   8.975   1.522  0.4470 -0.1500  0.4345
59571SOL    HW185763   3.014   8.898   1.576  1.9766 -1.7535 -1.1348
59571SOL    HW285764   3.130   8.982   1.525  0.4001  1.0718 -0.2904
59572SOL     OW85765   0.358   7.550  12.017 -0.5373 -0.1338 -0.1547
59572SOL    HW185766   0.332   7.544  12.109 -0.6382  0.9421 -0.0997
59572SOL    HW285767   0.304   7.485  11.972 -0.9898 -0.1772  0.4424
59573SOL     OW85768   6.240  11.131   4.156 -0.3599  0.0088  0.5252
59573SOL    HW185769   6.174  11.174   4.102  0.2930  0.2434 -0.1031
59573SOL    HW285770   6.321  11.179   4.138  0.2066 -0.9509  0.4633
59574SOL     OW85771   2.853   4.313   8.510  0.1099  0.3635  0.5906
59574SOL    HW185772   2.894   4.232   8.539  1.1629  0.8199  0.4034
59574SOL    HW285773   2.765   4.310   8.548 -1.2490 -2.5421 -2.2615
59575SOL     OW85774   9.619  10.647   4.673  0.3458  0.2440 -0.0673
59575SOL    HW185775   9.525  10.629   4.677  0.2522  0.1151 -1.8846
59575SOL    HW285776   9.628  10.738   4.703 -0.2243 -0.0171  0.9482
59576SOL     OW85777   2.065   7.026   4.560  0.2210 -0.2532  0.0878
59576SOL    HW185778   1.984   7.061   4.598 -0.2018 -1.5521  0.4527
59576SOL    HW285779   2.036   6.980   4.481  0.6128 -0.6668  0.1846
59577SOL     OW85780   0.201   6.653   7.997 -0.5431  0.4658 -0.3113
59577SOL    HW185781   0.181   6.642   8.090 -1.4378  0.1402 -0.5301
59577SOL    HW285782   0.173   6.571   7.956  0.0895  0.5004 -0.8333
59578SOL     OW85783   6.761   6.153   2.346 -0.0413 -0.2257 -0.2489
59578SOL    HW185784   6.823   6.200   2.290  1.0591 -1.2442  0.0981
59578SOL    HW285785   6.814   6.092   2.396 -1.4302 -1.8549 -0.6626
59579SOL     OW85786  10.009   6.937   0.529 -0.2100  0.6562 -0.2606
59579SOL    HW185787  10.005   6.979   0.444 -1.1153  0.6664 -0.2206
59579SOL    HW285788  10.044   6.850   0.511  1.1826  1.2255 -0.4080
59580SOL     OW85789   9.937   8.316  12.286  0.6335 -0.1019 -0.2943
59580SOL    HW185790  10.007   8.285  12.343  0.3550  0.4783  0.3851
59580SOL    HW285791   9.860   8.318  12.342 -0.1715 -1.6895 -1.2992
59581SOL     OW85792  12.180   3.907   9.318 -0.0644 -0.4218 -0.4049
59581SOL    HW185793  12.253   3.922   9.258  1.4751 -0.7275  1.3300
59581SOL    HW285794  12.196   3.820   9.354 -0.8710 -0.1761  0.5854
59582SOL     OW85795   5.417   6.336   4.640 -0.2673 -0.1476  0.2277
59582SOL    HW185796   5.423   6.287   4.722 -1.9419  0.3163  0.6688
59582SOL    HW285797   5.393   6.270   4.575 -0.1691 -0.3110  0.3555
59583SOL     OW85798   2.077   9.858   4.903 -0.7727 -0.2477  0.2369
59583SOL    HW185799   2.025   9.929   4.866  1.6564  0.1465 -2.9436
59583SOL    HW285800   2.129   9.899   4.972 -1.3644  0.4169  0.2923
59584SOL     OW85801   9.848   2.607   3.282  0.0375  0.2876 -0.4842
59584SOL    HW185802   9.882   2.621   3.193  0.9608  2.0317  0.0883
59584SOL    HW285803   9.911   2.547   3.322 -2.5106 -3.9192 -2.1330
59585SOL     OW85804   7.419  12.352   0.750  0.2722  0.5890 -0.1831
59585SOL    HW185805   7.503  12.305   0.752 -0.8217 -2.0208 -4.1299
59585SOL    HW285806   7.432  12.424   0.689 -0.0598  0.8648  0.0655
59586SOL     OW85807  11.083   0.590  10.212 -0.1422 -0.7295 -0.0603
59586SOL    HW185808  11.085   0.673  10.164  0.0063 -1.0827 -0.6764
59586SOL    HW285809  11.168   0.584  10.255  0.4004 -1.2183 -1.1642
59587SOL     OW85810   3.612   7.317   3.723  0.4295  0.4512  1.0156
59587SOL    HW185811   3.664   7.237   3.727 -1.1812 -0.8485 -1.6628
59587SOL    HW285812   3.661   7.374   3.663 -0.2584 -0.0376 -0.0303
59588SOL     OW85813   7.144   4.663   2.024 -0.1814 -0.3386 -0.1752
59588SOL    HW185814   7.118   4.690   1.936 -0.9209  0.0121  0.1471
59588SOL    HW285815   7.233   4.628   2.013 -0.3534 -0.4951 -1.0899
59589SOL     OW85816   6.054   0.392   2.209  0.4431  0.3439 -0.0153
59589SOL    HW185817   6.102   0.443   2.144 -0.3387 -0.7868 -1.5683
59589SOL    HW285818   6.061   0.302   2.179  0.2824 -0.2682  1.6568
59590SOL     OW85819   1.522   1.195   4.246 -0.7528  0.5137 -0.5429
59590SOL    HW185820   1.521   1.104   4.277 -0.3378  0.3077 -1.1074
59590SOL    HW285821   1.580   1.193   4.169 -0.2304  1.3797 -0.1791
59591SOL     OW85822   6.284   7.708  12.180  0.0628 -0.1004  0.3212
59591SOL    HW185823   6.257   7.773  12.116  2.2696  0.2598 -0.3354
59591SOL    HW285824   6.285   7.756  12.263 -2.1338 -0.3907  0.5758
59592SOL     OW85825   2.913   4.505  12.327  0.1961  0.5749 -0.0111
59592SOL    HW185826   2.895   4.530  12.418 -1.1046  0.8031 -0.3239
59592SOL    HW285827   2.994   4.454  12.333  0.5065  1.1668  1.1846
59593SOL     OW85828   2.911   0.628  10.271  0.6754 -0.1305 -0.0855
59593SOL    HW185829   2.923   0.538  10.242 -0.1316 -0.5740  0.8795
59593SOL    HW285830   2.926   0.681  10.193 -1.9788 -1.2861 -1.4915
59594SOL     OW85831  12.548  11.275  10.259 -0.2223  0.0949  0.3106
59594SOL    HW185832  12.527  11.364  10.232 -1.1180 -0.3526 -0.5165
59594SOL    HW285833  12.636  11.260  10.225  0.6817  1.2637  2.0025
59595SOL     OW85834   1.219   8.927   8.273  0.5604  0.2151  0.5239
59595SOL    HW185835   1.176   8.893   8.352 -0.9490 -0.7980 -0.6867
59595SOL    HW285836   1.189   9.017   8.266 -2.3376 -0.7583 -0.8604
59596SOL     OW85837   0.749   7.375   7.605  0.4341 -0.5185  0.5917
59596SOL    HW185838   0.753   7.296   7.550 -0.2103 -1.3764  1.7305
59596SOL    HW285839   0.717   7.443   7.546 -1.3205 -1.6686  0.1371
59597SOL     OW85840   9.547   5.441   0.815  0.2613 -0.2966  0.3058
59597SOL    HW185841   9.492   5.465   0.889 -0.0090  0.6302 -0.1723
59597SOL    HW285842   9.622   5.396   0.854  0.8104  1.3622  1.3040
59598SOL     OW85843   5.777   0.309   0.706 -0.0134  0.3873  0.0063
59598SOL    HW185844   5.683   0.302   0.721 -0.0068 -0.0719 -0.1535
59598SOL    HW285845   5.806   0.378   0.766 -0.1511 -0.6904  1.3686
59599SOL     OW85846  11.695   5.055   4.903 -0.2559  0.2011  0.1862
59599SOL    HW185847  11.707   5.102   4.986 -0.2230  0.9749 -0.2471
59599SOL    HW285848  11.686   4.963   4.929  0.0196  0.3987  1.0263
59600SOL     OW85849   2.861   5.452   1.703  0.1553 -0.4110  0.3240
59600SOL    HW185850   2.892   5.393   1.771  1.4546 -0.5785 -0.3619
59600SOL    HW285851   2.855   5.397   1.625 -0.3560 -0.0171  0.0832
59601SOL     OW85852   4.642   0.812   9.997 -0.3065 -0.0085 -0.1483
59601SOL    HW185853   4.587   0.808   9.918  0.5177 -0.7138 -0.7081
59601SOL    HW285854   4.622   0.732  10.045  0.3829 -0.3967 -0.4816
59602SOL     OW85855  11.050   8.560   4.733 -0.5092  0.0988  0.2298
59602SOL    HW185856  11.085   8.482   4.776  0.0084  0.4219  0.3965
59602SOL    HW285857  11.055   8.539   4.639 -0.3956 -0.0757  0.2743
59603SOL     OW85858   5.862   1.665   7.065  0.0555  0.3037  0.5711
59603SOL    HW185859   5.883   1.584   7.111 -0.4674  0.1926  0.6265
59603SOL    HW285860   5.922   1.668   6.991 -0.4726 -0.5416  0.1050
59604SOL     OW85861   9.630   1.424   4.849 -0.3458  0.2738 -0.1023
59604SOL    HW185862   9.640   1.425   4.754 -0.2936 -0.0360 -0.1007
59604SOL    HW285863   9.537   1.405   4.862 -0.1897 -0.5583 -0.0905
59605SOL     OW85864  11.560   3.987   8.971  0.0400  0.5673  0.4699
59605SOL    HW185865  11.556   3.965   8.878  1.2725 -1.1115  0.7762
59605SOL    HW285866  11.514   4.071   8.978 -3.4749 -1.0555 -1.0344
59606SOL     OW85867   4.941   0.573   4.297  0.2542 -0.1645 -0.1478
59606SOL    HW185868   4.973   0.522   4.223 -0.8872 -0.9688 -0.1028
59606SOL    HW285869   4.869   0.625   4.262  0.3452  0.1898  0.1796
59607SOL     OW85870   5.242   7.626   4.495  0.1231  0.1310  0.3370
59607SOL    HW185871   5.266   7.534   4.508  0.2658  0.1312  0.0762
59607SOL    HW285872   5.324   7.674   4.500  0.2316  0.0965 -0.8649
59608SOL     OW85873  11.171   7.006   0.384 -0.2412 -0.1050 -0.1783
59608SOL    HW185874  11.213   6.958   0.455  0.2175  0.8136  0.1964
59608SOL    HW285875  11.091   7.041   0.424  0.2214  0.7548  0.0202
59609SOL     OW85876   2.945  10.077   3.497 -0.1919  0.3464  0.0356
59609SOL    HW185877   2.875  10.112   3.553  0.6592  0.3114  1.1598
59609SOL    HW285878   2.971  10.151   3.442  0.1246  0.8970  0.8976
59610SOL     OW85879   8.353  10.808   9.548  0.0463  0.2711 -0.0703
59610SOL    HW185880   8.434  10.760   9.531  0.2718  1.3034 -2.1449
59610SOL    HW285881   8.365  10.844   9.636  1.2124 -0.7777  0.2277
59611SOL     OW85882   0.268   9.958   4.924  0.5964 -0.9479 -0.0018
59611SOL    HW185883   0.260   9.868   4.893  1.9845 -0.7111 -1.1614
59611SOL    HW285884   0.185   9.976   4.967 -0.9282 -1.7667 -2.4172
59612SOL     OW85885   1.786   8.850   3.900  0.3047  0.0679  0.1184
59612SOL    HW185886   1.840   8.842   3.821 -0.9559  0.8843 -0.8856
59612SOL    HW285887   1.843   8.822   3.971  2.1867  1.2744 -0.8089
59613SOL     OW85888   5.023   0.712   8.327 -0.1184 -0.6254 -0.2013
59613SOL    HW185889   5.068   0.704   8.412 -0.5760 -0.9527  0.0108
59613SOL    HW285890   4.934   0.739   8.350  0.1944  0.9127 -0.6643
59614SOL     OW85891  11.773   1.340   1.708 -0.4651 -0.0073  0.1088
59614SOL    HW185892  11.740   1.368   1.623  2.3168  2.1471 -0.4223
59614SOL    HW285893  11.716   1.384   1.771 -2.9497 -2.1289 -0.5123
59615SOL     OW85894   1.425   1.741  10.938 -0.8135  0.5024 -0.4770
59615SOL    HW185895   1.355   1.794  10.900 -1.9819  0.0580  0.9542
59615SOL    HW285896   1.381   1.661  10.968  0.9169 -1.4499 -2.7386
59616SOL     OW85897   1.951   9.395  10.547 -0.4449  0.0224 -0.4378
59616SOL    HW185898   1.994   9.440  10.619 -0.0870 -0.3540 -0.4127
59616SOL    HW285899   1.889   9.459  10.511 -0.6992  0.1737  0.2644
59617SOL     OW85900  11.602   4.669  11.117 -0.2193  0.2731 -0.3341
59617SOL    HW185901  11.683   4.640  11.075  0.7372  2.4064 -0.1457
59617SOL    HW285902  11.564   4.731  11.055 -2.3130 -1.4334 -0.8718
59618SOL     OW85903   2.415  12.136   7.468  0.2526  0.0908  0.1835
59618SOL    HW185904   2.398  12.121   7.375 -0.7370 -0.0395  0.3771
59618SOL    HW285905   2.505  12.169   7.470  0.5169 -0.5054 -0.7595
59619SOL     OW85906   5.681   4.428   3.890 -0.0509  0.2775  0.7491
59619SOL    HW185907   5.639   4.379   3.961  1.5645  0.3031  1.7762
59619SOL    HW285908   5.751   4.371   3.860 -0.1264  0.6733 -0.2118
59620SOL     OW85909   3.992   8.258   5.677 -0.5820 -0.0096 -0.4755
59620SOL    HW185910   4.013   8.276   5.585 -0.5234  1.4172 -0.2041
59620SOL    HW285911   3.945   8.336   5.706  0.0011 -0.1439  0.8954
59621SOL     OW85912   4.893  12.249   4.306  0.1728 -0.1463  0.1962
59621SOL    HW185913   4.910  12.192   4.381  0.7651  0.6243  0.6571
59621SOL    HW285914   4.799  12.268   4.312  0.5169  1.2752  1.7500
59622SOL     OW85915   6.055   5.672  12.282 -0.3205 -0.2379 -0.6772
59622SOL    HW185916   6.051   5.663  12.187  0.9982  0.6029 -0.8368
59622SOL    HW285917   6.063   5.582  12.314 -0.1569 -0.4895 -1.3954
59623SOL     OW85918   0.499   7.302   6.585  0.5885  0.0142  0.1451
59623SOL    HW185919   0.562   7.346   6.528 -0.3708  2.7894  1.0386
59623SOL    HW285920   0.427   7.364   6.594 -0.3071 -1.2230  2.5693
59624SOL     OW85921   1.567   4.549   0.835 -0.3237  0.1744  0.5469
59624SOL    HW185922   1.599   4.530   0.747 -1.6417  0.3765  0.0007
59624SOL    HW285923   1.599   4.637   0.854 -0.9784  0.5851 -0.2021
59625SOL     OW85924   1.962   2.874  12.055 -0.4159 -0.8057 -0.2240
59625SOL    HW185925   1.969   2.788  12.014  2.2722  0.3156 -2.4158
59625SOL    HW285926   1.954   2.936  11.983  1.4112  1.0486  1.0415
59626SOL     OW85927   5.158   9.102   8.740  0.1491  0.0247 -0.6502
59626SOL    HW185928   5.165   9.042   8.666 -2.6590 -1.7950  0.3923
59626SOL    HW285929   5.241   9.093   8.786  0.2305 -2.2990 -1.1249
59627SOL     OW85930   6.824   7.905   8.434 -0.1338 -0.1786  0.3520
59627SOL    HW185931   6.769   7.935   8.362  0.5176 -1.4391 -0.7076
59627SOL    HW285932   6.888   7.847   8.393  0.5820 -0.5214  1.8781
59628SOL     OW85933   4.667  10.123   2.358 -0.1416  0.3073  0.5614
59628SOL    HW185934   4.754  10.149   2.387  0.5530 -0.4565 -0.7654
59628SOL    HW285935   4.654  10.170   2.275 -0.7172 -0.0837  0.4207
59629SOL     OW85936   8.113   4.909   6.386  0.0681 -0.5882  0.0734
59629SOL    HW185937   8.026   4.947   6.377  0.7373  1.2430  0.7348
59629SOL    HW285938   8.172   4.975   6.349  1.2328 -1.4027  0.4122
59630SOL     OW85939   1.468   8.948   0.410  0.1534  0.1407  0.3464
59630SOL    HW185940   1.508   8.965   0.325 -0.7930 -0.4266 -0.2347
59630SOL    HW285941   1.375   8.935   0.391  0.1287 -1.3969  1.2745
59631SOL     OW85942   0.285  10.003   8.248 -0.1804 -0.4638  0.0725
59631SOL    HW185943   0.291  10.010   8.152  1.8796 -0.3693  0.1528
59631SOL    HW285944   0.240   9.921   8.263 -1.2398 -0.1093 -0.9615
59632SOL     OW85945   7.752  12.371   0.621  0.4635  0.5168  0.4898
59632SOL    HW185946   7.738  12.385   0.527  0.1556  1.5917  0.6857
59632SOL    HW285947   7.845  12.351   0.628  0.4372  0.1655 -0.0689
59633SOL     OW85948   0.483   3.299   5.813  0.0836  0.0576 -0.0641
59633SOL    HW185949   0.509   3.219   5.859 -0.3737  0.1607  0.3852
59633SOL    HW285950   0.392   3.283   5.788 -0.2453  0.7206  0.6747
59634SOL     OW85951   0.960   0.021   5.547  0.3641 -0.0622  0.2273
59634SOL    HW185952   0.927  -0.054   5.497 -3.2945  1.8339 -0.5775
59634SOL    HW285953   0.950  -0.006   5.639  0.9821 -1.2021 -0.0089
59635SOL     OW85954   6.235  12.154   9.607  0.0820  0.1259  0.2733
59635SOL    HW185955   6.264  12.076   9.561 -0.6442 -0.2642  0.4711
59635SOL    HW285956   6.261  12.140   9.698  2.4656  1.3487 -0.1205
59636SOL     OW85957   8.612   0.473  12.292  0.2915  0.3064  0.0102
59636SOL    HW185958   8.519   0.491  12.310  0.2019 -0.0234 -0.1124
59636SOL    HW285959   8.620   0.485  12.197  0.5894  1.2769  0.1537
59637SOL     OW85960  11.595   4.199   9.325  0.1641 -0.1485 -0.4360
59637SOL    HW185961  11.629   4.209   9.414  0.6553  0.2089 -0.6566
59637SOL    HW285962  11.635   4.272   9.276 -0.6801  0.0968 -0.7769
59638SOL     OW85963   1.673  12.438   1.828  0.1014 -0.2510 -0.0517
59638SOL    HW185964   1.686  12.382   1.905 -0.5332  0.5806  0.6943
59638SOL    HW285965   1.718  12.520   1.850 -0.4132  0.1330 -0.3944
59639SOL     OW85966   4.109   2.640   3.001 -0.2605  0.6102 -0.5288
59639SOL    HW185967   4.201   2.661   3.018  0.0484 -1.8903  1.7589
59639SOL    HW285968   4.066   2.724   2.991  2.0313  1.9241 -0.0192
59640SOL     OW85969   3.191   9.866   7.409  0.0829 -0.7990 -0.3672
59640SOL    HW185970   3.211   9.869   7.503  1.9430 -0.0607 -0.7438
59640SOL    HW285971   3.098   9.843   7.405 -0.0936 -0.6174  1.6559
59641SOL     OW85972   2.767   3.751   9.940  0.3292  0.4662  0.1420
59641SOL    HW185973   2.676   3.728   9.924  0.4811  0.1304 -0.2649
59641SOL    HW285974   2.773   3.765  10.034  0.1192 -0.6862  0.3379
59642SOL     OW85975   4.173  10.164   3.363  0.2174  0.4219 -0.3652
59642SOL    HW185976   4.162  10.122   3.449  0.6440  0.3880 -0.3252
59642SOL    HW285977   4.173  10.091   3.301 -2.2179  0.5641 -0.6288
59643SOL     OW85978   8.596   6.892  10.215 -0.5075 -0.1586  0.3878
59643SOL    HW185979   8.603   6.820  10.279  3.7013 -0.3188  0.0567
59643SOL    HW285980   8.589   6.849  10.130  0.7166 -0.2349  0.2983
59644SOL     OW85981   5.773   7.158   6.820 -0.3120  0.3507  0.3064
59644SOL    HW185982   5.714   7.152   6.895  0.2613  1.2287  0.8486
59644SOL    HW285983   5.754   7.244   6.782 -1.2685 -0.4612 -1.1518
59645SOL     OW85984   6.073   5.442   7.219  0.3178  0.4860 -0.2810
59645SOL    HW185985   6.125   5.445   7.299  2.5582 -1.1787 -1.5495
59645SOL    HW285986   6.005   5.377   7.237  1.0616 -0.1853  0.1413
59646SOL     OW85987   1.492  12.161   2.516 -0.0779  0.2159 -0.3717
59646SOL    HW185988   1.512  12.087   2.574 -1.8149  0.3035  0.4057
59646SOL    HW285989   1.420  12.207   2.560  0.1864  1.7107 -1.4186
59647SOL     OW85990   5.390   1.001   4.589 -0.1202 -0.1325  0.4158
59647SOL    HW185991   5.323   0.932   4.592 -0.0195 -0.2020  2.3477
59647SOL    HW285992   5.473   0.955   4.603 -0.0011  0.2894  1.1643
59648SOL     OW85993   8.927   0.617   6.456 -0.5526 -0.0567  0.1390
59648SOL    HW185994   8.893   0.670   6.384  0.6587  0.9622  0.2614
59648SOL    HW285995   8.950   0.533   6.417  2.6144  1.3485 -1.3598
59649SOL     OW85996   0.252   5.198   6.327  0.0820 -0.0343 -0.4777
59649SOL    HW185997   0.341   5.201   6.360  0.3147  0.5316 -1.1357
59649SOL    HW285998   0.257   5.238   6.241 -0.4953 -1.5403 -1.2518
59650SOL     OW85999  10.058   7.180  11.274 -0.1865  0.1722 -0.3580
59650SOL    HW186000   9.994   7.125  11.320 -0.6440  0.9580 -0.0299
59650SOL    HW286001  10.070   7.256  11.331  0.3471  0.4699 -0.8514
59651SOL     OW86002   1.723  12.286   2.057 -0.1051 -0.3761 -0.0239
59651SOL    HW186003   1.655  12.253   2.116 -0.1729  0.4466  0.3790
59651SOL    HW286004   1.763  12.359   2.105 -0.4668  0.6147 -1.1770
59652SOL     OW86005   0.424  12.585   2.520 -0.5567  0.2683 -0.3891
59652SOL    HW186006   0.502  12.639   2.512 -1.2089  1.2578 -0.2636
59652SOL    HW286007   0.455  12.496   2.504  0.8271  0.4650  0.9852
59653SOL     OW86008   8.202   3.203  11.707 -0.0587  0.1542  0.4640
59653SOL    HW186009   8.195   3.149  11.629  0.8229  0.6885 -0.0008
59653SOL    HW286010   8.175   3.290  11.679  0.1120  0.3159  0.7899
59654SOL     OW86011   8.773   7.311   0.604 -0.4445  0.9039  0.4958
59654SOL    HW186012   8.740   7.226   0.635 -0.9598  0.3360 -1.4897
59654SOL    HW286013   8.860   7.318   0.645 -0.2356 -0.7555  0.4384
59655SOL     OW86014   6.060   2.834  11.454 -0.3599 -0.7092  0.3050
59655SOL    HW186015   6.063   2.739  11.467  0.7193 -0.7475 -0.0769
59655SOL    HW286016   6.137   2.866  11.502 -0.5855 -0.0544  0.2290
59656SOL     OW86017   3.232   5.744   9.383 -0.0500  0.4384  0.3648
59656SOL    HW186018   3.139   5.739   9.363  0.0248 -1.9489  0.3625
59656SOL    HW286019   3.259   5.831   9.351 -2.0417  0.7680 -0.5509
59657SOL     OW86020   0.721  11.941   8.245 -0.0762  0.1299 -0.5593
59657SOL    HW186021   0.638  11.954   8.199  0.1178  2.1147 -0.4377
59657SOL    HW286022   0.788  11.941   8.177  0.0560  1.3834 -0.4532
59658SOL     OW86023   1.312  10.702   3.406  0.2048 -0.0060 -0.5579
59658SOL    HW186024   1.358  10.653   3.339  0.4448  0.4673 -0.7429
59658SOL    HW286025   1.248  10.755   3.358  0.3822  0.3397 -0.4212
59659SOL     OW86026   5.128   3.264   6.313 -0.2363 -0.4767 -0.0549
59659SOL    HW186027   5.086   3.340   6.354 -0.4362 -0.2733 -0.6373
59659SOL    HW286028   5.218   3.265   6.347 -0.0520  0.3890 -0.5441
59660SOL     OW86029   7.793   0.841   1.542 -0.0161  0.5577 -0.2694
59660SOL    HW186030   7.809   0.806   1.630 -0.4219 -0.5668 -0.6390
59660SOL    HW286031   7.794   0.765   1.484  1.0420  1.3752 -1.3660
59661SOL     OW86032   6.129   4.824   5.550 -0.1587 -0.4755 -0.7216
59661SOL    HW186033   6.124   4.917   5.531 -1.2285 -0.0381  1.3897
59661SOL    HW286034   6.189   4.817   5.625 -0.7706 -1.3733 -0.2919
59662SOL     OW86035   4.777   4.884   1.420  0.4971  0.6504  0.2359
59662SOL    HW186036   4.783   4.820   1.491 -0.7236  0.8391  0.5301
59662SOL    HW286037   4.709   4.850   1.362  0.0598  1.4965  0.2322
59663SOL     OW86038  11.314   6.227   5.483  0.1668  0.5506 -0.1811
59663SOL    HW186039  11.380   6.285   5.446  0.2187  0.7030  0.1467
59663SOL    HW286040  11.260   6.202   5.408  1.1343 -0.3106 -0.6146
59664SOL     OW86041   6.927   7.723   5.495 -0.1761  0.2203 -0.0445
59664SOL    HW186042   7.000   7.699   5.438  0.8309 -0.2209  1.3748
59664SOL    HW286043   6.913   7.817   5.478 -0.7079 -0.1386 -1.8411
59665SOL     OW86044   4.282   8.340   8.441  0.2029 -0.3018 -0.6755
59665SOL    HW186045   4.329   8.421   8.458  1.4631 -0.8241 -1.4463
59665SOL    HW286046   4.337   8.294   8.376 -0.6251 -1.6213 -0.4854
59666SOL     OW86047   8.692   3.243   7.379  0.3352  0.0180  0.0162
59666SOL    HW186048   8.750   3.188   7.432  1.8234  1.0569 -0.4679
59666SOL    HW286049   8.750   3.284   7.315 -0.7132  2.1157  0.3406
59667SOL     OW86050  10.187  12.269   6.457 -0.0109  0.1028 -0.0268
59667SOL    HW186051  10.232  12.185   6.447 -1.6813 -0.6374 -2.1437
59667SOL    HW286052  10.233  12.313   6.529  1.9894 -1.8915  0.0125
59668SOL     OW86053  11.500   1.582   4.062 -0.5172  0.2533  0.3046
59668SOL    HW186054  11.555   1.576   4.141 -1.5200 -0.9228  0.9519
59668SOL    HW286055  11.413   1.554   4.092 -1.2714  1.2469 -0.8944
59669SOL     OW86056   6.662  10.342   5.063  0.3688  0.1899 -0.1478
59669SOL    HW186057   6.722  10.341   5.137  1.2248 -1.7824 -0.8084
59669SOL    HW286058   6.698  10.278   5.002 -0.2902  1.7605 -2.3018
59670SOL     OW86059   4.110   6.707   0.166 -0.1539  0.6666 -0.4392
59670SOL    HW186060   4.095   6.668   0.251  0.4648  0.8641 -0.2356
59670SOL    HW286061   4.200   6.684   0.144  0.4938  2.5704  0.0252
59671SOL     OW86062   8.375  10.484   2.242 -0.4167 -0.5127 -0.6039
59671SOL    HW186063   8.322  10.410   2.211 -0.5496 -0.6879  0.0200
59671SOL    HW286064   8.417  10.450   2.321 -2.4712  0.8545  1.1924
59672SOL     OW86065   1.916   5.619   0.249  0.5985  0.2987  0.7838
59672SOL    HW186066   1.945   5.686   0.311 -0.1800 -0.6045  2.1698
59672SOL    HW286067   1.821   5.624   0.251  0.5600  0.0230 -0.0904
59673SOL     OW86068   9.319   5.880   0.343 -0.3051  0.0317  0.6326
59673SOL    HW186069   9.270   5.915   0.269 -1.2613 -1.3342  0.5761
59673SOL    HW286070   9.252   5.849   0.404  0.4700  1.0237  2.0409
59674SOL     OW86071   7.428   3.542   9.705 -0.1641 -0.1030  0.5085
59674SOL    HW186072   7.490   3.614   9.717 -1.0281  0.5734  1.0430
59674SOL    HW286073   7.457   3.475   9.767  1.3679 -0.7580 -0.8282
59675SOL     OW86074   8.550   7.150   3.871  0.4297  0.2935 -0.4308
59675SOL    HW186075   8.607   7.106   3.934 -1.5622  0.1591  1.3867
59675SOL    HW286076   8.604   7.220   3.835  1.7821  0.1191  1.1290
59676SOL     OW86077   2.238  11.555   1.245  0.0590 -0.1709  0.3617
59676SOL    HW186078   2.148  11.585   1.237  0.0218 -0.3643  0.0334
59676SOL    HW286079   2.246  11.529   1.337 -0.5288 -1.1135  0.1622
59677SOL     OW86080   0.094   8.194   1.213  0.5659  0.2490 -0.1073
59677SOL    HW186081   0.136   8.277   1.191  1.6882  0.3760  2.2072
59677SOL    HW286082   0.002   8.217   1.225  0.8294  1.1533  0.3380
59678SOL     OW86083   4.025   9.208  12.283  0.2234  0.2991  0.3801
59678SOL    HW186084   3.932   9.193  12.269  0.3134  0.3019 -0.2827
59678SOL    HW286085   4.059   9.229  12.195  1.3012 -2.1615  0.1172
59679SOL     OW86086   1.066   7.562   3.580  0.6317  0.4163 -0.3731
59679SOL    HW186087   1.081   7.487   3.637  0.1047  0.0183 -0.7483
59679SOL    HW286088   1.128   7.550   3.508 -0.4248 -0.4437 -1.1711
59680SOL     OW86089   5.972   2.670   3.104  0.4371 -0.3983  0.2222
59680SOL    HW186090   5.995   2.696   3.193  0.6969 -0.2307  0.1073
59680SOL    HW286091   5.901   2.729   3.078  0.9726  0.1537 -0.0099
59681SOL     OW86092   1.271   4.962   9.503 -0.0340  0.1468 -0.1381
59681SOL    HW186093   1.206   4.898   9.474  0.4127 -1.0762  1.4318
59681SOL    HW286094   1.222   5.044   9.511 -0.5234  0.1935 -2.6224
59682SOL     OW86095   4.203   6.213  12.169 -0.2000  0.1527  0.3001
59682SOL    HW186096   4.190   6.134  12.117 -0.6979 -0.2313  0.9838
59682SOL    HW286097   4.116   6.253  12.174 -0.1566  0.1946  0.8182
59683SOL     OW86098   6.770   2.679   8.149  0.4850  0.1018  0.0828
59683SOL    HW186099   6.756   2.599   8.200 -3.0226  0.3894 -0.1714
59683SOL    HW286100   6.744   2.656   8.060 -0.7081  1.5238  0.0290
59684SOL     OW86101   3.418   2.880   5.917 -0.4161  0.0424 -0.0237
59684SOL    HW186102   3.472   2.957   5.932  0.3449 -1.0511  3.9147
59684SOL    HW286103   3.475   2.806   5.939 -1.4665 -1.6973 -2.5852
59685SOL     OW86104   5.189   2.482   0.056 -0.0442 -0.0677  0.0047
59685SOL    HW186105   5.121   2.531   0.009 -1.5524 -1.5151  0.6050
59685SOL    HW286106   5.267   2.491   0.000 -0.6251  1.8221 -0.5830
59686SOL     OW86107   3.150   6.460   9.098  0.0524 -0.0160  0.2273
59686SOL    HW186108   3.197   6.520   9.155 -0.7346  0.4282  0.4240
59686SOL    HW286109   3.184   6.478   9.011  1.2483 -0.6867  0.5352
59687SOL     OW86110   9.445   3.766   6.046 -0.0667 -0.3108  0.0130
59687SOL    HW186111   9.363   3.763   5.998 -0.8994  1.7612  1.1676
59687SOL    HW286112   9.490   3.844   6.014  1.2192 -1.1012 -0.2039
59688SOL     OW86113   0.263   1.555  10.177 -0.5440  0.1935  0.2855
59688SOL    HW186114   0.276   1.616  10.104  0.1396  1.2716  1.2753
59688SOL    HW286115   0.170   1.561  10.198 -0.7273 -0.0518 -0.4124
59689SOL     OW86116   7.417   9.439   3.452 -0.4097  0.0282 -0.0000
59689SOL    HW186117   7.453   9.380   3.387 -1.5086  0.4186 -1.0092
59689SOL    HW286118   7.376   9.509   3.401 -0.5439  0.8124  1.1301
59690SOL     OW86119   4.529   3.556  12.109 -0.4531  0.5261 -0.2223
59690SOL    HW186120   4.441   3.530  12.136 -0.4690  0.9574  0.1508
59690SOL    HW286121   4.581   3.552  12.190  0.2060 -1.0418 -0.6710
59691SOL     OW86122   2.883  11.764   3.303 -0.2009 -0.6897  0.4003
59691SOL    HW186123   2.937  11.794   3.377 -1.4202 -0.1412  1.1055
59691SOL    HW286124   2.851  11.845   3.263 -0.5626 -1.0100  0.0379
59692SOL     OW86125   1.921   4.536   2.040  0.7376  0.2178 -0.0166
59692SOL    HW186126   1.956   4.512   2.126  0.4818 -3.3666 -0.7811
59692SOL    HW286127   1.849   4.597   2.060  0.7116 -0.4626  2.3093
59693SOL     OW86128  12.165   4.021   7.649  0.3973  0.2045  0.4419
59693SOL    HW186129  12.083   3.995   7.607  0.8905  0.0529 -0.4349
59693SOL    HW286130  12.138   4.084   7.716 -0.4571 -0.0134  0.3167
59694SOL     OW86131   8.631   1.116   3.574 -0.2924  0.2572  0.0760
59694SOL    HW186132   8.702   1.146   3.632  0.6067 -1.5847 -0.0015
59694SOL    HW286133   8.582   1.054   3.628 -0.2047 -0.5215 -0.7253
59695SOL     OW86134   8.710   2.830   4.263 -0.0407 -0.4283 -0.0544
59695SOL    HW186135   8.678   2.901   4.208 -0.6645 -0.3828  0.3671
59695SOL    HW286136   8.737   2.762   4.201  0.3601  0.0809 -0.4509
59696SOL     OW86137   0.622   5.545   0.468 -0.0294 -0.0859 -0.1114
59696SOL    HW186138   0.630   5.634   0.433 -0.6936 -0.0565 -0.1937
59696SOL    HW286139   0.682   5.544   0.543 -0.6254  0.6897  0.3984
59697SOL     OW86140   2.907   6.225   1.414  0.1412  0.2033  0.2455
59697SOL    HW186141   2.938   6.135   1.424  0.2871  0.3811  1.5503
59697SOL    HW286142   2.980   6.271   1.372 -0.1480 -0.3990 -0.9395
59698SOL     OW86143   3.736   3.827   4.660 -0.1570 -0.2819  0.1708
59698SOL    HW186144   3.749   3.811   4.567 -1.2675  0.4220 -0.1179
59698SOL    HW286145   3.813   3.787   4.702  1.8312  1.7863 -1.2595
59699SOL     OW86146  11.453  11.390   5.496  0.5142  0.6125 -0.2018
59699SOL    HW186147  11.442  11.430   5.583  0.3586 -0.7474  0.4275
59699SOL    HW286148  11.464  11.297   5.514  0.8776  0.3618 -1.6327
59700SOL     OW86149   2.944   6.956   0.670  0.3350 -0.2679  0.3513
59700SOL    HW186150   2.963   6.986   0.582  1.6857  3.0773  1.6281
59700SOL    HW286151   3.030   6.940   0.709 -0.2324 -1.5200  1.1814
59701SOL     OW86152   7.010   3.643   7.802  0.2391  0.3587 -0.2499
59701SOL    HW186153   7.010   3.587   7.880 -0.5755  0.6269 -0.0540
59701SOL    HW286154   6.935   3.613   7.751 -1.4871  2.5501  0.8100
59702SOL     OW86155  11.842   7.732  12.075  0.1417  0.1559  0.3956
59702SOL    HW186156  11.853   7.822  12.046 -0.3723 -0.0300 -0.3984
59702SOL    HW286157  11.900   7.681  12.017  0.0200 -0.0807  0.4801
59703SOL     OW86158  11.817  10.364  10.093 -0.2739  0.1856  1.1140
59703SOL    HW186159  11.866  10.285  10.070  0.4154  0.6818  0.8492
59703SOL    HW286160  11.857  10.433  10.039 -2.2586  0.3349 -0.2829
59704SOL     OW86161   4.734   9.999   9.651 -0.0749  0.3524 -0.6692
59704SOL    HW186162   4.765   9.983   9.562 -1.9984  0.4686 -1.3906
59704SOL    HW286163   4.795   9.950   9.706 -0.2495 -1.7314 -2.1935
59705SOL     OW86164   8.877   1.878   5.519  0.1107 -0.2977 -0.5106
59705SOL    HW186165   8.796   1.900   5.565  0.5252  1.9450 -0.7327
59705SOL    HW286166   8.937   1.847   5.587 -0.6280 -1.1155 -0.2177
59706SOL     OW86167  12.551   6.753   1.047  0.3626 -0.7194  0.3345
59706SOL    HW186168  12.497   6.682   1.013 -1.1773 -0.4103  1.9735
59706SOL    HW286169  12.641   6.726   1.029 -0.2735 -1.8201 -1.4144
59707SOL     OW86170   9.628  10.314   0.579 -0.2255 -0.1953  0.2362
59707SOL    HW186171   9.567  10.379   0.544 -1.5003 -1.5949 -0.2796
59707SOL    HW286172   9.648  10.345   0.667  0.0962  1.4608 -0.3843
59708SOL     OW86173   2.250   8.703  12.054  0.3275 -0.0774 -0.7135
59708SOL    HW186174   2.268   8.774  11.992 -1.1204  1.8431  0.9409
59708SOL    HW286175   2.323   8.706  12.115  0.0307  0.3173 -0.3741
59709SOL     OW86176   9.430   3.592   2.921 -0.5082  0.3736  0.1607
59709SOL    HW186177   9.347   3.594   2.969  0.3369  1.6292  1.6697
59709SOL    HW286178   9.427   3.670   2.866 -0.6475  0.0003 -0.3629
59710SOL     OW86179  12.264  10.281   3.295  0.2088  0.0626  0.0254
59710SOL    HW186180  12.239  10.196   3.259  1.1967  0.2076 -1.0632
59710SOL    HW286181  12.308  10.260   3.378 -2.2577 -0.2609  1.3436
59711SOL     OW86182   1.221   7.848   8.450 -0.2311 -0.3166 -0.1843
59711SOL    HW186183   1.222   7.944   8.445  0.6117 -0.1238  2.2539
59711SOL    HW286184   1.133   7.824   8.420 -1.5698  1.5027  1.8909
59712SOL     OW86185   7.218   0.871  11.615  0.4574 -0.3656  0.2344
59712SOL    HW186186   7.151   0.881  11.682 -0.8347  2.3227 -1.2904
59712SOL    HW286187   7.284   0.937  11.636  0.7749 -0.4963 -0.3154
59713SOL     OW86188   5.985  11.202   3.564 -0.3643 -0.2302 -0.3285
59713SOL    HW186189   6.035  11.198   3.483  0.0765 -0.1742 -0.0637
59713SOL    HW286190   5.909  11.146   3.548 -0.4585  0.0515 -0.8974
59714SOL     OW86191  12.167   5.799   9.752 -0.0392  0.2805 -0.1360
59714SOL    HW186192  12.210   5.747   9.684  0.0139  0.3214 -0.1334
59714SOL    HW286193  12.082   5.758   9.763  0.7689 -1.1255  1.3475
59715SOL     OW86194   4.644   6.419   4.180 -0.8011 -0.4775  0.3946
59715SOL    HW186195   4.568   6.369   4.208  0.1320 -1.6431  0.9200
59715SOL    HW286196   4.716   6.356   4.180  0.0941  0.5012 -0.4761
59716SOL     OW86197   7.300   5.342   2.347  0.8009 -1.2741  0.9636
59716SOL    HW186198   7.211   5.351   2.379 -0.0395  0.7263 -1.5580
59716SOL    HW286199   7.294   5.279   2.275  0.7356  0.9759 -1.1161
59717SOL     OW86200   1.806   9.797   8.768 -0.0661 -0.2832 -0.3274
59717SOL    HW186201   1.881   9.767   8.717  1.1113  0.1121  1.0923
59717SOL    HW286202   1.822   9.890   8.782 -0.5780 -0.2952  0.3997
59718SOL     OW86203  11.355   6.632   5.035 -0.1715  0.0639 -0.1322
59718SOL    HW186204  11.443   6.605   5.059 -0.2530  0.7885  1.0707
59718SOL    HW286205  11.301   6.554   5.050  0.3097 -0.4946 -1.2419
59719SOL     OW86206   0.102  10.271   7.209 -0.0634  0.2788  0.4949
59719SOL    HW186207   0.061  10.317   7.282 -1.3693 -0.6785  0.3883
59719SOL    HW286208   0.196  10.281   7.225 -0.3090  1.9725  1.0829
59720SOL     OW86209  10.872   2.837   1.407  0.1948  0.0625  0.2466
59720SOL    HW186210  10.802   2.786   1.366  0.7061 -0.0588 -0.5036
59720SOL    HW286211  10.953   2.799   1.372  0.5844  1.5720 -0.6084
59721SOL     OW86212   6.256   6.572   8.450 -0.0563  0.1789 -0.0622
59721SOL    HW186213   6.257   6.477   8.436  0.4855  0.1516  0.1534
59721SOL    HW286214   6.294   6.608   8.370  0.7840  0.1504  0.3157
59722SOL     OW86215   8.839   1.719   8.791  0.2527  0.6131  0.8932
59722SOL    HW186216   8.806   1.783   8.728 -1.6380 -0.2402  0.9716
59722SOL    HW286217   8.906   1.767   8.841  1.3562  1.5044 -1.2924
59723SOL     OW86218   9.514   5.207   7.899 -0.5287 -0.3262  0.3111
59723SOL    HW186219   9.484   5.116   7.910  0.3325 -0.7107 -0.4626
59723SOL    HW286220   9.569   5.205   7.822 -1.4862  1.1126 -0.4531
59724SOL     OW86221  11.307   5.021   3.752 -0.2850 -0.3399 -0.4410
59724SOL    HW186222  11.325   5.085   3.821  0.7017 -1.4633  0.3875
59724SOL    HW286223  11.316   5.070   3.671 -1.4230  1.0113  0.1991
59725SOL     OW86224   1.765   1.947   7.004  0.3467 -0.1562  0.1940
59725SOL    HW186225   1.765   1.915   7.094  1.6637  0.4159  0.4216
59725SOL    HW286226   1.856   1.939   6.975  0.3943  1.7406 -0.3231
59726SOL     OW86227   3.083   9.363   2.373 -0.4825  0.1300 -0.0974
59726SOL    HW186228   3.056   9.282   2.329  0.1994 -0.2090  0.1036
59726SOL    HW286229   3.117   9.418   2.302 -3.1153  1.2306 -0.6473
59727SOL     OW86230   4.942   0.815   6.733  0.0900 -0.3165  0.1263
59727SOL    HW186231   4.943   0.768   6.649  0.7108 -1.1231  0.5762
59727SOL    HW286232   5.000   0.764   6.790  0.3801  0.7193  0.7843
59728SOL     OW86233   1.014   2.656  11.543  0.1371 -1.1322 -0.8118
59728SOL    HW186234   1.091   2.706  11.516 -0.6672 -0.3664 -1.7859
59728SOL    HW286235   0.976   2.708  11.614  0.1630 -1.1733 -0.7676
59729SOL     OW86236   9.703   7.374   1.363  0.6281 -0.4342  0.2459
59729SOL    HW186237   9.665   7.317   1.430  0.9607 -1.1166 -0.1401
59729SOL    HW286238   9.789   7.337   1.346  0.8273  0.1566 -0.0562
59730SOL     OW86239   9.869  11.401   9.348 -0.1468  0.4568  0.4052
59730SOL    HW186240   9.775  11.419   9.353 -0.8654 -2.2909 -1.0401
59730SOL    HW286241   9.883  11.328   9.407  0.1287 -1.9615 -2.4066
59731SOL     OW86242   4.707   7.820   4.857 -0.2173 -0.1199 -0.7301
59731SOL    HW186243   4.682   7.814   4.950 -1.1599  1.8199 -0.8149
59731SOL    HW286244   4.771   7.749   4.845 -0.8019 -1.0403  1.1443
59732SOL     OW86245   2.773   1.871  11.010 -0.0562 -0.8927  0.2330
59732SOL    HW186246   2.680   1.891  11.016  0.1158  0.0801 -0.2747
59732SOL    HW286247   2.817   1.955  11.015  0.7144 -1.1734 -1.2326
59733SOL     OW86248   3.665   0.026  11.103 -0.0061 -0.1629  0.3963
59733SOL    HW186249   3.759   0.032  11.123 -0.1257  1.3510  0.6365
59733SOL    HW286250   3.622   0.042  11.187 -0.4861 -0.9687  0.3115
59734SOL     OW86251   7.046  11.714   3.033 -0.3961  0.4451  0.5041
59734SOL    HW186252   7.110  11.751   2.972  0.2769 -0.2935  0.7564
59734SOL    HW286253   7.038  11.622   3.008  1.3186 -0.3919  2.6604
59735SOL     OW86254  10.469   1.910  12.276 -0.1410 -0.8274  0.1776
59735SOL    HW186255  10.415   1.989  12.282 -2.4062 -2.3580  1.8536
59735SOL    HW286256  10.540   1.925  12.338 -2.1266 -1.1151  2.7105
59736SOL     OW86257   1.665   5.693   6.793  0.3805  0.3370 -0.4606
59736SOL    HW186258   1.606   5.766   6.812 -0.2599  0.1992 -1.7934
59736SOL    HW286259   1.655   5.633   6.866  0.2169  1.1554  0.1972
59737SOL     OW86260   1.720  10.094   7.275  0.7763  0.1159  0.6145
59737SOL    HW186261   1.759  10.057   7.354  1.6986 -0.3289 -0.0394
59737SOL    HW286262   1.794  10.112   7.217  0.0270 -0.9868 -0.7524
59738SOL     OW86263   5.145   2.321   3.112  0.1290 -0.2574 -0.4033
59738SOL    HW186264   5.074   2.266   3.077  0.5325 -0.5473 -0.7733
59738SOL    HW286265   5.162   2.384   3.041  0.4563 -0.3894 -0.4432
59739SOL     OW86266   7.563   7.085   1.633  0.1962 -0.0070 -0.5999
59739SOL    HW186267   7.589   7.150   1.568 -0.5067 -0.8154 -1.7268
59739SOL    HW286268   7.485   7.122   1.675 -0.8090 -0.5170 -1.9411
59740SOL     OW86269   4.832  10.081   1.925 -0.1635 -0.1298 -0.5003
59740SOL    HW186270   4.814   9.988   1.941  1.4698 -0.5835 -1.0065
59740SOL    HW286271   4.872  10.082   1.837  1.6476  0.7551  0.2760
59741SOL     OW86272   9.017   6.370   9.413  0.1271  0.0784  0.7705
59741SOL    HW186273   9.060   6.424   9.479  0.9864  1.5479 -0.9118
59741SOL    HW286274   9.089   6.325   9.369 -0.1349  1.2625 -0.9594
59742SOL     OW86275   7.563   2.194   9.510  0.0373  0.2913  0.4455
59742SOL    HW186276   7.612   2.173   9.589 -0.2460 -1.5886  0.1717
59742SOL    HW286277   7.599   2.278   9.481  1.5164  0.0590  1.4907
59743SOL     OW86278  10.327  11.830   9.858 -0.0547 -0.6557  0.2943
59743SOL    HW186279  10.326  11.925   9.871 -0.3642 -0.2371 -2.3268
59743SOL    HW286280  10.281  11.795   9.935 -0.4833  1.3556  1.0083
59744SOL     OW86281  10.275  10.638   9.580  0.4446  0.2818  0.3868
59744SOL    HW186282  10.322  10.554   9.588  0.6927  0.3581 -0.2497
59744SOL    HW286283  10.306  10.689   9.655 -0.9797 -0.7905  1.7807
59745SOL     OW86284  10.360   2.559   9.302  0.6247  0.3171  0.9589
59745SOL    HW186285  10.369   2.506   9.381  0.6479 -0.4646  0.4316
59745SOL    HW286286  10.432   2.622   9.308 -0.8187  1.9195  2.8080
59746SOL     OW86287   2.479  10.581   9.248  0.1585 -0.2210 -0.2680
59746SOL    HW186288   2.477  10.551   9.157  1.8982  0.8740 -0.7197
59746SOL    HW286289   2.388  10.602   9.269 -0.1711  0.2597 -2.0314
59747SOL     OW86290   3.375   7.700   3.769  0.2785 -0.0077 -0.5327
59747SOL    HW186291   3.322   7.632   3.727  2.3252 -1.3955 -1.0264
59747SOL    HW286292   3.407   7.754   3.697  3.2287 -1.9742 -0.8454
59748SOL     OW86293   4.463  12.486   6.968 -0.3829  0.0952  0.2660
59748SOL    HW186294   4.420  12.552   6.914 -0.1739  0.4465  0.5229
59748SOL    HW286295   4.405  12.411   6.965 -1.4230  0.8236  1.2496
59749SOL     OW86296   8.074   4.878   6.662  0.0368 -0.6303  0.1063
59749SOL    HW186297   8.095   4.852   6.572 -0.0204 -2.1493  0.5075
59749SOL    HW286298   8.030   4.963   6.652 -0.8494 -1.2102 -1.3786
59750SOL     OW86299   0.437   6.936  12.499 -0.4446 -0.2089  0.3072
59750SOL    HW186300   0.393   6.927  12.415 -3.3552  2.6216  1.3029
59750SOL    HW286301   0.372   6.903  12.563  1.5013 -1.8778  1.5543
59751SOL     OW86302   9.721   8.725  12.017  0.2532  0.7044 -0.0437
59751SOL    HW186303   9.740   8.762  11.931  2.1382 -0.4060 -0.1415
59751SOL    HW286304   9.707   8.801  12.073  0.5797  1.4806 -0.9926
59752SOL     OW86305   8.388   3.191  10.736  0.2706 -0.0794 -0.1864
59752SOL    HW186306   8.462   3.176  10.795  0.1242 -0.9915 -0.2229
59752SOL    HW286307   8.325   3.123  10.759 -0.7579  0.9471  0.1464
59753SOL     OW86308   9.409  11.523  10.879  0.1249  0.4967  0.0346
59753SOL    HW186309   9.472  11.562  10.938  0.5294 -0.4398  0.2455
59753SOL    HW286310   9.342  11.486  10.937  0.3406 -0.1142 -0.1003
59754SOL     OW86311   3.129  12.177   3.933  0.5997 -0.3758  0.3797
59754SOL    HW186312   3.116  12.265   3.899 -0.7874  0.2463  2.4071
59754SOL    HW286313   3.225  12.169   3.941  0.9167 -0.0971 -2.2888
59755SOL     OW86314   5.036   6.834   5.717 -0.3942 -0.1314  0.2962
59755SOL    HW186315   4.951   6.877   5.709  0.2201  1.3361  1.2283
59755SOL    HW286316   5.067   6.823   5.627 -0.2377  2.1593  0.0028
59756SOL     OW86317   9.357   2.550   7.570  0.3653  0.2676  0.0833
59756SOL    HW186318   9.432   2.499   7.600 -0.8707 -0.9580  1.2049
59756SOL    HW286319   9.295   2.547   7.643 -1.4117 -0.0509 -1.3690
59757SOL     OW86320   6.799  12.432  12.461  0.6247 -0.4872 -0.1456
59757SOL    HW186321   6.786  12.363  12.525  0.7630  0.3890  0.8578
59757SOL    HW286322   6.712  12.446  12.423  0.4712 -0.7672  0.1011
59758SOL     OW86323   9.795   2.275   9.053 -0.5952  0.0735  0.1652
59758SOL    HW186324   9.775   2.182   9.038  0.6802 -0.1834 -0.0555
59758SOL    HW286325   9.840   2.276   9.138 -1.7077  0.6637  0.7675
59759SOL     OW86326   3.805  12.021   3.211 -1.1903 -0.0463  0.0166
59759SOL    HW186327   3.835  12.062   3.293 -0.6655 -2.1000  0.9170
59759SOL    HW286328   3.885  11.999   3.164 -1.4160 -1.0588  0.0953
59760SOL     OW86329   7.646   9.635  10.276 -0.3485 -0.5744  0.4888
59760SOL    HW186330   7.607   9.705  10.223 -0.5462 -0.8157  0.3153
59760SOL    HW286331   7.713   9.679  10.327 -0.2558 -0.3107  0.1459
59761SOL     OW86332   9.083   4.552  10.157  0.4417  0.4741  0.3275
59761SOL    HW186333   9.084   4.537  10.063 -0.2606  2.4912 -0.0432
59761SOL    HW286334   9.070   4.465  10.195  1.1988 -0.4431 -1.3878
59762SOL     OW86335   2.402   7.970  11.498  0.1326 -0.2245  0.1776
59762SOL    HW186336   2.454   7.900  11.539  0.8365 -0.1872 -0.6121
59762SOL    HW286337   2.334   7.923  11.450  0.1599 -0.3310  0.2400
59763SOL     OW86338   3.834   3.313   1.867  0.2471  0.1460 -0.0874
59763SOL    HW186339   3.768   3.247   1.892  0.4328  0.7395  2.1812
59763SOL    HW286340   3.799   3.353   1.787 -2.5108  0.8599  1.3512
59764SOL     OW86341   2.937   3.795   3.694  0.1735  0.0284  0.3033
59764SOL    HW186342   3.004   3.761   3.753 -0.2386 -0.6783  0.3737
59764SOL    HW286343   2.856   3.753   3.722 -0.9597  3.1435  2.2228
59765SOL     OW86344   8.795   4.093  10.168  0.0439 -0.0278  0.2856
59765SOL    HW186345   8.710   4.083  10.210  0.0125  1.5246  0.6731
59765SOL    HW286346   8.809   4.011  10.121 -2.0610  0.0203 -0.5207
59766SOL     OW86347   2.597   8.383   2.811 -0.5524 -0.4451  0.1774
59766SOL    HW186348   2.657   8.450   2.779  2.1642 -1.7988  2.0206
59766SOL    HW286349   2.580   8.328   2.734  0.7087 -0.0793 -0.3921
59767SOL     OW86350   0.401   0.563  11.589 -0.2754  0.0817  0.1067
59767SOL    HW186351   0.486   0.604  11.569 -0.7568  1.6410  1.0252
59767SOL    HW286352   0.403   0.550  11.684 -0.6551 -0.8927 -0.0075
59768SOL     OW86353  10.614   6.943   2.955 -0.6708 -0.0163 -0.3012
59768SOL    HW186354  10.698   6.962   2.996  0.0539 -0.4886 -1.4884
59768SOL    HW286355  10.615   6.848   2.941 -0.8889  0.1154 -1.3373
59769SOL     OW86356   5.648   8.014   4.485 -0.3087  0.1251  0.2526
59769SOL    HW186357   5.564   8.050   4.456 -0.3373  0.3086  0.5580
59769SOL    HW286358   5.712   8.050   4.423 -0.5011 -0.3447 -0.2371
59770SOL     OW86359   1.396   5.049   7.054  0.1217  0.5526  0.5175
59770SOL    HW186360   1.403   4.954   7.057 -0.8510  0.3970 -1.0210
59770SOL    HW286361   1.396   5.076   7.146  1.1030 -0.8615  0.9622
59771SOL     OW86362   1.651  10.680   8.766 -0.1746  0.2778 -0.0408
59771SOL    HW186363   1.718  10.747   8.776  0.1304  0.0830 -0.7344
59771SOL    HW286364   1.569  10.726   8.784 -0.0956  1.1735 -1.7634
59772SOL     OW86365   8.980   7.179   2.038  0.1820 -0.5284 -0.4176
59772SOL    HW186366   8.937   7.249   1.989  0.1505 -0.5637 -0.4403
59772SOL    HW286367   9.017   7.224   2.115 -1.8854 -0.8237  0.8433
59773SOL     OW86368  10.327   4.277   8.202 -0.5820 -0.1213 -0.1326
59773SOL    HW186369  10.258   4.275   8.136 -1.5511 -0.3892  0.8605
59773SOL    HW286370  10.355   4.186   8.210  1.6499  0.2840 -2.2826
59774SOL     OW86371   5.769  10.254   9.336 -0.3059  0.0118  0.3429
59774SOL    HW186372   5.847  10.283   9.384  0.5238 -2.5507  0.7018
59774SOL    HW286373   5.711  10.220   9.403  0.4853 -2.7791 -0.2459
59775SOL     OW86374   8.158  10.017  11.432 -0.1206 -0.1619  0.0602
59775SOL    HW186375   8.242   9.993  11.472 -1.0125 -0.4131  1.8992
59775SOL    HW286376   8.153   9.962  11.354  1.4161 -0.1390 -0.0970
59776SOL     OW86377   8.685   0.728   4.619 -0.7119  0.2995  0.5926
59776SOL    HW186378   8.654   0.746   4.530 -0.7597  1.1656  0.7751
59776SOL    HW286379   8.776   0.757   4.619 -0.8783  0.8304  0.9822
59777SOL     OW86380   2.097   1.432   4.581 -0.1191  0.3325 -0.2177
59777SOL    HW186381   2.038   1.368   4.541  0.8969 -0.7246 -0.0450
59777SOL    HW286382   2.038   1.503   4.609 -1.0502  0.3648 -2.0646
59778SOL     OW86383   8.650   3.029   1.339 -0.0822 -0.4674  0.5161
59778SOL    HW186384   8.734   3.028   1.385 -0.4345 -1.0099  1.1680
59778SOL    HW286385   8.601   2.956   1.377  0.0077 -1.6421 -1.4558
59779SOL     OW86386   6.784  10.885   7.346 -0.4086 -0.4445 -0.2984
59779SOL    HW186387   6.865  10.875   7.297  0.2006 -0.7318  0.7469
59779SOL    HW286388   6.797  10.964   7.399 -0.5903 -0.8148  0.3017
59780SOL     OW86389  10.398   8.399   1.011 -0.1880  0.5217 -0.7435
59780SOL    HW186390  10.456   8.328   1.038  1.1375  1.0569 -2.0436
59780SOL    HW286391  10.408   8.466   1.079 -1.4182 -0.4699  0.4683
59781SOL     OW86392   4.433   7.897   5.088  0.1212  0.0142  0.0112
59781SOL    HW186393   4.378   7.957   5.138 -0.4484  0.1610 -0.7758
59781SOL    HW286394   4.376   7.865   5.018  0.6876 -0.7481 -0.1106
59782SOL     OW86395   5.716  11.119   3.489 -0.1748  0.0215 -0.3657
59782SOL    HW186396   5.724  11.213   3.472 -0.1553  0.0519 -0.1852
59782SOL    HW286397   5.691  11.081   3.405 -1.9713  0.4190 -0.0572
59783SOL     OW86398   2.205  12.104   3.373  0.0310  0.4678  0.2861
59783SOL    HW186399   2.115  12.077   3.390  0.7081 -1.4972  1.0652
59783SOL    HW286400   2.212  12.106   3.277 -0.9070  0.9433  0.2166
59784SOL     OW86401  11.900  10.591   7.320  0.0002 -0.1269 -0.4945
59784SOL    HW186402  11.965  10.564   7.385  0.8103 -1.6972 -1.8774
59784SOL    HW286403  11.843  10.514   7.310 -1.5406  0.9076  0.0129
59785SOL     OW86404   3.711   1.288   4.327 -0.6013  0.0823  0.4220
59785SOL    HW186405   3.683   1.199   4.305  0.0716 -0.5085  1.8364
59785SOL    HW286406   3.641   1.324   4.380 -0.6802  0.2485  0.2082
59786SOL     OW86407  12.228   0.897   3.704  0.2788 -0.0467  0.3506
59786SOL    HW186408  12.206   0.990   3.713  1.5854  0.4729 -1.2910
59786SOL    HW286409  12.148   0.856   3.672 -1.0602  0.0026  3.3332
59787SOL     OW86410  12.484   8.277  11.250 -0.1406 -0.2826 -0.5283
59787SOL    HW186411  12.539   8.353  11.232 -0.6224 -0.0218 -0.8858
59787SOL    HW286412  12.471   8.236  11.164  0.8965 -1.3126 -0.2285
59788SOL     OW86413   5.569   5.658   2.169 -0.3759 -0.4873  0.0637
59788SOL    HW186414   5.482   5.693   2.190 -0.6193 -0.6678 -0.6454
59788SOL    HW286415   5.627   5.734   2.180 -0.7457 -0.1390 -0.3435
59789SOL     OW86416   6.853   0.067   4.289 -0.5761 -0.0302  0.3031
59789SOL    HW186417   6.933   0.116   4.308 -1.7404  3.0813 -1.9549
59789SOL    HW286418   6.857   0.049   4.196 -3.0396  1.4852 -0.1800
59790SOL     OW86419   4.393   9.329   2.423 -0.4808 -0.3235  0.0792
59790SOL    HW186420   4.310   9.350   2.466 -0.4389  2.5264 -0.9819
59790SOL    HW286421   4.390   9.377   2.341  2.0810 -0.4151 -0.1538
59791SOL     OW86422   6.939  10.274   9.319 -0.6451  0.5189  0.8346
59791SOL    HW186423   6.875  10.276   9.390 -2.0826  0.9045 -0.3994
59791SOL    HW286424   6.894  10.318   9.247  1.2212  1.2270  0.0615
59792SOL     OW86425  11.110   4.615   3.282 -0.4154 -0.2179 -0.3224
59792SOL    HW186426  11.049   4.543   3.297 -1.7993  0.9876  0.0730
59792SOL    HW286427  11.087   4.649   3.196 -1.0019  0.8501  0.2235
59793SOL     OW86428   4.099  11.829   2.268 -0.3188  0.5452 -0.2280
59793SOL    HW186429   4.104  11.837   2.363 -1.8799  0.8212 -0.1370
59793SOL    HW286430   4.157  11.898   2.235 -0.7654  1.3087  0.5359
59794SOL     OW86431   1.857   1.407   8.074 -0.0172  0.2183 -0.7548
59794SOL    HW186432   1.928   1.391   8.011  0.4644  0.9575 -0.4221
59794SOL    HW286433   1.901   1.449   8.149 -0.7852  0.5633 -0.4868
59795SOL     OW86434   1.339  11.363  11.503  0.0353 -0.6877 -0.0537
59795SOL    HW186435   1.381  11.440  11.466  0.8193 -0.7144  0.7569
59795SOL    HW286436   1.247  11.388  11.512 -0.4276 -0.9897 -2.8196
59796SOL     OW86437   8.453  11.417  10.051 -0.1918  0.4578 -0.6841
59796SOL    HW186438   8.507  11.391   9.977  1.4327  1.4134  0.1221
59796SOL    HW286439   8.469  11.510  10.061 -1.0036  0.5011  0.4033
59797SOL     OW86440  10.750  10.443   1.991  0.2353  0.1709  0.0342
59797SOL    HW186441  10.700  10.434   2.072 -0.1012 -1.6897 -0.3548
59797SOL    HW286442  10.752  10.538   1.976 -1.2995  0.4418  1.2119
59798SOL     OW86443   4.704   5.689   2.158 -0.4462 -0.0884 -0.2248
59798SOL    HW186444   4.658   5.772   2.172  0.3718  0.8525 -2.5712
59798SOL    HW286445   4.666   5.654   2.077  0.5208 -1.0483 -0.2829
59799SOL     OW86446   4.714  12.593   3.419  0.1675 -0.0893  0.0699
59799SOL    HW186447   4.622  12.609   3.400  0.4109 -0.0427 -1.1939
59799SOL    HW286448   4.723  12.497   3.416  0.3987 -0.0426 -1.1174
59800SOL     OW86449   3.110   5.018   1.019  0.1462  0.1152 -0.4944
59800SOL    HW186450   3.137   4.959   1.089 -1.1948 -0.4685 -0.4272
59800SOL    HW286451   3.134   5.105   1.050 -1.7308  0.0451  1.4406
59801SOL     OW86452   9.497   2.243   5.635  0.2529  0.2310 -0.1972
59801SOL    HW186453   9.590   2.222   5.635  0.4229  0.8394  1.7935
59801SOL    HW286454   9.454   2.160   5.656  0.2174 -0.3154 -2.2081
59802SOL     OW86455   0.949   7.409  10.092  0.7003 -0.1390 -0.2726
59802SOL    HW186456   0.988   7.496  10.092  0.9801 -0.2637 -0.0488
59802SOL    HW286457   0.965   7.376  10.003 -1.7135  1.0500 -1.2259
59803SOL     OW86458   9.741   5.682  10.494  0.3661 -0.6264  0.5067
59803SOL    HW186459   9.788   5.761  10.468  0.6064 -0.6142  0.9531
59803SOL    HW286460   9.809   5.627  10.533  0.0270 -0.6544  1.0649
59804SOL     OW86461   0.854   9.788   3.650 -0.3239  0.1005 -0.0019
59804SOL    HW186462   0.913   9.778   3.576  1.0134  0.3254  1.0028
59804SOL    HW286463   0.849   9.882   3.665 -1.1365  0.1015 -0.2137
59805SOL     OW86464  11.053  12.483   9.903 -0.3724  0.1575 -0.7672
59805SOL    HW186465  11.087  12.422   9.837 -0.5706 -1.4837  0.5914
59805SOL    HW286466  11.116  12.555   9.903  1.9676 -1.7715  0.1529
59806SOL     OW86467   3.133   8.044   1.412 -0.2843 -0.3188 -0.4513
59806SOL    HW186468   3.107   7.960   1.449  0.5577 -0.4512 -0.1223
59806SOL    HW286469   3.215   8.066   1.457 -0.0095  0.2279 -1.1823
59807SOL     OW86470   7.914   8.224   2.963 -0.4968  0.4975 -0.3596
59807SOL    HW186471   7.988   8.167   2.942  0.1615  1.7787 -1.8041
59807SOL    HW286472   7.849   8.167   3.002 -0.8208 -1.7895 -3.7741
59808SOL     OW86473  11.065   2.578   5.825  0.3079 -0.2355 -0.3168
59808SOL    HW186474  11.000   2.521   5.783  1.5787 -1.3398 -0.8576
59808SOL    HW286475  11.039   2.667   5.801 -0.6016 -0.6946 -1.0944
59809SOL     OW86476  12.042  10.128   5.702 -0.1135 -0.2473  0.0672
59809SOL    HW186477  12.037  10.083   5.786 -0.3884  2.5432  1.6801
59809SOL    HW286478  12.113  10.192   5.713 -0.4161  0.4544 -1.6758
59810SOL     OW86479   1.250   9.849   6.298  0.1717 -0.4751  0.0446
59810SOL    HW186480   1.303   9.818   6.224  0.2964 -2.4629  0.9106
59810SOL    HW286481   1.254   9.944   6.291  3.3446 -0.5164 -0.3108
59811SOL     OW86482   4.799   9.950   9.389 -0.5678 -0.9968 -0.0662
59811SOL    HW186483   4.709   9.974   9.365  0.0625 -0.6009 -2.2643
59811SOL    HW286484   4.847   9.949   9.306  1.9964  1.0802  1.2267
59812SOL     OW86485   5.970  11.138   4.513 -0.6670 -0.0363  0.0268
59812SOL    HW186486   6.019  11.059   4.538 -1.4429  0.1074  2.1953
59812SOL    HW286487   5.914  11.109   4.440  1.0168 -0.7441 -1.0480
59813SOL     OW86488   6.454  10.130  11.863 -0.0146  0.3632  0.1032
59813SOL    HW186489   6.440  10.117  11.956  0.7494 -1.3257  0.0036
59813SOL    HW286490   6.394  10.070  11.820  1.5886 -0.9634 -0.4136
59814SOL     OW86491   3.491   3.989   3.339 -0.1018  0.0551 -0.6887
59814SOL    HW186492   3.430   3.928   3.298 -1.1240  0.3998  0.2786
59814SOL    HW286493   3.554   3.934   3.385 -1.4552 -0.3045  0.8100
59815SOL     OW86494  12.209   6.524  10.968  0.6053  0.3883 -0.1970
59815SOL    HW186495  12.230   6.473  11.046  1.9976 -1.2116 -1.5203
59815SOL    HW286496  12.119   6.500  10.947  0.3396  0.5638  0.7010
59816SOL     OW86497   1.899  10.421   8.308  0.3364  0.0706 -0.6916
59816SOL    HW186498   1.990  10.401   8.331 -0.5842 -2.4559  1.2608
59816SOL    HW286499   1.886  10.376   8.224 -0.0722 -3.0727  0.8984
59817SOL     OW86500   6.908   7.161   4.169 -0.2067  0.3235  0.1731
59817SOL    HW186501   6.995   7.201   4.167 -0.4358  0.8104 -1.4363
59817SOL    HW286502   6.857   7.219   4.226 -0.2925  1.8883 -1.4187
59818SOL     OW86503   3.543   4.678   9.600 -0.0191 -0.1150 -0.3323
59818SOL    HW186504   3.562   4.584   9.598 -0.9875 -0.3910  1.5673
59818SOL    HW286505   3.628   4.720   9.589  0.4905 -1.2043 -0.7258
59819SOL     OW86506  11.367   0.145   0.126 -0.5535 -0.3650  0.1402
59819SOL    HW186507  11.380   0.239   0.119 -0.1105 -0.3752  0.6704
59819SOL    HW286508  11.423   0.119   0.199  0.0083 -1.1672 -0.5469
59820SOL     OW86509  10.853   6.217   4.634  0.3929 -0.0292 -0.0801
59820SOL    HW186510  10.912   6.292   4.648 -0.7599  0.9015 -0.0199
59820SOL    HW286511  10.906   6.153   4.587  2.0510 -0.0631  1.7263
59821SOL     OW86512   4.556   2.642   7.009 -0.0441 -0.1837 -0.0344
59821SOL    HW186513   4.554   2.551   7.038 -0.2968 -0.3313 -0.4970
59821SOL    HW286514   4.601   2.640   6.925 -1.2526 -0.0838 -0.7068
59822SOL     OW86515   9.399   2.998  11.292  0.5413 -0.4107 -1.2641
59822SOL    HW186516   9.472   2.957  11.339 -0.2668 -1.7192 -1.1149
59822SOL    HW286517   9.439   3.073  11.248  1.2076  1.4436  2.1517
59823SOL     OW86518  11.092   5.941   1.509  0.2733 -0.3352 -0.0717
59823SOL    HW186519  11.124   6.019   1.554 -1.8931  0.1259  0.7663
59823SOL    HW286520  11.017   5.912   1.561 -0.0048 -1.9803 -1.3232
59824SOL     OW86521  11.843   3.519   4.539 -0.0697 -0.4029  0.1569
59824SOL    HW186522  11.894   3.439   4.548 -1.9229 -1.5659  1.0009
59824SOL    HW286523  11.752   3.490   4.541 -0.8321  1.7828  1.5205
59825SOL     OW86524  11.739   7.781   0.169 -0.4285 -0.1446 -0.2836
59825SOL    HW186525  11.812   7.789   0.107 -0.7105  0.5747 -0.5359
59825SOL    HW286526  11.754   7.852   0.232 -0.1914 -0.8131  0.4335
59826SOL     OW86527   4.060   3.743   1.431  0.4754 -0.9433  0.3042
59826SOL    HW186528   4.054   3.690   1.351  0.8391 -2.8245  1.4412
59826SOL    HW286529   4.000   3.699   1.492  1.0180 -0.1997  1.3909
59827SOL     OW86530   7.491   4.479   6.697 -0.3601 -0.1421  0.3016
59827SOL    HW186531   7.576   4.438   6.712 -0.9002 -1.6829 -0.5696
59827SOL    HW286532   7.427   4.417   6.734 -1.2587 -0.6370 -1.8985
59828SOL     OW86533   1.883   6.498   5.206 -0.0911  0.5787 -0.3100
59828SOL    HW186534   1.938   6.462   5.137  1.4504  3.3238 -0.6923
59828SOL    HW286535   1.803   6.526   5.161 -0.9941 -1.5228 -0.1244
59829SOL     OW86536   3.982  10.067   4.257  0.4111  0.3157  0.0394
59829SOL    HW186537   3.998  10.012   4.334  0.8104  0.2669 -0.0755
59829SOL    HW286538   4.069  10.088   4.224  0.2400  0.0355 -0.6121
59830SOL     OW86539   9.551  10.504   0.991  0.5795 -0.6048 -0.4077
59830SOL    HW186540   9.621  10.517   0.928  1.0420  0.1352  0.2403
59830SOL    HW286541   9.471  10.501   0.938  0.6076  2.9208 -0.8769
59831SOL     OW86542  10.556   5.775   6.547 -0.2957 -0.4187  0.1773
59831SOL    HW186543  10.512   5.812   6.623 -0.8626 -1.2114  0.2522
59831SOL    HW286544  10.633   5.731   6.584 -1.2294 -1.8751  0.4781
59832SOL     OW86545  10.318  11.950   4.717 -0.2115 -0.1506  0.6231
59832SOL    HW186546  10.411  11.965   4.699 -0.3542  0.2908  0.2189
59832SOL    HW286547  10.317  11.897   4.797  0.3777  0.1078  0.8097
59833SOL     OW86548   5.708   4.653   0.715 -0.0998 -0.3834 -0.4069
59833SOL    HW186549   5.749   4.732   0.750  1.2024 -0.9243 -0.6758
59833SOL    HW286550   5.741   4.582   0.770 -1.3534 -0.7567 -0.0903
59834SOL     OW86551   4.543   4.572   3.033 -0.9482 -0.3063  0.7144
59834SOL    HW186552   4.580   4.653   2.998  0.0170 -1.1597 -0.3377
59834SOL    HW286553   4.489   4.600   3.107 -0.6527  1.2863  0.3692
59835SOL     OW86554  10.407   4.327  11.912  0.1367 -0.0159 -0.3290
59835SOL    HW186555  10.434   4.348  11.823 -0.1092 -0.9474 -0.6310
59835SOL    HW286556  10.437   4.237  11.926  0.1218  0.1018  0.5059
59836SOL     OW86557   4.738   8.365   2.814  0.3347  0.6829 -0.4288
59836SOL    HW186558   4.796   8.411   2.875 -0.0886  2.2953 -1.1752
59836SOL    HW286559   4.775   8.277   2.807  0.0606  0.2234  2.5739
59837SOL     OW86560   4.577   5.898  12.592  0.2918 -0.4839 -0.0244
59837SOL    HW186561   4.656   5.951  12.605  1.2147 -1.1158 -2.5489
59837SOL    HW286562   4.505   5.958  12.612  1.3592  0.5573  0.8715
59838SOL     OW86563   6.302   3.435   1.719  0.0695 -0.3404  0.3132
59838SOL    HW186564   6.345   3.431   1.634  2.6309  0.6241  1.4562
59838SOL    HW286565   6.264   3.348   1.732  0.2435 -0.7103 -1.4660
59839SOL     OW86566  10.966  12.135   9.679  0.1806 -0.4282 -0.5192
59839SOL    HW186567  11.050  12.152   9.722  0.0511 -1.7031  0.3200
59839SOL    HW286568  10.963  12.196   9.606  1.3759  0.3496  0.0488
59840SOL     OW86569  10.998   1.484   3.669 -0.5250  0.5537 -0.1764
59840SOL    HW186570  11.036   1.457   3.752  1.6533  0.1499 -1.2107
59840SOL    HW286571  10.911   1.445   3.667  0.0987 -0.9752  1.1258
59841SOL     OW86572   1.672   6.048   4.761 -0.2626  0.0853 -0.2912
59841SOL    HW186573   1.720   6.048   4.844 -0.7670 -1.3485  0.0171
59841SOL    HW286574   1.740   6.062   4.695  0.1161  1.4543  0.3437
59842SOL     OW86575   4.498   8.773   0.961  0.3523  0.2579  0.4591
59842SOL    HW186576   4.577   8.720   0.949  0.6445  0.7379  0.2144
59842SOL    HW286577   4.435   8.736   0.900  0.8455  0.7502 -0.3704
59843SOL     OW86578  10.820   4.401   7.836 -0.1619  0.4519  0.5476
59843SOL    HW186579  10.821   4.321   7.784  2.4940 -0.3932  1.7255
59843SOL    HW286580  10.742   4.393   7.892 -0.1862 -1.0718  0.3235
59844SOL     OW86581   6.892  10.949   0.161  0.2614  0.0668  0.1484
59844SOL    HW186582   6.827  10.973   0.094 -1.3817  0.3940  1.7846
59844SOL    HW286583   6.935  11.031   0.183 -0.3869  0.2782  0.6699
59845SOL     OW86584   3.661   7.592   1.711  0.0167  0.5907 -0.2948
59845SOL    HW186585   3.736   7.616   1.657  0.9563 -0.0389  0.6826
59845SOL    HW286586   3.698   7.541   1.783 -1.6818 -2.6063 -1.4884
59846SOL     OW86587   4.477   0.352  10.426  0.1522 -0.4152  0.5622
59846SOL    HW186588   4.504   0.270  10.467 -0.8401 -1.2419 -0.3826
59846SOL    HW286589   4.416   0.391  10.489 -0.3453 -1.0276  0.4659
59847SOL     OW86590   5.641   2.299   4.831 -0.1787  0.3721  0.2064
59847SOL    HW186591   5.673   2.386   4.807  0.3672  0.4044  0.9949
59847SOL    HW286592   5.550   2.313   4.856 -0.6588  0.3922 -1.4361
59848SOL     OW86593   2.520   1.075   8.657  0.4480  0.2436 -0.4754
59848SOL    HW186594   2.509   1.109   8.746  0.8168  0.2659 -0.4360
59848SOL    HW286595   2.435   1.037   8.635  0.3511  0.2482 -0.1169
59849SOL     OW86596   3.235   3.339   6.138  0.5744  0.3325  0.0686
59849SOL    HW186597   3.281   3.255   6.139 -1.0420 -0.6000 -0.3570
59849SOL    HW286598   3.234   3.367   6.230  0.7763 -0.3021  0.2669
59850SOL     OW86599   5.756   6.449   9.252 -0.2777 -0.7651 -0.1660
59850SOL    HW186600   5.830   6.509   9.265 -0.3267 -0.4229 -1.3223
59850SOL    HW286601   5.786   6.390   9.182 -1.0522 -0.7126 -0.5433
59851SOL     OW86602   0.578  12.172   6.073  0.1597 -0.5434 -0.3415
59851SOL    HW186603   0.524  12.206   6.144  1.2256 -0.2589  0.3490
59851SOL    HW286604   0.668  12.179   6.105  0.5639 -1.8604 -1.0986
59852SOL     OW86605  12.146  10.712  12.483 -0.5807  0.1441 -0.2994
59852SOL    HW186606  12.227  10.718  12.431 -1.1698 -1.1073 -1.4174
59852SOL    HW286607  12.163  10.766  12.560  0.8819  0.8681 -1.0862
59853SOL     OW86608   2.290   2.600   5.093 -0.2388  0.3642 -0.1333
59853SOL    HW186609   2.262   2.568   5.178 -0.6793 -0.1082 -0.4526
59853SOL    HW286610   2.358   2.664   5.113 -2.0539  2.1446  0.7291
59854SOL     OW86611  12.418  10.063   7.647 -0.3732 -0.5603 -0.4260
59854SOL    HW186612  12.382  10.151   7.639  1.3697  0.0840 -2.2198
59854SOL    HW286613  12.489  10.072   7.711  0.0539 -0.5334 -0.8892
59855SOL     OW86614   3.500  10.483   1.684 -0.1527  0.0589  0.3790
59855SOL    HW186615   3.456  10.444   1.609  1.8153  0.1028 -0.8564
59855SOL    HW286616   3.536  10.565   1.652  3.5460 -1.3917  0.2950
59856SOL     OW86617   1.054  11.969   1.666 -0.2196  0.2344 -0.0513
59856SOL    HW186618   1.049  11.887   1.715  0.0270  0.0678 -0.3015
59856SOL    HW286619   1.143  12.001   1.681  1.0371 -1.4752 -2.9867
59857SOL     OW86620  10.785  10.895   3.309 -0.2062  0.0659  0.0316
59857SOL    HW186621  10.867  10.915   3.265 -0.9907  0.6592 -1.1964
59857SOL    HW286622  10.789  10.944   3.391  0.5141  0.3542 -0.1755
59858SOL     OW86623   8.924   8.163  11.352 -0.0222  0.5171  0.3247
59858SOL    HW186624   8.880   8.078  11.342 -1.9676  1.3558  1.2381
59858SOL    HW286625   8.874   8.208  11.420  0.3201  2.7899 -0.8294
59859SOL     OW86626   8.175   8.203   9.848  0.8102 -0.2132  0.5754
59859SOL    HW186627   8.252   8.221   9.902  0.1805  0.3779  1.3082
59859SOL    HW286628   8.104   8.191   9.912  0.3919 -1.2924 -0.0616
59860SOL     OW86629  11.001   6.197   5.715 -0.2418 -0.5036  0.1545
59860SOL    HW186630  10.950   6.251   5.775 -2.9010 -3.3762  0.7078
59860SOL    HW286631  11.079   6.173   5.765  0.2821  1.5458  0.3916
59861SOL     OW86632   0.069   2.350   8.914 -0.4765 -0.3720 -0.1850
59861SOL    HW186633   0.002   2.296   8.872 -0.9528  0.1182 -0.0674
59861SOL    HW286634   0.049   2.439   8.886  0.0447 -0.2047 -0.0343
59862SOL     OW86635  11.958   5.718   8.855 -0.1102 -0.4442 -0.3328
59862SOL    HW186636  11.866   5.735   8.874 -0.3313 -1.1517 -0.7276
59862SOL    HW286637  11.959   5.630   8.818  0.8964 -1.0886  1.1235
59863SOL     OW86638   9.047   3.203   7.986  0.4548 -0.1987 -0.6249
59863SOL    HW186639   9.069   3.260   8.060 -2.6767  0.1020  0.2124
59863SOL    HW286640   9.047   3.115   8.024  0.0751 -0.1743 -0.5635
59864SOL     OW86641   5.109   8.692   1.264  0.1557 -0.2612 -0.0434
59864SOL    HW186642   5.128   8.600   1.246 -1.7729 -0.4787 -1.1964
59864SOL    HW286643   5.059   8.722   1.188  1.8924  2.1535 -0.3588
59865SOL     OW86644   8.935   5.001  10.473 -0.8565 -0.1857 -0.2318
59865SOL    HW186645   8.850   4.968  10.504 -1.7598  1.2703 -1.0203
59865SOL    HW286646   8.924   5.008  10.378  0.2854 -0.3438 -0.3810
59866SOL     OW86647   1.733  11.549  11.747 -0.3173  0.4119  0.4812
59866SOL    HW186648   1.811  11.582  11.703 -0.0012 -1.2955 -0.3146
59866SOL    HW286649   1.661  11.572  11.687 -0.0398 -0.7367 -0.3262
59867SOL     OW86650   9.217   0.760   2.331  0.0287 -0.7156 -0.0909
59867SOL    HW186651   9.191   0.850   2.309  1.1272 -0.7492 -1.7780
59867SOL    HW286652   9.249   0.724   2.248  1.6612 -1.9464  1.0037
59868SOL     OW86653   0.075   9.934   5.881  0.0432  0.0968 -0.2022
59868SOL    HW186654   0.162   9.894   5.878  0.5056  0.5968  2.8923
59868SOL    HW286655   0.092  10.026   5.900 -1.1442  0.2414  0.2303
59869SOL     OW86656   7.790   3.648   1.131  0.0128 -0.0428 -0.2664
59869SOL    HW186657   7.823   3.735   1.105 -0.2377  0.2702  0.4351
59869SOL    HW286658   7.702   3.665   1.165  0.5042 -0.3500  1.2330
59870SOL     OW86659   3.633  12.194   4.590 -0.8531 -0.1856 -0.4692
59870SOL    HW186660   3.690  12.121   4.616 -1.8396 -0.8344 -0.0661
59870SOL    HW286661   3.591  12.221   4.671  0.3435  1.6358 -0.3876
59871SOL     OW86662   4.292   0.609  11.908  0.0142  0.5238 -0.2470
59871SOL    HW186663   4.234   0.594  11.834 -0.8935 -1.1823  0.7509
59871SOL    HW286664   4.343   0.529  11.916 -1.7957 -0.5021  2.5518
59872SOL     OW86665   8.315   3.268   0.942 -0.6929  0.2433 -0.5938
59872SOL    HW186666   8.400   3.265   0.987 -1.4716  0.6693  1.0036
59872SOL    HW286667   8.287   3.359   0.952 -1.2705  0.1374 -1.2440
59873SOL     OW86668   2.174  10.220   1.210 -0.4022  0.1998 -0.0123
59873SOL    HW186669   2.148  10.296   1.158 -1.6126  0.0177  0.2847
59873SOL    HW286670   2.108  10.154   1.190  1.4952 -1.3555 -1.4701
59874SOL     OW86671   9.608   2.100   9.864 -0.0049  0.3850  0.4661
59874SOL    HW186672   9.554   2.157   9.918 -0.4325  1.1239 -0.7092
59874SOL    HW286673   9.599   2.013   9.904 -1.0401  0.7322  1.0244
59875SOL     OW86674   6.514   9.403   1.952  0.0999 -0.1637  0.9164
59875SOL    HW186675   6.419   9.402   1.941  0.1323  1.9191 -0.1183
59875SOL    HW286676   6.547   9.365   1.871  0.1505 -0.3304  1.0160
59876SOL     OW86677   7.557   3.066   6.884  0.8838  0.6410 -0.2442
59876SOL    HW186678   7.537   3.061   6.791 -0.3091 -0.3129  0.0239
59876SOL    HW286679   7.554   2.975   6.914 -0.2068  1.0353  0.9855
59877SOL     OW86680  11.283  11.194   4.003 -0.1423 -0.1142 -0.1836
59877SOL    HW186681  11.311  11.272   4.050  1.4836 -1.5483  1.3620
59877SOL    HW286682  11.365  11.151   3.978 -0.9690 -2.0923  0.3504
59878SOL     OW86683   8.227   8.260   7.775  0.1590 -0.8573  0.0470
59878SOL    HW186684   8.267   8.324   7.835  1.2657 -2.4368  1.0846
59878SOL    HW286685   8.282   8.263   7.697 -1.2164  1.1238 -0.9319
59879SOL     OW86686  11.396   9.658  12.519  0.7529 -1.0476 -0.2769
59879SOL    HW186687  11.332   9.653  12.448  0.6436  2.5425 -0.5757
59879SOL    HW286688  11.343   9.647  12.599  0.0854 -0.3551 -0.6086
59880SOL     OW86689   8.874   8.035   0.896 -0.2646  0.9281  0.0404
59880SOL    HW186690   8.937   7.984   0.846  0.8869  2.6353 -0.3167
59880SOL    HW286691   8.894   8.016   0.988 -0.8464 -0.3810 -0.0736
59881SOL     OW86692   8.380  10.975   9.331 -0.0806  0.0927 -0.1527
59881SOL    HW186693   8.351  10.905   9.390 -0.1164  1.0809  1.0412
59881SOL    HW286694   8.309  10.985   9.268  0.1435 -1.2693 -0.6546
59882SOL     OW86695   7.183   5.193  12.496 -0.1870  0.6204 -0.2288
59882SOL    HW186696   7.256   5.241  12.535  0.3756  0.1139 -0.6478
59882SOL    HW286697   7.128   5.169  12.571 -0.3657  1.7048  0.0099
59883SOL     OW86698  12.065   2.955   8.849  0.1441 -0.1959 -0.2284
59883SOL    HW186699  12.012   3.030   8.873  0.5825  0.8760 -2.4161
59883SOL    HW286700  12.074   2.905   8.931 -1.9858  0.9372  0.7716
59884SOL     OW86701   7.900  10.332  10.690  0.7817  0.0415 -0.2291
59884SOL    HW186702   7.993  10.312  10.684  0.8084  0.2783 -0.6440
59884SOL    HW286703   7.858  10.248  10.709  1.0970 -0.0337  0.1315
59885SOL     OW86704   3.798   4.866   1.443  0.2600  0.0390  0.4291
59885SOL    HW186705   3.842   4.897   1.522 -1.1758  1.5732  0.6876
59885SOL    HW286706   3.838   4.916   1.371 -0.0240  0.3555  0.4868
59886SOL     OW86707   9.022   4.891  12.175 -0.3918  0.6108 -0.0698
59886SOL    HW186708   8.971   4.830  12.122  0.9492  0.6507 -1.4757
59886SOL    HW286709   8.992   4.876  12.265  0.2059 -2.4680 -0.2897
59887SOL     OW86710   0.177   7.902   7.748 -0.0391  0.1022  0.1279
59887SOL    HW186711   0.182   7.987   7.791  0.4326  0.7701 -1.1916
59887SOL    HW286712   0.115   7.851   7.801 -0.6113  1.3871  0.7228
59888SOL     OW86713   4.995  10.045   3.839 -0.0004  0.0559 -0.5504
59888SOL    HW186714   4.945  10.125   3.854  0.5819  0.7061 -1.9164
59888SOL    HW286715   4.956  10.007   3.761  1.4872  0.4831 -1.5377
59889SOL     OW86716   7.921   8.396   0.172  0.6805  0.1688  0.1619
59889SOL    HW186717   7.896   8.488   0.185 -0.5275 -0.2435  0.9701
59889SOL    HW286718   7.946   8.365   0.260 -2.1315 -1.1322  0.6283
59890SOL     OW86719   9.939  12.301  11.377 -0.3932  0.3117  0.6581
59890SOL    HW186720  10.009  12.323  11.316 -0.2578 -1.4954  0.1165
59890SOL    HW286721   9.859  12.333  11.334 -0.3143 -1.0406 -0.5743
59891SOL     OW86722   1.048  12.574  10.985 -0.3991  0.4095 -0.2766
59891SOL    HW186723   1.121  12.515  11.005 -0.6704 -0.0333 -0.5608
59891SOL    HW286724   1.079  12.627  10.912 -0.1674  0.5921 -0.0458
59892SOL     OW86725   8.021   7.647   1.609  0.4500  0.1026  0.0726
59892SOL    HW186726   8.085   7.717   1.595  0.6212  0.7950  3.5173
59892SOL    HW286727   7.940   7.693   1.631 -0.2989 -0.8024 -0.7000
59893SOL     OW86728   1.304  11.333  11.079 -0.4770 -0.1916 -0.0069
59893SOL    HW186729   1.366  11.391  11.124 -0.0309 -0.0866 -0.7459
59893SOL    HW286730   1.238  11.313  11.145  0.3932 -0.3801  0.8328
59894SOL     OW86731   0.227   9.207   3.178 -0.1061  0.2203  0.1677
59894SOL    HW186732   0.304   9.209   3.234  0.4058  0.5937 -0.5330
59894SOL    HW286733   0.187   9.294   3.190  0.8188  0.8662 -1.1254
59895SOL     OW86734   3.890  11.047   9.412  0.2367 -0.1351  0.5075
59895SOL    HW186735   3.892  11.096   9.495  0.0201 -1.8753  1.5853
59895SOL    HW286736   3.800  11.016   9.405  0.7475 -1.7806  0.7427
59896SOL     OW86737   7.109   4.350  11.713  0.5439  0.0304 -0.0832
59896SOL    HW186738   7.139   4.270  11.756 -0.7862 -1.5628 -1.9312
59896SOL    HW286739   7.118   4.418  11.780  0.8270 -1.8277  1.8876
59897SOL     OW86740   6.296   5.131  12.483 -0.8218  0.0604  0.6517
59897SOL    HW186741   6.321   5.040  12.468  0.1799  0.2393  1.1092
59897SOL    HW286742   6.227   5.148  12.419 -1.2227 -1.0990  0.7614
59898SOL     OW86743  10.889   9.376  12.089  0.1506 -0.0060 -0.0841
59898SOL    HW186744  10.866   9.466  12.112  0.2760  0.0903 -0.3311
59898SOL    HW286745  10.952   9.349  12.156 -2.2783 -1.0403  1.9552
59899SOL     OW86746   5.548   3.065   6.492  0.0057  0.3609  0.0551
59899SOL    HW186747   5.570   3.045   6.401  1.7767 -2.1624  0.9333
59899SOL    HW286748   5.506   2.986   6.525 -0.9971  1.3837  1.3633
59900SOL     OW86749   9.715   8.010   5.967  0.0944  0.5690 -0.0656
59900SOL    HW186750   9.663   7.930   5.960 -1.2598  1.5307 -2.2770
59900SOL    HW286751   9.800   7.988   5.928  0.1829 -0.1029  0.4936
59901SOL     OW86752   6.442   1.601   8.897 -0.0561  0.4606 -0.0730
59901SOL    HW186753   6.478   1.648   8.972 -0.7893  0.7512  0.1047
59901SOL    HW286754   6.348   1.618   8.901  0.0995  2.1373 -2.2126
59902SOL     OW86755   6.986  11.813   0.133 -0.2604 -0.1108 -0.3181
59902SOL    HW186756   7.075  11.844   0.114 -0.6911  1.9806  0.7220
59902SOL    HW286757   6.929  11.877   0.091 -1.2519 -0.4225  0.5123
59903SOL     OW86758   1.451   7.606   2.308  0.0116  0.4265  0.3284
59903SOL    HW186759   1.545   7.601   2.326 -0.0753 -0.2937  0.5884
59903SOL    HW286760   1.446   7.623   2.214  0.4607  4.2684  0.8341
59904SOL     OW86761   7.525   6.815   1.536  0.2875 -0.5787  0.0967
59904SOL    HW186762   7.527   6.753   1.609 -0.9269 -1.4253 -0.5722
59904SOL    HW286763   7.551   6.898   1.575  1.0942 -1.3182  1.1865
59905SOL     OW86764   7.457   5.534   0.252 -0.4464 -0.0084  0.3016
59905SOL    HW186765   7.549   5.524   0.277 -0.0729  0.1069 -0.9869
59905SOL    HW286766   7.424   5.444   0.247  0.4257 -0.2567 -2.1594
59906SOL     OW86767   9.421   3.096   0.625  0.2568  0.0343  0.2915
59906SOL    HW186768   9.490   3.109   0.560  0.9282  0.7824  1.1230
59906SOL    HW286769   9.349   3.149   0.594  0.1219 -0.5658 -0.4631
59907SOL     OW86770  11.108  11.949   2.235  0.1953  0.0638  0.8620
59907SOL    HW186771  11.098  11.934   2.141  1.4187 -0.8480  0.8474
59907SOL    HW286772  11.192  11.996   2.243 -0.4217  1.1142  1.4321
59908SOL     OW86773   5.108   7.864   9.017  0.9104  0.0436 -0.1546
59908SOL    HW186774   5.203   7.856   9.021  0.9096 -0.5432 -1.0536
59908SOL    HW286775   5.076   7.791   9.071  0.9691 -0.0786 -0.2842
59909SOL     OW86776   3.216  10.520   8.641 -0.4138 -0.6234  0.3484
59909SOL    HW186777   3.261  10.489   8.720  0.5039 -1.2859 -0.4123
59909SOL    HW286778   3.251  10.466   8.570 -1.7071 -0.4913 -0.4275
59910SOL     OW86779  11.548   7.761   1.128  0.2876  0.4672  0.4517
59910SOL    HW186780  11.507   7.675   1.117 -1.1630  1.0672  0.8439
59910SOL    HW286781  11.558   7.794   1.039 -2.1515  1.1806  0.3544
59911SOL     OW86782   6.777   3.959   3.248  0.1420 -0.3315  0.9213
59911SOL    HW186783   6.864   3.971   3.286  0.7592 -1.2779 -0.1314
59911SOL    HW286784   6.774   4.018   3.174  0.1517 -0.7685  0.5650
59912SOL     OW86785   8.953   8.892   6.700 -0.1452  0.8101 -0.2755
59912SOL    HW186786   8.900   8.892   6.780 -0.0878 -1.0808 -0.1834
59912SOL    HW286787   9.023   8.955   6.718  1.1462 -1.1207  2.0950
59913SOL     OW86788   2.981   8.303   7.187 -0.2517  0.0501  0.3055
59913SOL    HW186789   2.912   8.327   7.126  1.1769  0.0115 -1.4050
59913SOL    HW286790   3.031   8.384   7.201  1.3722 -0.6224 -1.2281
59914SOL     OW86791   8.807   4.724   3.808  0.1444  0.3401 -0.1625
59914SOL    HW186792   8.721   4.686   3.824  0.2101  0.4393  0.4548
59914SOL    HW286793   8.866   4.649   3.801  0.0748  0.2858 -0.1663
59915SOL     OW86794   8.890   2.626   2.171  0.4869 -0.4100  0.5732
59915SOL    HW186795   8.965   2.674   2.207 -0.0284  0.6529  0.2883
59915SOL    HW286796   8.911   2.617   2.078  0.1206  0.1871  0.4276
59916SOL     OW86797   2.004   1.119   5.729  0.2889 -0.3854  0.1711
59916SOL    HW186798   1.952   1.068   5.791  0.1742  0.9521  1.2234
59916SOL    HW286799   2.078   1.150   5.781 -0.0311  1.1080 -0.2423
59917SOL     OW86800   3.625   4.053  11.924 -0.3703 -0.1371 -0.4974
59917SOL    HW186801   3.701   4.079  11.976  0.7830 -0.2234 -2.0947
59917SOL    HW286802   3.634   3.958  11.914 -0.5048 -0.1027 -0.9785
59918SOL     OW86803   9.981   7.215   3.014  0.1078  0.2585  0.1452
59918SOL    HW186804  10.004   7.188   3.103  0.3571 -1.6383 -0.4515
59918SOL    HW286805   9.900   7.168   2.994  1.4870 -1.5692 -1.5620
59919SOL     OW86806   8.108   4.981   0.320 -0.3848  0.6450  0.1656
59919SOL    HW186807   8.123   4.886   0.316  1.3386  0.9384 -2.0334
59919SOL    HW286808   8.192   5.020   0.297 -1.6230  2.6511 -1.2891
59920SOL     OW86809   9.615   0.009   7.398  0.3601 -0.0880  0.1396
59920SOL    HW186810   9.699   0.040   7.362 -0.0354 -0.0267 -0.7488
59920SOL    HW286811   9.612   0.046   7.486  0.7642  0.8358 -0.2210
59921SOL     OW86812   9.475   4.847  10.925  0.7993  0.4257 -0.1117
59921SOL    HW186813   9.556   4.885  10.892  0.1350  2.1654  0.1566
59921SOL    HW286814   9.484   4.851  11.021  1.2975 -1.4650 -0.0289
59922SOL     OW86815   4.274   6.441   7.089  0.2880 -0.1729  0.4101
59922SOL    HW186816   4.185   6.405   7.083  0.2784 -0.0489 -0.1613
59922SOL    HW286817   4.276   6.512   7.025  0.4494  0.5704  1.2137
59923SOL     OW86818   6.804   2.888   0.112  0.0166  0.6698 -0.8354
59923SOL    HW186819   6.788   2.795   0.097 -0.6763  0.6430 -0.0024
59923SOL    HW286820   6.811   2.926   0.025  1.6982 -0.3752 -1.2170
59924SOL     OW86821   9.508   1.039   8.981 -0.2592 -0.0102  0.2603
59924SOL    HW186822   9.455   1.046   8.901  0.7491 -2.7358 -0.7881
59924SOL    HW286823   9.598   1.036   8.950  0.3879  1.9124  1.8055
59925SOL     OW86824  10.503   9.732   7.773 -0.4969  0.2107 -0.3260
59925SOL    HW186825  10.492   9.771   7.687 -0.6065  0.1897 -0.3217
59925SOL    HW286826  10.595   9.707   7.777 -1.0000 -2.0543 -1.3934
59926SOL     OW86827   4.853   8.049   1.124  0.5709  0.2179  0.2094
59926SOL    HW186828   4.865   7.969   1.174  0.7916  0.4434  0.5232
59926SOL    HW286829   4.808   8.109   1.184 -0.1293  0.1290 -0.2206
59927SOL     OW86830   1.167  10.265   9.956 -0.0586 -0.2979 -0.0388
59927SOL    HW186831   1.133  10.183   9.920  0.2952 -0.3983 -0.1494
59927SOL    HW286832   1.143  10.331   9.891 -1.7572 -0.0392  0.7998
59928SOL     OW86833   3.145   0.017   5.018 -0.2463 -0.3213  0.2425
59928SOL    HW186834   3.151   0.009   5.114  0.3736  0.7099  0.3100
59928SOL    HW286835   3.062  -0.025   4.996 -1.3858  1.1479  1.4829
59929SOL     OW86836   6.865  10.303   2.776  0.1329  0.0934  0.1509
59929SOL    HW186837   6.823  10.271   2.697  0.2492 -1.4350  0.6609
59929SOL    HW286838   6.805  10.368   2.811 -0.3716  0.0910 -0.6896
59930SOL     OW86839   3.334   0.481   7.976 -0.5466 -0.2350 -0.0778
59930SOL    HW186840   3.357   0.433   8.056 -0.0342  1.1568  0.6468
59930SOL    HW286841   3.273   0.423   7.930 -0.9069 -1.0433  1.3506
59931SOL     OW86842  11.513   1.586   3.268 -0.5976 -0.8335 -0.8084
59931SOL    HW186843  11.572   1.559   3.338 -2.0414 -0.3459  0.6481
59931SOL    HW286844  11.563   1.649   3.217 -0.4291  1.0497  1.5349
59932SOL     OW86845   0.271  10.874   6.073 -0.2400  0.4273 -0.0615
59932SOL    HW186846   0.245  10.953   6.121  0.8419  0.5379  0.3862
59932SOL    HW286847   0.260  10.803   6.136 -0.6420  0.2987 -0.2726
59933SOL     OW86848   2.004   4.179   1.071  0.1008 -0.1570 -0.1808
59933SOL    HW186849   1.947   4.102   1.073 -1.2840  0.8215 -0.7723
59933SOL    HW286850   2.005   4.206   0.980  1.2682  0.0649 -0.1237
59934SOL     OW86851   7.192   9.847  12.173 -0.1012  0.2406  0.1286
59934SOL    HW186852   7.284   9.859  12.148  0.0299  1.8022  1.1977
59934SOL    HW286853   7.143   9.869  12.094  0.4362 -1.2496 -0.6463
59935SOL     OW86854   7.069   9.678  11.658  0.2416 -0.2403  0.4925
59935SOL    HW186855   7.064   9.591  11.620 -0.5007 -0.4571  1.0703
59935SOL    HW286856   7.156   9.710  11.634 -0.4270 -0.0624 -2.0290
59936SOL     OW86857   0.042   8.540   8.997 -0.2843 -0.6401 -0.5269
59936SOL    HW186858   0.132   8.507   8.992 -0.7025 -1.6060 -2.2458
59936SOL    HW286859   0.027   8.552   9.091  1.3793 -1.1459 -0.1493
59937SOL     OW86860   3.554   3.840   7.398  0.3876 -0.0070  0.4474
59937SOL    HW186861   3.629   3.850   7.338  0.6548 -1.8990  0.4274
59937SOL    HW286862   3.513   3.758   7.373 -1.5926  0.8701  0.6342
59938SOL     OW86863  10.319   9.389   3.203  0.1212 -0.5669 -0.0246
59938SOL    HW186864  10.288   9.303   3.229 -2.1361 -0.8331 -3.0842
59938SOL    HW286865  10.302   9.445   3.279 -2.9901 -1.8749  0.3635
59939SOL     OW86866  10.641  12.529  12.356  0.7714  0.0401 -0.3668
59939SOL    HW186867  10.669  12.606  12.404  0.8949  0.3056 -0.8517
59939SOL    HW286868  10.666  12.547  12.265 -1.7246  0.6702 -1.0036
59940SOL     OW86869  11.420   7.311   5.009 -0.1047 -0.1128 -0.2331
59940SOL    HW186870  11.356   7.240   5.002 -1.7906  1.4147 -1.3306
59940SOL    HW286871  11.404   7.348   5.096 -0.5639  0.1097 -0.4082
59941SOL     OW86872   7.374   0.457   5.084 -0.0300  0.1618 -0.1089
59941SOL    HW186873   7.468   0.477   5.088 -0.1716  0.8715 -0.1199
59941SOL    HW286874   7.332   0.531   5.128 -0.6136  0.1076 -0.5625
59942SOL     OW86875   9.583   1.713   9.653  0.0294  0.6897 -0.0130
59942SOL    HW186876   9.505   1.706   9.598  0.0336  0.9314 -0.0503
59942SOL    HW286877   9.613   1.623   9.663 -0.4396  0.5642  0.2674
59943SOL     OW86878  11.731  12.341  10.034 -0.1460  0.3201 -0.4902
59943SOL    HW186879  11.653  12.349   9.980 -1.0194 -2.4014  0.1888
59943SOL    HW286880  11.797  12.300   9.977 -0.4554 -0.7925 -0.0818
59944SOL     OW86881   4.387   3.236   8.479  0.4987 -0.1615  0.1075
59944SOL    HW186882   4.313   3.241   8.540  0.8395  0.9222  0.4587
59944SOL    HW286883   4.414   3.144   8.481  0.3566 -0.1928  1.4309
59945SOL     OW86884   4.846   3.950   4.413 -0.5862 -0.0325  0.0525
59945SOL    HW186885   4.899   4.013   4.462  2.3223 -1.4882 -0.9930
59945SOL    HW286886   4.800   4.003   4.348  0.3966  1.2383  0.3502
59946SOL     OW86887   9.599  11.438   0.466  0.3319  0.1520  0.0694
59946SOL    HW186888   9.605  11.434   0.562  0.3681  1.7272  0.1692
59946SOL    HW286889   9.689  11.454   0.437  0.4462 -1.0677 -0.3072
59947SOL     OW86890   1.283   3.573   0.094  0.6124  0.2988 -0.1976
59947SOL    HW186891   1.307   3.665   0.090 -0.1058  0.5471  0.6329
59947SOL    HW286892   1.202   3.567   0.043  0.9136  0.0318 -0.6473
59948SOL     OW86893   1.193   1.514  12.559 -0.3823  0.0567 -0.3398
59948SOL    HW186894   1.190   1.494  12.652 -0.4161 -0.7344 -0.5008
59948SOL    HW286895   1.263   1.578  12.550  3.3920 -3.6271 -0.3819
59949SOL     OW86896   4.780   0.153  10.021 -0.3868 -0.4496 -0.1627
59949SOL    HW186897   4.686   0.172  10.022 -0.8608 -1.0196 -5.3200
59949SOL    HW286898   4.814   0.205   9.948  3.1574 -1.0808  0.8605
59950SOL     OW86899   6.163   8.197   8.491 -0.0828 -0.7998 -0.0109
59950SOL    HW186900   6.170   8.285   8.528  0.4123 -0.6656 -0.4102
59950SOL    HW286901   6.098   8.205   8.421  1.1859 -0.3465 -1.1790
59951SOL     OW86902   4.669   6.264   5.760 -0.3311  0.5012 -0.4387
59951SOL    HW186903   4.580   6.231   5.771  0.2070 -0.4583  1.3665
59951SOL    HW286904   4.662   6.358   5.779 -0.9780  0.4756 -0.5093
59952SOL     OW86905   8.659   9.883   4.950  0.0793  0.2354 -0.3767
59952SOL    HW186906   8.636   9.950   5.015 -1.7522  0.6086 -1.3631
59952SOL    HW286907   8.709   9.930   4.884 -0.0344  0.3398 -0.3881
59953SOL     OW86908   6.983   6.685  10.364 -0.3235 -0.3024 -0.0549
59953SOL    HW186909   6.899   6.731  10.356  1.3995  2.7900 -2.5558
59953SOL    HW286910   7.040   6.747  10.410  1.1666 -1.4134 -0.3221
59954SOL     OW86911  11.300   8.248  11.013  0.1518 -0.0720 -0.3443
59954SOL    HW186912  11.205   8.254  11.002  0.1538  1.1674  0.1606
59954SOL    HW286913  11.325   8.170  10.964 -1.0283  0.0146 -1.1270
59955SOL     OW86914   0.398   8.040   6.292  0.2227  0.3121  0.5263
59955SOL    HW186915   0.475   8.083   6.256  0.1202 -0.8100 -1.1479
59955SOL    HW286916   0.429   7.952   6.314  0.0707  0.7024  2.4899
59956SOL     OW86917  11.649  11.258   7.922 -0.4437 -0.1630 -0.4714
59956SOL    HW186918  11.725  11.241   7.978 -0.8975  1.1986  0.6279
59956SOL    HW286919  11.687  11.282   7.837  0.3542  0.0212 -0.0766
59957SOL     OW86920   3.467   5.759   3.450  0.3351 -0.3264  0.1425
59957SOL    HW186921   3.372   5.770   3.460  0.1136 -2.2457  0.5842
59957SOL    HW286922   3.476   5.683   3.393  1.6314  0.0236 -0.1412
59958SOL     OW86923   6.862   0.886   6.912 -0.2594 -1.0141  0.1267
59958SOL    HW186924   6.825   0.810   6.956 -0.2545 -2.2791 -1.9292
59958SOL    HW286925   6.949   0.896   6.950 -1.3295 -0.1011  2.5700
59959SOL     OW86926   6.468   7.715  10.185 -0.4172  0.4792  0.0158
59959SOL    HW186927   6.500   7.659  10.113 -1.3341 -0.0936  0.0433
59959SOL    HW286928   6.541   7.774  10.203 -0.1657  0.6257 -1.3831
59960SOL     OW86929   3.674   9.268   1.457  0.1817  0.7573  0.3903
59960SOL    HW186930   3.766   9.243   1.452 -0.0490 -0.4348  1.5115
59960SOL    HW286931   3.634   9.200   1.510 -1.3368  1.3205  0.0137
59961SOL     OW86932  11.746   0.200   6.650 -0.1319  0.0988  0.6679
59961SOL    HW186933  11.789   0.197   6.736 -0.3729 -0.8639  0.7683
59961SOL    HW286934  11.670   0.142   6.659  1.1276 -1.9401 -0.8472
59962SOL     OW86935   1.134   1.044   9.517 -0.2971  0.2636 -0.2776
59962SOL    HW186936   1.073   1.105   9.476 -0.5603  1.1715  1.3632
59962SOL    HW286937   1.220   1.070   9.485 -0.2611  2.3668  1.3160
59963SOL     OW86938  10.407   0.579   9.259 -0.4440  0.4026 -0.4071
59963SOL    HW186939  10.328   0.631   9.246 -1.1907 -0.6515 -0.1545
59963SOL    HW286940  10.453   0.623   9.331  0.0774  1.9979 -1.6412
59964SOL     OW86941   4.332   7.449  11.048  0.0737 -0.0691 -0.1500
59964SOL    HW186942   4.319   7.518  10.982 -0.8118 -0.4579 -0.3855
59964SOL    HW286943   4.287   7.481  11.126 -0.9125 -0.6587 -0.4584
59965SOL     OW86944   4.442   5.246   2.779 -0.4441  0.2156  0.3087
59965SOL    HW186945   4.391   5.223   2.856 -0.6996 -2.6099 -0.5976
59965SOL    HW286946   4.384   5.226   2.705  1.2558 -1.2943 -0.6912
59966SOL     OW86947   8.123   3.484   4.366 -0.6991  0.0659 -0.4202
59966SOL    HW186948   8.063   3.544   4.410  1.0152  0.6149  1.3177
59966SOL    HW286949   8.178   3.540   4.312  0.8841  0.1367  1.1792
59967SOL     OW86950   4.553   9.421   1.701 -0.1078 -0.2517 -0.1656
59967SOL    HW186951   4.524   9.413   1.791  0.5481  0.0147  0.0738
59967SOL    HW286952   4.544   9.333   1.664 -2.3472  0.0571 -0.4597
59968SOL     OW86953  12.327   4.476   3.255  0.3732 -0.4327  0.1295
59968SOL    HW186954  12.369   4.483   3.169  0.5864 -0.4068  0.2343
59968SOL    HW286955  12.233   4.480   3.237  0.4366  1.2591  0.0394
59969SOL     OW86956   3.194   7.865   4.965 -0.0459 -0.0049 -0.1949
59969SOL    HW186957   3.227   7.784   5.004 -1.3730 -0.8816 -0.8460
59969SOL    HW286958   3.240   7.935   5.012  2.4130 -1.1385 -0.7794
59970SOL     OW86959   0.608  11.144   6.245  0.1378  0.0236  0.8891
59970SOL    HW186960   0.570  11.116   6.162  1.4006  0.1416  0.2475
59970SOL    HW286961   0.537  11.190   6.289 -1.1057 -1.5757  0.6807
59971SOL     OW86962   0.178   8.478   6.784  0.3342  0.1458 -0.2666
59971SOL    HW186963   0.239   8.463   6.712  1.2215  0.2480  0.4443
59971SOL    HW286964   0.218   8.549   6.835 -0.4761  0.3424  0.1125
59972SOL     OW86965   7.415   6.648   8.948 -0.0525  0.6395  0.3680
59972SOL    HW186966   7.404   6.561   8.910 -0.4382  1.2727 -1.0016
59972SOL    HW286967   7.468   6.696   8.885  0.6952  1.2276  1.4054
59973SOL     OW86968   2.322   0.837  12.408 -0.2259 -0.9488  0.1027
59973SOL    HW186969   2.374   0.854  12.329 -1.0577  0.8162 -0.1166
59973SOL    HW286970   2.238   0.805  12.374 -1.1997  1.3952  0.1002
59974SOL     OW86971   1.009   2.524   2.622  0.3875 -0.0906  0.6651
59974SOL    HW186972   0.989   2.601   2.569  2.3349  0.7076  1.0091
59974SOL    HW286973   1.105   2.524   2.628  0.3201 -1.5403  2.1494
59975SOL     OW86974   2.292   1.683   9.024  0.2626  0.1407 -0.2991
59975SOL    HW186975   2.262   1.599   8.990  1.6229  0.5330 -2.6568
59975SOL    HW286976   2.239   1.748   8.978 -1.2028  0.6397  1.9481
59976SOL     OW86977   6.599   9.845   1.994 -0.2568 -0.0341  0.8203
59976SOL    HW186978   6.623   9.813   2.081  0.8856  1.3471  1.0440
59976SOL    HW286979   6.507   9.820   1.984 -0.0190 -1.4446  1.8273
59977SOL     OW86980   0.362   1.208   4.530  0.1118 -0.3818 -0.4330
59977SOL    HW186981   0.440   1.263   4.536 -0.0037 -0.1669 -0.8634
59977SOL    HW286982   0.339   1.190   4.621  0.4871 -0.1949 -0.2985
59978SOL     OW86983   9.942   3.633  12.206  0.3152 -0.2590  0.3473
59978SOL    HW186984   9.957   3.661  12.116  2.0669  1.2368  1.0366
59978SOL    HW286985   9.860   3.675  12.231 -0.6514 -1.4036 -0.7902
59979SOL     OW86986   9.205  11.970   3.523 -0.1339  0.3214  0.0602
59979SOL    HW186987   9.190  11.976   3.618 -1.1672  0.8251 -0.1240
59979SOL    HW286988   9.274  12.034   3.506  0.9180 -0.6321  0.6429
59980SOL     OW86989   7.176   1.029   6.786  0.2779 -0.1248  0.6932
59980SOL    HW186990   7.094   1.080   6.785  1.1355  1.3117 -0.0292
59980SOL    HW286991   7.147   0.938   6.778 -1.2340  0.4755 -3.5715
59981SOL     OW86992   3.679   9.851   1.771  0.0143 -0.2667 -0.1244
59981SOL    HW186993   3.703   9.942   1.790  0.2757 -0.2312 -0.5953
59981SOL    HW286994   3.583   9.852   1.770  0.0036  0.2846 -1.3347
59982SOL     OW86995   5.114   3.938   0.225  0.5355 -0.1049  0.8132
59982SOL    HW186996   5.090   4.030   0.217 -0.2259 -0.4113 -0.8568
59982SOL    HW286997   5.177   3.923   0.155 -0.8653 -1.3008 -0.2580
59983SOL     OW86998   4.680   0.255   8.229 -0.1539  0.4949  0.5089
59983SOL    HW186999   4.587   0.233   8.234  0.0435 -1.0787 -1.4731
59983SOL    HW287000   4.713   0.242   8.318 -1.5788 -0.1297  0.9724
59984SOL     OW87001  11.099   4.466   7.746  0.2724 -0.4807 -0.1291
59984SOL    HW187002  11.117   4.440   7.656 -1.0185 -2.8679  0.2143
59984SOL    HW287003  11.006   4.445   7.759  0.5798 -0.7808  1.9095
59985SOL     OW87004   4.010   0.995  12.501  0.2774 -0.0099 -0.1587
59985SOL    HW187005   4.046   0.972  12.416  0.5703 -0.1966  0.0130
59985SOL    HW287006   3.985   0.910  12.540  0.0094  0.0859 -0.1204
59986SOL     OW87007   1.202  12.481   5.402 -0.4849  0.3830  0.5350
59986SOL    HW187008   1.173  12.572   5.405  0.9681  0.8674  0.9576
59986SOL    HW287009   1.248  12.473   5.318 -2.0769 -0.4674 -0.2981
59987SOL     OW87010   1.554   1.303   5.584  0.0819 -0.0830 -0.3815
59987SOL    HW187011   1.575   1.212   5.606 -3.5887 -1.0135 -0.1077
59987SOL    HW287012   1.581   1.312   5.493 -0.1095 -1.6637 -0.6213
59988SOL     OW87013   0.434  11.895   1.900  0.3791 -0.3139 -0.1323
59988SOL    HW187014   0.514  11.931   1.861  0.7487  0.8827  1.5974
59988SOL    HW287015   0.460  11.809   1.934  1.2882  0.4928  1.3534
59989SOL     OW87016   3.122   1.779   9.006 -0.4616  0.1068  0.1137
59989SOL    HW187017   3.160   1.853   8.958  2.0738 -0.2572  1.3862
59989SOL    HW287018   3.144   1.703   8.953 -0.6228  0.0197  0.1746
59990SOL     OW87019   7.701  10.404   4.317 -0.0323 -0.2661 -0.4611
59990SOL    HW187020   7.634  10.335   4.310 -0.7442  0.4559 -0.8628
59990SOL    HW287021   7.652  10.484   4.333  0.7104  0.3540 -1.1997
59991SOL     OW87022   0.152   5.067   8.912  0.6358  0.3691 -0.6288
59991SOL    HW187023   0.071   5.102   8.949  0.6472  0.0257 -0.2787
59991SOL    HW287024   0.221   5.122   8.949  0.6296  0.1542 -0.2891
59992SOL     OW87025   1.309   5.961   7.118 -0.0511 -0.0578 -0.1231
59992SOL    HW187026   1.311   5.878   7.165  0.8146 -0.5669 -1.0138
59992SOL    HW287027   1.217   5.989   7.122  0.0152  0.0074  1.9537
59993SOL     OW87028   6.711  10.748   9.001  0.0952 -0.1880 -0.3337
59993SOL    HW187029   6.799  10.769   9.031 -0.1272  1.5365 -0.7748
59993SOL    HW287030   6.668  10.708   9.077  0.6078  0.9355  0.5649
59994SOL     OW87031   8.427   7.540   3.020  0.2481  0.3491  0.0317
59994SOL    HW187032   8.492   7.605   3.048  0.3303  0.5612 -0.6501
59994SOL    HW287033   8.479   7.465   2.990  0.1681 -0.7398  2.3360
59995SOL     OW87034   8.585  12.258   5.401  0.2958  0.7769  0.6463
59995SOL    HW187035   8.672  12.227   5.422 -0.2577 -0.2197  1.5771
59995SOL    HW287036   8.528  12.182   5.417 -0.6972  1.2890 -0.3042
59996SOL     OW87037  10.019   7.760   0.423  0.1051 -0.3741 -0.4505
59996SOL    HW187038  10.014   7.841   0.372  1.3792 -0.7241 -1.1998
59996SOL    HW287039  10.039   7.692   0.357  0.2041 -1.0975  0.3101
59997SOL     OW87040   9.570   8.757   4.521 -0.6091 -0.0655  0.4051
59997SOL    HW187041   9.490   8.758   4.468 -0.6254  2.5834  0.3430
59997SOL    HW287042   9.539   8.772   4.610 -0.2488 -0.1648  0.5487
59998SOL     OW87043   0.512   9.974   9.005  0.3134 -0.5670  0.3669
59998SOL    HW187044   0.602   9.968   8.973  0.1280  0.4110 -0.3619
59998SOL    HW287045   0.507  10.060   9.047 -1.0772  0.7404 -2.2404
59999SOL     OW87046  12.556   4.849   3.976  0.2766  0.0404  0.4093
59999SOL    HW187047  12.499   4.820   3.906  0.1737  1.6451 -0.2225
59999SOL    HW287048  12.510   4.825   4.057 -0.5750 -0.0036 -0.0816
60000SOL     OW87049   2.159  11.008   3.374 -0.0955 -0.1660 -0.2148
60000SOL    HW187050   2.109  11.010   3.456  1.9715  0.8323  1.0873
60000SOL    HW287051   2.167  10.914   3.354 -1.7299 -0.3799 -0.0092
60001SOL     OW87052   2.468   2.173   3.481 -0.3339 -0.1548  0.0173
60001SOL    HW187053   2.510   2.126   3.553  1.1363 -3.3068 -2.6649
60001SOL    HW287054   2.380   2.135   3.475 -0.9393  1.0450  0.8878
60002SOL     OW87055   9.554   7.691   7.598  0.1855 -0.0255  0.4305
60002SOL    HW187056   9.556   7.684   7.502 -0.7303  1.8759  0.2301
60002SOL    HW287057   9.574   7.783   7.616  0.1218 -0.2988  2.0684
60003SOL     OW87058   6.297   8.209   1.950 -0.0381  0.6014 -0.3194
60003SOL    HW187059   6.265   8.140   1.891 -3.0027  0.5014  1.2151
60003SOL    HW287060   6.336   8.161   2.024 -1.0330  0.5619  0.1938
60004SOL     OW87061   0.053  11.190   6.910 -0.9662 -0.0456 -0.3064
60004SOL    HW187062  -0.004  11.266   6.904  0.1257  0.8423  0.3009
60004SOL    HW287063   0.057  11.156   6.820 -1.2637  0.7574 -0.6323
60005SOL     OW87064   4.685   6.148   0.623  0.2578 -0.4627 -0.6231
60005SOL    HW187065   4.688   6.088   0.698 -0.3668 -0.1605 -0.3511
60005SOL    HW287066   4.774   6.184   0.617 -0.0058  0.4581  0.7451
60006SOL     OW87067   8.021   9.854   9.298  0.2821  0.0785  0.0059
60006SOL    HW187068   8.006   9.833   9.390  1.1714 -0.6017  0.0169
60006SOL    HW287069   8.055   9.772   9.261 -2.6193 -0.5295 -1.5828
60007SOL     OW87070   2.770  11.686   5.234 -0.5174  0.0298  0.3151
60007SOL    HW187071   2.856  11.697   5.193  0.1450 -0.0425  1.6196
60007SOL    HW287072   2.782  11.720   5.323 -1.3838 -1.4342  1.0242
60008SOL     OW87073   7.649   1.274  11.745 -0.2847  0.5002 -0.3457
60008SOL    HW187074   7.561   1.310  11.733 -0.0224  1.1073 -0.4479
60008SOL    HW287075   7.659   1.211  11.673 -0.1709  1.3305 -1.0634
60009SOL     OW87076   6.770   5.633   0.989  0.1388  0.2427 -0.1789
60009SOL    HW187077   6.863   5.654   1.001 -0.0055  0.6515  0.2794
60009SOL    HW287078   6.740   5.610   1.076  0.1227 -1.2567 -0.5611
60010SOL     OW87079  10.546   9.765  10.367  0.4976  0.0861 -0.2435
60010SOL    HW187080  10.563   9.760  10.461 -0.6135 -0.9754 -0.0664
60010SOL    HW287081  10.543   9.859  10.348 -2.2931  0.4557  1.4264
60011SOL     OW87082   0.929   3.069   9.465 -0.1114 -0.4159  0.2862
60011SOL    HW187083   0.834   3.074   9.460 -0.0696 -0.8839 -1.7746
60011SOL    HW287084   0.958   3.160   9.460 -0.4409 -0.0768  2.9396
60012SOL     OW87085   0.603   9.588   3.205 -0.5001  0.5209 -0.0215
60012SOL    HW187086   0.619   9.500   3.239 -2.0123 -0.1494 -0.9547
60012SOL    HW287087   0.625   9.647   3.277 -0.7547 -0.6922  1.0703
60013SOL     OW87088   6.214   6.646   3.077 -0.0021  0.4225 -0.1758
60013SOL    HW187089   6.159   6.601   3.141 -0.7937  0.7932 -0.5694
60013SOL    HW287090   6.256   6.716   3.126  2.5868 -1.6765  0.8494
60014SOL     OW87091   7.889  11.669   1.020 -0.1746 -0.7529 -0.2848
60014SOL    HW187092   7.925  11.671   1.109 -1.9352  0.1557  0.4578
60014SOL    HW287093   7.804  11.626   1.030 -1.4590  1.4625 -1.0748
60015SOL     OW87094   0.822   4.263  11.433 -0.5003  0.1620  0.0991
60015SOL    HW187095   0.742   4.303  11.468 -0.5939  0.1281 -0.0773
60015SOL    HW287096   0.792   4.190  11.380 -0.2536 -3.0098  3.8411
60016SOL     OW87097   0.115  11.469   6.182  0.7295  0.0135  0.2574
60016SOL    HW187098   0.039  11.413   6.167  0.8968 -0.5465  1.3495
60016SOL    HW287099   0.079  11.558   6.191  0.1313 -0.3054  1.2041
60017SOL     OW87100   8.843   7.442   2.761  0.0019 -0.2587 -0.3655
60017SOL    HW187101   8.868   7.405   2.677 -0.1906 -0.6658 -0.2469
60017SOL    HW287102   8.903   7.402   2.824 -0.8259 -1.1123 -0.1031
60018SOL     OW87103  10.555   5.545   4.411  0.0881  0.1045 -0.2295
60018SOL    HW187104  10.571   5.546   4.317  0.8449  0.9396 -0.1045
60018SOL    HW287105  10.594   5.463   4.442 -0.2330 -0.2071 -0.6499
60019SOL     OW87106   9.647   8.762   8.541 -0.0942 -0.1516 -0.4922
60019SOL    HW187107   9.586   8.794   8.475 -1.6366  0.1732  1.0153
60019SOL    HW287108   9.633   8.667   8.543 -0.2352 -0.1285 -0.4337
60020SOL     OW87109   2.138   5.086   9.545 -0.5159 -0.2539 -0.0010
60020SOL    HW187110   2.158   5.140   9.469  0.1110  0.0202  0.3545
60020SOL    HW287111   2.124   5.149   9.616 -0.4130 -0.5377  0.2710
60021SOL     OW87112   7.956   3.882   1.075  0.4373  0.2708  0.2645
60021SOL    HW187113   7.953   3.925   0.989  0.1893 -0.2553  0.0045
60021SOL    HW287114   8.002   3.945   1.131  0.2835  0.7771 -0.1611
60022SOL     OW87115   2.368   1.433   4.596  0.5331  0.0240 -0.2897
60022SOL    HW187116   2.364   1.482   4.678  0.6103  0.2206 -0.4011
60022SOL    HW287117   2.279   1.401   4.583  0.5025  0.0589 -0.1684
60023SOL     OW87118   7.222  10.255   8.970 -0.2279 -0.0400  0.5095
60023SOL    HW187119   7.135  10.242   8.932 -0.5615  2.5566  0.1475
60023SOL    HW287120   7.205  10.279   9.061  0.1465 -0.0469  0.5822
60024SOL     OW87121   7.534   9.243   4.540  0.5166  0.1459 -0.4563
60024SOL    HW187122   7.583   9.207   4.466 -0.5162  2.0299 -2.1537
60024SOL    HW287123   7.599   9.252   4.610  1.7502 -0.7835 -1.4444
60025SOL     OW87124   3.544   8.332   6.911  0.3196 -0.2975 -0.1325
60025SOL    HW187125   3.623   8.279   6.902  0.8976  0.2770  1.3811
60025SOL    HW287126   3.572   8.411   6.957 -1.3644 -0.6348  1.5914
60026SOL     OW87127   8.799  10.578   0.891  0.3389 -0.7618 -0.4376
60026SOL    HW187128   8.824  10.616   0.975 -0.8734 -0.5153 -0.1720
60026SOL    HW287129   8.863  10.613   0.829  0.3201  0.2954  0.1176
60027SOL     OW87130   4.990   7.171   0.413 -0.3268 -0.7655 -0.3003
60027SOL    HW187131   5.052   7.183   0.485 -1.2607 -0.1044  0.4124
60027SOL    HW287132   4.945   7.089   0.433  0.6648 -1.5342 -1.1048
60028SOL     OW87133   6.491   4.638  10.054 -0.1309  0.6767 -0.0708
60028SOL    HW187134   6.571   4.585  10.049 -0.4759  0.2190 -0.8114
60028SOL    HW287135   6.456   4.619  10.142 -0.3621 -0.5065 -0.3935
60029SOL     OW87136   7.899  11.670   9.398  0.6557  0.0938  0.4669
60029SOL    HW187137   7.830  11.673   9.465  0.6985 -0.7884  0.5611
60029SOL    HW287138   7.978  11.696   9.445  1.3044 -3.4938  1.6116
60030SOL     OW87139   7.952   2.035   3.795 -0.7137  0.1066 -0.6458
60030SOL    HW187140   7.904   2.067   3.871  1.2063  0.8051  0.3243
60030SOL    HW287141   7.904   2.070   3.720 -1.2405  1.4660  0.2958
60031SOL     OW87142  10.047   9.613   4.664  0.7130 -0.3460  0.4294
60031SOL    HW187143  10.121   9.666   4.634  0.9913 -0.3625  1.0710
60031SOL    HW287144  10.058   9.608   4.759  0.4132 -1.1417  0.4300
60032SOL     OW87145  10.908  10.758   6.210  0.2374  0.4708 -0.1652
60032SOL    HW187146  10.977  10.818   6.182  0.8596 -0.0058  0.3273
60032SOL    HW287147  10.848  10.813   6.261  1.9258  0.3143  2.1338
60033SOL     OW87148   2.620   6.138   7.952 -0.5054 -0.1641  0.8859
60033SOL    HW187149   2.706   6.113   7.985 -0.3436  1.2212  1.5796
60033SOL    HW287150   2.621   6.234   7.950 -1.3233 -0.1461 -1.0494
60034SOL     OW87151   6.439   5.890   7.452  0.1832 -0.0333  0.1723
60034SOL    HW187152   6.359   5.842   7.432  0.4947 -0.6245  0.3326
60034SOL    HW287153   6.410   5.969   7.496 -0.4234  0.5420 -1.1987
60035SOL     OW87154  10.444   5.585   0.232 -0.1350  0.0587 -0.1129
60035SOL    HW187155  10.524   5.600   0.283  1.1494 -1.6805 -1.4938
60035SOL    HW287156  10.379   5.558   0.297  1.4648 -2.1345  0.7153
60036SOL     OW87157   7.976   5.519   1.566 -0.4756  0.1707 -0.1358
60036SOL    HW187158   8.009   5.564   1.488 -1.5636  0.0375 -0.6910
60036SOL    HW287159   7.916   5.581   1.606 -0.5748 -0.0912  0.1228
60037SOL     OW87160  10.292   7.353   7.632  0.0157 -0.1063  0.2266
60037SOL    HW187161  10.284   7.311   7.546  1.1378  0.6351 -0.2634
60037SOL    HW287162  10.208   7.397   7.645 -0.9331 -1.9115  0.4517
60038SOL     OW87163   1.388   5.644   4.502 -0.3739  0.1515  0.0931
60038SOL    HW187164   1.295   5.666   4.503 -0.2394  0.8222 -0.8838
60038SOL    HW287165   1.420   5.676   4.417  0.9642  0.8158  0.8178
60039SOL     OW87166   1.240   5.551   1.077 -0.0238 -0.0014  0.1447
60039SOL    HW187167   1.210   5.552   1.168  1.0430 -0.9374  0.5394
60039SOL    HW287168   1.277   5.638   1.064 -1.1361  0.5070  0.2512
60040SOL     OW87169  12.125   6.065   3.575 -0.2332  0.4593 -0.0026
60040SOL    HW187170  12.085   5.981   3.553  0.7304  0.1218 -0.5575
60040SOL    HW287171  12.098   6.124   3.504  0.9928 -0.0234 -0.9160
60041SOL     OW87172   6.910   0.523   2.814 -0.3586  0.3165 -0.4575
60041SOL    HW187173   6.939   0.610   2.787  1.4500 -0.3386 -0.8182
60041SOL    HW287174   6.947   0.464   2.748 -0.8240 -0.7887  0.2394
60042SOL     OW87175  11.975  12.084   4.473 -0.1364 -0.0535 -0.0670
60042SOL    HW187176  12.016  12.085   4.560  2.7138 -1.5903 -1.2480
60042SOL    HW287177  11.942  11.995   4.463  0.9445 -0.3622 -1.0975
60043SOL     OW87178   0.242   8.117   8.675  0.2953 -0.1625 -0.4178
60043SOL    HW187179   0.193   8.191   8.712 -1.2015 -0.4304 -1.7564
60043SOL    HW287180   0.196   8.039   8.709 -0.9320 -0.4150 -2.4929
60044SOL     OW87181  11.550   5.593   8.631  0.2038  0.2730  0.4182
60044SOL    HW187182  11.477   5.652   8.613 -1.4400 -1.2922  1.5922
60044SOL    HW287183  11.611   5.644   8.684 -2.1847  0.3865  3.2882
60045SOL     OW87184   6.304   2.515   1.628  0.0414  0.3148 -0.4476
60045SOL    HW187185   6.296   2.485   1.538  0.4262 -0.5445 -0.2083
60045SOL    HW287186   6.317   2.610   1.621  0.4784  0.2001 -1.3113
60046SOL     OW87187   9.071   9.781   3.539  0.1989 -0.1874  0.4039
60046SOL    HW187188   9.102   9.720   3.606 -0.1420  0.0581  0.7898
60046SOL    HW287189   9.137   9.850   3.536  0.9231 -0.8947 -0.4943
60047SOL     OW87190   2.599   8.395   4.763  0.0279  0.1354 -0.0853
60047SOL    HW187191   2.550   8.314   4.768 -0.9579  0.4001 -3.2828
60047SOL    HW287192   2.549   8.457   4.816 -0.0525 -0.9144  1.1040
60048SOL     OW87193   5.518   1.145   4.900  0.4563 -0.8273 -0.2064
60048SOL    HW187194   5.491   1.114   4.986 -0.7146 -0.5285 -0.4405
60048SOL    HW287195   5.584   1.212   4.918 -2.1794  1.7699  0.7229
60049SOL     OW87196   1.397   1.424  12.335  0.0022 -0.6816 -0.2769
60049SOL    HW187197   1.312   1.438  12.376  0.0614 -1.1928  0.0240
60049SOL    HW287198   1.432   1.512  12.321  0.2232 -0.5112  1.2620
60050SOL     OW87199   2.365   7.594  11.819 -0.0949  0.1752 -0.1729
60050SOL    HW187200   2.458   7.618  11.817 -0.2225  1.2008  2.6258
60050SOL    HW287201   2.365   7.499  11.805  1.6898 -0.3375  2.6617
60051SOL     OW87202   9.622   0.031   6.119  0.4387  0.4026 -0.1744
60051SOL    HW187203   9.599   0.087   6.045 -1.1022 -0.1395 -0.1357
60051SOL    HW287204   9.671  -0.041   6.081  0.1407  0.4214 -0.6020
60052SOL     OW87205   0.060  11.542   9.179 -0.1714  0.2094  0.1168
60052SOL    HW187206   0.001  11.500   9.117  0.0932  0.2425 -0.1619
60052SOL    HW287207   0.138  11.486   9.180  0.1054  0.5827 -0.1079
60053SOL     OW87208   6.598   1.592   5.554 -0.0957  0.2911  0.5599
60053SOL    HW187209   6.687   1.605   5.521 -0.6102  0.7049 -0.7434
60053SOL    HW287210   6.568   1.512   5.512 -0.3207  0.1116  1.0545
60054SOL     OW87211   8.964   0.828   7.513  0.0257 -0.2158  0.1194
60054SOL    HW187212   8.961   0.819   7.418  1.1047  0.6992 -0.0256
60054SOL    HW287213   8.966   0.738   7.546  0.8571 -0.5440 -0.7843
60055SOL     OW87214   2.898  11.456   8.875 -0.2527  0.3829  0.2825
60055SOL    HW187215   2.948  11.406   8.939 -2.2701 -2.2517 -0.0221
60055SOL    HW287216   2.830  11.499   8.926 -0.1496  0.5898  0.2435
60056SOL     OW87217   9.502   2.464   8.507  0.2017  0.2895  0.4840
60056SOL    HW187218   9.432   2.402   8.522  0.4776  0.2674  1.8063
60056SOL    HW287219   9.559   2.421   8.443  0.9947 -1.3543  2.1993
60057SOL     OW87220   5.268   2.134  11.789  0.5279  0.2452 -0.3494
60057SOL    HW187221   5.338   2.069  11.800  1.0757  0.6406 -1.4386
60057SOL    HW287222   5.311   2.218  11.803  0.3274  0.5053 -1.2319
60058SOL     OW87223   7.254   1.597   8.350 -0.8885 -0.7081 -0.0674
60058SOL    HW187224   7.317   1.607   8.422 -0.9627 -0.2089 -0.0672
60058SOL    HW287225   7.309   1.578   8.274 -0.4512  2.1787 -0.6056
60059SOL     OW87226   9.499   2.283   1.695 -0.5227 -0.5129  0.7276
60059SOL    HW187227   9.547   2.215   1.648  1.0278  0.8523  0.2794
60059SOL    HW287228   9.489   2.354   1.631 -1.4314  0.0118  1.4278
60060SOL     OW87229   0.916   9.937   2.094  0.6592  0.5348 -0.2400
60060SOL    HW187230   0.837   9.983   2.123 -0.3822 -1.4547  0.3383
60060SOL    HW287231   0.963   9.918   2.175 -0.7054 -2.3314  0.0500
60061SOL     OW87232   0.491   8.418   9.548 -0.1343 -0.3913 -0.5513
60061SOL    HW187233   0.550   8.486   9.515 -0.2717 -0.0266 -0.0671
60061SOL    HW287234   0.479   8.441   9.640  0.2922 -1.4106 -0.2270
60062SOL     OW87235  11.317   0.282   3.219 -0.0841 -0.3397 -0.2993
60062SOL    HW187236  11.286   0.334   3.145 -1.9712 -0.9113  0.0322
60062SOL    HW287237  11.249   0.292   3.285  0.9004 -0.9589  0.8389
60063SOL     OW87238   6.648   1.897   5.504  0.2352 -0.5210 -0.2831
60063SOL    HW187239   6.664   1.941   5.421  2.7556  0.4269  0.6077
60063SOL    HW287240   6.687   1.810   5.493 -2.1245 -1.5719 -1.0340
60064SOL     OW87241   2.182  10.831   5.558 -0.3652  0.6989  0.5356
60064SOL    HW187242   2.256  10.864   5.608  0.2641 -0.9494  0.7792
60064SOL    HW287243   2.191  10.735   5.563 -3.5028  0.3549  2.1068
60065SOL     OW87244  10.681   5.316   9.997 -0.2580 -0.2698  0.3490
60065SOL    HW187245  10.603   5.347   9.953 -0.1622 -0.2979  0.1583
60065SOL    HW287246  10.652   5.241  10.050 -0.7239  0.8280  1.7105
60066SOL     OW87247   7.256   5.580   4.564 -0.0668  0.1061 -0.0648
60066SOL    HW187248   7.295   5.568   4.651 -0.7428 -0.4850  0.1702
60066SOL    HW287249   7.317   5.538   4.504 -0.1216 -0.4449  0.2519
60067SOL     OW87250   7.930   1.846   0.340 -0.0038  0.0023  0.1481
60067SOL    HW187251   7.986   1.772   0.317 -0.5783  0.2865 -2.5797
60067SOL    HW287252   7.921   1.895   0.258 -0.5164  2.5083  1.5975
60068SOL     OW87253   0.653   3.574  11.153  0.4020 -0.0269  0.2340
60068SOL    HW187254   0.601   3.562  11.232 -2.9295  2.0932 -1.4210
60068SOL    HW287255   0.638   3.493  11.103 -0.3669  0.0707  0.2929
60069SOL     OW87256  10.744   0.529  12.575 -0.8777  0.1224 -0.4867
60069SOL    HW187257  10.653   0.519  12.544 -1.2224  1.2443  0.0905
60069SOL    HW287258  10.774   0.609  12.533  0.3310 -0.9339 -1.7241
60070SOL     OW87259   4.194   1.106   8.763 -0.5335 -0.2808 -0.4913
60070SOL    HW187260   4.129   1.066   8.820  1.0018 -0.6641  1.0994
60070SOL    HW287261   4.278   1.073   8.795  0.4780  0.2473 -2.4058
60071SOL     OW87262  12.463   8.099   1.658  0.5041 -0.2650  0.1377
60071SOL    HW187263  12.477   8.027   1.719 -1.7399 -0.8948  0.0255
60071SOL    HW287264  12.374   8.130   1.678 -0.1215 -0.1853 -2.4163
60072SOL     OW87265   0.202   1.371   0.133  0.0098 -0.7430 -0.0596
60072SOL    HW187266   0.174   1.412   0.215 -1.8542  0.5374 -1.2610
60072SOL    HW287267   0.274   1.426   0.102 -0.5751 -0.0665 -0.2335
60073SOL     OW87268   3.745   4.734  12.077 -0.1748  0.7024  0.2346
60073SOL    HW187269   3.741   4.825  12.109  0.9767  0.8382  0.0518
60073SOL    HW287270   3.837   4.709  12.089 -0.4480 -0.3877  0.1199
60074SOL     OW87271   0.531   0.171   4.349 -0.3852  0.6002 -0.1477
60074SOL    HW187272   0.558   0.159   4.258  0.8526  1.6974  0.0265
60074SOL    HW287273   0.510   0.264   4.355 -1.6481  0.2995  0.4184
60075SOL     OW87274   4.334   1.349   9.002 -0.3983  0.1922 -0.0812
60075SOL    HW187275   4.423   1.338   8.970 -0.0188  0.2761  0.8938
60075SOL    HW287276   4.297   1.419   8.948  0.1288  0.1601 -0.4884
60076SOL     OW87277  10.483   4.806   6.146  0.3349  0.2491  0.1962
60076SOL    HW187278  10.505   4.770   6.232 -0.6579 -0.6624  0.0819
60076SOL    HW287279  10.397   4.845   6.158 -0.8672 -1.8862 -0.8963
60077SOL     OW87280   5.270   5.506   9.005 -0.6940 -0.1505  0.4376
60077SOL    HW187281   5.299   5.450   9.077  0.4579  0.5295  0.5175
60077SOL    HW287282   5.291   5.595   9.033 -3.5192  0.4894  0.7970
60078SOL     OW87283   8.863   4.160  11.264  0.0064  0.0193 -0.0536
60078SOL    HW187284   8.851   4.068  11.241  0.4197  0.0262 -0.3156
60078SOL    HW287285   8.926   4.158  11.336  0.7845  0.1414 -0.7068
60079SOL     OW87286   8.292  10.067   7.164 -0.5216  1.0536  0.0027
60079SOL    HW187287   8.370  10.038   7.211  0.1652 -0.1422 -1.7928
60079SOL    HW287288   8.232   9.993   7.168  0.0769  0.3778 -2.0583
60080SOL     OW87289   1.233   1.234   8.775 -0.2508 -0.2747 -0.3611
60080SOL    HW187290   1.273   1.317   8.800 -0.4154  0.1165 -1.3273
60080SOL    HW287291   1.304   1.171   8.776  0.4723  0.4399 -2.2168
60081SOL     OW87292   1.405   8.562   0.940 -0.6193  0.3140 -0.0673
60081SOL    HW187293   1.354   8.548   1.020 -1.1993 -2.6270 -0.8363
60081SOL    HW287294   1.466   8.489   0.937 -0.0640  0.7913 -1.9158
60082SOL     OW87295   9.558   2.622   6.764 -0.1051  0.5139  0.0424
60082SOL    HW187296   9.588   2.630   6.674  1.2972 -1.7475  0.2334
60082SOL    HW287297   9.466   2.596   6.756  0.1739 -0.2744 -0.7642
60083SOL     OW87298   4.308  11.297   5.146  0.0917  0.0390  0.0813
60083SOL    HW187299   4.320  11.239   5.221 -0.2627  0.6823  0.6497
60083SOL    HW287300   4.292  11.238   5.072 -0.5397 -0.5811  0.6975
60084SOL     OW87301  12.570   9.226  12.457  0.4319 -0.0433 -0.3177
60084SOL    HW187302  12.514   9.299  12.481  1.2909 -0.0468  1.9636
60084SOL    HW287303  12.542   9.154  12.515  1.9431 -0.4019  0.0208
60085SOL     OW87304   2.600  11.517  12.130  0.0699  0.1622  0.1784
60085SOL    HW187305   2.604  11.425  12.157  0.6701  0.2222  0.2974
60085SOL    HW287306   2.679  11.556  12.166 -0.3684  0.8167  0.4426
60086SOL     OW87307   4.551   8.803   8.857  0.2926  0.3377 -0.4565
60086SOL    HW187308   4.458   8.810   8.880  0.3389  3.6161 -0.6994
60086SOL    HW287309   4.555   8.734   8.791 -1.3816 -2.1780  1.8604
60087SOL     OW87310   2.522   5.719  11.981 -0.3211 -0.3085  0.2323
60087SOL    HW187311   2.551   5.792  11.926 -0.8711 -0.0665  0.2525
60087SOL    HW287312   2.431   5.705  11.955  0.2193 -2.0259 -0.8808
60088SOL     OW87313   2.093   5.926  10.555 -0.1406  0.6773 -0.0736
60088SOL    HW187314   2.011   5.961  10.589 -0.3657  2.4131 -2.2380
60088SOL    HW287315   2.117   5.984  10.483  1.2629 -1.7068 -1.6790
60089SOL     OW87316   8.808   2.764   6.979 -0.3473  0.1090 -0.5134
60089SOL    HW187317   8.777   2.777   7.069 -2.9661 -1.4065 -1.0954
60089SOL    HW287318   8.899   2.734   6.988 -0.7811 -0.6872  1.6619
60090SOL     OW87319   0.397   0.205   7.193  0.1958  0.5641  0.0399
60090SOL    HW187320   0.333   0.144   7.229 -0.3302  0.1892 -1.4772
60090SOL    HW287321   0.401   0.184   7.100 -0.5586  3.3283 -0.7139
60091SOL     OW87322   4.516   7.034  11.944  0.3134 -0.4077 -0.5066
60091SOL    HW187323   4.534   6.948  11.908 -1.4283 -1.4476  0.9021
60091SOL    HW287324   4.599   7.081  11.940  2.0028 -3.0503  1.0315
60092SOL     OW87325   9.792   1.301  12.387  0.1367 -0.0506 -0.4682
60092SOL    HW187326   9.768   1.217  12.346  0.7084 -0.6648  0.4182
60092SOL    HW287327   9.755   1.367  12.328 -1.2380 -0.9263 -0.6582
60093SOL     OW87328   0.868   4.019   0.809 -0.4565 -0.5202 -0.3559
60093SOL    HW187329   0.896   4.004   0.718 -0.5679 -1.3029 -0.2659
60093SOL    HW287330   0.945   4.056   0.852 -1.1798  2.4874 -1.4128
60094SOL     OW87331   9.270   7.153   7.501 -0.3405 -0.3124 -0.4869
60094SOL    HW187332   9.231   7.205   7.430  1.0198 -0.0901 -1.1171
60094SOL    HW287333   9.364   7.164   7.488 -0.0548 -1.5083  0.4599
60095SOL     OW87334   6.284   8.055   2.511  0.2192 -0.1726 -0.4133
60095SOL    HW187335   6.265   7.993   2.440 -0.4019 -0.4670  0.0020
60095SOL    HW287336   6.220   8.035   2.579  0.5009  0.4233  0.0440
60096SOL     OW87337   3.294   9.904  12.444 -0.6044 -0.5309  0.1581
60096SOL    HW187338   3.368   9.868  12.493 -2.8360 -3.0533  1.9348
60096SOL    HW287339   3.296   9.859  12.359  0.6142  0.4542 -0.3716
60097SOL     OW87340   1.895   5.591   5.465 -0.6561  0.7384  0.1966
60097SOL    HW187341   1.956   5.633   5.404  0.5065 -0.0470  0.7723
60097SOL    HW287342   1.830   5.549   5.409  0.1649  0.3545 -0.4914
60098SOL     OW87343   6.400   3.919   1.009  0.0951  0.2555 -0.4830
60098SOL    HW187344   6.457   3.934   0.934 -0.9251 -0.1359 -1.3593
60098SOL    HW287345   6.375   3.826   1.002  0.1365  0.1656  0.4424
60099SOL     OW87346   4.692   9.374   6.124 -0.1214 -0.1286 -0.9055
60099SOL    HW187347   4.654   9.286   6.115  1.3205 -0.6871 -1.8771
60099SOL    HW287348   4.666   9.420   6.044  2.1046 -0.8926 -2.1378
60100SOL     OW87349   3.670  12.338   1.686  0.0231 -0.1601 -0.3091
60100SOL    HW187350   3.709  12.349   1.599  0.8167 -1.1409 -0.0847
60100SOL    HW287351   3.629  12.423   1.703  0.3815  0.2573 -1.3763
60101SOL     OW87352   3.279   9.704   1.176 -0.0099 -0.2136 -0.5608
60101SOL    HW187353   3.267   9.609   1.185 -0.6267 -0.2023 -1.1810
60101SOL    HW287354   3.332   9.728   1.252  0.3554 -1.0887 -0.5198
60102SOL     OW87355   2.355   8.478   1.437  0.5003 -0.2596  0.3409
60102SOL    HW187356   2.377   8.475   1.530  0.1556  0.8283  0.4659
60102SOL    HW287357   2.397   8.400   1.400  3.4724  1.0019  0.7979
60103SOL     OW87358   6.421   1.426   6.655 -0.3937 -0.2710  0.3590
60103SOL    HW187359   6.477   1.365   6.606 -0.5246 -0.7075  0.7458
60103SOL    HW287360   6.347   1.372   6.684 -0.6537  0.1399  0.4624
60104SOL     OW87361   4.861   5.961   2.569  0.6694  0.1714  0.1836
60104SOL    HW187362   4.769   5.983   2.558  0.4527 -0.9906 -0.4643
60104SOL    HW287363   4.876   5.965   2.664 -0.5124 -1.3425  0.4727
60105SOL     OW87364   4.527   9.560   7.329 -0.2689  0.3769  0.2768
60105SOL    HW187365   4.462   9.587   7.264  0.7094  0.5476 -0.6592
60105SOL    HW287366   4.590   9.631   7.331  0.1217  0.0234  0.8707
60106SOL     OW87367   9.225   1.416  10.469 -0.1819 -0.6991 -0.2591
60106SOL    HW187368   9.187   1.503  10.477  0.2725 -0.5504  0.3272
60106SOL    HW287369   9.256   1.411  10.379  0.8481  0.1860  0.0359
60107SOL     OW87370   6.988   8.580   2.037 -0.0220  0.1969 -0.4487
60107SOL    HW187371   7.043   8.615   2.107  0.1283 -0.6256 -0.1570
60107SOL    HW287372   7.020   8.624   1.958  0.7386  0.0842 -0.2141
60108SOL     OW87373   9.204  12.032   0.099 -0.1719 -0.2535 -0.1879
60108SOL    HW187374   9.179  12.098   0.034  1.2508  0.8576  0.3455
60108SOL    HW287375   9.140  12.043   0.169 -0.1913  0.2787 -0.2826
60109SOL     OW87376  11.780  12.124   0.563 -0.8627  0.2247 -0.7811
60109SOL    HW187377  11.690  12.095   0.568 -0.4554 -0.9038  0.4538
60109SOL    HW287378  11.793  12.178   0.642 -0.1671 -0.5232 -0.3673
60110SOL     OW87379   7.087   7.693   4.631  0.1400 -0.0208  0.1337
60110SOL    HW187380   7.089   7.768   4.572  1.5859  0.3077  0.5436
60110SOL    HW287381   7.117   7.729   4.715 -0.4349 -0.7899  0.6780
60111SOL     OW87382   5.385   0.090  12.003 -0.1334  0.1704 -0.0636
60111SOL    HW187383   5.335   0.027  11.951 -2.2814 -0.3789  2.4618
60111SOL    HW287384   5.425   0.037  12.072 -0.5671  1.3208  1.1087
60112SOL     OW87385   8.556   5.973   5.571 -0.0941  0.0686 -0.3938
60112SOL    HW187386   8.479   6.027   5.586 -0.6293 -0.0711 -2.3261
60112SOL    HW287387   8.558   5.911   5.644 -1.8020  0.0979 -0.2962
60113SOL     OW87388   4.218   4.299   8.980 -0.5108  0.2483  0.2818
60113SOL    HW187389   4.195   4.206   8.985 -0.7212  0.2520 -0.4713
60113SOL    HW287390   4.270   4.315   9.059 -0.8136 -0.4096  0.6250
60114SOL     OW87391   4.927  10.338  11.544 -0.4412  0.6742 -0.6924
60114SOL    HW187392   4.973  10.411  11.501  0.0923  0.2850 -0.8029
60114SOL    HW287393   4.966  10.334  11.631 -1.3134  1.2728 -0.2623
60115SOL     OW87394   1.569   4.178   2.337 -0.2057 -0.0295  0.1544
60115SOL    HW187395   1.634   4.210   2.399  0.8241  0.7113 -1.2407
60115SOL    HW287396   1.584   4.083   2.333  0.5620  0.0846  0.1183
60116SOL     OW87397   7.127   7.569   8.671  0.0637 -0.1753 -0.3743
60116SOL    HW187398   7.176   7.606   8.744 -0.6512  0.7808 -0.3594
60116SOL    HW287399   7.166   7.483   8.656  0.5473 -0.1678  0.7975
60117SOL     OW87400   8.406   7.421   0.679 -0.1969  0.0517  0.0139
60117SOL    HW187401   8.443   7.333   0.670  1.0897  0.5631  0.0410
60117SOL    HW287402   8.312   7.407   0.685  0.0855 -1.4465  1.7783
60118SOL     OW87403  11.221   7.746   2.364  0.5446 -0.4598 -0.2290
60118SOL    HW187404  11.232   7.834   2.401  0.3017 -0.3694 -0.3686
60118SOL    HW287405  11.167   7.700   2.429 -0.1993 -0.1867 -0.6316
60119SOL     OW87406   3.256   8.734   1.451  0.2753 -0.0531  0.1498
60119SOL    HW187407   3.334   8.746   1.396 -0.9535 -0.5369 -1.7878
60119SOL    HW287408   3.223   8.822   1.466 -0.7964 -0.0091 -2.1065
60120SOL     OW87409   4.373   0.315   7.769  0.4638 -0.6455 -0.2387
60120SOL    HW187410   4.452   0.331   7.820  0.5003 -2.0724  0.2042
60120SOL    HW287411   4.392   0.236   7.720 -0.4110 -0.5704 -0.7224
60121SOL     OW87412  12.514   0.690  10.100  0.1649 -0.0461 -0.0434
60121SOL    HW187413  12.530   0.783  10.109 -1.2901  0.2759 -0.5670
60121SOL    HW287414  12.555   0.650  10.177  0.9304  0.9852  0.1027
60122SOL     OW87415   0.575   7.272   4.064  0.4042 -0.3457  0.1114
60122SOL    HW187416   0.650   7.327   4.043 -0.3927  0.3231 -1.1441
60122SOL    HW287417   0.559   7.222   3.983  0.1689 -1.2892  0.7248
60123SOL     OW87418   0.590   7.006   0.216 -0.2839  0.4167 -0.0850
60123SOL    HW187419   0.518   6.948   0.196  0.4178 -0.0791 -1.3023
60123SOL    HW287420   0.643   6.959   0.280 -1.1407  0.8900  1.0090
60124SOL     OW87421   0.398   1.728   1.912  0.3378 -0.6075 -0.5048
60124SOL    HW187422   0.316   1.709   1.958  0.8724 -1.6507  0.0737
60124SOL    HW287423   0.376   1.796   1.850 -0.8729 -0.5644 -0.0553
60125SOL     OW87424   5.570   3.952  10.683 -0.4617 -0.1730 -0.4783
60125SOL    HW187425   5.623   3.896  10.739 -0.5511 -0.1340 -0.3554
60125SOL    HW287426   5.497   3.897  10.656 -1.2303  0.2536  0.6594
60126SOL     OW87427   5.313   9.511  10.658 -0.0828 -0.4144  0.0668
60126SOL    HW187428   5.322   9.500  10.563 -0.0857  1.8772 -0.2705
60126SOL    HW287429   5.363   9.438  10.696 -0.1016 -1.3922 -1.6775
60127SOL     OW87430   0.868   1.266   2.022  0.2865 -0.4184 -0.0722
60127SOL    HW187431   0.960   1.260   2.047  0.1450 -0.3248  0.4812
60127SOL    HW287432   0.828   1.320   2.091  0.1969  1.2015 -1.3373
60128SOL     OW87433   3.474   9.453   7.287 -0.1830  0.0118 -0.2344
60128SOL    HW187434   3.432   9.408   7.360 -0.4031 -1.0606 -0.9874
60128SOL    HW287435   3.536   9.389   7.252  1.8695  1.4350  0.6273
60129SOL     OW87436   2.376   6.355   6.363 -0.2322 -0.3411 -0.2369
60129SOL    HW187437   2.416   6.338   6.278  1.1623  0.8907  0.1193
60129SOL    HW287438   2.291   6.394   6.343  0.4734  0.8357 -1.1267
60130SOL     OW87439   1.290   7.100   0.143 -0.1473 -0.8080 -0.1812
60130SOL    HW187440   1.384   7.088   0.153 -0.2739 -1.0826  0.7222
60130SOL    HW287441   1.277   7.195   0.142 -0.0859 -0.7189  2.1542
60131SOL     OW87442   8.938  11.899   1.200  0.0188 -0.2825  0.1879
60131SOL    HW187443   9.014  11.944   1.161 -0.4620  0.5374  0.1774
60131SOL    HW287444   8.895  11.966   1.252 -1.3641 -0.4223 -0.7440
60132SOL     OW87445   3.627   9.985   8.901  1.0082  0.0416 -0.2787
60132SOL    HW187446   3.658   9.900   8.872  0.3077  0.0343 -1.0323
60132SOL    HW287447   3.657   9.992   8.992  2.4249 -0.3221 -0.7064
60133SOL     OW87448  11.991   6.070   3.835 -0.3908  0.2282 -0.3119
60133SOL    HW187449  11.956   6.149   3.794  0.9576  1.0820  0.0866
60133SOL    HW287450  12.029   6.020   3.763 -3.3216 -1.3069 -0.9415
60134SOL     OW87451   5.319   2.173  12.271  0.9718  0.5482 -0.5381
60134SOL    HW187452   5.354   2.117  12.201  1.8265 -0.3261  0.5393
60134SOL    HW287453   5.236   2.132  12.294  1.2511  0.1450 -0.2435
60135SOL     OW87454   2.029   9.689   8.655 -0.3959 -0.2135  0.3263
60135SOL    HW187455   1.997   9.624   8.717 -0.3737 -0.0252  0.5319
60135SOL    HW287456   2.099   9.644   8.608  0.8518  0.2477  1.7041
60136SOL     OW87457   0.013   0.156   7.326 -0.5435 -0.4872 -0.1796
60136SOL    HW187458   0.072   0.092   7.286 -0.0486 -0.0666 -0.1399
60136SOL    HW287459   0.055   0.178   7.410 -0.4137  0.2825 -0.4295
60137SOL     OW87460   3.046   9.412   2.851 -0.2340  0.0957  0.1559
60137SOL    HW187461   2.973   9.399   2.911 -0.4198 -1.0857 -0.2814
60137SOL    HW287462   3.011   9.388   2.765  0.7921 -1.0361  0.0142
60138SOL     OW87463   0.583   5.908   9.230 -0.2879  0.9937 -0.4102
60138SOL    HW187464   0.522   5.856   9.177 -0.0405  0.3932 -0.1263
60138SOL    HW287465   0.549   5.900   9.319  0.6149  0.0007 -0.1249
60139SOL     OW87466  10.881   9.604   0.419 -0.2484 -0.7677  0.2571
60139SOL    HW187467  10.926   9.677   0.460  0.8111 -1.3455  0.1774
60139SOL    HW287468  10.904   9.528   0.474 -0.1036 -1.2806 -0.4961
60140SOL     OW87469   2.153   6.081   3.565 -0.4839 -0.1121 -0.1565
60140SOL    HW187470   2.133   6.020   3.636 -0.1385 -0.9221 -0.7387
60140SOL    HW287471   2.243   6.060   3.539 -0.4294  0.5103 -0.4997
60141SOL     OW87472   5.685   0.127   2.411  0.4095  0.2078 -0.1306
60141SOL    HW187473   5.675   0.107   2.504  0.2062 -0.0067 -0.1964
60141SOL    HW287474   5.622   0.197   2.396  0.7730  0.5625 -0.0064
60142SOL     OW87475  12.027   6.380   3.178 -0.1958  0.1164  0.9173
60142SOL    HW187476  11.999   6.422   3.097 -0.5313  0.2694  1.1106
60142SOL    HW287477  12.018   6.448   3.245  0.0392 -0.0213  1.0892
60143SOL     OW87478   4.552   7.486  10.029  0.5987  0.0791 -0.7705
60143SOL    HW187479   4.646   7.501  10.038  0.5993 -0.4899  0.3252
60143SOL    HW287480   4.518   7.492  10.119  0.0236 -2.5306 -0.7367
60144SOL     OW87481   2.752   7.849   7.557 -0.0356  0.5812 -0.2862
60144SOL    HW187482   2.664   7.867   7.526  0.4523  1.9636 -0.9916
60144SOL    HW287483   2.799   7.932   7.546  2.1307 -0.8054 -2.5982
60145SOL     OW87484  11.118   7.889   0.641  0.1581  0.2805  0.1307
60145SOL    HW187485  11.195   7.892   0.584  0.8204  1.2171  1.0406
60145SOL    HW287486  11.050   7.848   0.587  0.1407  2.9447 -2.1115
60146SOL     OW87487  12.461   0.484   0.948  0.0741  0.6056 -0.2533
60146SOL    HW187488  12.474   0.527   1.032 -0.9765  0.4574 -0.0112
60146SOL    HW287489  12.499   0.545   0.884 -0.4448  1.3987  0.1851
60147SOL     OW87490  10.650   6.099   1.031 -0.3306  0.4793 -0.3768
60147SOL    HW187491  10.745   6.102   1.043 -0.3910  0.5125  0.1034
60147SOL    HW287492  10.637   6.055   0.947  0.0687 -0.7019  0.1654
60148SOL     OW87493   9.599  12.168   1.130 -0.6552 -0.5054  0.2557
60148SOL    HW187494   9.649  12.096   1.168 -2.0291 -1.0013  1.1926
60148SOL    HW287495   9.586  12.143   1.039  3.6058  1.1927 -1.0722
60149SOL     OW87496   4.514  10.987   6.131  0.8119 -0.1861 -0.7111
60149SOL    HW187497   4.569  11.064   6.136 -0.2452  0.5616 -0.1012
60149SOL    HW287498   4.521  10.946   6.218 -0.3087  0.4506 -0.2984
60150SOL     OW87499   0.797   6.444   7.712 -0.2718  0.5930 -0.5046
60150SOL    HW187500   0.705   6.420   7.709 -0.3156  0.6874 -0.0291
60150SOL    HW287501   0.840   6.384   7.650 -0.2832 -1.1575  1.0953
60151SOL     OW87502   9.661   4.618   7.503  0.2810  0.2126 -0.1399
60151SOL    HW187503   9.650   4.622   7.598 -1.4201 -0.3173 -0.2878
60151SOL    HW287504   9.744   4.663   7.487  0.6856  0.1549  1.6031
60152SOL     OW87505   4.022  10.401   3.284  0.1449 -0.0442  0.3363
60152SOL    HW187506   4.079  10.326   3.299  0.1616  0.0471  0.7271
60152SOL    HW287507   3.944  10.364   3.244 -0.4573 -0.4682  1.8599
60153SOL     OW87508  10.883   6.580  11.713  0.0564 -0.4288 -0.1890
60153SOL    HW187509  10.815   6.589  11.647 -1.7077 -0.2337  1.5459
60153SOL    HW287510  10.848   6.516  11.775  1.1443  0.1886  1.1211
60154SOL     OW87511   4.934   2.578   3.224  0.5186 -0.3454 -0.0947
60154SOL    HW187512   4.991   2.633   3.278  0.7850  0.4312 -1.1389
60154SOL    HW287513   4.971   2.583   3.136 -1.9386  1.4199 -1.1473
60155SOL     OW87514   7.320   2.988  12.049  0.0293  0.1732  0.0300
60155SOL    HW187515   7.404   2.987  12.096  1.1311  0.4157 -1.8478
60155SOL    HW287516   7.285   2.900  12.062  0.9601 -0.1930  0.1758
60156SOL     OW87517  11.164   7.988   4.151  0.0512 -0.1440  0.4357
60156SOL    HW187518  11.134   8.069   4.110  0.6628 -0.9094 -1.6496
60156SOL    HW287519  11.086   7.951   4.192 -0.8578  0.1255 -1.0081
60157SOL     OW87520   4.069   1.057  11.414 -0.0937 -0.2409  0.2185
60157SOL    HW187521   4.048   1.148  11.434 -0.8528 -0.6882  1.6071
60157SOL    HW287522   4.164   1.056  11.399 -0.0403  0.7160  0.4639
60158SOL     OW87523   4.715  11.631   8.153  0.4613 -0.0248 -0.0355
60158SOL    HW187524   4.634  11.653   8.197 -0.2472 -0.9772 -0.8285
60158SOL    HW287525   4.769  11.710   8.162 -0.7813  0.8601 -0.0440
60159SOL     OW87526   5.900   3.077   5.372  0.3554  0.2223 -0.2503
60159SOL    HW187527   5.849   3.136   5.317 -1.6004  0.7704  2.0007
60159SOL    HW287528   5.922   3.129   5.449  2.5708 -0.6708 -0.2022
60160SOL     OW87529   1.529   2.081   1.328 -0.1914 -0.1145 -0.0738
60160SOL    HW187530   1.613   2.066   1.371 -0.9136 -0.6303  1.2134
60160SOL    HW287531   1.536   2.169   1.290  0.6392  0.1610  0.6955
60161SOL     OW87532   6.869  11.482   5.870  0.2849  0.6957  0.2344
60161SOL    HW187533   6.849  11.391   5.845  0.0349  0.8842 -0.2686
60161SOL    HW287534   6.931  11.474   5.942  2.5915  0.1183 -1.6830
60162SOL     OW87535   4.261   0.983   7.993  0.1332 -0.1463 -0.1299
60162SOL    HW187536   4.314   1.002   7.915  0.2242  0.4182  0.0656
60162SOL    HW287537   4.232   0.893   7.981 -2.0991  0.7258 -2.1597
60163SOL     OW87538   6.015  11.711   0.502 -0.1115  0.6979  0.4186
60163SOL    HW187539   5.961  11.680   0.575  1.7973  0.5928  1.8768
60163SOL    HW287540   6.057  11.790   0.536  1.2565  0.3314 -0.3374
60164SOL     OW87541  11.995   6.638   3.259  0.0483  0.0702  0.0183
60164SOL    HW187542  12.037   6.679   3.184  0.1100  0.1857  0.1158
60164SOL    HW287543  12.055   6.654   3.332  0.0305 -0.1173  0.0747
60165SOL     OW87544   4.169   3.738   6.274 -0.5288 -0.4853 -0.2469
60165SOL    HW187545   4.216   3.692   6.343  0.3790 -0.1498 -0.6214
60165SOL    HW287546   4.077   3.734   6.300 -0.2096 -0.4223  0.9478
60166SOL     OW87547  12.243   0.249   9.936 -0.4745 -0.2094 -0.5340
60166SOL    HW187548  12.269   0.172   9.885 -0.0315 -0.4838  0.1052
60166SOL    HW287549  12.219   0.314   9.869  0.0216 -0.5880 -1.0976
60167SOL     OW87550   3.023   1.345   6.831  0.5027 -0.3298  0.1941
60167SOL    HW187551   3.094   1.363   6.892  1.6981  1.3502 -1.5568
60167SOL    HW287552   3.065   1.300   6.758 -0.4894 -0.4735 -0.3022
60168SOL     OW87553  11.856   1.658  10.219  0.1117 -0.8167 -0.4583
60168SOL    HW187554  11.856   1.738  10.272  0.8324 -2.4083  2.1270
60168SOL    HW287555  11.843   1.689  10.129  1.2674  2.2708  0.2972
60169SOL     OW87556  11.898  10.665   6.063  0.4084 -0.7826  0.4441
60169SOL    HW187557  11.827  10.721   6.031  1.7486  0.1145 -1.1082
60169SOL    HW287558  11.951  10.722   6.119  1.6428 -0.4982 -0.9472
60170SOL     OW87559   3.995  10.663   1.899 -0.3595  0.1886 -0.2915
60170SOL    HW187560   3.985  10.673   1.804  0.8248 -1.5584 -0.6432
60170SOL    HW287561   4.084  10.694   1.917 -0.7219  0.8942  0.3275
60171SOL     OW87562   5.931   4.577  10.876  0.1670  0.2054  0.1884
60171SOL    HW187563   5.889   4.538  10.800  1.9162  0.4424 -0.9562
60171SOL    HW287564   6.010   4.525  10.889  0.7791  1.2446  0.7561
60172SOL     OW87565   2.485   2.445   4.344 -0.1580  0.0964 -0.1263
60172SOL    HW187566   2.580   2.445   4.343 -0.1555 -0.4670 -0.0473
60172SOL    HW287567   2.460   2.470   4.255  0.0678 -0.7525 -0.4388
60173SOL     OW87568   1.767   5.244   2.817  0.3218  0.1024  0.1852
60173SOL    HW187569   1.816   5.315   2.858 -0.6136  1.3850 -0.8198
60173SOL    HW287570   1.811   5.229   2.733 -0.5108  0.7379 -0.3830
60174SOL     OW87571   5.269  10.524   9.489  0.2468  0.6962  0.6000
60174SOL    HW187572   5.245  10.574   9.567 -2.4939  1.0128 -0.3237
60174SOL    HW287573   5.196  10.464   9.476  0.9805  0.1350 -1.3132
60175SOL     OW87574   7.889   1.793   7.739 -0.4853 -0.1902 -0.4695
60175SOL    HW187575   7.964   1.741   7.709  1.1052  1.3687  0.6181
60175SOL    HW287576   7.894   1.874   7.688  0.4052  1.1787  1.6674
60176SOL     OW87577   3.905   9.844   1.188 -0.1900 -0.2896  0.1857
60176SOL    HW187578   3.823   9.840   1.238 -1.1946 -0.0693 -1.3843
60176SOL    HW287579   3.917   9.755   1.154 -0.3382 -0.0814 -0.4282
60177SOL     OW87580  11.958   4.955   7.221  0.3247 -0.2607 -0.5265
60177SOL    HW187581  11.937   4.866   7.193  0.0645 -1.5677  3.2388
60177SOL    HW287582  12.054   4.959   7.217  0.2822  0.1484 -2.6963
60178SOL     OW87583   8.853   2.814  11.213  0.2485 -0.5849 -0.2727
60178SOL    HW187584   8.837   2.756  11.288 -1.4880  0.4408  0.1964
60178SOL    HW287585   8.785   2.791  11.150 -1.4778  1.8968  0.5396
60179SOL     OW87586  11.236   8.775   3.087 -0.0243  0.0986  0.2904
60179SOL    HW187587  11.231   8.687   3.125  1.0713  0.7923  2.1388
60179SOL    HW287588  11.285   8.763   3.006 -1.3736 -1.2256 -0.3965
60180SOL     OW87589  12.031  11.578   3.479  0.2970 -0.1665  0.3960
60180SOL    HW187590  11.951  11.526   3.468  0.6835 -0.7261  0.1371
60180SOL    HW287591  12.101  11.516   3.459  0.8609 -0.0180  1.8098
60181SOL     OW87592   3.338   1.627   9.895 -0.7219 -0.3716 -0.1169
60181SOL    HW187593   3.376   1.696   9.840  0.5843 -0.3365  0.7871
60181SOL    HW287594   3.360   1.545   9.850  2.7641 -0.5487  1.6009
60182SOL     OW87595  11.720   1.186   7.033 -0.2022 -0.1596  0.7701
60182SOL    HW187596  11.803   1.209   7.075  0.4288 -3.7120  1.8782
60182SOL    HW287597  11.738   1.189   6.939  0.9618 -0.0927  0.9793
60183SOL     OW87598   7.720   8.424   5.077 -0.2565  0.1120  0.2677
60183SOL    HW187599   7.685   8.360   5.015 -0.2790 -0.1962  0.5977
60183SOL    HW287600   7.814   8.422   5.062 -0.2437 -0.1035  0.3790
60184SOL     OW87601  11.859   1.729   4.650 -0.1216 -0.2491 -0.0175
60184SOL    HW187602  11.903   1.716   4.734 -1.6170  1.2957  1.0646
60184SOL    HW287603  11.767   1.739   4.672 -0.3656  1.7633 -1.6420
60185SOL     OW87604   1.413   4.271   0.105  0.0510 -0.5765  0.4456
60185SOL    HW187605   1.429   4.268   0.010 -0.6118  0.8541  0.2795
60185SOL    HW287606   1.428   4.180   0.134 -1.1031 -1.3575 -1.2437
60186SOL     OW87607   5.288   3.697   5.786  0.1755 -0.3352  0.1184
60186SOL    HW187608   5.261   3.606   5.772  0.1019 -0.5502  1.4979
60186SOL    HW287609   5.239   3.747   5.722 -2.4481 -0.8870  1.5593
60187SOL     OW87610   6.749   0.929   8.841  0.3844  0.1183 -0.4515
60187SOL    HW187611   6.831   0.935   8.889  0.2324 -0.0720 -0.1627
60187SOL    HW287612   6.771   0.953   8.751  0.6050  0.8089 -0.2134
60188SOL     OW87613   6.341   7.499   6.629  0.6596  0.0176  0.0887
60188SOL    HW187614   6.336   7.554   6.707 -2.1903  0.8048 -0.5243
60188SOL    HW287615   6.365   7.559   6.558  1.7998 -0.4123  0.0925
60189SOL     OW87616   6.925   2.883   5.479  0.3642 -0.3358  0.6654
60189SOL    HW187617   6.850   2.937   5.453  1.0110  0.5750  0.6548
60189SOL    HW287618   6.966   2.931   5.551  0.8327 -0.9222  0.7962
60190SOL     OW87619   0.049   6.391   6.269 -0.1541  0.3240  0.2924
60190SOL    HW187620  -0.034   6.436   6.251 -0.7863 -1.4026 -1.4661
60190SOL    HW287621   0.115   6.443   6.224 -0.5683  0.6692  0.0762
60191SOL     OW87622  11.631  11.873   8.543 -0.0065  0.2457 -0.2022
60191SOL    HW187623  11.542  11.858   8.573 -1.0204  0.5076 -2.8204
60191SOL    HW287624  11.622  11.929   8.466  1.9043 -3.2729 -3.3192
60192SOL     OW87625   8.719   4.854   4.623  0.1404 -0.2186  0.1760
60192SOL    HW187626   8.636   4.902   4.619 -0.0854 -0.5791  0.4645
60192SOL    HW287627   8.714   4.790   4.552 -0.5989 -1.4383  1.2703
60193SOL     OW87628   0.129   7.521   7.892  0.2583  0.0046 -0.2584
60193SOL    HW187629   0.091   7.455   7.833 -0.2897 -0.6259  0.7712
60193SOL    HW287630   0.094   7.499   7.978 -0.6476  2.1523 -0.0000
60194SOL     OW87631   7.731   6.561   0.696 -0.2525  0.3108 -0.2465
60194SOL    HW187632   7.741   6.647   0.654  0.1228  0.0158 -0.7826
60194SOL    HW287633   7.718   6.501   0.622 -0.9488 -0.0301  0.1527
60195SOL     OW87634   4.277  11.499   2.559 -0.1235 -0.1435 -0.4227
60195SOL    HW187635   4.183  11.515   2.551 -0.1062  1.4606  1.7199
60195SOL    HW287636   4.317  11.584   2.546  0.8248 -0.3142  1.1614
60196SOL     OW87637   7.531   3.502   0.446  0.2219 -0.1603 -0.1423
60196SOL    HW187638   7.559   3.472   0.359 -0.6975  1.4246 -1.0361
60196SOL    HW287639   7.444   3.463   0.457  0.7285 -1.1375  0.5092
60197SOL     OW87640   0.202   5.983  10.027  0.3929 -0.1777  0.3249
60197SOL    HW187641   0.215   5.898  10.069  0.0940  0.3534  1.5224
60197SOL    HW287642   0.109   5.985  10.006  0.3684 -0.0768  0.4445
60198SOL     OW87643   3.300   4.555   9.089  0.1132  0.4040 -0.4303
60198SOL    HW187644   3.237   4.482   9.085 -0.0921  0.6114 -1.0964
60198SOL    HW287645   3.309   4.574   9.182 -0.7410  0.3050 -0.3230
60199SOL     OW87646   1.702   3.425   1.074 -0.3813 -0.0221  0.1431
60199SOL    HW187647   1.668   3.352   1.126 -1.2224 -0.8588 -1.5029
60199SOL    HW287648   1.624   3.465   1.035  0.2758 -0.2266 -1.4709
60200SOL     OW87649   2.490   6.936   5.767  0.6252 -0.1717 -0.3494
60200SOL    HW187650   2.518   6.925   5.858 -0.3012 -1.6707 -0.2296
60200SOL    HW287651   2.397   6.955   5.772  0.4034 -1.0318 -1.0181
60201SOL     OW87652   2.170  11.605   5.631  0.0587 -0.0909  0.3816
60201SOL    HW187653   2.221  11.532   5.596 -0.6915  0.2287 -1.4929
60201SOL    HW287654   2.184  11.600   5.726  0.7001 -2.1393  0.2434
60202SOL     OW87655  10.948   2.067   5.038  0.2720 -0.0193 -0.4522
60202SOL    HW187656  10.915   2.095   5.124 -0.1326  1.9507 -1.1935
60202SOL    HW287657  11.022   2.010   5.058 -1.0997 -1.3471  1.2127
60203SOL     OW87658   8.849   4.305   9.920 -0.4672  0.1482 -0.1664
60203SOL    HW187659   8.936   4.331   9.892 -0.3364 -0.0158  0.0743
60203SOL    HW287660   8.863   4.263  10.005 -0.7368 -0.1972 -0.2890
60204SOL     OW87661   8.397   1.532   3.277  0.1131  0.0213 -0.3851
60204SOL    HW187662   8.439   1.574   3.352 -1.4584  1.0685 -0.0439
60204SOL    HW287663   8.354   1.455   3.314 -1.1748  0.8678 -0.0517
60205SOL     OW87664   3.620  11.829   4.679 -0.2473  0.0783  0.6361
60205SOL    HW187665   3.541  11.840   4.625 -0.1778  0.1615  0.5504
60205SOL    HW287666   3.687  11.878   4.632  0.6800 -2.5664 -1.0129
60206SOL     OW87667  11.813   1.587  11.396 -0.6229 -0.4261 -0.3613
60206SOL    HW187668  11.883   1.522  11.394  1.7757  2.0008 -0.9868
60206SOL    HW287669  11.759   1.567  11.320 -0.1431 -1.8494 -0.3587
60207SOL     OW87670   6.149  10.121   4.700  0.3938 -0.5520 -0.1479
60207SOL    HW187671   6.241  10.109   4.725  0.6487 -0.5327 -1.0557
60207SOL    HW287672   6.125  10.037   4.661 -0.5894 -1.2842  1.8915
60208SOL     OW87673   0.106  10.108   1.220 -0.2547 -0.5019  0.3140
60208SOL    HW187674   0.127  10.176   1.156  0.0017  0.8933  1.8335
60208SOL    HW287675   0.175  10.115   1.286 -2.1197  0.0990  2.2784
60209SOL     OW87676   1.668   0.213   4.874 -0.9971 -0.1744  0.1064
60209SOL    HW187677   1.608   0.237   4.945  0.6917  0.8459  1.2727
60209SOL    HW287678   1.748   0.185   4.919 -0.2783 -0.6642 -1.4019
60210SOL     OW87679   4.582   4.300   1.484  0.1610 -0.1799 -0.1806
60210SOL    HW187680   4.646   4.262   1.544 -0.5371  0.1122  0.7650
60210SOL    HW287681   4.498   4.265   1.514 -0.5963  2.4853  1.0916
60211SOL     OW87682   1.481   2.231   6.246 -0.5220  0.1774 -0.0862
60211SOL    HW187683   1.418   2.303   6.254  0.5640  1.1689 -0.2104
60211SOL    HW287684   1.557   2.259   6.296  0.2031 -0.5689 -0.7324
60212SOL     OW87685   4.371  11.532  10.503 -0.2711 -0.4810 -0.2599
60212SOL    HW187686   4.411  11.607  10.458 -1.7012 -0.1799 -1.1091
60212SOL    HW287687   4.389  11.547  10.595  0.4636  0.2997 -0.5180
60213SOL     OW87688   4.666   4.323   6.446  0.2885  0.1590  0.5824
60213SOL    HW187689   4.706   4.304   6.531 -1.4639  0.5539  1.5531
60213SOL    HW287690   4.736   4.363   6.395  2.3735 -3.0710  0.6083
60214SOL     OW87691   3.658   4.678   2.094 -0.3181 -0.3796 -0.1455
60214SOL    HW187692   3.592   4.748   2.090 -0.9481 -0.9250  0.3344
60214SOL    HW287693   3.706   4.685   2.012 -1.1297 -0.1010 -0.6125
60215SOL     OW87694   6.233   4.649   1.689  0.5387 -0.0189  0.2156
60215SOL    HW187695   6.305   4.626   1.748  2.3098 -0.6053 -2.0294
60215SOL    HW287696   6.256   4.734   1.653 -0.8760  0.6675  0.8448
60216SOL     OW87697  10.323  11.667  11.117  0.3258  0.2814 -0.5075
60216SOL    HW187698  10.411  11.673  11.157  0.1677 -0.2515 -0.0630
60216SOL    HW287699  10.333  11.707  11.031  1.4036 -1.1896 -1.1072
60217SOL     OW87700   8.901  11.898  10.552 -0.5585 -0.5349  0.2302
60217SOL    HW187701   8.974  11.905  10.492 -0.1519  0.5019  0.8090
60217SOL    HW287702   8.858  11.984  10.548  0.0411 -0.0846  2.0718
60218SOL     OW87703   1.329  11.349   9.763 -0.0981 -0.5399  0.0828
60218SOL    HW187704   1.407  11.396   9.793 -0.2578 -1.3454  1.8798
60218SOL    HW287705   1.278  11.415   9.715  1.1384  0.2919 -0.1250
60219SOL     OW87706  12.415   9.394   0.077 -0.3346  0.1298  0.0472
60219SOL    HW187707  12.426   9.488   0.093 -0.0456  0.1139 -0.0630
60219SOL    HW287708  12.420   9.354   0.164  1.4218  0.0241 -0.0782
60220SOL     OW87709   9.102  10.507   7.001  0.1536  0.1983 -0.4211
60220SOL    HW187710   9.039  10.526   6.932  1.4074  0.4444 -1.5276
60220SOL    HW287711   9.140  10.592   7.024  0.3550  0.0040 -0.0118
60221SOL     OW87712   8.873   8.607   0.299 -0.0111  0.1825 -0.0937
60221SOL    HW187713   8.949   8.549   0.292  0.1019  0.4928 -1.7549
60221SOL    HW287714   8.798   8.548   0.295  0.1175  0.0475 -0.5325
60222SOL     OW87715   1.712   9.956   1.000 -0.2783 -0.2806  0.1787
60222SOL    HW187716   1.764   9.941   0.922  0.5187 -1.3953  0.8969
60222SOL    HW287717   1.737   9.886   1.060 -1.9659 -0.3249  0.8831
60223SOL     OW87718   4.169   3.967  11.701  0.2388 -0.4259  0.4593
60223SOL    HW187719   4.165   3.976  11.796 -0.4359  1.2521  0.3135
60223SOL    HW287720   4.223   4.041  11.672  0.5690 -1.0124 -0.4446
60224SOL     OW87721   9.316   3.640   0.144 -0.1314  0.1488  0.5833
60224SOL    HW187722   9.225   3.639   0.115 -0.4369 -0.6111  1.5232
60224SOL    HW287723   9.325   3.723   0.190 -0.2742  0.3360  0.2819
60225SOL     OW87724  10.395  11.991   5.203  0.5060 -0.1806  0.2443
60225SOL    HW187725  10.434  12.074   5.178 -0.8279  0.6491  0.8052
60225SOL    HW287726  10.437  11.969   5.286  0.3095  0.3444  0.4892
60226SOL     OW87727   4.701   5.203   1.816 -0.0413 -0.4631 -0.1463
60226SOL    HW187728   4.756   5.151   1.875  0.5632 -0.5166 -0.7493
60226SOL    HW287729   4.763   5.254   1.764 -0.4547 -1.6591 -1.9100
60227SOL     OW87730   8.203   7.815   2.588 -0.1923  0.0494  0.0176
60227SOL    HW187731   8.191   7.797   2.682  1.6958  1.1735  0.5230
60227SOL    HW287732   8.297   7.824   2.577 -0.4886  1.5117 -1.6988
60228SOL     OW87733   5.678   1.664   9.807 -0.4524  0.0549 -0.1229
60228SOL    HW187734   5.744   1.692   9.871  2.2456  1.0140 -3.0376
60228SOL    HW287735   5.598   1.710   9.833  0.2031 -0.3572  3.0185
60229SOL     OW87736   6.986   3.967   3.438  0.1506  0.7152 -0.1991
60229SOL    HW187737   6.938   3.935   3.514  0.3405 -0.0902 -0.4006
60229SOL    HW287738   7.036   3.891   3.408  1.3354  1.4530 -0.1534
60230SOL     OW87739   7.557   6.263  12.138 -0.8722 -0.8309 -0.5093
60230SOL    HW187740   7.518   6.233  12.220  0.4383  0.1752  0.5402
60230SOL    HW287741   7.623   6.326  12.165  0.8835 -1.8172 -2.2223
60231SOL     OW87742  11.936   0.178   8.629 -0.0522  0.3474 -0.2057
60231SOL    HW187743  12.004   0.204   8.691  2.6865 -1.3200 -2.2799
60231SOL    HW287744  11.917   0.258   8.579  1.4241  0.5779 -0.4482
60232SOL     OW87745   5.875   8.023   4.086 -0.2641  0.3461 -0.3014
60232SOL    HW187746   5.841   7.942   4.048  0.2876  0.0526 -0.1872
60232SOL    HW287747   5.960   8.035   4.045 -1.6324  2.6419 -2.7880
60233SOL     OW87748   8.850   0.946   5.421 -0.1625 -0.1070 -0.2503
60233SOL    HW187749   8.854   0.908   5.333 -0.3930  0.9592 -0.7396
60233SOL    HW287750   8.801   0.882   5.472 -0.5876 -0.4464 -1.0546
60234SOL     OW87751  11.201   7.846   7.356  0.5033  0.5677 -0.7336
60234SOL    HW187752  11.158   7.899   7.422  0.3558  0.1473 -0.4873
60234SOL    HW287753  11.137   7.839   7.285  0.7552  1.2249 -1.0384
60235SOL     OW87754  10.469   1.789   2.209  0.3631 -0.3235 -0.2788
60235SOL    HW187755  10.522   1.859   2.169  0.6320  0.1697  0.8972
60235SOL    HW287756  10.392   1.782   2.153 -0.8393  2.5698  0.8183
60236SOL     OW87757   0.848   0.956   8.792  0.2992  0.6332  0.1777
60236SOL    HW187758   0.867   0.896   8.864 -2.2077 -1.0016 -0.3725
60236SOL    HW287759   0.894   0.918   8.717 -1.4500 -0.8208 -0.2156
60237SOL     OW87760   7.001   0.888   8.945  0.4577 -0.1964  0.1151
60237SOL    HW187761   7.059   0.822   8.981  2.6653  0.4118 -2.0799
60237SOL    HW287762   7.041   0.972   8.968 -0.6609  0.3090  0.2949
60238SOL     OW87763   3.788   9.463   7.126  0.3742 -0.8010  0.8121
60238SOL    HW187764   3.760   9.548   7.160 -1.6906 -1.7725  1.6900
60238SOL    HW287765   3.877   9.451   7.161 -0.1485  0.0288  2.5430
60239SOL     OW87766   6.084   2.007   1.444 -0.3037  0.0034 -0.2365
60239SOL    HW187767   5.991   2.023   1.429 -0.5611 -2.0107 -1.0260
60239SOL    HW287768   6.111   2.078   1.502 -2.2546  0.7950 -0.2245
60240SOL     OW87769  11.553   5.065   9.195 -0.4250  0.1831 -0.5525
60240SOL    HW187770  11.509   5.029   9.272 -2.6639  0.0324 -1.8153
60240SOL    HW287771  11.483   5.082   9.133  1.2837  0.3986 -2.5518
60241SOL     OW87772  11.906  10.326   3.370 -0.0475  0.2746  0.6379
60241SOL    HW187773  11.943  10.357   3.287  0.2063 -0.5939  0.4172
60241SOL    HW287774  11.915  10.231   3.366  1.8202  0.2933  2.5091
60242SOL     OW87775   6.371  10.684   4.449  0.6514  0.3321 -0.1140
60242SOL    HW187776   6.321  10.759   4.418 -1.4671 -0.6704  0.7183
60242SOL    HW287777   6.374  10.694   4.544  2.0578  0.3448 -0.1310
60243SOL     OW87778   9.189   3.250   0.537 -0.4744 -0.3865 -0.0810
60243SOL    HW187779   9.161   3.240   0.629  0.7084 -0.3316  0.3018
60243SOL    HW287780   9.156   3.335   0.511 -0.0405 -0.0037  0.5942
60244SOL     OW87781   8.350   6.338   0.449 -0.7457  0.1995 -0.2909
60244SOL    HW187782   8.351   6.384   0.366 -0.6861 -0.7411 -0.8266
60244SOL    HW287783   8.355   6.245   0.425 -0.3170 -0.0670  0.7737
60245SOL     OW87784   8.258   1.570   5.935 -0.0673 -0.0834  0.2685
60245SOL    HW187785   8.178   1.618   5.956 -0.1615  0.6824 -1.6390
60245SOL    HW287786   8.322   1.639   5.914 -0.1328 -0.7210 -2.2972
60246SOL     OW87787   6.522   5.891   0.054 -0.1444 -0.5532  0.1806
60246SOL    HW187788   6.487   5.848   0.132  0.2669 -1.8729 -0.3386
60246SOL    HW287789   6.582   5.957   0.088 -0.7970 -0.3492  0.9967
60247SOL     OW87790   7.164   7.529   0.346 -0.0980  0.7239 -0.5236
60247SOL    HW187791   7.251   7.514   0.382 -0.6959  0.0114  0.7058
60247SOL    HW287792   7.173   7.609   0.294  1.0717  1.1859  0.3386
60248SOL     OW87793  12.149  11.678   9.088  0.5945  0.5863 -0.6644
60248SOL    HW187794  12.189  11.675   9.175  1.9512 -2.3109 -1.2648
60248SOL    HW287795  12.062  11.716   9.103  0.8711  0.4078  1.9070
60249SOL     OW87796   8.291   4.167   5.323 -0.6643 -0.7698  0.3317
60249SOL    HW187797   8.369   4.218   5.304 -0.5672 -0.8661  0.4733
60249SOL    HW287798   8.322   4.093   5.376 -0.7414 -1.2015 -0.2185
60250SOL     OW87799   3.655   1.786   9.052  0.1628  0.2251  0.2871
60250SOL    HW187800   3.742   1.748   9.064 -0.0766 -0.6951 -0.7269
60250SOL    HW287801   3.636   1.829   9.135  1.7970  0.8882  0.3527
60251SOL     OW87802   7.852   1.262   3.063  1.0088  0.2390 -0.2476
60251SOL    HW187803   7.943   1.251   3.035  0.2351 -0.2954 -2.8672
60251SOL    HW287804   7.801   1.210   3.001 -1.0331 -0.5727  1.9415
60252SOL     OW87805   9.352   6.992  10.732 -0.1028  0.2354  0.0842
60252SOL    HW187806   9.292   6.965  10.663 -0.5894 -0.2607  0.6989
60252SOL    HW287807   9.364   7.086  10.717  2.6499 -0.3965 -2.8915
60253SOL     OW87808   6.166   5.167   3.067 -0.1634 -0.2289 -0.0926
60253SOL    HW187809   6.142   5.258   3.079 -1.4335 -0.7388  1.5279
60253SOL    HW287810   6.120   5.120   3.137  1.3685 -1.9676 -0.1765
60254SOL     OW87811   6.192   4.305   6.542  0.3297  0.4308  0.3846
60254SOL    HW187812   6.262   4.348   6.494  0.4921  0.3764  0.5690
60254SOL    HW287813   6.133   4.271   6.475  1.0497 -0.4786  0.1960
60255SOL     OW87814   6.519   2.428  12.191 -0.2060 -0.1155  0.2763
60255SOL    HW187815   6.539   2.486  12.264 -2.1731  1.8403 -0.6283
60255SOL    HW287816   6.426   2.443  12.173 -0.5053 -2.7048 -0.7928
60256SOL     OW87817   6.685   1.563   6.455 -1.0141 -0.6691  0.3152
60256SOL    HW187818   6.677   1.593   6.364  0.5045  0.3863  0.4940
60256SOL    HW287819   6.614   1.607   6.501  0.2319  1.5029  0.2578
60257SOL     OW87820   3.042   0.791   2.672  0.3592 -0.4413  0.0448
60257SOL    HW187821   3.099   0.730   2.624  0.9977  0.6663 -0.6559
60257SOL    HW287822   3.088   0.875   2.667 -0.4118  0.0671  1.1516
60258SOL     OW87823   9.740   7.505   1.957  0.7296  0.1930 -0.1991
60258SOL    HW187824   9.659   7.555   1.950  1.7574  1.6972 -3.4731
60258SOL    HW287825   9.801   7.550   1.899  3.3583 -1.9836  0.6521
60259SOL     OW87826   3.135  11.781   5.324 -0.5927 -0.7296 -0.0059
60259SOL    HW187827   3.192  11.858   5.313  0.5153 -1.5723 -0.3199
60259SOL    HW287828   3.047  11.818   5.330 -0.1425  0.5361 -0.7072
60260SOL     OW87829   2.444   6.353   9.392  0.2199 -0.4663  0.6642
60260SOL    HW187830   2.531   6.384   9.417 -0.3878  0.2650  2.0036
60260SOL    HW287831   2.401   6.431   9.357  0.0148 -0.7602  0.2589
60261SOL     OW87832  10.068   0.884   9.604 -0.8143 -0.4302  0.2835
60261SOL    HW187833  10.079   0.929   9.687 -1.0342 -0.0513  0.1097
60261SOL    HW287834  10.155   0.848   9.584 -0.2756  1.0601 -0.2311
60262SOL     OW87835   2.998   9.883  11.573  0.2256  0.0093 -0.2327
60262SOL    HW187836   2.969   9.832  11.648  0.4901 -2.3809 -1.6447
60262SOL    HW287837   2.917   9.913  11.532 -0.1650 -2.0879 -1.1491
60263SOL     OW87838   0.453   0.599   3.313 -0.0378  0.0275  0.0564
60263SOL    HW187839   0.380   0.623   3.370 -1.3626 -1.2067 -1.0209
60263SOL    HW287840   0.485   0.515   3.347  0.3162  0.1508  0.0300
60264SOL     OW87841   9.420   7.240  10.905 -0.1734  0.1896  0.3850
60264SOL    HW187842   9.346   7.271  10.853  0.0727 -0.7537 -0.5602
60264SOL    HW287843   9.471   7.319  10.923 -0.3684  0.5802 -0.6628
60265SOL     OW87844   2.346   5.640   2.953  0.2294  0.3105 -0.4606
60265SOL    HW187845   2.315   5.579   2.886 -0.1066  2.2270 -2.1437
60265SOL    HW287846   2.408   5.589   3.005 -0.4943 -1.6200 -1.3845
60266SOL     OW87847   2.280  11.292   9.618 -0.2593  0.2532  0.2477
60266SOL    HW187848   2.252  11.365   9.674  0.9064  0.4343  0.6178
60266SOL    HW287849   2.225  11.218   9.646  0.1739  0.3889  1.5042
60267SOL     OW87850   2.569   4.055  12.251 -0.0441 -0.2100 -0.1039
60267SOL    HW187851   2.559   3.966  12.284 -1.1596 -0.1644 -0.2869
60267SOL    HW287852   2.565   4.110  12.329 -0.1780 -0.2662 -0.0716
60268SOL     OW87853   6.199   2.936   8.541  0.0732 -0.0942  0.2421
60268SOL    HW187854   6.243   2.929   8.455 -0.8197 -1.6327 -0.1262
60268SOL    HW287855   6.241   2.868   8.594 -0.8782 -0.6397  0.3164
60269SOL     OW87856   5.892  11.976  11.281 -0.2956  0.7013 -0.5212
60269SOL    HW187857   5.974  11.944  11.317 -0.4584  0.1557 -0.6181
60269SOL    HW287858   5.893  12.070  11.296 -0.3101  0.5048  0.8171
60270SOL     OW87859   6.702   6.690   1.336 -0.4401  0.3319 -0.6284
60270SOL    HW187860   6.780   6.635   1.346  0.0666  0.9305 -1.1662
60270SOL    HW287861   6.732   6.778   1.356 -1.0501  0.5353 -0.5759
60271SOL     OW87862   4.821  12.210   9.025  0.8984  0.5318 -0.0495
60271SOL    HW187863   4.745  12.164   9.060  0.9474  0.5536  0.0874
60271SOL    HW287864   4.809  12.207   8.930  0.5761  0.7906 -0.0216
60272SOL     OW87865   5.700   3.891   5.838  0.4866  0.2421  0.6978
60272SOL    HW187866   5.791   3.862   5.829 -0.1339 -2.4353  2.0411
60272SOL    HW287867   5.658   3.864   5.756  0.3800 -0.8767  1.1037
60273SOL     OW87868  11.997  11.045   5.865 -0.8164 -0.2425  0.7073
60273SOL    HW187869  12.007  11.022   5.957  1.1102  0.1509  0.6197
60273SOL    HW287870  11.914  11.003   5.839 -0.7329 -1.4532  2.2684
60274SOL     OW87871   6.011   0.890   0.300  0.8007 -0.3790  0.4648
60274SOL    HW187872   5.938   0.919   0.246  0.0596 -1.4683  0.8535
60274SOL    HW287873   6.028   0.963   0.359  0.6997  0.2704 -0.2887
60275SOL     OW87874   1.717  11.642   0.587  0.2051  0.5592  0.2848
60275SOL    HW187875   1.673  11.565   0.623 -0.5821  0.8356 -0.0465
60275SOL    HW287876   1.741  11.618   0.498  1.6157  0.0809  0.7697
60276SOL     OW87877   2.097   9.683   2.324  0.2652 -0.0590 -0.2332
60276SOL    HW187878   2.074   9.677   2.232  0.0398 -1.2140 -0.1196
60276SOL    HW287879   2.015   9.706   2.368  0.2266 -0.1360 -0.2636
60277SOL     OW87880   6.899   9.361   1.708 -0.6179 -0.2161 -0.0934
60277SOL    HW187881   6.969   9.326   1.763 -0.5233  1.0377  0.6115
60277SOL    HW287882   6.827   9.299   1.719  0.4702 -1.7914 -1.1838
60278SOL     OW87883  11.043   1.771  11.257  0.1652 -0.4255 -0.2544
60278SOL    HW187884  11.032   1.865  11.273 -1.1876 -0.9455  2.5669
60278SOL    HW287885  10.964   1.745  11.211  0.1432 -0.3338 -0.2706
60279SOL     OW87886   6.471   5.520  11.806 -0.1400 -0.2625  0.6669
60279SOL    HW187887   6.403   5.501  11.871  0.4387 -2.4262  0.6992
60279SOL    HW287888   6.519   5.593  11.844 -1.3732  0.1939  1.4408
60280SOL     OW87889   0.895   6.702  11.104  0.2096  0.1950  0.1601
60280SOL    HW187890   0.877   6.749  11.185 -0.0780 -0.4567  0.4762
60280SOL    HW287891   0.898   6.771  11.037 -2.6548  0.4982  0.1950
60281SOL     OW87892   6.120   3.540   2.156  0.0006  0.4466 -0.7371
60281SOL    HW187893   6.104   3.599   2.229 -0.0948 -1.3390  0.7840
60281SOL    HW287894   6.050   3.559   2.093 -0.9721  0.8741  0.4308
60282SOL     OW87895  10.986  10.473   8.206  0.0154  0.2738 -0.1935
60282SOL    HW187896  10.999  10.568   8.201 -1.7610  0.6058  0.7179
60282SOL    HW287897  10.934  10.452   8.128 -1.3615  0.4266  0.6476
60283SOL     OW87898   9.048   7.208  12.070 -0.8669 -0.4227  0.0780
60283SOL    HW187899   9.139   7.219  12.099 -0.4316  0.6203 -1.5493
60283SOL    HW287900   9.024   7.292  12.031 -1.8273 -1.2888 -1.3269
60284SOL     OW87901   2.688   2.028   3.157  0.2811 -0.0406 -0.0169
60284SOL    HW187902   2.740   1.965   3.107  0.5765  1.0438 -1.1224
60284SOL    HW287903   2.627   1.974   3.207  1.4650 -1.2692  0.1746
60285SOL     OW87904   6.059   6.170   5.730 -0.7646  0.0813 -0.7317
60285SOL    HW187905   6.043   6.104   5.662 -2.0037  0.1508 -0.5292
60285SOL    HW287906   6.060   6.253   5.683  0.3335 -0.0283 -0.9226
60286SOL     OW87907  10.550  12.316  10.112  0.0945 -0.0304 -0.3430
60286SOL    HW187908  10.510  12.397  10.144 -0.3920 -0.2949 -0.2747
60286SOL    HW287909  10.611  12.345  10.044 -1.1534  0.2748 -1.3677
60287SOL     OW87910   3.210  12.114   5.528  0.2075  0.0416 -0.1628
60287SOL    HW187911   3.228  12.185   5.589  0.6657 -0.4634  0.2960
60287SOL    HW287912   3.191  12.038   5.584 -1.1245 -0.0043 -0.6354
60288SOL     OW87913   9.013   4.019  12.050 -0.0596 -0.7141  0.4704
60288SOL    HW187914   8.939   4.066  12.013  1.3407  0.6210 -0.7479
60288SOL    HW287915   9.077   4.087  12.071  2.3339 -1.9918 -1.9962
60289SOL     OW87916   7.486   5.561   7.950 -0.2821 -0.1438 -0.0611
60289SOL    HW187917   7.492   5.567   8.045  1.3960  0.5825 -0.1827
60289SOL    HW287918   7.392   5.557   7.932 -0.6205 -0.4266  1.6180
60290SOL     OW87919   9.090  10.466   0.345  0.1864  0.1303 -0.1527
60290SOL    HW187920   9.120  10.549   0.384  1.5364 -1.5425  2.7209
60290SOL    HW287921   9.169  10.413   0.336 -0.7771 -1.2416 -0.9374
60291SOL     OW87922   4.550   5.069  10.039 -0.5144 -0.8799  0.3978
60291SOL    HW187923   4.590   4.998  10.089 -1.4047 -1.9115 -0.3035
60291SOL    HW287924   4.459   5.043  10.029 -0.9167  0.4898  0.3233
60292SOL     OW87925   8.261   5.960   8.996 -0.3402  0.4410 -0.0363
60292SOL    HW187926   8.171   5.967   9.028 -0.6204 -0.6137 -0.5539
60292SOL    HW287927   8.306   6.036   9.033 -1.4124  0.9108  0.3259
60293SOL     OW87928   9.713   9.177   9.834  0.0509 -0.1502 -0.8878
60293SOL    HW187929   9.671   9.095   9.859 -0.3600  0.6171  1.1689
60293SOL    HW287930   9.802   9.169   9.868 -0.5916  1.0201  1.2726
60294SOL     OW87931   4.893   0.375   0.885  0.6485 -0.2547  0.3294
60294SOL    HW187932   4.904   0.427   0.964 -1.5546 -1.2827  1.4034
60294SOL    HW287933   4.803   0.343   0.889  1.1950 -2.2842 -1.4118
60295SOL     OW87934   4.390  10.334   3.310  0.2164 -0.3863 -0.3195
60295SOL    HW187935   4.310  10.296   3.345 -0.3238  0.7425 -0.3032
60295SOL    HW287936   4.372  10.346   3.217  0.5743 -0.6387 -0.4245
60296SOL     OW87937   0.198   6.647   0.984  0.0853 -0.3140 -0.1429
60296SOL    HW187938   0.245   6.697   0.917 -0.5583  1.1714  0.4704
60296SOL    HW287939   0.267   6.602   1.033  0.5957 -1.0833 -1.4956
60297SOL     OW87940  10.528   9.015   2.830  0.3186  0.6165  0.3714
60297SOL    HW187941  10.620   8.989   2.826  1.0383  2.5880  2.0994
60297SOL    HW287942  10.520   9.087   2.767 -0.1164  0.3037  0.0577
60298SOL     OW87943  11.529   5.821   0.905 -0.6688  0.5230  0.2997
60298SOL    HW187944  11.517   5.866   0.989  0.9404 -1.1738  1.5234
60298SOL    HW287945  11.488   5.735   0.917  1.0259 -0.3794  0.0148
60299SOL     OW87946   8.248  11.964   1.716  0.0486  0.2567  0.1547
60299SOL    HW187947   8.273  11.926   1.631  2.7122  3.4353 -0.6796
60299SOL    HW287948   8.186  12.033   1.694 -2.2222 -1.3051  1.3042
60300SOL     OW87949   1.028   4.456   7.514 -0.2380  0.2322  0.6695
60300SOL    HW187950   1.116   4.428   7.488 -0.6737 -0.4407 -0.1388
60300SOL    HW287951   0.978   4.374   7.519 -0.6361  0.5243  1.9033
60301SOL     OW87952   8.351  12.055   3.122  0.0036 -0.0124 -0.8120
60301SOL    HW187953   8.288  12.047   3.194 -1.9847  0.3938 -2.3884
60301SOL    HW287954   8.392  11.969   3.117 -1.3046 -0.6934 -0.4407
60302SOL     OW87955   0.040   0.899   2.388  0.1801 -0.7312  0.3961
60302SOL    HW187956   0.058   0.981   2.433  0.8343  0.1119 -1.2910
60302SOL    HW287957  -0.022   0.853   2.444 -3.8887  2.9059 -0.6308
60303SOL     OW87958   4.104  11.484   5.179  0.3052 -0.6557  0.6980
60303SOL    HW187959   4.178  11.424   5.166  2.6920  2.3489 -1.0397
60303SOL    HW287960   4.078  11.509   5.090 -1.4752 -0.0963  1.3319
60304SOL     OW87961  10.716  12.491   7.787  0.4148 -0.4601  0.1852
60304SOL    HW187962  10.744  12.583   7.796 -0.6374 -0.1298  0.1639
60304SOL    HW287963  10.793  12.441   7.814  1.2988  0.4075 -0.5854
60305SOL     OW87964   0.856  10.312   0.969  0.4111  0.3701 -0.2947
60305SOL    HW187965   0.916  10.282   0.900  2.2317  0.3746  1.2235
60305SOL    HW287966   0.898  10.391   1.003  1.6651 -1.6620  3.3819
60306SOL     OW87967   2.631   3.460  10.071  0.5792 -0.1061 -0.1483
60306SOL    HW187968   2.589   3.533  10.026  1.8054  1.3985  1.0584
60306SOL    HW287969   2.558   3.410  10.108 -0.2428  1.2342  0.1078
60307SOL     OW87970   5.767   4.152   5.514  0.4102  0.3764  0.2277
60307SOL    HW187971   5.701   4.220   5.501 -1.0413 -0.5087  2.4607
60307SOL    HW287972   5.810   4.175   5.596  1.6336 -0.0980 -0.2463
60308SOL     OW87973   0.794   6.577   1.143 -0.3689 -0.0876  1.0271
60308SOL    HW187974   0.783   6.629   1.222  0.3173 -0.1760  1.1863
60308SOL    HW287975   0.721   6.602   1.087  0.2710  1.4758  0.8570
60309SOL     OW87976   2.375   8.582   7.906 -0.2728  0.5246 -0.1416
60309SOL    HW187977   2.460   8.540   7.901  0.3292  1.7698 -0.8296
60309SOL    HW287978   2.377   8.633   7.987 -1.4160 -1.5540  1.2826
60310SOL     OW87979   0.523   4.910   7.463 -0.2748  0.2509 -0.2805
60310SOL    HW187980   0.612   4.878   7.449  0.0145  1.6784 -1.9854
60310SOL    HW287981   0.487   4.852   7.530  1.1445 -1.8438 -1.2213
60311SOL     OW87982   6.368   1.296   5.187 -0.1036 -0.3952  0.2592
60311SOL    HW187983   6.347   1.253   5.104  0.2544 -0.8520  0.4035
60311SOL    HW287984   6.313   1.374   5.188 -0.2061 -0.4561 -0.3491
60312SOL     OW87985   1.901   6.400   5.472  0.0817  0.2444  0.5015
60312SOL    HW187986   1.805   6.409   5.468 -0.1090 -1.6606 -0.6738
60312SOL    HW287987   1.931   6.434   5.387  0.1944 -1.2681 -0.0901
60313SOL     OW87988   3.857  11.349   5.179 -0.2862  0.0993 -0.2678
60313SOL    HW187989   3.831  11.410   5.111 -0.6614 -1.0021 -1.1419
60313SOL    HW287990   3.952  11.361   5.187 -0.3661  0.8224 -0.3939
60314SOL     OW87991   6.879   4.514   3.111 -0.0927 -0.1477  0.6839
60314SOL    HW187992   6.944   4.562   3.162  0.5370  0.4666 -0.6435
60314SOL    HW287993   6.798   4.565   3.120  0.7251  1.6263 -1.2541
60315SOL     OW87994   5.292  11.210   5.632 -0.2237  0.1058  0.1001
60315SOL    HW187995   5.274  11.275   5.564  1.6363  1.4592  0.8075
60315SOL    HW287996   5.266  11.253   5.713  0.2565 -0.3538  0.5046
60316SOL     OW87997   9.696   1.464   9.745  0.4139  0.4730 -0.0062
60316SOL    HW187998   9.646   1.475   9.826 -0.1220 -0.3917 -0.1940
60316SOL    HW287999   9.743   1.381   9.757  0.2461  0.2805 -0.6078
60317SOL     OW88000   9.203   6.001  10.567 -0.0215  0.2670 -0.4270
60317SOL    HW188001   9.292   6.012  10.532  0.6031 -0.9980  0.6413
60317SOL    HW288002   9.186   6.081  10.616  1.1790 -0.0822  0.6316
60318SOL     OW88003   5.985   3.786   0.647 -0.2258 -0.2601  0.2591
60318SOL    HW188004   5.909   3.841   0.627 -2.1776 -2.1179  2.0540
60318SOL    HW288005   6.051   3.847   0.680 -1.5286  1.2224  0.2222
60319SOL     OW88006  11.541   2.353   7.906 -0.2435 -0.7969 -0.1320
60319SOL    HW188007  11.460   2.401   7.892  0.0264 -0.6841 -1.4066
60319SOL    HW288008  11.514   2.262   7.919 -0.5850 -0.7189 -0.2979
60320SOL     OW88009   1.358   7.001  11.403 -0.2893 -0.2426 -0.2326
60320SOL    HW188010   1.448   7.028  11.422 -0.7768  0.2407  1.6581
60320SOL    HW288011   1.309   7.083  11.404 -0.9412 -0.6307  0.0933
60321SOL     OW88012   4.991   0.552   5.137  0.5636  0.2115 -0.3800
60321SOL    HW188013   5.012   0.500   5.060 -1.3053 -0.8698 -0.2325
60321SOL    HW288014   5.060   0.532   5.200  0.5807 -1.1117 -0.7966
60322SOL     OW88015   0.722  10.712   3.562 -0.0132 -0.0568 -0.0384
60322SOL    HW188016   0.752  10.796   3.527  1.0741 -0.0883  0.7541
60322SOL    HW288017   0.627  10.717   3.561  0.0302  0.8585 -0.7572
60323SOL     OW88018   4.330   1.025  11.975 -0.5038  0.5641 -0.4035
60323SOL    HW188019   4.405   0.989  12.024 -0.9805  0.8994  0.6086
60323SOL    HW288020   4.346   1.119  11.975 -0.7763  0.6095 -0.4284
60324SOL     OW88021   7.339   9.945  10.589  0.3265 -0.2395 -0.3418
60324SOL    HW188022   7.246   9.963  10.598  0.5505  1.8454 -1.3772
60324SOL    HW288023   7.345   9.850  10.578 -1.5043 -0.5818  1.1598
60325SOL     OW88024   6.299   0.736   0.098  0.0804  0.4592 -0.4270
60325SOL    HW188025   6.282   0.774   0.012 -2.1588  1.0553  0.1969
60325SOL    HW288026   6.317   0.644   0.081 -0.0861  0.6188 -1.5437
60326SOL     OW88027   4.654   0.951   5.469 -0.3279  0.0137 -0.0489
60326SOL    HW188028   4.619   0.964   5.381 -1.1403  1.1869  0.4247
60326SOL    HW288029   4.654   1.038   5.508  0.4225 -0.4262  0.9783
60327SOL     OW88030   1.630   8.028   0.297  0.0611  0.5988  0.4850
60327SOL    HW188031   1.696   8.034   0.366 -0.4872  0.3838  1.0390
60327SOL    HW288032   1.680   8.035   0.216  0.6958  1.0751  0.9024
60328SOL     OW88033   9.366   8.929   0.116  0.6384  0.2384 -0.2197
60328SOL    HW188034   9.338   8.893   0.031  0.8639  1.5272 -0.8745
60328SOL    HW288035   9.316   9.010   0.124  3.6710  2.3966 -1.2092
60329SOL     OW88036   2.654  11.154   5.628  0.5827 -0.1421 -0.3753
60329SOL    HW188037   2.676  11.247   5.616 -0.4305  0.4364  1.7545
60329SOL    HW288038   2.575  11.155   5.680  0.6288 -2.2473 -0.1867
60330SOL     OW88039  11.902   0.200   9.662 -0.3111  0.1510  0.0366
60330SOL    HW188040  11.980   0.233   9.617  1.4696 -0.9774  2.0999
60330SOL    HW288041  11.840   0.273   9.659  1.8749  2.1647  0.7147
60331SOL     OW88042   8.210   9.373  11.503  0.0875  0.1140 -0.4204
60331SOL    HW188043   8.286   9.372  11.561 -0.6140 -1.2780  0.5546
60331SOL    HW288044   8.171   9.459  11.517  1.8596  1.1543 -1.5236
60332SOL     OW88045   7.723  10.759   4.909 -0.3026  0.6298  0.3537
60332SOL    HW188046   7.790  10.700   4.943 -2.7330 -2.1077  0.7122
60332SOL    HW288047   7.719  10.739   4.815  1.4336  3.0936 -0.3722
60333SOL     OW88048  10.498   6.204   2.117  0.4986  0.0869 -0.3708
60333SOL    HW188049  10.566   6.213   2.050  1.0859 -0.4223  0.1396
60333SOL    HW288050  10.538   6.148   2.184  0.1815  1.1855  0.7600
60334SOL     OW88051   7.792  11.074   7.751  0.1909  0.3778  0.3005
60334SOL    HW188052   7.817  11.013   7.682  1.8701  0.3028  0.9303
60334SOL    HW288053   7.854  11.147   7.742  2.0088 -0.6494  3.0620
60335SOL     OW88054   8.516   5.720   0.794 -0.3419  0.7020  0.4119
60335SOL    HW188055   8.434   5.754   0.831 -0.9001 -1.2819  1.0969
60335SOL    HW288056   8.550   5.661   0.861  1.9408  1.8283  0.3483
60336SOL     OW88057   8.182   0.429   5.488 -0.3292  0.4545  0.3410
60336SOL    HW188058   8.139   0.484   5.553 -1.1300  0.5529 -0.2465
60336SOL    HW288059   8.267   0.408   5.525 -0.6763  0.7216  1.2978
60337SOL     OW88060   8.422   3.804  12.127  0.1149 -0.2320 -0.1543
60337SOL    HW188061   8.463   3.720  12.108  0.6179  0.2894 -1.5036
60337SOL    HW288062   8.342   3.805  12.075 -0.0934 -0.0286  0.1634
60338SOL     OW88063   5.178  11.737   0.134 -0.6329 -0.2021 -0.6827
60338SOL    HW188064   5.195  11.744   0.040  2.9298  1.6833 -0.0535
60338SOL    HW288065   5.235  11.667   0.164 -0.7454  0.1119  0.2880
60339SOL     OW88066  10.487   0.621   6.055  0.4533 -0.4039 -0.1093
60339SOL    HW188067  10.524   0.535   6.076  0.1716 -0.3714  0.5361
60339SOL    HW288068  10.414   0.631   6.116 -0.9271 -0.6578 -1.6593
60340SOL     OW88069   1.610  12.115   8.420  0.1390  0.8453  0.2275
60340SOL    HW188070   1.579  12.032   8.456  1.6695 -0.2987 -0.9769
60340SOL    HW288071   1.666  12.151   8.489 -1.3119  1.4268  1.1615
60341SOL     OW88072   0.927   9.233   9.137  0.3926  0.0828 -0.1119
60341SOL    HW188073   0.942   9.312   9.189 -2.2686  0.6322 -0.0517
60341SOL    HW288074   0.866   9.181   9.190 -2.3090  0.5960 -2.5072
60342SOL     OW88075   4.268  11.561   4.781 -0.2503  0.2245 -0.0363
60342SOL    HW188076   4.342  11.600   4.735  0.8819 -1.9033 -0.1170
60342SOL    HW288077   4.262  11.611   4.863  0.6397  1.0361 -0.4406
60343SOL     OW88078   2.482  10.702   7.674 -0.5351 -0.4939 -0.2231
60343SOL    HW188079   2.500  10.793   7.696 -0.8083 -0.8376  1.5514
60343SOL    HW288080   2.453  10.704   7.582 -0.1313  1.1321 -0.3346
60344SOL     OW88081  11.848   3.058   5.848  0.2145  0.1168 -0.4866
60344SOL    HW188082  11.936   3.027   5.824  0.1461 -0.0360 -0.5421
60344SOL    HW288083  11.790   2.985   5.827  0.3194 -0.5857  1.4603
60345SOL     OW88084   4.827   0.258   9.611  0.1065 -0.0648  0.5126
60345SOL    HW188085   4.837   0.164   9.626 -1.6257 -0.0910  1.8315
60345SOL    HW288086   4.806   0.265   9.518  1.3931 -0.8458  0.1278
60346SOL     OW88087   2.557   5.566   1.900 -0.1380  0.3453  0.0008
60346SOL    HW188088   2.603   5.606   1.974 -1.8884  1.6551  0.4642
60346SOL    HW288089   2.532   5.640   1.844 -1.4438 -0.3048 -0.3248
60347SOL     OW88090  10.448   7.700   7.228  0.1432  0.0283  0.3984
60347SOL    HW188091  10.484   7.789   7.222  1.3689 -0.5134 -0.8220
60347SOL    HW288092  10.433   7.674   7.137  1.9298 -1.8233  0.5669
60348SOL     OW88093   7.658  10.746   6.833  0.2165 -0.3464  0.3478
60348SOL    HW188094   7.706  10.664   6.846 -0.3311 -0.6984  0.1326
60348SOL    HW288095   7.570  10.728   6.865 -0.2590 -0.2311 -0.8618
60349SOL     OW88096   0.777   0.467   3.788 -0.0952 -0.4977 -0.7299
60349SOL    HW188097   0.864   0.497   3.814 -0.0934  0.0271 -1.3001
60349SOL    HW288098   0.759   0.514   3.706 -1.4394  0.4041  0.0277
60350SOL     OW88099   3.297   6.497   0.133  0.4109  0.0019 -0.6185
60350SOL    HW188100   3.359   6.465   0.067  0.3259  0.1258 -0.7602
60350SOL    HW288101   3.227   6.536   0.082  0.6341  0.6388 -0.4453
60351SOL     OW88102   2.250  11.366   0.827  0.0908  0.7010 -0.1133
60351SOL    HW188103   2.297  11.425   0.887  0.0802  1.6615 -1.0244
60351SOL    HW288104   2.316  11.336   0.766 -0.3791  1.8579 -1.2456
60352SOL     OW88105   7.550  12.204   6.650  0.0237 -0.3080 -0.6575
60352SOL    HW188106   7.467  12.167   6.622  0.1794 -2.1656  1.0968
60352SOL    HW288107   7.555  12.288   6.606 -3.5288  0.6193  0.3608
60353SOL     OW88108  10.140   3.449   8.750 -0.2764  0.0709 -0.1745
60353SOL    HW188109  10.222   3.411   8.782 -0.0315  0.6924 -0.0366
60353SOL    HW288110  10.111   3.390   8.681 -0.2486 -0.7029  0.4710
60354SOL     OW88111   9.325   6.891   8.320 -0.2000 -0.3289  0.2603
60354SOL    HW188112   9.367   6.963   8.273 -0.6301  0.2789  0.7882
60354SOL    HW288113   9.320   6.820   8.256  2.9774 -0.9761  0.5405
60355SOL     OW88114  12.501   2.710   7.085  0.6202 -0.0723 -0.0709
60355SOL    HW188115  12.441   2.687   7.156 -1.3986 -0.6041 -1.8583
60355SOL    HW288116  12.544   2.790   7.115 -1.5656  0.7869  0.9891
60356SOL     OW88117  10.727   6.666   0.707 -0.3683  0.5400  0.0459
60356SOL    HW188118  10.642   6.640   0.741  0.4081 -1.3872  0.6744
60356SOL    HW288119  10.789   6.641   0.776  0.8019  0.8277 -0.8727
60357SOL     OW88120  10.624   6.749   4.872  0.0871  0.0269 -0.1855
60357SOL    HW188121  10.670   6.745   4.788  0.3196  2.3563 -0.2410
60357SOL    HW288122  10.691   6.731   4.937  0.1032 -0.8821 -0.4364
60358SOL     OW88123   5.245   9.770   5.616  0.0603 -0.0406  0.0428
60358SOL    HW188124   5.244   9.728   5.530 -0.5278  2.0852 -1.0536
60358SOL    HW288125   5.278   9.858   5.599 -0.2080  0.4790  1.9905
60359SOL     OW88126   0.242   1.342  11.070 -0.1190 -0.1358  0.4124
60359SOL    HW188127   0.211   1.333  11.160  3.6513  0.1405  1.9096
60359SOL    HW288128   0.191   1.414  11.034 -1.1770  0.2928  2.5979
60360SOL     OW88129   6.625  10.071  11.515 -0.4838 -0.2724 -0.4112
60360SOL    HW188130   6.674  10.154  11.514  1.6319 -1.3701  1.7678
60360SOL    HW288131   6.550  10.089  11.572  0.3113 -0.0075  0.5789
60361SOL     OW88132   0.292   2.802  10.855  0.1882 -0.6837 -0.0758
60361SOL    HW188133   0.334   2.763  10.779 -0.2199 -0.1061 -0.6138
60361SOL    HW288134   0.229   2.736  10.885  0.8334 -1.1858  0.1822
60362SOL     OW88135   3.410   9.229   9.502  0.3700 -0.1534  0.1569
60362SOL    HW188136   3.370   9.276   9.576  0.1889 -0.3444  0.1811
60362SOL    HW288137   3.358   9.149   9.493 -1.2103  0.9816 -1.7308
60363SOL     OW88138   5.162   7.424   9.336  0.0629 -0.1354 -0.6158
60363SOL    HW188139   5.118   7.506   9.358 -0.9249 -1.2190  1.7899
60363SOL    HW288140   5.185   7.434   9.243 -1.6614  2.1083 -0.9046
60364SOL     OW88141  11.253  12.071   6.617 -0.2871 -0.3853  0.8266
60364SOL    HW188142  11.271  12.024   6.536 -0.5974 -0.2026  0.6479
60364SOL    HW288143  11.298  12.154   6.607 -0.0958 -0.4733  0.9591
60365SOL     OW88144   0.815   7.182   9.240  0.4748 -0.2680 -0.4411
60365SOL    HW188145   0.737   7.234   9.261  0.9267  1.0767 -1.8916
60365SOL    HW288146   0.789   7.131   9.163  0.7753 -0.4369 -0.4294
60366SOL     OW88147  10.284  10.995   7.600  0.0142 -0.2816  0.7270
60366SOL    HW188148  10.307  11.056   7.670 -0.1102  2.4474 -1.4247
60366SOL    HW288149  10.367  10.956   7.572  0.2399 -0.3206  1.4489
60367SOL     OW88150  11.555   9.856   9.996  0.2337  0.2432  0.3014
60367SOL    HW188151  11.546   9.934  10.050  1.2992  0.3703  0.3123
60367SOL    HW288152  11.481   9.861   9.934 -1.0306  0.0720  1.7416
60368SOL     OW88153   7.125   3.794   4.659 -0.8447 -0.7563 -0.4698
60368SOL    HW188154   7.115   3.889   4.652 -1.1274 -0.7749 -0.3503
60368SOL    HW288155   7.218   3.781   4.675 -0.6777 -0.5425 -1.2157
60369SOL     OW88156   1.987   5.070   5.252 -0.7102 -0.3833  0.2929
60369SOL    HW188157   1.913   5.016   5.281 -0.3965 -1.6523 -1.1337
60369SOL    HW288158   2.063   5.012   5.258 -0.1386  0.3031 -0.0778
60370SOL     OW88159   8.862   3.858  12.214  0.1351  0.1893 -0.0254
60370SOL    HW188160   8.933   3.812  12.170 -0.1433 -0.5207  0.2537
60370SOL    HW288161   8.895   3.947  12.225  0.8072 -0.0186 -0.2896
60371SOL     OW88162   2.459   4.939   2.575  0.5211 -1.2038 -0.1821
60371SOL    HW188163   2.528   4.873   2.564  0.1263 -1.5167 -0.8441
60371SOL    HW288164   2.379   4.888   2.587  0.6621 -0.9179  3.0585
60372SOL     OW88165   2.777  11.544   6.030 -0.4637 -0.1004  0.7699
60372SOL    HW188166   2.763  11.471   6.090 -0.7087 -1.7573 -1.2027
60372SOL    HW288167   2.692  11.588   6.025 -0.4563  0.0207  1.5550
60373SOL     OW88168   6.202   7.160   2.182 -0.6538  0.0229  0.2154
60373SOL    HW188169   6.107   7.153   2.190 -0.6156  0.7366  1.5487
60373SOL    HW288170   6.225   7.233   2.239  0.7581 -0.5149  0.3569
60374SOL     OW88171   1.877   7.824   6.506 -0.5398 -0.3008  0.8531
60374SOL    HW188172   1.909   7.762   6.572 -0.4689 -1.3223 -0.1027
60374SOL    HW288173   1.782   7.824   6.517 -0.6510 -1.4890  0.1285
60375SOL     OW88174   1.950   3.192   4.157 -0.7846 -1.0286  0.1510
60375SOL    HW188175   2.035   3.153   4.174 -0.0968  0.0975 -0.5910
60375SOL    HW288176   1.950   3.210   4.063 -1.3719  0.0401  0.3403
60376SOL     OW88177   0.707   5.693   7.621 -0.2055 -0.7975  0.0602
60376SOL    HW188178   0.688   5.785   7.601  0.5423 -0.5432  0.4874
60376SOL    HW288179   0.639   5.668   7.683 -1.8095 -1.2285 -1.7630
60377SOL     OW88180  12.520   0.740  10.552 -0.1538 -0.7447  0.2342
60377SOL    HW188181  12.486   0.669  10.606  0.2555 -0.2463  1.1575
60377SOL    HW288182  12.469   0.817  10.580 -1.0278 -0.7690 -1.1820
60378SOL     OW88183   1.150  10.622   5.568 -0.6135  0.5265 -0.8334
60378SOL    HW188184   1.087  10.592   5.634  0.8223  0.1255  0.4030
60378SOL    HW288185   1.136  10.564   5.493 -0.9345 -0.2918 -0.1498
60379SOL     OW88186   1.666   4.845   2.837 -0.3334 -0.4146  0.0345
60379SOL    HW188187   1.622   4.916   2.792 -1.1919 -2.0487 -1.8330
60379SOL    HW288188   1.620   4.838   2.921 -2.6947 -1.0411 -1.2128
60380SOL     OW88189   5.615   4.867   8.396  0.3985  0.1629 -0.0738
60380SOL    HW188190   5.643   4.777   8.377 -1.7221 -0.7364  0.7289
60380SOL    HW288191   5.639   4.916   8.317  0.3380 -1.4294 -1.1443
60381SOL     OW88192   0.726   5.533   0.747 -0.1557  0.1812 -0.0599
60381SOL    HW188193   0.672   5.455   0.735  0.0816  0.1994 -1.3658
60381SOL    HW288194   0.762   5.523   0.835 -0.0822 -1.2196 -0.2224
60382SOL     OW88195  10.546   9.786   1.686  0.3126  0.1337  0.0822
60382SOL    HW188196  10.587   9.766   1.770 -1.0075 -0.0959  0.6919
60382SOL    HW288197  10.532   9.700   1.645  0.4813  0.2129 -0.1411
60383SOL     OW88198   2.794   5.420   9.464  0.0864 -0.6236 -0.2904
60383SOL    HW188199   2.877   5.397   9.506  0.4325 -0.2998 -0.7810
60383SOL    HW288200   2.778   5.510   9.491 -2.0004 -1.7665  2.8179
60384SOL     OW88201   9.207   8.668  11.660  0.5831  0.0875  0.5437
60384SOL    HW188202   9.157   8.750  11.656  2.2372  1.0796 -0.9467
60384SOL    HW288203   9.200   8.641  11.752 -0.5598  1.5300  0.9249
60385SOL     OW88204   5.785   1.327  10.371 -0.7505 -0.0699 -0.5640
60385SOL    HW188205   5.788   1.362  10.282  1.6845  0.0053 -0.5182
60385SOL    HW288206   5.809   1.235  10.361  0.2162  0.1066  0.0721
60386SOL     OW88207   5.326   2.785   3.165 -0.0655  0.6530 -0.2615
60386SOL    HW188208   5.381   2.844   3.216  0.3932  0.5226 -0.5937
60386SOL    HW288209   5.364   2.787   3.077  1.1889 -1.5901  0.1482
60387SOL     OW88210   3.139   0.323   7.880  0.5825  0.3128 -0.0590
60387SOL    HW188211   3.099   0.353   7.799 -0.9442  0.7218  0.7891
60387SOL    HW288212   3.090   0.243   7.902  2.5138 -1.1087 -0.6926
60388SOL     OW88213   0.460   7.780  10.173  0.4477  0.1853 -0.2713
60388SOL    HW188214   0.368   7.797  10.192  0.3337 -0.4295 -0.2577
60388SOL    HW288215   0.469   7.685  10.179  0.8772  0.1572 -1.1849
60389SOL     OW88216   7.341   6.735   5.073  0.3926  0.2983 -0.2341
60389SOL    HW188217   7.372   6.825   5.075  3.7635 -0.7179  0.3843
60389SOL    HW288218   7.369   6.698   5.157 -1.2306 -1.2769 -0.3167
60390SOL     OW88219   7.593   4.847   6.144 -0.6964  0.7326 -0.1827
60390SOL    HW188220   7.655   4.892   6.201  2.4524 -0.2602 -2.5600
60390SOL    HW288221   7.529   4.914   6.120 -0.8762  1.7116  2.6217
60391SOL     OW88222  10.279   9.159  10.756 -0.1512  0.4021  0.3591
60391SOL    HW188223  10.367   9.198  10.754  0.7098 -1.4608 -1.2438
60391SOL    HW288224  10.284   9.093  10.825  0.2675 -0.8498 -0.8394
60392SOL     OW88225   6.611   2.367   6.932  0.3318  0.2089  0.4686
60392SOL    HW188226   6.701   2.333   6.926  0.4468  0.7020 -1.4655
60392SOL    HW288227   6.560   2.295   6.967  1.2802 -0.5061  0.4301
60393SOL     OW88228  10.729   6.523  12.083  0.2321  0.2003  0.3484
60393SOL    HW188229  10.772   6.514  12.169 -0.0063 -0.8677  0.3631
60393SOL    HW288230  10.752   6.443  12.036 -0.4701  0.3230 -0.2206
60394SOL     OW88231   6.182   3.200   3.609 -0.0834  0.3013 -0.0804
60394SOL    HW188232   6.125   3.273   3.586 -0.3325 -0.5038 -2.3351
60394SOL    HW288233   6.270   3.232   3.589 -0.0818  0.3652  0.0282
60395SOL     OW88234  12.122   2.179   8.425 -0.4864  0.3989  0.6793
60395SOL    HW188235  12.027   2.180   8.434 -0.5450 -0.5272  0.2501
60395SOL    HW288236  12.141   2.098   8.379  0.4666  0.9158  0.1374
60396SOL     OW88237   6.645  11.171   1.645 -0.5753  0.4100 -0.2286
60396SOL    HW188238   6.690  11.189   1.727  0.2184  0.9226 -0.7638
60396SOL    HW288239   6.624  11.258   1.610  0.5931  0.2606 -1.3675
60397SOL     OW88240  12.453   3.248   6.568  0.4486 -0.4737 -0.0477
60397SOL    HW188241  12.484   3.331   6.530  1.8769 -0.2361  1.5159
60397SOL    HW288242  12.475   3.182   6.502 -1.0449  0.3873 -1.4817
60398SOL     OW88243   0.536  11.655   0.374 -0.3584  0.0199 -0.3522
60398SOL    HW188244   0.493  11.636   0.457 -1.9144  0.2138 -1.0756
60398SOL    HW288245   0.474  11.710   0.326 -0.0160 -1.0279 -2.1078
60399SOL     OW88246   9.076   0.271   8.546 -0.4538 -0.5048  0.2595
60399SOL    HW188247   9.034   0.333   8.486  0.2253  0.9869  1.2803
60399SOL    HW288248   9.131   0.217   8.489  0.5623  1.1975 -0.4554
60400SOL     OW88249   1.386   5.372   2.605  0.4385 -0.3314 -0.1257
60400SOL    HW188250   1.461   5.429   2.586 -0.1616  0.6832  0.5152
60400SOL    HW288251   1.401   5.343   2.695  0.5665 -0.9310 -0.3364
60401SOL     OW88252   9.105   3.549   1.710 -0.6056  0.1655 -0.3948
60401SOL    HW188253   9.040   3.497   1.663 -0.5689 -2.0171  1.7719
60401SOL    HW288254   9.053   3.607   1.766 -0.6390  0.9267 -1.1890
60402SOL     OW88255   8.554  10.492   3.114  0.1546  0.1433 -0.7795
60402SOL    HW188256   8.484  10.431   3.093 -1.1380  1.1642  0.3641
60402SOL    HW288257   8.581  10.528   3.029 -0.8805 -0.0944 -1.2228
60403SOL     OW88258   2.321   2.959   0.931  0.0258  0.1695  0.1125
60403SOL    HW188259   2.245   2.906   0.908  0.2386 -0.0343 -0.1211
60403SOL    HW288260   2.297   3.048   0.906 -0.5703  0.2913  1.0595
60404SOL     OW88261  11.884  11.898   7.718  0.7432 -0.9348  0.4708
60404SOL    HW188262  11.842  11.979   7.747  2.0857 -0.5832  1.5162
60404SOL    HW288263  11.812  11.835   7.711 -0.1057 -0.0816  1.1845
60405SOL     OW88264   7.111  12.188   0.867  0.1842 -0.7989 -0.2269
60405SOL    HW188265   7.044  12.189   0.799 -1.9786 -1.9376  1.7388
60405SOL    HW288266   7.127  12.095   0.882  0.3427 -0.5716  1.0656
60406SOL     OW88267   7.619   7.102   6.832 -0.2628  0.2891  0.2540
60406SOL    HW188268   7.700   7.063   6.866 -0.2011 -1.0499 -1.2989
60406SOL    HW288269   7.648   7.154   6.757 -0.8677 -0.6175 -0.6319
60407SOL     OW88270   1.631  11.167  10.975  0.3691  0.3917 -0.5934
60407SOL    HW188271   1.629  11.240  10.913  0.5334  0.0550 -0.9930
60407SOL    HW288272   1.579  11.099  10.934 -0.6365  0.6303  0.2322
60408SOL     OW88273   2.335  11.312  10.157  0.0810 -0.2250 -0.0304
60408SOL    HW188274   2.304  11.300  10.067  1.1378  2.1920 -0.8015
60408SOL    HW288275   2.264  11.360  10.200 -0.2930 -1.1168  0.3881
60409SOL     OW88276   0.491   2.382   2.635  0.8154 -0.5290  0.5926
60409SOL    HW188277   0.426   2.429   2.687  0.3229  0.0483 -0.4978
60409SOL    HW288278   0.547   2.339   2.699 -0.6249 -1.0280  1.5716
60410SOL     OW88279  11.517   8.393  12.377  0.1700 -0.2172  0.5722
60410SOL    HW188280  11.510   8.305  12.341 -0.3840 -0.4635  1.2836
60410SOL    HW288281  11.591   8.432  12.329 -0.0870 -0.7839 -0.3125
60411SOL     OW88282   2.187   2.136   0.907 -0.1347  0.6098  0.0007
60411SOL    HW188283   2.158   2.198   0.973 -0.7639  0.4427 -0.1116
60411SOL    HW288284   2.237   2.189   0.845 -2.9073  1.5736 -1.5664
60412SOL     OW88285  11.713   9.694   5.345  0.3372  0.3606  0.5048
60412SOL    HW188286  11.655   9.665   5.416 -1.4177  2.8201  0.2019
60412SOL    HW288287  11.765   9.764   5.384  0.9537  0.2253 -0.0633
60413SOL     OW88288   7.604   1.842   5.132  0.9315  0.1534 -0.1004
60413SOL    HW188289   7.636   1.807   5.215 -0.3056 -0.2673  0.2277
60413SOL    HW288290   7.592   1.935   5.148  2.6200  0.4618 -0.4526
60414SOL     OW88291  10.032  10.008   2.843 -0.0634  0.3895  0.2935
60414SOL    HW188292  10.006   9.936   2.900  1.5495 -0.1845  0.3453
60414SOL    HW288293   9.952  10.031   2.796 -0.7566 -0.9914  0.7431
60415SOL     OW88294   7.110   4.509  12.097 -0.6962 -0.6298  0.1959
60415SOL    HW188295   7.121   4.540  12.187  1.7748  0.2640 -0.3395
60415SOL    HW288296   7.118   4.414  12.102  0.7810 -0.4849  0.7793
60416SOL     OW88297   8.558   4.605   7.592  0.4874  0.2078  0.3901
60416SOL    HW188298   8.463   4.605   7.578  0.6363 -2.2095 -1.1372
60416SOL    HW288299   8.587   4.688   7.554 -1.0375  1.2825  1.4321
60417SOL     OW88300   1.867   5.312   8.023  0.2100 -0.3549 -0.0614
60417SOL    HW188301   1.908   5.229   8.000 -0.3646 -1.0594  1.3118
60417SOL    HW288302   1.774   5.300   8.004  0.1678  0.0645 -0.1256
60418SOL     OW88303   0.083   8.250   6.550  0.1873  0.0709 -0.3325
60418SOL    HW188304   0.041   8.245   6.636  0.3475  1.4205 -0.1398
60418SOL    HW288305   0.039   8.184   6.497 -1.8380  1.0804  0.0045
60419SOL     OW88306   4.105   0.697   2.120 -0.3995  0.3826  0.2706
60419SOL    HW188307   4.030   0.688   2.179 -1.6961 -0.2458 -1.3726
60419SOL    HW288308   4.101   0.620   2.064  0.5165  1.1456 -0.9074
60420SOL     OW88309   2.085   8.975   5.926  0.3750 -0.4238  0.3421
60420SOL    HW188310   2.100   8.884   5.953  0.0660 -0.7654 -0.5819
60420SOL    HW288311   1.990   8.985   5.928  0.3416 -0.4597 -0.5713
60421SOL     OW88312   5.444   4.462  11.321  0.0785  0.1054  0.0176
60421SOL    HW188313   5.537   4.479  11.331  0.4346 -1.5549 -0.2546
60421SOL    HW288314   5.416   4.524  11.253  0.9280  0.7251  0.2144
60422SOL     OW88315   2.002   9.700   7.527 -0.2530  0.2325 -0.1547
60422SOL    HW188316   1.918   9.718   7.485 -0.1556  0.4302 -0.2671
60422SOL    HW288317   2.033   9.785   7.557 -1.0216 -0.0838  1.6595
60423SOL     OW88318   7.638   0.905   8.864 -0.5448  0.2268  0.0376
60423SOL    HW188319   7.727   0.871   8.856 -0.0249  1.1936  1.3189
60423SOL    HW288320   7.648   0.989   8.909 -2.0511  0.6711 -0.3918
60424SOL     OW88321   9.230   3.935   7.660 -0.3903 -0.1542  0.0980
60424SOL    HW188322   9.260   4.006   7.716 -2.5218  0.7567  0.1845
60424SOL    HW288323   9.257   3.855   7.705 -0.5794  0.5758  1.5665
60425SOL     OW88324   8.784   6.949   0.105  0.2047  0.0485  0.5730
60425SOL    HW188325   8.768   6.947   0.199 -0.2676  1.9236  0.5710
60425SOL    HW288326   8.829   6.866   0.086  0.5320 -0.2451  2.4762
60426SOL     OW88327   7.396  11.433   0.806  0.2239  0.4221  0.3939
60426SOL    HW188328   7.467  11.390   0.759 -0.1362 -0.2637  0.4616
60426SOL    HW288329   7.382  11.378   0.883 -2.0121 -0.8643 -0.8323
60427SOL     OW88330   4.682   0.345  10.636 -0.5025 -0.5308  0.0097
60427SOL    HW188331   4.742   0.371  10.567  1.5707  1.4762  2.3733
60427SOL    HW288332   4.727   0.275  10.683 -0.8231 -0.2978  0.6884
60428SOL     OW88333   7.236  11.427   7.399  0.0665  0.5742  0.1793
60428SOL    HW188334   7.327  11.416   7.429 -0.1154 -1.3401  0.1864
60428SOL    HW288335   7.203  11.501   7.449  1.3476  0.7224  0.8615
60429SOL     OW88336   8.059   4.924   9.129 -0.3739  0.1665  0.4097
60429SOL    HW188337   8.014   4.852   9.174 -1.4781 -0.2160 -1.2248
60429SOL    HW288338   8.007   5.001   9.150 -1.0143 -0.0473 -0.3535
60430SOL     OW88339   1.348   4.550  12.583  0.0867  0.2219 -0.0398
60430SOL    HW188340   1.396   4.471  12.559  1.5119  1.1136 -0.1717
60430SOL    HW288341   1.292   4.568  12.508 -0.2095 -0.6145 -0.0326
60431SOL     OW88342  12.083   9.914   2.659  0.1610 -0.0562  0.2745
60431SOL    HW188343  12.124   9.947   2.579  0.3064 -0.8609  0.0049
60431SOL    HW288344  12.120   9.827   2.671 -1.7550 -0.9821 -0.2047
60432SOL     OW88345   2.780   1.225  10.856 -0.0955 -0.0761  0.3736
60432SOL    HW188346   2.837   1.234  10.933 -0.6176 -2.8051  1.2083
60432SOL    HW288347   2.699   1.269  10.882  0.1504  0.0645  0.9312
60433SOL     OW88348   8.734   8.584  10.088 -0.2426  0.3644 -0.0239
60433SOL    HW188349   8.807   8.624  10.136 -0.3901  1.8813 -0.9634
60433SOL    HW288350   8.773   8.509  10.042  0.9021  1.4621 -0.9378
60434SOL     OW88351   0.136   2.681   8.687  0.4285  0.7098 -0.0731
60434SOL    HW188352   0.225   2.715   8.695  0.5744  0.0115  2.1550
60434SOL    HW288353   0.148   2.588   8.668  0.1262  0.9123 -1.3098
60435SOL     OW88354   2.195   7.423  11.430 -0.2909 -0.3961 -0.1514
60435SOL    HW188355   2.150   7.392  11.351 -0.3050 -0.2354 -0.2055
60435SOL    HW288356   2.148   7.381  11.502  0.5718 -1.6637 -0.2787
60436SOL     OW88357   0.849   6.426   7.341  0.0567  0.0447 -0.0776
60436SOL    HW188358   0.788   6.358   7.313 -1.3467  0.9820  0.5784
60436SOL    HW288359   0.898   6.386   7.413 -0.6831 -0.3050  0.2370
60437SOL     OW88360   6.141   5.332   1.539  0.3806 -0.0304  0.4409
60437SOL    HW188361   6.170   5.242   1.522 -1.2453 -0.1281 -2.2689
60437SOL    HW288362   6.063   5.322   1.593  0.0215 -0.2671 -0.1183
60438SOL     OW88363  11.017   8.245   9.846 -0.0672  0.2050  0.2108
60438SOL    HW188364  10.989   8.332   9.817 -0.9734 -0.1402  0.0206
60438SOL    HW288365  11.079   8.263   9.917 -0.2426  1.0056  0.1755
60439SOL     OW88366   7.122   8.219   7.498 -0.0671  0.1101 -0.5431
60439SOL    HW188367   7.181   8.174   7.438 -1.8418 -1.8948 -0.9190
60439SOL    HW288368   7.070   8.276   7.441  0.5671  0.8507 -0.3960
60440SOL     OW88369  11.352   5.059   5.126 -0.0982  0.3593 -0.3922
60440SOL    HW188370  11.434   5.091   5.088  0.4355 -1.1831 -0.6375
60440SOL    HW288371  11.377   4.979   5.174 -1.1158  1.0472  1.3906
60441SOL     OW88372   1.841  12.498   6.294  0.6869  0.1883 -0.2883
60441SOL    HW188373   1.799  12.444   6.361 -0.4551 -0.4679 -1.4602
60441SOL    HW288374   1.920  12.449   6.270  1.5117  0.8090  1.0766
60442SOL     OW88375   7.635   1.656  12.452 -0.0579  0.5103  0.2016
60442SOL    HW188376   7.591   1.576  12.422  0.1137  0.1242  0.9554
60442SOL    HW288377   7.627   1.717  12.378 -0.1808 -0.2038 -0.3914
60443SOL     OW88378   6.285   0.317   7.339  0.6631 -0.1105 -0.1007
60443SOL    HW188379   6.190   0.305   7.335  0.4808  1.1003  0.0074
60443SOL    HW288380   6.311   0.277   7.422 -0.2292  2.0847  1.3570
60444SOL     OW88381   6.661  12.244   0.954  0.1569  0.1225  0.4041
60444SOL    HW188382   6.674  12.244   1.049 -0.8110  2.7996  0.6214
60444SOL    HW288383   6.621  12.329   0.936 -2.0522 -1.3275 -2.1137
60445SOL     OW88384   2.997   3.975  11.698  0.1442 -0.5202 -0.2908
60445SOL    HW188385   3.072   4.024  11.732 -0.8468  0.9958 -0.2203
60445SOL    HW288386   2.973   4.021  11.618  1.0685 -2.7370 -1.9633
60446SOL     OW88387   1.174  10.124   3.647  0.0173 -0.1411  0.5043
60446SOL    HW188388   1.204  10.106   3.558 -2.4666 -2.6104  0.0482
60446SOL    HW288389   1.089  10.166   3.635 -0.4553 -0.7252  1.6813
60447SOL     OW88390   3.573   1.716   9.414 -0.0936 -0.6195  0.0320
60447SOL    HW188391   3.539   1.747   9.498 -1.8469 -4.0904  0.8181
60447SOL    HW288392   3.495   1.691   9.364  0.8682  1.6829 -2.9289
60448SOL     OW88393   9.555   1.351   7.698  0.4110 -0.1736 -0.2076
60448SOL    HW188394   9.470   1.392   7.715  1.7619  2.8385 -0.1348
60448SOL    HW288395   9.590   1.397   7.622  2.9865  0.4096  1.2222
60449SOL     OW88396   0.434   1.831   5.646 -0.5285  0.7802  0.0738
60449SOL    HW188397   0.418   1.920   5.679 -0.7817  1.7486 -2.4022
60449SOL    HW288398   0.523   1.835   5.611 -0.2684 -0.1866  0.5996
60450SOL     OW88399  10.115   0.000   6.974  0.0795  0.5219 -0.0894
60450SOL    HW188400  10.173   0.017   7.048  2.4074  1.1117 -1.9478
60450SOL    HW288401  10.071   0.084   6.958  0.2258  0.6307  0.0849
60451SOL     OW88402  10.271   0.562   0.872  0.3348 -0.7906 -0.2736
60451SOL    HW188403  10.261   0.474   0.910  0.4791 -0.5933  0.2234
60451SOL    HW288404  10.251   0.622   0.943  1.7043 -0.4084 -0.1708
60452SOL     OW88405   3.048   6.107   7.633  0.1211 -0.2623 -0.0854
60452SOL    HW188406   2.956   6.103   7.659 -0.3773 -1.4445 -1.8132
60452SOL    HW288407   3.097   6.087   7.713 -1.0623  1.0298  1.0136
60453SOL     OW88408   1.243   4.904   4.345  0.0696 -0.0957 -0.0785
60453SOL    HW188409   1.213   4.994   4.349  0.7766  0.1796 -0.7682
60453SOL    HW288410   1.230   4.878   4.254 -0.1940 -0.7150  0.1316
60454SOL     OW88411   0.431  10.928   8.099 -0.7388  0.3896  0.2296
60454SOL    HW188412   0.417  10.967   8.013 -1.9812 -0.2042  0.1456
60454SOL    HW288413   0.464  10.840   8.080  1.8981  1.2595  0.4178
60455SOL     OW88414  10.948   4.912   1.973  0.0383 -0.0671  0.2854
60455SOL    HW188415  10.886   4.896   2.044  0.1719 -2.2175 -0.0154
60455SOL    HW288416  11.031   4.930   2.018 -0.4715  1.4265  0.6700
60456SOL     OW88417   7.631   3.369   0.663 -0.7743  0.2783  0.6413
60456SOL    HW188418   7.583   3.415   0.594 -1.4926 -0.1913  0.8254
60456SOL    HW288419   7.722   3.368   0.632 -1.1610 -0.3103 -0.5127
60457SOL     OW88420  11.488   5.880   8.930  0.5084  0.5522 -0.2091
60457SOL    HW188421  11.394   5.891   8.943  0.2787 -2.3926  1.3767
60457SOL    HW288422  11.528   5.953   8.978 -0.8989  0.3169  1.3657
60458SOL     OW88423   3.742   3.499   1.009  0.4559  0.2201 -0.0646
60458SOL    HW188424   3.710   3.420   1.052 -0.7405  0.9118  0.3532
60458SOL    HW288425   3.664   3.553   0.995  1.1361  0.9872 -1.0759
60459SOL     OW88426  10.858   8.920   1.490  0.3281  0.5320 -0.0505
60459SOL    HW188427  10.867   8.826   1.472  1.7663  0.7359 -0.5661
60459SOL    HW288428  10.798   8.924   1.564  0.5859 -0.8414  0.2745
60460SOL     OW88429  10.609   8.738   9.328 -0.0742 -0.0696  0.0118
60460SOL    HW188430  10.575   8.683   9.257  1.4532  2.8644 -3.3077
60460SOL    HW288431  10.703   8.740   9.314  0.1526  1.5423  1.4055
60461SOL     OW88432   7.494   0.242  12.533 -0.0913 -0.5467 -0.2798
60461SOL    HW188433   7.580   0.202  12.547 -0.8755 -1.8358  1.2875
60461SOL    HW288434   7.432   0.173  12.557 -1.5703  0.3830 -1.2861
60462SOL     OW88435   9.513   6.142   3.689  0.5454 -0.0524 -0.4234
60462SOL    HW188436   9.503   6.101   3.603  0.1895 -1.5980  0.3141
60462SOL    HW288437   9.606   6.166   3.693 -0.2009  4.5986 -3.1018
60463SOL     OW88438   7.242   9.723   2.672 -0.1650  0.1952 -0.1752
60463SOL    HW188439   7.285   9.806   2.693  1.1852 -0.5827  0.2369
60463SOL    HW288440   7.149   9.741   2.684  0.1655  1.3932  0.8364
60464SOL     OW88441   8.649  11.759   4.086  0.3574 -0.3170  0.2483
60464SOL    HW188442   8.629  11.668   4.107  0.1317 -0.0746  1.1071
60464SOL    HW288443   8.606  11.774   4.002 -2.2339 -0.1280  1.5306
60465SOL     OW88444   2.145  10.242  11.342  0.0480 -0.2279  0.5129
60465SOL    HW188445   2.193  10.258  11.261 -2.0567 -1.0928 -0.9953
60465SOL    HW288446   2.212  10.242  11.410  2.0176 -0.3862 -1.3333
60466SOL     OW88447   3.788   0.347  11.974  0.0187 -0.4214  0.1035
60466SOL    HW188448   3.786   0.423  12.031 -1.1100 -0.9049  0.7389
60466SOL    HW288449   3.787   0.272  12.033 -0.5318 -0.9289 -0.5301
60467SOL     OW88450   0.154   1.424   1.531 -0.1212  0.9755  0.0939
60467SOL    HW188451   0.132   1.442   1.439  2.0121  0.3072 -0.5977
60467SOL    HW288452   0.079   1.375   1.564 -1.0818  1.5225 -1.1842
60468SOL     OW88453   4.953   6.455   9.422 -0.2074  0.0414 -0.0503
60468SOL    HW188454   4.898   6.481   9.348  3.0783  0.7061 -2.4982
60468SOL    HW288455   4.976   6.364   9.404 -0.5364 -0.2557  0.9827
60469SOL     OW88456   6.178  10.980   5.642  0.1207  0.1358  0.4837
60469SOL    HW188457   6.204  11.057   5.692 -1.5508  1.3098 -0.3534
60469SOL    HW288458   6.259  10.929   5.631  1.3390  1.9392  0.7663
60470SOL     OW88459   1.371   5.388  10.664 -0.1504  0.4535 -0.3530
60470SOL    HW188460   1.361   5.477  10.696 -1.0922  0.3019 -0.2134
60470SOL    HW288461   1.395   5.398  10.572  0.8416  0.8595 -0.0645
60471SOL     OW88462   4.666  10.768   3.406  0.1339 -0.2998 -0.1809
60471SOL    HW188463   4.647  10.849   3.359  1.1164 -0.0253 -0.1134
60471SOL    HW288464   4.582  10.743   3.444 -0.0606  1.0029  0.3003
60472SOL     OW88465   9.221   9.766   8.516 -0.5457  0.2881 -0.1187
60472SOL    HW188466   9.241   9.834   8.452  0.5209 -0.1232 -0.2479
60472SOL    HW288467   9.291   9.701   8.505  0.5091  0.8856  2.3953
60473SOL     OW88468   1.158   2.335   4.675  0.3982  0.3996  0.0139
60473SOL    HW188469   1.097   2.323   4.602  0.6189  0.5035 -0.1903
60473SOL    HW288470   1.134   2.267   4.738  0.0801  0.4339 -0.0702
60474SOL     OW88471   8.622   2.635   5.483 -0.1232 -0.4247  0.1216
60474SOL    HW188472   8.564   2.645   5.559  1.8066  1.2086  1.4909
60474SOL    HW288473   8.665   2.551   5.497  0.5025  0.0350  1.0941
60475SOL     OW88474   1.490   8.249   0.228 -0.4448  0.2904  0.2085
60475SOL    HW188475   1.544   8.318   0.267  1.3133 -0.2433 -1.1357
60475SOL    HW288476   1.542   8.170   0.238 -1.6629 -0.5354  0.1858
60476SOL     OW88477   1.821   9.609   2.441  0.1286 -0.2093  0.2384
60476SOL    HW188478   1.757   9.573   2.502 -1.3306  1.2178 -0.3828
60476SOL    HW288479   1.841   9.696   2.475 -1.5820  1.0930 -1.8007
60477SOL     OW88480   3.245   4.408   9.633  0.0881 -0.3151 -0.5130
60477SOL    HW188481   3.329   4.402   9.587  1.0431  1.0108  0.9589
60477SOL    HW288482   3.243   4.497   9.667  0.2431 -1.5970  3.3519
60478SOL     OW88483   0.128  10.676   2.466 -0.1047  0.2700  0.0458
60478SOL    HW188484   0.124  10.729   2.545  0.9691  0.7001 -0.1670
60478SOL    HW288485   0.114  10.739   2.395 -1.4818 -0.1749 -0.1212
60479SOL     OW88486  10.512   0.843   2.744  0.4100 -0.4142 -0.3353
60479SOL    HW188487  10.526   0.789   2.822 -0.7977 -0.9742 -0.4805
60479SOL    HW288488  10.451   0.911   2.772  0.3560 -0.3262 -0.6603
60480SOL     OW88489   3.651   4.087   7.167  0.1669 -0.1964  0.0272
60480SOL    HW188490   3.557   4.103   7.164  0.5150  1.9810 -0.5033
60480SOL    HW288491   3.661   3.996   7.137 -1.6188  0.0914 -1.5931
60481SOL     OW88492   1.044   9.339   2.777 -0.2471 -0.2071  0.2312
60481SOL    HW188493   1.126   9.354   2.731  0.8969  0.1047  2.2911
60481SOL    HW288494   1.003   9.426   2.781 -1.3516 -0.5539 -1.8734
60482SOL     OW88495   1.426   5.510   3.537 -0.2485  0.4453 -0.6203
60482SOL    HW188496   1.493   5.561   3.491 -0.9984  0.6783 -1.4890
60482SOL    HW288497   1.391   5.570   3.602  0.2073  0.3986 -0.3226
60483SOL     OW88498   5.216   1.161   6.436  0.1683 -0.5847 -0.2309
60483SOL    HW188499   5.189   1.236   6.383  0.1813 -1.0530 -0.9090
60483SOL    HW288500   5.307   1.145   6.411  0.2976 -0.5704  0.2166
60484SOL     OW88501   3.331   0.440   5.874 -0.1423  0.2423 -0.1868
60484SOL    HW188502   3.236   0.451   5.867  0.0435  1.5031 -1.0233
60484SOL    HW288503   3.355   0.487   5.953 -0.2042 -0.1354  0.0631
60485SOL     OW88504   1.449   4.655   5.501  1.0369 -0.3729 -0.3697
60485SOL    HW188505   1.405   4.582   5.458 -1.0230 -0.0537  0.9981
60485SOL    HW288506   1.425   4.731   5.449  0.9771 -0.3498 -0.3084
60486SOL     OW88507  12.103   6.905   7.490 -0.0037 -0.0546  0.5038
60486SOL    HW188508  12.168   6.861   7.544 -0.3586  0.0606  1.0249
60486SOL    HW288509  12.046   6.834   7.458  1.3086 -0.3768 -1.2834
60487SOL     OW88510   5.038   5.467   9.342 -0.1250 -0.7294  0.4839
60487SOL    HW188511   5.045   5.538   9.406 -0.0127 -1.3499  1.1726
60487SOL    HW288512   5.022   5.511   9.258 -1.6662  0.0324  1.1529
60488SOL     OW88513   3.165  10.576   3.437 -0.1832 -0.5869  0.3709
60488SOL    HW188514   3.128  10.624   3.362  0.3791 -1.4166 -0.4603
60488SOL    HW288515   3.206  10.499   3.398 -0.3191 -1.3002  1.6022
60489SOL     OW88516  12.497   7.508   2.403  0.3967 -0.0892  0.4527
60489SOL    HW188517  12.555   7.434   2.387 -0.1457 -0.2280 -1.0988
60489SOL    HW288518  12.514   7.568   2.331  0.3405  0.9920  1.3182
60490SOL     OW88519  11.851  10.928  12.557  0.3388  0.3123 -0.3904
60490SOL    HW188520  11.892  10.987  12.621  0.1186 -0.0991  0.1419
60490SOL    HW288521  11.800  10.986  12.501  0.3110  0.6588 -0.0176
60491SOL     OW88522   2.825   6.538   0.781  0.1372 -0.7813  0.0843
60491SOL    HW188523   2.793   6.587   0.705  0.2485 -1.3489 -0.3410
60491SOL    HW288524   2.906   6.497   0.750  0.5290 -0.4935  0.7145
60492SOL     OW88525   7.470   5.948   3.166  0.8060  0.1542 -0.2420
60492SOL    HW188526   7.522   5.926   3.243  0.1098  0.8649  0.4563
60492SOL    HW288527   7.439   5.863   3.133  1.2163 -0.1652  0.1857
60493SOL     OW88528   4.522  11.970   7.944 -0.2605 -0.9135 -0.1116
60493SOL    HW188529   4.598  11.950   7.998  0.1177 -0.2931 -0.4017
60493SOL    HW288530   4.552  11.958   7.854 -0.7491 -1.4747 -0.2090
60494SOL     OW88531   2.424   8.714   9.526 -0.3503  0.0245  0.7514
60494SOL    HW188532   2.365   8.789   9.537  1.1207  1.1713  1.2147
60494SOL    HW288533   2.421   8.695   9.432  1.7790  2.9197 -0.0455
60495SOL     OW88534   0.195   8.407   5.483 -0.7442  0.1374  0.0079
60495SOL    HW188535   0.240   8.465   5.422 -1.7756  1.1234  0.1339
60495SOL    HW288536   0.103   8.409   5.455 -0.6351 -2.5304 -0.8041
60496SOL     OW88537   3.618   9.621   3.209 -0.3224  0.1725 -0.1264
60496SOL    HW188538   3.579   9.618   3.122 -0.1859 -2.1077 -0.1792
60496SOL    HW288539   3.563   9.564   3.262  1.9906 -2.0001  0.1519
60497SOL     OW88540   7.808  10.002   8.506 -0.5653  0.4170  0.1518
60497SOL    HW188541   7.814  10.095   8.529 -2.0702  0.5836 -0.0186
60497SOL    HW288542   7.859   9.994   8.425  1.3939  0.6206  1.2874
60498SOL     OW88543   6.995  10.777   7.201  0.4223  0.7126 -0.4951
60498SOL    HW188544   6.991  10.713   7.130  0.2832  0.8401 -0.5997
60498SOL    HW288545   6.978  10.725   7.280 -1.4902  0.9147 -0.7332
60499SOL     OW88546  11.037   5.075  12.260  0.3345 -0.3187  0.0687
60499SOL    HW188547  11.023   5.072  12.354  0.5925 -0.6758  0.0950
60499SOL    HW288548  10.995   4.996  12.226 -0.8736  0.4402 -0.2696
60500SOL     OW88549   3.449   0.583   7.570 -0.5222 -0.0568  0.3361
60500SOL    HW188550   3.521   0.629   7.528  0.2202 -1.3850  0.0868
60500SOL    HW288551   3.479   0.569   7.660 -0.9259  0.3217  0.5329
60501SOL     OW88552  11.460   7.059   6.163  0.2358 -0.2061  0.1957
60501SOL    HW188553  11.500   7.110   6.093 -2.0888  2.6066  0.7561
60501SOL    HW288554  11.380   7.023   6.124  0.4573 -1.1723  0.6026
60502SOL     OW88555   1.257  11.876   6.945 -0.8310  0.1204 -0.5643
60502SOL    HW188556   1.308  11.797   6.924 -0.1216  0.9324 -2.0645
60502SOL    HW288557   1.168  11.855   6.916 -1.0159 -0.7075  0.5519
60503SOL     OW88558   5.908   7.443   1.182 -0.4608 -0.0086  0.6467
60503SOL    HW188559   5.932   7.536   1.183 -1.4196  0.2579  2.2101
60503SOL    HW288560   5.820   7.442   1.144 -0.9703 -0.1094  1.7898
60504SOL     OW88561   2.009   5.861  11.474  0.4948  0.7145  0.5707
60504SOL    HW188562   1.941   5.928  11.472 -1.1417 -0.8253  1.3591
60504SOL    HW288563   1.989   5.809  11.552  1.7990 -0.5971  0.0851
60505SOL     OW88564   4.743  12.475   6.230 -0.4249  0.2261 -0.8638
60505SOL    HW188565   4.748  12.416   6.305 -0.1622  1.1091 -0.1690
60505SOL    HW288566   4.804  12.545   6.250 -1.2712  1.1240 -1.3199
60506SOL     OW88567   0.679   0.944   2.044  0.1673 -0.1870 -0.8178
60506SOL    HW188568   0.701   1.022   1.993  0.9735  2.1002  2.7045
60506SOL    HW288569   0.594   0.962   2.082  1.8841  0.9121  3.0311
60507SOL     OW88570   8.774   5.452  11.277 -0.4331  0.3343  0.9221
60507SOL    HW188571   8.856   5.492  11.251 -1.5563  1.3516 -1.3523
60507SOL    HW288572   8.789   5.422  11.367  2.4913  0.1544  0.4672
60508SOL     OW88573   3.553   7.263   2.437  0.3244  0.6242  0.4125
60508SOL    HW188574   3.597   7.207   2.373  2.7459  0.9641  1.6477
60508SOL    HW288575   3.506   7.203   2.494  1.2551 -0.0206  0.5299
60509SOL     OW88576   8.597   5.508   5.884 -0.1337  0.2788 -0.6167
60509SOL    HW188577   8.601   5.413   5.886 -1.7163  0.1952 -0.1448
60509SOL    HW288578   8.656   5.533   5.813  0.1974 -1.0520 -0.8366
60510SOL     OW88579   7.846   2.604   4.534 -0.4537  0.5175 -0.1342
60510SOL    HW188580   7.812   2.668   4.472  0.4527  0.6958 -0.4548
60510SOL    HW288581   7.878   2.656   4.608 -0.9378  0.3472  0.1976
60511SOL     OW88582  11.271   9.278   6.407 -0.0887 -0.5751 -0.6469
60511SOL    HW188583  11.188   9.271   6.454 -0.5762 -0.2320 -1.4461
60511SOL    HW288584  11.267   9.363   6.363  0.7261 -0.5138 -0.6188
60512SOL     OW88585  12.182   8.637   1.478 -0.0930  0.0695 -0.5324
60512SOL    HW188586  12.271   8.632   1.513 -0.9932 -1.3202  1.7996
60512SOL    HW288587  12.165   8.731   1.470  1.0882  0.3881  0.3630
60513SOL     OW88588   4.356   4.656   0.604  0.3968  0.1990  0.0296
60513SOL    HW188589   4.364   4.561   0.596 -0.4665  0.2752 -2.3757
60513SOL    HW288590   4.446   4.687   0.616  0.9265 -0.7943 -1.2040
60514SOL     OW88591   7.429   8.400   2.354  0.6781  1.0245 -0.3139
60514SOL    HW188592   7.372   8.372   2.425 -0.6147 -0.3092 -1.8185
60514SOL    HW288593   7.425   8.496   2.357 -1.2081  0.9740 -0.0115
60515SOL     OW88594   9.626   4.447  11.040 -0.0447  0.0247  0.5304
60515SOL    HW188595   9.706   4.396  11.053  0.3074  0.6882  1.0795
60515SOL    HW288596   9.656   4.538  11.039 -0.9105  0.3546  1.8385
60516SOL     OW88597   7.044   9.178   5.424 -0.6308  0.7724  0.0270
60516SOL    HW188598   6.975   9.111   5.422  0.9153 -0.8917 -2.1849
60516SOL    HW288599   7.071   9.181   5.516  0.0555 -2.6417  0.0678
60517SOL     OW88600   9.837   8.929   4.821  0.3483  0.1806  0.0938
60517SOL    HW188601   9.902   8.863   4.843  1.3129  1.8718  2.8296
60517SOL    HW288602   9.887   9.010   4.809 -1.0060  0.9897 -0.3788
60518SOL     OW88603   9.469   3.067   2.101 -0.5987  0.0264  0.4934
60518SOL    HW188604   9.435   3.029   2.020 -1.0633  1.0604  0.1880
60518SOL    HW288605   9.565   3.061   2.092 -0.6432 -1.7407  0.7987
60519SOL     OW88606   2.254  11.566   8.028  0.0516 -0.0421 -0.4535
60519SOL    HW188607   2.174  11.618   8.026  0.9979  1.5076 -0.2778
60519SOL    HW288608   2.243  11.508   8.104  0.3545  2.3845  1.6029
60520SOL     OW88609   1.040   4.940   7.827  0.3053 -0.0795  0.1075
60520SOL    HW188610   1.069   4.916   7.739 -2.7776 -1.0787 -0.7629
60520SOL    HW288611   0.998   5.025   7.815  1.0189  0.4117  0.9358
60521SOL     OW88612   5.938   9.798   6.765  0.0760 -0.2863 -0.2982
60521SOL    HW188613   5.997   9.770   6.834 -0.8860 -1.1617  0.1930
60521SOL    HW288614   5.910   9.717   6.722 -1.4618  0.0124  0.0677
60522SOL     OW88615  10.752  10.642   2.401  0.1742 -0.0255  0.5664
60522SOL    HW188616  10.827  10.662   2.345 -1.8451  1.7649 -1.6593
60522SOL    HW288617  10.718  10.727   2.427 -1.1392 -0.8027  1.4937
60523SOL     OW88618  11.879   5.691   4.602  0.0721 -0.3040  0.2613
60523SOL    HW188619  11.876   5.733   4.516  2.1067  0.5681  0.5625
60523SOL    HW288620  11.915   5.604   4.585  0.1014 -0.2779  0.1890
60524SOL     OW88621   3.223  10.843   8.676 -0.1646 -0.6404 -0.2347
60524SOL    HW188622   3.298  10.837   8.616 -1.1497 -0.0302 -1.5491
60524SOL    HW288623   3.211  10.753   8.707 -0.2064 -1.1673 -1.6797
60525SOL     OW88624   7.184  12.331   7.794  0.2270  0.4562  0.4046
60525SOL    HW188625   7.263  12.385   7.799 -0.1581  1.2013 -1.1376
60525SOL    HW288626   7.214  12.247   7.760  0.3063  0.8812 -0.6021
60526SOL     OW88627   0.148   8.498  12.441  0.4121  0.2806  0.2448
60526SOL    HW188628   0.153   8.584  12.482  0.4733 -0.3466  1.6192
60526SOL    HW288629   0.227   8.493  12.387 -1.0900  2.2603 -2.3734
60527SOL     OW88630   4.151   8.309   3.583 -0.6550  0.0527  0.4635
60527SOL    HW188631   4.091   8.374   3.620  0.2503  0.3806  1.3818
60527SOL    HW288632   4.208   8.284   3.655 -0.3046 -0.9874 -0.1473
60528SOL     OW88633  11.065   2.245   3.727 -0.2834 -0.4895  0.2723
60528SOL    HW188634  10.970   2.251   3.729 -0.3397 -0.9994 -0.7884
60528SOL    HW288635  11.091   2.249   3.820 -1.3700 -1.0703  0.6114
60529SOL     OW88636   5.819   8.709  10.992  0.2614 -0.0360 -0.2722
60529SOL    HW188637   5.775   8.771  10.933  0.4109  2.8597  2.4405
60529SOL    HW288638   5.747   8.663  11.036  0.1384 -0.7741 -1.1992
60530SOL     OW88639   7.121   4.433   5.279 -0.1395  0.5710  0.0536
60530SOL    HW188640   7.105   4.425   5.373  0.5231  1.6559  0.2665
60530SOL    HW288641   7.211   4.463   5.272  0.2217 -0.6412 -0.9767
60531SOL     OW88642  12.211   4.614   0.048  0.5378 -0.1584  0.1692
60531SOL    HW188643  12.229   4.577  -0.039  1.6698 -0.7775  0.6495
60531SOL    HW288644  12.124   4.581   0.070  1.2623 -2.1102  0.3234
60532SOL     OW88645   9.266   6.736  10.135  0.1010  0.1628  0.2954
60532SOL    HW188646   9.180   6.710  10.170  0.5464 -0.4062  0.9879
60532SOL    HW288647   9.323   6.739  10.212  1.0740 -0.9716 -0.3613
60533SOL     OW88648   1.839  12.095   6.373 -0.1741 -0.2507 -0.5558
60533SOL    HW188649   1.789  12.025   6.331  0.2459 -1.6798  1.2018
60533SOL    HW288650   1.873  12.055   6.453  1.8937  1.3458 -0.5650
60534SOL     OW88651  12.120   4.669   4.535 -0.2351 -0.5723 -0.1606
60534SOL    HW188652  12.196   4.612   4.525  0.0995 -0.1438 -0.0840
60534SOL    HW288653  12.147   4.735   4.598 -1.5763 -1.9414  1.9759
60535SOL     OW88654   5.408   9.249   0.038  0.2497  0.9738  0.1620
60535SOL    HW188655   5.349   9.322   0.053 -0.8894  0.1835 -0.3721
60535SOL    HW288656   5.352   9.178   0.009  1.4165  0.0739  0.0356
60536SOL     OW88657   2.740   9.586  11.037 -0.2225 -0.7736  0.2466
60536SOL    HW188658   2.809   9.632  11.086  0.6967 -2.0027  0.1307
60536SOL    HW288659   2.684   9.548  11.105 -1.8353  1.5777  0.3983
60537SOL     OW88660   0.304   2.724   5.709  0.2207  0.1187 -0.1286
60537SOL    HW188661   0.290   2.757   5.797  2.4160 -0.8428  0.6565
60537SOL    HW288662   0.381   2.772   5.677 -1.1102  1.1648 -1.9445
60538SOL     OW88663   8.911   1.850  10.010  0.1565 -0.0968 -0.4073
60538SOL    HW188664   8.895   1.945  10.014 -0.3067 -0.1880 -0.0579
60538SOL    HW288665   9.007   1.842  10.013  0.1691  0.2896  1.5226
60539SOL     OW88666   1.886   5.191  11.860  0.0477  0.2429 -0.1650
60539SOL    HW188667   1.974   5.154  11.856 -0.5199 -1.0496 -1.9527
60539SOL    HW288668   1.898   5.275  11.904  2.2111  0.1946 -0.5301
60540SOL     OW88669   3.505   9.971   8.371 -0.1240 -0.4795 -0.5367
60540SOL    HW188670   3.525  10.064   8.366 -2.5599  0.2048  0.8838
60540SOL    HW288671   3.497   9.943   8.280 -0.0924  0.8904 -0.9781
60541SOL     OW88672  10.923   0.175  10.703 -0.6680  0.0004  0.4406
60541SOL    HW188673  10.924   0.270  10.690  0.1600 -0.0896 -0.1879
60541SOL    HW288674  10.834   0.157  10.736 -0.7409  1.0185  0.8427
60542SOL     OW88675   0.969   7.047   1.160 -0.4675  0.6969 -0.1773
60542SOL    HW188676   0.988   7.083   1.073  1.6236  0.0005 -0.0762
60542SOL    HW288677   0.973   6.952   1.148 -0.9591  0.5779  0.5363
60543SOL     OW88678   8.428  11.697   5.390 -0.1456  0.0526  0.0951
60543SOL    HW188679   8.471  11.708   5.475 -0.7182  0.3211  0.3558
60543SOL    HW288680   8.501  11.689   5.328  0.2956 -1.0905  0.7110
60544SOL     OW88681   5.227   3.869   7.274 -0.1085  0.2007  0.1059
60544SOL    HW188682   5.234   3.883   7.180  0.2716  2.8247  0.4580
60544SOL    HW288683   5.260   3.780   7.287  0.9199  0.1891 -2.1114
60545SOL     OW88684   7.104   7.157  10.073  0.0913 -0.3078 -0.0713
60545SOL    HW188685   7.101   7.065  10.046  2.0841 -0.3028 -0.4485
60545SOL    HW288686   7.053   7.159  10.154  0.0566 -1.7732 -0.0211
60546SOL     OW88687   0.572   6.864   8.759 -0.0536  0.3671 -0.1707
60546SOL    HW188688   0.575   6.959   8.747 -1.5577  0.2988 -1.4569
60546SOL    HW288689   0.647   6.831   8.710 -0.4113  0.8096 -1.0473
60547SOL     OW88690   5.621   7.893   0.598  0.0433  0.3976  0.3499
60547SOL    HW188691   5.629   7.869   0.690  2.0777 -1.2564 -0.1869
60547SOL    HW288692   5.531   7.926   0.589 -0.0856  0.9403  2.9634
60548SOL     OW88693  10.864   4.084   6.243  0.3601  0.0475 -0.1977
60548SOL    HW188694  10.883   4.005   6.192  0.0739 -0.1470 -0.0011
60548SOL    HW288695  10.837   4.148   6.178 -1.5764 -0.6672 -0.1591
60549SOL     OW88696   8.291   0.784   8.016  0.5956 -0.2882 -0.6120
60549SOL    HW188697   8.378   0.758   8.045  0.0091 -1.5979  0.0070
60549SOL    HW288698   8.232   0.756   8.086 -0.1779  2.1257 -0.1969
60550SOL     OW88699   4.855   6.792  11.891 -0.3837  0.3018  0.1913
60550SOL    HW188700   4.822   6.739  11.964 -1.5566 -0.2306 -0.6926
60550SOL    HW288701   4.949   6.775  11.889 -0.3217  0.3341  1.5729
60551SOL     OW88702   0.769   6.040   0.428  0.5746  0.1344 -0.0218
60551SOL    HW188703   0.844   6.093   0.454  0.6409  0.9720 -1.7903
60551SOL    HW288704   0.715   6.099   0.374 -1.6730 -0.2550  1.6481
60552SOL     OW88705   2.595   5.753  11.353  0.0561  0.2790  0.3171
60552SOL    HW188706   2.543   5.782  11.428 -0.2252  0.7570 -0.0575
60552SOL    HW288707   2.547   5.785  11.277 -0.4178 -1.4287 -0.1319
60553SOL     OW88708   5.629   9.857   7.964  0.1685 -0.2175  0.0770
60553SOL    HW188709   5.573   9.789   7.926  0.8769 -1.2350  0.8107
60553SOL    HW288710   5.569   9.908   8.020 -0.2475 -0.5954 -0.0173
60554SOL     OW88711   2.670   2.389  11.237 -0.0492  0.1770 -0.0612
60554SOL    HW188712   2.585   2.412  11.275 -0.1270  1.7029 -1.1068
60554SOL    HW288713   2.652   2.377  11.144  0.8055  0.0173 -0.2133
60555SOL     OW88714   7.267   7.300   8.719  0.1100  0.4842  0.3469
60555SOL    HW188715   7.331   7.294   8.648  0.2613 -0.6834  0.5676
60555SOL    HW288716   7.315   7.274   8.798 -0.2953  0.8951  0.7381
60556SOL     OW88717   1.767   0.385  12.023  0.4715 -0.2004 -0.2981
60556SOL    HW188718   1.836   0.347  11.970  1.5943  0.9438  0.2970
60556SOL    HW288719   1.762   0.476  11.995 -0.4389 -0.1334  0.0442
60557SOL     OW88720   6.683   7.164   6.872 -0.0378  0.3788 -0.1235
60557SOL    HW188721   6.725   7.230   6.928  1.4116  0.1751 -0.9246
60557SOL    HW288722   6.741   7.089   6.876 -0.9082 -0.3216 -0.4121
60558SOL     OW88723  10.774   3.482  10.551  0.0745  0.8287  0.2271
60558SOL    HW188724  10.824   3.490  10.632  0.9099  0.1813 -0.2101
60558SOL    HW288725  10.833   3.439  10.490  0.3347  3.3975 -1.5112
60559SOL     OW88726   3.615   0.345   9.964 -0.1928 -0.0131  0.5433
60559SOL    HW188727   3.704   0.316   9.941 -0.5979 -0.9307  0.0773
60559SOL    HW288728   3.594   0.297  10.043 -1.0044 -1.3183 -0.4270
60560SOL     OW88729   9.823   1.574   7.940  0.5204 -0.3898 -0.0490
60560SOL    HW188730   9.821   1.553   7.846 -2.2438  3.6658 -1.1827
60560SOL    HW288731   9.886   1.646   7.947 -1.6137  1.5664  0.4223
60561SOL     OW88732   2.024   2.222   0.535 -0.3637  0.0943 -0.2139
60561SOL    HW188733   2.055   2.302   0.493 -0.7120 -0.0966 -0.8414
60561SOL    HW288734   2.092   2.157   0.516  0.8739  0.6722  1.8847
60562SOL     OW88735   9.763   0.227   4.542  0.4872  0.3354  0.1180
60562SOL    HW188736   9.759   0.144   4.589 -1.8193  1.2269  1.7075
60562SOL    HW288737   9.797   0.289   4.607  0.9919  0.8741 -0.6455
60563SOL     OW88738   6.356   0.144   0.538 -0.3365 -0.6016 -0.0223
60563SOL    HW188739   6.441   0.102   0.526 -0.1762 -0.4177  0.4249
60563SOL    HW288740   6.334   0.179   0.452  0.1355 -0.4806 -0.0990
60564SOL     OW88741   1.720   2.106   1.062 -0.0322  0.0017 -0.9106
60564SOL    HW188742   1.747   2.042   1.128  1.5444  0.7071 -0.8533
60564SOL    HW288743   1.677   2.176   1.112  0.2298  0.0452 -0.7479
60565SOL     OW88744   1.739   2.037  11.918  0.4853  0.1598 -0.4446
60565SOL    HW188745   1.800   2.068  11.985  0.1365  1.0772 -0.5383
60565SOL    HW288746   1.659   2.016  11.965 -0.2018  2.0192 -0.6799
60566SOL     OW88747  11.160   4.554   9.229 -0.2760 -0.0720  0.6572
60566SOL    HW188748  11.163   4.650   9.219  0.2616 -0.2080 -0.7672
60566SOL    HW288749  11.229   4.522   9.171 -0.4255 -1.3343  1.1442
60567SOL     OW88750   8.937  10.929   0.612  0.1478 -0.4364  0.1661
60567SOL    HW188751   8.858  10.947   0.663  2.0607  0.1878  3.2106
60567SOL    HW288752   8.947  10.834   0.615 -0.8978 -0.6031 -0.9984
60568SOL     OW88753   5.757   3.452   8.664 -0.1342 -0.5794  0.0196
60568SOL    HW188754   5.708   3.370   8.676  0.2422 -0.6493  1.1787
60568SOL    HW288755   5.849   3.425   8.667  0.0026 -0.4123 -1.9028
60569SOL     OW88756   9.513   3.931   8.163  0.0664  0.2499  0.3116
60569SOL    HW188757   9.478   3.846   8.190  1.8884  0.2970  3.2728
60569SOL    HW288758   9.488   3.990   8.234  0.5178  1.7627 -0.7529
60570SOL     OW88759   2.078  11.558  12.258 -0.0057 -0.6906  0.0184
60570SOL    HW188760   2.156  11.578  12.206 -0.1693  0.4324  0.1742
60570SOL    HW288761   2.096  11.596  12.344 -1.1347  0.5365 -0.2519
60571SOL     OW88762   8.392   3.498   9.069  0.1645 -0.1109 -0.0543
60571SOL    HW188763   8.383   3.495   8.974 -3.3085 -0.5989  0.1510
60571SOL    HW288764   8.349   3.580   9.095 -0.4113 -0.7786  1.1782
60572SOL     OW88765   8.010   6.450   1.437 -0.2185  0.2967  0.7249
60572SOL    HW188766   7.979   6.360   1.426  1.8560 -0.2566 -1.8442
60572SOL    HW288767   8.092   6.441   1.485 -1.3426  1.1982  2.9572
60573SOL     OW88768   5.493   8.890   9.020  0.3825  0.1948  0.2548
60573SOL    HW188769   5.571   8.851   8.982  0.6365  1.1581 -0.2607
60573SOL    HW288770   5.436   8.908   8.945  0.8511  2.0324  0.2770
60574SOL     OW88771   0.599  10.130   7.840  0.5104  0.2666  0.5122
60574SOL    HW188772   0.645  10.165   7.916 -2.1646  0.0404  2.3640
60574SOL    HW288773   0.533  10.195   7.819  0.4443 -0.2157 -0.9222
60575SOL     OW88774   7.533   6.897  10.761 -0.3139  0.4021 -0.0211
60575SOL    HW188775   7.496   6.975  10.804 -0.7345  0.3273 -0.2444
60575SOL    HW288776   7.622   6.922  10.739 -0.7129  1.1279 -0.8626
60576SOL     OW88777   8.788  11.007   5.863 -0.0335  0.5756  0.5581
60576SOL    HW188778   8.860  10.948   5.884 -0.9066 -0.0625  1.8989
60576SOL    HW288779   8.734  11.008   5.942 -1.5616  0.9288 -0.4490
60577SOL     OW88780  11.467   0.033   9.481 -0.1805 -0.5757 -0.1129
60577SOL    HW188781  11.490   0.079   9.400  1.3974  0.4297  0.8460
60577SOL    HW288782  11.547   0.038   9.534 -1.2977 -0.8675  1.6551
60578SOL     OW88783   5.669   1.642  12.321  0.0586 -0.6811  1.2200
60578SOL    HW188784   5.628   1.556  12.319 -3.0498  0.6412  1.4181
60578SOL    HW288785   5.703   1.656  12.233 -0.1086 -1.8006  0.9753
60579SOL     OW88786  10.271   3.913   5.740  0.1700  0.1677  0.1243
60579SOL    HW188787  10.328   3.841   5.768 -1.3486 -0.4857  1.6591
60579SOL    HW288788  10.255   3.896   5.647  0.8853 -0.7244  0.1524
60580SOL     OW88789   0.650   4.138   8.052 -0.1401 -0.3446 -0.2100
60580SOL    HW188790   0.662   4.076   8.124 -0.9889 -0.8513 -0.4890
60580SOL    HW288791   0.578   4.101   8.001  1.5118 -0.9000 -2.2750
60581SOL     OW88792   4.137   3.211   4.154  0.0719  0.3333  0.2999
60581SOL    HW188793   4.171   3.296   4.183 -0.4255  0.7335 -0.2824
60581SOL    HW288794   4.070   3.189   4.219  2.8593 -1.5377  2.8134
60582SOL     OW88795   9.840   5.386   8.615  0.2692 -0.5123  0.3602
60582SOL    HW188796   9.838   5.370   8.710 -0.4380 -0.7443  0.3111
60582SOL    HW288797   9.904   5.323   8.582  2.2701  1.0935  0.9434
60583SOL     OW88798   8.465   6.209   1.163  0.1638  0.1400  0.4361
60583SOL    HW188799   8.524   6.247   1.098  0.4037 -1.4523 -0.3332
60583SOL    HW288800   8.514   6.212   1.245  0.2301  1.2987  0.3669
60584SOL     OW88801   8.542   0.297   2.969 -0.1648  0.1834 -0.2902
60584SOL    HW188802   8.490   0.231   3.014  0.9796 -1.1832 -0.9228
60584SOL    HW288803   8.480   0.341   2.910 -0.2209 -3.0680 -2.8991
60585SOL     OW88804   5.645  11.796   5.268 -0.4920 -0.3010 -0.5285
60585SOL    HW188805   5.611  11.886   5.267 -0.3510 -0.2314 -2.0928
60585SOL    HW288806   5.606  11.756   5.346 -1.3056  0.8378 -0.3256
60586SOL     OW88807  10.597   3.880   1.012 -0.8069 -0.0739  0.3327
60586SOL    HW188808  10.511   3.873   1.054 -1.1901 -1.4899 -0.6074
60586SOL    HW288809  10.605   3.799   0.962  0.2292  0.9183 -1.1845
60587SOL     OW88810   4.510   1.980   0.825  0.1694  0.1011 -0.2353
60587SOL    HW188811   4.475   1.898   0.790 -0.5159  0.4941 -0.4922
60587SOL    HW288812   4.508   2.040   0.750 -0.3713  0.6615  0.2165
60588SOL     OW88813   2.463  12.281   0.648 -0.1091 -0.0786  0.1485
60588SOL    HW188814   2.477  12.312   0.558 -2.1990  1.2650  0.2148
60588SOL    HW288815   2.467  12.186   0.641  1.0886  0.0242 -1.0981
60589SOL     OW88816   2.892   8.431   6.100 -0.5746  0.2316  0.2969
60589SOL    HW188817   2.871   8.349   6.145  0.6440  1.1805  2.8127
60589SOL    HW288818   2.979   8.416   6.064 -0.2492  0.4541  0.9645
60590SOL     OW88819   8.760   5.808   1.972  0.0016  0.2249 -0.3705
60590SOL    HW188820   8.786   5.850   1.890  0.3597  0.3854 -0.1747
60590SOL    HW288821   8.718   5.726   1.945  0.1268  0.2723 -0.7125
60591SOL     OW88822   0.962   1.706   8.273  0.2713  0.3140  0.2273
60591SOL    HW188823   0.923   1.761   8.204 -0.4784  1.4945  1.5396
60591SOL    HW288824   1.056   1.713   8.258  0.1008 -0.5998 -1.5113
60592SOL     OW88825   2.501   7.887   3.105 -0.8286 -0.3615 -0.0828
60592SOL    HW188826   2.490   7.805   3.058  1.3519 -1.1234  0.6197
60592SOL    HW288827   2.565   7.936   3.054 -0.6769  0.0769  0.5191
60593SOL     OW88828   7.705   4.413   2.941  0.6737 -0.4384 -0.0293
60593SOL    HW188829   7.692   4.364   2.860  1.8089 -0.6249 -0.1214
60593SOL    HW288830   7.671   4.501   2.922 -2.4210 -1.4039  0.4930
60594SOL     OW88831  11.399   9.265   7.671  0.6555 -0.5816 -0.2009
60594SOL    HW188832  11.479   9.240   7.716  1.3963  1.8637  0.0110
60594SOL    HW288833  11.354   9.325   7.731  0.6354  1.1259 -1.8030
60595SOL     OW88834   5.977  12.053   0.906 -0.0096  1.0824 -0.1147
60595SOL    HW188835   5.909  11.996   0.870  1.0785  2.1940 -4.6318
60595SOL    HW288836   5.938  12.140   0.906 -0.2766  1.0315  2.6470
60596SOL     OW88837   8.131   8.104   0.074  0.0119 -0.4030 -0.1612
60596SOL    HW188838   8.197   8.136   0.136 -0.8631 -1.2013  1.2496
60596SOL    HW288839   8.077   8.044   0.126 -2.9029  1.4922 -0.7600
60597SOL     OW88840  11.397   3.003   5.320 -0.0830  0.6455  0.0698
60597SOL    HW188841  11.367   3.067   5.256 -1.9987  0.5516  0.8091
60597SOL    HW288842  11.426   3.055   5.395 -0.9627  0.7073  0.3856
60598SOL     OW88843   9.668   4.951   4.011  0.2925  0.4601  0.0766
60598SOL    HW188844   9.702   5.038   4.036 -0.0671  0.6990 -0.2611
60598SOL    HW288845   9.573   4.960   4.017  0.2697 -0.6806  2.6578
60599SOL     OW88846   3.486   5.985  12.068  0.0970 -0.1985 -0.1852
60599SOL    HW188847   3.472   5.902  12.114  0.4708 -0.3916 -0.4178
60599SOL    HW288848   3.572   5.976  12.027  0.4328  0.5547  0.3223
60600SOL     OW88849   4.707   9.782   8.014 -0.1451  0.7763 -0.2239
60600SOL    HW188850   4.802   9.784   8.007 -0.2557  2.0727 -2.8385
60600SOL    HW288851   4.684   9.866   8.054 -0.2206  0.9245 -0.5749
60601SOL     OW88852   8.610   3.233  10.395 -0.1504 -0.8170  0.1297
60601SOL    HW188853   8.591   3.160  10.453 -1.7281 -1.0949 -0.6723
60601SOL    HW288854   8.559   3.215  10.316 -2.3667  2.1318  0.6860
60602SOL     OW88855   6.936   0.427   0.835 -0.5902 -0.0797 -0.1767
60602SOL    HW188856   6.984   0.505   0.807 -1.0353 -0.0955 -1.0365
60602SOL    HW288857   6.910   0.446   0.925  0.5804  0.1331  0.1359
60603SOL     OW88858   6.311  11.943   7.752  0.0622  0.4764 -0.6333
60603SOL    HW188859   6.399  11.942   7.788  0.1396 -0.2477 -0.8202
60603SOL    HW288860   6.271  12.023   7.786  1.2760  1.5883 -1.7206
60604SOL     OW88861   0.604   7.218   3.481 -0.0470  0.6833 -0.1360
60604SOL    HW188862   0.645   7.213   3.568  0.5631  1.2963 -0.3824
60604SOL    HW288863   0.628   7.305   3.448  2.3478 -0.6382 -2.1959
60605SOL     OW88864   0.793   7.200  12.263  0.8333  0.0146 -0.6870
60605SOL    HW188865   0.872   7.146  12.268 -0.3887 -1.7760  0.7799
60605SOL    HW288866   0.794   7.251  12.344 -0.1460 -1.0513  0.0375
60606SOL     OW88867   0.693   2.748   7.758 -0.6840 -0.1766  0.0452
60606SOL    HW188868   0.647   2.794   7.687  0.6561 -0.2746 -0.9327
60606SOL    HW288869   0.786   2.758   7.736 -0.2060  0.1938  2.0641
60607SOL     OW88870   6.601   7.654   6.859  0.1013  0.0442  0.1036
60607SOL    HW188871   6.545   7.579   6.877  0.7290 -0.7869 -1.2675
60607SOL    HW288872   6.551   7.729   6.891 -1.3877 -0.7627 -0.2334
60608SOL     OW88873   8.387   4.623  12.156  0.1829 -0.1725 -0.0995
60608SOL    HW188874   8.396   4.577  12.073  0.2225  0.0258 -0.2053
60608SOL    HW288875   8.300   4.599  12.188  0.0072  0.0757 -0.3950
60609SOL     OW88876   9.825   9.446  10.489  0.5147  0.5231 -0.3757
60609SOL    HW188877   9.804   9.356  10.462  1.6933 -0.1287  0.7670
60609SOL    HW288878   9.871   9.483  10.414  1.5251 -0.4203 -0.2581
60610SOL     OW88879  10.610  12.031   8.717 -0.1788  0.2149 -0.2949
60610SOL    HW188880  10.516  12.023   8.702 -0.5087  1.7314  0.7677
60610SOL    HW288881  10.630  11.965   8.783 -0.8630  1.0190  0.7610
60611SOL     OW88882   5.561   8.898   2.181  0.5181 -0.0192  0.3870
60611SOL    HW188883   5.578   8.835   2.250 -1.9103  0.5944  1.6655
60611SOL    HW288884   5.467   8.916   2.187  0.7753  2.3238 -1.1304
60612SOL     OW88885   0.697  12.084  10.761 -0.1252  0.0459  0.2782
60612SOL    HW188886   0.755  12.138  10.815 -0.8419  2.1476 -0.9428
60612SOL    HW288887   0.753  12.053  10.690 -0.3161  1.7256 -0.6670
60613SOL     OW88888   0.664  10.307   8.834  0.3757  0.1262 -0.0798
60613SOL    HW188889   0.630  10.269   8.753 -0.5307  0.2932  0.2121
60613SOL    HW288890   0.750  10.267   8.845  0.5502  0.1618 -1.1685
60614SOL     OW88891   7.275   0.713   8.279 -0.0681  0.2378 -0.2128
60614SOL    HW188892   7.365   0.718   8.246  0.8818 -2.3996  1.5777
60614SOL    HW288893   7.282   0.737   8.371 -0.5820 -2.5593  0.6538
60615SOL     OW88894   6.655   5.197   3.650 -0.0268 -0.0025  0.2708
60615SOL    HW188895   6.693   5.191   3.738 -0.3765  1.4868  0.5509
60615SOL    HW288896   6.637   5.290   3.638 -1.5447 -0.3835 -0.7270
60616SOL     OW88897   6.001   8.679   9.355 -0.4243  0.4255 -0.3503
60616SOL    HW188898   6.068   8.615   9.331 -2.0434 -1.2631 -0.6156
60616SOL    HW288899   6.014   8.751   9.294  0.6511 -0.2048 -0.9079
60617SOL     OW88900   0.758   5.277   0.874  0.1025 -0.0615 -0.2086
60617SOL    HW188901   0.664   5.273   0.853 -0.0241 -0.1879  0.3837
60617SOL    HW288902   0.763   5.262   0.968  0.4724  2.8430  0.3357
60618SOL     OW88903   1.563   3.368   4.934  0.2613  0.4718 -0.4553
60618SOL    HW188904   1.621   3.313   4.880 -1.1031 -0.7542 -0.7220
60618SOL    HW288905   1.595   3.356   5.023  0.2078 -0.4684 -0.5586
60619SOL     OW88906  12.592   2.007  11.833  0.1084  0.0039  0.3991
60619SOL    HW188907  12.654   1.955  11.884  0.9651 -0.2397 -0.8404
60619SOL    HW288908  12.508   1.963  11.846  0.8227 -1.7893 -0.7041
60620SOL     OW88909   6.390  12.360   0.018  0.4553  0.2975 -0.0710
60620SOL    HW188910   6.306  12.367   0.062  0.7540 -1.1365  0.8031
60620SOL    HW288911   6.438  12.438   0.044  0.5744 -0.4446  2.1248
60621SOL     OW88912   4.175   9.084   1.061  0.1338 -0.0483  0.2694
60621SOL    HW188913   4.138   9.091   1.149 -1.7584 -0.4457 -0.4528
60621SOL    HW288914   4.130   9.010   1.022 -0.4383  1.2274 -1.6517
60622SOL     OW88915   5.764   2.808   9.397  0.0879  0.3926  0.0226
60622SOL    HW188916   5.696   2.755   9.440 -0.4191  0.9978 -0.0039
60622SOL    HW288917   5.823   2.745   9.357 -1.1765 -0.1440 -1.0617
60623SOL     OW88918   4.689   0.629  11.183 -0.3318 -0.3308 -0.5422
60623SOL    HW188919   4.664   0.608  11.272  3.0438  0.3859  0.7255
60623SOL    HW288920   4.702   0.545  11.140  0.7812 -0.7386  0.5610
60624SOL     OW88921   8.138   8.178   1.376  0.1115  0.2314 -0.3019
60624SOL    HW188922   8.178   8.238   1.313  0.4464  0.6331  0.2885
60624SOL    HW288923   8.087   8.234   1.434  1.8396  0.1902  1.3574
60625SOL     OW88924   9.291   1.770   0.188  0.5043  0.1637 -0.0048
60625SOL    HW188925   9.227   1.781   0.119  1.0544 -0.4021 -0.6211
60625SOL    HW288926   9.239   1.752   0.267 -0.0799 -1.2392 -0.6744
60626SOL     OW88927   8.581   3.045  11.637  0.6326  0.5936  0.7716
60626SOL    HW188928   8.565   2.995  11.558 -0.4694 -1.4909  2.2216
60626SOL    HW288929   8.578   3.136  11.609 -0.9924 -0.0386 -1.3511
60627SOL     OW88930   0.289   4.002   4.546 -0.0685  0.0198 -1.1264
60627SOL    HW188931   0.353   4.050   4.494  1.4850 -0.0625  0.6067
60627SOL    HW288932   0.333   3.985   4.629 -2.0558 -0.7829 -0.1595
60628SOL     OW88933   0.174   7.146  10.793  0.4561 -0.1638  0.5678
60628SOL    HW188934   0.087   7.106  10.791  0.2984  0.0304  2.4360
60628SOL    HW288935   0.161   7.229  10.838  1.0702  1.3484 -1.8672
60629SOL     OW88936   1.157   2.825   8.355  0.3629 -0.2602  0.1476
60629SOL    HW188937   1.080   2.797   8.404  1.2290 -1.3783  0.9118
60629SOL    HW288938   1.161   2.920   8.371 -0.8712 -0.1691  0.0351
60630SOL     OW88939   5.526   7.480   9.865 -0.0673  0.4699  0.5196
60630SOL    HW188940   5.556   7.446   9.780 -1.7090 -2.3791  0.9520
60630SOL    HW288941   5.605   7.483   9.919  0.9497  2.0436 -0.9273
60631SOL     OW88942   4.050   1.602   8.525  0.1463 -0.7989 -0.0070
60631SOL    HW188943   3.976   1.558   8.567  0.2154 -0.7030  0.2155
60631SOL    HW288944   4.054   1.562   8.438  0.1389 -1.1541  0.1517
60632SOL     OW88945   7.048  10.365   8.620 -0.2668  0.1146 -0.3926
60632SOL    HW188946   6.954  10.376   8.602 -0.4001 -0.5907 -0.1363
60632SOL    HW288947   7.059  10.271   8.634 -0.0572  0.5210  2.6728
60633SOL     OW88948   5.224   3.486   3.425 -0.4341  0.1034 -0.2152
60633SOL    HW188949   5.278   3.427   3.478 -1.1969 -0.1818  0.2480
60633SOL    HW288950   5.147   3.502   3.478 -0.4584  1.1354 -0.5509
60634SOL     OW88951   0.414   1.569  10.624  0.2837 -0.0798 -0.0913
60634SOL    HW188952   0.481   1.503  10.643  0.6558  0.3849  0.2441
60634SOL    HW288953   0.397   1.611  10.709  1.2080  1.3190 -0.5587
60635SOL     OW88954   3.836   7.066   0.179 -0.0463 -0.1286  0.4495
60635SOL    HW188955   3.898   7.004   0.140  2.5524  1.2570  2.1583
60635SOL    HW288956   3.848   7.147   0.129 -1.1780 -0.0802  0.2268
60636SOL     OW88957   9.596   5.183  11.592 -0.1875 -0.2687  1.2028
60636SOL    HW188958   9.511   5.141  11.603  0.0107 -0.4946  1.8856
60636SOL    HW288959   9.660   5.112  11.603  0.0691 -0.3305 -0.4485
60637SOL     OW88960   8.812   2.082   0.232  0.6227 -0.1575 -0.2996
60637SOL    HW188961   8.769   2.159   0.270  0.6229 -0.3140  0.0161
60637SOL    HW288962   8.817   2.019   0.303  2.5954  0.3442  0.0491
60638SOL     OW88963  11.969   6.533   6.303 -0.7363 -0.7302  0.0896
60638SOL    HW188964  11.894   6.540   6.363 -1.0509 -0.0451 -0.3778
60638SOL    HW288965  12.045   6.536   6.360 -0.9408  2.0671  0.3669
60639SOL     OW88966   6.483   9.846  11.929  0.2619  0.1812 -0.2564
60639SOL    HW188967   6.420   9.776  11.911 -1.1723  1.7112 -1.5341
60639SOL    HW288968   6.541   9.846  11.853  0.7463 -0.0949  0.1057
60640SOL     OW88969  12.114   8.858   9.377 -0.5306  0.0133 -0.7018
60640SOL    HW188970  12.088   8.937   9.424  0.0526  0.5588 -1.2791
60640SOL    HW288971  12.099   8.786   9.439 -1.2152  0.5538 -0.2295
60641SOL     OW88972   3.463   9.463   3.428 -0.1657  0.4671  0.6678
60641SOL    HW188973   3.437   9.372   3.442  0.3446  0.2668  0.2970
60641SOL    HW288974   3.460   9.502   3.516 -1.3978  0.3702  0.6900
60642SOL     OW88975   6.000   8.666   9.635 -0.9286 -0.0581 -0.3236
60642SOL    HW188976   5.992   8.695   9.544 -0.5594 -1.7795 -0.9355
60642SOL    HW288977   5.922   8.613   9.651 -2.2313  2.0896  1.1836
60643SOL     OW88978   4.350   0.350   4.891  0.1082 -0.2657  0.1023
60643SOL    HW188979   4.318   0.265   4.861 -0.1868 -0.0253 -0.2743
60643SOL    HW288980   4.346   0.406   4.814 -0.6026  0.3447  0.5574
60644SOL     OW88981   1.141   9.905   1.286  0.1106  0.2986  0.1126
60644SOL    HW188982   1.185   9.820   1.287 -1.0529 -0.3309  1.4323
60644SOL    HW288983   1.136   9.929   1.193 -0.1123 -1.3762 -0.3241
60645SOL     OW88984   6.361   2.751  11.224 -0.3541  0.4175 -0.3359
60645SOL    HW188985   6.336   2.840  11.199  0.2435  0.3198 -1.3193
60645SOL    HW288986   6.446   2.738  11.184 -0.0800 -0.3275  0.4696
60646SOL     OW88987  10.354  11.993   1.681 -0.1683  0.6062  0.5795
60646SOL    HW188988  10.383  12.082   1.701  1.0237  0.5826 -0.8665
60646SOL    HW288989  10.413  11.937   1.732  0.0904  0.6150  0.2886
60647SOL     OW88990   4.875   2.180   3.032  0.4109  0.0752 -0.1814
60647SOL    HW188991   4.888   2.106   2.973  0.9166 -0.5888  0.7486
60647SOL    HW288992   4.824   2.242   2.980  0.6116 -0.5977 -1.2304
60648SOL     OW88993   1.813   0.706   0.211  0.4825 -0.5940 -0.0137
60648SOL    HW188994   1.865   0.665   0.141  1.2373 -0.0479  0.2146
60648SOL    HW288995   1.764   0.775   0.167  2.4166  1.0337  0.2784
60649SOL     OW88996   0.143  11.072   1.571 -0.1542 -0.1295 -0.9510
60649SOL    HW188997   0.223  11.101   1.526  0.6392 -0.5422  0.1518
60649SOL    HW288998   0.127  11.139   1.637 -1.9135  1.0309 -2.4409
60650SOL     OW88999   9.005   9.000   4.338  0.4845  0.2627 -0.0735
60650SOL    HW189000   8.929   9.023   4.392 -0.7153  0.9181 -1.9087
60650SOL    HW289001   9.051   9.083   4.325  0.7665  0.1131 -0.0175
60651SOL     OW89002   0.629  11.347  10.400  0.0058 -0.2543  0.2012
60651SOL    HW189003   0.537  11.320  10.391 -0.5291  0.4007  2.8255
60651SOL    HW289004   0.679  11.266  10.388 -1.0028 -0.8815  0.0813
60652SOL     OW89005   3.946  11.426   2.763 -0.1591  0.1730  0.1060
60652SOL    HW189006   3.854  11.400   2.754 -0.5653  1.4514  0.3099
60652SOL    HW289007   3.989  11.349   2.799 -1.1441 -0.4613 -0.0183
60653SOL     OW89008   4.476   5.368   5.000  0.0076  0.1481  0.1968
60653SOL    HW189009   4.442   5.279   5.007  0.0505  0.0462 -0.7735
60653SOL    HW289010   4.570   5.358   4.986 -0.0420  0.3177 -0.3171
60654SOL     OW89011   4.947  11.840   6.421  0.2524 -0.0275  0.0045
60654SOL    HW189012   5.037  11.806   6.422 -0.5045 -2.1967 -0.6589
60654SOL    HW289013   4.957  11.934   6.432  2.6617 -0.1144 -0.9497
60655SOL     OW89014  10.195   8.248  10.295 -0.3652 -0.2325  0.3559
60655SOL    HW189015  10.218   8.166  10.339 -0.7656 -0.4411  0.1881
60655SOL    HW289016  10.100   8.244  10.286 -0.2228 -0.6089 -1.3211
60656SOL     OW89017  11.313  12.396   5.867  0.3381  0.6565  0.3951
60656SOL    HW189018  11.360  12.316   5.845 -0.7709 -0.0528  0.5200
60656SOL    HW289019  11.355  12.429   5.946 -0.3890 -0.8520  1.4522
60657SOL     OW89020   2.913   6.811   2.786  0.3331 -0.2345 -0.3147
60657SOL    HW189021   2.987   6.871   2.779 -0.7481  1.1124 -0.6128
60657SOL    HW289022   2.901   6.777   2.697  1.9330 -2.1872  0.1487
60658SOL     OW89023   1.445   8.709   4.564 -0.9311  0.4950 -0.4710
60658SOL    HW189024   1.392   8.640   4.603 -1.5610  0.9666 -0.4802
60658SOL    HW289025   1.455   8.682   4.472 -3.4478  1.7012 -1.1848
60659SOL     OW89026  12.182   2.393   2.559 -0.7187 -0.4029 -0.2746
60659SOL    HW189027  12.106   2.438   2.598  0.3202  0.2282  1.0952
60659SOL    HW289028  12.254   2.412   2.619  1.2676  1.5160 -3.0455
60660SOL     OW89029   1.517   6.470   1.258  0.0152 -0.7929 -0.6388
60660SOL    HW189030   1.447   6.450   1.196  0.5464 -1.6139 -0.9926
60660SOL    HW289031   1.565   6.542   1.219 -0.3432 -0.5489 -0.6293
60661SOL     OW89032  10.659  11.289   2.137  0.4413 -0.0893  0.2101
60661SOL    HW189033  10.630  11.375   2.169  1.0223  0.1819  0.0217
60661SOL    HW289034  10.750  11.302   2.113  0.1195 -0.3693 -1.2663
60662SOL     OW89035   5.947   9.690   7.259 -0.7935  0.4002 -0.0507
60662SOL    HW189036   5.929   9.759   7.195 -0.4285  0.4264 -0.1283
60662SOL    HW289037   6.041   9.672   7.248 -1.2114 -1.2954 -1.2351
60663SOL     OW89038   9.882   1.240   9.038  0.4719 -0.0056  0.3038
60663SOL    HW189039   9.833   1.313   9.076  1.2839  1.3688 -1.1699
60663SOL    HW289040   9.949   1.220   9.103  0.7276  1.1120  0.4104
60664SOL     OW89041   6.768   0.000   7.696  0.5211  0.3863  0.2514
60664SOL    HW189042   6.795   0.064   7.630 -1.4338  0.9679 -0.0307
60664SOL    HW289043   6.804  -0.083   7.665  0.5632  0.8384 -0.9772
60665SOL     OW89044   8.281   1.692   8.765  0.2054  0.4051  0.1023
60665SOL    HW189045   8.351   1.697   8.699 -1.6415  1.5405 -1.8704
60665SOL    HW289046   8.324   1.719   8.847  1.8096  2.2215 -1.2479
60666SOL     OW89047   4.778   8.508   9.128 -0.4678  0.0218  0.3108
60666SOL    HW189048   4.743   8.424   9.098 -2.3245  1.0504 -0.4874
60666SOL    HW289049   4.801   8.555   9.048 -0.9282  0.8843  0.6717
60667SOL     OW89050   4.629   3.550   9.278 -0.7881  0.5954  0.2084
60667SOL    HW189051   4.606   3.597   9.198  0.4509  1.0579  0.0946
60667SOL    HW289052   4.551   3.500   9.300 -0.1862 -2.3121 -3.2208
60668SOL     OW89053   6.079   4.557   8.107 -0.0300 -0.3274 -0.7210
60668SOL    HW189054   6.081   4.462   8.096 -0.4235 -0.4014 -0.1746
60668SOL    HW289055   5.988   4.582   8.090  0.2593  0.0785 -1.7893
60669SOL     OW89056   3.366   7.339  11.709  0.0805  0.5979 -0.5060
60669SOL    HW189057   3.437   7.293  11.665  0.5215  0.3775  0.4171
60669SOL    HW289058   3.288   7.317  11.658  0.3516 -0.8000 -0.3546
60670SOL     OW89059   0.915  12.342   6.627 -0.4576  0.1150  0.7629
60670SOL    HW189060   0.864  12.300   6.558 -1.6854  2.0634  0.3931
60670SOL    HW289061   0.997  12.368   6.585 -1.3217  1.5630 -0.1008
60671SOL     OW89062   5.243   1.999   7.332 -0.1392  0.0781 -0.1217
60671SOL    HW189063   5.247   1.993   7.237 -2.3075 -0.1068 -0.2358
60671SOL    HW289064   5.334   1.986   7.360  0.7063  1.1031 -2.1766
60672SOL     OW89065   1.988  10.973   7.290 -0.0972  0.2121  0.3141
60672SOL    HW189066   1.904  10.928   7.300  0.4822 -0.9262  0.2137
60672SOL    HW289067   1.983  11.014   7.203 -0.9329  1.0274  0.7268
60673SOL     OW89068  11.628   4.332   8.632  0.3864  0.0523 -0.2312
60673SOL    HW189069  11.665   4.244   8.634  0.6037  0.1512  0.1175
60673SOL    HW289070  11.605   4.350   8.723 -1.3377 -0.3518 -0.5463
60674SOL     OW89071  12.262   9.927   4.081 -0.1763 -0.1305  0.4506
60674SOL    HW189072  12.250   9.905   4.173  1.8008  1.2971  1.1174
60674SOL    HW289073  12.176   9.955   4.051 -0.6040  0.5298  2.1925
60675SOL     OW89074   2.467   5.891   2.930 -0.4882  0.3942 -0.8516
60675SOL    HW189075   2.416   5.812   2.945 -1.1129  0.8966 -0.2512
60675SOL    HW289076   2.510   5.907   3.014 -2.8474  2.4184  0.0852
60676SOL     OW89077  12.280   9.950  12.153 -0.3090  0.0689 -0.1446
60676SOL    HW189078  12.370   9.949  12.186 -0.7867  1.8737  1.3682
60676SOL    HW289079  12.258   9.857  12.141  0.8285 -0.5706  2.1345
60677SOL     OW89080  12.333   3.198   2.600  0.1172  0.4103  0.0035
60677SOL    HW189081  12.425   3.199   2.573 -0.1391 -0.8107 -1.0017
60677SOL    HW289082  12.322   3.114   2.645 -0.6904  0.1696 -0.6196
60678SOL     OW89083   5.077   4.941   2.313  0.2454 -0.2597  0.3339
60678SOL    HW189084   5.138   4.908   2.379 -0.4804  0.0696  1.1906
60678SOL    HW289085   5.107   4.903   2.230  1.8167  0.1671  0.6742
60679SOL     OW89086   8.753   4.817   8.695  0.3979  0.2362 -0.4107
60679SOL    HW189087   8.695   4.775   8.759  2.6977  0.8911  2.3243
60679SOL    HW289088   8.757   4.755   8.622 -0.4346 -1.7951  1.1575
60680SOL     OW89089   3.198  10.678   6.302  0.6581 -0.0134  0.1247
60680SOL    HW189090   3.247  10.622   6.242  0.9055 -0.1596  0.4611
60680SOL    HW289091   3.111  10.639   6.304  0.7765 -0.2754  0.2115
60681SOL     OW89092   0.278   6.215  10.919 -0.0427 -0.0893 -0.0548
60681SOL    HW189093   0.229   6.277  10.864 -1.0105 -1.0674 -0.3259
60681SOL    HW289094   0.370   6.238  10.904 -0.3733  1.4420  0.0575
60682SOL     OW89095   9.537   1.488  12.277 -0.3387  0.0512  0.3186
60682SOL    HW189096   9.518   1.400  12.245  0.3969  0.1891 -0.5250
60682SOL    HW289097   9.470   1.543  12.236 -1.2707 -0.2091  1.4485
60683SOL     OW89098  10.410   6.255   8.626 -0.3354  0.8810 -0.1797
60683SOL    HW189099  10.416   6.275   8.532  0.6072  0.9586 -0.1152
60683SOL    HW289100  10.326   6.292   8.653 -0.6891  0.7182 -1.0281
60684SOL     OW89101   2.426  11.492  11.392 -0.2970 -0.0088 -0.3262
60684SOL    HW189102   2.367  11.556  11.429 -0.4666  0.8177 -1.9172
60684SOL    HW289103   2.411  11.497  11.297  1.6236 -0.4584 -0.7023
60685SOL     OW89104   8.611   0.697   3.165  0.0083 -0.0291  0.6499
60685SOL    HW189105   8.522   0.731   3.174  0.4794  1.1788  0.8348
60685SOL    HW289106   8.656   0.760   3.110  0.4278 -1.2892 -0.5141
60686SOL     OW89107   0.579   8.351   8.313  0.5472 -0.4413  0.1077
60686SOL    HW189108   0.542   8.419   8.368 -1.7956  0.2255 -2.1117
60686SOL    HW289109   0.557   8.269   8.357  2.6799  0.0790  2.3823
60687SOL     OW89110   2.848   8.307   5.047  0.3974  0.3040 -1.0283
60687SOL    HW189111   2.798   8.338   5.123 -1.6517  1.7831 -2.8301
60687SOL    HW289112   2.827   8.214   5.041 -0.0831  0.3529 -0.2325
60688SOL     OW89113   9.218   8.588   9.172  0.2002 -0.2390 -0.4276
60688SOL    HW189114   9.250   8.572   9.261  2.0091  0.8454 -0.8408
60688SOL    HW289115   9.128   8.617   9.184 -0.3408 -2.2373  0.8718
60689SOL     OW89116   5.066   5.543   3.307  0.7823  0.7135  1.1382
60689SOL    HW189117   5.015   5.576   3.381  0.8134  2.3132  0.4897
60689SOL    HW289118   5.011   5.476   3.268  0.5429  0.2125  2.2827
60690SOL     OW89119  11.861  11.153   9.570  1.3434 -0.3038 -0.4825
60690SOL    HW189120  11.944  11.155   9.521  2.0245 -1.8905  0.5333
60690SOL    HW289121  11.832  11.062   9.565  0.6650 -0.1807  0.7932
60691SOL     OW89122   6.485   7.890   5.729 -0.0009 -0.4339  0.6529
60691SOL    HW189123   6.437   7.973   5.739 -2.8270 -1.8220 -0.1584
60691SOL    HW289124   6.436   7.828   5.785 -0.4273 -2.3985 -1.7246
60692SOL     OW89125   3.690   4.152   0.322 -0.0366  0.0379  0.2932
60692SOL    HW189126   3.686   4.154   0.226  0.3348 -3.9456  0.0433
60692SOL    HW289127   3.761   4.091   0.342 -2.1126 -1.7350  3.0025
60693SOL     OW89128   2.486  10.048  10.055 -0.2425  0.2123  0.1954
60693SOL    HW189129   2.472  10.130  10.103  2.4434  0.1471  1.2805
60693SOL    HW289130   2.507   9.984  10.122 -0.9205 -1.0651 -0.7586
60694SOL     OW89131  11.959   2.797   8.210  0.4744  0.0506 -0.6480
60694SOL    HW189132  11.952   2.784   8.116  0.4293  1.4611 -0.8670
60694SOL    HW289133  11.937   2.890   8.223  3.5137  0.7279  0.3954
60695SOL     OW89134   7.986   0.373  11.472 -0.2727 -0.1860 -0.2903
60695SOL    HW189135   7.916   0.438  11.472 -0.8838 -0.7964  1.3044
60695SOL    HW289136   8.017   0.371  11.382  0.8483  3.4159 -0.1454
60696SOL     OW89137  11.022   6.838   6.098 -0.1453  0.0381  0.2239
60696SOL    HW189138  11.048   6.792   6.178 -0.3979  0.0432  0.3099
60696SOL    HW289139  10.940   6.882   6.122 -1.3411 -1.6117 -0.6340
60697SOL     OW89140   0.396   4.903   8.373 -0.0549 -0.2568 -0.3580
60697SOL    HW189141   0.309   4.933   8.347 -0.2183  1.7878  2.1367
60697SOL    HW289142   0.391   4.808   8.368 -3.3781 -0.3873  2.1162
60698SOL     OW89143  10.355   7.317  11.688  0.5430 -0.3692 -0.8154
60698SOL    HW189144  10.392   7.393  11.642 -1.3851  0.5270 -0.9580
60698SOL    HW289145  10.387   7.327  11.778 -0.7927  1.4200 -0.5009
60699SOL     OW89146   2.172   0.315  12.567  0.4358  0.0038 -0.3753
60699SOL    HW189147   2.199   0.371  12.494  2.6008 -0.5481 -0.0639
60699SOL    HW289148   2.251   0.304  12.620 -1.2263  1.1799  2.6604
60700SOL     OW89149   4.872  11.860   8.170 -0.4607 -0.2940  0.1202
60700SOL    HW189150   4.967  11.862   8.174 -0.4762  0.1965  3.4840
60700SOL    HW289151   4.847  11.935   8.116  1.0526  0.5355  0.5326
60701SOL     OW89152   4.928   1.281   0.219  0.3714 -0.1043  0.0370
60701SOL    HW189153   4.970   1.211   0.269 -1.6971 -1.9410 -0.5856
60701SOL    HW289154   4.838   1.283   0.252  0.4112  2.4800  0.1805
60702SOL     OW89155   0.907   5.705   0.936 -0.0536 -0.3270 -0.2802
60702SOL    HW189156   0.824   5.726   0.978 -0.0642  1.9796 -1.3247
60702SOL    HW289157   0.972   5.757   0.984  0.7997 -1.9222  0.3768
60703SOL     OW89158   6.672   6.328   4.205  0.4396 -0.1592  0.0269
60703SOL    HW189159   6.722   6.407   4.223  0.5196 -0.4715  1.2539
60703SOL    HW289160   6.598   6.358   4.152 -0.3204  1.0006  1.6655
60704SOL     OW89161   5.370   2.303  10.587 -0.1172  0.0887 -0.1626
60704SOL    HW189162   5.367   2.252  10.668 -0.3900  1.5769  0.8091
60704SOL    HW289163   5.357   2.238  10.518  0.7029 -1.3088  0.9337
60705SOL     OW89164   3.840   0.630   1.721 -0.2675 -0.0810 -0.1134
60705SOL    HW189165   3.754   0.630   1.764 -1.4549 -0.5421 -2.3236
60705SOL    HW289166   3.820   0.646   1.629  2.2094  1.7858 -0.4423
60706SOL     OW89167   9.204   9.178  12.410  0.0666  0.0819  0.0827
60706SOL    HW189168   9.224   9.085  12.417  1.5595  0.3591 -0.0056
60706SOL    HW289169   9.115   9.182  12.376  0.3947 -1.3194 -1.0350
60707SOL     OW89170   9.714  10.636   4.421  0.2639 -0.3484  0.0498
60707SOL    HW189171   9.706  10.599   4.509  0.1319  0.7174  0.4967
60707SOL    HW289172   9.700  10.730   4.433 -0.5802 -0.2884 -1.2269
60708SOL     OW89173   7.383   8.058  12.176 -0.1415  0.2377  0.3653
60708SOL    HW189174   7.350   7.974  12.144  0.0627 -1.1840  3.4813
60708SOL    HW289175   7.333   8.124  12.127 -1.2144 -1.6793 -1.2939
60709SOL     OW89176   7.477   8.831  12.151 -0.6232  0.0769 -0.5443
60709SOL    HW189177   7.569   8.814  12.129 -0.3085  2.3759 -1.2674
60709SOL    HW289178   7.435   8.745  12.148  1.2971 -0.8931 -1.1513
60710SOL     OW89179   1.647   1.850   4.973 -0.4025  0.7409 -0.5786
60710SOL    HW189180   1.563   1.850   4.927 -0.1709  0.0530 -1.0224
60710SOL    HW289181   1.692   1.929   4.942  0.5017 -0.5951 -2.9930
60711SOL     OW89182   9.394   3.320   7.377  0.5534  0.7449  0.2218
60711SOL    HW189183   9.384   3.364   7.293 -1.8275 -0.4827 -0.2203
60711SOL    HW289184   9.352   3.235   7.365  0.0696  0.5568  2.6693
60712SOL     OW89185   0.281  11.646   9.417  0.1600 -0.5397  0.0956
60712SOL    HW189186   0.302  11.647   9.510 -1.3710 -0.3048  0.4612
60712SOL    HW289187   0.223  11.721   9.403  0.9085 -0.1687 -1.1886
60713SOL     OW89188   9.626   4.058  10.593 -0.0356 -0.3451 -0.3403
60713SOL    HW189189   9.546   4.099  10.627  0.0148  0.6123 -1.3336
60713SOL    HW289190   9.620   3.967  10.622  0.1483  0.4478  2.4391
60714SOL     OW89191   0.304   4.863  12.026 -0.0410  0.8277 -0.0983
60714SOL    HW189192   0.380   4.903  12.068 -0.3438 -0.1060  1.4137
60714SOL    HW289193   0.229   4.900  12.073 -0.3674 -0.5044  0.4755
60715SOL     OW89194   2.470   9.968  10.310 -0.3144  0.2974 -0.7192
60715SOL    HW189195   2.437   9.879  10.294 -1.7147  0.8945 -1.3355
60715SOL    HW289196   2.402  10.009  10.364  0.2283  1.0651 -0.6055
60716SOL     OW89197   7.707   6.305   4.295  0.0840  0.2083 -0.2319
60716SOL    HW189198   7.731   6.265   4.378 -0.7434 -0.0238 -0.0962
60716SOL    HW289199   7.788   6.305   4.244  1.0976  2.0943  1.2409
60717SOL     OW89200   7.269   7.756   6.397 -0.0662  0.1336 -0.0815
60717SOL    HW189201   7.239   7.841   6.363  1.0097 -0.1974 -2.0250
60717SOL    HW289202   7.321   7.777   6.473 -1.2134  1.0712  0.4796
60718SOL     OW89203   5.372   9.623   6.495  0.0945  0.1240 -0.3588
60718SOL    HW189204   5.313   9.696   6.475  1.3844  1.8752  1.7570
60718SOL    HW289205   5.355   9.559   6.426 -1.8099  1.9872 -1.7561
60719SOL     OW89206   0.757   8.482   3.772  0.3996 -0.5200 -0.2134
60719SOL    HW189207   0.843   8.441   3.760  0.6683 -0.5787  1.5969
60719SOL    HW289208   0.776   8.575   3.782  0.4397 -0.6555  1.3633
60720SOL     OW89209   9.468   7.843   3.151 -0.0187  0.5034  0.0336
60720SOL    HW189210   9.392   7.811   3.199 -0.5173  1.6881  0.0512
60720SOL    HW289211   9.522   7.764   3.137 -1.9896 -0.6856 -1.4078
60721SOL     OW89212   6.733   6.977  11.828 -0.6908  0.3227 -0.3410
60721SOL    HW189213   6.672   6.904  11.837  0.6842 -0.8688 -0.4206
60721SOL    HW289214   6.749   7.006  11.918 -2.1677  1.3818 -0.3666
60722SOL     OW89215   0.261   5.981   2.109 -0.0985 -0.0822  0.2278
60722SOL    HW189216   0.303   6.066   2.121 -0.7617  0.1707  0.8727
60722SOL    HW289217   0.286   5.954   2.020  1.4080  0.0383  0.5858
60723SOL     OW89218   3.758   6.057   3.750 -0.6812  0.4006 -0.1789
60723SOL    HW189219   3.819   6.087   3.682 -1.8270  0.7868 -1.0751
60723SOL    HW289220   3.712   5.983   3.710 -0.9211  0.2213  0.4212
60724SOL     OW89221  11.499   2.928   0.125  0.3766 -0.2304 -0.1772
60724SOL    HW189222  11.546   3.011   0.113 -0.9958  0.4827 -0.8521
60724SOL    HW289223  11.457   2.937   0.210 -0.5836  0.1976 -0.6867
60725SOL     OW89224  11.508  10.746   2.732  0.0683 -0.1284 -0.1111
60725SOL    HW189225  11.440  10.754   2.798 -0.8235 -0.1815 -1.0051
60725SOL    HW289226  11.509  10.831   2.688  0.1728 -0.3263 -0.4955
60726SOL     OW89227   3.294  10.971   4.753  0.1383 -0.0439 -0.8088
60726SOL    HW189228   3.337  10.913   4.690 -1.5653  0.2026 -2.2853
60726SOL    HW289229   3.217  11.004   4.706  0.1210  2.0712  0.5722
60727SOL     OW89230   0.854   3.008   9.887 -0.1591 -0.2930  0.6286
60727SOL    HW189231   0.943   3.042   9.895  0.3514 -1.5171  0.3490
60727SOL    HW289232   0.853   2.961   9.804 -0.3535 -2.2696  1.6848
60728SOL     OW89233   7.725   3.370   4.363  0.2627 -0.6093  0.3210
60728SOL    HW189234   7.757   3.461   4.358  0.8671 -0.8268  0.1047
60728SOL    HW289235   7.692   3.352   4.275  0.4212 -0.6923  0.2769
60729SOL     OW89236   3.808   3.869   6.410 -0.0338  0.1059 -0.3305
60729SOL    HW189237   3.823   3.949   6.360 -0.2930 -1.4770 -3.1580
60729SOL    HW289238   3.715   3.872   6.432  0.1163  0.8921  0.2494
60730SOL     OW89239   4.768   0.111  10.844 -0.3236  0.0868  0.5907
60730SOL    HW189240   4.847   0.149  10.884  1.6134 -1.7781 -1.1625
60730SOL    HW289241   4.748   0.036  10.899 -1.0531  0.6975  1.1720
60731SOL     OW89242   4.680   1.452  10.632 -0.2484 -0.1395  0.4751
60731SOL    HW189243   4.735   1.377  10.614  1.7055  1.2626  0.2861
60731SOL    HW289244   4.657   1.444  10.725 -0.3265 -1.1032  0.3757
60732SOL     OW89245  11.298   0.326   8.940 -0.5362 -0.2500  0.3542
60732SOL    HW189246  11.384   0.284   8.938 -0.5957 -0.3402 -0.5906
60732SOL    HW289247  11.237   0.255   8.959 -0.5559 -0.4741 -0.5032
60733SOL     OW89248   2.481  10.583  12.280  0.3538 -0.5731 -0.0281
60733SOL    HW189249   2.442  10.665  12.311  0.1320 -0.1602 -1.3371
60733SOL    HW289250   2.422  10.553  12.211  2.0239 -0.2432 -1.6458
60734SOL     OW89251   2.290   4.956  10.874  0.4588  0.2896 -0.1151
60734SOL    HW189252   2.288   4.906  10.956  0.1694  0.4849 -0.0007
60734SOL    HW289253   2.354   5.025  10.889 -0.5891  1.1685  0.4499
60735SOL     OW89254   8.062   3.651   1.225 -0.0938  0.1220  0.2286
60735SOL    HW189255   7.970   3.630   1.209 -0.0735 -0.9072  1.3714
60735SOL    HW289256   8.072   3.740   1.192 -1.9995  1.0169  1.9044
60736SOL     OW89257   4.061  10.845  12.169 -0.6386 -0.4986 -0.0824
60736SOL    HW189258   3.990  10.797  12.213  0.0288 -1.4052  0.0232
60736SOL    HW289259   4.141  10.815  12.212 -0.0924 -0.3484 -0.9766
60737SOL     OW89260   3.923  12.066   8.477 -0.5112  0.2934 -0.1962
60737SOL    HW189261   3.984  12.139   8.486 -1.6723  1.0532  2.9282
60737SOL    HW289262   3.838  12.107   8.462 -1.0278 -0.4338  0.6431
60738SOL     OW89263  10.683   8.950   1.057  0.1705 -0.3407 -0.2820
60738SOL    HW189264  10.684   8.859   1.087 -1.1550 -0.0319  0.8093
60738SOL    HW289265  10.615   8.952   0.989 -1.2645  0.1984  1.1039
60739SOL     OW89266  11.725  11.895   5.743  0.2263 -0.0215  0.7682
60739SOL    HW189267  11.763  11.907   5.830 -0.3960 -0.2719  1.0861
60739SOL    HW289268  11.722  11.800   5.731  0.4528  0.0155  0.4099
60740SOL     OW89269   3.846   7.313  10.100  0.1760 -0.4588  0.1981
60740SOL    HW189270   3.784   7.240  10.098 -0.5912  0.1988 -0.8099
60740SOL    HW289271   3.882   7.311  10.189 -1.3752 -0.7976  0.8656
60741SOL     OW89272   1.223  10.047   3.897  0.5644 -0.2982 -0.1971
60741SOL    HW189273   1.200  10.071   3.807 -2.3169 -0.9026  0.2686
60741SOL    HW289274   1.139  10.039   3.941  1.8969  0.4217  2.7149
60742SOL     OW89275   0.397   4.362   4.052  0.3087 -0.2113 -0.0412
60742SOL    HW189276   0.312   4.403   4.036  1.0343  0.4365 -2.6499
60742SOL    HW289277   0.376   4.270   4.072 -0.9708 -0.3245 -1.7291
60743SOL     OW89278   4.622   1.124  10.693 -0.2944  0.2639 -0.0890
60743SOL    HW189279   4.642   1.032  10.712  1.1641  0.8141  1.3362
60743SOL    HW289280   4.572   1.153  10.769 -2.3364  0.2190 -1.3671
60744SOL     OW89281   2.476   3.113  12.466  0.7825  0.2357  0.3173
60744SOL    HW189282   2.449   3.197  12.502 -0.8773 -0.1543  0.0498
60744SOL    HW289283   2.507   3.133  12.377 -0.2224  0.4855  0.0161
60745SOL     OW89284   7.465   1.273   8.666  0.0042 -0.7959 -0.1696
60745SOL    HW189285   7.507   1.200   8.621  2.2585 -0.0276  0.5138
60745SOL    HW289286   7.438   1.237   8.750  0.4002 -1.0376 -0.1435
60746SOL     OW89287   1.973   1.644   2.697  0.2116 -0.2823  0.2320
60746SOL    HW189288   1.915   1.715   2.724  0.1364 -0.8381  1.6022
60746SOL    HW289289   2.060   1.684   2.693  0.1741 -0.1091  1.0418
60747SOL     OW89290  12.584   6.718   0.267 -0.0173  0.4941  0.3123
60747SOL    HW189291  12.566   6.810   0.283 -0.1128  0.6382 -0.5339
60747SOL    HW289292  12.534   6.698   0.187  1.3778  0.1838 -0.5256
60748SOL     OW89293   3.244   1.320   2.013 -0.2733  0.4042  0.4529
60748SOL    HW189294   3.269   1.369   2.091 -1.0467 -0.6439  1.4026
60748SOL    HW289295   3.149   1.314   2.019 -0.2980 -0.0502 -0.3466
60749SOL     OW89296   7.452   7.034  11.599 -0.1630  0.7373 -0.3753
60749SOL    HW189297   7.507   7.050  11.675  1.0027  0.9317 -1.2357
60749SOL    HW289298   7.395   7.111  11.594  0.3760  1.1464 -0.2258
60750SOL     OW89299   4.781   0.342   4.532 -0.6455 -0.3683 -0.7108
60750SOL    HW189300   4.709   0.279   4.533 -1.1054  0.1412 -0.8908
60750SOL    HW289301   4.745   0.419   4.487 -0.0128 -0.0764 -0.7367
60751SOL     OW89302   1.316   6.579   2.313  0.9509  0.2624 -0.4357
60751SOL    HW189303   1.253   6.567   2.384 -0.1348 -0.3346 -1.4535
60751SOL    HW289304   1.362   6.660   2.334 -1.0329  1.4114 -0.2648
60752SOL     OW89305   7.462   6.005  10.136 -0.0918  0.1143  0.6560
60752SOL    HW189306   7.422   6.069  10.195 -0.2572  2.9537 -2.1938
60752SOL    HW289307   7.555   6.010  10.154  0.0287  2.1271 -0.2051
60753SOL     OW89308   1.966   2.298  10.923  0.4297  0.4404 -0.5124
60753SOL    HW189309   1.941   2.296  11.015 -0.2302 -1.3312 -0.6975
60753SOL    HW289310   1.884   2.299  10.875  0.7323 -0.5964 -1.0855
60754SOL     OW89311   7.119   8.007  11.474  0.1383  0.0208 -1.0116
60754SOL    HW189312   7.098   8.088  11.521  0.0422 -1.5892  1.9418
60754SOL    HW289313   7.034   7.973  11.445 -0.0716 -0.1120 -0.2720
60755SOL     OW89314   4.188   1.555   3.178  0.3241  0.1298  0.4071
60755SOL    HW189315   4.141   1.512   3.250  0.8451  3.1915  2.7577
60755SOL    HW289316   4.265   1.594   3.219  0.5427  2.2046 -1.7428
60756SOL     OW89317   9.209   9.858   1.943 -0.1585  0.6739 -0.2836
60756SOL    HW189318   9.153   9.935   1.944 -0.7765  0.2296  0.0168
60756SOL    HW289319   9.270   9.871   2.015 -2.1037 -0.4237  1.6871
60757SOL     OW89320  11.218  12.445   4.746 -0.1987  0.2180  0.4024
60757SOL    HW189321  11.144  12.473   4.800 -0.8321  1.0924 -0.8497
60757SOL    HW289322  11.204  12.352   4.732 -2.2743  0.7077 -1.4712
60758SOL     OW89323   7.122   2.298  12.117  0.6982 -0.2367  0.0769
60758SOL    HW189324   7.098   2.288  12.209  0.8920 -0.9597  0.0525
60758SOL    HW289325   7.088   2.219  12.075 -0.5129  0.6567 -0.7114
60759SOL     OW89326   4.837   2.854   3.864  0.5118  0.2403  0.0001
60759SOL    HW189327   4.852   2.854   3.958  2.1036 -1.9991 -0.1587
60759SOL    HW289328   4.923   2.837   3.826  0.3055  3.0477 -2.0272
60760SOL     OW89329   9.510   9.400   8.044  0.4035 -0.4250  0.6019
60760SOL    HW189330   9.454   9.475   8.022 -2.0443 -1.1662  3.5772
60760SOL    HW289331   9.570   9.434   8.111  1.0471 -0.5298  0.0839
60761SOL     OW89332  11.987   9.536   5.366 -0.0542 -0.1093 -0.1717
60761SOL    HW189333  12.023   9.475   5.430  0.6943 -1.7513 -2.0683
60761SOL    HW289334  12.042   9.614   5.374 -0.7430  0.2206  1.9723
60762SOL     OW89335   4.474  11.140   4.049  0.2893  0.7994  0.0822
60762SOL    HW189336   4.410  11.128   3.979 -0.6751 -0.2083  1.0901
60762SOL    HW289337   4.535  11.067   4.039  0.9669  1.4364 -0.5296
60763SOL     OW89338   8.674   8.839  11.680  0.3507  0.1735  0.4858
60763SOL    HW189339   8.585   8.872  11.666  0.4749 -0.1737 -1.4882
60763SOL    HW289340   8.678   8.760  11.626  1.3174 -0.8204  1.9560
60764SOL     OW89341   7.173  10.305   7.905 -0.3362  0.1106 -0.0414
60764SOL    HW189342   7.094  10.343   7.867  0.9728  0.9775 -2.0664
60764SOL    HW289343   7.238  10.375   7.902  1.6415 -1.6427 -2.2045
60765SOL     OW89344   6.386   9.272   6.118  0.0926 -0.6030 -0.0227
60765SOL    HW189345   6.467   9.264   6.168 -1.0291 -1.0302  1.8172
60765SOL    HW289346   6.401   9.348   6.061  1.2858  0.1928  1.2826
60766SOL     OW89347   7.689   0.313   3.152  0.0541  0.3652  0.1440
60766SOL    HW189348   7.655   0.399   3.127 -0.7315  0.2383  0.7487
60766SOL    HW289349   7.685   0.313   3.248  0.1431 -0.3124  0.1509
60767SOL     OW89350   1.509   3.173   7.506 -0.7321  0.0280  0.4364
60767SOL    HW189351   1.559   3.171   7.588  1.3152  0.9101 -0.6978
60767SOL    HW289352   1.546   3.247   7.458 -2.4663  0.0553 -0.9494
60768SOL     OW89353  10.854   3.151   1.228 -0.3489  0.4294  0.6136
60768SOL    HW189354  10.818   3.231   1.267  1.0806  1.2897  0.2306
60768SOL    HW289355  10.789   3.124   1.163 -0.8093  1.3187  0.6903
60769SOL     OW89356   3.922   0.309   7.337 -0.1529  0.0853 -0.1259
60769SOL    HW189357   3.827   0.297   7.345 -0.4359  1.4437 -1.1592
60769SOL    HW289358   3.940   0.391   7.383  0.5540 -0.2256  0.1739
60770SOL     OW89359  12.485   7.109  10.255 -0.3049  0.4657 -0.2211
60770SOL    HW189360  12.417   7.062  10.304  0.5833 -1.5030 -0.7611
60770SOL    HW289361  12.560   7.110  10.314 -0.1490  0.7467 -0.4227
60771SOL     OW89362   8.452   7.044   9.669  0.0290  0.5134  0.5153
60771SOL    HW189363   8.363   7.010   9.676  0.0763 -0.8069 -3.1665
60771SOL    HW289364   8.508   6.967   9.662  0.8138  1.1954 -2.0550
60772SOL     OW89365  12.013   4.286   8.301  0.5934 -0.0765 -0.0171
60772SOL    HW189366  12.036   4.326   8.217  0.0856  1.3654  0.4980
60772SOL    HW289367  12.088   4.305   8.358  0.2593  0.3389  0.2901
60773SOL     OW89368   0.871  11.989  10.599 -0.0496 -0.9193 -0.1916
60773SOL    HW189369   0.936  12.056  10.581 -0.6062  0.0126  1.1273
60773SOL    HW289370   0.922  11.911  10.621  0.6017 -0.7252 -0.9773
60774SOL     OW89371   1.962   4.048   8.509 -0.2399  0.6822  0.4609
60774SOL    HW189372   1.991   3.987   8.577  1.2416  0.4385 -0.3504
60774SOL    HW289373   1.963   3.997   8.428 -0.3851  1.3980 -0.0009
60775SOL     OW89374  11.649   5.471   0.730  0.0032  0.9635  0.1448
60775SOL    HW189375  11.610   5.396   0.774  1.2666  2.3508  4.0079
60775SOL    HW289376  11.577   5.510   0.680 -1.5191 -0.8195  0.8513
60776SOL     OW89377   2.940  12.313   6.732  0.3613  0.7230 -0.4056
60776SOL    HW189378   2.867  12.351   6.781  0.2341  1.3436 -1.0588
60776SOL    HW289379   2.900  12.248   6.675  0.6156 -0.6659  0.9387
60777SOL     OW89380  12.052   9.757   9.119 -0.0626  0.0722  0.2308
60777SOL    HW189381  12.075   9.731   9.208 -1.7505  1.0117  1.0013
60777SOL    HW289382  12.029   9.850   9.127  1.7919  0.7595 -1.6178
60778SOL     OW89383   4.921   4.181   2.128  0.1679  0.1360  0.6255
60778SOL    HW189384   4.871   4.115   2.079  0.8253 -0.4159  0.6921
60778SOL    HW289385   4.863   4.258   2.129  1.1992  1.1937 -3.4522
60779SOL     OW89386   5.400   8.615   2.278 -0.0192 -0.5843 -0.2451
60779SOL    HW189387   5.321   8.579   2.318 -0.7124  0.9128 -0.2198
60779SOL    HW289388   5.446   8.657   2.351 -0.0400 -0.0275 -0.5440
60780SOL     OW89389   7.267   7.808   4.044 -0.5023  0.5125 -0.0441
60780SOL    HW189390   7.240   7.770   3.960 -0.8766  0.0422  0.2872
60780SOL    HW289391   7.360   7.788   4.051 -0.1597  1.6868 -0.9502
60781SOL     OW89392  12.393   5.576   2.923 -0.0529 -0.3225  0.0282
60781SOL    HW189393  12.394   5.498   2.978 -0.2465 -0.1455  0.2836
60781SOL    HW289394  12.310   5.572   2.877 -0.3606  0.0710  0.5333
60782SOL     OW89395  10.356   6.049   7.026 -0.4361  0.2297 -0.2382
60782SOL    HW189396  10.375   5.957   7.046  1.7966  0.9230  1.2510
60782SOL    HW289397  10.294   6.046   6.953 -1.9503 -2.4660  0.9981
60783SOL     OW89398   6.868  12.358   8.908 -0.3398 -0.1529  0.3132
60783SOL    HW189399   6.844  12.448   8.885  0.1835  0.0859  0.6646
60783SOL    HW289400   6.866  12.357   9.004  0.9442 -0.1368  0.3621
60784SOL     OW89401  11.725   0.946  11.100 -0.1939 -0.3870  0.2822
60784SOL    HW189402  11.789   0.917  11.164  1.2949 -1.8412 -1.7524
60784SOL    HW289403  11.648   0.892  11.117  0.0626 -0.5318  1.0157
60785SOL     OW89404  11.644   2.948   1.898  0.3610  0.4657  0.6335
60785SOL    HW189405  11.691   2.985   1.824  0.7958  0.2799  0.8148
60785SOL    HW289406  11.713   2.917   1.958  0.0593 -1.7654 -0.0636
60786SOL     OW89407   1.098   0.664   2.091  0.2904  0.1750 -0.2640
60786SOL    HW189408   1.049   0.616   2.025 -0.2152  0.0675  0.1855
60786SOL    HW289409   1.148   0.597   2.138  0.0380  0.1531 -0.0223
60787SOL     OW89410  11.540   5.844   7.597 -0.1505  0.7307  0.1433
60787SOL    HW189411  11.490   5.762   7.589 -0.2799  0.6508  1.5326
60787SOL    HW289412  11.521   5.892   7.517 -0.1693 -0.5470 -0.6398
60788SOL     OW89413   4.279  11.196   1.583 -0.1180  0.3822  0.1043
60788SOL    HW189414   4.190  11.164   1.571  0.1297 -0.0693 -0.6725
60788SOL    HW289415   4.310  11.215   1.494  0.9547 -0.5973  0.2346
60789SOL     OW89416   7.254   4.049   4.072 -0.2640 -0.0554 -0.8283
60789SOL    HW189417   7.264   4.005   4.156 -0.6779  0.8869 -0.2698
60789SOL    HW289418   7.298   3.992   4.009  0.9903 -0.2586  0.1870
60790SOL     OW89419   9.741  11.523  10.405  0.0683 -0.0383 -0.2642
60790SOL    HW189420   9.742  11.454  10.471 -2.2840  0.3235  0.2433
60790SOL    HW289421   9.833  11.550  10.397  0.6073 -1.0716  1.7850
60791SOL     OW89422   1.488   6.048   3.799 -0.1134  0.1687 -0.2896
60791SOL    HW189423   1.547   6.062   3.724  0.1030  0.1578 -0.1239
60791SOL    HW289424   1.523   6.104   3.868 -0.3233  0.1921 -0.2017
60792SOL     OW89425   6.992   3.612  12.361 -1.0046  0.1342  0.3366
60792SOL    HW189426   7.024   3.637  12.274  0.1785 -0.4372  0.5914
60792SOL    HW289427   6.899   3.635  12.360 -1.1760 -0.5436 -1.3340
60793SOL     OW89428   6.335   2.081   8.177  0.7730  0.7003 -0.3357
60793SOL    HW189429   6.263   2.106   8.119  1.8872 -1.4822 -2.8915
60793SOL    HW289430   6.399   2.151   8.168  0.3189  1.0799 -0.6236
60794SOL     OW89431   8.553   3.438  10.766  0.1868  0.3498  0.5672
60794SOL    HW189432   8.627   3.437  10.706  0.2739 -2.0590  0.5898
60794SOL    HW289433   8.526   3.346  10.771 -1.5104  0.8801  2.1375
60795SOL     OW89434   7.466   0.401  10.622  0.2048  0.4198  0.4466
60795SOL    HW189435   7.553   0.440  10.613  0.0006  0.6368 -0.6897
60795SOL    HW289436   7.444   0.370  10.534 -1.4376  1.6150  0.3970
60796SOL     OW89437   0.468   1.676   4.948  0.1892 -0.1370  0.1943
60796SOL    HW189438   0.461   1.729   5.027  0.2087 -0.4499  0.4071
60796SOL    HW289439   0.384   1.689   4.904  0.6073  0.9543 -0.3233
60797SOL     OW89440   8.239   2.949   8.637 -0.1646 -0.5732 -0.0040
60797SOL    HW189441   8.319   2.936   8.585  1.4527 -0.2562  2.2529
60797SOL    HW289442   8.189   3.013   8.588  0.7830 -1.0397 -1.6725
60798SOL     OW89443   1.995   2.339   9.731  0.0976 -0.7945 -0.0339
60798SOL    HW189444   1.932   2.364   9.664  1.2977 -2.4409 -1.9277
60798SOL    HW289445   2.064   2.405   9.726  0.6467 -1.4233 -1.1644
60799SOL     OW89446  10.247   2.317  10.004 -0.3700  0.0510  0.1556
60799SOL    HW189447  10.316   2.358   9.953 -0.1244 -0.9185 -0.3025
60799SOL    HW289448  10.237   2.374  10.080 -0.3390  1.1934 -0.6646
60800SOL     OW89449   3.480   8.712  10.009 -0.6214  0.8735  0.5100
60800SOL    HW189450   3.442   8.796  10.033 -1.3007  0.7181 -0.0025
60800SOL    HW289451   3.569   8.715  10.044 -1.8137  0.2661  3.9461
60801SOL     OW89452   0.918  11.542  11.962  0.2824 -0.2386 -0.1065
60801SOL    HW189453   0.901  11.601  11.888 -0.1938  0.0736  0.2418
60801SOL    HW289454   0.904  11.455  11.926  1.0414 -0.1476 -0.6432
60802SOL     OW89455   7.179   4.684   5.798  0.4396  0.4236  0.1577
60802SOL    HW189456   7.208   4.712   5.710 -0.2174 -0.3566 -0.3166
60802SOL    HW289457   7.260   4.656   5.841  1.0473  2.4630  0.4562
60803SOL     OW89458   0.825   2.132   5.493 -0.6111  0.1711  0.0142
60803SOL    HW189459   0.792   2.083   5.568 -0.0768 -0.5010 -0.1790
60803SOL    HW289460   0.747   2.172   5.454 -1.0840 -0.6498  0.0926
60804SOL     OW89461   1.223   1.876   6.202 -0.7528 -0.7276 -0.1989
60804SOL    HW189462   1.133   1.889   6.170 -1.2997 -0.4026  1.3765
60804SOL    HW289463   1.273   1.855   6.123 -1.9137  0.5647 -1.3482
60805SOL     OW89464   0.925   4.004   4.782 -0.8462  0.2127  0.3486
60805SOL    HW189465   0.993   3.937   4.785 -1.0966 -0.0468  0.3128
60805SOL    HW289466   0.879   3.996   4.866  0.4624  1.7704  1.2772
60806SOL     OW89467   3.797   9.683   4.635  0.7947 -0.4983 -0.1834
60806SOL    HW189468   3.821   9.610   4.578  1.5934 -0.6869  0.3894
60806SOL    HW289469   3.830   9.659   4.721 -2.8949 -1.5771  1.1029
60807SOL     OW89470   5.841   2.084   1.401  0.3317  0.5765  0.0109
60807SOL    HW189471   5.801   2.034   1.329 -2.8921  1.3129  1.1386
60807SOL    HW289472   5.769   2.101   1.462  2.3564  2.3673  2.1001
60808SOL     OW89473   3.309  11.464   4.496 -0.8102  0.3481  0.0460
60808SOL    HW189474   3.301  11.426   4.408  0.4748  1.0123 -0.3942
60808SOL    HW289475   3.363  11.543   4.482 -1.0288  0.7428  1.3567
60809SOL     OW89476  10.734   9.829   8.931  0.5452 -0.0190  0.2751
60809SOL    HW189477  10.762   9.873   8.850 -0.2096  0.9628  0.5280
60809SOL    HW289478  10.640   9.849   8.938 -0.0007 -2.2179  0.0795
60810SOL     OW89479   0.059   4.863   0.620 -0.1371  0.6078  0.4893
60810SOL    HW189480   0.047   4.807   0.697 -0.1274  0.3378  0.2930
60810SOL    HW289481   0.153   4.860   0.603 -0.1323  0.7081  0.4938
60811SOL     OW89482   9.651   6.511   9.355 -0.8078 -0.3173 -0.0124
60811SOL    HW189483   9.612   6.442   9.303  0.6070 -1.4523  0.3464
60811SOL    HW289484   9.720   6.548   9.299 -2.1488  1.5008 -0.5620
60812SOL     OW89485   8.956   5.325  10.800 -0.4368 -0.3635  0.2218
60812SOL    HW189486   8.942   5.324  10.894 -0.9609  0.7133  0.1637
60812SOL    HW289487   8.919   5.241  10.770 -1.5217 -0.1136  0.8066
60813SOL     OW89488   8.094  10.425   5.611 -0.2237 -0.0923 -0.4836
60813SOL    HW189489   8.020  10.477   5.641  1.0349  1.2202  0.5216
60813SOL    HW289490   8.171  10.469   5.649  0.9845 -2.0479 -0.5136
60814SOL     OW89491  12.561   2.905   8.613 -0.0347 -0.3345 -0.4115
60814SOL    HW189492  12.623   2.837   8.638  0.3080  0.0644 -0.1674
60814SOL    HW289493  12.499   2.909   8.686 -0.8670 -1.3311 -1.0374
60815SOL     OW89494  10.531   9.269   3.582  0.1679 -0.1877 -0.0496
60815SOL    HW189495  10.446   9.267   3.540 -0.6849 -1.1341  1.6112
60815SOL    HW289496  10.583   9.205   3.535 -0.1649  0.0983 -0.8127
60816SOL     OW89497   9.683   4.928   5.500  0.0127  0.1806  0.2646
60816SOL    HW189498   9.649   4.900   5.416  3.1490  1.5540 -1.6493
60816SOL    HW289499   9.753   4.866   5.520 -0.1163  0.3854  1.4449
60817SOL     OW89500   8.602   6.837  12.425 -0.3094 -0.4513 -0.3287
60817SOL    HW189501   8.529   6.791  12.467  0.5544 -2.2361 -0.6891
60817SOL    HW289502   8.680   6.806  12.472  0.4216 -0.4319 -1.4840
60818SOL     OW89503  10.410   3.913   3.951  0.0312  0.6162 -0.1398
60818SOL    HW189504  10.356   3.861   3.892 -1.4014  0.4311  1.2578
60818SOL    HW289505  10.411   4.001   3.912 -1.5197  0.6894 -0.0804
60819SOL     OW89506   1.079   3.985  12.107 -0.5141 -0.2521  0.1185
60819SOL    HW189507   1.077   4.007  12.014 -0.7621  0.4511  0.2796
60819SOL    HW289508   1.101   3.892  12.110 -0.5677 -0.2938 -0.6435
60820SOL     OW89509   1.830  12.095   0.674 -0.4894 -0.3091  0.1328
60820SOL    HW189510   1.758  12.060   0.621 -0.4225 -0.7347  0.3174
60820SOL    HW289511   1.903  12.105   0.613 -0.9384  0.8910 -0.2287
60821SOL     OW89512   2.790   3.024  12.273 -0.0622  0.1496 -0.5425
60821SOL    HW189513   2.876   2.990  12.251  1.0768  0.5332  2.7669
60821SOL    HW289514   2.790   3.113  12.240  1.6254  0.7849  1.0059
60822SOL     OW89515   1.375   0.538  11.779 -0.0090 -0.0235 -0.5458
60822SOL    HW189516   1.350   0.496  11.861 -0.5053  2.0844  0.4515
60822SOL    HW289517   1.409   0.624  11.805 -0.0013  0.6323 -2.5273
60823SOL     OW89518   9.418  11.753   9.090 -0.7674 -0.3288  0.4412
60823SOL    HW189519   9.432  11.764   8.996  1.5197  0.2202  0.7695
60823SOL    HW289520   9.356  11.821   9.113 -2.9506 -1.7315 -0.9387
60824SOL     OW89521  12.302   4.666   7.624 -0.3147  0.2157 -0.2155
60824SOL    HW189522  12.375   4.676   7.563 -0.1772 -1.0549 -0.2709
60824SOL    HW289523  12.224   4.670   7.568 -0.1735 -1.4531 -0.5632
60825SOL     OW89524   3.983   0.971   1.172  0.3156  0.0420 -0.5457
60825SOL    HW189525   3.967   0.879   1.151 -1.0198  0.2307 -0.4344
60825SOL    HW289526   3.917   0.992   1.238  0.0185  1.3227 -1.2335
60826SOL     OW89527   0.586   2.560   5.309 -0.5556 -0.4025  0.0976
60826SOL    HW189528   0.673   2.555   5.270 -0.3243 -0.5099  0.6119
60826SOL    HW289529   0.553   2.645   5.282 -0.4879 -0.5588 -0.4965
60827SOL     OW89530   8.714   1.258   6.752 -0.1931 -0.6454  0.6354
60827SOL    HW189531   8.714   1.164   6.769 -1.8001 -0.7185  0.3118
60827SOL    HW289532   8.626   1.287   6.775  0.7971  1.1293  2.4720
60828SOL     OW89533   9.224   7.633  11.524 -0.0100  0.1799  0.6547
60828SOL    HW189534   9.316   7.651  11.540  0.2722  0.4677 -1.1586
60828SOL    HW289535   9.196   7.701  11.463 -0.7504 -1.3184 -0.7657
60829SOL     OW89536   8.932   2.274  10.174  0.2725 -0.3787 -0.0834
60829SOL    HW189537   9.000   2.261  10.240 -1.1000  0.2674  1.5176
60829SOL    HW289538   8.862   2.215  10.200  0.1346 -0.9272 -1.6273
60830SOL     OW89539  10.884  11.478   9.748  0.4822  0.2502 -0.1707
60830SOL    HW189540  10.904  11.487   9.655  1.9251  0.1527  0.1160
60830SOL    HW289541  10.805  11.424   9.750  0.7502 -0.2151 -1.3255
60831SOL     OW89542   3.013   8.447   9.963  0.3372  0.3567  0.1435
60831SOL    HW189543   3.035   8.536   9.938  0.7090  0.3350  0.3850
60831SOL    HW289544   2.934   8.455  10.016 -1.3425  0.2790 -2.2111
60832SOL     OW89545   6.293   7.429  10.209 -0.0581 -0.5336  0.0171
60832SOL    HW189546   6.232   7.448  10.281  2.8135 -0.3204  2.6372
60832SOL    HW289547   6.244   7.448  10.130 -3.1018  0.3526  1.9485
60833SOL     OW89548   4.448  10.804   7.633 -0.3930 -0.3670  0.0626
60833SOL    HW189549   4.451  10.730   7.694 -0.8055 -1.4271 -1.1387
60833SOL    HW289550   4.368  10.789   7.581  0.3775  0.0195 -1.2859
60834SOL     OW89551   4.317   4.163   4.355  0.4597  0.4673  0.4875
60834SOL    HW189552   4.341   4.103   4.285  0.6924  0.6507  0.4120
60834SOL    HW289553   4.399   4.185   4.398  0.7192  2.5932 -0.9600
60835SOL     OW89554   0.948  11.493   1.419  0.5393 -0.2319 -0.0942
60835SOL    HW189555   0.959  11.497   1.514 -1.3718 -0.8336  0.1950
60835SOL    HW289556   0.893  11.568   1.398 -0.5524 -1.1032 -0.4493
60836SOL     OW89557   1.275   7.426   8.271  0.1727 -0.6751  0.2507
60836SOL    HW189558   1.284   7.509   8.226 -1.6242  0.1064  1.2316
60836SOL    HW289559   1.182   7.404   8.263  0.3082 -1.7806  1.3720
60837SOL     OW89560   0.647   9.662   9.296  0.2669  0.3447 -0.3190
60837SOL    HW189561   0.623   9.754   9.305 -0.0835  0.4404 -1.8838
60837SOL    HW289562   0.659   9.631   9.386 -1.6115  1.3885  0.3622
60838SOL     OW89563   0.710   9.943   0.189  0.1284 -0.2236 -0.1592
60838SOL    HW189564   0.669   9.911   0.269  0.1955 -0.8191 -0.3518
60838SOL    HW289565   0.731   9.863   0.140  1.1919  0.0787 -0.2282
60839SOL     OW89566  11.600   3.254   3.175  0.0742  0.3550 -0.0819
60839SOL    HW189567  11.608   3.161   3.154 -0.2442  0.2388  0.3055
60839SOL    HW289568  11.529   3.258   3.239  0.2287  0.8413  0.0606
60840SOL     OW89569   3.493   7.687   1.272  0.3779  0.4051  0.5512
60840SOL    HW189570   3.433   7.615   1.294 -0.6264  1.8094  2.8302
60840SOL    HW289571   3.555   7.689   1.346  0.5671  1.6698  0.3807
60841SOL     OW89572   5.788   3.061   7.975  0.9212 -0.1518  0.0771
60841SOL    HW189573   5.759   3.006   7.903 -0.3192 -1.6826  1.6448
60841SOL    HW289574   5.879   3.082   7.954  0.6960 -0.8265 -1.7317
60842SOL     OW89575   2.559   4.693   5.057  0.1140 -1.1273  0.7068
60842SOL    HW189576   2.563   4.729   4.969  1.8179  0.7733  1.4959
60842SOL    HW289577   2.484   4.633   5.055 -1.0108  0.2436 -1.4949
60843SOL     OW89578   9.271   6.901   2.366 -0.1376 -0.2220  0.3314
60843SOL    HW189579   9.248   6.809   2.362 -1.4018  0.0844  0.2510
60843SOL    HW289580   9.249   6.936   2.280 -1.0512  0.4549  0.8220
60844SOL     OW89581   6.857   8.564   3.948  0.2067 -0.0523  0.2700
60844SOL    HW189582   6.829   8.615   3.872  0.6161 -0.4192 -0.1336
60844SOL    HW289583   6.936   8.608   3.978 -0.0233  0.1640  0.5617
60845SOL     OW89584   8.382   3.882   4.311 -0.3139 -0.1854 -0.2266
60845SOL    HW189585   8.453   3.904   4.372 -0.1016  1.7955 -1.1141
60845SOL    HW289586   8.331   3.962   4.304 -1.9539 -1.2148 -0.5615
60846SOL     OW89587   4.283   9.025   5.979 -0.1565 -0.4377  0.6061
60846SOL    HW189588   4.257   9.090   5.913 -1.8098 -1.1626  0.5039
60846SOL    HW289589   4.375   9.007   5.959 -0.0869  0.7753 -0.2903
60847SOL     OW89590  10.141   5.403   2.704  0.4476 -0.5887 -0.3478
60847SOL    HW189591  10.097   5.478   2.662  0.6098  0.1830  0.7997
60847SOL    HW289592  10.073   5.364   2.760  0.7858 -0.3253  0.2590
60848SOL     OW89593   8.520   2.194   9.402  0.6945 -0.0134  0.4269
60848SOL    HW189594   8.558   2.161   9.484 -1.0701 -2.9303  0.2392
60848SOL    HW289595   8.443   2.244   9.430  0.7277 -0.0468  0.5815
60849SOL     OW89596  11.134   2.377   5.221  0.9094  0.1644 -0.0786
60849SOL    HW189597  11.061   2.416   5.172  1.0165 -0.2884 -0.6134
60849SOL    HW289598  11.156   2.442   5.288 -1.3332 -0.5533  1.4602
60850SOL     OW89599   5.088   6.147   4.146 -0.5520  0.5110  0.0996
60850SOL    HW189600   5.057   6.094   4.073 -1.5722  1.0599  0.1217
60850SOL    HW289601   5.160   6.199   4.109 -1.1077  0.8388 -0.5310
60851SOL     OW89602   2.512   1.945  10.295 -0.1860  0.3762  0.1500
60851SOL    HW189603   2.461   2.019  10.326 -1.8556  0.3440 -2.2093
60851SOL    HW289604   2.458   1.868  10.315  0.4675  0.0096  0.5359
60852SOL     OW89605   2.878  11.784   0.737 -0.0342 -0.5471  0.0530
60852SOL    HW189606   2.888  11.785   0.832 -4.0147 -0.3169  0.6027
60852SOL    HW289607   2.921  11.702   0.711 -0.5127 -1.6113  2.3069
60853SOL     OW89608   1.238  12.150   8.509  0.0748  0.4388  0.2085
60853SOL    HW189609   1.209  12.177   8.422  1.8967  2.3023  0.0949
60853SOL    HW289610   1.318  12.100   8.493 -0.1345 -0.0768  0.7568
60854SOL     OW89611   0.093   4.568   6.860 -0.2166 -0.0654  0.5171
60854SOL    HW189612   0.122   4.615   6.781 -1.3330  0.0415  0.1570
60854SOL    HW289613   0.165   4.509   6.880  1.2052  1.7127  0.9338
60855SOL     OW89614   7.343  11.752   7.520  0.1455 -0.4309 -0.6113
60855SOL    HW189615   7.270  11.708   7.562  1.1799 -1.8152 -0.2025
60855SOL    HW289616   7.409  11.761   7.589  0.7076  0.0089 -1.1924
60856SOL     OW89617   7.744   7.726   4.580  0.1351  0.5476  0.7865
60856SOL    HW189618   7.654   7.744   4.609 -0.4592 -0.6329 -0.2482
60856SOL    HW289619   7.785   7.682   4.655 -1.2518 -2.0867  0.1171
60857SOL     OW89620   3.400   2.577  10.647 -0.0459  0.6166  0.4662
60857SOL    HW189621   3.456   2.500  10.659 -1.1093 -0.2052  0.3605
60857SOL    HW289622   3.320   2.542  10.607 -0.5688  1.7769  0.4575
60858SOL     OW89623   7.782   5.998   6.945 -0.0165  0.0734 -0.0733
60858SOL    HW189624   7.738   5.918   6.917  0.1592 -0.1860  0.3841
60858SOL    HW289625   7.856   6.006   6.884  0.6487 -0.7551  0.5877
60859SOL     OW89626   8.110  10.585   3.089  0.6800  0.3948 -0.6562
60859SOL    HW189627   8.113  10.492   3.068  0.3371  0.1234  0.4048
60859SOL    HW289628   8.057  10.625   3.019  0.3422 -0.3019 -0.8003
60860SOL     OW89629   7.127   2.186   2.708 -0.4139  0.2481 -0.1337
60860SOL    HW189630   7.158   2.175   2.618  1.1539  2.0507  0.1222
60860SOL    HW289631   7.189   2.136   2.761 -0.3741  0.5239  0.0780
60861SOL     OW89632   7.107  10.255   2.550  0.9685  0.4720  0.0323
60861SOL    HW189633   7.017  10.266   2.518  1.3572  0.9105 -0.9477
60861SOL    HW289634   7.098  10.252   2.645 -0.2845 -1.3215 -0.0686
60862SOL     OW89635   8.182   0.122   3.394 -0.3003 -0.2312 -0.3660
60862SOL    HW189636   8.226   0.037   3.390 -0.7555 -0.6033  1.5822
60862SOL    HW289637   8.090   0.102   3.380 -0.7365 -0.4391  2.3578
60863SOL     OW89638   1.237  10.465   2.651  0.8337  0.2656  0.4521
60863SOL    HW189639   1.201  10.539   2.602  2.1580  0.2168 -0.6615
60863SOL    HW289640   1.293  10.419   2.588  2.0774 -0.2008  1.8287
60864SOL     OW89641   4.328   3.385   2.872 -0.3562 -0.0394  0.1646
60864SOL    HW189642   4.242   3.415   2.842 -0.2829  1.3659  1.2422
60864SOL    HW289643   4.378   3.466   2.886  0.6882 -0.7750  0.8208
60865SOL     OW89644  11.535   0.420   2.094  0.4936  0.1304 -0.1614
60865SOL    HW189645  11.444   0.445   2.109  0.4814 -0.1894  0.3450
60865SOL    HW289646  11.585   0.501   2.107  0.2405  0.4237 -0.9558
60866SOL     OW89647  11.460   2.634   8.145  0.1838 -0.3745 -0.2025
60866SOL    HW189648  11.391   2.691   8.111  0.3628  0.0011  0.0484
60866SOL    HW289649  11.418   2.549   8.157 -0.9739  0.4609  2.4366
60867SOL     OW89650   8.718  10.146   8.726  0.8152  0.8219 -0.2953
60867SOL    HW189651   8.787  10.125   8.664 -0.4383  0.1085 -1.5211
60867SOL    HW289652   8.638  10.150   8.672 -0.2305  0.7328  1.1866
60868SOL     OW89653  10.914   4.079   0.182 -0.1194  0.3972 -0.0703
60868SOL    HW189654  10.978   4.023   0.139 -0.8336 -0.4195 -0.1164
60868SOL    HW289655  10.830   4.034   0.168 -0.4202  0.2554  1.9071
60869SOL     OW89656   4.814   9.449   1.545 -0.3169  0.4979 -0.3443
60869SOL    HW189657   4.834   9.543   1.541 -1.9096  1.0514  2.0726
60869SOL    HW289658   4.723   9.446   1.572 -0.1508 -1.7568  0.1259
60870SOL     OW89659  10.932   1.576  12.322  0.0141 -0.4849 -0.1856
60870SOL    HW189660  10.914   1.654  12.269  0.6337 -1.2065 -1.5296
60870SOL    HW289661  10.957   1.610  12.408  0.0157  0.7877 -0.6673
60871SOL     OW89662   5.820   6.514   3.145 -0.4020 -0.3536 -0.3539
60871SOL    HW189663   5.780   6.515   3.058 -0.1952  1.9833 -0.4842
60871SOL    HW289664   5.749   6.488   3.204 -0.7553 -1.1655 -1.1093
60872SOL     OW89665   7.141   1.526   2.228  0.5305 -0.0537 -0.3460
60872SOL    HW189666   7.097   1.575   2.158 -0.5058 -0.7703 -0.2161
60872SOL    HW289667   7.119   1.435   2.211  1.5632 -0.3788  0.0258
60873SOL     OW89668   8.607   7.691   5.390 -0.6303  0.0193 -0.3887
60873SOL    HW189669   8.678   7.627   5.378 -0.1535  0.5877 -0.6667
60873SOL    HW289670   8.530   7.638   5.408  0.2185 -0.5771  1.7816
60874SOL     OW89671   5.932   1.471   8.895  0.6012 -0.3913  0.2632
60874SOL    HW189672   5.976   1.400   8.850  2.7008  0.9721  0.0343
60874SOL    HW289673   5.879   1.513   8.827 -0.9763 -1.8821  0.4842
60875SOL     OW89674   1.812   2.160   6.144  0.0786 -0.2143  0.3032
60875SOL    HW189675   1.866   2.210   6.204  1.6056 -0.7153 -0.5948
60875SOL    HW289676   1.819   2.206   6.061  0.5771 -1.2569 -0.2522
60876SOL     OW89677  11.619   9.274   2.245  0.3375  0.0045 -0.2818
60876SOL    HW189678  11.523   9.268   2.245  0.3016 -1.1112  2.7071
60876SOL    HW289679  11.637   9.355   2.198 -1.9716 -0.3134 -1.9334
60877SOL     OW89680   0.200   9.131   9.138 -0.4625 -0.7300  0.4724
60877SOL    HW189681   0.227   9.133   9.230 -0.1462  0.4724  0.3773
60877SOL    HW289682   0.105   9.121   9.142 -0.7608  1.6545  1.0474
60878SOL     OW89683  12.581   0.594   3.241 -0.2992  0.3167  0.0326
60878SOL    HW189684  12.497   0.548   3.238  0.0620 -0.3382 -0.3632
60878SOL    HW289685  12.595   0.624   3.151  0.8148 -1.3189 -0.3906
60879SOL     OW89686   7.174   6.070   7.894 -0.2055 -0.9872 -0.2699
60879SOL    HW189687   7.091   6.108   7.864 -0.4079 -0.9120  0.3601
60879SOL    HW289688   7.180   5.987   7.848  0.6377  0.1368 -2.2865
60880SOL     OW89689  11.810   7.496  10.632 -0.7050  0.2041  0.0098
60880SOL    HW189690  11.735   7.454  10.590 -0.6499 -1.3152  1.3524
60880SOL    HW289691  11.775   7.532  10.713  0.2886 -2.1012  1.5601
60881SOL     OW89692   6.777   4.272   4.148 -0.1649 -0.2295 -0.9229
60881SOL    HW189693   6.820   4.353   4.174  1.3875 -1.2572 -0.1569
60881SOL    HW289694   6.843   4.226   4.095 -0.2101 -1.9242  0.4310
60882SOL     OW89695  11.398   9.372   7.000 -0.2482 -0.4577 -0.3411
60882SOL    HW189696  11.413   9.362   7.094 -0.0721 -1.0011 -0.4283
60882SOL    HW289697  11.478   9.411   6.967 -0.0418 -0.9141 -0.3795
60883SOL     OW89698   4.481   4.775   1.757 -0.0997  0.3239  0.0684
60883SOL    HW189699   4.540   4.750   1.828 -0.3327  0.6010  0.3631
60883SOL    HW289700   4.492   4.706   1.691 -2.1833 -1.7601  1.6878
60884SOL     OW89701  10.567   4.409  11.639 -0.8385 -0.4164  0.5208
60884SOL    HW189702  10.604   4.401  11.551 -0.7385  0.3211  0.4908
60884SOL    HW289703  10.588   4.326  11.681 -0.7455 -0.7122 -0.1003
60885SOL     OW89704   5.705  12.526  12.342  0.5309  0.9629 -0.1746
60885SOL    HW189705   5.778  12.517  12.280  0.6522  1.2116 -0.0702
60885SOL    HW289706   5.747  12.517  12.428  0.3554  0.5663 -0.1282
60886SOL     OW89707   0.798   4.180   7.587 -0.0808 -0.1230  0.1889
60886SOL    HW189708   0.735   4.240   7.627 -2.1331 -2.7751  1.2580
60886SOL    HW289709   0.839   4.136   7.662  0.3543 -1.0451 -0.5741
60887SOL     OW89710  11.392   3.312   0.552 -0.4146  0.1591 -0.6096
60887SOL    HW189711  11.469   3.277   0.596 -1.4887 -0.0200  1.2708
60887SOL    HW289712  11.323   3.249   0.572 -0.9213 -0.1073 -2.9163
60888SOL     OW89713  12.427  11.201  11.799 -1.2041 -0.1464 -0.3212
60888SOL    HW189714  12.443  11.112  11.767 -0.6628  0.1521 -0.9139
60888SOL    HW289715  12.405  11.190  11.891  0.9684 -0.7504  0.1780
60889SOL     OW89716   4.731  11.250   1.610 -0.0147 -0.0573 -0.0788
60889SOL    HW189717   4.794  11.301   1.662  0.8679  0.1731 -1.3250
60889SOL    HW289718   4.706  11.309   1.539  3.0818 -2.0733 -3.1573
60890SOL     OW89719   2.150   3.198   9.716  0.3836  0.1987  0.2523
60890SOL    HW189720   2.075   3.138   9.715  1.2996 -0.9758  0.6856
60890SOL    HW289721   2.221   3.149   9.674  0.9804  1.2165  0.0344
60891SOL     OW89722   5.017   3.597   5.441 -0.1205  0.6473  0.3062
60891SOL    HW189723   5.040   3.544   5.517 -0.4365  0.8864  0.5678
60891SOL    HW289724   4.943   3.650   5.469  0.2828  1.3357  0.0925
60892SOL     OW89725   5.963   7.487   4.585 -0.1325 -0.0754 -0.0428
60892SOL    HW189726   5.895   7.535   4.632  1.0129 -0.8110  2.5838
60892SOL    HW289727   6.044   7.508   4.632  0.5871 -3.5568  0.5612
60893SOL     OW89728   3.117   4.003   0.301  0.5779 -0.4283 -0.3296
60893SOL    HW189729   3.084   4.055   0.228  2.2641  0.8038 -0.2745
60893SOL    HW289730   3.087   4.050   0.379  1.9248  0.3896 -0.2789
60894SOL     OW89731   2.361  11.499   0.583  0.1718 -0.3158  0.0406
60894SOL    HW189732   2.454  11.486   0.567  0.5328  1.1040  0.7597
60894SOL    HW289733   2.358  11.573   0.644 -1.4243 -0.3815  0.0746
60895SOL     OW89734  11.208  11.015  11.421  0.2324  0.0278 -0.4470
60895SOL    HW189735  11.231  11.056  11.505  1.7697 -2.7623  0.6285
60895SOL    HW289736  11.113  11.002  11.427  0.2947 -0.0330  0.8401
60896SOL     OW89737   1.136  11.227  10.398  0.1895 -0.2885  0.2632
60896SOL    HW189738   1.206  11.166  10.375  0.8863  0.1198  1.2079
60896SOL    HW289739   1.146  11.299  10.335 -0.5983 -1.0916 -0.8144
60897SOL     OW89740   8.718   0.338   2.750 -0.0189 -0.1508  0.5449
60897SOL    HW189741   8.660   0.327   2.826  0.5027 -2.0208  0.7278
60897SOL    HW289742   8.804   0.309   2.781  0.8010  1.5097 -0.0549
60898SOL     OW89743  10.248   0.374   3.772  0.4867  0.0861  0.4367
60898SOL    HW189744  10.320   0.322   3.737  0.4555  1.4237 -1.7612
60898SOL    HW289745  10.170   0.320   3.758  0.7851 -0.4968  0.9452
60899SOL     OW89746   0.880   7.621   3.825 -0.0894  0.0962 -0.0699
60899SOL    HW189747   0.874   7.641   3.918  1.9506 -1.3623  0.4409
60899SOL    HW289748   0.939   7.545   3.820  1.8003  1.5676 -2.6964
60900SOL     OW89749  10.199  12.486   9.306 -0.3166 -0.0472  0.1389
60900SOL    HW189750  10.147  12.442   9.239  0.9150 -0.0800 -0.8581
60900SOL    HW289751  10.193  12.430   9.383  0.2309 -1.3506 -0.7251
60901SOL     OW89752   3.842   0.035   8.068 -0.2432 -0.7631 -0.0546
60901SOL    HW189753   3.810   0.055   8.156 -0.6338  0.1851 -0.3953
60901SOL    HW289754   3.936   0.022   8.079  0.0257  1.0983  0.2736
60902SOL     OW89755   8.279   0.700   2.851  0.1478 -0.1983 -0.5672
60902SOL    HW189756   8.326   0.727   2.930 -0.4630 -0.3988 -0.1340
60902SOL    HW289757   8.326   0.745   2.780 -0.9840  2.2678  0.1324
60903SOL     OW89758   2.495   1.860   3.419 -0.3746  0.2286  0.4941
60903SOL    HW189759   2.542   1.851   3.502  0.5435  0.2950 -0.0058
60903SOL    HW289760   2.442   1.938   3.430  0.5605  0.8600  0.6396
60904SOL     OW89761   4.825   6.664   7.342  0.0137  0.5989  0.1087
60904SOL    HW189762   4.731   6.672   7.360  0.0498  0.9222  0.1631
60904SOL    HW289763   4.856   6.599   7.404 -0.2308  0.2642 -0.1151
60905SOL     OW89764   2.141   6.648   3.258  0.5015  0.3663 -0.6351
60905SOL    HW189765   2.055   6.620   3.288  0.5749  0.7941 -0.0084
60905SOL    HW289766   2.202   6.612   3.322  0.7696  0.2692 -0.9402
60906SOL     OW89767   9.578   7.714   4.201 -1.3048  0.2517 -0.2486
60906SOL    HW189768   9.571   7.620   4.213 -1.0605  0.2853  0.1693
60906SOL    HW289769   9.653   7.725   4.143 -1.1580  0.2022 -0.0699
60907SOL     OW89770   1.441   1.624   4.112 -0.7271  0.3083  0.0630
60907SOL    HW189771   1.534   1.606   4.100 -1.0050 -0.5455 -0.8979
60907SOL    HW289772   1.408   1.547   4.159 -1.1102  0.2294 -0.3376
60908SOL     OW89773  11.226   5.965   0.768 -0.2094  0.5069 -0.8228
60908SOL    HW189774  11.232   5.898   0.700  2.8617  1.3843 -1.5605
60908SOL    HW289775  11.243   5.918   0.849 -0.3306  0.0200 -1.0752
60909SOL     OW89776  10.063   2.990   5.013 -0.0312 -0.4989  0.6840
60909SOL    HW189777  10.082   2.896   5.008 -1.4989 -0.7722 -0.6769
60909SOL    HW289778   9.969   2.996   4.994  0.1710  1.3024  0.0963
60910SOL     OW89779   8.862  11.427   4.880 -0.1493 -0.0669  0.1316
60910SOL    HW189780   8.821  11.460   4.801  0.1651 -0.0028 -0.0084
60910SOL    HW289781   8.867  11.502   4.939 -0.5275 -0.1528  0.2709
60911SOL     OW89782   9.553   1.813  11.054 -0.4484 -0.2398  0.1816
60911SOL    HW189783   9.477   1.852  11.098 -0.7025 -0.7238  0.1772
60911SOL    HW289784   9.618   1.803  11.124 -0.4691 -0.0260  0.2316
60912SOL     OW89785   0.145   1.048   3.386 -0.2020 -0.5354 -0.2566
60912SOL    HW189786   0.207   1.059   3.315  0.2623 -1.2409  0.0290
60912SOL    HW289787   0.129   0.954   3.390 -0.4545 -0.4761  0.3760
60913SOL     OW89788   0.884   4.061   1.772 -0.1714  0.6244  0.3576
60913SOL    HW189789   0.841   4.120   1.710 -1.1082  0.0799  0.4750
60913SOL    HW289790   0.978   4.073   1.755 -0.4042  0.1186 -1.5015
60914SOL     OW89791   7.159   8.936  10.995  0.0006  0.3459  0.1754
60914SOL    HW189792   7.138   8.852  11.036 -1.7147  0.1750 -0.9869
60914SOL    HW289793   7.091   8.996  11.026  0.0048  0.7750 -0.6290
60915SOL     OW89794   9.262   7.790   7.310 -0.2026  0.6071 -0.0437
60915SOL    HW189795   9.202   7.823   7.243  0.3244  3.8043  0.8930
60915SOL    HW289796   9.210   7.788   7.390  0.1121  0.3685  0.1576
60916SOL     OW89797   6.745   3.006   0.595  0.3342 -0.6283 -0.8781
60916SOL    HW189798   6.690   3.061   0.651  0.1145  0.7578 -2.4009
60916SOL    HW289799   6.834   3.019   0.629  0.1578 -0.1291 -0.5951
60917SOL     OW89800   0.167   6.196   0.588 -0.1620 -0.1098 -0.4852
60917SOL    HW189801   0.185   6.284   0.556  0.5919 -0.0632  0.0275
60917SOL    HW289802   0.197   6.197   0.679 -1.2852 -0.5427 -0.0966
60918SOL     OW89803   6.885   5.845   7.235  0.2958 -0.1311  0.0335
60918SOL    HW189804   6.900   5.757   7.270  1.4778  0.0090 -0.0834
60918SOL    HW289805   6.950   5.900   7.279 -0.6226  0.7516  0.3300
60919SOL     OW89806  11.162   3.634   0.517  0.1081  0.3643 -0.6406
60919SOL    HW189807  11.159   3.574   0.591  2.6457  0.0718 -0.6823
60919SOL    HW289808  11.090   3.694   0.532 -0.2939 -0.5278  1.3184
60920SOL     OW89809  10.601   6.366   1.164  0.1416 -0.0276 -0.1858
60920SOL    HW189810  10.573   6.282   1.129  1.4065 -0.7219  0.4255
60920SOL    HW289811  10.580   6.362   1.257 -0.2443  0.5405 -0.2401
60921SOL     OW89812   2.116  10.505   6.655  0.2556 -0.3820 -0.5279
60921SOL    HW189813   2.098  10.575   6.592 -0.1302  1.5738  1.6124
60921SOL    HW289814   2.055  10.522   6.727  0.4310 -2.7425  0.2613
60922SOL     OW89815   8.651  12.220   7.619  0.0992 -0.5836  0.0467
60922SOL    HW189816   8.611  12.159   7.557 -0.8128  0.2535 -0.2074
60922SOL    HW289817   8.607  12.203   7.702 -1.3396  0.7988 -0.3813
60923SOL     OW89818  11.113   8.593   3.440  0.4501  0.3691 -0.2262
60923SOL    HW189819  11.132   8.684   3.465  0.0808  0.3624  0.0881
60923SOL    HW289820  11.027   8.576   3.476  0.1906  0.1320 -0.9402
60924SOL     OW89821   6.381   4.894   1.352 -0.4548  0.2696  0.1204
60924SOL    HW189822   6.395   4.800   1.341 -0.6585  0.4182 -1.8203
60924SOL    HW289823   6.469   4.931   1.355 -0.3667  0.0152  1.2420
60925SOL     OW89824  11.698   7.071   4.740  0.2123  0.0278 -0.5308
60925SOL    HW189825  11.723   7.075   4.648  1.4559 -2.6582 -0.3987
60925SOL    HW289826  11.608   7.102   4.742  1.2639  3.7765 -2.0323
60926SOL     OW89827  12.274   0.837   6.105 -0.5391  0.1418 -0.4227
60926SOL    HW189828  12.286   0.895   6.030 -2.2646  0.7037 -0.3059
60926SOL    HW289829  12.256   0.752   6.066  1.8245 -0.3566 -0.5939
60927SOL     OW89830  10.885  10.862   5.112 -0.8728 -0.4541 -0.2762
60927SOL    HW189831  10.887  10.926   5.041  1.3665 -1.1450 -0.9291
60927SOL    HW289832  10.867  10.914   5.190 -1.3908  0.6195 -1.0726
60928SOL     OW89833   4.826   5.235   8.048 -0.6658  0.1119 -0.3022
60928SOL    HW189834   4.888   5.258   7.979  0.3592  2.3124  1.2719
60928SOL    HW289835   4.868   5.261   8.129 -3.0964  0.4593  0.9408
60929SOL     OW89836  11.383   8.959   1.868  0.1635  0.1063 -0.6295
60929SOL    HW189837  11.309   8.995   1.819  0.0415  0.1745 -0.3977
60929SOL    HW289838  11.460   8.980   1.815  0.5108  3.4971  0.9123
60930SOL     OW89839   9.237   6.296   0.389 -0.2376 -0.0162 -0.4272
60930SOL    HW189840   9.228   6.381   0.433  0.3942  0.2302 -0.7541
60930SOL    HW289841   9.262   6.318   0.299 -1.3725 -0.5189 -0.8904
60931SOL     OW89842  10.823   6.876   6.888 -0.3007 -0.2804 -0.2240
60931SOL    HW189843  10.865   6.797   6.922  1.2541  0.5265 -0.1457
60931SOL    HW289844  10.872   6.948   6.929 -2.7019  0.7786  1.0059
60932SOL     OW89845   8.991  11.518   9.776 -0.5181 -0.1338  0.3211
60932SOL    HW189846   9.007  11.612   9.785  1.2455 -0.3588 -0.1056
60932SOL    HW289847   8.913  11.512   9.720 -0.2198  1.0823 -0.2583
60933SOL     OW89848  11.483   0.925   0.351  0.1387 -0.9324 -0.3986
60933SOL    HW189849  11.475   0.898   0.260  1.1025  1.1127 -1.1591
60933SOL    HW289850  11.574   0.953   0.360 -0.1417 -0.3631  0.9753
60934SOL     OW89851   7.310   9.217   1.203  0.3591 -0.1273 -0.1524
60934SOL    HW189852   7.258   9.175   1.273 -2.1097  2.4521 -0.2692
60934SOL    HW289853   7.245   9.256   1.145  2.4400  1.0305 -1.8394
60935SOL     OW89854   3.262   0.266   6.801  0.2329  0.1891  0.0564
60935SOL    HW189855   3.341   0.272   6.748  0.5931  0.2815  0.5899
60935SOL    HW289856   3.283   0.199   6.867 -0.1821  0.1175  0.1164
60936SOL     OW89857   0.181   6.799   5.262 -0.3363  0.7008  0.5526
60936SOL    HW189858   0.178   6.756   5.176 -0.1259  0.2664  0.7618
60936SOL    HW289859   0.095   6.782   5.300  0.1485 -0.5604  1.1254
60937SOL     OW89860   0.015  11.540   2.733  0.1687 -0.8269 -0.1310
60937SOL    HW189861  -0.029  11.609   2.685  2.7278  1.1089  0.0763
60937SOL    HW289862  -0.015  11.550   2.823 -0.7067 -1.0951 -0.3826
60938SOL     OW89863   9.880  10.051  11.988 -0.1626 -0.1232  0.4512
60938SOL    HW189864   9.790  10.023  11.972 -0.2344  0.6256 -0.6204
60938SOL    HW289865   9.922  10.046  11.902  0.1273  1.8634  0.4232
60939SOL     OW89866   6.448   7.920  11.677  0.2978 -0.2846  0.2882
60939SOL    HW189867   6.471   7.941  11.767  0.8645 -1.1885  0.3712
60939SOL    HW289868   6.357   7.891  11.681  0.3113 -0.2876  0.5630
60940SOL     OW89869   3.166   0.973  10.761 -0.1947  0.1430 -0.0497
60940SOL    HW189870   3.175   0.928  10.677  1.0439  0.8899 -0.3363
60940SOL    HW289871   3.190   0.907  10.826  1.1935  0.2321 -0.4420
60941SOL     OW89872  12.085   4.777  10.067 -0.0261  0.3632 -0.1000
60941SOL    HW189873  12.010   4.763  10.009  1.3939 -1.4954 -1.6353
60941SOL    HW289874  12.055   4.745  10.152 -0.9536 -0.5130 -0.7169
60942SOL     OW89875   9.292   4.729   4.180 -0.1035  0.1653 -0.2376
60942SOL    HW189876   9.200   4.739   4.206 -0.5229  1.4297 -2.0518
60942SOL    HW289877   9.289   4.712   4.086  1.5427  0.5251 -0.3822
60943SOL     OW89878   6.489   8.487  11.976  0.6987  1.0563 -0.1984
60943SOL    HW189879   6.521   8.545  11.907  0.2971  0.5592 -0.8093
60943SOL    HW289880   6.399   8.469  11.952  1.1575 -0.7638 -0.6731
60944SOL     OW89881   4.368   0.980  10.431 -0.0238 -0.4392  0.1130
60944SOL    HW189882   4.283   0.937  10.435 -0.2570 -0.0370 -0.4484
60944SOL    HW289883   4.427   0.920  10.477 -1.0288  0.3344  2.6051
60945SOL     OW89884   0.532   2.758   2.793  0.1718  0.0982  0.3238
60945SOL    HW189885   0.482   2.769   2.713 -0.7524  0.2730  0.9057
60945SOL    HW289886   0.512   2.836   2.845  0.1102 -0.3933  1.0552
60946SOL     OW89887   9.331   4.025   6.954  0.2929 -0.3749 -0.4100
60946SOL    HW189888   9.295   3.959   6.895  0.2257  0.1420 -0.9602
60946SOL    HW289889   9.422   3.999   6.967  0.1708 -0.7677 -0.3426
60947SOL     OW89890   2.923   3.655   1.526 -0.2280 -0.2344 -0.6013
60947SOL    HW189891   2.831   3.668   1.505 -0.3118 -1.8474 -1.3804
60947SOL    HW289892   2.953   3.590   1.463  1.9106  1.4891 -1.4847
60948SOL     OW89893   6.214   2.471   9.687  0.2582 -0.1617 -0.3197
60948SOL    HW189894   6.188   2.448   9.597 -0.1750  0.0317 -0.2487
60948SOL    HW289895   6.132   2.501   9.728  0.5669  0.2944 -0.0298
60949SOL     OW89896   2.029   8.243   2.889 -0.2573  0.2101 -0.3723
60949SOL    HW189897   1.945   8.207   2.862  1.2375 -2.8382 -1.3740
60949SOL    HW289898   2.063   8.180   2.953  1.7976  0.6488 -0.9554
60950SOL     OW89899   6.627   4.806   6.132 -0.3009  0.0945 -0.2146
60950SOL    HW189900   6.700   4.844   6.084 -2.0634  1.0159 -2.3861
60950SOL    HW289901   6.655   4.718   6.154  0.3971 -0.7273 -3.7670
60951SOL     OW89902   6.564   7.192   8.167  0.1336  0.1982  0.0275
60951SOL    HW189903   6.549   7.139   8.245 -0.2138 -1.0399 -0.8361
60951SOL    HW289904   6.651   7.229   8.179  0.5939 -0.9797  0.4619
60952SOL     OW89905   2.774   0.957   8.613 -0.5038  0.1113 -0.0635
60952SOL    HW189906   2.814   0.988   8.531  1.6178  0.1569  0.9459
60952SOL    HW289907   2.687   0.996   8.612 -1.0709 -0.9444 -2.9109
60953SOL     OW89908   1.732   0.272   6.059 -0.0233  0.1635 -0.4307
60953SOL    HW189909   1.723   0.365   6.081  0.7581 -0.1183  1.2029
60953SOL    HW289910   1.804   0.241   6.113 -1.6755 -1.9007  0.7166
60954SOL     OW89911   9.731   0.638   6.031 -0.1217 -0.0028  0.2691
60954SOL    HW189912   9.712   0.731   6.018 -2.6673 -0.5681 -0.7255
60954SOL    HW289913   9.761   0.633   6.122 -3.5531  1.4443  1.7052
60955SOL     OW89914   8.650   5.677  11.828 -0.5033 -0.1132  0.2162
60955SOL    HW189915   8.719   5.645  11.886  1.0222  1.0389 -0.8452
60955SOL    HW289916   8.624   5.761  11.865 -1.7099 -0.7643  0.8748
60956SOL     OW89917   0.932   3.256   8.297  0.2244  0.3168  0.1689
60956SOL    HW189918   0.935   3.283   8.388  0.3044  3.0892 -0.5620
60956SOL    HW289919   0.842   3.275   8.269  0.2117 -0.4732 -0.3576
60957SOL     OW89920   4.981   7.648   4.849 -0.7970 -0.4853  0.0463
60957SOL    HW189921   4.950   7.597   4.924 -1.3633  0.6969  0.6452
60957SOL    HW289922   5.077   7.636   4.850 -0.8132 -0.6143  0.8551
60958SOL     OW89923   1.451   1.518   2.074 -0.5824 -0.0333  0.0761
60958SOL    HW189924   1.394   1.488   2.144  0.3190 -0.8665  0.4887
60958SOL    HW289925   1.498   1.439   2.046  1.2325  0.7916  0.5943
60959SOL     OW89926   9.653   7.369   7.184 -0.5888 -0.7880 -0.0713
60959SOL    HW189927   9.736   7.393   7.225 -1.1879  0.1165  0.6270
60959SOL    HW289928   9.666   7.388   7.091 -0.2214 -0.0538  0.1253
60960SOL     OW89929  11.159   1.422   3.290  0.2280 -0.0845  0.0934
60960SOL    HW189930  11.207   1.443   3.370  2.0770 -1.2701 -0.6403
60960SOL    HW289931  11.223   1.377   3.235 -1.1005  0.3380 -1.9013
60961SOL     OW89932   8.708   0.260   0.301  0.5238 -0.5753 -0.3655
60961SOL    HW189933   8.738   0.319   0.232 -2.8185  0.8834 -0.7989
60961SOL    HW289934   8.695   0.317   0.377 -1.1731 -0.9922 -0.2935
60962SOL     OW89935   6.225   9.274   5.459  0.4086 -0.8399 -0.5739
60962SOL    HW189936   6.154   9.313   5.408  1.1534 -0.8673 -1.6544
60962SOL    HW289937   6.291   9.249   5.394  1.4449 -0.7458  0.4110
60963SOL     OW89938  12.247   5.940   0.638  0.1171  0.0990 -0.5196
60963SOL    HW189939  12.231   5.860   0.587 -0.5695 -1.6015  2.1465
60963SOL    HW289940  12.342   5.943   0.648  0.0914 -0.9291  0.1326
60964SOL     OW89941   2.755   0.466   3.991  0.5704  0.4728  0.8364
60964SOL    HW189942   2.728   0.430   4.075 -1.4520  0.6872  0.3428
60964SOL    HW289943   2.687   0.437   3.930  0.2161  2.9690 -0.0763
60965SOL     OW89944   6.436   3.298   9.120 -0.0138  0.6381  0.3717
60965SOL    HW189945   6.506   3.333   9.065 -0.6559  1.3827  0.0010
60965SOL    HW289946   6.418   3.211   9.083  1.1307  0.1754  0.8737
60966SOL     OW89947  12.542   1.032   4.442  0.4395  0.0326 -0.2603
60966SOL    HW189948  12.636   1.018   4.434  0.5267  0.4318  0.0616
60966SOL    HW289949  12.533   1.118   4.483 -0.0606 -0.0890 -0.0993
60967SOL     OW89950   6.603   1.669   5.813 -0.3262 -0.5866  0.3376
60967SOL    HW189951   6.656   1.748   5.818 -0.2770 -0.4931 -1.1817
60967SOL    HW289952   6.613   1.639   5.723  0.2037 -2.7231  1.0478
60968SOL     OW89953   4.976   2.314  10.466  0.2732  0.2021 -0.5061
60968SOL    HW189954   4.904   2.254  10.448  0.8285 -0.0507 -1.9766
60968SOL    HW289955   5.014   2.334  10.381  0.9774  1.5590  0.0866
60969SOL     OW89956   8.394   8.061   7.907  0.3804  0.1251  0.1355
60969SOL    HW189957   8.337   8.130   7.872  1.0701  1.1680  0.9933
60969SOL    HW289958   8.482   8.088   7.880  0.6503 -0.4546  0.4318
60970SOL     OW89959   6.637   6.729  11.875  0.1872  0.4223 -0.3849
60970SOL    HW189960   6.586   6.723  11.956  1.0231  1.5662  0.2632
60970SOL    HW289961   6.675   6.642  11.864 -2.0718 -0.5625 -1.0475
60971SOL     OW89962   8.344   0.824   9.476 -0.1800  0.0101  0.8670
60971SOL    HW189963   8.425   0.790   9.439 -0.9729  0.0974 -1.0163
60971SOL    HW289964   8.278   0.758   9.454 -0.9736  0.8439  0.7001
60972SOL     OW89965   2.646   5.797   6.483 -0.0467  0.3396  0.6079
60972SOL    HW189966   2.566   5.826   6.440 -1.4046 -0.4461  2.4996
60972SOL    HW289967   2.676   5.722   6.431 -0.4515  0.7055 -0.1666
60973SOL     OW89968   5.961   7.145   5.900  0.2139  0.0208 -0.0964
60973SOL    HW189969   6.029   7.110   5.842  1.1438 -2.5539  2.3416
60973SOL    HW289970   6.003   7.218   5.945  0.1447  0.7272 -1.1393
60974SOL     OW89971   6.359  12.238  10.380  0.3843 -0.0334  0.3423
60974SOL    HW189972   6.269  12.266  10.364  0.3313 -0.4855 -0.2172
60974SOL    HW289973   6.413  12.307  10.341  0.2541 -0.9302 -1.5731
60975SOL     OW89974   5.826  10.855   4.698 -0.9472  0.1955  0.4539
60975SOL    HW189975   5.916  10.886   4.701  0.3878 -3.1701  0.0538
60975SOL    HW289976   5.819  10.808   4.615 -2.8992 -0.0826  0.7213
60976SOL     OW89977   8.218   5.230   9.041  0.3137  0.3255  0.0616
60976SOL    HW189978   8.239   5.141   9.012 -0.0978 -0.3765  1.7967
60976SOL    HW289979   8.294   5.282   9.016  0.0967 -0.2714 -1.9508
60977SOL     OW89980  12.368   6.158   0.179  0.1958 -0.3159 -0.2438
60977SOL    HW189981  12.442   6.185   0.125  0.4390 -0.8312 -0.1718
60977SOL    HW289982  12.297   6.143   0.117  0.8504 -2.2254 -0.5939
60978SOL     OW89983  10.182   2.342   3.088 -0.0164  0.2322  0.5814
60978SOL    HW189984  10.198   2.430   3.054 -0.4732 -0.9817 -3.1583
60978SOL    HW289985  10.232   2.284   3.031 -0.4389 -2.0517  2.3721
60979SOL     OW89986   9.874   4.198   1.091 -0.0243  0.1526 -0.4032
60979SOL    HW189987   9.958   4.191   1.045 -0.2331 -1.3184 -0.6266
60979SOL    HW289988   9.896   4.182   1.183  0.2303  1.9785 -0.1093
60980SOL     OW89989  10.857   5.342  11.397  0.4994 -0.7830  0.1728
60980SOL    HW189990  10.913   5.417  11.420 -1.3264  1.0330 -0.9115
60980SOL    HW289991  10.791   5.340  11.466  1.0434 -2.0228  0.6864
60981SOL     OW89992   6.244   2.098   4.974 -0.3229 -0.1572 -0.0817
60981SOL    HW189993   6.299   2.150   5.032 -0.7570  0.8417 -0.5470
60981SOL    HW289994   6.263   2.131   4.886  0.7321 -2.0189 -0.6021
60982SOL     OW89995   7.854  11.687  10.086  0.2407  0.1232 -0.0348
60982SOL    HW189996   7.776  11.633  10.071  0.3454 -0.0673  0.0882
60982SOL    HW289997   7.917  11.656  10.021 -0.1349  0.9958 -0.8282
60983SOL     OW89998   9.739  12.155   2.966  0.6797  0.9659  0.3453
60983SOL    HW189999   9.775  12.132   3.052 -0.6984  1.1867  0.9983
60983SOL    HW290000   9.681  12.082   2.944  2.2732  0.0775 -1.2082
60984SOL     OW90001  12.583   8.849  12.097  0.3566  0.0248  0.0952
60984SOL    HW190002  12.512   8.818  12.040 -1.8214  2.4652  1.2220
60984SOL    HW290003  12.652   8.876  12.037 -0.4625 -0.6070 -1.1776
60985SOL     OW90004  12.563   2.995  10.141  0.1175 -0.4605  1.0125
60985SOL    HW190005  12.481   3.032  10.175  0.2390  0.5590  0.2269
60985SOL    HW290006  12.629   3.023  10.205  0.2646  1.0296  0.2537
60986SOL     OW90007  10.617  11.504   6.538  0.2052  0.0591  0.2277
60986SOL    HW190008  10.633  11.411   6.519  1.6627  0.0044  1.4697
60986SOL    HW290009  10.526  11.518   6.513 -0.2837 -1.9033  0.6842
60987SOL     OW90010   0.817   9.685   8.827 -0.0591 -0.0413  0.1930
60987SOL    HW190011   0.859   9.683   8.741 -0.9000 -1.1200 -0.2267
60987SOL    HW290012   0.884   9.653   8.887 -0.4279 -2.4548 -0.5742
60988SOL     OW90013   1.695   5.760   1.721  0.3864 -0.0228  0.2742
60988SOL    HW190014   1.646   5.679   1.708  0.8243 -0.0665 -1.1932
60988SOL    HW290015   1.731   5.752   1.809  0.1239 -1.2570  0.2832
60989SOL     OW90016   4.166   0.959   9.242  0.4944  0.4839  0.7740
60989SOL    HW190017   4.214   0.900   9.184  0.5237  1.4342 -0.1914
60989SOL    HW290018   4.220   1.037   9.248 -0.8621  1.5497 -0.2837
60990SOL     OW90019   7.485   5.304   4.594  0.3285 -0.0357 -0.1102
60990SOL    HW190020   7.555   5.251   4.633  0.9380  1.9438  1.7612
60990SOL    HW290021   7.419   5.310   4.663 -1.6371 -1.6315 -1.7533
60991SOL     OW90022   8.052   1.170   2.702 -0.0575  0.8059  0.2061
60991SOL    HW190023   7.957   1.167   2.713  0.1006 -2.0745  1.8579
60991SOL    HW290024   8.086   1.183   2.791  1.0812  0.0704 -0.0971
60992SOL     OW90025   7.116   0.154   7.031 -0.0289 -0.3026  0.2652
60992SOL    HW190026   7.025   0.132   7.045 -0.4061 -0.0507 -1.5408
60992SOL    HW290027   7.140   0.111   6.948  1.9863 -1.7200  1.4803
60993SOL     OW90028  11.869   4.953  11.275 -0.3665  0.0822 -0.0210
60993SOL    HW190029  11.961   4.977  11.266 -0.7506  2.0331  0.8202
60993SOL    HW290030  11.839   4.939  11.186  0.2427  1.4906 -0.4681
60994SOL     OW90031   5.705   7.570   2.040  0.0877  0.3721 -0.0545
60994SOL    HW190032   5.721   7.653   1.995 -2.4167  1.0246  0.1283
60994SOL    HW290033   5.674   7.595   2.127  0.2134 -0.7823  0.3399
60995SOL     OW90034   9.585  11.939   9.216 -0.2601 -0.0838 -0.1635
60995SOL    HW190035   9.536  11.863   9.245  3.1884 -2.4979  0.0140
60995SOL    HW290036   9.557  11.952   9.125 -0.7567 -1.7656 -0.2889
60996SOL     OW90037   8.764   2.439   0.418  0.0877 -0.2350 -0.3577
60996SOL    HW190038   8.700   2.444   0.347  1.3090 -0.4875 -1.5230
60996SOL    HW290039   8.767   2.346   0.441 -0.8881 -0.0413  0.5943
60997SOL     OW90040  10.173   0.547  10.122 -0.0562 -0.0443  0.7003
60997SOL    HW190041  10.148   0.508  10.038 -1.4466 -1.2662  1.6262
60997SOL    HW290042  10.188   0.639  10.102  1.1239 -0.5743 -1.1534
60998SOL     OW90043   8.783  11.476   9.591 -0.3389  0.0376  0.6994
60998SOL    HW190044   8.766  11.395   9.542  2.5777 -0.1181 -0.2476
60998SOL    HW290045   8.748  11.545   9.535  3.8580 -0.0137 -2.5888
60999SOL     OW90046   6.747   8.330   3.823  0.3757 -0.3565 -0.5392
60999SOL    HW190047   6.786   8.407   3.864  1.6662 -0.9904 -0.5129
60999SOL    HW290048   6.692   8.292   3.891  1.6839 -0.8115  0.3137
61000SOL     OW90049  11.468   2.270   2.894  0.4895 -0.0308  0.3088
61000SOL    HW190050  11.434   2.270   2.805  0.9532 -1.4778  0.1190
61000SOL    HW290051  11.470   2.363   2.919 -0.9496  0.2834 -0.6695
61001SOL     OW90052   0.224   5.824  11.539  0.1018 -0.1006 -0.0789
61001SOL    HW190053   0.295   5.842  11.600  0.2672 -0.8213 -0.0454
61001SOL    HW290054   0.165   5.899  11.547  1.3291  0.9754 -0.8092
61002SOL     OW90055   8.755   7.288   4.840  0.3932  0.6625 -0.0759
61002SOL    HW190056   8.693   7.232   4.885 -0.2641  1.1826 -0.3093
61002SOL    HW290057   8.811   7.323   4.909  0.6752 -0.1082  0.0926
61003SOL     OW90058   7.830   2.514   1.479  0.0766  0.1611  0.3796
61003SOL    HW190059   7.762   2.563   1.525 -0.5036 -1.7480  1.6717
61003SOL    HW290060   7.785   2.441   1.438  0.6957  1.4102 -2.8111
61004SOL     OW90061   1.014   1.305   6.106  0.0271 -0.2763 -0.4231
61004SOL    HW190062   0.969   1.281   6.187  0.7548 -0.9263 -0.1975
61004SOL    HW290063   1.046   1.394   6.121 -0.4333 -0.1419 -0.2540
61005SOL     OW90064  10.706   0.260  11.903  0.7405  0.5415  0.1571
61005SOL    HW190065  10.682   0.352  11.916 -0.3017  0.2525  0.3344
61005SOL    HW290066  10.630   0.222  11.859  0.3416 -0.6762  1.8271
61006SOL     OW90067   9.814   8.490   5.970  0.0025 -0.2971 -0.5371
61006SOL    HW190068   9.886   8.457   6.025 -0.3453  0.4594  0.3851
61006SOL    HW290069   9.762   8.412   5.951 -0.1888 -0.4988  0.7028
61007SOL     OW90070   2.089  12.228   1.485  0.0283 -0.1671 -0.4051
61007SOL    HW190071   2.010  12.276   1.510 -1.0990 -1.1830 -1.8740
61007SOL    HW290072   2.154  12.255   1.550 -1.5352  0.6111  0.9269
61008SOL     OW90073   5.606   0.050   2.158 -1.3701 -0.5852  0.0111
61008SOL    HW190074   5.648   0.065   2.242 -1.8709  0.9124  0.0237
61008SOL    HW290075   5.666   0.088   2.094 -1.9405  0.1734 -0.1002
61009SOL     OW90076   5.238   1.106   2.568 -0.1127  0.0915 -0.5306
61009SOL    HW190077   5.187   1.032   2.604  0.5291 -0.5847 -0.9911
61009SOL    HW290078   5.171   1.167   2.537 -0.6576 -0.4311 -0.4220
61010SOL     OW90079   0.078   8.176   3.566  0.2159 -0.5397  0.1513
61010SOL    HW190080   0.147   8.144   3.507  0.2185  1.8276 -1.2355
61010SOL    HW290081   0.119   8.248   3.614 -1.3599  1.1897 -1.0052
61011SOL     OW90082  10.341   1.973   9.547  0.0676 -0.0916 -0.2098
61011SOL    HW190083  10.381   1.896   9.586 -0.8874 -0.8989 -0.7702
61011SOL    HW290084  10.411   2.038   9.544  0.9589 -1.0197  0.0296
61012SOL     OW90085   2.396   2.747   0.155  0.0969 -0.1699 -0.0724
61012SOL    HW190086   2.363   2.792   0.077  0.6181  0.7404  0.2180
61012SOL    HW290087   2.490   2.739   0.140 -0.0900 -1.9157 -0.4796
61013SOL     OW90088   8.084  11.653  11.158  0.4903 -0.9992  0.1140
61013SOL    HW190089   8.017  11.616  11.101  0.6393 -0.2058 -0.5916
61013SOL    HW290090   8.123  11.724  11.107 -0.3987  0.7415  1.7345
61014SOL     OW90091   0.127  11.795   8.942  0.6690 -0.0477 -0.0192
61014SOL    HW190092   0.131  11.860   8.872 -2.2577 -2.1666 -2.4162
61014SOL    HW290093   0.040  11.805   8.979  0.3122 -2.1964 -0.1344
61015SOL     OW90094   8.373   9.824  11.407 -0.4202 -0.1303  0.2724
61015SOL    HW190095   8.444   9.766  11.435  0.3720  1.2064  1.1119
61015SOL    HW290096   8.360   9.803  11.315  2.0835  0.6253 -0.3070
61016SOL     OW90097   1.455  11.706   3.038 -0.1999  0.8279  0.1784
61016SOL    HW190098   1.374  11.677   3.079 -0.4878  0.1597 -0.8429
61016SOL    HW290099   1.432  11.720   2.946  1.0612 -0.3316 -0.3426
61017SOL     OW90100   0.751  10.864   9.505 -0.2782  0.3565  0.1745
61017SOL    HW190101   0.821  10.914   9.463  0.8656 -0.9155  0.4627
61017SOL    HW290102   0.726  10.799   9.440 -2.1723  1.6152 -0.4282
61018SOL     OW90103   8.947  12.112   2.691 -0.1448  0.5739  0.1970
61018SOL    HW190104   8.924  12.124   2.598  0.5450 -1.0761 -0.2180
61018SOL    HW290105   8.881  12.162   2.738 -0.2139  1.8829 -1.1954
61019SOL     OW90106   8.789   3.403   4.658 -0.2673  0.0332 -0.2139
61019SOL    HW190107   8.872   3.357   4.644 -0.8857 -1.2545  0.1750
61019SOL    HW290108   8.733   3.373   4.586 -1.2498 -1.2538  1.0409
61020SOL     OW90109   7.112   0.560   1.925  0.5919 -0.4616  0.2198
61020SOL    HW190110   7.072   0.646   1.911  0.8430  0.3323  3.5089
61020SOL    HW290111   7.187   0.559   1.866  0.7812  1.7837  0.3320
61021SOL     OW90112  11.660   0.214  12.479  0.7360  0.5757  0.3410
61021SOL    HW190113  11.574   0.202  12.440  0.4724  1.6656  0.5322
61021SOL    HW290114  11.720   0.215  12.405  0.6416 -0.5373  0.2316
61022SOL     OW90115  12.483   2.069  11.532 -0.5184 -0.0985  0.2654
61022SOL    HW190116  12.506   2.101  11.445 -0.5578  0.5261  0.4854
61022SOL    HW290117  12.398   2.026  11.519 -0.5667  0.0676  0.0129
61023SOL     OW90118  12.526   4.048  10.212  0.1495  0.1138  0.4249
61023SOL    HW190119  12.556   4.125  10.260  0.6085  0.1150  0.1383
61023SOL    HW290120  12.443   4.025  10.254  0.3997  0.2891  1.0347
61024SOL     OW90121   7.920  10.941   8.858  0.2133  0.2011 -0.5601
61024SOL    HW190122   7.929  10.906   8.947  0.4129 -0.6859 -0.9138
61024SOL    HW290123   7.977  10.885   8.805  0.7496  1.2457 -1.1197
61025SOL     OW90124   2.347   5.188   2.540 -0.5793  0.5753 -0.4625
61025SOL    HW190125   2.401   5.109   2.549 -0.9537  0.5171  2.2900
61025SOL    HW290126   2.410   5.258   2.521  0.5403  0.4273  2.1849
61026SOL     OW90127   1.196  11.607   9.363  0.0794 -0.2457  0.0509
61026SOL    HW190128   1.127  11.672   9.355  0.0263 -0.5342 -2.7741
61026SOL    HW290129   1.225  11.614   9.454  0.0602  3.6922 -0.0828
61027SOL     OW90130  10.579   1.835   9.446 -0.0753  0.1476 -0.4618
61027SOL    HW190131  10.587   1.920   9.402  1.5420  0.3579  0.1833
61027SOL    HW290132  10.661   1.790   9.426  0.7544  0.2444  2.2639
61028SOL     OW90133  12.512  12.397  12.546 -0.5533  0.1836  0.2382
61028SOL    HW190134  12.579  12.446  12.500  0.6722  0.3206  2.0404
61028SOL    HW290135  12.503  12.316  12.496  0.8930  0.2142 -0.1316
61029SOL     OW90136   2.984   1.111   4.729  0.3903 -0.1120  0.5740
61029SOL    HW190137   2.947   1.199   4.731 -1.8291 -0.9401 -0.1565
61029SOL    HW290138   3.079   1.124   4.728  0.1187  2.2856 -0.3834
61030SOL     OW90139   0.658   3.941   3.611 -0.0029 -0.5900  0.1031
61030SOL    HW190140   0.572   3.952   3.571 -0.4262  0.1422  1.1854
61030SOL    HW290141   0.706   4.021   3.587  1.1907 -1.9256 -2.3601
61031SOL     OW90142   8.417   5.417   6.995 -0.2408  0.1993  0.5507
61031SOL    HW190143   8.433   5.366   6.916  0.9892 -1.4534  1.7935
61031SOL    HW290144   8.421   5.353   7.066 -0.9945  1.6743  1.9886
61032SOL     OW90145   0.205  10.649   1.329  0.1735  0.0264 -0.3699
61032SOL    HW190146   0.181  10.696   1.408 -0.6087 -0.0495 -0.5570
61032SOL    HW290147   0.193  10.556   1.351 -0.6795  0.0360 -0.7820
61033SOL     OW90148   3.330   2.067   7.984  0.0657  0.0708  0.3111
61033SOL    HW190149   3.364   2.015   7.911 -0.3975  1.4261 -0.9324
61033SOL    HW290150   3.269   2.008   8.028  0.0413 -0.6615 -0.6563
61034SOL     OW90151   7.684   0.418   4.114  0.1968 -0.5186  0.1753
61034SOL    HW190152   7.723   0.500   4.145 -0.7729 -0.2559  0.7480
61034SOL    HW290153   7.625   0.445   4.044 -0.8461 -0.5843  0.9969
61035SOL     OW90154   8.844   2.446   3.290 -0.0276  0.6860 -0.6690
61035SOL    HW190155   8.797   2.399   3.359  0.8244  0.2693 -0.3630
61035SOL    HW290156   8.936   2.426   3.306  0.3028  1.9175 -0.9416
61036SOL     OW90157   6.410  10.978   1.719 -0.3674  0.4594  0.0910
61036SOL    HW190158   6.496  10.996   1.681  0.1070  1.1169  1.4065
61036SOL    HW290159   6.348  11.002   1.651  0.4381  2.3246 -0.0410
61037SOL     OW90160   7.523  12.541   9.156 -0.0179 -0.1609 -0.1021
61037SOL    HW190161   7.455  12.544   9.090 -1.1498  0.4338  1.0370
61037SOL    HW290162   7.582  12.614   9.133 -1.4013  1.2168  0.5378
61038SOL     OW90163  10.058   7.802  12.012 -0.4097 -0.0505  0.1499
61038SOL    HW190164  10.092   7.730  11.960 -0.6342 -0.3636  0.4322
61038SOL    HW290165   9.997   7.847  11.953  1.1925  1.1152 -0.6966
61039SOL     OW90166   1.429   0.858  11.790  0.1042  0.1453  0.3452
61039SOL    HW190167   1.383   0.847  11.707 -0.8795  0.5542  0.8213
61039SOL    HW290168   1.370   0.912  11.843  0.5740 -0.3682  1.4213
61040SOL     OW90169   3.487   8.504   0.798 -0.1266  0.1647 -0.1520
61040SOL    HW190170   3.399   8.493   0.762 -0.5634 -0.7509  1.1090
61040SOL    HW290171   3.478   8.484   0.891  1.2239  1.0823  0.2181
61041SOL     OW90172   7.888   1.456  11.238  0.0019 -0.2452  0.2697
61041SOL    HW190173   7.913   1.548  11.237  2.3466 -0.8323  0.5855
61041SOL    HW290174   7.833   1.448  11.317  0.9584  0.6117  1.0511
61042SOL     OW90175   6.777  12.038   3.531  0.0050 -0.3371  0.1252
61042SOL    HW190176   6.854  11.995   3.567  0.2068  1.8628  2.5947
61042SOL    HW290177   6.733  12.077   3.606 -2.6263 -0.0697 -1.4115
61043SOL     OW90178   3.283   2.782  11.734 -0.1125 -0.7151  0.6106
61043SOL    HW190179   3.302   2.783  11.640  1.1426 -1.2277  0.8482
61043SOL    HW290180   3.238   2.865  11.750  0.2564 -0.3236 -0.3142
61044SOL     OW90181  11.329   6.331   1.841  0.0882 -0.3794 -0.0573
61044SOL    HW190182  11.418   6.301   1.818  0.1909  0.1270 -0.3284
61044SOL    HW290183  11.324   6.420   1.807 -0.3479 -0.2177  0.4253
61045SOL     OW90184   6.271   3.091   5.132 -0.5564  0.4579 -0.4448
61045SOL    HW190185   6.235   3.150   5.198 -0.1300  2.0815 -1.6017
61045SOL    HW290186   6.328   3.032   5.181  0.6688  2.3530  0.5399
61046SOL     OW90187   5.734  11.376  11.059  0.0179 -0.1449 -0.2680
61046SOL    HW190188   5.662  11.373  11.122  1.6044  0.8148  1.7487
61046SOL    HW290189   5.697  11.419  10.982 -1.6982 -0.2081  0.4750
61047SOL     OW90190   1.483   3.629   4.748  0.0928 -0.3643  0.1668
61047SOL    HW190191   1.489   3.536   4.768 -0.2141 -0.6811 -1.1261
61047SOL    HW290192   1.564   3.649   4.700  0.2898  0.1095  0.6795
61048SOL     OW90193   2.739  10.531   9.314 -0.0063 -0.2801  0.2200
61048SOL    HW190194   2.766  10.607   9.365  1.0153  0.9322 -2.0006
61048SOL    HW290195   2.649  10.551   9.287  0.2233  0.1070 -0.2712
61049SOL     OW90196   9.630  11.914   4.635 -0.2248 -0.0110 -0.6083
61049SOL    HW190197   9.553  11.910   4.578  0.6124 -0.0963 -1.7686
61049SOL    HW290198   9.655  11.823   4.649  0.6928  0.0543 -1.6983
61050SOL     OW90199   1.994   3.523   0.134  0.1345 -0.0575 -0.1817
61050SOL    HW190200   2.009   3.579   0.058 -1.0100  2.2556  1.1848
61050SOL    HW290201   1.985   3.584   0.208 -1.6021 -2.0099  1.3458
61051SOL     OW90202   8.281  11.104   9.875 -0.3578  0.1649 -0.7664
61051SOL    HW190203   8.287  11.097   9.971 -0.9214  0.7319 -0.6842
61051SOL    HW290204   8.300  11.196   9.857 -1.8627  0.4476 -1.0486
61052SOL     OW90205   7.586   2.618   1.490  0.9382 -0.0062  0.6925
61052SOL    HW190206   7.540   2.537   1.515  0.5932  0.0573  0.2666
61052SOL    HW290207   7.548   2.642   1.406  1.0681  0.5840  0.8011
61053SOL     OW90208   0.203   4.387  10.426 -0.5378  0.1866 -0.1304
61053SOL    HW190209   0.266   4.450  10.391 -2.0990  1.0106 -1.5901
61053SOL    HW290210   0.152   4.359  10.350  1.8853 -5.2159 -0.2276
61054SOL     OW90211   6.290   4.873   4.882 -0.0289  0.4240  0.0399
61054SOL    HW190212   6.310   4.831   4.967 -1.6279 -0.0236  0.2272
61054SOL    HW290213   6.308   4.804   4.818 -0.8603  0.0328  0.2054
61055SOL     OW90214   2.046   5.172   9.041  0.5348 -0.5572 -0.0794
61055SOL    HW190215   2.096   5.114   9.099  0.4500  1.2837  1.9473
61055SOL    HW290216   2.112   5.226   8.998  0.4574  1.2335  1.8927
61056SOL     OW90217   7.500   2.540   0.176  0.6512 -0.2571  0.2160
61056SOL    HW190218   7.500   2.462   0.232 -2.8342  0.6801  1.7826
61056SOL    HW290219   7.410   2.570   0.177  0.8508  1.1639 -4.2236
61057SOL     OW90220   7.504   7.177   2.145 -0.4919 -0.0774 -0.5265
61057SOL    HW190221   7.445   7.139   2.211  1.0754  1.5656  2.0040
61057SOL    HW290222   7.573   7.112   2.134  0.7539  0.7568  1.7390
61058SOL     OW90223  11.323  10.667   6.369  0.3010  0.1314  0.2018
61058SOL    HW190224  11.251  10.613   6.339 -1.2054  2.6937 -1.1473
61058SOL    HW290225  11.389  10.662   6.299  0.5692 -0.6030  0.4962
61059SOL     OW90226   6.718   2.633   8.916  0.0860  0.3818 -0.1355
61059SOL    HW190227   6.701   2.634   9.010  0.6156  1.0494 -0.0417
61059SOL    HW290228   6.813   2.636   8.909  0.2321 -2.5970 -0.6492
61060SOL     OW90229   8.220  11.333   2.269 -0.3011 -0.1677 -0.2106
61060SOL    HW190230   8.215  11.301   2.359  1.7321 -0.6452 -0.2059
61060SOL    HW290231   8.184  11.262   2.215  0.8527 -0.9884  0.0653
61061SOL     OW90232  10.335   4.794  11.447  0.3922 -0.0287 -0.1243
61061SOL    HW190233  10.402   4.726  11.433 -0.2357 -0.5188 -0.8187
61061SOL    HW290234  10.385   4.874  11.461  1.2411 -0.9309  2.8082
61062SOL     OW90235  11.425   8.791   2.107  0.0575  0.1932 -0.2862
61062SOL    HW190236  11.441   8.852   2.179  0.1630 -0.8349  0.5951
61062SOL    HW290237  11.458   8.836   2.029 -0.9362  1.7224  0.1422
61063SOL     OW90238   7.682   0.734  10.337 -0.1712  0.0222  0.1663
61063SOL    HW190239   7.686   0.795  10.411  2.0800 -0.2327  0.3343
61063SOL    HW290240   7.726   0.780  10.266 -0.8722 -0.3759 -0.5319
61064SOL     OW90241  11.814  10.451   1.357  0.3370 -0.2624  0.2314
61064SOL    HW190242  11.777  10.409   1.279 -1.5682  0.0472  0.9152
61064SOL    HW290243  11.889  10.500   1.325  0.2624 -1.0388 -1.2134
61065SOL     OW90244   0.655   0.056   6.922 -0.2616  0.1439  0.4932
61065SOL    HW190245   0.713   0.087   6.853 -0.4202 -2.1108 -0.7515
61065SOL    HW290246   0.669   0.116   6.994  2.9961  0.1903 -0.0455
61066SOL     OW90247   3.187  10.467   4.073  0.0522 -0.3470 -0.1842
61066SOL    HW190248   3.226  10.421   3.999  2.5033 -0.3319  0.9889
61066SOL    HW290249   3.147  10.398   4.125  0.7694 -0.7433 -0.1370
61067SOL     OW90250   6.952   8.896  10.681  0.0128 -0.2397 -0.4814
61067SOL    HW190251   7.004   8.826  10.720  0.7328  0.3749 -0.3298
61067SOL    HW290252   6.895   8.851  10.618  0.3480 -0.9799 -0.2625
61068SOL     OW90253   9.877   4.721  12.350 -0.0617 -0.0275 -0.5457
61068SOL    HW190254   9.855   4.803  12.307  1.6988  1.2291  0.7927
61068SOL    HW290255   9.922   4.670  12.283  2.6416  1.8916 -0.3370
61069SOL     OW90256  12.462   7.732   9.966 -0.5828  0.5028 -0.0552
61069SOL    HW190257  12.509   7.804   9.924 -0.0455 -0.4067 -1.0442
61069SOL    HW290258  12.514   7.654   9.946 -0.8594 -0.1030  1.4511
61070SOL     OW90259   4.854   1.036   8.905 -0.0418  0.0296  0.1348
61070SOL    HW190260   4.944   1.061   8.887 -1.1854  2.7495 -2.6834
61070SOL    HW290261   4.827   1.091   8.978 -0.0996  0.9956 -0.6041
61071SOL     OW90262   7.909   5.348   2.283  0.4141 -0.0532 -0.4579
61071SOL    HW190263   7.825   5.385   2.256  0.4572 -0.7549 -1.6591
61071SOL    HW290264   7.893   5.313   2.370 -1.2951 -2.3205 -1.5510
61072SOL     OW90265   0.180   1.179   7.564 -0.6251 -0.7874  1.0255
61072SOL    HW190266   0.249   1.137   7.512 -1.5570 -1.2503  0.1356
61072SOL    HW290267   0.198   1.272   7.556 -1.4152 -0.7651 -1.1545
61073SOL     OW90268   3.553  12.250   0.223 -0.2086  0.5641  0.0041
61073SOL    HW190269   3.637  12.297   0.224 -0.0678  0.3616  2.1994
61073SOL    HW290270   3.487  12.317   0.237 -0.2038  0.4420  0.6533
61074SOL     OW90271   7.976   7.057   5.034  1.4580 -0.3054 -0.3658
61074SOL    HW190272   7.924   7.113   5.091  2.3000  1.5406 -1.3094
61074SOL    HW290273   8.009   6.988   5.091 -1.4894 -1.2449  0.3705
61075SOL     OW90274   8.496   8.716   1.065  0.0026  0.3913 -0.1019
61075SOL    HW190275   8.557   8.699   0.993  0.9048 -1.3906  1.0123
61075SOL    HW290276   8.434   8.781   1.029  0.1857 -0.6870 -2.6041
61076SOL     OW90277  11.068   6.046   3.674 -0.0804 -0.0421  0.1999
61076SOL    HW190278  10.995   6.108   3.682  1.4032  1.7246  0.6431
61076SOL    HW290279  11.092   6.025   3.764 -0.4809 -1.2094  0.0528
61077SOL     OW90280   1.817   5.980   5.029 -0.2429  0.0715  0.2424
61077SOL    HW190281   1.875   6.011   5.099 -0.9992 -1.3668  1.5740
61077SOL    HW290282   1.729   6.002   5.059 -0.5858 -0.7024 -0.1801
61078SOL     OW90283   7.781   9.852   5.939  0.3792 -0.7048 -0.3609
61078SOL    HW190284   7.716   9.921   5.950  1.9253  0.6885  0.4776
61078SOL    HW290285   7.849   9.891   5.884  0.8316 -1.9034 -0.6916
61079SOL     OW90286   0.006   2.726  12.195 -0.3204 -0.2424 -0.0376
61079SOL    HW190287  -0.014   2.648  12.247  2.1330 -1.2135 -0.4460
61079SOL    HW290288   0.055   2.783  12.254  0.5056 -0.3514 -0.6018
61080SOL     OW90289  11.647  10.671  11.958  0.0266 -0.1453 -0.2900
61080SOL    HW190290  11.671  10.624  12.038 -2.8737  0.6798  1.1780
61080SOL    HW290291  11.731  10.686  11.913  1.9129  0.2737  3.0709
61081SOL     OW90292   9.427   2.938   6.590  0.1725 -0.2521  0.4102
61081SOL    HW190293   9.430   3.031   6.565 -0.4721 -0.4473 -0.4682
61081SOL    HW290294   9.479   2.933   6.670  0.2460  0.8626  0.4560
61082SOL     OW90295   0.108  10.812   1.120  0.4226  0.2073  0.2819
61082SOL    HW190296   0.058  10.735   1.093 -0.7965  0.3348  1.9675
61082SOL    HW290297   0.155  10.784   1.199  1.3151  0.7195 -0.0507
61083SOL     OW90298   2.676   7.741  10.054  1.1420 -0.5148 -0.3430
61083SOL    HW190299   2.749   7.734  10.116 -0.7102 -0.4609  1.9694
61083SOL    HW290300   2.669   7.835  10.036  1.4135 -0.4820 -0.2811
61084SOL     OW90301   4.076   8.209   2.828 -0.0861 -0.1774  0.0981
61084SOL    HW190302   4.006   8.144   2.838 -1.6298  1.5461  0.9616
61084SOL    HW290303   4.154   8.157   2.808 -1.9611 -2.0992 -3.0843
61085SOL     OW90304   8.379   6.377  11.991 -0.2749 -0.2480 -0.1595
61085SOL    HW190305   8.417   6.429  11.920 -1.0321 -0.8053 -0.9969
61085SOL    HW290306   8.391   6.431  12.069  0.1701  0.5809 -0.7813
61086SOL     OW90307   9.924  11.520   1.442  0.2701 -0.0107  0.1115
61086SOL    HW190308   9.836  11.482   1.453  0.7621 -1.3066 -0.2166
61086SOL    HW290309   9.929  11.542   1.349  1.1155 -2.1789 -0.4069
61087SOL     OW90310   5.555   6.059   7.983  0.1118  0.4073 -0.1773
61087SOL    HW190311   5.590   5.986   7.932 -0.4156  1.8605 -2.8099
61087SOL    HW290312   5.487   6.097   7.927  0.5178  3.0727  0.9661
61088SOL     OW90313   8.041   6.136   0.906 -0.1880 -0.4112 -0.0348
61088SOL    HW190314   8.008   6.074   0.841  0.8266  0.4407 -1.4153
61088SOL    HW290315   8.120   6.094   0.941  1.0299  0.4042 -1.6317
61089SOL     OW90316   9.994   5.182   1.918  0.1543  0.5949  0.5586
61089SOL    HW190317  10.064   5.153   1.975 -0.1753  2.9652  2.3591
61089SOL    HW290318   9.914   5.157   1.964 -0.3115 -2.3709 -1.6228
61090SOL     OW90319   7.426   2.896   9.406 -0.1080  0.0291  0.4389
61090SOL    HW190320   7.370   2.855   9.472 -1.1542  1.8391  0.7719
61090SOL    HW290321   7.365   2.947   9.353  0.7863 -0.9052 -1.5925
61091SOL     OW90322  11.530  11.631   9.982  0.1702  0.4927  0.3335
61091SOL    HW190323  11.595  11.594  10.042  0.0392 -1.3215 -0.5802
61091SOL    HW290324  11.504  11.714  10.023  2.5707  0.9848  1.0473
61092SOL     OW90325   9.670   6.617   1.132  0.6514  0.0393 -0.2881
61092SOL    HW190326   9.748   6.570   1.104  2.1365  1.9328  0.4538
61092SOL    HW290327   9.666   6.694   1.076 -0.6575  0.0091 -0.2666
61093SOL     OW90328  11.703  10.591   9.951 -0.1208  0.1124 -0.1114
61093SOL    HW190329  11.672  10.532  10.021  1.0224  0.1779  0.4777
61093SOL    HW290330  11.724  10.533   9.879 -1.5585  0.0632 -0.5324
61094SOL     OW90331   3.401   3.419   5.681  0.1205 -0.7639 -0.1785
61094SOL    HW190332   3.312   3.393   5.656  0.6500 -0.8797 -2.1417
61094SOL    HW290333   3.395   3.513   5.697 -0.1868 -0.5721 -1.3066
61095SOL     OW90334   4.746  10.159   8.618  0.1490  0.4448 -0.3343
61095SOL    HW190335   4.831  10.176   8.658 -0.3914  0.1785  0.9668
61095SOL    HW290336   4.690  10.230   8.650 -0.9770 -1.2166  1.5738
61096SOL     OW90337  11.919   5.534   8.677  0.8106 -0.3223  0.0480
61096SOL    HW190338  11.914   5.460   8.738  0.4197  0.6523  1.2465
61096SOL    HW290339  11.979   5.505   8.608  0.1685 -1.9749  0.1561
61097SOL     OW90340  10.721   8.065   5.905 -0.0295  0.6488  0.1723
61097SOL    HW190341  10.671   7.998   5.858 -0.0627  0.8589 -0.0945
61097SOL    HW290342  10.770   8.016   5.971 -1.7456  0.5852  1.4633
61098SOL     OW90343   9.311  10.400   9.591 -0.3767 -0.5285 -0.1010
61098SOL    HW190344   9.276  10.450   9.517 -2.2708  0.2773  1.2790
61098SOL    HW290345   9.253  10.325   9.599 -0.4885 -0.3407  0.8730
61099SOL     OW90346  11.526   1.339   8.767 -0.3654  0.1156  0.5571
61099SOL    HW190347  11.526   1.288   8.848  0.2910  0.6884  0.9320
61099SOL    HW290348  11.603   1.310   8.720 -2.4267 -2.5891 -1.4565
61100SOL     OW90349   9.128   7.652  10.064 -0.5574  0.9684 -0.1088
61100SOL    HW190350   9.048   7.704  10.075 -1.1492  0.1592 -0.5223
61100SOL    HW290351   9.196   7.718  10.046 -1.2043  1.6390 -0.1812
61101SOL     OW90352  10.053   0.942   3.302  0.1094  0.4599 -0.0329
61101SOL    HW190353  10.025   1.031   3.281 -2.2027 -0.3866 -0.9434
61101SOL    HW290354   9.978   0.903   3.346  0.7316 -1.2982 -0.4380
61102SOL     OW90355  12.489   3.007   6.277  0.5773 -0.2605  0.2854
61102SOL    HW190356  12.463   3.086   6.230  0.8616  0.1268  0.7710
61102SOL    HW290357  12.498   2.940   6.209 -1.7321 -0.4423  0.0926
61103SOL     OW90358   7.099   5.522   3.086  0.3757  0.3528 -0.2447
61103SOL    HW190359   7.006   5.504   3.074  0.5673  0.5787 -2.4648
61103SOL    HW290360   7.101   5.597   3.145 -0.7545 -0.5894  1.0821
61104SOL     OW90361  11.303   0.473   7.186 -0.0533  0.1889  0.2255
61104SOL    HW190362  11.315   0.475   7.281  1.3481  1.1608  0.0685
61104SOL    HW290363  11.263   0.388   7.168 -2.0242  0.7111  1.8307
61105SOL     OW90364   3.066   1.040   9.507 -0.5492 -0.0654  0.2266
61105SOL    HW190365   3.095   1.041   9.598 -0.8383  0.3880  0.3149
61105SOL    HW290366   3.147   1.045   9.456 -0.4757  1.6726  0.4675
61106SOL     OW90367   3.681   1.553   7.498  0.0180  0.2736 -0.0726
61106SOL    HW190368   3.607   1.492   7.496 -0.9130  1.3845 -1.0559
61106SOL    HW290369   3.678   1.591   7.586  0.4895 -0.8983  0.4845
61107SOL     OW90370  10.669   8.823   8.793 -0.1664 -0.0739  0.5478
61107SOL    HW190371  10.682   8.918   8.799  0.8008 -0.1940  0.5970
61107SOL    HW290372  10.726   8.788   8.862 -0.8777 -0.6677  0.8435
61108SOL     OW90373   5.755  11.974  10.797  0.0826 -0.0792 -0.1258
61108SOL    HW190374   5.761  11.944  10.706 -0.4176  0.7669 -0.4506
61108SOL    HW290375   5.760  11.894  10.849  2.0838 -0.4443 -0.8021
61109SOL     OW90376  11.442   0.951   1.560 -0.5095 -0.0027  0.4876
61109SOL    HW190377  11.474   1.035   1.526 -0.1196  1.0558  3.2033
61109SOL    HW290378  11.473   0.949   1.651 -0.8256 -2.9581  0.6150
61110SOL     OW90379   2.236   1.943   2.463  0.2869  0.2428 -0.1690
61110SOL    HW190380   2.243   1.856   2.502  0.0600  0.1036 -0.4409
61110SOL    HW290381   2.317   1.987   2.489  0.1088  0.1777  0.5262
61111SOL     OW90382   8.022   4.151   1.393 -0.0289  0.2108 -0.4057
61111SOL    HW190383   8.057   4.234   1.361  0.1060  0.1531 -0.4072
61111SOL    HW290384   8.023   4.160   1.489 -1.4897  0.8268 -0.4198
61112SOL     OW90385  10.721   2.653   6.414  0.1250  0.4393  0.0656
61112SOL    HW190386  10.667   2.720   6.456 -1.2367 -1.0603  0.8219
61112SOL    HW290387  10.809   2.689   6.414 -0.7138  2.6233 -0.4367
61113SOL     OW90388   9.266  12.235   9.836  0.4690 -0.4437  0.3654
61113SOL    HW190389   9.229  12.213   9.750 -0.0910 -1.7460  0.9242
61113SOL    HW290390   9.335  12.171   9.849 -1.6975 -2.5425  2.3670
61114SOL     OW90391  11.479  11.632  10.680 -0.7326  0.2361 -0.5197
61114SOL    HW190392  11.524  11.710  10.649 -0.3256 -0.0981 -0.7867
61114SOL    HW290393  11.464  11.647  10.773  1.8177 -0.5198  0.0930
61115SOL     OW90394   8.399   4.670   8.462 -0.0205 -0.3217 -0.5378
61115SOL    HW190395   8.491   4.653   8.482 -0.3325  0.6393  2.1652
61115SOL    HW290396   8.357   4.681   8.548 -2.4158  0.5256 -1.7066
61116SOL     OW90397  10.609  11.883  12.077 -0.0754  0.0011  0.0075
61116SOL    HW190398  10.589  11.824  12.004  0.2921 -0.3058  0.1534
61116SOL    HW290399  10.533  11.941  12.082 -0.4487 -0.4746 -0.1222
61117SOL     OW90400   9.435   8.747   2.565 -0.1801 -0.5389  0.2124
61117SOL    HW190401   9.507   8.772   2.622 -1.0266  1.2160  0.5798
61117SOL    HW290402   9.408   8.661   2.597 -0.2443  0.1378  2.0985
61118SOL     OW90403   2.934  11.812   2.764  0.3665 -0.1868  0.8030
61118SOL    HW190404   3.027  11.834   2.770  0.6520 -0.7717 -0.8863
61118SOL    HW290405   2.889  11.882   2.811  1.5743  0.9830  0.2662
61119SOL     OW90406  12.027  12.347   1.243 -0.1472  0.4923 -0.5051
61119SOL    HW190407  12.104  12.310   1.199  2.0254  2.5533  1.3017
61119SOL    HW290408  12.010  12.428   1.196 -1.3469 -0.0101 -0.9642
61120SOL     OW90409  11.390   0.179   4.431  0.6729 -0.5132  0.3040
61120SOL    HW190410  11.326   0.115   4.463 -0.3803 -0.0662 -0.8129
61120SOL    HW290411  11.413   0.231   4.509 -1.5238  0.3129  0.4783
61121SOL     OW90412   8.900   5.029  11.632 -0.2411 -0.0854 -0.2532
61121SOL    HW190413   8.814   4.996  11.606 -0.7700  1.7640 -1.0071
61121SOL    HW290414   8.889   5.057  11.723 -0.1897 -0.6628 -0.0704
61122SOL     OW90415   6.800   9.877   5.930 -0.0799  0.2507 -0.3556
61122SOL    HW190416   6.723   9.924   5.963  0.2011  0.3616  0.1457
61122SOL    HW290417   6.799   9.893   5.836 -1.0498 -0.3018 -0.4603
61123SOL     OW90418   4.557   7.676  12.284 -0.1652  0.0253 -0.1061
61123SOL    HW190419   4.468   7.708  12.297  0.4810  3.0234 -2.0854
61123SOL    HW290420   4.557   7.639  12.196  0.1063 -1.9759  0.6774
61124SOL     OW90421   0.144   0.026   6.086 -0.5305 -0.1803 -0.7750
61124SOL    HW190422   0.175  -0.051   6.135 -2.1730 -1.1604 -1.1743
61124SOL    HW290423   0.065   0.053   6.132  1.2289  2.7961  0.7507
61125SOL     OW90424   7.418   2.822   4.346  0.3107  0.2725  0.4724
61125SOL    HW190425   7.400   2.807   4.253  1.0031 -1.2801  0.5569
61125SOL    HW290426   7.452   2.911   4.350 -0.7915  0.7700 -0.6008
61126SOL     OW90427   7.809   4.493  11.760  0.3010  0.4692  0.3265
61126SOL    HW190428   7.850   4.423  11.709  2.0425  1.1430  0.7177
61126SOL    HW290429   7.726   4.457  11.789  1.5285 -1.7993  1.2775
61127SOL     OW90430   3.509   9.659  10.337 -0.2145 -0.0875 -0.1055
61127SOL    HW190431   3.471   9.625  10.256 -3.0331 -0.5262  1.2896
61127SOL    HW290432   3.502   9.754  10.328  0.2638 -0.0956 -0.6809
61128SOL     OW90433  12.213   7.232   6.285 -0.0797 -0.2136  0.1456
61128SOL    HW190434  12.276   7.293   6.246 -2.1751  3.0787  1.5096
61128SOL    HW290435  12.155   7.209   6.213 -0.5898  1.2748  0.0521
61129SOL     OW90436  10.907   0.230   9.762  0.3542 -0.1726 -0.5478
61129SOL    HW190437  10.966   0.261   9.830  0.5972 -0.4647 -0.6250
61129SOL    HW290438  10.863   0.309   9.730  1.7847  0.2591 -1.5221
61130SOL     OW90439   9.478  11.724  11.484 -0.0535 -0.2925  0.0725
61130SOL    HW190440   9.534  11.795  11.517  0.9042 -0.3778 -1.2607
61130SOL    HW290441   9.464  11.667  11.560  0.2304  0.6602  0.8556
61131SOL     OW90442   3.977   9.198   6.926 -0.1676  0.3454 -0.1627
61131SOL    HW190443   3.983   9.141   6.849 -1.3295  1.7914 -1.4013
61131SOL    HW290444   3.936   9.278   6.893  1.0301  1.7516  1.5969
61132SOL     OW90445   4.591   0.214   3.796 -0.0318 -0.1634  0.2596
61132SOL    HW190446   4.652   0.278   3.761  0.1037 -0.4000  0.0565
61132SOL    HW290447   4.568   0.247   3.883  0.5268 -0.1639  0.4103
61133SOL     OW90448  12.333   4.042   9.775  0.1071 -1.0767 -0.7196
61133SOL    HW190449  12.305   4.023   9.864  0.1289 -0.7835 -0.6468
61133SOL    HW290450  12.370   3.960   9.742  1.7671 -0.7242  0.1629
61134SOL     OW90451  10.569   3.787   3.284  0.2189 -0.1531 -0.1270
61134SOL    HW190452  10.514   3.865   3.285 -0.2054 -0.4495  0.4102
61134SOL    HW290453  10.659   3.820   3.288  0.1126  0.3547 -1.5200
61135SOL     OW90454   7.975   2.311   5.179 -0.1303 -0.0846  0.2390
61135SOL    HW190455   7.920   2.261   5.239  0.3835 -0.7265  0.1897
61135SOL    HW290456   7.926   2.312   5.097 -0.9868  1.0758  0.7375
61136SOL     OW90457   6.607  10.667   5.571 -0.3631 -1.1664 -0.3252
61136SOL    HW190458   6.679  10.699   5.625 -0.7011 -1.5535  0.3641
61136SOL    HW290459   6.649  10.636   5.490  0.0497  0.2433 -0.6718
61137SOL     OW90460   6.828  11.905   0.455 -0.1436 -0.0441 -0.0105
61137SOL    HW190461   6.873  11.830   0.495  2.4116  0.9882 -0.7378
61137SOL    HW290462   6.838  11.891   0.360  0.6211  1.2948 -0.1576
61138SOL     OW90463   9.256   5.133   2.925  0.4963  0.7576 -0.4090
61138SOL    HW190464   9.237   5.082   2.847  0.6441  1.9853 -1.2777
61138SOL    HW290465   9.349   5.155   2.918  0.0723  2.5514 -0.9496
61139SOL     OW90466   2.296  11.203   6.293 -0.4801  0.2891  0.0033
61139SOL    HW190467   2.368  11.210   6.231  1.6447 -1.5402  2.1007
61139SOL    HW290468   2.298  11.286   6.342  0.7693 -0.0693  0.5837
61140SOL     OW90469   4.555   1.218   8.821  0.0494  0.0364 -0.5332
61140SOL    HW190470   4.592   1.274   8.753 -0.9214  0.5859 -0.6308
61140SOL    HW290471   4.612   1.232   8.897 -0.6446  1.8315 -0.2903
61141SOL     OW90472  11.535  11.708   2.869  0.5840 -0.1341  0.6630
61141SOL    HW190473  11.557  11.783   2.924  2.2084 -0.2239  0.1875
61141SOL    HW290474  11.587  11.636   2.905 -2.3080 -1.6092  2.2945
61142SOL     OW90475   7.333  11.517   8.412  0.4538 -0.1739  0.3842
61142SOL    HW190476   7.418  11.473   8.409  0.6786  0.2928 -0.5450
61142SOL    HW290477   7.354  11.610   8.412 -0.0671 -0.0382 -0.9396
61143SOL     OW90478   6.585  12.251   4.294  0.2643  0.1227 -0.4415
61143SOL    HW190479   6.627  12.332   4.267 -1.4114  1.1794 -0.0616
61143SOL    HW290480   6.496  12.277   4.317 -0.4204 -1.8787 -0.5953
61144SOL     OW90481   2.745   1.045   5.933  0.0754  0.1397 -0.5750
61144SOL    HW190482   2.754   1.138   5.953  1.7941  0.2183 -1.5686
61144SOL    HW290483   2.658   1.022   5.967 -0.2761  2.0249 -0.0753
61145SOL     OW90484   4.611   6.497   7.179 -0.1288  0.4758 -0.1496
61145SOL    HW190485   4.586   6.545   7.100  0.3945 -0.1381 -0.7029
61145SOL    HW290486   4.702   6.522   7.195 -0.4323  1.1060  0.6538
61146SOL     OW90487   5.776   6.065   1.709 -0.1935 -0.1908 -0.3232
61146SOL    HW190488   5.728   5.984   1.731 -0.2336  0.1308  0.8302
61146SOL    HW290489   5.707   6.129   1.690 -0.1592 -0.4785 -1.5060
61147SOL     OW90490   6.069  11.068   5.909  0.2068  0.6232 -0.4634
61147SOL    HW190491   6.144  11.016   5.880 -1.2946 -0.2212 -3.1851
61147SOL    HW290492   6.074  11.148   5.857  0.7628  1.9284  1.4696
61148SOL     OW90493  11.815   9.559   7.421 -0.5882 -0.0591  0.0557
61148SOL    HW190494  11.867   9.499   7.474 -1.4718 -0.2472  0.7341
61148SOL    HW290495  11.724   9.538   7.443 -1.1089 -1.4107 -2.8698
61149SOL     OW90496   6.658   8.933   3.781  0.6799  0.4182 -0.6891
61149SOL    HW190497   6.753   8.921   3.775  0.9485  0.9061  1.7912
61149SOL    HW290498   6.647   9.004   3.844 -1.3602  0.3103 -0.8737
61150SOL     OW90499   2.216   4.284   7.955 -0.2597  0.1649  0.9237
61150SOL    HW190500   2.230   4.197   7.991 -1.1815  0.3271  1.7136
61150SOL    HW290501   2.219   4.342   8.031 -0.9784  0.6629  0.5867
61151SOL     OW90502  10.406   6.457  12.046 -0.2609  0.0760 -0.2178
61151SOL    HW190503  10.500   6.470  12.052 -0.4125  2.8028 -1.8948
61151SOL    HW290504  10.374   6.469  12.136  0.9137 -0.2226  0.2527
61152SOL     OW90505  11.056   8.711   6.408 -0.5469  0.1068 -0.0407
61152SOL    HW190506  11.073   8.650   6.479  3.1449 -0.7742 -1.4924
61152SOL    HW290507  10.992   8.773   6.444  0.4818 -0.8060  3.6863
61153SOL     OW90508   9.431   8.489   6.045 -0.0247 -0.4880 -0.3294
61153SOL    HW190509   9.395   8.563   6.095  0.0966 -0.6855  0.0531
61153SOL    HW290510   9.474   8.434   6.111  1.7224  0.1670 -0.8799
61154SOL     OW90511   7.952   0.851   3.089  0.2010  0.2718  0.1277
61154SOL    HW190512   7.924   0.760   3.081  1.7054 -0.1952 -0.1414
61154SOL    HW290513   7.927   0.892   3.005 -0.7098  0.1977  0.3505
61155SOL     OW90514   0.606  11.233  12.471  0.5933 -0.2386  0.3385
61155SOL    HW190515   0.660  11.156  12.483  0.0330 -0.7787 -0.4550
61155SOL    HW290516   0.649  11.282  12.400 -0.1487 -0.8747 -0.5764
61156SOL     OW90517   4.407   6.494   1.505 -0.0502 -0.5330  0.6297
61156SOL    HW190518   4.347   6.422   1.524  0.3301 -0.7392  1.0685
61156SOL    HW290519   4.418   6.491   1.410 -1.7576  0.3327  0.3663
61157SOL     OW90520   6.171   7.684   3.650 -0.4034 -0.6418 -0.1516
61157SOL    HW190521   6.103   7.752   3.658 -0.4844 -0.5759 -1.1768
61157SOL    HW290522   6.252   7.733   3.637  0.5068 -0.5744  4.1854
61158SOL     OW90523   3.927   2.393   9.140 -0.0733 -0.1749 -0.0039
61158SOL    HW190524   3.911   2.486   9.121 -1.4916 -0.1554  1.0691
61158SOL    HW290525   3.878   2.378   9.221  1.1421 -1.5707  0.4882
61159SOL     OW90526  12.063   7.950   0.606  0.4571  0.0384  0.0678
61159SOL    HW190527  12.089   7.902   0.527 -1.2770 -1.4037  0.3136
61159SOL    HW290528  12.010   8.023   0.574 -1.8499 -1.6007 -0.1231
61160SOL     OW90529   6.469   4.711   8.269  0.1367 -0.9171  0.4439
61160SOL    HW190530   6.522   4.775   8.222  0.8877 -1.7146  0.1894
61160SOL    HW290531   6.392   4.699   8.214  0.5549 -1.1177 -0.1051
61161SOL     OW90532   4.846   9.553   5.824  0.2411  0.4393 -0.1456
61161SOL    HW190533   4.839   9.588   5.735  1.0597 -2.5028 -1.4814
61161SOL    HW290534   4.940   9.534   5.835 -0.4040 -4.2737 -0.9034
61162SOL     OW90535   7.056   2.407   1.829 -0.1677 -0.0824  0.3729
61162SOL    HW190536   6.989   2.474   1.845 -1.5702 -1.1500 -0.7159
61162SOL    HW290537   7.124   2.425   1.893 -1.3923  1.2055  1.3747
61163SOL     OW90538   8.150   4.706   0.287 -0.2247  0.5106  0.0345
61163SOL    HW190539   8.243   4.691   0.307 -0.5178 -1.5761  0.0859
61163SOL    HW290540   8.104   4.657   0.355 -1.3901  1.5472  0.0172
61164SOL     OW90541   0.466   0.437   6.959 -0.4165 -0.4589  0.1715
61164SOL    HW190542   0.429   0.350   6.951  0.7228 -0.8505 -1.5208
61164SOL    HW290543   0.523   0.433   7.036  2.1091 -2.2748 -1.6212
61165SOL     OW90544  11.275   3.795   3.731  0.0274  0.1906 -0.1396
61165SOL    HW190545  11.227   3.746   3.798 -0.3222 -1.1626 -1.3264
61165SOL    HW290546  11.280   3.884   3.766 -1.8206 -0.0210  0.8151
61166SOL     OW90547   2.140   5.912   7.526  0.3205  0.0422  0.2517
61166SOL    HW190548   2.161   5.826   7.490 -2.6855 -1.6221  2.0849
61166SOL    HW290549   2.139   5.971   7.450  1.4930 -1.6860 -1.1760
61167SOL     OW90550   0.332   6.866  11.633 -0.2360 -0.0163 -0.2906
61167SOL    HW190551   0.299   6.887  11.546  0.4928  1.6358 -0.2095
61167SOL    HW290552   0.427   6.854  11.621 -0.5194 -3.0274 -0.2444
61168SOL     OW90553  10.357   0.329   4.936 -0.4498 -0.0059 -0.3010
61168SOL    HW190554  10.437   0.360   4.893 -0.8841  0.1296 -1.0411
61168SOL    HW290555  10.318   0.269   4.872 -2.5650  2.3340 -1.3620
61169SOL     OW90556   7.188   1.855   9.286  0.2554  0.2727 -0.1550
61169SOL    HW190557   7.259   1.909   9.318  0.7006 -0.0633 -0.5579
61169SOL    HW290558   7.194   1.860   9.191 -0.9403  1.1214 -0.2082
61170SOL     OW90559   5.963   3.082  11.366  0.1971 -0.0961  0.0216
61170SOL    HW190560   5.993   2.992  11.366 -0.3803 -0.3517  2.3168
61170SOL    HW290561   5.900   3.086  11.293  0.2306 -1.5397 -0.1172
61171SOL     OW90562   8.155   6.981  11.862 -0.3956 -0.0160  0.3025
61171SOL    HW190563   8.163   6.894  11.902 -1.9015 -0.9042 -1.1830
61171SOL    HW290564   8.071   6.978  11.816  0.1378  1.7854 -0.8841
61172SOL     OW90565   3.539   9.530   4.668 -0.3357  0.1499 -0.2321
61172SOL    HW190566   3.514   9.528   4.575 -1.1618 -0.4164 -0.0079
61172SOL    HW290567   3.596   9.455   4.679 -1.9902 -1.1066  0.1734
61173SOL     OW90568  10.720   7.169   7.929 -0.3049 -0.0048  0.0352
61173SOL    HW190569  10.712   7.202   8.019 -0.5122  1.8004 -0.6162
61173SOL    HW290570  10.630   7.168   7.896  0.0501  3.0552 -1.3645
61174SOL     OW90571   1.168   2.655   6.725 -0.7649 -0.3092  0.1395
61174SOL    HW190572   1.184   2.648   6.631  0.0179 -0.5971  0.2818
61174SOL    HW290573   1.160   2.565   6.755 -0.5182 -0.2403  0.4234
61175SOL     OW90574   6.305  11.271  12.591  0.3536 -0.1066  0.5262
61175SOL    HW190575   6.248  11.213  12.641  0.0352 -1.1211 -0.9457
61175SOL    HW290576   6.330  11.220  12.514  0.4190  1.5533 -0.6003
61176SOL     OW90577   6.920   4.402   6.138  0.4358  0.7254  0.2210
61176SOL    HW190578   6.958   4.461   6.073 -0.6624  2.4407  1.0572
61176SOL    HW290579   6.975   4.412   6.215  0.2525  0.6639  0.3616
61177SOL     OW90580   4.917   3.322   5.067 -1.0026 -0.1151  0.2336
61177SOL    HW190581   5.011   3.325   5.087 -1.0394  0.6736  0.3256
61177SOL    HW290582   4.911   3.350   4.976 -1.1352 -0.3791  0.1594
61178SOL     OW90583  11.651  11.471   8.564 -0.5344 -0.7314 -0.2842
61178SOL    HW190584  11.741  11.500   8.551 -0.8499  0.3329 -0.1801
61178SOL    HW290585  11.637  11.405   8.495  0.1144 -0.4460 -0.6992
61179SOL     OW90586   0.420  10.723   8.973 -0.4627  0.2734 -0.6422
61179SOL    HW190587   0.468  10.642   8.989 -0.5837  0.5741  1.6128
61179SOL    HW290588   0.336  10.711   9.017 -1.0138  1.1237 -1.4238
61180SOL     OW90589   0.336   0.093   4.005  0.1169 -0.0200  0.5918
61180SOL    HW190590   0.347   0.020   3.945 -0.1326  0.9398 -0.6763
61180SOL    HW290591   0.421   0.137   4.005  0.1781 -0.1317  1.1162
61181SOL     OW90592   1.468   3.840   3.508  0.0485 -0.0416 -0.1239
61181SOL    HW190593   1.497   3.749   3.500  0.6053 -0.1960  2.6886
61181SOL    HW290594   1.392   3.846   3.449  1.6084 -1.5105 -2.4371
61182SOL     OW90595   5.989   8.280   0.248 -0.1479 -0.0575 -0.3644
61182SOL    HW190596   6.003   8.187   0.230 -1.0869 -0.1455 -0.7022
61182SOL    HW290597   5.894   8.291   0.246 -0.0332  1.0160 -0.8755
61183SOL     OW90598   9.992   4.093   9.064  0.4858  0.4573 -0.2311
61183SOL    HW190599  10.046   4.110   9.141  2.5231 -0.4434 -1.3754
61183SOL    HW290600  10.003   4.170   9.009  3.0426 -0.8852 -1.7447
61184SOL     OW90601   8.292   7.344   5.746  0.2141  0.0831 -0.5435
61184SOL    HW190602   8.216   7.359   5.690  0.4551 -1.2553 -1.2793
61184SOL    HW290603   8.357   7.408   5.716 -0.7824  1.6542  0.4997
61185SOL     OW90604   8.627   9.323  10.506  0.2400  0.6195  0.0150
61185SOL    HW190605   8.535   9.320  10.532  0.0211  1.2904 -0.6502
61185SOL    HW290606   8.655   9.231  10.506 -0.5219  0.3820 -0.0965
61186SOL     OW90607  10.858   4.844   3.007  0.4853  0.0903  0.0799
61186SOL    HW190608  10.768   4.825   3.035  0.9509 -0.0923  1.5103
61186SOL    HW290609  10.892   4.760   2.976 -0.1257  0.3513 -1.3875
61187SOL     OW90610   5.506   1.350   7.030 -0.2485  0.1538  0.2532
61187SOL    HW190611   5.493   1.335   6.937 -0.6186 -2.6204  0.6821
61187SOL    HW290612   5.590   1.395   7.036 -0.8970  1.7278 -1.4445
61188SOL     OW90613   4.130   7.961  10.873  0.3692 -0.3321 -0.1608
61188SOL    HW190614   4.204   8.021  10.870  0.4213 -0.3104  1.0341
61188SOL    HW290615   4.160   7.890  10.930 -0.5801 -0.2540  0.4404
61189SOL     OW90616   1.826   9.702   7.880 -0.2283  0.1291 -0.5744
61189SOL    HW190617   1.741   9.658   7.887 -1.4259  2.1337 -1.5646
61189SOL    HW290618   1.845   9.731   7.969  0.3409 -1.8439 -0.0033
61190SOL     OW90619  11.780   7.681   8.194  0.4123 -0.2750  0.1193
61190SOL    HW190620  11.741   7.724   8.271  0.1767 -1.9136  0.9466
61190SOL    HW290621  11.704   7.651   8.144  0.5296 -2.6506  1.2612
61191SOL     OW90622   6.829   8.345   4.639 -0.2926  0.6733  0.2969
61191SOL    HW190623   6.765   8.307   4.578  0.0736 -0.3267  0.5272
61191SOL    HW290624   6.875   8.410   4.586  1.8080 -1.9474 -1.3706
61192SOL     OW90625  12.492   1.653   9.220 -0.0425  0.0371 -0.3359
61192SOL    HW190626  12.488   1.687   9.131 -0.1127  0.6404 -0.1133
61192SOL    HW290627  12.516   1.561   9.211  1.8913  0.5372 -0.9098
61193SOL     OW90628  10.127   1.766   6.515  0.3141  0.8080 -0.3733
61193SOL    HW190629  10.177   1.840   6.550 -1.4091  1.6667  0.3913
61193SOL    HW290630  10.114   1.787   6.422  2.1930  0.0608 -0.8536
61194SOL     OW90631  11.944   3.410   5.094 -0.2941 -0.1555 -0.1144
61194SOL    HW190632  11.883   3.448   5.157 -1.1429 -0.5369 -0.7030
61194SOL    HW290633  11.988   3.486   5.056 -0.8935  0.1589 -0.1853
61195SOL     OW90634  10.818   5.390   8.515 -0.0794  0.9284  0.3184
61195SOL    HW190635  10.847   5.475   8.482 -0.4623  0.7269 -0.5537
61195SOL    HW290636  10.878   5.327   8.475  1.4590  0.9158  2.4917
61196SOL     OW90637   7.629   4.297   5.874  0.3511 -0.1018 -0.1530
61196SOL    HW190638   7.722   4.294   5.898  0.0650 -3.1235  0.9805
61196SOL    HW290639   7.629   4.304   5.778  1.8348 -2.3332 -0.3805
61197SOL     OW90640   7.161   2.788   3.886  0.7237 -0.0423 -0.5528
61197SOL    HW190641   7.231   2.756   3.829 -0.6022 -0.3375 -2.0908
61197SOL    HW290642   7.095   2.823   3.826 -0.7702 -0.4119  0.8031
61198SOL     OW90643   6.246   6.684   1.349 -0.6580 -0.0646  0.0611
61198SOL    HW190644   6.318   6.630   1.381  0.1522  0.2869 -1.1064
61198SOL    HW290645   6.226   6.744   1.421 -0.2960 -0.6553  0.6603
61199SOL     OW90646   0.645   3.267   3.834  0.4813  0.1898 -0.3622
61199SOL    HW190647   0.552   3.280   3.817 -0.0306  2.6271  3.2084
61199SOL    HW290648   0.650   3.184   3.881  0.0288  0.4191  0.0874
61200SOL     OW90649   3.792   3.519   8.044 -0.2690  0.1072 -0.0121
61200SOL    HW190650   3.749   3.546   7.963  1.2075 -0.3181 -0.9737
61200SOL    HW290651   3.856   3.589   8.062  0.2522 -0.3859  0.1032
61201SOL     OW90652   0.632   1.703   2.916 -0.0295 -0.1480  0.2503
61201SOL    HW190653   0.695   1.671   2.852  0.3816 -0.3254  0.7345
61201SOL    HW290654   0.617   1.794   2.892 -1.1584 -0.6567 -1.1009
61202SOL     OW90655   2.337   5.271  10.324  0.1732 -0.0355  0.3392
61202SOL    HW190656   2.399   5.199  10.316  0.0198 -0.1474  0.1842
61202SOL    HW290657   2.251   5.230  10.324 -0.0239  0.2892 -1.8158
61203SOL     OW90658   0.535   6.317  10.900  0.3747 -0.6745  0.1589
61203SOL    HW190659   0.555   6.303  10.992 -1.4295 -0.2869  0.6622
61203SOL    HW290660   0.519   6.411  10.893  0.2547 -0.7343 -0.4989
61204SOL     OW90661   5.226  12.170  12.048 -0.9059 -0.9264 -0.4396
61204SOL    HW190662   5.298  12.226  12.078  0.2649 -1.9704 -1.2387
61204SOL    HW290663   5.260  12.127  11.970 -1.3157 -3.7098  0.8200
61205SOL     OW90664   7.138   8.852  11.976  0.1718 -0.7606  0.3793
61205SOL    HW190665   7.048   8.838  11.946  0.7854  0.4590 -2.3581
61205SOL    HW290666   7.137   8.939  12.015  0.0953 -0.8650  0.6079
61206SOL     OW90667   2.672   3.089   7.891 -0.2394 -0.1406  0.2140
61206SOL    HW190668   2.671   3.035   7.970 -0.2318 -1.0846 -0.4079
61206SOL    HW290669   2.613   3.044   7.831  1.2632 -0.5659 -1.0248
61207SOL     OW90670  10.306   2.190   2.926 -0.6852 -0.2557  0.0014
61207SOL    HW190671  10.341   2.104   2.951 -1.7543 -0.4700  0.8349
61207SOL    HW290672  10.383   2.239   2.897  0.3085 -0.7949  1.5550
61208SOL     OW90673   8.537   1.496   1.658  0.5969 -0.0376  0.2839
61208SOL    HW190674   8.551   1.491   1.564  2.2531 -0.0805  0.4936
61208SOL    HW290675   8.615   1.541   1.691  0.6789 -1.1775  1.7578
61209SOL     OW90676   7.280  12.273   6.805 -0.4761 -0.0649  0.2204
61209SOL    HW190677   7.200  12.243   6.761 -0.3642 -1.1685  0.7265
61209SOL    HW290678   7.296  12.207   6.872  1.2029 -0.2115 -0.2857
61210SOL     OW90679   3.807  12.385   8.597 -0.4831  0.4217  0.1451
61210SOL    HW190680   3.760  12.327   8.536  0.1878  0.0434 -0.0282
61210SOL    HW290681   3.900  12.366   8.580  0.0492  4.2619 -2.6850
61211SOL     OW90682  12.053   7.326  11.548 -0.1381 -0.1922  0.6179
61211SOL    HW190683  12.074   7.283  11.631 -0.8166  0.6350  1.2350
61211SOL    HW290684  11.976   7.380  11.568 -0.0234  0.3771 -0.4289
61212SOL     OW90685   8.505   8.422   5.236 -0.2460  0.0147  0.1613
61212SOL    HW190686   8.558   8.494   5.268  0.3488 -0.9623  1.4721
61212SOL    HW290687   8.562   8.377   5.173 -0.3441  0.2665 -0.1057
61213SOL     OW90688   4.016   1.936  12.072  0.0426 -0.6453 -0.0566
61213SOL    HW190689   4.055   1.861  12.116  0.4628 -1.6966 -2.0919
61213SOL    HW290690   4.090   1.994  12.051 -0.2452  0.2360  1.2488
61214SOL     OW90691   1.854   3.985   1.726 -0.2672  0.1492 -0.4166
61214SOL    HW190692   1.894   3.944   1.803 -1.4501  1.2670  0.8521
61214SOL    HW290693   1.878   4.077   1.733  1.0889 -0.0050 -2.4005
61215SOL     OW90694   4.699   0.518   3.784 -0.1234  0.0811 -0.0030
61215SOL    HW190695   4.621   0.513   3.839  0.4439 -0.7059  0.7679
61215SOL    HW290696   4.684   0.594   3.727 -0.7794  0.8615  1.1638
61216SOL     OW90697  10.177   9.579   4.286 -0.5784 -0.3531  0.1731
61216SOL    HW190698  10.222   9.593   4.202  0.7057 -1.3383  0.6574
61216SOL    HW290699  10.243   9.537   4.342 -1.2940  0.5757  1.7944
61217SOL     OW90700   5.827   5.311   3.118  0.3959 -0.0196 -0.5348
61217SOL    HW190701   5.737   5.295   3.091  0.6420  0.3188 -1.6272
61217SOL    HW290702   5.836   5.407   3.116  0.5708 -0.0097  0.2968
61218SOL     OW90703   5.830   8.495  12.409 -0.3723  0.1646  0.3342
61218SOL    HW190704   5.850   8.586  12.426 -0.8793  0.1304  1.1423
61218SOL    HW290705   5.900   8.446  12.452 -0.5977  0.1436  0.6792
61219SOL     OW90706  10.426   2.196   6.447  0.1704 -0.6574 -0.0642
61219SOL    HW190707  10.503   2.218   6.394  1.0325 -2.1762  0.4889
61219SOL    HW290708  10.462   2.149   6.522 -1.3850 -2.4298 -0.3660
61220SOL     OW90709   9.228   1.742   4.185 -0.1960  0.0307  0.5249
61220SOL    HW190710   9.304   1.798   4.199 -0.0599 -0.1644  0.5623
61220SOL    HW290711   9.210   1.750   4.092  0.2074 -0.3525  0.4098
61221SOL     OW90712  10.629   5.106  10.198  0.3388 -0.2320  0.3232
61221SOL    HW190713  10.597   5.053  10.271  1.8029 -0.7699  0.6275
61221SOL    HW290714  10.674   5.043  10.142  0.4742  0.4046 -0.2920
61222SOL     OW90715   1.694   6.813   0.464  1.0122  0.2319 -0.1455
61222SOL    HW190716   1.682   6.739   0.523 -0.6689 -1.7462 -2.7277
61222SOL    HW290717   1.737   6.776   0.387  0.7584  2.0944 -1.2604
61223SOL     OW90718   1.934   3.074   5.013  0.4536  0.0924 -0.3877
61223SOL    HW190719   1.893   3.062   4.928  0.3987 -1.0868 -0.2184
61223SOL    HW290720   1.934   2.986   5.052  0.5901  0.5931  0.7732
61224SOL     OW90721   3.772   9.365  12.378  0.1111 -0.3190 -0.5269
61224SOL    HW190722   3.682   9.397  12.372  0.3959  0.4189 -1.1245
61224SOL    HW290723   3.764   9.270  12.364 -0.4975 -0.1592 -1.3778
61225SOL     OW90724   6.091  11.305   1.074 -0.1470  0.0848  0.2992
61225SOL    HW190725   6.106  11.275   1.164  0.0916  2.1611  1.0144
61225SOL    HW290726   6.164  11.268   1.024 -0.3302 -1.1690  0.9275
61226SOL     OW90727   8.486   7.284   5.121 -0.5169 -0.4106  0.0214
61226SOL    HW190728   8.502   7.373   5.088 -2.2171  0.3246  1.0273
61226SOL    HW290729   8.531   7.281   5.205  0.0792 -0.7331 -0.3068
61227SOL     OW90730   0.833   9.978   4.790 -0.2188  0.1523  0.1813
61227SOL    HW190731   0.888   9.964   4.867 -0.9029  0.3971  0.7228
61227SOL    HW290732   0.872   9.922   4.723 -0.0694 -0.6772  0.9300
61228SOL     OW90733   9.265   6.686   9.338  0.2303 -0.1020 -0.1741
61228SOL    HW190734   9.261   6.764   9.282 -0.7291 -1.3176 -1.8548
61228SOL    HW290735   9.309   6.620   9.284  1.3135 -0.6714  1.3431
61229SOL     OW90736   4.600   3.961   8.956  0.4271  0.5041 -0.0034
61229SOL    HW190737   4.573   3.922   9.039  2.4503  0.4188  0.6528
61229SOL    HW290738   4.630   3.887   8.903 -3.2917  0.1403 -1.9595
61230SOL     OW90739   4.897   1.255   9.436  0.2819 -0.2714  0.0567
61230SOL    HW190740   4.848   1.173   9.428 -0.1588 -0.0197  0.1192
61230SOL    HW290741   4.929   1.255   9.527 -0.2185 -0.1008  0.2372
61231SOL     OW90742   3.771   6.147   7.944 -0.0501 -0.1176 -0.0767
61231SOL    HW190743   3.743   6.085   7.877  0.6097 -0.6838  0.1593
61231SOL    HW290744   3.804   6.222   7.895 -2.6109  0.9111 -0.3707
61232SOL     OW90745  12.009   4.823   3.529  0.2760  0.2367 -0.2397
61232SOL    HW190746  11.920   4.803   3.559 -0.6979  1.3698 -2.1641
61232SOL    HW290747  12.056   4.849   3.608 -1.6379  1.4012  0.5765
61233SOL     OW90748  10.073   5.963   5.508  0.0120 -0.0016 -0.2971
61233SOL    HW190749  10.150   5.948   5.562  0.8661  0.3977 -1.3585
61233SOL    HW290750  10.056   6.056   5.515  2.1516  0.7621 -3.1946
61234SOL     OW90751   9.913   6.917   6.121  0.2653 -0.2745 -0.0111
61234SOL    HW190752   9.997   6.949   6.087 -1.6315  2.2748 -2.9321
61234SOL    HW290753   9.911   6.825   6.097  2.0546 -0.2998 -0.2286
61235SOL     OW90754   4.256   6.025  10.778  0.1495 -0.3178  0.3330
61235SOL    HW190755   4.214   6.091  10.723  2.7922  1.0544 -0.2095
61235SOL    HW290756   4.346   6.021  10.746  0.5076 -3.0838  1.3992
61236SOL     OW90757   9.486  12.546  11.577  0.0612  0.3670  0.0189
61236SOL    HW190758   9.445  12.628  11.548 -2.0770 -0.3348  0.8655
61236SOL    HW290759   9.502  12.497  11.497 -1.9762  0.1412 -0.2843
61237SOL     OW90760   4.272  10.752  10.314  0.1762  0.3933  0.0578
61237SOL    HW190761   4.254  10.688  10.245 -0.8443  0.2193  0.4635
61237SOL    HW290762   4.186  10.772  10.351  0.4408  2.1602 -0.1820
61238SOL     OW90763   6.534   1.060   4.136  0.1162 -0.2192  0.1034
61238SOL    HW190764   6.566   1.106   4.059  0.6137 -0.5881  0.0820
61238SOL    HW290765   6.608   1.007   4.165 -0.1726 -0.3451  0.6348
61239SOL     OW90766   3.033   7.501   7.765  0.0573  0.6665  0.9315
61239SOL    HW190767   2.969   7.541   7.706 -0.3070 -0.5988  0.4487
61239SOL    HW290768   3.056   7.418   7.724  0.0056 -0.1246  2.4124
61240SOL     OW90769   9.223   3.771   8.051  0.2872  0.4204 -0.4748
61240SOL    HW190770   9.291   3.800   8.112  0.3724  1.7173 -1.1343
61240SOL    HW290771   9.180   3.698   8.094 -0.5016  2.0737  1.7028
61241SOL     OW90772  11.370   3.492   6.568  0.1119  0.1502  0.0025
61241SOL    HW190773  11.423   3.456   6.497  0.9040  0.2647  0.5216
61241SOL    HW290774  11.298   3.536   6.523 -0.0185 -0.7309 -0.6898
61242SOL     OW90775   0.190  10.050   0.823 -0.7245  0.0208 -1.0242
61242SOL    HW190776   0.174  10.070   0.731 -0.9837  0.6493 -0.8522
61242SOL    HW290777   0.285  10.055   0.833 -0.5169 -1.8560 -1.6400
61243SOL     OW90778   9.412   4.146  12.343  0.0887 -0.0252 -0.0118
61243SOL    HW190779   9.448   4.087  12.410  0.1615 -0.8910 -0.7969
61243SOL    HW290780   9.398   4.229  12.389  0.1715 -0.5938  1.0652
61244SOL     OW90781   8.165   6.313   8.038 -0.1604 -0.1374  0.0411
61244SOL    HW190782   8.240   6.371   8.051 -0.7285  0.8694 -1.0305
61244SOL    HW290783   8.199   6.242   7.983  0.8307 -1.5055  2.2740
61245SOL     OW90784   9.461   5.232  12.482 -0.4016 -0.1231 -0.5183
61245SOL    HW190785   9.455   5.235  12.577 -2.4677 -2.7616 -0.4446
61245SOL    HW290786   9.553   5.252  12.463  0.3773 -0.7885  2.1115
61246SOL     OW90787   6.424   7.409   7.473  0.6079 -0.1931  0.4029
61246SOL    HW190788   6.462   7.321   7.476  0.5886 -0.1696  1.7955
61246SOL    HW290789   6.372   7.415   7.553 -2.1556 -0.1321 -1.2796
61247SOL     OW90790  12.576   1.231  12.103 -0.0973  0.1387 -0.4220
61247SOL    HW190791  12.576   1.292  12.177  0.6696  1.6891 -1.6506
61247SOL    HW290792  12.526   1.155  12.135 -1.1625  1.4173  1.1294
61248SOL     OW90793   2.317   2.044   7.480  0.0423  0.0197 -0.1437
61248SOL    HW190794   2.241   2.100   7.497  0.5727  0.5471  0.5486
61248SOL    HW290795   2.315   2.029   7.385 -1.0206 -0.1215 -0.1082
61249SOL     OW90796   1.421   4.800  11.384  0.1488  0.1366  0.2283
61249SOL    HW190797   1.331   4.773  11.401  0.7066 -0.5593  2.3159
61249SOL    HW290798   1.473   4.720  11.395  0.8511 -0.1809 -3.7171
61250SOL     OW90799   9.421   5.515   5.332  0.1592 -0.4403 -0.4677
61250SOL    HW190800   9.504   5.480   5.299  0.0688 -1.0284 -0.0812
61250SOL    HW290801   9.434   5.525   5.426  0.1435  0.4717 -0.5539
61251SOL     OW90802   6.076   9.371  10.530  0.0439 -0.0054 -0.3909
61251SOL    HW190803   6.139   9.386  10.601  0.4382 -0.2166 -0.6910
61251SOL    HW290804   6.058   9.458  10.495 -1.1971  0.2582  0.8408
61252SOL     OW90805   0.815   7.603   3.541  0.1841  0.4432 -0.0569
61252SOL    HW190806   0.754   7.637   3.607 -1.1902 -1.4068 -0.3086
61252SOL    HW290807   0.894   7.581   3.591  1.7437  4.9522 -0.0289
61253SOL     OW90808  11.439   6.572   1.736 -0.0093  0.1269  0.2876
61253SOL    HW190809  11.423   6.664   1.717 -0.7707  0.0942  0.7332
61253SOL    HW290810  11.528   6.571   1.773  1.7685  0.1121 -3.5194
61254SOL     OW90811   3.853   1.372   8.186 -0.0535  0.4721  0.7659
61254SOL    HW190812   3.829   1.457   8.150 -2.9654  0.4168  2.3311
61254SOL    HW290813   3.936   1.387   8.231 -0.0764  2.2451  0.2778
61255SOL     OW90814   5.668  10.969   4.391 -0.1531 -0.3824 -0.1935
61255SOL    HW190815   5.760  10.952   4.374  0.0275 -0.4888  0.8322
61255SOL    HW290816   5.642  11.032   4.324  0.2730 -1.4390 -1.3977
61256SOL     OW90817   0.405   5.200   7.109 -0.3205 -0.7528 -0.1503
61256SOL    HW190818   0.472   5.265   7.128 -0.2434  0.0667 -2.9288
61256SOL    HW290819   0.445   5.117   7.135  0.7774 -0.0272  0.5521
61257SOL     OW90820  10.085   7.671   5.581 -0.9833  0.5455 -0.2791
61257SOL    HW190821  10.095   7.586   5.538 -1.1361  1.0103 -1.2808
61257SOL    HW290822  10.169   7.687   5.623 -0.7410  0.1690 -0.6059
61258SOL     OW90823   2.612   2.681   6.642  0.9391  0.5021 -0.0032
61258SOL    HW190824   2.610   2.599   6.691  1.0073  0.2614 -0.4027
61258SOL    HW290825   2.622   2.655   6.551  0.5059  0.9381 -0.1786
61259SOL     OW90826   7.212   7.928  11.224  0.0599  0.0151  0.0720
61259SOL    HW190827   7.307   7.915  11.221 -0.0406 -0.6521 -0.3653
61259SOL    HW290828   7.196   7.972  11.308  0.7138 -0.2067  0.3135
61260SOL     OW90829   9.564  11.345   7.426  0.1314 -0.6540 -0.4889
61260SOL    HW190830   9.595  11.268   7.472  0.6783 -1.3957 -2.0381
61260SOL    HW290831   9.525  11.400   7.494 -1.1895 -2.7245  0.5248
61261SOL     OW90832   9.710   8.362   2.765 -0.0366  0.0190 -0.0358
61261SOL    HW190833   9.631   8.310   2.753  0.6825 -1.5748  1.7184
61261SOL    HW290834   9.678   8.450   2.785 -1.2817  0.2465 -2.6200
61262SOL     OW90835  10.916   0.926   0.591 -0.3281 -0.3752  0.3396
61262SOL    HW190836  10.943   0.944   0.681  0.4118 -1.4655  0.3438
61262SOL    HW290837  10.983   0.967   0.537  0.6768 -1.9596  0.3352
61263SOL     OW90838   4.364   6.654   7.269  0.5917  0.1846  0.2983
61263SOL    HW190839   4.360   6.568   7.228 -0.4233 -0.2326  1.2362
61263SOL    HW290840   4.440   6.648   7.328 -0.2931 -0.5669  1.4032
61264SOL     OW90841   7.342   8.633   0.473 -0.3471 -0.3146  0.2056
61264SOL    HW190842   7.410   8.666   0.531 -1.1996 -1.3829  1.8718
61264SOL    HW290843   7.365   8.668   0.387  0.7174  1.6631  1.2334
61265SOL     OW90844   5.332   2.536   6.721 -0.1125  0.1550 -0.1410
61265SOL    HW190845   5.418   2.496   6.718  0.3621  1.1697 -0.5824
61265SOL    HW290846   5.335   2.606   6.655 -0.8534  1.0049  0.6822
61266SOL     OW90847   3.404   5.357  11.086 -0.0515  0.1828 -0.0446
61266SOL    HW190848   3.376   5.368  11.177  0.1665  2.8537 -0.2369
61266SOL    HW290849   3.325   5.330  11.040 -0.0015 -1.9650  0.9989
61267SOL     OW90850  11.438   1.955  10.286 -0.2590 -0.6823 -0.4110
61267SOL    HW190851  11.349   1.930  10.311 -0.5438  0.3565 -0.3599
61267SOL    HW290852  11.455   2.036  10.334  0.4259 -0.4604 -1.0151
61268SOL     OW90853   5.301   2.014   2.380  0.1628  0.0612 -0.0539
61268SOL    HW190854   5.297   1.961   2.460  0.3011 -0.3781 -0.3354
61268SOL    HW290855   5.369   2.079   2.399 -1.6261  1.6749  1.1947
61269SOL     OW90856   9.459   9.592   3.784 -0.0205 -0.3784  0.7553
61269SOL    HW190857   9.428   9.555   3.867  1.0046 -2.0826  0.4186
61269SOL    HW290858   9.467   9.517   3.725 -1.9936  0.9445 -1.3674
61270SOL     OW90859   1.230  11.999  10.813 -0.8104  0.2310 -0.1059
61270SOL    HW190860   1.298  11.932  10.822 -1.4245 -0.3739  0.2224
61270SOL    HW290861   1.256  12.068  10.874 -0.5204 -0.0198  0.0579
61271SOL     OW90862   9.651   3.106  12.243 -0.0329  0.1318 -0.3569
61271SOL    HW190863   9.665   3.197  12.219 -0.2532  0.3807  0.4054
61271SOL    HW290864   9.580   3.109  12.308  0.1522 -0.5453 -0.1110
61272SOL     OW90865   1.157   6.901  11.972  0.3349  0.2227 -0.0671
61272SOL    HW190866   1.130   6.925  12.061  1.9835  0.6260  0.3725
61272SOL    HW290867   1.080   6.862  11.933 -0.6798  0.8070  1.2651
61273SOL     OW90868   5.816   5.776   4.751  0.5825  0.0605 -0.0991
61273SOL    HW190869   5.843   5.827   4.674 -0.2848 -0.4487 -0.7637
61273SOL    HW290870   5.784   5.693   4.714  1.7495 -0.8951  0.9363
61274SOL     OW90871   1.078   0.781   7.903 -0.0203 -0.3957 -0.2486
61274SOL    HW190872   1.062   0.691   7.874  2.4271 -0.9047 -0.2388
61274SOL    HW290873   1.173   0.791   7.900  0.1017  1.0148  3.2837
61275SOL     OW90874  11.266   2.028   3.825  0.2971  0.1231 -0.0229
61275SOL    HW190875  11.254   2.035   3.730  3.3317 -2.0993 -0.7127
61275SOL    HW290876  11.314   1.946   3.837 -0.3484  0.1060  3.5198
61276SOL     OW90877   9.010  10.124   4.996  0.9206 -0.3166 -0.4371
61276SOL    HW190878   9.104  10.108   4.996  0.7254 -1.7814  1.0255
61276SOL    HW290879   8.971  10.038   5.010 -0.5296  0.5442  1.1947
61277SOL     OW90880   1.993   4.740   5.435 -0.0391 -0.6249  0.6201
61277SOL    HW190881   1.973   4.720   5.343 -1.5593 -0.8627  0.9689
61277SOL    HW290882   1.909   4.730   5.480  0.6537 -0.3646  2.0191
61278SOL     OW90883  11.463   3.559  11.763  0.6266  0.0636 -0.3849
61278SOL    HW190884  11.370   3.553  11.784  1.1834 -0.9256  2.1103
61278SOL    HW290885  11.488   3.470  11.738  0.4933  0.7644 -3.3933
61279SOL     OW90886   0.848   7.220   3.696  0.4093 -0.2018  0.5892
61279SOL    HW190887   0.925   7.165   3.709  1.4156  1.2368  1.0203
61279SOL    HW290888   0.859   7.256   3.608  0.4684  0.3433  0.8156
61280SOL     OW90889   4.591   5.919   5.928  0.0563  0.5746  0.1556
61280SOL    HW190890   4.613   5.966   5.848 -0.2288 -0.1972 -0.3767
61280SOL    HW290891   4.608   5.983   5.998 -0.4720  1.5325 -0.5600
61281SOL     OW90892   3.635   1.755  10.880  0.3544 -0.5462  0.0862
61281SOL    HW190893   3.693   1.712  10.942  1.5017  0.9799  0.1401
61281SOL    HW290894   3.558   1.779  10.931  1.6437  1.4625  1.2354
61282SOL     OW90895   5.914   5.285   0.910  0.3294  0.1634  0.3648
61282SOL    HW190896   5.972   5.350   0.950 -0.8945  2.2831 -1.1127
61282SOL    HW290897   5.965   5.246   0.839  1.1573 -0.7584  1.4221
61283SOL     OW90898   0.342   7.282  12.268 -0.4168 -0.7269 -0.4301
61283SOL    HW190899   0.409   7.297  12.201 -1.5388  0.5067 -1.3477
61283SOL    HW290900   0.286   7.360  12.263 -1.9930 -1.7697  0.1974
61284SOL     OW90901   9.754   1.783  12.026 -0.0724 -0.4175  0.2473
61284SOL    HW190902   9.723   1.774  12.116 -1.6669 -2.3588 -0.4353
61284SOL    HW290903   9.680   1.821  11.979  0.2249 -0.7788 -0.5350
61285SOL     OW90904   4.360  11.127  11.224 -0.5359 -0.0038  0.2924
61285SOL    HW190905   4.336  11.184  11.297 -1.0193 -0.1199  0.2254
61285SOL    HW290906   4.451  11.103  11.242 -0.0833  1.3644 -0.0564
61286SOL     OW90907   4.342   4.965   5.514  0.3314 -0.1477  0.1660
61286SOL    HW190908   4.359   4.886   5.565  0.2661  0.0704  0.5206
61286SOL    HW290909   4.369   5.037   5.570  1.1790  0.0544 -0.4657
61287SOL     OW90910   1.647   0.640  11.012 -0.4544 -0.2043 -0.8558
61287SOL    HW190911   1.611   0.723  11.045 -1.5953 -0.4135 -1.4910
61287SOL    HW290912   1.636   0.579  11.084  0.5827  0.2317 -0.3093
61288SOL     OW90913   0.879   7.564   9.344  0.3238 -0.0696 -0.3011
61288SOL    HW190914   0.807   7.520   9.390 -0.1209  2.1054  1.2517
61288SOL    HW290915   0.836   7.623   9.282  0.7565  0.6751  0.0884
61289SOL     OW90916   2.579   2.128   7.258 -0.4031 -0.1226  0.2010
61289SOL    HW190917   2.553   2.196   7.321 -0.4167 -0.5625  0.6722
61289SOL    HW290918   2.496   2.087   7.232 -0.2170 -1.5568  1.7373
61290SOL     OW90919   9.206   3.777  11.224  0.1269 -0.3287 -0.6187
61290SOL    HW190920   9.156   3.697  11.241  1.5031 -1.0920  0.0151
61290SOL    HW290921   9.174   3.838  11.290 -1.1732 -0.2094 -1.3155
61291SOL     OW90922   2.573   4.346   9.603 -0.0439  0.1344 -0.0792
61291SOL    HW190923   2.507   4.282   9.631  0.0743  0.8061  1.8486
61291SOL    HW290924   2.654   4.318   9.646  0.1369  1.2443  0.3377
61292SOL     OW90925   8.976   9.267   9.955  0.2892 -0.6026  0.6218
61292SOL    HW190926   8.892   9.244   9.994 -0.0572  0.4084  0.5073
61292SOL    HW290927   8.959   9.268   9.861  0.1398  0.6566  0.6510
61293SOL     OW90928   4.773  11.373   3.175 -0.2862  0.7890 -0.1521
61293SOL    HW190929   4.718  11.319   3.118  1.3918  1.0329 -2.1200
61293SOL    HW290930   4.739  11.357   3.263 -1.1347 -1.9194 -0.8723
61294SOL     OW90931   7.341  12.119   6.528 -0.2314  0.3368  0.0227
61294SOL    HW190932   7.309  12.106   6.439 -1.1390 -0.4550  0.4400
61294SOL    HW290933   7.262  12.138   6.579 -0.0376 -1.3772  1.0388
61295SOL     OW90934   3.678   9.913   5.333  0.4535 -0.6947 -0.0957
61295SOL    HW190935   3.612   9.979   5.351  0.3091 -1.0427  0.6657
61295SOL    HW290936   3.662   9.844   5.397  0.5732 -1.4985 -0.9015
61296SOL     OW90937   6.058  10.053   6.830 -0.9260 -0.2084 -0.1173
61296SOL    HW190938   6.018   9.966   6.830 -0.9504 -0.2191  1.1073
61296SOL    HW290939   6.000  10.106   6.884 -0.9643  0.6133 -0.9347
61297SOL     OW90940   8.124   7.608  11.626  0.2241 -0.1046  0.2424
61297SOL    HW190941   8.181   7.537  11.654  1.6472 -0.4801 -3.1886
61297SOL    HW290942   8.180   7.685  11.624 -0.0610  0.0906 -0.6103
61298SOL     OW90943   6.061   2.400   7.514  0.7539 -0.0632 -1.0049
61298SOL    HW190944   6.129   2.348   7.557 -1.4836 -0.3327  2.5727
61298SOL    HW290945   6.086   2.491   7.532  0.0047 -0.1699  0.7414
61299SOL     OW90946   4.884  12.320   7.974  0.0447 -0.6022 -0.1416
61299SOL    HW190947   4.960  12.334   7.918  1.1291  1.2543  1.6473
61299SOL    HW290948   4.825  12.393   7.954  0.3973  0.0206  1.0111
61300SOL     OW90949   2.714   1.351   2.342  0.0786  0.0991 -0.1173
61300SOL    HW190950   2.720   1.407   2.419  3.0154  0.0125 -0.1912
61300SOL    HW290951   2.748   1.266   2.371 -0.0506 -0.3240 -1.1584
61301SOL     OW90952  10.596   3.501   9.730  0.7719 -0.4622 -0.4009
61301SOL    HW190953  10.595   3.407   9.745 -0.4438 -0.4730 -0.4109
61301SOL    HW290954  10.679   3.531   9.766  0.6865 -1.3913  0.6193
61302SOL     OW90955   9.934  10.135  11.029 -0.0749  0.4375 -0.1140
61302SOL    HW190956   9.872  10.188  11.079  0.2019  0.0330  0.6811
61302SOL    HW290957   9.885  10.109  10.950 -1.1962 -0.5218  0.8586
61303SOL     OW90958  11.697   5.469  11.739 -0.5914 -0.1710  0.1083
61303SOL    HW190959  11.686   5.427  11.824  0.6525 -2.3382 -0.7116
61303SOL    HW290960  11.627   5.432  11.685  1.1013 -2.1216 -0.8967
61304SOL     OW90961   3.881   9.061   8.438 -0.1213  0.1043  0.1288
61304SOL    HW190962   3.787   9.073   8.425 -0.2904 -1.4583 -0.2424
61304SOL    HW290963   3.920   9.083   8.353 -0.5437 -2.8718 -0.9428
61305SOL     OW90964   8.446   3.376   4.658 -0.4891 -0.6603 -0.7712
61305SOL    HW190965   8.449   3.328   4.740 -1.2696 -0.3664 -0.5610
61305SOL    HW290966   8.366   3.346   4.616 -0.0188 -0.9218 -1.5050
61306SOL     OW90967   4.390  11.388   6.482 -0.3755  0.0395  0.0907
61306SOL    HW190968   4.333  11.341   6.422 -0.4875  0.9425 -0.5335
61306SOL    HW290969   4.330  11.426   6.546 -0.2673 -0.8162  0.7180
61307SOL     OW90970  11.145   4.103   5.434 -0.1005  0.2784 -0.0136
61307SOL    HW190971  11.090   4.109   5.356 -0.7248 -1.4103  0.2445
61307SOL    HW290972  11.109   4.029   5.483  1.9846 -0.4528  0.5277
61308SOL     OW90973   4.040   9.052   6.372  0.4018  0.3494  0.3963
61308SOL    HW190974   4.024   9.100   6.291  0.7028 -2.0017 -1.1423
61308SOL    HW290975   3.986   8.974   6.365 -0.5061  0.6442  3.0616
61309SOL     OW90976   3.293   1.158  11.004 -0.2650 -0.2918 -0.0908
61309SOL    HW190977   3.284   1.249  10.978  1.0942 -0.0813  0.0826
61309SOL    HW290978   3.224   1.112  10.957  0.4820  0.4790 -2.0151
61310SOL     OW90979   5.268   5.513   1.351 -0.1039 -0.5129  0.5509
61310SOL    HW190980   5.271   5.463   1.269  2.4441  1.9822 -1.0884
61310SOL    HW290981   5.215   5.590   1.329  1.5026  0.7210  0.8069
61311SOL     OW90982   7.348   8.000   1.204  0.4624 -1.1727 -0.2724
61311SOL    HW190983   7.349   8.001   1.300 -1.2400 -0.1176 -0.2272
61311SOL    HW290984   7.387   7.916   1.181 -0.0038 -1.8832  1.3744
61312SOL     OW90985   9.161   3.603   9.623  0.1313 -0.0526 -0.3277
61312SOL    HW190986   9.143   3.580   9.532 -0.4934 -0.4563 -0.1056
61312SOL    HW290987   9.095   3.556   9.673  0.3079  0.3769  0.3173
61313SOL     OW90988  12.341   5.276  11.620 -0.1363  0.3630 -0.4050
61313SOL    HW190989  12.396   5.243  11.549  1.0492  0.8437  0.2696
61313SOL    HW290990  12.255   5.288  11.579  0.7999  1.7950 -2.1223
61314SOL     OW90991   3.584   5.803   0.166 -0.4228  0.0343 -0.0361
61314SOL    HW190992   3.606   5.775   0.255  0.3167 -0.0876 -0.2490
61314SOL    HW290993   3.585   5.899   0.170 -1.6374  0.0433  0.3764
61315SOL     OW90994   6.365   0.962   4.316  0.3988 -0.0188 -0.8059
61315SOL    HW190995   6.414   0.996   4.241 -0.0210 -0.0939 -1.1153
61315SOL    HW290996   6.303   1.030   4.338  3.6149  2.2216  2.5662
61316SOL     OW90997   7.213   2.706  11.319  0.0098 -0.0604 -0.0468
61316SOL    HW190998   7.247   2.617  11.329  0.1646 -0.0007 -0.0345
61316SOL    HW290999   7.172   2.726  11.403 -0.9779 -0.5176 -0.4076
61317SOL     OW91000   9.384   1.042   4.976  0.0458 -0.7737  0.1454
61317SOL    HW191001   9.363   1.120   5.027 -0.1793 -0.4263 -0.4742
61317SOL    HW291002   9.314   1.035   4.912 -0.0792 -1.6395  0.3587
61318SOL     OW91003   9.836   4.927   8.916 -0.0880 -0.1289  0.2073
61318SOL    HW191004   9.865   4.837   8.933 -0.0212 -0.5334 -1.7655
61318SOL    HW291005   9.886   4.980   8.978  2.1660 -1.1911 -0.5555
61319SOL     OW91006   0.279   2.453  10.196  0.0808 -0.3411 -0.1070
61319SOL    HW191007   0.212   2.413  10.251 -0.4091 -0.0561 -0.4877
61319SOL    HW291008   0.284   2.543  10.227 -0.3077 -0.1372 -0.6203
61320SOL     OW91009   4.108   1.816   7.077 -0.1371  0.2228  0.3619
61320SOL    HW191010   4.097   1.894   7.131  0.3157 -0.9341  2.2121
61320SOL    HW291011   4.146   1.751   7.136 -1.9926 -1.9295 -0.6363
61321SOL     OW91012   3.854  10.773   6.238  0.0591  0.5192 -0.1441
61321SOL    HW191013   3.832  10.685   6.269 -0.3970  0.4057 -0.7695
61321SOL    HW291014   3.808  10.782   6.155  1.1055  0.8805 -0.7167
61322SOL     OW91015   6.086   4.351  12.469 -0.2868  0.2552 -0.3199
61322SOL    HW191016   6.062   4.368  12.560 -0.4438 -0.4413 -0.2239
61322SOL    HW291017   6.063   4.431  12.422  2.2932  1.7058  0.6924
61323SOL     OW91018   6.617   5.990   4.386 -0.3216  0.0688  0.0372
61323SOL    HW191019   6.670   6.007   4.308 -0.7882 -0.4827 -0.4165
61323SOL    HW291020   6.633   6.065   4.443  0.9625 -0.0941 -0.0715
61324SOL     OW91021   7.550   7.455  12.200 -0.1556  0.5795  0.3923
61324SOL    HW191022   7.598   7.538  12.190  1.5611 -0.5880 -1.9905
61324SOL    HW291023   7.519   7.435  12.111 -1.4778 -0.8285  1.1353
61325SOL     OW91024   3.589   7.589   8.567 -0.0666  0.1716 -0.0010
61325SOL    HW191025   3.592   7.681   8.541  1.0942 -0.5434 -2.7054
61325SOL    HW291026   3.496   7.570   8.575 -0.4045  1.1275 -1.2728
61326SOL     OW91027  12.133  11.370   9.417  0.0516 -0.1242  0.4235
61326SOL    HW191028  12.112  11.279   9.396  0.8284 -0.6601  1.8267
61326SOL    HW291029  12.201  11.393   9.354  2.1481 -1.6131  1.9982
61327SOL     OW91030   8.723   4.557  11.532  0.1817  0.6379  0.0502
61327SOL    HW191031   8.816   4.548  11.511  0.3043  1.8796  0.0021
61327SOL    HW291032   8.678   4.502  11.467  1.0029 -2.7827  2.1337
61328SOL     OW91033   7.844  12.326   4.305 -0.4763 -0.2165 -0.5185
61328SOL    HW191034   7.851  12.415   4.272  0.2223 -0.1373 -0.1881
61328SOL    HW291035   7.766  12.327   4.360 -0.3394  0.2576 -0.3255
61329SOL     OW91036   2.782   2.117   5.221  0.1388 -0.0691 -0.3060
61329SOL    HW191037   2.803   2.204   5.256 -1.0713  0.3380 -0.5346
61329SOL    HW291038   2.862   2.088   5.178  0.3693  1.2170 -0.7810
61330SOL     OW91039   6.164   7.797   6.143 -0.3418  0.0008  0.1834
61330SOL    HW191040   6.250   7.821   6.178 -0.7488  2.3225 -0.2253
61330SOL    HW291041   6.101   7.837   6.203 -1.0925  0.0848 -0.6387
61331SOL     OW91042   6.741   6.152   1.978 -0.0842 -0.3513  0.3033
61331SOL    HW191043   6.787   6.234   1.962 -0.3331 -0.2523  0.0893
61331SOL    HW291044   6.746   6.105   1.895 -0.1792 -0.4338  0.3433
61332SOL     OW91045  12.048   1.824   4.292  0.1298  0.0382 -0.3808
61332SOL    HW191046  12.112   1.756   4.271 -0.7570 -0.4645 -1.5270
61332SOL    HW291047  11.987   1.825   4.218 -0.2940  1.5976 -0.0625
61333SOL     OW91048   2.210  10.515  10.476 -0.3771  0.2385  0.6408
61333SOL    HW191049   2.239  10.438  10.524 -0.3534  0.8553  1.6515
61333SOL    HW291050   2.292  10.556  10.446 -0.3753  0.0737  0.4138
61334SOL     OW91051  10.145   0.276   7.634 -0.1768  0.4699 -0.1092
61334SOL    HW191052  10.166   0.368   7.620  2.3721 -0.0626 -0.3744
61334SOL    HW291053  10.230   0.235   7.650 -1.3708 -1.6221  1.3610
61335SOL     OW91054   9.790   2.593   6.048 -0.3231  0.5067 -0.1301
61335SOL    HW191055   9.861   2.658   6.051 -2.9945  3.6782  2.6548
61335SOL    HW291056   9.740   2.615   5.969  0.1093  0.2122 -0.4904
61336SOL     OW91057  12.284   6.628   9.446  0.3386 -0.0806 -0.0260
61336SOL    HW191058  12.226   6.687   9.494 -1.0860 -1.0972 -0.4464
61336SOL    HW291059  12.330   6.685   9.384 -1.0706  0.5906 -0.4829
61337SOL     OW91060   9.286   6.413   0.135 -0.2208  0.5257 -0.4718
61337SOL    HW191061   9.225   6.392   0.065 -0.8963  0.1937  0.2044
61337SOL    HW291062   9.360   6.354   0.120  0.1779  1.2698 -1.5821
61338SOL     OW91063   1.666   3.843   4.874 -0.1562  0.2969  0.0831
61338SOL    HW191064   1.671   3.787   4.951 -0.0749  1.4582  0.9465
61338SOL    HW291065   1.727   3.804   4.812 -0.5416 -0.8955  0.4288
61339SOL     OW91066   4.622   8.143   3.506  0.2724 -0.2295 -0.3502
61339SOL    HW191067   4.713   8.155   3.480  0.6941 -0.8888  0.7816
61339SOL    HW291068   4.614   8.188   3.590 -0.1824 -0.9866  0.0292
61340SOL     OW91069  11.293  11.158   2.961  0.0912 -0.2762  0.0488
61340SOL    HW191070  11.275  11.150   3.055 -0.5461  0.0470 -0.0376
61340SOL    HW291071  11.378  11.201   2.956 -0.2318  0.4325  0.4839
61341SOL     OW91072  10.738   2.428   7.346 -0.8672  0.5145  0.3251
61341SOL    HW191073  10.747   2.453   7.254  2.1793 -2.7617 -0.4918
61341SOL    HW291074  10.732   2.333   7.344 -0.2813  0.3119  3.5328
61342SOL     OW91075   7.509   1.833  11.924 -0.2281  0.2368  0.1350
61342SOL    HW191076   7.547   1.823  11.837  0.1051  0.7997  0.2116
61342SOL    HW291077   7.532   1.752  11.970 -1.1844 -0.4745 -0.5762
61343SOL     OW91078   7.388  12.106   3.713 -0.4645  0.4811  0.0402
61343SOL    HW191079   7.315  12.158   3.749  0.7303  1.9093  0.4979
61343SOL    HW291080   7.428  12.065   3.790 -0.7705 -0.3070 -0.2111
61344SOL     OW91081   1.149   3.044   6.947 -0.2228 -0.0649 -0.0167
61344SOL    HW191082   1.130   2.952   6.929 -0.1378 -0.1301  0.2220
61344SOL    HW291083   1.088   3.067   7.018  0.1975 -0.1157  0.3634
61345SOL     OW91084   2.757   3.505  11.663 -0.9104 -0.7756  0.8021
61345SOL    HW191085   2.835   3.557  11.647  0.2290 -2.7657 -0.4961
61345SOL    HW291086   2.687   3.569  11.676  0.5710  1.0384  0.1814
61346SOL     OW91087  10.608   9.816   6.575  0.1402 -0.0001 -0.4882
61346SOL    HW191088  10.520   9.792   6.604  0.5191  0.0835  0.7869
61346SOL    HW291089  10.666   9.755   6.622  0.8711  1.0780  0.0475
61347SOL     OW91090   9.522   7.500  12.410  0.5818 -0.1873  0.2465
61347SOL    HW191091   9.522   7.591  12.383 -0.3016 -0.2804 -0.0927
61347SOL    HW291092   9.488   7.452  12.335  0.8958 -0.7842  0.4738
61348SOL     OW91093   8.249  10.971   1.920 -0.1262 -0.4927 -0.9831
61348SOL    HW191094   8.343  10.957   1.905 -0.0002 -0.3441 -0.3676
61348SOL    HW291095   8.243  10.988   2.014 -0.2538  3.3193 -1.5186
61349SOL     OW91096   3.576   3.843   8.592 -0.5419 -0.2985 -0.4225
61349SOL    HW191097   3.628   3.858   8.671 -0.6907 -0.3995 -0.3056
61349SOL    HW291098   3.509   3.911   8.594  0.2504  0.5407 -1.1490
61350SOL     OW91099  10.295   9.084   9.398 -0.3485  0.4858  0.2057
61350SOL    HW191100  10.227   9.102   9.334  1.2740  0.2484 -1.6662
61350SOL    HW291101  10.363   9.037   9.349  0.0701 -1.5715  2.5586
61351SOL     OW91102   3.672   7.924   1.622  0.1231  0.0628  0.3867
61351SOL    HW191103   3.725   7.848   1.600 -1.0786 -0.6616 -0.1162
61351SOL    HW291104   3.637   7.954   1.538  0.1496  0.8579  0.6459
61352SOL     OW91105  11.076   7.493   9.923  0.2840  0.3007  0.0075
61352SOL    HW191106  11.014   7.566   9.924 -0.4379 -0.3066  1.3450
61352SOL    HW291107  11.109   7.487  10.012 -0.9960 -2.0966  0.3942
61353SOL     OW91108   9.888   1.366  12.058 -0.5510  0.2310  0.3126
61353SOL    HW191109   9.896   1.441  12.117  0.3654  1.2337 -1.0249
61353SOL    HW291110   9.794   1.351  12.049 -0.7918  1.8084 -0.0900
61354SOL     OW91111   3.842   8.030   2.096  0.1876 -0.2394  0.1872
61354SOL    HW191112   3.834   7.980   2.015 -1.1941 -0.6697  0.5490
61354SOL    HW291113   3.849   7.964   2.164  0.6393  0.1103  0.4845
61355SOL     OW91114  10.517  11.639   5.650  0.1596  0.3768  0.6994
61355SOL    HW191115  10.463  11.614   5.725  0.9558 -0.0941  1.1301
61355SOL    HW291116  10.480  11.722   5.620 -0.1597  0.5818  1.6269
61356SOL     OW91117   4.572  11.476   5.698  0.3973 -0.4024 -0.3539
61356SOL    HW191118   4.478  11.490   5.685  0.3286 -0.0830  0.3856
61356SOL    HW291119   4.607  11.564   5.714  0.5612 -0.6712  0.8839
61357SOL     OW91120   5.519  11.981   8.397  0.1783  0.1551 -0.4442
61357SOL    HW191121   5.573  12.044   8.446 -2.3015 -0.5461  3.6212
61357SOL    HW291122   5.436  12.027   8.383 -0.3103 -0.8742 -1.0056
61358SOL     OW91123   1.942   4.740   4.127  0.0872  0.7298 -0.4398
61358SOL    HW191124   1.903   4.656   4.153  0.0185  0.0723 -2.5264
61358SOL    HW291125   1.921   4.749   4.034  4.4598  0.5539 -1.6520
61359SOL     OW91126   4.065   1.098   3.968 -0.0935  0.0634 -0.2058
61359SOL    HW191127   4.084   1.192   3.959  0.3607  0.0697  0.7346
61359SOL    HW291128   4.075   1.080   4.061 -2.6527 -0.4108  0.0443
61360SOL     OW91129   1.302  10.599   6.035 -0.4587  0.1907  0.0009
61360SOL    HW191130   1.341  10.660   5.973 -2.9807  1.8914 -0.0563
61360SOL    HW291131   1.210  10.592   6.008 -0.6393 -2.4150  0.9915
61361SOL     OW91132   4.205   5.576   1.956 -0.0208 -0.3601  0.1034
61361SOL    HW191133   4.231   5.597   2.045 -1.1284 -0.8159  0.5401
61361SOL    HW291134   4.270   5.512   1.926  0.9900  0.5927  0.1771
61362SOL     OW91135  10.873   6.321   2.618 -0.0622 -0.1196 -0.1208
61362SOL    HW191136  10.839   6.368   2.542 -0.2730 -0.6721 -0.3787
61362SOL    HW291137  10.949   6.372   2.646 -0.2840  0.3642 -0.3933
61363SOL     OW91138   2.647   4.411  10.699  0.5701  0.5201 -0.2026
61363SOL    HW191139   2.711   4.363  10.647  2.7801  2.8107  0.1830
61363SOL    HW291140   2.583   4.443  10.635  0.3160 -0.9947 -0.7363
61364SOL     OW91141  11.682  10.161   7.507 -0.4592  0.1945 -0.0611
61364SOL    HW191142  11.692  10.210   7.588  0.8917  1.8210 -1.1609
61364SOL    HW291143  11.744  10.089   7.515  0.1884  0.7609  0.0533
61365SOL     OW91144   2.347   8.974   3.630  0.0201  0.1645 -0.3658
61365SOL    HW191145   2.341   9.047   3.692  1.3155  0.4212 -0.5103
61365SOL    HW291146   2.427   8.991   3.581 -0.0482 -0.9762 -0.8992
61366SOL     OW91147   4.980  10.139   4.306  0.1885 -0.4059 -0.5053
61366SOL    HW191148   5.003  10.046   4.310 -1.3706 -0.7692  2.3316
61366SOL    HW291149   4.917  10.145   4.234 -0.0432 -1.6235 -0.4162
61367SOL     OW91150   2.117   9.257   1.502  0.0457 -0.1129  0.4237
61367SOL    HW191151   2.036   9.251   1.552 -0.1267 -0.9513  0.0510
61367SOL    HW291152   2.103   9.201   1.426  0.2601  1.2274 -0.6402
61368SOL     OW91153   2.233   6.375   2.991 -0.7100 -0.0153  0.6509
61368SOL    HW191154   2.242   6.292   3.038 -2.8146 -1.6939 -1.6414
61368SOL    HW291155   2.138   6.388   2.983 -0.4549  0.9455 -1.7303
61369SOL     OW91156   2.098   2.540   8.210 -0.4981  0.6253 -0.4051
61369SOL    HW191157   2.085   2.574   8.299 -1.9992 -0.1185 -0.3093
61369SOL    HW291158   2.064   2.451   8.213 -1.4228  0.8838 -1.9311
61370SOL     OW91159   1.893   7.962   7.252  0.2011 -0.1858  0.5033
61370SOL    HW191160   1.950   7.887   7.263  0.4912  0.1946  1.7069
61370SOL    HW291161   1.931   8.010   7.177  0.8434 -0.4862  0.6298
61371SOL     OW91162  12.009   5.108   3.477 -0.1935 -0.6344 -0.4642
61371SOL    HW191163  11.931   5.053   3.471 -1.4167  0.7363  1.4592
61371SOL    HW291164  12.078   5.049   3.505 -1.6736 -1.1678  2.4744
61372SOL     OW91165   8.853   9.412  12.165 -0.3191 -0.0994 -0.3163
61372SOL    HW191166   8.872   9.505  12.179  2.3111 -0.5341 -0.4758
61372SOL    HW291167   8.861   9.372  12.251  0.8362 -0.4727 -0.5681
61373SOL     OW91168   0.105   5.333   3.512 -0.0322 -0.0704  0.3797
61373SOL    HW191169   0.127   5.246   3.546  0.8389 -0.6409 -1.4934
61373SOL    HW291170   0.119   5.325   3.418  1.3248  2.4713  0.2949
61374SOL     OW91171   0.294   6.575  10.298  0.2427 -0.2820  0.3785
61374SOL    HW191172   0.289   6.617  10.384  2.2562 -0.0471  0.4294
61374SOL    HW291173   0.233   6.625  10.244  0.8593  1.2445  1.0342
61375SOL     OW91174   1.834   8.993  10.524  0.2740  0.3840 -0.0615
61375SOL    HW191175   1.829   9.072  10.469  0.5113 -0.7877 -1.8652
61375SOL    HW291176   1.786   8.927  10.474  3.0378 -1.5633 -0.3702
61376SOL     OW91177   8.934  10.826   2.809  0.4302 -0.0003  0.4008
61376SOL    HW191178   8.945  10.759   2.877 -0.0200  0.8465  1.3331
61376SOL    HW291179   8.979  10.790   2.733 -2.0074 -2.6044  0.0017
61377SOL     OW91180   0.266   6.834   4.320  0.0820  0.3999 -0.0486
61377SOL    HW191181   0.229   6.857   4.405 -0.8150 -2.6990  0.5305
61377SOL    HW291182   0.331   6.767   4.340  0.0548 -0.1828 -1.7788
61378SOL     OW91183   1.979   4.465   8.394 -0.2002  0.0244  0.0311
61378SOL    HW191184   1.912   4.532   8.378 -0.6880 -0.6837 -1.0150
61378SOL    HW291185   1.930   4.383   8.398  0.5641 -0.4737 -0.4762
61379SOL     OW91186   7.163   1.849   3.137 -0.0685  0.6281 -0.5071
61379SOL    HW191187   7.184   1.787   3.207  0.1492  0.3722 -0.7912
61379SOL    HW291188   7.071   1.872   3.151  0.3274  1.6347  0.6684
61380SOL     OW91189  11.403   5.258   8.390 -0.3223  0.5814 -0.5165
61380SOL    HW191190  11.476   5.314   8.365  2.0984 -1.6009  1.2271
61380SOL    HW291191  11.407   5.184   8.329 -0.7491  0.1834 -0.0724
61381SOL     OW91192   7.148   3.371  10.682  0.3384 -0.4640  0.1981
61381SOL    HW191193   7.076   3.381  10.744  0.5890  1.5491  0.2317
61381SOL    HW291194   7.217   3.329  10.733  0.2969  0.5233  1.1001
61382SOL     OW91195   8.395   9.496   3.201  0.0014 -0.0752 -0.2571
61382SOL    HW191196   8.477   9.520   3.157  0.2234  0.2726  0.3331
61382SOL    HW291197   8.421   9.484   3.293 -0.7991  1.0727  0.1377
61383SOL     OW91198   4.764   5.667   5.353 -0.7548  0.0153 -0.7726
61383SOL    HW191199   4.680   5.631   5.327 -1.0456 -0.3754  0.6306
61383SOL    HW291200   4.804   5.598   5.406 -0.6618  1.1634  0.7006
61384SOL     OW91201   4.040   2.265   5.268 -0.1269  0.0475 -0.6240
61384SOL    HW191202   4.005   2.346   5.306 -0.4342 -0.4751  0.2396
61384SOL    HW291203   4.118   2.246   5.321  0.0968 -0.0805 -0.9992
61385SOL     OW91204   7.713  10.053   7.305 -0.4736  0.6508 -0.0020
61385SOL    HW191205   7.632  10.096   7.333  0.1756  1.4874  0.6700
61385SOL    HW291206   7.749  10.016   7.386 -0.0659  0.5103 -0.2496
61386SOL     OW91207   1.599   2.226   6.618 -0.5812  0.1577  0.3589
61386SOL    HW191208   1.516   2.271   6.624 -1.1360 -0.4796 -1.6876
61386SOL    HW291209   1.589   2.148   6.673 -0.2267  1.5277  2.4910
61387SOL     OW91210   5.328  12.393   0.045 -0.1257  0.3188 -0.3639
61387SOL    HW191211   5.282  12.319   0.085  0.6671 -0.3663 -0.6883
61387SOL    HW291212   5.294  12.398  -0.044 -1.3739  1.4004  0.1360
61388SOL     OW91213   0.491   3.027   2.534 -0.3249  0.1934  0.1855
61388SOL    HW191214   0.453   3.106   2.496 -0.0451  1.0992  1.7297
61388SOL    HW291215   0.417   2.980   2.572 -0.5380 -0.4846 -1.0085
61389SOL     OW91216   3.163   8.283  10.449  0.2742  0.2092 -0.0574
61389SOL    HW191217   3.216   8.205  10.433 -0.2110 -0.1263 -0.0451
61389SOL    HW291218   3.209   8.353  10.403  0.9529  0.0034  0.3045
61390SOL     OW91219  11.512   3.165   6.849 -0.3994  0.3396  0.2294
61390SOL    HW191220  11.590   3.218   6.832 -1.0951  0.9732 -1.2087
61390SOL    HW291221  11.439   3.223   6.830 -1.2085 -0.5390  0.5810
61391SOL     OW91222   6.251   7.155   4.623  0.0060  0.1935  0.4327
61391SOL    HW191223   6.271   7.235   4.574 -0.4423 -0.1149 -0.2541
61391SOL    HW291224   6.336   7.112   4.634  0.2743  0.8364  0.9444
61392SOL     OW91225   9.894  10.216   4.922 -0.1138  0.1944  0.1680
61392SOL    HW191226   9.950  10.196   4.846  0.7029  0.6842  0.6266
61392SOL    HW291227   9.950  10.198   4.998 -0.5684  0.7442  0.6395
61393SOL     OW91228   0.332   0.711   3.076 -0.5591 -0.0306 -0.2978
61393SOL    HW191229   0.387   0.781   3.041 -0.6299  0.0218 -0.3058
61393SOL    HW291230   0.375   0.683   3.156  0.2741 -0.9975 -1.0549
61394SOL     OW91231   5.572   7.343   6.155  0.5410  0.0154 -0.1397
61394SOL    HW191232   5.483   7.315   6.178  0.7196  0.0184  0.5687
61394SOL    HW291233   5.592   7.293   6.076  0.0664 -0.3066 -0.0635
61395SOL     OW91234   2.039   2.058  11.716  0.6085 -0.1652 -0.1855
61395SOL    HW191235   2.111   2.015  11.762  0.0445  0.2142  1.1065
61395SOL    HW291236   1.961   2.035  11.767  0.0227  0.6671 -0.6786
61396SOL     OW91237   0.376  10.554   0.165  0.0283 -0.4423 -0.0629
61396SOL    HW191238   0.330  10.637   0.169 -0.5452 -0.7768  0.5247
61396SOL    HW291239   0.314  10.490   0.201  0.1092 -1.2890 -1.3747
61397SOL     OW91240   6.803   3.129   6.952 -0.0197  0.1863 -0.5538
61397SOL    HW191241   6.823   3.209   7.000 -0.9195  0.3959 -0.5235
61397SOL    HW291242   6.888   3.086   6.941  0.2594  0.2942  0.9425
61398SOL     OW91243   2.379   8.314  11.756  0.0440  0.2140  0.6956
61398SOL    HW191244   2.395   8.385  11.819  3.4233  1.4982 -1.3615
61398SOL    HW291245   2.456   8.259  11.763 -1.1341 -1.5926  0.0460
61399SOL     OW91246   9.538   6.766   3.849 -0.4834 -0.0221 -0.0330
61399SOL    HW191247   9.494   6.681   3.852 -1.2448  0.3695  0.0531
61399SOL    HW291248   9.533   6.799   3.939  0.9245 -0.4263  0.2293
61400SOL     OW91249   0.902   0.519   7.593 -0.0176 -0.3261  0.1170
61400SOL    HW191250   0.823   0.467   7.576 -0.2587  0.1422 -0.2428
61400SOL    HW291251   0.871   0.610   7.591  0.1213 -0.1884  2.1145
61401SOL     OW91252  12.266   5.430  10.505 -0.0735 -0.4197 -0.2605
61401SOL    HW191253  12.196   5.494  10.493 -0.2870 -0.7608 -0.8756
61401SOL    HW291254  12.227   5.362  10.560  0.3292  0.2409  0.8673
61402SOL     OW91255   5.843  10.785   2.976 -0.5694 -0.1392 -0.2876
61402SOL    HW191256   5.857  10.876   3.002  2.4415 -0.4709 -0.4170
61402SOL    HW291257   5.748  10.778   2.964 -0.7442  3.5977 -2.5555
61403SOL     OW91258   9.784   3.977   8.131  0.2382  0.1234  0.2370
61403SOL    HW191259   9.692   3.953   8.143 -0.1185  1.4118  0.2101
61403SOL    HW291260   9.821   3.974   8.220 -0.4189  1.8431  0.5957
61404SOL     OW91261  11.165   5.106   0.188  0.3409  0.0051  0.6752
61404SOL    HW191262  11.161   5.156   0.106 -0.6280 -1.0483  0.0470
61404SOL    HW291263  11.139   5.169   0.255 -0.1287  0.5502  0.0004
61405SOL     OW91264  12.278   8.762   2.932 -0.5056 -0.0185  0.2584
61405SOL    HW191265  12.366   8.775   2.896 -0.3581 -1.2125  0.1286
61405SOL    HW291266  12.219   8.794   2.864 -0.1810  0.3180  0.1313
61406SOL     OW91267   2.464   2.610   9.498  0.0680 -0.3025  0.4168
61406SOL    HW191268   2.500   2.540   9.552  0.3000 -0.7591 -0.3208
61406SOL    HW291269   2.529   2.623   9.429 -0.1150  0.4322  0.3709
61407SOL     OW91270   2.385  12.030   0.326 -0.3232 -0.2252 -0.2454
61407SOL    HW191271   2.315  11.966   0.315  1.2001 -1.8829 -0.6614
61407SOL    HW291272   2.345  12.113   0.301 -1.7090 -1.3508 -2.0203
61408SOL     OW91273  11.506   1.497   8.452  0.3383 -0.3460  0.4556
61408SOL    HW191274  11.451   1.521   8.378 -0.2557 -0.2585  0.9223
61408SOL    HW291275  11.486   1.561   8.520  2.9578  1.3491 -0.2266
61409SOL     OW91276   5.748   4.518   7.364 -0.1692 -0.4807  0.0424
61409SOL    HW191277   5.762   4.509   7.270  2.1276  1.7803  0.0649
61409SOL    HW291278   5.829   4.557   7.397 -1.5757  0.4756  2.6856
61410SOL     OW91279  10.594   8.233   6.140  0.1386  0.2869 -0.1702
61410SOL    HW191280  10.603   8.165   6.207 -1.6061  0.3028  0.1384
61410SOL    HW291281  10.560   8.187   6.063  3.5234 -0.0110 -1.6465
61411SOL     OW91282   5.185   0.563  10.716 -0.4482  0.5280 -0.3812
61411SOL    HW191283   5.231   0.587  10.636 -0.5193 -1.2829 -1.0259
61411SOL    HW291284   5.250   0.576  10.786 -0.1588  1.4324 -0.8085
61412SOL     OW91285   0.188   1.221   5.513 -0.1788  0.0104 -0.4095
61412SOL    HW191286   0.263   1.260   5.558 -1.3351  1.1278  0.6335
61412SOL    HW291287   0.183   1.131   5.547  0.9985 -0.2684 -0.9209
61413SOL     OW91288   3.770   7.290  11.764  0.1845 -0.4313  0.3170
61413SOL    HW191289   3.840   7.322  11.707 -0.6645  0.2763 -0.3589
61413SOL    HW291290   3.702   7.260  11.704 -0.1008 -1.1208  0.9664
61414SOL     OW91291  11.536   7.015   7.488  0.2603  0.4446 -0.5033
61414SOL    HW191292  11.511   6.949   7.424 -0.7168  1.5504 -1.3223
61414SOL    HW291293  11.475   7.087   7.472 -1.0859  0.1708  2.7187
61415SOL     OW91294   1.760  10.423  10.856  0.0937  0.2471  0.0852
61415SOL    HW191295   1.829  10.482  10.884  1.1414 -1.2874  0.8482
61415SOL    HW291296   1.740  10.451  10.766  0.4546  1.8003  0.4490
61416SOL     OW91297   9.712   8.452   9.979 -0.3699  0.0084 -0.4369
61416SOL    HW191298   9.718   8.466   9.884  1.4596 -1.0003 -0.5054
61416SOL    HW291299   9.712   8.357   9.990 -0.8409  0.1086  0.5878
61417SOL     OW91300   8.527   2.547   2.830  0.2227 -0.8341  0.0430
61417SOL    HW191301   8.616   2.539   2.863  1.1144  1.5257 -1.5275
61417SOL    HW291302   8.535   2.531   2.736 -0.8787 -0.0177 -0.2072
61418SOL     OW91303   9.176   5.816   5.424  0.1566 -0.0903 -0.1374
61418SOL    HW191304   9.237   5.859   5.484  0.7942  0.8170 -1.4014
61418SOL    HW291305   9.145   5.886   5.367 -0.3708 -0.9507 -0.9286
61419SOL     OW91306   2.989   9.757   4.775 -0.6347 -0.1651  0.2332
61419SOL    HW191307   2.941   9.679   4.802  1.1609 -1.1391  0.8122
61419SOL    HW291308   3.050   9.726   4.708  1.2635  0.3332  1.6404
61420SOL     OW91309  10.987   3.668  12.563  0.1408  0.6115  0.0183
61420SOL    HW191310  10.914   3.638  12.617 -0.3568 -0.5501 -1.2497
61420SOL    HW291311  10.958   3.652  12.473  0.4051  3.6826 -0.7224
61421SOL     OW91312   9.820   7.772   6.628 -0.5184 -0.1343  0.1609
61421SOL    HW191313   9.782   7.789   6.715  0.5635  1.8263  0.3187
61421SOL    HW291314   9.769   7.699   6.594 -1.6544 -0.2981  2.0321
61422SOL     OW91315   4.798   1.408   9.215  0.1874 -0.5126 -0.0876
61422SOL    HW191316   4.841   1.492   9.199  1.1463 -0.7439  1.0425
61422SOL    HW291317   4.849   1.369   9.286 -1.6051 -1.0539  0.9708
61423SOL     OW91318   4.241  10.911  12.580 -0.1563  0.3451 -0.6965
61423SOL    HW191319   4.200  10.840  12.531 -1.3673  0.6711 -0.1750
61423SOL    HW291320   4.170  10.952  12.629  0.7318  1.1367 -0.0172
61424SOL     OW91321   8.306   7.902   8.291  0.8240 -0.8401  0.1094
61424SOL    HW191322   8.392   7.939   8.314  0.8062 -0.3256 -0.6089
61424SOL    HW291323   8.257   7.902   8.373  0.9994  0.2876  0.2289
61425SOL     OW91324   9.264   8.891  11.447  0.5350  0.0152 -0.3307
61425SOL    HW191325   9.350   8.853  11.468  1.1327  0.8731 -1.1325
61425SOL    HW291326   9.229   8.835  11.378  1.3230  0.7828 -1.3684
61426SOL     OW91327   3.801   2.052   7.145 -0.6281 -0.2745 -0.3163
61426SOL    HW191328   3.732   2.009   7.194  0.6076 -1.0844  0.7784
61426SOL    HW291329   3.798   2.011   7.058  0.0990 -2.1542  0.5003
61427SOL     OW91330   8.395   4.993   7.047  0.2341  0.0816  0.1342
61427SOL    HW191331   8.401   4.998   6.952  0.0378  2.2440  0.1715
61427SOL    HW291332   8.310   4.951   7.064  0.2725 -0.3212 -0.6326
61428SOL     OW91333   6.657   2.645   1.669 -0.1532 -0.4970  0.3681
61428SOL    HW191334   6.621   2.596   1.596 -0.8370 -0.0706  0.4127
61428SOL    HW291335   6.656   2.736   1.641 -0.5507 -0.3122  0.9506
61429SOL     OW91336   7.279  10.460  11.496  0.2922 -0.0941 -0.8189
61429SOL    HW191337   7.283  10.428  11.586  0.8221 -1.2076 -1.2267
61429SOL    HW291338   7.275  10.382  11.442  2.7141  0.4362 -1.8929
61430SOL     OW91339   7.651   8.376   3.412  0.0409 -0.3932  0.4700
61430SOL    HW191340   7.730   8.381   3.465  0.8046 -0.1406 -0.6461
61430SOL    HW291341   7.605   8.298   3.444  0.9447 -0.7789  0.8752
61431SOL     OW91342   9.561   7.949  12.373  0.5040  0.4688  0.4643
61431SOL    HW191343   9.632   7.979  12.428  0.8905 -1.2982  0.9968
61431SOL    HW291344   9.482   7.960  12.426  0.5107  1.4033  0.2882
61432SOL     OW91345  11.295   3.351   9.022  0.6145  0.0719 -0.1545
61432SOL    HW191346  11.350   3.301   9.082  0.8279  0.2157 -0.2265
61432SOL    HW291347  11.305   3.442   9.052 -1.4957 -0.1123  1.3824
61433SOL     OW91348  10.101   2.626   9.381  0.2576  0.2631 -0.8172
61433SOL    HW191349  10.104   2.531   9.398  1.1606  0.0687 -1.9500
61433SOL    HW291350  10.181   2.644   9.333  0.7364  1.8538  0.4960
61434SOL     OW91351   0.389   1.559   6.814  0.3440  0.2417 -0.3445
61434SOL    HW191352   0.383   1.527   6.904  0.8224  0.2872 -0.2898
61434SOL    HW291353   0.299   1.574   6.787  0.1805 -0.0615  0.0257
61435SOL     OW91354   9.990   5.070  11.004  0.5135 -0.2384  0.1935
61435SOL    HW191355   9.900   5.077  10.974  0.5765  0.5645  0.1705
61435SOL    HW291356  10.000   4.979  11.031 -0.1852 -0.4242 -0.1792
61436SOL     OW91357   3.887   7.205   6.747  0.0425  0.2639 -0.2640
61436SOL    HW191358   3.907   7.120   6.709  2.2410 -0.0838  1.4123
61436SOL    HW291359   3.800   7.195   6.786 -0.0775 -0.9456 -0.8173
61437SOL     OW91360   7.284   1.523   2.568 -0.2777  0.0019 -0.8299
61437SOL    HW191361   7.249   1.475   2.493 -1.2365 -0.4572 -0.1042
61437SOL    HW291362   7.208   1.557   2.614  0.2685 -0.0491  0.1510
61438SOL     OW91363   1.242  11.037   5.007 -0.2825  0.6031 -0.3273
61438SOL    HW191364   1.246  11.083   5.090  0.3864  1.3190 -0.7421
61438SOL    HW291365   1.333  11.024   4.981 -0.4778  0.2407 -0.8632
61439SOL     OW91366  10.451   1.399   3.156  0.3511  0.2215 -0.0604
61439SOL    HW191367  10.432   1.335   3.088  0.4839 -0.0254  0.1331
61439SOL    HW291368  10.433   1.353   3.238 -0.2118  0.6416  0.0652
61440SOL     OW91369  10.574   8.219   7.974  0.3218 -0.4133  0.7216
61440SOL    HW191370  10.543   8.277   8.043 -0.1359 -1.1875  1.1703
61440SOL    HW291371  10.551   8.265   7.893 -2.4155 -1.1141  1.0046
61441SOL     OW91372   2.127   9.959   3.016 -0.2254  0.1717  0.2343
61441SOL    HW191373   2.114   9.865   3.014 -1.2322  0.3106 -1.0770
61441SOL    HW291374   2.222   9.971   3.008 -0.1875 -0.7054 -0.7110
61442SOL     OW91375   6.080   1.025  12.419  0.2795 -0.1259  0.1505
61442SOL    HW191376   6.063   1.103  12.366 -1.3899  0.0581  0.9012
61442SOL    HW291377   6.006   0.968  12.401  0.8734 -1.0442  0.5479
61443SOL     OW91378   6.448  12.477   7.128 -0.9025  0.5394  0.1293
61443SOL    HW191379   6.510  12.421   7.082 -0.1442  0.9700  0.5929
61443SOL    HW291380   6.400  12.418   7.186  0.1475  0.4029  0.8844
61444SOL     OW91381  10.475   4.001  10.529 -0.0363  0.4012 -0.0353
61444SOL    HW191382  10.526   3.924  10.501  0.1740 -0.2381  1.9373
61444SOL    HW291383  10.525   4.037  10.603 -1.7530  0.5286  1.1089
61445SOL     OW91384  12.195   5.540   8.582 -0.2622  0.0783 -0.0673
61445SOL    HW191385  12.248   5.477   8.631 -0.1384 -0.5354 -0.9618
61445SOL    HW291386  12.234   5.625   8.602 -0.6706 -0.0684  1.4632
61446SOL     OW91387   8.012   9.687   2.726 -0.3057  0.2111 -1.0346
61446SOL    HW191388   7.930   9.731   2.703  0.8682  2.9623 -0.2463
61446SOL    HW291389   8.080   9.738   2.683  1.2264 -0.2258  0.7638
61447SOL     OW91390   4.186  11.848   0.814 -0.6653 -0.4009 -0.1878
61447SOL    HW191391   4.162  11.849   0.721 -0.3914  1.9467 -0.2836
61447SOL    HW291392   4.106  11.875   0.859 -0.1561  0.8206  0.0280
61448SOL     OW91393   9.551  11.267   7.092  0.5817 -0.6062  0.0837
61448SOL    HW191394   9.562  11.181   7.051 -0.3857 -0.9255  0.4728
61448SOL    HW291395   9.485  11.253   7.161 -1.1066  0.8495 -1.1411
61449SOL     OW91396   1.376   0.231   3.825 -0.3859 -0.4267  0.6461
61449SOL    HW191397   1.373   0.300   3.891 -0.3272  1.2854 -1.0329
61449SOL    HW291398   1.293   0.184   3.835 -0.0817 -0.6520  2.3432
61450SOL     OW91399   1.594   5.983   7.062  0.2303  0.7519  0.2264
61450SOL    HW191400   1.604   6.028   6.978 -2.3921 -0.5967 -0.9135
61450SOL    HW291401   1.504   5.950   7.062  0.4052 -0.0668  3.2148
61451SOL     OW91402   5.337  11.499   0.629  0.7660  0.1070  0.1684
61451SOL    HW191403   5.391  11.430   0.668 -1.1145 -0.3497  2.1857
61451SOL    HW291404   5.247  11.467   0.639 -0.0077  1.5766 -1.5267
61452SOL     OW91405   1.750   2.664   6.259 -0.3488 -0.1191  0.0533
61452SOL    HW191406   1.820   2.719   6.295 -1.5351  0.7127  1.2009
61452SOL    HW291407   1.770   2.657   6.166  1.0655  0.3832  0.2930
61453SOL     OW91408   6.215   1.088   3.450  0.7251 -0.0672 -0.3363
61453SOL    HW191409   6.218   1.081   3.545  0.4200  0.4367 -0.2900
61453SOL    HW291410   6.213   1.182   3.432 -4.9604  0.0737 -0.6370
61454SOL     OW91411   1.917   8.553   5.120 -0.0830  0.5240 -0.0754
61454SOL    HW191412   2.007   8.537   5.151 -0.1330  1.0849  0.3744
61454SOL    HW291413   1.907   8.648   5.125 -0.8564  0.4279  0.2963
61455SOL     OW91414   7.428   3.566  10.733  0.5650  0.1709 -0.1168
61455SOL    HW191415   7.521   3.588  10.740  0.7169 -0.8023  1.1456
61455SOL    HW291416   7.418   3.487  10.785 -0.7398 -0.4575 -1.2588
61456SOL     OW91417   1.625   1.341   0.324  0.1217  0.0331  0.4885
61456SOL    HW191418   1.695   1.289   0.364  1.0352  1.6893  1.1194
61456SOL    HW291419   1.651   1.348   0.232  0.6862  0.4632  0.6760
61457SOL     OW91420   9.165   2.512   6.471  0.0110  0.1992  0.3656
61457SOL    HW191421   9.071   2.499   6.476 -0.3690  1.3993 -2.0528
61457SOL    HW291422   9.197   2.440   6.416  0.3425  0.2955  0.4251
61458SOL     OW91423   0.698   9.303   4.938 -0.1456 -0.5208 -0.0096
61458SOL    HW191424   0.783   9.268   4.966  1.1951  0.9577 -2.0136
61458SOL    HW291425   0.672   9.247   4.865 -0.8760 -0.8814  0.5098
61459SOL     OW91426  10.697   6.908  10.964  0.2715 -0.9926 -0.2999
61459SOL    HW191427  10.732   6.824  10.994  0.8709 -0.5356  0.2973
61459SOL    HW291428  10.774   6.955  10.930  0.3849  0.2536  1.5509
61460SOL     OW91429   9.049  11.305   4.705 -0.6093 -0.8526 -0.0073
61460SOL    HW191430   8.962  11.319   4.741 -0.1574  1.4574  0.3519
61460SOL    HW291431   9.109  11.338   4.772  0.5036 -1.5418 -0.6313
61461SOL     OW91432   3.834   6.314   0.630  0.1456  0.2572 -0.4185
61461SOL    HW191433   3.872   6.315   0.542 -0.6126  2.9382 -0.8098
61461SOL    HW291434   3.809   6.223   0.644  1.5533 -0.5136 -2.3874
61462SOL     OW91435  11.133   8.367  12.130 -0.3596  0.1554 -0.2054
61462SOL    HW191436  11.075   8.359  12.054  1.0973  1.9303 -1.6041
61462SOL    HW291437  11.183   8.285  12.130 -0.0448  0.3221 -1.4808
61463SOL     OW91438   3.062  11.858  10.064  0.1953  0.3397  0.4235
61463SOL    HW191439   3.113  11.793  10.016 -1.4154 -0.7453  0.1354
61463SOL    HW291440   3.110  11.869  10.147  0.9696 -0.5498  0.1070
61464SOL     OW91441   7.594   2.763   6.910 -0.2967  0.2125  0.0405
61464SOL    HW191442   7.679   2.739   6.948 -0.2145  0.7458  0.2072
61464SOL    HW291443   7.572   2.690   6.852  0.2893  0.0823 -0.0244
61465SOL     OW91444   6.017   0.912   1.210  0.7183 -0.0652  0.4136
61465SOL    HW191445   6.075   0.870   1.273  1.0860 -1.0919 -0.5739
61465SOL    HW291446   6.070   0.918   1.130  0.5480  1.9524  0.4017
61466SOL     OW91447   1.407   7.053  10.356  0.0538  0.3930 -0.1802
61466SOL    HW191448   1.502   7.044  10.368  0.0085 -0.0853 -0.1785
61466SOL    HW291449   1.387   7.139  10.393  0.6998  1.1165 -1.4373
61467SOL     OW91450  12.293   6.363   7.476 -0.5447 -0.0915 -0.0373
61467SOL    HW191451  12.298   6.282   7.425 -0.6038 -0.6526  0.8337
61467SOL    HW291452  12.355   6.350   7.548  0.3848  1.1545 -0.5861
61468SOL     OW91453   9.509   5.318   9.335  0.0734 -0.1511 -0.0142
61468SOL    HW191454   9.576   5.345   9.273  0.1506  0.4405  0.3265
61468SOL    HW291455   9.535   5.229   9.360  1.3364  0.4546  0.9251
61469SOL     OW91456   4.707   0.433   1.944  0.1921 -0.2863  0.5126
61469SOL    HW191457   4.746   0.400   2.025  0.3007  2.8853  1.9245
61469SOL    HW291458   4.639   0.494   1.974 -1.3170 -0.6888 -1.8578
61470SOL     OW91459   2.292   6.586  11.666 -0.7680 -0.6647  0.3645
61470SOL    HW191460   2.280   6.493  11.647 -1.9126 -0.4836  0.1135
61470SOL    HW291461   2.304   6.626  11.580 -1.8335 -0.3904  0.3250
61471SOL     OW91462   2.535  10.357   1.602 -0.3691 -0.1589 -0.0117
61471SOL    HW191463   2.480  10.346   1.679 -0.2598 -1.0867 -0.0589
61471SOL    HW291464   2.494  10.303   1.535  0.2421 -0.3629 -0.2277
61472SOL     OW91465   2.735   4.683   5.936 -0.7253 -0.6915 -0.2632
61472SOL    HW191466   2.663   4.623   5.958 -0.3278 -0.7929  0.8015
61472SOL    HW291467   2.814   4.632   5.953 -0.3804 -0.7081 -1.7798
61473SOL     OW91468   6.790   3.669   9.893  0.0654  0.0592 -0.7068
61473SOL    HW191469   6.706   3.647   9.853 -1.0238 -0.7127  1.7584
61473SOL    HW291470   6.823   3.585   9.926 -0.3988  0.8813  2.1506
61474SOL     OW91471   4.860   5.021   0.819  0.0172  0.1733  0.5447
61474SOL    HW191472   4.792   4.959   0.848 -2.2948  2.8720  1.2969
61474SOL    HW291473   4.815   5.080   0.758  2.2835  0.7930 -0.6251
61475SOL     OW91474  10.665   2.556   5.448  0.3159  0.1467  0.0513
61475SOL    HW191475  10.758   2.568   5.431  0.0637  1.3838 -0.5617
61475SOL    HW291476  10.622   2.578   5.365 -0.4154 -2.8129 -0.4883
61476SOL     OW91477   7.344   5.000   0.691  0.0071 -0.6194 -0.2649
61476SOL    HW191478   7.435   5.001   0.661 -0.6257  0.7069 -2.3411
61476SOL    HW291479   7.298   5.056   0.630 -2.5080 -2.3641 -0.1245
61477SOL     OW91480  12.477   5.414  12.531  0.4560 -0.6515 -0.0442
61477SOL    HW191481  12.500   5.394  12.440  0.9455  0.1212 -0.1028
61477SOL    HW291482  12.560   5.405  12.579  0.9895  2.0739 -0.2381
61478SOL     OW91483  10.358   5.337   8.210 -0.2913  0.2158  0.0437
61478SOL    HW191484  10.446   5.337   8.247  0.3931 -3.9958 -1.0915
61478SOL    HW291485  10.370   5.365   8.119 -0.2311  0.3937  0.1074
61479SOL     OW91486   9.878   4.370   3.542  0.0992 -0.1722 -0.4467
61479SOL    HW191487   9.872   4.429   3.618 -1.5951  0.7420 -1.2280
61479SOL    HW291488   9.853   4.425   3.467  1.8964 -1.0058 -1.7258
61480SOL     OW91489  11.512   9.792   4.046  0.4714 -0.2827  0.0782
61480SOL    HW191490  11.554   9.724   4.100  1.7484 -0.0500 -0.5919
61480SOL    HW291491  11.583   9.830   3.995 -0.4116  0.8143 -0.3783
61481SOL     OW91492   7.532   5.233   1.490 -0.2284 -0.1002  0.2082
61481SOL    HW191493   7.548   5.195   1.577  0.0150  2.4074  1.3357
61481SOL    HW291494   7.619   5.237   1.449  0.0670  1.0494  0.9043
61482SOL     OW91495   8.842   0.765   0.547 -0.5627 -0.5675  0.2585
61482SOL    HW191496   8.855   0.860   0.550 -1.8415 -0.2293 -1.9239
61482SOL    HW291497   8.751   0.753   0.575 -1.1245 -0.8466 -1.5431
61483SOL     OW91498   7.616   7.434   4.193 -0.0830  0.0501  0.0324
61483SOL    HW191499   7.637   7.433   4.099  0.8278  0.8792  0.2141
61483SOL    HW291500   7.530   7.391   4.198  0.5185 -1.3692 -1.0025
61484SOL     OW91501   2.684   1.349   8.034  0.1723  0.2168  0.0552
61484SOL    HW191502   2.617   1.282   8.020 -0.9632  1.7115 -2.5298
61484SOL    HW291503   2.766   1.307   8.005  0.3466 -1.3759  2.5443
61485SOL     OW91504   0.177  11.214   1.814  0.0741 -0.2571  0.3215
61485SOL    HW191505   0.251  11.274   1.809 -2.5987  3.4403  0.7692
61485SOL    HW291506   0.175  11.186   1.906 -0.3354  1.5186  0.8939
61486SOL     OW91507   0.257  11.283   5.859 -0.1085  0.6072  0.3778
61486SOL    HW191508   0.243  11.200   5.904  1.6629 -0.3149 -0.6486
61486SOL    HW291509   0.283  11.258   5.770  0.9325  2.2354  0.1714
61487SOL     OW91510   7.045   9.831   9.083 -0.3712 -0.2103  0.2268
61487SOL    HW191511   7.140   9.831   9.067 -0.6201 -2.0725 -1.8287
61487SOL    HW291512   7.036   9.786   9.168  0.6311  1.9738  1.5682
61488SOL     OW91513   9.686  11.188  11.179 -0.5019 -0.4214 -1.0074
61488SOL    HW191514   9.754  11.162  11.117 -2.3311 -0.2413 -3.2318
61488SOL    HW291515   9.673  11.110  11.234  1.0600 -0.6430 -0.8971
61489SOL     OW91516  12.555   0.965  10.183  0.2178  0.2506 -0.2669
61489SOL    HW191517  12.526   1.055  10.203 -0.6146 -0.3394  1.3684
61489SOL    HW291518  12.639   0.956  10.228 -0.3287 -0.1981  0.6800
61490SOL     OW91519   8.714   4.154  10.930  0.0610  0.2798 -0.2606
61490SOL    HW191520   8.741   4.126  11.018 -2.5380 -1.3583  0.1353
61490SOL    HW291521   8.775   4.110  10.871  1.1313  0.4808  0.6669
61491SOL     OW91522   6.000   7.635   6.035 -0.1926  0.4951 -0.5703
61491SOL    HW191523   6.075   7.690   6.057  2.1880 -2.4868 -0.4383
61491SOL    HW291524   5.983   7.653   5.942  2.2092 -0.2628 -1.2333
61492SOL     OW91525   0.272   5.266   9.310  0.4946  0.5702 -0.6429
61492SOL    HW191526   0.293   5.173   9.300  1.0812  0.7333 -1.0121
61492SOL    HW291527   0.191   5.267   9.360  0.3182 -0.1533 -0.8926
61493SOL     OW91528   5.602   3.192   1.080 -0.0497 -0.1485 -0.1859
61493SOL    HW191529   5.633   3.282   1.073  1.0936 -0.4687  0.4382
61493SOL    HW291530   5.651   3.144   1.013 -0.3596 -0.3843 -0.2498
61494SOL     OW91531   3.862  11.008   8.541 -0.5273  0.1797  0.4579
61494SOL    HW191532   3.856  11.078   8.606 -0.5025  0.7617 -0.1637
61494SOL    HW291533   3.954  10.981   8.543 -0.3180  0.8405 -0.0009
61495SOL     OW91534   3.841   4.686  11.040  0.0121 -0.5165 -0.2960
61495SOL    HW191535   3.798   4.768  11.017  1.7500  0.1466 -1.3781
61495SOL    HW291536   3.922   4.713  11.085  0.6658 -1.6284 -0.7640
61496SOL     OW91537  10.601   7.754   2.816 -0.7942 -0.3630 -0.1003
61496SOL    HW191538  10.673   7.735   2.755  0.3045  2.3424  0.1753
61496SOL    HW291539  10.534   7.690   2.795 -0.1117 -0.1453 -3.6191
61497SOL     OW91540  11.458  11.494   4.406 -0.2589 -0.5514 -0.2035
61497SOL    HW191541  11.439  11.422   4.466 -1.1728 -0.3763 -0.2745
61497SOL    HW291542  11.386  11.555   4.418 -0.2129 -0.2928 -1.1505
61498SOL     OW91543   0.199   1.479   3.570  0.5285  0.7187  0.1857
61498SOL    HW191544   0.141   1.431   3.511  0.0262  0.8001  0.6036
61498SOL    HW291545   0.230   1.413   3.632  2.1516  0.3508 -0.9859
61499SOL     OW91546   2.849   5.288   0.645 -0.0714  0.2906  0.2492
61499SOL    HW191547   2.868   5.214   0.703 -0.7790 -0.2861 -0.2364
61499SOL    HW291548   2.913   5.354   0.669  0.0935 -0.2021  1.2103
61500SOL     OW91549   8.349   1.297   1.336  0.2485  0.5486  0.4201
61500SOL    HW191550   8.384   1.383   1.359 -0.4030  0.7518  0.6617
61500SOL    HW291551   8.411   1.263   1.271 -0.1324  1.7186 -0.6109
61501SOL     OW91552   5.027   1.557  10.740 -0.3708  0.3041 -0.2227
61501SOL    HW191553   4.944   1.524  10.775 -2.2578  3.4336 -1.3022
61501SOL    HW291554   5.066   1.482  10.695 -2.7087 -1.2558  0.1897
61502SOL     OW91555  11.898  10.048   9.721 -0.0561  0.4331  0.1755
61502SOL    HW191556  11.953  10.111   9.675  0.5530  1.0850  1.7419
61502SOL    HW291557  11.815  10.094   9.734 -0.0040  0.4938  0.3007
61503SOL     OW91558   5.918   7.590  11.619  0.0934 -0.0693 -0.3498
61503SOL    HW191559   5.987   7.652  11.643 -1.0933  1.1226  0.0977
61503SOL    HW291560   5.961   7.505  11.622  1.2249  0.4988  1.2925
61504SOL     OW91561   0.913   4.548   5.421  0.4774 -0.1728 -0.2415
61504SOL    HW191562   0.952   4.593   5.496  0.0804 -0.6881  0.2812
61504SOL    HW291563   0.863   4.616   5.376  2.1735  0.5608 -1.0745
61505SOL     OW91564   1.200   6.645   9.647 -0.6677 -0.7237 -0.2420
61505SOL    HW191565   1.109   6.655   9.678 -0.8493  1.4469 -1.2918
61505SOL    HW291566   1.233   6.735   9.641  0.7224 -1.3064 -2.2994
61506SOL     OW91567   3.406   0.096   1.091 -0.0784 -0.2129  0.0092
61506SOL    HW191568   3.422   0.104   1.185  0.6004  0.4576 -0.1572
61506SOL    HW291569   3.469   0.156   1.050  0.1153 -1.0055 -0.9064
61507SOL     OW91570  12.138   2.948   5.717 -0.1513 -0.0148 -0.2568
61507SOL    HW191571  12.165   3.035   5.687  0.6414 -0.0968  0.1892
61507SOL    HW291572  12.150   2.951   5.812 -2.6544  0.2585  0.1174
61508SOL     OW91573   4.337   1.948   5.719  0.4056 -0.1061  0.4695
61508SOL    HW191574   4.382   1.905   5.792  0.2179 -0.2833  0.4790
61508SOL    HW291575   4.401   1.948   5.648  0.7791  0.5368  0.7960
61509SOL     OW91576   7.686   5.373   1.072 -0.1931 -0.7369 -0.6715
61509SOL    HW191577   7.661   5.458   1.035 -0.0527 -0.0757  0.7118
61509SOL    HW291578   7.610   5.317   1.055 -0.9019  0.0732 -0.2805
61510SOL     OW91579   8.264   2.675   1.440 -0.2336 -0.1001 -0.2964
61510SOL    HW191580   8.194   2.622   1.478 -0.4926  0.2289 -0.3061
61510SOL    HW291581   8.273   2.643   1.350  0.0049 -0.5116 -0.1265
61511SOL     OW91582   7.432   8.412   6.927 -0.6310 -0.0982 -0.1900
61511SOL    HW191583   7.487   8.348   6.972 -1.7441 -1.7885 -1.1161
61511SOL    HW291584   7.466   8.413   6.837 -0.9482  0.2004 -0.3077
61512SOL     OW91585   9.794  12.397   6.021  0.1883 -0.1792 -0.1990
61512SOL    HW191586   9.868  12.404   6.081  1.2828 -0.5353 -1.4619
61512SOL    HW291587   9.833  12.403   5.934 -1.0553 -2.2143 -0.9507
61513SOL     OW91588  10.382   3.977   3.329 -0.0119  0.6808 -0.0978
61513SOL    HW191589  10.421   4.053   3.286  3.0986  0.5760  2.1790
61513SOL    HW291590  10.347   4.011   3.411  1.3096 -0.2127  0.8919
61514SOL     OW91591   6.556   0.302   3.128  0.0607  0.1952 -0.4746
61514SOL    HW191592   6.618   0.368   3.157  0.2396  0.4989 -1.5161
61514SOL    HW291593   6.498   0.288   3.204  0.7388  0.6772  0.1392
61515SOL     OW91594  10.098  11.609   3.080 -0.2609  0.2769 -0.5882
61515SOL    HW191595  10.154  11.531   3.072 -0.6295  0.1260 -1.9086
61515SOL    HW291596  10.153  11.673   3.126  1.2808  0.3445 -2.3943
61516SOL     OW91597   1.346  12.140   1.010  0.1556 -0.4321  0.4220
61516SOL    HW191598   1.388  12.217   0.971 -0.4711  0.0237  0.6457
61516SOL    HW291599   1.351  12.073   0.942  0.8150 -0.2394  0.2700
61517SOL     OW91600   7.950  11.048  11.624 -0.0274 -0.4588 -0.2053
61517SOL    HW191601   7.968  10.958  11.597  0.1449 -0.9212  1.3774
61517SOL    HW291602   8.037  11.086  11.640 -0.0578  0.2330 -1.5347
61518SOL     OW91603  10.359   8.280   7.381  0.4957 -0.1280  0.0626
61518SOL    HW191604  10.424   8.349   7.397  0.1351  0.0876  0.6465
61518SOL    HW291605  10.275   8.321   7.403  0.3273 -0.8933  0.9119
61519SOL     OW91606  10.503  12.449   2.225 -0.0751  0.0853 -0.3174
61519SOL    HW191607  10.489  12.512   2.155  2.9510  2.1018  0.7035
61519SOL    HW291608  10.585  12.406   2.203  0.3312 -0.0806  1.3664
61520SOL     OW91609  11.739   1.841   6.803  0.3940 -0.2137 -0.1176
61520SOL    HW191610  11.768   1.933   6.797  1.0160 -0.4965 -2.1271
61520SOL    HW291611  11.688   1.838   6.884 -0.5865  2.1801 -0.5548
61521SOL     OW91612  10.229  12.345   3.131  0.1088  0.1548 -0.1092
61521SOL    HW191613  10.291  12.402   3.176 -0.0399 -0.0776  0.3876
61521SOL    HW291614  10.144  12.384   3.147  0.0155 -0.1618  0.1597
61522SOL     OW91615   3.342   8.530   1.621  0.5298  0.6809 -0.2406
61522SOL    HW191616   3.302   8.586   1.554  0.1732  0.0099 -0.6011
61522SOL    HW291617   3.388   8.590   1.678  0.4669  1.3113 -0.8408
61523SOL     OW91618   1.894   1.513  10.064  0.3668 -0.1495 -0.0625
61523SOL    HW191619   1.928   1.601  10.049 -1.9846  1.6654  3.5683
61523SOL    HW291620   1.939   1.485  10.144 -1.4705 -0.6299  0.8402
61524SOL     OW91621   4.970   2.149  11.753 -0.9789  0.2300 -0.6047
61524SOL    HW191622   5.065   2.140  11.751 -0.7917  1.7645 -3.1437
61524SOL    HW291623   4.937   2.062  11.730 -0.3402 -0.8263  2.1181
61525SOL     OW91624   2.427   6.435   6.622  0.3192  0.0601 -0.5077
61525SOL    HW191625   2.333   6.432   6.642  0.1384  1.9949 -0.8863
61525SOL    HW291626   2.432   6.423   6.527  0.2746  1.7436 -0.7510
61526SOL     OW91627  11.584   5.824   8.036  0.3534  0.1617 -0.0385
61526SOL    HW191628  11.585   5.774   8.118  1.0296 -1.6327 -1.0910
61526SOL    HW291629  11.496   5.810   8.001  0.3392  0.2374 -0.0343
61527SOL     OW91630   4.816   1.163   5.238 -0.4678 -0.3316  0.1760
61527SOL    HW191631   4.737   1.201   5.201  0.4096  0.5650 -0.8415
61527SOL    HW291632   4.818   1.073   5.203 -0.9621 -0.3126  0.0960
61528SOL     OW91633   1.029  10.216   6.950  0.2301  0.3471 -0.4999
61528SOL    HW191634   1.007  10.255   7.034 -0.6225 -0.3778 -0.3725
61528SOL    HW291635   0.963  10.148   6.937  0.2753  0.5307 -1.8100
61529SOL     OW91636   7.037   9.646   6.225  0.1596 -0.1207 -0.4035
61529SOL    HW191637   7.056   9.722   6.169  1.0601 -0.2561 -0.2976
61529SOL    HW291638   7.037   9.571   6.164  2.7734 -0.4942 -0.0400
61530SOL     OW91639   9.800  12.302  11.649 -0.7373  0.2942  0.1481
61530SOL    HW191640   9.848  12.319  11.568  2.5663  0.3078  1.9448
61530SOL    HW291641   9.775  12.388  11.681  0.1239  0.4957  0.3157
61531SOL     OW91642  10.191   7.382   6.369 -0.1273 -0.1906  0.2556
61531SOL    HW191643  10.126   7.315   6.347 -0.8547  0.2703  0.9621
61531SOL    HW291644  10.275   7.342   6.345 -0.5807 -1.1917  0.2810
61532SOL     OW91645   8.620  10.109   8.990  0.0095 -0.0086 -0.4167
61532SOL    HW191646   8.633  10.194   9.033  2.3606  0.0877 -1.2005
61532SOL    HW291647   8.665  10.117   8.906 -1.0163 -1.5551 -1.1649
61533SOL     OW91648   3.920   2.886   4.638  0.4635 -0.4795 -0.9509
61533SOL    HW191649   4.010   2.918   4.633 -0.4749  2.4984 -1.1523
61533SOL    HW291650   3.897   2.863   4.548  0.0753  1.9184 -1.5252
61534SOL     OW91651   3.227  10.797   1.210  0.5143 -0.1719  0.3060
61534SOL    HW191652   3.319  10.825   1.212  0.7480 -0.9090  0.4290
61534SOL    HW291653   3.221  10.744   1.131 -0.5585  2.2675 -1.3391
61535SOL     OW91654   0.680   9.951   2.268 -0.6261  0.1454  0.5643
61535SOL    HW191655   0.757   9.957   2.324 -2.0464  2.9446  2.4805
61535SOL    HW291656   0.662   9.857   2.263  0.9959 -0.3920  2.8196
61536SOL     OW91657   4.538   8.233  12.072  0.5102  0.6449 -0.3220
61536SOL    HW191658   4.454   8.276  12.057  0.1441  1.3004  2.9777
61536SOL    HW291659   4.516   8.149  12.111  1.3973 -0.1741 -1.4918
61537SOL     OW91660  10.319   6.127   1.784  0.2333 -0.3540  0.0487
61537SOL    HW191661  10.368   6.208   1.801 -0.4797  0.5434 -1.8263
61537SOL    HW291662  10.353   6.097   1.700 -3.3869  1.2159 -2.2483
61538SOL     OW91663   6.493   6.613   9.634 -0.6806  0.5707 -0.5367
61538SOL    HW191664   6.438   6.540   9.662  0.5421 -0.5395 -0.9049
61538SOL    HW291665   6.461   6.634   9.546 -3.1696  2.7011  0.7426
61539SOL     OW91666   8.925   7.630   8.630 -0.3884 -0.1612 -0.3202
61539SOL    HW191667   8.832   7.623   8.651 -0.0070 -0.7179  1.3098
61539SOL    HW291668   8.927   7.677   8.546 -2.1072  0.2260 -0.1837
61540SOL     OW91669   4.690   5.774   2.900  0.4081 -0.4185  0.0117
61540SOL    HW191670   4.760   5.828   2.865  1.6590 -2.0532 -0.1151
61540SOL    HW291671   4.610   5.810   2.861  0.9875  2.1767  1.0114
61541SOL     OW91672   8.808  11.766   1.844  0.1335 -0.3633  0.0184
61541SOL    HW191673   8.761  11.842   1.811  1.2397  0.9280  1.2945
61541SOL    HW291674   8.894  11.770   1.802  0.0860 -1.1320 -0.1754
61542SOL     OW91675  10.912   9.755   5.366  0.5710 -0.3426 -0.0639
61542SOL    HW191676  10.885   9.761   5.274 -1.2672  0.6476  0.4986
61542SOL    HW291677  10.952   9.840   5.385  0.7672 -0.4722  0.1066
61543SOL     OW91678   6.372   1.027   3.044  0.2678 -0.3186  0.0376
61543SOL    HW191679   6.368   0.981   2.960  0.9996 -0.9853  0.3516
61543SOL    HW291680   6.345   0.962   3.108 -0.4631  0.2415  0.3161
61544SOL     OW91681   9.411   9.138   9.569 -0.2433  0.3649 -0.5829
61544SOL    HW191682   9.431   9.230   9.550 -0.9042  0.5468 -0.4193
61544SOL    HW291683   9.396   9.136   9.664 -0.2605  0.0944 -0.5910
61545SOL     OW91684  10.228   3.675   4.310  0.2601  0.2840  0.1529
61545SOL    HW191685  10.166   3.738   4.272  2.0935  1.8801 -0.3620
61545SOL    HW291686  10.231   3.603   4.247 -2.5945 -0.8985  1.2099
61546SOL     OW91687   0.575   9.542   9.731  0.0636 -0.5042  0.0409
61546SOL    HW191688   0.513   9.534   9.659 -0.3326 -0.5866  0.3895
61546SOL    HW291689   0.524   9.577   9.804  0.9155  1.5809 -0.3056
61547SOL     OW91690   7.088   1.692   9.483  0.0940  0.5762  0.2283
61547SOL    HW191691   7.059   1.614   9.436 -0.5501  1.6175 -1.1752
61547SOL    HW291692   7.117   1.752   9.415  2.0567  1.0197  1.3616
61548SOL     OW91693   1.600   6.303   0.210  0.0628 -0.0380 -0.4245
61548SOL    HW191694   1.520   6.354   0.202 -0.2468 -0.0447  1.8745
61548SOL    HW291695   1.587   6.228   0.151 -0.3740  1.3717 -2.2003
61549SOL     OW91696  11.432   9.926  11.508 -0.1044 -0.7436 -0.0033
61549SOL    HW191697  11.456  10.017  11.492 -1.5930 -0.4965 -1.0988
61549SOL    HW291698  11.501   9.875  11.466  0.3891 -0.1200  0.0319
61550SOL     OW91699   0.408   8.279   5.595  0.1530 -0.4322  0.1260
61550SOL    HW191700   0.445   8.353   5.643 -1.9331 -0.4350  1.8548
61550SOL    HW291701   0.331   8.314   5.552  0.2987 -1.1580 -0.7699
61551SOL     OW91702   6.674  11.779  11.117  0.3468 -0.4210  0.5952
61551SOL    HW191703   6.721  11.744  11.041  1.0344 -0.2785  0.9446
61551SOL    HW291704   6.731  11.849  11.150  0.3159 -0.8298  1.5503
61552SOL     OW91705   2.944  12.012   7.413 -0.0074  0.3991 -0.4094
61552SOL    HW191706   2.858  12.020   7.454 -0.6101 -2.9077 -0.7623
61552SOL    HW291707   2.944  12.077   7.343 -1.9125  0.9718  0.0666
61553SOL     OW91708   9.890  10.115   0.865  0.1721 -0.2389 -0.0380
61553SOL    HW191709   9.981  10.089   0.852  0.1474 -1.1225  1.3344
61553SOL    HW291710   9.842  10.073   0.793  0.7010 -0.6159 -0.1747
61554SOL     OW91711   3.796   8.692   2.965 -0.1571  0.4191 -0.1707
61554SOL    HW191712   3.759   8.633   3.032 -0.8699  0.3376 -0.6202
61554SOL    HW291713   3.731   8.762   2.957 -0.2120  0.2900 -0.9587
61555SOL     OW91714   2.508  10.225   2.235  0.4369 -0.4870  0.0930
61555SOL    HW191715   2.421  10.201   2.268  1.0186 -1.4124  1.0185
61555SOL    HW291716   2.511  10.320   2.244 -0.1750 -0.5284  0.8677
61556SOL     OW91717  11.009   2.543  12.008 -0.1109 -0.7805  0.1829
61556SOL    HW191718  10.986   2.623  11.960  0.8027 -1.6967 -1.9242
61556SOL    HW291719  11.018   2.571  12.099  2.5330  2.0811 -0.7854
61557SOL     OW91720   1.341   2.116   0.662  0.4286 -0.3354 -0.4603
61557SOL    HW191721   1.362   2.090   0.751 -0.3975  0.9739  0.1422
61557SOL    HW291722   1.247   2.131   0.662  0.3414 -0.7270 -1.6742
61558SOL     OW91723   2.507   8.029   6.838  0.4314  0.2235  0.0858
61558SOL    HW191724   2.550   7.947   6.864 -0.9637 -0.3550  0.7070
61558SOL    HW291725   2.414   8.011   6.851  0.1640  2.4482  1.9122
61559SOL     OW91726   9.406   1.484   8.021 -0.1380 -0.4147  0.2917
61559SOL    HW191727   9.349   1.408   8.029  2.0331 -2.2389 -0.7750
61559SOL    HW291728   9.422   1.493   7.928  0.8366  0.4433  0.5275
61560SOL     OW91729   7.912   0.385   9.671 -0.0196  0.7388  0.2380
61560SOL    HW191730   7.832   0.436   9.679 -0.8115 -0.5433  0.9662
61560SOL    HW291731   7.963   0.429   9.603 -0.8060  2.2547  0.5830
61561SOL     OW91732   6.455   6.137   2.670  0.3626  0.1953 -0.3998
61561SOL    HW191733   6.460   6.183   2.754 -0.9554 -0.9269  0.3354
61561SOL    HW291734   6.546   6.126   2.643  0.7991  0.8032  0.7475
61562SOL     OW91735   2.830   5.236   3.337  0.6642 -0.0537 -0.7351
61562SOL    HW191736   2.825   5.146   3.304 -0.2626  0.0190 -0.8259
61562SOL    HW291737   2.887   5.281   3.275  0.1242 -0.2810 -1.4107
61563SOL     OW91738   1.767   4.261   5.890 -0.1650  0.0271 -0.0833
61563SOL    HW191739   1.785   4.255   5.984 -0.4876 -0.5746 -0.0534
61563SOL    HW291740   1.832   4.323   5.856 -0.1297  0.3465  0.5562
61564SOL     OW91741   8.847   8.741  10.815 -0.1805  0.3515 -0.1454
61564SOL    HW191742   8.870   8.774  10.902 -0.4204 -1.2793  0.5573
61564SOL    HW291743   8.915   8.676  10.796  0.4464  1.3827 -1.6309
61565SOL     OW91744   7.425   6.112   2.831 -0.4936 -0.5773  0.6156
61565SOL    HW191745   7.394   6.024   2.811 -0.4433 -0.8621  1.7609
61565SOL    HW291746   7.420   6.158   2.747  1.7690 -2.3071 -0.5738
61566SOL     OW91747   5.683  11.233   1.317  0.8116  0.1499 -0.4277
61566SOL    HW191748   5.749  11.300   1.298  1.8017  0.0976  2.3521
61566SOL    HW291749   5.619  11.277   1.372  0.6148 -0.7705  0.1074
61567SOL     OW91750  11.808   5.455   9.776 -0.2486  0.0129  0.0979
61567SOL    HW191751  11.837   5.447   9.685 -2.6051 -1.3326 -0.6297
61567SOL    HW291752  11.790   5.365   9.803 -0.1622  0.4525  1.7152
61568SOL     OW91753  10.040   9.466   9.306 -0.2611 -0.3290  0.0144
61568SOL    HW191754   9.961   9.480   9.253  1.1295 -0.4917 -2.2113
61568SOL    HW291755  10.087   9.549   9.302  1.5192 -1.3205 -2.0225
61569SOL     OW91756   9.388  10.393  12.435 -0.4833 -0.0391 -0.0059
61569SOL    HW191757   9.446  10.385  12.511 -0.8501 -0.7965  0.2035
61569SOL    HW291758   9.422  10.330  12.372 -0.6220  0.0642 -0.1867
61570SOL     OW91759   5.653   4.438  10.777 -0.0966  0.6896  0.4863
61570SOL    HW191760   5.599   4.516  10.795 -1.1825 -0.2042  1.2981
61570SOL    HW291761   5.631   4.378  10.848  0.4581 -0.4995 -0.3263
61571SOL     OW91762   9.570   8.719   4.136 -0.1586 -0.1249  0.3002
61571SOL    HW191763   9.526   8.794   4.175  0.1754  0.6753 -0.8297
61571SOL    HW291764   9.656   8.752   4.109 -0.4073 -0.6025 -1.1953
61572SOL     OW91765   6.904   2.667   5.313  0.4828  0.2848  0.1610
61572SOL    HW191766   6.940   2.741   5.361  1.2160  0.1061 -0.1100
61572SOL    HW291767   6.844   2.706   5.249  1.0379  0.6691 -0.1310
61573SOL     OW91768  11.897   2.400   8.992  0.3940  0.2290  0.1291
61573SOL    HW191769  11.893   2.330   9.057  2.7873 -0.5691 -0.4829
61573SOL    HW291770  11.985   2.394   8.956  0.5994  3.3852 -0.1702
61574SOL     OW91771   2.971   3.346   8.877  0.5216 -0.3383 -0.3549
61574SOL    HW191772   2.995   3.349   8.970 -0.4613  1.7708 -0.1057
61574SOL    HW291773   2.886   3.389   8.873  0.7378 -0.0264 -2.2943
61575SOL     OW91774   0.402   6.171  10.573 -0.6462  0.2079  0.1561
61575SOL    HW191775   0.388   6.143  10.664  0.6761 -0.2339  0.2466
61575SOL    HW291776   0.336   6.239  10.558 -1.1913 -0.0493  1.2899
61576SOL     OW91777   8.757   2.901   2.158 -0.3627 -0.5541  0.0663
61576SOL    HW191778   8.794   2.835   2.216  1.1430  1.4765  1.5374
61576SOL    HW291779   8.669   2.917   2.193  0.3401  0.2713  1.5658
61577SOL     OW91780   3.872   4.949  12.211 -0.0332  0.0338  0.3299
61577SOL    HW191781   3.930   5.004  12.263  1.3048  0.7661 -1.8254
61577SOL    HW291782   3.912   4.862  12.215  0.4532  0.2377 -0.0287
61578SOL     OW91783   9.913   1.118   8.071  0.2463 -0.8624 -0.1084
61578SOL    HW191784   9.830   1.106   8.118  0.1349 -0.2362 -0.1334
61578SOL    HW291785   9.889   1.168   7.994  1.0113  1.6575  1.1791
61579SOL     OW91786   4.750   0.101   2.885  0.4368  0.9315  0.5085
61579SOL    HW191787   4.689   0.153   2.938  0.2797  1.4166 -0.1375
61579SOL    HW291788   4.831   0.099   2.937 -0.3388 -0.3574  1.7197
61580SOL     OW91789  12.200   1.978   8.253 -0.1097 -0.3429 -0.3266
61580SOL    HW191790  12.176   1.889   8.228  1.8999 -0.9062 -0.4011
61580SOL    HW291791  12.295   1.981   8.243 -0.1366  1.8208 -0.3187
61581SOL     OW91792   9.153   6.420   6.269  0.2029  0.6225 -0.4417
61581SOL    HW191793   9.091   6.383   6.331  0.6822 -1.2859 -1.0605
61581SOL    HW291794   9.135   6.375   6.186 -0.1981  2.8671 -1.6683
61582SOL     OW91795   2.031   0.311   5.229 -0.0454  0.3448  0.0817
61582SOL    HW191796   2.077   0.395   5.229 -0.9145  0.8284 -0.7679
61582SOL    HW291797   1.938   0.333   5.222 -0.2049 -0.7192 -1.8601
61583SOL     OW91798   2.935   6.294   5.895 -0.4971  0.0124 -0.1145
61583SOL    HW191799   2.851   6.250   5.908  0.4214 -1.2366  2.0292
61583SOL    HW291800   2.943   6.353   5.970 -0.6380  2.1969 -1.7199
61584SOL     OW91801   8.083   3.025  12.460  0.5135 -0.5968  0.0917
61584SOL    HW191802   8.162   3.079  12.454 -0.3846  0.8076  0.4348
61584SOL    HW291803   8.091   2.963  12.388  2.2270 -0.8984  0.4979
61585SOL     OW91804   4.473   7.603  11.775 -0.0791  0.1352  0.2940
61585SOL    HW191805   4.432   7.664  11.837  0.4127  0.1002  0.6615
61585SOL    HW291806   4.458   7.643  11.689  2.5141  2.2308  0.6677
61586SOL     OW91807  11.171   0.495   7.469 -0.3022 -0.4992 -0.0143
61586SOL    HW191808  11.089   0.446   7.470 -1.1896  0.6733 -3.1337
61586SOL    HW291809  11.145   0.585   7.491  0.3888 -0.3960  0.3898
61587SOL     OW91810   1.493  11.444   3.351  0.3517  0.4811  0.0198
61587SOL    HW191811   1.423  11.476   3.294  0.8030  1.0168 -0.2351
61587SOL    HW291812   1.448  11.419   3.432 -0.3882 -0.9172 -0.7810
61588SOL     OW91813  10.247   6.491  12.310  0.3393  0.2032  0.4483
61588SOL    HW191814  10.153   6.490  12.330  0.1737  1.8055 -0.0280
61588SOL    HW291815  10.273   6.583  12.324  1.5308  0.0755 -0.7361
61589SOL     OW91816  12.308   1.456   1.440  0.0183 -0.2883 -0.1990
61589SOL    HW191817  12.272   1.544   1.449 -0.6819 -0.4917 -0.8857
61589SOL    HW291818  12.347   1.455   1.352 -1.6741 -1.2364 -0.9858
61590SOL     OW91819   0.111   6.340   0.299  0.1264  1.2133  0.1148
61590SOL    HW191820   0.076   6.373   0.216  1.2897  1.4000 -0.3226
61590SOL    HW291821   0.130   6.419   0.350  0.8757  1.1609 -0.0717
61591SOL     OW91822  11.719  11.281   5.193  0.3651 -0.0451  0.1567
61591SOL    HW191823  11.723  11.247   5.282  0.5764  1.5703  0.8131
61591SOL    HW291824  11.810  11.283   5.165  0.5004  1.0978  0.6074
61592SOL     OW91825   7.565   4.914   0.008  0.0113 -0.0054 -0.5017
61592SOL    HW191826   7.576   4.973   0.083 -1.6631  0.2694 -0.4515
61592SOL    HW291827   7.624   4.841   0.027  1.3990  1.1718 -0.0969
61593SOL     OW91828   3.898   2.854   5.688  0.1065  0.6459 -0.7949
61593SOL    HW191829   3.879   2.924   5.751 -0.6308 -0.0579 -0.2065
61593SOL    HW291830   3.834   2.786   5.708  1.4955 -0.6741 -0.6176
61594SOL     OW91831   0.852  10.626  10.182 -0.0285 -0.1054  0.2222
61594SOL    HW191832   0.857  10.668  10.268  0.2989 -1.4982  0.9131
61594SOL    HW291833   0.926  10.663  10.134  0.2377  0.1441  0.8073
61595SOL     OW91834   0.764   9.761   2.553 -0.2599  0.6339  0.1066
61595SOL    HW191835   0.804   9.675   2.538 -2.1120 -0.5733  1.6449
61595SOL    HW291836   0.836   9.816   2.582  0.8167 -0.6253 -0.0650
61596SOL     OW91837   5.311   6.028   9.300 -0.0975 -0.5848  0.1799
61596SOL    HW191838   5.309   6.079   9.219 -0.0455 -0.6250  0.1531
61596SOL    HW291839   5.230   5.977   9.297  0.5340 -1.5885 -0.4973
61597SOL     OW91840   0.564  12.278  11.208 -0.0228 -0.6393 -0.0450
61597SOL    HW191841   0.652  12.246  11.186  0.3432  0.3159 -0.0047
61597SOL    HW291842   0.507  12.201  11.197  0.4744 -0.7757 -2.1797
61598SOL     OW91843   6.627  10.303   9.056  0.9789  0.0255  0.0830
61598SOL    HW191844   6.641  10.322   8.963  3.2338 -2.0733 -0.1064
61598SOL    HW291845   6.652  10.383   9.101 -1.6238  1.6442 -1.0825
61599SOL     OW91846  11.696  10.336   1.149 -0.0708  0.3847 -0.0276
61599SOL    HW191847  11.750  10.269   1.106 -0.1205 -0.3259  0.9864
61599SOL    HW291848  11.618  10.342   1.093 -1.3404 -2.4112  1.2194
61600SOL     OW91849  11.970   9.971   5.933 -0.1193 -0.5649  0.1786
61600SOL    HW191850  11.914   9.894   5.943  0.0737 -0.7761 -0.3296
61600SOL    HW291851  11.963  10.017   6.017 -1.6023 -0.2116 -0.0980
61601SOL     OW91852   0.638   4.715   6.028  0.1841  0.3621  0.1620
61601SOL    HW191853   0.583   4.638   6.013 -1.9930  2.1490 -1.6393
61601SOL    HW291854   0.711   4.682   6.081 -1.5211 -2.5466  0.8998
61602SOL     OW91855   2.296   0.599   9.926  0.4417  0.3465 -1.4172
61602SOL    HW191856   2.356   0.667   9.957 -0.0521  1.2313 -2.3740
61602SOL    HW291857   2.252   0.637   9.850 -0.8444 -0.5377 -1.1546
61603SOL     OW91858   3.310   3.464  10.085  0.3614 -0.2095 -0.5874
61603SOL    HW191859   3.370   3.539  10.084  1.8410 -1.3426 -1.6765
61603SOL    HW291860   3.352   3.401  10.144  0.4058 -1.1299 -1.5796
61604SOL     OW91861   4.983   8.531   0.029 -0.3293  0.2711  0.4378
61604SOL    HW191862   4.896   8.570   0.043 -0.4746  0.4484 -0.8898
61604SOL    HW291863   4.975   8.443   0.065 -0.9080  0.4434  0.7555
61605SOL     OW91864   9.272   9.247   3.093 -0.2384 -0.0025  0.7580
61605SOL    HW191865   9.267   9.242   3.188  0.1220  0.7131  0.8208
61605SOL    HW291866   9.185   9.221   3.063 -0.3221 -0.3248  1.2801
61606SOL     OW91867   7.649   2.036   3.071 -0.2599  0.1983  0.1278
61606SOL    HW191868   7.586   1.968   3.097  0.3837 -1.0096 -1.3160
61606SOL    HW291869   7.716   2.034   3.139 -0.9229  0.3184  0.7951
61607SOL     OW91870   7.122   4.584   2.386 -0.3067 -0.3134 -0.8068
61607SOL    HW191871   7.132   4.502   2.338 -1.9011 -1.1116  0.0969
61607SOL    HW291872   7.039   4.573   2.433 -0.7335  1.9697 -0.9246
61608SOL     OW91873  11.639   1.215  11.625  0.1087  0.1483  0.7061
61608SOL    HW191874  11.629   1.171  11.709 -0.0661 -0.5784  0.3098
61608SOL    HW291875  11.550   1.243  11.602  0.3118  1.3627  1.2903
61609SOL     OW91876   4.570   3.657   5.052 -0.1106 -0.4900  0.4060
61609SOL    HW191877   4.507   3.633   4.985  0.0508  0.8197 -0.2448
61609SOL    HW291878   4.613   3.575   5.075  0.8453 -0.7749 -2.1293
61610SOL     OW91879   5.225   8.193  10.460  0.2613 -0.8975 -0.3145
61610SOL    HW191880   5.204   8.155  10.375 -1.3294 -1.2995  0.2258
61610SOL    HW291881   5.303   8.246  10.444 -0.8260  0.2086 -2.3525
61611SOL     OW91882  10.067   3.396   7.812 -0.1894  0.4240 -0.4044
61611SOL    HW191883  10.075   3.402   7.907 -1.6138 -0.8512 -0.1687
61611SOL    HW291884   9.991   3.450   7.791  0.3965  1.0765 -0.8933
61612SOL     OW91885  12.232   7.212  10.618 -0.3822 -0.8159  0.7975
61612SOL    HW191886  12.193   7.215  10.531 -1.3209 -1.7550  1.1591
61612SOL    HW291887  12.285   7.292  10.623  2.0358 -2.1251 -1.6625
61613SOL     OW91888   7.459  12.122   7.435 -0.2948 -0.4743 -0.5920
61613SOL    HW191889   7.434  12.047   7.381 -1.0253 -1.1649  0.6529
61613SOL    HW291890   7.379  12.173   7.444 -0.3215 -0.6639  0.2863
61614SOL     OW91891  10.618   2.145   7.661  0.2288  0.3307  0.5732
61614SOL    HW191892  10.638   2.071   7.717  0.3997  0.9960  1.4049
61614SOL    HW291893  10.530   2.172   7.687  1.0357  1.8416  1.9065
61615SOL     OW91894   0.414   3.216  10.614  0.1555  0.6115  0.3485
61615SOL    HW191895   0.427   3.273  10.539  0.1579  1.0228  0.6559
61615SOL    HW291896   0.330   3.243  10.651  0.5827  1.0505  1.0345
61616SOL     OW91897  10.148   7.577   0.800 -0.1439 -0.5466  0.0331
61616SOL    HW191898  10.137   7.631   0.878 -0.9890 -0.1086 -0.3754
61616SOL    HW291899  10.207   7.626   0.744  1.3557 -1.3695  0.8410
61617SOL     OW91900   7.841  11.022   9.184 -0.3108 -0.2711 -0.0640
61617SOL    HW191901   7.817  11.086   9.117 -0.4992 -1.3914 -1.1078
61617SOL    HW291902   7.759  11.005   9.230 -0.3163  0.0461  0.0448
61618SOL     OW91903  10.250   7.607  10.072  0.1177  0.6512  0.1117
61618SOL    HW191904  10.167   7.649  10.049 -1.0411 -1.9412 -0.8218
61618SOL    HW291905  10.232   7.564  10.156  0.4142 -0.1001 -0.2003
61619SOL     OW91906  10.732   0.508   7.903  0.6222 -0.0822  0.6149
61619SOL    HW191907  10.771   0.426   7.935  1.4197  0.4693  1.1156
61619SOL    HW291908  10.642   0.485   7.881  0.7613 -1.0363  0.9786
61620SOL     OW91909   1.215  12.535  12.327 -0.2051 -0.3675 -0.3715
61620SOL    HW191910   1.275  12.547  12.253 -0.4520  0.7193 -0.4119
61620SOL    HW291911   1.208  12.440  12.337  0.1741 -0.5259 -1.4641
61621SOL     OW91912   1.335   1.955   1.222 -0.1238  0.5417 -0.3720
61621SOL    HW191913   1.414   2.002   1.248 -1.0420  2.5935 -0.9949
61621SOL    HW291914   1.284   1.947   1.302  1.1269 -1.7659  0.2528
61622SOL     OW91915   1.243  12.158  12.072  0.2867 -0.1158 -0.3443
61622SOL    HW191916   1.338  12.145  12.073  0.4201  0.5617 -1.9642
61622SOL    HW291917   1.228  12.223  12.004 -1.2837  0.4191  0.4632
61623SOL     OW91918   3.805   7.545   1.143 -1.0285 -0.4951  0.7506
61623SOL    HW191919   3.799   7.625   1.195 -1.9595 -1.6928  2.5938
61623SOL    HW291920   3.891   7.509   1.163 -0.0168  0.6754 -1.1653
61624SOL     OW91921  10.814   1.492   1.374 -0.0656  0.0483  0.2102
61624SOL    HW191922  10.784   1.566   1.426  1.4875  2.5087 -2.1016
61624SOL    HW291923  10.872   1.531   1.308  0.5523 -3.2090 -1.3900
61625SOL     OW91924   5.677   9.380   4.430 -1.1314  0.9997  0.0085
61625SOL    HW191925   5.638   9.451   4.482 -1.8795 -1.7781  3.6444
61625SOL    HW291926   5.603   9.342   4.382 -1.2761  0.9900  0.2350
61626SOL     OW91927   5.279   1.895   9.700  0.0781  0.5268  0.2309
61626SOL    HW191928   5.244   1.922   9.615  1.3778  0.5622 -0.3190
61626SOL    HW291929   5.210   1.842   9.739  0.7413 -2.5472 -2.3836
61627SOL     OW91930  10.299   7.303   8.274 -0.7873 -0.1186  0.5950
61627SOL    HW191931  10.313   7.220   8.228 -1.2031  0.1874 -0.0920
61627SOL    HW291932  10.370   7.359   8.244 -2.6797  1.0607 -2.0176
61628SOL     OW91933   8.729   0.017   8.886  0.8694  0.6006 -0.6552
61628SOL    HW191934   8.642   0.029   8.848 -0.1107  0.7808  1.4996
61628SOL    HW291935   8.774  -0.042   8.826 -1.0643 -0.2523 -1.3330
61629SOL     OW91936   6.008   7.396   3.480  0.3545  0.0356 -0.1311
61629SOL    HW191937   6.045   7.313   3.450 -0.7252 -0.4945 -0.0806
61629SOL    HW291938   6.046   7.410   3.566  0.8819 -0.1908 -0.3270
61630SOL     OW91939   4.145   4.042   5.433  0.0173 -0.0589  0.7711
61630SOL    HW191940   4.197   3.969   5.466 -0.5510 -0.8352 -0.0022
61630SOL    HW291941   4.054   4.015   5.448 -0.1860  0.8424  1.2041
61631SOL     OW91942   2.570   0.898   5.095 -0.3459 -0.0386 -0.0775
61631SOL    HW191943   2.486   0.860   5.122 -0.5258  0.5680  0.2310
61631SOL    HW291944   2.548   0.987   5.069  0.2972  0.3131  0.5729
61632SOL     OW91945   7.021   2.926   4.847  0.0578  0.3743 -0.1971
61632SOL    HW191946   6.947   2.982   4.824 -1.6201 -1.3620  0.6775
61632SOL    HW291947   6.995   2.883   4.928  1.8354 -0.6662 -0.1133
61633SOL     OW91948   5.690   4.034   2.730 -0.0137 -0.0151  0.4738
61633SOL    HW191949   5.665   3.947   2.700 -1.9852  1.8684 -4.1513
61633SOL    HW291950   5.614   4.066   2.778 -0.3914  0.1329 -0.2176
61634SOL     OW91951   8.804  10.107   2.006  0.1318  0.1187  0.3159
61634SOL    HW191952   8.741  10.110   1.933 -0.0344  0.2880  0.4647
61634SOL    HW291953   8.762  10.049   2.070  0.4097 -0.2611  0.1558
61635SOL     OW91954   3.419   0.729  11.606 -0.4441  0.1493  0.3000
61635SOL    HW191955   3.335   0.693  11.636  0.3234 -2.3056 -0.2564
61635SOL    HW291956   3.435   0.685  11.523 -0.1911  3.1607 -1.3876
61636SOL     OW91957   0.970   9.881  11.909  0.3704  0.5623 -0.0123
61636SOL    HW191958   1.031   9.951  11.932  0.7012  0.9582 -1.9123
61636SOL    HW291959   0.965   9.884  11.813 -0.4425 -1.3164 -0.0778
61637SOL     OW91960   7.670   2.992  10.309 -0.4983  0.9057  0.4583
61637SOL    HW191961   7.591   3.039  10.282 -1.4696 -0.6186  0.5020
61637SOL    HW291962   7.671   2.913  10.254 -0.6893 -0.6132  2.5095
61638SOL     OW91963   8.594   7.676   1.934 -0.0699 -0.4729  0.5357
61638SOL    HW191964   8.525   7.641   1.991  0.0810 -1.5548  0.0747
61638SOL    HW291965   8.628   7.751   1.982 -1.2928 -0.1600  0.9569
61639SOL     OW91966   0.428   6.763   1.925 -0.1950 -0.0937 -0.2253
61639SOL    HW191967   0.453   6.746   1.834  1.3240  0.4225  0.0673
61639SOL    HW291968   0.333   6.775   1.923 -0.6407 -3.0633 -1.2808
61640SOL     OW91969   4.529   9.267   9.398  0.5158 -0.8908  0.3539
61640SOL    HW191970   4.578   9.347   9.414  0.8674 -1.4279  2.1036
61640SOL    HW291971   4.465   9.291   9.330  1.9092  0.3163 -0.5826
61641SOL     OW91972   0.648   2.847   5.884 -0.6342  0.0165  0.2868
61641SOL    HW191973   0.652   2.875   5.793 -1.8175  0.3840  0.3310
61641SOL    HW291974   0.604   2.920   5.930 -0.1601 -0.2088  1.1286
61642SOL     OW91975   7.735  12.313  11.946  0.0879 -0.0992 -0.4243
61642SOL    HW191976   7.675  12.281  12.013 -0.7475  2.6160  0.2831
61642SOL    HW291977   7.727  12.409  11.951  1.6896  0.2581 -2.8935
61643SOL     OW91978   8.231   9.754   1.829  0.3894  0.1907  0.5432
61643SOL    HW191979   8.141   9.787   1.833  0.0554 -0.7657  1.4183
61643SOL    HW291980   8.285   9.827   1.857  0.0664  1.3396 -1.6168
61644SOL     OW91981   7.484   2.197   6.327  0.4050  0.2765  0.0379
61644SOL    HW191982   7.410   2.209   6.387  0.5579  1.4927  0.0037
61644SOL    HW291983   7.508   2.105   6.337 -2.9751 -1.0180 -2.1365
61645SOL     OW91984   6.493  11.647   4.525 -0.1375 -0.8157 -0.4898
61645SOL    HW191985   6.443  11.681   4.451 -1.0773  1.0930  0.9397
61645SOL    HW291986   6.441  11.574   4.558 -1.4516  0.4476  0.2953
61646SOL     OW91987   1.992  10.771  11.598 -0.1027  0.2607  0.1347
61646SOL    HW191988   2.083  10.744  11.605 -0.3945 -0.4856  1.3768
61646SOL    HW291989   1.983  10.843  11.660 -0.8236 -1.0533  1.6268
61647SOL     OW91990   7.499   3.863   4.991  0.0447 -0.6068 -0.0217
61647SOL    HW191991   7.542   3.818   4.918 -1.8094 -1.6760 -0.5387
61647SOL    HW291992   7.437   3.799   5.025 -1.8486  1.1170  0.0034
61648SOL     OW91993   8.201  10.871   0.727  0.1575 -0.0600 -1.1217
61648SOL    HW191994   8.182  10.790   0.773 -2.3420  1.4137  0.7100
61648SOL    HW291995   8.244  10.927   0.792 -0.3078  0.8856 -1.6013
61649SOL     OW91996   8.071  12.530   3.946  0.0930 -0.3704 -0.5512
61649SOL    HW191997   8.101  12.596   3.883 -2.6551 -1.2004 -2.9668
61649SOL    HW291998   8.111  12.448   3.916  0.2609 -0.4726 -0.0569
61650SOL     OW91999   7.386   4.790   3.519  0.4518 -0.2195 -0.4449
61650SOL    HW192000   7.407   4.777   3.427  0.2027 -1.8628 -0.3098
61650SOL    HW292001   7.346   4.707   3.546 -0.1412  0.4866  0.9581
61651SOL     OW92002   0.576  11.406   0.575 -0.2693 -0.5649  0.1415
61651SOL    HW192003   0.536  11.428   0.491  3.6175 -2.5491 -2.5671
61651SOL    HW292004   0.548  11.315   0.591  0.1967 -0.7092  0.1491
61652SOL     OW92005  10.271   2.535   2.234 -0.8790  0.0338 -0.1397
61652SOL    HW192006  10.222   2.471   2.286 -0.7129  0.2699  0.3108
61652SOL    HW292007  10.261   2.618   2.281  1.2137 -0.1987  0.8287
61653SOL     OW92008   5.269   2.609   7.602  0.1754  0.1564  0.3158
61653SOL    HW192009   5.236   2.669   7.534  0.2567 -1.4723 -1.2429
61653SOL    HW292010   5.272   2.662   7.681  0.2961  2.2392 -0.9895
61654SOL     OW92011  10.827   1.893   2.002 -0.5319  0.1785 -0.3297
61654SOL    HW192012  10.913   1.917   2.036 -1.8562  1.5332  2.3497
61654SOL    HW292013  10.781   1.854   2.076 -2.0295 -1.2096 -1.8800
61655SOL     OW92014   7.311   3.089   2.453 -0.0016 -0.3299 -0.1675
61655SOL    HW192015   7.265   3.171   2.438  0.5843 -0.2813 -1.9907
61655SOL    HW292016   7.242   3.027   2.477 -0.6654  0.3341 -0.3295
61656SOL     OW92017   5.771  11.585   4.569 -0.2028 -0.2580  0.3119
61656SOL    HW192018   5.860  11.549   4.575  1.2475  2.6140 -1.5403
61656SOL    HW292019   5.720  11.517   4.526  1.3901 -1.5535  0.3933
61657SOL     OW92020  11.619  10.176   8.818 -0.2704 -0.4761 -0.3880
61657SOL    HW192021  11.541  10.150   8.866 -2.0185  1.7027 -1.8352
61657SOL    HW292022  11.618  10.121   8.739 -0.1607 -0.6342 -0.2816
61658SOL     OW92023   2.779  10.715   5.072  0.0092  0.0374  0.6637
61658SOL    HW192024   2.853  10.656   5.084 -0.2416 -0.6097 -0.6736
61658SOL    HW292025   2.812  10.785   5.016 -0.7001 -1.0056 -1.1482
61659SOL     OW92026   6.260   3.006   7.424  0.1253  0.3134 -0.3238
61659SOL    HW192027   6.189   3.070   7.425  0.7725  1.0309 -0.1011
61659SOL    HW292028   6.233   2.943   7.356 -1.1144  0.1131  0.3188
61660SOL     OW92029   6.065   9.993   1.670  0.2465  0.8848 -0.2389
61660SOL    HW192030   6.098   9.980   1.581 -1.1691  1.2582 -0.8392
61660SOL    HW292031   6.024  10.080   1.667  0.7150  1.1658  0.9543
61661SOL     OW92032   0.882   4.443  12.185 -0.1998  0.2020  0.2081
61661SOL    HW192033   0.939   4.519  12.171  0.1554 -0.0914  0.0332
61661SOL    HW292034   0.793   4.477  12.175 -0.0148  0.3880 -0.9653
61662SOL     OW92035  10.496   0.334   2.780  0.2382  0.3151 -0.1678
61662SOL    HW192036  10.427   0.282   2.822 -0.6764  1.5236 -0.1044
61662SOL    HW292037  10.575   0.313   2.830  0.0157 -1.3610 -0.4515
61663SOL     OW92038  11.417  10.470   9.781 -0.3959 -0.1681  0.4600
61663SOL    HW192039  11.373  10.449   9.699 -1.5407 -0.1227  1.0415
61663SOL    HW292040  11.355  10.444   9.849 -0.8933  2.7813  1.2756
61664SOL     OW92041   8.511   9.395   2.478  0.0943  0.0292  0.6742
61664SOL    HW192042   8.466   9.311   2.489 -0.8479  0.5910  1.3319
61664SOL    HW292043   8.600   9.379   2.508  0.5096 -1.2518 -1.1342
61665SOL     OW92044   2.710   3.271   9.457  0.0463  0.6472 -0.1189
61665SOL    HW192045   2.722   3.330   9.383  1.1615 -0.3112 -0.7391
61665SOL    HW292046   2.616   3.259   9.463 -0.0656  0.7168 -1.4150
61666SOL     OW92047  11.346  10.347   2.141  0.1346 -0.1612  0.6113
61666SOL    HW192048  11.380  10.286   2.207  0.6138 -0.1775  0.3516
61666SOL    HW292049  11.269  10.301   2.105  0.4810 -0.6063  0.4294
61667SOL     OW92050   9.183   9.706   7.792 -0.5055  0.8860 -0.2635
61667SOL    HW192051   9.264   9.755   7.787 -0.8189  1.5103  0.5162
61667SOL    HW292052   9.126   9.759   7.848 -0.8001 -0.4208  0.7431
61668SOL     OW92053  12.325  10.780   0.405 -0.0676  0.0893 -0.2038
61668SOL    HW192054  12.324  10.876   0.403 -0.8938  0.0866 -0.3929
61668SOL    HW292055  12.233  10.755   0.393  0.3795 -0.7734 -2.1776
61669SOL     OW92056   0.308  12.140   1.675 -0.3335  0.8071 -0.6139
61669SOL    HW192057   0.303  12.130   1.770 -0.8988 -3.8037 -0.9037
61669SOL    HW292058   0.217  12.132   1.645 -0.0447  1.1767 -1.6367
61670SOL     OW92059   0.595   8.939   5.146 -0.0089  0.3025  0.2633
61670SOL    HW192060   0.614   8.959   5.238 -3.8087  1.5312  0.9674
61670SOL    HW292061   0.554   9.019   5.113 -1.1856 -1.0340 -1.6728
61671SOL     OW92062   4.257  10.302  12.262 -0.6306 -0.3833 -0.3742
61671SOL    HW192063   4.174  10.254  12.273 -0.2314 -0.9504  0.2427
61671SOL    HW292064   4.304  10.254  12.195 -0.3745 -0.6660  0.0028
61672SOL     OW92065   6.591   2.321  11.008  0.0353 -0.6939  0.4523
61672SOL    HW192066   6.589   2.304  10.914 -2.0648  1.0893  0.0928
61672SOL    HW292067   6.652   2.395  11.017  0.4344 -1.0301  0.5434
61673SOL     OW92068   1.710   4.504   2.752  0.4848  0.3556  0.2686
61673SOL    HW192069   1.634   4.475   2.803 -0.6554  2.9661  0.2638
61673SOL    HW292070   1.681   4.500   2.661  0.9158 -0.0975  0.1488
61674SOL     OW92071  10.307   3.563   9.748 -0.0530 -0.2578 -0.2895
61674SOL    HW192072  10.270   3.543   9.834  1.0218 -3.8276 -0.4787
61674SOL    HW292073  10.395   3.527   9.751  0.1459 -0.1170 -2.7662
61675SOL     OW92074   7.381  10.371   3.804 -0.3445 -0.6802  0.4528
61675SOL    HW192075   7.313  10.310   3.773 -0.9826  1.2329 -2.2970
61675SOL    HW292076   7.349  10.457   3.777  1.6092  0.6512  2.1787
61676SOL     OW92077   9.644   5.532   0.211  0.1828 -0.0309 -0.4095
61676SOL    HW192078   9.716   5.585   0.247 -0.7064  0.6719  0.3767
61676SOL    HW292079   9.565   5.573   0.245 -0.5615 -1.7304  0.0263
61677SOL     OW92080   8.555   8.845   3.131 -0.0800 -0.0542 -0.4288
61677SOL    HW192081   8.541   8.791   3.053 -1.6812 -0.0823 -0.1434
61677SOL    HW292082   8.582   8.782   3.198  0.5209 -0.1393 -0.7408
61678SOL     OW92083   6.401   0.071   9.521 -0.7060 -0.8124 -0.4979
61678SOL    HW192084   6.364   0.005   9.581 -1.1042 -1.1812 -1.1429
61678SOL    HW292085   6.476   0.027   9.481 -0.0937 -0.3711  0.1381
61679SOL     OW92086   1.307  10.400   0.007  0.4518  0.1879  0.3345
61679SOL    HW192087   1.386  10.447   0.035  0.9224 -0.5689  0.2825
61679SOL    HW292088   1.235  10.450   0.047  1.0967 -1.1539  3.4586
61680SOL     OW92089   3.492   5.815   9.618  0.4731 -0.0797 -0.3186
61680SOL    HW192090   3.454   5.824   9.530  1.7348 -0.4552 -0.9241
61680SOL    HW292091   3.486   5.722   9.637  1.2285 -0.1661 -0.4898
61681SOL     OW92092   4.261   8.589   1.102 -0.1869 -0.3815  0.2660
61681SOL    HW192093   4.281   8.655   1.168  0.0299 -0.0743 -0.1008
61681SOL    HW292094   4.233   8.640   1.026 -0.2407 -0.7237  0.0575
61682SOL     OW92095   1.045  12.168   3.629 -0.0353  0.2512  0.0434
61682SOL    HW192096   0.953  12.176   3.604  0.0662  1.8141  0.0326
61682SOL    HW292097   1.044  12.167   3.725 -0.0619  0.6567  0.0525
61683SOL     OW92098  11.140   9.212   4.233 -0.0857 -0.1765 -0.0286
61683SOL    HW192099  11.147   9.117   4.234 -2.0065 -0.3730 -0.0386
61683SOL    HW292100  11.053   9.229   4.197 -0.3510  1.5192  1.2645
61684SOL     OW92101   9.813   1.388   1.846  0.2109  0.6738  0.4762
61684SOL    HW192102   9.857   1.373   1.930 -1.7549 -3.0121  1.0373
61684SOL    HW292103   9.885   1.396   1.783  1.7331 -0.5456  1.9597
61685SOL     OW92104   1.832   0.734   8.273 -0.0062  0.0150  0.2936
61685SOL    HW192105   1.780   0.684   8.211 -2.1129  0.9954  1.1868
61685SOL    HW292106   1.809   0.697   8.359  0.4554  0.7589  0.7526
61686SOL     OW92107   5.157  11.893   8.152 -0.2164  0.1514 -0.0435
61686SOL    HW192108   5.174  11.957   8.084  0.7404 -0.0108  0.0292
61686SOL    HW292109   5.237  11.841   8.157 -1.4070 -1.9250 -1.0266
61687SOL     OW92110   7.444   3.128   0.638 -0.3913 -0.0761 -0.1700
61687SOL    HW192111   7.522   3.158   0.686 -1.0399  2.2693 -0.4799
61687SOL    HW292112   7.458   3.034   0.628  2.4758  0.2669 -0.3328
61688SOL     OW92113  10.245  10.520  12.486  0.9412 -0.5889 -0.1668
61688SOL    HW192114  10.180  10.453  12.465  0.2686  0.0941 -0.3184
61688SOL    HW292115  10.299  10.527  12.408  0.4747 -0.3537 -0.4713
61689SOL     OW92116   7.158   9.430  11.125 -0.1063  0.2004 -0.1443
61689SOL    HW192117   7.217   9.357  11.142  0.2834  0.8411  1.4481
61689SOL    HW292118   7.212   9.508  11.143 -0.5110  0.9021 -1.7839
61690SOL     OW92119   9.172   2.554   9.255  0.4032 -0.4326  0.3947
61690SOL    HW192120   9.206   2.542   9.344 -0.2794 -1.1862  0.5644
61690SOL    HW292121   9.237   2.510   9.199  2.7432  2.9966  0.0990
61691SOL     OW92122  10.827  12.311   6.361 -0.3505  0.7362 -0.0450
61691SOL    HW192123  10.789  12.254   6.294 -1.5808  0.6737  0.6854
61691SOL    HW292124  10.885  12.370   6.312  0.4663 -0.7093 -0.8912
61692SOL     OW92125   5.712   1.804   6.290 -0.2477  0.3235  0.3725
61692SOL    HW192126   5.648   1.875   6.286 -1.7403 -1.0019 -0.9831
61692SOL    HW292127   5.710   1.765   6.203  3.3792  0.9553 -0.1330
61693SOL     OW92128   7.879   8.884   5.691  0.8531  0.1288  0.0569
61693SOL    HW192129   7.823   8.807   5.677 -1.0969  1.4342  0.1906
61693SOL    HW292130   7.965   8.848   5.709 -0.0601 -2.0470  0.4386
61694SOL     OW92131  10.110  11.531   2.284  0.6084  0.4078 -0.0574
61694SOL    HW192132  10.107  11.532   2.188 -2.0270  0.1017 -0.0509
61694SOL    HW292133  10.104  11.624   2.309 -0.0417  0.4135 -0.2097
61695SOL     OW92134   6.929   9.489   9.566 -0.1968 -0.0778  0.0682
61695SOL    HW192135   6.902   9.398   9.569 -1.4720  0.1932 -1.8145
61695SOL    HW292136   7.014   9.490   9.611  0.9863 -2.5945 -1.8758
61696SOL     OW92137  11.841   4.098   5.120 -0.4531 -0.1256  0.5678
61696SOL    HW192138  11.783   4.080   5.195 -0.1000  1.3167  1.2300
61696SOL    HW292139  11.788   4.153   5.062 -0.3400 -0.2750  0.3254
61697SOL     OW92140   7.539   3.069   3.685 -0.1662 -0.2290 -0.6849
61697SOL    HW192141   7.600   3.106   3.622  0.5712 -0.6372 -0.2225
61697SOL    HW292142   7.524   2.979   3.655  0.8861 -0.7197  0.1932
61698SOL     OW92143   2.002   2.354   3.826  0.2087 -0.3489 -0.1596
61698SOL    HW192144   1.925   2.321   3.873 -0.3554 -0.0753 -0.8851
61698SOL    HW292145   2.076   2.309   3.868 -0.3155 -0.4128  0.7215
61699SOL     OW92146   3.038   5.153   8.596  0.0391 -0.2520 -0.3655
61699SOL    HW192147   2.942   5.148   8.595  0.0153 -0.7281  1.2103
61699SOL    HW292148   3.062   5.127   8.685  1.5452  1.4077 -0.2361
61700SOL     OW92149   6.238  11.071  11.617  0.1546 -0.5830 -0.2383
61700SOL    HW192150   6.292  10.995  11.598 -0.3390 -1.0324  0.1596
61700SOL    HW292151   6.221  11.067  11.711 -1.7052 -1.2192 -0.5535
61701SOL     OW92152   6.776   5.163   6.402  0.4108 -0.0638  0.0217
61701SOL    HW192153   6.719   5.117   6.463  1.7799 -1.9892 -0.0627
61701SOL    HW292154   6.716   5.218   6.351 -1.0875 -0.4684  1.2578
61702SOL     OW92155   4.397  12.476  12.221  0.1196 -0.5595 -0.3316
61702SOL    HW192156   4.398  12.571  12.238  1.9107 -0.4098 -1.0407
61702SOL    HW292157   4.343  12.467  12.143  0.5415 -0.0277 -0.6946
61703SOL     OW92158   6.256  10.782  11.369  0.0683  0.6318  0.1577
61703SOL    HW192159   6.257  10.701  11.421 -1.2321  0.7507  0.4178
61703SOL    HW292160   6.321  10.838  11.410  1.3260 -0.4365 -0.3092
61704SOL     OW92161   4.677   9.071   3.936 -0.3959  0.3606  0.0112
61704SOL    HW192162   4.761   9.095   3.897  0.0129  2.5502  1.9809
61704SOL    HW292163   4.615   9.137   3.903 -1.3480 -1.0438 -1.1718
61705SOL     OW92164  11.958   6.662   1.718 -0.7634 -0.7952 -0.7439
61705SOL    HW192165  11.921   6.625   1.798  1.8516 -0.5051  0.7099
61705SOL    HW292166  11.968   6.588   1.659 -1.1189 -1.3085 -0.1668
61706SOL     OW92167   1.286   6.462   8.532 -0.2858 -0.2014  0.2632
61706SOL    HW192168   1.229   6.505   8.469 -1.4499  0.2225  1.5430
61706SOL    HW292169   1.353   6.418   8.479 -1.2204  0.1194 -1.2296
61707SOL     OW92170  12.589   8.417   6.025  0.2527  0.3011  0.1002
61707SOL    HW192171  12.610   8.487   5.962  1.2997 -0.3748 -0.3483
61707SOL    HW292172  12.520   8.453   6.079  0.0504  1.3027 -0.7837
61708SOL     OW92173   7.375  10.066   7.749  0.0184  0.0332  0.2978
61708SOL    HW192174   7.294  10.098   7.709 -0.6501  1.2848  2.4407
61708SOL    HW292175   7.422  10.146   7.774  1.6048 -0.6908 -0.2821
61709SOL     OW92176   9.715   1.802  12.296  0.2110 -0.6723 -0.1687
61709SOL    HW192177   9.627   1.840  12.291 -0.3033 -1.5792  1.4006
61709SOL    HW292178   9.771   1.869  12.257 -1.0445  0.3624 -0.2997
61710SOL     OW92179   3.962   6.781   6.494 -0.0368  0.4766 -0.0511
61710SOL    HW192180   3.896   6.843   6.526  0.5113  0.6156  0.8309
61710SOL    HW292181   3.923   6.745   6.414 -1.3153  0.3395  0.5932
61711SOL     OW92182   7.191   6.251   7.425  0.0087  0.1253 -0.2451
61711SOL    HW192183   7.208   6.216   7.513 -0.4603  0.3882 -0.0458
61711SOL    HW292184   7.278   6.269   7.389  0.1790  0.8699  0.5126
61712SOL     OW92185   3.180   2.393   5.915 -0.2969 -0.0993 -0.1549
61712SOL    HW192186   3.117   2.323   5.896 -1.5166  1.1415 -0.8765
61712SOL    HW292187   3.204   2.379   6.007 -0.6776 -1.3330 -0.2280
61713SOL     OW92188   7.169   8.247  12.141  0.1110  0.4886 -0.4347
61713SOL    HW192189   7.084   8.290  12.152 -1.0758 -1.8553  0.2463
61713SOL    HW292190   7.151   8.154  12.157  2.5552 -0.2710 -1.6208
61714SOL     OW92191   0.047   4.770   7.212 -0.2781 -0.1650 -0.1015
61714SOL    HW192192   0.016   4.848   7.166 -0.1556  0.4683  0.8569
61714SOL    HW292193   0.082   4.714   7.143  3.9995  2.5834 -0.5396
61715SOL     OW92194   3.244   7.217   1.975 -0.4640  0.2187 -0.0592
61715SOL    HW192195   3.290   7.208   1.891  2.3430  0.7695  1.3144
61715SOL    HW292196   3.234   7.312   1.986 -2.4364  0.1064 -0.5186
61716SOL     OW92197   9.391   0.756  11.949  0.4220 -0.1250  0.3958
61716SOL    HW192198   9.311   0.774  11.998  0.1458 -2.3747  0.8814
61716SOL    HW292199   9.410   0.664  11.967  1.5802 -0.4223 -1.9194
61717SOL     OW92200   5.789   9.057   9.006  0.0079 -0.4640 -0.6332
61717SOL    HW192201   5.859   9.063   9.071 -0.0631  1.0919 -0.6593
61717SOL    HW292202   5.755   8.968   9.015  0.0823 -0.3293  1.3559
61718SOL     OW92203  11.724   9.141   2.496  0.2150  0.2390  0.9473
61718SOL    HW192204  11.637   9.178   2.512  0.1173 -0.0878  1.1755
61718SOL    HW292205  11.743   9.091   2.575 -0.4942 -1.8648 -0.1446
61719SOL     OW92206   9.197  10.321   5.480  0.0562  0.2789 -0.2562
61719SOL    HW192207   9.198  10.375   5.401  2.0082  0.4192 -0.1683
61719SOL    HW292208   9.203  10.384   5.552  2.5534  0.0243 -0.1585
61720SOL     OW92209   0.669  10.413   9.895  0.1276 -0.1209  0.0375
61720SOL    HW192210   0.737  10.386   9.833  0.4911 -1.2556  0.8946
61720SOL    HW292211   0.684  10.358   9.972 -0.6881  0.8426  0.9044
61721SOL     OW92212   2.817   0.975   0.047  0.1454 -0.1469  0.4619
61721SOL    HW192213   2.830   1.070   0.041  1.1252 -0.3612 -2.9048
61721SOL    HW292214   2.747   0.957  -0.015 -1.5077 -1.4854  2.5848
61722SOL     OW92215   3.753   1.058   4.698  0.4137  0.9242 -0.1134
61722SOL    HW192216   3.835   1.085   4.657  0.3783  0.8360 -0.2400
61722SOL    HW292217   3.735   0.971   4.663  0.6405  0.6403  0.4619
61723SOL     OW92218   2.998   3.987   4.476  0.0483 -0.1232  0.0499
61723SOL    HW192219   2.909   3.953   4.481 -0.2058  0.2224 -1.6313
61723SOL    HW292220   3.003   4.030   4.390  2.4380 -1.8545 -0.7763
61724SOL     OW92221  10.440  11.825  10.771 -0.0962  0.5755 -0.5223
61724SOL    HW192222  10.363  11.879  10.789 -0.7641 -0.5023 -0.0848
61724SOL    HW292223  10.409  11.735  10.780  1.2426  0.1244 -0.2388
61725SOL     OW92224   2.191   6.309  10.738  0.2842 -0.3553 -0.2703
61725SOL    HW192225   2.107   6.270  10.712 -1.1920  2.4826 -0.2123
61725SOL    HW292226   2.178   6.331  10.831  0.6596  1.1106 -0.5531
61726SOL     OW92227  12.075   0.224   7.526  0.4729  0.6286  0.0172
61726SOL    HW192228  12.161   0.184   7.517  0.0419  0.0647 -2.2494
61726SOL    HW292229  12.081   0.306   7.479 -0.1750  0.6872  0.0267
61727SOL     OW92230   4.638   5.806   4.673  0.2952  0.6456  0.0094
61727SOL    HW192231   4.553   5.764   4.689  0.1314  1.0250  0.1481
61727SOL    HW292232   4.703   5.739   4.696  0.0325  0.3905  0.0072
61728SOL     OW92233   4.618  10.193   5.991 -0.6430 -0.4811 -0.1353
61728SOL    HW192234   4.540  10.190   5.935  0.6223  0.9411 -2.0992
61728SOL    HW292235   4.679  10.250   5.944  1.4544 -1.2285  1.5386
61729SOL     OW92236  10.253  10.436   0.793  0.0694  0.5002 -0.2372
61729SOL    HW192237  10.239  10.530   0.795  1.0537  0.6461  0.2146
61729SOL    HW292238  10.220  10.405   0.878 -1.4335  0.2383 -0.8762
61730SOL     OW92239   7.193  10.522   8.415  0.3175  0.3899 -0.1830
61730SOL    HW192240   7.249  10.450   8.442  0.1703 -0.5653 -2.1980
61730SOL    HW292241   7.104  10.494   8.437  0.4512  1.1590  1.4552
61731SOL     OW92242   1.682   7.868  11.108  0.4719 -0.4048 -0.1823
61731SOL    HW192243   1.711   7.960  11.112 -0.1167 -0.0831 -2.0156
61731SOL    HW292244   1.747   7.820  11.160  1.4878  0.9036 -0.1743
61732SOL     OW92245   0.672  11.689   8.461  0.1214 -0.3169 -0.9816
61732SOL    HW192246   0.583  11.658   8.479  0.3426 -0.2436  0.3420
61732SOL    HW292247   0.666  11.731   8.376 -1.1041 -0.3708 -0.9374
61733SOL     OW92248   2.702   8.034   5.660 -0.6127 -0.3368 -0.7248
61733SOL    HW192249   2.659   7.961   5.615 -0.5893  0.4984 -2.1521
61733SOL    HW292250   2.655   8.112   5.630  1.2147  0.5100 -1.5309
61734SOL     OW92251   4.804  10.812   8.621  0.1279  0.6549 -0.1878
61734SOL    HW192252   4.835  10.747   8.684 -0.0229  1.3531  0.6312
61734SOL    HW292253   4.719  10.840   8.655 -0.0253  0.9347 -0.7901
61735SOL     OW92254   6.967   6.069   5.373  0.0124 -0.3703 -0.3511
61735SOL    HW192255   6.913   6.144   5.395 -0.6194 -0.9166  0.0074
61735SOL    HW292256   6.998   6.087   5.284  0.5889  0.7081  0.0477
61736SOL     OW92257   8.900  10.405   2.788  0.0826  0.6881 -0.1649
61736SOL    HW192258   8.870  10.347   2.858 -2.0182  1.4416 -0.3516
61736SOL    HW292259   8.904  10.349   2.711  0.8350  0.2043  0.2114
61737SOL     OW92260   2.178   5.308   9.378  0.3319 -0.1771  0.1687
61737SOL    HW192261   2.164   5.352   9.294 -1.0580 -1.7125 -0.4806
61737SOL    HW292262   2.273   5.299   9.385  0.4840  0.1319 -1.1748
61738SOL     OW92263   1.445   6.422   8.876 -0.1199  0.3026  0.9140
61738SOL    HW192264   1.381   6.353   8.859  0.6049  0.1989 -1.9126
61738SOL    HW292265   1.527   6.376   8.894  0.3283  0.3589 -0.8163
61739SOL     OW92266   9.097   4.576   4.346 -0.5603 -0.0511  0.3052
61739SOL    HW192267   9.023   4.529   4.384 -0.1544 -0.4570  0.5987
61739SOL    HW292268   9.132   4.630   4.417 -0.2078 -0.3111  0.3308
61740SOL     OW92269   9.840  11.505  11.498  1.1418 -0.4972 -0.4290
61740SOL    HW192270   9.914  11.470  11.449  0.9069  1.3300 -2.1997
61740SOL    HW292271   9.820  11.589  11.456 -0.5699  0.0757  1.3611
61741SOL     OW92272   1.724  11.447   7.641  0.4763  0.4435 -0.6392
61741SOL    HW192273   1.681  11.523   7.601 -1.1846  0.3533  0.8621
61741SOL    HW292274   1.808  11.441   7.596  0.4430  2.8492 -1.1602
61742SOL     OW92275   7.400   9.388  10.843  0.6181 -0.2498 -0.8398
61742SOL    HW192276   7.320   9.357  10.800  0.9505  0.6969 -2.2290
61742SOL    HW292277   7.466   9.385  10.773  1.8876 -1.2824  0.3462
61743SOL     OW92278   0.168   1.817  10.462  0.2893 -0.1715  0.7225
61743SOL    HW192279   0.144   1.815  10.370  0.9823 -1.0831  0.5393
61743SOL    HW292280   0.253   1.773  10.465  0.4250  0.1391  1.7509
61744SOL     OW92281   2.800   3.619   6.850 -0.4538 -0.3733  0.5877
61744SOL    HW192282   2.849   3.677   6.792 -0.7834 -1.2066 -0.5534
61744SOL    HW292283   2.821   3.530   6.819 -1.1390 -0.8091  1.3279
61745SOL     OW92284   8.479   6.546   5.240  0.3716  0.2702 -0.0208
61745SOL    HW192285   8.537   6.614   5.273  0.4530 -0.7942  2.1911
61745SOL    HW292286   8.405   6.594   5.203  0.7822  1.5859  0.8041
61746SOL     OW92287   5.846   7.761   0.061  0.0134 -0.0139  0.6746
61746SOL    HW192288   5.759   7.759   0.101  0.5723 -0.1910  1.9350
61746SOL    HW292289   5.904   7.731   0.130  1.0383 -0.2512 -0.2766
61747SOL     OW92290   8.998   0.591   2.047 -0.0759  0.5027  0.0646
61747SOL    HW192291   8.940   0.592   2.123  0.4446 -1.3324  0.5223
61747SOL    HW292292   9.080   0.627   2.079  0.5713 -1.5000  0.7869
61748SOL     OW92293  10.918  12.354   9.507  0.0895 -0.1653 -0.3104
61748SOL    HW192294  11.000  12.390   9.473 -1.2727  1.8222 -1.7748
61748SOL    HW292295  10.893  12.414   9.577 -0.7723  0.0842 -0.8115
61749SOL     OW92296  10.481   6.680   6.661  0.3130  0.1309 -0.4945
61749SOL    HW192297  10.424   6.753   6.638  0.1428  0.5267  1.0639
61749SOL    HW292298  10.449   6.607   6.607  0.6996  1.2487 -2.3224
61750SOL     OW92299   7.277  10.257   5.798  0.1081 -0.1968 -0.1874
61750SOL    HW192300   7.271  10.353   5.797  3.0269  0.1023  0.6628
61750SOL    HW292301   7.299  10.234   5.708  2.7236  0.3473  0.2369
61751SOL     OW92302   6.391  11.363   7.247  0.1748 -0.1259 -0.3928
61751SOL    HW192303   6.314  11.308   7.234  0.7430 -0.6771 -1.5560
61751SOL    HW292304   6.461  11.302   7.268  0.6386  0.2199 -0.8974
61752SOL     OW92305   7.212   2.601   2.065  0.2305 -0.1805  1.0913
61752SOL    HW192306   7.157   2.674   2.037  0.9812  0.1394  0.3893
61752SOL    HW292307   7.296   2.641   2.086  0.6859 -0.8519  0.5915
61753SOL     OW92308  12.077   3.158  11.442  0.2899 -0.6776  0.0241
61753SOL    HW192309  12.010   3.094  11.417 -1.4004  1.1249 -0.3851
61753SOL    HW292310  12.049   3.187  11.529  1.6155 -1.1964  0.6404
61754SOL     OW92311  10.209   2.507   0.946 -0.2681  0.3156 -0.2839
61754SOL    HW192312  10.141   2.453   0.905 -0.8717 -0.0793  1.1840
61754SOL    HW292313  10.162   2.581   0.984  0.2968  0.7606 -0.4346
61755SOL     OW92314   4.760   8.604   5.549 -0.5289  0.2027 -0.0113
61755SOL    HW192315   4.665   8.605   5.533 -0.9047  0.7568  1.9159
61755SOL    HW292316   4.779   8.693   5.581  0.5244 -0.0830  0.1643
61756SOL     OW92317   3.940   2.364   6.914  0.5000 -0.1873  0.7857
61756SOL    HW192318   3.986   2.280   6.921  0.8182 -0.2652 -1.4855
61756SOL    HW292319   3.955   2.392   6.823 -0.9240  1.5659  1.0393
61757SOL     OW92320   6.018   1.633   3.169 -0.1776  0.0563  0.6658
61757SOL    HW192321   5.925   1.644   3.148 -0.5517  0.8438  2.5242
61757SOL    HW292322   6.027   1.669   3.257  1.4589 -2.0458  1.4347
61758SOL     OW92323   3.306   3.641   4.050 -0.7079 -0.0722  0.6702
61758SOL    HW192324   3.286   3.576   4.118 -0.0872 -0.5838  0.3641
61758SOL    HW292325   3.363   3.704   4.094 -0.1909 -0.4790  0.5912
61759SOL     OW92326   4.280  11.805   9.308 -0.2105  0.3791  0.7522
61759SOL    HW192327   4.261  11.892   9.273 -0.5191  0.2769  0.6594
61759SOL    HW292328   4.201  11.754   9.290 -0.4389  0.3639  1.7363
61760SOL     OW92329   4.640  11.775   6.996 -0.0020  0.4642  0.3756
61760SOL    HW192330   4.546  11.766   7.004  0.2344 -1.2025  1.9067
61760SOL    HW292331   4.660  11.859   7.037 -0.9833  1.9897 -2.0636
61761SOL     OW92332  11.021   9.203   0.853 -0.6597  0.7855 -0.4185
61761SOL    HW192333  11.006   9.141   0.924 -0.8720 -0.4466 -1.5050
61761SOL    HW292334  11.086   9.264   0.888  0.5036 -0.7811  0.2726
61762SOL     OW92335   0.077  11.000   9.684  0.1199  0.0745  0.0394
61762SOL    HW192336   0.096  10.914   9.721  0.2188  0.4624  0.9043
61762SOL    HW292337   0.021  10.982   9.609 -0.0186 -0.7317  0.3282
61763SOL     OW92338   5.472   2.355   6.266 -0.3594 -0.2717 -0.1492
61763SOL    HW192339   5.383   2.363   6.300 -0.0079  1.1055  0.5268
61763SOL    HW292340   5.506   2.445   6.267  0.3681 -0.4598 -2.2730
61764SOL     OW92341   8.388   1.098   3.943 -0.3347  0.3731 -0.2822
61764SOL    HW192342   8.397   1.010   3.981 -0.8433  1.0068  1.4199
61764SOL    HW292343   8.458   1.149   3.984 -0.8776  1.0799 -0.2194
61765SOL     OW92344   5.059   1.434   3.209  0.5531 -0.2133  0.6732
61765SOL    HW192345   5.043   1.397   3.122 -1.0907  0.6697  0.5552
61765SOL    HW292346   5.150   1.464   3.206 -0.2451  2.4166 -1.8104
61766SOL     OW92347  10.345   6.106   0.534  0.0387 -0.2382  0.2516
61766SOL    HW192348  10.369   6.164   0.462  4.0960  0.5452  1.9548
61766SOL    HW292349  10.409   6.035   0.531 -0.6012 -0.9700  2.2108
61767SOL     OW92350   6.396   5.638   7.215 -0.1815  0.0507 -0.0104
61767SOL    HW192351   6.475   5.687   7.192 -1.9523  2.7506 -0.7652
61767SOL    HW292352   6.429   5.561   7.262  2.9640  0.1025 -1.8210
61768SOL     OW92353   5.614   7.845   4.712 -0.2509  0.3291 -0.5188
61768SOL    HW192354   5.640   7.896   4.635 -0.2248  2.2332  0.6954
61768SOL    HW292355   5.520   7.862   4.722 -0.0245  1.1066  0.5325
61769SOL     OW92356  10.724   0.616  10.405  0.1344  0.1295  0.1510
61769SOL    HW192357  10.671   0.626  10.326 -2.4624 -0.2846  1.7511
61769SOL    HW292358  10.806   0.577  10.374 -0.7040  0.1938 -2.3505
61770SOL     OW92359  10.018   7.752   7.725 -0.3501 -0.8869  0.1340
61770SOL    HW192360  10.029   7.657   7.733 -0.4029 -0.8018  1.6939
61770SOL    HW292361   9.944   7.763   7.666 -2.2027 -1.9277  2.1274
61771SOL     OW92362   3.875   7.257   3.521  0.6428 -0.5597  0.2686
61771SOL    HW192363   3.902   7.168   3.546  0.9635 -0.3979  0.5166
61771SOL    HW292364   3.928   7.314   3.577  0.2938 -0.2157  0.2509
61772SOL     OW92365  11.567  10.309   2.735  0.0803 -0.2024  0.4314
61772SOL    HW192366  11.532  10.261   2.811 -0.1063  1.4271  1.4285
61772SOL    HW292367  11.583  10.241   2.669 -0.4524 -1.5819  1.6585
61773SOL     OW92368   3.260   7.904   3.407  0.0957 -0.1837 -0.3411
61773SOL    HW192369   3.209   7.875   3.483 -0.5722  1.6774 -0.0263
61773SOL    HW292370   3.215   7.982   3.376  0.8114 -0.4535 -2.2037
61774SOL     OW92371  12.265   9.270   6.317 -0.4181  0.0778  0.2268
61774SOL    HW192372  12.270   9.241   6.226 -1.3730 -1.3964  0.6158
61774SOL    HW292373  12.356   9.281   6.343  0.0652 -2.9092  0.1086
61775SOL     OW92374   8.797   4.602   7.775  0.3358  0.5177 -0.2996
61775SOL    HW192375   8.891   4.602   7.757  0.2407 -0.7201 -0.8880
61775SOL    HW292376   8.757   4.636   7.694  0.2566  0.9327 -0.0919
61776SOL     OW92377   2.181   0.114   9.868 -0.1446  0.4062  0.4810
61776SOL    HW192378   2.240   0.157   9.930  1.7656  0.2206 -1.1045
61776SOL    HW292379   2.230   0.037   9.838 -0.9063  0.5792 -1.3566
61777SOL     OW92380   9.341   9.895   6.508 -0.0517  0.2140  0.2752
61777SOL    HW192381   9.265   9.932   6.465  1.6696  2.2051 -1.2945
61777SOL    HW292382   9.356   9.952   6.584 -0.1818 -0.2684  0.6736
61778SOL     OW92383   5.076   0.168   2.417 -0.5700  0.0199 -0.1741
61778SOL    HW192384   5.159   0.127   2.393 -0.5625  0.9823 -1.9244
61778SOL    HW292385   5.024   0.097   2.455  0.7338 -0.7800  0.1630
61779SOL     OW92386   0.510   1.017   6.162 -0.1812 -1.1665  1.0620
61779SOL    HW192387   0.444   0.995   6.097 -1.3876  1.0935  1.4379
61779SOL    HW292388   0.573   1.072   6.116 -0.2283 -0.7838  1.4528
61780SOL     OW92389  11.795   5.185   6.540  0.0925 -0.0337 -0.3353
61780SOL    HW192390  11.868   5.241   6.566  1.0634 -0.5468 -1.8433
61780SOL    HW292391  11.834   5.099   6.525 -1.5180 -1.4969  2.8420
61781SOL     OW92392  11.460   8.740  10.714 -0.8716 -0.2779 -0.2027
61781SOL    HW192393  11.526   8.744  10.645 -0.2921  0.7981  0.3938
61781SOL    HW292394  11.504   8.698  10.788 -1.5302 -1.5484 -0.5060
61782SOL     OW92395   5.566   9.623   6.798  0.6898  0.4250 -0.5129
61782SOL    HW192396   5.485   9.580   6.770  1.0786  0.4627 -1.7503
61782SOL    HW292397   5.608   9.651   6.717  1.7438  0.7880  0.1331
61783SOL     OW92398   2.325   9.987   4.625 -0.4412  0.1213  0.0682
61783SOL    HW192399   2.322   9.911   4.682 -0.7708  0.0911  0.0105
61783SOL    HW292400   2.401  10.037   4.656 -0.8181  0.2824  0.7492
61784SOL     OW92401   9.943  12.408   4.481  0.0796  0.3589 -0.4740
61784SOL    HW192402   9.970  12.324   4.518  1.4964  0.4726 -1.1530
61784SOL    HW292403   9.895  12.385   4.401 -3.6690  0.0814  1.6373
61785SOL     OW92404   4.368   8.824  11.806 -0.1258  0.5022 -0.6428
61785SOL    HW192405   4.335   8.914  11.805  0.9903  0.9443 -2.1665
61785SOL    HW292406   4.301   8.774  11.852 -2.2814  1.5929 -2.4060
61786SOL     OW92407  11.505  12.248   9.389  0.3445  0.0809  0.2586
61786SOL    HW192408  11.466  12.279   9.307  0.5088 -0.5585 -0.0656
61786SOL    HW292409  11.477  12.157   9.397  0.0657  0.2258  1.0797
61787SOL     OW92410   4.402   1.299   5.781  0.0240  0.2781  0.7434
61787SOL    HW192411   4.349   1.373   5.752 -0.4959 -0.5912 -0.6053
61787SOL    HW292412   4.339   1.235   5.812  0.2097 -0.8613 -1.1000
61788SOL     OW92413   0.587   6.179   5.887  0.2194 -0.8018 -0.0361
61788SOL    HW192414   0.531   6.103   5.905 -1.4057  0.5406  0.8895
61788SOL    HW292415   0.538   6.230   5.823  1.4451 -0.6657 -0.8825
61789SOL     OW92416  11.711   9.261   1.846  0.1107 -0.2153  0.1281
61789SOL    HW192417  11.754   9.180   1.873  1.4762  0.2601 -0.5418
61789SOL    HW292418  11.734   9.324   1.914  0.4147  0.0108 -0.1759
61790SOL     OW92419   4.925   0.198   4.342 -0.0890  0.4096 -0.1594
61790SOL    HW192420   4.884   0.122   4.382 -0.3470 -0.1093 -1.3700
61790SOL    HW292421   4.901   0.271   4.399 -1.6489 -0.0754 -0.1587
61791SOL     OW92422   2.648   3.412   5.374  0.0386 -0.2674  0.5800
61791SOL    HW192423   2.707   3.466   5.425 -0.8729 -0.2235  1.6248
61791SOL    HW292424   2.703   3.342   5.339  1.0325  0.7441  0.0574
61792SOL     OW92425   5.233   1.357   3.905 -0.2739 -0.0612  0.4042
61792SOL    HW192426   5.183   1.426   3.948 -0.4446  0.9700 -1.3588
61792SOL    HW292427   5.320   1.362   3.946 -0.3968  0.9528  0.5739
61793SOL     OW92428   3.192   2.465  11.597 -0.2435  0.2514  0.1474
61793SOL    HW192429   3.125   2.516  11.643 -0.1728  0.8724 -0.4226
61793SOL    HW292430   3.171   2.374  11.617 -1.2458  0.4421 -0.0089
61794SOL     OW92431   9.986   5.100   2.294  0.5027 -0.4367 -0.0771
61794SOL    HW192432   9.897   5.080   2.322  0.0429 -0.3200 -1.3693
61794SOL    HW292433  10.019   5.162   2.359 -0.1466 -0.9233  0.7245
61795SOL     OW92434  11.743   8.273   5.369 -0.3863 -0.0427 -0.0935
61795SOL    HW192435  11.762   8.244   5.458 -2.4716  1.6364  0.9882
61795SOL    HW292436  11.652   8.246   5.355 -1.3938  3.0504 -0.1769
61796SOL     OW92437  12.240   3.717   2.486 -0.5769  0.4179 -0.0896
61796SOL    HW192438  12.239   3.630   2.526 -0.3337  0.1211 -0.7263
61796SOL    HW292439  12.171   3.764   2.532  0.2930  0.3689  1.3016
61797SOL     OW92440   0.052   4.740   3.293  0.0771  0.4268  1.1020
61797SOL    HW192441  -0.029   4.746   3.343 -0.6779 -0.8729  0.0867
61797SOL    HW292442   0.029   4.769   3.205 -0.0097 -2.4693  0.0897
61798SOL     OW92443   7.580   8.221   0.684 -0.4316 -0.0663  0.3772
61798SOL    HW192444   7.644   8.241   0.616 -1.2190  1.1738 -0.0235
61798SOL    HW292445   7.514   8.167   0.640 -0.1757 -0.5222  0.5453
61799SOL     OW92446   0.357   4.768   9.176  0.2545  0.1428 -0.4311
61799SOL    HW192447   0.282   4.811   9.136 -0.3940 -0.1796  0.4102
61799SOL    HW292448   0.344   4.779   9.271  0.8336 -0.6205 -0.2498
61800SOL     OW92449   7.243  12.092  10.869  0.0536  0.1502  0.3029
61800SOL    HW192450   7.336  12.074  10.860 -0.1536 -0.3244 -1.4154
61800SOL    HW292451   7.206  12.013  10.907  0.3591  0.3781  1.0811
61801SOL     OW92452   2.830  11.655   4.940  0.2595 -0.0044 -0.4464
61801SOL    HW192453   2.815  11.599   4.863  0.4694 -1.2205  0.3660
61801SOL    HW292454   2.751  11.647   4.992  0.6059 -0.1742  0.0603
61802SOL     OW92455  10.024  11.854   3.660 -0.1771 -0.2080  0.1438
61802SOL    HW192456   9.963  11.780   3.658 -1.2680  0.6984 -0.7821
61802SOL    HW292457  10.080  11.841   3.584 -1.2434  0.6092 -0.8160
61803SOL     OW92458  10.197   2.312   1.923  0.3143  0.5445  0.1474
61803SOL    HW192459  10.227   2.267   2.002 -1.6438 -0.3898  0.4208
61803SOL    HW292460  10.153   2.391   1.955 -1.2713 -0.2846  0.1068
61804SOL     OW92461   1.923  12.136  12.363 -0.2376  0.1697  0.0198
61804SOL    HW192462   1.881  12.210  12.320 -0.4392 -0.5182 -1.0344
61804SOL    HW292463   1.995  12.174  12.413 -1.0943  1.1929  0.5080
61805SOL     OW92464  11.545   3.973   8.676 -0.3534  0.5664  0.2347
61805SOL    HW192465  11.626   4.000   8.633 -0.4022  0.9434  0.3749
61805SOL    HW292466  11.476   3.993   8.612 -0.4913  1.6948  0.6962
61806SOL     OW92467   2.782  12.439   4.537  0.7148  0.0208  0.6199
61806SOL    HW192468   2.721  12.365   4.542  0.6301 -0.3562 -3.1436
61806SOL    HW292469   2.727  12.514   4.514  1.1507  0.7483  1.8493
61807SOL     OW92470   8.726   7.835   0.652 -0.2430 -0.3424 -0.0632
61807SOL    HW192471   8.664   7.786   0.598  1.9406 -1.6350 -1.5387
61807SOL    HW292472   8.759   7.770   0.715 -0.0795  0.2252  0.4469
61808SOL     OW92473   4.847   8.266   1.792  0.1061  0.1337  0.4707
61808SOL    HW192474   4.918   8.329   1.803  0.8149 -0.5287 -0.1596
61808SOL    HW292475   4.860   8.231   1.703  0.6380 -1.9843  1.3156
61809SOL     OW92476   7.361   3.894  12.483 -0.3900  0.1354  0.3812
61809SOL    HW192477   7.336   3.803  12.501  1.1532 -0.2584  0.6827
61809SOL    HW292478   7.373   3.933  12.570 -1.5830  0.8058  0.2640
61810SOL     OW92479   8.232  11.408  12.583  0.0938 -0.0427 -0.1740
61810SOL    HW192480   8.289  11.465  12.531 -0.5444  0.1514 -0.6722
61810SOL    HW292481   8.257  11.426  12.673 -1.4961  2.6279 -0.1641
61811SOL     OW92482   0.029   3.790  12.433  0.7829  0.7460  0.7370
61811SOL    HW192483   0.035   3.738  12.513 -0.2231 -1.0801 -0.3293
61811SOL    HW292484   0.107   3.766  12.383  0.5569  0.6117  0.4462
61812SOL     OW92485   7.913   5.888   5.570 -0.3125 -0.0907  0.1162
61812SOL    HW192486   7.842   5.827   5.588 -0.4639  0.0277 -0.0686
61812SOL    HW292487   7.971   5.842   5.510 -0.4802 -0.0155 -0.1040
61813SOL     OW92488   9.834   3.326  12.245 -0.0672  0.0775  0.1973
61813SOL    HW192489   9.776   3.391  12.285 -3.9108 -2.4571 -0.7902
61813SOL    HW292490   9.854   3.265  12.316  1.2268  0.7486  0.4455
61814SOL     OW92491   3.352   7.221   3.824 -0.0729  0.0228  0.3995
61814SOL    HW192492   3.429   7.274   3.802 -1.1312  1.8619  0.9209
61814SOL    HW292493   3.335   7.169   3.746  1.9696 -0.8317  0.4486
61815SOL     OW92494   3.947   7.135  12.288  0.5885  0.1476  0.4495
61815SOL    HW192495   4.041   7.156  12.287  0.5030  0.5308 -0.2404
61815SOL    HW292496   3.915   7.165  12.203 -0.5784  1.9128  1.4433
61816SOL     OW92497   9.501   2.600   9.495 -0.1503 -0.0845  0.3312
61816SOL    HW192498   9.441   2.659   9.541 -1.2055 -1.2564  0.5056
61816SOL    HW292499   9.546   2.552   9.565 -0.2246 -0.3731  0.1847
61817SOL     OW92500  10.259   2.979   1.906  0.0964 -0.0488  0.5755
61817SOL    HW192501  10.260   2.907   1.843  0.1210 -0.7095  1.3083
61817SOL    HW292502  10.350   3.004   1.916  0.1342 -0.2048  0.6299
61818SOL     OW92503   6.994   9.456   2.412  0.3435  0.2173  0.0497
61818SOL    HW192504   6.959   9.452   2.501  2.6639  0.3119  1.0378
61818SOL    HW292505   7.036   9.371   2.399  1.8589  0.9542 -0.0918
61819SOL     OW92506   6.518   9.219  10.490  0.4390  0.1706 -0.9378
61819SOL    HW192507   6.575   9.218  10.567  0.0777 -0.6460 -0.6705
61819SOL    HW292508   6.439   9.174  10.518 -0.9799  2.5587 -0.8548
61820SOL     OW92509   2.826   0.727   1.975 -0.7335  0.3904  0.3082
61820SOL    HW192510   2.799   0.790   1.908  1.9330  1.5477  0.1841
61820SOL    HW292511   2.894   0.675   1.932 -1.0520 -0.8244  1.2380
61821SOL     OW92512   5.185   9.223   2.768  0.0781 -0.2638 -0.6976
61821SOL    HW192513   5.148   9.275   2.839  1.1033  0.3172 -0.5718
61821SOL    HW292514   5.197   9.285   2.696  1.5738 -0.2391 -0.4516
61822SOL     OW92515   0.661  12.204   4.805  0.2076 -0.2148  0.2442
61822SOL    HW192516   0.667  12.192   4.710  0.7910  2.9395 -0.2553
61822SOL    HW292517   0.603  12.280   4.815  0.3586 -0.3295  2.4127
61823SOL     OW92518   8.685   8.991   7.520  0.9253 -0.5187  0.0233
61823SOL    HW192519   8.671   8.935   7.443  0.0204  0.1420 -0.3114
61823SOL    HW292520   8.604   9.042   7.527  2.0484  1.4181 -0.2315
61824SOL     OW92521   6.058   1.636   3.509  0.6570  0.2120 -0.0315
61824SOL    HW192522   6.029   1.726   3.495 -0.9947 -0.1103  1.0473
61824SOL    HW292523   6.020   1.611   3.593  0.9794 -1.5443 -0.3644
61825SOL     OW92524   5.358   2.159   2.842 -0.2266 -0.1074 -0.2478
61825SOL    HW192525   5.341   2.135   2.933 -1.8330 -0.3749 -0.5889
61825SOL    HW292526   5.273   2.189   2.809  0.6449  1.4001 -1.2382
61826SOL     OW92527   9.307   5.357   6.565 -0.0277 -0.3968  0.2804
61826SOL    HW192528   9.401   5.352   6.547  0.2144 -1.5959  1.6531
61826SOL    HW292529   9.301   5.411   6.644 -0.3454 -1.3830  0.9552
61827SOL     OW92530   9.120   3.103   1.543 -0.0695  0.5484  0.0326
61827SOL    HW192531   9.146   3.186   1.584 -1.3308  2.1590 -2.1677
61827SOL    HW292532   9.196   3.078   1.490  0.0582  0.6916  0.1468
61828SOL     OW92533   3.385   7.068  11.107 -0.2108 -0.3302  0.0138
61828SOL    HW192534   3.428   7.055  11.192  0.9561 -0.5623 -0.5829
61828SOL    HW292535   3.303   7.111  11.128  0.8277  1.2333  1.1328
61829SOL     OW92536   5.012   1.619  12.129 -0.3454  0.1949 -0.5141
61829SOL    HW192537   5.012   1.532  12.089 -0.8992  0.6249 -1.4727
61829SOL    HW292538   5.039   1.603  12.220 -3.6005 -1.4529  0.3060
61830SOL     OW92539   8.920  10.336   9.688 -0.2454 -0.4553 -0.0258
61830SOL    HW192540   8.972  10.327   9.607 -1.3396 -0.7782 -0.7157
61830SOL    HW292541   8.948  10.419   9.725 -0.2011  0.0260 -1.0954
61831SOL     OW92542   9.281   5.423   8.224 -0.3750  0.3558 -0.0735
61831SOL    HW192543   9.272   5.397   8.133 -0.9392  1.4749 -0.3541
61831SOL    HW292544   9.229   5.504   8.232  1.5514  1.6036  0.6528
61832SOL     OW92545   5.799   6.711   1.579  0.3188  0.4599 -0.0007
61832SOL    HW192546   5.857   6.635   1.569 -0.6171 -0.1631 -0.9229
61832SOL    HW292547   5.857   6.782   1.607  1.4024 -0.3263 -0.1903
61833SOL     OW92548   0.876   1.842   2.399 -0.0669  0.4469  0.0843
61833SOL    HW192549   0.850   1.798   2.318 -0.9291  0.5413  0.3057
61833SOL    HW292550   0.851   1.933   2.386  0.2225  0.5545  0.2734
61834SOL     OW92551   2.465   9.432   6.258 -0.1361  0.1900  0.3947
61834SOL    HW192552   2.430   9.345   6.240 -0.0106  0.2041  0.0718
61834SOL    HW292553   2.388   9.487   6.271 -0.2435  0.2273 -0.3436
61835SOL     OW92554   6.552   8.197   3.990 -0.3974  0.7217 -0.6961
61835SOL    HW192555   6.475   8.228   4.038  0.1612  0.0807  0.6433
61835SOL    HW292556   6.550   8.102   4.000  0.6512  0.7065 -0.5018
61836SOL     OW92557   3.498   6.871  10.581 -0.0745  0.4984 -0.1451
61836SOL    HW192558   3.460   6.928  10.514 -0.8223 -0.1842 -0.3146
61836SOL    HW292559   3.587   6.904  10.592  0.0282  0.7031 -1.4014
61837SOL     OW92560  12.021   5.552  10.507 -0.1823  0.4396  0.0394
61837SOL    HW192561  12.028   5.628  10.450 -0.6961  0.5607  0.1321
61837SOL    HW292562  12.004   5.588  10.594  0.3451  0.2466  0.2235
61838SOL     OW92563   6.155   7.981  12.327 -0.2221  0.0242 -0.9831
61838SOL    HW192564   6.178   8.011  12.415  0.0873 -1.7395 -0.4150
61838SOL    HW292565   6.059   7.976  12.328 -0.2252  0.1180 -0.7735
61839SOL     OW92566   2.681   9.404   0.057  0.0499  0.1498 -0.2474
61839SOL    HW192567   2.619   9.430   0.125  1.5584 -0.6616  1.5319
61839SOL    HW292568   2.646   9.441  -0.024 -1.4357  1.7639  1.0738
61840SOL     OW92569   8.723   5.976   7.450  0.2928 -0.0668  0.1858
61840SOL    HW192570   8.769   6.051   7.487 -0.1798  0.8389 -0.9934
61840SOL    HW292571   8.643   5.969   7.501  0.7104 -0.2925  0.8247
61841SOL     OW92572   2.984   6.734   0.947 -0.0536 -0.1827 -0.1278
61841SOL    HW192573   2.911   6.689   0.904  0.1296 -1.5611  0.9266
61841SOL    HW292574   2.947   6.816   0.978 -1.2578 -0.9765  0.6357
61842SOL     OW92575   8.371   7.892   0.184  0.5295  0.0628  0.6009
61842SOL    HW192576   8.418   7.946   0.248  2.0838 -0.7949  0.2265
61842SOL    HW292577   8.302   7.850   0.234  0.7660  0.5795  1.3863
61843SOL     OW92578   1.757   0.673   1.543  0.0141 -0.4888 -0.0578
61843SOL    HW192579   1.794   0.703   1.626  0.2047  0.3058 -0.4219
61843SOL    HW292580   1.748   0.578   1.553  0.1297 -0.4107  0.8301
61844SOL     OW92581   5.091   9.235   0.757 -0.9069  0.2971 -0.3173
61844SOL    HW192582   5.052   9.147   0.758  1.9683 -1.0981  1.7386
61844SOL    HW292583   5.016   9.294   0.771 -2.6400 -1.9954  0.8421
61845SOL     OW92584   6.276   0.936  10.788 -0.1178  0.3056 -0.1694
61845SOL    HW192585   6.310   0.922  10.877 -1.4819 -0.1546  0.2940
61845SOL    HW292586   6.284   0.851  10.746 -1.2363  0.0282  0.1467
61846SOL     OW92587   9.803   6.383   6.253  0.3548  0.1181  0.2377
61846SOL    HW192588   9.851   6.399   6.173  1.2987 -0.0005  0.7663
61846SOL    HW292589   9.718   6.425   6.239  0.9906  1.2824 -0.3039
61847SOL     OW92590  11.473  12.269   4.884 -0.0256 -0.1163 -0.3621
61847SOL    HW192591  11.445  12.331   4.951  0.3650  1.7662 -1.8604
61847SOL    HW292592  11.404  12.202   4.882  0.4625 -0.8300  2.5820
61848SOL     OW92593   0.254   1.342  12.258  0.2227 -0.1291  0.1209
61848SOL    HW192594   0.164   1.368  12.277 -0.0346 -0.7017 -0.2841
61848SOL    HW292595   0.263   1.255  12.298  1.0187  0.4692  1.3243
61849SOL     OW92596  10.050   1.181  10.683  0.0351  0.2130  0.3794
61849SOL    HW192597  10.109   1.256  10.680 -0.8894  0.9376 -0.1805
61849SOL    HW292598  10.107   1.107  10.704  1.2321  0.8036 -0.6256
61850SOL     OW92599  10.060   6.988   6.876  0.9189 -0.1746  0.0469
61850SOL    HW192600  10.145   7.025   6.902  1.9853 -2.3737 -0.1130
61850SOL    HW292601  10.078   6.896   6.858 -1.2967 -0.4517 -1.1262
61851SOL     OW92602   6.439   8.350   8.479 -0.3255  0.3140 -0.0895
61851SOL    HW192603   6.349   8.380   8.461 -0.4069 -1.0509 -2.4488
61851SOL    HW292604   6.477   8.420   8.532 -1.9854  2.2012 -1.2160
61852SOL     OW92605   5.797  11.070   7.336  0.0779  0.2874 -0.0457
61852SOL    HW192606   5.795  11.123   7.415 -0.5075  2.2078 -1.2718
61852SOL    HW292607   5.886  11.081   7.302 -0.0305  0.4622 -0.2792
61853SOL     OW92608  11.522   8.378   6.033 -0.0971 -0.1872 -0.5373
61853SOL    HW192609  11.594   8.367   6.095 -1.6858  0.7800  1.6071
61853SOL    HW292610  11.565   8.397   5.949  2.1154 -0.5710  0.4393
61854SOL     OW92611   5.751   1.662   3.224  0.6602 -0.8884  0.0517
61854SOL    HW192612   5.713   1.654   3.312  0.6279 -1.1439  0.0168
61854SOL    HW292613   5.782   1.752   3.219 -1.6140 -0.0906 -0.5958
61855SOL     OW92614   4.799  12.276   3.958  0.3754 -0.4467  0.1250
61855SOL    HW192615   4.824  12.364   3.987 -2.0456 -0.2090  1.8256
61855SOL    HW292616   4.789  12.227   4.039 -1.5243 -1.3245 -0.6005
61856SOL     OW92617   5.177   4.334   5.344  0.1603  0.4909  0.8652
61856SOL    HW192618   5.258   4.354   5.392  0.9542  0.6319 -0.4813
61856SOL    HW292619   5.161   4.242   5.364  0.6056  0.4869  1.2332
61857SOL     OW92620   9.465   6.769   1.730  0.2788  0.1097 -0.0512
61857SOL    HW192621   9.415   6.691   1.708 -2.0012  0.7924  2.2889
61857SOL    HW292622   9.525   6.741   1.799 -1.2802  0.5703  1.5505
61858SOL     OW92623   7.490   4.092   0.643  0.4228 -0.2002  0.7623
61858SOL    HW192624   7.415   4.052   0.599  0.3612  1.2707 -0.5396
61858SOL    HW292625   7.567   4.054   0.599  0.5159 -1.8432  2.2147
61859SOL     OW92626  11.038   9.027  10.082  0.0497  0.6908  0.5276
61859SOL    HW192627  11.124   9.056  10.114  1.1655 -0.1162 -1.5806
61859SOL    HW292628  10.979   9.100  10.103  1.0656  1.0008  2.5895
61860SOL     OW92629   0.663   2.989   1.269 -0.3488 -0.4179  0.0555
61860SOL    HW192630   0.618   2.996   1.354 -0.7873  0.0545 -0.2087
61860SOL    HW292631   0.592   2.979   1.205  0.0304 -1.9090 -0.1581
61861SOL     OW92632  10.341  10.619   3.403  0.3566 -0.4328 -0.0342
61861SOL    HW192633  10.340  10.542   3.460 -0.3885 -0.2341  0.2288
61861SOL    HW292634  10.429  10.655   3.414  0.8523 -1.4856 -0.4889
61862SOL     OW92635  12.529   2.708  11.240  0.0412  0.1852  0.0180
61862SOL    HW192636  12.517   2.625  11.286 -1.0055 -0.6232 -1.6091
61862SOL    HW292637  12.616   2.702  11.201 -0.1642 -0.3034 -0.3711
61863SOL     OW92638   4.195   8.230  11.039  0.5725 -0.1955 -0.3354
61863SOL    HW192639   4.179   8.283  11.117 -0.2412 -1.4774  0.3963
61863SOL    HW292640   4.176   8.290  10.966 -1.0715  0.3385  0.4693
61864SOL     OW92641   0.020   4.261   2.284 -0.3513  0.3499  0.5980
61864SOL    HW192642  -0.072   4.243   2.302 -0.9876  0.2448 -2.2050
61864SOL    HW292643   0.042   4.201   2.213  1.4130  1.4187  0.1830
61865SOL     OW92644   5.474   1.098   0.765 -0.4701  0.6341  0.1801
61865SOL    HW192645   5.388   1.140   0.768 -0.6163  0.2956  1.0173
61865SOL    HW292646   5.463   1.026   0.702 -1.1767 -0.1936  1.2119
61866SOL     OW92647   6.445   1.701   0.558  0.3799 -0.0785  0.1015
61866SOL    HW192648   6.432   1.792   0.530  1.1861  0.5576  1.6732
61866SOL    HW292649   6.360   1.659   0.543 -0.0969  1.0106 -0.3714
61867SOL     OW92650   9.400   8.641   3.896 -0.6224  0.1011  0.6006
61867SOL    HW192651   9.370   8.729   3.920  0.0778  0.6002 -0.2759
61867SOL    HW292652   9.475   8.624   3.953 -0.4562  0.2845  0.4407
61868SOL     OW92653   5.971   7.677   3.349 -0.3376 -0.1456  0.2456
61868SOL    HW192654   6.035   7.685   3.278 -0.0210  2.3388  0.7142
61868SOL    HW292655   5.996   7.598   3.396  1.2041 -0.2612 -0.7182
61869SOL     OW92656   0.033   1.166   5.032 -0.2488 -0.0521  0.2238
61869SOL    HW192657   0.128   1.166   5.044 -0.1438  0.1026 -0.5852
61869SOL    HW292658   0.000   1.227   5.098  0.6279  3.7499 -2.5255
61870SOL     OW92659   4.311   9.438   4.044 -0.5750  0.0546  0.4454
61870SOL    HW192660   4.302   9.343   4.036 -0.7213  0.0219  0.9976
61870SOL    HW292661   4.355   9.451   4.128 -1.4733  0.5240  0.8548
61871SOL     OW92662  12.394   3.405  11.731  0.0451  0.9032 -0.0263
61871SOL    HW192663  12.396   3.413  11.827  1.1886  2.1045 -0.1218
61871SOL    HW292664  12.369   3.314  11.715  0.9246  0.3708  1.4233
61872SOL     OW92665  10.561   8.958   9.491 -0.2553  0.2031  0.4487
61872SOL    HW192666  10.579   8.876   9.446  1.3149  0.8678 -0.2448
61872SOL    HW292667  10.478   8.944   9.537 -0.5954 -1.3651 -0.5766
61873SOL     OW92668   9.985   4.893   5.200  0.0442 -0.8353 -0.1596
61873SOL    HW192669   9.930   4.969   5.220  0.0449 -1.0215  0.5781
61873SOL    HW292670  10.066   4.909   5.250  0.4746 -0.7994 -0.8556
61874SOL     OW92671   4.469   9.657   0.687 -0.2330  0.0475  0.4365
61874SOL    HW192672   4.473   9.584   0.749 -0.3725  1.2475  1.9013
61874SOL    HW292673   4.538   9.637   0.624 -0.1657 -1.2760  0.8851
61875SOL     OW92674   3.419   9.756   8.545  0.1438  0.2749  0.5508
61875SOL    HW192675   3.376   9.818   8.486 -0.9055  0.4833  1.5005
61875SOL    HW292676   3.508   9.792   8.556 -0.0638  0.9434  0.1235
61876SOL     OW92677  10.637   0.240   8.028 -0.2396  0.2962  0.3827
61876SOL    HW192678  10.675   0.277   8.108 -0.4189  1.0265  0.1436
61876SOL    HW292679  10.542   0.245   8.043 -0.2606 -0.7785  0.6537
61877SOL     OW92680   9.233   5.283   3.683 -0.5881  0.1933 -0.0312
61877SOL    HW192681   9.270   5.204   3.644 -0.1668  0.6068 -0.4690
61877SOL    HW292682   9.199   5.253   3.768  1.2022 -0.0937  0.6321
61878SOL     OW92683   5.643  11.823   2.076  0.2171 -0.2256 -0.1055
61878SOL    HW192684   5.688  11.811   1.993  1.3964  1.0577  0.3019
61878SOL    HW292685   5.638  11.918   2.087  0.2624 -0.3655  1.3607
61879SOL     OW92686  12.302  10.850   8.640 -0.5648  0.3329  0.0937
61879SOL    HW192687  12.387  10.820   8.673 -1.5194 -2.7845  0.0309
61879SOL    HW292688  12.267  10.905   8.710  0.7512  0.2125  0.8780
61880SOL     OW92689   8.042   3.146   4.299  0.1330  0.1045  0.7462
61880SOL    HW192690   8.130   3.112   4.315  0.3480  0.7429  0.9197
61880SOL    HW292691   8.054   3.218   4.238 -0.3602 -0.3230  0.1347
61881SOL     OW92692  11.280   0.308  11.879 -0.0181  0.2622  0.5459
61881SOL    HW192693  11.246   0.310  11.968 -0.5974 -0.6555  0.3574
61881SOL    HW292694  11.207   0.274  11.826 -0.2188  2.1877 -0.5252
61882SOL     OW92695   1.378   1.641   0.552 -0.0605 -0.2109  0.5003
61882SOL    HW192696   1.343   1.645   0.462 -0.5395  1.8626  0.7078
61882SOL    HW292697   1.308   1.678   0.606  0.7653 -0.1167  1.5304
61883SOL     OW92698   4.856   3.150   5.539 -0.8556  0.0762 -0.3874
61883SOL    HW192699   4.946   3.176   5.521 -1.2274  1.8674  0.1525
61883SOL    HW292700   4.857   3.119   5.630 -0.7525 -0.0552 -0.4337
61884SOL     OW92701  11.636   3.461   3.846  0.7151 -0.5655  1.0777
61884SOL    HW192702  11.595   3.505   3.772  0.3978 -1.2251  0.8483
61884SOL    HW292703  11.601   3.372   3.843  0.4437 -0.5145  2.2140
61885SOL     OW92704   1.276  11.364   2.971  0.0405  0.1234  0.1095
61885SOL    HW192705   1.295  11.398   2.884  0.1044  1.9118  0.7719
61885SOL    HW292706   1.320  11.279   2.975  1.8689  0.9819 -0.8523
61886SOL     OW92707   6.205   9.981  10.295 -0.2342  0.3972 -0.4776
61886SOL    HW192708   6.289   9.977  10.341 -0.4320  0.8444 -0.0612
61886SOL    HW292709   6.214   9.920  10.222 -0.2503 -1.0728  0.7014
61887SOL     OW92710   1.604   2.983   8.550  0.6516  0.0280 -0.4599
61887SOL    HW192711   1.616   3.072   8.583 -1.6142 -0.2880  1.4463
61887SOL    HW292712   1.582   2.995   8.458 -0.0749  1.4782 -0.1173
61888SOL     OW92713   0.257   0.298   2.521 -0.0256 -0.0574 -0.8720
61888SOL    HW192714   0.220   0.247   2.449  0.0138 -2.9726  1.0032
61888SOL    HW292715   0.351   0.298   2.505  0.2149 -2.4707  0.0952
61889SOL     OW92716   9.803   4.894   1.711  0.1440 -0.1428  0.8059
61889SOL    HW192717   9.841   4.981   1.698  0.8904 -0.7581 -1.8221
61889SOL    HW292718   9.878   4.835   1.712 -0.4533 -0.9431  0.2533
61890SOL     OW92719   3.680  11.236   2.774 -0.3291 -0.1717  0.4767
61890SOL    HW192720   3.604  11.188   2.742 -0.7365  1.5263 -1.3096
61890SOL    HW292721   3.645  11.315   2.814  0.4524  0.8925 -0.8371
61891SOL     OW92722  12.325   5.628  10.093 -0.3077 -0.5212  0.5514
61891SOL    HW192723  12.258   5.560  10.081  0.9220 -1.5214 -1.0734
61891SOL    HW292724  12.405   5.589  10.057  1.0061  0.9019  1.8052
61892SOL     OW92725  10.586  11.459   5.463 -0.0132 -0.1711 -0.0796
61892SOL    HW192726  10.539  11.508   5.530 -1.3822 -1.6259  0.0782
61892SOL    HW292727  10.581  11.368   5.492 -0.5219 -0.8368 -2.0634
61893SOL     OW92728  11.487   8.183   1.540 -0.1034  0.3830  0.0267
61893SOL    HW192729  11.422   8.216   1.478 -0.2386 -0.3718 -0.2501
61893SOL    HW292730  11.438   8.125   1.598  0.3028 -0.1411 -0.1426
61894SOL     OW92731   4.681   3.913   2.756 -0.4097  0.5516 -0.0627
61894SOL    HW192732   4.619   3.960   2.700 -1.5456  0.3782  0.9998
61894SOL    HW292733   4.738   3.867   2.695 -1.3694  0.6614 -1.0848
61895SOL     OW92734   2.217   9.596   9.220 -0.3073 -0.0118  0.1454
61895SOL    HW192735   2.174   9.540   9.156  1.2795  0.5132 -1.4737
61895SOL    HW292736   2.243   9.537   9.290  0.2094 -1.1032 -0.9244
61896SOL     OW92737   0.825   2.440  11.197 -0.4861  0.3413  0.5108
61896SOL    HW192738   0.804   2.531  11.216 -1.1005  0.1278  0.8743
61896SOL    HW292739   0.884   2.414  11.269 -0.4966  0.3819  0.5341
61897SOL     OW92740   7.833   2.136   3.550 -0.1296  0.1661  0.1940
61897SOL    HW192741   7.795   2.216   3.513 -0.0895 -0.3402 -1.0103
61897SOL    HW292742   7.765   2.069   3.538 -0.1106 -0.0196  1.0625
61898SOL     OW92743   6.407   8.549   2.110  0.4600 -0.6185  0.6780
61898SOL    HW192744   6.453   8.632   2.119  1.0741 -0.8581 -0.1294
61898SOL    HW292745   6.474   8.483   2.128  0.0574 -0.9503  0.9859
61899SOL     OW92746   3.387   8.201   0.150  0.3771  0.6099 -0.2658
61899SOL    HW192747   3.452   8.201   0.081  0.2327 -1.1777 -0.4464
61899SOL    HW292748   3.378   8.109   0.175 -0.1675  1.1225  1.5668
61900SOL     OW92749   3.910   6.067   2.099 -0.0460  0.0675  0.0720
61900SOL    HW192750   3.915   5.991   2.042  3.6493  0.3797 -0.2123
61900SOL    HW292751   3.901   6.030   2.187 -1.4631 -0.5113 -0.2761
61901SOL     OW92752   4.600   4.708  11.242 -0.5687 -0.6074  0.0416
61901SOL    HW192753   4.644   4.788  11.271  0.0287 -1.3469  1.2532
61901SOL    HW292754   4.532   4.739  11.182  1.8260  0.5641 -2.2821
61902SOL     OW92755  11.190   8.364   6.968  0.0752 -0.3104 -0.1407
61902SOL    HW192756  11.214   8.348   7.059 -0.5497  0.5726  0.1969
61902SOL    HW292757  11.236   8.445   6.946 -0.0616 -0.3292 -0.4920
61903SOL     OW92758   0.310   2.782   4.513  0.2811  0.3112 -0.0622
61903SOL    HW192759   0.285   2.861   4.465 -1.2116 -0.2282 -0.2081
61903SOL    HW292760   0.302   2.805   4.605  1.0243  0.6845 -0.0849
61904SOL     OW92761  11.846  10.576   5.128 -0.6617 -0.4144  0.0363
61904SOL    HW192762  11.778  10.519   5.091  0.4932 -1.3749 -0.6775
61904SOL    HW292763  11.882  10.621   5.052 -1.1549  0.8455  0.5297
61905SOL     OW92764  12.237  10.558   4.283  0.2795  0.0813  0.4598
61905SOL    HW192765  12.316  10.559   4.336  0.6541 -1.1929 -0.0296
61905SOL    HW292766  12.220  10.650   4.262  2.4068  0.3135 -0.5502
61906SOL     OW92767   1.046  10.335   9.449  0.2467  0.0544 -0.0316
61906SOL    HW192768   1.077  10.327   9.359  2.6484  0.8753  0.6427
61906SOL    HW292769   1.101  10.274   9.498 -0.5620  0.1274  0.9961
61907SOL     OW92770   9.397   6.232   6.809 -0.1794  0.3162  0.8868
61907SOL    HW192771   9.451   6.153   6.797  1.8661  1.8361 -0.6727
61907SOL    HW292772   9.353   6.244   6.724 -1.4986  0.1806  1.5297
61908SOL     OW92773   9.176   4.124  10.212 -0.2329  0.0902 -0.3978
61908SOL    HW192774   9.100   4.183  10.211  0.7386  1.5649  1.9926
61908SOL    HW292775   9.142   4.041  10.245 -0.7849  0.8638  1.0667
61909SOL     OW92776   6.285   6.940   3.540  0.1961  0.3431  0.2133
61909SOL    HW192777   6.242   7.002   3.598  0.9997  1.6481 -0.5509
61909SOL    HW292778   6.310   6.867   3.597 -0.4766  0.8407  1.1795
61910SOL     OW92779   5.221   8.267   0.536  0.5169  0.3166  0.1472
61910SOL    HW192780   5.266   8.314   0.605  3.1753 -1.2270 -0.4274
61910SOL    HW292781   5.281   8.268   0.462 -1.2636 -0.0924 -1.4058
61911SOL     OW92782   0.190   3.043   9.968  0.2758  0.3097 -0.0411
61911SOL    HW192783   0.252   3.005  10.030  0.4297  0.5847 -0.0262
61911SOL    HW292784   0.111   3.059  10.020  0.6165  1.1335  0.2429
61912SOL     OW92785   6.775  11.887   6.127  0.0093  0.2623 -0.0221
61912SOL    HW192786   6.863  11.887   6.088 -0.5472  1.1298 -1.3560
61912SOL    HW292787   6.755  11.979   6.140 -1.1166  0.1396 -0.7531
61913SOL     OW92788   0.984   4.205   4.048 -0.6421  0.1310  0.5909
61913SOL    HW192789   1.059   4.153   4.076 -0.0751  0.2208 -0.6865
61913SOL    HW292790   0.928   4.143   4.002  0.2524  0.6583 -1.3399
61914SOL     OW92791   8.467   0.476   8.029 -0.1869  0.1392 -0.6186
61914SOL    HW192792   8.455   0.424   7.949  1.5830 -0.7318 -0.3493
61914SOL    HW292793   8.492   0.413   8.096 -1.1798  0.9317  0.5422
61915SOL     OW92794   1.410  10.511  11.354  0.0602  0.3244  0.6734
61915SOL    HW192795   1.447  10.585  11.306 -3.0184  2.4666  1.2612
61915SOL    HW292796   1.323  10.498  11.315  0.1042 -2.3766  1.2797
61916SOL     OW92797   4.768   2.468   2.160 -0.4096  0.2274 -0.2043
61916SOL    HW192798   4.722   2.528   2.101 -0.4091  1.8352  1.3186
61916SOL    HW292799   4.845   2.517   2.188 -1.2352  0.2525  2.3425
61917SOL     OW92800  11.928   3.254   6.216 -0.5210  0.1667 -0.0853
61917SOL    HW192801  11.888   3.341   6.222  1.4191  1.2004 -1.2164
61917SOL    HW292802  11.937   3.226   6.307 -1.4636  0.9922  0.2847
61918SOL     OW92803   2.790   0.541   5.527  0.5789 -0.1380  0.4580
61918SOL    HW192804   2.867   0.589   5.559  0.6394  0.2553 -0.2527
61918SOL    HW292805   2.821   0.451   5.517  0.6647 -0.1862  1.1224
61919SOL     OW92806  12.572   9.740  10.265  0.2128  0.3488  0.3740
61919SOL    HW192807  12.522   9.658  10.269  0.8912 -0.0252  1.9425
61919SOL    HW292808  12.642   9.728  10.329  1.5311  1.3910 -0.7956
61920SOL     OW92809   3.639   2.338   5.386 -0.0279 -0.3672  0.2905
61920SOL    HW192810   3.616   2.302   5.301 -0.1315 -1.1300  0.6380
61920SOL    HW292811   3.573   2.303   5.446 -0.5884  1.0061  0.5127
61921SOL     OW92812   6.258  10.268   1.366  0.1170 -0.7651 -0.2492
61921SOL    HW192813   6.273  10.327   1.293  0.9161  0.0571  0.5625
61921SOL    HW292814   6.341  10.266   1.413 -0.6110 -0.6430  1.0948
61922SOL     OW92815  11.469  11.140  10.802 -0.1067  0.4315  0.1458
61922SOL    HW192816  11.409  11.203  10.842 -0.7754  0.1628 -0.4207
61922SOL    HW292817  11.459  11.060  10.855 -0.1814  0.4120  0.1017
61923SOL     OW92818  11.271   9.988   0.575  0.4972  0.1487  0.1767
61923SOL    HW192819  11.229   9.925   0.634  1.2653 -0.0667  0.5062
61923SOL    HW292820  11.319  10.046   0.634 -0.9528  1.6445 -0.0385
61924SOL     OW92821  12.472   2.185  12.112  0.2880  0.0232  0.0097
61924SOL    HW192822  12.382   2.152  12.105 -0.3557  1.9751 -2.3222
61924SOL    HW292823  12.520   2.114  12.154 -1.7969 -2.1575 -1.0200
61925SOL     OW92824   0.168   9.784   3.812 -0.4848  0.7845 -0.2344
61925SOL    HW192825   0.094   9.800   3.870 -0.4435 -1.2252  0.4246
61925SOL    HW292826   0.225   9.725   3.861 -0.1313 -0.4691 -2.0728
61926SOL     OW92827   2.820   2.099   8.044 -0.0754  0.0601 -0.7585
61926SOL    HW192828   2.744   2.153   8.022  0.1104  0.5227 -0.2837
61926SOL    HW292829   2.826   2.104   8.139 -0.5592 -1.4857 -0.6093
61927SOL     OW92830  10.700   3.582   1.017  0.2871  0.1156  0.1125
61927SOL    HW192831  10.763   3.642   0.976 -1.0679  1.3854 -0.1922
61927SOL    HW292832  10.639   3.560   0.947 -0.1220 -0.4087  0.6206
61928SOL     OW92833   8.440  10.977   6.773 -0.5947 -0.4282 -0.3502
61928SOL    HW192834   8.376  11.030   6.725 -0.8160  0.0692  0.4612
61928SOL    HW292835   8.514  11.036   6.787 -0.7070 -0.4254  0.2753
61929SOL     OW92836   9.658   1.613   8.176 -0.5033 -0.3154  0.3063
61929SOL    HW192837   9.705   1.593   8.095 -2.3649 -1.4837 -0.5591
61929SOL    HW292838   9.690   1.548   8.239 -0.6018 -0.8090 -0.1394
61930SOL     OW92839   5.601   8.476   0.899 -0.2436  0.0915 -0.4153
61930SOL    HW192840   5.670   8.426   0.856 -0.6778 -2.8465  2.0222
61930SOL    HW292841   5.645   8.519   0.973 -0.2313  2.0543 -1.4822
61931SOL     OW92842   2.207   1.208   6.052 -0.0988  0.3807  0.4307
61931SOL    HW192843   2.225   1.284   6.108  0.1286  0.0766  0.7759
61931SOL    HW292844   2.151   1.151   6.105  1.1808 -0.5188  0.8687
61932SOL     OW92845   8.212   5.685  12.202  0.2035 -0.0919 -0.1723
61932SOL    HW192846   8.240   5.653  12.288 -1.2731 -0.9089  0.0384
61932SOL    HW292847   8.136   5.739  12.221  1.3341  1.8033 -0.7631
61933SOL     OW92848   3.011  10.125   1.660 -0.3359 -0.0651 -0.4399
61933SOL    HW192849   2.973  10.038   1.669 -0.4500  0.0257 -0.0050
61933SOL    HW292850   3.010  10.143   1.566 -0.4784 -0.4570 -0.5132
61934SOL     OW92851   6.718   0.167   3.979 -0.1832  0.0331 -0.1745
61934SOL    HW192852   6.735   0.249   4.026  0.2876 -0.0748 -0.1537
61934SOL    HW292853   6.804   0.126   3.970 -0.2449  0.1376 -1.3006
61935SOL     OW92854   1.614   1.253   5.320  0.2836  0.2321 -0.1936
61935SOL    HW192855   1.708   1.269   5.326 -0.0838  2.2680  2.3739
61935SOL    HW292856   1.584   1.314   5.252  0.8503 -0.7921 -1.3848
61936SOL     OW92857   9.833   1.709   2.101  0.1763 -0.2239  0.3667
61936SOL    HW192858   9.788   1.767   2.039 -0.5426  0.5538  1.5736
61936SOL    HW292859   9.907   1.673   2.051 -0.3330  0.4416 -0.9042
61937SOL     OW92860   8.341  11.142   4.456 -0.0721  0.7654  0.0297
61937SOL    HW192861   8.317  11.155   4.364 -0.3858 -0.5546 -0.0951
61937SOL    HW292862   8.258  11.128   4.501  0.1281  0.7375  0.3967
61938SOL     OW92863   6.608  12.547   3.398 -0.0359 -0.0750 -0.5109
61938SOL    HW192864   6.519  12.580   3.387  0.0210 -0.2393 -1.6663
61938SOL    HW292865   6.627  12.503   3.315  0.8710 -0.6407 -0.0142
61939SOL     OW92866   9.734   9.970   2.331  0.7298  0.4282 -0.1615
61939SOL    HW192867   9.794   9.982   2.257  0.6350  0.5616 -0.2163
61939SOL    HW292868   9.706  10.058   2.354  1.0750  0.4204  0.3011
61940SOL     OW92869   2.683   1.846   7.958 -0.1636  0.0666 -0.0644
61940SOL    HW192870   2.588   1.853   7.953 -0.2599 -0.9152  0.2012
61940SOL    HW292871   2.714   1.936   7.959 -1.0952  0.3934 -0.0117
61941SOL     OW92872   3.362   2.484   7.478  0.4403  0.9566 -0.1954
61941SOL    HW192873   3.409   2.561   7.510 -0.9309  1.4520  0.7584
61941SOL    HW292874   3.274   2.494   7.514  0.1667 -0.9586 -0.2378
61942SOL     OW92875  10.703  12.414   1.360 -0.4071  0.3288  0.0999
61942SOL    HW192876  10.732  12.470   1.288  0.2171 -0.2142 -0.0894
61942SOL    HW292877  10.665  12.474   1.423  0.0134  0.9413 -0.2101
61943SOL     OW92878   4.791  11.006   5.797  0.2210 -0.5079 -0.8040
61943SOL    HW192879   4.877  11.044   5.778  0.0627  0.7457  0.7762
61943SOL    HW292880   4.811  10.923   5.840  0.6603 -0.1846 -0.3698
61944SOL     OW92881   9.091  10.691   2.578 -0.3409 -0.3596 -0.5168
61944SOL    HW192882   9.026  10.714   2.512 -1.7159 -1.5432  0.3648
61944SOL    HW292883   9.175  10.704   2.535 -1.0822  2.3465 -1.3324
61945SOL     OW92884  11.577   9.957   4.701 -0.1021 -0.4198 -0.1477
61945SOL    HW192885  11.608   9.954   4.792  1.5096 -0.5228 -0.6647
61945SOL    HW292886  11.482   9.957   4.708 -0.0246 -1.6540  1.5078
61946SOL     OW92887   1.915   1.314   9.553 -0.5246  0.1328  0.0084
61946SOL    HW192888   2.008   1.297   9.540 -0.6143  0.3308 -0.9259
61946SOL    HW292889   1.907   1.409   9.553 -0.8510  0.1101 -0.8433
61947SOL     OW92890   6.410   8.100  12.381 -0.2795  0.1471  0.2082
61947SOL    HW192891   6.321   8.097  12.346 -1.5184  1.1788  2.9349
61947SOL    HW292892   6.456   8.164  12.327 -1.9784  1.4906  0.2666
61948SOL     OW92893   3.188   8.783   0.727  0.1867 -0.4685 -0.2371
61948SOL    HW192894   3.247   8.783   0.652 -0.6280  0.1742 -0.8941
61948SOL    HW292895   3.102   8.760   0.691 -0.2262 -0.1178  0.4855
61949SOL     OW92896   8.576   3.505   3.547 -0.4092 -0.3281  0.2147
61949SOL    HW192897   8.612   3.450   3.477  0.5723 -0.3196  0.7007
61949SOL    HW292898   8.483   3.482   3.549 -0.2210 -1.1993 -0.3047
61950SOL     OW92899   3.776   2.674   8.666  0.9008 -0.1146 -0.0382
61950SOL    HW192900   3.818   2.760   8.671 -1.1432  0.8802  2.7567
61950SOL    HW292901   3.701   2.688   8.609 -0.9768  0.8655  2.4600
61951SOL     OW92902   8.090   9.639   8.921 -0.0540 -0.5783  0.8586
61951SOL    HW192903   8.163   9.699   8.932 -0.3745  0.2023 -0.9493
61951SOL    HW292904   8.019   9.692   8.885 -0.8331 -1.7509  0.5757
61952SOL     OW92905   9.865   9.765   3.476 -0.0596  0.1366 -0.3742
61952SOL    HW192906   9.821   9.846   3.450 -2.1015 -0.6393  0.3727
61952SOL    HW292907   9.793   9.709   3.507  1.6642 -0.3731  3.2665
61953SOL     OW92908  12.517  12.590   8.086  0.3472  0.3600  0.0460
61953SOL    HW192909  12.465  12.583   8.166  0.6668 -3.3970  0.1023
61953SOL    HW292910  12.608  12.590   8.116  0.4499  1.0134 -0.2534
61954SOL     OW92911   7.143  11.119  12.413 -0.4502 -0.5370  0.2083
61954SOL    HW192912   7.121  11.028  12.431 -0.2520 -0.1812  2.5250
61954SOL    HW292913   7.076  11.170  12.458 -0.0832  0.4797 -0.3578
61955SOL     OW92914   6.673   4.423   4.403 -0.0460  0.1936 -0.7932
61955SOL    HW192915   6.720   4.464   4.475 -0.4237  0.9959 -0.9925
61955SOL    HW292916   6.719   4.340   4.389  0.3622  0.2718  0.0075
61956SOL     OW92917   0.583   2.022   3.031  0.1895 -0.1420  0.2383
61956SOL    HW192918   0.671   1.987   3.017  0.0784 -0.7981  1.0492
61956SOL    HW292919   0.573   2.090   2.966  2.7008  2.5802  2.4257
61957SOL     OW92920   8.180   1.079   9.173 -0.0539  1.0518  0.7516
61957SOL    HW192921   8.154   1.075   9.265  1.3238  2.0045  1.2289
61957SOL    HW292922   8.180   1.173   9.152 -2.0401  0.7777 -0.7737
61958SOL     OW92923   6.976   4.596  11.872  0.6118 -0.0617 -0.4851
61958SOL    HW192924   7.040   4.604  11.943  0.4462  1.7201 -0.4820
61958SOL    HW292925   6.908   4.660  11.894  0.2524  0.0939 -1.9239
61959SOL     OW92926   4.095   1.082   6.861  0.2034 -0.6737  0.3221
61959SOL    HW192927   4.145   1.084   6.943  1.9795 -0.0959 -0.7111
61959SOL    HW292928   4.105   1.170   6.825 -0.4024 -0.9675 -0.5908
61960SOL     OW92929   6.172   6.570   0.922 -0.4569  0.0072  0.1288
61960SOL    HW192930   6.218   6.500   0.968 -1.2990 -0.5957  0.0957
61960SOL    HW292931   6.187   6.648   0.974  2.4882  0.3714 -1.0687
61961SOL     OW92932   8.848   9.299   4.194  0.1501  0.2216 -0.3882
61961SOL    HW192933   8.781   9.332   4.254 -0.1799 -2.7248  1.0469
61961SOL    HW292934   8.806   9.302   4.108 -1.0589  0.3943  0.1795
61962SOL     OW92935   2.751   9.011   4.768  0.2650  0.2145  0.1493
61962SOL    HW192936   2.808   9.081   4.801  1.3167 -1.1058  1.2470
61962SOL    HW292937   2.713   8.972   4.847 -0.8756 -0.0194 -0.4926
61963SOL     OW92938  11.498   2.151   5.609  0.5869  0.1469 -0.0508
61963SOL    HW192939  11.538   2.229   5.647 -0.1094  0.1446  0.7303
61963SOL    HW292940  11.458   2.181   5.528 -1.2050  1.0250  1.0969
61964SOL     OW92941   3.468   8.561   3.685  0.4577 -0.1609 -0.3549
61964SOL    HW192942   3.410   8.497   3.726 -0.0294 -0.6982 -1.8041
61964SOL    HW292943   3.483   8.526   3.597  1.2253  1.0772 -0.7360
61965SOL     OW92944   3.979   8.360  10.192  0.3240 -0.5672 -0.1089
61965SOL    HW192945   3.946   8.398  10.274  3.6276 -1.1662  1.6629
61965SOL    HW292946   4.003   8.436  10.139 -0.5269 -0.1844  0.0262
61966SOL     OW92947   4.390   4.433  10.387  0.8771 -0.2067  0.0564
61966SOL    HW192948   4.347   4.518  10.399  1.6042  0.2546 -0.4950
61966SOL    HW292949   4.396   4.422  10.292 -0.9182 -1.7763  0.0792
61967SOL     OW92950  10.635  12.222   5.416 -0.2495  0.1586  0.7329
61967SOL    HW192951  10.613  12.225   5.323  0.1547  2.5992  0.6503
61967SOL    HW292952  10.610  12.309   5.449  5.3902  1.9091  1.4505
61968SOL     OW92953   0.963   9.433   5.420 -0.0124 -0.1430 -0.0248
61968SOL    HW192954   0.871   9.452   5.402  0.3895  1.7847 -0.1996
61968SOL    HW292955   0.993   9.388   5.341 -0.2895  1.1382 -0.8955
61969SOL     OW92956  11.797   1.319   6.105  0.6601  0.0857 -0.3237
61969SOL    HW192957  11.779   1.226   6.093  0.3097  0.0988  0.0387
61969SOL    HW292958  11.859   1.341   6.036 -0.5634 -0.0244 -1.4951
61970SOL     OW92959   0.357   9.861   4.604  0.1091 -0.0569 -0.1916
61970SOL    HW192960   0.367   9.834   4.513  0.8644  2.1559 -0.8413
61970SOL    HW292961   0.419   9.806   4.652  0.4291 -0.5718 -1.1720
61971SOL     OW92962   7.141   1.089  12.167 -0.3637 -0.7375 -0.1558
61971SOL    HW192963   7.073   1.136  12.215 -1.8055 -1.7579 -1.1093
61971SOL    HW292964   7.147   1.004  12.212 -0.1939 -0.8992 -0.4794
61972SOL     OW92965  11.531   1.670   2.429  0.3896  0.7066  0.1239
61972SOL    HW192966  11.585   1.592   2.415 -0.0426  0.2776  0.7678
61972SOL    HW292967  11.592   1.743   2.419  0.9209  0.2620  0.0458
61973SOL     OW92968  10.274   1.189  11.025  0.6853  0.5681 -0.2160
61973SOL    HW192969  10.322   1.272  11.031  2.4770 -0.5037  0.9789
61973SOL    HW292970  10.276   1.153  11.114  0.9645 -1.2821 -0.9227
61974SOL     OW92971   8.707   4.294   6.237  0.0234 -0.3580 -0.6480
61974SOL    HW192972   8.797   4.295   6.202  1.1138  1.4504  1.8776
61974SOL    HW292973   8.706   4.222   6.300  0.6906  1.2963  1.3757
61975SOL     OW92974   7.916   9.250   1.685  0.8175  0.0694 -0.0812
61975SOL    HW192975   7.881   9.200   1.759  1.0872  2.1804  1.5711
61975SOL    HW292976   7.845   9.252   1.621  0.1231 -0.7466  0.6453
61976SOL     OW92977   7.896  10.333   7.071 -0.1306 -0.0521  0.1077
61976SOL    HW192978   7.916  10.295   7.156 -0.8644 -0.9963 -0.1179
61976SOL    HW292979   7.802  10.352   7.075 -0.4151 -1.0998 -0.8342
61977SOL     OW92980  11.460   5.254  10.899  0.1316 -0.6675 -0.1642
61977SOL    HW192981  11.528   5.192  10.925 -1.2809 -1.2611  2.5775
61977SOL    HW292982  11.385   5.198  10.877 -0.6356 -0.0209  0.7057
61978SOL     OW92983   8.058  11.021   1.485 -0.2298 -0.6572 -0.0621
61978SOL    HW192984   8.098  11.045   1.401 -0.1601  0.3142  0.2389
61978SOL    HW292985   7.996  10.951   1.462  0.3864 -0.9821 -0.7902
61979SOL     OW92986   7.314   9.728  11.571 -0.1045 -0.2924 -0.5209
61979SOL    HW192987   7.351   9.810  11.538  0.1070  0.4582  1.4505
61979SOL    HW292988   7.387   9.684  11.612 -0.8988  0.2264  1.5617
61980SOL     OW92989  11.893   7.453  11.247 -0.0349 -0.1296 -0.3472
61980SOL    HW192990  11.848   7.536  11.266 -1.4456 -0.8898 -0.2270
61980SOL    HW292991  11.945   7.472  11.169  0.2716  1.0749  0.1175
61981SOL     OW92992   5.497   0.202  11.474 -0.4445 -0.2920  0.0373
61981SOL    HW192993   5.507   0.156  11.390 -0.1865 -1.2804  0.5991
61981SOL    HW292994   5.408   0.180  11.502 -0.3143 -0.4510  0.3182
61982SOL     OW92995   8.047   3.388  11.486  1.0646  0.7934 -0.0792
61982SOL    HW192996   7.956   3.369  11.463  1.0304 -0.2459  0.8371
61982SOL    HW292997   8.087   3.417  11.403  0.1543  0.2761 -0.7173
61983SOL     OW92998   2.285   3.766   9.387  0.0079  0.2619  0.3058
61983SOL    HW192999   2.236   3.831   9.336 -0.5431 -0.6630 -0.3724
61983SOL    HW293000   2.296   3.806   9.473 -0.3989  1.2148 -0.0752
61984SOL     OW93001  10.967   0.959   6.003  0.5986 -0.2016  0.0726
61984SOL    HW193002  10.946   1.039   5.954  0.1738 -1.3008 -1.6342
61984SOL    HW293003  11.062   0.965   6.017  0.5270  0.7429  0.2661
61985SOL     OW93004   8.625   3.385   6.576  0.5616 -0.2802  0.3956
61985SOL    HW193005   8.547   3.406   6.525  0.4117 -1.2298  0.2163
61985SOL    HW293006   8.592   3.340   6.653  0.9930 -1.9008 -0.3208
61986SOL     OW93007   8.251   4.480   8.348  0.2358 -0.2269  0.1566
61986SOL    HW193008   8.174   4.486   8.405 -0.0886 -1.3223 -0.1487
61986SOL    HW293009   8.309   4.550   8.379 -0.7126  0.3686  0.6392
61987SOL     OW93010  11.065   6.808   6.676 -0.5737 -0.0250 -0.7054
61987SOL    HW193011  11.050   6.899   6.701  0.7367 -0.0158  0.1347
61987SOL    HW293012  11.117   6.772   6.748 -0.3225 -1.1936 -1.4563
61988SOL     OW93013   0.540   8.078  11.906 -0.4028 -0.2880  0.5634
61988SOL    HW193014   0.508   7.987  11.911 -1.8119  0.0842 -0.9783
61988SOL    HW293015   0.484   8.120  11.841  3.5088  0.3361 -2.8493
61989SOL     OW93016   1.137   0.943   8.611 -0.0034  0.2120 -0.2990
61989SOL    HW193017   1.220   0.968   8.569  0.2536  0.5823  0.4020
61989SOL    HW293018   1.095   0.885   8.548 -0.5322  2.2535 -1.9363
61990SOL     OW93019   8.604   6.280   6.900 -0.1677  0.0610  0.0620
61990SOL    HW193020   8.665   6.284   6.973 -1.9620 -0.2134  1.6444
61990SOL    HW293021   8.644   6.336   6.833  2.6336 -1.4283  0.3101
61991SOL     OW93022   0.342   5.755   3.949 -0.1819 -0.3342 -0.1554
61991SOL    HW193023   0.333   5.829   4.010  0.5671 -0.9787  0.7514
61991SOL    HW293024   0.268   5.698   3.969 -0.8491  0.2118 -0.9600
61992SOL     OW93025  10.540   0.059   4.625 -0.4906  0.1057  0.0832
61992SOL    HW193026  10.501  -0.023   4.596  0.0509  0.0811 -0.5992
61992SOL    HW293027  10.584   0.094   4.548  1.3006 -0.1321  0.9573
61993SOL     OW93028  11.321   1.634   0.940 -0.0610  0.6182 -0.5511
61993SOL    HW193029  11.395   1.677   0.982  0.4709 -1.0486  0.2959
61993SOL    HW293030  11.264   1.706   0.912  1.9766  1.9454 -1.4833
61994SOL     OW93031   3.684   2.742  12.350  0.2231 -0.1072 -0.2078
61994SOL    HW193032   3.611   2.785  12.305  0.9128 -0.2362 -1.5210
61994SOL    HW293033   3.740   2.813  12.381 -0.2898 -0.0151  0.5272
61995SOL     OW93034   5.433  12.072  10.535  0.2028 -0.0061 -0.1455
61995SOL    HW193035   5.476  12.006  10.481 -0.2055  0.0629 -0.5539
61995SOL    HW293036   5.426  12.031  10.622  0.5644 -0.2348 -0.2212
61996SOL     OW93037   2.720   1.293   0.468  0.0930  0.4153 -0.5066
61996SOL    HW193038   2.740   1.260   0.555  0.6976 -0.1542 -0.8437
61996SOL    HW293039   2.798   1.343   0.443 -0.8484  2.2482  0.0366
61997SOL     OW93040  12.506   1.322   1.607 -0.3725 -0.0759  0.3019
61997SOL    HW193041  12.442   1.350   1.542 -0.6658 -0.2873  0.5002
61997SOL    HW293042  12.457   1.266   1.667  0.6205 -2.7348 -1.1976
61998SOL     OW93043   3.467  10.674   6.862  0.1412  0.4575  0.6920
61998SOL    HW193044   3.456  10.762   6.826  1.2029  0.4210  0.2136
61998SOL    HW293045   3.383  10.653   6.901 -0.6041  1.1096 -0.4855
61999SOL     OW93046   4.809   5.772   0.749 -0.5406  0.1913  0.3245
61999SOL    HW193047   4.772   5.785   0.837  0.7625  2.5831  0.5927
61999SOL    HW293048   4.870   5.699   0.760 -1.3252 -0.3928  1.0676
62000SOL     OW93049   6.648   5.522   4.953  0.0290 -0.4954 -0.5269
62000SOL    HW193050   6.573   5.538   4.896  0.5822 -0.3943 -1.2332
62000SOL    HW293051   6.720   5.572   4.914  0.5778 -0.9203 -0.0925
62001SOL     OW93052   8.552  12.149   6.232 -0.1328  0.3999 -0.1709
62001SOL    HW193053   8.632  12.168   6.184  0.3944  0.0118  0.5361
62001SOL    HW293054   8.488  12.127   6.165  0.6519 -0.3373 -0.6936
62002SOL     OW93055   8.852  11.948   2.944  1.2636 -0.0147 -0.4951
62002SOL    HW193056   8.882  11.857   2.943 -0.3014 -0.5807  0.1129
62002SOL    HW293057   8.785  11.952   2.876  0.3474  0.2939  0.3875
62003SOL     OW93058   0.055  10.671   0.064  0.2306 -0.2038  0.5605
62003SOL    HW193059   0.040  10.593   0.010 -1.0222  0.7607 -0.5381
62003SOL    HW293060  -0.002  10.658   0.140  0.0690 -0.3856  0.4100
62004SOL     OW93061   8.192   7.402   3.398  0.9127  0.2972 -0.1647
62004SOL    HW193062   8.223   7.311   3.401  0.7363  0.1126 -2.5967
62004SOL    HW293063   8.115   7.403   3.455 -0.3232 -1.6190 -1.6649
62005SOL     OW93064   8.503  10.731   5.257  0.0954 -0.0723  0.4082
62005SOL    HW193065   8.449  10.662   5.217 -0.4378  0.4676  0.1764
62005SOL    HW293066   8.442  10.803   5.273  0.6818  0.4236  0.4621
62006SOL     OW93067  11.132   5.873   3.485  0.1395 -0.0088  0.5233
62006SOL    HW193068  11.092   5.915   3.561 -0.0894  0.8144 -0.0387
62006SOL    HW293069  11.216   5.917   3.473  0.7929 -1.0465  1.0878
62007SOL     OW93070  10.138  11.605   7.771  0.2088 -0.0656 -0.2926
62007SOL    HW193071  10.047  11.636   7.763  0.5492  0.9200 -0.5026
62007SOL    HW293072  10.130  11.510   7.779 -0.9465  0.1226  1.3356
62008SOL     OW93073   0.013   7.497   8.176 -0.0703 -0.0007  0.1382
62008SOL    HW193074  -0.055   7.435   8.150  0.3667 -0.9067  1.0741
62008SOL    HW293075   0.058   7.454   8.248 -0.4279  1.8489  1.5646
62009SOL     OW93076  11.667  12.084   6.460 -0.1092 -0.2380  0.4222
62009SOL    HW193077  11.726  12.010   6.472 -1.6311 -1.6690 -0.4129
62009SOL    HW293078  11.717  12.148   6.409  0.1497 -2.2334 -1.9951
62010SOL     OW93079   7.559  12.323   4.514 -0.3415 -0.1652 -0.4009
62010SOL    HW193080   7.567  12.297   4.605 -3.4392  0.2559  0.1046
62010SOL    HW293081   7.620  12.396   4.504 -1.2052  0.9696  1.8936
62011SOL     OW93082   6.956   1.159   9.667 -0.0274 -0.4228 -0.4468
62011SOL    HW193083   6.941   1.127   9.756  1.0308  1.5957  0.5333
62011SOL    HW293084   6.911   1.244   9.664 -1.1199 -1.0191 -2.2791
62012SOL     OW93085   9.768   0.155   3.753  0.2174 -0.1476  0.0727
62012SOL    HW193086   9.709   0.110   3.693  1.0326 -1.5253  0.2456
62012SOL    HW293087   9.713   0.219   3.798 -0.9759 -0.9046 -0.2645
62013SOL     OW93088   0.510  11.501  11.059 -0.3404  0.3967 -0.1076
62013SOL    HW193089   0.516  11.477  11.152  3.4970  2.3599  0.3424
62013SOL    HW293090   0.485  11.420  11.016 -3.1759 -0.3978  2.6109
62014SOL     OW93091   0.126   4.600  10.198  0.0883 -0.3077  0.5982
62014SOL    HW193092   0.101   4.535  10.132 -0.0136  0.8202 -0.5208
62014SOL    HW293093   0.188   4.657  10.152  0.7166 -0.0275  1.7698
62015SOL     OW93094  11.616   0.369   9.856 -0.2783  0.1909 -0.1636
62015SOL    HW193095  11.569   0.354   9.775 -0.5904  0.5278 -0.0464
62015SOL    HW293096  11.686   0.431   9.833 -0.1228 -0.0172 -0.2559
62016SOL     OW93097   8.283   6.749   5.208 -0.1265  0.5008 -0.1720
62016SOL    HW193098   8.202   6.715   5.245  0.1251 -0.2154 -0.2740
62016SOL    HW293099   8.324   6.797   5.281 -0.7743  1.1328 -0.2053
62017SOL     OW93100   8.467   2.356  11.927 -0.6904  1.0409  0.5796
62017SOL    HW193101   8.386   2.335  11.881 -0.2349  2.5073 -1.0297
62017SOL    HW293102   8.529   2.377  11.857  1.7180 -1.9101  1.6248
62018SOL     OW93103   8.243   5.578   1.095  0.1447  0.7113  0.0919
62018SOL    HW193104   8.337   5.594   1.085  0.1449  0.1603 -0.9894
62018SOL    HW293105   8.228   5.497   1.046 -0.7324  0.2833  1.0575
62019SOL     OW93106   8.611  10.720   1.611 -0.4582 -0.3152  0.1957
62019SOL    HW193107   8.677  10.685   1.552  0.6010  1.3648  0.3119
62019SOL    HW293108   8.629  10.679   1.695  0.1766 -0.1899  0.1254
62020SOL     OW93109  11.262   4.495  11.105  0.3241 -0.2835 -0.5633
62020SOL    HW193110  11.310   4.567  11.146 -0.1594 -0.5539  0.5432
62020SOL    HW293111  11.327   4.425  11.096  0.8271  0.3217 -1.7685
62021SOL     OW93112  11.842   7.264   4.877  0.2462  0.2915 -0.2392
62021SOL    HW193113  11.815   7.181   4.837  1.4987  0.6960 -2.0453
62021SOL    HW293114  11.860   7.321   4.803  0.0545  1.9811  0.9765
62022SOL     OW93115   5.956   9.227  11.580  0.1847  0.3163 -0.4398
62022SOL    HW193116   5.953   9.287  11.506  0.4946 -0.4046 -1.0520
62022SOL    HW293117   5.864   9.217  11.606  0.1508  1.2577 -0.1448
62023SOL     OW93118  12.129  10.630  10.427  0.5333  0.5828 -0.1430
62023SOL    HW193119  12.046  10.678  10.421  1.1553  1.5670 -1.6168
62023SOL    HW293120  12.194  10.697  10.448  0.9149 -0.2590  1.5009
62024SOL     OW93121  10.823   3.163  10.426  0.0744  0.3245 -0.3046
62024SOL    HW193122  10.790   3.220  10.356  0.6095  0.9096 -0.0858
62024SOL    HW293123  10.758   3.171  10.496  0.6415  1.4429  0.1091
62025SOL     OW93124   5.147  12.322   4.310  0.5172 -0.2973 -0.7496
62025SOL    HW193125   5.147  12.418   4.310  0.6524 -0.2939 -0.2764
62025SOL    HW293126   5.058  12.298   4.286 -0.0985 -0.0264  1.0843
62026SOL     OW93127   8.359   2.416   7.323  0.0295 -0.5373 -0.4264
62026SOL    HW193128   8.380   2.362   7.399  0.3150  0.2504  0.0647
62026SOL    HW293129   8.442   2.458   7.299 -0.6737  1.7131  0.8329
62027SOL     OW93130   5.642   9.985  11.425 -0.1875  0.1226 -0.2828
62027SOL    HW193131   5.603   9.911  11.470 -0.0040  0.9058  1.2427
62027SOL    HW293132   5.735   9.982  11.450  0.2695 -0.3198 -1.9036
62028SOL     OW93133  10.527   4.436  11.125 -0.5603 -0.1005 -0.1658
62028SOL    HW193134  10.590   4.430  11.053 -0.8261 -0.0157 -0.4106
62028SOL    HW293135  10.444   4.458  11.081 -0.8906 -0.8055  0.0915
62029SOL     OW93136   6.454  12.568  10.531  0.3055 -0.0423  0.0836
62029SOL    HW193137   6.450  12.573  10.435 -0.1731 -0.8989  0.0473
62029SOL    HW293138   6.437  12.658  10.560 -1.2687 -0.0705 -0.5986
62030SOL     OW93139  10.022   7.321   7.526 -0.0546  0.3813 -0.4241
62030SOL    HW193140   9.968   7.376   7.469 -2.3078 -1.5936 -0.3737
62030SOL    HW293141  10.095   7.294   7.471  0.3264  2.1968 -0.8792
62031SOL     OW93142  10.271   5.830  10.677  0.1752 -0.6595  0.7531
62031SOL    HW193143  10.267   5.829  10.772 -0.7820 -0.3469  0.7208
62031SOL    HW293144  10.208   5.897  10.650  1.9557  0.8089 -0.0383
62032SOL     OW93145   3.507  10.264   6.721  0.4702 -0.2704 -0.8899
62032SOL    HW193146   3.487  10.228   6.807  1.0963 -1.2827 -1.1452
62032SOL    HW293147   3.575  10.329   6.737 -0.8533  1.0386 -0.3893
62033SOL     OW93148   9.415  10.172   1.507 -0.7783 -0.4885 -0.1749
62033SOL    HW193149   9.439  10.084   1.478  0.5507 -0.2951  0.2519
62033SOL    HW293150   9.485  10.228   1.473 -1.7947  0.4778 -0.7525
62034SOL     OW93151   1.805   0.992   8.510 -0.4300 -0.7288  0.1198
62034SOL    HW193152   1.735   0.975   8.446 -0.3864  0.2544 -0.2011
62034SOL    HW293153   1.815   1.087   8.510  0.0146 -0.7696  1.1340
62035SOL     OW93154  11.762   3.039   2.668 -0.6050  0.1732  0.3118
62035SOL    HW193155  11.844   3.061   2.624 -0.8654  0.1514 -0.1838
62035SOL    HW293156  11.754   2.944   2.656  1.2055 -0.5542  3.5802
62036SOL     OW93157   2.096   1.104   1.648  0.0672 -0.3780  0.0314
62036SOL    HW193158   2.106   1.186   1.600 -0.5742 -1.6301 -2.4826
62036SOL    HW293159   2.186   1.071   1.657  0.3306  0.5896  1.0980
62037SOL     OW93160   4.997   3.297   2.963  0.5478 -0.2166  0.7494
62037SOL    HW193161   4.934   3.337   3.023  2.0562  1.4081  1.3380
62037SOL    HW293162   4.970   3.205   2.958 -1.5008  0.2767  1.4098
62038SOL     OW93163   5.980   1.196   8.804 -0.2246 -0.1410  0.2364
62038SOL    HW193164   6.074   1.196   8.784 -0.1054 -0.7317  0.7776
62038SOL    HW293165   5.941   1.145   8.734  0.0034 -0.8832  0.6438
62039SOL     OW93166   6.116   1.829   2.551  0.6409 -0.3817 -0.1068
62039SOL    HW193167   6.042   1.770   2.534  0.5682 -0.3233  0.0052
62039SOL    HW293168   6.081   1.917   2.537  0.8218 -0.3746 -0.5418
62040SOL     OW93169  10.001   8.542   4.401 -0.2570  0.0678  0.4218
62040SOL    HW193170   9.970   8.618   4.451 -0.9936 -0.1217  0.2633
62040SOL    HW293171   9.937   8.473   4.420  0.1652 -0.3836  0.2215
62041SOL     OW93172   9.035  10.580   9.148  0.3695 -0.0701 -0.9129
62041SOL    HW193173   8.953  10.563   9.193  1.2552  1.8822  1.6695
62041SOL    HW293174   9.015  10.653   9.089  0.0860 -0.1162 -0.8760
62042SOL     OW93175   1.496   1.360   7.308 -0.4268 -0.1672  0.0446
62042SOL    HW193176   1.574   1.389   7.260 -0.6607 -0.1586 -0.3308
62042SOL    HW293177   1.435   1.433   7.301 -0.4062 -0.1015  0.4931
62043SOL     OW93178   9.455   2.978   5.339 -0.2166 -0.4215 -0.4569
62043SOL    HW193179   9.465   2.883   5.346 -1.3237 -0.5512 -0.4209
62043SOL    HW293180   9.396   3.001   5.411 -0.7427  0.1497 -1.0621
62044SOL     OW93181  11.306   8.821   4.012  0.5954 -0.5115 -0.2574
62044SOL    HW193182  11.375   8.824   4.078 -0.1213  2.3290  0.5231
62044SOL    HW293183  11.228   8.853   4.057 -1.2850 -3.3752 -1.1874
62045SOL     OW93184   0.257   3.236   0.874 -0.3533 -0.4796 -0.8183
62045SOL    HW193185   0.172   3.238   0.918 -0.4459  1.3704 -0.9867
62045SOL    HW293186   0.255   3.156   0.821 -1.0904 -1.6081  0.8501
62046SOL     OW93187   6.553   3.989   3.725  0.2631 -0.0965 -0.2764
62046SOL    HW193188   6.577   3.990   3.632  3.0863 -0.6633  0.3578
62046SOL    HW293189   6.486   3.920   3.731 -0.6965  0.6051 -1.9875
62047SOL     OW93190   7.160  10.163   4.170 -0.2099  0.6864  0.5531
62047SOL    HW193191   7.149  10.110   4.248  0.1460 -0.7681 -0.3531
62047SOL    HW293192   7.217  10.112   4.113 -1.3229  1.2119 -1.1095
62048SOL     OW93193   5.679  11.869  11.404  0.0494 -0.1566 -0.0020
62048SOL    HW193194   5.720  11.836  11.485 -1.2392 -0.8560  0.3943
62048SOL    HW293195   5.751  11.911  11.357  1.0688 -0.6979  0.9990
62049SOL     OW93196   7.065   1.890   2.236 -0.0630 -0.1732 -0.3001
62049SOL    HW193197   7.047   1.877   2.329  1.3486  2.1694  0.3954
62049SOL    HW293198   7.026   1.975   2.215  2.7437  1.1410 -0.7873
62050SOL     OW93199   5.356   4.808   3.500 -0.1150  0.2726  0.1295
62050SOL    HW193200   5.344   4.869   3.427 -1.4638  2.9318  2.3812
62050SOL    HW293201   5.311   4.728   3.474 -0.2548  1.0102 -2.0377
62051SOL     OW93202  11.985   5.087   8.478  0.1119 -0.4118  0.1252
62051SOL    HW193203  12.069   5.043   8.464  0.0232 -0.7955  0.7459
62051SOL    HW293204  11.920   5.018   8.465 -0.1355 -0.0436 -0.6709
62052SOL     OW93205   9.902   6.273   1.449 -0.0085 -0.1599  0.1116
62052SOL    HW193206   9.945   6.339   1.504  2.1087 -0.0533 -1.5453
62052SOL    HW293207   9.938   6.190   1.481  0.4051 -0.1796 -0.3959
62053SOL     OW93208   0.571   5.383  10.328  0.1538  0.1472 -0.0894
62053SOL    HW193209   0.637   5.317  10.305 -0.8934 -1.1126  0.3896
62053SOL    HW293210   0.523   5.344  10.401 -0.6494  1.3570  0.0530
62054SOL     OW93211  11.735   3.794   6.620  0.1079  0.0690  0.0912
62054SOL    HW193212  11.829   3.807   6.609  0.5858 -0.8058  2.4120
62054SOL    HW293213  11.707   3.750   6.540  1.7749 -0.0905 -0.4402
62055SOL     OW93214   1.999   4.561   7.227 -0.2768  0.0940  0.2291
62055SOL    HW193215   2.048   4.535   7.148 -0.2482  0.9951 -0.0641
62055SOL    HW293216   2.033   4.505   7.296 -0.3713 -0.7863 -0.4151
62056SOL     OW93217   2.018   1.026   3.204  0.1015 -0.0072 -0.3778
62056SOL    HW193218   1.999   0.932   3.197 -0.9245  0.2125 -0.6418
62056SOL    HW293219   2.009   1.059   3.114 -0.7874  0.5671 -0.0901
62057SOL     OW93220  11.823   2.941  10.305  0.0148 -0.1364 -0.1775
62057SOL    HW193221  11.807   2.881  10.232 -0.7301 -1.7720  1.2558
62057SOL    HW293222  11.773   2.904  10.378  0.1084  1.8708  0.9657
62058SOL     OW93223  11.320   6.281   6.741  0.0154  0.4827 -0.1861
62058SOL    HW193224  11.325   6.234   6.658 -0.7929  1.8452 -1.0618
62058SOL    HW293225  11.402   6.330   6.746  0.3799 -0.1477  0.1948
62059SOL     OW93226   8.126   6.478   3.180 -0.2939 -0.2966  0.5201
62059SOL    HW193227   8.109   6.499   3.088  1.7012  0.7021  0.3414
62059SOL    HW293228   8.093   6.553   3.229 -3.6893 -1.8778  0.9475
62060SOL     OW93229  12.165   9.477  11.876 -0.1130 -0.0721 -0.0384
62060SOL    HW193230  12.165   9.408  11.810 -0.7035 -0.0690 -0.0516
62060SOL    HW293231  12.160   9.430  11.960 -1.3923 -0.0462 -0.0756
62061SOL     OW93232  10.285  12.019   7.576 -0.2433  0.1543 -0.2601
62061SOL    HW193233  10.335  11.939   7.592  1.7190  1.1719 -0.8956
62061SOL    HW293234  10.299  12.071   7.656 -1.5796 -0.1352  0.1879
62062SOL     OW93235  11.869   5.811   5.269  0.2615 -0.1874 -0.2807
62062SOL    HW193236  11.878   5.767   5.184  0.4861  0.4270 -0.5776
62062SOL    HW293237  11.957   5.845   5.288  0.3363 -0.7842  0.4546
62063SOL     OW93238   8.370   7.870   3.194 -0.2143 -0.2676 -0.1442
62063SOL    HW193239   8.455   7.845   3.159 -0.8864 -0.9106 -1.3983
62063SOL    HW293240   8.355   7.810   3.266  0.8677  0.5798  0.8145
62064SOL     OW93241   0.660  10.633   1.180  0.3381  0.0881  0.2873
62064SOL    HW193242   0.752  10.620   1.154  0.0718 -0.4161 -0.4283
62064SOL    HW293243   0.625  10.692   1.114  0.4125  1.1517  1.1635
62065SOL     OW93244  10.855   4.120   0.775 -0.3567 -0.3554 -0.1612
62065SOL    HW193245  10.871   4.074   0.858 -2.3875  1.9606  1.6645
62065SOL    HW293246  10.775   4.080   0.740 -0.6944  0.0609  0.1218
62066SOL     OW93247   0.197  10.382   1.424 -0.3136  0.2932  0.5203
62066SOL    HW193248   0.271  10.325   1.403  1.0888  1.8982  0.9495
62066SOL    HW293249   0.169  10.353   1.511  0.4451  0.3291  0.7780
62067SOL     OW93250   0.039   7.092   3.085 -0.4845  0.6572  0.4317
62067SOL    HW193251   0.128   7.063   3.068 -0.7056 -0.4257  1.0437
62067SOL    HW293252   0.011   7.042   3.162 -1.5209  1.1964  0.4364
62068SOL     OW93253   7.141   0.371  10.098  0.3043 -0.1210  0.1521
62068SOL    HW193254   7.107   0.390  10.010 -1.3474 -1.5981  0.4294
62068SOL    HW293255   7.235   0.356  10.084  0.0717 -0.3206 -1.3652
62069SOL     OW93256   0.488  11.207   2.547 -0.2698 -0.3492  0.1379
62069SOL    HW193257   0.569  11.253   2.568 -0.4417 -0.4741  1.1113
62069SOL    HW293258   0.433  11.220   2.624 -0.2016 -2.4455  0.6002
62070SOL     OW93259  12.455   1.151   1.942 -0.1656 -0.2961  0.3437
62070SOL    HW193260  12.440   1.102   1.861  0.0889 -2.3294  1.4512
62070SOL    HW293261  12.473   1.084   2.007 -2.1770  1.1193  2.5367
62071SOL     OW93262   8.332   7.805  11.811 -0.4760 -0.0569 -0.0392
62071SOL    HW193263   8.398   7.818  11.880 -0.6685 -1.0091  0.3362
62071SOL    HW293264   8.315   7.893  11.777 -0.0327  0.3647  0.8094
62072SOL     OW93265   3.060  10.280   4.495  0.3012  0.1036 -0.0936
62072SOL    HW193266   2.990  10.341   4.518  0.9784  0.6900  0.4411
62072SOL    HW293267   3.043  10.203   4.550 -0.8493 -0.4160 -1.1381
62073SOL     OW93268   3.587   1.701  10.274  0.2420  0.4304 -0.2686
62073SOL    HW193269   3.522   1.712  10.344 -0.3037  0.0831 -0.7056
62073SOL    HW293270   3.670   1.691  10.320 -0.2274 -0.7220  0.3717
62074SOL     OW93271   7.264  11.048   8.857  0.1566 -0.8001 -0.5471
62074SOL    HW193272   7.299  10.998   8.931 -0.8432  0.7981  1.0946
62074SOL    HW293273   7.327  11.119   8.844  0.0801 -0.7961 -0.9072
62075SOL     OW93274   7.327   9.110   7.504 -0.3863 -0.6904 -0.0526
62075SOL    HW193275   7.404   9.163   7.484 -0.6315  0.2797  1.4509
62075SOL    HW293276   7.340   9.081   7.594 -1.2862 -1.4010 -0.1342
62076SOL     OW93277   0.461   8.109   7.122  0.3678  0.5355  0.2841
62076SOL    HW193278   0.421   8.187   7.161  0.7634  1.0759 -0.3773
62076SOL    HW293279   0.453   8.123   7.028  0.2409 -0.3358  0.1617
62077SOL     OW93280  10.441   7.107   5.904  0.5560  0.2552  0.0096
62077SOL    HW193281  10.466   7.188   5.860 -1.2512  0.8720  0.0400
62077SOL    HW293282  10.442   7.040   5.836  0.4060  0.6565 -0.3860
62078SOL     OW93283  11.596   4.615   3.128  0.5701 -0.4468  0.3361
62078SOL    HW193284  11.617   4.539   3.183  0.3574 -2.4619 -2.1530
62078SOL    HW293285  11.681   4.647   3.099  0.6252 -1.2447 -0.4403
62079SOL     OW93286  12.045   3.737   9.703 -0.4361 -0.6475  0.5770
62079SOL    HW193287  12.040   3.715   9.796  0.2656  0.9182  1.0130
62079SOL    HW293288  12.138   3.728   9.681  0.2301  3.2063  1.2016
62080SOL     OW93289   7.521   4.526  11.486 -0.2157  0.4905 -0.4655
62080SOL    HW193290   7.508   4.621  11.486 -0.1124  0.5090 -0.9965
62080SOL    HW293291   7.486   4.497  11.570 -0.8732  0.9179 -0.5818
62081SOL     OW93292   0.397   5.475   3.047 -0.1602  0.1609  0.3870
62081SOL    HW193293   0.372   5.554   3.000  0.8844 -0.0590 -0.5859
62081SOL    HW293294   0.488   5.490   3.074 -0.7444  0.2968  2.4147
62082SOL     OW93295   2.898   5.321  10.228  0.6541 -0.1467 -0.5065
62082SOL    HW193296   2.837   5.326  10.302 -0.0209  0.4666 -1.0893
62082SOL    HW293297   2.976   5.280  10.265  0.3780  0.2498  0.5701
62083SOL     OW93298   8.610   6.339   7.366 -0.0662  0.3959  0.0890
62083SOL    HW193299   8.625   6.300   7.280  0.0183  0.6980 -0.0349
62083SOL    HW293300   8.666   6.290   7.425  0.5005  0.7236 -0.1699
62084SOL     OW93301  10.659   8.849   5.907  0.0882  0.2694 -0.7998
62084SOL    HW193302  10.723   8.903   5.860  0.9675 -0.8012 -0.8786
62084SOL    HW293303  10.583   8.906   5.918  1.4760  1.9909  0.3661
62085SOL     OW93304   6.932   4.611  11.594 -0.1927 -0.1715 -0.8558
62085SOL    HW193305   6.980   4.570  11.522  1.6673  1.2345 -0.4730
62085SOL    HW293306   6.948   4.555  11.669  1.6352  0.7131 -0.5346
62086SOL     OW93307   6.197   8.288   3.156  0.2453 -0.2527 -0.0286
62086SOL    HW193308   6.184   8.200   3.191  0.5807 -0.4028 -0.2767
62086SOL    HW293309   6.249   8.333   3.222  0.7848 -0.5018 -0.2786
62087SOL     OW93310   2.128  12.286   4.450  0.1057  0.1118  0.3149
62087SOL    HW193311   2.183  12.245   4.384 -0.4421 -0.1785  0.0285
62087SOL    HW293312   2.157  12.248   4.533 -1.2397 -1.8842 -0.0554
62088SOL     OW93313  10.232   2.018   8.392  0.2757 -0.5543  0.3416
62088SOL    HW193314  10.274   2.097   8.427  1.6997 -1.0227 -0.2420
62088SOL    HW293315  10.152   2.009   8.443  0.6007  0.7022  1.1147
62089SOL     OW93316  12.346   7.953   8.257 -0.1079 -0.0617  0.3175
62089SOL    HW193317  12.361   7.930   8.349 -1.1947 -0.5008  0.4031
62089SOL    HW293318  12.380   7.877   8.208  0.5951  0.2311  0.3373
62090SOL     OW93319   3.832   3.226   4.454 -0.4890  0.2100  0.0811
62090SOL    HW193320   3.777   3.253   4.380 -1.0788 -0.5200  0.2364
62090SOL    HW293321   3.913   3.196   4.413 -1.2641 -1.3373 -0.3915
62091SOL     OW93322   3.883   6.356   7.838 -0.2089 -0.1576 -0.1766
62091SOL    HW193323   3.834   6.415   7.781  0.2677 -0.3468 -0.8002
62091SOL    HW293324   3.955   6.409   7.871  0.8069 -0.6230 -1.5346
62092SOL     OW93325   4.449  12.517   2.756  0.3284  0.0447 -0.2565
62092SOL    HW193326   4.381  12.451   2.751 -0.1233  0.3040  1.6080
62092SOL    HW293327   4.520  12.475   2.806  0.8572  0.3231 -0.7578
62093SOL     OW93328   5.104   9.801   6.971  0.0116 -0.2967 -0.4938
62093SOL    HW193329   5.031   9.742   6.988 -0.3170  0.5685  1.3382
62093SOL    HW293330   5.182   9.752   6.999 -0.1900 -0.1081  0.4035
62094SOL     OW93331   0.809   6.514   2.994 -0.2706 -0.0163  0.0564
62094SOL    HW193332   0.823   6.470   2.910 -0.3603  2.7004 -1.4888
62094SOL    HW293333   0.740   6.463   3.036 -1.2604 -0.6701 -2.1833
62095SOL     OW93334  10.431   5.080  12.259 -0.5563  0.2774  0.3160
62095SOL    HW193335  10.377   5.072  12.337  0.3748 -1.1048  0.8509
62095SOL    HW293336  10.438   4.991  12.224 -1.0228  0.8810 -1.4069
62096SOL     OW93337  10.985  10.964   0.612 -0.2991  0.2670  0.2109
62096SOL    HW193338  10.927  10.933   0.682 -0.7729  0.4211 -0.1033
62096SOL    HW293339  11.056  10.900   0.609  0.4510  0.9663  1.7203
62097SOL     OW93340   6.786  12.083   2.768  0.4202  0.4106  0.3586
62097SOL    HW193341   6.761  12.092   2.859  2.5620 -1.7438  1.2868
62097SOL    HW293342   6.727  12.017   2.733  0.4026  0.3138  0.5697
62098SOL     OW93343   1.884   6.140   0.321  0.4907 -0.3404 -0.2455
62098SOL    HW193344   1.812   6.083   0.295 -0.1984  0.6214 -0.5061
62098SOL    HW293345   1.940   6.144   0.244 -1.0154  1.6860 -1.3266
62099SOL     OW93346  10.404   5.871   0.284  0.3308  0.0964 -0.0835
62099SOL    HW193347  10.410   5.919   0.201  2.9223 -2.1901 -1.4079
62099SOL    HW293348  10.409   5.779   0.258 -0.7533 -0.7826  2.5385
62100SOL     OW93349   8.361   3.787   7.159 -0.1699 -0.2781  0.4779
62100SOL    HW193350   8.283   3.784   7.105 -0.9826 -1.0054  1.6426
62100SOL    HW293351   8.329   3.806   7.247  0.9295 -0.9438  1.0456
62101SOL     OW93352   5.357   7.646   8.664  0.5030 -0.9153 -0.0774
62101SOL    HW193353   5.322   7.570   8.617 -1.2919 -0.5557  0.6083
62101SOL    HW293354   5.368   7.615   8.754 -0.6104 -0.2651  0.2912
62102SOL     OW93355   1.158   3.830  10.701  0.0767 -0.6835  0.2254
62102SOL    HW193356   1.194   3.781  10.775 -1.9119 -2.2690  0.2289
62102SOL    HW293357   1.064   3.810  10.702 -0.5638  1.8026 -0.8351
62103SOL     OW93358   7.387  11.363   5.407  0.2820  1.0238 -0.0678
62103SOL    HW193359   7.382  11.364   5.503 -0.1222  0.9432 -0.0873
62103SOL    HW293360   7.302  11.394   5.378  0.1255  0.3001 -0.4099
62104SOL     OW93361  12.403   8.737   5.587  0.0247 -0.4965 -0.1560
62104SOL    HW193362  12.357   8.753   5.504 -0.9819 -0.5974  0.3756
62104SOL    HW293363  12.374   8.650   5.613  0.3560 -0.4689  0.3006
62105SOL     OW93364   5.560   6.438   1.194  0.1127  0.2541  0.2317
62105SOL    HW193365   5.586   6.481   1.276 -0.8981  1.2429  0.0624
62105SOL    HW293366   5.622   6.471   1.129  0.4613  0.0359  0.4472
62106SOL     OW93367   4.570   1.879  10.521  0.3585  0.2149 -0.2425
62106SOL    HW193368   4.475   1.889  10.516 -0.1098 -2.4840  1.1837
62106SOL    HW293369   4.596   1.927  10.599 -0.1404 -0.5351  0.3971
62107SOL     OW93370  12.583   1.099   0.357 -0.2185  0.2365  0.2227
62107SOL    HW193371  12.606   1.052   0.437  1.6415 -0.3598 -0.6354
62107SOL    HW293372  12.622   1.186   0.368 -2.2893  1.1461  1.0955
62108SOL     OW93373   8.489   6.017  12.310  0.0216 -0.7193 -0.0460
62108SOL    HW193374   8.541   5.997  12.388 -2.6359  0.4179  2.1765
62108SOL    HW293375   8.543   6.080  12.262  1.8194 -1.6023  0.6809
62109SOL     OW93376   6.463  10.114  12.422  0.2303  0.2108 -0.0804
62109SOL    HW193377   6.432  10.070  12.501  0.0380  1.2353  0.4389
62109SOL    HW293378   6.394  10.176  12.400  1.4287  1.8217  0.5197
62110SOL     OW93379   8.225  11.658   3.645 -0.6700 -0.2240 -0.3121
62110SOL    HW193380   8.172  11.708   3.708 -0.7756  0.0297 -0.5989
62110SOL    HW293381   8.260  11.585   3.696  0.4644  0.8045  0.4202
62111SOL     OW93382  11.019  10.893   7.518  0.4433 -0.0623 -0.7400
62111SOL    HW193383  10.970  10.972   7.543 -0.2801 -0.5068 -0.7055
62111SOL    HW293384  11.000  10.883   7.424  0.8926  0.0443 -0.8464
62112SOL     OW93385   9.539   6.426  10.285  0.3035  0.4544 -0.3942
62112SOL    HW193386   9.488   6.450  10.207  0.5888  0.1552 -0.6764
62112SOL    HW293387   9.586   6.506  10.308  0.6856  0.3822 -0.8939
62113SOL     OW93388  12.015   9.387   6.315  0.5703  0.0998 -0.1832
62113SOL    HW193389  12.096   9.342   6.337  0.0391 -0.8933 -0.2053
62113SOL    HW293390  12.003   9.371   6.221 -0.5592 -1.3319  0.1553
62114SOL     OW93391   5.630  11.895   7.716 -0.1168 -0.1544  0.1207
62114SOL    HW193392   5.619  11.867   7.625 -0.4581  0.3115  0.0149
62114SOL    HW293393   5.544  11.931   7.741  0.0098 -0.1625  0.5840
62115SOL     OW93394   0.682   5.143   6.419  0.1669  0.2491  0.7784
62115SOL    HW193395   0.727   5.227   6.406  1.6733 -0.3519  1.8433
62115SOL    HW293396   0.598   5.167   6.458 -0.2849  1.3685 -0.7876
62116SOL     OW93397   2.720   9.310   5.735 -0.1693 -0.1898  0.2152
62116SOL    HW193398   2.712   9.238   5.798 -0.9472  0.5443  0.9961
62116SOL    HW293399   2.731   9.388   5.790  0.8084  0.2773 -0.6175
62117SOL     OW93400   5.581  12.117   3.697 -0.0841 -0.0900 -0.0288
62117SOL    HW193401   5.577  12.116   3.793 -0.9583 -0.0503 -0.0601
62117SOL    HW293402   5.671  12.143   3.678  0.6048 -1.7344  0.7795
62118SOL     OW93403   1.614   3.681  12.386 -0.0224  0.3503 -0.1645
62118SOL    HW193404   1.653   3.759  12.346 -0.0653  0.4656  0.0145
62118SOL    HW293405   1.524   3.708  12.408 -0.9470 -0.5462 -2.5125
62119SOL     OW93406   4.300   3.463  12.212 -0.1845  0.1984 -0.4640
62119SOL    HW193407   4.211   3.436  12.232  0.4091 -2.2930 -0.8255
62119SOL    HW293408   4.319   3.533  12.275 -2.4059  0.9250 -0.5280
62120SOL     OW93409   9.397   0.784   9.009 -0.3168 -0.0556 -0.0894
62120SOL    HW193410   9.404   0.871   8.972 -1.9846  1.5150  2.8989
62120SOL    HW293411   9.457   0.784   9.083  0.3451 -1.8171 -0.5746
62121SOL     OW93412   9.976  11.608   8.363  0.2770  0.2020  0.3174
62121SOL    HW193413   9.964  11.543   8.433 -2.2834 -0.1495 -0.3353
62121SOL    HW293414   9.972  11.692   8.408 -0.4898 -0.0338  0.7159
62122SOL     OW93415   0.091   9.402   4.786  0.0314  0.2709  0.2693
62122SOL    HW193416   0.129   9.445   4.709  0.8828  0.0182  0.5443
62122SOL    HW293417   0.093   9.308   4.765  1.2467  0.1153  1.0195
62123SOL     OW93418   2.501   7.681   1.496  0.4074  0.6460  0.1485
62123SOL    HW193419   2.436   7.745   1.524  0.4878  0.0094  1.9100
62123SOL    HW293420   2.532   7.641   1.577  1.2775 -0.7314 -0.8174
62124SOL     OW93421   3.129   0.450   6.974 -0.7350  0.0966 -0.6830
62124SOL    HW193422   3.151   0.389   6.904  1.1562 -1.6387  1.2601
62124SOL    HW293423   3.150   0.536   6.939 -1.8587 -0.4880 -2.9301
62125SOL     OW93424   9.928   5.457   9.828  0.1667  0.2237 -0.6225
62125SOL    HW193425   9.921   5.445   9.923  2.6194 -0.7747 -0.4954
62125SOL    HW293426   9.847   5.419   9.794  0.4460 -1.9835  0.9259
62126SOL     OW93427   6.153   1.126   7.015 -0.2836  0.0942 -0.4211
62126SOL    HW193428   6.066   1.155   6.986 -0.8358 -0.2464  0.8225
62126SOL    HW293429   6.185   1.198   7.070 -0.4333 -0.4378  0.3614
62127SOL     OW93430   9.543   3.981   8.957 -0.1107 -0.2271 -0.0476
62127SOL    HW193431   9.628   3.937   8.959 -0.3080 -0.7712 -1.6908
62127SOL    HW293432   9.506   3.966   9.044  2.0556  1.2882  1.2244
62128SOL     OW93433  10.455   1.910   9.866  0.2131 -0.5196  0.1640
62128SOL    HW193434  10.383   1.970   9.851 -0.6032 -1.0644  1.6691
62128SOL    HW293435  10.446   1.843   9.798  0.6658  0.5846 -1.0335
62129SOL     OW93436   2.809   0.859   7.729  0.2999  0.7903  0.3121
62129SOL    HW193437   2.715   0.858   7.710  0.3293  0.0547  0.1818
62129SOL    HW293438   2.822   0.788   7.792  1.0259 -0.2998 -0.9909
62130SOL     OW93439  10.161   1.461  10.699  0.5589  0.1158 -0.1119
62130SOL    HW193440  10.226   1.530  10.714 -0.0507  0.8002 -0.5591
62130SOL    HW293441  10.078   1.500  10.725  0.0880 -0.1507 -1.1454
62131SOL     OW93442   6.922  11.813  11.618  0.0071  0.0896  0.0941
62131SOL    HW193443   6.896  11.729  11.656  1.1549  0.4983  1.8637
62131SOL    HW293444   7.013  11.800  11.591 -0.1904  0.4138 -0.7780
62132SOL     OW93445   5.930   2.589   9.302 -0.3156  0.0793 -0.3238
62132SOL    HW193446   5.870   2.516   9.311 -0.0291 -0.3210 -1.4428
62132SOL    HW293447   6.013   2.557   9.336  0.2832 -0.7874 -2.4068
62133SOL     OW93448   5.638  11.325   2.964 -0.3496 -0.1483 -0.1336
62133SOL    HW193449   5.592  11.248   2.997 -1.9607  0.2781 -1.2559
62133SOL    HW293450   5.626  11.320   2.869 -0.1939  1.3027 -0.2454
62134SOL     OW93451   4.084  12.381   7.425  0.0690  0.2893 -0.2212
62134SOL    HW193452   4.140  12.432   7.484 -1.2976 -0.4020  1.8055
62134SOL    HW293453   4.011  12.440   7.405 -1.1041 -0.4810  1.4812
62135SOL     OW93454  10.347   6.435   7.385  0.4195  0.0691 -0.3681
62135SOL    HW193455  10.440   6.442   7.366  0.4863  1.6456  0.4309
62135SOL    HW293456  10.342   6.420   7.479 -0.1350 -0.7682 -0.5125
62136SOL     OW93457   6.999  10.370   6.802  0.5672  0.4058  0.2219
62136SOL    HW193458   6.943  10.340   6.730 -0.3024  0.3551  0.9001
62136SOL    HW293459   6.938  10.412   6.863  1.2795  0.3643  0.9735
62137SOL     OW93460   3.231   9.897   5.816  0.6598  0.0859 -0.0584
62137SOL    HW193461   3.283   9.921   5.739  2.0414 -0.3604  0.7129
62137SOL    HW293462   3.152   9.857   5.780  1.2447 -0.0363 -1.2532
62138SOL     OW93463   6.945   3.783  11.417 -0.0328  0.1526  0.7286
62138SOL    HW193464   7.026   3.807  11.371 -0.0940 -0.9912 -0.0039
62138SOL    HW293465   6.917   3.865  11.459  0.6083  0.9803 -0.3845
62139SOL     OW93466  12.099   1.053  11.031  0.6085  0.1152 -0.1173
62139SOL    HW193467  12.052   1.010  11.103  1.9899  1.7765  1.8932
62139SOL    HW293468  12.163   0.988  11.002  0.3834 -0.4066  0.5298
62140SOL     OW93469   8.066   6.080   2.315  0.3056 -0.3820  0.0651
62140SOL    HW193470   8.088   6.059   2.224  0.0519 -0.5963  0.0531
62140SOL    HW293471   8.103   6.008   2.366  0.8221 -0.0424  0.1724
62141SOL     OW93472   2.103   0.824   2.179 -0.0151 -0.0084  0.0653
62141SOL    HW193473   2.099   0.732   2.154 -1.9367 -0.1066  0.5750
62141SOL    HW293474   2.188   0.834   2.223 -0.2086 -1.7664  0.9024
62142SOL     OW93475   4.211   8.367   9.612  0.0182  0.3100  0.2400
62142SOL    HW193476   4.122   8.344   9.586  0.5395  0.1025 -1.4724
62142SOL    HW293477   4.212   8.463   9.609 -0.2518  0.3276  0.6435
62143SOL     OW93478   3.330   3.242   9.260 -0.4956  0.7883 -0.3856
62143SOL    HW193479   3.356   3.176   9.323  1.3378  1.5702 -0.2551
62143SOL    HW293480   3.397   3.310   9.268 -0.7776  1.3751 -2.4442
62144SOL     OW93481  10.871   0.771   1.536  0.2989 -0.2712  0.2177
62144SOL    HW193482  10.800   0.825   1.569  0.6088 -0.3143  0.9715
62144SOL    HW293483  10.930   0.833   1.493 -0.6338 -0.3457 -1.2359
62145SOL     OW93484   7.108   4.061  11.067 -0.1024 -0.4776 -0.5016
62145SOL    HW193485   7.126   3.970  11.045 -1.6455 -1.1153  0.6686
62145SOL    HW293486   7.175   4.111  11.021 -0.1979 -2.0721 -2.4877
62146SOL     OW93487   6.646   1.941   3.274 -0.0025  0.0752  0.1342
62146SOL    HW193488   6.612   1.987   3.350 -0.7837  0.0316 -0.1779
62146SOL    HW293489   6.592   1.971   3.201  0.2266 -0.4651 -0.2695
62147SOL     OW93490   8.770  10.894   6.476 -0.5535  0.6541  0.1016
62147SOL    HW193491   8.761  10.973   6.423 -1.1915 -0.2059 -1.1177
62147SOL    HW293492   8.854  10.857   6.451  1.0916  2.3035  2.6615
62148SOL     OW93493   8.594  10.382   7.579  0.1724  0.0879  0.0958
62148SOL    HW193494   8.533  10.410   7.512 -0.1486  0.1789  0.4202
62148SOL    HW293495   8.585  10.287   7.581  0.4912  0.0481 -0.2785
62149SOL     OW93496   6.047   3.879   2.061  0.1470 -0.3170 -0.2812
62149SOL    HW193497   6.048   3.873   2.156 -0.7015  1.7168 -0.0794
62149SOL    HW293498   6.012   3.795   2.032 -0.8348 -0.4954  1.2898
62150SOL     OW93499   9.227   9.026   0.958  0.0930 -0.2563  0.0430
62150SOL    HW193500   9.198   9.006   0.869  1.4916  1.1904 -0.7878
62150SOL    HW293501   9.189   8.957   1.012 -1.2520 -0.8459 -1.5868
62151SOL     OW93502   1.210   9.216   6.945  0.4409  0.2112  0.0861
62151SOL    HW193503   1.253   9.144   6.991  1.9048  0.7471 -0.3803
62151SOL    HW293504   1.126   9.227   6.990 -0.0313 -2.0855 -0.1481
62152SOL     OW93505  10.659   9.778  11.296 -0.1465 -0.1444  0.7755
62152SOL    HW193506  10.610   9.860  11.292 -0.0376 -0.0848  0.6434
62152SOL    HW293507  10.592   9.710  11.298 -0.2439 -0.1734 -1.6045
62153SOL     OW93508   2.352   8.297   8.221 -0.6691 -0.5445  0.0292
62153SOL    HW193509   2.440   8.284   8.185 -1.1599 -0.1717 -1.3593
62153SOL    HW293510   2.300   8.326   8.147 -2.2423 -1.8242  0.5738
62154SOL     OW93511   0.323  10.337   9.583  0.1421 -0.1293  0.2382
62154SOL    HW193512   0.414  10.352   9.556 -0.0936 -0.7157 -0.9232
62154SOL    HW293513   0.274  10.339   9.501 -0.9028  0.2169  0.8654
62155SOL     OW93514  12.077  11.856   4.819  0.1246  0.1523  0.4532
62155SOL    HW193515  12.105  11.852   4.728 -0.3482  0.6946  0.2775
62155SOL    HW293516  12.154  11.829   4.869  0.0924 -1.0756 -0.1418
62156SOL     OW93517   4.633   3.959   3.329  0.4146 -0.2556  0.3752
62156SOL    HW193518   4.699   3.915   3.274  0.6742  1.5873 -0.8781
62156SOL    HW293519   4.595   4.025   3.272 -0.0442  1.0714  2.1326
62157SOL     OW93520   9.474   2.171  11.404  0.3564  0.3040 -0.5284
62157SOL    HW193521   9.463   2.264  11.423  1.1839  0.5151 -0.9837
62157SOL    HW293522   9.557   2.167  11.356  0.0952 -0.6121 -0.9245
62158SOL     OW93523   1.803   4.565   9.572 -0.0511 -0.1822 -0.4375
62158SOL    HW193524   1.785   4.634   9.636  0.7375  0.9245 -1.3429
62158SOL    HW293525   1.733   4.574   9.507  0.5158  0.3459 -0.9931
62159SOL     OW93526   7.709   6.893   9.561 -0.4617  0.2418  0.2565
62159SOL    HW193527   7.691   6.844   9.641 -0.4451  0.1270  0.1901
62159SOL    HW293528   7.683   6.983   9.581  1.2992  0.6180  1.0295
62160SOL     OW93529   4.022   9.987   4.545  0.9304  0.4610 -0.5094
62160SOL    HW193530   4.064  10.065   4.582  1.2150  0.1200 -0.1081
62160SOL    HW293531   4.067   9.914   4.586 -1.3644  0.0538  1.5440
62161SOL     OW93532   6.163   7.994   1.819 -0.0116 -0.1744  0.3866
62161SOL    HW193533   6.092   7.966   1.877  0.2619  1.6950  1.7179
62161SOL    HW293534   6.227   7.923   1.823 -0.4611 -0.5307  1.6142
62162SOL     OW93535  11.958  11.782   5.226  0.5287  0.5029  0.5114
62162SOL    HW193536  11.930  11.698   5.264  0.9306  0.4374  0.6676
62162SOL    HW293537  11.915  11.848   5.280 -0.4586  0.3956 -0.1281
62163SOL     OW93538   7.711   9.093   3.191  0.4514  0.2477  0.2589
62163SOL    HW193539   7.638   9.071   3.133  0.8493 -0.1634 -0.0902
62163SOL    HW293540   7.782   9.034   3.164  1.4041  1.6453 -0.3850
62164SOL     OW93541   3.850   0.078   7.118 -0.2482 -0.1285  0.4843
62164SOL    HW193542   3.925   0.033   7.079  0.4460 -0.1352  1.7740
62164SOL    HW293543   3.838   0.156   7.063  1.0923  0.1854  0.5969
62165SOL     OW93544   3.218   8.191  10.095 -0.4564 -0.3093 -0.5670
62165SOL    HW193545   3.223   8.287  10.102  0.2873 -0.3209 -0.8612
62165SOL    HW293546   3.307   8.161  10.114 -1.0652 -1.0770  1.3777
62166SOL     OW93547   9.172   1.058   1.997 -0.7325 -0.5553  0.1067
62166SOL    HW193548   9.229   1.132   2.020  0.2539 -1.7468  1.7517
62166SOL    HW293549   9.132   1.083   1.914  2.3816  0.2858 -1.2762
62167SOL     OW93550   9.971   1.222   2.770 -0.0948 -0.1135 -0.0210
62167SOL    HW193551  10.013   1.218   2.684 -0.6266  2.7390 -0.5289
62167SOL    HW293552   9.936   1.311   2.775 -1.6746 -0.7743  2.4349
62168SOL     OW93553   4.534  12.310   5.664 -0.3094  0.2826 -0.1797
62168SOL    HW193554   4.530  12.279   5.755  0.4974  0.1594 -0.1816
62168SOL    HW293555   4.514  12.403   5.670 -0.9280  0.1401  0.0425
62169SOL     OW93556   9.195   0.306   2.304 -0.2481 -0.4745  0.4877
62169SOL    HW193557   9.213   0.215   2.279  0.9810  0.0014 -0.4666
62169SOL    HW293558   9.281   0.342   2.327 -0.5598  0.7475 -0.1891
62170SOL     OW93559  10.284   9.537   3.425  0.0581 -0.6204 -0.0231
62170SOL    HW193560  10.245   9.617   3.458  0.0223 -0.2077 -1.0534
62170SOL    HW293561  10.244   9.467   3.478 -0.4076 -0.0278  0.4199
62171SOL     OW93562   6.921  12.427   0.352  0.1811 -0.5285  0.3003
62171SOL    HW193563   6.852  12.471   0.302  1.2639  1.4746  0.4805
62171SOL    HW293564   6.925  12.474   0.434  1.3085 -1.0628  0.5684
62172SOL     OW93565   7.527   0.536   4.816 -0.3099  0.4591 -0.2880
62172SOL    HW193566   7.523   0.441   4.803  2.5797  0.6220 -3.9174
62172SOL    HW293567   7.570   0.547   4.900  2.2471 -1.6038 -1.2013
62173SOL     OW93568   9.659  11.763   6.372  0.4122 -0.1792 -0.3143
62173SOL    HW193569   9.607  11.703   6.425  0.7693  1.5558  2.1708
62173SOL    HW293570   9.696  11.707   6.303 -1.5634 -2.1890  0.1256
62174SOL     OW93571   6.806   6.596   2.859  0.7112  0.9292  0.1486
62174SOL    HW193572   6.836   6.680   2.895  0.9471  0.9611 -0.1220
62174SOL    HW293573   6.885   6.556   2.822  0.6897  0.3893  0.6649
62175SOL     OW93574   4.668   5.028   4.145 -0.7739 -0.2303  0.3317
62175SOL    HW193575   4.615   5.088   4.198 -0.0103 -1.3759  2.5137
62175SOL    HW293576   4.649   5.053   4.055 -4.3501 -0.0377  0.9935
62176SOL     OW93577   1.314   7.978   4.516  0.2050  0.0876 -0.1845
62176SOL    HW193578   1.305   8.063   4.559  1.1648  1.8048 -3.1260
62176SOL    HW293579   1.406   7.956   4.527  0.1085 -0.2527 -0.0428
62177SOL     OW93580   6.122  11.449   4.684 -0.3356  0.5594  0.2351
62177SOL    HW193581   6.090  11.513   4.747 -1.3912  0.6304 -0.3568
62177SOL    HW293582   6.057  11.450   4.613 -1.9014 -3.0882  1.3982
62178SOL     OW93583   9.846   8.768   9.806 -0.2384  0.4561 -0.6293
62178SOL    HW193584   9.871   8.788   9.896 -1.5804 -2.2861  0.4716
62178SOL    HW293585   9.923   8.728   9.767 -0.4772 -0.9451  0.2687
62179SOL     OW93586   5.993   4.764  11.757  0.1431  0.2368  0.3422
62179SOL    HW193587   5.917   4.743  11.811 -0.2065  1.7097  0.4650
62179SOL    HW293588   6.004   4.687  11.700 -0.6164 -0.5497  1.2181
62180SOL     OW93589  12.323   7.683   5.899  0.5162 -0.1677 -0.0672
62180SOL    HW193590  12.280   7.691   5.814 -0.4319 -0.2314  0.3951
62180SOL    HW293591  12.260   7.719   5.961 -0.0503 -2.6868  0.9531
62181SOL     OW93592   1.981   7.654  12.243  0.3232 -0.4691 -0.5368
62181SOL    HW193593   1.912   7.624  12.185 -1.2814  1.9470 -0.0390
62181SOL    HW293594   2.021   7.728  12.197 -0.6255  1.1461  1.0899
62182SOL     OW93595   2.085  10.738   4.968 -0.4139 -0.1115  0.6356
62182SOL    HW193596   2.050  10.678   4.902  0.8357 -0.5796  0.3728
62182SOL    HW293597   2.173  10.759   4.937  0.1584 -0.2528  2.1006
62183SOL     OW93598   0.804   5.682   2.160  0.0036  0.3455  0.0612
62183SOL    HW193599   0.861   5.711   2.231 -1.0892 -0.1911  1.1756
62183SOL    HW293600   0.863   5.677   2.084  2.0459 -2.3933  1.6321
62184SOL     OW93601   2.492   4.550   4.432 -0.1625  0.0363 -0.4194
62184SOL    HW193602   2.494   4.640   4.463 -0.5992  0.2934 -1.1126
62184SOL    HW293603   2.421   4.509   4.482  1.3404 -0.4974  1.3645
62185SOL     OW93604  10.843  10.971   0.352 -0.2267  0.0790 -0.3221
62185SOL    HW193605  10.751  10.989   0.374  0.9586  4.3634  2.3514
62185SOL    HW293606  10.882  10.941   0.434  0.9931 -0.8461 -1.2021
62186SOL     OW93607   5.367   2.372  11.129  0.5627 -0.2439 -0.2293
62186SOL    HW193608   5.408   2.375  11.215  0.9001  0.2678 -0.3997
62186SOL    HW293609   5.317   2.290  11.128 -0.0854  0.1179  0.7422
62187SOL     OW93610   8.057   8.959  12.065 -0.3714 -0.3753  0.4134
62187SOL    HW193611   8.071   8.932  12.155  0.8414 -1.1561  0.0138
62187SOL    HW293612   8.074   9.053  12.065 -2.6328  0.0936  1.4167
62188SOL     OW93613   5.313   0.844   5.293 -0.2389  0.6068  0.2577
62188SOL    HW193614   5.290   0.851   5.385  0.5887  1.1558  0.4288
62188SOL    HW293615   5.242   0.890   5.247 -0.6865  0.2720  0.6013
62189SOL     OW93616  11.954   8.842   7.115 -0.1840  0.2098  0.8077
62189SOL    HW193617  11.947   8.747   7.127 -0.8781  0.2486  0.7314
62189SOL    HW293618  11.966   8.877   7.203  0.2452  0.0414  0.8193
62190SOL     OW93619   9.732   6.594   5.570 -0.4252 -0.0797  0.1847
62190SOL    HW193620   9.711   6.598   5.477 -1.1039 -1.4171  0.2476
62190SOL    HW293621   9.809   6.537   5.575 -2.1015 -2.4824  0.6073
62191SOL     OW93622   5.917   1.813  12.343  0.0719 -0.3852 -0.4634
62191SOL    HW193623   5.860   1.768  12.280 -0.7273 -0.4228  0.2760
62191SOL    HW293624   6.006   1.793  12.312 -0.2862 -1.2516 -0.9900
62192SOL     OW93625   0.561   8.932   3.875  0.8544  0.2577 -0.7083
62192SOL    HW193626   0.614   8.980   3.938  1.7684  0.2510 -1.4555
62192SOL    HW293627   0.600   8.952   3.790  0.8862 -1.3117 -1.0944
62193SOL     OW93628   1.058   7.464   7.296 -0.3290  0.3488  0.3216
62193SOL    HW193629   1.070   7.519   7.219 -0.2996  1.1677  0.8882
62193SOL    HW293630   1.145   7.432   7.317 -0.1855  0.8686  0.5407
62194SOL     OW93631   3.496   1.083   4.329 -0.3804  0.3727 -0.2975
62194SOL    HW193632   3.448   1.032   4.264  0.0521  0.5466 -0.7641
62194SOL    HW293633   3.428   1.124   4.382 -0.7731 -2.2486  1.4036
62195SOL     OW93634   3.034  10.365   5.522 -0.0716  0.6935  0.0565
62195SOL    HW193635   3.072  10.334   5.604 -1.1170  1.6058  0.9164
62195SOL    HW293636   3.057  10.458   5.518 -1.7699  1.1606  0.3756
62196SOL     OW93637   9.604  11.863   8.168 -0.2617 -0.3051 -0.0094
62196SOL    HW193638   9.594  11.881   8.262  0.8562  1.0051 -0.1054
62196SOL    HW293639   9.548  11.787   8.152  0.2364 -1.1441  1.8963
62197SOL     OW93640   7.280   7.657   8.900 -0.2348  0.5294  0.3951
62197SOL    HW193641   7.363   7.608   8.903  0.2326  1.2514 -0.2497
62197SOL    HW293642   7.252   7.662   8.991 -0.4013 -1.0972  0.4680
62198SOL     OW93643   6.384   1.662   2.282 -0.6947 -0.2773  0.6818
62198SOL    HW193644   6.409   1.629   2.368 -1.1370  1.4945  1.5404
62198SOL    HW293645   6.460   1.711   2.253 -0.0550 -1.9227 -0.5638
62199SOL     OW93646   1.736   0.476  12.303 -0.5830 -0.1590  0.5025
62199SOL    HW193647   1.706   0.453  12.215  1.3401  0.0412 -0.2641
62199SOL    HW293648   1.821   0.432  12.311  0.0500  1.2122  1.6031
62200SOL     OW93649   4.950   2.141   7.896 -0.1553 -0.1547  0.2674
62200SOL    HW193650   4.929   2.207   7.830  0.1468  0.0540  0.3759
62200SOL    HW293651   5.044   2.149   7.910 -0.3672  0.5457  1.4894
62201SOL     OW93652   2.690   4.078   4.099 -0.4411  0.5671 -0.0950
62201SOL    HW193653   2.664   4.031   4.020  0.0360  1.3268 -0.7235
62201SOL    HW293654   2.607   4.095   4.145 -0.6668 -0.3663 -0.1373
62202SOL     OW93655  12.179  11.844   3.040 -0.5103 -0.1818  0.2168
62202SOL    HW193656  12.220  11.909   3.097  1.9276 -0.7481 -0.7473
62202SOL    HW293657  12.111  11.892   2.993  1.1409  1.7231 -0.3913
62203SOL     OW93658   8.874   0.681  10.254 -0.6627 -0.1660  0.8006
62203SOL    HW193659   8.965   0.711  10.246 -1.1274  0.8722 -1.0338
62203SOL    HW293660   8.850   0.703  10.344  1.4042 -2.0412  1.9237
62204SOL     OW93661   4.540   8.739   5.464  0.3921  0.0839 -0.1041
62204SOL    HW193662   4.565   8.785   5.384 -2.1965  0.6056 -0.6990
62204SOL    HW293663   4.484   8.801   5.511 -0.5041 -1.2591  0.6762
62205SOL     OW93664  11.423   8.121   8.210  0.2344 -0.6684  0.3085
62205SOL    HW193665  11.410   8.027   8.220  0.1419 -0.7460 -0.4467
62205SOL    HW293666  11.356   8.148   8.147 -0.7738  0.1960  1.6888
62206SOL     OW93667   2.079   1.732   7.220  0.2186 -0.0131  0.0172
62206SOL    HW193668   2.066   1.777   7.137 -1.8941 -0.6283 -0.0635
62206SOL    HW293669   2.081   1.639   7.198  0.5987 -0.1375  0.5499
62207SOL     OW93670   4.997   9.589   0.597  0.1280  0.5250 -0.1544
62207SOL    HW193671   4.921   9.631   0.638 -0.9185 -0.8961 -0.5355
62207SOL    HW293672   4.959   9.515   0.548  1.8042 -0.4590 -0.0331
62208SOL     OW93673   0.169   6.467  11.929 -0.0481  0.0601 -0.3696
62208SOL    HW193674   0.239   6.402  11.930 -1.2752 -1.3080  1.0172
62208SOL    HW293675   0.187   6.520  11.850  2.2265 -0.5207 -0.3154
62209SOL     OW93676   9.123   6.584   9.556 -0.9641  0.0009 -0.2060
62209SOL    HW193677   9.199   6.607   9.502 -0.6759  0.8798  0.5310
62209SOL    HW293678   9.161   6.557   9.640 -1.4047 -1.2813 -0.4044
62210SOL     OW93679  10.194   9.724   9.697 -0.6948  0.3168  0.2381
62210SOL    HW193680  10.181   9.802   9.643 -2.5574  0.8983  1.4118
62210SOL    HW293681  10.285   9.700   9.683 -0.3105  2.1776 -0.8520
62211SOL     OW93682   0.514   4.800  10.875 -0.7143  0.2301  0.2757
62211SOL    HW193683   0.558   4.750  10.944  0.0505  0.3461 -0.1279
62211SOL    HW293684   0.434   4.750  10.858  0.5481 -1.5309 -0.9103
62212SOL     OW93685   1.213   4.679  11.003 -0.1681 -0.3813  0.5340
62212SOL    HW193686   1.171   4.638  11.079 -1.3309 -0.6744 -0.2491
62212SOL    HW293687   1.152   4.746  10.974  0.5015  0.0776  0.1457
62213SOL     OW93688  10.509  10.080   6.812 -0.0191  0.3056 -0.1891
62213SOL    HW193689  10.506  10.096   6.718 -0.0155 -0.5554 -0.3413
62213SOL    HW293690  10.420  10.098   6.843 -0.1499  0.0835 -0.4391
62214SOL     OW93691   9.719   2.909   3.827 -0.2765  0.0478  1.0875
62214SOL    HW193692   9.630   2.939   3.844 -0.2107 -0.2683  2.0741
62214SOL    HW293693   9.713   2.861   3.744 -0.4449  2.4239 -0.3552
62215SOL     OW93694  10.766   4.725   5.390  0.1853 -0.2972 -0.9539
62215SOL    HW193695  10.739   4.633   5.395 -0.2518 -0.1456 -0.5369
62215SOL    HW293696  10.686   4.775   5.403  0.3170  0.1526 -1.7650
62216SOL     OW93697   3.623  11.783   9.501 -0.3313  0.1222 -0.2232
62216SOL    HW193698   3.537  11.801   9.464 -1.1155  0.6035  1.6836
62216SOL    HW293699   3.676  11.859   9.475 -0.6315  0.0931 -0.9445
62217SOL     OW93700   1.605   8.132  10.231 -0.2248 -0.2862  0.0231
62217SOL    HW193701   1.536   8.136  10.165  0.7505  0.0108 -1.0020
62217SOL    HW293702   1.618   8.223  10.257 -1.5206 -0.5206  1.6329
62218SOL     OW93703   3.390   7.507   1.642  0.1469  0.2802 -0.3210
62218SOL    HW193704   3.473   7.552   1.659  0.3089 -0.6491  1.7592
62218SOL    HW293705   3.323   7.574   1.656  0.4280  0.2161  1.7243
62219SOL     OW93706   7.385   1.540  11.387 -0.2651 -0.0441 -0.1136
62219SOL    HW193707   7.411   1.613  11.444 -1.2409 -1.6953  2.6396
62219SOL    HW293708   7.302   1.568  11.348 -0.1854  0.6546  0.1912
62220SOL     OW93709  10.532   8.261   5.309  0.4023  0.2458 -0.7316
62220SOL    HW193710  10.621   8.297   5.305 -0.1175  1.5855 -0.5764
62220SOL    HW293711  10.505   8.275   5.399 -1.0347  2.5677 -1.4461
62221SOL     OW93712   1.401   6.543   9.113 -0.0554 -0.0930  0.0480
62221SOL    HW193713   1.422   6.494   9.033  0.0964  1.9859 -1.2459
62221SOL    HW293714   1.314   6.579   9.097 -0.1372  0.1425  0.9575
62222SOL     OW93715  12.095  11.388   7.486 -0.3403  0.0995 -0.0899
62222SOL    HW193716  12.046  11.374   7.405 -1.8162 -0.6106  0.8831
62222SOL    HW293717  12.042  11.450   7.537  0.5693  0.5466  0.3565
62223SOL     OW93718  10.793   9.754  11.785 -0.4057  0.9243 -0.4285
62223SOL    HW193719  10.874   9.755  11.734 -0.5454  1.7512 -0.6442
62223SOL    HW293720  10.821   9.732  11.874 -0.1607 -0.5732 -0.8378
62224SOL     OW93721   7.513  10.801   5.453  0.1770  0.0236  0.3605
62224SOL    HW193722   7.423  10.829   5.468  0.3614 -0.2149  2.0610
62224SOL    HW293723   7.538  10.844   5.371 -0.6430  2.1420  1.1599
62225SOL     OW93724   1.480   4.481   2.522 -0.4227  0.6689  0.4398
62225SOL    HW193725   1.402   4.498   2.576 -0.0295  1.6200  0.7312
62225SOL    HW293726   1.458   4.403   2.472 -1.2512  0.4500  1.1253
62226SOL     OW93727   3.001   3.325   1.743 -0.0645 -0.3432 -0.5465
62226SOL    HW193728   2.965   3.410   1.772 -0.2076 -0.9747  1.2526
62226SOL    HW293729   3.064   3.302   1.811 -0.1656 -1.7717 -0.9196
62227SOL     OW93730   8.440   2.753   7.107 -0.5202 -0.7053 -0.9607
62227SOL    HW193731   8.503   2.811   7.064  0.1099  0.6271  1.5354
62227SOL    HW293732   8.478   2.665   7.099 -0.1937 -0.4454 -2.5765
62228SOL     OW93733  11.679   6.141   5.293  0.0897  0.3640 -0.1732
62228SOL    HW193734  11.593   6.166   5.260  0.1269 -0.8853 -1.2829
62228SOL    HW293735  11.661   6.074   5.359  0.2301 -1.0661 -1.5188
62229SOL     OW93736  12.226   1.320   2.371 -0.1900  0.0847  0.3932
62229SOL    HW193737  12.144   1.337   2.325 -0.6883 -0.5990  1.0094
62229SOL    HW293738  12.222   1.375   2.449  0.1848  0.4544  0.1573
62230SOL     OW93739  11.448   9.245   2.588  0.1366 -0.4888  0.5748
62230SOL    HW193740  11.430   9.297   2.510  0.2675  0.0856  0.9199
62230SOL    HW293741  11.393   9.167   2.579 -0.2198 -0.1904  0.1510
62231SOL     OW93742   0.818  10.997   9.031 -0.7134  0.2260  0.2828
62231SOL    HW193743   0.771  10.938   8.973  0.0475 -1.2264  1.0834
62231SOL    HW293744   0.840  11.073   8.977 -0.8060 -0.6887 -1.0715
62232SOL     OW93745  12.199  10.193   5.393  0.2354  0.1943  0.3449
62232SOL    HW193746  12.149  10.113   5.373 -1.3219  1.3986 -0.8216
62232SOL    HW293747  12.206  10.193   5.488 -1.3382 -0.4174  0.4930
62233SOL     OW93748   1.854  10.191  11.306 -0.4225  0.8287 -0.8085
62233SOL    HW193749   1.949  10.197  11.309 -0.2416 -1.5352  1.0457
62233SOL    HW293750   1.824  10.266  11.357  0.5896  0.1323  0.8961
62234SOL     OW93751  11.940   6.282   9.614 -0.1182  0.0073 -0.0054
62234SOL    HW193752  11.998   6.318   9.681 -0.4436 -0.1641  0.3724
62234SOL    HW293753  11.959   6.334   9.536 -0.1072  0.5628  0.3577
62235SOL     OW93754   3.352   8.144  10.847 -0.2713 -0.3079  0.4257
62235SOL    HW193755   3.309   8.159  10.762  2.2314  0.0635 -0.8717
62235SOL    HW293756   3.355   8.049  10.855 -0.7125 -0.3445  0.1900
62236SOL     OW93757   8.083   8.882   6.209 -0.4376 -0.2811 -0.0131
62236SOL    HW193758   8.172   8.908   6.183 -0.4561  0.0113  0.2133
62236SOL    HW293759   8.029   8.907   6.134 -0.4677  0.4262  0.2306
62237SOL     OW93760  12.075   5.220   7.543 -0.0861 -0.1056 -0.5111
62237SOL    HW193761  12.004   5.284   7.541  0.6649  0.7372 -1.6245
62237SOL    HW293762  12.098   5.213   7.636 -0.8033  0.5378 -0.2741
62238SOL     OW93763   6.886  11.566   3.441  0.0713  0.4038 -0.2692
62238SOL    HW193764   6.848  11.634   3.386  1.2071  0.9877 -0.3716
62238SOL    HW293765   6.965  11.606   3.478 -0.2004 -0.2688  1.1032
62239SOL     OW93766   8.195   2.059   0.165 -0.2944  0.1747  0.3464
62239SOL    HW193767   8.132   2.068   0.094  1.5043  0.2090 -1.3058
62239SOL    HW293768   8.251   2.137   0.159  1.8379 -1.3016 -0.2621
62240SOL     OW93769   6.633   0.428  10.943  0.3672 -0.3979 -0.4316
62240SOL    HW193770   6.646   0.334  10.948  0.6102 -0.3106  1.1710
62240SOL    HW293771   6.718   0.463  10.916  0.7911 -0.5172  0.7255
62241SOL     OW93772   0.193   7.767  10.223  0.4594  0.0353  0.1360
62241SOL    HW193773   0.128   7.706  10.258  0.5356 -0.4802 -0.6049
62241SOL    HW293774   0.142   7.837  10.183  0.3610  0.9610  1.7741
62242SOL     OW93775   1.582  10.522   6.913 -0.2470 -0.0704 -0.0365
62242SOL    HW193776   1.489  10.499   6.915 -0.0647 -0.8487 -0.3124
62242SOL    HW293777   1.605  10.537   7.005 -1.3284  3.0111 -0.1743
62243SOL     OW93778   1.263   8.446  12.481  0.2209  0.3466  0.0248
62243SOL    HW193779   1.189   8.388  12.462 -0.1980  1.1806 -1.0278
62243SOL    HW293780   1.315   8.446  12.401 -1.5405  3.9128 -1.3727
62244SOL     OW93781   3.558   9.113   2.199 -0.3067  0.0781 -0.0645
62244SOL    HW193782   3.491   9.048   2.221  0.3462 -1.7038 -2.8839
62244SOL    HW293783   3.512   9.179   2.148 -0.6397  1.0861  1.4528
62245SOL     OW93784   9.102   9.202  11.159 -0.2575  0.0024 -0.1502
62245SOL    HW193785   9.085   9.122  11.209  0.0238 -0.0132 -0.0798
62245SOL    HW293786   9.037   9.265  11.190  0.2387  0.1511  0.5909
62246SOL     OW93787   8.704   9.713   6.698 -0.1583 -0.1916 -0.1149
62246SOL    HW193788   8.713   9.726   6.793  2.0615  2.3118 -0.5291
62246SOL    HW293789   8.611   9.699   6.685 -0.6311  0.0421  2.3810
62247SOL     OW93790   9.939  12.402   0.274 -0.0809 -0.5269 -0.1336
62247SOL    HW193791   9.924  12.320   0.319  0.2398 -0.7245 -0.3781
62247SOL    HW293792   9.918  12.383   0.182  0.0327 -0.3460 -0.1977
62248SOL     OW93793   1.213   0.618   2.884 -0.4483 -0.0877  0.3333
62248SOL    HW193794   1.304   0.594   2.901 -0.2470 -0.0529 -0.6548
62248SOL    HW293795   1.171   0.614   2.970  0.4444 -0.2638  0.7736
62249SOL     OW93796   6.080   4.897  11.001  0.1999  0.1101 -0.0372
62249SOL    HW193797   6.118   4.814  11.030  0.4703  0.0767 -0.4761
62249SOL    HW293798   6.072   4.888  10.906 -0.7150  0.2003  0.0250
62250SOL     OW93799   2.741   4.160  11.084  0.0401  0.3967  0.1105
62250SOL    HW193800   2.788   4.210  11.017 -0.3678  0.0763 -0.4154
62250SOL    HW293801   2.718   4.226  11.150  0.3608  0.7316 -0.1069
62251SOL     OW93802   1.065   1.634   1.828 -0.2422  0.3673 -0.0254
62251SOL    HW193803   1.057   1.717   1.874 -0.6079  0.4370 -0.2075
62251SOL    HW293804   0.986   1.630   1.773 -0.5996 -0.4208  0.5224
62252SOL     OW93805   7.682   8.985   2.430 -0.4995 -0.2357  0.0968
62252SOL    HW193806   7.608   8.995   2.490 -0.7842  1.4028 -0.4728
62252SOL    HW293807   7.650   8.925   2.363 -2.0705  1.8999 -1.1858
62253SOL     OW93808   5.525  12.083   3.977 -0.0633  0.8902 -0.3140
62253SOL    HW193809   5.464  12.039   4.036 -0.5652  0.1463 -1.3494
62253SOL    HW293810   5.593  12.118   4.034  0.1481 -0.8947  0.6001
62254SOL     OW93811   2.188   5.554   6.366  0.2641  0.1774  0.5941
62254SOL    HW193812   2.259   5.491   6.379 -1.5736 -2.4344 -1.0355
62254SOL    HW293813   2.225   5.621   6.309  1.6645 -0.6555  0.4941
62255SOL     OW93814   0.611   2.823   7.171 -0.2204 -0.3749 -0.7009
62255SOL    HW193815   0.594   2.821   7.077  0.4340 -1.1544 -0.8119
62255SOL    HW293816   0.698   2.784   7.181  0.1659  0.6370  0.1322
62256SOL     OW93817   3.817   6.580  11.146  0.0783  0.3600  0.1771
62256SOL    HW193818   3.795   6.503  11.200  1.0917 -0.4461 -0.5350
62256SOL    HW293819   3.738   6.594  11.093  0.9498 -2.2144 -2.0153
62257SOL     OW93820  10.687   6.329   0.658 -0.5648  0.3820  0.0853
62257SOL    HW193821  10.603   6.363   0.689 -1.2441  0.3225 -1.6140
62257SOL    HW293822  10.684   6.235   0.677 -0.7643  0.4254  0.2711
62258SOL     OW93823   3.787   8.419   1.566  0.3436 -0.4762  0.2660
62258SOL    HW193824   3.844   8.448   1.638  1.4795 -1.3914 -0.2332
62258SOL    HW293825   3.800   8.325   1.562 -0.6688 -0.5993 -0.3471
62259SOL     OW93826   7.766   0.695   7.855 -0.2891  0.0133 -0.0960
62259SOL    HW193827   7.735   0.668   7.769  0.5360 -0.9311 -0.1122
62259SOL    HW293828   7.817   0.620   7.887  1.7602  1.3857  0.0359
62260SOL     OW93829   8.279  11.860   8.932 -0.0008  0.4360  0.0388
62260SOL    HW193830   8.370  11.878   8.957 -1.0463  2.1376  3.1515
62260SOL    HW293831   8.237  11.946   8.929 -1.3431 -0.2198 -2.3791
62261SOL     OW93832   4.825   6.918   0.044 -0.1955 -0.5246  0.4462
62261SOL    HW193833   4.911   6.925   0.002 -0.5928 -1.0969 -0.4802
62261SOL    HW293834   4.776   6.858  -0.012 -0.7334 -1.3394  1.7646
62262SOL     OW93835   5.473   2.119   0.632 -0.4430  0.0872  0.0339
62262SOL    HW193836   5.426   2.043   0.597  0.1544  0.2293 -1.1488
62262SOL    HW293837   5.513   2.159   0.555 -0.5098  1.4423  0.6738
62263SOL     OW93838   2.493   0.131   6.659  0.4671  0.0188  0.5195
62263SOL    HW193839   2.425   0.091   6.605 -0.3928 -0.4114  1.8769
62263SOL    HW293840   2.549   0.177   6.597 -0.0991 -1.0162 -0.8018
62264SOL     OW93841   6.661   6.888   0.290  0.2216  0.2258  0.1929
62264SOL    HW193842   6.577   6.844   0.306  0.4422 -0.3555 -0.2208
62264SOL    HW293843   6.657   6.967   0.344 -0.9065  0.5928 -0.3963
62265SOL     OW93844   8.091  10.496   2.731  0.1761 -0.3066 -0.3524
62265SOL    HW193845   8.139  10.416   2.706 -1.5986 -1.0239 -1.7194
62265SOL    HW293846   8.150  10.567   2.708  1.5183 -1.1974  0.2072
62266SOL     OW93847   1.277   9.123  10.212 -0.3437 -0.3361 -0.4086
62266SOL    HW193848   1.297   9.205  10.258  0.5866 -1.3398  1.0579
62266SOL    HW293849   1.322   9.132  10.128 -1.8711  1.4372 -1.1167
62267SOL     OW93850   2.261  12.429  12.456  0.8849 -0.2300  0.3446
62267SOL    HW193851   2.207  12.438  12.534  1.3255 -0.5151  0.6919
62267SOL    HW293852   2.315  12.508  12.455 -2.2912  2.1605 -2.2468
62268SOL     OW93853   9.670   6.232   2.319  0.4947 -0.4007  0.3096
62268SOL    HW193854   9.672   6.259   2.227 -1.3822  0.9701  0.6201
62268SOL    HW293855   9.652   6.138   2.316  0.9176 -0.4592 -0.7275
62269SOL     OW93856   7.609   6.585   0.076  0.3702  0.1603 -0.1612
62269SOL    HW193857   7.560   6.533   0.139 -1.2156  0.7008 -0.8960
62269SOL    HW293858   7.649   6.520   0.017  0.1094 -0.2847  0.1459
62270SOL     OW93859   8.222  12.006   3.824 -0.2951  0.2397 -0.3741
62270SOL    HW193860   8.235  12.022   3.731 -1.9650  2.7322 -0.2613
62270SOL    HW293861   8.213  11.911   3.831 -0.4166  0.0171 -2.7684
62271SOL     OW93862  10.374   2.843  11.717  0.6092  0.7099 -0.2608
62271SOL    HW193863  10.397   2.753  11.739  0.2820  1.2237  2.5920
62271SOL    HW293864  10.305   2.866  11.779  0.7839  2.9773 -0.8081
62272SOL     OW93865   2.376   5.029   4.148  0.8153  0.3723 -0.1957
62272SOL    HW193866   2.406   5.007   4.059 -0.3580 -0.5091 -0.4098
62272SOL    HW293867   2.302   5.088   4.134  1.0843  0.8178  0.2345
62273SOL     OW93868   3.127  11.389   6.001  0.3228 -0.7219  0.4617
62273SOL    HW193869   3.214  11.426   5.989  0.3093 -0.9440 -0.4256
62273SOL    HW293870   3.107  11.346   5.917 -0.4811 -0.9985  0.7786
62274SOL     OW93871   7.605   1.855   2.020  0.4948  0.5936 -0.3987
62274SOL    HW193872   7.650   1.781   2.062  0.3212  0.0830 -1.0993
62274SOL    HW293873   7.513   1.843   2.042 -0.0343 -1.2650 -3.1516
62275SOL     OW93874   7.303   3.906   0.544 -0.3266 -0.4479  0.2760
62275SOL    HW193875   7.262   3.930   0.461  1.0597 -2.1184 -0.9729
62275SOL    HW293876   7.234   3.919   0.609 -1.3015  1.4336 -1.0120
62276SOL     OW93877   5.893   0.419   7.195 -0.1163 -0.7517  0.0229
62276SOL    HW193878   5.823   0.443   7.134  0.1910 -1.0827 -0.4689
62276SOL    HW293879   5.974   0.441   7.149  0.1070  0.7829  1.0764
62277SOL     OW93880  10.275   5.144   5.446  0.2977  0.4993 -0.2580
62277SOL    HW193881  10.296   5.230   5.410  0.4635 -0.5346 -2.8840
62277SOL    HW293882  10.179   5.142   5.448  0.2894  0.6197 -0.5091
62278SOL     OW93883   6.149   4.553   3.755  0.1129  0.6586  0.4581
62278SOL    HW193884   6.241   4.573   3.737  0.1229  3.2480  2.6983
62278SOL    HW293885   6.144   4.547   3.851 -1.7078 -1.6356  0.3091
62279SOL     OW93886   8.372   7.864   7.660  0.4665 -0.1734  0.2479
62279SOL    HW193887   8.437   7.932   7.643  0.7762 -0.3037  0.9023
62279SOL    HW293888   8.290   7.911   7.672  0.5041  0.0169 -0.2156
62280SOL     OW93889   8.993   7.471   1.646 -0.3630 -0.4414  0.9191
62280SOL    HW193890   8.932   7.543   1.659 -2.3005 -1.9218  0.5063
62280SOL    HW293891   9.030   7.455   1.733  0.3991  1.2423  0.9468
62281SOL     OW93892  10.615   9.238   6.404 -0.1468  0.0019  0.4517
62281SOL    HW193893  10.545   9.189   6.448  0.6672 -0.6370  1.0803
62281SOL    HW293894  10.684   9.245   6.470  0.2466  0.9227 -0.0444
62282SOL     OW93895   8.768   0.043   1.193 -0.2036  0.1135  0.4564
62282SOL    HW193896   8.767   0.121   1.250 -0.5545  0.1138  0.4508
62282SOL    HW293897   8.676   0.021   1.181 -0.0909 -0.8534  1.2008
62283SOL     OW93898   7.331   7.240   4.099  0.2755  0.6079 -0.0922
62283SOL    HW193899   7.268   7.299   4.140 -0.8449 -0.7030  0.1628
62283SOL    HW293900   7.383   7.206   4.171 -1.2410 -1.1684  0.2380
62284SOL     OW93901   4.336  11.052  12.168 -0.1909 -0.1108  0.4770
62284SOL    HW193902   4.270  11.023  12.106 -0.2872 -1.4850  1.1834
62284SOL    HW293903   4.418  11.015  12.135  0.2488  1.4958 -0.3366
62285SOL     OW93904   9.083   3.764   9.972  0.2238  0.3096 -0.5067
62285SOL    HW193905   9.077   3.792  10.064 -0.7350  0.6661 -0.6698
62285SOL    HW293906   9.160   3.809   9.938 -1.0101  2.4243 -0.6390
62286SOL     OW93907   4.788   1.315   2.203  0.5938  0.4413  0.3868
62286SOL    HW193908   4.859   1.336   2.142  1.8198  1.1519  1.9615
62286SOL    HW293909   4.713   1.366   2.172  0.3196 -1.2945 -2.0468
62287SOL     OW93910   3.688   4.767   3.489 -0.1033  0.1658  0.5614
62287SOL    HW193911   3.778   4.781   3.517  0.4612  1.7042 -1.7438
62287SOL    HW293912   3.669   4.841   3.432 -1.8882 -1.5485 -1.2266
62288SOL     OW93913   5.162   5.475   3.978  0.0803 -0.1683  0.0873
62288SOL    HW193914   5.100   5.416   4.020  0.7697 -1.4070 -0.5606
62288SOL    HW293915   5.236   5.419   3.955  0.9863  1.0585 -0.1072
62289SOL     OW93916   8.581   2.799   6.850 -0.6933  0.0170  0.3002
62289SOL    HW193917   8.568   2.739   6.777 -1.1320  0.5947 -0.1102
62289SOL    HW293918   8.663   2.770   6.890  0.6998  0.9259 -1.6784
62290SOL     OW93919   3.422   9.642  11.289 -0.0890 -0.0514  0.0389
62290SOL    HW193920   3.337   9.685  11.280  0.8644  2.0390  0.3240
62290SOL    HW293921   3.446   9.617  11.200  0.5331  2.6175 -0.6264
62291SOL     OW93922  12.510   9.859   2.511  0.1996 -0.3020 -0.1951
62291SOL    HW193923  12.574   9.801   2.554  0.1302 -0.5673 -0.4461
62291SOL    HW293924  12.564   9.923   2.464  0.2871  0.7194  1.2274
62292SOL     OW93925  11.398  11.918   2.348 -0.7049 -0.2121 -0.3752
62292SOL    HW193926  11.449  11.876   2.417 -1.6633 -1.3868 -0.3595
62292SOL    HW293927  11.359  11.846   2.299 -1.3919  0.6316 -1.1103
62293SOL     OW93928   9.096   9.151   4.616  0.0019  0.1133 -0.2542
62293SOL    HW193929   9.048   9.186   4.692 -0.8981 -1.7954  0.1365
62293SOL    HW293930   9.030   9.146   4.546 -0.0590 -1.1753 -0.1424
62294SOL     OW93931  10.559  10.006   1.522 -0.0100 -0.0890 -0.4247
62294SOL    HW193932  10.573   9.918   1.559 -0.9965 -0.1550 -0.1738
62294SOL    HW293933  10.468  10.026   1.543  0.1839  0.9685 -0.5510
62295SOL     OW93934   3.876   0.444   2.438  0.3767 -0.7035  0.5264
62295SOL    HW193935   3.797   0.414   2.482  0.2978 -2.2932 -0.6096
62295SOL    HW293936   3.906   0.368   2.388  1.2365  0.6025 -1.0349
62296SOL     OW93937  11.107   8.825   4.579  0.0903  0.9969 -0.2979
62296SOL    HW193938  11.061   8.756   4.627  2.5485 -0.5041  0.0739
62296SOL    HW293939  11.196   8.791   4.566  0.3634  2.5234 -3.4944
62297SOL     OW93940   0.550  11.466  11.326 -0.5530  0.0174  0.1033
62297SOL    HW193941   0.581  11.380  11.354 -2.1669 -0.9168 -0.8530
62297SOL    HW293942   0.509  11.504  11.404  1.7446  0.7789  1.0553
62298SOL     OW93943  10.028   1.174   9.281 -0.7322  0.8194 -0.2588
62298SOL    HW193944  10.119   1.150   9.265 -1.6245 -2.5441 -1.1268
62298SOL    HW293945  10.022   1.187   9.375  0.1201 -2.0066  0.2838
62299SOL     OW93946  10.533   9.002  10.587 -0.2150 -0.0445 -0.1346
62299SOL    HW193947  10.596   8.974  10.521  2.3053  1.9620  1.2323
62299SOL    HW293948  10.544   8.941  10.659 -2.9086 -2.1849 -1.3715
62300SOL     OW93949   5.948   1.207   4.738  0.6775 -0.4179 -0.0794
62300SOL    HW193950   6.012   1.142   4.707  1.1122  0.0215 -0.1112
62300SOL    HW293951   5.864   1.176   4.703  0.8460 -1.0751  0.0806
62301SOL     OW93952   0.357  12.338   3.340 -0.7868  0.1700 -0.1807
62301SOL    HW193953   0.346  12.424   3.300 -0.6553  0.8602  1.1905
62301SOL    HW293954   0.308  12.343   3.423  0.4021 -0.5819  0.6000
62302SOL     OW93955  10.302   9.445  10.740 -0.3432  0.4005 -0.3279
62302SOL    HW193956  10.356   9.392  10.798 -0.4884 -0.4976 -0.9977
62302SOL    HW293957  10.231   9.388  10.714 -0.6197  0.9918 -0.9022
62303SOL     OW93958   0.893   4.349   9.094 -0.1060 -0.3986 -0.1292
62303SOL    HW193959   0.818   4.354   9.153 -0.1898 -0.3809 -0.2368
62303SOL    HW293960   0.914   4.440   9.073 -0.5639 -0.4254 -0.7388
62304SOL     OW93961   7.117   1.823   8.332 -0.1744  0.0513  0.1848
62304SOL    HW193962   7.147   1.732   8.344 -0.0646  0.2494  1.5880
62304SOL    HW293963   7.165   1.854   8.255  1.0809 -0.5554  0.6929
62305SOL     OW93964   1.963   8.650   7.038 -0.3706 -0.2360 -0.0849
62305SOL    HW193965   1.894   8.699   6.992  1.2345  0.9431 -1.3624
62305SOL    HW293966   2.030   8.636   6.972 -0.2930 -3.3789  0.5077
62306SOL     OW93967  11.531  10.794   5.499  0.3041  0.0032  0.1684
62306SOL    HW193968  11.537  10.822   5.408 -0.4921  0.2954  0.1935
62306SOL    HW293969  11.514  10.874   5.548  0.3517 -0.2039  0.5317
62307SOL     OW93970   1.560   7.606   5.313 -0.0534  0.5668  0.0215
62307SOL    HW193971   1.549   7.527   5.261 -1.9386  0.7939  0.0100
62307SOL    HW293972   1.613   7.578   5.388  1.8966  0.0298 -1.4693
62308SOL     OW93973  10.051   2.244   1.344 -0.4198  0.7698  0.3094
62308SOL    HW193974   9.964   2.202   1.339  0.8078 -2.0542  0.8761
62308SOL    HW293975  10.072   2.265   1.252 -0.6755 -0.8774 -0.1574
62309SOL     OW93976   8.722   2.036   5.219  0.0204  0.4663  0.4197
62309SOL    HW193977   8.697   2.009   5.131 -0.2892  0.2290  0.5755
62309SOL    HW293978   8.754   1.955   5.260 -1.0327  0.2937  0.9337
62310SOL     OW93979   0.350   1.792   5.962  0.4283  0.4601  0.2146
62310SOL    HW193980   0.305   1.802   6.046  0.7258  0.6808  0.3528
62310SOL    HW293981   0.377   1.700   5.960 -1.1730 -0.0215 -0.4665
62311SOL     OW93982   0.212   8.157   9.077  0.6054  0.0559 -0.1320
62311SOL    HW193983   0.148   8.152   9.006  1.9128  0.4668 -1.3863
62311SOL    HW293984   0.159   8.164   9.156 -0.9136 -0.9848 -0.9896
62312SOL     OW93985   5.941  10.046   6.575  0.0852  0.0154 -0.9014
62312SOL    HW193986   5.966  10.032   6.666  1.8500  1.2274 -1.1399
62312SOL    HW293987   5.880   9.975   6.555  0.3337 -0.7708  0.9568
62313SOL     OW93988   1.404   5.968   9.792  0.2627  0.1530 -0.4543
62313SOL    HW193989   1.371   5.878   9.789  0.0548  0.1849  0.4843
62313SOL    HW293990   1.325   6.022   9.798  0.4168  0.2372  1.6888
62314SOL     OW93991   7.513   2.887   5.139  0.3724 -0.1459 -0.0001
62314SOL    HW193992   7.513   2.847   5.052 -0.6466  2.7154 -1.4333
62314SOL    HW293993   7.565   2.967   5.129 -2.9678  2.3579  0.8309
62315SOL     OW93994   2.122   2.969   9.213 -0.1611  0.0667 -0.3750
62315SOL    HW193995   2.101   2.994   9.123 -0.7885 -2.7782 -1.1502
62315SOL    HW293996   2.208   2.928   9.206 -0.1290  0.0069  0.3633
62316SOL     OW93997   1.534   9.298   1.303 -0.4519  0.1317  0.2771
62316SOL    HW193998   1.623   9.270   1.327 -1.6421 -2.5109  2.0811
62316SOL    HW293999   1.535   9.297   1.207  0.6503 -3.2203  0.1627
62317SOL     OW94000   0.719   9.930   4.398  0.2796 -0.3835 -0.3913
62317SOL    HW194001   0.725  10.012   4.448 -1.5117  0.8132 -1.9843
62317SOL    HW294002   0.762   9.865   4.453 -1.3747  0.8710  2.6131
62318SOL     OW94003   3.863   8.838   6.349  0.3606  0.0896  0.2197
62318SOL    HW194004   3.770   8.862   6.351  1.1060  3.4131  1.6224
62318SOL    HW294005   3.888   8.831   6.441  2.0377  1.9023 -0.0466
62319SOL     OW94006  10.045   4.657   0.079 -0.3235 -0.0068  0.2538
62319SOL    HW194007   9.953   4.678   0.063 -0.3054  0.5448  0.8143
62319SOL    HW294008  10.085   4.651  -0.007 -0.8356 -0.0030  0.0172
62320SOL     OW94009   6.415  10.410   3.335  0.3371  0.2217  0.1744
62320SOL    HW194010   6.395  10.501   3.317  2.2059  0.5620 -0.4241
62320SOL    HW294011   6.507  10.410   3.362  0.2769 -1.4361  0.5199
62321SOL     OW94012  12.132   4.634   4.250  0.1374 -0.5031  0.2341
62321SOL    HW194013  12.161   4.544   4.237  3.2897  0.0574  2.1309
62321SOL    HW294014  12.117   4.641   4.345 -0.8368  0.7941  0.0149
62322SOL     OW94015  12.036   5.027   9.447 -0.1124  0.3665 -0.2169
62322SOL    HW194016  11.954   4.985   9.422  0.5602 -0.0790 -1.8241
62322SOL    HW294017  12.059   4.987   9.531 -0.4015 -1.1883 -0.8400
62323SOL     OW94018   0.130  11.270   4.093 -0.4035  0.4485 -0.1646
62323SOL    HW194019   0.057  11.312   4.048 -1.0476 -0.1865  0.2695
62323SOL    HW294020   0.187  11.238   4.023 -1.2343 -0.2520 -0.5390
62324SOL     OW94021  10.377   6.193  10.846 -0.4191  0.1343  0.0539
62324SOL    HW194022  10.401   6.169  10.936 -0.5422 -0.1507  0.0109
62324SOL    HW294023  10.305   6.255  10.856 -1.3711 -0.9472  0.1290
62325SOL     OW94024   3.557   1.462   3.729  0.0316  0.0636  0.0130
62325SOL    HW194025   3.473   1.506   3.738  0.0239  0.7754 -2.5509
62325SOL    HW294026   3.535   1.369   3.725 -0.5331  0.1822  0.3190
62326SOL     OW94027   4.283  12.259   6.996 -0.2809  0.0751 -0.1861
62326SOL    HW194028   4.327  12.204   7.062 -0.0064  0.9244  0.3558
62326SOL    HW294029   4.199  12.280   7.035 -0.1969  0.4244 -0.1960
62327SOL     OW94030   0.444   6.610   9.043 -0.4077 -0.2926  0.1903
62327SOL    HW194031   0.464   6.692   9.087  0.2640 -0.4489  0.1850
62327SOL    HW294032   0.431   6.547   9.113 -1.1929 -0.1298  0.2017
62328SOL     OW94033   9.815   5.647   7.096  0.3451  0.0142  0.1324
62328SOL    HW194034   9.728   5.638   7.134  0.4860  0.0267  0.4602
62328SOL    HW294035   9.799   5.658   7.002 -0.0196  0.2485  0.2185
62329SOL     OW94036   5.245   0.696   1.555 -0.0773  0.3926  0.6236
62329SOL    HW194037   5.169   0.645   1.530  1.0202 -0.9139 -0.1685
62329SOL    HW294038   5.293   0.640   1.617  0.9149  0.6300  0.0886
62330SOL     OW94039   0.277  10.147   9.811  0.0206 -0.6735 -0.4471
62330SOL    HW194040   0.330  10.222   9.786 -3.4881  1.6960 -1.4804
62330SOL    HW294041   0.253  10.105   9.729 -0.4421 -1.1348 -0.0877
62331SOL     OW94042   7.791  11.047   2.704  0.9157  0.0001 -0.4654
62331SOL    HW194043   7.708  11.081   2.669  0.2024 -1.2346 -0.0478
62331SOL    HW294044   7.798  11.088   2.791  0.4471 -0.3218 -0.2703
62332SOL     OW94045   6.800   3.597   7.006 -0.5553  0.5632  0.2684
62332SOL    HW194046   6.821   3.533   6.938 -0.0955  0.3436  0.6098
62332SOL    HW294047   6.712   3.628   6.984 -0.5732  0.1936 -0.1933
62333SOL     OW94048   1.076   8.830   5.663 -0.6063 -0.4054  0.3798
62333SOL    HW194049   1.107   8.782   5.586 -0.8945 -2.3366  1.4213
62333SOL    HW294050   1.022   8.901   5.626  0.6962 -0.1985 -1.2331
62334SOL     OW94051  12.139   7.671  12.007  0.0767  0.1281  0.0959
62334SOL    HW194052  12.107   7.584  11.985  0.8477 -0.3147  0.6572
62334SOL    HW294053  12.204   7.691  11.939  1.8599 -0.8961  1.3963
62335SOL     OW94054   3.992   6.970   0.692  0.2695 -0.0222  0.0173
62335SOL    HW194055   3.942   6.995   0.614  1.5859  2.2290 -0.1813
62335SOL    HW294056   4.058   6.908   0.659  1.0527  1.1932 -0.7705
62336SOL     OW94057  11.179   2.986   4.695  0.7251  0.0821 -0.5512
62336SOL    HW194058  11.210   3.072   4.667  0.0812  0.2324 -0.8383
62336SOL    HW294059  11.092   3.004   4.733  1.0449 -0.2968  0.3811
62337SOL     OW94060   9.916   9.390   7.937  0.2941  0.1760  0.1743
62337SOL    HW194061   9.904   9.485   7.930  1.8580  0.4200  0.4048
62337SOL    HW294062   9.971   9.368   7.862 -1.8673 -0.9378 -1.1548
62338SOL     OW94063   1.229  11.139   0.873  0.2389 -0.4829  0.0997
62338SOL    HW194064   1.306  11.188   0.845 -1.0521  0.3414 -2.2068
62338SOL    HW294065   1.264  11.075   0.936  2.2784  1.9700  1.6737
62339SOL     OW94066   4.275   1.553   3.780  0.2926 -0.3922  0.1378
62339SOL    HW194067   4.344   1.619   3.781  0.0672 -0.1567  0.7413
62339SOL    HW294068   4.200   1.596   3.740  0.5792 -0.7422 -0.7940
62340SOL     OW94069   9.036   4.088  10.642 -0.1641 -0.0525  0.2618
62340SOL    HW194070   9.109   4.042  10.685 -0.7534  0.0241  1.3969
62340SOL    HW294071   9.048   4.070  10.549  2.2441  1.3293  0.2171
62341SOL     OW94072  10.248   3.353   2.525 -0.3278  0.3954  0.0723
62341SOL    HW194073  10.287   3.339   2.439  0.8449  0.3253  0.6060
62341SOL    HW294074  10.191   3.277   2.538 -1.3183  0.9016 -1.0517
62342SOL     OW94075   3.427  11.484   9.226  0.4945 -0.0909  0.0721
62342SOL    HW194076   3.334  11.508   9.223 -0.1078 -2.2648 -0.2777
62342SOL    HW294077   3.438  11.440   9.310  1.1063 -0.2995 -0.1129
62343SOL     OW94078   4.031  10.644   7.800  0.0436  0.8908 -0.4040
62343SOL    HW194079   4.097  10.590   7.843 -1.2659 -1.1602 -0.8181
62343SOL    HW294080   4.073  10.677   7.721  0.7864  0.1928 -0.3073
62344SOL     OW94081   8.354  11.716   9.659  0.5966  0.0770  0.4232
62344SOL    HW194082   8.377  11.638   9.609 -0.6045 -1.0572  1.5573
62344SOL    HW294083   8.425  11.726   9.722  1.1483  0.3749 -0.2412
62345SOL     OW94084   6.259   7.731   1.491 -0.3645  0.1721  0.7229
62345SOL    HW194085   6.262   7.653   1.547 -2.2547  0.0036  0.6631
62345SOL    HW294086   6.233   7.699   1.405  0.8576  0.6454  0.1530
62346SOL     OW94087   9.312   8.644   6.269 -0.0483  0.5755 -0.5292
62346SOL    HW194088   9.263   8.723   6.289  0.3898  0.5954  0.5044
62346SOL    HW294089   9.366   8.628   6.346 -1.5068 -1.7900  0.1117
62347SOL     OW94090  11.250  12.408   0.910  0.5235 -0.1493 -0.5543
62347SOL    HW194091  11.341  12.425   0.886  1.4429 -0.5043  2.2834
62347SOL    HW294092  11.251  12.405   1.006 -1.7172 -4.0931 -0.4403
62348SOL     OW94093   7.076  12.416   2.036  0.4407  0.6343  0.5785
62348SOL    HW194094   7.076  12.320   2.037 -2.8247  0.5088  0.2903
62348SOL    HW294095   7.103  12.440   2.125  1.9716 -0.4707  0.4639
62349SOL     OW94096   0.167   1.291   6.544  0.0909 -0.4083 -0.0556
62349SOL    HW194097   0.233   1.288   6.475 -0.5006 -1.5940 -0.6029
62349SOL    HW294098   0.125   1.205   6.541 -2.3129  0.6831 -0.5531
62350SOL     OW94099   8.649   9.618   0.150  0.2109  0.3226  0.2074
62350SOL    HW194100   8.692   9.561   0.213  0.1561  0.1231  0.0650
62350SOL    HW294101   8.580   9.564   0.111 -0.3704  0.7346  0.6474
62351SOL     OW94102  11.289   7.019   0.637  0.5988 -0.5670 -0.3484
62351SOL    HW194103  11.255   6.976   0.715 -1.1517  1.3635  0.0308
62351SOL    HW294104  11.384   7.015   0.646  0.4330 -0.9263  1.5479
62352SOL     OW94105   9.841   0.477   9.488  0.0175 -1.0032 -0.0197
62352SOL    HW194106   9.831   0.548   9.425 -1.3396 -1.6113 -0.5120
62352SOL    HW294107   9.777   0.496   9.557  0.9141 -0.7899  0.7790
62353SOL     OW94108  11.443  11.869   1.812  0.3502 -0.1453 -0.2528
62353SOL    HW194109  11.445  11.780   1.776 -0.0349 -0.0631 -0.4838
62353SOL    HW294110  11.525  11.909   1.783 -0.2074  0.1020 -1.5196
62354SOL     OW94111   6.729   9.578   1.730 -0.1488  0.5694 -0.3867
62354SOL    HW194112   6.749   9.487   1.709 -1.0421  0.7904 -2.3538
62354SOL    HW294113   6.778   9.595   1.811  1.4732 -1.1153 -0.9487
62355SOL     OW94114   1.008   4.321   0.047  0.5502 -0.3555 -0.3179
62355SOL    HW194115   0.931   4.377   0.058  0.3707 -0.1876 -2.1169
62355SOL    HW294116   1.024   4.321  -0.048  2.1393 -1.2313 -0.0807
62356SOL     OW94117   8.542   2.095   1.552 -0.1959  0.5430  0.2167
62356SOL    HW194118   8.530   2.166   1.489 -0.4139 -0.6020 -1.0635
62356SOL    HW294119   8.474   2.109   1.618 -0.9575  0.8725 -0.6292
62357SOL     OW94120  10.509   5.057   3.263 -0.2596 -0.7284 -0.7460
62357SOL    HW194121  10.452   4.981   3.276  0.3997 -1.3462 -1.3886
62357SOL    HW294122  10.584   5.041   3.321 -0.7185  0.0914  0.1112
62358SOL     OW94123   2.902   0.296   8.607 -0.7452  0.3402 -0.2117
62358SOL    HW194124   2.860   0.313   8.691 -0.6857 -1.9519  0.3492
62358SOL    HW294125   2.904   0.200   8.600  0.8150  0.4400 -2.0294
62359SOL     OW94126   3.913   6.061   4.575 -0.7108  0.5114  0.3586
62359SOL    HW194127   3.850   6.001   4.536  0.1907 -0.2781  0.0735
62359SOL    HW294128   3.904   6.048   4.669 -1.0620  0.4940  0.3216
62360SOL     OW94129   8.889   9.440   3.804 -0.0868  0.0605 -0.4824
62360SOL    HW194130   8.912   9.413   3.893  0.0500  0.7624 -0.3004
62360SOL    HW294131   8.839   9.521   3.815 -1.0722 -0.4589 -0.9822
62361SOL     OW94132  10.387  12.112   9.752 -0.8104  0.4756  0.2296
62361SOL    HW194133  10.424  12.184   9.701  0.9187 -0.6543 -0.1853
62361SOL    HW294134  10.331  12.155   9.816 -1.3566  2.0623 -1.2398
62362SOL     OW94135   6.391   4.974   3.430 -0.2027 -0.0773 -0.0663
62362SOL    HW194136   6.380   5.063   3.396  1.8622  1.2461  2.3738
62362SOL    HW294137   6.305   4.934   3.419 -1.1107  2.0666 -1.5863
62363SOL     OW94138   7.376   4.615   2.536 -0.2878 -0.2223 -0.4881
62363SOL    HW194139   7.315   4.588   2.604 -1.4746 -0.5346 -1.6345
62363SOL    HW294140   7.321   4.638   2.461  0.9656  0.1977 -1.3270
62364SOL     OW94141   3.191   2.406   6.189  0.0187 -0.1746  0.3089
62364SOL    HW194142   3.116   2.351   6.214 -0.2428  0.0862  0.1051
62364SOL    HW294143   3.257   2.388   6.256 -0.3893 -0.0781  0.7509
62365SOL     OW94144   6.825   9.316   3.509 -0.1900  0.2843  0.1005
62365SOL    HW194145   6.847   9.352   3.423 -0.7179 -1.4548 -0.8209
62365SOL    HW294146   6.768   9.241   3.490  0.4215 -0.7156  1.9008
62366SOL     OW94147   3.113   7.116  11.823 -0.0878 -0.0236 -0.0592
62366SOL    HW194148   3.095   7.065  11.902  1.3994  0.6054  0.7289
62366SOL    HW294149   3.128   7.205  11.855 -0.3507  0.4392 -1.1653
62367SOL     OW94150   6.356   4.315   3.697 -0.0523 -0.5768  0.4296
62367SOL    HW194151   6.376   4.407   3.715  1.2661 -0.7152 -0.1981
62367SOL    HW294152   6.442   4.273   3.686 -0.6619 -1.5668 -0.8148
62368SOL     OW94153   2.577   1.822  10.055 -0.0210  0.5938 -0.1552
62368SOL    HW194154   2.486   1.806  10.078 -0.2513  2.5332  0.4215
62368SOL    HW294155   2.586   1.785   9.967 -0.5922 -2.0428  0.7905
62369SOL     OW94156   7.885   1.085   9.086  0.0395 -0.3808  1.0802
62369SOL    HW194157   7.858   1.161   9.139 -1.0023  0.1042 -0.0928
62369SOL    HW294158   7.971   1.110   9.052 -0.3397  0.3402  0.6187
62370SOL     OW94159   3.807   4.680   5.891  0.0623 -0.3678 -0.0678
62370SOL    HW194160   3.724   4.657   5.848  0.0196  0.4290 -0.4246
62370SOL    HW294161   3.854   4.732   5.826  0.3894  0.0860  0.5280
62371SOL     OW94162  11.335   7.880  11.124  0.2192 -0.5111  0.2868
62371SOL    HW194163  11.397   7.890  11.052  0.1453  2.6044  0.5144
62371SOL    HW294164  11.266   7.824  11.088 -0.3946  1.8354 -2.5944
62372SOL     OW94165   9.790   9.500   0.965  0.2613  0.1088 -0.4902
62372SOL    HW194166   9.735   9.535   0.895  0.9827 -0.3894 -1.3299
62372SOL    HW294167   9.873   9.479   0.922  0.3619 -1.2109  0.2805
62373SOL     OW94168   4.896   4.341   4.409 -0.3852 -0.4401 -0.5228
62373SOL    HW194169   4.868   4.333   4.500  0.0364  0.6773 -0.2707
62373SOL    HW294170   4.988   4.314   4.409 -0.1328  0.3660 -0.4292
62374SOL     OW94171  11.321  10.487   4.053 -0.0006  0.2214  0.0785
62374SOL    HW194172  11.329  10.509   3.960  0.9389 -0.4680 -0.0156
62374SOL    HW294173  11.321  10.391   4.055  0.0415  0.2296  0.7934
62375SOL     OW94174   8.059   0.188  10.292  0.2350  0.7438 -0.5478
62375SOL    HW194175   8.056   0.175  10.387  2.3434 -0.2066 -0.5549
62375SOL    HW294176   8.024   0.276  10.279  0.3825  1.0953  1.1516
62376SOL     OW94177  10.459  12.270   4.908 -0.4928  0.4208 -0.1668
62376SOL    HW194178  10.434  12.355   4.946  2.1402  1.0939  0.2576
62376SOL    HW294179  10.471  12.289   4.815  0.9735  0.7815  0.0731
62377SOL     OW94180   4.301   2.649   2.331  0.2114 -0.2511  0.2434
62377SOL    HW194181   4.346   2.642   2.416 -1.7358  1.0789  1.4789
62377SOL    HW294182   4.301   2.560   2.297  0.0954 -1.0441  2.1799
62378SOL     OW94183  11.828   4.858   1.754  0.0004  0.3861 -0.3407
62378SOL    HW194184  11.803   4.780   1.705  2.9410 -0.1836 -1.1552
62378SOL    HW294185  11.745   4.901   1.776 -1.5611 -0.6838 -3.5759
62379SOL     OW94186   6.345   4.126   9.065  0.0803  0.3228 -0.0575
62379SOL    HW194187   6.321   4.037   9.091 -0.6517  0.1911 -1.1090
62379SOL    HW294188   6.313   4.181   9.136 -1.2647 -0.0796 -0.3228
62380SOL     OW94189   4.185   4.392  11.000  0.7313 -0.3340 -0.1227
62380SOL    HW194190   4.106   4.404  11.053  1.2536 -1.0584  0.8573
62380SOL    HW294191   4.257   4.405  11.062  1.3833  0.0645 -0.9473
62381SOL     OW94192   8.145   9.319   9.465  0.1097  0.1227 -0.1106
62381SOL    HW194193   8.207   9.246   9.477  0.1748  0.2993  0.6926
62381SOL    HW294194   8.062   9.285   9.496  0.2150  0.4955  0.6051
62382SOL     OW94195   8.718   0.334   0.918  0.0746 -0.1926  0.2321
62382SOL    HW194196   8.707   0.425   0.891 -1.6375  0.3191  2.3309
62382SOL    HW294197   8.735   0.340   1.012 -0.2710 -2.0431  0.4409
62383SOL     OW94198   4.191   9.749   1.293  0.0480 -0.1072 -0.2153
62383SOL    HW194199   4.176   9.655   1.281 -1.6498  0.4640 -3.5706
62383SOL    HW294200   4.126   9.776   1.358 -0.5055 -0.9645 -0.4011
62384SOL     OW94201  11.579   0.265   0.879  0.4471  0.4937 -0.4613
62384SOL    HW194202  11.557   0.339   0.936  0.4483  0.3240 -0.2427
62384SOL    HW294203  11.499   0.248   0.829  0.2028  0.1286  0.0540
62385SOL     OW94204  10.380  10.224   6.138  0.5872 -0.1968 -0.0251
62385SOL    HW194205  10.344  10.192   6.221 -0.7082  0.0578 -0.4672
62385SOL    HW294206  10.344  10.164   6.072  1.8354 -0.5726 -0.3930
62386SOL     OW94207   4.984  10.178   5.818 -0.3008  0.2372  0.5389
62386SOL    HW194208   5.045  10.118   5.776  0.7022  1.2303  0.5089
62386SOL    HW294209   4.935  10.124   5.880  1.8845 -0.3212  1.8992
62387SOL     OW94210   9.003   5.562  11.193 -0.7442  0.1627  0.0022
62387SOL    HW194211   9.052   5.575  11.274  1.7380  0.8730 -1.5128
62387SOL    HW294212   9.056   5.605  11.126 -1.5957 -2.1979 -2.3396
62388SOL     OW94213   0.788   8.757   4.922  0.0283 -0.5767  0.3036
62388SOL    HW194214   0.695   8.775   4.930  0.0353 -0.1341 -0.5077
62388SOL    HW294215   0.831   8.828   4.970 -0.0619 -1.5737  1.9429
62389SOL     OW94216   4.189  11.425  10.321 -0.3245 -0.2047 -0.3065
62389SOL    HW194217   4.144  11.507  10.302  2.1306  1.3788  0.2478
62389SOL    HW294218   4.250  11.447  10.392 -0.3609 -2.8039  0.6254
62390SOL     OW94219   2.550   2.087   3.750  0.2068  0.5014  0.1467
62390SOL    HW194220   2.478   2.136   3.790  2.1855  2.5173  1.4909
62390SOL    HW294221   2.626   2.144   3.760  2.2705 -2.0235 -0.0674
62391SOL     OW94222   6.341   3.131   8.743  0.9143 -0.1153 -0.5347
62391SOL    HW194223   6.247   3.113   8.734  0.7853 -0.4946  1.2528
62391SOL    HW294224   6.372   3.137   8.653 -0.2873 -2.8220 -1.2500
62392SOL     OW94225   1.681   0.890   4.024  0.3752 -0.0808  0.1173
62392SOL    HW194226   1.675   0.922   4.114 -0.2539  1.6943 -0.5126
62392SOL    HW294227   1.760   0.836   4.022  0.0020 -0.7446  1.8848
62393SOL     OW94228  10.207   4.595  10.682 -0.0601 -0.6400  0.1355
62393SOL    HW194229  10.196   4.690  10.685  0.4240 -0.5758 -0.0238
62393SOL    HW294230  10.184   4.565  10.770  2.6616 -0.0441  1.1676
62394SOL     OW94231  10.189   6.825   1.215  0.2545  0.1396  0.0955
62394SOL    HW194232  10.254   6.840   1.285 -1.1104  0.0520  1.4303
62394SOL    HW294233  10.149   6.911   1.201  0.5676  0.1705 -0.6528
62395SOL     OW94234  12.220   3.625  11.726 -0.6015  0.1133 -0.0414
62395SOL    HW194235  12.191   3.625  11.634  2.0463 -0.5590 -0.9958
62395SOL    HW294236  12.260   3.539  11.738 -0.2199  0.4773  1.5218
62396SOL     OW94237   0.268   1.896   7.446  0.6644 -0.3194 -0.3016
62396SOL    HW194238   0.353   1.866   7.412  0.1817 -0.8898 -1.0223
62396SOL    HW294239   0.278   1.991   7.453  0.8564 -0.1957 -1.8508
62397SOL     OW94240   2.877   4.423   1.734 -0.1891 -0.1912  0.0161
62397SOL    HW194241   2.807   4.413   1.798  0.0312 -0.6895  0.1847
62397SOL    HW294242   2.899   4.516   1.736 -1.5626  0.1929 -0.7956
62398SOL     OW94243   0.165  11.700   1.460 -0.0876 -0.1180 -0.1755
62398SOL    HW194244   0.254  11.688   1.493  0.5029  1.4769 -1.1171
62398SOL    HW294245   0.175  11.747   1.378 -1.7250 -1.3790 -1.1720
62399SOL     OW94246   6.103   0.581  10.331 -0.1795 -0.7035 -0.0826
62399SOL    HW194247   6.071   0.517  10.394 -0.5273  0.3138  0.8185
62399SOL    HW294248   6.088   0.666  10.373  0.9938 -0.0526 -0.8933
62400SOL     OW94249   3.239  10.725   5.787 -0.2767  0.1303  0.2713
62400SOL    HW194250   3.261  10.818   5.784 -0.0504  0.0455 -1.3804
62400SOL    HW294251   3.185  10.716   5.866 -1.1330  1.8514 -0.0680
62401SOL     OW94252   0.338   6.555   8.400  0.2920  0.2592  0.4012
62401SOL    HW194253   0.384   6.639   8.407 -0.6737  0.8877 -0.4468
62401SOL    HW294254   0.246   6.577   8.412 -0.0625 -0.5388 -0.6819
62402SOL     OW94255   6.363   5.580   2.332 -0.0018 -0.2832 -1.1154
62402SOL    HW194256   6.395   5.494   2.305 -2.9714 -1.3081 -1.8124
62402SOL    HW294257   6.305   5.607   2.261 -1.2388  1.0388  0.3201
62403SOL     OW94258   4.040   8.240   8.489 -0.0710  0.7094  0.5239
62403SOL    HW194259   4.122   8.285   8.470  0.0685  0.3941  0.3705
62403SOL    HW294260   3.978   8.310   8.509 -0.2671  1.0847 -1.2200
62404SOL     OW94261   3.911  10.440   5.895  0.1658  0.6553  0.4058
62404SOL    HW194262   3.824  10.467   5.865 -0.1368 -0.9035 -0.2025
62404SOL    HW294263   3.971  10.505   5.858 -0.3946 -0.0980 -2.0092
62405SOL     OW94264   4.920   3.761   1.140 -0.4455  0.0770 -0.0960
62405SOL    HW194265   4.931   3.761   1.235 -2.1628  0.5476  0.1414
62405SOL    HW294266   4.947   3.848   1.112 -2.7170  0.9973  0.3861
62406SOL     OW94267   6.022   9.247   3.342  0.9484 -0.2963  0.6484
62406SOL    HW194268   6.083   9.231   3.270  1.3828  1.1777  0.6540
62406SOL    HW294269   5.936   9.226   3.307  1.0016  1.5919 -0.7501
62407SOL     OW94270  11.012   4.823  11.394  0.0067 -0.1346  0.1650
62407SOL    HW194271  10.999   4.760  11.465 -0.1476 -0.3077 -0.0164
62407SOL    HW294272  10.974   4.905  11.426 -0.0293 -0.2026  0.2951
62408SOL     OW94273  11.399   3.237   1.117 -1.0919 -0.0224 -0.6311
62408SOL    HW194274  11.348   3.163   1.083 -0.6016 -0.1668 -1.0742
62408SOL    HW294275  11.421   3.213   1.206 -2.2592  0.2829 -0.2479
62409SOL     OW94276  12.352   0.859  11.075  0.0258 -0.1932  0.2318
62409SOL    HW194277  12.293   0.785  11.060  0.6118 -0.4034 -1.1970
62409SOL    HW294278  12.377   0.852  11.167 -0.8323 -1.0913  0.4074
62410SOL     OW94279   9.057   3.614   3.949  0.3506 -0.3185  0.0456
62410SOL    HW194280   9.088   3.587   3.862 -0.1964 -2.7166  0.5033
62410SOL    HW294281   8.963   3.627   3.938  0.0580 -1.8713  0.4969
62411SOL     OW94282   7.953   8.304  11.084 -0.0071  0.0963 -0.3204
62411SOL    HW194283   8.011   8.235  11.051 -1.3513 -0.5553 -1.4840
62411SOL    HW294284   8.010   8.364  11.132  1.5016 -0.8242 -0.9012
62412SOL     OW94285   3.262  11.104  11.789  0.0043 -0.7510 -0.2060
62412SOL    HW194286   3.208  11.166  11.739  2.0969 -0.0199 -1.6585
62412SOL    HW294287   3.237  11.018  11.754 -1.4333 -0.6040  0.3758
62413SOL     OW94288   2.003   9.793   4.042  0.1074  0.6692  0.0610
62413SOL    HW194289   1.966   9.760   3.960  0.1654  0.4483  0.1223
62413SOL    HW294290   2.027   9.714   4.091  1.2205  0.8103 -0.2341
62414SOL     OW94291   1.543   6.044   6.600 -0.7000  0.3770 -0.8585
62414SOL    HW194292   1.521   6.111   6.535 -2.3340  0.2428 -0.4940
62414SOL    HW294293   1.567   5.967   6.548 -0.3637  0.7672 -1.2864
62415SOL     OW94294   9.915   0.281   5.861  0.6013  0.2046 -0.3529
62415SOL    HW194295   9.900   0.375   5.873  0.9602  0.2414 -0.1677
62415SOL    HW294296   9.990   0.262   5.917  0.5890 -0.1746 -0.4659
62416SOL     OW94297   9.636   6.249   9.182  0.2245 -0.7533 -0.6540
62416SOL    HW194298   9.698   6.215   9.117  0.5870 -2.1800  0.3854
62416SOL    HW294299   9.577   6.176   9.200  0.3715 -0.5402  0.8779
62417SOL     OW94300   0.018   0.731  12.531  0.6826  0.3567  0.1608
62417SOL    HW194301  -0.008   0.805  12.477  0.0203 -0.6877 -0.9864
62417SOL    HW294302  -0.031   0.656  12.496  1.2736 -0.6208  1.3301
62418SOL     OW94303  11.919   4.028   3.379  0.2107 -0.1227  0.7841
62418SOL    HW194304  11.973   3.976   3.439 -1.8832 -1.8992  1.2273
62418SOL    HW294305  11.846   4.059   3.433 -1.1252 -0.8093 -0.5647
62419SOL     OW94306   7.816   9.078   5.315  0.7517 -0.2842 -0.4242
62419SOL    HW194307   7.811   9.036   5.229  1.0206  1.7094 -1.4950
62419SOL    HW294308   7.904   9.061   5.346  0.3474 -1.8409 -0.0604
62420SOL     OW94309  12.110  10.588   8.104  0.0609 -0.6870 -0.1027
62420SOL    HW194310  12.041  10.640   8.145 -0.9819  0.1807 -2.7049
62420SOL    HW294311  12.189  10.608   8.154 -1.2556 -0.5915  2.0716
62421SOL     OW94312   8.132   1.135   3.977 -0.4932  0.1018  0.1141
62421SOL    HW194313   8.226   1.120   3.967 -0.4604  0.5387 -0.2572
62421SOL    HW294314   8.107   1.188   3.901 -1.0055  0.1425  0.3016
62422SOL     OW94315   7.326   8.225   9.389  0.0135  0.0248 -0.3763
62422SOL    HW194316   7.333   8.134   9.358  0.7636  0.4293 -1.4545
62422SOL    HW294317   7.396   8.233   9.455  1.4361  0.4087 -1.8666
62423SOL     OW94318   0.357  10.939   7.469  0.4849 -0.0548  0.5439
62423SOL    HW194319   0.386  10.943   7.560  1.4960  1.4532  0.1840
62423SOL    HW294320   0.433  10.966   7.418 -0.1570 -0.5893 -0.7436
62424SOL     OW94321   4.027   3.896   4.178  0.5386  0.3647 -0.5804
62424SOL    HW194322   3.997   3.808   4.198 -0.9905  1.0761  0.4750
62424SOL    HW294323   4.053   3.933   4.262 -0.3435  1.4340 -0.7560
62425SOL     OW94324   9.561   7.427   9.392 -0.1194 -0.1393 -0.4286
62425SOL    HW194325   9.570   7.523   9.391 -2.9145  0.2158 -1.5416
62425SOL    HW294326   9.489   7.412   9.454  1.3959 -1.7160  1.0311
62426SOL     OW94327   5.211  10.145   7.299 -0.0923  0.5602  0.1648
62426SOL    HW194328   5.155  10.134   7.222 -2.6704 -0.7386  2.0593
62426SOL    HW294329   5.209  10.240   7.316 -1.3614  0.6010 -0.1039
62427SOL     OW94330   8.291  11.978   6.840  0.0967  0.4649 -0.1699
62427SOL    HW194331   8.337  12.006   6.919 -0.3140  0.4572  0.0739
62427SOL    HW294332   8.281  11.883   6.850 -0.3078  0.5199 -0.0428
62428SOL     OW94333   4.635   0.948   1.671  0.2189  0.3440 -0.1692
62428SOL    HW194334   4.684   1.029   1.652  0.2122 -0.0476 -2.0092
62428SOL    HW294335   4.551   0.960   1.627  0.7853 -1.2626 -1.8191
62429SOL     OW94336   6.203   2.593   4.142 -0.1478 -0.5695 -0.3562
62429SOL    HW194337   6.130   2.654   4.129  0.4383  0.1031 -0.5283
62429SOL    HW294338   6.177   2.541   4.218 -1.0152 -0.6528 -0.6988
62430SOL     OW94339   0.225   0.999  10.229 -0.4474 -0.0761 -0.2557
62430SOL    HW194340   0.252   0.983  10.320  1.8935 -0.7710 -0.9959
62430SOL    HW294341   0.230   1.094  10.220 -3.0280  0.2550  0.9391
62431SOL     OW94342  11.351   1.431   7.884  0.7013  0.6009 -0.0719
62431SOL    HW194343  11.304   1.509   7.855 -1.4503 -1.0094 -1.2207
62431SOL    HW294344  11.339   1.368   7.813 -0.1323 -1.7313  1.9961
62432SOL     OW94345  10.613   0.374   6.197  0.0542  0.2611  0.2333
62432SOL    HW194346  10.583   0.369   6.287 -1.9756  1.5192 -0.2958
62432SOL    HW294347  10.700   0.416   6.203  0.3104 -0.4094  1.6174
62433SOL     OW94348  10.926   5.494  11.743 -0.0123  0.0588  0.5590
62433SOL    HW194349  10.931   5.531  11.654 -0.7076  1.8622  1.2193
62433SOL    HW294350  11.013   5.507  11.779 -0.5078  2.1157  1.1368
62434SOL     OW94351  12.235  10.403   3.587 -0.1120  0.3197 -0.5110
62434SOL    HW194352  12.158  10.397   3.530  0.9893  1.4065 -2.2010
62434SOL    HW294353  12.207  10.363   3.669 -2.0487 -0.5343 -1.5190
62435SOL     OW94354  10.156   4.039   2.842 -0.1667  0.3696  0.0679
62435SOL    HW194355  10.080   4.096   2.849 -1.0213 -0.5308 -1.2606
62435SOL    HW294356  10.130   3.958   2.885  0.5474  0.5016  0.7727
62436SOL     OW94357   8.275   2.211   6.012  0.0287 -0.9483 -0.1048
62436SOL    HW194358   8.355   2.230   6.061  0.0487 -2.2604  0.4287
62436SOL    HW294359   8.256   2.291   5.964  0.8070 -0.0998  0.9557
62437SOL     OW94360   6.138   2.497   4.651  0.2654 -0.4198  0.0968
62437SOL    HW194361   6.180   2.557   4.590 -1.8344  1.2403  0.1549
62437SOL    HW294362   6.110   2.552   4.724 -1.0401 -1.5872  0.5312
62438SOL     OW94363   2.575   4.842   8.827 -0.2601  0.1102 -0.2346
62438SOL    HW194364   2.670   4.845   8.823 -0.2572 -0.4298 -0.7269
62438SOL    HW294365   2.546   4.898   8.755 -0.3154  0.1211 -0.2049
62439SOL     OW94366   0.259   7.367   8.901 -0.6213 -0.2766 -0.3133
62439SOL    HW194367   0.235   7.387   8.991  2.6357  1.7794  0.2789
62439SOL    HW294368   0.249   7.450   8.854  2.1863 -0.0073 -0.6196
62440SOL     OW94369  10.847   9.508  10.593 -0.0050 -0.7723 -0.0263
62440SOL    HW194370  10.804   9.486  10.510  0.4945 -1.1475 -0.1899
62440SOL    HW294371  10.940   9.495  10.575 -0.0023 -2.4474  1.0795
62441SOL     OW94372   9.792   5.437   6.723 -0.0557 -0.1945 -0.3076
62441SOL    HW194373   9.707   5.456   6.763  0.1014  0.8309 -0.4266
62441SOL    HW294374   9.802   5.504   6.655  0.4110 -0.9089 -0.9588
62442SOL     OW94375   5.604   9.116   1.617  0.0733  0.2471 -0.4729
62442SOL    HW194376   5.659   9.061   1.562 -1.2099 -0.8298 -0.7186
62442SOL    HW294377   5.660   9.191   1.639  0.9571  0.2226 -2.3930
62443SOL     OW94378   5.948   9.340  10.938 -0.1075  0.2503  0.0635
62443SOL    HW194379   5.996   9.414  10.973 -1.3155  2.2738 -2.2805
62443SOL    HW294380   5.857   9.369  10.936 -0.3451 -0.3819 -2.8982
62444SOL     OW94381  10.372   3.159   7.527  0.0871  0.0362  0.0264
62444SOL    HW194382  10.428   3.089   7.495 -1.0921 -0.7856 -0.3122
62444SOL    HW294383  10.394   3.165   7.620  0.5242 -0.4727 -0.0345
62445SOL     OW94384   8.052  12.409   2.960  0.2409  0.0151  0.1247
62445SOL    HW194385   8.113  12.379   3.027  0.3198  1.6678  0.8521
62445SOL    HW294386   7.969  12.367   2.981  0.9016 -1.6332 -0.4046
62446SOL     OW94387   2.808   7.500   3.290 -0.1189  0.1180  0.1999
62446SOL    HW194388   2.812   7.417   3.337  0.2623  0.1139  0.1664
62446SOL    HW294389   2.734   7.547   3.328 -0.7254 -0.4985 -0.2123
62447SOL     OW94390   4.207   6.567   1.137 -0.0658 -0.6903  0.0490
62447SOL    HW194391   4.149   6.491   1.142 -0.2970 -0.5282 -0.1687
62447SOL    HW294392   4.176   6.625   1.206  0.6170 -1.1350  0.7579
62448SOL     OW94393   4.897   4.808   3.916 -0.4986  0.5168 -0.0012
62448SOL    HW194394   4.834   4.737   3.926  0.8967 -1.0354 -1.4709
62448SOL    HW294395   4.963   4.773   3.856  2.5468  1.4880  2.4774
62449SOL     OW94396   2.697   1.594   1.399 -0.8677  0.2194 -0.1351
62449SOL    HW194397   2.678   1.501   1.388 -3.3284  0.7093 -0.8910
62449SOL    HW294398   2.618   1.629   1.442 -0.6636  2.1756 -1.2264
62450SOL     OW94399   5.070   4.038   3.247  0.3269  0.3150 -0.3479
62450SOL    HW194400   5.109   4.096   3.313 -1.2135 -0.1191  1.0214
62450SOL    HW294401   5.035   4.098   3.180  1.9063  0.7625 -0.8065
62451SOL     OW94402   7.887   0.356   6.130  0.6035  0.7122 -0.2105
62451SOL    HW194403   7.944   0.400   6.194  0.9776 -0.6598  0.4229
62451SOL    HW294404   7.811   0.327   6.181  0.4313  0.5002 -0.5878
62452SOL     OW94405  12.216   1.621   4.209  0.0500 -0.2606 -0.1931
62452SOL    HW194406  12.253   1.534   4.205 -1.1484 -0.7563 -1.1729
62452SOL    HW294407  12.171   1.632   4.125 -1.5289  0.4897  0.7013
62453SOL     OW94408  10.509   0.426   8.432 -0.2777  0.0581  0.8741
62453SOL    HW194409  10.463   0.509   8.443  0.8468  0.6885  0.9250
62453SOL    HW294410  10.549   0.432   8.346  0.3505 -0.1585  1.1468
62454SOL     OW94411   1.693  10.754  11.374  0.1656 -0.5946 -0.3382
62454SOL    HW194412   1.614  10.785  11.330  0.2949 -1.6869 -1.3980
62454SOL    HW294413   1.712  10.670  11.331  3.1526  0.6345 -1.6281
62455SOL     OW94414   6.809   9.906   1.840 -0.1440 -0.5416  0.8453
62455SOL    HW194415   6.727   9.918   1.887 -1.0197 -1.1371 -0.4923
62455SOL    HW294416   6.864   9.980   1.869 -2.1921  1.6294 -0.4327
62456SOL     OW94417   1.140   9.631   9.810 -0.3606 -0.1279 -0.0569
62456SOL    HW194418   1.178   9.686   9.741 -0.8422 -1.2324 -1.2501
62456SOL    HW294419   1.070   9.583   9.766 -2.0601  0.5964  1.6762
62457SOL     OW94420  11.895   7.826  12.547  0.3852 -0.5106  0.0135
62457SOL    HW194421  11.931   7.900  12.597  1.7499 -0.8959 -0.3453
62457SOL    HW294422  11.902   7.853  12.455  0.6224 -0.9637 -0.1051
62458SOL     OW94423   5.188   1.789   8.981 -0.4858 -0.1155 -0.7185
62458SOL    HW194424   5.114   1.846   8.959 -1.3433 -0.9446 -0.0921
62458SOL    HW294425   5.189   1.723   8.912 -2.0888 -1.7013  0.6718
62459SOL     OW94426   6.563   1.132   0.193  0.4838 -0.0501 -0.0619
62459SOL    HW194427   6.487   1.077   0.211 -0.6920  1.6621  0.4978
62459SOL    HW294428   6.634   1.090   0.241 -0.4778 -0.8109  0.7558
62460SOL     OW94429   2.487  12.400   6.590 -0.4976  0.5515  0.0608
62460SOL    HW194430   2.468  12.308   6.603 -0.9464  0.6320 -0.0261
62460SOL    HW294431   2.454  12.420   6.502  0.8734  0.4534 -0.5018
62461SOL     OW94432  10.711   5.811   1.560 -0.4129  0.1799  0.5913
62461SOL    HW194433  10.780   5.780   1.618 -1.5121  0.0316  1.8684
62461SOL    HW294434  10.694   5.901   1.589 -1.1400  0.0242  0.6614
62462SOL     OW94435   8.933   7.266   1.453 -0.1751 -0.0433 -0.1008
62462SOL    HW194436   8.974   7.335   1.505  1.0873  0.5453 -1.7870
62462SOL    HW294437   8.839   7.283   1.461  0.0659  1.1942  0.4065
62463SOL     OW94438   1.742   9.701   5.382  0.0009  0.2449  0.1849
62463SOL    HW194439   1.795   9.630   5.418  0.6000  0.5122 -0.1573
62463SOL    HW294440   1.659   9.659   5.357  1.5526 -1.1206 -3.2474
62464SOL     OW94441  10.597  10.042   1.205  0.0613  0.0853  0.2211
62464SOL    HW194442  10.546   9.987   1.145  0.2424 -0.0440  0.1857
62464SOL    HW294443  10.578  10.006   1.292 -0.3241  0.3693  0.2562
62465SOL     OW94444  11.065   5.033   9.378  0.1341 -0.2068  0.0900
62465SOL    HW194445  11.123   5.105   9.353 -2.1706  1.3825 -0.9988
62465SOL    HW294446  10.993   5.075   9.425 -0.4721 -2.0248  0.8831
62466SOL     OW94447   1.974   2.414  10.187  0.4967 -0.1953  0.0732
62466SOL    HW194448   2.056   2.365  10.196 -0.5020 -1.9402  0.2015
62466SOL    HW294449   1.939   2.388  10.102  0.3391  0.9741 -0.2345
62467SOL     OW94450   1.995   5.778   4.314 -0.1149 -0.2113  0.3734
62467SOL    HW194451   1.951   5.698   4.341  0.2124 -0.7956 -0.7774
62467SOL    HW294452   1.982   5.782   4.220 -0.7070  1.4593  0.4833
62468SOL     OW94453   2.380   0.907   0.900  0.0508  0.4775  0.0618
62468SOL    HW194454   2.411   0.819   0.879 -1.6945 -0.2692  0.4007
62468SOL    HW294455   2.339   0.938   0.819 -2.7500 -0.6344  0.9235
62469SOL     OW94456   0.014   1.918  12.236 -0.0408  0.2519  0.8814
62469SOL    HW194457   0.044   1.997  12.281  0.0958  0.5816  0.2159
62469SOL    HW294458  -0.027   1.866  12.305  0.8999  0.3768  1.5562
62470SOL     OW94459   3.601  12.502   3.585 -0.2451 -0.0832 -0.1401
62470SOL    HW194460   3.561  12.559   3.519 -0.3924 -0.2744 -0.2157
62470SOL    HW294461   3.680  12.469   3.542 -0.3766 -0.2615 -0.2469
62471SOL     OW94462   6.538   1.009   9.343  0.6213  0.4520 -0.1891
62471SOL    HW194463   6.529   1.042   9.254 -3.2368  1.7419  0.4776
62471SOL    HW294464   6.533   1.088   9.398  0.3358 -0.5234  1.2278
62472SOL     OW94465   2.374  12.290   4.297  0.4178  0.5418  0.2383
62472SOL    HW194466   2.387  12.332   4.213 -1.9424 -0.4658 -0.7457
62472SOL    HW294467   2.403  12.199   4.284  1.7532  0.8170  1.1075
62473SOL     OW94468   6.848  12.150   8.113 -0.0634  0.3076  0.0765
62473SOL    HW194469   6.758  12.133   8.084 -0.2672  1.9589 -0.3180
62473SOL    HW294470   6.880  12.219   8.055  0.9926  0.7056  1.0909
62474SOL     OW94471   6.349   1.906   1.558 -0.5382  0.0605 -0.0384
62474SOL    HW194472   6.304   1.933   1.478  0.6329 -0.3767 -0.8654
62474SOL    HW294473   6.406   1.979   1.580 -0.0920 -0.2381 -0.1927
62475SOL     OW94474   3.447   8.709   4.621  0.0944 -0.0446  0.4811
62475SOL    HW194475   3.477   8.619   4.615 -2.3500 -0.8068 -1.8809
62475SOL    HW294476   3.392   8.711   4.700 -0.7696 -0.9422 -0.0896
62476SOL     OW94477   8.533   5.857   9.693  0.7364 -0.4275 -0.2586
62476SOL    HW194478   8.623   5.874   9.721  1.0651  2.7683 -2.6907
62476SOL    HW294479   8.538   5.858   9.597 -1.9406  0.0587 -0.4496
62477SOL     OW94480   0.605   2.532   2.965  0.1450  0.3683  0.4146
62477SOL    HW194481   0.667   2.496   2.901  0.6817  0.1581  1.0337
62477SOL    HW294482   0.572   2.612   2.925  2.6948  1.8610  1.0558
62478SOL     OW94483   6.627   8.347   6.439  0.3094  0.5233  0.3373
62478SOL    HW194484   6.535   8.335   6.415 -0.2490  0.8184  2.1757
62478SOL    HW294485   6.635   8.305   6.525  2.0782 -0.1457 -0.1253
62479SOL     OW94486   7.840  10.137   9.746 -0.4411  0.0147  0.4605
62479SOL    HW194487   7.911  10.080   9.718 -0.4948 -0.2733  0.8866
62479SOL    HW294488   7.881  10.199   9.806 -0.6845 -0.6862  1.3825
62480SOL     OW94489   2.075   1.980   9.330  0.1316 -0.5724  0.2796
62480SOL    HW194490   2.067   1.897   9.284 -0.0025  0.0843 -0.9297
62480SOL    HW294491   2.044   2.045   9.267  0.8114  0.4618  0.9778
62481SOL     OW94492   7.262   6.866   5.758 -0.5039 -0.5785 -0.2467
62481SOL    HW194493   7.311   6.939   5.720 -1.7534  0.2635 -0.3273
62481SOL    HW294494   7.271   6.795   5.695  0.6541 -0.4642 -0.2162
62482SOL     OW94495   4.659   7.848  11.521 -0.0653 -0.0184  0.1640
62482SOL    HW194496   4.669   7.941  11.539 -1.3286  0.2305 -0.3507
62482SOL    HW294497   4.565   7.832  11.526 -0.0523 -0.8792 -1.5139
62483SOL     OW94498   4.082   7.841   6.286  0.9193 -0.8165  0.4130
62483SOL    HW194499   4.173   7.810   6.285  1.5787  0.9597 -0.6912
62483SOL    HW294500   4.037   7.786   6.222  1.5577 -0.8661 -0.0066
62484SOL     OW94501   4.534   9.904   1.842 -0.2155  0.1957  0.1606
62484SOL    HW194502   4.594   9.903   1.768  0.6892  0.0433  0.8785
62484SOL    HW294503   4.462   9.848   1.815  0.0907  0.1567 -0.6068
62485SOL     OW94504   2.858  10.719   9.050 -0.4469  0.2893 -0.3951
62485SOL    HW194505   2.771  10.706   9.088 -1.1295  2.1280 -1.1959
62485SOL    HW294506   2.844  10.706   8.956  0.3868 -0.4040 -0.4328
62486SOL     OW94507   5.778   0.808   3.253 -0.0680 -0.2083  0.3231
62486SOL    HW194508   5.843   0.876   3.270  0.4915 -1.2114  2.5444
62486SOL    HW294509   5.783   0.793   3.159  0.5537  2.0307 -0.0591
62487SOL     OW94510   8.531   0.056   7.663  0.4066  0.3377 -0.5700
62487SOL    HW194511   8.492   0.129   7.615 -1.0086  0.5836  0.8794
62487SOL    HW294512   8.463   0.028   7.724  0.4114 -3.0160 -1.8877
62488SOL     OW94513   9.130  10.510   3.164 -0.1266  0.3768  0.7373
62488SOL    HW194514   9.206  10.461   3.194  0.5276 -0.9480 -2.6137
62488SOL    HW294515   9.151  10.602   3.183  2.7477  0.1459 -0.7872
62489SOL     OW94516   7.013  10.033   6.595  0.1401 -0.3075  0.3486
62489SOL    HW194517   7.035  10.102   6.533  2.8514  1.1766  2.7530
62489SOL    HW294518   7.052   9.954   6.557  0.9964  0.3939 -0.2709
62490SOL     OW94519   2.314   0.734   3.507  0.5856 -0.3305  0.5617
62490SOL    HW194520   2.338   0.826   3.520 -1.6337  0.2541  0.9238
62490SOL    HW294521   2.350   0.689   3.583 -0.9156  0.8123  2.0425
62491SOL     OW94522   1.709  12.070   1.595  0.2462 -0.0681 -0.1594
62491SOL    HW194523   1.751  12.067   1.681  0.1552 -0.7821 -0.1371
62491SOL    HW294524   1.656  12.150   1.597 -0.4213 -0.5185  0.7645
62492SOL     OW94525   3.945   9.332   8.574  0.6583 -0.2293 -0.3365
62492SOL    HW194526   3.963   9.239   8.564  0.8634 -0.2754  0.4201
62492SOL    HW294527   3.850   9.337   8.587  0.4703 -0.2179 -1.5920
62493SOL     OW94528   6.039   7.079   4.372 -0.0605  0.6041  0.1718
62493SOL    HW194529   5.959   7.117   4.409 -1.0386 -1.2978  0.1087
62493SOL    HW294530   6.076   7.150   4.319 -1.9134  1.4107 -0.1298
62494SOL     OW94531   4.495   5.547   1.647  0.2876 -0.0871  0.4812
62494SOL    HW194532   4.461   5.483   1.710 -1.7404  0.3409 -0.0873
62494SOL    HW294533   4.505   5.627   1.697 -0.4610  0.0157  0.4858
62495SOL     OW94534   1.220   0.097   4.780  0.4658 -0.1737  0.2670
62495SOL    HW194535   1.137   0.144   4.774  1.1586  1.5459  2.5399
62495SOL    HW294536   1.285   0.158   4.745  1.2933  0.4206  2.6217
62496SOL     OW94537   3.945   9.508   1.705 -0.4183 -0.0027  0.5893
62496SOL    HW194538   3.925   9.564   1.780 -3.1812  1.0431 -0.8020
62496SOL    HW294539   3.873   9.446   1.701 -0.2211 -0.1608 -1.0583
62497SOL     OW94540  11.259   9.495   7.354  0.0671 -0.3887 -0.0410
62497SOL    HW194541  11.344   9.484   7.312 -0.2437  1.2129 -1.2008
62497SOL    HW294542  11.279   9.539   7.437  0.4737 -1.3218  0.3702
62498SOL     OW94543   4.916   8.882   9.382 -0.2229  0.1268  0.4031
62498SOL    HW194544   4.838   8.826   9.377 -1.1383  1.3643  0.4687
62498SOL    HW294545   4.887   8.966   9.346  1.7933 -0.1188 -2.0609
62499SOL     OW94546   7.414  11.794   5.880  0.0069 -0.0655 -0.2233
62499SOL    HW194547   7.364  11.738   5.820  0.3639  0.2168 -0.7958
62499SOL    HW294548   7.382  11.882   5.863 -0.1667 -0.0324  0.2839
62500SOL     OW94549  11.554   5.980   7.053 -0.2455  0.2043  0.1697
62500SOL    HW194550  11.461   5.978   7.077 -0.8232 -0.8753 -1.9863
62500SOL    HW294551  11.564   6.060   7.002  0.0212  0.2891  0.3482
62501SOL     OW94552   5.123   0.922   6.489 -0.0768  0.2169  0.1323
62501SOL    HW194553   5.028   0.923   6.500 -0.0649 -0.3280  0.3222
62501SOL    HW294554   5.144   1.009   6.454 -0.6168  0.4183  0.2949
62502SOL     OW94555   6.721   5.278  10.922 -0.7683  0.1300  0.3033
62502SOL    HW194556   6.653   5.275  10.854 -0.7328 -0.0963  0.2783
62502SOL    HW294557   6.695   5.210  10.984 -0.2341 -0.3701 -0.0129
62503SOL     OW94558   4.754   9.754   7.374  0.0187  0.1667  0.2609
62503SOL    HW194559   4.730   9.826   7.432  0.5376 -0.5638  1.4194
62503SOL    HW294560   4.760   9.794   7.287  1.0318  1.6699  0.9831
62504SOL     OW94561   6.073   4.428  10.664 -0.0037 -0.0114  0.5556
62504SOL    HW194562   6.123   4.388  10.735 -1.0611 -1.3585  0.5838
62504SOL    HW294563   6.100   4.380  10.586 -1.5508 -1.0885  0.6420
62505SOL     OW94564   2.455   0.645   8.289 -0.4283  0.0739  0.2047
62505SOL    HW194565   2.373   0.685   8.319 -1.4871 -1.5580 -0.3675
62505SOL    HW294566   2.469   0.571   8.348  1.1995  0.8714  0.8995
62506SOL     OW94567   2.867   6.167   0.608  0.4269 -0.1205  0.1775
62506SOL    HW194568   2.801   6.160   0.540 -0.0028 -0.3076  0.6080
62506SOL    HW294569   2.930   6.099   0.587  0.8095  0.4512 -0.5769
62507SOL     OW94570   2.239   6.684   2.916 -0.1018 -0.1039 -0.2228
62507SOL    HW194571   2.186   6.607   2.896  2.0316 -1.4296 -0.9773
62507SOL    HW294572   2.236   6.691   3.011  1.0196 -2.1492  0.0059
62508SOL     OW94573   7.362   5.997  10.573 -0.0183  0.3805  0.3556
62508SOL    HW194574   7.304   5.984  10.498  0.0937  0.1893  0.3015
62508SOL    HW294575   7.305   6.029  10.643 -0.6348 -2.0532  1.0371
62509SOL     OW94576  12.542   7.620  10.953  0.0776  0.0754  0.3530
62509SOL    HW194577  12.446   7.613  10.959 -0.2473  2.3770 -1.0363
62509SOL    HW294578  12.571   7.531  10.931 -1.8960 -0.3485 -0.7551
62510SOL     OW94579   1.283   7.103   7.713  0.8689 -0.2145  0.3331
62510SOL    HW194580   1.223   7.029   7.720  1.7556 -0.8852  1.1976
62510SOL    HW294581   1.366   7.070   7.748  1.2363  1.2311  0.9009
62511SOL     OW94582  11.638   4.983   0.725 -0.0777 -0.3242 -0.2535
62511SOL    HW194583  11.635   5.024   0.811 -0.6492  0.1249 -0.4797
62511SOL    HW294584  11.565   5.022   0.677 -0.2497 -1.1461 -0.6835
62512SOL     OW94585  11.802   2.403   4.855 -0.1171 -0.5260 -0.1849
62512SOL    HW194586  11.802   2.418   4.950 -0.7052 -2.0124  0.0823
62512SOL    HW294587  11.893   2.388   4.833 -0.2619 -3.8937  0.8726
62513SOL     OW94588   8.863   7.759   3.594  0.5289  0.3995  0.4897
62513SOL    HW194589   8.809   7.714   3.658 -1.7521  1.3425 -0.6329
62513SOL    HW294590   8.837   7.722   3.510  2.2738  0.3153 -0.0548
62514SOL     OW94591   9.434   1.724   5.134  0.4191  0.1249  0.5224
62514SOL    HW194592   9.429   1.707   5.040 -0.0889 -1.8605  0.8793
62514SOL    HW294593   9.512   1.679   5.163 -0.1921 -0.4640  1.2849
62515SOL     OW94594  12.033   2.661   4.135  0.6075  0.1484  0.2636
62515SOL    HW194595  12.103   2.721   4.158  1.7587 -1.6518  1.7486
62515SOL    HW294596  11.954   2.715   4.131  1.8131  1.9545  0.0774
62516SOL     OW94597   2.239   1.960   8.866 -0.2749  0.4992  0.3928
62516SOL    HW194598   2.304   2.007   8.918  0.9456 -2.1845  1.4804
62516SOL    HW294599   2.158   1.969   8.916 -0.2694  1.9962  0.1810
62517SOL     OW94600  10.250   2.464   7.422  0.0759  0.3994 -0.3309
62517SOL    HW194601  10.159   2.434   7.430  0.7873 -1.5364  0.8951
62517SOL    HW294602  10.296   2.392   7.379  1.3061  0.8282  0.2252
62518SOL     OW94603   7.875   7.065   6.367 -0.2618 -0.2346 -0.0527
62518SOL    HW194604   7.941   7.115   6.415 -0.5615  0.2227 -0.1185
62518SOL    HW294605   7.892   7.086   6.275 -1.8742  1.6397  0.0094
62519SOL     OW94606   3.341   7.264  10.896  0.2746 -0.0348 -0.3013
62519SOL    HW194607   3.393   7.250  10.817  2.9299 -0.2519  1.3628
62519SOL    HW294608   3.338   7.179  10.939  1.6735  0.6904  1.3758
62520SOL     OW94609   3.851   9.123  11.619  0.4273  0.2305 -0.0964
62520SOL    HW194610   3.904   9.203  11.617 -0.3077  1.0233  3.8001
62520SOL    HW294611   3.891   9.066  11.553  2.8593  2.6716 -0.9346
62521SOL     OW94612   1.036   3.100   2.486  0.2580 -0.5362 -0.1134
62521SOL    HW194613   1.089   3.177   2.509  0.6670 -0.5486 -0.9717
62521SOL    HW294614   1.014   3.060   2.570  2.0622 -0.8155  0.2783
62522SOL     OW94615   9.586   8.432   7.635  0.4459 -0.4377 -0.0619
62522SOL    HW194616   9.625   8.379   7.704  0.1779 -3.3481 -1.9541
62522SOL    HW294617   9.552   8.368   7.572 -0.2218  2.0213 -2.3923
62523SOL     OW94618   7.513   4.466   1.680 -0.8678 -0.4428  0.0888
62523SOL    HW194619   7.572   4.497   1.749 -1.0954  0.2065  0.0051
62523SOL    HW294620   7.542   4.377   1.661  1.1567  0.3914 -1.0790
62524SOL     OW94621   4.660   8.015   0.655 -0.4681  0.1071 -0.8687
62524SOL    HW194622   4.655   7.921   0.637 -1.0979  0.0406 -0.3655
62524SOL    HW294623   4.636   8.023   0.747 -0.5902  0.7802 -0.9579
62525SOL     OW94624   7.877   3.645   3.502  0.8378 -0.6259 -0.3894
62525SOL    HW194625   7.808   3.701   3.469  1.0953  0.6858  1.1866
62525SOL    HW294626   7.832   3.565   3.531  0.0593 -0.0386  0.0491
62526SOL     OW94627   5.847   6.323   0.470 -0.3339  0.1689  0.3467
62526SOL    HW194628   5.942   6.313   0.480 -0.3634 -1.4753 -0.7758
62526SOL    HW294629   5.810   6.282   0.548 -0.1741 -1.1048 -0.2350
62527SOL     OW94630   7.480   9.268   5.623 -0.6524  0.0261  0.3102
62527SOL    HW194631   7.497   9.278   5.716  0.9309 -1.8178  0.2862
62527SOL    HW294632   7.564   9.242   5.586 -1.3094  0.4532 -1.6044
62528SOL     OW94633   9.166   3.333  10.340 -0.3951 -0.3707 -0.2096
62528SOL    HW194634   9.246   3.351  10.290 -1.8607  0.7452 -2.2388
62528SOL    HW294635   9.135   3.249  10.306 -0.6206 -0.3261 -0.1123
62529SOL     OW94636   1.053   1.262   4.971  0.4340  0.2509  0.8185
62529SOL    HW194637   1.088   1.324   5.035  0.6628 -0.5506  1.4918
62529SOL    HW294638   1.129   1.209   4.945  0.1431 -0.0884  0.6555
62530SOL     OW94639  10.812  11.124   8.854 -0.2258 -0.2609 -0.0914
62530SOL    HW194640  10.815  11.141   8.948 -1.1999 -0.0724 -0.0876
62530SOL    HW294641  10.875  11.186   8.817 -0.8257  0.6158  0.3191
62531SOL     OW94642   5.686   5.326   7.868 -0.3114  0.3045  0.1365
62531SOL    HW194643   5.627   5.277   7.925 -0.5307 -2.0857 -1.9969
62531SOL    HW294644   5.628   5.386   7.820 -1.0251 -1.6478 -1.5568
62532SOL     OW94645  10.900   6.803   8.888 -0.4004  0.1062 -0.5331
62532SOL    HW194646  10.825   6.832   8.835 -0.6106 -0.4689 -0.5542
62532SOL    HW294647  10.950   6.747   8.829 -0.4072 -0.1919 -0.2545
62533SOL     OW94648   6.587   3.667   2.834 -0.1688  0.1363 -0.2857
62533SOL    HW194649   6.519   3.630   2.777 -0.3049 -1.6041  0.9270
62533SOL    HW294650   6.571   3.627   2.919  1.1037  1.3285  0.5552
62534SOL     OW94651  10.121   8.482   4.789  0.1954  0.1190 -0.0808
62534SOL    HW194652  10.174   8.481   4.869  1.7806 -0.7977 -1.0987
62534SOL    HW294653  10.181   8.457   4.719 -0.8827  1.9253 -1.7714
62535SOL     OW94654   9.994  12.429   7.636 -0.2681  0.4135  0.1124
62535SOL    HW194655  10.043  12.444   7.556 -0.3219  0.4813  0.0918
62535SOL    HW294656   9.953  12.343   7.623 -1.8358  1.2396 -0.7491
62536SOL     OW94657   0.935   1.503  11.762 -0.3631  0.3414  0.5561
62536SOL    HW194658   0.927   1.539  11.850 -1.2323 -1.7482  1.3969
62536SOL    HW294659   0.883   1.561  11.707  0.0619  1.5835  1.4141
62537SOL     OW94660   5.196   8.273   2.716  0.8313  0.1224 -0.5183
62537SOL    HW194661   5.117   8.276   2.770  0.2915 -2.0358 -1.0992
62537SOL    HW294662   5.258   8.220   2.767  0.8484 -0.6550 -1.3337
62538SOL     OW94663   0.412   5.010   1.516  0.0904 -0.1899 -0.0665
62538SOL    HW194664   0.427   4.918   1.535 -0.4185 -0.4888 -1.0418
62538SOL    HW294665   0.448   5.056   1.592  0.7698 -1.1559  0.2278
62539SOL     OW94666  12.369   3.900  11.595 -0.0025 -0.7239  0.0068
62539SOL    HW194667  12.391   3.928  11.506 -0.3558 -1.2357 -0.2428
62539SOL    HW294668  12.286   3.853  11.586 -0.2709 -0.3945  0.6739
62540SOL     OW94669   3.560   2.789   8.534 -0.1861  0.3369  0.3406
62540SOL    HW194670   3.478   2.741   8.548  0.5581 -0.8516  0.8321
62540SOL    HW294671   3.565   2.800   8.439 -2.6405  3.6600  0.4097
62541SOL     OW94672   1.275   9.319  10.393 -0.2173 -0.0365 -0.0937
62541SOL    HW194673   1.232   9.297  10.476  0.3163  0.6483  0.3731
62541SOL    HW294674   1.220   9.388  10.355  1.5815  2.4832  1.5751
62542SOL     OW94675   5.151   9.825   9.137  0.2302 -0.0170  0.3150
62542SOL    HW194676   5.236   9.823   9.091  0.0559 -0.9006  0.0263
62542SOL    HW294677   5.167   9.780   9.219 -0.0900 -0.6559  0.0310
62543SOL     OW94678   4.622   5.718   3.954  0.2108  0.4693 -0.2150
62543SOL    HW194679   4.576   5.723   4.038 -0.8695 -0.9029 -0.6864
62543SOL    HW294680   4.696   5.660   3.971  0.6667  1.1127  0.0533
62544SOL     OW94681   6.355   9.184   6.764 -1.0179  0.9585  0.0266
62544SOL    HW194682   6.270   9.226   6.778 -0.5916  3.3355 -3.1779
62544SOL    HW294683   6.351   9.150   6.675  0.7067 -0.7842  0.5443
62545SOL     OW94684  12.135   5.916  10.706 -0.3627  0.6019 -0.3426
62545SOL    HW194685  12.070   5.847  10.717  1.1344 -0.6310  1.3661
62545SOL    HW294686  12.200   5.879  10.646  1.5325 -0.4434  2.1773
62546SOL     OW94687   4.313   8.960   4.333  0.7842  0.1176 -0.1233
62546SOL    HW194688   4.253   8.918   4.273  0.3938 -0.5004  0.6825
62546SOL    HW294689   4.392   8.977   4.281  0.5002 -0.5156 -0.7684
62547SOL     OW94690   8.010  11.965   9.137 -0.1806  0.0724  0.0128
62547SOL    HW194691   8.059  11.988   9.216 -1.1980  1.3522  0.3077
62547SOL    HW294692   8.032  11.873   9.121  1.3274  0.2594  0.8259
62548SOL     OW94693   0.110   2.308   1.997  0.0221  0.7810  0.3699
62548SOL    HW194694   0.064   2.249   2.056  0.3882 -0.9247 -0.9640
62548SOL    HW294695   0.148   2.375   2.054  0.5794 -0.9206  2.0950
62549SOL     OW94696  10.399   4.986   8.529  0.2019  0.2515 -0.2594
62549SOL    HW194697  10.383   4.892   8.528  0.3705  0.2213 -0.1817
62549SOL    HW294698  10.381   5.012   8.619  0.5633  0.2212 -0.1765
62550SOL     OW94699  11.185   5.826   4.831  0.3728 -0.3007 -0.2217
62550SOL    HW194700  11.150   5.756   4.886 -0.9695 -1.2421 -2.1505
62550SOL    HW294701  11.108   5.862   4.786  1.1821  1.6488 -0.1555
62551SOL     OW94702   0.142   2.382   4.187  0.1003 -0.0615 -0.2091
62551SOL    HW194703   0.137   2.436   4.267  1.1790  0.4398 -0.4563
62551SOL    HW294704   0.067   2.324   4.192  0.2657 -0.1866  1.2928
62552SOL     OW94705   3.146   3.216   8.446 -0.3646 -0.1828 -0.6215
62552SOL    HW194706   3.199   3.271   8.388 -0.4155  0.0512 -0.4434
62552SOL    HW294707   3.121   3.273   8.519 -0.3763 -0.4541 -0.4119
62553SOL     OW94708  10.000   7.230   9.787  0.3529  0.4094 -0.6669
62553SOL    HW194709  10.056   7.223   9.710  0.8339  0.4572 -0.3266
62553SOL    HW294710  10.025   7.313   9.827 -0.9945  1.1463 -1.3111
62554SOL     OW94711   0.535  11.559   1.264 -0.6458 -0.5836 -0.2890
62554SOL    HW194712   0.476  11.627   1.235 -1.2200 -1.0271 -0.1722
62554SOL    HW294713   0.606  11.605   1.308  0.1739  0.1125 -2.1987
62555SOL     OW94714  10.796   3.698   3.986 -0.4214  0.3955  0.2814
62555SOL    HW194715  10.715   3.701   4.037  0.0499 -1.1401  1.1875
62555SOL    HW294716  10.861   3.740   4.042 -0.3915  0.8013 -0.0556
62556SOL     OW94717   8.141   4.023   5.119 -0.1946 -0.5759 -0.3113
62556SOL    HW194718   8.170   3.932   5.113  1.8121 -0.0437  0.5413
62556SOL    HW294719   8.192   4.060   5.191 -2.2708  0.7824  0.5873
62557SOL     OW94720   7.495   8.775  11.067 -0.0176 -0.3388  0.4767
62557SOL    HW194721   7.569   8.794  11.009  1.0237 -1.9331  1.2015
62557SOL    HW294722   7.419   8.771  11.010  0.8458 -1.0295 -0.6669
62558SOL     OW94723  12.383   7.720   4.009  0.4729  0.0603 -0.3302
62558SOL    HW194724  12.423   7.652   4.062  0.2497  1.2817  1.4892
62558SOL    HW294725  12.289   7.713   4.028  0.5567  1.6353  0.9019
62559SOL     OW94726  12.019  11.816   6.045  0.2415 -0.0285 -0.0968
62559SOL    HW194727  11.937  11.863   6.061  0.0166 -0.5194  0.2326
62559SOL    HW294728  12.087  11.878   6.071 -0.0362  0.2816 -0.0999
62560SOL     OW94729   7.500   4.833   2.323  0.1210  0.1936 -0.6745
62560SOL    HW194730   7.513   4.746   2.285  1.3572 -0.0435  0.2404
62560SOL    HW294731   7.581   4.850   2.371  0.5040  2.4697 -1.9962
62561SOL     OW94732   1.240   7.727   4.835 -0.3325  0.6345  0.0229
62561SOL    HW194733   1.228   7.707   4.928  1.5254 -2.2732 -0.2524
62561SOL    HW294734   1.169   7.680   4.792  0.8059 -0.9509 -0.2136
62562SOL     OW94735   9.191   2.435   4.313  0.2882 -0.0666  0.1272
62562SOL    HW194736   9.200   2.485   4.232  1.3091 -0.9615 -0.3434
62562SOL    HW294737   9.192   2.501   4.382 -2.4585  0.8958 -0.6062
62563SOL     OW94738   8.154  11.234   4.179  0.1634 -0.4309  0.0054
62563SOL    HW194739   8.118  11.277   4.256  0.1947  0.1365 -0.2928
62563SOL    HW294740   8.247  11.224   4.198 -0.0609 -1.5404  0.6103
62564SOL     OW94741  11.393   3.198   9.217 -0.3484 -0.1165 -0.8883
62564SOL    HW194742  11.385   3.105   9.197 -0.6227 -0.1926 -0.4326
62564SOL    HW294743  11.343   3.210   9.297  2.3706 -0.2369  0.9600
62565SOL     OW94744   9.144   2.923  11.861 -0.0268  0.3001  1.2571
62565SOL    HW194745   9.146   2.828  11.873  1.2780  0.2492  0.8279
62565SOL    HW294746   9.233   2.952  11.884 -0.5109  1.4633  1.7433
62566SOL     OW94747   6.787   7.833   4.152  0.5432 -0.1307 -0.5025
62566SOL    HW194748   6.747   7.795   4.231 -0.1620 -0.2716 -0.9153
62566SOL    HW294749   6.879   7.809   4.158  0.3883 -0.6437 -0.0122
62567SOL     OW94750   3.553  11.987   5.679  0.0241 -0.2124  0.0733
62567SOL    HW194751   3.485  11.920   5.673 -0.2718  0.0816  0.1242
62567SOL    HW294752   3.630  11.947   5.637 -0.4133 -0.2432 -0.7119
62568SOL     OW94753  10.110   3.476  10.977 -0.2345 -0.1931 -0.2239
62568SOL    HW194754  10.135   3.514  10.892  1.4223  0.2997  0.4412
62568SOL    HW294755  10.134   3.383  10.970  0.1434 -0.0968 -0.2037
62569SOL     OW94756   1.143   7.322  12.434 -0.0656  0.4643 -0.0158
62569SOL    HW194757   1.214   7.274  12.392 -0.8760 -0.8539  0.0465
62569SOL    HW294758   1.169   7.329  12.526  0.0807  0.1695 -0.0349
62570SOL     OW94759   9.857  12.002  11.090 -0.2945  0.0531 -0.4022
62570SOL    HW194760   9.924  11.993  11.158 -0.8521 -3.9807 -0.1800
62570SOL    HW294761   9.809  12.081  11.115  1.5027  0.5065  2.0265
62571SOL     OW94762  10.917  12.378   8.594 -0.2381 -0.0354 -0.2926
62571SOL    HW194763  10.826  12.381   8.624 -0.1521 -1.0365  0.1131
62571SOL    HW294764  10.966  12.346   8.669  0.0639 -2.0417 -1.2705
62572SOL     OW94765   4.826  10.528   5.419 -0.2502 -0.1720 -0.0991
62572SOL    HW194766   4.789  10.511   5.333 -0.8661  1.1375 -0.1199
62572SOL    HW294767   4.773  10.476   5.479 -0.3315 -0.4653 -0.4243
62573SOL     OW94768   6.620   1.052  10.242 -0.4367  0.4044 -0.1049
62573SOL    HW194769   6.679   0.989  10.285 -0.7142 -1.3659 -2.1332
62573SOL    HW294770   6.640   1.043  10.149  0.0920  4.0286 -0.4682
62574SOL     OW94771  10.784  11.270  11.987  0.0994  0.5305  0.3637
62574SOL    HW194772  10.743  11.239  12.068  3.2145  0.8704  2.2066
62574SOL    HW294773  10.762  11.364  11.984 -0.2201  0.4693  0.6714
62575SOL     OW94774   6.686   9.237   8.704 -0.0921 -0.1413 -0.2532
62575SOL    HW194775   6.745   9.311   8.715 -0.6799  0.1102  1.4403
62575SOL    HW294776   6.737   9.161   8.732 -0.6518  0.1327  1.6609
62576SOL     OW94777  10.477   7.075   7.839  0.4092 -0.1202  0.0744
62576SOL    HW194778  10.477   6.981   7.820 -1.7229  0.0258 -1.0386
62576SOL    HW294779  10.384   7.096   7.852  0.4642  2.2979 -2.4786
62577SOL     OW94780  11.712   7.003   4.492  0.0712 -0.5914 -0.2331
62577SOL    HW194781  11.632   6.966   4.456 -2.0986  1.2175  2.3236
62577SOL    HW294782  11.716   7.091   4.457 -0.7871  0.3615  1.8703
62578SOL     OW94783   9.874  10.610  12.473 -0.0795  0.6916  0.1349
62578SOL    HW194784   9.857  10.517  12.464  0.1775  0.7865 -1.8132
62578SOL    HW294785   9.825  10.637  12.550  0.7969 -1.2644  1.4548
62579SOL     OW94786   9.896   6.973   3.983 -0.2448  0.8190  0.0008
62579SOL    HW194787   9.808   6.979   4.020 -0.5010 -0.7085 -0.2792
62579SOL    HW294788   9.897   6.888   3.937  1.0477  1.2582 -0.8522
62580SOL     OW94789   1.699   7.486  10.368 -0.0415 -0.3661  0.1138
62580SOL    HW194790   1.659   7.566  10.403  1.5833  0.3392  0.4726
62580SOL    HW294791   1.634   7.452  10.306 -1.6779  0.0319  1.5428
62581SOL     OW94792   1.930  11.468  10.000 -0.4925 -0.3897  0.0984
62581SOL    HW194793   1.992  11.512   9.941  2.3597 -0.8143  2.5078
62581SOL    HW294794   1.869  11.423   9.941 -0.7345  2.8580 -2.4522
62582SOL     OW94795  12.320   9.826   0.504  0.1435  0.2826 -0.2141
62582SOL    HW194796  12.358   9.858   0.422  2.2010  0.5605  0.7802
62582SOL    HW294797  12.233   9.794   0.479 -0.0352  2.0539 -2.1502
62583SOL     OW94798   3.053   2.353   3.399 -0.1531  0.3873  0.3577
62583SOL    HW194799   3.013   2.268   3.417 -0.1206  0.3853  0.4221
62583SOL    HW294800   3.135   2.352   3.448 -0.0977  0.4108  0.2661
62584SOL     OW94801   3.791  11.884   5.578  0.2514  0.4839 -0.4704
62584SOL    HW194802   3.882  11.866   5.601  0.6417  1.4034 -1.2218
62584SOL    HW294803   3.787  11.868   5.484 -0.2576  0.8770 -0.5188
62585SOL     OW94804   6.425   9.832   2.761  0.3496  0.4019  0.1196
62585SOL    HW194805   6.383   9.788   2.687 -0.8029 -0.5989  1.3200
62585SOL    HW294806   6.502   9.875   2.723 -1.2384  1.5546 -2.0086
62586SOL     OW94807   0.595   3.515   5.220  0.1722  0.0875 -0.0616
62586SOL    HW194808   0.575   3.602   5.255 -0.5317  1.0310 -2.6167
62586SOL    HW294809   0.691   3.514   5.211  0.2492  0.2894  0.6509
62587SOL     OW94810   6.370   7.495   9.687  0.0299  0.4925 -0.5072
62587SOL    HW194811   6.447   7.506   9.631  1.2239  0.4176  1.0316
62587SOL    HW294812   6.321   7.576   9.676  1.6516  1.6529  0.3382
62588SOL     OW94813   3.299   5.112   0.501 -0.1964  0.2899  0.2863
62588SOL    HW194814   3.392   5.090   0.503 -0.3884 -0.5690  0.2421
62588SOL    HW294815   3.255   5.031   0.528 -0.9009  0.8703  0.9338
62589SOL     OW94816   7.014  10.327  10.356 -0.5613 -0.3678 -0.0455
62589SOL    HW194817   6.987  10.346  10.446 -0.0904 -1.4716  0.3521
62589SOL    HW294818   7.109  10.324  10.359 -0.5708 -1.9119 -0.2247
62590SOL     OW94819   4.985   0.221  10.932  0.1939  0.1633 -0.4619
62590SOL    HW194820   5.011   0.266  11.012 -0.6427 -0.0080 -0.0881
62590SOL    HW294821   5.036   0.140  10.932  0.1234  0.1164 -0.0481
62591SOL     OW94822   4.910   9.211   3.838 -0.1035  0.1927 -0.0544
62591SOL    HW194823   4.999   9.177   3.826 -0.5732 -0.6519 -1.3947
62591SOL    HW294824   4.919   9.306   3.828  1.0569  0.4808  2.6251
62592SOL     OW94825   8.934   4.996   8.597 -0.5726 -0.9226 -0.4671
62592SOL    HW194826   8.914   4.988   8.504 -0.6881 -0.9080 -0.4439
62592SOL    HW294827   8.885   4.925   8.639  2.9320 -3.9024 -0.8949
62593SOL     OW94828   4.768  10.707   1.626 -0.2484  0.6707  0.1970
62593SOL    HW194829   4.801  10.727   1.714  1.0826 -0.3173 -0.0443
62593SOL    HW294830   4.781  10.789   1.577  1.1975  0.5443  0.3195
62594SOL     OW94831   3.443   9.166   6.916 -0.2154  0.0195 -0.5803
62594SOL    HW194832   3.420   9.145   6.826  0.5744  0.4815 -0.8976
62594SOL    HW294833   3.431   9.261   6.923  2.3064  0.4354 -1.0097
62595SOL     OW94834   0.495  10.106   0.944 -0.3607  0.5481  0.2512
62595SOL    HW194835   0.517  10.096   1.036 -2.8168  0.9423  0.9497
62595SOL    HW294836   0.488  10.201   0.931  1.0121  0.5532 -0.6477
62596SOL     OW94837   1.379   4.880   0.888  0.0375 -0.3117 -0.2901
62596SOL    HW194838   1.471   4.856   0.905 -0.8830 -2.8525  1.8339
62596SOL    HW294839   1.354   4.933   0.964 -0.3777 -0.0124 -0.6356
62597SOL     OW94840   9.002   8.616   3.020 -0.3458 -0.2686  0.0843
62597SOL    HW194841   9.086   8.573   3.036 -0.7069 -0.9163  0.2962
62597SOL    HW294842   8.959   8.561   2.955 -0.6925 -0.0606  0.1341
62598SOL     OW94843  10.202  12.239   4.617  0.3418 -0.2239  0.8217
62598SOL    HW194844  10.176  12.314   4.671  1.2649  2.1836 -1.8001
62598SOL    HW294845  10.292  12.259   4.591 -0.1847 -1.0247 -1.8633
62599SOL     OW94846  10.499   1.539   0.869 -0.2364  0.1571  0.0069
62599SOL    HW194847  10.420   1.491   0.892 -0.6928  1.1671  0.6222
62599SOL    HW294848  10.512   1.600   0.941  0.6692  0.5360 -0.4570
62600SOL     OW94849  11.871  10.073   7.900  0.0294 -0.4444 -0.2972
62600SOL    HW194850  11.823   9.990   7.906  0.0756 -0.5073 -0.7431
62600SOL    HW294851  11.809  10.139   7.930 -0.9726 -0.2960 -2.5020
62601SOL     OW94852   2.483   6.861  12.235 -0.1858  0.0606 -0.6756
62601SOL    HW194853   2.544   6.934  12.241 -0.8571  0.5443  0.5615
62601SOL    HW294854   2.436   6.862  12.318 -0.8543 -1.2105 -1.0156
62602SOL     OW94855   5.302   1.808   3.031 -0.2096 -0.3699  0.1946
62602SOL    HW194856   5.386   1.808   2.985 -0.7557 -2.3362 -0.9175
62602SOL    HW294857   5.237   1.809   2.961 -1.0784 -1.5951  0.9559
62603SOL     OW94858   1.428   7.746   2.573 -0.2347  0.1022  0.8803
62603SOL    HW194859   1.462   7.750   2.484  0.1923 -0.7267  0.9987
62603SOL    HW294860   1.351   7.804   2.572  0.6556  1.3184  0.3969
62604SOL     OW94861  11.975   1.875   2.157  0.1325 -0.0722 -0.2694
62604SOL    HW194862  11.941   1.861   2.069  2.5999  0.9170 -1.4926
62604SOL    HW294863  11.940   1.960   2.183 -0.3151 -0.2051 -0.4332
62605SOL     OW94864   9.477   5.581  10.490 -0.4430 -0.1179  0.6661
62605SOL    HW194865   9.557   5.629  10.467 -1.4270  1.2761  0.0072
62605SOL    HW294866   9.487   5.496  10.447  1.0366 -0.2911  1.2858
62606SOL     OW94867   1.318  12.092   4.724  0.6588  0.1528 -0.2721
62606SOL    HW194868   1.260  12.111   4.650  1.4534  0.9777 -0.7152
62606SOL    HW294869   1.293  12.156   4.791  0.7826  0.2517 -0.3181
62607SOL     OW94870  11.382   6.945   4.997 -0.6953  0.1027  0.4007
62607SOL    HW194871  11.374   6.855   5.028 -0.7606 -1.0713 -2.7336
62607SOL    HW294872  11.440   6.987   5.060 -1.4209 -1.8219  2.4650
62608SOL     OW94873   6.323   5.833  10.917  0.5019 -0.0806 -0.6234
62608SOL    HW194874   6.300   5.744  10.944  1.1007 -0.0516 -0.0061
62608SOL    HW294875   6.415   5.843  10.942  0.4319  0.7248 -0.6634
62609SOL     OW94876  12.578  12.533  12.013 -0.4081 -0.1497 -0.0407
62609SOL    HW194877  12.557  12.619  11.977 -1.7232 -0.2688  0.3850
62609SOL    HW294878  12.616  12.485  11.940 -1.1837  0.2630 -0.7244
62610SOL     OW94879  12.179   3.486  11.382  0.2059 -0.1350  0.0220
62610SOL    HW194880  12.143   3.572  11.402  0.4186 -0.5815  2.7616
62610SOL    HW294881  12.107   3.440  11.338 -1.4502  0.1561  2.2280
62611SOL     OW94882   7.529   9.579  11.337 -0.3265 -0.1431 -0.1639
62611SOL    HW194883   7.598   9.544  11.280  1.6334  1.2343  1.2055
62611SOL    HW294884   7.513   9.511  11.401 -0.4223 -0.5749 -0.6427
62612SOL     OW94885   2.825   9.177   6.867  0.3510  1.0683  0.2585
62612SOL    HW194886   2.882   9.128   6.927  0.7898  1.2377 -0.0100
62612SOL    HW294887   2.737   9.160   6.898  0.5905  1.3829  1.1206
62613SOL     OW94888  11.737  10.054   6.935  0.0581  0.1007  0.1831
62613SOL    HW194889  11.672  10.025   6.872 -0.3658  0.5705  0.3984
62613SOL    HW294890  11.756  10.145   6.911  1.1775 -0.2445 -0.3218
62614SOL     OW94891   5.756   9.335   9.180  0.3465 -0.5379  0.1259
62614SOL    HW194892   5.739   9.375   9.265 -0.1288 -0.0094 -0.2144
62614SOL    HW294893   5.772   9.408   9.121 -1.3826 -0.7827 -0.6958
62615SOL     OW94894   2.545   1.399   9.859 -0.1659 -0.1898  0.1943
62615SOL    HW194895   2.452   1.410   9.836 -0.1081  1.2373  0.6011
62615SOL    HW294896   2.585   1.365   9.779 -1.1615 -1.6159  0.2443
62616SOL     OW94897  11.977   4.629  11.916 -0.5642 -1.5200 -0.3039
62616SOL    HW194898  12.034   4.555  11.939  0.4315 -0.8003 -0.3760
62616SOL    HW294899  11.982   4.687  11.991 -0.1384 -0.8267 -0.8582
62617SOL     OW94900   7.990   0.921   4.407  0.6412  0.1559 -0.4549
62617SOL    HW194901   7.989   0.952   4.498  1.3241 -1.5354  0.1654
62617SOL    HW294902   8.030   0.993   4.358 -1.1556  1.7515  0.2806
62618SOL     OW94903   5.846   3.031   3.755 -0.0977 -0.1722 -0.5365
62618SOL    HW194904   5.851   3.020   3.660 -0.3986  1.0353 -0.7150
62618SOL    HW294905   5.752   3.044   3.772  0.1461  1.5579 -0.3463
62619SOL     OW94906   5.868   3.669  11.809  0.0314 -0.1671  0.4780
62619SOL    HW194907   5.815   3.686  11.732 -0.7364 -0.3507  0.9533
62619SOL    HW294908   5.812   3.692  11.883 -0.1352 -2.2887  1.0656
62620SOL     OW94909   6.939   0.030   9.133 -0.1373 -0.1323  0.0264
62620SOL    HW194910   7.030   0.001   9.141 -0.0115  0.5400  1.3390
62620SOL    HW294911   6.944   0.123   9.114 -0.4702  0.6539  3.1947
62621SOL     OW94912   5.025   4.308   3.758 -0.4190  0.1766 -0.2497
62621SOL    HW194913   5.059   4.276   3.674  0.1348  0.2912 -0.0711
62621SOL    HW294914   5.033   4.234   3.817  1.5111  0.7940  0.3502
62622SOL     OW94915   0.947   7.374   1.015  0.2981  0.4644  0.6942
62622SOL    HW194916   0.999   7.398   1.092 -0.5243  0.6197  1.2151
62622SOL    HW294917   0.865   7.340   1.051 -0.6559  1.8131 -0.1059
62623SOL     OW94918  10.797   1.292   6.848 -0.0911  0.1658 -0.4107
62623SOL    HW194919  10.720   1.241   6.872  0.8054 -1.2646 -0.4657
62623SOL    HW294920  10.823   1.336   6.929  1.0142 -2.0712  0.5339
62624SOL     OW94921   2.394  11.390   5.541 -0.7258 -0.4781  0.3624
62624SOL    HW194922   2.416  11.317   5.483  0.9307 -0.6308  1.1137
62624SOL    HW294923   2.479  11.429   5.563 -1.5303  1.2357  0.5518
62625SOL     OW94924   4.227   5.274  12.352  0.9530 -0.0988  0.0612
62625SOL    HW194925   4.196   5.192  12.312  1.7758 -1.0797  1.3484
62625SOL    HW294926   4.309   5.250  12.394 -0.3296  0.5808  3.2125
62626SOL     OW94927   2.347   5.535   7.547  0.0093 -0.0335  0.1814
62626SOL    HW194928   2.296   5.525   7.627 -1.6484  0.9367 -0.7054
62626SOL    HW294929   2.435   5.504   7.571 -1.4368 -4.0784  1.1296
62627SOL     OW94930   0.583   8.266   2.522 -0.5965 -0.2150 -0.0522
62627SOL    HW194931   0.613   8.298   2.607  0.7843 -3.1408  0.7208
62627SOL    HW294932   0.555   8.176   2.539 -0.4458 -0.8394 -2.6463
62628SOL     OW94933   3.406   7.646   2.142 -0.3055  0.4830  0.4098
62628SOL    HW194934   3.447   7.709   2.084  0.6335 -0.4523  0.0193
62628SOL    HW294935   3.388   7.695   2.223 -1.5113  1.7635 -0.5910
62629SOL     OW94936   6.166  11.227   7.542  0.1518 -0.5414  0.2866
62629SOL    HW194937   6.101  11.205   7.608 -1.1225  1.4887 -0.2051
62629SOL    HW294938   6.250  11.222   7.589 -0.4550 -1.7712  1.3056
62630SOL     OW94939   1.316  11.540   3.183  0.2367  0.1458 -0.2507
62630SOL    HW194940   1.315  11.489   3.102 -0.1797  2.7669 -2.0166
62630SOL    HW294941   1.226  11.569   3.194  0.2448 -0.3205  1.3253
62631SOL     OW94942   1.188   0.437   6.626 -0.0233  0.0946 -0.0986
62631SOL    HW194943   1.172   0.530   6.644 -0.8635 -0.4845  2.6052
62631SOL    HW294944   1.175   0.428   6.531 -4.0073  2.0126  0.0811
62632SOL     OW94945   5.336   3.673   5.411  0.8192 -0.2149 -0.2657
62632SOL    HW194946   5.411   3.705   5.360  0.4370 -0.9172 -1.3238
62632SOL    HW294947   5.264   3.673   5.348 -0.0769  0.4474  0.7423
62633SOL     OW94948  10.548   4.073   6.397  0.0804 -0.1754  0.9799
62633SOL    HW194949  10.618   4.008   6.406  0.0653 -0.2537  0.5446
62633SOL    HW294950  10.594   4.155   6.382  0.0811 -0.5695 -1.6129
62634SOL     OW94951   7.104   0.847   1.380 -1.0210 -0.5381 -0.4248
62634SOL    HW194952   7.118   0.787   1.454  0.3558 -0.0932 -0.3031
62634SOL    HW294953   7.072   0.928   1.421 -1.8067 -0.8039 -0.4876
62635SOL     OW94954   5.526   5.077   1.677 -0.1210  0.1736 -0.8222
62635SOL    HW194955   5.525   4.985   1.706  1.4152  0.3705 -0.0086
62635SOL    HW294956   5.470   5.123   1.740  1.6495  0.2746  0.7844
62636SOL     OW94957   9.462   0.068  10.348 -0.4311  0.1082  0.3353
62636SOL    HW194958   9.374   0.043  10.377 -0.9498 -0.3210 -1.4853
62636SOL    HW294959   9.448   0.106  10.261  1.0993  0.8605  0.3920
62637SOL     OW94960  11.705   3.763   2.339 -0.1238 -0.5876  0.8197
62637SOL    HW194961  11.633   3.793   2.395 -2.2041 -1.2032 -1.3427
62637SOL    HW294962  11.686   3.670   2.323  0.9322 -0.6708 -0.1181
62638SOL     OW94963   2.672   4.667   0.574 -0.1585  0.0969  0.2562
62638SOL    HW194964   2.586   4.706   0.587  0.7015  2.3397 -0.2691
62638SOL    HW294965   2.718   4.680   0.657  0.2675  0.5681 -0.0472
62639SOL     OW94966   3.295  10.097  11.041 -0.0218 -0.2966  0.1116
62639SOL    HW194967   3.350  10.175  11.041  1.2847 -1.1747  0.4237
62639SOL    HW294968   3.342  10.034  10.987 -1.8389 -0.3846 -1.4685
62640SOL     OW94969   4.488   0.699   2.929  0.1130 -0.1179 -0.3142
62640SOL    HW194970   4.579   0.674   2.945  0.7037  2.1611  0.2512
62640SOL    HW294971   4.483   0.714   2.835 -0.1533 -1.8309 -0.6033
62641SOL     OW94972   9.164   8.818   2.731  0.1905  0.8382 -0.4458
62641SOL    HW194973   9.167   8.877   2.656 -1.6153  0.0403 -1.2099
62641SOL    HW294974   9.213   8.741   2.703  1.7653  1.5626  0.2129
62642SOL     OW94975   4.506   6.558   4.519 -0.1900 -0.2689  0.1918
62642SOL    HW194976   4.561   6.606   4.457 -0.1369 -2.0835 -1.2432
62642SOL    HW294977   4.545   6.576   4.604  0.4555  1.3256 -0.3950
62643SOL     OW94978   3.518  11.946   7.171 -0.2368 -0.1581 -0.0769
62643SOL    HW194979   3.497  12.036   7.145  3.0401  0.4814 -1.0356
62643SOL    HW294980   3.464  11.930   7.249  0.8306  3.6373  1.6855
62644SOL     OW94981  10.678   7.164   6.509 -0.1016  0.3276 -0.2549
62644SOL    HW194982  10.665   7.074   6.539 -0.6873  0.0080 -1.3883
62644SOL    HW294983  10.604   7.180   6.451  0.8163  1.0105 -1.2674
62645SOL     OW94984   0.412   3.024   5.830 -0.0201  0.0844 -0.7212
62645SOL    HW194985   0.317   3.027   5.833 -0.0432 -0.0669 -1.1904
62645SOL    HW294986   0.432   2.988   5.744  0.4615  0.1078 -0.6224
62646SOL     OW94987  11.242   7.123   0.126 -0.2091 -0.4060 -0.1672
62646SOL    HW194988  11.333   7.097   0.110  0.6381  2.2842 -0.3311
62646SOL    HW294989  11.218   7.078   0.207  1.1681 -1.4093 -0.2866
62647SOL     OW94990   2.186   8.933   0.444  0.2962  0.1643 -0.0080
62647SOL    HW194991   2.267   8.899   0.483 -0.3486 -1.8692 -0.3036
62647SOL    HW294992   2.205   8.939   0.351 -0.3823 -2.1350 -0.3689
62648SOL     OW94993   7.724   5.713   5.642 -0.0603  0.4462 -0.1311
62648SOL    HW194994   7.756   5.637   5.691 -1.9352 -0.1950  0.1772
62648SOL    HW294995   7.634   5.725   5.672 -0.1121  2.2443 -0.8551
62649SOL     OW94996   7.928  10.910  11.279 -0.1616 -0.2714 -0.1921
62649SOL    HW194997   7.902  10.879  11.193  1.6369 -1.0700 -0.4801
62649SOL    HW294998   7.948  11.003  11.266 -3.2627  0.5695  0.1772
62650SOL     OW94999   6.450   8.624   5.088  0.1194  0.0454 -0.5540
62650SOL    HW195000   6.410   8.710   5.080  0.0937  0.0883  0.0390
62650SOL    HW295001   6.518   8.634   5.154  0.2761 -0.3309 -0.6547
62651SOL     OW95002  12.145  10.012   0.790 -0.4927  0.2427 -0.5952
62651SOL    HW195003  12.150  10.041   0.881  0.8665  2.0365 -1.1788
62651SOL    HW295004  12.190   9.928   0.789  0.0981  0.5349  0.2856
62652SOL     OW95005   0.317   4.747   9.468  0.1941 -0.3066  0.2711
62652SOL    HW195006   0.354   4.834   9.488 -0.1489 -0.3854  1.3421
62652SOL    HW295007   0.367   4.687   9.523 -1.2278 -0.4615  1.4499
62653SOL     OW95008  10.755   3.566  10.098  0.2529  0.2479  0.0314
62653SOL    HW195009  10.790   3.545  10.012  0.0009 -0.3766  0.0769
62653SOL    HW295010  10.694   3.638  10.082  1.9868  1.7957  0.0439
62654SOL     OW95011   0.366   7.780  12.332  0.2554 -0.3465  0.1780
62654SOL    HW195012   0.283   7.785  12.286 -1.4462  0.4347  3.0776
62654SOL    HW295013   0.353   7.714  12.400  1.9506 -0.0964  0.8075
62655SOL     OW95014   4.569   5.638  11.860  0.0792 -0.0148  0.3214
62655SOL    HW195015   4.581   5.721  11.905 -0.8981  0.5222 -0.3606
62655SOL    HW295016   4.478   5.614  11.878  0.1293 -0.5555 -0.1128
62656SOL     OW95017   7.341  12.319  10.231  0.6424  0.2169  0.4396
62656SOL    HW195018   7.322  12.225  10.229 -0.4028  0.4026  0.8181
62656SOL    HW295019   7.348  12.339  10.324 -1.1599  0.8683  0.4722
62657SOL     OW95020   5.593   6.183   1.077 -0.0948  0.1228  0.0395
62657SOL    HW195021   5.563   6.270   1.104  1.1728  0.6461 -0.1851
62657SOL    HW295022   5.688   6.189   1.078  0.0187 -0.6451 -1.8966
62658SOL     OW95023   2.735   6.171   9.783  0.5497  0.1801  0.7988
62658SOL    HW195024   2.726   6.076   9.774 -1.1593  0.4640 -1.4723
62658SOL    HW295025   2.785   6.198   9.706  0.0942  1.2159  0.8466
62659SOL     OW95026   6.638  11.533  10.842 -0.6571  0.3147  0.5861
62659SOL    HW195027   6.553  11.544  10.886 -0.9016 -1.2596  0.5415
62659SOL    HW295028   6.654  11.439  10.842  1.5651  0.6366  1.4279
62660SOL     OW95029   1.669   5.032   4.085 -0.2546 -0.2162  0.0190
62660SOL    HW195030   1.618   4.966   4.132 -0.0651 -0.1633  0.3062
62660SOL    HW295031   1.639   5.026   3.994 -1.6456  0.6516  0.3980
62661SOL     OW95032   7.044   9.170  11.882  0.3417 -0.0734 -0.2521
62661SOL    HW195033   6.968   9.120  11.852 -0.1353 -0.9576  2.2303
62661SOL    HW295034   7.020   9.201  11.969  1.8368  1.9057 -0.4760
62662SOL     OW95035  10.494   2.448   0.046 -0.7991 -0.1841 -0.1795
62662SOL    HW195036  10.511   2.439   0.139 -1.5220 -0.0019 -0.0171
62662SOL    HW295037  10.409   2.493   0.042  0.1285  1.5797 -0.9218
62663SOL     OW95038   0.593   4.987   9.783  0.4626 -0.5519  0.3280
62663SOL    HW195039   0.673   5.012   9.830 -0.1601  0.1693  1.0436
62663SOL    HW295040   0.525   5.042   9.822 -0.3010 -0.8340 -0.5880
62664SOL     OW95041   1.473   9.942   8.990 -0.7935  1.2452  0.1823
62664SOL    HW195042   1.558   9.941   9.034 -0.7979  2.0603  0.2284
62664SOL    HW295043   1.471   9.861   8.939 -0.9622  0.0646  1.9875
62665SOL     OW95044   1.432   1.050   1.104 -0.1824  0.0391 -0.1701
62665SOL    HW195045   1.503   1.110   1.085  0.7855 -0.8811  0.3962
62665SOL    HW295046   1.454   0.970   1.056 -1.6311  0.2283 -1.2115
62666SOL     OW95047   0.327  10.740  11.243  0.1199 -0.2151  0.3754
62666SOL    HW195048   0.338  10.697  11.328  2.5088  0.6338  0.5741
62666SOL    HW295049   0.323  10.833  11.264 -0.7323 -0.0700 -0.3710
62667SOL     OW95050   4.510   6.319   0.446 -0.8348 -0.4123 -0.0011
62667SOL    HW195051   4.492   6.364   0.528 -2.7438  0.0726 -0.6367
62667SOL    HW295052   4.583   6.260   0.466  0.8120  1.8939  1.2170
62668SOL     OW95053   4.810  12.457  10.199  0.1961  0.4543 -0.1159
62668SOL    HW195054   4.860  12.534  10.226  0.7127  0.0489  0.0902
62668SOL    HW295055   4.848  12.384  10.248 -0.5806  0.1318  0.0263
62669SOL     OW95056   2.480   8.745   3.867 -0.1390 -0.0818  0.0511
62669SOL    HW195057   2.479   8.837   3.841  0.4944 -0.0622  0.0951
62669SOL    HW295058   2.526   8.744   3.950  0.7470 -0.5662 -0.4336
62670SOL     OW95059   8.325   1.414   7.096 -0.5873  0.1289 -0.0462
62670SOL    HW195060   8.338   1.413   7.191 -0.8523 -2.0691  0.0124
62670SOL    HW295061   8.237   1.379   7.083 -0.6348  0.5910 -1.0968
62671SOL     OW95062  11.542   9.701   9.335 -0.1063 -0.0878 -0.2948
62671SOL    HW195063  11.563   9.787   9.373 -0.8167 -0.3630  0.7509
62671SOL    HW295064  11.582   9.638   9.394 -0.8691 -0.5124 -0.2135
62672SOL     OW95065   2.113   9.734   0.074 -0.3214 -0.0443 -0.2599
62672SOL    HW195066   2.164   9.655   0.057 -1.9836 -1.0623 -0.7955
62672SOL    HW295067   2.113   9.781  -0.010 -0.7631 -0.3620 -0.4429
62673SOL     OW95068   0.079   8.510  10.390 -0.1150 -0.4732 -0.0363
62673SOL    HW195069   0.154   8.527  10.447 -1.1703  1.3309  0.9358
62673SOL    HW295070   0.040   8.430  10.425 -0.2371  0.1247  1.2605
62674SOL     OW95071   1.653   0.363   2.351 -0.8063 -0.1912 -0.5966
62674SOL    HW195072   1.691   0.276   2.337  0.5544  0.4689 -1.2187
62674SOL    HW295073   1.707   0.403   2.419 -2.0842 -0.1962  0.4647
62675SOL     OW95074   6.992   7.223  10.314  0.5853  0.1455  0.1758
62675SOL    HW195075   7.014   7.177  10.395 -1.0333 -0.6442  0.2059
62675SOL    HW295076   6.900   7.201  10.298  0.6831  0.8158 -1.5309
62676SOL     OW95077   6.179   4.894  10.699 -0.4094 -0.1759  0.1100
62676SOL    HW195078   6.132   4.971  10.667 -0.1751  0.7545  1.8199
62676SOL    HW295079   6.130   4.819  10.666 -1.9815  0.7479  0.2501
62677SOL     OW95080   3.116   8.323   1.978  0.0144 -0.1853 -0.5806
62677SOL    HW195081   3.119   8.227   1.976  0.2855 -0.2116  0.5554
62677SOL    HW295082   3.205   8.350   1.997 -0.2356  0.2513  0.0193
62678SOL     OW95083   2.904   2.696   5.916  0.0203  0.0954  0.5491
62678SOL    HW195084   2.994   2.685   5.947 -0.0862  0.0379  0.8424
62678SOL    HW295085   2.906   2.777   5.864  0.5601 -0.6588 -0.6548
62679SOL     OW95086   8.877   3.235   0.638  0.1620 -0.3319 -0.3084
62679SOL    HW195087   8.936   3.199   0.704 -0.1546 -0.4886 -0.1100
62679SOL    HW295088   8.852   3.159   0.584 -1.3177 -0.6309  0.7282
62680SOL     OW95089  12.215   6.449   1.271  0.7097  0.2738 -0.3150
62680SOL    HW195090  12.191   6.528   1.222 -0.9311  1.1079  1.6359
62680SOL    HW295091  12.141   6.390   1.258  0.5279  0.2807  0.6182
62681SOL     OW95092   6.538   3.538   4.841 -0.3386  0.1707  0.0147
62681SOL    HW195093   6.478   3.587   4.786 -0.8280 -0.6558 -0.2133
62681SOL    HW295094   6.527   3.447   4.813  0.3880 -0.0967  0.5606
62682SOL     OW95095   8.367   2.724   9.066 -0.2752 -0.3909 -0.1333
62682SOL    HW195096   8.308   2.758   8.999  1.5352  1.0020 -1.0997
62682SOL    HW295097   8.452   2.717   9.022  0.6287 -0.9127  1.5988
62683SOL     OW95098   0.507   9.129  11.397 -0.2129 -0.1853 -0.4406
62683SOL    HW195099   0.513   9.173  11.482  0.0114 -0.6884 -0.1888
62683SOL    HW295100   0.524   9.197  11.332 -1.6075  0.4829 -0.1402
62684SOL     OW95101   8.882   6.273   5.758 -0.1121 -0.1297 -0.3617
62684SOL    HW195102   8.956   6.276   5.820  1.0462 -1.2956 -1.6367
62684SOL    HW295103   8.827   6.202   5.790  0.5556 -0.8222 -0.7183
62685SOL     OW95104   4.969   8.235   2.858 -0.3877  0.1501  0.1146
62685SOL    HW195105   4.942   8.143   2.853 -1.1182  0.4308 -1.9438
62685SOL    HW295106   4.940   8.263   2.945 -1.6838 -1.1158  0.1439
62686SOL     OW95107   7.864   0.845  11.613  0.3847 -0.2506  0.3157
62686SOL    HW195108   7.900   0.922  11.656  1.8740 -1.0259  0.5265
62686SOL    HW295109   7.791   0.878  11.560  0.9007  1.2578  0.5150
62687SOL     OW95110  12.194   5.671   2.352  0.3649  0.0473 -0.3303
62687SOL    HW195111  12.278   5.653   2.393  0.1389  1.2040  0.7106
62687SOL    HW295112  12.139   5.703   2.423 -1.1626 -1.2648 -0.8679
62688SOL     OW95113   6.055   1.354   4.512  0.3933  0.1894 -0.0117
62688SOL    HW195114   6.012   1.439   4.511 -0.8013 -0.3905 -0.0214
62688SOL    HW295115   6.033   1.317   4.598  2.9885  0.8880  1.0274
62689SOL     OW95116  12.539   7.735   2.195 -0.0813 -0.0205  0.5215
62689SOL    HW195117  12.617   7.780   2.226 -0.5447  0.1763  1.4279
62689SOL    HW295118  12.466   7.789   2.224 -0.5865 -0.5698  0.3072
62690SOL     OW95119   4.662  10.856   1.302  0.0610 -0.6488  0.7615
62690SOL    HW195120   4.698  10.921   1.362 -1.6081 -0.4092  1.5709
62690SOL    HW295121   4.739  10.816   1.261  1.1862  2.5435 -0.5929
62691SOL     OW95122   1.924   6.426  11.825 -0.0033  0.3060  0.7305
62691SOL    HW195123   1.836   6.414  11.790  0.5003  0.0818 -0.4960
62691SOL    HW295124   1.982   6.396  11.755  1.0328 -3.0754  2.8251
62692SOL     OW95125   0.794   1.309   3.377 -0.7033  0.1751  0.5759
62692SOL    HW195126   0.736   1.350   3.440  0.9167  2.5425  0.6669
62692SOL    HW295127   0.840   1.382   3.335  2.3790 -1.5102  0.6942
62693SOL     OW95128   0.136   8.222  12.427 -0.0475  0.2562 -0.7635
62693SOL    HW195129   0.139   8.313  12.454  1.0356  0.5117 -1.6952
62693SOL    HW295130   0.218   8.185  12.458 -0.1370 -0.2137 -1.0804
62694SOL     OW95131   8.130   5.621   7.237 -0.1297 -0.1151 -0.1208
62694SOL    HW195132   8.184   5.696   7.262  0.0566 -0.1259 -0.4843
62694SOL    HW295133   8.153   5.604   7.146 -1.5518  0.5650 -0.6335
62695SOL     OW95134  11.349  11.410   5.241  0.3159  0.2387 -0.6266
62695SOL    HW195135  11.286  11.473   5.275 -1.5421 -2.1332  0.5945
62695SOL    HW295136  11.384  11.366   5.318  2.8700  0.8399 -1.3407
62696SOL     OW95137  12.477  10.431   3.489  0.6777  0.4569 -0.2291
62696SOL    HW195138  12.497  10.520   3.460  1.4897 -0.2203 -1.8652
62696SOL    HW295139  12.388  10.437   3.524 -0.0838  1.5188 -2.1854
62697SOL     OW95140   1.691   6.467   7.287 -0.2421  0.3730 -0.4324
62697SOL    HW195141   1.758   6.534   7.274  1.0249 -1.0600 -1.7735
62697SOL    HW295142   1.677   6.430   7.199 -1.8725 -0.2157  0.0425
62698SOL     OW95143   9.337  11.075  11.697  0.4304  0.4183  0.5397
62698SOL    HW195144   9.414  11.076  11.640  0.3740  0.1823  0.4561
62698SOL    HW295145   9.271  11.124  11.650 -0.9043 -2.9359 -1.4619
62699SOL     OW95146  10.557   0.898   6.705 -0.3929 -0.3492 -0.0607
62699SOL    HW195147  10.520   0.941   6.628 -0.1092  1.6566  0.8665
62699SOL    HW295148  10.651   0.898   6.689 -0.2663  0.7799  0.6003
62700SOL     OW95149   1.099   5.862  10.072 -0.1521 -0.1031  0.6721
62700SOL    HW195150   1.053   5.863   9.987  1.9599  0.8212 -0.5320
62700SOL    HW295151   1.111   5.955  10.093 -1.1062 -0.3132  2.2975
62701SOL     OW95152   4.293   0.160   2.784 -0.7482  0.2601 -0.7013
62701SOL    HW195153   4.345   0.080   2.780  1.0434  1.1788  1.7353
62701SOL    HW295154   4.302   0.199   2.698 -0.8274 -1.6287 -1.6127
62702SOL     OW95155   6.499   5.733  12.446  0.6611 -0.2797 -0.1656
62702SOL    HW195156   6.409   5.761  12.464  0.3388 -1.5248  0.2396
62702SOL    HW295157   6.553   5.787  12.503  0.2733  1.2193 -1.1662
62703SOL     OW95158   5.186  11.710   3.074 -0.6005  0.0034  0.1933
62703SOL    HW195159   5.232  11.714   2.990 -3.2124 -0.8898 -1.3991
62703SOL    HW295160   5.166  11.617   3.086  2.3847 -0.4145  3.4911
62704SOL     OW95161   7.615  10.300  10.438  0.5302 -0.6449  0.3006
62704SOL    HW195162   7.535  10.249  10.424 -1.2109  2.2348 -1.6390
62704SOL    HW295163   7.651  10.312  10.350  1.5418  0.3536  0.8265
62705SOL     OW95164   4.290   7.304   2.770 -0.2431 -0.4737 -0.0127
62705SOL    HW195165   4.357   7.313   2.703 -0.9409 -0.0506 -0.6691
62705SOL    HW295166   4.335   7.322   2.852  0.0897  1.5516 -0.5958
62706SOL     OW95167   5.492  11.077   3.007  0.0837  0.2414  0.0729
62706SOL    HW195168   5.520  10.989   2.984 -1.3040 -0.1040 -0.4293
62706SOL    HW295169   5.526  11.091   3.095 -0.2097 -1.0436  0.4087
62707SOL     OW95170   7.889   2.520   8.386 -0.0546 -0.4578  0.1425
62707SOL    HW195171   7.804   2.476   8.393  0.3293 -1.0898  0.9551
62707SOL    HW295172   7.926   2.488   8.304 -0.6329 -0.1157 -0.2591
62708SOL     OW95173   7.348   5.739  11.964  0.3305 -0.7108  0.2252
62708SOL    HW195174   7.405   5.769  12.034  0.5323  0.8590 -0.5671
62708SOL    HW295175   7.260   5.744  12.000  0.3372  1.1116  0.0664
62709SOL     OW95176   8.328   0.608  10.894  0.3090 -0.1204 -0.5781
62709SOL    HW195177   8.245   0.637  10.858  0.5370  1.2418 -0.0922
62709SOL    HW295178   8.354   0.533  10.841 -0.6009  0.2414 -1.5516
62710SOL     OW95179   3.414  12.464   9.116  0.2293  0.1497  0.0927
62710SOL    HW195180   3.369  12.438   9.197 -2.3699  0.3168 -1.1850
62710SOL    HW295181   3.456  12.385   9.085 -1.8269 -0.9065 -0.2017
62711SOL     OW95182   1.601   5.556   4.165  0.5149  0.3949  0.4907
62711SOL    HW195183   1.625   5.609   4.089  0.1107 -0.3567 -0.1671
62711SOL    HW295184   1.608   5.617   4.239  2.1212  0.8122  0.0316
62712SOL     OW95185   2.314   4.061  11.319  0.2419  0.5244 -0.3649
62712SOL    HW195186   2.404   4.063  11.287  0.3075  0.0280 -0.2328
62712SOL    HW295187   2.262   4.040  11.242  0.4512 -1.1934 -0.1001
62713SOL     OW95188   0.513  10.453   5.149 -0.1183 -0.0053 -0.0392
62713SOL    HW195189   0.499  10.366   5.186 -0.4404 -0.3565 -0.9611
62713SOL    HW295190   0.447  10.461   5.080 -0.2114  1.0422  0.1570
62714SOL     OW95191  10.014   2.314  11.394 -0.2133 -0.4691 -0.1310
62714SOL    HW195192  10.105   2.310  11.362  0.5491 -0.3513  1.9123
62714SOL    HW295193   9.988   2.222  11.401  0.5123 -0.5975  1.2459
62715SOL     OW95194   8.708   2.996   7.794  0.4161  0.1452  0.5912
62715SOL    HW195195   8.640   2.959   7.738  0.0817  0.0314  1.0628
62715SOL    HW295196   8.747   2.920   7.838  1.6692  0.0859 -0.5612
62716SOL     OW95197   2.586   5.221   4.479 -0.4430  0.4458  0.4695
62716SOL    HW195198   2.590   5.150   4.415 -0.1338  0.0238  0.9442
62716SOL    HW295199   2.677   5.239   4.501 -0.5248  0.9566  0.3879
62717SOL     OW95200   4.290  12.063   9.054  0.4191 -0.3532 -0.1906
62717SOL    HW195201   4.287  12.076   9.149 -1.1679 -2.7908  0.1776
62717SOL    HW295202   4.383  12.057   9.033  0.7726 -0.6562  1.3595
62718SOL     OW95203   0.858  10.825   5.699  0.9654  0.7840  0.1113
62718SOL    HW195204   0.875  10.876   5.620 -1.1024 -0.6065 -1.3201
62718SOL    HW295205   0.828  10.740   5.668 -0.4894  0.3716  2.3612
62719SOL     OW95206   0.713   4.745   8.915 -0.0510 -0.1460  1.0467
62719SOL    HW195207   0.697   4.826   8.964  0.2064 -1.7982  4.0725
62719SOL    HW295208   0.791   4.707   8.955 -0.0106 -1.8026 -0.4667
62720SOL     OW95209   1.268   7.105   9.462  0.0136 -0.3174 -0.8860
62720SOL    HW195210   1.187   7.101   9.412  0.3086  0.2324 -1.4232
62720SOL    HW295211   1.338   7.095   9.397  0.3854 -0.2975 -0.4984
62721SOL     OW95212  11.762   3.203   2.079  0.1210  0.5724 -0.0809
62721SOL    HW195213  11.796   3.114   2.071  1.2923  0.6978  2.4839
62721SOL    HW295214  11.668   3.195   2.066  0.0786 -1.2113  1.0659
62722SOL     OW95215   2.954   1.765   6.785 -0.1116  0.0434  0.3046
62722SOL    HW195216   2.954   1.691   6.725 -0.5745 -0.6809  1.1799
62722SOL    HW295217   3.017   1.741   6.852  1.7723  1.6281 -0.7797
62723SOL     OW95218   8.983  11.938   5.440 -0.2742  0.0035 -0.9373
62723SOL    HW195219   8.945  11.960   5.355  1.0090  1.4000 -1.1905
62723SOL    HW295220   9.029  11.855   5.426 -1.4771 -0.6506 -1.1432
62724SOL     OW95221   2.640   4.051   9.965 -0.4619 -0.0224 -0.4982
62724SOL    HW195222   2.724   4.076  10.003 -0.3905 -0.1869 -0.5492
62724SOL    HW295223   2.575   4.093  10.022 -0.3580 -0.3214 -0.1534
62725SOL     OW95224   2.286   2.804   3.234 -0.3222  0.3955 -0.1843
62725SOL    HW195225   2.233   2.813   3.155 -0.3140  1.6327 -0.0721
62725SOL    HW295226   2.315   2.893   3.254  0.7775 -0.0858  0.4637
62726SOL     OW95227   5.326   1.040   8.600  0.2734 -0.5421 -0.6608
62726SOL    HW195228   5.354   1.025   8.510  3.0829  4.7527 -1.0641
62726SOL    HW295229   5.387   0.990   8.654 -0.4523 -2.4813 -1.5260
62727SOL     OW95230   0.590   0.187   7.464  0.0577 -0.7881  0.4843
62727SOL    HW195231   0.538   0.120   7.422 -0.5259 -1.6145  2.4197
62727SOL    HW295232   0.536   0.266   7.460  0.3769 -0.6110 -1.0103
62728SOL     OW95233   7.626  10.053   6.813 -0.5228  0.1505 -0.1032
62728SOL    HW195234   7.564  10.113   6.854 -1.0236 -0.5513  0.1808
62728SOL    HW295235   7.678  10.018   6.886  1.2656  1.8676 -0.4707
62729SOL     OW95236   4.942   1.323   2.431 -0.3131 -0.1403 -0.0248
62729SOL    HW195237   4.956   1.228   2.433 -0.7659 -0.2153 -0.3162
62729SOL    HW295238   4.890   1.338   2.353 -0.3887  0.3330  0.1136
62730SOL     OW95239   9.544   7.816   2.685  0.2441 -0.1693 -0.5599
62730SOL    HW195240   9.619   7.876   2.683  0.4772 -0.4671 -2.4757
62730SOL    HW295241   9.469   7.871   2.662 -0.1474  0.0972  1.2116
62731SOL     OW95242   8.423   6.794   7.075  0.2665 -0.4766 -0.4864
62731SOL    HW195243   8.460   6.794   6.987  1.4946  2.2300 -0.0633
62731SOL    HW295244   8.497   6.774   7.133  0.6943  2.5745  0.1912
62732SOL     OW95245   0.892   0.202   1.760 -0.4862  0.6697  0.4605
62732SOL    HW195246   0.977   0.235   1.729  1.4329 -3.2617  0.9340
62732SOL    HW295247   0.905   0.186   1.853 -1.7517 -0.0119  0.5429
62733SOL     OW95248   1.565   8.352  12.575  0.3499 -0.8416  0.5120
62733SOL    HW195249   1.556   8.290  12.648 -0.6798 -0.9898  0.2783
62733SOL    HW295250   1.525   8.306  12.500 -0.0680 -0.0552  0.2442
62734SOL     OW95251  11.400   0.553   5.930 -0.3128 -0.2851 -0.0513
62734SOL    HW195252  11.366   0.497   6.000 -0.4753  1.0056  0.9418
62734SOL    HW295253  11.490   0.523   5.918 -0.1486 -0.2666  1.0037
62735SOL     OW95254   8.936   3.070   4.273 -0.9180  0.4572  0.2709
62735SOL    HW195255   8.854   3.039   4.312 -0.6449 -0.2105  0.3309
62735SOL    HW295256   8.956   3.006   4.204  0.7998 -0.8216  1.8404
62736SOL     OW95257  12.069   1.669   2.936 -0.1125  0.0984 -0.1055
62736SOL    HW195258  12.133   1.597   2.935 -0.5507 -0.2934 -0.1852
62736SOL    HW295259  11.993   1.632   2.980  0.0906  0.8976  0.9611
62737SOL     OW95260   5.592   0.028   6.211 -0.0733  0.5914  0.2840
62737SOL    HW195261   5.517   0.017   6.153  1.6136  0.7381 -2.0741
62737SOL    HW295262   5.598  -0.054   6.260 -0.7766 -0.0712 -0.7174
62738SOL     OW95263   8.303   3.686   8.849 -0.1555 -0.4548  0.1264
62738SOL    HW195264   8.285   3.715   8.938  1.1249 -1.4327  0.7583
62738SOL    HW295265   8.398   3.694   8.840  0.5758 -5.2043  0.7895
62739SOL     OW95266   9.631  10.039   0.484  0.2996 -0.3476  0.5888
62739SOL    HW195267   9.647  10.127   0.519 -1.1809  1.0872 -2.0045
62739SOL    HW295268   9.709  10.019   0.433  0.7542 -0.6761  1.4040
62740SOL     OW95269  10.116   0.339   1.227  0.4245 -0.0779 -0.5496
62740SOL    HW195270  10.175   0.284   1.279  0.4422  1.5941  1.3173
62740SOL    HW295271  10.139   0.429   1.251 -2.8692  0.6662  0.2847
62741SOL     OW95272  12.271   6.558   7.302  0.6981  0.5062  0.2219
62741SOL    HW195273  12.243   6.511   7.224  1.4057  0.4115  0.0220
62741SOL    HW295274  12.304   6.490   7.361 -0.9702  0.4273  1.1197
62742SOL     OW95275   9.932   0.492  11.272  0.3381 -0.1518  0.1640
62742SOL    HW195276   9.853   0.454  11.233  0.9445  0.5151 -1.8269
62742SOL    HW295277   9.908   0.582  11.293  0.1064 -0.4191  1.0748
62743SOL     OW95278   8.305  11.758   2.925  0.2393 -0.0472 -0.7193
62743SOL    HW195279   8.261  11.841   2.908  0.0312 -0.0581 -0.2430
62743SOL    HW295280   8.328  11.760   3.018  0.5529 -0.3714 -0.7842
62744SOL     OW95281   4.208  11.260   3.041  0.0636 -0.2346  0.1520
62744SOL    HW195282   4.278  11.310   3.000  0.1543 -1.0202 -0.7179
62744SOL    HW295283   4.242  11.235   3.126  0.5757 -0.0370  0.0076
62745SOL     OW95284  12.070   1.272   4.768 -0.4724  0.1858  0.0143
62745SOL    HW195285  12.084   1.359   4.731  0.1008  1.0481  2.1402
62745SOL    HW295286  12.002   1.284   4.833 -0.8350 -1.1096 -0.0946
62746SOL     OW95287   8.086  10.622   1.301 -0.1596  0.4476 -0.1320
62746SOL    HW195288   8.113  10.530   1.302  0.8583  0.7223 -0.5242
62746SOL    HW295289   8.165  10.671   1.323 -1.0757  1.1778  1.7734
62747SOL     OW95290   8.708   9.866   4.428 -0.0437 -0.1386 -0.1891
62747SOL    HW195291   8.712   9.932   4.359 -2.0858 -1.9103 -2.1786
62747SOL    HW295292   8.639   9.897   4.487  2.3951  1.9042  1.8362
62748SOL     OW95293  11.683   8.536   1.777 -0.0481  0.3949 -0.4505
62748SOL    HW195294  11.695   8.612   1.834  0.6053  0.2859 -0.4381
62748SOL    HW295295  11.758   8.538   1.718  0.5956 -0.8905  0.2975
62749SOL     OW95296   3.637   8.815   1.937  0.0093 -0.2749  0.4766
62749SOL    HW195297   3.617   8.803   2.030 -0.7208  0.9752  0.5059
62749SOL    HW295298   3.718   8.866   1.937  0.4253 -0.9318  0.4138
62750SOL     OW95299   5.987   4.027   4.369 -0.0774 -0.0352 -0.1205
62750SOL    HW195300   6.018   4.038   4.279  1.2590  1.4367  0.4736
62750SOL    HW295301   5.918   4.093   4.379  1.1039  1.1503  0.4767
62751SOL     OW95302  12.568  10.199  12.349 -0.7111 -0.1622 -0.5363
62751SOL    HW195303  12.565  10.280  12.401 -0.8264 -1.5890  1.8690
62751SOL    HW295304  12.601  10.133  12.411 -1.6577 -2.1683 -2.0735
62752SOL     OW95305   9.434  12.338   6.086 -0.7685 -0.1216 -0.1836
62752SOL    HW195306   9.401  12.251   6.108  1.5116 -1.0164 -0.0012
62752SOL    HW295307   9.458  12.376   6.171  1.6118 -0.8221 -0.4762
62753SOL     OW95308   5.043  11.208   0.836  0.4458 -0.1413  0.0578
62753SOL    HW195309   5.043  11.280   0.773  0.1357 -0.1561  0.0379
62753SOL    HW295310   4.958  11.214   0.880  0.2593 -0.7313 -0.2155
62754SOL     OW95311   9.242  10.489   5.685  0.0089  0.1307  0.6350
62754SOL    HW195312   9.319  10.544   5.670 -0.8793  1.5651  1.1553
62754SOL    HW295313   9.233  10.486   5.780 -0.7105  0.1698  0.5730
62755SOL     OW95314   5.319   6.618   3.439 -0.3391  0.1421 -0.1730
62755SOL    HW195315   5.307   6.614   3.344 -1.5466 -1.3065  0.0074
62755SOL    HW295316   5.233   6.596   3.475  0.0478  0.8730  1.2670
62756SOL     OW95317   3.258  12.207   2.193  0.0658 -0.0890 -0.1804
62756SOL    HW195318   3.207  12.193   2.273 -1.2508  1.6532 -0.6604
62756SOL    HW295319   3.216  12.153   2.127  0.7867 -1.0617  0.1351
62757SOL     OW95320   8.065   7.328   7.553 -0.1667 -0.0763  0.6368
62757SOL    HW195321   8.140   7.360   7.603 -0.7067  1.2470  0.6219
62757SOL    HW295322   7.989   7.371   7.592 -0.5566  1.5217 -1.6632
62758SOL     OW95323  10.676   6.834  11.718 -0.1826 -0.3917  0.9898
62758SOL    HW195324  10.663   6.792  11.633  0.4857  0.0131  0.6779
62758SOL    HW295325  10.761   6.878  11.710 -0.4717  0.2938  1.6083
62759SOL     OW95326  11.957  11.226   3.807  0.2468 -0.5556 -0.4774
62759SOL    HW195327  11.931  11.297   3.865  0.2108 -1.6691  0.9405
62759SOL    HW295328  11.966  11.266   3.720 -3.7721  0.4000 -0.6211
62760SOL     OW95329   7.483   0.321  11.636  0.4635  0.4431 -0.1692
62760SOL    HW195330   7.524   0.295  11.554  1.7066 -0.2087  0.6294
62760SOL    HW295331   7.541   0.287  11.704  1.2275  3.7842  0.9985
62761SOL     OW95332   5.999   5.541   0.443  0.2387  0.4359  0.0757
62761SOL    HW195333   6.056   5.599   0.392  1.3386  1.0559  1.9499
62761SOL    HW295334   5.915   5.586   0.444 -0.2613 -0.2813 -2.3519
62762SOL     OW95335   0.814   0.583   5.754  0.5843  0.3019 -0.3447
62762SOL    HW195336   0.881   0.520   5.780  0.4501  0.4528  0.3805
62762SOL    HW295337   0.844   0.666   5.792 -0.2960  0.2608  0.4722
62763SOL     OW95338   0.925   7.822   1.969 -0.7389  0.2669  0.4905
62763SOL    HW195339   0.903   7.915   1.960 -2.5710 -0.2206 -0.7338
62763SOL    HW295340   0.862   7.777   1.912  0.1941 -1.7240  0.9375
62764SOL     OW95341   8.933  11.405   6.238 -0.0487  0.3461  0.3598
62764SOL    HW195342   8.986  11.479   6.209  1.0655 -0.0105  1.3780
62764SOL    HW295343   8.997  11.336   6.257 -1.0055 -0.6144  0.1727
62765SOL     OW95344   7.525   9.767   9.804 -0.1504  0.5499 -0.1251
62765SOL    HW195345   7.554   9.683   9.839  0.1706  0.9455  0.5788
62765SOL    HW295346   7.603   9.823   9.807 -0.5449  1.0980  0.1434
62766SOL     OW95347   8.349   8.159   2.922 -0.1211 -0.3863  0.1464
62766SOL    HW195348   8.413   8.101   2.880 -0.7334 -1.2788  0.4125
62766SOL    HW295349   8.324   8.221   2.854  0.4166 -0.5498 -0.2016
62767SOL     OW95350   3.009   9.405  11.257  0.0499  0.5163 -0.1350
62767SOL    HW195351   2.975   9.494  11.249  0.4365  0.6458 -0.3235
62767SOL    HW295352   2.933   9.349  11.242  0.0862  0.7923 -1.4215
62768SOL     OW95353   5.410   9.763   9.048  0.1334  0.4350 -0.1351
62768SOL    HW195354   5.431   9.782   9.140 -0.1816 -1.3738  0.3532
62768SOL    HW295355   5.491   9.783   9.001  0.1774  1.7693  0.4440
62769SOL     OW95356   7.931   9.859  11.681  0.5259 -0.1079 -0.1787
62769SOL    HW195357   7.883   9.894  11.606  1.1517 -0.8207 -0.9307
62769SOL    HW295358   7.935   9.932  11.743 -3.6292 -0.6386  1.0264
62770SOL     OW95359   3.946  11.151   7.749 -0.1353 -0.0848 -0.0094
62770SOL    HW195360   3.988  11.154   7.834 -0.3871  0.6624  0.1001
62770SOL    HW295361   4.017  11.164   7.686 -0.2073  1.3604  0.1800
62771SOL     OW95362   6.735   0.443   7.354 -0.0173  0.2929 -0.1970
62771SOL    HW195363   6.780   0.461   7.272  1.9411 -0.2013  0.7047
62771SOL    HW295364   6.702   0.528   7.383  2.1374  1.0948  0.0728
62772SOL     OW95365   2.679   6.446   1.947 -0.1869  0.0619  0.2801
62772SOL    HW195366   2.626   6.511   1.994 -0.0911 -0.3195  0.9313
62772SOL    HW295367   2.765   6.450   1.990  0.3683  0.7472 -0.8284
62773SOL     OW95368   0.009  10.707   9.746  0.6074 -0.2613  0.6223
62773SOL    HW195369   0.027  10.687   9.838  1.2132  0.0486  0.5819
62773SOL    HW295370  -0.080  10.676   9.731  0.9688 -1.5068  0.9618
62774SOL     OW95371  11.425  12.003   6.400 -0.1701 -0.2486 -0.1517
62774SOL    HW195372  11.518  12.014   6.424 -0.0857 -0.3706 -0.4210
62774SOL    HW295373  11.424  11.926   6.344 -0.5549 -0.7181  0.4940
62775SOL     OW95374  11.670   7.043   3.442 -0.0243  0.1421 -0.3654
62775SOL    HW195375  11.627   6.978   3.498 -0.5301  2.3669  1.9981
62775SOL    HW295376  11.747   7.070   3.491  0.1006  1.4133 -1.2127
62776SOL     OW95377   2.271   1.473   2.969 -0.4714  0.1466  0.3523
62776SOL    HW195378   2.364   1.473   2.946 -0.9712  0.5637 -1.9830
62776SOL    HW295379   2.231   1.413   2.906 -1.6207 -1.3146  2.3503
62777SOL     OW95380   1.000   5.080  10.554 -0.0912 -0.0623 -0.5835
62777SOL    HW195381   1.056   5.106  10.627  0.0516  0.8611 -0.9997
62777SOL    HW295382   1.061   5.057  10.484 -0.1829  1.6405 -1.2777
62778SOL     OW95383   9.012   5.161   5.259  0.0983  0.1212 -0.1629
62778SOL    HW195384   9.073   5.178   5.187  0.7338 -1.7698 -0.1172
62778SOL    HW295385   8.973   5.246   5.277  0.2682  0.7573 -2.4312
62779SOL     OW95386   4.563   7.856   1.079  0.0472  0.1724  0.1349
62779SOL    HW195387   4.571   7.941   1.034 -2.1458 -0.7646 -2.2793
62779SOL    HW295388   4.630   7.859   1.147  3.0411  2.1414 -2.5763
62780SOL     OW95389  11.250   2.340   7.765  0.5734 -0.3420  0.0810
62780SOL    HW195390  11.154   2.346   7.772  0.5609 -0.6968  0.2008
62780SOL    HW295391  11.265   2.260   7.715  0.8234 -0.5039  0.4158
62781SOL     OW95392  12.342  11.402   9.796  0.2764  0.6289  0.1907
62781SOL    HW195393  12.368  11.310   9.788  1.1509  0.8977 -0.1955
62781SOL    HW295394  12.278  11.403   9.868 -0.2204 -0.3673 -0.2219
62782SOL     OW95395   7.674  11.062   8.791 -0.2124  0.0950 -0.4572
62782SOL    HW195396   7.613  10.991   8.771 -0.6763 -0.5477  2.7588
62782SOL    HW295397   7.758  11.018   8.802  0.4340  0.6814 -2.5641
62783SOL     OW95398   9.437   0.407   1.573  0.3736  0.0451  0.1771
62783SOL    HW195399   9.505   0.390   1.508  0.5599  2.5376 -0.4130
62783SOL    HW295400   9.464   0.490   1.613 -1.8724  0.6648  0.5057
62784SOL     OW95401  10.558   0.654   4.727 -0.1206 -0.5457  0.9090
62784SOL    HW195402  10.514   0.570   4.712  2.2520 -1.8688  0.9979
62784SOL    HW295403  10.596   0.646   4.814  0.8743  0.2926  0.5651
62785SOL     OW95404   0.414   8.204  11.708 -0.1693  0.0762  0.0678
62785SOL    HW195405   0.485   8.207  11.644 -0.6840  0.0647 -0.5074
62785SOL    HW295406   0.341   8.249  11.666 -0.6990 -0.4489  0.4012
62786SOL     OW95407   9.511   9.901   4.932 -0.1002 -0.1576  0.3297
62786SOL    HW195408   9.440   9.837   4.938 -0.1645 -0.1588 -0.4008
62786SOL    HW295409   9.578   9.858   4.879  0.4499 -0.1491  1.0001
62787SOL     OW95410   6.090   9.033  11.457  0.2028  0.1051 -0.7921
62787SOL    HW195411   6.037   9.071  11.528  0.4545  0.3223 -0.7216
62787SOL    HW295412   6.032   8.968  11.417  0.2867 -0.5198  0.0552
62788SOL     OW95413   8.439   5.864  11.286  0.4299  0.4122  0.0264
62788SOL    HW195414   8.478   5.949  11.306  1.0856  0.9885 -3.1174
62788SOL    HW295415   8.510   5.801  11.298 -0.1643  0.1222  2.7691
62789SOL     OW95416  12.186  10.906  10.217  0.0430  0.3433  0.5806
62789SOL    HW195417  12.281  10.922  10.215  0.2413 -0.7132  1.0631
62789SOL    HW295418  12.163  10.911  10.310  0.1014 -1.9254  0.7674
62790SOL     OW95419  11.259   1.983   3.534  0.0690 -0.2151  0.4046
62790SOL    HW195420  11.298   1.994   3.447 -0.1876  1.7185  0.4997
62790SOL    HW295421  11.183   1.927   3.518 -1.3070  1.9394 -1.0616
62791SOL     OW95422   3.559  10.742   4.995  0.2444  0.1477 -0.2775
62791SOL    HW195423   3.506  10.817   5.024  1.5755  1.1090 -0.2301
62791SOL    HW295424   3.501  10.692   4.938 -0.4997  1.5250 -0.7716
62792SOL     OW95425   0.028   0.903   6.320  0.4592  0.1538  0.6496
62792SOL    HW195426   0.011   0.811   6.299  2.5589 -0.3204  0.8547
62792SOL    HW295427   0.112   0.903   6.365 -0.0187  2.0759  1.6589
62793SOL     OW95428   9.488   7.901   5.216 -0.4967 -0.1897  0.1716
62793SOL    HW195429   9.513   7.857   5.297  0.9286  0.2700  0.0059
62793SOL    HW295430   9.467   7.830   5.155  1.3633 -0.6575  0.0334
62794SOL     OW95431   2.403   2.305   2.371  0.5422  0.7081  0.0423
62794SOL    HW195432   2.375   2.380   2.317  0.2120  0.4046 -0.2141
62794SOL    HW295433   2.397   2.230   2.312  0.4032  0.4052  0.4369
62795SOL     OW95434   1.503   6.806   9.629 -0.1468 -0.1808  0.2383
62795SOL    HW195435   1.456   6.884   9.599  0.5148  0.3668  0.5870
62795SOL    HW295436   1.461   6.783   9.712  0.4683  0.5700  0.7692
62796SOL     OW95437   8.531  10.063   3.382 -0.3007  0.1670 -0.1160
62796SOL    HW195438   8.586  10.116   3.325 -0.2038  1.1985  0.9145
62796SOL    HW295439   8.452  10.116   3.396 -0.2281  0.0342  0.8841
62797SOL     OW95440  10.192   5.412   5.082 -0.2682 -0.8098 -0.3684
62797SOL    HW195441  10.158   5.499   5.061  1.7098  0.4942  1.3534
62797SOL    HW295442  10.161   5.395   5.171 -0.3360 -1.7164 -0.5558
62798SOL     OW95443   8.962   8.261   1.830  0.3211 -0.1955  0.1808
62798SOL    HW195444   8.985   8.168   1.826 -1.5980 -0.7404  0.7614
62798SOL    HW295445   8.881   8.268   1.780  0.3608  1.1620  0.2614
62799SOL     OW95446  10.264   4.028   1.051  0.0145 -0.2915  0.0088
62799SOL    HW195447  10.306   3.982   0.978 -0.0587  0.6926 -0.6673
62799SOL    HW295448  10.194   3.970   1.079  0.2197 -0.8013 -0.5197
62800SOL     OW95449   7.404   9.752   0.128 -0.1306  0.3240  0.4272
62800SOL    HW195450   7.356   9.802   0.194 -1.3628  0.3078 -0.4051
62800SOL    HW295451   7.337   9.731   0.062  0.1670 -2.9773  1.0243
62801SOL     OW95452   6.406  11.894   1.082  0.0252  0.1820  0.1100
62801SOL    HW195453   6.443  11.908   0.995  0.3388  0.4798  0.2930
62801SOL    HW295454   6.334  11.957   1.088 -0.2854 -0.1441 -0.1019
62802SOL     OW95455   5.668   5.393   8.210 -0.3944  0.1298 -0.0863
62802SOL    HW195456   5.618   5.337   8.150 -0.9727 -0.6615  1.0890
62802SOL    HW295457   5.675   5.477   8.165 -0.4326 -0.5737 -1.4326
62803SOL     OW95458   5.414   1.899   5.754 -0.2467 -0.4962 -0.5282
62803SOL    HW195459   5.477   1.909   5.825 -0.4580  0.4333 -0.4521
62803SOL    HW295460   5.466   1.878   5.677  0.3569  1.6958 -0.7969
62804SOL     OW95461   7.386  10.341   7.161  0.0407  0.3737  0.2678
62804SOL    HW195462   7.378  10.277   7.231 -0.5290  1.3653  1.1537
62804SOL    HW295463   7.311  10.400   7.174 -0.9542 -0.2657 -2.0990
62805SOL     OW95464   6.643   7.362   9.897 -0.1735 -0.0711 -0.0011
62805SOL    HW195465   6.711   7.402   9.951 -0.0292 -1.0177  0.5502
62805SOL    HW295466   6.687   7.289   9.853 -0.7978 -0.6448  0.2988
62806SOL     OW95467   7.087   0.989  10.856 -0.7979 -0.2245 -0.6784
62806SOL    HW195468   7.092   0.935  10.935 -1.4445  1.3228  0.4618
62806SOL    HW295469   7.173   0.980  10.815  0.0057 -0.0433  0.9008
62807SOL     OW95470   2.597   8.108   7.731 -0.0457  0.2108  0.8849
62807SOL    HW195471   2.688   8.127   7.752  0.1747  0.7646 -0.5129
62807SOL    HW295472   2.558   8.194   7.712 -0.5073 -0.1562  0.1322
62808SOL     OW95473   8.250  10.505   3.380  0.0120  0.5749  0.1901
62808SOL    HW195474   8.322  10.565   3.362  1.4194 -2.0490 -5.2886
62808SOL    HW295475   8.177  10.539   3.328 -0.0181 -0.8521 -0.7758
62809SOL     OW95476  10.794   8.703   9.006 -0.5975 -0.1695 -0.5971
62809SOL    HW195477  10.829   8.742   9.086 -0.1833  0.4144 -1.0531
62809SOL    HW295478  10.745   8.626   9.036  0.8823 -0.8901  0.0853
62810SOL     OW95479   7.137   2.959   6.817 -0.5997  0.0345 -0.0608
62810SOL    HW195480   7.222   2.928   6.786  0.6610  1.3586  1.8775
62810SOL    HW295481   7.073   2.910   6.765  1.3181 -0.1989 -2.3799
62811SOL     OW95482   2.411  11.325   1.135  0.6575  0.2032  0.4286
62811SOL    HW195483   2.446  11.247   1.092  0.6777 -0.0158  0.8345
62811SOL    HW295484   2.333  11.294   1.181  1.0343  0.2776  1.1367
62812SOL     OW95485   1.857   9.636   5.873 -0.2863 -0.2576  0.4472
62812SOL    HW195486   1.916   9.645   5.948 -0.0629 -0.1172  0.2587
62812SOL    HW295487   1.815   9.722   5.866  0.7475  0.2018 -0.4523
62813SOL     OW95488   3.586  12.291   5.118  0.4846 -0.4868 -0.1125
62813SOL    HW195489   3.623  12.203   5.113  0.5532 -0.4772  0.1816
62813SOL    HW295490   3.528  12.288   5.194 -0.2906 -0.5616 -0.7000
62814SOL     OW95491   9.056  12.473  11.047 -0.2845  0.4329  0.2075
62814SOL    HW195492   8.969  12.512  11.057 -1.6415 -2.3172 -0.0648
62814SOL    HW295493   9.056  12.399  11.107  1.5744 -0.1308 -0.4332
62815SOL     OW95494   0.510   3.456   6.695  0.0914  0.2469  0.2826
62815SOL    HW195495   0.536   3.540   6.734 -0.6772  0.8815 -0.5170
62815SOL    HW295496   0.531   3.391   6.762 -0.8886  1.2559  1.6348
62816SOL     OW95497  10.876   3.194   3.777 -0.2576  0.5858  0.4069
62816SOL    HW195498  10.894   3.100   3.767  1.4075  0.9506 -0.6186
62816SOL    HW295499  10.806   3.199   3.841  1.0996 -1.2766  2.1800
62817SOL     OW95500  11.007   9.933  11.372  0.2143  0.3502 -0.7783
62817SOL    HW195501  10.950   9.857  11.365  1.2449 -0.6455  0.8787
62817SOL    HW295502  11.077   9.916  11.309  0.8514 -0.4884  0.1281
62818SOL     OW95503   5.694   2.128   0.362  0.3309  0.7348  0.0553
62818SOL    HW195504   5.674   2.215   0.396 -0.9647  0.0172  1.2636
62818SOL    HW295505   5.638   2.119   0.285  0.6207  1.0369 -0.1940
62819SOL     OW95506   4.138   6.179   0.897 -0.0341 -0.1940  0.0332
62819SOL    HW195507   4.148   6.131   0.980  0.9652 -0.8564 -0.4377
62819SOL    HW295508   4.224   6.171   0.856 -0.6192 -0.1776 -1.2274
62820SOL     OW95509   8.525   1.363   6.281  0.3031 -0.5370  0.5538
62820SOL    HW195510   8.595   1.399   6.226  1.1792 -2.5129  0.3046
62820SOL    HW295511   8.520   1.423   6.355 -0.3306  1.7298 -1.1989
62821SOL     OW95512   9.654  12.410   1.312  0.0183  0.0008 -0.0598
62821SOL    HW195513   9.616  12.454   1.388  2.5153  0.0101  1.2798
62821SOL    HW295514   9.680  12.324   1.343 -2.1606 -1.4478 -1.9123
62822SOL     OW95515   4.467   8.674   2.295 -0.2324 -0.0698  0.0929
62822SOL    HW195516   4.545   8.669   2.240  0.5617  1.4732  1.0013
62822SOL    HW295517   4.435   8.584   2.301  2.4789 -1.0575  1.0739
62823SOL     OW95518   1.574   8.813   9.161 -0.2707 -0.2108 -0.1939
62823SOL    HW195519   1.517   8.745   9.124 -0.1990 -0.1257 -0.4638
62823SOL    HW295520   1.641   8.765   9.208 -1.2107 -0.2972  1.1169
62824SOL     OW95521  12.474   3.736   0.907 -0.1433  0.1066  0.2204
62824SOL    HW195522  12.400   3.790   0.934 -1.3374 -1.5982  0.4821
62824SOL    HW295523  12.487   3.675   0.979  0.3613 -0.7590 -0.5908
62825SOL     OW95524  11.787   1.830   8.683 -0.1729  0.0516  0.3444
62825SOL    HW195525  11.851   1.805   8.616 -0.6603  1.8823 -0.8763
62825SOL    HW295526  11.823   1.795   8.764  1.5174 -0.4231 -0.5586
62826SOL     OW95527   6.071   2.446   7.995 -0.4921  0.8163 -0.1986
62826SOL    HW195528   6.119   2.527   7.977  2.4979 -0.6375  0.5220
62826SOL    HW295529   6.081   2.433   8.089  0.5032 -1.1718 -0.5410
62827SOL     OW95530   7.753  10.931  11.064 -0.2334  0.1864 -0.0686
62827SOL    HW195531   7.763  10.992  10.990 -1.1766 -2.1621 -2.3071
62827SOL    HW295532   7.723  10.985  11.136 -2.1276  2.2817 -2.2372
62828SOL     OW95533   8.458   2.088   5.773 -0.1002  0.1152  0.2641
62828SOL    HW195534   8.478   2.142   5.850 -0.4389  0.2549  0.2579
62828SOL    HW295535   8.390   2.137   5.727 -0.2372 -0.2015  0.1277
62829SOL     OW95536   5.687   1.901   7.485 -0.1762  0.0142  0.3827
62829SOL    HW195537   5.633   1.919   7.408 -0.0435  0.3598  0.3677
62829SOL    HW295538   5.745   1.831   7.457 -1.5683 -1.3792  0.8463
62830SOL     OW95539   1.395   7.636   4.236 -0.1528 -0.4020 -0.0647
62830SOL    HW195540   1.333   7.598   4.173  0.3973  0.1477 -0.9638
62830SOL    HW295541   1.392   7.730   4.218  1.6701 -0.4441 -0.8319
62831SOL     OW95542   7.675  12.272   9.462  0.0551  0.4045 -0.2926
62831SOL    HW195543   7.728  12.200   9.429 -0.8388 -0.4092 -0.0247
62831SOL    HW295544   7.736  12.344   9.476  0.7111  0.2308 -2.1148
62832SOL     OW95545   2.144   4.308  10.060  0.2301 -0.2225 -0.2742
62832SOL    HW195546   2.134   4.271  10.147  1.4598 -2.4366 -0.9882
62832SOL    HW295547   2.151   4.402  10.074  0.7640 -0.5592  2.0411
62833SOL     OW95548   4.589  10.470  10.186 -0.3656 -0.0115 -0.1938
62833SOL    HW195549   4.558  10.380  10.196 -0.4144 -0.0156 -0.3806
62833SOL    HW295550   4.561  10.496  10.099 -0.4049  0.2074 -0.1173
62834SOL     OW95551   4.990   1.659   2.158 -0.2390  0.1606  0.3093
62834SOL    HW195552   4.957   1.643   2.246 -1.5693 -0.3362 -0.2541
62834SOL    HW295553   4.992   1.755   2.151 -0.0809  0.2046  0.8859
62835SOL     OW95554   0.052   2.156   3.278 -0.1796 -0.3393 -0.1555
62835SOL    HW195555   0.115   2.112   3.221  1.7255  2.1079 -0.1009
62835SOL    HW295556   0.034   2.094   3.348 -1.4243 -2.8644 -2.5462
62836SOL     OW95557  12.515  10.897   9.038 -0.1297  0.4339 -0.1783
62836SOL    HW195558  12.492  10.839   8.966  0.2361  0.5586 -0.3975
62836SOL    HW295559  12.431  10.930   9.071 -0.2640  0.9285 -0.9950
62837SOL     OW95560   0.549  12.426  10.869  0.2448  0.2503  0.1804
62837SOL    HW195561   0.470  12.436  10.922  1.0530 -0.5027  1.5891
62837SOL    HW295562   0.593  12.349  10.906  2.1257  1.2077  0.0722
62838SOL     OW95563   4.587   4.748  10.847  0.0635 -0.5022 -0.0379
62838SOL    HW195564   4.497   4.719  10.856 -0.1207 -0.0920 -0.5174
62838SOL    HW295565   4.585   4.841  10.869  0.0459 -0.0808 -1.7101
62839SOL     OW95566   9.998  10.536   4.873 -0.3013 -0.3073 -0.2809
62839SOL    HW195567   9.931  10.478   4.910 -1.5745  1.7818  0.8575
62839SOL    HW295568  10.070  10.532   4.936 -0.5348 -0.3369 -0.0152
62840SOL     OW95569  11.328   3.003   0.850  0.0007  0.0004 -0.3274
62840SOL    HW195570  11.258   3.068   0.843  0.0964  0.3008  1.2115
62840SOL    HW295571  11.281   2.919   0.853 -0.0765 -0.2419 -3.8469
62841SOL     OW95572   4.672   4.485   9.756 -0.1661  0.1882  0.3973
62841SOL    HW195573   4.703   4.405   9.800  1.5697  1.5940  1.8806
62841SOL    HW295574   4.673   4.551   9.825 -1.5573  1.5138 -0.8134
62842SOL     OW95575   5.155   3.280   8.770 -0.1270 -0.5036  0.1092
62842SOL    HW195576   5.244   3.283   8.734  0.4181  0.0223  1.4467
62842SOL    HW295577   5.133   3.187   8.771  1.6810 -0.9881  2.6981
62843SOL     OW95578   6.596   3.297   1.975 -0.0028 -0.1492  0.6811
62843SOL    HW195579   6.531   3.247   1.927  1.9026 -0.8253 -1.3944
62843SOL    HW295580   6.552   3.378   1.999 -2.1964 -1.4432  1.2725
62844SOL     OW95581   3.725   2.457   9.384  0.2409  0.1208  0.1415
62844SOL    HW195582   3.726   2.543   9.426 -0.5122 -0.6061  1.7433
62844SOL    HW295583   3.678   2.471   9.301 -0.0913  1.2078  0.4942
62845SOL     OW95584   7.707   0.752   9.446 -0.1780 -0.2719 -0.0173
62845SOL    HW195585   7.682   0.686   9.381 -0.3318 -1.5490  1.2991
62845SOL    HW295586   7.697   0.836   9.399 -0.0776 -1.1457 -1.6910
62846SOL     OW95587   5.495   5.141  10.399  0.1913 -0.3172  0.0284
62846SOL    HW195588   5.503   5.050  10.426  0.5445 -0.0389  0.8849
62846SOL    HW295589   5.584   5.175  10.398  0.1915 -0.2966 -1.4706
62847SOL     OW95590   2.170  10.655   3.002 -0.2935  0.4739  0.1102
62847SOL    HW195591   2.126  10.700   3.074  1.3390  3.2934 -0.4896
62847SOL    HW295592   2.230  10.594   3.044 -1.3886  0.0010  1.0281
62848SOL     OW95593   5.764   9.100  12.176 -0.1697 -0.1164  0.2627
62848SOL    HW195594   5.709   9.162  12.225  0.3881  0.3702  0.2804
62848SOL    HW295595   5.816   9.056  12.243  0.2151  0.1735  0.1539
62849SOL     OW95596  11.768  11.400   1.457 -0.4451 -0.6848 -0.2373
62849SOL    HW195597  11.714  11.478   1.446  1.4079  0.4117 -2.6864
62849SOL    HW295598  11.730  11.336   1.396 -0.5658 -0.8851  0.0439
62850SOL     OW95599   5.245   2.938   5.805  0.2838  0.6551 -0.0075
62850SOL    HW195600   5.242   2.941   5.709  1.0424  1.7709 -0.0241
62850SOL    HW295601   5.202   3.019   5.832  0.2981  0.4650  0.5900
62851SOL     OW95602  10.533   8.038   6.336  0.7698  0.3007 -0.1667
62851SOL    HW195603  10.540   7.945   6.311  1.2236  0.2732  0.0397
62851SOL    HW295604  10.568   8.041   6.425 -1.8850  0.2042  0.9749
62852SOL     OW95605   9.484   9.322   5.687  0.8084 -0.1028  0.1748
62852SOL    HW195606   9.518   9.233   5.688 -0.8317 -0.7668  0.4347
62852SOL    HW295607   9.515   9.358   5.604  0.5932 -1.3009 -0.4554
62853SOL     OW95608   5.865  11.179   0.844 -0.3038  0.3291  0.2202
62853SOL    HW195609   5.800  11.137   0.900 -0.6641  0.3716 -0.1587
62853SOL    HW295610   5.869  11.269   0.875 -1.6411  0.7686 -0.7947
62854SOL     OW95611   8.716   4.300   9.134  0.3336  0.0537  0.4004
62854SOL    HW195612   8.652   4.230   9.141  0.0126  0.2172 -0.6898
62854SOL    HW295613   8.799   4.260   9.159 -0.0244 -0.4363  0.8021
62855SOL     OW95614   1.183   7.811   9.101 -0.3316  0.5088 -0.0050
62855SOL    HW195615   1.107   7.756   9.080  0.5400 -3.3335  5.0256
62855SOL    HW295616   1.157   7.860   9.179  1.4338  1.3563  0.1084
62856SOL     OW95617  12.528   8.072   4.910 -0.3748  0.1215  0.1738
62856SOL    HW195618  12.453   8.035   4.865  0.2216 -1.3726  0.3251
62856SOL    HW295619  12.511   8.166   4.915 -2.1860 -0.1800  0.1497
62857SOL     OW95620   8.851  10.424   4.964  0.2540 -0.3544 -0.1326
62857SOL    HW195621   8.900  10.386   5.037  0.5975 -0.0385 -0.1909
62857SOL    HW295622   8.814  10.505   4.999 -0.5779 -0.7952  0.0275
62858SOL     OW95623   3.271   1.001   8.264  0.2507 -0.5614  0.3996
62858SOL    HW195624   3.204   0.939   8.237  0.5259 -1.7599  2.2510
62858SOL    HW295625   3.266   1.001   8.360 -0.5857  3.2520  0.5443
62859SOL     OW95626  11.441   6.936  10.163  0.0463 -0.1733 -0.0431
62859SOL    HW195627  11.417   6.974  10.078 -1.4482  2.3273  1.3517
62859SOL    HW295628  11.364   6.885  10.188  0.3843 -0.6965 -0.0601
62860SOL     OW95629  10.045   1.602  10.412 -0.1521  0.3060  0.0470
62860SOL    HW195630   9.966   1.561  10.449  0.4182  0.5295  1.5927
62860SOL    HW295631  10.061   1.554  10.331 -0.7432 -1.0890  0.7183
62861SOL     OW95632  11.805   2.248   5.402 -0.0202  0.5686 -0.5371
62861SOL    HW195633  11.811   2.258   5.307  1.5270 -0.4019 -0.5784
62861SOL    HW295634  11.789   2.154   5.415  2.5994  0.1468  0.1841
62862SOL     OW95635   0.964   8.178  11.341  0.5692 -0.0826 -0.1017
62862SOL    HW195636   0.905   8.244  11.377 -0.1679 -0.0360 -1.3520
62862SOL    HW295637   0.910   8.127  11.281  1.2286 -1.5813  0.5348
62863SOL     OW95638   6.658   9.841  11.720  0.0490 -0.1897 -0.2104
62863SOL    HW195639   6.735   9.788  11.742  0.2193  0.7924  1.7586
62863SOL    HW295640   6.690   9.904  11.655  0.7447 -0.2497  0.0651
62864SOL     OW95641   2.511   0.258   0.692 -0.0203  0.1958  0.0610
62864SOL    HW195642   2.505   0.332   0.632 -0.5878  0.0605 -0.0548
62864SOL    HW295643   2.550   0.187   0.640  0.9922  0.5531  0.3124
62865SOL     OW95644   6.924   0.634  11.836 -0.1869 -0.5916  0.0068
62865SOL    HW195645   6.833   0.640  11.865 -0.2289 -0.4865 -0.1393
62865SOL    HW295646   6.933   0.707  11.774  0.8615  1.3907  2.3013
62866SOL     OW95647   8.885   1.355   7.525  0.2589  0.3255  0.3114
62866SOL    HW195648   8.846   1.284   7.474  0.8676 -1.2478  1.9352
62866SOL    HW295649   8.859   1.434   7.478  1.1431 -0.9886 -2.6975
62867SOL     OW95650  10.987   3.453  12.033  0.1176 -0.6395  0.4905
62867SOL    HW195651  10.954   3.404  11.958  0.4386 -0.0703 -0.0304
62867SOL    HW295652  10.972   3.545  12.010  0.3792 -0.4516  1.0492
62868SOL     OW95653   8.832   7.540   5.369 -0.1211 -0.1576 -0.0663
62868SOL    HW195654   8.879   7.531   5.452  1.2014  0.1490 -0.7405
62868SOL    HW295655   8.901   7.558   5.305 -0.9849 -1.4922 -1.4345
62869SOL     OW95656  10.019   7.478   7.229 -0.0071  0.2317 -0.1192
62869SOL    HW195657  10.053   7.551   7.280 -1.2990  1.4067 -0.8738
62869SOL    HW295658  10.047   7.495   7.139 -1.9060  0.8696 -0.6379
62870SOL     OW95659  10.329   2.919   4.413  0.5491  0.4953 -0.5620
62870SOL    HW195660  10.250   2.962   4.381 -1.3447 -2.0776  0.3000
62870SOL    HW295661  10.324   2.928   4.508  2.5686  2.2448 -0.5478
62871SOL     OW95662   5.107   9.849   3.326 -0.0831 -0.5073  0.0823
62871SOL    HW195663   5.044   9.908   3.283  0.5483 -0.6795 -1.1062
62871SOL    HW295664   5.156   9.906   3.386  0.1339  0.0752 -0.6346
62872SOL     OW95665   2.574  10.902   4.570 -0.2484  0.4962 -0.4425
62872SOL    HW195666   2.633  10.855   4.511  0.5370 -0.3784  0.9790
62872SOL    HW295667   2.570  10.990   4.534  1.9128  0.5685 -0.6326
62873SOL     OW95668   2.320   8.026   0.292  0.3040  0.1216 -0.2745
62873SOL    HW195669   2.327   7.941   0.249 -2.4430 -0.8538  0.9918
62873SOL    HW295670   2.312   8.089   0.220  0.4919 -0.9085 -1.2154
62874SOL     OW95671  11.111   7.582   6.007 -0.1844  0.2752  0.3145
62874SOL    HW195672  11.155   7.544   6.083 -0.7706  1.0341  1.0638
62874SOL    HW295673  11.103   7.675   6.029 -1.8640  0.2187  0.0895
62875SOL     OW95674   8.514   9.063  12.038 -0.4117 -0.3147 -0.0967
62875SOL    HW195675   8.465   9.140  12.064  0.1282 -0.3424  1.0959
62875SOL    HW295676   8.452   8.990  12.049 -0.7188 -0.1227 -0.5751
62876SOL     OW95677   6.955   0.968   1.608  0.5198 -0.1162  0.3588
62876SOL    HW195678   7.003   0.949   1.689 -0.9441 -1.6509  0.9037
62876SOL    HW295679   6.931   1.061   1.616  0.6660 -0.1620  1.5350
62877SOL     OW95680   2.489  11.375   3.006  0.2089 -0.0757 -0.1026
62877SOL    HW195681   2.548  11.342   3.074 -0.3718  0.1215  0.5055
62877SOL    HW295682   2.492  11.470   3.015 -0.1261 -0.0602 -0.1221
62878SOL     OW95683  11.101   9.603   7.908  0.0458 -0.1477  0.2096
62878SOL    HW195684  11.033   9.606   7.841  0.9899 -1.3062 -0.8324
62878SOL    HW295685  11.161   9.674   7.884  1.3785 -1.7213 -1.3200
62879SOL     OW95686   5.278  11.416   1.302  0.6311  0.1556  0.1548
62879SOL    HW195687   5.325  11.377   1.229 -1.4295  1.3548 -1.9402
62879SOL    HW295688   5.338  11.407   1.376  2.7423 -1.2874 -1.5881
62880SOL     OW95689   8.713  10.873  11.085 -0.7710  0.3557  0.2750
62880SOL    HW195690   8.753  10.898  11.002  0.5681 -0.2529  0.6927
62880SOL    HW295691   8.697  10.956  11.130 -2.8066  0.7863 -1.1013
62881SOL     OW95692   9.864   6.087   4.527  0.7084  0.0097  0.3394
62881SOL    HW195693   9.858   5.992   4.538  0.3303  0.0251  0.2980
62881SOL    HW295694   9.775   6.114   4.503  0.8529  0.3518  0.1717
62882SOL     OW95695   6.428   2.534  11.842  0.0080 -0.3755 -0.1712
62882SOL    HW195696   6.487   2.609  11.853 -0.2800 -0.2643  0.6746
62882SOL    HW295697   6.341   2.573  11.829 -0.8359 -0.4539  3.8396
62883SOL     OW95698   7.426  10.776  11.811 -0.4907  0.0308  0.0957
62883SOL    HW195699   7.417  10.813  11.724 -1.9582 -1.2463 -0.3380
62883SOL    HW295700   7.411  10.849  11.870 -1.6776  0.4808 -0.7320
62884SOL     OW95701   1.064   5.850   4.680 -0.2557  0.1955 -0.5808
62884SOL    HW195702   1.121   5.801   4.738 -1.3666  0.4957  0.8039
62884SOL    HW295703   1.121   5.876   4.607  1.2340  0.0126  0.4706
62885SOL     OW95704   0.750   4.092   6.607  0.4486  0.1505  0.1571
62885SOL    HW195705   0.812   4.046   6.550  1.0642  1.1357  0.0112
62885SOL    HW295706   0.673   4.106   6.552  1.5676  2.3927 -0.9824
62886SOL     OW95707   5.394   4.285   0.781 -0.0024 -0.2127  0.0423
62886SOL    HW195708   5.423   4.310   0.868  1.0257  3.8254 -1.2736
62886SOL    HW295709   5.315   4.337   0.765  0.0418 -0.5704 -1.5628
62887SOL     OW95710   2.935   5.878   0.062 -0.1746 -0.3028  0.0571
62887SOL    HW195711   3.023   5.871   0.025 -0.4506 -1.5819 -0.3953
62887SOL    HW295712   2.881   5.908  -0.010 -0.2258 -0.1015  0.1779
62888SOL     OW95713   8.087   7.056   8.251  0.0566 -0.1326 -1.0703
62888SOL    HW195714   8.024   7.075   8.182 -1.7135 -2.3867 -0.2020
62888SOL    HW295715   8.149   6.996   8.210  0.1889  0.1274 -1.2513
62889SOL     OW95716   8.517   2.147  11.277 -0.6217  0.6080  0.0163
62889SOL    HW195717   8.539   2.061  11.242 -0.3958  0.4605  0.5128
62889SOL    HW295718   8.445   2.178  11.221 -0.7968  0.0432 -0.0755
62890SOL     OW95719   7.534   2.267   6.733  0.2468  0.1754  0.0288
62890SOL    HW195720   7.556   2.207   6.661  0.7497 -0.3854  0.6375
62890SOL    HW295721   7.448   2.239   6.762  0.9853 -1.0935  1.1257
62891SOL     OW95722  12.290   2.462  12.443 -0.2140  0.1269  0.0108
62891SOL    HW195723  12.209   2.501  12.410 -0.1195 -0.5273 -1.0237
62891SOL    HW295724  12.297   2.378  12.398  0.6850 -0.1443  0.6175
62892SOL     OW95725   9.116   1.006   6.729  0.0099  0.1306 -0.1983
62892SOL    HW195726   9.163   0.950   6.667 -0.0191 -0.4831  0.3194
62892SOL    HW295727   9.102   1.088   6.681  0.8005  0.0008 -0.6767
62893SOL     OW95728   0.379   5.366  12.376 -0.6009 -0.0248 -0.1003
62893SOL    HW195729   0.443   5.297  12.358  1.0093  0.8940  1.7090
62893SOL    HW295730   0.378   5.373  12.471 -2.1312  1.2034 -0.1674
62894SOL     OW95731   2.517  11.222   8.522  0.5070 -0.0636 -0.8312
62894SOL    HW195732   2.600  11.186   8.490  0.6057 -0.3818 -0.2279
62894SOL    HW295733   2.496  11.169   8.598 -0.0774  0.2464 -0.7726
62895SOL     OW95734   4.013   7.843   9.446  0.3614 -0.2865 -0.5129
62895SOL    HW195735   4.002   7.875   9.356 -1.3893  1.3494  0.1932
62895SOL    HW295736   3.933   7.794   9.464 -0.3305  1.1974  0.7730
62896SOL     OW95737   1.966   0.670   8.711  0.5280 -0.1913  0.1512
62896SOL    HW195738   2.025   0.633   8.776 -0.1744 -0.9578  0.3721
62896SOL    HW295739   1.880   0.669   8.753 -0.3768 -2.7798 -1.4772
62897SOL     OW95740  10.444  10.547   1.754 -0.3621  0.1229  0.3172
62897SOL    HW195741  10.464  10.525   1.846 -1.4559 -1.0055  0.3114
62897SOL    HW295742  10.483  10.475   1.704 -2.9382 -1.2876  0.1960
62898SOL     OW95743   2.077   3.534   7.807 -0.0487  0.2950  0.0982
62898SOL    HW195744   2.056   3.523   7.714 -0.0248  0.4732  0.0715
62898SOL    HW295745   2.059   3.626   7.825 -1.4449 -0.0594  0.6314
62899SOL     OW95746   0.651  10.211   3.483  0.3427 -0.4052 -0.1486
62899SOL    HW195747   0.681  10.280   3.424 -0.3425  1.3425  1.4546
62899SOL    HW295748   0.565  10.240   3.512  0.0237 -1.9642  0.5488
62900SOL     OW95749   0.393   8.851  11.678  0.2730 -0.2164  0.2431
62900SOL    HW195750   0.339   8.929  11.670 -0.7304 -0.9275 -0.2573
62900SOL    HW295751   0.356   8.803  11.752  1.2763  0.0644  0.9465
62901SOL     OW95752   6.132  10.529  10.961  0.2474 -0.2322  0.4326
62901SOL    HW195753   6.139  10.614  10.919 -0.9661  1.2119  2.9047
62901SOL    HW295754   6.039  10.521  10.983  0.5815 -1.5343  1.5210
62902SOL     OW95755   9.814   7.878   1.806 -0.0692 -0.2736 -0.3089
62902SOL    HW195756   9.738   7.842   1.759  0.1471  0.2866 -1.1086
62902SOL    HW295757   9.823   7.967   1.772  0.4300 -0.0403  0.4142
62903SOL     OW95758   0.078  10.418   2.472 -0.7154  0.4288  0.3926
62903SOL    HW195759   0.110  10.508   2.478 -0.1829  0.1801  1.6393
62903SOL    HW295760   0.006  10.423   2.409  0.5383  1.3496 -1.0694
62904SOL     OW95761   5.761   6.210   2.910  0.4354  0.2483 -0.5939
62904SOL    HW195762   5.842   6.261   2.922  0.7279 -0.7131  2.6697
62904SOL    HW295763   5.701   6.245   2.977 -1.4385  0.0921 -2.1078
62905SOL     OW95764   9.245   4.548   3.621 -0.1551  0.1244 -0.3973
62905SOL    HW195765   9.219   4.498   3.698 -0.3730 -0.7718 -1.0374
62905SOL    HW295766   9.218   4.494   3.546 -0.9590  1.4652 -1.1295
62906SOL     OW95767   3.675   8.484  11.793  0.2462 -0.5380  0.0369
62906SOL    HW195768   3.748   8.444  11.744 -1.3352 -2.2477 -1.0675
62906SOL    HW295769   3.708   8.570  11.819  3.0205 -1.6400  0.5162
62907SOL     OW95770   2.019   7.892   5.726  0.0980  0.3902  0.4283
62907SOL    HW195771   1.927   7.910   5.748  0.2302  0.9352  0.5404
62907SOL    HW295772   2.055   7.854   5.806  0.2592  1.2227  0.7553
62908SOL     OW95773   0.391   9.120   5.474 -0.0492 -0.0884  0.3814
62908SOL    HW195774   0.335   9.043   5.488 -2.0740  1.2540  0.1269
62908SOL    HW295775   0.379   9.172   5.554  1.0663  0.1088  0.4294
62909SOL     OW95776   3.661   9.837   0.702  0.3679 -0.1491 -0.0516
62909SOL    HW195777   3.658   9.804   0.613  0.0396  2.8594 -1.2631
62909SOL    HW295778   3.626   9.926   0.697  2.0275  0.8278  2.7388
62910SOL     OW95779  11.602   3.146   4.150  0.5428  0.6787 -0.0877
62910SOL    HW195780  11.577   3.223   4.099 -0.1770 -0.6685 -1.8736
62910SOL    HW295781  11.696   3.136   4.134  0.6457  1.1605  0.1699
62911SOL     OW95782   2.855  12.398  10.121 -0.4892 -0.3923 -0.9344
62911SOL    HW195783   2.891  12.429  10.038 -1.7120  2.0407 -0.6504
62911SOL    HW295784   2.763  12.425  10.119 -1.0080 -1.8379  0.5105
62912SOL     OW95785   3.026   1.510   8.559  0.5478  0.0878  0.3830
62912SOL    HW195786   3.072   1.495   8.476 -0.0473  0.4044 -0.0187
62912SOL    HW295787   2.946   1.457   8.552  1.0574 -0.8230  1.2682
62913SOL     OW95788   8.087   5.149   2.191 -0.0496 -0.7418  0.3895
62913SOL    HW195789   8.030   5.219   2.223 -1.9440 -0.4599 -3.0975
62913SOL    HW295790   8.170   5.192   2.171 -1.5854  1.0550 -2.9652
62914SOL     OW95791   7.174   2.159   3.273 -0.5227  0.6219  0.8179
62914SOL    HW195792   7.181   2.139   3.367  0.5725  0.9086  0.8053
62914SOL    HW295793   7.255   2.124   3.235 -0.0844  2.1547  0.2797
62915SOL     OW95794   8.417   6.668  12.504 -0.7105 -0.2513  0.1297
62915SOL    HW195795   8.363   6.629  12.435 -0.4179 -0.2501 -0.1034
62915SOL    HW295796   8.447   6.593  12.556 -0.0653 -0.3609 -0.3791
62916SOL     OW95797   0.140   3.912   5.555  0.4189  0.1835 -0.8617
62916SOL    HW195798   0.164   3.984   5.613 -1.1378  0.1677 -0.1545
62916SOL    HW295799   0.048   3.927   5.533  0.1370 -1.4060 -0.9344
62917SOL     OW95800   3.267  11.521  11.051 -0.2549 -0.3897 -0.1275
62917SOL    HW195801   3.286  11.475  11.132 -0.2904 -1.0184 -0.4686
62917SOL    HW295802   3.196  11.581  11.073 -1.2404 -1.5761 -0.0289
62918SOL     OW95803  12.039   3.067   2.533  0.0968 -0.3240  0.1397
62918SOL    HW195804  12.067   2.989   2.486 -0.7545 -1.0265  0.7602
62918SOL    HW295805  12.107   3.082   2.598  0.3604 -0.4337 -0.1092
62919SOL     OW95806   3.706  10.391  12.543  0.0651 -0.5073 -0.3619
62919SOL    HW195807   3.705  10.485  12.526  0.9407 -0.4690 -0.2256
62919SOL    HW295808   3.634  10.377  12.604  0.8465  0.3127  0.7863
62920SOL     OW95809   7.640  11.762   6.089 -0.3476 -0.6817  0.2565
62920SOL    HW195810   7.720  11.744   6.040 -0.0498  1.6801 -0.2754
62920SOL    HW295811   7.572  11.772   6.022  0.0240  2.3889  0.1690
62921SOL     OW95812   2.769   1.659   8.834  0.3006 -0.4192 -0.1046
62921SOL    HW195813   2.751   1.570   8.803 -0.4126 -0.3322  0.0293
62921SOL    HW295814   2.775   1.651   8.929 -1.8209 -0.0410  0.1278
62922SOL     OW95815   5.410   5.059   1.417  0.0186 -0.0143 -0.4535
62922SOL    HW195816   5.427   5.050   1.510  1.6587  1.7125 -0.5390
62922SOL    HW295817   5.345   5.129   1.410  1.7459  1.6450 -0.6631
62923SOL     OW95818   0.494   6.850  12.048  0.5279 -0.4028 -0.6524
62923SOL    HW195819   0.452   6.910  12.110  0.6884 -0.7514 -0.2029
62923SOL    HW295820   0.428   6.782  12.033 -0.1192  0.4850 -2.0803
62924SOL     OW95821   5.619   2.347   4.079 -0.2068  0.5533  0.0714
62924SOL    HW195822   5.693   2.291   4.104 -0.8241 -0.2856  0.0800
62924SOL    HW295823   5.547   2.317   4.134 -0.9349  0.3395 -0.9618
62925SOL     OW95824   2.735   4.198   0.350 -0.5126 -0.0329 -0.3843
62925SOL    HW195825   2.738   4.292   0.370 -0.7621 -0.2834  0.9257
62925SOL    HW295826   2.795   4.188   0.276  1.9339  0.7284  1.3547
62926SOL     OW95827   8.323   2.814  10.058  0.7085 -0.8705  0.1596
62926SOL    HW195828   8.254   2.774  10.006  1.0703 -1.8864  0.4378
62926SOL    HW295829   8.295   2.803  10.149  0.2991  0.4852  0.2178
62927SOL     OW95830   9.550   4.771   5.295 -0.0806  0.4049  0.5680
62927SOL    HW195831   9.552   4.705   5.226  0.5983 -0.7665  1.6672
62927SOL    HW295832   9.504   4.846   5.255  2.5018  0.7938 -2.0286
62928SOL     OW95833  12.329   9.170   8.156  0.1502 -0.1866 -0.1708
62928SOL    HW195834  12.363   9.135   8.239 -0.3113  0.5638  0.3521
62928SOL    HW295835  12.379   9.250   8.141  1.1969 -1.0296 -1.3563
62929SOL     OW95836   3.574   3.251   2.355  0.4198  0.3038  0.2857
62929SOL    HW195837   3.622   3.334   2.357  1.5097 -0.2074 -1.7532
62929SOL    HW295838   3.532   3.250   2.269  1.5050 -1.8115 -0.2926
62930SOL     OW95839   5.464   1.123   6.322  0.0362 -0.5359  0.1976
62930SOL    HW195840   5.415   1.048   6.287 -0.3128 -0.8343  1.2961
62930SOL    HW295841   5.555   1.105   6.297 -0.1843 -0.8122 -0.4287
62931SOL     OW95842   6.405   1.884   9.677  0.4205  0.3757 -0.6362
62931SOL    HW195843   6.442   1.844   9.756 -1.1619 -0.2413 -0.1609
62931SOL    HW295844   6.463   1.855   9.607  0.7016 -0.7745  0.0400
62932SOL     OW95845   3.554   3.380   0.639  0.6016 -0.4356  0.1145
62932SOL    HW195846   3.598   3.328   0.707 -0.8330 -2.5609 -0.5010
62932SOL    HW295847   3.461   3.370   0.657  0.1676  3.5257  1.0601
62933SOL     OW95848   3.142   6.077   0.177 -0.2257 -0.3168 -1.0136
62933SOL    HW195849   3.062   6.025   0.188 -0.3614  0.3297  1.9286
62933SOL    HW295850   3.213   6.014   0.193 -0.3531  0.0223  1.1826
62934SOL     OW95851   3.522  10.862   2.164  0.2206  0.1762  0.2192
62934SOL    HW195852   3.580  10.842   2.237  0.8028  1.0174  0.0047
62934SOL    HW295853   3.579  10.903   2.098 -0.5630  0.8187 -0.0788
62935SOL     OW95854   5.924   7.521   2.512  0.0497  0.4852 -0.5667
62935SOL    HW195855   5.868   7.503   2.588 -0.8549  1.0243 -1.0788
62935SOL    HW295856   5.967   7.437   2.493 -1.0835 -0.1294 -0.5402
62936SOL     OW95857   2.648   3.832   9.631  0.1392  0.0236 -0.0730
62936SOL    HW195858   2.621   3.881   9.709  1.7993  0.9015 -0.0101
62936SOL    HW295859   2.603   3.748   9.639 -0.7705  0.5935  1.1370
62937SOL     OW95860   2.621   9.049  11.347  0.5181  0.5511  0.0902
62937SOL    HW195861   2.565   9.117  11.384 -0.6598 -0.3476  0.0220
62937SOL    HW295862   2.587   8.967  11.383  0.6995 -0.1623 -1.2776
62938SOL     OW95863   0.358   2.896   5.339 -0.4621 -0.0096 -0.4483
62938SOL    HW195864   0.315   2.810   5.338  1.7345 -1.1786  0.1211
62938SOL    HW295865   0.431   2.887   5.278 -0.2668  1.5123 -0.4731
62939SOL     OW95866   1.088   5.701   4.120  0.3812  0.2301 -0.0184
62939SOL    HW195867   1.009   5.740   4.081 -0.0693 -0.9373 -0.3168
62939SOL    HW295868   1.054   5.638   4.183  1.0737 -0.3656 -0.2336
62940SOL     OW95869  10.935   7.596   6.698 -0.4775  0.5396  0.3395
62940SOL    HW195870  10.989   7.672   6.717  0.3654 -0.7454  3.9631
62940SOL    HW295871  10.994   7.534   6.656 -1.0235  1.5477 -2.0832
62941SOL     OW95872   8.804  11.696   6.129  0.5143 -0.4749 -0.4863
62941SOL    HW195873   8.764  11.609   6.132  3.0552 -1.7224  1.9866
62941SOL    HW295874   8.783  11.735   6.214  1.8575  0.1094 -0.4032
62942SOL     OW95875   0.042  12.173   8.971  0.3003 -0.4647 -0.5846
62942SOL    HW195876   0.107  12.127   9.024 -0.0947  0.4296  0.7055
62942SOL    HW295877   0.035  12.260   9.011 -2.8335 -1.0371  0.2985
62943SOL     OW95878   1.096   5.296   8.595 -0.2537  0.3187 -0.9342
62943SOL    HW195879   1.131   5.374   8.637  0.0524  0.2389 -1.0389
62943SOL    HW295880   1.031   5.262   8.657  1.8783 -1.1536  0.6038
62944SOL     OW95881   2.690   1.979  12.185  0.2029  0.4451 -0.4799
62944SOL    HW195882   2.634   1.988  12.262 -1.1059 -1.8652 -1.0958
62944SOL    HW295883   2.652   1.907  12.135  1.5179  1.3151 -2.8859
62945SOL     OW95884   9.571  12.443  12.237  0.4960 -0.0049  0.3963
62945SOL    HW195885   9.590  12.477  12.149 -0.0099 -1.1846 -0.1926
62945SOL    HW295886   9.628  12.493  12.295 -1.0711  2.7192 -0.2531
62946SOL     OW95887  12.134   1.245   1.919  0.1439 -0.4932  0.4529
62946SOL    HW195888  12.204   1.310   1.907  0.0575 -0.8450 -3.0118
62946SOL    HW295889  12.181   1.163   1.933  0.2923 -0.1339  2.2673
62947SOL     OW95890   3.890   8.087   9.604 -0.0318 -0.4745 -0.0078
62947SOL    HW195891   3.847   8.003   9.621 -0.0659 -0.3187  0.6959
62947SOL    HW295892   3.983   8.070   9.619 -0.1094 -0.2257  0.8006
62948SOL     OW95893   3.537   6.089   7.609 -0.9380  0.1761 -0.1276
62948SOL    HW195894   3.501   6.177   7.603 -0.5234  0.3204 -0.4898
62948SOL    HW295895   3.629   6.098   7.584 -1.6448 -0.8930 -3.5724
62949SOL     OW95896   4.189   2.680   3.826 -0.2436  0.8107  0.3098
62949SOL    HW195897   4.275   2.651   3.795 -0.3642  0.9481 -0.1625
62949SOL    HW295898   4.175   2.764   3.783 -1.1024  0.2641 -0.5005
62950SOL     OW95899  11.616   1.563   0.103  0.3870  0.0419  0.0648
62950SOL    HW195900  11.561   1.502   0.054  0.0270  1.1846 -0.9833
62950SOL    HW295901  11.556   1.608   0.162 -0.3325  2.8084 -2.5349
62951SOL     OW95902   8.083   7.438   9.781  0.1353 -0.0445  0.0007
62951SOL    HW195903   8.005   7.441   9.726 -0.7129 -2.4191  0.9358
62951SOL    HW295904   8.055   7.476   9.864 -0.0663 -0.9369  0.3508
62952SOL     OW95905   5.898   1.772   5.222 -0.1579  0.2836  0.1620
62952SOL    HW195906   5.904   1.681   5.249  1.0508  0.3570  0.1945
62952SOL    HW295907   5.943   1.774   5.137 -1.6632  0.5413 -0.6786
62953SOL     OW95908   1.439  11.155   8.206  0.0212  0.3828  0.2051
62953SOL    HW195909   1.419  11.106   8.127  0.7880 -2.5660  1.7103
62953SOL    HW295910   1.534  11.148   8.216 -0.0490  0.7501  1.3532
62954SOL     OW95911   1.358   4.633  10.560 -0.7948 -0.2544 -0.7090
62954SOL    HW195912   1.300   4.641  10.636  0.9893 -3.1264  1.1135
62954SOL    HW295913   1.434   4.687  10.583 -0.2644 -1.1085 -0.4172
62955SOL     OW95914  12.374   0.240   3.898 -0.2811 -0.1606  0.1460
62955SOL    HW195915  12.397   0.188   3.975 -0.2737 -0.3278  0.0297
62955SOL    HW295916  12.386   0.331   3.927  0.5548 -0.2403  0.0782
62956SOL     OW95917   7.035  10.287   3.970 -0.2256  0.1165  0.0177
62956SOL    HW195918   7.070  10.260   4.055  0.9740 -0.7458 -0.7037
62956SOL    HW295919   6.962  10.345   3.991  0.4047  0.3897  1.6226
62957SOL     OW95920  10.289   9.940   5.584 -0.3403 -0.1997 -0.0878
62957SOL    HW195921  10.314   9.931   5.492  0.9266 -0.9912  0.3053
62957SOL    HW295922  10.245   9.858   5.605 -0.8637  0.0873 -0.0494
62958SOL     OW95923   2.381   3.261  10.109 -0.2126 -0.1157 -0.1402
62958SOL    HW195924   2.433   3.192  10.068 -0.4183  0.1729 -0.9083
62958SOL    HW295925   2.332   3.217  10.178 -0.4240 -0.7625 -0.6935
62959SOL     OW95926   4.955   7.786   6.181  0.3843  0.1203  0.3444
62959SOL    HW195927   5.012   7.779   6.104  0.4377  0.2391  0.3738
62959SOL    HW295928   4.922   7.876   6.180 -1.6653 -0.5778 -0.9757
62960SOL     OW95929   6.297   8.770   6.440 -0.0073 -0.7204  0.3894
62960SOL    HW195930   6.322   8.767   6.532  1.6100  0.5588  0.0405
62960SOL    HW295931   6.366   8.822   6.398 -0.7853 -1.1430 -1.5187
62961SOL     OW95932  11.903   6.448   2.920 -0.1040 -0.8150  0.1390
62961SOL    HW195933  11.919   6.420   2.830 -1.2014  1.4887 -0.8651
62961SOL    HW295934  11.918   6.543   2.919 -2.4626 -0.3175  1.7571
62962SOL     OW95935   6.316  11.412   4.313 -0.0278 -0.1868  0.8171
62962SOL    HW195936   6.332  11.385   4.403  2.1188 -0.0213  0.5326
62962SOL    HW295937   6.356  11.498   4.306 -2.0640  0.7694  0.2408
62963SOL     OW95938   8.459   0.526   5.157  0.5479 -0.5892 -0.0645
62963SOL    HW195939   8.482   0.600   5.101 -1.5530  0.0714 -0.1552
62963SOL    HW295940   8.463   0.561   5.246 -0.1268 -0.4455 -0.0864
62964SOL     OW95941   2.749  10.860   7.115  0.1632  0.6187  0.3166
62964SOL    HW195942   2.689  10.813   7.057  3.0110 -2.1246 -0.6821
62964SOL    HW295943   2.756  10.947   7.076 -1.5836  0.3915 -0.6424
62965SOL     OW95944  12.345   4.461   1.413 -0.0546 -0.0706 -0.6723
62965SOL    HW195945  12.340   4.524   1.486  0.2550  1.6009 -2.0285
62965SOL    HW295946  12.346   4.375   1.456  2.7208  0.8653  1.4724
62966SOL     OW95947   1.492  11.837  12.169 -0.1688  0.3913  0.4932
62966SOL    HW195948   1.533  11.753  12.189 -1.1320 -0.4343 -0.9068
62966SOL    HW295949   1.559  11.902  12.194  1.6203 -0.8607 -0.7921
62967SOL     OW95950  12.178   3.106   0.895 -0.2336  0.2318 -0.3200
62967SOL    HW195951  12.231   3.059   0.959  1.2155  0.9179 -0.9897
62967SOL    HW295952  12.141   3.180   0.944  0.0062  0.1517 -0.0159
62968SOL     OW95953   5.500  10.698   4.759 -0.1895 -0.4922  0.5220
62968SOL    HW195954   5.411  10.722   4.785 -0.5226 -0.3898 -0.6715
62968SOL    HW295955   5.517  10.751   4.681  1.1153 -0.1281  1.0289
62969SOL     OW95956   0.185   8.651   2.861 -0.7648  0.0764  0.2032
62969SOL    HW195957   0.215   8.712   2.928  1.0145  0.1472 -0.5984
62969SOL    HW295958   0.092   8.640   2.878 -0.5057  0.6307  2.2512
62970SOL     OW95959  10.428   9.330   8.704  0.3030  0.0735  0.1300
62970SOL    HW195960  10.508   9.377   8.679  1.8269 -2.1016  0.5430
62970SOL    HW295961  10.451   9.288   8.787 -0.5523 -2.1845 -0.7040
62971SOL     OW95962   8.735  10.391   6.229 -0.1824  0.7917 -0.7082
62971SOL    HW195963   8.753  10.310   6.278 -0.3840  1.1682  0.0013
62971SOL    HW295964   8.821  10.423   6.203 -0.1011  0.3477 -0.9979
62972SOL     OW95965   1.489   6.736   2.446 -0.4119 -0.6572  0.4024
62972SOL    HW195966   1.531   6.822   2.457 -1.3910  0.1699 -1.7923
62972SOL    HW295967   1.557   6.673   2.469  1.1319  0.6868 -0.2662
62973SOL     OW95968  10.829  12.429   2.378 -0.2859 -0.0528 -0.2922
62973SOL    HW195969  10.914  12.387   2.366 -1.4515 -2.5608 -0.3963
62973SOL    HW295970  10.779  12.406   2.300 -1.1235  1.2672 -0.1751
62974SOL     OW95971  10.959   9.989   0.027  0.4994  0.0445  0.3898
62974SOL    HW195972  11.025  10.009  -0.039 -0.9740  0.2389 -1.0837
62974SOL    HW295973  10.910  10.070   0.038  1.0122  0.1601  2.1252
62975SOL     OW95974   8.100   6.378  12.005 -0.2267  0.0232  0.6973
62975SOL    HW195975   8.063   6.455  11.962 -1.7173 -1.3594 -0.6028
62975SOL    HW295976   8.194   6.382  11.984 -0.4985  0.7882 -0.4764
62976SOL     OW95977   1.967   0.889  10.227  0.2527 -0.6636 -0.1613
62976SOL    HW195978   2.033   0.827  10.196  1.0291 -0.9094  1.8016
62976SOL    HW295979   1.886   0.838  10.232  0.0618 -0.5642 -1.8464
62977SOL     OW95980   0.657   5.095   5.819 -0.4167 -0.0482  0.7225
62977SOL    HW195981   0.683   5.113   5.729  2.7931 -0.9513  1.3583
62977SOL    HW295982   0.634   5.181   5.854  0.9180  0.7407 -0.2297
62978SOL     OW95983   3.008   9.851   3.359 -0.1175 -0.3318 -0.5834
62978SOL    HW195984   2.987   9.935   3.399 -0.6608 -0.0871 -1.3563
62978SOL    HW295985   2.947   9.789   3.399 -0.5039 -0.1313 -0.8563
62979SOL     OW95986   1.456  11.321   2.472  0.2272  0.6277 -0.2889
62979SOL    HW195987   1.518  11.248   2.478 -0.9182 -0.3953 -0.4634
62979SOL    HW295988   1.475  11.361   2.387  1.1760  0.8600  0.0082
62980SOL     OW95989  11.922  10.772   0.635  0.2207 -0.0471 -0.3272
62980SOL    HW195990  11.929  10.854   0.585 -1.0070  1.0343  1.2043
62980SOL    HW295991  11.863  10.792   0.707  0.5708 -2.0619  0.5917
62981SOL     OW95992  11.298   8.543   6.428 -0.3732  0.0430  0.4069
62981SOL    HW195993  11.231   8.579   6.369  0.1396 -0.2819 -0.3905
62981SOL    HW295994  11.377   8.538   6.374  0.1114 -0.2421  1.1349
62982SOL     OW95995   2.718   9.921  11.163  0.1749 -0.3275 -0.2500
62982SOL    HW195996   2.623   9.921  11.163  0.1693 -0.8130 -0.3863
62982SOL    HW295997   2.741   9.857  11.231  0.4064 -0.0923 -0.1033
62983SOL     OW95998   4.791   2.352   6.062  0.1758  0.4647  0.2406
62983SOL    HW195999   4.746   2.269   6.051  0.2643  0.4831 -0.2652
62983SOL    HW296000   4.786   2.370   6.157 -0.9591  0.5095  0.1902
62984SOL     OW96001  11.502   8.986   2.304  0.1974  0.0063 -0.7290
62984SOL    HW196002  11.427   9.043   2.292 -0.5904 -0.7896  0.2846
62984SOL    HW296003  11.578   9.043   2.289 -0.5276  1.4850  0.8358
62985SOL     OW96004   5.660   0.525   3.564 -0.5418 -0.0003 -0.4225
62985SOL    HW196005   5.706   0.558   3.487 -0.4305  0.8325 -0.0132
62985SOL    HW296006   5.723   0.533   3.635 -1.2740  1.0871  0.1266
62986SOL     OW96007   0.503   6.067   0.625 -0.3082 -0.1280 -0.3478
62986SOL    HW196008   0.583   6.053   0.574  0.6248  0.9155  0.7778
62986SOL    HW296009   0.487   5.982   0.666  1.0765  0.0146  0.5685
62987SOL     OW96010  11.777   7.809   6.545  0.2462 -0.6198 -0.4818
62987SOL    HW196011  11.791   7.819   6.640 -0.7103 -1.8267 -0.1856
62987SOL    HW296012  11.709   7.874   6.524  1.3840  0.5613 -0.6181
62988SOL     OW96013   5.218   4.370  10.969 -0.2146 -0.1659 -0.2155
62988SOL    HW196014   5.232   4.423  10.891 -0.3095 -0.6632 -0.5720
62988SOL    HW296015   5.270   4.413  11.037  1.3889 -0.7857 -1.0024
62989SOL     OW96016  10.236   4.692   5.482  0.2769 -0.2608 -0.4852
62989SOL    HW196017  10.262   4.602   5.500  0.8178  0.2685  1.7685
62989SOL    HW296018  10.195   4.689   5.396  2.2233 -2.2419 -1.4281
62990SOL     OW96019   0.057   3.370   8.720 -0.2705 -0.1761 -0.4123
62990SOL    HW196020  -0.037   3.382   8.705  0.0110  1.8096 -0.8247
62990SOL    HW296021   0.097   3.375   8.633  0.1586 -2.1755 -0.3861
62991SOL     OW96022   1.149  12.510  11.511 -0.2375 -0.1739 -0.4798
62991SOL    HW196023   1.116  12.589  11.554  0.1664 -0.0251 -0.4423
62991SOL    HW296024   1.221  12.480  11.567  0.1000 -0.1461 -0.8947
62992SOL     OW96025   1.801   1.734   6.155 -0.6173  1.1244 -0.6201
62992SOL    HW196026   1.813   1.655   6.208 -2.5629 -0.3849 -2.2455
62992SOL    HW296027   1.732   1.782   6.199  0.3146  1.7829  0.1687
62993SOL     OW96028   1.243   5.350  11.964 -0.2136 -0.5586 -0.2560
62993SOL    HW196029   1.215   5.431  12.005 -0.1586 -0.3336 -0.6545
62993SOL    HW296030   1.201   5.351  11.878  1.3460  0.0061 -1.0497
62994SOL     OW96031   9.059   8.691   7.341  0.3638  0.3101  0.3858
62994SOL    HW196032   9.128   8.629   7.367 -0.0669 -0.3279  0.0296
62994SOL    HW296033   9.070   8.700   7.246  0.8797  1.3519  0.5254
62995SOL     OW96034  11.979   7.811   7.937 -0.2295  0.5888  0.0179
62995SOL    HW196035  12.058   7.839   7.891 -0.0888 -1.0941 -0.8443
62995SOL    HW296036  11.989   7.846   8.026  0.0990  2.8046 -0.8306
62996SOL     OW96037  11.207   3.412   3.052 -0.0396  0.0443  0.6475
62996SOL    HW196038  11.168   3.488   3.009 -0.6762 -0.4368  0.3519
62996SOL    HW296039  11.267   3.449   3.117  0.3069  0.7811 -0.0827
62997SOL     OW96040   9.359   1.997   1.271  0.0643 -0.4841 -0.1874
62997SOL    HW196041   9.364   2.075   1.325 -0.0671 -0.0611 -0.7804
62997SOL    HW296042   9.338   1.926   1.333  0.0775 -0.0377  0.3324
62998SOL     OW96043   7.243  11.304   8.620 -0.1264  0.1160 -0.3362
62998SOL    HW196044   7.224  11.396   8.598 -0.5114 -0.1236 -1.0541
62998SOL    HW296045   7.324  11.308   8.669  0.5304  0.7488 -1.4218
62999SOL     OW96046  11.784  11.904   6.964 -0.1323 -0.5030  0.4771
62999SOL    HW196047  11.832  11.882   7.044  0.1985  0.5285  0.5713
62999SOL    HW296048  11.762  11.996   6.974  0.0421 -0.3259 -0.6987
63000SOL     OW96049  12.181   6.041   9.629 -0.0146 -0.0419  0.1316
63000SOL    HW196050  12.130   6.092   9.692 -0.6526 -0.4865 -0.0160
63000SOL    HW296051  12.200   5.959   9.674 -1.3884 -0.8018 -0.6077
63001SOL     OW96052   5.821   4.659  11.100 -0.5509 -0.3089 -0.0883
63001SOL    HW196053   5.795   4.750  11.082  1.2725  0.1225 -0.9204
63001SOL    HW296054   5.857   4.628  11.016  0.2287 -1.2786  0.5786
63002SOL     OW96055   0.294   6.361   4.709 -0.0373  0.0503 -0.3064
63002SOL    HW196056   0.265   6.431   4.650 -1.0750 -0.5127 -0.4937
63002SOL    HW296057   0.376   6.393   4.746  0.0000  0.9471 -1.1212
63003SOL     OW96058   0.517   4.402  10.786  0.3899  0.1516 -0.5437
63003SOL    HW196059   0.605   4.389  10.820  0.7777  0.6690 -1.3143
63003SOL    HW296060   0.462   4.410  10.864  0.9550 -0.5564 -0.0553
63004SOL     OW96061   2.579   0.983   7.501  0.3547  0.1193  0.2608
63004SOL    HW196062   2.626   1.012   7.423 -1.0258  1.3299 -0.1634
63004SOL    HW296063   2.496   0.949   7.468 -0.0095  0.0976  1.1549
63005SOL     OW96064   1.742   8.162   7.442  0.3669 -0.3468  0.1733
63005SOL    HW196065   1.803   8.111   7.389 -0.9214 -1.0257 -0.7029
63005SOL    HW296066   1.656   8.144   7.405 -0.1374  2.9948 -0.6422
63006SOL     OW96067   3.586  11.668  11.772  0.5329 -0.4221 -0.8717
63006SOL    HW196068   3.623  11.735  11.715  1.1244 -0.6441 -0.7515
63006SOL    HW296069   3.573  11.712  11.856  2.5427 -0.8813 -0.2673
63007SOL     OW96070  12.314   1.317   5.007  0.2239 -0.1016  0.3524
63007SOL    HW196071  12.326   1.253   4.938 -2.2039 -1.2320  0.8843
63007SOL    HW296072  12.306   1.265   5.087 -1.7848  0.8010  0.7965
63008SOL     OW96073   6.379   3.123   4.893  0.2182 -0.6194 -0.4126
63008SOL    HW196074   6.318   3.106   4.965  0.6731  1.1863  0.4615
63008SOL    HW296075   6.465   3.103   4.928  0.2821 -2.0366 -1.2748
63009SOL     OW96076   4.850   9.874   3.676 -0.5988  0.0520  0.5666
63009SOL    HW196077   4.769   9.924   3.668  0.1112  0.9811 -1.4743
63009SOL    HW296078   4.839   9.802   3.614 -0.1020 -0.1692  0.7313
63010SOL     OW96079   6.520   3.868   7.922  0.1327  0.4499 -0.4025
63010SOL    HW196080   6.452   3.823   7.973  0.9588  0.9596  1.2427
63010SOL    HW296081   6.475   3.897   7.843 -1.2391 -0.3429  0.0372
63011SOL     OW96082   1.526   9.590   0.056 -0.0898 -0.2766 -0.0620
63011SOL    HW196083   1.618   9.577   0.030 -0.1821 -1.4734  0.1707
63011SOL    HW296084   1.521   9.554   0.144 -0.5250  0.8952  0.4168
63012SOL     OW96085  12.412   4.360   7.425  0.7220 -0.1158 -0.2323
63012SOL    HW196086  12.341   4.342   7.364  1.8362 -2.0618 -1.0534
63012SOL    HW296087  12.389   4.444   7.465 -3.1701 -1.6966  1.2735
63013SOL     OW96088   9.043   0.623   1.541 -0.5905  0.2431  0.9321
63013SOL    HW196089   8.976   0.564   1.575 -0.7325 -0.2981 -0.2090
63013SOL    HW296090   9.081   0.575   1.467 -0.0283  1.1910  0.5871
63014SOL     OW96091  11.173   1.534   5.930 -0.0777  0.0705  0.0049
63014SOL    HW196092  11.130   1.588   5.864  0.6885 -0.4545 -0.9424
63014SOL    HW296093  11.162   1.583   6.012  0.1271  1.3881 -0.7377
63015SOL     OW96094   3.170   2.481   2.726  0.0193  0.0124  0.5048
63015SOL    HW196095   3.106   2.527   2.672 -0.7913  1.4462  2.5623
63015SOL    HW296096   3.123   2.460   2.806  1.5767 -0.7369  1.2579
63016SOL     OW96097  11.312   6.106   9.646  0.2505  0.3679 -0.2626
63016SOL    HW196098  11.306   6.186   9.593  1.5298  1.0209  0.5196
63016SOL    HW296099  11.231   6.105   9.698  0.4619  1.4641  0.1123
63017SOL     OW96100   1.094   5.412   7.407  0.0991 -0.2637 -0.0630
63017SOL    HW196101   1.064   5.325   7.382  2.1933 -1.4747  1.3195
63017SOL    HW296102   1.014   5.465   7.411 -1.4522 -2.5231  0.6435
63018SOL     OW96103   7.868  11.195  11.944 -0.0117 -0.7371  0.0022
63018SOL    HW196104   7.925  11.272  11.937 -2.4133  1.2865  0.8901
63018SOL    HW296105   7.818  11.195  11.863  0.5198 -1.8830 -0.3389
63019SOL     OW96106   5.144  10.550   3.840  0.1833  0.8343 -0.3347
63019SOL    HW196107   5.089  10.488   3.887 -0.0789  0.1064 -1.5799
63019SOL    HW296108   5.181  10.605   3.909  1.5156 -1.5264  0.9819
63020SOL     OW96109   4.149   8.450   4.255  0.1919  0.3991 -0.2576
63020SOL    HW196110   4.063   8.485   4.275  0.7014  1.4884  0.1216
63020SOL    HW296111   4.150   8.363   4.294 -1.2062 -0.1886 -1.4585
63021SOL     OW96112   7.292  10.984   6.369 -0.0464  0.1362  0.6940
63021SOL    HW196113   7.274  10.992   6.276  0.4048 -0.2111  0.5739
63021SOL    HW296114   7.386  11.002   6.378  0.6633 -2.8820  0.6299
63022SOL     OW96115  10.846   2.745   2.008 -0.0963 -0.0348  0.3032
63022SOL    HW196116  10.752   2.747   1.989 -0.1297  3.0147  0.2274
63022SOL    HW296117  10.851   2.730   2.103 -0.5939 -1.0359  0.1843
63023SOL     OW96118   6.427   0.810   6.402 -0.1860  0.1906  0.3963
63023SOL    HW196119   6.467   0.822   6.488 -0.5253 -0.8428  0.7124
63023SOL    HW296120   6.419   0.898   6.366 -0.5406  0.6811  1.6558
63024SOL     OW96121   8.988   6.240   0.973  0.1270  0.4724  0.7668
63024SOL    HW196122   9.057   6.178   0.997 -1.3110 -1.4632  0.1859
63024SOL    HW296123   8.996   6.248   0.878 -1.3413 -1.0101  0.4653
63025SOL     OW96124   1.815   9.471   5.512  0.5076  0.1429  0.4067
63025SOL    HW196125   1.835   9.444   5.601 -1.2843 -0.8360  0.5641
63025SOL    HW296126   1.842   9.396   5.458 -0.0936 -0.0279  0.3357
63026SOL     OW96127   0.790   6.999   5.684  0.6495  0.8207  0.3603
63026SOL    HW196128   0.875   6.956   5.689  1.1836  1.8727  0.5460
63026SOL    HW296129   0.768   7.021   5.774  0.2256  0.6482  0.3037
63027SOL     OW96130   3.797   9.848   7.852 -0.0929  0.1037  0.9170
63027SOL    HW196131   3.772   9.844   7.759 -0.8515 -1.1461  1.1463
63027SOL    HW296132   3.882   9.805   7.856 -0.3075 -0.3312  0.8689
63028SOL     OW96133   6.832   6.105   0.994  0.0369  0.0964 -0.3428
63028SOL    HW196134   6.897   6.039   1.016 -0.6045 -0.0340  1.2442
63028SOL    HW296135   6.818   6.154   1.075 -1.9420  0.0231 -0.5820
63029SOL     OW96136   5.661   1.461   6.588  1.3099  0.2385 -0.3338
63029SOL    HW196137   5.690   1.427   6.503  0.5745  1.4227 -1.1049
63029SOL    HW296138   5.588   1.520   6.566 -0.6885 -1.4272  1.3534
63030SOL     OW96139   2.178   1.158   7.679 -0.2568  0.0896 -0.2091
63030SOL    HW196140   2.156   1.066   7.688  1.8450 -0.6720 -2.1605
63030SOL    HW296141   2.143   1.184   7.594  1.1945  0.4100 -0.7387
63031SOL     OW96142   3.055   0.504   8.126 -0.6019  0.1916 -0.5313
63031SOL    HW196143   3.090   0.472   8.043 -2.0218  0.6858 -1.3787
63031SOL    HW296144   3.053   0.427   8.183  0.0581 -0.2405 -1.0774
63032SOL     OW96145   6.893   9.902  12.305 -0.3107  0.0113 -0.2258
63032SOL    HW196146   6.812   9.854  12.290 -0.5999  0.5365 -0.3750
63032SOL    HW296147   6.883   9.983  12.254 -0.7068  1.1836  1.6102
63033SOL     OW96148   8.563  11.515   4.096 -0.5690  0.4680  0.0182
63033SOL    HW196149   8.604  11.458   4.030  0.3963 -0.6966  1.5458
63033SOL    HW296150   8.581  11.471   4.179 -0.2062  2.7826  1.2424
63034SOL     OW96151  11.006   6.747   0.890  0.4324 -0.0211  0.4153
63034SOL    HW196152  10.957   6.779   0.965  0.3434  0.1687  0.2774
63034SOL    HW296153  10.974   6.658   0.876 -1.2312  0.6991 -0.8010
63035SOL     OW96154   2.887   6.553  11.124 -0.0187  0.2051 -0.0850
63035SOL    HW196155   2.971   6.597  11.114 -0.1490  0.4934  0.1167
63035SOL    HW296156   2.870   6.553  11.218 -0.0225 -0.2680 -0.0820
63036SOL     OW96157   8.243   6.701   7.384 -0.1859 -0.0507  0.1178
63036SOL    HW196158   8.258   6.636   7.452 -1.6251  0.2897  0.7875
63036SOL    HW296159   8.313   6.684   7.320  0.9491 -0.6436  1.4450
63037SOL     OW96160   4.140  11.771  11.873 -0.1033 -0.3375  0.0974
63037SOL    HW196161   4.187  11.848  11.842 -0.4347  0.0164  0.4760
63037SOL    HW296162   4.051  11.801  11.888 -0.0993 -0.6589  0.7798
63038SOL     OW96163   0.148   5.094   3.610  0.2258 -0.5336 -0.3773
63038SOL    HW196164   0.156   5.044   3.691  1.3427 -1.6572 -1.1464
63038SOL    HW296165   0.143   5.028   3.541  2.1055  0.3688 -1.4534
63039SOL     OW96166   0.804  10.455   9.492  0.2126  0.6447 -0.2037
63039SOL    HW196167   0.813  10.437   9.586  1.1088  1.1149 -0.1872
63039SOL    HW296168   0.887  10.425   9.455  0.1812  1.2028 -0.7287
63040SOL     OW96169   5.499   3.497   1.860  0.5220  0.0665 -0.1325
63040SOL    HW196170   5.434   3.482   1.929 -0.8076 -0.7542 -1.5000
63040SOL    HW296171   5.562   3.425   1.871 -0.5748 -1.0321 -0.7358
63041SOL     OW96172  12.251   9.812   8.286 -0.2602 -0.2497 -0.2972
63041SOL    HW196173  12.322   9.753   8.311  1.3170  1.9418  0.7639
63041SOL    HW296174  12.277   9.845   8.199 -1.7381 -1.9185 -1.4362
63042SOL     OW96175   1.358   0.046   1.168  0.0320  0.0208  0.4142
63042SOL    HW196176   1.407  -0.009   1.229 -0.8746 -2.3420 -0.8405
63042SOL    HW296177   1.320  -0.016   1.106 -1.8840  2.0238 -0.5436
63043SOL     OW96178   0.977   6.068   7.117 -0.6554 -0.2084 -0.4469
63043SOL    HW196179   1.007   6.150   7.078 -1.6909  1.2135  1.5885
63043SOL    HW296180   0.883   6.065   7.097 -0.9384 -0.0980  0.8201
63044SOL     OW96181   9.071   6.597   6.550 -0.3869 -0.0944 -0.1209
63044SOL    HW196182   9.165   6.582   6.560 -0.2238  1.0085  0.2269
63044SOL    HW296183   9.060   6.691   6.569 -1.7573 -0.5045  1.3453
63045SOL     OW96184   0.376  10.300   8.241  0.4972  0.3813  0.3801
63045SOL    HW196185   0.297  10.307   8.294  1.2835  2.0280  1.4021
63045SOL    HW296186   0.402  10.208   8.248 -0.0692  0.3202  1.9037
63046SOL     OW96187   1.245   0.699   4.190  0.0612 -0.2417 -0.1112
63046SOL    HW196188   1.302   0.745   4.128  0.7543  0.9949  1.3681
63046SOL    HW296189   1.268   0.607   4.179  1.6367  0.1330 -0.2923
63047SOL     OW96190   5.234   5.172   9.009 -0.0452 -0.2454 -0.0235
63047SOL    HW196191   5.211   5.094   9.060 -0.2459 -1.2401 -1.5864
63047SOL    HW296192   5.150   5.213   8.989 -0.2655 -1.6500 -2.2659
63048SOL     OW96193   5.263   2.601   5.966  0.4902 -0.2317  0.3873
63048SOL    HW196194   5.354   2.581   5.941  0.5975 -0.3577  0.8810
63048SOL    HW296195   5.211   2.534   5.923  0.6464 -0.2527  0.2297
63049SOL     OW96196   8.780   4.842  10.016  0.4399  0.2865 -0.0457
63049SOL    HW196197   8.753   4.752  10.036  2.7448 -0.7020 -1.0678
63049SOL    HW296198   8.808   4.877  10.100 -2.3379  0.8484  0.7707
63050SOL     OW96199   0.518  12.308   2.003 -0.5865  0.1534  0.5109
63050SOL    HW196200   0.487  12.368   1.936 -0.1496  0.4887  0.6029
63050SOL    HW296201   0.448  12.243   2.013 -0.2403 -0.4868 -0.9703
63051SOL     OW96202   1.637   6.196   4.462  0.5184  0.0680 -0.2678
63051SOL    HW196203   1.627   6.291   4.457  0.7593  0.1221  0.2125
63051SOL    HW296204   1.681   6.171   4.381  1.3416  0.4848  0.0496
63052SOL     OW96205   5.855   9.047   5.086  0.3242  0.0219 -0.1268
63052SOL    HW196206   5.768   9.080   5.108 -0.4367 -1.7826 -0.2196
63052SOL    HW296207   5.853   8.955   5.112  2.7831  0.3240  1.3994
63053SOL     OW96208   7.065  12.586   4.527 -0.8484  0.0930 -0.3300
63053SOL    HW196209   7.142  12.544   4.489 -0.4291  0.2378  0.3531
63053SOL    HW296210   7.005  12.514   4.546 -1.6710  0.1214 -2.5622
63054SOL     OW96211   1.399   3.326   3.070 -0.2551 -0.1408  0.0601
63054SOL    HW196212   1.344   3.249   3.054  0.8350 -0.9237 -0.1023
63054SOL    HW296213   1.375   3.356   3.157  0.9574 -2.1751  1.1841
63055SOL     OW96214  10.482   8.054   1.479 -0.2461 -0.4407  0.2252
63055SOL    HW196215  10.552   8.074   1.417 -0.3816  0.9905  0.5019
63055SOL    HW296216  10.508   7.970   1.519  0.7763 -0.4369 -0.4114
63056SOL     OW96217   8.307   8.289  11.151  0.1576 -0.5633 -0.5219
63056SOL    HW196218   8.260   8.372  11.145  1.3054  0.1013 -0.5725
63056SOL    HW296219   8.299   8.265  11.244 -0.3757 -0.5200 -0.5525
63057SOL     OW96220   3.045   6.323   6.683 -0.4246 -0.1022 -0.7266
63057SOL    HW196221   3.078   6.360   6.765  2.8845 -1.0943 -1.4742
63057SOL    HW296222   3.008   6.398   6.636 -0.5163  0.8379  0.7730
63058SOL     OW96223   8.990   6.734   1.105  0.2312  0.5942 -0.3619
63058SOL    HW196224   8.943   6.755   1.186 -0.1948 -0.0140 -0.4423
63058SOL    HW296225   9.072   6.693   1.134 -0.4761 -0.7870 -0.2297
63059SOL     OW96226  11.269  10.902   9.892  0.3348 -0.3153 -0.5510
63059SOL    HW196227  11.275  10.968   9.961  0.5402  0.9077 -1.6919
63059SOL    HW296228  11.206  10.839   9.925  0.7994 -0.0311  0.9603
63060SOL     OW96229   2.059   0.325   2.712 -0.0110  0.1356  0.1206
63060SOL    HW196230   1.973   0.283   2.701  0.5311 -0.7868 -0.7604
63060SOL    HW296231   2.044   0.393   2.778 -0.9643 -1.3542  1.5210
63061SOL     OW96232   7.846   3.798   0.483 -0.1361 -0.4590  0.4940
63061SOL    HW196233   7.797   3.785   0.563 -1.1077  3.4301  0.7538
63061SOL    HW296234   7.936   3.814   0.512 -0.5301  1.1705  0.9114
63062SOL     OW96235   1.102   5.540   0.848 -0.0768  0.0714 -0.3612
63062SOL    HW196236   1.019   5.587   0.847  0.5586  1.2631 -1.8900
63062SOL    HW296237   1.146   5.570   0.927 -0.3328  0.8687 -0.5161
63063SOL     OW96238  10.364   0.890   7.321  0.1173 -0.4738 -0.5691
63063SOL    HW196239  10.312   0.905   7.400  0.4402 -1.2590 -0.2007
63063SOL    HW296240  10.401   0.803   7.333  1.6337  0.1177 -0.7502
63064SOL     OW96241   8.459   0.408  11.229 -0.2469 -0.1989 -0.2483
63064SOL    HW196242   8.466   0.369  11.316 -0.5906 -2.1161 -1.0268
63064SOL    HW296243   8.444   0.501  11.245 -1.8500 -0.7502  1.7691
63065SOL     OW96244   3.537   2.502   9.197 -0.0023 -0.0850  0.7113
63065SOL    HW196245   3.505   2.480   9.109  1.0545 -1.1481  0.5590
63065SOL    HW296246   3.528   2.597   9.203  0.9159  0.1380 -0.9691
63066SOL     OW96247   1.209  10.138   5.835 -0.3418 -0.3415 -0.1793
63066SOL    HW196248   1.114  10.137   5.825 -0.3015 -0.4425 -0.5562
63066SOL    HW296249   1.225  10.203   5.903 -0.6543  0.0141 -0.4422
63067SOL     OW96250   6.740   7.814   8.025 -0.7479  0.6742 -0.1348
63067SOL    HW196251   6.826   7.772   8.024 -0.8216  0.4975  0.6996
63067SOL    HW296252   6.680   7.745   8.050 -1.0602  0.9326 -0.1695
63068SOL     OW96253   6.870   3.410   8.533 -0.3347  0.1002  0.0966
63068SOL    HW196254   6.897   3.351   8.463  0.3567  1.3717 -0.7370
63068SOL    HW296255   6.852   3.493   8.489  0.1319  0.9346  1.4307
63069SOL     OW96256   7.341  10.011   9.677 -0.0885  0.0387  0.2270
63069SOL    HW196257   7.308   9.977   9.760  0.6578 -0.9110  0.1580
63069SOL    HW296258   7.434  10.028   9.693 -0.1791  0.8642 -0.1082
63070SOL     OW96259   5.101   8.459  11.950 -0.4223  0.2341 -0.4170
63070SOL    HW196260   5.070   8.525  12.011  1.4807 -0.9212  1.9719
63070SOL    HW296261   5.139   8.509  11.878 -0.2952  1.7170  0.6284
63071SOL     OW96262   7.755   2.822   5.631 -0.6814  0.3985  0.4297
63071SOL    HW196263   7.742   2.816   5.536  1.1283 -0.3012  0.1746
63071SOL    HW296264   7.699   2.895   5.658 -1.0450  0.7839 -1.2177
63072SOL     OW96265   3.315   3.467  11.201 -0.1715 -0.5742  0.7193
63072SOL    HW196266   3.225   3.436  11.206  0.3069 -1.8958  1.7308
63072SOL    HW296267   3.368   3.391  11.223  1.1236  0.5892  1.7998
63073SOL     OW96268   1.034   8.048   9.892  0.7818 -0.2901  0.5495
63073SOL    HW196269   1.047   8.132   9.848  0.9425 -0.0604  1.0304
63073SOL    HW296270   1.047   8.067   9.985 -2.1743 -0.1935  1.0300
63074SOL     OW96271   4.333   2.114   6.294  0.1969 -0.1263 -0.0725
63074SOL    HW196272   4.360   2.159   6.213 -0.2466 -1.3659 -0.9398
63074SOL    HW296273   4.412   2.070   6.324  0.4277  0.5485  0.3229
63075SOL     OW96274  10.236   1.659   5.322 -0.6900 -0.5310 -0.0778
63075SOL    HW196275  10.166   1.689   5.381  0.1948 -0.4321  0.9569
63075SOL    HW296276  10.316   1.667   5.374  0.3367  0.9206 -1.7452
63076SOL     OW96277   5.566   5.241   4.707  0.7295  0.7509  0.1503
63076SOL    HW196278   5.586   5.270   4.796 -0.2964  0.3682  0.5179
63076SOL    HW296279   5.609   5.155   4.700  3.9607  2.2881 -1.0150
63077SOL     OW96280   0.475   0.793   5.670  0.4902  0.0715  0.0967
63077SOL    HW196281   0.497   0.858   5.604 -0.4560 -0.1276 -0.4318
63077SOL    HW296282   0.519   0.713   5.641  1.4430  0.3923  0.6113
63078SOL     OW96283  10.229   1.969   4.851  0.0309 -0.1791 -0.0537
63078SOL    HW196284  10.187   1.902   4.905 -1.1280  0.0494 -0.6484
63078SOL    HW296285  10.162   2.036   4.839  0.6457  0.3187 -0.8211
63079SOL     OW96286  10.211   6.120  10.323 -0.3291  0.2515 -0.4241
63079SOL    HW196287  10.192   6.173  10.246  0.4158  0.1327 -0.6991
63079SOL    HW296288  10.258   6.178  10.382  0.0078  0.0566 -0.4968
63080SOL     OW96289   5.169  10.853   6.158  0.4108 -0.7501 -0.2245
63080SOL    HW196290   5.149  10.773   6.110  0.0459 -1.2405  0.7129
63080SOL    HW296291   5.209  10.822   6.239 -0.2532 -0.0132  0.3947
63081SOL     OW96292  10.246   9.320   8.019 -0.1176  0.3083 -0.5145
63081SOL    HW196293  10.169   9.286   8.065 -0.7185 -0.5568 -2.1096
63081SOL    HW296294  10.252   9.269   7.939  2.4927 -0.0797 -0.1919
63082SOL     OW96295   9.014   5.910   7.802 -0.3521 -0.1118 -0.4436
63082SOL    HW196296   9.028   5.997   7.765 -0.7455 -0.3146 -1.0980
63082SOL    HW296297   8.929   5.883   7.767 -2.0396  0.7294  2.6785
63083SOL     OW96298   7.610   1.049  11.990 -0.0688 -0.0879 -0.2747
63083SOL    HW196299   7.701   1.025  11.974 -0.1409 -0.2003 -0.5284
63083SOL    HW296300   7.602   1.138  11.953 -0.2372 -0.3505 -0.8862
63084SOL     OW96301   7.679   7.987   6.156 -0.1728 -0.1673 -0.2023
63084SOL    HW196302   7.641   7.964   6.072 -0.4900 -1.3583  0.2483
63084SOL    HW296303   7.683   8.082   6.156 -0.7171 -0.1392 -1.3189
63085SOL     OW96304   6.751   1.088   0.434 -0.7156 -0.2293  0.3269
63085SOL    HW196305   6.809   1.065   0.507 -1.4628 -1.5615  0.5269
63085SOL    HW296306   6.678   1.027   0.442 -1.1576  0.0931 -1.1152
63086SOL     OW96307   4.716   0.214   9.313 -0.6881  0.4975 -0.1309
63086SOL    HW196308   4.690   0.161   9.238 -0.4865 -0.4661  0.4655
63086SOL    HW296309   4.634   0.233   9.358 -0.5935 -0.9359  0.6988
63087SOL     OW96310   4.139   6.146   1.838  0.0041 -0.1826  0.0365
63087SOL    HW196311   4.212   6.104   1.883  1.9305  0.9700 -1.8085
63087SOL    HW296312   4.099   6.076   1.785  1.1272 -0.4114 -0.5375
63088SOL     OW96313   0.942   1.513   0.373  0.8488  0.0048 -0.3332
63088SOL    HW196314   0.907   1.484   0.458  0.6674  1.9712  0.3287
63088SOL    HW296315   0.875   1.487   0.310  1.0643 -1.6370  0.0792
63089SOL     OW96316  11.373   8.499   0.980 -0.5182 -0.2173  0.5056
63089SOL    HW196317  11.292   8.485   0.931  0.0302 -1.5618 -0.0532
63089SOL    HW296318  11.437   8.442   0.938  0.9386  1.3580  0.4785
63090SOL     OW96319  11.609   8.640   9.061  0.0289  0.5112 -0.0189
63090SOL    HW196320  11.541   8.701   9.031 -0.6075 -0.4643 -0.5916
63090SOL    HW296321  11.611   8.572   8.995  1.1334  0.1874  0.3277
63091SOL     OW96322   6.382   8.242  10.441 -0.2537 -0.3194  0.1849
63091SOL    HW196323   6.289   8.234  10.419 -0.5297  0.1231  1.1343
63091SOL    HW296324   6.386   8.222  10.535  0.4844  0.5414  0.3482
63092SOL     OW96325   2.124   3.145   8.394 -0.0064  0.0207 -0.7198
63092SOL    HW196326   2.080   3.211   8.448 -0.2450 -1.2810  0.7479
63092SOL    HW296327   2.059   3.122   8.327 -0.8376 -0.4025  0.2016
63093SOL     OW96328  10.817   7.873  10.524  0.2514  0.4542 -0.7750
63093SOL    HW196329  10.763   7.858  10.446  0.4184  0.7643 -0.9519
63093SOL    HW296330  10.807   7.966  10.542 -2.0402 -0.0554  1.2219
63094SOL     OW96331   7.214   6.395  10.775 -0.3907 -0.1725  0.0396
63094SOL    HW196332   7.195   6.312  10.820  1.0423 -0.9534 -0.7076
63094SOL    HW296333   7.280   6.437  10.830  1.3269 -1.1037 -1.1943
63095SOL     OW96334   0.303   4.518   5.627 -0.6152 -0.4129  0.0313
63095SOL    HW196335   0.275   4.440   5.675 -1.3344  1.2221  2.3894
63095SOL    HW296336   0.382   4.547   5.673 -1.0645  0.9458 -0.0333
63096SOL     OW96337   2.691  11.985   5.594  0.2507 -0.6945 -0.3690
63096SOL    HW196338   2.784  11.979   5.614  0.4587  0.2141 -0.9676
63096SOL    HW296339   2.688  12.027   5.507 -0.7451  1.2028  0.5087
63097SOL     OW96340   3.744   1.926  12.045 -0.2779  0.3790 -0.7500
63097SOL    HW196341   3.838   1.920  12.065 -0.1677  2.9155 -0.1706
63097SOL    HW296342   3.738   1.909  11.951  0.2226 -3.5719 -0.2225
63098SOL     OW96343   2.198   5.173   6.993  0.7230 -0.5274 -0.7553
63098SOL    HW196344   2.197   5.161   6.898 -3.1005 -0.8051 -0.8190
63098SOL    HW296345   2.152   5.256   7.008 -0.5932 -1.4954  0.8985
63099SOL     OW96346   9.721   6.690   7.446  0.1270  0.3772  0.1659
63099SOL    HW196347   9.727   6.779   7.480  2.7629  0.0364  0.8169
63099SOL    HW296348   9.757   6.695   7.358  0.3251 -0.0179  0.2195
63100SOL     OW96349   6.139   0.794   4.334 -0.4847  0.0392  0.3174
63100SOL    HW196350   6.223   0.838   4.322 -0.9001  0.9376  0.6277
63100SOL    HW296351   6.149   0.747   4.417 -0.5027  0.6899  0.6996
63101SOL     OW96352   2.651   1.559  10.654  0.2093  0.1049 -0.0409
63101SOL    HW196353   2.619   1.650  10.654 -0.7373 -0.2108  0.9969
63101SOL    HW296354   2.691   1.548  10.740 -1.9947 -1.2204  0.8949
63102SOL     OW96355   2.615   6.218   1.392 -0.2724 -0.5410 -0.2330
63102SOL    HW196356   2.596   6.189   1.303 -0.3588  3.0940 -1.5332
63102SOL    HW296357   2.710   6.224   1.395 -0.2111 -1.5003  0.2782
63103SOL     OW96358   0.282   1.442   2.177  0.7921  0.5044  0.4538
63103SOL    HW196359   0.223   1.499   2.128  0.8067 -0.1168 -0.2891
63103SOL    HW296360   0.278   1.358   2.132  1.8865  0.3234  0.6749
63104SOL     OW96361   3.411  12.013  10.210 -0.1703 -0.0616  0.0567
63104SOL    HW196362   3.319  12.024  10.233 -0.1824  0.9621 -0.4230
63104SOL    HW296363   3.432  12.090  10.158  1.0260 -0.1708  0.3516
63105SOL     OW96364   8.140   6.537   5.341  0.0518  0.0010  0.7359
63105SOL    HW196365   8.076   6.570   5.405 -1.7036 -1.0464 -0.4002
63105SOL    HW296366   8.220   6.523   5.392 -0.3733  2.0070  2.0775
63106SOL     OW96367   3.203   0.353   7.229  0.3307 -0.2470  0.4236
63106SOL    HW196368   3.279   0.402   7.261 -0.0253 -0.2281  1.2742
63106SOL    HW296369   3.173   0.402   7.152  1.0665 -0.1562  0.1833
63107SOL     OW96370   1.801   6.559   0.328 -0.9257 -0.2044 -0.1804
63107SOL    HW196371   1.895   6.578   0.334 -1.1391  1.4526 -1.4406
63107SOL    HW296372   1.785   6.495   0.398  0.9389  0.2336  0.7110
63108SOL     OW96373  10.372   9.199   2.656 -0.1698 -0.5048  0.4904
63108SOL    HW196374  10.421   9.279   2.639 -0.6659 -0.2086  0.4194
63108SOL    HW296375  10.337   9.212   2.744 -1.7212  0.1452 -0.1848
63109SOL     OW96376  10.800   1.409   4.648 -0.0381  0.1089  0.1407
63109SOL    HW196377  10.828   1.494   4.613  2.3386 -0.4930  0.4032
63109SOL    HW296378  10.711   1.425   4.680 -0.4173  1.9612 -1.6017
63110SOL     OW96379   0.349   3.573   5.640  0.2692 -0.1465  0.1427
63110SOL    HW196380   0.430   3.522   5.643  0.3787  0.0412  2.8327
63110SOL    HW296381   0.377   3.663   5.629  0.2579 -0.2735 -1.1130
63111SOL     OW96382   4.451   8.005  11.774  0.0431  0.2628 -0.0290
63111SOL    HW196383   4.456   8.078  11.836  1.9050  0.5456 -0.4685
63111SOL    HW296384   4.483   8.041  11.692 -0.8174 -0.5616 -0.7401
63112SOL     OW96385  12.117   6.960   5.911  0.0615  0.1345 -0.3539
63112SOL    HW196386  12.126   6.905   5.989  1.4683  0.8631  0.0298
63112SOL    HW296387  12.103   6.899   5.839 -1.6995 -0.5320  0.4979
63113SOL     OW96388  10.072   8.693   8.595 -0.1623 -0.2810  0.1407
63113SOL    HW196389   9.986   8.691   8.638 -0.2762 -1.0754 -0.1061
63113SOL    HW296390  10.054   8.668   8.504  0.1422  0.9143 -0.2670
63114SOL     OW96391   6.683   8.531   8.274 -0.1303  0.9692 -0.0896
63114SOL    HW196392   6.748   8.590   8.235  1.3767  0.2758  1.2398
63114SOL    HW296393   6.654   8.577   8.353  1.2322 -0.0954  1.0866
63115SOL     OW96394   5.833   9.514   4.068  0.5601 -0.7629  0.4830
63115SOL    HW196395   5.785   9.570   4.006  3.0127 -0.9655 -1.7584
63115SOL    HW296396   5.814   9.425   4.040  2.5784 -0.8443 -0.8446
63116SOL     OW96397   0.055   5.792   7.457  0.0404  1.0159 -0.0084
63116SOL    HW196398   0.076   5.743   7.536 -2.0301  2.2526  1.4059
63116SOL    HW296399   0.058   5.727   7.387 -1.3287 -0.9008  1.5910
63117SOL     OW96400   8.590  11.344   1.437 -0.3556  0.4464 -0.4575
63117SOL    HW196401   8.577  11.285   1.512 -0.3614  1.6857  0.5506
63117SOL    HW296402   8.528  11.313   1.371 -2.1724  0.8491  0.9796
63118SOL     OW96403   2.234   3.703   0.135  0.7414  0.3496  0.1364
63118SOL    HW196404   2.306   3.703   0.073 -0.0498 -1.9422 -0.8861
63118SOL    HW296405   2.219   3.611   0.156 -1.1854  0.8157  1.1497
63119SOL     OW96406   6.348  10.574   0.277 -0.1944 -0.1750  0.2828
63119SOL    HW196407   6.310  10.514   0.341 -1.0244  0.5938  0.5187
63119SOL    HW296408   6.335  10.661   0.314  2.5673  0.1225  0.8053
63120SOL     OW96409   9.761   5.674  11.567  0.0140  0.0222  0.0021
63120SOL    HW196410   9.717   5.591  11.586 -0.0352 -0.1349 -0.7669
63120SOL    HW296411   9.761   5.680  11.471  0.2049  0.8109  0.0449
63121SOL     OW96412  11.515   6.092   6.234 -0.1722  0.1268 -0.3672
63121SOL    HW196413  11.439   6.087   6.177  0.5814 -1.4026 -1.2898
63121SOL    HW296414  11.566   6.166   6.201 -0.9232  0.7547 -0.1429
63122SOL     OW96415   4.343   7.809   2.097  0.2001 -0.1102 -0.0620
63122SOL    HW196416   4.381   7.749   2.034 -0.9025 -0.4053 -0.4620
63122SOL    HW296417   4.361   7.769   2.182  0.4128 -0.4483 -0.2641
63123SOL     OW96418   7.464  12.415   8.105 -0.3233 -0.1803  0.1870
63123SOL    HW196419   7.547  12.426   8.058 -1.4196 -0.8321 -2.0518
63123SOL    HW296420   7.485  12.435   8.196  1.6851  2.3315 -0.7209
63124SOL     OW96421   6.542  11.389   1.180 -0.3722 -0.1566  0.1435
63124SOL    HW196422   6.473  11.415   1.119 -0.0610  0.1687 -0.0729
63124SOL    HW296423   6.561  11.469   1.230 -0.2979 -0.2992  0.3430
63125SOL     OW96424   8.491   5.044   6.754  0.3789 -0.0877 -0.5238
63125SOL    HW196425   8.584   5.028   6.771  0.6589  1.3822 -0.5365
63125SOL    HW296426   8.466   4.976   6.691  1.6599 -0.0266 -1.1389
63126SOL     OW96427   3.775   1.972   6.864 -0.0013  0.1159  0.1933
63126SOL    HW196428   3.866   1.945   6.855 -0.2990 -0.9492  0.1809
63126SOL    HW296429   3.725   1.895   6.836 -0.9094  0.3285  1.1874
63127SOL     OW96430   9.142  11.951   2.814  0.4022 -0.0296 -0.0305
63127SOL    HW196431   9.064  12.001   2.789 -1.4203 -1.2321  2.7793
63127SOL    HW296432   9.122  11.862   2.786  0.5061 -0.4386  1.1593
63128SOL     OW96433   2.602   1.285   5.813  0.1277  0.0286  0.1068
63128SOL    HW196434   2.618   1.203   5.859  0.1556  1.2198  2.3708
63128SOL    HW296435   2.676   1.340   5.836 -1.4593  1.7671  1.3842
63129SOL     OW96436   9.910   7.236   4.963 -0.1445 -0.1187 -0.3459
63129SOL    HW196437   9.825   7.233   5.007  0.9055  0.0160  1.8761
63129SOL    HW296438   9.911   7.160   4.906 -1.9366  0.1692 -0.8175
63130SOL     OW96439   9.130   4.358   7.426  0.1203  0.5786  0.2312
63130SOL    HW196440   9.154   4.335   7.515 -0.2819  1.4407  0.5760
63130SOL    HW296441   9.183   4.300   7.371  0.0745 -0.2397  1.0252
63131SOL     OW96442   0.212   8.287   7.758  0.0710  0.2889 -0.4317
63131SOL    HW196443   0.168   8.274   7.842  1.6425  0.3400  0.4581
63131SOL    HW296444   0.233   8.380   7.756 -0.2746  0.3540 -1.0478
63132SOL     OW96445   0.876   2.840   9.646  0.0875  0.2486  0.1031
63132SOL    HW196446   0.959   2.794   9.658  0.7126  1.0398 -1.0007
63132SOL    HW296447   0.890   2.895   9.568 -1.0338  1.3678  0.6571
63133SOL     OW96448  10.521   4.813  12.557 -0.3097 -0.3591  0.1518
63133SOL    HW196449  10.516   4.767  12.473  4.9486 -0.9234 -0.1846
63133SOL    HW296450  10.532   4.744  12.622  2.5452  0.0837  0.2780
63134SOL     OW96451   1.833   4.765   1.768 -0.2680 -0.5384  0.2173
63134SOL    HW196452   1.819   4.780   1.675 -1.0553  0.9819  0.5524
63134SOL    HW296453   1.924   4.735   1.774 -0.0881 -0.2781 -0.9944
63135SOL     OW96454   6.863   0.521   7.653 -0.4319  0.8535  0.3525
63135SOL    HW196455   6.788   0.503   7.709 -0.1276 -0.7032  0.3052
63135SOL    HW296456   6.937   0.532   7.713 -0.2606 -0.0235  0.3256
63136SOL     OW96457  10.459   3.845   6.213 -0.2479 -0.2514 -0.4415
63136SOL    HW196458  10.444   3.786   6.140 -2.1597 -0.1604 -0.1709
63136SOL    HW296459  10.510   3.917   6.176 -0.1636 -0.7791 -1.3838
63137SOL     OW96460   0.505   0.186   1.577  0.2756  0.0138  0.1133
63137SOL    HW196461   0.514   0.172   1.671  0.2007 -3.5766 -0.2978
63137SOL    HW296462   0.590   0.164   1.540 -0.0393  0.1996 -0.7585
63138SOL     OW96463   7.135   6.076  10.397  0.1442 -0.1175 -0.4944
63138SOL    HW196464   7.216   6.121  10.376  0.8854 -1.7090 -1.2233
63138SOL    HW296465   7.069   6.118  10.342  0.8577 -0.0480 -1.3188
63139SOL     OW96466   5.440  10.546   8.500 -0.0771 -0.8253  0.3719
63139SOL    HW196467   5.433  10.639   8.525  0.2221 -0.8225  0.4384
63139SOL    HW296468   5.477  10.503   8.576  0.1616 -0.9361  0.1937
63140SOL     OW96469   8.399   2.018   2.468  0.9048 -0.2071  0.4059
63140SOL    HW196470   8.339   2.082   2.430  0.1008 -1.6796 -0.8766
63140SOL    HW296471   8.343   1.946   2.496  2.0336 -1.5161 -0.6184
63141SOL     OW96472   0.635   9.153   5.937 -0.4009  0.0669 -0.4242
63141SOL    HW196473   0.625   9.154   6.033 -1.2810  2.7924 -0.4765
63141SOL    HW296474   0.563   9.206   5.905  0.1125 -0.4785 -2.6109
63142SOL     OW96475   7.049  10.635   9.379 -0.0426  0.1326 -0.6778
63142SOL    HW196476   7.023  10.666   9.466  0.3200  1.0881 -0.8955
63142SOL    HW296477   7.114  10.567   9.396  0.5546  0.8090 -0.2009
63143SOL     OW96478   5.361   0.139   9.440 -0.2464  0.0474  0.0269
63143SOL    HW196479   5.451   0.172   9.434 -0.3492  0.1082 -1.5034
63143SOL    HW296480   5.307   0.218   9.441 -0.3043  0.0049  0.7289
63144SOL     OW96481   5.402   4.230   2.047 -0.2584  0.3252 -0.2601
63144SOL    HW196482   5.371   4.140   2.033 -0.2731  0.3624 -0.4821
63144SOL    HW296483   5.353   4.262   2.122  1.1944 -0.5539  1.1205
63145SOL     OW96484   9.563  11.287   4.149  0.0820  0.2059  0.2458
63145SOL    HW196485   9.473  11.265   4.123  0.0561  0.6854 -0.0706
63145SOL    HW296486   9.600  11.332   4.074  0.5905  0.0198  0.3802
63146SOL     OW96487   5.594   4.242   1.009 -0.4015  0.3194  0.4511
63146SOL    HW196488   5.673   4.241   1.063 -0.3006  1.6525  0.3668
63146SOL    HW296489   5.522   4.241   1.072 -0.3058  0.3736  0.5624
63147SOL     OW96490  11.368   7.564   0.786 -0.1402 -0.4284  0.4844
63147SOL    HW196491  11.282   7.524   0.772 -0.7201  1.0881 -0.6015
63147SOL    HW296492  11.348   7.648   0.828  0.7378  0.3206 -0.5639
63148SOL     OW96493   9.452   4.193   3.144 -0.2148  1.0468  0.2191
63148SOL    HW196494   9.509   4.218   3.217 -0.7574  0.1741  0.9653
63148SOL    HW296495   9.483   4.246   3.070  2.1074  0.0341  0.3670
63149SOL     OW96496   2.110   5.431   9.758 -0.1516 -0.2340 -0.7278
63149SOL    HW196497   2.088   5.478   9.839 -1.4094 -0.4228 -0.9416
63149SOL    HW296498   2.206   5.423   9.760 -0.1040  0.4275  0.3673
63150SOL     OW96499   2.001   9.981   7.621 -0.1876 -0.0851 -0.3381
63150SOL    HW196500   1.915  10.005   7.656  0.2721  0.5485  0.3867
63150SOL    HW296501   2.062  10.038   7.668  0.4682  0.6744 -2.0566
63151SOL     OW96502   9.217  11.818   1.863 -0.0634 -0.4963  0.5271
63151SOL    HW196503   9.166  11.820   1.782 -0.4669  1.4132  0.7927
63151SOL    HW296504   9.152  11.831   1.932  0.5406  0.1002  0.9978
63152SOL     OW96505   3.226   3.865   7.951  0.3616  0.5210  0.3393
63152SOL    HW196506   3.289   3.935   7.938  0.7804  0.4022  1.5624
63152SOL    HW296507   3.210   3.865   8.046 -0.6650 -0.1488  0.1840
63153SOL     OW96508  10.351   7.983  10.958  0.0867 -0.3426 -0.0935
63153SOL    HW196509  10.281   7.962  11.020  0.3497 -1.2677 -0.0967
63153SOL    HW296510  10.397   8.056  10.998 -1.3078  0.7769 -0.4331
63154SOL     OW96511   3.341   2.108  11.181 -0.9522 -0.3916  0.1476
63154SOL    HW196512   3.272   2.085  11.244 -1.3916  0.0961 -0.1490
63154SOL    HW296513   3.309   2.187  11.138  0.2137  0.4115  0.6692
63155SOL     OW96514   6.312  11.527   3.600  0.1226 -0.3841  0.6848
63155SOL    HW196515   6.333  11.496   3.689  0.4775 -0.5438  0.5462
63155SOL    HW296516   6.317  11.622   3.606 -0.6319 -0.3632  1.0305
63156SOL     OW96517   6.858  11.503   3.802  0.1000  0.1167 -0.2901
63156SOL    HW196518   6.829  11.584   3.844 -0.1867  0.4215 -1.0610
63156SOL    HW296519   6.840  11.517   3.709 -2.0406 -1.7011 -0.2246
63157SOL     OW96520   4.721   6.127   7.093  0.0256 -0.7176 -0.2102
63157SOL    HW196521   4.628   6.148   7.083  0.2093 -0.0602 -0.6143
63157SOL    HW296522   4.731   6.104   7.185 -0.9297 -2.8157 -0.5778
63158SOL     OW96523   6.412   9.379   2.943 -0.6575  0.1080 -0.2371
63158SOL    HW196524   6.477   9.415   2.883 -1.5562  0.3911 -1.0651
63158SOL    HW296525   6.464   9.347   3.017  0.7319 -2.0179 -1.9654
63159SOL     OW96526  11.763  11.802   0.567  0.1671  0.2129  0.7018
63159SOL    HW196527  11.783  11.890   0.599 -2.1906  0.7588  0.8402
63159SOL    HW296528  11.799  11.801   0.478 -0.4704  1.6390  0.3903
63160SOL     OW96529   4.886  10.303   2.851 -0.9087  0.0912 -0.0209
63160SOL    HW196530   4.930  10.352   2.920  0.3409 -2.3302  1.0440
63160SOL    HW296531   4.810  10.264   2.893  0.2946 -2.0600  0.3566
63161SOL     OW96532   0.794   5.415   2.423  0.7189  0.1539  0.2696
63161SOL    HW196533   0.773   5.337   2.475  0.6704 -0.6860 -0.9810
63161SOL    HW296534   0.739   5.408   2.345  0.5451  1.5734  0.2326
63162SOL     OW96535   7.679   3.262  10.182 -0.5808  0.2031  0.3565
63162SOL    HW196536   7.630   3.206  10.122 -1.4693 -0.2820  1.5147
63162SOL    HW296537   7.754   3.209  10.208  1.3399  1.3418 -2.3022
63163SOL     OW96538   4.761   1.705  10.622  0.5195  0.1149  0.5979
63163SOL    HW196539   4.738   1.613  10.614 -1.0617  0.3882  1.5937
63163SOL    HW296540   4.693   1.751  10.573  0.8411  0.7838  0.7743
63164SOL     OW96541   1.269   4.575   7.880 -0.1338 -0.2320 -0.4583
63164SOL    HW196542   1.235   4.662   7.858 -2.4062 -1.0391 -0.4316
63164SOL    HW296543   1.306   4.585   7.968  0.9514  0.9936 -1.0159
63165SOL     OW96544   6.852   2.992   8.852 -0.5224 -0.0717 -0.6658
63165SOL    HW196545   6.938   2.951   8.841 -1.1198 -1.1518 -1.4816
63165SOL    HW296546   6.822   3.008   8.763 -1.5762 -0.6112 -0.4259
63166SOL     OW96547  11.750  11.396   2.527  0.2564  0.6033 -0.0313
63166SOL    HW196548  11.733  11.368   2.617 -0.6666 -0.3261 -0.4732
63166SOL    HW296549  11.840  11.429   2.529 -0.2260  1.9224  1.5132
63167SOL     OW96550   0.517   9.837   2.600 -0.1582  0.7057  0.0380
63167SOL    HW196551   0.449   9.776   2.572 -0.9024  1.3453  0.4187
63167SOL    HW296552   0.597   9.784   2.602 -1.1481 -0.8561  2.5055
63168SOL     OW96553   8.042   1.459   4.546 -0.3971 -0.1370 -0.2424
63168SOL    HW196554   7.984   1.524   4.507 -1.3824 -0.9053 -0.0970
63168SOL    HW296555   8.018   1.377   4.503  0.9267 -0.3996 -0.5318
63169SOL     OW96556   5.334   2.788   0.269  0.0254  0.0666  0.4011
63169SOL    HW196557   5.245   2.765   0.241  0.7385 -0.4459 -1.6868
63169SOL    HW296558   5.328   2.879   0.295 -0.8295  0.5994 -1.4458
63170SOL     OW96559   8.143   6.528   0.524 -1.1121 -0.6740  0.0570
63170SOL    HW196560   8.092   6.542   0.444  0.6191 -0.9300 -1.1565
63170SOL    HW296561   8.209   6.462   0.499 -0.1648 -0.3277  1.5261
63171SOL     OW96562   6.393  10.574   2.847  0.3776  0.2707  0.3809
63171SOL    HW196563   6.320  10.554   2.789  0.9749  0.6946 -0.5348
63171SOL    HW296564   6.374  10.663   2.879  0.6517  0.5093 -0.1122
63172SOL     OW96565   5.684  10.345   3.988  0.2237 -1.2008 -0.0160
63172SOL    HW196566   5.615  10.286   4.017  0.4921  0.0779  3.7002
63172SOL    HW296567   5.648  10.389   3.911 -1.8431 -2.7473 -0.0007
63173SOL     OW96568  10.273   3.531   5.068 -0.0174  0.2862 -0.2958
63173SOL    HW196569  10.367   3.516   5.071 -0.3524 -2.0490  0.9938
63173SOL    HW296570  10.241   3.474   4.999 -0.6234  0.2015  0.0459
63174SOL     OW96571  12.286   9.840   9.730  0.1924  0.1128 -0.3541
63174SOL    HW196572  12.336   9.765   9.763  2.0666  1.2263 -0.5241
63174SOL    HW296573  12.207   9.841   9.783  1.2145 -0.6104  1.2685
63175SOL     OW96574   3.098   9.055   8.179 -0.0627 -0.5888 -0.1096
63175SOL    HW196575   3.106   8.980   8.120  0.1489 -0.6019 -0.0624
63175SOL    HW296576   3.029   9.109   8.139  0.2554 -0.4721 -0.5061
63176SOL     OW96577   3.767  10.327   5.252 -0.7703 -0.4049  0.3823
63176SOL    HW196578   3.744  10.234   5.255 -1.2453 -0.4530 -2.4355
63176SOL    HW296579   3.709  10.368   5.317 -1.6985 -1.8615  0.5093
63177SOL     OW96580   9.022   8.438   7.903 -0.0397  0.2291 -0.3199
63177SOL    HW196581   9.005   8.398   7.818 -2.5138 -1.5705  0.8917
63177SOL    HW296582   9.111   8.472   7.897  0.4872 -1.3835 -3.0054
63178SOL     OW96583   2.967   5.575   0.588 -1.5502  0.1974  0.1591
63178SOL    HW196584   3.027   5.644   0.616  0.3001  0.6495 -4.1934
63178SOL    HW296585   2.880   5.611   0.604 -0.6509  2.4166  0.4458
63179SOL     OW96586   9.579   6.462   7.181  0.0551  0.2824  0.1363
63179SOL    HW196587   9.515   6.521   7.142 -0.7669 -0.6921 -0.0264
63179SOL    HW296588   9.532   6.380   7.193  1.1837 -0.3589  0.3179
63180SOL     OW96589   6.003   3.467   5.237 -0.3086 -0.6347 -0.3376
63180SOL    HW196590   6.001   3.456   5.142 -0.9507 -0.9693 -0.2954
63180SOL    HW296591   5.999   3.561   5.250 -0.4180 -0.5946 -0.6424
63181SOL     OW96592   5.312   4.398   7.836  0.1768  0.6366 -0.1435
63181SOL    HW196593   5.263   4.375   7.757  0.5724  0.4310 -0.3345
63181SOL    HW296594   5.300   4.492   7.845 -1.2462  0.4095  0.4996
63182SOL     OW96595  10.610   0.996  10.503  0.0356  0.1117  0.4622
63182SOL    HW196596  10.680   0.996  10.438  1.1635 -0.2994  1.6482
63182SOL    HW296597  10.536   1.039  10.458  1.3120  1.4023 -0.5069
63183SOL     OW96598   3.078   1.922   1.199  0.0247 -0.1735 -0.3184
63183SOL    HW196599   3.054   1.958   1.284 -1.3856 -2.2501  0.2051
63183SOL    HW296600   3.160   1.875   1.215  0.1538  0.0618 -0.2840
63184SOL     OW96601   8.182   1.532   5.469 -0.0018  0.3773  0.1153
63184SOL    HW196602   8.268   1.519   5.428  0.2296 -0.8133  0.9178
63184SOL    HW296603   8.188   1.485   5.552 -1.0216  1.3343  0.7547
63185SOL     OW96604   0.600   2.094   6.433 -0.6406  0.5280 -0.1118
63185SOL    HW196605   0.526   2.122   6.486 -1.9975 -0.8367 -1.1842
63185SOL    HW296606   0.676   2.102   6.491 -1.8478  0.3835  1.5593
63186SOL     OW96607   9.672   8.310  12.357 -0.1554  0.3685 -0.4618
63186SOL    HW196608   9.617   8.388  12.363  0.6547  1.0212 -1.1991
63186SOL    HW296609   9.623   8.242  12.404 -1.3241  1.0685 -0.6261
63187SOL     OW96610   5.640   6.948   2.629 -0.1723  0.3749 -0.2951
63187SOL    HW196611   5.736   6.945   2.629  0.0065  1.2160  3.3938
63187SOL    HW296612   5.620   7.040   2.611 -0.1876  0.5364  0.5216
63188SOL     OW96613   0.951  11.380  12.470  0.2098  0.3394  0.0860
63188SOL    HW196614   0.929  11.305  12.525 -1.1017  0.7290  0.1273
63188SOL    HW296615   1.035  11.356  12.430 -0.7526 -1.7234 -0.8776
63189SOL     OW96616   2.749   3.668   7.416  0.8222 -0.0415  0.7430
63189SOL    HW196617   2.827   3.634   7.371 -1.1303 -1.7590 -1.6010
63189SOL    HW296618   2.728   3.601   7.481 -0.9782 -1.7813 -1.4701
63190SOL     OW96619   5.579   0.755   6.271  0.3383 -0.3943  0.0167
63190SOL    HW196620   5.525   0.814   6.219  1.3502  0.2748 -0.3249
63190SOL    HW296621   5.669   0.774   6.243  1.1061  1.0426  2.9845
63191SOL     OW96622   1.031   9.594   6.614 -0.1174  0.3451 -0.0670
63191SOL    HW196623   0.994   9.520   6.662  2.5355 -0.9084  0.2064
63191SOL    HW296624   1.024   9.668   6.674 -2.1223  0.1909 -0.0559
63192SOL     OW96625   3.165   8.796   6.378 -0.5581 -0.3079  0.2407
63192SOL    HW196626   3.142   8.820   6.468 -1.3946  0.0740 -0.0648
63192SOL    HW296627   3.148   8.876   6.327 -1.0034 -0.8130 -0.4102
63193SOL     OW96628   5.934   1.504   5.298  0.6813  0.1885 -0.1943
63193SOL    HW196629   6.018   1.474   5.263  1.1857  0.6408  0.6059
63193SOL    HW296630   5.934   1.476   5.389 -0.6257 -0.9838 -0.5243
63194SOL     OW96631   8.829  11.774   0.384 -0.2002 -0.1438  0.1891
63194SOL    HW196632   8.864  11.687   0.366 -0.0143 -0.5624  2.2675
63194SOL    HW296633   8.805  11.771   0.477  0.2560  2.1807  0.4321
63195SOL     OW96634  11.039   7.287   7.077  0.3066 -0.9267 -0.7968
63195SOL    HW196635  10.987   7.283   6.997  0.5228 -1.5959 -0.9153
63195SOL    HW296636  10.974   7.283   7.148 -0.0554  1.7905 -0.8731
63196SOL     OW96637   4.557   2.943   3.776  0.9880 -0.2585  0.0250
63196SOL    HW196638   4.561   3.025   3.726  1.0804  1.4846  2.6940
63196SOL    HW296639   4.649   2.921   3.793  0.9857  1.2089  2.3927
63197SOL     OW96640   9.801   6.859   2.501  0.5116 -0.2922 -0.6971
63197SOL    HW196641   9.713   6.895   2.504 -0.1663 -1.9015 -0.0339
63197SOL    HW296642   9.801   6.801   2.424  0.8549 -0.5840 -0.4815
63198SOL     OW96643   9.444   1.113   1.247  0.0832  0.4880  0.1524
63198SOL    HW196644   9.473   1.034   1.202  0.5573  1.2052 -0.8433
63198SOL    HW296645   9.512   1.178   1.228 -0.3994  1.1908  0.7690
63199SOL     OW96646   8.454  12.349   1.188  0.1950 -0.6741  0.1720
63199SOL    HW196647   8.374  12.396   1.164  1.4355  1.5885  0.2141
63199SOL    HW296648   8.482  12.307   1.106 -0.4512 -0.5834 -0.1014
63200SOL     OW96649  10.561   2.687   3.817  0.0371 -0.2506 -0.3273
63200SOL    HW196650  10.561   2.609   3.873 -1.5116 -0.9038 -1.1892
63200SOL    HW296651  10.653   2.714   3.813  0.2561 -0.4147  2.1699
63201SOL     OW96652   3.738   7.651  11.284  0.4525  0.5992  0.2405
63201SOL    HW196653   3.791   7.711  11.231  1.7986 -0.4615  0.3389
63201SOL    HW296654   3.648   7.682  11.271  0.8879  1.3237 -1.4082
63202SOL     OW96655   7.022   8.217   8.263 -0.4289 -0.0050  0.2448
63202SOL    HW196656   7.037   8.217   8.357 -2.6909  0.8420  0.6720
63202SOL    HW296657   7.087   8.279   8.229 -0.7579  1.0764  1.4988
63203SOL     OW96658   4.635  12.331   1.651  0.1462  0.0431  0.0105
63203SOL    HW196659   4.554  12.378   1.633  0.2756  0.7214  1.0897
63203SOL    HW296660   4.608  12.249   1.691 -0.1022 -1.0682 -2.3200
63204SOL     OW96661   2.332   9.139  11.364 -0.2690  0.3509  0.3537
63204SOL    HW196662   2.308   9.154  11.455  0.4303 -0.7540  0.7522
63204SOL    HW296663   2.290   9.055  11.342  1.2370 -0.4476  0.3530
63205SOL     OW96664   5.189  10.562   6.502  0.1201 -0.0539 -0.0828
63205SOL    HW196665   5.272  10.517   6.518  0.0608  0.1222  0.7553
63205SOL    HW296666   5.148  10.512   6.432 -1.1064 -2.8992  2.4627
63206SOL     OW96667   0.295   1.891   6.563 -0.2307  0.0112  0.3912
63206SOL    HW196668   0.246   1.939   6.629  1.1864  3.3667 -0.7968
63206SOL    HW296669   0.273   1.933   6.480  2.2194 -0.3444 -0.5527
63207SOL     OW96670  10.808   5.671   4.881  0.1312 -0.3815 -0.2081
63207SOL    HW196671  10.818   5.622   4.799  0.6656 -0.6645  0.0168
63207SOL    HW296672  10.858   5.751   4.868  0.4409 -0.5477 -0.0712
63208SOL     OW96673   1.179   4.639   7.176  0.2033 -0.0198 -0.0482
63208SOL    HW196674   1.230   4.585   7.236  0.8762 -1.0143 -1.4458
63208SOL    HW296675   1.101   4.587   7.157  0.6176 -0.3028 -1.0229
63209SOL     OW96676   5.951  10.951   3.852 -0.2954  0.0440 -0.1062
63209SOL    HW196677   5.891  10.928   3.923 -3.4138  1.0752 -2.1760
63209SOL    HW296678   5.898  10.942   3.773  2.2077  1.4841 -2.0725
63210SOL     OW96679  11.369   5.785   8.495  0.1429  0.2041  0.1952
63210SOL    HW196680  11.356   5.837   8.415  1.9506  0.6881  0.1583
63210SOL    HW296681  11.294   5.726   8.498 -0.0603  0.2781 -1.7853
63211SOL     OW96682  10.554  10.210   5.217  0.1090 -0.3602  0.4861
63211SOL    HW196683  10.627  10.252   5.173 -0.3683 -0.0676 -0.0432
63211SOL    HW296684  10.552  10.121   5.181  0.5081 -0.5271  0.8703
63212SOL     OW96685  11.339   2.545   2.663  0.2891  0.0479 -0.2281
63212SOL    HW196686  11.376   2.544   2.752  1.0014  1.3130 -0.4797
63212SOL    HW296687  11.301   2.632   2.654 -1.6878 -0.7826 -0.4543
63213SOL     OW96688  11.633   7.992   3.930  0.0878 -0.0540  0.2272
63213SOL    HW196689  11.703   7.928   3.921  0.2357 -0.0091  0.9881
63213SOL    HW296690  11.651   8.058   3.863 -0.1491 -0.8710 -0.6597
63214SOL     OW96691  10.230  10.571   2.400  0.0832  0.0458  0.2056
63214SOL    HW196692  10.325  10.580   2.392  0.0442 -0.6145 -1.5220
63214SOL    HW296693  10.204  10.524   2.321 -1.3347 -2.4934  2.0189
63215SOL     OW96694  11.302   2.298   2.574 -0.2248  0.2945  0.2310
63215SOL    HW196695  11.311   2.389   2.601 -1.3773  1.4650 -2.9523
63215SOL    HW296696  11.208   2.286   2.561  0.0464 -0.9166 -0.7957
63216SOL     OW96697   4.419   1.577   3.331  0.1465 -0.1055  0.4015
63216SOL    HW196698   4.402   1.598   3.423 -1.5217 -0.4742  0.2126
63216SOL    HW296699   4.468   1.495   3.334  0.2379 -0.0374  0.9575
63217SOL     OW96700   9.509   6.953   1.379 -0.0270  0.0848 -0.4463
63217SOL    HW196701   9.527   6.990   1.293 -0.4368  0.1031 -0.5266
63217SOL    HW296702   9.469   6.868   1.362 -0.3159  0.1830 -0.2826
63218SOL     OW96703   7.373   4.693   1.559 -0.2280  0.0372  0.1531
63218SOL    HW196704   7.304   4.687   1.492  1.3951  1.4864 -1.7747
63218SOL    HW296705   7.403   4.603   1.570 -0.2906 -0.1973 -1.3826
63219SOL     OW96706   0.010   3.061  11.727 -0.8421  0.0731  0.2192
63219SOL    HW196707   0.019   3.135  11.787 -2.1845 -0.1567  0.7303
63219SOL    HW296708  -0.065   3.084  11.672 -2.7012 -1.8519  1.8338
63220SOL     OW96709   7.036  10.907   1.333  0.2975 -0.1343  0.5369
63220SOL    HW196710   7.100  10.847   1.295 -0.2206  0.7100 -1.8390
63220SOL    HW296711   7.041  10.891   1.427  2.5313 -1.5131  0.2537
63221SOL     OW96712   9.297   4.698   2.481  0.7173  0.0895 -0.0066
63221SOL    HW196713   9.218   4.654   2.451  0.4844 -0.2720  1.0884
63221SOL    HW296714   9.334   4.639   2.547  0.3895  1.4950  1.5126
63222SOL     OW96715   7.456   0.375   8.300  0.0074 -0.1722  0.2377
63222SOL    HW196716   7.502   0.450   8.262  0.7323 -1.1535 -0.8893
63222SOL    HW296717   7.526   0.318   8.332 -0.4917 -0.8053  0.2133
63223SOL     OW96718   3.137   9.570   0.637  0.4499 -0.1199 -0.0986
63223SOL    HW196719   3.163   9.485   0.601  0.7787 -0.2163  0.3527
63223SOL    HW296720   3.049   9.585   0.602  0.3289 -0.7125 -0.0674
63224SOL     OW96721  12.010   5.501   0.832 -0.1742 -0.3178 -0.3169
63224SOL    HW196722  12.066   5.459   0.897  0.6625  0.2472 -0.6499
63224SOL    HW296723  11.974   5.429   0.780  0.2073 -0.6878 -0.0688
63225SOL     OW96724   4.585  11.400   8.645  0.6423 -0.4509  0.2257
63225SOL    HW196725   4.536  11.318   8.652  0.0395 -0.0952  0.3118
63225SOL    HW296726   4.674  11.377   8.671  0.9164 -1.4595 -1.4244
63226SOL     OW96727   7.622   0.107   1.393  0.0944 -0.2120  0.0200
63226SOL    HW196728   7.529   0.104   1.370 -0.2336  0.2205  1.1706
63226SOL    HW296729   7.668   0.073   1.317 -1.0065 -0.3216 -0.6086
63227SOL     OW96730   5.635   9.854   8.909 -0.2280 -0.0881 -0.4218
63227SOL    HW196731   5.715   9.861   8.963 -0.4680  1.4086 -0.2284
63227SOL    HW296732   5.668   9.850   8.819  0.0679  1.1544 -0.3861
63228SOL     OW96733  11.323   5.489   1.368 -0.0202  0.1793  0.3157
63228SOL    HW196734  11.367   5.534   1.441  1.0427 -2.6375  1.5609
63228SOL    HW296735  11.324   5.553   1.297  3.0658  1.5040  1.3589
63229SOL     OW96736   3.668   4.746   7.581  0.5828  0.0964  0.4512
63229SOL    HW196737   3.598   4.703   7.531  0.7510 -1.2353  1.3337
63229SOL    HW296738   3.747   4.727   7.531  0.5117  0.3782  0.2258
63230SOL     OW96739   4.769   6.115   7.360 -0.3515  0.1256 -0.5626
63230SOL    HW196740   4.709   6.096   7.432  0.5437  0.6415  0.3304
63230SOL    HW296741   4.835   6.172   7.398 -0.0333  0.6582 -1.8758
63231SOL     OW96742   4.631   9.252   0.890 -0.5182 -0.0401  0.1788
63231SOL    HW196743   4.591   9.169   0.916 -1.8360  0.6569  0.5106
63231SOL    HW296744   4.558   9.314   0.893  0.7239  1.4235  1.2966
63232SOL     OW96745   0.962  12.234   7.061 -0.4288  0.0038 -0.0087
63232SOL    HW196746   0.931  12.319   7.031 -0.4652 -0.4026 -1.2179
63232SOL    HW296747   0.931  12.172   6.994  0.0653 -0.8788  0.5484
63233SOL     OW96748  10.960   1.152   7.860  0.0937  0.0877 -0.3359
63233SOL    HW196749  11.014   1.225   7.891 -1.2724 -0.1114  2.9271
63233SOL    HW296750  11.010   1.074   7.884  0.6912 -0.1273 -2.1311
63234SOL     OW96751   5.326   0.007   4.544 -0.0257 -0.1361 -0.7529
63234SOL    HW196752   5.258   0.068   4.572  1.7776  1.6234  0.0378
63234SOL    HW296753   5.323  -0.064   4.607  0.5058  1.2029  0.8624
63235SOL     OW96754   2.882   6.397  12.157  0.1475 -0.0334  0.4340
63235SOL    HW196755   2.829   6.422  12.232 -1.9603 -0.5592 -0.8131
63235SOL    HW296756   2.834   6.324  12.116  1.8033 -0.5008 -0.7960
63236SOL     OW96757  10.170   4.591  11.532 -0.2710 -0.4784 -0.4934
63236SOL    HW196758  10.091   4.624  11.576 -0.9396 -2.5204 -0.0498
63236SOL    HW296759  10.209   4.669  11.491 -1.9540  0.7565  0.1256
63237SOL     OW96760   8.775   0.557   5.842 -0.5770  0.0037 -0.0194
63237SOL    HW196761   8.708   0.491   5.861 -0.1963 -0.1223  0.9883
63237SOL    HW296762   8.757   0.627   5.906 -2.7257  2.2495 -2.8260
63238SOL     OW96763   4.384  11.480   3.305 -0.3474 -0.3667  0.1244
63238SOL    HW196764   4.406  11.482   3.212  2.6569 -0.9064  0.7007
63238SOL    HW296765   4.365  11.571   3.328  0.2787 -0.0110 -0.7394
63239SOL     OW96766   5.960   1.167   1.579  0.0820  0.7446  0.0205
63239SOL    HW196767   5.886   1.206   1.626 -1.0014 -2.7969  1.6225
63239SOL    HW296768   5.925   1.146   1.492 -0.5562 -0.0715  0.4582
63240SOL     OW96769   0.939   1.790  10.727  0.0547  0.5087 -0.2630
63240SOL    HW196770   0.850   1.769  10.697  0.2262  0.5379 -0.8017
63240SOL    HW296771   0.985   1.707  10.724  0.1672  0.5757 -0.4148
63241SOL     OW96772   0.486   8.337   0.751  0.0330 -0.2187  0.3000
63241SOL    HW196773   0.571   8.313   0.788  0.3062  1.7461  1.0420
63241SOL    HW296774   0.423   8.308   0.817  0.3840  1.3732  1.3913
63242SOL     OW96775   6.405   7.262   1.878  0.3681 -0.3728  0.2320
63242SOL    HW196776   6.424   7.327   1.945  2.1195 -0.3718 -0.2169
63242SOL    HW296777   6.311   7.273   1.859  0.9355  3.3021 -1.1289
63243SOL     OW96778  12.418   5.169  10.011 -0.2929  0.2648 -0.5195
63243SOL    HW196779  12.378   5.084   9.991 -1.2291  0.9747 -1.7540
63243SOL    HW296780  12.381   5.193  10.096 -1.9093  0.5144 -1.2492
63244SOL     OW96781   9.299  12.202  11.678 -0.0503 -0.2731 -0.5078
63244SOL    HW196782   9.383  12.199  11.631 -0.5711 -2.0094 -1.4089
63244SOL    HW296783   9.233  12.206  11.608 -0.7654 -0.5336  0.1434
63245SOL     OW96784  11.627   5.677   3.549 -0.3507 -0.1470  0.5909
63245SOL    HW196785  11.679   5.652   3.625 -0.2215  1.5096  1.1015
63245SOL    HW296786  11.539   5.695   3.584 -0.2915  0.6196  0.3745
63246SOL     OW96787  12.091   4.863   9.678 -0.1681 -0.7062  0.2125
63246SOL    HW196788  12.044   4.793   9.632 -0.1512  0.0046 -0.9047
63246SOL    HW296789  12.172   4.821   9.708  0.3558 -0.9105 -1.4071
63247SOL     OW96790   6.378  10.924   9.258 -0.4123 -0.1227  0.5318
63247SOL    HW196791   6.383  11.011   9.217  0.8175 -0.3060  0.2623
63247SOL    HW296792   6.289  10.920   9.293 -0.7878  0.8887 -0.2399
63248SOL     OW96793  11.444   0.338   7.976 -0.0468 -0.2982  0.1293
63248SOL    HW196794  11.392   0.308   7.902 -0.5971  0.1963  0.3110
63248SOL    HW296795  11.382   0.339   8.049 -0.4345  2.6065 -0.1437
63249SOL     OW96796   9.895   3.569   0.695 -0.3552 -0.5015 -0.2907
63249SOL    HW196797   9.916   3.659   0.668  2.5844 -0.8268  0.5109
63249SOL    HW296798   9.942   3.514   0.634  2.4051 -1.3045  2.3071
63250SOL     OW96799   1.686   9.896   4.431  0.2868  0.2985  0.0144
63250SOL    HW196800   1.610   9.906   4.375 -0.7737  2.5297  1.6721
63250SOL    HW296801   1.697   9.802   4.441 -0.8110 -0.1050 -2.0989
63251SOL     OW96802   4.410   6.221  10.230 -0.0177  0.3483  0.1009
63251SOL    HW196803   4.392   6.285  10.161  0.1944 -0.4086 -0.6693
63251SOL    HW296804   4.454   6.149  10.185 -1.0082 -0.7182  0.7949
63252SOL     OW96805   5.911   9.243   4.337  0.2255  0.2757 -0.1502
63252SOL    HW196806   5.841   9.231   4.402  1.8149 -0.8004  1.4410
63252SOL    HW296807   5.929   9.154   4.305 -0.1788  0.7301 -1.7651
63253SOL     OW96808  11.300   0.663   9.828 -0.5722 -0.3942  0.3210
63253SOL    HW196809  11.373   0.718   9.801  3.1729 -4.0981  1.7470
63253SOL    HW296810  11.261   0.632   9.746  0.1068  0.8323 -0.4857
63254SOL     OW96811   6.410   3.215   8.499  0.0370 -0.3089  0.6087
63254SOL    HW196812   6.481   3.163   8.461 -1.2056 -1.3293 -0.4205
63254SOL    HW296813   6.354   3.236   8.424  0.4721  2.5565  0.9756
63255SOL     OW96814   5.509   9.983   7.462 -0.0575 -0.5328 -0.2544
63255SOL    HW196815   5.442   9.922   7.495 -2.1583  1.6661 -0.1782
63255SOL    HW296816   5.528  10.040   7.536 -1.0674  1.2968 -1.3357
63256SOL     OW96817   6.076   6.045   1.674  0.0415  0.4073 -0.1061
63256SOL    HW196818   6.059   6.115   1.612 -0.2721 -0.3112 -0.8505
63256SOL    HW296819   5.990   6.025   1.712  0.0338  0.0829 -0.2835
63257SOL     OW96820   2.337   2.391   6.948  0.0998  0.2332 -0.0537
63257SOL    HW196821   2.360   2.319   6.890 -1.2958  0.3206 -0.7575
63257SOL    HW296822   2.315   2.349   7.031 -0.0840 -0.1068 -0.2741
63258SOL     OW96823   4.042   6.294   1.459  0.4266 -0.0147  0.7728
63258SOL    HW196824   4.126   6.251   1.476 -0.5914 -1.7448  1.6835
63258SOL    HW296825   4.043   6.311   1.365  1.4113 -0.8992  0.5956
63259SOL     OW96826   7.931   8.194   2.226  0.4051 -0.1915  0.0821
63259SOL    HW196827   7.986   8.264   2.262  2.0074 -1.7656  0.8497
63259SOL    HW296828   7.952   8.117   2.280 -2.3033 -0.9703  0.1468
63260SOL     OW96829  11.835   7.470  12.334  0.4079  0.1467  0.6582
63260SOL    HW196830  11.845   7.375  12.325 -1.6033 -0.1664  1.1361
63260SOL    HW296831  11.899   7.507  12.274  2.2725 -1.4716  1.5428
63261SOL     OW96832   3.439   0.727   0.398  0.6100 -0.4747 -0.0556
63261SOL    HW196833   3.512   0.724   0.459  0.8786  0.2307 -0.3357
63261SOL    HW296834   3.363   0.704   0.451  0.7882  0.4786  0.6383
63262SOL     OW96835  11.969  10.774   3.133 -0.0765  0.1548  0.7038
63262SOL    HW196836  11.984  10.759   3.040  0.3704  0.3503  0.7426
63262SOL    HW296837  12.056  10.797   3.168 -0.1511 -0.3565  1.2478
63263SOL     OW96838  11.610   3.034  11.500 -0.2291 -0.3949  0.3717
63263SOL    HW196839  11.578   2.963  11.443 -1.0287  0.2575 -0.0075
63263SOL    HW296840  11.705   3.027  11.495 -0.1343  1.0930 -3.0054
63264SOL     OW96841   6.403   1.402   1.874 -0.1890  0.5931  0.2230
63264SOL    HW196842   6.365   1.416   1.787  0.3857 -1.1461 -0.3471
63264SOL    HW296843   6.378   1.479   1.924 -1.5816  1.0553 -1.1242
63265SOL     OW96844   6.909   8.792   6.081 -0.4560 -0.5825  0.2060
63265SOL    HW196845   6.998   8.761   6.095  0.6463  1.0711 -2.4194
63265SOL    HW296846   6.872   8.798   6.170  2.6735  0.4558  1.5978
63266SOL     OW96847  10.804  10.673   9.341 -0.1345  0.0864  0.4712
63266SOL    HW196848  10.890  10.708   9.366 -0.8396  1.6254  0.8641
63266SOL    HW296849  10.755  10.671   9.424 -0.8787  0.4421  0.0478
63267SOL     OW96850   7.752   6.868   3.904 -0.0608  0.2775  0.6814
63267SOL    HW196851   7.835   6.868   3.951 -0.1633  2.3086  0.9539
63267SOL    HW296852   7.692   6.916   3.961 -0.8058  0.7996 -0.4855
63268SOL     OW96853  10.569   8.206   1.084  0.4220 -0.2148  0.3808
63268SOL    HW196854  10.656   8.170   1.070  0.7749  0.8438 -0.2104
63268SOL    HW296855  10.521   8.135   1.129  1.8258 -0.4982  1.5107
63269SOL     OW96856   5.371   2.592  11.358 -0.7809 -0.4075 -0.1263
63269SOL    HW196857   5.290   2.567  11.314 -0.9016 -1.2553  0.5445
63269SOL    HW296858   5.368   2.546  11.442  0.2511 -0.2105  0.0318
63270SOL     OW96859   6.725  11.476   6.672 -0.1642  0.1232 -0.4338
63270SOL    HW196860   6.650  11.476   6.612  0.7861 -1.1346 -1.6877
63270SOL    HW296861   6.710  11.401   6.729 -0.6562  0.8349  0.3842
63271SOL     OW96862   9.310   0.278   6.393 -0.2694  0.0107 -0.4605
63271SOL    HW196863   9.394   0.248   6.359  0.2219  1.9805 -1.1241
63271SOL    HW296864   9.275   0.335   6.324 -1.5551  0.2362  0.3378
63272SOL     OW96865  10.745   0.193   1.579 -0.3632  0.6454  0.1549
63272SOL    HW196866  10.839   0.199   1.561 -0.2737  0.6131  0.6175
63272SOL    HW296867  10.714   0.283   1.566 -0.3482  0.5766 -0.4101
63273SOL     OW96868   9.850   5.283   6.951  0.3410  0.0765 -0.0183
63273SOL    HW196869   9.756   5.289   6.966  0.6263  3.2538  1.3255
63273SOL    HW296870   9.861   5.308   6.859 -0.0333  2.5854  0.5414
63274SOL     OW96871  12.244   5.906   5.385  0.0143 -0.1502  0.5414
63274SOL    HW196872  12.216   5.816   5.370  1.5203 -0.7223  0.9773
63274SOL    HW296873  12.340   5.903   5.381  0.1391  1.2427  1.5276
63275SOL     OW96874   2.757   1.342   1.310  0.2234 -0.5164 -0.3220
63275SOL    HW196875   2.848   1.314   1.308  0.3600 -0.0953 -0.0166
63275SOL    HW296876   2.737   1.365   1.219  1.2530  2.0233  0.0228
63276SOL     OW96877   1.738   3.616   5.578 -0.4957  0.2350 -0.6251
63276SOL    HW196878   1.747   3.702   5.537 -0.3362  1.7322  2.2555
63276SOL    HW296879   1.813   3.566   5.545 -0.6573  1.1162 -2.4575
63277SOL     OW96880   2.544   2.245   1.299 -0.2088  0.6787 -0.1190
63277SOL    HW196881   2.516   2.337   1.299  0.2297  0.8175  0.4982
63277SOL    HW296882   2.636   2.248   1.326 -0.2600  0.0373  0.1376
63278SOL     OW96883  12.066  10.106  12.074  0.6545  0.1576 -0.2230
63278SOL    HW196884  12.133  10.047  12.110  0.5604 -0.1432 -0.5390
63278SOL    HW296885  12.044  10.163  12.147  0.1982 -0.6884  0.3227
63279SOL     OW96886   8.634   3.198  10.089 -0.8368 -0.2723  0.0624
63279SOL    HW196887   8.625   3.223   9.997  0.1977  0.3302  0.0960
63279SOL    HW296888   8.548   3.166  10.115 -1.3143  0.1619 -0.9415
63280SOL     OW96889   9.501  10.956  12.416 -0.1619  0.3683 -0.4816
63280SOL    HW196890   9.434  10.908  12.465  0.1819  2.2445  2.0578
63280SOL    HW296891   9.558  10.994  12.484 -0.4458  4.3464 -2.1794
63281SOL     OW96892  10.853   8.163  10.636 -0.4078 -0.3154  0.2999
63281SOL    HW196893  10.874   8.125  10.722 -0.0252  1.8029  1.1880
63281SOL    HW296894  10.936   8.200  10.605 -0.7480 -0.2658 -0.5858
63282SOL     OW96895   0.923  10.311   7.181  0.3261  0.2714 -0.0141
63282SOL    HW196896   0.909  10.402   7.154  1.1160  0.3901 -0.0475
63282SOL    HW296897   0.841  10.285   7.222  0.4253  1.3309  0.9112
63283SOL     OW96898   3.205   4.503   3.276  0.0327  0.0727  0.1747
63283SOL    HW196899   3.162   4.568   3.221 -1.9014 -1.1255  0.1746
63283SOL    HW296900   3.283   4.547   3.308 -0.5568  1.9560 -0.8093
63284SOL     OW96901   5.264   5.824   3.446 -0.3682 -0.0800 -0.2972
63284SOL    HW196902   5.276   5.738   3.485  1.0336  0.4880  0.6095
63284SOL    HW296903   5.283   5.812   3.353 -0.7797 -0.8519 -0.2870
63285SOL     OW96904   0.047  10.722  10.036  0.1558 -0.3390 -0.0063
63285SOL    HW196905  -0.000  10.656  10.086  1.7262 -1.3229  0.2524
63285SOL    HW296906   0.011  10.806  10.066  2.3302 -0.6922  4.3672
63286SOL     OW96907   8.871   9.064   9.429  0.5540 -0.3744 -0.7099
63286SOL    HW196908   8.848   8.981   9.387  0.4313 -0.1863 -1.0193
63286SOL    HW296909   8.879   9.126   9.356  1.7325 -0.3627 -0.5793
63287SOL     OW96910  10.991   6.435  12.523 -0.2929 -0.1855  0.0822
63287SOL    HW196911  10.994   6.350  12.566 -1.7628 -1.0027 -1.2874
63287SOL    HW296912  10.953   6.494  12.588  2.3134 -0.0791  1.6624
63288SOL     OW96913   7.957   9.879   3.938 -0.1722 -0.2159  0.1810
63288SOL    HW196914   7.912   9.922   3.865  0.3348 -1.1858 -0.7274
63288SOL    HW296915   8.018   9.945   3.971 -1.2519  0.6399  0.5281
63289SOL     OW96916  12.386  10.163  11.901  0.6114 -0.4115  0.1911
63289SOL    HW196917  12.380  10.067  11.907  1.0190 -0.4045  0.7603
63289SOL    HW296918  12.344  10.184  11.818 -0.6456 -0.9711  0.6604
63290SOL     OW96919   1.614   7.344   2.687 -0.4656 -0.4717  0.3493
63290SOL    HW196920   1.645   7.315   2.602 -0.9231 -0.1629  0.0745
63290SOL    HW296921   1.688   7.391   2.725 -0.6918  0.5371 -0.4374
63291SOL     OW96922   4.003   8.559   3.191 -0.4079 -0.0656  0.2108
63291SOL    HW196923   4.078   8.525   3.142  0.6088  2.3156 -0.0177
63291SOL    HW296924   4.024   8.539   3.282 -0.6266 -1.4119 -0.0102
63292SOL     OW96925   8.409   7.531   0.274  0.3211 -0.0910  0.4663
63292SOL    HW196926   8.475   7.573   0.328 -0.4373  0.8715  0.6700
63292SOL    HW296927   8.415   7.438   0.297  1.7271 -0.0593  0.3212
63293SOL     OW96928   0.966   4.923   9.262  0.4574  0.0872  0.3261
63293SOL    HW196929   1.031   4.852   9.265 -0.9313 -1.2462 -0.0561
63293SOL    HW296930   0.949   4.945   9.353 -1.3070 -2.2224  0.6346
63294SOL     OW96931  12.164   2.715   4.468  0.0737  0.2080  0.0479
63294SOL    HW196932  12.072   2.693   4.452  0.0193 -0.4470  1.1611
63294SOL    HW296933  12.194   2.753   4.386 -1.4647  1.3540 -0.0268
63295SOL     OW96934   9.122   1.419   8.388  0.0600 -0.2568  0.3730
63295SOL    HW196935   9.031   1.446   8.377 -0.0387 -0.5366  0.4711
63295SOL    HW296936   9.146   1.381   8.304 -0.1208 -0.7656  0.5467
63296SOL     OW96937   2.971   4.890  10.291  0.2649  0.2612  0.0942
63296SOL    HW196938   2.925   4.969  10.316  0.9295  0.5453  0.4550
63296SOL    HW296939   3.032   4.873  10.364 -0.7728 -1.3114  0.6593
63297SOL     OW96940   3.873   1.167  11.081  0.5311  0.3418 -0.2214
63297SOL    HW196941   3.964   1.186  11.058  1.0630 -0.3677  1.1613
63297SOL    HW296942   3.828   1.156  10.997  1.4025  2.0868 -0.9508
63298SOL     OW96943   0.508  11.940   4.037 -0.3528 -0.1718 -0.1413
63298SOL    HW196944   0.596  11.977   4.046 -0.9515  1.3105 -0.0974
63298SOL    HW296945   0.496  11.889   4.117  1.2633 -2.2590 -1.1287
63299SOL     OW96946   6.263   7.996   1.412  0.0460 -0.4593 -0.5955
63299SOL    HW196947   6.285   8.015   1.321 -1.1104 -1.4242 -1.1113
63299SOL    HW296948   6.268   7.900   1.419 -0.0149 -0.4090  0.3140
63300SOL     OW96949  11.578   1.403  12.432 -0.6112 -0.4445  0.2353
63300SOL    HW196950  11.488   1.382  12.455 -0.8662 -2.4592 -2.1223
63300SOL    HW296951  11.571   1.479  12.374 -0.8653 -0.7563 -0.1550
63301SOL     OW96952   7.549   0.231  11.373 -0.1310  0.1104  0.3789
63301SOL    HW196953   7.463   0.245  11.332 -0.7661 -0.8491  1.3476
63301SOL    HW296954   7.575   0.143  11.345  1.4325  1.0351 -1.4059
63302SOL     OW96955   1.676  12.323   3.874 -0.1903 -0.0869  0.7052
63302SOL    HW196956   1.733  12.373   3.816 -0.3512 -2.0182 -1.2693
63302SOL    HW296957   1.703  12.232   3.862 -3.1759 -1.0416  0.1414
63303SOL     OW96958   8.428   3.261   4.340  0.2574  0.0172  0.2168
63303SOL    HW196959   8.504   3.208   4.316  1.0599  0.4523  1.6585
63303SOL    HW296960   8.465   3.346   4.363 -0.5821  0.0172  1.6547
63304SOL     OW96961  10.320   3.569  10.339 -0.3945 -0.1428  0.1074
63304SOL    HW196962  10.262   3.625  10.390  0.7019  0.7502  0.4115
63304SOL    HW296963  10.373   3.629  10.287  1.3633 -0.7953  1.0300
63305SOL     OW96964  10.694   4.112   5.848 -0.3003  0.0532 -0.1431
63305SOL    HW196965  10.621   4.152   5.895  1.4865  1.2576  1.8077
63305SOL    HW296966  10.685   4.018   5.864 -0.7657  0.2954  1.0873
63306SOL     OW96967   2.497   4.218   5.454  0.0067  0.0465 -0.6262
63306SOL    HW196968   2.449   4.206   5.372 -2.2557  2.4853  0.2157
63306SOL    HW296969   2.561   4.287   5.435 -0.9549  1.0737 -0.2223
63307SOL     OW96970   2.705   8.958   9.810  0.4438  0.7501 -0.2024
63307SOL    HW196971   2.698   8.865   9.792  0.5153  1.1864 -2.7835
63307SOL    HW296972   2.667   8.968   9.898 -1.0059 -1.4624 -0.4980
63308SOL     OW96973   3.029   3.521   5.105  0.1925  0.4645  0.2952
63308SOL    HW196974   2.940   3.496   5.081 -0.2203  1.3563  0.8569
63308SOL    HW296975   3.081   3.441   5.093 -0.7549 -0.1677  0.3546
63309SOL     OW96976  11.636   8.054   9.176  0.8612 -0.0746 -0.6593
63309SOL    HW196977  11.554   8.006   9.183  1.2439 -0.4603  2.1812
63309SOL    HW296978  11.671   8.057   9.265  2.9222  1.8766 -1.4179
63310SOL     OW96979   6.425   3.421   6.797  0.3716  0.2101 -0.0953
63310SOL    HW196980   6.460   3.386   6.879  1.6246  0.6467 -0.4047
63310SOL    HW296981   6.445   3.353   6.732 -0.6832 -0.1673 -0.0455
63311SOL     OW96982   8.125   7.938   3.824  0.6038  0.5905 -0.2716
63311SOL    HW196983   8.220   7.934   3.814  0.7752  0.3857  1.1438
63311SOL    HW296984   8.105   7.865   3.883 -0.6069 -0.1957 -1.5991
63312SOL     OW96985   0.386   1.099  12.437  0.2150  0.2724 -0.1655
63312SOL    HW196986   0.417   1.011  12.456  0.7395  0.2444 -1.0645
63312SOL    HW296987   0.330   1.122  12.511  0.2299 -0.7348  0.1722
63313SOL     OW96988  10.780  10.153   8.871 -0.1504 -0.5947 -1.2967
63313SOL    HW196989  10.701  10.164   8.924  1.3030  1.4459  0.6479
63313SOL    HW296990  10.801  10.242   8.841  0.9969 -1.2108 -2.4455
63314SOL     OW96991   0.486   9.142   4.455 -0.4132 -0.3079  0.2662
63314SOL    HW196992   0.474   9.079   4.383 -0.7314 -1.5773  1.3868
63314SOL    HW296993   0.455   9.095   4.532 -1.3909  1.5399  1.0248
63315SOL     OW96994   3.967   4.242   1.747 -0.0906 -0.0182 -0.3871
63315SOL    HW196995   3.917   4.182   1.802  0.8763 -0.5012 -0.0146
63315SOL    HW296996   4.002   4.307   1.809 -1.6880  1.3764 -0.8593
63316SOL     OW96997   2.694  11.414   2.664  0.6883  0.7374  0.4930
63316SOL    HW196998   2.612  11.383   2.627  0.1691  1.5750  0.9127
63316SOL    HW296999   2.758  11.346   2.642 -0.0921  0.1286  0.0791
63317SOL     OW97000   1.160   2.521   3.363  0.8080 -0.1864 -0.6451
63317SOL    HW197001   1.084   2.576   3.344 -0.8586 -2.0179  0.2687
63317SOL    HW297002   1.216   2.576   3.418 -0.0899  1.0618 -0.9285
63318SOL     OW97003   2.366   0.207  11.103 -0.7483  0.4365  0.5474
63318SOL    HW197004   2.402   0.248  11.024 -1.2413 -3.1911 -1.8351
63318SOL    HW297005   2.274   0.230  11.102 -1.0591 -0.6959 -0.8653
63319SOL     OW97006   1.802   8.410   4.896 -0.3132 -0.3697 -0.6866
63319SOL    HW197007   1.824   8.421   4.988 -0.8709  1.2817 -0.7209
63319SOL    HW297008   1.816   8.317   4.879 -1.3402 -0.9520  1.3420
63320SOL     OW97009   4.052   0.918   6.252 -0.0687  0.9696 -0.6964
63320SOL    HW197010   3.965   0.945   6.222 -0.6314  0.4016  0.3870
63320SOL    HW297011   4.111   0.946   6.182 -1.1722  0.9584 -1.6609
63321SOL     OW97012   8.279   9.521   3.753 -0.3729 -0.6168  0.0093
63321SOL    HW197013   8.309   9.612   3.749 -1.6805 -0.2103 -2.7079
63321SOL    HW297014   8.357   9.469   3.733  0.0760 -0.0269  0.1959
63322SOL     OW97015   3.285   8.355   7.027  0.3576  0.4460  0.1914
63322SOL    HW197016   3.369   8.363   6.981 -0.0855  0.0878 -0.7037
63322SOL    HW297017   3.285   8.265   7.060 -0.3029 -0.0536 -1.1089
63323SOL     OW97018   9.722   8.140  11.833  0.4744 -0.7219  0.1947
63323SOL    HW197019   9.678   8.152  11.917  0.8421 -0.2900  0.3286
63323SOL    HW297020   9.753   8.228  11.809 -0.6268 -0.6009 -0.9489
63324SOL     OW97021   7.267  12.514  11.692  0.4302 -0.1351 -0.1619
63324SOL    HW197022   7.330  12.466  11.745 -2.3647 -2.7505  1.0991
63324SOL    HW297023   7.290  12.606  11.705  2.4098 -0.8726  2.2628
63325SOL     OW97024  10.887   5.105   1.105 -0.2635  0.2302  0.1881
63325SOL    HW197025  10.826   5.089   1.033 -0.3062  1.7115 -0.1263
63325SOL    HW297026  10.960   5.046   1.088 -1.2706 -1.0921  0.1987
63326SOL     OW97027  11.019   4.427   8.626  0.2605  0.1559  0.1905
63326SOL    HW197028  11.099   4.401   8.581  0.6412 -1.0991  1.5249
63326SOL    HW297029  10.949   4.381   8.580  0.2883  1.0867 -0.8418
63327SOL     OW97030  11.521  11.634   3.330 -0.0172  0.0279 -0.4912
63327SOL    HW197031  11.576  11.596   3.398 -3.0948  1.8655  3.4442
63327SOL    HW297032  11.566  11.714   3.304  1.4483 -0.9550 -1.0860
63328SOL     OW97033  12.271   6.212   3.017  0.8769 -0.2316  0.0577
63328SOL    HW197034  12.259   6.148   3.087  0.4265 -0.9057 -0.6117
63328SOL    HW297035  12.225   6.290   3.048  0.1726 -0.7148  0.2643
63329SOL     OW97036   3.738   0.162   1.927  0.1949 -0.3346 -0.3711
63329SOL    HW197037   3.699   0.107   1.995 -0.5471  0.7102  0.0774
63329SOL    HW297038   3.714   0.252   1.951 -0.9121  0.0115 -2.5136
63330SOL     OW97039   8.816   3.883  10.707 -0.1203  0.4144 -0.1534
63330SOL    HW197040   8.856   3.803  10.742  0.1175  1.0926  1.1513
63330SOL    HW297041   8.890   3.937  10.681 -0.1569  1.3846  1.6279
63331SOL     OW97042  12.012   7.916   1.848 -0.5410  0.0380 -0.5509
63331SOL    HW197043  12.011   7.869   1.931 -3.6461  0.1345 -0.4301
63331SOL    HW297044  12.050   8.001   1.869 -0.6451 -0.1934  0.6114
63332SOL     OW97045   0.822   6.501   8.691  0.0848  0.2856 -0.2554
63332SOL    HW197046   0.792   6.532   8.776 -0.6640 -1.3520  0.1198
63332SOL    HW297047   0.765   6.546   8.628  1.1817  2.1312  0.0132
63333SOL     OW97048   7.201  10.722   1.175 -0.1109  0.5646 -0.6142
63333SOL    HW197049   7.195  10.644   1.231  0.4652  0.4048 -0.7777
63333SOL    HW297050   7.260  10.781   1.222  1.5878 -0.1777 -1.7618
63334SOL     OW97051   4.589   0.697  12.210  0.0589 -0.0363 -0.0739
63334SOL    HW197052   4.518   0.638  12.234  0.7090 -0.3950  1.0614
63334SOL    HW297053   4.665   0.640  12.200  0.7926  0.6197  1.4552
63335SOL     OW97054   3.223   1.935  12.119 -0.2598  0.4662 -0.0521
63335SOL    HW197055   3.234   1.978  12.204 -1.6180  0.7892 -0.0245
63335SOL    HW297056   3.164   1.862  12.137 -0.7546  0.6835 -0.7672
63336SOL     OW97057   0.004   0.270   5.084  0.6228  0.1592 -0.3328
63336SOL    HW197058  -0.042   0.340   5.131  0.0030 -0.2595 -0.3098
63336SOL    HW297059  -0.058   0.240   5.018  0.1467 -1.6674  0.8925
63337SOL     OW97060  11.653   7.720   4.156 -0.5608  0.2023  0.0159
63337SOL    HW197061  11.690   7.779   4.091  1.0331 -2.8409 -2.0994
63337SOL    HW297062  11.566   7.698   4.122 -1.2337  1.3720  0.9024
63338SOL     OW97063   6.239   1.409   4.795 -0.1734 -0.2974 -0.0216
63338SOL    HW197064   6.227   1.328   4.746  1.8012 -0.0205 -1.0891
63338SOL    HW297065   6.289   1.465   4.736  0.5955  0.7780  1.5730
63339SOL     OW97066   8.063   4.437   1.612  0.9579  0.0697  0.4771
63339SOL    HW197067   8.090   4.491   1.686  1.4530  0.9217 -0.3031
63339SOL    HW297068   8.056   4.499   1.539  0.0764 -0.6861 -0.0951
63340SOL     OW97069   8.442  11.959   9.324 -0.5575 -0.4388 -0.2882
63340SOL    HW197070   8.513  11.897   9.337  0.3319  0.4525 -0.7038
63340SOL    HW297071   8.461  12.030   9.385 -2.0257 -0.9359  0.7869
63341SOL     OW97072   3.156   4.223  10.298 -0.3160  0.3588  0.6032
63341SOL    HW197073   3.219   4.159  10.266 -0.4663 -0.4471  1.8516
63341SOL    HW297074   3.083   4.170  10.332 -1.1067  1.2369  0.3302
63342SOL     OW97075   7.191  12.178   4.565  0.2903 -0.2158  0.2904
63342SOL    HW197076   7.250  12.202   4.637  0.5885 -0.7284  0.2215
63342SOL    HW297077   7.116  12.138   4.608  0.4033 -0.3879  0.3319
63343SOL     OW97078   3.263   7.340   2.735  0.4788  0.1649  0.1408
63343SOL    HW197079   3.294   7.268   2.681  0.5898  0.1001  0.2916
63343SOL    HW297080   3.208   7.392   2.676  0.8029  0.2348 -0.1057
63344SOL     OW97081  12.577   4.907   1.434 -0.0770 -0.5306 -0.2924
63344SOL    HW197082  12.618   4.824   1.408  0.3251  0.0468 -1.5551
63344SOL    HW297083  12.492   4.906   1.391  0.5359  0.3630 -1.6027
63345SOL     OW97084  11.785   1.093   1.561  0.0731 -0.2102  0.1518
63345SOL    HW197085  11.700   1.096   1.518 -0.4474  1.5993  1.2068
63345SOL    HW297086  11.794   1.179   1.602  2.1305 -0.5961  0.6035
63346SOL     OW97087   2.394   9.058   5.534 -0.4003  0.2217  0.0723
63346SOL    HW197088   2.465   9.025   5.588 -1.2234 -1.6787  0.0989
63346SOL    HW297089   2.315   9.040   5.585 -1.2289 -1.9413 -1.7793
63347SOL     OW97090   8.068  10.865   4.931 -0.1455 -0.3413  0.2651
63347SOL    HW197091   7.991  10.821   4.967 -0.9313  1.0627  0.3681
63347SOL    HW297092   8.139  10.843   4.992 -0.9275  0.0571  1.3403
63348SOL     OW97093   0.248   8.592   8.043 -0.1866  0.4853 -0.0538
63348SOL    HW197094   0.289   8.516   8.084 -2.1182 -0.2969  0.5326
63348SOL    HW297095   0.282   8.667   8.092 -0.2406 -0.2121  1.0887
63349SOL     OW97096   3.914   0.126   3.090  0.5672 -0.2387  0.5719
63349SOL    HW197097   3.984   0.092   3.033  0.4571  0.7457 -0.1667
63349SOL    HW297098   3.935   0.091   3.176 -0.2122 -3.2580 -0.3271
63350SOL     OW97099   9.019   4.765  10.326 -0.6691 -0.0732  0.0361
63350SOL    HW197100   9.038   4.743  10.418 -0.6596  0.1503  0.0867
63350SOL    HW297101   9.030   4.682  10.279 -0.5936 -0.1704  0.2248
63351SOL     OW97102   0.462   1.814   8.365 -0.1439  0.3156  0.2766
63351SOL    HW197103   0.374   1.805   8.401 -0.3843  1.8016  0.1180
63351SOL    HW297104   0.512   1.858   8.435 -0.2974  2.1089 -0.6908
63352SOL     OW97105  11.348   2.693   4.106  0.5204 -0.2051  0.0687
63352SOL    HW197106  11.417   2.665   4.166 -0.9746 -2.4118  0.8911
63352SOL    HW297107  11.292   2.616   4.096 -0.7369  0.8838 -2.1554
63353SOL     OW97108   7.902   0.336  10.782 -0.0091 -0.0606 -0.2101
63353SOL    HW197109   7.983   0.286  10.793  0.6842  0.9255 -0.6867
63353SOL    HW297110   7.836   0.270  10.760  0.5076 -0.9522  0.8194
63354SOL     OW97111   5.148  11.625   3.616 -0.3503  0.5641  0.5425
63354SOL    HW197112   5.134  11.677   3.537  0.2904  2.2600  1.4910
63354SOL    HW297113   5.160  11.535   3.584 -1.6786  0.9267 -1.1339
63355SOL     OW97114   2.499   7.966   7.937 -0.2269  0.0241  0.0222
63355SOL    HW197115   2.542   8.034   7.990 -0.6709  0.4864 -0.2002
63355SOL    HW297116   2.510   7.995   7.847 -0.8546  0.0706 -0.0473
63356SOL     OW97117   9.910   0.198  11.052 -0.8312 -0.5822  0.4567
63356SOL    HW197118  10.005   0.184  11.048 -0.0587  3.4524  0.1864
63356SOL    HW297119   9.883   0.204  10.960 -0.6067  1.5836  0.4771
63357SOL     OW97120   0.059   5.698  10.615  0.6593 -0.6206  0.0461
63357SOL    HW197121   0.030   5.651  10.693  1.0862 -0.1430  0.5007
63357SOL    HW297122   0.154   5.685  10.613  0.6748 -0.4656 -0.2832
63358SOL     OW97123  11.621   6.166   2.808 -0.2593  0.1928 -0.4797
63358SOL    HW197124  11.556   6.236   2.813  0.2842  0.7304 -0.7379
63358SOL    HW297125  11.630   6.135   2.898  0.1300  1.0568 -0.2057
63359SOL     OW97126   3.277   6.723  11.404  0.2059 -0.0111 -0.2461
63359SOL    HW197127   3.214   6.773  11.352  0.2683  0.6724  0.3173
63359SOL    HW297128   3.260   6.750  11.495  2.5740  1.7187 -0.2036
63360SOL     OW97129   2.927  10.337   7.154  0.5902  0.5867  0.1110
63360SOL    HW197130   2.918  10.433   7.159 -0.3847  0.4883  0.3686
63360SOL    HW297131   2.868  10.311   7.084 -0.9061 -0.0406  1.5574
63361SOL     OW97132   5.658   0.772   5.788  0.0001 -0.0979 -0.5007
63361SOL    HW197133   5.752   0.766   5.768 -0.1359 -1.5003 -0.7622
63361SOL    HW297134   5.623   0.686   5.766 -0.9377 -0.3742  1.8072
63362SOL     OW97135  12.476   4.552   7.032 -0.5395 -0.1795  0.4761
63362SOL    HW197136  12.504   4.476   7.083  0.7729  0.7294  1.1872
63362SOL    HW297137  12.549   4.568   6.972 -0.7459  0.5841  0.4193
63363SOL     OW97138   9.658   9.256   9.036 -0.3563  0.0725 -0.1643
63363SOL    HW197139   9.599   9.326   9.009  0.0772  0.6773  0.4230
63363SOL    HW297140   9.636   9.240   9.128  1.9186  1.9761  0.8370
63364SOL     OW97141   8.144  11.868   0.387  0.0351 -0.1506 -0.4015
63364SOL    HW197142   8.131  11.823   0.470  0.9109 -1.4568 -0.9429
63364SOL    HW297143   8.208  11.937   0.406  0.4132 -0.5998 -0.0569
63365SOL     OW97144  10.000   0.736   0.486  0.6662  0.0809  0.0703
63365SOL    HW197145   9.997   0.807   0.423  0.0995  0.2266  0.2598
63365SOL    HW297146  10.083   0.691   0.467 -0.0099 -0.5802 -1.5315
63366SOL     OW97147   4.250  12.283   6.719 -0.4007 -0.0549  0.0041
63366SOL    HW197148   4.183  12.216   6.705 -1.9799  1.3233  0.4960
63366SOL    HW297149   4.273  12.275   6.812 -1.1555  0.5325  0.2560
63367SOL     OW97150   9.574   1.276   5.596 -0.3548  0.2084 -0.0553
63367SOL    HW197151   9.524   1.358   5.599  0.2099  0.6095 -1.0011
63367SOL    HW297152   9.507   1.208   5.584 -0.6865  0.7900 -1.9449
63368SOL     OW97153   7.516  11.296   1.794  0.6474  0.2513  0.3528
63368SOL    HW197154   7.576  11.362   1.759  2.3746 -1.7945 -0.8082
63368SOL    HW297155   7.473  11.259   1.716 -1.4718  0.9962  1.0940
63369SOL     OW97156  12.290   5.713   6.400  0.1470 -0.3686  0.1626
63369SOL    HW197157  12.218   5.685   6.456 -1.8608  1.0058 -1.5621
63369SOL    HW297158  12.277   5.807   6.390  0.5396 -0.5004 -2.3293
63370SOL     OW97159   0.568   3.727  10.488  0.6790  0.3369  0.6750
63370SOL    HW197160   0.511   3.705  10.414  0.0581  2.5120  0.4153
63370SOL    HW297161   0.653   3.745  10.448  0.4568  1.0809  0.5164
63371SOL     OW97162  11.562   3.216   7.328  0.1608 -0.2484  0.2206
63371SOL    HW197163  11.557   3.278   7.400 -1.1573 -1.0322  0.8433
63371SOL    HW297164  11.649   3.177   7.336  0.2414  0.0852  1.0413
63372SOL     OW97165   7.542   9.445   4.096 -0.1969 -0.4778  0.1121
63372SOL    HW197166   7.556   9.419   4.005  0.2559  1.7513 -0.5175
63372SOL    HW297167   7.465   9.397   4.124  0.9977 -3.0102 -0.6547
63373SOL     OW97168   4.981   1.282   7.910 -0.0800 -0.3503 -0.9496
63373SOL    HW197169   4.927   1.226   7.854 -3.2604 -1.0118  2.3559
63373SOL    HW297170   5.048   1.223   7.944 -0.4061 -0.8913 -1.2201
63374SOL     OW97171   9.693   6.547   2.354  0.6484 -0.0996 -0.0094
63374SOL    HW197172   9.716   6.475   2.412  1.4643 -0.2256 -0.4653
63374SOL    HW297173   9.709   6.513   2.265 -0.2804  0.1895 -0.2951
63375SOL     OW97174   1.555   3.380   9.984  0.0451  0.2984  0.1859
63375SOL    HW197175   1.556   3.310   9.918  0.6580  0.2969  0.1942
63375SOL    HW297176   1.585   3.457   9.937 -0.1728  0.4509  0.2971
63376SOL     OW97177   5.344   6.107   1.359  0.0364 -0.0531 -0.4154
63376SOL    HW197178   5.402   6.087   1.433  0.0622  2.7468  0.4556
63376SOL    HW297179   5.402   6.150   1.296 -0.6813  1.0476 -0.3515
63377SOL     OW97180  10.264   2.955   4.658  0.0726 -0.1732 -0.0161
63377SOL    HW197181  10.174   2.986   4.653 -0.0037 -0.1211  1.3379
63377SOL    HW297182  10.315   3.034   4.677  0.4208 -0.1869 -0.8704
63378SOL     OW97183   1.810  12.517   1.043  0.0694  0.0084  0.0368
63378SOL    HW197184   1.832  12.574   0.969 -1.0311  2.4306  1.4533
63378SOL    HW297185   1.773  12.438   1.002 -0.3322  1.1728 -2.0150
63379SOL     OW97186   1.167   5.192  10.738 -0.4628 -0.1956  0.4663
63379SOL    HW197187   1.207   5.271  10.701 -1.4220  0.4128  0.6750
63379SOL    HW297188   1.241   5.136  10.760  0.2039  0.2478 -0.5553
63380SOL     OW97189  10.044   7.927   4.062  0.0650  0.1142 -0.1200
63380SOL    HW197190  10.011   8.016   4.049 -0.3989  0.0002  0.2593
63380SOL    HW297191  10.077   7.901   3.976 -0.1588  0.5048 -0.3264
63381SOL     OW97192  12.023   0.816   7.271 -0.5003 -0.1319 -0.3606
63381SOL    HW197193  12.053   0.897   7.312 -1.6824  0.3638 -0.4499
63381SOL    HW297194  12.103   0.763   7.261 -0.0195  0.1393  1.6305
63382SOL     OW97195   1.752   9.045   7.248  0.2784  0.2399  0.6925
63382SOL    HW197196   1.665   9.078   7.273  0.2579 -1.5127  3.2647
63382SOL    HW297197   1.811   9.082   7.313  1.8772  2.7398 -1.9514
63383SOL     OW97198   8.147  12.512   2.197 -0.1398 -0.1779  0.2107
63383SOL    HW197199   8.079  12.451   2.168  1.4870 -2.0421  0.1264
63383SOL    HW297200   8.143  12.508   2.293 -0.0652 -0.4027  0.2058
63384SOL     OW97201  11.599   0.070   0.619  0.5173 -0.2205  0.2249
63384SOL    HW197202  11.645   0.066   0.703  0.5402  0.6649  0.2642
63384SOL    HW297203  11.612   0.160   0.589 -2.6244  0.6278  1.0568
63385SOL     OW97204  11.534   0.516  10.848 -0.2081  0.2576 -0.6724
63385SOL    HW197205  11.463   0.464  10.813 -1.3328  0.6195  0.9314
63385SOL    HW297206  11.514   0.606  10.820 -0.8964  0.4885  0.4839
63386SOL     OW97207   7.428   1.654   1.382 -0.4597 -0.3739  0.0747
63386SOL    HW197208   7.449   1.603   1.303 -0.0013 -0.0491 -0.0188
63386SOL    HW297209   7.464   1.602   1.453  1.1550  0.4027 -0.1221
63387SOL     OW97210  11.432  10.707   8.893 -0.0449 -0.1233  0.8687
63387SOL    HW197211  11.406  10.615   8.883 -1.4982  0.3235  0.1895
63387SOL    HW297212  11.507  10.716   8.834  0.3850 -0.9703  1.2658
63388SOL     OW97213   8.589   7.746   9.635 -0.7699 -0.7126 -0.0411
63388SOL    HW197214   8.670   7.695   9.632  0.5077  1.2200  0.2487
63388SOL    HW297215   8.521   7.683   9.612  0.8301 -2.3281 -0.5978
63389SOL     OW97216  12.570   4.342   7.152 -0.1206 -0.1925  0.0247
63389SOL    HW197217  12.659   4.352   7.120 -0.3806 -1.9392 -1.3724
63389SOL    HW297218  12.580   4.315   7.244  0.7894 -0.7414 -0.2326
63390SOL     OW97219  10.703   6.205   6.998 -0.6127 -0.0030  0.1260
63390SOL    HW197220  10.669   6.116   7.007 -0.3960  0.0414  1.5188
63390SOL    HW297221  10.633   6.261   7.034 -0.2664  0.2999  0.3348
63391SOL     OW97222   8.672  11.989   5.743  0.2450  0.7192  0.0883
63391SOL    HW197223   8.592  12.010   5.790  0.5715  0.3304  0.8304
63391SOL    HW297224   8.741  11.989   5.810  0.7359  0.2613 -0.3992
63392SOL     OW97225   2.968   2.134   9.639 -1.0579  0.5247 -0.4722
63392SOL    HW197226   2.913   2.083   9.579 -0.0579  0.4653 -1.3789
63392SOL    HW297227   2.999   2.070   9.702 -1.8458  0.5176 -0.0822
63393SOL     OW97228   9.288   5.567   3.405  0.0487 -0.2906 -0.7319
63393SOL    HW197229   9.239   5.492   3.372  0.7321 -0.4747 -1.3639
63393SOL    HW297230   9.368   5.569   3.352  1.0093 -0.3569  0.6598
63394SOL     OW97231   1.481   9.865  10.907 -0.6115  0.2858 -0.2548
63394SOL    HW197232   1.531   9.925  10.852  0.8997  0.0750  0.8303
63394SOL    HW297233   1.474   9.909  10.991 -1.1049 -0.2690  0.0037
63395SOL     OW97234   4.337  11.141  12.444  0.4309 -0.0020  0.0729
63395SOL    HW197235   4.291  11.074  12.496 -0.3575  0.8881  0.5665
63395SOL    HW297236   4.323  11.114  12.353 -0.2662 -0.2746  0.2483
63396SOL     OW97237   1.442   1.147  10.191 -0.4719  0.3557 -0.1161
63396SOL    HW197238   1.406   1.114  10.109  0.1348  0.7593 -0.5503
63396SOL    HW297239   1.487   1.228  10.167  1.1844 -0.3913  0.3180
63397SOL     OW97240   8.591   6.045   9.427  0.3287  0.3224 -0.3744
63397SOL    HW197241   8.595   6.003   9.342  1.5179 -0.3013 -0.0338
63397SOL    HW297242   8.680   6.078   9.442  0.3478 -0.2252  0.9168
63398SOL     OW97243  12.267  12.087  10.517  0.1625  0.4107  0.1952
63398SOL    HW197244  12.249  12.008  10.567  0.1543  0.5061  0.3446
63398SOL    HW297245  12.182  12.115  10.483  0.1248  0.5015  0.3628
63399SOL     OW97246   1.768   9.740   1.172  0.0111 -0.4997  0.3702
63399SOL    HW197247   1.769   9.664   1.112 -2.7767 -2.1620  2.1821
63399SOL    HW297248   1.737   9.704   1.255 -0.5308  2.5112  1.5850
63400SOL     OW97249   3.351   9.290   1.427  0.0131 -0.1651  0.4806
63400SOL    HW197250   3.427   9.260   1.477  0.9591  1.0528 -0.1739
63400SOL    HW297251   3.385   9.359   1.370 -1.5488  0.2694  0.0184
63401SOL     OW97252  10.256   2.069   8.105 -0.4176 -0.7324  0.0853
63401SOL    HW197253  10.249   2.045   8.197 -0.6070  0.2705  0.3468
63401SOL    HW297254  10.339   2.117   8.100 -1.1790  0.6596  0.0963
63402SOL     OW97255   2.597   3.547   1.081 -0.3696 -0.4739  0.2089
63402SOL    HW197256   2.533   3.585   1.141  1.4280  0.4808  1.6167
63402SOL    HW297257   2.546   3.485   1.029 -2.3844  0.0685  1.4024
63403SOL     OW97258   2.623  11.853   9.963 -0.4869  0.0798  0.0962
63403SOL    HW197259   2.580  11.914   9.903  2.3545  1.6636 -0.5144
63403SOL    HW297260   2.570  11.856  10.043 -3.3519 -0.7202 -1.6549
63404SOL     OW97261  12.487   1.935   7.937 -0.0559  0.0326  0.1066
63404SOL    HW197262  12.579   1.957   7.920 -0.4463  1.6791 -0.0296
63404SOL    HW297263  12.490   1.845   7.969  1.5888 -0.0099 -0.0621
63405SOL     OW97264   7.034   3.922   1.363 -0.0455  0.1569 -0.1966
63405SOL    HW197265   7.107   3.970   1.402  0.0861 -1.2814  1.5132
63405SOL    HW297266   7.067   3.892   1.279  0.6768  1.0585 -0.2494
63406SOL     OW97267   3.401   1.963   0.346 -0.4519 -0.7010 -0.3128
63406SOL    HW197268   3.327   2.013   0.381  0.3270  0.2996 -0.0364
63406SOL    HW297269   3.389   1.966   0.251  0.2352  1.1652 -0.4007
63407SOL     OW97270  10.164  10.135   0.827  0.0940  0.0156 -0.1531
63407SOL    HW197271  10.192  10.217   0.866  0.0876  0.8440 -1.7846
63407SOL    HW297272  10.188  10.143   0.734 -2.6894 -0.5062 -1.0137
63408SOL     OW97273  11.125   8.645   8.322 -0.1322  0.0632 -0.0027
63408SOL    HW197274  11.102   8.718   8.264 -2.0061  1.1523  1.9800
63408SOL    HW297275  11.099   8.566   8.273  1.0077  0.7060 -1.7681
63409SOL     OW97276  11.828   1.405   2.824  0.5400  0.1065 -0.0311
63409SOL    HW197277  11.850   1.355   2.746 -1.5089  0.3056 -0.7887
63409SOL    HW297278  11.817   1.338   2.892 -0.5415 -0.3618 -0.6383
63410SOL     OW97279   1.473   0.424   8.103  0.4380 -0.3609 -0.1291
63410SOL    HW197280   1.412   0.455   8.036 -0.0315 -1.9372 -0.4766
63410SOL    HW297281   1.530   0.363   8.058  2.3807  1.1369  0.1832
63411SOL     OW97282   5.628  11.672   8.055 -0.0366 -0.8115  0.2417
63411SOL    HW197283   5.644  11.740   7.990  0.8760 -0.3051  0.9782
63411SOL    HW297284   5.557  11.706   8.109  1.3887  0.2672  1.5266
63412SOL     OW97285   4.518   3.812   3.525  0.0147  0.0056  0.0057
63412SOL    HW197286   4.553   3.889   3.480 -2.7533  0.9472 -0.7329
63412SOL    HW297287   4.426   3.809   3.500 -0.4574 -2.4091  1.6511
63413SOL     OW97288   3.037   4.182  11.446 -0.0636  0.1399  0.7023
63413SOL    HW197289   3.019   4.274  11.466 -2.5902 -0.4662  1.5856
63413SOL    HW297290   2.951   4.140  11.448  0.8584 -2.0019 -1.0747
63414SOL     OW97291   4.489   9.186  10.950 -0.6309  0.5947 -0.3914
63414SOL    HW197292   4.444   9.225  10.875 -0.9962 -0.3401 -0.6684
63414SOL    HW297293   4.432   9.205  11.025 -0.6270  0.9003 -0.4649
63415SOL     OW97294  11.132   8.954   8.237  0.2302 -0.0647 -0.2133
63415SOL    HW197295  11.095   9.004   8.309 -0.6464 -1.3595  0.2852
63415SOL    HW297296  11.068   8.963   8.166  0.1410 -0.3527 -0.1711
63416SOL     OW97297   0.141   7.299   5.753  0.3273  0.5201 -0.0568
63416SOL    HW197298   0.182   7.277   5.837 -0.9555  1.4213  0.8594
63416SOL    HW297299   0.194   7.255   5.687  2.2092  0.9125  1.1211
63417SOL     OW97300   1.923   6.826  11.084  0.2554  0.5244  0.4843
63417SOL    HW197301   1.979   6.752  11.060  2.1991  2.1014 -0.1983
63417SOL    HW297302   1.837   6.805  11.047  0.7697 -1.3428  0.2670
63418SOL     OW97303   2.334   9.148   4.146  0.2122 -0.2054 -0.3531
63418SOL    HW197304   2.419   9.127   4.185 -0.6531 -1.3222  1.0319
63418SOL    HW297305   2.306   9.067   4.105 -0.0118  0.2823 -1.1888
63419SOL     OW97306   5.778   9.485   8.609 -0.2770 -0.0562  0.6558
63419SOL    HW197307   5.819   9.529   8.535 -0.9247  1.4808  1.1704
63419SOL    HW297308   5.744   9.403   8.574  1.0785 -0.2359 -0.3086
63420SOL     OW97309   1.002   8.356   3.176  0.2328  0.1021  0.0616
63420SOL    HW197310   1.063   8.374   3.248 -0.2632 -0.6269  0.6883
63420SOL    HW297311   1.002   8.435   3.123 -0.4355  1.2081  1.6472
63421SOL     OW97312   0.800   7.267   6.894  0.0863  0.4299 -0.1000
63421SOL    HW197313   0.753   7.320   6.959  1.5566  2.2540 -0.4442
63421SOL    HW297314   0.890   7.265   6.925  0.4968 -0.0173 -1.2721
63422SOL     OW97315   2.713  12.128   3.701  0.2027  0.4041  0.0948
63422SOL    HW197316   2.741  12.039   3.719  1.6258  1.0927  1.5720
63422SOL    HW297317   2.634  12.140   3.753  0.2344  0.1383  0.2040
63423SOL     OW97318   9.284   1.515   6.417 -0.0280  0.2237 -0.2676
63423SOL    HW197319   9.212   1.547   6.363  0.0690  0.3606 -0.3181
63423SOL    HW297320   9.348   1.587   6.417  0.7445 -0.4327 -1.4042
63424SOL     OW97321   4.025  10.085   7.730 -0.1276  0.1976 -0.6174
63424SOL    HW197322   4.069  10.095   7.645 -0.9168  0.6978 -0.9779
63424SOL    HW297323   4.095  10.060   7.790  0.4821  0.0438 -1.3716
63425SOL     OW97324   9.532   3.665   9.048 -0.5596 -0.2260  0.5417
63425SOL    HW197325   9.608   3.655   8.991  0.5054  2.4857  1.3139
63425SOL    HW297326   9.459   3.627   8.999  0.6500  0.3160 -1.7891
63426SOL     OW97327   3.505   9.994  10.630 -1.0452  0.1075  0.1245
63426SOL    HW197328   3.584   9.940  10.636 -0.7372  0.4746 -0.5163
63426SOL    HW297329   3.437   9.941  10.671 -0.3936 -0.0490  1.0601
63427SOL     OW97330   9.565   1.152   5.966 -0.7503  0.0811 -0.5522
63427SOL    HW197331   9.527   1.175   6.051 -1.3360 -0.6297 -0.6056
63427SOL    HW297332   9.489   1.144   5.908 -0.2505  2.7141 -1.7334
63428SOL     OW97333  11.291   0.740   1.944 -0.2065 -0.6625  0.3614
63428SOL    HW197334  11.282   0.710   1.854  0.4268 -3.0240  1.0202
63428SOL    HW297335  11.229   0.812   1.952 -1.4074 -1.4283 -1.5164
63429SOL     OW97336   5.176   7.654  11.278 -0.3516  0.4893  0.9589
63429SOL    HW197337   5.216   7.569  11.293 -1.8786 -0.1178  1.7247
63429SOL    HW297338   5.248   7.709  11.246  0.4595 -1.3038 -0.4134
63430SOL     OW97339   8.665   9.683   3.390  0.3508 -0.4293  0.1436
63430SOL    HW197340   8.688   9.755   3.449  0.9426 -0.1967 -0.3565
63430SOL    HW297341   8.749   9.654   3.355 -0.0443 -0.0540 -1.1698
63431SOL     OW97342   4.513   4.578   1.321  0.0011 -0.5314 -0.1947
63431SOL    HW197343   4.545   4.653   1.270 -1.9814 -0.2588 -1.1496
63431SOL    HW297344   4.445   4.539   1.266 -0.9470 -1.3370  1.4589
63432SOL     OW97345  12.165  10.313  10.652  0.1261 -0.1419  0.0561
63432SOL    HW197346  12.174  10.361  10.734 -0.8819  0.5725 -0.2339
63432SOL    HW297347  12.149  10.222  10.679 -0.6000  0.1562  0.6726
63433SOL     OW97348   4.882   2.664  11.652 -0.4328  0.0183  0.2497
63433SOL    HW197349   4.965   2.709  11.668 -1.6440  1.9689  1.5569
63433SOL    HW297350   4.842   2.712  11.580 -0.2231 -1.2799 -0.7750
63434SOL     OW97351   0.549  10.400  12.229 -0.3393  0.3811 -0.5622
63434SOL    HW197352   0.563  10.471  12.166 -1.7942 -0.3158 -1.7118
63434SOL    HW297353   0.574  10.439  12.313 -0.7169  2.1489 -1.2064
63435SOL     OW97354  11.803  11.831   4.236  0.3588  0.1587  0.0162
63435SOL    HW197355  11.771  11.921   4.233  2.1404  0.8867  1.1702
63435SOL    HW297356  11.749  11.787   4.301 -1.1525  0.0757 -1.2353
63436SOL     OW97357   5.186  11.509   5.195 -0.0348 -0.1862  0.0176
63436SOL    HW197358   5.274  11.474   5.178  0.7253  1.0041  1.3172
63436SOL    HW297359   5.152  11.531   5.108  0.8731 -0.8262 -0.5219
63437SOL     OW97360   3.600   1.816   1.866 -0.1661  0.4282  0.7709
63437SOL    HW197361   3.608   1.909   1.887 -0.1979  0.2350  1.6534
63437SOL    HW297362   3.559   1.815   1.779  0.5289  1.2446  0.4094
63438SOL     OW97363   1.588   7.826  12.034 -0.0916 -0.1540 -0.6057
63438SOL    HW197364   1.518   7.812  12.097  0.4595 -2.1092 -0.3484
63438SOL    HW297365   1.546   7.813  11.949 -0.1639 -0.7920 -0.4779
63439SOL     OW97366   3.756   2.800   5.141  1.0535 -0.5471  0.1997
63439SOL    HW197367   3.724   2.888   5.160  0.4668 -0.5849 -0.5725
63439SOL    HW297368   3.736   2.750   5.220  0.4801 -0.2318  0.2607
63440SOL     OW97369   9.932   1.615   1.417 -0.2633 -0.3153 -0.1357
63440SOL    HW197370   9.866   1.627   1.349 -0.9389 -2.4406  0.0655
63440SOL    HW297371  10.011   1.587   1.370  0.4474  1.8772 -0.3420
63441SOL     OW97372  10.800   2.613   4.714 -0.2447 -0.7640 -0.1510
63441SOL    HW197373  10.784   2.544   4.778  2.3939 -2.1265 -0.8305
63441SOL    HW297374  10.808   2.693   4.767  1.3199 -1.7623  1.2054
63442SOL     OW97375   4.672  10.238   2.066 -0.3955  0.3521 -0.9179
63442SOL    HW197376   4.595  10.182   2.060 -0.0349 -0.5246  1.5074
63442SOL    HW297377   4.737  10.194   2.012 -0.6712 -0.6201 -0.4839
63443SOL     OW97378   4.455   6.202   1.746 -0.1603 -0.1149 -0.1579
63443SOL    HW197379   4.548   6.191   1.727 -0.3731 -0.7845 -0.8858
63443SOL    HW297380   4.452   6.265   1.818  0.8652 -0.3093  0.0719
63444SOL     OW97381   9.410   6.741   0.935  0.1967 -0.2367  0.0412
63444SOL    HW197382   9.376   6.820   0.892  1.5038 -0.3472 -1.2744
63444SOL    HW297383   9.394   6.756   1.028 -0.1698  1.2912 -0.2303
63445SOL     OW97384   9.433   4.464   4.381 -0.4514  0.0313 -0.2905
63445SOL    HW197385   9.485   4.543   4.397 -0.7222  0.4119 -1.1860
63445SOL    HW297386   9.353   4.476   4.432 -0.7509  0.6303 -0.8729
63446SOL     OW97387   8.758  12.090   9.037  0.0337  0.0514  0.3575
63446SOL    HW197388   8.739  12.047   9.120  0.5332 -0.4603  0.2092
63446SOL    HW297389   8.748  12.184   9.056 -1.2980 -0.1216  0.6187
63447SOL     OW97390  10.209   1.773   0.849  0.6239  0.1850  0.2420
63447SOL    HW197391  10.287   1.760   0.903  0.9532  1.0768  0.0064
63447SOL    HW297392  10.238   1.833   0.780 -0.4569  1.0859  0.5484
63448SOL     OW97393   6.341   3.031  11.232  0.5004  0.0697 -0.1737
63448SOL    HW197394   6.256   3.073  11.240 -0.2545 -1.4443  0.1026
63448SOL    HW297395   6.399   3.099  11.198 -1.0600  0.8548 -1.3791
63449SOL     OW97396  10.916   8.934   6.163 -0.7321  0.2145  0.4943
63449SOL    HW197397  10.984   8.971   6.219 -0.3360  0.6310 -0.2553
63449SOL    HW297398  10.950   8.849   6.137 -0.4144  0.4944 -0.0189
63450SOL     OW97399  10.748   8.037   8.054  0.3064 -0.1284 -0.2977
63450SOL    HW197400  10.830   8.031   8.006  0.1007  0.0400 -0.6687
63450SOL    HW297401  10.688   8.085   7.996  0.2083  0.5291  0.3213
63451SOL     OW97402   7.821   4.829   0.146  0.0339 -0.2772 -0.4051
63451SOL    HW197403   7.824   4.924   0.155 -1.6565 -0.2919  0.7035
63451SOL    HW297404   7.843   4.797   0.234 -0.7358 -0.8711 -0.4218
63452SOL     OW97405   0.762  11.874  11.164  0.3433 -0.3818  0.0441
63452SOL    HW197406   0.741  11.965  11.142  0.4896 -0.5269 -0.7349
63452SOL    HW297407   0.676  11.833  11.176  0.2695 -0.2032  0.1356
63453SOL     OW97408   7.855   1.603   9.301 -0.5199 -0.2896  0.0125
63453SOL    HW197409   7.859   1.605   9.397 -0.6859  0.7033  0.0084
63453SOL    HW297410   7.941   1.635   9.273 -0.3148 -0.9815 -0.1861
63454SOL     OW97411   5.086  11.637   7.246  0.0876 -0.2489  0.5131
63454SOL    HW197412   4.992  11.620   7.249  0.2002 -1.0916 -0.2058
63454SOL    HW297413   5.102  11.663   7.155  0.7856 -1.6431  0.2159
63455SOL     OW97414  11.919  11.515   1.951 -0.0548 -0.3074  0.2796
63455SOL    HW197415  12.010  11.531   1.974  0.1822 -2.7777  1.4668
63455SOL    HW297416  11.915  11.526   1.856  1.9705 -1.9613 -0.0800
63456SOL     OW97417  12.575  11.215   2.432  0.4860  0.3695 -0.1172
63456SOL    HW197418  12.571  11.173   2.347 -0.0780 -1.9797  0.9950
63456SOL    HW297419  12.486  11.247   2.449  0.0016 -1.2553  0.5451
63457SOL     OW97420  11.945   1.218   8.616  0.2399  0.0682 -0.3851
63457SOL    HW197421  11.994   1.298   8.632 -0.0764 -0.1749  2.2982
63457SOL    HW297422  12.010   1.156   8.582  0.8407  0.9661 -0.8967
63458SOL     OW97423   0.469   4.183   9.654 -0.2727 -0.1874  0.1249
63458SOL    HW197424   0.444   4.154   9.742  0.3482 -0.6433  0.1625
63458SOL    HW297425   0.565   4.185   9.656 -0.2788  0.9111 -0.1980
63459SOL     OW97426   7.051   4.545   3.883 -0.3288 -0.5713  0.4698
63459SOL    HW197427   7.070   4.455   3.858 -0.1360  0.0264 -1.7670
63459SOL    HW297428   6.955   4.548   3.889 -0.5282 -0.4796 -1.6720
63460SOL     OW97429   9.976  10.823   5.530 -0.1617 -0.2006  0.3436
63460SOL    HW197430  10.053  10.766   5.538  0.0679  0.2138  1.1529
63460SOL    HW297431  10.009  10.900   5.483  0.1108  0.3063  1.3429
63461SOL     OW97432   5.712   6.460   1.445 -0.4164 -0.2743 -0.0697
63461SOL    HW197433   5.778   6.524   1.417 -1.2597  0.7075  0.1286
63461SOL    HW297434   5.713   6.465   1.541  1.2568 -2.3905  0.1056
63462SOL     OW97435  11.856   0.202   0.218 -0.0871 -0.3985 -0.1411
63462SOL    HW197436  11.775   0.252   0.210  0.1068  0.0802  0.7889
63462SOL    HW297437  11.924   0.268   0.232  0.1718 -0.9029  1.1322
63463SOL     OW97438   0.926   2.544   6.006  0.4751 -0.2938 -0.6097
63463SOL    HW197439   0.876   2.624   6.025 -0.0699 -0.8222  0.2686
63463SOL    HW297440   0.863   2.486   5.962 -0.3981 -1.7478  2.2957
63464SOL     OW97441   1.763   9.610   9.891 -0.4210 -0.3847 -0.9935
63464SOL    HW197442   1.808   9.526   9.893 -1.3586 -0.8881 -0.5081
63464SOL    HW297443   1.808   9.664   9.956 -1.1479 -1.2190  0.2252
63465SOL     OW97444   0.061   6.634  10.581  0.6732 -0.9088 -0.5755
63465SOL    HW197445   0.016   6.665  10.659 -1.3385  1.5741 -2.5103
63465SOL    HW297446   0.151   6.666  10.590  0.0178  0.9079 -0.0087
63466SOL     OW97447  12.578   3.037   2.614  0.0363 -0.2893  0.0294
63466SOL    HW197448  12.636   3.067   2.684 -1.1325 -1.1283  1.3903
63466SOL    HW297449  12.636   3.027   2.538  1.8899 -1.9778  1.5636
63467SOL     OW97450   7.331  11.874   2.711  0.1096 -0.0319  0.3592
63467SOL    HW197451   7.258  11.934   2.695  1.7185  1.5379 -1.5166
63467SOL    HW297452   7.346  11.880   2.806 -1.0970  0.8873  0.5196
63468SOL     OW97453   6.151   0.910   8.769  0.1122  0.0683  0.1531
63468SOL    HW197454   6.177   0.829   8.725 -3.2656 -0.2514 -1.6393
63468SOL    HW297455   6.055   0.910   8.764 -0.1876  2.7810  2.7635
63469SOL     OW97456   9.921  10.594  11.149 -0.2365  0.6352 -0.0874
63469SOL    HW197457   9.950  10.543  11.074 -0.4324 -0.3929  0.5250
63469SOL    HW297458   9.830  10.567  11.163 -0.3430  1.1485  0.2507
63470SOL     OW97459   3.797   7.730   2.987  0.1598  0.3739 -0.4903
63470SOL    HW197460   3.741   7.688   2.922 -0.6775  1.9635 -0.8234
63470SOL    HW297461   3.862   7.662   3.009 -0.4876 -0.7221 -1.7902
63471SOL     OW97462   0.871   5.266   2.085 -0.1783 -0.2604  0.0474
63471SOL    HW197463   0.879   5.284   1.992  1.3548  2.2604  0.5414
63471SOL    HW297464   0.946   5.210   2.106 -1.3692 -2.1164 -0.4190
63472SOL     OW97465   5.107  11.219   5.356 -0.0380 -0.8729 -0.3953
63472SOL    HW197466   5.141  11.308   5.364  1.8831 -1.4312 -1.8284
63472SOL    HW297467   5.021  11.231   5.314  0.9031  0.2209 -2.1186
63473SOL     OW97468   6.290   2.383  10.026 -0.1281  0.2433  0.6523
63473SOL    HW197469   6.224   2.333   9.978 -1.1199  2.4696 -0.4524
63473SOL    HW297470   6.352   2.411   9.959  0.6641  0.1334  1.3235
63474SOL     OW97471   8.030  10.718   4.233 -0.6933  0.4167  0.0110
63474SOL    HW197472   8.035  10.646   4.171 -1.5005 -0.6374  1.1200
63474SOL    HW297473   7.952  10.767   4.206 -2.2852 -1.2200  1.3179
63475SOL     OW97474   5.380   0.916  12.419  0.2051 -0.4945  0.3767
63475SOL    HW197475   5.313   0.959  12.365 -1.4441 -0.2930  2.4391
63475SOL    HW297476   5.458   0.970  12.408 -1.2826  2.0938  1.4466
63476SOL     OW97477  10.445   3.507   4.752  1.0143  0.2194 -0.3903
63476SOL    HW197478  10.445   3.601   4.771 -0.2949  0.2116 -0.2238
63476SOL    HW297479  10.490   3.499   4.668 -0.7943  1.2878 -1.5339
63477SOL     OW97480   9.084  11.716   5.909  0.1208 -0.1195  0.6367
63477SOL    HW197481   9.139  11.793   5.927 -0.1713  0.4395 -0.7431
63477SOL    HW297482   9.146  11.642   5.910  0.3999  0.1056  1.9840
63478SOL     OW97483   4.270   7.742   0.636 -0.2772 -0.8808  0.4195
63478SOL    HW197484   4.306   7.806   0.697  0.2039 -0.3564 -0.3994
63478SOL    HW297485   4.343   7.684   0.616  0.1701  0.2180 -1.2879
63479SOL     OW97486  11.906   1.592   6.805  0.3817  0.5281  0.4075
63479SOL    HW197487  11.883   1.682   6.829  0.2135  0.3302  0.9925
63479SOL    HW297488  11.835   1.564   6.747  0.2009  0.6173  0.5845
63480SOL     OW97489   6.872   8.308   6.199 -1.1710  0.1936 -0.1803
63480SOL    HW197490   6.799   8.281   6.255 -1.7385  0.1700 -0.9173
63480SOL    HW297491   6.933   8.234   6.202 -1.7342 -0.2910 -0.4997
63481SOL     OW97492  11.378   9.484  10.844  0.3937 -0.3687 -0.4375
63481SOL    HW197493  11.431   9.413  10.808  0.2448 -0.7996  0.1762
63481SOL    HW297494  11.421   9.564  10.815  0.0779 -0.6943 -1.8687
63482SOL     OW97495   4.618   8.662   0.317 -0.2391 -0.6752 -0.3060
63482SOL    HW197496   4.551   8.597   0.338 -0.6206 -0.4496 -0.7903
63482SOL    HW297497   4.672   8.669   0.396 -0.9103 -0.7136  0.1618
63483SOL     OW97498   4.462   6.158   5.441 -0.3502 -0.7332 -0.3767
63483SOL    HW197499   4.489   6.127   5.528 -1.0996  0.8808  0.4834
63483SOL    HW297500   4.536   6.212   5.412 -0.9642  0.5167  0.2709
63484SOL     OW97501   6.813   1.732   0.497  0.3962  0.3128  0.0577
63484SOL    HW197502   6.809   1.679   0.418  1.1554 -0.2295  0.3716
63484SOL    HW297503   6.782   1.674   0.567  0.8661  0.4035  0.3445
63485SOL     OW97504  11.431   7.507   1.086 -0.3375  0.5675 -0.2308
63485SOL    HW197505  11.427   7.416   1.115 -0.8139  0.3337 -0.9824
63485SOL    HW297506  11.452   7.502   0.993 -1.3594  1.1744 -0.5151
63486SOL     OW97507   1.419   3.517   8.596 -0.1306  0.3925 -0.0247
63486SOL    HW197508   1.444   3.575   8.524  0.2949 -0.2614 -0.4103
63486SOL    HW297509   1.494   3.519   8.655  0.5195 -0.8755 -0.7498
63487SOL     OW97510   6.265  12.361   6.682 -0.0699 -0.4302 -0.1012
63487SOL    HW197511   6.291  12.272   6.707 -2.0267 -0.8467  0.6870
63487SOL    HW297512   6.341  12.397   6.638  0.7626 -2.5216 -0.4990
63488SOL     OW97513   1.819   5.240   9.265 -0.3375 -0.3306 -0.1344
63488SOL    HW197514   1.864   5.324   9.277  0.6109 -0.9817  1.0816
63488SOL    HW297515   1.750   5.241   9.332 -1.6977  0.3408 -1.4941
63489SOL     OW97516   1.968   4.614   2.613  0.1783 -0.3868  0.1338
63489SOL    HW197517   2.044   4.668   2.597  0.1452 -0.1646  0.6912
63489SOL    HW297518   1.998   4.546   2.674  0.1244 -0.7698 -0.2569
63490SOL     OW97519   9.233   5.073   9.836  0.1284  0.5422  0.3628
63490SOL    HW197520   9.288   5.068   9.758 -1.4521  0.6428 -0.8098
63490SOL    HW297521   9.188   4.989   9.839 -0.1269  0.6923  0.9298
63491SOL     OW97522  10.041   8.572  11.516 -0.3941  0.9098  0.0945
63491SOL    HW197523  10.112   8.598  11.458  0.1449  0.6742  0.6371
63491SOL    HW297524  10.084   8.547  11.597 -1.1028  0.8059  0.4503
63492SOL     OW97525   6.190   1.172   4.361 -0.1499 -0.3337  0.0847
63492SOL    HW197526   6.162   1.207   4.276 -1.3963 -0.0670  0.5768
63492SOL    HW297527   6.161   1.238   4.424  1.4272 -0.1685  0.6811
63493SOL     OW97528   3.021   7.574   8.313  0.5791  0.2845 -0.0704
63493SOL    HW197529   2.983   7.506   8.368 -0.1615  1.4998  0.9746
63493SOL    HW297530   3.015   7.538   8.224 -0.9230 -0.5163  0.3154
63494SOL     OW97531   1.042  12.003  12.082 -0.2091  0.0502  0.0249
63494SOL    HW197532   1.116  12.063  12.075  0.8308 -1.0809  0.8648
63494SOL    HW297533   1.004  12.021  12.168 -1.0593  0.7466 -0.4707
63495SOL     OW97534   4.336   6.336   8.824 -0.3879  0.0795  0.2548
63495SOL    HW197535   4.428   6.355   8.838 -0.4306  0.6754 -0.2675
63495SOL    HW297536   4.332   6.241   8.814 -0.0653 -0.1617  1.9985
63496SOL     OW97537   2.533   2.652   8.762  0.2358  0.5405 -0.2336
63496SOL    HW197538   2.616   2.683   8.727  0.5795 -0.5709 -0.4444
63496SOL    HW297539   2.476   2.643   8.686 -0.1069  1.3471 -0.0847
63497SOL     OW97540  10.192   4.714   9.896  0.1625  0.5768 -0.2311
63497SOL    HW197541  10.229   4.799   9.918  1.0941 -0.1739  1.2617
63497SOL    HW297542  10.102   4.733   9.868  0.5414  2.0886 -0.4700
63498SOL     OW97543   0.658   1.252  11.357  0.6003  0.1837  0.1359
63498SOL    HW197544   0.565   1.273  11.355  0.5826  0.1613  0.5854
63498SOL    HW297545   0.678   1.243  11.450  1.0495  0.1819  0.0403
63499SOL     OW97546  10.412  12.398  12.436  0.2980  0.2718 -0.0729
63499SOL    HW197547  10.495  12.442  12.417  0.7132 -0.5357 -0.1606
63499SOL    HW297548  10.413  12.319  12.382 -0.8348  0.5817 -0.5955
63500SOL     OW97549   5.270  10.600   3.131 -0.1455  0.4523 -0.1968
63500SOL    HW197550   5.182  10.606   3.168 -0.4440  0.5902 -0.9177
63500SOL    HW297551   5.258  10.615   3.037  0.6087  0.1798 -0.3444
63501SOL     OW97552   2.231   4.713   2.579  0.1660  0.3805 -0.1975
63501SOL    HW197553   2.298   4.653   2.546  1.4968  1.9310 -0.4433
63501SOL    HW297554   2.203   4.763   2.502  0.5894  1.4881  0.3527
63502SOL     OW97555   7.006   5.529   4.238 -0.3831  0.2001  0.4664
63502SOL    HW197556   7.075   5.476   4.278 -0.7570  0.7199  1.8801
63502SOL    HW297557   6.940   5.538   4.307 -1.0305  1.2126 -0.2565
63503SOL     OW97558   9.567   3.239   0.194 -0.3580  0.4184  0.7196
63503SOL    HW197559   9.557   3.147   0.218  0.0205  0.7679  2.3206
63503SOL    HW297560   9.516   3.287   0.260  1.7571  1.4936  1.6796
63504SOL     OW97561  11.971   7.924   5.581 -0.5161  0.6470  0.2760
63504SOL    HW197562  11.980   7.858   5.649  0.8646  0.6627  0.1262
63504SOL    HW297563  11.902   7.891   5.524 -1.8963  0.7563  1.7977
63505SOL     OW97564   8.407  10.430   0.038  0.2031 -0.5196  0.2883
63505SOL    HW197565   8.454  10.450  -0.043  1.4942 -0.6209  0.9815
63505SOL    HW297566   8.470  10.450   0.107 -1.0194 -0.0427  1.2918
63506SOL     OW97567   2.169   1.425   4.079 -0.0543  0.0646 -0.2069
63506SOL    HW197568   2.220   1.421   3.998  0.1393 -0.1405 -0.0780
63506SOL    HW297569   2.139   1.515   4.084 -2.4158 -0.5242 -1.9209
63507SOL     OW97570   9.912   1.917   9.102  0.7560 -0.0356 -0.0108
63507SOL    HW197571   9.868   1.973   9.166  1.1484  0.0553  0.1838
63507SOL    HW297572   9.843   1.887   9.044  0.3992 -0.1042  0.4471
63508SOL     OW97573   5.617   1.489   3.057  0.4139 -0.2604 -0.1147
63508SOL    HW197574   5.674   1.551   3.102  0.4623 -0.0345 -0.4805
63508SOL    HW297575   5.534   1.493   3.105  0.2155  0.5568 -0.5101
63509SOL     OW97576   2.624   1.569   8.159 -0.0057 -0.3488  0.1603
63509SOL    HW197577   2.573   1.624   8.099  1.0066  0.8377  0.3365
63509SOL    HW297578   2.654   1.496   8.105  2.8078  1.8365 -1.5022
63510SOL     OW97579   2.973   1.253  11.047 -0.2422  0.0785 -0.3820
63510SOL    HW197580   3.020   1.317  11.102 -1.7201  0.8424  0.0575
63510SOL    HW297581   2.966   1.175  11.102 -1.9524  0.9271  0.7165
63511SOL     OW97582  10.540   3.685   4.117 -0.2318 -0.0297  0.6577
63511SOL    HW197583  10.496   3.767   4.097  0.8077  0.3540 -0.1298
63511SOL    HW297584  10.469   3.627   4.146 -1.4541  0.2518 -1.5127
63512SOL     OW97585  11.597   5.863   5.186 -0.4704 -0.0882 -0.0186
63512SOL    HW197586  11.587   5.929   5.118 -0.3952  1.0103  1.0029
63512SOL    HW297587  11.680   5.884   5.228 -1.6412  0.8582  2.0224
63513SOL     OW97588   9.220   3.999   8.667  0.6634  0.0584  0.4608
63513SOL    HW197589   9.191   4.058   8.737  1.8012 -1.0023  1.8990
63513SOL    HW297590   9.278   3.937   8.711 -0.3740 -2.0629 -1.0169
63514SOL     OW97591   5.009   2.790   5.899 -0.6416 -0.5118 -0.6435
63514SOL    HW197592   5.104   2.793   5.887 -0.8607 -0.8398 -3.1317
63514SOL    HW297593   4.994   2.709   5.948  0.3601 -0.3795 -0.0900
63515SOL     OW97594   1.524  11.849   8.531 -0.0753  0.0188 -0.2514
63515SOL    HW197595   1.539  11.763   8.491 -0.4272 -0.0849 -0.1613
63515SOL    HW297596   1.607  11.870   8.574 -0.5841 -1.1662  1.4019
63516SOL     OW97597   3.665  10.382   3.295 -0.1280  0.3526  0.3017
63516SOL    HW197598   3.695  10.385   3.386  0.0789 -2.2876  0.4026
63516SOL    HW297599   3.595  10.447   3.290  1.2383  2.0244  1.7701
63517SOL     OW97600   4.800   6.179   4.168 -0.4030 -0.0006  0.0893
63517SOL    HW197601   4.755   6.110   4.215  0.5313 -1.0364 -0.4908
63517SOL    HW297602   4.893   6.159   4.178 -0.1089  1.1267 -0.1639
63518SOL     OW97603   4.677   8.056   4.721  0.1730 -0.1106 -0.1229
63518SOL    HW197604   4.685   7.991   4.791 -0.1672 -0.0720 -0.0499
63518SOL    HW297605   4.682   8.140   4.765  0.2592 -0.0850 -0.1798
63519SOL     OW97606   6.880   3.862   4.194 -0.2801 -0.2273  0.5404
63519SOL    HW197607   6.808   3.831   4.249 -0.5597 -1.1342 -0.3253
63519SOL    HW297608   6.912   3.784   4.149  0.9236  0.2450  0.5174
63520SOL     OW97609   2.475   1.329  10.581 -0.1291 -0.3250  0.3538
63520SOL    HW197610   2.548   1.370  10.628  0.5395  1.2916 -1.8727
63520SOL    HW297611   2.405   1.394  10.585 -0.7957 -1.0497  0.8152
63521SOL     OW97612   8.980   5.849  12.530  0.0216  0.0920 -0.1529
63521SOL    HW197613   9.073   5.857  12.512  0.2136 -1.0879  0.2717
63521SOL    HW297614   8.946   5.797  12.457 -0.1552 -0.1644  0.1123
63522SOL     OW97615   2.685   8.042  10.167 -0.2739 -0.3538 -0.4437
63522SOL    HW197616   2.751   8.085  10.113 -1.4186  2.1673  0.0392
63522SOL    HW297617   2.735   7.981  10.221  1.8134  1.8216  0.2747
63523SOL     OW97618   4.657  11.915   9.356 -0.2228  0.1733 -0.1512
63523SOL    HW197619   4.724  11.850   9.332 -2.3113 -1.0214 -3.5813
63523SOL    HW297620   4.599  11.869   9.416  0.5383  0.3221  0.7179
63524SOL     OW97621   1.608   0.099   0.310  0.4374  0.7913  0.1671
63524SOL    HW197622   1.574   0.112   0.399 -0.9758 -0.1989 -0.1880
63524SOL    HW297623   1.563   0.166   0.258  0.0791  0.3695 -0.0667
63525SOL     OW97624  10.501  11.157   9.853  0.0276  0.0805  0.2094
63525SOL    HW197625  10.566  11.110   9.906  0.1750  0.2447  0.1766
63525SOL    HW297626  10.426  11.097   9.848  1.2395 -1.3936 -2.2194
63526SOL     OW97627   3.058   9.365   5.998  0.2080 -0.0341 -0.1201
63526SOL    HW197628   3.054   9.271   5.980 -2.4220  0.0560 -0.4556
63526SOL    HW297629   3.102   9.371   6.083 -0.5195 -1.6716  0.4085
63527SOL     OW97630   5.055   9.503   3.133 -0.3892  0.5956 -0.6891
63527SOL    HW197631   5.031   9.580   3.183  0.2155  1.4902 -1.7327
63527SOL    HW297632   5.123   9.533   3.072 -1.2020 -0.3788 -2.1591
63528SOL     OW97633  12.020  12.527  12.211 -0.5240 -0.1623  0.0752
63528SOL    HW197634  12.102  12.491  12.178 -1.3862 -2.8704  0.5542
63528SOL    HW297635  11.973  12.555  12.132  0.2160 -0.0934 -0.3457
63529SOL     OW97636  12.564   6.083   1.525  0.1869  0.1308 -0.1222
63529SOL    HW197637  12.548   6.114   1.615  1.1364  1.1772 -0.2886
63529SOL    HW297638  12.507   6.138   1.471 -1.5590 -1.5410 -0.0686
63530SOL     OW97639   2.194   8.241   7.547 -0.0611  0.1243 -0.3900
63530SOL    HW197640   2.220   8.149   7.544  0.4316  0.2290  0.2658
63530SOL    HW297641   2.269   8.285   7.586 -0.9340  0.5532  0.8875
63531SOL     OW97642  12.455   4.876   6.348 -0.0205 -0.1283  0.6907
63531SOL    HW197643  12.519   4.931   6.394 -0.0703 -1.5978  2.6647
63531SOL    HW297644  12.383   4.936   6.327  1.1794  1.1597  0.0955
63532SOL     OW97645   9.135   2.101  12.566 -0.3828 -0.0556 -0.0203
63532SOL    HW197646   9.138   2.006  12.576 -0.5046 -0.0678 -0.0898
63532SOL    HW297647   9.216   2.123  12.520 -0.8515 -0.2501 -0.9579
63533SOL     OW97648   0.269   0.139  10.909  0.3126  0.3502 -0.3085
63533SOL    HW197649   0.258   0.132  10.815 -0.6118  1.4267 -0.2935
63533SOL    HW297650   0.233   0.056  10.943  0.0168  0.2513 -0.8514
63534SOL     OW97651  11.726  10.178  11.055 -0.3483  0.3297  0.3319
63534SOL    HW197652  11.681  10.245  11.003 -0.1896  1.6805  1.8331
63534SOL    HW297653  11.654  10.130  11.098 -0.4726 -0.6854 -0.9609
63535SOL     OW97654   6.432   5.304  12.157  0.5125  0.2108  0.1451
63535SOL    HW197655   6.520   5.273  12.138  0.8423  1.2331 -0.0818
63535SOL    HW297656   6.445   5.383  12.210 -0.1604  1.5137 -1.5146
63536SOL     OW97657   2.851   3.000   1.617 -0.0326  0.0379  0.4254
63536SOL    HW197658   2.914   2.996   1.545 -0.8782  0.0703 -0.3395
63536SOL    HW297659   2.901   2.975   1.695  1.0343  0.5247 -0.0832
63537SOL     OW97660   2.284   9.950   5.116  0.0570  0.5919  0.0331
63537SOL    HW197661   2.338  10.013   5.068  0.3560 -0.7722 -1.5280
63537SOL    HW297662   2.199   9.992   5.124  0.1577  1.0851 -1.2638
63538SOL     OW97663  11.038   4.294   6.320 -0.3571 -0.1980  0.1645
63538SOL    HW197664  11.002   4.209   6.294 -2.2743  0.4846  0.4611
63538SOL    HW297665  10.961   4.349   6.336  0.8341  1.8492 -0.7872
63539SOL     OW97666   0.562   1.321   9.363 -0.0945  0.1995  0.2175
63539SOL    HW197667   0.567   1.258   9.291 -0.8372  0.7399 -0.3320
63539SOL    HW297668   0.479   1.302   9.406 -0.9182  1.5307 -0.6934
63540SOL     OW97669   8.569   0.457   9.318 -0.3501  0.1715  0.6656
63540SOL    HW197670   8.614   0.461   9.234 -0.0515  1.3616  0.8602
63540SOL    HW297671   8.524   0.373   9.318 -0.2792  0.1226 -0.6488
63541SOL     OW97672   4.680   5.662   8.116  0.0427  0.3760  0.3727
63541SOL    HW197673   4.665   5.679   8.023  0.7097  1.2841  0.4189
63541SOL    HW297674   4.774   5.643   8.121 -0.1206 -0.3680  0.7716
63542SOL     OW97675   0.445   5.599  11.319  0.1622  0.1871 -0.2376
63542SOL    HW197676   0.517   5.628  11.263 -0.5150  0.1930 -1.1060
63542SOL    HW297677   0.373   5.659  11.300  0.5774  1.6481  2.2798
63543SOL     OW97678   4.406  10.544   8.928  0.3656 -0.5788 -0.1734
63543SOL    HW197679   4.321  10.560   8.969 -0.2818 -2.7896 -0.5066
63543SOL    HW297680   4.436  10.630   8.900 -0.5797  0.6001  2.1539
63544SOL     OW97681   4.496   5.959   3.206  0.2558 -0.2183  0.6514
63544SOL    HW197682   4.424   6.000   3.254  0.7299 -0.0385  1.2297
63544SOL    HW297683   4.575   5.994   3.247  0.8304  2.8833 -2.6126
63545SOL     OW97684  11.036   5.278   6.096  0.3538  0.0255  0.1764
63545SOL    HW197685  11.113   5.221   6.101  0.0758 -0.4342 -0.5545
63545SOL    HW297686  10.980   5.249   6.169 -1.1866 -2.8054 -1.9177
63546SOL     OW97687   4.053   1.551   9.151  0.5530 -0.0400  0.7833
63546SOL    HW197688   4.120   1.593   9.204  0.5388  0.4554  0.4169
63546SOL    HW297689   4.001   1.501   9.214  0.7519  0.2487  1.1860
63547SOL     OW97690   1.865   7.409  12.355  0.0581  0.1329  0.5337
63547SOL    HW197691   1.916   7.489  12.343  0.9362 -0.6784 -1.6702
63547SOL    HW297692   1.774   7.438  12.355  0.3768  1.1729  0.1879
63548SOL     OW97693   4.344   1.989   3.882  0.2793 -0.7395 -0.1781
63548SOL    HW197694   4.286   2.051   3.926  1.0302 -1.1974  1.5048
63548SOL    HW297695   4.371   2.035   3.802  0.6372  1.0322  0.9012
63549SOL     OW97696   8.085   9.342   5.950 -0.2945  0.6201  0.2769
63549SOL    HW197697   8.170   9.325   5.910 -0.7066 -2.5994  0.4852
63549SOL    HW297698   8.022   9.336   5.878 -0.4849  1.7870  0.3244
63550SOL     OW97699   3.571  11.732   8.088 -0.2228  0.0883  0.5423
63550SOL    HW197700   3.499  11.677   8.118  0.8030 -1.8389 -0.3738
63550SOL    HW297701   3.648  11.675   8.090  0.9661  1.5878 -0.1511
63551SOL     OW97702  10.086   9.393   7.719  0.2369  0.3573 -0.1972
63551SOL    HW197703  10.128   9.313   7.751 -0.4629  0.0929  0.1032
63551SOL    HW297704  10.150   9.434   7.662 -0.1199 -1.4691 -2.0223
63552SOL     OW97705  12.222   9.412   2.654  0.2053  0.0368  0.2371
63552SOL    HW197706  12.312   9.408   2.684  1.2375  0.1424 -2.5676
63552SOL    HW297707  12.203   9.324   2.622 -1.2019 -0.3485  1.9649
63553SOL     OW97708   2.561   0.572  11.532 -0.2342  0.0611  0.3292
63553SOL    HW197709   2.548   0.601  11.442  0.7434  0.9465  0.4552
63553SOL    HW297710   2.561   0.476  11.527 -1.3326  0.0908 -0.4239
63554SOL     OW97711   9.845   7.800   2.501 -0.5100  0.3595 -0.6206
63554SOL    HW197712   9.870   7.816   2.410  2.4489  0.0167  0.0320
63554SOL    HW297713   9.892   7.720   2.525 -1.1439  0.5025  1.2226
63555SOL     OW97714   2.732  10.001   0.485 -0.5245 -0.2016 -0.3795
63555SOL    HW197715   2.762  10.092   0.490  0.7101 -0.3078 -3.4264
63555SOL    HW297716   2.672   9.992   0.558 -1.0305  3.1960 -0.1851
63556SOL     OW97717  11.955   6.496   5.136  0.5447  0.0524  0.0026
63556SOL    HW197718  11.902   6.444   5.197  0.1342  1.1925  0.6430
63556SOL    HW297719  11.902   6.574   5.119  0.1887 -0.6668 -2.6250
63557SOL     OW97720   7.723  11.796  11.851 -0.1926 -0.5965  0.2885
63557SOL    HW197721   7.684  11.790  11.938  0.0520 -1.4218  0.3518
63557SOL    HW297722   7.814  11.770  11.864  0.4236  1.3451  0.1477
63558SOL     OW97723  12.471   6.132   3.972  0.0150  0.5411 -0.4683
63558SOL    HW197724  12.412   6.121   3.897 -1.9713 -0.0380  1.0928
63558SOL    HW297725  12.443   6.065   4.034  0.6799  1.8745  1.3516
63559SOL     OW97726   1.212   3.422  11.080  0.0864 -0.1596 -0.6377
63559SOL    HW197727   1.293   3.469  11.060  0.9326 -1.2048  0.2012
63559SOL    HW297728   1.236   3.363  11.151 -1.4102 -0.5351 -0.4217
63560SOL     OW97729  12.573   5.046   6.703 -0.2325 -1.0144 -0.1996
63560SOL    HW197730  12.551   5.002   6.622  1.2441 -0.1044 -1.1421
63560SOL    HW297731  12.665   5.024   6.718 -0.4389 -1.0402  1.1420
63561SOL     OW97732   7.218   8.969  10.034  0.0078 -0.4099 -0.3630
63561SOL    HW197733   7.142   8.919  10.063 -0.0557  0.8657  2.0092
63561SOL    HW297734   7.197   8.997   9.945 -1.2862 -1.9569 -0.5726
63562SOL     OW97735   6.473   1.082   8.065 -0.3039 -0.5991 -1.1188
63562SOL    HW197736   6.534   1.150   8.093 -1.1794 -0.5792  0.9101
63562SOL    HW297737   6.483   1.013   8.131 -3.6339  0.1244  0.3612
63563SOL     OW97738   5.726   6.860   0.638 -0.3100 -0.2187 -0.0463
63563SOL    HW197739   5.653   6.918   0.660  0.8452  1.2739 -0.0264
63563SOL    HW297740   5.738   6.872   0.543  0.6102  0.4140  0.1384
63564SOL     OW97741   5.159   1.837  11.950  0.7322  0.1944  0.3991
63564SOL    HW197742   5.147   1.826  11.855  2.1234 -0.2474  0.2505
63564SOL    HW297743   5.154   1.931  11.963  1.2337  0.3163 -0.2281
63565SOL     OW97744   9.821   8.016   4.420  0.3034  0.4922  0.2132
63565SOL    HW197745   9.734   7.976   4.420  0.3350  0.4204  0.1422
63565SOL    HW297746   9.852   8.007   4.510  0.8059 -0.7385 -0.0593
63566SOL     OW97747  10.926   0.661   9.143 -0.1858 -0.1365  0.2852
63566SOL    HW197748  10.994   0.600   9.114  0.6812  0.6859  0.5156
63566SOL    HW297749  10.941   0.740   9.091 -2.0047 -0.4707 -0.8281
63567SOL     OW97750   8.071   8.978   9.622 -0.0928 -0.4012 -0.5189
63567SOL    HW197751   8.147   9.036   9.627  0.8490 -1.5718 -0.6277
63567SOL    HW297752   7.997   9.036   9.606  0.5799  0.9098  0.8459
63568SOL     OW97753   4.053   2.997   4.986 -0.3631  0.5188  0.8487
63568SOL    HW197754   3.975   2.974   4.936  0.1955  0.7248 -0.1433
63568SOL    HW297755   4.088   2.914   5.016 -0.6581  0.3835  0.8211
63569SOL     OW97756   0.169   1.996   0.902 -0.0231 -0.1240  0.1040
63569SOL    HW197757   0.122   1.995   0.818  0.1811 -1.6852 -0.0248
63569SOL    HW297758   0.261   2.006   0.878  0.1523 -1.5814  0.0225
63570SOL     OW97759   6.614   6.676   9.224 -0.6547 -0.4151 -0.1066
63570SOL    HW197760   6.536   6.688   9.277 -0.3360 -1.4304  0.6380
63570SOL    HW297761   6.582   6.672   9.134 -1.1528  1.7972 -0.0796
63571SOL     OW97762   0.478   3.600   4.974  0.4266 -0.9012 -0.4398
63571SOL    HW197763   0.519   3.564   5.053  2.3702  0.8775 -0.5569
63571SOL    HW297764   0.465   3.524   4.917 -0.8350 -2.1919  1.4697
63572SOL     OW97765   4.790   5.323   0.376 -0.0066 -0.5853 -0.3242
63572SOL    HW197766   4.829   5.306   0.290 -0.1933  1.0017 -0.7522
63572SOL    HW297767   4.776   5.418   0.378 -3.3102 -0.9585  0.0297
63573SOL     OW97768   4.670   1.966   8.570  0.1785  0.3683 -0.2019
63573SOL    HW197769   4.590   2.005   8.606  0.5674  0.1479  0.9184
63573SOL    HW297770   4.655   1.965   8.475 -0.9048  0.8613 -0.0491
63574SOL     OW97771   2.420  12.261   1.424  0.6158 -0.4820 -0.5958
63574SOL    HW197772   2.458  12.343   1.457 -0.4359 -0.0104 -0.5049
63574SOL    HW297773   2.414  12.205   1.502  2.3980 -1.0978 -0.8630
63575SOL     OW97774   1.543  11.795   1.202 -0.3191 -0.6205  0.2827
63575SOL    HW197775   1.552  11.702   1.181  0.6797 -0.8023  1.3695
63575SOL    HW297776   1.455  11.804   1.237 -1.3122 -0.6681 -2.0403
63576SOL     OW97777   2.869   4.151   9.360 -0.1967  0.2789 -0.8746
63576SOL    HW197778   2.820   4.177   9.438  0.0212 -1.8263  0.0283
63576SOL    HW297779   2.953   4.195   9.368 -0.6310  1.0679 -0.5768
63577SOL     OW97780   1.717   8.726   0.200  0.0306 -0.6745  0.2651
63577SOL    HW197781   1.672   8.799   0.157  0.6483  0.7160  1.8524
63577SOL    HW297782   1.778   8.768   0.260  1.7208 -2.5219 -0.0674
63578SOL     OW97783   5.280  11.112   4.339 -0.1304 -0.0001  0.1227
63578SOL    HW197784   5.326  11.029   4.332 -2.7981 -1.6619  0.6812
63578SOL    HW297785   5.267  11.141   4.249 -1.2235 -1.4725 -0.2331
63579SOL     OW97786   8.567   1.380  11.717 -0.6867 -0.0916 -0.7295
63579SOL    HW197787   8.657   1.406  11.699 -0.6617 -0.6028 -1.3971
63579SOL    HW297788   8.527   1.457  11.757  0.0782  0.0970 -0.3212
63580SOL     OW97789   5.590   8.968   4.074 -0.1330 -0.2450  0.2648
63580SOL    HW197790   5.608   9.005   3.988 -3.6230 -0.5542 -0.7808
63580SOL    HW297791   5.631   8.881   4.073  1.6718  0.5811 -0.1898
63581SOL     OW97792   9.117   0.766   9.224  0.0889 -0.0023  0.4120
63581SOL    HW197793   9.108   0.671   9.224  1.0977 -0.1519  2.3280
63581SOL    HW297794   9.209   0.782   9.244  0.4194  1.4269 -1.8603
63582SOL     OW97795   0.677   1.695   3.617 -0.3777 -0.2745  0.3944
63582SOL    HW197796   0.760   1.721   3.575 -0.5853 -0.7938 -0.3512
63582SOL    HW297797   0.654   1.612   3.575 -1.2420 -0.1708  0.6526
63583SOL     OW97798  10.347   2.877   8.665 -0.4907 -0.1229  0.4171
63583SOL    HW197799  10.284   2.942   8.635 -0.2207 -0.4226 -0.9011
63583SOL    HW297800  10.296   2.796   8.672 -0.4910 -0.1191  0.4562
63584SOL     OW97801   1.846  11.490  11.286  0.0051 -0.1126  0.3338
63584SOL    HW197802   1.804  11.501  11.200 -0.6472 -1.7528  0.3924
63584SOL    HW297803   1.930  11.449  11.267  0.0391 -0.0912  0.4391
63585SOL     OW97804   9.616  10.533  12.056  0.7236 -0.5969  0.3325
63585SOL    HW197805   9.629  10.601  12.122  2.9200  0.5102 -1.1186
63585SOL    HW297806   9.704  10.510  12.029 -0.0022  0.8927 -4.0480
63586SOL     OW97807  11.114   6.811   9.238  0.3904  0.3023  0.2361
63586SOL    HW197808  11.021   6.826   9.256  0.1019 -1.0300 -0.0937
63586SOL    HW297809  11.126   6.717   9.250  1.7645  0.5033  0.5513
63587SOL     OW97810   3.103   1.922  12.440 -0.4231  0.0368  0.6199
63587SOL    HW197811   3.182   1.967  12.408 -1.2890  0.7791 -0.5299
63587SOL    HW297812   3.073   1.870  12.366 -2.2626  1.4969  0.2640
63588SOL     OW97813   0.617   9.215   8.297  0.1836  0.2291  0.8093
63588SOL    HW197814   0.694   9.271   8.291  1.1030 -0.9462  1.0853
63588SOL    HW297815   0.554   9.265   8.349  1.3381  0.6058  1.8877
63589SOL     OW97816  12.353  12.036   4.244 -0.0065  0.2469 -0.0063
63589SOL    HW197817  12.387  11.995   4.323  1.5581  3.2036  1.0258
63589SOL    HW297818  12.270  12.075   4.272 -0.9092 -1.1474 -0.6616
63590SOL     OW97819   5.744  11.324   6.211  0.5857  0.0023  0.4582
63590SOL    HW197820   5.649  11.334   6.206  0.5297  0.1741  1.6807
63590SOL    HW297821   5.766  11.268   6.136 -0.5279 -0.3609  0.3869
63591SOL     OW97822   7.404  11.574  10.789  0.2913  0.0175  0.0024
63591SOL    HW197823   7.353  11.621  10.723  1.1563  1.3654  0.2716
63591SOL    HW297824   7.423  11.489  10.748 -0.8607  0.0715 -0.6837
63592SOL     OW97825   9.579   7.818   3.847 -0.1199  0.1255 -0.1987
63592SOL    HW197826   9.644   7.855   3.787 -0.5331 -0.0961 -0.7911
63592SOL    HW297827   9.631   7.774   3.915  0.3924  1.7296  0.5001
63593SOL     OW97828   4.126   7.140   3.350 -0.8436 -0.0022  0.0870
63593SOL    HW197829   4.203   7.134   3.294 -1.2035  1.5867 -0.6421
63593SOL    HW297830   4.078   7.215   3.316 -2.6379 -0.8582  0.6342
63594SOL     OW97831   1.548   5.148   0.933 -0.8721 -0.1749 -0.0703
63594SOL    HW197832   1.512   5.159   1.021 -0.9551  0.5299 -0.1873
63594SOL    HW297833   1.490   5.199   0.876  0.7373  1.6743 -0.1517
63595SOL     OW97834   5.327   1.223   1.476 -0.0610 -0.0039  0.0831
63595SOL    HW197835   5.242   1.239   1.517  1.3693  1.2542  2.8188
63595SOL    HW297836   5.338   1.128   1.480 -1.9282 -0.3939 -1.8328
63596SOL     OW97837   9.530   2.393   4.397 -0.2594  0.8991  0.5482
63596SOL    HW197838   9.455   2.391   4.337  0.9163 -1.1243 -1.0084
63596SOL    HW297839   9.529   2.308   4.440  1.7795  0.3161 -0.4241
63597SOL     OW97840   2.230   8.054   5.123 -0.1825  0.8705  0.1706
63597SOL    HW197841   2.165   8.075   5.056 -0.2971 -0.4489 -0.1595
63597SOL    HW297842   2.253   7.963   5.106  0.1539  0.6615  1.6160
63598SOL     OW97843  12.256   4.684  11.280 -0.6755 -0.1610 -0.4096
63598SOL    HW197844  12.289   4.764  11.319 -1.3625 -0.4290  0.7895
63598SOL    HW297845  12.254   4.701  11.186 -0.5169  1.1093 -0.1943
63599SOL     OW97846   5.242   3.597   6.360  0.3209  0.1707 -0.3734
63599SOL    HW197847   5.169   3.557   6.407  1.2489 -0.6368  0.4325
63599SOL    HW297848   5.315   3.537   6.375  1.3708  1.4026 -0.4319
63600SOL     OW97849   0.407  11.664   8.528 -0.1263 -0.1058  0.2678
63600SOL    HW197850   0.408  11.665   8.432 -0.3276 -1.1549  0.2423
63600SOL    HW297851   0.321  11.628   8.550 -0.4131  0.8958  0.8696
63601SOL     OW97852   2.216   8.718  11.183  0.2862 -0.6366  0.2391
63601SOL    HW197853   2.135   8.669  11.196  0.0629 -0.8814 -1.7162
63601SOL    HW297854   2.188   8.804  11.151  0.7716 -0.4583  0.2771
63602SOL     OW97855  11.447   4.452  10.817 -0.1391  0.1318  0.1319
63602SOL    HW197856  11.365   4.498  10.803 -0.9353 -1.4970 -0.9632
63602SOL    HW297857  11.434   4.405  10.900  0.2290  0.9448  0.6573
63603SOL     OW97858   8.094   9.462   9.192  0.0644 -0.1095 -0.4028
63603SOL    HW197859   8.002   9.468   9.169  0.2602 -0.1098 -1.2280
63603SOL    HW297860   8.096   9.410   9.272 -0.6160 -0.5296 -0.6565
63604SOL     OW97861   7.362  12.396  10.491  0.0950  0.0475  0.1574
63604SOL    HW197862   7.430  12.460  10.515  0.5636 -1.0014  1.7127
63604SOL    HW297863   7.281  12.447  10.490  0.2729  0.4943  2.5530
63605SOL     OW97864   3.282   2.180  10.152 -0.0071 -0.2829  0.5572
63605SOL    HW197865   3.306   2.237  10.225  0.3697 -0.0441  0.2491
63605SOL    HW297866   3.246   2.240  10.087  3.7070  0.2120 -1.3068
63606SOL     OW97867   9.765   8.579   4.837  0.6567 -0.0274 -0.1179
63606SOL    HW197868   9.778   8.524   4.915 -0.8815  1.1879  1.0626
63606SOL    HW297869   9.844   8.632   4.831  0.4637  0.4137  1.0979
63607SOL     OW97870   3.700  12.540   1.111  0.5161 -0.2167 -0.1557
63607SOL    HW197871   3.731  12.630   1.111 -0.1259  0.0087 -0.4329
63607SOL    HW297872   3.752  12.497   1.042  0.1927  0.1655 -0.6398
63608SOL     OW97873  10.424   1.022   1.669  0.1525  0.1501 -0.4659
63608SOL    HW197874  10.380   0.956   1.616  1.0173  1.0899 -2.4622
63608SOL    HW297875  10.355   1.081   1.697 -0.2064  0.1105 -1.2624
63609SOL     OW97876   7.891   2.425   4.763  0.3359  0.3750 -0.3281
63609SOL    HW197877   7.884   2.502   4.819  1.0083  0.5763 -0.5007
63609SOL    HW297878   7.915   2.460   4.677  1.7577 -0.0741 -0.1531
63610SOL     OW97879   6.814   1.381   0.422 -0.3526  0.0821 -0.2228
63610SOL    HW197880   6.878   1.391   0.352 -0.9555 -0.1312 -0.8157
63610SOL    HW297881   6.766   1.301   0.400 -0.9917  0.3711  0.0718
63611SOL     OW97882  10.158   1.999   7.234  0.2999  0.7601 -0.5317
63611SOL    HW197883  10.220   1.933   7.202  0.1458  0.5719 -0.4475
63611SOL    HW297884  10.091   1.948   7.279 -0.3261  0.8962 -1.2811
63612SOL     OW97885   1.146   8.914   3.726  0.1376 -0.8423  0.1299
63612SOL    HW197886   1.222   8.930   3.670 -0.8867  1.5349 -0.7260
63612SOL    HW297887   1.180   8.860   3.797  3.1336  1.6242  0.8012
63613SOL     OW97888   8.294   3.226   5.677 -0.0026 -0.3319 -0.1072
63613SOL    HW197889   8.324   3.245   5.588  0.0403  1.3990  0.2405
63613SOL    HW297890   8.272   3.133   5.675  2.0725 -0.8536 -1.3171
63614SOL     OW97891   7.126  11.388   5.325  0.2118 -0.1994  0.0562
63614SOL    HW197892   7.173  11.435   5.256 -0.3436  0.5983  0.2130
63614SOL    HW297893   7.040  11.369   5.287  0.6717 -1.7427 -0.2623
63615SOL     OW97894  11.082   8.758   1.828 -0.4540 -0.3586 -0.2040
63615SOL    HW197895  11.007   8.709   1.862 -0.5154  0.2019  0.4923
63615SOL    HW297896  11.143   8.762   1.902 -0.1272 -0.0271 -0.4872
63616SOL     OW97897   0.168  10.949  10.351  0.5061  0.2401  0.2691
63616SOL    HW197898   0.144  10.878  10.410  1.8403 -0.8339 -0.4233
63616SOL    HW297899   0.224  10.908  10.285  1.0781  1.8726 -0.3257
63617SOL     OW97900   0.185   2.330   0.506 -0.0943  0.8779  0.4467
63617SOL    HW197901   0.186   2.298   0.415  0.8054  1.5933  0.1844
63617SOL    HW297902   0.123   2.403   0.505 -0.9057  0.2028  0.6673
63618SOL     OW97903   6.104  11.768   6.279  0.4980 -0.0813 -0.5374
63618SOL    HW197904   6.187  11.810   6.301 -0.3691  1.2970  0.2524
63618SOL    HW297905   6.085  11.712   6.355 -0.3101  1.2466  0.2729
63619SOL     OW97906   4.843   6.540   9.783 -0.1919  0.3396  0.4702
63619SOL    HW197907   4.803   6.585   9.708  0.0113  2.0175  1.3126
63619SOL    HW297908   4.791   6.461   9.794  1.4671 -1.4928 -3.1420
63620SOL     OW97909   6.383   0.741   0.760  0.5492  0.2242  0.3958
63620SOL    HW197910   6.352   0.651   0.768  1.2007 -0.2012 -1.3767
63620SOL    HW297911   6.327   0.780   0.693  1.4166  0.5707 -0.1411
63621SOL     OW97912   5.166   4.484   0.153 -0.4126  0.2843 -0.3691
63621SOL    HW197913   5.144   4.404   0.201  2.2527  0.0461  0.6336
63621SOL    HW297914   5.164   4.457   0.061 -0.7846 -0.6183 -0.1090
63622SOL     OW97915   7.838   3.611   4.571 -0.2746  0.5047 -0.0208
63622SOL    HW197916   7.901   3.683   4.581 -0.4311  0.7816 -0.9337
63622SOL    HW297917   7.861   3.549   4.640  3.1680 -1.0010 -2.2723
63623SOL     OW97918   1.329   2.696  12.549 -0.3066 -0.4357 -0.4406
63623SOL    HW197919   1.369   2.665  12.630  0.6617  0.3203 -0.6195
63623SOL    HW297920   1.277   2.621  12.518  1.0573 -1.4890 -0.2620
63624SOL     OW97921   9.926   8.157   0.571 -0.6310  0.1998 -0.0939
63624SOL    HW197922   9.912   8.065   0.596 -0.3925  0.2347  0.1688
63624SOL    HW297923  10.011   8.179   0.608 -1.1091  0.8119  0.6669
63625SOL     OW97924   5.838   3.501  10.622 -0.4934 -0.1693  0.1596
63625SOL    HW197925   5.881   3.490  10.707 -0.4696 -1.5491 -0.0131
63625SOL    HW297926   5.909   3.521  10.561 -0.4585  0.3705  0.3636
63626SOL     OW97927   3.461   4.364   2.445  0.3707  0.2171  0.0313
63626SOL    HW197928   3.522   4.396   2.378 -0.0907 -1.5887 -1.3111
63626SOL    HW297929   3.379   4.411   2.427  0.2085 -0.3624 -0.7914
63627SOL     OW97930   0.340   5.713   9.060  0.2316 -0.0235 -0.1073
63627SOL    HW197931   0.337   5.647   9.129  3.1678 -0.0692  0.1107
63627SOL    HW297932   0.300   5.791   9.099 -3.1829 -1.4964 -0.3357
63628SOL     OW97933   9.612   8.268   3.336  0.3159 -0.0696 -0.0858
63628SOL    HW197934   9.632   8.176   3.318  0.9637  0.0454  0.0025
63628SOL    HW297935   9.539   8.265   3.397 -1.8024 -0.4655 -2.4809
63629SOL     OW97936   7.060   8.292  10.261 -0.0268 -0.5184 -0.2837
63629SOL    HW197937   7.136   8.342  10.234 -0.0680 -0.1208  0.3045
63629SOL    HW297938   7.090   8.240  10.336 -0.0854 -1.0926 -0.6500
63630SOL     OW97939   2.482   1.598  11.503 -0.2592  0.4419  0.4432
63630SOL    HW197940   2.514   1.516  11.541 -0.5693 -0.3063 -0.8544
63630SOL    HW297941   2.442   1.644  11.577 -2.0424 -1.5499  0.8464
63631SOL     OW97942  10.770  12.576   7.295 -0.2265  0.5135  0.0823
63631SOL    HW197943  10.760  12.576   7.200 -0.8585 -0.6803  0.1263
63631SOL    HW297944  10.706  12.639   7.326 -0.7953  0.0968 -0.2294
63632SOL     OW97945   2.028   5.727   5.247  0.1949  0.4095  0.4055
63632SOL    HW197946   2.082   5.798   5.213  2.4871 -0.8075  1.2746
63632SOL    HW297947   1.963   5.710   5.178  0.1124  2.7233 -0.1662
63633SOL     OW97948   7.338   1.884  12.469 -0.4960 -0.4881  0.2228
63633SOL    HW197949   7.431   1.894  12.488 -0.3514  2.3395 -1.2972
63633SOL    HW297950   7.294   1.946  12.528 -1.0647  0.2973 -0.9685
63634SOL     OW97951   5.478   9.088   0.693 -0.3272  0.0242  0.3547
63634SOL    HW197952   5.390   9.073   0.658 -1.4056 -0.0567  2.8970
63634SOL    HW297953   5.473   9.173   0.736  1.0005  0.2256  0.1740
63635SOL     OW97954   9.877   5.029   7.092  0.2332 -0.0337 -0.0128
63635SOL    HW197955   9.893   5.114   7.050  1.7048  0.5929  1.6568
63635SOL    HW297956   9.820   4.983   7.032  0.4556  1.6416 -1.6128
63636SOL     OW97957   7.490   9.422   3.175 -0.4536 -0.6232  0.1905
63636SOL    HW197958   7.395   9.416   3.184 -0.5130  0.3473  0.2946
63636SOL    HW297959   7.513   9.349   3.117 -0.8484 -2.8724  2.6622
63637SOL     OW97960   0.191   2.607   2.614 -0.3359  0.2665  0.5850
63637SOL    HW197961   0.101   2.573   2.617  0.5314 -2.1565  2.5280
63637SOL    HW297962   0.241   2.547   2.668  2.0097  2.9999  1.7364
63638SOL     OW97963   1.148   4.543   4.633 -0.3807 -0.3258 -0.0796
63638SOL    HW197964   1.153   4.506   4.721 -0.2691  0.2287  0.1541
63638SOL    HW297965   1.055   4.538   4.610 -0.6341  0.7492  0.6190
63639SOL     OW97966   1.771   0.942   7.490 -0.1601  0.0288  0.4214
63639SOL    HW197967   1.734   0.874   7.546  0.4051  0.9789  2.0111
63639SOL    HW297968   1.700   1.005   7.479 -0.4295 -0.4016 -0.3816
63640SOL     OW97969   4.824   8.284   3.762  0.6557 -0.2551 -0.0752
63640SOL    HW197970   4.877   8.256   3.687 -1.1091 -3.6936 -0.1939
63640SOL    HW297971   4.886   8.291   3.834  1.7757 -0.8374 -0.9549
63641SOL     OW97972  10.498   2.971   5.739 -0.3021  0.2638 -0.4738
63641SOL    HW197973  10.580   3.019   5.745 -0.2520  0.0366  0.8488
63641SOL    HW297974  10.521   2.888   5.697 -0.0667  0.6280 -1.0827
63642SOL     OW97975  11.839   4.223   3.117  0.2832  0.4540  0.3572
63642SOL    HW197976  11.775   4.196   3.052  1.4985  1.3619 -1.2980
63642SOL    HW297977  11.788   4.266   3.185 -0.9036  0.8875 -0.7790
63643SOL     OW97978  12.093   0.163   1.356 -0.2806  0.3945  0.4741
63643SOL    HW197979  12.138   0.079   1.346 -0.7957 -0.0910  1.9502
63643SOL    HW297980  12.000   0.140   1.365 -0.3715  1.0532  1.4385
63644SOL     OW97981   9.309  11.546   3.803 -0.3866  0.7544  0.4584
63644SOL    HW197982   9.296  11.576   3.713 -0.5721 -2.3215 -0.6724
63644SOL    HW297983   9.222  11.554   3.843 -0.5826  1.0135 -0.0103
63645SOL     OW97984  10.266   7.489   5.394 -0.6032  0.3351 -0.2244
63645SOL    HW197985  10.290   7.572   5.352 -0.0522 -0.4150 -1.4383
63645SOL    HW297986  10.331   7.426   5.362 -1.9072 -0.9073 -0.5407
63646SOL     OW97987   1.014  12.183   1.299 -0.5631 -0.5720  0.5028
63646SOL    HW197988   1.109  12.189   1.285 -0.6324 -0.6819 -0.0234
63646SOL    HW297989   0.976  12.194   1.212 -1.1094  1.2393  0.9202
63647SOL     OW97990   8.182   2.885   2.764 -0.2428  0.4133  0.6634
63647SOL    HW197991   8.262   2.939   2.764  0.5528 -0.7214 -0.1050
63647SOL    HW297992   8.207   2.807   2.813 -0.3968 -0.6174 -0.8371
63648SOL     OW97993   5.419  12.436   3.932 -0.3564 -0.2849 -0.3123
63648SOL    HW197994   5.489  12.458   3.993 -1.7977  1.5612  0.8132
63648SOL    HW297995   5.375  12.361   3.971  1.1969 -1.7765 -1.2758
63649SOL     OW97996   9.026   6.054  11.607  0.3522 -0.8010 -0.4586
63649SOL    HW197997   9.095   6.054  11.673 -0.2176 -1.2332  0.1481
63649SOL    HW297998   9.025   5.965  11.571  0.5955 -0.5952 -0.9890
63650SOL     OW97999   4.568   8.125   0.246 -0.1274  0.4585 -0.4230
63650SOL    HW198000   4.511   8.165   0.312 -0.4775  0.7528 -0.8938
63650SOL    HW298001   4.571   8.032   0.268 -1.7279  0.2331 -1.0630
63651SOL     OW98002   8.129  11.092   2.199  0.0106  0.4127 -0.6863
63651SOL    HW198003   8.044  11.049   2.191 -0.0202  0.5544 -1.1295
63651SOL    HW298004   8.167  11.055   2.278 -0.2338 -0.0444 -0.7816
63652SOL     OW98005   4.672   8.225   5.141  0.6593  0.0144  0.0782
63652SOL    HW198006   4.607   8.290   5.167  1.8041  1.8821 -1.5122
63652SOL    HW298007   4.753   8.254   5.182  1.0022 -0.9679  0.1185
63653SOL     OW98008  11.074  11.279   3.366 -0.2297  0.3035  0.0071
63653SOL    HW198009  11.169  11.285   3.361 -0.2504  1.8740  0.9991
63653SOL    HW298010  11.057  11.186   3.383  1.1191  0.0273 -0.0271
63654SOL     OW98011  10.012   7.784  11.026 -0.0313 -0.1591  0.0909
63654SOL    HW198012   9.995   7.827  10.942  0.5166 -0.3350 -0.1141
63654SOL    HW298013  10.099   7.815  11.051  0.2530 -0.9311  0.0735
63655SOL     OW98014  10.359  11.408   0.463  0.1577  0.0994 -0.7509
63655SOL    HW198015  10.452  11.413   0.483 -0.0353 -0.5361  0.3874
63655SOL    HW298016  10.355  11.369   0.376  0.9284 -0.6748 -0.4458
63656SOL     OW98017   9.706   9.624  11.980  0.7261 -0.4809 -0.0447
63656SOL    HW198018   9.615   9.600  11.967  0.6363 -0.3022  0.2599
63656SOL    HW298019   9.716   9.632  12.074  1.5436 -2.3588  0.0756
63657SOL     OW98020   7.820   2.360  10.134 -0.1361  0.4780  0.0329
63657SOL    HW198021   7.784   2.399  10.214  0.1629 -1.3227  1.1105
63657SOL    HW298022   7.820   2.266  10.152  2.6915  0.2131 -0.9142
63658SOL     OW98023  12.387  12.016   4.618 -0.2516 -0.2789  0.4532
63658SOL    HW198024  12.446  12.015   4.693 -0.3278 -0.9739  0.5082
63658SOL    HW298025  12.316  12.075   4.644 -0.6494 -1.0829  1.2147
63659SOL     OW98026   8.756   2.177   5.862 -0.4257  0.4356  0.0615
63659SOL    HW198027   8.785   2.129   5.940 -0.2404  0.1566 -0.1771
63659SOL    HW298028   8.832   2.178   5.804 -0.8045 -0.0682 -0.4551
63660SOL     OW98029   8.167  10.605   2.076 -0.8035 -0.2383 -0.1905
63660SOL    HW198030   8.208  10.611   1.990 -0.2699  1.2291  0.1324
63660SOL    HW298031   8.236  10.572   2.133 -0.6137  0.4500 -0.0080
63661SOL     OW98032   3.121   3.387   8.657 -1.0299  0.0448  0.0262
63661SOL    HW198033   3.097   3.342   8.737  2.5400 -1.5667  0.4106
63661SOL    HW298034   3.216   3.396   8.662 -1.0224  3.2217 -2.3940
63662SOL     OW98035   9.199   5.680  10.464 -0.4881  0.1641 -0.1847
63662SOL    HW198036   9.198   5.696  10.370  1.4259  0.0918 -0.2520
63662SOL    HW298037   9.289   5.656  10.483 -1.3276 -2.0935  1.3044
63663SOL     OW98038   7.759   3.437   1.805 -0.3728 -0.1363  0.0700
63663SOL    HW198039   7.751   3.530   1.785  0.0889 -0.1278 -0.0985
63663SOL    HW298040   7.730   3.393   1.726  2.0035 -0.0988 -0.9270
63664SOL     OW98041   2.311  12.393   2.076  0.3937  0.0664  0.3323
63664SOL    HW198042   2.286  12.308   2.040 -0.1996 -0.1518  1.2422
63664SOL    HW298043   2.325  12.377   2.169 -0.9369  1.2033  0.7605
63665SOL     OW98044   2.395   4.380   0.461 -0.1217 -0.3353 -0.3114
63665SOL    HW198045   2.448   4.313   0.503 -2.2260 -1.9496 -0.0350
63665SOL    HW298046   2.398   4.454   0.521  1.5477 -0.4671 -0.1890
63666SOL     OW98047  10.244   0.511   9.833 -0.1603  0.1308 -0.3073
63666SOL    HW198048  10.158   0.527   9.794  0.2252  0.0306 -1.2291
63666SOL    HW298049  10.268   0.424   9.802  1.5327  1.2622 -2.5369
63667SOL     OW98050  11.984   4.230   0.349 -0.4009  0.4337 -0.1604
63667SOL    HW198051  12.049   4.159   0.347 -1.0386 -0.1414 -1.1531
63667SOL    HW298052  12.014   4.291   0.282 -1.2542 -0.2044 -1.1685
63668SOL     OW98053   3.336  11.829   7.420  0.3165  0.2349 -0.0642
63668SOL    HW198054   3.262  11.813   7.479  0.6099 -1.0222 -0.0116
63668SOL    HW298055   3.320  11.917   7.385 -1.9723 -0.5518 -1.1881
63669SOL     OW98056  12.332   1.095  12.187  0.7693  0.0789 -0.4199
63669SOL    HW198057  12.301   1.030  12.123 -0.5581  1.0010 -0.7722
63669SOL    HW298058  12.301   1.178  12.151  0.3106  0.6518  1.2506
63670SOL     OW98059   3.408   4.672  12.013  0.0166  0.3676  0.0598
63670SOL    HW198060   3.346   4.717  12.070  0.4182  0.7018  0.2372
63670SOL    HW298061   3.426   4.589  12.058  1.0856  1.0444  0.9343
63671SOL     OW98062   9.027   1.606   4.374 -0.1468  0.4140 -0.1668
63671SOL    HW198063   8.979   1.604   4.292 -0.1051 -0.1888 -0.1831
63671SOL    HW298064   9.092   1.676   4.363  1.5886 -1.3086 -1.6624
63672SOL     OW98065   4.063   4.786   9.602 -0.1772 -0.3347 -0.3307
63672SOL    HW198066   4.095   4.865   9.559 -0.0863 -0.1322  0.1051
63672SOL    HW298067   4.079   4.801   9.695 -1.5397 -0.2252 -0.0922
63673SOL     OW98068   0.693   6.156  11.570 -0.2228  0.5098 -0.5531
63673SOL    HW198069   0.753   6.230  11.575  0.5631 -0.2235  2.6522
63673SOL    HW298070   0.749   6.079  11.566 -0.8751 -0.1521  1.7544
63674SOL     OW98071   9.828   7.586   1.045  0.0244  0.4252 -0.1185
63674SOL    HW198072   9.901   7.551   1.097 -1.0994 -0.0303  1.2039
63674SOL    HW298073   9.818   7.676   1.076  0.5291  0.7605 -0.8909
63675SOL     OW98074   2.777   8.531   4.380 -0.2598  0.1168 -0.0054
63675SOL    HW198075   2.771   8.509   4.473 -2.2223 -1.6445 -0.4577
63675SOL    HW298076   2.756   8.449   4.335  0.3136  1.0156 -2.0121
63676SOL     OW98077  10.402   3.243   5.354  0.2747 -0.2198 -0.4259
63676SOL    HW198078  10.340   3.229   5.425  0.2712 -0.8225 -0.5471
63676SOL    HW298079  10.350   3.231   5.274  0.1196  1.1061 -0.5533
63677SOL     OW98080   3.613   0.456   4.592  0.2516  0.2680  0.1354
63677SOL    HW198081   3.564   0.445   4.673  0.2194 -0.9849 -0.0338
63677SOL    HW298082   3.561   0.518   4.541 -0.1049  0.5029  0.7675
63678SOL     OW98083   7.327  10.274  12.580 -0.5240 -0.1090  0.0615
63678SOL    HW198084   7.353  10.361  12.550  2.2550 -0.9358 -0.2272
63678SOL    HW298085   7.307  10.225  12.500  0.6210 -0.4903 -0.0068
63679SOL     OW98086   9.411   7.114   9.593  0.4340  0.3402  0.1935
63679SOL    HW198087   9.319   7.107   9.567  0.6537  2.3838 -1.3678
63679SOL    HW298088   9.461   7.097   9.513  1.4148 -0.1003  0.8704
63680SOL     OW98089   9.541   3.778  12.342 -0.0597 -0.0904 -0.0703
63680SOL    HW198090   9.498   3.818  12.418 -0.4141 -0.4533 -0.0750
63680SOL    HW298091   9.474   3.722  12.304  0.8047 -1.7283  0.7142
63681SOL     OW98092  10.780   7.852   2.166  0.4467 -0.1865 -0.2005
63681SOL    HW198093  10.828   7.855   2.083  1.0353 -0.5820  0.1205
63681SOL    HW298094  10.688   7.842   2.140  0.5960 -0.0371 -0.8068
63682SOL     OW98095   5.593   9.121   4.308  0.2814 -0.6289  0.0645
63682SOL    HW198096   5.605   9.054   4.240  0.5035 -1.5231  0.9604
63682SOL    HW298097   5.569   9.071   4.386  1.7265  0.2206  1.0833
63683SOL     OW98098   5.713   8.945  10.869  0.4301 -0.3415 -0.2626
63683SOL    HW198099   5.664   8.959  10.950 -0.4554 -0.5743 -0.7455
63683SOL    HW298100   5.790   9.002  10.877 -0.5180  0.9534  0.0169
63684SOL     OW98101   3.766   2.219  11.998 -0.2805  0.1022 -0.5285
63684SOL    HW198102   3.753   2.127  12.020  1.0078 -0.2054 -0.9722
63684SOL    HW298103   3.769   2.264  12.083  0.9948 -0.5543 -0.2029
63685SOL     OW98104   5.483   8.011   6.091  0.1542  0.1816 -0.0253
63685SOL    HW198105   5.578   8.006   6.081  0.0152  0.0335 -1.5056
63685SOL    HW298106   5.456   8.084   6.035 -0.4483  1.3766  1.7601
63686SOL     OW98107   0.346   6.355   8.169 -0.1013  0.5359  0.4604
63686SOL    HW198108   0.328   6.429   8.227 -1.9077 -1.1677  2.1851
63686SOL    HW298109   0.306   6.380   8.086  1.8181  2.6531  0.0458
63687SOL     OW98110   2.105   1.439   8.256  0.2903  0.3501 -0.0076
63687SOL    HW198111   2.149   1.374   8.312 -1.3034 -1.2275 -0.5072
63687SOL    HW298112   2.140   1.424   8.169 -0.3842 -0.1537 -0.2009
63688SOL     OW98113   8.310   5.656   7.038  0.1761 -0.1495 -0.0817
63688SOL    HW198114   8.341   5.569   7.014 -0.0231  0.5348 -3.1772
63688SOL    HW298115   8.379   5.690   7.096  1.1362 -1.6725 -0.2640
63689SOL     OW98116   4.345  10.627   0.011 -0.0726 -0.2939 -0.2759
63689SOL    HW198117   4.369  10.563  -0.057 -0.1458 -2.0162  1.2588
63689SOL    HW298118   4.273  10.587   0.058  1.5357 -0.3068  2.3731
63690SOL     OW98119   7.586   7.456   5.756  0.5307 -0.3344  0.4284
63690SOL    HW198120   7.569   7.513   5.681  2.2250 -0.2312  0.0949
63690SOL    HW298121   7.569   7.511   5.833 -1.3294 -0.4747  0.1660
63691SOL     OW98122   2.979   9.945   0.850  0.4200 -0.4851 -0.1356
63691SOL    HW198123   2.909   9.883   0.827 -0.6671  0.1839  1.2193
63691SOL    HW298124   3.012   9.912   0.933  1.9434 -0.9391 -0.8857
63692SOL     OW98125  10.386   5.698  12.472  0.1136  0.5157  0.7199
63692SOL    HW198126  10.357   5.609  12.493  1.3397 -0.0313  0.2037
63692SOL    HW298127  10.352   5.752  12.544 -2.6340  0.0520 -0.1375
63693SOL     OW98128   1.619   1.017  11.529 -0.2339 -0.2660 -0.2530
63693SOL    HW198129   1.703   1.012  11.484  0.9220  0.6634  1.6432
63693SOL    HW298130   1.555   0.988  11.464  1.3204  0.6916 -2.3450
63694SOL     OW98131   7.745   5.241   5.689  0.3065  0.6864  0.7522
63694SOL    HW198132   7.793   5.243   5.772 -0.6582  2.5574  1.3299
63694SOL    HW298133   7.657   5.212   5.712 -0.0418  1.4670  0.4613
63695SOL     OW98134   8.519   0.099   0.028 -0.4746 -0.3628  0.1433
63695SOL    HW198135   8.549   0.024  -0.024 -0.4335 -0.9628  0.9948
63695SOL    HW298136   8.427   0.110   0.005 -0.8963 -1.6247  1.0506
63696SOL     OW98137   9.650   4.403   0.727 -0.0669  0.7407  0.0185
63696SOL    HW198138   9.612   4.372   0.810 -0.9015 -0.3120 -0.7245
63696SOL    HW298139   9.736   4.437   0.751  1.6233 -3.4656  0.7926
63697SOL     OW98140   1.354   1.661   5.698  0.0156  0.6107 -0.1441
63697SOL    HW198141   1.420   1.617   5.751 -1.1171 -1.8065 -0.6089
63697SOL    HW298142   1.401   1.689   5.619  0.9060  0.8685  0.4701
63698SOL     OW98143   8.962   5.622  11.754  0.1982  0.3237  0.8164
63698SOL    HW198144   8.940   5.679  11.680 -0.7352 -0.7577  0.2291
63698SOL    HW298145   8.983   5.682  11.826 -0.7612  1.3953  0.2213
63699SOL     OW98146   5.501   0.207  10.877 -0.2127  0.2223 -0.3716
63699SOL    HW198147   5.459   0.126  10.907  0.3693 -0.3312 -1.0415
63699SOL    HW298148   5.446   0.237  10.804  0.0488 -0.0222 -0.6698
63700SOL     OW98149   7.712   8.145   0.369 -0.0002 -0.5226  0.7113
63700SOL    HW198150   7.683   8.236   0.361  1.1371 -0.2185 -0.2071
63700SOL    HW298151   7.807   8.150   0.371  0.1212 -1.7541 -0.3092
63701SOL     OW98152   6.051   6.394   8.864  0.4444  1.0092 -0.7178
63701SOL    HW198153   5.992   6.360   8.796 -0.6997 -0.1157  0.7547
63701SOL    HW298154   5.997   6.397   8.943  2.1955  0.5143  0.5702
63702SOL     OW98155   2.808   8.037   9.753 -0.1375  0.4197 -0.5706
63702SOL    HW198156   2.845   8.051   9.840 -0.7224  1.7851 -0.5183
63702SOL    HW298157   2.825   8.118   9.706 -1.1044  0.2532 -1.2540
63703SOL     OW98158   3.575  10.709  10.094 -0.9987 -0.2394  0.1442
63703SOL    HW198159   3.538  10.677  10.012 -1.9633  0.7410  0.1781
63703SOL    HW298160   3.499  10.726  10.150 -0.6666  2.9596 -0.1772
63704SOL     OW98161   5.639   1.539  10.465  0.2511 -0.2416  0.4097
63704SOL    HW198162   5.687   1.461  10.438  0.0628 -0.5261  0.8973
63704SOL    HW298163   5.577   1.508  10.531  0.7300  0.4650  1.1986
63705SOL     OW98164  11.135   6.004   6.240  0.1457 -0.4188 -0.0220
63705SOL    HW198165  11.172   6.021   6.153  0.2035  1.6324  0.3439
63705SOL    HW298166  11.211   5.982   6.294  0.2111 -0.9417 -0.3260
63706SOL     OW98167   0.136   8.347   2.643  0.2027  0.4357  0.4128
63706SOL    HW198168   0.136   8.350   2.547 -0.3759 -1.4309  0.3235
63706SOL    HW298169   0.044   8.341   2.667  0.4326 -1.7371  0.9355
63707SOL     OW98170  10.214  10.596   0.491  0.2242  0.1813  0.2717
63707SOL    HW198171  10.305  10.596   0.521  0.9997 -0.9128 -1.8878
63707SOL    HW298172  10.192  10.689   0.483  1.2902  0.4656  0.4777
63708SOL     OW98173  11.674   4.442   0.377  0.6247  0.5384 -0.1011
63708SOL    HW198174  11.674   4.362   0.429 -1.2220 -0.1134 -1.0110
63708SOL    HW298175  11.723   4.420   0.298  0.5290  0.4603 -0.1385
63709SOL     OW98176   2.333  11.414   6.491  0.3842 -0.1135  0.2052
63709SOL    HW198177   2.296  11.342   6.540  0.6760  0.2687  1.0050
63709SOL    HW298178   2.314  11.492   6.544  0.4934  0.3330 -0.3978
63710SOL     OW98179   8.448   7.176   2.510 -0.2446  0.2207  0.0984
63710SOL    HW198180   8.371   7.180   2.566  0.1257 -0.5807  0.6769
63710SOL    HW298181   8.421   7.122   2.436  0.1036 -1.0959  0.8934
63711SOL     OW98182  10.352   6.651   7.218 -0.0337  0.6851  0.1909
63711SOL    HW198183  10.321   6.627   7.130  0.5296  0.6097  0.0127
63711SOL    HW298184  10.343   6.571   7.269 -1.1922  0.9556  0.4395
63712SOL     OW98185   3.579  10.028   7.191 -0.0154 -0.4069  1.0728
63712SOL    HW198186   3.567   9.934   7.201  2.9407 -1.2581 -1.7671
63712SOL    HW298187   3.662  10.047   7.236  0.2212  0.5288  0.2826
63713SOL     OW98188   4.748   5.452   9.028 -0.0085 -0.1509  0.3811
63713SOL    HW198189   4.825   5.496   9.066 -0.6443  1.1380  0.2111
63713SOL    HW298190   4.727   5.504   8.950 -1.2107 -0.3272  0.5759
63714SOL     OW98191  11.508   5.257   4.893 -0.1948  0.7342  0.3950
63714SOL    HW198192  11.556   5.181   4.862  0.8263  0.1886  3.0895
63714SOL    HW298193  11.422   5.250   4.852  0.8071 -0.2263 -1.6837
63715SOL     OW98194   2.065   9.789  10.179  0.5883 -0.5119  0.1483
63715SOL    HW198195   2.112   9.863  10.141  0.9028  0.2142  1.8327
63715SOL    HW298196   2.107   9.776  10.264  0.6759 -2.7987 -0.1982
63716SOL     OW98197   6.219   2.347  11.190 -0.6045  0.2646  0.5466
63716SOL    HW198198   6.166   2.321  11.114 -0.5833 -2.0384  1.2430
63716SOL    HW298199   6.309   2.326  11.164 -0.5049  0.2845  0.8698
63717SOL     OW98200   1.337   0.476   7.877  0.3016  0.1635  0.2899
63717SOL    HW198201   1.356   0.567   7.854 -0.9740  0.9810  2.2358
63717SOL    HW298202   1.243   0.466   7.863  0.6311 -1.2879 -1.1528
63718SOL     OW98203  10.681   0.258   1.215 -0.3640  0.5745  0.1934
63718SOL    HW198204  10.684   0.276   1.309  0.6122 -0.3228  0.3481
63718SOL    HW298205  10.708   0.340   1.174 -1.0836  1.0676  0.6654
63719SOL     OW98206   2.934   1.745   8.045  0.2783 -0.1208  0.2321
63719SOL    HW198207   2.947   1.658   8.006  0.7967 -1.2315  2.7078
63719SOL    HW298208   2.854   1.778   8.004 -0.6776 -2.3378  0.1998
63720SOL     OW98209   9.585  12.490   8.997  0.8674 -0.0829  0.1476
63720SOL    HW198210   9.645  12.509   9.069 -1.0460 -0.2686  1.9034
63720SOL    HW298211   9.611  12.404   8.966  0.2103 -1.1713  2.3741
63721SOL     OW98212  11.746   0.334  10.832 -0.0957  0.1047 -0.7874
63721SOL    HW198213  11.682   0.405  10.834  0.7271  0.8789  1.8365
63721SOL    HW298214  11.693   0.254  10.831 -1.1070  0.7349  0.1860
63722SOL     OW98215   7.942  11.581  11.488  0.0166 -0.2078 -0.1460
63722SOL    HW198216   8.030  11.587  11.450 -0.1746 -0.6132 -0.6728
63722SOL    HW298217   7.956  11.546  11.576  0.3623 -0.5945 -0.3500
63723SOL     OW98218  12.225   3.284   6.339  0.1761 -0.3894  0.4441
63723SOL    HW198219  12.318   3.297   6.318 -0.1039 -0.3206 -0.8622
63723SOL    HW298220  12.195   3.370   6.369  0.9929 -0.8925  2.9347
63724SOL     OW98221   6.991   3.279   8.336  0.4509  0.2621 -0.2117
63724SOL    HW198222   7.027   3.195   8.363  2.0749  0.3760 -1.8024
63724SOL    HW298223   7.067   3.337   8.329 -0.7667  2.2829  2.0674
63725SOL     OW98224   6.524   0.959   3.401 -0.9910  0.1596  0.1599
63725SOL    HW198225   6.524   0.880   3.455 -1.5904  0.0716  0.0397
63725SOL    HW298226   6.444   1.005   3.427  0.6902  2.1265  2.2402
63726SOL     OW98227  12.565   3.982   0.161  0.1810 -0.1191 -0.3792
63726SOL    HW198228  12.517   4.041   0.103 -1.1314 -0.1234  0.6474
63726SOL    HW298229  12.642   4.032   0.187 -1.1488  1.4057  0.8695
63727SOL     OW98230   5.111   0.032   5.838  0.1199  0.4431  0.1384
63727SOL    HW198231   5.018   0.010   5.830  0.1058 -0.1272  1.6667
63727SOL    HW298232   5.156  -0.052   5.838  0.8282  0.7495 -2.2246
63728SOL     OW98233   9.084  11.225   1.610 -0.5023  0.3278 -0.2540
63728SOL    HW198234   9.090  11.284   1.535 -1.1597  0.7701  0.0400
63728SOL    HW298235   9.003  11.175   1.595  0.2602 -0.8094 -0.7189
63729SOL     OW98236  10.091   6.387   7.298  0.0557  0.0792  0.0962
63729SOL    HW198237  10.066   6.479   7.285 -1.4853 -0.3274 -0.0708
63729SOL    HW298238  10.173   6.391   7.346  0.3595  1.5522 -0.4788
63730SOL     OW98239   6.651   9.039   8.284 -0.0137 -0.8089 -0.2038
63730SOL    HW198240   6.660   9.048   8.379  0.3180  0.7588 -0.3576
63730SOL    HW298241   6.561   9.011   8.271  0.2866 -2.2573  0.6212
63731SOL     OW98242   4.708   9.391   9.002 -0.6510 -0.0257 -0.0464
63731SOL    HW198243   4.764   9.380   8.926 -0.6750  0.3843 -0.1273
63731SOL    HW298244   4.768   9.399   9.076 -0.6474 -1.6413  0.1610
63732SOL     OW98245   2.829   2.326   8.960  0.0890 -0.1823  0.0766
63732SOL    HW198246   2.772   2.304   8.886 -0.1334  1.4051 -0.2614
63732SOL    HW298247   2.809   2.418   8.979  1.2161 -0.1378  1.1531
63733SOL     OW98248   8.912   9.501  11.591  0.0962 -0.5589 -0.4218
63733SOL    HW198249   8.849   9.445  11.635 -0.2179 -0.0068 -0.1501
63733SOL    HW298250   8.917   9.467  11.501 -1.9620  0.4608 -0.9851
63734SOL     OW98251   7.968   0.366   8.768 -0.4064 -0.5583  0.0620
63734SOL    HW198252   7.884   0.410   8.768  0.1982  0.6660 -0.8225
63734SOL    HW298253   7.969   0.315   8.687  0.4595  1.0491 -1.0000
63735SOL     OW98254   4.066   0.845   7.552 -0.1594 -0.0597 -0.1601
63735SOL    HW198255   4.051   0.933   7.518  0.0882  0.0697  0.0647
63735SOL    HW298256   4.145   0.853   7.605  0.0517 -0.4885 -0.4049
63736SOL     OW98257   3.119  11.553   5.213  0.1781  0.0090 -0.0325
63736SOL    HW198258   3.118  11.636   5.261 -1.1066 -0.5090  0.8729
63736SOL    HW298259   3.192  11.563   5.151  1.9760  0.6462  2.0546
63737SOL     OW98260  10.006   4.271  11.592  0.1455  0.8322  0.2799
63737SOL    HW198261  10.036   4.180  11.602 -1.3539  0.3572  0.8064
63737SOL    HW298262  10.072   4.312  11.536 -0.6124 -1.3970 -2.5216
63738SOL     OW98263   1.747   9.858   5.762 -0.0163  0.5098  0.6134
63738SOL    HW198264   1.749   9.818   5.675 -0.2423  0.9795  0.3863
63738SOL    HW298265   1.662   9.903   5.765  0.2680  1.0369  0.8316
63739SOL     OW98266   1.620   3.011   2.170 -0.3919 -0.6833 -0.4011
63739SOL    HW198267   1.556   2.997   2.100 -1.2383 -0.1653  0.2487
63739SOL    HW298268   1.608   3.103   2.195  1.2855 -0.2922 -0.9065
63740SOL     OW98269   4.016  11.050   1.551  0.5519 -0.0179  0.6612
63740SOL    HW198270   4.065  10.972   1.529  1.1356  0.5369 -0.0669
63740SOL    HW298271   3.936  11.044   1.498  0.3176 -0.4046  1.0532
63741SOL     OW98272   9.560  11.898   2.289  0.9293 -0.1209  0.5944
63741SOL    HW198273   9.627  11.915   2.224  0.9830  1.2480  0.9690
63741SOL    HW298274   9.595  11.935   2.370  0.8881 -1.8351  1.4259
63742SOL     OW98275   8.698   4.790   9.246 -0.4204 -0.1386  0.0784
63742SOL    HW198276   8.656   4.776   9.162  0.2810 -0.9803 -0.1402
63742SOL    HW298277   8.626   4.801   9.308 -0.9368  0.4843 -0.6207
63743SOL     OW98278   1.913   7.078   5.013 -0.4618  0.0582  0.1181
63743SOL    HW198279   1.824   7.113   5.016 -0.9701 -1.2675  1.6511
63743SOL    HW298280   1.964   7.138   5.068 -0.8774 -0.3942  1.0043
63744SOL     OW98281  11.845   8.888   1.507 -0.0937 -0.3337 -0.4536
63744SOL    HW198282  11.825   8.850   1.422 -0.8034  0.5524 -0.6935
63744SOL    HW298283  11.772   8.862   1.564  0.8513 -1.7457  0.1714
63745SOL     OW98284  10.957   4.646  10.716 -1.2842  0.0491 -0.5203
63745SOL    HW198285  10.886   4.655  10.780 -1.3324 -1.0963 -0.3924
63745SOL    HW298286  10.914   4.613  10.637 -0.7568 -1.8946 -0.0535
63746SOL     OW98287   2.717   3.241   2.261  0.4437  0.2533 -0.1886
63746SOL    HW198288   2.698   3.280   2.175  0.5629 -0.6514 -0.6336
63746SOL    HW298289   2.650   3.278   2.319 -0.6755 -0.4020 -1.0359
63747SOL     OW98290   9.962   0.445   8.610  0.0168 -0.4481 -0.1792
63747SOL    HW198291   9.905   0.480   8.540 -0.9327 -1.0155  0.2898
63747SOL    HW298292   9.901   0.404   8.671  0.6294  1.7438  2.0384
63748SOL     OW98293   3.318   0.530  11.138  0.6776 -0.2825  0.1014
63748SOL    HW198294   3.358   0.605  11.094 -0.0148 -0.0120 -0.0796
63748SOL    HW298295   3.336   0.456  11.079 -1.1063  0.2415 -1.1896
63749NA      NA98296  12.051   2.777   5.617 -0.2824  0.6071  0.0170
63750NA      NA98297   2.146   0.084   9.357  0.6004  0.1833  0.1306
63751NA      NA98298   3.455   7.610   6.629  0.8195 -0.2166  0.7453
63752NA      NA98299   7.926   0.941   3.281  0.1300  0.6251 -0.3821
63753NA      NA98300   8.458  10.757   6.851 -0.0065 -0.1380  0.1061
63754NA      NA98301  12.220  11.651   3.084 -0.0535  0.7522  0.3307
63755NA      NA98302  10.769   8.475  12.508  0.2202  0.1722 -0.3260
63756NA      NA98303   3.228   3.281   2.681 -0.1783 -0.3874 -0.0599
63757NA      NA98304   3.982  11.157   6.575 -0.6508 -0.2294 -0.2611
63758NA      NA98305   1.839   2.154   0.629 -0.1390  0.1531 -0.1705
63759NA      NA98306   5.707  10.237   9.143  0.0683 -0.3586 -0.6714
63760NA      NA98307   8.207   5.339  11.937 -0.2269 -0.5605 -0.4592
63761NA      NA98308   3.304   1.403   9.528  0.1010  0.0352 -0.0350
63762NA      NA98309  12.310   2.599  11.990 -0.6612  0.1035 -0.1254
63763NA      NA98310   3.758  11.125  11.646 -0.3739 -0.0131  0.0679
63764NA      NA98311  12.375   7.132   6.674 -0.6484 -0.2417  0.1697
63765NA      NA98312   3.956  10.975   6.275 -0.1929 -0.5177 -0.1715
63766NA      NA98313   1.808   5.103   9.092  0.2265  0.0421 -0.2980
63767NA      NA98314   6.504  10.583   4.321  0.0775 -0.7332  0.4711
63768NA      NA98315   4.156   0.121   1.968 -0.0532 -0.2121  0.1867
63769NA      NA98316   9.396   8.094   5.217  0.1629 -0.2488 -0.0236
63770NA      NA98317   0.971   8.810   2.920 -0.0614  0.1081  0.3641
63771NA      NA98318   9.015   7.202   9.005 -0.1162  0.5154  0.1774
63772NA      NA98319   5.585   6.988   4.391 -0.0077 -0.0445 -0.2572
63773NA      NA98320  10.493   5.653   9.524  0.3801  0.4430  0.4920
63774NA      NA98321  12.202   5.944   4.764  0.2786 -0.0131  0.1982
63775NA      NA98322   0.345  11.534  12.168 -0.0195  0.3101  0.2295
63776NA      NA98323   8.008   9.503   6.114  0.3849 -0.0181  0.7290
63777NA      NA98324  12.102   8.508   1.306 -0.2903  0.2274 -0.4534
63778NA      NA98325   5.007   9.374   2.074  0.1885  0.2044  0.0866
63779NA      NA98326   9.233   8.123   1.130  0.3588  0.3292  0.0062
63780NA      NA98327  12.153  10.414  10.447 -0.4471  0.6651 -0.1578
63781NA      NA98328   2.936  11.175  12.258 -0.1425 -0.2149 -0.0753
63782NA      NA98329   2.116   5.533  10.634  0.3763  0.0022  0.5368
63783NA      NA98330   7.623   1.850  11.413  0.4859 -0.0594  0.0206
63784NA      NA98331   1.384   4.460   0.191 -0.5681  0.4933  0.2990
63785NA      NA98332   0.478  11.652  10.668  0.3844  0.2725  0.1335
63786NA      NA98333   3.365   1.616  10.566 -0.0026 -0.3037 -0.6071
63787NA      NA98334   9.452   0.441   4.551 -0.5091 -0.4608 -0.0642
63788NA      NA98335   7.196  12.286  10.790  0.2254  0.3384 -0.1720
63789NA      NA98336   9.435   0.019   7.263 -0.1903 -0.5147 -0.3065
63790NA      NA98337  12.423   5.647  11.800 -0.5071  0.0776 -0.1393
63791NA      NA98338   9.127   9.372  10.045 -0.4709 -0.2781  0.3700
63792NA      NA98339   4.639   9.718   8.643 -0.2806 -0.5647 -0.3070
63793NA      NA98340   7.739   3.900   5.586 -0.0970 -0.5687 -0.0720
63794NA      NA98341   3.389   2.401   7.204 -0.5018 -0.4480  0.0842
63795NA      NA98342   2.595   9.195  10.939 -0.4381  0.2003  0.2718
63796NA      NA98343   1.644  10.197  11.986 -0.3809 -0.0278 -0.2310
63797NA      NA98344   8.661   6.762   0.996  0.2368  0.2817  0.3487
63798NA      NA98345   3.671   8.419   2.666 -0.2288 -0.0378 -0.0575
63799NA      NA98346  11.324   4.277   3.041  0.2832  0.3599  0.3172
63800NA      NA98347   8.510  12.321   1.405  0.2674  0.2188  0.4378
63801NA      NA98348  12.395   2.898   3.704 -0.0558  0.8400 -0.2524
63802NA      NA98349   0.653   1.268  10.241 -0.1548 -0.1141 -0.1154
63803NA      NA98350   0.345  11.984   4.963 -0.2376 -0.1394  0.0158
63804NA      NA98351   2.657   1.996  10.133 -0.3826 -0.0127  0.5719
63805NA      NA98352   2.135   3.373   7.942  0.5660  0.1408  0.2433
63806NA      NA98353   0.453   0.151   0.304 -0.3865  0.3927 -0.6149
63807NA      NA98354  11.063   0.373   5.663 -0.6006 -0.0039 -0.2200
63808NA      NA98355   3.821   8.001   4.071  0.1402 -0.0598 -0.1355
63809NA      NA98356   1.818   4.725   2.738 -0.9005  0.1956 -0.1190
63810NA      NA98357  11.713   9.527  11.806  0.5194 -0.0226 -0.0421
63811NA      NA98358   0.176   6.402   9.166  0.5280 -0.1085  0.5139
63812NA      NA98359  11.161  10.761   5.043 -0.4243  0.0913  0.0746
63813NA      NA98360  10.042   6.581   4.303 -0.0505  0.3766  0.2005
63814NA      NA98361  10.866   0.164   0.270 -0.2855 -0.2230 -0.2674
63815NA      NA98362   0.201   0.701   3.809  0.7518 -0.0225 -0.4540
63816NA      NA98363   0.093   7.433   1.330  0.0406 -0.0337 -0.5393
63817NA      NA98364   7.500   8.940   4.994 -0.5536  0.3485 -0.0191
63818NA      NA98365  10.233   9.119   9.604 -0.4698  0.1131 -0.1295
63819NA      NA98366   0.417  10.623  11.647 -0.0940 -0.2554 -0.3903
63820NA      NA98367   4.427  10.815   0.037 -0.1617 -0.3488  0.0844
63821NA      NA98368   3.624   1.662   2.006  0.4985 -0.1061  0.3531
63822NA      NA98369   4.644  11.237  10.446  0.1613 -0.3421 -0.3301
63823NA      NA98370   9.433  11.044  11.891  0.6385 -0.2376 -0.2780
63824NA      NA98371   2.658  10.529   1.567 -0.1907 -0.1779 -0.2686
63825NA      NA98372   6.708  10.684   8.778  0.1028 -0.2924 -0.3342
63826NA      NA98373   7.305   7.370  12.526  0.0985 -0.4353  0.3636
63827NA      NA98374   6.990   9.700   4.177  0.6883  0.4547  0.3973
63828NA      NA98375   7.330   6.147   8.003  0.0475  0.3036  0.0528
63829NA      NA98376  11.254  10.098   6.043  0.1030  0.3242 -0.4590
63830NA      NA98377   3.841  11.504   1.639 -0.1449  0.3192 -0.4084
63831NA      NA98378   8.592   2.894   0.662  0.0103  0.4719  0.1111
63832NA      NA98379   8.226   9.546   1.823  0.4012 -0.2543 -0.1262
63833NA      NA98380   7.913   8.005  11.973  0.3787 -0.1594  0.1060
63834NA      NA98381   6.289   9.462  10.171 -0.0126  0.1474  0.1319
63835NA      NA98382   4.936   7.426   5.792  0.3628  0.1561  0.1963
63836NA      NA98383   5.668  10.688   4.881 -0.1948 -0.3113 -0.2608
63837NA      NA98384  10.579   1.475  12.438 -0.1901 -0.3029  0.7729
63838NA      NA98385   7.000   9.500   1.274 -0.0216  0.5097  0.3379
63839NA      NA98386   8.104   2.181   2.237 -0.4184 -0.1940  0.2493
63840NA      NA98387  12.517   2.466   9.398 -0.4379 -0.4833  0.0817
63841NA      NA98388   5.032  11.300   6.945 -0.3102  0.2364 -0.5091
63842NA      NA98389  11.783  12.026   2.162  0.5191  0.4349  0.8213
63843NA      NA98390   9.274  12.324   5.607 -0.3990 -0.0826 -0.5061
63844NA      NA98391   7.768   3.066   2.319  0.1206  0.2307  0.4063
63845NA      NA98392   3.881  10.804   4.719 -0.0561  0.7735 -0.1328
63846NA      NA98393   8.922   0.686   9.832  0.5997 -0.2554  0.1764
63847NA      NA98394   1.300   6.467   1.864  0.2949 -0.4671  0.1338
63848NA      NA98395   8.735  11.140   5.411 -0.3516 -0.6958 -0.2298
63849NA      NA98396   8.022  11.733   1.955 -0.3528 -0.0850  0.5548
63850NA      NA98397  11.826   6.110  11.159 -0.4794 -0.5611 -0.6328
63851NA      NA98398  11.432   3.637   5.912 -0.1211 -0.1762  0.3676
63852NA      NA98399  10.436   3.716   2.671 -0.0290  0.0385 -0.0372
63853NA      NA98400   7.819   4.900   2.051  0.4643  0.0385  0.3611
63854NA      NA98401  11.999   5.863   9.285 -0.2400 -0.0571  0.5230
63855NA      NA98402   8.872   6.826  10.798 -0.0785 -0.6266  0.0012
63856NA      NA98403  11.559   9.950   3.644  0.0866  0.0494  0.0720
63857NA      NA98404   1.221   5.297   3.247  0.3861  0.1411 -0.2119
63858NA      NA98405  10.127  10.831   4.563  0.1829 -0.2766  0.1106
63859NA      NA98406   0.480   7.702  11.927 -0.3663  0.3362 -0.0608
63860NA      NA98407  11.735   2.435   7.819 -0.0526 -0.2579 -0.1257
63861NA      NA98408   0.165   8.817   3.702  0.2303 -0.0464 -0.3569
63862NA      NA98409  12.316   3.014   1.603  0.7706  0.0409 -0.3677
63863NA      NA98410   1.714   0.382   7.101  0.0042  0.0527 -0.1433
63864NA      NA98411   4.874   2.108   5.112 -0.1903 -0.3324 -0.2137
63865NA      NA98412   7.082   9.285  11.666  0.1639 -0.2461 -0.0471
63866NA      NA98413   0.640  10.087   4.808  0.3572 -0.0886 -0.7883
63867NA      NA98414  11.076   2.908   7.317  0.2651 -0.0800  0.2284
63868NA      NA98415  12.226   8.017   3.729 -0.5416 -0.2215 -0.0380
63869NA      NA98416   4.202  11.642   8.738 -0.3450  0.3535  0.2689
63870NA      NA98417   2.677  11.712   4.204  0.0862 -0.0448  0.2093
63871NA      NA98418   4.735   6.988   1.655 -0.2220  0.4717  0.0096
63872NA      NA98419  11.020   2.026   2.839  0.3731 -0.0100  0.5563
63873NA      NA98420   9.280  11.476   2.192 -0.3333  0.1639 -0.4834
63874NA      NA98421   0.873   6.057  10.431 -0.1180  0.4255 -0.2316
63875NA      NA98422  12.140   9.931   7.208  0.4616  0.3234  0.0801
63876NA      NA98423   1.165   2.146   0.348  0.3720  0.6318 -0.3290
63877NA      NA98424  12.565   0.845   7.441  0.3933  0.4951 -0.0792
63878NA      NA98425  12.246   9.272   0.437 -0.3621  0.5779 -0.1814
63879NA      NA98426   1.713  12.312   4.601 -0.0510 -0.0282  0.2966
63880NA      NA98427  11.609   3.770   6.773 -0.0402 -0.0589  0.4152
63881NA      NA98428  11.858  12.296   9.169 -0.3019  0.5843 -0.1696
63882NA      NA98429   0.428   5.992   5.168  0.3911  0.4517  0.3790
63883NA      NA98430   0.994   5.758  12.384  0.4286 -0.2307  0.1167
63884NA      NA98431   6.705   2.444   3.747  0.2226 -0.1894 -0.8463
63885NA      NA98432   4.918   1.941   7.948 -0.8404  0.3175 -0.5243
63886NA      NA98433   9.426  11.569   3.073 -0.1698  0.0166 -0.2485
63887NA      NA98434   8.703   6.563  11.924 -0.1481  0.0118  0.1849
63888NA      NA98435   0.345  10.580  10.232 -0.3366 -0.3625 -0.4554
63889NA      NA98436   3.204   0.406   2.009 -0.7509  0.4846 -0.4481
63890NA      NA98437  10.137  12.081   4.736 -0.0773  0.2555  0.4510
63891NA      NA98438   4.162  11.695   6.069 -0.1890 -0.1906  0.8236
63892NA      NA98439   7.350  12.470   6.881 -0.0112  0.1821 -0.0078
63893NA      NA98440   9.824   3.700   0.069  0.2334  0.1113  0.2365
63894NA      NA98441  10.082   9.028   6.177 -0.2825 -0.0143  0.0017
63895NA      NA98442   4.984   1.599  10.242  0.0902 -0.1725 -0.0777
63896NA      NA98443   3.451  11.599   6.922 -0.1314 -0.1276  0.2848
63897NA      NA98444  10.655   8.669   6.043  0.1575 -0.5576 -0.1852
63898NA      NA98445   3.822   9.697   3.251 -0.3778  0.1739  0.4881
63899NA      NA98446   9.745   0.173   7.755 -0.1798  0.4433  0.8276
63900NA      NA98447   8.104  11.676   6.196  0.2009 -0.3959  0.1006
63901NA      NA98448  11.230   1.707  11.355 -0.1527 -0.5407  0.0956
63902NA      NA98449   2.777   1.519   4.337 -0.2598 -0.2232 -0.0780
63903NA      NA98450   2.841   1.454   7.531  0.2574 -0.6426  0.4781
63904NA      NA98451  11.706   3.729   0.421 -0.0353  0.2213  0.1693
63905NA      NA98452  10.098  10.089   9.120  0.4241 -0.7554  0.1832
63906NA      NA98453   4.884   0.088   3.518 -0.1594  0.0004 -0.0740
63907NA      NA98454   4.593   7.236   2.847  0.2216  0.0344 -0.0290
63908NA      NA98455  11.224   0.975   8.713  0.0031 -0.1616  0.1713
63909NA      NA98456   9.592   6.551   9.562  0.0321  0.2069  0.6236
63910NA      NA98457  11.021   2.747   1.881  0.6835  0.1263 -0.4450
63911NA      NA98458   0.380   0.824   2.548 -0.3365  0.0476  0.8766
63912NA      NA98459  11.420  11.691   2.696  0.0838  0.3623  0.1059
63913NA      NA98460   3.658   0.686   5.879  0.5034  0.2037 -0.0091
63914NA      NA98461   9.690   7.510   7.991 -0.1315  0.4868 -0.2202
63915NA      NA98462   2.651   4.347   1.419  0.0323  0.0234  0.2712
63916NA      NA98463  12.295   2.200   1.653 -0.1190  0.3059  0.2794
63917NA      NA98464  11.597   0.144  11.543 -0.2032  0.1092 -0.5031
63918NA      NA98465   5.941   4.989   3.492  0.0043 -0.5495 -0.2538
63919NA      NA98466   8.173   3.113   0.901 -0.2215  0.4750 -0.5378
63920NA      NA98467   2.756   0.030   4.852 -0.3060 -0.0343 -0.6511
63921NA      NA98468  10.219   2.298   1.448 -0.1614  0.2518 -0.4186
63922NA      NA98469   5.966   2.466   2.989  0.0081 -0.0342  0.3312
63923NA      NA98470  12.096   3.854  10.504  0.2772 -0.2099 -0.1982
63924NA      NA98471   8.774   2.420   8.557 -0.1990  0.0198 -0.3155
63925NA      NA98472   8.447   5.710  11.556 -0.0836 -0.7505  0.3177
63926NA      NA98473   0.207   8.860   2.421 -0.3739 -0.0140 -0.1877
63927NA      NA98474   2.207  10.103   6.266  0.0012 -0.2660 -0.7266
63928NA      NA98475   0.914   4.879   0.902  0.1382  0.9153 -0.0191
63929NA      NA98476   9.041   3.880   8.584 -0.1658 -0.0240  0.1086
63930NA      NA98477   4.696   4.438   1.336 -0.0457 -0.2977 -0.4195
63931NA      NA98478   9.230   7.587   0.379 -0.5109 -0.1535 -0.3636
63932NA      NA98479   0.443   7.417   0.142 -0.5961  0.1793  0.2283
63933CL      CL98480   3.987   8.072   8.846  0.1058 -0.1128 -0.2400
63934CL      CL98481   9.337   9.865   9.594 -0.4255  0.4376 -0.2887
63935CL      CL98482   7.957   4.441   2.043 -0.0549  0.1338 -0.4352
63936CL      CL98483  11.253   1.084  11.485 -0.2570  0.3045  0.5068
63937CL      CL98484   4.211  10.958   8.479 -0.5004 -0.3974  0.2434
63938CL      CL98485   3.023   2.888   7.945  0.3853  0.3612  0.0160
63939CL      CL98486  11.748   8.503  10.251  0.0775 -0.2482  0.5881
63940CL      CL98487   0.587   9.169  10.209  0.3291  0.5240  0.1257
63941CL      CL98488   2.143   3.616   4.563  0.1606  0.1511  0.1204
63942CL      CL98489  10.861   7.889   7.441  0.0986  0.1382  0.2165
63943CL      CL98490   7.963   3.134   0.462 -0.1632  0.1738 -0.0476
63944CL      CL98491   4.418   6.217   4.256 -0.0173  0.0365 -0.2317
63945CL      CL98492   5.840   8.458   8.470  0.3109 -0.3828  0.3431
63946CL      CL98493   0.036   9.232  10.274 -0.1970  0.1434 -0.3546
63947CL      CL98494   6.340   9.570  11.872 -0.1937 -0.7120  0.2188
63948CL      CL98495  11.956   0.418   9.137 -0.1666  0.4664  0.2143
63949CL      CL98496   6.404   7.258   5.179  0.0235  0.3548 -0.0400
63950CL      CL98497   4.810   5.910   7.712  0.4933  0.6169 -0.1515
63951CL      CL98498   0.798   6.183   4.354 -0.0560  0.6892  0.1337
63952CL      CL98499   4.247  11.464   6.050  0.4966  0.9404 -0.0046
63953CL      CL98500   3.301   1.436   7.025 -0.1130 -0.3300 -0.5575
63954CL      CL98501   3.583   3.404   9.309 -0.0287 -0.1916  0.3554
63955CL      CL98502   2.846  12.346   5.989 -0.3370 -0.3725 -0.3460
63956CL      CL98503  11.712   2.429  10.861  0.2175 -0.1525  0.1773
63957CL      CL98504   6.363   4.735   6.575  0.0856 -0.0612  0.3195
63958CL      CL98505   4.670   4.582   0.420  0.2224 -0.5133  0.0199
63959CL      CL98506   0.960  11.803   4.154 -0.1587 -0.0093  0.3587
63960CL      CL98507   4.774   1.872  11.050 -0.0947  0.6130  0.0979
63961CL      CL98508   3.800   0.757   0.858  0.2302 -0.2106  0.2252
63962CL      CL98509   1.284   3.860   2.897 -0.1142  0.2703 -0.0051
63963CL      CL98510   8.110   8.516   6.508 -0.0088 -0.1237 -0.4091
63964CL      CL98511   2.350   7.295  10.949 -0.5269  0.2597 -0.1456
63965CL      CL98512   7.469   0.448   6.486  0.5057  0.3439 -0.6013
63966CL      CL98513  10.383   4.034   1.982  0.2108 -0.1074  0.3166
63967CL      CL98514   6.162   7.793  11.710 -0.2858  0.5130  0.1425
63968CL      CL98515   0.561   1.056  10.696  0.2139  0.0014  0.2514
63969CL      CL98516   6.374   3.060  10.711  0.0932  0.2135  0.3443
63970CL      CL98517   7.734   1.947   8.513  0.3882 -0.2257  0.0216
63971CL      CL98518   2.530  12.400   0.354  0.0294 -0.0781 -0.4881
63972CL      CL98519   7.116   3.754   5.500  0.4442  0.1353  0.1037
63973CL      CL98520   4.842   4.936   8.793 -0.2503  0.3771  0.2965
63974CL      CL98521   6.796   9.822   0.934  0.5602  0.0338 -0.1130
63975CL      CL98522   7.910  11.227   3.550  0.3698  0.1100  0.3237
63976CL      CL98523   4.751   5.177   4.959  0.2852 -0.1838 -0.1334
63977CL      CL98524   6.228   3.204  12.566 -0.0370  0.7916  0.2072
63978CL      CL98525   9.119   3.690  10.603  0.0971 -0.1302  0.1693
63979CL      CL98526   2.626   1.598   6.452 -0.0601  0.1425 -0.2224
63980CL      CL98527   7.793   5.552  11.893 -0.1417  0.1848 -0.2591
63981CL      CL98528   3.582   5.512   9.170 -0.1553  0.2686 -0.6454
63982CL      CL98529   8.227  10.978   1.212  0.0349 -0.8849  0.1337
63983CL      CL98530   4.850   4.631  11.921  0.0193  0.4629 -0.0489
63984CL      CL98531  11.723   6.259   1.142 -0.1421 -0.0952 -0.0064
63985CL      CL98532  12.216  11.769   6.703 -0.5425 -0.4297 -0.1315
63986CL      CL98533   2.106   6.671   6.633 -0.2694  0.3521  0.2098
63987CL      CL98534   3.876   9.834   8.336  0.0104 -0.2882 -0.3264
63988CL      CL98535   7.812  10.264   7.760  0.0321 -0.1559 -0.0563
63989CL      CL98536   7.306   5.356   4.832 -0.4822  0.1267 -0.0155
63990CL      CL98537   1.223   4.807   5.318  0.3548  0.1987 -0.2913
63991CL      CL98538   3.489   7.099  10.374  0.5613  0.1607  0.4499
63992CL      CL98539   2.191   3.073   4.670 -0.3357  0.1385 -0.5651
63993CL      CL98540   2.427   5.381   6.416 -0.3860 -0.3263 -0.2773
63994CL      CL98541   3.391   3.639   6.871 -0.0972  0.0251 -0.2575
63995CL      CL98542   5.971   5.428  10.207  0.0030  0.0003 -0.2984
63996CL      CL98543  12.002   7.956   3.711  0.3085 -0.2856  0.2460
63997CL      CL98544   6.860   3.702   8.426  0.2381 -0.0063  0.2513
63998CL      CL98545   3.562   2.829   9.238 -0.1374  0.4337 -0.0495
63999CL      CL98546   7.840   5.009   6.359 -0.2641 -0.1451  0.0463
64000CL      CL98547   1.557   5.998  11.628  0.1235  0.1271 -0.0998
64001CL      CL98548   3.538   7.768   4.920  0.0860  0.4596 -0.1154
64002CL      CL98549   2.418   2.990   7.721  0.3283 -0.2678 -0.7505
64003CL      CL98550  11.760   3.329   6.886  0.5681 -0.4825 -0.2241
64004CL      CL98551   2.079   7.286   5.209  0.1241 -0.1907  0.1974
64005CL      CL98552   3.864   6.156   5.789  0.0439 -0.1971 -0.6142
64006CL      CL98553  11.161   1.376   8.996 -0.2927 -0.3696 -0.1157
64007CL      CL98554   8.568   8.442   0.414  0.3145 -0.2895  0.6412
64008CL      CL98555   5.265  10.245  12.008 -0.5007  0.1020  0.0839
64009CL      CL98556   4.612   8.762   8.357 -0.0925  0.3061  0.0217
64010CL      CL98557   6.341   0.334   3.376  0.1830  0.0926  0.3556
64011CL      CL98558   6.436   5.348   7.378 -0.0935 -0.3563 -0.1338
64012CL      CL98559   4.696   2.939   8.731 -0.0420  0.0980 -0.1406
64013CL      CL98560  10.542   7.755   1.578  0.0605  0.1199 -0.0915
64014CL      CL98561   4.645   1.874   6.361  0.3357  0.1607  0.1457
64015CL      CL98562   8.858   4.447   0.282 -0.0192 -0.2712 -0.0290
64016CL      CL98563  11.339   6.716   6.856 -0.3845  0.4989  0.2123
64017CL      CL98564   6.686   5.961   8.222  0.1256  0.2163 -0.0942
64018CL      CL98565   4.101   3.745   8.358 -0.1207 -0.1554  0.0632
64019CL      CL98566   3.440   7.370   6.725 -0.1652 -0.1294  0.0626
64020CL      CL98567   0.257   2.964   0.739  0.0307  0.0514  0.3111
64021CL      CL98568   9.106   4.466   9.837 -0.0531  0.1763 -0.2701
64022CL      CL98569   4.390  11.901   2.753 -0.0487  0.2397  0.0731
64023CL      CL98570   0.719   0.571   2.727 -0.3309  0.3467  0.2155
64024CL      CL98571  10.752   6.718   4.538  0.1015 -0.1747  0.3208
64025CL      CL98572   3.778   6.871  10.797 -0.0283  0.1903 -0.4654
64026CL      CL98573   6.148   4.316  10.939 -0.2176 -0.2132  0.0391
64027CL      CL98574   8.785   2.369   8.123 -0.0174 -0.0638  0.1613
64028CL      CL98575   4.796   9.363   0.498 -0.1192 -0.1822 -0.0575
64029CL      CL98576   6.885   6.751  12.437 -0.3437  0.0504  0.0287
64030CL      CL98577   4.937   8.141   3.490 -0.2863 -0.0597 -0.1605
64031CL      CL98578   2.799  11.508   4.675  0.2311  0.0437  0.1315
64032CL      CL98579   6.862  10.191   7.671 -0.1953  0.1460  0.0008
64033CL      CL98580  11.281   0.128   2.525 -0.1681  0.2822 -0.0147
64034CL      CL98581   2.903   2.579  10.494  0.2253  0.3393  0.2189
64035CL      CL98582  10.672   2.055   3.930 -0.2468 -0.0849  0.0726
64036CL      CL98583   3.829   8.150   6.988 -0.0628 -0.2209 -0.0142
64037CL      CL98584  11.720   4.412   3.329  0.1304  0.1535 -0.0181
64038CL      CL98585   1.352   0.434   4.041  0.2520 -0.2305  0.1138
64039CL      CL98586   6.758   6.651   4.229  0.4361 -0.2430 -0.2960
64040CL      CL98587   3.622   4.470   8.531  0.1425 -0.3723 -0.3726
64041CL      CL98588  11.825   8.967  11.911 -0.0617  0.2100  0.0855
64042CL      CL98589   8.761   6.539  10.013  0.1343  0.3203 -0.3089
64043CL      CL98590   7.898   0.267   8.237 -0.2145  0.0647  0.0950
64044CL      CL98591  10.162   7.266  12.432  0.0924  0.0950 -0.0104
64045CL      CL98592   6.790   3.127   4.824 -0.0288 -0.1483 -0.1096
64046CL      CL98593   4.338   5.584  10.739  0.1165 -0.1187  0.0251
64047CL      CL98594   2.114   6.388   8.256  0.0640  0.0551  0.2388
64048CL      CL98595   4.253   5.372   9.158  0.1850  0.0644  0.1690
64049CL      CL98596   7.181   5.826   1.717  0.0969  0.1156  0.1852
64050CL      CL98597   4.808   8.066   6.105 -0.2795  0.2941  0.2800
64051CL      CL98598   6.718   8.607   6.851  0.4645  0.1132 -0.2104
64052CL      CL98599   8.999   2.924   8.083 -0.1794  0.2204  0.0393
64053CL      CL98600   9.243   6.209   9.268 -0.0110  0.0774 -0.3798
64054CL      CL98601   7.933   4.934  11.406  0.0669 -0.7135  0.4232
64055CL      CL98602   5.462   4.375   5.454 -0.2191 -0.1034 -0.0547
64056CL      CL98603   5.083   7.398   6.002  0.4897 -0.0057 -0.1015
64057CL      CL98604   1.638   0.837   4.587  0.3369  0.1146 -0.1107
64058CL      CL98605   6.912   3.878   9.552 -0.1182 -0.5451  0.0424
64059CL      CL98606   2.607  12.488   7.676 -0.0386 -0.1246  0.1083
64060CL      CL98607   3.623   6.775   6.038 -0.1238  0.2454 -0.2719
64061CL      CL98608   1.487   4.201   6.316 -0.2208 -0.2482 -0.6112
64062CL      CL98609   2.712   7.603   3.731  0.1833 -0.1760 -0.5787
64063CL      CL98610   5.850   7.023   5.258 -0.0104  0.0630  0.4626
64064CL      CL98611  11.120   3.753   6.498  0.1681  0.2417  0.0403
64065CL      CL98612   7.692  11.632  11.033  0.0441 -0.3016  0.2155
64066CL      CL98613   3.379   3.301   2.106  0.0473  0.1072  0.0838
64067CL      CL98614   0.628   3.438   7.463 -0.0711  0.2030  0.0309
64068CL      CL98615   8.471   5.924   7.626 -0.1073  0.2150  0.0098
64069CL      CL98616   1.992   0.701   6.184 -0.0511 -0.4080  0.3089
64070CL      CL98617  11.390   6.310  10.777 -0.1583 -0.2259 -0.0216
64071CL      CL98618  10.745   2.971   0.519 -0.0898 -0.1926 -0.0171
64072CL      CL98619   9.029   9.683   4.988  0.0343 -0.3173  0.0566
64073CL      CL98620   9.040   2.270   2.658  0.3874 -0.2285  0.8112
64074CL      CL98621   0.823   6.781   1.403 -0.4418  0.3920  0.3959
64075CL      CL98622   6.893   3.292   7.623  0.1426  0.0284 -0.4147
64076CL      CL98623   2.533   5.771  10.815 -0.6221 -0.4619 -0.1371
64077CL      CL98624   9.729   5.810   4.591 -0.0273  0.0525  0.2783
64078CL      CL98625   1.988   3.885   6.454 -0.4053 -0.7909 -0.1415
64079CL      CL98626   7.006   7.024  10.573 -0.0005 -0.0616  0.1464
64080CL      CL98627   8.835   6.906  10.575  0.0465  0.1415 -0.0379
64081CL      CL98628   5.291   6.257  11.898  0.1219 -0.3105  0.3301
64082CL      CL98629   9.828   4.241   4.208 -0.1187 -0.2044 -0.1362
64083CL      CL98630   7.310   6.640   5.576  0.2003 -0.0619  0.0756
64084CL      CL98631  11.303   3.849   2.855 -0.2314 -0.1670  0.1837
64085CL      CL98632   1.536   9.409   8.792  0.1471  0.1786 -0.1979
64086CL      CL98633   4.548   7.252   2.608  0.1591  0.3742 -0.1660
64087CL      CL98634   7.811  10.865   7.545 -0.2557 -0.0179 -0.2538
64088CL      CL98635   3.214   2.387   0.884  0.1882  0.5071  0.2513
64089CL      CL98636   5.329   8.883   5.606 -0.1472  0.6890 -0.0769
64090CL      CL98637   3.969   7.443  10.351  0.5798 -0.1908  0.3974
64091CL      CL98638   4.000   8.631   2.027 -0.1727 -0.0993 -0.0659
64092CL      CL98639   2.893   9.937   9.698  0.1762 -0.0189  0.0946
64093CL      CL98640  12.245   6.415  11.263  0.0798 -0.4599 -0.3283
64094CL      CL98641   8.497   2.903   8.429 -0.0173 -0.1855  0.2097
64095CL      CL98642   4.823   9.627   8.506  0.2504 -0.2308 -0.1267
64096CL      CL98643   7.507   7.475   8.244 -0.1260  0.0702 -0.1227
64097CL      CL98644   6.198   6.349   9.994  0.4432 -0.0907  0.2133
64098CL      CL98645   7.221   5.692   8.563  0.2605 -0.0664 -0.0428
64099CL      CL98646   5.549   2.003   3.872  0.5886 -0.1164 -0.0959
64100CL      CL98647   7.570   4.023  11.056  0.4780 -0.2762 -0.1796
64101CL      CL98648   4.269  12.464  11.954  0.1698  0.2063  0.2571
64102CL      CL98649   5.819   6.680   9.697 -0.2080  0.2383  0.3486
64103CL      CL98650   5.167   4.185   3.505 -0.1773 -0.1102  0.0508
64104CL      CL98651   1.597   5.590   8.185  0.3052  0.1846  0.1520
64105CL      CL98652   6.437   7.905   6.248 -0.4246 -0.4372  0.3502
64106CL      CL98653   3.734   7.036   7.255 -0.1899 -0.3513 -0.1548
64107CL      CL98654   4.291   5.336   0.977 -0.4600  0.3480 -0.2967
64108CL      CL98655   9.018   7.080   6.848  0.4316 -0.0516 -0.3186
64109CL      CL98656   9.839  11.566   3.681  0.3779 -0.3703 -0.2944
64110CL      CL98657  12.239   4.029  10.385 -0.2045 -0.0112 -0.2812
64111CL      CL98658   6.397   7.849   6.977  0.0892  0.4726  0.1759
64112CL      CL98659   2.332   8.936  11.865  0.1041 -0.2036 -0.1499
64113CL      CL98660   0.736   9.733  12.544  0.1159 -0.3293 -0.2980
64114CL      CL98661   8.481   6.568  11.790  0.1223 -0.2857 -0.4577
64115CL      CL98662   3.852   3.674   4.392 -0.0631 -0.1080 -0.0538
64116CL      CL98663   1.888   9.842   2.620 -0.2101  0.0545 -0.0126
64117CL      CL98664  11.151   8.246   0.091  0.3070 -0.1855 -0.1850
64118CL      CL98665   4.282   3.354   6.354 -0.2532 -0.0612 -0.1665
64119CL      CL98666   5.181   9.468  11.338  0.0796 -0.3385  0.1627
64120CL      CL98667   0.919   9.247   7.058  0.0845  0.3581 -0.1982
64121CL      CL98668   2.243   3.344  12.172  0.0886 -0.0279 -0.2643
64122CL      CL98669  11.586  11.830   2.575  0.0796 -0.3507  0.0811
64123CL      CL98670   1.007   5.521   9.689  0.0735 -0.2426 -0.0559
64124CL      CL98671   6.317   3.657  11.711  0.1186 -0.4536 -0.4140
64125CL      CL98672   7.491   0.463   9.054  0.0889  0.0484 -0.2808
64126CL      CL98673   7.581   5.187   7.277 -0.2949 -0.1018  0.0127
64127CL      CL98674  10.536   3.613   0.745 -0.1469 -0.1431  0.4473
64128CL      CL98675  11.034   2.089   7.379 -0.1712 -0.5193  0.0548
64129CL      CL98676   6.293   3.868   7.440  0.0382  0.4315  0.0350
64130CL      CL98677   6.592   3.240   1.525 -0.0218 -0.1113 -0.1999
64131CL      CL98678   6.012   6.595  11.569  0.3003 -0.0845 -0.3057
64132CL      CL98679   8.352   0.386  10.656  0.0586  0.2206  0.0300
64133CL      CL98680   1.417   4.000  11.158 -0.2667  0.0018  0.4035
64134CL      CL98681   8.743   6.908  10.984  0.1950  0.0930 -0.7202
64135CL      CL98682   5.954   3.869  10.536 -0.3624  0.0987  0.1028
64136CL      CL98683   7.380   8.438   6.616  0.0828 -0.0755  0.3677
64137CL      CL98684   6.665  11.896  12.105  0.0168 -0.0697  0.2041
64138CL      CL98685   0.307   8.363   3.644 -0.0442  0.3418 -0.0773
64139CL      CL98686   4.309  11.876   6.003 -0.1743  0.1438  0.4717
64140CL      CL98687   4.809   7.218   5.756 -0.2278 -0.6965 -0.0724
64141CL      CL98688   5.337   4.174  12.471  0.1421 -0.0243  0.6321
64142CL      CL98689   5.931  11.937   9.350  0.2142  0.0603  0.3933
64143CL      CL98690   6.051   5.180  10.632 -0.2662 -0.1364  0.1801
64144CL      CL98691   5.080   7.119   0.952  0.0031 -0.3501  0.1227
64145CL      CL98692   2.603   5.837   3.239  0.0838 -0.2770 -0.1927
64146CL      CL98693   4.696   4.853  10.224 -0.2361  0.1000 -0.3919
64147CL      CL98694   7.290   6.355   8.758  0.4586  0.3137 -0.0843
64148CL      CL98695   5.380   2.440   9.184 -0.0564  0.0790  0.1792
64149CL      CL98696   1.447   8.528   4.260 -0.3102 -0.0914  0.0589
64150CL      CL98697   4.138   5.902   2.620 -0.2369 -0.1579  0.1021
64151CL      CL98698   9.347   3.936   0.258 -0.1758  0.0959  0.2998
64152CL      CL98699  11.576  10.218   3.958  0.3441 -0.3219  0.1172
64153CL      CL98700   9.250  10.754   6.142  0.0724  0.1616 -0.0762
64154CL      CL98701   4.305   7.757  10.227  0.1603  0.3809 -0.0446
64155CL      CL98702   0.062   6.162   9.171  0.1081  0.1617 -0.0227
64156CL      CL98703   5.922   6.261   7.855 -0.5931 -0.2451 -0.1162
64157CL      CL98704   6.346   0.440  12.580 -0.1185 -0.1523 -0.3872
64158CL      CL98705   5.372   2.795   6.547 -0.5971 -0.0927 -0.2922
64159CL      CL98706   1.432   6.419   5.999 -0.6893 -0.3007  0.0800
64160CL      CL98707   6.605   4.276   5.835  0.1086 -0.4247 -0.1658
64161CL      CL98708   7.080   6.520   7.790  0.2738 -0.1666  0.1811
64162CL      CL98709   8.983   7.895   7.174 -0.2133 -0.5614  0.0896
64163CL      CL98710   3.271  10.285   9.155  0.2897  0.4943 -0.1017
64164CL      CL98711   6.017   4.792   8.772  0.3374 -0.0279 -0.4038
64165CL      CL98712   2.563   8.973  10.139  0.1222 -0.1686 -0.2399
64166CL      CL98713  11.477   1.879   1.065 -0.0309 -0.0461  0.0530
64167CL      CL98714   8.329   9.153   5.846 -0.1922 -0.2791 -0.5182
64168CL      CL98715   2.780   7.517   6.150 -0.0335 -0.0095 -0.0315
64169CL      CL98716   5.797   0.383   8.800  0.2427 -0.0909 -0.1860
64170CL      CL98717   5.088   5.751   9.801  0.0513  0.2436 -0.2843
64171CL      CL98718   6.077   4.154   4.086 -0.1779  0.5183 -0.0427
64172CL      CL98719   3.531   4.383   9.505  0.0667 -0.2839  0.3760
64173CL      CL98720   7.540   1.728  11.615  0.1672 -0.1638  0.1538
64174CL      CL98721   0.241  10.472  10.439 -0.1070 -0.2372 -0.1410
64175CL      CL98722   6.403   6.042   9.070 -0.3446  0.3824  0.1014
64176CL      CL98723  10.554   3.601   7.463  0.0859 -0.1649 -0.0705
64177CL      CL98724  10.302   8.623  11.339  0.2457 -0.3382  0.0373
64178CL      CL98725  10.322  10.461   4.055  0.3148 -0.1033 -0.4698
64179CL      CL98726  12.210   7.085   2.375  0.1094  0.0481 -0.2832
64180CL      CL98727   9.214   5.656  10.130  0.2455 -0.0025  0.1724
64181CL      CL98728   0.327  10.846  11.630 -0.3656 -0.2391 -0.1564
64182CL      CL98729   2.723   3.453  12.293  0.0430  0.0440  0.2229
64183CL      CL98730   5.414  11.103   9.033 -0.1430 -0.1070 -0.0174
64184CL      CL98731   6.829   5.920  12.243  0.3523  0.1480 -0.2094
64185CL      CL98732   6.214   8.445   9.305  0.1016  0.0017 -0.0096
64186CL      CL98733  12.198   0.043   3.007  0.0948  0.0473 -0.0761
64187CL      CL98734   8.392   3.620   5.353  0.0534 -0.0224  0.3276
64188CL      CL98735   2.809   8.460   7.643 -0.4258 -0.3462 -0.0109
64189CL      CL98736   4.014   7.443   3.707  0.1941 -0.1787 -0.0827
64190CL      CL98737   3.895  12.447   3.451  0.0233  0.0477 -0.1296
64191CL      CL98738   7.463   3.239  10.785 -0.0961  0.2382 -0.1378
64192CL      CL98739   4.341   7.539   6.568 -0.2758  0.0044  0.0587
64193CL      CL98740   4.851   6.825   1.810 -0.2216 -0.1627  0.0670
64194CL      CL98741   2.087   5.527   5.906  0.4363  0.1194  0.3815
64195CL      CL98742   2.278   3.140  10.391 -0.2626 -0.0559  0.1370
64196CL      CL98743   8.686   1.512   6.063 -0.0615  0.0338  0.0698
64197CL      CL98744   3.867   0.757  10.282  0.2532  0.1259  0.0548
64198CL      CL98745  12.431  11.090   5.923 -0.2576 -0.0932 -0.3022
64199CL      CL98746   4.475   6.059   8.760  0.2357 -0.0371 -0.0458
64200CL      CL98747   4.375   4.675  11.719  0.0505  0.3774 -0.3158
64201CL      CL98748   3.661   8.594   7.043  0.1832 -0.4472 -0.2906
64202CL      CL98749   5.748   5.011   8.157  0.1164 -0.0490 -0.0302
64203CL      CL98750   5.341   2.818   8.831  0.3913 -0.0530  0.2318
64204CL      CL98751   1.667   6.679   1.128  0.1608  0.1541 -0.0806
64205CL      CL98752   4.143   2.950   8.960  0.0132 -0.0745 -0.0135
64206CL      CL98753   0.062   8.556   2.080  0.0788  0.1798 -0.2850
64207CL      CL98754   2.044   8.810   8.684 -0.7258 -0.2256  0.0678
64208CL      CL98755   4.267   9.708   5.627  0.0991 -0.1822 -0.1244
64209CL      CL98756   0.323  11.773  10.537 -0.5704  0.2130  0.1634
64210CL      CL98757  10.503  12.355   4.562 -0.2729 -0.0506 -0.0065
64211CL      CL98758   3.068   5.687   3.220 -0.1464  0.0619 -0.2150
64212CL      CL98759   7.418   7.036   5.040 -0.1258  0.0233  0.2313
64213CL      CL98760   0.375   4.440   7.180  0.3140  0.2066  0.1937
64214CL      CL98761   6.224  10.210   7.481 -0.1635 -0.1513 -0.3279
64215CL      CL98762   0.278   4.925   4.567  0.3159  0.1522 -0.4024
64216CL      CL98763   1.776   4.662   9.176  0.1497  0.2280  0.0593
64217CL      CL98764   0.748   1.391   7.784 -0.1979  0.5235  0.0953
64218CL      CL98765   2.502   6.132   3.590 -0.2621  0.0400 -0.5568
64219CL      CL98766   4.414   4.690   3.289 -0.0900  0.3859  0.0769
64220CL      CL98767   8.287   0.733   0.677 -0.3210 -0.2899  0.1103
64221CL      CL98768   8.988   3.661   1.237 -0.0303  0.0203 -0.3816
64222CL      CL98769   5.560  10.883   2.073  0.1818  0.0026 -0.1083
64223CL      CL98770   7.944   4.193   9.361  0.3025 -0.2238  0.1538
64224CL      CL98771   4.544   2.824  10.973  0.5283 -0.1375 -0.0461
64225CL      CL98772  12.383   9.212   0.657  0.3898 -0.1269  0.1478
64226CL      CL98773   8.145   8.631  12.159  0.0950  0.2283 -0.0159
64227CL      CL98774   2.730   5.740   9.492  0.4104 -0.0270  0.3381
64228CL      CL98775  10.739   4.900   3.413  0.5718  0.2070  0.2008
64229CL      CL98776  11.710  11.427   3.504 -0.3632 -0.2022  0.3214
64230CL      CL98777   8.899  11.668   5.051  0.4684 -0.1031 -0.4191
64231CL      CL98778   4.158   5.048  10.351 -0.1103 -0.7515  0.2226
64232CL      CL98779   3.607   4.060   4.988  0.1417 -0.7895 -0.0688
64233CL      CL98780   5.121   3.460   5.718  0.1084  0.0875  0.0714
64234CL      CL98781   5.392   8.691   8.490 -0.3208  0.3815  0.8429
64235CL      CL98782   2.551   9.659  11.349  0.0522  0.0076  0.0889
64236CL      CL98783   7.043  10.690   5.856 -0.0271 -0.2100 -0.1789
64237CL      CL98784   1.559   6.995   7.863  0.0738  0.3867 -0.1462
64238CL      CL98785   5.375   4.970   5.663  0.3255 -0.1409 -0.6111
64239CL      CL98786   9.842   6.823   8.864  0.0318 -0.1565 -0.2686
64240CL      CL98787   7.500  10.334   2.062  0.3427  0.3157  0.0890
64241CL      CL98788  11.848   9.303   4.236 -0.3758  0.3909 -0.1024
64242CL      CL98789   2.660   8.254   8.143 -0.0542  0.2049 -0.1005
64243CL      CL98790   7.197   2.865   8.826  0.1704 -0.5050  0.7592
64244CL      CL98791   3.257   3.591   0.827  0.6845  0.2944 -0.0751
64245CL      CL98792   3.166   9.321  10.390 -0.2848  0.1112  0.2575
64246CL      CL98793   8.604   5.555   1.060  0.0969  0.1831 -0.4010
64247CL      CL98794   4.774   4.481   5.718  0.3120 -0.0972  0.0429
64248CL      CL98795  11.480  11.096   5.613 -0.2479  0.5276 -0.0904
64249CL      CL98796   4.610   4.140   8.616  0.3260  0.1889  0.2064
64250CL      CL98797   2.761   6.533   7.483  0.1421  0.0912  0.0263
64251CL      CL98798  11.985  11.953  10.123  0.0505 -0.3106  0.4279
64252CL      CL98799   3.793   5.383   7.778  0.0950 -0.1170 -0.0912
64253CL      CL98800   3.400   2.060  10.573 -0.3525 -0.2013  0.0447
64254CL      CL98801   4.795  10.969   7.275 -0.3138 -0.2685  0.0052
64255CL      CL98802   8.812  11.752   6.923 -0.5747  0.2009  0.0494
64256CL      CL98803   2.162   6.048  10.298 -0.0447  0.1805  0.4984
64257CL      CL98804   9.110   6.265   5.974  0.2391 -0.2536 -0.0106
64258CL      CL98805  11.240   0.526   9.553 -0.0577  0.0419  0.1354
64259CL      CL98806   6.301   3.225   8.220 -0.1233 -0.1026 -0.0823
64260CL      CL98807   7.534   8.232   1.661 -0.0099  0.2135  0.1534
64261CL      CL98808   1.660   8.577   9.505  0.0622 -0.2321 -0.4547
64262CL      CL98809   5.979   4.198   6.345 -0.5583  0.1261 -0.1467
64263CL      CL98810   3.421   2.806   7.663 -0.5326  0.2944 -0.2292
64264CL      CL98811   2.918  12.456   4.902  0.0161  0.2027  0.0316
64265CL      CL98812   4.882   5.629   4.681  0.0968 -0.2133  0.1909
64266CL      CL98813   2.229   1.452  10.899  0.5723 -0.1645 -0.0494
64267CL      CL98814   3.500   4.604  10.773 -0.2868  0.1619 -0.1854
64268CL      CL98815   2.401   6.461   5.346  0.3183 -0.1943 -0.0894
64269CL      CL98816   6.307   6.581   5.201 -0.0910  0.0180  0.4694
64270CL      CL98817   3.455   5.140   9.996  0.3669  0.1515  0.0609
64271CL      CL98818   7.385   5.091   6.114  0.2186  0.2652  0.0470
64272CL      CL98819  10.792   2.080   0.586 -0.3663  0.2969  0.2044
64273CL      CL98820   5.080   7.535   5.641 -0.3289 -0.1308  0.2713
64274CL      CL98821   2.778   9.436  10.627 -0.1411 -0.3857  0.0833
64275CL      CL98822   8.428   3.899   8.412 -0.0079  0.6191  0.0134
64276CL      CL98823   8.650  11.718   9.408 -0.5943 -0.3363 -0.2151
64277CL      CL98824   5.071   7.142   6.403 -0.2383 -0.0258 -0.2023
64278CL      CL98825   3.741   6.576   7.667  0.2146  0.0263  0.5231
64279CL      CL98826   8.976   3.009   7.287 -0.1639  0.0287  0.3635
64280CL      CL98827  12.518   0.189  11.869  0.0981 -0.2262  0.2576
64281CL      CL98828   2.905   6.150   8.123  0.1335  0.1388  0.3526
64282CL      CL98829   2.902   6.493   6.135  0.1473  0.4966  0.1470
64283CL      CL98830   2.983   3.728   5.949 -0.1304 -0.5988  0.2169
64284CL      CL98831   2.877   5.016  10.801 -0.1272  0.6738 -0.3967
64285CL      CL98832   2.990   6.161  11.722 -0.2677  0.1067 -0.2075
64286CL      CL98833   7.911   2.282  10.997 -0.2848  0.1901  0.0626
64287CL      CL98834   4.620   1.228   7.653 -0.4370 -0.0835  0.0035
64288CL      CL98835   3.537   3.248   1.178 -0.3790 -0.4087 -0.3617
64289CL      CL98836   9.419  11.537  11.721 -0.3800 -0.1526  0.0741
64290CL      CL98837   1.024  11.305  11.243 -0.0713 -0.0150 -0.1996
64291CL      CL98838   6.258   0.150   7.862  0.2128  0.0098 -0.4323
64292CL      CL98839   3.040   1.243   1.291 -0.4925 -0.1215 -0.1243
64293CL      CL98840   2.239   4.336   2.297  0.1295 -0.2674  0.0332
64294CL      CL98841   9.090  10.768  10.626  0.2498  0.0860  0.0790
64295CL      CL98842   0.637  11.961  12.265 -0.5654  0.1909 -0.3934
64296CL      CL98843   8.579   4.752   8.956  0.0204  0.2946 -0.6602
64297CL      CL98844   4.502   5.955  10.081 -0.0786  0.1575 -0.2532
64298CL      CL98845   1.088   6.303   0.068 -0.0610  0.0995  0.0025
64299CL      CL98846   6.901   5.493   7.611 -0.2004 -0.2212 -0.1588
64300CL      CL98847   4.057   6.854   6.929 -0.0105  0.0598 -0.2050
64301CL      CL98848   4.025   8.950   9.803 -0.1082  0.2482 -0.0859
64302CL      CL98849   0.197  11.740   8.026  0.0460  0.3454 -0.2322
64303CL      CL98850  10.671   0.055  10.806  0.2926 -0.2479 -0.1201
64304CL      CL98851  10.049   4.778  11.095 -0.2621  0.1062  0.3495
64305CL      CL98852   2.452   9.937   8.130  0.0083  0.0939 -0.0756
64306CL      CL98853   6.872   1.703   5.459 -0.1704  0.0396  0.4167
64307CL      CL98854   1.579   1.809   9.013 -0.3284  0.3188 -0.2624
64308CL      CL98855  10.858   2.198   2.799 -0.3842  0.3360 -0.0626
  12.59491  12.59491  12.59491
